G2DPncore-PETIM in water
285710
    1aaa     N1    1   5.035   4.394   4.812 -0.6666  0.5827  0.3352
    1aaa     C1    2   5.041   4.252   4.859 -0.5396  0.4665  0.0563
    1aaa     H1    3   5.087   4.259   4.958 -1.2556 -1.1268  0.5342
    1aaa     H2    4   4.939   4.211   4.861 -0.7268  0.9267  1.2746
    1aaa     C2    5   4.950   4.412   4.684  0.3623 -0.6959 -0.5323
    1aaa     H3    6   4.996   4.363   4.598 -3.6752 -0.2522 -3.2211
    1aaa     H4    7   4.852   4.369   4.704  0.0579 -0.1482 -0.8317
    1aaa     C3    8   4.963   4.471   4.926 -0.3806  0.2918  0.3037
    1aaa     H5    9   4.939   4.566   4.878 -0.6779  0.0703  0.0070
    1aaa     H6   10   4.874   4.410   4.941  0.2270 -0.4248  1.0504
    1aaa     C4   11   5.042   4.492   5.056 -0.1835  0.1955  0.2421
    1aaa     H7   12   5.053   4.401   5.116  2.5584 -0.5823 -1.2699
    1aaa     H8   13   5.140   4.524   5.019  1.1076 -1.0659  2.3673
    1aaa     C5   14   5.128   4.163   4.763  0.1697 -0.4911 -0.1524
    1aaa     H9   15   5.088   4.180   4.662 -0.9514 -1.7317  0.0646
    1aaa    H10   16   5.231   4.201   4.772  0.2849 -0.4802 -1.3811
    1aaa     C6   17   4.921   4.560   4.634  0.5335 -0.3215 -0.2798
    1aaa    H11   18   4.876   4.627   4.709  0.2499  0.0514 -0.7785
    1aaa    H12   19   5.020   4.604   4.617  1.1070 -2.0704 -1.7465
    1aaa     C7   20   4.828   4.562   4.505 -0.4792  1.0761  0.2601
    1aaa    H13   21   4.865   4.485   4.437 -0.1118  1.2348  0.2801
    1aaa    H14   22   4.728   4.532   4.539 -0.8413  2.5745  0.6324
    1aaa     C8   23   4.983   4.610   5.135 -0.4081 -0.0689  0.1086
    1aaa    H15   24   4.970   4.695   5.067 -2.5806  0.5738  1.2469
    1aaa    H16   25   4.880   4.577   5.150  0.1445 -2.6475 -1.1067
    1aaa     C9   26   5.118   4.011   4.790 -0.4654  0.0514  0.1575
    1aaa    H17   27   5.122   3.987   4.897  1.2924 -1.3951 -0.1683
    1aaa    H18   28   5.016   3.993   4.753  0.1303  1.1921 -2.2754
    1aaa    H19   29   5.126   4.434   4.787 -0.8777  0.5853 -0.4769
    2bbb     N1   30   4.611   4.963   4.052  0.4987 -0.1084  0.5899
    2bbb     C1   31   4.648   4.961   3.906  0.4526 -0.1434 -0.1552
    2bbb     H1   32   4.576   5.009   3.840 -0.0535  0.7762  1.0280
    2bbb     H2   33   4.641   4.854   3.888 -1.6903  0.2099 -1.7234
    2bbb     C2   34   4.461   4.923   4.057  0.5734  0.4063 -0.2996
    2bbb     H3   35   4.449   4.914   4.165  1.4301  1.6579 -0.0779
    2bbb     H4   36   4.449   4.820   4.023 -0.2639 -0.2491  1.8077
    2bbb     C3   37   4.680   4.834   4.112  0.3050 -0.2650 -0.0654
    2bbb     H5   38   4.782   4.829   4.073  0.1999  1.9267 -0.7409
    2bbb     H6   39   4.637   4.737   4.085 -0.2776  0.1996 -0.8966
    2bbb     C4   40   4.700   4.831   4.267 -0.1922  0.2499  1.0161
    2bbb     H7   41   4.610   4.866   4.319 -0.1056  2.0075  0.0665
    2bbb     H8   42   4.779   4.903   4.292 -0.6167  0.4736  1.7514
    2bbb     C5   43   4.789   5.016   3.865  0.0533  1.0224 -0.3472
    2bbb     H9   44   4.873   4.959   3.906 -1.7253 -1.3002  0.2452
    2bbb    H10   45   4.784   5.122   3.895 -2.0111  0.9806 -0.3955
    2bbb     C6   46   4.355   5.015   4.001  0.5057  0.6709 -0.6763
    2bbb    H11   47   4.354   5.001   3.893 -0.7501  0.1778 -0.6222
    2bbb    H12   48   4.377   5.120   4.023  1.3685  0.5379 -0.9029
    2bbb     C7   49   4.751   4.685   4.315 -0.4286  0.0938  1.0360
    2bbb    H13   50   4.817   4.647   4.236 -1.5009  0.0428  0.1405
    2bbb    H14   51   4.673   4.610   4.297 -0.6214  0.2476  1.2269
    2bbb     C8   52   4.209   4.991   4.052  0.7605  0.2722 -0.4750
    2bbb    H15   53   4.174   4.890   4.030  0.4403  0.4919 -0.9893
    2bbb    H16   54   4.208   4.992   4.162  0.9720 -1.5230 -0.4372
    2bbb     C9   55   4.806   5.005   3.708  0.7215  0.0208 -0.4490
    2bbb    H17   56   4.713   5.033   3.659  0.4157  1.6132  0.9718
    2bbb    H18   57   4.816   4.898   3.684 -1.6863  0.1431 -2.3301
    2bbb     O1   58   4.823   4.695   4.446  0.0104  0.0327  0.5191
    2bbb    H19   59   4.622   5.054   4.099 -1.8257  0.3514  0.3655
    3bbb     N1   60   4.993   4.805   5.729  0.4595 -0.1772  0.2129
    3bbb     C1   61   5.113   4.886   5.772 -0.7745  0.4101  0.0347
    3bbb     H1   62   5.199   4.859   5.709 -1.1859  0.5107 -0.5772
    3bbb     H2   63   5.136   4.850   5.872  0.7603 -2.0071 -1.0803
    3bbb     C2   64   4.866   4.844   5.803  0.5301 -0.0783  0.2234
    3bbb     H3   65   4.782   4.796   5.751  2.1340 -2.2899 -0.4968
    3bbb     H4   66   4.852   4.951   5.790  2.3877  0.4112  1.8214
    3bbb     C3   67   4.966   4.816   5.580 -0.6271 -0.0275 -0.8449
    3bbb     H5   68   4.979   4.921   5.555 -0.3490 -0.0752 -0.9033
    3bbb     H6   69   4.862   4.783   5.575 -0.5430 -0.7993  1.3011
    3bbb     C4   70   5.054   4.742   5.481  0.2923  0.4818  0.1650
    3bbb     H7   71   5.070   4.637   5.508  2.4018  0.2283 -1.7352
    3bbb     H8   72   5.150   4.796   5.472  0.4224  0.1283 -0.7125
    3bbb     C5   73   5.095   5.044   5.763  0.3440  0.2907 -0.1105
    3bbb     H9   74   4.993   5.078   5.782  0.6438  1.2298 -0.1136
    3bbb    H10   75   5.129   5.086   5.667  1.2586 -1.8215 -0.7764
    3bbb     C6   76   4.855   4.789   5.952 -0.0788  0.5941  0.0632
    3bbb    H11   77   4.938   4.826   6.013 -0.8774  1.6780  0.5096
    3bbb    H12   78   4.856   4.679   5.951 -2.5822  0.5211 -0.0957
    3bbb     C7   79   4.985   4.740   5.344  0.0164 -0.6934  0.3280
    3bbb    H13   80   4.974   4.843   5.307 -0.7146  1.4265  5.6170
    3bbb    H14   81   4.883   4.705   5.365 -0.2010 -0.8808 -0.9465
    3bbb     C8   82   4.716   4.821   6.011 -0.6675 -0.3410 -0.1681
    3bbb    H15   83   4.704   4.926   6.039 -0.3632 -1.1292  3.3328
    3bbb    H16   84   4.637   4.794   5.940 -1.9429  1.8364  0.3493
    3bbb     C9   85   5.176   5.114   5.876 -0.4283 -0.2472 -0.5621
    3bbb    H17   86   5.160   5.223   5.882 -0.5017 -0.3364  2.3736
    3bbb    H18   87   5.280   5.088   5.855  0.1203  1.2981  0.0762
    3bbb     O1   88   5.058   4.643   5.253 -0.8688 -0.3724 -0.2223
    3bbb    H19   89   5.001   4.705   5.749 -1.4357 -0.3747  0.1630
    4bbb     N1   90   5.464   3.514   4.608  0.6046 -0.1006  0.7309
    4bbb     C1   91   5.592   3.563   4.674  0.3685 -0.1335 -0.1017
    4bbb     H1   92   5.571   3.560   4.781  2.0234  0.8357  0.2965
    4bbb     H2   93   5.604   3.663   4.632 -0.5669  0.3099  0.6245
    4bbb     C2   94   5.445   3.363   4.628 -0.4034  0.5371  0.8695
    4bbb     H3   95   5.439   3.339   4.735 -0.4356 -0.8485  0.5829
    4bbb     H4   96   5.533   3.318   4.581 -0.9677  0.5014 -0.1668
    4bbb     C3   97   5.350   3.582   4.681  0.1358  0.0006  0.1129
    4bbb     H5   98   5.353   3.549   4.785  2.6431  1.5842  0.6370
    4bbb     H6   99   5.255   3.546   4.643 -1.0914  1.3035  1.7745
    4bbb     C4  100   5.337   3.738   4.665  0.5096  0.1459 -1.0394
    4bbb     H7  101   5.347   3.783   4.565  0.9637  2.9248  0.1390
    4bbb     H8  102   5.427   3.788   4.706  1.2417 -0.9740 -1.2455
    4bbb     C5  103   5.723   3.476   4.655 -0.4328 -0.4685 -0.7388
    4bbb     H9  104   5.703   3.375   4.691 -1.1656 -0.1345 -0.1824
    4bbb    H10  105   5.795   3.519   4.727  0.2403 -2.2721 -0.2924
    4bbb     C6  106   5.323   3.298   4.566 -0.1613  0.5125  0.2700
    4bbb    H11  107   5.311   3.327   4.460  3.2900 -1.3672 -0.7727
    4bbb    H12  108   5.224   3.329   4.603 -0.5559  1.3293 -1.3391
    4bbb     C7  109   5.212   3.789   4.742  0.6929 -0.3512  0.1097
    4bbb    H13  110   5.218   3.764   4.848  0.3640 -0.9665 -0.0095
    4bbb    H14  111   5.121   3.749   4.696  0.2424  0.0709  0.6207
    4bbb     C8  112   5.336   3.149   4.579  0.3443  0.4796  0.0494
    4bbb    H15  113   5.437   3.117   4.554  0.3551 -0.6053  1.3886
    4bbb    H16  114   5.314   3.121   4.683  1.3622  2.0255  0.7089
    4bbb     C9  115   5.796   3.478   4.520  0.6608  0.5156 -0.1946
    4bbb    H17  116   5.792   3.582   4.484 -1.0390  0.5057 -0.0877
    4bbb    H18  117   5.737   3.428   4.442  0.7665  1.5036 -0.9306
    4bbb     O1  118   5.215   3.938   4.711  0.2990  0.3700 -0.8289
    4bbb    H19  119   5.470   3.539   4.508  1.2581 -0.4595  0.6742
    5bbb     N1  120   3.760   5.392   4.028  0.6722  0.5044 -0.2060
    5bbb     C1  121   3.666   5.355   4.145  0.3024  0.4970  0.7163
    5bbb     H1  122   3.588   5.431   4.145 -0.1810  0.0288 -0.6784
    5bbb     H2  123   3.714   5.361   4.243 -0.0752 -0.0917  0.9512
    5bbb     C2  124   3.782   5.544   4.018 -0.1170 -0.7967  0.1052
    5bbb     H3  125   3.851   5.573   3.939 -1.5887  2.1882 -0.2294
    5bbb     H4  126   3.820   5.571   4.117 -0.6720 -3.1474  1.0273
    5bbb     C3  127   3.892   5.316   4.067 -0.8617  0.4677 -0.2992
    5bbb     H5  128   3.872   5.209   4.077  0.5954  0.3070  1.4336
    5bbb     H6  129   3.923   5.362   4.161 -1.5141  0.5070 -0.0993
    5bbb     C4  130   4.005   5.312   3.955 -0.3818  0.6037 -0.2634
    5bbb     H7  131   4.038   5.415   3.944  2.5374 -0.1761  0.4096
    5bbb     H8  132   3.955   5.271   3.866 -1.5758  0.3514  0.4952
    5bbb     C5  133   3.598   5.213   4.134 -0.6953 -0.1287  0.4666
    5bbb     H9  134   3.552   5.187   4.231 -0.3877  1.1563  0.9851
    5bbb    H10  135   3.683   5.150   4.106  0.3554  1.5549 -0.2916
    5bbb     C6  136   3.657   5.629   4.002 -0.6727  0.1434  0.3600
    5bbb    H11  137   3.607   5.641   4.099 -0.7237 -0.4501  0.4103
    5bbb    H12  138   3.596   5.570   3.933  0.3350 -2.4830  1.5972
    5bbb     C7  139   4.135   5.224   3.985 -0.0169 -0.3400  0.2698
    5bbb    H13  140   4.178   5.249   4.082  2.0134  0.0479 -0.6759
    5bbb    H14  141   4.200   5.260   3.904 -1.8590  2.0631 -0.2735
    5bbb     C8  142   3.680   5.769   3.930 -0.0388  0.4549  0.4054
    5bbb    H15  143   3.742   5.835   3.991 -0.0684  1.9993 -1.1702
    5bbb    H16  144   3.735   5.753   3.837 -0.2368  3.3951 -0.3062
    5bbb     C9  145   3.480   5.211   4.032 -0.0642  0.1156  0.0010
    5bbb    H17  146   3.449   5.106   4.023 -0.1034  0.0678  0.6808
    5bbb    H18  147   3.499   5.239   3.927 -1.2334  0.9148 -0.0095
    5bbb     O1  148   4.111   5.080   3.979 -0.3812  0.4808 -0.4862
    5bbb    H19  149   3.716   5.357   3.941 -0.2567 -0.6622  0.6932
    6bbb     N1  150   5.248   5.251   3.409 -0.1447  0.0350 -0.0449
    6bbb     C1  151   5.209   5.279   3.273 -0.1465 -0.0470  0.5243
    6bbb     H1  152   5.251   5.371   3.231  0.4948 -1.7114 -2.7668
    6bbb     H2  153   5.105   5.306   3.286 -0.8831 -0.7165 -3.0085
    6bbb     C2  154   5.296   5.385   3.471 -0.0240 -0.4485  0.2959
    6bbb     H3  155   5.314   5.371   3.578 -0.0526 -0.6277  0.2767
    6bbb     H4  156   5.211   5.454   3.461  1.2995  1.3328  0.8330
    6bbb     C3  157   5.130   5.208   3.494  0.5401 -0.5394  0.0150
    6bbb     H5  158   5.071   5.136   3.436  1.7610 -0.7395 -1.0203
    6bbb     H6  159   5.064   5.292   3.518  0.8136 -0.6655  1.2701
    6bbb     C4  160   5.160   5.130   3.629 -0.0478 -0.9216 -0.2188
    6bbb     H7  161   5.178   5.203   3.708  4.5525 -1.6839 -0.2791
    6bbb     H8  162   5.253   5.072   3.624 -0.3716 -1.4243 -0.5276
    6bbb     C5  163   5.231   5.167   3.166 -0.9323  0.3405  0.0216
    6bbb     H9  164   5.155   5.088   3.174  0.1015 -0.6134  0.6477
    6bbb    H10  165   5.327   5.119   3.187 -1.3232 -0.5012 -0.0717
    6bbb     C6  166   5.426   5.463   3.425  0.7506 -0.2483 -0.0717
    6bbb    H11  167   5.423   5.470   3.315  1.8928  2.9575 -0.0034
    6bbb    H12  168   5.519   5.413   3.454 -0.0738 -0.1543  3.0281
    6bbb     C7  169   5.048   5.035   3.688 -1.0469 -0.2868 -0.2188
    6bbb    H13  170   5.071   5.026   3.795  1.3456  3.4834 -0.2622
    6bbb    H14  171   5.051   4.942   3.630 -0.8436  0.2348 -1.0580
    6bbb     C8  172   5.429   5.606   3.487  0.2957  0.8831 -0.0770
    6bbb    H15  173   5.333   5.658   3.487  0.6518  1.5619 -0.8007
    6bbb    H16  174   5.457   5.604   3.593 -0.8781  0.8189  0.2473
    6bbb     C9  175   5.233   5.227   3.025  0.4347  0.1550  0.2821
    6bbb    H17  176   5.319   5.294   3.016  0.4144  0.0777 -0.6509
    6bbb    H18  177   5.144   5.287   3.000  0.4186 -0.4387 -1.2208
    6bbb     O1  178   4.912   5.087   3.656 -0.0227  0.4703 -0.8325
    6bbb    H19  179   5.324   5.181   3.414 -1.6425 -1.5687  1.4539
    7bbb     N1  180   4.445   4.475   6.435  0.3785  0.1971 -0.0559
    7bbb     C1  181   4.432   4.326   6.403  0.4600  0.9014  0.7934
    7bbb     H1  182   4.375   4.285   6.487 -0.8072  1.7766  0.4034
    7bbb     H2  183   4.525   4.270   6.409 -0.3122 -0.2179  3.9743
    7bbb     C2  184   4.520   4.495   6.564 -0.2864  0.1036  0.7308
    7bbb     H3  185   4.546   4.600   6.579 -0.8089  0.6675 -1.8216
    7bbb     H4  186   4.615   4.441   6.562 -0.6134 -0.4568 -0.4100
    7bbb     C3  187   4.512   4.537   6.313  0.8098 -0.4406  0.0082
    7bbb     H5  188   4.439   4.505   6.238  0.3094 -3.5533  1.6344
    7bbb     H6  189   4.599   4.477   6.284 -0.6081 -2.0487 -1.1870
    7bbb     C4  190   4.535   4.697   6.315 -0.1328  0.0713 -0.4693
    7bbb     H7  191   4.616   4.720   6.385 -0.1337 -0.0754 -0.4197
    7bbb     H8  192   4.448   4.742   6.365 -1.3225  1.1741 -3.3167
    7bbb     C5  193   4.364   4.278   6.278 -0.2099  0.4843  0.4459
    7bbb     H9  194   4.428   4.311   6.195 -2.1505  0.5771 -1.1231
    7bbb    H10  195   4.274   4.341   6.270  1.1233  3.0450  3.5258
    7bbb     C6  196   4.447   4.451   6.690  0.1815 -0.4763  0.0194
    7bbb    H11  197   4.441   4.342   6.690 -1.3181 -0.4201  0.3174
    7bbb    H12  198   4.345   4.492   6.689  0.9326  1.5031 -0.1169
    7bbb     C7  199   4.565   4.778   6.184 -0.4442 -0.0428  0.1905
    7bbb    H13  200   4.569   4.886   6.204 -2.0553  0.2759 -0.9725
    7bbb    H14  201   4.491   4.753   6.107  1.5517 -1.2106 -1.4277
    7bbb     C8  202   4.517   4.504   6.814  0.2236  0.6325 -0.2533
    7bbb    H15  203   4.617   4.462   6.827 -0.9476 -2.4310 -0.2984
    7bbb    H16  204   4.519   4.613   6.812  1.4030  0.6312  0.0260
    7bbb     C9  205   4.344   4.125   6.273 -0.1495  0.6074 -0.1810
    7bbb    H17  206   4.419   4.081   6.340 -3.1868  0.6090  3.6029
    7bbb    H18  207   4.376   4.091   6.174  2.4411 -0.3104  0.8671
    7bbb     O1  208   4.697   4.739   6.131  0.4009  0.8461  0.0393
    7bbb    H19  209   4.353   4.520   6.443  0.4543  0.9291 -2.5343
    8bbb     N1  210   5.167   5.316   6.364 -0.2595 -0.1480 -0.1080
    8bbb     C1  211   5.042   5.370   6.426  0.7459 -0.4509  0.5268
    8bbb     H1  212   5.029   5.315   6.519 -0.2290  0.1668  0.7777
    8bbb     H2  213   4.958   5.339   6.364  0.3446 -1.9933  1.7658
    8bbb     C2  214   5.261   5.261   6.472  0.6362 -0.0385 -0.3379
    8bbb     H3  215   5.338   5.196   6.429  0.0763 -1.2876  0.5187
    8bbb     H4  216   5.198   5.195   6.530  1.3039 -1.4027 -1.1202
    8bbb     C3  217   5.119   5.200   6.278  0.0685  0.0470 -0.1485
    8bbb     H5  218   5.030   5.229   6.223 -0.7829 -0.2163  1.0447
    8bbb     H6  219   5.090   5.113   6.338  1.0917 -0.0633  0.1970
    8bbb     C4  220   5.229   5.163   6.180  0.4019  0.1052 -0.1600
    8bbb     H7  221   5.330   5.156   6.224  0.4879 -0.4268 -0.4384
    8bbb     H8  222   5.245   5.239   6.102  0.7808 -0.4404 -0.6245
    8bbb     C5  223   5.030   5.524   6.441 -0.2557  0.4556  0.1745
    8bbb     H9  224   5.080   5.569   6.354  1.4924  0.0744  0.9417
    8bbb    H10  225   5.094   5.552   6.526 -0.3175 -1.5220  0.9199
    8bbb     C6  226   5.338   5.362   6.560 -0.2054  0.0101  0.0320
    8bbb    H11  227   5.280   5.431   6.621 -0.9611  0.9323 -1.6694
    8bbb    H12  228   5.397   5.424   6.492  0.9206  0.8791  1.7377
    8bbb     C7  229   5.206   5.031   6.098  0.2453  0.0569 -0.1252
    8bbb    H13  230   5.160   4.949   6.156 -2.6859  0.9777 -0.9580
    8bbb    H14  231   5.305   4.991   6.073  0.7677  1.0697  0.2778
    8bbb     C8  232   5.434   5.285   6.661  0.3317  0.3817  0.6335
    8bbb    H15  233   5.366   5.233   6.729 -2.2263  0.7909 -1.4455
    8bbb    H16  234   5.491   5.208   6.607 -1.9660 -1.9048  1.2930
    8bbb     C9  235   4.884   5.563   6.453 -0.0008 -0.1565 -0.4466
    8bbb    H17  236   4.840   5.517   6.542 -0.0775  1.6016  0.4624
    8bbb    H18  237   4.835   5.530   6.360 -0.6075  2.0253 -0.9506
    8bbb     O1  238   5.116   5.047   5.990  0.0808  0.2884 -0.3729
    8bbb    H19  239   5.208   5.386   6.300 -1.5936  0.3050 -0.5053
    9bbb     N1  240   5.016   2.694   4.244  0.5797 -0.3401 -0.3872
    9bbb     C1  241   5.034   2.733   4.092  0.1623 -0.1778  0.0485
    9bbb     H1  242   5.129   2.689   4.060 -1.0068 -2.0295 -1.0582
    9bbb     H2  243   5.042   2.840   4.076 -0.7719 -0.3631 -1.9186
    9bbb     C2  244   4.991   2.545   4.271  1.5377 -0.1615 -0.0724
    9bbb     H3  245   4.912   2.516   4.201 -3.0699  0.7286  4.1980
    9bbb     H4  246   4.955   2.531   4.373 -1.6878  0.3985 -1.0226
    9bbb     C3  247   5.139   2.751   4.319 -0.3643 -0.0354 -0.5175
    9bbb     H5  248   5.232   2.724   4.269 -0.8937 -0.6326 -1.2205
    9bbb     H6  249   5.139   2.710   4.419  2.3916 -0.4976 -0.6504
    9bbb     C4  250   5.154   2.906   4.337  0.3375  0.2333 -0.0639
    9bbb     H7  251   5.049   2.936   4.346  0.3017 -0.0199  0.4083
    9bbb     H8  252   5.203   2.947   4.248 -0.8950  0.7732 -0.5171
    9bbb     C5  253   4.923   2.681   3.995  0.4378  0.0914 -0.1917
    9bbb     H9  254   4.902   2.578   4.024  0.6704 -0.0153 -0.3959
    9bbb    H10  255   4.954   2.684   3.889  1.1363  0.3222  0.0125
    9bbb     C6  256   5.109   2.448   4.263 -0.4905  0.2775  0.4102
    9bbb    H11  257   5.188   2.488   4.328  1.5381 -2.3830 -0.2308
    9bbb    H12  258   5.152   2.432   4.164 -0.8375 -0.3273  0.3494
    9bbb     C7  259   5.231   2.943   4.466  0.6915 -0.2575 -0.1060
    9bbb    H13  260   5.330   2.895   4.471  0.8247  0.0709  0.5157
    9bbb    H14  261   5.180   2.905   4.556  0.4269  0.9404  0.2588
    9bbb     C8  262   5.069   2.306   4.327  0.3344 -0.7263  0.6009
    9bbb    H15  263   5.032   2.337   4.425 -2.8739 -0.2149 -0.6511
    9bbb    H16  264   4.993   2.267   4.260  1.0780 -1.6007  0.2466
    9bbb     C9  265   4.789   2.759   4.003  0.1742 -0.2383 -0.5893
    9bbb    H17  266   4.817   2.865   4.016 -0.0030 -0.4158  1.5908
    9bbb    H18  267   4.738   2.731   4.096 -1.5254 -1.6964 -1.8889
    9bbb     O1  268   5.243   3.090   4.480 -0.3799 -0.2549 -0.0446
    9bbb    H19  269   4.932   2.742   4.278  1.0079  1.4124 -1.6760
   10bbb     N1  270   6.267   3.140   4.480  0.2822  0.5569  0.3487
   10bbb     C1  271   6.284   2.990   4.454  0.5212  0.0372  0.2165
   10bbb     H1  272   6.300   2.961   4.350  2.8163 -0.8910  0.7569
   10bbb     H2  273   6.189   2.951   4.488  0.4645 -0.6100 -0.6359
   10bbb     C2  274   6.394   3.211   4.437  0.4436 -0.3848  0.3604
   10bbb     H3  275   6.371   3.272   4.350 -0.3070 -1.3051 -0.1074
   10bbb     H4  276   6.454   3.131   4.392 -0.5694  0.1359 -2.0633
   10bbb     C3  277   6.145   3.187   4.411 -0.1040 -0.0468  0.5509
   10bbb     H5  278   6.062   3.148   4.470  0.5356 -2.0314  0.2150
   10bbb     H6  279   6.144   3.152   4.308  0.8457 -0.5246  0.6919
   10bbb     C4  280   6.131   3.342   4.405  0.0047 -0.1373 -0.6939
   10bbb     H7  281   6.185   3.374   4.315 -0.0331  1.6639 -0.1038
   10bbb     H8  282   6.183   3.389   4.489 -0.3372 -2.5579  0.9776
   10bbb     C5  283   6.383   2.915   4.539 -0.1177 -0.2634 -0.3547
   10bbb     H9  284   6.389   2.952   4.642  2.7279 -1.7437  0.1032
   10bbb    H10  285   6.479   2.937   4.492 -1.3912 -0.0107 -3.0705
   10bbb     C6  286   6.465   3.296   4.542  0.0853  0.1383 -0.4970
   10bbb    H11  287   6.457   3.239   4.636  1.8328  0.1931 -0.2871
   10bbb    H12  288   6.400   3.383   4.560  0.3926  0.2189  0.2348
   10bbb     C7  289   5.980   3.387   4.397  0.1000  0.1268 -0.1180
   10bbb    H13  290   5.914   3.319   4.342 -1.3915  3.1822 -2.3651
   10bbb    H14  291   5.983   3.482   4.342 -0.9265  0.5742  0.5574
   10bbb     C8  292   6.611   3.335   4.505 -0.7554  0.1474  0.1496
   10bbb    H15  293   6.600   3.404   4.420 -0.7076  3.0334  2.3329
   10bbb    H16  294   6.672   3.374   4.588 -0.1433  1.0671 -0.7198
   10bbb     C9  295   6.357   2.762   4.548  0.1517  0.3428  0.0438
   10bbb    H17  296   6.329   2.729   4.447 -0.2005  1.0781 -0.1101
   10bbb    H18  297   6.271   2.752   4.615 -0.7745  2.0544 -0.8245
   10bbb     O1  298   5.926   3.410   4.521 -0.4679 -0.1639 -0.1397
   10bbb    H19  299   6.248   3.154   4.580 -2.5404  1.7061 -0.2492
   11bbb     N1  300   3.348   6.213   3.631  0.0804  0.9805 -0.5582
   11bbb     C1  301   3.372   6.321   3.734 -0.2855  0.0118  0.6961
   11bbb     H1  302   3.469   6.365   3.711 -0.7585  0.4731 -0.4635
   11bbb     H2  303   3.381   6.266   3.828  0.1008  0.4015  0.8880
   11bbb     C2  304   3.352   6.276   3.490 -0.7527  0.4193  0.4427
   11bbb     H3  305   3.453   6.315   3.472 -0.5438 -0.9694 -1.9428
   11bbb     H4  306   3.287   6.363   3.493  0.5887  1.4422  0.8944
   11bbb     C3  307   3.458   6.111   3.646 -0.1152 -0.2509  0.3596
   11bbb     H5  308   3.551   6.167   3.654  0.7991 -1.3496 -1.8851
   11bbb     H6  309   3.457   6.071   3.545 -1.2602  1.8618 -0.5318
   11bbb     C4  310   3.444   6.004   3.757 -0.2067 -0.0411  0.1071
   11bbb     H7  311   3.383   5.921   3.717 -1.3017  0.6674  0.2802
   11bbb     H8  312   3.374   6.047   3.830 -0.2875  0.5426 -0.3056
   11bbb     C5  313   3.269   6.436   3.749  0.1924  0.3861  0.2740
   11bbb     H9  314   3.175   6.399   3.790 -1.1862  3.0631 -0.2489
   11bbb    H10  315   3.247   6.468   3.646  2.3658 -0.3239 -0.4755
   11bbb     C6  316   3.299   6.185   3.383  0.0431  0.5686 -0.4479
   11bbb    H11  317   3.362   6.098   3.363 -0.0005  0.4465 -0.0606
   11bbb    H12  318   3.289   6.237   3.287  0.1110  1.6281  0.0972
   11bbb     C7  319   3.571   5.961   3.824 -0.8821 -0.3773 -0.2725
   11bbb    H13  320   3.595   6.036   3.900 -1.9306 -1.3982  1.1041
   11bbb    H14  321   3.652   5.950   3.750 -0.4036 -0.2788  0.2235
   11bbb     C8  322   3.158   6.139   3.415  0.2601 -0.0395  0.1980
   11bbb    H15  323   3.125   6.064   3.342 -1.4547  1.9324 -1.1477
   11bbb    H16  324   3.157   6.101   3.518  0.3346  2.9020  1.3873
   11bbb     C9  325   3.312   6.552   3.836 -0.4259  0.1825  0.1050
   11bbb    H17  326   3.350   6.521   3.934  0.4401 -0.7494 -0.5048
   11bbb    H18  327   3.224   6.612   3.860 -1.5676 -1.0957 -0.7013
   11bbb     O1  328   3.554   5.828   3.887 -0.4609 -0.5581 -0.1354
   11bbb    H19  329   3.259   6.166   3.651  0.8240 -1.1652 -1.9036
   12bbb     N1  330   3.012   5.519   4.155  0.1357 -0.4365 -0.3508
   12bbb     C1  331   3.069   5.646   4.224  0.0120  0.1751 -0.3419
   12bbb     H1  332   3.121   5.707   4.150 -0.1861 -0.3510 -0.9243
   12bbb     H2  333   3.137   5.614   4.304 -1.2100  0.8951  1.0254
   12bbb     C2  334   2.915   5.566   4.047 -0.7299 -0.0375  0.2405
   12bbb     H3  335   2.971   5.636   3.985  1.8152  0.2157  2.6501
   12bbb     H4  336   2.838   5.626   4.097 -1.0012  1.1461 -1.5118
   12bbb     C3  337   3.123   5.426   4.109  0.4135 -0.2770  0.0485
   12bbb     H5  338   3.073   5.335   4.075  0.2224  0.1950 -0.9736
   12bbb     H6  339   3.185   5.402   4.197 -0.8573 -1.0217  0.7698
   12bbb     C4  340   3.210   5.460   3.993 -0.5877 -0.5335  0.1414
   12bbb     H7  341   3.261   5.557   3.995  0.1127 -0.8292 -1.7803
   12bbb     H8  342   3.141   5.474   3.909 -0.7912  1.5335  0.6177
   12bbb     C5  343   2.972   5.737   4.304  0.5173 -0.2766 -0.3342
   12bbb     H9  344   2.875   5.688   4.315  0.1446  0.5621  0.2122
   12bbb    H10  345   2.942   5.818   4.236 -1.6256 -1.2910 -0.6923
   12bbb     C6  346   2.848   5.450   3.966  0.0388 -0.1864 -0.7772
   12bbb    H11  347   2.780   5.385   4.022 -0.6484 -0.0026 -1.3806
   12bbb    H12  348   2.926   5.389   3.921  0.2468 -0.0823 -0.5605
   12bbb     C7  349   3.307   5.352   3.952 -0.5516  0.0024 -0.0399
   12bbb    H13  350   3.372   5.399   3.878 -1.5966  1.4326 -0.1085
   12bbb    H14  351   3.257   5.266   3.907  0.1377 -1.4296  1.8077
   12bbb     C8  352   2.761   5.525   3.860  0.2166  0.2049 -0.3987
   12bbb    H15  353   2.660   5.531   3.902 -0.4025  0.3415 -1.8671
   12bbb    H16  354   2.807   5.621   3.834  0.9135  0.1598  0.6129
   12bbb     C9  355   3.021   5.801   4.436  0.0154  0.5396 -0.8212
   12bbb    H17  356   3.083   5.890   4.419  1.7415 -0.3942  0.3818
   12bbb    H18  357   3.083   5.724   4.484  0.0909  1.6206  0.8997
   12bbb     O1  358   3.374   5.305   4.066 -0.0454  0.2658  0.5727
   12bbb    H19  359   2.965   5.462   4.227  0.8979 -3.2187 -1.9079
   13bbb     N1  360   5.816   5.983   3.227 -0.3697 -0.1993  0.1478
   13bbb     C1  361   5.907   5.892   3.149  0.8791  0.1244 -0.1085
   13bbb     H1  362   5.969   5.960   3.090  0.2983  0.5334 -0.2545
   13bbb     H2  363   5.853   5.834   3.074  0.5428  0.5236 -0.1802
   13bbb     C2  364   5.776   6.093   3.128  0.2870 -0.0312 -0.2346
   13bbb     H3  365   5.671   6.112   3.151 -0.1843 -0.3447 -1.9486
   13bbb     H4  366   5.780   6.063   3.023 -0.2709 -1.0116  0.0075
   13bbb     C3  367   5.693   5.901   3.270  0.7396 -0.1764 -0.1683
   13bbb     H5  368   5.682   5.812   3.208  2.2228 -1.5020  1.4113
   13bbb     H6  369   5.603   5.962   3.257  1.3051  0.5472 -0.7970
   13bbb     C4  370   5.696   5.857   3.417 -0.1847  0.7817 -0.5804
   13bbb     H7  371   5.716   5.942   3.483 -0.6825 -0.5943  1.4387
   13bbb     H8  372   5.779   5.789   3.440  1.0364  2.9362  1.7929
   13bbb     C5  373   5.999   5.805   3.241 -0.1888 -0.0713 -0.1061
   13bbb     H9  374   6.070   5.752   3.176 -1.6836 -0.3224 -1.5828
   13bbb    H10  375   5.941   5.728   3.293  0.1786  0.1214  0.5970
   13bbb     C6  376   5.837   6.229   3.155 -0.3965  0.0825  0.5064
   13bbb    H11  377   5.936   6.208   3.195  0.1569  0.0081 -0.8321
   13bbb    H12  378   5.799   6.287   3.240  1.2984  2.3970 -0.2020
   13bbb     C7  379   5.562   5.799   3.469  0.1165  0.8378 -0.2230
   13bbb    H13  380   5.488   5.875   3.441 -1.0860  1.1043  3.2599
   13bbb    H14  381   5.561   5.784   3.578  1.1170 -2.8447 -0.5560
   13bbb     C8  382   5.841   6.328   3.031  0.0311 -0.2793 -0.1513
   13bbb    H15  383   5.736   6.348   3.009  0.0086  0.2342  0.4066
   13bbb    H16  384   5.886   6.424   3.059 -1.0313 -0.1711  1.3280
   13bbb     C9  385   6.088   5.893   3.338  0.0745  0.1159  0.0913
   13bbb    H17  386   6.177   5.845   3.381  3.1779  3.0925 -2.3381
   13bbb    H18  387   6.018   5.926   3.415  1.7127 -0.0040  1.7139
   13bbb     O1  388   5.527   5.671   3.412  0.1052 -0.7233  0.3097
   13bbb    H19  389   5.859   6.024   3.311 -0.5543  1.1978 -0.4129
   14bbb     N1  390   5.218   5.004   2.405  0.1550 -0.2479  0.4314
   14bbb     C1  391   5.073   4.968   2.403 -0.2488  1.2025 -0.1047
   14bbb     H1  392   5.019   5.063   2.404 -1.4517  0.6007 -1.9216
   14bbb     H2  393   5.057   4.918   2.499 -2.7504  0.4981 -0.7867
   14bbb     C2  394   5.249   5.074   2.281 -0.4290  0.1020  0.3618
   14bbb     H3  395   5.181   5.159   2.276 -0.6165  0.0180  1.3826
   14bbb     H4  396   5.224   5.010   2.196 -1.4048  1.3773 -0.3504
   14bbb     C3  397   5.250   5.096   2.527 -0.3001  0.2077  0.0239
   14bbb     H5  398   5.210   5.193   2.498  1.2815  0.2905 -2.1637
   14bbb     H6  399   5.357   5.118   2.520 -0.5685  1.1134 -2.1477
   14bbb     C4  400   5.213   5.053   2.674  0.0221  0.1569 -0.3008
   14bbb     H7  401   5.274   4.966   2.701  1.5593  1.0900 -0.6241
   14bbb     H8  402   5.109   5.021   2.671  0.0010  0.2665 -0.9919
   14bbb     C5  403   5.019   4.868   2.289  0.3814  0.3488 -0.1903
   14bbb     H9  404   5.057   4.768   2.313 -0.5318  0.4761  2.0572
   14bbb    H10  405   5.058   4.897   2.191  0.8029 -1.0755 -0.4665
   14bbb     C6  406   5.393   5.125   2.254 -0.1922  0.4366 -0.1839
   14bbb    H11  407   5.464   5.042   2.261  0.0524  0.1716 -3.8550
   14bbb    H12  408   5.429   5.197   2.328 -0.0997  0.0272  0.1722
   14bbb     C7  409   5.246   5.168   2.779  0.5164  0.1478 -0.4353
   14bbb    H13  410   5.188   5.258   2.752  2.9159  1.4023 -1.7413
   14bbb    H14  411   5.351   5.190   2.756  0.4525 -0.1975 -1.0794
   14bbb     C8  412   5.393   5.210   2.117 -0.5782 -0.1496  0.0771
   14bbb    H15  413   5.326   5.295   2.132  0.3447  0.6720 -0.2986
   14bbb    H16  414   5.490   5.257   2.093  0.3423 -1.5316  0.9323
   14bbb     C9  415   4.867   4.856   2.285 -0.9497 -0.0286  0.6464
   14bbb    H17  416   4.827   4.865   2.387  1.4951 -0.4529  1.6898
   14bbb    H18  417   4.846   4.754   2.250  1.6893 -0.5746  0.4789
   14bbb     O1  418   5.232   5.129   2.920 -0.3355 -0.6898 -0.0355
   14bbb    H19  419   5.271   4.916   2.398  3.2489  1.5820 -2.2721
   15bbb     N1  420   4.248   4.393   7.379  0.5692  0.1937  0.7868
   15bbb     C1  421   4.304   4.254   7.413 -0.0893 -0.2139 -0.1894
   15bbb     H1  422   4.407   4.276   7.442 -0.5052  1.7369 -0.0685
   15bbb     H2  423   4.307   4.195   7.322  0.0286 -0.3637 -0.0892
   15bbb     C2  424   4.233   4.470   7.508  0.8271 -0.0711  0.5927
   15bbb     H3  425   4.333   4.466   7.553  0.5963 -0.1048  1.1193
   15bbb     H4  426   4.167   4.416   7.577  0.3037 -0.0989  0.0727
   15bbb     C3  427   4.337   4.478   7.279 -0.0150 -0.4407  0.2126
   15bbb     H5  428   4.433   4.491   7.330 -0.2501 -0.5329  0.6810
   15bbb     H6  429   4.289   4.576   7.270 -0.4411 -0.6812 -0.1793
   15bbb     C4  430   4.357   4.417   7.140 -0.0085  0.1163  0.2238
   15bbb     H7  431   4.265   4.393   7.085 -1.3676  0.2973  2.2894
   15bbb     H8  432   4.419   4.327   7.150  0.1066  0.3277  1.6506
   15bbb     C5  433   4.246   4.185   7.534 -1.1278  0.2984  0.1892
   15bbb     H9  434   4.137   4.195   7.521 -1.1452 -0.0313  0.0624
   15bbb    H10  435   4.260   4.225   7.635 -2.1482  0.0548  0.4385
   15bbb     C6  436   4.172   4.610   7.498  0.4427  0.0535  0.3175
   15bbb    H11  437   4.076   4.591   7.448  0.0985  0.6777  0.7216
   15bbb    H12  438   4.238   4.660   7.427  0.8835 -3.6235 -2.1855
   15bbb     C7  439   4.444   4.501   7.043  1.0527  0.0763 -0.3116
   15bbb    H13  440   4.549   4.502   7.075  1.2640  0.2474 -0.9908
   15bbb    H14  441   4.408   4.604   7.032  0.8146 -0.1071 -1.2819
   15bbb     C8  442   4.133   4.671   7.638 -0.1400 -0.3360 -0.3372
   15bbb    H15  443   4.213   4.647   7.709 -1.2372 -1.0420  0.6968
   15bbb    H16  444   4.116   4.779   7.625 -1.9902 -0.3135  1.5699
   15bbb     C9  445   4.275   4.034   7.522  0.3361  0.1600  0.1743
   15bbb    H17  446   4.282   3.999   7.418  1.8264 -2.5849  1.0812
   15bbb    H18  447   4.190   3.971   7.547  0.5610 -0.8603 -1.4793
   15bbb     O1  448   4.427   4.453   6.910  0.3432  0.0388 -0.6073
   15bbb    H19  449   4.154   4.373   7.342  0.5924 -0.4643  1.0685
   16bbb     N1  450   3.846   3.796   6.407  0.5166 -0.1819  0.4118
   16bbb     C1  451   3.827   3.766   6.556 -0.5759  0.1849 -0.2209
   16bbb     H1  452   3.719   3.754   6.563 -0.5154 -0.7322 -0.5845
   16bbb     H2  453   3.856   3.839   6.631 -0.0192  1.1826 -1.3728
   16bbb     C2  454   3.745   3.899   6.368 -0.2536 -0.9543 -0.3306
   16bbb     H3  455   3.777   3.953   6.279 -2.6788  1.7429  0.2661
   16bbb     H4  456   3.745   3.967   6.454  1.5490 -1.8371  0.4198
   16bbb     C3  457   3.983   3.868   6.397  0.7264 -0.5029 -0.2841
   16bbb     H5  458   4.058   3.802   6.440  0.6624 -0.7711 -0.5809
   16bbb     H6  459   3.986   3.955   6.464  1.6791 -0.8793  0.1831
   16bbb     C4  460   4.038   3.907   6.260 -0.3972 -0.0353 -0.6348
   16bbb     H7  461   3.981   3.998   6.237  0.4088  0.2023 -1.8322
   16bbb     H8  462   4.010   3.829   6.187 -0.1733 -0.4364 -0.2960
   16bbb     C5  463   3.877   3.630   6.606 -0.1398 -0.1735  0.4683
   16bbb     H9  464   3.980   3.611   6.574 -0.7834 -0.7016 -1.4477
   16bbb    H10  465   3.814   3.554   6.559  0.4881  0.4903 -1.5678
   16bbb     C6  466   3.594   3.851   6.346  0.1213 -0.0495  0.0324
   16bbb    H11  467   3.570   3.778   6.424 -0.4545  2.6572  2.5552
   16bbb    H12  468   3.586   3.794   6.253 -1.7028 -0.0891  0.1900
   16bbb     C7  469   4.186   3.940   6.259 -0.5245 -0.1396 -0.5478
   16bbb    H13  470   4.241   3.876   6.330 -0.5726  0.8105  0.3667
   16bbb    H14  471   4.227   3.922   6.159  2.1558  1.2889  0.2016
   16bbb     C8  472   3.487   3.965   6.362 -0.6838  0.0902 -0.0406
   16bbb    H15  473   3.543   4.059   6.364  0.1815 -0.4131  1.1713
   16bbb    H16  474   3.408   3.964   6.286 -0.8932  2.3944  0.0912
   16bbb     C9  475   3.861   3.630   6.759 -0.0290  0.0646 -0.3727
   16bbb    H17  476   3.757   3.660   6.778 -0.4296  0.0771 -2.4262
   16bbb    H18  477   3.932   3.697   6.809  0.5654 -0.4089 -0.5802
   16bbb     O1  478   4.211   4.080   6.289  0.4048 -0.1568 -0.2314
   16bbb    H19  479   3.839   3.713   6.346  0.6953  1.4091 -1.9129
   17bbb     N1  480   5.782   5.654   6.972 -0.0474 -0.1800  0.3527
   17bbb     C1  481   5.827   5.592   7.101  0.2770 -0.3049 -0.7356
   17bbb     H1  482   5.869   5.492   7.091 -0.5375 -0.8518  0.9365
   17bbb     H2  483   5.739   5.569   7.161  0.0679  0.1765 -0.8470
   17bbb     C2  484   5.899   5.671   6.882 -0.0279 -0.4441 -0.2990
   17bbb     H3  485   5.921   5.577   6.830 -1.0738 -1.1951  0.5848
   17bbb     H4  486   5.980   5.687   6.953 -0.5611 -1.4606  0.5623
   17bbb     C3  487   5.679   5.559   6.905  0.7147  0.6173  0.0528
   17bbb     H5  488   5.631   5.611   6.822 -2.8887 -0.0068  1.5612
   17bbb     H6  489   5.599   5.551   6.978 -0.9521 -0.3123 -1.7859
   17bbb     C4  490   5.718   5.419   6.863  0.7722 -0.7289  0.3528
   17bbb     H7  491   5.780   5.372   6.941  2.4428  1.1065  0.2323
   17bbb     H8  492   5.775   5.425   6.769 -2.7699  0.6640 -1.8991
   17bbb     C5  493   5.916   5.681   7.185 -0.0099  0.3791  0.2091
   17bbb     H9  494   5.874   5.782   7.187 -0.0523  0.3701 -0.2374
   17bbb    H10  495   6.014   5.695   7.139 -0.1216  0.3080 -0.0530
   17bbb     C6  496   5.889   5.792   6.791  0.5075  0.3034  0.0464
   17bbb    H11  497   5.788   5.787   6.748  0.1546  0.4271  0.8338
   17bbb    H12  498   5.960   5.774   6.709 -0.1334 -0.2777 -0.3883
   17bbb     C7  499   5.603   5.321   6.833  0.8813  0.0738  0.0438
   17bbb    H13  500   5.548   5.302   6.926  2.1180  0.2852  0.8395
   17bbb    H14  501   5.641   5.222   6.806  2.7205  1.0764 -1.3794
   17bbb     C8  502   5.924   5.932   6.852 -0.7393 -0.3216 -0.3837
   17bbb    H15  503   5.900   6.012   6.782 -1.3835  0.4230  0.6592
   17bbb    H16  504   5.855   5.959   6.932 -1.4295  1.1115 -1.4253
   17bbb     C9  505   5.927   5.646   7.336  0.7192 -0.2340 -0.2323
   17bbb    H17  506   5.833   5.677   7.386 -0.2551 -0.6636 -1.7492
   17bbb    H18  507   6.017   5.695   7.376 -0.5799  0.6639  1.7798
   17bbb     O1  508   5.512   5.380   6.729 -0.5502  0.8866 -0.5685
   17bbb    H19  509   5.740   5.746   6.994  2.7960  0.8492  1.8829
   18bbb     N1  510   4.800   6.125   6.558  0.2721 -0.1082  0.5502
   18bbb     C1  511   4.897   6.165   6.676 -0.3529  0.2809 -0.3883
   18bbb     H1  512   5.000   6.139   6.651  0.0592  0.7500  0.7580
   18bbb     H2  513   4.875   6.094   6.755  0.7709 -1.0385 -1.2270
   18bbb     C2  514   4.839   6.188   6.424 -0.3864 -0.4126 -0.5121
   18bbb     H3  515   4.805   6.291   6.436 -0.6796 -0.5826  0.1842
   18bbb     H4  516   4.772   6.137   6.354 -1.0511 -0.0959 -0.1221
   18bbb     C3  517   4.817   5.976   6.544 -0.5695 -0.2494  0.1893
   18bbb     H5  518   4.797   5.925   6.638  1.9188  0.5132  1.2241
   18bbb     H6  519   4.921   5.949   6.523 -0.9293 -2.0565  0.5725
   18bbb     C4  520   4.721   5.904   6.449 -0.5085  0.5128  1.1721
   18bbb     H7  521   4.754   5.927   6.346  0.6265 -0.9209  1.1810
   18bbb     H8  522   4.618   5.939   6.467 -0.2173  2.9749 -1.1863
   18bbb     C5  523   4.874   6.308   6.729  0.3478 -0.1917 -0.4064
   18bbb     H9  524   4.769   6.324   6.756  0.9289  2.6472  0.5151
   18bbb    H10  525   4.885   6.382   6.649  0.9491  0.4695  0.2785
   18bbb     C6  526   4.994   6.181   6.390  0.2488 -0.4530 -0.0001
   18bbb    H11  527   5.017   6.074   6.383 -1.9273 -1.0045  0.5416
   18bbb    H12  528   5.063   6.223   6.464  1.2460  0.1874 -1.2545
   18bbb     C7  529   4.729   5.744   6.473 -0.0884  0.3144 -0.2791
   18bbb    H13  530   4.695   5.688   6.385  2.8775  1.4162 -2.2949
   18bbb    H14  531   4.674   5.714   6.563  1.6297 -1.5510  0.2220
   18bbb     C8  532   5.027   6.256   6.257 -0.5042  0.1068  0.3282
   18bbb    H15  533   5.136   6.255   6.245 -0.3264  0.8632  1.6226
   18bbb    H16  534   4.987   6.211   6.165 -0.5771  1.7384 -0.4818
   18bbb     C9  535   4.964   6.328   6.849  0.3386 -0.0175 -0.1197
   18bbb    H17  536   5.068   6.333   6.814 -0.6017  2.0171 -3.0476
   18bbb    H18  537   4.955   6.244   6.919 -1.9147  0.8469  0.7313
   18bbb     O1  538   4.868   5.702   6.477 -0.6550 -0.4746  0.0579
   18bbb    H19  539   4.707   6.163   6.581 -0.2952 -0.8260 -0.4554
   19bbb     N1  540   5.323   1.790   4.371 -0.3564  0.1760  0.5703
   19bbb     C1  541   5.472   1.818   4.384 -0.7377  0.5916  0.6230
   19bbb     H1  542   5.509   1.736   4.445  1.1455  1.6757  0.9910
   19bbb     H2  543   5.482   1.910   4.442  3.2462  0.1894  0.8067
   19bbb     C2  544   5.279   1.720   4.492 -0.2794  0.4456 -0.0401
   19bbb     H3  545   5.194   1.772   4.537  0.8836  2.2834  0.1360
   19bbb     H4  546   5.364   1.712   4.560 -0.6911 -1.5320  0.3188
   19bbb     C3  547   5.252   1.921   4.354  0.1526 -0.7909  0.6625
   19bbb     H5  548   5.261   1.975   4.449  0.7243  2.4087 -1.0723
   19bbb     H6  549   5.148   1.900   4.328  0.5459  1.4046 -3.4288
   19bbb     C4  550   5.300   2.018   4.241  0.1320 -0.1800  0.1416
   19bbb     H7  551   5.312   1.954   4.152 -2.4376 -0.8219  0.1795
   19bbb     H8  552   5.403   2.046   4.267  1.1509 -2.0172 -1.5701
   19bbb     C5  553   5.564   1.814   4.256  0.2330 -0.1994 -0.0378
   19bbb     H9  554   5.660   1.855   4.291  0.3817 -1.0007  0.5239
   19bbb    H10  555   5.543   1.873   4.167  1.1321  0.7282  0.3397
   19bbb     C6  556   5.246   1.573   4.455 -0.1060 -0.2230 -0.4721
   19bbb    H11  557   5.338   1.520   4.429 -0.8133 -0.5267 -2.6083
   19bbb    H12  558   5.185   1.572   4.364  0.0036  1.4841 -0.5889
   19bbb     C7  559   5.205   2.136   4.215  1.0690  0.1824 -0.1070
   19bbb    H13  560   5.113   2.097   4.171  0.5852  2.0624 -0.8810
   19bbb    H14  561   5.240   2.203   4.135 -0.6812  1.4830  0.1488
   19bbb     C8  562   5.173   1.499   4.574  0.3582 -0.4240 -0.1832
   19bbb    H15  563   5.230   1.498   4.668  0.4296 -0.0247 -0.2187
   19bbb    H16  564   5.094   1.571   4.600  0.3775 -0.8558  1.1433
   19bbb     C9  565   5.584   1.666   4.200 -0.0633 -0.1151 -0.3642
   19bbb    H17  566   5.658   1.615   4.263  1.3273  1.9808 -0.2262
   19bbb    H18  567   5.629   1.677   4.101 -0.6613 -0.0265 -0.6342
   19bbb     O1  568   5.177   2.212   4.337 -0.4307  0.0455  0.4982
   19bbb    H19  569   5.313   1.734   4.286  0.5958  0.2924  0.3673
   20bbb     N1  570   4.220   2.847   3.773 -0.7327 -0.5233 -0.2533
   20bbb     C1  571   4.209   2.831   3.626  0.0607  0.3071  0.5830
   20bbb     H1  572   4.104   2.809   3.607 -0.1121  0.8842  0.8386
   20bbb     H2  573   4.265   2.742   3.599  1.8794  1.8667 -1.0828
   20bbb     C2  574   4.155   2.726   3.840  0.0115 -0.3665 -0.2327
   20bbb     H3  575   4.225   2.643   3.844  1.3841  0.7018 -1.0585
   20bbb     H4  576   4.074   2.699   3.772  0.0875 -0.8736 -0.1233
   20bbb     C3  577   4.358   2.878   3.821 -0.2301 -0.4696 -0.4899
   20bbb     H5  578   4.368   2.915   3.923 -0.7927  0.9851 -0.9260
   20bbb     H6  579   4.392   2.965   3.763  0.4074  0.0309  0.5876
   20bbb     C4  580   4.467   2.773   3.809 -0.3533 -0.5604  0.0277
   20bbb     H7  581   4.514   2.766   3.710 -2.7449  0.0943 -1.2293
   20bbb     H8  582   4.412   2.680   3.827  0.3286 -1.3173 -1.5744
   20bbb     C5  583   4.254   2.949   3.531 -0.1628  0.5586 -0.0778
   20bbb     H9  584   4.362   2.972   3.534 -0.1431  0.6755  3.6860
   20bbb    H10  585   4.204   3.040   3.564  0.0161  0.4192  0.6002
   20bbb     C6  586   4.098   2.764   3.985  0.5877 -0.6205  0.7514
   20bbb    H11  587   4.044   2.859   3.992  0.3203 -0.6797 -0.2903
   20bbb    H12  588   4.177   2.766   4.061  2.5048 -5.3020 -0.7215
   20bbb     C7  589   4.572   2.796   3.924 -0.9444  1.0444 -0.1832
   20bbb    H13  590   4.535   2.733   4.006 -1.5988 -2.0715 -2.6700
   20bbb    H14  591   4.570   2.901   3.954 -2.3815  0.7943  0.7253
   20bbb     C8  592   3.998   2.651   4.022  0.1966 -0.6917 -0.5257
   20bbb    H15  593   4.060   2.561   4.032 -1.3528 -1.7435 -0.0437
   20bbb    H16  594   3.962   2.666   4.124  2.3271  2.8976 -0.1027
   20bbb     C9  595   4.208   2.922   3.387  0.4076 -0.6229 -0.1848
   20bbb    H17  596   4.224   2.816   3.364 -1.0295 -0.6992 -0.9081
   20bbb    H18  597   4.253   2.984   3.308  1.3608 -2.6904 -1.3555
   20bbb     O1  598   4.700   2.748   3.888  0.5084  0.1210  0.2560
   20bbb    H19  599   4.162   2.930   3.793 -0.3262 -0.2831 -0.0651
   21bbb     N1  600   6.923   2.906   4.149  0.1198 -0.3200 -0.1428
   21bbb     C1  601   6.996   2.919   4.019 -0.6405 -0.1610 -0.0032
   21bbb     H1  602   7.073   2.842   4.026  0.2808  0.5438 -1.6075
   21bbb     H2  603   7.051   3.013   4.012  1.1613 -1.0380  1.3722
   21bbb     C2  604   7.005   2.852   4.266  0.6609  0.0294 -0.2987
   21bbb     H3  605   7.042   2.753   4.243  1.5107  0.6472 -1.7325
   21bbb     H4  606   6.932   2.836   4.345  1.1738  1.6081  0.5459
   21bbb     C3  607   6.861   3.034   4.184  0.6887 -0.6183 -0.5589
   21bbb     H5  608   6.801   3.065   4.098  1.1800 -0.9079 -1.0108
   21bbb     H6  609   6.936   3.113   4.187  1.1074 -1.0333  0.5858
   21bbb     C4  610   6.774   3.052   4.314 -0.5769 -0.5107  0.1451
   21bbb     H7  611   6.829   3.009   4.398  1.2291 -3.3697 -2.2808
   21bbb     H8  612   6.675   3.007   4.300 -0.4267 -0.6862 -0.4026
   21bbb     C5  613   6.905   2.898   3.891 -0.0776  0.1512 -1.4523
   21bbb     H9  614   6.872   2.996   3.855  1.7994  0.8306 -1.4446
   21bbb    H10  615   6.817   2.841   3.922  1.9806 -2.0473  0.8390
   21bbb     C6  616   7.118   2.941   4.317 -0.1346 -0.7423  0.2153
   21bbb    H11  617   7.150   2.917   4.419  4.3566  1.1466 -0.4894
   21bbb    H12  618   7.084   3.045   4.325  0.4135 -0.5806  0.5233
   21bbb     C7  619   6.741   3.201   4.338  0.1487  0.5720 -0.7210
   21bbb    H13  620   6.682   3.246   4.257 -2.7127 -0.1991  0.7959
   21bbb    H14  621   6.838   3.252   4.333 -0.1478  1.0360 -4.2501
   21bbb     C8  622   7.238   2.928   4.233 -0.1998 -0.0764 -0.0157
   21bbb    H15  623   7.225   2.981   4.138  1.3828 -1.2773 -0.9544
   21bbb    H16  624   7.311   2.977   4.298 -0.3510  0.9239 -0.5821
   21bbb     C9  625   6.991   2.823   3.787 -0.4403 -0.5220  0.2404
   21bbb    H17  626   7.088   2.869   3.767 -0.4928 -1.2423 -1.8992
   21bbb    H18  627   6.947   2.841   3.688 -0.4917  0.7857  0.4930
   21bbb     O1  628   6.665   3.206   4.462  0.0463 -0.3652 -0.1558
   21bbb    H19  629   6.846   2.841   4.129  0.5238 -0.6205 -0.7774
   22bbb     N1  630   6.832   2.511   4.806 -0.5865  0.3220  0.7437
   22bbb     C1  631   6.976   2.539   4.770  0.0113  0.0286 -0.5601
   22bbb     H1  632   7.040   2.454   4.795  0.3685  0.6553  0.7272
   22bbb     H2  633   7.005   2.629   4.824 -0.7300  0.0228 -0.1419
   22bbb     C2  634   6.816   2.482   4.957  0.5677  0.1076 -0.2580
   22bbb     H3  635   6.874   2.390   4.970  1.6613  0.9015  0.6524
   22bbb     H4  636   6.712   2.461   4.980  0.0030  0.2344 -2.4944
   22bbb     C3  637   6.751   2.634   4.763 -0.3366 -0.6885 -0.7452
   22bbb     H5  638   6.747   2.637   4.654  0.0116 -1.3920 -0.7840
   22bbb     H6  639   6.800   2.723   4.803 -0.3049 -0.5211 -1.1616
   22bbb     C4  640   6.596   2.626   4.800 -0.2213  0.7289  0.0914
   22bbb     H7  641   6.587   2.640   4.908 -1.3236 -1.1023  0.2849
   22bbb     H8  642   6.551   2.527   4.784  0.7357  0.3697 -0.4650
   22bbb     C5  643   7.009   2.553   4.628  0.5820  0.2193  0.4353
   22bbb     H9  644   7.114   2.582   4.617  0.5257  0.9357  1.6175
   22bbb    H10  645   6.944   2.632   4.590  0.8566  0.6480  0.8632
   22bbb     C6  646   6.869   2.589   5.057 -0.5867 -0.4965  0.0486
   22bbb    H11  647   6.801   2.674   5.075  2.5880  2.1759  0.4076
   22bbb    H12  648   6.962   2.639   5.027 -0.7239 -1.2738 -1.7748
   22bbb     C7  649   6.503   2.737   4.736 -0.3147  0.6092 -0.5107
   22bbb    H13  650   6.552   2.835   4.746 -1.0443  1.0630 -1.2058
   22bbb    H14  651   6.416   2.735   4.803  1.0218 -1.9515  1.2907
   22bbb     C8  652   6.883   2.530   5.195 -0.4818  0.5217  0.0972
   22bbb    H15  653   6.862   2.608   5.269 -1.1930  1.7943 -1.3823
   22bbb    H16  654   6.801   2.461   5.218 -1.1783  1.5247  0.7207
   22bbb     C9  655   6.972   2.426   4.541 -0.1708  0.3585 -0.2206
   22bbb    H17  656   7.036   2.432   4.452  2.4907  0.2328  1.5454
   22bbb    H18  657   6.865   2.424   4.521  0.1358  0.4289 -2.0036
   22bbb     O1  658   6.475   2.701   4.599 -0.2726  0.0605  0.5063
   22bbb    H19  659   6.800   2.429   4.752 -5.0045  0.5630  2.5720
   23bbb     N1  660   2.766   6.495   3.193  0.3891  0.5563 -0.1407
   23bbb     C1  661   2.824   6.622   3.254  0.0764  0.2463 -0.0809
   23bbb     H1  662   2.929   6.615   3.226  0.7864 -1.2505  2.6206
   23bbb     H2  663   2.823   6.614   3.362 -1.9542  1.9852  0.0872
   23bbb     C2  664   2.800   6.493   3.047  0.2237 -0.6640 -0.2982
   23bbb     H3  665   2.908   6.503   3.034  0.2500 -2.9905 -2.6026
   23bbb     H4  666   2.753   6.578   2.997 -0.9460  0.3997  2.4257
   23bbb     C3  667   2.845   6.378   3.253  0.6477  0.0052  0.4491
   23bbb     H5  668   2.948   6.398   3.223  0.7746 -0.4702  0.5531
   23bbb     H6  669   2.808   6.282   3.216 -1.6554  1.2536 -0.7207
   23bbb     C4  670   2.846   6.360   3.401  0.4457 -0.4606  0.0245
   23bbb     H7  671   2.744   6.359   3.441  0.4687 -2.3438  0.1209
   23bbb     H8  672   2.892   6.447   3.450 -0.3805  0.9758 -1.6437
   23bbb     C5  673   2.751   6.751   3.214 -0.1438 -0.3016 -0.4631
   23bbb     H9  674   2.660   6.760   3.275 -0.9351  1.2848 -1.7746
   23bbb    H10  675   2.710   6.740   3.112  0.1989  0.0267 -0.6380
   23bbb     C6  676   2.758   6.371   2.979 -0.1104  0.9267  0.5575
   23bbb    H11  677   2.658   6.340   3.011 -1.4118  1.0746 -2.8928
   23bbb    H12  678   2.830   6.291   3.001  1.1330  2.1363  1.0551
   23bbb     C7  679   2.931   6.240   3.446  0.0294  0.1870 -1.3475
   23bbb    H13  680   2.890   6.147   3.405 -2.0038  1.3458 -2.0875
   23bbb    H14  681   2.920   6.232   3.555 -0.8066  2.2858 -1.2230
   23bbb     C8  682   2.758   6.380   2.821  0.1030  0.3240 -0.5635
   23bbb    H15  683   2.854   6.405   2.775 -1.5711  4.0516 -2.5305
   23bbb    H16  684   2.737   6.275   2.796 -0.4579 -0.0611  1.3799
   23bbb     C9  685   2.834   6.878   3.221  0.8297 -0.5017 -0.2838
   23bbb    H17  686   2.917   6.870   3.150  2.2807  0.3016  1.2807
   23bbb    H18  687   2.879   6.884   3.321 -0.7622 -0.4472  0.4636
   23bbb     O1  688   3.072   6.256   3.400 -0.0304 -0.3812 -0.3089
   23bbb    H19  689   2.664   6.502   3.204  0.4203  2.0710 -0.5638
   24bbb     N1  690   3.543   7.025   3.610  0.1880  0.3517  0.2915
   24bbb     C1  691   3.597   6.965   3.484  0.3034  0.6398  0.0630
   24bbb     H1  692   3.523   6.890   3.454 -1.4973  2.1851  0.4671
   24bbb     H2  693   3.687   6.914   3.520 -0.7733 -2.1167 -0.8737
   24bbb     C2  694   3.459   7.150   3.601 -0.1008 -0.6653 -0.1467
   24bbb     H3  695   3.406   7.152   3.696 -0.6485 -0.8846 -0.4459
   24bbb     H4  696   3.376   7.137   3.532 -1.4099  1.1719  1.0049
   24bbb     C3  697   3.467   6.922   3.700  0.3049 -0.7890  0.0605
   24bbb     H5  698   3.394   6.875   3.634 -0.4477 -1.1500  1.1252
   24bbb     H6  699   3.417   6.983   3.775  0.7237  0.0949 -0.3550
   24bbb     C4  700   3.556   6.823   3.774  0.2076 -0.1197  0.2930
   24bbb     H7  701   3.629   6.870   3.841 -2.4646  0.4412  3.0221
   24bbb     H8  702   3.617   6.764   3.704  0.2965  0.5279 -0.1828
   24bbb     C5  703   3.662   7.051   3.374  0.1433  0.3566  0.1683
   24bbb     H9  704   3.720   7.132   3.420  0.0671  0.4132  0.1657
   24bbb    H10  705   3.579   7.101   3.324  1.7391  1.2328 -1.7095
   24bbb     C6  706   3.540   7.277   3.584  0.0665  0.1923 -0.7267
   24bbb    H11  707   3.584   7.273   3.484 -0.2842 -0.5869 -0.8631
   24bbb    H12  708   3.622   7.272   3.657 -0.6406 -2.8238  0.0210
   24bbb     C7  709   3.468   6.726   3.854  0.4747  0.2408 -0.0235
   24bbb    H13  710   3.377   6.776   3.890 -0.0085 -0.1840 -0.6275
   24bbb    H14  711   3.530   6.687   3.936  1.6468  1.0998 -0.4781
   24bbb     C8  712   3.458   7.412   3.595  0.3486  0.0878  0.1507
   24bbb    H15  713   3.357   7.410   3.553  0.6383  0.5685 -0.5787
   24bbb    H16  714   3.444   7.437   3.701 -1.3635  0.8047 -0.2088
   24bbb     C9  715   3.750   6.962   3.272  0.8583 -0.1815  0.2640
   24bbb    H17  716   3.688   6.890   3.217  0.7880 -0.1480  0.2997
   24bbb    H18  717   3.830   6.917   3.332 -0.0627  0.6162  2.1976
   24bbb     O1  718   3.423   6.623   3.770 -0.4914 -0.6323  0.1922
   24bbb    H19  719   3.634   7.040   3.655  0.0367 -0.7633  1.0176
   25bbb     N1  720   2.381   5.219   3.668  0.4111 -0.1434 -0.5342
   25bbb     C1  721   2.366   5.209   3.515 -0.1016 -0.2014 -0.0624
   25bbb     H1  722   2.383   5.104   3.491  1.1835 -0.2928  1.1242
   25bbb     H2  723   2.452   5.266   3.480  1.3655 -1.0021  2.0038
   25bbb     C2  724   2.365   5.085   3.737 -0.1108  1.0717 -0.2260
   25bbb     H3  725   2.400   5.094   3.840  2.3404 -2.8554 -0.5537
   25bbb     H4  726   2.426   5.010   3.688 -0.4954  1.6441 -1.6297
   25bbb     C3  727   2.522   5.274   3.685  0.5972 -0.0578  0.4056
   25bbb     H5  728   2.597   5.212   3.635 -0.2630 -0.1304 -0.8233
   25bbb     H6  729   2.547   5.271   3.791  0.3828  0.5324  0.4737
   25bbb     C4  730   2.539   5.427   3.660  0.8699 -0.4208 -0.3008
   25bbb     H7  731   2.493   5.471   3.750 -1.7676 -0.3869 -1.5817
   25bbb     H8  732   2.472   5.453   3.577  1.7282 -0.0481 -0.9015
   25bbb     C5  733   2.234   5.274   3.461  0.0807  0.2012 -0.2943
   25bbb     H9  734   2.234   5.382   3.477  3.0857  0.4951 -1.5463
   25bbb    H10  735   2.153   5.223   3.515 -1.1860  1.4753 -0.9476
   25bbb     C6  736   2.223   5.036   3.736  0.3430  0.1167 -0.6874
   25bbb    H11  737   2.197   5.008   3.633 -4.2818 -0.6501  0.4405
   25bbb    H12  738   2.160   5.122   3.762 -1.1346 -0.7437 -1.2376
   25bbb     C7  739   2.682   5.475   3.635 -0.4861  0.2114  0.3479
   25bbb    H13  740   2.676   5.582   3.614 -0.0394  0.1492 -0.1163
   25bbb    H14  741   2.715   5.417   3.547 -1.0511 -1.2562  1.0610
   25bbb     C8  742   2.187   4.923   3.838 -0.3763 -0.1749  0.9824
   25bbb    H15  743   2.080   4.900   3.836 -0.5110  0.4628  0.1081
   25bbb    H16  744   2.239   4.834   3.802  0.7698  0.2374  1.5491
   25bbb     C9  745   2.202   5.232   3.316 -0.0185 -0.2590  0.5300
   25bbb    H17  746   2.281   5.261   3.246 -0.5705  0.2977  0.1343
   25bbb    H18  747   2.109   5.281   3.285  0.8742  1.5084  0.5807
   25bbb     O1  748   2.773   5.437   3.743  0.5107  0.0602 -0.4315
   25bbb    H19  749   2.311   5.286   3.701 -0.1987 -0.8072 -0.4532
   26bbb     N1  750   2.581   5.849   4.761 -0.1501 -0.4685 -0.0475
   26bbb     C1  751   2.500   5.735   4.714 -0.4622  0.2291  0.4097
   26bbb     H1  752   2.486   5.667   4.798 -0.3178 -0.4818 -0.1315
   26bbb     H2  753   2.544   5.691   4.624  0.7565 -0.7654  1.4625
   26bbb     C2  754   2.529   5.892   4.895 -0.0993  0.0960 -0.0534
   26bbb     H3  755   2.573   5.817   4.961 -0.9663  0.2285  0.7000
   26bbb     H4  756   2.421   5.883   4.895 -0.0171 -1.1482  0.7471
   26bbb     C3  757   2.727   5.805   4.751  0.4835 -0.3474  0.0723
   26bbb     H5  758   2.730   5.739   4.664 -0.0684  0.8601 -0.9052
   26bbb     H6  759   2.760   5.741   4.832 -0.5884 -1.5663 -0.4010
   26bbb     C4  760   2.824   5.920   4.730  0.0516  0.0384 -0.1695
   26bbb     H7  761   2.858   5.957   4.827  2.2391 -2.8448  0.2671
   26bbb     H8  762   2.781   6.000   4.668  1.4209  0.9366 -0.0105
   26bbb     C5  763   2.359   5.777   4.671  1.0950  0.2948  0.4587
   26bbb     H9  764   2.295   5.809   4.754 -0.2696 -1.5296  0.1767
   26bbb    H10  765   2.304   5.695   4.623 -0.6907  1.4194  0.4795
   26bbb     C6  766   2.563   6.035   4.945  0.4488 -0.1850 -0.3660
   26bbb    H11  767   2.531   6.115   4.877  0.5592  0.7412  0.6467
   26bbb    H12  768   2.671   6.053   4.941  0.0999  2.0358 -1.5512
   26bbb     C7  769   2.943   5.871   4.655  0.3435  0.1619  0.2142
   26bbb    H13  770   2.984   5.790   4.716 -2.0499 -2.9474 -1.9672
   26bbb    H14  771   3.025   5.944   4.645 -0.6707  1.3620  0.3225
   26bbb     C8  772   2.507   6.063   5.087  0.0802  0.1647  0.2607
   26bbb    H15  773   2.545   6.158   5.126  1.7234 -0.1675 -0.4740
   26bbb    H16  774   2.398   6.073   5.071  0.0553 -0.8994 -0.3129
   26bbb     C9  775   2.362   5.889   4.563  0.2393  0.4876  0.4012
   26bbb    H17  776   2.259   5.898   4.525  0.8059  2.4813 -0.8434
   26bbb    H18  777   2.428   5.854   4.484  0.7761  0.1236  1.0017
   26bbb     O1  778   2.902   5.816   4.524  0.3214  0.2524 -0.3519
   26bbb    H19  779   2.555   5.924   4.694 -2.5162  1.8992  3.2174
   27bbb     N1  780   6.140   6.276   2.517  0.4781  0.3836 -0.2258
   27bbb     C1  781   6.087   6.374   2.410  0.0066  0.2935 -0.2856
   27bbb     H1  782   5.980   6.373   2.394 -0.5165  0.1743  2.6540
   27bbb     H2  783   6.129   6.345   2.313  0.4344  1.7868 -0.5706
   27bbb     C2  784   6.288   6.292   2.554 -0.7634  0.4070  0.3510
   27bbb     H3  785   6.297   6.228   2.642 -1.7839  0.0725  0.2239
   27bbb     H4  786   6.313   6.392   2.591  0.0004  1.0794 -1.8167
   27bbb     C3  787   6.068   6.296   2.652 -0.6758  0.0358  0.2251
   27bbb     H5  788   6.099   6.396   2.682 -1.0152 -0.2807  1.7029
   27bbb     H6  789   6.124   6.230   2.719  0.3365 -1.0491 -1.6033
   27bbb     C4  790   5.916   6.268   2.664  0.7546 -0.1544  0.5156
   27bbb     H7  791   5.898   6.161   2.646  0.4708 -0.0747  0.3106
   27bbb     H8  792   5.871   6.321   2.579  4.0763 -1.2882 -2.1683
   27bbb     C5  793   6.125   6.517   2.436 -0.6599 -0.2662 -0.2706
   27bbb     H9  794   6.234   6.529   2.434 -0.7329  0.8290  0.9503
   27bbb    H10  795   6.110   6.549   2.540  2.2106 -1.9144  0.7798
   27bbb     C6  796   6.398   6.251   2.448  0.0458 -0.4799 -0.9751
   27bbb    H11  797   6.495   6.275   2.493 -0.0139  0.1035 -1.1511
   27bbb    H12  798   6.389   6.310   2.356 -1.9499  3.0314  1.2419
   27bbb     C7  799   5.841   6.316   2.795 -0.1939  0.3098 -0.1198
   27bbb    H13  800   5.736   6.288   2.790  0.0340 -0.7690  0.7318
   27bbb    H14  801   5.849   6.425   2.794  2.1629  0.1944 -1.6053
   27bbb     C8  802   6.407   6.099   2.415  0.4008  0.6927  0.3558
   27bbb    H15  803   6.426   6.051   2.512  1.0841  0.9283  0.3465
   27bbb    H16  804   6.305   6.079   2.381  0.6265 -0.5801  0.3526
   27bbb     C9  805   6.073   6.614   2.331  0.5955  0.1763  0.9223
   27bbb    H17  806   6.073   6.717   2.367 -0.2806  0.8070 -0.7526
   27bbb    H18  807   5.969   6.585   2.312  1.1430 -2.1702  1.2195
   27bbb     O1  808   5.912   6.268   2.917 -0.0787  0.6964  0.6130
   27bbb    H19  809   6.124   6.179   2.487 -0.7607  0.5833 -0.2461
   28bbb     N1  810   6.507   6.004   3.500 -0.0527 -0.1384  0.2586
   28bbb     C1  811   6.592   5.878   3.480 -0.2969  0.0788 -0.6933
   28bbb     H1  812   6.515   5.801   3.470 -1.1166  0.9851 -1.7213
   28bbb     H2  813   6.642   5.871   3.576  0.8640  2.1738 -1.0915
   28bbb     C2  814   6.595   6.130   3.476  0.6281 -0.6558 -0.5484
   28bbb     H3  815   6.628   6.134   3.372  2.3673  1.2431  0.0194
   28bbb     H4  816   6.678   6.104   3.542 -0.9897 -1.4367  1.2651
   28bbb     C3  817   6.397   6.006   3.391  0.0319 -0.4648 -0.9700
   28bbb     H5  818   6.367   5.905   3.366  1.6367 -0.3680 -3.6137
   28bbb     H6  819   6.443   6.061   3.309 -1.6858  1.6059 -0.6298
   28bbb     C4  820   6.273   6.093   3.438 -0.3419 -0.2201  0.2397
   28bbb     H7  821   6.309   6.187   3.482  0.7033 -0.5710  0.1635
   28bbb     H8  822   6.217   6.053   3.523 -2.4630  2.0751  0.0430
   28bbb     C5  823   6.695   5.866   3.359  1.2961 -0.0707  0.7088
   28bbb     H9  824   6.777   5.937   3.376  2.4307 -0.5798 -2.0785
   28bbb    H10  825   6.650   5.892   3.262  0.7046  2.9358  1.6705
   28bbb     C6  826   6.547   6.265   3.527 -0.0891 -0.3011 -0.4419
   28bbb    H11  827   6.476   6.243   3.608  0.3736 -2.1163 -0.4891
   28bbb    H12  828   6.492   6.315   3.446 -0.1859 -1.0073 -0.8187
   28bbb     C7  829   6.181   6.125   3.319  0.5365 -0.0312 -0.0278
   28bbb    H13  830   6.235   6.182   3.242 -0.6805 -1.5575 -2.1144
   28bbb    H14  831   6.091   6.182   3.346 -0.5482 -0.4510 -2.4909
   28bbb     C8  832   6.657   6.362   3.577  0.0434 -0.5928 -0.3920
   28bbb    H15  833   6.734   6.368   3.499  1.1150 -0.5667  0.6378
   28bbb    H16  834   6.615   6.463   3.587  0.4553 -0.5620  1.2433
   28bbb     C9  835   6.764   5.737   3.362 -0.5901  0.7805 -0.0410
   28bbb    H17  836   6.845   5.747   3.288 -0.5862  2.0878  0.1189
   28bbb    H18  837   6.704   5.652   3.329  0.4626 -1.3028  2.9645
   28bbb     O1  838   6.130   6.004   3.256  0.1795 -0.1323 -0.1728
   28bbb    H19  839   6.457   6.005   3.590 -3.8897  0.7819 -1.6701
   29bbb     N1  840   5.523   5.006   1.640 -0.1641  0.4527 -0.5665
   29bbb     C1  841   5.629   4.915   1.712 -0.1279  0.7170  0.1249
   29bbb     H1  842   5.708   4.890   1.640  0.3074 -1.9403  1.4330
   29bbb     H2  843   5.574   4.825   1.739  0.8424 -0.6657 -2.1658
   29bbb     C2  844   5.504   4.973   1.492 -0.3064 -0.2766 -0.3992
   29bbb     H3  845   5.601   4.949   1.449  0.5699  0.4580  1.0918
   29bbb     H4  846   5.467   5.064   1.443 -0.6156 -0.5422 -0.6703
   29bbb     C3  847   5.394   4.997   1.721  0.4091  0.2568 -0.2477
   29bbb     H5  848   5.419   4.967   1.822 -3.1970  0.6034  0.8825
   29bbb     H6  849   5.324   4.922   1.685 -0.1209 -0.2097  1.6567
   29bbb     C4  850   5.335   5.130   1.753  0.6910 -0.2278 -0.1017
   29bbb     H7  851   5.235   5.098   1.787  1.2978 -3.2969 -0.8981
   29bbb     H8  852   5.329   5.195   1.665 -2.4620  0.7617  0.6969
   29bbb     C5  853   5.694   4.982   1.838  0.3147  0.2261 -0.4806
   29bbb     H9  854   5.632   4.981   1.928  1.3489 -1.0715  0.2488
   29bbb    H10  855   5.711   5.087   1.813  0.0626 -0.1492 -2.4036
   29bbb     C6  856   5.425   4.849   1.458  0.1037  0.6596  0.4307
   29bbb    H11  857   5.319   4.856   1.484  0.6625  1.0747  2.8281
   29bbb    H12  858   5.465   4.772   1.525 -1.6538  0.4027  1.2383
   29bbb     C7  859   5.394   5.198   1.877 -0.6335  0.3353 -0.2649
   29bbb    H13  860   5.354   5.300   1.880 -0.8424  0.2554 -0.2999
   29bbb    H14  861   5.504   5.200   1.874 -0.5658  0.4077  1.2807
   29bbb     C8  862   5.447   4.816   1.312  0.1831  0.3001 -0.7030
   29bbb    H15  863   5.553   4.798   1.291 -0.3596 -0.4884 -2.9923
   29bbb    H16  864   5.394   4.722   1.292 -2.3238  1.7507 -1.2674
   29bbb     C9  865   5.826   4.922   1.870  0.2544  0.3702  0.0119
   29bbb    H17  866   5.824   4.819   1.910  0.9597 -0.1943 -1.3198
   29bbb    H18  867   5.876   4.989   1.940 -0.4307 -0.0816  0.9504
   29bbb     O1  868   5.355   5.130   1.999 -0.3533 -0.0420 -0.6707
   29bbb    H19  869   5.564   5.100   1.652 -0.1267  0.2972  0.6394
   30bbb     N1  870   4.643   5.127   1.837  0.2821 -0.2115  0.4128
   30bbb     C1  871   4.759   5.122   1.734  0.4208  0.0813  0.4619
   30bbb     H1  872   4.729   5.164   1.638  3.7607  2.4935  0.2483
   30bbb     H2  873   4.785   5.018   1.713  0.2764  0.5276 -2.3707
   30bbb     C2  874   4.510   5.071   1.788 -0.4451 -0.0601  0.4977
   30bbb     H3  875   4.434   5.089   1.864  0.5622  2.0465  1.0889
   30bbb     H4  876   4.518   4.963   1.775 -2.2230 -0.1642 -0.0102
   30bbb     C3  877   4.687   5.044   1.956 -0.2451 -0.2008  0.4748
   30bbb     H5  878   4.794   5.062   1.972 -0.0082 -2.0358  1.1605
   30bbb     H6  879   4.669   4.939   1.931 -1.0092  0.3249 -1.3941
   30bbb     C4  880   4.623   5.079   2.093 -0.4770  0.3200  0.7066
   30bbb     H7  881   4.513   5.079   2.087 -0.5607 -1.2643  1.7020
   30bbb     H8  882   4.645   5.182   2.124 -0.3044  0.5725 -0.2267
   30bbb     C5  883   4.883   5.212   1.777 -0.5317  0.8603 -0.3123
   30bbb     H9  884   4.940   5.143   1.841 -1.6680  0.3520  0.1853
   30bbb    H10  885   4.848   5.303   1.826  0.1207  1.9689 -1.8250
   30bbb     C6  886   4.465   5.122   1.648 -0.1375  0.0099 -0.0490
   30bbb    H11  887   4.530   5.195   1.598  1.1568 -0.9045  0.2642
   30bbb    H12  888   4.368   5.171   1.666  0.6708  1.9948 -0.8573
   30bbb     C7  889   4.671   4.978   2.201 -0.3330 -0.0007 -0.1667
   30bbb    H13  890   4.620   4.882   2.194  1.5511 -0.9405 -1.9864
   30bbb    H14  891   4.648   5.027   2.297 -0.1649 -0.2925  0.0245
   30bbb     C8  892   4.437   5.005   1.551  0.1161 -0.3890 -0.0749
   30bbb    H15  893   4.413   5.032   1.447 -1.8253 -2.0364 -0.1222
   30bbb    H16  894   4.533   4.951   1.546  0.3306 -0.1487  1.0941
   30bbb     C9  895   4.959   5.259   1.654 -0.1221 -0.3024 -0.1881
   30bbb    H17  896   5.012   5.185   1.593  1.0011 -0.1227  0.5548
   30bbb    H18  897   5.039   5.329   1.681  0.0041 -0.4801 -0.0992
   30bbb     O1  898   4.816   4.961   2.202 -0.1076 -0.6022  0.5020
   30bbb    H19  899   4.626   5.223   1.869 -0.9373 -0.9252  2.0517
   31bbb     N1  900   3.603   4.674   7.981  0.2607 -0.7792 -0.3507
   31bbb     C1  901   3.552   4.533   8.024  0.3065 -0.1063  0.4517
   31bbb     H1  902   3.580   4.510   8.127  1.1414  1.3832  0.5926
   31bbb     H2  903   3.604   4.472   7.950 -0.2834 -0.0602 -0.0128
   31bbb     C2  904   3.562   4.780   8.085  0.1539 -0.1528  0.1817
   31bbb     H3  905   3.454   4.770   8.097  0.0499  0.3895 -0.2430
   31bbb     H4  906   3.582   4.879   8.044  1.4701  0.3888  2.0051
   31bbb     C3  907   3.757   4.672   7.966  0.3190  0.6987 -0.0398
   31bbb     H5  908   3.807   4.614   8.043  1.8669 -0.8590 -2.0859
   31bbb     H6  909   3.788   4.775   7.982 -1.3309  1.2568 -0.2325
   31bbb     C4  910   3.814   4.615   7.834 -0.0267 -0.1904 -0.5813
   31bbb     H7  911   3.775   4.657   7.741  0.2657 -1.7351 -1.4226
   31bbb     H8  912   3.811   4.506   7.828  1.0570 -0.2381 -0.5261
   31bbb     C5  913   3.400   4.507   8.005  0.5731 -0.2638  0.3767
   31bbb     H9  914   3.355   4.525   7.906 -1.2503  0.0090  1.2003
   31bbb    H10  915   3.347   4.572   8.076  0.4059 -1.0198  0.9593
   31bbb     C6  916   3.635   4.777   8.223  0.0179 -0.4955 -0.8450
   31bbb    H11  917   3.743   4.792   8.213  0.2543 -0.8826  0.8580
   31bbb    H12  918   3.609   4.683   8.272  1.6121 -0.2406  0.5615
   31bbb     C7  919   3.968   4.650   7.814  0.7871 -0.4297 -0.7928
   31bbb    H13  920   4.024   4.614   7.901  0.0427  2.2286  0.8960
   31bbb    H14  921   3.978   4.758   7.831 -1.6114 -0.2737 -0.0586
   31bbb     C8  922   3.582   4.896   8.305  0.2476  0.1146 -0.9146
   31bbb    H15  923   3.613   4.996   8.272  0.6920 -0.7164 -3.2148
   31bbb    H16  924   3.472   4.894   8.311  0.2741  1.4337  1.1391
   31bbb     C9  925   3.356   4.369   8.060 -0.4317 -0.6749 -0.1423
   31bbb    H17  926   3.435   4.297   8.035  0.5558  0.3549 -0.1116
   31bbb    H18  927   3.260   4.332   8.022 -0.8145  0.5500 -0.4063
   31bbb     O1  928   4.014   4.609   7.682  0.5947  0.1398  0.3269
   31bbb    H19  929   3.554   4.701   7.894 -0.8074 -0.2704  0.3923
   32bbb     N1  930   4.585   3.709   7.874  0.3863  0.0095 -0.3430
   32bbb     C1  931   4.521   3.700   8.013 -0.6693 -0.4236 -0.7973
   32bbb     H1  932   4.578   3.626   8.069 -0.1789  1.1237  0.8604
   32bbb     H2  933   4.415   3.674   8.011 -0.5072 -1.3040  0.6757
   32bbb     C2  934   4.628   3.568   7.838  0.3146  0.2019  0.2406
   32bbb     H3  935   4.641   3.561   7.730 -1.0549 -2.8112  0.1751
   32bbb     H4  936   4.540   3.505   7.855 -0.3475  0.7660 -0.9269
   32bbb     C3  937   4.481   3.763   7.785 -0.0853 -0.6499  0.1151
   32bbb     H5  938   4.449   3.857   7.831 -1.3610 -1.4825  1.0039
   32bbb     H6  939   4.391   3.703   7.778 -0.0696 -0.5407 -1.1565
   32bbb     C4  940   4.539   3.791   7.644  0.3754 -0.3401  0.0011
   32bbb     H7  941   4.583   3.706   7.590 -0.7609 -3.0390  3.0567
   32bbb     H8  942   4.624   3.860   7.653 -1.1223  1.3422  2.4195
   32bbb     C5  943   4.549   3.831   8.095  0.7231  0.7647  0.4324
   32bbb     H9  944   4.498   3.912   8.041 -2.1408  0.4627  2.4826
   32bbb    H10  945   4.657   3.849   8.097  0.7952  0.2740  1.4582
   32bbb     C6  946   4.758   3.492   7.891 -0.2497  0.9633 -0.4536
   32bbb    H11  947   4.763   3.500   8.000 -1.5368  1.1342 -0.3910
   32bbb    H12  948   4.847   3.549   7.863  0.8417 -0.5534 -0.1690
   32bbb     C7  949   4.430   3.849   7.550  0.1300 -0.8662  0.5898
   32bbb    H13  950   4.343   3.784   7.557  0.2756 -1.0582  0.6346
   32bbb    H14  951   4.470   3.853   7.448  0.0194  0.1731  0.5770
   32bbb     C8  952   4.763   3.341   7.854  0.0371 -0.1092 -0.2012
   32bbb    H15  953   4.663   3.302   7.832 -0.4467  0.3630  1.0683
   32bbb    H16  954   4.821   3.324   7.763  2.7222  0.3697  1.2978
   32bbb     C9  955   4.499   3.824   8.248 -0.3843 -0.7637 -0.3086
   32bbb    H17  956   4.555   3.745   8.298 -1.9799 -1.0141  1.1694
   32bbb    H18  957   4.391   3.803   8.244 -0.3647 -0.7722 -1.1225
   32bbb     O1  958   4.394   3.984   7.593  0.3366 -0.8056  0.7278
   32bbb    H19  959   4.665   3.774   7.879 -0.7557  1.6424 -1.9495
   33bbb     N1  960   2.933   3.932   6.424  0.4319  0.2483 -0.1866
   33bbb     C1  961   2.804   4.010   6.416 -0.6421 -0.0828  0.4173
   33bbb     H1  962   2.782   4.052   6.515  1.0643 -0.2371  0.8831
   33bbb     H2  963   2.727   3.940   6.384  0.6386 -1.2275 -0.2395
   33bbb     C2  964   2.933   3.849   6.291  0.4787 -0.3494  0.1946
   33bbb     H3  965   2.940   3.904   6.197 -2.3520 -0.7211 -0.3130
   33bbb     H4  966   2.830   3.815   6.287  0.2278  0.4377 -0.0808
   33bbb     C3  967   3.062   4.013   6.439 -0.6488  0.2758  0.2252
   33bbb     H5  968   3.041   4.087   6.516 -1.1238  1.5618 -1.0971
   33bbb     H6  969   3.089   4.072   6.351  2.7143 -0.4563  0.5998
   33bbb     C4  970   3.188   3.939   6.486 -0.6778 -1.1313  0.2222
   33bbb     H7  971   3.218   3.863   6.412  0.4260  0.9586 -1.5861
   33bbb     H8  972   3.168   3.887   6.581  1.5687 -1.1567  0.7279
   33bbb     C5  973   2.795   4.129   6.317 -0.4766 -0.3784  0.8826
   33bbb     H9  974   2.842   4.093   6.225  2.0997 -0.4592  2.1296
   33bbb    H10  975   2.856   4.213   6.352  3.4151 -3.0767  1.1594
   33bbb     C6  976   3.011   3.719   6.283 -0.1599 -0.1234 -0.5790
   33bbb    H11  977   3.032   3.672   6.379 -0.8476 -0.8590 -0.7815
   33bbb    H12  978   3.103   3.746   6.229 -0.3021 -0.9632 -1.2655
   33bbb     C7  979   3.310   4.032   6.514  0.4678  0.0966 -0.3088
   33bbb    H13  980   3.296   4.059   6.619 -1.7184 -0.4655 -0.4031
   33bbb    H14  981   3.305   4.123   6.454  0.0075 -0.3135 -0.9029
   33bbb     C8  982   2.941   3.612   6.198  0.0221  0.1292  0.3431
   33bbb    H15  983   2.935   3.652   6.096  1.0761 -1.2865 -0.3048
   33bbb    H16  984   3.004   3.523   6.194  0.9553  0.8054 -0.5183
   33bbb     C9  985   2.649   4.161   6.287  0.1158  0.1155  0.2045
   33bbb    H17  986   2.592   4.070   6.261 -1.0416  1.3287 -1.7681
   33bbb    H18  987   2.641   4.226   6.199 -2.0628 -1.8691 -1.2009
   33bbb     O1  988   3.432   3.954   6.499 -0.7166 -0.0633  0.6852
   33bbb    H19  989   2.930   3.876   6.511 -2.3335 -1.2669 -1.1460
   34bbb     N1  990   3.893   3.176   7.214  0.2611 -0.2475  0.2168
   34bbb     C1  991   3.800   3.081   7.128 -0.6989 -0.2078 -0.2606
   34bbb     H1  992   3.820   2.980   7.164 -0.6737 -0.7055 -1.6006
   34bbb     H2  993   3.827   3.101   7.024  2.8973  0.8460  0.7179
   34bbb     C2  994   4.036   3.133   7.206  0.5864 -0.6824  0.1605
   34bbb     H3  995   4.051   3.099   7.104  1.0406  1.8578 -0.6782
   34bbb     H4  996   4.038   3.045   7.271 -0.2494 -1.1909 -0.4908
   34bbb     C3  997   3.879   3.321   7.167  0.8613  0.1572  0.7751
   34bbb     H5  998   3.953   3.378   7.225  2.1931  0.9141 -1.5526
   34bbb     H6  999   3.779   3.354   7.197  0.0397 -1.4153 -0.1364
   34bbb     C4 1000   3.914   3.362   7.020  0.4787 -0.8875  0.1123
   34bbb     H7 1001   3.886   3.284   6.948 -0.7091  0.4216 -0.8976
   34bbb     H8 1002   4.024   3.363   7.019  0.4828 -0.6376 -1.2279
   34bbb     C5 1003   3.650   3.110   7.149 -0.7327 -0.5496  0.4539
   34bbb     H9 1004   3.631   3.211   7.111 -1.7713 -1.1348 -0.6418
   34bbb    H10 1005   3.619   3.099   7.253 -0.5043  0.1314  0.5959
   34bbb     C6 1006   4.139   3.237   7.261  0.0592  0.5495 -0.4026
   34bbb    H11 1007   4.102   3.258   7.362  1.2669 -0.3414  0.2512
   34bbb    H12 1008   4.136   3.326   7.197 -1.8162  0.7603 -0.0751
   34bbb     C7 1009   3.868   3.501   6.963  0.8758 -0.8136 -0.2702
   34bbb    H13 1010   3.928   3.577   7.014 -1.0205 -0.2481  1.2629
   34bbb    H14 1011   3.760   3.520   6.977  1.0046  1.1022 -1.5094
   34bbb     C8 1012   4.273   3.179   7.273 -0.0458  0.8450  0.9667
   34bbb    H15 1013   4.333   3.232   7.348  2.2904  1.7989 -1.4322
   34bbb    H16 1014   4.274   3.072   7.298  1.2814  1.2625  2.9151
   34bbb     C9 1015   3.571   3.016   7.069 -0.4017  0.0616  0.4323
   34bbb    H17 1016   3.605   3.025   6.965 -0.8260 -0.3613  0.2526
   34bbb    H18 1017   3.463   3.034   7.079 -0.2888  0.9272  0.1794
   34bbb     O1 1018   3.876   3.497   6.815  0.4146 -0.4838 -0.6440
   34bbb    H19 1019   3.857   3.174   7.310 -2.1389  1.1846 -0.5581
   35bbb     N1 1020   6.383   6.257   7.128  0.6138  0.3053  0.2518
   35bbb     C1 1021   6.382   6.405   7.169 -0.1673  0.2619  0.5274
   35bbb     H1 1022   6.359   6.463   7.080  0.5377  2.4470  1.6964
   35bbb     H2 1023   6.487   6.413   7.200  0.0666 -0.1990 -0.1357
   35bbb     C2 1024   6.445   6.172   7.239  0.2822  0.4113 -0.4328
   35bbb     H3 1025   6.421   6.070   7.211  1.4120  0.3162 -1.1363
   35bbb     H4 1026   6.412   6.209   7.336  3.5390 -0.2940  1.0747
   35bbb     C3 1027   6.240   6.218   7.084 -0.4179 -0.2607  0.0282
   35bbb     H5 1028   6.215   6.297   7.013  0.4447  0.2149  0.2305
   35bbb     H6 1029   6.183   6.224   7.177  0.7324  1.5317  0.6706
   35bbb     C4 1030   6.216   6.082   7.016 -0.2339 -0.0417 -0.3461
   35bbb     H7 1031   6.227   6.005   7.093 -0.9208  1.3318  1.1906
   35bbb     H8 1032   6.283   6.071   6.930  0.3532  0.0568  0.0977
   35bbb     C5 1033   6.300   6.464   7.287 -0.4615 -0.1090  0.4094
   35bbb     H9 1034   6.282   6.393   7.369  1.5591 -0.8236  0.2829
   35bbb    H10 1035   6.205   6.487   7.236  0.2867 -0.6224 -1.2793
   35bbb     C6 1036   6.596   6.162   7.234  0.2313  0.7045  0.4018
   35bbb    H11 1037   6.628   6.090   7.310  2.3244  0.1346 -0.9327
   35bbb    H12 1038   6.632   6.259   7.271 -0.5111  1.5327 -0.9554
   35bbb     C7 1039   6.075   6.067   6.969  0.2970 -0.4865  0.3374
   35bbb    H13 1040   6.052   6.155   6.908  0.5213  0.2288  1.2597
   35bbb    H14 1041   6.007   6.077   7.055 -1.0281  2.0579 -0.9071
   35bbb     C8 1042   6.664   6.136   7.100  0.1772  0.1168  0.5727
   35bbb    H15 1043   6.771   6.152   7.118  0.2529  0.5557 -0.2255
   35bbb    H16 1044   6.652   6.036   7.057  0.0427 -0.0277  0.9389
   35bbb     C9 1045   6.349   6.595   7.339 -0.2078 -0.8211 -1.1227
   35bbb    H17 1046   6.265   6.651   7.382  1.0995  0.1646  0.2862
   35bbb    H18 1047   6.390   6.657   7.259  0.1684  1.0046  0.4035
   35bbb     O1 1048   6.062   5.940   6.895  0.1622 -0.6730 -0.1290
   35bbb    H19 1049   6.450   6.259   7.050  2.1876 -1.3253  1.4715
   36bbb     N1 1050   6.254   5.085   7.304  0.1734 -0.5908  0.2226
   36bbb     C1 1051   6.265   5.036   7.158 -0.8545 -0.0961 -0.1415
   36bbb     H1 1052   6.358   5.082   7.125  0.9057 -1.2053  2.8699
   36bbb     H2 1053   6.181   5.072   7.098 -0.7636 -0.2385 -0.3534
   36bbb     C2 1054   6.374   5.041   7.378  0.1219 -0.0552  0.1372
   36bbb     H3 1055   6.459   5.095   7.337 -0.0225 -1.7023 -2.5519
   36bbb     H4 1056   6.387   4.936   7.354  1.3070  0.1860 -0.3169
   36bbb     C3 1057   6.237   5.242   7.315 -0.2008  0.4070  0.6769
   36bbb     H5 1058   6.287   5.285   7.228  0.0027  0.3366  0.7597
   36bbb     H6 1059   6.288   5.267   7.408 -1.0810  0.0345  1.2674
   36bbb     C4 1060   6.094   5.290   7.330  0.4487 -0.4583  0.0595
   36bbb     H7 1061   6.071   5.266   7.434 -0.4409 -0.6966 -0.1903
   36bbb     H8 1062   6.032   5.231   7.261  0.6333 -0.0921 -0.4274
   36bbb     C5 1063   6.267   4.882   7.137 -0.1508  0.3557  1.0105
   36bbb     H9 1064   6.172   4.832   7.162  0.4735 -0.9355  0.8727
   36bbb    H10 1065   6.348   4.840   7.197 -0.5605  0.9215  1.9825
   36bbb     C6 1066   6.360   5.056   7.534  0.0591  0.0941 -0.4111
   36bbb    H11 1067   6.316   4.969   7.585  0.4178  1.3809  2.2578
   36bbb    H12 1068   6.300   5.139   7.572  2.4069  0.8941  1.8417
   36bbb     C7 1069   6.070   5.447   7.316  0.0681  0.2595  0.0594
   36bbb    H13 1070   6.106   5.483   7.219 -0.3175  1.1926  0.2479
   36bbb    H14 1071   6.139   5.494   7.387  0.9660 -0.1989 -0.5021
   36bbb     C8 1072   6.500   5.069   7.585 -0.0743  0.2479 -0.3652
   36bbb    H15 1073   6.559   4.977   7.581 -0.2172  0.1458 -0.1577
   36bbb    H16 1074   6.561   5.132   7.520 -0.0997  0.1585 -0.4761
   36bbb     C9 1075   6.302   4.854   6.987  0.2540 -0.0035  0.0357
   36bbb    H17 1076   6.236   4.912   6.922  0.0195  2.7300  2.5049
   36bbb    H18 1077   6.276   4.749   6.968  1.3682 -0.1542 -0.7897
   36bbb     O1 1078   5.935   5.500   7.353  0.1512 -0.6330  0.0634
   36bbb    H19 1079   6.172   5.043   7.349  1.4967 -0.8835  2.5149
   37bbb     N1 1080   4.816   6.632   6.214  0.5449 -0.3445  0.1625
   37bbb     C1 1081   4.666   6.626   6.243  0.2330 -0.5961 -0.4140
   37bbb     H1 1082   4.632   6.723   6.278  1.3372 -1.3152  3.0881
   37bbb     H2 1083   4.655   6.551   6.322  1.6653 -0.7624 -0.3332
   37bbb     C2 1084   4.858   6.748   6.118  1.2227  0.1617 -0.0314
   37bbb     H3 1085   4.806   6.729   6.024  0.5964 -0.3843  0.4178
   37bbb     H4 1086   4.965   6.735   6.102  1.0790 -1.0622 -0.0493
   37bbb     C3 1087   4.889   6.640   6.347  0.2956  0.0246  0.5719
   37bbb     H5 1088   4.842   6.570   6.416  0.2596 -0.3020  0.2186
   37bbb     H6 1089   4.877   6.743   6.381  0.3401 -0.0584  0.8365
   37bbb     C4 1090   5.043   6.613   6.349 -0.3126 -0.0019 -0.5542
   37bbb     H7 1091   5.098   6.667   6.428 -1.4176  0.5693 -0.1437
   37bbb     H8 1092   5.087   6.649   6.256 -2.2953 -0.6658 -1.8051
   37bbb     C5 1093   4.580   6.597   6.118  0.3942  0.9081 -0.2093
   37bbb     H9 1094   4.606   6.654   6.028  2.3001  0.5498  0.0730
   37bbb    H10 1095   4.475   6.622   6.136 -0.0366 -1.2043  0.4604
   37bbb     C6 1096   4.820   6.893   6.169 -0.1541  0.4770 -0.1404
   37bbb    H11 1097   4.891   6.909   6.252  0.4243 -1.0179 -0.3190
   37bbb    H12 1098   4.716   6.892   6.202 -0.6427  0.2901 -1.6273
   37bbb     C7 1099   5.065   6.463   6.374 -0.3626  0.1225  0.1867
   37bbb    H13 1100   5.038   6.428   6.474  4.2481  2.5954  2.5945
   37bbb    H14 1101   5.174   6.454   6.364 -0.5107 -0.6508 -0.8975
   37bbb     C8 1102   4.829   7.006   6.063  0.2608 -0.0943  0.1171
   37bbb    H15 1103   4.868   7.097   6.111 -0.2485  0.2672 -0.1552
   37bbb    H16 1104   4.898   6.982   5.981  1.0067 -0.3748  0.7979
   37bbb     C9 1105   4.594   6.452   6.075 -0.1697  0.0520  0.2822
   37bbb    H17 1106   4.504   6.422   6.020  0.1998  0.1230 -0.3670
   37bbb    H18 1107   4.606   6.386   6.161 -1.1184 -1.8432 -0.9546
   37bbb     O1 1108   4.986   6.386   6.276  0.8712 -0.4987  0.1576
   37bbb    H19 1109   4.838   6.541   6.171 -0.2016 -0.2603 -0.4200
   38bbb     N1 1110   4.852   6.813   7.131 -0.0746  0.7816  0.3102
   38bbb     C1 1111   4.950   6.909   7.194  0.7818  0.5970  0.1326
   38bbb     H1 1112   4.964   6.977   7.110 -3.9954 -0.5565 -1.9487
   38bbb     H2 1113   5.040   6.854   7.221  1.3997  1.6167  0.2060
   38bbb     C2 1114   4.757   6.893   7.037  0.1006 -0.0315  0.0874
   38bbb     H3 1115   4.809   6.938   6.953 -1.0462  1.6505  0.2200
   38bbb     H4 1116   4.743   6.991   7.082  0.8035  0.3915 -0.6152
   38bbb     C3 1117   4.914   6.703   7.049 -0.2922  0.3628  0.7259
   38bbb     H5 1118   5.016   6.733   7.022 -0.1553  0.1136  0.9556
   38bbb     H6 1119   4.860   6.690   6.955  1.9467  0.7393 -0.6907
   38bbb     C4 1120   4.949   6.576   7.126  0.0175 -0.3082  0.1118
   38bbb     H7 1121   4.858   6.530   7.167 -0.9042  1.2796 -0.0894
   38bbb     H8 1122   5.015   6.595   7.211 -0.5480  0.6964  0.3397
   38bbb     C5 1123   4.888   6.970   7.322 -0.8397 -0.0476  0.1800
   38bbb     H9 1124   4.893   6.894   7.401  0.8268  1.8939  2.0705
   38bbb    H10 1125   4.784   7.003   7.311 -0.8046 -0.0249 -0.0815
   38bbb     C6 1126   4.627   6.820   7.005  0.0986  0.6189  0.6249
   38bbb    H11 1127   4.563   6.798   7.091  1.8469  0.7918  2.0446
   38bbb    H12 1128   4.648   6.717   6.972  0.6613  1.2958 -1.2744
   38bbb     C7 1129   5.017   6.474   7.032 -0.1985 -0.3200 -0.1102
   38bbb    H13 1130   5.040   6.384   7.090 -0.3537  0.8350  1.8695
   38bbb    H14 1131   5.111   6.519   6.997 -0.2545  1.2650  1.5940
   38bbb     C8 1132   4.547   6.884   6.885  0.5789  0.1791 -0.1687
   38bbb    H15 1133   4.603   6.895   6.792  2.6676 -1.1102  0.8532
   38bbb    H16 1134   4.455   6.832   6.855  0.5782  0.9588 -1.6274
   38bbb     C9 1135   4.971   7.096   7.366 -0.3519  0.5390  0.9182
   38bbb    H17 1136   5.070   7.061   7.396 -1.4618 -1.5504  2.4140
   38bbb    H18 1137   4.921   7.144   7.451 -0.5481 -0.8408  1.6097
   38bbb     O1 1138   4.929   6.442   6.924 -0.6432 -0.2101  0.3409
   38bbb    H19 1139   4.806   6.761   7.206  2.3297 -1.9837  0.0443
   39bbb     N1 1140   4.999   0.959   4.601 -0.2238 -0.0377 -0.3115
   39bbb     C1 1141   5.097   0.848   4.648 -0.2357 -0.1483  0.4813
   39bbb     H1 1142   5.088   0.847   4.757  0.1395  0.8367  0.5335
   39bbb     H2 1143   5.201   0.873   4.626  0.1087 -0.6354  1.5006
   39bbb     C2 1144   4.877   0.963   4.692 -0.1756  0.0457 -0.2722
   39bbb     H3 1145   4.884   1.059   4.744  0.7019  0.8217 -1.7511
   39bbb     H4 1146   4.881   0.880   4.763  0.4113 -0.2293 -0.6103
   39bbb     C3 1147   5.075   1.084   4.626 -0.2199  0.0851  0.5049
   39bbb     H5 1148   5.131   1.085   4.719  0.6191 -0.5429  0.0270
   39bbb     H6 1149   4.997   1.159   4.639 -0.8290 -0.5335  0.5089
   39bbb     C4 1150   5.161   1.127   4.503 -0.0250  0.6590  0.1063
   39bbb     H7 1151   5.102   1.139   4.412  0.7901 -1.5364 -0.7779
   39bbb     H8 1152   5.234   1.052   4.471 -2.5176 -1.6505 -0.4646
   39bbb     C5 1153   5.062   0.713   4.578 -0.5041 -0.2331 -0.1371
   39bbb     H9 1154   4.956   0.690   4.595 -0.6540  1.5813  1.6989
   39bbb    H10 1155   5.116   0.633   4.632  0.8519  1.2481  0.7985
   39bbb     C6 1156   4.750   0.963   4.609 -0.3078  0.9203 -0.0525
   39bbb    H11 1157   4.739   0.862   4.570 -1.5847  1.5330 -1.3866
   39bbb    H12 1158   4.768   1.017   4.515 -1.4996  0.4659 -0.5667
   39bbb     C7 1159   5.228   1.264   4.536  0.4703  0.3428  0.3617
   39bbb    H13 1160   5.295   1.282   4.451 -0.6248 -2.5712 -1.2741
   39bbb    H14 1161   5.295   1.255   4.623 -0.6966  1.1069  1.3625
   39bbb     C8 1162   4.629   1.018   4.685 -0.8823  0.3345 -0.1936
   39bbb    H15 1163   4.654   1.124   4.700 -0.0586 -0.1030  1.7447
   39bbb    H16 1164   4.542   1.005   4.618 -0.8314  0.5350 -0.3005
   39bbb     C9 1165   5.089   0.709   4.430  0.5602  0.1575 -0.2846
   39bbb    H17 1166   5.066   0.611   4.387 -1.4957 -0.2867  1.5861
   39bbb    H18 1167   5.197   0.722   4.426  0.6200  0.3600  1.2404
   39bbb     O1 1168   5.124   1.364   4.540  0.3153 -0.8504 -0.1294
   39bbb    H19 1169   4.980   0.940   4.501  0.8589  1.5260 -0.8726
   40bbb     N1 1170   5.647   1.419   3.824 -1.2154 -0.7449 -0.1751
   40bbb     C1 1171   5.604   1.291   3.757  0.3151 -0.2020  0.0603
   40bbb     H1 1172   5.511   1.318   3.706  1.0125 -1.0334 -1.7184
   40bbb     H2 1173   5.581   1.222   3.839 -3.3938  0.5748 -0.1403
   40bbb     C2 1174   5.668   1.530   3.721 -0.0596  0.0928  0.4154
   40bbb     H3 1175   5.647   1.620   3.779  1.3531 -0.1769  1.3990
   40bbb     H4 1176   5.593   1.529   3.642 -0.0214 -0.6942  0.3767
   40bbb     C3 1177   5.545   1.463   3.924  0.1365  0.1703 -0.5507
   40bbb     H5 1178   5.456   1.456   3.861 -0.3273 -2.0065  0.2663
   40bbb     H6 1179   5.558   1.569   3.946 -0.0627  0.1287 -0.2134
   40bbb     C4 1180   5.542   1.390   4.060  0.6763 -0.0166 -0.5319
   40bbb     H7 1181   5.644   1.404   4.095 -0.0410  1.5522  1.1016
   40bbb     H8 1182   5.516   1.285   4.043  0.5812 -0.0319 -0.2961
   40bbb     C5 1183   5.693   1.225   3.659 -0.1488 -0.9615 -0.0156
   40bbb     H9 1184   5.795   1.210   3.695  0.6411  1.3389 -1.0858
   40bbb    H10 1185   5.709   1.289   3.571  0.5250 -0.4734  0.4512
   40bbb     C6 1186   5.811   1.558   3.663  0.2068 -0.6394 -0.6200
   40bbb    H11 1187   5.855   1.475   3.607 -0.4058 -0.8533 -0.7908
   40bbb    H12 1188   5.883   1.566   3.745  1.8050 -0.9659 -1.9303
   40bbb     C7 1189   5.458   1.459   4.174  0.0193 -0.1976 -0.0864
   40bbb    H13 1190   5.484   1.420   4.273 -0.3112  0.1913  0.1548
   40bbb    H14 1191   5.357   1.421   4.155 -0.3518  0.0407  1.3261
   40bbb     C8 1192   5.815   1.694   3.598 -0.1548 -0.7826  0.5258
   40bbb    H15 1193   5.767   1.768   3.663 -0.5175 -1.8642  1.5177
   40bbb    H16 1194   5.917   1.725   3.575 -0.9754  2.9029  1.1862
   40bbb     C9 1195   5.637   1.091   3.616  0.1514  0.0791 -0.4380
   40bbb    H17 1196   5.530   1.108   3.598  0.0948 -0.3514 -0.4996
   40bbb    H18 1197   5.644   1.025   3.703 -0.3543 -0.6609 -0.9493
   40bbb     O1 1198   5.452   1.607   4.174  0.2713  0.2313  0.2132
   40bbb    H19 1199   5.742   1.408   3.863 -1.2812  1.5603  0.7893
   41bbb     N1 1200   3.483   2.564   4.165 -0.1650  0.0595 -0.1409
   41bbb     C1 1201   3.527   2.504   4.299  0.1748  0.0402 -0.6329
   41bbb     H1 1202   3.575   2.411   4.267  0.5567  1.4465 -4.7520
   41bbb     H2 1203   3.436   2.485   4.354  1.9010  0.0431  2.4217
   41bbb     C2 1204   3.395   2.681   4.192 -0.6484 -0.5601 -0.0634
   41bbb     H3 1205   3.366   2.716   4.093  0.8363  2.3587  0.4221
   41bbb     H4 1206   3.451   2.768   4.227 -0.0474 -0.7454 -0.5379
   41bbb     C3 1207   3.603   2.608   4.078 -0.4443 -0.5640 -0.1985
   41bbb     H5 1208   3.642   2.691   4.136 -1.3148 -0.9941  1.0383
   41bbb     H6 1209   3.566   2.645   3.982  0.9632  0.9803 -0.2002
   41bbb     C4 1210   3.719   2.499   4.061  0.0750 -0.4891 -0.0563
   41bbb     H7 1211   3.666   2.403   4.049 -0.6065 -0.0230 -0.8954
   41bbb     H8 1212   3.783   2.497   4.150  1.1776 -0.6122 -0.8435
   41bbb     C5 1213   3.625   2.592   4.386 -0.0601 -0.3021  0.0816
   41bbb     H9 1214   3.573   2.674   4.435  1.6505 -0.2506  1.9402
   41bbb    H10 1215   3.707   2.635   4.327  0.0953 -1.1920 -0.3757
   41bbb     C6 1216   3.271   2.658   4.281 -0.2808  0.0850 -0.0621
   41bbb    H11 1217   3.214   2.752   4.272 -0.7689  0.1517  2.6472
   41bbb    H12 1218   3.310   2.657   4.384  0.8822  2.0480 -0.4268
   41bbb     C7 1219   3.810   2.514   3.936  0.6224 -0.0765 -0.6373
   41bbb    H13 1220   3.744   2.524   3.849  1.5075  1.5795 -1.1773
   41bbb    H14 1221   3.868   2.421   3.926 -0.2057 -0.7263  0.4868
   41bbb     C8 1222   3.196   2.525   4.247 -0.4199 -0.2752  0.4635
   41bbb    H15 1223   3.268   2.446   4.269  0.0851  0.1003  0.1803
   41bbb    H16 1224   3.119   2.521   4.325 -1.4317 -0.0949 -0.4934
   41bbb     C9 1225   3.676   2.504   4.502  0.2872  0.1096  0.6028
   41bbb    H17 1226   3.756   2.559   4.554  0.1213  0.3564  0.5989
   41bbb    H18 1227   3.729   2.414   4.468  0.6062  0.6296 -0.3088
   41bbb     O1 1228   3.892   2.634   3.927  0.1716  0.5422  0.3129
   41bbb    H19 1229   3.439   2.488   4.111 -0.4219  0.8426 -1.0596
   42bbb     N1 1230   3.661   3.094   3.383 -0.2987 -0.1777 -0.2151
   42bbb     C1 1231   3.585   3.079   3.513 -0.0306 -0.0786  0.9404
   42bbb     H1 1232   3.524   3.169   3.525 -2.3885 -1.0518 -2.2167
   42bbb     H2 1233   3.657   3.072   3.594  2.6962 -0.8647 -1.4204
   42bbb     C2 1234   3.677   3.234   3.335  0.1073  0.0099  0.1679
   42bbb     H3 1235   3.725   3.238   3.237  0.0929  2.9031  0.1998
   42bbb     H4 1236   3.745   3.279   3.407  1.0114  0.8429 -1.1630
   42bbb     C3 1237   3.792   3.032   3.401 -0.8991 -0.1069  0.4229
   42bbb     H5 1238   3.771   2.947   3.467  0.6555  0.2205  1.3880
   42bbb     H6 1239   3.869   3.089   3.452 -0.1926  0.1734 -0.9200
   42bbb     C4 1240   3.851   2.967   3.274 -0.0300  0.1374 -0.3069
   42bbb     H7 1241   3.870   3.040   3.194  0.3993 -0.3019 -0.6133
   42bbb     H8 1242   3.783   2.887   3.240  1.2273 -2.2617  2.4032
   42bbb     C5 1243   3.493   2.953   3.522 -0.2953  0.3718  0.1035
   42bbb     H9 1244   3.464   2.955   3.628  0.5429 -2.6070  0.4739
   42bbb    H10 1245   3.551   2.863   3.498  2.3006  0.9093  3.6656
   42bbb     C6 1246   3.545   3.317   3.321 -0.3630  0.0497  0.0535
   42bbb    H11 1247   3.494   3.335   3.417  0.6136 -2.2974  1.1004
   42bbb    H12 1248   3.478   3.261   3.254  0.0354 -0.6326  0.2165
   42bbb     C7 1249   3.984   2.894   3.291  0.7694  0.2153  0.1930
   42bbb    H13 1250   4.040   2.881   3.198 -0.7146 -1.8984 -0.4784
   42bbb    H14 1251   3.956   2.791   3.318 -2.3893  0.8972 -0.0333
   42bbb     C8 1252   3.581   3.446   3.256 -0.1990 -0.0194 -0.0245
   42bbb    H15 1253   3.649   3.426   3.173 -0.0046  0.1915  0.0850
   42bbb    H16 1254   3.491   3.490   3.210 -1.7352  0.8167  3.4124
   42bbb     C9 1255   3.368   2.960   3.429  0.4534 -0.0848 -0.0706
   42bbb    H17 1256   3.288   3.033   3.450  0.0209 -0.9800  1.6101
   42bbb    H18 1257   3.317   2.865   3.447 -0.6802  1.0161  3.4326
   42bbb     O1 1258   4.070   2.956   3.386  0.2656  0.3695 -0.3005
   42bbb    H19 1259   3.604   3.045   3.313 -0.6252 -0.8450  0.5001
   43bbb     N1 1260   7.745   2.897   4.107  0.2465  0.2495  0.2422
   43bbb     C1 1261   7.788   2.863   4.247  0.5221 -0.1390 -0.2859
   43bbb     H1 1262   7.701   2.869   4.313  0.7867 -1.1215  0.1734
   43bbb     H2 1263   7.861   2.937   4.281 -0.0793 -0.6966  2.4778
   43bbb     C2 1264   7.854   2.883   3.998  0.8636 -0.3120 -0.0359
   43bbb     H3 1265   7.808   2.903   3.901  2.3315  1.2644 -0.4519
   43bbb     H4 1266   7.888   2.779   3.993 -2.0578 -1.3086 -3.5097
   43bbb     C3 1267   7.627   2.810   4.058  0.2012 -0.0665 -0.4865
   43bbb     H5 1268   7.658   2.711   4.022 -0.6057  0.2291 -2.0588
   43bbb     H6 1269   7.587   2.866   3.973 -0.5838 -1.6792 -1.2465
   43bbb     C4 1270   7.510   2.789   4.162 -0.1767 -0.5415 -0.1773
   43bbb     H7 1271   7.513   2.867   4.240  3.1763  0.3307 -1.0325
   43bbb     H8 1272   7.538   2.706   4.229 -1.0342 -0.0208  0.8658
   43bbb     C5 1273   7.856   2.728   4.260  0.0415  0.2796  0.2421
   43bbb     H9 1274   7.942   2.722   4.192 -0.2248 -1.2623 -0.0041
   43bbb    H10 1275   7.782   2.658   4.220 -0.2753  0.2438  0.8807
   43bbb     C6 1276   7.974   2.972   4.010 -0.6212 -0.3339  0.5293
   43bbb    H11 1277   8.045   2.912   4.068 -1.3335 -0.2145  1.5511
   43bbb    H12 1278   7.962   3.064   4.070 -1.2142  0.2514 -0.4631
   43bbb     C7 1279   7.371   2.776   4.101  0.3612  0.3223  0.0978
   43bbb    H13 1280   7.354   2.686   4.041  0.1953  1.3021 -1.3938
   43bbb    H14 1281   7.352   2.855   4.027 -1.7600 -2.2348 -2.2705
   43bbb     C8 1282   8.018   3.010   3.873  0.1312  0.1697 -0.1798
   43bbb    H15 1283   8.026   2.921   3.809  0.3508  0.2671 -0.2892
   43bbb    H16 1284   7.940   3.075   3.833 -1.5208 -2.8848 -2.3587
   43bbb     C9 1285   7.894   2.707   4.409  0.1047  0.0593 -0.0463
   43bbb    H17 1286   7.806   2.691   4.472  2.1821  0.2863  3.1414
   43bbb    H18 1287   7.955   2.791   4.445 -1.0182  0.7776  0.2617
   43bbb     O1 1288   7.268   2.792   4.207  0.7892  0.2732 -0.3197
   43bbb    H19 1289   7.710   2.994   4.112 -0.1090  0.2400 -1.4460
   44bbb     N1 1290   7.115   2.470   3.378 -0.4887  0.6082  0.3434
   44bbb     C1 1291   7.205   2.577   3.328 -0.3429 -0.3349 -0.4805
   44bbb     H1 1292   7.151   2.666   3.362  2.3768  0.1908  2.9773
   44bbb     H2 1293   7.211   2.574   3.219 -0.7356  2.2141 -0.6402
   44bbb     C2 1294   7.160   2.338   3.307  0.2619 -0.7579 -0.5486
   44bbb     H3 1295   7.112   2.253   3.358  0.9272  0.3111  2.0401
   44bbb     H4 1296   7.267   2.329   3.326 -0.1201 -0.0901  2.4608
   44bbb     C3 1297   7.102   2.458   3.531  0.5362 -0.0400 -0.6533
   44bbb     H5 1298   7.204   2.465   3.571  0.7208  2.1557 -1.3824
   44bbb     H6 1299   7.050   2.370   3.568  0.1029  1.5435  3.0123
   44bbb     C4 1300   7.028   2.581   3.593 -0.1606  0.1062  0.5380
   44bbb     H7 1301   6.923   2.551   3.603 -0.8223  2.0029 -0.2465
   44bbb     H8 1302   7.043   2.673   3.536 -0.7715 -1.1221 -1.7186
   44bbb     C5 1303   7.348   2.580   3.391 -0.3876  0.3846 -0.3276
   44bbb     H9 1304   7.403   2.485   3.396  1.6147  1.5609  1.7762
   44bbb    H10 1305   7.337   2.601   3.498  1.2145  0.5569 -0.1630
   44bbb     C6 1306   7.134   2.320   3.163  0.1664 -0.2664 -0.2841
   44bbb    H11 1307   7.162   2.410   3.108 -0.3735 -0.9248 -1.6714
   44bbb    H12 1308   7.027   2.305   3.146  0.2650 -1.6501  0.1666
   44bbb     C7 1309   7.085   2.602   3.735 -0.1012  0.1700  0.8117
   44bbb    H13 1310   7.186   2.644   3.734  0.5936 -1.4463  0.3455
   44bbb    H14 1311   7.097   2.507   3.788 -0.5305  0.8959  2.2881
   44bbb     C8 1312   7.211   2.195   3.104  0.3409  0.0897  0.0571
   44bbb    H15 1313   7.181   2.098   3.146 -0.8374  0.3954 -0.0287
   44bbb    H16 1314   7.188   2.192   2.997 -0.0641  3.6429 -0.0505
   44bbb     C9 1315   7.441   2.677   3.329  0.1162 -0.0906  1.0949
   44bbb    H17 1316   7.444   2.664   3.220 -0.0424  1.4890  0.8867
   44bbb    H18 1317   7.541   2.665   3.372  1.4539 -1.8647 -2.1647
   44bbb     O1 1318   7.004   2.680   3.824 -0.1805 -0.5047  0.2855
   44bbb    H19 1319   7.022   2.495   3.342 -0.0839 -1.0135 -2.1405
   45bbb     N1 1320   7.381   2.483   5.481 -0.6175 -0.6226  0.2162
   45bbb     C1 1321   7.351   2.462   5.629  0.0702  0.0409 -0.4076
   45bbb     H1 1322   7.436   2.422   5.685 -0.0544  1.3585  0.7865
   45bbb     H2 1323   7.284   2.377   5.637 -0.1697  0.3023  0.5641
   45bbb     C2 1324   7.484   2.378   5.441  0.4972  0.1138  0.3810
   45bbb     H3 1325   7.440   2.281   5.465  1.2152 -0.0489  1.0716
   45bbb     H4 1326   7.565   2.403   5.509  0.2766  4.1665 -0.5883
   45bbb     C3 1327   7.245   2.483   5.406 -0.4201  0.9594  0.1660
   45bbb     H5 1328   7.273   2.494   5.301  0.1694  2.0999  0.4277
   45bbb     H6 1329   7.191   2.573   5.436 -0.9235  0.6204  0.3001
   45bbb     C4 1330   7.152   2.362   5.405 -0.1223  0.5967  0.1923
   45bbb     H7 1331   7.127   2.331   5.508 -0.2208  0.3884  0.1059
   45bbb     H8 1332   7.197   2.281   5.348 -0.7930  0.3274  0.0404
   45bbb     C5 1333   7.296   2.588   5.699 -0.0896 -0.4837  0.2192
   45bbb     H9 1334   7.218   2.637   5.640 -0.4956  0.3524  1.4203
   45bbb    H10 1335   7.369   2.670   5.705  1.5691 -1.8535 -0.1819
   45bbb     C6 1336   7.529   2.376   5.288 -0.1028  0.0054 -0.8146
   45bbb    H11 1337   7.559   2.478   5.261  1.0910 -0.1639 -0.2032
   45bbb    H12 1338   7.440   2.349   5.230 -1.6912  1.3405  0.8652
   45bbb     C7 1339   7.012   2.407   5.349  0.4100  0.6298 -0.2790
   45bbb    H13 1340   6.976   2.480   5.422 -0.0216  0.8718 -0.7332
   45bbb    H14 1341   6.947   2.319   5.349 -0.5964  1.3618 -0.5699
   45bbb     C8 1342   7.654   2.291   5.252  0.0916  0.4912 -0.6385
   45bbb    H15 1343   7.631   2.189   5.284  1.2799  0.9045  1.7701
   45bbb    H16 1344   7.677   2.281   5.145 -0.6897 -0.5233 -0.7290
   45bbb     C9 1345   7.247   2.568   5.841  0.0516 -0.1799 -0.8530
   45bbb    H17 1346   7.222   2.662   5.892  0.1568 -1.7390  2.2813
   45bbb    H18 1347   7.322   2.518   5.904  0.5902 -3.1539 -3.5839
   45bbb     O1 1348   7.009   2.469   5.221  0.1016 -0.0026 -1.0176
   45bbb    H19 1349   7.428   2.573   5.464 -0.6414 -0.7077 -0.3372
   46bbb     N1 1350   7.126   1.881   4.773 -0.7629  0.0927  0.7535
   46bbb     C1 1351   7.261   1.811   4.742  0.1984 -0.1303  0.7032
   46bbb     H1 1352   7.257   1.785   4.636  1.4937  0.2186  0.5536
   46bbb     H2 1353   7.270   1.721   4.804 -0.0570  0.7881  2.1164
   46bbb     C2 1354   7.121   1.914   4.927  0.9096 -0.6412 -0.4205
   46bbb     H3 1355   7.033   1.979   4.932  0.8806 -0.7369  0.3070
   46bbb     H4 1356   7.215   1.964   4.950  0.5858 -0.8615  1.5348
   46bbb     C3 1357   7.119   2.003   4.690  0.1607 -0.2873  0.4360
   46bbb     H5 1358   7.155   1.970   4.592 -1.6908  0.4711 -0.5733
   46bbb     H6 1359   7.189   2.072   4.736  0.2113 -1.3030  1.9457
   46bbb     C4 1360   6.981   2.071   4.660 -0.8389 -0.0141  0.1373
   46bbb     H7 1361   6.951   2.117   4.755 -0.1587  0.7452 -0.0069
   46bbb     H8 1362   6.902   1.999   4.633  0.0458 -1.3288  0.9719
   46bbb     C5 1363   7.390   1.901   4.753  0.5831  0.1251  0.0338
   46bbb     H9 1364   7.391   1.956   4.848  0.1847  3.5929 -1.8067
   46bbb    H10 1365   7.386   1.980   4.678  1.9889 -0.1758 -0.3893
   46bbb     C6 1366   7.101   1.793   5.019  0.0131 -0.4613  0.3090
   46bbb    H11 1367   7.078   1.840   5.115 -0.4227  0.9279 -0.4498
   46bbb    H12 1368   7.192   1.732   5.022 -0.2100 -0.8325 -0.2619
   46bbb     C7 1369   6.987   2.186   4.552  0.0695 -0.9964 -0.2817
   46bbb    H13 1370   6.884   2.193   4.515 -1.4333 -0.0125  3.6582
   46bbb    H14 1371   7.053   2.158   4.469 -1.3923  1.8887 -2.5938
   46bbb     C8 1372   6.984   1.706   4.980  0.2548 -0.0914 -0.2090
   46bbb    H15 1373   6.889   1.762   4.977  0.8577  0.9784  0.0353
   46bbb    H16 1374   7.010   1.664   4.883  0.6117 -0.7535  0.1674
   46bbb     C9 1375   7.515   1.825   4.733  0.0218  0.2115  0.1166
   46bbb    H17 1376   7.534   1.765   4.823 -0.9411  0.0495  0.2274
   46bbb    H18 1377   7.593   1.901   4.717 -0.5887  0.9898  0.7312
   46bbb     O1 1378   7.024   2.314   4.611 -0.4610  0.0920 -0.1900
   46bbb    H19 1379   7.057   1.807   4.754  0.1288 -0.5454 -0.1033
   47bbb     N1 1380   2.327   6.706   2.618  0.7460  0.2639 -0.1936
   47bbb     C1 1381   2.321   6.764   2.480 -0.4133 -0.0795  0.4208
   47bbb     H1 1382   2.216   6.784   2.459  0.0405  2.1079 -0.0865
   47bbb     H2 1383   2.364   6.685   2.419  1.8427  0.3089  1.3723
   47bbb     C2 1384   2.189   6.653   2.645  0.0019  0.1716 -0.0973
   47bbb     H3 1385   2.176   6.575   2.571 -0.5706 -1.4560  1.6424
   47bbb     H4 1386   2.113   6.730   2.629 -2.5496 -2.3077 -0.5857
   47bbb     C3 1387   2.418   6.591   2.619 -0.5012  0.2446  0.1491
   47bbb     H5 1388   2.398   6.532   2.529  1.1004 -2.5277  1.4834
   47bbb     H6 1389   2.392   6.526   2.702 -0.3600 -0.2570 -0.1944
   47bbb     C4 1390   2.569   6.630   2.611  0.1074 -0.2361 -0.6748
   47bbb     H7 1391   2.587   6.710   2.683  0.0000  0.7786 -1.7534
   47bbb     H8 1392   2.604   6.667   2.514 -1.2752  1.9851 -0.3801
   47bbb     C5 1393   2.402   6.894   2.468  0.5573 -0.3879  0.3494
   47bbb     H9 1394   2.509   6.878   2.487  0.3838  0.2899  2.1312
   47bbb    H10 1395   2.357   6.967   2.536 -0.6306 -1.4416  0.7458
   47bbb     C6 1396   2.145   6.608   2.788  0.9848  0.5016  0.5585
   47bbb    H11 1397   2.171   6.684   2.862  1.4496  0.7390  0.1531
   47bbb    H12 1398   2.194   6.514   2.817  1.7164  0.8256  0.4018
   47bbb     C7 1399   2.669   6.518   2.645  0.3139 -0.2017  0.0942
   47bbb    H13 1400   2.773   6.551   2.631  0.5201 -0.7567  0.3067
   47bbb    H14 1401   2.664   6.428   2.584  3.9078 -1.2642  1.0927
   47bbb     C8 1402   1.994   6.578   2.798  0.6970  0.0932  0.4890
   47bbb    H15 1403   1.952   6.576   2.899 -1.5332 -0.4443 -0.3975
   47bbb    H16 1404   1.941   6.656   2.743 -3.3361 -0.9844  2.4603
   47bbb     C9 1405   2.379   6.962   2.330 -0.0337  0.1502  0.1457
   47bbb    H17 1406   2.404   6.902   2.242  0.6989  2.5416 -1.3895
   47bbb    H18 1407   2.460   7.036   2.321  0.0780  0.2655  1.7066
   47bbb     O1 1408   2.650   6.476   2.783 -0.0468 -0.0969  0.2006
   47bbb    H19 1409   2.345   6.780   2.687 -0.4521  1.5199 -1.1752
   48bbb     N1 1410   2.517   7.352   3.248  0.3583 -0.2776 -0.1357
   48bbb     C1 1411   2.420   7.375   3.362  0.1422  0.1744 -0.0615
   48bbb     H1 1412   2.345   7.452   3.340  0.0069  0.0807  0.0756
   48bbb     H2 1413   2.473   7.406   3.452  1.6221 -0.9618 -0.5089
   48bbb     C2 1414   2.574   7.481   3.200 -1.1512 -0.7572 -0.9708
   48bbb     H3 1415   2.497   7.531   3.141 -0.8956 -0.4468 -1.0373
   48bbb     H4 1416   2.653   7.456   3.129  0.4368  1.8252 -0.2417
   48bbb     C3 1417   2.637   7.268   3.294 -0.2828 -0.1170 -0.0004
   48bbb     H5 1418   2.600   7.170   3.326 -0.0615  0.4894  2.2599
   48bbb     H6 1419   2.674   7.312   3.386  0.5425 -0.6958 -0.0459
   48bbb     C4 1420   2.751   7.245   3.186 -0.4753 -0.4736 -0.0488
   48bbb     H7 1421   2.832   7.320   3.187  1.0618 -1.9936 -2.3997
   48bbb     H8 1422   2.718   7.241   3.082 -0.2911 -1.4516 -0.0740
   48bbb     C5 1423   2.339   7.254   3.407  0.2421 -0.8553  0.2018
   48bbb     H9 1424   2.405   7.180   3.454  0.9245 -0.2626  0.2023
   48bbb    H10 1425   2.297   7.206   3.318  1.6856 -0.5423 -0.6878
   48bbb     C6 1426   2.628   7.575   3.307 -0.1423 -0.0380 -0.1603
   48bbb    H11 1427   2.709   7.538   3.371 -1.1040 -1.4996  0.2488
   48bbb    H12 1428   2.548   7.604   3.376  0.9814  0.6458  0.9017
   48bbb     C7 1429   2.834   7.116   3.215 -0.0219  0.3249  0.5823
   48bbb    H13 1430   2.878   7.131   3.314  0.9785  1.1240  0.0431
   48bbb    H14 1431   2.922   7.109   3.150 -1.7697 -0.3986 -1.8546
   48bbb     C8 1432   2.679   7.701   3.243 -0.1476  0.3398  0.3209
   48bbb    H15 1433   2.735   7.759   3.317  1.6854 -1.3249  0.3270
   48bbb    H16 1434   2.746   7.676   3.160 -0.6350 -1.7683  0.5032
   48bbb     C9 1435   2.222   7.287   3.509 -0.0599  0.0926  0.8005
   48bbb    H17 1436   2.168   7.377   3.477 -0.8780 -0.2009  1.3135
   48bbb    H18 1437   2.260   7.311   3.609 -1.3819  2.1133  0.8781
   48bbb     O1 1438   2.760   6.996   3.196  0.6407  0.0676 -0.6347
   48bbb    H19 1439   2.465   7.321   3.165 -2.3655  1.3302  0.8436
   49bbb     N1 1440   3.728   7.913   3.358  0.3086 -0.2626 -0.4297
   49bbb     C1 1441   3.867   7.942   3.414 -0.0972  0.1186 -0.4206
   49bbb     H1 1442   3.854   7.954   3.521  0.4608 -1.7095 -0.1026
   49bbb     H2 1443   3.898   8.035   3.367  1.3147 -0.8799 -1.5583
   49bbb     C2 1444   3.711   7.894   3.210  0.6739  0.0198 -0.5648
   49bbb     H3 1445   3.613   7.850   3.193  0.0927 -0.3745  3.0572
   49bbb     H4 1446   3.788   7.830   3.165  1.8667 -0.2064  1.6400
   49bbb     C3 1447   3.675   7.796   3.436 -0.4432  0.8634 -0.3621
   49bbb     H5 1448   3.694   7.815   3.541  2.5936 -1.1089 -0.4481
   49bbb     H6 1449   3.729   7.709   3.398  0.6441  1.5009 -0.2981
   49bbb     C4 1450   3.531   7.758   3.428  0.4364 -0.0187 -0.0020
   49bbb     H7 1451   3.516   7.731   3.322  0.5085  0.1502 -0.0552
   49bbb     H8 1452   3.472   7.848   3.449  0.6040  0.2612 -0.6837
   49bbb     C5 1453   3.977   7.846   3.387 -0.5200 -0.7556 -0.3999
   49bbb     H9 1454   3.987   7.834   3.278 -0.0942  0.0534 -0.4609
   49bbb    H10 1455   3.948   7.751   3.433 -0.8475 -0.0568  0.8865
   49bbb     C6 1456   3.713   8.029   3.128  0.1293 -0.2760 -0.1597
   49bbb    H11 1457   3.698   8.016   3.020 -0.3169  0.0320 -0.1344
   49bbb    H12 1458   3.807   8.082   3.150 -0.5214 -0.4988  4.0310
   49bbb     C7 1459   3.485   7.649   3.536  0.0473  0.2742 -0.1901
   49bbb    H13 1460   3.375   7.639   3.533  0.0277  0.4957 -2.8085
   49bbb    H14 1461   3.501   7.702   3.630  0.9146 -1.0555  0.4332
   49bbb     C8 1462   3.598   8.120   3.181 -0.6523 -0.2273  0.1007
   49bbb    H15 1463   3.579   8.206   3.115 -0.6040  0.5469  1.0677
   49bbb    H16 1464   3.502   8.067   3.179  0.0024 -1.4340 -0.4529
   49bbb     C9 1465   4.101   7.892   3.462  1.0324  0.0423  0.8510
   49bbb    H17 1466   4.175   7.813   3.444 -0.0861 -0.6361 -1.1833
   49bbb    H18 1467   4.069   7.888   3.566 -1.6699 -2.5842  0.0689
   49bbb     O1 1468   3.542   7.514   3.529  0.2628  0.2065 -0.4936
   49bbb    H19 1469   3.677   7.999   3.383 -0.4055 -0.5884 -0.7690
   50bbb     N1 1470   3.836   7.262   2.822  0.0185 -0.3914 -0.3107
   50bbb     C1 1471   3.876   7.225   2.681 -0.5642 -0.2763 -0.1080
   50bbb     H1 1472   3.794   7.161   2.646 -0.3259 -1.7985  1.9049
   50bbb     H2 1473   3.962   7.161   2.702 -1.8724 -1.8013  0.9310
   50bbb     C2 1474   3.685   7.308   2.809 -0.0554  0.3311 -0.0068
   50bbb     H3 1475   3.629   7.224   2.768 -0.0152 -0.0238  0.6447
   50bbb     H4 1476   3.672   7.386   2.734 -1.2391 -0.1495 -0.3226
   50bbb     C3 1477   3.829   7.136   2.902 -0.1872 -0.1151  0.0120
   50bbb     H5 1478   3.816   7.059   2.826 -1.8517 -0.3556  0.5082
   50bbb     H6 1479   3.743   7.138   2.969 -1.1743  0.7391 -1.2438
   50bbb     C4 1480   3.949   7.104   2.999 -0.5430  1.0058  0.1788
   50bbb     H7 1481   3.984   7.189   3.059 -0.7436  0.3239  1.3041
   50bbb     H8 1482   4.034   7.066   2.941 -0.1438  0.6293  0.9826
   50bbb     C5 1483   3.920   7.337   2.588 -0.0346 -0.2674 -0.1744
   50bbb     H9 1484   3.994   7.399   2.640 -0.5927  0.0817  0.2164
   50bbb    H10 1485   3.834   7.401   2.567  0.4730  0.0062 -1.4704
   50bbb     C6 1486   3.601   7.337   2.939  0.4628 -0.2152  0.0998
   50bbb    H11 1487   3.667   7.404   2.996  1.5291 -2.4533  1.6159
   50bbb    H12 1488   3.598   7.249   3.003 -0.9962  1.3285  2.2818
   50bbb     C7 1489   3.909   6.991   3.100  0.0407 -0.3844  0.1475
   50bbb    H13 1490   3.988   6.947   3.162 -1.6047 -1.8066  1.3662
   50bbb    H14 1491   3.854   6.914   3.044 -1.4966 -0.6071  1.8459
   50bbb     C8 1492   3.460   7.393   2.908 -0.2654  0.3740 -0.1030
   50bbb    H15 1493   3.403   7.330   2.840  0.4214  0.5815 -0.8857
   50bbb    H16 1494   3.392   7.411   2.992 -0.7393  0.6946 -0.5486
   50bbb     C9 1495   3.985   7.300   2.448 -0.2526  0.1245  0.0478
   50bbb    H17 1496   4.076   7.242   2.467 -0.3036 -0.5712 -1.6238
   50bbb    H18 1497   4.019   7.396   2.407  0.6476  0.0633  0.6431
   50bbb     O1 1498   3.821   7.057   3.189 -0.5564 -0.5152  0.9634
   50bbb    H19 1499   3.887   7.342   2.863 -1.1918 -0.6746  1.8859
   51bbb     N1 1500   2.141   4.921   4.351  0.0484 -0.3100 -0.2202
   51bbb     C1 1501   2.183   4.781   4.385 -0.8265 -0.1251  0.7285
   51bbb     H1 1502   2.262   4.780   4.460  0.0841  1.3613 -0.1467
   51bbb     H2 1503   2.226   4.734   4.296  0.1425 -2.4700  2.3363
   51bbb     C2 1504   2.097   4.990   4.475 -0.4889  0.1095 -0.0352
   51bbb     H3 1505   2.187   5.037   4.515 -1.6685  0.6120  2.2047
   51bbb     H4 1506   2.071   4.914   4.550 -2.7203  0.4277 -0.4190
   51bbb     C3 1507   2.258   4.989   4.280 -0.1051  0.6563 -0.0292
   51bbb     H5 1508   2.308   4.908   4.227  1.5310  2.3557 -1.2450
   51bbb     H6 1509   2.328   5.037   4.349 -2.5846  2.5837  1.3124
   51bbb     C4 1510   2.213   5.099   4.178 -0.5049 -0.2340 -0.4151
   51bbb     H7 1511   2.305   5.152   4.148  1.1207 -1.6494  1.7568
   51bbb     H8 1512   2.153   5.175   4.229 -2.7032 -1.4952 -0.9722
   51bbb     C5 1513   2.060   4.696   4.426 -0.1515  0.3455  0.3107
   51bbb     H9 1514   1.977   4.707   4.354 -0.7956  0.2825  1.0283
   51bbb    H10 1515   2.017   4.728   4.522  0.9485  0.3001  0.8274
   51bbb     C6 1516   1.969   5.070   4.466  0.5497 -0.1574  0.1348
   51bbb    H11 1517   1.992   5.157   4.403  0.6132 -0.2831 -0.0157
   51bbb    H12 1518   1.948   5.109   4.567 -1.4064  0.7269 -0.5701
   51bbb     C7 1519   2.138   5.046   4.050  0.1812 -0.0110  0.2372
   51bbb    H13 1520   2.097   5.131   3.993 -1.3357 -0.7650  0.1549
   51bbb    H14 1521   2.058   4.981   4.086 -0.2264 -0.3726 -1.2534
   51bbb     C8 1522   1.844   4.993   4.410 -0.3362 -0.0649  0.0943
   51bbb    H15 1523   1.836   4.899   4.465 -0.6871  0.9711  1.9037
   51bbb    H16 1524   1.760   5.062   4.427 -0.6810  0.1856 -2.2997
   51bbb     C9 1525   2.099   4.546   4.451  0.0302 -1.0007 -1.0320
   51bbb    H17 1526   2.198   4.536   4.497 -0.9680 -0.7597  1.3547
   51bbb    H18 1527   2.103   4.492   4.356 -1.1243  2.6517 -3.3716
   51bbb     O1 1528   2.232   4.966   3.969  0.4725  0.1013  0.8470
   51bbb    H19 1529   2.060   4.908   4.289  0.3907 -1.7759 -0.3831
   52bbb     N1 1530   2.188   4.649   3.313  0.6834  0.0825 -0.4752
   52bbb     C1 1531   2.046   4.625   3.364 -0.5839 -1.0791  0.3054
   52bbb     H1 1532   2.025   4.519   3.355  1.2003 -1.3389 -1.7011
   52bbb     H2 1533   1.971   4.656   3.292 -0.7863 -1.5911  0.2939
   52bbb     C2 1534   2.205   4.570   3.185 -0.1319 -0.0643  0.3642
   52bbb     H3 1535   2.252   4.647   3.123 -1.4549  0.4820  0.0183
   52bbb     H4 1536   2.108   4.544   3.144  0.1829  1.4687 -1.5266
   52bbb     C3 1537   2.223   4.797   3.288  0.1515  0.3696 -0.0774
   52bbb     H5 1538   2.326   4.798   3.253 -0.1548  0.8393 -1.0034
   52bbb     H6 1539   2.222   4.840   3.388 -0.4834 -2.6680  1.3278
   52bbb     C4 1540   2.130   4.883   3.193 -0.1624  0.5305 -0.0347
   52bbb     H7 1541   2.025   4.877   3.223 -0.9307  2.5834 -2.0039
   52bbb     H8 1542   2.134   4.855   3.087 -0.3269  1.6081 -0.3371
   52bbb     C5 1543   2.021   4.672   3.508 -0.7856 -0.3527 -0.4151
   52bbb     H9 1544   2.033   4.780   3.522 -0.0239 -0.6810  2.0114
   52bbb    H10 1545   2.098   4.640   3.580 -1.2130  1.1886  0.7853
   52bbb     C6 1546   2.295   4.439   3.194 -0.2203  0.1873 -0.2762
   52bbb    H11 1547   2.398   4.474   3.210  0.8664 -2.4400 -0.9709
   52bbb    H12 1548   2.289   4.371   3.109 -4.3849 -1.1345  0.8769
   52bbb     C7 1549   2.179   5.028   3.186 -0.1588  0.6895 -0.5743
   52bbb    H13 1550   2.117   5.092   3.124  0.2507 -0.3513 -2.1225
   52bbb    H14 1551   2.281   5.030   3.146  0.3313 -1.3517  0.3887
   52bbb     C8 1552   2.253   4.353   3.319 -0.2973  0.1317  0.0637
   52bbb    H15 1553   2.313   4.261   3.320 -2.0735 -1.1083 -1.1568
   52bbb    H16 1554   2.272   4.410   3.411 -0.1883  1.1212 -0.5563
   52bbb     C9 1555   1.892   4.619   3.563 -0.2943 -0.2959  0.0189
   52bbb    H17 1556   1.872   4.656   3.665  4.0323  0.0611  0.9231
   52bbb    H18 1557   1.906   4.511   3.575 -1.5418 -0.6207 -1.2378
   52bbb     O1 1558   2.187   5.086   3.325 -0.4244 -0.2983  0.3100
   52bbb    H19 1559   2.257   4.605   3.376  0.1320 -1.7842 -1.1347
   53bbb     N1 1560   2.761   5.795   5.514  0.3149 -0.0294  0.0845
   53bbb     C1 1561   2.902   5.853   5.530  0.6646  0.2201 -0.1029
   53bbb     H1 1562   2.961   5.777   5.582  0.4843  1.1211  1.4993
   53bbb     H2 1563   2.893   5.937   5.600 -1.4259 -0.5829  0.6529
   53bbb     C2 1564   2.709   5.741   5.644 -0.1621  0.8835  0.0066
   53bbb     H3 1565   2.612   5.699   5.620 -0.2720  0.2736  1.4192
   53bbb     H4 1566   2.699   5.823   5.716  0.6918 -1.1171  2.5397
   53bbb     C3 1567   2.674   5.902   5.459  0.1911 -0.5513 -0.3900
   53bbb     H5 1568   2.718   5.941   5.367  0.0228 -1.6695 -0.9534
   53bbb     H6 1569   2.658   5.979   5.535 -1.6370 -2.7432  1.6077
   53bbb     C4 1570   2.534   5.861   5.415  1.0490 -0.1746 -0.1467
   53bbb     H7 1571   2.470   5.850   5.504 -0.0764  0.8694 -0.7991
   53bbb     H8 1572   2.533   5.757   5.379 -0.3201 -0.5156  0.8213
   53bbb     C5 1573   2.976   5.887   5.395 -0.2845  0.0513 -0.6172
   53bbb     H9 1574   2.951   5.982   5.347 -1.9996 -0.4907 -0.8580
   53bbb    H10 1575   2.951   5.812   5.319  2.3789 -1.7445  0.1187
   53bbb     C6 1576   2.796   5.627   5.698  0.9899  0.4017 -0.1100
   53bbb    H11 1577   2.896   5.661   5.728  1.5848 -0.8529 -0.5984
   53bbb    H12 1578   2.816   5.555   5.618 -2.4868  0.1902 -0.9575
   53bbb     C7 1579   2.474   5.952   5.300  0.6913  0.4936  0.5222
   53bbb    H13 1580   2.481   6.057   5.333  0.4372  0.2841  1.2550
   53bbb    H14 1581   2.367   5.930   5.284  0.7677  0.7449 -0.3806
   53bbb     C8 1582   2.725   5.547   5.810  0.6607  0.1467  0.4887
   53bbb    H15 1583   2.635   5.503   5.766 -0.7683  1.0142  2.3854
   53bbb    H16 1584   2.796   5.469   5.840 -0.5059 -1.8473 -1.6717
   53bbb     C9 1585   3.130   5.896   5.409  0.0254  0.0351  0.0359
   53bbb    H17 1586   3.155   5.996   5.445 -2.4810  0.6790  0.1644
   53bbb    H18 1587   3.158   5.882   5.304 -1.7121  1.6135 -0.7035
   53bbb     O1 1588   2.547   5.958   5.175  0.0821  0.4000 -0.4185
   53bbb    H19 1589   2.771   5.714   5.450 -1.8485 -1.3429  1.2995
   54bbb     N1 1590   2.077   6.299   4.512  0.2123  0.1738 -0.2204
   54bbb     C1 1591   1.957   6.258   4.590 -0.0781  0.1746  0.4726
   54bbb     H1 1592   1.964   6.149   4.592 -0.5339  0.0514 -2.1184
   54bbb     H2 1593   1.867   6.282   4.534  0.2393  1.9439  0.6600
   54bbb     C2 1594   2.100   6.447   4.510  0.3518 -0.9944 -0.1728
   54bbb     H3 1595   2.178   6.473   4.438 -0.8831 -0.6233 -1.4084
   54bbb     H4 1596   2.124   6.492   4.606 -1.7822  2.2884 -1.0029
   54bbb     C3 1597   2.193   6.226   4.583  0.8550 -0.7426 -0.2518
   54bbb     H5 1598   2.147   6.135   4.621 -0.9144  1.1845  2.7126
   54bbb     H6 1599   2.224   6.284   4.670 -0.4337 -0.0353 -0.2328
   54bbb     C4 1600   2.296   6.176   4.480 -0.5231  0.3209  0.8996
   54bbb     H7 1601   2.333   6.261   4.421  2.1460 -1.1194  0.3259
   54bbb     H8 1602   2.252   6.105   4.409 -0.1061  1.6980 -0.8013
   54bbb     C5 1603   1.938   6.313   4.733 -0.3959  0.1305 -0.0999
   54bbb     H9 1604   1.943   6.423   4.735  0.7823  0.0945  0.0786
   54bbb    H10 1605   2.014   6.269   4.799  0.5867 -0.7425 -1.7313
   54bbb     C6 1606   1.976   6.530   4.453 -0.3496 -0.2598  0.2577
   54bbb    H11 1607   1.898   6.548   4.529 -1.3219  0.5452 -0.8998
   54bbb    H12 1608   1.933   6.486   4.363  0.2207 -0.0836 -0.1043
   54bbb     C7 1609   2.428   6.120   4.530  0.1537 -0.2630  0.7415
   54bbb    H13 1610   2.482   6.204   4.576 -0.5210  1.0132 -0.6934
   54bbb    H14 1611   2.491   6.085   4.448 -0.6302 -0.1424  0.0716
   54bbb     C8 1612   2.031   6.670   4.408 -0.2538  0.3586 -0.1171
   54bbb    H15 1613   2.088   6.644   4.318  1.9470  0.2821  1.2063
   54bbb    H16 1614   1.944   6.730   4.379 -0.6740  0.3405  1.0235
   54bbb     C9 1615   1.808   6.277   4.806 -0.3134 -0.3496 -0.5373
   54bbb    H17 1616   1.816   6.315   4.909  4.3359 -1.1624 -0.4072
   54bbb    H18 1617   1.797   6.168   4.803  1.5816 -0.5977  0.2180
   54bbb     O1 1618   2.412   6.013   4.624 -0.4180  0.4305  0.5902
   54bbb    H19 1619   2.063   6.266   4.415 -2.1716  2.0133 -0.6056
   55bbb     N1 1620   6.964   6.050   2.132  0.0091  0.0272  0.1844
   55bbb     C1 1621   6.993   6.201   2.141  0.1004 -0.0312 -0.9174
   55bbb     H1 1622   7.037   6.211   2.241 -1.4100 -2.9671  0.1792
   55bbb     H2 1623   6.895   6.246   2.154  0.6653  1.6543 -2.1811
   55bbb     C2 1624   7.090   5.978   2.160 -0.1171 -0.9627  0.6818
   55bbb     H3 1625   7.167   6.011   2.090 -0.1553  1.2510  1.6076
   55bbb     H4 1626   7.073   5.874   2.133 -2.1440 -0.7498  0.9991
   55bbb     C3 1627   6.871   6.003   2.246  0.9173 -0.4807 -0.6527
   55bbb     H5 1628   6.890   6.067   2.332 -0.5655 -1.2821  0.3057
   55bbb     H6 1629   6.896   5.899   2.268 -1.9675 -1.3912 -1.2052
   55bbb     C4 1630   6.718   6.003   2.220  0.4677 -0.2320 -0.6030
   55bbb     H7 1631   6.682   5.900   2.205 -2.2594  0.8544 -2.3103
   55bbb     H8 1632   6.701   6.056   2.126 -1.5413 -0.8526 -0.6363
   55bbb     C5 1633   7.076   6.266   2.026 -0.1903  0.3965  0.0338
   55bbb     H9 1634   7.161   6.203   1.998 -1.3040 -0.4985 -1.4587
   55bbb    H10 1635   7.127   6.358   2.059  0.1965 -0.1390  0.9636
   55bbb     C6 1636   7.156   5.999   2.303 -0.3191  0.6421  0.3008
   55bbb    H11 1637   7.091   5.969   2.386  0.3747  1.4751  1.1801
   55bbb    H12 1638   7.173   6.105   2.328 -0.6371  0.5279  1.0369
   55bbb     C7 1639   6.637   6.060   2.341 -0.1609  0.1733 -0.0881
   55bbb    H13 1640   6.670   6.162   2.365 -0.6903  0.2927  0.1499
   55bbb    H14 1641   6.657   6.000   2.431  0.5102  1.7262  0.8315
   55bbb     C8 1642   7.287   5.918   2.321 -0.3069 -0.3151  0.5934
   55bbb    H15 1643   7.340   5.963   2.405  0.1757 -0.6078  0.4461
   55bbb    H16 1644   7.260   5.814   2.342 -1.1279 -0.8096 -2.4860
   55bbb     C9 1645   6.993   6.303   1.903 -0.3625 -0.2488 -0.7494
   55bbb    H17 1646   7.059   6.327   1.819 -0.4178  0.4373 -0.6004
   55bbb    H18 1647   6.929   6.388   1.931  0.6975  0.0308  0.9592
   55bbb     O1 1648   6.495   6.070   2.304 -0.4568 -0.1394  0.6428
   55bbb    H19 1649   6.937   6.021   2.037 -1.6553  1.8082  0.0537
   56bbb     N1 1650   6.379   6.920   1.996 -0.0871 -0.3547  0.6745
   56bbb     C1 1651   6.498   6.829   1.978  0.2587 -0.1656  0.5757
   56bbb     H1 1652   6.542   6.863   1.884 -1.4866  0.9750  0.1130
   56bbb     H2 1653   6.462   6.726   1.969  1.8514 -0.8049  1.2544
   56bbb     C2 1654   6.331   6.971   1.860 -0.3451 -0.2126 -0.3005
   56bbb     H3 1655   6.224   6.987   1.864 -0.3740 -0.4627  3.4423
   56bbb     H4 1656   6.351   6.889   1.791  0.9224  0.7783 -1.1463
   56bbb     C3 1657   6.269   6.845   2.070  0.0169 -0.0545 -0.3928
   56bbb     H5 1658   6.181   6.908   2.082 -0.1762 -0.5616  1.0889
   56bbb     H6 1659   6.302   6.819   2.170  0.0958  1.7864  0.1055
   56bbb     C4 1660   6.212   6.715   2.011  0.2702  0.1091 -0.1727
   56bbb     H7 1661   6.292   6.641   1.999 -0.3426 -0.4398 -1.0000
   56bbb     H8 1662   6.168   6.738   1.913  0.0148 -1.8540 -0.5519
   56bbb     C5 1663   6.603   6.850   2.088  0.5093  0.0166 -0.2261
   56bbb     H9 1664   6.684   6.778   2.072 -0.0374 -0.2387 -1.9685
   56bbb    H10 1665   6.559   6.823   2.185 -0.2851  1.0387 -0.2826
   56bbb     C6 1666   6.408   7.095   1.814  0.3833 -0.4415  0.1790
   56bbb    H11 1667   6.513   7.064   1.809  0.9161  1.3406 -0.1389
   56bbb    H12 1668   6.417   7.176   1.888  0.8114 -0.5368  0.2351
   56bbb     C7 1669   6.096   6.651   2.091 -0.6744 -0.4127 -0.1325
   56bbb    H13 1670   6.038   6.584   2.026  0.3689 -0.3092 -1.2037
   56bbb    H14 1671   6.036   6.738   2.122  1.9820  0.4984  2.9932
   56bbb     C8 1672   6.366   7.155   1.682 -0.0113 -0.4756  0.7321
   56bbb    H15 1673   6.315   7.071   1.633 -0.1864 -1.2091  2.1276
   56bbb    H16 1674   6.283   7.226   1.698  1.5413  1.8582 -0.9154
   56bbb     C9 1675   6.664   6.988   2.087 -0.4150 -0.2311  0.0736
   56bbb    H17 1676   6.686   7.025   1.986  3.0788  0.0130  0.8032
   56bbb    H18 1677   6.762   6.989   2.135 -0.0017  1.0486 -0.7664
   56bbb     O1 1678   6.157   6.590   2.206  0.3317  0.0633 -0.4263
   56bbb    H19 1679   6.422   6.994   2.054  1.6932  0.6714 -1.7975
   57bbb     N1 1680   7.044   6.501   3.976 -0.1307 -0.0995  0.6761
   57bbb     C1 1681   6.976   6.632   3.937 -0.4552  0.0672 -0.6267
   57bbb     H1 1682   6.910   6.611   3.853 -2.3628 -1.9721  1.2395
   57bbb     H2 1683   7.054   6.705   3.916  3.2459 -3.5544 -0.7265
   57bbb     C2 1684   7.136   6.514   4.097  0.3102 -0.0804 -0.0553
   57bbb     H3 1685   7.178   6.414   4.112 -1.1566 -0.7729 -0.4520
   57bbb     H4 1686   7.069   6.548   4.175 -0.2113  1.0948 -0.9845
   57bbb     C3 1687   6.945   6.392   4.011 -0.8159  0.7629 -0.2433
   57bbb     H5 1688   6.866   6.427   4.078 -1.1346  1.2437 -0.8562
   57bbb     H6 1689   7.003   6.318   4.067  0.6238  0.7702 -1.6541
   57bbb     C4 1690   6.881   6.316   3.893  0.0731 -0.4649  0.3632
   57bbb     H7 1691   6.799   6.256   3.935 -0.6271  0.3325  0.1534
   57bbb     H8 1692   6.955   6.249   3.847  0.0578 -0.3063  0.1060
   57bbb     C5 1693   6.876   6.689   4.045 -0.1348  0.1482  0.5259
   57bbb     H9 1694   6.935   6.729   4.128  0.7540  0.6382 -0.3233
   57bbb    H10 1695   6.812   6.611   4.090  0.7461 -0.0351  1.5032
   57bbb     C6 1696   7.249   6.613   4.077  0.3255  0.7265  0.5594
   57bbb    H11 1697   7.202   6.711   4.070  2.0170  1.5586  0.4997
   57bbb    H12 1698   7.309   6.594   3.987 -1.5473 -2.3847 -0.1987
   57bbb     C7 1699   6.806   6.396   3.779 -0.1547 -0.0495 -0.2999
   57bbb    H13 1700   6.891   6.431   3.719  1.4633 -0.9553  1.3910
   57bbb    H14 1701   6.742   6.465   3.836  0.5145  0.1815  0.1847
   57bbb     C8 1702   7.346   6.598   4.196 -0.4342  0.1052  0.0431
   57bbb    H15 1703   7.296   6.617   4.292  0.3634  3.3480 -0.0329
   57bbb    H16 1704   7.384   6.496   4.206  0.3980  0.5037  1.0660
   57bbb     C9 1705   6.791   6.801   3.992  0.2059 -0.1864  0.2559
   57bbb    H17 1706   6.701   6.815   4.052 -1.2632 -0.7589 -1.6918
   57bbb    H18 1707   6.754   6.768   3.894  1.9976  2.1489 -1.3469
   57bbb     O1 1708   6.726   6.307   3.697  0.0009  0.3246 -0.7028
   57bbb    H19 1709   7.096   6.474   3.892  0.0929  0.2165  0.7107
   58bbb     N1 1710   6.821   5.495   3.853  0.0273 -0.2389 -0.3378
   58bbb     C1 1711   6.818   5.634   3.923 -0.7444 -0.5512  0.2117
   58bbb     H1 1712   6.716   5.671   3.925 -1.3539 -2.0304  3.7588
   58bbb     H2 1713   6.884   5.706   3.872 -1.3022  0.3107  0.6766
   58bbb     C2 1714   6.714   5.399   3.898 -0.1459 -0.6903 -0.0359
   58bbb     H3 1715   6.749   5.371   3.997 -0.1317 -0.1857  0.1059
   58bbb     H4 1716   6.720   5.313   3.832 -0.8098 -0.7298 -0.0523
   58bbb     C3 1717   6.811   5.507   3.708 -0.2847 -0.5774 -0.0415
   58bbb     H5 1718   6.727   5.571   3.680  0.5049  0.1765 -0.7534
   58bbb     H6 1719   6.802   5.407   3.667 -3.1203 -0.5995  0.4098
   58bbb     C4 1720   6.935   5.566   3.641 -0.1181  0.1236  0.3460
   58bbb     H7 1721   7.015   5.491   3.644  0.7196  0.9427 -0.7360
   58bbb     H8 1722   6.978   5.658   3.682  0.1863 -0.0015  0.3095
   58bbb     C5 1723   6.867   5.636   4.073 -0.1329 -0.0412 -0.0785
   58bbb     H9 1724   6.829   5.543   4.115  2.4571 -1.1995 -0.0709
   58bbb    H10 1725   6.831   5.726   4.124  1.3938 -0.1124  1.1889
   58bbb     C6 1726   6.570   5.460   3.904 -0.6344  0.4448 -0.3876
   58bbb    H11 1727   6.543   5.522   3.818 -2.0193  0.2653 -0.0995
   58bbb    H12 1728   6.554   5.522   3.993  0.9763 -0.4788  0.5840
   58bbb     C7 1729   6.913   5.590   3.487  0.1508  0.4539 -0.3204
   58bbb    H13 1730   6.868   5.503   3.437  1.2254  0.3390 -1.1316
   58bbb    H14 1731   7.009   5.623   3.444  1.3054  2.1375  3.1769
   58bbb     C8 1732   6.466   5.346   3.914 -0.0703  0.1342  1.0526
   58bbb    H15 1733   6.365   5.386   3.902 -0.9809 -2.4883 -0.8894
   58bbb    H16 1734   6.466   5.272   3.833 -0.3490 -0.1336  1.2972
   58bbb     C9 1735   7.021   5.627   4.075 -0.0543  0.0364 -0.1502
   58bbb    H17 1736   7.054   5.620   4.179  2.4832  0.3968 -0.8450
   58bbb    H18 1737   7.066   5.719   4.035  2.2094 -0.6580  0.6538
   58bbb     O1 1738   6.821   5.703   3.488  0.7462  0.1961  0.5865
   58bbb    H19 1739   6.912   5.453   3.878 -0.9610 -1.3943  1.4951
   59bbb     N1 1740   5.243   4.945   0.790  0.0354 -0.4010 -0.0100
   59bbb     C1 1741   5.144   5.052   0.759  0.3207 -0.1815 -0.4636
   59bbb     H1 1742   5.104   5.038   0.658 -0.7689 -1.5263  0.1251
   59bbb     H2 1743   5.192   5.150   0.754  0.5359 -0.3126 -1.0995
   59bbb     C2 1744   5.292   4.882   0.661 -0.2592  0.2028 -0.6972
   59bbb     H3 1745   5.373   4.814   0.688 -1.3558 -0.7412  0.3754
   59bbb     H4 1746   5.333   4.965   0.604  1.9160  1.2507  2.1647
   59bbb     C3 1747   5.372   4.996   0.860 -0.3742 -0.6808 -0.0472
   59bbb     H5 1748   5.402   5.087   0.807  0.1187 -1.4740 -1.1656
   59bbb     H6 1749   5.451   4.923   0.841 -0.5984 -0.8452 -0.3547
   59bbb     C4 1750   5.372   5.023   1.012  0.0969 -0.1378  0.2706
   59bbb     H7 1751   5.269   5.051   1.033  0.6715  1.7493  0.7842
   59bbb     H8 1752   5.427   5.115   1.035 -2.7399  1.4701  1.0591
   59bbb     C5 1753   5.034   5.073   0.868  0.0133 -0.8453  0.5936
   59bbb     H9 1754   5.079   5.086   0.967  0.1144  1.5095  0.2945
   59bbb    H10 1755   4.969   4.985   0.881 -1.5962  0.5330  2.2378
   59bbb     C6 1756   5.199   4.803   0.574  1.0007 -0.0568 -0.1409
   59bbb    H11 1757   5.250   4.795   0.477  2.3800 -2.6833  0.7094
   59bbb    H12 1758   5.100   4.847   0.556  0.1869 -1.9199 -0.3677
   59bbb     C7 1759   5.419   4.900   1.089  0.1606  0.5605 -1.0853
   59bbb    H13 1760   5.526   4.896   1.064  0.7040  1.8730  0.7534
   59bbb    H14 1761   5.363   4.809   1.067  0.4351  0.3982 -1.1110
   59bbb     C8 1762   5.171   4.661   0.626  0.4621  0.4142  0.4812
   59bbb    H15 1763   5.263   4.610   0.657  1.4859  1.6076 -0.5023
   59bbb    H16 1764   5.112   4.664   0.718 -0.3192 -1.1307  0.0781
   59bbb     C9 1765   4.960   5.206   0.839  0.2406 -0.3071 -0.1958
   59bbb    H17 1766   5.031   5.288   0.853  0.5808 -0.8334  1.4519
   59bbb    H18 1767   4.874   5.218   0.906 -0.3293  0.0534 -0.9855
   59bbb     O1 1768   5.408   4.927   1.230 -0.4511 -0.6498 -0.0251
   59bbb    H19 1769   5.198   4.873   0.849 -1.6651 -0.4854 -1.3404
   60bbb     N1 1770   6.115   4.609   1.565  0.2289 -0.1628 -0.0549
   60bbb     C1 1771   6.050   4.554   1.685 -0.8654 -0.2645  0.3744
   60bbb     H1 1772   6.100   4.614   1.761  1.6062 -0.2035 -1.1792
   60bbb     H2 1773   6.093   4.454   1.696  2.4850  1.1484  1.5006
   60bbb     C2 1774   6.064   4.528   1.447  0.4365  0.7479  0.1927
   60bbb     H3 1775   6.094   4.590   1.362  0.0898  0.7174  0.0443
   60bbb     H4 1776   5.955   4.515   1.452  0.7142 -1.6379  0.9240
   60bbb     C3 1777   6.077   4.754   1.538  0.2170 -0.3020 -0.4055
   60bbb     H5 1778   5.969   4.770   1.543  0.5437  2.0002  2.2715
   60bbb     H6 1779   6.121   4.778   1.442  0.5433 -1.7394 -0.6362
   60bbb     C4 1780   6.132   4.861   1.637 -0.5261 -0.5001 -0.3323
   60bbb     H7 1781   6.134   4.960   1.591 -1.3943  0.4412  1.5645
   60bbb     H8 1782   6.236   4.832   1.660 -0.2716  0.1062 -0.7221
   60bbb     C5 1783   5.902   4.573   1.705  0.0410  0.0538  0.2001
   60bbb     H9 1784   5.842   4.509   1.639 -2.6714 -1.8422  4.1444
   60bbb    H10 1785   5.863   4.671   1.675 -1.1420  0.1374  1.8976
   60bbb     C6 1786   6.137   4.390   1.427  0.1453 -0.1546  0.4964
   60bbb    H11 1787   6.087   4.316   1.490 -1.4923  0.9930  0.6269
   60bbb    H12 1788   6.244   4.398   1.449  0.4256 -0.9562 -0.4871
   60bbb     C7 1789   6.054   4.885   1.774  0.4532 -0.3861 -0.1347
   60bbb    H13 1790   6.103   4.959   1.837  1.4182 -2.2378  1.3814
   60bbb    H14 1791   6.064   4.792   1.831 -0.7513 -0.5045 -0.0888
   60bbb     C8 1792   6.121   4.338   1.283 -0.2302  0.2924  0.2741
   60bbb    H15 1793   6.018   4.336   1.246 -0.3729 -1.0367  0.6776
   60bbb    H16 1794   6.176   4.414   1.226 -0.7296  3.5123  3.7127
   60bbb     C9 1795   5.856   4.534   1.849  0.3003  0.2395  0.1904
   60bbb    H17 1796   5.899   4.602   1.924 -0.2449 -0.2177  0.9274
   60bbb    H18 1797   5.898   4.437   1.876  2.1844  1.2191  0.9184
   60bbb     O1 1798   5.912   4.913   1.748  0.8790 -0.4848  0.3933
   60bbb    H19 1799   6.217   4.598   1.571  0.1837  0.0993  1.6429
   61bbb     N1 1800   3.952   4.722   1.663  0.3435  0.3250 -0.3715
   61bbb     C1 1801   3.985   4.703   1.813 -0.3489  0.3172 -0.4557
   61bbb     H1 1802   4.074   4.640   1.809 -1.2991 -1.0323 -1.2861
   61bbb     H2 1803   3.907   4.644   1.862 -0.9663 -0.5282 -2.3732
   61bbb     C2 1804   3.817   4.786   1.645  0.5955 -0.0857 -0.6774
   61bbb     H3 1805   3.796   4.789   1.538 -1.3316  0.5887 -0.3122
   61bbb     H4 1806   3.831   4.888   1.681 -1.7895 -0.3185  1.1705
   61bbb     C3 1807   4.068   4.805   1.606  0.0138 -0.5889  1.2044
   61bbb     H5 1808   4.095   4.870   1.690 -1.2317 -0.6999  1.7097
   61bbb     H6 1809   4.034   4.873   1.528 -1.5903  0.2770  2.6018
   61bbb     C4 1810   4.184   4.725   1.544 -0.1459  0.3581 -0.3906
   61bbb     H7 1811   4.153   4.658   1.463  1.9013  0.7927 -1.6123
   61bbb     H8 1812   4.223   4.662   1.626 -0.2047  3.1420  1.9539
   61bbb     C5 1813   4.014   4.826   1.902 -0.7294  0.4385  0.2897
   61bbb     H9 1814   3.940   4.905   1.883 -1.0551 -0.0840 -0.6890
   61bbb    H10 1815   4.117   4.861   1.885 -0.0672 -1.6505 -0.2678
   61bbb     C6 1816   3.693   4.721   1.713  0.9361  0.1368 -0.3607
   61bbb    H11 1817   3.688   4.735   1.821 -0.3355  1.4199 -0.5666
   61bbb    H12 1818   3.700   4.614   1.686  1.3426  0.7514 -3.0284
   61bbb     C7 1819   4.294   4.807   1.493  0.1808 -0.8692  0.2045
   61bbb    H13 1820   4.259   4.851   1.399 -1.1503  0.2747  1.1952
   61bbb    H14 1821   4.387   4.758   1.461  0.5064  0.1563 -0.4781
   61bbb     C8 1822   3.564   4.764   1.642 -0.0450  0.1253  0.3719
   61bbb    H15 1823   3.545   4.728   1.540 -0.8120  1.9167 -0.1486
   61bbb    H16 1824   3.488   4.709   1.698 -0.1900  1.4326  1.4962
   61bbb     C9 1825   3.992   4.787   2.053 -0.8039 -0.0915 -0.0944
   61bbb    H17 1826   4.014   4.877   2.112 -3.1801  0.0725  0.6178
   61bbb    H18 1827   4.047   4.693   2.067  0.3299  0.7165  1.0912
   61bbb     O1 1828   4.330   4.916   1.590  0.3213 -0.4986 -0.0272
   61bbb    H19 1829   3.950   4.639   1.602  2.3446 -0.3422  0.3981
   62bbb     N1 1830   4.623   5.453   1.216  0.1646  0.1445  0.2572
   62bbb     C1 1831   4.708   5.450   1.091 -0.5714 -0.4956 -0.6523
   62bbb     H1 1832   4.667   5.374   1.024  2.5215 -3.0458  0.0883
   62bbb     H2 1833   4.808   5.411   1.110 -0.6784 -0.1089  0.7760
   62bbb     C2 1834   4.494   5.366   1.194 -0.2817 -0.5413 -0.6101
   62bbb     H3 1835   4.519   5.260   1.195 -0.2354 -0.5418 -1.1848
   62bbb     H4 1836   4.454   5.401   1.098  1.3921  2.2281 -0.4208
   62bbb     C3 1837   4.697   5.386   1.334  0.4171  0.5130 -0.1871
   62bbb     H5 1838   4.732   5.287   1.304 -0.7149 -0.2822  1.0359
   62bbb     H6 1839   4.632   5.369   1.419 -0.5950 -2.7173 -1.4640
   62bbb     C4 1840   4.817   5.471   1.374  0.0359 -0.3727 -0.4979
   62bbb     H7 1841   4.784   5.562   1.425  0.8884  1.5990 -3.2327
   62bbb     H8 1842   4.874   5.501   1.285 -0.1639  1.8817  0.0818
   62bbb     C5 1843   4.720   5.584   1.015 -0.3797  0.2009 -0.2667
   62bbb     H9 1844   4.766   5.665   1.073  0.6851 -1.1130  0.7931
   62bbb    H10 1845   4.622   5.615   0.977 -1.1811 -1.2844  0.4785
   62bbb     C6 1846   4.390   5.383   1.304 -0.4292  0.0714  0.2033
   62bbb    H11 1847   4.354   5.486   1.305  0.3331  0.3648 -1.1655
   62bbb    H12 1848   4.434   5.359   1.402  0.4095 -0.2045 -0.2280
   62bbb     C7 1849   4.909   5.388   1.461 -0.4279  0.6916  0.2542
   62bbb    H13 1850   4.990   5.458   1.487 -0.6059  2.0724 -2.5729
   62bbb    H14 1851   4.951   5.309   1.398 -0.4198 -0.3143  1.4788
   62bbb     C8 1852   4.275   5.286   1.266 -0.0672 -0.0882  0.3450
   62bbb    H15 1853   4.306   5.183   1.244 -1.1737 -0.4610  0.4258
   62bbb    H16 1854   4.198   5.286   1.345  0.6266  1.8237  1.0693
   62bbb     C9 1855   4.804   5.565   0.889 -0.2170  0.7719  0.2502
   62bbb    H17 1856   4.753   5.605   0.800 -0.6718  1.3335  0.7570
   62bbb    H18 1857   4.823   5.458   0.875  3.4028  1.3601 -0.2863
   62bbb     O1 1858   4.856   5.331   1.582 -0.3952  0.5087 -0.2141
   62bbb    H19 1859   4.600   5.552   1.230 -0.2040  0.3439 -1.4944
   63bbb     N1 1860   3.633   4.900   8.854 -0.6374  0.3376  0.6184
   63bbb     C1 1861   3.510   4.971   8.905  0.1064 -0.2961  0.0636
   63bbb     H1 1862   3.479   4.906   8.987 -1.0706 -0.1251 -0.2183
   63bbb     H2 1863   3.432   4.971   8.828 -0.7316 -1.4613  0.8735
   63bbb     C2 1864   3.613   4.750   8.857  0.0259 -0.7911 -0.4171
   63bbb     H3 1865   3.575   4.719   8.954 -2.8001  1.2141 -0.7772
   63bbb     H4 1866   3.713   4.707   8.842  0.3013  0.1503 -1.4237
   63bbb     C3 1867   3.659   4.951   8.713 -0.2110 -0.5051 -0.0771
   63bbb     H5 1868   3.659   5.060   8.716  0.5998 -0.5254  1.0596
   63bbb     H6 1869   3.572   4.924   8.653  0.7800 -0.6112 -1.5272
   63bbb     C4 1870   3.780   4.900   8.629  0.8944 -0.4841  0.2196
   63bbb     H7 1871   3.790   4.792   8.642 -2.3044 -0.8086  0.9392
   63bbb     H8 1872   3.861   4.966   8.661 -0.6064 -0.2157  3.9198
   63bbb     C5 1873   3.535   5.114   8.957  0.2562  0.1379  0.2302
   63bbb     H9 1874   3.443   5.155   9.000  0.8128  0.8576  0.7787
   63bbb    H10 1875   3.564   5.181   8.875  1.0044  1.8065  1.7769
   63bbb     C6 1876   3.509   4.686   8.758  0.1099  0.2823 -0.7062
   63bbb    H11 1877   3.558   4.661   8.663  0.6945 -0.3984 -0.2339
   63bbb    H12 1878   3.417   4.745   8.752 -1.6695 -2.1818  0.4866
   63bbb     C7 1879   3.763   4.932   8.478  0.9337  0.0804  0.2218
   63bbb    H13 1880   3.844   4.878   8.427  2.3394  0.1463  2.2238
   63bbb    H14 1881   3.758   5.041   8.469  0.6518  0.1816  1.3841
   63bbb     C8 1882   3.472   4.551   8.807  0.4321 -0.3842  0.3880
   63bbb    H15 1883   3.408   4.510   8.727  0.1034  0.5922  0.1262
   63bbb    H16 1884   3.565   4.494   8.799  0.2917 -0.5878  0.1774
   63bbb     C9 1885   3.652   5.125   9.063 -0.0158 -0.6873  0.5530
   63bbb    H17 1886   3.692   5.227   9.069  0.4818 -0.8202 -0.4099
   63bbb    H18 1887   3.740   5.072   9.025  1.6784  2.0484  0.4576
   63bbb     O1 1888   3.631   4.878   8.443 -0.3111  0.3420 -0.1215
   63bbb    H19 1889   3.710   4.930   8.916  1.4051  0.6299 -1.8648
   64bbb     N1 1890   2.916   4.333   8.288  0.7436 -0.4773 -0.2050
   64bbb     C1 1891   2.853   4.247   8.401  0.0516  0.1163  0.5626
   64bbb     H1 1892   2.897   4.147   8.402 -0.4454 -0.1053  0.9165
   64bbb     H2 1893   2.745   4.246   8.382  0.3038  1.6681 -1.2611
   64bbb     C2 1894   2.849   4.465   8.278  1.0315  0.0325  0.1550
   64bbb     H3 1895   2.916   4.511   8.205 -0.0120  0.1632 -0.7438
   64bbb     H4 1896   2.858   4.527   8.367 -0.2427  2.2462 -1.1657
   64bbb     C3 1897   3.067   4.363   8.313 -0.2759  0.1133 -0.3890
   64bbb     H5 1898   3.073   4.394   8.417 -0.0315 -1.4525  0.1009
   64bbb     H6 1899   3.101   4.435   8.239 -0.0273 -2.7970 -3.3627
   64bbb     C4 1900   3.161   4.243   8.280  0.6982 -0.0719 -0.3245
   64bbb     H7 1901   3.144   4.207   8.178 -1.4193  1.4357 -0.5823
   64bbb     H8 1902   3.136   4.168   8.356 -0.9175  1.8343  1.1393
   64bbb     C5 1903   2.871   4.289   8.553  0.6751  0.1356 -0.0274
   64bbb     H9 1904   2.810   4.378   8.571 -1.3566 -0.9033 -1.3656
   64bbb    H10 1905   2.976   4.310   8.578  0.2200  3.0295 -0.2973
   64bbb     C6 1906   2.697   4.470   8.220 -0.1508 -0.1262 -0.3071
   64bbb    H11 1907   2.662   4.574   8.227  1.1301  0.2909  0.1590
   64bbb    H12 1908   2.628   4.407   8.277  1.3685 -2.2251 -0.7150
   64bbb     C7 1909   3.310   4.274   8.280  0.5044  0.0836 -0.0748
   64bbb    H13 1910   3.369   4.191   8.238  1.8011  1.7683 -1.7129
   64bbb    H14 1911   3.346   4.281   8.384 -2.2401  1.7442  0.8650
   64bbb     C8 1912   2.695   4.428   8.070 -0.1164 -0.2796 -0.0356
   64bbb    H15 1913   2.595   4.432   8.026  0.1866  1.2349 -0.6390
   64bbb    H16 1914   2.756   4.499   8.012  0.6114 -1.3240 -0.5789
   64bbb     C9 1915   2.809   4.174   8.634  0.4205  0.2188 -0.5047
   64bbb    H17 1916   2.835   4.195   8.739  2.6797 -0.9336 -0.7729
   64bbb    H18 1917   2.872   4.085   8.623  1.5354  1.0624 -1.1858
   64bbb     O1 1918   3.343   4.386   8.206 -0.4328 -0.0485  0.7761
   64bbb    H19 1919   2.903   4.285   8.198  0.8497  1.8346 -1.5441
   65bbb     N1 1920   5.040   2.865   8.170 -0.1925  0.1457 -0.1678
   65bbb     C1 1921   5.029   2.712   8.173 -0.4544 -0.0343 -0.1365
   65bbb     H1 1922   5.076   2.674   8.264 -0.6732 -0.0164 -0.0136
   65bbb     H2 1923   5.093   2.672   8.095  1.8370  0.4754  1.3878
   65bbb     C2 1924   5.179   2.912   8.187  0.3673 -0.3361 -0.2922
   65bbb     H3 1925   5.183   3.017   8.157 -0.1470  0.0072  0.7934
   65bbb     H4 1926   5.230   2.854   8.110  0.1575  1.5276 -1.9344
   65bbb     C3 1927   4.979   2.923   8.041 -0.6042 -0.2430 -0.4266
   65bbb     H5 1928   4.888   2.865   8.026 -2.4340  1.9979  1.2339
   65bbb     H6 1929   5.052   2.908   7.962 -1.0058 -2.8081 -0.3912
   65bbb     C4 1930   4.935   3.073   8.058  0.0702 -0.2978 -0.2522
   65bbb     H7 1931   5.024   3.136   8.062 -0.0540  0.0234 -1.9864
   65bbb     H8 1932   4.864   3.082   8.142 -0.4890 -1.5307 -0.5623
   65bbb     C5 1933   4.886   2.649   8.161  0.3178  0.5169  0.5194
   65bbb     H9 1934   4.850   2.677   8.061  3.1510  1.5640 -0.3167
   65bbb    H10 1935   4.811   2.688   8.230 -1.4459 -2.6830  0.5642
   65bbb     C6 1936   5.241   2.894   8.330  0.4934  0.3116  0.1544
   65bbb    H11 1937   5.333   2.952   8.328  0.5633  0.1892 -0.2259
   65bbb    H12 1938   5.269   2.789   8.347  0.9812 -0.1137 -2.7653
   65bbb     C7 1939   4.872   3.126   7.931  1.1705 -0.2972 -0.0953
   65bbb    H13 1940   4.787   3.069   7.891  0.4075  0.2028  0.7640
   65bbb    H14 1941   4.947   3.129   7.851  0.5719 -1.6079 -0.7305
   65bbb     C8 1942   5.132   2.934   8.425 -0.0837  0.0997 -0.4310
   65bbb    H15 1943   5.050   2.861   8.424  0.8847 -1.0828  1.1696
   65bbb    H16 1944   5.175   2.924   8.526  1.8978 -0.2949 -1.2682
   65bbb     C9 1945   4.882   2.491   8.176  0.5571  0.0897  0.0875
   65bbb    H17 1946   4.936   2.447   8.091 -0.8503 -1.8342  0.1280
   65bbb    H18 1947   4.780   2.460   8.154 -0.7108  3.4349  0.6632
   65bbb     O1 1948   4.823   3.264   7.962 -0.2478  0.1176 -0.3397
   65bbb    H19 1949   4.985   2.894   8.252  0.3350 -0.1497  0.3041
   66bbb     N1 1950   4.440   3.915   8.572  0.3376  0.2997 -0.4324
   66bbb     C1 1951   4.565   3.944   8.652 -0.0930 -0.1098 -0.1415
   66bbb     H1 1952   4.639   3.994   8.590  1.4517 -2.2412 -0.1276
   66bbb     H2 1953   4.619   3.851   8.670  3.1268  1.5205 -0.5268
   66bbb     C2 1954   4.351   3.823   8.649  0.2450  0.1273 -0.2167
   66bbb     H3 1955   4.285   3.783   8.572  1.1098  0.4009 -1.1172
   66bbb     H4 1956   4.286   3.877   8.718  0.7976 -0.5282  0.8478
   66bbb     C3 1957   4.364   4.042   8.542  0.5226  0.0321 -0.3753
   66bbb     H5 1958   4.424   4.132   8.553  3.1881 -1.6600 -0.2601
   66bbb     H6 1959   4.280   4.041   8.612  2.1167 -1.2430  1.6028
   66bbb     C4 1960   4.315   4.025   8.398  0.3230  0.5527 -0.6953
   66bbb     H7 1961   4.238   4.101   8.384 -1.0964 -1.0641 -2.2165
   66bbb     H8 1962   4.254   3.937   8.376 -1.3330  1.7662 -1.1265
   66bbb     C5 1963   4.544   4.031   8.776  0.3619 -0.0174 -0.7086
   66bbb     H9 1964   4.463   3.991   8.838 -1.0415  3.6648  0.0443
   66bbb    H10 1965   4.504   4.126   8.738 -0.5848  0.7156  1.9460
   66bbb     C6 1966   4.432   3.716   8.728  0.2075  0.3630  0.7797
   66bbb    H11 1967   4.485   3.760   8.813 -1.0200  0.0191  1.7607
   66bbb    H12 1968   4.510   3.669   8.666  0.5155 -0.7554  1.9652
   66bbb     C7 1969   4.423   4.055   8.297  0.3138 -0.4039 -0.1194
   66bbb    H13 1970   4.465   4.155   8.313 -0.4537 -0.3923  2.1110
   66bbb    H14 1971   4.375   4.042   8.199 -0.7745  0.9359  0.2097
   66bbb     C8 1972   4.347   3.600   8.792  0.2987 -0.9145 -0.1789
   66bbb    H15 1973   4.260   3.642   8.845 -0.4630 -1.9485 -0.5752
   66bbb    H16 1974   4.300   3.533   8.718 -0.2219 -3.3761  2.2336
   66bbb     C9 1975   4.676   4.063   8.851  0.5349  0.2323  0.4605
   66bbb    H17 1976   4.756   4.099   8.785  2.0128 -0.6002  1.7193
   66bbb    H18 1977   4.710   3.971   8.900 -2.8905 -1.6722 -0.3978
   66bbb     O1 1978   4.522   3.953   8.317 -0.2728 -0.5570  0.2306
   66bbb    H19 1979   4.482   3.880   8.484  0.0033 -0.5457 -0.2668
   67bbb     N1 1980   2.418   3.400   6.390  0.3885 -0.5856 -0.3974
   67bbb     C1 1981   2.332   3.318   6.297 -0.3677 -0.1387 -0.1431
   67bbb     H1 1982   2.335   3.378   6.205 -1.7595 -0.9874 -0.7754
   67bbb     H2 1983   2.229   3.314   6.332 -0.8521 -1.8818 -1.6167
   67bbb     C2 1984   2.417   3.349   6.530 -1.0573  0.7023 -0.0239
   67bbb     H3 1985   2.482   3.420   6.580 -1.2203  1.1442 -0.4294
   67bbb     H4 1986   2.468   3.252   6.527 -0.3560  0.9702  1.8730
   67bbb     C3 1987   2.569   3.411   6.350  0.1558 -0.1249  0.5558
   67bbb     H5 1988   2.616   3.314   6.337  0.3630 -0.0462  0.7064
   67bbb     H6 1989   2.621   3.456   6.435  1.3978  1.6249 -1.0603
   67bbb     C4 1990   2.586   3.489   6.214  0.0174  0.5910 -0.5139
   67bbb     H7 1991   2.539   3.588   6.208 -0.5382  0.3058 -0.9515
   67bbb     H8 1992   2.542   3.438   6.127  1.4767  1.3655 -1.7562
   67bbb     C5 1993   2.385   3.174   6.280  0.5317 -0.1572  0.0784
   67bbb     H9 1994   2.413   3.132   6.377 -0.3216  0.8272  0.7647
   67bbb    H10 1995   2.482   3.185   6.231 -0.3145  2.1560 -1.2687
   67bbb     C6 1996   2.284   3.335   6.603  0.6014  0.0742  0.8005
   67bbb    H11 1997   2.227   3.257   6.552 -0.0609 -0.9974  3.0679
   67bbb    H12 1998   2.232   3.432   6.603  2.2405  1.0151 -1.0675
   67bbb     C7 1999   2.731   3.514   6.167 -0.1822  0.7449 -1.1609
   67bbb    H13 2000   2.731   3.572   6.074  1.7316  2.3466 -0.2639
   67bbb    H14 2001   2.786   3.422   6.150  1.2330  1.5087 -0.8907
   67bbb     C8 2002   2.304   3.288   6.742  0.0064  0.1456 -0.0249
   67bbb    H15 2003   2.351   3.189   6.735 -1.7284 -0.7114 -0.2683
   67bbb    H16 2004   2.371   3.355   6.796 -1.1618  1.1749  0.1921
   67bbb     C9 2005   2.292   3.088   6.196 -0.0063 -0.2354 -0.2272
   67bbb    H17 2006   2.191   3.105   6.236 -0.7192  0.7261 -2.3127
   67bbb    H18 2007   2.306   2.981   6.215 -1.0845 -0.2330  0.6970
   67bbb     O1 2008   2.811   3.592   6.258 -0.4633 -0.1356  0.1347
   67bbb    H19 2009   2.375   3.493   6.397 -0.5796 -1.0540  0.1420
   68bbb     N1 2010   2.284   4.555   6.518  0.4803 -0.8200 -0.0184
   68bbb     C1 2011   2.353   4.676   6.580  0.1191 -0.1052 -0.2825
   68bbb     H1 2012   2.421   4.730   6.515 -0.3014 -1.9207 -2.3710
   68bbb     H2 2013   2.415   4.633   6.659  1.3814 -0.5161 -1.4561
   68bbb     C2 2014   2.178   4.608   6.421 -0.1754 -0.7148 -0.1990
   68bbb     H3 2015   2.234   4.652   6.339 -2.1155  0.8557 -0.7385
   68bbb     H4 2016   2.117   4.682   6.472  1.1278 -0.1095  0.5306
   68bbb     C3 2017   2.395   4.482   6.439  0.1093  0.0882  0.7723
   68bbb     H5 2018   2.418   4.548   6.355 -0.8511 -0.8375 -0.2556
   68bbb     H6 2019   2.344   4.393   6.403 -0.1217  1.4314 -2.5389
   68bbb     C4 2020   2.528   4.442   6.515  0.5850 -1.0988 -0.0325
   68bbb     H7 2021   2.510   4.386   6.608 -0.0483  0.1023  0.5957
   68bbb     H8 2022   2.574   4.535   6.550 -0.2179 -1.1958  1.3481
   68bbb     C5 2023   2.265   4.779   6.650  0.3996 -0.3491 -0.6028
   68bbb     H9 2024   2.212   4.724   6.729 -2.0604  0.0578 -1.8797
   68bbb    H10 2025   2.191   4.826   6.584 -0.6097 -0.8391  0.1552
   68bbb     C6 2026   2.086   4.493   6.364 -0.4278 -0.0232 -0.0801
   68bbb    H11 2027   2.022   4.466   6.449  1.7378  1.4527  2.1779
   68bbb    H12 2028   2.144   4.409   6.325 -1.4970 -1.5799  1.5233
   68bbb     C7 2029   2.628   4.360   6.424 -0.0870  0.3607 -0.6677
   68bbb    H13 2030   2.726   4.349   6.473  0.7175 -1.5046 -2.5360
   68bbb    H14 2031   2.636   4.418   6.331  2.2008  0.1608 -0.6526
   68bbb     C8 2032   2.011   4.536   6.244  0.1021 -0.8506  0.4723
   68bbb    H15 2033   2.070   4.601   6.179 -0.4258 -0.4982  0.3377
   68bbb    H16 2034   2.005   4.445   6.183  0.7599 -1.0057  0.6402
   68bbb     C9 2035   2.349   4.891   6.709  0.0662  0.1093  0.1253
   68bbb    H17 2036   2.393   4.956   6.632  0.3697  0.0280  0.2307
   68bbb    H18 2037   2.430   4.847   6.768  1.2805  0.6946 -1.0402
   68bbb     O1 2038   2.584   4.224   6.396 -0.1148  0.9360 -0.3101
   68bbb    H19 2039   2.243   4.506   6.599 -1.0103 -0.3342 -0.4474
   69bbb     N1 2040   4.717   3.183   6.849  0.2763  0.3437 -0.0293
   69bbb     C1 2041   4.747   3.318   6.920  0.0002 -0.0241  0.0959
   69bbb     H1 2042   4.847   3.321   6.962 -0.0813  3.3634  0.3249
   69bbb     H2 2043   4.672   3.322   7.000 -1.3176  0.8237 -1.1221
   69bbb     C2 2044   4.844   3.120   6.794  0.3564  0.7901  0.2219
   69bbb     H3 2045   4.857   3.169   6.697 -0.7803 -0.1405 -0.4174
   69bbb     H4 2046   4.825   3.017   6.766  0.1207  0.7603  0.4886
   69bbb     C3 2047   4.659   3.095   6.954 -0.2829  0.5147  0.2506
   69bbb     H5 2048   4.708   3.111   7.050 -1.2138 -3.2783  1.5365
   69bbb     H6 2049   4.677   2.994   6.917 -0.0181  0.7954 -0.4090
   69bbb     C4 2050   4.507   3.119   6.971 -0.1489  0.1610 -0.3470
   69bbb     H7 2051   4.446   3.037   6.932 -1.1193  0.8322 -0.2668
   69bbb     H8 2052   4.472   3.211   6.923 -0.3519 -0.1927 -0.8803
   69bbb     C5 2053   4.747   3.436   6.823  0.0406 -0.2997 -0.4308
   69bbb     H9 2054   4.836   3.430   6.759  1.1026  1.7725  0.7456
   69bbb    H10 2055   4.770   3.528   6.877 -1.0448  1.8753 -3.4246
   69bbb     C6 2056   4.977   3.125   6.873  0.1551 -0.1055  0.8410
   69bbb    H11 2057   4.967   3.057   6.959  0.3316 -0.5721  0.4982
   69bbb    H12 2058   5.000   3.228   6.902 -2.8432  0.6992  0.6822
   69bbb     C7 2059   4.469   3.140   7.124  0.0610  0.4087 -0.3817
   69bbb    H13 2060   4.540   3.211   7.166  0.3034  0.9129 -1.6023
   69bbb    H14 2061   4.470   3.042   7.173  0.6061 -0.1652 -1.4947
   69bbb     C8 2062   5.097   3.070   6.801 -0.0753 -0.0951 -0.2627
   69bbb    H15 2063   5.144   3.152   6.746 -2.6383  1.6795  0.0194
   69bbb    H16 2064   5.166   3.029   6.876 -1.6868 -1.4995  0.5301
   69bbb     C9 2065   4.613   3.466   6.751  0.1565 -0.5077  0.6899
   69bbb    H17 2066   4.628   3.545   6.676  0.1043  0.9722  2.1969
   69bbb    H18 2067   4.540   3.510   6.820 -1.6353 -0.9903 -0.8088
   69bbb     O1 2068   4.334   3.195   7.134  0.2238  0.4816  0.1371
   69bbb    H19 2069   4.644   3.190   6.776  0.9906  1.5477 -0.6621
   70bbb     N1 2070   3.672   2.448   7.198  0.4174 -0.3402 -0.0087
   70bbb     C1 2071   3.713   2.372   7.076 -0.3820 -0.3439 -0.3530
   70bbb     H1 2072   3.822   2.376   7.065 -0.2620  0.2629  0.9022
   70bbb     H2 2073   3.660   2.417   6.992 -1.6562 -0.0712  0.5671
   70bbb     C2 2074   3.769   2.417   7.313  0.1300 -0.0240 -0.3552
   70bbb     H3 2075   3.866   2.455   7.283  0.7421 -0.7891  0.5876
   70bbb     H4 2076   3.771   2.308   7.325 -2.0608 -0.0221  0.5868
   70bbb     C3 2077   3.676   2.600   7.173 -0.0898 -0.1032  0.1503
   70bbb     H5 2078   3.752   2.611   7.097  0.9304  0.3785  1.2118
   70bbb     H6 2079   3.718   2.649   7.261  0.8668  0.9087 -0.8487
   70bbb     C4 2080   3.533   2.648   7.126 -1.2111 -0.0400 -0.5602
   70bbb     H7 2081   3.461   2.654   7.208  0.1322  2.3161  0.5612
   70bbb     H8 2082   3.505   2.574   7.051 -1.0942  0.4799 -1.1315
   70bbb     C5 2083   3.659   2.233   7.074  0.2452 -0.5341 -0.0131
   70bbb     H9 2084   3.552   2.250   7.058  0.2767 -0.5550 -0.2645
   70bbb    H10 2085   3.666   2.180   7.169 -2.2301 -0.1646  0.4406
   70bbb     C6 2086   3.727   2.473   7.450 -0.0868 -0.8682 -0.0289
   70bbb    H11 2087   3.626   2.442   7.479 -0.7317  1.3245  0.3095
   70bbb    H12 2088   3.711   2.582   7.443 -0.3663 -0.9996 -2.2682
   70bbb     C7 2089   3.542   2.778   7.048 -0.3059  0.0424 -1.0544
   70bbb    H13 2090   3.448   2.800   6.997  0.1028  2.3859 -0.9160
   70bbb    H14 2091   3.612   2.771   6.963  1.1886 -1.9104  0.2412
   70bbb     C8 2092   3.825   2.427   7.555  0.0136 -0.8108  0.1566
   70bbb    H15 2093   3.848   2.321   7.538  1.0240 -0.3142 -1.7472
   70bbb    H16 2094   3.920   2.482   7.550 -0.4494  0.1735  1.4673
   70bbb     C9 2095   3.728   2.161   6.957  0.3128 -0.2880  0.1412
   70bbb    H17 2096   3.730   2.233   6.874  0.0243 -0.8060 -0.3253
   70bbb    H18 2097   3.666   2.075   6.928  2.1321 -0.4586 -3.9105
   70bbb     O1 2098   3.585   2.883   7.132 -0.3698 -0.0323  0.0527
   70bbb    H19 2099   3.583   2.408   7.231 -0.7338  0.4049 -2.0533
   71bbb     N1 2100   6.630   6.428   6.536  0.7321  0.0252  0.1428
   71bbb     C1 2101   6.639   6.570   6.591 -0.8227  0.3197 -0.8272
   71bbb     H1 2102   6.744   6.596   6.576 -0.9585  0.2606 -2.0288
   71bbb     H2 2103   6.617   6.571   6.698  0.7782 -1.1244 -0.4311
   71bbb     C2 2104   6.694   6.425   6.399 -1.0636 -0.1077 -0.5124
   71bbb     H3 2105   6.801   6.405   6.410 -1.2622 -1.2512 -0.4756
   71bbb     H4 2106   6.677   6.527   6.366 -1.7876  0.9895  2.8087
   71bbb     C3 2107   6.693   6.326   6.634  0.1900 -0.6549  0.2704
   71bbb     H5 2108   6.796   6.353   6.658  0.5010 -1.7714  0.2479
   71bbb     H6 2109   6.700   6.227   6.588 -1.4383 -0.9608  0.6444
   71bbb     C4 2110   6.618   6.320   6.771  0.6444  0.4645 -0.5681
   71bbb     H7 2111   6.512   6.310   6.746  0.6258 -0.0105 -0.2990
   71bbb     H8 2112   6.631   6.412   6.830 -0.5448 -0.6909  1.6229
   71bbb     C5 2113   6.555   6.683   6.523 -0.0382 -0.6022  0.2650
   71bbb     H9 2114   6.447   6.666   6.528  0.1220 -1.5267  0.7706
   71bbb    H10 2115   6.569   6.676   6.414 -1.2012 -1.0287  0.1239
   71bbb     C6 2116   6.606   6.325   6.316  0.0770 -0.8095  0.6286
   71bbb    H11 2117   6.518   6.378   6.279 -0.5484 -2.1394  0.1522
   71bbb    H12 2118   6.571   6.239   6.375 -1.8410 -0.0380  0.6841
   71bbb     C7 2119   6.654   6.201   6.864 -0.4224 -0.0220  0.3832
   71bbb    H13 2120   6.763   6.204   6.856 -0.4794 -1.2574 -1.4256
   71bbb    H14 2121   6.618   6.102   6.832 -0.8255  0.5359 -0.9521
   71bbb     C8 2122   6.683   6.272   6.188  0.4429 -0.2801  0.0412
   71bbb    H15 2123   6.778   6.231   6.224 -1.0575 -1.9664  2.4252
   71bbb    H16 2124   6.617   6.196   6.143 -1.0420  0.0496  1.5256
   71bbb     C9 2125   6.597   6.832   6.550 -0.3677  0.3286  0.5299
   71bbb    H17 2126   6.567   6.856   6.652  0.2015  2.0240  0.3333
   71bbb    H18 2127   6.536   6.893   6.483  0.3770  2.1620  1.4681
   71bbb     O1 2128   6.616   6.236   7.002 -0.6861 -0.8543  0.1181
   71bbb    H19 2129   6.532   6.406   6.514  0.6969  0.5134 -0.1750
   72bbb     N1 2130   6.760   6.748   7.794 -0.3721  0.1252 -0.1913
   72bbb     C1 2131   6.853   6.862   7.830 -0.4941  0.6097 -0.6821
   72bbb     H1 2132   6.893   6.842   7.930 -3.5072  1.8177  0.8855
   72bbb     H2 2133   6.792   6.952   7.845 -0.0197  0.6750  1.0606
   72bbb     C2 2134   6.644   6.731   7.897  0.1143  0.4378 -0.0356
   72bbb     H3 2135   6.611   6.630   7.872  1.3974  0.3311 -1.4520
   72bbb     H4 2136   6.564   6.801   7.870 -0.6983  0.1592  1.5534
   72bbb     C3 2137   6.695   6.777   7.657  0.3414  0.0898  0.5631
   72bbb     H5 2138   6.772   6.799   7.582 -0.0747  0.9337  0.3684
   72bbb     H6 2139   6.632   6.865   7.672 -1.6331 -1.1687  0.1060
   72bbb     C4 2140   6.618   6.652   7.602 -0.5038  0.0208  0.7367
   72bbb     H7 2141   6.566   6.607   7.688  2.0945  0.3504  2.6130
   72bbb     H8 2142   6.692   6.579   7.568  2.0835  2.1649  1.4465
   72bbb     C5 2143   6.960   6.896   7.723  0.3239 -0.6104 -0.5642
   72bbb     H9 2144   6.921   6.944   7.632 -1.1523  0.6545  0.6807
   72bbb    H10 2145   7.007   6.804   7.687  1.0470 -0.2726 -0.5196
   72bbb     C6 2146   6.691   6.726   8.048  0.2476  0.2582  0.3907
   72bbb    H11 2147   6.596   6.725   8.102 -1.1536 -2.2883 -1.8799
   72bbb    H12 2148   6.736   6.821   8.081 -2.1031  2.6782 -2.6167
   72bbb     C7 2149   6.514   6.688   7.490 -0.0501  0.9394  0.1045
   72bbb    H13 2150   6.560   6.747   7.409  0.8339 -1.1347 -0.9853
   72bbb    H14 2151   6.443   6.763   7.528 -1.0596  0.6628 -1.1515
   72bbb     C8 2152   6.763   6.597   8.074  0.2971  0.2241  0.0985
   72bbb    H15 2153   6.740   6.566   8.177 -1.4485  1.9789  0.2857
   72bbb    H16 2154   6.723   6.520   8.008 -1.4429  0.5036  0.7659
   72bbb     C9 2155   7.063   6.992   7.782  0.3441 -0.4044  0.1784
   72bbb    H17 2156   7.155   6.995   7.723 -1.0549 -0.2183 -2.0995
   72bbb    H18 2157   7.093   6.954   7.881  0.3971 -1.3225 -0.1774
   72bbb     O1 2158   6.447   6.566   7.444  0.1400  0.8411  0.4569
   72bbb    H19 2159   6.820   6.665   7.798  0.4504  0.7368  1.0626
   73bbb     N1 2160   6.541   5.211   8.142  0.1803 -0.0642  0.2018
   73bbb     C1 2161   6.457   5.129   8.243  0.8881 -0.1710 -0.3501
   73bbb     H1 2162   6.483   5.023   8.239 -0.5756 -0.5328 -1.1773
   73bbb     H2 2163   6.354   5.136   8.208  0.8980 -0.9052 -0.5384
   73bbb     C2 2164   6.685   5.166   8.156  0.1545 -0.0950  0.0448
   73bbb     H3 2165   6.700   5.063   8.124 -0.5672 -0.1768 -0.0389
   73bbb     H4 2166   6.719   5.167   8.260 -0.8878  1.3441  0.4116
   73bbb     C3 2167   6.491   5.188   8.001 -0.0250  0.1044  0.1406
   73bbb     H5 2168   6.563   5.234   7.933 -1.0823  0.1040 -1.0259
   73bbb     H6 2169   6.397   5.238   7.976  0.1302 -0.1410 -0.9592
   73bbb     C4 2170   6.472   5.047   7.956  0.2048  0.7550  0.4869
   73bbb     H7 2171   6.404   4.992   8.022 -0.5591  0.8048 -0.2299
   73bbb     H8 2172   6.562   4.984   7.957 -0.6586 -0.6851 -1.8439
   73bbb     C5 2173   6.470   5.187   8.387  0.1096 -0.0965 -0.7378
   73bbb     H9 2174   6.476   5.296   8.383 -0.0810 -0.0627 -0.2239
   73bbb    H10 2175   6.568   5.157   8.427  2.5965  5.7315 -1.4288
   73bbb     C6 2176   6.784   5.259   8.081 -0.2404 -0.2085 -0.2002
   73bbb    H11 2177   6.784   5.361   8.121 -0.3850  1.0202 -3.1131
   73bbb    H12 2178   6.755   5.260   7.975  0.7500 -0.1026 -0.4799
   73bbb     C7 2179   6.411   5.038   7.816 -0.2348 -0.0295  0.2448
   73bbb    H13 2180   6.309   5.076   7.809 -1.2809 -2.6053  0.3715
   73bbb    H14 2181   6.388   4.935   7.787 -4.7196  0.1500  2.3089
   73bbb     C8 2182   6.919   5.186   8.097  0.3436  0.4991  0.6596
   73bbb    H15 2183   6.909   5.080   8.069  3.7654  0.0996  0.5275
   73bbb    H16 2184   6.986   5.240   8.029 -0.1871  0.4462  0.0880
   73bbb     C9 2185   6.350   5.159   8.475 -0.0944  0.6106 -0.6931
   73bbb    H17 2186   6.315   5.057   8.457 -0.8179  0.9412 -1.2092
   73bbb    H18 2187   6.262   5.219   8.446 -1.7286 -2.2425 -2.0764
   73bbb     O1 2188   6.491   5.116   7.721 -0.1916 -0.4667 -0.6478
   73bbb    H19 2189   6.536   5.310   8.170 -0.0237  0.1059 -0.4094
   74bbb     N1 2190   6.864   5.029   6.886  0.0401 -0.1395 -0.4408
   74bbb     C1 2191   6.890   5.175   6.914  0.3631 -0.5033  0.4515
   74bbb     H1 2192   6.988   5.182   6.961 -1.0440  0.9972  3.4390
   74bbb     H2 2193   6.813   5.208   6.983  2.1027 -0.0778  2.2925
   74bbb     C2 2194   6.928   4.937   6.993  0.2893 -0.7768  0.0352
   74bbb     H3 2195   6.897   4.835   6.968  0.9797 -0.7137 -1.1047
   74bbb     H4 2196   6.885   4.958   7.092 -0.0945 -1.2475 -0.0251
   74bbb     C3 2197   6.709   5.005   6.875 -0.4188 -0.1345 -0.3518
   74bbb     H5 2198   6.671   5.062   6.790  0.8407 -1.1994 -1.6686
   74bbb     H6 2199   6.653   5.053   6.956 -0.0235 -0.2772  0.0080
   74bbb     C4 2200   6.660   4.859   6.856 -0.3513 -0.0953 -0.4240
   74bbb     H7 2201   6.694   4.796   6.939 -1.2484  0.5632  0.4542
   74bbb     H8 2202   6.717   4.820   6.770  1.3595 -0.3439  0.7599
   74bbb     C5 2203   6.890   5.268   6.793  0.6742 -0.0372  0.2427
   74bbb     H9 2204   6.795   5.275   6.739  0.0471  1.3450  1.4753
   74bbb    H10 2205   6.971   5.250   6.720  1.0018  0.9647  0.3310
   74bbb     C6 2206   7.076   4.936   7.000 -0.0313  0.4062 -0.1643
   74bbb    H11 2207   7.113   5.038   7.014 -1.9265  0.8413  2.2263
   74bbb    H12 2208   7.100   4.908   6.896  0.2107  1.4049 -0.3844
   74bbb     C7 2209   6.508   4.834   6.842  0.4445 -0.5147 -0.4400
   74bbb    H13 2210   6.475   4.730   6.826 -0.0863 -0.3915 -0.1967
   74bbb    H14 2211   6.466   4.900   6.766  0.9502  1.0297  0.5714
   74bbb     C8 2212   7.122   4.829   7.106 -0.0865 -1.1697 -0.4492
   74bbb    H15 2213   7.231   4.821   7.099 -0.2451 -2.7570 -1.4840
   74bbb    H16 2214   7.098   4.868   7.206 -1.1071 -0.5177 -0.9355
   74bbb     C9 2215   6.925   5.411   6.840 -0.6838 -0.9105 -0.4321
   74bbb    H17 2216   6.875   5.431   6.936 -0.2548 -3.7520  0.4788
   74bbb    H18 2217   6.884   5.488   6.774  0.7407  0.1691 -0.0807
   74bbb     O1 2218   6.445   4.872   6.969 -0.2695  0.2439 -0.1370
   74bbb    H19 2219   6.915   5.003   6.800  2.3932 -0.5651  1.0075
   75bbb     N1 2220   4.430   7.317   5.697 -0.1613 -0.3522 -0.7147
   75bbb     C1 2221   4.442   7.453   5.633 -0.2113 -0.2898  0.3386
   75bbb     H1 2222   4.491   7.443   5.537  0.0469 -0.3358  0.4733
   75bbb     H2 2223   4.503   7.510   5.704 -2.4215 -2.4615  4.3075
   75bbb     C2 2224   4.374   7.223   5.588  0.5896  0.7423 -0.0578
   75bbb     H3 2225   4.445   7.189   5.512 -1.7871 -1.9383 -1.2797
   75bbb     H4 2226   4.307   7.282   5.526  1.5518 -0.0680 -1.9511
   75bbb     C3 2227   4.564   7.256   5.733  0.8025  0.1405  0.6390
   75bbb     H5 2228   4.633   7.340   5.735 -0.2499  1.0157  2.0179
   75bbb     H6 2229   4.586   7.179   5.658  0.0891 -1.4420  1.9827
   75bbb     C4 2230   4.569   7.197   5.870 -0.3262  0.0732 -0.1096
   75bbb     H7 2231   4.491   7.120   5.871  0.5115 -0.8307  2.2682
   75bbb     H8 2232   4.536   7.270   5.946 -1.2487  0.1212 -0.5432
   75bbb     C5 2233   4.312   7.526   5.599  0.1852 -0.6668 -0.0341
   75bbb     H9 2234   4.265   7.562   5.691 -0.9562  2.1040 -1.5553
   75bbb    H10 2235   4.241   7.461   5.547  1.5932 -2.0773 -0.2692
   75bbb     C6 2236   4.291   7.103   5.641  0.8281 -0.9051  0.8489
   75bbb    H11 2237   4.200   7.142   5.688 -0.3342  1.0586 -2.5975
   75bbb    H12 2238   4.351   7.039   5.707  1.2127  0.8706  2.2742
   75bbb     C7 2239   4.711   7.134   5.903 -0.9193 -0.1072 -0.0207
   75bbb    H13 2240   4.787   7.210   5.920 -1.1835  0.4076 -1.0571
   75bbb    H14 2241   4.755   7.073   5.823 -0.3862  1.6093 -1.0920
   75bbb     C8 2242   4.236   7.019   5.529  0.1031 -0.0987  0.2615
   75bbb    H15 2243   4.317   6.995   5.459 -1.0063  0.7213 -1.3696
   75bbb    H16 2244   4.220   6.923   5.580  2.0197 -0.6669 -0.1236
   75bbb     C9 2245   4.341   7.646   5.509  0.1275  0.2873 -0.5535
   75bbb    H17 2246   4.385   7.615   5.413  0.2284  2.1222 -1.1401
   75bbb    H18 2247   4.407   7.710   5.569 -0.1464 -0.8588  1.0624
   75bbb     O1 2248   4.698   7.047   6.017  0.2410  0.0408 -0.3637
   75bbb    H19 2249   4.367   7.319   5.779 -0.0071  0.8473 -0.6104
   76bbb     N1 2250   4.905   6.364   5.595  0.2670  0.2341  0.1185
   76bbb     C1 2251   4.865   6.236   5.521  0.1158 -0.4527  0.2576
   76bbb     H1 2252   4.767   6.236   5.473  0.7588 -1.3753 -1.1102
   76bbb     H2 2253   4.861   6.155   5.594 -0.9513 -0.3787  0.3054
   76bbb     C2 2254   4.878   6.483   5.505  0.1031 -0.2024  0.4192
   76bbb     H3 2255   4.958   6.472   5.431 -1.0364 -1.3361 -0.6867
   76bbb     H4 2256   4.898   6.573   5.563  2.0671  0.5073 -1.2031
   76bbb     C3 2257   4.817   6.386   5.716  0.3444  0.4169 -0.0618
   76bbb     H5 2258   4.712   6.384   5.689  0.2365 -0.6300  0.3742
   76bbb     H6 2259   4.825   6.491   5.743 -1.1022  0.9645 -1.5796
   76bbb     C4 2260   4.854   6.302   5.837  0.0870 -0.3798  0.2283
   76bbb     H7 2261   4.952   6.328   5.880 -0.3406 -1.0564  1.6880
   76bbb     H8 2262   4.859   6.193   5.824 -0.0663 -0.5513  1.4572
   76bbb     C5 2263   4.956   6.192   5.407 -0.7364  0.2799 -0.2456
   76bbb     H9 2264   5.052   6.160   5.449 -0.6764  0.1786 -0.4578
   76bbb    H10 2265   4.974   6.276   5.339 -1.1066 -0.3057 -1.0833
   76bbb     C6 2266   4.752   6.494   5.421 -0.3377 -0.3786 -0.0271
   76bbb    H11 2267   4.665   6.472   5.484  0.6704  2.1052  2.4122
   76bbb    H12 2268   4.751   6.432   5.330 -3.3270 -0.1335 -0.2879
   76bbb     C7 2269   4.743   6.312   5.946 -0.4614  0.3877  0.9903
   76bbb    H13 2270   4.773   6.252   6.033 -1.4506  0.9836  1.7700
   76bbb    H14 2271   4.655   6.276   5.891 -0.9527  3.2119 -0.2470
   76bbb     C8 2272   4.725   6.641   5.381 -0.2301 -0.0007 -0.6248
   76bbb    H15 2273   4.622   6.645   5.344 -1.6766  0.1827  2.9567
   76bbb    H16 2274   4.726   6.708   5.468 -0.0778  1.4278 -1.6929
   76bbb     C9 2275   4.901   6.086   5.309 -0.0018 -0.3756  0.6379
   76bbb    H17 2276   4.812   6.127   5.258  0.8091  0.9357  0.2325
   76bbb    H18 2277   4.860   6.001   5.365 -1.4539  0.2226  0.5400
   76bbb     O1 2278   4.709   6.446   5.985 -0.0784 -0.0379 -0.1929
   76bbb    H19 2279   5.005   6.362   5.621  0.1333 -2.0775  0.7383
   77bbb     N1 2280   4.228   7.110   7.138 -0.3795  0.2277 -0.7724
   77bbb     C1 2281   4.273   7.061   7.281  0.4310  0.4730 -0.2937
   77bbb     H1 2282   4.181   7.018   7.321  0.7582 -2.0822 -2.0254
   77bbb     H2 2283   4.309   7.145   7.340 -1.1157  0.1774  1.1514
   77bbb     C2 2284   4.096   7.179   7.160 -0.1314  0.6589 -0.5805
   77bbb     H3 2285   4.112   7.261   7.230 -1.0288  1.4280 -1.2496
   77bbb     H4 2286   4.025   7.105   7.196 -0.1342  0.3866 -1.1406
   77bbb     C3 2287   4.327   7.210   7.087 -0.8146 -0.7292 -0.2119
   77bbb     H5 2288   4.418   7.174   7.133 -0.4245 -1.3907 -1.4762
   77bbb     H6 2289   4.299   7.312   7.117 -2.3322 -0.8983 -0.9406
   77bbb     C4 2290   4.363   7.215   6.939 -0.6137 -0.4032 -0.6283
   77bbb     H7 2291   4.453   7.278   6.936 -1.1865  0.4240 -1.1159
   77bbb     H8 2292   4.298   7.271   6.871  1.2271 -0.3592 -2.4641
   77bbb     C5 2293   4.374   6.948   7.275 -0.3936  0.6682  0.8995
   77bbb     H9 2294   4.431   6.948   7.368  0.5713 -0.2008  0.3304
   77bbb    H10 2295   4.442   6.954   7.189 -2.1714 -0.3982 -0.6680
   77bbb     C6 2296   4.025   7.227   7.033  0.0372 -0.1057  0.5325
   77bbb    H11 2297   3.941   7.159   7.013 -0.5455  0.4698  1.0221
   77bbb    H12 2298   4.089   7.230   6.943 -1.4335 -0.0557 -0.5469
   77bbb     C7 2299   4.398   7.073   6.876 -0.6080  0.3239  0.2756
   77bbb    H13 2300   4.422   7.087   6.770  0.7147  0.7008  0.6155
   77bbb    H14 2301   4.317   6.999   6.879  1.1566 -1.8282 -1.6046
   77bbb     C8 2302   3.983   7.371   7.036  0.3351  0.7053 -0.0296
   77bbb    H15 2303   4.071   7.435   7.025  1.7101 -0.9325  1.0115
   77bbb    H16 2304   3.928   7.397   6.945  0.4047 -1.7064 -0.8232
   77bbb     C9 2305   4.298   6.810   7.261  0.1582 -0.7110 -0.1937
   77bbb    H17 2306   4.247   6.811   7.164 -1.0862  0.0560  0.4535
   77bbb    H18 2307   4.228   6.799   7.345 -1.5560  1.1010 -1.3100
   77bbb     O1 2308   4.517   7.017   6.938  0.5108 -0.0908 -0.3525
   77bbb    H19 2309   4.216   7.028   7.076 -1.1575 -0.2323 -0.0436
   78bbb     N1 2310   4.935   7.619   7.100  0.3012  0.6049  0.0052
   78bbb     C1 2311   4.828   7.710   7.165 -0.4457  0.0547  0.1550
   78bbb     H1 2312   4.875   7.744   7.258 -0.5977  1.3675 -0.2342
   78bbb     H2 2313   4.752   7.637   7.194  0.0620 -0.6178 -0.1884
   78bbb     C2 2314   5.062   7.703   7.060  0.0903  0.1466 -0.0711
   78bbb     H3 2315   5.134   7.686   7.139 -0.0992  2.6539  0.7419
   78bbb     H4 2316   5.024   7.806   7.058 -0.5156 -0.0782 -0.2803
   78bbb     C3 2317   4.968   7.511   7.201 -0.0145  0.1875  0.4620
   78bbb     H5 2318   4.871   7.483   7.242 -1.4301  0.8812 -2.1733
   78bbb     H6 2319   5.021   7.562   7.282 -2.5246  0.0308  2.3418
   78bbb     C4 2320   5.052   7.393   7.147 -0.5244 -0.4480  0.2796
   78bbb     H7 2321   5.156   7.425   7.133 -0.6064 -0.1708  0.2963
   78bbb     H8 2322   5.007   7.350   7.057  1.1209  0.1666 -0.8728
   78bbb     C5 2323   4.771   7.829   7.086  0.3077 -0.7382  0.4894
   78bbb     H9 2324   4.757   7.786   6.986  2.1906  0.5347 -0.3979
   78bbb    H10 2325   4.846   7.903   7.053  0.1963 -1.2371 -0.9498
   78bbb     C6 2326   5.131   7.668   6.924  0.2221 -0.2587 -0.3783
   78bbb    H11 2327   5.174   7.567   6.928 -0.2173 -0.4163  0.8255
   78bbb    H12 2328   5.221   7.730   6.930  0.6184 -0.9123  1.0729
   78bbb     C7 2329   5.074   7.284   7.256 -0.0289 -0.2537 -0.0399
   78bbb    H13 2330   5.080   7.321   7.359 -0.2425  1.1564 -0.5174
   78bbb    H14 2331   5.171   7.235   7.245  1.0191  1.1279  2.3936
   78bbb     C8 2332   5.035   7.695   6.808  1.0717 -0.0321  0.4277
   78bbb    H15 2333   5.086   7.664   6.716  1.2105  0.9592  0.1569
   78bbb    H16 2334   4.944   7.636   6.823  0.4869  0.0651 -2.1828
   78bbb     C9 2335   4.637   7.881   7.139 -0.5313 -0.2526  0.3861
   78bbb    H17 2336   4.570   7.794   7.134  0.5413 -1.0620 -0.4569
   78bbb    H18 2337   4.596   7.960   7.075  1.2019  0.4586  0.0828
   78bbb     O1 2338   4.964   7.189   7.250 -1.0322  0.6474 -0.6854
   78bbb    H19 2339   4.899   7.578   7.013  1.0398 -0.7961  0.3175
   79bbb     N1 2340   4.478   0.675   5.108  0.2841 -0.1338 -0.7378
   79bbb     C1 2341   4.406   0.541   5.108 -0.0343  0.0468 -0.2791
   79bbb     H1 2342   4.298   0.561   5.108  0.2531  1.8058 -0.9559
   79bbb     H2 2343   4.426   0.486   5.200 -1.2475 -0.1892 -0.1357
   79bbb     C2 2344   4.622   0.662   5.108 -0.4286 -0.0404 -0.8073
   79bbb     H3 2345   4.655   0.761   5.075 -1.5977  0.2204 -1.2584
   79bbb     H4 2346   4.648   0.588   5.032 -0.1337  1.5064 -2.2667
   79bbb     C3 2347   4.441   0.769   4.992 -0.1616 -0.4359  0.0344
   79bbb     H5 2348   4.332   0.765   4.997 -0.0993 -0.8393  3.3426
   79bbb     H6 2349   4.472   0.736   4.893  0.6640  2.3993 -0.7279
   79bbb     C4 2350   4.474   0.920   5.000  0.1436  0.2497 -0.6349
   79bbb     H7 2351   4.563   0.929   5.063  0.6451 -1.1809 -1.1103
   79bbb     H8 2352   4.389   0.965   5.054  1.9923 -0.1333  2.8364
   79bbb     C5 2353   4.447   0.446   4.986 -0.2877 -0.2142  0.1669
   79bbb     H9 2354   4.535   0.388   5.016 -1.4289 -2.0884  0.0057
   79bbb    H10 2355   4.483   0.506   4.902  0.0807  0.7393  0.9779
   79bbb     C6 2356   4.684   0.621   5.240 -0.2689  0.5736 -0.4588
   79bbb    H11 2357   4.619   0.543   5.281  2.2156 -0.9851  0.7147
   79bbb    H12 2358   4.686   0.695   5.321 -1.3702 -0.7208  0.7816
   79bbb     C7 2359   4.503   1.005   4.876  0.4207 -0.3137  0.0420
   79bbb    H13 2360   4.518   1.111   4.904 -0.5722 -0.1745  0.0859
   79bbb    H14 2361   4.416   0.997   4.810 -0.9364  2.0730  1.3533
   79bbb     C8 2362   4.825   0.564   5.212 -0.4433 -0.3428 -0.5929
   79bbb    H15 2363   4.836   0.492   5.295 -2.6040  1.0886  1.0421
   79bbb    H16 2364   4.841   0.506   5.121  0.4953  0.0796 -0.7146
   79bbb     C9 2365   4.344   0.341   4.947  0.1279 -0.2036  0.7071
   79bbb    H17 2366   4.330   0.266   5.026 -0.3425 -1.9272 -0.9360
   79bbb    H18 2367   4.361   0.278   4.858  1.2520 -1.3728  1.6913
   79bbb     O1 2368   4.617   0.959   4.811 -0.3381 -0.2829  0.2084
   79bbb    H19 2369   4.457   0.734   5.190 -0.2258 -0.5818 -0.5395
   80bbb     N1 2370   4.782   1.016   4.066  0.0900 -0.3712  0.4532
   80bbb     C1 2371   4.639   0.957   4.056  0.7557  0.0936 -0.4994
   80bbb     H1 2372   4.561   1.028   4.026 -0.3245 -1.1366 -0.7083
   80bbb     H2 2373   4.614   0.928   4.158 -3.3594  3.5251 -0.2501
   80bbb     C2 2374   4.779   1.156   4.124  0.5419  0.3162  0.1513
   80bbb     H3 2375   4.861   1.161   4.195  0.3776  2.3012  0.2540
   80bbb     H4 2376   4.696   1.170   4.193  0.9132  1.2074  0.4165
   80bbb     C3 2377   4.874   0.931   4.146  0.5588  0.1452  0.0207
   80bbb     H5 2378   4.863   0.827   4.113 -1.4590  0.3376 -0.0213
   80bbb     H6 2379   4.846   0.925   4.251 -0.6019 -0.2925 -0.3017
   80bbb     C4 2380   5.028   0.962   4.147 -0.7189 -0.1284 -0.2196
   80bbb     H7 2381   5.038   1.053   4.207 -0.6538 -0.3940  0.1734
   80bbb     H8 2382   5.072   0.965   4.046 -0.9136  0.3353 -0.2920
   80bbb     C5 2383   4.632   0.832   3.974  0.0652 -0.1954 -0.7393
   80bbb     H9 2384   4.529   0.799   3.961 -0.1941  0.1390  0.3712
   80bbb    H10 2385   4.657   0.744   4.035 -4.7187 -0.9563  0.5365
   80bbb     C6 2386   4.791   1.276   4.028 -0.4670 -0.2607 -0.9450
   80bbb    H11 2387   4.887   1.282   3.976  0.1587 -1.3027  0.0546
   80bbb    H12 2388   4.787   1.358   4.100  0.9430 -1.2374  0.2941
   80bbb     C7 2389   5.087   0.838   4.222 -0.8472 -0.3883 -0.0803
   80bbb    H13 2390   5.195   0.848   4.241 -1.1171  3.7924  0.1638
   80bbb    H14 2391   5.081   0.746   4.163  0.3535 -0.4770 -0.1054
   80bbb     C8 2392   4.680   1.275   3.929  0.8358  0.0481 -0.2494
   80bbb    H15 2393   4.685   1.363   3.864  1.8600 -0.8883 -1.5040
   80bbb    H16 2394   4.684   1.184   3.868  2.3625 -0.3567  0.4002
   80bbb     C9 2395   4.704   0.833   3.840 -0.4637  0.3302 -0.1307
   80bbb    H17 2396   4.813   0.835   3.854 -0.5822  1.7849  0.7285
   80bbb    H18 2397   4.674   0.924   3.787  1.4214 -0.6039 -3.0479
   80bbb     O1 2398   5.030   0.820   4.359 -0.0722 -0.2616  0.2385
   80bbb    H19 2399   4.819   1.024   3.970 -0.8314  3.6346  0.2497
   81bbb     N1 2400   5.490   1.761   3.144 -1.0209 -0.0170  0.2833
   81bbb     C1 2401   5.343   1.736   3.179 -0.6849 -0.1250 -0.0281
   81bbb     H1 2402   5.286   1.799   3.110 -1.2568  2.2016  2.3829
   81bbb     H2 2403   5.329   1.784   3.276  1.4858  0.7230 -0.0836
   81bbb     C2 2404   5.518   1.911   3.140  0.3015 -0.5734 -0.3942
   81bbb     H3 2405   5.450   1.946   3.062  0.8233  2.2280  0.3157
   81bbb     H4 2406   5.617   1.917   3.095  0.6049 -2.7089 -0.1527
   81bbb     C3 2407   5.574   1.677   3.235  0.2156  0.1572 -1.0619
   81bbb     H5 2408   5.549   1.572   3.251  1.7359  0.0343  0.9344
   81bbb     H6 2409   5.556   1.728   3.330  0.5040  1.9318 -1.9114
   81bbb     C4 2410   5.729   1.673   3.223 -0.1465 -0.0296  0.2917
   81bbb     H7 2411   5.761   1.775   3.199  1.4965 -1.0706 -2.4129
   81bbb     H8 2412   5.763   1.613   3.138 -0.2927  0.5787 -0.2027
   81bbb     C5 2413   5.289   1.597   3.200  0.1155  0.2059 -0.4653
   81bbb     H9 2414   5.195   1.608   3.256 -0.2388 -2.1957 -0.4530
   81bbb    H10 2415   5.341   1.531   3.271 -1.2712  0.6369  1.0187
   81bbb     C6 2416   5.505   1.996   3.262 -0.3529 -0.8032  0.6213
   81bbb    H11 2417   5.594   1.992   3.326 -0.2456 -3.5297  0.4513
   81bbb    H12 2418   5.422   1.954   3.320 -0.2696 -2.2308 -0.2563
   81bbb     C7 2419   5.799   1.626   3.363 -0.3631 -0.0257 -0.0538
   81bbb    H13 2420   5.907   1.643   3.361 -0.3564  0.2906  1.5653
   81bbb    H14 2421   5.772   1.523   3.388 -1.6401  0.5908  1.3194
   81bbb     C8 2422   5.474   2.150   3.227  0.3395 -0.3088  0.2550
   81bbb    H15 2423   5.370   2.168   3.198  0.1281 -0.7607  0.7336
   81bbb    H16 2424   5.501   2.213   3.313  1.6020 -1.3233  0.6292
   81bbb     C9 2425   5.235   1.526   3.081  0.3946  0.4698  0.1790
   81bbb    H17 2426   5.200   1.427   3.110 -1.7111  1.0378 -0.2533
   81bbb    H18 2427   5.317   1.519   3.008  0.6503  1.7185  0.3143
   81bbb     O1 2428   5.739   1.705   3.472  0.1660  0.1851  0.4328
   81bbb    H19 2429   5.502   1.716   3.052  0.5254 -0.0117  0.4546
   82bbb     N1 2430   5.734   0.718   3.129 -0.1017 -0.1320 -0.1155
   82bbb     C1 2431   5.705   0.574   3.079  0.5855  0.3804  0.4252
   82bbb     H1 2432   5.707   0.576   2.970 -0.9758 -0.0974  0.3555
   82bbb     H2 2433   5.600   0.547   3.093  0.5395 -0.4764 -1.4242
   82bbb     C2 2434   5.713   0.815   3.019 -0.0849 -0.2539 -0.1715
   82bbb     H3 2435   5.789   0.793   2.944  0.9396 -0.4322  0.8806
   82bbb     H4 2436   5.735   0.918   3.048  0.2417 -0.5913  0.8103
   82bbb     C3 2437   5.662   0.754   3.258 -0.1698 -0.4935  0.5397
   82bbb     H5 2438   5.671   0.668   3.324 -1.4090  0.6997  2.3570
   82bbb     H6 2439   5.559   0.778   3.233 -0.3104  1.2914  2.5652
   82bbb     C4 2440   5.723   0.875   3.328  0.0773 -0.0643  0.1429
   82bbb     H7 2441   5.740   0.958   3.258  1.0358  0.9482  1.5233
   82bbb     H8 2442   5.827   0.854   3.357  1.1353  1.1635 -2.4030
   82bbb     C5 2443   5.810   0.468   3.104 -1.0458 -0.0392 -0.6662
   82bbb     H9 2444   5.788   0.433   3.206 -0.3485 -0.4718 -0.6517
   82bbb    H10 2445   5.911   0.512   3.098 -1.1415 -0.0255 -4.3036
   82bbb     C6 2446   5.578   0.812   2.958  0.3625 -0.1937  0.5913
   82bbb    H11 2447   5.503   0.822   3.038 -0.0359 -1.0441  0.3344
   82bbb    H12 2448   5.549   0.720   2.905  0.2013 -0.3553  0.9576
   82bbb     C7 2449   5.655   0.919   3.458  0.9257  0.0477  0.0938
   82bbb    H13 2450   5.658   0.843   3.538 -2.0301 -0.7871 -0.4873
   82bbb    H14 2451   5.549   0.938   3.439  1.0339 -0.3545 -0.9429
   82bbb     C8 2452   5.567   0.934   2.861 -0.0940 -0.0847  0.3144
   82bbb    H15 2453   5.462   0.939   2.831 -0.7803  1.1512  2.6714
   82bbb    H16 2454   5.592   1.025   2.918  1.1725 -0.4791  0.4222
   82bbb     C9 2455   5.810   0.358   2.994  0.3724 -0.0987 -0.6182
   82bbb    H17 2456   5.832   0.399   2.895  0.7179  1.2143 -0.0249
   82bbb    H18 2457   5.710   0.314   2.995  1.0620 -1.7586 -0.7147
   82bbb     O1 2458   5.702   1.045   3.496  0.0627  0.1649 -0.1865
   82bbb    H19 2459   5.837   0.719   3.141  0.3237  1.5849 -2.9620
   83bbb     N1 2460   2.968   2.713   3.715  0.1910  0.6899 -0.0563
   83bbb     C1 2461   3.057   2.796   3.632  0.0469 -0.7237  0.1978
   83bbb     H1 2462   3.059   2.751   3.532 -0.2716  0.5746 -0.4136
   83bbb     H2 2463   3.154   2.779   3.678 -0.5261 -1.7090  1.0933
   83bbb     C2 2464   2.906   2.603   3.636 -0.2013 -0.2700 -0.3244
   83bbb     H3 2465   2.853   2.539   3.706 -1.7386  0.4954 -0.7645
   83bbb     H4 2466   2.994   2.549   3.599 -0.2470 -0.7739  0.2752
   83bbb     C3 2467   3.053   2.655   3.826  0.6030 -0.2273 -0.4742
   83bbb     H5 2468   3.116   2.738   3.861 -2.3874  1.9803  0.0327
   83bbb     H6 2469   3.115   2.575   3.787 -0.6365 -2.5155  1.9507
   83bbb     C4 2470   2.979   2.599   3.944 -0.4296  0.7053 -0.2369
   83bbb     H7 2471   2.959   2.491   3.934  0.2828  0.6864 -1.8933
   83bbb     H8 2472   2.881   2.647   3.947 -0.7855 -0.0250  0.2551
   83bbb     C5 2473   3.020   2.951   3.639  0.3429 -0.6250 -0.3309
   83bbb     H9 2474   3.085   3.011   3.575 -0.9386  0.0604 -1.0207
   83bbb    H10 2475   3.037   2.994   3.739 -1.4254  0.0318 -0.2656
   83bbb     C6 2476   2.822   2.648   3.511 -0.2475  0.2580 -0.2950
   83bbb    H11 2477   2.889   2.704   3.445 -2.0061  0.8702 -1.6260
   83bbb    H12 2478   2.745   2.719   3.544 -1.3013 -0.6338 -0.7600
   83bbb     C7 2479   3.061   2.627   4.080  0.1151  0.4754  0.0140
   83bbb    H13 2480   2.987   2.648   4.158  0.5652  1.7254  0.1180
   83bbb    H14 2481   3.118   2.720   4.068  2.6740 -0.6499  2.3003
   83bbb     C8 2482   2.770   2.524   3.426  0.1920 -0.0208  0.0451
   83bbb    H15 2483   2.744   2.573   3.332 -0.9032  2.1446  1.3901
   83bbb    H16 2484   2.852   2.452   3.417  1.7854  1.6041  0.8209
   83bbb     C9 2485   2.878   2.984   3.598 -0.2708  0.0870  0.4471
   83bbb    H17 2486   2.851   2.920   3.514 -1.9780  0.2880  0.8003
   83bbb    H18 2487   2.876   3.089   3.564  1.8648 -0.0372 -0.1872
   83bbb     O1 2488   3.142   2.511   4.114  0.7385 -0.8887 -0.3545
   83bbb    H19 2489   2.892   2.771   3.754 -1.5006 -1.9351  0.8327
   84bbb     N1 2490   3.317   2.421   4.960 -0.0395  0.4192  0.1932
   84bbb     C1 2491   3.371   2.542   5.047 -1.1640 -0.6442 -0.0085
   84bbb     H1 2492   3.300   2.624   5.038  0.6914  0.8839 -1.6251
   84bbb     H2 2493   3.467   2.567   5.002 -1.0227  0.0728  0.6876
   84bbb     C2 2494   3.168   2.440   4.940  0.2601 -0.1279 -0.1249
   84bbb     H3 2495   3.147   2.520   4.868 -1.3437 -1.0106 -0.6908
   84bbb     H4 2496   3.118   2.459   5.036 -0.8250 -1.7771 -0.3282
   84bbb     C3 2497   3.390   2.412   4.825  0.6679 -0.7207  0.0018
   84bbb     H5 2498   3.356   2.495   4.763 -2.5975 -1.3674  0.7376
   84bbb     H6 2499   3.357   2.318   4.780  0.0414 -0.7733  0.5684
   84bbb     C4 2500   3.546   2.407   4.837  0.1479  0.4970 -0.3283
   84bbb     H7 2501   3.578   2.324   4.901 -0.2201 -1.1878 -2.2161
   84bbb     H8 2502   3.591   2.500   4.873  0.5728  0.4050 -0.6129
   84bbb     C5 2503   3.388   2.504   5.195  0.6612 -0.2002 -0.6269
   84bbb     H9 2504   3.294   2.455   5.223 -0.1766  1.5115 -0.2811
   84bbb    H10 2505   3.405   2.595   5.254  1.7952 -1.0124  0.3313
   84bbb     C6 2506   3.105   2.316   4.865  0.2068  0.2254 -0.2744
   84bbb    H11 2507   3.116   2.320   4.756 -1.3574  1.1314 -0.4319
   84bbb    H12 2508   2.996   2.327   4.872  0.1551  0.9360 -1.7905
   84bbb     C7 2509   3.606   2.375   4.696  0.3796  0.1397 -0.2985
   84bbb    H13 2510   3.572   2.273   4.672 -0.1418  0.5459 -1.3701
   84bbb    H14 2511   3.714   2.376   4.712  0.5830 -1.5227 -1.2766
   84bbb     C8 2512   3.145   2.181   4.922  0.0243  0.4304 -0.7097
   84bbb    H15 2513   3.087   2.102   4.874 -0.9046 -0.3233  1.5051
   84bbb    H16 2514   3.254   2.170   4.910 -0.0540  0.0228 -1.0385
   84bbb     C9 2515   3.509   2.404   5.207 -0.4505 -0.6678  0.2643
   84bbb    H17 2516   3.553   2.416   5.306  0.5931  0.7863 -0.3260
   84bbb    H18 2517   3.587   2.435   5.136 -1.2285  0.1551 -0.2718
   84bbb     O1 2518   3.564   2.471   4.595 -0.0157 -0.4887  0.1730
   84bbb    H19 2519   3.315   2.330   5.009  0.1666 -0.6013 -1.5947
   85bbb     N1 2520   3.922   3.818   3.543  0.2409 -0.2279 -0.2997
   85bbb     C1 2521   3.843   3.780   3.673  0.1565  0.5907 -0.1552
   85bbb     H1 2522   3.739   3.766   3.641  1.0203 -2.0473 -2.1319
   85bbb     H2 2523   3.832   3.866   3.740  0.2131 -0.4230  1.1840
   85bbb     C2 2524   4.070   3.793   3.556  0.0147 -0.4660 -0.7836
   85bbb     H3 2525   4.119   3.792   3.459  2.5979  0.8087  0.4001
   85bbb     H4 2526   4.077   3.696   3.606 -3.4502 -0.2872  0.2962
   85bbb     C3 2527   3.865   3.721   3.434  0.5161 -0.0950  0.0149
   85bbb     H5 2528   3.863   3.616   3.464 -0.8899 -0.3942 -1.0100
   85bbb     H6 2529   3.931   3.730   3.348  0.8668 -0.8146  0.2062
   85bbb     C4 2530   3.731   3.763   3.380  0.3438  0.0255 -0.3497
   85bbb     H7 2531   3.748   3.856   3.324  1.5178 -0.5867 -1.0562
   85bbb     H8 2532   3.658   3.785   3.459 -0.9677  0.8839 -1.7294
   85bbb     C5 2533   3.885   3.659   3.758  0.0917 -0.4992  0.5547
   85bbb     H9 2534   3.981   3.693   3.799  1.0000 -0.4013 -1.5441
   85bbb    H10 2535   3.911   3.571   3.698  2.3951  1.0090 -0.8066
   85bbb     C6 2536   4.149   3.893   3.646  0.0946 -0.4322 -0.8140
   85bbb    H11 2537   4.100   3.897   3.744  1.8477  0.3199  0.0685
   85bbb    H12 2538   4.123   3.993   3.609 -0.6007 -0.6884 -1.0443
   85bbb     C7 2539   3.662   3.664   3.291 -0.5604 -0.3688  0.7996
   85bbb    H13 2540   3.722   3.645   3.201  1.0336 -0.5910  1.8846
   85bbb    H14 2541   3.574   3.717   3.252 -0.1094  1.7681  2.4814
   85bbb     C8 2542   4.301   3.861   3.655 -0.1560  0.3356  0.2034
   85bbb    H15 2543   4.357   3.925   3.725  1.2657 -2.2532  1.5970
   85bbb    H16 2544   4.324   3.757   3.682  0.8305  0.3631 -0.4769
   85bbb     C9 2545   3.781   3.618   3.861  0.2770 -0.0343  0.0513
   85bbb    H17 2546   3.808   3.528   3.917  1.6094 -1.5168 -2.7923
   85bbb    H18 2547   3.691   3.600   3.801  0.1739  0.0266  0.1859
   85bbb     O1 2548   3.631   3.540   3.357  0.3877  0.1905 -0.3287
   85bbb    H19 2549   3.908   3.918   3.523  0.6322 -0.0394  0.3286
   86bbb     N1 2550   3.229   2.907   2.826  0.5267 -0.2650  0.1798
   86bbb     C1 2551   3.100   2.938   2.751  0.7278 -0.1577 -0.8052
   86bbb     H1 2552   3.097   3.045   2.731 -1.0876  0.0793  0.5266
   86bbb     H2 2553   3.016   2.920   2.819  0.1476 -0.4567 -1.5901
   86bbb     C2 2554   3.352   2.957   2.745 -0.6449  0.2837 -0.4910
   86bbb     H3 2555   3.349   2.900   2.652 -3.0658 -0.0155 -0.2728
   86bbb     H4 2556   3.446   2.933   2.796 -0.1391  0.4618 -1.3068
   86bbb     C3 2557   3.221   2.966   2.965 -0.2580 -0.1776 -0.0031
   86bbb     H5 2558   3.128   2.935   3.013 -0.3184 -0.4054 -0.2633
   86bbb     H6 2559   3.214   3.074   2.956  2.1601 -0.0698 -1.4795
   86bbb     C4 2560   3.336   2.935   3.062  0.3845  0.2561  0.1883
   86bbb     H7 2561   3.425   2.994   3.036  0.7454 -0.7473 -0.9375
   86bbb     H8 2562   3.365   2.829   3.068  1.8107  0.5218 -1.4537
   86bbb     C5 2563   3.071   2.861   2.622 -0.1487  0.4351  0.0284
   86bbb     H9 2564   3.077   2.753   2.638  0.9338  0.6416  1.1010
   86bbb    H10 2565   3.142   2.902   2.549  0.3488 -1.9978 -0.9414
   86bbb     C6 2566   3.344   3.109   2.696  0.2415 -0.4409 -0.3813
   86bbb    H11 2567   3.327   3.171   2.785  0.2478 -2.1379  0.8655
   86bbb    H12 2568   3.261   3.125   2.626  0.0233  0.7758  0.1246
   86bbb     C7 2569   3.286   2.973   3.205  0.1938  0.2570 -0.4615
   86bbb    H13 2570   3.203   2.906   3.232  0.3691 -0.1897 -1.0113
   86bbb    H14 2571   3.250   3.077   3.206  0.4253  0.3297  0.0075
   86bbb     C8 2572   3.472   3.159   2.635 -0.5661  0.0862  0.3243
   86bbb    H15 2573   3.463   3.268   2.643 -1.5497 -0.0497  1.2886
   86bbb    H16 2574   3.561   3.129   2.691 -0.9796 -2.2632 -0.1666
   86bbb     C9 2575   2.931   2.885   2.576  0.3073  0.2225 -0.3887
   86bbb    H17 2576   2.922   2.995   2.568  1.1052  0.3513  0.3406
   86bbb    H18 2577   2.869   2.856   2.662  0.8855  1.7511  0.5981
   86bbb     O1 2578   3.402   2.960   3.288 -0.5105  0.4754  0.4503
   86bbb    H19 2579   3.240   2.806   2.837 -0.8508 -0.2914  1.6733
   87bbb     N1 2580   8.540   3.229   3.885 -0.8591 -0.3347 -0.0481
   87bbb     C1 2581   8.570   3.354   3.807 -0.4020 -0.1473  0.4048
   87bbb     H1 2582   8.535   3.435   3.870 -1.1360 -0.1452  0.0017
   87bbb     H2 2583   8.519   3.354   3.710 -0.9666  1.8927  0.6596
   87bbb     C2 2584   8.602   3.246   4.022  0.4319  0.1298  0.4521
   87bbb     H3 2585   8.526   3.298   4.081 -1.0946 -0.1851 -1.1383
   87bbb     H4 2586   8.693   3.306   4.017  0.0782  0.5840 -0.7476
   87bbb     C3 2587   8.392   3.204   3.892  0.6114 -0.3928 -0.6159
   87bbb     H5 2588   8.356   3.304   3.916 -0.6627 -1.1282  0.7010
   87bbb     H6 2589   8.376   3.138   3.977  1.1728  0.0388 -0.1726
   87bbb     C4 2590   8.336   3.137   3.758 -0.5576 -0.5374 -0.2123
   87bbb     H7 2591   8.368   3.032   3.761 -0.3038 -0.4353  0.8170
   87bbb     H8 2592   8.358   3.189   3.664 -0.4020  0.0623  0.1517
   87bbb     C5 2593   8.716   3.377   3.759 -0.0006  0.4620 -0.4284
   87bbb     H9 2594   8.759   3.290   3.706  0.1323 -0.0704  0.5178
   87bbb    H10 2595   8.774   3.397   3.850 -0.0962 -4.6534  1.0800
   87bbb     C6 2596   8.636   3.107   4.077 -1.1246 -0.2126 -0.6295
   87bbb    H11 2597   8.569   3.024   4.052  1.0370 -1.4071 -2.9762
   87bbb    H12 2598   8.641   3.111   4.187  1.7093 -1.5911 -0.6072
   87bbb     C7 2599   8.180   3.137   3.764 -0.8831 -0.7196  0.0242
   87bbb    H13 2600   8.140   3.078   3.681  1.6523 -1.6667 -0.5983
   87bbb    H14 2601   8.131   3.235   3.769  0.0591 -0.2330 -0.0474
   87bbb     C8 2602   8.773   3.058   4.023  0.0573 -0.5134 -0.0803
   87bbb    H15 2603   8.798   2.964   4.074  2.3589 -0.4199 -0.8944
   87bbb    H16 2604   8.772   3.042   3.914  1.1929  0.3247 -0.2382
   87bbb     C9 2605   8.715   3.497   3.664 -0.2098  0.4831  0.8003
   87bbb    H17 2606   8.683   3.585   3.722 -1.3968  0.6163 -0.0140
   87bbb    H18 2607   8.644   3.500   3.581 -2.0673 -0.7227  2.2479
   87bbb     O1 2608   8.139   3.082   3.886  0.4032 -0.4451 -0.3511
   87bbb    H19 2609   8.593   3.155   3.836 -0.4170 -0.9049  1.2603
   88bbb     N1 2610   8.280   2.286   4.607 -0.1653  0.3292  0.0381
   88bbb     C1 2611   8.353   2.309   4.472  0.2146  0.4745 -0.4399
   88bbb     H1 2612   8.282   2.296   4.390  0.1911  1.7886 -0.6503
   88bbb     H2 2613   8.424   2.227   4.458 -1.9294 -1.2821 -1.7458
   88bbb     C2 2614   8.388   2.283   4.714  0.3741  0.3010 -0.4243
   88bbb     H3 2615   8.419   2.384   4.741  0.7237 -0.1013  0.7499
   88bbb     H4 2616   8.476   2.236   4.670  0.9351  2.7563 -2.1312
   88bbb     C3 2617   8.191   2.398   4.632 -0.0999  0.4057  0.2349
   88bbb     H5 2618   8.252   2.486   4.609  0.9969 -0.6806 -1.1736
   88bbb     H6 2619   8.163   2.382   4.736  0.2934 -2.0930  0.0060
   88bbb     C4 2620   8.063   2.404   4.549  0.9438 -0.8355  1.4084
   88bbb     H7 2621   7.977   2.345   4.582 -2.3483  1.7232 -1.7291
   88bbb     H8 2622   8.080   2.371   4.446  1.1550 -0.9397  1.4747
   88bbb     C5 2623   8.419   2.445   4.449  0.3011  0.2178  0.3882
   88bbb     H9 2624   8.488   2.456   4.534 -1.6282 -2.7829  2.5212
   88bbb    H10 2625   8.346   2.527   4.449  1.6013  1.4291  0.0382
   88bbb     C6 2626   8.354   2.212   4.840 -0.5731  0.8835  0.9799
   88bbb    H11 2627   8.288   2.125   4.831  0.4384  0.1627  0.5037
   88bbb    H12 2628   8.309   2.284   4.910 -0.5915  0.7357  1.1211
   88bbb     C7 2629   8.007   2.547   4.541 -0.6421 -0.4878  0.1435
   88bbb    H13 2630   8.092   2.611   4.570 -0.2787 -1.0502  0.3425
   88bbb    H14 2631   7.920   2.546   4.609 -1.0693 -1.0324 -0.4067
   88bbb     C8 2632   8.485   2.160   4.910  0.1207 -0.2635  0.9668
   88bbb    H15 2633   8.556   2.237   4.943 -0.8206  0.4505  1.3438
   88bbb    H16 2634   8.460   2.123   5.009  0.6336  0.7735  1.5016
   88bbb     C9 2635   8.486   2.452   4.307 -0.3867 -0.4202 -0.5730
   88bbb    H17 2636   8.504   2.352   4.265  1.3451 -0.7227  0.7878
   88bbb    H18 2637   8.587   2.493   4.314  0.3187 -2.1501 -0.0672
   88bbb     O1 2638   7.967   2.581   4.410  0.5679  0.3472  0.4134
   88bbb    H19 2639   8.227   2.198   4.602 -1.1662  0.7652  1.9728
   89bbb     N1 2640   7.803   2.061   2.898  0.2712  0.1101 -0.4261
   89bbb     C1 2641   7.867   2.014   3.031  0.0596 -0.6241  0.5880
   89bbb     H1 2642   7.847   1.907   3.021  1.1449 -0.6556 -2.2542
   89bbb     H2 2643   7.821   2.068   3.114 -0.8177 -1.9988  1.0335
   89bbb     C2 2644   7.844   1.963   2.782  0.1178  0.1334 -0.2763
   89bbb     H3 2645   7.806   1.862   2.800 -0.7490  0.6204  0.7964
   89bbb     H4 2646   7.953   1.964   2.786  0.1004  0.2464  0.3984
   89bbb     C3 2647   7.649   2.043   2.916 -0.1712 -0.4354 -0.3200
   89bbb     H5 2648   7.634   1.939   2.945 -2.0248 -0.4445 -1.1412
   89bbb     H6 2649   7.615   2.065   2.814  2.3670  1.5133 -0.8737
   89bbb     C4 2650   7.581   2.131   3.021  0.1174 -1.1671 -0.1021
   89bbb     H7 2651   7.609   2.235   3.002  2.4109 -1.7785 -0.4243
   89bbb     H8 2652   7.619   2.100   3.120 -0.0390 -0.6862  0.1122
   89bbb     C5 2653   8.023   2.022   3.060  0.0675 -0.4490 -0.3693
   89bbb     H9 2654   8.030   2.127   3.089 -1.2334 -0.6480  0.7903
   89bbb    H10 2655   8.080   1.997   2.970  0.7683 -2.7609  0.6503
   89bbb     C6 2656   7.804   2.009   2.639  0.1929 -0.1097 -0.0532
   89bbb    H11 2657   7.854   2.106   2.632 -0.8722  0.7445  2.7898
   89bbb    H12 2658   7.697   2.028   2.629  0.3992  0.1128 -2.4774
   89bbb     C7 2659   7.421   2.109   3.026  0.0063 -0.4821  0.0238
   89bbb    H13 2660   7.392   2.007   3.054  2.4974 -0.9577  1.1052
   89bbb    H14 2661   7.388   2.128   2.923  1.8295  1.5827 -0.2595
   89bbb     C8 2662   7.834   1.908   2.529  0.2133 -0.5975  0.1055
   89bbb    H15 2663   7.798   1.809   2.560 -1.7057  0.2666  0.8062
   89bbb    H16 2664   7.784   1.931   2.434  0.5751 -1.7865 -0.3967
   89bbb     C9 2665   8.073   1.933   3.179 -0.1558 -0.1346 -0.0555
   89bbb    H17 2666   8.014   1.948   3.270 -1.3104 -2.4143 -0.3615
   89bbb    H18 2667   8.178   1.959   3.199 -0.0627  0.5805 -1.3896
   89bbb     O1 2668   7.353   2.206   3.119  0.1965 -0.4100  0.2519
   89bbb    H19 2669   7.820   2.162   2.890 -0.3478  0.2535 -0.0076
   90bbb     N1 2670   7.397   3.005   2.941 -0.1035 -0.4031 -0.2530
   90bbb     C1 2671   7.353   2.888   2.856 -0.7772 -0.2879 -0.7802
   90bbb     H1 2672   7.246   2.892   2.872 -1.0011 -0.2539 -2.1696
   90bbb     H2 2673   7.403   2.799   2.895  1.1999 -0.1165 -2.6538
   90bbb     C2 2674   7.322   3.130   2.895  0.0395 -0.5595 -0.2950
   90bbb     H3 2675   7.217   3.101   2.903 -0.0403 -1.6888 -3.7827
   90bbb     H4 2676   7.352   3.139   2.791 -0.8928  1.1529 -0.4479
   90bbb     C3 2677   7.383   2.985   3.090  0.2139  0.2583 -0.0742
   90bbb     H5 2678   7.300   2.915   3.103  0.4986  0.2451  2.0736
   90bbb     H6 2679   7.348   3.076   3.139  0.7637 -0.2142  1.2361
   90bbb     C4 2680   7.497   2.932   3.169  0.2299 -0.1627 -0.7722
   90bbb     H7 2681   7.588   2.991   3.158  0.0172  0.3638  0.2595
   90bbb     H8 2682   7.528   2.840   3.117  1.1816  0.6854 -1.7712
   90bbb     C5 2683   7.400   2.884   2.706  0.2861  0.4777  0.1439
   90bbb     H9 2684   7.345   2.957   2.645  0.0469  0.0641 -0.1348
   90bbb    H10 2685   7.385   2.788   2.655 -0.1486  1.0506 -0.8470
   90bbb     C6 2686   7.352   3.259   2.963  0.0953  0.7249  0.2464
   90bbb    H11 2687   7.439   3.289   2.904 -0.8763  0.2944 -1.4609
   90bbb    H12 2688   7.381   3.249   3.069  1.1543  0.3537 -0.0624
   90bbb     C7 2689   7.464   2.924   3.324 -0.4843  0.0341 -0.1497
   90bbb    H13 2690   7.405   3.012   3.351 -1.0228 -0.4556  0.3041
   90bbb    H14 2691   7.559   2.920   3.378  0.6620 -0.9703 -2.1135
   90bbb     C8 2692   7.245   3.364   2.946 -0.2523 -1.0032  0.3093
   90bbb    H15 2693   7.213   3.372   2.842  1.1449 -0.8492 -0.1392
   90bbb    H16 2694   7.159   3.341   3.010 -0.5563 -2.2452 -0.5158
   90bbb     C9 2695   7.552   2.919   2.708 -0.0980  0.1065 -0.0903
   90bbb    H17 2696   7.597   2.875   2.619  0.7839 -2.3195  1.4719
   90bbb    H18 2697   7.591   2.863   2.793 -2.1602  0.1245  0.9172
   90bbb     O1 2698   7.380   2.806   3.349 -0.4226 -0.1448  1.1508
   90bbb    H19 2699   7.497   3.026   2.923  0.2301 -1.5248  0.2446
   91bbb     N1 2700   8.064   2.564   5.590 -0.4678  0.3671  0.9851
   91bbb     C1 2701   8.044   2.628   5.727  0.3646  0.0664  0.5090
   91bbb     H1 2702   8.137   2.636   5.784 -0.0271  1.4184  0.9991
   91bbb     H2 2703   7.981   2.557   5.781  0.3587 -0.3304 -0.0009
   91bbb     C2 2704   8.150   2.437   5.612 -0.7309  0.6292 -0.3614
   91bbb     H3 2705   8.164   2.387   5.516  0.1594 -2.5372  1.2916
   91bbb     H4 2706   8.094   2.377   5.684  0.7629 -1.0556 -0.5488
   91bbb     C3 2707   7.938   2.532   5.515  1.0436 -0.2884  0.5420
   91bbb     H5 2708   7.877   2.621   5.500  1.5126 -0.4145 -2.7601
   91bbb     H6 2709   7.878   2.451   5.557 -0.1764  0.2374 -0.1513
   91bbb     C4 2710   7.949   2.492   5.363 -0.1480  0.4643 -0.3949
   91bbb     H7 2711   8.011   2.402   5.363  1.7804  1.7455 -0.8275
   91bbb     H8 2712   8.008   2.565   5.306 -1.4503  2.8020  1.0647
   91bbb     C5 2713   7.973   2.764   5.711  0.2021  0.0285 -1.4026
   91bbb     H9 2714   7.863   2.760   5.702  0.0576  0.7207 -0.0825
   91bbb    H10 2715   8.006   2.826   5.626 -1.1065  1.7994 -0.6948
   91bbb     C6 2716   8.289   2.461   5.677 -0.0648  0.4440 -0.8487
   91bbb    H11 2717   8.283   2.483   5.785  1.2940 -0.4839 -0.5457
   91bbb    H12 2718   8.330   2.555   5.638 -1.5540  0.5100 -2.3346
   91bbb     C7 2719   7.821   2.473   5.294  0.3941 -0.3049 -0.4220
   91bbb    H13 2720   7.825   2.489   5.185 -0.6485  2.3024 -0.1280
   91bbb    H14 2721   7.750   2.545   5.336  1.8828  0.3708  1.0759
   91bbb     C8 2722   8.373   2.331   5.680 -0.1197 -0.3735 -0.0878
   91bbb    H15 2723   8.384   2.297   5.577  0.7194  0.3967 -0.2639
   91bbb    H16 2724   8.475   2.353   5.713  0.0413 -0.2662 -0.6586
   91bbb     C9 2725   8.004   2.849   5.830  0.0597 -0.3851 -0.5290
   91bbb    H17 2726   7.952   2.820   5.922 -1.4121  1.1496 -0.8371
   91bbb    H18 2727   7.956   2.947   5.817  0.1819  0.0876  2.1097
   91bbb     O1 2728   7.776   2.335   5.323  0.3343 -0.1057  0.0315
   91bbb    H19 2729   8.105   2.636   5.528 -2.2006  1.1207  0.6451
   92bbb     N1 2730   6.814   2.253   5.969  0.6885 -0.3699  0.3600
   92bbb     C1 2731   6.876   2.202   6.097  0.3687  0.2737  0.1611
   92bbb     H1 2732   6.979   2.237   6.090  0.6859 -0.7476 -0.5687
   92bbb     H2 2733   6.874   2.093   6.088  0.0209  0.3022 -0.1519
   92bbb     C2 2734   6.659   2.239   5.978  0.0016  0.8852 -0.6974
   92bbb     H3 2735   6.629   2.280   6.074 -0.2954 -3.4255  1.2454
   92bbb     H4 2736   6.647   2.132   5.992  1.7717  0.7253 -0.0815
   92bbb     C3 2737   6.863   2.388   5.937 -0.1462  0.2464 -0.3202
   92bbb     H5 2738   6.953   2.404   5.998  0.7146 -0.0912 -1.4741
   92bbb     H6 2739   6.778   2.453   5.956 -0.2482 -0.6385  2.9493
   92bbb     C4 2740   6.901   2.409   5.797 -0.5057 -0.0779 -0.0995
   92bbb     H7 2741   6.809   2.413   5.737 -1.0270 -0.8986  0.6234
   92bbb     H8 2742   6.946   2.317   5.759  0.9512  0.2954  0.6435
   92bbb     C5 2743   6.815   2.234   6.234 -0.1154 -1.1431  0.2512
   92bbb     H9 2744   6.712   2.197   6.244 -1.3160  1.7385 -0.4632
   92bbb    H10 2745   6.810   2.342   6.250 -2.8237 -0.9631 -1.1300
   92bbb     C6 2746   6.584   2.302   5.864 -0.0956  0.2706 -0.2457
   92bbb    H11 2747   6.623   2.275   5.765 -0.5896 -3.1634  0.3961
   92bbb    H12 2748   6.596   2.408   5.892  2.0488 -0.4906  2.0360
   92bbb     C7 2749   7.008   2.517   5.781  0.7071 -0.1341 -0.0100
   92bbb    H13 2750   6.978   2.607   5.835  0.1025 -0.3615  0.0369
   92bbb    H14 2751   7.023   2.525   5.673  0.3480 -0.6786 -0.1057
   92bbb     C8 2752   6.433   2.272   5.874  0.6156 -0.0787  0.5508
   92bbb    H15 2753   6.380   2.326   5.794 -1.6318 -0.1199  1.9147
   92bbb    H16 2754   6.402   2.168   5.862  1.7754 -0.0860 -3.9360
   92bbb     C9 2755   6.896   2.161   6.347 -0.1595  0.3635 -0.0175
   92bbb    H17 2756   7.004   2.182   6.349 -0.1828  0.4377  0.4556
   92bbb    H18 2757   6.891   2.051   6.337  0.7327  0.2926  0.2036
   92bbb     O1 2758   7.133   2.476   5.845 -0.1921  0.9050 -0.2970
   92bbb    H19 2759   6.848   2.190   5.895 -1.3470  0.6792 -1.5542
   93bbb     N1 2760   6.851   1.285   5.357  0.0619 -0.5723  0.1718
   93bbb     C1 2761   6.838   1.342   5.498 -0.0519 -0.5057  0.5630
   93bbb     H1 2762   6.814   1.261   5.568 -1.9710  1.2509  2.0602
   93bbb     H2 2763   6.748   1.403   5.504 -0.2308 -0.6265 -0.5741
   93bbb     C2 2764   6.730   1.198   5.319  0.6288 -0.2607 -0.0333
   93bbb     H3 2765   6.708   1.180   5.213 -1.0511  0.5157  0.1407
   93bbb     H4 2766   6.646   1.253   5.363  2.3423  1.2285  1.5244
   93bbb     C3 2767   6.859   1.403   5.259  0.3904  0.2967 -0.0219
   93bbb     H5 2768   6.942   1.464   5.296  0.3808 -0.4964  1.4049
   93bbb     H6 2769   6.765   1.458   5.260  0.4137  0.3481 -0.4535
   93bbb     C4 2770   6.899   1.364   5.112  0.2086 -0.1954 -0.0676
   93bbb     H7 2771   6.833   1.288   5.066 -1.4176  2.1913 -1.9185
   93bbb     H8 2772   6.997   1.316   5.124 -0.8601 -1.8859  2.6288
   93bbb     C5 2773   6.953   1.419   5.556 -0.1834 -1.0887 -0.0262
   93bbb     H9 2774   6.932   1.444   5.661  1.2314  1.0073 -0.1970
   93bbb    H10 2775   6.972   1.515   5.507 -0.5357 -1.6298 -1.2622
   93bbb     C6 2776   6.741   1.056   5.385 -0.5356  0.0809  0.2058
   93bbb    H11 2777   6.771   1.069   5.489 -0.2885 -1.3189  0.3293
   93bbb    H12 2778   6.828   0.999   5.350 -0.5996 -1.0446  1.7937
   93bbb     C7 2779   6.898   1.485   5.020 -0.1358 -0.0638  0.0981
   93bbb    H13 2780   6.792   1.504   4.998  0.0648  0.0070 -0.8558
   93bbb    H14 2781   6.935   1.456   4.921 -1.0566  2.7099 -1.1684
   93bbb     C8 2782   6.610   0.972   5.367 -0.3937 -0.2660 -0.3441
   93bbb    H15 2783   6.610   0.889   5.438  1.0852 -0.3299 -0.3705
   93bbb    H16 2784   6.526   1.040   5.385 -0.3026 -0.4527  0.8143
   93bbb     C9 2785   7.088   1.341   5.559  0.1489  0.3763  0.2214
   93bbb    H17 2786   7.169   1.393   5.612  0.7040  1.3069 -1.4815
   93bbb    H18 2787   7.119   1.327   5.455  0.2149  0.8695  0.1738
   93bbb     O1 2788   6.963   1.604   5.078 -0.1334  0.2939 -0.1874
   93bbb    H19 2789   6.936   1.227   5.349  0.3607 -0.0075 -0.8733
   94bbb     N1 2790   7.545   1.406   4.746 -0.1341 -0.1834 -0.0210
   94bbb     C1 2791   7.409   1.347   4.735  0.3562 -0.1448  0.4138
   94bbb     H1 2792   7.422   1.260   4.669 -0.3851 -0.2728  0.4238
   94bbb     H2 2793   7.346   1.417   4.680 -0.3715  0.0803  1.5131
   94bbb     C2 2794   7.644   1.294   4.781  0.1656 -0.1741 -0.3384
   94bbb     H3 2795   7.667   1.238   4.690 -1.3848  0.8593 -1.4126
   94bbb     H4 2796   7.593   1.226   4.848  0.6395  1.0322  1.3213
   94bbb     C3 2797   7.591   1.456   4.606  0.4043 -0.4296 -0.4524
   94bbb     H5 2798   7.501   1.483   4.551 -0.8149  0.6383  1.9264
   94bbb     H6 2799   7.647   1.376   4.559  1.5579 -0.2247  0.5281
   94bbb     C4 2800   7.678   1.583   4.626  0.0166  0.8430 -0.2009
   94bbb     H7 2801   7.773   1.566   4.573 -1.2340 -1.0512 -1.9713
   94bbb     H8 2802   7.679   1.594   4.735 -1.7270 -1.3741  0.1083
   94bbb     C5 2803   7.335   1.316   4.866  0.2206  0.2051 -0.4179
   94bbb     H9 2804   7.308   1.411   4.913  0.4215 -0.3070  0.7912
   94bbb    H10 2805   7.406   1.281   4.943  1.5933 -0.8515 -2.0971
   94bbb     C6 2806   7.780   1.342   4.838  0.6658  0.3039  0.1413
   94bbb    H11 2807   7.759   1.415   4.918 -0.1924  1.7600 -1.3326
   94bbb    H12 2808   7.829   1.400   4.758 -2.3741 -0.0814 -2.1768
   94bbb     C7 2809   7.624   1.706   4.551  0.1238  0.3069 -0.2567
   94bbb    H13 2810   7.606   1.684   4.445 -0.9764  0.0015 -0.0124
   94bbb    H14 2811   7.688   1.795   4.563  1.3457 -0.7587  1.6356
   94bbb     C8 2812   7.875   1.238   4.891 -0.3587  0.5413 -0.7128
   94bbb    H15 2813   7.966   1.286   4.929  0.2206 -1.2941  0.3220
   94bbb    H16 2814   7.833   1.181   4.975 -2.3944  1.2895 -1.1708
   94bbb     C9 2815   7.211   1.221   4.861 -0.8795 -0.7049  0.3041
   94bbb    H17 2816   7.163   1.221   4.960 -1.8265  0.9062 -0.1270
   94bbb    H18 2817   7.242   1.123   4.823  1.6164  0.7929 -1.9142
   94bbb     O1 2818   7.496   1.739   4.611 -0.0960 -0.1381 -0.1709
   94bbb    H19 2819   7.538   1.480   4.817  1.0970  0.8331 -0.8982
   95bbb     N1 2820   1.662   6.140   2.466  0.2774  0.4350  0.1502
   95bbb     C1 2821   1.510   6.120   2.462  0.3081 -0.6309  0.1474
   95bbb     H1 2822   1.503   6.047   2.381  3.7914  0.8674 -1.7061
   95bbb     H2 2823   1.468   6.218   2.436  0.4064 -0.7967 -0.6548
   95bbb     C2 2824   1.702   6.169   2.318 -0.1296 -0.0554 -0.5646
   95bbb     H3 2825   1.797   6.220   2.334  0.5947 -1.5063 -0.0196
   95bbb     H4 2826   1.623   6.232   2.279 -0.1208  0.6273  0.4925
   95bbb     C3 2827   1.695   6.246   2.577  0.9296 -0.1398 -0.0172
   95bbb     H5 2828   1.648   6.212   2.669 -1.2725  1.5328 -0.4337
   95bbb     H6 2829   1.640   6.337   2.551  0.3649  0.3321  2.5937
   95bbb     C4 2830   1.841   6.295   2.608 -0.7994  0.2237  0.5707
   95bbb     H7 2831   1.895   6.322   2.516 -2.4150 -0.4029 -0.5986
   95bbb     H8 2832   1.900   6.213   2.652 -1.4424  0.2499  1.5151
   95bbb     C5 2833   1.438   6.075   2.592  0.1280 -0.0713 -0.5661
   95bbb     H9 2834   1.458   6.125   2.687  0.6109 -3.3008  1.1818
   95bbb    H10 2835   1.479   5.976   2.615  0.2506  0.5284  2.0207
   95bbb     C6 2836   1.742   6.034   2.238  0.0733 -0.2125 -0.0047
   95bbb    H11 2837   1.656   5.966   2.230 -1.5822  1.3374  2.9672
   95bbb    H12 2838   1.817   5.978   2.295 -1.4115 -1.3281  0.9353
   95bbb     C7 2839   1.835   6.417   2.698 -0.0758  0.2344 -0.3154
   95bbb    H13 2840   1.777   6.395   2.789  0.8018  1.7277  0.6523
   95bbb    H14 2841   1.788   6.497   2.639 -1.2016 -0.1502  0.0160
   95bbb     C8 2842   1.804   6.067   2.100 -0.5854  0.0927 -0.5445
   95bbb    H15 2843   1.807   5.980   2.033  0.0446  0.0110 -0.4187
   95bbb    H16 2844   1.741   6.149   2.064 -0.7735  0.3423  0.3358
   95bbb     C9 2845   1.284   6.060   2.581  0.2002 -0.6490 -0.1094
   95bbb    H17 2846   1.237   6.036   2.677  2.9728  0.7162  1.7129
   95bbb    H18 2847   1.263   5.978   2.510 -0.4622 -2.0100  1.5702
   95bbb     O1 2848   1.977   6.450   2.730  0.2919  0.3678 -0.0547
   95bbb    H19 2849   1.705   6.049   2.485  1.0898  0.4675 -1.3729
   96bbb     N1 2850   1.850   7.168   2.161  0.6145 -0.4030  0.1223
   96bbb     C1 2851   1.844   7.225   2.017 -0.4610 -0.1252 -0.3826
   96bbb     H1 2852   1.835   7.140   1.949 -1.4283 -0.6052  0.3291
   96bbb     H2 2853   1.939   7.270   1.989  0.3266 -0.6872  1.3133
   96bbb     C2 2854   1.736   7.068   2.173 -0.1899 -1.0359  0.3888
   96bbb     H3 2855   1.780   6.977   2.133  1.8987  0.0539  0.0379
   96bbb     H4 2856   1.655   7.102   2.109  0.5734 -1.1412 -0.6693
   96bbb     C3 2857   1.976   7.088   2.181  0.4190  0.4175  0.1858
   96bbb     H5 2858   1.992   7.037   2.086  1.6167 -0.9851  1.1029
   96bbb     H6 2859   1.961   7.022   2.267  0.7699  0.5318  0.3369
   96bbb     C4 2860   2.102   7.174   2.193 -0.9891  0.6614  0.0532
   96bbb     H7 2861   2.092   7.238   2.281  1.5699  1.3476 -0.0758
   96bbb     H8 2862   2.118   7.237   2.104  0.3750 -0.5956 -0.6280
   96bbb     C5 2863   1.724   7.318   2.003  0.6357 -0.2513  0.4282
   96bbb     H9 2864   1.737   7.404   2.070 -1.1031  0.4587 -0.0910
   96bbb    H10 2865   1.631   7.274   2.040  0.8283 -0.3463  0.8031
   96bbb     C6 2866   1.698   7.036   2.323  0.6487 -0.5138  0.2189
   96bbb    H11 2867   1.777   7.038   2.399  1.9282 -2.5101 -0.9650
   96bbb    H12 2868   1.670   6.930   2.315 -1.1570 -0.0010 -0.8832
   96bbb     C7 2869   2.225   7.087   2.194  0.0964  0.1794  0.0769
   96bbb    H13 2870   2.312   7.139   2.152 -0.0836 -0.2711 -0.8802
   96bbb    H14 2871   2.209   7.007   2.121  0.1550 -0.2996  0.5876
   96bbb     C8 2872   1.586   7.128   2.371 -0.5611 -0.1635 -0.2995
   96bbb    H15 2873   1.556   7.116   2.476 -0.5481  1.3692 -0.0933
   96bbb    H16 2874   1.620   7.232   2.363 -0.9570 -0.0116 -0.0622
   96bbb     C9 2875   1.709   7.364   1.854 -0.3114  0.0224 -0.3208
   96bbb    H17 2876   1.805   7.411   1.829 -0.2339 -0.8609 -1.8827
   96bbb    H18 2877   1.627   7.435   1.842 -1.9913 -1.2252  2.7248
   96bbb     O1 2878   2.253   7.034   2.324 -0.3954  0.0241  0.4085
   96bbb    H19 2879   1.841   7.239   2.236 -1.2397 -1.8602  1.3527
   97bbb     N1 2880   2.231   8.122   3.262  0.2590  0.3662  0.0562
   97bbb     C1 2881   2.157   8.120   3.127  0.7257 -0.2897 -0.5884
   97bbb     H1 2882   2.234   8.126   3.050  1.8446  0.4238  0.5545
   97bbb     H2 2883   2.106   8.217   3.127  1.4600  0.1030 -0.8296
   97bbb     C2 2884   2.134   8.124   3.373  0.5425 -0.0027 -0.9515
   97bbb     H3 2885   2.184   8.082   3.460  0.1157 -2.9309 -1.9823
   97bbb     H4 2886   2.058   8.046   3.357  1.6614 -1.5309  0.7734
   97bbb     C3 2887   2.326   7.999   3.262  0.5558 -0.9519  0.0073
   97bbb     H5 2888   2.266   7.909   3.257  1.7579 -1.7875  0.1380
   97bbb     H6 2889   2.372   8.010   3.360 -0.0908  1.7799  0.0950
   97bbb     C4 2890   2.439   7.988   3.159 -0.8114 -0.6830 -0.0173
   97bbb     H7 2891   2.450   8.091   3.125 -0.3373 -1.0863 -1.1659
   97bbb     H8 2892   2.406   7.951   3.061  0.5648 -0.0442 -0.7454
   97bbb     C5 2893   2.055   8.007   3.098 -0.8730 -0.5727 -0.2826
   97bbb     H9 2894   1.985   8.003   3.183 -0.9531  0.7998 -0.2605
   97bbb    H10 2895   2.113   7.915   3.093  1.1730  0.7080 -1.2777
   97bbb     C6 2896   2.076   8.259   3.413 -0.0700  0.1062 -0.0668
   97bbb    H11 2897   2.001   8.304   3.347 -0.3519 -0.6697 -0.2865
   97bbb    H12 2898   2.159   8.330   3.407  1.1791 -0.9243  2.9300
   97bbb     C7 2899   2.577   7.923   3.205 -0.0911  0.4663  0.4064
   97bbb    H13 2900   2.603   7.950   3.308 -0.4867  2.2347  0.0777
   97bbb    H14 2901   2.646   7.963   3.130 -0.3678 -0.7631 -0.5429
   97bbb     C8 2902   2.024   8.253   3.562  0.1529  0.3974 -0.3793
   97bbb    H15 2903   1.920   8.218   3.568  0.8227 -1.4411  1.6826
   97bbb    H16 2904   2.088   8.186   3.621 -0.4350 -0.5382 -0.7788
   97bbb     C9 2905   1.976   8.039   2.978  0.0915 -0.6731  0.4314
   97bbb    H17 2906   1.919   7.954   2.938 -0.9093 -0.5912  1.6316
   97bbb    H18 2907   2.036   8.074   2.893 -2.9290  1.4300 -1.0172
   97bbb     O1 2908   2.562   7.775   3.196 -0.4342  0.1220 -0.0867
   97bbb    H19 2909   2.277   8.214   3.266 -1.3970  1.2664 -0.5263
   98bbb     N1 2910   1.723   7.234   3.484  0.5415 -0.0254  0.6491
   98bbb     C1 2911   1.706   7.297   3.348 -0.3183  0.0930  0.0171
   98bbb     H1 2912   1.803   7.345   3.329 -0.1863 -0.3051 -0.3277
   98bbb     H2 2913   1.632   7.377   3.355 -2.1965 -1.6472  0.5955
   98bbb     C2 2914   1.597   7.172   3.533 -0.1529  0.3567  0.0105
   98bbb     H3 2915   1.622   7.138   3.633  0.3779 -1.1224 -0.5853
   98bbb     H4 2916   1.587   7.075   3.483  0.2692  0.1334  0.3526
   98bbb     C3 2917   1.833   7.129   3.468  0.0032  0.5010  0.5958
   98bbb     H5 2918   1.906   7.150   3.389  2.4168  0.7856  2.7920
   98bbb     H6 2919   1.781   7.035   3.446 -1.8020  1.0933  2.0313
   98bbb     C4 2920   1.910   7.115   3.599  0.1888 -0.1670 -0.3376
   98bbb     H7 2921   1.952   7.014   3.601 -0.4940 -0.5618 -2.9430
   98bbb     H8 2922   1.850   7.119   3.690  1.5705 -0.5877  0.6360
   98bbb     C5 2923   1.665   7.208   3.221 -0.2221  0.0607 -0.3333
   98bbb     H9 2924   1.730   7.121   3.210 -0.2920 -0.1685  0.9414
   98bbb    H10 2925   1.687   7.265   3.130  1.3884  0.2385  0.1356
   98bbb     C6 2926   1.475   7.260   3.552  0.3543  0.5572  0.6029
   98bbb    H11 2927   1.434   7.288   3.454  3.3375  2.5165 -0.2283
   98bbb    H12 2928   1.493   7.358   3.598 -2.4272  1.4383  0.0395
   98bbb     C7 2929   2.034   7.210   3.616  0.2373  0.2918 -0.1276
   98bbb    H13 2930   2.083   7.200   3.713 -0.2727  1.5509  0.2674
   98bbb    H14 2931   2.002   7.314   3.615  0.4446  0.3572 -0.0532
   98bbb     C8 2932   1.368   7.200   3.641  0.3347 -0.4232  0.4358
   98bbb    H15 2933   1.340   7.102   3.600  2.0556 -0.3636 -0.9562
   98bbb    H16 2934   1.407   7.162   3.736  3.5602 -2.9497 -1.7063
   98bbb     C9 2935   1.523   7.173   3.208 -0.0283  0.4800  0.0752
   98bbb    H17 2936   1.493   7.150   3.105 -0.6878 -1.2681  0.6289
   98bbb    H18 2937   1.454   7.250   3.243 -1.7371 -0.5857 -0.8441
   98bbb     O1 2938   2.127   7.183   3.503 -0.1984 -0.1015  0.1595
   98bbb    H19 2939   1.753   7.306   3.551  1.2436 -1.6683  2.1991
   99bbb     N1 2940   3.723   8.449   3.661 -0.1454 -0.8816 -0.2120
   99bbb     C1 2941   3.795   8.577   3.647 -0.5118 -0.7018  0.6140
   99bbb     H1 2942   3.889   8.551   3.599 -0.8808  1.5009 -1.4739
   99bbb     H2 2943   3.817   8.604   3.751 -2.6681 -1.9880  1.4902
   99bbb     C2 2944   3.594   8.475   3.742  0.0567  0.0140 -0.3021
   99bbb     H3 2945   3.541   8.380   3.751 -1.2475  0.7168 -0.3306
   99bbb     H4 2946   3.527   8.531   3.676  1.8985  1.6634 -0.8689
   99bbb     C3 2947   3.676   8.397   3.522  0.3534  0.4574 -0.2912
   99bbb     H5 2948   3.620   8.476   3.473 -0.6046  0.9596  1.5152
   99bbb     H6 2949   3.606   8.314   3.534  0.0774  0.8826  1.2040
   99bbb     C4 2950   3.780   8.344   3.435  0.7989 -0.0751  0.0729
   99bbb     H7 2951   3.822   8.251   3.477 -0.1928 -0.9254 -0.7474
   99bbb     H8 2952   3.865   8.409   3.412  0.4025  0.0496 -1.1023
   99bbb     C5 2953   3.724   8.695   3.573 -0.0029  0.3120 -0.3735
   99bbb     H9 2954   3.636   8.726   3.631 -2.6727 -1.5567 -3.0637
   99bbb    H10 2955   3.688   8.653   3.478 -0.3399 -1.9728  0.6918
   99bbb     C6 2956   3.615   8.520   3.888 -0.9021  0.4101 -0.7238
   99bbb    H11 2957   3.657   8.621   3.890 -1.9515  0.8494  1.2702
   99bbb    H12 2958   3.685   8.455   3.941 -1.9493  0.7210  1.1150
   99bbb     C7 2959   3.709   8.300   3.297 -0.1140  0.2567 -0.3113
   99bbb    H13 2960   3.794   8.281   3.231  0.2742 -3.8115  1.0809
   99bbb    H14 2961   3.646   8.377   3.252  1.1845  1.6782  0.1794
   99bbb     C8 2962   3.478   8.520   3.948  0.6781 -0.1250  0.0534
   99bbb    H15 2963   3.442   8.416   3.955 -2.1211  0.8646  1.8902
   99bbb    H16 2964   3.482   8.561   4.050 -3.4200  1.3145 -0.2233
   99bbb     C9 2965   3.812   8.818   3.544  0.3392  0.3758 -0.5002
   99bbb    H17 2966   3.762   8.893   3.483  0.0083  0.2362 -0.3999
   99bbb    H18 2967   3.892   8.784   3.477 -0.0412  0.3487 -0.9421
   99bbb     O1 2968   3.635   8.175   3.308 -0.0210  0.0668  0.5771
   99bbb    H19 2969   3.778   8.374   3.707 -0.2577 -1.4470 -0.9872
  100bbb     N1 2970   4.369   7.906   3.100  0.0682 -0.6432  0.3590
  100bbb     C1 2971   4.467   8.000   3.025 -0.5136 -0.0215  0.7215
  100bbb     H1 2972   4.557   7.943   3.001 -0.5730 -0.3237  1.1955
  100bbb     H2 2973   4.480   8.093   3.081 -1.4359  0.5329  0.0455
  100bbb     C2 2974   4.385   7.758   3.070 -0.0546  0.0840 -0.5374
  100bbb     H3 2975   4.477   7.730   3.122  0.2254 -0.7422 -1.4492
  100bbb     H4 2976   4.390   7.756   2.961 -0.8223  2.4501 -0.6715
  100bbb     C3 2977   4.388   7.909   3.246 -0.1856 -0.2450 -0.4869
  100bbb     H5 2978   4.492   7.882   3.268  0.9969  2.5488 -2.1065
  100bbb     H6 2979   4.327   7.835   3.297  0.4644  0.5031  1.5135
  100bbb     C4 2980   4.369   8.046   3.320 -0.4454  0.5360  0.2729
  100bbb     H7 2981   4.318   8.108   3.245  1.3277 -0.1056 -1.5581
  100bbb     H8 2982   4.467   8.089   3.341 -0.0599 -0.6945  1.0839
  100bbb     C5 2983   4.418   8.053   2.886  0.1439 -0.4058  0.0219
  100bbb     H9 2984   4.324   8.108   2.902 -0.1879 -0.4068 -1.7129
  100bbb    H10 2985   4.406   7.973   2.811 -2.4145 -0.3932  0.3074
  100bbb     C6 2986   4.268   7.670   3.117  0.3245 -0.1011  0.0669
  100bbb    H11 2987   4.178   7.725   3.086  1.7101  1.4330 -1.4296
  100bbb    H12 2988   4.261   7.642   3.223  1.6237  1.2162  0.5309
  100bbb     C7 2989   4.278   8.053   3.450  0.3690 -0.1385 -0.0097
  100bbb    H13 2990   4.291   8.151   3.498  1.8752 -0.7900  0.9898
  100bbb    H14 2991   4.322   7.987   3.526 -1.7294 -1.4532  0.1285
  100bbb     C8 2992   4.266   7.529   3.042  0.0515 -0.3490  0.1755
  100bbb    H15 2993   4.169   7.478   3.038  1.4669 -3.1788 -0.3758
  100bbb    H16 2994   4.297   7.544   2.938 -1.1426 -1.0452 -0.3030
  100bbb     C9 2995   4.515   8.167   2.829  0.1142 -0.4513 -0.1076
  100bbb    H17 2996   4.474   8.199   2.733 -5.0851 -2.2644  1.1774
  100bbb    H18 2997   4.618   8.136   2.805  0.5566  0.0349  1.0685
  100bbb     O1 2998   4.139   8.022   3.415 -0.2199  0.9775  0.4135
  100bbb    H19 2999   4.272   7.929   3.076  0.5716  0.0326 -1.2032
  101bbb     N1 3000   3.561   7.891   2.619 -0.0305  0.1528  0.2442
  101bbb     C1 3001   3.502   7.896   2.475  1.0734  0.1859 -0.2946
  101bbb     H1 3002   3.520   7.996   2.435  1.5440 -0.3306 -1.3996
  101bbb     H2 3003   3.395   7.878   2.486  1.2603 -1.8619 -1.3858
  101bbb     C2 3004   3.516   8.002   2.712  0.3246 -0.0555 -0.0570
  101bbb     H3 3005   3.525   7.968   2.815  2.4675  0.8154  0.1098
  101bbb     H4 3006   3.409   8.006   2.693  0.5409  0.5178 -1.2747
  101bbb     C3 3007   3.527   7.749   2.680  1.1753  0.2050 -0.1772
  101bbb     H5 3008   3.580   7.749   2.776  0.9269  0.2516 -0.0408
  101bbb     H6 3009   3.577   7.673   2.620  1.9347  0.4343  0.1503
  101bbb     C4 3010   3.381   7.699   2.706  0.3399  0.5113  0.0515
  101bbb     H7 3011   3.320   7.716   2.616  0.4222  1.2365  0.1314
  101bbb     H8 3012   3.346   7.756   2.793 -0.6344 -2.4002  1.7359
  101bbb     C5 3013   3.563   7.797   2.372 -0.6576 -0.1100 -0.1052
  101bbb     H9 3014   3.538   7.692   2.395 -0.2354 -0.2634 -0.3208
  101bbb    H10 3015   3.673   7.801   2.365 -0.5163 -2.2998  0.0698
  101bbb     C6 3016   3.583   8.144   2.694  0.3792 -0.5950  0.1489
  101bbb    H11 3017   3.583   8.167   2.586 -2.6263 -1.9281 -0.2576
  101bbb    H12 3018   3.689   8.141   2.722  0.6862  0.8003 -0.7782
  101bbb     C7 3019   3.378   7.542   2.741  0.4932 -0.1405  0.6346
  101bbb    H13 3020   3.395   7.486   2.648 -3.3716 -1.1085  0.3431
  101bbb    H14 3021   3.281   7.515   2.782  0.2645  1.4397  1.2079
  101bbb     C8 3022   3.518   8.261   2.760  0.0547 -0.2439 -0.5995
  101bbb    H15 3023   3.410   8.252   2.744 -0.2023 -2.6668  1.7141
  101bbb    H16 3024   3.524   8.258   2.870 -0.9948  2.8212 -0.3674
  101bbb     C9 3025   3.505   7.825   2.227  0.0641 -0.4540 -0.3991
  101bbb    H17 3026   3.552   7.920   2.201 -1.7552  0.9884  1.3090
  101bbb    H18 3027   3.396   7.839   2.221 -0.1537 -1.0829  1.3118
  101bbb     O1 3028   3.479   7.518   2.843  0.1912 -0.1928  0.0962
  101bbb    H19 3029   3.664   7.898   2.618  0.2210 -2.4008  0.6618
  102bbb     N1 3030   3.613   7.045   2.084 -0.0388  0.4709  0.1984
  102bbb     C1 3031   3.579   6.897   2.102  0.3056  0.1775  0.1478
  102bbb     H1 3032   3.521   6.892   2.195 -0.8444 -2.0007 -0.6115
  102bbb     H2 3033   3.667   6.836   2.121 -0.3158 -0.4609  1.0655
  102bbb     C2 3034   3.499   7.138   2.119  0.1808  0.2426 -0.2557
  102bbb     H3 3035   3.511   7.160   2.225 -3.1992  1.1848  0.0335
  102bbb     H4 3036   3.407   7.081   2.114 -0.2632  0.7195  1.5984
  102bbb     C3 3037   3.733   7.073   2.167  0.2062 -0.7133 -0.0906
  102bbb     H5 3038   3.809   6.996   2.150  0.9742  0.1286 -0.5861
  102bbb     H6 3039   3.692   7.069   2.268 -0.9483 -0.3609 -0.5408
  102bbb     C4 3040   3.801   7.211   2.139 -0.3702 -0.4575 -0.3602
  102bbb     H7 3041   3.742   7.298   2.172  2.2109  0.8238  1.1840
  102bbb     H8 3042   3.827   7.216   2.033 -1.9867 -3.3575 -0.9940
  102bbb     C5 3043   3.495   6.835   1.990 -0.3709 -0.1890 -0.0101
  102bbb     H9 3044   3.556   6.837   1.900 -0.6311  0.2881 -0.1767
  102bbb    H10 3045   3.405   6.895   1.971  1.2477  2.2431 -0.3178
  102bbb     C6 3046   3.490   7.260   2.022  0.2734  0.0432 -0.2326
  102bbb    H11 3047   3.571   7.333   2.030  0.3170  0.1347 -1.3191
  102bbb    H12 3048   3.400   7.312   2.056  0.6970  0.4321  0.3003
  102bbb     C7 3049   3.935   7.228   2.226  0.2503  0.2206  0.4202
  102bbb    H13 3050   3.996   7.318   2.209 -0.6493  0.9985  1.1562
  102bbb    H14 3051   4.004   7.145   2.210 -0.7240 -0.2098 -1.7476
  102bbb     C8 3052   3.475   7.210   1.876  0.1329 -0.1302 -0.1388
  102bbb    H15 3053   3.401   7.129   1.877  0.3271 -0.5214 -4.0923
  102bbb    H16 3054   3.436   7.288   1.809  0.6603  1.2168  1.0673
  102bbb     C9 3055   3.450   6.690   2.002  0.8034  0.1769 -0.3425
  102bbb    H17 3056   3.399   6.666   2.096 -1.6930  0.7631 -1.4519
  102bbb    H18 3057   3.534   6.620   2.003 -0.1485 -1.0857  2.4721
  102bbb     O1 3058   3.891   7.230   2.364 -0.2921 -0.6051 -0.2548
  102bbb    H19 3059   3.631   7.064   1.985  0.5461 -0.7723  0.0449
  103bbb     N1 3060   1.512   5.155   4.092 -0.0010  0.0298  0.6671
  103bbb     C1 3061   1.427   5.214   4.207  0.3444 -0.1374 -0.5183
  103bbb     H1 3062   1.453   5.320   4.211  1.6174 -0.4051 -1.0872
  103bbb     H2 3063   1.456   5.165   4.300  1.7158  0.3163 -0.6893
  103bbb     C2 3064   1.550   5.277   4.007 -0.1685  0.0577  0.6967
  103bbb     H3 3065   1.639   5.319   4.054  1.2377  0.3692 -2.0533
  103bbb     H4 3066   1.463   5.342   4.004 -0.9550 -0.9652  0.8692
  103bbb     C3 3067   1.644   5.077   4.127  0.6740 -0.0161  0.0973
  103bbb     H5 3068   1.688   5.139   4.205 -0.4700  1.1904 -0.1776
  103bbb     H6 3069   1.713   5.080   4.042  0.1015  0.2057 -0.3679
  103bbb     C4 3070   1.631   4.942   4.184 -0.9812  0.7307  0.1157
  103bbb     H7 3071   1.558   4.878   4.133  1.0501 -0.9202 -0.8866
  103bbb     H8 3072   1.583   4.963   4.281  1.1777  0.9389  1.2020
  103bbb     C5 3073   1.269   5.188   4.194 -0.8234 -0.3362 -0.6515
  103bbb     H9 3074   1.238   5.241   4.104  0.8447  0.9158 -0.5278
  103bbb    H10 3075   1.228   5.241   4.281 -1.2188 -0.3509 -0.8254
  103bbb     C6 3076   1.603   5.255   3.858  0.0390 -0.8666  0.0323
  103bbb    H11 3077   1.536   5.189   3.802  1.0073 -1.3336 -0.6012
  103bbb    H12 3078   1.702   5.207   3.866 -0.3689 -1.7499 -0.0950
  103bbb     C7 3079   1.767   4.867   4.221  0.7209  0.4050  0.5560
  103bbb    H13 3080   1.795   4.819   4.127 -1.1723 -0.4040  0.3549
  103bbb    H14 3081   1.740   4.788   4.292 -0.7555  0.4440  0.0893
  103bbb     C8 3082   1.611   5.387   3.777 -0.0166 -0.2299  0.4232
  103bbb    H15 3083   1.675   5.467   3.815 -2.7320  1.8570  0.9348
  103bbb    H16 3084   1.645   5.359   3.676  1.5006 -0.8875  1.0764
  103bbb     C9 3085   1.238   5.039   4.198  0.3092 -0.2545  0.3536
  103bbb    H17 3086   1.129   5.028   4.202  0.2532 -1.1566 -2.0359
  103bbb    H18 3087   1.291   4.989   4.280  2.3687 -0.1533 -0.8593
  103bbb     O1 3088   1.863   4.966   4.275 -0.2588 -0.4154  0.0624
  103bbb    H19 3089   1.448   5.093   4.040  0.0417  0.6986 -0.2181
  104bbb     N1 3090   1.793   4.333   4.902 -0.4187  0.4962 -0.5445
  104bbb     C1 3091   1.809   4.190   4.950  0.1160 -0.0121  0.2779
  104bbb     H1 3092   1.898   4.201   5.013  1.1689 -3.0432 -0.4724
  104bbb     H2 3093   1.837   4.138   4.858 -3.3487  1.3910 -1.7330
  104bbb     C2 3094   1.802   4.420   5.030 -0.2609 -0.1937 -0.1705
  104bbb     H3 3095   1.908   4.421   5.057 -0.4472 -0.6159  0.5885
  104bbb     H4 3096   1.739   4.367   5.101 -0.9705  0.7931 -0.0331
  104bbb     C3 3097   1.907   4.370   4.806 -0.1183 -0.2490 -0.0670
  104bbb     H5 3098   1.998   4.360   4.864  0.6639  0.8197 -1.0671
  104bbb     H6 3099   1.887   4.476   4.788 -2.4969 -0.6603 -0.2222
  104bbb     C4 3100   1.905   4.308   4.669 -0.1399 -0.3841  0.0190
  104bbb     H7 3101   1.802   4.314   4.633  0.4737 -0.2759 -1.8010
  104bbb     H8 3102   1.929   4.203   4.691 -1.1830 -0.4951  0.7188
  104bbb     C5 3103   1.679   4.120   5.010  0.7407 -0.4945 -0.4169
  104bbb     H9 3104   1.637   4.173   5.096 -1.0982  0.3940 -1.8044
  104bbb    H10 3105   1.706   4.019   5.044 -0.7167 -0.2808  1.4797
  104bbb     C6 3106   1.735   4.555   5.010  0.3575  0.1017  0.6119
  104bbb    H11 3107   1.628   4.533   5.001  0.6174 -0.4625 -4.4435
  104bbb    H12 3108   1.757   4.602   4.913 -0.4641  0.4826  0.6052
  104bbb     C7 3109   2.025   4.353   4.577  0.6496 -0.2213 -0.2925
  104bbb    H13 3110   2.030   4.288   4.489 -0.3943 -1.2808  0.4099
  104bbb    H14 3111   2.124   4.352   4.625 -0.2439  1.8982  1.7863
  104bbb     C8 3112   1.760   4.658   5.122  0.6405 -0.4088  0.3776
  104bbb    H15 3113   1.866   4.654   5.146  0.5814  0.5979  0.8537
  104bbb    H16 3114   1.742   4.761   5.088 -0.4145 -0.3722  0.9863
  104bbb     C9 3115   1.583   4.087   4.899  1.0943 -0.1204  0.8064
  104bbb    H17 3116   1.508   4.016   4.936  1.7272 -1.8544 -1.0703
  104bbb    H18 3117   1.634   4.020   4.829  1.7409 -0.6434  1.7500
  104bbb     O1 3118   1.999   4.487   4.538  0.8665  0.0563  0.5717
  104bbb    H19 3119   1.698   4.334   4.863 -0.2871 -0.6279 -0.9338
  105bbb     N1 3120   2.050   3.887   3.289 -0.5467 -0.1334 -0.0775
  105bbb     C1 3121   1.931   3.797   3.267  0.4021  1.0375  0.2267
  105bbb     H1 3122   1.875   3.840   3.184  1.2302  2.6374  0.4575
  105bbb     H2 3123   1.883   3.811   3.365  0.4360  1.2528  0.2126
  105bbb     C2 3124   2.135   3.910   3.162 -0.1145 -0.4163  0.0292
  105bbb     H3 3125   2.078   3.974   3.095  2.8451  0.3538 -2.0053
  105bbb     H4 3126   2.168   3.812   3.126  0.6580  0.0747 -0.6509
  105bbb     C3 3127   1.993   4.021   3.329 -0.3351  0.1297 -0.2047
  105bbb     H5 3128   1.902   3.990   3.380 -1.6833  1.4778 -1.6577
  105bbb     H6 3129   1.974   4.080   3.239  3.9272  2.4132  0.0960
  105bbb     C4 3130   2.071   4.110   3.432 -0.8264 -0.8015 -0.1957
  105bbb     H7 3131   2.180   4.107   3.443 -0.7388  2.5944  0.9855
  105bbb     H8 3132   2.050   4.076   3.534  1.2138 -1.3078  0.0975
  105bbb     C5 3133   1.960   3.640   3.246 -0.0700 -0.0219 -0.3914
  105bbb     H9 3134   2.034   3.637   3.326  1.0608 -1.4043 -1.4429
  105bbb    H10 3135   2.052   3.664   3.191 -0.1623 -2.0774 -1.5529
  105bbb     C6 3136   2.267   3.993   3.190  0.1548 -0.4062 -0.5671
  105bbb    H11 3137   2.224   4.085   3.233 -0.1808 -0.8624  0.0784
  105bbb    H12 3138   2.314   4.021   3.095  0.9543  0.5769  0.0993
  105bbb     C7 3139   2.050   4.269   3.422 -0.1497  0.4155 -0.5171
  105bbb    H13 3140   2.097   4.322   3.506  1.8156 -2.5290  0.4254
  105bbb    H14 3141   1.942   4.287   3.417 -0.5014 -1.4943 -0.5993
  105bbb     C8 3142   2.367   3.924   3.285  0.0709  0.0875 -0.3387
  105bbb    H15 3143   2.459   3.984   3.281  0.4289 -0.3659  0.7376
  105bbb    H16 3144   2.332   3.922   3.389 -1.1324 -2.8220 -0.7029
  105bbb     C9 3145   1.820   3.424   3.177 -0.2378  0.6143  0.3188
  105bbb    H17 3146   1.880   3.333   3.176 -0.4959  0.4421  0.3147
  105bbb    H18 3147   1.797   3.402   3.072  1.7139 -0.1127  0.0167
  105bbb     O1 3148   2.111   4.319   3.307 -0.1651 -0.3390  0.0851
  105bbb    H19 3149   2.100   3.854   3.373 -0.0781  1.5377  0.3301
  106bbb     N1 3150   1.604   4.731   3.095  0.5114 -0.1792  0.4847
  106bbb     C1 3151   1.691   4.718   2.966  0.2824  0.4293 -0.2269
  106bbb     H1 3152   1.635   4.660   2.893  0.8972 -0.3199 -0.1137
  106bbb     H2 3153   1.773   4.652   2.995  0.1035  0.5326  0.5423
  106bbb     C2 3154   1.507   4.610   3.109 -1.0197  0.2293 -0.3213
  106bbb     H3 3155   1.467   4.606   3.210  1.4837 -2.9208  0.7064
  106bbb     H4 3156   1.566   4.519   3.105  0.8197  1.3629 -0.0313
  106bbb     C3 3157   1.698   4.730   3.214  1.1864 -0.0491 -0.0531
  106bbb     H5 3158   1.784   4.793   3.190  2.0148 -1.3245 -0.5128
  106bbb     H6 3159   1.730   4.626   3.222 -0.3056 -0.6216 -1.0997
  106bbb     C4 3160   1.636   4.769   3.344 -0.3637 -0.4708  0.3115
  106bbb     H7 3161   1.559   4.695   3.368  0.1662 -0.3517  2.5419
  106bbb     H8 3162   1.594   4.871   3.336  1.3841  0.2149 -0.6975
  106bbb     C5 3163   1.747   4.848   2.913  0.6609 -0.3682  0.3203
  106bbb     H9 3164   1.799   4.825   2.819  1.7548  1.8294  0.3329
  106bbb    H10 3165   1.829   4.887   2.975  2.2076 -1.1254 -1.1644
  106bbb     C6 3166   1.388   4.607   3.010  0.6692  0.5674 -0.2793
  106bbb    H11 3167   1.324   4.518   3.014  0.4545  0.4982 -3.1254
  106bbb    H12 3168   1.436   4.592   2.912 -0.8165  0.6839 -1.0466
  106bbb     C7 3169   1.737   4.774   3.458 -0.5444  0.1417 -0.3125
  106bbb    H13 3170   1.680   4.796   3.549 -0.8433 -3.2601  0.4953
  106bbb    H14 3171   1.811   4.851   3.433  0.3668 -0.0274  1.6098
  106bbb     C8 3172   1.299   4.733   2.999 -0.8010 -0.8000 -0.0433
  106bbb    H15 3173   1.349   4.826   2.970 -0.5159  1.1258  5.3726
  106bbb    H16 3174   1.207   4.723   2.941 -0.8659  3.3143 -0.9143
  106bbb     C9 3175   1.638   4.956   2.894 -0.5380 -0.0339 -0.5887
  106bbb    H17 3176   1.559   4.920   2.826  0.2855  0.1234 -1.6604
  106bbb    H18 3177   1.683   5.041   2.841 -0.5318 -0.3601 -1.1092
  106bbb     O1 3178   1.791   4.646   3.465 -0.2611 -0.6268  0.0056
  106bbb    H19 3179   1.552   4.819   3.087 -0.6233 -0.9431 -0.9926
  107bbb     N1 3180   2.384   5.828   6.188 -0.1255  0.1797  0.7397
  107bbb     C1 3181   2.339   5.737   6.302  0.0010  0.0100  0.1864
  107bbb     H1 3182   2.407   5.733   6.387 -0.4070  1.9594  0.6479
  107bbb     H2 3183   2.313   5.640   6.258 -0.2723  0.0749  0.2004
  107bbb     C2 3184   2.458   5.951   6.233  0.4430  0.7379 -0.0872
  107bbb     H3 3185   2.563   5.923   6.237  0.5588  1.2327  0.6127
  107bbb     H4 3186   2.426   5.975   6.335  1.5008 -3.3226  1.3793
  107bbb     C3 3187   2.472   5.751   6.082  0.6592 -0.1538  0.5141
  107bbb     H5 3188   2.500   5.816   6.000  0.5236 -1.3464 -0.5062
  107bbb     H6 3189   2.408   5.670   6.048 -1.3416  1.1911  0.9129
  107bbb     C4 3190   2.605   5.689   6.136  0.3252  0.0095  0.0286
  107bbb     H7 3191   2.598   5.652   6.240  2.2230 -2.0531 -0.5113
  107bbb     H8 3192   2.688   5.759   6.150  1.7936 -1.9359  1.5441
  107bbb     C5 3193   2.204   5.772   6.370  0.3526 -0.4094 -0.6816
  107bbb     H9 3194   2.215   5.857   6.438  0.8896 -0.3296 -0.8653
  107bbb    H10 3195   2.170   5.689   6.433  1.1164 -0.1845  0.0418
  107bbb     C6 3196   2.445   6.073   6.140 -0.4632  0.7260 -0.0221
  107bbb    H11 3197   2.343   6.110   6.147 -0.8040 -0.2056  0.1064
  107bbb    H12 3198   2.457   6.042   6.035  0.5626 -0.4897  0.4251
  107bbb     C7 3199   2.664   5.581   6.047 -0.1879 -0.1595 -0.2467
  107bbb    H13 3200   2.598   5.494   6.033 -2.0871  1.3228 -0.9631
  107bbb    H14 3201   2.761   5.549   6.086 -0.6201 -0.4307  0.6205
  107bbb     C8 3202   2.543   6.194   6.167 -0.2995  0.1505  0.5319
  107bbb    H15 3203   2.537   6.232   6.270  0.0184  1.2880  0.1469
  107bbb    H16 3204   2.649   6.164   6.166 -0.1436  0.5898  1.6607
  107bbb     C9 3205   2.091   5.800   6.276  0.3140  0.2039 -0.0352
  107bbb    H17 3206   2.005   5.810   6.343  0.6840 -0.1337  0.5052
  107bbb    H18 3207   2.055   5.716   6.215 -2.2771  0.6932  0.7141
  107bbb     O1 3208   2.682   5.640   5.918  0.2716 -0.0837 -0.1514
  107bbb    H19 3209   2.294   5.861   6.150  0.0834  0.6419  0.6336
  108bbb     N1 3210   3.412   5.533   5.787 -0.3031  0.0142 -0.1716
  108bbb     C1 3211   3.300   5.465   5.869  0.0052  0.7060 -0.7931
  108bbb     H1 3212   3.278   5.378   5.806 -1.6348  0.2140  0.3994
  108bbb     H2 3213   3.212   5.527   5.881 -0.0797  0.5846 -0.7805
  108bbb     C2 3214   3.505   5.426   5.730 -0.3666  0.1330  0.4528
  108bbb     H3 3215   3.448   5.351   5.675 -2.9992  2.9752 -1.0439
  108bbb     H4 3216   3.540   5.380   5.822 -0.5909  0.5174  0.7365
  108bbb     C3 3217   3.344   5.612   5.673 -0.3248 -0.0318 -0.3862
  108bbb     H5 3218   3.273   5.550   5.619 -0.4569  1.7105 -2.3153
  108bbb     H6 3219   3.430   5.651   5.619  0.8859 -0.5270  1.0957
  108bbb     C4 3220   3.256   5.735   5.729 -0.5222 -0.1112  0.1549
  108bbb     H7 3221   3.302   5.773   5.820  2.0451 -0.2500 -1.0081
  108bbb     H8 3222   3.154   5.702   5.752 -1.5154  3.3019  1.1135
  108bbb     C5 3223   3.360   5.426   6.013  0.2142  0.4579  0.6507
  108bbb     H9 3224   3.456   5.374   6.003  0.1031  0.4727 -0.7051
  108bbb    H10 3225   3.301   5.351   6.067  0.2160 -0.7560 -0.9677
  108bbb     C6 3226   3.634   5.469   5.656 -0.2199  0.0580  0.1318
  108bbb    H11 3227   3.708   5.395   5.688 -0.8261 -0.7416 -0.2871
  108bbb    H12 3228   3.669   5.568   5.686 -0.5183  0.0560  0.4998
  108bbb     C7 3229   3.243   5.844   5.623 -0.9352 -0.7508 -0.3707
  108bbb    H13 3230   3.340   5.883   5.590 -0.0875 -2.1794  0.3415
  108bbb    H14 3231   3.185   5.922   5.673  2.0109  0.9231  0.6411
  108bbb     C8 3232   3.622   5.458   5.503  0.4720  0.6309  0.1241
  108bbb    H15 3233   3.643   5.355   5.473  2.6439  1.1041 -0.2015
  108bbb    H16 3234   3.518   5.479   5.477  0.8644  2.4376 -0.1646
  108bbb     C9 3235   3.369   5.547   6.106 -0.8443  0.2462  0.6088
  108bbb    H17 3236   3.421   5.505   6.193 -1.1572 -4.9260 -1.3784
  108bbb    H18 3237   3.267   5.581   6.131 -0.7200  0.6787  0.5365
  108bbb     O1 3238   3.176   5.799   5.505  0.8386  0.0388  0.0902
  108bbb    H19 3239   3.465   5.599   5.846  2.3001 -1.0088 -1.2452
  109bbb     N1 3240   2.335   6.860   4.868  0.0748  0.0470  0.4644
  109bbb     C1 3241   2.292   6.926   5.000  0.4359 -0.4809 -0.2880
  109bbb     H1 3242   2.356   6.893   5.082 -1.3707  0.1200  1.4506
  109bbb     H2 3243   2.190   6.896   5.023  0.4427 -0.9417 -0.8312
  109bbb     C2 3244   2.464   6.779   4.897 -0.2786 -0.7593  0.1968
  109bbb     H3 3245   2.424   6.683   4.930  0.2217 -0.9585  0.2340
  109bbb     H4 3246   2.522   6.840   4.966 -0.0840  0.1718 -0.7755
  109bbb     C3 3247   2.230   6.776   4.805 -0.5520 -0.2596  0.0428
  109bbb     H5 3248   2.192   6.713   4.886  0.0416 -0.4896  0.1435
  109bbb     H6 3249   2.284   6.717   4.730 -0.2461  2.1081 -1.7244
  109bbb     C4 3250   2.120   6.858   4.732 -0.3375  0.0751 -0.1478
  109bbb     H7 3251   2.162   6.932   4.662  0.7859  2.2440  2.6505
  109bbb     H8 3252   2.060   6.912   4.806  0.6517 -0.0874  0.8058
  109bbb     C5 3253   2.296   7.077   5.008 -0.3589 -0.9263 -0.1969
  109bbb     H9 3254   2.398   7.111   5.028 -0.9123  0.0434  1.1523
  109bbb    H10 3255   2.244   7.108   5.100  0.2565  0.0375 -0.1485
  109bbb     C6 3256   2.563   6.754   4.773  0.8418  0.1467  0.4108
  109bbb    H11 3257   2.574   6.850   4.721  1.5374  1.3508  2.6724
  109bbb    H12 3258   2.515   6.685   4.702  2.7690  0.0953 -0.9184
  109bbb     C7 3259   2.033   6.772   4.637  0.3874 -0.7218 -0.1959
  109bbb    H13 3260   1.944   6.834   4.623 -0.9943 -2.1064  1.9811
  109bbb    H14 3261   2.008   6.680   4.690 -1.6223  0.2975  0.7038
  109bbb     C8 3262   2.696   6.698   4.819 -0.2025  0.8129 -1.4136
  109bbb    H15 3263   2.682   6.646   4.915  2.6402  1.2041 -0.6822
  109bbb    H16 3264   2.729   6.620   4.749 -1.3257 -0.2194 -0.8344
  109bbb     C9 3265   2.243   7.165   4.897 -0.2675 -0.2162 -0.2512
  109bbb    H17 3266   2.252   7.267   4.935 -0.3843 -0.3683  0.1817
  109bbb    H18 3267   2.136   7.157   4.875  0.0849 -0.4805 -2.0962
  109bbb     O1 3268   2.110   6.740   4.518 -0.0592 -0.0161  0.4805
  109bbb    H19 3269   2.350   6.937   4.801  0.1155 -0.7307 -0.4441
  110bbb     N1 3270   1.346   6.608   4.749  0.8999  0.4679 -0.5044
  110bbb     C1 3271   1.373   6.755   4.756 -0.3755  0.2689 -0.2470
  110bbb     H1 3272   1.277   6.799   4.730  0.2311  1.7010 -0.1979
  110bbb     H2 3273   1.451   6.765   4.681  0.4002 -0.4067  0.4432
  110bbb     C2 3274   1.268   6.572   4.626  0.5831 -0.2236  1.0829
  110bbb     H3 3275   1.274   6.465   4.607 -0.9512 -0.1277 -0.1199
  110bbb     H4 3276   1.311   6.619   4.537 -1.5330  1.5523  0.9145
  110bbb     C3 3277   1.475   6.536   4.749 -0.5333  0.2429 -0.1102
  110bbb     H5 3278   1.525   6.562   4.842  0.1990 -0.2578 -0.3523
  110bbb     H6 3279   1.555   6.563   4.681 -0.5763  0.4431 -0.0821
  110bbb     C4 3280   1.461   6.383   4.747  0.2202 -0.5260  0.8020
  110bbb     H7 3281   1.445   6.351   4.643  1.4234  0.1967  0.3790
  110bbb     H8 3282   1.372   6.358   4.807 -0.0627  1.0650  1.0773
  110bbb     C5 3283   1.415   6.812   4.894  0.1836 -0.2441 -0.7373
  110bbb     H9 3284   1.516   6.784   4.927  0.5991  1.3573 -0.5463
  110bbb    H10 3285   1.347   6.764   4.966  0.9345  1.7345  1.4377
  110bbb     C6 3286   1.116   6.611   4.634  0.0583  1.1552  0.4105
  110bbb    H11 3287   1.073   6.593   4.535  0.8605 -1.0399  0.4099
  110bbb    H12 3288   1.115   6.719   4.655  0.9914  1.1776  0.3817
  110bbb     C7 3289   1.580   6.302   4.796  0.0756 -0.2196 -0.2122
  110bbb    H13 3290   1.550   6.197   4.783 -1.4603 -0.0282  1.3191
  110bbb    H14 3291   1.581   6.334   4.901  0.0773 -1.9128  0.3402
  110bbb     C8 3292   1.041   6.525   4.742  0.1312  0.2402  0.3260
  110bbb    H15 3293   1.067   6.559   4.843 -1.0971 -2.1697  1.5543
  110bbb    H16 3294   0.932   6.533   4.730  0.2983  2.7932  0.0771
  110bbb     C9 3295   1.418   6.962   4.899 -0.4196  0.4121  0.1477
  110bbb    H17 3296   1.449   6.987   5.001 -0.3773 -0.6720  0.4038
  110bbb    H18 3297   1.315   6.999   4.888 -0.4692  1.1433  2.5792
  110bbb     O1 3298   1.707   6.331   4.736  0.0307 -0.2435  0.0673
  110bbb    H19 3299   1.286   6.569   4.823  0.4314  2.2755  0.1143
  111bbb     N1 3300   7.763   6.033   1.953 -0.5055 -0.3284 -0.1224
  111bbb     C1 3301   7.706   6.018   1.813 -0.6539 -0.3508  0.4098
  111bbb     H1 3302   7.749   6.103   1.759  0.1021  0.1777  1.8116
  111bbb     H2 3303   7.597   6.016   1.821 -0.6622 -0.5655  0.2571
  111bbb     C2 3304   7.812   6.168   1.986  0.3848  0.0061  0.2692
  111bbb     H3 3305   7.779   6.189   2.087  1.7826 -0.4819  0.8545
  111bbb     H4 3306   7.765   6.233   1.911  0.2345 -2.8995 -2.3670
  111bbb     C3 3307   7.653   6.004   2.056  0.0785 -1.0664  0.3474
  111bbb     H5 3308   7.582   6.086   2.041 -0.1223 -1.3835 -0.5073
  111bbb     H6 3309   7.699   6.009   2.155  0.8172 -0.3167 -0.0204
  111bbb     C4 3310   7.580   5.869   2.060 -0.3958 -0.4793 -0.1969
  111bbb     H7 3311   7.659   5.793   2.063 -0.2567 -0.4593 -2.2006
  111bbb     H8 3312   7.518   5.847   1.972 -1.1893  0.7088  0.0415
  111bbb     C5 3313   7.740   5.880   1.747 -0.1310 -0.2957  0.2042
  111bbb     H9 3314   7.724   5.890   1.639  0.7735  0.4999  0.1264
  111bbb    H10 3315   7.676   5.800   1.786 -0.0277  0.4169  1.9093
  111bbb     C6 3316   7.968   6.183   1.972  0.1800  0.0611  0.7414
  111bbb    H11 3317   7.992   6.179   1.865 -0.9851  2.1197  0.3330
  111bbb    H12 3318   8.015   6.103   2.030 -0.7211 -0.9895  0.0630
  111bbb     C7 3319   7.499   5.851   2.198 -0.0470  0.2624  0.2389
  111bbb    H13 3320   7.562   5.875   2.285 -0.0726 -0.1569  0.3751
  111bbb    H14 3321   7.468   5.747   2.212 -0.5708  0.5870  1.6924
  111bbb     C8 3322   8.007   6.322   2.023 -0.5357  0.1060  0.9718
  111bbb    H15 3323   8.115   6.334   2.006 -0.5881 -0.8486 -0.1454
  111bbb    H16 3324   7.966   6.394   1.951  1.8813 -0.3730 -1.0471
  111bbb     C9 3325   7.887   5.850   1.764  0.2536 -0.1344  0.3206
  111bbb    H17 3326   7.949   5.924   1.711  0.9160 -0.4424  0.6576
  111bbb    H18 3327   7.902   5.761   1.701 -1.9701  1.7732 -3.2377
  111bbb     O1 3328   7.373   5.929   2.199 -0.2390  0.1907  0.2837
  111bbb    H19 3329   7.846   5.973   1.954  0.1765  0.5666 -0.7267
  112bbb     N1 3330   6.718   5.822   1.664 -0.0820 -0.4071  0.6767
  112bbb     C1 3331   6.631   5.850   1.539 -0.4364  0.2911 -0.7072
  112bbb     H1 3332   6.697   5.896   1.465  0.1589 -0.0522 -0.3948
  112bbb     H2 3333   6.561   5.923   1.580 -1.9263 -2.2586  1.6438
  112bbb     C2 3334   6.818   5.721   1.632 -0.9899  0.0634  0.4135
  112bbb     H3 3335   6.888   5.758   1.557 -1.4360 -0.5104 -0.2965
  112bbb     H4 3336   6.761   5.639   1.587 -0.8885  0.6168 -0.7465
  112bbb     C3 3337   6.794   5.953   1.694  0.3487 -0.3074 -0.5338
  112bbb     H5 3338   6.800   6.000   1.595 -0.6491  0.4792 -0.2431
  112bbb     H6 3339   6.891   5.933   1.740 -0.4349 -0.4786  1.0894
  112bbb     C4 3340   6.723   6.052   1.792  0.7285 -0.1603 -0.1451
  112bbb     H7 3341   6.700   6.005   1.888  1.7412  1.4023  0.9072
  112bbb     H8 3342   6.620   6.063   1.756  0.0570 -1.3079  1.3226
  112bbb     C5 3343   6.545   5.745   1.472  0.1269  0.4275  0.0598
  112bbb     H9 3344   6.464   5.799   1.422 -1.4175 -0.9135  1.0491
  112bbb    H10 3345   6.499   5.676   1.543  1.5340 -2.0712 -1.3019
  112bbb     C6 3346   6.899   5.673   1.753 -0.1528  0.3570  0.2827
  112bbb    H11 3347   6.837   5.653   1.841  0.5176 -1.6425  0.3461
  112bbb    H12 3348   6.965   5.748   1.799  0.1063  1.1679 -1.3349
  112bbb     C7 3349   6.793   6.192   1.809 -0.1620  0.2483 -0.5788
  112bbb    H13 3350   6.729   6.274   1.845  1.4884  2.5802 -2.5875
  112bbb    H14 3351   6.818   6.237   1.712  0.5103  0.1896 -0.4404
  112bbb     C8 3352   6.979   5.544   1.710 -0.0114 -0.3318  0.0644
  112bbb    H15 3353   7.056   5.556   1.634  0.2669  0.3162  0.4363
  112bbb    H16 3354   7.037   5.508   1.796  2.5284 -0.3822 -1.5721
  112bbb     C9 3355   6.620   5.665   1.362  0.2365 -0.2463 -0.0909
  112bbb    H17 3356   6.547   5.609   1.302 -0.5985  1.5496 -0.8073
  112bbb    H18 3357   6.692   5.598   1.411 -0.0935 -0.7613 -0.3056
  112bbb     O1 3358   6.920   6.182   1.882  0.0542 -0.5674  0.2921
  112bbb    H19 3359   6.651   5.809   1.742 -3.2341  1.2636 -1.5203
  113bbb     N1 3360   6.550   7.614   1.479  0.2407 -0.5143 -0.5633
  113bbb     C1 3361   6.412   7.622   1.556  0.5965 -0.7174  0.1726
  113bbb     H1 3362   6.429   7.578   1.654 -1.0661  0.0283  0.8259
  113bbb     H2 3363   6.336   7.570   1.499 -1.1128  0.9547  0.8284
  113bbb     C2 3364   6.642   7.724   1.542  0.3932 -0.0054  0.4621
  113bbb     H3 3365   6.665   7.699   1.646 -3.0138 -1.8886  0.9207
  113bbb     H4 3366   6.591   7.820   1.552 -0.6469 -0.5088  0.1101
  113bbb     C3 3367   6.609   7.475   1.506  0.5825  0.1179 -0.2531
  113bbb     H5 3368   6.606   7.451   1.612 -1.5424 -0.4161 -0.3830
  113bbb     H6 3369   6.710   7.499   1.472  0.8774 -0.5490  0.1404
  113bbb     C4 3370   6.547   7.357   1.427  0.0187  0.2542  0.4530
  113bbb     H7 3371   6.631   7.290   1.405 -0.8137 -0.6292 -0.0943
  113bbb     H8 3372   6.505   7.384   1.329 -1.2007 -1.2090  0.5465
  113bbb     C5 3373   6.362   7.765   1.579 -0.3313 -0.2055 -0.4054
  113bbb     H9 3374   6.367   7.828   1.489 -1.0341 -0.9761 -1.0117
  113bbb    H10 3375   6.418   7.816   1.658 -0.8100 -0.2880 -0.0039
  113bbb     C6 3376   6.767   7.754   1.458  0.6275 -0.0720 -0.4328
  113bbb    H11 3377   6.813   7.656   1.440  0.0069 -0.6352  0.8962
  113bbb    H12 3378   6.842   7.812   1.515  1.1280 -1.1563  0.0379
  113bbb     C7 3379   6.435   7.282   1.496 -0.0261  0.4655  0.0744
  113bbb    H13 3380   6.409   7.206   1.421 -1.1779  0.1272  0.8030
  113bbb    H14 3381   6.350   7.348   1.513  1.4305  2.1838  1.0338
  113bbb     C8 3382   6.729   7.827   1.332 -0.2016  0.2365 -0.7334
  113bbb    H15 3383   6.812   7.843   1.262  0.3319  0.3606 -0.0737
  113bbb    H16 3384   6.658   7.762   1.278  1.3436 -1.3447 -0.9551
  113bbb     C9 3385   6.221   7.767   1.637 -0.2437 -0.1752 -0.1599
  113bbb    H17 3386   6.146   7.750   1.559 -0.0627  0.6563 -0.5214
  113bbb    H18 3387   6.197   7.866   1.677  0.1489 -0.5879  1.1575
  113bbb     O1 3388   6.479   7.220   1.622 -0.0660  0.1569  0.1577
  113bbb    H19 3389   6.534   7.632   1.379 -1.4222  1.3910 -0.0218
  114bbb     N1 3390   6.460   7.406   2.444  0.2829  0.2394  0.2265
  114bbb     C1 3391   6.324   7.451   2.397 -0.4598 -0.0021  0.1937
  114bbb     H1 3392   6.260   7.373   2.439 -1.8260  1.0918  0.2222
  114bbb     H2 3393   6.312   7.435   2.290  0.9185  0.0590  0.0081
  114bbb     C2 3394   6.455   7.375   2.596 -0.6233  0.1546  0.0668
  114bbb     H3 3395   6.388   7.292   2.618 -1.0095  0.7616  1.3007
  114bbb     H4 3396   6.425   7.466   2.649 -1.1568 -1.2778  2.3804
  114bbb     C3 3397   6.515   7.285   2.369  0.6169  0.6984  0.1379
  114bbb     H5 3398   6.466   7.190   2.387  0.0412  0.2675 -3.0481
  114bbb     H6 3399   6.619   7.287   2.403  0.4918 -1.3663  0.7415
  114bbb     C4 3400   6.507   7.300   2.219 -0.7680  0.1665 -0.2720
  114bbb     H7 3401   6.531   7.405   2.197 -1.7100  0.1875 -1.2854
  114bbb     H8 3402   6.407   7.272   2.185 -0.5312 -1.7970  0.5058
  114bbb     C5 3403   6.274   7.592   2.437 -0.9698  0.0020  0.6905
  114bbb     H9 3404   6.257   7.583   2.545 -0.1670 -1.3670  0.7278
  114bbb    H10 3405   6.176   7.619   2.396 -0.1755  0.2688 -1.1750
  114bbb     C6 3406   6.586   7.323   2.668 -0.4589 -0.1905  0.0492
  114bbb    H11 3407   6.678   7.370   2.633  0.1074 -0.6825  0.8408
  114bbb    H12 3408   6.601   7.216   2.646 -0.0337  0.2029 -1.7494
  114bbb     C7 3409   6.609   7.208   2.145 -0.4831  0.3921  0.3121
  114bbb    H13 3410   6.712   7.219   2.183 -0.3908 -1.2009  0.5952
  114bbb    H14 3411   6.610   7.232   2.038  0.7212 -0.2499  0.1691
  114bbb     C8 3412   6.566   7.352   2.820 -0.1751 -0.6873  0.4915
  114bbb    H15 3413   6.565   7.460   2.837  0.6491 -0.5560 -0.2065
  114bbb    H16 3414   6.468   7.312   2.849  0.4348 -1.2598  1.7859
  114bbb     C9 3415   6.374   7.711   2.410  0.2807  0.2449 -0.2753
  114bbb    H17 3416   6.336   7.797   2.467 -0.0606 -1.1325  1.6619
  114bbb    H18 3417   6.369   7.734   2.302 -0.8016 -2.4909 -0.9050
  114bbb     O1 3418   6.567   7.074   2.150 -0.1772  0.3929  0.0074
  114bbb    H19 3419   6.522   7.485   2.425  2.2672 -1.1440  0.6832
  115bbb     N1 3420   7.827   6.712   4.259  0.6222 -0.0181  0.0114
  115bbb     C1 3421   7.923   6.777   4.359 -0.0322  0.2382 -0.2293
  115bbb     H1 3422   7.896   6.753   4.462 -1.0501 -1.5100 -0.8668
  115bbb     H2 3423   7.910   6.885   4.366 -2.7552 -0.1096  1.5689
  115bbb     C2 3424   7.760   6.593   4.317  0.2059 -0.7189 -0.6184
  115bbb     H3 3425   7.667   6.571   4.264 -1.4119  0.7386  1.4230
  115bbb     H4 3426   7.737   6.617   4.421 -0.4294 -1.0948 -0.6672
  115bbb     C3 3427   7.723   6.820   4.230 -0.9418 -0.1721 -0.8430
  115bbb     H5 3428   7.780   6.913   4.224 -0.5660 -0.4242 -1.2664
  115bbb     H6 3429   7.652   6.825   4.313 -0.0315 -1.4712  0.0482
  115bbb     C4 3430   7.648   6.821   4.095  0.9172  0.1986 -0.4968
  115bbb     H7 3431   7.713   6.831   4.007  0.2000 -0.6731 -1.1542
  115bbb     H8 3432   7.586   6.911   4.088 -1.0406 -1.1241 -1.2434
  115bbb     C5 3433   8.069   6.738   4.311 -0.3570 -0.0627  0.4805
  115bbb     H9 3434   8.094   6.636   4.343  2.1797  0.4929  0.4685
  115bbb    H10 3435   8.134   6.797   4.377 -0.4386 -0.2622  0.7445
  115bbb     C6 3436   7.835   6.458   4.328 -1.2325 -0.0611 -0.0137
  115bbb    H11 3437   7.927   6.458   4.388 -0.1217 -1.9397 -1.6060
  115bbb    H12 3438   7.879   6.432   4.232  2.6214  0.2133  1.5098
  115bbb     C7 3439   7.549   6.698   4.076  0.2518  0.7942  0.0856
  115bbb    H13 3440   7.607   6.607   4.095 -0.0754  0.8291  1.3910
  115bbb    H14 3441   7.515   6.701   3.972  0.3242  1.6908  0.0783
  115bbb     C8 3442   7.744   6.354   4.374  0.1764  0.6102  0.3684
  115bbb    H15 3443   7.659   6.341   4.306  1.7304 -0.4794 -1.4751
  115bbb    H16 3444   7.801   6.260   4.375 -1.5048 -0.4378  1.1621
  115bbb     C9 3445   8.100   6.771   4.164  0.2526 -0.6171 -0.2302
  115bbb    H17 3446   8.206   6.796   4.149  0.5978 -1.2306  1.0624
  115bbb    H18 3447   8.061   6.870   4.136  0.1988 -1.1051 -1.9879
  115bbb     O1 3448   7.443   6.703   4.182  0.4039 -0.1694  0.2200
  115bbb    H19 3449   7.876   6.680   4.174  2.0823 -0.7143  1.0775
  116bbb     N1 3450   7.152   7.231   3.936  1.0609  0.2790  0.1571
  116bbb     C1 3451   7.163   7.245   4.088 -0.0549  0.2870  0.5110
  116bbb     H1 3452   7.198   7.148   4.125  0.9766 -0.5765 -2.4640
  116bbb     H2 3453   7.068   7.257   4.142  0.0950 -0.0687  0.8653
  116bbb     C2 3454   7.291   7.202   3.869 -0.8087  0.1145 -0.0438
  116bbb     H3 3455   7.323   7.108   3.915 -2.0403  0.1889  1.0318
  116bbb     H4 3456   7.354   7.281   3.910 -1.3616  0.3771  0.3119
  116bbb     C3 3457   7.055   7.118   3.901  0.1968 -0.4180  0.7615
  116bbb     H5 3458   7.087   7.032   3.959  0.8575 -1.3998 -0.9689
  116bbb     H6 3459   7.075   7.096   3.796 -0.7341 -2.5801  0.9724
  116bbb     C4 3460   6.906   7.155   3.938 -0.2046 -0.4162  0.3666
  116bbb     H7 3461   6.872   7.247   3.889  0.1296 -1.1688 -1.3416
  116bbb     H8 3462   6.895   7.174   4.046 -0.8373  1.5964 -0.0147
  116bbb     C5 3463   7.259   7.352   4.136 -0.4831  0.1550  0.1144
  116bbb     H9 3464   7.206   7.448   4.120  1.5859  1.5359  1.1394
  116bbb    H10 3465   7.349   7.357   4.073 -0.4255 -0.9766  0.0925
  116bbb     C6 3466   7.300   7.198   3.713 -0.2379  0.1022  0.1169
  116bbb    H11 3467   7.273   7.299   3.679 -0.2367  0.0401 -0.0668
  116bbb    H12 3468   7.230   7.125   3.670  0.0737  0.7671 -1.5755
  116bbb     C7 3469   6.813   7.035   3.915 -0.2080 -0.1592  0.2410
  116bbb    H13 3470   6.815   7.022   3.806 -0.8704  2.3560 -0.1389
  116bbb    H14 3471   6.713   7.061   3.951 -0.3892 -0.7851  0.1961
  116bbb     C8 3472   7.439   7.161   3.664  0.2628 -0.3386  0.0891
  116bbb    H15 3473   7.454   7.064   3.712 -0.5927 -0.2078  0.6355
  116bbb    H16 3474   7.440   7.153   3.554  1.6857  0.1272  0.0463
  116bbb     C9 3475   7.285   7.340   4.284  0.3254 -0.0880 -0.7463
  116bbb    H17 3476   7.306   7.234   4.307 -0.7509 -0.3384 -0.8502
  116bbb    H18 3477   7.191   7.362   4.338  1.5228 -0.4282  1.6288
  116bbb     O1 3478   6.872   6.923   3.987 -0.1150  0.4486 -0.6570
  116bbb    H19 3479   7.115   7.317   3.893 -0.6263  0.7147  2.3096
  117bbb     N1 3480   6.698   4.971   4.272 -0.3830  0.3515 -0.2323
  117bbb     C1 3481   6.845   4.955   4.242 -0.3985  0.9122  0.2173
  117bbb     H1 3482   6.876   4.914   4.338  0.4771 -0.2962 -0.5683
  117bbb     H2 3483   6.889   5.055   4.239  1.8308 -0.0377 -1.6377
  117bbb     C2 3484   6.676   5.074   4.386 -0.0136 -0.1010 -0.4023
  117bbb     H3 3485   6.570   5.071   4.412 -1.2861  1.6118 -4.4450
  117bbb     H4 3486   6.706   5.172   4.349  1.8264 -0.9064 -1.1730
  117bbb     C3 3487   6.631   5.037   4.153 -0.1943 -0.2489  0.4491
  117bbb     H5 3488   6.668   4.974   4.072  1.3374  1.0326  0.1022
  117bbb     H6 3489   6.681   5.130   4.127 -1.0114  0.3821  1.1206
  117bbb     C4 3490   6.475   5.061   4.160 -0.0961  0.5689  0.5632
  117bbb     H7 3491   6.443   5.127   4.242 -0.3402 -1.0533  1.8225
  117bbb     H8 3492   6.430   4.961   4.159 -0.4148  0.7141  0.2465
  117bbb     C5 3493   6.879   4.863   4.122  0.2063  0.9439 -0.5977
  117bbb     H9 3494   6.987   4.841   4.114 -0.5387 -3.3562 -1.2986
  117bbb    H10 3495   6.843   4.923   4.037 -1.0087  1.3413  0.1730
  117bbb     C6 3496   6.755   5.054   4.520 -0.2186 -0.2151  0.0452
  117bbb    H11 3497   6.859   5.060   4.485 -0.4400 -2.2481 -1.1240
  117bbb    H12 3498   6.733   4.954   4.557  1.9256 -1.1327 -0.9776
  117bbb     C7 3499   6.415   5.143   4.045  0.0276  0.5564  0.1087
  117bbb    H13 3500   6.307   5.157   4.059 -0.1096  2.1714 -2.0580
  117bbb    H14 3501   6.446   5.085   3.957  1.4615  1.1275  0.2204
  117bbb     C8 3502   6.710   5.172   4.613 -0.5529 -0.2275 -0.3069
  117bbb    H15 3503   6.706   5.268   4.559 -0.2335  0.4191  0.7898
  117bbb    H16 3504   6.615   5.151   4.664  0.6791  1.2815  2.8989
  117bbb     C9 3505   6.801   4.731   4.114 -0.4137 -0.1536 -0.1290
  117bbb    H17 3506   6.692   4.742   4.114 -0.6797 -1.9766  2.6396
  117bbb    H18 3507   6.826   4.676   4.205 -0.4723 -1.0139 -0.6232
  117bbb     O1 3508   6.482   5.274   4.035  0.1623 -0.0854  0.1939
  117bbb    H19 3509   6.653   4.885   4.307  0.1961  1.0274  2.3937
  118bbb     N1 3510   7.384   5.416   4.270  0.2002 -0.1982  0.3033
  118bbb     C1 3511   7.529   5.385   4.222 -0.2198 -0.2017  0.0642
  118bbb     H1 3512   7.589   5.369   4.312  0.0402 -1.9251 -0.3824
  118bbb     H2 3513   7.576   5.473   4.176 -0.4560  0.0131  0.2298
  118bbb     C2 3514   7.379   5.546   4.346 -0.4335 -0.4572 -0.5352
  118bbb     H3 3515   7.277   5.579   4.366  0.0313  0.9609 -0.4158
  118bbb     H4 3516   7.422   5.624   4.282 -2.3675  2.3297  1.3361
  118bbb     C3 3517   7.287   5.406   4.155  0.5642 -0.0631 -0.1959
  118bbb     H5 3518   7.184   5.404   4.189  0.4121  3.1287 -0.1542
  118bbb     H6 3519   7.295   5.311   4.102 -2.3889 -0.7884  0.5058
  118bbb     C4 3520   7.304   5.519   4.054  0.6103 -0.4760  0.4186
  118bbb     H7 3521   7.405   5.517   4.011  1.1260  1.2385  1.4321
  118bbb     H8 3522   7.291   5.617   4.103 -1.7334 -1.3278  1.6610
  118bbb     C5 3523   7.562   5.256   4.144 -0.2958  0.2604 -0.3026
  118bbb     H9 3524   7.515   5.253   4.045 -1.3212  0.3494  0.1758
  118bbb    H10 3525   7.518   5.180   4.210  0.3073  1.1414  1.1464
  118bbb     C6 3526   7.452   5.542   4.481  0.8374  0.5257 -0.5710
  118bbb    H11 3527   7.427   5.636   4.531 -0.9109 -1.1988  2.1094
  118bbb    H12 3528   7.561   5.540   4.477  0.9800  2.0464  1.2618
  118bbb     C7 3529   7.189   5.508   3.949 -0.4356  0.0953  0.2940
  118bbb    H13 3530   7.204   5.419   3.886  0.7538 -0.8506  1.8531
  118bbb    H14 3531   7.193   5.593   3.880 -2.0677  0.3405  0.4464
  118bbb     C8 3532   7.397   5.427   4.568  0.3017  0.1618 -0.4946
  118bbb    H15 3533   7.416   5.438   4.675 -3.4179  0.2472  0.2940
  118bbb    H16 3534   7.288   5.432   4.556  0.1862 -0.1446  0.3696
  118bbb     C9 3535   7.716   5.232   4.117 -0.0017  0.0485  0.0970
  118bbb    H17 3536   7.746   5.297   4.034  0.2637 -1.6431 -1.1918
  118bbb    H18 3537   7.735   5.129   4.086  0.3702 -0.3541  1.5720
  118bbb     O1 3538   7.057   5.507   4.005  0.9247  0.8005  0.5333
  118bbb    H19 3539   7.372   5.345   4.344 -0.1140 -0.0489  0.3963
  119bbb     N1 3540   4.984   4.237   0.270  0.4171 -0.8184  0.2673
  119bbb     C1 3541   5.003   4.298   0.123  0.7417 -0.0115  0.1722
  119bbb     H1 3542   5.096   4.255   0.086  0.4133  0.1086 -0.7975
  119bbb     H2 3543   5.023   4.405   0.132  1.5511 -0.0477 -1.0437
  119bbb     C2 3544   5.064   4.105   0.278 -0.1836  0.0656 -0.1563
  119bbb     H3 3545   5.160   4.113   0.329 -0.3814  0.1909  0.2078
  119bbb     H4 3546   5.091   4.093   0.174 -0.5444 -0.2097 -0.2194
  119bbb     C3 3547   5.038   4.342   0.363 -0.5206  0.2927 -0.1560
  119bbb     H5 3548   5.042   4.438   0.312  0.2353  0.8951  0.9954
  119bbb     H6 3549   5.138   4.310   0.393  0.0613  1.8867 -0.2843
  119bbb     C4 3550   4.965   4.370   0.494 -0.0118  0.2186 -0.1745
  119bbb     H7 3551   4.954   4.270   0.539  1.5681  0.7736  1.5501
  119bbb     H8 3552   4.863   4.407   0.479 -0.3244  0.7861  2.7549
  119bbb     C5 3553   4.896   4.255   0.015 -0.4233  0.1716 -0.4327
  119bbb     H9 3554   4.920   4.324  -0.066  0.3497  0.3305 -0.0806
  119bbb    H10 3555   4.803   4.289   0.061  1.3029  0.8512  2.8384
  119bbb     C6 3556   4.982   3.983   0.318  0.4822  0.5558  0.0077
  119bbb    H11 3557   4.889   3.980   0.259  1.1675  1.7053 -1.1746
  119bbb    H12 3558   4.955   3.978   0.424  1.0572 -0.1521  0.1267
  119bbb     C7 3559   5.056   4.453   0.585  0.0597  0.2409  0.0857
  119bbb    H13 3560   5.151   4.399   0.595 -0.2894 -0.5807 -0.8625
  119bbb    H14 3561   5.006   4.476   0.680  1.1919  4.5337 -0.1393
  119bbb     C8 3562   5.054   3.847   0.309 -0.5069 -0.2023  0.1908
  119bbb    H15 3563   4.987   3.765   0.337 -0.9493  0.7461  2.1204
  119bbb    H16 3564   5.077   3.833   0.203 -1.7282  0.2445 -0.1479
  119bbb     C9 3565   4.903   4.103  -0.028 -0.0804  0.3373  0.4986
  119bbb    H17 3566   4.859   4.095  -0.128  1.7408 -2.3087 -0.1969
  119bbb    H18 3567   4.840   4.046   0.041  1.4512  0.2111  1.8653
  119bbb     O1 3568   5.090   4.584   0.533  0.6958  0.1117 -0.3697
  119bbb    H19 3569   4.887   4.214   0.297  0.6294 -2.3479 -0.1959
  120bbb     N1 3570   4.808   5.129   0.297 -0.0669  0.2110  0.4981
  120bbb     C1 3571   4.712   5.214   0.217  0.1772  0.4568 -0.0380
  120bbb     H1 3572   4.775   5.294   0.180 -0.0528  0.7652  0.2327
  120bbb     H2 3573   4.635   5.254   0.284 -0.7694  0.8372 -1.3136
  120bbb     C2 3574   4.911   5.063   0.206 -0.2289  0.3610 -0.8605
  120bbb     H3 3575   4.964   5.152   0.171 -1.4524  1.0200 -1.1226
  120bbb     H4 3576   4.871   5.012   0.118  0.7824 -2.5423  0.2735
  120bbb     C3 3577   4.872   5.217   0.406 -0.0142 -0.7465  0.3377
  120bbb     H5 3578   4.915   5.299   0.348  0.3664 -0.6885  0.7038
  120bbb     H6 3579   4.940   5.147   0.455 -0.3516 -1.2298  0.1275
  120bbb     C4 3580   4.762   5.273   0.510  0.0522  0.2746  1.4854
  120bbb     H7 3581   4.679   5.207   0.538 -1.5077  1.4902 -0.0243
  120bbb     H8 3582   4.709   5.364   0.480 -0.4355 -0.4988 -0.1061
  120bbb     C5 3583   4.639   5.138   0.107  0.3289  0.4508 -0.2131
  120bbb     H9 3584   4.602   5.041   0.143  2.9028 -0.6455 -0.3256
  120bbb    H10 3585   4.710   5.110   0.028  0.7384 -4.7970  1.6440
  120bbb     C6 3586   5.017   4.966   0.269  0.5302 -0.6561 -0.4312
  120bbb    H11 3587   4.971   4.867   0.274  0.9632 -0.8673 -0.6389
  120bbb    H12 3588   5.042   5.006   0.368  1.0073  1.4674 -1.3424
  120bbb     C7 3589   4.821   5.303   0.646 -0.5308  0.4641 -0.0476
  120bbb    H13 3590   4.731   5.319   0.706 -0.7883 -1.5354  0.1644
  120bbb    H14 3591   4.877   5.397   0.648 -0.6772  0.7149 -2.8799
  120bbb     C8 3592   5.141   4.954   0.185  0.0135 -0.1705  0.3674
  120bbb    H15 3593   5.205   4.873   0.222 -0.9774 -0.7258  0.8941
  120bbb    H16 3594   5.119   4.918   0.083  0.4730 -0.9731  0.5400
  120bbb     C9 3595   4.531   5.217   0.042 -0.2104  0.8992 -0.3055
  120bbb    H17 3596   4.461   5.251   0.120 -1.5260  1.3140 -1.6260
  120bbb    H18 3597   4.475   5.154  -0.028 -1.8048  1.2368  0.6037
  120bbb     O1 3598   4.920   5.203   0.702  0.5678 -0.1568  0.6727
  120bbb    H19 3599   4.753   5.059   0.349 -0.4285 -0.5909 -0.9129
  121bbb     N1 3600   6.385   3.850   0.961 -0.0405 -0.4799 -0.3411
  121bbb     C1 3601   6.328   3.739   1.045  0.1217  0.3144 -0.2726
  121bbb     H1 3602   6.342   3.757   1.152  2.2031 -1.8895 -0.0934
  121bbb     H2 3603   6.387   3.651   1.018 -1.0524 -1.3329  2.1301
  121bbb     C2 3604   6.381   3.816   0.813 -0.2253  0.5855  0.5442
  121bbb     H3 3605   6.277   3.803   0.786  0.1013  1.0733 -1.0561
  121bbb     H4 3606   6.423   3.715   0.813  1.5920  1.2916  0.1950
  121bbb     C3 3607   6.312   3.984   0.984  0.3289  0.3699  0.1871
  121bbb     H5 3608   6.210   3.967   0.950  0.4428 -0.1930  0.1129
  121bbb     H6 3609   6.353   4.061   0.917  0.1325 -1.3946 -2.0785
  121bbb     C4 3610   6.293   4.041   1.126  0.1150  0.7097 -0.9443
  121bbb     H7 3611   6.384   4.069   1.179 -0.0248  1.1970 -0.9500
  121bbb     H8 3612   6.234   3.970   1.185 -0.3131  1.7533 -0.0691
  121bbb     C5 3613   6.177   3.708   1.024 -0.2105 -0.2490  0.8241
  121bbb     H9 3614   6.181   3.671   0.921  0.6577  0.6845  0.5179
  121bbb    H10 3615   6.105   3.790   1.027 -0.6098 -0.5267 -0.4758
  121bbb     C6 3616   6.463   3.914   0.724 -0.3793  0.9389  0.7377
  121bbb    H11 3617   6.569   3.902   0.749 -0.1526  0.4969 -0.3546
  121bbb    H12 3618   6.442   4.018   0.751 -1.5226  0.6756  0.8970
  121bbb     C7 3619   6.210   4.172   1.129 -0.1264  0.8331  0.0774
  121bbb    H13 3620   6.121   4.166   1.065 -0.0205 -1.9492  0.0740
  121bbb    H14 3621   6.280   4.249   1.095  1.9008  0.2306  2.5812
  121bbb     C8 3622   6.448   3.889   0.568 -0.5132 -0.9721 -0.6149
  121bbb    H15 3623   6.487   3.788   0.550 -0.6939 -0.9193 -1.3788
  121bbb    H16 3624   6.342   3.897   0.540 -0.5960 -1.9272 -0.6216
  121bbb     C9 3625   6.132   3.592   1.120  0.4072 -0.4089  0.0542
  121bbb    H17 3626   6.032   3.553   1.099  0.1733 -0.0770  0.5408
  121bbb    H18 3627   6.127   3.630   1.222  0.4075  0.8921 -0.4076
  121bbb     O1 3628   6.187   4.202   1.269  0.2209  0.0978 -0.4092
  121bbb    H19 3629   6.485   3.863   0.985 -0.2197 -0.6437  0.5123
  122bbb     N1 3630   5.619   4.126   1.875 -0.0146 -0.3379  0.1578
  122bbb     C1 3631   5.551   4.033   1.974  0.4052 -0.5905 -0.2421
  122bbb     H1 3632   5.451   4.008   1.939  0.9635 -0.4820 -1.9795
  122bbb     H2 3633   5.534   4.093   2.064  0.3536  0.5069 -0.9677
  122bbb     C2 3634   5.591   4.070   1.735  0.8121 -0.5570 -0.0413
  122bbb     H3 3635   5.486   4.084   1.711  0.5263 -1.0942  0.8526
  122bbb     H4 3636   5.618   3.965   1.742 -0.7588 -0.9393  0.6296
  122bbb     C3 3637   5.572   4.268   1.885  0.8438 -0.6486  0.0751
  122bbb     H5 3638   5.469   4.267   1.921  0.1512  0.6846 -1.7065
  122bbb     H6 3639   5.569   4.314   1.786 -1.5275 -3.7565 -1.4741
  122bbb     C4 3640   5.655   4.339   1.989 -0.2026  0.6472  0.8374
  122bbb     H7 3641   5.760   4.307   1.977 -0.2106  0.1388  2.0199
  122bbb     H8 3642   5.618   4.311   2.088  1.2616 -0.5389  1.0825
  122bbb     C5 3643   5.628   3.905   2.007 -0.3986  0.6231  0.1577
  122bbb     H9 3644   5.614   3.832   1.926  2.3901  1.0435 -0.8121
  122bbb    H10 3645   5.581   3.859   2.095 -3.4042 -2.4422 -2.7221
  122bbb     C6 3646   5.677   4.129   1.622 -0.6265  0.0975 -0.3907
  122bbb    H11 3647   5.672   4.238   1.632  0.2590  0.0614  0.5338
  122bbb    H12 3648   5.633   4.111   1.523 -0.1192 -1.7143 -0.3162
  122bbb     C7 3649   5.646   4.487   1.972 -0.1760 -0.4579 -0.2866
  122bbb    H13 3650   5.696   4.529   2.060 -1.5539 -3.0708  1.9007
  122bbb    H14 3651   5.548   4.535   1.978  0.9431  2.1702 -1.4743
  122bbb     C8 3652   5.830   4.092   1.620  0.4034 -0.4359 -0.7076
  122bbb    H15 3653   5.850   3.990   1.584 -0.5974 -2.1649  3.1443
  122bbb    H16 3654   5.884   4.165   1.557  0.2025 -0.1007 -0.4962
  122bbb     C9 3655   5.778   3.927   2.039 -0.3429  0.2489 -0.5243
  122bbb    H17 3656   5.844   3.958   1.956  1.4027  2.8972  1.6631
  122bbb    H18 3657   5.832   3.841   2.079  1.0531  0.6305 -1.4966
  122bbb     O1 3658   5.712   4.527   1.854  0.3524  0.1305  0.5799
  122bbb    H19 3659   5.722   4.120   1.883  0.3142  0.7869 -2.2119
  123bbb     N1 3660   3.321   5.000   1.284 -0.8952 -0.4622  0.4021
  123bbb     C1 3661   3.378   5.108   1.191  0.5899 -0.0926 -0.1073
  123bbb     H1 3662   3.341   5.083   1.091 -1.0303  0.9007  0.2003
  123bbb     H2 3663   3.485   5.087   1.187  0.0321 -3.5972 -0.4824
  123bbb     C2 3664   3.354   4.864   1.228 -0.1569  0.2128  0.1945
  123bbb     H3 3665   3.318   4.780   1.288  5.1931 -4.1404 -1.8493
  123bbb     H4 3666   3.463   4.860   1.233 -0.2497 -1.4630  3.2719
  123bbb     C3 3667   3.389   5.013   1.423  0.0913  0.3370 -0.3464
  123bbb     H5 3668   3.379   5.118   1.449 -1.1068 -0.3094  2.1495
  123bbb     H6 3669   3.493   4.981   1.415  0.2093  0.0400  1.7046
  123bbb     C4 3670   3.318   4.935   1.549 -0.2194 -0.1226 -0.1426
  123bbb     H7 3671   3.298   4.829   1.531 -0.1536 -0.3279  0.8940
  123bbb     H8 3672   3.217   4.976   1.564 -0.4296 -0.7606  0.2379
  123bbb     C5 3673   3.353   5.252   1.218 -1.0069 -0.6631  0.4761
  123bbb     H9 3674   3.413   5.312   1.149  1.0934 -1.7255  1.2870
  123bbb    H10 3675   3.392   5.280   1.317 -0.7288  0.6293  0.0144
  123bbb     C6 3676   3.311   4.833   1.082 -0.4652  0.6757 -0.5961
  123bbb    H11 3677   3.370   4.903   1.021  0.9485  1.1810  1.2590
  123bbb    H12 3678   3.203   4.846   1.064 -0.9313 -1.7615  0.0908
  123bbb     C7 3679   3.404   4.953   1.675 -0.1219 -0.3562  0.8047
  123bbb    H13 3680   3.368   4.891   1.758 -0.9444 -0.6062  0.2684
  123bbb    H14 3681   3.418   5.058   1.703  1.0499 -0.9719  2.7541
  123bbb     C8 3682   3.338   4.690   1.041 -0.0937 -0.5007 -0.0427
  123bbb    H15 3683   3.328   4.678   0.933 -2.9291 -2.6984  0.3304
  123bbb    H16 3684   3.445   4.670   1.055  0.1556 -0.1461 -1.3789
  123bbb     C9 3685   3.203   5.298   1.206 -0.6968  0.2140 -0.2389
  123bbb    H17 3686   3.177   5.271   1.103 -2.6531 -2.5060  0.8510
  123bbb    H18 3687   3.192   5.407   1.214 -0.5000  0.1081  2.0666
  123bbb     O1 3688   3.539   4.908   1.640  0.0296 -0.5609 -0.4945
  123bbb    H19 3689   3.219   5.010   1.289 -1.1312 -1.0979 -1.9050
  124bbb     N1 3690   3.645   4.464   2.228  0.5600  0.2923  0.1127
  124bbb     C1 3691   3.561   4.435   2.357  0.1502 -0.3286  0.2673
  124bbb     H1 3692   3.581   4.502   2.441  1.7113  1.0018 -1.0868
  124bbb     H2 3693   3.608   4.343   2.391  0.1751 -0.7187 -0.7885
  124bbb     C2 3694   3.655   4.347   2.141  0.1707  0.6133  0.4618
  124bbb     H3 3695   3.688   4.391   2.046  2.8418 -1.3304  0.3845
  124bbb     H4 3696   3.553   4.316   2.119 -0.3252  0.7128  2.4691
  124bbb     C3 3697   3.600   4.588   2.161 -0.4437  0.0081 -0.0099
  124bbb     H5 3698   3.492   4.590   2.143 -0.4962 -2.5516 -0.3631
  124bbb     H6 3699   3.643   4.570   2.062 -0.8573 -2.7774  0.2250
  124bbb     C4 3700   3.661   4.719   2.218  0.1729  0.1896  0.7519
  124bbb     H7 3701   3.627   4.723   2.322  1.1902  2.9827  1.0660
  124bbb     H8 3702   3.616   4.803   2.163 -0.7116 -1.7813 -1.7713
  124bbb     C5 3703   3.411   4.409   2.350  0.4722  0.5179 -0.4263
  124bbb     H9 3704   3.384   4.336   2.273  1.8112  0.1747 -0.5882
  124bbb    H10 3705   3.347   4.498   2.337 -1.6678 -0.5465  1.7777
  124bbb     C6 3706   3.748   4.220   2.171  0.4744 -0.4748  0.1937
  124bbb    H11 3707   3.715   4.171   2.263 -0.5772  2.8791  1.7368
  124bbb    H12 3708   3.844   4.262   2.204  0.5094 -0.0771 -0.4060
  124bbb     C7 3709   3.811   4.731   2.203  0.9664  0.0656 -0.7302
  124bbb    H13 3710   3.846   4.632   2.232 -1.7978 -1.3900 -1.9314
  124bbb    H14 3711   3.854   4.808   2.268 -2.1210  0.5247  1.0035
  124bbb     C8 3712   3.746   4.132   2.047 -0.0485 -0.4472 -0.6789
  124bbb    H15 3713   3.649   4.085   2.028  0.9061 -2.7226 -0.2906
  124bbb    H16 3714   3.783   4.190   1.961  0.0789 -0.8182 -0.8761
  124bbb     C9 3715   3.359   4.348   2.479  0.0491 -0.0138  0.2921
  124bbb    H17 3716   3.425   4.267   2.513 -0.4908 -0.5759  0.0072
  124bbb    H18 3717   3.265   4.293   2.466  0.1381 -0.0739 -0.1010
  124bbb     O1 3718   3.849   4.754   2.066 -0.5752 -0.1593 -0.5074
  124bbb    H19 3719   3.741   4.476   2.264  0.3984  2.3630  0.0070
  125bbb     N1 3720   3.921   5.272   0.722  0.4228 -0.2162  0.0832
  125bbb     C1 3721   3.887   5.149   0.630  0.0242 -0.5734  0.5306
  125bbb     H1 3722   3.982   5.106   0.599 -0.1410 -0.8556  0.4062
  125bbb     H2 3723   3.838   5.187   0.540 -1.5551  0.8540  1.9141
  125bbb     C2 3724   3.798   5.360   0.752 -0.2374  0.0418  0.7005
  125bbb     H3 3725   3.835   5.448   0.804 -2.5921  0.9423  0.9684
  125bbb     H4 3726   3.728   5.307   0.818 -0.1109  0.8140  1.4716
  125bbb     C3 3727   3.981   5.211   0.854  0.2896 -0.0417  0.5196
  125bbb     H5 3728   4.058   5.137   0.829 -0.5020 -1.0249  0.9298
  125bbb     H6 3729   3.894   5.180   0.913 -2.3394  2.3680 -1.8231
  125bbb     C4 3730   4.057   5.315   0.943 -0.2760  0.3176 -0.3436
  125bbb     H7 3731   3.997   5.404   0.964  1.5087  1.8220 -1.3210
  125bbb     H8 3732   4.146   5.349   0.888  0.3537 -1.5115 -0.5299
  125bbb     C5 3733   3.805   5.039   0.692  0.0868  0.6792  0.2121
  125bbb     H9 3734   3.710   5.079   0.730 -0.8234 -0.9168 -0.2732
  125bbb    H10 3735   3.858   4.992   0.776  0.2821 -2.2464 -1.4211
  125bbb     C6 3736   3.735   5.439   0.636 -0.0489  0.0092  0.5357
  125bbb    H11 3737   3.629   5.460   0.649 -0.1123  0.9318 -1.1881
  125bbb    H12 3738   3.752   5.388   0.540  1.0286  1.3955 -0.0425
  125bbb     C7 3739   4.112   5.258   1.077 -1.3579  0.0849 -0.1299
  125bbb    H13 3740   4.155   5.158   1.058  0.8669  1.1821 -1.3595
  125bbb    H14 3741   4.031   5.242   1.149 -0.8542 -2.1843  0.0193
  125bbb     C8 3742   3.801   5.581   0.620 -0.3008 -0.0420 -0.2918
  125bbb    H15 3743   3.790   5.636   0.714 -1.8357 -1.2124  0.2541
  125bbb    H16 3744   3.908   5.558   0.606 -0.0614  0.7000  0.2356
  125bbb     C9 3745   3.777   4.926   0.589 -0.9705  0.1385  0.3599
  125bbb    H17 3746   3.794   4.830   0.638  0.9298  0.6392  0.7529
  125bbb    H18 3747   3.846   4.926   0.504  1.5116 -1.4239  2.2509
  125bbb     O1 3748   4.219   5.340   1.140 -0.6469  0.4899 -0.3668
  125bbb    H19 3749   3.992   5.332   0.678  1.9569 -0.9812  1.4098
  126bbb     N1 3750   5.210   5.963   0.741 -0.5636 -0.4139 -0.3744
  126bbb     C1 3751   5.278   5.969   0.885  0.0013  0.0969  0.2625
  126bbb     H1 3752   5.372   5.913   0.881 -0.9356 -1.4563 -2.9593
  126bbb     H2 3753   5.214   5.917   0.955 -1.1088 -0.4080 -1.0891
  126bbb     C2 3754   5.304   5.933   0.629 -0.4824  0.1304  0.4708
  126bbb     H3 3755   5.353   5.836   0.641  0.5021  0.6959  1.0908
  126bbb     H4 3756   5.369   6.018   0.647 -1.0735  1.1787 -1.8974
  126bbb     C3 3757   5.105   5.855   0.747 -0.2752 -0.4345  0.7849
  126bbb     H5 3758   5.054   5.861   0.650 -0.4864  0.3758  0.9337
  126bbb     H6 3759   5.047   5.893   0.832 -1.1037 -0.5053  0.2613
  126bbb     C4 3760   5.150   5.720   0.789  0.2327 -0.5992 -0.4281
  126bbb     H7 3761   5.194   5.730   0.889  1.1971  1.3673 -0.9790
  126bbb     H8 3762   5.230   5.686   0.722  0.4370 -0.6734 -0.1451
  126bbb     C5 3763   5.320   6.111   0.930 -0.5733  0.1165  0.2196
  126bbb     H9 3764   5.391   6.163   0.865 -2.2123  2.2883  0.0656
  126bbb    H10 3765   5.366   6.092   1.028 -1.5058  0.1880  0.6820
  126bbb     C6 3766   5.251   5.934   0.482  0.6849 -0.6066  0.4825
  126bbb    H11 3767   5.193   5.847   0.449  0.9518  0.6548 -3.8087
  126bbb    H12 3768   5.337   5.941   0.414  1.0445 -1.1542  0.8693
  126bbb     C7 3769   5.026   5.622   0.789 -0.0029 -0.2551  0.2608
  126bbb    H13 3770   5.056   5.520   0.764 -0.6791 -0.5115  0.4744
  126bbb    H14 3771   4.966   5.648   0.701  2.3776 -1.1308 -1.7244
  126bbb     C8 3772   5.160   6.050   0.457  0.4099 -0.2988 -0.2662
  126bbb    H15 3773   5.131   6.044   0.351 -2.1842 -1.2839  0.4161
  126bbb    H16 3774   5.062   6.043   0.505  0.1020 -0.1250 -0.8569
  126bbb     C9 3775   5.206   6.218   0.956  0.8749  0.9907  0.5728
  126bbb    H17 3776   5.260   6.312   0.970  3.1550 -0.2443  0.6382
  126bbb    H18 3777   5.151   6.199   1.049 -2.6414 -1.5123 -1.7375
  126bbb     O1 3778   4.938   5.633   0.902 -0.0812  0.8224 -0.4362
  126bbb    H19 3779   5.172   6.056   0.717  0.1607  0.2663  0.9923
  127bbb     N1 3780   3.647   4.397   9.230 -0.4289 -0.0490 -0.3606
  127bbb     C1 3781   3.778   4.466   9.189  0.2843  0.3459 -0.5774
  127bbb     H1 3782   3.857   4.423   9.251  0.9987  2.7715  0.3008
  127bbb     H2 3783   3.775   4.574   9.203 -0.9128  0.0120  2.3351
  127bbb     C2 3784   3.641   4.348   9.371 -0.3747 -0.0287  0.5951
  127bbb     H3 3785   3.538   4.328   9.399  0.0012 -1.6854  0.9152
  127bbb     H4 3786   3.681   4.415   9.448  0.7393 -1.7117  1.5686
  127bbb     C3 3787   3.530   4.490   9.200  0.2361  0.0148 -0.1539
  127bbb     H5 3788   3.568   4.563   9.128  0.8486  0.0505  0.1989
  127bbb     H6 3789   3.506   4.545   9.291  2.6896 -0.6987  1.0206
  127bbb     C4 3790   3.392   4.445   9.149 -0.6367  0.5161 -0.1223
  127bbb     H7 3791   3.318   4.523   9.170 -3.9275 -2.3754 -0.0936
  127bbb     H8 3792   3.371   4.351   9.201 -1.7436  2.0219  2.3482
  127bbb     C5 3793   3.821   4.437   9.042 -0.7902 -0.7722 -0.4870
  127bbb     H9 3794   3.923   4.476   9.035 -0.1547 -1.4921  3.1548
  127bbb    H10 3795   3.759   4.478   8.961 -1.6551  2.5076  1.6371
  127bbb     C6 3796   3.721   4.209   9.394 -0.1950  0.5158  0.5697
  127bbb    H11 3797   3.820   4.212   9.346 -0.6481  1.7292 -0.3428
  127bbb    H12 3798   3.667   4.126   9.348  0.0988 -0.3874  1.8209
  127bbb     C7 3799   3.382   4.426   8.997  0.4718 -0.3293  0.3528
  127bbb    H13 3800   3.282   4.397   8.963  0.6509  1.5652 -2.1001
  127bbb    H14 3801   3.457   4.351   8.969  1.2993  0.3803  0.5992
  127bbb     C8 3802   3.740   4.180   9.546  0.2782  0.2858  0.4796
  127bbb    H15 3803   3.769   4.075   9.555  0.5871  0.2848 -0.3564
  127bbb    H16 3804   3.828   4.239   9.575  1.9813 -0.7691 -2.1800
  127bbb     C9 3805   3.833   4.285   9.026  0.2456  0.2113 -0.6277
  127bbb    H17 3806   3.894   4.256   9.112 -2.5287 -0.1529  1.3782
  127bbb    H18 3807   3.887   4.262   8.934 -0.4175  0.9986 -1.2294
  127bbb     O1 3808   3.417   4.553   8.941  0.5775 -0.5507 -0.8115
  127bbb    H19 3809   3.638   4.317   9.166 -1.5516 -0.3076  0.0913
  128bbb     N1 3810   3.385   5.426   9.366 -0.4212 -0.6164  0.0911
  128bbb     C1 3811   3.469   5.537   9.424 -0.5714  0.7139 -0.1961
  128bbb     H1 3812   3.471   5.622   9.356 -0.4436  0.9384  0.0840
  128bbb     H2 3813   3.569   5.494   9.433 -0.8793  0.2426  1.2662
  128bbb     C2 3814   3.289   5.482   9.266 -0.3974 -0.1107  0.3658
  128bbb     H3 3815   3.344   5.514   9.177 -0.6990 -1.2821 -0.2621
  128bbb     H4 3816   3.251   5.577   9.305 -0.9792  0.2159 -0.9394
  128bbb     C3 3817   3.479   5.334   9.290 -0.1693  0.2140  0.5374
  128bbb     H5 3818   3.558   5.397   9.250  0.0305  0.4579  1.2938
  128bbb     H6 3819   3.429   5.290   9.203  1.8042 -1.4041  0.1297
  128bbb     C4 3820   3.544   5.227   9.379  0.6047 -0.4044  0.1202
  128bbb     H7 3821   3.465   5.159   9.412  0.2450 -0.4815 -0.8713
  128bbb     H8 3822   3.576   5.269   9.475  2.1950 -2.1576  0.4211
  128bbb     C5 3823   3.427   5.587   9.560  0.4869 -0.8787 -0.9563
  128bbb     H9 3824   3.436   5.504   9.632  0.8703 -2.6708 -2.9518
  128bbb    H10 3825   3.321   5.613   9.562  0.4443 -1.0859  0.9590
  128bbb     C6 3826   3.177   5.390   9.215 -0.3988  1.2867  0.0129
  128bbb    H11 3827   3.123   5.347   9.301  1.2474  0.5600  0.7238
  128bbb    H12 3828   3.232   5.317   9.153 -1.5888  0.7895 -0.4876
  128bbb     C7 3829   3.660   5.138   9.311  0.4883  0.3975 -0.5334
  128bbb    H13 3830   3.688   5.059   9.381 -0.9158  0.9305  0.7014
  128bbb    H14 3831   3.750   5.190   9.276  0.4879 -0.8061 -2.5097
  128bbb     C8 3832   3.069   5.465   9.135 -0.7820  0.4540 -0.3501
  128bbb    H15 3833   3.113   5.500   9.041  2.8457 -0.8531  0.6710
  128bbb    H16 3834   2.984   5.400   9.109 -0.4751  0.0605 -0.3800
  128bbb     C9 3835   3.510   5.713   9.615  0.0615  0.5698 -0.0643
  128bbb    H17 3836   3.456   5.752   9.702 -0.4230 -2.5389  1.1670
  128bbb    H18 3837   3.514   5.785   9.533  0.1323 -0.1734 -0.7292
  128bbb     O1 3838   3.604   5.078   9.189  0.7464  0.4041 -0.1118
  128bbb    H19 3839   3.345   5.373   9.445 -0.0208  0.8424  1.3249
  129bbb     N1 3840   3.066   3.991   7.800 -0.0133 -0.2845 -0.4508
  129bbb     C1 3841   3.094   3.985   7.653 -0.3724 -0.0416 -0.4258
  129bbb     H1 3842   3.153   4.071   7.622 -0.1862  0.4495  1.1909
  129bbb     H2 3843   2.998   3.984   7.601 -1.0694 -2.9923  0.6773
  129bbb     C2 3844   3.193   4.029   7.874  0.3692  0.2720 -0.7880
  129bbb     H3 3845   3.182   4.135   7.898  1.9071  0.3601 -0.3662
  129bbb     H4 3846   3.268   4.004   7.799 -0.2809 -3.6002 -0.3497
  129bbb     C3 3847   2.957   4.094   7.812 -0.4786 -0.5885 -0.6280
  129bbb     H5 3848   2.874   4.060   7.749 -1.7484  0.0823  0.6261
  129bbb     H6 3849   3.004   4.177   7.758  2.7872 -0.5488  2.0062
  129bbb     C4 3850   2.899   4.138   7.947 -0.0946  0.6403  0.0054
  129bbb     H7 3851   2.975   4.176   8.016  1.8113 -1.4251 -0.8613
  129bbb     H8 3852   2.867   4.046   7.999  0.6908  0.0799 -0.4869
  129bbb     C5 3853   3.160   3.849   7.610  0.0488  0.0635 -0.5036
  129bbb     H9 3854   3.077   3.781   7.634 -0.3609  0.9507  0.6708
  129bbb    H10 3855   3.238   3.818   7.680  0.3945  0.4167 -0.7278
  129bbb     C6 3856   3.223   3.949   7.997  0.8172  0.1915 -0.6938
  129bbb    H11 3857   3.153   3.975   8.078  1.6365  0.6040 -0.1016
  129bbb    H12 3858   3.320   3.991   8.025  0.8506  0.3632 -1.0547
  129bbb     C7 3859   2.785   4.239   7.931 -0.4468 -0.0372  0.4381
  129bbb    H13 3860   2.697   4.193   7.885  0.0204 -0.3862 -0.1142
  129bbb    H14 3861   2.806   4.315   7.855 -0.5277  0.7527  1.1837
  129bbb     C8 3862   3.237   3.796   7.981  0.2143 -0.5454 -0.2119
  129bbb    H15 3863   3.324   3.786   7.915  2.3949  0.6341  2.3179
  129bbb    H16 3864   3.258   3.747   8.076  1.7674 -2.4838 -1.4735
  129bbb     C9 3865   3.203   3.838   7.470  0.0598 -0.1058 -0.6388
  129bbb    H17 3866   3.117   3.836   7.401  1.2266  0.6293 -2.1801
  129bbb    H18 3867   3.272   3.755   7.453 -1.1790 -1.8234  2.0474
  129bbb     O1 3868   2.747   4.296   8.063  0.3304  0.6871 -0.2761
  129bbb    H19 3869   3.037   3.901   7.842  0.9874  0.2354  1.5066
  130bbb     N1 3870   2.250   3.997   8.869  0.9323  0.5504  0.0672
  130bbb     C1 3871   2.191   3.918   8.752  0.2449 -0.1764 -0.0493
  130bbb     H1 3872   2.211   3.966   8.657 -1.8915 -1.4704 -1.2328
  130bbb     H2 3873   2.082   3.919   8.765  0.3355  0.1046  0.7902
  130bbb     C2 3874   2.206   3.950   9.007  0.2834 -0.1066  0.0757
  130bbb     H3 3875   2.275   4.006   9.071 -0.6728 -0.3057  1.3246
  130bbb     H4 3876   2.224   3.842   9.006  1.0110 -0.1075  3.1285
  130bbb     C3 3877   2.399   4.007   8.857 -0.3618 -0.0114 -0.0624
  130bbb     H5 3878   2.428   3.902   8.859 -1.4662 -0.3283  0.6611
  130bbb     H6 3879   2.427   4.056   8.950  0.4352 -0.5929  0.0153
  130bbb     C4 3880   2.455   4.076   8.727 -0.6223  0.1791 -0.0757
  130bbb     H7 3881   2.390   4.159   8.699  0.7962  1.3376 -0.0865
  130bbb     H8 3882   2.445   4.005   8.644  0.9716  0.7781 -0.8366
  130bbb     C5 3883   2.247   3.770   8.735  0.5511 -0.8534 -0.1522
  130bbb     H9 3884   2.236   3.722   8.832  0.2059 -0.7620 -0.1470
  130bbb    H10 3885   2.354   3.762   8.711  0.4214  2.0236 -2.2690
  130bbb     C6 3886   2.060   3.974   9.032 -0.1991 -0.2124  0.5622
  130bbb    H11 3887   2.035   3.938   9.132 -4.1389 -1.3126 -0.6103
  130bbb    H12 3888   1.994   3.927   8.958  0.2225  0.1061 -0.0244
  130bbb     C7 3889   2.599   4.128   8.743 -0.2481 -0.1798  0.3778
  130bbb    H13 3890   2.658   4.049   8.789  0.3815  0.8258  1.3653
  130bbb    H14 3891   2.605   4.212   8.813 -0.5556  1.5501 -1.5607
  130bbb     C8 3892   2.022   4.122   9.015 -0.8570 -0.3437  0.3699
  130bbb    H15 3893   1.918   4.126   9.049 -0.2214  2.1309  2.3796
  130bbb    H16 3894   2.085   4.183   9.081 -0.0087 -1.4982  0.6451
  130bbb     C9 3895   2.162   3.688   8.639 -0.1062 -0.8818  0.3045
  130bbb    H17 3896   2.186   3.581   8.640  1.5976 -0.5952 -1.6479
  130bbb    H18 3897   2.184   3.730   8.540 -0.4047 -0.3861  0.4436
  130bbb     O1 3898   2.669   4.154   8.613  0.4192  0.0399 -0.7700
  130bbb    H19 3899   2.212   4.093   8.862  0.0451  0.2087  0.1378
  131bbb     N1 3900   5.284   3.276   8.500 -0.5737 -0.2365  0.5408
  131bbb     C1 3901   5.280   3.356   8.370 -0.0061 -0.2358 -0.1497
  131bbb     H1 3902   5.317   3.456   8.392 -0.4081 -0.4773  1.8161
  131bbb     H2 3903   5.182   3.365   8.324 -1.3199 -0.3935  2.4300
  131bbb     C2 3904   5.414   3.307   8.574  0.2874  1.0342 -0.4565
  131bbb     H3 3905   5.402   3.411   8.604  0.1486  0.8446  0.1454
  131bbb     H4 3906   5.498   3.303   8.505  1.0832  0.5821  0.5200
  131bbb     C3 3907   5.166   3.320   8.585  0.9768 -0.3182 -0.1594
  131bbb     H5 3908   5.164   3.427   8.606 -1.7932 -0.4577  0.8003
  131bbb     H6 3909   5.181   3.261   8.676 -1.3737 -1.5143 -0.4481
  131bbb     C4 3910   5.030   3.283   8.530 -0.1641  1.1641  0.0006
  131bbb     H7 3911   4.996   3.339   8.442 -0.8420 -0.2262 -0.6470
  131bbb     H8 3912   4.953   3.317   8.601  0.3456 -0.5176  1.4130
  131bbb     C5 3913   5.365   3.280   8.266  0.5758 -0.0211 -0.3470
  131bbb     H9 3914   5.310   3.186   8.253  0.8492 -0.0279 -1.5571
  131bbb    H10 3915   5.466   3.253   8.300  0.3031 -1.1468 -0.4032
  131bbb     C6 3916   5.451   3.219   8.697 -0.0203  0.4106  0.1347
  131bbb    H11 3917   5.443   3.111   8.679  0.4009  0.3595  0.2530
  131bbb    H12 3918   5.376   3.245   8.773  0.8180  0.2554  1.0401
  131bbb     C7 3919   5.003   3.125   8.490  0.3477 -0.4039  0.0342
  131bbb    H13 3920   4.903   3.122   8.444  0.8902 -0.5910 -1.1576
  131bbb    H14 3921   4.989   3.059   8.576 -2.4285  0.5175  0.3858
  131bbb     C8 3922   5.597   3.247   8.751 -0.7996 -0.0163  0.6872
  131bbb    H15 3923   5.598   3.353   8.778 -2.4071  0.4888 -1.0377
  131bbb    H16 3924   5.619   3.201   8.848  0.9143 -0.1215  0.2932
  131bbb     C9 3925   5.368   3.365   8.140  0.5092  0.0055  0.4176
  131bbb    H17 3926   5.281   3.430   8.133  0.8717  0.6613  1.6755
  131bbb    H18 3927   5.370   3.292   8.058 -2.3995 -0.1941  0.4292
  131bbb     O1 3928   5.092   3.068   8.397 -0.3656 -0.1639  0.9521
  131bbb    H19 3929   5.281   3.174   8.488  1.4968 -0.0994 -1.8687
  132bbb     N1 3930   4.942   2.236   8.724 -0.4651 -0.4786  0.4597
  132bbb     C1 3931   4.884   2.097   8.726  0.1568 -0.1695 -0.6443
  132bbb     H1 3932   4.946   2.044   8.798  0.4017  1.4331  0.3864
  132bbb     H2 3933   4.916   2.045   8.635  1.5682 -2.3641  1.0194
  132bbb     C2 3934   5.092   2.238   8.752 -0.1542 -0.3487 -0.5681
  132bbb     H3 3935   5.142   2.186   8.670 -0.0681 -0.1928 -0.6150
  132bbb     H4 3936   5.114   2.177   8.840  0.1108  1.4791  0.6831
  132bbb     C3 3937   4.903   2.309   8.593  0.2286  0.2855 -0.2583
  132bbb     H5 3938   4.939   2.410   8.610  0.2147  0.2621 -0.0816
  132bbb     H6 3939   4.794   2.311   8.589  0.1847 -1.2090 -0.7713
  132bbb     C4 3940   4.976   2.249   8.463  0.8103  0.1203  0.7603
  132bbb     H7 3941   4.970   2.140   8.465  1.0392  0.0954  0.1724
  132bbb     H8 3942   5.084   2.265   8.466  1.2474 -1.0316 -3.1442
  132bbb     C5 3943   4.740   2.079   8.758 -0.4555 -0.4152  0.3758
  132bbb     H9 3944   4.686   2.145   8.689  1.1654  0.1896 -0.3538
  132bbb    H10 3945   4.723   2.125   8.856  1.2024 -0.3249  0.6505
  132bbb     C6 3946   5.161   2.374   8.781  0.3185 -0.1091  0.1422
  132bbb    H11 3947   5.134   2.452   8.709 -1.2326  0.7298  1.5701
  132bbb    H12 3948   5.268   2.353   8.777  0.7840  2.0529  0.4012
  132bbb     C7 3949   4.930   2.302   8.323  0.1990  0.4367 -0.7055
  132bbb    H13 3950   4.825   2.276   8.306  0.2259 -0.6463  0.6478
  132bbb    H14 3951   4.994   2.256   8.246 -0.3595  1.6770 -1.9655
  132bbb     C8 3952   5.133   2.426   8.921 -0.5759 -0.8657 -0.3320
  132bbb    H15 3953   5.193   2.372   8.997 -1.3010  0.4833  1.2562
  132bbb    H16 3954   5.182   2.524   8.917 -0.3863 -1.0130 -2.3539
  132bbb     C9 3955   4.690   1.935   8.745  0.2087 -0.8148  0.5438
  132bbb    H17 3956   4.585   1.929   8.774  0.8053 -3.2743  2.5388
  132bbb    H18 3957   4.754   1.868   8.804  1.5819  1.7468  2.1385
  132bbb     O1 3958   4.935   2.451   8.309  0.3703  0.2438 -0.0582
  132bbb    H19 3959   4.904   2.289   8.804 -1.9727  1.5857 -1.5180
  133bbb     N1 3960   4.366   3.690   9.278  0.7286  0.0552 -0.0764
  133bbb     C1 3961   4.322   3.631   9.400  0.5635  0.2068  0.1862
  133bbb     H1 3962   4.381   3.678   9.479 -0.1623  2.7686 -0.6848
  133bbb     H2 3963   4.343   3.525   9.389 -0.2378 -0.0097  0.7200
  133bbb     C2 3964   4.516   3.691   9.280  0.1758  0.8246  0.0769
  133bbb     H3 3965   4.550   3.588   9.290 -4.0684 -0.9737 -1.3942
  133bbb     H4 3966   4.549   3.747   9.368  2.7703  2.5036 -1.8395
  133bbb     C3 3967   4.309   3.618   9.150  0.3542 -0.0315  0.3410
  133bbb     H5 3968   4.330   3.677   9.060  2.2698 -0.9592  0.1419
  133bbb     H6 3969   4.200   3.619   9.162  0.3359 -2.5314  0.9274
  133bbb     C4 3970   4.351   3.467   9.123 -0.6180 -0.3893  0.1652
  133bbb     H7 3971   4.287   3.390   9.167  1.1020 -0.0943  3.5033
  133bbb     H8 3972   4.449   3.464   9.172 -0.7428 -1.6928  0.3752
  133bbb     C5 3973   4.179   3.661   9.432  1.7121 -0.4265  0.0419
  133bbb     H9 3974   4.109   3.587   9.392  0.4921  0.2876  0.8014
  133bbb    H10 3975   4.138   3.750   9.383 -0.6555 -1.6918 -0.4123
  133bbb     C6 3976   4.577   3.779   9.166  0.8260  0.0129  0.7989
  133bbb    H11 3977   4.542   3.883   9.164 -2.4677 -0.9806 -1.8444
  133bbb    H12 3978   4.544   3.745   9.067  1.1905  1.7996  0.0145
  133bbb     C7 3979   4.353   3.429   8.976 -0.0612 -0.1014 -0.1742
  133bbb    H13 3980   4.250   3.413   8.942 -0.3739 -1.9947  1.5059
  133bbb    H14 3981   4.395   3.329   8.964 -0.0851 -0.1200 -0.1051
  133bbb     C8 3982   4.730   3.777   9.185 -0.4317  0.0580 -0.3728
  133bbb    H15 3983   4.774   3.843   9.109  1.5495  1.2460  1.6637
  133bbb    H16 3984   4.758   3.812   9.285 -0.5327  1.0793 -0.6920
  133bbb     C9 3985   4.151   3.663   9.587  0.1066  0.1862  0.0182
  133bbb    H17 3986   4.048   3.687   9.614  0.3826 -1.0358  2.4940
  133bbb    H18 3987   4.214   3.742   9.629  1.3761  0.5140 -2.3102
  133bbb     O1 3988   4.419   3.524   8.888 -0.2371  0.6819 -0.5470
  133bbb    H19 3989   4.327   3.786   9.276  1.5836  0.4647  1.3269
  134bbb     N1 3990   4.675   4.596   9.023  0.3613  0.5729 -0.0717
  134bbb     C1 3991   4.789   4.654   9.098 -0.1038  0.0703 -0.1500
  134bbb     H1 3992   4.816   4.750   9.053  0.3798  1.5071  2.9519
  134bbb     H2 3993   4.869   4.581   9.085  1.3604  1.6859 -0.5265
  134bbb     C2 3994   4.666   4.671   8.892 -0.2220  0.1347 -0.0837
  134bbb     H3 3995   4.586   4.623   8.835  1.8685 -2.6782 -0.8777
  134bbb     H4 3996   4.759   4.660   8.836 -0.8258  0.2675 -1.1336
  134bbb     C3 3997   4.705   4.447   8.983 -0.3505  0.1898 -0.1438
  134bbb     H5 3998   4.798   4.454   8.926  0.1442 -0.5376  0.5657
  134bbb     H6 3999   4.622   4.414   8.920 -0.1405  1.0983 -0.9363
  134bbb     C4 4000   4.727   4.342   9.093  0.0952 -0.2035  0.1901
  134bbb     H7 4001   4.631   4.352   9.145 -0.1108  1.9480 -0.5136
  134bbb     H8 4002   4.803   4.382   9.161 -0.7203  0.8408  0.5092
  134bbb     C5 4003   4.780   4.673   9.250  0.4703 -0.3418  0.8458
  134bbb     H9 4004   4.883   4.699   9.277  0.0350  2.1456  0.3453
  134bbb    H10 4005   4.771   4.570   9.287 -1.6760 -1.1660 -1.6757
  134bbb     C6 4006   4.641   4.822   8.912 -0.3276 -0.2408  0.4722
  134bbb    H11 4007   4.739   4.872   8.913 -0.9219  1.0151 -0.4958
  134bbb    H12 4008   4.578   4.849   8.998 -0.6781 -1.5844  0.6598
  134bbb     C7 4009   4.762   4.204   9.045  0.2290  0.4138 -0.1753
  134bbb    H13 4010   4.774   4.135   9.129 -1.2931  1.2438  0.7780
  134bbb    H14 4011   4.864   4.200   9.007 -0.0651 -1.4066 -0.9178
  134bbb     C8 4012   4.569   4.878   8.785 -0.0634 -0.8951 -0.5023
  134bbb    H15 4013   4.625   4.854   8.694  1.2248 -2.3878  0.6230
  134bbb    H16 4014   4.462   4.852   8.779 -1.2509  2.5149  2.2560
  134bbb     C9 4015   4.675   4.760   9.319 -0.5559  0.6720 -0.3203
  134bbb    H17 4016   4.650   4.716   9.417  1.2969  1.9788  0.7879
  134bbb    H18 4017   4.585   4.752   9.257 -0.7447  0.7351 -0.0579
  134bbb     O1 4018   4.652   4.167   8.949  0.4624 -0.1422 -0.6457
  134bbb    H19 4019   4.592   4.594   9.084  0.6989 -0.5795  0.3903
  135bbb     N1 4020   1.841   3.394   7.073 -0.0366 -0.7187  0.3445
  135bbb     C1 4021   1.785   3.542   7.036 -0.0866 -0.1002 -0.0563
  135bbb     H1 4022   1.863   3.614   7.061  1.3283 -1.3127 -0.8346
  135bbb     H2 4023   1.698   3.570   7.096  0.3648  1.2559 -0.0010
  135bbb     C2 4024   1.738   3.289   7.066  0.2198 -0.0233 -0.0000
  135bbb     H3 4025   1.787   3.195   7.091 -0.6970  0.0917  2.4567
  135bbb     H4 4026   1.703   3.282   6.963 -0.7624 -2.2355  0.4361
  135bbb     C3 4027   1.945   3.362   6.977 -0.9130 -0.1028  0.1504
  135bbb     H5 4028   1.997   3.458   6.974 -1.1779  0.0521  0.4894
  135bbb     H6 4029   1.905   3.351   6.876  1.6560 -1.4304 -0.8093
  135bbb     C4 4030   2.041   3.251   7.018  0.1103 -0.5052 -0.4387
  135bbb     H7 4031   1.992   3.160   6.979 -2.3294  1.3592 -2.0081
  135bbb     H8 4032   2.056   3.245   7.127 -2.2033  0.1155 -0.0210
  135bbb     C5 4033   1.754   3.585   6.892  0.4356 -0.6436 -0.6446
  135bbb     H9 4034   1.713   3.499   6.837 -0.2927 -0.4200 -0.4660
  135bbb    H10 4035   1.850   3.610   6.846  0.8252  0.5813  0.7535
  135bbb     C6 4036   1.619   3.318   7.163 -0.3224 -0.2561 -0.1984
  135bbb    H11 4037   1.562   3.403   7.123  0.2305  0.1681 -0.1017
  135bbb    H12 4038   1.663   3.339   7.261  0.3210  1.7357 -0.8690
  135bbb     C7 4039   2.175   3.279   6.955  0.1179  0.2181 -0.6801
  135bbb    H13 4040   2.248   3.206   6.992  2.2359  2.0078 -1.0868
  135bbb    H14 4041   2.214   3.370   7.003 -0.8749  0.3165 -0.0187
  135bbb     C8 4042   1.541   3.191   7.189  0.4741 -0.0368  0.6900
  135bbb    H15 4043   1.605   3.120   7.242 -1.5983 -1.3547  1.5291
  135bbb    H16 4044   1.454   3.220   7.249  1.4980 -1.4105  2.9644
  135bbb     C9 4045   1.666   3.714   6.880 -0.3732  0.4570 -0.3020
  135bbb    H17 4046   1.672   3.755   6.779  0.1306 -0.4404 -0.6513
  135bbb    H18 4047   1.700   3.787   6.954  1.1014  0.3454 -0.8315
  135bbb     O1 4048   2.173   3.284   6.808  0.1677 -0.2964  0.7599
  135bbb    H19 4049   1.887   3.400   7.165  1.6478 -1.4848 -0.3990
  136bbb     N1 4050   2.327   3.114   5.624  0.1411  0.2171 -0.1366
  136bbb     C1 4051   2.194   3.120   5.553 -0.4680 -0.0542  0.3701
  136bbb     H1 4052   2.153   3.019   5.555 -0.4041 -0.3125 -3.7873
  136bbb     H2 4053   2.222   3.129   5.448  1.3706 -1.1610  0.7269
  136bbb     C2 4054   2.410   3.236   5.587 -0.4935 -0.3524 -0.6207
  136bbb     H3 4055   2.501   3.231   5.646 -1.6044 -0.0164  1.2160
  136bbb     H4 4056   2.348   3.323   5.609 -0.4365  0.7876 -4.3591
  136bbb     C3 4057   2.307   3.094   5.774 -1.1054  0.1810 -0.4232
  136bbb     H5 4058   2.255   3.000   5.796 -1.7504  0.8623  1.1520
  136bbb     H6 4059   2.242   3.172   5.813 -0.3680  1.3119 -1.4039
  136bbb     C4 4060   2.436   3.100   5.859 -0.3674 -0.4351 -0.3329
  136bbb     H7 4061   2.465   3.204   5.879  1.7988 -0.9306 -0.6501
  136bbb     H8 4062   2.524   3.056   5.811 -0.7003 -0.9791 -0.4485
  136bbb     C5 4063   2.099   3.236   5.595 -0.0920  0.6961  0.0237
  136bbb     H9 4064   2.151   3.332   5.583  0.3975  0.7596  2.1566
  136bbb    H10 4065   2.071   3.231   5.701 -1.5884 -1.6142 -0.4168
  136bbb     C6 4066   2.467   3.236   5.442  0.0442 -0.4721  0.6161
  136bbb    H11 4067   2.511   3.332   5.412 -1.1248 -0.6470 -1.9214
  136bbb    H12 4068   2.401   3.206   5.360  1.3410 -2.9660  0.3872
  136bbb     C7 4069   2.406   3.036   5.999  0.0753  0.3544  0.4413
  136bbb    H13 4070   2.498   3.048   6.057 -0.0153 -2.6390  1.3521
  136bbb    H14 4071   2.378   2.931   5.985  0.1436  0.4730 -0.7297
  136bbb     C8 4072   2.581   3.125   5.438 -0.1850 -0.1884 -0.2002
  136bbb    H15 4073   2.625   3.111   5.339  1.7927 -0.8412  0.7340
  136bbb    H16 4074   2.661   3.171   5.496 -0.1309  0.6674 -0.9207
  136bbb     C9 4075   1.973   3.242   5.508 -0.1787 -0.6399 -0.0731
  136bbb    H17 4076   1.944   3.143   5.470 -0.4267 -0.7320  0.3502
  136bbb    H18 4077   1.990   3.314   5.427  1.8494 -0.3262  0.5812
  136bbb     O1 4078   2.303   3.114   6.056  0.9959 -0.5060  0.1642
  136bbb    H19 4079   2.379   3.037   5.578  0.3483  0.9240 -1.1288
  137bbb     N1 4080   1.439   4.629   6.354  0.1288  0.1399 -0.8876
  137bbb     C1 4081   1.339   4.599   6.231 -0.6416  0.4651  0.7469
  137bbb     H1 4082   1.313   4.493   6.240 -1.9111  0.7148  0.2622
  137bbb     H2 4083   1.400   4.618   6.142 -0.9455 -0.9394  0.2205
  137bbb     C2 4084   1.376   4.557   6.474 -0.4286 -0.2760 -0.2192
  137bbb     H3 4085   1.336   4.458   6.449 -0.8408 -0.0908 -0.3087
  137bbb     H4 4086   1.285   4.607   6.508 -1.1668 -1.9376  0.3976
  137bbb     C3 4087   1.578   4.566   6.320  0.1910  0.6232 -0.0723
  137bbb     H5 4088   1.558   4.463   6.290  0.2738  0.1745  1.3281
  137bbb     H6 4089   1.646   4.560   6.405 -0.3536  1.5702  0.4561
  137bbb     C4 4090   1.652   4.641   6.207  0.0552 -0.1063 -0.0521
  137bbb     H7 4091   1.673   4.745   6.234 -0.5880 -0.5652  2.4729
  137bbb     H8 4092   1.590   4.648   6.117 -0.5761 -0.8566  0.3115
  137bbb     C5 4093   1.203   4.684   6.233  0.2431  0.1733 -0.4378
  137bbb     H9 4094   1.268   4.772   6.229 -1.0839  1.2634  0.6868
  137bbb    H10 4095   1.205   4.691   6.343 -1.7854 -2.2770 -0.1552
  137bbb     C6 4096   1.468   4.551   6.595  0.4348 -0.0069 -0.0309
  137bbb    H11 4097   1.567   4.507   6.575  3.1307  3.7845  3.4639
  137bbb    H12 4098   1.425   4.486   6.673 -0.8615 -0.9671 -1.4727
  137bbb     C7 4099   1.783   4.572   6.165 -1.0790  0.1704  0.3774
  137bbb    H13 4100   1.827   4.608   6.070 -1.3041 -1.8470 -0.5452
  137bbb    H14 4101   1.762   4.467   6.142  0.4145  0.1049 -0.9259
  137bbb     C8 4102   1.490   4.686   6.661  0.0854  0.7913  0.3513
  137bbb    H15 4103   1.562   4.683   6.744 -0.1600  2.9256  0.7001
  137bbb    H16 4104   1.522   4.761   6.587  2.3198 -1.8213 -1.5341
  137bbb     C9 4105   0.980   4.681   6.106 -0.5877 -0.1224 -0.4389
  137bbb    H17 4106   0.972   4.739   6.013  0.3433  1.0964  0.2282
  137bbb    H18 4107   0.893   4.740   6.135 -1.1515 -1.2668  0.2926
  137bbb     O1 4108   1.882   4.588   6.278  0.6102 -0.2650  0.7638
  137bbb    H19 4109   1.439   4.730   6.375  0.9551 -0.2145  0.9678
  138bbb     N1 4110   2.044   5.275   7.050 -0.0399 -0.4102 -0.9276
  138bbb     C1 4111   1.937   5.366   6.994 -0.0378  0.6631  0.1325
  138bbb     H1 4112   1.857   5.369   7.068  0.2404  1.5040  0.4121
  138bbb     H2 4113   1.896   5.330   6.899  0.7092 -2.0695  0.7422
  138bbb     C2 4114   1.977   5.160   7.123  0.2332 -0.2262 -0.1247
  138bbb     H3 4115   2.032   5.069   7.097  0.9883 -0.3537  1.7919
  138bbb     H4 4116   1.885   5.124   7.075  0.7683  1.2010 -2.3811
  138bbb     C3 4117   2.132   5.212   6.941  0.3107  0.1138  0.6222
  138bbb     H5 4118   2.180   5.298   6.893  2.2922 -2.2081 -1.8541
  138bbb     H6 4119   2.065   5.163   6.870 -2.9302  2.8683  1.5181
  138bbb     C4 4120   2.255   5.129   6.993 -0.0464  0.5162 -0.0015
  138bbb     H7 4121   2.229   5.046   7.061  0.4657  1.0087  0.8200
  138bbb     H8 4122   2.319   5.193   7.055  1.4578 -0.5300 -0.4176
  138bbb     C5 4123   1.996   5.500   6.983  0.0461 -0.1228 -0.4456
  138bbb     H9 4124   2.092   5.497   6.929 -0.5671  0.9911 -1.6742
  138bbb    H10 4125   2.021   5.539   7.082  0.0666 -1.0905 -0.0611
  138bbb     C6 4126   1.977   5.166   7.271 -0.3349  0.3062 -0.4218
  138bbb    H11 4127   2.075   5.140   7.312  0.2895 -1.3186 -2.7453
  138bbb    H12 4128   1.905   5.087   7.293 -0.4558  0.2087 -1.1496
  138bbb     C7 4129   2.343   5.071   6.871  0.2027 -0.2225  0.2046
  138bbb    H13 4130   2.437   5.040   6.917 -0.1748  0.8909  1.7988
  138bbb    H14 4131   2.366   5.156   6.806  0.1554 -1.5245 -1.5902
  138bbb     C8 4132   1.929   5.300   7.337  0.6484 -0.0844 -0.1355
  138bbb    H15 4133   1.878   5.367   7.266  0.0570  0.5850  0.8944
  138bbb    H16 4134   1.860   5.275   7.418  1.8515  0.2030  1.0183
  138bbb     C9 4135   1.901   5.599   6.911 -0.1569 -0.4146  0.1589
  138bbb    H17 4136   1.855   5.564   6.818  0.6015 -0.3455 -0.2466
  138bbb    H18 4137   1.965   5.681   6.878  1.8874 -0.7023  3.0680
  138bbb     O1 4138   2.271   4.969   6.801  0.1049  0.5408 -0.0575
  138bbb    H19 4139   2.104   5.323   7.119 -0.2618  0.1312 -1.1036
  139bbb     N1 4140   5.045   2.533   6.585 -0.9458 -0.5520 -0.7497
  139bbb     C1 4141   4.903   2.562   6.554 -0.0427  0.0990  0.2368
  139bbb     H1 4142   4.897   2.568   6.446 -1.2169 -1.1056  0.2161
  139bbb     H2 4143   4.879   2.658   6.600 -0.5898  0.1335 -0.1207
  139bbb     C2 4144   5.120   2.483   6.467  0.0681  0.4630 -0.7190
  139bbb     H3 4145   5.099   2.551   6.384 -2.5257  0.4603 -0.1354
  139bbb     H4 4146   5.063   2.394   6.445 -0.0689  0.6992 -1.3495
  139bbb     C3 4147   5.109   2.656   6.642 -0.0513  0.3578  0.3055
  139bbb     H5 4148   5.207   2.616   6.671 -0.3717 -1.1042 -0.5588
  139bbb     H6 4149   5.045   2.670   6.729  0.5438  2.7656  0.4207
  139bbb     C4 4150   5.123   2.778   6.550 -0.1359 -0.0767  0.2245
  139bbb     H7 4151   5.029   2.792   6.494  0.2663  1.5200 -0.0926
  139bbb     H8 4152   5.192   2.752   6.469  0.1525  0.2286  0.3712
  139bbb     C5 4153   4.800   2.456   6.602 -0.7670  0.1719 -0.3473
  139bbb     H9 4154   4.812   2.358   6.555 -0.5801 -0.3923  0.8283
  139bbb    H10 4155   4.704   2.498   6.568 -0.7643  0.6832  0.2481
  139bbb     C6 4156   5.269   2.445   6.481 -0.1316 -0.1342 -0.0273
  139bbb    H11 4157   5.316   2.542   6.501 -1.6497  0.5215  0.5730
  139bbb    H12 4158   5.293   2.400   6.384 -2.1282 -1.4571  0.0241
  139bbb     C7 4159   5.160   2.914   6.622 -0.5657  0.0412 -0.6999
  139bbb    H13 4160   5.166   2.993   6.547 -0.2696  0.9367  0.2446
  139bbb    H14 4161   5.257   2.903   6.672 -0.8504  1.4011  0.1999
  139bbb     C8 4162   5.282   2.344   6.593  0.2937 -0.5205 -0.7348
  139bbb    H15 4163   5.388   2.319   6.607  0.7260  0.2873 -2.3000
  139bbb    H16 4164   5.262   2.401   6.685  1.2497  2.6288 -2.3307
  139bbb     C9 4165   4.777   2.455   6.758 -0.2049  0.1674 -0.1144
  139bbb    H17 4166   4.691   2.401   6.800 -0.3892  1.1732  0.8652
  139bbb    H18 4167   4.757   2.559   6.789  0.1107 -0.3641  2.0529
  139bbb     O1 4168   5.058   2.949   6.719  1.1472 -0.8618 -0.1326
  139bbb    H19 4169   5.048   2.458   6.656  1.1593  0.7662  0.6890
  140bbb     N1 4170   4.519   3.251   6.330 -0.2430  0.3392  0.2924
  140bbb     C1 4171   4.618   3.173   6.247 -0.7378 -0.0446 -0.0431
  140bbb     H1 4172   4.569   3.079   6.222 -1.0545  0.2357 -0.4983
  140bbb     H2 4173   4.698   3.150   6.317 -1.3442 -0.7594  0.4189
  140bbb     C2 4174   4.395   3.284   6.242  0.3804  0.0314 -0.4671
  140bbb     H3 4175   4.423   3.353   6.162  0.8290 -1.6294 -1.7940
  140bbb     H4 4176   4.326   3.337   6.308 -0.9609 -2.6151  0.3865
  140bbb     C3 4177   4.484   3.164   6.449  0.1283 -0.0011  0.1174
  140bbb     H5 4178   4.574   3.138   6.505  0.1970 -0.6119 -0.2703
  140bbb     H6 4179   4.443   3.074   6.405  0.8969 -0.4291  0.2601
  140bbb     C4 4180   4.389   3.214   6.563 -0.4748  0.6367  0.0191
  140bbb     H7 4181   4.390   3.138   6.642 -0.6137  1.6641  1.0481
  140bbb     H8 4182   4.296   3.238   6.510 -0.5259  0.9250  0.2340
  140bbb     C5 4183   4.678   3.231   6.123 -0.4198 -0.0175  0.0663
  140bbb     H9 4184   4.721   3.329   6.148 -0.1921  0.0614 -0.6160
  140bbb    H10 4185   4.595   3.264   6.058 -0.0659  1.0200  0.1184
  140bbb     C6 4186   4.327   3.166   6.172 -0.3430 -0.3034 -0.1906
  140bbb    H11 4187   4.306   3.081   6.238  0.9817  0.0357  0.6977
  140bbb    H12 4188   4.389   3.130   6.089  1.0457  1.2829  0.0991
  140bbb     C7 4189   4.433   3.353   6.626  0.0572  0.1736  0.2506
  140bbb    H13 4190   4.355   3.394   6.691  0.9869  1.4228  0.6271
  140bbb    H14 4191   4.437   3.422   6.541 -0.9292  0.5722  0.5110
  140bbb     C8 4192   4.190   3.208   6.112 -0.4252  0.7500 -0.7206
  140bbb    H15 4193   4.124   3.224   6.199  0.6445  0.7331  0.1223
  140bbb    H16 4194   4.195   3.299   6.052 -0.7029  2.2131  1.3464
  140bbb     C9 4195   4.772   3.138   6.042  0.4834 -0.8312 -0.2028
  140bbb    H17 4196   4.734   3.036   6.040  1.5373 -1.3688  2.7450
  140bbb    H18 4197   4.869   3.137   6.094  0.3807  1.0336  0.0861
  140bbb     O1 4198   4.564   3.341   6.689 -0.0835  0.5861 -0.4458
  140bbb    H19 4199   4.561   3.342   6.354 -0.4834  0.9540 -1.4598
  141bbb     N1 4200   3.584   2.414   8.070 -0.1843 -0.5115 -0.6454
  141bbb     C1 4201   3.451   2.391   8.005  0.7087  0.3391 -0.0401
  141bbb     H1 4202   3.435   2.288   7.973 -1.9111 -0.4682  3.2972
  141bbb     H2 4203   3.438   2.450   7.914 -0.4058 -2.1103 -1.5979
  141bbb     C2 4204   3.619   2.285   8.145  0.0457  0.1826  0.1158
  141bbb     H3 4205   3.633   2.212   8.065 -0.5122  0.3342 -0.1319
  141bbb     H4 4206   3.534   2.242   8.198  1.2585 -2.9778 -0.3203
  141bbb     C3 4207   3.685   2.434   7.958  0.1298 -0.5965 -0.6089
  141bbb     H5 4208   3.690   2.346   7.893 -0.1494 -1.3558  0.3751
  141bbb     H6 4209   3.780   2.428   8.011  0.1795  0.2545 -0.5893
  141bbb     C4 4210   3.692   2.569   7.878  0.4696  0.0901  0.1880
  141bbb     H7 4211   3.739   2.645   7.941  0.5947 -0.1304  0.3629
  141bbb     H8 4212   3.596   2.612   7.848  1.1455  1.6503  0.2014
  141bbb     C5 4213   3.327   2.424   8.096  0.1647  0.5182 -0.1505
  141bbb     H9 4214   3.332   2.365   8.188 -0.0686  0.6085 -0.0817
  141bbb    H10 4215   3.232   2.399   8.046 -1.0522 -1.8969  3.0647
  141bbb     C6 4216   3.733   2.281   8.251  0.4923 -0.8269  0.3081
  141bbb    H11 4217   3.823   2.338   8.223  0.7087 -0.4148  1.7356
  141bbb    H12 4218   3.762   2.176   8.260  2.2963 -0.4803 -0.9377
  141bbb     C7 4219   3.789   2.548   7.756 -0.3432  0.4116 -0.4112
  141bbb    H13 4220   3.893   2.539   7.787 -0.6058 -1.1343  0.1266
  141bbb    H14 4221   3.766   2.633   7.691  0.8045 -0.1851 -1.6254
  141bbb     C8 4222   3.686   2.343   8.390  0.7289  0.1200 -0.0882
  141bbb    H15 4223   3.769   2.321   8.459  0.2175  0.9413  0.8191
  141bbb    H16 4224   3.673   2.452   8.387  2.3468  0.3364 -0.1198
  141bbb     C9 4225   3.320   2.569   8.150  0.7603  0.0305  0.6612
  141bbb    H17 4226   3.226   2.585   8.206  0.4783 -2.5818  1.0448
  141bbb    H18 4227   3.309   2.640   8.066 -0.4924  0.6198  1.2916
  141bbb     O1 4228   3.757   2.429   7.678 -0.1080  0.2390 -0.1309
  141bbb    H19 4229   3.583   2.491   8.138 -2.2073 -0.1292 -1.0552
  142bbb     N1 4230   3.849   1.739   7.072 -0.2998  0.4316  0.2731
  142bbb     C1 4231   3.889   1.602   7.021 -0.3386  0.0866 -0.3427
  142bbb     H1 4232   3.927   1.605   6.919  0.7448  0.4126  0.0599
  142bbb     H2 4233   3.801   1.537   7.016 -1.9148  2.1496 -0.6414
  142bbb     C2 4234   3.756   1.723   7.186  0.0476  0.0386 -0.0724
  142bbb     H3 4235   3.812   1.692   7.274 -0.7982  0.8450  0.7662
  142bbb     H4 4236   3.690   1.646   7.146  0.2659 -0.6124  0.8050
  142bbb     C3 4237   3.959   1.839   7.099  0.4003 -0.0376 -0.4758
  142bbb     H5 4238   4.038   1.791   7.156 -1.5535 -2.4134  0.3939
  142bbb     H6 4239   3.923   1.913   7.172 -0.2641 -0.1919 -0.6382
  142bbb     C4 4240   4.024   1.924   6.990  0.3118  0.2983  0.1566
  142bbb     H7 4241   4.079   1.860   6.921 -1.6448  0.8548 -2.0591
  142bbb     H8 4242   4.103   1.989   7.030  0.8926 -0.5309  0.3928
  142bbb     C5 4243   4.006   1.531   7.097 -0.6531 -0.0122  0.3792
  142bbb     H9 4244   4.007   1.559   7.203  0.6135 -0.6014  0.5430
  142bbb    H10 4245   4.090   1.587   7.054 -1.1433  0.2827 -0.1973
  142bbb     C6 4246   3.664   1.846   7.223  0.2831  0.2036 -0.1055
  142bbb    H11 4247   3.728   1.933   7.201 -1.4663  1.2488 -1.3146
  142bbb    H12 4248   3.637   1.845   7.329 -0.0689 -1.0324 -0.1967
  142bbb     C7 4249   3.921   2.009   6.906  0.4025  0.6563  0.5368
  142bbb    H13 4250   3.847   1.945   6.855  0.4006  1.1805 -0.1245
  142bbb    H14 4251   3.978   2.064   6.831  0.7011  1.8998  1.6409
  142bbb     C8 4252   3.541   1.862   7.130 -0.0484  0.8374 -0.4430
  142bbb    H15 4253   3.470   1.779   7.145 -0.5730  1.3006 -0.3157
  142bbb    H16 4254   3.486   1.951   7.164  0.5396  0.9407  0.2661
  142bbb     C9 4255   4.030   1.384   7.065  0.0440 -0.3077 -0.6811
  142bbb    H17 4256   4.138   1.365   7.069  0.3444  1.4342  2.1089
  142bbb    H18 4257   3.989   1.358   6.967  1.3434 -1.0417 -1.0496
  142bbb     O1 4258   3.859   2.107   6.994  0.3518 -0.1418 -0.1201
  142bbb    H19 4259   3.786   1.774   6.999 -0.5173  0.0165  0.2607
  143bbb     N1 4260   6.665   6.270   5.688  0.3137  0.4991  0.0485
  143bbb     C1 4261   6.634   6.124   5.718  0.0809 -1.0036 -0.2959
  143bbb     H1 4262   6.542   6.132   5.778  0.6620 -0.1260  0.5064
  143bbb     H2 4263   6.708   6.083   5.787 -0.3743  1.0576  1.5454
  143bbb     C2 4264   6.552   6.339   5.611  0.1500 -0.2301  0.4735
  143bbb     H3 4265   6.471   6.353   5.683 -1.2137 -2.4906 -0.5087
  143bbb     H4 4266   6.537   6.274   5.525 -0.8074 -1.2665  1.3913
  143bbb     C3 4267   6.680   6.340   5.813 -0.6151  0.4519 -0.3288
  143bbb     H5 4268   6.592   6.315   5.874  0.8899 -2.4729  0.8129
  143bbb     H6 4269   6.684   6.448   5.799  1.5330  0.3164 -1.0236
  143bbb     C4 4270   6.811   6.302   5.894  0.3999 -0.5932 -0.3072
  143bbb     H7 4271   6.899   6.327   5.833  0.4933  0.4042  0.2192
  143bbb     H8 4272   6.827   6.194   5.903  0.2331 -0.6865 -1.0492
  143bbb     C5 4273   6.612   6.041   5.586  0.0049  0.9413 -0.0624
  143bbb     H9 4274   6.551   6.089   5.508  1.1803 -0.0938 -1.6889
  143bbb    H10 4275   6.565   5.944   5.604  2.9833 -0.3948  1.2238
  143bbb     C6 4276   6.604   6.474   5.555 -0.4825  0.4201  0.3516
  143bbb    H11 4277   6.677   6.461   5.474 -1.3754  1.8560 -0.7316
  143bbb    H12 4278   6.665   6.532   5.625 -1.4757  1.1700  0.6224
  143bbb     C7 4279   6.831   6.382   6.029 -0.2349  0.9540  0.3319
  143bbb    H13 4280   6.852   6.488   6.013 -2.2550  1.2288 -0.7767
  143bbb    H14 4281   6.915   6.335   6.082 -0.8543 -0.7348 -0.0889
  143bbb     C8 4282   6.495   6.566   5.501 -0.4717 -0.8083  0.2738
  143bbb    H15 4283   6.434   6.514   5.425 -4.4093 -0.8290  3.1488
  143bbb    H16 4284   6.415   6.584   5.574 -1.4115 -0.5907 -0.7852
  143bbb     C9 4285   6.751   6.027   5.517  0.3463  0.0445 -0.8520
  143bbb    H17 4286   6.742   5.972   5.422 -1.6948  0.3198 -0.8521
  143bbb    H18 4287   6.813   5.977   5.593 -1.3302 -0.4082  0.2800
  143bbb     O1 4288   6.702   6.388   6.103 -0.1117  0.1184 -0.1614
  143bbb    H19 4289   6.754   6.281   5.637  0.6838  1.6489  0.9025
  144bbb     N1 4290   6.908   7.163   6.453 -0.4010  0.5416  0.2644
  144bbb     C1 4291   6.980   7.253   6.352  0.5364  0.1843  0.0174
  144bbb     H1 4292   6.914   7.281   6.270  1.7434  1.7276 -0.4753
  144bbb     H2 4293   7.067   7.207   6.306  0.0648  0.9435 -1.6976
  144bbb     C2 4294   6.759   7.164   6.433  0.8628  0.4685  0.0765
  144bbb     H3 4295   6.712   7.093   6.502  1.4045 -0.5326 -0.5511
  144bbb     H4 4296   6.739   7.119   6.336 -1.2235 -1.0031  1.0960
  144bbb     C3 4297   6.956   7.024   6.446 -0.3060  0.5042 -0.3307
  144bbb     H5 4298   7.059   7.010   6.415 -0.1153  2.1365 -0.5227
  144bbb     H6 4299   6.891   6.977   6.373  0.0527  0.6530 -0.7487
  144bbb     C4 4300   6.953   6.940   6.579  0.1485  0.6157 -0.2016
  144bbb     H7 4301   6.999   6.989   6.666 -0.2185  0.7133 -0.0629
  144bbb     H8 4302   7.011   6.848   6.567 -1.7027 -0.3790 -2.0692
  144bbb     C5 4303   7.033   7.385   6.409 -0.0995  0.0575 -0.0213
  144bbb     H9 4304   7.093   7.357   6.497 -1.7687  1.5154  1.6763
  144bbb    H10 4305   6.952   7.438   6.461 -0.4073  0.2709 -0.7143
  144bbb     C6 4306   6.686   7.293   6.457  0.3558 -0.4957  0.8438
  144bbb    H11 4307   6.579   7.282   6.440  0.5522 -1.2664  0.0663
  144bbb    H12 4308   6.714   7.366   6.380 -1.7469 -0.0287  0.4580
  144bbb     C7 4309   6.811   6.894   6.627 -0.3956  0.0289 -0.4719
  144bbb    H13 4310   6.757   6.977   6.673  0.8910  0.0561  1.0913
  144bbb    H14 4311   6.841   6.816   6.699 -0.1288  0.3488 -0.2334
  144bbb     C8 4312   6.711   7.356   6.595 -0.6127 -0.1518  0.0177
  144bbb    H15 4313   6.674   7.279   6.663 -2.4437 -0.2148 -0.9699
  144bbb    H16 4314   6.818   7.365   6.617  0.0083 -2.9418 -1.3909
  144bbb     C9 4315   7.111   7.468   6.305 -0.4561  0.3510 -0.4125
  144bbb    H17 4316   7.073   7.452   6.203  1.4061 -1.6494 -0.8821
  144bbb    H18 4317   7.215   7.433   6.305  0.9057  3.9250  1.6580
  144bbb     O1 4318   6.738   6.834   6.522 -0.4765  0.2284  0.0300
  144bbb    H19 4319   6.930   7.200   6.547 -2.9731 -1.1121  1.6318
  145bbb     N1 4320   7.336   6.536   7.953 -0.1760  0.1339  0.2946
  145bbb     C1 4321   7.380   6.504   7.811  0.5813 -0.8983 -1.2894
  145bbb     H1 4322   7.479   6.548   7.801 -0.3049  1.9279  0.9968
  145bbb     H2 4323   7.313   6.564   7.749 -1.9430 -0.6720  1.4034
  145bbb     C2 4324   7.385   6.674   7.984  0.0767  0.2649  0.7349
  145bbb     H3 4325   7.494   6.672   7.980  0.0818 -2.1192  0.8511
  145bbb     H4 4326   7.348   6.685   8.086  0.9055 -1.4887  1.2732
  145bbb     C3 4327   7.188   6.517   7.968  0.4706 -0.4552 -0.2746
  145bbb     H5 4328   7.171   6.415   7.935  2.6046 -1.2510  0.8427
  145bbb     H6 4329   7.137   6.593   7.910 -0.7563 -0.9721  0.0934
  145bbb     C4 4330   7.134   6.528   8.110  0.5552  0.2932 -0.4084
  145bbb     H7 4331   7.145   6.628   8.155 -1.5970  1.1471 -1.6097
  145bbb     H8 4332   7.176   6.446   8.170  2.3614  1.0087 -0.6189
  145bbb     C5 4333   7.368   6.355   7.767  0.1234  0.1123  0.3291
  145bbb     H9 4334   7.262   6.331   7.753 -0.0482  0.4203  1.0501
  145bbb    H10 4335   7.414   6.292   7.844 -1.3586 -1.4522 -0.0081
  145bbb     C6 4336   7.334   6.792   7.904 -0.3216 -0.3259 -0.2394
  145bbb    H11 4337   7.226   6.774   7.889 -0.6672  0.4693  1.1946
  145bbb    H12 4338   7.384   6.790   7.807 -0.5706  0.6114 -0.3918
  145bbb     C7 4339   6.984   6.496   8.110  0.3925 -0.5965 -0.5886
  145bbb    H13 4340   6.954   6.473   8.213  1.3703  1.4922  0.2288
  145bbb    H14 4341   6.963   6.405   8.054 -2.4587 -1.0070  0.9638
  145bbb     C8 4342   7.366   6.917   7.987 -0.5090  0.2201  0.3289
  145bbb    H15 4343   7.474   6.927   8.000 -0.3579 -2.3840  1.7258
  145bbb    H16 4344   7.333   7.007   7.934 -1.3104  0.0280  0.4922
  145bbb     C9 4345   7.447   6.330   7.640 -0.4077  0.3543  0.3118
  145bbb    H17 4346   7.416   6.394   7.557 -0.7397  2.3858  1.9140
  145bbb    H18 4347   7.429   6.228   7.605 -1.9209  0.8990 -0.6244
  145bbb     O1 4348   6.907   6.616   8.071  0.2683  0.9821  0.1022
  145bbb    H19 4349   7.375   6.466   8.019  0.8048 -1.6789 -2.0204
  146bbb     N1 4350   6.767   7.353   7.859 -0.3399 -0.3925  0.4371
  146bbb     C1 4351   6.757   7.429   7.991 -0.6450  0.1773  0.0653
  146bbb     H1 4352   6.817   7.381   8.068 -3.0541 -1.9295  0.7642
  146bbb     H2 4353   6.658   7.423   8.037 -1.0967  3.1142 -0.3478
  146bbb     C2 4354   6.643   7.380   7.771 -0.2158 -0.6356  0.0054
  146bbb     H3 4355   6.636   7.489   7.764 -2.2578 -0.4072  3.4458
  146bbb     H4 4356   6.559   7.360   7.837 -0.3168 -3.9436 -0.9536
  146bbb     C3 4357   6.893   7.387   7.785  0.1177 -0.3492  0.0592
  146bbb     H5 4358   6.882   7.494   7.765 -0.4327 -0.2404  0.8892
  146bbb     H6 4359   6.890   7.332   7.691 -2.2112  2.0236 -1.3986
  146bbb     C4 4360   7.025   7.357   7.856  0.2094 -0.0237 -0.1165
  146bbb     H7 4361   7.037   7.423   7.943  1.1507 -0.3741  0.0300
  146bbb     H8 4362   7.099   7.392   7.783 -1.4274 -0.5014 -2.0765
  146bbb     C5 4363   6.769   7.584   8.003  0.7041 -0.3847  0.6767
  146bbb     H9 4364   6.699   7.618   7.925 -1.5804 -0.4920  2.5634
  146bbb    H10 4365   6.868   7.624   7.979  1.3719 -0.4916  3.0796
  146bbb     C6 4366   6.624   7.307   7.633  0.4936  0.1389 -0.0541
  146bbb    H11 4367   6.645   7.201   7.653 -0.1600  0.0974  0.4455
  146bbb    H12 4368   6.702   7.344   7.565  0.1155  1.4094  0.1860
  146bbb     C7 4369   7.055   7.216   7.896 -0.0555  0.9961 -0.5683
  146bbb    H13 4370   6.998   7.196   7.987  1.9777 -0.9399  0.3651
  146bbb    H14 4371   7.159   7.197   7.924 -0.4842  0.5157  0.7716
  146bbb     C8 4372   6.482   7.329   7.574  0.1555  0.2056  0.5218
  146bbb    H15 4373   6.463   7.434   7.548  1.2771  1.1879  3.2907
  146bbb    H16 4374   6.481   7.274   7.479  1.1686  0.6265  0.2580
  146bbb     C9 4375   6.723   7.651   8.137 -0.3391  0.1247  0.0075
  146bbb    H17 4376   6.700   7.755   8.111 -2.2304 -0.6098 -1.5050
  146bbb    H18 4377   6.804   7.652   8.211 -0.4318 -0.2809  0.1165
  146bbb     O1 4378   7.012   7.128   7.792  0.5002  0.0210  0.2813
  146bbb    H19 4379   6.774   7.254   7.885  0.9523 -0.3642  0.2555
  147bbb     N1 4380   6.987   4.995   8.587 -0.0741  0.3301  0.0016
  147bbb     C1 4381   6.870   4.891   8.612 -0.3964 -0.0857  0.4476
  147bbb     H1 4382   6.789   4.937   8.555  0.0970  0.6962  0.3569
  147bbb     H2 4383   6.843   4.891   8.718  0.9916  3.3936  0.9462
  147bbb     C2 4384   7.115   4.966   8.666  0.0612  0.1289 -0.1399
  147bbb     H3 4385   7.200   5.019   8.623 -0.3396  0.9679  0.0794
  147bbb     H4 4386   7.128   4.858   8.669 -2.9841 -0.3291 -0.4032
  147bbb     C3 4387   7.030   5.003   8.439  0.5736 -0.4704  0.3936
  147bbb     H5 4388   6.939   5.014   8.380  0.4903  1.2174  0.8064
  147bbb     H6 4389   7.075   4.910   8.405  1.3253  0.8011 -2.3632
  147bbb     C4 4390   7.128   5.115   8.403  0.7534 -0.0284  0.2977
  147bbb     H7 4391   7.227   5.070   8.409  0.4512 -0.6930  0.4274
  147bbb     H8 4392   7.100   5.202   8.464 -1.6051 -0.5337  0.0367
  147bbb     C5 4393   6.904   4.750   8.568 -0.4899 -0.6547 -0.1212
  147bbb     H9 4394   6.992   4.704   8.615 -1.0373 -2.9617 -1.1955
  147bbb    H10 4395   6.921   4.756   8.460 -2.2866  1.3377 -0.3687
  147bbb     C6 4396   7.120   5.011   8.816 -0.0653 -0.3401  0.9815
  147bbb    H11 4397   7.045   4.956   8.874 -0.5592  1.9050  2.5972
  147bbb    H12 4398   7.098   5.118   8.822 -1.8277 -0.6683  0.8087
  147bbb     C7 4399   7.102   5.155   8.249 -0.0390  0.4048 -1.2049
  147bbb    H13 4400   7.132   5.068   8.190 -2.1736 -2.7584  1.9596
  147bbb    H14 4401   7.163   5.244   8.231  1.5708 -0.5272 -0.5067
  147bbb     C8 4402   7.254   4.980   8.884 -0.5603 -0.8394  0.0140
  147bbb    H15 4403   7.232   4.967   8.991 -2.1099  1.9086  0.1109
  147bbb    H16 4404   7.290   4.882   8.849 -2.9118 -1.0207 -2.2555
  147bbb     C9 4405   6.794   4.647   8.594  0.0997  0.3705 -0.1496
  147bbb    H17 4406   6.828   4.554   8.549  1.0778  0.1686  0.9582
  147bbb    H18 4407   6.703   4.677   8.539 -2.0113 -1.8964  1.8675
  147bbb     O1 4408   6.959   5.184   8.233  0.2074 -0.9632 -0.0712
  147bbb    H19 4409   6.957   5.086   8.625  0.8395  0.3688  0.6860
  148bbb     N1 4410   5.900   5.253   8.805 -0.5978  0.2200 -0.7055
  148bbb     C1 4411   5.883   5.388   8.739  0.1510  0.3136  0.4533
  148bbb     H1 4412   5.776   5.402   8.722  0.4089 -0.4094 -2.3792
  148bbb     H2 4413   5.934   5.380   8.643  1.6262  0.7722  1.1712
  148bbb     C2 4414   5.819   5.152   8.731  0.4039 -0.2753 -0.0465
  148bbb     H3 4415   5.870   5.139   8.635 -1.1890 -0.8037 -0.8474
  148bbb     H4 4416   5.718   5.188   8.712 -0.1719 -1.9045 -0.2724
  148bbb     C3 4417   6.050   5.207   8.820 -0.3872  0.1676  0.9445
  148bbb     H5 4418   6.040   5.100   8.839  1.3384  0.3769  3.4752
  148bbb     H6 4419   6.095   5.260   8.904 -0.5749  2.2246 -0.1797
  148bbb     C4 4420   6.143   5.223   8.694 -0.3599 -0.5927 -0.2595
  148bbb     H7 4421   6.170   5.329   8.704 -1.9894 -0.1483 -0.2851
  148bbb     H8 4422   6.085   5.209   8.602 -0.0192  0.1834 -0.6046
  148bbb     C5 4423   5.934   5.511   8.816  0.3449 -0.0041 -0.4920
  148bbb     H9 4424   6.042   5.513   8.832  0.3763 -0.3733 -0.6596
  148bbb    H10 4425   5.888   5.502   8.916 -2.8834  1.3853 -1.6839
  148bbb     C6 4426   5.803   5.011   8.793 -0.7794  0.1294  1.1036
  148bbb    H11 4427   5.901   4.962   8.807  0.7005  1.2264 -3.6411
  148bbb    H12 4428   5.745   4.950   8.723 -2.1245  2.2138  0.3215
  148bbb     C7 4429   6.270   5.136   8.703 -0.1014  0.1446 -0.7638
  148bbb    H13 4430   6.240   5.032   8.689  0.9261 -0.1762 -0.6445
  148bbb    H14 4431   6.323   5.148   8.798 -0.0272  0.4405 -0.8399
  148bbb     C8 4432   5.738   5.005   8.933 -0.6886  0.5789 -0.3293
  148bbb    H15 4433   5.634   5.039   8.923 -1.1158 -0.5761  0.0476
  148bbb    H16 4434   5.737   4.902   8.969 -0.9677 -0.0018 -1.9249
  148bbb     C9 4435   5.883   5.640   8.754 -0.1814  0.5450 -0.3674
  148bbb    H17 4436   5.941   5.653   8.662 -1.7317  3.6158 -1.0264
  148bbb    H18 4437   5.899   5.727   8.819 -1.8715 -1.2858  2.7377
  148bbb     O1 4438   6.375   5.173   8.617 -0.3455  0.2680  0.2171
  148bbb    H19 4439   5.851   5.243   8.896  1.6394 -0.6422  0.4995
  149bbb     N1 4440   6.791   4.509   7.093  0.4842  0.2609 -0.2044
  149bbb     C1 4441   6.752   4.397   7.194  0.6633 -0.5681  0.0067
  149bbb     H1 4442   6.823   4.405   7.277 -0.7091 -0.4943  1.2015
  149bbb     H2 4443   6.776   4.302   7.145 -0.9379 -0.4237 -1.1069
  149bbb     C2 4444   6.677   4.505   6.989 -0.4232 -0.1007  0.4619
  149bbb     H3 4445   6.622   4.596   7.014  1.5327  0.6034  2.6043
  149bbb     H4 4446   6.608   4.421   6.994 -0.0532 -0.4144  0.3132
  149bbb     C3 4447   6.789   4.638   7.173 -0.0975  0.5407  0.4815
  149bbb     H5 4448   6.692   4.649   7.222 -2.2963 -1.3397 -3.0757
  149bbb     H6 4449   6.788   4.709   7.090 -0.7074  0.3706  0.3391
  149bbb     C4 4450   6.911   4.658   7.271  0.5635  0.0011  0.1105
  149bbb     H7 4451   6.895   4.591   7.356 -1.7785 -2.8294 -2.3215
  149bbb     H8 4452   6.917   4.757   7.318  1.2820 -0.5938  1.3016
  149bbb     C5 4453   6.614   4.398   7.259  0.2789 -0.2519 -0.5734
  149bbb     H9 4454   6.536   4.393   7.183 -0.8584  0.7373  0.4904
  149bbb    H10 4455   6.596   4.493   7.311 -0.5351  0.6019 -2.3354
  149bbb     C6 4456   6.736   4.509   6.851 -0.4414  0.2617 -0.0741
  149bbb    H11 4457   6.780   4.604   6.820  0.9876  0.0849  1.3273
  149bbb    H12 4458   6.653   4.484   6.784  0.8973  0.0800 -1.7216
  149bbb     C7 4459   7.042   4.617   7.203  0.1549  0.0157 -0.2817
  149bbb    H13 4460   7.032   4.510   7.182 -0.5777  0.3691 -1.9095
  149bbb    H14 4461   7.130   4.623   7.268 -0.4907  0.4367  0.5812
  149bbb     C8 4462   6.840   4.396   6.822  0.0496 -0.6068 -0.2203
  149bbb    H15 4463   6.786   4.306   6.854 -1.0958 -0.2420 -1.0441
  149bbb    H16 4464   6.844   4.394   6.713  0.4521  2.4679 -0.3590
  149bbb     C9 4465   6.602   4.283   7.351 -0.8501 -0.3411 -0.1791
  149bbb    H17 4466   6.616   4.184   7.305  0.9322 -0.3921  0.3851
  149bbb    H18 4467   6.502   4.278   7.397 -0.7410  2.3244  0.4894
  149bbb     O1 4468   7.064   4.698   7.085  0.3259  0.2356  0.6994
  149bbb    H19 4469   6.882   4.488   7.050  1.1842 -1.9702  2.1022
  150bbb     N1 4470   7.474   5.626   6.761 -0.3540  0.5720  0.1997
  150bbb     C1 4471   7.543   5.490   6.793  0.4536 -0.5334 -0.1714
  150bbb     H1 4472   7.622   5.483   6.718 -0.0845  0.4584 -0.8516
  150bbb     H2 4473   7.463   5.417   6.776  2.4550 -2.4839 -1.8862
  150bbb     C2 4474   7.528   5.674   6.626 -0.3735  0.0644 -0.4434
  150bbb     H3 4475   7.520   5.599   6.546 -0.0759 -1.0073  0.5018
  150bbb     H4 4476   7.635   5.690   6.636 -0.2122  0.7112 -2.5940
  150bbb     C3 4477   7.321   5.613   6.761  0.0420 -0.0309 -0.3090
  150bbb     H5 4478   7.294   5.537   6.687  3.9139 -1.2800 -0.6546
  150bbb     H6 4479   7.296   5.715   6.732 -1.8862 -0.4621 -0.3217
  150bbb     C4 4480   7.261   5.581   6.899  0.6577  0.3681 -0.4943
  150bbb     H7 4481   7.296   5.659   6.967  0.9043 -0.1215 -0.0497
  150bbb     H8 4482   7.303   5.485   6.935  1.0224  0.8148  0.3088
  150bbb     C5 4483   7.606   5.476   6.926  0.3005 -0.5856  0.3575
  150bbb     H9 4484   7.531   5.433   6.994 -0.1699  0.2174  0.3486
  150bbb    H10 4485   7.625   5.573   6.973 -1.1498 -0.2626  0.2977
  150bbb     C6 4486   7.474   5.811   6.576 -0.1308 -0.3988 -0.1110
  150bbb    H11 4487   7.440   5.877   6.656 -2.0966  1.9432 -2.6679
  150bbb    H12 4488   7.383   5.795   6.518  0.8415  0.7074 -2.0822
  150bbb     C7 4489   7.104   5.568   6.903 -0.6802 -0.2313  0.1158
  150bbb    H13 4490   7.066   5.642   6.831  1.2387 -0.1905 -0.9361
  150bbb    H14 4491   7.069   5.605   7.000 -0.4885  1.4611 -0.4278
  150bbb     C8 4492   7.583   5.884   6.497 -0.5491  0.7742  0.7175
  150bbb    H15 4493   7.553   5.980   6.452 -0.5034 -0.3139 -1.8156
  150bbb    H16 4494   7.669   5.906   6.561  0.1279  0.1282  0.0438
  150bbb     C9 4495   7.732   5.389   6.926 -0.3882  0.2496  0.4670
  150bbb    H17 4496   7.702   5.289   6.893 -0.4794 -0.5721  2.8305
  150bbb    H18 4497   7.778   5.366   7.023 -1.5305 -2.7994  0.3833
  150bbb     O1 4498   7.068   5.426   6.863 -0.5175  0.1197  0.0457
  150bbb    H19 4499   7.502   5.695   6.831 -0.9780  0.1632  0.8676
  151bbb     N1 4500   3.902   7.233   5.090  0.0983  0.0141  0.1531
  151bbb     C1 4501   3.748   7.245   5.099  0.2660  0.4616  0.6571
  151bbb     H1 4502   3.723   7.345   5.137  1.9727  1.0222  0.4049
  151bbb     H2 4503   3.703   7.172   5.166  1.4112 -4.3485 -3.2229
  151bbb     C2 4504   3.974   7.348   5.018  0.0093  0.0202 -0.8601
  151bbb     H3 4505   3.965   7.432   5.088 -0.3972 -0.1817 -0.6642
  151bbb     H4 4506   3.906   7.366   4.934  1.5685  0.6359 -2.0486
  151bbb     C3 4507   3.957   7.213   5.233  0.5418 -0.1441 -0.0381
  151bbb     H5 4508   3.911   7.288   5.297  1.1173  0.1824  0.0062
  151bbb     H6 4509   4.062   7.242   5.242  0.8889 -1.0294 -1.0098
  151bbb     C4 4510   3.934   7.073   5.293 -0.1257 -0.2765  0.3109
  151bbb     H7 4511   3.895   7.007   5.215  1.1934 -0.2104 -0.4245
  151bbb     H8 4512   3.857   7.054   5.369  0.5950 -2.4809  0.5625
  151bbb     C5 4513   3.680   7.218   4.958 -0.4575 -0.5044 -0.1127
  151bbb     H9 4514   3.699   7.310   4.902 -0.1440  0.2846  1.2210
  151bbb    H10 4515   3.572   7.200   4.964 -0.8574  0.6607 -2.5778
  151bbb     C6 4516   4.116   7.316   4.965 -0.5548 -0.0418  0.3147
  151bbb    H11 4517   4.103   7.226   4.904 -1.5135  1.3623 -1.6538
  151bbb    H12 4518   4.185   7.298   5.049  2.6413  1.8703 -1.6977
  151bbb     C7 4519   4.064   7.007   5.351  0.4154 -0.4527 -0.3724
  151bbb    H13 4520   4.139   6.999   5.272  0.0481  1.2855 -0.9348
  151bbb    H14 4521   4.030   6.908   5.386  0.0510 -1.5907 -3.6160
  151bbb     C8 4522   4.166   7.427   4.875 -0.0358  0.6348 -0.0270
  151bbb    H15 4523   4.071   7.467   4.835 -0.1492 -1.3773 -1.9569
  151bbb    H16 4524   4.221   7.505   4.929  1.3941 -0.0987 -0.4005
  151bbb     C9 4525   3.745   7.103   4.873  0.4045  0.3539  0.4798
  151bbb    H17 4526   3.831   7.134   4.811 -1.1277  1.9150 -0.9798
  151bbb    H18 4527   3.672   7.067   4.799 -0.7505 -0.0730  1.7962
  151bbb     O1 4528   4.117   7.075   5.469  0.5041  0.1325  0.2689
  151bbb    H19 4529   3.925   7.151   5.032  0.6779  0.1180  0.2282
  152bbb     N1 4530   3.889   8.075   5.637 -0.5042 -0.4176  0.1708
  152bbb     C1 4531   3.741   8.086   5.669 -0.0590  0.2016 -0.7417
  152bbb     H1 4532   3.706   8.190   5.674 -1.2209 -0.2084  0.1502
  152bbb     H2 4533   3.730   8.058   5.774  0.4913 -1.0743 -1.0119
  152bbb     C2 4534   3.963   8.158   5.755  0.0580  0.0300  0.4245
  152bbb     H3 4535   4.071   8.147   5.744  0.0001 -0.6787  0.5373
  152bbb     H4 4536   3.959   8.106   5.850  0.3750 -1.3055 -0.2723
  152bbb     C3 4537   3.939   7.925   5.651  0.3441 -0.3249  0.4585
  152bbb     H5 4538   3.851   7.862   5.638 -0.9545  2.0212 -5.0365
  152bbb     H6 4539   3.970   7.919   5.756 -0.8343 -0.7567  0.7930
  152bbb     C4 4540   4.046   7.891   5.550  0.2717 -0.3680 -0.0538
  152bbb     H7 4541   4.112   7.975   5.522  0.9135 -0.8195  0.0754
  152bbb     H8 4542   3.998   7.853   5.459 -2.6634  1.3217  0.6510
  152bbb     C5 4543   3.648   8.007   5.585  0.1650 -0.6805 -0.2041
  152bbb     H9 4544   3.696   7.919   5.539  1.4847  1.5469 -3.4984
  152bbb    H10 4545   3.617   8.069   5.500  3.2173 -0.1948 -1.0855
  152bbb     C6 4546   3.922   8.307   5.769  1.1566 -0.2009  0.1878
  152bbb    H11 4547   3.999   8.354   5.830  0.1549  1.0654  0.5182
  152bbb    H12 4548   3.831   8.325   5.827  0.3991  4.4446 -1.9702
  152bbb     C7 4549   4.133   7.775   5.599  0.0616 -0.2064 -0.2928
  152bbb    H13 4550   4.075   7.687   5.629  0.8992 -1.0934 -1.1857
  152bbb    H14 4551   4.195   7.812   5.682  1.1898  2.7990 -2.3077
  152bbb     C8 4552   3.922   8.377   5.631  0.0149 -0.1631  0.4872
  152bbb    H15 4553   3.860   8.325   5.557 -0.7584  0.2727  0.8244
  152bbb    H16 4554   3.879   8.478   5.633 -1.8648 -0.9233  0.3801
  152bbb     C9 4555   3.535   7.963   5.669 -0.1427 -0.1015 -1.4953
  152bbb    H17 4556   3.568   7.943   5.772 -3.7077 -0.2234 -0.2365
  152bbb    H18 4557   3.479   7.879   5.627 -0.3740  0.0101 -1.4171
  152bbb     O1 4558   4.214   7.722   5.488  0.5103  0.4393  0.3355
  152bbb    H19 4559   3.904   8.102   5.539 -0.8972 -2.9648 -0.6630
  153bbb     N1 4560   5.065   6.698   4.918  0.6422  1.1741  0.0038
  153bbb     C1 4561   5.121   6.557   4.884 -0.7621  0.8157 -0.5121
  153bbb     H1 4562   5.080   6.507   4.797 -2.3105 -0.8355  1.0808
  153bbb     H2 4563   5.102   6.501   4.976  0.5011  2.6208  0.9478
  153bbb     C2 4564   5.011   6.764   4.794 -0.1618  0.2934  0.0537
  153bbb     H3 4565   4.937   6.838   4.825  1.4875  1.0077  2.6093
  153bbb     H4 4566   4.960   6.681   4.744 -1.6112  1.0205  0.2685
  153bbb     C3 4567   4.939   6.676   5.009 -0.6726 -0.3575  0.5417
  153bbb     H5 4568   4.976   6.601   5.079  1.4576 -0.9282 -1.0791
  153bbb     H6 4569   4.857   6.631   4.953 -0.3769  0.1066 -0.2956
  153bbb     C4 4570   4.895   6.800   5.092 -0.0265  0.7868  0.0724
  153bbb     H7 4571   4.882   6.884   5.022 -3.2523 -1.3217 -2.1162
  153bbb     H8 4572   4.981   6.828   5.154  0.9702 -1.3221 -0.2654
  153bbb     C5 4573   5.277   6.572   4.856 -0.4217  0.3949  0.2939
  153bbb     H9 4574   5.296   6.603   4.753  1.1788 -0.3994  0.3176
  153bbb    H10 4575   5.326   6.474   4.854 -2.1846 -0.5578  1.2215
  153bbb     C6 4576   5.109   6.834   4.699 -0.2521  0.2924  0.4500
  153bbb    H11 4577   5.185   6.764   4.662 -1.5857 -0.7572 -0.4289
  153bbb    H12 4578   5.152   6.916   4.756 -2.1470  0.7995  1.2334
  153bbb     C7 4579   4.777   6.779   5.191  0.1492  0.8193 -0.1893
  153bbb    H13 4580   4.689   6.741   5.136  1.1563 -0.1770 -1.1587
  153bbb    H14 4581   4.752   6.872   5.244 -1.7094  0.2197  0.0602
  153bbb     C8 4582   5.049   6.893   4.563 -0.1391 -0.4558  0.3586
  153bbb    H15 4583   4.973   6.967   4.591  0.4231  0.3938 -0.3033
  153bbb    H16 4584   5.132   6.943   4.511  0.1174  1.0069  2.0644
  153bbb     C9 4585   5.351   6.651   4.963 -0.7454  0.6626 -0.6611
  153bbb    H17 4586   5.457   6.621   4.967 -0.6036  1.2358  0.1686
  153bbb    H18 4587   5.321   6.631   5.066  1.8726  0.2868  0.1139
  153bbb     O1 4588   4.818   6.675   5.282  0.2823 -0.3702  0.8053
  153bbb    H19 4589   5.140   6.752   4.963  0.7821  0.3665  0.7704
  154bbb     N1 4590   5.135   5.761   5.212 -0.3956 -0.4583 -0.2698
  154bbb     C1 4591   5.073   5.629   5.161  0.1971 -0.0409 -0.7107
  154bbb     H1 4592   4.977   5.653   5.115  1.0035 -1.8556 -3.5686
  154bbb     H2 4593   5.036   5.572   5.247 -2.4049  2.4341 -0.0218
  154bbb     C2 4594   5.274   5.724   5.277 -0.2998 -0.2076  0.2436
  154bbb     H3 4595   5.337   5.811   5.298  0.0534 -0.9191  2.2827
  154bbb     H4 4596   5.331   5.674   5.198 -0.0808 -0.7022  0.7140
  154bbb     C3 4597   5.166   5.854   5.096  0.0062  0.0070 -0.7372
  154bbb     H5 4598   5.238   5.806   5.030 -1.9774 -2.7148 -1.0820
  154bbb     H6 4599   5.210   5.943   5.142 -0.1870 -0.0752 -0.3849
  154bbb     C4 4600   5.045   5.901   5.015  0.5767 -0.8428 -0.2504
  154bbb     H7 4601   5.011   5.821   4.949 -0.0117  0.1230 -1.1418
  154bbb     H8 4602   5.075   5.985   4.952 -0.0652 -0.3633  0.0745
  154bbb     C5 4603   5.155   5.540   5.072  0.0710  0.1142 -0.6909
  154bbb     H9 4604   5.244   5.511   5.130 -0.0856  0.0469 -0.4864
  154bbb    H10 4605   5.176   5.579   4.971 -1.3354 -1.1572 -1.5082
  154bbb     C6 4606   5.269   5.636   5.408 -0.1326 -0.4068 -0.0305
  154bbb    H11 4607   5.225   5.539   5.382 -1.9184 -0.0982  1.6483
  154bbb    H12 4608   5.201   5.690   5.476  0.1682 -0.0561 -0.0015
  154bbb     C7 4609   4.936   5.959   5.105 -0.0741  0.4463  0.1731
  154bbb    H13 4610   4.894   5.875   5.162 -1.2976  0.2094 -1.0296
  154bbb    H14 4611   4.853   6.006   5.051 -0.1013 -1.9655 -2.0844
  154bbb     C8 4612   5.408   5.626   5.475  0.9886  0.1048 -0.4359
  154bbb    H15 4613   5.393   5.546   5.549 -2.0522  0.4583 -0.5558
  154bbb    H16 4614   5.475   5.597   5.394  1.4516  0.5452 -0.2139
  154bbb     C9 4615   5.071   5.420   5.042  0.5358 -0.1274  0.2728
  154bbb    H17 4616   4.977   5.442   4.989  1.5648  0.7821 -1.2854
  154bbb    H18 4617   5.056   5.363   5.134 -2.0550 -0.9926 -0.5885
  154bbb     O1 4618   4.991   6.059   5.200 -0.4654  0.8492 -0.6484
  154bbb    H19 4619   5.071   5.800   5.283 -1.9217 -1.4241 -1.0540
  155bbb     N1 4620   3.684   7.649   7.393  0.1120  0.2056  0.4331
  155bbb     C1 4621   3.665   7.797   7.356  0.7856 -0.5179 -0.1728
  155bbb     H1 4622   3.629   7.852   7.443  0.4639  0.1455 -0.7152
  155bbb     H2 4623   3.587   7.797   7.280  2.5887 -0.8445 -2.1210
  155bbb     C2 4624   3.561   7.598   7.466  0.0573 -0.2026  0.3845
  155bbb     H3 4625   3.580   7.491   7.463  1.1895 -0.0723  1.9133
  155bbb     H4 4626   3.482   7.625   7.395 -1.0012 -1.1090  1.1833
  155bbb     C3 4627   3.678   7.568   7.256 -0.0260  0.3326 -0.3400
  155bbb     H5 4628   3.745   7.611   7.181  1.2678  0.9850  1.1409
  155bbb     H6 4629   3.577   7.580   7.218 -0.8288  0.9801  1.8739
  155bbb     C4 4630   3.697   7.414   7.271 -0.2803 -0.0511 -0.0995
  155bbb     H7 4631   3.598   7.368   7.273  0.7825 -2.4772  0.2705
  155bbb     H8 4632   3.746   7.396   7.367 -0.9001 -0.8133  0.0761
  155bbb     C5 4633   3.783   7.871   7.291 -0.9054  0.5273 -0.1548
  155bbb     H9 4634   3.748   7.960   7.238  0.4390  1.5428  0.5873
  155bbb    H10 4635   3.830   7.803   7.219  0.2631 -0.0606  1.1103
  155bbb     C6 4636   3.510   7.662   7.599 -0.3926  0.0553  0.2106
  155bbb    H11 4637   3.502   7.771   7.587  1.0152  0.1053 -0.3821
  155bbb    H12 4638   3.584   7.654   7.680 -1.6673  1.7918  1.6318
  155bbb     C7 4639   3.775   7.344   7.157 -0.0394  0.0246 -0.2958
  155bbb    H13 4640   3.731   7.347   7.056  3.2810 -1.6229 -1.9550
  155bbb    H14 4641   3.787   7.238   7.180  0.0233  0.6212  2.8782
  155bbb     C8 4642   3.371   7.600   7.642 -0.4735  0.4663 -0.1790
  155bbb    H15 4643   3.379   7.491   7.642 -0.1745  0.4788  0.6668
  155bbb    H16 4644   3.358   7.625   7.747  2.2378  2.7969 -0.2509
  155bbb     C9 4645   3.873   7.916   7.406  0.2559  0.3272  1.0114
  155bbb    H17 4646   3.966   7.958   7.365 -1.4466  1.9304 -1.4913
  155bbb    H18 4647   3.898   7.827   7.464  0.9262 -0.3195 -0.2404
  155bbb     O1 4648   3.910   7.398   7.158 -0.3113  0.1804  0.8351
  155bbb    H19 4649   3.768   7.634   7.449  1.2625  1.5097 -0.8724
  156bbb     N1 4650   4.386   6.498   7.657  0.5055  0.1622  0.2652
  156bbb     C1 4651   4.512   6.429   7.713 -0.2821  0.7497  0.0976
  156bbb     H1 4652   4.499   6.426   7.822 -1.8749  1.0425 -0.0683
  156bbb     H2 4653   4.594   6.496   7.689 -1.4209  2.3601  0.5672
  156bbb     C2 4654   4.366   6.613   7.756 -0.3572  0.1265  0.2505
  156bbb     H3 4655   4.441   6.689   7.732 -0.7603  0.0848 -1.2412
  156bbb     H4 4656   4.374   6.566   7.854 -0.7783 -0.5787 -0.0482
  156bbb     C3 4657   4.415   6.549   7.520  0.1982  0.8540  0.3657
  156bbb     H5 4658   4.497   6.488   7.482 -0.5325  0.8002 -1.1956
  156bbb     H6 4659   4.444   6.653   7.529 -0.1893  0.9150  0.9591
  156bbb     C4 4660   4.294   6.537   7.423 -0.0675 -0.5790  0.0317
  156bbb     H7 4661   4.211   6.599   7.458 -0.5953 -1.3807  0.2290
  156bbb     H8 4662   4.252   6.436   7.419  1.2020 -1.1245 -0.3912
  156bbb     C5 4663   4.546   6.285   7.657 -0.6985 -0.5187  0.2719
  156bbb     H9 4664   4.616   6.232   7.723  1.0794 -0.7413 -1.6637
  156bbb    H10 4665   4.620   6.299   7.576 -0.1308 -0.4991  0.7861
  156bbb     C6 4666   4.229   6.671   7.748  0.4316  0.3866  0.3588
  156bbb    H11 4667   4.154   6.594   7.770  1.5523 -0.2071  2.3120
  156bbb    H12 4668   4.217   6.715   7.648 -1.0828 -0.0643  0.3212
  156bbb     C7 4669   4.346   6.568   7.278 -0.0159  0.8026  0.0868
  156bbb    H13 4670   4.266   6.546   7.205 -0.2338  1.4721  0.1205
  156bbb    H14 4671   4.431   6.503   7.257 -1.4116 -0.1348 -3.3508
  156bbb     C8 4672   4.212   6.789   7.846  0.0015  0.6281 -0.2752
  156bbb    H15 4673   4.265   6.768   7.940  0.1396 -2.5636 -0.9812
  156bbb    H16 4674   4.263   6.876   7.802  1.0876 -0.1293 -0.5582
  156bbb     C9 4675   4.428   6.202   7.615 -0.7595  0.1918  0.3737
  156bbb    H17 4676   4.457   6.103   7.578  0.0583  0.4274  0.3520
  156bbb    H18 4677   4.381   6.258   7.533 -3.9434  0.7897  2.4480
  156bbb     O1 4678   4.394   6.705   7.263  0.9935  0.0656  0.3935
  156bbb    H19 4679   4.309   6.429   7.664 -0.4948  1.1164 -0.8507
  157bbb     N1 4680   5.174   7.944   6.566  0.4610  0.8251 -0.4630
  157bbb     C1 4681   5.234   7.946   6.428 -0.3439  0.1622 -0.0571
  157bbb     H1 4682   5.207   8.044   6.389  0.3312  0.0707 -0.7975
  157bbb     H2 4683   5.182   7.863   6.378 -0.8244 -0.9105  2.1273
  157bbb     C2 4684   5.240   8.031   6.668  0.3887 -0.6916 -0.0718
  157bbb     H3 4685   5.335   7.988   6.700  1.3259  0.9096 -0.5543
  157bbb     H4 4686   5.173   8.020   6.753 -0.4919  0.1046 -0.6398
  157bbb     C3 4687   5.029   7.999   6.542 -1.2592 -0.2619  0.3722
  157bbb     H5 4688   4.990   7.932   6.466  0.0460  0.0666 -0.6250
  157bbb     H6 4689   5.037   8.095   6.491  1.4177  0.2865  1.6157
  157bbb     C4 4690   4.924   8.005   6.645 -0.3073  0.1561 -0.8375
  157bbb     H7 4691   4.830   8.042   6.602  0.6595  0.3663 -2.8988
  157bbb     H8 4692   4.969   8.078   6.713  0.8083 -1.1500 -0.1158
  157bbb     C5 4693   5.388   7.927   6.413 -0.5025  0.0903 -0.5637
  157bbb     H9 4694   5.415   7.824   6.439  0.4583 -0.1389 -2.2846
  157bbb    H10 4695   5.448   7.979   6.488 -0.2909 -1.7998  0.6521
  157bbb     C6 4696   5.269   8.183   6.651  0.7989 -0.1408 -0.7131
  157bbb    H11 4697   5.201   8.221   6.573  0.6689  0.8570 -0.1270
  157bbb    H12 4698   5.376   8.198   6.634  1.6433 -2.4741  1.8032
  157bbb     C7 4699   4.896   7.871   6.717 -0.0642  0.3499 -0.2752
  157bbb    H13 4700   4.880   7.788   6.647  0.6987  1.5805 -1.9873
  157bbb    H14 4701   4.805   7.884   6.776 -1.1654  1.3770 -2.1063
  157bbb     C8 4702   5.228   8.248   6.783  0.1635 -0.4644  0.4718
  157bbb    H15 4703   5.134   8.201   6.816 -0.0347 -1.0078 -0.8111
  157bbb    H16 4704   5.310   8.221   6.849  0.7100 -0.2804 -0.1188
  157bbb     C9 4705   5.443   7.969   6.281  0.2356 -0.3415  0.3576
  157bbb    H17 4706   5.403   8.069   6.260 -0.9292 -0.7167  0.7229
  157bbb    H18 4707   5.399   7.906   6.203 -0.1459  0.7613 -0.3495
  157bbb     O1 4708   5.002   7.834   6.805 -0.0307  0.6098  0.6947
  157bbb    H19 4709   5.173   7.853   6.614  0.1311  0.3666 -1.3196
  158bbb     N1 4710   4.616   8.158   7.655 -0.2381 -0.0588 -0.3987
  158bbb     C1 4711   4.482   8.201   7.713 -0.2747 -0.6078 -0.3230
  158bbb     H1 4712   4.446   8.114   7.769 -1.3762  0.9988  1.5967
  158bbb     H2 4713   4.410   8.200   7.631 -0.3735  0.1460 -0.2544
  158bbb     C2 4714   4.704   8.100   7.761  0.0782  0.9911  0.3682
  158bbb     H3 4715   4.658   8.009   7.799  0.3836  0.9642  0.6816
  158bbb     H4 4716   4.688   8.162   7.850 -0.5330 -0.1341  1.0688
  158bbb     C3 4717   4.594   8.048   7.555 -1.0122 -0.3415 -0.4148
  158bbb     H5 4718   4.520   7.997   7.617 -1.0023  1.0979  0.8664
  158bbb     H6 4719   4.680   7.982   7.549 -0.5579  0.0594  1.1187
  158bbb     C4 4720   4.551   8.098   7.419 -0.1261 -0.0845  0.2886
  158bbb     H7 4721   4.629   8.164   7.380  0.0076 -0.1608  0.4223
  158bbb     H8 4722   4.457   8.152   7.434 -0.7648 -0.7876 -0.9818
  158bbb     C5 4723   4.463   8.334   7.788  0.1000  0.2294  0.7829
  158bbb     H9 4724   4.532   8.336   7.874  2.4515 -0.5589 -0.9830
  158bbb    H10 4725   4.361   8.353   7.825  1.4243  0.5062  4.7889
  158bbb     C6 4726   4.853   8.069   7.723  0.3587  0.4484 -0.1918
  158bbb    H11 4727   4.868   7.987   7.652 -1.5919  0.2007 -0.3768
  158bbb    H12 4728   4.910   8.030   7.809 -1.4036 -0.5111  0.5890
  158bbb     C7 4729   4.518   7.977   7.325  0.0098  0.0244 -0.1225
  158bbb    H13 4730   4.448   8.015   7.251 -0.6277 -0.6486  0.1186
  158bbb    H14 4731   4.467   7.895   7.378 -1.1093  0.4260 -0.5707
  158bbb     C8 4732   4.925   8.199   7.678  0.3319 -0.3157  0.0843
  158bbb    H15 4733   4.918   8.273   7.759  0.3541 -1.8993  1.5893
  158bbb    H16 4734   5.030   8.168   7.667  0.1110 -2.0176  2.0710
  158bbb     C9 4735   4.498   8.453   7.702  0.4964 -0.1772 -0.4817
  158bbb    H17 4736   4.607   8.451   7.716  0.3892 -0.3790  0.3773
  158bbb    H18 4737   4.463   8.547   7.745  0.1204 -0.7815  0.5700
  158bbb     O1 4738   4.644   7.926   7.270 -0.1115 -0.3912 -0.4449
  158bbb    H19 4739   4.670   8.234   7.610  1.0471 -1.0588 -0.5881
  159bbb     N1 4740   5.103   0.574   5.614 -0.0327  0.4722 -0.5795
  159bbb     C1 4741   5.059   0.683   5.710  0.2311 -0.2443  0.2096
  159bbb     H1 4742   4.954   0.706   5.693  0.8991  2.3870 -0.7387
  159bbb     H2 4743   5.120   0.771   5.690  0.5909 -0.0633  1.9067
  159bbb     C2 4744   5.053   0.431   5.643  0.6907  0.2077 -0.0171
  159bbb     H3 4745   5.087   0.422   5.747  0.0239  4.2434  0.7529
  159bbb     H4 4746   5.112   0.367   5.577  1.3629  0.8565 -0.0662
  159bbb     C3 4747   5.064   0.625   5.485  0.5193  0.0290  0.6954
  159bbb     H5 4748   5.113   0.721   5.473  0.0777  0.3872  1.6849
  159bbb     H6 4749   4.956   0.637   5.481  0.5892  0.2715 -0.7121
  159bbb     C4 4750   5.090   0.544   5.361 -0.2677 -0.2852 -0.1787
  159bbb     H7 4751   5.036   0.448   5.360 -0.5113 -0.1468 -0.4410
  159bbb     H8 4752   5.198   0.525   5.352 -0.0213  0.6184  0.6543
  159bbb     C5 4753   5.062   0.652   5.863 -0.1347  0.3778 -0.3124
  159bbb     H9 4754   5.002   0.567   5.899  2.6351 -1.6163 -0.0033
  159bbb    H10 4755   5.014   0.741   5.906  1.1997 -0.1187  2.4766
  159bbb     C6 4756   4.897   0.402   5.634 -0.0294  0.2598 -0.5287
  159bbb    H11 4757   4.862   0.427   5.533  0.2003  0.1634 -0.6340
  159bbb    H12 4758   4.832   0.463   5.697 -0.5583 -1.1693  0.3615
  159bbb     C7 4759   5.056   0.620   5.229  0.9533  0.0969 -0.5640
  159bbb    H13 4760   5.080   0.562   5.138  0.1608 -1.1196 -0.0263
  159bbb    H14 4761   5.118   0.710   5.235 -1.2889  1.6695 -0.0838
  159bbb     C8 4762   4.862   0.251   5.655 -0.0389 -0.0649 -0.9633
  159bbb    H15 4763   4.917   0.213   5.742  1.1759  0.2943 -1.5602
  159bbb    H16 4764   4.757   0.240   5.686 -0.1998  2.2956 -0.4968
  159bbb     C9 4765   5.213   0.630   5.907  0.1532 -0.6796 -0.5274
  159bbb    H17 4766   5.219   0.665   6.011  2.4391 -1.4880 -0.3473
  159bbb    H18 4767   5.277   0.700   5.851  0.4428 -0.0758  0.5345
  159bbb     O1 4768   4.917   0.669   5.228  0.1291 -0.1924 -0.2659
  159bbb    H19 4769   5.206   0.562   5.618  0.0305  0.3326 -2.0363
  160bbb     N1 4770   3.748   0.553   4.904  0.2146  0.2150  0.4128
  160bbb     C1 4771   3.740   0.593   4.764 -0.1258  0.0828 -0.0509
  160bbb     H1 4772   3.660   0.533   4.721 -1.1942  1.4176  0.0166
  160bbb     H2 4773   3.834   0.579   4.710 -1.2539  1.5455 -2.6016
  160bbb     C2 4774   3.607   0.516   4.948  0.0702 -0.1617 -0.0364
  160bbb     H3 4775   3.590   0.421   4.897 -1.9633  0.8209 -1.3061
  160bbb     H4 4776   3.535   0.587   4.907 -1.8812 -1.8139  0.3584
  160bbb     C3 4777   3.846   0.447   4.932  0.8339 -0.0688 -0.0122
  160bbb     H5 4778   3.827   0.373   4.854  2.8902  0.7792 -1.4146
  160bbb     H6 4779   3.822   0.409   5.031 -0.6637 -0.4266 -0.4845
  160bbb     C4 4780   3.998   0.493   4.918 -0.3148  0.6335 -0.8239
  160bbb     H7 4781   4.014   0.579   4.984  0.5340  0.1635 -0.3874
  160bbb     H8 4782   4.021   0.534   4.819 -1.5013  0.8282 -1.0265
  160bbb     C5 4783   3.711   0.743   4.750 -0.2363  0.3438  0.3536
  160bbb     H9 4784   3.802   0.800   4.768  1.1601 -1.7735  0.3451
  160bbb    H10 4785   3.638   0.773   4.826 -0.7578 -1.8503  0.7938
  160bbb     C6 4786   3.584   0.507   5.102  0.5611  0.3564  0.9535
  160bbb    H11 4787   3.588   0.613   5.131  0.2091  1.0451 -1.3237
  160bbb    H12 4788   3.655   0.452   5.165  0.5321  3.2780  3.8022
  160bbb     C7 4789   4.096   0.378   4.957 -0.1402  0.4985 -0.3776
  160bbb    H13 4790   4.075   0.289   4.897 -0.1251  0.7212 -0.7171
  160bbb    H14 4791   4.087   0.367   5.066  0.6480  2.1042 -0.1167
  160bbb     C8 4792   3.448   0.443   5.126  0.6183  0.1011 -0.9759
  160bbb    H15 4793   3.370   0.499   5.073  0.7213 -0.4526 -1.7306
  160bbb    H16 4794   3.443   0.344   5.080 -2.2530 -0.0461 -0.5121
  160bbb     C9 4795   3.662   0.760   4.607 -0.0897 -0.0470  0.1325
  160bbb    H17 4796   3.730   0.703   4.542  4.6838  1.7895  2.9570
  160bbb    H18 4797   3.670   0.869   4.594 -1.2013  0.2930  1.9134
  160bbb     O1 4798   4.230   0.426   4.921 -0.1904 -0.1979  0.3996
  160bbb    H19 4799   3.781   0.637   4.953  1.4060 -0.6261  1.1164
  161bbb     N1 4800   4.151   1.253   4.188 -0.1973 -0.2495 -0.4515
  161bbb     C1 4801   4.231   1.177   4.301  0.6080  0.3062 -0.0571
  161bbb     H1 4802   4.306   1.247   4.337  2.4413 -0.4386 -2.1995
  161bbb     H2 4803   4.290   1.094   4.264  1.2369 -0.5824  2.7382
  161bbb     C2 4804   4.085   1.380   4.253  0.8593  0.0723  0.4385
  161bbb     H3 4805   4.161   1.437   4.307  1.4301 -1.2329  1.0493
  161bbb     H4 4806   4.017   1.344   4.330  1.6150  3.3264  2.8298
  161bbb     C3 4807   4.274   1.300   4.106 -0.1362  0.2507  0.3240
  161bbb     H5 4808   4.360   1.320   4.171 -0.4963 -0.0650  0.9029
  161bbb     H6 4809   4.243   1.390   4.052 -0.0990 -0.0378 -0.1824
  161bbb     C4 4810   4.312   1.209   3.993 -0.0964 -0.2121 -0.0594
  161bbb     H7 4811   4.226   1.189   3.929 -1.4407  0.9180  1.2984
  161bbb     H8 4812   4.342   1.115   4.039  2.2378  1.0755  1.2437
  161bbb     C5 4813   4.147   1.117   4.420  0.5349  0.1667 -0.0560
  161bbb     H9 4814   4.085   1.031   4.392  1.7681 -1.9514  3.1190
  161bbb    H10 4815   4.084   1.192   4.469 -0.4887 -0.5178 -0.2925
  161bbb     C6 4816   3.999   1.466   4.149 -0.5779  0.3348 -0.3147
  161bbb    H11 4817   4.061   1.506   4.068 -1.5332  0.0716 -1.2037
  161bbb    H12 4818   3.955   1.549   4.207  0.4684  1.0107 -0.4670
  161bbb     C7 4819   4.431   1.252   3.910 -0.3921 -0.5008  0.3352
  161bbb    H13 4820   4.403   1.347   3.862 -2.1526 -1.1806 -0.0718
  161bbb    H14 4821   4.448   1.173   3.836 -1.1794  0.2844 -0.7286
  161bbb     C8 4822   3.880   1.381   4.093 -0.2488  0.2358 -0.0302
  161bbb    H15 4823   3.831   1.314   4.164 -0.7392 -0.0222 -0.5980
  161bbb    H16 4824   3.807   1.449   4.046 -0.4466  0.9932  1.3366
  161bbb     C9 4825   4.237   1.054   4.520 -0.1484  0.0341  0.1859
  161bbb    H17 4826   4.288   0.965   4.482  0.0509 -1.0125  2.7009
  161bbb    H18 4827   4.176   1.011   4.600  2.0749 -2.7930  0.4927
  161bbb     O1 4828   4.549   1.270   4.002 -0.0004 -0.1388 -0.1296
  161bbb    H19 4829   4.077   1.198   4.144 -0.6708  0.2123 -0.2409
  162bbb     N1 4830   4.473   0.468   3.451 -0.3009  0.1698  0.3987
  162bbb     C1 4831   4.542   0.442   3.316  0.8184 -0.1317  0.0422
  162bbb     H1 4832   4.493   0.353   3.276  2.0129 -1.5953  1.6837
  162bbb     H2 4833   4.650   0.432   3.333  0.5641  1.5753  3.4088
  162bbb     C2 4834   4.491   0.352   3.542 -0.0987  0.1842  0.1997
  162bbb     H3 4835   4.597   0.347   3.564  0.3421  0.7560 -1.5955
  162bbb     H4 4836   4.470   0.267   3.477 -1.9068  2.1115 -1.9107
  162bbb     C3 4837   4.534   0.594   3.514 -0.3781  0.0365  0.0275
  162bbb     H5 4838   4.468   0.607   3.599 -3.3823  0.3370 -2.2000
  162bbb     H6 4839   4.510   0.678   3.448 -1.9054  0.1942  0.7592
  162bbb     C4 4840   4.681   0.598   3.544 -0.8098 -0.3781  1.0597
  162bbb     H7 4841   4.740   0.599   3.452  0.3359  2.5004  1.6989
  162bbb     H8 4842   4.708   0.505   3.595 -0.1644  0.8822  3.1653
  162bbb     C5 4843   4.521   0.549   3.208 -0.6330  0.2061  0.7760
  162bbb     H9 4844   4.555   0.508   3.112 -1.0548 -0.8738  1.0650
  162bbb    H10 4845   4.581   0.638   3.231  1.6035 -1.0481  0.1236
  162bbb     C6 4846   4.391   0.354   3.664 -0.5396  0.0135 -0.1237
  162bbb    H11 4847   4.290   0.342   3.624 -0.9025 -0.0767  0.7848
  162bbb    H12 4848   4.392   0.451   3.714  1.1026 -0.2268  0.3738
  162bbb     C7 4849   4.737   0.716   3.631  0.7556 -0.1904  0.4133
  162bbb    H13 4850   4.722   0.807   3.571  0.4521 -1.8214 -2.1498
  162bbb    H14 4851   4.841   0.691   3.653  1.4316  0.2449 -1.9320
  162bbb     C8 4852   4.408   0.239   3.764  0.2269 -0.5629 -0.1336
  162bbb    H15 4853   4.507   0.239   3.810  0.1948  1.6245  0.0761
  162bbb    H16 4854   4.331   0.244   3.843  1.5294 -1.6701  1.2707
  162bbb     C9 4855   4.372   0.583   3.196  0.9408 -0.6738 -0.2081
  162bbb    H17 4856   4.351   0.654   3.115  2.6595  0.1864  0.0544
  162bbb    H18 4857   4.343   0.641   3.284  1.5409  2.0273 -1.6493
  162bbb     O1 4858   4.663   0.723   3.755 -0.2924 -0.0348  0.4375
  162bbb    H19 4859   4.373   0.484   3.434 -0.4704 -0.5496  0.6922
  163bbb     N1 4860   5.762   2.353   2.760 -0.1615  0.3241 -0.0238
  163bbb     C1 4861   5.729   2.213   2.693  0.0151 -0.2817 -0.0673
  163bbb     H1 4862   5.627   2.183   2.714  0.1417  0.3369  1.5884
  163bbb     H2 4863   5.800   2.141   2.734 -1.0794 -1.6121 -0.4708
  163bbb     C2 4864   5.694   2.462   2.680  0.1889 -0.1384 -0.2540
  163bbb     H3 4865   5.588   2.438   2.693 -0.3588  1.0115 -2.2218
  163bbb     H4 4866   5.727   2.458   2.576  2.1950 -0.7750  0.3606
  163bbb     C3 4867   5.704   2.341   2.899 -0.7680  0.7834 -0.3633
  163bbb     H5 4868   5.598   2.313   2.893 -0.1887 -2.1906  1.1258
  163bbb     H6 4869   5.723   2.436   2.948  2.2112  0.4633 -0.7084
  163bbb     C4 4870   5.767   2.235   2.998 -0.3145 -0.6622  0.8972
  163bbb     H7 4871   5.871   2.262   3.021  0.4454 -2.5681 -0.0728
  163bbb     H8 4872   5.774   2.138   2.947  2.5571  0.0870 -0.3152
  163bbb     C5 4873   5.757   2.211   2.538  0.1553 -0.4806  0.2399
  163bbb     H9 4874   5.855   2.254   2.514 -0.4534 -0.2527 -2.0563
  163bbb    H10 4875   5.680   2.266   2.483  1.0310  0.5866  0.0501
  163bbb     C6 4876   5.716   2.611   2.721 -0.3050 -0.5738 -0.1742
  163bbb    H11 4877   5.818   2.637   2.691  0.3690 -2.5413  0.2564
  163bbb    H12 4878   5.706   2.634   2.828 -0.2046  0.7573 -0.4359
  163bbb     C7 4879   5.691   2.227   3.137  0.4517  0.5395  0.4665
  163bbb    H13 4880   5.690   2.320   3.194  1.5365 -1.3069  3.7324
  163bbb    H14 4881   5.736   2.154   3.205 -0.6406 -1.1452 -0.5175
  163bbb     C8 4882   5.620   2.715   2.660 -0.2398 -0.0201 -0.2365
  163bbb    H15 4883   5.628   2.809   2.716  0.9604 -0.0132 -0.3892
  163bbb    H16 4884   5.662   2.743   2.563 -1.1233 -0.3878 -0.7274
  163bbb     C9 4885   5.774   2.065   2.495  0.0682  0.9328  0.1288
  163bbb    H17 4886   5.769   2.048   2.387 -0.0107 -0.4182  0.3289
  163bbb    H18 4887   5.684   2.012   2.528 -0.7928 -0.0373 -3.3394
  163bbb     O1 4888   5.558   2.187   3.112  0.1839  0.1167 -0.3831
  163bbb    H19 4889   5.864   2.370   2.760  0.4562 -2.5952  1.9444
  164bbb     N1 4890   5.272   1.541   2.601 -0.6687 -0.6303  0.0555
  164bbb     C1 4891   5.300   1.657   2.503  0.4710  0.6002 -0.1782
  164bbb     H1 4892   5.199   1.694   2.484  0.5322  2.6969  2.7641
  164bbb     H2 4893   5.335   1.607   2.413 -1.2219 -1.1737  0.0627
  164bbb     C2 4894   5.399   1.474   2.641 -0.6176  0.4298  0.1648
  164bbb     H3 4895   5.364   1.388   2.698 -0.1872  0.1556  0.0178
  164bbb     H4 4896   5.448   1.538   2.714  2.6641 -2.1161  0.3867
  164bbb     C3 4897   5.189   1.589   2.724  0.2305  0.4961  0.0467
  164bbb     H5 4898   5.117   1.662   2.689  0.8217  0.9194 -0.2995
  164bbb     H6 4899   5.262   1.631   2.794 -0.5743  1.6469  0.2201
  164bbb     C4 4900   5.117   1.478   2.796 -0.6019 -0.0942 -0.3046
  164bbb     H7 4901   5.173   1.389   2.828 -1.2450 -0.7028 -0.8278
  164bbb     H8 4902   5.046   1.429   2.728 -1.7004 -1.4071  1.7164
  164bbb     C5 4903   5.385   1.778   2.553 -0.1989  0.3233 -0.4538
  164bbb     H9 4904   5.489   1.748   2.566 -0.9177 -2.1997  0.1001
  164bbb    H10 4905   5.349   1.806   2.653 -2.3337  1.3292 -1.4344
  164bbb     C6 4906   5.503   1.423   2.543 -1.0461  0.1513  0.4261
  164bbb    H11 4907   5.597   1.397   2.594 -0.2867 -1.6784 -1.7120
  164bbb    H12 4908   5.533   1.503   2.473  1.4962  0.5490  1.8385
  164bbb     C7 4909   5.040   1.533   2.920 -0.2941  0.4440  0.2889
  164bbb    H13 4910   5.001   1.440   2.963 -0.8387  0.1189 -0.8634
  164bbb    H14 4911   4.959   1.601   2.891 -0.9344  0.3129  1.7147
  164bbb     C8 4912   5.459   1.301   2.453 -0.0324  0.2735 -0.5874
  164bbb    H15 4913   5.518   1.293   2.362  0.4488 -0.1092 -0.2483
  164bbb    H16 4914   5.464   1.213   2.519  1.4881  2.2368  2.1488
  164bbb     C9 4915   5.378   1.896   2.457 -0.1892  0.0300 -0.0720
  164bbb    H17 4916   5.431   1.853   2.372  0.4796 -1.0453  0.8505
  164bbb    H18 4917   5.437   1.977   2.503 -0.8887  1.0742 -0.9545
  164bbb     O1 4918   5.125   1.600   3.018 -0.3927  0.3334 -0.2649
  164bbb    H19 4919   5.220   1.472   2.545 -2.9488 -0.7690  2.1793
  165bbb     N1 4920   6.013   0.918   2.529  0.2134  0.0715 -0.1712
  165bbb     C1 4921   6.142   0.944   2.612  0.6563 -0.0806  0.6850
  165bbb     H1 4922   6.206   0.861   2.584  0.4352  0.3727 -1.3225
  165bbb     H2 4923   6.121   0.938   2.719  1.5231  2.1242  1.0369
  165bbb     C2 4924   5.993   0.769   2.530  1.0807 -0.1853  0.5545
  165bbb     H3 4925   5.894   0.753   2.489  1.5829 -0.6429 -0.5211
  165bbb     H4 4926   5.993   0.745   2.636 -1.1013 -1.8442  0.2430
  165bbb     C3 4927   5.910   0.985   2.616  0.1890  1.1521  0.2056
  165bbb     H5 4928   5.922   1.093   2.629 -1.2161  1.4358 -0.6732
  165bbb     H6 4929   5.920   0.938   2.714  0.1116 -0.8335 -0.6921
  165bbb     C4 4930   5.767   0.974   2.558 -1.0730 -0.5912  0.2688
  165bbb     H7 4931   5.732   0.879   2.516 -0.1277 -1.2108  0.8590
  165bbb     H8 4932   5.758   1.042   2.473  0.0885 -0.8456 -0.0709
  165bbb     C5 4933   6.202   1.077   2.580  0.0773 -0.0743 -0.1384
  165bbb     H9 4934   6.144   1.154   2.631  0.9897  0.1116  0.6451
  165bbb    H10 4935   6.186   1.106   2.475  2.0028 -1.6530 -0.9590
  165bbb     C6 4936   6.092   0.683   2.445  0.3446  0.0049  0.2333
  165bbb    H11 4937   6.191   0.678   2.491 -0.3887 -0.9086  1.7809
  165bbb    H12 4938   6.110   0.740   2.352  1.3388 -1.5620 -0.5690
  165bbb     C7 4939   5.670   1.018   2.668  0.0373 -0.0110 -0.2174
  165bbb    H13 4940   5.569   1.032   2.627  0.0450  0.5506 -0.0517
  165bbb    H14 4941   5.706   1.106   2.721  0.5016 -0.4890  0.2737
  165bbb     C8 4942   6.023   0.546   2.407  0.8260 -0.4387  0.5604
  165bbb    H15 4943   6.093   0.493   2.341  0.7839  0.2397 -0.0398
  165bbb    H16 4944   6.019   0.479   2.493 -1.8636 -1.0024  0.0826
  165bbb     C9 4945   6.350   1.096   2.610  0.6860 -0.1506  0.1338
  165bbb    H17 4946   6.355   1.063   2.715  0.2824 -1.0806 -0.1266
  165bbb    H18 4947   6.375   1.202   2.596  0.0720  0.0830  0.7520
  165bbb     O1 4948   5.666   0.907   2.758 -0.2980 -0.0150  0.1414
  165bbb    H19 4949   6.013   0.960   2.435 -1.0186 -0.0060 -0.2172
  166bbb     N1 4950   5.864  -0.091   3.173  0.0516  0.4022 -0.0920
  166bbb     C1 4951   5.894  -0.146   3.310  0.2998  0.2193  0.4372
  166bbb     H1 4952   5.849  -0.073   3.378  1.5936  2.5295 -1.0454
  166bbb     H2 4953   6.003  -0.147   3.314  0.4017 -0.1968 -1.5695
  166bbb     C2 4954   5.726  -0.015   3.168 -0.1230 -0.4604 -0.1795
  166bbb     H3 4955   5.751   0.091   3.161 -1.7044  0.0660  1.2048
  166bbb     H4 4956   5.679  -0.036   3.265 -0.1410 -0.1065 -0.1099
  166bbb     C3 4957   5.987   0.002   3.141  0.4032 -0.1508 -0.0286
  166bbb     H5 4958   6.075  -0.052   3.176  1.7327  0.4445 -2.2776
  166bbb     H6 4959   5.983   0.089   3.206  0.7180  1.1649 -1.7243
  166bbb     C4 4960   6.022   0.053   2.999  0.0236  0.2296  0.2893
  166bbb     H7 4961   6.045  -0.031   2.933 -0.0168  0.4063  0.0488
  166bbb     H8 4962   6.121   0.102   3.007  0.4592 -0.2291 -1.7596
  166bbb     C5 4963   5.838  -0.284   3.350  1.0375 -0.2402 -0.0339
  166bbb     H9 4964   5.903  -0.361   3.307  0.0377 -0.8749 -0.4448
  166bbb    H10 4965   5.735  -0.296   3.316 -0.2402 -2.8454  4.0784
  166bbb     C6 4966   5.637  -0.045   3.043  0.5417 -0.3427 -0.6839
  166bbb    H11 4967   5.588  -0.134   3.084  0.7287  0.4058  1.2497
  166bbb    H12 4968   5.696  -0.074   2.955 -0.6253 -0.9598 -1.2900
  166bbb     C7 4969   5.926   0.157   2.940 -0.0976  0.3450  0.2827
  166bbb    H13 4970   5.830   0.109   2.918  0.9541 -2.1571  0.8986
  166bbb    H14 4971   5.966   0.212   2.853  2.7744 -0.9435  0.6769
  166bbb     C8 4972   5.537   0.074   3.019  0.1689 -0.0409  1.3593
  166bbb    H15 4973   5.543   0.140   3.106  1.8355 -0.3894  1.5562
  166bbb    H16 4974   5.581   0.137   2.940  1.9029 -0.2855  2.0767
  166bbb     C9 4975   5.834  -0.297   3.508  0.3293 -0.3405 -0.3936
  166bbb    H17 4976   5.937  -0.330   3.526  0.5026  1.0115  1.3696
  166bbb    H18 4977   5.771  -0.380   3.540  0.5883 -0.2809  0.2932
  166bbb     O1 4978   5.910   0.261   3.033 -0.2639  0.3212 -0.2437
  166bbb    H19 4979   5.863  -0.173   3.111  0.9068  0.6263 -0.4071
  167bbb     N1 4980   2.361   2.157   3.597  0.7174 -0.0305  0.0634
  167bbb     C1 4981   2.414   2.046   3.674 -0.5529  0.7166 -0.2701
  167bbb     H1 4982   2.333   1.990   3.722 -0.2574  1.7079  1.4805
  167bbb     H2 4983   2.466   2.080   3.764  0.0309 -2.0299  0.5281
  167bbb     C2 4984   2.266   2.231   3.686 -0.1675 -0.6141 -0.9665
  167bbb     H3 4985   2.311   2.266   3.779 -1.7307 -1.6975  0.2629
  167bbb     H4 4986   2.197   2.154   3.723 -0.6795  0.6616  0.8873
  167bbb     C3 4987   2.476   2.247   3.545  0.2211 -0.0653 -0.1486
  167bbb     H5 4988   2.431   2.338   3.505  0.5961 -0.5641 -1.8055
  167bbb     H6 4989   2.513   2.197   3.455 -0.9613 -0.2598 -0.5436
  167bbb     C4 4990   2.588   2.276   3.641  0.3121  0.0981 -0.1797
  167bbb     H7 4991   2.622   2.189   3.700  0.3276 -0.5049 -1.0633
  167bbb     H8 4992   2.544   2.345   3.714 -1.7797 -0.9550 -0.3574
  167bbb     C5 4993   2.513   1.953   3.596  0.3643 -0.2355  0.3620
  167bbb     H9 4994   2.573   2.015   3.528  0.3996 -1.1357 -0.4388
  167bbb    H10 4995   2.458   1.882   3.533  0.5029 -0.3842  0.4087
  167bbb     C6 4996   2.187   2.363   3.636 -0.0367  0.2966  0.5637
  167bbb    H11 4997   2.140   2.339   3.540  1.4957  0.0255 -0.1495
  167bbb    H12 4998   2.259   2.443   3.611  2.8154 -2.0611  0.6909
  167bbb     C7 4999   2.706   2.342   3.575  0.5686  0.7839  0.0301
  167bbb    H13 5000   2.752   2.258   3.522  1.3904  1.0030  0.3807
  167bbb    H14 5001   2.780   2.363   3.653  0.3347  0.3036  0.3871
  167bbb     C8 5002   2.087   2.413   3.746 -0.4366  0.5119  0.7048
  167bbb    H15 5003   2.142   2.436   3.838  0.3172  2.4693 -0.1858
  167bbb    H16 5004   2.051   2.509   3.706  0.7465  0.8383  0.3863
  167bbb     C9 5005   2.602   1.877   3.697  0.3060 -0.3835  0.0631
  167bbb    H17 5006   2.656   1.961   3.743  1.0940  0.7217 -2.6743
  167bbb    H18 5007   2.669   1.803   3.652 -1.6100 -2.3019  0.2338
  167bbb     O1 5008   2.662   2.457   3.491 -0.4025  0.2932 -0.7212
  167bbb    H19 5009   2.312   2.114   3.517  0.3820  0.7568 -0.1690
  168bbb     N1 5010   2.549   3.093   4.068  0.5102 -0.2524 -0.1783
  168bbb     C1 5011   2.577   3.221   4.138 -0.6051  0.1300 -0.2361
  168bbb     H1 5012   2.513   3.232   4.226 -0.8525 -0.1164 -0.3859
  168bbb     H2 5013   2.545   3.302   4.072 -1.4607 -0.5397 -0.6604
  168bbb     C2 5014   2.398   3.082   4.050  0.2502 -0.7592  0.0739
  168bbb     H3 5015   2.379   2.985   4.004  0.7857 -1.3184  0.9981
  168bbb     H4 5016   2.369   3.159   3.978 -0.6430 -1.8353 -0.7461
  168bbb     C3 5017   2.617   3.091   3.931  0.3292 -0.2082 -0.4780
  168bbb     H5 5018   2.724   3.082   3.950  0.6506 -0.1760 -2.1607
  168bbb     H6 5019   2.588   3.189   3.893 -1.3357  0.0785  1.3820
  168bbb     C4 5020   2.584   2.975   3.840  0.1732  0.0932 -0.3287
  168bbb     H7 5021   2.476   2.981   3.817  0.1082 -0.0053 -0.0498
  168bbb     H8 5022   2.620   2.885   3.890  1.9556  0.7084 -0.4242
  168bbb     C5 5023   2.719   3.251   4.186 -1.1418 -0.4161  0.0973
  168bbb     H9 5024   2.782   3.261   4.096 -2.9581  1.3073 -1.0892
  168bbb    H10 5025   2.763   3.160   4.228 -1.0151 -1.1310 -1.4971
  168bbb     C6 5026   2.312   3.083   4.179 -0.0655 -0.4720  0.3382
  168bbb    H11 5027   2.368   3.029   4.257 -1.2363  1.8976  2.9954
  168bbb    H12 5028   2.228   3.019   4.150 -0.1028 -0.9117  1.3860
  168bbb     C7 5029   2.652   2.998   3.703 -0.6411  0.3500  0.4475
  168bbb    H13 5030   2.646   3.103   3.671 -2.3083 -0.3092 -1.6574
  168bbb    H14 5031   2.610   2.923   3.634 -0.8648  1.0499 -0.1858
  168bbb     C8 5032   2.264   3.219   4.242  0.0891 -0.7473 -0.0025
  168bbb    H15 5033   2.211   3.179   4.330 -0.0260 -0.7349 -0.0657
  168bbb    H16 5034   2.349   3.280   4.274  0.4553 -1.3253  0.1584
  168bbb     C9 5035   2.732   3.382   4.269  0.4094 -0.0413 -0.3926
  168bbb    H17 5036   2.647   3.447   4.246  0.9138  0.4478 -0.9305
  168bbb    H18 5037   2.823   3.439   4.246  1.1527 -0.8801  0.4124
  168bbb     O1 5038   2.793   2.978   3.717 -0.2613  0.7435  0.2018
  168bbb    H19 5039   2.584   3.015   4.126 -0.8136  0.1663  1.2567
  169bbb     N1 5040   2.792   1.914   5.253  0.2785  0.4704 -0.2432
  169bbb     C1 5041   2.754   1.977   5.387 -0.0346  0.1636  0.0810
  169bbb     H1 5042   2.704   2.070   5.360 -0.1399 -0.3487 -1.5458
  169bbb     H2 5043   2.850   2.008   5.430 -1.0870  0.4778  2.3837
  169bbb     C2 5044   2.666   1.895   5.166  0.5385 -0.6165 -0.1768
  169bbb     H3 5045   2.596   1.829   5.216 -0.6631  1.7438  1.4177
  169bbb     H4 5046   2.695   1.841   5.076  2.2058 -0.2369  0.0990
  169bbb     C3 5047   2.895   1.992   5.177 -0.0203 -0.4556  0.5890
  169bbb     H5 5048   2.869   2.098   5.169 -0.6904 -0.7367 -1.3354
  169bbb     H6 5049   2.901   1.957   5.074 -0.2301  0.7133  0.1626
  169bbb     C4 5050   3.036   2.001   5.236  0.0500 -0.0746 -0.2551
  169bbb     H7 5051   3.066   1.897   5.256 -1.1211 -0.1696  1.1953
  169bbb     H8 5052   3.044   2.060   5.328  0.0734 -1.2068  0.4955
  169bbb     C5 5053   2.667   1.892   5.491  0.6737 -0.1265  0.8086
  169bbb     H9 5054   2.706   1.798   5.449 -0.6602 -0.9887  1.4153
  169bbb    H10 5055   2.587   1.889   5.416  2.1618  0.3658 -0.8831
  169bbb     C6 5056   2.589   2.024   5.128 -0.6130 -0.1794  0.1080
  169bbb    H11 5057   2.648   2.083   5.057  0.8416 -1.5877  0.0901
  169bbb    H12 5058   2.569   2.079   5.220  1.0376  0.7584 -0.0578
  169bbb     C7 5059   3.141   2.059   5.133 -0.6527  1.3144 -0.1793
  169bbb    H13 5060   3.149   1.977   5.060  2.8703  0.2064  1.2394
  169bbb    H14 5061   3.235   2.069   5.188 -0.2618 -1.9117 -0.0720
  169bbb     C8 5062   2.454   1.998   5.062 -0.6130 -0.3030  0.1902
  169bbb    H15 5063   2.416   2.098   5.035  0.7871  0.7006  1.7426
  169bbb    H16 5064   2.469   1.945   4.967  0.1767 -2.1363  1.2867
  169bbb     C9 5065   2.631   1.910   5.753  0.5015 -0.1423  0.5125
  169bbb    H17 5066   2.713   1.938   5.821  0.1450  1.0084  0.4852
  169bbb    H18 5067   2.614   1.820   5.813  0.9095 -0.8183 -0.3542
  169bbb     O1 5068   3.097   2.180   5.055 -0.1277  0.1711 -0.7004
  169bbb    H19 5069   2.830   1.819   5.270 -1.5968 -0.1576  0.7875
  170bbb     N1 5070   3.693   2.051   5.524 -0.2298  0.0759 -1.3307
  170bbb     C1 5071   3.639   2.049   5.668 -0.4622  0.4022  0.0696
  170bbb     H1 5072   3.699   1.979   5.727 -0.3928  0.0390 -0.4268
  170bbb     H2 5073   3.545   1.993   5.672  0.4664 -1.3128 -0.8800
  170bbb     C2 5074   3.731   1.908   5.495 -0.2922  0.4116  0.0344
  170bbb     H3 5075   3.821   1.891   5.553 -0.6281  1.5553  0.9460
  170bbb     H4 5076   3.765   1.914   5.392  1.2394 -2.9092  0.2289
  170bbb     C3 5077   3.596   2.111   5.428 -0.3152 -0.0408 -0.6906
  170bbb     H5 5078   3.549   2.195   5.478  0.1197 -1.3359  2.0724
  170bbb     H6 5079   3.510   2.045   5.418 -0.4662  0.4596 -3.4976
  170bbb     C4 5080   3.656   2.164   5.297  0.0245 -0.7639 -0.0748
  170bbb     H7 5081   3.731   2.096   5.253  1.0446 -0.7538  1.5726
  170bbb     H8 5082   3.712   2.257   5.309 -0.4662 -0.5787  0.9063
  170bbb     C5 5083   3.623   2.191   5.730 -0.7025 -0.1520 -0.1872
  170bbb     H9 5084   3.561   2.261   5.673 -0.6701  0.7094  0.8001
  170bbb    H10 5085   3.725   2.232   5.732 -1.4041  1.7364 -0.9811
  170bbb     C6 5086   3.618   1.797   5.505  0.0996 -0.1953 -0.1240
  170bbb    H11 5087   3.535   1.833   5.444 -0.5025 -0.9047  0.2569
  170bbb    H12 5088   3.575   1.793   5.606 -1.0287 -0.2651 -0.5988
  170bbb     C7 5089   3.567   2.169   5.165 -0.9651 -0.0860 -0.9764
  170bbb    H13 5090   3.522   2.072   5.140  1.8239 -1.1927 -2.0652
  170bbb    H14 5091   3.631   2.186   5.078  2.3502 -0.0815  1.2660
  170bbb     C8 5092   3.656   1.659   5.457 -0.5174  0.1154  0.0083
  170bbb    H15 5093   3.566   1.598   5.443  0.0779 -0.2987 -2.4058
  170bbb    H16 5094   3.696   1.663   5.355 -1.0272  0.4901 -0.1779
  170bbb     C9 5095   3.559   2.192   5.875 -0.0000 -0.0594  0.3956
  170bbb    H17 5096   3.561   2.291   5.922  1.8548 -0.1725  0.6054
  170bbb    H18 5097   3.624   2.137   5.945 -0.8908  1.0943  2.2150
  170bbb     O1 5098   3.466   2.268   5.174  0.4320  0.2424 -0.2036
  170bbb    H19 5099   3.777   2.109   5.534 -0.8399  1.2142 -2.4759
  171bbb     N1 5100   4.819   3.877   3.429 -0.1185  0.3434 -0.4354
  171bbb     C1 5101   4.948   3.935   3.379  0.9037  0.7508  0.0743
  171bbb     H1 5102   5.024   3.864   3.413  1.1395  1.9455  2.2661
  171bbb     H2 5103   4.977   4.025   3.434  1.7911  0.0117  0.8339
  171bbb     C2 5104   4.829   3.873   3.584  0.0516  0.5439  0.6788
  171bbb     H3 5105   4.729   3.894   3.623 -0.4554 -1.5026  0.6442
  171bbb     H4 5106   4.895   3.947   3.628 -0.0379  0.8515  0.3000
  171bbb     C3 5107   4.702   3.965   3.380 -0.0988  0.1985  0.2642
  171bbb     H5 5108   4.729   3.979   3.276  0.1610  0.5303  0.3753
  171bbb     H6 5109   4.708   4.058   3.437 -1.3300  0.6820 -0.3545
  171bbb     C4 5110   4.564   3.901   3.384 -0.1280  1.1581  0.3375
  171bbb     H7 5111   4.569   3.794   3.359 -2.3309  1.0450  0.1688
  171bbb     H8 5112   4.494   3.956   3.321  0.0383  1.2944  0.2722
  171bbb     C5 5113   4.964   3.941   3.226 -0.5488  0.2339  0.5643
  171bbb     H9 5114   4.896   4.017   3.187  0.2791  1.6140  1.6897
  171bbb    H10 5115   4.941   3.844   3.180 -0.5169 -1.1236  3.2442
  171bbb     C6 5116   4.875   3.732   3.626 -0.0553  0.1481 -0.1005
  171bbb    H11 5117   4.907   3.743   3.730 -1.2461 -0.8599  0.3910
  171bbb    H12 5118   4.967   3.704   3.573 -0.9217  2.3585 -3.0646
  171bbb     C7 5119   4.499   3.911   3.523  0.0794 -0.6172 -0.1266
  171bbb    H13 5120   4.510   4.016   3.553  2.1176 -0.4703 -1.2031
  171bbb    H14 5121   4.555   3.851   3.596  0.5344  1.8559  1.6884
  171bbb     C8 5122   4.773   3.616   3.600  0.1362  0.2460 -0.2523
  171bbb    H15 5123   4.816   3.527   3.648  0.3576  0.8352  0.6700
  171bbb    H16 5124   4.675   3.629   3.649 -0.0837 -0.2976 -0.5408
  171bbb     C9 5125   5.099   3.984   3.180 -0.0284 -0.6703 -0.5646
  171bbb    H17 5126   5.084   3.991   3.072  1.2226  0.1665 -0.7022
  171bbb    H18 5127   5.181   3.916   3.209 -0.3771 -0.9810 -0.2993
  171bbb     O1 5128   4.359   3.879   3.521  0.0749 -0.1656  0.2008
  171bbb    H19 5129   4.806   3.785   3.385 -1.4916  0.9780 -1.4335
  172bbb     N1 5130   3.659   3.952   4.341 -0.0048 -0.0108  0.0684
  172bbb     C1 5131   3.705   4.082   4.276 -0.0521  0.2060 -0.6571
  172bbb     H1 5132   3.615   4.128   4.234 -1.1392 -0.3029  1.0053
  172bbb     H2 5133   3.762   4.052   4.189 -0.2811  1.3839 -1.2404
  172bbb     C2 5134   3.513   3.960   4.383 -0.8493  0.1220  0.8579
  172bbb     H3 5135   3.455   3.971   4.291  0.8411  1.8303 -0.0798
  172bbb     H4 5136   3.513   4.047   4.450  0.7993  1.1826 -0.4325
  172bbb     C3 5137   3.675   3.831   4.245 -0.2527 -0.2460  0.1316
  172bbb     H5 5138   3.641   3.742   4.299  1.6120 -1.0924 -0.0031
  172bbb     H6 5139   3.783   3.829   4.231 -0.2735 -0.6490  0.0235
  172bbb     C4 5140   3.595   3.827   4.111 -0.6617 -0.5639 -0.2923
  172bbb     H7 5141   3.630   3.919   4.062 -1.9019  0.9793  1.5627
  172bbb     H8 5142   3.489   3.829   4.139 -0.4437 -0.1975  0.5228
  172bbb     C5 5143   3.782   4.169   4.376  0.3149  0.1142 -0.1283
  172bbb     H9 5144   3.710   4.193   4.455 -0.8089 -1.5365 -0.6065
  172bbb    H10 5145   3.808   4.267   4.334 -0.7826  0.3030 -0.4034
  172bbb     C6 5146   3.456   3.842   4.467  0.1182  0.0891  0.2332
  172bbb    H11 5147   3.538   3.806   4.530  0.0610  0.7169  0.6758
  172bbb    H12 5148   3.433   3.767   4.391  1.3584  0.7361 -0.8234
  172bbb     C7 5149   3.639   3.707   4.021  0.0780 -0.1058 -0.3556
  172bbb    H13 5150   3.550   3.684   3.961 -1.6946  3.1064  0.8006
  172bbb    H14 5151   3.643   3.625   4.094 -1.7116  1.9023  2.1829
  172bbb     C8 5152   3.331   3.874   4.553  0.4679 -0.0031 -0.4270
  172bbb    H15 5153   3.243   3.887   4.488  1.6429  1.5055 -1.7937
  172bbb    H16 5154   3.308   3.784   4.612 -2.0221  0.3264 -0.8047
  172bbb     C9 5155   3.905   4.110   4.440  0.3381 -0.0205  0.1696
  172bbb    H17 5156   3.945   4.182   4.512 -1.5912 -0.0101  1.3108
  172bbb    H18 5157   3.986   4.083   4.371  0.4054  1.2812 -0.2836
  172bbb     O1 5158   3.751   3.731   3.943 -0.2738 -0.2076 -0.1513
  172bbb    H19 5159   3.715   3.934   4.425  1.7934 -1.5083 -1.3589
  173bbb     N1 5160   3.690   2.895   2.118 -0.5358  0.9977  0.1272
  173bbb     C1 5161   3.799   2.972   2.048 -0.1884  0.3226  0.0259
  173bbb     H1 5162   3.766   3.076   2.041 -1.3773 -0.1268 -1.7691
  173bbb     H2 5163   3.800   2.929   1.947  0.7914 -0.2372  0.2689
  173bbb     C2 5164   3.724   2.749   2.122 -0.9238 -0.3595 -0.2247
  173bbb     H3 5165   3.771   2.734   2.220  1.5864 -0.6857 -1.3917
  173bbb     H4 5166   3.797   2.736   2.041 -0.4554 -0.3779  0.1933
  173bbb     C3 5167   3.676   2.946   2.264 -0.2961 -0.2885  0.1262
  173bbb     H5 5168   3.777   2.950   2.304 -0.0485 -0.5937 -0.4510
  173bbb     H6 5169   3.634   2.871   2.331 -0.2533  0.5699  1.1298
  173bbb     C4 5170   3.617   3.092   2.286  0.6051 -0.0170 -0.1479
  173bbb     H7 5171   3.514   3.086   2.252  0.7013 -0.8077 -0.3078
  173bbb     H8 5172   3.678   3.161   2.226  1.7311 -1.5314 -0.8046
  173bbb     C5 5173   3.941   2.957   2.093 -0.9590 -0.0378 -0.0366
  173bbb     H9 5174   3.983   2.856   2.101 -0.0824  0.3570  0.4489
  173bbb    H10 5175   3.962   3.009   2.187  1.8228 -2.0675  0.5766
  173bbb     C6 5176   3.616   2.644   2.115  0.4193 -0.2738 -0.1558
  173bbb    H11 5177   3.567   2.647   2.017  2.1812 -2.7748 -1.2204
  173bbb    H12 5178   3.535   2.673   2.183 -1.7407  0.1926 -2.7442
  173bbb     C7 5179   3.606   3.142   2.429 -0.4467 -0.2684 -0.2481
  173bbb    H13 5180   3.616   3.251   2.422 -0.0492 -0.3179 -0.4531
  173bbb    H14 5181   3.696   3.101   2.477 -0.8690 -1.1680 -0.1891
  173bbb     C8 5182   3.665   2.495   2.129  0.6162 -0.1764 -0.2889
  173bbb    H15 5183   3.721   2.482   2.223 -0.6563  1.5678  0.7724
  173bbb    H16 5184   3.583   2.426   2.155 -0.0028  0.7388  0.2411
  173bbb     C9 5185   4.029   3.033   1.989  0.3205  0.3886 -0.2029
  173bbb    H17 5186   4.133   3.027   2.024  1.0365  1.4649 -2.0077
  173bbb    H18 5187   4.004   3.139   1.990 -2.0945 -0.1177 -0.7011
  173bbb     O1 5188   3.482   3.105   2.501  0.5034  0.2861  0.1200
  173bbb    H19 5189   3.601   2.917   2.071 -1.0984 -2.6936 -0.8461
  174bbb     N1 5190   2.630   2.656   2.071  0.1684 -0.2364  0.0753
  174bbb     C1 5191   2.708   2.728   1.967 -0.0079 -0.2612  0.2216
  174bbb     H1 5192   2.707   2.669   1.875 -1.2723  1.2439 -0.7795
  174bbb     H2 5193   2.809   2.728   2.010 -0.0832  0.3558  0.4020
  174bbb     C2 5194   2.680   2.507   2.078  0.2946  0.1797 -0.4481
  174bbb     H3 5195   2.773   2.507   2.135 -0.3798 -0.8066  0.7070
  174bbb     H4 5196   2.715   2.472   1.980  1.3225  0.1527 -0.0871
  174bbb     C3 5197   2.643   2.729   2.211  0.2301  0.0039 -0.5556
  174bbb     H5 5198   2.586   2.672   2.285 -2.5112  0.7680 -1.9186
  174bbb     H6 5199   2.598   2.828   2.203 -0.5084 -0.3303 -0.6669
  174bbb     C4 5200   2.785   2.727   2.271 -0.0645 -0.6431 -0.1385
  174bbb     H7 5201   2.856   2.768   2.198  1.2674 -0.8253  1.0173
  174bbb     H8 5202   2.820   2.626   2.293  1.6021 -0.1612 -0.4741
  174bbb     C5 5203   2.666   2.871   1.924 -0.8705  0.2192 -0.4935
  174bbb     H9 5204   2.746   2.917   1.864  0.2813  0.1845  0.9691
  174bbb    H10 5205   2.655   2.934   2.013 -2.2380 -0.5177 -0.1125
  174bbb     C6 5206   2.583   2.392   2.136  0.0316 -0.8107 -0.2681
  174bbb    H11 5207   2.497   2.393   2.067  0.4359 -1.3388 -0.7885
  174bbb    H12 5208   2.550   2.410   2.239  2.0259 -1.1172  0.4652
  174bbb     C7 5209   2.800   2.817   2.394  0.4474  0.4248  0.0918
  174bbb    H13 5210   2.717   2.796   2.461 -0.5502 -1.3281 -1.5945
  174bbb    H14 5211   2.779   2.923   2.376  1.0589  0.6572  0.6942
  174bbb     C8 5212   2.652   2.256   2.130 -0.4574  0.4438  0.3922
  174bbb    H15 5213   2.658   2.227   2.025 -0.8581  1.5168  0.0649
  174bbb    H16 5214   2.756   2.259   2.166  1.0170  0.7057 -3.4423
  174bbb     C9 5215   2.536   2.868   1.837 -0.0093 -0.0074 -0.1545
  174bbb    H17 5216   2.501   2.971   1.822 -1.0114 -0.1202  1.2475
  174bbb    H18 5217   2.458   2.820   1.898 -0.6557  0.6086 -0.4748
  174bbb     O1 5218   2.927   2.818   2.454  0.1472 -0.2170 -0.6241
  174bbb    H19 5219   2.531   2.650   2.044 -0.3115  0.0819  1.6727
  175bbb     N1 5220   9.144   3.525   4.040  0.1683  0.0982  0.0698
  175bbb     C1 5221   9.075   3.658   3.999  0.0349  0.8764  0.0167
  175bbb     H1 5222   9.143   3.737   4.031  0.4092  0.5990 -0.0799
  175bbb     H2 5223   8.982   3.658   4.056 -0.0154 -2.7042  0.1735
  175bbb     C2 5224   9.179   3.538   4.189  0.3931  0.2643  0.5441
  175bbb     H3 5225   9.240   3.627   4.208  0.3946  0.2882  0.4330
  175bbb     H4 5226   9.235   3.450   4.221  0.4660  0.5499  1.2029
  175bbb     C3 5227   9.035   3.418   4.012 -0.1708  0.0700 -0.0483
  175bbb     H5 5228   8.994   3.428   3.912  0.2674  0.0789 -0.2302
  175bbb     H6 5229   8.949   3.432   4.078 -1.6266 -0.2865 -1.7768
  175bbb     C4 5230   9.085   3.274   4.025  0.3987  0.3407  0.6913
  175bbb     H7 5231   9.113   3.248   4.128  0.8049  0.7774  0.6922
  175bbb     H8 5232   9.167   3.265   3.952  0.6660 -1.0441  1.1268
  175bbb     C5 5233   9.052   3.669   3.847  0.1856 -0.3364 -0.4312
  175bbb     H9 5234   8.969   3.601   3.826 -1.4462  1.4931 -0.2422
  175bbb    H10 5235   9.146   3.643   3.798  1.5058 -0.1322  1.8493
  175bbb     C6 5236   9.068   3.551   4.290  0.6799 -0.5987 -0.3676
  175bbb    H11 5237   9.011   3.458   4.298 -0.8270  0.3559  0.5596
  175bbb    H12 5238   9.000   3.632   4.260 -0.8751 -1.9101 -0.5437
  175bbb     C7 5239   8.968   3.179   3.962 -0.7497 -0.0341  0.4589
  175bbb    H13 5240   9.015   3.088   3.923 -2.1499 -1.4096  1.8203
  175bbb    H14 5241   8.908   3.222   3.882  0.7794 -2.2517 -2.0561
  175bbb     C8 5242   9.123   3.603   4.419 -0.3772  0.3930 -0.6602
  175bbb    H15 5243   9.208   3.670   4.405 -1.1737  1.0890 -2.5552
  175bbb    H16 5244   9.054   3.669   4.473 -0.5513 -0.0280 -0.3604
  175bbb     C9 5245   9.001   3.805   3.797 -0.2546 -0.3481  0.0783
  175bbb    H17 5246   8.907   3.836   3.845  0.1771 -1.4334  1.6809
  175bbb    H18 5247   8.972   3.799   3.691 -0.4334 -2.7619  0.2153
  175bbb     O1 5248   8.876   3.147   4.069 -0.7430  1.0561 -0.2143
  175bbb    H19 5249   9.220   3.504   3.973 -0.2428  0.3402 -0.4828
  176bbb     N1 5250   9.010   3.408   3.220 -0.1153 -0.8929  0.3302
  176bbb     C1 5251   9.146   3.373   3.179 -0.0567  0.3993  0.3186
  176bbb     H1 5252   9.199   3.464   3.207  4.6599 -2.4024  1.5973
  176bbb     H2 5253   9.135   3.353   3.073 -0.6429  0.4267  0.3707
  176bbb     C2 5254   8.917   3.285   3.213 -0.0329  0.6658 -0.1975
  176bbb     H3 5255   8.835   3.299   3.284 -0.0572  4.0959 -0.7209
  176bbb     H4 5256   8.971   3.199   3.252  0.5700 -0.3568 -3.0510
  176bbb     C3 5257   9.008   3.453   3.359 -0.4386  0.5589 -0.0448
  176bbb     H5 5258   9.095   3.516   3.378  0.1961  0.1358 -1.4370
  176bbb     H6 5259   9.004   3.364   3.423  1.8483 -0.0741 -0.7129
  176bbb     C4 5260   8.875   3.535   3.376 -1.0728  0.0850 -0.7444
  176bbb     H7 5261   8.793   3.462   3.373 -1.2417  0.2168  0.2302
  176bbb     H8 5262   8.863   3.601   3.289  0.9003 -0.7259 -1.6914
  176bbb     C5 5263   9.221   3.261   3.249  0.0641  0.3733  0.0629
  176bbb     H9 5264   9.213   3.262   3.359  0.3078  0.7353  0.0792
  176bbb    H10 5265   9.327   3.285   3.244  0.1837 -0.2325 -0.3863
  176bbb     C6 5266   8.860   3.257   3.074 -0.0688 -0.0271  0.5317
  176bbb    H11 5267   8.787   3.176   3.085 -1.3508  1.0513  0.1579
  176bbb    H12 5268   8.937   3.212   3.010  0.5295  1.9753 -0.2236
  176bbb     C7 5269   8.877   3.608   3.513 -0.4371  0.0416  0.4717
  176bbb    H13 5270   8.810   3.694   3.512  0.2717  0.6385 -1.6442
  176bbb    H14 5271   8.978   3.645   3.536 -0.3281 -0.6460  1.1820
  176bbb     C8 5272   8.787   3.385   3.016 -0.0410  0.4462  0.0578
  176bbb    H15 5273   8.716   3.354   2.938  1.3094  0.7521 -1.3357
  176bbb    H16 5274   8.729   3.425   3.101  0.7364  0.5228  0.5614
  176bbb     C9 5275   9.199   3.120   3.190 -0.0631 -1.0639 -0.5796
  176bbb    H17 5276   9.128   3.127   3.107 -1.0123 -0.1375  0.2871
  176bbb    H18 5277   9.169   3.053   3.272 -0.9854  0.4347  0.3380
  176bbb     O1 5278   8.852   3.507   3.614  0.6872 -0.1610  0.3122
  176bbb    H19 5279   8.974   3.478   3.154  1.2879  1.4360  1.8952
  177bbb     N1 5280   8.663   1.611   4.873  0.5883 -0.6892  0.0247
  177bbb     C1 5281   8.574   1.512   4.949  0.4383 -0.6221  0.4642
  177bbb     H1 5282   8.587   1.415   4.900 -2.4145  0.1798 -2.2481
  177bbb     H2 5283   8.472   1.543   4.922  1.0554 -0.0410 -1.3725
  177bbb     C2 5284   8.653   1.573   4.719  0.0642 -0.2587 -0.0107
  177bbb     H3 5285   8.701   1.477   4.698  1.0907 -0.1458  1.6741
  177bbb     H4 5286   8.715   1.639   4.657  1.3888 -3.1047 -1.9438
  177bbb     C3 5287   8.620   1.752   4.887  0.3777 -0.3183  0.0965
  177bbb     H5 5288   8.588   1.751   4.991 -2.3907  1.1023 -0.6261
  177bbb     H6 5289   8.533   1.781   4.827  1.0938  1.4313 -0.1486
  177bbb     C4 5290   8.720   1.869   4.871  0.1413  0.2292  0.5211
  177bbb     H7 5291   8.745   1.871   4.765 -1.4195 -0.8532  0.0869
  177bbb     H8 5292   8.819   1.849   4.913  0.7707 -1.2460 -1.4957
  177bbb     C5 5293   8.595   1.508   5.100 -0.1521 -0.2551 -0.7924
  177bbb     H9 5294   8.533   1.428   5.142  0.4793 -0.4638 -0.2266
  177bbb    H10 5295   8.556   1.601   5.144  0.5271  0.2055 -1.1584
  177bbb     C6 5296   8.510   1.569   4.654  0.2561 -0.9448  0.4412
  177bbb    H11 5297   8.461   1.667   4.657  0.3587 -0.6444 -3.4092
  177bbb    H12 5298   8.447   1.493   4.701 -1.5117 -1.2998 -2.2709
  177bbb     C7 5299   8.666   2.000   4.922 -0.3806  0.2724  0.2243
  177bbb    H13 5300   8.740   2.080   4.920 -0.7639  0.6276 -0.6494
  177bbb    H14 5301   8.635   1.988   5.026 -2.6551  1.0442 -0.2832
  177bbb     C8 5302   8.516   1.544   4.493 -0.5623  0.1566 -0.4807
  177bbb    H15 5303   8.420   1.533   4.442 -1.9276 -1.1512  2.1810
  177bbb    H16 5304   8.564   1.630   4.444  0.3622  0.4866  0.9397
  177bbb     C9 5305   8.748   1.482   5.130  0.3739  0.3081 -0.0632
  177bbb    H17 5306   8.781   1.387   5.085  0.3801 -0.1495  0.8956
  177bbb    H18 5307   8.747   1.468   5.238 -1.5105 -1.9801 -0.2893
  177bbb     O1 5308   8.555   2.052   4.841  0.0882 -0.5028  0.3100
  177bbb    H19 5309   8.757   1.590   4.910  0.3461  0.4430  1.3352
  178bbb     N1 5310   8.371   2.335   3.805 -0.2687  0.7478  0.0815
  178bbb     C1 5311   8.430   2.386   3.680  0.1888 -0.2212  0.2076
  178bbb     H1 5312   8.396   2.320   3.600  0.7443 -0.2214 -0.0347
  178bbb     H2 5313   8.538   2.379   3.694 -0.0947 -1.8436  1.9937
  178bbb     C2 5314   8.426   2.194   3.836  0.0948 -0.4584  0.2094
  178bbb     H3 5315   8.421   2.187   3.945 -1.7543  0.5414  0.2237
  178bbb     H4 5316   8.531   2.197   3.807 -0.1420  0.8983 -0.6016
  178bbb     C3 5317   8.393   2.428   3.925 -0.1046 -0.0685  0.3645
  178bbb     H5 5318   8.366   2.530   3.899  0.2152  1.1920  4.2628
  178bbb     H6 5319   8.498   2.432   3.955  0.9589  0.2175 -2.9717
  178bbb     C4 5320   8.302   2.387   4.047 -0.4707  0.7565  0.5369
  178bbb     H7 5321   8.350   2.299   4.092  0.5714  1.5655  1.0767
  178bbb     H8 5322   8.211   2.346   4.003  0.6481 -0.5842 -0.6407
  178bbb     C5 5323   8.381   2.526   3.622 -0.0020 -0.3706 -0.5409
  178bbb     H9 5324   8.395   2.611   3.689 -0.0590 -1.3901  0.8188
  178bbb    H10 5325   8.273   2.521   3.610 -0.0789 -0.0629 -0.0170
  178bbb     C6 5326   8.354   2.073   3.780 -0.3303 -0.8786  0.4537
  178bbb    H11 5327   8.366   2.074   3.671 -0.6828 -1.0590  0.4141
  178bbb    H12 5328   8.246   2.081   3.798 -0.2390 -1.0405  1.1271
  178bbb     C7 5329   8.283   2.501   4.145 -0.0908 -0.3743 -0.3557
  178bbb    H13 5330   8.207   2.464   4.215 -0.5369  0.0783 -0.5909
  178bbb    H14 5331   8.231   2.584   4.096  1.5995  0.2705 -1.1255
  178bbb     C8 5332   8.411   1.944   3.826  0.0466  0.7090  0.3002
  178bbb    H15 5333   8.398   1.926   3.933 -2.5593  1.5988  0.2041
  178bbb    H16 5334   8.367   1.860   3.771  0.4770  0.2869  0.5943
  178bbb     C9 5335   8.458   2.563   3.492 -0.1870 -0.3317 -0.0281
  178bbb    H17 5336   8.563   2.561   3.523 -0.8250 -1.8614  2.2868
  178bbb    H18 5337   8.434   2.664   3.457  0.3232 -0.0176  0.5047
  178bbb     O1 5338   8.399   2.546   4.222 -0.4702  0.1729 -0.1788
  178bbb    H19 5339   8.269   2.333   3.789 -0.0268  1.5771 -1.7791
  179bbb     N1 5340   8.043   1.706   2.118 -0.6634  0.2926  0.3002
  179bbb     C1 5341   7.963   1.575   2.065 -0.2946 -0.2660 -0.3968
  179bbb     H1 5342   7.881   1.614   2.005  0.7604  1.7845 -0.6023
  179bbb     H2 5343   7.928   1.516   2.149 -0.0716 -1.0226 -0.8289
  179bbb     C2 5344   8.069   1.804   2.000  0.2626  0.6722  0.0283
  179bbb     H3 5345   7.973   1.832   1.956  1.6290  0.8588 -3.1041
  179bbb     H4 5346   8.124   1.751   1.922  1.2935 -1.6488  2.1888
  179bbb     C3 5347   7.959   1.767   2.231 -0.0688  0.0368  0.0431
  179bbb     H5 5348   7.862   1.772   2.180  0.8088 -1.8311 -1.9950
  179bbb     H6 5349   7.987   1.870   2.251 -1.9247  0.1554  2.5656
  179bbb     C4 5350   7.958   1.697   2.367 -0.5434  0.7859  0.3929
  179bbb     H7 5351   8.006   1.598   2.359  0.0206  0.7818  2.9912
  179bbb     H8 5352   7.851   1.679   2.384 -0.5071  0.7671  0.6081
  179bbb     C5 5353   8.050   1.481   1.982 -0.1784  0.4669 -0.0954
  179bbb     H9 5354   8.084   1.523   1.887  0.0703  0.9089  0.1886
  179bbb    H10 5355   7.991   1.391   1.963  0.3939  0.2364 -0.8123
  179bbb     C6 5356   8.160   1.927   2.036  0.4362 -1.6954 -0.4169
  179bbb    H11 5357   8.120   1.970   2.128  3.0429 -1.9274  0.9313
  179bbb    H12 5358   8.148   1.998   1.953  0.6362 -0.5021  0.5471
  179bbb     C7 5359   8.038   1.770   2.481  0.1675  0.3240  0.3902
  179bbb    H13 5360   8.141   1.785   2.446 -0.4421 -1.3107 -2.4232
  179bbb    H14 5361   8.036   1.715   2.576  1.3326 -1.1283 -0.3935
  179bbb     C8 5362   8.311   1.887   2.045  0.0697 -0.4781 -0.0542
  179bbb    H15 5363   8.367   1.969   2.091  4.8490 -3.4925  0.2472
  179bbb    H16 5364   8.323   1.795   2.103 -2.2266 -0.9587 -0.2251
  179bbb     C9 5365   8.172   1.426   2.054  0.1839 -0.1774 -0.4867
  179bbb    H17 5366   8.238   1.507   2.085 -1.1675  2.0401 -2.9599
  179bbb    H18 5367   8.222   1.358   1.984  1.0065  0.2606 -0.3374
  179bbb     O1 5368   7.978   1.896   2.512 -0.6606 -0.2500  0.1178
  179bbb    H19 5369   8.132   1.679   2.164 -1.2545 -1.1067  0.6745
  180bbb     N1 5370   8.216   1.441   3.007  0.2215  0.0443  0.5802
  180bbb     C1 5371   8.346   1.468   2.928 -0.3269  0.2412 -0.1216
  180bbb     H1 5372   8.372   1.380   2.869 -1.8505  1.1513 -2.3083
  180bbb     H2 5373   8.425   1.495   2.998 -0.6612 -1.2206  0.8519
  180bbb     C2 5374   8.212   1.309   3.090  0.4090  0.9860  0.4846
  180bbb     H3 5375   8.111   1.267   3.091  1.8263 -2.9861 -1.9515
  180bbb     H4 5376   8.237   1.341   3.192 -0.5903  1.7304  0.5160
  180bbb     C3 5377   8.196   1.548   3.102  0.8254 -0.3359  0.1259
  180bbb     H5 5378   8.194   1.639   3.042  0.2167 -0.5828 -0.2369
  180bbb     H6 5379   8.281   1.560   3.170 -0.1987  1.1658  1.2169
  180bbb     C4 5380   8.071   1.559   3.189 -0.4986 -0.3980 -0.1202
  180bbb     H7 5381   8.064   1.481   3.266 -1.1123  0.0612  0.3021
  180bbb     H8 5382   7.981   1.548   3.127 -0.8086 -2.6154  0.6227
  180bbb     C5 5383   8.326   1.587   2.826  0.3818 -0.0822 -0.0578
  180bbb     H9 5384   8.300   1.679   2.879 -0.2919 -0.7860  0.8682
  180bbb    H10 5385   8.245   1.568   2.755  0.9591 -2.3197 -0.1992
  180bbb     C6 5386   8.294   1.193   3.026 -0.0945 -0.3353 -0.3023
  180bbb    H11 5387   8.392   1.233   2.996  0.6230 -1.3649  0.5645
  180bbb    H12 5388   8.244   1.158   2.935 -0.8416  0.5199 -0.2286
  180bbb     C7 5389   8.064   1.702   3.254  0.9317 -0.2910  0.0470
  180bbb    H13 5390   8.146   1.722   3.323  1.5576  1.6262 -1.1648
  180bbb    H14 5391   7.971   1.719   3.310  1.0929 -0.3336  0.3261
  180bbb     C8 5392   8.334   1.079   3.128  0.0279  0.1724  0.4115
  180bbb    H15 5393   8.414   1.019   3.082  0.3303  2.2664 -2.0452
  180bbb    H16 5394   8.382   1.128   3.214  0.2650  3.4837 -1.4247
  180bbb     C9 5395   8.443   1.611   2.731  0.0690  0.1559 -0.1905
  180bbb    H17 5396   8.531   1.631   2.794  0.8526  0.4612 -1.3422
  180bbb    H18 5397   8.428   1.700   2.668 -1.3739 -0.3921 -0.6595
  180bbb     O1 5398   8.065   1.796   3.139 -0.1576 -0.5882 -0.2657
  180bbb    H19 5399   8.148   1.458   2.931  1.0093 -0.0723 -0.1614
  181bbb     N1 5400   7.501   3.890   3.068 -0.0314  0.0956  0.0955
  181bbb     C1 5401   7.498   3.903   3.217  0.3226  0.2727 -0.1382
  181bbb     H1 5402   7.392   3.890   3.243  0.6680  1.1391  1.9214
  181bbb     H2 5403   7.533   3.998   3.258 -0.9243  0.5468  0.3469
  181bbb     C2 5404   7.648   3.904   3.030  0.2571  0.1656 -0.2627
  181bbb     H3 5405   7.708   3.817   3.056 -2.0930 -1.3300  0.5839
  181bbb     H4 5406   7.681   3.984   3.096  1.2305 -0.9752  0.6775
  181bbb     C3 5407   7.437   3.759   3.022  0.1343 -0.5030 -0.0163
  181bbb     H5 5408   7.514   3.686   3.048  1.0102  0.4084  0.0561
  181bbb     H6 5409   7.434   3.763   2.913 -3.1214 -2.9907 -0.1558
  181bbb     C4 5410   7.297   3.715   3.080 -0.2759 -0.0858 -0.2283
  181bbb     H7 5411   7.233   3.804   3.086 -0.0642  0.1120 -0.8500
  181bbb     H8 5412   7.309   3.687   3.185 -1.4655 -0.4023 -0.1560
  181bbb     C5 5413   7.587   3.809   3.299  0.6921 -0.3608 -1.0070
  181bbb     H9 5414   7.695   3.822   3.287  0.7592  0.9693  0.6206
  181bbb    H10 5415   7.568   3.703   3.285 -0.3272 -0.6569  1.8533
  181bbb     C6 5416   7.659   3.974   2.894 -0.4937  0.3799  0.1130
  181bbb    H11 5417   7.595   4.063   2.898 -1.2262 -0.1362  0.2409
  181bbb    H12 5418   7.619   3.914   2.811  0.0528  0.0194  0.1045
  181bbb     C7 5419   7.236   3.605   2.998  0.3957 -0.0744  0.1228
  181bbb    H13 5420   7.213   3.645   2.898 -1.0699  0.9383  0.8345
  181bbb    H14 5421   7.133   3.581   3.026 -1.0459  2.1518 -2.6757
  181bbb     C8 5422   7.806   4.020   2.870  0.0100 -0.5036  0.0401
  181bbb    H15 5423   7.880   3.939   2.880  0.5606 -0.1265 -0.7915
  181bbb    H16 5424   7.813   4.052   2.765  1.0930  0.6658  0.4510
  181bbb     C9 5425   7.564   3.833   3.449 -0.8583  0.4804  0.3857
  181bbb    H17 5426   7.585   3.937   3.478  1.7574 -0.4097  2.0143
  181bbb    H18 5427   7.633   3.780   3.515 -2.4867  2.0517  3.5875
  181bbb     O1 5428   7.313   3.485   2.988 -0.1739 -0.0656  0.0338
  181bbb    H19 5429   7.456   3.978   3.041 -1.0073 -0.4083  0.0082
  182bbb     N1 5430   7.522   3.300   2.338 -0.2596 -0.0564 -0.2954
  182bbb     C1 5431   7.380   3.344   2.369 -0.4232 -0.6237  0.4327
  182bbb     H1 5432   7.393   3.450   2.393 -1.4488 -0.8390  2.0862
  182bbb     H2 5433   7.355   3.288   2.459 -0.2475 -0.5137  0.5505
  182bbb     C2 5434   7.582   3.365   2.212  0.6414  1.0074 -0.5962
  182bbb     H3 5435   7.518   3.331   2.130  1.0970 -0.7345 -0.2682
  182bbb     H4 5436   7.683   3.322   2.211  0.9754  1.7654 -0.2409
  182bbb     C3 5437   7.609   3.340   2.461  0.1468  1.2196 -0.0343
  182bbb     H5 5438   7.604   3.447   2.484  0.2158  0.8117  2.0495
  182bbb     H6 5439   7.712   3.313   2.441  0.1645  1.2399  0.0329
  182bbb     C4 5440   7.559   3.272   2.591 -0.0070 -0.0076 -0.2685
  182bbb     H7 5441   7.463   3.319   2.617  0.8521  4.3810 -3.7120
  182bbb     H8 5442   7.626   3.300   2.672 -0.7049  2.0193 -0.3339
  182bbb     C5 5443   7.270   3.308   2.271  0.2430  0.3925  0.4275
  182bbb     H9 5444   7.272   3.363   2.176 -1.2390 -0.1056  0.0745
  182bbb    H10 5445   7.176   3.333   2.322  0.8876 -1.7888  2.8800
  182bbb     C6 5446   7.598   3.520   2.202  0.2533 -0.3166 -0.0083
  182bbb    H11 5447   7.674   3.559   2.271 -1.6258  1.5206  1.1787
  182bbb    H12 5448   7.505   3.568   2.235  0.2108 -0.4391  0.0522
  182bbb     C7 5449   7.565   3.116   2.580  0.4528 -0.0260  0.4462
  182bbb    H13 5450   7.661   3.085   2.537  1.1952  0.6050  1.5990
  182bbb    H14 5451   7.480   3.073   2.525  1.0716 -1.0526  0.2664
  182bbb     C8 5452   7.632   3.552   2.052 -0.1550 -0.2189 -0.4638
  182bbb    H15 5453   7.639   3.661   2.047  0.4141 -0.2010  0.5912
  182bbb    H16 5454   7.734   3.523   2.025 -0.4720  0.3457 -2.4879
  182bbb     C9 5455   7.263   3.162   2.239  0.0291 -0.0262 -0.3675
  182bbb    H17 5456   7.326   3.136   2.153  0.0447 -1.2123 -0.0169
  182bbb    H18 5457   7.161   3.131   2.213 -0.4150  0.6838  0.4400
  182bbb     O1 5458   7.553   3.062   2.710 -0.4431  0.3864 -0.3393
  182bbb    H19 5459   7.504   3.199   2.331 -2.3295  0.3080 -1.1384
  183bbb     N1 5460   8.036   1.896   5.827 -0.0618 -0.7834 -0.5778
  183bbb     C1 5461   7.897   1.898   5.767 -0.5107  0.0903  0.5275
  183bbb     H1 5462   7.834   1.817   5.804 -1.1970 -0.2131 -1.2076
  183bbb     H2 5463   7.909   1.889   5.659 -3.9397 -0.4472  0.0789
  183bbb     C2 5464   8.091   1.754   5.852  0.5442  0.2634  0.3798
  183bbb     H3 5465   8.188   1.779   5.896  0.9196  2.5962 -1.6022
  183bbb     H4 5466   8.112   1.705   5.757  0.6896 -0.5157  0.7993
  183bbb     C3 5467   8.132   1.989   5.761 -0.1104 -0.7917  0.4227
  183bbb     H5 5468   8.079   2.083   5.749  2.0883  0.3195 -1.3951
  183bbb     H6 5469   8.145   1.935   5.667 -0.3733 -1.5913  0.8329
  183bbb     C4 5470   8.271   2.007   5.832 -0.2497  0.2055  0.0209
  183bbb     H7 5471   8.330   1.916   5.836 -0.3278  0.0142 -2.1073
  183bbb     H8 5472   8.248   2.036   5.935 -1.2153 -2.1421  0.5232
  183bbb     C5 5473   7.816   2.035   5.791 -0.2902  0.6010 -0.4881
  183bbb     H9 5474   7.725   2.024   5.731 -2.2160  0.5637  2.2576
  183bbb    H10 5475   7.872   2.118   5.746  0.9020 -0.5794 -1.2632
  183bbb     C6 5476   8.000   1.665   5.949 -0.6080  0.2377  0.1932
  183bbb    H11 5477   8.041   1.564   5.946 -0.8233  0.1537  0.0216
  183bbb    H12 5478   7.894   1.651   5.925 -1.0754 -1.4214  2.8248
  183bbb     C7 5479   8.367   2.105   5.764  0.1531  0.6435 -0.2019
  183bbb    H13 5480   8.399   2.062   5.667 -0.1388 -3.0845  1.1921
  183bbb    H14 5481   8.466   2.110   5.812 -0.0176  0.4987  0.1676
  183bbb     C8 5482   8.012   1.722   6.086 -0.1778 -0.7899  0.0658
  183bbb    H15 5483   8.119   1.719   6.112 -0.2496  2.4055  1.1955
  183bbb    H16 5484   7.985   1.828   6.080  0.7694 -0.5341  0.1079
  183bbb     C9 5485   7.786   2.060   5.937 -0.7530 -0.1302 -0.6896
  183bbb    H17 5486   7.727   1.977   5.977 -1.5008  1.0365  0.7102
  183bbb    H18 5487   7.721   2.148   5.940  0.6781  0.9172  0.7367
  183bbb     O1 5488   8.304   2.232   5.758 -0.0948 -0.2074  0.3311
  183bbb    H19 5489   8.023   1.939   5.920  1.3172  2.2626 -1.6534
  184bbb     N1 5490   8.515   3.079   5.951 -0.6196  0.0590  0.6843
  184bbb     C1 5491   8.610   3.152   5.845 -0.9832  0.0824 -0.1831
  184bbb     H1 5492   8.689   3.203   5.900 -0.5624 -0.7549 -0.0022
  184bbb     H2 5493   8.555   3.229   5.790  0.2523  1.0842 -0.0621
  184bbb     C2 5494   8.507   3.163   6.076  0.2039 -0.6017 -0.4026
  184bbb     H3 5495   8.413   3.140   6.125  1.9157 -1.2666  2.8217
  184bbb     H4 5496   8.491   3.268   6.049  0.5769 -0.2158  0.8163
  184bbb     C3 5497   8.374   3.062   5.904 -0.0211 -0.4267 -0.2282
  184bbb     H5 5498   8.318   3.154   5.884  0.5826  0.4488  1.8680
  184bbb     H6 5499   8.326   3.014   5.989 -1.0303 -3.1957 -2.2409
  184bbb     C4 5500   8.358   2.973   5.772  0.1335  0.2933 -0.1987
  184bbb     H7 5501   8.406   2.875   5.778 -1.6379 -0.5563  1.4215
  184bbb     H8 5502   8.390   3.031   5.685  1.5722  0.1023  0.1762
  184bbb     C5 5503   8.687   3.047   5.757  0.3968 -0.2971  0.1528
  184bbb     H9 5504   8.747   3.095   5.679  0.6892  0.0754  0.5994
  184bbb    H10 5505   8.615   2.977   5.713  2.1949 -2.6147  0.6904
  184bbb     C6 5506   8.619   3.149   6.177 -0.1444  0.1275  0.8438
  184bbb    H11 5507   8.713   3.175   6.126 -0.5169  0.5956  0.3883
  184bbb    H12 5508   8.623   3.045   6.212 -0.8516  0.3633  1.6498
  184bbb     C7 5509   8.209   2.943   5.737  0.3864 -0.6835  0.0547
  184bbb    H13 5510   8.213   2.899   5.636  2.4944 -0.8097  0.1400
  184bbb    H14 5511   8.162   3.042   5.742 -0.3384 -1.0200  0.0153
  184bbb     C8 5512   8.613   3.243   6.301 -0.3780 -0.1847 -0.2049
  184bbb    H15 5513   8.703   3.226   6.362 -0.8193 -0.9037  0.2667
  184bbb    H16 5514   8.620   3.349   6.274  0.2333 -0.6691 -2.1314
  184bbb     C9 5515   8.793   2.948   5.818  0.3025 -0.6215 -0.0735
  184bbb    H17 5516   8.889   2.996   5.843 -1.0812  1.2340  2.0291
  184bbb    H18 5517   8.815   2.865   5.749  0.5374 -0.7938  0.2079
  184bbb     O1 5518   8.147   2.855   5.840  0.2876  0.1170  0.4187
  184bbb    H19 5519   8.559   2.990   5.977 -0.9349  0.4460  2.6951
  185bbb     N1 5520   6.025   2.585   6.044 -0.0479 -0.5087 -1.0012
  185bbb     C1 5521   5.874   2.596   6.062 -1.0082 -0.3937 -0.0973
  185bbb     H1 5522   5.847   2.700   6.081 -1.1099 -0.8235  2.4575
  185bbb     H2 5523   5.830   2.547   6.148 -1.9908 -2.0933 -1.5005
  185bbb     C2 5524   6.094   2.709   6.085  0.3456  0.2379 -0.2501
  185bbb     H3 5525   6.025   2.788   6.056  0.6766  0.7632  0.3710
  185bbb     H4 5526   6.189   2.715   6.032  0.2019  1.0941 -0.4109
  185bbb     C3 5527   6.065   2.472   6.137 -0.6379 -0.4383  0.7108
  185bbb     H5 5528   6.014   2.386   6.094 -0.4662 -0.8505  1.3160
  185bbb     H6 5529   6.033   2.503   6.237  0.2740 -3.7750  2.1716
  185bbb     C4 5530   6.212   2.437   6.125 -0.3397 -0.5204 -0.2200
  185bbb     H7 5531   6.218   2.355   6.199  1.5579 -2.4540 -2.3720
  185bbb     H8 5532   6.282   2.517   6.150  0.5167 -1.6607  1.2441
  185bbb     C5 5533   5.812   2.537   5.927 -0.4116 -0.4090  0.1691
  185bbb     H9 5534   5.708   2.570   5.937 -0.4502 -0.8701  1.5284
  185bbb    H10 5535   5.814   2.427   5.923  1.2535 -0.3693 -2.4937
  185bbb     C6 5536   6.123   2.734   6.235  0.7576  0.4934  0.4863
  185bbb    H11 5537   6.203   2.669   6.271  2.6430  2.7459  0.6310
  185bbb    H12 5538   6.027   2.717   6.286 -0.0318  2.4674 -0.2078
  185bbb     C7 5539   6.249   2.384   5.981 -0.5490  0.5358  0.1689
  185bbb    H13 5540   6.247   2.466   5.908  1.3750  1.5341  1.1384
  185bbb    H14 5541   6.186   2.301   5.948  1.2544 -0.1472 -1.8103
  185bbb     C8 5542   6.166   2.882   6.244 -0.7379 -0.9143 -0.5799
  185bbb    H15 5543   6.247   2.909   6.176 -0.7107  2.7214  0.6992
  185bbb    H16 5544   6.084   2.951   6.220 -1.2615 -0.9697  0.9246
  185bbb     C9 5545   5.846   2.595   5.788 -0.0133  0.9147  0.2570
  185bbb    H17 5546   5.817   2.701   5.786  1.5821  1.3596 -0.6182
  185bbb    H18 5547   5.792   2.538   5.712 -0.4397  0.4032  0.9258
  185bbb     O1 5548   6.383   2.333   5.993 -0.4836 -0.2414  0.0022
  185bbb    H19 5549   6.050   2.563   5.947  1.5192  0.8433 -0.9406
  186bbb     N1 5550   6.692   1.921   6.801 -0.2772 -0.1083  0.1571
  186bbb     C1 5551   6.644   1.871   6.672 -0.5547 -0.1898  0.5540
  186bbb     H1 5552   6.594   1.776   6.692 -1.6355  0.5060  1.2321
  186bbb     H2 5553   6.726   1.836   6.609 -1.3250  0.3108 -0.7641
  186bbb     C2 5554   6.713   1.799   6.881 -0.2593 -0.5902  0.0255
  186bbb     H3 5555   6.795   1.737   6.844 -0.7582 -0.6795 -0.9709
  186bbb     H4 5556   6.619   1.744   6.884  0.7178 -2.3660 -0.4821
  186bbb     C3 5557   6.824   2.006   6.799 -0.1430  0.2662 -0.0209
  186bbb     H5 5558   6.903   1.940   6.763 -1.3239 -1.3754  0.2993
  186bbb     H6 5559   6.851   2.028   6.902 -0.1911 -0.4695  0.1509
  186bbb     C4 5560   6.841   2.134   6.716  0.4955  0.6554  0.5388
  186bbb     H7 5561   6.904   2.206   6.771  0.0527  0.3069  1.5232
  186bbb     H8 5562   6.743   2.182   6.706  1.1592  2.6874  2.6573
  186bbb     C5 5563   6.562   1.966   6.591  0.0924 -0.8019  0.1797
  186bbb     H9 5564   6.616   2.060   6.571  1.7682 -1.5454  1.0054
  186bbb    H10 5565   6.475   1.997   6.651  0.0215  1.1391 -0.8246
  186bbb     C6 5566   6.730   1.833   7.026  0.0998  0.1883 -1.1131
  186bbb    H11 5567   6.651   1.903   7.056  0.7292 -0.3220  2.0813
  186bbb    H12 5568   6.824   1.885   7.048  0.4499  0.1781 -2.4864
  186bbb     C7 5569   6.905   2.104   6.583  0.1228 -0.1259 -0.0625
  186bbb    H13 5570   6.880   2.000   6.560 -2.0683  0.5841 -1.1172
  186bbb    H14 5571   7.015   2.101   6.588  0.1912 -2.3283 -1.4756
  186bbb     C8 5572   6.706   1.703   7.106  0.4513 -0.3726 -0.0160
  186bbb    H15 5573   6.766   1.619   7.069  0.9766 -0.0703  0.1412
  186bbb    H16 5574   6.729   1.720   7.212 -2.2950 -1.9108  0.9427
  186bbb     C9 5575   6.527   1.905   6.457  0.5326  0.3629 -0.8362
  186bbb    H17 5576   6.616   1.867   6.405  0.1665 -0.7356 -0.6864
  186bbb    H18 5577   6.486   1.979   6.388 -0.7808  0.3483 -0.0992
  186bbb     O1 5578   6.855   2.198   6.478  0.0845  0.5689  0.1332
  186bbb    H19 5579   6.617   1.976   6.845 -1.0443  1.4568 -2.8206
  187bbb     N1 5580   6.647   0.594   5.049 -0.5892 -0.5906 -0.3839
  187bbb     C1 5581   6.643   0.479   4.954 -0.5800  0.0724 -0.0285
  187bbb     H1 5582   6.710   0.399   4.985 -0.1623  0.4406  0.0189
  187bbb     H2 5583   6.670   0.509   4.853 -0.0911 -1.9316 -0.5272
  187bbb     C2 5584   6.794   0.612   5.083 -0.4700 -0.7526 -0.1670
  187bbb     H3 5585   6.811   0.715   5.113 -0.9598 -0.2641 -1.5061
  187bbb     H4 5586   6.851   0.607   4.990  0.5762  1.3743  0.2997
  187bbb     C3 5587   6.603   0.728   4.994 -1.0314 -0.6962  0.8764
  187bbb     H5 5588   6.572   0.709   4.891 -0.7960  2.2232  0.1898
  187bbb     H6 5589   6.681   0.804   4.988 -1.7727 -0.0293 -1.4008
  187bbb     C4 5590   6.479   0.793   5.057  0.7572 -0.0778  0.0321
  187bbb     H7 5591   6.397   0.721   5.047 -1.0167  1.8645 -0.0249
  187bbb     H8 5592   6.454   0.879   4.994  0.6441 -1.1024 -1.3844
  187bbb     C5 5593   6.505   0.413   4.958  0.0449  0.5491 -1.0774
  187bbb     H9 5594   6.436   0.486   4.914  1.7055  2.9033 -0.0247
  187bbb    H10 5595   6.475   0.400   5.063 -1.0405 -1.5854 -1.6056
  187bbb     C6 5596   6.856   0.505   5.176  0.2499  0.5486 -0.2669
  187bbb    H11 5597   6.963   0.523   5.194  0.1217  0.2715  0.8349
  187bbb    H12 5598   6.847   0.413   5.118  0.5292  1.5100 -1.9222
  187bbb     C7 5599   6.490   0.834   5.208  0.2878 -0.3847  0.0006
  187bbb    H13 5600   6.500   0.737   5.257 -1.2374 -1.1852 -1.1851
  187bbb    H14 5601   6.397   0.884   5.236  0.9732  0.7619  0.3137
  187bbb     C8 5602   6.777   0.502   5.309  0.2276 -0.6571  0.2503
  187bbb    H15 5603   6.825   0.423   5.368  0.5494 -1.1255 -0.6315
  187bbb    H16 5604   6.782   0.593   5.370 -2.5789 -2.1814  3.1103
  187bbb     C9 5605   6.496   0.272   4.892 -0.4966 -0.8392  0.5422
  187bbb    H17 5606   6.529   0.275   4.787  2.1353  1.6370  1.3156
  187bbb    H18 5607   6.395   0.229   4.894 -0.8589  0.0191  1.3830
  187bbb     O1 5608   6.604   0.926   5.226  0.3492 -0.1798  0.0634
  187bbb    H19 5609   6.596   0.564   5.133  0.8157  1.4881  1.3040
  188bbb     N1 5610   7.005   0.859   5.848 -0.1291 -0.1252  0.0556
  188bbb     C1 5611   6.865   0.828   5.803  0.3590 -0.5461  0.7862
  188bbb     H1 5612   6.814   0.748   5.858 -1.2215 -1.6009 -1.9861
  188bbb     H2 5613   6.867   0.795   5.699 -1.3457  1.4230  0.0523
  188bbb     C2 5614   7.091   0.734   5.831  0.1099 -0.0472 -0.0352
  188bbb     H3 5615   7.186   0.754   5.880  1.7692  0.6488 -3.2151
  188bbb     H4 5616   7.112   0.712   5.726 -0.2289 -0.3350 -0.0443
  188bbb     C3 5617   7.072   0.967   5.776  0.2321 -1.2873  0.0469
  188bbb     H5 5618   7.165   0.978   5.831 -0.2411  0.7245  0.5240
  188bbb     H6 5619   7.020   1.060   5.800  0.2661 -0.7141 -1.9849
  188bbb     C4 5620   7.111   0.963   5.632  0.6008 -0.1675  0.5893
  188bbb     H7 5621   7.029   0.935   5.565  0.5515 -0.2693  0.6920
  188bbb     H8 5622   7.193   0.891   5.621 -0.1372 -0.8406 -0.8068
  188bbb     C5 5623   6.763   0.947   5.813  0.0361 -0.4460  0.3238
  188bbb     H9 5624   6.665   0.917   5.773  0.3799  0.0132 -0.9205
  188bbb    H10 5625   6.797   1.035   5.758 -2.4901 -0.0211 -0.7297
  188bbb     C6 5626   7.047   0.598   5.886  0.0900 -0.5381  0.2341
  188bbb    H11 5627   7.128   0.525   5.882 -0.0014 -0.6421  0.2997
  188bbb    H12 5628   6.967   0.559   5.822  0.7865 -1.4984 -0.0789
  188bbb     C7 5629   7.163   1.103   5.599 -0.1345 -0.4815 -0.3506
  188bbb    H13 5630   7.191   1.103   5.493  0.0386 -2.1512 -0.3325
  188bbb    H14 5631   7.257   1.127   5.651 -0.1976  1.6220 -1.0777
  188bbb     C8 5632   6.991   0.608   6.026  0.7144 -0.5163  0.2231
  188bbb    H15 5633   6.896   0.663   6.024  1.1324  0.2002 -0.9889
  188bbb    H16 5634   6.970   0.504   6.050  1.2979 -0.3592  1.4664
  188bbb     C9 5635   6.743   0.984   5.959 -0.3929 -0.1394  0.0592
  188bbb    H17 5636   6.667   1.063   5.960 -0.9789 -0.6808 -0.3917
  188bbb    H18 5637   6.835   1.026   6.000 -1.2108  1.4519  0.3482
  188bbb     O1 5638   7.068   1.213   5.618  0.6186  0.4577 -0.0017
  188bbb    H19 5639   6.989   0.894   5.943 -1.4400  3.4768 -1.3113
  189bbb     N1 5640   7.793   0.710   4.732 -0.1815  0.3051 -0.1339
  189bbb     C1 5641   7.884   0.593   4.755  0.3103 -0.4526  0.2583
  189bbb     H1 5642   7.982   0.633   4.729 -1.3973  2.3131 -2.5076
  189bbb     H2 5643   7.855   0.515   4.685  0.0086  0.1426 -0.2864
  189bbb     C2 5644   7.650   0.668   4.759  0.1293 -0.7012 -0.6977
  189bbb     H3 5645   7.602   0.745   4.818  1.0394 -1.1106  0.6287
  189bbb     H4 5646   7.644   0.577   4.819  0.0986 -1.5345 -1.9288
  189bbb     C3 5647   7.835   0.824   4.833 -0.4106 -0.4591 -0.1394
  189bbb     H5 5648   7.859   0.794   4.935  0.5804 -0.2149 -0.2879
  189bbb     H6 5649   7.759   0.902   4.844 -0.1190  0.0197 -1.3462
  189bbb     C4 5650   7.972   0.898   4.797  0.4241 -0.3667 -0.1939
  189bbb     H7 5651   7.965   0.924   4.690 -0.3679 -0.0709 -0.0799
  189bbb     H8 5652   8.052   0.828   4.825  0.0231 -0.2710  1.2753
  189bbb     C5 5653   7.894   0.533   4.903 -0.0875  0.2717  0.4354
  189bbb     H9 5654   7.794   0.523   4.946 -0.3758 -2.3362 -0.6167
  189bbb    H10 5655   7.955   0.601   4.964  0.5525 -0.2379  0.3808
  189bbb     C6 5656   7.552   0.621   4.645 -0.1616  0.0450 -0.5321
  189bbb    H11 5657   7.550   0.699   4.567  1.9648  0.7681  0.0420
  189bbb    H12 5658   7.453   0.615   4.691 -0.0172 -0.2128 -0.2485
  189bbb     C7 5659   7.997   1.038   4.862  0.4901  0.5606  0.0094
  189bbb    H13 5660   8.100   1.061   4.833  0.2695  3.2843  1.0744
  189bbb    H14 5661   7.996   1.031   4.971 -3.8305 -2.0107  0.0381
  189bbb     C8 5662   7.595   0.484   4.591  0.4074  0.2212  0.2847
  189bbb    H15 5663   7.694   0.498   4.545 -0.0917 -2.2828 -1.8355
  189bbb    H16 5664   7.599   0.414   4.675  2.4088 -0.1695 -0.0721
  189bbb     C9 5665   7.961   0.391   4.896  0.9702  0.7498 -0.1425
  189bbb    H17 5666   7.906   0.318   4.835  2.2807  0.4215 -0.9656
  189bbb    H18 5667   7.953   0.351   4.998 -0.5676  1.6234  0.1049
  189bbb     O1 5668   7.898   1.131   4.805  0.1958  0.6353 -0.0459
  189bbb    H19 5669   7.797   0.749   4.637  1.7021  1.2524  0.2801
  190bbb     N1 5670   7.073   1.200   4.414  0.1943  0.0504 -0.0876
  190bbb     C1 5671   7.099   1.349   4.430 -0.3799 -0.1502 -0.2015
  190bbb     H1 5672   7.186   1.380   4.372 -1.7562 -0.3236 -2.4959
  190bbb     H2 5673   7.126   1.364   4.535  1.0687 -0.9869 -0.4228
  190bbb     C2 5674   7.143   1.158   4.288  0.1816 -0.2870 -0.4366
  190bbb     H3 5675   7.246   1.149   4.321  0.1372  1.0445  0.1281
  190bbb     H4 5676   7.135   1.242   4.219  1.5142  0.3562  0.1722
  190bbb     C3 5677   7.128   1.112   4.536 -0.1214  0.0283  0.1194
  190bbb     H5 5678   7.224   1.155   4.564 -0.2809  0.0555  0.6363
  190bbb     H6 5679   7.156   1.018   4.489  2.7330  0.8326  0.0286
  190bbb     C4 5680   7.030   1.086   4.653  0.4835 -0.0386 -0.1000
  190bbb     H7 5681   7.079   1.014   4.721  0.5774  1.0940  1.0715
  190bbb     H8 5682   6.932   1.053   4.616  1.1239 -1.3591 -0.7032
  190bbb     C5 5683   6.982   1.438   4.378  0.3590 -0.2115  0.6635
  190bbb     H9 5684   6.962   1.408   4.275 -0.4166 -1.7403  1.2266
  190bbb    H10 5685   6.998   1.546   4.387  2.1583 -0.3562 -0.2400
  190bbb     C6 5686   7.108   1.026   4.215 -0.2151  0.4092 -0.5261
  190bbb    H11 5687   7.121   0.943   4.285  0.8737 -0.1240 -1.3266
  190bbb    H12 5688   7.184   1.011   4.137 -0.3945 -3.3422 -0.1348
  190bbb     C7 5689   6.996   1.214   4.737 -0.0190  0.0906 -0.7961
  190bbb    H13 5690   6.934   1.189   4.823 -0.4184 -2.3972 -1.7481
  190bbb    H14 5691   6.926   1.280   4.683  0.9310  2.1395  0.3382
  190bbb     C8 5692   6.962   1.018   4.159 -0.0436  0.4611  0.5769
  190bbb    H15 5693   6.948   0.924   4.104 -0.4035  0.3859  0.8012
  190bbb    H16 5694   6.886   1.017   4.237 -1.3177  0.3301 -0.6242
  190bbb     C9 5695   6.847   1.410   4.454  0.5734 -0.8495 -0.3278
  190bbb    H17 5696   6.764   1.471   4.419 -1.3616 -3.1198  0.0617
  190bbb    H18 5697   6.857   1.417   4.563  0.4442  1.3686 -0.4060
  190bbb     O1 5698   7.116   1.284   4.771 -0.7514  0.1531 -0.0920
  190bbb    H19 5699   6.971   1.190   4.409 -0.0420  1.0925  1.5785
  191bbb     N1 5700   2.204   6.014   2.159 -0.2034  0.6653  0.5035
  191bbb     C1 5701   2.294   5.905   2.115  0.3442 -0.1953  0.2361
  191bbb     H1 5702   2.329   5.854   2.205  2.1788 -1.9900 -1.3971
  191bbb     H2 5703   2.385   5.951   2.079  0.8563  0.1795  1.9023
  191bbb     C2 5704   2.254   6.052   2.299 -0.0409  0.3660 -0.0248
  191bbb     H3 5705   2.296   6.152   2.282 -0.6841  0.3396 -2.0485
  191bbb     H4 5706   2.335   5.982   2.321 -0.6241 -0.8532 -1.5283
  191bbb     C3 5707   2.236   6.121   2.054 -0.1836 -0.4976  0.1030
  191bbb     H5 5708   2.227   6.078   1.954 -2.8443 -3.7101  1.5383
  191bbb     H6 5709   2.331   6.171   2.072 -0.4738  0.5374 -1.0741
  191bbb     C4 5710   2.133   6.240   2.063 -0.3222  0.3085 -0.2349
  191bbb     H7 5711   2.155   6.318   1.990  1.8954 -0.6196 -0.6429
  191bbb     H8 5712   2.149   6.282   2.164  1.3019 -3.7797  1.4334
  191bbb     C5 5713   2.234   5.801   2.016  0.0261 -0.1600 -0.4700
  191bbb     H9 5714   2.316   5.734   1.985  1.3594  0.6944  1.0344
  191bbb    H10 5715   2.220   5.866   1.929  2.2160 -0.3869 -1.0532
  191bbb     C6 5716   2.150   6.044   2.408  0.5918 -0.3646  0.0619
  191bbb    H11 5717   2.075   6.118   2.378  1.7704  1.7241  1.8995
  191bbb    H12 5718   2.199   6.071   2.503  1.1977 -0.8052 -0.1169
  191bbb     C7 5719   1.989   6.201   2.033 -0.3525 -0.1164 -0.7754
  191bbb    H13 5720   1.981   6.173   1.928  0.2052 -0.9806 -0.6002
  191bbb    H14 5721   1.938   6.297   2.046  2.3307  1.2654  0.4966
  191bbb     C8 5722   2.102   5.903   2.436 -0.8830 -0.0187  0.4201
  191bbb    H15 5723   2.042   5.896   2.528 -0.8586  1.8456  0.6035
  191bbb    H16 5724   2.037   5.873   2.353 -2.0882  2.4304  0.3975
  191bbb     C9 5725   2.101   5.736   2.060 -0.1548  0.2804  0.4210
  191bbb    H17 5726   2.072   5.668   1.979 -0.8369  1.7665 -0.6355
  191bbb    H18 5727   2.020   5.810   2.070  0.7246  1.7309 -2.3327
  191bbb     O1 5728   1.941   6.101   2.128  0.1033 -0.1110  0.1636
  191bbb    H19 5729   2.105   5.984   2.149  0.0758 -0.5954  1.3379
  192bbb     N1 5730   0.947   6.515   2.511 -0.6773 -0.0348  0.3097
  192bbb     C1 5731   0.839   6.514   2.406 -0.4454  0.0727 -0.3635
  192bbb     H1 5732   0.880   6.483   2.310 -0.9072 -0.4234 -0.4033
  192bbb     H2 5733   0.817   6.620   2.390 -0.6765  0.3467  1.5293
  192bbb     C2 5734   0.892   6.566   2.641  0.2965  0.2561 -0.0716
  192bbb     H3 5735   0.972   6.582   2.713 -1.4986 -0.0790  2.1264
  192bbb     H4 5736   0.813   6.501   2.681  0.9931 -0.8137 -0.3937
  192bbb     C3 5737   1.006   6.373   2.527  0.5295 -0.0167 -0.3993
  192bbb     H5 5738   0.932   6.316   2.584  0.3506 -0.9582 -1.5381
  192bbb     H6 5739   1.095   6.375   2.589  0.9466  2.1985 -0.9765
  192bbb     C4 5740   1.056   6.307   2.402 -0.3877 -0.4357 -0.4945
  192bbb     H7 5741   1.116   6.369   2.334  0.6315 -1.2130 -0.3154
  192bbb     H8 5742   0.974   6.291   2.330  0.2754  2.5100 -2.0819
  192bbb     C5 5743   0.716   6.426   2.434 -0.3165  0.2405 -0.0444
  192bbb     H9 5744   0.672   6.480   2.518  1.6231 -0.0304  1.2016
  192bbb    H10 5745   0.749   6.323   2.451  0.3507  0.6209  1.0983
  192bbb     C6 5746   0.839   6.703   2.630 -0.1614 -0.5066 -0.5267
  192bbb    H11 5747   0.750   6.701   2.566 -0.4115 -2.6412 -0.1904
  192bbb    H12 5748   0.919   6.762   2.584  0.2830  0.5891  1.5082
  192bbb     C7 5749   1.130   6.171   2.429  0.4448  0.5738  0.1975
  192bbb    H13 5750   1.165   6.121   2.338 -1.6317 -1.3111  0.3651
  192bbb    H14 5751   1.060   6.101   2.475  0.0505  0.6682 -0.2462
  192bbb     C8 5752   0.792   6.779   2.764  0.3349 -0.2808  0.5740
  192bbb    H15 5753   0.761   6.881   2.740  0.1743  0.0040  1.9276
  192bbb    H16 5754   0.704   6.728   2.804 -0.0777 -0.1543 -0.1508
  192bbb     C9 5755   0.621   6.431   2.313 -0.0559 -0.6940 -0.3957
  192bbb    H17 5756   0.548   6.349   2.326  2.0741 -2.5048  0.9001
  192bbb    H18 5757   0.677   6.422   2.219  0.9554  0.3223  0.1029
  192bbb     O1 5758   1.241   6.187   2.522  0.6436  0.4936 -0.0751
  192bbb    H19 5759   1.025   6.578   2.488 -0.7596 -0.1551 -0.3163
  193bbb     N1 5760   1.249   7.239   1.913 -1.2229 -0.4743 -0.1877
  193bbb     C1 5761   1.165   7.365   1.934 -0.1173 -0.4450  0.7543
  193bbb     H1 5762   1.236   7.447   1.940 -0.5702  0.1699 -1.4279
  193bbb     H2 5763   1.125   7.350   2.034  0.1137  1.2861  1.1339
  193bbb     C2 5764   1.310   7.256   1.774 -0.1966 -0.5033  0.0963
  193bbb     H3 5765   1.403   7.313   1.776 -0.4447 -0.1155  1.2207
  193bbb     H4 5766   1.247   7.323   1.716  0.2150 -1.0098 -0.9786
  193bbb     C3 5767   1.351   7.236   2.027 -1.0286 -1.0025  0.1095
  193bbb     H5 5768   1.407   7.330   2.025 -2.1842 -0.2847  0.6092
  193bbb     H6 5769   1.417   7.149   2.021  0.2804 -0.0315 -0.1294
  193bbb     C4 5770   1.287   7.232   2.169  0.1307 -0.5810  0.1034
  193bbb     H7 5771   1.211   7.154   2.178 -0.2482 -0.2204  0.0258
  193bbb     H8 5772   1.234   7.327   2.187 -0.5218 -0.8029 -0.6059
  193bbb     C5 5773   1.042   7.400   1.845 -0.3197  1.0692 -0.0057
  193bbb     H9 5774   1.075   7.449   1.752 -1.0399  2.0347  0.2376
  193bbb    H10 5775   0.980   7.469   1.902 -0.4398  0.4383  0.6385
  193bbb     C6 5776   1.327   7.131   1.677  0.5940 -0.3811 -0.0644
  193bbb    H11 5777   1.245   7.060   1.699 -0.4803  1.6686  3.2674
  193bbb    H12 5778   1.427   7.087   1.692 -0.2552 -2.3863  0.1422
  193bbb     C7 5779   1.388   7.224   2.283 -0.0320  0.0007 -0.0625
  193bbb    H13 5780   1.337   7.236   2.379  0.3555 -2.8956  0.6024
  193bbb    H14 5781   1.444   7.317   2.273  0.0507 -0.0262  0.1440
  193bbb     C8 5782   1.316   7.163   1.524  0.0759 -0.2471 -0.5492
  193bbb    H15 5783   1.407   7.187   1.469 -1.9494 -1.7390 -5.0555
  193bbb    H16 5784   1.279   7.069   1.481 -0.5324 -0.2718  0.0022
  193bbb     C9 5785   0.952   7.283   1.807 -0.2086 -0.3360 -0.0661
  193bbb    H17 5786   0.989   7.213   1.731  0.1732 -0.3185  0.1043
  193bbb    H18 5787   0.862   7.334   1.770 -0.2469  0.3691  0.9522
  193bbb     O1 5788   1.472   7.106   2.282 -0.3192  0.0473  0.2209
  193bbb    H19 5789   1.185   7.159   1.923 -1.6599  0.0606  1.7660
  194bbb     N1 5790   2.038   7.184   1.449 -0.0376 -0.3811 -0.4115
  194bbb     C1 5791   2.152   7.288   1.469 -0.3128 -0.0086 -0.4335
  194bbb     H1 5792   2.228   7.231   1.522 -1.0349 -0.1455  0.4840
  194bbb     H2 5793   2.114   7.366   1.535 -1.1520 -0.7717  0.0061
  194bbb     C2 5794   2.094   7.045   1.441  0.6473 -0.0142 -0.7818
  194bbb     H3 5795   2.007   6.982   1.455  1.7788 -1.4224  0.2365
  194bbb     H4 5796   2.167   7.037   1.522  0.1194  3.8818  0.3001
  194bbb     C3 5797   1.937   7.187   1.562 -1.1842 -0.0868 -0.0706
  194bbb     H5 5798   1.991   7.178   1.656 -2.9036 -1.3909  0.8430
  194bbb     H6 5799   1.871   7.102   1.545  0.3532 -1.5293  0.8236
  194bbb     C4 5800   1.842   7.306   1.563 -0.6257 -0.5034 -1.3500
  194bbb     H7 5801   1.834   7.337   1.458  1.0970 -0.8830 -1.6238
  194bbb     H8 5802   1.891   7.388   1.618  0.7977 -0.7948 -2.1376
  194bbb     C5 5803   2.207   7.361   1.343 -0.0088 -0.1014  0.5115
  194bbb     H9 5804   2.123   7.410   1.292  0.0849 -1.2985 -0.8619
  194bbb    H10 5805   2.234   7.285   1.268  0.0551  1.0618 -0.6796
  194bbb     C6 5806   2.154   7.007   1.308  0.3184 -0.1082 -0.1263
  194bbb    H11 5807   2.168   6.899   1.314 -3.5151 -0.8803 -2.0065
  194bbb    H12 5808   2.249   7.056   1.281  1.3322 -1.2501  1.1787
  194bbb     C7 5809   1.697   7.283   1.624  0.1646  0.7684 -0.1700
  194bbb    H13 5810   1.656   7.193   1.576 -0.2690  0.0254  1.5080
  194bbb    H14 5811   1.635   7.371   1.601  0.2696  0.1666 -3.2138
  194bbb     C8 5812   2.046   7.012   1.197 -0.2017 -0.0352  0.3045
  194bbb    H15 5813   2.074   6.943   1.117  1.2303 -1.8826  2.2981
  194bbb    H16 5814   1.959   6.968   1.246  0.6009  0.0635  1.8947
  194bbb     C9 5815   2.325   7.450   1.374  0.0083 -0.2538  0.4302
  194bbb    H17 5816   2.298   7.509   1.462 -1.1549  0.4023 -0.3374
  194bbb    H18 5817   2.345   7.511   1.285  0.1102  0.0276  0.6460
  194bbb     O1 5818   1.699   7.248   1.766 -0.2164 -0.4577  0.5208
  194bbb    H19 5819   1.984   7.203   1.363 -1.3928  1.0204  0.6892
  195bbb     N1 5820   2.075   8.786   3.791 -0.6599  0.3137 -0.6695
  195bbb     C1 5821   2.223   8.815   3.749  0.2863 -0.0459 -0.6120
  195bbb     H1 5822   2.237   8.799   3.642 -0.7529  0.9497 -0.9193
  195bbb     H2 5823   2.287   8.739   3.794 -1.7880 -1.8339 -0.4717
  195bbb     C2 5824   1.983   8.907   3.751 -0.3883 -0.0625 -0.1091
  195bbb     H3 5825   2.020   8.931   3.651  0.4544 -0.1733  0.1643
  195bbb     H4 5826   2.021   8.991   3.810  2.6028  0.4702 -2.5124
  195bbb     C3 5827   2.016   8.658   3.737 -0.5789  1.1216  0.0305
  195bbb     H5 5828   2.047   8.649   3.632 -1.1089  1.1216 -0.1290
  195bbb     H6 5829   1.908   8.660   3.752 -0.6499  0.4930 -0.3571
  195bbb     C4 5830   2.064   8.527   3.801 -0.1055  0.0963 -0.4601
  195bbb     H7 5831   2.040   8.527   3.908  1.7507 -0.8860 -0.0042
  195bbb     H8 5832   2.172   8.521   3.785 -0.4417 -2.4146 -2.3384
  195bbb     C5 5833   2.280   8.948   3.791  0.3858 -0.4843 -0.4236
  195bbb     H9 5834   2.386   8.926   3.812  0.6733 -0.0674 -1.4168
  195bbb    H10 5835   2.244   8.973   3.892 -0.2477 -1.4668 -0.3864
  195bbb     C6 5836   1.827   8.883   3.757  0.0715  0.0627 -0.1704
  195bbb    H11 5837   1.802   8.817   3.841 -1.0532 -0.6635 -1.0418
  195bbb    H12 5838   1.801   8.833   3.663 -0.0304  0.5585 -0.4093
  195bbb     C7 5839   1.997   8.398   3.750  0.0185 -0.0917  0.4477
  195bbb    H13 5840   1.887   8.398   3.753 -0.0440 -2.0611 -0.1888
  195bbb    H14 5841   2.044   8.312   3.800  3.5576  0.7254 -1.1236
  195bbb     C8 5842   1.749   9.019   3.774 -0.1197  0.1031 -0.5153
  195bbb    H15 5843   1.665   9.023   3.704 -0.0694  0.9870 -0.5382
  195bbb    H16 5844   1.706   9.017   3.875 -0.4974 -0.2452 -0.6802
  195bbb     C9 5845   2.271   9.061   3.681  0.3071 -0.2852  0.0240
  195bbb    H17 5846   2.330   9.145   3.718 -2.8533  0.9822  2.6752
  195bbb    H18 5847   2.164   9.086   3.674  0.4689  0.3603 -0.2036
  195bbb     O1 5848   2.036   8.385   3.609  0.3692  0.8639 -0.0875
  195bbb    H19 5849   2.058   8.785   3.893 -1.4114  2.4843 -0.7330
  196bbb     N1 5850   1.478   8.394   2.887 -0.5164  0.3245  0.3103
  196bbb     C1 5851   1.519   8.540   2.900  0.2806  0.5749  0.6450
  196bbb     H1 5852   1.544   8.562   2.796  0.3397 -5.1956 -0.9105
  196bbb     H2 5853   1.611   8.549   2.958 -0.5486  0.3081  2.0495
  196bbb     C2 5854   1.345   8.381   2.802 -0.4493 -0.1421 -0.3303
  196bbb     H3 5855   1.263   8.407   2.869  0.4314 -0.9067  1.1257
  196bbb     H4 5856   1.345   8.277   2.771 -0.7375  0.2881 -1.8204
  196bbb     C3 5857   1.593   8.318   2.832  0.3620  0.6223  0.1670
  196bbb     H5 5858   1.631   8.364   2.741 -1.5356  0.8470 -0.5538
  196bbb     H6 5859   1.551   8.218   2.815 -0.8739  0.9579  1.0934
  196bbb     C4 5860   1.703   8.290   2.934 -0.2025  0.6879  0.7739
  196bbb     H7 5861   1.662   8.247   3.027 -0.7118  0.6952  0.5591
  196bbb     H8 5862   1.763   8.381   2.945 -1.4274  1.6556 -0.3627
  196bbb     C5 5863   1.417   8.640   2.953  0.3135  0.7534  0.4265
  196bbb     H9 5864   1.320   8.614   2.909  0.8381  1.0578 -0.9928
  196bbb    H10 5865   1.445   8.739   2.914  1.7452  0.5958  0.9873
  196bbb     C6 5866   1.341   8.472   2.670  0.0588 -0.0784  0.0582
  196bbb    H11 5867   1.401   8.564   2.668 -3.2547  2.2053 -1.1762
  196bbb    H12 5868   1.240   8.512   2.661 -0.4569 -1.6864 -2.3440
  196bbb     C7 5869   1.816   8.184   2.901  0.8476  0.5642 -0.1949
  196bbb    H13 5870   1.880   8.215   2.817  0.2289 -2.4686 -1.9008
  196bbb    H14 5871   1.758   8.095   2.877 -2.0692  2.3627 -0.2930
  196bbb     C8 5872   1.366   8.384   2.544 -0.3416 -0.1368 -0.1693
  196bbb    H15 5873   1.288   8.308   2.530  0.2709 -1.4826  2.9585
  196bbb    H16 5874   1.382   8.452   2.459  0.9132  0.3543  0.4322
  196bbb     C9 5875   1.403   8.633   3.103 -0.0637 -0.4759  0.7531
  196bbb    H17 5876   1.343   8.718   3.138 -0.3826 -0.7381  0.8549
  196bbb    H18 5877   1.502   8.650   3.147  0.4654  0.3108 -0.6962
  196bbb     O1 5878   1.893   8.151   3.015  0.3393  0.0427  0.1503
  196bbb    H19 5879   1.453   8.354   2.978 -2.2823 -1.2148 -0.7826
  197bbb     N1 5880   0.982   7.548   3.552 -0.2161  0.6383  0.2015
  197bbb     C1 5881   0.958   7.584   3.402 -0.3859 -0.3173 -1.0769
  197bbb     H1 5882   1.057   7.565   3.360 -0.4958  2.0132 -2.6103
  197bbb     H2 5883   0.932   7.690   3.394  2.2058  0.5542  0.6204
  197bbb     C2 5884   0.871   7.596   3.648  0.1684  0.4851 -0.4500
  197bbb     H3 5885   0.903   7.576   3.751 -0.6360 -0.3722 -0.3453
  197bbb     H4 5886   0.775   7.547   3.632  1.1455 -1.2380 -1.3267
  197bbb     C3 5887   0.998   7.397   3.562  0.5546 -0.3485 -0.1545
  197bbb     H5 5888   1.066   7.365   3.484  1.2567  2.4609 -0.7962
  197bbb     H6 5889   0.900   7.357   3.533 -0.1467  2.1343 -1.4956
  197bbb     C4 5890   1.027   7.352   3.696 -0.4472  0.3849 -0.1551
  197bbb     H7 5891   0.936   7.324   3.752  0.7354 -0.3966  1.4560
  197bbb     H8 5892   1.062   7.433   3.761  0.8959 -1.0832  1.0489
  197bbb     C5 5893   0.859   7.510   3.305 -0.3918 -0.8490 -1.0718
  197bbb     H9 5894   0.760   7.521   3.352  0.3438  1.5142  0.0369
  197bbb    H10 5895   0.878   7.403   3.289  2.4196 -0.0866 -3.5155
  197bbb     C6 5896   0.847   7.746   3.634 -0.2949 -0.2542 -0.1009
  197bbb    H11 5897   0.794   7.775   3.543 -0.3178 -1.3970 -0.4748
  197bbb    H12 5898   0.949   7.785   3.623 -0.1235 -1.0330 -1.4710
  197bbb     C7 5899   1.133   7.242   3.703 -0.0907  0.2587  0.6144
  197bbb    H13 5900   1.092   7.153   3.654  0.4740  0.4365 -0.1899
  197bbb    H14 5901   1.150   7.210   3.807  1.6596 -1.5748 -0.1673
  197bbb     C8 5902   0.764   7.793   3.757 -0.2220  0.0140 -0.4547
  197bbb    H15 5903   0.794   7.897   3.775  2.2507 -0.4809 -1.4040
  197bbb    H16 5904   0.655   7.791   3.741 -0.3390  0.7324  0.1668
  197bbb     C9 5905   0.847   7.570   3.167 -0.1387  0.1710  0.4414
  197bbb    H17 5906   0.793   7.665   3.171  0.9861  0.8121  0.5641
  197bbb    H18 5907   0.793   7.505   3.097 -1.9778  1.1822  0.8615
  197bbb     O1 5908   1.253   7.289   3.632 -0.2988 -0.1298  0.5326
  197bbb    H19 5909   1.070   7.596   3.574 -1.6167  3.1643  0.7341
  198bbb     N1 5910   1.218   6.710   3.493  0.1010 -0.4545  0.0710
  198bbb     C1 5911   1.233   6.736   3.643  0.0592  0.4837  0.2338
  198bbb     H1 5912   1.335   6.761   3.671  1.0997 -4.4569  2.0133
  198bbb     H2 5913   1.237   6.640   3.696  1.0375  0.8949  0.9217
  198bbb     C2 5914   1.079   6.658   3.462 -0.4076 -0.3803 -0.1084
  198bbb     H3 5915   1.073   6.645   3.354 -0.3180 -0.1670 -0.1395
  198bbb     H4 5916   1.002   6.733   3.483  0.3443  0.3192  0.2073
  198bbb     C3 5917   1.237   6.833   3.406  0.3631 -0.2909  0.3170
  198bbb     H5 5918   1.179   6.914   3.450 -0.6920 -1.2325  0.7225
  198bbb     H6 5919   1.188   6.802   3.314 -1.1888 -0.7792  1.2756
  198bbb     C4 5920   1.378   6.873   3.380  0.1237  0.7123 -0.2476
  198bbb     H7 5921   1.445   6.793   3.346  0.6015  0.7780  0.5215
  198bbb     H8 5922   1.427   6.907   3.472  1.0313  0.3187 -0.5800
  198bbb     C5 5923   1.143   6.843   3.716 -0.2541 -0.0735  0.7348
  198bbb     H9 5924   1.040   6.833   3.680 -0.6030  1.4745  1.2247
  198bbb    H10 5925   1.158   6.945   3.678  1.9071 -0.3088  0.8581
  198bbb     C6 5926   1.032   6.527   3.532 -0.7349  0.3770 -0.7999
  198bbb    H11 5927   0.935   6.501   3.489  1.1902 -3.5833 -3.3964
  198bbb    H12 5928   1.033   6.540   3.641 -1.8350  0.0492 -0.7364
  198bbb     C7 5929   1.379   6.989   3.281  0.1736 -0.0026  0.1039
  198bbb    H13 5930   1.310   7.068   3.311  2.3559  1.3026  2.0095
  198bbb    H14 5931   1.342   6.958   3.182 -3.3936  2.3757  0.5333
  198bbb     C8 5932   1.109   6.397   3.495  0.5117  0.0717  0.0914
  198bbb    H15 5933   1.062   6.308   3.540  1.3607 -0.0453  0.7727
  198bbb    H16 5934   1.099   6.386   3.386 -0.3819 -1.2278  0.2776
  198bbb     C9 5935   1.151   6.829   3.867 -0.2746 -0.1188  0.8659
  198bbb    H17 5936   1.093   6.911   3.911  0.0004  1.3489 -1.3461
  198bbb    H18 5937   1.249   6.845   3.913 -0.1788 -0.5476  0.8164
  198bbb     O1 5938   1.508   7.049   3.282  0.3003 -0.0772 -0.2313
  198bbb    H19 5939   1.286   6.639   3.462  1.3229  1.6846 -2.5301
  199bbb     N1 5940   3.207   8.671   4.082 -0.2216  0.1233 -0.1828
  199bbb     C1 5941   3.203   8.667   4.229 -0.3839  0.2894 -0.4949
  199bbb     H1 5942   3.221   8.563   4.258 -0.2079  0.7278  1.0921
  199bbb     H2 5943   3.101   8.696   4.252 -0.4767 -0.5715  0.2652
  199bbb     C2 5944   3.084   8.617   4.021  0.1731  0.4192  0.3528
  199bbb     H3 5945   3.103   8.641   3.916  2.3440 -2.6350 -0.0864
  199bbb     H4 5946   2.993   8.671   4.049 -0.2514 -1.4765  3.0010
  199bbb     C3 5947   3.228   8.817   4.031  0.4904 -0.3677  0.0354
  199bbb     H5 5948   3.296   8.867   4.100  0.6039 -0.4402 -0.0240
  199bbb     H6 5949   3.131   8.867   4.035  0.9099  0.4062  1.1305
  199bbb     C4 5950   3.275   8.827   3.885 -0.3240  0.3617  0.3944
  199bbb     H7 5951   3.297   8.933   3.872 -1.0461  0.5786  0.8930
  199bbb     H8 5952   3.207   8.791   3.808  0.9711 -2.1039  0.2765
  199bbb     C5 5953   3.311   8.752   4.315  0.3620  0.5143  0.2070
  199bbb     H9 5954   3.300   8.861   4.316 -0.1188  0.5067 -1.5467
  199bbb    H10 5955   3.410   8.728   4.275 -0.1783 -0.4498 -0.5896
  199bbb     C6 5956   3.057   8.463   4.028 -0.2678 -0.1080 -0.0070
  199bbb    H11 5957   3.050   8.433   4.134 -1.6475  2.2234  0.6211
  199bbb    H12 5958   3.141   8.410   3.983 -0.5362  0.5872 -1.3588
  199bbb     C7 5959   3.403   8.740   3.861 -0.2149  0.1790  0.2623
  199bbb    H13 5960   3.486   8.767   3.927 -1.0041 -1.7269  2.1337
  199bbb    H14 5961   3.437   8.756   3.758 -2.6419  0.1556 -0.6081
  199bbb     C8 5962   2.925   8.424   3.964 -0.1336  0.5003  0.3273
  199bbb    H15 5963   2.918   8.315   3.963  1.1832  0.3949  0.9211
  199bbb    H16 5964   2.850   8.482   4.018  0.5114  0.2608  1.5013
  199bbb     C9 5965   3.300   8.709   4.460 -0.2825  0.9355  0.1346
  199bbb    H17 5966   3.195   8.705   4.489 -0.5498  0.1514 -0.8703
  199bbb    H18 5967   3.346   8.788   4.521 -1.1259  0.6259  1.1938
  199bbb     O1 5968   3.380   8.594   3.868 -0.1725  0.1093 -0.7632
  199bbb    H19 5969   3.286   8.615   4.047  0.1309  0.2487  0.3991
  200bbb     N1 5970   4.198   8.841   3.950  0.1833  0.2382  0.1045
  200bbb     C1 5971   4.215   8.697   3.990  0.0303 -0.6926  0.2637
  200bbb     H1 5972   4.244   8.654   3.894  0.2627  1.0274 -0.4784
  200bbb     H2 5973   4.123   8.649   4.022 -1.0881  1.1031 -0.1163
  200bbb     C2 5974   4.320   8.934   3.933 -0.0852  0.2584  0.0329
  200bbb     H3 5975   4.363   8.948   4.032 -1.3325  2.2183  0.3592
  200bbb     H4 5976   4.285   9.033   3.902  0.7267  1.3598  2.3720
  200bbb     C3 5977   4.123   8.841   3.820  0.0863 -0.0355  0.0736
  200bbb     H5 5978   4.045   8.765   3.824  0.1251 -0.0700  0.1598
  200bbb     H6 5979   4.190   8.808   3.740 -0.0760 -0.7054  0.2057
  200bbb     C4 5980   4.055   8.973   3.776  0.7621  0.1557  0.1828
  200bbb     H7 5981   4.134   9.043   3.748 -1.5039  1.8300 -2.5284
  200bbb     H8 5982   3.999   9.013   3.861  0.1446  2.6937 -1.3335
  200bbb     C5 5983   4.320   8.670   4.097  0.5184  0.0567 -0.3822
  200bbb     H9 5984   4.271   8.672   4.195  2.9811  0.2381  0.9007
  200bbb    H10 5985   4.393   8.751   4.095 -1.1897  1.6827 -0.0868
  200bbb     C6 5986   4.438   8.880   3.842 -0.2025 -0.8107  0.0059
  200bbb    H11 5987   4.418   8.902   3.736  2.7512 -0.9221 -0.6578
  200bbb    H12 5988   4.447   8.771   3.851  2.0337 -0.6418  0.3075
  200bbb     C7 5989   3.962   8.966   3.655  0.3076 -0.2101 -0.0325
  200bbb    H13 5990   4.028   8.957   3.569 -1.5986  0.8962 -1.6819
  200bbb    H14 5991   3.918   9.063   3.629  1.7955  0.1156 -1.4464
  200bbb     C8 5992   4.576   8.935   3.882  0.3242  0.2929 -0.3216
  200bbb    H15 5993   4.643   8.894   3.806  1.3130  2.4808 -0.6960
  200bbb    H16 5994   4.572   9.043   3.869  0.0097  0.8717  3.4825
  200bbb     C9 5995   4.396   8.544   4.071 -0.0751  0.2186  0.5082
  200bbb    H17 5996   4.329   8.460   4.050 -0.7102  0.6419  0.7990
  200bbb    H18 5997   4.455   8.525   4.162  0.9444 -1.1175 -0.3899
  200bbb     O1 5998   3.861   8.867   3.670 -0.0279  0.1524 -0.3079
  200bbb    H19 5999   4.126   8.877   4.014 -0.4700 -1.2249  0.2394
  201bbb     N1 6000   4.727   7.238   3.228 -0.0862 -0.4935  0.1632
  201bbb     C1 6001   4.870   7.279   3.196 -0.3717  0.3058 -0.4540
  201bbb     H1 6002   4.930   7.254   3.284  0.4647 -0.5174 -1.2425
  201bbb     H2 6003   4.862   7.387   3.180 -2.3001  0.2609 -0.1526
  201bbb     C2 6004   4.687   7.303   3.369 -0.2545  0.4319 -0.5525
  201bbb     H3 6005   4.579   7.288   3.373 -0.0212 -2.3586 -2.1024
  201bbb     H4 6006   4.706   7.409   3.354 -2.0470  0.5703 -2.2037
  201bbb     C3 6007   4.632   7.296   3.124 -0.2295  0.2227  0.2238
  201bbb     H5 6008   4.670   7.271   3.026 -1.3268  0.3334 -0.2511
  201bbb     H6 6009   4.625   7.404   3.136 -2.4103 -0.0698  2.4777
  201bbb     C4 6010   4.482   7.240   3.130 -0.1507 -0.1880 -0.4613
  201bbb     H7 6011   4.451   7.258   3.233  1.0724  2.1168 -0.4374
  201bbb     H8 6012   4.488   7.131   3.115 -0.1538 -0.0600 -1.4934
  201bbb     C5 6013   4.934   7.213   3.073 -0.4224 -0.9897  0.5596
  201bbb     H9 6014   4.876   7.225   2.981  0.0629  0.2574  0.3917
  201bbb    H10 6015   4.934   7.104   3.084  1.0853 -0.9450  1.3498
  201bbb     C6 6016   4.758   7.246   3.492 -0.9951 -0.4751  0.9401
  201bbb    H11 6017   4.847   7.308   3.509 -2.6206  2.6900 -1.0179
  201bbb    H12 6018   4.794   7.144   3.474 -0.1748 -0.0940  0.3653
  201bbb     C7 6019   4.381   7.319   3.038 -0.2031  0.0648 -0.4055
  201bbb    H13 6020   4.284   7.267   3.041 -0.4954  0.4507 -2.1110
  201bbb    H14 6021   4.418   7.331   2.935 -1.4725 -0.6043 -0.9606
  201bbb     C8 6022   4.651   7.244   3.611 -0.0888 -0.9932 -0.4550
  201bbb    H15 6023   4.697   7.216   3.706 -0.4112  2.2045  0.7832
  201bbb    H16 6024   4.619   7.348   3.623  1.6139 -0.6153  1.1933
  201bbb     C9 6025   5.075   7.260   3.048 -0.6190 -0.2777  0.1231
  201bbb    H17 6026   5.119   7.219   2.957 -0.0871  0.7730 -0.1155
  201bbb    H18 6027   5.139   7.227   3.130  0.5343  0.5160 -0.4239
  201bbb     O1 6028   4.361   7.444   3.106 -0.0484  0.3816 -0.2222
  201bbb    H19 6029   4.735   7.136   3.225  1.3470 -0.4399  0.9610
  202bbb     N1 6030   4.963   8.473   2.913 -0.5394  0.0055  0.0598
  202bbb     C1 6031   5.042   8.604   2.900 -0.4675  0.7202  0.0553
  202bbb     H1 6032   5.147   8.578   2.915  0.4791  3.6726 -0.7991
  202bbb     H2 6033   5.022   8.670   2.984  0.8651 -0.8937  1.7171
  202bbb     C2 6034   5.001   8.419   3.047 -0.2671 -0.6068  0.3112
  202bbb     H3 6035   4.946   8.325   3.039 -0.6520 -0.2291 -2.5509
  202bbb     H4 6036   4.959   8.483   3.124  0.5579 -0.1235  0.3793
  202bbb     C3 6037   4.815   8.509   2.924 -0.3795 -0.1104  0.6196
  202bbb     H5 6038   4.789   8.584   2.850 -0.8803  2.0247  2.8489
  202bbb     H6 6039   4.801   8.559   3.020  0.9307  2.9270 -0.6659
  202bbb     C4 6040   4.730   8.379   2.895 -0.0491  0.0111  0.4125
  202bbb     H7 6041   4.751   8.302   2.970 -1.8430 -1.6763 -0.7021
  202bbb     H8 6042   4.762   8.341   2.797 -2.1383  1.4329 -0.8953
  202bbb     C5 6043   5.027   8.679   2.769  0.0902  0.3575 -0.4854
  202bbb     H9 6044   5.104   8.757   2.758 -0.9643  1.2705 -1.7418
  202bbb    H10 6045   4.927   8.723   2.777 -0.8439 -1.8538  0.7306
  202bbb     C6 6046   5.156   8.394   3.071  0.9376  0.0943  0.5723
  202bbb    H11 6047   5.209   8.484   3.105  2.0595 -0.2781 -0.1295
  202bbb    H12 6048   5.200   8.360   2.976  1.7244  0.7730  0.6744
  202bbb     C7 6049   4.583   8.407   2.889  0.3925 -0.0325  0.2176
  202bbb    H13 6050   4.549   8.444   2.792 -0.0763 -0.9598  0.0147
  202bbb    H14 6051   4.559   8.480   2.967  0.5321 -0.0391  0.2674
  202bbb     C8 6052   5.159   8.282   3.173 -0.3709 -0.1202  0.3651
  202bbb    H15 6053   5.127   8.186   3.131 -1.1871 -0.6226  2.0707
  202bbb    H16 6054   5.261   8.270   3.211 -0.6027 -0.2036  0.9599
  202bbb     C9 6055   5.030   8.593   2.640 -0.1394  0.4169 -0.2136
  202bbb    H17 6056   4.998   8.659   2.559  3.3020  1.2475 -1.0363
  202bbb    H18 6057   4.950   8.518   2.632 -0.3422  0.6437 -0.2898
  202bbb     O1 6058   4.507   8.284   2.920 -0.1067  0.3195  0.1636
  202bbb    H19 6059   4.993   8.406   2.840 -1.2584 -0.8737  0.5476
  203bbb     N1 6060   3.244   8.527   2.449 -0.2475  0.2471  0.5528
  203bbb     C1 6061   3.101   8.460   2.436 -0.1849 -0.8008 -0.3622
  203bbb     H1 6062   3.037   8.534   2.484  0.7396  0.0388 -0.3953
  203bbb     H2 6063   3.098   8.368   2.495  0.1621 -1.4750 -1.3692
  203bbb     C2 6064   3.230   8.671   2.401  0.3794  0.1312  0.6546
  203bbb     H3 6065   3.180   8.669   2.304  1.2329  1.1298  0.1799
  203bbb     H4 6066   3.326   8.711   2.368 -0.6651  0.5861 -2.1079
  203bbb     C3 6067   3.288   8.508   2.587 -0.2568  0.6658 -0.5038
  203bbb     H5 6068   3.272   8.404   2.614 -3.8829  1.0023 -0.8027
  203bbb     H6 6069   3.221   8.564   2.654 -0.8223 -0.1578 -0.3571
  203bbb     C4 6070   3.432   8.554   2.613 -0.2289 -0.4386  0.4420
  203bbb     H7 6071   3.431   8.663   2.621 -1.1520 -0.4676  0.8242
  203bbb     H8 6072   3.491   8.540   2.522  0.9519  0.1709  1.0938
  203bbb     C5 6073   3.050   8.427   2.297 -0.0632 -0.2972  0.2597
  203bbb     H9 6074   3.080   8.324   2.273 -0.6599 -0.3746 -0.1855
  203bbb    H10 6075   3.090   8.494   2.221 -1.1316  0.2303  0.1428
  203bbb     C6 6076   3.153   8.765   2.493  0.0025  0.5586  0.2329
  203bbb    H11 6077   3.205   8.774   2.589  3.0788  0.8049 -1.3271
  203bbb    H12 6078   3.047   8.743   2.512 -0.5516  1.0446 -2.0397
  203bbb     C7 6079   3.496   8.502   2.736  0.9510  0.1621  0.0804
  203bbb    H13 6080   3.424   8.481   2.815  1.3640 -0.0992  0.3965
  203bbb    H14 6081   3.566   8.582   2.763  0.9887 -0.1312  0.8723
  203bbb     C8 6082   3.172   8.908   2.442  0.4090  0.4376 -0.1223
  203bbb    H15 6083   3.272   8.918   2.397 -0.0870  1.1880 -1.1092
  203bbb    H16 6084   3.101   8.921   2.360  0.3892 -0.2235 -0.2133
  203bbb     C9 6085   2.901   8.455   2.293  0.1868 -0.3064  0.2252
  203bbb    H17 6086   2.843   8.386   2.356 -1.3318 -1.6731 -2.4797
  203bbb    H18 6087   2.869   8.438   2.189  1.0806 -0.9162  0.0430
  203bbb     O1 6088   3.568   8.382   2.703 -0.4830 -0.0982  0.1867
  203bbb    H19 6089   3.305   8.477   2.383 -0.4607  0.4149  0.2238
  204bbb     N1 6090   3.652   8.022   1.848 -0.3740 -0.3909  0.1767
  204bbb     C1 6091   3.793   8.080   1.871  0.6282  0.1490 -1.0868
  204bbb     H1 6092   3.870   8.002   1.873  0.9577  0.4876  0.0797
  204bbb     H2 6093   3.782   8.122   1.971  1.6492  1.2854 -1.4342
  204bbb     C2 6094   3.641   7.975   1.707  0.3296  0.1185  0.1159
  204bbb     H3 6095   3.672   8.060   1.645  1.9106  1.8002  2.9832
  204bbb     H4 6096   3.534   7.963   1.695  0.3563  1.9227 -3.1836
  204bbb     C3 6097   3.621   7.903   1.940  0.4483  0.0230  0.3210
  204bbb     H5 6098   3.629   7.946   2.041  1.1987 -1.7015  1.0237
  204bbb     H6 6099   3.705   7.835   1.932  1.1218  1.0386 -1.9435
  204bbb     C4 6100   3.485   7.832   1.930  0.2755 -0.6899 -0.7492
  204bbb     H7 6101   3.461   7.820   1.824  1.0632  0.9551 -1.1409
  204bbb     H8 6102   3.405   7.902   1.955 -0.1761 -1.0020 -1.2826
  204bbb     C5 6103   3.840   8.179   1.767 -0.5738  1.0646 -0.3810
  204bbb     H9 6104   3.762   8.256   1.751 -1.9407  0.2283  1.8552
  204bbb    H10 6105   3.840   8.132   1.668  0.8493  0.5628 -0.1553
  204bbb     C6 6106   3.702   7.840   1.656 -0.2296  0.2243  0.3574
  204bbb    H11 6107   3.685   7.840   1.548  0.9043 -0.3800  0.1721
  204bbb    H12 6108   3.643   7.756   1.695 -1.2086  0.9386  0.4672
  204bbb     C7 6109   3.472   7.700   2.016 -0.1948 -1.1850  0.6080
  204bbb    H13 6110   3.513   7.611   1.968 -0.3279 -1.3926  0.8761
  204bbb    H14 6111   3.367   7.677   2.036 -0.4979 -1.8833 -1.6288
  204bbb     C8 6112   3.847   7.804   1.684  0.6142 -0.5839 -0.3394
  204bbb    H15 6113   3.871   7.799   1.791 -0.9012  0.9789  0.1119
  204bbb    H16 6114   3.858   7.698   1.655  1.0708 -0.8846  0.8330
  204bbb     C9 6115   3.983   8.240   1.794 -0.2435  0.2134  0.7942
  204bbb    H17 6116   4.035   8.270   1.702  1.4823 -1.9790  0.9606
  204bbb    H18 6117   4.056   8.173   1.842 -0.5303 -0.3409  0.4613
  204bbb     O1 6118   3.540   7.716   2.140 -0.0930  0.1779  0.0582
  204bbb    H19 6119   3.582   8.096   1.863 -0.3658 -0.3166 -0.1441
  205bbb     N1 6120   3.991   7.059   1.651  0.1176 -0.0503  0.8508
  205bbb     C1 6121   3.999   7.047   1.496 -0.1873 -0.2757 -0.0557
  205bbb     H1 6122   4.026   7.143   1.449 -0.0335 -0.9454 -1.3936
  205bbb     H2 6123   3.903   7.018   1.453 -0.2235  1.8146 -1.6045
  205bbb     C2 6124   4.121   7.136   1.691  0.0079  0.4757 -0.0704
  205bbb     H3 6125   4.108   7.233   1.643  1.1199  0.6390 -0.0816
  205bbb     H4 6126   4.205   7.093   1.635 -0.1644 -1.7338  1.2581
  205bbb     C3 6127   3.862   7.135   1.687 -0.5615  0.9003  0.2673
  205bbb     H5 6128   3.857   7.221   1.620  0.0565 -0.4611 -1.6282
  205bbb     H6 6129   3.874   7.164   1.792 -0.4333 -1.0953  0.8436
  205bbb     C4 6130   3.730   7.046   1.687 -0.5481  0.1385  0.6326
  205bbb     H7 6131   3.726   6.978   1.773 -2.0807 -0.9358 -0.2323
  205bbb     H8 6132   3.723   6.979   1.600 -3.9550 -0.8846  1.5520
  205bbb     C5 6133   4.101   6.950   1.431 -0.4016  0.5030  0.4816
  205bbb     H9 6134   4.095   6.850   1.475  1.9566 -1.2742 -2.8723
  205bbb    H10 6135   4.202   6.991   1.436  0.6357 -2.0017  1.1374
  205bbb     C6 6136   4.146   7.140   1.843 -0.3593 -0.1657 -0.3632
  205bbb    H11 6137   4.084   7.214   1.895  0.7880  1.6151 -1.4311
  205bbb    H12 6138   4.248   7.176   1.861  0.3919 -2.6836  0.9398
  205bbb     C7 6139   3.599   7.123   1.702  0.0029  0.0584  0.2445
  205bbb    H13 6140   3.506   7.065   1.701 -0.0860  0.2053 -0.1858
  205bbb    H14 6141   3.580   7.205   1.631 -0.0600 -0.8902 -0.8577
  205bbb     C8 6142   4.139   7.006   1.917 -0.4971  0.2730  0.3611
  205bbb    H15 6143   4.162   7.030   2.022  2.2853  1.9858 -0.5424
  205bbb    H16 6144   4.042   6.960   1.898  0.0474 -0.6162 -0.3636
  205bbb     C9 6145   4.059   6.932   1.288  0.0966 -0.1649  0.4757
  205bbb    H17 6146   4.114   6.843   1.255  2.7871  1.0568  1.3786
  205bbb    H18 6147   4.103   7.015   1.232  0.9204 -0.4337  0.7067
  205bbb     O1 6148   3.604   7.173   1.836 -0.5751 -0.0891  0.0161
  205bbb    H19 6149   3.986   6.968   1.699  1.9001 -0.2217  0.7739
  206bbb     N1 6150   3.103   6.529   1.567 -0.1962  0.3271  0.3046
  206bbb     C1 6151   2.950   6.528   1.572  0.2038  0.0768  0.5950
  206bbb     H1 6152   2.923   6.545   1.468  1.5285  0.1399  0.2357
  206bbb     H2 6153   2.924   6.614   1.633 -0.8722  0.3055 -0.1579
  206bbb     C2 6154   3.160   6.648   1.484  0.4533  0.1049 -0.0815
  206bbb     H3 6155   3.268   6.645   1.498  0.4294  1.0182  0.3698
  206bbb     H4 6156   3.117   6.731   1.540  2.3309 -0.3280  2.1396
  206bbb     C3 6157   3.159   6.535   1.707  0.5895  0.1826  0.1275
  206bbb     H5 6158   3.095   6.464   1.760 -0.8681 -0.1246 -1.9372
  206bbb     H6 6159   3.141   6.633   1.754  0.3655  0.1883  0.0324
  206bbb     C4 6160   3.303   6.485   1.723 -0.5398 -0.1753 -0.3573
  206bbb     H7 6161   3.373   6.535   1.655 -0.6996  0.6915  0.0903
  206bbb     H8 6162   3.312   6.380   1.694 -1.1601 -0.4725  0.4913
  206bbb     C5 6163   2.871   6.409   1.639  0.3114  0.3144 -0.2321
  206bbb     H9 6164   2.888   6.409   1.747 -1.5732  0.0896  0.0969
  206bbb    H10 6165   2.914   6.316   1.600 -1.1568  0.7255 -3.1658
  206bbb     C6 6166   3.125   6.663   1.334  0.4077  0.2271  0.4082
  206bbb    H11 6167   3.015   6.665   1.325  0.3245 -0.3571  1.2385
  206bbb    H12 6168   3.161   6.581   1.271 -1.0011 -0.2910  0.2432
  206bbb     C7 6169   3.356   6.511   1.868  0.1173 -0.5095 -0.6792
  206bbb    H13 6170   3.446   6.452   1.887  0.6467  0.2437 -0.7868
  206bbb    H14 6171   3.295   6.474   1.951  1.0889 -3.1547 -1.0514
  206bbb     C8 6172   3.155   6.797   1.263 -0.2599  0.0014  0.0816
  206bbb    H15 6173   3.260   6.825   1.280  0.3166 -1.4317 -0.9590
  206bbb    H16 6174   3.142   6.781   1.155 -1.2446  3.0796 -0.3505
  206bbb     C9 6175   2.719   6.415   1.589  0.3769  0.1270  0.3750
  206bbb    H17 6176   2.677   6.514   1.611 -1.8875 -0.0950 -2.3699
  206bbb    H18 6177   2.672   6.327   1.634 -0.5313  0.3235 -0.1609
  206bbb     O1 6178   3.366   6.654   1.888 -0.4508  0.1690  0.0392
  206bbb    H19 6179   3.133   6.441   1.523  0.8399  0.9532 -0.3090
  207bbb     N1 6180   1.085   5.520   3.952 -0.5341  0.4465  0.1080
  207bbb     C1 6181   1.026   5.400   4.015 -0.0875 -0.3788  0.0813
  207bbb     H1 6182   1.053   5.413   4.120  2.2080  0.3538 -0.5319
  207bbb     H2 6183   1.072   5.316   3.964  1.1444 -0.2962  0.9836
  207bbb     C2 6184   1.084   5.640   4.044 -0.3172 -0.0252 -0.4934
  207bbb     H3 6185   0.979   5.666   4.061 -0.4151 -0.9349  0.4107
  207bbb     H4 6186   1.118   5.723   3.981 -0.9866  2.1655  1.8575
  207bbb     C3 6187   1.229   5.487   3.915 -0.0016 -0.0298 -0.5041
  207bbb     H5 6188   1.231   5.392   3.863 -0.0049  0.2462 -1.0179
  207bbb     H6 6189   1.283   5.472   4.009 -0.5014  1.2758  0.0201
  207bbb     C4 6190   1.304   5.589   3.830 -0.1020  0.1363 -0.2962
  207bbb     H7 6191   1.290   5.692   3.866 -1.5602  0.3103 -1.2343
  207bbb     H8 6192   1.258   5.579   3.731  0.2066 -1.4690 -0.3029
  207bbb     C5 6193   0.871   5.390   3.998  0.7118 -0.2355 -0.0703
  207bbb     H9 6194   0.828   5.491   4.005  2.7646  0.6127  1.9101
  207bbb    H10 6195   0.829   5.333   4.082 -0.9215  0.2207 -0.5563
  207bbb     C6 6196   1.164   5.617   4.177 -0.3594 -0.1574 -0.4147
  207bbb    H11 6197   1.248   5.548   4.176  0.1897  0.4543  0.9478
  207bbb    H12 6198   1.085   5.579   4.243  1.9091 -0.2228  2.4157
  207bbb     C7 6199   1.452   5.566   3.819  0.3113 -0.1786  0.5954
  207bbb    H13 6200   1.499   5.563   3.918  2.8419 -0.2850 -0.5182
  207bbb    H14 6201   1.502   5.640   3.756 -1.1541 -0.7280 -1.3294
  207bbb     C8 6202   1.204   5.753   4.233  0.0879 -0.2988  0.0214
  207bbb    H15 6203   1.114   5.809   4.261  0.3495 -0.8448  2.1295
  207bbb    H16 6204   1.272   5.748   4.319  0.6939  1.3011 -0.3258
  207bbb     C9 6205   0.828   5.324   3.867 -0.0310 -0.2255  0.6967
  207bbb    H17 6206   0.721   5.300   3.866  0.2311 -1.6374  2.1711
  207bbb    H18 6207   0.870   5.223   3.854  0.0114  0.1412 -3.8800
  207bbb     O1 6208   1.476   5.433   3.759  0.1636  0.3682  0.0619
  207bbb    H19 6209   1.034   5.538   3.864  0.4346 -0.7186 -0.7157
  208bbb     N1 6210   0.916   4.715   3.895  1.0612 -0.2554  0.0661
  208bbb     C1 6211   0.898   4.560   3.934  0.2985  0.0869 -0.5918
  208bbb     H1 6212   0.796   4.529   3.913 -0.0309 -0.5184  1.6942
  208bbb     H2 6213   0.910   4.555   4.042 -2.6912  3.1633  0.0577
  208bbb     C2 6214   0.808   4.791   3.976  0.4018  0.2968 -0.2690
  208bbb     H3 6215   0.832   4.775   4.081 -1.5098  1.6707  0.4261
  208bbb     H4 6216   0.716   4.736   3.958  0.2634  0.2525  0.5468
  208bbb     C3 6217   1.053   4.773   3.922  0.4892 -0.3417  0.4634
  208bbb     H5 6218   1.060   4.875   3.883  0.9683 -0.6387 -0.2488
  208bbb     H6 6219   1.116   4.715   3.855 -3.0767 -1.2226 -2.4813
  208bbb     C4 6220   1.107   4.780   4.065 -0.4276  0.5048 -0.4815
  208bbb     H7 6221   1.101   4.678   4.106 -0.7462  0.1310 -1.4416
  208bbb     H8 6222   1.042   4.844   4.125  0.2247 -0.7335  1.6826
  208bbb     C5 6223   1.000   4.475   3.854  0.4396  0.1907  0.2290
  208bbb     H9 6224   1.102   4.487   3.892  0.3492  0.0997  0.5085
  208bbb    H10 6225   0.999   4.509   3.750  0.2863  0.9193  0.4617
  208bbb     C6 6226   0.793   4.936   3.959 -0.4433 -0.3470 -0.1794
  208bbb    H11 6227   0.756   4.968   3.860  0.4173  2.8657  0.4122
  208bbb    H12 6228   0.897   4.971   3.951 -0.0844 -0.9941  1.3302
  208bbb     C7 6229   1.259   4.834   4.064  0.1286 -0.4443 -0.0151
  208bbb    H13 6230   1.320   4.796   3.981  0.2956  0.0731 -0.1320
  208bbb    H14 6231   1.302   4.790   4.156  1.1372  1.2711  0.3758
  208bbb     C8 6232   0.722   5.009   4.077  0.3303  0.0347  0.1516
  208bbb    H15 6233   0.669   5.103   4.053  0.6726  0.3302  0.5431
  208bbb    H16 6234   0.646   4.945   4.124  0.3540 -0.0994  0.0054
  208bbb     C9 6235   0.987   4.326   3.880  0.7839  0.4867  0.5185
  208bbb    H17 6236   1.021   4.308   3.983 -1.7357 -1.4302  1.1086
  208bbb    H18 6237   1.050   4.256   3.823  0.5615  1.1965 -0.6457
  208bbb     O1 6238   1.264   4.984   4.067 -0.0435 -0.1315 -0.6124
  208bbb    H19 6239   0.893   4.728   3.795  0.8462  1.3314  0.3000
  209bbb     N1 6240   1.389   4.707   5.530 -0.5135 -0.6676 -0.3859
  209bbb     C1 6241   1.250   4.658   5.487 -0.4546  0.1333 -0.0086
  209bbb     H1 6242   1.171   4.715   5.536  0.7977 -0.1045  2.4325
  209bbb     H2 6243   1.238   4.560   5.534 -1.3710 -1.0089 -2.4482
  209bbb     C2 6244   1.414   4.736   5.684  0.5538 -0.2599  0.4035
  209bbb     H3 6245   1.519   4.763   5.695 -0.1633  3.2759 -0.1716
  209bbb     H4 6246   1.396   4.648   5.745 -0.3568  1.4888  2.8223
  209bbb     C3 6247   1.490   4.610   5.481 -0.1958  0.2425  0.1238
  209bbb     H5 6248   1.457   4.578   5.382 -0.0057  0.4166  0.0038
  209bbb     H6 6249   1.480   4.525   5.548  1.9379  0.6794  1.0809
  209bbb     C4 6250   1.631   4.663   5.469 -0.3125  0.0138  0.1564
  209bbb     H7 6251   1.701   4.579   5.484 -0.7979 -0.4212 -0.0182
  209bbb     H8 6252   1.657   4.740   5.543  1.9723  0.8203 -1.3832
  209bbb     C5 6253   1.220   4.637   5.336 -0.2508  0.1034 -0.7094
  209bbb     H9 6254   1.295   4.567   5.298  1.1795  1.3897 -0.3875
  209bbb    H10 6255   1.229   4.734   5.285 -1.4185  1.5051  1.5717
  209bbb     C6 6256   1.339   4.855   5.756  0.0610  0.0462 -0.3296
  209bbb    H11 6257   1.231   4.860   5.737 -0.1329  0.0498  0.7152
  209bbb    H12 6258   1.374   4.954   5.724  0.6952  0.0373  0.3217
  209bbb     C7 6259   1.671   4.722   5.328 -0.1296 -0.1479 -0.4656
  209bbb    H13 6260   1.765   4.778   5.336 -1.4763  2.2564 -0.5617
  209bbb    H14 6261   1.594   4.793   5.296 -0.5211 -0.6015 -0.5223
  209bbb     C8 6262   1.371   4.854   5.905 -0.3416 -0.3455 -0.0806
  209bbb    H15 6263   1.315   4.939   5.947  1.0045  1.3999 -1.6753
  209bbb    H16 6264   1.477   4.868   5.929 -0.5865  2.5795 -0.4378
  209bbb     C9 6265   1.076   4.577   5.320 -0.1483  0.3263  0.4391
  209bbb    H17 6266   1.070   4.474   5.358 -3.2972  0.5360  0.7872
  209bbb    H18 6267   1.063   4.572   5.211  0.4092  0.0676  0.3808
  209bbb     O1 6268   1.679   4.615   5.235  0.6041  0.1372 -0.1604
  209bbb    H19 6269   1.407   4.798   5.484  0.6310 -0.7234 -0.0833
  210bbb     N1 6270   1.225   4.518   4.699  0.2869 -0.3098 -0.0386
  210bbb     C1 6271   1.102   4.463   4.625 -0.2953 -0.2990  0.5628
  210bbb     H1 6272   1.130   4.401   4.540 -1.0313 -2.7226  1.9842
  210bbb     H2 6273   1.054   4.554   4.589 -1.2966 -0.2198  2.0245
  210bbb     C2 6274   1.187   4.609   4.819  0.3310  0.9492 -0.0196
  210bbb     H3 6275   1.117   4.549   4.878  0.3518  0.7464 -0.1975
  210bbb     H4 6276   1.132   4.695   4.780 -1.0897 -0.3995 -1.1374
  210bbb     C3 6277   1.303   4.401   4.759 -1.0059  0.0393 -0.1751
  210bbb     H5 6278   1.238   4.336   4.818  0.9167 -1.2089  0.6738
  210bbb     H6 6279   1.376   4.436   4.832  0.1718 -2.5024  0.0022
  210bbb     C4 6280   1.396   4.326   4.660  0.3831  0.0949 -0.1761
  210bbb     H7 6281   1.474   4.402   4.645 -0.2427  1.0243  1.0786
  210bbb     H8 6282   1.351   4.305   4.562 -3.5479 -3.4031  2.0134
  210bbb     C5 6283   0.991   4.397   4.714 -0.3279  0.3753  0.2005
  210bbb     H9 6284   0.976   4.464   4.799  2.1404 -0.1054  1.0768
  210bbb    H10 6285   1.020   4.296   4.746 -0.9756 -0.6122 -2.1139
  210bbb     C6 6286   1.300   4.649   4.912 -0.1394 -0.3052  0.4377
  210bbb    H11 6287   1.394   4.644   4.855 -0.5361 -1.0846 -0.1535
  210bbb    H12 6288   1.301   4.582   4.999  1.4456  0.4277  1.0299
  210bbb     C7 6289   1.464   4.194   4.716  0.6979 -0.4076  0.5202
  210bbb    H13 6290   1.538   4.161   4.642  1.4558 -0.1432  1.1422
  210bbb    H14 6291   1.393   4.112   4.728  3.8489 -3.4447  0.0187
  210bbb     C8 6292   1.284   4.800   4.953 -0.5454  0.0415 -0.0716
  210bbb    H15 6293   1.286   4.850   4.856  1.7248  1.2537  0.5531
  210bbb    H16 6294   1.370   4.835   5.011  0.1265 -3.4580  1.3542
  210bbb     C9 6295   0.856   4.400   4.636  0.1451  0.0811 -0.3609
  210bbb    H17 6296   0.781   4.347   4.697  0.3683  1.6765  1.3848
  210bbb    H18 6297   0.871   4.352   4.538  0.6090 -0.4992 -0.0112
  210bbb     O1 6298   1.534   4.212   4.846 -0.4621  0.3518  0.0895
  210bbb    H19 6299   1.286   4.575   4.638 -3.0334  2.4599 -1.0516
  211bbb     N1 6300   2.548   3.476   3.013  0.1579  0.2214 -0.2181
  211bbb     C1 6301   2.571   3.493   2.872  0.5814  0.1197 -0.3899
  211bbb     H1 6302   2.608   3.399   2.832  1.5714  0.0548  0.6039
  211bbb     H2 6303   2.645   3.573   2.863  0.6946 -0.0316 -0.8121
  211bbb     C2 6304   2.664   3.391   3.053 -0.3066  0.2066  0.4304
  211bbb     H3 6305   2.665   3.383   3.162 -1.1335  1.9027  0.5899
  211bbb     H4 6306   2.755   3.439   3.017 -0.2519 -0.7424 -0.7685
  211bbb     C3 6307   2.553   3.610   3.086  0.8258 -0.3600  0.0005
  211bbb     H5 6308   2.465   3.671   3.065  0.0461 -1.0823  1.0719
  211bbb     H6 6309   2.642   3.665   3.054  0.2407  0.0826 -0.8948
  211bbb     C4 6310   2.541   3.594   3.241 -0.4238 -0.1983 -0.7769
  211bbb     H7 6311   2.639   3.560   3.277 -1.5687 -1.7480  0.9908
  211bbb     H8 6312   2.458   3.524   3.255 -0.2550 -0.0956  0.8899
  211bbb     C5 6313   2.442   3.528   2.796 -0.5639  0.7798 -0.4733
  211bbb     H9 6314   2.396   3.613   2.850 -1.9372 -0.4169  0.2993
  211bbb    H10 6315   2.370   3.447   2.812  1.2746 -0.6783  0.8620
  211bbb     C6 6316   2.663   3.234   3.019 -0.8713 -0.0404 -0.2118
  211bbb    H11 6317   2.735   3.192   3.091 -0.6646  0.6669 -0.0004
  211bbb    H12 6318   2.694   3.219   2.915 -2.3465 -0.9208 -0.5540
  211bbb     C7 6319   2.518   3.735   3.300 -0.4143 -0.8003  0.3435
  211bbb    H13 6320   2.612   3.788   3.281 -0.5661 -0.5641  0.2429
  211bbb    H14 6321   2.507   3.726   3.409 -2.9840 -1.4453  0.1119
  211bbb     C8 6322   2.525   3.165   3.043  0.2975  1.0703  0.3731
  211bbb    H15 6323   2.535   3.056   3.047  2.2301  1.2307  1.1605
  211bbb    H16 6324   2.477   3.201   3.134 -0.4218  1.1773 -0.0402
  211bbb     C9 6325   2.461   3.544   2.641 -0.1153 -0.0752 -0.0268
  211bbb    H17 6326   2.521   3.631   2.611 -0.2996  0.6463  1.6230
  211bbb    H18 6327   2.365   3.547   2.588  0.2759  1.4984 -0.7021
  211bbb     O1 6328   2.399   3.788   3.238 -0.0010 -0.7240  0.1923
  211bbb    H19 6329   2.466   3.419   3.038  0.6386  0.7600  3.0629
  212bbb     N1 6330   1.483   3.000   2.980 -0.0086 -0.6032  0.4706
  212bbb     C1 6331   1.463   2.852   2.987 -0.7598 -0.1803  0.0080
  212bbb     H1 6332   1.404   2.825   2.900 -1.9661  2.4548 -0.0918
  212bbb     H2 6333   1.405   2.825   3.076 -0.5018  1.3344  0.6696
  212bbb     C2 6334   1.339   3.054   2.962  0.0691 -0.8929  0.4787
  212bbb     H3 6335   1.327   3.150   3.014  0.3190 -0.5133 -0.1552
  212bbb     H4 6336   1.270   2.994   3.022 -0.8606 -0.3474 -0.0061
  212bbb     C3 6337   1.552   3.044   3.116  0.0616 -0.0715 -0.1347
  212bbb     H5 6338   1.645   2.990   3.135  0.4432  0.9401  0.9633
  212bbb     H6 6339   1.477   3.018   3.190 -0.0251 -1.0466 -0.5544
  212bbb     C4 6340   1.582   3.193   3.115  0.2874 -0.1501  0.1145
  212bbb     H7 6341   1.487   3.248   3.115 -0.4790 -1.4358  0.4623
  212bbb     H8 6342   1.637   3.217   3.023 -0.4861 -0.4238 -0.4300
  212bbb     C5 6343   1.583   2.757   2.983 -0.5870  0.1877 -0.1956
  212bbb     H9 6344   1.649   2.763   3.070  1.7428 -1.3838 -1.7478
  212bbb    H10 6345   1.649   2.784   2.900 -0.0173 -0.3920  0.0662
  212bbb     C6 6346   1.285   3.075   2.820  0.1986 -0.3131  0.2041
  212bbb    H11 6347   1.324   2.994   2.757  0.6572  0.3468 -0.3615
  212bbb    H12 6348   1.317   3.166   2.768 -2.3506 -0.1909 -1.3005
  212bbb     C7 6349   1.680   3.216   3.228  0.0411 -0.7929  0.1343
  212bbb    H13 6350   1.769   3.162   3.195 -0.5257 -0.6542 -1.7395
  212bbb    H14 6351   1.637   3.178   3.322 -1.4613 -1.1021 -0.6493
  212bbb     C8 6352   1.135   3.077   2.809  0.8703  0.1099  0.0222
  212bbb    H15 6353   1.114   3.098   2.704 -2.0256  0.6782  0.6287
  212bbb    H16 6354   1.096   2.978   2.837 -1.0455  1.0792  0.9398
  212bbb     C9 6355   1.548   2.607   2.976 -0.1672  0.5132 -0.6067
  212bbb    H17 6356   1.506   2.576   2.879 -1.3282  0.5473 -0.1350
  212bbb    H18 6357   1.468   2.587   3.048 -0.7825 -2.7700 -2.0123
  212bbb     O1 6358   1.704   3.368   3.249  0.1826  0.2559 -0.6996
  212bbb    H19 6359   1.545   3.026   2.902 -0.3078  0.1504  0.4801
  213bbb     N1 6360   0.891   4.757   3.116 -0.1866 -0.2144  0.2218
  213bbb     C1 6361   0.854   4.615   3.092 -0.0862 -0.0662 -0.4052
  213bbb     H1 6362   0.781   4.631   3.013  1.3184  4.0328 -1.0983
  213bbb     H2 6363   0.801   4.580   3.181 -1.5102  0.7255 -0.8973
  213bbb     C2 6364   0.771   4.850   3.139 -0.4398  0.2799  0.5077
  213bbb     H3 6365   0.737   4.839   3.242  0.1128 -0.1476  0.6481
  213bbb     H4 6366   0.690   4.808   3.079 -0.2931  0.1031  0.4350
  213bbb     C3 6367   0.973   4.765   3.247 -0.1991  0.3004  0.2215
  213bbb     H5 6368   1.031   4.673   3.261 -1.9618 -0.9419 -0.2689
  213bbb     H6 6369   0.902   4.765   3.330 -0.4117  0.9549  0.0417
  213bbb     C4 6370   1.072   4.887   3.251 -0.1441 -0.1421 -0.9015
  213bbb     H7 6371   1.126   4.883   3.346  0.1325  1.2406 -0.9828
  213bbb     H8 6372   1.015   4.980   3.259 -0.4905 -0.3672 -0.7388
  213bbb     C5 6373   0.965   4.516   3.058  0.3431 -0.1431  0.0535
  213bbb     H9 6374   1.043   4.509   3.135 -1.6539 -0.7524  2.1363
  213bbb    H10 6375   1.009   4.546   2.962 -0.0101  1.5071  0.3813
  213bbb     C6 6376   0.799   4.989   3.089 -0.6182 -0.3337  0.7801
  213bbb    H11 6377   0.877   5.003   3.014  0.3789 -0.2535  1.8145
  213bbb    H12 6378   0.835   5.054   3.169 -0.2476  1.3697 -0.7158
  213bbb     C7 6379   1.171   4.889   3.137 -0.3573 -0.3911 -0.7083
  213bbb    H13 6380   1.236   4.976   3.156 -2.5337  1.6506 -2.0678
  213bbb    H14 6381   1.117   4.910   3.044 -0.8769  1.6710  0.0031
  213bbb     C8 6382   0.675   5.058   3.027 -0.0421 -0.1690  0.2389
  213bbb    H15 6383   0.657   5.030   2.923  3.2123 -0.3336 -0.3670
  213bbb    H16 6384   0.593   5.038   3.098  0.7497 -0.0802  1.1907
  213bbb     C9 6385   0.912   4.373   3.051 -0.0014  0.0778  0.1510
  213bbb    H17 6386   0.988   4.306   3.009  1.6059  2.6866 -1.3787
  213bbb    H18 6387   0.830   4.376   2.978  0.8733  1.0500 -0.8128
  213bbb     O1 6388   1.253   4.766   3.132  0.0600 -0.8129  0.4818
  213bbb    H19 6389   0.947   4.787   3.035 -2.2132 -1.2449 -1.6615
  214bbb     N1 6390   1.519   5.339   3.326  0.3216 -0.4337  0.2021
  214bbb     C1 6391   1.644   5.420   3.375  0.0028  0.0318  0.8264
  214bbb     H1 6392   1.616   5.497   3.447 -2.6484 -0.2540  0.1878
  214bbb     H2 6393   1.690   5.468   3.289  1.2396 -0.6788  1.0687
  214bbb     C2 6394   1.410   5.442   3.294 -0.6853 -0.4390  0.6923
  214bbb     H3 6395   1.337   5.375   3.247  0.1372 -1.9683  1.5199
  214bbb     H4 6396   1.441   5.517   3.221 -0.6762 -0.9816  0.1294
  214bbb     C3 6397   1.560   5.269   3.195  0.0110 -0.3913  1.2514
  214bbb     H5 6398   1.663   5.235   3.207  0.4186  0.4228  0.2168
  214bbb     H6 6399   1.557   5.343   3.115 -3.0641 -0.8121  0.8557
  214bbb     C4 6400   1.463   5.152   3.164  0.0104 -0.2137 -0.6267
  214bbb     H7 6401   1.359   5.188   3.157  0.1871  0.7022  0.9892
  214bbb     H8 6402   1.457   5.069   3.235 -0.3047 -0.9580 -1.4984
  214bbb     C5 6403   1.762   5.333   3.426  0.0452  0.6885  0.2097
  214bbb     H9 6404   1.791   5.264   3.345 -1.3863 -1.4498  1.4079
  214bbb    H10 6405   1.725   5.265   3.503 -2.0038  0.5784 -0.7990
  214bbb     C6 6406   1.346   5.519   3.416 -0.8829 -0.6424  0.1445
  214bbb    H11 6407   1.422   5.549   3.489 -0.4053  0.4700 -0.7976
  214bbb    H12 6408   1.272   5.459   3.473 -1.0706 -1.1191 -0.5871
  214bbb     C7 6409   1.490   5.108   3.024  0.1865  0.5855  0.2767
  214bbb    H13 6410   1.525   5.191   2.961  0.9186 -1.5727 -2.3787
  214bbb    H14 6411   1.402   5.063   2.977 -0.3513 -0.8476  2.4836
  214bbb     C8 6412   1.271   5.642   3.361 -0.6327 -0.1032 -0.4109
  214bbb    H15 6413   1.208   5.686   3.439 -0.5500 -0.0266 -0.3878
  214bbb    H16 6414   1.336   5.721   3.324 -1.5762  1.2351  0.6928
  214bbb     C9 6415   1.885   5.418   3.474 -0.1432 -0.1815  0.7172
  214bbb    H17 6416   1.942   5.452   3.387  1.6134 -1.5991  1.2326
  214bbb    H18 6417   1.942   5.339   3.526  0.1268 -0.4981 -0.0496
  214bbb     O1 6418   1.588   5.001   3.026  0.1769 -0.3268  0.7124
  214bbb    H19 6419   1.490   5.265   3.392  1.3244 -0.1304  1.0024
  215bbb     N1 6420   2.492   6.762   5.969 -0.1126 -0.5058  0.4479
  215bbb     C1 6421   2.367   6.824   6.017 -0.2229 -0.0066  0.1363
  215bbb     H1 6422   2.353   6.916   5.960  0.0445 -1.7257 -2.9282
  215bbb     H2 6423   2.383   6.832   6.125 -1.4801 -2.2721  0.5519
  215bbb     C2 6424   2.617   6.838   6.027  0.0065  0.4556  0.6079
  215bbb     H3 6425   2.706   6.798   5.978  0.0223  0.5510  0.5592
  215bbb     H4 6426   2.622   6.815   6.133  0.6571 -0.6518  0.3524
  215bbb     C3 6427   2.498   6.619   6.026  0.0746  0.1057 -0.0440
  215bbb     H5 6428   2.407   6.563   6.004  0.0657  0.6934 -1.6871
  215bbb     H6 6429   2.502   6.636   6.133 -0.4714  4.9446 -0.5279
  215bbb     C4 6430   2.613   6.532   5.979  0.0879 -0.4828 -0.4655
  215bbb     H7 6431   2.706   6.589   5.979  1.1509 -2.1457 -0.6055
  215bbb     H8 6432   2.593   6.501   5.875  1.2662 -1.6970 -0.3687
  215bbb     C5 6433   2.231   6.753   6.006  0.9811 -0.3726 -0.2332
  215bbb     H9 6434   2.227   6.663   6.069  0.8745  1.1433  2.0655
  215bbb    H10 6435   2.201   6.742   5.901  0.0235  0.7535 -0.1096
  215bbb     C6 6436   2.628   6.991   6.007 -0.1529 -0.2550  0.4701
  215bbb    H11 6437   2.549   7.034   6.070 -2.8405 -3.1084 -0.6699
  215bbb    H12 6438   2.602   7.023   5.906 -1.7730 -0.9922  0.6222
  215bbb     C7 6439   2.641   6.410   6.066  0.0633  0.6550  1.1234
  215bbb    H13 6440   2.653   6.438   6.171 -2.2795  0.0235  1.6272
  215bbb    H14 6441   2.738   6.366   6.041  0.5680  2.5600 -0.5474
  215bbb     C8 6442   2.767   7.049   6.037  0.5130 -0.4942  0.3077
  215bbb    H15 6443   2.851   6.981   6.017  0.3370  0.0075 -2.6232
  215bbb    H16 6444   2.787   7.131   5.967  0.9556 -0.7499  0.1278
  215bbb     C9 6445   2.131   6.847   6.081  0.1996 -0.0256  0.1576
  215bbb    H17 6446   2.158   6.837   6.187  1.1219 -1.7684 -0.2059
  215bbb    H18 6447   2.033   6.797   6.077  0.1408 -0.0850  1.7168
  215bbb     O1 6448   2.530   6.307   6.066 -0.9337  0.3198 -0.0359
  215bbb    H19 6449   2.494   6.763   5.865  0.0196  2.1539  0.3867
  216bbb     N1 6450   2.031   6.332   6.312 -0.2028 -0.4759 -0.1177
  216bbb     C1 6451   1.926   6.418   6.240 -0.5893  0.8539  0.3180
  216bbb     H1 6452   1.826   6.380   6.261  0.0150 -1.4981 -0.6754
  216bbb     H2 6453   1.929   6.397   6.133 -2.7379  1.1732  0.1472
  216bbb     C2 6454   2.039   6.375   6.462 -0.3037 -0.0811  0.3785
  216bbb     H3 6455   2.054   6.483   6.459  3.1736 -0.3422  2.8492
  216bbb     H4 6456   2.129   6.337   6.510 -1.8566 -3.6091  0.7938
  216bbb     C3 6457   2.004   6.188   6.296  0.2715 -0.2006 -0.2019
  216bbb     H5 6458   1.908   6.172   6.347  1.4560  3.5769  3.7653
  216bbb     H6 6459   2.086   6.136   6.346 -0.1642 -0.3236  0.3931
  216bbb     C4 6460   2.022   6.135   6.152  0.7628  0.4892  0.5417
  216bbb     H7 6461   2.117   6.168   6.107  1.1163  0.1799  1.0502
  216bbb     H8 6462   1.943   6.182   6.092  1.2509  1.7522  0.8660
  216bbb     C5 6463   1.924   6.570   6.262  0.0147 -1.0388  0.2580
  216bbb     H9 6464   2.014   6.611   6.214 -1.1308 -1.5107 -2.4745
  216bbb    H10 6465   1.914   6.604   6.366  0.3754 -0.4013  0.0883
  216bbb     C6 6466   1.915   6.337   6.558 -0.6646  0.2230  0.4380
  216bbb    H11 6467   1.925   6.232   6.590 -0.1587  0.3623  0.7537
  216bbb    H12 6468   1.817   6.350   6.512 -0.8581  0.3555  0.8859
  216bbb     C7 6469   2.011   5.979   6.138 -0.5862 -0.6717 -0.1624
  216bbb    H13 6470   2.022   5.951   6.033 -1.1640 -2.1010  0.1258
  216bbb    H14 6471   1.911   5.946   6.170 -1.0031 -0.7955 -1.5569
  216bbb     C8 6472   1.929   6.428   6.678 -0.3113  0.2505 -0.9171
  216bbb    H15 6473   1.857   6.413   6.760  2.0352  0.2200  1.2749
  216bbb    H16 6474   2.031   6.425   6.719 -0.2259  0.9545 -1.0842
  216bbb     C9 6475   1.805   6.630   6.180  0.1728  0.4605  0.0697
  216bbb    H17 6476   1.793   6.734   6.213  0.7375  0.7943 -0.7431
  216bbb    H18 6477   1.726   6.560   6.208  1.2788 -1.4521 -1.3601
  216bbb     O1 6478   2.122   5.915   6.209 -0.4041  0.1895  0.4340
  216bbb    H19 6479   2.123   6.343   6.268  0.2755 -0.7588  0.7899
  217bbb     N1 6480   3.970   5.264   5.213  0.4016  0.4263 -0.2213
  217bbb     C1 6481   3.952   5.245   5.067 -0.3845 -0.7477 -0.3006
  217bbb     H1 6482   3.991   5.332   5.014 -0.1446 -0.9284 -0.4213
  217bbb     H2 6483   3.844   5.236   5.056 -0.6194  0.0186  1.0331
  217bbb     C2 6484   4.111   5.246   5.271 -0.5284 -0.0081 -0.0270
  217bbb     H3 6485   4.180   5.309   5.214  0.7946 -0.4217  1.0852
  217bbb     H4 6486   4.142   5.142   5.263 -1.9358 -0.5512  1.1688
  217bbb     C3 6487   3.913   5.400   5.246 -0.2902 -0.1785  0.3964
  217bbb     H5 6488   3.981   5.469   5.194 -1.6046  0.8323 -0.0582
  217bbb     H6 6489   3.919   5.411   5.354 -1.2727  0.1848  0.4307
  217bbb     C4 6490   3.768   5.429   5.206  0.2841 -0.4606 -0.0760
  217bbb     H7 6491   3.716   5.335   5.229 -0.7155  0.1365  0.1512
  217bbb     H8 6492   3.753   5.452   5.100  0.9231 -0.4100 -0.1575
  217bbb     C5 6493   4.018   5.126   5.012  0.2257 -0.2463  0.4316
  217bbb     H9 6494   3.996   5.030   5.060  0.8339 -1.3034 -1.3029
  217bbb    H10 6495   4.124   5.153   5.003  0.4163 -1.2996 -0.9691
  217bbb     C6 6496   4.144   5.289   5.416 -0.6359 -0.1272  0.0344
  217bbb    H11 6497   4.117   5.394   5.431  2.0471  0.5957  0.1555
  217bbb    H12 6498   4.097   5.215   5.483  2.8948 -1.0924  1.6612
  217bbb     C7 6499   3.696   5.545   5.282  0.2009  0.6789 -0.0512
  217bbb    H13 6500   3.590   5.529   5.259  0.6672 -0.9596 -1.2626
  217bbb    H14 6501   3.736   5.638   5.239  1.6128  0.4638  0.7204
  217bbb     C8 6502   4.300   5.281   5.425 -0.4648  0.0931 -0.6212
  217bbb    H15 6503   4.336   5.318   5.522 -0.2590 -2.0638  0.1822
  217bbb    H16 6504   4.341   5.340   5.342 -1.4378  1.9261  0.1279
  217bbb     C9 6505   3.974   5.109   4.860  0.7819  0.4058 -0.0714
  217bbb    H17 6506   4.021   5.177   4.788  0.6081  0.8025  0.1837
  217bbb    H18 6507   3.868   5.133   4.849  1.2601  2.4722 -0.6541
  217bbb     O1 6508   3.710   5.545   5.427  0.2763  0.1003 -0.0401
  217bbb    H19 6509   3.910   5.193   5.259 -1.1964 -0.6468 -3.5881
  218bbb     N1 6510   3.252   6.027   6.178 -0.3660 -0.5411 -0.0783
  218bbb     C1 6511   3.319   6.131   6.270 -0.4006 -0.1065  0.1892
  218bbb     H1 6512   3.401   6.081   6.321  0.7624  1.9369  0.4197
  218bbb     H2 6513   3.239   6.152   6.342  0.1824  0.3438  0.7138
  218bbb     C2 6514   3.166   6.097   6.070  0.2851  0.2154  0.3693
  218bbb     H3 6515   3.157   6.021   5.992  1.3035  1.1252 -0.6606
  218bbb     H4 6516   3.232   6.167   6.018 -0.4784  0.5718 -0.1434
  218bbb     C3 6517   3.340   5.925   6.115  0.0081  0.7120  0.1125
  218bbb     H5 6518   3.413   5.978   6.054  0.0365 -0.0842 -0.5624
  218bbb     H6 6519   3.280   5.869   6.044 -0.7569  1.0030  0.5203
  218bbb     C4 6520   3.421   5.831   6.211  0.0992 -0.0085 -0.0180
  218bbb     H7 6521   3.343   5.777   6.266  1.2728  0.7976  2.6144
  218bbb     H8 6522   3.471   5.878   6.297 -1.5060  2.5403 -0.3734
  218bbb     C5 6523   3.379   6.265   6.205 -0.0482  0.0626 -0.0503
  218bbb     H9 6524   3.427   6.319   6.288 -0.4313  0.2185  0.0714
  218bbb    H10 6525   3.301   6.328   6.162  0.4259  1.5516  1.1788
  218bbb     C6 6526   3.023   6.147   6.092  0.5069 -0.5201  0.3025
  218bbb    H11 6527   2.968   6.054   6.109  0.1941 -0.5686 -0.8916
  218bbb    H12 6528   2.990   6.173   5.991  0.9574 -1.4965 -0.1145
  218bbb     C7 6529   3.523   5.744   6.137 -0.0709  1.0568  0.1292
  218bbb    H13 6530   3.570   5.683   6.215 -1.6537 -0.9754 -0.4265
  218bbb    H14 6531   3.596   5.808   6.086 -0.4874  0.7212 -0.9150
  218bbb     C8 6532   3.000   6.236   6.221  0.4319  0.0111  0.7181
  218bbb    H15 6533   3.069   6.320   6.228 -1.3124  1.6408 -0.5628
  218bbb    H16 6534   2.899   6.278   6.220  0.7304  0.8547 -2.1398
  218bbb     C9 6535   3.495   6.244   6.102 -0.3234  0.5348  0.3366
  218bbb    H17 6536   3.542   6.341   6.083  0.0621  0.2374 -0.2356
  218bbb    H18 6537   3.462   6.207   6.005  2.2832  1.5980 -1.0558
  218bbb     O1 6538   3.453   5.648   6.049 -0.2835 -0.1290  0.1398
  218bbb    H19 6539   3.187   5.974   6.238 -1.1391  0.4155 -0.0463
  219bbb     N1 6540   3.024   6.899   4.616 -0.3444 -0.0693  0.2377
  219bbb     C1 6541   2.959   6.943   4.486  0.4645  0.1903  0.1263
  219bbb     H1 6542   3.026   6.938   4.400 -1.2823  2.8966 -1.5473
  219bbb     H2 6543   2.943   7.049   4.504 -1.5301  0.5748 -3.1188
  219bbb     C2 6544   3.168   6.930   4.592 -0.5225 -0.0349  0.0975
  219bbb     H3 6545   3.214   6.930   4.691  0.6832  0.4695 -0.4467
  219bbb     H4 6546   3.185   7.027   4.545 -0.8857  0.1451  0.3299
  219bbb     C3 6547   2.978   6.982   4.738 -0.4372 -0.2655  0.2162
  219bbb     H5 6548   2.872   7.006   4.722 -0.5369  0.0572  1.2971
  219bbb     H6 6549   3.036   7.074   4.732  1.0522 -1.1047  1.3537
  219bbb     C4 6550   2.991   6.918   4.878 -0.0114 -0.2700  0.4294
  219bbb     H7 6551   2.959   7.000   4.944  1.7384  0.9579 -0.2042
  219bbb     H8 6552   3.093   6.899   4.912  0.7541  0.8030 -1.1352
  219bbb     C5 6553   2.823   6.871   4.457  0.0803  0.7479 -0.1410
  219bbb     H9 6554   2.787   6.924   4.367 -1.1316  1.5625  0.7910
  219bbb    H10 6555   2.759   6.879   4.546 -1.4866  0.4116 -1.2010
  219bbb     C6 6556   3.253   6.828   4.509  0.3608 -0.5770  0.2500
  219bbb    H11 6557   3.349   6.879   4.496  1.7903 -1.8437  4.5036
  219bbb    H12 6558   3.207   6.802   4.412 -1.8497  1.0713  0.7498
  219bbb     C7 6559   2.909   6.790   4.908 -0.1503 -0.3641 -0.1924
  219bbb    H13 6560   2.889   6.785   5.015  0.4165 -0.8178 -0.1029
  219bbb    H14 6561   2.975   6.708   4.874 -0.0463  0.2518 -1.5605
  219bbb     C8 6562   3.265   6.698   4.576 -0.5679  0.8016 -0.7490
  219bbb    H15 6563   3.347   6.648   4.524  1.1659  3.2994 -0.5646
  219bbb    H16 6564   3.290   6.701   4.683  0.4213 -0.4976 -0.9206
  219bbb     C9 6565   2.832   6.717   4.420 -0.1697  1.2253 -0.7683
  219bbb    H17 6566   2.882   6.659   4.499 -1.4640 -1.1571 -1.5914
  219bbb    H18 6567   2.890   6.703   4.328 -0.9740 -0.0283 -1.1019
  219bbb     O1 6568   2.789   6.799   4.828  0.4075 -0.0311 -0.0794
  219bbb    H19 6569   3.026   6.797   4.627  2.8633 -0.2587 -1.0217
  220bbb     N1 6570   2.554   7.464   4.851 -1.0183 -0.5367  0.0551
  220bbb     C1 6571   2.661   7.417   4.950  0.8361  0.0613  0.0941
  220bbb     H1 6572   2.606   7.337   5.001 -0.1563  0.5505 -0.1843
  220bbb     H2 6573   2.679   7.495   5.024 -0.0491 -0.0675  0.4592
  220bbb     C2 6574   2.607   7.584   4.772  0.0562  0.2308  0.4210
  220bbb     H3 6575   2.522   7.617   4.711  1.6240  2.3716 -0.7736
  220bbb     H4 6576   2.678   7.541   4.702 -0.8137 -0.5720  0.0145
  220bbb     C3 6577   2.516   7.352   4.760  0.2468 -0.1568 -0.8587
  220bbb     H5 6578   2.533   7.261   4.817  0.5751 -1.3058 -2.7351
  220bbb     H6 6579   2.590   7.358   4.680  0.2990  1.5898 -0.7361
  220bbb     C4 6580   2.372   7.367   4.699  0.0719  0.1369 -0.8992
  220bbb     H7 6581   2.373   7.430   4.609 -0.0817  1.2568 -0.1287
  220bbb     H8 6582   2.311   7.408   4.780  0.9445 -1.7468  0.8036
  220bbb     C5 6583   2.792   7.366   4.888 -0.3274 -0.3992  0.6079
  220bbb     H9 6584   2.844   7.441   4.826  2.1828 -1.7986  0.9086
  220bbb    H10 6585   2.780   7.277   4.825  1.3537  0.1808 -0.6026
  220bbb     C6 6586   2.655   7.711   4.845  0.0704  0.4501 -1.1013
  220bbb    H11 6587   2.713   7.777   4.780  2.3818 -0.5789 -0.1984
  220bbb    H12 6588   2.726   7.676   4.922 -0.3141 -0.6877 -1.2464
  220bbb     C7 6589   2.308   7.229   4.670 -0.1632 -0.0731  0.6685
  220bbb    H13 6590   2.349   7.183   4.579  2.3899  3.0965  0.0652
  220bbb    H14 6591   2.200   7.238   4.656 -0.4882 -2.3494  1.2363
  220bbb     C8 6592   2.527   7.790   4.898  0.0064 -0.1230  0.6780
  220bbb    H15 6593   2.468   7.726   4.965  0.4902 -1.2348  0.0724
  220bbb    H16 6594   2.554   7.887   4.941 -2.6061  1.1954 -0.4379
  220bbb     C9 6595   2.879   7.317   5.001 -0.8844  0.0752 -0.1505
  220bbb    H17 6596   2.965   7.267   4.956 -0.7982 -0.2268  0.3482
  220bbb    H18 6597   2.835   7.241   5.066  1.4711 -1.4239 -0.2045
  220bbb     O1 6598   2.317   7.140   4.778 -0.1751  0.3908 -0.2075
  220bbb    H19 6599   2.471   7.494   4.904 -1.0837  2.7939 -1.6718
  221bbb     N1 6600   1.088   5.954   4.615  0.2122  0.1708 -0.0672
  221bbb     C1 6601   1.033   5.854   4.717 -0.4118  0.0373  1.1559
  221bbb     H1 6602   0.925   5.866   4.728 -1.2079 -3.7439 -0.6301
  221bbb     H2 6603   1.083   5.868   4.813 -0.4849 -0.6644  1.3015
  221bbb     C2 6604   1.036   5.940   4.477  0.5831 -0.9711  0.1081
  221bbb     H3 6605   1.063   5.842   4.438  0.2192 -1.7358  1.6917
  221bbb     H4 6606   1.087   6.014   4.415  1.4054 -2.2319 -0.7711
  221bbb     C3 6607   1.055   6.101   4.650  0.0861 -0.1286 -0.2268
  221bbb     H5 6608   0.949   6.119   4.633  0.0417 -0.1958 -0.0155
  221bbb     H6 6609   1.111   6.165   4.581  1.5579  0.6084  1.5530
  221bbb     C4 6610   1.096   6.154   4.791  0.3736  0.1749 -0.2997
  221bbb     H7 6611   1.205   6.164   4.802  0.2282  0.3981  1.0606
  221bbb     H8 6612   1.066   6.073   4.859 -1.0747  0.5391 -0.4701
  221bbb     C5 6613   1.062   5.705   4.676 -0.2667 -0.9390  0.6289
  221bbb     H9 6614   1.170   5.690   4.683  0.1179  0.8111 -0.8333
  221bbb    H10 6615   1.040   5.687   4.570  2.2786 -0.6667  0.0120
  221bbb     C6 6616   0.882   5.962   4.455 -0.2286 -0.2456  0.1700
  221bbb    H11 6617   0.841   6.060   4.481  0.9439  0.0234  1.0751
  221bbb    H12 6618   0.831   5.887   4.516  2.0825 -2.1715 -0.0764
  221bbb     C7 6619   1.032   6.290   4.821 -0.5610 -1.0150  0.0270
  221bbb    H13 6620   1.053   6.322   4.924 -0.2575  1.0945 -0.6330
  221bbb    H14 6621   0.924   6.270   4.812 -1.1274  2.1792 -1.8933
  221bbb     C8 6622   0.831   5.925   4.311  0.5729  0.1127  0.0620
  221bbb    H15 6623   0.822   5.817   4.294  0.0644  0.3075 -1.0175
  221bbb    H16 6624   0.730   5.969   4.304  0.9607  1.2773  1.4158
  221bbb     C9 6625   0.984   5.613   4.763 -0.1416  0.0714 -0.2884
  221bbb    H17 6626   1.029   5.620   4.863  1.6210 -0.9475 -0.9514
  221bbb    H18 6627   1.007   5.509   4.735  2.3031  0.4100  0.2043
  221bbb     O1 6628   1.075   6.386   4.719 -0.1347  0.0596 -0.4998
  221bbb    H19 6629   1.190   5.938   4.606 -0.1233 -1.1969 -2.1418
  222bbb     N1 6630   1.681   7.218   4.462 -0.7407 -0.0179 -0.2354
  222bbb     C1 6631   1.779   7.104   4.457 -0.1128 -0.6487  0.1934
  222bbb     H1 6632   1.716   7.017   4.438  0.8291 -1.1250 -0.8245
  222bbb     H2 6633   1.825   7.095   4.556 -1.9330 -1.3513  1.0236
  222bbb     C2 6634   1.606   7.237   4.333  0.9204  0.4026  0.2286
  222bbb     H3 6635   1.530   7.160   4.329 -0.7011  1.9468  0.1449
  222bbb     H4 6636   1.678   7.231   4.251 -1.4333 -0.1371 -1.9013
  222bbb     C3 6637   1.582   7.186   4.568  0.4603 -0.7110 -0.1088
  222bbb     H5 6638   1.548   7.082   4.565 -1.7381 -0.1883  2.6539
  222bbb     H6 6639   1.487   7.232   4.542 -0.1096 -1.8597 -0.1279
  222bbb     C4 6640   1.617   7.215   4.716 -0.9349 -0.0425 -0.8723
  222bbb     H7 6641   1.619   7.324   4.730 -0.7303 -0.1975  0.3618
  222bbb     H8 6642   1.715   7.175   4.744 -0.7491  2.1573  2.0472
  222bbb     C5 6643   1.879   7.121   4.346 -0.3832 -0.0426  0.5378
  222bbb     H9 6644   1.938   7.213   4.353 -0.3331  0.0268 -0.5585
  222bbb    H10 6645   1.828   7.134   4.250 -1.1761  3.6269  1.3087
  222bbb     C6 6646   1.524   7.376   4.320  0.1801  0.2298  0.1254
  222bbb    H11 6647   1.465   7.404   4.408 -1.0328  1.0508 -0.9114
  222bbb    H12 6648   1.449   7.373   4.240  1.2630  3.0474 -1.1078
  222bbb     C7 6649   1.507   7.163   4.808  0.0794 -0.3307  0.1888
  222bbb    H13 6650   1.406   7.196   4.783  0.1768  1.0406  1.4381
  222bbb    H14 6651   1.537   7.199   4.908  0.0734 -0.9635  0.4241
  222bbb     C8 6652   1.607   7.494   4.265  0.2134 -0.6663 -0.2095
  222bbb    H15 6653   1.626   7.496   4.157 -0.8118  3.3659 -0.4991
  222bbb    H16 6654   1.542   7.582   4.279 -1.0881 -2.0069  3.0647
  222bbb     C9 6655   1.975   6.999   4.322  0.2951  0.2017  0.4364
  222bbb    H17 6656   1.935   6.926   4.250  0.6849  0.2799  0.1369
  222bbb    H18 6657   1.992   6.950   4.418  3.1990  1.4523  0.6673
  222bbb     O1 6658   1.509   7.015   4.803  0.1356  0.3328 -0.1119
  222bbb    H19 6659   1.736   7.304   4.481  0.1747 -0.1556 -2.0429
  223bbb     N1 6660   7.951   6.468   2.580 -0.1587 -0.1225 -0.1515
  223bbb     C1 6661   8.019   6.376   2.670 -1.1301  0.0190  1.1852
  223bbb     H1 6662   7.971   6.404   2.764 -1.6792 -2.2144  1.6152
  223bbb     H2 6663   8.127   6.394   2.668 -1.0978 -0.0908 -1.5457
  223bbb     C2 6664   7.984   6.616   2.605  0.0742  0.1403 -0.0913
  223bbb     H3 6665   7.923   6.671   2.533  0.1119  1.6678  1.0012
  223bbb     H4 6666   8.091   6.628   2.586  0.2156 -1.1892 -0.2462
  223bbb     C3 6667   7.987   6.444   2.439 -0.1988  0.8806  0.4477
  223bbb     H5 6668   7.970   6.338   2.419 -2.8650  1.0760  1.3003
  223bbb     H6 6669   8.094   6.467   2.433 -0.0476  0.3835  1.1258
  223bbb     C4 6670   7.909   6.516   2.329  0.0338 -0.2789  0.2469
  223bbb     H7 6671   7.902   6.625   2.338 -0.0673 -0.1010 -1.5925
  223bbb     H8 6672   7.806   6.478   2.338 -0.2634  0.3092 -0.5625
  223bbb     C5 6673   7.993   6.229   2.633 -0.6891  0.3829 -1.1710
  223bbb     H9 6674   8.046   6.202   2.541  3.4548  1.0563  0.8006
  223bbb    H10 6675   7.887   6.209   2.613 -0.7857  0.2241 -0.5265
  223bbb     C6 6676   7.964   6.680   2.749 -0.7532 -0.6572 -0.1088
  223bbb    H11 6677   8.027   6.769   2.753  1.3992 -2.1498  2.4990
  223bbb    H12 6678   7.999   6.613   2.829  0.8916  0.2053 -0.0831
  223bbb     C7 6679   7.955   6.494   2.187 -1.0975  0.0882  0.3760
  223bbb    H13 6680   8.057   6.530   2.174 -0.4207 -2.1835 -1.3563
  223bbb    H14 6681   7.896   6.545   2.110  0.1055 -0.8410 -1.2240
  223bbb     C8 6682   7.821   6.716   2.771  0.3618 -0.2144 -0.0540
  223bbb    H15 6683   7.812   6.823   2.796 -3.3544 -0.9195  2.4295
  223bbb    H16 6684   7.765   6.693   2.680  1.2587 -1.0667 -0.4017
  223bbb     C9 6685   8.041   6.137   2.743 -0.1703  0.5395  0.7285
  223bbb    H17 6686   8.007   6.033   2.731  0.8152  0.3298 -0.5160
  223bbb    H18 6687   7.991   6.169   2.835  0.3293 -0.2673  1.2994
  223bbb     O1 6688   7.956   6.350   2.157 -0.2356  0.1491  0.2943
  223bbb    H19 6689   7.851   6.470   2.604 -0.2292  0.6290 -0.4874
  224bbb     N1 6690   8.102   5.766   2.320  0.0111 -0.4682 -0.0237
  224bbb     C1 6691   8.110   5.870   2.431 -0.2899  0.1737 -0.3343
  224bbb     H1 6692   8.083   5.828   2.527 -0.5383  1.0999  0.0114
  224bbb     H2 6693   8.055   5.959   2.398 -0.5956 -0.1994 -0.8453
  224bbb     C2 6694   7.995   5.661   2.347 -0.2462 -0.2372  0.7584
  224bbb     H3 6695   7.994   5.593   2.262 -0.5367  0.6997 -0.0165
  224bbb     H4 6696   7.892   5.698   2.346 -0.6874 -1.4190  1.3367
  224bbb     C3 6697   8.072   5.831   2.183  0.5055  0.0662 -0.1670
  224bbb     H5 6698   8.133   5.920   2.167 -1.8434  1.4095 -2.4246
  224bbb     H6 6699   7.967   5.859   2.190  0.4719  0.8175 -2.8564
  224bbb     C4 6700   8.108   5.747   2.055 -0.1163 -0.1856  0.0156
  224bbb     H7 6701   8.062   5.648   2.067  0.7096 -0.9656 -2.6922
  224bbb     H8 6702   8.214   5.722   2.051 -0.1594 -0.5033  0.6374
  224bbb     C5 6703   8.250   5.926   2.460  0.4826  0.1358 -0.4445
  224bbb     H9 6704   8.244   6.025   2.508 -1.1058 -0.3627  0.4488
  224bbb    H10 6705   8.310   5.945   2.370  2.8992 -0.4885  0.9165
  224bbb     C6 6706   8.026   5.595   2.484  0.2713  0.4592  0.4545
  224bbb    H11 6707   7.965   5.644   2.561 -1.3560 -1.2815  0.3435
  224bbb    H12 6708   8.133   5.591   2.509 -0.0167 -2.6510  1.6706
  224bbb     C7 6709   8.059   5.810   1.920 -0.6045  0.7560 -0.8058
  224bbb    H13 6710   8.104   5.750   1.839 -2.0841 -2.6100  0.6816
  224bbb    H14 6711   8.102   5.910   1.905 -1.3688  1.2528  0.2113
  224bbb     C8 6712   7.983   5.451   2.476  0.7852 -0.5345 -0.5839
  224bbb    H15 6713   7.974   5.414   2.578 -1.9522  0.3965 -0.4169
  224bbb    H16 6714   7.882   5.449   2.434  0.1866 -3.2005  0.8102
  224bbb     C9 6715   8.329   5.820   2.549 -0.8534 -0.1336 -0.4698
  224bbb    H17 6716   8.430   5.859   2.567 -0.4878 -1.1183 -0.3525
  224bbb    H18 6717   8.358   5.733   2.489  0.7259  1.2448 -1.7936
  224bbb     O1 6718   7.920   5.822   1.903  0.7219 -0.0379  0.2627
  224bbb    H19 6719   8.192   5.715   2.321 -0.6452 -1.7459 -1.4220
  225bbb     N1 6720   6.680   5.185   1.380  0.0985 -0.8286  0.0039
  225bbb     C1 6721   6.629   5.275   1.273  0.5953 -0.1502  0.6094
  225bbb     H1 6722   6.561   5.351   1.313 -2.6921 -2.9869  0.8997
  225bbb     H2 6723   6.566   5.206   1.217  0.9448 -0.7503  0.9469
  225bbb     C2 6724   6.739   5.055   1.323 -0.3439 -0.6052 -0.7928
  225bbb     H3 6725   6.790   5.003   1.404 -3.3365 -2.6739 -0.0875
  225bbb     H4 6726   6.816   5.091   1.255  0.3257  0.4218  0.4426
  225bbb     C3 6727   6.786   5.264   1.458  0.0259  0.0575  0.0405
  225bbb     H5 6728   6.758   5.369   1.461 -2.2776 -0.5132  1.3010
  225bbb     H6 6729   6.883   5.253   1.410 -0.2573 -0.6363 -0.3975
  225bbb     C4 6730   6.803   5.226   1.607  0.5688  0.1875  0.3055
  225bbb     H7 6731   6.829   5.119   1.607  2.5395  0.5588  3.1392
  225bbb     H8 6732   6.710   5.240   1.663  0.5816  0.3415  0.2886
  225bbb     C5 6733   6.729   5.334   1.168 -0.6505  0.1815  0.1577
  225bbb     H9 6734   6.801   5.253   1.149  0.0937  0.9132 -0.2157
  225bbb    H10 6735   6.788   5.419   1.206 -1.4024  1.1405 -0.7789
  225bbb     C6 6736   6.636   4.957   1.251  0.0724 -0.1958 -0.2356
  225bbb    H11 6737   6.615   5.000   1.152 -0.4389  0.1602  0.0231
  225bbb    H12 6738   6.538   4.942   1.298 -0.5317 -0.6528 -1.5828
  225bbb     C7 6739   6.922   5.310   1.675 -0.2624  0.4805  0.2454
  225bbb    H13 6740   7.019   5.285   1.631  0.0776 -1.6897  2.0160
  225bbb    H14 6741   6.931   5.282   1.781  0.6357  0.3536  0.1431
  225bbb     C8 6742   6.698   4.821   1.224  0.3071 -0.3178  0.1549
  225bbb    H15 6743   6.622   4.754   1.183 -0.1847 -0.6488  1.5277
  225bbb    H16 6744   6.772   4.836   1.144  0.5086 -1.4021  0.1192
  225bbb     C9 6745   6.654   5.369   1.038  0.5594 -0.5773  0.0635
  225bbb    H17 6746   6.616   5.274   0.999 -0.1077  0.4208 -1.8542
  225bbb    H18 6747   6.731   5.396   0.965  0.6876 -2.3335 -0.4967
  225bbb     O1 6748   6.885   5.441   1.665 -0.1902 -0.2828 -0.4882
  225bbb    H19 6749   6.602   5.158   1.443  0.6229 -2.5799 -0.0652
  226bbb     N1 6750   6.949   6.076   1.130  0.5598 -0.7880 -0.1810
  226bbb     C1 6751   6.858   6.140   1.032  0.3586 -0.3654  0.4144
  226bbb     H1 6752   6.815   6.063   0.968 -0.8880  0.6369  0.0081
  226bbb     H2 6753   6.912   6.215   0.975 -2.2973  1.8356  0.6195
  226bbb     C2 6754   7.004   6.186   1.230 -0.2335  0.1499  0.0627
  226bbb     H3 6755   6.919   6.240   1.271  0.1448 -0.5048  1.7976
  226bbb     H4 6756   7.060   6.261   1.175 -1.3695 -0.4794 -2.0463
  226bbb     C3 6757   6.874   5.959   1.201  0.5216  0.6273  0.4084
  226bbb     H5 6758   6.776   5.989   1.240  0.7553  0.8336  0.8414
  226bbb     H6 6759   6.936   5.936   1.288 -0.0556  0.1224  0.6959
  226bbb     C4 6760   6.844   5.833   1.118  0.7475  0.0328  0.1039
  226bbb     H7 6761   6.936   5.801   1.067  0.2845  0.1788 -0.8440
  226bbb     H8 6762   6.783   5.871   1.035 -0.1814  2.1834  1.6871
  226bbb     C5 6763   6.735   6.207   1.082 -0.2138 -0.1116 -0.3026
  226bbb     H9 6764   6.763   6.302   1.129 -1.9188  1.3525 -2.0574
  226bbb    H10 6765   6.686   6.143   1.156  0.7980 -0.0890  0.4067
  226bbb     C6 6766   7.102   6.146   1.339  0.0659 -0.6315  0.2381
  226bbb    H11 6767   7.201   6.116   1.302  0.3725 -2.4564  2.3528
  226bbb    H12 6768   7.059   6.066   1.399 -0.8259 -0.2073  0.1902
  226bbb     C7 6769   6.794   5.709   1.197  0.9820  0.4381 -0.0307
  226bbb    H13 6770   6.875   5.647   1.237 -0.0829 -2.0195 -1.4511
  226bbb    H14 6771   6.751   5.638   1.125  0.9595  2.5037 -2.1877
  226bbb     C8 6772   7.138   6.259   1.424  0.0649 -0.6853 -0.2857
  226bbb    H15 6773   7.205   6.227   1.505  0.6180  0.6366 -0.1972
  226bbb    H16 6774   7.191   6.334   1.365 -3.7061  2.0373 -0.5645
  226bbb     C9 6775   6.639   6.230   0.965  0.1338  0.6517  0.1692
  226bbb    H17 6776   6.545   6.279   0.994  0.1232  1.1756 -0.7309
  226bbb    H18 6777   6.614   6.133   0.920 -0.0528 -0.9732  3.4153
  226bbb     O1 6778   6.687   5.758   1.280 -0.6024 -0.3069 -0.1841
  226bbb    H19 6779   7.030   6.039   1.078  2.7139  2.3252  0.7283
  227bbb     N1 6780   6.297   8.200   1.432  0.2748 -0.4695  0.1136
  227bbb     C1 6781   6.194   8.126   1.515 -0.5930 -0.0959  0.2801
  227bbb     H1 6782   6.242   8.085   1.605 -3.2818 -1.6531  1.1134
  227bbb     H2 6783   6.155   8.046   1.452 -0.1027  1.6406 -2.3755
  227bbb     C2 6784   6.352   8.323   1.498 -0.0651  0.5705  0.1450
  227bbb     H3 6785   6.272   8.393   1.522 -0.1154 -0.2665  2.6790
  227bbb     H4 6786   6.420   8.370   1.425 -0.4710  0.6693 -0.1733
  227bbb     C3 6787   6.409   8.093   1.407  0.2868  0.0562 -0.2008
  227bbb     H5 6788   6.363   8.011   1.351  1.2188  0.0482 -0.9865
  227bbb     H6 6789   6.441   8.073   1.510 -0.2648 -0.3080 -0.0999
  227bbb     C4 6790   6.539   8.130   1.329  0.9789 -0.7057 -0.3588
  227bbb     H7 6791   6.610   8.196   1.380  0.2629  0.2064 -0.5112
  227bbb     H8 6792   6.513   8.200   1.249 -0.7211  0.0261  0.7636
  227bbb     C5 6793   6.080   8.212   1.560 -0.4803  0.1082 -0.5027
  227bbb     H9 6794   6.042   8.270   1.476 -0.1820  0.3382 -0.4816
  227bbb    H10 6795   6.116   8.275   1.643 -1.4552 -0.6054  0.4885
  227bbb     C6 6796   6.425   8.289   1.634 -0.1102 -0.1525  0.0560
  227bbb    H11 6797   6.527   8.255   1.614  0.7801  2.0702  0.5399
  227bbb    H12 6798   6.371   8.220   1.701  0.4135  3.0622  4.1629
  227bbb     C7 6799   6.608   8.016   1.264  0.1101  0.6931  0.0485
  227bbb    H13 6800   6.688   8.048   1.196  0.0665  0.8464  0.0688
  227bbb    H14 6801   6.544   7.948   1.205  1.7857 -2.8580  2.0265
  227bbb     C8 6802   6.429   8.411   1.725 -0.0196 -0.0512 -0.7058
  227bbb    H15 6803   6.514   8.399   1.794 -0.2389  1.5233 -0.1174
  227bbb    H16 6804   6.453   8.500   1.665 -0.5462 -0.4855 -1.5713
  227bbb     C9 6805   5.972   8.121   1.619 -0.4975  0.8960 -0.2542
  227bbb    H17 6806   5.890   8.168   1.675 -0.3959  1.2994 -0.4396
  227bbb    H18 6807   6.029   8.058   1.687 -0.4656  0.9579 -0.2244
  227bbb     O1 6808   6.667   7.945   1.375 -0.0071  0.3378 -0.0516
  227bbb    H19 6809   6.257   8.229   1.341  0.9533  3.3168  0.8667
  228bbb     N1 6810   6.002   7.604   1.887  0.1178  0.2291  0.6916
  228bbb     C1 6811   5.931   7.473   1.866 -0.7167 -0.4854  0.4549
  228bbb     H1 6812   5.835   7.486   1.816 -0.5261 -2.2364 -0.4240
  228bbb     H2 6813   5.928   7.429   1.966  1.3376  0.0261  0.7910
  228bbb     C2 6814   5.896   7.708   1.932  0.0396 -0.2811 -0.2326
  228bbb     H3 6815   5.928   7.771   2.015 -2.2223  0.9849 -0.2436
  228bbb     H4 6816   5.826   7.647   1.989  1.3548  0.1807  2.0030
  228bbb     C3 6817   6.095   7.591   2.000 -1.0194  0.3303  0.4649
  228bbb     H5 6818   6.070   7.503   2.060  1.3254  0.2114  1.4061
  228bbb     H6 6819   6.099   7.675   2.069  2.3439  0.8572 -0.1841
  228bbb     C4 6820   6.251   7.577   1.957  0.3082  0.2242 -0.5541
  228bbb     H7 6821   6.275   7.475   1.924  2.5180  0.4970  0.0872
  228bbb     H8 6822   6.316   7.579   2.045  0.7286  0.1545 -0.8558
  228bbb     C5 6823   6.005   7.368   1.779  0.5974  0.5772  0.2306
  228bbb     H9 6824   5.926   7.292   1.775  0.3358  0.8797 -0.5454
  228bbb    H10 6825   6.093   7.318   1.821 -0.9898 -2.2211  0.4910
  228bbb     C6 6826   5.836   7.791   1.816 -0.1771 -0.3236  0.3660
  228bbb    H11 6827   5.804   7.717   1.742  4.3221 -1.2270 -0.9758
  228bbb    H12 6828   5.913   7.858   1.776  0.6104 -1.1563  0.4441
  228bbb     C7 6829   6.300   7.679   1.853  0.1678  0.2198 -0.0700
  228bbb    H13 6830   6.406   7.661   1.832 -0.1141 -0.5266 -0.9128
  228bbb    H14 6831   6.289   7.785   1.882 -0.6418 -0.3633  1.9494
  228bbb     C8 6832   5.726   7.872   1.873  0.2299 -0.3123 -0.1395
  228bbb    H15 6833   5.661   7.907   1.793 -1.0523 -0.1335  0.9416
  228bbb    H16 6834   5.663   7.813   1.940 -0.0510  1.0024  0.7892
  228bbb     C9 6835   6.041   7.412   1.632 -0.8326 -0.9508 -0.0755
  228bbb    H17 6836   6.060   7.324   1.569 -0.7098 -1.5542  0.7758
  228bbb    H18 6837   6.134   7.469   1.640 -1.7167  0.8068 -1.6362
  228bbb     O1 6838   6.214   7.666   1.735 -0.0871  0.1433  0.0179
  228bbb    H19 6839   6.042   7.634   1.797  0.7641 -2.1173  0.1522
  229bbb     N1 6840   7.029   7.240   3.129  0.0198 -0.2345 -0.5136
  229bbb     C1 6841   7.058   7.136   3.027  0.3158 -0.3859 -0.1056
  229bbb     H1 6842   7.133   7.174   2.958 -0.8671 -0.4240 -1.4495
  229bbb     H2 6843   6.969   7.120   2.967  1.6747  1.1663 -2.6891
  229bbb     C2 6844   7.157   7.326   3.156 -0.4480 -0.4291 -0.2345
  229bbb     H3 6845   7.165   7.396   3.072 -0.3735 -0.7408 -0.4887
  229bbb     H4 6846   7.243   7.259   3.148  0.3706  0.4611  0.7370
  229bbb     C3 6847   6.911   7.330   3.084 -0.0741  0.5111 -0.4747
  229bbb     H5 6848   6.917   7.354   2.978  0.8340  1.0294 -0.3081
  229bbb     H6 6849   6.918   7.424   3.137 -1.4532 -0.1857  1.0397
  229bbb     C4 6850   6.778   7.258   3.112 -0.8090 -1.1085 -0.4904
  229bbb     H7 6851   6.759   7.246   3.219  1.0873 -0.6179 -0.0585
  229bbb     H8 6852   6.792   7.156   3.076  2.6014 -1.0035  0.1461
  229bbb     C5 6853   7.099   6.998   3.086 -0.1397 -0.2453  0.7913
  229bbb     H9 6854   7.190   7.010   3.144  2.1704 -1.4512 -2.2896
  229bbb    H10 6855   7.126   6.930   3.004 -0.9381 -1.7465  1.7353
  229bbb     C6 6856   7.171   7.400   3.290 -0.1396  0.2719  0.5309
  229bbb    H11 6857   7.124   7.346   3.372 -1.4007 -0.2109 -0.4675
  229bbb    H12 6858   7.122   7.499   3.290 -0.3131  0.1966 -0.2534
  229bbb     C7 6859   6.666   7.326   3.038 -0.0848 -0.2597 -0.7114
  229bbb    H13 6860   6.679   7.435   3.033 -1.5857 -0.0938 -1.5491
  229bbb    H14 6861   6.567   7.300   3.079  0.4309 -0.4431  0.4680
  229bbb     C8 6862   7.319   7.422   3.326 -0.7885 -0.2271  0.4643
  229bbb    H15 6863   7.366   7.478   3.245  1.5362 -0.7541  1.3923
  229bbb    H16 6864   7.328   7.477   3.421 -0.4642 -1.3522  1.1023
  229bbb     C9 6865   6.995   6.930   3.175  0.2377  0.1288  0.2412
  229bbb    H17 6866   7.046   6.849   3.228 -0.4787 -0.6793 -0.2708
  229bbb    H18 6867   6.916   6.885   3.113  1.1794 -1.9499  0.4676
  229bbb     O1 6868   6.667   7.290   2.898 -1.0888 -0.1896  0.2287
  229bbb    H19 6869   7.005   7.198   3.221 -2.3100  1.1384 -0.4268
  230bbb     N1 6870   6.525   7.891   2.821 -0.2013 -0.0268 -0.2616
  230bbb     C1 6871   6.381   7.931   2.809  0.3473  0.3614 -0.2561
  230bbb     H1 6872   6.365   7.967   2.707 -0.2882 -1.0938 -0.6986
  230bbb     H2 6873   6.359   8.020   2.867  0.2873 -0.4155  0.9363
  230bbb     C2 6874   6.553   7.823   2.961 -0.4530  0.2582  0.2586
  230bbb     H3 6875   6.467   7.757   2.975 -0.6031  0.3369 -0.2886
  230bbb     H4 6876   6.554   7.909   3.028  0.3165  1.7275 -1.5424
  230bbb     C3 6877   6.561   7.802   2.706  0.4229 -0.1339  0.3008
  230bbb     H5 6878   6.471   7.744   2.687  0.8574 -0.5498 -0.5344
  230bbb     H6 6879   6.642   7.737   2.740  0.0849 -0.4331  0.5443
  230bbb     C4 6880   6.594   7.870   2.567  0.0394  0.1479 -1.1026
  230bbb     H7 6881   6.681   7.935   2.578 -0.1742  0.0678  1.8209
  230bbb     H8 6882   6.504   7.930   2.546 -1.3861 -0.9856  1.2944
  230bbb     C5 6883   6.280   7.818   2.841 -0.4722  0.0484  0.2916
  230bbb     H9 6884   6.282   7.796   2.949 -1.3148  5.5068  1.6767
  230bbb    H10 6885   6.310   7.727   2.787 -0.2121  0.0284  0.4691
  230bbb     C6 6886   6.690   7.753   2.983 -0.4335 -0.1951 -0.2934
  230bbb    H11 6887   6.765   7.814   2.932  0.4516 -1.8280 -1.0131
  230bbb    H12 6888   6.692   7.668   2.914  0.4239 -0.9853  0.6932
  230bbb     C7 6889   6.610   7.759   2.455  0.4720  0.4066 -0.6881
  230bbb    H13 6890   6.708   7.711   2.468 -0.4419 -1.2318  0.5344
  230bbb    H14 6891   6.621   7.814   2.361  0.1099 -0.6603 -1.3771
  230bbb     C8 6892   6.724   7.724   3.131  0.5030 -0.1569  1.1370
  230bbb    H15 6893   6.816   7.664   3.133  0.4308 -0.4032 -1.0949
  230bbb    H16 6894   6.750   7.814   3.188  0.4601  0.5327  0.0988
  230bbb     C9 6895   6.131   7.840   2.806  0.1365  0.1201 -0.2793
  230bbb    H17 6896   6.065   7.886   2.881 -1.7738 -1.9330 -0.5915
  230bbb    H18 6897   6.075   7.749   2.782  0.0303  0.3742 -1.0263
  230bbb     O1 6898   6.499   7.668   2.461  0.7503 -0.2563  0.6422
  230bbb    H19 6899   6.591   7.970   2.822 -0.5998  0.3173  1.1338
  231bbb     N1 6900   7.876   6.274   4.891 -0.1420  0.5708  0.3125
  231bbb     C1 6901   7.868   6.124   4.945  0.7140  0.6357  0.2454
  231bbb     H1 6902   7.764   6.095   4.959  0.9429 -0.6166 -0.4504
  231bbb     H2 6903   7.920   6.120   5.041  2.2862  0.9271 -0.5630
  231bbb     C2 6904   8.010   6.336   4.928 -0.7663  0.5423 -0.1955
  231bbb     H3 6905   8.034   6.409   4.851 -1.4125  0.3163 -0.6170
  231bbb     H4 6906   8.082   6.254   4.919 -0.1100  0.9844  0.8800
  231bbb     C3 6907   7.835   6.279   4.742 -0.4277 -0.0163 -0.1427
  231bbb     H5 6908   7.886   6.200   4.685  0.1486  0.2610 -0.0138
  231bbb     H6 6909   7.864   6.378   4.708  0.1080  0.1788  0.8510
  231bbb     C4 6910   7.676   6.274   4.727  0.7467  0.6155  0.5968
  231bbb     H7 6911   7.617   6.356   4.771  1.4134  1.0279  0.7361
  231bbb     H8 6912   7.638   6.177   4.760  0.4954  1.2439  2.2533
  231bbb     C5 6913   7.913   6.016   4.846  0.2027 -0.0451 -0.2690
  231bbb     H9 6914   8.002   6.040   4.787  1.7831  1.5356  2.5374
  231bbb    H10 6915   7.842   5.996   4.765  1.4379 -1.0771 -1.1322
  231bbb     C6 6916   8.008   6.407   5.064 -0.2117 -0.0335  0.3279
  231bbb    H11 6917   8.108   6.405   5.109 -1.5747 -3.7158  3.6692
  231bbb    H12 6918   7.949   6.346   5.132 -2.5312  0.5060 -1.0847
  231bbb     C7 6919   7.640   6.274   4.579  0.7182 -0.7483  0.8485
  231bbb    H13 6920   7.532   6.279   4.557  0.7697 -1.1028  0.4940
  231bbb    H14 6921   7.667   6.179   4.532  1.9756 -0.2391  0.4982
  231bbb     C8 6922   7.946   6.545   5.049  0.0050 -0.9015 -0.6397
  231bbb    H15 6923   7.974   6.590   5.145 -2.2072  0.3369 -0.4885
  231bbb    H16 6924   7.981   6.608   4.967 -0.9427 -0.1464 -0.4879
  231bbb     C9 6925   7.938   5.891   4.922  0.2260 -0.1328  0.6105
  231bbb    H17 6926   7.952   5.808   4.851  2.4592  0.1529  0.6460
  231bbb    H18 6927   7.855   5.856   4.985  0.6573  2.0128  2.4997
  231bbb     O1 6928   7.715   6.385   4.509  0.1553  0.7483  0.0641
  231bbb    H19 6929   7.811   6.324   4.953  0.5155  0.7162  0.8992
  232bbb     N1 6930   8.221   6.444   3.857 -0.3409 -0.3895  0.1019
  232bbb     C1 6931   8.280   6.308   3.874 -0.6135  0.9419 -0.1199
  232bbb     H1 6932   8.273   6.243   3.787  1.9393  0.8036 -0.3125
  232bbb     H2 6933   8.216   6.267   3.952  0.7067 -0.4995  0.2703
  232bbb     C2 6934   8.257   6.514   3.725 -0.0683  0.7294 -0.2746
  232bbb     H3 6935   8.362   6.537   3.712 -0.3018  2.1235  0.1396
  232bbb     H4 6936   8.197   6.605   3.715  1.2166  1.6781  0.4538
  232bbb     C3 6937   8.062   6.445   3.878 -0.5977  0.7768 -0.3327
  232bbb     H5 6938   8.044   6.417   3.982 -0.3425  0.2716 -0.4204
  232bbb     H6 6939   8.013   6.371   3.815 -0.4667  0.8842 -0.5622
  232bbb     C4 6940   7.986   6.580   3.859 -1.2174  0.3720  0.7652
  232bbb     H7 6941   7.880   6.571   3.886 -1.3807 -2.6647 -0.5375
  232bbb     H8 6942   7.983   6.600   3.751  0.2713 -2.1531  0.1546
  232bbb     C5 6943   8.430   6.287   3.925 -0.0415 -0.6641 -0.1515
  232bbb     H9 6944   8.450   6.179   3.932  0.9556 -0.5580 -1.0619
  232bbb    H10 6945   8.436   6.342   4.019 -0.7163  0.4332 -0.7335
  232bbb     C6 6946   8.202   6.428   3.611 -0.5012  0.0393  0.7097
  232bbb    H11 6947   8.095   6.414   3.628 -0.6072 -0.1651 -0.0688
  232bbb    H12 6948   8.243   6.326   3.607 -0.1671  0.1313  1.5974
  232bbb     C7 6949   8.062   6.696   3.932 -0.4811  0.4285 -0.4173
  232bbb    H13 6950   8.010   6.790   3.913  0.2547  0.7467 -0.9123
  232bbb    H14 6951   8.168   6.711   3.909  0.2267 -0.3233  2.0119
  232bbb     C8 6952   8.222   6.499   3.475 -0.3304 -0.3966 -0.1197
  232bbb    H15 6953   8.325   6.536   3.461 -0.4529  0.2035  0.4911
  232bbb    H16 6954   8.209   6.438   3.385 -1.0452  1.7691 -1.5852
  232bbb     C9 6955   8.533   6.346   3.826 -0.9001 -0.1520 -0.5083
  232bbb    H17 6956   8.634   6.310   3.850 -1.0141 -1.0256 -1.2815
  232bbb    H18 6957   8.530   6.455   3.838  0.2289 -0.2719  1.2369
  232bbb     O1 6958   8.042   6.676   4.079  0.6184  0.4872 -0.3125
  232bbb    H19 6959   8.266   6.499   3.932 -2.1452 -1.2178  1.8757
  233bbb     N1 6960   7.737   7.449   4.002 -0.0623 -0.5342  0.0476
  233bbb     C1 6961   7.805   7.363   4.109 -0.3841 -0.1128  0.1869
  233bbb     H1 6962   7.835   7.441   4.179  1.3738 -1.3352  0.8730
  233bbb     H2 6963   7.906   7.336   4.078 -0.3349  1.8681 -1.6331
  233bbb     C2 6964   7.834   7.546   3.947 -0.5874  0.0911 -0.0565
  233bbb     H3 6965   7.892   7.491   3.872 -1.3753 -1.3412  0.3699
  233bbb     H4 6966   7.909   7.576   4.020 -0.9406 -1.1289  0.8259
  233bbb     C3 6967   7.674   7.369   3.891 -0.1320  0.6837  0.3754
  233bbb     H5 6968   7.611   7.436   3.832 -0.2466  0.6129  0.4171
  233bbb     H6 6969   7.617   7.289   3.937 -2.4285  1.8301 -0.3193
  233bbb     C4 6970   7.762   7.299   3.787 -0.0366 -0.4780 -0.1537
  233bbb     H7 6971   7.852   7.254   3.830 -0.3278 -1.3823 -0.4791
  233bbb     H8 6972   7.783   7.381   3.716 -0.8234 -0.6561 -0.5959
  233bbb     C5 6973   7.725   7.270   4.200  0.2368  0.7268  0.2946
  233bbb     H9 6974   7.711   7.170   4.157  0.1356  0.1576  1.5970
  233bbb    H10 6975   7.623   7.306   4.219  0.1695  0.6646  0.0544
  233bbb     C6 6976   7.764   7.670   3.884 -0.1191  0.6459  0.3451
  233bbb    H11 6977   7.700   7.736   3.944 -0.7719  0.3766 -0.0409
  233bbb    H12 6978   7.698   7.636   3.803 -0.0135 -1.2618  1.0070
  233bbb     C7 6979   7.672   7.200   3.714  0.6383 -0.0056  0.3801
  233bbb    H13 6980   7.671   7.110   3.778  1.7015 -1.2149 -1.2215
  233bbb    H14 6981   7.725   7.167   3.624  1.5248  0.2280  0.8040
  233bbb     C8 6982   7.873   7.748   3.804  0.3645 -0.0861 -0.1821
  233bbb    H15 6983   7.924   7.679   3.736 -1.7514 -1.8206 -0.1274
  233bbb    H16 6984   7.819   7.828   3.752 -0.9769  0.3812  1.8160
  233bbb     C9 6985   7.794   7.254   4.337  0.2513 -0.1858 -0.2697
  233bbb    H17 6986   7.813   7.351   4.384  0.5962 -0.3035 -0.1680
  233bbb    H18 6987   7.893   7.207   4.329  0.3680  0.1487 -0.8571
  233bbb     O1 6988   7.538   7.256   3.695 -0.2027 -0.4792 -0.2302
  233bbb    H19 6989   7.658   7.498   4.047  1.3365  0.9915  0.9404
  234bbb     N1 6990   7.302   7.699   4.574 -0.2954  0.4495  0.0505
  234bbb     C1 6991   7.345   7.793   4.687  0.6994  0.4863 -0.1644
  234bbb     H1 6992   7.254   7.824   4.740  0.1126  2.0747 -1.9797
  234bbb     H2 6993   7.368   7.890   4.643 -0.5351  0.0855 -1.8086
  234bbb     C2 6994   7.183   7.765   4.500 -0.2531 -0.2048 -0.3501
  234bbb     H3 6995   7.230   7.857   4.465 -1.3123  0.1684 -0.8637
  234bbb     H4 6996   7.111   7.789   4.578 -2.5394  0.1268 -2.4186
  234bbb     C3 6997   7.420   7.678   4.481 -0.5783 -0.7050  0.2980
  234bbb     H5 6998   7.495   7.755   4.502 -0.6251 -0.1023 -1.5437
  234bbb     H6 6999   7.386   7.701   4.380 -0.0468  2.9481  0.8194
  234bbb     C4 7000   7.503   7.545   4.493 -0.8219  0.5793 -0.2681
  234bbb     H7 7001   7.528   7.529   4.599  0.4298 -1.7203 -0.8548
  234bbb     H8 7002   7.594   7.552   4.432  2.5955 -0.0683  4.1787
  234bbb     C5 7003   7.456   7.744   4.784 -0.7875 -0.9526 -0.4801
  234bbb     H9 7004   7.485   7.824   4.853 -2.0291 -1.1137  0.2510
  234bbb    H10 7005   7.554   7.721   4.740  0.3230  0.0675  1.3418
  234bbb     C6 7006   7.120   7.693   4.379 -0.1582  0.1968 -0.1768
  234bbb    H11 7007   7.183   7.616   4.333 -0.1798  0.1360 -0.1060
  234bbb    H12 7008   7.097   7.778   4.314  0.0818  1.6725  1.5991
  234bbb     C7 7009   7.416   7.419   4.466 -0.0378  0.5653 -0.4684
  234bbb    H13 7010   7.322   7.414   4.521  0.3518 -0.1437  0.1407
  234bbb    H14 7011   7.474   7.328   4.484  2.1028  1.8963 -0.1892
  234bbb     C8 7012   6.991   7.621   4.415 -0.2222 -0.1388  0.7457
  234bbb    H15 7013   6.924   7.680   4.478  0.7270  2.5394 -0.6050
  234bbb    H16 7014   6.945   7.607   4.317  1.4179  0.9690 -0.2364
  234bbb     C9 7015   7.404   7.634   4.880 -0.3498 -0.2732 -0.3134
  234bbb    H17 7016   7.312   7.655   4.935 -1.0985 -1.7012 -0.9639
  234bbb    H18 7017   7.483   7.619   4.954 -0.9778 -2.2246  0.0194
  234bbb     O1 7018   7.384   7.432   4.323 -0.1930 -0.3359  0.0645
  234bbb    H19 7019   7.279   7.604   4.607 -0.0914  0.4844  0.3043
  235bbb     N1 7020   6.900   5.122   5.054 -0.2659 -0.4027 -0.5828
  235bbb     C1 7021   6.989   5.006   5.079  0.0212 -0.1893  0.6228
  235bbb     H1 7022   7.084   5.043   5.117 -0.8567  0.3079  2.4197
  235bbb     H2 7023   7.012   4.968   4.979  1.0175  3.3253 -0.6598
  235bbb     C2 7024   6.877   5.207   5.179 -0.4758 -0.0714 -0.2473
  235bbb     H3 7025   6.826   5.141   5.249  0.4785 -0.8972 -0.3089
  235bbb     H4 7026   6.815   5.288   5.141  0.2883  0.1521 -1.0620
  235bbb     C3 7027   6.968   5.208   4.954 -0.3465  0.1222  0.6233
  235bbb     H5 7028   6.986   5.139   4.871 -0.2840 -0.4224  1.0824
  235bbb     H6 7029   7.070   5.227   4.985 -0.7686  3.2914  0.3682
  235bbb     C4 7030   6.901   5.328   4.889  0.1976 -0.0263 -0.2284
  235bbb     H7 7031   6.976   5.385   4.832 -0.4858  1.2149  0.0679
  235bbb     H8 7032   6.868   5.395   4.969 -0.1144 -3.0700  2.3533
  235bbb     C5 7033   6.942   4.895   5.169  0.3201  0.1007 -1.1036
  235bbb     H9 7034   6.853   4.838   5.138 -0.6586  1.0281 -0.1030
  235bbb    H10 7035   6.909   4.933   5.267  1.0907 -3.1737  0.5675
  235bbb     C6 7036   6.998   5.269   5.255 -0.2486  0.8690  0.4513
  235bbb    H11 7037   7.015   5.375   5.229  0.6390  1.2402  2.4189
  235bbb    H12 7038   7.090   5.212   5.241 -0.2186  0.3129  2.5882
  235bbb     C7 7039   6.782   5.296   4.802 -0.0313  0.0081  0.1444
  235bbb    H13 7040   6.750   5.379   4.738 -0.6132  0.0260  0.4540
  235bbb    H14 7041   6.701   5.270   4.872 -0.5509  0.7069 -0.1820
  235bbb     C8 7042   6.967   5.263   5.401 -0.9108 -0.3832  0.1746
  235bbb    H15 7043   7.048   5.311   5.458 -2.0695  1.6660  0.1883
  235bbb    H16 7044   6.872   5.314   5.420 -1.2842 -1.0816  0.2343
  235bbb     C9 7045   7.058   4.795   5.187  0.8008  0.5885 -0.0419
  235bbb    H17 7046   7.066   4.737   5.094  2.5374  3.0455 -1.5451
  235bbb    H18 7047   7.027   4.730   5.270  1.5262 -0.2142 -0.3736
  235bbb     O1 7048   6.816   5.180   4.719  0.7024 -0.2012  0.3419
  235bbb    H19 7049   6.810   5.093   5.013  0.3413 -2.0145 -0.8681
  236bbb     N1 7050   6.559   4.288   3.989 -0.2012 -0.3677  0.6655
  236bbb     C1 7051   6.512   4.165   3.911  0.4746  0.1610  0.2302
  236bbb     H1 7052   6.556   4.175   3.812 -1.6978  1.4702 -0.6691
  236bbb     H2 7053   6.403   4.175   3.907  0.3707 -1.2645 -2.6588
  236bbb     C2 7054   6.488   4.298   4.123 -0.0396  0.5504 -0.1505
  236bbb     H3 7055   6.532   4.385   4.172 -0.3519 -0.0132  1.1918
  236bbb     H4 7056   6.525   4.211   4.178  1.0256  0.2585 -1.2802
  236bbb     C3 7057   6.709   4.291   4.007  0.1403 -0.1219 -0.4032
  236bbb     H5 7058   6.737   4.273   3.903  0.8259 -3.6670  0.2696
  236bbb     H6 7059   6.747   4.201   4.057 -1.1738 -0.4083  0.1332
  236bbb     C4 7060   6.774   4.418   4.060 -0.1736  0.4713  0.4487
  236bbb     H7 7061   6.880   4.405   4.085  0.1264  2.4037  0.3213
  236bbb     H8 7062   6.717   4.454   4.147 -1.1352  1.8472 -0.7190
  236bbb     C5 7063   6.548   4.029   3.974  0.2056 -0.0322  0.0070
  236bbb     H9 7064   6.516   4.031   4.079  0.0537  3.4413  0.0038
  236bbb    H10 7065   6.655   4.010   3.990  0.1264 -0.2627  0.2747
  236bbb     C6 7066   6.334   4.313   4.115  0.0169 -0.5261  0.1865
  236bbb    H11 7067   6.286   4.219   4.087  0.1235  0.2805 -3.0505
  236bbb    H12 7068   6.296   4.380   4.038  1.2397  1.3507  1.1183
  236bbb     C7 7069   6.768   4.540   3.964  0.3931  0.2281 -0.5787
  236bbb    H13 7070   6.664   4.569   3.943  0.5077 -1.1468 -3.7444
  236bbb    H14 7071   6.800   4.503   3.865  0.4243  2.4278 -1.4546
  236bbb     C8 7072   6.285   4.348   4.256  0.4004 -0.4614 -0.1383
  236bbb    H15 7073   6.333   4.289   4.335 -0.3356  0.4091  0.9867
  236bbb    H16 7074   6.304   4.452   4.284 -0.1026 -0.5028  0.3845
  236bbb     C9 7075   6.495   3.908   3.904  0.7568 -0.4570 -0.4186
  236bbb    H17 7076   6.492   3.830   3.981 -2.4935 -0.2283 -0.1617
  236bbb    H18 7077   6.549   3.886   3.810 -0.3042  1.0120 -1.4123
  236bbb     O1 7078   6.845   4.656   4.000  0.1758 -0.4762  0.0172
  236bbb    H19 7079   6.534   4.373   3.937 -0.2662 -0.2799  0.8414
  237bbb     N1 7080   7.669   4.913   4.489  0.4047  0.1403 -0.8287
  237bbb     C1 7081   7.623   4.834   4.372  0.1279  0.2090  0.3435
  237bbb     H1 7082   7.644   4.896   4.285  1.4977 -1.0768 -0.2655
  237bbb     H2 7083   7.515   4.818   4.377  0.2900 -1.2767 -0.4638
  237bbb     C2 7084   7.818   4.923   4.482 -0.0572 -1.1444 -0.1924
  237bbb     H3 7085   7.849   5.000   4.412  2.6076 -2.1211 -0.2179
  237bbb     H4 7086   7.851   4.826   4.442  0.4220 -0.4647 -1.4932
  237bbb     C3 7087   7.610   5.057   4.491  0.1474  0.3753  0.6844
  237bbb     H5 7088   7.637   5.117   4.404 -1.6225 -0.7689 -0.7185
  237bbb     H6 7089   7.651   5.109   4.578  1.0130  1.7714 -0.5145
  237bbb     C4 7090   7.455   5.062   4.507 -0.1845  0.3260  0.3874
  237bbb     H7 7091   7.415   4.975   4.560  1.3391  0.1070  1.2454
  237bbb     H8 7092   7.417   5.071   4.404  0.1649 -0.5111  0.1720
  237bbb     C5 7093   7.684   4.691   4.357 -0.0865  0.5412 -0.4121
  237bbb     H9 7094   7.794   4.693   4.347  0.0906  1.1362  1.2763
  237bbb    H10 7095   7.645   4.648   4.264  1.0995  0.6077 -0.9715
  237bbb     C6 7096   7.887   4.942   4.619 -0.1363 -0.4027 -0.0531
  237bbb    H11 7097   7.860   4.864   4.692 -0.1042 -1.0688 -0.7339
  237bbb    H12 7098   7.850   5.039   4.655 -0.2580 -0.7277  0.7175
  237bbb     C7 7099   7.403   5.183   4.582 -0.7170  0.5154  0.2392
  237bbb    H13 7100   7.442   5.169   4.684  0.1693 -1.3313 -0.3156
  237bbb    H14 7101   7.294   5.177   4.571 -0.5270 -3.4320 -1.3515
  237bbb     C8 7102   8.040   4.939   4.610 -0.3126  0.5522  0.2115
  237bbb    H15 7103   8.075   4.939   4.713  1.6759 -2.6725 -0.3143
  237bbb    H16 7104   8.073   4.842   4.568  0.8717  1.6353 -1.4924
  237bbb     C9 7105   7.644   4.598   4.479 -0.3363 -0.7189  0.3022
  237bbb    H17 7106   7.686   4.499   4.458  1.7314  0.8130 -4.0898
  237bbb    H18 7107   7.536   4.593   4.495 -0.0896  1.4392  3.4436
  237bbb     O1 7108   7.449   5.303   4.523 -0.2140 -0.3486 -0.5879
  237bbb    H19 7109   7.645   4.862   4.576 -0.7350  0.8605 -0.6955
  238bbb     N1 7110   7.892   5.526   4.565 -0.5365 -0.1401  0.5444
  238bbb     C1 7111   7.881   5.428   4.684  0.3390  0.4412 -0.0571
  238bbb     H1 7112   7.899   5.490   4.772  0.2489 -0.0863  0.3389
  238bbb     H2 7113   7.962   5.355   4.674  0.5240  0.4913  0.9666
  238bbb     C2 7114   8.031   5.593   4.571 -0.1552  0.3635 -0.2817
  238bbb     H3 7115   8.102   5.513   4.550  1.7875  0.9772  3.2203
  238bbb     H4 7116   8.047   5.629   4.672 -1.3156  3.6208 -1.1540
  238bbb     C3 7117   7.863   5.465   4.425 -0.2572  0.3977 -0.3152
  238bbb     H5 7118   7.888   5.542   4.351  2.3399  0.1034  0.1838
  238bbb     H6 7119   7.759   5.435   4.408  0.4725 -0.6330 -3.9522
  238bbb     C4 7120   7.943   5.335   4.395 -0.4908  0.6484  0.0845
  238bbb     H7 7121   7.920   5.255   4.466  4.6524 -0.7032  0.6287
  238bbb     H8 7122   8.050   5.357   4.403 -0.2485  0.2753 -1.7468
  238bbb     C5 7123   7.742   5.356   4.704  0.8083  0.0739 -0.2749
  238bbb     H9 7124   7.722   5.281   4.626  0.0403  0.2875 -0.2855
  238bbb    H10 7125   7.655   5.422   4.704 -0.3171 -1.3353 -0.8499
  238bbb     C6 7126   8.043   5.709   4.471  0.5002  0.1904 -0.0701
  238bbb    H11 7127   7.971   5.790   4.485  1.3977  1.1057 -0.6626
  238bbb    H12 7128   8.039   5.679   4.365  2.8968  0.4824 -0.3036
  238bbb     C7 7129   7.917   5.287   4.251 -0.3089 -0.5907 -0.1657
  238bbb    H13 7130   7.983   5.202   4.229 -0.0446 -0.6837  0.9213
  238bbb    H14 7131   7.940   5.361   4.173 -0.3581  0.7809  1.0725
  238bbb     C8 7132   8.189   5.761   4.493 -0.0275  0.1062 -0.2141
  238bbb    H15 7133   8.266   5.684   4.501 -0.5207 -0.2163  2.1171
  238bbb    H16 7134   8.224   5.828   4.413  1.5579  0.4740  0.7336
  238bbb     C9 7135   7.740   5.278   4.839 -0.1258  0.5921  0.2828
  238bbb    H17 7136   7.651   5.214   4.847 -2.3096  3.2651 -1.0480
  238bbb    H18 7137   7.731   5.344   4.926 -0.1569  0.6818  0.2107
  238bbb     O1 7138   7.783   5.258   4.246  0.3723 -0.2344 -0.0914
  238bbb    H19 7139   7.832   5.607   4.585  1.7675  1.3638  1.8408
  239bbb     N1 7140   5.518   3.880   0.629 -0.6569 -0.6890  0.0709
  239bbb     C1 7141   5.436   3.828   0.749  0.4187  0.3955  0.1827
  239bbb     H1 7142   5.413   3.726   0.719  3.6826 -0.0707 -1.1390
  239bbb     H2 7143   5.341   3.882   0.760  0.8732  0.9038  2.0601
  239bbb     C2 7144   5.639   3.790   0.602  0.2947 -0.1048  0.3812
  239bbb     H3 7145   5.607   3.686   0.604 -1.7541  0.4792  0.4764
  239bbb     H4 7146   5.703   3.802   0.689  1.5469  0.6552 -0.6062
  239bbb     C3 7147   5.426   3.887   0.506  0.4392  0.1773 -0.0883
  239bbb     H5 7148   5.481   3.937   0.426  1.5191  1.0102  1.1321
  239bbb     H6 7149   5.342   3.952   0.529 -0.8042 -0.3161 -2.8653
  239bbb     C4 7150   5.379   3.745   0.451 -0.4945 -0.6883  0.0016
  239bbb     H7 7151   5.338   3.688   0.535  2.4718 -0.2643  1.8885
  239bbb     H8 7152   5.463   3.689   0.409  0.0232  0.6442 -0.8306
  239bbb     C5 7153   5.505   3.837   0.888  0.3672 -0.4585 -0.2792
  239bbb     H9 7154   5.549   3.937   0.899  0.5324 -0.6509  0.9582
  239bbb    H10 7155   5.589   3.765   0.883 -0.3788 -1.2857 -1.4141
  239bbb     C6 7156   5.709   3.818   0.469 -0.0564 -0.1249 -0.6304
  239bbb    H11 7157   5.772   3.907   0.482  2.0893 -1.7905  1.1387
  239bbb    H12 7158   5.639   3.832   0.386 -0.6824  0.6726  0.0125
  239bbb     C7 7159   5.286   3.774   0.328  0.2736  0.6205 -0.3426
  239bbb    H13 7160   5.246   3.678   0.293  0.4399  1.3660 -2.7601
  239bbb    H14 7161   5.345   3.829   0.253  1.2826  0.3564  0.2513
  239bbb     C8 7162   5.815   3.703   0.445  0.8169 -0.0480  0.4125
  239bbb    H15 7163   5.877   3.740   0.362 -1.4534  1.6504 -0.6536
  239bbb    H16 7164   5.861   3.685   0.542  0.5790 -0.6068  0.4260
  239bbb     C9 7165   5.412   3.824   1.010 -0.2075 -0.2376 -0.6124
  239bbb    H17 7166   5.480   3.800   1.092 -2.1423 -0.5255  1.0025
  239bbb    H18 7167   5.336   3.745   0.999 -0.8419  0.2746  0.0006
  239bbb     O1 7168   5.175   3.850   0.385  0.1341 -0.1592 -0.1212
  239bbb    H19 7169   5.545   3.976   0.657 -0.3188 -0.5735 -0.6240
  240bbb     N1 7170   5.487   3.917  -0.179  0.7069 -0.0299  0.3162
  240bbb     C1 7171   5.460   3.765  -0.164 -0.5397 -0.4504 -0.3142
  240bbb     H1 7172   5.414   3.748  -0.066  1.5313 -1.0091  0.6072
  240bbb     H2 7173   5.555   3.715  -0.152  0.6447  1.9047  0.9384
  240bbb     C2 7174   5.585   3.946  -0.299  0.2171 -0.0682 -0.2569
  240bbb     H3 7175   5.597   4.055  -0.296  0.8562 -0.1338  1.5856
  240bbb     H4 7176   5.548   3.912  -0.395  3.1135 -1.6520 -0.9444
  240bbb     C3 7177   5.362   3.995  -0.222 -0.0143  0.2012 -0.5731
  240bbb     H5 7178   5.303   3.957  -0.306 -3.1446  2.6934  0.2887
  240bbb     H6 7179   5.397   4.094  -0.254 -0.2493  0.6961  0.6559
  240bbb     C4 7180   5.257   4.000  -0.100 -0.3263 -0.1581  0.8276
  240bbb     H7 7181   5.313   4.060  -0.027  1.2128 -0.0645 -0.3970
  240bbb     H8 7182   5.239   3.894  -0.080 -0.4647 -0.1709  0.6395
  240bbb     C5 7183   5.379   3.708  -0.280 -0.9248  0.5570  0.6064
  240bbb     H9 7184   5.439   3.706  -0.371  0.9617 -0.9785  1.8153
  240bbb    H10 7185   5.292   3.766  -0.313  0.7684  3.3213  0.7010
  240bbb     C6 7186   5.729   3.889  -0.281 -0.2288  0.2043  0.6387
  240bbb    H11 7187   5.798   3.901  -0.367  0.4618 -1.8913  0.8293
  240bbb    H12 7188   5.732   3.780  -0.270 -2.0650  0.0575  0.0195
  240bbb     C7 7189   5.125   4.068  -0.133 -0.3237  0.0811  1.3372
  240bbb    H13 7190   5.091   4.014  -0.222  0.2297  0.2571  1.0157
  240bbb    H14 7191   5.129   4.174  -0.161 -0.9174 -0.1040  0.5040
  240bbb     C8 7192   5.807   3.951  -0.162 -0.0244  0.5572 -0.6215
  240bbb    H15 7193   5.748   3.982  -0.075 -0.0865  0.4949 -0.6407
  240bbb    H16 7194   5.883   3.881  -0.125  0.5735  1.2568 -0.5205
  240bbb     C9 7195   5.342   3.562  -0.255 -0.3275  0.0362 -0.6999
  240bbb    H17 7196   5.280   3.516  -0.334  0.5016 -1.7280 -0.3738
  240bbb    H18 7197   5.291   3.556  -0.158  2.9653  0.4087  1.1907
  240bbb     O1 7198   5.040   4.052  -0.021  0.4361  0.5198  0.7630
  240bbb    H19 7199   5.521   3.956  -0.090 -0.2204 -0.4571  0.8670
  241bbb     N1 7200   5.603   5.236   0.052 -0.4201 -0.0038  0.2062
  241bbb     C1 7201   5.653   5.145  -0.062  0.4643 -0.4991 -0.4460
  241bbb     H1 7202   5.583   5.165  -0.144 -0.6157 -0.4534  0.4581
  241bbb     H2 7203   5.640   5.044  -0.025 -2.6953  0.7317  2.3250
  241bbb     C2 7204   5.604   5.381   0.024  0.1517 -0.4753 -0.1198
  241bbb     H3 7205   5.538   5.397  -0.062 -0.7601  1.6515  0.9074
  241bbb     H4 7206   5.703   5.415  -0.007 -0.1585  0.1337 -0.4693
  241bbb     C3 7207   5.463   5.195   0.084 -0.4282  0.1824 -0.1726
  241bbb     H5 7208   5.454   5.096   0.038 -0.1773  0.4553 -0.8169
  241bbb     H6 7209   5.391   5.263   0.040 -1.3187 -0.2624  0.5498
  241bbb     C4 7210   5.437   5.180   0.237 -0.2554 -0.3532  0.1972
  241bbb     H7 7211   5.409   5.274   0.287  2.5044  0.3565  0.5996
  241bbb     H8 7212   5.527   5.144   0.288 -0.9189  0.9555  2.4629
  241bbb     C5 7213   5.795   5.167  -0.113  0.0939 -0.3497 -0.4061
  241bbb     H9 7214   5.870   5.137  -0.039 -0.2265 -0.1279  0.0188
  241bbb    H10 7215   5.815   5.270  -0.144 -1.5229 -0.5107 -2.1393
  241bbb     C6 7216   5.562   5.467   0.145  0.1627  0.5985 -0.3507
  241bbb    H11 7217   5.604   5.427   0.238 -1.9579 -3.1480 -0.7958
  241bbb    H12 7218   5.455   5.490   0.160 -0.1418 -0.2133 -1.1401
  241bbb     C7 7219   5.339   5.067   0.266  0.2395  0.2435 -0.8127
  241bbb    H13 7220   5.311   5.058   0.372  1.2882 -0.1451 -0.5579
  241bbb    H14 7221   5.387   4.970   0.249 -2.0263 -1.1605  0.4070
  241bbb     C8 7222   5.621   5.609   0.124 -0.2909 -0.2388 -0.4722
  241bbb    H15 7223   5.589   5.661   0.215 -2.3498 -0.4392 -1.0222
  241bbb    H16 7224   5.730   5.602   0.115  0.0626 -0.8809  2.7871
  241bbb     C9 7225   5.823   5.077  -0.233  0.1831  0.7255  0.5023
  241bbb    H17 7226   5.912   5.115  -0.284  0.4450  0.8869  1.0829
  241bbb    H18 7227   5.744   5.079  -0.309 -0.4925 -0.2257  1.1567
  241bbb     O1 7228   5.218   5.080   0.185  0.5742 -0.1050  0.0574
  241bbb    H19 7229   5.662   5.216   0.133 -1.3602 -1.6104  0.5225
  242bbb     N1 7230   4.640   5.231  -0.432  0.1852 -0.5159 -0.6652
  242bbb     C1 7231   4.778   5.262  -0.494  0.3711 -0.1867 -0.1125
  242bbb     H1 7232   4.851   5.192  -0.454 -2.3435 -1.7636  2.4883
  242bbb     H2 7233   4.805   5.366  -0.471  0.0279  0.3289 -1.8698
  242bbb     C2 7234   4.610   5.082  -0.424 -0.2128  0.5215 -0.4187
  242bbb     H3 7235   4.662   5.037  -0.340 -1.1097 -1.0917 -0.6829
  242bbb     H4 7236   4.663   5.044  -0.511  0.6242 -0.0707  0.3314
  242bbb     C3 7237   4.640   5.290  -0.298  0.1392  0.0689  0.1515
  242bbb     H5 7238   4.698   5.382  -0.304 -2.3068  1.7206  0.5200
  242bbb     H6 7239   4.695   5.225  -0.230  1.4359 -0.3732 -1.2734
  242bbb     C4 7240   4.497   5.340  -0.246 -0.0897  0.4860 -0.1110
  242bbb     H7 7241   4.438   5.249  -0.225  1.9594 -0.4800  1.8985
  242bbb     H8 7242   4.463   5.399  -0.331  0.8657  0.1030 -0.7776
  242bbb     C5 7243   4.780   5.253  -0.648  0.9545 -0.5057  0.2004
  242bbb     H9 7244   4.723   5.171  -0.692  0.1664 -0.0528  0.3616
  242bbb    H10 7245   4.878   5.239  -0.695  0.4652 -2.2922 -0.3429
  242bbb     C6 7246   4.461   5.028  -0.419 -0.1033  0.0801  0.4896
  242bbb    H11 7247   4.397   5.068  -0.339  2.2697  1.3389  1.8891
  242bbb    H12 7248   4.467   4.919  -0.416  1.7898  0.0824 -0.9041
  242bbb     C7 7249   4.506   5.408  -0.112 -0.1172  0.1384  0.0809
  242bbb    H13 7250   4.406   5.422  -0.068 -0.6063  0.8588 -1.2198
  242bbb    H14 7251   4.551   5.507  -0.126 -1.9877  1.6976  3.6810
  242bbb     C8 7252   4.399   5.056  -0.559 -0.4888 -0.2110  0.1421
  242bbb    H15 7253   4.302   5.010  -0.580 -1.2447  0.3623  2.0986
  242bbb    H16 7254   4.390   5.165  -0.566  1.6429 -0.0022 -0.0991
  242bbb     C9 7255   4.718   5.385  -0.701 -0.0539  0.3167  0.4350
  242bbb    H17 7256   4.745   5.401  -0.806 -1.6507 -0.3321 -0.1019
  242bbb    H18 7257   4.748   5.477  -0.650 -0.0491  0.4981  0.1061
  242bbb     O1 7258   4.597   5.328  -0.027 -0.2059  0.3707  0.2011
  242bbb    H19 7259   4.570   5.273  -0.495  0.0731  0.2582 -0.0395
  243bbb     N1 7260   6.782   4.065   0.241 -0.0425 -0.0224 -0.3981
  243bbb     C1 7261   6.940   4.066   0.243  0.8344  0.4127 -0.5450
  243bbb     H1 7262   6.961   4.164   0.201  2.1782  0.5438  0.3463
  243bbb     H2 7263   6.975   3.982   0.183  2.4293 -0.7468  1.8173
  243bbb     C2 7264   6.733   4.108   0.102 -0.1489 -0.8506 -0.0254
  243bbb     H3 7265   6.769   4.211   0.093 -2.1434  0.1220  2.1443
  243bbb     H4 7266   6.624   4.108   0.111 -0.0119  0.4983  2.3335
  243bbb     C3 7267   6.750   3.926   0.291 -0.3299  0.5176  0.5974
  243bbb     H5 7268   6.788   3.914   0.392 -2.2696 -1.3823  1.1641
  243bbb     H6 7269   6.806   3.856   0.229 -0.6290  0.1991  0.6822
  243bbb     C4 7270   6.608   3.885   0.274  0.3828 -0.3887 -0.5172
  243bbb     H7 7271   6.597   3.781   0.306  0.2844 -0.0071  0.7363
  243bbb     H8 7272   6.585   3.882   0.167 -0.9288 -0.6264 -0.2489
  243bbb     C5 7273   7.019   4.066   0.376  0.2792  0.6289  0.3912
  243bbb     H9 7274   7.124   4.088   0.353  0.8170 -2.0974 -0.1567
  243bbb    H10 7275   7.002   3.970   0.426 -1.9081  1.9339  2.3403
  243bbb     C6 7276   6.785   4.025  -0.022 -0.4521 -1.1441 -0.0278
  243bbb    H11 7277   6.731   3.929  -0.018 -0.3168 -1.1804  2.0922
  243bbb    H12 7278   6.887   3.992  -0.003  0.4118  1.8772  1.1275
  243bbb     C7 7279   6.498   3.973   0.351  0.0640  0.7176 -0.0349
  243bbb    H13 7280   6.402   3.924   0.336  1.0133 -0.6265 -2.1971
  243bbb    H14 7281   6.500   4.077   0.316  3.3622  0.8398  0.2099
  243bbb     C8 7282   6.766   4.095  -0.159  0.3334  0.0061  0.3417
  243bbb    H15 7283   6.832   4.182  -0.170  1.7196 -0.9612  0.7621
  243bbb    H16 7284   6.789   4.028  -0.242  1.8199  0.2499  0.5335
  243bbb     C9 7285   6.977   4.175   0.472  0.0130 -0.2196 -0.2004
  243bbb    H17 7286   6.972   4.274   0.424 -1.0838 -0.3478 -0.3730
  243bbb    H18 7287   7.056   4.186   0.548  0.4849 -2.3744 -0.3322
  243bbb     O1 7288   6.526   3.979   0.496  1.0880 -1.2996 -0.0895
  243bbb    H19 7289   6.758   4.129   0.319 -0.3259  0.1747 -0.6445
  244bbb     N1 7290   6.476   3.158   1.376 -0.0090 -0.2084  0.0596
  244bbb     C1 7291   6.573   3.155   1.262 -0.6465  0.0654  0.5733
  244bbb     H1 7292   6.606   3.256   1.238  0.3916 -0.7105 -1.4738
  244bbb     H2 7293   6.512   3.118   1.180 -0.7763 -0.5104  0.9222
  244bbb     C2 7294   6.543   3.197   1.509  0.1641 -0.5261  0.1336
  244bbb     H3 7295   6.575   3.299   1.489 -1.4042  0.0253  0.3704
  244bbb     H4 7296   6.630   3.131   1.517  1.0111  0.5165 -0.2344
  244bbb     C3 7297   6.366   3.267   1.339 -1.0886  0.6340 -0.2411
  244bbb     H5 7298   6.409   3.366   1.357  0.2062 -0.2306  1.8161
  244bbb     H6 7299   6.290   3.248   1.415 -0.3614  0.4883  0.4699
  244bbb     C4 7300   6.308   3.269   1.197  0.2324  0.1490  0.2093
  244bbb     H7 7301   6.281   3.165   1.175 -1.3003  0.6035 -0.1685
  244bbb     H8 7302   6.383   3.302   1.123  0.7777  0.7725  1.0267
  244bbb     C5 7303   6.701   3.070   1.275 -0.5649 -0.0098 -0.2498
  244bbb     H9 7304   6.752   3.096   1.368  0.5289  1.4668 -1.2144
  244bbb    H10 7305   6.776   3.090   1.197 -0.1581 -1.6215 -0.3196
  244bbb     C6 7306   6.456   3.176   1.633  0.0474  0.1587  0.6383
  244bbb    H11 7307   6.425   3.071   1.636  0.2901  0.0950  1.0201
  244bbb    H12 7308   6.368   3.238   1.654  1.0309  0.7144  3.6565
  244bbb     C7 7309   6.189   3.358   1.160  0.9182  0.7874 -0.1610
  244bbb    H13 7310   6.129   3.357   1.252  0.8278  0.2439 -0.2257
  244bbb    H14 7311   6.127   3.305   1.087 -0.4162  0.7581  0.9559
  244bbb     C8 7312   6.541   3.176   1.762 -0.1000 -0.8223  0.3711
  244bbb    H15 7313   6.579   3.279   1.773 -3.4059  0.5385  0.2070
  244bbb    H16 7314   6.487   3.153   1.855  2.3629  0.4251  2.2149
  244bbb     C9 7315   6.665   2.924   1.277 -0.2038  0.7834 -0.0881
  244bbb    H17 7316   6.755   2.861   1.269 -0.5792  0.2914 -0.5239
  244bbb    H18 7317   6.612   2.894   1.186  0.0816  0.4312 -0.1424
  244bbb     O1 7318   6.232   3.489   1.115 -0.2196 -0.3143  0.0057
  244bbb    H19 7319   6.430   3.067   1.393  2.0170 -1.2356  0.3253
  245bbb     N1 7320   6.262   3.769   1.740  0.0760 -0.2865  0.0186
  245bbb     C1 7321   6.415   3.775   1.762  0.6154  0.1966  0.4602
  245bbb     H1 7322   6.447   3.855   1.696 -1.8877 -0.9047 -2.2948
  245bbb     H2 7323   6.456   3.682   1.723 -1.0094 -0.9171  1.3025
  245bbb     C2 7324   6.192   3.658   1.822 -0.2591  0.5128  0.9929
  245bbb     H3 7325   6.089   3.653   1.787  0.7300 -1.8794 -1.9542
  245bbb     H4 7326   6.201   3.683   1.928  3.0609 -2.4418  1.6223
  245bbb     C3 7327   6.208   3.909   1.764 -0.4383  0.6164  0.0010
  245bbb     H5 7328   6.282   3.968   1.709  0.8551 -0.9672 -0.0482
  245bbb     H6 7329   6.210   3.940   1.868  2.3442  1.8987 -0.3149
  245bbb     C4 7330   6.072   3.948   1.706 -0.1111 -0.1231 -0.1293
  245bbb     H7 7331   5.999   3.868   1.724 -0.2178 -0.3232 -1.3692
  245bbb     H8 7332   6.070   3.952   1.597 -0.5184 -1.2352 -0.1829
  245bbb     C5 7333   6.455   3.838   1.900  0.1878  0.1857 -0.3358
  245bbb     H9 7334   6.412   3.780   1.982  0.2294  1.1515  0.3875
  245bbb    H10 7335   6.418   3.941   1.906 -0.8896 -0.2194  0.1281
  245bbb     C6 7336   6.250   3.513   1.807  0.0654 -0.1080 -0.2470
  245bbb    H11 7337   6.330   3.494   1.880 -0.8179 -0.0059  0.7846
  245bbb    H12 7338   6.285   3.499   1.704  2.8855  2.7700  0.1380
  245bbb     C7 7339   6.023   4.084   1.753  0.3637  0.7945 -0.3685
  245bbb    H13 7340   6.063   4.165   1.691  2.6018 -0.1361 -0.2468
  245bbb    H14 7341   6.049   4.100   1.859 -1.4847  1.1324  0.0641
  245bbb     C8 7342   6.139   3.409   1.828 -0.1008 -0.5833 -0.0841
  245bbb    H15 7343   6.196   3.316   1.840  1.4098  0.2452 -0.5140
  245bbb    H16 7344   6.072   3.432   1.912  0.1871  2.6529 -0.5981
  245bbb     C9 7345   6.607   3.835   1.917 -0.3542  0.2163  0.5288
  245bbb    H17 7346   6.657   3.741   1.892 -0.3738  0.5082 -0.6683
  245bbb    H18 7347   6.634   3.868   2.018 -2.5540  2.2584  0.5408
  245bbb     O1 7348   5.877   4.093   1.755 -0.1171  0.0833  0.1852
  245bbb    H19 7349   6.246   3.747   1.641  1.0172 -0.0721 -0.1925
  246bbb     N1 7350   6.025   3.842   2.425  0.7946 -0.1489 -0.1966
  246bbb     C1 7351   6.158   3.894   2.466 -0.8792  0.0473  0.2885
  246bbb     H1 7352   6.212   3.913   2.373  0.0352 -0.8547  0.6079
  246bbb     H2 7353   6.210   3.808   2.509 -0.8290 -0.2434 -0.3426
  246bbb     C2 7354   5.933   3.787   2.532  0.6318 -0.2803 -0.0420
  246bbb     H3 7355   5.902   3.871   2.594 -2.1223 -0.3027 -1.2500
  246bbb     H4 7356   6.002   3.723   2.587 -0.8294 -0.8419  1.2062
  246bbb     C3 7357   5.940   3.949   2.359 -0.0013  0.2786  0.7176
  246bbb     H5 7358   5.911   4.019   2.437 -0.3591  0.6232  0.2874
  246bbb     H6 7359   5.847   3.901   2.330  0.7551 -0.7439 -0.1077
  246bbb     C4 7360   6.007   4.021   2.240 -0.2912  0.1651  0.2622
  246bbb     H7 7361   6.058   3.955   2.170 -0.0071  0.1741  0.4569
  246bbb     H8 7362   6.086   4.087   2.280 -0.1826 -0.4935  1.1641
  246bbb     C5 7363   6.175   4.023   2.554 -0.3044  0.4676  0.0581
  246bbb     H9 7364   6.121   4.013   2.649  0.4164  3.1635  0.8408
  246bbb    H10 7365   6.145   4.115   2.503  3.3805  1.6621 -0.2862
  246bbb     C6 7366   5.806   3.705   2.490  0.5858  0.3009 -0.2338
  246bbb    H11 7367   5.810   3.598   2.512  4.0633  0.4314  0.4014
  246bbb    H12 7368   5.816   3.705   2.381  1.5677 -0.7930 -0.1644
  246bbb     C7 7369   5.904   4.106   2.170  0.0139  1.1116 -0.1281
  246bbb    H13 7370   5.939   4.132   2.069 -2.4951 -0.2490 -1.4413
  246bbb    H14 7371   5.880   4.204   2.215 -3.8294  0.8946 -1.3384
  246bbb     C8 7372   5.677   3.772   2.543  0.6058  0.3662  0.5366
  246bbb    H15 7373   5.594   3.723   2.490  1.1620  1.4074 -1.3403
  246bbb    H16 7374   5.666   3.762   2.652 -0.3684 -0.7535  0.3589
  246bbb     C9 7375   6.322   4.029   2.599  0.2592 -0.0214 -0.0038
  246bbb    H17 7376   6.344   4.099   2.681 -0.7152  0.4697 -0.1471
  246bbb    H18 7377   6.392   4.050   2.517  0.5052 -1.6595 -0.2434
  246bbb     O1 7378   5.779   4.038   2.142  0.0433  0.3911 -0.3880
  246bbb    H19 7379   6.040   3.765   2.357  0.9589  1.3724 -1.9634
  247bbb     N1 7380   3.148   4.315   1.424 -0.0725  0.0668  0.7625
  247bbb     C1 7381   3.131   4.169   1.393  0.0360 -0.0480 -0.2922
  247bbb     H1 7382   3.227   4.117   1.386 -0.2316 -0.6983  0.6442
  247bbb     H2 7383   3.090   4.169   1.292  0.3580 -0.6331 -0.4309
  247bbb     C2 7384   3.220   4.341   1.555  0.1264  0.0502  0.4472
  247bbb     H3 7385   3.311   4.283   1.539 -0.1710  0.1346 -1.9345
  247bbb     H4 7386   3.157   4.289   1.628  0.6951  0.0372  0.9349
  247bbb     C3 7387   3.236   4.385   1.320 -0.4435 -0.1801 -0.3659
  247bbb     H5 7388   3.340   4.356   1.333 -0.5362  0.0177  0.8782
  247bbb     H6 7389   3.223   4.493   1.327  0.9928  0.1686 -2.1410
  247bbb     C4 7390   3.192   4.380   1.168  0.7963  0.5814 -0.2416
  247bbb     H7 7391   3.084   4.398   1.164  0.8966  1.0215 -1.2687
  247bbb     H8 7392   3.221   4.281   1.130  2.6848  2.0010 -2.8160
  247bbb     C5 7393   3.031   4.091   1.481  0.4246  0.0493  0.2762
  247bbb     H9 7394   2.966   4.040   1.409 -1.7450  2.9237  0.0331
  247bbb    H10 7395   2.967   4.160   1.536 -0.9796 -1.7707  1.0379
  247bbb     C6 7396   3.258   4.482   1.601  0.4544  0.7165 -0.4374
  247bbb    H11 7397   3.334   4.530   1.538  1.2114 -0.6397 -0.5931
  247bbb    H12 7398   3.303   4.465   1.700 -2.4074 -1.8106  0.5932
  247bbb     C7 7399   3.277   4.471   1.084  0.4186 -0.4656  0.2058
  247bbb    H13 7400   3.249   4.464   0.979  2.3827 -0.3610 -0.3574
  247bbb    H14 7401   3.385   4.450   1.088  1.0085  1.0939 -3.5469
  247bbb     C8 7402   3.125   4.564   1.613 -0.1329  0.6146  0.0452
  247bbb    H15 7403   3.106   4.608   1.515 -1.1471 -1.1458 -0.5954
  247bbb    H16 7404   3.036   4.509   1.646 -0.2256  0.8145  0.1351
  247bbb     C9 7405   3.092   3.990   1.581 -0.0359  0.1245 -0.6116
  247bbb    H17 7406   3.018   3.921   1.623  0.5880 -1.1023 -1.4573
  247bbb    H18 7407   3.152   4.045   1.654 -2.9561  1.4736  0.8881
  247bbb     O1 7408   3.264   4.605   1.123 -0.2828 -0.7215  0.4612
  247bbb    H19 7409   3.054   4.357   1.418 -0.1567 -0.2996 -1.0505
  248bbb     N1 7410   2.859   5.578   1.397 -0.3578  0.1153 -0.6117
  248bbb     C1 7411   2.810   5.616   1.261  0.0962 -0.6594 -0.4700
  248bbb     H1 7412   2.763   5.713   1.281 -0.2766 -1.2779  1.9776
  248bbb     H2 7413   2.733   5.543   1.235 -1.8571  1.0799  0.1354
  248bbb     C2 7414   2.745   5.572   1.499  0.5328  0.2092  0.6047
  248bbb     H3 7415   2.785   5.524   1.587  1.9539  1.7888  0.8775
  248bbb     H4 7416   2.661   5.516   1.457  0.5609 -0.4063  1.3593
  248bbb     C3 7417   2.915   5.435   1.383 -0.3077  0.1957 -0.1872
  248bbb     H5 7418   2.960   5.420   1.285  1.5997  0.6199  0.5815
  248bbb     H6 7419   2.827   5.374   1.404 -1.3376  1.5595 -0.4045
  248bbb     C4 7420   3.037   5.398   1.473  0.0889  0.2420 -0.2478
  248bbb     H7 7421   3.004   5.394   1.578 -0.6831  3.1777 -0.2851
  248bbb     H8 7422   3.121   5.469   1.476  2.0557 -1.9851  0.2358
  248bbb     C5 7423   2.907   5.636   1.148 -0.2972  0.1091  0.5597
  248bbb     H9 7424   2.971   5.548   1.136 -0.6878 -0.1907  0.6369
  248bbb    H10 7425   2.969   5.723   1.171 -1.9385  1.3514  0.4721
  248bbb     C6 7426   2.694   5.715   1.541 -0.4971  0.1897 -0.0755
  248bbb    H11 7427   2.599   5.694   1.591 -0.1745  0.6914  0.7751
  248bbb    H12 7428   2.671   5.771   1.449  0.5992  0.4273 -0.2124
  248bbb     C7 7429   3.099   5.262   1.443 -0.0563  0.1565  0.5916
  248bbb    H13 7430   3.041   5.188   1.499 -1.4639  0.4880 -0.3689
  248bbb    H14 7431   3.199   5.267   1.487  0.6846 -1.8856 -0.6955
  248bbb     C8 7432   2.790   5.793   1.632 -0.5161 -0.7218 -0.0402
  248bbb    H15 7433   2.861   5.845   1.567 -1.3610  0.7793  0.1907
  248bbb    H16 7434   2.739   5.869   1.692  0.2390 -0.2564  0.0158
  248bbb     C9 7435   2.828   5.675   1.017  0.0932 -0.2144 -0.7393
  248bbb    H17 7436   2.782   5.585   0.974  0.3234  0.2595 -2.0189
  248bbb    H18 7437   2.892   5.720   0.940  0.8315  1.4881  0.8006
  248bbb     O1 7438   3.121   5.226   1.299 -0.3997  0.5573  0.2412
  248bbb    H19 7439   2.932   5.644   1.426  0.0953  0.3314 -2.1692
  249bbb     N1 7440   4.094   3.660   2.122 -0.0820 -0.6405 -0.6551
  249bbb     C1 7441   4.101   3.613   2.267 -0.0692  0.3582  0.4441
  249bbb     H1 7442   4.180   3.539   2.273 -0.8262 -0.6073 -0.8662
  249bbb     H2 7443   4.005   3.564   2.284 -0.2264  0.4351 -0.1793
  249bbb     C2 7444   4.056   3.546   2.035  0.3799 -0.2294  0.3344
  249bbb     H3 7445   3.953   3.559   2.001  0.8449  3.6142 -0.0659
  249bbb     H4 7446   4.084   3.453   2.085  1.5052 -0.7958 -1.2770
  249bbb     C3 7447   3.985   3.775   2.109 -0.3579 -0.4557 -0.1076
  249bbb     H5 7448   4.015   3.853   2.180  1.1302 -0.2968 -0.8691
  249bbb     H6 7449   3.889   3.735   2.140 -1.8731  1.6132 -1.8308
  249bbb     C4 7450   3.962   3.844   1.970 -0.0889  0.4911 -0.4805
  249bbb     H7 7451   3.952   3.771   1.889  0.1320 -0.6443  0.4820
  249bbb     H8 7452   4.042   3.912   1.939  0.1822 -0.2399 -1.4228
  249bbb     C5 7453   4.134   3.719   2.382 -0.4942  0.2504  0.1920
  249bbb     H9 7454   4.124   3.666   2.477 -2.0628 -0.7067 -0.4668
  249bbb    H10 7455   4.056   3.796   2.389 -0.5158  0.2482 -0.0035
  249bbb     C6 7456   4.136   3.535   1.908 -0.1131  0.5259  0.3988
  249bbb    H11 7457   4.240   3.565   1.925  0.0718  0.9009 -1.2037
  249bbb    H12 7458   4.089   3.600   1.833 -0.0117  0.7652  0.5433
  249bbb     C7 7459   3.838   3.930   1.965  0.8530  0.4400 -0.5496
  249bbb    H13 7460   3.749   3.868   1.981  0.5491  1.2331  1.0223
  249bbb    H14 7461   3.825   3.969   1.863  2.2857 -2.0062 -1.7670
  249bbb     C8 7462   4.129   3.393   1.848 -0.0688 -0.5694  0.2570
  249bbb    H15 7463   4.029   3.348   1.850 -1.0988  1.3664 -2.3878
  249bbb    H16 7464   4.163   3.398   1.744 -2.4995 -1.1627 -0.6232
  249bbb     C9 7465   4.271   3.795   2.365  0.1946 -0.1555 -1.2789
  249bbb    H17 7466   4.351   3.721   2.376 -1.4111 -2.2636 -2.8228
  249bbb    H18 7467   4.286   3.869   2.444  0.1567 -1.9835  0.5294
  249bbb     O1 7468   3.847   4.032   2.059  0.8664 -0.5909 -0.0815
  249bbb    H19 7469   4.182   3.698   2.084 -1.3510  4.4007  0.7335
  250bbb     N1 7470   3.246   4.718   2.624 -0.9055  1.1424  0.2636
  250bbb     C1 7471   3.102   4.743   2.670 -0.5294  0.3996 -0.4354
  250bbb     H1 7472   3.096   4.829   2.737 -0.3490 -1.2281  1.7909
  250bbb     H2 7473   3.072   4.669   2.744  1.5973 -0.7898 -0.7028
  250bbb     C2 7474   3.303   4.845   2.573  0.3905  0.0704 -0.6938
  250bbb     H3 7475   3.311   4.912   2.659 -0.7390 -1.2061  0.4564
  250bbb     H4 7476   3.234   4.878   2.495 -2.2892  0.3870  1.6699
  250bbb     C3 7477   3.323   4.665   2.741 -0.2766  0.0564  0.1231
  250bbb     H5 7478   3.330   4.745   2.815  2.2489 -0.4200  0.4988
  250bbb     H6 7479   3.425   4.654   2.702 -1.3715 -2.4919 -2.4128
  250bbb     C4 7480   3.285   4.521   2.806 -0.1406  0.9273  0.2424
  250bbb     H7 7481   3.185   4.522   2.852 -0.0578  0.0697  0.4415
  250bbb     H8 7482   3.360   4.502   2.883  0.4627  0.2201 -0.5160
  250bbb     C5 7483   2.995   4.748   2.557 -0.2597  0.0495 -0.0833
  250bbb     H9 7484   3.025   4.809   2.471  1.5289  1.6080  1.5468
  250bbb    H10 7485   2.906   4.793   2.602  0.2892  1.7372 -0.6250
  250bbb     C6 7486   3.444   4.823   2.511 -0.3324  0.4302  0.8029
  250bbb    H11 7487   3.435   4.728   2.456  1.2175  1.0398 -0.5763
  250bbb    H12 7488   3.510   4.802   2.596  0.2489  1.4193  0.6091
  250bbb     C7 7489   3.289   4.400   2.705  0.5393  0.3668  0.1620
  250bbb    H13 7490   3.188   4.361   2.688 -0.2196  1.1460  2.3751
  250bbb    H14 7491   3.360   4.323   2.736  2.3251  2.6231  2.0717
  250bbb     C8 7492   3.491   4.937   2.431 -1.1093  0.1871 -0.4616
  250bbb    H15 7493   3.496   5.025   2.496  1.7160  0.4286 -0.8860
  250bbb    H16 7494   3.596   4.919   2.405 -0.8752 -0.0683  0.6036
  250bbb     C9 7495   2.948   4.611   2.505 -0.3264  0.1017  0.0853
  250bbb    H17 7496   3.027   4.561   2.447 -0.0114 -0.1703  0.7278
  250bbb    H18 7497   2.856   4.631   2.450  0.4999  2.1710 -0.6262
  250bbb     O1 7498   3.338   4.452   2.577 -0.0106 -0.4125  0.2531
  250bbb    H19 7499   3.251   4.653   2.544 -0.9349  0.6130  0.6881
  251bbb     N1 7500   3.542   5.613   0.314  0.4353  0.1918  0.1354
  251bbb     C1 7501   3.397   5.561   0.319 -0.5814  0.4291  0.2788
  251bbb     H1 7502   3.390   5.474   0.254  0.8405 -0.3590  1.1172
  251bbb     H2 7503   3.342   5.645   0.276 -3.6281 -2.2073 -1.3663
  251bbb     C2 7504   3.618   5.563   0.189 -0.5199  0.4726  0.5190
  251bbb     H3 7505   3.724   5.590   0.198 -0.4099  0.4547 -0.5852
  251bbb     H4 7506   3.573   5.608   0.101 -0.0387 -2.0030 -1.0945
  251bbb     C3 7507   3.540   5.770   0.338 -0.3440 -0.2120 -0.2512
  251bbb     H5 7508   3.477   5.799   0.422  1.8854  2.6669  0.5854
  251bbb     H6 7509   3.490   5.820   0.255 -0.5363  0.5451  0.3212
  251bbb     C4 7510   3.679   5.831   0.368  0.7520 -0.3274  0.2673
  251bbb     H7 7511   3.665   5.939   0.364 -0.1677 -0.2951  2.6810
  251bbb     H8 7512   3.742   5.809   0.281 -0.7151 -4.1253 -0.0309
  251bbb     C5 7513   3.327   5.527   0.456  0.0896  0.4101  0.7774
  251bbb     H9 7514   3.366   5.433   0.496 -2.0542  0.1234  2.3500
  251bbb    H10 7515   3.226   5.495   0.427  0.8993 -1.6233  0.0121
  251bbb     C6 7516   3.638   5.408   0.171 -0.0373  0.2436 -0.4564
  251bbb    H11 7517   3.543   5.353   0.159  0.7110 -2.4591  3.6810
  251bbb    H12 7518   3.676   5.371   0.267  0.2089 -1.6409 -1.2266
  251bbb     C7 7519   3.746   5.784   0.501 -0.4164 -0.1900 -0.2666
  251bbb    H13 7520   3.691   5.832   0.583 -2.6598 -1.6702 -0.8096
  251bbb    H14 7521   3.853   5.809   0.508 -0.1136 -1.5529  0.3064
  251bbb     C8 7522   3.739   5.363   0.066 -0.1080 -0.1500 -0.0207
  251bbb    H15 7523   3.828   5.426   0.071  2.1544 -3.2111  1.2997
  251bbb    H16 7524   3.779   5.263   0.087  0.5257  0.4542  1.7498
  251bbb     C9 7525   3.326   5.636   0.565  0.0541  0.0376 -0.1403
  251bbb    H17 7526   3.425   5.667   0.601 -1.0497  2.6746  0.9004
  251bbb    H18 7527   3.274   5.589   0.650 -1.9452 -0.0122 -1.3108
  251bbb     O1 7528   3.730   5.637   0.507 -0.7262 -0.0606 -0.2504
  251bbb    H19 7529   3.596   5.567   0.389  3.4413  0.3276 -1.7407
  252bbb     N1 7530   3.239   4.734   0.503 -0.2336  0.2878  0.6695
  252bbb     C1 7531   3.223   4.603   0.414  0.6239 -1.1678 -0.0261
  252bbb     H1 7532   3.295   4.526   0.441  2.7463  0.7560  0.1155
  252bbb     H2 7533   3.258   4.643   0.319 -1.1721  2.5753  0.6917
  252bbb     C2 7534   3.158   4.728   0.626  1.0294  0.1442 -0.3566
  252bbb     H3 7535   3.191   4.637   0.676 -0.8770 -1.1631 -1.3228
  252bbb     H4 7536   3.055   4.705   0.596  0.9853  0.4988 -0.4916
  252bbb     C3 7537   3.387   4.755   0.518  0.5726  0.1249  0.6066
  252bbb     H5 7538   3.436   4.660   0.541  0.3093 -0.3338 -0.6457
  252bbb     H6 7539   3.402   4.825   0.601  2.2250  0.6088 -0.0713
  252bbb     C4 7540   3.463   4.823   0.401 -0.6054 -0.2239 -0.2445
  252bbb     H7 7541   3.419   4.923   0.390  0.7320  0.3917 -0.1280
  252bbb     H8 7542   3.436   4.767   0.310  1.2152  0.9001 -1.5393
  252bbb     C5 7543   3.085   4.532   0.401  0.5803  0.8915  0.1466
  252bbb     H9 7544   3.035   4.503   0.494  0.8961 -1.1032 -0.2555
  252bbb    H10 7545   3.111   4.433   0.360 -2.2805  0.9327 -2.1536
  252bbb     C6 7546   3.159   4.851   0.712  0.3408 -0.5149 -0.7791
  252bbb    H11 7547   3.143   4.944   0.656  0.3468 -0.1836 -0.2488
  252bbb    H12 7548   3.248   4.862   0.776  0.2435 -2.7204 -0.1781
  252bbb     C7 7549   3.617   4.837   0.427  0.2305  0.0069 -0.0004
  252bbb    H13 7550   3.664   4.868   0.333  1.0306  1.1707  0.7541
  252bbb    H14 7551   3.659   4.740   0.455 -1.0626 -1.3637 -2.4674
  252bbb     C8 7552   3.021   4.858   0.791  0.0309  0.0713  0.5805
  252bbb    H15 7553   2.930   4.868   0.731  1.3062  1.5301 -1.2369
  252bbb    H16 7554   3.005   4.762   0.843  1.1626 -1.2703 -1.4018
  252bbb     C9 7555   2.993   4.618   0.306  0.2238 -0.1250 -0.0080
  252bbb    H17 7556   2.906   4.559   0.276  0.9369 -1.1953 -0.0408
  252bbb    H18 7557   3.048   4.647   0.215 -0.9917  0.7916 -0.4750
  252bbb     O1 7558   3.644   4.930   0.542 -0.0412 -0.3619  0.0795
  252bbb    H19 7559   3.210   4.815   0.446  0.7749 -0.9596 -1.7460
  253bbb     N1 7560   5.528   6.448   0.661 -0.7731 -0.6030 -0.2556
  253bbb     C1 7561   5.664   6.420   0.601  0.7121  0.4551  0.2429
  253bbb     H1 7562   5.663   6.444   0.495 -1.2333 -1.4321 -0.2274
  253bbb     H2 7563   5.672   6.311   0.602 -2.8966  0.0576 -1.1761
  253bbb     C2 7564   5.481   6.589   0.637  0.2463  0.1712 -0.1680
  253bbb     H3 7565   5.466   6.590   0.529 -0.1873  0.5453 -0.1079
  253bbb     H4 7566   5.559   6.663   0.657 -0.0493  1.0892 -2.1511
  253bbb     C3 7567   5.430   6.349   0.607 -0.2834  0.1160 -0.1971
  253bbb     H5 7568   5.344   6.346   0.675 -2.4069  0.8028 -2.6747
  253bbb     H6 7569   5.477   6.251   0.620 -1.3878 -0.3821  0.1633
  253bbb     C4 7570   5.385   6.352   0.458 -0.0268 -0.5263 -0.4117
  253bbb     H7 7571   5.474   6.370   0.398 -1.1985  1.3208 -1.7110
  253bbb     H8 7572   5.315   6.435   0.442  0.4907  0.1872  0.8903
  253bbb     C5 7573   5.781   6.487   0.679 -0.7322  0.0122 -0.3364
  253bbb     H9 7574   5.767   6.464   0.785 -1.5620 -0.8248 -0.6059
  253bbb    H10 7575   5.776   6.596   0.667 -1.4132 -0.1211 -1.4239
  253bbb     C6 7576   5.344   6.629   0.698  0.7416 -0.9290 -0.3264
  253bbb    H11 7577   5.354   6.662   0.802  1.6907  1.7848 -1.1985
  253bbb    H12 7578   5.274   6.545   0.690 -0.0128 -0.5170  1.5078
  253bbb     C7 7579   5.337   6.215   0.412  0.1618  0.3154 -0.3202
  253bbb    H13 7580   5.420   6.144   0.421  0.5646  0.7349 -0.6741
  253bbb    H14 7581   5.305   6.213   0.307  0.3285  0.4128 -0.3730
  253bbb     C8 7582   5.283   6.747   0.620 -1.0619  0.3004  0.5223
  253bbb    H15 7583   5.185   6.778   0.660 -0.5864 -0.7071  2.6002
  253bbb    H16 7584   5.346   6.836   0.629  2.9837 -2.2884  0.4026
  253bbb     C9 7585   5.918   6.442   0.632  0.1088 -0.8111  0.4409
  253bbb    H17 7586   5.995   6.490   0.693  2.4253 -0.7165 -2.3517
  253bbb    H18 7587   5.950   6.478   0.533  2.0026 -2.0016  0.5672
  253bbb     O1 7588   5.227   6.169   0.496 -0.3193 -0.0126  0.4684
  253bbb    H19 7589   5.529   6.441   0.764 -0.5765 -0.8009 -0.2688
  254bbb     N1 7590   4.944   6.470   0.531  0.2216  0.3082  0.2288
  254bbb     C1 7591   4.958   6.614   0.577  0.3314 -0.5421 -0.3988
  254bbb     H1 7592   4.902   6.669   0.502  0.8219  1.0480  0.3403
  254bbb     H2 7593   5.063   6.644   0.580  0.1853 -0.0795  1.1230
  254bbb     C2 7594   5.003   6.452   0.389 -0.7448 -0.0671  0.2078
  254bbb     H3 7595   5.101   6.419   0.423 -0.3216  1.2206  0.2875
  254bbb     H4 7596   5.009   6.544   0.331  0.2059 -0.0647  0.2972
  254bbb     C3 7597   5.019   6.384   0.632 -0.1034  0.1516  0.3171
  254bbb     H5 7598   5.090   6.451   0.682  1.7797  1.1400 -3.3657
  254bbb     H6 7599   5.058   6.298   0.578 -2.0126 -0.0879 -0.7829
  254bbb     C4 7600   4.917   6.324   0.737 -0.1777  0.1390  0.1274
  254bbb     H7 7601   4.873   6.233   0.696 -1.6831 -0.2842  2.4536
  254bbb     H8 7602   4.829   6.382   0.767 -0.3660 -0.8263  1.5318
  254bbb     C5 7603   4.899   6.651   0.712 -0.1923 -0.2471  0.3614
  254bbb     H9 7604   4.967   6.607   0.787 -0.3323 -0.0167  0.6272
  254bbb    H10 7605   4.802   6.603   0.728 -1.7197  1.9482 -1.7017
  254bbb     C6 7606   4.922   6.344   0.316 -0.5883 -0.2419 -0.2594
  254bbb    H11 7607   4.815   6.353   0.340 -0.0007  1.5233  2.0493
  254bbb    H12 7608   4.967   6.249   0.349  1.4323  1.1817  1.2596
  254bbb     C7 7609   4.990   6.277   0.867  0.1280  0.5007 -0.6396
  254bbb    H13 7610   4.920   6.200   0.900 -0.4274  1.6788  1.0644
  254bbb    H14 7611   4.996   6.351   0.948 -1.5495 -0.9287  0.8684
  254bbb     C8 7612   4.943   6.353   0.168  0.2364 -0.7737  0.3689
  254bbb    H15 7613   4.893   6.273   0.113  0.6502 -1.7840  1.4218
  254bbb    H16 7614   4.912   6.453   0.136 -1.5747 -0.1378  3.7038
  254bbb     C9 7615   4.888   6.806   0.742  0.4228 -0.7774 -0.0291
  254bbb    H17 7616   4.876   6.860   0.647 -0.5582  0.3008  0.6843
  254bbb    H18 7617   4.982   6.838   0.789  0.1450  1.8132 -1.0764
  254bbb     O1 7618   5.122   6.216   0.848  0.4106  0.0185 -0.2053
  254bbb    H19 7619   4.846   6.438   0.527 -0.0592  1.2293 -0.6183
  255bbb     N1 7620   3.556   4.457   9.860  0.1109 -0.4009  0.1812
  255bbb     C1 7621   3.670   4.495   9.767  0.1877  0.5898 -0.4094
  255bbb     H1 7622   3.636   4.508   9.664 -3.1343  2.0638  0.7165
  255bbb     H2 7623   3.735   4.408   9.776 -0.9026 -0.2199 -0.0771
  255bbb     C2 7624   3.466   4.580   9.886 -0.3704  0.1278  0.0340
  255bbb     H3 7625   3.422   4.617   9.794  1.9079  0.7777 -0.8518
  255bbb     H4 7626   3.528   4.661   9.925  0.3147  0.0123 -0.7884
  255bbb     C3 7627   3.461   4.361   9.795  0.4611  0.2360  0.2221
  255bbb     H5 7628   3.459   4.387   9.689 -1.4013 -0.2399  0.0999
  255bbb     H6 7629   3.359   4.377   9.830  0.1138  1.2818 -1.1624
  255bbb     C4 7630   3.490   4.211   9.816 -0.3432  0.0768  1.0209
  255bbb     H7 7631   3.409   4.149   9.775  0.0294  0.0731  0.2752
  255bbb     H8 7632   3.495   4.196   9.924  2.3943  0.6286  1.0307
  255bbb     C5 7633   3.756   4.621   9.812 -0.0026 -0.0806 -0.0416
  255bbb     H9 7634   3.698   4.714   9.822  0.1108 -0.0572  0.4055
  255bbb    H10 7635   3.827   4.638   9.730  0.2507  2.0175  0.5570
  255bbb     C6 7636   3.355   4.555   9.992 -0.2248 -0.2782 -0.3599
  255bbb    H11 7637   3.283   4.478   9.963  1.2163 -0.4928 -3.7925
  255bbb    H12 7638   3.286   4.638  10.014 -0.7439 -1.3872  2.8052
  255bbb     C7 7639   3.623   4.169   9.744 -0.2929  0.8326  0.1999
  255bbb    H13 7640   3.642   4.062   9.754 -1.1733  0.3828 -2.2530
  255bbb    H14 7641   3.699   4.232   9.792  0.1376  2.3610 -2.2850
  255bbb     C8 7642   3.408   4.523  10.134  0.1150  0.6470  0.2346
  255bbb    H15 7643   3.500   4.580  10.154  1.4071 -0.4594 -2.1051
  255bbb    H16 7644   3.331   4.563  10.201  0.8080  1.2078  0.7165
  255bbb     C9 7645   3.844   4.601   9.940 -0.4017  0.2418 -0.2843
  255bbb    H17 7646   3.924   4.676   9.937  2.0262 -2.1189  0.9134
  255bbb    H18 7647   3.898   4.507   9.924 -0.4842 -0.0536  0.9946
  255bbb     O1 7648   3.614   4.215   9.610 -0.4594 -0.0414  0.0592
  255bbb    H19 7649   3.589   4.424   9.952  0.8312  3.5233  1.5221
  256bbb     N1 7650   3.428   3.795   9.067 -0.3131 -0.3070  0.5402
  256bbb     C1 7651   3.307   3.854   8.997 -0.4307 -0.2612 -0.0324
  256bbb     H1 7652   3.230   3.779   8.977 -0.1436 -0.2638 -1.1706
  256bbb     H2 7653   3.341   3.891   8.900  0.0394 -1.7168 -0.4521
  256bbb     C2 7654   3.440   3.651   9.017  0.2335  0.3558  0.0368
  256bbb     H3 7655   3.532   3.608   9.057  0.3595  1.6726  1.2675
  256bbb     H4 7656   3.449   3.639   8.909  2.2021 -1.3291  0.3460
  256bbb     C3 7657   3.553   3.864   9.008  0.2801  0.1317  0.2756
  256bbb     H5 7658   3.556   3.841   8.901 -0.4725 -0.0128  0.2800
  256bbb     H6 7659   3.636   3.813   9.057  0.6484 -2.1121 -2.4518
  256bbb     C4 7660   3.571   4.027   9.025 -0.4513  0.5456  0.5737
  256bbb     H7 7661   3.522   4.079   9.109 -0.2174  1.8907 -0.1003
  256bbb     H8 7662   3.508   4.063   8.944 -1.5365  0.5896  1.4133
  256bbb     C5 7663   3.241   3.974   9.071  0.0722 -0.1338 -0.2915
  256bbb     H9 7664   3.158   4.011   9.009  0.6990  2.3867  0.2678
  256bbb    H10 7665   3.302   4.064   9.078 -2.4486  1.6626  0.1348
  256bbb     C6 7666   3.325   3.554   9.064 -0.3981 -0.0712 -0.2468
  256bbb    H11 7667   3.350   3.459   9.016 -0.0203  0.1319 -0.4602
  256bbb    H12 7668   3.224   3.574   9.026 -0.0130 -0.1435 -1.3449
  256bbb     C7 7669   3.714   4.075   9.014 -0.0462 -0.0575  0.9415
  256bbb    H13 7670   3.749   4.045   8.914 -1.9883 -0.1284  0.2415
  256bbb    H14 7671   3.775   4.027   9.091 -1.9085 -2.7914  0.8768
  256bbb     C8 7672   3.315   3.551   9.219  0.0120  0.1422 -0.0949
  256bbb    H15 7673   3.245   3.630   9.248 -0.1307 -0.0056 -0.0336
  256bbb    H16 7674   3.264   3.462   9.258  3.3235 -1.8255  0.1270
  256bbb     C9 7675   3.193   3.934   9.210  0.0119  0.2120  0.3407
  256bbb    H17 7676   3.276   3.920   9.280  1.9992 -1.8693 -2.2565
  256bbb    H18 7677   3.146   3.836   9.196  0.4721  0.0591 -0.1707
  256bbb     O1 7678   3.704   4.219   9.035  0.2772  0.4444 -0.0903
  256bbb    H19 7679   3.415   3.804   9.169 -1.4135 -0.4192  0.4229
  257bbb     N1 7680   2.662   5.790   9.386  0.1318  0.5208 -0.2270
  257bbb     C1 7681   2.522   5.737   9.407 -0.3712 -0.0394  0.3881
  257bbb     H1 7682   2.467   5.808   9.470 -0.2479 -0.1560  0.6291
  257bbb     H2 7683   2.530   5.637   9.450  2.3866 -0.2706 -0.4862
  257bbb     C2 7684   2.743   5.793   9.521 -0.4452  1.0980 -0.5658
  257bbb     H3 7685   2.840   5.842   9.506 -0.2146  1.6718  2.2388
  257bbb     H4 7686   2.761   5.691   9.555  0.6533  2.0192  1.8831
  257bbb     C3 7687   2.742   5.701   9.293 -0.1891 -0.0711  0.3782
  257bbb     H5 7688   2.678   5.675   9.208  0.4941  2.0600 -0.8548
  257bbb     H6 7689   2.767   5.610   9.347 -2.6443 -0.4140  1.0836
  257bbb     C4 7690   2.874   5.763   9.240  0.4847  0.0033 -0.5949
  257bbb     H7 7691   2.940   5.771   9.327 -1.5958 -2.0297  1.3265
  257bbb     H8 7692   2.849   5.860   9.195 -0.2250  0.4595  0.7304
  257bbb     C5 7693   2.444   5.712   9.280  0.2096 -0.4202 -0.8786
  257bbb     H9 7694   2.351   5.665   9.314 -0.4703  2.3275  1.5135
  257bbb    H10 7695   2.490   5.629   9.226 -0.3716 -1.6880  0.5256
  257bbb     C6 7696   2.674   5.874   9.636  0.5300 -0.1610 -0.3994
  257bbb    H11 7697   2.572   5.837   9.655 -0.5014  1.1421 -2.9909
  257bbb    H12 7698   2.668   5.976   9.598  0.3508 -0.5664 -1.5015
  257bbb     C7 7699   2.944   5.672   9.134 -0.5355  0.1061  0.7992
  257bbb    H13 7700   3.017   5.737   9.085  0.4612 -0.9025  0.8957
  257bbb    H14 7701   2.875   5.620   9.065  1.5672 -0.3873 -1.0399
  257bbb     C8 7702   2.760   5.874   9.763 -1.3638  0.6897  0.3083
  257bbb    H15 7703   2.759   5.767   9.789  1.6085  0.4925 -0.0150
  257bbb    H16 7704   2.865   5.887   9.735 -1.4495 -1.8442 -1.5461
  257bbb     C9 7705   2.418   5.840   9.196 -0.3175  0.0932 -0.5704
  257bbb    H17 7706   2.356   5.912   9.250  0.1067 -1.4800  2.1678
  257bbb    H18 7707   2.359   5.799   9.112 -2.2831  2.1523 -0.3016
  257bbb     O1 7708   3.020   5.577   9.210 -0.3614 -0.7175  0.0915
  257bbb    H19 7709   2.666   5.886   9.351  2.4469  0.7818  0.5483
  258bbb     N1 7710   4.002   5.637   9.930 -0.1012 -0.6819  0.2254
  258bbb     C1 7711   4.076   5.772   9.937 -0.1050  0.3825 -0.0854
  258bbb     H1 7712   4.112   5.792   9.835  0.2328  1.8366  0.2875
  258bbb     H2 7713   4.165   5.743   9.993  0.5791 -0.8498 -1.7240
  258bbb     C2 7714   3.979   5.589  10.063  1.0796  0.3698  0.6017
  258bbb     H3 7715   3.919   5.668  10.109 -0.7939 -0.7165  0.1255
  258bbb     H4 7716   4.072   5.569  10.117  0.2509 -0.0984  1.9123
  258bbb     C3 7717   3.875   5.659   9.855  0.1322 -0.3522 -0.1909
  258bbb     H5 7718   3.814   5.733   9.907 -0.6600 -1.5660  0.6702
  258bbb     H6 7719   3.817   5.566   9.847 -1.2650  0.6259 -2.8039
  258bbb     C4 7720   3.880   5.705   9.701 -0.9893  0.2261 -0.6895
  258bbb     H7 7721   3.909   5.618   9.641  1.4511 -1.4613  2.6672
  258bbb     H8 7722   3.960   5.778   9.684 -0.5592 -0.6479 -2.6944
  258bbb     C5 7723   4.002   5.893   9.995 -0.0738 -0.4932 -0.4006
  258bbb     H9 7724   3.970   5.875  10.099 -0.7530 -1.2274 -0.7256
  258bbb    H10 7725   3.916   5.925   9.934 -0.8630  0.3296  1.0760
  258bbb     C6 7726   3.896   5.460  10.094  0.0842 -0.2101 -0.2806
  258bbb    H11 7727   3.787   5.470  10.088 -0.0963 -0.6391  1.5210
  258bbb    H12 7728   3.890   5.443  10.203 -2.7522  0.3021 -0.2779
  258bbb     C7 7729   3.745   5.760   9.652  0.2258 -0.3896  0.6049
  258bbb    H13 7730   3.760   5.795   9.549  2.7909 -2.3628  0.2177
  258bbb    H14 7731   3.704   5.843   9.711 -1.0711  0.5212 -1.4439
  258bbb     C8 7732   3.959   5.346  10.011  0.1903  0.1210  0.5555
  258bbb    H15 7733   4.068   5.357  10.012  0.5941 -2.8763 -0.3259
  258bbb    H16 7734   3.938   5.254  10.067  0.0603  0.9658  1.9524
  258bbb     C9 7735   4.096   6.014   9.996 -0.6451 -0.7380  0.2280
  258bbb    H17 7736   4.157   6.010  10.088  2.5385  0.0287 -1.6730
  258bbb    H18 7737   4.033   6.104   9.995 -1.2118 -1.0883  1.6549
  258bbb     O1 7738   3.642   5.660   9.645  0.1276  0.1982 -0.1900
  258bbb    H19 7739   4.069   5.578   9.879 -0.1008  0.1177 -0.7488
  259bbb     N1 7740   2.739   3.500   7.778 -0.3297 -0.3725 -0.2778
  259bbb     C1 7741   2.718   3.349   7.795  0.1280  0.1789  0.2565
  259bbb     H1 7742   2.704   3.329   7.901  0.2715 -0.9378  0.0718
  259bbb     H2 7743   2.818   3.311   7.777  0.2313  1.0654 -1.2047
  259bbb     C2 7744   2.614   3.574   7.813  0.2855  0.6168  0.0358
  259bbb     H3 7745   2.540   3.546   7.739  0.1100 -1.0856  0.8140
  259bbb     H4 7746   2.626   3.682   7.800 -1.5982  0.9555  0.8109
  259bbb     C3 7747   2.847   3.547   7.869  0.0460 -0.7057 -0.4798
  259bbb     H5 7748   2.830   3.483   7.956  0.2184 -1.2960 -0.8662
  259bbb     H6 7749   2.821   3.651   7.886 -1.7832 -0.7456 -2.5006
  259bbb     C4 7750   2.995   3.537   7.823  0.3903 -0.4207 -0.6875
  259bbb     H7 7751   3.010   3.586   7.727 -1.0411  1.3180 -0.0776
  259bbb     H8 7752   3.012   3.430   7.807  0.0687 -0.5283 -0.3291
  259bbb     C5 7753   2.604   3.275   7.713 -0.6388 -0.3728 -0.2003
  259bbb     H9 7754   2.616   3.307   7.610 -2.7800  1.9069  0.1664
  259bbb    H10 7755   2.500   3.305   7.733  0.0561  2.6407 -0.7543
  259bbb     C6 7756   2.563   3.531   7.955 -0.2091 -0.0660 -0.1397
  259bbb    H11 7757   2.640   3.540   8.033 -1.9026  0.0784  1.5904
  259bbb    H12 7758   2.536   3.425   7.949 -1.4124  0.3005 -2.3794
  259bbb     C7 7759   3.107   3.594   7.916 -0.3164 -0.1289  0.6467
  259bbb    H13 7760   3.204   3.562   7.878 -0.2515  1.0000 -0.1635
  259bbb    H14 7761   3.083   3.549   8.013  1.8126 -0.3240  1.1380
  259bbb     C8 7762   2.444   3.618   7.997  0.1930  0.3690 -0.3032
  259bbb    H15 7763   2.419   3.593   8.100 -1.4862  1.6803 -0.3566
  259bbb    H16 7764   2.473   3.723   8.009  0.1184  0.2862  0.6860
  259bbb     C9 7765   2.614   3.123   7.712  0.0828  0.5478 -0.8848
  259bbb    H17 7766   2.718   3.094   7.692  0.8901  0.9979  2.1968
  259bbb    H18 7767   2.537   3.097   7.638 -0.4305 -0.5800  0.0126
  259bbb     O1 7768   3.110   3.737   7.917 -0.2033 -0.7286 -0.3119
  259bbb    H19 7769   2.765   3.529   7.682 -0.4669 -1.4452 -0.6537
  260bbb     N1 7770   3.320   4.416   7.307  0.3364 -0.7384 -0.2164
  260bbb     C1 7771   3.374   4.415   7.163  0.2700 -0.0673  0.0925
  260bbb     H1 7772   3.287   4.393   7.101  0.6925  2.2552 -1.4662
  260bbb     H2 7773   3.445   4.332   7.158  0.1039 -0.2764  1.0391
  260bbb     C2 7774   3.236   4.538   7.350 -0.1819  0.4343  0.3006
  260bbb     H3 7775   3.138   4.515   7.308  0.9316 -0.6983 -1.9218
  260bbb     H4 7776   3.275   4.626   7.298  1.5278 -0.5966 -0.2456
  260bbb     C3 7777   3.258   4.287   7.353  0.6700 -0.1242 -0.4655
  260bbb     H5 7778   3.155   4.284   7.319  0.5620 -2.6397 -0.1423
  260bbb     H6 7779   3.249   4.288   7.462 -2.3332  2.7143 -0.5761
  260bbb     C4 7780   3.342   4.157   7.314  0.0171  0.6470 -0.3075
  260bbb     H7 7781   3.424   4.130   7.382 -0.2608  0.9717  0.1651
  260bbb     H8 7782   3.363   4.169   7.207 -1.3358  2.6471 -0.4068
  260bbb     C5 7783   3.439   4.549   7.113  0.5232  0.7763  0.1542
  260bbb     H9 7784   3.517   4.579   7.185  1.3239  0.5804 -0.6220
  260bbb    H10 7785   3.361   4.624   7.094  0.2147 -0.2376 -3.1609
  260bbb     C6 7786   3.221   4.545   7.503  0.4327  0.9216  0.4224
  260bbb    H11 7787   3.313   4.567   7.558  0.0728  2.4351  0.4888
  260bbb    H12 7788   3.170   4.452   7.531  1.4068  0.5511  1.0129
  260bbb     C7 7789   3.251   4.032   7.321 -0.7098 -0.0318 -0.1511
  260bbb    H13 7790   3.265   3.976   7.227 -0.9626  0.7614 -0.6727
  260bbb    H14 7791   3.147   4.068   7.327 -0.2123  1.2387  1.3502
  260bbb     C8 7792   3.115   4.655   7.534  0.3312  0.0550  0.1640
  260bbb    H15 7793   3.143   4.748   7.482  0.8429 -0.7742 -1.0852
  260bbb    H16 7794   3.016   4.632   7.495  0.6254 -1.5069  0.2747
  260bbb     C9 7795   3.495   4.541   6.969 -0.0716  1.0541 -0.4651
  260bbb    H17 7796   3.541   4.635   6.936  2.1758 -0.0482 -0.6621
  260bbb    H18 7797   3.423   4.505   6.895 -1.1206  0.3352  0.8780
  260bbb     O1 7798   3.286   3.951   7.440  0.0497 -0.3310 -0.2701
  260bbb    H19 7799   3.403   4.427   7.367 -0.0187 -1.2382  0.3884
  261bbb     N1 7800   2.126   4.493   8.541  0.2676 -0.4934 -0.1035
  261bbb     C1 7801   2.075   4.625   8.478 -0.1459  0.0365 -0.4188
  261bbb     H1 7802   2.129   4.643   8.385 -1.3133 -0.1856 -1.1483
  261bbb     H2 7803   2.098   4.705   8.549 -1.5192 -0.5955  0.7891
  261bbb     C2 7804   2.279   4.494   8.539  0.1984  0.1988  0.5912
  261bbb     H3 7805   2.320   4.473   8.637  2.6833 -1.5592 -0.7353
  261bbb     H4 7806   2.315   4.595   8.517  2.8184 -1.0362 -1.3602
  261bbb     C3 7807   2.074   4.465   8.673  0.1135 -0.4489  0.4442
  261bbb     H5 7808   1.969   4.492   8.660 -0.3383 -2.1049  0.4984
  261bbb     H6 7809   2.120   4.530   8.748  3.8107  1.3180 -2.9253
  261bbb     C4 7810   2.087   4.313   8.709 -0.0739 -0.2044  0.2237
  261bbb     H7 7811   2.194   4.295   8.723  0.5712  3.1983  0.4699
  261bbb     H8 7812   2.039   4.246   8.637 -1.4222  0.3106  0.5964
  261bbb     C5 7813   1.922   4.625   8.439 -0.1996 -0.0021 -0.2333
  261bbb     H9 7814   1.856   4.605   8.525 -0.1222 -0.6489 -0.3213
  261bbb    H10 7815   1.899   4.547   8.365  1.2489 -2.2851  1.5809
  261bbb     C6 7816   2.342   4.406   8.437 -0.3250  0.4425  0.3607
  261bbb    H11 7817   2.318   4.300   8.451  2.5606 -0.1871  1.1703
  261bbb    H12 7818   2.449   4.415   8.460 -0.2960  0.9199  0.0359
  261bbb     C7 7819   2.023   4.299   8.851  0.4433 -0.0816 -0.4788
  261bbb    H13 7820   1.920   4.336   8.852  0.5352  0.2125 -1.0578
  261bbb    H14 7821   2.089   4.346   8.925  0.7555 -0.5397 -0.4611
  261bbb     C8 7822   2.330   4.462   8.291 -0.0716  0.3373  0.3491
  261bbb    H15 7823   2.380   4.560   8.290 -0.7020  0.6637 -0.5894
  261bbb    H16 7824   2.385   4.394   8.225 -0.1744 -0.3338  0.9405
  261bbb     C9 7825   1.879   4.762   8.386  0.1383 -0.2805  0.2225
  261bbb    H17 7826   1.839   4.817   8.473  1.6498 -0.2770  0.9432
  261bbb    H18 7827   1.801   4.753   8.310 -0.8687  1.8218  0.9339
  261bbb     O1 7828   2.033   4.153   8.870 -0.1991 -0.1297 -0.8771
  261bbb    H19 7829   2.079   4.421   8.484 -1.2158  0.0334  0.4063
  262bbb     N1 7830   1.789   3.633   8.476  0.3801 -0.3088 -0.0324
  262bbb     C1 7831   1.746   3.486   8.470  0.4353  0.6739 -0.1841
  262bbb     H1 7832   1.641   3.496   8.498  0.6435  1.6832  0.2624
  262bbb     H2 7833   1.806   3.440   8.548 -0.8234 -0.4960  0.1452
  262bbb     C2 7834   1.729   3.717   8.370  0.2247  0.0641  0.9465
  262bbb     H3 7835   1.750   3.662   8.278 -0.9885 -1.5176  1.5521
  262bbb     H4 7836   1.769   3.818   8.368  1.0339 -0.2591 -0.4590
  262bbb     C3 7837   1.743   3.701   8.602 -0.0292  0.4928  0.3401
  262bbb     H5 7838   1.634   3.702   8.597  0.0040  2.0893 -3.2605
  262bbb     H6 7839   1.759   3.809   8.595 -1.1062  0.6732  0.4741
  262bbb     C4 7840   1.799   3.651   8.731  0.0884  0.4368  0.4630
  262bbb     H7 7841   1.744   3.562   8.763 -0.1451  0.8286  1.1641
  262bbb     H8 7842   1.768   3.722   8.808 -1.1733  0.5648 -0.1373
  262bbb     C5 7843   1.772   3.413   8.339 -0.8274  0.0256  0.2226
  262bbb     H9 7844   1.873   3.442   8.306  0.0843  0.4466  3.0697
  262bbb    H10 7845   1.700   3.441   8.261 -0.2749  0.5557 -0.1012
  262bbb     C6 7846   1.570   3.723   8.355 -0.5712  0.1142 -0.6144
  262bbb    H11 7847   1.523   3.753   8.450 -0.8245 -0.9636 -0.3871
  262bbb    H12 7848   1.535   3.620   8.341 -0.4153  0.0226 -0.3453
  262bbb     C7 7849   1.952   3.632   8.746 -0.2188 -0.5115  0.0550
  262bbb    H13 7850   1.970   3.532   8.704 -0.9882 -0.9781  0.8034
  262bbb    H14 7851   1.987   3.630   8.850  0.4326  0.4493 -0.1278
  262bbb     C8 7852   1.515   3.821   8.249 -0.2667  0.3785  1.3774
  262bbb    H15 7853   1.406   3.809   8.257 -0.0774 -1.5309  1.7635
  262bbb    H16 7854   1.551   3.920   8.279 -0.1340  0.2331  1.6996
  262bbb     C9 7855   1.780   3.260   8.370 -0.2712  0.0857 -0.4210
  262bbb    H17 7856   1.680   3.230   8.403 -0.9099  0.7654 -1.6467
  262bbb    H18 7857   1.857   3.248   8.448  0.0945  1.2037 -0.5799
  262bbb     O1 7858   2.023   3.724   8.662  0.6319  0.3188 -0.0183
  262bbb    H19 7859   1.891   3.640   8.466  0.3476  1.2929  0.4119
  263bbb     N1 7860   6.030   3.021   8.459 -0.2977 -0.7057 -0.3229
  263bbb     C1 7861   6.166   2.994   8.525  0.2057  0.0216  0.3033
  263bbb     H1 7862   6.195   3.096   8.551  2.0125 -0.5033  0.5128
  263bbb     H2 7863   6.239   2.951   8.456 -1.3310 -0.1190 -1.3163
  263bbb     C2 7864   5.979   2.906   8.378  0.0913  0.1835 -0.0758
  263bbb     H3 7865   5.899   2.944   8.315  0.6716 -0.1971 -1.0541
  263bbb     H4 7866   5.940   2.837   8.453  1.7977  0.3165  0.9801
  263bbb     C3 7867   5.926   3.072   8.559 -0.3452 -0.3164 -0.1397
  263bbb     H5 7868   5.934   3.020   8.655  0.9804 -1.1846 -0.6871
  263bbb     H6 7869   5.830   3.051   8.511 -1.2835  0.2898  1.3984
  263bbb     C4 7870   5.927   3.226   8.575  0.3793  0.0009 -0.1352
  263bbb     H7 7871   5.906   3.286   8.486  0.5750  0.3529  0.0547
  263bbb     H8 7872   6.026   3.259   8.609 -0.4772  0.0696  2.5273
  263bbb     C5 7873   6.165   2.911   8.655  0.6052 -0.7941 -0.1076
  263bbb     H9 7874   6.104   2.820   8.648 -0.2751 -0.1120 -1.7178
  263bbb    H10 7875   6.125   2.977   8.733 -0.5200 -2.6545  0.9610
  263bbb     C6 7876   6.076   2.835   8.286 -0.2105 -0.2951  0.3043
  263bbb    H11 7877   6.149   2.777   8.344  1.0376 -0.1172 -1.0581
  263bbb    H12 7878   6.129   2.917   8.236  1.1387 -2.9510 -2.9399
  263bbb     C7 7879   5.824   3.269   8.680  0.4343  0.2075  0.2114
  263bbb    H13 7880   5.798   3.373   8.655 -1.5783 -0.4075 -0.4280
  263bbb    H14 7881   5.861   3.250   8.782  0.8605  0.0131  0.0230
  263bbb     C8 7882   6.004   2.749   8.183  0.4634 -0.1203 -0.6018
  263bbb    H15 7883   6.070   2.726   8.099 -0.6746 -1.5513 -1.1434
  263bbb    H16 7884   5.969   2.657   8.231 -1.9193  0.7110 -0.5803
  263bbb     C9 7885   6.305   2.881   8.704  0.9265  0.1768 -0.4493
  263bbb    H17 7886   6.306   2.811   8.788  0.7658 -2.2101 -2.3231
  263bbb    H18 7887   6.363   2.967   8.741  1.3997 -0.7792  1.1371
  263bbb     O1 7888   5.694   3.209   8.651  0.3507 -0.4411  0.0381
  263bbb    H19 7889   6.047   3.100   8.395  0.3536 -0.1188  0.5446
  264bbb     N1 7890   5.770   3.753   8.194 -0.1445  0.5507  0.0533
  264bbb     C1 7891   5.901   3.733   8.268  0.5497 -0.5197  0.6703
  264bbb     H1 7892   5.927   3.833   8.304 -2.2260  0.5444 -0.0096
  264bbb     H2 7893   5.982   3.715   8.198 -0.5609  1.8345 -1.3685
  264bbb     C2 7894   5.796   3.853   8.084  0.0017  0.5829  0.3978
  264bbb     H3 7895   5.812   3.955   8.121 -0.1361  0.8987 -0.3971
  264bbb     H4 7896   5.700   3.867   8.033  0.1118  2.4393  0.6075
  264bbb     C3 7897   5.730   3.617   8.144 -0.3662 -0.4409  0.8218
  264bbb     H5 7898   5.706   3.563   8.236  2.1916  2.6367  3.5717
  264bbb     H6 7899   5.819   3.573   8.098 -0.9328 -0.0499 -0.7104
  264bbb     C4 7900   5.603   3.630   8.049 -0.3503 -0.1113 -0.0028
  264bbb     H7 7901   5.635   3.669   7.952  0.7892 -1.2196 -0.1069
  264bbb     H8 7902   5.531   3.701   8.092  0.4445  1.0295 -0.5085
  264bbb     C5 7903   5.894   3.634   8.387 -0.5540  0.3833  0.1632
  264bbb     H9 7904   5.889   3.532   8.347 -3.9573 -0.5897  2.5308
  264bbb    H10 7905   5.811   3.654   8.457  0.6621  2.1204  1.1819
  264bbb     C6 7906   5.895   3.824   7.971  0.4567  0.1187  0.1789
  264bbb    H11 7907   5.842   3.755   7.904 -0.7300 -1.8465  2.9205
  264bbb    H12 7908   5.989   3.779   8.006  0.2849 -0.2208  0.2103
  264bbb     C7 7909   5.533   3.491   8.034  0.4381 -0.7052  0.3380
  264bbb    H13 7910   5.605   3.421   7.990  0.1842 -0.0554 -1.1999
  264bbb    H14 7911   5.449   3.499   7.964 -1.7190 -0.3352  2.8115
  264bbb     C8 7912   5.930   3.963   7.913  0.3288 -0.5755  0.1740
  264bbb    H15 7913   5.952   4.034   7.993 -1.5492 -1.6568  1.7526
  264bbb    H16 7914   6.019   3.950   7.850  2.5438  2.0392  2.4596
  264bbb     C9 7915   6.029   3.645   8.462  0.8331 -0.0564 -0.0139
  264bbb    H17 7916   6.111   3.622   8.392 -0.1884 -1.5278 -0.7907
  264bbb    H18 7917   6.022   3.575   8.546 -1.5163 -1.4134 -1.2248
  264bbb     O1 7918   5.485   3.448   8.162  0.4426 -0.0615 -0.3871
  264bbb    H19 7919   5.695   3.788   8.256  1.5256  0.1012  2.4824
  265bbb     N1 7920   4.618   2.682   8.988  0.5626 -0.0858  0.0894
  265bbb     C1 7921   4.590   2.796   8.894 -0.0679  0.1083  0.2032
  265bbb     H1 7922   4.598   2.747   8.796  0.1115 -4.1528  2.1474
  265bbb     H2 7923   4.672   2.868   8.894  0.2471 -0.2293  1.3091
  265bbb     C2 7924   4.522   2.573   8.968  0.0361  0.1450 -0.4470
  265bbb     H3 7925   4.427   2.627   8.965 -0.1677 -0.2210 -0.9243
  265bbb     H4 7926   4.539   2.512   9.057  3.1984  2.0071  0.3537
  265bbb     C3 7927   4.759   2.631   8.975  0.0626  0.4147  0.5220
  265bbb     H5 7928   4.844   2.700   8.977 -0.7334  1.4805 -0.8804
  265bbb     H6 7929   4.765   2.594   8.872  0.6885 -0.9353  1.0214
  265bbb     C4 7930   4.796   2.518   9.068  0.3339  0.7075 -0.0392
  265bbb     H7 7931   4.758   2.423   9.028 -0.6476  0.7136  0.8311
  265bbb     H8 7932   4.753   2.532   9.168 -1.6345 -2.5014 -0.2973
  265bbb     C5 7933   4.450   2.867   8.903 -0.0257  0.4213  0.1441
  265bbb     H9 7934   4.425   2.867   9.010 -1.2191  0.4856 -0.1241
  265bbb    H10 7935   4.374   2.807   8.852 -2.1133  1.1188  2.2485
  265bbb     C6 7936   4.528   2.483   8.849 -0.6414  0.6192  0.3994
  265bbb    H11 7937   4.628   2.448   8.821 -0.2312  2.5829 -0.7936
  265bbb    H12 7938   4.479   2.527   8.762 -0.5808 -0.5494 -0.2417
  265bbb     C7 7939   4.949   2.484   9.076  0.2552  0.1298  0.1770
  265bbb    H13 7940   4.978   2.408   9.149  0.7926 -0.4538 -0.6269
  265bbb    H14 7941   5.010   2.572   9.100  3.6086 -2.2692  1.2123
  265bbb     C8 7942   4.431   2.363   8.881 -0.0514  0.0413  1.4107
  265bbb    H15 7943   4.341   2.407   8.927  0.5264  3.9516 -0.8047
  265bbb    H16 7944   4.406   2.313   8.787 -0.1739  0.2200  1.3479
  265bbb     C9 7945   4.452   3.013   8.866  0.1756 -0.3384  0.0327
  265bbb    H17 7946   4.499   3.024   8.767 -0.9868 -0.9522 -0.6167
  265bbb    H18 7947   4.504   3.063   8.948  0.2594  1.3242 -0.9777
  265bbb     O1 7948   4.991   2.435   8.946 -0.3362 -0.2697 -0.7799
  265bbb    H19 7949   4.607   2.710   9.086  1.5049  0.0426  0.1692
  266bbb     N1 7950   4.591   1.728   8.198  0.1003  0.0766  0.9358
  266bbb     C1 7951   4.583   1.579   8.173 -0.8654  0.6576  0.0619
  266bbb     H1 7952   4.498   1.532   8.223  0.3753 -1.4862  0.2716
  266bbb     H2 7953   4.671   1.553   8.232 -0.0863 -0.7068 -1.6214
  266bbb     C2 7954   4.474   1.790   8.118 -0.2741 -0.2117 -0.3617
  266bbb     H3 7955   4.386   1.783   8.182 -0.4217  0.8922 -0.4246
  266bbb     H4 7956   4.455   1.730   8.029 -0.2970 -0.7964  0.0373
  266bbb     C3 7957   4.581   1.752   8.352 -0.2963 -0.3696  0.0268
  266bbb     H5 7958   4.523   1.672   8.398 -2.7099  2.2790  2.0096
  266bbb     H6 7959   4.538   1.851   8.372  1.8797  0.6751 -0.2288
  266bbb     C4 7960   4.728   1.758   8.413 -0.4206 -0.5982  0.0592
  266bbb     H7 7961   4.795   1.833   8.369 -0.3855 -0.7021 -0.0621
  266bbb     H8 7962   4.779   1.662   8.398 -0.3160 -0.2198 -2.4203
  266bbb     C5 7963   4.600   1.527   8.027  0.3248 -0.1781  0.3244
  266bbb     H9 7964   4.693   1.565   7.982  0.9552 -0.4594  1.3432
  266bbb    H10 7965   4.521   1.562   7.961 -2.2349 -2.1063  2.1265
  266bbb     C6 7966   4.487   1.945   8.088 -0.9578 -0.6649  0.5677
  266bbb    H11 7967   4.569   1.964   8.017 -1.8415 -0.3599 -0.4093
  266bbb    H12 7968   4.514   1.998   8.179  0.8036  0.5245 -0.5825
  266bbb     C7 7969   4.721   1.775   8.569 -0.2978 -0.4930  0.3485
  266bbb    H13 7970   4.818   1.749   8.612  0.1592  1.0197  0.2806
  266bbb    H14 7971   4.645   1.708   8.612 -1.6387  1.4412  1.1293
  266bbb     C8 7972   4.360   1.986   8.021 -0.5386 -0.2499 -0.1220
  266bbb    H15 7973   4.347   1.930   7.928 -0.4453  1.1572 -1.0186
  266bbb    H16 7974   4.278   1.965   8.091 -0.9001  0.0155 -0.4634
  266bbb     C9 7975   4.598   1.370   8.023 -0.1614 -0.0930  0.5452
  266bbb    H17 7976   4.671   1.329   8.095  0.0612 -0.0280  0.3585
  266bbb    H18 7977   4.624   1.329   7.925  1.5242  1.6710  0.1874
  266bbb     O1 7978   4.708   1.913   8.603  0.4575  0.1738  0.2033
  266bbb    H19 7979   4.680   1.767   8.165 -0.5616 -0.0554 -1.1452
  267bbb     N1 7980   4.837   3.229   9.223 -0.0004 -0.4699  0.4110
  267bbb     C1 7981   4.970   3.173   9.270 -0.6068 -0.4775  0.8408
  267bbb     H1 7982   5.044   3.236   9.220 -4.1546  2.7572 -0.8206
  267bbb     H2 7983   4.969   3.067   9.242 -3.1753  0.1286 -1.8841
  267bbb     C2 7984   4.720   3.159   9.298 -0.4818  0.2029 -0.0019
  267bbb     H3 7985   4.722   3.194   9.402 -0.6978 -0.4453  0.2295
  267bbb     H4 7986   4.745   3.053   9.301  0.4410  0.4348  1.2837
  267bbb     C3 7987   4.836   3.381   9.254 -0.2328  0.2198  0.1398
  267bbb     H5 7988   4.847   3.402   9.360  1.9175  0.9272 -0.1674
  267bbb     H6 7989   4.742   3.421   9.214 -0.5635 -1.5076 -0.9028
  267bbb     C4 7990   4.937   3.467   9.179 -0.4439  0.1163 -0.0438
  267bbb     H7 7991   4.968   3.418   9.085 -2.1147 -0.3161 -0.3915
  267bbb     H8 7992   5.029   3.452   9.237 -0.8256 -0.2742  0.4681
  267bbb     C5 7993   4.997   3.167   9.422  0.0470  0.2637 -0.3253
  267bbb     H9 7994   4.938   3.091   9.474 -1.8745  0.4797 -2.0417
  267bbb    H10 7995   4.964   3.254   9.479  1.4241 -0.2361  1.3104
  267bbb     C6 7996   4.582   3.178   9.233 -0.1293 -0.2911 -0.4507
  267bbb    H11 7997   4.591   3.127   9.136 -1.3673  0.8277 -1.1875
  267bbb    H12 7998   4.570   3.286   9.217  2.9101  0.1845 -0.0091
  267bbb     C7 7999   4.910   3.619   9.165  0.4238  0.8424 -0.3994
  267bbb    H13 8000   4.941   3.657   9.067  2.3003 -0.7511 -0.4840
  267bbb    H14 8001   4.950   3.675   9.250 -0.1081 -0.2627  0.6196
  267bbb     C8 8002   4.462   3.120   9.313  0.4736  0.6662 -0.2734
  267bbb    H15 8003   4.487   3.026   9.364  2.2024  1.2096 -0.0732
  267bbb    H16 8004   4.428   3.184   9.396  1.2182 -1.9285  2.1894
  267bbb     C9 8005   5.148   3.179   9.457 -0.0799 -0.2251  0.2240
  267bbb    H17 8006   5.167   3.190   9.564  0.4145  0.7340  0.0607
  267bbb    H18 8007   5.192   3.271   9.416 -0.4527  1.1609  2.7527
  267bbb     O1 8008   4.771   3.640   9.172  0.2566 -0.1117  0.0804
  267bbb    H19 8009   4.818   3.214   9.123 -1.6400  2.8954  0.0877
  268bbb     N1 8010   4.070   3.339  10.004 -0.2662 -0.3663 -0.3488
  268bbb     C1 8011   3.936   3.273  10.021 -0.4797 -0.3029  0.3621
  268bbb     H1 8012   3.894   3.316  10.111  2.5720 -1.4523  2.5085
  268bbb     H2 8013   3.952   3.166  10.035 -0.3188 -0.2619  0.5002
  268bbb     C2 8014   4.164   3.287  10.122  0.2072  0.1564  0.8395
  268bbb     H3 8015   4.266   3.312  10.091 -0.5201  3.3707  0.6980
  268bbb     H4 8016   4.138   3.183  10.104 -1.1768  0.7006 -0.5592
  268bbb     C3 8017   4.134   3.301   9.872 -0.6342  0.2242  0.6824
  268bbb     H5 8018   4.060   3.328   9.797  3.2015  4.0008 -2.2051
  268bbb     H6 8019   4.155   3.196   9.888 -0.0411  0.1344 -0.6171
  268bbb     C4 8020   4.261   3.387   9.827 -0.1401  0.1047  0.2607
  268bbb     H7 8021   4.318   3.345   9.743 -0.7452  2.6837 -1.5656
  268bbb     H8 8022   4.335   3.395   9.907 -0.0759 -1.2418  0.3637
  268bbb     C5 8023   3.827   3.290   9.909  0.2552  0.0788  0.6306
  268bbb     H9 8024   3.743   3.227   9.941 -0.3368 -0.7692 -2.2985
  268bbb    H10 8025   3.863   3.242   9.818  1.4244  0.4636  0.8674
  268bbb     C6 8026   4.136   3.349  10.256  0.2765  0.0043  0.0723
  268bbb    H11 8027   4.034   3.389  10.267  0.0539 -0.3380 -0.6820
  268bbb    H12 8028   4.199   3.436  10.278  0.0007 -0.2020  1.8572
  268bbb     C7 8029   4.222   3.531   9.783  0.1327 -0.1989 -1.0023
  268bbb    H13 8030   4.305   3.601   9.798  0.3673 -0.8288  0.9894
  268bbb    H14 8031   4.138   3.573   9.839  2.0808 -0.0214  2.0335
  268bbb     C8 8032   4.146   3.242  10.359 -0.4991  0.9830 -0.9514
  268bbb    H15 8033   4.245   3.199  10.341 -0.7857 -0.5073  0.6825
  268bbb    H16 8034   4.140   3.289  10.458 -1.4737  1.5198 -1.2549
  268bbb     C9 8035   3.791   3.439   9.905  0.6713  0.3451 -0.3987
  268bbb    H17 8036   3.702   3.464   9.845 -0.2291  1.9689  1.5104
  268bbb    H18 8037   3.879   3.484   9.858  0.5146  0.9855 -0.0796
  268bbb     O1 8038   4.187   3.533   9.644  0.1587  0.3055 -0.5972
  268bbb    H19 8039   4.046   3.438  10.019 -0.0244 -0.5898  1.6695
  269bbb     N1 8040   4.382   5.463   8.789  0.2377 -0.0371  0.3495
  269bbb     C1 8041   4.323   5.503   8.926 -0.7152  0.1365 -0.0451
  269bbb     H1 8042   4.293   5.607   8.917 -0.8515  0.1418  0.4526
  269bbb     H2 8043   4.403   5.491   8.998 -0.9281 -0.3348  0.1141
  269bbb     C2 8044   4.496   5.554   8.764 -0.1593 -0.2227  0.4173
  269bbb     H3 8045   4.546   5.522   8.672  3.1518  0.5462  1.7922
  269bbb     H4 8046   4.567   5.536   8.845  0.4795 -1.0142 -0.2964
  269bbb     C3 8047   4.429   5.313   8.791  0.3136 -0.3262  0.4596
  269bbb     H5 8048   4.343   5.246   8.792  0.7298 -0.8969  2.3490
  269bbb     H6 8049   4.475   5.297   8.888 -0.6488  1.3201  1.2344
  269bbb     C4 8050   4.522   5.263   8.686 -0.4056  0.3489  0.2457
  269bbb     H7 8051   4.628   5.290   8.693 -0.3688  0.2734 -0.0058
  269bbb     H8 8052   4.485   5.300   8.589  0.5279 -0.9167 -0.6319
  269bbb     C5 8053   4.192   5.434   8.974  0.3423 -0.0535  0.1901
  269bbb     H9 8054   4.220   5.338   9.021  0.9596  1.3938  3.0448
  269bbb    H10 8055   4.128   5.416   8.887  0.3809 -0.4803  0.2488
  269bbb     C6 8056   4.464   5.707   8.762  0.0591 -0.1420  0.6495
  269bbb    H11 8057   4.560   5.750   8.733  0.5809 -1.4333  0.3851
  269bbb    H12 8058   4.437   5.742   8.862  0.8407 -1.7563  1.4713
  269bbb     C7 8059   4.518   5.103   8.680  0.8446  0.1902  0.3489
  269bbb    H13 8060   4.559   5.069   8.584  0.1899 -1.3493  0.5792
  269bbb    H14 8061   4.416   5.065   8.673  1.6009 -2.0914  0.5421
  269bbb     C8 8062   4.351   5.750   8.659  0.6146  0.4961 -0.0160
  269bbb    H15 8063   4.356   5.856   8.631 -2.2661  1.3057  2.0895
  269bbb    H16 8064   4.368   5.686   8.571  1.8162  1.4402 -0.4983
  269bbb     C9 8065   4.118   5.520   9.082 -0.0513 -0.5881 -0.3932
  269bbb    H17 8066   4.024   5.467   9.098 -0.1792 -0.0747  0.6488
  269bbb    H18 8067   4.108   5.619   9.038  1.5952 -0.7809 -1.2712
  269bbb     O1 8068   4.578   5.027   8.797  0.5034  0.5673  0.8077
  269bbb    H19 8069   4.311   5.473   8.715  1.3548 -1.3116 -0.9629
  270bbb     N1 8070   4.933   5.227   9.448 -0.4934  0.1972 -0.1030
  270bbb     C1 8071   4.890   5.368   9.466  0.1929 -0.1806 -0.5704
  270bbb     H1 8072   4.826   5.392   9.381  1.6922 -1.3391 -2.0886
  270bbb     H2 8073   4.986   5.418   9.454  0.6987 -0.3783  2.0745
  270bbb     C2 8074   5.044   5.187   9.542 -0.2418  0.3535 -0.2868
  270bbb     H3 8075   4.999   5.183   9.641 -0.4987  0.0972 -0.4125
  270bbb     H4 8076   5.124   5.261   9.546 -1.0493  1.3719 -1.9369
  270bbb     C3 8077   4.820   5.131   9.465 -0.5155 -0.2688  0.2123
  270bbb     H5 8078   4.774   5.152   9.562 -1.0181 -0.9459  0.1290
  270bbb     H6 8079   4.853   5.027   9.477 -1.7645 -0.5353  1.7852
  270bbb     C4 8080   4.707   5.127   9.357  0.1044 -0.4138 -0.1856
  270bbb     H7 8081   4.755   5.139   9.259  1.2317  1.0007  0.5081
  270bbb     H8 8082   4.639   5.211   9.378  2.3703  0.9583  2.0710
  270bbb     C5 8083   4.838   5.415   9.605  0.2414 -0.7313  0.3709
  270bbb     H9 8084   4.901   5.376   9.687  1.0650 -1.1075 -0.4205
  270bbb    H10 8085   4.736   5.377   9.617  0.4861 -2.4331 -2.2207
  270bbb     C6 8086   5.117   5.049   9.512  0.8610 -0.7096  0.6393
  270bbb    H11 8087   5.159   5.052   9.411 -1.1020 -0.1435 -0.2130
  270bbb    H12 8088   5.036   4.976   9.502 -1.0865  1.6260 -2.3698
  270bbb     C7 8089   4.640   4.989   9.354 -0.0793  0.0987 -1.4637
  270bbb    H13 8090   4.557   4.990   9.282  0.7446  0.0594 -2.4387
  270bbb    H14 8091   4.602   4.966   9.454 -1.3668 -0.7474 -2.1156
  270bbb     C8 8092   5.221   5.018   9.619  0.5071 -0.7846  0.3714
  270bbb    H15 8093   5.175   4.978   9.710 -0.9304 -2.5642 -1.0647
  270bbb    H16 8094   5.282   4.934   9.585  0.3493 -1.3152  1.3425
  270bbb     C9 8095   4.837   5.572   9.633 -0.5771 -0.2165  0.2228
  270bbb    H17 8096   4.812   5.594   9.737  0.0582  1.6679  0.0156
  270bbb    H18 8097   4.759   5.627   9.579  0.0301  1.1953  0.7315
  270bbb     O1 8098   4.735   4.887   9.321  0.0078 -0.3932 -0.3075
  270bbb    H19 8099   4.962   5.209   9.351 -0.6403  1.1622 -0.3382
  271bbb     N1 8100   1.419   3.161   6.761  0.4036 -0.4070 -0.2385
  271bbb     C1 8101   1.509   3.232   6.664  0.0054  0.1541 -0.3466
  271bbb     H1 8102   1.594   3.267   6.722 -1.1087  1.5958  0.4768
  271bbb     H2 8103   1.452   3.323   6.645  0.6906  1.1092  1.9053
  271bbb     C2 8104   1.280   3.129   6.703  0.4280 -0.1118  0.8042
  271bbb     H3 8105   1.217   3.068   6.767 -0.1865 -3.0366 -2.3008
  271bbb     H4 8106   1.296   3.077   6.608 -1.4766  1.0275 -0.2244
  271bbb     C3 8107   1.478   3.028   6.798 -0.1522 -0.0103 -0.2630
  271bbb     H5 8108   1.586   3.040   6.809 -0.2644  0.6149  0.1850
  271bbb     H6 8109   1.467   2.967   6.708  2.1513  2.6510 -2.5339
  271bbb     C4 8110   1.427   2.951   6.924 -0.3261 -0.1127 -0.1959
  271bbb     H7 8111   1.437   2.842   6.911 -1.1053 -0.3524  1.0146
  271bbb     H8 8112   1.320   2.975   6.929 -0.8225 -1.8841 -1.2158
  271bbb     C5 8113   1.542   3.156   6.528 -0.2331  0.5458  0.3877
  271bbb     H9 8114   1.451   3.099   6.504  0.5162 -1.0061  1.0432
  271bbb    H10 8115   1.617   3.077   6.543 -0.2321  0.0518 -1.8240
  271bbb     C6 8116   1.203   3.263   6.663  0.0295  0.0610 -0.2813
  271bbb    H11 8117   1.263   3.324   6.595 -0.1757 -1.6139 -2.0408
  271bbb    H12 8118   1.193   3.335   6.745  1.0571  1.2831 -1.1864
  271bbb     C7 8119   1.500   3.004   7.048 -0.9583  0.3276 -1.0148
  271bbb    H13 8120   1.604   2.972   7.039 -1.1096 -0.4211 -0.2690
  271bbb    H14 8121   1.456   2.946   7.130  0.1963 -0.1591 -0.7224
  271bbb     C8 8122   1.073   3.238   6.590  0.3772 -1.2237  0.1179
  271bbb    H15 8123   1.016   3.332   6.595  1.0244 -0.7150 -1.5102
  271bbb    H16 8124   1.087   3.211   6.485 -1.3112 -0.3359 -0.3698
  271bbb     C9 8125   1.609   3.247   6.419 -0.0730  0.1547  0.3185
  271bbb    H17 8126   1.706   3.283   6.457 -0.2644  0.0305  0.9340
  271bbb    H18 8127   1.547   3.335   6.397 -0.5628 -0.6403 -1.6140
  271bbb     O1 8128   1.495   3.145   7.061  0.4536 -0.5218  0.0932
  271bbb    H19 8129   1.419   3.216   6.847 -0.0066  1.8275 -1.5808
  272bbb     N1 8130   1.245   3.618   7.253  0.2054  0.6184 -0.2059
  272bbb     C1 8131   1.115   3.578   7.182 -0.0014  0.5649 -0.2346
  272bbb     H1 8132   1.056   3.506   7.238 -0.3142  2.1706  1.5925
  272bbb     H2 8133   1.137   3.538   7.082 -0.5933  0.5876 -0.3789
  272bbb     C2 8134   1.296   3.500   7.337 -0.0827  0.7021 -0.4469
  272bbb     H3 8135   1.398   3.533   7.353  0.4114  0.0337 -2.0243
  272bbb     H4 8136   1.299   3.406   7.282  0.6254  0.8420 -0.6536
  272bbb     C3 8137   1.357   3.643   7.146  0.0948  0.0095  0.0305
  272bbb     H5 8138   1.373   3.547   7.097 -1.7091  0.1388 -0.8853
  272bbb     H6 8139   1.438   3.664   7.215 -0.6666  1.3802  0.5468
  272bbb     C4 8140   1.335   3.750   7.035  0.4250  0.3196 -0.5662
  272bbb     H7 8141   1.290   3.842   7.075 -0.0422  0.0286 -0.4152
  272bbb     H8 8142   1.266   3.696   6.968 -0.5258 -1.2385  1.5591
  272bbb     C5 8143   1.022   3.698   7.160 -0.0946  0.7383  0.2882
  272bbb     H9 8144   0.935   3.649   7.116  0.0220  1.1798 -0.4380
  272bbb    H10 8145   1.062   3.765   7.083 -0.1942 -2.0160 -2.3310
  272bbb     C6 8146   1.224   3.477   7.471 -0.5249 -0.0835  0.0364
  272bbb    H11 8147   1.124   3.440   7.446 -1.0288  1.1968  0.0851
  272bbb    H12 8148   1.210   3.576   7.517  0.8705  0.0868  0.1583
  272bbb     C7 8149   1.461   3.791   6.967  0.4404  0.4757 -0.1763
  272bbb    H13 8150   1.512   3.852   7.043  0.7149 -2.7655  2.4545
  272bbb    H14 8151   1.430   3.854   6.883 -1.1368 -1.7985 -1.4345
  272bbb     C8 8152   1.305   3.380   7.564  0.2944  0.0696 -0.1551
  272bbb    H15 8153   1.243   3.354   7.650 -0.0285 -0.5688 -0.5737
  272bbb    H16 8154   1.331   3.289   7.508  0.7159  0.7443 -1.0847
  272bbb     C9 8155   0.980   3.768   7.293  0.3226  0.8379  0.3578
  272bbb    H17 8156   0.893   3.829   7.266  0.4425  0.7362 -0.2775
  272bbb    H18 8157   1.060   3.835   7.328  3.1549 -1.6629 -0.8821
  272bbb     O1 8158   1.538   3.680   6.925 -0.0035  0.2451  0.2461
  272bbb    H19 8159   1.231   3.696   7.320 -1.2966 -0.7317  1.1382
  273bbb     N1 8160   2.427   2.580   5.437  0.5092 -0.6533  0.0566
  273bbb     C1 8161   2.359   2.528   5.314 -0.2468  1.0111 -0.3225
  273bbb     H1 8162   2.306   2.437   5.343 -1.1878  1.4101 -0.7569
  273bbb     H2 8163   2.427   2.488   5.238 -1.2679 -2.6127  0.4797
  273bbb     C2 8164   2.508   2.465   5.494  0.4021  0.2710 -0.5829
  273bbb     H3 8165   2.448   2.374   5.500  1.7000 -0.5576  0.4721
  273bbb     H4 8166   2.522   2.496   5.598  0.4456 -2.2537  0.2270
  273bbb     C3 8167   2.516   2.696   5.408  0.5272 -0.2281 -0.0452
  273bbb     H5 8168   2.440   2.768   5.377 -1.2673 -1.6001  0.9844
  273bbb     H6 8169   2.576   2.670   5.321 -2.2095 -0.8074 -1.9089
  273bbb     C4 8170   2.586   2.762   5.533  0.2366  1.1617 -0.0063
  273bbb     H7 8171   2.663   2.690   5.562  0.6062  0.6156 -2.1808
  273bbb     H8 8172   2.519   2.783   5.618 -0.6624  0.7763 -0.5992
  273bbb     C5 8173   2.264   2.624   5.248  0.5527 -0.6764  0.6424
  273bbb     H9 8174   2.322   2.707   5.206 -0.3630 -0.3076  0.0797
  273bbb    H10 8175   2.183   2.658   5.314  1.1652  0.6291  0.7561
  273bbb     C6 8176   2.650   2.435   5.441  0.8630 -0.5083 -0.2193
  273bbb    H11 8177   2.718   2.521   5.444 -0.4681  0.5565  0.3466
  273bbb    H12 8178   2.645   2.411   5.334 -1.4481 -1.0311 -0.0424
  273bbb     C7 8179   2.651   2.896   5.501  0.0418 -0.1625  0.4047
  273bbb    H13 8180   2.714   2.887   5.411  1.3774 -0.0394  1.2927
  273bbb    H14 8181   2.703   2.939   5.588 -0.5264 -1.1559  1.2509
  273bbb     C8 8182   2.710   2.308   5.511  0.3621 -0.6908  0.8034
  273bbb    H15 8183   2.719   2.326   5.619 -2.3166 -0.7536  1.0993
  273bbb    H16 8184   2.804   2.275   5.464  0.2693  1.5216 -1.0773
  273bbb     C9 8185   2.193   2.563   5.124  0.5918 -0.0702  0.9929
  273bbb    H17 8186   2.263   2.552   5.041 -0.3882  2.2821 -0.2260
  273bbb    H18 8187   2.121   2.634   5.082 -0.9883 -2.9034 -1.4605
  273bbb     O1 8188   2.548   2.998   5.485 -0.1809  0.8056 -0.5521
  273bbb    H19 8189   2.350   2.609   5.498 -0.1102 -0.3346 -0.8668
  274bbb     N1 8190   1.615   3.514   5.890  0.3725  0.6190 -0.0340
  274bbb     C1 8191   1.598   3.373   5.965  0.1141 -0.0746  0.2655
  274bbb     H1 8192   1.666   3.365   6.050  0.8922  0.3155 -0.3098
  274bbb     H2 8193   1.637   3.296   5.898 -0.4447  0.5151 -0.7620
  274bbb     C2 8194   1.652   3.630   5.986 -0.7309 -0.5119  0.1421
  274bbb     H3 8195   1.755   3.604   6.012 -0.3008 -0.6352 -1.5541
  274bbb     H4 8196   1.587   3.617   6.073 -4.7621  0.1493 -2.5188
  274bbb     C3 8197   1.724   3.496   5.783  0.0081 -0.2376  0.0691
  274bbb     H5 8198   1.807   3.443   5.830  0.6800 -0.8732 -1.7778
  274bbb     H6 8199   1.762   3.595   5.755  4.4138 -2.0623 -1.1574
  274bbb     C4 8200   1.680   3.417   5.657 -0.4290 -0.2599 -0.0052
  274bbb     H7 8201   1.598   3.470   5.607 -0.7127  0.0817  0.7997
  274bbb     H8 8202   1.629   3.324   5.686  0.6134 -0.1880  2.3003
  274bbb     C5 8203   1.458   3.329   6.014  0.2661  0.1770 -0.1083
  274bbb     H9 8204   1.388   3.414   6.014 -0.9300 -0.7723  1.0188
  274bbb    H10 8205   1.457   3.288   6.116  0.3019 -1.7685 -0.8468
  274bbb     C6 8206   1.662   3.779   5.940  0.6098 -0.2008  0.4150
  274bbb    H11 8207   1.564   3.816   5.908  1.1933  0.7521 -0.3133
  274bbb    H12 8208   1.727   3.787   5.852 -0.9839  0.6232 -0.7485
  274bbb     C7 8209   1.788   3.391   5.547 -0.1566 -0.1413  0.2894
  274bbb    H13 8210   1.844   3.482   5.521 -0.4062 -0.7012 -2.4834
  274bbb    H14 8211   1.737   3.364   5.453 -0.6152  1.3794  0.0660
  274bbb     C8 8212   1.706   3.867   6.061 -0.4337 -0.0969  0.1490
  274bbb    H15 8213   1.631   3.870   6.141 -1.3694  0.7111 -0.7341
  274bbb    H16 8214   1.712   3.973   6.033 -0.9291 -0.1212 -0.0724
  274bbb     C9 8215   1.400   3.229   5.917 -0.2557 -0.0337  0.6377
  274bbb    H17 8216   1.295   3.203   5.935 -0.8170  1.2941 -0.5318
  274bbb    H18 8217   1.474   3.147   5.912  1.6382  1.6185  0.2401
  274bbb     O1 8218   1.878   3.298   5.597  0.3521  0.2269  0.0448
  274bbb    H19 8219   1.522   3.531   5.849  0.2807  0.0265 -0.0834
  275bbb     N1 8220   0.988   4.857   6.832  0.2389 -0.1470 -0.0039
  275bbb     C1 8221   0.895   4.911   6.720  0.2330 -0.0662 -0.9055
  275bbb     H1 8222   0.789   4.891   6.735  0.0147  0.8017 -1.2132
  275bbb     H2 8223   0.931   4.844   6.642  2.0593 -0.8335  0.5233
  275bbb     C2 8224   0.948   4.714   6.861  0.3255  0.8091  0.0095
  275bbb     H3 8225   1.017   4.677   6.938 -0.7864 -0.0786  0.6038
  275bbb     H4 8226   0.969   4.658   6.770  0.9883  2.9759 -1.2321
  275bbb     C3 8227   1.132   4.868   6.793 -0.2428 -0.3334  0.8230
  275bbb     H5 8228   1.139   4.965   6.744 -2.1225 -0.5736 -0.0400
  275bbb     H6 8229   1.140   4.792   6.715  0.0969 -1.1951  1.6837
  275bbb     C4 8230   1.244   4.862   6.896 -0.2818  0.5403 -0.2067
  275bbb     H7 8231   1.233   4.785   6.973  0.4523  0.0144 -0.6231
  275bbb     H8 8232   1.255   4.963   6.937 -0.4448  0.3338  0.3606
  275bbb     C5 8233   0.903   5.060   6.688  0.7751 -0.4422  0.6814
  275bbb     H9 8234   1.002   5.090   6.652  0.5589  1.1606  1.3533
  275bbb    H10 8235   0.899   5.119   6.780 -4.3733 -0.0733  0.4992
  275bbb     C6 8236   0.807   4.677   6.906  0.1548 -0.4496  0.0469
  275bbb    H11 8237   0.789   4.569   6.907 -0.2778 -0.3928  1.7036
  275bbb    H12 8238   0.740   4.717   6.829 -1.2491 -0.3366  1.2689
  275bbb     C7 8239   1.371   4.839   6.813  0.4507 -0.7078 -0.5625
  275bbb    H13 8240   1.451   4.844   6.889  0.4489  1.6560 -0.6365
  275bbb    H14 8241   1.375   4.930   6.753  0.2390 -0.3864 -0.0960
  275bbb     C8 8242   0.779   4.739   7.043  0.3336 -1.2707 -0.0910
  275bbb    H15 8243   0.690   4.697   7.092 -1.0165 -0.0181 -1.3738
  275bbb    H16 8244   0.871   4.723   7.101  0.9236  1.6685 -0.0207
  275bbb     C9 8245   0.789   5.113   6.604  0.3097  0.3110 -0.1461
  275bbb    H17 8246   0.804   5.074   6.503  1.4537 -5.2549  1.8089
  275bbb    H18 8247   0.798   5.223   6.604 -0.7087  0.4086  0.4950
  275bbb     O1 8248   1.367   4.721   6.730  0.0826  0.4042  0.4283
  275bbb    H19 8249   0.969   4.908   6.920 -0.0859 -0.4226  0.0886
  276bbb     N1 8250   0.699   4.207   5.938 -0.3421  0.5050 -0.0817
  276bbb     C1 8251   0.587   4.214   5.837  0.3992 -0.3848  0.2506
  276bbb     H1 8252   0.622   4.253   5.741 -0.3731 -2.2554 -0.8335
  276bbb     H2 8253   0.523   4.290   5.882  1.8974 -0.6310  3.0031
  276bbb     C2 8254   0.815   4.119   5.879  0.5149  0.0197  0.5347
  276bbb     H3 8255   0.875   4.191   5.825  0.0144  1.0466  1.3075
  276bbb     H4 8256   0.774   4.042   5.813 -0.2615  0.0400  0.9742
  276bbb     C3 8257   0.769   4.337   5.976 -0.3952 -0.2287 -0.0678
  276bbb     H5 8258   0.810   4.379   5.884  1.5821 -0.6069  0.5870
  276bbb     H6 8259   0.850   4.323   6.047 -0.3411  1.3622  0.2347
  276bbb     C4 8260   0.680   4.448   6.046  0.5065  0.1050  0.5208
  276bbb     H7 8261   0.665   4.421   6.152  0.8248 -0.0680  0.5227
  276bbb     H8 8262   0.578   4.452   6.004  1.5589 -1.8287 -2.5487
  276bbb     C5 8263   0.506   4.089   5.822  0.5279 -0.2462 -0.1545
  276bbb     H9 8264   0.462   4.049   5.914 -0.2706  1.5479  0.2839
  276bbb    H10 8265   0.561   4.003   5.782 -0.2110 -1.2592  0.9512
  276bbb     C6 8266   0.894   4.034   5.977  0.0899  0.5942 -0.0167
  276bbb    H11 8267   0.834   3.944   5.993  2.4197 -1.1680 -0.5820
  276bbb    H12 8268   0.909   4.084   6.073  1.4681 -0.4039  0.3203
  276bbb     C7 8269   0.754   4.585   6.038 -0.7781 -0.5012 -0.2268
  276bbb    H13 8270   0.703   4.662   6.097 -1.7902 -0.7580 -0.7366
  276bbb    H14 8271   0.750   4.631   5.939  1.7179  0.5063  0.0824
  276bbb     C8 8272   1.033   4.004   5.922 -0.0579 -0.2765  0.0118
  276bbb    H15 8273   1.109   4.083   5.920  1.2006 -1.4684 -1.5389
  276bbb    H16 8274   1.081   3.923   5.978  3.2660  0.2265 -1.8746
  276bbb     C9 8275   0.389   4.130   5.735 -0.0714  0.6667 -0.6732
  276bbb    H17 8276   0.353   4.042   5.681 -2.4535  0.5085  0.9824
  276bbb    H18 8277   0.420   4.198   5.655 -0.5447  0.0973 -1.3554
  276bbb     O1 8278   0.895   4.565   6.073 -0.4767  0.3915  0.2358
  276bbb    H19 8279   0.662   4.156   6.019 -0.7750 -0.1594 -0.6809
  277bbb     N1 8280   2.408   5.524   7.580 -0.3865 -0.3369 -0.8426
  277bbb     C1 8281   2.437   5.456   7.712 -0.3423 -0.3748  0.4466
  277bbb     H1 8282   2.542   5.457   7.744 -0.1665 -0.3226 -0.1312
  277bbb     H2 8283   2.404   5.353   7.699 -2.7573  0.5310 -1.1641
  277bbb     C2 8284   2.497   5.494   7.466  0.1892 -0.3532  0.3216
  277bbb     H3 8285   2.600   5.517   7.490  0.1727  0.9572 -0.7299
  277bbb     H4 8286   2.465   5.565   7.389  0.2835 -1.0308 -0.3579
  277bbb     C3 8287   2.263   5.493   7.546  0.2754  0.3164 -0.0868
  277bbb     H5 8288   2.206   5.545   7.624 -1.0230 -0.9936 -0.1239
  277bbb     H6 8289   2.254   5.385   7.558  0.8294  0.4041  1.3220
  277bbb     C4 8290   2.204   5.548   7.417 -0.4458 -0.0986 -0.5414
  277bbb     H7 8291   2.258   5.509   7.329 -0.4539  0.8487 -0.9752
  277bbb     H8 8292   2.204   5.657   7.407  1.7270 -0.1640 -1.9860
  277bbb     C5 8293   2.363   5.517   7.832 -0.2245  0.3229 -0.1280
  277bbb     H9 8294   2.257   5.494   7.821  0.3826 -2.2026 -1.1986
  277bbb    H10 8295   2.359   5.627   7.831  0.4186  0.3505 -0.4099
  277bbb     C6 8296   2.488   5.351   7.400 -0.3281 -0.1480  0.0172
  277bbb    H11 8297   2.383   5.323   7.382  0.2249 -2.4987  0.1232
  277bbb    H12 8298   2.529   5.276   7.469 -0.2815 -0.2126 -0.0792
  277bbb     C7 8299   2.058   5.498   7.405 -0.3606  0.0989 -0.0881
  277bbb    H13 8300   2.009   5.555   7.325 -1.5180  1.0751  1.2854
  277bbb    H14 8301   2.005   5.522   7.498 -2.2330 -1.7508 -0.5801
  277bbb     C8 8302   2.574   5.352   7.272 -0.5994  0.3383 -0.0092
  277bbb    H15 8303   2.592   5.251   7.231  1.4273  1.3687 -1.8181
  277bbb    H16 8304   2.522   5.416   7.200 -1.7312 -0.1001  0.3925
  277bbb     C9 8305   2.415   5.476   7.975 -0.1695 -1.0651 -0.1084
  277bbb    H17 8306   2.338   5.490   8.052 -1.5146 -0.7861 -1.4766
  277bbb    H18 8307   2.507   5.535   7.984 -0.3466 -1.0996  3.1628
  277bbb     O1 8308   2.056   5.357   7.374 -0.5908  0.3906 -0.4844
  277bbb    H19 8309   2.419   5.626   7.590  1.2581 -0.2970 -2.3565
  278bbb     N1 8310   1.485   6.038   6.965  0.1096 -0.7331  0.1936
  278bbb     C1 8311   1.455   6.147   6.860  0.2958 -0.0129  0.7877
  278bbb     H1 8312   1.446   6.246   6.905 -0.9676 -0.6011  1.9001
  278bbb     H2 8313   1.361   6.106   6.823  2.6607 -4.1730 -1.3415
  278bbb     C2 8314   1.381   6.037   7.072  0.2271 -0.4387 -0.4666
  278bbb     H3 8315   1.402   5.954   7.139 -2.0560  0.2024  1.1617
  278bbb     H4 8316   1.285   6.008   7.030 -0.4532 -0.8114  1.2844
  278bbb     C3 8317   1.509   5.899   6.913  0.0643  0.5059  0.4838
  278bbb     H5 8318   1.541   5.905   6.809  1.3188  1.9771  0.9156
  278bbb     H6 8319   1.410   5.853   6.923  0.0094  0.4671 -0.1734
  278bbb     C4 8320   1.603   5.808   7.001 -0.7093  0.0555  0.1973
  278bbb     H7 8321   1.545   5.727   7.048  0.0458 -1.6454 -1.6618
  278bbb     H8 8322   1.662   5.863   7.076  2.6743 -1.9756 -0.7330
  278bbb     C5 8323   1.558   6.150   6.741  0.1319  0.0199  0.3504
  278bbb     H9 8324   1.571   6.055   6.687  2.0342  0.8860 -0.8555
  278bbb    H10 8325   1.651   6.171   6.795  0.2401  0.2047  0.0931
  278bbb     C6 8326   1.368   6.156   7.169 -0.1090 -0.1235  0.9152
  278bbb    H11 8327   1.275   6.134   7.223 -0.9618  1.7297  0.2656
  278bbb    H12 8328   1.347   6.244   7.108 -0.6381 -0.4977  0.5579
  278bbb     C7 8329   1.712   5.746   6.919 -0.6101 -0.2644 -0.0716
  278bbb    H13 8330   1.766   5.823   6.863 -2.7048  0.8401 -0.6963
  278bbb    H14 8331   1.654   5.686   6.848  0.9886  0.5571 -2.1782
  278bbb     C8 8332   1.481   6.193   7.261 -0.6652 -0.1814  0.1757
  278bbb    H15 8333   1.468   6.293   7.302  0.9297  0.0190  0.2735
  278bbb    H16 8334   1.486   6.119   7.343  0.9908 -1.1543 -0.7415
  278bbb     C9 8335   1.521   6.250   6.635  0.1009 -0.4751  0.6617
  278bbb    H17 8336   1.419   6.246   6.595  0.7132  1.2840 -1.2597
  278bbb    H18 8337   1.588   6.233   6.549 -1.0357  0.2407 -0.3921
  278bbb     O1 8338   1.801   5.658   6.999  0.2376 -0.0689 -0.6290
  278bbb    H19 8339   1.574   6.066   7.008 -1.1818  2.7522  0.9241
  279bbb     N1 8340   4.939   1.929   6.358  0.4951  0.0065 -0.0358
  279bbb     C1 8341   4.922   1.818   6.462 -0.0589 -0.1164 -0.2992
  279bbb     H1 8342   4.859   1.869   6.536  0.1483 -0.4476  0.1102
  279bbb     H2 8343   5.020   1.800   6.508 -0.3191  0.5074  0.5338
  279bbb     C2 8344   4.813   1.988   6.291 -0.0401  0.2081  0.2220
  279bbb     H3 8345   4.774   1.912   6.223  0.0261  1.2587 -1.0121
  279bbb     H4 8346   4.850   2.076   6.239  1.5069 -0.3795  0.2657
  279bbb     C3 8347   5.029   2.039   6.407 -0.4577 -0.0088 -0.2771
  279bbb     H5 8348   4.968   2.104   6.470 -0.8090 -0.0844 -0.5388
  279bbb     H6 8349   5.060   2.095   6.319 -0.4315  0.9726  0.3350
  279bbb     C4 8350   5.162   2.004   6.494 -0.5599  0.0693  0.1880
  279bbb     H7 8351   5.209   1.915   6.449  0.8647  0.6714  0.4231
  279bbb     H8 8352   5.116   1.987   6.593 -1.0550  0.3591  0.0115
  279bbb     C5 8353   4.852   1.690   6.413 -0.2639 -0.8381 -0.4045
  279bbb     H9 8354   4.915   1.624   6.351  0.0318 -1.0306  0.0899
  279bbb    H10 8355   4.766   1.719   6.353  0.0391 -0.5563 -0.7101
  279bbb     C6 8356   4.698   2.033   6.389  0.8764 -0.1653 -0.1649
  279bbb    H11 8357   4.739   2.098   6.467  0.0036 -0.0367  0.1931
  279bbb    H12 8358   4.655   1.945   6.439 -1.1080  0.7613 -0.1750
  279bbb     C7 8359   5.251   2.130   6.491  0.0359  0.8334  0.5814
  279bbb    H13 8360   5.248   2.178   6.392 -0.7271 -0.0536  0.1672
  279bbb    H14 8361   5.349   2.092   6.523  0.0267  0.4972  0.2124
  279bbb     C8 8362   4.575   2.101   6.313 -0.0520  0.4386  0.2014
  279bbb    H15 8363   4.493   2.128   6.380 -0.4012  0.4970 -0.2444
  279bbb    H16 8364   4.615   2.190   6.262  0.8750 -1.0470 -1.7864
  279bbb     C9 8365   4.797   1.608   6.532 -0.1720 -0.0936  0.3046
  279bbb    H17 8366   4.884   1.581   6.594  0.0804 -0.6836 -0.2908
  279bbb    H18 8367   4.747   1.517   6.495  0.0856  0.4278 -1.4109
  279bbb     O1 8368   5.197   2.231   6.578 -0.1465 -0.1558 -0.2826
  279bbb    H19 8369   4.984   1.884   6.278  1.0531 -1.8431  1.2530
  280bbb     N1 8370   5.173   2.210   7.113  0.0402 -0.3973  0.6874
  280bbb     C1 8371   5.139   2.216   7.265  0.3872 -0.0214  0.0131
  280bbb     H1 8372   5.123   2.319   7.297  1.0268 -0.1272  0.6975
  280bbb     H2 8373   5.225   2.165   7.308 -1.4699 -4.6200 -1.1221
  280bbb     C2 8374   5.210   2.067   7.076  0.0032  0.2939  0.0714
  280bbb     H3 8375   5.127   2.005   7.110  0.4637 -0.7006 -0.5834
  280bbb     H4 8376   5.292   2.046   7.145 -1.0595 -0.2500  1.2130
  280bbb     C3 8377   5.055   2.255   7.031 -0.0996 -0.1158  0.1544
  280bbb     H5 8378   4.965   2.201   7.062 -1.1000 -0.6696 -3.2181
  280bbb     H6 8379   5.066   2.225   6.926 -2.4540 -3.3056  0.6727
  280bbb     C4 8380   5.019   2.405   7.037 -0.2137  0.3709 -0.0401
  280bbb     H7 8381   5.107   2.462   7.005  0.3791  0.1026  1.0669
  280bbb     H8 8382   4.997   2.425   7.142 -1.0232 -2.8428  0.4997
  280bbb     C5 8383   5.006   2.137   7.306 -0.0926 -0.0532  0.4677
  280bbb     H9 8384   5.003   2.036   7.263  0.3191 -0.2480  0.8846
  280bbb    H10 8385   4.917   2.197   7.284  0.4686  0.6756  0.1543
  280bbb     C6 8386   5.235   2.025   6.928  0.0283 -0.4063 -0.1176
  280bbb    H11 8387   5.141   2.022   6.872  0.2545  0.4752 -0.5615
  280bbb    H12 8388   5.270   1.922   6.916 -0.7041 -0.5019 -1.6044
  280bbb     C7 8389   4.895   2.453   6.963  0.1283  0.3918  0.3712
  280bbb    H13 8390   4.895   2.562   6.980 -2.0681  0.4249  0.5581
  280bbb    H14 8391   4.806   2.408   7.009  1.0924  0.7770  2.7541
  280bbb     C8 8392   5.324   2.137   6.859 -0.6292  0.0653  0.2899
  280bbb    H15 8393   5.358   2.097   6.762  0.6886  0.1200  0.7106
  280bbb    H16 8394   5.267   2.229   6.842 -0.8103 -0.1112 -0.0700
  280bbb     C9 8395   4.991   2.116   7.464 -0.0740 -0.2570  0.4144
  280bbb    H17 8396   4.889   2.078   7.482 -1.0724  2.0333 -0.0073
  280bbb    H18 8397   4.982   2.216   7.507  2.8436  0.6839 -0.9291
  280bbb     O1 8398   4.906   2.421   6.821 -0.2802  0.2214 -0.1118
  280bbb    H19 8399   5.249   2.277   7.092  1.6553 -2.0327  1.0351
  281bbb     N1 8400   4.230   2.843   5.718 -0.2861 -0.3119 -0.1278
  281bbb     C1 8401   4.186   2.874   5.571 -0.2824  0.5686  0.3107
  281bbb     H1 8402   4.077   2.880   5.573 -0.3718 -0.3190 -0.7628
  281bbb     H2 8403   4.218   2.785   5.517 -0.1501  0.7931  0.0163
  281bbb     C2 8404   4.380   2.825   5.735  0.2061  0.9162  0.3774
  281bbb     H3 8405   4.422   2.921   5.766  0.2790  1.5563 -1.5663
  281bbb     H4 8406   4.415   2.796   5.636 -0.4679  1.2076  0.0454
  281bbb     C3 8407   4.196   2.969   5.798  0.1126  0.4125 -0.1872
  281bbb     H5 8408   4.229   3.051   5.734  1.4873 -0.0125 -0.0717
  281bbb     H6 8409   4.257   2.970   5.889 -0.1763 -2.1768  0.1169
  281bbb     C4 8410   4.046   3.000   5.836 -1.0149  0.0045 -0.3068
  281bbb     H7 8411   4.007   2.909   5.883  0.2338 -1.1504 -1.3781
  281bbb     H8 8412   3.992   3.023   5.743  1.2371  3.1605 -1.0010
  281bbb     C5 8413   4.253   3.005   5.505  0.5680 -0.0455  0.5638
  281bbb     H9 8414   4.362   3.010   5.518  0.5513  0.9895  0.3630
  281bbb    H10 8415   4.207   3.096   5.544  0.2859  0.4741 -0.9137
  281bbb     C6 8416   4.434   2.732   5.847  0.3506  0.5931  0.3014
  281bbb    H11 8417   4.383   2.635   5.838  0.1449  0.6597  0.7598
  281bbb    H12 8418   4.404   2.766   5.947 -0.8217 -2.0236  0.9110
  281bbb     C7 8419   4.040   3.120   5.938 -0.0233  0.6835 -0.4877
  281bbb    H13 8420   3.940   3.133   5.980 -0.1146 -0.3307 -0.3674
  281bbb    H14 8421   4.050   3.217   5.888  2.6957  0.7802  0.1008
  281bbb     C8 8422   4.580   2.708   5.837  0.4096 -0.0446 -0.2758
  281bbb    H15 8423   4.628   2.807   5.830 -1.6358  1.0542  0.2313
  281bbb    H16 8424   4.624   2.656   5.923 -0.3879 -1.0771 -0.4716
  281bbb     C9 8425   4.222   2.998   5.354  0.0351  0.0340 -0.6220
  281bbb    H17 8426   4.231   3.101   5.316  2.3573 -0.7298 -2.3772
  281bbb    H18 8427   4.116   2.968   5.347 -0.3794  1.1548  0.3816
  281bbb     O1 8428   4.142   3.094   6.042  0.2622  0.2629  0.0527
  281bbb    H19 8429   4.186   2.758   5.756 -1.6902  1.6162  3.0137
  282bbb     N1 8430   4.842   3.292   5.478  0.8076 -0.1498  0.0076
  282bbb     C1 8431   4.790   3.436   5.491  0.4371 -0.1875  0.2655
  282bbb     H1 8432   4.808   3.472   5.389 -1.1559 -3.1549 -1.1943
  282bbb     H2 8433   4.846   3.485   5.572 -1.5137  0.8423  1.0623
  282bbb     C2 8434   4.987   3.302   5.437  1.1764  0.2103 -0.1507
  282bbb     H3 8435   5.038   3.215   5.481 -1.2602 -2.1073 -1.6019
  282bbb     H4 8436   5.030   3.396   5.472  1.4446  0.6187 -1.5369
  282bbb     C3 8437   4.834   3.214   5.609  0.7669  0.7792 -0.4564
  282bbb     H5 8438   4.843   3.109   5.580 -1.4899  0.4699 -0.1824
  282bbb     H6 8439   4.734   3.225   5.651 -0.3239 -1.1353 -2.3703
  282bbb     C4 8440   4.941   3.252   5.719 -0.0467  0.1091 -0.4476
  282bbb     H7 8441   4.942   3.362   5.726  2.2262  0.0426  1.8604
  282bbb     H8 8442   5.043   3.224   5.689 -0.2404 -0.2289 -0.7932
  282bbb     C5 8443   4.638   3.435   5.515 -0.6732  0.0125 -0.2703
  282bbb     H9 8444   4.608   3.350   5.578  1.5924  1.0707  2.5100
  282bbb    H10 8445   4.593   3.413   5.418 -2.2501  3.8143 -0.5511
  282bbb     C6 8446   5.026   3.289   5.296  0.6992  0.1020  0.3418
  282bbb    H11 8447   5.022   3.186   5.258  1.9701  0.1826 -0.0808
  282bbb    H12 8448   5.135   3.299   5.288  0.6623  0.4805  0.3041
  282bbb     C7 8449   4.917   3.187   5.858 -0.2701 -0.2520 -0.1768
  282bbb    H13 8450   4.983   3.240   5.929 -1.0862  0.4217  0.0911
  282bbb    H14 8451   4.956   3.085   5.848 -0.2781 -0.2598 -0.1273
  282bbb     C8 8452   4.964   3.388   5.191  0.3685 -0.6638 -0.0602
  282bbb    H15 8453   4.976   3.494   5.219  0.2980  0.1562 -2.8628
  282bbb    H16 8454   5.017   3.367   5.098 -0.4130  0.6217 -0.8276
  282bbb     C9 8455   4.581   3.569   5.574  0.2685 -0.5850  0.9182
  282bbb    H17 8456   4.627   3.662   5.539  0.2575 -0.4530  1.2608
  282bbb    H18 8457   4.589   3.574   5.683 -0.2470 -0.1743  0.9442
  282bbb     O1 8458   4.783   3.199   5.909 -0.5285 -0.0160  0.0492
  282bbb    H19 8459   4.784   3.240   5.410  0.4021  1.3671 -0.8618
  283bbb     N1 8460   3.158   2.112   8.412  0.0399 -0.8906  0.0481
  283bbb     C1 8461   3.160   1.961   8.402 -0.0371  0.2031 -0.1289
  283bbb     H1 8462   3.235   1.916   8.468 -0.4521 -2.0679 -1.1199
  283bbb     H2 8463   3.202   1.954   8.302 -2.0927  0.6188 -1.0636
  283bbb     C2 8464   3.115   2.149   8.558 -0.3311  0.2741  0.4172
  283bbb     H3 8465   3.199   2.143   8.627  0.3574  3.5405  0.0073
  283bbb     H4 8466   3.039   2.073   8.579 -0.1728  0.2544  0.9314
  283bbb     C3 8467   3.303   2.163   8.399  0.0288  0.5399 -0.2210
  283bbb     H5 8468   3.300   2.269   8.422  0.7634  0.6553 -0.6488
  283bbb     H6 8469   3.331   2.152   8.295  2.3435 -0.5722  0.4488
  283bbb     C4 8470   3.415   2.101   8.491 -0.0904  0.1378 -0.1915
  283bbb     H7 8471   3.416   1.991   8.488 -0.3179  0.0519  1.6252
  283bbb     H8 8472   3.392   2.125   8.595 -0.4989  2.5434 -0.7853
  283bbb     C5 8473   3.033   1.872   8.417 -0.5974  0.0592 -0.1862
  283bbb     H9 8474   2.990   1.891   8.516  1.0290  0.6602  0.4523
  283bbb    H10 8475   3.070   1.770   8.401 -0.1312  0.4900 -2.2504
  283bbb     C6 8476   3.050   2.286   8.588  0.2740 -0.1431 -0.8538
  283bbb    H11 8477   2.963   2.288   8.522 -0.5526 -1.3944  0.1530
  283bbb    H12 8478   3.129   2.359   8.563  0.3597  0.3408  0.7621
  283bbb     C7 8479   3.558   2.142   8.468  0.0496 -0.4144 -0.3196
  283bbb    H13 8480   3.589   2.086   8.379  1.9687  0.8540 -0.5339
  283bbb    H14 8481   3.624   2.121   8.554  1.6909  1.7222 -0.9499
  283bbb     C8 8482   3.012   2.313   8.737 -0.1387  0.2707 -1.0038
  283bbb    H15 8483   2.945   2.399   8.747 -1.5317 -0.9391  0.6518
  283bbb    H16 8484   2.975   2.215   8.771  2.3329 -0.5292 -0.3535
  283bbb     C9 8485   2.928   1.888   8.300 -0.8045  0.1654 -0.3339
  283bbb    H17 8486   2.857   1.804   8.300 -0.0251 -0.5352 -1.5916
  283bbb    H18 8487   2.980   1.882   8.204 -0.1017 -2.6444  0.1296
  283bbb     O1 8488   3.564   2.287   8.427  0.1274  0.1850  0.2206
  283bbb    H19 8489   3.098   2.149   8.337 -1.3372 -1.0925  1.0311
  284bbb     N1 8490   3.517   2.782   8.596  0.5171  0.1039  0.2862
  284bbb     C1 8491   3.567   2.922   8.596  0.0823 -0.0231  0.0674
  284bbb     H1 8492   3.515   2.978   8.674 -0.6658 -0.8577  0.1786
  284bbb     H2 8493   3.540   2.964   8.499 -2.1174  1.4364  1.2239
  284bbb     C2 8494   3.363   2.787   8.584 -0.1423 -0.0083  0.4959
  284bbb     H3 8495   3.342   2.816   8.481  1.4437 -2.5047 -0.6319
  284bbb     H4 8496   3.328   2.848   8.668 -0.3124 -0.2190  0.5798
  284bbb     C3 8497   3.593   2.719   8.477 -0.3097  0.4995 -0.0636
  284bbb     H5 8498   3.576   2.612   8.484 -0.6007  0.5439 -0.0875
  284bbb     H6 8499   3.701   2.722   8.491 -0.1622 -1.9717 -0.3785
  284bbb     C4 8500   3.570   2.769   8.332  0.3502  0.2083  0.4389
  284bbb     H7 8501   3.650   2.732   8.268 -1.0505 -0.9390 -0.7336
  284bbb     H8 8502   3.588   2.877   8.329  1.6252  0.2666  4.6391
  284bbb     C5 8503   3.714   2.957   8.609 -0.9055  0.3301 -0.0040
  284bbb     H9 8504   3.738   3.062   8.593  1.7585 -0.2479 -0.3255
  284bbb    H10 8505   3.776   2.891   8.547 -0.3539  0.5710  0.2818
  284bbb     C6 8506   3.296   2.644   8.600 -0.0595 -0.4893  0.3369
  284bbb    H11 8507   3.318   2.595   8.696  0.7754 -2.7201 -0.9095
  284bbb    H12 8508   3.320   2.571   8.522 -2.4557 -0.9772 -0.0341
  284bbb     C7 8509   3.434   2.739   8.264  0.1252 -0.0860  0.5716
  284bbb    H13 8510   3.427   2.797   8.171  0.6153  0.9254  1.1457
  284bbb    H14 8511   3.345   2.773   8.318 -0.8491  1.8025 -2.0274
  284bbb     C8 8512   3.146   2.665   8.589 -0.3332  0.1688  0.7588
  284bbb    H15 8513   3.099   2.569   8.616 -1.9525  1.2967  2.1575
  284bbb    H16 8514   3.106   2.734   8.665  0.5238  2.1712 -0.5303
  284bbb     C9 8515   3.762   2.941   8.760 -0.2426  0.0266 -0.0131
  284bbb    H17 8516   3.871   2.928   8.769  0.0201  1.1107 -1.3470
  284bbb    H18 8517   3.716   2.851   8.803 -0.5132  2.0602  4.4459
  284bbb     O1 8518   3.428   2.595   8.236 -0.4510  0.2339  0.2598
  284bbb    H19 8519   3.541   2.736   8.686 -0.8730 -0.3037  0.4846
  285bbb     N1 8520   3.438   1.470   6.875  1.3327  0.2101  0.0028
  285bbb     C1 8521   3.541   1.364   6.827 -0.0982 -0.2328  0.4827
  285bbb     H1 8522   3.477   1.275   6.829  0.3384 -0.5352  1.0373
  285bbb     H2 8523   3.627   1.370   6.893  0.0864  2.1749  0.0946
  285bbb     C2 8524   3.389   1.408   7.004  0.0951 -0.4894  0.0705
  285bbb     H3 8525   3.462   1.420   7.085 -0.4547  0.0431  0.5002
  285bbb     H4 8526   3.375   1.303   6.979  2.1924 -0.9428  0.6534
  285bbb     C3 8527   3.503   1.602   6.891  0.4499  0.6397 -0.2472
  285bbb     H5 8528   3.576   1.614   6.810  0.8205  2.4538  0.3074
  285bbb     H6 8529   3.562   1.611   6.983  0.8772 -2.0002 -0.1890
  285bbb     C4 8530   3.415   1.733   6.879  0.3144  0.4309 -0.0476
  285bbb     H7 8531   3.335   1.722   6.953  1.9224  1.1270  1.8696
  285bbb     H8 8532   3.358   1.736   6.785 -1.5302  1.5935  1.0392
  285bbb     C5 8533   3.587   1.391   6.678 -0.1705  1.1602 -0.5606
  285bbb     H9 8534   3.600   1.499   6.663  1.3087  1.0653 -0.0640
  285bbb    H10 8535   3.507   1.360   6.609 -0.1186  0.5666 -0.3643
  285bbb     C6 8536   3.256   1.457   7.068  0.0187 -0.3716  0.5423
  285bbb    H11 8537   3.265   1.558   7.110  2.7996 -0.5397  0.5390
  285bbb    H12 8538   3.229   1.396   7.156  1.4451  0.0844  1.3342
  285bbb     C7 8539   3.488   1.866   6.887  0.4518  0.4582 -0.2175
  285bbb    H13 8540   3.433   1.960   6.898  1.9897  1.5182 -1.1114
  285bbb    H14 8541   3.552   1.873   6.798  0.5929  0.7734 -0.0935
  285bbb     C8 8542   3.120   1.455   6.994 -0.0137 -0.3858  0.0409
  285bbb    H15 8543   3.104   1.360   6.943 -0.6501  0.4107 -1.3085
  285bbb    H16 8544   3.032   1.475   7.057  0.0218  0.1915 -0.0834
  285bbb     C9 8545   3.719   1.317   6.631  0.4570  0.3753  0.1581
  285bbb    H17 8546   3.797   1.335   6.706  1.4560  0.2398 -0.8169
  285bbb    H18 8547   3.756   1.369   6.542 -1.9092 -0.3893 -1.3504
  285bbb     O1 8548   3.590   1.852   6.997 -0.5171  0.2323  0.3631
  285bbb    H19 8549   3.362   1.480   6.807  1.0060 -1.1113  0.1455
  286bbb     N1 8550   3.770   1.045   7.436 -0.7651  0.7899 -0.0544
  286bbb     C1 8551   3.836   0.931   7.525  0.0390 -0.5377  0.5924
  286bbb     H1 8552   3.905   0.882   7.456  0.3120  0.5946  0.0302
  286bbb     H2 8553   3.748   0.869   7.546 -1.2181  0.5636 -1.0782
  286bbb     C2 8554   3.678   1.138   7.507 -0.0972  0.4824  0.2639
  286bbb     H3 8555   3.634   1.195   7.425 -1.0985 -0.6411 -0.0174
  286bbb     H4 8556   3.745   1.196   7.571  0.3435  0.9668 -0.6271
  286bbb     C3 8557   3.887   1.120   7.361 -0.6186 -0.3992  0.2725
  286bbb     H5 8558   3.969   1.135   7.431  0.5665  2.0853 -1.4731
  286bbb     H6 8559   3.847   1.218   7.336  1.6075 -0.0173 -2.1686
  286bbb     C4 8560   3.934   1.058   7.232  0.1563 -0.0332  0.4934
  286bbb     H7 8561   3.851   1.021   7.171 -0.7241  2.0507  0.3423
  286bbb     H8 8562   4.001   0.974   7.252  0.0785  0.3553  2.5639
  286bbb     C5 8563   3.909   0.963   7.652 -0.2850  0.3493  0.6484
  286bbb     H9 8564   3.835   1.004   7.721 -0.3381 -3.9928  3.5711
  286bbb    H10 8565   3.983   1.041   7.629 -1.9520  1.5718 -0.7889
  286bbb     C6 8566   3.550   1.091   7.584 -0.8671 -1.0999  0.1114
  286bbb    H11 8567   3.586   1.043   7.677 -0.4496 -0.6322  0.1925
  286bbb    H12 8568   3.489   1.017   7.530  0.9605 -2.4597 -0.1867
  286bbb     C7 8569   4.013   1.161   7.144 -0.2267  0.0455  0.0183
  286bbb    H13 8570   4.010   1.130   7.039 -0.1244 -2.5853  0.7201
  286bbb    H14 8571   4.117   1.150   7.177 -0.3358 -3.1670 -0.3380
  286bbb     C8 8572   3.460   1.205   7.621  0.5177  0.0303 -0.1739
  286bbb    H15 8573   3.432   1.267   7.536  1.4283  1.4575  0.5331
  286bbb    H16 8574   3.366   1.175   7.668  0.4224 -0.2896 -0.5583
  286bbb     C9 8575   3.981   0.836   7.704 -0.1630  0.7888 -0.5767
  286bbb    H17 8576   4.037   0.862   7.795 -1.9363  1.4776  0.3578
  286bbb    H18 8577   4.050   0.796   7.628  0.1931  0.0988  0.1017
  286bbb     O1 8578   3.977   1.301   7.168  0.1715 -0.2876 -0.0650
  286bbb    H19 8579   3.716   0.996   7.363  0.7629  0.7002 -1.1697
  287bbb     N1 8580   6.406   7.067   5.549 -0.0238  0.1852  0.7150
  287bbb     C1 8581   6.290   7.146   5.486 -0.8485 -0.6888  0.0360
  287bbb     H1 8582   6.202   7.097   5.527 -0.2637 -2.3278 -0.6051
  287bbb     H2 8583   6.294   7.119   5.380 -0.8044 -2.7507  0.5257
  287bbb     C2 8584   6.375   7.065   5.695 -0.0616 -0.5544 -0.5360
  287bbb     H3 8585   6.382   6.960   5.725  0.1704 -0.2037  0.6639
  287bbb     H4 8586   6.272   7.100   5.701  0.5902  1.5097 -0.5866
  287bbb     C3 8587   6.403   6.925   5.503 -0.3897 -0.4667  0.0873
  287bbb     H5 8588   6.299   6.894   5.502 -1.2904  2.3143 -0.7475
  287bbb     H6 8589   6.452   6.872   5.585 -0.0868 -1.0442 -0.4615
  287bbb     C4 8590   6.473   6.887   5.365  0.4341 -0.2609  0.3845
  287bbb     H7 8591   6.579   6.915   5.363  0.8488 -1.7808  0.1939
  287bbb     H8 8592   6.426   6.941   5.281 -2.0939  0.1673  1.9597
  287bbb     C5 8593   6.288   7.302   5.499 -1.1866  0.2471 -0.1216
  287bbb     H9 8594   6.385   7.351   5.480 -0.1015 -1.7607 -0.1193
  287bbb    H10 8595   6.270   7.332   5.603  3.2638  5.1451 -0.3674
  287bbb     C6 8596   6.459   7.158   5.785 -0.5921  0.0500 -0.2494
  287bbb    H11 8597   6.450   7.260   5.744 -4.6533  0.6447  1.6557
  287bbb    H12 8598   6.559   7.115   5.784 -1.1951 -1.4051 -1.1805
  287bbb     C7 8599   6.471   6.738   5.358  0.0197  0.4028 -0.1586
  287bbb    H13 8600   6.514   6.703   5.263 -0.0074 -0.0040 -0.0243
  287bbb    H14 8601   6.368   6.701   5.355  0.2335 -0.2297  0.1365
  287bbb     C8 8602   6.388   7.158   5.921  0.0842  0.1380  0.2040
  287bbb    H15 8603   6.371   7.055   5.952  1.4302 -0.4421 -0.8622
  287bbb    H16 8604   6.458   7.207   5.990  0.4256 -0.5326  0.3395
  287bbb     C9 8605   6.183   7.361   5.403 -0.4387 -0.1565 -0.6009
  287bbb    H17 8606   6.080   7.326   5.419 -1.9728  2.6030 -3.2776
  287bbb    H18 8607   6.209   7.329   5.301  1.3593 -0.8340  0.0464
  287bbb     O1 8608   6.555   6.689   5.464 -0.1514  0.2807 -0.3010
  287bbb    H19 8609   6.497   7.114   5.535 -1.3113  2.7139  0.1804
  288bbb     N1 8610   7.033   6.482   5.284 -0.3737 -0.2908 -0.1863
  288bbb     C1 8611   7.023   6.632   5.301 -0.9747  0.5612 -0.0524
  288bbb     H1 8612   7.066   6.672   5.209 -0.9718 -3.0147 -1.7687
  288bbb     H2 8613   7.090   6.657   5.383 -2.2726  1.2084  0.8575
  288bbb     C2 8614   7.169   6.449   5.223 -0.5497 -0.3359 -0.2445
  288bbb     H3 8615   7.225   6.391   5.297 -0.9404 -1.1230 -0.5551
  288bbb     H4 8616   7.217   6.546   5.211 -2.4329  0.8167  1.0614
  288bbb     C3 8617   7.010   6.398   5.406 -0.1300 -0.2258 -0.2678
  288bbb     H5 8618   6.912   6.417   5.450 -0.9216 -0.9587 -1.6176
  288bbb     H6 8619   7.090   6.422   5.476 -1.1648  1.4957  0.3711
  288bbb     C4 8620   7.006   6.250   5.364 -0.9622 -0.5391  0.9892
  288bbb     H7 8621   7.107   6.209   5.350 -0.5107  0.8994 -0.2854
  288bbb     H8 8622   6.946   6.233   5.273 -0.0685 -0.3093  0.3433
  288bbb     C5 8623   6.880   6.682   5.333 -0.4164  0.0149 -0.3157
  288bbb     H9 8624   6.837   6.625   5.416 -0.6689  0.5088 -0.1023
  288bbb    H10 8625   6.813   6.662   5.249  0.2391 -2.2977 -0.3564
  288bbb     C6 8626   7.170   6.379   5.080 -0.0559 -0.1357 -0.5614
  288bbb    H11 8627   7.088   6.307   5.089 -0.6472  0.6670  0.6584
  288bbb    H12 8628   7.265   6.325   5.067 -0.9702 -1.8729 -0.3608
  288bbb     C7 8629   6.960   6.142   5.465  0.1091 -0.5211 -0.2085
  288bbb    H13 8630   7.005   6.153   5.565 -1.7036 -0.8122  0.6833
  288bbb    H14 8631   6.980   6.045   5.417  0.7268  0.8575 -2.9566
  288bbb     C8 8632   7.156   6.486   4.975  0.0529  0.2383  0.1935
  288bbb    H15 8633   7.248   6.545   4.975  0.9507 -1.0964  1.1611
  288bbb    H16 8634   7.151   6.433   4.879  1.2927  0.3183  0.0689
  288bbb     C9 8635   6.887   6.828   5.373  0.1164  0.4910 -0.8671
  288bbb    H17 8636   6.954   6.841   5.459 -1.0127 -0.5562  0.1915
  288bbb    H18 8637   6.789   6.861   5.408  1.3400  2.4016  0.9868
  288bbb     O1 8638   6.815   6.152   5.485 -0.0084 -0.4455  0.0449
  288bbb    H19 8639   6.966   6.457   5.211 -2.9419  0.6594  1.7114
  289bbb     N1 8640   6.716   7.902   6.841  0.4368 -0.1195  0.0603
  289bbb     C1 8641   6.583   7.961   6.825  0.3953 -0.4807 -0.5850
  289bbb     H1 8642   6.533   7.969   6.921  1.1352 -2.2824 -0.0046
  289bbb     H2 8643   6.534   7.886   6.763  0.2107 -0.7397 -0.1319
  289bbb     C2 8644   6.790   7.961   6.961 -0.1969 -0.3429  0.0818
  289bbb     H3 8645   6.743   7.913   7.048 -0.2230  0.9539  0.7978
  289bbb     H4 8646   6.759   8.065   6.971 -0.7273 -0.5424  0.6467
  289bbb     C3 8647   6.701   7.750   6.851 -0.5030  0.7714 -0.3983
  289bbb     H5 8648   6.636   7.726   6.935  1.7352  1.4140  1.6110
  289bbb     H6 8649   6.801   7.707   6.864 -1.3871 -1.3496 -0.2332
  289bbb     C4 8650   6.655   7.686   6.720 -0.0678  0.0011  0.8177
  289bbb     H7 8651   6.713   7.733   6.640 -2.0275  0.8661 -0.1505
  289bbb     H8 8652   6.549   7.701   6.696 -0.3027 -3.5508 -1.0078
  289bbb     C5 8653   6.588   8.090   6.741  0.4827 -0.1294 -0.1747
  289bbb     H9 8654   6.655   8.171   6.774  1.3037 -0.6060 -0.6234
  289bbb    H10 8655   6.490   8.137   6.735  0.7637  0.6990  1.3257
  289bbb     C6 8656   6.947   7.967   6.958 -0.6103 -0.0119 -0.1636
  289bbb    H11 8657   6.999   7.882   6.912  0.1839  1.0268 -1.2569
  289bbb    H12 8658   6.971   7.977   7.064 -0.2791  0.0441 -0.2433
  289bbb     C7 8659   6.666   7.536   6.724  0.3188  0.4401 -0.1092
  289bbb    H13 8660   6.602   7.489   6.800 -1.7043  0.8888 -1.4348
  289bbb    H14 8661   6.768   7.510   6.753 -0.3858 -1.9619  0.3709
  289bbb     C8 8662   6.999   8.092   6.884  0.1702 -0.2611 -0.1396
  289bbb    H15 8663   6.969   8.174   6.951  0.9486 -0.8956  1.0284
  289bbb    H16 8664   7.108   8.090   6.877  0.1854  0.5029 -0.2490
  289bbb     C9 8665   6.626   8.053   6.594  0.2519 -0.4753  0.2320
  289bbb    H17 8666   6.726   8.008   6.591  0.3829 -0.1752  0.0734
  289bbb    H18 8667   6.631   8.142   6.530  0.7735  0.5675  1.6727
  289bbb     O1 8668   6.638   7.478   6.595 -0.0055 -0.0132  0.1898
  289bbb    H19 8669   6.764   7.926   6.753 -1.9198  0.2293 -1.2205
  290bbb     N1 8670   7.263   8.017   6.296  0.3393  0.4424  0.2893
  290bbb     C1 8671   7.410   8.046   6.320  0.2189  0.2021 -0.2415
  290bbb     H1 8672   7.459   8.059   6.223 -0.7665  0.1195 -0.7712
  290bbb     H2 8673   7.445   7.954   6.366 -0.6688  1.0375  2.2481
  290bbb     C2 8674   7.201   8.061   6.164  0.5900  0.5844 -0.0908
  290bbb     H3 8675   7.206   8.170   6.173 -1.0498  0.5890  1.0710
  290bbb     H4 8676   7.094   8.043   6.175  0.7958 -0.3651  0.4773
  290bbb     C3 8677   7.237   7.868   6.312 -0.2844 -1.2590 -0.6016
  290bbb     H5 8678   7.314   7.827   6.245 -1.1450 -1.3827 -1.5477
  290bbb     H6 8679   7.139   7.846   6.268 -1.0764  0.6483  0.1257
  290bbb     C4 8680   7.230   7.793   6.452  0.7668 -0.8596 -0.1946
  290bbb     H7 8681   7.138   7.818   6.506  0.6203 -0.5664 -0.5712
  290bbb     H8 8682   7.309   7.816   6.524 -1.0404 -0.2236  1.6669
  290bbb     C5 8683   7.435   8.153   6.428  0.1080  0.2985 -0.2198
  290bbb     H9 8684   7.511   8.115   6.496 -0.2390  0.3092  0.1767
  290bbb    H10 8685   7.348   8.174   6.492  0.3843  0.8982 -0.0314
  290bbb     C6 8686   7.245   8.000   6.022  0.7439  0.1382  0.3246
  290bbb    H11 8687   7.228   7.892   6.016  1.7794 -0.1615  2.0412
  290bbb    H12 8688   7.353   8.014   6.007  0.5643  0.7721 -0.4476
  290bbb     C7 8689   7.238   7.639   6.423  0.3052  1.0011  0.0265
  290bbb    H13 8690   7.236   7.582   6.517 -1.6812  0.1399 -0.4767
  290bbb    H14 8691   7.332   7.614   6.373  1.1888  2.2015  1.0380
  290bbb     C8 8692   7.174   8.065   5.903  0.5189 -0.0793 -0.1740
  290bbb    H15 8693   7.213   8.167   5.887  1.0922 -0.3196 -0.3492
  290bbb    H16 8694   7.208   8.021   5.808  1.1504  1.0431 -0.4923
  290bbb     C9 8695   7.493   8.279   6.364  0.2446  0.0450  0.0386
  290bbb    H17 8696   7.580   8.246   6.307 -0.7719 -0.3851 -1.3351
  290bbb    H18 8697   7.525   8.358   6.433 -0.8219  1.1461 -0.6782
  290bbb     O1 8698   7.115   7.603   6.351  0.3976  0.4687 -0.0313
  290bbb    H19 8699   7.216   8.067   6.372  1.3589 -0.4087  1.5162
  291bbb     N1 8700   7.253   6.864   8.556  0.4294 -0.4695  0.0457
  291bbb     C1 8701   7.105   6.829   8.549 -0.4969  0.3672 -0.8908
  291bbb     H1 8702   7.058   6.916   8.504 -1.3206  0.6687  0.4909
  291bbb     H2 8703   7.077   6.827   8.654 -0.3682  3.1264 -0.7458
  291bbb     C2 8704   7.333   6.761   8.636  0.3486  0.3078  0.7377
  291bbb     H3 8705   7.437   6.786   8.618  0.1518  1.3878  1.0576
  291bbb     H4 8706   7.305   6.660   8.603  1.0188 -0.0742  1.3112
  291bbb     C3 8707   7.321   6.883   8.416 -0.2737  0.0072  0.0198
  291bbb     H5 8708   7.306   6.800   8.347  0.7216  0.4649 -0.7692
  291bbb     H6 8709   7.427   6.889   8.440  0.0558  3.2997 -1.7180
  291bbb     C4 8710   7.269   7.005   8.342  0.2203  0.5432  0.2489
  291bbb     H7 8711   7.298   7.095   8.398  1.5632  1.3979 -1.6977
  291bbb     H8 8712   7.160   7.006   8.331  0.1956  1.6070  0.4325
  291bbb     C5 8713   7.065   6.701   8.471  0.2985 -0.1587 -0.6680
  291bbb     H9 8714   7.159   6.645   8.463  0.7790  0.2943  1.2401
  291bbb    H10 8715   7.043   6.725   8.367 -3.0793  1.3553  0.2563
  291bbb     C6 8716   7.298   6.773   8.787 -0.0782 -0.0207 -0.1417
  291bbb    H11 8717   7.190   6.777   8.807 -0.2237  1.5061 -1.0565
  291bbb    H12 8718   7.330   6.870   8.829  1.0254 -0.9887  1.3802
  291bbb     C7 8719   7.331   7.016   8.201  0.2416  0.2848  0.2064
  291bbb    H13 8720   7.440   7.024   8.212  0.3554 -0.1063 -0.6117
  291bbb    H14 8721   7.300   7.115   8.164  0.3646 -0.1593 -1.1259
  291bbb     C8 8722   7.352   6.652   8.864 -0.6394  0.2948 -0.4680
  291bbb    H15 8723   7.462   6.656   8.855 -0.1838 -2.1337  2.4344
  291bbb    H16 8724   7.319   6.670   8.966  1.0080 -0.0232  0.1570
  291bbb     C9 8725   6.961   6.614   8.548 -0.1900 -0.3697 -0.2001
  291bbb    H17 8726   6.872   6.671   8.580 -1.4713 -2.1587 -0.4258
  291bbb    H18 8727   7.011   6.568   8.634  2.8275  1.8172 -0.6319
  291bbb     O1 8728   7.295   6.915   8.115  0.0289  0.4897  0.6391
  291bbb    H19 8729   7.252   6.955   8.605 -1.8981 -1.0599  1.2445
  292bbb     N1 8730   7.983   6.426   7.822  0.2148  0.0936 -0.4104
  292bbb     C1 8731   7.972   6.282   7.872  0.0923  0.1358  0.4801
  292bbb     H1 8732   8.059   6.272   7.938  0.4198 -0.2405  0.0060
  292bbb     H2 8733   7.977   6.209   7.791  1.3028  0.5486  0.1644
  292bbb     C2 8734   8.106   6.435   7.742  0.0793 -0.3183 -0.6484
  292bbb     H3 8735   8.086   6.368   7.658 -0.8368 -1.0739  0.1478
  292bbb     H4 8736   8.185   6.390   7.802 -0.4223 -0.0648  0.2109
  292bbb     C3 8737   7.864   6.455   7.738 -0.4211  0.0203  0.3561
  292bbb     H5 8738   7.864   6.563   7.725  1.4933 -0.1377 -1.4809
  292bbb     H6 8739   7.782   6.427   7.804  0.5077 -1.5712  0.8810
  292bbb     C4 8740   7.821   6.376   7.606  0.2857 -0.1332 -1.0845
  292bbb     H7 8741   7.838   6.269   7.623 -1.7252 -0.5698 -1.5778
  292bbb     H8 8742   7.881   6.411   7.521  0.8936  1.7708  0.0469
  292bbb     C5 8743   7.854   6.243   7.957  0.1196 -0.3781 -0.4817
  292bbb     H9 8744   7.758   6.254   7.906 -1.2064  0.8091  2.0533
  292bbb    H10 8745   7.848   6.308   8.045  0.3630 -3.3025  1.8632
  292bbb     C6 8746   8.131   6.577   7.699 -0.3594 -0.7275 -0.3826
  292bbb    H11 8747   8.142   6.644   7.785 -0.8104  1.0614 -1.6491
  292bbb    H12 8748   8.042   6.618   7.649 -0.7589  1.5362  1.9686
  292bbb     C7 8749   7.675   6.386   7.560 -0.7259 -0.2755  0.4463
  292bbb    H13 8750   7.670   6.316   7.476 -0.8989  0.0640  0.1726
  292bbb    H14 8751   7.655   6.489   7.531  0.5663 -0.1447 -0.0219
  292bbb     C8 8752   8.260   6.582   7.616 -0.2987 -0.1149  0.1650
  292bbb    H15 8753   8.276   6.685   7.580 -0.9978  0.2540  0.8910
  292bbb    H16 8754   8.349   6.541   7.666 -0.4733 -1.5241 -0.6246
  292bbb     C9 8755   7.865   6.105   8.019 -0.1582  0.3706  0.8693
  292bbb    H17 8756   7.878   6.034   7.936 -0.0667  2.8628 -1.3600
  292bbb    H18 8757   7.760   6.095   8.052 -2.1297  5.5437 -2.5064
  292bbb     O1 8758   7.591   6.344   7.674  0.0318 -0.4764 -0.6297
  292bbb    H19 8759   7.985   6.482   7.908 -0.1787 -1.2416  0.4931
  293bbb     N1 8760   6.072   7.385   7.930  0.4864  0.2194  0.3196
  293bbb     C1 8761   6.098   7.393   8.083 -0.0308 -0.1409  1.0188
  293bbb     H1 8762   6.032   7.471   8.123  0.8037  0.2541  1.6758
  293bbb     H2 8763   6.202   7.423   8.093  0.5554 -1.6577 -0.2044
  293bbb     C2 8764   6.092   7.523   7.874  0.7608  0.7408 -0.5718
  293bbb     H3 8765   6.167   7.516   7.795  0.1628 -0.3358 -1.0612
  293bbb     H4 8766   6.126   7.590   7.953  0.4973 -0.3750  0.5202
  293bbb     C3 8767   6.163   7.281   7.867 -0.1281 -0.2063 -0.1226
  293bbb     H5 8768   6.131   7.191   7.919 -1.0395 -0.0554 -0.4029
  293bbb     H6 8769   6.267   7.300   7.893  0.7618 -0.0873 -3.3245
  293bbb     C4 8770   6.143   7.249   7.712  0.5899 -0.0530 -0.3022
  293bbb     H7 8771   6.047   7.291   7.678  1.1665  2.1708  0.6115
  293bbb     H8 8772   6.138   7.140   7.717 -2.1368  0.0636  2.0286
  293bbb     C5 8773   6.073   7.263   8.166 -0.7869 -0.2896 -0.0282
  293bbb     H9 8774   6.132   7.184   8.117  0.1061  1.6899 -2.3628
  293bbb    H10 8775   5.970   7.231   8.147 -0.7252 -0.6468  0.2346
  293bbb     C6 8776   5.969   7.588   7.805 -0.0595  0.1918  0.9365
  293bbb    H11 8777   5.878   7.559   7.859  0.2658 -1.3574  0.7058
  293bbb    H12 8778   5.966   7.543   7.704  0.9687 -0.2279  1.0810
  293bbb     C7 8779   6.253   7.300   7.612 -0.6830  1.0569 -0.3836
  293bbb    H13 8780   6.246   7.409   7.602  0.6421  1.3388  1.3617
  293bbb    H14 8781   6.244   7.258   7.511 -0.0379 -1.4407  0.5447
  293bbb     C8 8782   5.989   7.739   7.806  0.6626 -0.3834  0.3404
  293bbb    H15 8783   6.092   7.767   7.833  0.1814  2.0504 -0.0924
  293bbb    H16 8784   5.969   7.788   7.710 -0.5890  0.8133  1.1696
  293bbb     C9 8785   6.099   7.286   8.316  0.0916 -0.1221  0.2237
  293bbb    H17 8786   6.182   7.356   8.327  1.0385 -0.8154 -1.9962
  293bbb    H18 8787   6.136   7.196   8.366 -1.3528 -0.5559  0.5660
  293bbb     O1 8788   6.388   7.267   7.660 -0.1327 -0.1123 -0.2419
  293bbb    H19 8789   5.972   7.366   7.913  0.9308 -0.0944 -2.3861
  294bbb     N1 8790   6.252   7.864   8.358  0.6527  0.0634  0.1566
  294bbb     C1 8791   6.099   7.823   8.357  0.6524 -0.1232  0.3025
  294bbb     H1 8792   6.038   7.912   8.344  2.0670  0.6347 -1.6273
  294bbb     H2 8793   6.070   7.772   8.449 -1.0803  0.9261  0.3817
  294bbb     C2 8794   6.277   7.982   8.457  0.2642 -0.3642  0.0012
  294bbb     H3 8795   6.212   8.063   8.425  1.9179  0.1371 -2.4259
  294bbb     H4 8796   6.380   8.013   8.438 -0.4167  0.9849 -1.7115
  294bbb     C3 8797   6.350   7.758   8.396  1.0602  0.5100 -0.2015
  294bbb     H5 8798   6.296   7.663   8.401  2.8979 -0.6674 -1.2548
  294bbb     H6 8799   6.411   7.784   8.483  0.5426 -0.0119  0.3278
  294bbb     C4 8800   6.454   7.728   8.280  0.8581  0.0576 -0.3124
  294bbb     H7 8801   6.500   7.825   8.257  1.2644 -0.3164 -1.1107
  294bbb     H8 8802   6.404   7.693   8.189 -0.0528  0.1023  0.1595
  294bbb     C5 8803   6.064   7.719   8.252 -1.1677  0.0873  0.1550
  294bbb     H9 8804   6.121   7.629   8.278  0.5256  0.7134 -1.2187
  294bbb    H10 8805   6.091   7.762   8.155  2.7041 -2.0269  0.0839
  294bbb     C6 8806   6.257   7.952   8.608  0.3068  0.0898  0.0628
  294bbb    H11 8807   6.345   7.991   8.659  1.0998 -0.8910 -0.5203
  294bbb    H12 8808   6.249   7.844   8.627 -1.5467  0.1359 -0.1924
  294bbb     C7 8809   6.552   7.612   8.315  0.3049  0.0672 -0.0591
  294bbb    H13 8810   6.494   7.531   8.361 -1.9448  1.7651  0.2698
  294bbb    H14 8811   6.626   7.656   8.382  1.2693  0.2579 -1.2041
  294bbb     C8 8812   6.130   8.011   8.666  0.1216  0.1807  0.0541
  294bbb    H15 8813   6.152   8.007   8.773  0.6015  0.4882 -0.0279
  294bbb    H16 8814   6.119   8.113   8.627  0.6863 -0.4587 -1.9019
  294bbb     C9 8815   5.920   7.687   8.255 -0.3429  0.0193 -0.0629
  294bbb    H17 8816   5.864   7.780   8.263  0.0070  0.3200 -0.9425
  294bbb    H18 8817   5.911   7.618   8.340  0.3357 -1.7277 -1.3255
  294bbb     O1 8818   6.618   7.569   8.190  0.5360  0.1078 -0.4161
  294bbb    H19 8819   6.270   7.904   8.265  0.9784 -3.4487 -1.4629
  295bbb     N1 8820   7.340   5.367   8.839  0.5786  0.1281 -0.2267
  295bbb     C1 8821   7.235   5.467   8.889 -0.5249  0.1639  0.0689
  295bbb     H1 8822   7.169   5.479   8.803 -0.1421 -2.9024 -0.7872
  295bbb     H2 8823   7.291   5.558   8.914 -0.5310 -0.5008  2.9114
  295bbb     C2 8824   7.402   5.417   8.709  0.6113 -0.0103  0.6270
  295bbb     H3 8825   7.505   5.380   8.710  0.7130  0.2672  2.2447
  295bbb     H4 8826   7.404   5.525   8.721 -1.0518  0.8422 -4.3248
  295bbb     C3 8827   7.453   5.353   8.935  0.7559  0.0028 -0.0398
  295bbb     H5 8828   7.415   5.358   9.037 -1.9570  2.2956 -1.0389
  295bbb     H6 8829   7.513   5.442   8.916 -0.1000  0.2292 -1.7870
  295bbb     C4 8830   7.543   5.235   8.913  0.0638  0.2123  0.8554
  295bbb     H7 8831   7.633   5.255   8.973 -0.5970  2.6042  1.1725
  295bbb     H8 8832   7.584   5.226   8.811 -1.1337 -1.1781  0.4746
  295bbb     C5 8833   7.162   5.412   9.015 -0.2814  0.0857  0.5891
  295bbb     H9 8834   7.218   5.420   9.110 -1.3524  0.3533  1.2177
  295bbb    H10 8835   7.144   5.304   9.003  0.8919 -0.0479 -0.2028
  295bbb     C6 8836   7.313   5.395   8.585  0.7150  0.0047 -0.1916
  295bbb    H11 8837   7.212   5.436   8.595  1.8724  2.9295  0.5604
  295bbb    H12 8838   7.296   5.288   8.568 -2.2068 -0.2760  3.2398
  295bbb     C7 8839   7.470   5.098   8.934 -0.2435 -0.5486 -0.0968
  295bbb    H13 8840   7.445   5.099   9.041  0.7589 -1.9736  0.1741
  295bbb    H14 8841   7.538   5.015   8.912  1.0405  0.8507 -1.7465
  295bbb     C8 8842   7.374   5.469   8.461  0.5385  0.5439  0.5031
  295bbb    H15 8843   7.480   5.449   8.446  0.3549 -0.4740  0.4618
  295bbb    H16 8844   7.305   5.444   8.379 -0.5087 -0.2675  1.5875
  295bbb     C9 8845   7.022   5.478   9.026 -0.5369 -0.2320 -0.2045
  295bbb    H17 8846   6.974   5.439   9.117  1.2357  0.9707  1.3249
  295bbb    H18 8847   6.968   5.450   8.935  1.8394 -0.9191 -1.4767
  295bbb     O1 8848   7.346   5.088   8.853  0.1627 -0.2630 -0.0193
  295bbb    H19 8849   7.293   5.276   8.828  1.6445 -0.5869  0.8027
  296bbb     N1 8850   6.919   4.234   8.893 -0.6224  0.0115  0.8830
  296bbb     C1 8851   6.809   4.141   8.928  0.0375  0.2032 -0.4548
  296bbb     H1 8852   6.757   4.100   8.842 -0.9516 -1.3507  0.8306
  296bbb     H2 8853   6.739   4.191   8.995  0.4882 -1.1605  1.1077
  296bbb     C2 8854   7.006   4.190   8.770  0.4317  0.5009  0.7115
  296bbb     H3 8855   6.933   4.183   8.689  0.4664 -1.6208  0.8149
  296bbb     H4 8856   7.045   4.091   8.790  0.1629 -0.3402 -2.3488
  296bbb     C3 8857   6.861   4.369   8.860 -0.3872  0.1599  0.4135
  296bbb     H5 8858   6.943   4.433   8.827 -1.8521  1.5709 -0.6580
  296bbb     H6 8859   6.838   4.410   8.959 -1.5819  0.7561 -0.0942
  296bbb     C4 8860   6.737   4.390   8.773 -0.4878 -0.3110  0.4145
  296bbb     H7 8861   6.661   4.317   8.804  0.5496 -1.2327  0.8724
  296bbb     H8 8862   6.765   4.364   8.670  0.9910  4.0284 -0.4658
  296bbb     C5 8863   6.859   4.023   9.021  0.3519  0.5044 -0.2572
  296bbb     H9 8864   6.936   4.051   9.093 -1.0806 -0.2261  1.6304
  296bbb    H10 8865   6.913   3.945   8.965  0.0573 -0.4792  0.7844
  296bbb     C6 8866   7.118   4.284   8.716 -0.1175  0.5280  0.1850
  296bbb    H11 8867   7.074   4.378   8.679 -0.4925  0.4827  0.5077
  296bbb    H12 8868   7.160   4.226   8.633 -0.2175  1.1215 -0.2868
  296bbb     C7 8869   6.682   4.529   8.782  0.4583 -1.0694  0.7392
  296bbb    H13 8870   6.661   4.551   8.887 -0.3629  0.7511  0.2356
  296bbb    H14 8871   6.593   4.535   8.719  2.6819  0.0250 -2.5990
  296bbb     C8 8872   7.233   4.310   8.809 -0.4456  0.4406 -0.5520
  296bbb    H15 8873   7.309   4.375   8.764  0.1450  1.1671  1.3586
  296bbb    H16 8874   7.201   4.354   8.904  0.4617  1.1187 -0.5467
  296bbb     C9 8875   6.736   3.973   9.110  0.0756  0.1637 -0.5388
  296bbb    H17 8876   6.707   4.049   9.184 -0.0540 -0.7985  0.4171
  296bbb    H18 8877   6.749   3.878   9.162 -1.7511  0.4355  0.4876
  296bbb     O1 8878   6.786   4.628   8.737  0.0733  0.1926  0.3100
  296bbb    H19 8879   6.986   4.249   8.971 -1.4671 -0.4758  1.7272
  297bbb     N1 8880   6.014   5.262   9.371  0.0672  0.4632  0.5238
  297bbb     C1 8881   6.149   5.195   9.368  0.4148  0.1194  0.9499
  297bbb     H1 8882   6.199   5.223   9.275  0.4427 -0.6179  0.7317
  297bbb     H2 8883   6.126   5.089   9.353 -0.6915  0.6892 -2.3564
  297bbb     C2 8884   6.027   5.411   9.332  0.3690  0.8189 -0.3855
  297bbb     H3 8885   6.067   5.449   9.427 -1.5437 -4.8900  3.2464
  297bbb     H4 8886   5.926   5.452   9.329  0.5783  1.4758  0.7099
  297bbb     C3 8887   5.938   5.189   9.268 -0.3345  0.3457 -0.4455
  297bbb     H5 8888   5.943   5.082   9.287  2.5349  0.1362 -1.8558
  297bbb     H6 8889   5.990   5.214   9.175  0.2569 -1.7244 -0.7177
  297bbb     C4 8890   5.791   5.211   9.249  0.3822  0.5429 -0.6400
  297bbb     H7 8891   5.771   5.316   9.223 -0.1659  1.0385  1.5832
  297bbb     H8 8892   5.748   5.211   9.349  4.1863  3.3271  1.2557
  297bbb     C5 8893   6.246   5.217   9.479  0.2913  0.2456 -0.2894
  297bbb     H9 8894   6.189   5.205   9.572 -0.1635  1.1704 -0.4435
  297bbb    H10 8895   6.289   5.318   9.483 -1.0315  0.8798 -1.3690
  297bbb     C6 8896   6.108   5.448   9.212  0.7546 -0.1160 -1.1793
  297bbb    H11 8897   6.072   5.391   9.125  0.3187 -2.0111  0.1638
  297bbb    H12 8898   6.213   5.414   9.220  1.3713  2.0604  1.3828
  297bbb     C7 8899   5.728   5.109   9.152 -0.1478  0.1761  0.3460
  297bbb    H13 8900   5.624   5.138   9.132 -1.4366 -2.1900  2.9111
  297bbb    H14 8901   5.725   5.012   9.204 -1.6706  0.6121  1.1134
  297bbb     C8 8902   6.092   5.596   9.169 -0.3350 -0.1837 -0.1990
  297bbb    H15 8903   6.153   5.662   9.231  0.5035  0.9491 -2.1553
  297bbb    H16 8904   6.137   5.608   9.070 -0.8795  1.5549 -0.2645
  297bbb     C9 8905   6.351   5.109   9.469 -0.7633 -0.1027 -0.1018
  297bbb    H17 8906   6.307   5.018   9.426 -0.4401 -0.0608 -0.5259
  297bbb    H18 8907   6.405   5.102   9.564 -0.7957  2.0720  0.1231
  297bbb     O1 8908   5.808   5.095   9.025  0.0410 -0.5557  0.0024
  297bbb    H19 8909   5.977   5.251   9.466  0.5242 -2.2298  0.4476
  298bbb     N1 8910   5.341   5.795   8.786 -0.6386  0.1601  0.1496
  298bbb     C1 8911   5.259   5.679   8.746  0.1869  0.4836  0.5203
  298bbb     H1 8912   5.305   5.644   8.653  1.0829  0.6542  0.8901
  298bbb     H2 8913   5.161   5.721   8.724 -0.7224 -1.4657  0.5777
  298bbb     C2 8914   5.316   5.845   8.927  0.0111 -0.2761  0.4541
  298bbb     H3 8915   5.403   5.907   8.951 -0.1850  0.4215 -0.5709
  298bbb     H4 8916   5.314   5.762   8.997  0.3236  0.3864  1.2665
  298bbb     C3 8917   5.491   5.755   8.777 -0.0993  0.6626 -0.3813
  298bbb     H5 8918   5.508   5.679   8.854 -4.2730 -0.5255 -0.4238
  298bbb     H6 8919   5.544   5.847   8.803 -0.4521  0.1486  2.5724
  298bbb     C4 8920   5.542   5.701   8.642  0.1448  0.0037  0.0011
  298bbb     H7 8921   5.507   5.762   8.558 -3.0476 -1.5923  0.0171
  298bbb     H8 8922   5.513   5.595   8.630 -0.3688 -0.0287  1.3583
  298bbb     C5 8923   5.237   5.567   8.847 -0.1804  0.2640 -0.7759
  298bbb     H9 8924   5.158   5.593   8.919  0.7497  0.9234  0.0505
  298bbb    H10 8925   5.331   5.541   8.898 -2.2190 -4.3889  1.1988
  298bbb     C6 8926   5.188   5.930   8.943  0.0750  0.7366 -0.0057
  298bbb    H11 8927   5.091   5.884   8.918  0.8503 -0.4478 -0.9235
  298bbb    H12 8928   5.179   6.015   8.875 -2.6215 -0.2361 -1.0491
  298bbb     C7 8929   5.698   5.701   8.632  0.5377 -0.2015 -0.2301
  298bbb    H13 8930   5.722   5.806   8.648 -2.0945  0.5200 -0.5014
  298bbb    H14 8931   5.725   5.656   8.535  0.2771 -1.9524  0.4675
  298bbb     C8 8932   5.179   5.998   9.082  0.5197 -0.1499 -0.2026
  298bbb    H15 8933   5.089   6.061   9.082  0.8991  0.4153  0.8281
  298bbb    H16 8934   5.190   5.930   9.167  0.8770  0.7622  0.5014
  298bbb     C9 8935   5.202   5.435   8.781  0.0780  0.4222 -0.2604
  298bbb    H17 8936   5.136   5.465   8.698 -0.7325 -2.7608 -0.9023
  298bbb    H18 8937   5.165   5.374   8.864 -0.2070  0.6385 -0.2253
  298bbb     O1 8938   5.739   5.624   8.738 -0.3365  0.3725  0.2961
  298bbb    H19 8939   5.319   5.863   8.712 -1.8651 -2.3146 -1.9487
  299bbb     N1 8940   7.148   4.288   6.488  0.3838 -0.8936  0.5852
  299bbb     C1 8941   7.241   4.406   6.473 -0.2162  0.2602 -0.0311
  299bbb     H1 8942   7.308   4.407   6.559 -0.5845  2.4742  0.2829
  299bbb     H2 8943   7.180   4.496   6.479  0.2820  0.6425 -0.6131
  299bbb     C2 8944   7.217   4.158   6.471 -0.4169  0.1409  0.4119
  299bbb     H3 8945   7.298   4.156   6.544 -0.5373  0.2034  0.5448
  299bbb     H4 8946   7.258   4.156   6.369 -0.5072 -2.8459  0.3434
  299bbb     C3 8947   7.074   4.291   6.618 -0.1589  0.5970 -0.3644
  299bbb     H5 8948   7.019   4.197   6.621  2.8001 -1.2236  0.1982
  299bbb     H6 8949   7.005   4.376   6.611 -2.4474 -1.0580  0.9656
  299bbb     C4 8950   7.151   4.312   6.753  0.3396  0.0605  0.1802
  299bbb     H7 8951   7.216   4.400   6.747  1.2955 -0.6546 -0.2795
  299bbb     H8 8952   7.227   4.233   6.759  1.2067  0.5440 -2.8229
  299bbb     C5 8953   7.321   4.431   6.340 -0.6149  0.0604  0.4001
  299bbb     H9 8954   7.258   4.419   6.251  0.0811  0.5783 -0.1709
  299bbb    H10 8955   7.404   4.360   6.335  0.4829  1.2304  1.1811
  299bbb     C6 8956   7.137   4.023   6.478 -0.5203  0.8318  0.3646
  299bbb    H11 8957   7.145   3.999   6.585  4.0929 -1.7655 -0.3040
  299bbb    H12 8958   7.198   3.945   6.430 -0.5837  0.6807  0.5278
  299bbb     C7 8959   7.064   4.316   6.879 -0.4094  0.0949 -0.6038
  299bbb    H13 8960   7.131   4.322   6.966 -0.9034  0.5931 -0.2451
  299bbb    H14 8961   7.011   4.224   6.903 -0.0429 -0.0425 -0.3143
  299bbb     C8 8962   6.996   4.022   6.421  0.3376 -0.2752  0.2700
  299bbb    H15 8963   6.958   3.920   6.435  4.1477 -1.8940  0.3365
  299bbb    H16 8964   6.933   4.094   6.475  0.9120  0.7223 -0.3675
  299bbb     C9 8965   7.399   4.565   6.337  0.6369  0.5649 -0.2936
  299bbb    H17 8966   7.476   4.566   6.260  0.2488  0.2004 -0.6885
  299bbb    H18 8967   7.464   4.564   6.426  0.6192 -0.8365 -0.2809
  299bbb     O1 8968   6.971   4.424   6.881  0.0395 -0.3366 -0.1853
  299bbb    H19 8969   7.080   4.292   6.412  0.1247 -1.3232  0.7886
  300bbb     N1 8970   6.891   4.178   7.843 -0.0464 -0.0370 -0.4130
  300bbb     C1 8971   6.798   4.095   7.940 -0.3260 -0.4212 -0.5701
  300bbb     H1 8972   6.866   4.047   8.011  1.5529  2.8079  0.0088
  300bbb     H2 8973   6.737   4.026   7.881 -0.8953  1.1562 -1.8877
  300bbb     C2 8974   7.025   4.106   7.824 -0.0188  0.0604  0.1262
  300bbb     H3 8975   7.080   4.118   7.918 -1.4310  0.0202  0.9795
  300bbb     H4 8976   7.076   4.163   7.745  0.0746 -1.5362 -1.0178
  300bbb     C3 8977   6.818   4.202   7.708  0.0982 -0.4310 -0.5542
  300bbb     H5 8978   6.734   4.132   7.717  2.5305 -3.4930 -0.0652
  300bbb     H6 8979   6.876   4.154   7.630 -0.9614 -2.4587 -0.1705
  300bbb     C4 8980   6.774   4.352   7.681  0.0015 -0.0975  0.5856
  300bbb     H7 8981   6.857   4.413   7.644 -0.5803 -0.1499 -0.8830
  300bbb     H8 8982   6.744   4.397   7.776 -2.3008 -0.9619  0.3182
  300bbb     C5 8983   6.703   4.189   8.018 -0.4320  1.0978 -0.7378
  300bbb     H9 8984   6.635   4.241   7.950 -0.2408  1.2892 -0.7834
  300bbb    H10 8985   6.753   4.268   8.076  0.0151 -1.5588  2.8909
  300bbb     C6 8986   7.031   3.953   7.797 -0.3421 -0.1178  0.0573
  300bbb    H11 8987   6.958   3.904   7.864 -1.0255  1.3278  0.4164
  300bbb    H12 8988   7.129   3.908   7.815 -0.0366 -0.9056 -3.0870
  300bbb     C7 8989   6.657   4.362   7.575 -0.2506  0.3062 -0.5435
  300bbb    H13 8990   6.625   4.466   7.567 -0.3392  0.3584  0.3062
  300bbb    H14 8991   6.574   4.306   7.621 -0.6097  3.3401  2.9818
  300bbb     C8 8992   6.988   3.915   7.652  0.1905 -0.5745 -1.1553
  300bbb    H15 8993   7.055   3.967   7.582 -0.3394  1.8965  0.0889
  300bbb    H16 8994   7.020   3.810   7.652  0.0366 -0.6227 -1.4140
  300bbb     C9 8995   6.612   4.103   8.118 -0.0308  0.8397  0.3753
  300bbb    H17 8996   6.567   4.022   8.060  0.3704  1.2268 -0.4926
  300bbb    H18 8997   6.538   4.174   8.157 -1.9421 -1.4599  1.1951
  300bbb     O1 8998   6.698   4.309   7.449 -0.0410  0.3795 -0.8503
  300bbb    H19 8999   6.904   4.270   7.888 -0.1979 -0.6974  1.0275
  301bbb     N1 9000   7.732   5.791   5.950  0.2970  1.0003  0.3152
  301bbb     C1 9001   7.629   5.752   5.844  0.2375 -0.5131 -0.1236
  301bbb     H1 9002   7.552   5.829   5.838 -0.7727 -1.5634 -1.0215
  301bbb     H2 9003   7.569   5.666   5.874  0.0999 -0.2318  0.4226
  301bbb     C2 9004   7.784   5.928   5.923  0.0569  0.8964  0.6088
  301bbb     H3 9005   7.809   5.967   6.022  2.9955  2.2710 -0.5581
  301bbb     H4 9006   7.699   5.987   5.890  1.4928  1.4738 -2.3709
  301bbb     C3 9007   7.654   5.816   6.086 -0.0148  0.0950 -0.3800
  301bbb     H5 9008   7.588   5.899   6.063  0.5732  0.5189 -0.5487
  301bbb     H6 9009   7.728   5.848   6.160  0.9360 -0.4862 -1.0422
  301bbb     C4 9010   7.565   5.714   6.163 -0.4027  0.1352  0.1565
  301bbb     H7 9011   7.621   5.622   6.181  1.7475  1.1486 -1.0453
  301bbb     H8 9012   7.491   5.691   6.085  1.2705  0.7281 -1.6795
  301bbb     C5 9013   7.684   5.724   5.706  0.1610 -0.1862 -0.0614
  301bbb     H9 9014   7.742   5.804   5.657  0.0138 -0.8298 -1.3336
  301bbb    H10 9015   7.598   5.710   5.639 -0.7927  1.6759  0.6999
  301bbb     C6 9016   7.912   5.950   5.843  0.2004  0.1876  0.1536
  301bbb    H11 9017   7.946   6.053   5.851  2.1518 -0.3068 -1.0620
  301bbb    H12 9018   7.891   5.942   5.735  1.8654  2.1594 -0.3649
  301bbb     C7 9019   7.511   5.774   6.293  0.0209  0.2426  0.1972
  301bbb    H13 9020   7.440   5.707   6.342  1.3608 -0.7145  0.9033
  301bbb    H14 9021   7.452   5.862   6.267  0.9095  0.8938  0.3363
  301bbb     C8 9022   8.027   5.847   5.878  0.1220  0.0390 -0.8067
  301bbb    H15 9023   8.007   5.753   5.825  1.8915  0.4123 -2.2448
  301bbb    H16 9024   8.119   5.890   5.837  0.5055  0.4120  0.3918
  301bbb     C9 9025   7.768   5.595   5.694  0.5844  0.2837  0.4112
  301bbb    H17 9026   7.844   5.591   5.773  1.7903  3.3893 -0.4372
  301bbb    H18 9027   7.817   5.584   5.597 -4.9261  1.8648 -2.9918
  301bbb     O1 9028   7.621   5.810   6.379 -0.4251  0.3235  0.0648
  301bbb    H19 9029   7.800   5.715   5.962 -1.2919 -1.3641 -3.5261
  302bbb     N1 9030   8.136   5.662   6.661 -0.5445  0.0735  1.4120
  302bbb     C1 9031   8.087   5.795   6.620 -0.0255  0.4527  0.8329
  302bbb     H1 9032   8.030   5.764   6.532 -0.7313 -1.4530  1.9091
  302bbb     H2 9033   8.172   5.850   6.579 -0.0723  0.7364  1.1130
  302bbb     C2 9034   8.230   5.676   6.782  0.2235 -0.7116  0.6988
  302bbb     H3 9035   8.252   5.574   6.814 -0.3912 -1.4691 -1.1713
  302bbb     H4 9036   8.178   5.736   6.856 -0.7794 -2.0873  1.1481
  302bbb     C3 9037   8.023   5.582   6.725  0.1945  0.9667  0.0196
  302bbb     H5 9038   7.943   5.601   6.653 -1.4544  2.0768  2.0537
  302bbb     H6 9039   8.010   5.635   6.819  2.7147  2.1104 -0.1953
  302bbb     C4 9040   8.054   5.432   6.744  0.1826 -0.1600 -0.1087
  302bbb     H7 9041   8.157   5.418   6.778  0.4899 -0.8479 -1.2517
  302bbb     H8 9042   8.045   5.369   6.655 -0.2511  0.3142 -0.4010
  302bbb     C5 9043   7.991   5.874   6.709 -0.6662 -0.1928  0.2747
  302bbb     H9 9044   8.031   5.857   6.810  2.3110  0.3240 -0.7086
  302bbb    H10 9045   7.892   5.828   6.697 -0.4743 -0.2804 -1.1348
  302bbb     C6 9046   8.370   5.731   6.741  0.4733 -0.7613  0.4650
  302bbb    H11 9047   8.431   5.737   6.831 -1.3155  0.5069  1.6678
  302bbb    H12 9048   8.359   5.837   6.714 -0.8846 -0.2791  2.6142
  302bbb     C7 9049   7.955   5.374   6.844 -0.4963 -0.2226  0.2415
  302bbb    H13 9050   7.996   5.397   6.944 -0.7832 -1.1760  0.5915
  302bbb    H14 9051   7.942   5.266   6.830  0.7097 -0.5027  1.0257
  302bbb     C8 9052   8.438   5.657   6.624 -0.2920 -0.6269 -0.1397
  302bbb    H15 9053   8.388   5.667   6.526  0.6746  0.4656 -0.5479
  302bbb    H16 9054   8.535   5.706   6.614 -0.5737  0.3018  1.3386
  302bbb     C9 9055   7.982   6.015   6.663  0.5146 -0.2278  0.0314
  302bbb    H17 9056   8.084   6.053   6.670  0.6217 -0.4572 -0.2899
  302bbb    H18 9057   7.922   6.069   6.737 -0.4122 -1.6525  0.3614
  302bbb     O1 9058   7.829   5.446   6.842 -0.1273 -0.7808 -0.1443
  302bbb    H19 9059   8.171   5.616   6.576 -2.6446  0.6502  0.1586
  303bbb     N1 9060   4.587   7.190   4.553  0.5334 -0.0764 -0.0013
  303bbb     C1 9061   4.627   7.258   4.418 -0.7112  0.5120  0.0004
  303bbb     H1 9062   4.682   7.349   4.442 -0.7832  0.6793 -0.4641
  303bbb     H2 9063   4.532   7.284   4.373 -1.1387 -1.3380 -0.2537
  303bbb     C2 9064   4.708   7.152   4.641 -0.5988 -0.3169  0.6658
  303bbb     H3 9065   4.750   7.252   4.646 -2.1990  0.4027  0.1462
  303bbb     H4 9066   4.780   7.091   4.586 -1.0458  0.7795 -1.2188
  303bbb     C3 9067   4.501   7.291   4.631  0.3705 -0.2104 -0.1341
  303bbb     H5 9068   4.579   7.362   4.658  2.0771 -2.2145  0.5176
  303bbb     H6 9069   4.466   7.232   4.716  0.3783 -2.5866 -1.6974
  303bbb     C4 9070   4.376   7.363   4.569  0.2875 -0.2062  0.4948
  303bbb     H7 9071   4.299   7.298   4.526  1.8278 -1.6971 -0.1210
  303bbb     H8 9072   4.406   7.426   4.485 -1.7939 -0.4190 -0.4758
  303bbb     C5 9073   4.717   7.168   4.327 -0.2755 -0.3997  0.2593
  303bbb     H9 9074   4.815   7.143   4.368 -0.3319 -0.2881  0.4634
  303bbb    H10 9075   4.737   7.227   4.236  0.1718  0.9803  1.2256
  303bbb     C6 9076   4.685   7.107   4.786 -0.5611 -0.1117 -0.2989
  303bbb    H11 9077   4.646   7.190   4.846 -1.4364 -0.6760 -0.0735
  303bbb    H12 9078   4.787   7.107   4.827 -1.3360 -0.1326  1.7526
  303bbb     C7 9079   4.299   7.443   4.674  0.2680  0.0062 -0.1705
  303bbb    H13 9080   4.214   7.496   4.629 -0.5035 -1.1140 -0.0634
  303bbb    H14 9081   4.365   7.516   4.723  1.4490 -1.5598  0.6573
  303bbb     C8 9082   4.610   6.975   4.799  0.4167  0.8719 -0.4065
  303bbb    H15 9083   4.637   6.934   4.897 -0.8542 -0.8321 -0.7259
  303bbb    H16 9084   4.503   6.993   4.781  0.6990  0.7617 -2.5404
  303bbb     C9 9085   4.634   7.041   4.269 -0.3414 -0.3389 -0.4685
  303bbb    H17 9086   4.528   7.070   4.266 -0.0672  0.8863  0.6132
  303bbb    H18 9087   4.637   6.955   4.337  1.0826  0.7644  0.9575
  303bbb     O1 9088   4.247   7.354   4.778 -0.2124  0.1758  0.3715
  303bbb    H19 9089   4.532   7.104   4.536 -0.7314  0.6711  0.1308
  304bbb     N1 9090   3.859   6.500   4.964  0.3845 -0.1763 -0.3087
  304bbb     C1 9091   3.933   6.395   4.879 -0.1181  0.2064  0.1785
  304bbb     H1 9092   3.939   6.304   4.938 -1.2302  0.1317  0.1989
  304bbb     H2 9093   4.030   6.441   4.863  0.4554 -1.0279 -0.0072
  304bbb     C2 9094   3.893   6.487   5.111  0.3786 -0.5558 -0.6691
  304bbb     H3 9095   3.935   6.579   5.151 -0.6993 -0.4372  0.2112
  304bbb     H4 9096   3.981   6.424   5.128  2.0331  1.6667 -0.5634
  304bbb     C3 9097   3.884   6.636   4.904  0.7095  0.0471 -0.2036
  304bbb     H5 9098   3.832   6.635   4.808 -0.1137  1.2141  0.2064
  304bbb     H6 9099   3.992   6.638   4.889  0.6308 -0.1284 -0.7922
  304bbb     C4 9100   3.835   6.759   4.987 -0.5951  0.4964 -0.2728
  304bbb     H7 9101   3.887   6.780   5.081  0.8808  4.6515 -1.8051
  304bbb     H8 9102   3.727   6.746   4.997 -0.6706  0.9439 -0.4929
  304bbb     C5 9103   3.866   6.360   4.738 -0.0961  0.5776 -0.2897
  304bbb     H9 9104   3.865   6.445   4.668  1.9755  0.5481 -0.4252
  304bbb    H10 9105   3.757   6.344   4.744 -0.5082  2.4809 -1.6815
  304bbb     C6 9106   3.782   6.443   5.208  0.0174  0.3894  0.3591
  304bbb    H11 9107   3.699   6.514   5.214 -1.0646 -0.6837 -1.1165
  304bbb    H12 9108   3.812   6.427   5.313  0.9658  1.6663  0.3066
  304bbb     C7 9109   3.855   6.880   4.894  0.3020 -0.3608 -0.2727
  304bbb    H13 9110   3.812   6.856   4.796  3.6630  1.1697 -2.2933
  304bbb    H14 9111   3.955   6.918   4.870 -0.3130  0.0127 -2.4120
  304bbb     C8 9112   3.709   6.304   5.175 -0.6971  0.0127 -0.3783
  304bbb    H15 9113   3.791   6.232   5.185  1.1111  2.0409  0.1958
  304bbb    H16 9114   3.632   6.291   5.252 -0.1494 -0.9166  0.0242
  304bbb     C9 9115   3.945   6.257   4.648 -1.3114 -0.2259  0.3510
  304bbb    H17 9116   4.033   6.311   4.611  0.1885 -0.9902  2.6070
  304bbb    H18 9117   3.883   6.225   4.563  1.5920 -0.5747 -1.7863
  304bbb     O1 9118   3.784   6.991   4.956 -0.0495  0.1973 -0.0978
  304bbb    H19 9119   3.761   6.469   4.955  0.9877 -2.4139  0.1814
  305bbb     N1 9120   4.258   8.238   5.215 -0.0720  0.0013  0.0399
  305bbb     C1 9121   4.390   8.178   5.271 -0.0113 -0.1517 -0.2492
  305bbb     H1 9122   4.440   8.263   5.318  0.2533 -1.5267  2.0684
  305bbb     H2 9123   4.449   8.144   5.186 -0.1375  0.1658 -0.4707
  305bbb     C2 9124   4.189   8.123   5.137  0.4095 -1.0627  0.4342
  305bbb     H3 9125   4.096   8.164   5.099  1.3549  0.2138 -0.6097
  305bbb     H4 9126   4.152   8.053   5.212 -1.8850  0.1014  0.4787
  305bbb     C3 9127   4.155   8.286   5.317 -0.4643  0.2593  0.5412
  305bbb     H5 9128   4.139   8.212   5.395  1.0311 -1.6903 -0.8700
  305bbb     H6 9129   4.056   8.286   5.272 -1.2339  0.6398  2.1925
  305bbb     C4 9130   4.192   8.423   5.374  0.3811 -0.4591 -0.3613
  305bbb     H7 9131   4.186   8.495   5.292  0.0304  0.4396  0.4303
  305bbb     H8 9132   4.287   8.431   5.428 -1.3282 -0.3710  2.9235
  305bbb     C5 9133   4.396   8.063   5.379  0.6698 -0.8761  0.8225
  305bbb     H9 9134   4.442   7.972   5.337 -1.2600 -2.1914  1.4388
  305bbb    H10 9135   4.294   8.034   5.408 -0.1368  1.9883  1.1055
  305bbb     C6 9136   4.265   8.051   5.026  0.1856  0.3982 -0.0517
  305bbb    H11 9137   4.347   7.990   5.066  0.0301 -1.8886 -2.8561
  305bbb    H12 9138   4.293   8.127   4.953 -2.3327  1.1324 -0.3617
  305bbb     C7 9139   4.078   8.467   5.467  0.2815  0.1407 -0.3483
  305bbb    H13 9140   3.985   8.478   5.410  0.1589  0.5227 -0.0803
  305bbb    H14 9141   4.106   8.556   5.525  0.1116 -0.3165  0.4627
  305bbb     C8 9142   4.164   7.952   4.955  0.2768 -1.2216 -0.0536
  305bbb    H15 9143   4.216   7.892   4.880 -1.5590 -0.3506 -2.1471
  305bbb    H16 9144   4.131   7.893   5.041  0.4109  2.0518  2.4482
  305bbb     C9 9145   4.464   8.100   5.513 -0.5981  0.2183  0.0697
  305bbb    H17 9146   4.550   8.162   5.486  0.4613 -0.3742  1.9297
  305bbb    H18 9147   4.500   8.013   5.569  2.0977  2.2718  1.7880
  305bbb     O1 9148   4.050   8.363   5.575 -0.0488 -0.5136  0.1003
  305bbb    H19 9149   4.279   8.311   5.146 -0.0566 -0.1929 -0.1579
  306bbb     N1 9150   3.413   8.359   5.885 -0.2709  0.2047 -0.8369
  306bbb     C1 9151   3.481   8.490   5.853 -0.1624  0.3828 -0.2897
  306bbb     H1 9152   3.529   8.529   5.943  1.7690  2.1958 -1.9876
  306bbb     H2 9153   3.400   8.562   5.839 -0.2879  0.5691  1.2347
  306bbb     C2 9154   3.327   8.386   6.011 -0.6350  0.2128 -0.6414
  306bbb     H3 9155   3.252   8.309   6.028  0.3408 -0.5940  0.1735
  306bbb     H4 9156   3.277   8.483   6.002  0.2667  0.6317 -1.3559
  306bbb     C3 9157   3.323   8.329   5.771 -0.4606 -0.3669 -0.0817
  306bbb     H5 9158   3.393   8.331   5.687 -0.5711  0.3760 -0.1665
  306bbb     H6 9159   3.248   8.407   5.757 -0.5595 -0.2442  1.0322
  306bbb     C4 9160   3.250   8.192   5.770  0.3883 -0.5039 -0.2784
  306bbb     H7 9161   3.184   8.186   5.683  1.2031 -0.8531 -0.8902
  306bbb     H8 9162   3.187   8.178   5.858  1.0117 -0.0207  0.2531
  306bbb     C5 9163   3.565   8.507   5.729  0.0504 -0.0879  0.4797
  306bbb     H9 9164   3.501   8.523   5.641 -2.4169 -0.0352  2.1914
  306bbb    H10 9165   3.623   8.420   5.696  1.1134  0.5461  0.6015
  306bbb     C6 9166   3.400   8.383   6.145 -0.1882  0.7634 -0.3733
  306bbb    H11 9167   3.456   8.477   6.155 -0.6966  0.9398  1.1442
  306bbb    H12 9168   3.466   8.295   6.155  0.1717  0.9639 -0.9009
  306bbb     C7 9169   3.336   8.056   5.763 -0.1417  0.0417 -0.0992
  306bbb    H13 9170   3.282   7.968   5.726  2.5425 -0.8755 -2.1536
  306bbb    H14 9171   3.364   8.028   5.866 -0.2359  2.5252  0.6628
  306bbb     C8 9172   3.292   8.391   6.254  0.5554  0.1928  0.0861
  306bbb    H15 9173   3.208   8.336   6.210 -0.0942  1.9017 -0.9118
  306bbb    H16 9174   3.319   8.328   6.340 -2.4757  1.0105  1.7728
  306bbb     C9 9175   3.668   8.617   5.739  0.6058 -0.3831 -0.1815
  306bbb    H17 9176   3.615   8.709   5.766  1.0857  0.1909 -1.1185
  306bbb    H18 9177   3.715   8.630   5.641  1.9538 -2.6463  0.0786
  306bbb     O1 9178   3.446   8.078   5.676  0.1506  0.4924  0.1942
  306bbb    H19 9179   3.495   8.297   5.893  0.8314  1.8409  2.2826
  307bbb     N1 9180   5.247   6.692   4.148 -0.6312  0.7052 -0.3942
  307bbb     C1 9181   5.328   6.561   4.166 -0.1713  0.2733 -0.3002
  307bbb     H1 9182   5.350   6.556   4.273 -1.4154 -0.9892 -0.0704
  307bbb     H2 9183   5.419   6.567   4.106  1.2448 -0.5158  1.6625
  307bbb     C2 9184   5.228   6.718   4.003 -0.5632 -0.1827 -0.2323
  307bbb     H3 9185   5.158   6.642   3.969 -2.2620  0.3363  1.8691
  307bbb     H4 9186   5.331   6.701   3.971 -0.8955 -1.4258 -0.6925
  307bbb     C3 9187   5.121   6.687   4.231 -0.6604  0.2358  0.5779
  307bbb     H5 9188   5.139   6.645   4.330  1.3101  0.7683  0.4786
  307bbb     H6 9189   5.043   6.629   4.182  1.2456 -0.3295 -1.9302
  307bbb     C4 9190   5.067   6.823   4.262  0.2208  0.0318  0.2687
  307bbb     H7 9191   5.032   6.873   4.171  1.1816  0.5227  0.1581
  307bbb     H8 9192   5.139   6.894   4.304 -0.7548 -0.6303  3.2818
  307bbb     C5 9193   5.248   6.430   4.125  0.5095  0.7109  1.4204
  307bbb     H9 9194   5.220   6.444   4.020  3.2100 -1.1777  0.3326
  307bbb    H10 9195   5.149   6.427   4.171  0.1224 -1.5481  0.5949
  307bbb     C6 9196   5.195   6.858   3.954 -0.3630 -0.1434 -0.0590
  307bbb    H11 9197   5.241   6.935   4.016  1.9058 -1.2383 -0.2704
  307bbb    H12 9198   5.087   6.875   3.961 -0.2300  0.2514  1.3548
  307bbb     C7 9199   4.949   6.810   4.357 -0.3213  0.1743  0.1385
  307bbb    H13 9200   4.877   6.734   4.325 -0.9623 -0.0424  1.9693
  307bbb    H14 9201   4.902   6.909   4.357  0.9037  0.7969  1.4086
  307bbb     C8 9202   5.225   6.877   3.807  0.1762  0.6361 -0.0802
  307bbb    H15 9203   5.217   6.985   3.786 -0.0303  0.5077 -0.6899
  307bbb    H16 9204   5.332   6.857   3.792  0.2938  0.7502  0.5767
  307bbb     C9 9205   5.325   6.294   4.148  0.0421  0.0055 -0.4355
  307bbb    H17 9206   5.257   6.212   4.123  1.2565 -1.2202  0.1861
  307bbb    H18 9207   5.344   6.283   4.255 -1.2095  1.1338 -0.0698
  307bbb     O1 9208   4.993   6.781   4.486  0.2815 -0.4841 -0.3372
  307bbb    H19 9209   5.305   6.767   4.188  1.1840  0.4180 -2.3503
  308bbb     N1 9210   5.487   7.193   4.917  0.3547  0.4647  0.1275
  308bbb     C1 9211   5.511   7.306   5.020  0.7522  0.4120  0.7801
  308bbb     H1 9212   5.611   7.303   5.062 -0.1325  0.4844  3.0607
  308bbb     H2 9213   5.451   7.283   5.109 -0.9996 -0.3588 -0.5414
  308bbb     C2 9214   5.575   7.203   4.794 -0.2651 -1.0438 -0.8683
  308bbb     H3 9215   5.564   7.307   4.761 -2.0334 -0.8319  0.2827
  308bbb     H4 9216   5.563   7.126   4.717  0.9726 -3.3186  1.0886
  308bbb     C3 9217   5.484   7.055   4.985 -0.6720  0.0924 -0.2778
  308bbb     H5 9218   5.559   7.058   5.065 -1.6931  0.1519  0.6920
  308bbb     H6 9219   5.512   6.992   4.900 -0.6427  1.1913 -1.1035
  308bbb     C4 9220   5.345   7.014   5.037  0.4462 -0.3315 -0.1234
  308bbb     H7 9221   5.279   7.043   4.954 -1.9371  2.1536  2.4106
  308bbb     H8 9222   5.305   7.074   5.120  1.2966 -0.2674  0.2505
  308bbb     C5 9223   5.494   7.451   4.982  1.0720 -0.2803  0.3397
  308bbb     H9 9224   5.390   7.473   4.953  1.3555 -1.7175 -2.1150
  308bbb    H10 9225   5.561   7.482   4.901  0.3345 -0.8784 -0.5282
  308bbb     C6 9226   5.730   7.190   4.829  0.1575  0.5929  0.2694
  308bbb    H11 9227   5.744   7.082   4.842 -1.9222  0.2616  0.0471
  308bbb    H12 9228   5.756   7.232   4.928  0.4515  0.3560  0.2945
  308bbb     C7 9229   5.331   6.866   5.065 -0.2015  0.9247 -0.5249
  308bbb    H13 9230   5.239   6.858   5.124  1.5875  0.3786  2.3933
  308bbb    H14 9231   5.413   6.846   5.135 -1.0103  1.5014  0.6265
  308bbb     C8 9232   5.818   7.255   4.731  0.1915 -0.3285 -0.2933
  308bbb    H15 9233   5.923   7.248   4.762  0.2048 -2.6371 -0.6944
  308bbb    H16 9234   5.808   7.196   4.639  1.2996 -2.4244  0.8575
  308bbb     C9 9235   5.520   7.544   5.108 -0.5651  0.5300  0.4645
  308bbb    H17 9236   5.472   7.637   5.075 -0.1700  0.2600 -0.9549
  308bbb    H18 9237   5.626   7.563   5.132 -0.8464  0.4389  1.8437
  308bbb     O1 9238   5.338   6.790   4.943 -0.0912  0.6403  0.0393
  308bbb    H19 9239   5.398   7.211   4.869  0.4440  0.9024  0.1246
  309bbb     N1 9240   5.677   6.127   5.529  0.3480 -0.6602  0.9020
  309bbb     C1 9241   5.724   6.196   5.395  0.4003  0.5113 -0.9573
  309bbb     H1 9242   5.720   6.303   5.414 -1.8331  0.4575 -0.8009
  309bbb     H2 9243   5.638   6.177   5.331 -0.0388 -0.2700 -0.1631
  309bbb     C2 9244   5.548   6.199   5.565 -0.3395 -0.1863 -0.5227
  309bbb     H3 9245   5.477   6.122   5.597  2.2261 -2.5175 -0.0119
  309bbb     H4 9246   5.513   6.251   5.476 -1.1686 -2.6380 -1.7213
  309bbb     C3 9247   5.636   5.976   5.496  0.5778  0.1164 -0.0071
  309bbb     H5 9248   5.710   5.943   5.423  0.7908  0.1971  0.1662
  309bbb     H6 9249   5.543   5.976   5.440  0.8402  1.5667 -0.4776
  309bbb     C4 9250   5.632   5.885   5.625 -0.3281 -0.1134 -0.3542
  309bbb     H7 9251   5.571   5.935   5.701  0.9848  0.3844  0.3981
  309bbb     H8 9252   5.735   5.883   5.662 -0.8213 -0.6304  1.0419
  309bbb     C5 9253   5.858   6.146   5.337 -0.1509 -0.4624  1.1540
  309bbb     H9 9254   5.870   6.037   5.334 -0.8580 -0.5274  0.3145
  309bbb    H10 9255   5.943   6.172   5.400  0.9931 -4.6688  1.6349
  309bbb     C6 9256   5.574   6.300   5.685  0.9201  0.3297  0.4618
  309bbb    H11 9257   5.489   6.367   5.702 -0.0255 -0.9030  0.7438
  309bbb    H12 9258   5.653   6.370   5.656 -0.7304  2.8386  1.6640
  309bbb     C7 9259   5.588   5.741   5.600  0.5167  0.0051 -0.0847
  309bbb    H13 9260   5.590   5.682   5.692  2.7828  0.4495  0.1962
  309bbb    H14 9261   5.664   5.694   5.536 -1.1144 -0.4403 -1.7790
  309bbb     C8 9262   5.598   6.233   5.816 -0.1430 -0.1646  0.5431
  309bbb    H15 9263   5.685   6.168   5.799 -0.6298 -0.5068 -0.7919
  309bbb    H16 9264   5.629   6.307   5.891 -0.7253 -0.8865  1.5122
  309bbb     C9 9265   5.880   6.194   5.187 -0.0083  0.4541 -0.2798
  309bbb    H17 9266   5.978   6.163   5.149 -0.2281 -0.9535  0.2392
  309bbb    H18 9267   5.855   6.300   5.181 -0.0644  0.5813  1.6306
  309bbb     O1 9268   5.459   5.747   5.531  0.2526  0.4917 -0.1416
  309bbb    H19 9269   5.750   6.134   5.601  1.8547  0.0898 -0.6305
  310bbb     N1 9270   5.195   5.384   4.697  0.0170  0.5263  0.0992
  310bbb     C1 9271   5.339   5.365   4.661  0.4928 -0.0588 -0.5633
  310bbb     H1 9272   5.375   5.468   4.657 -1.8926  0.9218  0.6881
  310bbb     H2 9273   5.350   5.328   4.559  1.2417  1.3619 -1.0291
  310bbb     C2 9274   5.146   5.498   4.616 -0.5285 -0.7277  0.1677
  310bbb     H3 9275   5.124   5.459   4.516  3.6970  0.1062 -1.2980
  310bbb     H4 9276   5.228   5.569   4.605  0.6498 -2.1361 -0.4231
  310bbb     C3 9277   5.113   5.253   4.674  0.7611  0.2462 -0.4789
  310bbb     H5 9278   5.165   5.194   4.599 -0.7255  0.2001 -1.5185
  310bbb     H6 9279   5.020   5.289   4.632  2.5099  2.6293 -2.5583
  310bbb     C4 9280   5.095   5.156   4.791  0.6553  0.0636 -0.5214
  310bbb     H7 9281   5.189   5.104   4.813 -0.7115 -1.9565  0.8275
  310bbb     H8 9282   5.021   5.081   4.760  1.3631 -1.3537  1.0622
  310bbb     C5 9283   5.421   5.280   4.757  0.1620  0.4782  0.0161
  310bbb     H9 9284   5.405   5.172   4.754 -0.2605  0.3656  3.0742
  310bbb    H10 9285   5.408   5.312   4.861 -1.2955  0.4787 -0.1392
  310bbb     C6 9286   5.026   5.564   4.687  0.1327 -0.3177  0.3317
  310bbb    H11 9287   5.037   5.549   4.795  2.1362 -2.1814 -0.0582
  310bbb    H12 9288   4.933   5.513   4.663  1.4689 -3.4048  1.2442
  310bbb     C7 9289   5.056   5.227   4.925 -0.5985  0.3010  0.2044
  310bbb    H13 9290   5.060   5.168   5.017 -3.5266  1.7094  1.3600
  310bbb    H14 9291   4.953   5.261   4.911 -0.9269  0.4151  2.4480
  310bbb     C8 9292   5.009   5.713   4.639 -0.5455 -0.3031 -0.6182
  310bbb    H15 9293   4.993   5.714   4.530  0.4796  0.3553 -0.7774
  310bbb    H16 9294   4.916   5.752   4.682 -0.2918  0.3413 -0.6448
  310bbb     C9 9295   5.567   5.295   4.712  0.6499  0.4639  0.0357
  310bbb    H17 9296   5.575   5.276   4.604 -1.9221  0.5543 -0.2182
  310bbb    H18 9297   5.633   5.225   4.765 -0.2187  0.2464  0.8496
  310bbb     O1 9298   5.144   5.334   4.957  0.1030  0.3687  0.4358
  310bbb    H19 9299   5.201   5.414   4.795  1.3752  2.3283 -0.4909
  311bbb     N1 9300   3.024   7.576   7.222  0.5071  0.1090 -0.1848
  311bbb     C1 9301   3.094   7.584   7.090 -0.3143  0.1267 -0.4708
  311bbb     H1 9302   3.044   7.525   7.013 -0.3193  1.5294 -1.5841
  311bbb     H2 9303   3.194   7.543   7.105 -0.9044 -1.9840 -1.8547
  311bbb     C2 9304   2.986   7.432   7.259 -0.4111 -0.7890  0.2520
  311bbb     H3 9305   2.975   7.431   7.367 -0.1699  0.5564  0.3076
  311bbb     H4 9306   3.065   7.369   7.219  1.4195  1.7050 -0.3150
  311bbb     C3 9307   3.118   7.624   7.339 -0.6686 -0.0888  0.0078
  311bbb     H5 9308   3.151   7.721   7.302 -2.0845  1.1639  1.9145
  311bbb     H6 9309   3.210   7.565   7.348  0.4048  1.2216 -1.7329
  311bbb     C4 9310   3.047   7.667   7.466 -0.2711  0.2222  0.0370
  311bbb     H7 9311   2.944   7.627   7.468 -0.1291 -0.2956  3.4831
  311bbb     H8 9312   3.038   7.776   7.466 -0.3407  0.2168 -0.2730
  311bbb     C5 9313   3.099   7.726   7.037  0.1018 -0.4912 -0.2503
  311bbb     H9 9314   3.163   7.725   6.948 -0.7042  1.2794 -0.8975
  311bbb    H10 9315   3.142   7.801   7.105  1.2187 -0.5505 -0.8717
  311bbb     C6 9316   2.854   7.376   7.196 -0.6176  0.2794  0.6046
  311bbb    H11 9317   2.854   7.374   7.087 -0.0355  0.6103  0.5952
  311bbb    H12 9318   2.772   7.439   7.230 -2.3083 -0.1147 -2.4152
  311bbb     C7 9319   3.126   7.616   7.586  0.3656 -0.4214  0.0922
  311bbb    H13 9320   3.109   7.507   7.592 -3.1425  0.0767  1.5119
  311bbb    H14 9321   3.095   7.669   7.677  0.4535 -0.1477 -0.0364
  311bbb     C8 9322   2.846   7.226   7.243 -0.4349 -0.0091 -0.3759
  311bbb    H15 9323   2.880   7.195   7.342 -2.6479 -2.2241 -0.2331
  311bbb    H16 9324   2.744   7.186   7.242  0.1483 -1.5240 -1.1995
  311bbb     C9 9325   2.959   7.775   6.989  0.3866  0.2484 -0.2418
  311bbb    H17 9326   2.968   7.853   6.912  1.5565  0.7865  0.4187
  311bbb    H18 9327   2.910   7.821   7.076  1.4563  0.9822 -0.0150
  311bbb     O1 9328   3.265   7.663   7.560  0.2759  0.3912 -0.6318
  311bbb    H19 9329   2.937   7.630   7.217  0.6977  0.3218 -1.3665
  312bbb     N1 9330   3.656   8.253   7.437 -0.0352  0.2806 -0.2368
  312bbb     C1 9331   3.505   8.241   7.456 -0.4400 -0.3072  0.1085
  312bbb     H1 9332   3.483   8.169   7.535 -2.1039  0.1238  0.0815
  312bbb     H2 9333   3.463   8.201   7.364 -0.2081  1.2813 -0.7209
  312bbb     C2 9334   3.692   8.346   7.321 -0.9051  0.5598  0.3705
  312bbb     H3 9335   3.676   8.449   7.355  2.4506  0.2518  3.5507
  312bbb     H4 9336   3.623   8.318   7.241 -1.0493 -2.9624  1.5825
  312bbb     C3 9337   3.719   8.298   7.570 -0.1805 -0.8593  0.2042
  312bbb     H5 9338   3.636   8.332   7.633 -0.6867  0.4557 -1.1252
  312bbb     H6 9339   3.780   8.385   7.546  0.6843 -1.5863 -0.2672
  312bbb     C4 9340   3.799   8.200   7.651  0.2020  0.2338  0.1006
  312bbb     H7 9341   3.729   8.146   7.715  2.0460 -1.0464  1.1153
  312bbb     H8 9342   3.860   8.252   7.726  0.5709 -1.2893  0.8891
  312bbb     C5 9343   3.436   8.371   7.495  0.4525  0.0114 -0.6778
  312bbb     H9 9344   3.498   8.459   7.478 -1.3857  1.2873 -1.0674
  312bbb    H10 9345   3.413   8.373   7.602 -0.4094  0.5319 -0.8602
  312bbb     C6 9346   3.836   8.327   7.262 -0.1643  0.0166 -0.0053
  312bbb    H11 9347   3.845   8.219   7.248 -0.1910  0.0544 -0.3160
  312bbb    H12 9348   3.907   8.345   7.344 -0.8520 -0.1350  0.6467
  312bbb     C7 9349   3.884   8.092   7.576  0.5143 -0.0180  0.3653
  312bbb    H13 9350   3.929   8.025   7.651  2.1359  1.1401  0.4689
  312bbb    H14 9351   3.966   8.135   7.518 -1.3872  2.1810 -0.8730
  312bbb     C8 9352   3.869   8.419   7.145  0.5164  0.1373  0.1657
  312bbb    H15 9353   3.891   8.522   7.174  0.6216  0.3852 -0.7679
  312bbb    H16 9354   3.958   8.376   7.098 -0.3800 -1.7427  0.0970
  312bbb     C9 9355   3.304   8.385   7.408  0.1551 -0.4331 -0.7779
  312bbb    H17 9356   3.238   8.463   7.445 -0.5012 -2.2648  2.2708
  312bbb    H18 9357   3.243   8.294   7.417 -2.1175  1.2149  1.7513
  312bbb     O1 9358   3.807   8.013   7.487  0.1497 -0.1042  0.3906
  312bbb    H19 9359   3.697   8.160   7.419  1.7797  0.6221  1.7566
  313bbb     N1 9360   3.684   7.006   7.966  0.2742 -0.6390 -0.5576
  313bbb     C1 9361   3.671   7.124   8.067 -0.6651 -0.0245  0.0647
  313bbb     H1 9362   3.714   7.211   8.017 -1.4437  0.4126  0.1508
  313bbb     H2 9363   3.734   7.097   8.152 -2.2100 -2.2320  0.5669
  313bbb     C2 9364   3.606   7.054   7.845  0.7278  0.4170  0.7955
  313bbb     H3 9365   3.648   7.151   7.818  2.1266 -0.2856  0.3526
  313bbb     H4 9366   3.508   7.079   7.887  0.6344 -0.7571  1.3174
  313bbb     C3 9367   3.828   6.977   7.932 -0.1489 -0.6614  0.6640
  313bbb     H5 9368   3.865   7.070   7.888  1.4486 -0.9965  1.2288
  313bbb     H6 9369   3.832   6.897   7.857  1.9114  0.2215 -0.2704
  313bbb     C4 9370   3.918   6.943   8.047 -0.0587 -0.0208 -0.2475
  313bbb     H7 9371   3.890   6.853   8.103  2.0571 -0.3363  0.4050
  313bbb     H8 9372   3.918   7.027   8.117 -0.6211  0.2710 -0.5838
  313bbb     C5 9373   3.535   7.171   8.130  0.2064  0.5549  0.4512
  313bbb     H9 9374   3.474   7.215   8.050  1.3998 -0.8478 -1.3354
  313bbb    H10 9375   3.551   7.249   8.205  1.0797  1.9435 -1.1070
  313bbb     C6 9376   3.590   6.961   7.727  0.4108 -0.9994  0.0090
  313bbb    H11 9377   3.691   6.926   7.700  1.2826  2.1384 -1.2412
  313bbb    H12 9378   3.546   7.012   7.641 -0.9625  1.0083  1.7957
  313bbb     C7 9379   4.059   6.920   7.991 -0.0141  0.5378  0.7625
  313bbb    H13 9380   4.124   6.878   8.069  0.6578 -0.4370 -0.2828
  313bbb    H14 9381   4.101   7.012   7.949 -1.5935 -0.1631 -2.8008
  313bbb     C8 9382   3.505   6.840   7.748  0.0794  0.0805  0.3331
  313bbb    H15 9383   3.493   6.800   7.647  3.3687  3.0167 -1.3925
  313bbb    H16 9384   3.556   6.764   7.809 -0.6424  0.5129  1.5130
  313bbb     C9 9385   3.464   7.052   8.196  0.0300  0.7279 -0.2465
  313bbb    H17 9386   3.362   7.086   8.214 -0.7163  0.5263 -3.4609
  313bbb    H18 9387   3.521   7.031   8.288 -0.2313  1.9521  0.2046
  313bbb     O1 9388   4.074   6.815   7.883  0.0986 -0.2807 -0.3455
  313bbb    H19 9389   3.645   6.919   8.006 -0.6852 -0.3167 -0.7823
  314bbb     N1 9390   4.076   6.281   8.073  0.6457  0.1622 -0.4666
  314bbb     C1 9391   4.130   6.169   8.164  0.8597 -0.0907 -0.0528
  314bbb     H1 9392   4.161   6.216   8.257 -5.6416  0.7186  2.2615
  314bbb     H2 9393   4.200   6.113   8.102  0.4594 -0.3909 -0.2409
  314bbb     C2 9394   4.077   6.411   8.149 -0.3737 -0.0090  1.5160
  314bbb     H3 9395   4.172   6.419   8.202  0.5409  0.7410 -0.1567
  314bbb     H4 9396   3.992   6.410   8.218 -2.4007  1.2305 -0.8135
  314bbb     C3 9397   4.149   6.284   7.938  0.4987  0.2023 -0.0104
  314bbb     H5 9398   4.250   6.317   7.962  0.1449  1.5537 -0.3080
  314bbb     H6 9399   4.119   6.360   7.866  0.4056  0.1644 -0.0117
  314bbb     C4 9400   4.146   6.150   7.858  0.9765 -0.1123 -0.8086
  314bbb     H7 9401   4.041   6.120   7.848  0.3525  1.3038  1.0234
  314bbb     H8 9402   4.195   6.067   7.910  1.0167  0.7476  0.5855
  314bbb     C5 9403   4.031   6.061   8.210 -0.1755 -0.3381  0.1441
  314bbb     H9 9404   4.087   5.968   8.219  0.9576  0.3514  0.3287
  314bbb    H10 9405   3.957   6.053   8.129  1.6945  0.6031 -1.7486
  314bbb     C6 9406   4.062   6.547   8.073 -0.2770  0.4341  0.2360
  314bbb    H11 9407   4.145   6.544   8.002 -0.7012  0.4101 -0.2617
  314bbb    H12 9408   4.077   6.630   8.143 -0.6551  1.2826 -0.6661
  314bbb     C7 9409   4.204   6.170   7.718  0.2726  0.3325  0.1731
  314bbb    H13 9410   4.145   6.241   7.658  1.0822  0.6402 -0.2638
  314bbb    H14 9411   4.190   6.074   7.668 -1.1379  0.7950 -0.3877
  314bbb     C8 9412   3.927   6.569   8.007  0.3535  0.7191  0.4654
  314bbb    H15 9413   3.841   6.539   8.069 -0.2545 -0.0567 -0.7264
  314bbb    H16 9414   3.907   6.672   7.974 -0.9937  0.2521 -0.2319
  314bbb     C9 9415   3.960   6.086   8.344  0.1825  0.3111  0.1208
  314bbb    H17 9416   4.023   6.065   8.431  1.8828  2.7297 -0.4134
  314bbb    H18 9417   3.875   6.018   8.353 -0.0338  0.7675  1.8085
  314bbb     O1 9418   4.340   6.209   7.729 -0.0721  0.3177 -0.4391
  314bbb    H19 9419   3.975   6.262   8.059  0.5006  1.0250 -0.6598
  315bbb     N1 9420   5.010   8.791   6.684 -0.1974 -0.2313 -0.2819
  315bbb     C1 9421   4.921   8.800   6.563  0.3890 -0.5688  0.5219
  315bbb     H1 9422   4.901   8.904   6.537  1.2210 -0.9377 -1.7884
  315bbb     H2 9423   4.830   8.750   6.597 -0.6797  0.9280 -0.0159
  315bbb     C2 9424   4.963   8.887   6.789 -0.4097  0.0429 -1.2025
  315bbb     H3 9425   5.036   8.882   6.871 -1.2439  0.2494 -0.4324
  315bbb     H4 9426   4.869   8.846   6.825  1.2529 -1.5998  1.6934
  315bbb     C3 9427   5.009   8.650   6.748 -0.3016 -0.5492 -0.1651
  315bbb     H5 9428   4.992   8.579   6.667  3.4178 -0.5547 -1.1243
  315bbb     H6 9429   4.928   8.654   6.820  2.1862  0.9113  2.7738
  315bbb     C4 9430   5.142   8.616   6.822  0.1976  0.2844 -1.0716
  315bbb     H7 9431   5.151   8.682   6.909  1.8630  0.4799 -1.3606
  315bbb     H8 9432   5.231   8.635   6.761  1.7220 -1.2301  0.5609
  315bbb     C5 9433   4.968   8.724   6.441  0.2047  0.0891 -0.3779
  315bbb     H9 9434   4.972   8.615   6.451 -0.0026  0.1462  0.3941
  315bbb    H10 9435   5.070   8.752   6.412  0.1306 -0.4147 -1.1505
  315bbb     C6 9436   4.967   9.038   6.747  0.1047  0.1009  0.2678
  315bbb    H11 9437   4.904   9.088   6.821 -0.2376 -2.1036  1.5714
  315bbb    H12 9438   4.917   9.053   6.651  1.8175 -1.0947 -0.8666
  315bbb     C7 9439   5.152   8.468   6.869  0.3469  0.2703  0.5149
  315bbb    H13 9440   5.065   8.422   6.917 -0.4145  0.9371 -0.1920
  315bbb    H14 9441   5.231   8.465   6.945  0.4009 -2.9132  0.4581
  315bbb     C8 9442   5.112   9.092   6.736  0.6343 -0.0680  0.3050
  315bbb    H15 9443   5.160   9.056   6.644  0.0892 -1.4050  0.5236
  315bbb    H16 9444   5.101   9.200   6.721 -2.3285 -0.2623  0.5102
  315bbb     C9 9445   4.879   8.757   6.317  0.3988  0.1461  0.0767
  315bbb    H17 9446   4.920   8.711   6.226 -1.7121 -2.9878  0.5631
  315bbb    H18 9447   4.881   8.865   6.299  0.7168  0.3302  1.1759
  315bbb     O1 9448   5.198   8.390   6.759 -0.1995 -0.2285 -0.1895
  315bbb    H19 9449   5.107   8.823   6.669  1.4187 -3.7203  1.4474
  316bbb     N1 9450   5.792   7.991   6.471 -0.4298  0.6674  0.2996
  316bbb     C1 9451   5.888   7.871   6.462  0.4284  0.3925  0.0131
  316bbb     H1 9452   5.979   7.901   6.515  1.0971 -0.5890 -0.5634
  316bbb     H2 9453   5.919   7.859   6.359  0.1996 -0.5952  0.0525
  316bbb     C2 9454   5.788   8.058   6.610 -0.4479  0.3795  0.2706
  316bbb     H3 9455   5.870   8.130   6.613  0.5672 -0.7558  0.4513
  316bbb     H4 9456   5.792   7.972   6.677 -0.4407 -0.2954 -0.5757
  316bbb     C3 9457   5.827   8.114   6.374 -0.7068  0.5230  0.2011
  316bbb     H5 9458   5.935   8.132   6.372 -0.8892  1.6345 -0.2145
  316bbb     H6 9459   5.781   8.206   6.408 -0.3896  0.2565  1.4123
  316bbb     C4 9460   5.787   8.074   6.227 -0.0244  0.5959 -0.0913
  316bbb     H7 9461   5.841   7.982   6.201  3.3242  1.5547  2.7703
  316bbb     H8 9462   5.814   8.148   6.150 -3.7788  1.0273 -1.1753
  316bbb     C5 9463   5.816   7.739   6.502 -0.2386 -0.3965  0.2181
  316bbb     H9 9464   5.767   7.758   6.598 -1.8329 -0.1367 -0.6182
  316bbb    H10 9465   5.893   7.664   6.524  0.0904  0.0539  0.6325
  316bbb     C6 9466   5.659   8.145   6.645  0.2124  0.3841  0.3749
  316bbb    H11 9467   5.571   8.083   6.669 -0.3010  0.9257 -0.1024
  316bbb    H12 9468   5.628   8.208   6.561 -0.5236 -0.7670 -0.2553
  316bbb     C7 9469   5.639   8.058   6.201 -0.4245 -0.1567  0.3724
  316bbb    H13 9470   5.637   8.012   6.102  2.0005  1.4909 -0.5306
  316bbb    H14 9471   5.588   8.155   6.198 -0.9118 -0.2653  2.9120
  316bbb     C8 9472   5.708   8.222   6.774  0.2594 -0.3957 -0.6354
  316bbb    H15 9473   5.717   8.163   6.867  1.5978  1.3995  0.4471
  316bbb    H16 9474   5.807   8.267   6.757 -0.4880  1.6899  0.2059
  316bbb     C9 9475   5.709   7.690   6.401 -0.2041  0.0151  0.3085
  316bbb    H17 9476   5.614   7.744   6.413 -0.9673 -0.7905 -1.6848
  316bbb    H18 9477   5.681   7.588   6.430 -1.1725 -0.4080 -1.8753
  316bbb     O1 9478   5.586   7.969   6.301  0.1531  0.0942  0.2786
  316bbb    H19 9479   5.701   7.951   6.445  0.7329 -1.6342 -0.5102
  317bbb     N1 9480   5.261   8.439   7.529  0.4970  0.0724  0.4035
  317bbb     C1 9481   5.369   8.338   7.554 -0.1290  0.5186 -0.7108
  317bbb     H1 9482   5.445   8.360   7.478  0.2296 -1.4091 -0.9741
  317bbb     H2 9483   5.326   8.238   7.541 -1.6843  1.0086  0.4556
  317bbb     C2 9484   5.323   8.573   7.499  0.8117 -0.0000  0.0015
  317bbb     H3 9485   5.351   8.576   7.394  0.6864 -0.1015 -0.0351
  317bbb     H4 9486   5.409   8.583   7.566  0.8713 -1.7710  0.2316
  317bbb     C3 9487   5.178   8.408   7.401  0.0034 -0.6889 -0.0775
  317bbb     H5 9488   5.246   8.381   7.320 -0.6275  0.6731 -1.0946
  317bbb     H6 9489   5.123   8.501   7.389  0.3260 -0.3297  1.1209
  317bbb     C4 9490   5.075   8.301   7.425 -0.2544 -0.2596 -0.6027
  317bbb     H7 9491   5.114   8.218   7.485  1.8105 -0.8314 -2.5931
  317bbb     H8 9492   5.046   8.253   7.331  1.9017 -0.8247 -1.0160
  317bbb     C5 9493   5.458   8.350   7.681  0.2052  0.5400 -0.2229
  317bbb     H9 9494   5.496   8.452   7.694 -0.0499  0.5047  0.8374
  317bbb    H10 9495   5.542   8.282   7.658  0.4848  1.5498 -2.4156
  317bbb     C6 9496   5.229   8.694   7.531  0.1070  0.8996 -0.0596
  317bbb    H11 9497   5.201   8.708   7.636  0.0517  0.6025 -0.0347
  317bbb    H12 9498   5.137   8.695   7.471  0.3604  1.3040 -0.4546
  317bbb     C7 9499   4.950   8.351   7.494  0.3357 -0.5471  0.2377
  317bbb    H13 9500   4.891   8.407   7.420 -1.9473 -0.3160  2.1428
  317bbb    H14 9501   4.985   8.426   7.566 -0.1982  0.5342 -0.5883
  317bbb     C8 9502   5.300   8.826   7.492  0.2296  0.0933  0.1431
  317bbb    H15 9503   5.322   8.818   7.385 -1.7242 -3.0606 -0.1712
  317bbb    H16 9504   5.236   8.915   7.497  2.3767  1.6576  0.9520
  317bbb     C9 9505   5.382   8.293   7.808 -0.2886 -0.0406  0.1962
  317bbb    H17 9506   5.297   8.361   7.825  1.1321  1.6682  0.7264
  317bbb    H18 9507   5.447   8.297   7.896  0.3768  0.3658 -0.3092
  317bbb     O1 9508   4.870   8.250   7.553 -0.1943  0.0306 -0.0858
  317bbb    H19 9509   5.198   8.440   7.610 -0.4877 -1.6404 -0.2890
  318bbb     N1 9510   4.445   8.679   7.118 -0.5715  0.0886 -0.2610
  318bbb     C1 9511   4.505   8.810   7.070 -0.4594  0.3281  0.4800
  318bbb     H1 9512   4.457   8.836   6.976  0.8533 -0.1724 -0.3440
  318bbb     H2 9513   4.607   8.791   7.039 -0.6877  0.5049 -0.4102
  318bbb     C2 9514   4.435   8.572   7.007  0.4071  0.2891 -0.2657
  318bbb     H3 9515   4.388   8.492   7.065  0.8371  1.3030  1.5320
  318bbb     H4 9516   4.535   8.544   6.974  0.1197  1.0188 -1.8781
  318bbb     C3 9517   4.531   8.627   7.235 -0.7230 -0.3612  0.1511
  318bbb     H5 9518   4.571   8.716   7.282 -1.1192 -0.0719 -0.0523
  318bbb     H6 9519   4.619   8.576   7.194 -1.6708 -1.1161 -1.0360
  318bbb     C4 9520   4.468   8.536   7.338 -0.1611 -0.5585 -0.0588
  318bbb     H7 9521   4.455   8.438   7.290  0.1396 -0.0350 -1.2666
  318bbb     H8 9522   4.368   8.576   7.357  0.2666 -0.1519  1.4685
  318bbb     C5 9523   4.495   8.925   7.163  0.7310 -0.4630 -0.0292
  318bbb     H9 9524   4.542   8.906   7.260 -0.5253 -0.8533  0.5198
  318bbb    H10 9525   4.390   8.943   7.189  0.7799 -0.6105  0.2692
  318bbb     C6 9526   4.339   8.607   6.888 -0.2199  0.3393 -0.5488
  318bbb    H11 9527   4.383   8.687   6.827 -0.6735  0.9865 -0.0298
  318bbb    H12 9528   4.249   8.642   6.938 -0.0975 -2.3801  1.8333
  318bbb     C7 9529   4.547   8.522   7.469  0.2501  0.4329 -0.3815
  318bbb    H13 9530   4.559   8.625   7.504 -1.2507  1.3582 -2.3984
  318bbb    H14 9531   4.645   8.475   7.451  1.0756  2.1743 -0.6359
  318bbb     C8 9532   4.311   8.480   6.798  0.4324 -0.0031  0.0484
  318bbb    H15 9533   4.394   8.415   6.767 -1.3505 -1.5634 -1.7043
  318bbb    H16 9534   4.245   8.418   6.859  0.2307 -1.9205 -1.9856
  318bbb     C9 9535   4.546   9.065   7.107 -0.3305 -0.3237  0.4745
  318bbb    H17 9536   4.527   9.152   7.170 -0.8955 -0.9500  1.1713
  318bbb    H18 9537   4.504   9.081   7.006 -0.3481  0.1224  0.5489
  318bbb     O1 9538   4.452   8.453   7.563 -0.0407 -0.0705 -0.1358
  318bbb    H19 9539   4.348   8.701   7.144  0.0977  1.8820  0.8605
  319bbb     N1 9540   5.133   0.002   5.244  0.3464 -0.5866 -0.0414
  319bbb     C1 9541   5.252   0.081   5.216 -0.2679 -0.1808 -0.0778
  319bbb     H1 9542   5.287   0.039   5.122  0.1496 -1.7728  0.7500
  319bbb     H2 9543   5.322   0.068   5.299 -1.0251 -0.6941  0.4864
  319bbb     C2 9544   5.164  -0.147   5.241  0.1007 -0.1351  0.4570
  319bbb     H3 9545   5.077  -0.198   5.283 -1.9007  1.3407 -1.6723
  319bbb     H4 9546   5.251  -0.162   5.305  0.9977  0.1651 -0.6665
  319bbb     C3 9547   5.083   0.044   5.381  0.6724  0.4754  0.4414
  319bbb     H5 9548   5.067   0.151   5.366  0.0389  0.4255  0.6997
  319bbb     H6 9549   5.163   0.029   5.453 -0.2936 -0.9637  1.2723
  319bbb     C4 9550   4.962  -0.038   5.431  0.7282 -0.5792 -0.8988
  319bbb     H7 9551   4.996  -0.138   5.459 -0.7101 -0.5511  1.1595
  319bbb     H8 9552   4.890  -0.061   5.351 -0.1753  1.7291 -0.8285
  319bbb     C5 9553   5.229   0.232   5.213 -0.0868 -0.0698 -0.2695
  319bbb     H9 9554   5.224   0.266   5.317  1.7137 -1.9118  0.4831
  319bbb    H10 9555   5.142   0.254   5.149 -0.5755 -1.6854 -0.2054
  319bbb     C6 9556   5.203  -0.220   5.113 -1.0997  0.4640  0.2435
  319bbb    H11 9557   5.298  -0.174   5.084  0.3049  0.2037  3.9904
  319bbb    H12 9558   5.131  -0.211   5.030 -0.6425  1.8807 -0.0187
  319bbb     C7 9559   4.894   0.031   5.557  0.5038  0.3566 -0.1426
  319bbb    H13 9560   4.937   0.000   5.653 -1.6535  1.3406  1.1984
  319bbb    H14 9561   4.794  -0.013   5.566  0.5199  0.5639  1.2333
  319bbb     C8 9562   5.221  -0.372   5.149 -0.4788 -0.4369 -0.1620
  319bbb    H15 9563   5.139  -0.414   5.208 -0.2646  0.0643  0.5147
  319bbb    H16 9564   5.233  -0.428   5.056  0.5834  0.9089 -0.8651
  319bbb     C9 9565   5.342   0.305   5.145  0.7867  0.5857  0.1892
  319bbb    H17 9566   5.336   0.414   5.158  1.2072  0.6137  0.1595
  319bbb    H18 9567   5.340   0.275   5.040  2.4715 -1.3222  0.6443
  319bbb     O1 9568   4.898   0.174   5.543  0.2628 -0.6577 -0.3640
  319bbb    H19 9569   5.058   0.017   5.175 -0.1704 -0.3149  0.5710
  320bbb     N1 9570   5.234   0.033   5.842  0.0154 -0.1524 -0.1372
  320bbb     C1 9571   5.120  -0.043   5.911 -1.0096 -0.1622  0.2461
  320bbb     H1 9572   5.094  -0.133   5.855  1.7281 -0.5657 -0.5220
  320bbb     H2 9573   5.040   0.030   5.918  0.6028  2.1095 -2.5661
  320bbb     C2 9574   5.233  -0.000   5.694  0.0474  0.0482 -0.2631
  320bbb     H3 9575   5.295   0.074   5.643  0.0493  0.8168  0.8109
  320bbb     H4 9576   5.126   0.009   5.675  0.0598  0.8837  0.0344
  320bbb     C3 9577   5.210   0.187   5.857 -0.4776  0.3791 -0.1169
  320bbb     H5 9578   5.103   0.209   5.862  0.0043  2.7605  0.8188
  320bbb     H6 9579   5.247   0.238   5.767 -0.3836  1.8243  0.7121
  320bbb     C4 9580   5.279   0.261   5.981 -0.7165 -0.5804  0.3786
  320bbb     H7 9581   5.384   0.273   5.949 -1.0163  1.8392  0.1162
  320bbb     H8 9582   5.288   0.203   6.074  1.6955  1.6364  1.6673
  320bbb     C5 9583   5.156  -0.093   6.058 -0.2630 -0.3968  0.2224
  320bbb     H9 9584   5.076  -0.151   6.105 -2.0292  0.9125 -1.0127
  320bbb    H10 9585   5.159  -0.007   6.127  1.6895 -1.6644  1.8155
  320bbb     C6 9586   5.275  -0.150   5.673  0.6301  0.1904 -0.0861
  320bbb    H11 9587   5.239  -0.165   5.570 -0.1172 -0.2783  0.2422
  320bbb    H12 9588   5.226  -0.218   5.743  1.3210  0.5069  0.7151
  320bbb     C7 9589   5.225   0.404   6.002 -0.0873  0.2784 -0.0974
  320bbb    H13 9590   5.283   0.457   6.079  1.6900  0.9376 -1.7955
  320bbb    H14 9591   5.119   0.398   6.027  0.0552  0.6183  0.5962
  320bbb     C8 9592   5.426  -0.160   5.688  0.1825 -0.1554 -0.8542
  320bbb    H15 9593   5.472  -0.110   5.774  1.5435 -0.4540 -1.3937
  320bbb    H16 9594   5.454  -0.260   5.723 -1.1265 -0.8727 -1.7365
  320bbb     C9 9595   5.291  -0.164   6.072  0.2582  0.5049 -0.4595
  320bbb    H17 9596   5.308  -0.189   6.177  0.9243  1.2944 -0.3735
  320bbb    H18 9597   5.368  -0.088   6.052 -0.8867  1.5611 -1.0344
  320bbb     O1 9598   5.254   0.492   5.885 -0.1300 -0.0743 -0.0952
  320bbb    H19 9599   5.323   0.004   5.884  0.2835 -0.2916 -0.7847
  321bbb     N1 9600   3.177   0.360   5.389  0.3832 -0.2534 -0.7227
  321bbb     C1 9601   3.046   0.294   5.362  0.6530 -0.1806 -0.4360
  321bbb     H1 9602   3.001   0.279   5.461 -1.4313 -1.2277 -1.4795
  321bbb     H2 9603   3.072   0.191   5.337  1.1874 -0.7656  2.2453
  321bbb     C2 9604   3.151   0.490   5.475 -0.0759 -0.4034  0.0352
  321bbb     H3 9605   3.088   0.552   5.411 -1.7861 -1.2034  0.8663
  321bbb     H4 9606   3.247   0.540   5.489 -0.3634  0.8319 -1.9321
  321bbb     C3 9607   3.264   0.264   5.467 -0.0657 -0.3499 -0.3589
  321bbb     H5 9608   3.253   0.174   5.406  1.8084 -1.0846  0.2969
  321bbb     H6 9609   3.229   0.230   5.565  0.0285 -0.6548 -0.4292
  321bbb     C4 9610   3.416   0.295   5.467 -0.1573 -0.0235  0.4241
  321bbb     H7 9611   3.460   0.208   5.517 -1.8951 -2.1962 -1.6181
  321bbb     H8 9612   3.427   0.388   5.525 -1.1270  0.5704 -0.3328
  321bbb     C5 9613   2.957   0.367   5.254  0.4444 -0.3423 -0.5829
  321bbb     H9 9614   3.012   0.423   5.178 -2.2945  0.4327 -2.1416
  321bbb    H10 9615   2.902   0.447   5.304 -0.9888 -1.3573 -0.4698
  321bbb     C6 9616   3.074   0.477   5.606 -0.0845  0.2008  0.0910
  321bbb    H11 9617   3.130   0.415   5.677 -0.1409  0.0658  0.0183
  321bbb    H12 9618   2.970   0.445   5.589  0.0391 -1.7918  2.5106
  321bbb     C7 9619   3.470   0.311   5.325 -0.3688 -0.6329 -0.2024
  321bbb    H13 9620   3.450   0.218   5.270  2.0461 -0.8496 -0.8256
  321bbb    H14 9621   3.578   0.324   5.337 -0.2845 -2.0993  0.8933
  321bbb     C8 9622   3.071   0.611   5.678  0.5847  0.0062  0.3652
  321bbb    H15 9623   3.172   0.651   5.681  0.3678  0.5268  1.0279
  321bbb    H16 9624   3.008   0.679   5.620  1.1193  0.6305  0.5073
  321bbb     C9 9625   2.858   0.269   5.179 -0.4734  0.5411  0.6576
  321bbb    H17 9626   2.912   0.202   5.111  0.6684  1.8306  0.2515
  321bbb    H18 9627   2.789   0.328   5.118 -1.7766  1.3355  2.7635
  321bbb     O1 9628   3.412   0.429   5.272 -0.0911 -0.1566  0.3548
  321bbb    H19 9629   3.227   0.382   5.301  0.3832  0.0555 -0.6479
  322bbb     N1 9630   3.092   0.669   4.463  0.2664 -1.0457 -0.2734
  322bbb     C1 9631   3.075   0.545   4.549 -0.3370 -0.0439  0.1605
  322bbb     H1 9632   3.069   0.570   4.655  0.0438 -3.4121  1.0889
  322bbb     H2 9633   3.173   0.498   4.558  0.6618  2.2627  3.3527
  322bbb     C2 9634   2.991   0.774   4.497  0.9155  0.0983  0.9499
  322bbb     H3 9635   3.010   0.797   4.602 -0.5291 -0.9160  1.4739
  322bbb     H4 9636   2.896   0.721   4.489  1.3831 -0.7698  1.0231
  322bbb     C3 9637   3.229   0.720   4.515  0.8007 -0.2271  0.7056
  322bbb     H5 9638   3.241   0.686   4.618  0.2484 -2.0377  0.2042
  322bbb     H6 9639   3.227   0.828   4.505  2.2277 -0.2918 -0.4381
  322bbb     C4 9640   3.354   0.667   4.438  0.2445  0.1084 -0.0836
  322bbb     H7 9641   3.340   0.686   4.331  0.1025  0.6746  0.0333
  322bbb     H8 9642   3.362   0.558   4.446 -1.1010  0.0493  0.7418
  322bbb     C5 9643   2.970   0.445   4.506 -0.2801 -0.2054  0.1962
  322bbb     H9 9644   3.010   0.347   4.536  1.2116  0.2289 -0.2755
  322bbb    H10 9645   2.965   0.440   4.397  1.5490  1.2481 -0.0139
  322bbb     C6 9646   2.988   0.905   4.408 -0.2848 -0.2849 -0.1727
  322bbb    H11 9647   3.089   0.947   4.416 -0.7146  0.7482  0.0005
  322bbb    H12 9648   2.917   0.982   4.443 -0.2178  0.1131 -0.8792
  322bbb     C7 9649   3.486   0.740   4.460 -0.1876 -0.1363 -0.1547
  322bbb    H13 9650   3.475   0.843   4.422 -2.3679 -0.2497  0.0134
  322bbb    H14 9651   3.561   0.689   4.399  2.2681  1.0705  1.6745
  322bbb     C8 9652   2.954   0.881   4.262  0.1091 -0.0169  0.8334
  322bbb    H15 9653   2.844   0.876   4.262  0.0412  0.7417 -1.1827
  322bbb    H16 9654   2.981   0.967   4.201 -0.0689 -0.1351  0.5865
  322bbb     C9 9655   2.825   0.464   4.560  0.1836  0.9145 -0.0397
  322bbb    H17 9656   2.815   0.502   4.662 -0.4001  1.0261 -0.1307
  322bbb    H18 9657   2.778   0.367   4.540  0.6490  0.8808 -1.0380
  322bbb     O1 9658   3.519   0.736   4.600  0.1937  0.3929 -0.0864
  322bbb    H19 9659   3.084   0.647   4.363 -0.0674 -0.6561 -0.3334
  323bbb     N1 9660   3.522   1.084   3.996  0.5940 -0.1758 -0.5253
  323bbb     C1 9661   3.393   1.156   4.044  0.4837  0.2256  0.2901
  323bbb     H1 9662   3.322   1.151   3.962  1.0990 -0.1126 -0.2307
  323bbb     H2 9663   3.408   1.264   4.054 -1.4332  0.3583  2.7321
  323bbb     C2 9664   3.510   1.042   3.854  0.2482 -0.8804  0.3561
  323bbb     H3 9665   3.611   1.010   3.827  0.6137 -0.0497  0.7188
  323bbb     H4 9666   3.481   1.126   3.791  1.2447  0.1903  1.2771
  323bbb     C3 9667   3.638   1.183   4.005 -0.3232  0.1420 -0.2268
  323bbb     H5 9668   3.648   1.239   4.098  1.1053  1.2683 -1.0312
  323bbb     H6 9669   3.623   1.252   3.922 -1.6316 -0.1798 -0.2796
  323bbb     C4 9670   3.773   1.113   3.995  0.6788  0.2798  0.3007
  323bbb     H7 9671   3.764   1.019   3.939  1.4194  2.0349 -3.0819
  323bbb     H8 9672   3.809   1.090   4.096 -1.3201  1.9808  1.4812
  323bbb     C5 9673   3.344   1.108   4.177  0.1074  0.3248  0.6791
  323bbb     H9 9674   3.424   1.106   4.252 -0.1768 -0.5022  0.9696
  323bbb    H10 9675   3.318   1.004   4.157 -0.7972  0.4070  1.3698
  323bbb     C6 9676   3.406   0.923   3.826 -0.3020 -0.3191 -0.2407
  323bbb    H11 9677   3.309   0.948   3.871  0.0596  1.5648 -0.3906
  323bbb    H12 9678   3.447   0.829   3.863  0.7065  0.2599  0.1566
  323bbb     C7 9679   3.874   1.206   3.913 -0.4146 -0.1226  0.2038
  323bbb    H13 9680   3.823   1.265   3.835  1.3427 -0.0429 -0.9459
  323bbb    H14 9681   3.947   1.136   3.870 -0.3969 -0.2215  0.3929
  323bbb     C8 9682   3.400   0.905   3.675 -0.2736  0.1229 -0.2308
  323bbb    H15 9683   3.370   1.001   3.631 -0.9449 -0.0998 -0.2780
  323bbb    H16 9684   3.502   0.887   3.639  0.6838  1.8418  1.4379
  323bbb     C9 9685   3.223   1.197   4.221  0.3304  0.2069 -1.0207
  323bbb    H17 9686   3.259   1.297   4.247 -0.2900  0.2135 -0.1347
  323bbb    H18 9687   3.181   1.154   4.312  0.5569  0.3026 -0.8690
  323bbb     O1 9688   3.954   1.300   3.999 -0.6055 -0.2064 -0.3422
  323bbb    H19 9689   3.531   1.006   4.063  0.9291  0.9719  0.8039
  324bbb     N1 9690   4.556   1.528   4.695 -0.2955 -0.2081  0.7860
  324bbb     C1 9691   4.660   1.480   4.798  0.0559  0.3159  0.1564
  324bbb     H1 9692   4.613   1.419   4.875  2.5962  0.8133  2.2942
  324bbb     H2 9693   4.694   1.570   4.850 -0.2843  0.4136  0.2062
  324bbb     C2 9694   4.611   1.623   4.587  0.0195  0.0875  0.0893
  324bbb     H3 9695   4.677   1.562   4.526  0.5991  0.9561 -0.1628
  324bbb     H4 9696   4.662   1.702   4.643  0.5963  1.3253 -2.1001
  324bbb     C3 9697   4.471   1.415   4.633  0.5542 -0.2693 -0.2174
  324bbb     H5 9698   4.540   1.348   4.581  0.2377 -0.1940 -0.7411
  324bbb     H6 9699   4.395   1.454   4.566 -2.0675  0.2804  2.8145
  324bbb     C4 9700   4.393   1.323   4.724  0.3550  0.8165  0.6530
  324bbb     H7 9701   4.350   1.382   4.806 -1.0702  2.1216 -0.9632
  324bbb     H8 9702   4.469   1.261   4.774 -0.0564  0.2154  0.5448
  324bbb     C5 9703   4.786   1.418   4.739 -0.1233 -0.2167  0.0217
  324bbb     H9 9704   4.838   1.486   4.670 -0.3125 -1.0504 -0.9845
  324bbb    H10 9705   4.754   1.336   4.673  1.0848 -0.2065 -0.6148
  324bbb     C6 9706   4.513   1.677   4.490  0.1725  0.0432  0.5928
  324bbb    H11 9707   4.431   1.727   4.543 -2.4247 -2.1491 -1.1279
  324bbb    H12 9708   4.462   1.602   4.429  1.7471  0.9531 -2.0588
  324bbb     C7 9709   4.275   1.245   4.667  0.2564  0.2837  0.1381
  324bbb    H13 9710   4.208   1.318   4.621  0.3259  0.3777  0.1865
  324bbb    H14 9711   4.218   1.186   4.741  0.6175  0.9537  0.9604
  324bbb     C8 9712   4.565   1.782   4.389 -0.2426 -0.7018  0.5192
  324bbb    H15 9713   4.482   1.779   4.318 -0.8637 -0.1226  1.2024
  324bbb    H16 9714   4.561   1.879   4.441 -0.8844 -2.0634  3.2469
  324bbb     C9 9715   4.904   1.364   4.828  0.2986 -0.0599  0.4550
  324bbb    H17 9716   4.942   1.444   4.892  0.5931  1.3231 -1.3689
  324bbb    H18 9717   4.979   1.325   4.758 -2.7612 -1.0804 -2.5682
  324bbb     O1 9718   4.330   1.147   4.576  0.0230 -0.5281  0.3010
  324bbb    H19 9719   4.491   1.591   4.743  0.3243  3.4122 -2.6024
  325bbb     N1 9720   4.148  -0.266   3.903  0.3044  0.4906 -0.0990
  325bbb     C1 9721   4.014  -0.206   3.863 -0.0786  0.1909  0.6094
  325bbb     H1 9722   4.000  -0.218   3.756 -0.9944 -0.6705  0.8094
  325bbb     H2 9723   4.021  -0.099   3.884 -0.7491  0.0244  1.7935
  325bbb     C2 9724   4.155  -0.412   3.875 -0.1598 -0.4772 -0.0290
  325bbb     H3 9725   4.141  -0.428   3.768  1.7273  0.6782 -0.4900
  325bbb     H4 9726   4.070  -0.459   3.926 -0.4913  1.0125  0.8483
  325bbb     C3 9727   4.257  -0.197   3.817 -0.5766  0.0702 -0.3968
  325bbb     H5 9728   4.233  -0.228   3.715  0.5494  1.1932 -1.0314
  325bbb     H6 9729   4.352  -0.237   3.853 -0.3240 -0.5145 -1.6323
  325bbb     C4 9730   4.263  -0.043   3.817 -0.5942  0.6819 -0.0283
  325bbb     H7 9731   4.258   0.000   3.918  0.3288 -1.5646  1.0548
  325bbb     H8 9732   4.186  -0.004   3.749 -0.8452 -1.8534 -1.3356
  325bbb     C5 9733   3.895  -0.274   3.936 -0.0933 -0.5704  0.3955
  325bbb     H9 9734   3.921  -0.277   4.043 -0.0917  0.8798  0.4565
  325bbb    H10 9735   3.879  -0.375   3.897  0.6860 -0.7421  0.4952
  325bbb     C6 9736   4.289  -0.483   3.920  0.0788 -0.2703  0.2536
  325bbb    H11 9737   4.306  -0.468   4.028  0.5025 -0.3858  0.2060
  325bbb    H12 9738   4.370  -0.441   3.860  1.4651 -1.1746  1.4334
  325bbb     C7 9739   4.398  -0.008   3.752  0.1502  0.0261 -0.2748
  325bbb    H13 9740   4.422  -0.080   3.673  1.1697  0.1348 -0.0736
  325bbb    H14 9741   4.473  -0.012   3.832 -0.2425  0.1450  0.1058
  325bbb     C8 9742   4.294  -0.635   3.890  0.0024 -0.1558 -0.0472
  325bbb    H15 9743   4.393  -0.675   3.913  0.2853  0.0153 -0.9109
  325bbb    H16 9744   4.217  -0.690   3.944  1.6664 -1.5809  0.9893
  325bbb     C9 9745   3.762  -0.204   3.923 -0.6660  0.6780 -0.6687
  325bbb    H17 9746   3.769  -0.104   3.969  0.6174  0.2053  0.2446
  325bbb    H18 9747   3.686  -0.266   3.973  0.7587  0.7362  1.7656
  325bbb     O1 9748   4.393   0.114   3.690 -0.0838 -0.5878  0.7271
  325bbb    H19 9749   4.166  -0.251   4.003 -1.8671  0.3570  0.3644
  326bbb     N1 9750   4.170   0.229   2.986 -0.0802  0.7507  0.7279
  326bbb     C1 9751   4.111   0.128   2.886 -0.3743  0.2311 -0.3680
  326bbb     H1 9752   4.035   0.075   2.944  1.6847  0.4702  2.7764
  326bbb     H2 9753   4.190   0.055   2.868 -0.0860  0.8071 -1.5625
  326bbb     C2 9754   4.285   0.320   2.928  0.3985  0.3817 -0.8076
  326bbb     H3 9755   4.327   0.380   3.008  0.0717  1.3016 -1.3050
  326bbb     H4 9756   4.236   0.393   2.864  1.0441  0.9813 -0.6258
  326bbb     C3 9757   4.056   0.326   3.029 -0.3071  0.8169  0.1760
  326bbb     H5 9758   3.955   0.284   3.021  0.1709  0.0407 -2.8568
  326bbb     H6 9759   4.071   0.414   2.967  0.9516  1.2692  1.0716
  326bbb     C4 9760   4.077   0.366   3.179  0.4157  0.3447 -0.1978
  326bbb     H7 9761   4.115   0.282   3.238 -0.3812  0.2867  0.2428
  326bbb     H8 9762   3.975   0.393   3.208  0.4062  1.2049 -0.9797
  326bbb     C5 9763   4.056   0.189   2.758 -0.1263 -0.3669 -0.4089
  326bbb     H9 9764   4.112   0.273   2.716  2.8709 -1.5402  0.9539
  326bbb    H10 9765   3.959   0.237   2.779  1.1514  1.5174  1.6496
  326bbb     C6 9766   4.413   0.262   2.856 -0.3467  0.0929  0.2637
  326bbb    H11 9767   4.491   0.336   2.834 -0.4544 -0.1278 -0.9527
  326bbb    H12 9768   4.382   0.225   2.757 -1.3239  0.1826  0.5234
  326bbb     C7 9769   4.157   0.490   3.212 -0.5807 -0.0586  0.0623
  326bbb    H13 9770   4.134   0.546   3.303  2.2316  1.1937  0.1053
  326bbb    H14 9771   4.140   0.561   3.130  0.8370  0.5625  0.2893
  326bbb     C8 9772   4.482   0.146   2.916  0.1667 -0.0273  0.0358
  326bbb    H15 9773   4.583   0.136   2.875  0.8053  4.1570  0.1452
  326bbb    H16 9774   4.497   0.154   3.025 -1.0348 -3.8303  0.6388
  326bbb     C9 9775   4.026   0.085   2.649  0.2396  0.2347  0.2056
  326bbb    H17 9776   3.990   0.133   2.557  2.5709 -0.5169 -1.2009
  326bbb    H18 9777   3.951   0.017   2.690  2.4593 -2.5796 -0.0295
  326bbb     O1 9778   4.294   0.462   3.200  0.0765  0.4415 -0.0507
  326bbb    H19 9779   4.211   0.175   3.064  1.0624  0.2068 -0.2170
  327bbb     N1 9780   5.252   2.728   2.497 -0.0577  0.9402 -0.1477
  327bbb     C1 9781   5.245   2.623   2.390 -0.0669  0.4357 -0.0108
  327bbb     H1 9782   5.140   2.599   2.375  0.1154 -0.2962 -0.1419
  327bbb     H2 9783   5.287   2.536   2.441 -0.8697 -0.2863 -0.5586
  327bbb     C2 9784   5.192   2.858   2.453  0.2483 -0.5186  0.4797
  327bbb     H3 9785   5.091   2.836   2.419  0.1000  0.6481  0.1401
  327bbb     H4 9786   5.241   2.889   2.360 -0.0999  0.2367  0.5486
  327bbb     C3 9787   5.174   2.678   2.621 -0.2898 -0.9736  0.0074
  327bbb     H5 9788   5.094   2.617   2.579  0.5396 -1.7262 -0.5242
  327bbb     H6 9789   5.139   2.770   2.668 -0.2427 -0.6265 -0.6172
  327bbb     C4 9790   5.263   2.595   2.714 -0.6001 -0.0839 -0.5490
  327bbb     H7 9791   5.284   2.503   2.657  2.3845  0.9251 -1.2472
  327bbb     H8 9792   5.195   2.564   2.794 -1.7958 -2.8921 -2.4565
  327bbb     C5 9793   5.313   2.636   2.252  0.1062  0.7636 -0.1053
  327bbb     H9 9794   5.400   2.570   2.249  0.1703  0.7271  1.5646
  327bbb    H10 9795   5.351   2.738   2.234 -0.8223  1.2126  0.4120
  327bbb     C6 9796   5.194   2.977   2.555 -0.3096  0.2269  0.2268
  327bbb    H11 9797   5.133   2.958   2.643  0.5368  1.8775  1.2206
  327bbb    H12 9798   5.153   3.061   2.499  1.7024 -0.1107 -1.9482
  327bbb     C7 9799   5.404   2.657   2.757 -0.3079  0.4470 -0.0329
  327bbb    H13 9800   5.455   2.585   2.822  3.2028  3.3326  0.7386
  327bbb    H14 9801   5.393   2.757   2.801 -1.8742  0.7813 -1.0851
  327bbb     C8 9802   5.336   3.012   2.606 -0.1061  0.8647 -0.3840
  327bbb    H15 9803   5.343   3.083   2.689  0.9707 -0.7082  0.9503
  327bbb    H16 9804   5.367   2.922   2.660 -1.3772  1.0970  0.7822
  327bbb     C9 9805   5.220   2.596   2.132 -0.4674  0.1868  0.2097
  327bbb    H17 9806   5.208   2.488   2.117  4.1807 -0.5654  0.5000
  327bbb    H18 9807   5.281   2.630   2.047  0.5816 -2.4371 -0.1866
  327bbb     O1 9808   5.489   2.666   2.639  0.5936 -0.4228  0.3922
  327bbb    H19 9809   5.349   2.744   2.525  0.2281  0.2974 -0.7416
  328bbb     N1 9810   6.175   1.983   2.220  0.3017  0.4322 -0.3874
  328bbb     C1 9811   6.127   2.128   2.176 -0.6210  0.2140  0.4680
  328bbb     H1 9812   6.180   2.140   2.082  1.5897 -0.2409  1.5823
  328bbb     H2 9813   6.186   2.200   2.232  0.5055 -0.4276  0.1424
  328bbb     C2 9814   6.325   1.986   2.226  0.0891  0.3119  0.1654
  328bbb     H3 9815   6.340   2.077   2.283  1.9574  0.4670 -0.5156
  328bbb     H4 9816   6.368   1.990   2.126  2.3765 -0.1669  1.0646
  328bbb     C3 9817   6.123   1.953   2.360  0.2561 -0.0430 -0.4648
  328bbb     H5 9818   6.107   2.047   2.414 -0.4178  1.0931 -2.5279
  328bbb     H6 9819   6.193   1.889   2.413 -0.3209 -1.0744 -0.9165
  328bbb     C4 9820   5.992   1.871   2.365  0.0765 -0.2204  0.4842
  328bbb     H7 9821   6.017   1.766   2.350 -0.1230 -0.2667  0.4719
  328bbb     H8 9822   5.926   1.907   2.285 -0.3490  3.2363  2.1837
  328bbb     C5 9823   5.975   2.149   2.166  0.2939  0.8258  0.2242
  328bbb     H9 9824   5.932   2.133   2.265 -2.8018 -0.6749 -1.2389
  328bbb    H10 9825   5.928   2.073   2.103  1.5250 -0.2114  0.5052
  328bbb     C6 9826   6.394   1.863   2.297 -0.3981 -0.1382 -0.4810
  328bbb    H11 9827   6.353   1.768   2.261 -0.9491 -0.2735  0.4748
  328bbb    H12 9828   6.371   1.863   2.405  3.7524  4.1074  0.7627
  328bbb     C7 9829   5.915   1.875   2.500 -0.7114  0.0113  0.0415
  328bbb    H13 9830   5.972   1.820   2.577 -2.0430 -2.6575 -0.7758
  328bbb    H14 9831   5.816   1.830   2.485 -1.0922  1.3002 -1.4585
  328bbb     C8 9832   6.550   1.851   2.284 -0.1628  0.1792 -0.0676
  328bbb    H15 9833   6.604   1.908   2.360 -0.8631  0.6239  0.1124
  328bbb    H16 9834   6.583   1.748   2.303  0.7465  0.8206  2.1485
  328bbb     C9 9835   5.944   2.292   2.126  1.2117  0.0455  0.4824
  328bbb    H17 9836   5.946   2.363   2.209 -0.1123  0.4253  0.2107
  328bbb    H18 9837   5.839   2.286   2.095  1.2592 -1.3496  0.5307
  328bbb     O1 9838   5.896   2.010   2.550  0.1847  0.5454  0.0650
  328bbb    H19 9839   6.139   1.920   2.147  3.2225  0.0077 -1.5910
  329bbb     N1 9840   4.903   1.284   2.183 -0.7186  0.2048  0.1562
  329bbb     C1 9841   4.800   1.295   2.296 -0.1919  0.0500 -0.3457
  329bbb     H1 9842   4.813   1.388   2.353 -2.0434 -0.2573  0.6696
  329bbb     H2 9843   4.818   1.210   2.362 -0.9851 -0.8465 -1.2451
  329bbb     C2 9844   4.865   1.387   2.082  0.5391 -0.6307  0.3621
  329bbb     H3 9845   4.856   1.484   2.132  1.2334  1.1160 -2.6523
  329bbb     H4 9846   4.766   1.360   2.045  0.3886  1.9264 -1.3699
  329bbb     C3 9847   5.045   1.318   2.235  0.1209 -0.2632  0.0506
  329bbb     H5 9848   5.046   1.416   2.284 -1.7445 -1.8525  3.7002
  329bbb     H6 9849   5.115   1.322   2.152  1.3064  0.7775  1.0587
  329bbb     C4 9850   5.101   1.213   2.340  0.3403  0.2202  0.4865
  329bbb     H7 9851   5.063   1.119   2.299 -1.5838  0.6281  1.2354
  329bbb     H8 9852   5.052   1.242   2.434 -1.5766  1.7810 -0.9258
  329bbb     C5 9853   4.647   1.290   2.271  0.1981  0.0431 -0.5821
  329bbb     H9 9854   4.625   1.220   2.190  1.5076 -2.8299  1.3885
  329bbb    H10 9855   4.610   1.386   2.232 -0.5850  0.6772  1.5934
  329bbb     C6 9856   4.963   1.409   1.962 -0.1168 -0.3484 -0.3660
  329bbb    H11 9857   4.984   1.310   1.918 -0.4365  0.5354 -2.6752
  329bbb    H12 9858   5.057   1.449   2.003 -0.9761 -0.6862  2.0379
  329bbb     C7 9859   5.257   1.201   2.347 -0.9683  0.3860 -0.3430
  329bbb    H13 9860   5.308   1.181   2.252 -2.4061 -0.5584 -0.9524
  329bbb    H14 9861   5.278   1.120   2.418 -4.3450 -0.2223  0.1350
  329bbb     C8 9862   4.893   1.499   1.850 -0.6217 -0.1946  0.5368
  329bbb    H15 9863   4.965   1.556   1.791  0.2956 -1.1795  0.6739
  329bbb    H16 9864   4.845   1.432   1.777  0.1092  0.6048 -0.7075
  329bbb     C9 9865   4.566   1.252   2.392  0.0350 -0.8724 -0.7249
  329bbb    H17 9866   4.615   1.169   2.444  1.0343 -0.1052 -0.3990
  329bbb    H18 9867   4.468   1.219   2.355 -0.2912  0.1686 -0.8309
  329bbb     O1 9868   5.322   1.314   2.412 -0.0668 -0.2799  0.2076
  329bbb    H19 9869   4.914   1.191   2.141 -3.2449  0.7148 -1.8799
  330bbb     N1 9870   5.066   1.979   2.225  0.0411  0.1304 -0.3365
  330bbb     C1 9871   5.013   1.839   2.223 -0.6695 -0.0565 -0.3370
  330bbb     H1 9872   4.905   1.854   2.234 -0.6615  0.1523 -0.5316
  330bbb     H2 9873   5.039   1.782   2.312 -0.6604  0.2413 -0.1467
  330bbb     C2 9874   5.039   2.051   2.095 -0.6799 -0.4470 -0.4372
  330bbb     H3 9875   4.935   2.041   2.063 -1.0598 -0.7391  0.8128
  330bbb     H4 9876   5.102   2.005   2.018 -1.1927 -1.0436 -0.5139
  330bbb     C3 9877   5.002   2.057   2.344 -0.1402  0.4195  0.2048
  330bbb     H5 9878   4.897   2.085   2.333 -0.4067  0.4079  2.3457
  330bbb     H6 9879   5.052   2.153   2.357 -2.9252  1.9131  0.8788
  330bbb     C4 9880   5.020   1.995   2.485 -0.2457  0.2205  0.6611
  330bbb     H7 9881   4.971   1.897   2.487 -2.9770  1.3965 -1.6792
  330bbb     H8 9882   4.968   2.056   2.560  1.0274 -0.4869  2.1741
  330bbb     C5 9883   5.043   1.752   2.095  0.2742 -0.5323  0.4058
  330bbb     H9 9884   5.010   1.797   2.001  0.8781 -2.9713 -1.0753
  330bbb    H10 9885   4.990   1.656   2.106 -1.1440  0.2325  0.4448
  330bbb     C6 9886   5.091   2.189   2.107  0.2392 -0.5096  0.7601
  330bbb    H11 9887   5.195   2.202   2.142 -0.5881  1.8947  2.6238
  330bbb    H12 9888   5.031   2.241   2.183 -1.3861 -1.4724  0.1780
  330bbb     C7 9889   5.165   1.993   2.544  0.0459 -0.3307 -0.2418
  330bbb    H13 9890   5.166   1.937   2.638 -0.9072  0.1324  0.0495
  330bbb    H14 9891   5.188   2.099   2.559 -2.3618  0.2784 -0.4628
  330bbb     C8 9892   5.080   2.258   1.970  0.1139 -0.0508 -0.6763
  330bbb    H15 9893   5.128   2.356   1.976 -1.0092  0.4401  1.4432
  330bbb    H16 9894   5.122   2.201   1.886  1.1665  1.9114 -1.5383
  330bbb     C9 9895   5.192   1.728   2.084 -0.5937 -0.5052  0.0477
  330bbb    H17 9896   5.233   1.646   2.024 -0.5876 -0.4790  0.0158
  330bbb    H18 9897   5.235   1.712   2.183 -3.6341  0.2279  1.6142
  330bbb     O1 9898   5.245   1.937   2.430  0.2256 -0.3789  0.3516
  330bbb    H19 9899   5.164   1.978   2.255 -0.0620  0.2217  0.0059
  331bbb     N1 9900   5.445   0.572   2.376  0.2308  0.1318  0.6010
  331bbb     C1 9901   5.389   0.439   2.329 -0.7745 -0.0700 -0.2980
  331bbb     H1 9902   5.416   0.423   2.224  0.0192  1.1534 -0.2893
  331bbb     H2 9903   5.281   0.451   2.340 -0.5218  0.8747  1.4169
  331bbb     C2 9904   5.385   0.613   2.515  0.7909  0.1339  0.6302
  331bbb     H3 9905   5.455   0.588   2.595  1.1462 -0.4224  0.1579
  331bbb     H4 9906   5.302   0.542   2.525  0.7077  0.0710 -0.3586
  331bbb     C3 9907   5.591   0.554   2.407  0.0161  0.2650 -0.2967
  331bbb     H5 9908   5.599   0.482   2.488  1.0131 -0.7140 -1.2384
  331bbb     H6 9909   5.629   0.649   2.444  2.2563 -1.5506  2.5191
  331bbb     C4 9910   5.675   0.511   2.287 -0.3431  0.5258  0.1817
  331bbb     H7 9911   5.673   0.590   2.211  0.4104  0.7761  0.4125
  331bbb     H8 9912   5.625   0.430   2.232  1.4393 -0.8358  0.4977
  331bbb     C5 9913   5.425   0.314   2.414  0.4363  0.1513 -0.1911
  331bbb     H9 9914   5.380   0.321   2.513 -1.4426 -0.0252 -0.9930
  331bbb    H10 9915   5.530   0.287   2.429 -0.1619 -2.1163  0.2728
  331bbb     C6 9916   5.331   0.752   2.527  0.1863 -0.2668  0.3175
  331bbb    H11 9917   5.413   0.824   2.517  0.5575 -0.5233  1.3855
  331bbb    H12 9918   5.287   0.777   2.625  1.1481  0.1787  0.6520
  331bbb     C7 9919   5.818   0.469   2.315 -0.2402  0.0219 -0.3590
  331bbb    H13 9920   5.853   0.408   2.232 -1.3620  0.4011 -1.1328
  331bbb    H14 9921   5.807   0.397   2.397  0.1224 -0.2596 -0.5566
  331bbb     C8 9922   5.229   0.778   2.407 -0.4631  0.6336 -0.2149
  331bbb    H15 9923   5.171   0.867   2.434 -1.4166  0.0424 -0.2588
  331bbb    H16 9924   5.280   0.795   2.311 -0.5091  1.3587 -0.1190
  331bbb     C9 9925   5.364   0.192   2.350  0.5450 -0.1683  0.4329
  331bbb    H17 9926   5.392   0.173   2.245 -1.5958 -1.3828  0.0200
  331bbb    H18 9927   5.255   0.206   2.351  0.3399 -1.6220  0.9350
  331bbb     O1 9928   5.898   0.583   2.338  0.6726  0.1092  0.4227
  331bbb    H19 9929   5.425   0.651   2.312  0.2920 -0.9029 -0.7384
  332bbb     N1 9930   6.723   0.837   2.239  0.0524  0.3648 -0.8425
  332bbb     C1 9931   6.823   0.757   2.304  0.3321  0.5685  0.0686
  332bbb     H1 9932   6.851   0.681   2.231  0.2064  0.1473  0.4505
  332bbb     H2 9933   6.779   0.707   2.391 -0.2981  0.6736 -0.1940
  332bbb     C2 9934   6.658   0.743   2.137 -0.1101  0.1319 -0.3519
  332bbb     H3 9935   6.559   0.786   2.119 -0.0421  0.4774  0.0985
  332bbb     H4 9936   6.651   0.639   2.170  1.9558  0.0878  0.1074
  332bbb     C3 9937   6.617   0.872   2.344 -0.1368  0.1574  0.1799
  332bbb     H5 9938   6.679   0.926   2.416  1.1587  0.1046 -0.8557
  332bbb     H6 9939   6.577   0.776   2.379 -0.6276  0.4965  0.5683
  332bbb     C4 9940   6.509   0.967   2.287  0.5064  0.3140  0.5510
  332bbb     H7 9941   6.441   0.902   2.230 -0.8728  1.7524  0.4528
  332bbb     H8 9942   6.557   1.027   2.208 -0.3994 -0.3677 -0.5624
  332bbb     C5 9943   6.946   0.841   2.358  0.2575  0.0942 -0.5379
  332bbb     H9 9944   6.999   0.791   2.440 -2.2369  1.4781  2.1079
  332bbb    H10 9945   6.910   0.930   2.410  1.9389  0.3485  0.2522
  332bbb     C6 9946   6.738   0.750   2.002  0.5524 -0.3330  0.8744
  332bbb    H11 9947   6.698   0.680   1.928 -2.6365  0.4439  1.7056
  332bbb    H12 9948   6.846   0.736   2.016  0.8618  1.5270  0.5574
  332bbb     C7 9949   6.444   1.066   2.387 -0.2697  0.5677 -0.3776
  332bbb    H13 9950   6.349   1.099   2.344  0.8530  1.5746 -2.2180
  332bbb    H14 9951   6.513   1.150   2.402  0.6372 -0.5200  2.1898
  332bbb     C8 9952   6.709   0.884   1.930  0.4991 -0.5542  0.1578
  332bbb    H15 9953   6.755   0.970   1.980  0.2202  0.3146 -1.0673
  332bbb    H16 9954   6.737   0.889   1.824  0.6245  0.9422  0.2500
  332bbb     C9 9955   7.047   0.869   2.251 -0.4909  0.1881  0.2570
  332bbb    H17 9956   7.105   0.777   2.236 -0.3896 -0.1552  2.4524
  332bbb    H18 9957   7.114   0.943   2.297 -1.0305  0.2908  0.9041
  332bbb     O1 9958   6.418   1.008   2.516  0.3140 -1.0608 -0.5033
  332bbb    H19 9959   6.759   0.919   2.187 -1.0385  1.1770 -0.3551
  333bbb     N1 9960   5.077  -0.124   2.728 -0.2880  1.0391 -0.1750
  333bbb     C1 9961   5.006  -0.177   2.850 -0.4761 -0.5150 -0.1375
  333bbb     H1 9962   4.942  -0.258   2.814 -2.0396  0.3368  0.6227
  333bbb     H2 9963   4.938  -0.103   2.894 -1.7824 -2.2831  0.9401
  333bbb     C2 9964   4.984  -0.044   2.638  1.1963 -0.0379  0.3339
  333bbb     H3 9965   4.963   0.046   2.696 -0.5626  1.2623 -2.1403
  333bbb     H4 9966   4.896  -0.101   2.610  0.4801  0.9109  0.5925
  333bbb     C3 9967   5.200  -0.043   2.767  0.4141 -0.1687  0.1172
  333bbb     H5 9968   5.238  -0.002   2.673  0.5192 -1.0200 -0.2159
  333bbb     H6 9969   5.281  -0.108   2.800  1.1315  0.7087  0.1319
  333bbb     C4 9970   5.183   0.076   2.871 -0.4144 -0.8895 -0.0215
  333bbb     H7 9971   5.122   0.045   2.957 -1.8183  0.6371 -0.4199
  333bbb     H8 9972   5.121   0.153   2.824 -1.4932 -0.5036  1.8971
  333bbb     C5 9973   5.090  -0.242   2.963  0.3542 -0.5508 -0.0660
  333bbb     H9 9974   5.018  -0.256   3.045 -0.3180  0.5068 -0.4505
  333bbb    H10 9975   5.168  -0.184   3.014 -1.0462  0.6893  0.7450
  333bbb     C6 9976   5.041  -0.002   2.505 -0.1224  0.3591  0.6815
  333bbb    H11 9977   5.088  -0.085   2.452 -0.5246 -0.0797  1.0114
  333bbb    H12 9978   5.123   0.070   2.519  1.1532 -1.0319  0.5240
  333bbb     C7 9979   5.328   0.125   2.920 -0.0997  0.2226  0.5628
  333bbb    H13 9980   5.324   0.212   2.987 -3.8841  1.0359 -0.4975
  333bbb    H14 9981   5.389   0.158   2.835  0.3840 -1.0928  0.3787
  333bbb     C8 9982   4.936   0.056   2.406 -0.9171 -0.3271  0.0036
  333bbb    H15 9983   4.841   0.001   2.400 -0.8957 -0.3319 -0.3030
  333bbb    H16 9984   4.921   0.160   2.437  4.0133  0.6053  0.1198
  333bbb     C9 9985   5.155  -0.379   2.933  0.2958 -0.0763  0.3769
  333bbb    H17 9986   5.081  -0.452   2.899 -0.0097 -0.5415  1.9727
  333bbb    H18 9987   5.201  -0.411   3.027 -0.0264  0.8923  0.8803
  333bbb     O1 9988   5.408   0.024   2.981 -0.5292  0.3010 -0.5518
  333bbb    H19 9989   5.110  -0.203   2.673 -0.0197  1.2066 -0.2573
  334bbb     N1 9990   5.961   0.205   3.778  0.1277 -0.0216  0.3442
  334bbb     C1 9991   6.079   0.271   3.708  0.0584  0.2090 -0.1664
  334bbb     H1 9992   6.069   0.379   3.723  0.4635  0.2733 -0.3336
  334bbb     H2 9993   6.063   0.241   3.604  1.0249 -2.5892  0.4132
  334bbb     C2 9994   5.837   0.299   3.770  0.1748 -0.1983  0.2148
  334bbb     H3 9995   5.749   0.239   3.793  0.6538 -1.6400 -1.4906
  334bbb     H4 9996   5.835   0.328   3.665 -0.1237  0.1293  0.3085
  334bbb     C3 9997   5.939   0.068   3.717 -0.2738  0.7715  0.1589
  334bbb     H5 9998   6.038   0.021   3.725 -0.6766 -0.1393 -0.0276
  334bbb     H6 9999   5.909   0.081   3.613  0.6264  0.3908 -0.1591
  334bbb     C410000   5.845  -0.033   3.787 -1.1546  0.3612  0.3074
  334bbb     H710001   5.739  -0.006   3.782 -1.0147  0.7774 -0.7094
  334bbb     H810002   5.885  -0.027   3.889  1.2242  4.0214 -0.6299
  334bbb     C510003   6.221   0.234   3.753  0.7847 -0.0424  0.5394
  334bbb     H910004   6.300   0.277   3.691  1.0164  0.6612  1.3050
  334bbb    H1010005   6.237   0.126   3.742  0.4954 -0.1500  1.0985
  334bbb     C610006   5.837   0.429   3.858 -0.4575  0.2735 -0.1357
  334bbb    H1110007   5.759   0.499   3.828 -0.2037  0.5726 -0.0981
  334bbb    H1210008   5.930   0.483   3.838  0.1574  0.4650  2.7524
  334bbb     C710009   5.862  -0.170   3.724  0.8125 -0.4009  0.2653
  334bbb    H1310010   5.809  -0.241   3.790  0.0341 -0.2625 -0.1948
  334bbb    H1410011   5.967  -0.201   3.723  0.6540 -0.9532  0.3182
  334bbb     C810012   5.821   0.387   4.001 -0.2063  0.4581  0.1426
  334bbb    H1510013   5.837   0.470   4.071 -1.3074 -0.0971  1.0837
  334bbb    H1610014   5.722   0.348   4.025 -1.0538  1.4542 -1.5447
  334bbb     C910015   6.249   0.271   3.901 -0.1761  0.1325  0.1110
  334bbb    H1710016   6.356   0.294   3.913 -0.6218  1.2658  2.3690
  334bbb    H1810017   6.234   0.193   3.977 -0.4749  0.2281  0.1505
  334bbb     O110018   5.809  -0.172   3.581 -0.0905  0.2636 -0.1152
  334bbb    H1910019   5.984   0.209   3.879 -0.6199  0.9990  0.4861
  335bbb     N110020   1.594   2.133   3.761  0.2508  0.4708 -0.5064
  335bbb     C110021   1.486   2.175   3.864  0.0395 -0.5112  0.0577
  335bbb     H110022   1.472   2.277   3.828  1.2674 -0.3951 -0.1421
  335bbb     H210023   1.541   2.177   3.958 -0.6607 -0.0118  0.4589
  335bbb     C210024   1.530   2.117   3.618  0.3778 -0.2317  0.5033
  335bbb     H310025   1.602   2.164   3.552  0.8263 -3.1750 -1.3096
  335bbb     H410026   1.437   2.174   3.618  0.9021  0.6401 -0.4474
  335bbb     C310027   1.702   2.235   3.754  0.2117  0.3379  0.0699
  335bbb     H510028   1.668   2.325   3.703  0.0300  0.2130 -0.0270
  335bbb     H610029   1.775   2.192   3.685  0.8791  1.2922  0.1450
  335bbb     C410030   1.774   2.269   3.883  0.1075 -0.5729 -1.0617
  335bbb     H710031   1.811   2.180   3.936  1.1805 -0.8855 -2.3126
  335bbb     H810032   1.700   2.311   3.954 -1.2540  1.2830 -3.4365
  335bbb     C510033   1.350   2.100   3.882  0.1014 -0.6630  0.0077
  335bbb     H910034   1.294   2.093   3.788  1.5804  1.9918 -1.1977
  335bbb    H1010035   1.279   2.161   3.940  0.5935 -0.0818  0.0097
  335bbb     C610036   1.517   1.980   3.559 -0.2348  0.6502 -0.2018
  335bbb    H1110037   1.461   1.988   3.465 -1.3014 -0.5559  0.3151
  335bbb    H1210038   1.450   1.928   3.628  1.4032 -1.7508 -0.2911
  335bbb     C710039   1.892   2.363   3.878  0.2823 -0.3621  0.6562
  335bbb    H1310040   1.950   2.372   3.971 -0.2678  0.8415  0.8998
  335bbb    H1410041   1.851   2.460   3.849  0.3029 -0.5750 -0.1049
  335bbb     C810042   1.653   1.913   3.535  0.8536 -0.5292 -0.3831
  335bbb    H1510043   1.709   1.888   3.626 -4.3273 -1.7482  2.9088
  335bbb    H1610044   1.629   1.814   3.495 -1.6104  0.6578 -2.1222
  335bbb     C910045   1.344   1.961   3.952 -0.4577  0.4765 -0.3157
  335bbb    H1710046   1.407   1.882   3.908  1.4869  0.8833  1.5621
  335bbb    H1810047   1.245   1.913   3.953  0.5198 -1.7035 -0.4360
  335bbb     O110048   1.979   2.315   3.765  0.2703 -0.1790  0.1402
  335bbb    H1910049   1.636   2.043   3.789  2.2889  1.2492 -0.8245
  336bbb     N110050   2.291   1.539   4.076 -0.4819 -0.0135  0.2881
  336bbb     C110051   2.176   1.631   4.124  0.1097  0.7392  0.0632
  336bbb     H110052   2.225   1.725   4.151 -0.6844  1.3539 -0.5818
  336bbb     H210053   2.145   1.585   4.218 -0.8843 -2.2135 -1.5804
  336bbb     C210054   2.247   1.393   4.058  0.6258  0.1501 -0.0764
  336bbb     H310055   2.238   1.388   3.949  1.3451  0.1410 -0.1372
  336bbb     H410056   2.147   1.390   4.102  0.0792  0.5196 -1.2279
  336bbb     C310057   2.382   1.598   3.964  0.5042  0.5242  0.0969
  336bbb     H510058   2.319   1.626   3.879 -0.4291  1.4943  1.0674
  336bbb     H610059   2.445   1.517   3.928  0.7232  0.9536 -0.4943
  336bbb     C410060   2.463   1.717   4.009 -0.2393 -0.0304  0.1041
  336bbb     H710061   2.517   1.686   4.100 -1.3382 -0.1022  0.7501
  336bbb     H810062   2.396   1.798   4.041 -0.1160  0.1947 -0.2055
  336bbb     C510063   2.054   1.653   4.036 -0.1420 -0.3412  0.9213
  336bbb     H910064   2.089   1.637   3.933 -0.7464  3.2770  0.0302
  336bbb    H1010065   2.030   1.759   4.050  0.2810  0.2444 -2.2210
  336bbb     C610066   2.351   1.290   4.105 -0.1233  0.1262  0.8134
  336bbb    H1110067   2.393   1.309   4.205 -0.1946  0.6372  0.7459
  336bbb    H1210068   2.439   1.298   4.042  0.3103 -0.8376  1.2734
  336bbb     C710069   2.570   1.766   3.908 -0.4857 -0.3419 -0.9177
  336bbb    H1310070   2.640   1.686   3.882  0.5334  0.7310 -1.5675
  336bbb    H1410071   2.620   1.853   3.952  0.9471  1.0106 -4.8320
  336bbb     C810072   2.298   1.151   4.105  0.2122 -0.2794 -0.2125
  336bbb    H1510073   2.370   1.083   4.153  0.2825 -0.1458 -0.1299
  336bbb    H1610074   2.202   1.142   4.156  0.1941 -0.2393 -0.2400
  336bbb     C910075   1.937   1.566   4.058 -0.1715 -0.8919 -0.1065
  336bbb    H1710076   1.854   1.618   4.008  1.6895  1.7503 -0.6866
  336bbb    H1810077   1.925   1.573   4.166  0.5646 -0.2956 -0.0549
  336bbb     O110078   2.511   1.804   3.782 -0.5370 -0.0381 -0.1152
  336bbb    H1910079   2.347   1.529   4.163  0.9314 -1.0495 -0.7001
  337bbb     N110080   1.915   3.563   3.937  0.2737 -0.1836 -0.9580
  337bbb     C110081   1.958   3.709   3.914  0.4892 -0.3133 -0.2632
  337bbb     H110082   1.874   3.740   3.851 -0.5865 -0.0092  1.2571
  337bbb     H210083   2.050   3.702   3.855  0.1476  0.0017 -0.8396
  337bbb     C210084   1.918   3.484   3.810  0.3561 -0.0974  0.4852
  337bbb     H310085   1.842   3.529   3.746  1.1866  0.2009 -0.3023
  337bbb     H410086   1.892   3.379   3.829  3.3895 -0.9093  0.7167
  337bbb     C310087   2.008   3.485   4.034 -0.2786  0.2353 -0.4279
  337bbb     H510088   2.051   3.546   4.113  1.0574 -1.5023  0.2274
  337bbb     H610089   2.090   3.447   3.974 -0.5979  1.2167 -1.5286
  337bbb     C410090   1.945   3.369   4.115 -0.0292  0.5363 -0.9364
  337bbb     H710091   1.933   3.280   4.052  2.9159 -1.5623  1.2137
  337bbb     H810092   1.845   3.387   4.156 -1.2820 -0.6561 -3.2742
  337bbb     C510093   1.971   3.799   4.044 -0.9577 -0.1123  0.7153
  337bbb     H910094   1.982   3.903   4.010  1.5101  0.2665  2.3841
  337bbb    H1010095   2.065   3.776   4.096 -1.3914  1.7686  2.4772
  337bbb     C610096   2.047   3.474   3.725 -0.6254 -0.0740 -0.2260
  337bbb    H1110097   2.117   3.413   3.783  0.8822  0.9636 -0.9074
  337bbb    H1210098   2.097   3.571   3.711  0.4860 -0.8430 -1.8043
  337bbb     C710099   2.044   3.308   4.213  0.2653 -0.6534  0.2428
  337bbb    H1310100   2.003   3.217   4.260  1.6614 -0.6167  1.6469
  337bbb    H1410101   2.060   3.378   4.296  2.1602  0.1279 -0.7163
  337bbb     C810102   2.019   3.409   3.592  0.2839 -0.7992  0.1588
  337bbb    H1510103   1.958   3.320   3.611 -0.0571 -0.4875  0.5606
  337bbb    H1610104   2.100   3.373   3.528  0.4533 -0.2697  0.0696
  337bbb     C910105   1.862   3.793   4.156 -0.7681  0.0747 -0.4006
  337bbb    H1710106   1.762   3.798   4.111 -0.3669  0.1416 -1.3033
  337bbb    H1810107   1.868   3.880   4.222  0.4938  0.1909 -0.6399
  337bbb     O110108   2.174   3.285   4.148 -0.1362  0.2336  0.1850
  337bbb    H1910109   1.815   3.562   3.960  0.6460  0.3201  0.8379
  338bbb     N110110   2.794   3.470   4.751 -0.2410 -0.0954 -0.1559
  338bbb     C110111   2.933   3.464   4.823 -0.4472  0.5153 -0.2439
  338bbb     H110112   2.974   3.562   4.850 -1.5686  0.0934  3.6115
  338bbb     H210113   3.010   3.409   4.769 -1.9510 -3.2535  1.1554
  338bbb     C210114   2.700   3.564   4.817 -0.1138  0.1631  0.0189
  338bbb     H310115   2.727   3.659   4.772 -3.0751  2.4842  2.6842
  338bbb     H410116   2.706   3.561   4.926 -1.9016 -0.4684  0.1474
  338bbb     C310117   2.816   3.531   4.615  0.2276  0.1111 -0.5893
  338bbb     H510118   2.857   3.629   4.643 -2.8494  1.3728 -0.1735
  338bbb     H610119   2.720   3.539   4.563 -0.7089 -2.1117  0.6877
  338bbb     C410120   2.910   3.467   4.513  0.2023  0.0977  0.0818
  338bbb     H710121   3.013   3.462   4.548  0.2074  1.0702  0.2268
  338bbb     H810122   2.914   3.537   4.428  0.2909 -2.9702 -2.6455
  338bbb     C510123   2.925   3.391   4.954  0.6003 -0.0009 -0.7160
  338bbb     H910124   2.905   3.284   4.940 -1.5949  0.1002  1.0186
  338bbb    H1010125   2.839   3.427   5.013 -0.3010  1.5606 -2.8375
  338bbb     C610126   2.554   3.530   4.781  0.2340 -0.4047  0.4158
  338bbb    H1110127   2.519   3.431   4.814 -0.3531 -0.6703 -0.9237
  338bbb    H1210128   2.527   3.543   4.675 -2.2698 -0.9568  0.9101
  338bbb     C710129   2.868   3.324   4.460 -0.1835 -0.5056 -0.2081
  338bbb    H1310130   2.874   3.251   4.542  0.7249  0.4917  0.6561
  338bbb    H1410131   2.942   3.300   4.383 -1.2400 -1.2524 -1.0240
  338bbb     C810132   2.462   3.632   4.849 -0.1144 -0.9652 -0.0366
  338bbb    H1510133   2.480   3.613   4.955 -0.1154  1.0630  0.3755
  338bbb    H1610134   2.356   3.610   4.829 -1.2825  1.9248  2.1883
  338bbb     C910135   3.051   3.411   5.050 -0.4067 -0.0877  0.1826
  338bbb    H1710136   3.142   3.417   4.989  1.0572  2.2902  2.3458
  338bbb    H1810137   3.063   3.329   5.122 -0.9892  1.0207  1.6132
  338bbb     O110138   2.738   3.335   4.402 -0.0211 -0.9980  0.4098
  338bbb    H1910139   2.751   3.377   4.741  2.4422 -1.3399 -0.8988
  339bbb     N110140   1.923   1.676   5.198 -0.9523  0.1803 -0.3230
  339bbb     C110141   1.996   1.543   5.196  0.5916  0.5366 -0.1747
  339bbb     H110142   1.927   1.464   5.226  2.0887 -2.0147 -2.9713
  339bbb     H210143   2.081   1.549   5.264  0.8333 -0.4220 -0.3750
  339bbb     C210144   1.889   1.722   5.340 -0.1911 -0.2828  0.0506
  339bbb     H310145   1.903   1.830   5.340  0.0451 -0.2893 -1.6529
  339bbb     H410146   1.968   1.685   5.405  0.6349  1.6432  0.2281
  339bbb     C310147   2.016   1.784   5.131 -0.2876  0.3175 -0.9643
  339bbb     H510148   1.955   1.875   5.132 -0.5149  0.1660 -0.8535
  339bbb     H610149   2.038   1.764   5.026  2.0275 -1.0385 -0.2923
  339bbb     C410150   2.154   1.817   5.195 -0.7186  0.1772 -0.3675
  339bbb     H710151   2.211   1.724   5.198 -0.8058  0.1262 -0.2626
  339bbb     H810152   2.142   1.863   5.294 -0.0440  0.5258 -0.4416
  339bbb     C510153   2.056   1.498   5.056  0.0436  0.4357  0.2538
  339bbb     H910154   2.111   1.577   5.003  1.2400 -0.6048 -0.1151
  339bbb    H1010155   1.981   1.452   4.991 -0.3583  1.7936 -0.2681
  339bbb     C610156   1.746   1.677   5.385  0.2696 -0.0106  0.1198
  339bbb    H1110157   1.746   1.705   5.491 -0.1370  1.8903 -0.3538
  339bbb    H1210158   1.740   1.569   5.368  0.6228  0.0386 -0.3621
  339bbb     C710159   2.235   1.916   5.112  0.0970  0.1516 -0.1351
  339bbb    H1310160   2.180   2.011   5.115  1.7684  1.1501  0.6375
  339bbb    H1410161   2.234   1.893   5.005 -1.3832  1.0149 -0.3353
  339bbb     C810162   1.624   1.756   5.329  0.1573 -0.6006 -0.0352
  339bbb    H1510163   1.526   1.716   5.359 -0.2021 -0.9959 -1.6205
  339bbb    H1610164   1.634   1.862   5.357  1.7754 -0.5755 -0.5855
  339bbb     C910165   2.155   1.387   5.074 -0.2193  0.9565  0.5166
  339bbb    H1710166   2.192   1.358   4.975 -1.6787  2.5844 -0.5722
  339bbb    H1810167   2.106   1.297   5.113  0.4494  0.7936  0.9950
  339bbb     O110168   2.373   1.933   5.161  0.1973  0.2771 -0.0809
  339bbb    H1910169   1.832   1.668   5.150 -0.7385 -0.2034 -0.6614
  340bbb     N110170   2.144   2.007   6.049  0.1997  0.1235 -0.1560
  340bbb     C110171   2.092   2.075   5.925  0.3410  0.1218  0.4987
  340bbb     H110172   2.064   1.991   5.862 -0.7766  0.2431  0.8075
  340bbb     H210173   2.171   2.134   5.879  0.8008  1.4986  2.8367
  340bbb     C210174   2.049   1.891   6.083 -0.5707 -0.1630 -0.1676
  340bbb     H310175   2.062   1.824   5.999 -2.8461 -0.9905  0.0864
  340bbb     H410176   1.944   1.921   6.074 -0.5775  0.0703  0.5868
  340bbb     C310177   2.277   1.955   6.012 -0.8570 -0.3334 -0.4278
  340bbb     H510178   2.277   1.906   5.915  1.3243 -1.6872  0.1724
  340bbb     H610179   2.294   1.872   6.081 -1.3310 -1.3895 -1.5519
  340bbb     C410180   2.399   2.050   6.023  0.1768 -0.2800 -0.2450
  340bbb     H710181   2.420   2.084   6.125  3.1145 -4.1589  0.6438
  340bbb     H810182   2.374   2.141   5.967 -1.3830 -0.0093  0.8062
  340bbb     C510183   1.966   2.149   5.952  0.8035 -0.1964  0.8735
  340bbb     H910184   1.981   2.213   6.040  1.7662  0.0148  0.5687
  340bbb    H1010185   1.887   2.078   5.977  0.7847 -1.0953 -1.4965
  340bbb     C610186   2.077   1.813   6.212 -0.5910  0.4120 -0.2565
  340bbb    H1110187   2.069   1.885   6.293 -2.2858  0.9234 -0.8212
  340bbb    H1210188   2.179   1.775   6.216 -0.1626  1.6157  0.5991
  340bbb     C710189   2.535   2.002   5.972  0.1753  0.3365  0.1305
  340bbb    H1310190   2.572   1.915   6.027 -0.3906  0.8908  1.4391
  340bbb    H1410191   2.610   2.079   5.991 -1.9126  2.4828  0.2022
  340bbb     C810192   1.968   1.705   6.241 -0.0615  0.0502  0.3825
  340bbb    H1510193   1.996   1.641   6.325  2.0317  1.1409  0.5804
  340bbb    H1610194   1.878   1.766   6.257  0.4868  1.1684 -0.5279
  340bbb     C910195   1.936   2.245   5.836 -0.3931 -0.0716  0.0371
  340bbb    H1710196   2.028   2.300   5.815 -0.5893  0.7557  1.1850
  340bbb    H1810197   1.855   2.309   5.874 -0.2867 -0.8210  1.6172
  340bbb     O110198   2.521   1.984   5.824  0.2783  0.0819 -0.7605
  340bbb    H1910199   2.145   2.075   6.127 -0.6307  0.5587 -0.5127
  341bbb     N110200   3.759   1.155   5.749  0.6313 -0.3791 -0.3467
  341bbb     C110201   3.651   1.136   5.862 -0.1699  0.5667  0.6953
  341bbb     H110202   3.556   1.099   5.823  1.5588 -2.2036 -1.2197
  341bbb     H210203   3.640   1.237   5.903 -0.4197  0.2616  1.4117
  341bbb     C210204   3.792   1.039   5.662 -0.2463 -0.0877 -0.1493
  341bbb     H310205   3.874   0.984   5.707 -0.1478  1.5274  1.7810
  341bbb     H410206   3.845   1.079   5.575 -1.1427 -2.8735 -2.1316
  341bbb     C310207   3.722   1.282   5.668  0.5931 -0.0503 -0.4069
  341bbb     H510208   3.671   1.349   5.738  0.3947 -1.5655  0.9798
  341bbb     H610209   3.651   1.247   5.593 -0.3664  3.1198 -1.1095
  341bbb     C410210   3.844   1.355   5.601  0.7777  0.2496  0.0078
  341bbb     H710211   3.917   1.293   5.548  0.6129  0.7524 -0.8108
  341bbb     H810212   3.897   1.406   5.683  0.7680  1.0122 -0.4543
  341bbb     C510213   3.698   1.042   5.972 -0.2051  0.4667  0.0911
  341bbb     H910214   3.790   1.088   6.010 -0.0344  1.7116 -1.7017
  341bbb    H1010215   3.729   0.948   5.924 -1.9173 -0.4088  0.6072
  341bbb     C610216   3.683   0.940   5.627 -0.2170 -0.1157  0.2774
  341bbb    H1110217   3.631   0.902   5.715  0.1406 -1.5659 -0.1018
  341bbb    H1210218   3.729   0.857   5.571 -1.3849  0.2965 -1.3589
  341bbb     C710219   3.805   1.467   5.493  0.0009  0.0071 -0.1009
  341bbb    H1310220   3.731   1.415   5.430  1.6149 -1.1689 -1.0915
  341bbb    H1410221   3.883   1.492   5.421 -0.4544  2.8747  0.2955
  341bbb     C810222   3.574   1.001   5.528 -0.5340 -0.6301  0.5805
  341bbb    H1510223   3.629   1.054   5.449 -1.1764 -2.3200 -1.0861
  341bbb    H1610224   3.524   0.923   5.469  1.4894 -0.9563 -0.8217
  341bbb     C910225   3.608   1.016   6.094 -0.0824 -0.1311 -0.2537
  341bbb    H1710226   3.658   0.953   6.169 -0.0663 -0.9643 -0.9580
  341bbb    H1810227   3.522   0.964   6.052 -0.1588 -0.9569  0.8742
  341bbb     O110228   3.753   1.595   5.544 -0.0710 -0.2914 -0.0633
  341bbb    H1910229   3.844   1.171   5.804 -0.6024  0.0368  1.5238
  342bbb     N110230   3.274   2.065   6.124  0.1648 -0.5196  0.4669
  342bbb     C110231   3.276   2.120   6.264 -0.3878 -0.2460 -0.3899
  342bbb     H110232   3.304   2.037   6.329  2.0556  1.5059  0.9515
  342bbb     H210233   3.179   2.166   6.286 -1.0038 -0.7237 -1.9743
  342bbb     C210234   3.230   1.927   6.125  0.1330 -0.5275 -0.3785
  342bbb     H310235   3.177   1.913   6.030 -1.1472  0.2960  0.1736
  342bbb     H410236   3.152   1.921   6.201  1.3244 -0.6849  0.8570
  342bbb     C310237   3.183   2.160   6.047  0.5962 -0.4604  0.5758
  342bbb     H510238   3.224   2.260   6.068  0.9712 -0.4024 -0.4029
  342bbb     H610239   3.079   2.145   6.076 -0.0316  0.2467 -1.1907
  342bbb     C410240   3.187   2.143   5.893 -0.8652  0.0459 -0.4224
  342bbb     H710241   3.104   2.202   5.851 -1.1333 -0.5544 -0.7480
  342bbb     H810242   3.178   2.042   5.851 -0.2324  0.3127 -1.2131
  342bbb     C510243   3.392   2.223   6.295 -0.0348  0.4163 -0.1065
  342bbb     H910244   3.394   2.261   6.398 -0.1023  1.8792 -0.6196
  342bbb    H1010245   3.360   2.304   6.228 -2.3306 -0.6647 -0.3898
  342bbb     C610246   3.331   1.818   6.147  0.6095 -1.0254 -0.1924
  342bbb    H1110247   3.375   1.826   6.247  0.7005  1.0313 -0.3544
  342bbb    H1210248   3.411   1.822   6.072  0.1027 -1.1719 -0.7576
  342bbb     C710249   3.313   2.201   5.832  0.1452  0.1202 -0.2247
  342bbb    H1310250   3.326   2.303   5.870 -1.0555 -0.5155  2.0398
  342bbb    H1410251   3.321   2.209   5.723 -0.9127  0.1280 -0.3128
  342bbb     C810252   3.262   1.679   6.140  0.0031 -0.3998 -0.6053
  342bbb    H1510253   3.331   1.605   6.182  0.5664  1.3744  1.7928
  342bbb    H1610254   3.179   1.681   6.210  0.2846 -0.4630 -0.2678
  342bbb     C910255   3.529   2.171   6.251  0.3930 -0.6635 -0.3957
  342bbb    H1710256   3.604   2.248   6.275  1.4614 -0.5731 -3.5804
  342bbb    H1810257   3.528   2.168   6.142  2.1088 -0.5671 -0.4409
  342bbb     O110258   3.430   2.126   5.879 -0.2082  0.0879 -0.3375
  342bbb    H1910259   3.367   2.089   6.087 -0.1044 -0.2651 -0.0516
  343bbb     N110260   4.670   3.520   3.021 -0.1597 -0.1796 -0.4806
  343bbb     C110261   4.597   3.656   3.003 -0.6256  0.7532  0.3207
  343bbb     H110262   4.530   3.646   3.089  0.2117  0.4276  0.9473
  343bbb     H210263   4.546   3.648   2.907  1.1494  1.8436 -0.7840
  343bbb     C210264   4.780   3.515   2.916 -0.4165  0.2214  0.8637
  343bbb     H310265   4.841   3.598   2.952 -0.3595  0.5587  0.0031
  343bbb     H410266   4.737   3.545   2.821  1.3844 -0.9916 -0.3997
  343bbb     C310267   4.732   3.511   3.167  0.0469  0.2932 -0.4919
  343bbb     H510268   4.777   3.609   3.188 -1.3066  1.0463 -0.9740
  343bbb     H610269   4.812   3.438   3.177  0.6742  1.0746  0.3502
  343bbb     C410270   4.628   3.486   3.278  0.1473 -0.2936  0.5914
  343bbb     H710271   4.585   3.389   3.253  0.1179  0.3377 -2.0385
  343bbb     H810272   4.552   3.564   3.267  0.3968 -0.3377 -1.8480
  343bbb     C510273   4.677   3.788   3.007  0.1976  0.3136  0.1799
  343bbb     H910274   4.763   3.794   2.939  1.3708  1.5275  1.6747
  343bbb    H1010275   4.728   3.799   3.104  1.5987  0.7908 -0.5773
  343bbb     C610276   4.865   3.388   2.902  0.2481 -0.3901  0.0299
  343bbb    H1110277   4.795   3.306   2.884  1.3193 -1.0378 -1.3852
  343bbb    H1210278   4.916   3.363   2.996  0.3122  2.8648  0.9940
  343bbb     C710279   4.686   3.481   3.420  0.2527 -0.0394 -0.2085
  343bbb    H1310280   4.754   3.399   3.446 -0.2035 -0.1500  0.6655
  343bbb    H1410281   4.599   3.464   3.484 -1.5524  3.1550 -1.5638
  343bbb     C810282   4.949   3.375   2.779  0.2713  0.5379  0.3291
  343bbb    H1510283   5.033   3.447   2.785  2.4522 -1.8849  0.7621
  343bbb    H1610284   4.983   3.271   2.781  0.5833  0.6337  2.2534
  343bbb     C910285   4.584   3.909   2.991  0.3093  0.6939 -0.3394
  343bbb    H1710286   4.489   3.897   3.045  0.1142 -0.9920 -1.0074
  343bbb    H1810287   4.549   3.902   2.887 -0.6379 -0.2093  0.0174
  343bbb     O110288   4.752   3.604   3.458  0.5018 -0.6716  0.4716
  343bbb    H1910289   4.604   3.443   3.004 -0.4807 -0.0268  0.0457
  344bbb     N110290   5.275   4.346   3.408 -0.5060  0.5335  0.3224
  344bbb     C110291   5.421   4.354   3.450 -0.1534 -0.1129  0.1022
  344bbb     H110292   5.446   4.457   3.424 -0.9424  0.1231  0.2801
  344bbb     H210293   5.467   4.281   3.382  0.6365  1.6983 -1.3773
  344bbb     C210294   5.194   4.443   3.491  0.1858  0.1728 -0.0107
  344bbb     H310295   5.172   4.397   3.587 -0.6852  0.0793 -0.2506
  344bbb     H410296   5.098   4.450   3.440 -0.7882 -2.1913  1.3392
  344bbb     C310297   5.278   4.363   3.258 -0.0160  0.0534 -0.3000
  344bbb     H510298   5.354   4.296   3.217  0.9517  0.5417  0.6698
  344bbb     H610299   5.324   4.460   3.242  0.9177 -0.0688  1.4968
  344bbb     C410300   5.144   4.362   3.185  0.1903 -0.0232 -0.4701
  344bbb     H710301   5.159   4.434   3.104 -1.1726  1.9128  0.8983
  344bbb     H810302   5.055   4.389   3.243  0.5314 -1.4780  0.8050
  344bbb     C510303   5.456   4.316   3.600  0.1807 -0.2367  0.3643
  344bbb     H910304   5.422   4.213   3.616 -2.4113  0.5096  0.1312
  344bbb    H1010305   5.412   4.386   3.672 -0.6612 -0.1471 -0.2255
  344bbb     C610306   5.254   4.584   3.520 -0.3499  0.6315 -0.1447
  344bbb    H1110307   5.286   4.638   3.430  0.4238 -1.6478 -1.3184
  344bbb    H1210308   5.345   4.579   3.582 -0.5111  2.0240  0.2372
  344bbb     C710309   5.122   4.224   3.121 -0.2558 -0.0607 -0.2000
  344bbb    H1310310   5.205   4.214   3.050  1.0102 -2.1206  1.4348
  344bbb    H1410311   5.023   4.218   3.075  0.0277 -0.1243 -0.8084
  344bbb     C810312   5.154   4.675   3.601  0.1479  0.3933 -0.2317
  344bbb    H1510313   5.143   4.630   3.700  2.7601  0.4144  0.1442
  344bbb    H1610314   5.198   4.774   3.620  3.1311 -1.0642  1.1356
  344bbb     C910315   5.609   4.316   3.636  1.3947  0.3257 -0.3495
  344bbb    H1710316   5.640   4.419   3.615  1.4381  0.4468  0.3129
  344bbb    H1810317   5.665   4.246   3.573  1.2599 -1.7234  1.6878
  344bbb     O110318   5.119   4.121   3.228 -0.4726 -0.1320 -0.4824
  344bbb    H1910319   5.234   4.252   3.420 -0.4344  0.6879  1.9146
  345bbb     N110320   3.073   4.257   4.426  0.2053 -0.6144  0.7323
  345bbb     C110321   2.951   4.327   4.502 -0.5166  0.2487  0.5720
  345bbb     H110322   2.891   4.246   4.544 -0.4649  0.1497  0.4540
  345bbb     H210323   2.883   4.392   4.448 -0.0657  1.4463  1.4064
  345bbb     C210324   3.132   4.344   4.319 -0.1289 -0.7051 -0.0209
  345bbb     H310325   3.215   4.282   4.284  0.8407  1.6884 -2.3134
  345bbb     H410326   3.178   4.423   4.378 -1.7676  1.1724 -1.1483
  345bbb     C310327   3.175   4.200   4.522  0.0926 -0.2269  0.6367
  345bbb     H510328   3.216   4.286   4.576  0.4090  0.2170 -0.2841
  345bbb     H610329   3.256   4.151   4.467  0.4899  1.3188 -0.2068
  345bbb     C410330   3.129   4.099   4.631 -0.1054  0.1111 -0.1530
  345bbb     H710331   3.088   4.012   4.580 -0.4635 -0.7914  1.5795
  345bbb     H810332   3.053   4.153   4.690 -2.1217 -0.1865 -2.3370
  345bbb     C510333   2.994   4.427   4.616  0.2704  0.2309  0.2624
  345bbb     H910334   3.044   4.384   4.704  2.6619  0.2500 -1.0341
  345bbb    H1010335   2.904   4.460   4.669  0.3704  2.0378 -0.6296
  345bbb     C610336   3.054   4.390   4.192 -0.1161 -0.5367  0.4984
  345bbb    H1110337   3.048   4.309   4.117 -1.3911 -0.5731  0.6114
  345bbb    H1210338   2.948   4.408   4.213 -0.8613 -2.3738 -1.2597
  345bbb     C710339   3.240   4.037   4.719 -0.6374 -0.1541  0.0674
  345bbb    H1310340   3.190   3.958   4.776  1.0066  1.1225  3.5175
  345bbb    H1410341   3.279   4.114   4.786  2.7939 -1.6208 -0.0582
  345bbb     C810342   3.128   4.513   4.131 -0.3318  0.2045 -0.4818
  345bbb    H1510343   3.219   4.473   4.084 -0.9170 -1.2529 -0.4216
  345bbb    H1610344   3.071   4.546   4.044 -1.9832  0.2453  0.5887
  345bbb     C910345   3.067   4.556   4.569  0.2974  0.0399 -0.1496
  345bbb    H1710346   3.041   4.641   4.635 -0.9185  0.2958 -0.9314
  345bbb    H1810347   3.034   4.581   4.468 -2.8572 -1.6038  0.3687
  345bbb     O110348   3.353   3.993   4.635 -0.2153 -0.3704 -0.4890
  345bbb    H1910349   3.035   4.178   4.372  2.3869 -0.2709 -1.4659
  346bbb     N110350   3.723   3.737   4.811  0.1295  0.2898 -0.7176
  346bbb     C110351   3.599   3.800   4.870 -0.5780  0.0772  0.5613
  346bbb     H110352   3.508   3.780   4.812 -0.0687 -0.7588  0.0245
  346bbb     H210353   3.623   3.906   4.872 -0.9276  0.2219 -0.9300
  346bbb     C210354   3.674   3.603   4.755 -0.1718  0.6871  0.5738
  346bbb     H310355   3.644   3.616   4.651  2.7227  3.4349 -0.0484
  346bbb     H410356   3.593   3.562   4.815  1.0676  2.2482  3.5309
  346bbb     C310357   3.776   3.831   4.710 -0.5498  0.1824 -0.2601
  346bbb     H510358   3.783   3.928   4.758  0.2129  0.1919 -0.3799
  346bbb     H610359   3.701   3.850   4.634 -0.2394  1.0459 -0.3663
  346bbb     C410360   3.913   3.797   4.644 -0.0171  0.2109  0.6348
  346bbb     H710361   3.894   3.734   4.556  0.6724  0.4194  0.3341
  346bbb     H810362   3.983   3.746   4.711  0.0443 -1.2105 -0.4475
  346bbb     C510363   3.554   3.740   5.000  0.7474  0.0167 -0.5788
  346bbb     H910364   3.630   3.745   5.078  1.8144  0.0826 -1.5942
  346bbb    H1010365   3.539   3.631   4.996  0.9624 -0.0264 -0.2165
  346bbb     C610366   3.774   3.488   4.737  0.0835 -0.7449  0.2238
  346bbb    H1110367   3.871   3.530   4.707 -0.8470  0.8658 -0.7074
  346bbb    H1210368   3.733   3.418   4.663 -2.0533 -1.4654  2.0106
  346bbb     C710369   3.974   3.927   4.585 -0.0540  0.0865  0.0203
  346bbb    H1310370   4.049   3.897   4.511 -2.6051 -2.5889 -1.7211
  346bbb    H1410371   4.013   3.992   4.665 -0.6073  1.4050 -0.7429
  346bbb     C810372   3.802   3.407   4.867 -0.6736  0.0507 -0.7682
  346bbb    H1510373   3.708   3.356   4.892 -1.4525  1.0903 -1.4686
  346bbb    H1610374   3.884   3.335   4.853 -0.7241 -0.1607  0.0059
  346bbb     C910375   3.442   3.833   5.054 -0.1196  0.8135  0.4613
  346bbb    H1710376   3.401   3.811   5.153 -0.1819  0.1736  0.2991
  346bbb    H1810377   3.358   3.833   4.983 -0.1885  0.7797  0.5430
  346bbb     O110378   3.864   3.995   4.520  0.1930 -0.1072 -0.2698
  346bbb    H1910379   3.793   3.725   4.886  0.4085 -1.8024 -1.2458
  347bbb     N110380   3.936   2.024   1.828  0.0643  0.6453  0.4109
  347bbb     C110381   3.801   1.977   1.773  0.6153  0.2874 -0.6329
  347bbb     H110382   3.821   1.911   1.688  1.3222 -2.2609  1.4097
  347bbb     H210383   3.750   2.066   1.736 -2.0546 -1.0939 -0.5289
  347bbb     C210384   4.023   2.089   1.722  0.3870 -0.2381  0.4339
  347bbb     H310385   3.966   2.165   1.668 -0.1018 -0.3222  0.8232
  347bbb     H410386   4.040   2.008   1.650  1.1714  1.9544 -1.9996
  347bbb     C310387   3.915   2.124   1.942 -0.2113 -0.1125  0.4306
  347bbb     H510388   4.015   2.151   1.974  0.6917 -2.7259  0.1135
  347bbb     H610389   3.865   2.060   2.016  0.8121 -2.7719 -1.0419
  347bbb     C410390   3.837   2.258   1.906 -0.5705  0.1434 -0.6267
  347bbb     H710391   3.748   2.229   1.849  0.2003 -0.0627 -1.7550
  347bbb     H810392   3.898   2.328   1.846  1.2702 -0.9842 -0.1419
  347bbb     C510393   3.707   1.903   1.873  0.2814  0.2204 -0.3003
  347bbb     H910394   3.623   1.861   1.816 -0.1089 -3.9956  2.9365
  347bbb    H1010395   3.678   1.978   1.947 -1.4695  0.1744 -0.8927
  347bbb     C610396   4.165   2.130   1.768  0.1295 -0.2734  0.1593
  347bbb    H1110397   4.190   2.068   1.854 -0.5863 -2.2844 -1.0266
  347bbb    H1210398   4.175   2.235   1.800  1.0286 -0.6019  0.9699
  347bbb     C710399   3.794   2.318   2.039  0.5585 -0.1120  0.1635
  347bbb    H1310400   3.890   2.317   2.093  2.0978 -0.5666 -2.3866
  347bbb    H1410401   3.719   2.249   2.077 -0.6947 -0.4371 -2.6627
  347bbb     C810402   4.264   2.112   1.648 -0.3031  0.4347  0.2268
  347bbb    H1510403   4.351   2.174   1.671  0.1439  0.2126 -0.8358
  347bbb    H1610404   4.296   2.008   1.630  0.4620  0.3132  2.0138
  347bbb     C910405   3.761   1.764   1.932  0.4545 -0.1509  0.7088
  347bbb    H1710406   3.806   1.703   1.854  1.1439  0.9095  0.2442
  347bbb    H1810407   3.674   1.715   1.977 -0.8879  1.6574  0.2140
  347bbb     O110408   3.751   2.456   2.021  0.0391  0.0071  0.4857
  347bbb    H1910409   3.982   1.936   1.856  1.4695  0.4704 -2.0976
  348bbb     N110410   4.001   2.726   1.593 -0.3314 -0.5109 -0.8784
  348bbb     C110411   3.885   2.730   1.692  0.0593 -0.4900  0.2100
  348bbb     H110412   3.789   2.751   1.644 -0.2559  1.4673  1.5519
  348bbb     H210413   3.907   2.827   1.736  1.3182 -0.6731 -0.0011
  348bbb     C210414   3.963   2.766   1.450  0.9468 -0.1471 -0.3366
  348bbb     H310415   4.052   2.764   1.387  1.1700 -0.3316 -0.0224
  348bbb     H410416   3.926   2.868   1.456  2.2313  0.2617  3.1170
  348bbb     C310417   4.117   2.826   1.629  0.4016  0.5924  0.2911
  348bbb     H510418   4.203   2.799   1.567 -0.5271 -2.5865  0.2182
  348bbb     H610419   4.146   2.813   1.733 -0.2085  1.6674  0.6124
  348bbb     C410420   4.091   2.978   1.624  0.1545  0.1434  0.1949
  348bbb     H710421   3.986   3.000   1.601  0.2320  1.0419  0.6552
  348bbb     H810422   4.156   3.019   1.546 -1.4990  0.4212 -1.1138
  348bbb     C510423   3.886   2.620   1.797 -0.6951  0.2184  0.2231
  348bbb     H910424   3.870   2.523   1.749  0.7076  0.3121 -0.4689
  348bbb    H1010425   3.803   2.644   1.864  0.9998 -1.0799  2.9968
  348bbb     C610426   3.851   2.675   1.391 -0.0121  0.4717  0.7531
  348bbb    H1110427   3.780   2.646   1.470  0.3566  1.4279  1.4562
  348bbb    H1210428   3.899   2.580   1.364 -0.5237  0.1962  0.8054
  348bbb     C710429   4.109   3.029   1.769 -0.0396 -0.5530  0.9370
  348bbb    H1310430   4.101   3.139   1.772  1.8399 -0.3132 -0.5398
  348bbb    H1410431   4.212   3.019   1.805  1.1052 -0.6801 -2.1409
  348bbb     C810432   3.782   2.737   1.264 -0.5108 -0.9804  0.3886
  348bbb    H1510433   3.850   2.763   1.182 -1.5101  0.6165  0.0288
  348bbb    H1610434   3.709   2.665   1.225  0.2894 -0.8158 -1.5033
  348bbb     C910435   4.012   2.617   1.885 -0.9606  0.5006 -0.6340
  348bbb    H1710436   4.003   2.555   1.975 -0.5491  1.4035  0.0491
  348bbb    H1810437   4.019   2.716   1.932  0.7547  0.4282 -0.6770
  348bbb     O110438   4.011   2.973   1.855 -0.0245  0.1406 -0.8874
  348bbb    H1910439   4.051   2.636   1.606 -0.7117 -0.3876  2.2104
  349bbb     N110440   2.407   1.749   2.201 -0.1647  0.4341 -0.3264
  349bbb     C110441   2.481   1.637   2.136  0.3312 -0.0169 -0.2175
  349bbb     H110442   2.577   1.632   2.189  0.0773  0.8712  0.3485
  349bbb     H210443   2.505   1.681   2.039 -0.4845  0.6714 -0.1173
  349bbb     C210444   2.403   1.738   2.357 -0.2464 -0.4834 -0.2100
  349bbb     H310445   2.367   1.636   2.370  1.1423 -0.9468  0.1321
  349bbb     H410446   2.333   1.817   2.387 -1.6131 -1.8329  0.3046
  349bbb     C310447   2.462   1.884   2.157 -0.3886  0.5805 -0.1147
  349bbb     H510448   2.435   1.887   2.051  0.9988 -1.0788 -0.5584
  349bbb     H610449   2.570   1.884   2.172 -0.6289  0.3883  1.9548
  349bbb     C410450   2.400   2.004   2.226 -0.6599 -0.9736  0.0902
  349bbb     H710451   2.430   2.009   2.331 -0.9043 -3.3634  0.3451
  349bbb     H810452   2.290   1.994   2.226 -0.8951  0.7456 -1.9651
  349bbb     C510453   2.418   1.503   2.125  0.8535  0.2995 -0.5297
  349bbb     H910454   2.455   1.442   2.042 -0.7420  0.4927 -1.4314
  349bbb    H1010455   2.311   1.518   2.105  0.5747 -0.0496  0.6036
  349bbb     C610456   2.538   1.770   2.427 -0.5085 -0.8428 -1.0334
  349bbb    H1110457   2.589   1.861   2.393 -2.4366 -0.0299 -1.9343
  349bbb    H1210458   2.605   1.687   2.401  0.3250 -0.7442  0.6880
  349bbb     C710459   2.444   2.136   2.164  0.6358 -0.1932  0.0567
  349bbb    H1310460   2.382   2.222   2.192  1.1169  0.8002 -1.7517
  349bbb    H1410461   2.438   2.130   2.055 -0.5666 -0.5938  0.1323
  349bbb     C810462   2.516   1.785   2.577  0.3598 -0.0933  0.1176
  349bbb    H1510463   2.459   1.699   2.614  0.0983  0.0609  0.0794
  349bbb    H1610464   2.611   1.802   2.628  0.2038 -2.3955  1.3120
  349bbb     C910465   2.434   1.408   2.248  0.3086  0.1221  0.3770
  349bbb    H1710466   2.439   1.312   2.194 -0.2988 -0.5291  1.4276
  349bbb    H1810467   2.347   1.391   2.312  0.5933 -0.0485  0.7260
  349bbb     O110468   2.573   2.162   2.207  0.0765  0.3302  0.5640
  349bbb    H1910469   2.310   1.731   2.171 -0.8026  1.4256  1.0260
  350bbb     N110470   2.551   2.451   1.456 -0.4342 -0.3299  0.0877
  350bbb     C110471   2.632   2.343   1.533  0.2609 -0.4521 -0.3340
  350bbb     H110472   2.722   2.392   1.571  1.5037 -3.8784  1.6375
  350bbb     H210473   2.656   2.268   1.458  1.5486 -0.0735 -0.3157
  350bbb     C210474   2.421   2.401   1.389 -0.2942  0.2867  0.2152
  350bbb     H310475   2.383   2.489   1.336  0.8013 -0.4308 -1.8852
  350bbb     H410476   2.342   2.381   1.462  0.3006  0.3432  0.8721
  350bbb     C310477   2.506   2.561   1.560  0.2652  0.3249  0.0965
  350bbb     H510478   2.593   2.578   1.624 -0.7190  0.0573  1.5467
  350bbb     H610479   2.423   2.518   1.615 -1.3312  0.9768 -1.6885
  350bbb     C410480   2.457   2.690   1.511  0.3790  0.2881 -0.7446
  350bbb     H710481   2.365   2.687   1.453 -0.8449 -0.9453  1.1576
  350bbb     H810482   2.529   2.745   1.449 -0.0309 -0.7537 -2.1846
  350bbb     C510483   2.560   2.265   1.651 -0.3734  0.1553  0.9650
  350bbb     H910484   2.464   2.230   1.610  1.3079 -1.8642 -1.5414
  350bbb    H1010485   2.531   2.342   1.724  0.3894  1.3065  0.0800
  350bbb     C610486   2.435   2.294   1.286  0.2020  0.2768  0.3612
  350bbb    H1110487   2.478   2.199   1.320  0.8858 -0.3770 -2.0826
  350bbb    H1210488   2.500   2.329   1.205 -1.7575  0.8295 -1.0497
  350bbb     C710489   2.425   2.776   1.638 -0.8152 -0.8528 -0.6930
  350bbb    H1310490   2.343   2.725   1.689  0.1960 -2.9468 -1.0555
  350bbb    H1410491   2.384   2.874   1.611 -0.7990 -0.4798  0.5531
  350bbb     C810492   2.300   2.265   1.215  0.0173 -0.3329  0.4216
  350bbb    H1510493   2.215   2.243   1.281 -0.3984 -1.0550 -0.3324
  350bbb    H1610494   2.262   2.354   1.161 -0.6391 -2.3276 -2.6735
  350bbb     C910495   2.652   2.157   1.711  0.0917  0.0511  0.3209
  350bbb    H1710496   2.690   2.097   1.627 -1.8465  1.8488 -1.9545
  350bbb    H1810497   2.599   2.093   1.783 -0.0888  1.0274  1.0752
  350bbb     O110498   2.552   2.802   1.715  0.2717  0.2751 -0.0172
  350bbb    H1910499   2.613   2.493   1.386 -2.2104  0.1413 -1.2920
  351bbb     N110500   9.572   3.357   4.645  0.3449  0.4540  0.2749
  351bbb     C110501   9.678   3.305   4.549 -0.4711  0.2879 -0.2622
  351bbb     H110502   9.733   3.392   4.513  0.4071 -0.0835  0.1638
  351bbb     H210503   9.620   3.260   4.468  1.3173 -1.5825 -0.5540
  351bbb     C210504   9.639   3.437   4.757  0.2553  0.8137 -0.6599
  351bbb     H310505   9.690   3.368   4.824 -1.0354  1.8585  1.5270
  351bbb     H410506   9.555   3.464   4.821  0.9243  0.6212  0.3216
  351bbb     C310507   9.458   3.434   4.574  0.4271  0.0367 -0.7632
  351bbb     H510508   9.427   3.379   4.485 -0.8116 -2.6809  1.2185
  351bbb     H610509   9.498   3.534   4.555 -0.9593  1.0010  1.0592
  351bbb     C410510   9.341   3.444   4.667  0.8100  0.1703 -0.1244
  351bbb     H710511   9.374   3.486   4.763  0.2180 -2.2612  1.2326
  351bbb     H810512   9.298   3.348   4.697 -0.0720  0.4550 -0.4499
  351bbb     C510513   9.769   3.197   4.607 -0.0656 -0.8115  0.1911
  351bbb     H910514   9.709   3.129   4.669  1.1871 -2.0969  0.0307
  351bbb    H1010515   9.844   3.235   4.677  0.3206  0.3355 -0.8014
  351bbb     C610516   9.719   3.558   4.718 -0.4693  0.2605 -0.4938
  351bbb    H1110517   9.651   3.635   4.681 -0.8117  0.0670 -0.2761
  351bbb    H1210518   9.785   3.522   4.638 -1.4893 -0.7945 -0.8973
  351bbb     C710519   9.230   3.534   4.621  0.1837  0.0897  0.1416
  351bbb    H1310520   9.282   3.628   4.598 -0.6900 -0.0804 -2.9725
  351bbb    H1410521   9.165   3.568   4.703  0.5575 -0.7124  0.7784
  351bbb     C810522   9.794   3.621   4.840 -0.1373 -0.5484  0.2438
  351bbb    H1510523   9.876   3.553   4.867 -1.2845 -2.3647 -0.6371
  351bbb    H1610524   9.831   3.722   4.821  1.7196 -1.1687  0.4188
  351bbb     C910525   9.835   3.111   4.500  0.1176  0.1159 -0.6142
  351bbb    H1710526   9.900   3.035   4.545 -2.7781 -2.4564 -0.4147
  351bbb    H1810527   9.901   3.166   4.433  1.8587 -0.3607  0.6365
  351bbb     O110528   9.166   3.484   4.497  0.1913  0.1636  0.6403
  351bbb    H1910529   9.525   3.275   4.686 -0.0243  1.5823  2.2388
  352bbb     N110530   9.476   4.114   3.971  0.1699 -0.5748 -0.4866
  352bbb     C110531   9.584   4.033   4.052  0.3935 -0.5495 -0.5742
  352bbb     H110532   9.544   4.010   4.151 -0.8979  0.3229 -0.8748
  352bbb     H210533   9.668   4.100   4.070 -0.9553  0.6414  1.7121
  352bbb     C210534   9.539   4.182   3.848 -0.6596  0.0410  0.0154
  352bbb     H310535   9.470   4.254   3.803  0.3048  0.2548 -1.1817
  352bbb     H410536   9.555   4.106   3.772 -0.8249 -1.6928  1.6452
  352bbb     C310537   9.358   4.022   3.936  0.4282  0.0376 -0.0417
  352bbb     H510538   9.354   3.950   4.017 -0.2326 -0.4802 -0.5261
  352bbb     H610539   9.379   3.969   3.843 -1.7895  2.5559 -2.1670
  352bbb     C410540   9.217   4.090   3.933 -0.0411  0.5533  0.4696
  352bbb     H710541   9.203   4.169   3.858 -0.7157 -0.1450 -0.1694
  352bbb     H810542   9.219   4.140   4.030  0.8666  1.6904 -0.1027
  352bbb     C510543   9.625   3.907   3.985 -0.4301 -0.1521 -1.1904
  352bbb     H910544   9.644   3.933   3.880 -2.4321 -1.2246 -1.8639
  352bbb    H1010545   9.546   3.831   3.987 -0.0167 -0.6038 -1.6915
  352bbb     C610546   9.678   4.248   3.867  0.0683  0.5137  0.3639
  352bbb    H1110547   9.763   4.184   3.892  0.2875  0.0314 -1.4889
  352bbb    H1210548   9.669   4.312   3.956  1.7392 -0.9484  1.6600
  352bbb     C710549   9.095   3.985   3.930 -0.4608  0.4652 -0.6698
  352bbb    H1310550   9.001   4.041   3.920 -0.9187  0.2934  1.9058
  352bbb    H1410551   9.098   3.925   4.021  0.6162 -0.6587 -1.4139
  352bbb     C810552   9.717   4.338   3.748  1.2300 -0.2863  0.0941
  352bbb    H1510553   9.818   4.378   3.767  0.3054  1.8851  0.7869
  352bbb    H1610554   9.718   4.285   3.652  0.2339 -0.2181  0.0395
  352bbb     C910555   9.749   3.846   4.052 -0.3599  0.4595  0.1255
  352bbb    H1710556   9.725   3.827   4.158 -0.3485  3.5283  0.7807
  352bbb    H1810557   9.835   3.915   4.052  0.5768 -0.6771 -0.6690
  352bbb     O110558   9.105   3.898   3.816 -0.2285  0.1051 -0.0307
  352bbb    H1910559   9.438   4.186   4.034 -1.5759 -0.8249 -1.2122
  353bbb     N110560   9.288   3.644   2.822 -0.8540 -0.4209 -0.9413
  353bbb     C110561   9.402   3.630   2.922 -0.7447  0.0355 -0.0879
  353bbb     H110562   9.486   3.674   2.869 -1.3003  2.4317  0.8800
  353bbb     H210563   9.430   3.525   2.924  0.4628  0.2882 -1.7639
  353bbb     C210564   9.337   3.630   2.685  0.3060  0.0371 -0.3767
  353bbb     H310565   9.402   3.715   2.664 -0.3304  1.0771  1.5829
  353bbb     H410566   9.244   3.650   2.630  1.4445 -0.5532 -2.6524
  353bbb     C310567   9.183   3.543   2.851 -0.0834 -0.3371  0.1747
  353bbb     H510568   9.165   3.548   2.959 -0.4289 -2.8082  0.2831
  353bbb     H610569   9.228   3.445   2.837  0.2063 -0.2259  0.3164
  353bbb     C410570   9.046   3.556   2.778 -0.4385  0.2231 -0.6812
  353bbb     H710571   9.063   3.538   2.671  0.2511  0.7591 -0.6662
  353bbb     H810572   9.008   3.657   2.796  1.6538  0.8962  0.3616
  353bbb     C510573   9.375   3.694   3.054 -0.3343 -0.6046  0.4139
  353bbb     H910574   9.280   3.662   3.098 -0.7163  1.7140  1.4149
  353bbb    H1010575   9.365   3.802   3.036 -0.2079 -0.3821  1.6067
  353bbb     C610576   9.402   3.499   2.647  0.8751 -0.1286  0.1505
  353bbb    H1110577   9.332   3.415   2.659  2.1620 -1.4741 -1.3027
  353bbb    H1210578   9.485   3.480   2.716 -0.6449 -0.0056  2.1015
  353bbb     C710579   8.932   3.460   2.825  0.0567  0.0538 -0.3644
  353bbb    H1310580   8.973   3.358   2.817 -0.7011 -0.2117 -0.9290
  353bbb    H1410581   8.849   3.471   2.754 -0.1543  0.6820 -0.0229
  353bbb     C810582   9.435   3.499   2.493  0.3739 -0.7822  0.6033
  353bbb    H1510583   9.508   3.575   2.461  1.4143 -1.4154  1.3976
  353bbb    H1610584   9.485   3.406   2.464  1.2236  0.0206 -0.6066
  353bbb     C910585   9.482   3.671   3.160  0.4824 -0.4444 -0.1480
  353bbb    H1710586   9.480   3.745   3.241  2.1079  2.9368 -2.9267
  353bbb    H1810587   9.576   3.693   3.109  0.3134  2.0594  0.5087
  353bbb     O110588   8.892   3.477   2.965  0.0852 -0.6416  0.4713
  353bbb    H1910589   9.255   3.741   2.835  0.0147 -0.3390  0.9129
  354bbb     N110590   9.653   2.754   2.961  0.2134  0.2632 -0.4825
  354bbb     C110591   9.696   2.811   2.829 -0.4080 -0.2820  0.0825
  354bbb     H110592   9.802   2.785   2.829  0.3246  2.4296  0.0619
  354bbb     H210593   9.681   2.919   2.833  0.1611 -0.2251  2.9782
  354bbb     C210594   9.752   2.785   3.065 -0.3543  0.5827  0.1972
  354bbb     H310595   9.745   2.894   3.075  0.2071  0.7834 -1.3386
  354bbb     H410596   9.846   2.759   3.016 -0.7392 -0.4753 -0.0092
  354bbb     C310597   9.505   2.780   2.986 -0.6993  0.0173  0.0473
  354bbb     H510598   9.477   2.714   3.068 -2.6019 -0.4138 -0.8943
  354bbb     H610599   9.437   2.754   2.905 -0.1745  1.0278 -0.7482
  354bbb     C410600   9.482   2.923   3.040 -0.4486  0.5900 -0.2580
  354bbb     H710601   9.526   2.993   2.968  0.4952 -0.5970 -0.8807
  354bbb     H810602   9.544   2.936   3.130 -0.0771  0.4050 -0.4830
  354bbb     C510603   9.627   2.738   2.715 -0.0712  0.0673 -0.5663
  354bbb     H910604   9.519   2.755   2.721 -0.0519 -0.3265  1.2734
  354bbb    H1010605   9.637   2.630   2.732 -2.8744 -0.7064 -2.9325
  354bbb     C610606   9.740   2.724   3.202  0.0972  0.1757  0.6982
  354bbb    H1110607   9.727   2.615   3.205  0.7247  0.1041  3.0854
  354bbb    H1210608   9.647   2.760   3.247  0.2832 -1.5151  2.5647
  354bbb     C710609   9.338   2.951   3.080  0.5544 -0.0842 -0.8877
  354bbb    H1310610   9.308   2.880   3.159 -0.0829 -0.0892 -1.1282
  354bbb    H1410611   9.266   2.940   2.998 -0.1710 -1.0522 -0.1550
  354bbb     C810612   9.856   2.762   3.299 -0.2115  0.0965  0.0702
  354bbb    H1510613   9.845   2.723   3.401  0.6606  0.6460  0.3811
  354bbb    H1610614   9.947   2.715   3.259 -0.3503  0.0095 -0.1438
  354bbb     C910615   9.685   2.769   2.571 -0.2822 -0.6738  0.1134
  354bbb    H1710616   9.662   2.689   2.500  0.2627 -0.2583 -0.5380
  354bbb    H1810617   9.794   2.772   2.572 -0.2607  0.2955  2.5540
  354bbb     O110618   9.322   3.083   3.140 -0.5330 -0.6330 -0.1688
  354bbb    H1910619   9.651   2.651   2.952 -0.2507  0.1441  0.7697
  355bbb     N110620   8.997   1.289   4.325 -0.2061  0.5011  0.3003
  355bbb     C110621   9.114   1.343   4.411  0.3921  0.1854  0.3818
  355bbb     H110622   9.201   1.278   4.405  0.8978  0.9839 -1.4214
  355bbb     H210623   9.084   1.336   4.516  0.7380  0.6785  0.5130
  355bbb     C210624   9.006   1.139   4.319  0.2256  0.3489 -1.0449
  355bbb     H310625   8.908   1.095   4.300  0.4866 -0.9625  0.4586
  355bbb     H410626   9.028   1.120   4.425  0.4293 -0.8193 -1.2815
  355bbb     C310627   8.868   1.333   4.380 -0.5654 -0.0819  0.3443
  355bbb     H510628   8.873   1.442   4.382 -1.7671 -0.0048  0.0825
  355bbb     H610629   8.861   1.296   4.483  0.9351  0.4635  0.6688
  355bbb     C410630   8.739   1.302   4.306  0.3229  0.5979  0.0949
  355bbb     H710631   8.699   1.205   4.336  0.7294 -0.4936 -2.5592
  355bbb     H810632   8.756   1.313   4.198  2.4145  2.5676  0.5480
  355bbb     C510633   9.163   1.490   4.380 -0.1760  0.6430  0.2105
  355bbb     H910634   9.078   1.558   4.390  0.2472  1.3747 -1.0216
  355bbb    H1010635   9.201   1.494   4.277 -1.4910 -1.1371 -0.3877
  355bbb     C610636   9.116   1.072   4.243  0.3281 -0.2322 -0.5923
  355bbb    H1110637   9.163   0.986   4.293 -0.9028  0.2369  1.4698
  355bbb    H1210638   9.201   1.141   4.234 -0.2033  0.3408 -1.3298
  355bbb     C710639   8.630   1.408   4.325  0.2325 -0.4957 -0.4155
  355bbb    H1310640   8.536   1.378   4.277 -0.0403  0.9782 -0.8414
  355bbb    H1410641   8.670   1.499   4.278  2.1717 -0.4919  1.1048
  355bbb     C810642   9.070   1.049   4.091  0.6624  0.1060 -0.2970
  355bbb    H1510643   9.038   1.140   4.041  0.0706 -0.4267 -0.9091
  355bbb    H1610644   9.160   1.014   4.040  1.1034 -0.4116  0.7833
  355bbb     C910645   9.274   1.538   4.482 -1.1169  0.0237  0.1591
  355bbb    H1710646   9.366   1.480   4.470  0.6098  2.7322 -0.5914
  355bbb    H1810647   9.245   1.519   4.586 -1.8300 -0.4550 -0.1206
  355bbb     O110648   8.607   1.434   4.466  0.3122 -0.2176  0.2683
  355bbb    H1910649   9.005   1.321   4.227 -0.2768 -1.9667 -0.5655
  356bbb     N110650   9.151   1.910   5.287 -0.0307 -0.1900  0.1247
  356bbb     C110651   9.293   1.893   5.226  0.2451 -0.3018 -0.3108
  356bbb     H110652   9.279   1.895   5.118  4.4112  1.4863 -0.9841
  356bbb     H210653   9.335   1.794   5.244  0.9495 -0.0858 -0.7196
  356bbb     C210654   9.085   2.032   5.225 -0.6857  0.2540  0.8708
  356bbb     H310655   9.085   2.017   5.117 -2.5672 -0.1343  0.8959
  356bbb     H410656   9.158   2.109   5.250  3.1891 -2.4836 -1.0322
  356bbb     C310657   9.058   1.789   5.266  0.6630  0.6264 -0.6011
  356bbb     H510658   8.964   1.813   5.314  1.3192  0.6700  0.6935
  356bbb     H610659   9.109   1.713   5.325 -1.9974 -0.1965  0.7985
  356bbb     C410660   9.025   1.732   5.125 -0.5861  0.6394  0.1874
  356bbb     H710661   9.118   1.712   5.071  0.6665 -0.4874  2.5922
  356bbb     H810662   8.969   1.812   5.074 -1.3784  0.3412  0.5642
  356bbb     C510663   9.399   1.995   5.267 -0.5272 -0.7476  0.1955
  356bbb     H910664   9.445   1.978   5.364  0.9147 -0.5250 -0.4212
  356bbb    H1010665   9.351   2.094   5.265 -3.5125 -2.0919 -0.7408
  356bbb     C610666   8.948   2.064   5.282  0.6698  1.1534 -0.0653
  356bbb    H1110667   8.960   2.053   5.390 -0.5970 -1.8312 -0.1247
  356bbb    H1210668   8.870   1.989   5.261  2.1219 -0.2853 -0.5987
  356bbb     C710669   8.965   1.596   5.136  0.8215  0.1977  0.6653
  356bbb    H1310670   8.984   1.557   5.237  1.7289  1.2347  0.9054
  356bbb    H1410671   9.015   1.536   5.059  2.0813  2.9128 -0.7266
  356bbb     C810672   8.896   2.202   5.237  0.1392 -1.2834  0.4003
  356bbb    H1510673   8.788   2.211   5.257  0.3586  0.3851  0.9759
  356bbb    H1610674   8.949   2.285   5.284  0.1722 -0.4288 -1.0858
  356bbb     C910675   9.527   1.980   5.181 -0.1881  0.2807  0.0060
  356bbb    H1710676   9.516   2.007   5.075  1.1107 -1.3473 -0.5953
  356bbb    H1810677   9.565   1.877   5.176  0.9242  0.6989 -0.4604
  356bbb     O110678   8.827   1.606   5.110  0.2897 -0.1301 -0.4065
  356bbb    H1910679   9.154   1.925   5.389 -2.0783  2.4488 -0.0966
  357bbb     N110680   8.905   2.123   3.915  0.8266  0.2220  0.5290
  357bbb     C110681   8.821   2.219   3.833 -0.0406 -0.4521 -0.0103
  357bbb     H110682   8.761   2.283   3.898 -0.0983 -0.1958 -0.3148
  357bbb     H210683   8.758   2.157   3.769  0.9244 -1.2077 -0.2521
  357bbb     C210684   8.975   2.198   4.021  1.0310 -0.1418 -0.0698
  357bbb     H310685   8.903   2.201   4.103 -0.1505 -0.3633 -1.0568
  357bbb     H410686   8.989   2.299   3.983  0.2317  0.2981  0.7545
  357bbb     C310687   8.826   2.008   3.978  0.2099 -1.0902 -0.0231
  357bbb     H510688   8.736   2.058   4.016  0.3707  0.4697 -1.5806
  357bbb     H610689   8.886   1.966   4.059 -0.3583 -0.6496  0.6395
  357bbb     C410690   8.781   1.897   3.878 -0.3561 -0.6532 -0.3351
  357bbb     H710691   8.842   1.810   3.904 -0.1970  0.4676  3.6733
  357bbb     H810692   8.802   1.936   3.777 -0.2023  0.5144  0.1347
  357bbb     C510693   8.900   2.304   3.739 -0.8129  0.2147  0.0733
  357bbb     H910694   8.947   2.390   3.787  2.9224 -1.3351 -0.4982
  357bbb    H1010695   8.831   2.344   3.663 -1.9808 -0.5578  0.6877
  357bbb     C610696   9.118   2.149   4.066 -0.0401  0.6028  0.3293
  357bbb    H1110697   9.190   2.158   3.984 -2.2077  0.4590 -1.6684
  357bbb    H1210698   9.122   2.045   4.101  1.1307  0.1424 -1.0813
  357bbb     C710699   8.632   1.854   3.881 -0.1192  0.0112 -0.1391
  357bbb    H1310700   8.598   1.841   3.984  1.1491 -0.7819  0.1950
  357bbb    H1410701   8.627   1.755   3.835  0.2054 -0.3456  0.5898
  357bbb     C810702   9.169   2.234   4.186  0.1261  0.0365 -0.5514
  357bbb    H1510703   9.098   2.232   4.270 -0.7897 -1.7198 -1.3086
  357bbb    H1610704   9.252   2.182   4.235 -1.9534 -2.8722  0.2083
  357bbb     C910705   9.002   2.227   3.655 -0.7034 -0.0139  0.3520
  357bbb    H1710706   9.092   2.206   3.713 -1.7725 -0.9045  1.7671
  357bbb    H1810707   9.040   2.286   3.571 -1.5441 -0.5042 -0.3943
  357bbb     O110708   8.549   1.945   3.807 -0.3063  0.0470  0.0476
  357bbb    H1910709   8.972   2.075   3.852  0.5755 -0.1742  0.5581
  358bbb     N110710   8.410   2.338   2.930  0.9328  0.2508 -0.2372
  358bbb     C110711   8.438   2.384   2.783  0.2946 -0.1409 -0.2030
  358bbb     H110712   8.399   2.313   2.709  0.6605  0.8161 -1.3505
  358bbb     H210713   8.547   2.385   2.788  0.4711 -1.6802 -2.3066
  358bbb     C210714   8.425   2.188   2.945 -0.2759 -0.3390  0.1488
  358bbb     H310715   8.362   2.135   2.873 -0.0159  0.5945 -0.7970
  358bbb     H410716   8.405   2.163   3.049  1.7013  1.6596  1.0825
  358bbb     C310717   8.500   2.423   3.020  1.2767  0.3755  0.3863
  358bbb     H510718   8.482   2.529   2.998  0.1063  0.1177  0.0427
  358bbb     H610719   8.607   2.401   3.020  1.1104 -0.8633  3.7424
  358bbb     C410720   8.458   2.380   3.169  0.1062 -0.0496 -0.2638
  358bbb     H710721   8.527   2.296   3.179  1.0991  0.8892  1.1358
  358bbb     H810722   8.352   2.353   3.179 -0.6113  0.7120 -4.0940
  358bbb     C510723   8.389   2.521   2.732 -0.3283 -0.0494  0.1350
  358bbb     H910724   8.384   2.606   2.801 -2.0172  1.4608 -1.7009
  358bbb    H1010725   8.284   2.515   2.698 -0.7894  0.3424  1.4497
  358bbb     C610726   8.567   2.130   2.922  0.1896 -0.1109 -0.5683
  358bbb    H1110727   8.644   2.154   2.996 -1.0828 -1.1465  1.1732
  358bbb    H1210728   8.609   2.158   2.825 -2.7861  0.5551 -1.7632
  358bbb     C710729   8.488   2.498   3.269 -0.2719 -0.1529  0.2012
  358bbb    H1310730   8.439   2.591   3.236  1.1570  1.0753  1.4139
  358bbb    H1410731   8.593   2.531   3.274 -0.2588  0.3025 -1.9314
  358bbb     C810732   8.566   1.981   2.905 -0.0950  0.4972 -0.5668
  358bbb    H1510733   8.513   1.956   2.812 -0.9638  1.0450 -0.2408
  358bbb    H1610734   8.662   1.932   2.887 -0.3610 -0.2333 -0.0330
  358bbb     C910735   8.472   2.566   2.606 -0.3092  0.4992  0.4779
  358bbb    H1710736   8.577   2.575   2.637  0.0533 -0.7261 -0.2980
  358bbb    H1810737   8.429   2.654   2.558 -1.9791 -1.2167 -1.3552
  358bbb     O110738   8.433   2.461   3.395 -0.6427  0.3375  0.1754
  358bbb    H1910739   8.309   2.358   2.944  0.8473 -0.2321 -0.1647
  359bbb     N110740   8.346   1.998   1.649  0.3538  0.2908  0.1870
  359bbb     C110741   8.343   2.151   1.650 -0.3773  0.2809  0.8596
  359bbb     H110742   8.410   2.188   1.573 -0.7943 -1.0552 -0.1767
  359bbb     H210743   8.386   2.177   1.747  2.6405 -0.1920 -0.2422
  359bbb     C210744   8.307   1.949   1.507 -0.4473  0.5038 -0.1361
  359bbb     H310745   8.387   1.959   1.433 -1.0544 -1.8290 -1.2060
  359bbb     H410746   8.217   1.999   1.472  0.2822  3.0127  1.3351
  359bbb     C310747   8.491   1.954   1.671 -0.0818 -0.2161 -1.1630
  359bbb     H510748   8.535   2.041   1.720  1.5058 -0.5034 -2.0099
  359bbb     H610749   8.545   1.948   1.576  0.6754  2.2569 -0.9506
  359bbb     C410750   8.524   1.827   1.751  0.4428 -0.3343 -0.5135
  359bbb     H710751   8.633   1.817   1.743  0.5622 -0.6233  1.0570
  359bbb     H810752   8.467   1.745   1.705 -0.3369  0.4464 -0.9604
  359bbb     C510753   8.208   2.225   1.618 -0.0151 -0.8845 -0.1206
  359bbb     H910754   8.162   2.198   1.522  2.3225  1.1704 -1.9738
  359bbb    H1010755   8.229   2.333   1.618  0.6233 -0.9913  1.0301
  359bbb     C610756   8.261   1.805   1.491 -0.6476 -0.1190  0.6536
  359bbb    H1110757   8.207   1.775   1.582  1.1028 -1.4365  1.3014
  359bbb    H1210758   8.355   1.749   1.484  0.5186  1.9433 -3.6212
  359bbb     C710759   8.495   1.846   1.903  0.1142  0.1401  0.1048
  359bbb    H1310760   8.542   1.934   1.946 -0.7627  0.8585 -0.3732
  359bbb    H1410761   8.525   1.755   1.957 -1.0841  0.9271  2.1964
  359bbb     C810762   8.184   1.777   1.363  0.2791  0.2558  0.2261
  359bbb    H1510763   8.086   1.826   1.356  0.4825  0.5842 -0.4762
  359bbb    H1610764   8.238   1.814   1.274 -1.8582 -0.3020 -1.4009
  359bbb     C910765   8.102   2.206   1.731 -0.1228 -0.1393 -0.1282
  359bbb    H1710766   8.025   2.280   1.706 -0.4123  0.4024  2.1906
  359bbb    H1810767   8.144   2.221   1.831 -0.0220 -0.9724 -0.0405
  359bbb     O110768   8.352   1.866   1.913  0.4086  0.1209 -0.1435
  359bbb    H1910769   8.278   1.973   1.722  1.4082 -1.6472  0.5732
  360bbb     N110770   7.903   1.160   2.163  0.2116  0.2274  0.3617
  360bbb     C110771   7.884   1.088   2.036  0.4943 -0.1268 -0.0639
  360bbb     H110772   7.980   1.106   1.987  0.2507  3.7429  0.5912
  360bbb     H210773   7.813   1.148   1.979  0.9999  2.9675  2.3498
  360bbb     C210774   7.769   1.181   2.230  0.2218  0.2025 -0.2731
  360bbb     H310775   7.720   1.085   2.246 -0.2275  0.2834 -1.1040
  360bbb     H410776   7.698   1.247   2.181 -2.9691 -2.4928  0.3593
  360bbb     C310777   8.005   1.078   2.244  0.8266  0.7084  0.4202
  360bbb     H510778   8.054   1.009   2.174  0.2334  0.2113  0.4878
  360bbb     H610779   7.952   1.012   2.313 -0.7082  1.5192  0.0536
  360bbb     C410780   8.121   1.152   2.311  0.0111 -0.3821  0.0071
  360bbb     H710781   8.179   1.080   2.370 -0.5023  0.1127  1.1512
  360bbb     H810782   8.081   1.217   2.390  0.6681  0.4341 -0.3084
  360bbb     C510783   7.840   0.937   2.040  0.1595  0.4501 -0.7511
  360bbb     H910784   7.740   0.933   2.086 -0.1055  2.4154 -1.0714
  360bbb    H1010785   7.904   0.876   2.105  1.2296  2.5947  0.3260
  360bbb     C610786   7.789   1.239   2.371  0.2408 -0.0878  1.0075
  360bbb    H1110787   7.848   1.332   2.368 -2.1193  1.4852  0.1534
  360bbb    H1210788   7.846   1.166   2.428  0.7125 -0.7150 -0.2196
  360bbb     C710789   8.211   1.240   2.216  0.0549  0.0636  0.7563
  360bbb    H1310790   8.257   1.179   2.137  2.2430  1.9332  0.4686
  360bbb    H1410791   8.300   1.277   2.269  0.2816 -0.8203  1.0154
  360bbb     C810792   7.655   1.273   2.447 -0.3244  0.4807  0.2485
  360bbb    H1510793   7.674   1.297   2.552  0.1063  0.1714  0.2390
  360bbb    H1610794   7.607   1.359   2.398  0.1368  1.9683  2.2844
  360bbb     C910795   7.857   0.872   1.894 -0.1376  0.1053  0.6343
  360bbb    H1710796   7.837   0.765   1.902  1.2433 -0.0601  2.5836
  360bbb    H1810797   7.961   0.883   1.863  0.4841 -0.5038  2.3883
  360bbb     O110798   8.125   1.344   2.165  0.2952 -0.3021  0.5151
  360bbb    H1910799   7.955   1.247   2.144  1.4908 -1.0746 -2.7522
  361bbb     N110800   7.887   0.811   3.209  0.2626  0.0691  0.3913
  361bbb     C110801   7.833   0.696   3.297 -0.1050 -0.1137 -0.7558
  361bbb     H110802   7.727   0.707   3.319 -0.5011 -0.7910 -2.2003
  361bbb     H210803   7.886   0.701   3.392  0.5278 -0.3370 -1.0920
  361bbb     C210804   7.782   0.919   3.191 -0.0275 -0.1109 -0.1203
  361bbb     H310805   7.830   1.006   3.146 -1.8292  0.5366 -0.8571
  361bbb     H410806   7.753   0.942   3.293  2.1917 -0.2816  0.6131
  361bbb     C310807   7.999   0.881   3.276  0.5592  0.7443  0.2164
  361bbb     H510808   7.959   0.917   3.371 -2.7188  1.6075 -1.3127
  361bbb     H610809   8.017   0.974   3.222  0.8626 -0.8170 -2.5794
  361bbb     C410810   8.131   0.804   3.277 -0.2378  0.5614 -0.0219
  361bbb     H710811   8.144   0.741   3.188  2.9577  3.3151 -1.7321
  361bbb     H810812   8.136   0.732   3.360 -0.7612  0.5274 -0.0136
  361bbb     C510813   7.839   0.554   3.243 -0.0095  0.3094  0.4035
  361bbb     H910814   7.930   0.529   3.188 -0.3562  0.4426 -0.2394
  361bbb    H1010815   7.757   0.557   3.170  0.5574 -1.0689 -0.3421
  361bbb     C610816   7.661   0.885   3.107  0.0595 -0.7776 -0.3182
  361bbb    H1110817   7.590   0.965   3.131 -0.0833 -1.0750  0.2556
  361bbb    H1210818   7.612   0.801   3.158 -1.7897 -0.5778 -1.6430
  361bbb     C710819   8.253   0.907   3.275  0.3356 -0.0447 -0.5445
  361bbb    H1310820   8.348   0.862   3.243 -0.6951 -2.1124 -0.8724
  361bbb    H1410821   8.263   0.965   3.367  0.7941 -1.0297  0.0438
  361bbb     C810822   7.685   0.851   2.957 -0.3745  0.3537  0.0366
  361bbb    H1510823   7.589   0.869   2.907 -2.5642 -1.1962  3.3637
  361bbb    H1610824   7.766   0.908   2.909  0.8419 -1.5568 -0.2741
  361bbb     C910825   7.795   0.439   3.334  0.4982  0.0230 -0.0962
  361bbb    H1710826   7.816   0.343   3.284  1.4748 -0.1522  0.6203
  361bbb    H1810827   7.688   0.458   3.345  0.6267  0.3913  0.5564
  361bbb     O110828   8.223   1.006   3.170  0.4965  0.4517 -0.1867
  361bbb    H1910829   7.920   0.782   3.115  0.8655  3.6291 -0.6553
  362bbb     N110830   8.865   1.333   2.701  0.1503 -0.5687  0.5690
  362bbb     C110831   8.869   1.224   2.809  0.6129  0.0881 -0.1701
  362bbb     H110832   8.795   1.155   2.768 -0.9881  1.0435  0.9900
  362bbb     H210833   8.819   1.258   2.900  1.7329 -0.1926  0.5727
  362bbb     C210834   8.953   1.294   2.574  0.5336 -0.2819 -0.1562
  362bbb     H310835   8.884   1.301   2.489  1.4533 -0.9517 -0.9890
  362bbb     H410836   8.984   1.192   2.594 -1.2948 -0.7036  0.6543
  362bbb     C310837   8.725   1.358   2.665  0.2288  0.4795  0.2046
  362bbb     H510838   8.665   1.342   2.755 -2.2996  1.2043 -1.2581
  362bbb     H610839   8.693   1.284   2.592 -1.8646 -0.2662  1.7770
  362bbb     C410840   8.700   1.490   2.597 -0.4107 -0.3474  0.3161
  362bbb     H710841   8.770   1.511   2.515  1.3885 -1.2339  1.5821
  362bbb     H810842   8.717   1.573   2.667 -0.6562  0.5122 -0.6120
  362bbb     C510843   9.001   1.153   2.850 -0.6382  0.3796 -0.1821
  362bbb     H910844   9.050   1.122   2.756  0.8488  0.3498  0.5768
  362bbb    H1010845   8.990   1.059   2.905 -0.0512  1.0605  1.1176
  362bbb     C610846   9.078   1.377   2.550  0.1813  0.2570  0.0831
  362bbb    H1110847   9.141   1.325   2.477  0.4366  2.0062 -1.0235
  362bbb    H1210848   9.143   1.365   2.638  0.0332  1.5215  0.3961
  362bbb     C710849   8.559   1.520   2.545  0.3017 -0.0262 -0.4373
  362bbb    H1310850   8.531   1.441   2.474  0.8915 -1.7884  1.1894
  362bbb    H1410851   8.546   1.623   2.509 -0.5755  0.5117  1.2960
  362bbb     C810852   9.066   1.529   2.536  0.0834 -0.4823 -0.1610
  362bbb    H1510853   9.167   1.562   2.509 -0.4188  3.3931  1.9534
  362bbb    H1610854   8.999   1.553   2.453  1.1643 -1.1112 -1.2622
  362bbb     C910855   9.092   1.235   2.940 -0.1593 -0.3629  0.3028
  362bbb    H1710856   9.189   1.187   2.954  0.2822  0.3352 -0.2756
  362bbb    H1810857   9.048   1.238   3.040 -2.5547 -0.4332 -0.6797
  362bbb     O110858   8.463   1.497   2.652 -0.0304 -0.2272  0.1652
  362bbb    H1910859   8.916   1.411   2.746 -0.3460  0.8104 -1.1523
  363bbb     N110860   8.137   4.552   2.963  0.1520  0.1295  0.7176
  363bbb     C110861   8.019   4.631   3.024 -0.6018 -0.2053 -0.4902
  363bbb     H110862   8.053   4.728   3.062 -1.9179 -0.1735  0.7264
  363bbb     H210863   7.975   4.583   3.112  0.0353  2.5434  1.4799
  363bbb     C210864   8.226   4.519   3.069 -0.1903 -0.2954  0.0328
  363bbb     H310865   8.183   4.448   3.140 -1.3348  0.4865  0.1315
  363bbb     H410866   8.263   4.609   3.118 -2.6887 -0.0548  1.6180
  363bbb     C310867   8.087   4.425   2.899 -0.0999  0.2257  0.4193
  363bbb     H510868   8.175   4.378   2.855 -0.6476 -0.9419  0.5226
  363bbb     H610869   8.006   4.445   2.829 -0.6614 -0.1004  0.9721
  363bbb     C410870   8.017   4.315   2.991 -0.1941 -0.1171  0.4270
  363bbb     H710871   7.956   4.367   3.065  1.0918  1.5836  0.3649
  363bbb     H810872   8.099   4.263   3.042  0.1384 -2.1949 -1.9881
  363bbb     C510873   7.907   4.670   2.931 -0.3125 -0.9187  0.2686
  363bbb     H910874   7.838   4.586   2.921 -1.7228  0.3638 -1.3403
  363bbb    H1010875   7.942   4.697   2.831 -1.0796 -0.6616  0.0627
  363bbb     C610876   8.345   4.429   3.028  0.0330 -0.4677  0.0966
  363bbb    H1110877   8.308   4.330   2.998  0.6105 -1.0323  1.1679
  363bbb    H1210878   8.404   4.412   3.119 -0.8514 -1.4812  0.5052
  363bbb     C710879   7.948   4.209   2.895 -0.2299 -0.0987 -0.0762
  363bbb    H1310880   8.034   4.146   2.868  0.6614  1.9131 -2.4275
  363bbb    H1410881   7.915   4.259   2.803 -1.5812 -1.0508 -0.1322
  363bbb     C810882   8.444   4.496   2.930  0.1558 -0.3543  0.3188
  363bbb    H1510883   8.467   4.598   2.965 -0.3685  0.1766 -0.7999
  363bbb    H1610884   8.537   4.440   2.922 -0.0741 -1.1576  2.6318
  363bbb     C910885   7.827   4.796   2.997 -0.0187 -0.0852 -0.3573
  363bbb    H1710886   7.791   4.773   3.097  2.1533 -3.0679 -0.1342
  363bbb    H1810887   7.746   4.829   2.931  1.3449  2.1116 -1.0640
  363bbb     O110888   7.834   4.139   2.956 -0.0288  0.2515  0.4696
  363bbb    H1910889   8.177   4.618   2.894  0.8883 -0.6500  0.3893
  364bbb     N110890   6.963   3.830   3.528 -0.0080  0.4225 -0.6281
  364bbb     C110891   6.898   3.839   3.671 -0.8741  0.7769 -0.2497
  364bbb     H110892   6.967   3.774   3.726 -0.5324 -0.0336 -1.5868
  364bbb     H210893   6.795   3.801   3.674 -0.9099  0.9202  0.4660
  364bbb     C210894   6.879   3.912   3.440  0.3023 -0.3756  0.0729
  364bbb     H310895   6.891   4.019   3.459  1.1759 -0.2241 -1.2134
  364bbb     H410896   6.777   3.882   3.464  0.3140  0.0016  0.6195
  364bbb     C310897   7.110   3.869   3.514 -0.2684 -0.1572 -0.1783
  364bbb     H510898   7.121   3.977   3.526  2.3046 -0.3721  0.0027
  364bbb     H610899   7.143   3.858   3.410 -1.3418  1.4054 -0.7305
  364bbb     C410900   7.216   3.804   3.614  0.1256  0.0814  0.4860
  364bbb     H710901   7.207   3.696   3.603  1.4186 -0.2622  2.3603
  364bbb     H810902   7.184   3.828   3.717 -0.3728  0.6920  0.1969
  364bbb     C510903   6.901   3.966   3.752  0.2866  0.0584 -0.3470
  364bbb     H910904   7.003   3.998   3.777 -0.4932  0.7909  2.2466
  364bbb    H1010905   6.867   3.932   3.851  0.4584  0.9834  0.0448
  364bbb     C610906   6.909   3.878   3.294  0.4517 -0.1356  0.0457
  364bbb    H1110907   6.942   3.775   3.275 -3.0608 -1.5137  0.6667
  364bbb    H1210908   6.978   3.953   3.254 -0.0425  0.2711 -0.0533
  364bbb     C710909   7.369   3.850   3.605 -0.2141  0.3441  0.3002
  364bbb    H1310910   7.418   3.814   3.696 -0.4810 -0.6448  0.0660
  364bbb    H1410911   7.358   3.959   3.607 -0.3764  0.3482 -0.3795
  364bbb     C810912   6.785   3.915   3.206 -0.3169  0.4187 -0.1568
  364bbb    H1510913   6.757   4.020   3.221 -1.0810  0.1605  0.3127
  364bbb    H1610914   6.802   3.899   3.099 -0.1821  0.1613 -0.0974
  364bbb     C910915   6.828   4.085   3.695  0.9083 -0.3576  0.3193
  364bbb    H1710916   6.890   4.128   3.615  0.5119  1.0607  0.7440
  364bbb    H1810917   6.816   4.156   3.777 -1.2321 -1.4789  1.0740
  364bbb     O110918   7.426   3.793   3.482  0.0891  0.1767  0.2643
  364bbb    H1910919   6.957   3.734   3.492  3.1084  0.2642 -1.0174
  365bbb     N110920   7.836   3.297   1.702 -0.1004  1.0618 -0.0525
  365bbb     C110921   7.896   3.179   1.790  0.2401  0.0357 -0.1740
  365bbb     H110922   7.980   3.145   1.729  0.7985  2.0100 -0.5801
  365bbb     H210923   7.823   3.100   1.801 -3.5798  3.2722 -0.0322
  365bbb     C210924   7.801   3.259   1.561  0.0812 -0.4807  0.2779
  365bbb     H310925   7.706   3.206   1.556  0.1680 -0.5092 -2.6489
  365bbb     H410926   7.876   3.180   1.547 -0.2565 -0.6147 -0.9046
  365bbb     C310927   7.705   3.343   1.765  0.2715  0.6934 -0.2717
  365bbb     H510928   7.719   3.321   1.871  0.1384  0.9940 -0.1924
  365bbb     H610929   7.622   3.281   1.731 -0.7727  1.2648  1.1600
  365bbb     C410930   7.676   3.494   1.756  0.0073 -0.2347  0.0694
  365bbb     H710931   7.692   3.544   1.659  1.0717  3.2104  1.8535
  365bbb     H810932   7.760   3.544   1.806 -0.3199 -0.0946  0.4804
  365bbb     C510933   7.928   3.227   1.940 -0.1231 -0.1098 -0.5342
  365bbb     H910934   7.831   3.224   1.992  0.0274 -0.3865 -0.2707
  365bbb    H1010935   7.952   3.334   1.939 -1.4269  0.2254  0.3608
  365bbb     C610936   7.795   3.357   1.446 -0.0306  0.3426 -0.0428
  365bbb    H1110937   7.880   3.425   1.456  0.1199  0.2717 -0.7627
  365bbb    H1210938   7.703   3.417   1.443  1.6246  2.9855 -0.1755
  365bbb     C710939   7.543   3.529   1.823  0.0296  0.0354  0.8096
  365bbb    H1310940   7.466   3.471   1.771  0.0456 -1.0558  1.9674
  365bbb    H1410941   7.511   3.634   1.818  0.6165  0.3823  3.1875
  365bbb     C810942   7.819   3.277   1.310  0.1857  0.1228 -0.7722
  365bbb    H1510943   7.807   3.343   1.223 -0.5679 -0.0197 -0.7850
  365bbb    H1610944   7.924   3.249   1.324 -0.3337 -0.3212  3.5710
  365bbb     C910945   8.034   3.136   2.007 -0.4922 -0.4519 -0.0961
  365bbb    H1710946   8.043   3.166   2.112  0.8975 -0.6050 -0.1503
  365bbb    H1810947   8.132   3.140   1.958 -0.0978 -2.0102  0.4901
  365bbb     O110948   7.532   3.485   1.961  0.2490 -0.3438 -0.6307
  365bbb    H1910949   7.909   3.369   1.702  0.4090  0.6682  2.7160
  366bbb     N110950   7.030   2.669   2.270  0.1472 -0.4700  0.0970
  366bbb     C110951   7.030   2.572   2.146  0.1207 -0.8966  0.6767
  366bbb     H110952   6.933   2.522   2.157 -0.0246 -1.1350 -1.3660
  366bbb     H210953   7.108   2.498   2.166  0.6464 -0.0837  1.6857
  366bbb     C210954   7.009   2.591   2.396 -1.0464  0.1122  0.2313
  366bbb     H310955   7.004   2.659   2.481  1.7497 -0.9396  1.3498
  366bbb     H410956   7.101   2.533   2.398  0.1708  1.8089 -1.6438
  366bbb     C310957   7.158   2.746   2.277 -0.7411  0.6124  0.1798
  366bbb     H510958   7.177   2.762   2.171 -1.9828  0.6799 -0.0473
  366bbb     H610959   7.237   2.686   2.322  1.7876  2.1159 -1.9676
  366bbb     C410960   7.161   2.889   2.350 -0.1392 -0.3865  0.2972
  366bbb     H710961   7.125   2.874   2.453 -3.1105 -1.8104 -0.8400
  366bbb     H810962   7.088   2.945   2.291 -0.2743 -1.1718 -0.2999
  366bbb     C510963   7.020   2.636   2.002  0.0458  0.6705 -0.6226
  366bbb     H910964   7.117   2.676   1.971 -0.3424  1.0839 -1.3318
  366bbb    H1010965   6.939   2.710   2.001  0.0618  0.6927 -0.4127
  366bbb     C610966   6.886   2.501   2.407  0.4711 -0.7821  0.2639
  366bbb    H1110967   6.882   2.455   2.507 -0.2172 -0.4963  0.3765
  366bbb    H1210968   6.883   2.427   2.327 -0.2755  0.4910 -0.9285
  366bbb     C710969   7.301   2.953   2.337 -0.6662  0.5165  0.0975
  366bbb    H1310970   7.339   2.915   2.242 -1.0741 -1.9561  0.8242
  366bbb    H1410971   7.366   2.915   2.418 -0.2406  0.5045 -0.2453
  366bbb     C810972   6.753   2.578   2.383 -0.7437  0.3781  0.8321
  366bbb    H1510973   6.675   2.509   2.416  0.3880 -1.2805  0.1568
  366bbb    H1610974   6.749   2.671   2.442  3.7416  2.0989 -1.1007
  366bbb     C910975   6.982   2.542   1.891 -0.4144 -0.2416  0.2011
  366bbb    H1710976   7.048   2.455   1.880 -2.0551 -1.4301 -0.4988
  366bbb    H1810977   6.987   2.600   1.798 -2.2395  1.2427  0.9771
  366bbb     O110978   7.308   3.096   2.356  0.1081 -0.5542 -0.3973
  366bbb    H1910979   6.947   2.730   2.271  0.1650 -0.4291  2.0062
  367bbb     N110980   7.651   1.541   6.525  0.7667  0.2069 -0.6091
  367bbb     C110981   7.701   1.413   6.591  1.2502 -0.3509  0.4877
  367bbb     H110982   7.623   1.395   6.666 -0.6605 -1.4221 -1.6215
  367bbb     H210983   7.789   1.436   6.650  0.9487  0.7017  0.5385
  367bbb     C210984   7.651   1.653   6.624 -0.4901  0.3847 -0.3374
  367bbb     H310985   7.752   1.659   6.666  0.2031 -1.8322 -1.5324
  367bbb     H410986   7.586   1.617   6.704 -1.6901  0.1982 -1.3704
  367bbb     C310987   7.724   1.573   6.396  0.4690 -0.1451 -0.0012
  367bbb     H510988   7.679   1.655   6.339 -0.1270 -1.5979 -1.6946
  367bbb     H610989   7.721   1.481   6.338  2.7247 -0.1290 -0.2184
  367bbb     C410990   7.872   1.591   6.413 -0.6244 -0.6054  0.3951
  367bbb     H710991   7.918   1.492   6.414 -2.0702 -1.3101  0.5160
  367bbb     H810992   7.888   1.632   6.513  2.4359  1.1903 -0.7047
  367bbb     C510993   7.721   1.290   6.500  0.3639  0.4007 -0.5969
  367bbb     H910994   7.785   1.319   6.416 -0.6965  1.8090 -0.9697
  367bbb    H1010995   7.630   1.270   6.443 -0.0149 -0.1012  0.1594
  367bbb     C610996   7.592   1.782   6.571 -0.3974  0.1742 -0.5912
  367bbb    H1110997   7.506   1.765   6.505  0.0063  0.4085 -1.1845
  367bbb    H1210998   7.667   1.835   6.511 -0.5451  1.1306  0.0294
  367bbb     C710999   7.944   1.687   6.313 -1.0446  0.1500  0.5906
  367bbb    H1311000   8.049   1.694   6.341 -0.1988 -1.0318 -1.9650
  367bbb    H1411001   7.894   1.784   6.328  1.8343  1.9263 -0.3986
  367bbb     C811002   7.539   1.873   6.682  0.5070  0.4432 -0.4810
  367bbb    H1511003   7.492   1.958   6.631 -2.9003 -0.4821  0.8090
  367bbb    H1611004   7.457   1.826   6.738  0.2463  1.3753 -0.0591
  367bbb     C911005   7.768   1.169   6.584  0.4053 -0.0732  0.7874
  367bbb    H1711006   7.798   1.098   6.507  1.2639  2.6744 -1.5912
  367bbb    H1811007   7.691   1.127   6.651 -0.0080 -1.3225 -0.4162
  367bbb     O111008   7.936   1.643   6.179  0.0612 -0.6615  0.2636
  367bbb    H1911009   7.553   1.527   6.498  0.9381 -0.4876 -0.8920
  368bbb     N111010   8.278   2.250   6.157 -0.2296 -0.3857 -0.9048
  368bbb     C111011   8.321   2.362   6.063  0.2995 -0.1407 -0.4168
  368bbb     H111012   8.275   2.454   6.100  0.0907  0.0881 -1.2102
  368bbb     H211013   8.282   2.347   5.962 -0.5214  0.8720 -0.2678
  368bbb     C211014   8.300   2.302   6.301 -0.3289  0.6919  0.4101
  368bbb     H311015   8.402   2.337   6.314  0.6883 -2.0099  0.2890
  368bbb     H411016   8.288   2.210   6.359 -1.9670  0.0826 -0.7992
  368bbb     C311017   8.128   2.227   6.123  0.6059  1.1671  0.5721
  368bbb     H511018   8.112   2.211   6.016 -3.0575 -1.7958  1.3520
  368bbb     H611019   8.072   2.315   6.156 -2.1982 -0.1184 -0.3898
  368bbb     C411020   8.055   2.102   6.190  0.4348  0.1731 -0.7025
  368bbb     H711021   8.052   2.108   6.299 -1.6511  3.2398 -0.7812
  368bbb     H811022   8.111   2.015   6.155  1.0974 -0.6818  2.2145
  368bbb     C511023   8.471   2.375   6.033  0.6225  0.1720 -0.1689
  368bbb     H911024   8.490   2.444   5.950  3.0498  0.1319  0.2762
  368bbb    H1011025   8.499   2.276   5.995  0.3283  0.5843 -1.5289
  368bbb     C611026   8.203   2.412   6.361 -0.1593  0.6312 -0.0160
  368bbb    H1111027   8.100   2.381   6.346 -0.6034  1.6992  0.6690
  368bbb    H1211028   8.227   2.507   6.312  1.4817 -0.5351 -1.5832
  368bbb     C711029   7.908   2.094   6.145  0.1522  0.0781  0.2154
  368bbb    H1311030   7.858   2.190   6.163  1.6474  0.6711  1.4166
  368bbb    H1411031   7.846   2.015   6.191  0.1710 -0.4841 -0.6966
  368bbb     C811032   8.229   2.419   6.509  0.1374  0.6819  0.6818
  368bbb    H1511033   8.208   2.319   6.550 -0.3708  0.2037 -0.7126
  368bbb    H1611034   8.336   2.440   6.518 -0.1003  2.0252  0.5418
  368bbb     C911035   8.565   2.405   6.150  0.0430  1.0560 -0.3465
  368bbb    H1711036   8.661   2.430   6.104  1.4495 -1.6394  0.8810
  368bbb    H1811037   8.576   2.315   6.211 -0.5980  0.5703 -0.9369
  368bbb     O111038   7.912   2.077   5.996  0.0666  0.3437 -0.7716
  368bbb    H1911039   8.337   2.166   6.145  2.9111  1.7657 -1.9609
  369bbb     N111040   8.205   3.504   6.233 -0.0553 -0.7743 -0.2736
  369bbb     C111041   8.092   3.447   6.146  0.1911  0.1693  0.2540
  369bbb     H111042   8.050   3.531   6.091 -0.3879  0.3948  1.0232
  369bbb     H211043   8.024   3.416   6.225  1.4741  1.1861  1.8108
  369bbb     C211044   8.154   3.630   6.290  1.1860 -0.3484  0.2060
  369bbb     H311045   8.215   3.647   6.379  0.0859 -1.1003  1.1308
  369bbb     H411046   8.048   3.616   6.311  0.7101  0.8595 -1.2289
  369bbb     C311047   8.257   3.400   6.332  0.0312  0.0075  0.2022
  369bbb     H511048   8.272   3.308   6.274 -2.2724 -1.0635  1.1901
  369bbb     H611049   8.184   3.360   6.402 -0.2394 -0.6690 -0.4450
  369bbb     C411050   8.389   3.429   6.404  0.2918 -0.4255  0.7904
  369bbb     H711051   8.370   3.506   6.480  0.5340  1.2088 -0.7326
  369bbb     H811052   8.454   3.476   6.329 -1.1870  0.3085 -0.0525
  369bbb     C511053   8.125   3.331   6.049 -0.0451  0.0091  0.0063
  369bbb     H911054   8.235   3.331   6.047 -0.0178 -0.3199  0.9063
  369bbb    H1011055   8.085   3.356   5.950 -2.0540 -0.9764  0.5248
  369bbb     C611056   8.159   3.752   6.188  0.7273  0.6132 -0.2470
  369bbb    H1111057   8.071   3.816   6.200  0.3888  0.3502 -1.1980
  369bbb    H1211058   8.150   3.728   6.081 -2.6907 -1.5117  0.3611
  369bbb     C711059   8.461   3.309   6.468  0.0045 -0.1309  0.0884
  369bbb    H1311060   8.403   3.256   6.544  0.3862 -1.4524 -0.5175
  369bbb    H1411061   8.554   3.346   6.514 -1.0601  1.7962  0.8151
  369bbb     C811062   8.279   3.846   6.212 -0.3744 -0.0609  0.2740
  369bbb    H1511063   8.295   3.917   6.130 -1.2967  0.1512  0.2702
  369bbb    H1611064   8.273   3.906   6.304  2.0597 -0.0493  0.5102
  369bbb     C911065   8.075   3.188   6.092 -0.1780 -0.4768  0.4816
  369bbb    H1711066   8.047   3.135   6.000  0.0613  0.6668 -0.2707
  369bbb    H1811067   7.987   3.207   6.155  0.3460 -0.7577  1.3194
  369bbb     O111068   8.491   3.204   6.369 -0.3501 -0.0874  0.6899
  369bbb    H1911069   8.281   3.540   6.173  0.1213 -0.0629  0.3583
  370bbb     N111070   9.055   2.981   6.217 -0.5529 -0.1120 -0.0328
  370bbb     C111071   9.123   3.058   6.107 -0.3457  0.3948  0.2322
  370bbb     H111072   9.115   3.166   6.125 -0.2654  0.3472  0.5592
  370bbb     H211073   9.062   3.039   6.018 -0.5483  0.4149  0.3658
  370bbb     C211074   9.047   3.072   6.341  0.2152  0.3066  0.4820
  370bbb     H311075   9.003   3.171   6.325  1.4170  0.5372 -1.8759
  370bbb     H411076   9.151   3.098   6.362  0.4512  0.3280 -0.6571
  370bbb     C311077   8.925   2.924   6.169  0.7113  0.1774 -0.1028
  370bbb     H511078   8.859   3.003   6.133  0.7641  0.2416 -0.0574
  370bbb     H611079   8.878   2.870   6.251  0.7186  1.4133  0.7347
  370bbb     C411080   8.928   2.819   6.058 -0.1298  0.0116  0.0485
  370bbb     H711081   8.971   2.726   6.097 -1.4856  0.0481  1.7387
  370bbb     H811082   8.999   2.858   5.984  0.4180  0.3851  0.7583
  370bbb     C511083   9.265   3.007   6.078  0.0227 -0.6323  0.7655
  370bbb     H911084   9.296   3.048   5.982  0.3825 -0.5977  0.8944
  370bbb    H1011085   9.261   2.900   6.057  1.2516 -0.1535 -2.4076
  370bbb     C611086   9.007   3.000   6.470  0.2710  0.1991  0.7970
  370bbb    H1111087   9.068   2.910   6.482  0.2827 -0.0822 -1.0534
  370bbb    H1211088   8.909   2.951   6.465  1.0748 -1.4336  0.5092
  370bbb     C711089   8.788   2.780   5.997 -0.1577  0.5898  0.0478
  370bbb    H1311090   8.720   2.748   6.077  1.4182  0.3678  1.3502
  370bbb    H1411091   8.801   2.700   5.923  2.8800  0.3380  0.7065
  370bbb     C811092   9.030   3.070   6.604 -0.6222  0.0339  0.3846
  370bbb    H1511093   8.959   3.150   6.629  0.4349  0.6479  1.5511
  370bbb    H1611094   9.023   2.986   6.674  2.6212 -0.0951  0.7448
  370bbb     C911095   9.372   3.039   6.190  0.0779 -0.6398 -0.1145
  370bbb    H1711096   9.351   3.131   6.246  0.3340 -0.5445 -0.1739
  370bbb    H1811097   9.466   3.051   6.133  0.9563 -0.4893  1.3168
  370bbb     O111098   8.734   2.901   5.941 -0.3826 -0.1349  0.9037
  370bbb    H1911099   9.123   2.905   6.233  1.6235  1.2237 -2.2823
  371bbb     N111100   6.320   3.147   6.490  0.2475  0.1103  0.1000
  371bbb     C111101   6.310   3.287   6.429  0.1766 -0.6713 -0.0427
  371bbb     H111102   6.399   3.308   6.370 -1.7494  0.2877 -2.8182
  371bbb     H211103   6.317   3.347   6.520  0.8340 -1.0911  0.1894
  371bbb     C211104   6.459   3.118   6.552  0.1312 -0.1366 -0.1880
  371bbb     H311105   6.456   3.017   6.594 -0.1652 -0.2870 -0.5639
  371bbb     H411106   6.460   3.190   6.634 -1.3292 -1.5513  1.1378
  371bbb     C311107   6.219   3.131   6.604 -0.3013  0.2490 -0.7800
  371bbb     H511108   6.138   3.205   6.607 -0.2068  0.3207  1.6710
  371bbb     H611109   6.276   3.154   6.694  0.2890 -0.6091 -0.9304
  371bbb     C411110   6.156   2.991   6.615 -0.5916 -0.1689 -0.6564
  371bbb     H711111   6.083   2.993   6.697  0.8978 -0.4552  0.7282
  371bbb     H811112   6.231   2.916   6.641  0.4514  1.0312 -0.1151
  371bbb     C511113   6.182   3.312   6.345 -0.2276  0.0798 -0.9836
  371bbb     H911114   6.091   3.292   6.402 -0.3482  0.6841 -0.9574
  371bbb    H1011115   6.181   3.243   6.259  1.4114 -0.3103 -0.7200
  371bbb     C611116   6.570   3.128   6.449 -0.6622 -0.4970  0.3283
  371bbb    H1111117   6.577   3.227   6.401 -0.4068 -1.2034 -1.1422
  371bbb    H1211118   6.546   3.061   6.366 -1.7750 -0.7991  0.8771
  371bbb     C711119   6.093   2.931   6.483 -0.1347  0.1279  0.0374
  371bbb    H1311120   6.026   3.005   6.436  1.7734  1.1117 -1.2886
  371bbb    H1411121   6.032   2.841   6.500 -2.0765  1.1156 -1.2454
  371bbb     C811122   6.707   3.097   6.514  0.0269  0.1696  0.6539
  371bbb    H1511123   6.723   3.150   6.608  0.8581 -1.9627  1.7904
  371bbb    H1611124   6.718   2.991   6.540 -2.7793  0.0874  1.9056
  371bbb     C911125   6.168   3.456   6.282 -0.4409  0.1487 -0.2290
  371bbb    H1711126   6.159   3.531   6.362  1.5244  0.0699  0.1145
  371bbb    H1811127   6.071   3.465   6.232 -0.8286  0.9226  0.6368
  371bbb     O111128   6.201   2.919   6.379  0.1523  0.0731  0.1127
  371bbb    H1911129   6.300   3.086   6.410 -2.7748  1.6173 -0.4513
  372bbb     N111130   6.143   3.025   5.628  0.2611  0.3797  0.1107
  372bbb     C111131   6.283   3.033   5.688 -0.5275  0.3268 -0.1469
  372bbb     H111132   6.286   2.970   5.777 -1.2503 -1.3893 -1.2753
  372bbb     H211133   6.315   3.131   5.723 -0.3433 -0.6995  2.8188
  372bbb     C211134   6.127   3.106   5.509  0.1409 -0.5688 -0.7262
  372bbb     H311135   6.035   3.069   5.464 -0.8094  0.8387 -0.0278
  372bbb     H411136   6.212   3.080   5.446  1.0629  1.8900 -0.5884
  372bbb     C311137   6.126   2.879   5.585 -0.0039 -0.0140  0.3191
  372bbb     H511138   6.215   2.831   5.544 -1.1606  1.1559 -4.1214
  372bbb     H611139   6.052   2.866   5.506 -1.1704 -0.0248  1.3813
  372bbb     C411140   6.092   2.790   5.707  0.1831 -0.8327  0.2048
  372bbb     H711141   5.992   2.831   5.727 -0.2680 -1.6082 -0.4019
  372bbb     H811142   6.161   2.795   5.792  1.7189  0.3649 -1.0726
  372bbb     C511143   6.394   2.980   5.589  0.4108  0.0715 -0.2253
  372bbb     H911144   6.375   3.012   5.486  0.9276  2.6116  0.3821
  372bbb    H1011145   6.389   2.871   5.597 -0.9750  0.1712  0.7086
  372bbb     C611146   6.125   3.257   5.522 -0.5923 -0.1835  0.2589
  372bbb    H1111147   6.173   3.309   5.438 -2.4930 -0.9441 -1.3586
  372bbb    H1211148   6.174   3.291   5.615  0.3952 -1.6829  0.3239
  372bbb     C711149   6.059   2.648   5.667  0.0726 -0.2645 -0.3138
  372bbb    H1311150   6.156   2.599   5.655  0.2669 -0.7368  2.4709
  372bbb    H1411151   5.999   2.655   5.575  0.6640 -1.0850 -0.7757
  372bbb     C811152   5.981   3.308   5.540  0.3818  0.1910 -0.2937
  372bbb    H1511153   5.977   3.416   5.557 -0.7944  0.0127  0.6873
  372bbb    H1611154   5.920   3.269   5.457  0.3035  0.0457 -0.1683
  372bbb     C911155   6.538   3.029   5.630  1.2486  0.0823 -0.4100
  372bbb    H1711156   6.589   3.049   5.535 -1.9934 -4.7785 -3.6744
  372bbb    H1811157   6.583   2.946   5.687  0.3846 -0.3522 -0.3474
  372bbb     O111158   5.988   2.581   5.776  0.1239 -0.1143 -0.0572
  372bbb    H1911159   6.069   3.051   5.695  1.7832  1.4588  1.4200
  373bbb     N111160   6.291   1.887   7.349 -0.3791 -0.7110 -0.1427
  373bbb     C111161   6.227   2.015   7.298  0.8696 -0.2346 -0.6838
  373bbb     H111162   6.191   2.071   7.383  1.5423  0.4786 -0.8550
  373bbb     H211163   6.141   1.980   7.240 -0.1542 -3.3293  2.4153
  373bbb     C211164   6.186   1.805   7.420  0.2216  0.6333  0.8129
  373bbb     H311165   6.145   1.868   7.499 -0.1510 -1.2587  2.2004
  373bbb     H411166   6.228   1.716   7.467 -1.7354 -1.7358 -1.6078
  373bbb     C311167   6.357   1.808   7.239 -0.4503  0.1944 -0.1990
  373bbb     H511168   6.429   1.874   7.190  0.9152 -0.6636  0.6089
  373bbb     H611169   6.284   1.769   7.168 -1.4561  0.3869  0.7073
  373bbb     C411170   6.439   1.676   7.286  0.7083  0.5690  0.9967
  373bbb     H711171   6.368   1.607   7.334  0.5927 -2.1482 -2.6137
  373bbb     H811172   6.511   1.704   7.364  0.3575  2.6251  0.6198
  373bbb     C511173   6.315   2.121   7.220 -0.8599 -0.2172  0.4328
  373bbb     H911174   6.258   2.214   7.218 -1.1365 -0.4008 -1.0132
  373bbb    H1011175   6.310   2.087   7.116  0.9626 -0.3091  0.3436
  373bbb     C611176   6.070   1.757   7.335  0.7370 -0.1135 -0.0350
  373bbb    H1111177   6.100   1.711   7.240  0.2773  0.4850 -0.4774
  373bbb    H1211178   6.000   1.834   7.300  0.6655 -0.5872 -0.9760
  373bbb     C711179   6.499   1.585   7.167 -0.2606 -0.5629 -0.1440
  373bbb    H1311180   6.421   1.539   7.105 -0.1283  1.1232 -1.6633
  373bbb    H1411181   6.561   1.505   7.210 -1.7011 -0.9340  1.2921
  373bbb     C811182   5.991   1.643   7.407  0.1278  0.4299  0.6166
  373bbb    H1511183   5.922   1.602   7.332  0.3681  2.2408 -0.6725
  373bbb    H1611184   6.059   1.562   7.436 -0.0042 -0.8341 -2.2471
  373bbb     C911185   6.464   2.119   7.262 -0.1959 -0.0346  0.5269
  373bbb    H1711186   6.507   2.201   7.204 -1.5332  0.0222 -0.4436
  373bbb    H1811187   6.514   2.027   7.232  1.8636  1.0473  0.4721
  373bbb     O111188   6.567   1.675   7.078  0.4934 -0.5704 -0.1898
  373bbb    H1911189   6.357   1.909   7.425  0.5800 -1.4232 -0.7462
  374bbb     N111190   6.152   1.782   6.546 -0.2023 -0.0235  0.2046
  374bbb     C111191   6.044   1.888   6.551  0.2228 -0.5132  0.4106
  374bbb     H111192   6.039   1.919   6.656  0.3748 -2.6359  1.0976
  374bbb     H211193   5.947   1.839   6.540 -0.8666  1.7128 -0.3630
  374bbb     C211194   6.123   1.690   6.664 -0.0840  0.3590  0.2563
  374bbb     H311195   6.129   1.757   6.750 -0.0320  1.2682 -0.4463
  374bbb     H411196   6.213   1.628   6.657  0.1849  0.9565 -3.5939
  374bbb     C311197   6.153   1.706   6.416 -0.3576  0.6608  1.0172
  374bbb     H511198   6.141   1.785   6.341  1.1534  1.0157  1.1275
  374bbb     H611199   6.073   1.632   6.412  1.6349 -1.5687  0.2492
  374bbb     C411200   6.281   1.615   6.400 -0.0676  0.3861 -0.3789
  374bbb     H711201   6.269   1.553   6.310  1.8465 -1.6089  0.6308
  374bbb     H811202   6.287   1.548   6.488  3.5051  0.5668 -0.3351
  374bbb     C511203   6.056   2.001   6.449 -0.2568  0.2529 -0.1936
  374bbb     H911204   5.962   2.058   6.450 -2.6167 -3.2680 -1.8936
  374bbb    H1011205   6.058   1.953   6.351  1.2857  0.7879 -0.4516
  374bbb     C611206   6.000   1.600   6.657  0.0254  0.4203 -0.5913
  374bbb    H1111207   5.993   1.536   6.568 -0.7459 -0.2276 -0.0703
  374bbb    H1211208   5.908   1.659   6.662 -0.7158 -0.7563  0.0626
  374bbb     C711209   6.409   1.696   6.380  0.8089 -0.0776 -0.2803
  374bbb    H1311210   6.407   1.736   6.278 -1.4112 -1.4826 -0.8502
  374bbb    H1411211   6.495   1.630   6.399  0.7730  0.3708  1.6644
  374bbb     C811212   5.998   1.498   6.774 -0.0662  1.1484  0.2008
  374bbb    H1511213   5.987   1.547   6.871 -3.2745  0.9747  0.0279
  374bbb    H1611214   5.920   1.422   6.761 -0.2003  0.8227  2.4522
  374bbb     C911215   6.182   2.095   6.450  0.4896  0.6633 -0.1198
  374bbb    H1711216   6.191   2.158   6.361 -0.8348 -0.0693 -0.8001
  374bbb    H1811217   6.266   2.027   6.468  0.9051  1.0847 -0.4542
  374bbb     O111218   6.422   1.807   6.477 -0.0853 -0.6773 -0.1690
  374bbb    H1911219   6.248   1.818   6.553  0.5211 -2.0450  1.7334
  375bbb     N111220   6.234   0.297   5.328  0.1611 -0.2325 -0.3189
  375bbb     C111221   6.203   0.148   5.341  0.4778  0.3661 -0.2383
  375bbb     H111222   6.095   0.139   5.329 -0.1932  1.0060  3.9630
  375bbb     H211223   6.211   0.114   5.444  1.6264 -0.8512 -0.7066
  375bbb     C211224   6.136   0.369   5.419 -0.3373  0.3258 -0.3690
  375bbb     H311225   6.039   0.337   5.380  0.3020 -1.3462 -0.6942
  375bbb     H411226   6.151   0.477   5.418 -3.7824  0.9026 -1.1135
  375bbb     C311227   6.377   0.323   5.373 -0.7686 -0.3252 -0.3875
  375bbb     H511228   6.450   0.258   5.324 -0.9840 -0.5252 -0.4489
  375bbb     H611229   6.382   0.295   5.478  1.1604  0.9196 -0.1120
  375bbb     C411230   6.419   0.471   5.385  0.0127 -0.5832  0.0486
  375bbb     H711231   6.359   0.524   5.460 -3.1408 -1.7482 -1.4813
  375bbb     H811232   6.400   0.527   5.292  2.1847 -0.9705 -0.6784
  375bbb     C511233   6.275   0.048   5.256 -0.4181  0.7881 -0.4062
  375bbb     H911234   6.380   0.059   5.288 -0.1836 -0.2256 -0.7905
  375bbb    H1011235   6.271   0.069   5.148 -1.0750 -1.7579 -0.9460
  375bbb     C611236   6.128   0.328   5.563  0.5959 -0.1305 -0.1074
  375bbb    H1111237   6.225   0.310   5.611 -0.2836 -1.1520  1.3547
  375bbb    H1211238   6.077   0.234   5.588  0.2689 -0.3431 -1.4527
  375bbb     C711239   6.571   0.483   5.409  0.6554  0.4539  0.1729
  375bbb    H1311240   6.602   0.401   5.476 -0.3446 -0.9526 -0.9996
  375bbb    H1411241   6.595   0.581   5.451 -0.2756  1.7747 -2.1513
  375bbb     C811242   6.042   0.430   5.636  0.1788  0.2482 -0.7420
  375bbb    H1511243   6.027   0.411   5.743  1.9066 -0.9683 -0.6711
  375bbb    H1611244   6.091   0.527   5.619  1.8364 -0.6555 -1.3906
  375bbb     C911245   6.237  -0.098   5.276  0.9937  0.8369 -0.7527
  375bbb    H1711246   6.301  -0.158   5.210 -0.5442 -0.2670 -1.2954
  375bbb    H1811247   6.130  -0.105   5.253  0.9047 -0.7052  0.0060
  375bbb     O111248   6.642   0.459   5.285  0.1643 -0.2623  0.1588
  375bbb    H1911249   6.221   0.324   5.229 -1.2447  1.1236  0.1869
  376bbb     N111250   6.964  -0.011   5.035 -0.0103 -0.4119 -0.2906
  376bbb     C111251   7.013  -0.121   4.946 -0.7633  0.5397  0.2617
  376bbb     H111252   7.076  -0.082   4.866 -0.1584 -2.7860 -1.0478
  376bbb     H211253   6.919  -0.152   4.899  0.5266 -3.0376 -0.2075
  376bbb     C211254   7.071   0.091   5.054 -0.2600 -0.0163 -0.3933
  376bbb     H311255   7.087   0.151   4.965 -1.6068 -0.7704 -1.1792
  376bbb     H411256   7.160   0.029   5.065  0.2627  0.5453 -1.3533
  376bbb     C311257   6.851   0.053   4.963  0.1830 -0.6137  0.5554
  376bbb     H511258   6.889   0.063   4.861  1.9780  0.2261  1.2484
  376bbb     H611259   6.836   0.153   5.003  0.6178 -0.3120 -0.0208
  376bbb     C411260   6.717  -0.021   4.989  0.3492  0.0350  0.1214
  376bbb     H711261   6.697  -0.020   5.097  0.6824  2.0088  0.2129
  376bbb     H811262   6.720  -0.126   4.959  1.3251 -0.2485  1.1472
  376bbb     C511263   7.079  -0.240   5.025  0.5407 -0.9088  0.1929
  376bbb     H911264   7.102  -0.305   4.940 -0.6033  0.3485 -1.1106
  376bbb    H1011265   6.996  -0.287   5.079  0.2202  0.9267  1.3946
  376bbb     C611266   7.075   0.177   5.182  0.6945  0.6480  0.4913
  376bbb    H1111267   7.097   0.116   5.271  1.6166 -0.1052 -0.2214
  376bbb    H1211268   6.974   0.217   5.196  0.9416  1.4927 -0.0890
  376bbb     C711269   6.604   0.060   4.917  0.5245  0.2005  0.5164
  376bbb    H1311270   6.516  -0.003   4.931  0.5693  0.2902  1.2370
  376bbb    H1411271   6.630   0.063   4.811  0.5723 -1.9272  0.4260
  376bbb     C811272   7.186   0.282   5.180 -0.7318 -0.0361  0.0588
  376bbb    H1511273   7.184   0.334   5.277 -1.1946 -0.4249  0.2612
  376bbb    H1611274   7.280   0.231   5.160 -0.8855  0.5650 -2.5898
  376bbb     C911275   7.195  -0.201   5.124  0.0351 -0.3291  0.5984
  376bbb    H1711276   7.233  -0.288   5.179 -1.1811 -0.5453  1.1321
  376bbb    H1811277   7.165  -0.132   5.204  1.8948  1.8789 -0.4766
  376bbb     O111278   6.593   0.192   4.977 -0.6241 -0.3508  0.3576
  376bbb    H1911279   6.939  -0.045   5.129  0.7381 -1.6754 -0.5351
  377bbb     N111280   7.364   0.776   6.463  0.5854  0.2130 -0.6341
  377bbb     C111281   7.501   0.710   6.434 -0.6007  0.1171  0.0255
  377bbb     H111282   7.475   0.605   6.421 -1.4099  0.2924  0.1784
  377bbb     H211283   7.555   0.716   6.529  1.3885  0.8840 -1.0854
  377bbb     C211284   7.379   0.910   6.528 -0.2845  0.2281  0.3085
  377bbb     H311285   7.406   0.981   6.450 -1.1405 -0.2846 -0.4662
  377bbb     H411286   7.470   0.908   6.588  1.6871  1.9525 -2.4015
  377bbb     C311287   7.269   0.762   6.344  0.0299 -0.3069  0.8052
  377bbb     H511288   7.329   0.759   6.252 -0.6324  2.0926  0.2169
  377bbb     H611289   7.214   0.855   6.334 -0.5077 -0.4594  2.1482
  377bbb     C411290   7.177   0.635   6.342  0.3578 -0.0887 -0.3735
  377bbb     H711291   7.143   0.616   6.445  0.9304 -0.4918 -0.2575
  377bbb     H811292   7.234   0.547   6.309 -1.8910 -1.7440 -0.0926
  377bbb     C511293   7.589   0.772   6.330 -0.0423 -0.4849 -0.3908
  377bbb     H911294   7.618   0.876   6.346 -0.4378 -0.5450  0.8849
  377bbb    H1011295   7.537   0.776   6.233 -2.5220 -0.3466  0.8641
  377bbb     C611296   7.258   0.959   6.608 -0.0315 -0.0288  0.1992
  377bbb    H1111297   7.167   0.953   6.548  0.7865  0.4119 -1.1313
  377bbb    H1211298   7.279   1.062   6.638  2.6720 -0.5737  0.3917
  377bbb     C711299   7.043   0.649   6.262 -0.6316 -0.0145 -0.4596
  377bbb    H1311300   6.993   0.741   6.294 -2.3686 -0.8645 -0.6344
  377bbb    H1411301   6.988   0.556   6.279  2.1142 -2.1079 -2.1137
  377bbb     C811302   7.237   0.883   6.744 -0.0100  0.6728  0.4556
  377bbb    H1511303   7.328   0.881   6.806  0.0873 -0.6551  0.2904
  377bbb    H1611304   7.160   0.928   6.808  1.3879  2.6139  0.8844
  377bbb     C911305   7.709   0.685   6.299 -0.3399  0.6618 -0.4897
  377bbb    H1711306   7.767   0.728   6.216  4.6066 -2.0490  1.1756
  377bbb    H1811307   7.675   0.586   6.268 -2.6371  1.1872  0.1742
  377bbb     O111308   7.078   0.667   6.121  1.0238 -0.2516 -0.6066
  377bbb    H1911309   7.329   0.717   6.540  0.4052  1.1151  0.0016
  378bbb     N111310   6.498   0.591   6.298  0.2996  0.1065  0.5593
  378bbb     C111311   6.562   0.560   6.437  1.0602 -0.0966  0.2992
  378bbb     H111312   6.670   0.569   6.427  0.9280  0.8267 -0.4893
  378bbb     H211313   6.536   0.455   6.451  0.7864 -0.2888 -1.3741
  378bbb     C211314   6.348   0.573   6.299  0.2185 -0.3615  0.2356
  378bbb     H311315   6.310   0.645   6.373 -0.1070  1.2947 -1.4607
  378bbb     H411316   6.329   0.467   6.318  0.2145 -0.6265 -1.1513
  378bbb     C311317   6.543   0.732   6.259  0.0086  0.4342 -0.1537
  378bbb     H511318   6.513   0.796   6.342 -0.6863  1.7480 -1.3703
  378bbb     H611319   6.488   0.766   6.172  0.3311 -0.7023 -0.8204
  378bbb     C411320   6.691   0.743   6.237 -0.0561  0.0481  0.5567
  378bbb     H711321   6.724   0.661   6.172 -1.5364 -0.4216  0.3544
  378bbb     H811322   6.741   0.728   6.334  1.1687  0.9992  0.0859
  378bbb     C511323   6.517   0.643   6.556  0.5646  0.3390  0.0457
  378bbb     H911324   6.410   0.622   6.572  1.1840 -2.2244  1.1821
  378bbb    H1011325   6.543   0.750   6.553  0.2693  0.3984 -0.5556
  378bbb     C611326   6.277   0.603   6.163 -0.4061 -0.0193  0.3876
  378bbb    H1111327   6.336   0.572   6.077 -1.6390  0.3923 -0.6445
  378bbb    H1211328   6.268   0.711   6.143 -0.3311  0.4253  2.4469
  378bbb     C711329   6.729   0.877   6.168  0.5518  0.4045 -0.0539
  378bbb    H1311330   6.834   0.887   6.198  0.2705  0.0734  1.0883
  378bbb    H1411331   6.673   0.966   6.197  0.3085  1.4835 -3.3585
  378bbb     C811332   6.135   0.545   6.147  0.3301  0.7047  0.2696
  378bbb    H1511333   6.067   0.565   6.232 -1.4104 -1.8450 -0.3825
  378bbb    H1611334   6.098   0.599   6.059 -0.5935 -0.0212  0.1912
  378bbb     C911335   6.571   0.590   6.684  0.0485 -0.0588  0.1493
  378bbb    H1711336   6.540   0.647   6.773  2.4973  0.4318  0.7637
  378bbb    H1811337   6.680   0.601   6.678 -0.0946  0.6428 -3.6232
  378bbb     O111338   6.699   0.863   6.031  0.4367 -0.0373 -0.4474
  378bbb    H1911339   6.537   0.525   6.228  0.3117  1.2892 -0.5947
  379bbb     N111340   7.227   0.387   4.406 -0.3582 -0.2124 -0.0327
  379bbb     C111341   7.181   0.291   4.301  0.2727  0.8571  0.4542
  379bbb     H111342   7.089   0.237   4.322  0.4921 -0.4247 -1.6026
  379bbb     H211343   7.260   0.215   4.301  0.4363  1.0291  0.4071
  379bbb     C211344   7.110   0.480   4.443  0.0345 -0.1182  0.5397
  379bbb     H311345   7.053   0.439   4.526  0.0229 -1.4607 -0.0906
  379bbb     H411346   7.049   0.474   4.352 -2.4636 -0.7805  2.1771
  379bbb     C311347   7.266   0.329   4.537 -0.2772  0.2358 -0.4043
  379bbb     H511348   7.179   0.280   4.580  1.3887 -1.4745  1.2126
  379bbb     H611349   7.282   0.420   4.596 -1.8585  0.4944 -0.3427
  379bbb     C411350   7.393   0.245   4.534 -0.5672 -0.1074  0.9594
  379bbb     H711351   7.358   0.151   4.491 -1.7874  0.9442 -0.4618
  379bbb     H811352   7.421   0.226   4.639 -0.1880 -0.4507  0.7975
  379bbb     C511353   7.188   0.350   4.150  0.8057  0.4706 -0.7475
  379bbb     H911354   7.255   0.437   4.150 -1.5446  2.4036 -2.2329
  379bbb    H1011355   7.088   0.388   4.127  0.8686 -0.1302 -2.1175
  379bbb     C611356   7.160   0.618   4.486 -0.1598  0.3072  0.1885
  379bbb    H1111357   7.212   0.624   4.582  0.6592 -1.3083 -0.1132
  379bbb    H1211358   7.066   0.664   4.518 -1.0434 -1.4665  0.3037
  379bbb     C711359   7.510   0.301   4.450 -0.1034 -0.1768  0.3894
  379bbb    H1311360   7.478   0.292   4.346  1.1516 -0.5395  0.0273
  379bbb    H1411361   7.604   0.248   4.466 -1.3665 -3.1419 -1.1638
  379bbb     C811362   7.229   0.697   4.377  0.7140 -0.7001  0.4547
  379bbb    H1511363   7.154   0.707   4.298 -0.0840 -0.0678  1.2778
  379bbb    H1611364   7.241   0.802   4.406 -0.4417 -0.6953  0.9577
  379bbb     C911365   7.240   0.242   4.058 -0.6178 -0.2850 -0.2252
  379bbb    H1711366   7.234   0.275   3.953 -1.8918 -0.3189 -0.1761
  379bbb    H1811367   7.173   0.156   4.069 -2.0495  1.0482  2.6114
  379bbb     O111368   7.508   0.445   4.485 -0.4345  0.9171  0.4252
  379bbb    H1911369   7.313   0.438   4.380 -0.8461  0.0568 -1.1943
  380bbb     N111370   8.509   0.449   4.866  0.0847  0.1184  0.3372
  380bbb     C111371   8.545   0.575   4.935  0.2056 -0.3090  0.5043
  380bbb     H111372   8.644   0.593   4.893 -0.8713  1.9176 -1.2634
  380bbb     H211373   8.549   0.564   5.044  2.0014  0.4727  0.5484
  380bbb     C211374   8.610   0.339   4.892 -0.2240 -0.2134 -0.0536
  380bbb     H311375   8.590   0.250   4.833 -1.9211  0.6893 -0.9088
  380bbb     H411376   8.606   0.318   4.999  3.0182 -1.6943 -0.0987
  380bbb     C311377   8.377   0.395   4.916 -0.2092 -0.1385  0.8147
  380bbb     H511378   8.305   0.477   4.912 -1.4112 -1.1950 -0.5407
  380bbb     H611379   8.395   0.355   5.016 -1.9384 -0.0153  1.2144
  380bbb     C411380   8.318   0.284   4.822 -0.8846  0.1603 -0.1555
  380bbb     H711381   8.367   0.188   4.841 -1.3301  0.1468  1.0563
  380bbb     H811382   8.341   0.303   4.717  2.3049  1.0028  0.5822
  380bbb     C511383   8.468   0.703   4.890  0.9784  0.3844  0.1239
  380bbb     H911384   8.369   0.701   4.937  1.8595 -0.7143  2.0731
  380bbb    H1011385   8.459   0.702   4.781 -1.0007 -0.5380  0.2517
  380bbb     C611386   8.754   0.372   4.869 -0.2890 -0.1770  0.1632
  380bbb    H1111387   8.810   0.281   4.894  2.0291  0.3276 -2.5712
  380bbb    H1211388   8.797   0.451   4.932  0.8479 -0.1354 -0.6302
  380bbb     C711389   8.163   0.267   4.834 -0.0240  1.0261  0.5207
  380bbb    H1311390   8.134   0.190   4.907  1.1522  0.4670  0.4118
  380bbb    H1411391   8.134   0.222   4.738  1.5688 -0.6146  0.7758
  380bbb     C811392   8.799   0.404   4.721 -0.1311  0.3599 -0.1782
  380bbb    H1511393   8.908   0.410   4.725 -0.0041 -1.7634  2.0999
  380bbb    H1611394   8.773   0.323   4.651  0.2833  0.6356 -0.6514
  380bbb     C911395   8.537   0.835   4.931  0.1475 -0.0200  0.6349
  380bbb    H1711396   8.536   0.856   5.039  1.2468  0.6202  0.5374
  380bbb    H1811397   8.493   0.916   4.871  0.6033 -0.2792 -0.0623
  380bbb     O111398   8.099   0.396   4.861  0.7003  0.2457 -0.0540
  380bbb    H1911399   8.498   0.468   4.766  1.0262 -2.7806 -0.4131
  381bbb     N111400   6.836   1.173   3.652 -0.5340  0.2701 -0.3696
  381bbb     C111401   6.710   1.086   3.662  0.0831  0.5415  0.3651
  381bbb     H111402   6.636   1.143   3.720  1.1744  0.6221  1.7244
  381bbb     H211403   6.745   1.005   3.725 -1.4285 -1.0264 -0.7155
  381bbb     C211404   6.801   1.305   3.598 -0.4676  0.2453  0.3022
  381bbb     H311405   6.722   1.334   3.668 -0.0968  0.6516  0.5539
  381bbb     H411406   6.746   1.288   3.505 -0.7268  2.0676  0.0825
  381bbb     C311407   6.899   1.184   3.788  0.4644 -0.2024  0.3830
  381bbb     H511408   6.996   1.232   3.773 -0.0052  0.8452  0.5740
  381bbb     H611409   6.915   1.079   3.813 -1.0508 -0.7741 -0.9231
  381bbb     C411410   6.817   1.245   3.901  0.0145 -0.2757  0.2356
  381bbb     H711411   6.711   1.269   3.888 -1.0466 -2.8151  2.9987
  381bbb     H811412   6.875   1.336   3.920 -0.3786  0.1609 -0.6355
  381bbb     C511413   6.660   1.033   3.523  0.1881  0.2495 -0.2873
  381bbb     H911414   6.617   1.118   3.469 -1.1758 -1.1437 -1.4969
  381bbb    H1011415   6.572   0.973   3.545 -0.9226  1.9490  0.0634
  381bbb     C611416   6.907   1.415   3.592 -0.0020 -0.6728 -0.3500
  381bbb    H1111417   6.979   1.405   3.509  3.0224  0.2630  1.9939
  381bbb    H1211418   6.967   1.423   3.683 -0.7101  0.9286 -0.0007
  381bbb     C711419   6.818   1.154   4.030 -0.1561  0.8316  0.0271
  381bbb    H1311420   6.766   1.059   4.014 -0.1782  0.7617  0.4975
  381bbb    H1411421   6.752   1.200   4.105 -1.0849 -0.8363  0.2680
  381bbb     C811422   6.846   1.556   3.572  0.4924 -0.4344  1.1713
  381bbb    H1511423   6.775   1.569   3.655  1.5832 -0.6813  2.1770
  381bbb    H1611424   6.931   1.623   3.585 -0.4817  1.4663 -1.4648
  381bbb     C911425   6.774   0.953   3.436 -0.0061 -0.0808 -0.3668
  381bbb    H1711426   6.729   0.901   3.350 -0.4001  0.1891 -0.3289
  381bbb    H1811427   6.822   0.876   3.497 -2.1945 -2.1820 -1.1499
  381bbb     O111428   6.952   1.134   4.070 -0.2565  0.2407 -0.4406
  381bbb    H1911429   6.905   1.124   3.593  1.3184 -0.2689  2.1047
  382bbb     N111430   6.379   1.292   4.334  0.2405 -0.0387  0.9106
  382bbb     C111431   6.395   1.444   4.316 -0.2519 -0.0703 -0.1156
  382bbb     H111432   6.445   1.471   4.409  1.1383  0.0117 -0.8622
  382bbb     H211433   6.292   1.482   4.324 -0.7193 -1.2916 -0.1162
  382bbb     C211434   6.291   1.246   4.221 -0.4720 -0.2764  0.0058
  382bbb     H311435   6.342   1.266   4.127 -0.0576 -1.3566 -0.0209
  382bbb     H411436   6.202   1.306   4.235 -0.9550 -0.9218 -0.2235
  382bbb     C311437   6.508   1.219   4.352 -0.0277  0.4820 -0.3504
  382bbb     H511438   6.576   1.270   4.284  0.2258 -0.5014 -0.8591
  382bbb     H611439   6.500   1.112   4.331  0.6100 -0.0179  1.7184
  382bbb     C411440   6.579   1.245   4.491 -0.1023  0.6727  0.1997
  382bbb     H711441   6.518   1.185   4.560  0.4252  0.6488  0.6463
  382bbb     H811442   6.570   1.352   4.517  0.1048  0.5413  0.8386
  382bbb     C511443   6.474   1.511   4.200  1.0104  0.3881 -0.5686
  382bbb     H911444   6.436   1.463   4.109  0.2276  1.8591 -1.0412
  382bbb    H1011445   6.576   1.469   4.203  0.6536 -0.4725  0.7930
  382bbb     C611446   6.252   1.097   4.230 -0.1982 -0.0320  0.2584
  382bbb    H1111447   6.208   1.071   4.328  1.4829  1.4995  1.4972
  382bbb    H1211448   6.333   1.023   4.226 -0.8370 -0.9516  2.3809
  382bbb     C711449   6.727   1.197   4.493 -0.0073  0.3054 -0.0649
  382bbb    H1311450   6.728   1.090   4.469 -0.6580  0.8444 -2.8948
  382bbb    H1411451   6.750   1.208   4.600 -0.7294  0.3640  0.0897
  382bbb     C811452   6.147   1.049   4.125 -0.4819 -0.5934  0.4438
  382bbb    H1511453   6.104   0.957   4.168 -1.3242 -1.4293 -2.0378
  382bbb    H1611454   6.056   1.110   4.119 -1.0761 -1.5983 -1.5885
  382bbb     C911455   6.479   1.663   4.198  0.3650 -0.1792  0.7192
  382bbb    H1711456   6.550   1.701   4.123  0.2551  0.8632  1.1163
  382bbb    H1811457   6.503   1.707   4.295 -1.1936 -0.7286  1.3839
  382bbb     O111458   6.812   1.279   4.408  0.1828  0.0183  1.0016
  382bbb    H1911459   6.319   1.264   4.413 -1.2513 -2.0884 -0.8292
  383ccc     C111460   2.445   5.895   2.707 -0.0350 -0.5045  0.0984
  383ccc     C211461   2.573   5.804   2.678 -0.3650 -0.5484  0.3194
  383ccc     H111462   2.399   5.852   2.797  1.2546 -1.0772  0.5089
  383ccc     H211463   2.640   5.785   2.763  1.2187 -1.9129 -1.1465
  383ccc     C311464   2.521   5.669   2.618 -0.1243 -0.4389 -0.7311
  383ccc     C411465   2.414   5.682   2.505  0.2309  0.2991 -0.0825
  383ccc     C511466   2.294   5.778   2.549 -0.2990 -0.7262  0.5184
  383ccc     H311467   2.460   5.734   2.420 -0.6687 -0.8754 -1.3359
  383ccc     H411468   2.483   5.613   2.704  1.0674  3.7477  2.8820
  383ccc     H511469   2.228   5.737   2.626 -4.7963  2.0811 -1.4490
  383ccc     O111470   2.219   5.811   2.428 -0.3761  0.0099  0.2929
  383ccc     O211471   2.364   5.552   2.463 -0.7136 -0.1250  0.3745
  383ccc     O311472   2.626   5.590   2.562 -0.4085 -0.2729 -0.5438
  383ccc     O411473   2.655   5.874   2.584 -0.0455  0.1073 -0.1773
  383ccc     C611474   2.473   6.038   2.757 -0.1765 -0.1860 -0.4185
  383ccc     H611475   2.676   5.546   2.632  0.6530  0.9576 -0.4920
  383ccc     H711476   2.740   5.828   2.580 -0.5657 -1.5426  3.3563
  383ccc     H811477   2.443   5.500   2.439 -0.6327 -0.2492  0.8981
  383ccc     H911478   2.502   6.103   2.673  1.9839  0.7248  0.9562
  383ccc    H1011479   2.556   6.034   2.828 -0.9338 -0.4787  0.4674
  383ccc     O511480   2.364   6.085   2.830  0.0786  0.4087  0.1082
  383ccc    H1111481   2.390   6.173   2.863  1.0625  1.0115 -2.0859
  383ccc     O611482   2.356   5.905   2.589 -0.4548 -0.0835 -0.5201
  384ccc     C111483   1.790   5.565   2.257  0.7919  0.1267 -0.5546
  384ccc     C211484   1.815   5.509   2.399 -0.0879 -0.2370 -0.3859
  384ccc     H111485   1.778   5.480   2.189  0.9450  0.9392 -1.6155
  384ccc     H211486   1.733   5.445   2.435 -0.2042 -0.6062 -1.2646
  384ccc     C311487   1.944   5.430   2.407 -0.3769  0.0923  0.3512
  384ccc     C411488   2.067   5.505   2.352 -0.3762 -0.4409 -0.2945
  384ccc     C511489   2.032   5.577   2.217  0.1890 -0.0828  0.6310
  384ccc     H311490   2.090   5.576   2.432 -0.9759  0.8237 -1.1973
  384ccc     H411491   1.928   5.339   2.348 -3.3609  1.4790 -1.2328
  384ccc     H511492   2.030   5.509   2.131 -0.1783  0.0162  0.5623
  384ccc     O111493   2.132   5.668   2.182  0.3358 -0.7724  0.1632
  384ccc     O211494   2.182   5.410   2.341  0.1473  0.1586 -0.6829
  384ccc     O311495   1.970   5.393   2.544 -0.1945  0.1624 -1.1822
  384ccc     O411496   1.823   5.619   2.490 -0.0636  0.1733  0.0133
  384ccc     C611497   1.665   5.657   2.257  0.0206  0.4935  0.2280
  384ccc     H611498   1.901   5.335   2.581 -0.7780  1.7912  0.4132
  384ccc     H711499   1.890   5.581   2.549 -0.2246  0.3359  0.3054
  384ccc     H811500   2.257   5.469   2.364  0.0319 -0.0863  0.3515
  384ccc     H911501   1.681   5.756   2.301  0.5580  1.9645 -2.9449
  384ccc    H1011502   1.589   5.597   2.307  1.9107 -0.8563  1.6281
  384ccc     O511503   1.631   5.670   2.123  0.7685  0.1777 -0.0403
  384ccc    H1111504   1.561   5.737   2.119  0.3575 -0.2924 -1.1478
  384ccc     O611505   1.905   5.640   2.225 -0.0564 -0.4436 -0.1790
  385ccc     C111506   0.896   7.142   2.956  0.8328 -0.2770 -0.2190
  385ccc     C211507   1.036   7.172   2.894 -0.4814  0.1536 -0.0638
  385ccc     H111508   0.909   7.138   3.065  2.3362  1.0275 -0.3154
  385ccc     H211509   1.076   7.269   2.926 -2.5327  1.5489 -1.5044
  385ccc     C311510   1.148   7.074   2.928 -0.0970  0.2259 -0.5900
  385ccc     C411511   1.096   6.928   2.905 -0.7509  1.4326 -0.1128
  385ccc     C511512   0.939   6.903   2.927 -0.4949  0.2912  0.2373
  385ccc     H311513   1.102   6.913   2.797 -0.2521 -0.8711  0.1962
  385ccc     H411514   1.152   7.072   3.037 -1.3568 -2.3993 -0.5028
  385ccc     H511515   0.936   6.884   3.035  1.2622  0.2019  0.2909
  385ccc     O111516   0.901   6.779   2.861 -0.2549 -0.0252  0.9675
  385ccc     O211517   1.181   6.838   2.985 -0.1184  0.3365  0.0931
  385ccc     O311518   1.272   7.112   2.855  0.2968 -0.2229 -0.5117
  385ccc     O411519   1.020   7.177   2.756  0.3301 -0.1734  0.2268
  385ccc     C611520   0.791   7.243   2.922  0.5861  0.1110 -0.1124
  385ccc     H611521   1.338   7.044   2.878  0.4621 -0.3146 -1.2521
  385ccc     H711522   1.110   7.171   2.718  0.0805  0.2483 -0.4520
  385ccc     H811523   1.155   6.747   2.965  0.9962 -0.2947  1.3795
  385ccc     H911524   0.783   7.254   2.813  2.0581 -2.0965 -0.4996
  385ccc    H1011525   0.830   7.335   2.968  3.1079  0.1019 -2.0610
  385ccc     O511526   0.668   7.200   2.983 -0.2630 -0.1906 -0.2707
  385ccc    H1111527   0.602   7.226   2.916  1.1730 -0.1496 -1.7465
  385ccc     O611528   0.853   7.017   2.901 -0.8897  0.0383  0.0348
  386ccc     C111529   0.394   6.547   1.991  0.0922 -0.8482 -0.0335
  386ccc     C211530   0.361   6.693   1.967  0.3302 -0.8430  0.0870
  386ccc     H111531   0.307   6.487   2.022  0.2959 -0.4742  1.3072
  386ccc     H211532   0.278   6.691   1.895  0.1668 -1.6445  0.2802
  386ccc     C311533   0.317   6.763   2.099  1.0917  0.0966 -0.3577
  386ccc     C411534   0.417   6.735   2.214  0.3023 -0.2901 -0.5631
  386ccc     C511535   0.447   6.584   2.227 -0.3717  0.0616  0.9470
  386ccc     H311536   0.518   6.772   2.191  0.5001  0.3636  1.2343
  386ccc     H411537   0.214   6.730   2.118  0.0993  1.7919 -2.4411
  386ccc     H511538   0.352   6.532   2.248 -1.0722  0.9033 -0.0482
  386ccc     O111539   0.544   6.557   2.324  0.0643  0.3875 -0.2296
  386ccc     O211540   0.365   6.789   2.337 -0.1159 -0.2970 -0.2944
  386ccc     O311541   0.300   6.907   2.091  0.2152  0.0020 -0.3278
  386ccc     O411542   0.468   6.761   1.908  0.0603  0.3410  0.0082
  386ccc     C611543   0.457   6.488   1.864 -0.6112  0.5175  0.2459
  386ccc     H611544   0.226   6.925   2.031 -2.3231 -1.7066  2.0916
  386ccc     H711545   0.438   6.767   1.816 -3.0726 -1.8102  0.7577
  386ccc     H811546   0.334   6.875   2.303  0.3769  0.2504  0.5949
  386ccc     H911547   0.562   6.520   1.861 -0.8257  1.2653  0.7015
  386ccc    H1011548   0.404   6.520   1.773 -3.6668 -0.5145  1.5165
  386ccc     O511549   0.452   6.341   1.877 -0.0260  0.0429 -0.3507
  386ccc    H1111550   0.495   6.313   1.794 -2.0792 -1.8022 -0.8973
  386ccc     O611551   0.490   6.541   2.096 -0.0117 -0.2418  0.5775
  387ccc     C111552   1.256   7.420   1.188 -0.2638 -0.2499  0.1363
  387ccc     C211553   1.134   7.518   1.185 -0.0443  0.4316  0.4054
  387ccc     H111554   1.237   7.341   1.114 -2.5069  1.4259 -1.2248
  387ccc     H211555   1.104   7.534   1.081 -0.4944 -0.1174  0.4448
  387ccc     C311556   1.011   7.463   1.262 -0.0199  0.0691 -0.2272
  387ccc     C411557   1.051   7.391   1.394  0.1556 -0.2744 -0.2608
  387ccc     C511558   1.178   7.299   1.384  0.2685 -0.4729 -0.0972
  387ccc     H311559   1.089   7.463   1.468  1.3205 -0.9764 -0.1550
  387ccc     H411560   0.974   7.388   1.191  0.5678  0.8529 -1.4143
  387ccc     H511561   1.158   7.209   1.324 -0.5126  0.5756 -1.4805
  387ccc     O111562   1.216   7.262   1.522 -0.1512 -0.0203  0.1587
  387ccc     O211563   0.940   7.308   1.445 -0.0022 -0.4909 -0.6850
  387ccc     O311564   0.912   7.571   1.270 -0.0879  0.1856  0.3396
  387ccc     O411565   1.163   7.645   1.250 -0.4973  0.6912  0.0557
  387ccc     C611566   1.381   7.493   1.145  0.1651  0.1202 -0.0627
  387ccc     H611567   0.829   7.521   1.276  1.0009 -1.5684  1.7009
  387ccc     H711568   1.071   7.662   1.277 -0.5907 -1.1271  1.0257
  387ccc     H811569   0.882   7.368   1.496  0.9322 -1.0885  1.1832
  387ccc     H911570   1.435   7.539   1.229  1.7339 -1.2711 -0.2400
  387ccc    H1011571   1.354   7.570   1.073  0.8815 -0.6514 -1.1833
  387ccc     O511572   1.462   7.398   1.082  0.2530  0.2419  0.4896
  387ccc    H1111573   1.552   7.417   1.114  0.1206  0.6749  0.6225
  387ccc     O611574   1.283   7.374   1.320  0.2150  0.7548 -0.8808
  388ccc     C111575   0.628   7.045   1.756  0.1078  0.5705  0.4446
  388ccc     C211576   0.524   7.071   1.867  0.6875 -0.0069 -0.0134
  388ccc     H111577   0.662   6.942   1.776  0.6198  0.9514  1.6352
  388ccc     H211578   0.441   7.002   1.848 -0.2765  1.6694 -2.4610
  388ccc     C311579   0.594   7.044   2.004  0.0226 -0.0987  0.1274
  388ccc     C411580   0.716   7.129   2.028  0.3060  0.8742  0.2993
  388ccc     C511581   0.812   7.109   1.907 -0.2573 -0.0739  0.0813
  388ccc     H311582   0.683   7.232   2.011  0.9884  0.7944 -1.8314
  388ccc     H411583   0.614   6.936   2.006 -0.9975 -0.3188 -0.7744
  388ccc     H511584   0.856   7.008   1.905  2.0273  0.8899 -1.1564
  388ccc     O111585   0.915   7.207   1.924 -0.4898  0.3932  0.5600
  388ccc     O211586   0.766   7.088   2.155  0.0897 -0.2742 -0.3974
  388ccc     O311587   0.499   7.079   2.115 -0.0561  0.6502  0.1637
  388ccc     O411588   0.479   7.205   1.862  0.2031  0.1848  0.1686
  388ccc     C611589   0.586   7.076   1.610 -0.5134  0.6082 -0.3291
  388ccc     H611590   0.422   7.019   2.108  0.5295 -0.0138 -0.7619
  388ccc     H711591   0.398   7.211   1.916  0.7452  1.6373  0.8809
  388ccc     H811592   0.681   7.066   2.198  1.0419 -0.4432  1.5164
  388ccc     H911593   0.580   7.183   1.587 -2.1006  0.7870  0.7357
  388ccc    H1011594   0.481   7.045   1.599 -1.2963  3.1940 -0.8020
  388ccc     O511595   0.663   6.994   1.521  0.3435 -0.1976  0.6320
  388ccc    H1111596   0.621   7.018   1.436 -2.6194  2.6573  2.6357
  388ccc     O611597   0.741   7.128   1.778  0.4739 -0.0641 -0.0030
  389ccc     C111598   1.752   7.048   0.922  0.0392 -0.3067  0.2435
  389ccc     C211599   1.758   7.159   0.812  0.1331  0.0569 -0.0449
  389ccc     H111600   1.662   7.069   0.982 -0.6007 -0.3568 -0.6694
  389ccc     H211601   1.656   7.165   0.772  0.0004  1.7953  0.4617
  389ccc     C311602   1.785   7.295   0.881  0.1228 -0.3057 -0.2599
  389ccc     C411603   1.914   7.285   0.968  0.3543  0.2183 -0.0553
  389ccc     C511604   1.897   7.172   1.072  0.2810  0.4384  0.6968
  389ccc     H311605   1.990   7.251   0.897 -0.8437  1.5884 -2.0984
  389ccc     H411606   1.700   7.310   0.948  0.0020 -0.6836 -0.3284
  389ccc     H511607   1.809   7.185   1.137  0.9020 -0.4370  1.7469
  389ccc     O111608   2.015   7.149   1.152 -1.2263 -0.6085  0.1676
  389ccc     O211609   1.944   7.401   1.040 -0.2585 -0.0182  0.1545
  389ccc     O311610   1.781   7.405   0.776 -0.2688 -0.0375  0.1796
  389ccc     O411611   1.856   7.130   0.713 -0.3593 -0.1007 -0.3610
  389ccc     C611612   1.743   6.909   0.862  0.6961 -0.3807 -0.4016
  389ccc     H611613   1.874   7.412   0.747 -0.8508  2.5487 -1.4405
  389ccc     H711614   1.848   7.186   0.634  0.3344  0.2131 -0.2166
  389ccc     H811615   2.040   7.407   1.023 -0.3686 -1.1102 -0.9765
  389ccc     H911616   1.833   6.883   0.804  2.0449 -0.5974  1.7061
  389ccc    H1011617   1.657   6.905   0.794  0.0421  1.1956  0.2925
  389ccc     O511618   1.716   6.819   0.965  0.2013 -0.1953  0.0896
  389ccc    H1111619   1.677   6.742   0.920 -3.1609  1.4985 -0.2068
  389ccc     O611620   1.876   7.053   0.996 -0.2922  0.6940 -0.5456
  390ccc     C111621   2.689   7.604   1.509 -0.1813 -0.7232 -0.5080
  390ccc     C211622   2.812   7.511   1.520 -0.3563  0.0417  0.0140
  390ccc     H111623   2.653   7.622   1.611  2.1612  1.5988  0.0124
  390ccc     H211624   2.882   7.561   1.588  0.2745 -1.9143  0.8601
  390ccc     C311625   2.770   7.379   1.585 -0.0551  0.1232 -0.2057
  390ccc     C411626   2.655   7.309   1.512  0.1352  0.3075 -0.5301
  390ccc     C511627   2.540   7.407   1.485 -0.6943  0.6746 -0.4535
  390ccc     H311628   2.685   7.279   1.411  0.4131 -1.7600  0.1312
  390ccc     H411629   2.719   7.400   1.680  2.1936 -1.9772  1.6115
  390ccc     H511630   2.498   7.429   1.583 -0.3288 -1.0736  0.1289
  390ccc     O111631   2.445   7.363   1.383 -0.1477 -0.1511  0.2200
  390ccc     O211632   2.613   7.194   1.582 -0.0824 -0.0312  0.4711
  390ccc     O311633   2.876   7.292   1.615  0.0739  0.3722 -0.5367
  390ccc     O411634   2.861   7.487   1.387 -0.2776  0.2208 -0.0227
  390ccc     C611635   2.715   7.746   1.440 -0.7893  0.0525  0.1738
  390ccc     H611636   2.947   7.340   1.660  0.8273 -1.5914  0.5024
  390ccc     H711637   2.841   7.575   1.349  0.2276  0.4745  0.2736
  390ccc     H811638   2.688   7.166   1.637  0.0802 -2.3910 -0.7980
  390ccc     H911639   2.766   7.807   1.516  0.7951  1.3451 -1.8153
  390ccc    H1011640   2.616   7.789   1.419 -0.3641  0.9478 -0.0455
  390ccc     O511641   2.791   7.738   1.315  0.3672 -0.2895  0.4812
  390ccc    H1111642   2.807   7.830   1.291 -1.6677 -0.1014 -0.3928
  390ccc     O611643   2.594   7.534   1.435  0.4231 -0.1807  0.2538
  391ccc     C111644   1.614   9.410   3.696  0.2521  0.9257 -0.1001
  391ccc     C211645   1.717   9.504   3.645  0.6104 -0.3917 -0.2610
  391ccc     H111646   1.581   9.454   3.790 -2.6495 -0.8058 -0.1461
  391ccc     H211647   1.684   9.608   3.641 -0.2828 -0.6773 -0.6671
  391ccc     C311648   1.848   9.497   3.730  0.0612 -0.0455  0.1211
  391ccc     C411649   1.902   9.353   3.737 -0.0385  0.2471 -0.5196
  391ccc     C511650   1.792   9.257   3.791 -0.4590  0.2268 -0.2650
  391ccc     H311651   1.922   9.312   3.637 -0.0227  1.4111 -1.0053
  391ccc     H411652   1.821   9.508   3.835  3.4486 -0.1579  1.1170
  391ccc     H511653   1.774   9.269   3.899  1.8196 -0.0446  0.2071
  391ccc     O111654   1.841   9.125   3.757 -0.1416  0.1159 -0.5861
  391ccc     O211655   2.018   9.348   3.822  0.0332  0.2202  0.2072
  391ccc     O311656   1.951   9.594   3.696 -0.1858  0.5712  0.1508
  391ccc     O411657   1.746   9.468   3.508  0.0603  0.1723  0.3543
  391ccc     C611658   1.479   9.400   3.614  0.1867  0.6988 -0.3341
  391ccc     H611659   1.997   9.624   3.777  1.2238 -1.7295  0.2878
  391ccc     H711660   1.800   9.539   3.470  0.3553 -1.0962 -1.7690
  391ccc     H811661   2.082   9.385   3.759 -1.1689  2.8397  0.3636
  391ccc     H911662   1.497   9.352   3.517 -1.2679 -2.8567  1.0007
  391ccc    H1011663   1.436   9.498   3.587  2.8982  2.3692  0.9739
  391ccc     O511664   1.385   9.336   3.703  0.1029  0.1597 -0.8042
  391ccc    H1111665   1.415   9.244   3.693 -3.9564 -1.2927 -1.6037
  391ccc     O611666   1.670   9.273   3.721  0.7160 -0.1097  0.6769
  392ccc     C111667   2.135   9.255   3.343  0.7363  0.8261 -0.5464
  392ccc     C211668   2.157   9.198   3.197  0.4028 -0.2670 -0.3021
  392ccc     H111669   2.205   9.339   3.347 -0.5029  1.9851 -2.1724
  392ccc     H211670   2.162   9.273   3.118  0.6766 -0.5286 -0.5333
  392ccc     C311671   2.292   9.127   3.182 -0.4474  0.3539 -0.2727
  392ccc     C411672   2.301   9.016   3.298  0.9063 -0.4257 -0.8865
  392ccc     C511673   2.302   9.091   3.438  0.1651  0.3503  0.4881
  392ccc     H311674   2.203   8.968   3.304  1.3831 -1.3297  0.0148
  392ccc     H411675   2.373   9.199   3.202 -0.3225  0.5574 -1.4410
  392ccc     H511676   2.387   9.159   3.446  0.5154 -0.0671  0.3915
  392ccc     O111677   2.299   9.002   3.552 -0.1598  0.1210 -0.3466
  392ccc     O211678   2.421   8.940   3.279 -0.0301  0.3012  0.1803
  392ccc     O311679   2.324   9.068   3.054 -0.3038  0.1670 -0.2947
  392ccc     O411680   2.048   9.114   3.168 -0.4690 -0.3985 -0.3772
  392ccc     C611681   1.997   9.327   3.365 -0.1813  0.7071 -0.1516
  392ccc     H611682   2.408   9.020   3.066  0.4163  0.5560 -3.0658
  392ccc     H711683   1.983   9.133   3.238 -0.5384  0.7684 -0.7291
  392ccc     H811684   2.496   8.987   3.319  0.3266 -1.3268  1.5414
  392ccc     H911685   1.983   9.406   3.290 -0.8512  1.3855  0.6615
  392ccc    H1011686   2.004   9.378   3.462 -1.5193  1.3287 -0.3529
  392ccc     O511687   1.882   9.237   3.376 -0.2675 -0.2399 -0.4568
  392ccc    H1111688   1.807   9.294   3.402  0.5121 -0.3175  2.2180
  392ccc     O611689   2.169   9.160   3.444 -0.0986 -0.4004 -0.4700
  393ccc     C111690   1.461   8.102   2.250 -0.3242  0.4123 -0.2443
  393ccc     C211691   1.566   7.991   2.285 -1.1504  0.4162 -0.0629
  393ccc     H111692   1.508   8.167   2.175  3.0801 -0.9604  0.5109
  393ccc     H211693   1.599   7.942   2.193  0.5249 -1.3259  1.3776
  393ccc     C311694   1.683   8.055   2.365  0.5907  0.3536  0.0727
  393ccc     C411695   1.637   8.127   2.486  0.1207  0.2698 -0.4532
  393ccc     C511696   1.536   8.235   2.446  0.3719 -0.0198  0.6224
  393ccc     H311697   1.585   8.052   2.547 -1.4015  0.7471 -1.1166
  393ccc     H411698   1.737   8.125   2.300 -0.3629  1.8811  0.8685
  393ccc     H511699   1.577   8.306   2.372 -3.1258  0.3032 -1.2315
  393ccc     O111700   1.489   8.312   2.561  0.1763 -0.0244  0.1682
  393ccc     O211701   1.762   8.175   2.552  0.0052  0.3735  0.0891
  393ccc     O311702   1.781   7.959   2.402 -0.0096 -0.2782 -0.4624
  393ccc     O411703   1.492   7.893   2.361  0.0258  0.9129 -0.3737
  393ccc     C611704   1.333   8.044   2.181  0.4011  0.6736  0.2350
  393ccc     H611705   1.828   7.928   2.322  0.4401  2.3184 -1.3116
  393ccc     H711706   1.558   7.827   2.389 -0.6913  0.2146 -0.3147
  393ccc     H811707   1.809   8.089   2.548  0.0220  0.4019 -0.3369
  393ccc     H911708   1.282   7.993   2.265 -1.1521 -1.5618 -1.9227
  393ccc    H1011709   1.366   7.973   2.104  1.4857 -0.4918  1.6937
  393ccc     O511710   1.259   8.150   2.126  0.1400 -0.0945  0.5011
  393ccc    H1111711   1.242   8.204   2.205 -0.1506 -0.5458  0.7547
  393ccc     O611712   1.423   8.181   2.372  0.2279  0.3763 -0.1604
  394ccc     C111713   1.384   8.632   3.505 -0.4305 -0.5384 -0.1912
  394ccc     C211714   1.403   8.503   3.579 -0.1675  0.7886 -0.0056
  394ccc     H111715   1.284   8.663   3.537  1.0281  2.0559  2.2377
  394ccc     H211716   1.374   8.521   3.683  1.1398  1.1071  0.3202
  394ccc     C311717   1.301   8.398   3.525  0.6568  0.3054 -0.2629
  394ccc     C411718   1.311   8.377   3.368  0.0577  0.3206 -0.3636
  394ccc     C511719   1.306   8.515   3.295 -0.1812  0.3711  0.2410
  394ccc     H311720   1.412   8.337   3.355  0.8905  1.4270  2.1043
  394ccc     H411721   1.201   8.437   3.547  0.1279 -1.8710  1.6089
  394ccc     H511722   1.207   8.560   3.302  0.6670  2.7795 -1.6253
  394ccc     O111723   1.353   8.505   3.164  0.2157 -0.0376  0.1117
  394ccc     O211724   1.215   8.276   3.322  0.2820  0.2350  0.0338
  394ccc     O311725   1.307   8.274   3.603  0.5907  0.4383  0.8061
  394ccc     O411726   1.536   8.445   3.570  0.2257 -0.1575 -0.3447
  394ccc     C611727   1.474   8.745   3.557 -0.1555  0.1353 -0.4631
  394ccc     H611728   1.308   8.302   3.696  1.7840  0.9559  0.6598
  394ccc     H711729   1.525   8.358   3.612 -1.1383  0.9322  1.7540
  394ccc     H811730   1.211   8.273   3.225 -1.6667 -0.6813  0.0830
  394ccc     H911731   1.581   8.723   3.547  0.0914  0.7543  0.5835
  394ccc    H1011732   1.458   8.751   3.665 -0.3376 -2.3772 -0.2800
  394ccc     O511733   1.427   8.861   3.494 -0.3756  0.0390  0.3823
  394ccc    H1111734   1.451   8.849   3.401  0.6366 -0.4872  0.7024
  394ccc     O611735   1.397   8.613   3.363 -0.2155  0.2318 -0.3330
  395ccc     C111736   0.575   7.898   4.115  0.2780  0.0308 -0.3819
  395ccc     C211737   0.631   7.841   4.245 -0.8230 -0.0815 -0.3553
  395ccc     H111738   0.491   7.832   4.090  1.4635 -0.8422 -2.3759
  395ccc     H211739   0.548   7.868   4.312 -1.8667  1.9174 -2.3402
  395ccc     C311740   0.672   7.693   4.233 -0.5608  0.4800  0.1747
  395ccc     C411741   0.762   7.673   4.112 -0.8201  0.2524  0.1622
  395ccc     C511742   0.701   7.740   3.987  0.1152 -0.4571  0.3543
  395ccc     H311743   0.856   7.729   4.126 -0.6391  0.5882 -2.0022
  395ccc     H411744   0.580   7.633   4.219 -0.8727  0.7440  1.0133
  395ccc     H511745   0.603   7.697   3.960  0.0481  1.5247 -3.1745
  395ccc     O111746   0.788   7.727   3.876 -0.2340 -0.2712 -0.2859
  395ccc     O211747   0.783   7.530   4.087  0.4498  0.3851 -0.2247
  395ccc     O311748   0.728   7.646   4.354 -0.0897 -0.0262  0.1727
  395ccc     O411749   0.745   7.918   4.287  0.0028  0.2490  0.0327
  395ccc     C611750   0.527   8.049   4.123 -0.9448  0.7060 -0.6356
  395ccc     H611751   0.680   7.563   4.372 -1.4226  0.1491 -2.1495
  395ccc     H711752   0.771   7.882   4.374  1.9011  3.2654  0.8574
  395ccc     H811753   0.716   7.498   4.024  2.6742  0.3382 -2.7034
  395ccc     H911754   0.441   8.049   4.192 -0.9876 -3.1616 -0.4955
  395ccc    H1011755   0.485   8.087   4.029 -0.0575  1.3858 -0.7742
  395ccc     O511756   0.635   8.130   4.180  0.2754 -0.0831  0.6680
  395ccc    H1111757   0.686   8.063   4.229 -0.6551 -0.5354  1.0496
  395ccc     O611758   0.679   7.879   4.016 -0.1131 -0.6853 -0.3130
  396ccc     C111759   0.989   7.593   2.765 -0.3048 -0.6428 -0.3451
  396ccc     C211760   1.137   7.626   2.743 -0.7601 -0.4426  0.0661
  396ccc     H111761   0.935   7.686   2.743 -0.0608 -0.3895  0.1071
  396ccc     H211762   1.157   7.662   2.642 -0.9196  1.6660  0.7250
  396ccc     C311763   1.181   7.746   2.835  0.5888 -0.1968  0.4973
  396ccc     C411764   1.143   7.715   2.987 -0.7420  0.1620 -0.2069
  396ccc     C511765   0.995   7.660   2.995 -0.7004  0.1441 -0.0016
  396ccc     H311766   1.207   7.631   3.015  0.1931  1.1640  0.7740
  396ccc     H411767   1.126   7.833   2.798  0.8393 -0.2071  0.0981
  396ccc     H511768   0.935   7.750   2.982  0.4191  0.7906 -0.9506
  396ccc     O111769   0.977   7.605   3.130 -0.1723 -0.2656  0.6312
  396ccc     O211770   1.160   7.821   3.076 -0.2605 -0.2763 -0.5350
  396ccc     O311771   1.325   7.775   2.823 -0.2677 -0.1806  0.2911
  396ccc     O411772   1.206   7.504   2.787  0.4477 -0.4171  0.3843
  396ccc     C611773   0.947   7.480   2.667  0.0362  0.1441 -0.4810
  396ccc     H611774   1.374   7.696   2.853  0.8893  0.1303 -0.7335
  396ccc     H711775   1.284   7.502   2.728  1.2867 -1.4098  1.4851
  396ccc     H811776   1.251   7.804   3.106  0.5332  1.0006 -2.0517
  396ccc     H911777   1.008   7.392   2.691 -0.8863 -0.3579  0.0725
  396ccc    H1011778   0.978   7.506   2.565  0.3530 -1.2115 -0.7491
  396ccc     O511779   0.811   7.456   2.663  0.1929 -0.0133 -0.4062
  396ccc    H1111780   0.792   7.389   2.595  0.5370 -1.0606  0.5037
  396ccc     O611781   0.966   7.552   2.903 -0.0397 -0.1141 -0.5281
  397ccc     C111782   1.386   6.099   3.364 -0.1541  0.1498 -0.7053
  397ccc     C211783   1.346   5.988   3.461 -0.2943 -0.0205 -0.1464
  397ccc     H111784   1.491   6.117   3.389 -0.2206 -1.3101  0.8028
  397ccc     H211785   1.392   5.890   3.446 -0.9523 -0.8875  2.8371
  397ccc     C311786   1.357   6.039   3.610 -0.0216 -0.4702  0.9895
  397ccc     C411787   1.278   6.175   3.630  0.3379  0.3728  0.1587
  397ccc     C511788   1.329   6.279   3.528 -0.0370 -1.0652  0.2795
  397ccc     H311789   1.178   6.137   3.605  0.8775 -0.1507 -1.3359
  397ccc     H411790   1.463   6.064   3.620 -0.3858  1.1328  1.0763
  397ccc     H511791   1.430   6.311   3.558 -1.0438  0.6618  2.0611
  397ccc     O111792   1.246   6.403   3.538 -0.3159  0.2111  0.6052
  397ccc     O211793   1.290   6.195   3.772  0.3178 -0.7601  0.0522
  397ccc     O311794   1.317   5.935   3.705  0.2200  0.2540 -0.1415
  397ccc     O411795   1.210   5.961   3.427 -0.3714 -0.5122 -0.0842
  397ccc     C611796   1.371   6.057   3.220  0.3351  0.0414 -0.2910
  397ccc     H611797   1.223   5.948   3.727  0.4138  1.0474  0.2274
  397ccc     H711798   1.207   5.993   3.335 -0.6694 -0.0918  0.0706
  397ccc     H811799   1.198   6.207   3.799 -0.3481 -0.8235 -1.9863
  397ccc     H911800   1.436   5.975   3.187  1.7110  0.8465  0.3127
  397ccc    H1011801   1.401   6.133   3.147 -1.4180  0.3204 -0.7673
  397ccc     O511802   1.238   6.030   3.185 -0.1768 -0.3956  0.6387
  397ccc    H1111803   1.229   6.045   3.089  1.5565 -0.4597  0.4341
  397ccc     O611804   1.320   6.228   3.392  0.2847 -0.7922  0.2124
  398ccc     C111805   0.868   6.782   4.198 -0.1310 -0.1345  0.6330
  398ccc     C211806   0.808   6.639   4.224 -0.1070 -0.3762  0.2427
  398ccc     H111807   0.793   6.834   4.137  0.8508  0.7395  0.1395
  398ccc     H211808   0.709   6.643   4.270 -0.3810 -0.6213 -0.3251
  398ccc     C311809   0.796   6.545   4.100  0.4597 -0.5327 -0.2501
  398ccc     C411810   0.923   6.556   4.006  0.7232  0.2996  0.3383
  398ccc     C511811   0.969   6.703   3.979 -0.0796 -0.3938  0.0550
  398ccc     H311812   1.000   6.517   4.074  0.6929 -0.9249 -0.2898
  398ccc     H411813   0.710   6.580   4.042 -0.7977 -0.6376  1.4626
  398ccc     H511814   0.887   6.759   3.932 -0.8183 -0.4196  1.2562
  398ccc     O111815   1.102   6.701   3.912 -0.1514 -0.4673  0.1269
  398ccc     O211816   0.923   6.467   3.886  0.8567 -0.1827 -0.6367
  398ccc     O311817   0.774   6.407   4.141  0.4873 -0.0538 -0.0006
  398ccc     O411818   0.903   6.583   4.313 -0.4219 -0.7476 -0.0765
  398ccc     C611819   0.902   6.879   4.313  0.9614 -0.8808  0.2324
  398ccc     H611820   0.848   6.352   4.109  0.1283 -1.4601  1.4578
  398ccc     H711821   0.862   6.506   4.355  0.1202 -0.2762  1.4002
  398ccc     H811822   0.856   6.501   3.825  1.6026  1.4690 -0.5903
  398ccc     H911823   0.814   6.913   4.368 -0.1313 -1.4369 -1.1104
  398ccc    H1011824   0.949   6.972   4.279 -1.0884 -0.3361 -1.3517
  398ccc     O511825   0.982   6.819   4.406  0.3896  0.1182  0.3634
  398ccc    H1111826   0.963   6.726   4.384 -1.2504  0.9428 -2.0902
  398ccc     O611827   0.990   6.772   4.109  0.5142  0.0700 -1.1151
  399ccc     C111828   2.668   8.285   3.657 -0.1511  0.0487 -0.1343
  399ccc     C211829   2.707   8.311   3.505 -0.0915 -0.3182 -0.4621
  399ccc     H111830   2.583   8.353   3.672 -0.6453 -0.3573 -1.0497
  399ccc     H211831   2.626   8.291   3.433 -0.4852 -0.1807 -0.0594
  399ccc     C311832   2.749   8.457   3.489 -0.8561 -0.5669  0.4658
  399ccc     C411833   2.859   8.484   3.596 -0.4015 -0.1211  0.7837
  399ccc     C511834   2.812   8.463   3.746  0.3091  0.3005  0.8341
  399ccc     H311835   2.943   8.416   3.579  1.1208  1.2569  2.4228
  399ccc     H411836   2.664   8.526   3.503 -0.9676 -0.8147  1.0457
  399ccc     H511837   2.737   8.540   3.770  1.3913  1.6299  0.0680
  399ccc     O111838   2.928   8.481   3.830 -0.0634 -0.1562  0.3324
  399ccc     O211839   2.896   8.620   3.579 -0.4557 -0.2662 -0.3784
  399ccc     O311840   2.793   8.488   3.352 -0.3908 -0.1937  0.1743
  399ccc     O411841   2.817   8.224   3.483  0.0042  0.1668 -0.5306
  399ccc     C611842   2.611   8.145   3.681 -0.2909  0.5021  0.5180
  399ccc     H611843   2.863   8.427   3.324 -1.4530 -1.1671 -0.4625
  399ccc     H711844   2.810   8.206   3.388  0.7895 -0.2844 -0.5171
  399ccc     H811845   2.926   8.613   3.487  0.9298  1.4445 -0.1082
  399ccc     H911846   2.573   8.132   3.784 -1.7150 -0.3962 -0.0934
  399ccc    H1011847   2.692   8.072   3.671 -0.0394  0.8742 -0.2341
  399ccc     O511848   2.513   8.128   3.589  0.6649 -0.2846  0.5982
  399ccc    H1111849   2.455   8.206   3.597  1.5459  0.4075  0.3476
  399ccc     O611850   2.771   8.323   3.752  0.2312  0.3557  0.7076
  400ccc     C111851   3.429   8.519   4.830  0.7139  0.2346  0.2148
  400ccc     C211852   3.477   8.370   4.827  0.1342 -0.2413 -0.3538
  400ccc     H111853   3.328   8.519   4.872  1.6669  0.5130  2.6928
  400ccc     H211854   3.443   8.328   4.922  1.8447  1.0333  0.8749
  400ccc     C311855   3.404   8.294   4.710  0.1147 -0.5261  0.2164
  400ccc     C411856   3.415   8.368   4.578 -0.0823 -0.6552  0.2507
  400ccc     C511857   3.361   8.507   4.600  0.2734 -0.1013  0.2748
  400ccc     H311858   3.519   8.367   4.545 -1.3189 -2.4715 -4.3860
  400ccc     H411859   3.300   8.305   4.744 -0.8033 -0.7297 -2.3537
  400ccc     H511860   3.253   8.508   4.621  0.4495  0.1519  1.2499
  400ccc     O111861   3.368   8.576   4.470  0.1825  0.0356  0.2589
  400ccc     O211862   3.340   8.298   4.469 -0.4114 -0.6661 -0.6446
  400ccc     O311863   3.445   8.158   4.699 -0.5217 -0.1214 -0.0643
  400ccc     O411864   3.615   8.368   4.824 -0.4521 -0.5240 -0.2150
  400ccc     C611865   3.513   8.611   4.916 -0.4895 -0.5763  0.0185
  400ccc     H611866   3.384   8.114   4.762 -0.1379  0.5135  0.7700
  400ccc     H711867   3.637   8.463   4.832  0.8028 -0.8474  0.5114
  400ccc     H811868   3.412   8.245   4.430  1.4821  1.5582 -0.3766
  400ccc     H911869   3.509   8.572   5.018 -2.1251  1.2096  0.7040
  400ccc    H1011870   3.458   8.706   4.915  0.2166 -0.1179 -2.2651
  400ccc     O511871   3.652   8.626   4.866  0.4147 -0.1610 -0.3394
  400ccc    H1111872   3.633   8.709   4.819 -0.5793  0.3443  0.9156
  400ccc     O611873   3.430   8.579   4.700  0.3236  0.0269 -0.2253
  401ccc     C111874   4.976   8.898   3.973  0.3393 -0.1614 -0.3354
  401ccc     C211875   5.019   8.887   4.127  0.6356 -0.4460  0.0219
  401ccc     H111876   4.997   9.003   3.948 -0.2310  0.4988  1.7275
  401ccc     H211877   5.118   8.934   4.139  0.8089 -0.7360 -0.2560
  401ccc     C311878   4.917   8.948   4.230  0.0249  0.3588  0.4334
  401ccc     C411879   4.772   8.913   4.202 -0.3329  0.1839 -0.7264
  401ccc     C511880   4.742   8.943   4.048  0.4977 -0.0703 -0.9858
  401ccc     H311881   4.749   8.807   4.218 -2.8002  0.7057 -0.3627
  401ccc     H411882   4.923   9.057   4.223 -2.0226  0.4648 -0.2536
  401ccc     H511883   4.754   9.050   4.024  2.8106 -0.2511 -0.8275
  401ccc     O111884   4.613   8.894   4.016 -0.3145 -0.0247  0.8907
  401ccc     O211885   4.685   8.996   4.291 -0.5630  0.0326  0.4935
  401ccc     O311886   4.953   8.904   4.364 -0.4257 -0.1049 -0.0913
  401ccc     O411887   5.019   8.746   4.156  0.2876 -0.0086 -0.2375
  401ccc     C611888   5.052   8.816   3.872 -0.3159  0.5727 -0.9362
  401ccc     H611889   4.877   8.924   4.421 -0.3159 -0.0159  0.0234
  401ccc     H711890   4.996   8.767   4.249  2.8685  1.0638  0.2513
  401ccc     H811891   4.727   9.077   4.326 -1.1107  0.7437 -0.4573
  401ccc     H911892   5.156   8.848   3.877 -0.9320  2.4958  1.8028
  401ccc    H1011893   5.000   8.838   3.778 -1.0438 -0.6012 -0.8393
  401ccc     O511894   5.039   8.677   3.915 -0.4522 -0.1405  0.7022
  401ccc    H1111895   5.015   8.681   4.009  0.2941 -0.3830  0.9088
  401ccc     O611896   4.839   8.866   3.965 -0.1152 -0.3795  0.0184
  402ccc     C111897   4.735   8.298   4.012 -0.7281  0.3313 -0.1306
  402ccc     C211898   4.852   8.377   3.957 -0.4318 -0.1531  0.1793
  402ccc     H111899   4.704   8.214   3.948  0.0250 -0.7797  0.9168
  402ccc     H211900   4.936   8.306   3.963 -0.8443 -0.5068  2.8994
  402ccc     C311901   4.814   8.433   3.821 -0.8772  0.7288  0.3690
  402ccc     C411902   4.684   8.529   3.833 -0.2847  0.2199  0.1483
  402ccc     C511903   4.573   8.458   3.925 -0.0792 -0.3088 -0.1066
  402ccc     H311904   4.714   8.617   3.891  1.8019 -2.2485  3.0811
  402ccc     H411905   4.778   8.348   3.763 -1.0298  2.2397 -1.8753
  402ccc     H511906   4.524   8.393   3.852 -0.6748 -0.7421  0.6567
  402ccc     O111907   4.482   8.566   3.959 -0.2471  0.2207 -0.1979
  402ccc     O211908   4.624   8.565   3.696 -0.2332 -0.3497 -0.1301
  402ccc     O311909   4.925   8.497   3.752 -0.2443  0.4094  0.0020
  402ccc     O411910   4.891   8.478   4.048 -0.2856  0.0612  0.3282
  402ccc     C611911   4.780   8.233   4.149 -0.1236  0.4051  0.7488
  402ccc     H611912   4.957   8.564   3.815 -1.0056  2.2106 -1.4512
  402ccc     H711913   4.859   8.439   4.131 -4.3036  0.2030 -0.9669
  402ccc     H811914   4.699   8.607   3.651  0.0485  0.2245  0.8456
  402ccc     H911915   4.873   8.175   4.140  0.6822  1.5656  1.3357
  402ccc    H1011916   4.697   8.166   4.173 -1.0217  0.1639 -2.5207
  402ccc     O511917   4.802   8.336   4.247 -0.1708 -0.2701  0.5269
  402ccc    H1111918   4.811   8.284   4.329 -1.9036 -0.6409  0.5125
  402ccc     O611919   4.626   8.389   4.037 -0.2326  0.3401 -0.3858
  403ccc     C111920   4.601   6.881   3.383 -0.2267 -0.2428 -0.1316
  403ccc     C211921   4.475   6.796   3.427 -0.1660  0.0230 -0.1821
  403ccc     H111922   4.684   6.825   3.427 -1.6846 -1.1784  1.5715
  403ccc     H211923   4.492   6.690   3.407 -0.0213 -0.7957  3.6170
  403ccc     C311924   4.459   6.807   3.578  0.0922 -0.0971 -0.2738
  403ccc     C411925   4.436   6.962   3.617  0.1245  0.7203  0.0528
  403ccc     C511926   4.557   7.041   3.566  0.0036 -0.0801 -0.3192
  403ccc     H311927   4.347   7.002   3.567 -0.0510  0.0758 -0.1563
  403ccc     H411928   4.547   6.761   3.625 -1.5485 -1.0456  2.1137
  403ccc     H511929   4.641   7.010   3.630 -0.6626 -0.3695  0.4425
  403ccc     O111930   4.525   7.172   3.584  0.2248 -0.0776 -0.4045
  403ccc     O211931   4.421   6.969   3.757 -0.0789  0.1829  0.1119
  403ccc     O311932   4.341   6.720   3.625 -0.6595  0.2505  0.4588
  403ccc     O411933   4.367   6.856   3.358 -0.3409  0.2797 -0.2081
  403ccc     C611934   4.633   6.887   3.227  0.4478  0.4311 -0.3235
  403ccc     H611935   4.307   6.746   3.712  0.0334 -2.1222  1.5267
  403ccc     H711936   4.318   6.795   3.300 -1.4495  2.4763 -1.7361
  403ccc     H811937   4.512   6.970   3.792  0.1877 -2.6181 -0.2883
  403ccc     H911938   4.550   6.933   3.173 -0.1613 -1.1971 -0.8642
  403ccc    H1011939   4.629   6.783   3.190 -1.7991 -0.0260  1.0185
  403ccc     O511940   4.758   6.950   3.218 -0.1433  0.8111  0.3174
  403ccc    H1111941   4.786   6.937   3.126 -0.4371  0.7956  0.2286
  403ccc     O611942   4.576   7.021   3.426  0.2295 -0.0432  0.6318
  404ccc     C111943   5.422   7.489   3.123  0.9734 -0.5464 -0.1077
  404ccc     C211944   5.402   7.632   3.178  0.8199 -0.3345  0.0453
  404ccc     H111945   5.461   7.490   3.020  0.3413  2.2943 -0.4139
  404ccc     H211946   5.485   7.703   3.167 -1.6367  2.4745 -1.8653
  404ccc     C311947   5.295   7.698   3.078 -0.1818 -0.0476 -0.3542
  404ccc     C411948   5.163   7.620   3.068 -0.1416 -0.3231  0.3602
  404ccc     C511949   5.199   7.472   3.030 -0.2538 -0.1818  0.2434
  404ccc     H311950   5.115   7.621   3.166 -0.1965  0.8588  0.3359
  404ccc     H411951   5.343   7.697   2.980  1.3281  2.3444  0.2818
  404ccc     H511952   5.237   7.461   2.927  2.3873  2.5666  0.8052
  404ccc     O111953   5.072   7.404   3.040 -0.0774 -0.1775  0.6425
  404ccc     O211954   5.083   7.684   2.965  0.6625 -0.2789  0.3191
  404ccc     O311955   5.272   7.840   3.098 -0.6827  0.0862  0.2113
  404ccc     O411956   5.338   7.623   3.305  0.3428  0.1377  0.3728
  404ccc     C611957   5.514   7.413   3.218  0.3091 -0.2542 -0.5939
  404ccc     H611958   5.223   7.847   3.182 -1.3162 -1.4555  0.0079
  404ccc     H711959   5.290   7.704   3.328  0.2213 -0.5336  2.8201
  404ccc     H811960   5.119   7.651   2.881  0.3495 -4.7073  1.6604
  404ccc     H911961   5.453   7.382   3.303 -0.3090  1.0071 -0.5439
  404ccc    H1011962   5.586   7.481   3.265 -0.0703  0.8864 -1.5965
  404ccc     O511963   5.573   7.307   3.148  0.1598 -0.2437 -0.7011
  404ccc    H1111964   5.580   7.236   3.214  2.4523 -0.3544 -0.9798
  404ccc     O611965   5.297   7.417   3.122  0.3978 -0.1657  0.3201
  405ccc     C111966   5.198   8.049   3.499 -0.1253 -0.2481 -0.7726
  405ccc     C211967   5.070   8.017   3.583  0.1722  0.1384  0.7876
  405ccc     H111968   5.267   8.116   3.552  1.3422 -1.0033 -1.6939
  405ccc     H211969   5.099   7.957   3.670 -0.1274 -1.7686 -0.3640
  405ccc     C311970   4.999   8.150   3.614  0.3745 -0.2005  0.0556
  405ccc     C411971   4.961   8.230   3.484 -0.3149 -0.3538  0.7083
  405ccc     C511972   5.094   8.248   3.406  0.3348  0.1757  0.7437
  405ccc     H311973   4.887   8.180   3.420  0.5811  0.8367 -1.3681
  405ccc     H411974   5.072   8.199   3.680 -1.0013 -2.3273  3.3961
  405ccc     H511975   5.171   8.302   3.464  1.3482  0.0195 -0.4246
  405ccc     O111976   5.073   8.319   3.280 -0.4873  0.4500  0.3390
  405ccc     O211977   4.911   8.360   3.522 -0.2980  0.1698 -0.1401
  405ccc     O311978   4.876   8.141   3.697  0.1197 -0.7793  0.1016
  405ccc     O411979   4.991   7.933   3.496 -0.2763  0.1910 -0.3579
  405ccc     C611980   5.286   7.924   3.459  0.5259  0.9383  0.1779
  405ccc     H611981   4.909   8.115   3.785 -0.0428  2.0580  1.1042
  405ccc     H711982   4.904   7.930   3.538  0.5928 -0.0740  1.5216
  405ccc     H811983   4.921   8.380   3.617  0.4910  0.0514 -0.1973
  405ccc     H911984   5.301   7.857   3.544  0.1525  0.9641  0.2674
  405ccc    H1011985   5.385   7.946   3.418  0.8300 -0.7234 -0.0223
  405ccc     O511986   5.205   7.848   3.364  0.0208  0.0036  0.4532
  405ccc    H1111987   5.120   7.880   3.400 -0.5869  0.3810 -1.1806
  405ccc     O611988   5.159   8.126   3.383 -0.6787 -0.5439 -0.2852
  406ccc     C111989   5.066   8.226   2.429 -0.1033  0.6890 -0.3722
  406ccc     C211990   5.199   8.137   2.445  0.0047 -0.6362  0.3885
  406ccc     H111991   5.049   8.257   2.325  1.0555 -0.8914 -1.0884
  406ccc     H211992   5.211   8.070   2.359 -0.6796  0.8069 -0.8805
  406ccc     C311993   5.321   8.229   2.454 -0.5165 -0.1333  0.2767
  406ccc     C411994   5.307   8.346   2.554 -0.7432  0.5850  0.3528
  406ccc     C511995   5.176   8.429   2.525 -0.4546 -0.1095 -0.1829
  406ccc     H311996   5.308   8.290   2.648 -0.0957 -1.8943 -1.0381
  406ccc     H411997   5.347   8.272   2.357 -0.6557 -3.3041 -1.3031
  406ccc     H511998   5.181   8.469   2.423  1.5375 -1.4161 -0.6618
  406ccc     O111999   5.156   8.530   2.624  0.0195  0.5949 -0.1799
  406ccc     O212000   5.436   8.428   2.546 -0.3961 -0.0216  0.2637
  406ccc     O312001   5.438   8.146   2.495  0.3409  0.2363  0.6711
  406ccc     O412002   5.189   8.054   2.551  0.2675 -0.1658  0.0295
  406ccc     C612003   4.933   8.154   2.437 -0.3576  0.0649  0.4754
  406ccc     H612004   5.413   8.056   2.523  0.4940  0.0402  0.1872
  406ccc     H712005   5.093   8.048   2.564  0.0990  1.1027 -0.5273
  406ccc     H812006   5.501   8.360   2.523 -0.0106  0.4118  0.0637
  406ccc     H912007   4.915   8.098   2.345 -0.9818 -0.9456  1.1861
  406ccc    H1012008   4.847   8.223   2.443 -0.4726  0.0843 -0.9855
  406ccc     O512009   4.927   8.056   2.545  0.2453 -0.2917 -0.3481
  406ccc    H1112010   4.836   8.024   2.551 -0.5341  2.0000  1.6191
  406ccc     O612011   5.066   8.332   2.530  0.1469  0.7072  0.5212
  407ccc     C112012   3.009   9.287   2.369 -0.0978  0.3833  0.4098
  407ccc     C212013   3.141   9.349   2.303 -0.2515 -0.8812  0.3268
  407ccc     H112014   2.975   9.345   2.455  1.9789  0.7775  1.0099
  407ccc     H212015   3.116   9.454   2.285 -0.3316 -0.8434  0.6548
  407ccc     C312016   3.259   9.346   2.396 -0.3316 -0.1458  0.1335
  407ccc     C412017   3.278   9.204   2.459 -0.4582  0.9395  0.2528
  407ccc     C512018   3.141   9.143   2.508  0.6555  0.4454 -0.3960
  407ccc     H312019   3.321   9.132   2.387 -1.5901 -0.5275  0.9791
  407ccc     H412020   3.232   9.411   2.481  1.5715 -1.3514  1.7417
  407ccc     H512021   3.105   9.202   2.593  1.5331  1.6026 -0.8039
  407ccc     O112022   3.157   9.005   2.549  0.1576  0.3307 -0.0781
  407ccc     O212023   3.364   9.208   2.578 -0.4196 -0.4719  0.4656
  407ccc     O312024   3.383   9.395   2.333 -0.4020 -0.0374  0.2675
  407ccc     O412025   3.163   9.267   2.185  0.1465  0.2002 -0.1028
  407ccc     C612026   2.888   9.280   2.274  0.0549 -0.0080 -0.3146
  407ccc     H612027   3.398   9.487   2.361  0.1199  0.2938 -1.0605
  407ccc     H712028   3.184   9.334   2.118  0.1779  0.1084 -0.1835
  407ccc     H812029   3.437   9.271   2.562  2.3120 -3.3678  0.4121
  407ccc     H912030   2.883   9.379   2.229 -1.6234  0.8989  1.7221
  407ccc    H1012031   2.796   9.254   2.328  0.6392 -0.0050  0.7139
  407ccc     O512032   2.911   9.196   2.167 -0.1168  0.6052  0.2121
  407ccc    H1112033   3.008   9.200   2.162  0.1627 -1.4892  2.2100
  407ccc     O612034   3.041   9.150   2.410 -0.1213 -0.1957  0.6244
  408ccc     C112035   2.622   8.730   2.134 -0.5057  0.3218 -0.1310
  408ccc     C212036   2.646   8.877   2.173  0.0663  0.0057  0.4518
  408ccc     H112037   2.543   8.681   2.192 -1.0462  1.3863  0.0598
  408ccc     H212038   2.554   8.928   2.144 -0.4995 -1.6609 -0.8243
  408ccc     C312039   2.660   8.896   2.324 -0.3197 -0.8538 -0.4915
  408ccc     C412040   2.768   8.802   2.382 -0.1592  0.9525  0.6702
  408ccc     C512041   2.762   8.653   2.319  0.4259 -0.5215  0.9860
  408ccc     H312042   2.864   8.846   2.352  0.1459 -1.9744 -3.6069
  408ccc     H412043   2.566   8.857   2.364  0.3995 -0.9547  1.1767
  408ccc     H512044   2.689   8.586   2.366  0.1009 -0.6613  0.2990
  408ccc     O112045   2.885   8.592   2.336  0.5374 -0.4305  0.3776
  408ccc     O212046   2.756   8.793   2.527 -0.2358 -0.5768 -0.2417
  408ccc     O312047   2.678   9.031   2.367  0.0567 -0.4954  0.2965
  408ccc     O412048   2.757   8.926   2.107 -0.2212  0.1760 -0.7803
  408ccc     C612049   2.609   8.704   1.980 -0.1482 -0.2071 -0.0152
  408ccc     H612050   2.623   9.088   2.310  1.0530 -1.9173 -2.2735
  408ccc     H712051   2.795   8.999   2.159  2.2800 -1.1985 -0.5678
  408ccc     H812052   2.768   8.883   2.560  1.0638 -1.5112  2.0957
  408ccc     H912053   2.690   8.643   1.939 -1.7899 -1.5925 -1.3284
  408ccc    H1012054   2.623   8.802   1.932  0.0935 -0.3684 -0.2785
  408ccc     O512055   2.483   8.652   1.950 -0.1282 -0.6532  0.3307
  408ccc    H1112056   2.478   8.637   1.854  4.4170 -2.9019  0.1666
  408ccc     O612057   2.742   8.665   2.178 -0.0574  0.2778 -0.1377
  409ccc     C112058   4.261   7.812   1.764 -0.3860 -0.1299 -0.0513
  409ccc     C212059   4.341   7.934   1.721 -0.2107  0.2199 -0.5815
  409ccc     H112060   4.294   7.721   1.712  0.1161 -1.0938  1.8685
  409ccc     H212061   4.446   7.904   1.731 -0.5409 -0.2765  2.0343
  409ccc     C312062   4.314   7.967   1.572  0.7873  0.1991  0.2526
  409ccc     C412063   4.161   7.984   1.546  0.7738  0.4016 -0.7129
  409ccc     C512064   4.077   7.866   1.610 -0.0666 -0.2438 -0.3188
  409ccc     H312065   4.133   8.081   1.590 -1.0326  0.0003 -0.8986
  409ccc     H412066   4.350   7.873   1.527  0.5373  0.1019  0.2568
  409ccc     H512067   4.091   7.771   1.555  0.2822 -1.1725  1.3039
  409ccc     O112068   3.932   7.893   1.610  0.2040  0.1411  0.1742
  409ccc     O212069   4.138   7.989   1.406 -0.0006 -0.0049  0.3518
  409ccc     O312070   4.395   8.079   1.537  0.1494  0.5558 -0.8125
  409ccc     O412071   4.295   8.042   1.802  0.1546 -0.2322 -0.7111
  409ccc     C612072   4.273   7.775   1.916 -0.5101  0.3152 -0.3477
  409ccc     H612073   4.340   8.158   1.551  0.5757  0.5354  1.3212
  409ccc     H712074   4.287   7.996   1.887 -1.1338  0.6858 -0.3021
  409ccc     H812075   4.198   8.053   1.364 -1.8907 -0.0218 -2.6103
  409ccc     H912076   4.375   7.747   1.947  0.1237  0.5890 -2.0824
  409ccc    H1012077   4.203   7.694   1.939  0.1016 -0.3931 -0.9051
  409ccc     O512078   4.226   7.880   1.998  0.4155 -0.3145  0.0562
  409ccc    H1112079   4.254   7.847   2.085 -0.3771 -0.8890  0.0976
  409ccc     O612080   4.121   7.836   1.740 -0.2711  0.6681 -0.3464
  410ccc     C112081   4.308   8.420   2.000 -0.2002  0.5188 -0.4099
  410ccc     C212082   4.277   8.510   2.122  0.0659  0.3123  0.0194
  410ccc     H112083   4.324   8.496   1.922 -0.5024  0.8646 -0.1391
  410ccc     H212084   4.361   8.576   2.147  0.2878 -0.4495  1.3721
  410ccc     C312085   4.153   8.599   2.090 -0.3368 -0.3221 -0.1451
  410ccc     C412086   4.026   8.511   2.047  0.6920  0.4646  0.1308
  410ccc     C512087   4.067   8.422   1.926  0.1815  0.2130 -0.2106
  410ccc     H312088   3.994   8.451   2.133 -2.3390 -1.4873 -2.1322
  410ccc     H412089   4.191   8.654   2.003 -3.3055 -0.3922 -1.6247
  410ccc     H512090   4.079   8.491   1.841 -1.9183  0.8648 -0.0200
  410ccc     O112091   3.960   8.336   1.893  0.2051  0.0191 -0.1022
  410ccc     O212092   3.916   8.597   2.005  0.1827 -0.6505 -0.3304
  410ccc     O312093   4.134   8.703   2.188 -0.4977  0.4621  0.1538
  410ccc     O412094   4.250   8.424   2.233 -0.1838  0.8507 -0.6034
  410ccc     C612095   4.429   8.319   2.024 -0.7470  0.1122 -0.8646
  410ccc     H612096   4.118   8.661   2.274  1.0314 -1.8427 -0.6200
  410ccc     H712097   4.273   8.482   2.308  0.4934  1.2549 -1.1100
  410ccc     H812098   3.835   8.545   2.019  0.4610 -0.6915  1.4852
  410ccc     H912099   4.391   8.235   2.083 -3.5468 -0.6659 -3.5125
  410ccc    H1012100   4.505   8.372   2.082 -0.4092 -0.3058 -0.9200
  410ccc     O512101   4.466   8.258   1.897  0.0309  0.0825  0.2234
  410ccc    H1112102   4.391   8.200   1.878  0.5502 -0.1955 -1.0421
  410ccc     O612103   4.188   8.343   1.956 -0.6229 -0.2093  0.0882
  411ccc     C112104   4.201   6.620   2.075 -0.0761 -0.0219  0.0361
  411ccc     C212105   4.307   6.654   2.182 -0.7817 -0.0923  0.3268
  411ccc     H112106   4.233   6.544   2.003 -3.2639 -1.3202 -0.1465
  411ccc     H212107   4.338   6.559   2.228 -0.3941 -1.4532 -2.5526
  411ccc     C312108   4.435   6.721   2.120  0.7379 -0.5171  0.3047
  411ccc     C412109   4.392   6.839   2.029  0.7047 -0.0637  0.0506
  411ccc     C512110   4.286   6.802   1.927  0.5087  0.2761  0.0232
  411ccc     H312111   4.338   6.911   2.092  1.8539 -0.0910  1.1062
  411ccc     H412112   4.477   6.640   2.060  0.1935 -2.3884  2.3043
  411ccc     H512113   4.326   6.735   1.850 -0.1910 -0.4528  0.2822
  411ccc     O112114   4.238   6.918   1.856 -0.1204 -0.5555 -0.1193
  411ccc     O212115   4.512   6.899   1.965  0.3651 -0.2500  0.8804
  411ccc     O312116   4.531   6.758   2.226  0.1404 -0.8536 -0.0705
  411ccc     O412117   4.256   6.749   2.276  0.3011  0.0593 -0.2828
  411ccc     C612118   4.064   6.568   2.133  0.6558  0.2741 -0.4020
  411ccc     H612119   4.560   6.669   2.250 -1.1450 -1.5805 -1.0627
  411ccc     H712120   4.330   6.742   2.338 -0.9061 -0.2922  1.1628
  411ccc     H812121   4.568   6.929   2.039  1.0191  1.4681 -0.2421
  411ccc     H912122   4.075   6.486   2.205  0.7793  1.1272  0.5677
  411ccc    H1012123   3.995   6.543   2.051  1.5672  1.1883 -1.4858
  411ccc     O512124   4.008   6.676   2.194  0.1090  0.0330  0.7049
  411ccc    H1112125   4.093   6.723   2.186  0.0375  0.2627  1.2474
  411ccc     O612126   4.170   6.738   2.002 -1.0555  0.0794  0.4943
  412ccc     C112127   3.920   6.987   0.912  0.4323  0.3303  0.3895
  412ccc     C212128   3.768   6.979   0.866 -0.4244  0.2440 -0.6383
  412ccc     H112129   3.978   6.896   0.896  1.7058  1.2265 -0.2889
  412ccc     H212130   3.768   6.945   0.762  0.8865 -1.7343 -0.0353
  412ccc     C312131   3.685   6.880   0.957 -0.3418  0.3057  0.0481
  412ccc     C412132   3.731   6.878   1.107 -0.0815 -0.7696  0.1005
  412ccc     C512133   3.880   6.895   1.126  0.1956  0.3732 -0.2965
  412ccc     H312134   3.673   6.959   1.154  0.2071 -0.8585  0.6166
  412ccc     H412135   3.708   6.779   0.920 -1.8665  0.0922 -0.3919
  412ccc     H512136   3.927   6.798   1.109 -0.2066 -0.3407  2.2902
  412ccc     O112137   3.914   6.920   1.265  0.6583 -0.0456  0.1326
  412ccc     O212138   3.691   6.756   1.176 -0.4626  0.2069 -0.1154
  412ccc     O312139   3.540   6.893   0.943 -0.3380  0.3194 -0.2398
  412ccc     O412140   3.711   7.103   0.883  0.3755 -0.0650 -0.4771
  412ccc     C612141   3.997   7.107   0.847 -0.0019 -0.7870 -0.4530
  412ccc     H612142   3.510   6.953   1.013  0.1051  0.3068 -0.0337
  412ccc     H712143   3.623   7.098   0.841  0.2069  0.5568 -0.1993
  412ccc     H812144   3.714   6.774   1.269  3.4933 -0.5392 -0.7613
  412ccc     H912145   3.963   7.199   0.895  3.0051 -0.0692  0.5196
  412ccc    H1012146   3.975   7.123   0.741 -1.0284 -0.0219 -0.1455
  412ccc     O512147   4.136   7.090   0.883 -0.2056  0.1458 -0.1229
  412ccc    H1112148   4.163   7.179   0.911 -1.7317  0.3326  0.9117
  412ccc     O612149   3.920   7.008   1.055  0.3885  0.2043  0.3851
  413ccc     C112150   3.220   7.149   1.080 -0.3515  0.1281  0.3199
  413ccc     C212151   3.230   7.261   1.186 -0.3407  0.4629  0.1552
  413ccc     H112152   3.150   7.179   1.001 -0.2604 -0.4589  0.0136
  413ccc     H212153   3.250   7.351   1.128  1.4311 -0.2426 -0.3912
  413ccc     C312154   3.099   7.273   1.265 -0.3495  0.5237  0.4415
  413ccc     C412155   3.058   7.137   1.333  0.2467  0.2144  0.7411
  413ccc     C512156   3.070   7.018   1.223 -0.0379 -0.4793  0.6269
  413ccc     H312157   3.138   7.112   1.405  2.7178 -0.1198 -1.9206
  413ccc     H412158   3.024   7.285   1.186  0.0920 -1.8472 -0.4136
  413ccc     H512159   2.984   7.019   1.155  0.1730 -2.4953  0.2599
  413ccc     O112160   3.067   6.899   1.306 -0.6755 -0.3466 -0.0441
  413ccc     O212161   2.921   7.142   1.392  0.3712  0.0968  0.4969
  413ccc     O312162   3.096   7.378   1.366  0.0070  0.2040 -0.3702
  413ccc     O412163   3.346   7.235   1.271  0.8722 -0.2492  0.2950
  413ccc     C612164   3.352   7.124   1.006 -0.1145 -0.2979 -0.3360
  413ccc     H612165   3.007   7.416   1.373  0.2925  0.7541  0.4367
  413ccc     H712166   3.375   7.328   1.279  0.2724 -0.0784  0.5320
  413ccc     H812167   2.925   7.199   1.470 -2.8032 -0.2275  1.0421
  413ccc     H912168   3.393   7.218   0.967  0.8654 -0.0690  1.1633
  413ccc    H1012169   3.336   7.063   0.917 -1.9723  1.7492 -1.5254
  413ccc     O512170   3.442   7.057   1.098 -0.3658  0.4689 -0.1354
  413ccc    H1112171   3.411   7.086   1.185  1.5625 -0.6176  0.9952
  413ccc     O612172   3.192   7.028   1.145  0.4631  0.6935 -0.0238
  414ccc     C112173   2.366   6.312   1.390  0.2206  0.1744  0.2276
  414ccc     C212174   2.356   6.285   1.236 -0.3573 -0.3201  0.1076
  414ccc     H112175   2.328   6.414   1.404  1.0355  0.5386 -0.1781
  414ccc     H212176   2.253   6.300   1.204 -0.8856  1.7013  2.4236
  414ccc     C312177   2.455   6.377   1.158  0.3869 -0.0980 -0.4738
  414ccc     C412178   2.593   6.376   1.234  0.6628 -0.6769  0.0179
  414ccc     C512179   2.585   6.411   1.383  0.2251  0.1673  0.3665
  414ccc     H312180   2.639   6.278   1.217  0.3262 -0.8335  0.0024
  414ccc     H412181   2.405   6.474   1.173  0.7302 -0.0668  0.5662
  414ccc     H512182   2.548   6.514   1.388  0.4245  0.2604 -0.0282
  414ccc     O112183   2.720   6.402   1.446  0.3537 -0.6574 -0.1119
  414ccc     O212184   2.668   6.480   1.167  0.0171 -0.0210  0.4778
  414ccc     O312185   2.467   6.331   1.017  0.2988  0.2215 -0.4504
  414ccc     O412186   2.389   6.152   1.216  0.2518 -0.2739 -0.0858
  414ccc     C612187   2.284   6.223   1.474  0.0552  0.3308 -0.3450
  414ccc     H612188   2.449   6.237   1.005  0.6821  0.1063 -0.1484
  414ccc     H712189   2.371   6.119   1.306  0.4342  0.9535  0.4130
  414ccc     H812190   2.628   6.473   1.078 -0.9313  1.5908  0.7291
  414ccc     H912191   2.178   6.220   1.446  0.4263  1.2753 -1.9815
  414ccc    H1012192   2.294   6.260   1.576 -1.7455  0.7458 -0.2807
  414ccc     O512193   2.344   6.090   1.456 -0.0043 -0.2164 -0.4581
  414ccc    H1112194   2.423   6.086   1.514  1.1395  0.3670 -1.9116
  414ccc     O612195   2.502   6.313   1.444 -0.4957  0.5016 -0.0625
  415ccc     C112196   1.375   6.137   4.260  0.8683  0.1778 -0.5122
  415ccc     C212197   1.424   6.208   4.130  0.1287  0.6113 -0.2200
  415ccc     H112198   1.457   6.089   4.315  0.8757  0.4618 -0.2766
  415ccc     H212199   1.501   6.286   4.135  0.2103  0.5733 -0.7997
  415ccc     C312200   1.489   6.109   4.028  0.3272  0.1197  0.0025
  415ccc     C412201   1.402   5.979   3.999  0.4706 -0.1606 -0.0062
  415ccc     C512202   1.360   5.921   4.136  0.5230  0.1343 -1.4099
  415ccc     H312203   1.308   5.999   3.946  0.5531 -0.1701 -0.1551
  415ccc     H412204   1.581   6.077   4.078  0.0869 -0.6328 -0.0321
  415ccc     H512205   1.449   5.882   4.188  0.7874  1.8115 -0.5250
  415ccc     O112206   1.273   5.810   4.119  0.1602 -0.2791  0.3302
  415ccc     O212207   1.477   5.878   3.926 -0.3128 -0.3322 -0.0687
  415ccc     O312208   1.515   6.163   3.898 -0.2725  0.3507  0.1353
  415ccc     O412209   1.310   6.256   4.064  0.0517  1.0232  0.4450
  415ccc     C612210   1.295   6.225   4.356 -0.1181  0.1176  0.4814
  415ccc     H612211   1.429   6.174   3.854  0.6055  2.3753 -1.1767
  415ccc     H712212   1.244   6.278   4.132 -0.1602  1.6795  0.0337
  415ccc     H812213   1.438   5.896   3.839 -0.9375  2.2629  0.6510
  415ccc     H912214   1.350   6.312   4.395  0.3096 -0.1466  0.4684
  415ccc    H1012215   1.267   6.157   4.438 -1.7417  0.1633 -0.0106
  415ccc     O512216   1.177   6.266   4.283 -0.1318 -0.5690  0.0651
  415ccc    H1112217   1.112   6.297   4.348 -1.6629  2.0281 -2.4667
  415ccc     O612218   1.293   6.021   4.225 -0.2459 -0.2299 -0.2816
  416ccc     C112219   0.722   5.224   3.479  0.3363  0.4543  0.4793
  416ccc     C212220   0.804   5.287   3.363 -0.3664  0.3916 -0.3722
  416ccc     H112221   0.617   5.256   3.483  0.9779  2.6583  1.8994
  416ccc     H212222   0.743   5.268   3.274  1.2678 -0.1457 -1.4218
  416ccc     C312223   0.833   5.438   3.384  0.1693 -0.2794 -0.6937
  416ccc     C412224   0.899   5.467   3.518  0.4560 -0.3848 -0.0169
  416ccc     C512225   0.811   5.404   3.636 -0.3602  0.4118 -0.0864
  416ccc     H312226   0.993   5.412   3.522  1.3617  1.0117 -1.0480
  416ccc     H412227   0.731   5.475   3.399  0.4874  0.4080 -0.1648
  416ccc     H512228   0.715   5.457   3.635 -0.9857 -0.6921  0.1400
  416ccc     O112229   0.875   5.412   3.763 -0.5676 -0.7008  0.1076
  416ccc     O212230   0.912   5.603   3.519  0.3210 -0.2874 -0.0341
  416ccc     O312231   0.896   5.511   3.268 -0.0688  0.2143 -0.0248
  416ccc     O412232   0.925   5.213   3.359 -0.3721 -0.3428  0.7788
  416ccc     C612233   0.702   5.075   3.473 -0.4781 -0.0993 -0.7423
  416ccc     H612234   0.958   5.446   3.232 -0.1819 -0.3136  0.7230
  416ccc     H712235   0.892   5.135   3.408 -2.3575 -0.9152 -1.2822
  416ccc     H812236   0.923   5.626   3.425  0.7274 -3.3518 -0.8321
  416ccc     H912237   0.660   5.046   3.376  2.4396 -0.7950 -1.8923
  416ccc    H1012238   0.626   5.047   3.547 -0.7622  4.7199  1.1847
  416ccc     O512239   0.835   5.014   3.491  0.7300 -0.1815 -0.5077
  416ccc    H1112240   0.813   4.925   3.526  0.1245  0.1465 -0.0410
  416ccc     O612241   0.789   5.263   3.603  0.1272  0.3478  0.7011
  417ccc     C112242   0.708   5.324   4.382  0.2383  0.0237  0.3257
  417ccc     C212243   0.827   5.355   4.476 -0.2865  0.0280  0.0210
  417ccc     H112244   0.636   5.276   4.448  0.6890 -0.8501  0.1907
  417ccc     H212245   0.778   5.408   4.559 -2.2138 -1.8016  0.1143
  417ccc     C312246   0.879   5.212   4.514  0.1444 -0.0310  0.1178
  417ccc     C412247   0.911   5.122   4.387  0.4914  0.5421 -0.2040
  417ccc     C512248   0.783   5.105   4.295 -0.0363  0.4759 -0.6057
  417ccc     H312249   0.986   5.176   4.328 -1.1422  1.9831 -1.0590
  417ccc     H412250   0.789   5.165   4.556  0.3562 -0.3704  0.1901
  417ccc     H512251   0.705   5.056   4.354 -0.1134 -0.0248 -1.1255
  417ccc     O112252   0.820   5.038   4.174 -0.2960  0.4193  0.0137
  417ccc     O212253   0.963   4.989   4.431 -0.1776  0.3263  0.1075
  417ccc     O312254   0.983   5.216   4.613  0.2873 -0.3409 -0.5101
  417ccc     O412255   0.927   5.432   4.405  0.2063 -0.2139 -0.1771
  417ccc     C612256   0.630   5.446   4.327  0.4851  0.2278 -0.2005
  417ccc     H612257   0.943   5.187   4.697 -0.5695 -0.9545 -1.1121
  417ccc     H712258   1.009   5.423   4.456 -1.5694  2.6100  3.6964
  417ccc     H812259   1.011   5.002   4.514 -1.2014 -0.1575  0.8006
  417ccc     H912260   0.593   5.507   4.410  0.0724 -0.1401 -0.1156
  417ccc    H1012261   0.546   5.417   4.263 -0.6479  1.6540  0.5651
  417ccc     O512262   0.722   5.519   4.248 -0.0882 -0.2447 -0.1823
  417ccc    H1112263   0.806   5.497   4.291  0.1786 -0.5223 -0.8348
  417ccc     O612264   0.732   5.237   4.269 -0.2405 -0.2216  0.0319
  418ccc     C112265   0.879   3.959   4.027 -0.2372  0.1061 -0.0170
  418ccc     C212266   0.912   3.882   3.897 -0.0694 -0.0366  0.2236
  418ccc     H112267   0.773   3.937   4.046  0.3678 -1.2978  2.1730
  418ccc     H212268   0.906   3.773   3.910  2.6788 -0.3307 -0.3312
  418ccc     C312269   0.813   3.920   3.776  0.5420  0.3018 -0.9302
  418ccc     C412270   0.837   4.071   3.754 -0.8881  0.1591 -0.0179
  418ccc     C512271   0.821   4.149   3.885  0.1827 -0.5909 -0.6522
  418ccc     H312272   0.940   4.081   3.717 -1.5627 -1.8379 -2.7656
  418ccc     H412273   0.716   3.901   3.825  1.3063 -0.8522  0.2099
  418ccc     H512274   0.717   4.146   3.920  0.9631 -1.0483  1.8111
  418ccc     O112275   0.848   4.293   3.876  0.1064 -0.2271  0.4646
  418ccc     O212276   0.752   4.121   3.650  0.2974  0.1412 -0.0599
  418ccc     O312277   0.821   3.841   3.654  0.0490 -0.4360 -0.8352
  418ccc     O412278   1.046   3.910   3.861 -0.5047 -0.1728 -0.1429
  418ccc     C612279   0.952   3.911   4.148  0.1557 -0.5133 -0.7278
  418ccc     H612280   0.915   3.818   3.645  0.4322  1.3077 -1.4862
  418ccc     H712281   1.069   3.845   3.792 -0.8469  0.2817 -0.6961
  418ccc     H812282   0.799   4.198   3.615  1.0992  0.2010  1.0819
  418ccc     H912283   1.060   3.925   4.136 -0.0098  0.2057 -1.5207
  418ccc    H1012284   0.947   3.802   4.156 -1.0649 -0.3950  0.2941
  418ccc     O512285   0.903   3.969   4.261 -0.0934  0.8642 -0.4112
  418ccc    H1112286   0.950   3.929   4.336 -2.2861 -2.6775 -0.7053
  418ccc     O612287   0.909   4.099   3.993 -0.3523 -0.0882  0.2647
  419ccc     C112288   1.034   4.846   6.271 -0.7481 -0.1222  0.4380
  419ccc     C212289   0.992   4.661   6.346 -0.3057  0.7291 -0.1231
  419ccc     H112290   0.942   4.902   6.250 -1.2353 -1.0056  0.1498
  419ccc     H212291   0.884   4.647   6.337 -0.3404  1.3829 -0.8580
  419ccc     C312292   1.059   4.497   6.249  0.3668 -0.6686 -0.3640
  419ccc     C412293   1.153   4.528   6.062 -0.1296  0.5482  0.3744
  419ccc     C512294   1.185   4.717   5.998 -0.2139  0.2540  0.2102
  419ccc     H312295   1.248   4.473   6.061  0.3592  1.3199 -2.4079
  419ccc     H412296   0.968   4.438   6.235 -0.7198  0.3751  1.8492
  419ccc     H512297   1.129   4.719   5.905  0.2562  0.0884 -0.0833
  419ccc     O112298   1.326   4.730   5.957  0.2245  0.0945 -0.0004
  419ccc     O212299   1.086   4.454   5.960  0.0302  0.0838 -0.0974
  419ccc     O312300   1.127   4.411   6.343  0.5394 -0.4293  0.4569
  419ccc     O412301   1.020   4.663   6.488  0.3135  0.2956  0.7632
  419ccc     C612302   1.090   4.949   6.368 -0.0656 -0.2197 -0.4692
  419ccc     H612303   1.114   4.321   6.308 -4.6444  0.5212 -0.8755
  419ccc     H712304   1.051   4.576   6.518  0.5080 -0.3168 -1.0921
  419ccc     H812305   0.993   4.477   5.977 -0.2579  0.5512 -1.9935
  419ccc     H912306   1.192   4.920   6.393 -0.5178 -3.5645 -1.8811
  419ccc    H1012307   1.029   4.949   6.459  0.1637 -0.3975 -0.3147
  419ccc     O512308   1.095   5.077   6.295  0.3230 -0.0059 -0.3060
  419ccc    H1112309   1.182   5.105   6.262 -0.6953 -0.1033 -3.3516
  419ccc     O612310   1.130   4.857   6.102  0.1444 -0.3828 -0.2448
  420ccc     C112311   0.693   4.611   5.164 -0.1396 -0.2174 -0.0189
  420ccc     C212312   0.607   4.728   5.218 -0.6820  0.5279 -0.5287
  420ccc     H112313   0.646   4.513   5.179 -0.9353 -0.2437 -2.2824
  420ccc     H212314   0.501   4.714   5.194 -0.1742 -1.1982 -1.9197
  420ccc     C312315   0.603   4.729   5.373 -0.7232 -0.0661  0.7351
  420ccc     C412316   0.751   4.735   5.430 -0.5480 -0.3672 -0.6565
  420ccc     C512317   0.836   4.618   5.362  0.5360 -0.1935 -0.2552
  420ccc     H312318   0.784   4.837   5.407  0.3760  0.2556  2.9187
  420ccc     H412319   0.580   4.625   5.398  1.8379 -0.5736  1.2436
  420ccc     H512320   0.800   4.523   5.402  1.3166 -0.3553  0.0907
  420ccc     O112321   0.976   4.654   5.389 -0.4062  0.2404  0.1070
  420ccc     O212322   0.744   4.707   5.574 -0.4785  0.7312 -0.5732
  420ccc     O312323   0.521   4.835   5.429  0.0287  0.2137  0.4740
  420ccc     O412324   0.657   4.846   5.166 -0.3593  0.4281  0.1155
  420ccc     C612325   0.697   4.608   5.011 -0.2270 -0.2708  0.5804
  420ccc     H612326   0.430   4.805   5.408 -0.4222  0.0077  2.5629
  420ccc     H712327   0.594   4.908   5.206  0.6456  0.9942  0.8709
  420ccc     H812328   0.696   4.784   5.609  0.2190  0.9139  0.0070
  420ccc     H912329   0.759   4.692   4.979  0.7970 -0.6593  1.4782
  420ccc    H1012330   0.598   4.611   4.964  0.0857  0.4544 -0.0393
  420ccc     O512331   0.760   4.493   4.975 -0.2126  0.6867  0.2663
  420ccc    H1112332   0.837   4.503   5.033 -0.9519 -0.4013  1.5024
  420ccc     O612333   0.821   4.622   5.215 -0.0286  0.9711 -0.2045
  421ccc     C112334   1.211   5.087   5.259 -0.3353 -0.1040 -0.4307
  421ccc     C212335   1.086   5.069   5.344 -0.5307  0.2594  0.1680
  421ccc     H112336   1.193   5.178   5.199 -0.7203  0.6398  0.7866
  421ccc     H212337   1.074   5.160   5.405  0.7545  0.8866 -0.4771
  421ccc     C312338   0.965   5.051   5.235  0.0081  0.1087 -0.4969
  421ccc     C412339   0.997   4.927   5.151 -0.1148 -0.0232  0.2580
  421ccc     C512340   1.119   4.950   5.067 -0.3212  0.4291 -0.5033
  421ccc     H312341   1.019   4.850   5.225  0.4927 -0.3344 -0.2442
  421ccc     H412342   0.960   5.134   5.164  0.8295 -1.8428 -2.9743
  421ccc     H512343   1.110   5.027   4.989  0.9535  0.7920 -0.3264
  421ccc     O112344   1.152   4.817   5.009  0.0319  0.0151 -0.0548
  421ccc     O212345   0.889   4.901   5.057  0.1925 -0.0864  0.0228
  421ccc     O312346   0.842   5.033   5.307 -0.0363  0.3755  0.5761
  421ccc     O412347   1.103   4.955   5.425  0.3312  0.1824 -0.0958
  421ccc     C612348   1.343   5.105   5.333  0.3370  0.0571 -0.6962
  421ccc     H612349   0.794   5.116   5.290  1.2367  0.9442 -0.3849
  421ccc     H712350   1.036   4.938   5.493 -1.7276 -0.2144 -2.0944
  421ccc     H812351   0.808   4.886   5.109  1.3776 -1.3242  1.5994
  421ccc     H912352   1.343   5.202   5.384 -2.2556 -0.8816  1.3026
  421ccc    H1012353   1.423   5.109   5.257  0.4406  3.5802 -0.6003
  421ccc     O512354   1.359   5.007   5.426  0.3713 -0.2596  0.3967
  421ccc    H1112355   1.274   4.963   5.438  0.1710  0.4338  1.7225
  421ccc     O612356   1.228   4.980   5.162 -0.4816  0.4747 -0.3806
  422ccc     C112357   0.532   4.569   4.393  0.1487  0.0042  0.7634
  422ccc     C212358   0.551   4.727   4.378 -0.0495 -0.1469  0.2363
  422ccc     H112359   0.445   4.543   4.456  1.3374 -0.8337  2.1312
  422ccc     H212360   0.469   4.767   4.318  1.9351  1.6659 -1.4412
  422ccc     C312361   0.553   4.790   4.513  0.3981 -0.1053 -0.1299
  422ccc     C412362   0.670   4.725   4.594 -0.0684 -0.0273 -0.8659
  422ccc     C512363   0.684   4.571   4.590 -0.3466 -0.0190  0.0713
  422ccc     H312364   0.758   4.768   4.545 -0.0858  0.0974 -0.7874
  422ccc     H412365   0.460   4.759   4.562  0.9474 -0.2573  0.8504
  422ccc     H512366   0.621   4.531   4.669 -0.0930  3.8573  2.4507
  422ccc     O112367   0.821   4.539   4.624  0.0366 -0.0196  1.2637
  422ccc     O212368   0.653   4.772   4.730 -0.4170 -0.4744  0.7421
  422ccc     O312369   0.551   4.940   4.498  0.1539  0.3925 -0.4776
  422ccc     O412370   0.671   4.734   4.300 -0.0060 -0.2276  0.4407
  422ccc     C612371   0.513   4.498   4.255  0.4884  0.5544  0.2203
  422ccc     H612372   0.523   4.969   4.587  0.6954 -2.7003  0.8623
  422ccc     H712373   0.655   4.666   4.232  3.1373  1.5401 -2.4144
  422ccc     H812374   0.747   4.785   4.755 -0.2974 -0.0838  0.1064
  422ccc     H912375   0.414   4.526   4.217 -0.3280 -3.7130 -1.3182
  422ccc    H1012376   0.509   4.394   4.288 -0.1052  0.6778  0.5533
  422ccc     O512377   0.606   4.535   4.161 -0.0426  0.2420  0.1848
  422ccc    H1112378   0.587   4.472   4.089 -1.2079 -0.1511  0.8238
  422ccc     O612379   0.650   4.515   4.463 -0.2653 -0.2935 -0.0000
  423ccc     C112380   2.319   2.910   2.759 -0.2864 -0.0138 -0.4458
  423ccc     C212381   2.254   2.983   2.636 -0.0069 -0.0398 -0.3863
  423ccc     H112382   2.244   2.868   2.827  0.1088 -0.2804 -0.1660
  423ccc     H212383   2.198   2.897   2.597  3.0917 -1.5805 -1.8615
  423ccc     C312384   2.166   3.099   2.701  0.1187 -0.7317  0.1811
  423ccc     C412385   2.257   3.192   2.774  0.2123 -0.2464 -0.3801
  423ccc     C512386   2.342   3.119   2.878 -0.5705 -0.3500 -0.4791
  423ccc     H312387   2.329   3.235   2.703  1.7502  0.0086  1.2396
  423ccc     H412388   2.090   3.053   2.766 -2.2109  0.1798 -1.7288
  423ccc     H512389   2.280   3.091   2.963  0.5201 -2.1141 -0.2144
  423ccc     O112390   2.447   3.205   2.923 -0.0613 -0.1602 -0.8161
  423ccc     O212391   2.174   3.295   2.840 -0.0218  0.3203 -0.2854
  423ccc     O312392   2.093   3.168   2.601  0.2255 -0.2974  0.2746
  423ccc     O412393   2.360   3.026   2.544  0.1425 -0.8710 -0.0282
  423ccc     C612394   2.403   2.783   2.728 -0.9107  0.2997 -0.1164
  423ccc     H612395   2.147   3.191   2.523  1.3735 -0.5722  0.9742
  423ccc     H712396   2.429   2.965   2.575 -1.6566 -1.8584  2.2924
  423ccc     H812397   2.128   3.350   2.774 -2.1561  1.0760  1.6753
  423ccc     H912398   2.327   2.714   2.690 -2.8693  2.2866 -0.0082
  423ccc    H1012399   2.449   2.751   2.823 -2.5437  1.4357  1.1247
  423ccc     O512400   2.500   2.810   2.626 -0.5156 -0.3137  0.0245
  423ccc    H1112401   2.532   2.722   2.601  1.2037 -0.3691  2.1201
  423ccc     O612402   2.408   3.000   2.829  0.3360  0.3237 -0.2685
  424ccc     C112403   2.469   3.474   2.223  0.0525  0.2135  0.0488
  424ccc     C212404   2.487   3.326   2.178  0.3719 -0.4063 -0.5884
  424ccc     H112405   2.559   3.532   2.198  0.2822  0.0597  0.5107
  424ccc     H212406   2.523   3.328   2.075 -0.1309  1.9905 -0.7844
  424ccc     C312407   2.603   3.268   2.261 -0.9376 -0.2008 -0.0718
  424ccc     C412408   2.590   3.277   2.414  0.2101 -0.0656  0.5049
  424ccc     C512409   2.552   3.422   2.450 -0.2968 -0.1002  0.1515
  424ccc     H312410   2.513   3.204   2.444 -0.6159  1.4087  2.1702
  424ccc     H412411   2.688   3.333   2.237 -1.4136  0.4257 -0.0839
  424ccc     H512412   2.645   3.474   2.424  0.0549 -0.6180  0.3642
  424ccc     O112413   2.532   3.426   2.593 -0.3947 -0.0834 -0.1093
  424ccc     O212414   2.714   3.232   2.481 -0.3405  0.2513  0.4015
  424ccc     O312415   2.639   3.131   2.220  0.3998 -0.3928  0.7926
  424ccc     O412416   2.366   3.264   2.213  0.9522  0.0295 -0.3044
  424ccc     C612417   2.356   3.547   2.144 -0.3273 -0.4514 -0.2261
  424ccc     H612418   2.554   3.084   2.229 -0.4934  1.0074  0.0853
  424ccc     H712419   2.370   3.168   2.201 -0.1357 -0.2758  1.3916
  424ccc     H812420   2.694   3.161   2.545  2.9446 -1.6424 -0.4716
  424ccc     H912421   2.260   3.509   2.180 -1.0071  0.8535 -0.6130
  424ccc    H1012422   2.371   3.530   2.037 -2.3222 -0.8586 -0.4748
  424ccc     O512423   2.366   3.688   2.174 -0.5616 -0.3839  0.6020
  424ccc    H1112424   2.436   3.710   2.111 -0.2641 -0.3567  0.9399
  424ccc     O612425   2.444   3.470   2.369  0.1591  0.1625 -0.0765
  425ccc     C112426   0.754   3.227   2.729 -0.4247 -0.3235  1.2320
  425ccc     C212427   0.705   3.358   2.791  0.7339  0.4041  0.1368
  425ccc     H112428   0.702   3.148   2.784  0.4887 -0.3765  2.0363
  425ccc     H212429   0.596   3.351   2.799  0.7031  2.1941  1.9211
  425ccc     C312430   0.745   3.366   2.940  0.7310 -0.4786 -0.2511
  425ccc     C412431   0.898   3.338   2.961 -0.6611  0.2905  0.1004
  425ccc     C512432   0.936   3.200   2.893 -0.7123  0.3162  0.1520
  425ccc     H312433   0.954   3.418   2.911 -0.5027 -1.0630 -1.9952
  425ccc     H412434   0.703   3.280   2.992  1.7255 -0.2615  0.9705
  425ccc     H512435   0.874   3.130   2.950 -1.6054 -0.7805 -2.0425
  425ccc     O112436   1.080   3.178   2.899 -0.6341  0.5790 -0.1416
  425ccc     O212437   0.919   3.348   3.111  0.1522  0.0807  0.5226
  425ccc     O312438   0.696   3.483   3.017 -0.4298 -0.5856  0.5804
  425ccc     O412439   0.748   3.467   2.708 -0.4404  0.6125  0.3353
  425ccc     C612440   0.731   3.210   2.577 -0.0865 -0.2733  0.4688
  425ccc     H612441   0.625   3.526   2.965  1.1931  0.8588 -0.5498
  425ccc     H712442   0.784   3.411   2.637 -0.3431  0.9901  0.0867
  425ccc     H812443   0.877   3.436   3.111  0.2648  0.1443 -0.2607
  425ccc     H912444   0.632   3.236   2.539  1.0079  3.0682 -0.4607
  425ccc    H1012445   0.753   3.107   2.546 -0.4333 -0.1616 -0.1420
  425ccc     O512446   0.821   3.301   2.513  0.7435  0.2993 -0.1572
  425ccc    H1112447   0.844   3.265   2.425 -1.6664  1.2138 -1.2272
  425ccc     O612448   0.895   3.204   2.754 -0.1342 -0.2780 -0.1945
  426ccc     C112449   1.582   2.205   2.906 -0.4143  0.1411  0.2083
  426ccc     C212450   1.698   2.119   2.970  0.4564  0.0337  0.4599
  426ccc     H112451   1.610   2.213   2.800  0.7167 -0.0640  0.4782
  426ccc     H212452   1.709   2.034   2.901  1.5253  1.4844 -1.2345
  426ccc     C312453   1.838   2.200   2.974  0.6653  0.3865 -0.4988
  426ccc     C412454   1.815   2.346   3.022 -0.1361 -0.5606  0.6861
  426ccc     C512455   1.700   2.417   2.950 -0.0315  0.0976  0.3536
  426ccc     H312456   1.782   2.336   3.126 -2.3932  0.1471  0.0873
  426ccc     H412457   1.868   2.203   2.868 -2.5701 -0.0780 -1.5281
  426ccc     H512458   1.721   2.425   2.842  1.1701 -2.7396  0.2781
  426ccc     O112459   1.671   2.542   3.010 -0.6538 -0.0983 -0.3563
  426ccc     O212460   1.937   2.429   3.033  0.5861  0.2775 -0.3053
  426ccc     O312461   1.937   2.126   3.049 -0.3583  0.3157 -0.0760
  426ccc     O412462   1.654   2.084   3.099  0.6387  0.0550 -0.1173
  426ccc     C612463   1.437   2.143   2.920  0.0775  0.7557  0.0318
  426ccc     H612464   1.926   2.154   3.142  0.9177  1.6425 -0.2917
  426ccc     H712465   1.691   1.995   3.097  1.8291  0.4845  1.2706
  426ccc     H812466   1.996   2.368   3.080 -1.5936 -0.0356  2.2456
  426ccc     H912467   1.418   2.128   3.027  0.6801 -0.8021 -0.0629
  426ccc    H1012468   1.431   2.047   2.869  0.5610  0.3713  0.6868
  426ccc     O512469   1.348   2.242   2.868  0.2041 -0.4363 -0.0648
  426ccc    H1112470   1.370   2.244   2.773  0.4976  0.2291  0.0113
  426ccc     O612471   1.585   2.333   2.959 -0.2175 -0.2696 -0.0892
  427ccc     C112472   0.566   5.328   2.711 -0.0397  0.1243  0.1172
  427ccc     C212473   0.614   5.480   2.723 -0.3891  0.2834  0.2761
  427ccc     H112474   0.461   5.323   2.743  0.1018  3.9261  1.7925
  427ccc     H212475   0.560   5.558   2.667 -1.5470 -0.2832  0.5769
  427ccc     C312476   0.593   5.528   2.867 -0.1152  0.4627  0.2611
  427ccc     C412477   0.665   5.432   2.967  0.3002 -0.4038 -0.1237
  427ccc     C512478   0.622   5.284   2.949  0.2749  0.1590 -0.5660
  427ccc     H312479   0.775   5.431   2.960  0.2698 -0.6476 -0.5917
  427ccc     H412480   0.488   5.517   2.897 -0.6065  1.1494 -1.1563
  427ccc     H512481   0.518   5.281   2.984 -0.5760  1.7143 -2.7442
  427ccc     O112482   0.706   5.194   3.026 -0.0375 -0.5488 -0.2036
  427ccc     O212483   0.629   5.476   3.100 -0.2040  0.4316 -0.5652
  427ccc     O312484   0.615   5.669   2.891 -0.1313  0.2676  0.3650
  427ccc     O412485   0.749   5.482   2.688 -0.0105  0.3338  0.2614
  427ccc     C612486   0.590   5.262   2.570 -0.0081  0.1626  0.1543
  427ccc     H612487   0.710   5.686   2.880 -0.1033 -0.8423 -1.7202
  427ccc     H712488   0.746   5.407   2.626  2.0440  1.4060 -1.2650
  427ccc     H812489   0.666   5.566   3.099 -0.2209  0.4764  0.8392
  427ccc     H912490   0.528   5.317   2.497 -0.4601  0.8017  1.0056
  427ccc    H1012491   0.555   5.160   2.554  0.7293 -0.0362 -0.2521
  427ccc     O512492   0.722   5.295   2.519 -0.0775 -0.2928 -0.3175
  427ccc    H1112493   0.725   5.272   2.424 -0.5882 -2.4450  0.1206
  427ccc     O612494   0.634   5.249   2.814 -0.3394 -0.0115  0.2756
  428ccc     C112495   1.009   4.013   3.226  0.0700  0.3751 -0.7086
  428ccc     C212496   0.903   3.915   3.160 -0.1957 -0.5571 -0.2854
  428ccc     H112497   0.980   4.007   3.331  2.4731  1.0128  0.0366
  428ccc     H212498   0.914   3.811   3.193  0.6545  0.1952  1.9839
  428ccc     C312499   0.760   3.965   3.187 -0.1407  0.1650  1.2626
  428ccc     C412500   0.752   4.116   3.146  0.0658  0.0994  0.5409
  428ccc     C512501   0.860   4.203   3.220  0.3582 -0.5293 -0.0677
  428ccc     H312502   0.769   4.134   3.039  0.6045 -1.0667  0.4108
  428ccc     H412503   0.740   3.963   3.295  2.1497  1.5203  1.7625
  428ccc     H512504   0.831   4.186   3.324  0.2391 -1.0245 -0.1798
  428ccc     O112505   0.864   4.339   3.182  0.2230 -0.3324 -0.0871
  428ccc     O212506   0.617   4.167   3.164  0.0316 -0.0582  0.0260
  428ccc     O312507   0.661   3.879   3.122 -0.1492  0.4447 -0.1481
  428ccc     O412508   0.932   3.933   3.021  1.2976 -0.5214  0.4688
  428ccc     C612509   1.155   3.982   3.214  0.1600  0.2242  0.0780
  428ccc     H612510   0.656   3.911   3.030 -0.9575 -0.9817 -0.6295
  428ccc     H712511   0.904   3.848   2.984  0.1186 -0.2121  0.6017
  428ccc     H812512   0.587   4.166   3.257 -1.1937  0.4742 -0.3374
  428ccc     H912513   1.194   4.002   3.114  1.3140  2.0560  0.8467
  428ccc    H1012514   1.168   3.875   3.235 -2.0505 -0.1499 -0.1597
  428ccc     O512515   1.229   4.064   3.308 -0.4076  0.2281  0.0914
  428ccc    H1112516   1.322   4.049   3.284 -0.7189  1.1151 -1.8644
  428ccc     O612517   0.983   4.143   3.182  0.0991  0.0651 -0.6996
  429ccc     C112518   0.945   5.865   3.215 -0.6266  0.7425 -0.4165
  429ccc     C212519   0.862   5.813   3.100  0.7824  0.4731  0.6347
  429ccc     H112520   0.998   5.957   3.185 -0.2962  0.9944  0.9079
  429ccc     H212521   0.800   5.894   3.059 -0.3978  0.0063  1.4653
  429ccc     C312522   0.953   5.758   2.991 -0.0841  0.2889  0.5225
  429ccc     C412523   1.066   5.673   3.046 -0.2550 -0.3636 -0.3705
  429ccc     C512524   1.130   5.717   3.175 -0.3622 -0.2912  0.9772
  429ccc     H312525   1.022   5.573   3.058  1.7294 -1.5587 -2.2909
  429ccc     H412526   1.010   5.842   2.948 -2.1147  2.1289  1.1997
  429ccc     H512527   1.207   5.792   3.153  1.3064 -2.4682 -1.0616
  429ccc     O112528   1.194   5.605   3.243 -0.3463  0.5186 -0.0491
  429ccc     O212529   1.169   5.657   2.942 -0.0361  0.2111 -0.2149
  429ccc     O312530   0.875   5.680   2.892 -0.4998 -0.4203 -0.4378
  429ccc     O412531   0.778   5.705   3.145  0.6440 -0.4527  0.1332
  429ccc     C612532   0.859   5.893   3.339 -0.0368 -0.0015 -0.2556
  429ccc     H612533   0.933   5.634   2.829  1.7660  0.4850  0.8605
  429ccc     H712534   0.831   5.639   3.193 -2.3526 -2.5457  0.8676
  429ccc     H812535   1.124   5.648   2.857  1.9864  0.5099 -1.3905
  429ccc     H912536   0.829   5.802   3.391  1.1693  0.9858  2.3522
  429ccc    H1012537   0.768   5.952   3.321 -0.0377  0.9748  2.4579
  429ccc     O512538   0.936   5.967   3.430 -0.6853 -0.2753 -0.5669
  429ccc    H1112539   1.027   5.933   3.423 -0.4940 -0.1726  1.0900
  429ccc     O612540   1.039   5.771   3.265  0.2332  0.2706 -0.1126
  430ccc     C112541   2.144   5.729   3.579 -0.4092  0.6065 -0.1074
  430ccc     C212542   2.123   5.786   3.727  0.1350  0.0614  0.3542
  430ccc     H112543   2.129   5.802   3.499  2.6041  0.2425 -1.1200
  430ccc     H212544   2.195   5.868   3.738  2.1466 -1.6040  0.0950
  430ccc     C312545   1.973   5.827   3.741  0.1194  0.4210  0.2818
  430ccc     C412546   1.881   5.715   3.704  0.3311 -0.1388 -0.2295
  430ccc     C512547   1.914   5.643   3.570 -0.1156 -0.3104 -0.1270
  430ccc     H312548   1.896   5.634   3.778  0.6312 -0.0865 -0.2335
  430ccc     H412549   1.952   5.918   3.684 -2.3637 -0.0582  0.3116
  430ccc     H512550   1.891   5.711   3.487 -0.1496 -1.1903 -0.8556
  430ccc     O112551   1.838   5.522   3.561  0.0947 -0.0029  0.0669
  430ccc     O212552   1.743   5.746   3.713  0.4021 -0.0616 -0.0020
  430ccc     O312553   1.950   5.866   3.874  0.0740  0.3568  0.0598
  430ccc     O412554   2.157   5.680   3.812 -0.0832  0.0300  0.6691
  430ccc     C612555   2.282   5.687   3.543 -0.1019 -0.6242 -0.0386
  430ccc     H612556   1.869   5.918   3.862 -1.1248 -1.7872 -1.9086
  430ccc     H712557   2.116   5.688   3.900  1.4251 -0.2466  1.4450
  430ccc     H812558   1.725   5.758   3.808 -0.3580  1.3712 -0.2845
  430ccc     H912559   2.317   5.618   3.621 -0.4489  0.5701  1.1927
  430ccc    H1012560   2.342   5.778   3.557 -1.4689  0.4397 -0.8621
  430ccc     O512561   2.289   5.637   3.411 -0.0076  0.0799  0.0848
  430ccc    H1112562   2.384   5.625   3.392 -0.3750 -1.0201 -1.2417
  430ccc     O612563   2.057   5.613   3.562  0.4489  0.1895  0.0046
  431ccc     C112564   3.129   7.063   6.267 -0.0216  0.4237  0.4813
  431ccc     C212565   3.129   7.120   6.413 -0.4296  0.5190  0.0804
  431ccc     H112566   3.165   7.145   6.204  2.5279 -1.5848 -0.9070
  431ccc     H212567   3.229   7.151   6.446  0.1530 -2.0713  0.9809
  431ccc     C312568   3.030   7.236   6.422  0.0962  0.2618 -0.1778
  431ccc     C412569   2.894   7.192   6.375  0.4639  0.2491  0.6142
  431ccc     C512570   2.905   7.137   6.225  0.0003  0.0130 -0.3775
  431ccc     H312571   2.855   7.107   6.433  0.6718 -1.3085 -1.3988
  431ccc     H412572   3.059   7.317   6.353 -2.8067  1.4435 -0.1399
  431ccc     H512573   2.948   7.216   6.164  2.0634 -0.3660  0.5127
  431ccc     O112574   2.776   7.089   6.177 -0.0074  0.7363 -0.6739
  431ccc     O212575   2.799   7.304   6.379 -0.4422 -0.0282 -0.1806
  431ccc     O312576   3.024   7.283   6.558  0.3417 -0.0172  0.2658
  431ccc     O412577   3.093   7.014   6.499 -0.0386 -0.1830  0.4145
  431ccc     C612578   3.216   6.934   6.252 -0.6491  0.3916 -0.2290
  431ccc     H612579   3.010   7.377   6.537 -0.5194 -0.5708 -1.9784
  431ccc     H712580   3.173   6.975   6.538 -0.3927 -0.6139  0.7221
  431ccc     H812581   2.775   7.308   6.473  0.4105 -1.1579  0.1117
  431ccc     H912582   3.174   6.846   6.301  1.5768 -0.3279  0.4809
  431ccc    H1012583   3.310   6.956   6.303 -0.7253  2.0402 -0.7179
  431ccc     O512584   3.239   6.902   6.108  0.7249 -0.7849  0.5871
  431ccc    H1112585   3.296   6.824   6.114  0.6634 -0.7433  2.0798
  431ccc     O612586   2.998   7.029   6.236  0.3262 -0.1778  0.3349
  432ccc     C112587   1.855   7.085   6.261  0.5085 -0.4608 -1.0688
  432ccc     C212588   1.808   7.214   6.190 -0.6636 -0.1320  0.2674
  432ccc     H112589   1.895   7.115   6.359 -2.3450 -0.4540  0.2101
  432ccc     H212590   1.752   7.273   6.264 -1.5656  0.6321 -0.9876
  432ccc     C312591   1.930   7.301   6.145 -0.2852  0.7143  0.2203
  432ccc     C412592   2.008   7.207   6.041  0.5835  0.2759 -0.3584
  432ccc     C512593   2.052   7.083   6.115  0.0027  0.0227 -0.3577
  432ccc     H312594   1.944   7.170   5.960  0.7966  1.3829 -1.0460
  432ccc     H412595   1.993   7.317   6.233  0.8643  1.0923 -0.6433
  432ccc     H512596   2.123   7.114   6.192  0.1943 -2.4123  0.5530
  432ccc     O112597   2.130   6.989   6.038 -0.1010 -0.0412 -0.0551
  432ccc     O212598   2.122   7.281   6.003 -0.1358  0.3792 -0.4659
  432ccc     O312599   1.887   7.426   6.088 -0.0669  0.5554 -0.2775
  432ccc     O412600   1.723   7.186   6.072  0.5727  0.0467 -0.4397
  432ccc     C612601   1.730   7.001   6.296 -0.0142 -0.2931 -0.4622
  432ccc     H612602   1.968   7.478   6.070  1.1642 -1.3376 -0.4450
  432ccc     H712603   1.695   7.270   6.032 -0.0720 -0.8579 -1.9805
  432ccc     H812604   2.186   7.221   5.961 -0.3102 -0.4796  0.4595
  432ccc     H912605   1.695   6.956   6.202 -1.9804 -0.1775  0.1635
  432ccc    H1012606   1.653   7.065   6.340 -1.2480 -1.1538 -1.2975
  432ccc     O512607   1.774   6.908   6.393 -0.2918  0.0642  0.8218
  432ccc    H1112608   1.699   6.847   6.405  0.1460 -0.7019 -0.1661
  432ccc     O612609   1.942   7.011   6.177 -0.0161  0.1373 -0.1846
  433ccc     C112610   1.932   6.765   6.940 -0.1175  0.1711 -0.1026
  433ccc     C212611   1.853   6.883   6.895  0.7204  0.2357  0.5398
  433ccc     H112612   2.032   6.808   6.948 -0.2525  0.8534 -1.7199
  433ccc     H212613   1.877   6.973   6.954  0.8258  1.7698 -1.7142
  433ccc     C312614   1.899   6.922   6.751  0.7833 -0.1598  0.0980
  433ccc     C412615   1.908   6.799   6.648  0.4786  0.2379 -0.6211
  433ccc     C512616   1.962   6.674   6.714  0.4869  0.2876 -0.1766
  433ccc     H312617   1.810   6.775   6.606  1.1631 -1.6907 -1.2021
  433ccc     H412618   2.001   6.960   6.767  0.3471 -0.1460  3.5989
  433ccc     H512619   2.072   6.670   6.712  0.4412 -1.4998 -1.1178
  433ccc     O112620   1.917   6.561   6.629 -0.4463  0.1128 -0.2786
  433ccc     O212621   1.984   6.845   6.532 -0.0675 -0.1439  0.0025
  433ccc     O312622   1.798   7.023   6.708  0.4283 -0.5017  0.3331
  433ccc     O412623   1.716   6.848   6.891 -0.4117 -0.4000 -0.4376
  433ccc     C612624   1.889   6.710   7.073 -0.3271 -0.1101 -0.2625
  433ccc     H612625   1.725   6.965   6.681 -0.1059  0.0966  0.4583
  433ccc     H712626   1.686   6.935   6.862 -1.4774 -0.0382  1.5786
  433ccc     H812627   1.914   6.877   6.472  0.3019 -2.7058 -1.9598
  433ccc     H912628   1.789   6.667   7.064 -0.1280 -0.9670  1.2836
  433ccc    H1012629   1.875   6.794   7.143 -1.1277 -0.5318  0.0960
  433ccc     O512630   1.982   6.620   7.132 -0.3447 -0.2359 -0.1252
  433ccc    H1112631   1.919   6.549   7.155 -0.0383 -1.0385 -1.6502
  433ccc     O612632   1.916   6.655   6.849  0.2014  0.1739 -0.3858
  434ccc     C112633   1.524   6.671   5.857 -0.4760  0.1100  0.4210
  434ccc     C212634   1.574   6.654   5.706  0.1829 -0.4298 -0.7352
  434ccc     H112635   1.503   6.777   5.876  0.4775  0.0727  1.8028
  434ccc     H212636   1.500   6.704   5.644 -2.0971 -1.1719  1.2258
  434ccc     C312637   1.717   6.715   5.686 -0.3938 -0.1360  0.3656
  434ccc     C412638   1.811   6.668   5.799 -0.1745  0.1428 -0.4082
  434ccc     C512639   1.754   6.692   5.944 -0.0531  0.9910 -0.4898
  434ccc     H312640   1.826   6.559   5.791  0.5290  0.2880 -1.2813
  434ccc     H412641   1.705   6.823   5.700  1.5836  0.3136 -0.9749
  434ccc     H512642   1.744   6.799   5.965  0.1796  0.6280  1.7051
  434ccc     O112643   1.844   6.621   6.041  0.4435  0.0358  0.8485
  434ccc     O212644   1.928   6.752   5.785 -0.3285 -0.4342  0.0714
  434ccc     O312645   1.780   6.696   5.554  0.7327  0.0071  0.0068
  434ccc     O412646   1.586   6.513   5.678 -0.0441 -0.0718  0.0738
  434ccc     C612647   1.393   6.602   5.883 -0.2451 -0.1062 -0.4660
  434ccc     H612648   1.809   6.603   5.552  1.2128  0.1552 -0.0029
  434ccc     H712649   1.548   6.505   5.589 -1.3660  2.3517  0.3332
  434ccc     H812650   1.987   6.707   5.721  1.0374  0.9450  0.3039
  434ccc     H912651   1.406   6.494   5.890  2.8060  0.2297  0.2028
  434ccc    H1012652   1.316   6.624   5.808 -1.0915  0.5337  0.5514
  434ccc     O512653   1.347   6.666   6.013  0.1104  0.2651 -0.8544
  434ccc    H1112654   1.258   6.627   6.026  0.2621 -0.0524 -0.7559
  434ccc     O612655   1.623   6.629   5.952 -0.5381  0.6091  0.0886
  435ccc     C112656   4.708   5.219   5.389 -0.8721  0.0315 -0.4669
  435ccc     C212657   4.749   5.110   5.290  0.4052  1.0543 -0.3294
  435ccc     H112658   4.745   5.183   5.485 -1.3969  0.5235 -0.0736
  435ccc     H212659   4.858   5.103   5.283  0.2714  0.0716 -1.8118
  435ccc     C312660   4.679   4.976   5.332 -0.1370  0.6987 -0.3261
  435ccc     C412661   4.521   4.989   5.339 -0.1105  0.5933 -0.2378
  435ccc     C512662   4.484   5.115   5.427 -0.5215 -0.0377 -0.5038
  435ccc     H312663   4.486   4.997   5.236 -0.1898  0.8906 -0.1875
  435ccc     H412664   4.716   4.956   5.434  2.8145  3.1925 -0.7451
  435ccc     H512665   4.502   5.103   5.534  2.3555  1.3976 -0.7296
  435ccc     O112666   4.341   5.148   5.407 -0.3299  0.2484  1.3822
  435ccc     O212667   4.473   4.868   5.400  0.0607  0.5741  0.2357
  435ccc     O312668   4.715   4.865   5.245  0.2664 -0.1303 -0.1885
  435ccc     O412669   4.709   5.158   5.159  0.2436  0.2091  0.3333
  435ccc     C612670   4.773   5.354   5.352 -0.6869 -0.0146  0.4220
  435ccc     H612671   4.682   4.783   5.287 -1.8510  1.0799  0.7068
  435ccc     H712672   4.696   5.079   5.103 -1.6851  0.6397  0.0995
  435ccc     H812673   4.392   4.841   5.353 -0.2883 -1.9402  2.0619
  435ccc     H912674   4.715   5.400   5.271 -1.1081 -0.1674  0.6384
  435ccc    H1012675   4.872   5.329   5.311 -1.0418  0.2688 -0.6590
  435ccc     O512676   4.766   5.434   5.465 -0.2970  0.6124 -0.0010
  435ccc    H1112677   4.844   5.398   5.510 -0.2441 -0.1501 -0.6662
  435ccc     O612678   4.566   5.228   5.386  0.2039 -0.0839 -0.6143
  436ccc     C112679   3.947   4.984   4.456 -0.0942  0.2547  0.0343
  436ccc     C212680   3.800   4.927   4.452  0.0729 -0.5791 -0.5916
  436ccc     H112681   4.014   4.913   4.406  0.6343  0.8623  0.1263
  436ccc     H212682   3.777   4.881   4.355 -0.1223 -1.5595 -0.0919
  436ccc     C312683   3.763   4.837   4.564 -0.3424  0.4638 -0.2405
  436ccc     C412684   3.808   4.891   4.702 -0.1981 -0.3257  0.4549
  436ccc     C512685   3.958   4.919   4.695  0.3849 -0.9031 -0.2862
  436ccc     H312686   3.752   4.985   4.712 -0.2009 -0.4854  2.1535
  436ccc     H412687   3.829   4.753   4.539  1.1128  1.8034 -1.1254
  436ccc     H512688   4.010   4.824   4.677  1.6120 -0.3562  0.3328
  436ccc     O112689   4.008   4.972   4.822  0.3632 -0.1624  0.3634
  436ccc     O212690   3.767   4.789   4.799  0.7159  0.0935  0.1514
  436ccc     O312691   3.626   4.808   4.558  0.0322  0.5082 -0.0977
  436ccc     O412692   3.719   5.039   4.447 -0.1824 -0.6539 -0.1380
  436ccc     C612693   3.966   5.111   4.369 -0.0195  0.6447  0.4586
  436ccc     H612694   3.599   4.799   4.650  1.6417  0.6195  0.4202
  436ccc     H712695   3.630   5.001   4.451 -1.1061  1.4482  0.6635
  436ccc     H812696   3.784   4.833   4.884 -0.0149  0.9639 -0.1395
  436ccc     H912697   3.923   5.207   4.399 -0.8614 -0.0237  1.4282
  436ccc    H1012698   3.926   5.093   4.268 -0.7216  1.5446  0.5638
  436ccc     O512699   4.102   5.131   4.367 -0.1404 -0.1874  0.2103
  436ccc    H1112700   4.126   5.182   4.447 -1.1409 -0.1473  0.4940
  436ccc     O612701   3.989   5.024   4.592  0.1421 -0.2279 -0.1182
  437ccc     C112702   2.837   6.384   6.564  0.3918  0.5131  0.9087
  437ccc     C212703   2.960   6.462   6.619  0.1482 -0.9544 -0.7991
  437ccc     H112704   2.796   6.328   6.649 -1.2286  2.8650  1.7586
  437ccc     H212705   2.929   6.505   6.715  0.4805 -2.5358  0.0551
  437ccc     C312706   3.079   6.362   6.652 -0.4332 -0.1484 -0.7714
  437ccc     C412707   3.112   6.271   6.535  0.0402 -0.1815  0.0185
  437ccc     C512708   2.988   6.204   6.466 -1.0560 -0.1172  0.1713
  437ccc     H312709   3.168   6.331   6.463 -1.2846  0.6590 -0.3378
  437ccc     H412710   3.049   6.301   6.738 -0.3465  0.4385 -0.3238
  437ccc     H512711   2.963   6.110   6.515 -0.6421 -0.7389 -0.7826
  437ccc     O112712   3.025   6.153   6.337 -0.1683  0.0286 -0.2069
  437ccc     O212713   3.194   6.171   6.589 -0.3510  0.0378 -0.4811
  437ccc     O312714   3.202   6.432   6.688  0.4494 -0.0266  0.3118
  437ccc     O412715   2.999   6.557   6.524 -0.1713 -0.0935  0.1296
  437ccc     C612716   2.711   6.461   6.516  0.2055  0.5067  0.4594
  437ccc     H612717   3.176   6.491   6.761  1.3798  0.4641  0.2509
  437ccc     H712718   2.946   6.639   6.525 -3.0428 -1.7713  2.4270
  437ccc     H812719   3.272   6.221   6.618  1.3763 -1.7923 -1.6844
  437ccc     H912720   2.737   6.519   6.426 -1.0299  0.1751 -0.1281
  437ccc    H1012721   2.680   6.548   6.576  1.9585  2.9339 -1.9025
  437ccc     O512722   2.592   6.374   6.504 -0.0037 -1.0377  0.2389
  437ccc    H1112723   2.524   6.428   6.459 -0.3564 -2.8649 -1.5867
  437ccc     O612724   2.877   6.305   6.456 -0.2137  0.1552  0.3937
  438ccc     C112725   3.775   6.007   5.880 -0.0200 -0.2431 -0.2862
  438ccc     C212726   3.887   5.937   5.958 -0.2956 -0.1051 -0.0377
  438ccc     H112727   3.820   6.103   5.851 -3.5001  1.8680  0.5772
  438ccc     H212728   3.979   5.931   5.899 -0.2873 -0.6891  0.0292
  438ccc     C312729   3.924   6.016   6.080 -0.7698 -0.2385 -0.8900
  438ccc     C412730   3.804   6.052   6.165  0.1108 -0.3948  0.1750
  438ccc     C512731   3.699   6.132   6.079  0.1362 -0.0412  0.3168
  438ccc     H312732   3.749   5.960   6.188 -0.0933  0.0457  1.5512
  438ccc     H412733   3.968   6.113   6.052 -2.2130  0.8437  0.3804
  438ccc     H512734   3.737   6.226   6.037  0.9295  0.3339  1.7850
  438ccc     O112735   3.588   6.154   6.165  0.2989 -0.2622  0.0150
  438ccc     O212736   3.846   6.127   6.283  0.0020  0.0882 -0.1480
  438ccc     O312737   4.021   5.942   6.155 -0.0355 -0.1283 -0.5114
  438ccc     O412738   3.844   5.803   5.985 -0.0057  0.0942  0.4755
  438ccc     C612739   3.741   5.933   5.748 -0.5046 -0.0618  0.6654
  438ccc     H612740   4.082   6.009   6.191 -0.2678 -0.2077  0.0534
  438ccc     H712741   3.896   5.770   6.060 -1.1771 -0.0004  1.2781
  438ccc     H812742   3.862   6.051   6.342  1.1623  0.9497  0.6741
  438ccc     H912743   3.748   5.824   5.760  1.1598 -0.3299 -1.9713
  438ccc    H1012744   3.827   5.945   5.681  0.5993  1.0189  2.1956
  438ccc     O512745   3.622   5.977   5.688  0.2796 -0.2924  0.4800
  438ccc    H1112746   3.613   5.911   5.617  3.9546 -1.0006  0.4420
  438ccc     O612747   3.659   6.036   5.965  0.1641 -0.8461  0.0520
  439ccc     C112748   3.240   6.274   4.554 -0.4566 -0.0489 -0.0334
  439ccc     C212749   3.101   6.213   4.530 -0.3001  0.6294 -0.2279
  439ccc     H112750   3.267   6.249   4.657 -0.2249 -0.5294 -0.2054
  439ccc     H212751   3.095   6.106   4.553  0.5127  0.9750  1.7649
  439ccc     C312752   2.995   6.284   4.611  0.4165 -0.7688 -0.6884
  439ccc     C412753   3.002   6.438   4.625 -0.1881 -0.8844 -0.2758
  439ccc     C512754   3.149   6.493   4.613 -0.7330  0.0712  0.1905
  439ccc     H312755   2.956   6.484   4.537  0.5925  0.6666  0.0833
  439ccc     H412756   3.004   6.248   4.714 -0.7711 -0.5158 -0.4730
  439ccc     H512757   3.204   6.488   4.708 -0.9950 -0.8355  0.3024
  439ccc     O112758   3.145   6.622   4.563 -0.0662 -0.6457 -0.3299
  439ccc     O212759   2.946   6.480   4.748  0.2019  1.0349  0.8474
  439ccc     O312760   2.862   6.262   4.558  0.0591  0.1143  0.6897
  439ccc     O412761   3.074   6.240   4.395  0.0395  0.1287  0.4896
  439ccc     C612762   3.357   6.231   4.466  0.0083  0.9836  0.4682
  439ccc     H612763   2.854   6.192   4.491  0.3100 -0.0727  0.8555
  439ccc     H712764   3.093   6.157   4.348 -1.1868  0.0558  0.0897
  439ccc     H812765   2.856   6.444   4.738  0.7351 -0.0780 -0.1235
  439ccc     H912766   3.354   6.283   4.370 -1.2278  0.1487  0.0361
  439ccc    H1012767   3.341   6.130   4.429 -0.2110  1.3507 -0.4587
  439ccc     O512768   3.480   6.252   4.534  0.1604  0.5082  0.2611
  439ccc    H1112769   3.522   6.310   4.468  0.6893 -0.8705 -0.6644
  439ccc     O612770   3.234   6.418   4.525  0.2045  0.0146 -0.6782
  440ccc     C112771   2.777   6.375   4.199  0.0412  0.1482  0.8484
  440ccc     C212772   2.637   6.358   4.133  0.1672 -0.5398 -0.4539
  440ccc     H112773   2.782   6.301   4.279  1.9548 -0.8659 -0.1437
  440ccc     H212774   2.620   6.258   4.090  0.5424 -0.8327  0.0664
  440ccc     C312775   2.518   6.376   4.236 -0.1815  0.1380 -0.7829
  440ccc     C412776   2.537   6.495   4.328 -0.3728 -0.1371 -0.2552
  440ccc     C512777   2.687   6.523   4.371 -0.2211 -1.3212  0.5879
  440ccc     H312778   2.512   6.592   4.284  0.7886  0.9421  1.3124
  440ccc     H412779   2.525   6.291   4.305  3.7588 -0.6979 -1.9462
  440ccc     H512780   2.722   6.469   4.460  4.3193 -0.9523 -0.7178
  440ccc     O112781   2.702   6.665   4.410 -0.0594 -0.0461 -0.2021
  440ccc     O212782   2.463   6.482   4.451 -0.3060  0.2252  0.7676
  440ccc     O312783   2.387   6.367   4.172 -0.1712  0.5083  0.3885
  440ccc     O412784   2.624   6.458   4.031 -0.7160  0.0221  0.0624
  440ccc     C612785   2.897   6.354   4.111 -0.0790  0.9355  0.6624
  440ccc     H612786   2.375   6.426   4.096 -1.2869 -0.3087 -0.0958
  440ccc     H712787   2.563   6.416   3.968 -1.6981  1.3329  0.1010
  440ccc     H812788   2.422   6.567   4.475 -1.3114  0.7428 -2.3151
  440ccc     H912789   2.903   6.248   4.084  1.0984  0.8546  1.1668
  440ccc    H1012790   2.990   6.382   4.164  0.9426 -0.9074 -0.0798
  440ccc     O512791   2.886   6.437   3.993  0.3904 -0.2167  0.0256
  440ccc    H1112792   2.798   6.470   4.020  0.5419 -0.8577  1.3578
  440ccc     O612793   2.780   6.506   4.261  0.1077  0.2466  0.3397
  441ccc     C112794   2.118   7.801   4.914 -0.1937  0.2578 -0.0136
  441ccc     C212795   2.045   7.786   4.782 -0.4456  0.5686 -0.0101
  441ccc     H112796   2.093   7.903   4.949 -0.3416 -0.0224  0.7260
  441ccc     H212797   1.939   7.812   4.799 -0.3260  3.1285 -2.3342
  441ccc     C312798   2.096   7.890   4.681  0.5263 -0.4450  0.6597
  441ccc     C412799   2.250   7.874   4.657  0.2733  0.0812 -0.8292
  441ccc     C512800   2.323   7.872   4.795 -0.7112 -0.5436 -0.0203
  441ccc     H312801   2.278   7.783   4.603  1.5957 -1.0383  1.6026
  441ccc     H412802   2.091   7.986   4.734  1.3144  0.7965 -1.3869
  441ccc     H512803   2.335   7.974   4.835  3.0389  0.2028 -2.5032
  441ccc     O112804   2.461   7.819   4.774  0.0813 -0.2662 -0.2448
  441ccc     O212805   2.305   7.987   4.580 -0.2221 -0.4036 -0.3557
  441ccc     O312806   2.009   7.901   4.564 -0.3559  0.3117  0.1352
  441ccc     O412807   2.060   7.652   4.728  0.0433 -0.9804 -0.2218
  441ccc     C612808   2.069   7.698   5.022 -0.2786  0.0669  0.0753
  441ccc     H612809   1.980   7.811   4.543 -1.9588  0.4337  1.5219
  441ccc     H712810   2.023   7.649   4.638 -0.5017 -1.2348  0.0071
  441ccc     H812811   2.265   7.984   4.492 -1.3357 -0.9373  0.1502
  441ccc     H912812   1.962   7.709   5.045  0.0939 -0.9257  2.6919
  441ccc    H1012813   2.129   7.715   5.112  1.6477  0.5392 -1.2259
  441ccc     O512814   2.089   7.568   4.968  0.3740 -0.2167  0.3596
  441ccc    H1112815   2.095   7.589   4.873 -0.3418 -2.0023 -0.1252
  441ccc     O612816   2.260   7.795   4.888 -0.1451  0.1544 -0.2174
  442ccc     C112817   2.977   7.298   5.411  0.7709 -0.1316 -0.2245
  442ccc     C212818   3.030   7.419   5.490  0.1811  0.0357  0.1196
  442ccc     H112819   3.061   7.228   5.404 -0.8063 -2.1563  0.0933
  442ccc     H212820   3.094   7.380   5.570 -2.3600 -0.9575  1.7747
  442ccc     C312821   3.117   7.509   5.389  0.0553 -0.2163 -0.2196
  442ccc     C412822   3.039   7.542   5.256  0.0933  0.1929  0.0862
  442ccc     C512823   3.001   7.405   5.194  0.1068  0.3317 -0.2589
  442ccc     H312824   2.947   7.597   5.277  0.0976  0.5191 -0.7272
  442ccc     H412825   3.192   7.441   5.348  0.6619  1.3744 -1.8902
  442ccc     H512826   3.087   7.342   5.173 -0.1220 -0.4274  0.9829
  442ccc     O112827   2.922   7.438   5.077  0.1564 -0.7131  0.7923
  442ccc     O212828   3.127   7.614   5.170  0.1092  0.1370 -0.1564
  442ccc     O312829   3.171   7.623   5.450 -0.1704  0.0523 -0.8114
  442ccc     O412830   2.924   7.500   5.539 -0.3527  0.6164  0.0477
  442ccc     C612831   2.876   7.216   5.486 -0.1711  0.5618  0.4282
  442ccc     H612832   3.104   7.645   5.517  0.4177  0.5190 -0.3774
  442ccc     H712833   2.847   7.442   5.530  0.3766 -0.3189 -0.3094
  442ccc     H812834   3.143   7.686   5.234  1.1888 -0.1121 -0.1205
  442ccc     H912835   2.916   7.185   5.583 -1.8763 -0.1243  0.9610
  442ccc    H1012836   2.852   7.126   5.428  1.7529  0.4826 -0.3200
  442ccc     O512837   2.774   7.308   5.513 -0.2078  0.1250 -0.5097
  442ccc    H1112838   2.720   7.289   5.435 -0.7851  0.5870 -0.2283
  442ccc     O612839   2.918   7.330   5.285  0.3005  0.2434 -0.5483
  443ccc     C112840   0.834   5.913   3.858 -0.0895  0.2108  0.2630
  443ccc     C212841   0.939   6.014   3.790  0.2008  0.1467  0.3556
  443ccc     H112842   0.736   5.962   3.866  0.4674  1.1084  1.8852
  443ccc     H212843   0.906   6.032   3.687  0.9189 -0.5220 -0.0115
  443ccc     C312844   0.943   6.148   3.872 -0.4799  0.2202  0.1745
  443ccc     C412845   0.978   6.122   4.021 -1.0829 -0.3479  0.0634
  443ccc     C512846   0.872   6.021   4.079  0.3345  0.2974  0.2347
  443ccc     H312847   1.078   6.076   4.024 -1.2692 -0.7059  2.1296
  443ccc     H412848   0.844   6.196   3.869 -0.2674  0.7062  0.7465
  443ccc     H512849   0.779   6.079   4.077  1.0894  1.5312 -0.2774
  443ccc     O112850   0.916   5.993   4.218 -0.0917 -0.0380  0.1965
  443ccc     O212851   0.972   6.245   4.094  0.3411  0.1572 -0.7075
  443ccc     O312852   1.038   6.243   3.819  0.0484 -0.0522  0.4995
  443ccc     O412853   1.067   5.945   3.798 -0.2190 -0.3300 -0.2676
  443ccc     C612854   0.823   5.787   3.767  0.1412  0.1828  0.0953
  443ccc     H612855   1.012   6.326   3.862  2.1107  0.6712  0.4558
  443ccc     H712856   1.040   5.852   3.788  1.3272 -0.7895 -0.5619
  443ccc     H812857   1.045   6.235   4.158  0.5188 -0.1951 -0.9586
  443ccc     H912858   0.794   5.814   3.664 -0.2125 -2.0702 -0.4488
  443ccc    H1012859   0.741   5.728   3.810 -1.5395  2.1074 -0.3127
  443ccc     O512860   0.942   5.718   3.761  0.1371 -0.1087  0.5725
  443ccc    H1112861   0.934   5.675   3.675  0.3870 -0.0055  0.4961
  443ccc     O612862   0.871   5.898   3.999 -0.0078 -0.3185 -0.1844
  444ccc     C112863   0.728   5.336   4.880  0.3273 -0.1093  0.5418
  444ccc     C212864   0.579   5.352   4.856 -0.4441 -0.3645  0.2725
  444ccc     H112865   0.744   5.350   4.988  0.9623  0.5174  0.3748
  444ccc     H212866   0.523   5.275   4.910 -1.9692  1.8296  1.9956
  444ccc     C312867   0.534   5.487   4.920  0.4901 -0.6852 -0.0668
  444ccc     C412868   0.621   5.610   4.873  0.1700  0.1159  0.3523
  444ccc     C512869   0.771   5.572   4.856 -0.1894 -0.0750  0.0880
  444ccc     H312870   0.591   5.634   4.770  2.3833 -1.3389 -0.6922
  444ccc     H412871   0.556   5.481   5.027  3.2819  2.8983 -0.2302
  444ccc     H512872   0.818   5.574   4.955  0.5515  0.1562 -0.2623
  444ccc     O112873   0.846   5.653   4.767  0.3885 -0.4017  0.3071
  444ccc     O212874   0.604   5.739   4.941  0.2534 -0.1533 -0.2288
  444ccc     O312875   0.392   5.502   4.908 -0.0966 -0.2435 -0.1065
  444ccc     O412876   0.547   5.339   4.717  0.3008  0.1402  0.4817
  444ccc     C612877   0.769   5.196   4.846  0.4338  0.0976  0.3049
  444ccc     H612878   0.365   5.505   4.814 -0.7150  1.1065  0.0928
  444ccc     H712879   0.450   5.328   4.714  0.4593 -1.4463 -2.2919
  444ccc     H812880   0.510   5.751   4.963 -0.1181 -2.5430 -0.2292
  444ccc     H912881   0.732   5.168   4.747 -0.4934 -3.1322  1.4167
  444ccc    H1012882   0.726   5.124   4.917  3.1068 -0.6479  1.3095
  444ccc     O512883   0.911   5.178   4.856 -0.1113 -0.1450 -0.4565
  444ccc    H1112884   0.944   5.248   4.916 -0.2384  2.3735 -3.0996
  444ccc     O612885   0.792   5.439   4.805 -0.2915  0.0707  0.2293
  445ccc     C112886   1.997   7.494   4.113  0.0751 -0.4762 -0.1063
  445ccc     C212887   2.119   7.510   4.202 -0.9793 -0.0879 -0.1081
  445ccc     H112888   1.989   7.592   4.065  0.1150 -0.5664 -0.2957
  445ccc     H212889   2.206   7.541   4.142 -1.4253 -1.1514 -1.3547
  445ccc     C312890   2.086   7.615   4.309  0.5621  0.6346 -0.1299
  445ccc     C412891   1.961   7.575   4.390  0.3308 -0.5383 -0.0066
  445ccc     C512892   1.845   7.555   4.296 -0.2613 -0.2919  0.6251
  445ccc     H312893   1.983   7.480   4.440  1.3707 -0.2926  0.0361
  445ccc     H412894   2.065   7.703   4.247  0.0286 -0.1182 -1.0430
  445ccc     H512895   1.819   7.648   4.244 -1.7504 -0.4000  1.1241
  445ccc     O112896   1.722   7.506   4.354 -0.2235  0.2595 -0.6422
  445ccc     O212897   1.920   7.668   4.498 -0.0764 -0.5058 -0.1948
  445ccc     O312898   2.196   7.643   4.393  0.7495  0.8075 -0.1186
  445ccc     O412899   2.166   7.385   4.262 -0.0182  0.0306 -0.0186
  445ccc     C612900   2.015   7.389   4.006  0.3264  0.5609  0.5757
  445ccc     H612901   2.274   7.669   4.341  0.4204 -0.3793 -1.2628
  445ccc     H712902   2.257   7.401   4.293  0.3617 -1.2746 -0.4147
  445ccc     H812903   1.829   7.647   4.525  0.0909  1.0134  1.7678
  445ccc     H912904   2.096   7.424   3.942 -0.1339 -0.0062 -0.3303
  445ccc    H1012905   1.930   7.376   3.939 -0.2400 -2.6834  1.7800
  445ccc     O512906   2.040   7.258   4.060  0.2420  0.4509  0.0149
  445ccc    H1112907   2.088   7.281   4.142  0.7466 -0.3661 -0.0410
  445ccc     O612908   1.884   7.460   4.200  0.3231  0.4007 -0.5065
  446ccc     C112909   2.404   6.866   4.348 -0.1266 -0.4537  0.1178
  446ccc     C212910   2.504   6.962   4.283 -0.1616  0.3279 -0.4808
  446ccc     H112911   2.405   6.775   4.287 -0.8591 -0.8919  0.7413
  446ccc     H212912   2.600   6.912   4.264  0.9944  2.0358  0.5712
  446ccc     C312913   2.451   7.009   4.146 -0.7105 -0.1743  0.0193
  446ccc     C412914   2.309   7.063   4.158  0.4334 -0.1643  0.8740
  446ccc     C512915   2.206   6.971   4.237  0.6977  0.8482  0.2312
  446ccc     H312916   2.325   7.160   4.206  1.1957  0.4351 -0.5367
  446ccc     H412917   2.451   6.917   4.086 -2.0326 -0.2552  0.1259
  446ccc     H512918   2.179   6.882   4.179 -0.8063  0.0506  2.0440
  446ccc     O112919   2.095   7.054   4.268 -0.3473  0.0042  0.3394
  446ccc     O212920   2.264   7.096   4.022 -0.5199  0.1004 -0.0766
  446ccc     O312921   2.544   7.106   4.093  0.2898  0.2366  1.2070
  446ccc     O412922   2.534   7.067   4.375  0.0264 -0.1052 -0.1654
  446ccc     C612923   2.432   6.826   4.488  0.2360  0.3258 -0.2448
  446ccc     H612924   2.549   7.081   4.000  0.0702 -0.4361  1.3723
  446ccc     H712925   2.577   7.129   4.314 -0.9591  2.3085  1.4533
  446ccc     H812926   2.182   7.146   4.038 -0.1312  0.2098  1.8711
  446ccc     H912927   2.423   6.906   4.562  1.0427  0.9746 -0.8289
  446ccc    H1012928   2.540   6.804   4.493  0.2600  0.7299  2.7981
  446ccc     O512929   2.356   6.710   4.519  0.3843 -0.0817  0.4321
  446ccc    H1112930   2.261   6.725   4.509  0.3023 -0.8746 -0.0436
  446ccc     O612931   2.270   6.928   4.357 -0.2474 -0.0824 -0.4506
  447ccc     C112932   7.417   6.652   2.790 -0.4102 -0.6781 -0.0574
  447ccc     C212933   7.371   6.780   2.858 -0.1258  0.5892  0.2396
  447ccc     H112934   7.396   6.567   2.856  4.0549 -1.1411  1.0961
  447ccc     H212935   7.263   6.765   2.867 -0.0527 -1.0553 -1.1208
  447ccc     C312936   7.443   6.797   3.001  0.3854 -0.3468  0.8963
  447ccc     C412937   7.599   6.781   2.985  0.1262 -0.2445  0.3142
  447ccc     C512938   7.631   6.647   2.913  0.5553  0.0659  0.3387
  447ccc     H312939   7.631   6.859   2.914  1.6462 -1.7498 -0.7355
  447ccc     H412940   7.402   6.722   3.069 -0.9256 -1.0203 -0.5810
  447ccc     H512941   7.613   6.556   2.971  2.5161 -0.5710  0.0268
  447ccc     O112942   7.768   6.646   2.887 -0.5858  0.0108 -0.4643
  447ccc     O212943   7.669   6.793   3.111 -0.0961 -1.2099 -0.7005
  447ccc     O312944   7.411   6.931   3.047 -0.5610  0.4172  0.1246
  447ccc     O412945   7.413   6.886   2.768  0.7677  0.0660  0.0358
  447ccc     C612946   7.350   6.635   2.653  0.6008  0.3369 -0.3485
  447ccc     H612947   7.390   6.985   2.969 -0.1582  2.4639  1.3649
  447ccc     H712948   7.424   6.836   2.686 -1.8769 -1.9263  0.7778
  447ccc     H812949   7.629   6.733   3.176  1.2411  2.6293  4.2884
  447ccc     H912950   7.243   6.638   2.675  1.1575  1.5214  2.7046
  447ccc    H1012951   7.375   6.538   2.608  0.8030  0.8182 -1.2985
  447ccc     O512952   7.395   6.731   2.559 -0.2545  0.7134  0.0589
  447ccc    H1112953   7.328   6.727   2.488  1.1089 -1.3669 -1.2248
  447ccc     O612954   7.560   6.646   2.782 -0.4804 -0.1512 -0.0891
  448ccc     C112955   8.209   6.064   3.102  0.0510 -0.0522 -0.7181
  448ccc     C212956   8.353   6.111   3.122  0.2946 -0.0241 -0.0946
  448ccc     H112957   8.209   5.955   3.112  1.1157  0.1560  3.3135
  448ccc     H212958   8.403   6.071   3.211  0.5966  0.2628 -0.1337
  448ccc     C312959   8.457   6.085   3.000 -0.2535 -0.2941 -0.1738
  448ccc     C412960   8.393   6.135   2.866 -0.3115 -0.5636 -0.0975
  448ccc     C512961   8.250   6.074   2.859 -0.5453 -0.0224 -0.5266
  448ccc     H312962   8.388   6.245   2.865  3.3261 -0.2764 -1.0994
  448ccc     H412963   8.467   5.976   2.992  0.5210 -0.3268  0.9885
  448ccc     H512964   8.251   5.965   2.848 -1.4703 -0.0560 -0.3717
  448ccc     O112965   8.184   6.141   2.747 -0.7529 -0.4169 -0.2852
  448ccc     O212966   8.482   6.087   2.764 -0.7140 -0.0727 -0.1193
  448ccc     O312967   8.583   6.144   3.032 -0.5837  0.1589 -0.3797
  448ccc     O412968   8.338   6.252   3.133 -0.0816  0.2894  0.0907
  448ccc     C612969   8.114   6.124   3.206 -1.2608  0.1375  0.8585
  448ccc     H612970   8.617   6.121   3.120  0.9346  0.1377 -0.9447
  448ccc     H712971   8.418   6.290   3.172 -0.3727  0.0421  0.9618
  448ccc     H812972   8.471   6.150   2.691  0.4838  0.4334  0.1098
  448ccc     H912973   8.070   6.215   3.163  2.2182 -0.0761 -4.0897
  448ccc    H1012974   8.186   6.152   3.283  1.3132 -1.2706 -0.8594
  448ccc     O512975   8.005   6.037   3.232 -0.1017 -0.4993  0.2335
  448ccc    H1112976   7.981   6.007   3.142 -2.4970  2.2073 -0.1768
  448ccc     O612977   8.167   6.095   2.980  0.3174 -0.0344  0.3729
  449ccc     C112978   8.029   5.045   2.525  0.0281  0.1304 -0.2102
  449ccc     C212979   8.136   4.962   2.448  0.7591 -0.4230  0.2044
  449ccc     H112980   7.931   5.017   2.483 -0.5790  1.0097  0.5860
  449ccc     H212981   8.098   4.859   2.440 -3.1406  0.9615 -1.2699
  449ccc     C312982   8.162   5.017   2.302 -0.1061  0.6469  0.6792
  449ccc     C412983   8.168   5.168   2.302 -0.8721  0.8111  0.1984
  449ccc     C512984   8.048   5.237   2.381  0.2403  0.9125  0.2274
  449ccc     H312985   8.262   5.195   2.352 -1.5940  2.1887  0.8599
  449ccc     H412986   8.078   4.988   2.238  0.6600 -0.9206  0.3095
  449ccc     H512987   7.952   5.222   2.330  0.0613  2.6831 -0.0249
  449ccc     O112988   8.068   5.374   2.389 -0.4895 -0.7222  0.8090
  449ccc     O212989   8.166   5.212   2.161  0.8191  0.2526 -0.4549
  449ccc     O312990   8.284   4.956   2.245 -0.1683  0.3722 -0.2387
  449ccc     O412991   8.258   4.970   2.527  0.1282  0.4327 -0.3376
  449ccc     C612992   8.011   5.024   2.682  0.0509  0.6136 -0.1513
  449ccc     H612993   8.268   4.945   2.149  1.6701  1.7615 -0.7519
  449ccc     H712994   8.234   4.983   2.620  3.0792 -0.7487  0.6949
  449ccc     H812995   8.262   5.206   2.146  0.5054 -1.0296 -2.2532
  449ccc     H912996   7.980   4.921   2.703 -0.2240  0.5474 -0.8588
  449ccc    H1012997   7.937   5.093   2.725 -0.3497  0.5849 -0.7785
  449ccc     O512998   8.143   5.051   2.741 -0.0051 -0.3486 -0.2251
  449ccc    H1112999   8.145   5.147   2.760  1.9652 -0.1719 -1.0578
  449ccc     O613000   8.047   5.184   2.516 -0.1216  0.4891 -0.0030
  450ccc     C113001   8.381   5.440   2.708 -0.2211 -0.8575 -0.0797
  450ccc     C213002   8.303   5.404   2.835  0.4166  0.4307 -0.4077
  450ccc     H113003   8.488   5.455   2.728 -0.5734  0.0072  1.2457
  450ccc     H213004   8.349   5.328   2.899  0.3285  1.8406  1.4162
  450ccc     C313005   8.280   5.514   2.938  0.4922  0.3978 -0.1424
  450ccc     C413006   8.225   5.641   2.877  0.2634 -0.5894  0.2997
  450ccc     C513007   8.311   5.677   2.755 -0.1751  0.0869  0.4938
  450ccc     H313008   8.124   5.616   2.840 -0.7609 -0.6443  2.9514
  450ccc     H413009   8.375   5.547   2.981 -0.4458  0.5531  1.9440
  450ccc     H513010   8.414   5.698   2.785  0.1955 -0.4721 -0.3629
  450ccc     O113011   8.255   5.788   2.675  0.2863  0.1914  0.6425
  450ccc     O213012   8.207   5.751   2.971 -0.0510  0.3975  0.2268
  450ccc     O313013   8.198   5.458   3.041 -0.5746 -0.2136  0.3254
  450ccc     O413014   8.172   5.358   2.792 -0.0440 -0.3873 -0.2138
  450ccc     C613015   8.374   5.341   2.592  0.2292 -0.1056 -0.4072
  450ccc     H613016   8.257   5.443   3.117  0.8125  3.0140  0.0725
  450ccc     H713017   8.115   5.374   2.869 -0.4130 -2.7452  0.0766
  450ccc     H813018   8.118   5.741   3.007 -0.7910  1.9290 -1.0466
  450ccc     H913019   8.265   5.332   2.580 -0.2155  0.0862  2.6543
  450ccc    H1013020   8.416   5.246   2.626  0.8208 -0.4516 -1.9998
  450ccc     O513021   8.446   5.389   2.482 -0.1489 -0.2353 -0.1530
  450ccc    H1113022   8.393   5.464   2.450 -1.1520 -0.0585  1.7911
  450ccc     O613023   8.320   5.567   2.669 -0.4845 -0.7389  0.4603
  451ccc     C113024   6.674   4.414   1.332  0.2754  0.1118 -0.3659
  451ccc     C213025   6.704   4.377   1.483 -0.3714 -0.5960 -0.0010
  451ccc     H113026   6.755   4.372   1.271 -1.4357 -1.9710 -1.3879
  451ccc     H213027   6.711   4.268   1.491  0.1419 -0.8393 -2.8316
  451ccc     C313028   6.824   4.444   1.548  0.0814  0.3641  0.5550
  451ccc     C413029   6.819   4.603   1.516 -0.1806 -0.1645  0.7351
  451ccc     C513030   6.790   4.628   1.360  0.6072 -0.0793  0.3064
  451ccc     H313031   6.730   4.645   1.565  0.7184  0.7251  1.6460
  451ccc     H413032   6.910   4.405   1.491  0.7037  0.7939  1.1770
  451ccc     H513033   6.876   4.604   1.296  0.9798  2.4681 -0.2701
  451ccc     O113034   6.758   4.772   1.344  0.0666 -0.3034 -0.1195
  451ccc     O213035   6.945   4.668   1.558 -0.4062  0.5569  0.4806
  451ccc     O313036   6.809   4.423   1.690 -0.6357 -0.0432 -0.2219
  451ccc     O413037   6.587   4.418   1.553 -0.1421 -0.1576 -0.1408
  451ccc     C613038   6.549   4.348   1.275 -0.6843 -0.0578  1.0664
  451ccc     H613039   6.886   4.455   1.741 -0.7371 -2.8484  1.8927
  451ccc     H713040   6.614   4.415   1.647 -3.4167 -1.3360  0.9050
  451ccc     H813041   6.979   4.603   1.622  0.8370 -0.4545 -1.1362
  451ccc     H913042   6.454   4.398   1.301 -1.5232 -0.6735 -0.6530
  451ccc    H1013043   6.544   4.249   1.321  0.2570 -0.6370 -0.0551
  451ccc     O513044   6.563   4.351   1.132  0.3763 -0.1476 -0.2467
  451ccc    H1113045   6.547   4.443   1.104  1.1492 -0.1817 -0.8345
  451ccc     O613046   6.670   4.555   1.315  0.4053  0.0934  0.0333
  452ccc     C113047   6.529   5.692   0.794 -0.0315 -0.5117 -0.1221
  452ccc     C213048   6.446   5.802   0.859 -0.2574 -0.4440 -0.5053
  452ccc     H113049   6.463   5.633   0.729 -0.6944 -0.3163  0.3665
  452ccc     H213050   6.412   5.877   0.787 -1.3125 -0.7195 -0.3129
  452ccc     C313051   6.331   5.743   0.940 -0.2142 -0.3859  0.9132
  452ccc     C413052   6.382   5.628   1.032 -0.1394  0.4485 -0.0264
  452ccc     C513053   6.483   5.534   0.966  0.0893 -0.2707 -0.1645
  452ccc     H313054   6.431   5.682   1.114 -2.7264  0.5990  1.4954
  452ccc     H413055   6.267   5.691   0.868  0.5405 -0.6085  0.3874
  452ccc     H513056   6.430   5.462   0.902  1.3029  0.7062 -2.3425
  452ccc     O113057   6.550   5.466   1.069  0.4424 -0.1704 -0.2939
  452ccc     O213058   6.259   5.574   1.076 -0.0076 -0.3347 -0.2328
  452ccc     O313059   6.258   5.840   1.011 -0.1263 -0.4033  0.8097
  452ccc     O413060   6.526   5.876   0.948 -0.1486  0.3489 -0.0176
  452ccc     C613061   6.639   5.738   0.699 -0.0526  0.2139  0.2885
  452ccc     H613062   6.177   5.850   0.958  0.7097  2.0091 -0.1528
  452ccc     H713063   6.613   5.851   0.911  1.1152  2.9871  0.8835
  452ccc     H813064   6.221   5.653   1.117  0.9760 -0.2541  0.5346
  452ccc     H913065   6.590   5.799   0.622 -1.7997 -0.2761  0.9636
  452ccc    H1013066   6.705   5.657   0.666  1.1484  0.2843  2.3126
  452ccc     O513067   6.731   5.819   0.769  0.4074  0.1332 -0.3064
  452ccc    H1113068   6.760   5.879   0.698  1.1867  0.1169 -0.0175
  452ccc     O613069   6.586   5.611   0.905 -0.1891  0.0041 -0.0516
  453ccc     C113070   7.129   6.658   1.578 -1.0379  0.2561 -0.6100
  453ccc     C213071   7.013   6.696   1.667 -0.1218 -0.5375 -0.8051
  453ccc     H113072   7.120   6.710   1.483  2.1939  0.9873 -0.6435
  453ccc     H213073   7.001   6.804   1.673  2.3686 -0.1898 -0.9186
  453ccc     C313074   6.881   6.651   1.611  0.9218 -0.0261  0.3377
  453ccc     C413075   6.886   6.493   1.595  0.4857 -0.0763  0.4599
  453ccc     C513076   7.005   6.458   1.498 -0.2095  0.1722 -0.5763
  453ccc     H313077   6.909   6.454   1.695  3.7892  4.6043  1.9325
  453ccc     H413078   6.868   6.710   1.520  0.0948  0.3056  0.6573
  453ccc     H513079   6.985   6.511   1.404  1.0180  0.3504 -0.7642
  453ccc     O113080   7.015   6.314   1.479  0.1718  0.0661  0.0672
  453ccc     O213081   6.772   6.430   1.531 -0.7941 -0.1136  0.1150
  453ccc     O313082   6.767   6.694   1.694 -0.8612  0.3885  0.5155
  453ccc     O413083   7.036   6.632   1.798 -0.6097 -0.1442  0.5609
  453ccc     C613084   7.273   6.687   1.632  0.4356 -0.3033  0.0864
  453ccc     H613085   6.782   6.671   1.787 -0.2163  0.0452  0.3267
  453ccc     H713086   7.128   6.601   1.793 -0.7446 -0.3928 -0.5962
  453ccc     H813087   6.699   6.486   1.563  1.3620  2.0451  1.6045
  453ccc     H913088   7.281   6.795   1.646  0.1925 -0.2921  0.1501
  453ccc    H1013089   7.338   6.655   1.549  0.9303  0.6897  0.0819
  453ccc     O513090   7.298   6.621   1.750  0.0703 -0.7894  0.0564
  453ccc    H1113091   7.378   6.670   1.778  0.7400 -2.2030  0.7307
  453ccc     O613092   7.122   6.510   1.562  0.1691 -0.1870  0.2483
  454ccc     C113093   6.572   6.304   0.532 -0.3213  0.3349  0.6825
  454ccc     C213094   6.694   6.366   0.460  0.3488  0.3585  0.0992
  454ccc     H113095   6.489   6.375   0.538 -1.3325 -0.4968 -2.0546
  454ccc     H213096   6.658   6.403   0.363  0.4602  0.2015 -0.0021
  454ccc     C313097   6.739   6.486   0.540 -0.1680 -0.0157  0.0765
  454ccc     C413098   6.768   6.446   0.691 -0.2485 -0.4682 -0.3034
  454ccc     C513099   6.647   6.366   0.757 -0.9720  0.0841 -0.0354
  454ccc     H313100   6.858   6.384   0.689  0.6798  0.7822 -3.7845
  454ccc     H413101   6.654   6.555   0.538  1.9533  2.7402  0.0171
  454ccc     H513102   6.565   6.439   0.764  0.0476  1.5221 -2.0239
  454ccc     O113103   6.713   6.311   0.876  0.1500 -0.1835  0.2653
  454ccc     O213104   6.784   6.575   0.757  0.0548  0.6873  0.8297
  454ccc     O313105   6.856   6.550   0.484  0.0882 -0.1190 -0.1071
  454ccc     O413106   6.795   6.265   0.456 -0.2758  0.3505 -0.0829
  454ccc     C613107   6.520   6.184   0.452 -0.1869 -0.1570  0.0524
  454ccc     H613108   6.919   6.476   0.479  0.2141 -0.2062  1.9105
  454ccc     H713109   6.813   6.244   0.362 -0.0313 -0.1446  0.0685
  454ccc     H813110   6.843   6.622   0.695 -2.1188  0.4518 -1.5812
  454ccc     H913111   6.574   6.092   0.479  1.4147  0.9824  0.8859
  454ccc    H1013112   6.531   6.202   0.344  1.7632  2.8437  0.6384
  454ccc     O513113   6.380   6.169   0.490 -0.4498 -0.2437 -0.1351
  454ccc    H1113114   6.380   6.199   0.583  1.0701  1.8795 -0.7195
  454ccc     O613115   6.614   6.262   0.661 -0.0654  0.3710 -0.0982
  455ccc     C113116   6.371   8.295   2.129  0.6409  0.0322 -0.0151
  455ccc     C213117   6.222   8.273   2.180  0.8229 -0.3000 -0.2673
  455ccc     H113118   6.410   8.385   2.178  1.5714 -0.8355  0.9055
  455ccc     H213119   6.220   8.276   2.290 -1.3805  0.2997 -0.2631
  455ccc     C313120   6.127   8.384   2.137  0.4141 -0.1824  0.1279
  455ccc     C413121   6.147   8.413   1.982 -0.2652  0.4221 -0.4388
  455ccc     C513122   6.296   8.426   1.936 -0.3130  0.2660  0.0061
  455ccc     H313123   6.106   8.336   1.915 -0.3604  1.7183 -1.9357
  455ccc     H413124   6.142   8.475   2.197  0.9347 -1.1167  1.4810
  455ccc     H513125   6.339   8.521   1.969 -0.6726  2.3147 -4.7407
  455ccc     O113126   6.307   8.428   1.794  0.3959  0.7166 -0.5093
  455ccc     O213127   6.065   8.526   1.949  0.4268 -0.1329  0.7335
  455ccc     O313128   5.985   8.356   2.161 -0.1905 -0.5096  0.5940
  455ccc     O413129   6.178   8.149   2.132  0.0205  0.8026 -0.5106
  455ccc     C613130   6.466   8.176   2.152  0.2039  0.1201  0.1387
  455ccc     H613131   5.959   8.331   2.251  1.6201  0.8490  1.5635
  455ccc     H713132   6.094   8.124   2.174 -0.5550  1.2078 -1.3814
  455ccc     H813133   6.038   8.522   1.856 -1.0907  0.5456  1.1310
  455ccc     H913134   6.438   8.086   2.096 -3.4652  1.6602 -0.7837
  455ccc    H1013135   6.462   8.156   2.260 -0.6859  0.7503  0.2327
  455ccc     O513136   6.587   8.233   2.114 -0.2521 -0.8850 -0.0218
  455ccc    H1113137   6.594   8.226   2.017 -2.6250  1.1513 -0.4400
  455ccc     O613138   6.370   8.310   1.985  0.0878  0.3988  0.2733
  456ccc     C113139   5.545   8.019   1.465 -0.0507 -0.4131  1.0191
  456ccc     C213140   5.545   7.955   1.324  0.4158  0.5733 -0.5342
  456ccc     H113141   5.514   8.123   1.451 -1.7576 -1.1097 -0.8680
  456ccc     H213142   5.452   7.974   1.268  0.3528 -0.3874 -0.7735
  456ccc     C313143   5.662   8.015   1.235 -0.3330  0.5449 -0.1544
  456ccc     C413144   5.798   8.002   1.312 -0.5177 -0.8029 -0.1245
  456ccc     C513145   5.793   8.059   1.455 -0.2818  0.4131 -0.1303
  456ccc     H313146   5.821   7.895   1.318  0.0122 -0.6560  0.6667
  456ccc     H413147   5.644   8.122   1.221  0.7628  0.9114  1.0642
  456ccc     H513148   5.789   8.168   1.455  0.0253  0.4855  2.7342
  456ccc     O113149   5.912   8.023   1.525 -0.1008 -0.4000  0.5107
  456ccc     O213150   5.891   8.082   1.238  0.6707 -0.3314 -0.0524
  456ccc     O313151   5.665   7.958   1.104 -0.2575 -0.2839 -0.0987
  456ccc     O413152   5.563   7.815   1.344 -0.3664 -0.2229 -0.0476
  456ccc     C613153   5.445   7.977   1.568  0.1417  0.0938 -0.1180
  456ccc     H613154   5.757   7.959   1.070 -0.0170 -0.7151  0.5169
  456ccc     H713155   5.588   7.794   1.252  0.8606 -1.6009  0.5475
  456ccc     H813156   5.965   8.020   1.242 -1.2884 -2.8033  0.3038
  456ccc     H913157   5.341   7.985   1.533 -0.0714  0.1711  0.5081
  456ccc    H1013158   5.433   8.034   1.661  1.8920  1.8673 -0.9037
  456ccc     O513159   5.473   7.846   1.612 -0.3817 -0.5097 -0.5301
  456ccc    H1113160   5.491   7.803   1.526  1.7579 -0.5443 -0.1075
  456ccc     O613161   5.674   8.000   1.524 -0.1714  0.2703  0.2337
  457ccc     C113162   5.600   8.290   1.815  0.1554  0.0283 -0.4575
  457ccc     C213163   5.657   8.389   1.921  0.6611  0.4010  0.0486
  457ccc     H113164   5.492   8.287   1.836 -0.4500 -1.1473 -3.2526
  457ccc     H213165   5.595   8.480   1.928  0.7520  0.4975 -0.3958
  457ccc     C313166   5.653   8.331   2.062  0.0269  0.4284  0.8121
  457ccc     C413167   5.736   8.199   2.058  0.0270  0.4708  0.3605
  457ccc     C513168   5.683   8.098   1.956  0.6782  0.1979  0.1191
  457ccc     H313169   5.837   8.226   2.024 -0.9868 -0.1544 -3.7367
  457ccc     H413170   5.551   8.301   2.089  0.4488 -0.6889  1.2002
  457ccc     H513171   5.587   8.052   1.985  0.5811 -0.8002 -1.6527
  457ccc     O113172   5.777   7.991   1.940  0.1963  0.4207 -0.1054
  457ccc     O213173   5.728   8.176   2.206 -0.5386  0.2177 -1.0059
  457ccc     O313174   5.704   8.422   2.161 -0.3590  0.1730  1.0282
  457ccc     O413175   5.794   8.422   1.893 -0.6560 -0.2682  0.5317
  457ccc     C613176   5.602   8.343   1.672  0.6873  0.5266 -0.1281
  457ccc     H613177   5.627   8.478   2.181  0.9945  1.1269  4.1202
  457ccc     H713178   5.787   8.417   1.796  0.2826 -0.9435  0.4798
  457ccc     H813179   5.736   8.266   2.242  0.9622 -0.7937  1.4375
  457ccc     H913180   5.516   8.410   1.658 -0.2490 -0.4293  0.9249
  457ccc    H1013181   5.565   8.260   1.610 -0.6717  1.2484 -0.3455
  457ccc     O513182   5.732   8.394   1.634  0.5853  0.3011  0.0537
  457ccc    H1113183   5.733   8.389   1.537 -1.5191  1.8760 -0.1079
  457ccc     O613184   5.665   8.161   1.825  0.1654  0.5547  0.2679
  458ccc     C113185   5.994   7.420   1.230 -0.2741  0.2763  0.5108
  458ccc     C213186   5.922   7.530   1.158  0.1846 -0.3324 -0.1831
  458ccc     H113187   5.930   7.330   1.225  1.3119 -0.9341  1.0750
  458ccc     H213188   5.896   7.494   1.057 -3.6224 -1.1382  0.9238
  458ccc     C313189   5.792   7.560   1.234 -0.0298  0.5127 -0.5281
  458ccc     C413190   5.822   7.591   1.385 -0.6183  0.4652 -0.4560
  458ccc     C513191   5.894   7.464   1.444  0.2988 -0.4537 -0.0737
  458ccc     H313192   5.889   7.678   1.386 -1.5571  1.2357  1.7787
  458ccc     H413193   5.736   7.465   1.227 -1.5359  0.9500  3.1317
  458ccc     H513194   5.830   7.375   1.442  0.6402 -0.7244  0.7508
  458ccc     O113195   5.938   7.489   1.580  0.4842 -0.5051  0.0648
  458ccc     O213196   5.699   7.623   1.459  0.0437  0.2537 -0.2050
  458ccc     O313197   5.703   7.654   1.172 -0.0900  0.2128  0.5588
  458ccc     O413198   6.000   7.645   1.143 -0.0326  0.3194 -0.3249
  458ccc     C613199   6.132   7.375   1.174  0.2854  0.0699  0.3410
  458ccc     H613200   5.684   7.631   1.079 -1.4339  1.1954  0.5590
  458ccc     H713201   6.086   7.602   1.152  0.1505 -0.2761 -3.6746
  458ccc     H813202   5.643   7.678   1.402  1.2799  1.1304 -0.6355
  458ccc     H913203   6.107   7.330   1.076  0.3002 -1.3414  0.9537
  458ccc    H1013204   6.178   7.297   1.235  1.8053  1.1938  0.6833
  458ccc     O513205   6.220   7.486   1.160 -0.0460  0.0848  0.0418
  458ccc    H1113206   6.296   7.451   1.109 -0.1099 -0.3389  0.2309
  458ccc     O613207   6.015   7.442   1.367 -0.1060  0.2760 -0.0266
  459ccc     C113208   7.724   7.454   3.291 -0.2564  0.7718  0.7641
  459ccc     C213209   7.776   7.365   3.183  0.6432 -0.3371  0.8222
  459ccc     H113210   7.768   7.426   3.387 -0.9431  1.1944  1.2138
  459ccc     H213211   7.885   7.358   3.186  0.6275 -1.2290 -0.1077
  459ccc     C313212   7.736   7.217   3.205  0.0352  0.3183 -0.1861
  459ccc     C413213   7.583   7.196   3.239  0.1521  0.2101  0.7218
  459ccc     C513214   7.534   7.296   3.344  0.5877  0.0621  0.5779
  459ccc     H313215   7.522   7.212   3.149  0.5501 -0.5448  0.3096
  459ccc     H413216   7.796   7.184   3.290 -0.2211  0.6053  0.1117
  459ccc     H513217   7.561   7.257   3.443  0.0885 -1.2360  0.2108
  459ccc     O113218   7.385   7.293   3.336  0.1873 -0.0313  0.5214
  459ccc     O213219   7.552   7.057   3.272  0.0475 -0.2522  0.3148
  459ccc     O313220   7.760   7.144   3.080 -0.6629 -0.3460 -0.3109
  459ccc     O413221   7.726   7.406   3.058  0.7844 -0.3886  0.5337
  459ccc     C613222   7.758   7.605   3.269  0.2476 -0.0845 -0.2893
  459ccc     H613223   7.826   7.076   3.103  1.3495  1.5898 -0.0888
  459ccc     H713224   7.721   7.322   3.009 -0.0416 -0.4164  0.6624
  459ccc     H813225   7.527   7.012   3.190  1.0564  1.1526 -0.8191
  459ccc     H913226   7.690   7.648   3.194 -0.6216 -2.2481 -0.7969
  459ccc    H1013227   7.857   7.618   3.224  0.2646  1.0801  0.0396
  459ccc     O513228   7.746   7.674   3.389  0.0682 -0.4168 -0.4361
  459ccc    H1113229   7.833   7.717   3.390 -0.8830  1.6290  0.4505
  459ccc     O613230   7.583   7.431   3.309  0.1733 -0.3249  0.4581
  460ccc     C113231   6.588   6.942   3.326 -0.5398 -0.6802 -0.2631
  460ccc     C213232   6.557   7.046   3.437  0.0511 -0.4489 -0.0580
  460ccc     H113233   6.581   6.842   3.370 -0.2708 -0.3896  0.4612
  460ccc     H213234   6.471   7.010   3.495  0.0147 -0.7699 -0.3045
  460ccc     C313235   6.673   7.060   3.541 -0.6434  0.0982  0.2355
  460ccc     C413236   6.813   7.064   3.471  0.2361  0.6721 -0.4727
  460ccc     C513237   6.831   6.965   3.354  0.1199  0.0662  0.1459
  460ccc     H313238   6.816   7.160   3.418 -0.0717  0.7419 -0.3637
  460ccc     H413239   6.666   6.977   3.613  2.1715  0.6995  1.2994
  460ccc     H513240   6.851   6.863   3.389  0.3100 -0.1649 -0.6137
  460ccc     O113241   6.944   7.018   3.283  0.1623  0.6955  0.5182
  460ccc     O213242   6.912   7.050   3.574  0.5748  0.1743  0.1407
  460ccc     O313243   6.646   7.174   3.626 -0.2573 -0.0906 -0.6967
  460ccc     O413244   6.519   7.174   3.376 -0.4259  0.1739  0.0500
  460ccc     C613245   6.471   6.929   3.214 -0.6260  0.2994  0.6638
  460ccc     H613246   6.574   7.165   3.690  0.3689  0.9589  0.1897
  460ccc     H713247   6.512   7.242   3.445  0.5562 -0.5108  0.8658
  460ccc     H813248   6.939   7.140   3.598 -2.0692  0.9303  0.5842
  460ccc     H913249   6.378   6.918   3.270 -1.7320  0.3742 -1.0939
  460ccc    H1013250   6.478   6.848   3.140 -1.0550 -0.6947  1.6834
  460ccc     O513251   6.467   7.053   3.149  0.4627 -0.6718  0.1987
  460ccc    H1113252   6.500   7.095   3.230 -0.3465  1.0283 -0.3053
  460ccc     O613253   6.717   6.973   3.263  0.4422  0.1580  0.0801
  461ccc     C113254   6.672   7.663   3.546 -0.6245  0.1620 -0.5603
  461ccc     C213255   6.607   7.530   3.590  0.5089 -0.0489 -0.5426
  461ccc     H113256   6.608   7.750   3.569 -1.6314 -0.5383 -0.6706
  461ccc     H213257   6.587   7.536   3.698 -1.3771  1.4206 -0.9299
  461ccc     C313258   6.477   7.501   3.517  0.4092  0.5635  0.3521
  461ccc     C413259   6.494   7.519   3.363  0.0691 -0.0588  0.4822
  461ccc     C513260   6.577   7.651   3.325  0.1669 -0.5985  0.7554
  461ccc     H313261   6.549   7.439   3.312  0.6445  1.2237 -1.0144
  461ccc     H413262   6.411   7.580   3.555  3.1270  2.3173  1.7647
  461ccc     H513263   6.519   7.741   3.346  2.1891  0.8709  0.3174
  461ccc     O113264   6.609   7.645   3.177  0.0244 -0.0306 -0.0829
  461ccc     O213265   6.368   7.531   3.290 -0.2392  0.2254  0.0057
  461ccc     O313266   6.423   7.366   3.555 -0.9389 -0.1760  0.1477
  461ccc     O413267   6.704   7.422   3.557  0.5799  0.3083  0.2929
  461ccc     C613268   6.808   7.696   3.615  0.3513  0.1376 -0.1710
  461ccc     H613269   6.372   7.376   3.637  0.8689 -0.3549  1.3436
  461ccc     H713270   6.670   7.334   3.578  1.8056 -0.1876  0.3000
  461ccc     H813271   6.322   7.452   3.325  3.3467 -2.2590 -0.3619
  461ccc     H913272   6.884   7.617   3.611  0.7152  0.2068  3.1617
  461ccc    H1013273   6.782   7.725   3.717 -2.2729 -1.6967 -0.2219
  461ccc     O513274   6.854   7.809   3.544 -0.1361  0.0495 -0.1229
  461ccc    H1113275   6.777   7.853   3.503 -0.0492  0.1179 -0.2144
  461ccc     O613276   6.693   7.653   3.404 -0.7291 -0.0712  0.0718
  462ccc     C113277   5.828   7.788   2.503  0.0603  0.9607 -0.2454
  462ccc     C213278   5.870   7.844   2.370 -0.3610 -0.1791  0.5388
  462ccc     H113279   5.741   7.846   2.535 -0.3484 -0.0183  0.4562
  462ccc     H213280   5.777   7.850   2.312 -1.2079 -0.3743  1.8316
  462ccc     C313281   5.919   7.994   2.383 -0.7677 -0.6036  0.4836
  462ccc     C413282   6.044   8.002   2.478  0.4903 -0.0193 -0.1850
  462ccc     C513283   6.000   7.932   2.615 -0.5808 -0.3912 -0.4161
  462ccc     H313284   6.138   7.956   2.447  2.2610  1.5918  2.3658
  462ccc     H413285   5.839   8.049   2.436  0.1488 -0.3353  1.6305
  462ccc     H513286   5.925   7.997   2.661  0.4982  0.2013  0.5638
  462ccc     O113287   6.130   7.912   2.683  0.5062  0.3086  0.2556
  462ccc     O213288   6.082   8.138   2.500 -0.2911 -0.2206  0.2451
  462ccc     O313289   5.955   8.058   2.252 -0.8888 -0.1629 -0.3703
  462ccc     O413290   5.967   7.766   2.303 -0.2094 -0.2225 -0.4965
  462ccc     C613291   5.787   7.642   2.489 -0.1299 -0.2561  0.4980
  462ccc     H613292   5.872   8.061   2.202 -1.9977  0.7194  1.4340
  462ccc     H713293   5.984   7.701   2.373 -1.1277 -0.0497 -0.1016
  462ccc     H813294   6.022   8.195   2.448  2.5425  0.9371 -2.0062
  462ccc     H913295   5.724   7.643   2.399 -1.0154  0.4933  1.1066
  462ccc    H1013296   5.714   7.621   2.568  1.4704 -0.1351  2.0730
  462ccc     O513297   5.898   7.549   2.481 -0.0244 -0.0929 -0.2360
  462ccc    H1113298   5.937   7.557   2.570 -0.0065  0.4717 -0.2947
  462ccc     O613299   5.939   7.800   2.598 -0.3757  0.1554  0.2414
  463ccc     C113300   7.705   6.871   5.139  0.4383 -0.7196  0.1051
  463ccc     C213301   7.581   6.842   5.229  0.5592 -0.1958  0.8274
  463ccc     H113302   7.667   6.890   5.038 -1.1950  0.0849  0.8271
  463ccc     H213303   7.523   6.935   5.231  0.6362 -0.0302 -1.8218
  463ccc     C313304   7.495   6.736   5.157 -0.2146  0.0954  0.2359
  463ccc     C413305   7.576   6.605   5.120  0.6795 -0.2966  0.1938
  463ccc     C513306   7.713   6.643   5.050  0.3809 -0.0422  0.1296
  463ccc     H313307   7.588   6.556   5.217 -1.9037 -1.0698  0.1821
  463ccc     H413308   7.460   6.780   5.063  0.1257  0.5530  0.3198
  463ccc     H513309   7.703   6.679   4.946 -0.2771  1.6099  0.7361
  463ccc     O113310   7.802   6.526   5.045 -0.4354  0.2619  0.1760
  463ccc     O213311   7.497   6.530   5.022  0.3684  0.5279 -0.3087
  463ccc     O313312   7.367   6.725   5.235 -0.2362  0.6876 -0.5088
  463ccc     O413313   7.631   6.796   5.349  0.0372  0.4234 -0.0540
  463ccc     C613314   7.786   6.992   5.191 -0.4698 -0.1854  0.3063
  463ccc     H613315   7.386   6.697   5.326  1.0576 -0.8559 -1.2097
  463ccc     H713316   7.711   6.851   5.358 -1.0465  1.8623  1.4000
  463ccc     H813317   7.520   6.438   5.041 -0.3520  0.0986 -1.3934
  463ccc     H913318   7.729   7.085   5.202 -1.5311 -0.5811 -1.4957
  463ccc    H1013319   7.861   7.007   5.112 -0.9360 -0.7156 -0.2447
  463ccc     O513320   7.844   6.944   5.316  0.8279 -0.5783  0.2405
  463ccc    H1113321   7.919   7.003   5.335 -0.3830  0.7074  1.2617
  463ccc     O613322   7.784   6.750   5.131 -0.1234  0.5443 -0.0260
  464ccc     C113323   8.142   5.545   5.055 -0.2948 -0.6391  0.2392
  464ccc     C213324   8.062   5.510   5.186 -0.9372 -0.0464  0.3282
  464ccc     H113325   8.249   5.563   5.072  0.6561 -0.3233 -4.5600
  464ccc     H213326   8.116   5.442   5.252  0.5116 -0.5251 -1.2730
  464ccc     C313327   8.049   5.641   5.273  0.5750  0.6187 -0.5165
  464ccc     C413328   8.000   5.771   5.201  0.3934 -0.3764  0.6499
  464ccc     C513329   8.097   5.785   5.078 -0.9402 -0.1197 -0.3476
  464ccc     H313330   7.895   5.750   5.177 -0.2073  0.7404  2.1386
  464ccc     H413331   8.148   5.665   5.313  0.6864 -1.3934  0.5836
  464ccc     H513332   8.197   5.806   5.116 -0.4937 -1.2831 -0.8474
  464ccc     O113333   8.061   5.902   5.000 -0.1224 -0.5272  0.1062
  464ccc     O213334   8.011   5.885   5.288  0.6407  0.3242  0.0519
  464ccc     O313335   7.961   5.622   5.381  0.3079  0.0859  0.3771
  464ccc     O413336   7.934   5.458   5.141  0.3639  0.2364  0.0650
  464ccc     C613337   8.136   5.428   4.952  0.1344 -0.3478 -0.3242
  464ccc     H613338   7.881   5.578   5.348  0.5878  0.6949 -1.1750
  464ccc     H713339   7.912   5.389   5.206  0.3202 -0.1378 -0.3448
  464ccc     H813340   8.009   5.841   5.375 -0.8336 -0.1611 -0.2084
  464ccc     H913341   8.036   5.386   4.937  0.2430 -0.2519 -1.4378
  464ccc    H1013342   8.201   5.345   4.984  1.6704  0.4125 -1.3452
  464ccc     O513343   8.189   5.473   4.823 -0.6699  0.2674  0.3009
  464ccc    H1113344   8.253   5.542   4.848 -0.4064  1.0785 -2.3091
  464ccc     O613345   8.096   5.666   4.997  0.1190 -0.3242 -0.1708
  465ccc     C113346   8.235   6.769   3.155 -0.0836 -1.4248  0.3344
  465ccc     C213347   8.119   6.876   3.128  0.0632 -0.3855  0.0428
  465ccc     H113348   8.222   6.677   3.096 -1.2787 -0.8431 -0.3421
  465ccc     H213349   8.121   6.895   3.020  1.7435 -0.1672  0.0828
  465ccc     C313350   7.986   6.823   3.180  0.4409  0.0572 -0.8275
  465ccc     C413351   7.991   6.767   3.325 -0.3951 -0.5142 -0.1652
  465ccc     C513352   8.118   6.672   3.340  0.1385  0.0343 -0.6324
  465ccc     H313353   8.011   6.855   3.388 -1.4578 -0.4532  0.1073
  465ccc     H413354   7.956   6.744   3.110  0.2719 -0.3264 -0.3268
  465ccc     H513355   8.103   6.581   3.280  1.1490 -0.8402  0.3827
  465ccc     O113356   8.130   6.619   3.472 -0.7646 -0.1278  0.0411
  465ccc     O213357   7.860   6.711   3.361 -0.2950 -0.4583  0.5951
  465ccc     O313358   7.887   6.928   3.163  0.1162  0.7615 -0.0595
  465ccc     O413359   8.150   6.994   3.200 -0.2566  0.0875  0.0753
  465ccc     C613360   8.371   6.816   3.110 -0.6216 -0.3188  0.4325
  465ccc     H613361   7.808   6.871   3.152  1.0535 -0.5425 -0.2815
  465ccc     H713362   8.101   7.064   3.154 -0.5281 -0.4010 -0.3813
  465ccc     H813363   7.810   6.785   3.400 -0.7373 -0.9794  1.0379
  465ccc     H913364   8.415   6.883   3.185 -1.8693 -0.7359  1.5780
  465ccc    H1013365   8.356   6.873   3.018 -0.6548 -0.6145  0.2518
  465ccc     O513366   8.457   6.709   3.093 -0.1036  0.6895 -0.2263
  465ccc    H1113367   8.505   6.682   3.173  1.2292  0.1793 -1.1447
  465ccc     O613368   8.241   6.731   3.293  0.1695 -0.6357  0.1490
  466ccc     C113369   8.691   6.457   3.415  0.1329 -0.5418 -0.1478
  466ccc     C213370   8.658   6.345   3.312 -0.3052 -0.2686  0.1372
  466ccc     H113371   8.795   6.444   3.447  0.4077  0.6616 -0.4979
  466ccc     H213372   8.737   6.343   3.235 -0.6244 -1.2967 -0.1846
  466ccc     C313373   8.674   6.199   3.380 -0.1902 -0.4030 -0.5119
  466ccc     C413374   8.574   6.196   3.497 -0.1859  0.7333  1.0918
  466ccc     C513375   8.612   6.310   3.597  0.9923  0.1577  0.3265
  466ccc     H313376   8.472   6.201   3.455  1.0825 -0.5213 -2.5148
  466ccc     H413377   8.778   6.197   3.412 -0.2201 -0.4362 -0.4179
  466ccc     H513378   8.714   6.296   3.636  1.7199  3.3871 -0.1419
  466ccc     O113379   8.507   6.300   3.695 -0.9148  0.1811  0.1943
  466ccc     O213380   8.602   6.068   3.558 -0.0935 -0.6569  0.3188
  466ccc     O313381   8.649   6.090   3.282  0.2382  0.2054  0.4123
  466ccc     O413382   8.535   6.371   3.255 -0.7540  0.0350 -0.1867
  466ccc     C613383   8.666   6.603   3.358  0.6135 -0.2290  0.5567
  466ccc     H613384   8.713   6.017   3.292  1.0156  1.0371  1.9630
  466ccc     H713385   8.521   6.461   3.289  1.4128  0.4248 -0.1933
  466ccc     H813386   8.586   6.001   3.489  0.5697 -0.2656 -0.2194
  466ccc     H913387   8.725   6.606   3.267  0.7456 -3.1216  0.4372
  466ccc    H1013388   8.710   6.662   3.439  1.5351 -0.3503  0.1580
  466ccc     O513389   8.526   6.627   3.320  0.4161  0.2739 -0.4701
  466ccc    H1113390   8.497   6.677   3.398  0.2909 -0.9563  0.3025
  466ccc     O613391   8.601   6.441   3.527 -0.3528  1.2369  0.0610
  467ccc     C113392   8.267   7.830   3.701  0.3479 -0.3411  0.1124
  467ccc     C213393   8.372   7.856   3.812  0.2732 -0.4855 -0.2151
  467ccc     H113394   8.241   7.922   3.647 -0.7433 -1.1201 -0.7521
  467ccc     H213395   8.459   7.916   3.781  1.6892 -2.0970  0.5096
  467ccc     C313396   8.314   7.941   3.930  0.4544 -0.5530  0.0668
  467ccc     C413397   8.176   7.890   3.981  0.1376  0.5844  0.0683
  467ccc     C513398   8.083   7.862   3.858 -0.2422  0.7540  0.5370
  467ccc     H313399   8.196   7.793   4.029 -1.3557  0.2476  0.0833
  467ccc     H413400   8.296   8.040   3.887 -2.1538 -1.1920 -0.4973
  467ccc     H513401   8.057   7.954   3.803  0.4914  0.1913 -0.8082
  467ccc     O113402   7.959   7.802   3.907  0.1346 -0.3808  0.2838
  467ccc     O213403   8.112   7.984   4.076  0.2558 -0.2036 -0.4734
  467ccc     O313404   8.405   7.947   4.037 -0.0723 -0.2499  0.3468
  467ccc     O413405   8.408   7.734   3.878 -0.4287  0.0085  0.1834
  467ccc     C613406   8.315   7.740   3.589 -0.1395  0.1396  0.0623
  467ccc     H613407   8.376   8.016   4.099  1.5545  1.8514 -1.0943
  467ccc     H713408   8.456   7.766   3.957  1.9248  0.3843 -1.2952
  467ccc     H813409   8.134   8.074   4.045  0.6035  0.4072  1.4426
  467ccc     H913410   8.405   7.789   3.551  1.3995 -0.3189  2.8901
  467ccc    H1013411   8.238   7.714   3.515  3.3129 -2.3255 -3.0297
  467ccc     O513412   8.362   7.612   3.652  0.1222 -0.3978  0.2687
  467ccc    H1113413   8.388   7.653   3.737 -2.4382  3.2447 -0.4554
  467ccc     O613414   8.148   7.779   3.757 -0.0653  0.4178  0.3558
  468ccc     C113415   7.902   7.046   4.707  0.4204  0.0208  0.1341
  468ccc     C213416   7.801   6.938   4.751  0.3011 -0.5944 -0.4146
  468ccc     H113417   7.895   7.123   4.785 -1.7098 -1.2893  1.3577
  468ccc     H213418   7.819   6.905   4.854  1.6881 -0.4462 -0.5898
  468ccc     C313419   7.650   6.987   4.739  0.2455  0.4711 -0.2699
  468ccc     C413420   7.623   7.032   4.595 -0.3697 -0.3800 -0.2144
  468ccc     C513421   7.730   7.141   4.548  0.5158  0.3975 -0.2465
  468ccc     H313422   7.621   6.946   4.526 -0.7127 -0.3450 -0.2510
  468ccc     H413423   7.629   7.073   4.804  0.3527  0.1107  0.2451
  468ccc     H513424   7.717   7.233   4.606 -0.7758 -0.6221  1.1780
  468ccc     O113425   7.702   7.172   4.409  0.0736  0.5686  1.2255
  468ccc     O213426   7.494   7.097   4.587 -0.3028  0.0969  0.1020
  468ccc     O313427   7.565   6.890   4.798 -0.3365  0.1611 -0.0195
  468ccc     O413428   7.837   6.824   4.676  0.0720 -0.5787  0.4596
  468ccc     C613429   8.049   7.005   4.711  1.0203  0.3993  0.5496
  468ccc     H613430   7.481   6.933   4.823  0.4255  1.0310  1.1679
  468ccc     H713431   7.761   6.763   4.680 -0.6861  0.2571 -0.6409
  468ccc     H813432   7.473   7.090   4.492 -1.3077  0.0218  0.3240
  468ccc     H913433   8.086   6.934   4.635 -1.7525  0.8167 -1.3422
  468ccc    H1013434   8.060   6.947   4.803  2.6871 -0.8681 -0.3754
  468ccc     O513435   8.133   7.120   4.710  0.3399  0.6933 -0.4772
  468ccc    H1113436   8.126   7.154   4.619  0.7443 -1.4310 -1.3619
  468ccc     O613437   7.867   7.087   4.574  0.1497 -0.2211 -0.0063
  469ccc     C113438   6.718   7.450   4.659 -0.6151  0.6529  0.0175
  469ccc     C213439   6.767   7.356   4.773 -0.4965 -0.4713 -0.0557
  469ccc     H113440   6.675   7.379   4.588  0.8549 -1.1909  0.8930
  469ccc     H213441   6.689   7.288   4.810  2.4840 -3.5772  1.0452
  469ccc     C313442   6.880   7.255   4.727  0.0990 -0.6543  0.5358
  469ccc     C413443   6.989   7.330   4.648  0.3033  0.3001  0.2845
  469ccc     C513444   6.928   7.423   4.535 -0.4051  0.1992 -0.3914
  469ccc     H313445   7.052   7.385   4.719 -0.3086 -0.2859  1.3060
  469ccc     H413446   6.837   7.179   4.661  0.7567 -1.7061  1.2698
  469ccc     H513447   6.869   7.366   4.462  1.6974 -3.6227  0.5580
  469ccc     O113448   7.031   7.493   4.468  0.0560 -0.7342 -0.7139
  469ccc     O213449   7.075   7.237   4.583  0.2359  0.3982  0.8639
  469ccc     O313450   6.927   7.188   4.851 -0.4564  0.6132  0.0798
  469ccc     O413451   6.824   7.440   4.876  0.1158  0.4133 -0.0766
  469ccc     C613452   6.618   7.557   4.700  0.5301 -0.2724  0.0770
  469ccc     H613453   6.957   7.253   4.917  1.9540  0.3237 -0.6113
  469ccc     H713454   6.801   7.532   4.854  0.6414  1.4139  3.0411
  469ccc     H813455   7.154   7.244   4.638 -1.9852  1.8590  4.1735
  469ccc     H913456   6.536   7.501   4.746 -0.2939 -0.4035 -1.4845
  469ccc    H1013457   6.575   7.609   4.614 -0.7509 -1.2281  0.1115
  469ccc     O513458   6.673   7.644   4.808  0.2937 -0.0237  0.0066
  469ccc    H1113459   6.609   7.714   4.833 -0.2387 -1.0755  1.8634
  469ccc     O613460   6.833   7.511   4.602 -0.0660  0.1829 -0.3214
  470ccc     C113461   7.417   7.296   5.104 -0.1256 -0.3416  0.0227
  470ccc     C213462   7.426   7.152   5.054  0.8160  0.7744  0.4187
  470ccc     H113463   7.314   7.290   5.142  0.2612 -3.5883  0.8909
  470ccc     H213464   7.392   7.070   5.119  3.2906 -0.4443  0.2721
  470ccc     C313465   7.337   7.141   4.927  0.2404  0.0977  0.4264
  470ccc     C413466   7.372   7.250   4.822 -0.5213 -0.2804  0.0197
  470ccc     C513467   7.348   7.389   4.894  0.0550 -0.1619 -0.0727
  470ccc     H313468   7.481   7.244   4.811 -0.4398 -1.4112  1.0973
  470ccc     H413469   7.235   7.164   4.959  0.1519  2.1605 -1.0971
  470ccc     H513470   7.242   7.387   4.922 -0.5022  0.2506 -1.9877
  470ccc     O113471   7.381   7.505   4.808  0.4104  0.0884 -0.8575
  470ccc     O213472   7.299   7.219   4.702 -0.4033  0.5969  0.2137
  470ccc     O313473   7.337   7.007   4.869  0.3641  0.7033 -0.6266
  470ccc     O413474   7.559   7.125   5.025 -0.6395 -0.0533  0.5549
  470ccc     C613475   7.499   7.324   5.235  0.1594 -0.4805 -0.2864
  470ccc     H613476   7.247   7.001   4.834 -0.5631 -0.1750  1.6949
  470ccc     H713477   7.604   7.207   5.054  1.1723 -0.5478 -0.7036
  470ccc     H813478   7.367   7.159   4.667  0.2721  1.7565 -0.5059
  470ccc     H913479   7.491   7.236   5.300  1.3088  0.2320  0.8714
  470ccc    H1013480   7.478   7.416   5.292  1.9930  0.2177 -0.6732
  470ccc     O513481   7.638   7.326   5.194 -0.0960  0.2484  0.2391
  470ccc    H1113482   7.690   7.320   5.276 -0.1207 -2.3089  0.1566
  470ccc     O613483   7.442   7.403   5.002 -0.0304  0.4703 -0.4206
  471ccc     C113484   7.073   5.137   5.790 -0.1412  0.0190  1.2610
  471ccc     C213485   7.094   4.989   5.826 -0.6530 -0.8295  0.2046
  471ccc     H113486   6.979   5.177   5.832 -0.3987  0.6481  0.1301
  471ccc     H213487   7.066   4.970   5.930  0.2027 -0.2019  0.5533
  471ccc     C313488   6.991   4.907   5.750  0.3478 -0.0202  0.2261
  471ccc     C413489   6.997   4.923   5.595  0.0275  0.1804  0.0056
  471ccc     C513490   6.963   5.073   5.572 -0.1338 -0.1381  0.3561
  471ccc     H313491   7.100   4.909   5.563  0.0882 -0.9769  0.6821
  471ccc     H413492   6.892   4.934   5.787  1.1624  0.9168  1.8555
  471ccc     H513493   6.861   5.084   5.610 -0.2050  1.8143 -0.3306
  471ccc     O113494   6.969   5.121   5.437 -0.5771 -0.2092 -0.1561
  471ccc     O213495   6.897   4.843   5.526 -0.5927 -0.0201  0.2674
  471ccc     O313496   7.016   4.764   5.777  0.1875  0.0503 -0.8046
  471ccc     O413497   7.233   4.960   5.800  0.1050  0.3981  0.3406
  471ccc     C613498   7.187   5.229   5.844 -0.3900 -0.7899  0.0716
  471ccc     H613499   7.095   4.724   5.737  0.7883 -0.1894  0.5581
  471ccc     H713500   7.252   4.880   5.852  1.0277  1.1497  1.2156
  471ccc     H813501   6.901   4.764   5.582 -2.0339  0.2719  0.8449
  471ccc     H913502   7.211   5.217   5.950 -1.4286  0.7473  0.5238
  471ccc    H1013503   7.166   5.334   5.823 -1.4323 -1.6505 -3.9469
  471ccc     O513504   7.303   5.194   5.771  0.1292 -0.0480  0.3277
  471ccc    H1113505   7.301   5.098   5.780 -0.2274 -0.0982 -0.2676
  471ccc     O613506   7.064   5.153   5.644  0.3649 -0.2332  0.1539
  472ccc     C113507   7.348   4.622   5.451 -0.1032 -0.5990  0.0237
  472ccc     C213508   7.457   4.717   5.483 -0.4792  0.0067  0.2670
  472ccc     H113509   7.379   4.537   5.390 -1.9904 -2.0052  0.9257
  472ccc     H213510   7.539   4.663   5.532 -0.2374  0.7799  0.7342
  472ccc     C313511   7.524   4.771   5.358  0.1753 -0.6249 -0.0273
  472ccc     C413512   7.422   4.848   5.272 -0.7024  1.3599 -0.0867
  472ccc     C513513   7.288   4.762   5.256 -0.2507  0.5178  0.0602
  472ccc     H313514   7.402   4.935   5.335 -1.8767 -1.8328  4.4213
  472ccc     H413515   7.563   4.683   5.305 -1.9932 -0.8503 -1.3851
  472ccc     H513516   7.306   4.685   5.181 -0.6015 -0.0603  0.5620
  472ccc     O113517   7.187   4.860   5.210  0.2767 -0.0362 -0.0724
  472ccc     O213518   7.474   4.880   5.141 -0.4483  0.1019  0.2302
  472ccc     O313519   7.631   4.854   5.415 -0.2515 -0.7645 -0.1242
  472ccc     O413520   7.405   4.825   5.551  0.4871  0.1268 -0.5323
  472ccc     C613521   7.281   4.567   5.578 -0.2059  0.3442 -0.3283
  472ccc     H613522   7.689   4.870   5.339 -0.2419  0.6736  0.1432
  472ccc     H713523   7.480   4.881   5.574 -0.7031  2.3834 -1.7847
  472ccc     H813524   7.472   4.797   5.091 -1.3020  0.3056 -0.0914
  472ccc     H913525   7.366   4.526   5.634 -0.1944  0.7321 -0.0599
  472ccc    H1013526   7.211   4.486   5.551 -0.5235  0.5398 -0.1084
  472ccc     O513527   7.221   4.667   5.661 -0.7422 -0.3259  0.4910
  472ccc    H1113528   7.275   4.740   5.627 -1.2112 -0.7499 -1.2928
  472ccc     O613529   7.241   4.696   5.375  0.5596 -0.5569 -0.0711
  473ccc     C113530   6.072   4.265   4.610  0.1059 -0.5343 -0.0072
  473ccc     C213531   5.932   4.194   4.591 -0.1128  0.0407  0.8855
  473ccc     H113532   6.038   4.363   4.646  0.9944 -0.7570  1.4691
  473ccc     H213533   5.879   4.183   4.686 -0.0936 -1.3122  0.7568
  473ccc     C313534   5.837   4.271   4.493 -0.0485 -0.1755  0.8053
  473ccc     C413535   5.917   4.300   4.362  0.2523 -0.3913  0.3887
  473ccc     C513536   6.070   4.354   4.378  0.3854 -0.1256 -0.4295
  473ccc     H313537   5.929   4.206   4.307 -1.4307  0.6894 -2.0022
  473ccc     H413538   5.809   4.372   4.525  0.9668  0.0337  1.0620
  473ccc     H513539   6.075   4.462   4.396  2.2535  0.0919 -2.0183
  473ccc     O113540   6.141   4.324   4.257 -0.4880 -0.2866  0.4367
  473ccc     O213541   5.850   4.399   4.270 -0.1046  0.4981 -0.4988
  473ccc     O313542   5.719   4.193   4.471  0.2256 -0.0843  0.0186
  473ccc     O413543   5.953   4.061   4.541  0.0787  0.2479 -0.1095
  473ccc     C613544   6.164   4.192   4.706 -1.0120  0.5317  0.0863
  473ccc     H613545   5.650   4.262   4.472  1.8548  1.6549 -0.6722
  473ccc     H713546   5.860   4.056   4.511  0.7603 -1.1191 -2.2179
  473ccc     H813547   5.757   4.376   4.257 -1.1466  2.3232  2.6374
  473ccc     H913548   6.215   4.110   4.653 -0.9818  0.6753 -0.1100
  473ccc    H1013549   6.100   4.146   4.782  1.6776 -1.9664  1.0570
  473ccc     O513550   6.257   4.280   4.765  0.0518  0.3000  0.5532
  473ccc    H1113551   6.227   4.280   4.858 -3.0042  1.5806 -0.2941
  473ccc     O613552   6.135   4.280   4.484  0.0907 -0.3002  0.1569
  474ccc     C113553   6.283   3.594   3.716 -0.2880 -0.7664  0.5421
  474ccc     C213554   6.236   3.637   3.574  0.1608 -0.1790 -0.5997
  474ccc     H113555   6.192   3.559   3.766 -2.7543  0.4460 -2.6962
  474ccc     H213556   6.172   3.556   3.537 -1.2803  0.6724 -0.0653
  474ccc     C313557   6.146   3.766   3.587 -0.6019  0.2840 -0.2264
  474ccc     C413558   6.232   3.880   3.652  0.3095 -0.0317  0.8304
  474ccc     C513559   6.278   3.833   3.792 -0.2842 -0.4361 -0.0158
  474ccc     H313560   6.322   3.905   3.596  0.4506  1.3853  1.6614
  474ccc     H413561   6.065   3.736   3.654  0.8818 -1.1283  1.0073
  474ccc     H513562   6.186   3.820   3.851 -0.0320 -0.0511  0.4617
  474ccc     O113563   6.355   3.937   3.861 -0.4094  0.8718 -0.2314
  474ccc     O213564   6.144   3.992   3.659 -0.5674  0.5109 -0.2599
  474ccc     O313565   6.099   3.795   3.458  0.1799  0.2397 -0.0896
  474ccc     O413566   6.353   3.664   3.500 -0.5406  0.1642  0.5725
  474ccc     C613567   6.373   3.468   3.726 -0.4816 -0.1629 -0.1122
  474ccc     H613568   6.044   3.717   3.437  0.4145  0.2211 -0.6500
  474ccc     H713569   6.316   3.687   3.413  1.6629  2.9165  0.2274
  474ccc     H813570   6.163   4.052   3.584 -0.0865  0.4229 -0.2123
  474ccc     H913571   6.471   3.499   3.687  0.1490 -0.9484  0.7921
  474ccc    H1013572   6.342   3.392   3.654 -0.3705  2.5669 -3.3121
  474ccc     O513573   6.373   3.427   3.865 -0.0626  0.1720  0.4553
  474ccc    H1113574   6.365   3.330   3.873 -0.0703  0.2600  1.8661
  474ccc     O613575   6.349   3.706   3.777 -0.1101  0.2866  0.4020
  475ccc     C113576   8.433   4.967   4.545  0.1944 -0.2507 -0.5588
  475ccc     C213577   8.497   5.063   4.646  0.4558  0.6105 -0.1479
  475ccc     H113578   8.453   5.001   4.443  1.2866 -0.4421 -0.4266
  475ccc     H213579   8.605   5.077   4.636  0.9851  0.2822  3.6993
  475ccc     C313580   8.426   5.207   4.633 -0.1051  0.4008 -0.7037
  475ccc     C413581   8.271   5.198   4.639 -0.2301  0.1863 -0.0779
  475ccc     C513582   8.228   5.081   4.541 -0.1390 -0.3344  0.1005
  475ccc     H313583   8.219   5.172   4.732  0.4295 -0.0863  0.2145
  475ccc     H413584   8.471   5.252   4.544 -0.1678 -0.8018 -1.3699
  475ccc     H513585   8.247   5.114   4.438 -0.7007  2.8688  0.9152
  475ccc     O113586   8.086   5.049   4.530  0.3327 -0.9248 -0.3050
  475ccc     O213587   8.237   5.335   4.601 -0.2365  0.2079  0.8808
  475ccc     O313588   8.469   5.287   4.738  0.1963 -0.8759 -0.0096
  475ccc     O413589   8.472   5.017   4.781 -0.0232 -0.4746 -0.9286
  475ccc     C613590   8.494   4.822   4.564  0.0446 -0.0128  0.2343
  475ccc     H613591   8.556   5.317   4.708  1.4594 -3.3344  0.8533
  475ccc     H713592   8.536   5.058   4.841 -0.9399 -1.9964  1.2341
  475ccc     H813593   8.255   5.378   4.686  0.4203 -0.0806  0.8959
  475ccc     H913594   8.428   4.764   4.631  0.0120  1.0898  1.1862
  475ccc    H1013595   8.600   4.826   4.593  0.4475 -0.9641 -1.0171
  475ccc     O513596   8.484   4.747   4.438 -0.1066 -0.3352 -0.2813
  475ccc    H1113597   8.391   4.746   4.412 -0.1162  2.4445 -0.6668
  475ccc     O613598   8.295   4.959   4.564  1.1583  0.0878 -0.3753
  476ccc     C113599   7.531   4.466   4.877 -0.1672 -0.4392  0.7419
  476ccc     C213600   7.586   4.541   4.999  0.2164  0.2271  0.0304
  476ccc     H113601   7.586   4.375   4.849 -0.4593 -0.0660 -1.1526
  476ccc     H213602   7.579   4.472   5.083 -4.3098  0.1076 -0.2089
  476ccc     C313603   7.738   4.565   4.977 -0.1216 -0.5221  0.4111
  476ccc     C413604   7.754   4.647   4.844 -0.1340  0.3526 -0.1501
  476ccc     C513605   7.688   4.575   4.724 -0.1080  0.1297  0.3349
  476ccc     H313606   7.709   4.747   4.842  3.4915  2.1323 -0.4689
  476ccc     H413607   7.790   4.471   4.956  2.2755  0.6275  0.8855
  476ccc     H513608   7.739   4.480   4.709 -0.1057  0.2902 -0.7998
  476ccc     O113609   7.702   4.655   4.598  0.5088  0.6391 -0.0881
  476ccc     O213610   7.897   4.669   4.826 -0.5157  0.5282  0.0993
  476ccc     O313611   7.808   4.637   5.079 -0.6329 -0.4272 -0.2352
  476ccc     O413612   7.501   4.652   5.017  0.0902 -0.1253 -0.1609
  476ccc     C613613   7.376   4.430   4.881  0.3254  0.1103  0.3421
  476ccc     H613614   7.799   4.592   5.165 -1.6792 -0.4680 -0.3584
  476ccc     H713615   7.422   4.638   4.962 -1.6326  2.2187  1.5311
  476ccc     H813616   7.930   4.708   4.909  0.0088  1.1826 -0.4094
  476ccc     H913617   7.355   4.366   4.968 -1.1460 -0.4726 -0.3946
  476ccc    H1013618   7.354   4.363   4.796  2.3214 -2.2531  1.5600
  476ccc     O513619   7.292   4.553   4.887 -0.2542  0.6786 -0.0068
  476ccc    H1113620   7.212   4.513   4.851  0.4527 -1.6130  0.7913
  476ccc     O613621   7.552   4.558   4.761  0.0553  0.4284 -0.5234
  477ccc     C113622   8.485   5.752   4.800  0.1116  1.0548  0.4259
  477ccc     C213623   8.500   5.875   4.882  0.5890 -0.3562 -0.1635
  477ccc     H113624   8.549   5.768   4.712 -1.0973  0.6416 -0.5733
  477ccc     H213625   8.605   5.881   4.916  0.6301  0.2227 -0.3869
  477ccc     C313626   8.464   6.011   4.812  0.2817 -0.0174 -0.2459
  477ccc     C413627   8.325   5.998   4.750 -0.0490  0.4014 -0.4842
  477ccc     C513628   8.319   5.865   4.667 -0.4973  0.2028 -0.4117
  477ccc     H313629   8.247   5.987   4.826  0.4254 -0.0272 -0.0487
  477ccc     H413630   8.531   6.016   4.725  1.7025  1.5062  0.8684
  477ccc     H513631   8.392   5.860   4.585  0.6356 -1.2621  0.6334
  477ccc     O113632   8.185   5.841   4.611 -0.2670 -0.1930 -0.1906
  477ccc     O213633   8.299   6.121   4.671  0.7264  0.4889 -0.2490
  477ccc     O313634   8.479   6.128   4.897 -0.4681 -0.1421 -0.1489
  477ccc     O413635   8.415   5.860   4.994  0.0922 -0.1311 -0.1169
  477ccc     C613636   8.535   5.615   4.848  0.1139 -0.2506  0.5242
  477ccc     H613637   8.418   6.108   4.970 -1.3370  0.2689 -0.7445
  477ccc     H713638   8.403   5.764   4.989 -0.3916 -0.0255 -1.1560
  477ccc     H813639   8.349   6.194   4.713  2.6655  0.4200 -2.2524
  477ccc     H913640   8.644   5.615   4.857  0.2271  0.9123 -0.5035
  477ccc    H1013641   8.514   5.538   4.772 -0.8868  0.5527 -0.0444
  477ccc     O513642   8.461   5.585   4.967 -0.2645 -0.1070  0.0339
  477ccc    H1113643   8.517   5.517   5.010 -0.2877 -1.4475 -1.9348
  477ccc     O613644   8.347   5.752   4.755  0.1066  0.2173  0.0143
  478ccc     C113645   8.100   5.050   5.090  0.0911 -0.5449 -0.0508
  478ccc     C213646   8.021   4.927   5.121 -0.1401  0.1118 -0.0774
  478ccc     H113647   8.093   5.102   5.186 -0.8897 -1.4464  0.3843
  478ccc     H213648   8.070   4.888   5.212 -0.1566  1.0933  0.3608
  478ccc     C313649   7.874   4.960   5.149  0.1545 -0.1650 -0.4245
  478ccc     C413650   7.807   5.029   5.020 -0.0977  1.0826 -0.0190
  478ccc     C513651   7.887   5.156   4.991  0.5834  0.0173  0.4921
  478ccc     H313652   7.813   4.966   4.930 -1.1003 -0.0585  0.6995
  478ccc     H413653   7.885   5.038   5.225 -2.6744  1.3576 -1.4579
  478ccc     H513654   7.854   5.233   5.063 -0.5160  1.7272 -1.7225
  478ccc     O113655   7.867   5.214   4.857  0.2652 -0.2749  0.2571
  478ccc     O213656   7.669   5.060   5.047 -0.1943  0.2109 -0.0864
  478ccc     O313657   7.794   4.861   5.218 -0.8903 -0.6482 -0.2464
  478ccc     O413658   8.036   4.832   5.012 -0.3489 -0.5707 -0.2821
  478ccc     C613659   8.244   5.021   5.053  0.1400  0.1977  0.2968
  478ccc     H613660   7.811   4.784   5.162  0.2818 -0.7237  0.1966
  478ccc     H713661   8.111   4.869   4.963  0.0358 -0.1937  0.5789
  478ccc     H813662   7.638   4.981   5.094 -1.1732  0.1005 -0.8720
  478ccc     H913663   8.294   4.959   5.128  0.2534  0.0078  0.0657
  478ccc    H1013664   8.305   5.112   5.039  1.7573 -0.8400  0.4035
  478ccc     O513665   8.244   4.942   4.934 -0.1995 -0.4914 -0.0090
  478ccc    H1113666   8.327   4.960   4.888 -0.8089 -0.8722 -1.3110
  478ccc     O613667   8.032   5.127   4.994  0.6559 -0.0513  0.2883
  479ccc     C113668   6.013   3.399   0.219  0.3774  0.5553 -0.3609
  479ccc     C213669   5.946   3.270   0.175 -0.4227  0.2504 -0.3397
  479ccc     H113670   6.080   3.376   0.303  0.8453 -1.2297 -1.1834
  479ccc     H213671   6.012   3.184   0.157 -1.6878 -0.9882  0.6116
  479ccc     C313672   5.849   3.228   0.297 -0.1182 -0.7467  0.1100
  479ccc     C413673   5.752   3.345   0.345  0.4061 -0.2993  0.1296
  479ccc     C513674   5.837   3.469   0.373 -0.2656 -0.0856 -0.5900
  479ccc     H313675   5.681   3.369   0.265 -0.4005  1.5957  1.3605
  479ccc     H413676   5.905   3.191   0.383 -1.3884  1.0850  1.8368
  479ccc     H513677   5.895   3.451   0.464 -0.4922  0.4287 -0.3365
  479ccc     O113678   5.748   3.581   0.396  0.3230 -0.1236  0.2742
  479ccc     O213679   5.663   3.309   0.455 -0.3340  0.5040 -0.3504
  479ccc     O313680   5.770   3.118   0.260  0.2713 -0.0202  0.3473
  479ccc     O413681   5.867   3.296   0.057 -0.3454 -0.6482  0.2367
  479ccc     C613682   6.102   3.465   0.107 -0.5376 -0.6866 -0.8193
  479ccc     H613683   5.832   3.043   0.263  0.8300  0.4099 -0.3577
  479ccc     H713684   5.926   3.365   0.024  1.2409 -0.9982  2.1353
  479ccc     H813685   5.573   3.332   0.426 -0.4161  3.5715  1.9044
  479ccc     H913686   6.174   3.393   0.066 -0.1227 -2.2318  2.2740
  479ccc    H1013687   6.156   3.548   0.152  1.4254 -2.6204  0.6195
  479ccc     O513688   6.007   3.510   0.015 -0.6412 -0.1559 -0.3078
  479ccc    H1113689   6.069   3.568  -0.032 -0.0080  1.0292  1.8805
  479ccc     O613690   5.916   3.498   0.259 -0.4575  0.0731 -0.2352
  480ccc     C113691   5.039   3.953   0.825  0.3031 -0.3193  0.0558
  480ccc     C213692   4.974   4.083   0.876 -0.9709 -0.0513  0.3845
  480ccc     H113693   4.985   3.866   0.863 -2.3385  0.2396 -2.0874
  480ccc     H213694   4.868   4.082   0.849 -0.7979 -1.8858 -0.3588
  480ccc     C313695   4.993   4.097   1.028 -0.1455 -0.1386 -0.0382
  480ccc     C413696   5.137   4.079   1.074 -0.2076  0.2392  0.2511
  480ccc     C513697   5.201   3.950   1.009  0.7086 -0.5032  0.3993
  480ccc     H313698   5.200   4.165   1.047 -0.4373 -0.5854 -3.4849
  480ccc     H413699   4.943   4.018   1.085 -1.0405  1.5732  1.6889
  480ccc     H513700   5.145   3.866   1.054  0.7679 -0.6955  0.1206
  480ccc     O113701   5.341   3.949   1.037  0.1169 -0.7723 -0.0823
  480ccc     O213702   5.131   4.075   1.217 -0.0271  0.4198  0.7751
  480ccc     O313703   4.935   4.220   1.072  0.0031  0.2296  0.2788
  480ccc     O413704   5.038   4.190   0.803  0.5521  0.2643 -0.3996
  480ccc     C613705   5.044   3.951   0.674  0.4662 -0.0303  0.1860
  480ccc     H613706   4.841   4.209   1.048 -0.0581  3.1230 -1.3438
  480ccc     H713707   5.001   4.274   0.833 -0.4716 -0.6154  0.8797
  480ccc     H813708   5.083   4.152   1.252 -0.5379 -0.1028  1.2464
  480ccc     H913709   5.107   4.034   0.639  0.7573 -0.3683 -0.0997
  480ccc    H1013710   4.941   3.967   0.640  1.4922  3.6156 -1.8786
  480ccc     O513711   5.085   3.825   0.627  0.0590  0.5116  0.2163
  480ccc    H1113712   5.125   3.835   0.539  1.5803 -0.0596  0.8074
  480ccc     O613713   5.172   3.944   0.866 -0.0665  0.3217  0.1293
  481ccc     C113714   6.016   4.220   0.094 -0.2803 -0.0962  0.1856
  481ccc     C213715   6.040   4.362   0.028 -0.6096  0.1788  0.0262
  481ccc     H113716   6.113   4.171   0.104  0.4236  1.4333  1.1331
  481ccc     H213717   6.112   4.418   0.090  0.9685  0.5687 -2.0362
  481ccc     C313718   6.108   4.339  -0.104 -0.3005 -0.8378  0.4760
  481ccc     C413719   6.021   4.250  -0.191 -0.3590  0.5374  1.0604
  481ccc     C513720   5.986   4.110  -0.129 -0.6091 -0.1684  0.0873
  481ccc     H313721   5.922   4.296  -0.202 -0.1879  0.6811 -0.0350
  481ccc     H413722   6.193   4.272  -0.088  0.1413 -0.2000  0.8546
  481ccc     H513723   6.068   4.037  -0.125 -1.8137 -1.5446  0.9990
  481ccc     O113724   5.887   4.051  -0.216  0.0529  0.0928  0.2545
  481ccc     O213725   6.089   4.234  -0.320 -0.5041  0.1321 -0.0508
  481ccc     O313726   6.136   4.466  -0.168  0.1312 -0.0473  0.6143
  481ccc     O413727   5.918   4.421   0.010  0.4225 -0.5265 -0.1497
  481ccc     C613728   5.941   4.239   0.226 -0.3713 -0.7685 -0.4092
  481ccc     H613729   6.206   4.452  -0.234 -0.2310  0.1333  0.1940
  481ccc     H713730   5.926   4.512  -0.023 -1.3063 -0.4912 -0.6056
  481ccc     H813731   6.062   4.315  -0.367  3.4746  1.4458 -0.5182
  481ccc     H913732   5.844   4.290   0.218 -0.9366 -1.1888  2.4781
  481ccc    H1013733   6.011   4.304   0.280 -0.8029 -0.3115 -0.3905
  481ccc     O513734   5.929   4.111   0.293 -0.7681 -0.1538  0.3900
  481ccc    H1113735   5.914   4.053   0.217  0.6580 -0.1406  0.0740
  481ccc     O613736   5.934   4.141   0.001 -0.7737  0.6404  0.0377
  482ccc     C113737   5.339   3.157  -0.111 -0.1392 -0.2549  0.3268
  482ccc     C213738   5.474   3.099  -0.078 -0.5605 -0.8019 -0.2581
  482ccc     H113739   5.295   3.105  -0.197  0.1252 -0.0584  0.0693
  482ccc     H213740   5.454   2.994  -0.051 -1.3070 -0.4687  0.5307
  482ccc     C313741   5.579   3.122  -0.190  0.0905 -0.2935 -0.3682
  482ccc     C413742   5.587   3.270  -0.233  0.3128 -0.0237 -0.4386
  482ccc     C513743   5.450   3.336  -0.254 -0.0292  0.7679 -0.1046
  482ccc     H313744   5.632   3.322  -0.147  1.3470 -1.8860  0.2050
  482ccc     H413745   5.542   3.057  -0.270  2.5493  1.2287 -2.8868
  482ccc     H513746   5.399   3.315  -0.349 -1.8232 -1.1212  1.1755
  482ccc     O113747   5.464   3.481  -0.243  0.0086 -0.3221  0.0834
  482ccc     O213748   5.657   3.275  -0.358 -0.6614 -0.5445 -0.4613
  482ccc     O313749   5.710   3.094  -0.142  0.5480  0.4313  0.0203
  482ccc     O413750   5.525   3.171   0.038 -0.5249 -0.1937  0.3290
  482ccc     C613751   5.235   3.149   0.003  0.0285 -0.6837  0.2034
  482ccc     H613752   5.750   3.047  -0.217  2.6719  1.8005  0.2364
  482ccc     H713753   5.441   3.180   0.086 -1.6626 -0.4914 -1.5433
  482ccc     H813754   5.747   3.255  -0.327 -1.0803 -1.1597  0.4106
  482ccc     H913755   5.206   3.045   0.023  1.3804 -0.7197  2.3353
  482ccc    H1013756   5.142   3.201  -0.024 -0.0066 -0.2937  1.0351
  482ccc     O513757   5.285   3.198   0.134  0.8287 -0.0989 -0.5892
  482ccc    H1113758   5.213   3.187   0.199  0.7914 -0.1814 -0.6439
  482ccc     O613759   5.358   3.300  -0.148  0.8292  0.0627 -0.1361
  483ccc     C113760   5.778   5.973  -0.015  0.2724  0.1821  0.0510
  483ccc     C213761   5.688   6.065  -0.104 -0.3446 -0.5862 -0.0476
  483ccc     H113762   5.848   5.926  -0.084 -0.0797 -0.1950 -0.0510
  483ccc     H213763   5.756   6.138  -0.149 -0.1900 -1.2295 -0.8604
  483ccc     C313764   5.618   5.981  -0.211  0.1048 -0.7494 -0.0090
  483ccc     C413765   5.541   5.863  -0.148  0.3999  0.0066 -0.0819
  483ccc     C513766   5.643   5.782  -0.062  0.4576  0.5885 -1.0055
  483ccc     H313767   5.464   5.910  -0.086 -1.0662 -3.4279  0.9789
  483ccc     H413768   5.697   5.924  -0.261  1.6924  0.6706  0.7515
  483ccc     H513769   5.718   5.734  -0.126 -0.8839 -3.4354  0.1745
  483ccc     O113770   5.570   5.668   0.003 -0.0039 -0.1730  0.6598
  483ccc     O213771   5.480   5.773  -0.246 -0.5028 -0.3673  0.7970
  483ccc     O313772   5.528   6.052  -0.305 -0.8870  0.0401 -0.5626
  483ccc     O413773   5.589   6.131  -0.027  0.9580 -0.1750 -0.3284
  483ccc     C613774   5.868   6.029   0.096  0.3126 -0.4400 -0.4054
  483ccc     H613775   5.514   5.984  -0.373  4.1726  0.1331 -2.1405
  483ccc     H713776   5.558   6.210  -0.074 -1.1696 -2.4415 -3.1502
  483ccc     H813777   5.395   5.813  -0.271  0.0652  0.8585  0.7745
  483ccc     H913778   5.813   6.058   0.186  0.2854 -1.3369 -0.1216
  483ccc    H1013779   5.917   6.119   0.057 -1.8676  2.1051  2.2764
  483ccc     O513780   5.962   5.925   0.123 -0.2439  0.7535  0.1529
  483ccc    H1113781   5.921   5.856   0.178 -0.8573  2.3179  1.7954
  483ccc     O613782   5.694   5.867   0.040 -0.0830  0.3435  0.4110
  484ccc     C113783   5.820   4.735  -0.500 -0.6361 -0.5534  0.3647
  484ccc     C213784   5.745   4.610  -0.438  0.5343  0.2752  0.1339
  484ccc     H113785   5.925   4.707  -0.508 -0.8575 -1.4611  0.6082
  484ccc     H213786   5.743   4.531  -0.513 -2.4424  1.4565 -1.1695
  484ccc     C313787   5.809   4.571  -0.297  0.1564 -0.7949  0.4569
  484ccc     C413788   5.802   4.694  -0.203  0.0485  0.0953 -0.0615
  484ccc     C513789   5.865   4.828  -0.271 -0.8871  0.9441  0.5356
  484ccc     H313790   5.694   4.713  -0.194 -0.0490 -1.0784  1.6677
  484ccc     H413791   5.915   4.547  -0.316 -0.2089 -2.0728 -0.0869
  484ccc     H513792   5.973   4.809  -0.275 -0.9939  0.3872  0.2456
  484ccc     O113793   5.845   4.937  -0.178 -0.4976 -0.5144  0.0557
  484ccc     O213794   5.864   4.666  -0.081  0.3668 -0.2697 -0.0061
  484ccc     O313795   5.742   4.453  -0.241 -0.6910 -0.5341  0.1170
  484ccc     O413796   5.603   4.653  -0.433 -0.4154 -0.3685 -0.1605
  484ccc     C613797   5.771   4.782  -0.639  0.0282  0.2947 -0.3445
  484ccc     H613798   5.794   4.456  -0.159  0.1719 -3.6593 -0.1852
  484ccc     H713799   5.569   4.592  -0.502  1.4309 -0.5438 -0.9645
  484ccc     H813800   5.817   4.724  -0.018 -1.3567 -1.5963  0.0094
  484ccc     H913801   5.692   4.858  -0.642 -2.1770 -1.6721  2.4450
  484ccc    H1013802   5.723   4.697  -0.690 -0.3081  0.8300 -0.9311
  484ccc     O513803   5.887   4.829  -0.713  0.1286  0.3673 -0.1070
  484ccc    H1113804   5.855   4.892  -0.780 -1.1498  1.5095  1.5294
  484ccc     O613805   5.804   4.848  -0.406 -1.0335 -0.4299 -0.0014
  485ccc     C113806   4.272   5.105  -0.939  0.1275  0.5291  0.4552
  485ccc     C213807   4.243   4.965  -1.001 -0.1233  0.3269 -0.3036
  485ccc     H113808   4.348   5.152  -1.003  0.0599  1.9293  1.3481
  485ccc     H213809   4.213   4.977  -1.105  0.4172 -0.5474 -0.5698
  485ccc     C313810   4.365   4.871  -0.992  0.1163 -0.4686  0.8424
  485ccc     C413811   4.423   4.870  -0.854  0.4644 -0.1526  0.2628
  485ccc     C513812   4.451   5.013  -0.795  0.1827 -0.3892  0.1490
  485ccc     H313813   4.347   4.827  -0.788 -0.5892 -2.0583 -2.0231
  485ccc     H413814   4.435   4.907  -1.069 -2.7376 -0.2042 -1.8335
  485ccc     H513815   4.530   5.065  -0.851 -1.1287  1.2767 -0.2185
  485ccc     O113816   4.487   5.000  -0.660 -0.4872 -0.2136  0.3696
  485ccc     O213817   4.552   4.802  -0.867 -0.2148  0.2521 -0.1395
  485ccc     O313818   4.332   4.735  -1.035  0.1699 -0.4789  0.3119
  485ccc     O413819   4.139   4.904  -0.927 -0.0610  0.0600 -0.2346
  485ccc     C613820   4.145   5.193  -0.931 -0.8644  0.0298  0.4529
  485ccc     H613821   4.307   4.751  -1.128  1.4717  0.6115  0.1185
  485ccc     H713822   4.138   4.812  -0.957  0.2280 -0.0909  0.2116
  485ccc     H813823   4.535   4.708  -0.885  1.8979  0.0093 -1.1514
  485ccc     H913824   4.074   5.160  -0.854  0.6617 -0.0097  1.9097
  485ccc    H1013825   4.105   5.177  -1.031  1.7088  0.8404 -0.8055
  485ccc     O513826   4.191   5.326  -0.905  0.5265 -0.0446  0.1858
  485ccc    H1113827   4.205   5.325  -0.809 -3.0467  0.1802  0.8621
  485ccc     O613828   4.329   5.089  -0.811 -0.5296  0.3891  0.4437
  486ccc     C113829   4.492   5.670  -0.918 -0.5780  0.3768 -0.0999
  486ccc     C213830   4.363   5.719  -0.850 -0.6118 -0.3549  0.1037
  486ccc     H113831   4.466   5.606  -1.003 -0.2392  0.8455 -0.5606
  486ccc     H213832   4.307   5.771  -0.929  0.4730  2.5272  1.0804
  486ccc     C313833   4.280   5.617  -0.771  0.3781  0.2049  1.0101
  486ccc     C413834   4.370   5.522  -0.684  0.1330 -0.2002  0.0918
  486ccc     C513835   4.485   5.469  -0.769 -0.1353 -0.1899  0.5303
  486ccc     H313836   4.417   5.583  -0.606 -1.0817  0.8615  0.0297
  486ccc     H413837   4.224   5.561  -0.847 -1.3183  0.1604  2.2386
  486ccc     H513838   4.442   5.409  -0.850 -0.4279 -1.9453  1.9330
  486ccc     O113839   4.571   5.384  -0.689 -0.2796  0.1867 -0.0221
  486ccc     O213840   4.299   5.407  -0.640 -0.4057 -0.6879 -0.2745
  486ccc     O313841   4.175   5.676  -0.691  0.6565  0.1608  0.3252
  486ccc     O413842   4.399   5.823  -0.763 -0.3217  0.3389  0.2361
  486ccc     C613843   4.596   5.776  -0.967  0.1193  0.0338  0.4755
  486ccc     H613844   4.106   5.711  -0.751 -1.0282 -1.7590  1.0587
  486ccc     H713845   4.318   5.872  -0.744 -0.4594 -0.3914  1.6476
  486ccc     H813846   4.254   5.446  -0.563 -1.5031 -1.0160 -0.7178
  486ccc     H913847   4.538   5.846  -1.029  0.5551  0.6067  0.7141
  486ccc    H1013848   4.671   5.733  -1.035 -1.4942  1.7730 -2.6594
  486ccc     O513849   4.657   5.844  -0.862  0.0206 -0.5143 -0.3505
  486ccc    H1113850   4.576   5.854  -0.809 -1.6127  0.9078 -2.9162
  486ccc     O613851   4.559   5.582  -0.821  0.3679  0.3174  0.1011
  487ccc     C113852   6.623   4.301  -0.503  0.4550  0.9813  0.0620
  487ccc     C213853   6.509   4.409  -0.484  0.0437 -0.5154  0.1798
  487ccc     H113854   6.572   4.222  -0.558  1.2845  1.2083 -1.0787
  487ccc     H213855   6.452   4.443  -0.571 -0.3006  1.0176  0.9827
  487ccc     C313856   6.394   4.331  -0.409  0.3445 -0.3326  0.0922
  487ccc     C413857   6.442   4.255  -0.281 -0.2929 -0.2372  0.0171
  487ccc     C513858   6.579   4.178  -0.301 -0.2606 -0.4493 -0.4555
  487ccc     H313859   6.453   4.331  -0.204 -1.3624  0.8626 -0.8690
  487ccc     H413860   6.352   4.253  -0.474 -0.2571  0.3830 -0.3998
  487ccc     H513861   6.554   4.081  -0.346  1.1050 -1.4992  0.9614
  487ccc     O113862   6.633   4.151  -0.166 -0.5962  0.1703 -0.1277
  487ccc     O213863   6.341   4.158  -0.249 -0.0622 -0.4869  0.3973
  487ccc     O313864   6.290   4.429  -0.377 -0.2690  0.2429 -0.0610
  487ccc     O413865   6.573   4.523  -0.415 -0.4576  0.2327  0.0976
  487ccc     C613866   6.741   4.337  -0.590 -0.0361 -0.0427 -0.3505
  487ccc     H613867   6.254   4.459  -0.462  0.9829  0.6430 -0.4784
  487ccc     H713868   6.512   4.597  -0.407 -1.8798 -1.0723  2.8734
  487ccc     H813869   6.255   4.195  -0.274 -1.9996 -3.6646  1.7706
  487ccc     H913870   6.703   4.359  -0.690 -2.0379 -0.1119  0.3574
  487ccc    H1013871   6.824   4.265  -0.599  0.6271  0.7914 -0.9935
  487ccc     O513872   6.796   4.453  -0.535 -0.5447 -0.1503 -0.2529
  487ccc    H1113873   6.725   4.496  -0.484  0.6870  2.6482 -0.6911
  487ccc     O613874   6.675   4.251  -0.383 -0.3821  0.1559 -0.3896
  488ccc     C113875   6.925   4.302   0.870 -0.9362 -0.3674  0.1526
  488ccc     C213876   6.812   4.253   0.959 -0.3211  0.2575 -0.6312
  488ccc     H113877   6.896   4.405   0.845 -0.2762 -0.3128 -0.4151
  488ccc     H213878   6.797   4.327   1.038  2.1670  0.5434 -0.3477
  488ccc     C313879   6.672   4.228   0.878  1.1346 -0.1104 -0.5865
  488ccc     C413880   6.698   4.167   0.737  0.9079  0.0848  0.0239
  488ccc     C513881   6.821   4.225   0.662  0.9406  0.1723 -0.2473
  488ccc     H313882   6.720   4.060   0.752  0.8323  0.3565  2.4472
  488ccc     H413883   6.624   4.326   0.866 -1.6445 -1.2201  0.6343
  488ccc     H513884   6.799   4.326   0.626  0.2859 -0.0187 -0.3908
  488ccc     O113885   6.854   4.148   0.539  0.1884 -0.4611 -0.2507
  488ccc     O213886   6.580   4.187   0.654 -0.2484 -0.6141 -0.1481
  488ccc     O313887   6.582   4.150   0.962 -0.3336  0.2724  0.3153
  488ccc     O413888   6.863   4.128   1.018  0.5977  0.0912 -0.4198
  488ccc     C613889   7.062   4.311   0.948 -0.2607 -0.1330  0.3640
  488ccc     H613890   6.564   4.219   1.028 -1.5094  1.6388 -1.3193
  488ccc     H713891   6.812   4.112   1.099  1.7432 -1.6231  0.0214
  488ccc     H813892   6.558   4.109   0.600 -0.6305 -1.3151  0.9879
  488ccc     H913893   7.117   4.218   0.924 -0.1683 -0.0622  0.3001
  488ccc    H1013894   7.054   4.329   1.056 -2.0926  1.2685  0.0243
  488ccc     O513895   7.144   4.415   0.896  0.1217 -0.0007 -0.0871
  488ccc    H1113896   7.206   4.374   0.833  1.4684  1.7045  0.0625
  488ccc     O613897   6.936   4.226   0.748 -0.0112 -0.2035  0.2857
  489ccc     C113898   6.945   3.219   1.873 -0.3162  0.3806  0.0061
  489ccc     C213899   7.038   3.120   1.797  0.3582 -1.0405  0.0392
  489ccc     H113900   6.933   3.187   1.977 -0.4042 -0.9450 -0.3946
  489ccc     H213901   7.141   3.125   1.834  0.5530 -0.6699 -0.5367
  489ccc     C313902   6.982   2.974   1.800 -0.2852  0.3336 -0.1097
  489ccc     C413903   6.833   2.965   1.760 -0.4281 -0.5487  0.0577
  489ccc     C513904   6.751   3.081   1.821 -0.4904 -0.2796 -0.0339
  489ccc     H313905   6.828   2.965   1.650  1.0279 -1.0055 -0.0376
  489ccc     H413906   6.983   2.938   1.903 -2.3821 -0.4640 -0.3179
  489ccc     H513907   6.711   3.058   1.921  1.0554  1.2302  1.0056
  489ccc     O113908   6.637   3.076   1.737 -0.7638 -0.2543  0.4848
  489ccc     O213909   6.797   2.833   1.810 -0.1987 -0.0558 -0.5609
  489ccc     O313910   7.062   2.885   1.718  0.6045 -0.1332 -0.4044
  489ccc     O413911   7.036   3.160   1.655 -0.7124  0.3429  0.3841
  489ccc     C613912   6.977   3.365   1.872  0.0240 -0.4928 -0.0979
  489ccc     H613913   6.991   2.826   1.687 -0.2170  1.2068 -1.1938
  489ccc     H713914   7.083   3.088   1.610  1.2443  0.8447  1.5000
  489ccc     H813915   6.758   2.791   1.731  1.2122 -0.7116 -0.9501
  489ccc     H913916   6.965   3.419   1.777  4.0776  0.0877 -0.4249
  489ccc    H1013917   7.083   3.383   1.893  0.1244  0.0879 -1.0893
  489ccc     O513918   6.909   3.435   1.974  0.3170 -0.2612 -0.2550
  489ccc    H1113919   6.960   3.517   1.984 -1.6830  1.6123 -3.6012
  489ccc     O613920   6.815   3.210   1.816  0.3513 -0.6811  0.0951
  490ccc     C113921   6.377   2.624   1.337  0.1890 -0.0486  0.2666
  490ccc     C213922   6.284   2.636   1.460  0.0181 -0.2359  0.2301
  490ccc     H113923   6.442   2.537   1.347 -0.9677 -0.9998 -0.2570
  490ccc     H213924   6.233   2.540   1.477 -0.4299 -0.2618 -1.1397
  490ccc     C313925   6.368   2.664   1.589 -0.4363  0.0143  0.3685
  490ccc     C413926   6.482   2.772   1.567 -0.0872  0.1283  0.1246
  490ccc     C513927   6.553   2.762   1.427  0.0108 -0.0380 -0.3812
  490ccc     H313928   6.442   2.874   1.575 -0.5941 -0.0130 -0.5102
  490ccc     H413929   6.420   2.570   1.611 -3.2470 -1.6360  0.4838
  490ccc     H513930   6.631   2.685   1.423 -0.0542 -0.1126 -0.2257
  490ccc     O113931   6.597   2.893   1.404 -0.2338 -0.3505 -0.3991
  490ccc     O213932   6.585   2.750   1.665  0.0968 -0.2515 -0.4528
  490ccc     O313933   6.292   2.682   1.715 -0.4672 -0.2197 -0.2594
  490ccc     O413934   6.186   2.739   1.437 -0.3688  0.0278 -0.4386
  490ccc     C613935   6.297   2.612   1.204 -0.0899 -0.2274  0.3395
  490ccc     H613936   6.223   2.743   1.685  0.3735  0.2222 -1.3264
  490ccc     H713937   6.177   2.740   1.340 -2.5406 -0.4667 -0.2821
  490ccc     H813938   6.541   2.773   1.748  0.3904 -0.0191 -0.3597
  490ccc     H913939   6.238   2.520   1.207 -1.3315  0.4878 -1.0932
  490ccc    H1013940   6.374   2.594   1.127  0.2353  0.6070  0.4592
  490ccc     O513941   6.220   2.725   1.175  0.5461  0.2362 -0.0086
  490ccc    H1113942   6.159   2.706   1.101  0.9378 -0.8038 -0.0808
  490ccc     O613943   6.458   2.739   1.325  0.3144  0.5113  0.1634
  491ccc     C113944   5.895   3.092   1.704 -0.7105  0.0829 -0.0302
  491ccc     C213945   5.865   3.072   1.555  0.3877 -0.4585  0.2988
  491ccc     H113946   5.801   3.111   1.756 -0.4324 -1.7767  1.2361
  491ccc     H213947   5.798   2.986   1.546  1.2647 -1.1252  0.0996
  491ccc     C313948   5.801   3.208   1.508 -0.0640  0.0008 -0.0988
  491ccc     C413949   5.895   3.330   1.534 -0.4591 -0.3455 -0.3749
  491ccc     C513950   5.950   3.332   1.679  0.8146 -0.1867 -0.2382
  491ccc     H313951   5.988   3.319   1.477 -0.0779 -1.1051  0.3717
  491ccc     H413952   5.706   3.234   1.556 -0.2091  2.8688 -1.7381
  491ccc     H513953   5.875   3.371   1.749  2.0871 -0.5107  1.3684
  491ccc     O113954   6.075   3.410   1.696 -0.4980 -0.5117  0.1282
  491ccc     O213955   5.830   3.457   1.506 -0.2997 -0.2232 -0.1446
  491ccc     O313956   5.773   3.204   1.373 -0.1833  0.8940  0.1124
  491ccc     O413957   5.977   3.039   1.481 -0.0643  0.2973  0.5431
  491ccc     C613958   5.936   2.955   1.763 -0.4930 -0.3383  0.1115
  491ccc     H613959   5.701   3.138   1.374  0.1996  0.4719  0.1477
  491ccc     H713960   5.963   3.036   1.384  0.5284 -0.0650  0.4609
  491ccc     H813961   5.782   3.439   1.423 -1.3744  0.6386  0.2529
  491ccc     H913962   5.870   2.872   1.737 -0.4915 -1.1503  2.5039
  491ccc    H1013963   5.939   2.968   1.872 -0.7504 -0.0615  0.0873
  491ccc     O513964   6.063   2.922   1.701  0.2226 -0.3489  0.2052
  491ccc    H1113965   6.053   2.971   1.618  2.1932  0.1799  0.2385
  491ccc     O613966   5.993   3.196   1.721 -0.1243 -0.2989 -0.0934
  492ccc     C113967   6.999   3.983   1.938  0.3080  0.2539  0.9085
  492ccc     C213968   7.047   4.096   1.844  0.2936  0.1535 -0.5553
  492ccc     H113969   7.051   3.887   1.923 -1.5592 -0.5580 -0.7308
  492ccc     H213970   7.157   4.104   1.841  0.3034  2.6667  1.9447
  492ccc     C313971   6.998   4.067   1.696 -0.1451  0.0355 -0.6424
  492ccc     C413972   6.846   4.042   1.690  0.4783  0.2968  0.1062
  492ccc     C513973   6.799   3.942   1.797  0.1863  0.7907 -0.3008
  492ccc     H313974   6.805   4.138   1.723  0.4788  0.4565 -0.3399
  492ccc     H413975   7.042   3.972   1.661 -2.7956 -2.1215  1.4358
  492ccc     H513976   6.835   3.839   1.784 -1.8057 -0.3382  2.2316
  492ccc     O113977   6.656   3.940   1.828 -0.2955 -0.1345 -0.1950
  492ccc     O213978   6.809   4.011   1.555 -0.5243  0.2787  0.7626
  492ccc     O313979   7.034   4.182   1.612  0.7595  0.0466  0.4966
  492ccc     O413980   7.009   4.228   1.879  0.2905  0.2957 -0.0049
  492ccc     C613981   7.025   4.008   2.085  0.0504 -0.3173 -0.6028
  492ccc     H613982   7.021   4.149   1.521 -0.6928  2.1563 -0.1513
  492ccc     H713983   7.017   4.272   1.792 -2.1053 -1.3766 -1.1910
  492ccc     H813984   6.712   4.010   1.546 -0.7490 -1.8929  2.4801
  492ccc     H913985   6.984   4.096   2.135  0.0361  0.2190 -1.5262
  492ccc    H1013986   7.134   4.007   2.100 -0.2863 -0.2488  2.3006
  492ccc     O513987   6.984   3.891   2.158 -0.0319 -0.4981  0.3535
  492ccc    H1113988   6.888   3.883   2.140 -0.3588 -2.0654  2.3847
  492ccc     O613989   6.856   3.979   1.924  0.2583  0.2190 -0.2658
  493ccc     C113990   5.323   4.006   2.593 -0.1495 -0.1334  0.1442
  493ccc     C213991   5.268   4.023   2.452 -0.0961 -0.1451  0.0158
  493ccc     H113992   5.336   4.109   2.629  1.4653 -1.3856  3.5490
  493ccc     H213993   5.177   4.085   2.459  0.4510  0.4802  2.2200
  493ccc     C313994   5.373   4.091   2.360  0.0590  0.0279  0.3390
  493ccc     C413995   5.524   4.039   2.371 -0.1267 -0.6657  0.0993
  493ccc     C513996   5.558   3.987   2.512 -0.3083 -0.9480 -0.8396
  493ccc     H313997   5.531   3.953   2.303  0.0447  0.4239 -1.3130
  493ccc     H413998   5.366   4.195   2.395 -0.5531 -0.3466  1.3828
  493ccc     H513999   5.585   4.084   2.556 -3.7594  0.5795 -1.7267
  493ccc     O114000   5.676   3.905   2.495 -0.3207 -0.2090  0.1237
  493ccc     O214001   5.614   4.145   2.327  0.0640 -0.0753  0.3220
  493ccc     O314002   5.332   4.093   2.224  0.2693 -0.1390 -0.2177
  493ccc     O414003   5.235   3.891   2.397  0.4876 -0.3285 -0.2922
  493ccc     C614004   5.235   3.927   2.691  0.2502 -0.1487  0.3128
  493ccc     H614005   5.349   4.184   2.195  0.0740 -0.2961 -0.8353
  493ccc     H714006   5.233   3.913   2.303 -1.2877  0.9764 -0.0119
  493ccc     H814007   5.677   4.110   2.261  1.1151 -0.0083  1.2639
  493ccc     H914008   5.142   3.984   2.693  1.6627  2.3482 -0.8080
  493ccc    H1014009   5.275   3.933   2.793 -0.6921  1.3302  0.6255
  493ccc     O514010   5.218   3.795   2.641 -0.3633 -0.4134  0.5893
  493ccc    H1114011   5.212   3.814   2.545 -1.2003  0.7552  0.8496
  493ccc     O614012   5.446   3.931   2.588 -0.2807 -0.2939 -0.2190
  494ccc     C114013   6.703   3.864   2.552 -0.2920 -0.2049  0.0593
  494ccc     C214014   6.704   3.709   2.561 -0.2715 -0.1626 -0.2935
  494ccc     H114015   6.754   3.905   2.640  1.3808 -0.3945 -0.7926
  494ccc     H214016   6.810   3.682   2.549 -0.1283 -0.3482  1.2687
  494ccc     C314017   6.651   3.661   2.698 -0.4118  0.4482 -0.0897
  494ccc     C414018   6.502   3.715   2.704  0.5985 -0.1544  0.4881
  494ccc     C514019   6.490   3.870   2.680  0.2137 -0.5828 -0.0177
  494ccc     H314020   6.452   3.664   2.621  0.2940  2.8069 -1.2663
  494ccc     H414021   6.709   3.712   2.776  1.6793 -1.5194 -0.2583
  494ccc     H514022   6.530   3.908   2.774 -0.1400 -2.1107  0.7864
  494ccc     O114023   6.351   3.902   2.651 -0.2289 -0.6950 -0.1171
  494ccc     O214024   6.438   3.670   2.831 -0.3415 -0.0198 -0.4320
  494ccc     O314025   6.663   3.517   2.697 -0.1114 -0.2662 -0.4864
  494ccc     O414026   6.636   3.664   2.447 -0.3784 -0.2272  0.7408
  494ccc     C614027   6.773   3.913   2.427  0.7095 -0.3084  0.7282
  494ccc     H614028   6.663   3.486   2.789  0.6735 -1.0142 -0.7259
  494ccc     H714029   6.613   3.571   2.465  0.3214 -0.3161  1.2185
  494ccc     H814030   6.450   3.575   2.817 -0.2490  0.3628 -3.7025
  494ccc     H914031   6.710   3.883   2.342 -0.5312  1.3456  0.9999
  494ccc    H1014032   6.874   3.876   2.408  1.2425  1.5253 -0.3024
  494ccc     O514033   6.781   4.058   2.426  0.5038 -0.3165 -0.1858
  494ccc    H1114034   6.722   4.083   2.352 -1.9320  2.0981  2.3108
  494ccc     O614035   6.564   3.902   2.558  0.4541  0.4512 -0.4523
  495ccc     C114036   2.865   4.885   1.667  0.4439  0.2913  0.3603
  495ccc     C214037   2.893   5.001   1.774  0.5344  0.4891 -0.0145
  495ccc     H114038   2.794   4.815   1.712 -0.3807  0.2210 -0.9945
  495ccc     H214039   2.800   5.050   1.807 -0.3049 -1.0153 -0.0824
  495ccc     C314040   2.966   4.948   1.896  0.3396  0.9745  0.0175
  495ccc     C414041   3.091   4.862   1.856 -0.4569 -0.5127 -0.3348
  495ccc     C514042   3.045   4.744   1.758  0.0335  0.6003  0.1071
  495ccc     H314043   3.165   4.925   1.806  0.6465 -1.8054 -0.3842
  495ccc     H414044   2.900   4.880   1.952  0.3630  1.9578  1.2868
  495ccc     H514045   2.972   4.683   1.812  0.6014 -0.2422 -0.0603
  495ccc     O114046   3.156   4.668   1.708  0.3798 -0.4359  0.0030
  495ccc     O214047   3.156   4.803   1.968 -0.1857 -0.2389  0.2391
  495ccc     O314048   3.012   5.058   1.976 -0.5582 -0.4904 -0.0543
  495ccc     O414049   2.973   5.098   1.703 -0.1374  0.6199 -0.0361
  495ccc     C614050   2.800   4.931   1.533  0.6913 -0.1025  0.4585
  495ccc     H614051   2.932   5.109   2.000  0.5264  1.0966  0.3830
  495ccc     H714052   2.971   5.184   1.748  0.6967  0.6849 -0.1131
  495ccc     H814053   3.232   4.859   1.993  0.7281 -0.8001 -1.1452
  495ccc     H914054   2.717   4.993   1.568  1.9955  2.1159 -0.1511
  495ccc    H1014055   2.763   4.844   1.477  2.6241 -0.2066 -0.7851
  495ccc     O514056   2.893   5.008   1.457  0.2099 -0.0172 -0.2384
  495ccc    H1114057   2.932   5.070   1.521  0.0091  2.5911 -2.4497
  495ccc     O614058   2.981   4.796   1.635  0.1662 -0.1227 -0.0169
  496ccc     C114059   3.362   3.705   1.745  0.1398 -0.7690 -0.9492
  496ccc     C214060   3.494   3.687   1.671 -0.0300 -0.3228 -0.4657
  496ccc     H114061   3.308   3.609   1.738  0.5055 -1.1839  1.2698
  496ccc     H214062   3.537   3.590   1.700 -3.6932 -1.9246  0.1518
  496ccc     C314063   3.469   3.662   1.518  0.2105 -0.2420 -0.4349
  496ccc     C414064   3.367   3.765   1.458 -0.6767 -0.1934 -0.1937
  496ccc     C514065   3.246   3.797   1.550  0.2099 -0.1617 -0.0295
  496ccc     H314066   3.415   3.864   1.468 -2.6879  0.6256  2.4883
  496ccc     H414067   3.414   3.568   1.505 -0.3033  0.1921 -1.5648
  496ccc     H514068   3.175   3.714   1.541  2.1026 -2.2163  2.3949
  496ccc     O114069   3.185   3.918   1.499 -0.5056 -0.1348 -0.5757
  496ccc     O214070   3.336   3.744   1.318 -0.1376 -0.2845  0.9911
  496ccc     O314071   3.594   3.676   1.435 -0.0511  0.3100 -0.3982
  496ccc     O414072   3.577   3.802   1.698 -0.3835 -0.0730  0.6458
  496ccc     C614073   3.383   3.733   1.898 -0.0029  0.5262  0.6513
  496ccc     H614074   3.572   3.637   1.349 -1.9719  1.4358 -0.4783
  496ccc     H714075   3.667   3.779   1.672  0.1091  0.9187  1.4135
  496ccc     H814076   3.406   3.683   1.288  0.3204  0.8218 -0.3406
  496ccc     H914077   3.414   3.838   1.897  1.6333  0.1778 -3.4839
  496ccc    H1014078   3.461   3.670   1.942 -0.3456 -0.6971 -0.4381
  496ccc     O514079   3.260   3.714   1.963  0.3977 -0.0166  0.3956
  496ccc    H1114080   3.282   3.723   2.057 -2.2972 -1.1906  1.2388
  496ccc     O614081   3.287   3.817   1.688  0.3277  0.5099 -0.4302
  497ccc     C114082   3.135   5.928   1.818 -0.2585 -0.1304 -0.1806
  497ccc     C214083   3.242   5.821   1.828 -0.2546 -0.3394  0.0599
  497ccc     H114084   3.109   5.963   1.918  3.2777 -2.2367  1.6523
  497ccc     H214085   3.324   5.869   1.884 -1.9353  0.0870  2.2816
  497ccc     C314086   3.193   5.697   1.896  0.5803  0.7879  0.4522
  497ccc     C414087   3.066   5.640   1.828 -0.0126 -0.3009 -0.7348
  497ccc     C514088   2.960   5.751   1.803 -0.3865 -0.0866 -0.7330
  497ccc     H314089   3.092   5.599   1.730  3.0568 -0.9438  0.2352
  497ccc     H414090   3.162   5.729   1.996 -0.0492 -1.2500  0.9525
  497ccc     H514091   2.912   5.783   1.896  0.1062 -1.6886  0.1155
  497ccc     O114092   2.859   5.696   1.714  0.4153 -0.5428  0.1791
  497ccc     O214093   3.012   5.534   1.913 -0.2782 -0.1741 -0.2828
  497ccc     O314094   3.289   5.591   1.902  0.3001  0.2882  0.7994
  497ccc     O414095   3.292   5.786   1.699 -0.3385  0.1937  0.0303
  497ccc     C614096   3.194   6.037   1.725  0.3455  0.5397 -0.2199
  497ccc     H614097   3.245   5.517   1.856 -0.8824  1.3322  0.1836
  497ccc     H714098   3.380   5.747   1.707  0.8881  2.2375 -2.0082
  497ccc     H814099   2.971   5.579   1.989  3.3236  0.0475  1.7600
  497ccc     H914100   3.200   6.007   1.620  0.6045  1.9221 -0.6319
  497ccc    H1014101   3.298   6.061   1.753  0.2562 -0.1887  0.7926
  497ccc     O514102   3.111   6.151   1.715 -0.2318  0.2735  0.3336
  497ccc    H1114103   3.126   6.188   1.626 -0.8612 -0.0335  0.0961
  497ccc     O614104   3.023   5.870   1.755  0.1031  0.2818  0.1237
  498ccc     C114105   2.601   5.875   0.715 -0.2261  0.0535 -0.1048
  498ccc     C214106   2.493   5.981   0.748 -0.5044  0.2887 -0.1669
  498ccc     H114107   2.537   5.790   0.687 -0.4176  0.7509 -1.9026
  498ccc     H214108   2.410   5.967   0.677  1.7275 -0.5103 -2.7989
  498ccc     C314109   2.443   5.976   0.896 -0.4739 -0.3447 -0.7737
  498ccc     C414110   2.555   5.934   1.006  0.1643  0.1644  0.5839
  498ccc     C514111   2.628   5.798   0.961 -0.1217  0.0650  0.2945
  498ccc     H314112   2.623   6.019   1.017 -1.3342  1.6689 -1.1426
  498ccc     H414113   2.363   5.901   0.906 -0.1691 -0.3618  3.2630
  498ccc     H514114   2.556   5.717   0.941 -0.7165  1.0297 -1.7816
  498ccc     O114115   2.729   5.771   1.052 -0.1347 -0.1195 -0.4418
  498ccc     O214116   2.480   5.913   1.125  0.2317 -0.7024 -0.5184
  498ccc     O314117   2.388   6.103   0.915  0.4776  0.1831 -0.1149
  498ccc     O414118   2.545   6.118   0.725 -0.1508 -0.2669  0.1531
  498ccc     C614119   2.686   5.911   0.594 -0.3205 -0.0414  0.1418
  498ccc     H614120   2.302   6.091   0.959  1.2235 -1.1852  1.0603
  498ccc     H714121   2.508   6.171   0.797 -1.7237 -0.2355 -0.6409
  498ccc     H814122   2.446   6.002   1.142 -1.9851 -1.1430 -2.1781
  498ccc     H914123   2.767   5.984   0.612  1.4100 -1.8379 -0.0442
  498ccc    H1014124   2.626   5.965   0.520 -0.0152 -0.2043 -0.2314
  498ccc     O514125   2.732   5.788   0.538 -0.6973 -0.1585  1.0145
  498ccc    H1114126   2.657   5.748   0.489  0.1162  0.8819 -1.2379
  498ccc     O614127   2.677   5.825   0.825 -0.2423  0.3710 -0.1001
  499ccc     C114128   4.485   3.199   1.674  0.8612  0.0289 -0.0731
  499ccc     C214129   4.547   3.082   1.758 -0.6878 -0.8435  0.1369
  499ccc     H114130   4.549   3.287   1.692  1.0691 -0.3419  1.1121
  499ccc     H214131   4.643   3.072   1.707 -0.9152 -0.6349 -0.3372
  499ccc     C314132   4.569   3.135   1.904 -1.0162  0.6624 -0.0906
  499ccc     C414133   4.436   3.199   1.966 -0.4301 -0.6902  0.3220
  499ccc     C514134   4.363   3.291   1.865  0.3325 -0.4079  0.5274
  499ccc     H314135   4.360   3.124   1.988 -0.6010 -0.8167 -0.6602
  499ccc     H414136   4.657   3.200   1.895 -0.1246 -0.3851  0.6877
  499ccc     H514137   4.406   3.392   1.870  1.0546 -0.7051  0.4081
  499ccc     O114138   4.220   3.311   1.915 -0.0791 -0.5883 -0.3596
  499ccc     O214139   4.465   3.274   2.082 -0.4356  0.0463  0.2313
  499ccc     O314140   4.615   3.018   1.977  0.5263 -0.2981 -0.0337
  499ccc     O414141   4.465   2.964   1.748  0.1280  0.2912 -0.1725
  499ccc     C614142   4.466   3.170   1.521 -0.2852 -0.7706 -0.3015
  499ccc     H614143   4.541   2.955   1.974 -0.5291  0.9088 -3.0994
  499ccc     H714144   4.436   2.980   1.656  0.8875  1.4762 -0.2333
  499ccc     H814145   4.511   3.214   2.145 -0.3979 -0.1787 -0.0081
  499ccc     H914146   4.550   3.200   1.458  1.2632 -1.5450  1.2865
  499ccc    H1014147   4.395   3.243   1.483  2.6035  1.8727 -1.0449
  499ccc     O514148   4.427   3.033   1.505 -0.1564  0.2514  0.0791
  499ccc    H1114149   4.404   3.029   1.410 -0.4548  1.0718  0.1096
  499ccc     O614150   4.365   3.239   1.728  0.9261 -0.4615  0.6842
  500ccc     C114151   4.616   3.992   2.198  0.3005  0.2391 -0.6850
  500ccc     C214152   4.596   4.057   2.059 -0.9322 -0.3627 -0.0390
  500ccc     H114153   4.669   3.899   2.178  0.2789 -0.1073  0.7072
  500ccc     H214154   4.694   4.081   2.015 -1.2939  0.2994 -0.4966
  500ccc     C314155   4.526   3.947   1.964  0.4891  0.4684 -0.2399
  500ccc     C414156   4.388   3.913   2.035 -0.1837 -0.7518  0.1399
  500ccc     C514157   4.396   3.867   2.177 -0.5912 -0.2946  0.4664
  500ccc     H314158   4.328   4.005   2.029  0.7355 -0.1797 -0.4336
  500ccc     H414159   4.586   3.855   1.961 -0.3398 -0.0495 -1.9314
  500ccc     H514160   4.434   3.765   2.168 -0.2610 -0.3748  2.4062
  500ccc     O114161   4.267   3.863   2.240  0.1406 -0.4526 -0.3745
  500ccc     O214162   4.332   3.809   1.956 -0.3531 -0.2944  0.1458
  500ccc     O314163   4.503   3.987   1.826  0.0475 -0.5045 -0.4883
  500ccc     O414164   4.510   4.169   2.065 -0.4760 -0.6428 -0.1317
  500ccc     C614165   4.696   4.081   2.288 -0.2709  0.3223  0.3643
  500ccc     H614166   4.577   4.043   1.796 -0.6413  1.0995  0.6928
  500ccc     H714167   4.509   4.196   2.158 -0.3095 -0.3529 -0.2091
  500ccc     H814168   4.369   3.836   1.870 -0.4586  0.7848  0.4252
  500ccc     H914169   4.785   4.121   2.238 -0.9580  1.8443  0.3090
  500ccc    H1014170   4.726   4.022   2.375 -0.9699 -0.2073  0.2620
  500ccc     O514171   4.611   4.182   2.323 -0.6500 -1.3236  0.2157
  500ccc    H1114172   4.604   4.189   2.420  0.6559 -0.1147  0.2442
  500ccc     O614173   4.490   3.956   2.254  0.5361 -0.0629  0.5815
  501ccc     C114174   3.381   5.311   2.247  0.1553 -0.4563 -0.8559
  501ccc     C214175   3.274   5.311   2.140 -0.2271 -0.4576  0.3965
  501ccc     H114176   3.486   5.326   2.216  0.8521 -1.3514  0.9343
  501ccc     H214177   3.279   5.406   2.085 -1.9823  0.9980  2.5457
  501ccc     C314178   3.307   5.196   2.042  0.1201  0.1616  0.6769
  501ccc     C414179   3.325   5.062   2.113 -0.0625  0.3331  0.3829
  501ccc     C514180   3.416   5.069   2.234 -0.3048 -0.1365 -0.7055
  501ccc     H314181   3.228   5.030   2.153 -0.4799  1.0986  0.0047
  501ccc     H414182   3.407   5.216   2.003 -0.3113 -0.5263 -0.8480
  501ccc     H514183   3.523   5.089   2.221  0.0660 -1.3986  0.1878
  501ccc     O114184   3.415   4.946   2.315  0.3626 -0.4583  0.2231
  501ccc     O214185   3.363   4.954   2.022  0.1353 -0.6638  0.5615
  501ccc     O314186   3.222   5.194   1.927 -0.2079  0.0350 -0.2517
  501ccc     O414187   3.140   5.293   2.196  0.0268  0.2458  0.0758
  501ccc     C614188   3.371   5.435   2.348  0.5175 -0.4025  0.3334
  501ccc     H614189   3.135   5.152   1.940 -0.6270  1.0613  0.3693
  501ccc     H714190   3.073   5.289   2.125 -0.1305  1.1668  0.1643
  501ccc     H814191   3.460   4.958   2.017  0.0990  0.9621  0.5922
  501ccc     H914192   3.414   5.518   2.290  1.8429 -1.0617  0.3352
  501ccc    H1014193   3.436   5.423   2.436  1.1642  1.1329  0.0945
  501ccc     O514194   3.237   5.445   2.391  0.4213 -0.0899  0.4819
  501ccc    H1114195   3.192   5.387   2.327  1.6056 -1.7214  1.0746
  501ccc     O614196   3.378   5.187   2.313 -0.0349  0.0210  0.3299
  502ccc     C114197   2.714   4.275   2.452  0.6934 -0.1890 -0.4264
  502ccc     C214198   2.673   4.187   2.576  0.6434  0.2007  0.0245
  502ccc     H114199   2.786   4.220   2.392 -0.8438  0.9060 -3.4864
  502ccc     H214200   2.655   4.088   2.532 -1.2124  0.3354  0.3753
  502ccc     C314201   2.788   4.170   2.677 -0.4319 -0.3718  0.0441
  502ccc     C414202   2.842   4.313   2.714 -0.2375  0.0167 -0.0611
  502ccc     C514203   2.876   4.397   2.586 -0.0817  0.1269 -0.2250
  502ccc     H314204   2.761   4.367   2.765  0.4352  1.9604 -0.9532
  502ccc     H414205   2.868   4.116   2.624 -0.0884  0.5122 -0.3490
  502ccc     H514206   2.959   4.344   2.538  0.8247 -0.2956  1.7253
  502ccc     O114207   2.918   4.528   2.617 -0.1672 -0.7925  0.1989
  502ccc     O214208   2.955   4.287   2.806  0.1961 -0.3103 -0.1874
  502ccc     O314209   2.749   4.091   2.790 -0.0633 -0.5498  0.2037
  502ccc     O414210   2.550   4.246   2.630  0.0602 -0.0697 -0.0768
  502ccc     C614211   2.623   4.299   2.336 -0.3163  0.2463  0.5304
  502ccc     H614212   2.837   4.061   2.818  0.1136 -1.9643 -1.6902
  502ccc     H714213   2.522   4.294   2.551  0.8474 -0.1506 -0.4140
  502ccc     H814214   2.922   4.285   2.897 -0.2369 -2.1258 -0.3637
  502ccc     H914215   2.624   4.210   2.272 -1.2685  0.8325 -0.3206
  502ccc    H1014216   2.676   4.380   2.286 -2.1661  0.8812 -0.5148
  502ccc     O514217   2.503   4.351   2.394  0.7072  0.1999  0.0252
  502ccc    H1114218   2.436   4.339   2.325  1.2507  2.7847 -1.0672
  502ccc     O614219   2.755   4.410   2.502 -0.5082  0.2012  0.3604
  503ccc     C114220   3.925   5.222  -0.293 -0.6376 -0.5571 -0.0638
  503ccc     C214221   3.877   5.284  -0.423  0.7616  0.2846  0.2488
  503ccc     H114222   3.898   5.117  -0.277  0.8244 -0.8138  0.8576
  503ccc     H214223   3.925   5.235  -0.508  0.1942  2.0058 -1.1183
  503ccc     C314224   3.718   5.268  -0.429  0.0112  0.2657 -0.4024
  503ccc     C414225   3.655   5.348  -0.308  0.0045 -0.0979  0.0242
  503ccc     C514226   3.717   5.289  -0.176  0.0795 -0.7223 -0.2493
  503ccc     H314227   3.669   5.457  -0.312 -0.6955 -0.0156 -0.4313
  503ccc     H414228   3.690   5.162  -0.424  3.3916 -0.7096  1.7627
  503ccc     H514229   3.677   5.189  -0.155 -1.7562  0.0772  0.2718
  503ccc     O114230   3.674   5.367  -0.066  0.3104 -0.4305 -0.1222
  503ccc     O214231   3.519   5.333  -0.316  0.6589 -0.4819 -0.1296
  503ccc     O314232   3.667   5.310  -0.559 -0.4502  0.4630  0.1125
  503ccc     O414233   3.917   5.419  -0.419 -0.2476 -0.0685 -0.0505
  503ccc     C614234   4.077   5.231  -0.277 -0.0234 -0.6450 -0.4018
  503ccc     H614235   3.707   5.248  -0.623  0.4425  0.7050  0.4219
  503ccc     H714236   3.899   5.453  -0.509  0.7042  0.7966  0.0669
  503ccc     H814237   3.484   5.391  -0.386  0.7606  0.3765  0.5131
  503ccc     H914238   4.110   5.322  -0.227 -3.0251  1.6431 -2.2685
  503ccc    H1014239   4.108   5.237  -0.383 -0.4396 -0.7909 -0.5342
  503ccc     O514240   4.123   5.111  -0.215  0.2202 -0.2094  0.0122
  503ccc    H1114241   4.097   5.033  -0.268  0.5114  0.0745 -0.5548
  503ccc     O614242   3.858   5.295  -0.185 -0.4290 -0.0901  0.3926
  504ccc     C114243   3.228   5.911   0.853 -0.3051 -0.5414 -0.0900
  504ccc     C214244   3.124   6.021   0.811  0.1418  0.5714  0.1827
  504ccc     H114245   3.328   5.953   0.869 -0.5426  0.2761 -0.7035
  504ccc     H214246   3.140   6.105   0.880  0.2553 -0.1445  1.0531
  504ccc     C314247   3.143   6.072   0.667  0.2336 -0.0481 -0.4036
  504ccc     C414248   3.142   5.956   0.567  0.2427 -0.0958 -0.1870
  504ccc     C514249   3.253   5.855   0.618  0.0596 -0.3417 -0.0168
  504ccc     H314250   3.046   5.903   0.560 -1.0304  2.3007 -2.3625
  504ccc     H414251   3.239   6.125   0.673 -0.8740  1.9664  1.9776
  504ccc     H514252   3.344   5.916   0.628 -1.2129  1.6179  0.1044
  504ccc     O114253   3.257   5.754   0.519 -0.2702 -0.0483 -0.0107
  504ccc     O214254   3.170   6.020   0.440  0.1611 -0.5032 -0.6133
  504ccc     O314255   3.040   6.163   0.622 -0.5093 -0.4825  0.0393
  504ccc     O414256   2.989   5.974   0.828  0.5053  0.6646 -0.2944
  504ccc     C614257   3.187   5.851   0.986  0.9185 -0.0533 -0.5418
  504ccc     H614258   3.035   6.233   0.690 -0.1326  1.0002 -1.3867
  504ccc     H714259   2.937   6.056   0.836 -1.0306 -0.1503 -1.4076
  504ccc     H814260   3.100   6.087   0.445  2.1002  1.9664 -3.3665
  504ccc     H914261   3.097   5.788   0.982 -0.5263  1.9094 -0.6064
  504ccc    H1014262   3.169   5.938   1.050 -0.2351  1.1711 -2.4391
  504ccc     O514263   3.300   5.782   1.042 -0.3030  0.3711  0.1917
  504ccc    H1114264   3.350   5.851   1.089  0.5379  0.6692 -1.1260
  504ccc     O614265   3.225   5.807   0.754  0.4496 -0.3739 -0.2229
  505ccc     C114266   2.677   5.028   0.920 -0.5096 -0.7781  0.3739
  505ccc     C214267   2.675   5.119   1.044  0.0839 -0.0116 -0.0336
  505ccc     H114268   2.638   4.931   0.952 -2.3432  0.2061  1.3208
  505ccc     H214269   2.576   5.113   1.091  0.5589  0.0361  0.9951
  505ccc     C314270   2.785   5.074   1.148 -0.2035 -0.0173 -0.6519
  505ccc     C414271   2.926   5.071   1.074 -0.3251  0.6701 -0.0967
  505ccc     C514272   2.907   4.975   0.951 -1.0360 -0.0702  0.0601
  505ccc     H314273   2.942   5.175   1.042 -0.2389  0.0137 -2.3331
  505ccc     H414274   2.760   4.974   1.185 -2.6285  0.5670 -0.5636
  505ccc     H514275   2.882   4.880   1.000 -0.6078 -0.3559 -0.2679
  505ccc     O114276   3.030   4.963   0.883 -0.4890 -0.0609  0.1151
  505ccc     O214277   3.021   5.024   1.177 -0.7805 -0.1143 -0.0020
  505ccc     O314278   2.793   5.155   1.267  0.1071 -0.2154  0.2143
  505ccc     O414279   2.698   5.251   1.000  0.0000  0.2307 -0.5669
  505ccc     C614280   2.574   5.092   0.819 -0.0630 -0.2999  0.7255
  505ccc     H614281   2.834   5.097   1.332  0.6738  0.9187  0.9047
  505ccc     H714282   2.638   5.308   1.052 -1.2870 -2.8355  1.6388
  505ccc     H814283   3.053   5.101   1.227 -2.2262  1.5357 -1.4934
  505ccc     H914284   2.608   5.192   0.787  0.6609 -0.2650  1.5904
  505ccc    H1014285   2.481   5.116   0.872  0.0324  2.8767 -0.2817
  505ccc     O514286   2.558   5.005   0.701  0.1980  0.0190 -0.1497
  505ccc    H1114287   2.470   4.966   0.717  0.8938 -2.0456 -1.0252
  505ccc     O614288   2.809   5.023   0.859  0.2561 -0.1850  0.1070
  506ccc     C114289   2.785   4.959   0.161  0.1332  0.1963  0.6189
  506ccc     C214290   2.770   5.075   0.254  0.7494  0.6836 -0.6087
  506ccc     H114291   2.683   4.924   0.138  0.3795  1.1784 -2.3370
  506ccc     H214292   2.696   5.146   0.214 -0.1991  0.3004  0.4115
  506ccc     C314293   2.709   5.023   0.391  0.4477  0.0080  0.5862
  506ccc     C414294   2.798   4.910   0.444  0.7148 -0.1625  0.1461
  506ccc     C514295   2.835   4.797   0.341  0.3599 -0.2425 -0.2388
  506ccc     H314296   2.891   4.956   0.478  2.1870 -1.5811 -1.7329
  506ccc     H414297   2.611   4.982   0.365  0.2193  1.2355 -0.6047
  506ccc     H514298   2.750   4.731   0.324  0.5983 -1.1301  1.7141
  506ccc     O114299   2.950   4.732   0.390 -0.0104  0.2256  0.0777
  506ccc     O214300   2.734   4.848   0.563  0.3043  0.5796 -0.0474
  506ccc     O314301   2.686   5.125   0.486  0.4748  0.1862  0.1905
  506ccc     O414302   2.899   5.128   0.277 -0.7536  0.4214  0.0328
  506ccc     C614303   2.833   4.996   0.023  0.7908 -0.1146  0.3345
  506ccc     H614304   2.634   5.086   0.558  1.8380 -0.4249  0.8752
  506ccc     H714305   2.940   5.120   0.189  0.2230 -0.2342  0.5313
  506ccc     H814306   2.701   4.919   0.622  0.8823 -1.4485  2.9173
  506ccc     H914307   2.753   5.039  -0.039  0.1838  1.6146  2.2154
  506ccc    H1014308   2.864   4.905  -0.030 -0.1812  0.2753 -0.9672
  506ccc     O514309   2.951   5.070   0.031  0.7316  0.0456 -0.2887
  506ccc    H1114310   2.953   5.110  -0.057 -1.6672  0.8082 -0.0878
  506ccc     O614311   2.873   4.855   0.214  0.0548 -0.0249 -0.5734
  507ccc     C114312   5.005   6.907   0.339 -0.1555  0.1076 -0.2819
  507ccc     C214313   5.002   6.833   0.208  0.1473 -0.2247  0.0821
  507ccc     H114314   5.051   7.003   0.313  0.0389 -0.0161 -0.4009
  507ccc     H214315   4.967   6.895   0.124 -2.5238 -1.3503  0.2557
  507ccc     C314316   5.142   6.792   0.156 -0.3375  0.1229 -0.1061
  507ccc     C414317   5.225   6.713   0.258  0.1921 -0.0391 -0.0022
  507ccc     C514318   5.219   6.791   0.394 -0.2094 -0.2994  0.5877
  507ccc     H314319   5.170   6.619   0.272 -0.7297  0.6756  1.4820
  507ccc     H414320   5.185   6.893   0.151  0.9827 -0.3726  0.8082
  507ccc     H514321   5.292   6.872   0.382  0.4271 -0.9874 -0.3717
  507ccc     O114322   5.267   6.699   0.494 -0.4280 -0.4066  0.7315
  507ccc     O214323   5.360   6.695   0.211 -1.1691  0.6566  0.4330
  507ccc     O314324   5.151   6.736   0.023  0.2623 -0.2106  0.2771
  507ccc     O414325   4.918   6.718   0.226 -0.1885 -0.6293 -0.1931
  507ccc     C614326   4.867   6.950   0.397  0.2139  0.4316 -0.3207
  507ccc     H614327   5.246   6.722   0.003  0.4062  1.0212  0.0279
  507ccc     H714328   4.845   6.736   0.164 -0.5944  2.9753  1.0607
  507ccc     H814329   5.359   6.610   0.164 -0.5443  1.6478 -1.5203
  507ccc     H914330   4.826   6.853   0.428  1.0341  0.0889 -0.2745
  507ccc    H1014331   4.802   6.990   0.318  0.4445 -0.3421 -0.9134
  507ccc     O514332   4.898   7.054   0.495  0.0689  1.4292 -0.1738
  507ccc    H1114333   4.820   7.112   0.493  0.5441  2.0658 -0.6683
  507ccc     O614334   5.081   6.830   0.433 -0.1744  0.7284 -0.1740
  508ccc     C114335   6.020   6.250   0.993 -0.2352  0.1569  0.9500
  508ccc     C214336   6.078   6.105   0.988 -0.1114 -0.0698  0.6082
  508ccc     H114337   5.916   6.241   1.026 -0.5996  1.8223  0.3365
  508ccc     H214338   6.065   6.060   1.088 -1.5112  1.0804  0.9800
  508ccc     C314339   5.982   6.012   0.903 -1.0888 -0.1526  0.2662
  508ccc     C414340   5.972   6.083   0.754  0.0360 -0.3282 -0.6013
  508ccc     C514341   5.927   6.233   0.764 -0.4910  1.0991  0.1093
  508ccc     H314342   6.066   6.087   0.697 -0.3053 -2.4433 -1.4118
  508ccc     H414343   5.891   6.019   0.965  0.1380  2.0192  1.9650
  508ccc     H514344   5.824   6.231   0.803 -0.1108  1.2776  1.1493
  508ccc     O114345   5.926   6.296   0.639  0.4518 -0.2170  0.1847
  508ccc     O214346   5.880   6.017   0.667 -0.6049  0.6975 -0.4093
  508ccc     O314347   6.026   5.866   0.897 -0.8596 -0.2091  0.2209
  508ccc     O414348   6.211   6.100   0.943  0.2341 -0.3358 -0.0930
  508ccc     C614349   6.086   6.348   1.084 -0.3966 -0.0262 -0.4352
  508ccc     H614350   5.953   5.808   0.924 -0.5943 -0.1539  1.0893
  508ccc     H714351   6.245   6.014   0.974 -3.0819 -1.6163  0.4553
  508ccc     H814352   5.925   5.933   0.647 -3.7377 -0.6909 -2.2732
  508ccc     H914353   6.193   6.343   1.061  0.1200  1.9291  1.1718
  508ccc    H1014354   6.083   6.320   1.190 -0.7829  1.2886 -0.0789
  508ccc     O514355   6.026   6.475   1.052 -0.0840  0.2169 -0.1501
  508ccc    H1114356   6.064   6.485   0.963 -1.4614 -1.8029 -1.0415
  508ccc     O614357   6.011   6.300   0.859  0.1138  0.0156 -0.4159
  509ccc     C114358   5.092   6.287  -0.224  0.0157  0.4900  0.4710
  509ccc     C214359   5.248   6.264  -0.249  0.0798  0.2003  0.2239
  509ccc     H114360   5.051   6.370  -0.284 -3.0362 -0.9872  0.3423
  509ccc     H214361   5.271   6.290  -0.353 -3.8132  1.9531 -0.3637
  509ccc     C314362   5.326   6.357  -0.151 -0.0193 -0.0828  0.0289
  509ccc     C414363   5.281   6.342   0.004 -0.1664  0.0551 -0.0150
  509ccc     C514364   5.131   6.378   0.009 -0.3800  0.3008  0.3988
  509ccc     H314365   5.300   6.241   0.042  0.3252 -0.1864 -0.8669
  509ccc     H414366   5.303   6.458  -0.187 -0.4884 -1.8664 -5.5987
  509ccc     H514367   5.118   6.486  -0.008  1.4781  0.2729 -1.6477
  509ccc     O114368   5.086   6.344   0.145 -0.5166  0.2913 -0.1291
  509ccc     O214369   5.348   6.446   0.084  0.1696  0.0625 -0.4301
  509ccc     O314370   5.465   6.320  -0.153  0.1908 -0.5820  0.4177
  509ccc     O414371   5.279   6.127  -0.215  0.0358 -0.1505 -0.6316
  509ccc     C614372   5.013   6.169  -0.287 -0.3672 -0.2541 -0.4168
  509ccc     H614373   5.510   6.391  -0.201 -1.8189 -0.8172 -2.0037
  509ccc     H714374   5.374   6.127  -0.233  0.2338 -0.8369  0.3680
  509ccc     H814375   5.437   6.409   0.093  0.2697  0.2898 -0.4907
  509ccc     H914376   5.019   6.070  -0.242 -2.5881 -0.7058 -0.9748
  509ccc    H1014377   5.049   6.159  -0.390 -2.7419 -0.8496 -1.2555
  509ccc     O514378   4.870   6.201  -0.285 -0.4126 -0.6388  0.2025
  509ccc    H1114379   4.840   6.161  -0.202  0.1685  2.5462  2.1496
  509ccc     O614380   5.052   6.298  -0.085  0.0682 -0.4329  0.3490
  510ccc     C114381   4.797   7.181   0.911  0.5084 -0.7399  0.3209
  510ccc     C214382   4.677   7.196   1.006  0.3200 -0.1386  0.2941
  510ccc     H114383   4.758   7.213   0.813  1.0924 -1.0663 -0.0213
  510ccc     H214384   4.640   7.300   1.007  2.2817  0.6259 -0.7373
  510ccc     C314385   4.553   7.106   0.963 -0.4689 -0.1007  0.2515
  510ccc     C414386   4.608   6.962   0.929  0.5289 -0.2119 -0.4203
  510ccc     C514387   4.724   6.963   0.836 -0.3384  0.8071 -0.1362
  510ccc     H314388   4.657   6.917   1.017 -1.2128  1.7949  1.7232
  510ccc     H414389   4.494   7.144   0.879  0.9060 -0.7628 -1.0523
  510ccc     H514390   4.689   6.992   0.737 -0.6195  1.9038  0.2680
  510ccc     O114391   4.774   6.826   0.821  0.6524 -0.0442  0.5589
  510ccc     O214392   4.496   6.882   0.876  0.1050  0.1390  0.0858
  510ccc     O314393   4.461   7.095   1.077 -0.2412  0.4347  0.0632
  510ccc     O414394   4.720   7.167   1.141 -0.2402  0.3992 -0.2358
  510ccc     C614395   4.920   7.259   0.949  0.2013 -0.3666 -0.9810
  510ccc     H614396   4.424   7.184   1.090 -0.0731  0.5472 -0.2128
  510ccc     H714397   4.635   7.187   1.182 -0.4602 -0.4565 -0.2574
  510ccc     H814398   4.425   6.894   0.942 -0.3064  0.4192 -0.4003
  510ccc     H914399   4.973   7.201   1.026 -2.3010 -1.7403 -0.1836
  510ccc    H1014400   4.894   7.352   1.001  2.0454 -0.1274 -0.4179
  510ccc     O514401   4.995   7.286   0.835 -0.0779  0.1944  0.0501
  510ccc    H1114402   4.939   7.356   0.797 -1.2281 -0.9280 -0.4077
  510ccc     O614403   4.826   7.047   0.890  0.6336 -0.4602 -0.3422
  511ccc     C114404   3.512   4.352  10.504  0.6851 -0.3498  0.0656
  511ccc     C214405   3.558   4.201  10.509  0.0376  0.0414  0.5518
  511ccc     H114406   3.407   4.354  10.536  1.4984 -2.7882  3.2682
  511ccc     H214407   3.538   4.160  10.609 -2.4403  1.2512  0.6134
  511ccc     C314408   3.476   4.114  10.412 -0.4915  0.2317 -0.9130
  511ccc     C414409   3.463   4.173  10.274 -0.5613 -0.6245  0.8517
  511ccc     C514410   3.424   4.328  10.281  0.3656  0.5670  0.1039
  511ccc     H314411   3.557   4.169  10.218 -2.3496  0.1830 -2.5458
  511ccc     H414412   3.379   4.104  10.462  0.7146 -2.3894  1.1672
  511ccc     H514413   3.323   4.341  10.321  0.1112 -0.3912 -0.2099
  511ccc     O114414   3.428   4.383  10.145  0.7003  0.1188  0.0754
  511ccc     O214415   3.365   4.091  10.206 -0.2975  0.1115  0.3408
  511ccc     O314416   3.535   3.984  10.409  0.2384 -0.2047  0.3978
  511ccc     O414417   3.693   4.197  10.484 -0.7057  0.3567  0.3417
  511ccc     C614418   3.585   4.436  10.589  0.6384  0.2406 -0.6996
  511ccc     H614419   3.464   3.921  10.390 -0.7643  0.9598  0.1140
  511ccc     H714420   3.699   4.100  10.494  1.6642  0.2896 -0.8981
  511ccc     H814421   3.283   4.086  10.258 -0.6179  0.3652 -0.1277
  511ccc     H914422   3.691   4.444  10.559  0.4908  3.4026 -0.7424
  511ccc    H1014423   3.585   4.386  10.686  1.8611 -0.1718 -0.8829
  511ccc     O514424   3.529   4.560  10.603  0.0964  0.6839 -0.4475
  511ccc    H1114425   3.604   4.616  10.574  0.2466  0.6300 -0.1716
  511ccc     O614426   3.516   4.403  10.362  0.1198  0.1462  0.1772
  512ccc     C114427   4.042   4.648  10.299 -0.1218 -0.7588 -0.9000
  512ccc     C214428   3.964   4.654  10.435 -0.3620 -0.0208 -0.1738
  512ccc     H114429   4.082   4.749  10.285 -1.3543  0.6221  3.7764
  512ccc     H214430   4.025   4.711  10.505 -0.4212  0.7206 -0.7089
  512ccc     C314431   3.825   4.731  10.421 -0.5041  0.0367 -0.1260
  512ccc     C414432   3.736   4.670  10.305 -0.2770  0.1094 -0.1931
  512ccc     C514433   3.825   4.686  10.174  0.1278 -0.2712 -0.6909
  512ccc     H314434   3.721   4.563  10.322  1.7599  0.0454  1.5469
  512ccc     H414435   3.842   4.837  10.401  0.0749 -0.1686 -0.7609
  512ccc     H514436   3.832   4.794  10.153  2.8733 -0.3456 -0.5193
  512ccc     O114437   3.759   4.624  10.060 -0.2208 -0.0386  1.4140
  512ccc     O214438   3.613   4.741  10.290  0.0799  0.0217  0.9547
  512ccc     O314439   3.741   4.709  10.540  0.5389 -0.4759 -0.3416
  512ccc     O414440   3.938   4.514  10.472  0.3576  0.1127  0.8683
  512ccc     C614441   4.159   4.550  10.292  0.2323 -0.6988  0.3431
  512ccc     H614442   3.764   4.769  10.614  2.7265 -1.0801 -0.4346
  512ccc     H714443   3.909   4.518  10.565  1.2650  1.8215  1.1285
  512ccc     H814444   3.575   4.729  10.379 -1.3243  1.1731  0.5381
  512ccc     H914445   4.121   4.448  10.301  0.8070 -0.8967  0.6251
  512ccc    H1014446   4.226   4.571  10.376  0.3719  1.4874 -0.2670
  512ccc     O514447   4.236   4.568  10.173  0.7550 -0.4683 -0.1571
  512ccc    H1114448   4.263   4.476  10.158  1.0351 -0.0599 -2.4588
  512ccc     O614449   3.963   4.629  10.182  0.5701 -0.4301 -0.1156
  513ccc     C114450   3.413   3.733   9.604  0.4148  0.0176  0.3523
  513ccc     C214451   3.556   3.736   9.649  0.5247  0.4544  0.8634
  513ccc     H114452   3.370   3.652   9.664  1.5476 -0.8386  0.0288
  513ccc     H214453   3.555   3.746   9.758 -0.7965  1.1889  0.8163
  513ccc     C314454   3.633   3.600   9.616  0.3604 -0.1139 -0.2136
  513ccc     C414455   3.603   3.555   9.474  0.2237 -1.0948  1.1759
  513ccc     C514456   3.456   3.564   9.425 -0.3711 -0.1706  0.2912
  513ccc     H314457   3.662   3.620   9.409 -1.3761 -0.5882  0.1798
  513ccc     H414458   3.586   3.519   9.673 -0.3461 -0.9772 -1.9378
  513ccc     H514459   3.401   3.481   9.471 -0.8672  0.3523  0.6509
  513ccc     O114460   3.450   3.551   9.279 -0.4538  0.2384  0.4261
  513ccc     O214461   3.645   3.411   9.454  0.0188 -0.2226  0.0973
  513ccc     O314462   3.771   3.615   9.644 -0.3656  0.4139  0.4041
  513ccc     O414463   3.624   3.845   9.579  0.2574  0.6931 -0.8457
  513ccc     C614464   3.329   3.860   9.627  0.1240  0.5727 -0.1302
  513ccc     H614465   3.808   3.534   9.606 -1.8844  0.9281 -2.5113
  513ccc     H714466   3.716   3.851   9.610  0.7051 -0.9339 -1.7737
  513ccc     H814467   3.662   3.396   9.359  0.6982 -0.5587  0.2671
  513ccc     H914468   3.343   3.896   9.729 -1.3136 -2.1628  1.1309
  513ccc    H1014469   3.223   3.839   9.609  0.0584  2.0061 -1.7205
  513ccc     O514470   3.379   3.955   9.528  0.5865  0.1146 -0.2202
  513ccc    H1114471   3.472   3.930   9.545  0.3995 -0.1903  0.3726
  513ccc     O614472   3.404   3.694   9.463  0.1286 -0.1563 -0.7883
  514ccc     C114473   2.959   3.781   9.504  0.6243 -0.1273  0.2889
  514ccc     C214474   2.807   3.805   9.477  0.3680  0.4649 -0.1734
  514ccc     H114475   2.976   3.833   9.600 -1.7798 -0.4254  0.9241
  514ccc     H214476   2.741   3.770   9.556 -0.8281  0.0185 -1.3293
  514ccc     C314477   2.787   3.962   9.465  0.0029  0.6042  0.0863
  514ccc     C414478   2.874   4.031   9.361 -1.1348 -0.3489 -0.4971
  514ccc     C514479   3.022   3.982   9.378  0.5315 -0.0711 -0.4003
  514ccc     H314480   2.840   3.994   9.263 -1.3168 -3.5827  0.6852
  514ccc     H414481   2.812   4.000   9.565  1.6667 -1.4756  0.5349
  514ccc     H514482   3.067   4.033   9.464  0.6269 -0.8824  0.0342
  514ccc     O114483   3.096   4.027   9.259 -0.4052  0.2343  0.1133
  514ccc     O214484   2.851   4.172   9.385 -0.0669 -0.5008 -0.3689
  514ccc     O314485   2.653   3.986   9.438  0.8039 -0.4101  0.2702
  514ccc     O414486   2.777   3.729   9.354 -0.5002  0.0521  0.6732
  514ccc     C614487   3.012   3.638   9.530  0.0098  0.2566  0.1358
  514ccc     H614488   2.593   3.973   9.513  0.0192  0.0401 -0.2590
  514ccc     H714489   2.683   3.702   9.353 -0.1160 -1.3952 -0.4594
  514ccc     H814490   2.754   4.175   9.393 -0.0665  0.1590 -0.5360
  514ccc     H914491   2.959   3.601   9.618 -0.7944 -2.4767 -1.4051
  514ccc    H1014492   3.120   3.636   9.550  0.1225  0.4521 -0.4399
  514ccc     O514493   2.983   3.564   9.415 -0.3741  0.5406  0.1383
  514ccc    H1114494   2.918   3.626   9.377  0.8902  1.2264 -0.9894
  514ccc     O614495   3.026   3.840   9.389  0.1131 -1.1289 -0.7444
  515ccc     C114496   2.718   5.787  10.173 -0.5369 -0.3961  0.4970
  515ccc     C214497   2.678   5.899  10.274 -0.8930 -1.6673  0.8875
  515ccc     H114498   2.827   5.776  10.183  0.0096  3.0388 -0.4178
  515ccc     H214499   2.710   5.885  10.378 -1.6900  1.5553  1.6507
  515ccc     C314500   2.734   6.035  10.225  0.3432 -0.0019  0.0103
  515ccc     C414501   2.719   6.066  10.071  0.8370  0.2458  0.3149
  515ccc     C514502   2.754   5.944   9.980 -0.2739 -0.5440  0.0069
  515ccc     H314503   2.613   6.080  10.045  0.1760  0.9933  3.0779
  515ccc     H414504   2.843   6.025  10.235  0.5336  0.8326 -1.0609
  515ccc     H514505   2.862   5.927   9.973 -0.5356 -2.1780 -0.4434
  515ccc     O114506   2.702   5.964   9.853 -0.4863  0.5921 -0.1862
  515ccc     O214507   2.790   6.182  10.033  0.0811 -0.4382  0.3234
  515ccc     O314508   2.683   6.145  10.310 -0.8663  0.6130 -0.5564
  515ccc     O414509   2.539   5.895  10.257  0.3792 -0.0211  0.5248
  515ccc     C614510   2.648   5.653  10.205 -0.7069 -0.1115 -0.0589
  515ccc     H614511   2.621   6.098  10.369  0.1608  0.7792  0.6910
  515ccc     H714512   2.496   5.828  10.312  1.2913 -0.7655  0.3591
  515ccc     H814513   2.751   6.259  10.079 -2.2043 -2.4111  1.9251
  515ccc     H914514   2.540   5.645  10.187 -1.4649 -0.5520  3.8521
  515ccc    H1014515   2.659   5.625  10.310 -0.9320 -0.1520 -0.0452
  515ccc     O514516   2.709   5.561  10.113 -0.4187 -0.2211  0.0770
  515ccc    H1114517   2.659   5.570  10.031 -0.7741  0.1539  0.3328
  515ccc     O614518   2.685   5.826  10.034  0.0889 -0.0931  0.4067
  516ccc     C114519   2.355   6.100   8.877 -0.4543 -0.3923  0.5063
  516ccc     C214520   2.480   6.139   8.792 -0.5357  0.2054  0.2594
  516ccc     H114521   2.317   6.180   8.942 -1.2824  0.9924 -1.5479
  516ccc     H214522   2.463   6.221   8.721  0.1686  0.7663  0.7245
  516ccc     C314523   2.609   6.167   8.877  0.2640 -0.0677 -0.0342
  516ccc     C414524   2.634   6.050   8.984 -0.4074  0.0413  0.0104
  516ccc     C514525   2.496   6.016   9.058 -0.0456  0.0711  0.1580
  516ccc     H314526   2.679   5.959   8.942  2.2708  1.1593  0.2401
  516ccc     H414527   2.586   6.256   8.938  1.9670  1.5312 -1.5769
  516ccc     H514528   2.466   6.098   9.124  0.5172 -0.2173  0.7880
  516ccc     O114529   2.527   5.908   9.141 -0.1472  0.3460 -0.8835
  516ccc     O214530   2.737   6.101   9.076  0.3716 -0.4773 -0.4080
  516ccc     O314531   2.729   6.192   8.798  0.6032  0.2838  0.4039
  516ccc     O414532   2.509   6.025   8.712  0.3340  0.1409  0.1450
  516ccc     C614533   2.239   6.076   8.776  0.1984 -0.0761 -0.2329
  516ccc     H614534   2.718   6.282   8.764  0.2978 -0.1710 -0.7632
  516ccc     H714535   2.582   6.056   8.657  1.3301 -1.0216  0.7504
  516ccc     H814536   2.820   6.078   9.031 -0.9073 -1.7070 -2.3359
  516ccc     H914537   2.256   5.981   8.723  0.3158 -0.2552  0.1251
  516ccc    H1014538   2.229   6.162   8.708  0.3201 -0.0885 -0.2650
  516ccc     O514539   2.123   6.085   8.858  0.1503 -0.2040 -0.8879
  516ccc    H1114540   2.125   6.014   8.924 -0.9362 -0.9459 -1.6066
  516ccc     O614541   2.392   5.989   8.961  0.0295 -0.0558  0.4783
  517ccc     C114542   4.161   5.111   9.745  0.0901 -0.6067  0.5035
  517ccc     C214543   4.201   5.195   9.615 -0.2415  0.3575  0.8342
  517ccc     H114544   4.102   5.021   9.724 -1.4369  0.5222 -0.2160
  517ccc     H214545   4.249   5.122   9.548 -0.8643 -0.1249  0.9104
  517ccc     C314546   4.067   5.248   9.536 -0.5477  1.5740 -0.8658
  517ccc     C414547   3.974   5.318   9.640 -0.2386  0.7506  0.1057
  517ccc     C514548   3.967   5.252   9.778  0.5144  0.0287  0.0989
  517ccc     H314549   4.010   5.421   9.652  0.4482  0.5313 -0.0300
  517ccc     H414550   4.018   5.156   9.503 -0.4389  1.0992  0.2296
  517ccc     H514551   3.894   5.171   9.763 -1.8184  2.3155 -1.7951
  517ccc     O114552   3.910   5.349   9.876  0.7735 -0.5299  0.2030
  517ccc     O214553   3.837   5.317   9.589  0.2157  0.2552  0.3909
  517ccc     O314554   4.097   5.334   9.414  0.6547 -0.2536 -1.0009
  517ccc     O414555   4.291   5.304   9.644  0.6968 -0.0349 -0.5288
  517ccc     C614556   4.287   5.060   9.816  0.3562  0.6241 -0.0049
  517ccc     H614557   4.157   5.406   9.439 -0.2967  0.3747 -0.4840
  517ccc     H714558   4.337   5.311   9.559 -0.2796  1.1179 -0.9903
  517ccc     H814559   3.830   5.368   9.506  0.6265 -0.3797 -0.0377
  517ccc     H914560   4.335   5.137   9.878  0.2521 -0.7930  1.9333
  517ccc    H1014561   4.359   5.015   9.747 -1.3113 -1.3481 -0.5550
  517ccc     O514562   4.266   4.963   9.914 -0.2303 -0.1127  0.7480
  517ccc    H1114563   4.352   4.979   9.957 -0.8817  0.9435  1.7264
  517ccc     O614564   4.096   5.210   9.827  0.0434  0.0863  0.2993
  518ccc     C114565   4.349   6.348   9.938 -0.1349  0.1581 -0.3207
  518ccc     C214566   4.408   6.373   9.797 -0.2707  0.6700  0.2345
  518ccc     H114567   4.438   6.322   9.997 -1.5037 -2.2776  0.8035
  518ccc     H214568   4.486   6.450   9.800  0.1861  0.2111  0.2946
  518ccc     C314569   4.456   6.234   9.742  0.5215  0.0815 -0.0488
  518ccc     C414570   4.346   6.128   9.751 -0.1207 -0.6752  1.1607
  518ccc     C514571   4.300   6.112   9.895 -0.2161 -0.1129 -0.3484
  518ccc     H314572   4.260   6.153   9.687  0.5008 -0.7931  0.2665
  518ccc     H414573   4.531   6.201   9.814  1.4596 -1.6946 -1.7396
  518ccc     H514574   4.381   6.080   9.962 -1.3266  0.6043  1.4020
  518ccc     O114575   4.189   6.016   9.885 -0.3148 -0.2492 -0.2524
  518ccc     O214576   4.403   6.004   9.706  0.2184  0.5336 -0.0631
  518ccc     O314577   4.506   6.240   9.610 -0.0013 -0.4308  0.1737
  518ccc     O414578   4.301   6.418   9.711  0.3155 -0.0609 -1.1924
  518ccc     C614579   4.300   6.470  10.012  0.9643 -0.6545 -0.1680
  518ccc     H614580   4.590   6.289   9.617 -0.7930  0.8933  0.7772
  518ccc     H714581   4.347   6.436   9.627  0.3212 -1.1813 -1.4372
  518ccc     H814582   4.469   6.031   9.640 -0.0283  2.0277  0.2768
  518ccc     H914583   4.372   6.552  10.000 -0.4734  0.5447 -0.9961
  518ccc    H1014584   4.268   6.460  10.116 -0.7686 -0.4787 -0.6389
  518ccc     O514585   4.187   6.507   9.933 -0.2327  0.1703  0.5988
  518ccc    H1114586   4.219   6.471   9.849  2.1950 -1.5677  2.1423
  518ccc     O614587   4.255   6.238   9.937  0.4433 -0.8153  0.2851
  519ccc     C114588   2.075   3.782   8.101  1.1130  0.3168 -0.3499
  519ccc     C214589   1.954   3.725   8.021  0.3763 -0.0453  0.3800
  519ccc     H114590   2.099   3.883   8.066  1.3331  1.2743  2.3436
  519ccc     H214591   1.868   3.791   8.041  2.3806  2.9470 -0.1354
  519ccc     C314592   1.982   3.729   7.866  0.8336  0.4984 -0.4241
  519ccc     C414593   2.115   3.651   7.834 -0.2210  0.7230  0.3924
  519ccc     C514594   2.230   3.695   7.933  0.6727 -0.0979 -0.3384
  519ccc     H314595   2.090   3.548   7.861 -1.5713  0.6820 -0.9237
  519ccc     H414596   2.000   3.830   7.827  1.2234 -0.0841 -1.8250
  519ccc     H514597   2.264   3.796   7.906  0.3173 -0.2974 -1.6218
  519ccc     O114598   2.333   3.601   7.913 -0.3074 -1.0810  0.5408
  519ccc     O214599   2.152   3.636   7.693  0.1110  0.0832  0.1163
  519ccc     O314600   1.869   3.660   7.804 -1.0002 -0.1716  0.5208
  519ccc     O414601   1.937   3.591   8.066 -0.1995  0.2110  0.0104
  519ccc     C614602   2.054   3.786   8.259 -0.0734  0.1972 -0.1617
  519ccc     H614603   1.888   3.566   7.819  1.7394  0.0200 -1.1677
  519ccc     H714604   1.956   3.620   8.157 -3.5379 -1.2007  1.3274
  519ccc     H814605   2.157   3.727   7.660  0.6747  0.3615  0.9330
  519ccc     H914606   1.974   3.855   8.288 -0.5552 -1.0985  1.7823
  519ccc    H1014607   2.153   3.810   8.301 -0.0013 -1.2174  0.5210
  519ccc     O514608   2.023   3.654   8.305  0.4701 -1.1404  0.0040
  519ccc    H1114609   2.111   3.613   8.312  1.6566  1.2505 -0.0258
  519ccc     O614610   2.189   3.702   8.072 -0.1733 -0.3750  0.0386
  520ccc     C114611   2.367   2.796   7.735  0.1212 -0.1067 -0.1952
  520ccc     C214612   2.280   2.784   7.858  0.1851 -0.6297  0.0162
  520ccc     H114613   2.433   2.709   7.724  0.3034  0.0895 -0.7208
  520ccc     H214614   2.228   2.689   7.836  2.4417 -1.7728 -0.7832
  520ccc     C314615   2.377   2.775   7.977  0.0389  0.2013  0.0069
  520ccc     C414616   2.478   2.896   7.983 -0.1747 -0.1591 -0.0245
  520ccc     C514617   2.545   2.930   7.850  0.3643  0.3317  0.1303
  520ccc     H314618   2.417   2.982   8.013  1.7685  0.7409  1.5849
  520ccc     H414619   2.430   2.681   7.957 -2.3799 -1.1536 -0.3943
  520ccc     H514620   2.631   2.871   7.818 -0.4890  0.2623 -2.1634
  520ccc     O114621   2.584   3.070   7.840  0.5305 -0.4397  0.5921
  520ccc     O214622   2.584   2.865   8.086  0.1333 -0.9068  0.1877
  520ccc     O314623   2.316   2.748   8.106 -0.4275  0.2217 -0.0600
  520ccc     O414624   2.205   2.901   7.864  0.6879 -0.8863 -0.1439
  520ccc     C614625   2.283   2.810   7.605  0.1877 -0.0265 -0.8416
  520ccc     H614626   2.319   2.651   8.117  0.1596  0.3563  1.2201
  520ccc     H714627   2.116   2.876   7.894 -0.0046 -0.0176 -1.4058
  520ccc     H814628   2.555   2.909   8.168 -0.9590  1.7736 -1.4884
  520ccc     H914629   2.241   2.911   7.600 -2.9734 -1.1758  0.0459
  520ccc    H1014630   2.192   2.749   7.616  0.6572 -0.3339  2.2358
  520ccc     O514631   2.360   2.791   7.493 -0.3460  0.4198  0.3924
  520ccc    H1114632   2.451   2.806   7.522  0.4268 -2.2465 -0.4378
  520ccc     O614633   2.441   2.920   7.747 -0.0392 -0.5852  0.3798
  521ccc     C114634   2.794   4.874   7.720 -0.6200 -0.5075  0.4480
  521ccc     C214635   2.815   4.917   7.864 -0.5313  0.7293  0.3428
  521ccc     H114636   2.718   4.795   7.716 -0.9992 -0.1599  0.6513
  521ccc     H214637   2.720   4.943   7.912 -1.0628 -1.1745  0.4128
  521ccc     C314638   2.874   4.803   7.950  1.1740  0.4482  0.3235
  521ccc     C414639   2.996   4.741   7.882 -0.4444 -0.4516  0.7051
  521ccc     C514640   2.978   4.713   7.730  0.0757 -0.0334 -0.6358
  521ccc     H314641   3.073   4.820   7.882  0.3005 -1.1389 -0.6565
  521ccc     H414642   2.799   4.724   7.953 -0.4878  1.8922 -0.7245
  521ccc     H514643   2.909   4.628   7.720  0.2474 -0.3511  0.7239
  521ccc     O114644   3.097   4.673   7.674  0.0943 -0.7459  0.2922
  521ccc     O214645   3.036   4.624   7.954  1.2024 -0.2162  0.0718
  521ccc     O314646   2.907   4.850   8.088 -0.4704  0.0851  0.3803
  521ccc     O414647   2.897   5.027   7.858 -0.2770 -0.8331 -0.0714
  521ccc     C614648   2.741   4.985   7.633 -0.4178 -0.0823  0.4581
  521ccc     H614649   2.827   4.881   8.133  0.1502 -0.2274  1.7500
  521ccc     H714650   2.873   5.066   7.944  1.9921 -2.2567  1.2949
  521ccc     H814651   3.073   4.656   8.039  0.4073  0.7560  0.0784
  521ccc     H914652   2.830   5.040   7.599  0.9687 -2.1854  0.5572
  521ccc    H1014653   2.691   5.063   7.691  1.5978  0.8400  1.0348
  521ccc     O514654   2.672   4.930   7.530  0.1586 -0.1790 -0.2152
  521ccc    H1114655   2.714   4.972   7.453 -0.2295  1.2390  0.3120
  521ccc     O614656   2.918   4.825   7.662 -0.1942  0.6136  0.2312
  522ccc     C114657   3.902   4.625   6.843  0.1246  0.1200  0.3713
  522ccc     C214658   4.003   4.506   6.839  0.4694  0.1723 -0.4927
  522ccc     H114659   3.941   4.693   6.921 -1.1362  0.9332  0.3194
  522ccc     H214660   4.108   4.535   6.840  0.1173  1.5206 -1.0823
  522ccc     C314661   3.988   4.399   6.951  0.4598 -0.4862  0.2683
  522ccc     C414662   3.836   4.372   6.988  0.5076 -0.0930  0.3929
  522ccc     C514663   3.742   4.494   6.987  0.3061 -0.4863 -0.3242
  522ccc     H314664   3.805   4.302   6.910  0.1648 -2.7226  2.7542
  522ccc     H414665   4.040   4.440   7.038  2.7515  0.2482 -1.3484
  522ccc     H514666   3.744   4.546   7.084 -1.9929  1.3088 -1.1636
  522ccc     O114667   3.606   4.448   6.983  0.0244  0.2345  0.2334
  522ccc     O214668   3.829   4.305   7.113  0.1315  0.4233  0.2643
  522ccc     O314669   4.053   4.280   6.899  0.0316  0.3594 -0.1099
  522ccc     O414670   3.973   4.442   6.716  0.1696 -0.3365 -0.0585
  522ccc     C614671   3.900   4.726   6.722 -0.2577  0.2624  0.3613
  522ccc     H614672   4.028   4.292   6.806  0.3949 -1.2567 -0.4557
  522ccc     H714673   3.913   4.506   6.674  2.3920  1.3430 -0.8551
  522ccc     H814674   3.761   4.236   7.097  2.1841 -1.4143 -1.2688
  522ccc     H914675   3.998   4.775   6.720 -0.8551  1.5078 -0.5690
  522ccc    H1014676   3.828   4.807   6.741 -0.1532  0.2682  0.7319
  522ccc     O514677   3.858   4.653   6.603  0.3526 -0.1934  0.2695
  522ccc    H1114678   3.865   4.720   6.533 -1.3493 -0.9135 -0.6501
  522ccc     O614679   3.762   4.584   6.869 -0.6261 -0.5539 -0.3257
  523ccc     C114680   2.292   4.642   7.922  0.4664  1.0326 -0.3190
  523ccc     C214681   2.147   4.680   7.878  0.5177  0.6737  0.3313
  523ccc     H114682   2.315   4.548   7.870  2.9425  2.1357 -1.3716
  523ccc     H214683   2.153   4.680   7.769  1.5135  1.0196  0.3859
  523ccc     C314684   2.041   4.579   7.925  0.3996  0.1939 -0.7052
  523ccc     C414685   2.049   4.557   8.078  0.3085  0.1210  0.5012
  523ccc     C514686   2.188   4.511   8.102  0.1674  0.5894  0.4411
  523ccc     H314687   2.029   4.653   8.127  0.4759 -0.7421  2.3245
  523ccc     H414688   2.057   4.483   7.875 -0.6802  0.0277 -0.7395
  523ccc     H514689   2.216   4.428   8.037 -1.2733  0.1823  0.2965
  523ccc     O114690   2.197   4.471   8.237  0.2742 -0.1422  0.6032
  523ccc     O214691   1.942   4.460   8.112  0.2062  0.3604  0.3945
  523ccc     O314692   1.907   4.613   7.877  0.2129 -0.1672 -0.2154
  523ccc     O414693   2.122   4.804   7.940 -0.5798  0.3391  0.3603
  523ccc     C614694   2.397   4.744   7.878 -0.1782  0.4735 -0.2806
  523ccc     H614695   1.872   4.526   7.850  0.7234 -0.2079 -0.7914
  523ccc     H714696   2.071   4.852   7.872  1.1468 -0.0969 -1.3412
  523ccc     H814697   1.857   4.508   8.118  0.5540  0.8233  3.2992
  523ccc     H914698   2.385   4.841   7.927  1.1137  0.4686  0.0895
  523ccc    H1014699   2.400   4.761   7.769  0.8680  1.8840 -0.0580
  523ccc     O514700   2.517   4.692   7.936  0.3996  0.0259  0.1976
  523ccc    H1114701   2.507   4.711   8.031  1.4450  1.4106  0.0710
  523ccc     O614702   2.286   4.607   8.065 -0.0151 -0.2229 -0.0279
  524ccc     C114703   1.798   5.125   8.226  0.4189  0.3907 -0.0719
  524ccc     C214704   1.891   5.180   8.113  0.4760 -0.4621 -0.3560
  524ccc     H114705   1.789   5.186   8.317 -1.5326 -0.2441  0.1981
  524ccc     H214706   1.873   5.287   8.092 -1.9022 -0.6639  0.3653
  524ccc     C314707   2.036   5.171   8.159 -0.1800  0.4363  0.1115
  524ccc     C414708   2.075   5.028   8.207 -0.4320 -0.1819 -0.3814
  524ccc     C514709   1.975   4.975   8.317 -0.2976  0.2148  0.1978
  524ccc     H314710   2.071   4.963   8.119 -0.3293  0.2088 -0.6747
  524ccc     H414711   2.048   5.240   8.243 -0.1305  0.9512 -0.3115
  524ccc     H514712   1.983   5.030   8.411  1.8996  0.3992 -0.0261
  524ccc     O114713   1.994   4.833   8.334 -0.3555 -0.7183  0.6715
  524ccc     O214714   2.211   5.032   8.266 -0.2778  0.1907 -0.4472
  524ccc     O314715   2.120   5.218   8.050  0.1605  0.0681 -0.0495
  524ccc     O414716   1.861   5.102   7.996  0.0730 -0.3401 -0.0968
  524ccc     C614717   1.655   5.109   8.180 -1.0964 -0.3461  0.2801
  524ccc     H614718   2.089   5.307   8.026 -1.2659 -0.3176  0.2774
  524ccc     H714719   1.851   5.008   8.019  1.0849 -0.7603 -1.2670
  524ccc     H814720   2.253   5.079   8.192 -0.5256 -1.4797 -1.6878
  524ccc     H914721   1.655   5.032   8.102 -0.8497 -0.7361  0.6569
  524ccc    H1014722   1.621   5.207   8.144  2.2553  0.4528 -1.0768
  524ccc     O514723   1.577   5.071   8.292 -0.2527 -0.2045  0.1855
  524ccc    H1114724   1.638   5.033   8.357  0.3904  0.7336  0.1462
  524ccc     O614725   1.843   4.994   8.259 -0.0275  0.5770 -0.0428
  525ccc     C114726   1.275   3.905   7.921 -0.5419  0.3314  0.1857
  525ccc     C214727   1.314   3.834   7.790 -0.2928 -0.1133 -0.1421
  525ccc     H114728   1.300   4.010   7.901  0.9971 -0.0451 -0.0035
  525ccc     H214729   1.271   3.898   7.712 -0.1049  1.5137  1.0424
  525ccc     C314730   1.467   3.842   7.761  0.5453  0.6447  0.3655
  525ccc     C414731   1.550   3.803   7.885 -0.4311 -0.5046  0.0754
  525ccc     C514732   1.500   3.860   8.021  0.3212  0.4158  0.0427
  525ccc     H314733   1.535   3.694   7.883  1.2122 -0.7825  1.0384
  525ccc     H414734   1.479   3.948   7.738  1.7827  0.8191  1.6560
  525ccc     H514735   1.534   3.964   8.020  0.4151  0.3973 -1.8250
  525ccc     O114736   1.565   3.783   8.128  0.2641  0.7012 -0.1524
  525ccc     O214737   1.686   3.848   7.868 -0.2618  0.4133  0.0074
  525ccc     O314738   1.500   3.769   7.637 -0.2236  0.5229 -0.1811
  525ccc     O414739   1.271   3.696   7.777  0.2283  0.0478  0.1986
  525ccc     C614740   1.128   3.887   7.939 -0.4240  0.4553 -0.3317
  525ccc     H614741   1.594   3.781   7.617  0.3616  0.1576  2.0766
  525ccc     H714742   1.327   3.660   7.706 -0.0948  0.7489 -0.4352
  525ccc     H814743   1.730   3.775   7.820 -1.3635 -0.8822  0.8925
  525ccc     H914744   1.104   3.781   7.953 -2.5735  0.5580 -2.5610
  525ccc    H1014745   1.065   3.912   7.853 -0.4984 -3.2237 -1.5229
  525ccc     O514746   1.091   3.956   8.056 -0.6636  0.2094  0.1290
  525ccc    H1114747   1.178   3.974   8.095 -0.0806  0.6490 -1.3289
  525ccc     O614748   1.353   3.839   8.025  0.9845  0.3709 -0.0739
  526ccc     C114749   1.948   2.882   8.371  0.1145 -0.2774 -0.5159
  526ccc     C214750   2.018   2.840   8.241 -0.1186 -0.0753  0.1199
  526ccc     H114751   1.856   2.823   8.384  0.6514 -2.1027 -3.7698
  526ccc     H214752   2.041   2.733   8.247 -1.4717 -0.5271 -1.8688
  526ccc     C314753   1.929   2.870   8.112  0.0003 -0.2499 -0.6511
  526ccc     C414754   1.893   3.023   8.112  0.1470  0.4200 -0.3675
  526ccc     C514755   1.823   3.057   8.249  0.2918 -0.1685 -0.1879
  526ccc     H314756   1.992   3.070   8.105  2.5134 -3.5123  2.2847
  526ccc     H414757   1.835   2.816   8.130 -1.0309  1.7498  0.2119
  526ccc     H514758   1.730   2.999   8.261  0.5080 -0.6949 -0.9519
  526ccc     O114759   1.803   3.200   8.247  0.1416 -0.4737 -0.2772
  526ccc     O214760   1.807   3.053   8.002  0.1440 -1.0690  0.2978
  526ccc     O314761   1.995   2.822   7.991  0.0476  0.7897  0.3265
  526ccc     O414762   2.141   2.912   8.232  0.5733  0.0798  0.1989
  526ccc     C614763   2.034   2.860   8.497 -0.3532  0.0820  0.1548
  526ccc     H614764   2.008   2.727   8.010 -0.1151  1.1823  2.6676
  526ccc     H714765   2.190   2.861   8.165 -0.9370  0.9752 -1.6797
  526ccc     H814766   1.858   3.046   7.920  1.3929 -1.2806  1.0787
  526ccc     H914767   2.119   2.929   8.493  1.1864 -1.7962 -1.7972
  526ccc    H1014768   2.073   2.757   8.493 -0.4354  0.0837 -0.8999
  526ccc     O514769   1.951   2.874   8.609  0.7428  0.1888  0.3800
  526ccc    H1114770   1.920   2.784   8.628 -0.1257  0.5321  0.6280
  526ccc     O614771   1.912   3.023   8.356  0.1542  0.4196 -0.5471
  527ccc     C114772   5.637   2.530   8.127  0.2585 -0.0789 -0.0260
  527ccc     C214773   5.673   2.454   7.998  0.4177 -0.1924  0.5187
  527ccc     H114774   5.544   2.586   8.109  0.1534  0.1826  1.2696
  527ccc     H214775   5.581   2.405   7.965  0.1654 -0.7861  2.0052
  527ccc     C314776   5.735   2.553   7.890 -0.2068 -0.5913 -0.1931
  527ccc     C414777   5.840   2.649   7.951  0.0403 -0.2997  0.4150
  527ccc     C514778   5.789   2.722   8.075  0.0449  0.6563  0.1556
  527ccc     H314779   5.926   2.586   7.978  0.5149  0.2840  0.2856
  527ccc     H414780   5.655   2.615   7.847  0.1942 -0.6825 -1.0942
  527ccc     H514781   5.707   2.789   8.045 -0.8918  0.2377  1.6775
  527ccc     O114782   5.887   2.816   8.130 -0.3702  0.1918 -0.3071
  527ccc     O214783   5.886   2.747   7.860  0.0849 -0.2253 -0.1525
  527ccc     O314784   5.795   2.463   7.798 -0.1300 -0.1318 -0.0966
  527ccc     O414785   5.772   2.351   8.021 -0.0874  0.2446  0.2934
  527ccc     C614786   5.599   2.437   8.236  0.4917 -0.2790  0.4587
  527ccc     H614787   5.771   2.499   7.710  0.0638 -0.7627 -0.4169
  527ccc     H714788   5.823   2.375   7.942  1.3934 -0.7823  0.8966
  527ccc     H814789   5.970   2.783   7.894 -0.4159 -0.6460  1.6248
  527ccc     H914790   5.690   2.415   8.293  0.2491 -1.1758  0.5292
  527ccc    H1014791   5.545   2.349   8.199 -0.6683  0.2843  0.7849
  527ccc     O514792   5.498   2.495   8.325 -0.0204 -0.1261  0.1131
  527ccc    H1114793   5.538   2.575   8.363 -3.0430  1.3146  0.5887
  527ccc     O614794   5.744   2.616   8.170 -0.2522 -0.3735  0.1630
  528ccc     C114795   6.711   2.980   8.629  0.4942  0.7596 -0.2078
  528ccc     C214796   6.773   2.943   8.491  0.1265 -0.2798 -0.0580
  528ccc     H114797   6.753   2.918   8.709  2.0167 -0.0555 -1.5696
  528ccc     H214798   6.882   2.948   8.501  0.2920 -3.5443  0.8763
  528ccc     C314799   6.737   2.794   8.467 -0.4739 -0.4151  0.0354
  528ccc     C414800   6.578   2.761   8.470  0.1002 -0.4700 -0.0508
  528ccc     C514801   6.520   2.811   8.603  0.0102 -0.1708 -0.3262
  528ccc     H314802   6.518   2.800   8.387  0.9434 -0.1907 -0.5320
  528ccc     H414803   6.775   2.745   8.557 -0.0726 -2.9405 -1.4079
  528ccc     H514804   6.544   2.748   8.689 -0.0407  0.6772  0.3192
  528ccc     O114805   6.377   2.812   8.592  0.2921 -0.3317 -0.0558
  528ccc     O214806   6.560   2.616   8.458  0.0740  0.5047 -0.4477
  528ccc     O314807   6.798   2.739   8.349 -0.0766 -0.5632  0.4427
  528ccc     O414808   6.723   3.036   8.403 -0.3165  0.0800  0.1091
  528ccc     C614809   6.730   3.126   8.660  0.7467  0.7430  0.2441
  528ccc     H614810   6.886   2.703   8.371  0.1015  0.4808  1.5702
  528ccc     H714811   6.792   3.056   8.338 -0.5555  0.8869  0.0885
  528ccc     H814812   6.613   2.583   8.384  0.1011  0.5463 -0.4472
  528ccc     H914813   6.660   3.189   8.603  0.5975 -0.5564 -1.0894
  528ccc    H1014814   6.835   3.147   8.636  1.5449 -1.5035  1.4484
  528ccc     O514815   6.712   3.138   8.798 -0.2819 -0.2273  0.5325
  528ccc    H1114816   6.733   3.232   8.811  1.2633 -0.2801 -1.1236
  528ccc     O614817   6.567   2.947   8.615 -0.2735 -0.3033  0.5846
  529ccc     C114818   5.856   4.386   7.820 -0.4740 -0.5273 -0.8005
  529ccc     C214819   5.721   4.416   7.749  0.4525 -0.0428  0.0223
  529ccc     H114820   5.938   4.390   7.746  1.7651  0.1737  1.5582
  529ccc     H214821   5.729   4.513   7.698 -1.8038  0.6036  0.8037
  529ccc     C314822   5.698   4.312   7.640 -0.2667 -0.7591  0.1480
  529ccc     C414823   5.688   4.167   7.707  0.2046 -0.2299 -0.2519
  529ccc     C514824   5.822   4.145   7.781  0.7679  0.5103 -0.4436
  529ccc     H314825   5.605   4.158   7.779 -1.8593 -0.3025 -2.5037
  529ccc     H414826   5.791   4.312   7.581 -0.1286 -0.2155  0.3663
  529ccc     H514827   5.897   4.141   7.701  2.2498 -1.4679  0.9595
  529ccc     O114828   5.816   4.016   7.847  0.5936 -0.7898 -0.5974
  529ccc     O214829   5.662   4.073   7.599  0.7751  0.4453  0.1297
  529ccc     O314830   5.585   4.353   7.568 -0.1015  0.1449  0.3448
  529ccc     O414831   5.611   4.413   7.841 -0.4090 -0.1323  0.6815
  529ccc     C614832   5.891   4.474   7.936 -0.8312 -0.8861  0.5642
  529ccc     H614833   5.610   4.414   7.496 -0.2567  1.2684  1.2115
  529ccc     H714834   5.544   4.442   7.776  0.5372 -1.4579 -0.9776
  529ccc     H814835   5.596   4.116   7.543 -1.2891 -0.1517  1.9940
  529ccc     H914836   5.912   4.579   7.910 -1.7900 -0.8569 -0.1680
  529ccc    H1014837   5.987   4.446   7.979  0.7208  0.0895 -2.0459
  529ccc     O514838   5.785   4.483   8.027 -0.1270 -0.2647  0.2331
  529ccc    H1114839   5.721   4.441   7.967  1.4854 -0.3843 -1.4933
  529ccc     O614840   5.850   4.253   7.876 -0.6146 -0.4215  0.2048
  530ccc     C114841   5.775   3.818   8.783 -0.0996 -0.1289 -0.5065
  530ccc     C214842   5.807   3.960   8.815 -0.8578 -0.1317 -0.3015
  530ccc     H114843   5.805   3.760   8.871 -0.1098 -1.9399 -1.6315
  530ccc     H214844   5.784   3.977   8.921 -0.1130  2.3955 -0.4634
  530ccc     C314845   5.957   3.991   8.817  0.4840  0.3410  0.7221
  530ccc     C414846   6.024   3.947   8.687  0.5002 -0.7046 -0.3535
  530ccc     C514847   5.984   3.800   8.653 -0.1011 -0.0948 -0.6365
  530ccc     H314848   5.983   4.010   8.607  0.3020 -0.5664 -0.1436
  530ccc     H414849   5.998   3.923   8.893  0.6852 -1.4092 -0.8692
  530ccc     H514850   6.033   3.732   8.723  0.3913 -0.5465 -1.4057
  530ccc     O114851   6.035   3.777   8.513  0.0181 -0.4650  0.3503
  530ccc     O214852   6.164   3.965   8.695 -0.3200  0.2610  0.2300
  530ccc     O314853   5.990   4.129   8.846  0.7128  0.1906  0.2876
  530ccc     O414854   5.736   4.048   8.733  0.0119 -0.1669  0.2251
  530ccc     C614855   5.619   3.790   8.768  0.0170 -0.3569  0.0701
  530ccc     H614856   5.940   4.184   8.783  0.8607  0.6911  0.6035
  530ccc     H714857   5.676   4.096   8.792 -0.0394 -0.8550  0.7357
  530ccc     H814858   6.194   3.916   8.774  2.8020  2.2330  0.4023
  530ccc     H914859   5.589   3.833   8.672  0.0749 -0.4310  0.0182
  530ccc    H1014860   5.563   3.835   8.851 -0.9544 -0.9048 -0.2699
  530ccc     O514861   5.611   3.651   8.755 -0.3252 -0.0050 -0.0610
  530ccc    H1114862   5.654   3.616   8.835  0.7901 -1.9664 -1.4409
  530ccc     O614863   5.845   3.783   8.653  0.3248 -0.2017 -0.3489
  531ccc     C114864   4.232   2.181   9.218 -0.0162  0.1543  0.4734
  531ccc     C214865   4.313   2.096   9.319 -0.5314 -0.8682  0.4236
  531ccc     H114866   4.154   2.123   9.167  1.0418  0.0603 -1.0970
  531ccc     H214867   4.242   2.038   9.379 -1.4521  0.5028  0.7020
  531ccc     C314868   4.407   1.997   9.239  1.0037 -0.2581 -0.7950
  531ccc     C414869   4.494   2.076   9.130 -0.4286  0.2125 -0.2144
  531ccc     C514870   4.411   2.176   9.041  0.1116  0.6735 -0.2370
  531ccc     H314871   4.575   2.126   9.184  0.9713 -1.6671 -0.4890
  531ccc     H414872   4.340   1.925   9.190 -0.0335 -0.1965  0.4631
  531ccc     H514873   4.345   2.120   8.974  0.1243  0.8670 -0.4119
  531ccc     O114874   4.499   2.272   8.969  0.0709  0.3066 -0.2620
  531ccc     O214875   4.559   1.964   9.057  1.1294 -0.5263 -0.2363
  531ccc     O314876   4.499   1.925   9.322  0.6539 -0.7989  0.1049
  531ccc     O414877   4.392   2.187   9.395  0.1687 -0.4656  0.1610
  531ccc     C614878   4.155   2.281   9.298  0.1397 -0.2831  0.8700
  531ccc     H614879   4.529   1.860   9.257  0.1620 -0.7849 -0.1381
  531ccc     H714880   4.447   2.137   9.458  0.4549  1.1893  1.2785
  531ccc     H814881   4.490   1.912   9.012 -0.6712  0.9258  0.6781
  531ccc     H914882   4.215   2.368   9.329 -1.0258  0.0852  2.2009
  531ccc    H1014883   4.108   2.235   9.385 -2.3879  0.7787  0.1623
  531ccc     O514884   4.052   2.328   9.214  0.0610 -0.4667  0.1610
  531ccc    H1114885   4.089   2.356   9.128 -2.2355 -1.5156 -1.2378
  531ccc     O614886   4.321   2.247   9.125  0.8590 -0.1198 -0.1177
  532ccc     C114887   4.279   3.148   8.517 -0.1890  0.5705 -0.2773
  532ccc     C214888   4.145   3.237   8.520 -0.5091  0.1177  0.5772
  532ccc     H114889   4.254   3.048   8.478  1.9882  1.0670 -3.3012
  532ccc     H214890   4.093   3.234   8.424 -0.1451  2.4203  0.2608
  532ccc     C314891   4.049   3.192   8.624 -0.1481  0.4894 -0.4128
  532ccc     C414892   4.125   3.168   8.758  0.2515  0.3285  0.3118
  532ccc     C514893   4.241   3.062   8.746  0.8392  0.4442  0.4907
  532ccc     H314894   4.170   3.266   8.779  0.8530 -0.0784  0.9463
  532ccc     H414895   3.995   3.101   8.593 -0.6618 -0.4601  2.8847
  532ccc     H514896   4.207   2.962   8.717 -0.6759  1.3184 -0.9246
  532ccc     O114897   4.320   3.070   8.870  0.0737  0.4394  0.1909
  532ccc     O214898   4.025   3.133   8.859 -0.5119 -0.4640  0.3181
  532ccc     O314899   3.939   3.278   8.651 -0.1092  0.3293 -0.1730
  532ccc     O414900   4.189   3.370   8.555 -0.7625 -0.3662  0.4017
  532ccc     C614901   4.392   3.190   8.428 -0.2874 -0.1510  0.1457
  532ccc     H614902   3.867   3.266   8.588  1.3155  0.6428 -1.9322
  532ccc     H714903   4.114   3.419   8.517  0.6629 -0.1286 -2.4196
  532ccc     H814904   3.945   3.174   8.819 -0.4040 -0.0779  0.4928
  532ccc     H914905   4.364   3.203   8.323  0.5148  0.2335 -0.0343
  532ccc    H1014906   4.475   3.120   8.442 -0.1400  0.0864  0.4587
  532ccc     O514907   4.433   3.318   8.475  0.7789  0.7044  0.4044
  532ccc    H1114908   4.350   3.359   8.504  0.8439  1.5989 -0.6114
  532ccc     O614909   4.324   3.121   8.649  0.3462 -0.1473 -0.0477
  533ccc     C114910   4.035   2.189   7.870  0.0306  0.4590  0.5623
  533ccc     C214911   4.082   2.298   7.764  0.5871 -0.0384 -0.0525
  533ccc     H114912   3.987   2.237   7.956  2.4756  0.7948  1.8195
  533ccc     H214913   3.994   2.361   7.747  0.1071 -0.3737  1.0886
  533ccc     C314914   4.185   2.400   7.816  0.5686 -0.0709 -0.0791
  533ccc     C414915   4.305   2.322   7.881 -0.9131  0.2205  0.0964
  533ccc     C514916   4.256   2.212   7.976  0.1275  0.0224  0.1850
  533ccc     H314917   4.344   2.270   7.793 -2.2425  0.0365 -0.4059
  533ccc     H414918   4.133   2.456   7.895  1.1453 -0.5549  0.6541
  533ccc     H514919   4.225   2.259   8.069  0.5549 -0.2425  0.4633
  533ccc     O114920   4.369   2.127   8.002  0.1800  0.1647 -0.6368
  533ccc     O214921   4.387   2.422   7.944  0.0000 -0.6890  0.0464
  533ccc     O314922   4.217   2.479   7.706 -0.1743 -0.6301  0.1871
  533ccc     O414923   4.130   2.227   7.652  0.1512  0.1427  0.1391
  533ccc     C614924   3.943   2.078   7.810 -0.0690  0.4358  0.2874
  533ccc     H614925   4.310   2.509   7.713 -0.5208  0.1351  1.8914
  533ccc     H714926   4.161   2.299   7.595  1.3469  2.1035  3.0015
  533ccc     H814927   4.433   2.380   8.019  0.5389 -0.8974 -0.4006
  533ccc     H914928   4.013   1.998   7.782 -1.4568 -0.9897  0.7231
  533ccc    H1014929   3.880   2.110   7.726 -1.9950 -3.6660 -0.0864
  533ccc     O514930   3.858   2.034   7.920 -0.3923  0.4387 -0.2450
  533ccc    H1114931   3.915   1.995   7.988 -2.3037 -0.9385  0.6636
  533ccc     O614932   4.153   2.123   7.925 -0.3417 -0.4688 -0.2577
  534ccc     C114933   4.418   1.013   7.902  0.4184  0.3470 -0.0021
  534ccc     C214934   4.266   0.992   7.913 -0.0034 -0.9617  0.0168
  534ccc     H114935   4.461   0.946   7.978  1.8725  0.0305 -1.0584
  534ccc     H214936   4.243   0.887   7.891 -1.3020 -0.5991 -0.4498
  534ccc     C314937   4.226   1.042   8.057 -0.2636  1.2385  0.6060
  534ccc     C414938   4.279   1.179   8.091  0.7236  0.0412 -1.0740
  534ccc     C514939   4.429   1.198   8.064  0.3030 -0.0064  0.1528
  534ccc     H314940   4.228   1.250   8.026  2.0213  0.8577 -1.2391
  534ccc     H414941   4.273   0.982   8.136 -0.7678 -0.6399 -0.4503
  534ccc     H514942   4.493   1.150   8.139 -0.1817  1.5511  1.6233
  534ccc     O114943   4.461   1.335   8.069  0.3670  0.4538  0.8092
  534ccc     O214944   4.248   1.198   8.239 -0.1923 -0.2010  0.0190
  534ccc     O314945   4.087   1.022   8.085 -0.0054  0.2046  0.2620
  534ccc     O414946   4.212   1.087   7.808  0.0537 -0.1619  0.1853
  534ccc     C614947   4.490   0.951   7.775  0.3924 -0.8692  0.4778
  534ccc     H614948   4.081   1.047   8.179  1.5856 -0.4554  0.5737
  534ccc     H714949   4.286   1.077   7.745 -0.6553  0.2332 -0.7400
  534ccc     H814950   4.157   1.232   8.244  0.0782  0.4347  1.0896
  534ccc     H914951   4.484   0.842   7.784  1.6804 -1.0164 -0.0919
  534ccc    H1014952   4.598   0.971   7.769  0.6418 -1.8974  1.2047
  534ccc     O514953   4.422   1.008   7.666 -0.3207 -0.2246 -0.3111
  534ccc    H1114954   4.447   0.950   7.591 -1.3860 -0.2419 -0.6646
  534ccc     O614955   4.462   1.145   7.931 -0.5777  0.0583  0.0245
  535ccc     C114956   4.220   2.760   9.314 -0.5383  0.4464 -0.3636
  535ccc     C214957   4.133   2.731   9.191 -0.2716  0.3833 -0.3083
  535ccc     H114958   4.161   2.778   9.405  1.1699  1.0160  0.6813
  535ccc     H214959   4.061   2.653   9.217  1.7148 -1.6053 -0.5083
  535ccc     C314960   4.053   2.858   9.150 -0.7378  0.0607 -0.3624
  535ccc     C414961   4.152   2.983   9.133  0.4382  0.3239 -0.1376
  535ccc     C514962   4.245   3.008   9.254  0.2190  0.6426 -0.9579
  535ccc     H314963   4.214   2.969   9.044  1.1850  2.1442  0.0499
  535ccc     H414964   3.994   2.888   9.238 -1.4549  1.6292 -1.3198
  535ccc     H514965   4.183   3.041   9.338 -0.2163  0.5514 -1.2398
  535ccc     O114966   4.349   3.104   9.220 -0.1570  0.5583 -0.2522
  535ccc     O214967   4.075   3.102   9.106  0.1874  0.1358 -0.2142
  535ccc     O314968   3.969   2.833   9.034  0.4690 -0.2184 -0.0104
  535ccc     O414969   4.220   2.681   9.089  0.3155  1.0232  0.3224
  535ccc     C614970   4.310   2.644   9.361 -0.2424  0.3942  0.1495
  535ccc     H614971   4.020   2.816   8.952 -0.2745  2.7428 -1.2012
  535ccc     H714972   4.302   2.657   9.135 -0.4223  1.4225  1.8928
  535ccc     H814973   4.054   3.101   9.011  0.1832 -2.2673 -0.2438
  535ccc     H914974   4.258   2.555   9.399 -1.2898  1.2159  0.6803
  535ccc    H1014975   4.376   2.665   9.446  0.7055 -1.8386  0.0238
  535ccc     O514976   4.396   2.609   9.257  0.1996  0.0899  0.1283
  535ccc    H1114977   4.456   2.538   9.287 -0.3380  0.1789  1.4504
  535ccc     O614978   4.298   2.879   9.292 -0.4926  0.2940  0.0642
  536ccc     C114979   5.579   3.112   9.424  0.3263  0.6218 -0.3284
  536ccc     C214980   5.622   2.962   9.411  0.2692 -0.1574 -0.1457
  536ccc     H114981   5.599   3.140   9.528 -1.0693  2.6330 -0.5412
  536ccc     H214982   5.724   2.943   9.447  0.3730 -0.1099 -0.4132
  536ccc     C314983   5.526   2.867   9.495 -0.3356  0.1417 -0.0211
  536ccc     C414984   5.381   2.885   9.438  0.2064  0.3864 -0.3444
  536ccc     C514985   5.346   3.035   9.463 -0.6575 -0.0952 -0.1731
  536ccc     H314986   5.383   2.864   9.330  0.3501 -1.5280 -0.0078
  536ccc     H414987   5.535   2.895   9.600  2.6591  0.7116 -0.3158
  536ccc     H514988   5.360   3.060   9.568  0.9808 -0.0485 -0.3812
  536ccc     O114989   5.215   3.060   9.411  0.4300 -0.1241 -0.3667
  536ccc     O214990   5.297   2.785   9.508  0.4014  0.0065  0.2795
  536ccc     O314991   5.561   2.724   9.491  0.2388  0.4607  0.0387
  536ccc     O414992   5.605   2.919   9.270 -0.1510 -0.3666  0.5682
  536ccc     C614993   5.669   3.205   9.334  0.8705  0.0554  0.6048
  536ccc     H614994   5.490   2.679   9.541 -0.4517  0.7182 -0.6752
  536ccc     H714995   5.607   3.001   9.218 -0.3454 -0.1820  0.8440
  536ccc     H814996   5.217   2.773   9.454  0.1552  0.2756  0.5725
  536ccc     H914997   5.767   3.196   9.382  0.4499 -0.3749  1.3926
  536ccc    H1014998   5.628   3.306   9.342  1.0619  0.2553 -0.6341
  536ccc     O514999   5.682   3.162   9.196  0.6493 -0.0599 -0.5964
  536ccc    H1115000   5.767   3.207   9.181 -0.1276  1.8621  0.4844
  536ccc     O615001   5.434   3.120   9.392 -0.3987 -0.5676 -0.3069
  537ccc     C115002   4.103   2.837  10.516 -0.0834  0.3781 -0.3389
  537ccc     C215003   3.961   2.766  10.499 -0.7937 -0.1935  0.0710
  537ccc     H115004   4.105   2.885  10.615 -1.1043 -0.3448  0.0533
  537ccc     H215005   3.948   2.690  10.578 -0.0024 -1.6590 -1.1531
  537ccc     C315006   3.840   2.862  10.507 -0.1255 -0.0352  0.6366
  537ccc     C415007   3.868   2.993  10.417 -0.8151  1.2208  0.1884
  537ccc     C515008   4.011   3.049  10.432 -0.3138 -0.1186  0.1013
  537ccc     H315009   3.862   2.954  10.314 -0.9265  0.2110  0.5643
  537ccc     H415010   3.844   2.897  10.611  1.0285  0.5685  0.4059
  537ccc     H515011   4.011   3.094  10.532  1.0368 -1.5507  0.7924
  537ccc     O115012   4.031   3.149  10.331 -0.4026 -0.1486 -0.5584
  537ccc     O215013   3.761   3.080  10.445 -0.3239  0.1269 -0.1934
  537ccc     O315014   3.716   2.799  10.480 -0.1824  0.2937 -0.4002
  537ccc     O415015   3.967   2.700  10.377  0.0340  0.1679  0.0703
  537ccc     C615016   4.225   2.741  10.510  0.5784  0.5628 -0.2553
  537ccc     H615017   3.670   2.803  10.566 -0.2401  0.0279 -0.4171
  537ccc     H715018   4.062   2.682  10.364 -0.1426 -0.5459 -0.2972
  537ccc     H815019   3.686   3.020  10.431  0.1726 -1.2347  2.3119
  537ccc     H915020   4.207   2.668  10.589  0.7330  1.4860  0.6506
  537ccc    H1015021   4.320   2.792  10.531  1.0123  0.0769 -0.9568
  537ccc     O515022   4.228   2.677  10.383 -0.6413  0.4721 -0.0010
  537ccc    H1115023   4.315   2.636  10.369 -0.4839  1.1534 -1.1715
  537ccc     O615024   4.116   2.950  10.429 -1.0560  0.5916 -0.3320
  538ccc     C115025   3.788   3.850   9.931 -0.2332 -0.4372 -0.5332
  538ccc     C215026   3.813   3.906  10.077  0.2310 -0.3251 -0.1058
  538ccc     H115027   3.689   3.880   9.896  0.4692  2.2707 -0.4088
  538ccc     H215028   3.785   4.012  10.075  1.9001  0.1592  0.2201
  538ccc     C315029   3.733   3.843  10.187  0.1746 -0.2128  0.5478
  538ccc     C415030   3.739   3.687  10.188  0.9308 -0.3126  0.5939
  538ccc     C515031   3.726   3.635  10.041  0.2839  1.1357  0.0940
  538ccc     H315032   3.837   3.651  10.221  1.8569 -0.7773 -2.3336
  538ccc     H415033   3.628   3.862  10.161  0.4713 -1.1000 -1.5206
  538ccc     H515034   3.622   3.639  10.008 -0.2457 -2.1027  1.0563
  538ccc     O115035   3.770   3.494  10.034 -0.4546 -0.2188  0.0879
  538ccc     O215036   3.628   3.643  10.271  0.0231 -0.6155 -0.1454
  538ccc     O315037   3.762   3.891  10.315 -0.7023 -0.3618  0.7655
  538ccc     O415038   3.946   3.882  10.102 -0.1427 -0.1836  0.0657
  538ccc     C615039   3.892   3.909   9.837  0.1037  0.2594  0.4368
  538ccc     H615040   3.681   3.900  10.368 -0.8123  1.8778  0.3080
  538ccc     H715041   3.972   3.951  10.165 -0.5906 -0.4297  0.5260
  538ccc     H815042   3.644   3.666  10.364 -0.1355 -2.1716  0.2826
  538ccc     H915043   3.988   3.858   9.854 -0.7265 -1.0025  1.5547
  538ccc    H1015044   3.912   4.016   9.843 -0.7860  0.5734 -1.4079
  538ccc     O515045   3.858   3.866   9.704 -0.5842 -0.4373  0.3153
  538ccc    H1115046   3.856   3.770   9.714 -0.2616 -0.4670  0.1394
  538ccc     O615047   3.810   3.704   9.933 -0.0105 -0.4728 -0.4713
  539ccc     C115048   3.927   5.877   8.884  0.5315 -0.1992 -0.1784
  539ccc     C215049   3.820   5.845   8.783  0.7696  0.0511  0.0009
  539ccc     H115050   3.946   5.984   8.872 -0.9020  0.0566 -0.3852
  539ccc     H215051   3.748   5.927   8.794 -0.8357 -1.1504 -1.0276
  539ccc     C315052   3.883   5.856   8.637 -0.5378 -1.1748 -0.4234
  539ccc     C415053   4.013   5.776   8.622 -0.1034  0.0047 -0.1487
  539ccc     C515054   4.117   5.814   8.734 -0.6344  0.4749 -0.5109
  539ccc     H315055   3.977   5.672   8.622 -0.2922  0.0677 -0.1607
  539ccc     H415056   3.909   5.962   8.628 -1.9813 -0.8471 -1.1369
  539ccc     H515057   4.147   5.919   8.727  0.3271  0.2693  0.3673
  539ccc     O115058   4.230   5.719   8.728  0.5496 -0.3791 -0.6205
  539ccc     O215059   4.057   5.807   8.489 -0.1483 -0.4883 -0.0108
  539ccc     O315060   3.792   5.832   8.532  0.0652  0.5617 -0.0936
  539ccc     O415061   3.773   5.709   8.810 -0.7436 -0.0972  0.5648
  539ccc     C615062   3.871   5.851   9.025 -0.4307 -0.3101 -0.5888
  539ccc     H615063   3.720   5.897   8.534  2.2874  3.2370  1.3452
  539ccc     H715064   3.693   5.702   8.754  0.2318  2.8637 -1.4106
  539ccc     H815065   3.969   5.792   8.450 -1.7953 -0.6098  3.3677
  539ccc     H915066   3.864   5.745   9.051 -0.2908  0.0163  0.9121
  539ccc    H1015067   3.770   5.891   9.044 -0.8114 -1.2585 -0.5635
  539ccc     O515068   3.968   5.916   9.109 -0.2440 -0.5278 -0.4781
  539ccc    H1115069   4.056   5.896   9.073 -0.3184 -1.3337 -0.2240
  539ccc     O615070   4.044   5.796   8.859 -0.2131 -0.1284  0.9140
  540ccc     C115071   4.258   5.893   9.243  0.7954 -0.1575  0.0460
  540ccc     C215072   4.329   5.885   9.374 -0.7661 -0.6656 -0.3470
  540ccc     H115073   4.158   5.934   9.260  0.6725  1.1228 -3.1463
  540ccc     H215074   4.341   5.988   9.409  1.2212 -0.8969 -0.2276
  540ccc     C315075   4.265   5.792   9.480  0.6458 -0.9352 -0.2514
  540ccc     C415076   4.248   5.647   9.419 -0.7164  0.2089 -0.2944
  540ccc     C515077   4.180   5.656   9.275 -0.5587  0.6521 -0.1163
  540ccc     H315078   4.343   5.595   9.400 -0.4642 -0.0339  1.5183
  540ccc     H415079   4.169   5.838   9.507  1.8974  0.9906  1.2031
  540ccc     H515080   4.074   5.682   9.282 -1.1890 -1.8706  0.9035
  540ccc     O115081   4.194   5.527   9.205 -0.0551 -0.0420  0.4420
  540ccc     O215082   4.182   5.563   9.513  0.4305  0.2802  0.2978
  540ccc     O315083   4.344   5.777   9.598  0.4828  0.7316 -0.1052
  540ccc     O415084   4.467   5.838   9.343 -0.0741  0.1591  0.0849
  540ccc     C615085   4.312   5.975   9.129 -0.2700  0.2271  0.9261
  540ccc     H615086   4.353   5.866   9.636  0.3997  0.5650  0.3013
  540ccc     H715087   4.512   5.850   9.429 -0.0260 -1.3758  0.3093
  540ccc     H815088   4.218   5.587   9.600 -0.0507 -1.3968  0.9908
  540ccc     H915089   4.403   5.929   9.089 -0.4446  2.0953 -1.9850
  540ccc    H1015090   4.341   6.077   9.155  0.3153  0.0130  1.1121
  540ccc     O515091   4.212   5.973   9.024 -0.5254 -0.2314  0.4182
  540ccc    H1115092   4.254   6.028   8.955  1.5616  0.4727  2.1308
  540ccc     O615093   4.250   5.753   9.191 -0.1805 -0.1772 -0.5161
  541ccc     C115094   5.529   5.003   9.890  0.4663  0.0243  0.4414
  541ccc     C215095   5.562   5.129   9.971 -0.5496  0.1690  0.4260
  541ccc     H115096   5.621   4.976   9.836 -1.1294 -2.0443 -1.4236
  541ccc     H215097   5.661   5.111  10.015  0.6245  2.1311 -1.2317
  541ccc     C315098   5.575   5.253   9.890 -0.6327 -0.3355  0.0499
  541ccc     C415099   5.449   5.257   9.790 -0.2343 -0.0338 -0.4986
  541ccc     C515100   5.427   5.124   9.711 -0.6040  0.1086 -0.0164
  541ccc     H315101   5.361   5.268   9.855 -2.1837 -1.5588 -2.6998
  541ccc     H415102   5.672   5.246   9.838 -1.1801 -0.8055 -0.9552
  541ccc     H515103   5.511   5.101   9.644 -1.6531  1.1741 -1.7758
  541ccc     O115104   5.309   5.134   9.636 -0.1383 -0.0814  0.8047
  541ccc     O215105   5.471   5.374   9.711  0.1938  0.0125  0.7209
  541ccc     O315106   5.574   5.360   9.987  0.2522 -0.0571  0.0310
  541ccc     O415107   5.459   5.145  10.066 -0.2511 -0.3895  0.0315
  541ccc     C615108   5.501   4.876   9.978 -0.0610  0.4039  0.1958
  541ccc     H615109   5.651   5.353  10.045  0.6869 -2.4378 -0.7313
  541ccc     H715110   5.504   5.214  10.117  0.6973 -2.0171  1.5091
  541ccc     H815111   5.568   5.386   9.708  0.0478  1.2186  0.6023
  541ccc     H915112   5.409   4.875  10.038  0.1171  1.1320  0.4958
  541ccc    H1015113   5.587   4.861  10.043  0.4832 -0.3647 -0.6791
  541ccc     O515114   5.510   4.756   9.899  0.3101 -1.0709  0.2166
  541ccc    H1115115   5.431   4.765   9.843  0.6520  0.3993 -0.0787
  541ccc     O615116   5.413   5.021   9.805 -0.7054 -0.0656  0.1105
  542ccc     C115117   4.875   5.960   9.535 -0.5389  0.0449 -0.0083
  542ccc     C215118   4.999   6.007   9.470 -0.2603 -0.9893  0.7867
  542ccc     H115119   4.885   6.003   9.636 -0.9414 -1.3908  0.6637
  542ccc     H215120   5.013   6.112   9.497  0.0698 -1.3205  1.9529
  542ccc     C315121   5.128   5.934   9.527  0.6257  0.1107 -0.2843
  542ccc     C415122   5.118   5.783   9.536  0.6107 -0.3605 -0.4332
  542ccc     C515123   4.990   5.756   9.608  1.2322 -0.2878 -0.2807
  542ccc     H315124   5.104   5.747   9.434  0.5614 -0.9670 -0.2187
  542ccc     H415125   5.132   5.961   9.633 -0.5264 -2.0670  0.3740
  542ccc     H515126   4.996   5.795   9.711 -1.6119 -2.0938  0.7040
  542ccc     O115127   4.975   5.610   9.613  0.7542 -0.2768  0.6682
  542ccc     O215128   5.233   5.733   9.605 -0.1506  0.1880  0.5760
  542ccc     O315129   5.256   5.975   9.476 -0.2544  0.0760 -0.7421
  542ccc     O415130   4.983   6.009   9.329  0.0880  0.3625  0.1504
  542ccc     C615131   4.740   6.009   9.474 -0.2956  0.6761  0.9545
  542ccc     H615132   5.312   5.896   9.485  0.3101  0.6884  2.1995
  542ccc     H715133   4.992   6.103   9.305 -0.8778  0.4976  0.2577
  542ccc     H815134   5.227   5.637   9.593  1.1635  0.0798  0.6565
  542ccc     H915135   4.732   5.962   9.375  1.0199 -0.7624  1.4892
  542ccc    H1015136   4.724   6.117   9.460  0.2273  0.6309 -0.1026
  542ccc     O515137   4.638   5.955   9.557  0.0768 -0.1312  0.0597
  542ccc    H1115138   4.675   5.934   9.644 -3.7994  0.8160  2.1761
  542ccc     O615139   4.879   5.817   9.543  0.1859  0.3163  0.4356
  543ccc     C115140   0.660   3.198   6.618  0.1515  0.4526  0.3205
  543ccc     C215141   0.614   3.086   6.720 -0.5527 -0.8340 -0.0641
  543ccc     H115142   0.636   3.155   6.520 -0.9941 -1.4472  1.3911
  543ccc     H215143   0.505   3.074   6.714 -0.7971  1.3004 -1.3836
  543ccc     C315144   0.682   2.953   6.692 -0.0824  0.0648  0.0023
  543ccc     C415145   0.837   2.970   6.695 -0.7842  0.0597 -0.8617
  543ccc     C515146   0.887   3.095   6.614  0.0497 -0.0887 -0.1702
  543ccc     H315147   0.867   2.992   6.798 -0.0143 -2.0862 -0.5716
  543ccc     H415148   0.650   2.911   6.597 -1.2274 -0.5882  0.6612
  543ccc     H515149   0.896   3.071   6.508 -0.8516  2.1199 -0.7927
  543ccc     O115150   1.015   3.125   6.657 -0.2511 -0.8132 -0.6977
  543ccc     O215151   0.905   2.845   6.660 -0.6392 -0.2876  0.0772
  543ccc     O315152   0.645   2.850   6.787  0.0632  0.0908 -0.0717
  543ccc     O415153   0.653   3.135   6.844  0.0651 -0.2783 -0.2488
  543ccc     C615154   0.593   3.331   6.625  0.6389  0.4185 -0.5957
  543ccc     H615155   0.680   2.867   6.877 -0.6271 -3.7759  1.1294
  543ccc     H715156   0.664   3.230   6.824  0.4805 -0.3404 -0.3053
  543ccc     H815157   0.867   2.770   6.709  0.1376 -2.7695 -2.8271
  543ccc     H915158   0.485   3.318   6.610  0.7925 -3.3369  0.5177
  543ccc    H1015159   0.635   3.392   6.545  1.0361  0.2694 -0.5069
  543ccc     O515160   0.611   3.392   6.756  0.1457  1.0332 -0.0667
  543ccc    H1115161   0.586   3.485   6.747  1.7090  1.6141  1.1674
  543ccc     O615162   0.802   3.214   6.645 -0.2518  0.3200 -0.4968
  544ccc     C115163   1.962   3.277   6.179  0.0190  0.0182  0.5086
  544ccc     C215164   1.972   3.205   6.044  0.2038 -0.0848  0.2502
  544ccc     H115165   2.029   3.236   6.255 -0.4511  0.2993  1.0804
  544ccc     H215166   2.077   3.210   6.011  0.0558  0.3434 -0.1601
  544ccc     C315167   1.916   3.059   6.062  0.0599 -0.4659  0.1356
  544ccc     C415168   1.773   3.060   6.124  0.1260 -0.0226  0.2291
  544ccc     C515169   1.764   3.141   6.261  0.1214 -0.1791  0.7090
  544ccc     H315170   1.697   3.101   6.057 -2.3034 -2.7162  1.0987
  544ccc     H415171   1.983   3.005   6.130 -0.8139 -0.3452  1.1244
  544ccc     H515172   1.824   3.085   6.333  1.0199 -1.2361 -0.8078
  544ccc     O115173   1.627   3.169   6.300  0.2425 -0.4459  0.1297
  544ccc     O215174   1.735   2.921   6.133 -0.1010 -0.0305 -0.3944
  544ccc     O315175   1.932   2.998   5.931  0.2933 -0.1491  0.3475
  544ccc     O415176   1.895   3.277   5.943 -0.0153  0.8444  0.2415
  544ccc     C615177   1.997   3.427   6.167 -0.0194  1.1940  0.6289
  544ccc     H615178   1.977   2.914   5.950  0.4154  0.1177  1.2856
  544ccc     H715179   1.894   3.210   5.873  1.1457 -0.9077  1.7822
  544ccc     H815180   1.640   2.912   6.151 -0.0357 -1.7109 -0.7372
  544ccc     H915181   1.907   3.484   6.142 -0.2592  0.9662  0.9541
  544ccc    H1015182   2.081   3.435   6.097 -0.3129  0.2771  0.1608
  544ccc     O515183   2.047   3.471   6.295 -0.1332 -0.0295 -0.1955
  544ccc    H1115184   2.052   3.567   6.281 -1.6125  0.3435  1.4943
  544ccc     O615185   1.818   3.275   6.227  0.1115  0.2087  0.2618
  545ccc     C115186   1.526   3.344   7.941 -0.9254 -0.1832 -0.2076
  545ccc     C215187   1.681   3.375   7.946  0.1085  0.1733  0.1305
  545ccc     H115188   1.510   3.237   7.923  0.5931 -0.3860 -0.5272
  545ccc     H215189   1.738   3.321   8.023 -0.4848  1.2907  1.4002
  545ccc     C315190   1.740   3.344   7.802  0.6471 -0.1158  0.4925
  545ccc     C415191   1.656   3.425   7.690  0.4515  0.3015  0.7301
  545ccc     C515192   1.504   3.382   7.700 -0.6606  0.1689 -0.3698
  545ccc     H315193   1.652   3.531   7.716  0.3517  0.2978  0.7326
  545ccc     H415194   1.735   3.236   7.781 -0.8623 -0.2716  1.5262
  545ccc     H515195   1.494   3.273   7.699  1.3179 -0.0692  0.8329
  545ccc     O115196   1.422   3.454   7.606 -0.0107 -0.1748 -0.4350
  545ccc     O215197   1.722   3.396   7.565  0.0691 -0.4940  0.1258
  545ccc     O315198   1.878   3.387   7.804 -0.1448 -0.2538  0.8580
  545ccc     O415199   1.699   3.507   7.981 -0.0052 -0.0906 -1.1351
  545ccc     C615200   1.452   3.377   8.073 -0.2255  0.0902  0.4247
  545ccc     H615201   1.928   3.339   7.872  0.6708  0.2874  0.6452
  545ccc     H715202   1.788   3.518   8.017 -0.8785 -0.2215  1.2095
  545ccc     H815203   1.809   3.441   7.574  0.0286 -0.6942  1.9152
  545ccc     H915204   1.492   3.312   8.152  2.0136  0.7273 -0.1245
  545ccc    H1015205   1.346   3.352   8.060 -0.3822 -0.7883  2.7720
  545ccc     O515206   1.456   3.515   8.097  0.7916  0.2123  0.1696
  545ccc    H1115207   1.535   3.539   8.045  0.9853 -1.4726 -0.3694
  545ccc     O615208   1.469   3.417   7.837  0.2308  0.1042  0.0023
  546ccc     C115209   0.797   3.547   7.688 -0.1327  0.5051  0.0708
  546ccc     C215210   0.654   3.570   7.645 -0.5148 -0.6445 -0.6298
  546ccc     H115211   0.809   3.619   7.770 -0.4916 -0.3716  0.9251
  546ccc     H215212   0.586   3.567   7.731 -2.6069  2.1160 -2.0441
  546ccc     C315213   0.648   3.719   7.594  0.3125  0.4454  0.3093
  546ccc     C415214   0.729   3.738   7.467 -0.1708  0.2540 -0.7073
  546ccc     C515215   0.876   3.688   7.504 -0.4068  0.2962 -0.7084
  546ccc     H315216   0.683   3.672   7.392  0.4828 -0.3958 -0.5408
  546ccc     H415217   0.696   3.787   7.667 -0.2755 -0.1032  1.2217
  546ccc     H515218   0.924   3.768   7.562 -1.4937 -0.3516  1.1509
  546ccc     O115219   0.946   3.662   7.374 -0.2700  0.5242 -0.0514
  546ccc     O215220   0.709   3.878   7.427 -0.5186 -0.0748 -0.7423
  546ccc     O315221   0.507   3.756   7.577 -0.7925  0.1137  0.1278
  546ccc     O415222   0.620   3.478   7.542 -0.1697  0.6275  0.0945
  546ccc     C615223   0.811   3.405   7.747  0.1134 -0.5481 -0.0329
  546ccc     H615224   0.470   3.698   7.508 -1.2907 -1.8599  1.9437
  546ccc     H715225   0.663   3.398   7.576  1.9632  1.9853  0.7623
  546ccc     H815226   0.616   3.888   7.453 -0.5879 -3.1826  0.6653
  546ccc     H915227   0.745   3.402   7.835  0.0370  0.8933 -0.0072
  546ccc    H1015228   0.915   3.400   7.782 -0.4314  0.2595  1.8593
  546ccc     O515229   0.773   3.306   7.658  0.0678  0.0686 -0.3565
  546ccc    H1115230   0.735   3.231   7.707 -0.6625 -0.1703 -1.2645
  546ccc     O615231   0.886   3.565   7.579  0.3812 -0.0755  0.3372
  547ccc     C115232   2.835   1.841   5.652  0.1398  0.1658 -0.1370
  547ccc     C215233   2.689   1.708   5.646 -0.6560  0.1784 -0.6219
  547ccc     H115234   2.873   1.836   5.755  0.0830  2.1491  0.0191
  547ccc     H215235   2.694   1.659   5.745 -0.0895  0.5777 -0.4444
  547ccc     C315236   2.501   1.768   5.610 -0.3843 -0.2821  0.0075
  547ccc     C415237   2.458   1.963   5.585 -0.2748  0.1485 -0.0438
  547ccc     C515238   2.609   2.095   5.603  0.2247  0.2270 -0.1099
  547ccc     H315239   2.418   1.973   5.483  2.4351 -0.2775 -1.2224
  547ccc     H415240   2.447   1.750   5.704  2.3916  0.7495  1.9689
  547ccc     H515241   2.584   2.145   5.697 -3.1229  0.2537 -0.9078
  547ccc     O115242   2.601   2.205   5.505 -0.0736 -0.5891 -0.2134
  547ccc     O215243   2.344   1.991   5.661 -0.2496  0.2038 -0.1888
  547ccc     O315244   2.433   1.691   5.504  0.8135 -0.0259  0.1681
  547ccc     O415245   2.729   1.595   5.554  0.8816 -0.0172 -0.0891
  547ccc     C615246   2.970   1.802   5.580  0.0390 -0.3218 -0.0561
  547ccc     H615247   2.338   1.697   5.527  1.3212 -1.6016  3.0003
  547ccc     H715248   2.654   1.532   5.553  2.3036 -1.8149  0.1536
  547ccc     H815249   2.406   1.978   5.735  0.7526 -0.2368 -1.0768
  547ccc     H915250   3.030   1.743   5.650 -0.2694  2.4508  2.7981
  547ccc    H1015251   3.022   1.897   5.559  1.6048 -1.2338 -0.4522
  547ccc     O515252   2.950   1.716   5.469  0.5219  0.3162  0.2458
  547ccc    H1115253   2.877   1.662   5.503 -0.2824  0.7683 -0.7178
  547ccc     O615254   2.786   2.029   5.633 -0.1180 -0.0078 -0.5519
  548ccc     C115255   1.920   2.363   4.881  0.4226  0.0723  0.0384
  548ccc     C215256   1.820   2.263   4.946 -0.7537 -0.3296  0.6978
  548ccc     H115257   1.992   2.305   4.823  0.3702 -0.2076  0.2460
  548ccc     H215258   1.772   2.210   4.863  0.0027  0.9406 -0.5914
  548ccc     C315259   1.892   2.170   5.046  0.5814 -0.3438 -0.0439
  548ccc     C415260   1.989   2.250   5.146  0.4020 -0.4080 -0.1277
  548ccc     C515261   2.076   2.354   5.072  0.2616  0.2507  0.4710
  548ccc     H315262   1.921   2.318   5.199  2.7313  1.4516  0.6160
  548ccc     H415263   1.956   2.109   4.982  0.6107  1.8447 -2.2803
  548ccc     H515264   2.157   2.300   5.021  0.8934  1.0479  0.6110
  548ccc     O115265   2.122   2.445   5.169  0.0059 -0.7165  0.5413
  548ccc     O215266   2.064   2.162   5.232  0.0843  0.3393 -0.1593
  548ccc     O315267   1.805   2.086   5.120 -0.2368 -0.1816  0.1416
  548ccc     O415268   1.704   2.334   4.998  0.0933 -0.2516 -0.1513
  548ccc     C615269   1.845   2.469   4.802 -0.1475  0.3043  0.4661
  548ccc     H615270   1.758   2.031   5.055 -0.0974 -1.3765  1.0220
  548ccc     H715271   1.732   2.407   5.056 -0.9884 -1.0336  1.4358
  548ccc     H815272   1.995   2.112   5.280  0.4285 -2.1819 -2.1263
  548ccc     H915273   1.787   2.531   4.872 -1.3441  2.3408 -2.1127
  548ccc    H1015274   1.782   2.430   4.721  0.5338  0.2880 -0.0569
  548ccc     O515275   1.954   2.540   4.743  0.0744 -0.1119  0.0910
  548ccc    H1115276   1.967   2.618   4.799 -1.0778  0.4028 -0.3337
  548ccc     O615277   1.990   2.436   4.991  0.6345 -0.2957 -0.7141
  549ccc     C115278   1.895   4.087   6.344 -0.6864 -0.4026  0.0825
  549ccc     C215279   2.051   4.097   6.317 -0.0286 -0.2635 -0.5737
  549ccc     H115280   1.872   4.047   6.443 -0.8177  0.0089  0.2219
  549ccc     H215281   2.099   4.146   6.403 -0.7000  0.3128 -0.5188
  549ccc     C315282   2.111   3.953   6.321 -0.0128 -0.0647  1.0332
  549ccc     C415283   2.032   3.861   6.222  0.3699 -0.1485  0.0090
  549ccc     C515284   1.875   3.872   6.235 -0.6912  0.0036 -0.0497
  549ccc     H315285   2.049   3.903   6.122 -0.0260  2.1988  0.8485
  549ccc     H415286   2.090   3.927   6.426  0.9121 -0.8824  1.0295
  549ccc     H515287   1.835   3.824   6.325 -1.1187  1.4973  0.5791
  549ccc     O115288   1.823   3.812   6.110 -0.4506  0.9467 -0.7386
  549ccc     O215289   2.081   3.726   6.245  0.0620 -0.4743 -0.4607
  549ccc     O315290   2.246   3.956   6.286  0.1118  0.7428  0.0045
  549ccc     O415291   2.081   4.165   6.201 -0.1072  0.3535  0.2607
  549ccc     C615292   1.844   4.234   6.327  0.2763  0.0986  0.2088
  549ccc     H615293   2.303   3.999   6.352  1.2034 -2.0666  1.0517
  549ccc     H715294   2.175   4.190   6.208 -0.1555  0.7132 -0.3318
  549ccc     H815295   2.171   3.734   6.209  0.9780  2.3760  2.0937
  549ccc     H915296   1.886   4.285   6.240 -1.8357  0.8769 -0.4143
  549ccc    H1015297   1.890   4.275   6.418  3.1391  0.1771 -1.1706
  549ccc     O515298   1.703   4.240   6.338 -0.0369 -0.2608  0.1092
  549ccc    H1115299   1.704   4.252   6.435  1.5021 -1.6446  0.3073
  549ccc     O615300   1.840   4.010   6.240  0.3080  0.0149  0.5735
  550ccc     C115301   1.090   3.141   5.633 -1.1511 -0.8433 -0.5620
  550ccc     C215302   1.142   2.999   5.589  0.4170 -0.7405 -0.7559
  550ccc     H115303   1.067   3.200   5.544  0.8805  2.5828  0.9881
  550ccc     H215304   1.081   2.963   5.505 -2.0265 -2.4835  1.5688
  550ccc     C315305   1.293   3.006   5.549 -0.0406 -0.1026 -0.2338
  550ccc     C415306   1.376   3.078   5.652 -0.4798  0.3313 -0.8447
  550ccc     C515307   1.323   3.220   5.675  0.1129 -0.3894 -0.5387
  550ccc     H315308   1.357   3.030   5.748  1.3209  0.0279 -0.5991
  550ccc     H415309   1.304   3.052   5.451  3.2086  0.5946  0.3523
  550ccc     H515310   1.335   3.278   5.583 -1.0561 -0.6774 -0.8937
  550ccc     O115311   1.408   3.280   5.779  0.1288 -0.6493 -0.6204
  550ccc     O215312   1.519   3.063   5.611  0.0683 -0.2009 -0.0007
  550ccc     O315313   1.341   2.877   5.535 -0.5435 -0.1603  0.1983
  550ccc     O415314   1.132   2.904   5.700  0.1506 -0.2925  0.3104
  550ccc     C615315   0.957   3.130   5.713  0.0265  0.0693 -0.0985
  550ccc     H615316   1.438   2.874   5.539 -0.4760  1.4660  0.9855
  550ccc     H715317   1.132   2.816   5.659  3.0407  0.8584 -2.5713
  550ccc     H815318   1.564   3.020   5.686  2.0438  2.0741  0.2598
  550ccc     H915319   0.896   3.070   5.644  1.2116 -0.9724 -0.2678
  550ccc    H1015320   0.921   3.232   5.732  0.5789  0.1983  0.2642
  550ccc     O515321   0.983   3.064   5.834 -0.3612  0.2070  0.2768
  550ccc    H1115322   1.042   3.000   5.792  0.3918 -0.0369  1.6525
  550ccc     O615323   1.184   3.208   5.714 -0.5444 -0.5758 -0.4051
  551ccc     C115324   0.454   4.968   7.213 -0.2084 -0.1397  0.3463
  551ccc     C215325   0.450   5.122   7.184 -0.1716  0.0817  0.2397
  551ccc     H115326   0.488   4.942   7.314 -2.6051  0.1864  1.2932
  551ccc     H215327   0.416   5.178   7.273 -3.4801 -1.2081 -0.0769
  551ccc     C315328   0.589   5.181   7.162 -0.0096  0.4286  0.4069
  551ccc     C415329   0.661   5.099   7.051  0.2144  0.0826 -0.1089
  551ccc     C515330   0.674   4.957   7.099  0.6686  0.2455  0.0620
  551ccc     H315331   0.600   5.091   6.960 -1.0194  1.0128  0.6121
  551ccc     H415332   0.635   5.165   7.260 -0.2136  0.2136  0.4674
  551ccc     H515333   0.727   4.959   7.195  3.6319  0.6569 -1.4740
  551ccc     O115334   0.744   4.873   6.996  0.1573 -0.0583 -0.3591
  551ccc     O215335   0.798   5.148   7.031  0.0902 -0.4285  0.0658
  551ccc     O315336   0.592   5.326   7.134 -0.3884  0.2377  0.1194
  551ccc     O415337   0.376   5.153   7.068  0.4301 -0.0097  0.2864
  551ccc     C615338   0.312   4.900   7.209 -0.0946 -0.3278 -0.0691
  551ccc     H615339   0.536   5.335   7.055 -0.9345  0.9118  0.5790
  551ccc     H715340   0.315   5.079   7.059 -1.9258  1.7515  0.9040
  551ccc     H815341   0.782   5.231   6.983  2.5541 -0.6191 -1.2407
  551ccc     H915342   0.263   4.931   7.302 -0.1057 -2.1509  0.5716
  551ccc    H1015343   0.320   4.791   7.211  0.4795 -0.2837  0.2928
  551ccc     O515344   0.224   4.949   7.106 -0.0044 -0.3076  0.4079
  551ccc    H1115345   0.142   4.906   7.138 -1.5195  0.3693 -2.3127
  551ccc     O615346   0.539   4.895   7.115  0.0115  0.7977  0.0422
  552ccc     C115347   0.408   5.301   6.558 -1.2336 -0.2088 -0.3127
  552ccc     C215348   0.283   5.228   6.615  0.6585 -0.2193 -0.5214
  552ccc     H115349   0.420   5.291   6.449 -0.5982 -2.0984 -0.1034
  552ccc     H215350   0.197   5.266   6.558  0.0603 -1.5802 -0.5759
  552ccc     C315351   0.293   5.077   6.597 -0.6356  0.2096 -0.7238
  552ccc     C415352   0.430   5.028   6.651  0.2367  0.4150  0.2216
  552ccc     C515353   0.549   5.104   6.591  0.3392  0.4286 -0.3177
  552ccc     H315354   0.423   5.051   6.758 -0.5607 -3.1645  1.0723
  552ccc     H415355   0.303   5.062   6.489  1.9447  0.0393 -0.5352
  552ccc     H515356   0.556   5.084   6.483  0.6592  0.5986 -0.3324
  552ccc     O115357   0.670   5.063   6.655 -0.2675  0.0156 -0.3457
  552ccc     O215358   0.431   4.882   6.639  0.4149 -0.4673 -0.4385
  552ccc     O315359   0.185   5.000   6.660  0.0554 -0.2461  0.1083
  552ccc     O415360   0.275   5.269   6.753 -0.1879 -0.8822 -0.1307
  552ccc     C615361   0.406   5.462   6.561  0.4923  0.4994  0.3468
  552ccc     H615362   0.104   5.024   6.612  1.1616 -0.9565 -2.2237
  552ccc     H715363   0.180   5.289   6.759 -0.1734 -0.9753  0.5020
  552ccc     H815364   0.384   4.857   6.720  0.8765  1.2453  0.4209
  552ccc     H915365   0.388   5.487   6.666 -1.0281  0.7089  0.0598
  552ccc    H1015366   0.315   5.489   6.505 -1.4329 -0.8195  2.6691
  552ccc     O515367   0.527   5.520   6.506  0.2768 -0.3412 -0.8155
  552ccc    H1115368   0.588   5.504   6.580 -1.9694 -2.6128  0.7686
  552ccc     O615369   0.532   5.246   6.611  0.0802  0.1592 -0.1305
  553ccc     C115370   1.001   3.588   5.822 -0.0981 -0.5967  0.2112
  553ccc     C215371   1.000   3.543   5.668 -0.6241 -0.0977  0.4570
  553ccc     H115372   0.898   3.577   5.859  0.2492 -2.8712  0.6611
  553ccc     H215373   0.952   3.446   5.649 -0.4130 -0.0679 -0.2186
  553ccc     C315374   0.914   3.646   5.592  0.1352 -0.5310 -0.2238
  553ccc     C415375   0.967   3.793   5.604 -0.0180  0.0709 -0.2214
  553ccc     C515376   0.970   3.826   5.753 -0.3151 -0.3751  0.4842
  553ccc     H315377   1.069   3.783   5.565 -0.3013 -3.0912 -0.3623
  553ccc     H415378   0.811   3.637   5.629  0.4459 -1.8544  0.3770
  553ccc     H515379   0.867   3.837   5.790 -0.3143  1.6117 -0.0057
  553ccc     O115380   1.036   3.949   5.782  0.1128 -0.1486  0.8924
  553ccc     O215381   0.887   3.885   5.528 -0.3150 -0.4133 -0.1180
  553ccc     O315382   0.914   3.612   5.456 -0.0717  0.4848  0.4903
  553ccc     O415383   1.146   3.541   5.639 -0.4474  0.2317  0.1383
  553ccc     C615384   1.084   3.490   5.909 -0.3965 -0.8147 -0.3707
  553ccc     H615385   0.867   3.688   5.416 -0.2138  0.0478 -0.1974
  553ccc     H715386   1.150   3.476   5.567 -0.2690 -0.7780  1.0336
  553ccc     H815387   0.927   3.972   5.550 -2.7539  0.4895  1.0767
  553ccc     H915388   1.189   3.483   5.877 -1.3407 -2.7606 -3.4332
  553ccc    H1015389   1.045   3.388   5.922  1.5764 -1.5931 -0.0398
  553ccc     O515390   1.082   3.552   6.036  0.0472  0.2727 -0.4716
  553ccc    H1115391   1.109   3.640   6.005  1.2314  0.2005  0.2884
  553ccc     O615392   1.045   3.725   5.825 -0.1636 -0.2514 -0.3167
  554ccc     C115393   0.062   4.374   5.600  0.2563 -0.6846  0.5776
  554ccc     C215394   0.010   4.479   5.706 -0.0985 -0.4187 -0.3860
  554ccc     H115395  -0.021   4.303   5.592 -0.7585  0.2481  2.3117
  554ccc     H215396  -0.079   4.525   5.663  0.4141  1.7282  0.7482
  554ccc     C315397  -0.007   4.407   5.845  0.3541  0.0356 -0.6495
  554ccc     C415398   0.124   4.333   5.886 -0.0553 -0.0667  0.0463
  554ccc     C515399   0.161   4.230   5.773 -0.6715 -0.7232  0.7012
  554ccc     H315400   0.199   4.412   5.896 -1.7535  1.5494  0.6134
  554ccc     H415401  -0.081   4.326   5.840  0.7327 -0.4456  0.8496
  554ccc     H515402   0.090   4.150   5.750 -2.0134 -0.2650  2.9641
  554ccc     O115403   0.291   4.184   5.823 -0.3691 -0.3985 -0.0522
  554ccc     O215404   0.111   4.262   6.015  0.5980 -0.0323 -0.3043
  554ccc     O315405  -0.042   4.505   5.944  0.1083 -0.3413  0.2463
  554ccc     O415406   0.112   4.580   5.720  0.3063 -0.0607  0.1380
  554ccc     C615407   0.095   4.437   5.468 -0.3623 -0.0905 -0.0645
  554ccc     H615408  -0.075   4.452   6.019  1.5805 -0.5093  0.8071
  554ccc     H715409   0.075   4.651   5.777 -2.3088 -2.6254  1.9033
  554ccc     H815410   0.201   4.246   6.047  0.7257  0.4267 -0.4332
  554ccc     H915411   0.015   4.497   5.423 -0.4663 -0.2881 -0.1454
  554ccc    H1015412   0.125   4.354   5.403  1.0135  2.1890 -2.5383
  554ccc     O515413   0.204   4.525   5.476 -0.8126 -0.2478  0.4575
  554ccc    H1115414   0.191   4.546   5.571 -2.2794 -0.4875  0.3459
  554ccc     O615415   0.174   4.309   5.653 -0.6408  0.2438 -0.4858
  555ccc     C115416   2.921   5.280   7.020  0.1892 -0.0689 -0.7434
  555ccc     C215417   3.058   5.320   7.088 -0.1505  0.2171  0.6193
  555ccc     H115418   2.906   5.344   6.933 -0.9181  0.2722 -0.3174
  555ccc     H215419   3.133   5.320   7.008 -2.1576 -1.8646 -1.4292
  555ccc     C315420   3.042   5.467   7.143  0.1013  0.3460 -0.2345
  555ccc     C415421   2.937   5.470   7.255  0.3223  0.0842 -0.3622
  555ccc     C515422   2.805   5.420   7.192  0.1820 -0.3513 -0.1883
  555ccc     H315423   2.962   5.396   7.333  0.6227  1.9607  1.4008
  555ccc     H415424   3.001   5.531   7.064  0.5192  0.6282 -0.2246
  555ccc     H515425   2.768   5.498   7.124 -0.3440 -2.3435 -2.3154
  555ccc     O115426   2.705   5.413   7.301  0.5340 -0.2126  0.4181
  555ccc     O215427   2.927   5.603   7.319 -0.0085  0.3084  0.2060
  555ccc     O315428   3.172   5.512   7.187  0.1792 -0.4094 -0.0761
  555ccc     O415429   3.079   5.228   7.192 -0.6293  0.0247  0.3720
  555ccc     C615430   2.914   5.132   6.961  0.3185  0.7371 -0.2784
  555ccc     H615431   3.164   5.609   7.183 -0.8591 -0.2344  3.2915
  555ccc     H715432   3.037   5.150   7.153 -1.5097 -0.4280  2.1312
  555ccc     H815433   2.966   5.593   7.408 -1.3174  0.5153  0.8319
  555ccc     H915434   2.986   5.146   6.880  2.7134 -2.2503  1.1271
  555ccc    H1015435   2.813   5.109   6.923  0.7118 -1.8796  0.0519
  555ccc     O515436   2.961   5.033   7.061  0.0800  0.5419  0.0045
  555ccc    H1115437   2.922   4.946   7.043 -0.6640  0.6078  1.1451
  555ccc     O615438   2.816   5.290   7.123  0.2188  0.3567 -0.6360
  556ccc     C115439   2.748   5.327   8.209 -0.2660  0.2241 -0.1720
  556ccc     C215440   2.787   5.174   8.197 -0.0835 -0.0433  0.0122
  556ccc     H115441   2.697   5.336   8.305  2.3934 -2.2530  1.6359
  556ccc     H215442   2.852   5.149   8.282 -0.6620 -0.3840  0.3553
  556ccc     C315443   2.652   5.091   8.194 -0.0004 -0.8363  0.1420
  556ccc     C415444   2.555   5.138   8.073  0.7876  0.1125  0.1035
  556ccc     C515445   2.529   5.294   8.095 -0.0676 -0.1730 -0.4203
  556ccc     H315446   2.612   5.111   7.983 -1.3291 -2.3035 -0.6432
  556ccc     H415447   2.594   5.112   8.284  0.0767 -1.0599  0.2461
  556ccc     H515448   2.472   5.312   8.187  1.4251  0.5550  0.4003
  556ccc     O115449   2.462   5.341   7.975 -0.2422  0.6660 -0.0519
  556ccc     O215450   2.435   5.054   8.069  0.0219 -0.1447  0.7863
  556ccc     O315451   2.681   4.956   8.176 -0.0269 -0.1447  0.2235
  556ccc     O415452   2.861   5.160   8.072  0.5514 -0.2738 -0.7230
  556ccc     C615453   2.865   5.430   8.211  0.3294 -0.1241  0.0387
  556ccc     H615454   2.599   4.910   8.202  1.7061 -1.6682  3.6104
  556ccc     H715455   2.892   5.252   8.074 -1.9314  0.6992 -1.8386
  556ccc     H815456   2.397   5.083   7.985 -0.6377 -1.9616  0.4239
  556ccc     H915457   2.923   5.418   8.302  0.1627  1.3427  0.3679
  556ccc    H1015458   2.825   5.532   8.203  1.7899  0.3312 -2.5351
  556ccc     O515459   2.947   5.409   8.095  0.1700  0.2472  0.2433
  556ccc    H1115460   3.016   5.477   8.103 -0.0476  0.4000  0.8868
  556ccc     O615461   2.652   5.375   8.109  0.4120 -0.2752 -0.3950
  557ccc     C115462   1.834   6.183   7.489 -0.3305  0.0813 -0.1372
  557ccc     C215463   1.855   6.338   7.508 -0.7801 -0.0133  0.3062
  557ccc     H115464   1.933   6.157   7.451  0.2068  0.7686  0.7437
  557ccc     H215465   1.944   6.358   7.569 -0.6757  0.1609  0.0948
  557ccc     C315466   1.869   6.410   7.368 -0.5017  0.1963 -0.2653
  557ccc     C415467   1.753   6.373   7.268  0.0508  0.8548 -0.5675
  557ccc     C515468   1.731   6.217   7.269  0.1134 -0.4011  0.5635
  557ccc     H315469   1.667   6.421   7.317  1.1917  0.4433  1.9969
  557ccc     H415470   1.965   6.384   7.322 -1.0351 -0.0057 -1.2843
  557ccc     H515471   1.818   6.175   7.217  0.6778  0.7388  0.5750
  557ccc     O115472   1.608   6.188   7.191 -0.4144 -0.0147  0.1481
  557ccc     O215473   1.791   6.438   7.142  0.3992 -0.0397  0.5371
  557ccc     O315474   1.876   6.557   7.382 -0.3349 -0.3380  0.3867
  557ccc     O415475   1.748   6.380   7.585  0.1355  0.0640  0.2634
  557ccc     C615476   1.814   6.114   7.632 -0.7171 -0.0879 -0.8006
  557ccc     H615477   1.786   6.586   7.404 -0.0557  1.2711 -0.4366
  557ccc     H715478   1.778   6.451   7.644  0.3160 -0.3075  0.6200
  557ccc     H815479   1.707   6.432   7.092 -0.3690 -1.5763  1.9241
  557ccc     H915480   1.726   6.150   7.687 -1.0242 -0.7992 -0.8186
  557ccc    H1015481   1.905   6.142   7.686 -1.7506 -0.7036  1.3440
  557ccc     O515482   1.801   5.974   7.625 -0.5669  0.4274  0.1070
  557ccc    H1115483   1.761   5.951   7.710 -0.4098  0.7634  0.2759
  557ccc     O615484   1.718   6.160   7.402 -0.0697  0.1837 -0.2858
  558ccc     C115485   1.390   6.610   6.456 -0.7399 -0.0545 -0.1869
  558ccc     C215486   1.468   6.737   6.483  0.1588 -0.3409 -0.3358
  558ccc     H115487   1.293   6.632   6.502 -0.0914  0.5371  0.9185
  558ccc     H215488   1.404   6.820   6.451 -1.2077 -1.0750  0.4179
  558ccc     C315489   1.499   6.755   6.635 -0.4547  0.1228  0.1785
  558ccc     C415490   1.570   6.627   6.684  0.3484  0.7335 -0.2036
  558ccc     C515491   1.479   6.499   6.654 -0.1098 -0.3059  0.3309
  558ccc     H315492   1.671   6.617   6.642  0.6927 -0.1474  0.8012
  558ccc     H415493   1.413   6.762   6.704  1.2631  1.2987  2.3320
  558ccc     H515494   1.378   6.498   6.697 -0.9306 -1.7758 -1.5063
  558ccc     O115495   1.556   6.380   6.699  0.3324  0.5007  0.4062
  558ccc     O215496   1.575   6.638   6.830  0.7232 -0.0358 -0.3959
  558ccc     O315497   1.577   6.881   6.650  0.0546  0.3392  0.2538
  558ccc     O415498   1.590   6.728   6.403 -0.2790 -0.0186  0.0965
  558ccc     C615499   1.358   6.588   6.304 -0.0381  0.1483  0.8405
  558ccc     H615500   1.512   6.951   6.635 -0.2986 -0.1318 -0.5306
  558ccc     H715501   1.569   6.664   6.333  0.0489  0.9347 -0.9125
  558ccc     H815502   1.620   6.723   6.842 -0.5161  0.6936 -0.7943
  558ccc     H915503   1.304   6.673   6.261 -1.5203 -0.5689  1.2557
  558ccc    H1015504   1.295   6.502   6.282  0.1196  0.5518 -1.3614
  558ccc     O515505   1.476   6.578   6.225  0.2299 -0.4009 -0.6565
  558ccc    H1115506   1.450   6.600   6.133 -0.9697  0.2636 -0.1825
  558ccc     O615507   1.445   6.494   6.510 -0.4929 -0.0923  0.1561
  559ccc     C115508   4.183   2.121   6.147  0.2575 -0.1093 -0.0812
  559ccc     C215509   4.139   2.005   6.050 -1.1175 -0.0164  0.6802
  559ccc     H115510   4.199   2.209   6.083 -0.4700 -0.5181 -0.8377
  559ccc     H215511   4.047   2.032   5.997 -0.6679  3.0207  1.2571
  559ccc     C315512   4.250   1.976   5.944  0.1170  0.7671  0.6766
  559ccc     C415513   4.386   1.940   6.019  0.2223  0.4830  0.2546
  559ccc     C515514   4.420   2.050   6.128 -0.1152 -0.4086  0.6141
  559ccc     H315515   4.365   1.849   6.076 -2.1309  2.3450  2.6123
  559ccc     H415516   4.265   2.057   5.873  2.3852 -0.0136  0.1840
  559ccc     H515517   4.457   2.143   6.084  1.8733 -0.3057  2.3461
  559ccc     O115518   4.526   2.010   6.216  0.1254 -0.1173 -0.3154
  559ccc     O215519   4.496   1.929   5.930 -0.1102 -0.0832 -0.4639
  559ccc     O315520   4.200   1.860   5.867 -0.3342  0.1472  0.8908
  559ccc     O415521   4.120   1.888   6.132 -0.1572  0.2263 -0.5659
  559ccc     C615522   4.082   2.162   6.256  0.4392  0.2858  0.0370
  559ccc     H615523   4.258   1.843   5.790 -0.2595 -1.1260  1.2047
  559ccc     H715524   4.127   1.825   6.058  0.1043  0.0004 -0.3489
  559ccc     H815525   4.490   1.838   5.894  0.0371 -0.3897  0.2590
  559ccc     H915526   3.991   2.206   6.214  1.6799  1.0741 -1.9759
  559ccc    H1015527   4.132   2.239   6.317  0.0307  3.1457 -2.9704
  559ccc     O515528   4.059   2.046   6.329 -0.3809 -0.2159 -0.1758
  559ccc    H1115529   4.063   1.983   6.255  0.0815 -1.2329  0.7041
  559ccc     O615530   4.305   2.075   6.211 -0.0305 -0.0945 -0.1305
  560ccc     C115531   4.529   1.439   6.816 -0.0865  0.8254 -0.2074
  560ccc     C215532   4.407   1.522   6.851 -0.1559  0.5277  0.2494
  560ccc     H115533   4.594   1.438   6.904 -0.2082  1.4941 -0.1069
  560ccc     H215534   4.361   1.478   6.940  0.5840 -0.8195 -0.0208
  560ccc     C315535   4.454   1.670   6.886  0.5772  0.6622 -0.2478
  560ccc     C415536   4.536   1.732   6.769  0.3794 -0.2670 -0.1081
  560ccc     C515537   4.651   1.642   6.731 -0.4567  0.6243 -0.1180
  560ccc     H315538   4.476   1.760   6.681 -0.7538  2.3354  1.4074
  560ccc     H415539   4.521   1.674   6.973  0.6742  0.9057 -0.3332
  560ccc     H515540   4.740   1.651   6.793  1.3718 -0.6722 -2.3988
  560ccc     O115541   4.699   1.691   6.596  0.1485 -0.2328  0.4197
  560ccc     O215542   4.581   1.855   6.834  0.2517 -0.6080  0.3859
  560ccc     O315543   4.337   1.751   6.916 -0.0717 -0.2104  0.0519
  560ccc     O415544   4.325   1.523   6.740 -0.1258  0.3404  0.6932
  560ccc     C615545   4.495   1.293   6.761  0.5838 -0.0181  0.0506
  560ccc     H615546   4.363   1.845   6.913 -2.2434  0.4319 -0.2040
  560ccc     H715547   4.268   1.603   6.744 -2.1375 -1.0671  2.2634
  560ccc     H815548   4.656   1.892   6.784 -0.2568 -1.1608 -0.8178
  560ccc     H915549   4.453   1.289   6.660  3.5019 -1.8573 -1.2354
  560ccc    H1015550   4.420   1.248   6.828  0.0704  0.7114 -0.0222
  560ccc     O515551   4.612   1.208   6.774 -0.7612  0.2959 -0.1892
  560ccc    H1115552   4.688   1.263   6.752  0.1925 -0.5356  0.9275
  560ccc     O615553   4.602   1.503   6.711  0.1518 -0.4973  0.8592
  561ccc     C115554   5.665   2.330   6.708  0.4325 -0.0394 -0.0622
  561ccc     C215555   5.798   2.313   6.786  0.1435 -0.2000  0.7972
  561ccc     H115556   5.632   2.434   6.721 -1.0153 -0.5045  0.1459
  561ccc     H215557   5.880   2.367   6.736 -1.0241  0.3686 -0.5671
  561ccc     C315558   5.779   2.347   6.933  0.1794  0.6309 -0.0801
  561ccc     C415559   5.651   2.266   6.978  0.4902 -0.0571 -0.1193
  561ccc     C515560   5.526   2.273   6.890  1.0089  0.5891  0.2740
  561ccc     H315561   5.677   2.160   6.978 -3.8244 -1.3137 -0.8946
  561ccc     H415562   5.748   2.452   6.928 -1.7990  0.1579  0.9980
  561ccc     H515563   5.467   2.365   6.896 -0.9642 -0.4317 -1.8921
  561ccc     O115564   5.444   2.166   6.942 -0.2073  0.6011  0.3476
  561ccc     O215565   5.618   2.315   7.108  0.1405  0.9873 -0.7090
  561ccc     O315566   5.894   2.321   7.022  0.3026  0.1081  0.2585
  561ccc     O415567   5.835   2.177   6.775 -0.3375  0.4382  0.2417
  561ccc     C615568   5.666   2.295   6.559 -0.4743  0.4573  0.3020
  561ccc     H615569   5.971   2.296   6.968 -0.0683  0.5855 -0.5098
  561ccc     H715570   5.803   2.153   6.687  0.3972 -0.2454  0.1475
  561ccc     H815571   5.707   2.325   7.147  0.7673  2.3760 -2.3724
  561ccc     H915572   5.736   2.354   6.499 -0.8026 -0.8714 -1.4706
  561ccc    H1015573   5.566   2.319   6.521 -0.3690  0.7047  0.1789
  561ccc     O515574   5.702   2.156   6.541  0.4114  0.2728  0.0251
  561ccc    H1115575   5.645   2.127   6.468  1.8970 -2.9538  0.0089
  561ccc     O615576   5.553   2.255   6.758  0.0165  0.3725  0.5007
  562ccc     C115577   5.185   2.175   7.826 -0.2825  0.1954 -0.5098
  562ccc     C215578   5.328   2.125   7.842 -0.2656  0.0035 -0.3181
  562ccc     H115579   5.111   2.115   7.880 -0.7360  0.0600 -1.2701
  562ccc     H215580   5.353   2.125   7.949  0.1656  0.4555 -0.4133
  562ccc     C315581   5.348   1.978   7.792 -0.5780  0.0261 -0.8099
  562ccc     C415582   5.277   1.953   7.658 -0.9230 -0.2816 -0.3977
  562ccc     C515583   5.138   2.026   7.641  0.6073 -0.6643  0.9037
  562ccc     H315584   5.342   2.011   7.592 -1.0071  0.7102  0.3820
  562ccc     H415585   5.291   1.914   7.860 -0.6723  0.2563 -0.6706
  562ccc     H515586   5.054   1.971   7.685 -0.2426 -0.6532 -0.6398
  562ccc     O115587   5.097   2.032   7.505 -0.5473 -0.3994 -0.0782
  562ccc     O215588   5.273   1.811   7.628  0.2199 -0.0975  0.2409
  562ccc     O315589   5.487   1.949   7.798  0.3996  0.0457  0.0512
  562ccc     O415590   5.416   2.210   7.775  0.8051  0.0741 -0.4916
  562ccc     C615591   5.155   2.314   7.879 -0.7360 -0.1085 -0.1916
  562ccc     H615592   5.497   1.852   7.802  2.9735  0.1038 -2.2308
  562ccc     H715593   5.494   2.156   7.754  0.2422 -1.0527  0.2176
  562ccc     H815594   5.215   1.769   7.694  0.8452 -1.9585 -0.3331
  562ccc     H915595   5.197   2.392   7.814 -0.5471  0.4919  0.6413
  562ccc    H1015596   5.188   2.322   7.984  0.1406  3.5266 -0.6130
  562ccc     O515597   5.014   2.332   7.890 -0.6694  0.4965  0.1342
  562ccc    H1115598   4.991   2.368   7.803 -1.4523  2.3674  1.0680
  562ccc     O615599   5.150   2.165   7.687  0.0224 -0.2359  0.5713
  563ccc     C115600   4.782   2.341   5.796 -0.3787  1.0162 -0.2203
  563ccc     C215601   4.842   2.318   5.651  0.1245  0.0647  0.0913
  563ccc     H115602   4.697   2.272   5.804  0.6295 -0.4183 -1.3144
  563ccc     H215603   4.881   2.216   5.645  0.4530  0.1303  1.0175
  563ccc     C315604   4.734   2.339   5.545 -0.3580 -0.7948 -0.1659
  563ccc     C415605   4.674   2.481   5.551 -0.1865 -0.6653  0.1158
  563ccc     C515606   4.633   2.508   5.700  0.2778 -0.1848 -1.1124
  563ccc     H315607   4.752   2.552   5.521 -2.3151  1.8032  0.1089
  563ccc     H415608   4.660   2.264   5.575 -0.8247 -0.5806 -0.7725
  563ccc     H515609   4.543   2.449   5.720 -1.6365  2.0754 -2.4773
  563ccc     O115610   4.608   2.646   5.708 -0.1375  0.4789 -0.6230
  563ccc     O215611   4.567   2.499   5.463 -0.0570 -0.2117  0.6281
  563ccc     O315612   4.786   2.315   5.417  0.1979  0.0104  0.1788
  563ccc     O415613   4.947   2.408   5.638 -0.1966 -0.0845 -0.3294
  563ccc     C615614   4.874   2.311   5.915 -0.2846 -0.2856 -1.0799
  563ccc     H615615   4.721   2.266   5.363 -1.3075 -1.5830  3.1851
  563ccc     H715616   5.022   2.365   5.682  0.1984  1.1946  0.2891
  563ccc     H815617   4.552   2.594   5.451  3.4975  0.4728  0.2669
  563ccc     H915618   4.934   2.397   5.948  4.0644 -3.5940  0.6568
  563ccc    H1015619   4.954   2.239   5.894 -0.1073 -0.0113 -1.3469
  563ccc     O515620   4.795   2.274   6.026 -0.4564  0.9318 -0.8938
  563ccc    H1115621   4.772   2.180   6.014  0.0515  0.9986 -2.7383
  563ccc     O615622   4.739   2.476   5.797 -0.0405 -0.2514 -0.1661
  564ccc     C115623   4.157   2.928   4.964  0.5490  0.3079  0.6889
  564ccc     C215624   4.183   2.783   4.918  0.2490  0.4575  0.1075
  564ccc     H115625   4.211   3.003   4.904  1.0275  3.1260  4.2878
  564ccc     H215626   4.174   2.777   4.809  2.5604  1.4434 -0.1736
  564ccc     C315627   4.321   2.739   4.963 -0.0336 -0.1120  0.1526
  564ccc     C415628   4.356   2.767   5.107  0.5413  0.1236  0.1347
  564ccc     C515629   4.323   2.918   5.152 -0.1514  0.2809 -0.2284
  564ccc     H315630   4.294   2.696   5.163 -0.8252  1.0132 -0.1951
  564ccc     H415631   4.395   2.799   4.909 -0.4774 -0.1037 -0.4628
  564ccc     H515632   4.392   2.982   5.096  0.7636 -0.8549 -0.4285
  564ccc     O115633   4.326   2.918   5.294 -0.0982 -0.9311 -0.5222
  564ccc     O215634   4.495   2.738   5.130 -0.3783 -0.1006  0.3406
  564ccc     O315635   4.339   2.602   4.927 -0.5747 -0.0080  0.6301
  564ccc     O415636   4.088   2.697   4.978 -1.0238  0.3740 -0.2846
  564ccc     C615637   4.007   2.962   4.932 -0.0133  0.2217 -0.1629
  564ccc     H615638   4.417   2.596   4.869 -0.4391  0.3659  0.7695
  564ccc     H715639   4.138   2.615   4.968 -0.1949  0.9985 -1.5556
  564ccc     H815640   4.496   2.643   5.106  1.3224  0.0118 -0.1562
  564ccc     H915641   3.935   2.918   5.002  0.7166  0.9452  1.0846
  564ccc    H1015642   3.985   2.921   4.833 -1.2438  0.8214 -0.1601
  564ccc     O515643   3.989   3.102   4.916 -0.3631  0.2605 -0.1307
  564ccc    H1115644   3.898   3.112   4.884 -0.7919 -0.6678  0.7342
  564ccc     O615645   4.187   2.939   5.101  0.2592 -0.6138  0.0666
  565ccc     C115646   4.634   3.646   5.071  0.2877 -0.3458 -0.4026
  565ccc     C215647   4.499   3.579   5.035  0.1826  0.0732 -0.0248
  565ccc     H115648   4.686   3.658   4.975  0.7789 -1.8386 -0.3509
  565ccc     H215649   4.444   3.653   4.974  0.0604 -0.1783 -0.2194
  565ccc     C315650   4.526   3.442   4.965  1.0005  0.6878  0.4448
  565ccc     C415651   4.623   3.354   5.046 -0.6416  0.5965 -0.4156
  565ccc     C515652   4.746   3.434   5.091 -0.3399  0.9613 -0.2432
  565ccc     H315653   4.573   3.322   5.138  0.1778  0.6786  0.0724
  565ccc     H415654   4.574   3.472   4.872  0.8370 -0.2552  0.0412
  565ccc     H515655   4.810   3.448   5.003  1.1134  2.8938  1.0341
  565ccc     O115656   4.826   3.362   5.185  0.7824  0.2168 -0.4619
  565ccc     O215657   4.657   3.236   4.969 -0.5380 -0.5266  0.4658
  565ccc     O315658   4.402   3.388   4.915  0.5649 -0.1708  0.1697
  565ccc     O415659   4.426   3.560   5.157  0.5105  0.5618  0.1892
  565ccc     C615660   4.613   3.790   5.131  0.4203  0.1871 -0.3927
  565ccc     H615661   4.363   3.327   4.980 -2.8335  3.3834  1.8726
  565ccc     H715662   4.335   3.546   5.125 -0.0936  0.6930  1.7554
  565ccc     H815663   4.702   3.268   4.889 -1.1336  1.6878  0.9566
  565ccc     H915664   4.599   3.775   5.239  0.4662 -1.9162 -0.6383
  565ccc    H1015665   4.524   3.838   5.088 -0.3957 -1.2907 -0.4109
  565ccc     O515666   4.731   3.859   5.110 -0.4956 -0.2519  0.5712
  565ccc    H1115667   4.782   3.828   5.187  0.5577 -2.0295 -0.7578
  565ccc     O615668   4.713   3.556   5.151 -0.2531 -0.3141  0.7304
  566ccc     C115669   4.178   3.748   5.713  0.2908  0.4504 -0.4045
  566ccc     C215670   4.072   3.750   5.596 -0.1282 -0.4301  0.3072
  566ccc     H115671   4.206   3.854   5.723  0.0258  0.5894 -1.0896
  566ccc     H215672   4.000   3.830   5.618  0.2529 -0.2050  0.7486
  566ccc     C315673   4.144   3.797   5.467  0.0751 -0.3058  0.3284
  566ccc     C415674   4.278   3.708   5.437  0.8112  0.6491 -0.2667
  566ccc     C515675   4.365   3.690   5.565 -0.2137  0.1348  0.1424
  566ccc     H315676   4.240   3.607   5.416  1.1042 -0.1509  2.5220
  566ccc     H415677   4.178   3.899   5.490 -0.3915  0.1646 -0.9578
  566ccc     H515678   4.434   3.774   5.579 -0.0185  0.3780 -1.8873
  566ccc     O115679   4.441   3.567   5.539  0.4559 -0.3022 -0.5691
  566ccc     O215680   4.350   3.764   5.326  0.1301  0.4689 -0.1531
  566ccc     O315681   4.053   3.779   5.358  0.8532  0.3276 -0.3670
  566ccc     O415682   4.008   3.620   5.576 -0.5776  0.1871  0.0689
  566ccc     C615683   4.116   3.697   5.845  0.0895  0.6450  0.4566
  566ccc     H615684   3.979   3.839   5.379 -0.6065 -1.6485  0.5007
  566ccc     H715685   3.971   3.643   5.489  1.9884  1.0284 -0.9215
  566ccc     H815686   4.401   3.692   5.285 -0.6275  0.1265 -0.5167
  566ccc     H915687   4.087   3.591   5.844  0.5403  0.5180 -0.1814
  566ccc    H1015688   4.030   3.754   5.881 -0.1730 -0.3338  1.4501
  566ccc     O515689   4.213   3.716   5.950  0.1871  0.0369  0.0044
  566ccc    H1115690   4.244   3.808   5.944  3.4554 -0.8454  0.9994
  566ccc     O615691   4.285   3.660   5.680  0.1128 -0.5449  0.1041
  567ccc     C115692   3.077   2.671   8.978 -0.8050  0.7788 -0.1022
  567ccc     C215693   3.216   2.691   9.050  0.2566 -0.3065  0.6433
  567ccc     H115694   3.013   2.630   9.058 -1.7284  0.8535 -0.7921
  567ccc     H215695   3.204   2.758   9.137  0.8688 -1.0302  1.2945
  567ccc     C315696   3.281   2.559   9.099 -0.5633 -0.2149 -0.5332
  567ccc     C415697   3.262   2.448   8.996 -0.1823  0.5107  0.4061
  567ccc     C515698   3.123   2.435   8.923 -0.0517  0.0432  0.4915
  567ccc     H315699   3.330   2.467   8.912 -0.4285  0.3217  0.1633
  567ccc     H415700   3.229   2.522   9.189  0.4313 -0.7278 -0.1447
  567ccc     H515701   3.044   2.394   8.988 -0.9168  0.2444 -0.4062
  567ccc     O115702   3.136   2.353   8.802 -0.1067  0.5755  0.0256
  567ccc     O215703   3.303   2.321   9.050 -0.2913 -0.3033 -0.3243
  567ccc     O315704   3.418   2.591   9.131 -0.5176  0.0711  0.0736
  567ccc     O415705   3.298   2.752   8.949 -0.1457 -0.4681 -0.2469
  567ccc     C615706   3.020   2.808   8.943  0.4801  0.3116  0.3979
  567ccc     H615707   3.465   2.511   9.162 -0.6024 -0.5894 -1.3853
  567ccc     H715708   3.379   2.698   8.958 -1.3435 -2.6220 -1.7973
  567ccc     H815709   3.341   2.267   8.979  0.9108  1.5096 -1.1205
  567ccc     H915710   3.064   2.857   8.855 -0.9180  1.3292  0.2166
  567ccc    H1015711   3.047   2.880   9.021  2.5944  0.6865 -0.6036
  567ccc     O515712   2.882   2.789   8.936  0.1950 -0.2995  0.1732
  567ccc    H1115713   2.850   2.868   8.890  2.0976 -1.3159 -3.2650
  567ccc     O615714   3.088   2.572   8.872 -0.3437 -0.7982  0.0560
  568ccc     C115715   2.752   2.206   8.029 -0.3977  0.1158 -0.0942
  568ccc     C215716   2.678   2.324   8.095  0.0260  0.2868  0.6565
  568ccc     H115717   2.685   2.127   7.993  0.1149 -1.6066  2.4628
  568ccc     H215718   2.623   2.370   8.012  1.5695  2.0091  0.5266
  568ccc     C315719   2.593   2.272   8.216  0.1590  0.0817  0.2137
  568ccc     C415720   2.685   2.186   8.309  0.0063 -0.1245  0.5953
  568ccc     C515721   2.768   2.074   8.230 -0.3460  0.1998  0.2732
  568ccc     H315722   2.761   2.252   8.352  1.4904  0.3603 -2.5357
  568ccc     H415723   2.520   2.201   8.175  1.2675 -1.1784  0.3855
  568ccc     H515724   2.701   1.996   8.191  0.7586 -0.1981 -0.9206
  568ccc     O115725   2.870   2.022   8.321  0.0316 -0.1130  0.0726
  568ccc     O215726   2.602   2.126   8.411 -0.1949  0.2041  0.0118
  568ccc     O315727   2.522   2.370   8.294  0.0379 -0.3373 -0.3732
  568ccc     O415728   2.777   2.414   8.140  1.0175  0.4034 -0.0595
  568ccc     C615729   2.843   2.252   7.916 -0.1532  0.4895  0.0487
  568ccc     H615730   2.591   2.412   8.348 -0.0456 -2.2978  1.3739
  568ccc     H715731   2.731   2.489   8.182 -1.4572 -0.4469 -1.0650
  568ccc     H815732   2.562   2.192   8.470 -1.0164  0.5316 -0.8787
  568ccc     H915733   2.939   2.294   7.950  0.9298 -0.1426 -2.0727
  568ccc    H1015734   2.793   2.329   7.857  0.8098  0.3665 -0.9478
  568ccc     O515735   2.865   2.144   7.832  0.6477  0.3517 -0.1577
  568ccc    H1115736   2.887   2.070   7.891  0.0553  1.1916  1.1572
  568ccc     O615737   2.840   2.137   8.122 -0.3662  0.2366  0.2436
  569ccc     C115738   2.740   2.695   8.556 -0.0986 -0.2814 -0.6379
  569ccc     C215739   2.690   2.649   8.423 -0.1503 -0.4976  0.4925
  569ccc     H115740   2.717   2.801   8.569  1.6549 -0.1515  2.3837
  569ccc     H215741   2.584   2.670   8.405  0.0306 -1.4129 -2.1039
  569ccc     C315742   2.765   2.719   8.305 -0.2943 -0.0293 -0.2595
  569ccc     C415743   2.916   2.686   8.313  0.5794 -0.6824  0.1240
  569ccc     C515744   2.961   2.741   8.449  0.3201 -0.7738 -0.5207
  569ccc     H315745   2.935   2.579   8.328  0.9006 -0.5722  0.5246
  569ccc     H415746   2.742   2.826   8.317 -0.8286 -0.1023 -0.6227
  569ccc     H515747   2.945   2.850   8.445  0.7748 -0.6446  0.7004
  569ccc     O115748   3.104   2.704   8.453 -0.4396 -0.3799  0.3151
  569ccc     O215749   2.995   2.743   8.203  0.1646 -0.5173 -0.5629
  569ccc     O315750   2.714   2.675   8.178 -0.1809 -0.2264 -0.3055
  569ccc     O415751   2.703   2.506   8.428  0.1511 -0.3745  0.3802
  569ccc     C615752   2.672   2.630   8.675  0.1525  0.2818 -0.0478
  569ccc     H615753   2.652   2.744   8.150 -1.1720 -0.4238  1.2898
  569ccc     H715754   2.728   2.493   8.522  0.9391 -1.3345  0.0585
  569ccc     H815755   3.001   2.677   8.132 -1.2238 -0.5575 -0.6578
  569ccc     H915756   2.565   2.632   8.653  0.0557  0.3277  0.4197
  569ccc    H1015757   2.706   2.688   8.761 -1.1167  2.4858 -0.9585
  569ccc     O515758   2.714   2.496   8.683 -0.0571 -0.6898  0.4743
  569ccc    H1115759   2.666   2.450   8.754  0.1496 -1.1117  0.3428
  569ccc     O615760   2.889   2.687   8.563  0.0437 -0.6362  0.4459
  570ccc     C115761   3.655   2.964   9.180 -1.0543 -0.5637  0.3397
  570ccc     C215762   3.633   3.103   9.239  0.0194 -0.5817 -0.0953
  570ccc     H115763   3.750   2.930   9.224 -1.4770 -3.0404 -0.5508
  570ccc     H215764   3.655   3.098   9.346 -0.7885  1.8395  0.2439
  570ccc     C315765   3.721   3.212   9.170 -0.4693 -0.6821  0.0414
  570ccc     C415766   3.705   3.201   9.018 -0.0498  0.1231  0.6376
  570ccc     C515767   3.743   3.060   8.971 -0.3035 -0.3688 -0.2667
  570ccc     H315768   3.599   3.218   8.996  0.0200 -0.5946 -0.3003
  570ccc     H415769   3.820   3.171   9.193 -0.3460  0.8376  2.6643
  570ccc     H515770   3.847   3.034   8.991 -0.3599 -0.5058 -0.1602
  570ccc     O115771   3.718   3.055   8.827  0.3933  0.0458 -0.3374
  570ccc     O215772   3.781   3.305   8.956 -0.2264 -0.2205 -0.2544
  570ccc     O315773   3.710   3.349   9.210 -0.3494 -0.5466 -0.7108
  570ccc     O415774   3.493   3.139   9.224 -0.7262  0.3352  0.1831
  570ccc     C615775   3.558   2.862   9.233  0.5536  0.3558  0.0686
  570ccc     H615776   3.751   3.405   9.141 -2.4025 -0.4883 -1.9816
  570ccc     H715777   3.441   3.089   9.290 -0.7520  0.4144  0.2229
  570ccc     H815778   3.741   3.317   8.869  1.3438 -0.5643 -1.0542
  570ccc     H915779   3.465   2.876   9.176 -0.3123 -1.0676  1.0867
  570ccc    H1015780   3.534   2.889   9.337 -0.1235 -1.8521  0.5349
  570ccc     O515781   3.615   2.733   9.220 -0.4777  0.1930 -0.0024
  570ccc    H1115782   3.538   2.678   9.195 -2.0520 -0.3269  4.8525
  570ccc     O615783   3.652   2.968   9.037 -0.1980 -0.3924 -0.1878
  571ccc     C115784   2.844   1.412   6.700 -0.0390 -0.5784 -0.1793
  571ccc     C215785   2.918   1.400   6.567 -0.2777 -0.0600  0.3556
  571ccc     H115786   2.775   1.497   6.688 -2.9209 -2.7778 -0.1941
  571ccc     H215787   2.846   1.371   6.490  1.5836  0.5132 -1.6916
  571ccc     C315788   2.977   1.538   6.535 -0.6910 -0.8428  0.5742
  571ccc     C415789   3.069   1.592   6.652  0.3893  0.5897  0.1709
  571ccc     C515790   3.013   1.561   6.802 -0.3047 -0.3485 -0.8210
  571ccc     H315791   3.166   1.541   6.645  1.5448  2.6438  0.5348
  571ccc     H415792   2.892   1.607   6.526  1.3866  1.7234 -1.0645
  571ccc     H515793   2.940   1.638   6.829  0.0126 -0.4091  0.2520
  571ccc     O115794   3.118   1.569   6.897 -0.6358  0.1318  0.1011
  571ccc     O215795   3.098   1.736   6.630 -0.1670  0.0328  0.3324
  571ccc     O315796   3.051   1.552   6.410  0.4562  0.1041 -0.3225
  571ccc     O415797   3.011   1.295   6.568 -0.5112  0.5508  0.1692
  571ccc     C615798   2.747   1.294   6.728 -0.4787  0.5445 -0.6014
  571ccc     H615799   2.994   1.515   6.341  0.9372  0.7699 -1.0969
  571ccc     H715800   2.951   1.239   6.619 -0.9440 -0.8929 -1.8286
  571ccc     H815801   3.173   1.728   6.570  1.5479  2.1821  2.0003
  571ccc     H915802   2.666   1.297   6.654  0.8353 -0.1645 -2.1316
  571ccc    H1015803   2.702   1.303   6.828 -1.7165  2.3599 -1.2593
  571ccc     O515804   2.812   1.168   6.709  0.0394 -0.2628 -0.0735
  571ccc    H1115805   2.747   1.096   6.700  0.1240 -0.6084  1.6598
  571ccc     O615806   2.941   1.436   6.808  0.2456  0.1093 -0.3798
  572ccc     C115807   3.999   1.155   6.374 -0.2435  0.1202 -0.2942
  572ccc     C215808   4.010   0.999   6.354  0.2964 -0.4527  0.4064
  572ccc     H115809   4.067   1.186   6.454 -0.7307  0.4191  0.0105
  572ccc     H215810   4.112   0.970   6.326 -0.3124 -1.4110 -0.9507
  572ccc     C315811   3.960   0.924   6.480 -0.8466  0.6874  0.1395
  572ccc     C415812   3.821   0.974   6.531 -0.4626  0.5271 -0.0221
  572ccc     C515813   3.831   1.128   6.544 -0.1379 -0.0678 -0.4616
  572ccc     H315814   3.748   0.955   6.452 -0.2453  0.8842 -0.3079
  572ccc     H415815   4.039   0.954   6.549  0.0942  2.0528 -1.4523
  572ccc     H515816   3.914   1.157   6.610 -0.4983 -0.3791  0.1373
  572ccc     O115817   3.699   1.178   6.592 -0.3778  0.1472  0.2548
  572ccc     O215818   3.782   0.913   6.658  0.1492 -0.1554 -0.2940
  572ccc     O315819   3.950   0.781   6.443  0.0441  0.0917  0.1924
  572ccc     O415820   3.930   0.961   6.240 -0.7332 -0.1557 -0.2458
  572ccc     C615821   4.049   1.233   6.258 -0.3126 -0.8795 -0.0411
  572ccc     H615822   3.993   0.732   6.515  1.2040 -1.5269 -1.5324
  572ccc     H715823   3.916   0.868   6.265 -0.7440 -0.6853 -2.1056
  572ccc     H815824   3.704   0.862   6.629 -1.2149  1.2817  0.6852
  572ccc     H915825   4.151   1.207   6.226 -0.2627 -0.1908 -0.4678
  572ccc    H1015826   4.049   1.340   6.284  0.6007 -1.2597  1.6502
  572ccc     O515827   3.958   1.212   6.152 -0.6052 -0.2547 -0.2513
  572ccc    H1115828   3.948   1.116   6.166  2.0437 -0.9543 -2.2253
  572ccc     O615829   3.861   1.185   6.413  0.4850 -0.0863 -0.5543
  573ccc     C115830   3.359   1.607   7.723  0.7030 -0.0258  0.9757
  573ccc     C215831   3.441   1.685   7.824 -0.5262  0.4556  0.3605
  573ccc     H115832   3.272   1.560   7.771 -0.1266 -0.6737 -1.0503
  573ccc     H215833   3.381   1.764   7.871  0.0400  0.6163  0.8361
  573ccc     C315834   3.499   1.592   7.936  0.0092 -0.4721 -0.1142
  573ccc     C415835   3.551   1.457   7.879  0.6185 -0.7232 -0.4332
  573ccc     C515836   3.461   1.396   7.771  0.0094 -0.3131 -0.2995
  573ccc     H315837   3.651   1.472   7.836  0.5947 -1.7487 -0.8675
  573ccc     H415838   3.412   1.571   7.999  0.0330  3.1330  1.3741
  573ccc     H515839   3.363   1.369   7.812  0.1644  0.8702  0.9265
  573ccc     O115840   3.533   1.285   7.713 -0.2522 -0.3414 -0.5258
  573ccc     O215841   3.551   1.362   7.984  0.2429 -0.0498  0.0045
  573ccc     O315842   3.602   1.669   8.013  0.0896 -0.0940  0.6372
  573ccc     O415843   3.541   1.748   7.747  0.0481  0.0898 -0.0005
  573ccc     C615844   3.292   1.683   7.603  1.0259 -0.0252  0.5574
  573ccc     H615845   3.684   1.681   7.962 -0.2603 -1.9934 -0.4790
  573ccc     H715846   3.560   1.837   7.780 -0.9770  0.9803 -1.6730
  573ccc     H815847   3.557   1.270   7.955 -2.1282 -0.2951  0.0828
  573ccc     H915848   3.237   1.771   7.637  1.4875  2.0701 -3.4478
  573ccc    H1015849   3.220   1.613   7.560  1.1504  0.9651 -1.3844
  573ccc     O515850   3.377   1.729   7.497 -0.4439  0.3413  0.4086
  573ccc    H1115851   3.462   1.745   7.542 -0.4593 -0.8058  0.8823
  573ccc     O615852   3.431   1.496   7.673  0.2576 -0.7931  0.3216
  574ccc     C115853   4.082   0.439   7.750 -0.5093  0.4680  0.6257
  574ccc     C215854   3.991   0.328   7.706 -0.2880 -0.7597  0.2185
  574ccc     H115855   4.097   0.430   7.858  0.2846 -1.7122  0.3920
  574ccc     H215856   4.033   0.234   7.745 -3.2681 -1.7910  1.2045
  574ccc     C315857   3.844   0.350   7.762  0.5704 -0.1428 -0.9074
  574ccc     C415858   3.804   0.504   7.750  0.4071  0.0116 -0.1435
  574ccc     C515859   3.917   0.604   7.786  0.5505  0.3063 -0.2707
  574ccc     H315860   3.785   0.533   7.646 -0.2917  0.2589  0.0471
  574ccc     H415861   3.850   0.332   7.871 -3.0182  2.1445 -0.1510
  574ccc     H515862   3.946   0.614   7.891  0.2804  0.4468 -0.2109
  574ccc     O115863   3.874   0.731   7.735  0.2130  0.0195  0.1205
  574ccc     O215864   3.680   0.541   7.821 -0.7609  0.3966 -0.4329
  574ccc     O315865   3.748   0.248   7.714 -0.0853 -0.2601  0.1989
  574ccc     O415866   3.982   0.319   7.563  0.0774  0.6068  0.2109
  574ccc     C615867   4.222   0.420   7.679 -0.1596 -0.8736 -0.0244
  574ccc     H615868   3.663   0.283   7.746  0.4167  0.2713  1.0096
  574ccc     H715869   4.063   0.284   7.523 -0.0332  1.5257 -0.8677
  574ccc     H815870   3.693   0.518   7.915  3.1780  2.8448 -0.1351
  574ccc     H915871   4.212   0.419   7.570 -2.5873 -2.0279  0.1450
  574ccc    H1015872   4.259   0.319   7.699  0.4046 -1.1194 -2.1331
  574ccc     O515873   4.306   0.521   7.748  0.3507 -0.2028  0.0136
  574ccc    H1115874   4.313   0.583   7.673  3.1643  1.2819  1.3157
  574ccc     O615875   4.031   0.564   7.717  0.3113  0.0635  0.7376
  575ccc     C115876   6.156   7.143   6.265  0.2457 -0.5427  0.2956
  575ccc     C215877   6.021   7.101   6.233  0.3519 -0.6582 -0.6321
  575ccc     H115878   6.158   7.248   6.299 -0.3715 -0.3508 -0.2313
  575ccc     H215879   5.958   7.105   6.323  0.9344  0.9025 -0.2584
  575ccc     C315880   5.947   7.188   6.127 -0.2306 -0.2133 -0.1794
  575ccc     C415881   6.034   7.214   5.999 -0.2947 -0.7334  0.2124
  575ccc     C515882   6.183   7.242   6.043 -0.1775 -0.1792 -0.7337
  575ccc     H315883   6.028   7.127   5.932  1.8341 -1.3073  0.6959
  575ccc     H415884   5.937   7.289   6.169 -2.3172 -0.6894  0.6016
  575ccc     H515885   6.207   7.338   6.090  0.5867 -0.9205  0.4596
  575ccc     O115886   6.262   7.233   5.916  0.3577 -0.0565  0.4220
  575ccc     O215887   5.992   7.337   5.936  0.1431  0.2371  0.2878
  575ccc     O315888   5.815   7.142   6.091  0.1797 -0.3555  0.0179
  575ccc     O415889   6.023   6.971   6.188 -0.3640  0.6717  0.5142
  575ccc     C615890   6.233   7.064   6.373  0.4263 -0.2354  0.0869
  575ccc     H615891   5.771   7.214   6.042 -0.8159 -0.2448  1.0304
  575ccc     H715892   6.105   6.957   6.137 -0.5776  0.4883  0.2185
  575ccc     H815893   6.004   7.325   5.840  0.2334  0.5109  0.2650
  575ccc     H915894   6.261   6.963   6.342  3.0799  0.6042 -0.4678
  575ccc    H1015895   6.169   7.058   6.462 -0.5052 -0.2777 -0.5688
  575ccc     O515896   6.352   7.145   6.395  0.0463  0.5785  0.2144
  575ccc    H1115897   6.410   7.096   6.334 -0.0713 -0.1626  0.6960
  575ccc     O615898   6.236   7.143   6.144 -0.1865  0.3301  0.2008
  576ccc     C115899   5.988   7.634   5.145 -0.0039  0.0952 -0.6911
  576ccc     C215900   6.082   7.746   5.100 -0.7652 -0.1209  0.3511
  576ccc     H115901   5.909   7.690   5.196  0.6392  0.3662  0.0203
  576ccc     H215902   6.021   7.818   5.044 -2.3716 -2.3196 -0.8965
  576ccc     C315903   6.119   7.822   5.230 -0.3268  0.2202  0.5680
  576ccc     C415904   6.183   7.731   5.334  0.0401 -0.0931  0.2445
  576ccc     C515905   6.106   7.598   5.351  0.2234  0.7388 -0.1505
  576ccc     H315906   6.285   7.702   5.308 -0.2658 -1.2060  0.2316
  576ccc     H415907   6.023   7.845   5.277 -1.3379 -1.5189 -0.5208
  576ccc     H515908   6.019   7.622   5.413 -0.6901 -0.0313 -1.0812
  576ccc     O115909   6.192   7.508   5.413  0.2946  0.5196 -0.3800
  576ccc     O215910   6.184   7.806   5.459 -0.2911 -0.5314  0.0349
  576ccc     O315911   6.205   7.936   5.198 -0.2437 -0.4096 -0.1383
  576ccc     O415912   6.197   7.711   5.018 -0.0123 -0.5885 -0.4222
  576ccc     C615913   5.926   7.563   5.019 -0.0334  0.2088 -0.6785
  576ccc     H615914   6.186   7.979   5.283 -1.1291  1.1634 -1.0777
  576ccc     H715915   6.208   7.772   4.943 -0.7113 -1.2538 -1.0841
  576ccc     H815916   6.273   7.843   5.474 -1.1862  1.2271  1.4161
  576ccc     H915917   6.005   7.544   4.945  0.9237  0.0242  0.3559
  576ccc    H1015918   5.855   7.637   4.980  1.1236  0.7403 -1.8839
  576ccc     O515919   5.856   7.449   5.064  0.0800 -0.1076  0.6039
  576ccc    H1115920   5.914   7.371   5.067 -2.0225 -1.7450  2.1460
  576ccc     O615921   6.058   7.543   5.229  0.3007  0.1747  0.3438
  577ccc     C115922   7.044   6.761   4.690  0.1660 -0.2342  0.5486
  577ccc     C215923   6.967   6.890   4.741 -0.3277  0.4561  1.1501
  577ccc     H115924   6.982   6.697   4.626  0.3752  0.5678 -0.4826
  577ccc     H215925   6.921   6.942   4.655 -1.1341  2.3625  2.6655
  577ccc     C315926   6.845   6.837   4.821  0.3722 -0.2294 -0.4824
  577ccc     C415927   6.886   6.736   4.932  0.1704  0.0558  0.2454
  577ccc     C515928   6.979   6.630   4.883 -0.7101 -0.5760  0.1348
  577ccc     H315929   6.935   6.796   5.009  1.4322 -1.3116  0.5499
  577ccc     H415930   6.782   6.784   4.748  2.1156 -3.1875 -0.0129
  577ccc     H515931   6.926   6.556   4.822 -2.2809  1.8100 -1.5864
  577ccc     O115932   7.032   6.563   4.998  0.0393  0.1562  0.0904
  577ccc     O215933   6.769   6.673   4.987 -0.2488  0.6165  0.0650
  577ccc     O315934   6.760   6.935   4.880 -0.6699 -0.0327 -0.3034
  577ccc     O415935   7.056   6.968   4.823  0.1144  0.2591 -0.0436
  577ccc     C615936   7.164   6.784   4.595 -0.0397 -0.4322 -0.3038
  577ccc     H615937   6.718   6.984   4.807 -0.1487 -0.4484 -0.8915
  577ccc     H715938   7.006   7.050   4.833  2.5917  1.8117  0.5882
  577ccc     H815939   6.707   6.746   4.976 -0.6495  0.0775 -1.6252
  577ccc     H915940   7.223   6.861   4.646  1.1339 -2.2635  1.2520
  577ccc    H1015941   7.125   6.823   4.501  0.2014  1.6203  0.3945
  577ccc     O515942   7.232   6.660   4.567  0.2498 -0.5100  0.2026
  577ccc    H1115943   7.266   6.633   4.654 -0.5022 -0.5998  0.4706
  577ccc     O615944   7.087   6.686   4.810  0.5649  0.9818  0.1832
  578ccc     C115945   6.795   7.235   5.329 -0.0442 -0.2603 -0.1116
  578ccc     C215946   6.845   7.318   5.213  0.3110 -0.6477  0.0691
  578ccc     H115947   6.861   7.254   5.414 -0.8993 -2.7065  1.1807
  578ccc     H215948   6.845   7.424   5.238 -1.1253 -0.4180 -0.8117
  578ccc     C315949   6.991   7.271   5.174 -0.2199 -0.1102 -0.5268
  578ccc     C415950   7.001   7.120   5.164  0.8972 -0.1183  0.5362
  578ccc     C515951   6.939   7.048   5.283  1.1407 -0.0474 -0.4879
  578ccc     H315952   6.950   7.084   5.074 -0.1764 -0.5021  1.2750
  578ccc     H415953   7.065   7.292   5.252  0.0098 -2.5417 -0.0068
  578ccc     H515954   6.998   7.065   5.373 -0.7580  4.0644  0.1908
  578ccc     O115955   6.926   6.906   5.263 -0.0725  0.1196 -0.1316
  578ccc     O215956   7.139   7.079   5.166  0.2158  0.1078 -0.1448
  578ccc     O315957   7.029   7.333   5.052  0.4409 -0.8359  1.1398
  578ccc     O415958   6.754   7.299   5.106  0.7201  0.2689 -0.2680
  578ccc     C615959   6.655   7.273   5.365  0.6914  0.7101  0.6936
  578ccc     H615960   7.083   7.410   5.078  1.0064 -1.5245  2.0587
  578ccc     H715961   6.792   7.349   5.032 -0.2042 -0.1052 -1.0047
  578ccc     H815962   7.137   6.986   5.135 -0.7200 -0.0016  0.2134
  578ccc     H915963   6.587   7.216   5.300 -0.4551  1.8404  0.8499
  578ccc    H1015964   6.645   7.383   5.361  0.2478  0.6496 -0.3850
  578ccc     O515965   6.642   7.234   5.496 -0.5595 -0.2158 -0.5192
  578ccc    H1115966   6.703   7.291   5.546 -2.4454 -0.7684  2.6828
  578ccc     O615967   6.806   7.095   5.303  0.1581 -0.1859  0.1361
  579ccc     C115968   6.867   8.440   6.614 -0.8381 -0.5112  0.1230
  579ccc     C215969   6.921   8.428   6.468  0.2773  0.2543  0.6543
  579ccc     H115970   6.935   8.506   6.669  1.7865  0.3974 -3.7982
  579ccc     H215971   6.977   8.519   6.442  1.7583 -0.4434  1.2967
  579ccc     C315972   7.032   8.325   6.442 -0.2493 -0.0516  0.1117
  579ccc     C415973   6.996   8.193   6.515  0.2030 -0.4716 -0.1159
  579ccc     C515974   6.977   8.224   6.673 -0.1550 -1.4102  1.2736
  579ccc     H315975   6.894   8.168   6.483  0.7131 -2.0429 -0.6103
  579ccc     H415976   7.124   8.372   6.481  0.5836 -0.1929 -1.5749
  579ccc     H515977   7.068   8.266   6.718 -0.2080 -1.3679  1.3426
  579ccc     O115978   6.938   8.105   6.746 -0.2424 -0.3378 -0.3470
  579ccc     O215979   7.090   8.079   6.510  0.3595 -0.0912  0.3712
  579ccc     O315980   7.050   8.292   6.307 -0.1187  0.0306 -0.4345
  579ccc     O415981   6.808   8.402   6.388 -0.5781  0.6217 -0.1373
  579ccc     C615982   6.726   8.501   6.640 -0.2420 -0.3985  0.5585
  579ccc     H615983   6.966   8.251   6.278  0.7383 -1.2009 -1.2824
  579ccc     H715984   6.797   8.481   6.332 -4.1349  1.1673  1.0770
  579ccc     H815985   7.030   8.004   6.522  0.8943 -1.1220 -2.6094
  579ccc     H915986   6.649   8.425   6.623 -0.2212 -0.4037  0.4868
  579ccc    H1015987   6.706   8.585   6.572 -0.9135 -0.1901  1.0123
  579ccc     O515988   6.733   8.551   6.779  0.6913  0.4303 -0.1073
  579ccc    H1115989   6.780   8.479   6.824  2.9918  1.2659 -1.0036
  579ccc     O615990   6.860   8.313   6.682  0.2938  0.5886  0.4564
  580ccc     C115991   6.658   7.747   6.289  0.5795 -0.0659 -0.4660
  580ccc     C215992   6.652   7.848   6.169  0.6468  0.1728  0.3066
  580ccc     H115993   6.564   7.691   6.286  0.1783  0.5567  0.1203
  580ccc     H215994   6.641   7.780   6.083 -3.5995 -1.5321  1.9603
  580ccc     C315995   6.531   7.951   6.178 -0.0919  0.0751  0.8183
  580ccc     C415996   6.534   8.012   6.322 -0.0815  0.1908  0.7232
  580ccc     C515997   6.536   7.894   6.426 -0.5143 -0.5717 -0.5230
  580ccc     H315998   6.624   8.073   6.327 -0.7695  1.5258 -1.5063
  580ccc     H415999   6.434   7.900   6.176  0.0276 -0.1824 -1.3824
  580ccc     H516000   6.469   7.808   6.414 -1.1556 -0.5514  2.2342
  580ccc     O116001   6.524   7.957   6.557  0.5283  0.3917  0.2725
  580ccc     O216002   6.421   8.109   6.332  0.5020  0.1832  0.0770
  580ccc     O316003   6.540   8.053   6.071  0.0850  0.1311 -0.5518
  580ccc     O416004   6.776   7.911   6.177 -0.2115 -0.1398 -0.5002
  580ccc     C616005   6.784   7.651   6.291 -0.5558 -0.3552 -0.0033
  580ccc     H616006   6.494   8.132   6.105  1.2599  0.3138  0.6857
  580ccc     H716007   6.843   7.849   6.210 -1.1688 -1.5106 -1.0875
  580ccc     H816008   6.465   8.193   6.355  0.7604 -0.3285  1.5944
  580ccc     H916009   6.793   7.596   6.197 -1.2842 -1.1177  0.3638
  580ccc    H1016010   6.758   7.575   6.366 -0.4816 -2.0645 -1.6338
  580ccc     O516011   6.902   7.733   6.315 -0.3936 -0.4886 -0.1400
  580ccc    H1116012   6.972   7.667   6.330 -1.7987 -2.0467 -0.0736
  580ccc     O616013   6.657   7.823   6.412 -0.4836  0.1978  0.2835
  581ccc     C116014   6.867   8.376   5.878 -0.2380 -0.8091 -0.6094
  581ccc     C216015   6.719   8.332   5.894  0.6639 -0.0747 -0.4783
  581ccc     H116016   6.883   8.418   5.778 -0.5505  2.7515  0.6744
  581ccc     H216017   6.656   8.413   5.856 -0.0367 -0.9364 -1.1755
  581ccc     C316018   6.696   8.198   5.809  0.2212 -0.3956 -0.6827
  581ccc     C416019   6.797   8.093   5.851 -0.2585  0.0949 -0.0334
  581ccc     C516020   6.945   8.135   5.849  0.3055  0.1081  0.2568
  581ccc     H316021   6.775   8.056   5.952 -1.6181 -1.7628 -0.9608
  581ccc     H416022   6.709   8.227   5.704 -3.3885  0.1612 -1.0956
  581ccc     H516023   6.975   8.144   5.744  1.2753 -1.3467  0.3787
  581ccc     O116024   7.038   8.048   5.927  0.7089  0.0180 -0.5647
  581ccc     O216025   6.775   7.981   5.756  0.1703  0.2797  0.1108
  581ccc     O316026   6.560   8.155   5.823 -0.2015 -0.4503  0.1994
  581ccc     O416027   6.690   8.314   6.032  0.0284 -0.3626 -0.0153
  581ccc     C616028   6.901   8.490   5.976  0.9745 -0.9084  0.1918
  581ccc     H616029   6.532   8.127   5.912 -1.1146 -0.8374 -0.1981
  581ccc     H716030   6.594   8.332   6.032 -0.0692 -0.8243 -1.2991
  581ccc     H816031   6.688   7.944   5.780  0.0802 -0.5210 -1.3373
  581ccc     H916032   6.914   8.440   6.073  0.0576 -0.8484  0.3568
  581ccc    H1016033   6.812   8.555   5.981  1.2382 -0.6355  1.8656
  581ccc     O516034   7.017   8.553   5.925  0.5686 -0.2354  0.1138
  581ccc    H1116035   7.090   8.504   5.967  0.1882 -0.5295  0.4414
  581ccc     O616036   6.954   8.264   5.915 -0.9817 -0.4511  0.2058
  582ccc     C116037   7.586   8.560   6.064 -0.0159 -0.0946  0.2167
  582ccc     C216038   7.473   8.668   6.051 -0.2373 -0.0095  0.0565
  582ccc     H116039   7.584   8.496   5.975  0.0779 -0.8036  0.7128
  582ccc     H216040   7.500   8.719   5.957  0.0769 -0.1910  0.0482
  582ccc     C316041   7.342   8.606   6.024  0.7029 -0.7116  0.1910
  582ccc     C416042   7.306   8.509   6.141  0.6251  0.4143 -0.7660
  582ccc     C516043   7.417   8.406   6.169 -0.2876  0.0828 -0.6278
  582ccc     H316044   7.296   8.575   6.228  4.0635 -0.5987  0.5592
  582ccc     H416045   7.353   8.547   5.932  0.8503  1.1455 -1.0342
  582ccc     H516046   7.428   8.328   6.093  0.0982 -0.9943  0.4982
  582ccc     O116047   7.383   8.336   6.290 -0.4674 -0.2110  0.2700
  582ccc     O216048   7.181   8.435   6.106  0.4240  0.0765  0.2112
  582ccc     O316049   7.237   8.697   6.007  0.0961 -0.0281  1.2732
  582ccc     O416050   7.478   8.749   6.167 -0.2360 -0.1546 -0.3383
  582ccc     C616051   7.726   8.612   6.078 -0.5705  0.2072 -0.2851
  582ccc     H616052   7.163   8.666   5.953  0.9069  1.2311 -0.6958
  582ccc     H716053   7.566   8.719   6.194 -0.2990 -2.3861 -2.2613
  582ccc     H816054   7.137   8.397   6.184  1.0584  0.7777  0.9383
  582ccc     H916055   7.738   8.683   5.995 -1.5614  0.6299 -0.0778
  582ccc    H1016056   7.800   8.532   6.070 -0.0158  0.5727  1.0395
  582ccc     O516057   7.737   8.683   6.199  0.0811 -0.2225  0.4100
  582ccc    H1116058   7.827   8.719   6.204  0.0724 -0.3794  3.4000
  582ccc     O616059   7.543   8.476   6.181 -0.1696  0.4515  0.0889
  583ccc     C116060   7.510   6.234   8.826  0.3020  0.5176 -0.2107
  583ccc     C216061   7.400   6.138   8.765 -0.1191 -0.2640 -0.0832
  583ccc     H116062   7.524   6.216   8.933 -0.5809 -1.0081 -0.3208
  583ccc     H216063   7.430   6.034   8.780 -1.0363 -0.9582 -2.4724
  583ccc     C316064   7.262   6.155   8.836  0.0570 -0.5719 -0.1717
  583ccc     C416065   7.220   6.307   8.826 -0.1192  0.2410 -0.2494
  583ccc     C516066   7.335   6.406   8.864 -0.2357  0.3709  0.2046
  583ccc     H316067   7.192   6.329   8.723  1.6372  2.3512 -0.3476
  583ccc     H416068   7.280   6.128   8.941  1.3338  1.0175  0.0558
  583ccc     H516069   7.347   6.420   8.972  1.2773  1.0965 -0.0315
  583ccc     O116070   7.299   6.531   8.806 -0.1673  0.2562 -0.2240
  583ccc     O216071   7.109   6.332   8.913 -0.2864 -0.3390 -0.3299
  583ccc     O316072   7.161   6.061   8.785  0.7172  0.1604 -0.6928
  583ccc     O416073   7.373   6.158   8.625 -0.2301 -0.0056 -0.6167
  583ccc     C616074   7.650   6.216   8.753  0.1304 -0.2652 -0.1604
  583ccc     H616075   7.079   6.080   8.834  1.1389 -2.2285  1.1334
  583ccc     H716076   7.289   6.112   8.606  0.4495 -2.1887  1.1985
  583ccc     H816077   7.123   6.332   9.009 -1.5464 -2.5722 -0.0855
  583ccc     H916078   7.711   6.127   8.774  1.7076 -0.3447 -4.1848
  583ccc    H1016079   7.720   6.293   8.789  0.1868 -0.3798 -0.0194
  583ccc     O516080   7.632   6.205   8.609 -0.6488 -0.2687  0.7476
  583ccc    H1116081   7.541   6.172   8.603 -1.1847  0.9695  1.4995
  583ccc     O616082   7.458   6.369   8.794  0.4411 -0.5292  0.3995
  584ccc     C116083   6.649   6.334   8.607  0.2840  0.2718  0.4420
  584ccc     C216084   6.734   6.217   8.658  0.0138 -0.4551  0.6363
  584ccc     H116085   6.600   6.301   8.514 -2.4247  0.3087  1.7616
  584ccc     H216086   6.668   6.132   8.679  1.2256 -2.2898 -2.3347
  584ccc     C316087   6.843   6.171   8.557  0.1380  0.1092 -0.7533
  584ccc     C416088   6.927   6.289   8.507 -0.0505 -0.3247  0.3828
  584ccc     C516089   6.842   6.411   8.463  0.0108  0.6783 -0.1803
  584ccc     H316090   6.982   6.313   8.599 -0.3709 -0.4173  0.5987
  584ccc     H416091   6.790   6.132   8.469 -0.9110 -0.6408  0.1719
  584ccc     H516092   6.784   6.384   8.374  1.2157 -0.7327 -0.5898
  584ccc     O116093   6.927   6.521   8.440  0.3635  0.1951  0.1161
  584ccc     O216094   7.013   6.242   8.396 -0.1305  0.2657 -0.1888
  584ccc     O316095   6.926   6.074   8.628  0.5329  0.1522  0.1151
  584ccc     O416096   6.787   6.261   8.778 -0.7783  0.1195 -0.0431
  584ccc     C616097   6.541   6.380   8.704 -0.2524  0.2392  0.2720
  584ccc     H616098   7.014   6.073   8.586  0.8762 -0.5016  0.8098
  584ccc     H716099   6.843   6.186   8.805  1.3751  1.4600 -0.5222
  584ccc     H816100   6.954   6.212   8.324 -0.2347 -0.4769  0.1966
  584ccc     H916101   6.586   6.435   8.787 -0.0640  0.7952 -0.1964
  584ccc    H1016102   6.474   6.303   8.745  0.7154 -1.1513 -0.6621
  584ccc     O516103   6.457   6.464   8.616  0.0492 -0.0829 -0.6961
  584ccc    H1116104   6.394   6.506   8.677  0.7073  0.7071 -0.5367
  584ccc     O616105   6.743   6.439   8.569  0.1471  0.4972 -0.1146
  585ccc     C116106   8.398   6.632   7.199  1.1356 -0.4977 -0.0324
  585ccc     C216107   8.348   6.519   7.099  0.6707 -0.3231 -0.2251
  585ccc     H116108   8.505   6.621   7.216  0.8228 -2.2353  1.0537
  585ccc     H216109   8.408   6.517   7.007 -1.5198  0.2698 -1.7651
  585ccc     C316110   8.371   6.381   7.166 -0.0735  0.1333 -0.1201
  585ccc     C416111   8.301   6.375   7.300 -0.6029 -0.1683 -0.5530
  585ccc     C516112   8.338   6.492   7.394  0.3206  0.5060  0.0571
  585ccc     H316113   8.193   6.369   7.283 -0.7643  1.5711 -0.3368
  585ccc     H416114   8.479   6.376   7.184  0.1569  2.6705 -0.4875
  585ccc     H516115   8.441   6.481   7.430 -0.2357 -1.2557  1.2388
  585ccc     O116116   8.243   6.493   7.502  0.0216  0.5913 -0.1925
  585ccc     O216117   8.350   6.250   7.362  1.0845 -0.5978 -0.2667
  585ccc     O316118   8.337   6.259   7.087  0.0741  0.2082  0.2697
  585ccc     O416119   8.214   6.544   7.065  0.4196 -0.2205  0.4930
  585ccc     C616120   8.392   6.774   7.144 -0.8339 -0.6152 -0.5232
  585ccc     H616121   8.307   6.191   7.149 -2.7922 -0.9742 -2.1730
  585ccc     H716122   8.213   6.641   7.075 -0.4196  0.0670 -1.7916
  585ccc     H816123   8.283   6.224   7.428  2.2761  0.3302  1.4056
  585ccc     H916124   8.471   6.780   7.069 -0.8180 -1.6210 -0.5907
  585ccc    H1016125   8.416   6.847   7.223 -1.5677  1.6582 -2.2821
  585ccc     O516126   8.260   6.798   7.098  0.4561  0.0592  0.0688
  585ccc    H1116127   8.237   6.890   7.118 -0.3777 -0.6225  2.7002
  585ccc     O616128   8.318   6.620   7.320 -0.3930  0.1253  0.5357
  586ccc     C116129   7.824   5.855   8.350 -0.0085  0.3757 -0.0964
  586ccc     C216130   7.921   5.869   8.469  0.7216 -0.4837  0.5706
  586ccc     H116131   7.854   5.763   8.298  2.4102  0.3906  1.1558
  586ccc     H216132   7.931   5.776   8.527  1.3481 -1.6645 -1.3193
  586ccc     C316133   8.067   5.904   8.419 -0.2934  0.1593  0.7943
  586ccc     C416134   8.080   6.008   8.304 -0.1040 -0.2325  0.3730
  586ccc     C516135   7.974   5.984   8.203 -0.0144  0.2602  0.1420
  586ccc     H316136   8.067   6.112   8.337  0.4615  0.7860 -2.3391
  586ccc     H416137   8.098   5.808   8.375 -0.1517  1.3584 -1.9108
  586ccc     H516138   7.989   5.893   8.144  1.7552  1.2341 -1.0207
  586ccc     O116139   7.966   6.097   8.112  0.0959 -0.1194  0.2014
  586ccc     O216140   8.212   6.000   8.242  0.4036  0.3361 -0.1804
  586ccc     O316141   8.142   5.936   8.535 -0.0792 -0.4413  0.4462
  586ccc     O416142   7.865   5.986   8.539 -0.2539  0.2810  0.2751
  586ccc     C616143   7.676   5.821   8.379 -0.4937  0.0258  0.0689
  586ccc     H616144   8.136   6.030   8.561 -1.1297 -1.1294  3.0121
  586ccc     H716145   7.930   6.011   8.606 -0.9801  0.6220  0.8733
  586ccc     H816146   8.280   6.030   8.306  0.9365  2.0751 -1.4779
  586ccc     H916147   7.675   5.732   8.443  1.3157 -1.6842 -2.0958
  586ccc    H1016148   7.626   5.798   8.284  0.8237 -0.1801 -0.5981
  586ccc     O516149   7.618   5.931   8.448 -0.9750  0.0815 -0.2475
  586ccc    H1116150   7.699   5.971   8.485 -0.1648 -1.4064 -0.2959
  586ccc     O616151   7.838   5.967   8.258  0.1039  0.5874 -0.3954
  587ccc     C116152   5.996   8.128   8.039 -0.2629  0.2494  0.4414
  587ccc     C216153   5.873   8.145   8.137  0.2263 -0.2432  0.1703
  587ccc     H116154   5.983   8.188   7.948  0.6122  0.4085  0.4122
  587ccc     H216155   5.863   8.252   8.155  2.8190  0.0031  0.5360
  587ccc     C316156   5.751   8.091   8.064  0.0878 -0.3336 -0.7287
  587ccc     C416157   5.767   7.949   8.015  0.0953  0.3008 -0.6563
  587ccc     C516158   5.896   7.934   7.935 -0.1269  0.6504  0.8324
  587ccc     H316159   5.773   7.888   8.106 -0.3797 -0.6388 -1.2329
  587ccc     H416160   5.746   8.155   7.976  0.1458 -1.3275 -1.4754
  587ccc     H516161   5.891   7.975   7.834  3.8041 -0.8730 -0.1779
  587ccc     O116162   5.914   7.797   7.921  0.3268  0.3574 -0.1236
  587ccc     O216163   5.646   7.931   7.931 -0.0538 -0.2416 -0.2820
  587ccc     O316164   5.628   8.098   8.143 -0.3660  0.9448  0.4231
  587ccc     O416165   5.914   8.077   8.260  0.1046  0.5283  0.2085
  587ccc     C616166   6.121   8.178   8.102  0.1780  0.1432 -1.0116
  587ccc     H616167   5.649   8.054   8.227 -0.4012  1.9934  0.9977
  587ccc     H716168   5.862   8.115   8.333  0.0798  0.6562  0.1245
  587ccc     H816169   5.583   7.980   7.987 -0.6983 -0.3454 -0.8927
  587ccc     H916170   6.144   8.106   8.182 -0.1352 -0.7216 -1.6780
  587ccc    H1016171   6.110   8.271   8.158 -0.6064 -2.4001  3.5686
  587ccc     O516172   6.225   8.191   8.006 -0.4393 -0.1333 -0.1838
  587ccc    H1116173   6.234   8.287   7.990  0.6132 -0.1836  0.0901
  587ccc     O616174   6.010   7.990   8.000  0.1728  0.1038  0.4697
  588ccc     C116175   6.053   7.249   8.736 -0.3631 -0.1532  0.3387
  588ccc     C216176   5.923   7.280   8.805  1.1040 -0.3790  0.4221
  588ccc     H116177   6.127   7.326   8.756 -0.4753  0.4384 -1.3304
  588ccc     H216178   5.941   7.298   8.912 -1.4214 -0.8860  1.0042
  588ccc     C316179   5.854   7.410   8.738 -0.0120  0.0769 -0.7271
  588ccc     C416180   5.846   7.395   8.587  0.1339  0.0108  0.4543
  588ccc     C516181   5.993   7.356   8.522  0.0174  0.2917  0.3631
  588ccc     H316182   5.793   7.303   8.557 -0.8009  0.7921 -0.3443
  588ccc     H416183   5.918   7.498   8.756 -0.1908  0.2299 -0.8261
  588ccc     H516184   6.075   7.428   8.525 -0.1334  0.5852 -1.5420
  588ccc     O116185   5.980   7.328   8.382 -0.3974  0.0349 -0.0668
  588ccc     O216186   5.802   7.520   8.533  0.1707  0.3369  0.0935
  588ccc     O316187   5.730   7.443   8.799 -0.0621 -0.1442  0.3953
  588ccc     O416188   5.834   7.170   8.793 -0.3244 -0.0430  0.1756
  588ccc     C616189   6.121   7.122   8.784 -0.4650 -0.1569 -0.4936
  588ccc     H616190   5.713   7.531   8.762  1.5547 -1.0400 -2.7893
  588ccc     H716191   5.775   7.166   8.870 -0.0497 -2.4537  0.3536
  588ccc     H816192   5.727   7.493   8.477 -1.3913  1.4044  1.5326
  588ccc     H916193   6.129   7.128   8.893 -0.6207 -0.7752 -0.4434
  588ccc    H1016194   6.221   7.104   8.744  0.2227  4.2156 -1.1685
  588ccc     O516195   6.041   7.014   8.759 -0.3391  0.2438  0.1703
  588ccc    H1116196   5.954   7.057   8.762 -1.0847 -1.1624 -0.3504
  588ccc     O616197   6.041   7.239   8.592 -0.4091  0.8556 -0.8242
  589ccc     C116198   5.770   8.027   8.882  0.1046  0.2132 -0.0879
  589ccc     C216199   5.691   7.897   8.885  0.3200 -0.1677 -0.4804
  589ccc     H116200   5.718   8.100   8.818  0.6448  1.7378  1.1387
  589ccc     H216201   5.589   7.926   8.912  0.4527  1.6433 -1.7536
  589ccc     C316202   5.689   7.824   8.747 -0.7716 -0.2573 -0.0581
  589ccc     C416203   5.823   7.812   8.675  0.3213 -0.2952 -0.6218
  589ccc     C516204   5.893   7.953   8.689 -0.7358  0.2498 -0.3072
  589ccc     H316205   5.888   7.736   8.720  1.1027  0.6359 -0.1420
  589ccc     H416206   5.625   7.880   8.677 -0.1854 -0.4396 -0.7484
  589ccc     H516207   5.844   8.025   8.623 -0.1385  1.5413  0.6125
  589ccc     O116208   6.022   7.921   8.635 -0.8477 -0.1208 -0.0548
  589ccc     O216209   5.796   7.794   8.533  0.9642  0.3246 -0.6580
  589ccc     O316210   5.642   7.689   8.750 -0.2328  0.3249  0.1110
  589ccc     O416211   5.754   7.819   8.990  0.1371  0.4790  0.0010
  589ccc     C616212   5.790   8.082   9.026  0.1083  0.2753 -0.0767
  589ccc     H616213   5.546   7.702   8.758 -0.3782  0.7086 -1.7453
  589ccc     H716214   5.682   7.778   9.041  0.7153  1.5908  1.7830
  589ccc     H816215   5.794   7.697   8.533  1.4260  0.2676  1.7179
  589ccc     H916216   5.862   8.022   9.083 -1.8409 -2.7772 -0.5547
  589ccc    H1016217   5.695   8.073   9.082 -0.7998  0.7228 -1.4872
  589ccc     O516218   5.829   8.218   9.022 -0.1182 -1.0376  0.5817
  589ccc    H1116219   5.893   8.217   8.949  0.2702 -2.2787  0.9188
  589ccc     O616220   5.904   7.991   8.828  0.3042  0.5715 -0.8173
  590ccc     C116221   5.530   7.578   8.258  0.6493  0.0023 -0.4788
  590ccc     C216222   5.530   7.428   8.284 -0.0224 -0.7020  0.5428
  590ccc     H116223   5.466   7.600   8.171  0.0739  0.0936 -0.0395
  590ccc     H216224   5.429   7.385   8.287  0.4360 -1.7739  1.2791
  590ccc     C316225   5.600   7.373   8.155  0.0115 -0.1465  0.1752
  590ccc     C416226   5.745   7.415   8.132 -0.4224 -0.4573 -0.0479
  590ccc     C516227   5.752   7.571   8.130  1.1505  0.1555 -0.4680
  590ccc     H316228   5.807   7.382   8.217 -1.5062 -0.0714  0.9253
  590ccc     H416229   5.543   7.418   8.073  1.4938  0.1727 -0.7123
  590ccc     H516230   5.699   7.611   8.043 -0.1481  1.3867  0.8410
  590ccc     O116231   5.886   7.618   8.135  0.0413 -0.0594  0.3025
  590ccc     O216232   5.800   7.358   8.010 -0.1456  0.3318 -0.2776
  590ccc     O316233   5.588   7.227   8.145 -0.0783  0.3898 -0.2115
  590ccc     O416234   5.601   7.398   8.403 -0.1234 -0.5557 -0.1710
  590ccc     C616235   5.476   7.655   8.386  0.2271  0.1612 -0.1958
  590ccc     H616236   5.493   7.208   8.145  0.0857 -0.5115 -0.7494
  590ccc     H716237   5.585   7.303   8.413 -1.3180 -0.4705 -1.0326
  590ccc     H816238   5.768   7.266   8.010 -0.0197  0.2806  0.5784
  590ccc     H916239   5.554   7.663   8.463 -0.0963 -1.8690  0.3750
  590ccc    H1016240   5.393   7.598   8.428  0.9781  0.1193  1.2772
  590ccc     O516241   5.447   7.790   8.353  0.1033 -0.5562 -0.1376
  590ccc    H1116242   5.385   7.816   8.423 -0.7273 -0.1075 -1.0228
  590ccc     O616243   5.673   7.618   8.246  0.0371 -0.1549 -0.3683
  591ccc     C116244   7.118   5.752   8.258  0.0920 -0.3528 -0.4622
  591ccc     C216245   7.146   5.896   8.300 -0.2768  0.6432  0.4963
  591ccc     H116246   7.020   5.729   8.300 -0.3510  0.2178 -1.1735
  591ccc     H216247   7.057   5.953   8.272  0.5241  1.7198  0.0903
  591ccc     C316248   7.140   5.908   8.451  0.4204  0.0992  0.6006
  591ccc     C416249   7.239   5.817   8.519 -0.2236 -0.3898  0.6112
  591ccc     C516250   7.239   5.669   8.463  0.1444  0.0504 -0.5410
  591ccc     H316251   7.341   5.844   8.488  0.4545 -2.6955  0.6181
  591ccc     H416252   7.040   5.869   8.474  0.6523  1.1846  4.0051
  591ccc     H516253   7.149   5.626   8.509  0.5573  0.0520  0.2762
  591ccc     O116254   7.368   5.612   8.495  0.5769  0.8436 -0.0119
  591ccc     O216255   7.218   5.827   8.660 -0.1711 -0.2123 -0.0938
  591ccc     O316256   7.152   6.044   8.500  0.4212 -0.2619 -0.1785
  591ccc     O416257   7.266   5.943   8.239 -0.1134 -0.1154 -0.6094
  591ccc     C616258   7.120   5.717   8.113  0.2112  0.2242  0.4292
  591ccc     H616259   7.118   6.106   8.433 -0.4127 -1.3146 -0.7604
  591ccc     H716260   7.261   6.040   8.237  1.0085 -0.0477 -0.8266
  591ccc     H816261   7.203   5.918   8.692  2.7776  0.3758 -0.0688
  591ccc     H916262   7.220   5.715   8.067  0.0925 -1.1024  0.1741
  591ccc    H1016263   7.067   5.794   8.055  1.1466 -0.2890 -1.1935
  591ccc     O516264   7.058   5.587   8.094 -0.0808 -0.4224 -0.0387
  591ccc    H1116265   7.135   5.528   8.095  0.3033  0.0381  1.6815
  591ccc     O616266   7.218   5.669   8.320 -0.0157  0.2780 -0.1373
  592ccc     C116267   6.723   5.748   8.919 -0.6288  0.8819 -0.4372
  592ccc     C216268   6.780   5.881   8.875 -0.3784  0.1166  0.8043
  592ccc     H116269   6.674   5.771   9.014  0.3060 -2.6393  1.0374
  592ccc     H216270   6.699   5.952   8.857 -0.1171  0.1921 -0.1200
  592ccc     C316271   6.877   5.951   8.981  0.2570  0.1281 -0.5782
  592ccc     C416272   6.989   5.851   9.022  0.4577 -0.0115  0.6140
  592ccc     C516273   6.927   5.713   9.056 -0.0177  0.2856  0.3250
  592ccc     H316274   7.054   5.830   8.936 -1.1579 -1.6381 -0.2858
  592ccc     H416275   6.812   5.967   9.069 -1.1620 -1.4449 -1.2873
  592ccc     H516276   6.865   5.701   9.146 -0.0871 -5.2472 -0.1111
  592ccc     O116277   7.042   5.625   9.050  0.2666 -0.1997  0.0160
  592ccc     O216278   7.052   5.898   9.139  0.6345 -0.5459 -0.4616
  592ccc     O316279   6.922   6.077   8.930  0.2817 -0.3901 -0.0863
  592ccc     O416280   6.857   5.856   8.753 -0.4095 -0.4197 -0.3869
  592ccc     C616281   6.620   5.681   8.824  0.1756  0.1839  0.2608
  592ccc     H616282   6.936   6.123   9.015 -1.6427  0.9342 -0.4326
  592ccc     H716283   6.883   5.940   8.710  0.3063 -0.6964 -0.5249
  592ccc     H816284   7.147   5.878   9.136  0.7892 -0.9845  3.3328
  592ccc     H916285   6.673   5.654   8.731  1.2402  0.9806  0.6206
  592ccc    H1016286   6.542   5.752   8.794  0.4488  0.6668  0.6926
  592ccc     O516287   6.559   5.571   8.892  0.1226 -0.8032 -0.3740
  592ccc    H1116288   6.513   5.526   8.819 -1.8157  0.7357 -0.1686
  592ccc     O616289   6.841   5.664   8.946  0.3790 -0.5370  0.6568
  593ccc     C116290   7.634   4.234   8.908  0.4190 -0.2528  0.3974
  593ccc     C216291   7.683   4.096   8.975 -0.1807  0.0561 -0.2724
  593ccc     H116292   7.620   4.311   8.985 -0.2058  1.7612 -1.6564
  593ccc     H216293   7.772   4.116   9.036  1.0661 -3.2675 -0.7682
  593ccc     C316294   7.573   4.034   9.064 -0.7997  0.2904 -0.3342
  593ccc     C416295   7.434   4.036   8.996  0.0459 -1.3231  0.2247
  593ccc     C516296   7.405   4.177   8.929 -0.4354  0.2896  0.0484
  593ccc     H316297   7.439   3.963   8.915  0.5719 -1.5143  0.4271
  593ccc     H416298   7.570   4.091   9.158  0.2189 -0.6560  0.2920
  593ccc     H516299   7.397   4.251   9.010  1.0400 -0.1685  0.6425
  593ccc     O116300   7.286   4.178   8.850  0.0668 -0.7893  0.1237
  593ccc     O216301   7.322   4.012   9.090 -0.2630  0.1992 -0.3915
  593ccc     O316302   7.598   3.895   9.095  0.4532 -0.0505  0.0568
  593ccc     O416303   7.721   4.003   8.872  0.0709 -0.1354  0.6692
  593ccc     C616304   7.742   4.303   8.817  0.1917  0.4543 -0.3406
  593ccc     H616305   7.617   3.895   9.191  0.3346  0.1689  0.0818
  593ccc     H716306   7.725   3.927   8.932 -2.9802 -0.0986  1.0500
  593ccc     H816307   7.284   3.928   9.060  1.6983 -0.5817 -0.9040
  593ccc     H916308   7.730   4.275   8.712 -1.5206  0.2755 -0.1222
  593ccc    H1016309   7.841   4.270   8.851 -0.8087 -1.5638  0.8236
  593ccc     O516310   7.725   4.443   8.827  0.0681 -0.1007 -0.0503
  593ccc    H1116311   7.783   4.478   8.757 -1.5719  0.2331 -1.2999
  593ccc     O616312   7.509   4.217   8.839  0.4215 -0.3144  0.0080
  594ccc     C116313   6.438   3.668   9.155 -0.0200 -1.0401  0.2253
  594ccc     C216314   6.344   3.647   9.036  0.1238 -0.5831 -0.1426
  594ccc     H116315   6.373   3.724   9.223  0.9145  0.7154 -0.2407
  594ccc     H216316   6.251   3.605   9.077 -0.2418  0.7887  0.4943
  594ccc     C316317   6.300   3.783   8.965  0.4475  0.3136 -0.1131
  594ccc     C416318   6.424   3.876   8.940  0.6307  0.6757 -0.8407
  594ccc     C516319   6.515   3.883   9.064  0.0545 -0.0065  0.1400
  594ccc     H316320   6.487   3.835   8.860  3.4713  2.2979  0.4452
  594ccc     H416321   6.224   3.822   9.035 -0.2421 -0.3382 -0.4826
  594ccc     H516322   6.465   3.946   9.138 -0.8783  0.2231 -0.6578
  594ccc     O116323   6.636   3.949   9.016  0.1292  0.3108 -0.3698
  594ccc     O216324   6.372   4.009   8.900  0.8313  0.0177 -0.1687
  594ccc     O316325   6.233   3.758   8.841 -0.5442 -0.4660 -0.3442
  594ccc     O416326   6.404   3.551   8.951 -0.6306 -0.3489 -0.4223
  594ccc     C616327   6.486   3.539   9.226 -0.1427 -0.0562 -1.0917
  594ccc     H616328   6.281   3.682   8.805  0.6993  0.5331 -0.8803
  594ccc     H716329   6.471   3.498   8.998 -1.0492  0.5838  1.2864
  594ccc     H816330   6.421   4.041   8.822  1.2248 -0.8784 -0.3071
  594ccc     H916331   6.402   3.474   9.253 -2.0748  1.9057 -2.1456
  594ccc    H1016332   6.540   3.567   9.317  1.0770  0.1421 -1.8479
  594ccc     O516333   6.563   3.467   9.132 -0.0768  0.2632 -0.7529
  594ccc    H1116334   6.587   3.394   9.190  0.0988  0.6348 -0.3532
  594ccc     O616335   6.545   3.759   9.127 -0.5788  0.4454 -0.1873
  595ccc     C116336   5.985   5.970   9.306 -0.6769  1.0175  0.5635
  595ccc     C216337   5.843   6.003   9.355  0.7532  0.0678 -0.0300
  595ccc     H116338   5.997   6.025   9.212 -1.8810  0.4858  0.0817
  595ccc     H216339   5.838   6.112   9.368 -1.5386 -0.0439  0.4343
  595ccc     C316340   5.739   5.942   9.247  0.3478  0.0360  0.7686
  595ccc     C416341   5.777   5.796   9.211  0.4331  0.3469  0.0477
  595ccc     C516342   5.927   5.770   9.172  0.0131  0.2106 -0.1104
  595ccc     H316343   5.750   5.738   9.301  0.7584 -0.7475 -0.5367
  595ccc     H416344   5.766   5.995   9.155  0.5490 -1.6011 -0.1573
  595ccc     H516345   5.956   5.818   9.078 -1.5983  1.4828  0.0050
  595ccc     O116346   5.951   5.632   9.167 -0.5685 -0.1650  0.1571
  595ccc     O216347   5.682   5.759   9.107  0.2483  0.0918 -0.0481
  595ccc     O316348   5.597   5.951   9.264  0.3499 -0.5739  1.0454
  595ccc     O416349   5.810   5.936   9.480  0.0312 -0.0790  0.1138
  595ccc     C616350   6.090   6.014   9.405 -0.4979  0.3394  0.5691
  595ccc     H616351   5.572   6.044   9.247 -2.9477 -1.1968  1.7600
  595ccc     H716352   5.871   5.979   9.542  1.9305 -1.3255 -0.7615
  595ccc     H816353   5.620   5.830   9.131  1.6102  1.6187 -0.7986
  595ccc     H916354   6.089   5.948   9.493  0.0858 -2.6522 -1.5104
  595ccc    H1016355   6.062   6.110   9.450 -0.5790  0.0231  1.2168
  595ccc     O516356   6.216   6.017   9.336 -0.4543  0.0280  0.5115
  595ccc    H1116357   6.261   5.944   9.383 -1.0608  0.3129  1.5534
  595ccc     O616358   5.998   5.826   9.282 -0.3827  0.1566 -0.2895
  596ccc     C116359   6.781   5.052   9.499 -0.1803  1.0017 -0.1209
  596ccc     C216360   6.875   5.082   9.387  0.4124 -0.2098 -0.3181
  596ccc     H116361   6.774   4.942   9.496  2.1822  0.8127 -0.8328
  596ccc     H216362   6.958   5.011   9.396 -0.2562 -0.8853  0.6580
  596ccc     C316363   6.812   5.066   9.246  1.2174 -0.2532  0.0969
  596ccc     C416364   6.665   5.131   9.241 -0.7043  0.3181 -0.4867
  596ccc     C516365   6.578   5.084   9.362 -0.5202  0.6695 -0.0197
  596ccc     H316366   6.671   5.241   9.249 -1.3005  0.4417 -1.5538
  596ccc     H416367   6.798   4.958   9.232 -1.8887  0.4996 -5.2158
  596ccc     H516368   6.549   4.978   9.371 -0.4641  0.7870  1.8582
  596ccc     O116369   6.453   5.158   9.373  0.6727 -0.4502 -0.2616
  596ccc     O216370   6.613   5.083   9.113 -0.2742 -0.4080 -0.2275
  596ccc     O316371   6.899   5.120   9.143 -0.4726 -0.9668 -0.0585
  596ccc     O416372   6.919   5.214   9.412  0.0532  0.3098 -0.3073
  596ccc     C616373   6.841   5.070   9.644 -0.2822  0.1026  0.0371
  596ccc     H616374   6.966   5.050   9.137  2.8618  1.9772 -0.2425
  596ccc     H716375   6.996   5.229   9.355  0.7787  0.0700  0.5831
  596ccc     H816376   6.670   5.128   9.048  1.2342 -1.6884  0.1255
  596ccc     H916377   6.884   5.171   9.657  1.2862 -0.4093 -0.8289
  596ccc    H1016378   6.923   4.998   9.657 -0.6215 -0.2738  0.0945
  596ccc     O516379   6.737   5.027   9.738  0.3167  0.1914 -0.8773
  596ccc    H1116380   6.662   5.073   9.697 -0.7528 -1.3902 -0.7854
  596ccc     O616381   6.657   5.113   9.481  0.2853  0.4975  0.6107
  597ccc     C116382   5.204   6.338   9.321 -0.6236  0.3782 -0.0888
  597ccc     C216383   5.321   6.439   9.296 -0.1501 -0.7868 -0.0301
  597ccc     H116384   5.226   6.288   9.416  2.4298  0.3505 -0.7075
  597ccc     H216385   5.332   6.499   9.387  0.0311  0.7806 -1.0504
  597ccc     C316386   5.454   6.363   9.291 -0.3700  0.3128  0.3753
  597ccc     C416387   5.443   6.260   9.181  0.0793  0.0166  0.6887
  597ccc     C516388   5.322   6.159   9.203 -0.0051 -0.1209 -0.7665
  597ccc     H316389   5.418   6.309   9.086  0.6697 -1.1103 -0.0791
  597ccc     H416390   5.466   6.318   9.390  1.3561 -0.8534 -0.3067
  597ccc     H516391   5.332   6.106   9.298  0.4155  3.2536  1.2450
  597ccc     O116392   5.304   6.075   9.078 -0.5881  0.1312 -0.1723
  597ccc     O216393   5.575   6.198   9.164  0.0582 -0.0055  0.0423
  597ccc     O316394   5.566   6.447   9.268  0.1663  0.1511  0.7032
  597ccc     O416395   5.302   6.514   9.175 -0.2465 -0.2726  0.4463
  597ccc     C616396   5.063   6.399   9.310  0.9119  0.1387  0.0792
  597ccc     H616397   5.635   6.413   9.327 -0.5272 -0.8188  0.9891
  597ccc     H716398   5.340   6.603   9.190  1.0024 -0.8645  0.8873
  597ccc     H816399   5.620   6.259   9.103  0.1182  0.7149  0.7861
  597ccc     H916400   5.037   6.425   9.207  0.9768 -2.6093 -0.7162
  597ccc    H1016401   5.057   6.489   9.372 -0.2890 -0.1117  0.3419
  597ccc     O516402   4.968   6.300   9.351  0.5302  0.0646 -0.3574
  597ccc    H1116403   4.889   6.336   9.307  0.5195  2.4061  1.3686
  597ccc     O616404   5.206   6.241   9.208  0.5977 -0.0661  0.3016
  598ccc     C116405   5.193   5.133   8.485 -0.0771 -0.1093 -0.6071
  598ccc     C216406   5.150   5.010   8.571  0.2181  0.4887  0.6114
  598ccc     H116407   5.283   5.116   8.423  1.9803 -0.2569  2.2429
  598ccc     H216408   5.152   4.916   8.516 -1.6277 -0.1595  1.5646
  598ccc     C316409   5.241   5.004   8.695 -0.9230  0.2650  0.1020
  598ccc     C416410   5.267   5.139   8.775 -0.1433  0.9931  0.2704
  598ccc     C516411   5.305   5.248   8.664  0.3673  0.1883  0.2478
  598ccc     H316412   5.174   5.167   8.826 -0.3692  2.4299 -0.8632
  598ccc     H416413   5.341   4.968   8.665 -0.4117 -0.4631  2.4909
  598ccc     H516414   5.402   5.224   8.618  0.3022 -0.2863  0.3530
  598ccc     O116415   5.325   5.373   8.727  0.2446 -1.1297  0.2054
  598ccc     O216416   5.377   5.117   8.870  0.3958 -0.5880 -0.3363
  598ccc     O316417   5.207   4.903   8.788 -0.4124 -0.4538  0.3062
  598ccc     O416418   5.019   5.031   8.627  0.0597  0.4223 -0.2598
  598ccc     C616419   5.088   5.152   8.376 -0.1415 -0.3400 -0.0793
  598ccc     H616420   5.116   4.928   8.812  0.3518  0.4634  2.5801
  598ccc     H716421   4.964   4.952   8.615 -0.8002  1.0500 -0.5681
  598ccc     H816422   5.355   5.042   8.928 -1.1905 -0.3141 -0.5206
  598ccc     H916423   4.996   5.188   8.424  0.0917 -0.8224  0.7550
  598ccc    H1016424   5.065   5.065   8.314 -0.1387  0.4969 -1.2799
  598ccc     O516425   5.128   5.252   8.282  0.4838  0.3026  0.1951
  598ccc    H1116426   5.072   5.237   8.204  1.5312  1.6436 -0.8561
  598ccc     O616427   5.199   5.259   8.565 -0.1025  0.1896 -0.3599
  599ccc     C116428   6.644   4.102   6.190  0.1356  0.7705  0.4579
  599ccc     C216429   6.605   3.966   6.122 -0.1031 -0.8626 -0.4176
  599ccc     H116430   6.634   4.177   6.110  0.2028 -1.1622 -1.4471
  599ccc     H216431   6.524   3.983   6.050  0.9105 -0.6349 -1.5335
  599ccc     C316432   6.725   3.914   6.049  0.4904  0.3753 -0.0757
  599ccc     C416433   6.853   3.908   6.142  0.0222  0.1564  0.0787
  599ccc     C516434   6.884   4.045   6.192 -0.4881 -0.1067  0.2649
  599ccc     H316435   6.809   3.863   6.232 -1.5597  1.4410 -0.0103
  599ccc     H416436   6.741   3.997   5.978  2.4572  0.5025  0.4512
  599ccc     H516437   6.900   4.108   6.103 -2.6463  1.9082  1.1794
  599ccc     O116438   7.011   4.046   6.272  0.2606 -0.4715 -0.2248
  599ccc     O216439   6.957   3.833   6.077 -0.0988  0.4014 -0.2005
  599ccc     O316440   6.699   3.801   5.968  0.1849 -0.1503  0.0584
  599ccc     O416441   6.576   3.873   6.223 -0.4660 -0.0930 -0.1349
  599ccc     C616442   6.543   4.144   6.294  0.1390 -0.1859 -0.1289
  599ccc     H616443   6.790   3.771   5.954  0.0406  0.4203 -2.3775
  599ccc     H716444   6.595   3.791   6.174  1.2872  1.0067 -1.4080
  599ccc     H816445   6.991   3.886   6.003 -2.6747 -0.3464 -2.0577
  599ccc     H916446   6.544   4.072   6.376  2.0556  0.6300  0.6286
  599ccc    H1016447   6.443   4.155   6.251  0.9087  1.7167 -1.6413
  599ccc     O516448   6.588   4.270   6.346  0.2948 -0.1994  0.1555
  599ccc    H1116449   6.648   4.237   6.415  1.1593  0.8240 -0.0826
  599ccc     O616450   6.772   4.094   6.266 -0.2127 -0.3216 -0.0756
  600ccc     C116451   7.563   4.931   6.351 -0.9774 -0.4811 -0.0491
  600ccc     C216452   7.484   5.048   6.412  0.3431  0.0554  0.2437
  600ccc     H116453   7.568   4.943   6.242  1.8555 -1.2889 -0.0894
  600ccc     H216454   7.531   5.146   6.395 -1.0480  0.7801  0.4502
  600ccc     C316455   7.340   5.047   6.342 -0.3303 -0.2421 -0.6472
  600ccc     C416456   7.279   4.906   6.344  1.4163 -0.0151 -0.0061
  600ccc     C516457   7.377   4.797   6.306 -0.2404  0.0330 -0.1734
  600ccc     H316458   7.243   4.891   6.447  2.4161  0.1399  0.3788
  600ccc     H416459   7.364   5.072   6.238  1.8389 -0.0956 -0.1581
  600ccc     H516460   7.404   4.808   6.200 -1.3973 -0.0586 -0.4899
  600ccc     O116461   7.310   4.673   6.333 -0.7685 -0.4175  0.1899
  600ccc     O216462   7.161   4.914   6.257  0.2865  0.1874 -0.3970
  600ccc     O316463   7.258   5.143   6.416 -0.0388  0.3730 -0.0283
  600ccc     O416464   7.473   5.029   6.558  0.0112  0.4068 -0.0777
  600ccc     C616465   7.713   4.923   6.392  0.2824 -0.5468  0.7806
  600ccc     H616466   7.174   5.160   6.370  0.2479  1.2135 -0.2561
  600ccc     H716467   7.412   5.100   6.586  0.2328  1.9669 -3.1256
  600ccc     H816468   7.113   4.996   6.276 -0.1504 -0.2608  0.5020
  600ccc     H916469   7.757   5.024   6.390 -0.0706 -0.3970 -0.6022
  600ccc    H1016470   7.781   4.856   6.337  0.9451 -0.0224  0.9451
  600ccc     O516471   7.717   4.872   6.522  0.4045  0.0072  0.3567
  600ccc    H1116472   7.624   4.883   6.547 -0.1789 -2.4798 -0.4092
  600ccc     O616473   7.500   4.810   6.379 -0.3982  0.3560  0.9782
  601ccc     C116474   6.883   3.844   7.270  0.0718  0.5862  1.0426
  601ccc     C216475   6.765   3.920   7.212  0.4676  0.3577  0.0811
  601ccc     H116476   6.842   3.742   7.273  1.7510 -0.1769 -0.3450
  601ccc     H216477   6.749   3.882   7.110 -0.1580  1.6931 -0.3314
  601ccc     C316478   6.638   3.902   7.300 -0.2722  0.0356  0.4918
  601ccc     C416479   6.668   3.933   7.447 -0.2880 -0.5276 -0.8850
  601ccc     C516480   6.807   3.873   7.500 -0.5937 -0.6920  0.3020
  601ccc     H316481   6.669   4.042   7.460  1.7876 -0.2654 -2.6626
  601ccc     H416482   6.600   3.799   7.299  1.1533 -0.5156 -0.7852
  601ccc     H516483   6.814   3.765   7.518  1.2754 -0.4187  1.5371
  601ccc     O116484   6.853   3.926   7.626  0.1256  0.6936 -0.1353
  601ccc     O216485   6.559   3.879   7.527  0.1789 -0.1653  0.2334
  601ccc     O316486   6.524   3.980   7.241 -0.8305  0.1053  0.4857
  601ccc     O416487   6.807   4.062   7.201 -0.2863 -0.1616  0.0228
  601ccc     C616488   7.009   3.842   7.184 -0.3570  0.4241  0.4072
  601ccc     H616489   6.454   3.971   7.308 -1.7650  1.2574 -0.2984
  601ccc     H716490   6.742   4.099   7.139  0.4114  1.3757  0.1462
  601ccc     H816491   6.574   3.906   7.620  0.7630 -2.1672  0.7661
  601ccc     H916492   7.064   3.937   7.185  0.0621  0.1826  1.0888
  601ccc    H1016493   6.976   3.828   7.081 -1.7541  1.7949  0.6146
  601ccc     O516494   7.098   3.736   7.226  0.1482 -0.3746  0.5627
  601ccc    H1116495   7.082   3.719   7.320  0.7586  0.1693  0.7670
  601ccc     O616496   6.912   3.897   7.400  0.3446 -0.0019  0.5408
  602ccc     C116497   6.482   3.825   8.373  0.2594 -0.0207  0.0621
  602ccc     C216498   6.426   3.906   8.488 -0.4250  0.6145 -0.6445
  602ccc     H116499   6.555   3.756   8.417 -0.5992 -0.2085  1.2512
  602ccc     H216500   6.395   3.834   8.565  0.1661  0.6328 -0.3859
  602ccc     C316501   6.542   3.985   8.552  0.2742 -0.0809 -0.4783
  602ccc     C416502   6.634   4.054   8.451  0.1541  0.0539  0.2462
  602ccc     C516503   6.658   3.973   8.318  0.5018 -0.4349  0.2848
  602ccc     H316504   6.592   4.150   8.418  2.3007  1.2560  0.8403
  602ccc     H416505   6.604   3.915   8.610  0.2890  1.4047  1.3855
  602ccc     H516506   6.728   3.895   8.350  0.6399  0.8733  3.5250
  602ccc     O116507   6.709   4.056   8.220  0.1130 -0.0749 -0.2779
  602ccc     O216508   6.757   4.091   8.520  0.3298  0.3177 -0.2942
  602ccc     O316509   6.497   4.067   8.658 -0.5457  0.2617  1.2617
  602ccc     O416510   6.308   3.974   8.452  0.2641  0.4686 -0.6127
  602ccc     C616511   6.381   3.733   8.296 -0.2925 -0.5537 -0.6928
  602ccc     H616512   6.481   4.150   8.610  2.0316  0.3916  0.4559
  602ccc     H716513   6.264   3.996   8.536 -0.8730  0.7645 -1.2660
  602ccc     H816514   6.796   4.171   8.479 -1.9576  1.5075 -0.2920
  602ccc     H916515   6.358   3.654   8.368 -3.4815  0.5254 -0.3593
  602ccc    H1016516   6.430   3.677   8.216  0.4018  0.4338 -0.9809
  602ccc     O516517   6.253   3.800   8.264 -0.1752  0.6450  0.2334
  602ccc    H1116518   6.265   3.873   8.328  2.0399  0.4367  0.1034
  602ccc     O616519   6.536   3.915   8.278 -0.0785  0.0693  0.6320
  603ccc     C116520   8.311   5.592   6.053  0.6434  0.0791 -0.1192
  603ccc     C216521   8.274   5.518   6.186  0.3161 -0.0088  0.0982
  603ccc     H116522   8.390   5.663   6.080 -0.1999  0.9747  0.0569
  603ccc     H216523   8.361   5.459   6.217  1.6159 -0.8935 -4.5135
  603ccc     C316524   8.217   5.625   6.288  0.4870 -0.2421  0.3523
  603ccc     C416525   8.106   5.711   6.222  0.4271 -0.5801  0.3256
  603ccc     C516526   8.155   5.764   6.081  0.0018 -0.5829  0.2785
  603ccc     H316527   8.016   5.653   6.201 -0.6124  0.1628  2.4297
  603ccc     H416528   8.298   5.691   6.324 -1.2625  1.9451  0.4907
  603ccc     H516529   8.227   5.844   6.101 -0.0739 -0.1405 -1.1223
  603ccc     O116530   8.038   5.831   6.024 -0.3348 -0.2963 -0.0737
  603ccc     O216531   8.085   5.816   6.321 -0.6762 -0.1410 -0.1598
  603ccc     O316532   8.169   5.546   6.407  0.0674 -0.2183 -0.3719
  603ccc     O416533   8.173   5.422   6.158 -0.0615 -0.1918  0.2403
  603ccc     C616534   8.369   5.494   5.948  1.1197 -0.8280  0.5315
  603ccc     H616535   8.187   5.451   6.397 -0.3251 -0.4275  0.7581
  603ccc     H716536   8.208   5.372   6.082 -0.2236  0.8604 -0.5592
  603ccc     H816537   8.024   5.875   6.273 -0.8890 -0.3111 -0.0997
  603ccc     H916538   8.473   5.475   5.975  1.5116 -0.0340 -0.3618
  603ccc    H1016539   8.368   5.553   5.855 -0.5746  0.9224  1.5855
  603ccc     O516540   8.286   5.380   5.928 -0.4691 -0.2876  0.4758
  603ccc    H1116541   8.306   5.347   5.839 -3.0763 -0.3612 -0.1476
  603ccc     O616542   8.203   5.660   5.997 -0.3129  0.4971 -0.6007
  604ccc     C116543   7.898   5.221   5.564 -0.6313  0.5069  0.1908
  604ccc     C216544   7.797   5.103   5.554 -0.1232  0.2612 -0.0860
  604ccc     H116545   7.967   5.206   5.649  0.3590  1.7713 -0.3552
  604ccc     H216546   7.856   5.011   5.554  1.1778  1.0250 -2.1003
  604ccc     C316547   7.700   5.110   5.671 -0.4363  0.2279 -0.6985
  604ccc     C416548   7.636   5.247   5.701  0.5765  0.3679  0.4919
  604ccc     C516549   7.740   5.354   5.706 -0.4243  0.3199 -0.4024
  604ccc     H316550   7.568   5.267   5.618 -0.4595  1.8221  1.6294
  604ccc     H416551   7.762   5.089   5.758  1.2600 -0.5212 -2.0375
  604ccc     H516552   7.790   5.326   5.799 -1.4485 -0.8071 -0.1785
  604ccc     O116553   7.679   5.484   5.707  0.1628 -0.0753 -1.1166
  604ccc     O216554   7.575   5.240   5.825  0.2522 -0.2558 -0.3360
  604ccc     O316555   7.593   5.001   5.661 -0.3600 -0.6563  0.1243
  604ccc     O416556   7.725   5.118   5.436  0.5942  0.9756  0.0728
  604ccc     C616557   7.983   5.236   5.437  0.5127  0.0470 -0.2972
  604ccc     H616558   7.633   4.933   5.718  5.5988 -0.2275 -2.7832
  604ccc     H716559   7.652   5.056   5.455  0.9595  0.7304  0.6867
  604ccc     H816560   7.481   5.250   5.805 -0.1065 -1.6799  0.5175
  604ccc     H916561   8.034   5.141   5.418  0.6946  0.0540  0.1577
  604ccc    H1016562   8.060   5.308   5.465  1.2928 -0.9147  0.1195
  604ccc     O516563   7.898   5.279   5.329  0.7077 -0.2029 -0.4233
  604ccc    H1116564   7.817   5.228   5.346  0.2878  0.4779 -0.3408
  604ccc     O616565   7.826   5.341   5.587 -0.3801 -0.3071 -0.1895
  605ccc     C116566   8.668   5.392   6.393 -0.0766 -1.2073 -0.5583
  605ccc     C216567   8.679   5.245   6.431  0.2632  0.7027 -0.4343
  605ccc     H116568   8.760   5.431   6.437 -1.0091 -2.2194  2.5245
  605ccc     H216569   8.767   5.196   6.387  0.4749 -1.6499  2.3604
  605ccc     C316570   8.693   5.236   6.583 -0.3132  0.2793  0.1200
  605ccc     C416571   8.576   5.306   6.653  0.5554  0.2492  0.2432
  605ccc     C516572   8.562   5.451   6.599  0.2580 -0.5123  0.1777
  605ccc     H316573   8.479   5.263   6.624  1.2900  0.3896 -2.7466
  605ccc     H416574   8.785   5.282   6.618 -0.1471 -1.8022  2.7534
  605ccc     H516575   8.648   5.510   6.631  1.3861 -1.0646 -1.6790
  605ccc     O116576   8.451   5.520   6.660  0.4445  0.8414  0.4347
  605ccc     O216577   8.601   5.300   6.798 -0.0461 -0.4024 -0.1367
  605ccc     O316578   8.707   5.104   6.629 -0.5146  0.4229 -0.2726
  605ccc     O416579   8.565   5.179   6.379 -0.2168 -0.1909 -0.1987
  605ccc     C616580   8.671   5.416   6.238 -0.2839 -0.1218  0.0045
  605ccc     H616581   8.779   5.101   6.694  0.7575 -0.0279 -1.6574
  605ccc     H716582   8.559   5.238   6.302  2.2764 -0.2094 -0.5125
  605ccc     H816583   8.603   5.206   6.822 -3.1345  0.0132  2.5524
  605ccc     H916584   8.754   5.368   6.184 -0.2564 -0.1943  0.1115
  605ccc    H1016585   8.689   5.522   6.217 -1.9360  0.0895 -0.4982
  605ccc     O516586   8.561   5.344   6.173  0.4255 -0.3660 -0.6727
  605ccc    H1116587   8.589   5.330   6.080 -2.3907 -3.0490 -1.3074
  605ccc     O616588   8.558   5.453   6.451 -0.4679 -0.3701 -0.0704
  606ccc     C116589   7.825   6.353   6.472 -0.1138 -0.1883 -0.3881
  606ccc     C216590   7.726   6.315   6.360  0.3816  0.3576 -0.3315
  606ccc     H116591   7.914   6.403   6.433 -0.4943  1.4898  0.8001
  606ccc     H216592   7.688   6.408   6.316 -0.6548  0.6171  1.0384
  606ccc     C316593   7.799   6.227   6.248 -0.0623  0.0717  0.4884
  606ccc     C416594   7.853   6.101   6.327  0.1615 -0.3658  0.5349
  606ccc     C516595   7.932   6.132   6.458 -0.2345 -0.6209 -0.1204
  606ccc     H316596   7.766   6.041   6.356  0.8965 -1.0974  1.3049
  606ccc     H416597   7.880   6.292   6.213  0.1142 -0.0554  0.6646
  606ccc     H516598   8.034   6.166   6.438 -0.1826  0.2105  1.4184
  606ccc     O116599   7.933   6.006   6.532  0.4748 -0.3526  0.5409
  606ccc     O216600   7.933   6.013   6.244  0.1676 -0.2652  0.2410
  606ccc     O316601   7.721   6.199   6.129  0.1647 -0.2121 -0.6125
  606ccc     O416602   7.620   6.248   6.427 -0.3038 -0.0316  0.3881
  606ccc     C616603   7.767   6.449   6.578 -0.6691 -0.1250 -0.0100
  606ccc     H616604   7.714   6.286   6.086 -1.3419  0.5428  1.0147
  606ccc     H716605   7.624   6.305   6.505  0.2905 -0.3585  0.6002
  606ccc     H816606   7.983   6.067   6.180  1.3261 -2.1455 -0.5308
  606ccc     H916607   7.748   6.546   6.530 -0.3336  0.9364  1.9141
  606ccc    H1016608   7.839   6.459   6.660  1.2748 -0.0034 -1.6458
  606ccc     O516609   7.641   6.404   6.635 -0.0375 -0.7887  0.5652
  606ccc    H1116610   7.604   6.486   6.671  0.2922 -0.7391  0.7980
  606ccc     O616611   7.868   6.227   6.544 -0.3965  0.1246 -0.7075
  607ccc     C116612   4.631   6.540   4.827  0.3088 -0.1252  0.1985
  607ccc     C216613   4.713   6.461   4.727 -0.1863  0.4627  0.4259
  607ccc     H116614   4.528   6.520   4.796  0.1278  1.4669 -0.2769
  607ccc     H216615   4.677   6.357   4.729 -1.4293  0.8551 -0.4591
  607ccc     C316616   4.686   6.515   4.587 -0.6658  0.2993  0.3754
  607ccc     C416617   4.689   6.672   4.581 -0.4053  0.0144 -0.2684
  607ccc     C516618   4.613   6.736   4.704  0.1978 -0.2895  0.6752
  607ccc     H316619   4.794   6.703   4.591 -0.6999  1.0857 -0.3668
  607ccc     H416620   4.586   6.476   4.566 -0.1542 -0.5120 -0.5862
  607ccc     H516621   4.507   6.712   4.689  0.7793 -2.1688 -0.9118
  607ccc     O116622   4.649   6.879   4.699  0.1987 -0.3042 -0.3583
  607ccc     O216623   4.642   6.718   4.451  0.1583 -0.4344  0.6742
  607ccc     O316624   4.785   6.456   4.492  0.3413 -0.2078 -0.4616
  607ccc     O416625   4.852   6.470   4.770  0.7526  0.3100  0.2286
  607ccc     C616626   4.648   6.482   4.967 -0.8504  0.3515 -0.4321
  607ccc     H616627   4.871   6.475   4.535 -0.1080  0.4650  0.1719
  607ccc     H716628   4.894   6.382   4.772  0.2875  0.0850  2.5005
  607ccc     H816629   4.654   6.651   4.382 -2.8990 -0.7189  0.3156
  607ccc     H916630   4.724   6.534   5.027 -0.9935  0.7849 -0.6163
  607ccc    H1016631   4.666   6.374   4.966 -0.4500  0.4179 -0.8095
  607ccc     O516632   4.529   6.511   5.037  0.1652 -0.2487  0.9395
  607ccc    H1116633   4.523   6.458   5.119 -0.3210 -0.2927  0.8804
  607ccc     O616634   4.658   6.680   4.824 -0.8270  0.7632 -0.2954
  608ccc     C116635   4.685   6.650   4.085  0.4892 -0.5683 -0.7137
  608ccc     C216636   4.770   6.647   3.952 -0.4518 -0.4800 -0.1501
  608ccc     H116637   4.580   6.635   4.054  0.1479  2.9845 -1.7723
  608ccc     H216638   4.757   6.549   3.905 -2.6804  0.0048 -0.6675
  608ccc     C316639   4.712   6.764   3.859 -0.6711  0.3726 -0.5544
  608ccc     C416640   4.722   6.905   3.931 -0.2258 -0.4225 -0.8708
  608ccc     C516641   4.659   6.897   4.073  0.1979 -0.7057  0.4460
  608ccc     H316642   4.826   6.937   3.943 -0.4992 -0.2049  1.1314
  608ccc     H416643   4.605   6.738   3.856 -0.2325 -1.8238  0.5267
  608ccc     H516644   4.550   6.892   4.068 -0.0022  1.5738  1.2092
  608ccc     O116645   4.697   7.019   4.145 -0.7254 -0.8872 -0.2292
  608ccc     O216646   4.654   6.997   3.850  0.1948  0.1214  0.5659
  608ccc     O316647   4.767   6.777   3.728 -0.2935 -0.5065 -0.1471
  608ccc     O416648   4.916   6.662   3.979  0.5299  0.5334  0.4336
  608ccc     C616649   4.736   6.531   4.177  0.1575 -0.3967  0.3469
  608ccc     H616650   4.815   6.861   3.734  0.5389 -1.0758  1.6270
  608ccc     H716651   4.953   6.630   3.895  3.5461  1.4807  1.2899
  608ccc     H816652   4.674   7.089   3.876  2.1964  0.2103 -1.1011
  608ccc     H916653   4.838   6.560   4.208  0.9618  0.2411 -2.5114
  608ccc    H1016654   4.748   6.440   4.117  1.9364 -0.8037  1.2232
  608ccc     O516655   4.652   6.507   4.280  0.1382  0.0141 -0.4267
  608ccc    H1116656   4.711   6.464   4.345 -1.3101  0.3497  1.1953
  608ccc     O616657   4.707   6.783   4.148  0.3265 -0.4086  0.6993
  609ccc     C116658   3.521   5.952   5.039 -0.0500 -0.6972 -0.2021
  609ccc     C216659   3.546   5.927   4.894  0.1359 -0.0736  0.7921
  609ccc     H116660   3.416   5.974   5.060 -0.3036 -1.4614 -0.6569
  609ccc     H216661   3.485   5.839   4.869  2.2545 -2.1872  2.5049
  609ccc     C316662   3.502   6.046   4.801  0.3203 -0.1373  0.1304
  609ccc     C416663   3.555   6.185   4.850  0.3987 -0.3669  0.2778
  609ccc     C516664   3.554   6.196   5.012  0.3072  0.2391 -0.4329
  609ccc     H316665   3.661   6.193   4.824  0.2388  0.7083 -0.0854
  609ccc     H416666   3.394   6.060   4.817  0.4505 -0.9257  1.8565
  609ccc     H516667   3.453   6.225   5.042  0.0461  0.7701 -1.7479
  609ccc     O116668   3.644   6.302   5.047 -0.1483  0.0294 -0.0714
  609ccc     O216669   3.478   6.295   4.790 -0.5180 -0.0703 -0.3641
  609ccc     O316670   3.532   6.015   4.654 -0.1417  0.1075 -0.4082
  609ccc     O416671   3.691   5.908   4.875 -0.4230 -0.0513  0.7111
  609ccc     C616672   3.567   5.836   5.126  0.0559  0.2859  0.3061
  609ccc     H616673   3.503   6.094   4.605  0.1675  0.1566 -0.5126
  609ccc     H716674   3.700   5.821   4.833 -1.3768  0.8579 -1.5427
  609ccc     H816675   3.466   6.281   4.695 -0.2652  0.7645 -0.5281
  609ccc     H916676   3.673   5.812   5.113  0.2778  0.2800  1.9648
  609ccc    H1016677   3.518   5.743   5.093 -3.6043  0.8291  3.5920
  609ccc     O516678   3.541   5.865   5.261  0.8738 -0.3758  0.1385
  609ccc    H1116679   3.559   5.960   5.275 -0.6025  0.1420 -1.1387
  609ccc     O616680   3.598   6.070   5.078 -0.0238  0.5419  0.3841
  610ccc     C116681   4.072   5.895   4.469 -0.4403  0.2865  0.7345
  610ccc     C216682   4.046   5.773   4.552 -0.1419 -0.0230  0.1042
  610ccc     H116683   4.178   5.916   4.450 -0.5624 -0.9288 -1.6676
  610ccc     H216684   4.087   5.688   4.496 -2.0639 -1.3013  0.5157
  610ccc     C316685   4.108   5.788   4.696  0.8166  0.3404 -0.1577
  610ccc     C416686   4.061   5.921   4.757  0.7322  0.7999 -0.4146
  610ccc     C516687   4.066   6.044   4.669  0.2317 -0.5260  0.8455
  610ccc     H316688   3.957   5.901   4.787  1.4726 -0.5735  1.4680
  610ccc     H416689   4.216   5.798   4.680  0.8197  0.8321  0.1515
  610ccc     H516690   4.170   6.079   4.671  0.2591 -0.6163  1.1543
  610ccc     O116691   3.975   6.137   4.727  0.4056  0.3719 -0.4350
  610ccc     O216692   4.145   5.956   4.869 -0.0915  0.0876  0.2022
  610ccc     O316693   4.096   5.680   4.791 -0.0738 -0.4078  0.0235
  610ccc     O416694   3.903   5.754   4.555 -0.0146 -0.2213  0.1174
  610ccc     C616695   3.998   5.885   4.329 -0.2463 -0.1286 -0.3123
  610ccc     H616696   4.036   5.704   4.864  0.6112 -3.4907  1.8232
  610ccc     H716697   3.887   5.659   4.569  2.0343 -1.1372 -2.8022
  610ccc     H816698   4.079   5.993   4.930  0.8859 -0.3028  1.5410
  610ccc     H916699   3.890   5.902   4.339 -0.2490  0.0135 -0.5801
  610ccc    H1016700   4.018   5.792   4.276  1.1104 -1.0138  1.6293
  610ccc     O516701   4.055   5.988   4.247 -0.1716 -0.3965  0.4937
  610ccc    H1116702   4.029   6.075   4.282  1.9558  2.4649 -3.9752
  610ccc     O616703   4.014   6.008   4.534  0.2756  0.1268 -0.2893
  611ccc     C116704   3.892   7.817   4.657  0.1131 -0.4673 -0.5898
  611ccc     C216705   3.820   7.920   4.571  0.3342 -0.2748 -0.1553
  611ccc     H116706   3.817   7.766   4.719 -0.3602  0.8412 -0.0571
  611ccc     H216707   3.753   7.874   4.498 -0.5124 -0.3213  0.6397
  611ccc     C316708   3.740   8.017   4.668 -1.4025  0.1099  0.6536
  611ccc     C416709   3.838   8.072   4.778  0.2070  0.3150 -0.0877
  611ccc     C516710   3.945   7.969   4.839  0.1001  0.2931  0.4536
  611ccc     H316711   3.893   8.153   4.727  1.2639 -1.4039 -1.8308
  611ccc     H416712   3.664   7.951   4.712 -2.0862  1.0317  0.8731
  611ccc     H516713   3.893   7.912   4.917  2.0102 -3.5084 -0.7930
  611ccc     O116714   4.060   8.031   4.893 -0.5298 -0.4086  0.4434
  611ccc     O216715   3.762   8.121   4.890  0.2407  0.0118  0.0909
  611ccc     O316716   3.681   8.131   4.601 -0.1377  0.0664  0.1767
  611ccc     O416717   3.920   7.995   4.503 -0.0825  0.2380 -0.4740
  611ccc     C616718   3.958   7.697   4.584  1.3215  0.9350 -0.4104
  611ccc     H616719   3.594   8.151   4.641  0.0031  1.0587  0.0044
  611ccc     H716720   3.875   8.073   4.465 -0.2694 -0.0680 -0.8816
  611ccc     H816721   3.708   8.192   4.850 -1.6086  0.0887  2.5356
  611ccc     H916722   3.876   7.645   4.532  1.2056  0.6686  0.0327
  611ccc    H1016723   4.005   7.625   4.652 -0.7009 -0.1045 -0.0401
  611ccc     O516724   4.046   7.750   4.487  0.3654  0.4331 -0.1581
  611ccc    H1116725   4.020   7.843   4.497 -1.7801 -0.2276  1.1366
  611ccc     O616726   3.999   7.882   4.736  0.3099  0.5655 -0.4030
  612ccc     C116727   4.559   8.185   5.910 -0.1549  0.0193 -0.8540
  612ccc     C216728   4.451   8.262   5.991 -0.1912 -0.7352 -0.3442
  612ccc     H116729   4.637   8.258   5.882 -1.1908  1.6087  0.2638
  612ccc     H216730   4.493   8.308   6.081 -1.6077  0.2397 -0.1516
  612ccc     C316731   4.394   8.375   5.910 -0.5857 -0.5325  0.0801
  612ccc     C416732   4.340   8.322   5.781  0.1853 -0.6812  0.2054
  612ccc     C516733   4.442   8.243   5.704 -0.6190  0.1413 -0.2054
  612ccc     H316734   4.257   8.262   5.820  1.5516 -1.1577  2.5140
  612ccc     H416735   4.479   8.440   5.886  0.2494 -0.5426  2.6741
  612ccc     H516736   4.518   8.315   5.673 -0.1869 -0.1956  0.0589
  612ccc     O116737   4.376   8.183   5.587  0.0824 -0.0798  0.0926
  612ccc     O216738   4.299   8.442   5.709  0.3118  0.4633 -0.7203
  612ccc     O316739   4.293   8.457   5.976 -0.6237 -1.1440 -0.4191
  612ccc     O416740   4.350   8.169   6.024  0.5155 -0.7211  0.3596
  612ccc     C616741   4.619   8.064   5.985  0.1609 -0.2305 -0.3055
  612ccc     H616742   4.261   8.525   5.914 -0.0819  0.5680  1.0703
  612ccc     H716743   4.398   8.085   6.017  0.0424 -1.1489  1.7727
  612ccc     H816744   4.216   8.416   5.664  0.3001  0.8518 -0.9328
  612ccc     H916745   4.651   8.101   6.084 -0.0384  0.9855 -0.6825
  612ccc    H1016746   4.707   8.022   5.934  0.1128 -0.3464 -0.2918
  612ccc     O516747   4.508   7.980   5.998  0.1079  0.1667 -0.0116
  612ccc    H1116748   4.518   7.927   5.917  2.1911 -0.7484  0.7899
  612ccc     O616749   4.499   8.142   5.785  0.4196 -0.2769 -0.1539
  613ccc     C116750   3.013   8.462   6.544 -0.1006  0.2700  0.5084
  613ccc     C216751   2.928   8.590   6.516 -0.4634 -0.0378 -0.4409
  613ccc     H116752   3.062   8.473   6.641  0.6051 -0.5844  0.2642
  613ccc     H216753   2.851   8.602   6.593 -1.9266 -2.2015 -1.4996
  613ccc     C316754   3.029   8.705   6.509 -0.0718  0.1614  0.0590
  613ccc     C416755   3.154   8.685   6.421  0.2169 -0.2255 -0.5204
  613ccc     C516756   3.202   8.541   6.411  0.3317  0.1349  0.0380
  613ccc     H316757   3.113   8.708   6.322 -0.1992  0.3376 -0.2179
  613ccc     H416758   3.074   8.707   6.609 -0.3167  2.2117  0.1771
  613ccc     H516759   3.278   8.514   6.486 -0.9883  0.1783  1.4367
  613ccc     O116760   3.257   8.526   6.282  0.1119  0.3981  0.3905
  613ccc     O216761   3.263   8.777   6.458 -0.1709  0.0022  0.0417
  613ccc     O316762   2.969   8.829   6.469 -0.3101  0.1365  0.2201
  613ccc     O416763   2.860   8.583   6.392 -0.6402 -0.0985 -0.4430
  613ccc     C616764   2.918   8.334   6.566 -0.3003 -0.0728 -0.3362
  613ccc     H616765   2.984   8.889   6.544  0.5509  0.7129 -0.3873
  613ccc     H716766   2.806   8.664   6.400 -0.5676  0.1718 -2.3756
  613ccc     H816767   3.249   8.858   6.406  2.8252 -0.2393 -1.3510
  613ccc     H916768   2.869   8.304   6.473  0.2164 -0.2012 -0.5707
  613ccc    H1016769   2.841   8.368   6.636 -0.3084  0.3898 -0.5665
  613ccc     O516770   3.007   8.238   6.614  0.2615  0.4967  0.2513
  613ccc    H1116771   3.095   8.278   6.603  0.1978  0.2172 -1.4871
  613ccc     O616772   3.098   8.445   6.424 -0.1833 -0.2253  0.7140
  614ccc     C116773   4.002   8.847   5.812  0.1431 -0.7131  0.4782
  614ccc     C216774   4.110   8.798   5.914 -0.1692  0.3171  0.7383
  614ccc     H116775   3.942   8.924   5.862  1.2512 -1.5226  3.2745
  614ccc     H216776   4.167   8.883   5.955 -0.7306  0.5620  1.0228
  614ccc     C316777   4.042   8.734   6.042 -0.1099 -0.2419  0.2193
  614ccc     C416778   3.939   8.624   5.996  0.0165 -0.1261 -0.4549
  614ccc     C516779   3.841   8.690   5.892 -0.1240 -0.0721 -0.0196
  614ccc     H316780   4.000   8.545   5.950  0.0288 -0.8199  0.7146
  614ccc     H416781   3.981   8.814   6.085  0.4287  0.6208 -0.5751
  614ccc     H516782   3.782   8.772   5.935 -2.0218 -1.5116  0.2556
  614ccc     O116783   3.754   8.580   5.852  0.2745 -0.4906  0.4546
  614ccc     O216784   3.864   8.591   6.109  0.3015  0.1661  0.0607
  614ccc     O316785   4.138   8.673   6.136  0.1096  0.1002  0.5961
  614ccc     O416786   4.200   8.702   5.857  0.9739 -0.2512  0.3273
  614ccc     C616787   4.072   8.911   5.691 -0.1497  0.1163 -0.1356
  614ccc     H616788   4.204   8.740   6.159  0.9434 -1.6210  3.7610
  614ccc     H716789   4.188   8.727   5.764  1.0530 -1.5892 -0.0625
  614ccc     H816790   3.935   8.592   6.175  1.2406  1.2227 -0.9137
  614ccc     H916791   4.158   8.959   5.740 -0.0876  0.7604 -0.8605
  614ccc    H1016792   4.016   8.983   5.631  1.3028  1.8105  0.4523
  614ccc     O516793   4.116   8.800   5.612 -0.4552 -0.1668  0.1145
  614ccc    H1116794   4.032   8.774   5.570 -0.2346 -1.8573  0.6240
  614ccc     O616795   3.918   8.734   5.777 -0.0190 -0.2896 -0.0936
  615ccc     C116796   5.221   6.946   3.399  0.1684  0.0808  0.6754
  615ccc     C216797   5.100   6.890   3.317 -0.2519  0.1695  0.0839
  615ccc     H116798   5.307   6.882   3.375  0.1175  0.0578  0.5514
  615ccc     H216799   5.118   6.921   3.213 -2.4693  1.7280  0.0878
  615ccc     C316800   5.088   6.733   3.345  0.0290  0.3754  0.1836
  615ccc     C416801   5.073   6.711   3.499  0.4914  0.7254  0.2155
  615ccc     C516802   5.174   6.793   3.589 -0.3195  0.7924  0.0316
  615ccc     H316803   4.976   6.757   3.518 -0.3018 -0.5426 -0.5803
  615ccc     H416804   5.184   6.692   3.310  0.0696 -0.0439  0.7699
  615ccc     H516805   5.272   6.747   3.576 -0.8489  0.0277 -1.4696
  615ccc     O116806   5.135   6.798   3.727  0.2672  0.0851 -0.5843
  615ccc     O216807   5.073   6.574   3.536  0.1491 -0.0502 -0.1725
  615ccc     O316808   4.978   6.671   3.268  0.1588 -0.0616  0.2240
  615ccc     O416809   4.988   6.968   3.354 -0.3012 -0.0466  0.2833
  615ccc     C616810   5.254   7.093   3.368  0.5897  0.0466  0.3129
  615ccc     H616811   4.977   6.719   3.183  1.2845  0.3214  0.4102
  615ccc     H716812   4.901   6.935   3.324 -0.9017  0.8740  0.9170
  615ccc     H816813   5.032   6.525   3.462  1.3624  0.2139 -1.0462
  615ccc     H916814   5.291   7.091   3.265 -1.3610 -0.2319 -0.4438
  615ccc    H1016815   5.330   7.130   3.437 -1.0189  0.6729  1.8306
  615ccc     O516816   5.137   7.172   3.389  0.6669  0.0837 -0.0758
  615ccc    H1116817   5.075   7.100   3.370 -1.0907  1.1797  1.1478
  615ccc     O616818   5.191   6.932   3.540  0.3929 -0.3520  0.0134
  616ccc     C116819   5.598   6.000   4.216  0.5340  0.1991 -0.2670
  616ccc     C216820   5.743   6.040   4.184 -0.5664  0.8428 -0.3053
  616ccc     H116821   5.573   5.923   4.143  1.5722 -0.7602  0.3406
  616ccc     H216822   5.817   5.961   4.205 -2.4975 -0.8125  0.6810
  616ccc     C316823   5.767   6.102   4.048  0.1364  0.4753 -0.0987
  616ccc     C416824   5.662   6.213   4.029 -0.1872 -0.3891  0.1035
  616ccc     C516825   5.517   6.174   4.065 -0.1639  0.0518  0.5288
  616ccc     H316826   5.689   6.299   4.091 -2.5622  0.8692 -0.4946
  616ccc     H416827   5.746   6.020   3.978  0.7643 -1.5595  1.9648
  616ccc     H516828   5.475   6.100   3.996  0.1124 -0.2956  0.7311
  616ccc     O116829   5.434   6.293   4.062  0.3268 -0.4787 -0.1356
  616ccc     O216830   5.665   6.247   3.893  0.5919  0.3973  0.2575
  616ccc     O316831   5.904   6.140   4.032 -0.1144 -0.1708 -0.0009
  616ccc     O416832   5.774   6.128   4.293 -0.6112  0.7435 -0.5422
  616ccc     C616833   5.565   5.953   4.362  0.9581  0.0960 -0.6141
  616ccc     H616834   5.930   6.206   4.098 -1.5969  0.8412 -0.3696
  616ccc     H716835   5.711   6.199   4.313 -0.6691  0.1636  1.5562
  616ccc     H816836   5.759   6.256   3.870  0.4840  0.2649 -0.2746
  616ccc     H916837   5.563   6.045   4.422 -0.6441 -1.6966  2.3238
  616ccc    H1016838   5.629   5.875   4.406  1.4956 -0.1406 -1.7658
  616ccc     O516839   5.437   5.904   4.356  0.2029 -0.1517 -0.3344
  616ccc    H1116840   5.390   5.989   4.357  1.2234  0.4245 -0.4154
  616ccc     O616841   5.517   6.117   4.196  0.7014 -0.3706  0.8096
  617ccc     C116842   6.070   7.587   4.621 -0.2929 -0.1186  0.3829
  617ccc     C216843   6.005   7.729   4.620  0.5638  0.2614  0.2236
  617ccc     H116844   6.080   7.555   4.516 -0.9922  0.6444  0.0740
  617ccc     H216845   6.058   7.800   4.555  2.8759 -2.1889 -0.8053
  617ccc     C316846   5.852   7.732   4.575 -0.7043  0.4617 -0.4389
  617ccc     C416847   5.774   7.622   4.648  1.3234 -0.0699 -0.5255
  617ccc     C516848   5.838   7.490   4.641 -0.2034  0.5103 -0.0416
  617ccc     H316849   5.771   7.647   4.755  0.1660  1.1520 -0.8044
  617ccc     H416850   5.851   7.723   4.466  0.5843  4.0211 -0.8814
  617ccc     H516851   5.838   7.457   4.536  0.9961 -0.7098  0.3197
  617ccc     O116852   5.766   7.393   4.730 -0.1154  0.1390  0.5400
  617ccc     O216853   5.639   7.626   4.591 -0.7247  0.3186  0.1354
  617ccc     O316854   5.802   7.866   4.600  0.2137  0.0576 -0.0243
  617ccc     O416855   5.998   7.777   4.756  0.4365  0.0616  0.0647
  617ccc     C616856   6.202   7.584   4.688 -0.1890  0.1448 -0.3214
  617ccc     H616857   5.852   7.925   4.541 -0.2960 -0.2889 -0.8320
  617ccc     H716858   5.923   7.839   4.759  0.8263  0.5545 -0.2002
  617ccc     H816859   5.614   7.720   4.598  2.8665  1.2921  3.2088
  617ccc     H916860   6.204   7.621   4.791  2.3171  0.0861 -0.2830
  617ccc    H1016861   6.260   7.656   4.628  0.5094  0.8003  1.0868
  617ccc     O516862   6.267   7.462   4.670 -0.1827  0.1340 -0.2783
  617ccc    H1116863   6.283   7.450   4.575  0.2610 -0.7990 -0.0997
  617ccc     O616864   5.971   7.497   4.689 -0.0654  0.5953  0.0497
  618ccc     C116865   5.604   7.649   5.509 -0.1341 -0.7200 -0.4826
  618ccc     C216866   5.550   7.550   5.621 -0.0433  0.0259  0.2062
  618ccc     H116867   5.538   7.737   5.509  0.0866 -0.5508 -1.0738
  618ccc     H216868   5.547   7.600   5.718  0.8879 -0.0733  0.2929
  618ccc     C316869   5.400   7.506   5.594  0.0263 -0.5663 -0.7905
  618ccc     C416870   5.385   7.464   5.449 -0.7945  0.3102  0.3745
  618ccc     C516871   5.455   7.558   5.348  0.2882  0.1612  0.0229
  618ccc     H316872   5.440   7.370   5.437  2.0812  1.9441  0.0158
  618ccc     H416873   5.333   7.591   5.610 -1.1955 -1.3754 -1.4082
  618ccc     H516874   5.409   7.657   5.345 -0.5298 -0.2234 -0.3786
  618ccc     O116875   5.447   7.490   5.220  0.1624 -0.4409 -0.0036
  618ccc     O216876   5.238   7.445   5.417 -0.5567  0.4245  0.2203
  618ccc     O316877   5.366   7.402   5.691  0.1870  0.4472  0.3790
  618ccc     O416878   5.642   7.439   5.630 -0.0080 -0.0222  0.3963
  618ccc     C616879   5.748   7.691   5.523 -0.3084 -0.1261  0.1968
  618ccc     H616880   5.269   7.402   5.702  0.3740 -0.2670  2.4885
  618ccc     H716881   5.606   7.364   5.679  0.3493  0.5670  1.5956
  618ccc     H816882   5.229   7.350   5.438  2.2588 -0.4729 -2.0060
  618ccc     H916883   5.751   7.751   5.615 -0.0682 -0.9511  0.7382
  618ccc    H1016884   5.781   7.753   5.439 -1.0661  1.1176  0.7878
  618ccc     O516885   5.827   7.570   5.529 -0.0348  0.5685 -0.3569
  618ccc    H1116886   5.762   7.508   5.567 -0.2469  0.8687 -0.2313
  618ccc     O616887   5.590   7.585   5.384 -0.0055  0.5272  0.3442
  619ccc     C116888   5.607   5.901   6.088 -0.0086 -0.8580  0.4956
  619ccc     C216889   5.487   5.800   6.080 -0.1094 -0.3924  0.5004
  619ccc     H116890   5.585   5.950   6.184 -2.5592 -0.1739 -0.3693
  619ccc     H216891   5.482   5.741   6.172 -2.8184  0.1249  0.7717
  619ccc     C316892   5.350   5.878   6.079  0.3784 -0.5132  0.6960
  619ccc     C416893   5.346   5.997   5.982  0.0234 -0.7311  0.2284
  619ccc     C516894   5.483   6.077   5.971  0.7704  0.0555 -0.4413
  619ccc     H316895   5.313   5.959   5.885  1.6872 -1.6568 -0.0077
  619ccc     H416896   5.342   5.929   6.176  0.8161  0.7131  0.1197
  619ccc     H516897   5.493   6.143   6.058 -0.0022 -0.1865 -0.1534
  619ccc     O116898   5.488   6.153   5.848 -0.0587 -0.8231  0.3228
  619ccc     O216899   5.244   6.088   6.046  0.3316  0.5119 -0.1502
  619ccc     O316900   5.239   5.788   6.059 -0.2256 -0.0204 -0.2516
  619ccc     O416901   5.512   5.722   5.958 -0.5747  0.2034  0.1895
  619ccc     C616902   5.748   5.848   6.093 -0.6901  0.2916  0.1096
  619ccc     H616903   5.161   5.846   6.064 -0.5837 -0.4680 -0.4836
  619ccc     H716904   5.608   5.734   5.950 -0.3282 -1.2031  0.7471
  619ccc     H816905   5.157   6.045   6.043 -0.1878  1.3664  1.7394
  619ccc     H916906   5.749   5.780   6.180 -1.7237  0.6217  0.3844
  619ccc    H1016907   5.822   5.929   6.094  1.2466 -1.3668  1.3790
  619ccc     O516908   5.777   5.767   5.980  0.5735  0.5974  0.2953
  619ccc    H1116909   5.869   5.737   5.984 -0.3503 -2.5650  0.6933
  619ccc     O616910   5.596   5.988   5.970  0.2889 -0.0895  0.3551
  620ccc     C116911   5.789   6.290   4.763  0.9337  0.6141 -0.2195
  620ccc     C216912   5.669   6.206   4.709  0.9924  0.1049 -0.2369
  620ccc     H116913   5.875   6.262   4.700  2.1025  1.0109  1.1343
  620ccc     H216914   5.655   6.212   4.600 -0.9301 -1.0210 -0.1024
  620ccc     C316915   5.682   6.054   4.750  0.8120 -0.4510  0.2939
  620ccc     C416916   5.692   6.036   4.897 -0.3135  0.2240  0.1670
  620ccc     C516917   5.798   6.130   4.960  0.0213  0.5698 -0.4336
  620ccc     H316918   5.589   6.056   4.930 -0.7477 -0.3880 -0.7639
  620ccc     H416919   5.777   6.016   4.710 -0.1592  0.1767 -2.9224
  620ccc     H516920   5.895   6.081   4.942 -0.6240 -1.3120  0.9219
  620ccc     O116921   5.785   6.126   5.102  0.4367  0.0621  0.1496
  620ccc     O216922   5.727   5.897   4.927 -0.6782 -0.3852  0.5501
  620ccc     O316923   5.586   5.968   4.685 -0.2731  0.1555 -0.7864
  620ccc     O416924   5.551   6.261   4.769  0.3654  0.6953  0.6731
  620ccc     C616925   5.775   6.441   4.744  0.6669  0.3039 -0.7626
  620ccc     H616926   5.623   5.878   4.684 -0.3070  0.1286 -2.9260
  620ccc     H716927   5.570   6.354   4.791 -0.9195  1.1918 -0.2109
  620ccc     H816928   5.682   5.882   5.012  0.1319 -0.9363  0.8943
  620ccc     H916929   5.784   6.456   4.636 -0.7886 -0.7692 -1.0725
  620ccc    H1016930   5.869   6.483   4.782  0.6807 -0.3396 -0.0525
  620ccc     O516931   5.658   6.500   4.804 -0.5359  0.4141 -0.2411
  620ccc    H1116932   5.625   6.560   4.735 -0.7671 -1.5471 -1.9226
  620ccc     O616933   5.805   6.263   4.907  0.0245 -0.0177  0.3993
  621ccc     C116934   5.026   6.093   4.495  0.3464  1.2556 -0.0762
  621ccc     C216935   5.165   6.149   4.452  0.4713 -0.4206  0.0697
  621ccc     H116936   5.008   6.165   4.576  1.9389  1.0781  0.4747
  621ccc     H216937   5.147   6.254   4.426 -1.3486 -0.7355 -0.0713
  621ccc     C316938   5.258   6.131   4.577  0.0334 -0.7160  0.1572
  621ccc     C416939   5.264   5.987   4.626  0.3613  0.5097 -0.2287
  621ccc     C516940   5.125   5.930   4.652 -0.3942 -0.1978 -0.2608
  621ccc     H316941   5.309   5.929   4.545  0.6265  0.2190  0.1247
  621ccc     H416942   5.214   6.188   4.660 -0.9647 -2.3717  0.8014
  621ccc     H516943   5.085   5.977   4.742 -2.0203 -1.3482 -0.3437
  621ccc     O116944   5.128   5.788   4.677 -0.5097 -0.0891  0.6551
  621ccc     O216945   5.345   5.976   4.744  0.0801  0.5272  0.3034
  621ccc     O316946   5.387   6.196   4.558  0.2560  0.2736  0.5034
  621ccc     O416947   5.219   6.068   4.344 -0.5366 -0.8649 -0.3068
  621ccc     C616948   4.925   6.097   4.378  0.0754  0.1741  0.2600
  621ccc     H616949   5.433   6.196   4.643  0.9638 -1.9293  0.2007
  621ccc     H716950   5.141   6.035   4.296 -0.8856  0.4993 -0.7082
  621ccc     H816951   5.435   5.962   4.709 -1.2124 -0.4519 -3.0217
  621ccc     H916952   4.901   6.200   4.350 -0.1859 -0.1709 -0.8019
  621ccc    H1016953   4.827   6.052   4.399  0.3361 -0.8230 -0.6018
  621ccc     O516954   4.976   6.024   4.263 -1.1864 -0.0835  0.0517
  621ccc    H1116955   4.898   6.031   4.205 -1.1777  1.4167  0.1604
  621ccc     O616956   5.037   5.955   4.545 -0.3735  0.3182  0.2073
  622ccc     C116957   5.964   5.423   4.818 -0.0111 -0.2062 -0.4775
  622ccc     C216958   5.982   5.576   4.845  0.3481  0.1539 -0.1159
  622ccc     H116959   6.015   5.393   4.726 -0.2286 -1.6587 -0.1482
  622ccc     H216960   6.084   5.607   4.819  0.4689  1.1336  1.4391
  622ccc     C316961   5.901   5.666   4.736  0.4266 -0.0279 -0.7326
  622ccc     C416962   5.753   5.625   4.740  0.3019  0.4789  0.3107
  622ccc     C516963   5.737   5.477   4.706  0.4526  0.0486 -0.0696
  622ccc     H316964   5.724   5.634   4.845 -3.7392 -2.2516 -0.3680
  622ccc     H416965   5.936   5.646   4.634 -0.7064 -0.4302 -1.0576
  622ccc     H516966   5.767   5.457   4.603  0.3593  1.1908 -0.3315
  622ccc     O116967   5.604   5.429   4.733  0.2809 -0.3233  0.3545
  622ccc     O216968   5.671   5.717   4.667  0.1530 -0.8753 -0.1181
  622ccc     O316969   5.926   5.805   4.769 -0.2644 -0.7204 -0.0804
  622ccc     O416970   5.945   5.616   4.979  0.1339  0.1328 -0.1021
  622ccc     C616971   6.028   5.337   4.929  0.5747 -0.3212  0.3147
  622ccc     H616972   5.846   5.843   4.810 -0.8570 -1.6382 -0.3688
  622ccc     H716973   5.976   5.708   4.987  0.6204 -0.1761  2.3352
  622ccc     H816974   5.701   5.709   4.575  0.2830  2.1118 -0.4092
  622ccc     H916975   6.135   5.361   4.939  1.1483 -2.4777 -0.0266
  622ccc    H1016976   6.005   5.233   4.902 -1.6318  0.3956 -0.7791
  622ccc     O516977   5.960   5.371   5.051  0.0741  0.0997 -0.1454
  622ccc    H1116978   5.946   5.465   5.031  1.9296  0.6456  0.8164
  622ccc     O616979   5.822   5.389   4.792 -0.2122  0.5502  0.1822
  623ccc     C116980   2.843   6.804   7.276 -0.3097 -0.8954  0.3253
  623ccc     C216981   2.982   6.775   7.333 -0.6675 -0.1545 -0.2751
  623ccc     H116982   2.832   6.761   7.176  0.1540  0.7775 -0.4806
  623ccc     H216983   2.996   6.668   7.355 -0.1046  0.2473  1.5302
  623ccc     C316984   3.093   6.815   7.233  0.0558 -0.2789  0.4234
  623ccc     C416985   3.090   6.964   7.190  0.7901  0.6513 -0.3623
  623ccc     C516986   2.938   7.008   7.168  0.1547 -0.5051 -0.6921
  623ccc     H316987   3.129   7.028   7.271  1.7783 -0.0004 -0.3102
  623ccc     H416988   3.081   6.764   7.137  0.5617  0.4600 -0.0408
  623ccc     H516989   2.909   6.973   7.068  0.4063  0.5167 -1.1327
  623ccc     O116990   2.933   7.151   7.156 -0.1826 -0.0605 -0.2120
  623ccc     O216991   3.171   6.971   7.064  0.2120  0.0226  0.3136
  623ccc     O316992   3.232   6.788   7.274  0.0904  0.0860  0.1777
  623ccc     O416993   3.005   6.841   7.458 -0.2677 -0.7963 -0.3071
  623ccc     C616994   2.731   6.759   7.364  0.0498 -0.7858  0.4511
  623ccc     H616995   3.277   6.734   7.208 -1.5237 -1.0248 -0.0712
  623ccc     H716996   3.063   6.774   7.498  0.1637 -0.2472 -0.0057
  623ccc     H816997   3.119   6.923   6.996  1.5354 -0.4863 -0.3858
  623ccc     H916998   2.733   6.650   7.378  1.7712 -0.5997  2.0576
  623ccc    H1016999   2.638   6.782   7.311  0.3432  1.8069  0.9209
  623ccc     O517000   2.734   6.819   7.496 -0.2470 -0.2882 -0.5330
  623ccc    H1117001   2.827   6.845   7.508 -0.9854  2.3948  0.1489
  623ccc     O617002   2.837   6.949   7.251 -0.3376  0.1915  0.1317
  624ccc     C117003   2.522   7.726   6.976  0.1444  0.1665 -0.0325
  624ccc     C217004   2.464   7.602   6.910  0.7759  0.3323 -0.6909
  624ccc     H117005   2.511   7.804   6.900 -0.8894 -2.6666 -3.0632
  624ccc     H217006   2.358   7.612   6.886  0.2245 -0.3857  1.2176
  624ccc     C317007   2.545   7.576   6.782 -0.6836  0.6911 -0.2707
  624ccc     C417008   2.694   7.565   6.819  0.7248 -0.2895 -0.0618
  624ccc     C517009   2.746   7.692   6.889 -0.3469 -0.2810  0.4152
  624ccc     H317010   2.705   7.479   6.887 -0.8606 -2.2708 -2.1448
  624ccc     H417011   2.535   7.662   6.715 -1.8781  1.9570  1.4701
  624ccc     H517012   2.740   7.774   6.816  0.2079  1.3329  2.1109
  624ccc     O117013   2.878   7.673   6.939 -0.2148 -0.1995  0.6526
  624ccc     O217014   2.780   7.547   6.705  0.1408  0.2219  0.4840
  624ccc     O317015   2.514   7.459   6.711 -0.4485  0.1492  0.0499
  624ccc     O417016   2.472   7.501   7.005 -0.0194  0.3051  0.6802
  624ccc     C617017   2.452   7.777   7.098  0.8749  0.6995  0.3150
  624ccc     H617018   2.421   7.438   6.733 -0.0292 -0.0562  1.7242
  624ccc     H717019   2.454   7.549   7.088 -1.7509  0.6099  0.1831
  624ccc     H817020   2.841   7.480   6.740  0.4137 -0.8001 -1.7564
  624ccc     H917021   2.359   7.820   7.060  1.3652 -0.0567 -1.8725
  624ccc    H1017022   2.515   7.859   7.136 -0.0182  0.3066  2.8861
  624ccc     O517023   2.436   7.677   7.201 -0.2738 -0.2259  0.7511
  624ccc    H1117024   2.428   7.729   7.282  0.0759  1.2008 -0.0965
  624ccc     O617025   2.662   7.719   6.999 -0.3585 -0.0975 -0.1308
  625ccc     C117026   3.903   8.635   6.804  0.1804 -1.1296  0.7253
  625ccc     C217027   3.776   8.670   6.724 -0.2771 -0.5688  0.1436
  625ccc     H117028   3.954   8.556   6.748  0.9239  1.3181 -2.3664
  625ccc     H217029   3.804   8.705   6.624  0.4731 -0.3171  0.4355
  625ccc     C317030   3.684   8.551   6.710 -0.0928 -0.0278  0.4915
  625ccc     C417031   3.651   8.486   6.850  0.6614  0.0409  0.4850
  625ccc     C517032   3.782   8.460   6.927 -0.2192 -0.4526  0.4706
  625ccc     H317033   3.593   8.555   6.912  0.2531  0.4985 -0.3818
  625ccc     H417034   3.751   8.476   6.665  0.1681  0.2414  0.4263
  625ccc     H517035   3.853   8.395   6.875  1.5365  1.1279  0.7638
  625ccc     O117036   3.752   8.414   7.058  0.0637 -0.3332  0.3407
  625ccc     O217037   3.576   8.367   6.835  0.3172  0.0994 -0.2599
  625ccc     O317038   3.563   8.575   6.634  0.5190  0.2160 -0.3313
  625ccc     O417039   3.704   8.771   6.797 -0.1221 -0.4922  0.0423
  625ccc     C617040   3.997   8.758   6.829 -0.4102 -0.3314  0.4120
  625ccc     H617041   3.506   8.631   6.688  2.3922 -0.5407  2.6415
  625ccc     H717042   3.777   8.815   6.843 -0.5906  0.2587  0.0955
  625ccc     H817043   3.569   8.349   6.740 -1.4783 -1.0526  0.0531
  625ccc     H917044   4.020   8.804   6.732 -1.9881 -2.1081 -0.8761
  625ccc    H1017045   4.088   8.715   6.873 -0.0124  0.4513  0.3614
  625ccc     O517046   3.927   8.848   6.913 -0.5609  0.6886 -0.5108
  625ccc    H1117047   3.999   8.881   6.969  0.9030 -2.3504 -0.4223
  625ccc     O617048   3.863   8.582   6.930 -0.4905 -0.0170  0.1199
  626ccc     C117049   3.042   8.320   7.068  0.5065 -0.0656 -0.3587
  626ccc     C217050   3.106   8.356   6.932 -0.0129 -0.3564  0.0628
  626ccc     H117051   2.974   8.401   7.097  1.6542  0.7225  0.2447
  626ccc     H217052   3.025   8.362   6.857  1.7660 -0.4581 -1.9745
  626ccc     C317053   3.187   8.494   6.937  0.0495  0.1585  0.0933
  626ccc     C417054   3.287   8.483   7.056  0.0174 -0.6832  0.0030
  626ccc     C517055   3.226   8.434   7.187 -0.0586  0.3906  0.2220
  626ccc     H317056   3.364   8.408   7.036 -0.3066 -1.3739  1.2296
  626ccc     H417057   3.129   8.585   6.957  0.0302 -0.0645  1.0832
  626ccc     H517058   3.155   8.508   7.227 -0.5489  0.6158 -1.0277
  626ccc     O117059   3.342   8.413   7.270 -0.4556 -0.1839 -0.1660
  626ccc     O217060   3.336   8.621   7.079 -0.7917 -0.4310  1.1745
  626ccc     O317061   3.252   8.510   6.806 -0.3938 -0.1063 -0.0992
  626ccc     O417062   3.189   8.241   6.904 -0.5543 -0.0246  0.3523
  626ccc     C617063   2.964   8.190   7.066  0.1194 -0.2783 -0.7212
  626ccc     H617064   3.316   8.583   6.809  0.9084 -1.2421  0.5768
  626ccc     H717065   3.232   8.263   6.819  2.7752 -1.1847  1.5884
  626ccc     H817066   3.426   8.612   7.114 -0.1319  0.5386 -0.1775
  626ccc     H917067   3.031   8.104   7.059 -2.7848 -3.1046  2.4366
  626ccc    H1017068   2.907   8.190   6.972  1.4225 -1.1441 -1.5388
  626ccc     O517069   2.874   8.190   7.181  0.1987 -0.1766  0.3682
  626ccc    H1117070   2.929   8.216   7.257  2.0655 -1.2042 -0.5671
  626ccc     O617071   3.149   8.317   7.169 -0.0538  0.4433 -0.3513
  627ccc     C117072   3.183   7.117   7.614 -0.0129 -0.5751 -0.0279
  627ccc     C217073   3.061   7.145   7.709 -0.1725 -0.3664  1.2277
  627ccc     H117074   3.154   7.044   7.537  0.1845 -1.1408  0.4356
  627ccc     H217075   2.971   7.166   7.651  0.0134  0.7303  1.3104
  627ccc     C317076   3.030   7.011   7.780  0.3930 -0.7705  0.6471
  627ccc     C417077   3.153   6.929   7.832 -0.0909 -0.1715  0.5915
  627ccc     C517078   3.274   6.928   7.736 -0.6189  0.2084 -0.0099
  627ccc     H317079   3.191   6.985   7.918  2.0629 -2.4801  1.2748
  627ccc     H417080   2.979   6.941   7.713  0.3230 -1.6072  1.5626
  627ccc     H517081   3.270   6.856   7.654  1.7843 -2.1437  1.7722
  627ccc     O117082   3.383   6.879   7.815  0.1074 -0.6078 -0.0209
  627ccc     O217083   3.114   6.794   7.866 -0.1213 -0.6602  0.4613
  627ccc     O317084   2.929   7.035   7.881  0.5602 -0.2868  0.0382
  627ccc     O417085   3.095   7.255   7.797  0.1532  0.0184  0.1521
  627ccc     C617086   3.228   7.249   7.546 -0.6934  1.0907  0.0416
  627ccc     H617087   2.979   7.052   7.963 -0.2220 -2.0500  0.9322
  627ccc     H717088   3.012   7.291   7.833 -1.3877 -1.2660 -1.8223
  627ccc     H817089   3.088   6.809   7.958  1.6725  0.0695  0.8863
  627ccc     H917090   3.282   7.307   7.622  0.4322 -1.0023  0.9234
  627ccc    H1017091   3.139   7.294   7.501 -1.0262  0.5891  0.1904
  627ccc     O517092   3.326   7.207   7.443  0.0830  0.3974  0.2353
  627ccc    H1117093   3.411   7.209   7.492 -0.3953  1.6960  1.0582
  627ccc     O617094   3.292   7.065   7.692  0.1209  0.1251  0.1711
  628ccc     C117095   3.140   6.751   8.215 -0.1365  0.4024  0.0045
  628ccc     C217096   3.187   6.682   8.346  0.2709  0.1303 -0.2153
  628ccc     H117097   3.133   6.677   8.135  0.4412  1.5387 -1.1263
  628ccc     H217098   3.119   6.600   8.372  0.0153 -0.0530 -1.4104
  628ccc     C317099   3.332   6.621   8.335  0.4190  0.7024 -0.0540
  628ccc     C417100   3.430   6.735   8.292  0.3008 -0.1115 -0.5956
  628ccc     C517101   3.382   6.809   8.164  0.5141  0.2703  0.9180
  628ccc     H317102   3.426   6.815   8.368  1.2664  0.8454 -1.5108
  628ccc     H417103   3.335   6.551   8.251 -0.2539  2.0762 -1.2782
  628ccc     H517104   3.397   6.743   8.078 -0.5532  2.7986 -1.3566
  628ccc     O117105   3.470   6.923   8.130 -0.6960 -0.1221 -0.1564
  628ccc     O217106   3.569   6.698   8.279  0.8018  0.1546  0.1774
  628ccc     O317107   3.381   6.574   8.464 -0.3453  0.2549 -0.2389
  628ccc     O417108   3.171   6.768   8.460 -0.2147  0.4812  0.1399
  628ccc     C617109   3.000   6.799   8.221 -0.0605  0.3727 -0.3603
  628ccc     H617110   3.375   6.630   8.543  2.9896 -2.1270  1.9715
  628ccc     H717111   3.105   6.727   8.519 -1.0098  0.1784 -0.9383
  628ccc     H817112   3.583   6.635   8.352  0.8603 -2.6144 -2.0365
  628ccc     H917113   2.996   6.874   8.301  0.0225 -0.3398  0.3238
  628ccc    H1017114   2.932   6.716   8.247 -0.9551  0.8257 -1.1937
  628ccc     O517115   2.968   6.837   8.092 -0.0913  0.2044 -0.4167
  628ccc    H1117116   2.897   6.902   8.107 -2.8097 -2.2009 -1.7187
  628ccc     O617117   3.243   6.851   8.180  0.2864  0.6011 -0.0571
  629ccc     C117118   3.576   6.425   7.799  0.3269  0.4702  0.0397
  629ccc     C217119   3.591   6.324   7.686  0.1380 -0.3912 -0.3338
  629ccc     H117120   3.551   6.515   7.741 -2.5737 -0.8947 -0.9911
  629ccc     H217121   3.499   6.326   7.625 -0.1077  0.3510  0.0513
  629ccc     C317122   3.716   6.367   7.595 -0.1696  0.5172  0.3206
  629ccc     C417123   3.843   6.400   7.675 -0.9719 -0.2875 -0.3803
  629ccc     C517124   3.819   6.491   7.803 -0.0880  0.1497 -0.4085
  629ccc     H317125   3.878   6.301   7.707 -0.8402 -0.5926 -1.4382
  629ccc     H417126   3.690   6.464   7.551 -2.7200  0.0406  0.6368
  629ccc     H517127   3.809   6.596   7.771  0.2047  0.1921 -0.3580
  629ccc     O117128   3.930   6.481   7.886  0.6643  0.1917 -0.0612
  629ccc     O217129   3.945   6.456   7.585  0.1581  0.1103  0.0112
  629ccc     O317130   3.737   6.257   7.498  0.0332 -0.3583 -0.4268
  629ccc     O417131   3.610   6.196   7.732 -0.3521  0.3445  0.2983
  629ccc     C617132   3.460   6.376   7.893 -0.6205 -0.5528  0.0738
  629ccc     H617133   3.788   6.186   7.541  0.1248 -0.0132  0.0443
  629ccc     H717134   3.596   6.136   7.657  1.9923  0.5814 -0.3798
  629ccc     H817135   3.942   6.394   7.510 -3.8077  0.9882 -0.8156
  629ccc     H917136   3.479   6.278   7.938  1.0953 -0.3658 -0.1409
  629ccc    H1017137   3.367   6.363   7.837 -0.2448 -2.3319 -0.1989
  629ccc     O517138   3.435   6.474   7.999 -0.0237  0.3624  0.9083
  629ccc    H1117139   3.348   6.459   8.039 -0.0785 -0.3202  0.5580
  629ccc     O617140   3.702   6.442   7.875  0.5126 -0.6404  0.5915
  630ccc     C117141   3.626   6.200   8.560 -0.0907 -0.8210  0.7540
  630ccc     C217142   3.575   6.344   8.541  0.0264 -0.7639  0.4228
  630ccc     H117143   3.669   6.183   8.660 -0.0632  0.7947  1.0448
  630ccc     H217144   3.511   6.374   8.625 -0.1410 -1.0219  0.3894
  630ccc     C317145   3.700   6.441   8.541 -0.1323 -0.2498  0.2722
  630ccc     C417146   3.805   6.404   8.440 -0.4476  0.8438 -1.0103
  630ccc     C517147   3.849   6.261   8.463 -0.2714  0.4079 -0.2396
  630ccc     H317148   3.751   6.406   8.345 -0.0897 -0.6389 -1.2659
  630ccc     H417149   3.734   6.434   8.645  0.1535 -1.7526  0.1041
  630ccc     H517150   3.902   6.243   8.557  1.6175 -1.1364 -1.5126
  630ccc     O117151   3.932   6.227   8.356 -0.1216  0.1224 -0.5260
  630ccc     O217152   3.920   6.492   8.446 -0.4760  0.0699 -0.6205
  630ccc     O317153   3.655   6.574   8.504  0.2594  0.2675 -1.3051
  630ccc     O417154   3.508   6.360   8.409  0.1234  0.8198 -0.4867
  630ccc     C617155   3.518   6.088   8.552  0.6408 -0.3604  0.0062
  630ccc     H617156   3.644   6.624   8.588  0.2162  0.0539 -1.1829
  630ccc     H717157   3.446   6.433   8.429 -1.0702 -0.7508  2.0727
  630ccc     H817158   3.889   6.570   8.397  0.4587  0.7691 -0.1398
  630ccc     H917159   3.459   6.097   8.459  0.5354  0.7126  0.1558
  630ccc    H1017160   3.445   6.115   8.629  2.3278 -0.6537  1.7859
  630ccc     O517161   3.562   5.954   8.570 -0.2226 -0.0536 -1.0638
  630ccc    H1117162   3.480   5.902   8.571 -1.3137  1.4785 -2.7757
  630ccc     O617163   3.729   6.177   8.461  0.5544 -0.2549 -0.0040
  631ccc     C117164   5.537   9.077   6.753 -1.0840  0.0725 -0.4019
  631ccc     C217165   5.600   8.987   6.869 -0.6057 -0.4009  0.0297
  631ccc     H117166   5.558   9.182   6.776  0.3621 -0.8068  2.7923
  631ccc     H217167   5.708   9.005   6.855 -0.7665 -1.2291 -3.0335
  631ccc     C317168   5.541   9.031   7.005  0.1534 -0.9922  0.4530
  631ccc     C417169   5.388   9.021   6.999 -0.5366 -0.0153  0.1786
  631ccc     C517170   5.322   9.095   6.879 -0.2594  0.3598 -0.5404
  631ccc     H317171   5.377   8.911   6.993 -2.6901  0.2080 -1.1020
  631ccc     H417172   5.566   9.137   7.022 -0.3001 -0.9018  0.5994
  631ccc     H517173   5.326   9.201   6.905  1.2583  0.0747  0.5358
  631ccc     O117174   5.180   9.056   6.856 -0.0921  0.0412 -0.2995
  631ccc     O217175   5.332   9.058   7.126  0.2742  0.0784 -0.0500
  631ccc     O317176   5.597   8.942   7.100  0.3344 -0.2961  0.6014
  631ccc     O417177   5.561   8.851   6.837  0.3667  0.0018  0.7694
  631ccc     C617178   5.593   9.045   6.615 -0.1000  0.1210 -0.0883
  631ccc     H617179   5.560   8.856   7.074 -2.8578  1.5135 -1.4488
  631ccc     H717180   5.533   8.865   6.745 -0.2107 -1.7439  0.6490
  631ccc     H817181   5.401   9.095   7.184 -0.4702  1.5314 -0.0386
  631ccc     H917182   5.702   9.052   6.622 -0.0827 -1.2678  2.4446
  631ccc    H1017183   5.558   9.112   6.536 -0.0084 -0.8076 -0.9395
  631ccc     O517184   5.550   8.915   6.582 -0.2078 -0.1549  0.1487
  631ccc    H1117185   5.579   8.906   6.490  1.5037 -2.1777  0.8006
  631ccc     O617186   5.394   9.069   6.757  0.7675  0.3629  0.1880
  632ccc     C117187   4.612   8.665   6.021  0.4826 -0.2519  0.2389
  632ccc     C217188   4.509   8.779   6.019  0.1435  0.0349 -0.0438
  632ccc     H117189   4.562   8.569   6.042 -0.8785  0.6432  1.2756
  632ccc     H217190   4.431   8.760   5.944 -1.5641  2.9422  0.8311
  632ccc     C317191   4.432   8.768   6.154  0.2977 -0.6877  0.3315
  632ccc     C417192   4.535   8.781   6.268  0.9022  0.3673 -0.7285
  632ccc     C517193   4.652   8.681   6.261 -0.8123  0.2017  0.4995
  632ccc     H317194   4.578   8.882   6.268  0.0902  0.7363 -1.9973
  632ccc     H417195   4.392   8.666   6.159  0.5880 -0.7373  2.2607
  632ccc     H517196   4.618   8.581   6.290  1.6740 -0.0514  2.8307
  632ccc     O117197   4.748   8.708   6.356  0.1218  0.0471 -0.0544
  632ccc     O217198   4.464   8.762   6.398  0.1148  0.4138 -0.0990
  632ccc     O317199   4.316   8.856   6.160 -0.5282 -0.4012  0.6156
  632ccc     O417200   4.569   8.902   5.993 -0.1367  0.3691  0.2612
  632ccc     C617201   4.688   8.654   5.895  0.2190  0.2029  0.1749
  632ccc     H617202   4.335   8.934   6.105 -1.7157  0.6116  1.5810
  632ccc     H717203   4.534   8.932   5.907 -0.5889  1.6335  0.8673
  632ccc     H817204   4.382   8.814   6.387 -0.4597 -0.3283  0.5200
  632ccc     H917205   4.768   8.729   5.887 -0.3387  0.8102  0.2727
  632ccc    H1017206   4.628   8.685   5.809  3.0268 -0.6183 -2.2812
  632ccc     O517207   4.727   8.517   5.862 -0.3474 -0.5609  0.1392
  632ccc    H1117208   4.786   8.503   5.938 -1.0137  0.9968  0.9759
  632ccc     O617209   4.703   8.686   6.126  0.3623  0.2976 -0.8053
  633ccc     C117210   5.681   8.379   7.156 -0.4132  0.0952  0.0315
  633ccc     C217211   5.591   8.503   7.191  0.2765  0.5884 -1.0147
  633ccc     H117212   5.782   8.418   7.136 -0.2513 -0.4443 -0.2233
  633ccc     H217213   5.638   8.547   7.279  1.2998 -1.1384 -0.6419
  633ccc     C317214   5.573   8.596   7.060 -0.1040  0.1823 -0.2894
  633ccc     C417215   5.533   8.513   6.937 -0.2180  0.5840  0.7545
  633ccc     C517216   5.632   8.394   6.923 -0.1271 -0.1799  0.1488
  633ccc     H317217   5.437   8.468   6.963  0.5460 -0.4363  1.9080
  633ccc     H417218   5.670   8.640   7.033 -0.5192  2.0322  1.0168
  633ccc     H517219   5.732   8.438   6.918 -0.3693  0.4017  0.2932
  633ccc     O117220   5.613   8.327   6.802 -0.3082 -0.6528  0.5994
  633ccc     O217221   5.520   8.600   6.823  0.8853 -0.2519  0.4815
  633ccc     O317222   5.480   8.703   7.084  0.0655 -0.1171 -0.6330
  633ccc     O417223   5.466   8.440   7.234  0.4457 -0.2716  0.1809
  633ccc     C617224   5.701   8.270   7.270 -0.6024  1.0516 -0.1794
  633ccc     H617225   5.411   8.667   7.143  0.3490 -0.7754 -0.7041
  633ccc     H717226   5.496   8.362   7.283  0.0319 -0.2363  0.4984
  633ccc     H817227   5.514   8.691   6.857 -0.6762 -0.2286  0.1872
  633ccc     H917228   5.783   8.308   7.334 -0.1064  1.0677 -0.8152
  633ccc    H1017229   5.739   8.177   7.227  2.3927  1.8384  0.5416
  633ccc     O517230   5.581   8.250   7.344  0.2753 -0.0166 -0.0030
  633ccc    H1117231   5.592   8.165   7.390  1.5910 -0.1169 -0.4734
  633ccc     O617232   5.627   8.314   7.041 -0.1678 -0.2515 -0.1373
  634ccc     C117233   5.435   7.550   6.116 -0.5740  0.2861 -0.3145
  634ccc     C217234   5.488   7.421   6.056 -0.4537 -0.7084 -0.0223
  634ccc     H117235   5.424   7.628   6.040 -1.6897  1.1961  0.7215
  634ccc     H217236   5.425   7.386   5.973  0.9101 -0.8634 -1.0121
  634ccc     C317237   5.626   7.443   5.993 -0.2887  0.3429 -0.1939
  634ccc     C417238   5.726   7.516   6.088  0.3315  0.4443  0.5572
  634ccc     C517239   5.671   7.636   6.159  0.3906  0.1362 -0.0265
  634ccc     H317240   5.744   7.440   6.166 -0.0134 -2.3663 -1.8991
  634ccc     H417241   5.610   7.508   5.906  1.0495  1.2888  0.2222
  634ccc     H517242   5.662   7.721   6.090  2.1212 -0.7399 -1.4166
  634ccc     O117243   5.758   7.672   6.264 -0.4246  0.4597  0.3914
  634ccc     O217244   5.854   7.538   6.016  0.4233  0.0295 -0.2158
  634ccc     O317245   5.691   7.319   5.949  0.1020  0.7349 -0.2468
  634ccc     O417246   5.509   7.333   6.170 -0.0689  0.2915 -0.0640
  634ccc     C617247   5.296   7.547   6.184 -0.3114  0.0059 -0.0978
  634ccc     H617248   5.637   7.285   5.875  0.2376  1.1239 -0.5311
  634ccc     H717249   5.536   7.250   6.125  2.0020  0.4892  0.6786
  634ccc     H817250   5.885   7.455   5.976 -0.6695 -0.3176 -0.3544
  634ccc     H917251   5.220   7.521   6.109  0.8975 -1.4349 -0.8925
  634ccc    H1017252   5.283   7.643   6.234 -0.9593  0.4576 -1.0883
  634ccc     O517253   5.294   7.451   6.283 -0.0754 -0.1547 -0.4287
  634ccc    H1117254   5.375   7.403   6.259  0.7427 -0.1162  1.9536
  634ccc     O617255   5.538   7.604   6.206  0.2877  0.1947 -0.3153
  635ccc     C117256   5.509   9.188   7.520 -0.0021 -0.1893 -0.6902
  635ccc     C217257   5.591   9.193   7.385  0.0530  0.1404 -0.2365
  635ccc     H117258   5.580   9.197   7.603 -0.4746  1.8897 -0.4475
  635ccc     H217259   5.662   9.272   7.359  1.8576 -1.9858 -2.2283
  635ccc     C317260   5.680   9.056   7.392  0.0877  0.0283  0.2382
  635ccc     C417261   5.592   8.929   7.405  0.3454  0.9753 -0.2019
  635ccc     C517262   5.508   8.945   7.535  0.2025  0.8528 -0.0137
  635ccc     H317263   5.523   8.919   7.320 -0.9097 -0.4400  0.9243
  635ccc     H417264   5.752   9.058   7.475  3.1406  2.7015 -2.2093
  635ccc     H517265   5.574   8.948   7.622 -1.1170 -2.3963  1.2816
  635ccc     O117266   5.420   8.833   7.565 -0.8782  0.4075 -0.4456
  635ccc     O217267   5.675   8.822   7.414 -0.3903  0.8885  0.6094
  635ccc     O317268   5.760   9.037   7.274  0.2245  0.3573 -0.1102
  635ccc     O417269   5.488   9.179   7.295 -0.0773  0.3154 -0.1395
  635ccc     C617270   5.402   9.308   7.534  0.2308  0.1159 -0.4159
  635ccc     H617271   5.688   9.010   7.215  0.4379 -0.0997 -0.1656
  635ccc     H717272   5.423   9.218   7.356 -0.9188 -0.9758 -0.1821
  635ccc     H817273   5.730   8.831   7.334 -2.0726  0.5215 -0.6398
  635ccc     H917274   5.454   9.397   7.573  0.7310 -0.3417 -0.0396
  635ccc    H1017275   5.340   9.290   7.623  0.3809  2.4909  0.2549
  635ccc     O517276   5.327   9.332   7.419 -0.2340  0.8140  0.2571
  635ccc    H1117277   5.268   9.403   7.450 -1.6693 -1.3549  2.8717
  635ccc     O617278   5.431   9.064   7.530  0.4404 -0.1135 -0.5532
  636ccc     C117279   5.252   8.054   8.127 -0.4327  0.3732  0.1809
  636ccc     C217280   5.229   7.901   8.099  0.0270 -0.1749  0.1088
  636ccc     H117281   5.158   8.111   8.114  1.0645  2.5804 -1.9617
  636ccc     H217282   5.173   7.856   8.182 -1.1696 -2.6205 -1.8945
  636ccc     C317283   5.147   7.885   7.969  0.7012  0.4532 -0.3889
  636ccc     C417284   5.247   7.928   7.855  0.8520 -0.1802  0.0300
  636ccc     C517285   5.267   8.081   7.883 -0.8620 -1.2504  0.0775
  636ccc     H317286   5.339   7.868   7.851  1.4607  0.7636 -0.7086
  636ccc     H417287   5.064   7.957   7.974 -0.9621 -1.4174  1.1657
  636ccc     H517288   5.168   8.127   7.892 -0.2822  0.0379  0.1653
  636ccc     O117289   5.341   8.158   7.777 -0.4343  0.3106 -0.5656
  636ccc     O217290   5.181   7.911   7.727  0.2239  0.5048  0.1704
  636ccc     O317291   5.100   7.749   7.971 -0.5955  0.5494  0.1200
  636ccc     O417292   5.357   7.832   8.089  0.1855  0.2868 -0.1357
  636ccc     C617293   5.315   8.084   8.265 -0.3182 -0.4090  0.1615
  636ccc     H617294   5.054   7.735   7.887 -0.2960 -1.1700  0.1974
  636ccc     H717295   5.390   7.814   8.178  2.3815  1.7851 -0.5729
  636ccc     H817296   5.118   7.837   7.720 -1.5443  1.7512  1.7278
  636ccc     H917297   5.424   8.072   8.262 -0.0610  1.6315  0.1672
  636ccc    H1017298   5.261   8.033   8.345 -0.9910  1.2792  0.8280
  636ccc     O517299   5.275   8.220   8.278 -0.1641  0.5428 -0.0629
  636ccc    H1117300   5.185   8.213   8.314  0.2989 -1.0252  0.8765
  636ccc     O617301   5.329   8.098   8.014  0.4474 -0.1943  0.1340
  637ccc     C117302   4.338   8.288   6.425  0.4424 -0.8117  0.6333
  637ccc     C217303   4.278   8.349   6.298  0.2205 -0.4149  0.6613
  637ccc     H117304   4.279   8.198   6.440  1.5049 -2.4425 -3.5628
  637ccc     H217305   4.264   8.268   6.225 -2.1449  0.0963  0.4879
  637ccc     C317306   4.139   8.398   6.337  0.4460 -0.5014  0.2004
  637ccc     C417307   4.143   8.503   6.456  0.2221  0.0158 -0.5431
  637ccc     C517308   4.213   8.436   6.578  0.0140 -0.3472  0.3532
  637ccc     H317309   4.210   8.583   6.423  1.2250 -0.4424  0.3076
  637ccc     H417310   4.087   8.312   6.378  1.3314 -1.4768 -0.6405
  637ccc     H517311   4.149   8.359   6.622 -0.2399  0.3022  1.1388
  637ccc     O117312   4.238   8.530   6.682 -0.5770 -0.0737 -0.6061
  637ccc     O217313   4.009   8.535   6.492  0.3945  0.3667 -0.5098
  637ccc     O317314   4.071   8.445   6.221  0.7344  0.2913  0.9869
  637ccc     O417315   4.364   8.455   6.240  0.0179 -0.2253 -0.1665
  637ccc     C617316   4.477   8.230   6.407  0.9912  0.1761  0.1783
  637ccc     H617317   4.104   8.533   6.199  0.4092 -0.2564 -2.0423
  637ccc     H717318   4.324   8.460   6.151 -0.0477 -1.3208 -0.2168
  637ccc     H817319   3.957   8.456   6.471 -0.3383  1.0111 -1.1319
  637ccc     H917320   4.478   8.157   6.325  0.1462  0.7914 -0.4053
  637ccc    H1017321   4.506   8.172   6.495  1.4366 -2.5140 -1.5871
  637ccc     O517322   4.559   8.332   6.365  0.2914  0.0872  0.4163
  637ccc    H1117323   4.492   8.375   6.308  0.0761  1.2294  1.5035
  637ccc     O617324   4.340   8.383   6.534  0.0205  0.0627 -0.3937
  638ccc     C117325   4.925   9.191   7.325 -0.5663  0.4952  0.5249
  638ccc     C217326   5.063   9.122   7.274  0.4543 -0.3080  0.0671
  638ccc     H117327   4.890   9.133   7.412  1.6180  0.0183  1.1491
  638ccc     H217328   5.139   9.132   7.352  0.6432  0.3184 -0.1850
  638ccc     C317329   5.036   8.978   7.244  0.4287  0.2802  0.2394
  638ccc     C417330   4.920   8.967   7.143  0.0410 -0.4055  0.4633
  638ccc     C517331   4.795   9.044   7.186  0.0574 -0.1281  0.1070
  638ccc     H317332   4.960   9.017   7.054  2.9555 -1.2415  1.1863
  638ccc     H417333   5.006   8.936   7.340  1.0419 -1.6970 -0.3819
  638ccc     H517334   4.762   8.996   7.279 -0.1304 -2.5253 -1.1017
  638ccc     O117335   4.689   9.043   7.082  0.1437 -0.1106  0.6191
  638ccc     O217336   4.893   8.831   7.116 -0.0989  0.3322  0.3267
  638ccc     O317337   5.151   8.907   7.198 -0.0209  0.5187  0.4868
  638ccc     O417338   5.115   9.199   7.164  0.5462 -0.2879 -0.4815
  638ccc     C617339   4.955   9.334   7.379  0.7824 -0.1732 -0.1514
  638ccc     H617340   5.212   8.974   7.162 -0.5628  1.3480  1.0661
  638ccc     H717341   5.197   9.156   7.133  2.2049  2.4600 -0.1543
  638ccc     H817342   4.976   8.790   7.145  0.0727  0.0077 -0.5831
  638ccc     H917343   4.987   9.397   7.295  2.5463 -0.1689  0.4958
  638ccc    H1017344   5.041   9.329   7.447  1.5550  1.7426 -0.9209
  638ccc     O517345   4.840   9.379   7.448  0.1611  0.1081 -0.1813
  638ccc    H1117346   4.823   9.319   7.522 -1.5159  0.5575 -0.1784
  638ccc     O617347   4.832   9.180   7.216 -0.0463  0.3773  0.0909
  639ccc     C117348   5.284  -0.704   5.401 -0.1473 -0.1623 -0.0645
  639ccc     C217349   5.400  -0.702   5.500  0.1241 -0.5696 -0.2243
  639ccc     H117350   5.291  -0.780   5.323 -1.2010 -0.2992 -0.0483
  639ccc     H217351   5.417  -0.807   5.526  0.0967 -0.5411 -0.0905
  639ccc     C317352   5.532  -0.642   5.440 -0.1889 -0.1981 -0.6436
  639ccc     C417353   5.495  -0.501   5.379  0.5641  0.2540 -0.6346
  639ccc     C517354   5.378  -0.510   5.282  0.5643 -0.2938 -0.2052
  639ccc     H317355   5.473  -0.428   5.459 -1.0347 -0.4793 -0.3654
  639ccc     H417356   5.567  -0.703   5.356 -1.8262 -2.7438  0.3831
  639ccc     H517357   5.400  -0.584   5.204  0.9965  0.7067 -1.0591
  639ccc     O117358   5.343  -0.378   5.237  0.4047  0.1855  0.5856
  639ccc     O217359   5.618  -0.452   5.320 -0.4127 -0.3055 -0.2478
  639ccc     O317360   5.634  -0.621   5.545 -0.4557  0.4863  0.2625
  639ccc     O417361   5.360  -0.634   5.625  0.1574  0.5899  0.1309
  639ccc     C617362   5.154  -0.742   5.471  0.4050  0.2212  0.2584
  639ccc     H617363   5.670  -0.710   5.558  2.2606  1.2473 -1.1681
  639ccc     H717364   5.423  -0.654   5.696  2.4121  0.8836 -1.6664
  639ccc     H817365   5.601  -0.360   5.293  1.1461 -0.2305 -1.0843
  639ccc     H917366   5.130  -0.664   5.544 -1.7988 -0.6728  0.5732
  639ccc    H1017367   5.162  -0.842   5.514 -1.5368  0.0051  0.1879
  639ccc     O517368   5.046  -0.739   5.378  0.0612 -0.4202  0.6300
  639ccc    H1117369   4.977  -0.676   5.405  0.9983  0.0197  2.1099
  639ccc     O617370   5.267  -0.568   5.349 -0.3975  0.0405  0.2605
  640ccc     C117371   5.688   0.274   4.898 -0.0770 -0.2730 -0.5325
  640ccc     C217372   5.806   0.186   4.949  0.2762  0.1057 -0.4167
  640ccc     H117373   5.719   0.380   4.905 -2.3120  0.3102  2.0673
  640ccc     H217374   5.896   0.208   4.891  2.0021 -0.9433  1.7259
  640ccc     C317375   5.840   0.223   5.099  0.1800  0.0937  0.4812
  640ccc     C417376   5.711   0.219   5.192 -0.2880 -0.3796 -0.5893
  640ccc     C517377   5.586   0.289   5.125 -0.1503  0.0067 -0.1530
  640ccc     H317378   5.694   0.111   5.202 -0.5504 -0.3269 -0.4655
  640ccc     H417379   5.870   0.329   5.095  2.5292 -0.4480  1.8198
  640ccc     H517380   5.602   0.397   5.133  0.5033 -0.0416 -0.6586
  640ccc     O117381   5.467   0.249   5.197  0.0426  0.4260  0.1335
  640ccc     O217382   5.740   0.284   5.316 -0.0266 -0.6022  0.6344
  640ccc     O317383   5.946   0.133   5.145  0.0874 -0.1550 -0.1247
  640ccc     O417384   5.766   0.048   4.933 -0.4680 -0.0186 -0.6249
  640ccc     C617385   5.652   0.258   4.755 -0.3343 -0.3450  0.6893
  640ccc     H617386   5.907   0.048   5.172 -0.3984  0.9192  2.9090
  640ccc     H717387   5.847  -0.002   4.910 -0.8010 -1.5921  1.3441
  640ccc     H817388   5.805   0.223   5.353  1.1918 -0.9581 -1.9219
  640ccc     H917389   5.621   0.156   4.730 -0.1281 -0.1394 -0.4544
  640ccc    H1017390   5.753   0.266   4.714 -0.6080 -1.5061 -0.2548
  640ccc     O517391   5.549   0.350   4.704 -0.0735  0.3240 -0.5343
  640ccc    H1117392   5.585   0.359   4.614 -0.8593 -0.9481 -1.0020
  640ccc     O617393   5.576   0.250   4.987 -0.5987 -0.4849 -0.5866
  641ccc     C117394   5.854  -0.097   5.611 -0.6585  0.7337 -0.6239
  641ccc     C217395   5.883  -0.050   5.469  0.1819 -0.5482  0.2150
  641ccc     H117396   5.873  -0.205   5.618 -0.8644  0.7318  0.0064
  641ccc     H217397   5.990  -0.059   5.447  0.0370  0.7029 -1.2006
  641ccc     C317398   5.801  -0.124   5.361 -0.1829  0.9160 -0.0995
  641ccc     C417399   5.645  -0.116   5.388 -0.7195  0.0057 -0.0146
  641ccc     C517400   5.618  -0.152   5.535  0.0845  0.2141  0.3973
  641ccc     H317401   5.615  -0.013   5.364  0.7675  0.2319 -1.0875
  641ccc     H417402   5.830  -0.230   5.373  1.1323  1.4544  2.1819
  641ccc     H517403   5.645  -0.258   5.536  0.4437  0.3084  0.9338
  641ccc     O117404   5.482  -0.120   5.563  0.0262  0.3844  0.2226
  641ccc     O217405   5.561  -0.201   5.309 -0.3063  0.6717 -0.0119
  641ccc     O317406   5.839  -0.083   5.226  0.0383 -0.5138  0.0923
  641ccc     O417407   5.848   0.088   5.467  0.5297 -0.8187 -0.5990
  641ccc     C617408   5.936  -0.029   5.722  0.6191 -0.6670 -0.2146
  641ccc     H617409   5.854  -0.161   5.169  1.3194 -1.3172  1.4444
  641ccc     H717410   5.883   0.115   5.554  0.1016  0.5663 -0.8297
  641ccc     H817411   5.548  -0.162   5.220 -3.6839  0.2898  0.1500
  641ccc     H917412   6.043  -0.050   5.709  1.5422  2.8653  0.5002
  641ccc    H1017413   5.898  -0.076   5.813 -2.2863 -0.7994 -1.3544
  641ccc     O517414   5.915   0.111   5.725 -0.3842 -0.4968 -0.0121
  641ccc    H1117415   5.972   0.151   5.793 -0.9387  0.6977 -0.2170
  641ccc     O617416   5.707  -0.080   5.624  0.1760 -0.9043 -0.5110
  642ccc     C117417   5.657  -0.376   5.982 -0.2750 -0.4152  0.3729
  642ccc     C217418   5.649  -0.496   5.887 -0.2217  0.1107 -0.3702
  642ccc     H117419   5.685  -0.407   6.084  0.8766  2.2922  0.9896
  642ccc     H217420   5.740  -0.557   5.884 -1.3270 -1.6062 -1.1013
  642ccc     C317421   5.536  -0.597   5.919  0.3437  0.0553  0.6047
  642ccc     C417422   5.400  -0.515   5.935  0.1277 -0.1359 -0.3556
  642ccc     C517423   5.408  -0.376   6.019 -0.1006 -1.1303  0.1640
  642ccc     H317424   5.366  -0.492   5.833  0.6440 -0.1665 -0.5350
  642ccc     H417425   5.558  -0.647   6.014  2.6015  0.8849  0.5780
  642ccc     H517426   5.420  -0.397   6.126 -0.0078 -1.2089  0.1387
  642ccc     O117427   5.293  -0.290   5.997  0.7373  0.3443  0.2993
  642ccc     O217428   5.300  -0.610   5.997 -0.7594 -0.5366 -0.0773
  642ccc     O317429   5.532  -0.699   5.821  0.2745  0.3526  0.2952
  642ccc     O417430   5.629  -0.447   5.752  0.1925  0.2261 -0.0685
  642ccc     C617431   5.768  -0.277   5.935  0.0902 -0.2347 -0.4037
  642ccc     H617432   5.552  -0.785   5.862  0.6160  0.9722  1.4855
  642ccc     H717433   5.645  -0.521   5.691 -0.7764  0.6436 -0.8487
  642ccc     H817434   5.344  -0.656   6.071 -2.1473 -1.2514  0.3599
  642ccc     H917435   5.722  -0.229   5.848  0.2021 -0.9622 -0.8680
  642ccc    H1017436   5.858  -0.326   5.896 -0.0757 -0.6363 -0.2834
  642ccc     O517437   5.788  -0.184   6.031  0.1377  0.5609  0.3766
  642ccc    H1117438   5.696  -0.174   6.061  0.3253  0.8102  0.8893
  642ccc     O617439   5.535  -0.302   5.985 -0.1148  0.1925  0.4199
  643ccc     C117440   2.850   0.894   5.859 -0.1548 -0.6237  0.7442
  643ccc     C217441   2.986   0.971   5.880 -0.2541 -0.0785 -0.1582
  643ccc     H117442   2.802   0.883   5.956 -0.3103 -1.3834  0.5924
  643ccc     H217443   2.977   1.070   5.927 -0.5474 -0.3909  0.4499
  643ccc     C317444   3.076   0.893   5.979 -0.2673  0.2636  0.0893
  643ccc     C417445   3.088   0.744   5.943 -0.0970 -0.3604  0.0786
  643ccc     C517446   2.960   0.675   5.888  0.8763 -0.2606 -0.0576
  643ccc     H317447   3.160   0.743   5.861 -0.9443 -3.8763 -0.8172
  643ccc     H417448   3.025   0.905   6.075 -1.2978  2.5096 -0.6683
  643ccc     H517449   2.896   0.638   5.969 -0.1757 -0.6755 -1.0353
  643ccc     O117450   3.002   0.569   5.798  0.0470 -0.1316 -0.0449
  643ccc     O217451   3.138   0.663   6.051  0.4637 -0.7575 -0.1769
  643ccc     O317452   3.199   0.964   5.997 -0.2639 -0.7350  0.4200
  643ccc     O417453   3.050   0.981   5.753 -0.2557 -0.3524  0.0995
  643ccc     C617454   2.746   0.969   5.765 -0.6669  0.0281 -0.2787
  643ccc     H617455   3.172   1.048   6.039  2.2311 -0.0393  0.8220
  643ccc     H717456   3.128   1.038   5.765 -2.1232  2.4074 -0.0442
  643ccc     H817457   3.218   0.711   6.077 -0.3400 -0.2264  1.4295
  643ccc     H917458   2.755   0.953   5.657 -0.3744 -1.7483 -0.0285
  643ccc    H1017459   2.757   1.078   5.769 -1.5399  0.1787 -1.4316
  643ccc     O517460   2.616   0.928   5.800  0.8719  0.4008  0.0421
  643ccc    H1117461   2.615   0.831   5.797  0.3711  0.4025 -0.0016
  643ccc     O617462   2.882   0.766   5.809 -0.6783 -0.5488  0.5084
  644ccc     C117463   2.564   0.027   5.018  0.4548  0.3370  0.8041
  644ccc     C217464   2.442   0.010   5.108 -0.2294 -0.5177  0.3660
  644ccc     H117465   2.610  -0.073   5.015 -0.2360  0.0319 -1.8121
  644ccc     H217466   2.370  -0.052   5.053 -0.4307  0.4394 -0.4797
  644ccc     C317467   2.485  -0.051   5.247  0.1001 -1.3460 -0.1216
  644ccc     C417468   2.599   0.039   5.311  0.5269 -0.0919 -0.2855
  644ccc     C517469   2.707   0.080   5.209  0.0109  0.7658 -0.1317
  644ccc     H317470   2.551   0.135   5.336 -0.1762 -0.5341  0.0668
  644ccc     H417471   2.537  -0.145   5.222  2.0043 -0.1561 -0.8916
  644ccc     H517472   2.776  -0.002   5.186  0.9571  1.6926 -0.6918
  644ccc     O117473   2.780   0.187   5.266 -0.1423 -0.4682  0.3140
  644ccc     O217474   2.660  -0.023   5.433  0.3480  0.2018  0.2074
  644ccc     O317475   2.373  -0.076   5.334  0.2413 -0.7086  0.5759
  644ccc     O417476   2.393   0.146   5.107 -0.1506  0.0530 -0.2362
  644ccc     C617477   2.525   0.062   4.871 -0.0104  0.1467 -0.3011
  644ccc     H617478   2.399  -0.133   5.408  2.2735 -1.2125 -0.4538
  644ccc     H717479   2.297   0.135   5.101 -0.0199 -0.9686 -0.8047
  644ccc     H817480   2.597   0.011   5.499 -0.1104 -0.0271 -0.1139
  644ccc     H917481   2.495   0.167   4.873  0.5174  0.2937  0.9986
  644ccc    H1017482   2.434   0.012   4.836  0.2238 -1.0081  0.6660
  644ccc     O517483   2.636   0.055   4.781  0.1667 -0.3606 -0.5201
  644ccc    H1117484   2.594   0.037   4.695 -2.9003  0.4078  0.6926
  644ccc     O617485   2.656   0.117   5.083  0.0662  0.1757  0.2162
  645ccc     C117486   2.866   0.768   3.871  0.0108  0.6931  0.3079
  645ccc     C217487   2.757   0.667   3.893  0.3241  0.6407 -0.2770
  645ccc     H117488   2.937   0.724   3.800 -0.1356 -0.0060  0.5865
  645ccc     H217489   2.710   0.633   3.800  0.0513 -1.1553  0.4696
  645ccc     C317490   2.818   0.546   3.966  0.4449 -0.6408  0.0614
  645ccc     C417491   2.880   0.591   4.099  0.5137  0.1879 -0.1587
  645ccc     C517492   2.985   0.710   4.077 -0.1359  0.2419  0.1304
  645ccc     H317493   2.802   0.631   4.165  0.0887 -0.4844 -0.2464
  645ccc     H417494   2.899   0.504   3.905  2.4442  1.4477  1.1021
  645ccc     H517495   3.072   0.661   4.032  1.0164  0.8147  1.6615
  645ccc     O117496   3.024   0.760   4.204  0.1733 -0.0646 -0.1551
  645ccc     O217497   2.948   0.477   4.152  0.0447  0.3162  0.0904
  645ccc     O317498   2.715   0.447   3.999  0.2331 -0.3098 -0.3047
  645ccc     O417499   2.658   0.737   3.971  0.0003 -0.3489 -0.5388
  645ccc     C617500   2.814   0.894   3.805  0.9696  0.5208  0.4535
  645ccc     H617501   2.679   0.426   3.911 -1.1785 -2.6113  0.7313
  645ccc     H717502   2.583   0.675   3.970  0.0528 -0.4459  0.3091
  645ccc     H817503   2.886   0.403   4.165  1.2083 -0.5951  0.6754
  645ccc     H917504   2.752   0.954   3.874 -0.3936 -0.3637  0.0387
  645ccc    H1017505   2.739   0.862   3.731 -0.4453  0.2953  1.9214
  645ccc     O517506   2.919   0.969   3.750 -0.4540  0.0262  0.6572
  645ccc    H1117507   2.873   1.039   3.700  1.4795  1.3474  0.6251
  645ccc     O617508   2.926   0.810   3.989  0.1291 -0.2004 -1.0561
  646ccc     C117509   2.401   0.513   4.618 -0.0349  0.0228 -0.0359
  646ccc     C217510   2.332   0.599   4.510 -0.4494 -0.0743  0.4314
  646ccc     H117511   2.418   0.572   4.709 -0.0627 -0.8685  0.5671
  646ccc     H217512   2.228   0.621   4.535 -1.5019 -2.2231 -1.6994
  646ccc     C317513   2.410   0.728   4.479 -0.2643  0.4955  0.6197
  646ccc     C417514   2.553   0.685   4.434  0.0679 -0.0712 -0.1851
  646ccc     C517515   2.630   0.591   4.534  0.2033  0.4221  0.0047
  646ccc     H317516   2.550   0.621   4.345  0.7665 -1.0054  0.4523
  646ccc     H417517   2.416   0.785   4.572 -2.0202 -0.5554  1.4310
  646ccc     H517518   2.644   0.656   4.621 -0.2416 -0.8224  1.0384
  646ccc     O117519   2.757   0.547   4.474  0.0613 -0.6508  0.5635
  646ccc     O217520   2.620   0.811   4.406  0.4511 -0.1274 -0.2069
  646ccc     O317521   2.351   0.806   4.376  0.1603 -0.0104 -0.4174
  646ccc     O417522   2.338   0.507   4.396  0.3966  0.2049 -0.6422
  646ccc     C617523   2.319   0.393   4.655  0.8545 -0.2049  0.2405
  646ccc     H617524   2.353   0.749   4.298 -2.7194 -1.2098  0.2817
  646ccc     H717525   2.329   0.427   4.450  0.1353  0.9863  0.5111
  646ccc     H817526   2.576   0.863   4.336  0.8450  0.0279 -0.3419
  646ccc     H917527   2.218   0.426   4.682  0.4945 -2.4864  2.0334
  646ccc    H1017528   2.357   0.344   4.746  0.2181 -1.5261 -0.1814
  646ccc     O517529   2.310   0.305   4.546 -0.2024 -0.3341  0.1740
  646ccc    H1117530   2.273   0.222   4.581  0.4358 -0.4604  0.5736
  646ccc     O617531   2.542   0.481   4.577  0.3136  0.2249 -0.1473
  647ccc     C117532   3.296   0.866   3.276 -0.6069 -0.2667  0.1789
  647ccc     C217533   3.144   0.834   3.256 -0.5971 -0.6592 -0.1232
  647ccc     H117534   3.358   0.783   3.239 -1.4129 -0.7915 -0.0091
  647ccc     H217535   3.124   0.819   3.149 -1.1595 -0.5495 -0.0373
  647ccc     C317536   3.098   0.706   3.332 -0.4117  0.1061 -0.5193
  647ccc     C417537   3.138   0.719   3.483 -0.6466  0.0283  0.2662
  647ccc     C517538   3.284   0.764   3.503 -0.1210  0.3098 -0.6795
  647ccc     H317539   3.086   0.806   3.525 -1.0099 -0.3880  0.6890
  647ccc     H417540   3.146   0.615   3.293 -1.1700 -0.3017 -0.5156
  647ccc     H517541   3.357   0.686   3.476 -1.8346 -1.7298  0.3113
  647ccc     O117542   3.307   0.807   3.645  0.3254  0.6915 -0.1770
  647ccc     O217543   3.096   0.598   3.544  0.1497 -0.5407  0.3434
  647ccc     O317544   2.956   0.692   3.310 -0.1042  0.4288  0.7959
  647ccc     O417545   3.077   0.947   3.304  0.0579 -0.0714  0.2486
  647ccc     C617546   3.332   0.993   3.192 -0.0209  0.1000 -0.0923
  647ccc     H617547   2.941   0.699   3.215 -0.6849 -0.7891  0.7936
  647ccc     H717548   3.024   0.971   3.226 -0.4179 -1.2830  0.1642
  647ccc     H817549   3.000   0.597   3.556 -0.1261 -1.4840 -1.5619
  647ccc     H917550   3.287   1.081   3.240  0.6359  0.7939 -0.7194
  647ccc    H1017551   3.276   0.976   3.099  0.3346 -1.8750  0.0319
  647ccc     O517552   3.466   0.997   3.159  0.0643  0.2373  0.7158
  647ccc    H1117553   3.491   1.091   3.169  0.6435  0.1084  0.4855
  647ccc     O617554   3.320   0.883   3.419 -0.0867 -0.3746  0.0166
  648ccc     C117555   2.800   1.303   4.270  0.1035 -0.2674 -0.0863
  648ccc     C217556   2.719   1.310   4.138 -0.1814 -0.3122 -0.1527
  648ccc     H117557   2.816   1.407   4.301 -2.3712  0.0363  0.3725
  648ccc     H217558   2.634   1.377   4.155  1.1321  0.7842  2.8157
  648ccc     C317559   2.812   1.375   4.024 -0.1507 -0.4078 -0.7521
  648ccc     C417560   2.940   1.290   4.002 -0.1374 -1.1425  0.0747
  648ccc     C517561   3.020   1.289   4.133  0.4490  0.3838 -0.0991
  648ccc     H317562   2.914   1.189   3.971 -0.2488 -1.3530  0.8244
  648ccc     H417563   2.844   1.472   4.063  0.2698 -0.5691 -0.6938
  648ccc     H517564   3.051   1.392   4.156  0.9795 -0.0133  1.0767
  648ccc     O117565   3.123   1.195   4.118  0.5813 -0.1358 -0.4812
  648ccc     O217566   3.020   1.346   3.893  0.4784  0.3700  0.7461
  648ccc     O317567   2.736   1.388   3.903 -0.0322 -0.5604 -0.1001
  648ccc     O417568   2.690   1.174   4.099 -0.3381  0.0807 -0.3905
  648ccc     C617569   2.726   1.243   4.389 -0.1941 -0.3598  0.0520
  648ccc     H617570   2.782   1.459   3.856 -1.8630 -0.2406 -1.5011
  648ccc     H717571   2.643   1.171   4.014  0.1949 -1.3606 -0.6625
  648ccc     H817572   3.055   1.261   3.860 -0.1964 -0.9136  3.0945
  648ccc     H917573   2.717   1.134   4.393 -1.8428 -0.2353  0.3717
  648ccc    H1017574   2.624   1.285   4.390  0.3871  1.1197  0.7211
  648ccc     O517575   2.781   1.292   4.512  0.1888 -0.0985 -0.6039
  648ccc    H1117576   2.847   1.227   4.543 -0.0084  0.3882  0.9040
  648ccc     O617577   2.927   1.238   4.245 -0.4118  0.8312  0.4309
  649ccc     C117578   4.662   1.915   4.000  0.8332 -0.2370  0.5257
  649ccc     C217579   4.745   1.815   3.920 -0.1871  0.3773 -0.4115
  649ccc     H117580   4.727   2.003   4.010 -0.1233  0.7736 -1.4677
  649ccc     H217581   4.770   1.876   3.832 -0.9744  2.5660  0.7838
  649ccc     C317582   4.881   1.778   3.993 -0.1839  0.7677 -0.7521
  649ccc     C417583   4.843   1.722   4.134 -0.5186  0.3901  0.5653
  649ccc     C517584   4.738   1.813   4.207  0.6742 -0.3837  0.1549
  649ccc     H317585   4.793   1.626   4.113 -1.1755  1.0135 -0.8603
  649ccc     H417586   4.935   1.873   4.005  2.9014 -1.0525  0.7731
  649ccc     H517587   4.795   1.904   4.231  1.3562 -0.8238  0.2384
  649ccc     O117588   4.697   1.745   4.330 -0.1759  0.6519  0.0793
  649ccc     O217589   4.957   1.699   4.213  0.4333 -0.6991  0.0905
  649ccc     O317590   4.971   1.702   3.908 -0.1093  0.4574 -0.1630
  649ccc     O417591   4.667   1.701   3.895 -0.2699 -0.8279 -0.2322
  649ccc     C617592   4.534   1.968   3.931 -0.4171 -0.5350  0.7092
  649ccc     H617593   4.984   1.750   3.824  1.4553  0.7151  0.1922
  649ccc     H717594   4.717   1.639   3.840 -2.4888 -1.4570 -1.6964
  649ccc     H817595   5.029   1.668   4.155  1.9530 -1.4209  2.1961
  649ccc     H917596   4.571   2.013   3.838  0.4763 -1.7878  0.4279
  649ccc    H1017597   4.487   2.047   3.990  1.3533  2.1167 -1.1959
  649ccc     O517598   4.450   1.849   3.909 -0.2734  0.1463 -0.1742
  649ccc    H1117599   4.523   1.786   3.894  0.4352  1.4079 -2.6908
  649ccc     O617600   4.626   1.856   4.122 -0.3492 -0.5539  0.1146
  650ccc     C117601   5.118   1.073   5.057  0.9309 -0.2294  0.3639
  650ccc     C217602   5.032   0.955   5.114 -0.1988 -1.0930 -0.1929
  650ccc     H117603   5.138   1.144   5.138  2.4504 -2.1809  1.7897
  650ccc     H217604   5.089   0.924   5.203 -1.8005 -2.6135  0.3451
  650ccc     C317605   4.900   1.011   5.169  1.0530 -0.1390 -0.4657
  650ccc     C417606   4.821   1.092   5.065  0.5539 -0.1309  0.1721
  650ccc     C517607   4.909   1.206   5.012  0.4770  0.5097  0.3659
  650ccc     H317608   4.797   1.025   4.982 -0.1805  0.8459 -0.4197
  650ccc     H417609   4.928   1.083   5.247  1.4993 -0.6049 -0.1958
  650ccc     H517610   4.923   1.279   5.092 -0.3088 -0.4208  1.3961
  650ccc     O117611   4.835   1.258   4.900 -0.1492  0.4676 -0.7225
  650ccc     O217612   4.702   1.141   5.125 -0.0068  0.0459  0.0176
  650ccc     O317613   4.818   0.907   5.229  0.3041  0.3336  0.0529
  650ccc     O417614   5.020   0.866   5.001 -0.3030 -0.0735 -0.9197
  650ccc     C617615   5.254   1.036   4.999 -0.0368  0.0427  0.0608
  650ccc     H617616   4.864   0.822   5.225  0.2575  0.2836  0.5430
  650ccc     H717617   5.111   0.877   4.969 -0.1513 -0.6095 -0.6831
  650ccc     H817618   4.668   1.065   5.176  1.4303 -0.5642  0.1309
  650ccc     H917619   5.320   1.027   5.086 -0.6948  1.8477  0.7843
  650ccc    H1017620   5.285   1.129   4.951  2.0384 -0.3089  0.6208
  650ccc     O517621   5.267   0.922   4.915  0.0884 -0.6397  0.7185
  650ccc    H1117622   5.363   0.911   4.905  0.2091 -1.4760  2.4717
  650ccc     O617623   5.032   1.143   4.961  0.3475  0.6910  0.2894
  651ccc     C117624   4.338  -0.999   3.698 -0.3219 -0.2876  0.0639
  651ccc     C217625   4.410  -0.986   3.559  0.2084  0.3292 -0.0536
  651ccc     H117626   4.233  -1.030   3.685 -0.7915  2.2082 -3.2861
  651ccc     H217627   4.410  -1.083   3.507 -2.8297 -0.6611  1.5544
  651ccc     C317628   4.341  -0.879   3.471  0.6607  0.2565  0.2262
  651ccc     C417629   4.316  -0.747   3.552  0.3872  0.2895  0.3554
  651ccc     C517630   4.262  -0.769   3.696  0.1324  0.8442 -0.0897
  651ccc     H317631   4.418  -0.709   3.562  0.8950  0.1736 -3.3350
  651ccc     H417632   4.243  -0.914   3.437 -0.4338  1.5099  1.9295
  651ccc     H517633   4.155  -0.794   3.696  0.4749 -0.8613  1.4425
  651ccc     O117634   4.282  -0.641   3.748  0.0448 -0.1037 -0.0081
  651ccc     O217635   4.238  -0.657   3.476 -0.2738  0.2263  0.0730
  651ccc     O317636   4.424  -0.852   3.354  0.2170  0.5791  0.4021
  651ccc     O417637   4.540  -0.949   3.589 -0.5213 -0.2188 -0.1063
  651ccc     C617638   4.412  -1.099   3.790 -1.1041 -0.5506 -0.3260
  651ccc     H617639   4.396  -0.768   3.313  1.0284  1.1221  0.9453
  651ccc     H717640   4.576  -0.911   3.507 -0.6683 -0.2677 -0.1930
  651ccc     H817641   4.286  -0.575   3.498  0.6772 -0.2084 -0.3728
  651ccc     H917642   4.511  -1.071   3.829 -0.1223 -1.6732 -1.9074
  651ccc    H1017643   4.436  -1.193   3.739  1.3937 -1.3381  2.0625
  651ccc     O517644   4.325  -1.119   3.894 -0.1762 -0.0287  0.0239
  651ccc    H1117645   4.330  -1.216   3.905  0.2004  0.1977  2.4386
  651ccc     O617646   4.345  -0.868   3.762 -0.6151 -0.3270  0.1383
  652ccc     C117647   3.485   0.090   3.804 -0.0563 -0.0728 -0.0420
  652ccc     C217648   3.347   0.013   3.827 -0.1294  0.7956  0.1453
  652ccc     H117649   3.494   0.125   3.701  0.4694  1.6086  0.5519
  652ccc     H217650   3.259   0.074   3.803 -1.7272 -1.6267 -0.4490
  652ccc     C317651   3.348  -0.113   3.737  0.1713  0.3552  0.1529
  652ccc     C417652   3.471  -0.199   3.774  0.5609  0.2937 -0.1076
  652ccc     C517653   3.601  -0.115   3.758 -0.6553 -0.2903 -0.0056
  652ccc     H317654   3.486  -0.216   3.882 -1.5032 -0.4712  0.0981
  652ccc     H417655   3.363  -0.085   3.632  1.6686  1.9766  0.7357
  652ccc     H517656   3.597  -0.082   3.653 -0.2113  0.8346  0.3136
  652ccc     O117657   3.718  -0.193   3.782  0.1783  0.3186 -0.3575
  652ccc     O217658   3.448  -0.330   3.709 -0.1092 -0.6062  0.1010
  652ccc     O317659   3.225  -0.198   3.751  0.1520 -0.4498  0.4521
  652ccc     O417660   3.339  -0.025   3.961 -0.2845 -0.1975  0.4949
  652ccc     C617661   3.509   0.224   3.877  0.4218  1.0284 -0.1534
  652ccc     H617662   3.155  -0.162   3.693  0.5312  2.2193  1.5347
  652ccc     H717663   3.249  -0.059   3.972 -0.3784 -0.6930 -1.5245
  652ccc     H817664   3.352  -0.318   3.715  0.1124  1.3424  0.7229
  652ccc     H917665   3.530   0.210   3.984  1.7214 -1.4162 -0.6638
  652ccc    H1017666   3.429   0.295   3.853 -1.0522 -1.0569 -1.6890
  652ccc     O517667   3.632   0.274   3.819  0.0726 -0.0117  0.0537
  652ccc    H1117668   3.700   0.211   3.849  0.5331  0.3390 -0.2392
  652ccc     O617669   3.601   0.007   3.835 -0.2641  0.5580 -0.1705
  653ccc     C117670   4.617  -0.199   3.086  0.1525  0.7932  0.3167
  653ccc     C217671   4.609  -0.324   3.001  0.0943 -0.0613 -0.6824
  653ccc     H117672   4.543  -0.218   3.164  2.3911 -0.4452  2.2574
  653ccc     H217673   4.626  -0.416   3.059  0.9730 -0.3935 -1.4412
  653ccc     C317674   4.475  -0.345   2.923 -0.0075 -0.1976  0.2391
  653ccc     C417675   4.420  -0.213   2.851  0.3647  0.2628 -0.2402
  653ccc     C517676   4.433  -0.097   2.951  0.0146  0.4975 -0.6393
  653ccc     H317677   4.487  -0.194   2.767  2.8855 -0.9265  1.3735
  653ccc     H417678   4.399  -0.367   2.999 -2.2035 -0.1506 -1.8179
  653ccc     H517679   4.360  -0.104   3.032 -0.2348  0.4154 -0.8703
  653ccc     O117680   4.411   0.027   2.875  0.5989 -0.4388  0.0906
  653ccc     O217681   4.287  -0.235   2.816  0.6488  0.4481 -0.8637
  653ccc     O317682   4.477  -0.450   2.831  0.3976 -0.1991  0.0531
  653ccc     O417683   4.726  -0.311   2.907  0.7124  0.3548 -0.1156
  653ccc     C617684   4.762  -0.166   3.155 -0.1917  0.0548  0.2333
  653ccc     H617685   4.532  -0.421   2.756  2.2473 -1.7444  0.7322
  653ccc     H717686   4.734  -0.394   2.856 -0.9013 -0.6041  1.1183
  653ccc     H817687   4.280  -0.304   2.747 -3.1273 -0.3561  0.0912
  653ccc     H917688   4.829  -0.108   3.090  0.2966 -1.6618 -0.8731
  653ccc    H1017689   4.820  -0.257   3.174 -0.8164  0.0194  2.1598
  653ccc     O517690   4.751  -0.099   3.283 -0.0041 -0.7370  0.0520
  653ccc    H1117691   4.834  -0.048   3.294 -0.7952  0.4248  0.9067
  653ccc     O617692   4.569  -0.092   2.993 -0.1324 -0.4137  0.0001
  654ccc     C117693   4.060  -0.331   2.516 -0.3306 -0.0653 -0.5355
  654ccc     C217694   4.208  -0.382   2.486 -0.4286 -0.7777 -0.2892
  654ccc     H117695   4.006  -0.309   2.423 -1.2767  2.9837  0.6084
  654ccc     H217696   4.209  -0.471   2.423  2.4168 -0.4557 -0.8177
  654ccc     C317697   4.291  -0.271   2.406  0.0860  0.4791 -0.2455
  654ccc     C417698   4.285  -0.140   2.493  0.3318 -0.3416  0.4783
  654ccc     C517699   4.142  -0.105   2.531  0.1461  0.0746  0.5238
  654ccc     H317700   4.337  -0.159   2.588 -3.0476  0.0262  2.5595
  654ccc     H417701   4.245  -0.261   2.306 -0.3348 -1.0569 -0.2329
  654ccc     H517702   4.090  -0.066   2.443  0.2167  0.2377  0.5547
  654ccc     O117703   4.148   0.004   2.625  0.4019 -0.2322  0.6071
  654ccc     O217704   4.338  -0.033   2.411  0.1486  0.8090 -0.7086
  654ccc     O317705   4.426  -0.316   2.388  0.5037  0.3384 -0.5966
  654ccc     O417706   4.261  -0.408   2.613 -0.4164 -0.1091  0.3263
  654ccc     C617707   3.987  -0.435   2.595  0.5199  0.5153  0.0545
  654ccc     H617708   4.416  -0.401   2.341 -0.3344 -0.3386  0.7557
  654ccc     H717709   4.265  -0.504   2.632  0.4427 -0.0612  0.4401
  654ccc     H817710   4.413  -0.010   2.469  2.8072 -3.2075 -2.1336
  654ccc     H917711   4.013  -0.435   2.701 -1.1628 -1.3159  0.5291
  654ccc    H1017712   4.008  -0.538   2.562 -2.8937  0.1146 -1.3786
  654ccc     O517713   3.849  -0.402   2.588  0.4090 -0.4660 -0.6667
  654ccc    H1117714   3.845  -0.339   2.662  2.6785 -1.3259  0.2789
  654ccc     O617715   4.068  -0.207   2.597  0.1815  0.5491 -0.3233
  655ccc     C117716   5.702   3.166   2.678  0.5524 -0.1582  0.8206
  655ccc     C217717   5.732   3.283   2.584 -0.7166  0.3728 -0.0106
  655ccc     H117718   5.771   3.081   2.664  0.3080 -0.8030  3.1101
  655ccc     H217719   5.832   3.320   2.611 -0.8956  0.1393  1.0090
  655ccc     C317720   5.729   3.230   2.434  0.0996  0.0300 -0.2425
  655ccc     C417721   5.601   3.154   2.405 -0.8377 -0.6069  0.9565
  655ccc     C517722   5.561   3.055   2.517 -0.8044  0.3968 -0.4543
  655ccc     H317723   5.518   3.225   2.393  0.6146  0.9490 -0.5211
  655ccc     H417724   5.811   3.158   2.427  0.2761  0.2782 -0.7723
  655ccc     H517725   5.627   2.968   2.506 -0.6530  0.3873  0.4864
  655ccc     O117726   5.421   3.024   2.494 -0.6019  0.3412 -0.0752
  655ccc     O217727   5.606   3.079   2.279 -0.1440 -0.3897 -0.2362
  655ccc     O317728   5.765   3.333   2.350 -0.0638 -0.7130 -0.0433
  655ccc     O417729   5.636   3.393   2.609  0.8100  0.2383  0.7694
  655ccc     C617730   5.699   3.208   2.826  0.5759 -0.3371  0.5324
  655ccc     H617731   5.853   3.368   2.375 -0.3650  0.2687 -0.3048
  655ccc     H717732   5.611   3.370   2.700  1.1569 -0.8749  0.5943
  655ccc     H817733   5.517   3.097   2.244  0.9755  1.1664 -2.5544
  655ccc     H917734   5.800   3.250   2.841  0.2156  1.7526 -2.1506
  655ccc    H1017735   5.695   3.122   2.894  1.4231 -1.9047 -1.3191
  655ccc     O517736   5.594   3.307   2.838  0.3858  0.5166 -0.3554
  655ccc    H1117737   5.585   3.304   2.934  0.4649 -3.1402 -0.3220
  655ccc     O617738   5.571   3.112   2.647  1.0718  0.6671  0.1938
  656ccc     C117739   5.195   3.015   2.060  0.3765 -0.5901 -0.1533
  656ccc     C217740   5.069   3.088   2.115 -0.0082  0.3531 -0.4512
  656ccc     H117741   5.177   3.018   1.951 -0.7947 -1.4521  0.0037
  656ccc     H217742   5.062   3.189   2.073 -2.1873  0.2967 -0.3590
  656ccc     C317743   4.937   3.002   2.076 -0.2392 -0.5161  0.3124
  656ccc     C417744   4.956   2.860   2.129  0.2036  0.2880  0.7641
  656ccc     C517745   5.084   2.791   2.079  0.1875 -0.3232  0.0720
  656ccc     H317746   4.968   2.865   2.238  0.3857  2.8726  0.6927
  656ccc     H417747   4.928   3.014   1.968  0.9393  4.1043  0.5215
  656ccc     H517748   5.064   2.773   1.973  2.0973 -0.8095 -0.2329
  656ccc     O117749   5.092   2.661   2.145 -0.2041 -0.3041 -0.2472
  656ccc     O217750   4.835   2.784   2.087 -0.5763  0.0704 -0.0459
  656ccc     O317751   4.824   3.077   2.133  0.1501 -0.3248  0.1255
  656ccc     O417752   5.082   3.097   2.258  0.1276 -0.4819 -0.3877
  656ccc     C617753   5.330   3.086   2.075  0.0326  0.0582  0.4782
  656ccc     H617754   4.750   3.059   2.073 -1.4243  0.5124  1.6987
  656ccc     H717755   4.998   3.128   2.298  1.6821 -0.1621  3.0392
  656ccc     H817756   4.760   2.830   2.128 -0.4949 -1.2099  1.6209
  656ccc     H917757   5.349   3.171   2.009 -0.5089  0.4818  0.8659
  656ccc    H1017758   5.413   3.019   2.049  0.1355 -0.3028  1.6851
  656ccc     O517759   5.348   3.120   2.212  0.7557 -0.2747  0.4890
  656ccc    H1117760   5.258   3.095   2.240  0.4440  0.4371  0.1486
  656ccc     O617761   5.203   2.877   2.107 -0.5964 -0.2651 -0.6314
  657ccc     C117762   6.951   1.984   2.202 -0.2063  0.5519  0.0372
  657ccc     C217763   6.979   2.055   2.070  0.8742 -0.5387 -0.3444
  657ccc     H117764   6.996   1.884   2.191  0.0821  0.8049 -1.2273
  657ccc     H217765   7.086   2.065   2.047  0.6725  3.2489 -0.3297
  657ccc     C317766   6.907   1.982   1.957  0.0683  0.6280  0.6285
  657ccc     C417767   6.757   1.949   1.987  0.3111  0.7727  0.1032
  657ccc     C517768   6.734   1.891   2.129  0.1587  0.1016  0.0610
  657ccc     H317769   6.707   2.047   1.977 -0.0038  0.4484 -2.2523
  657ccc     H417770   6.960   1.886   1.946  1.7162  1.5248  0.4103
  657ccc     H517771   6.764   1.785   2.134 -1.4172 -0.4145 -0.6906
  657ccc     O117772   6.592   1.899   2.153  0.2045  0.1649  0.5998
  657ccc     O217773   6.697   1.854   1.890  0.6706  0.4426  0.2578
  657ccc     O317774   6.915   2.042   1.824 -0.7701 -0.0984 -0.1312
  657ccc     O417775   6.916   2.177   2.096  0.5791 -0.2264 -0.1833
  657ccc     C617776   7.024   2.045   2.329 -0.4473  0.6081 -0.2262
  657ccc     H617777   6.981   2.114   1.823 -0.5226 -0.3234 -0.8876
  657ccc     H717778   6.949   2.202   2.184 -0.3528  2.4309 -0.4963
  657ccc     H817779   6.710   1.898   1.804  3.0018 -1.7645 -0.6829
  657ccc     H917780   7.134   2.044   2.322 -0.2884  0.0707  1.7171
  657ccc    H1017781   7.006   1.981   2.416  1.9124  1.4873  1.0022
  657ccc     O517782   6.979   2.179   2.353 -0.2148 -0.3304 -0.1407
  657ccc    H1117783   6.915   2.179   2.427 -0.9545 -1.7333 -0.7355
  657ccc     O617784   6.808   1.966   2.229  0.0065 -0.2088  0.1766
  658ccc     C117785   6.015   2.097   1.720 -0.3820 -0.1789 -0.3291
  658ccc     C217786   6.141   2.135   1.650  0.0360 -0.1791 -0.9170
  658ccc     H117787   5.933   2.133   1.656 -0.9797  0.6638  0.8798
  658ccc     H217788   6.129   2.094   1.549 -1.6060  2.1675 -1.7415
  658ccc     C317789   6.147   2.290   1.651 -0.2647 -0.2377  0.0964
  658ccc     C417790   6.132   2.348   1.792  0.6141  0.0699  0.4082
  658ccc     C517791   6.011   2.285   1.870  0.4129 -0.5164  0.3426
  658ccc     H317792   6.224   2.333   1.850  0.3565  1.0007  1.0741
  658ccc     H417793   6.064   2.324   1.588 -0.1621  0.3816  0.2929
  658ccc     H517794   5.916   2.314   1.822  0.7088 -1.6861 -1.0244
  658ccc     O117795   6.026   2.332   2.011  0.5156 -0.4611  0.1291
  658ccc     O217796   6.107   2.487   1.773 -0.3702 -0.2440  0.1759
  658ccc     O317797   6.268   2.328   1.582 -0.3601  0.0038 -0.3973
  658ccc     O417798   6.247   2.070   1.710  0.0458  0.0130 -0.4117
  658ccc     C617799   5.990   1.946   1.712 -0.4015  0.6304  0.1993
  658ccc     H617800   6.254   2.288   1.494 -0.3403  1.3040 -1.0232
  658ccc     H717801   6.318   2.071   1.643  0.2687  4.3077 -0.3859
  658ccc     H817802   6.191   2.535   1.765 -0.5053  0.2248  1.3769
  658ccc     H917803   6.070   1.895   1.766 -2.4094 -1.7790  1.1528
  658ccc    H1017804   5.968   1.896   1.616 -0.6418 -0.0539  0.5966
  658ccc     O517805   5.869   1.934   1.787 -0.1730 -0.2740 -0.2471
  658ccc    H1117806   5.866   2.012   1.844 -0.0382 -1.3336  1.2740
  658ccc     O617807   6.000   2.145   1.859 -0.2085 -0.0724  0.2534
  659ccc     C117808   4.783   1.889   1.697  0.5255  0.1081 -0.2230
  659ccc     C217809   4.691   1.979   1.784  0.1260 -0.0216  0.7217
  659ccc     H117810   4.727   1.861   1.607 -1.4030  3.0168 -0.0856
  659ccc     H217811   4.656   2.069   1.730 -1.8792 -0.7595  0.7227
  659ccc     C317812   4.572   1.889   1.826 -0.0445 -0.4080 -0.0782
  659ccc     C417813   4.621   1.764   1.904 -0.1579 -0.5324 -0.0310
  659ccc     C517814   4.722   1.677   1.817  0.0363  0.1067  0.7506
  659ccc     H317815   4.673   1.806   1.992  0.2210 -0.0653 -0.4746
  659ccc     H417816   4.528   1.849   1.734  2.0456 -0.5979 -1.0624
  659ccc     H517817   4.672   1.617   1.739 -0.3097  1.6958 -0.2977
  659ccc     O117818   4.791   1.590   1.907  0.0942  0.3052  0.2182
  659ccc     O217819   4.517   1.677   1.954  0.6726  0.5209 -0.2675
  659ccc     O317820   4.473   1.968   1.897 -0.3262 -0.2116  0.1807
  659ccc     O417821   4.765   2.024   1.896 -0.0842 -0.1750 -0.1164
  659ccc     C617822   4.913   1.961   1.656  0.0145 -0.2583 -0.2796
  659ccc     H617823   4.398   1.906   1.906  0.2280 -1.3254 -2.0875
  659ccc     H717824   4.853   2.039   1.859  0.0883 -1.0474 -0.0749
  659ccc     H817825   4.501   1.700   2.048 -0.9253 -2.0551  0.1780
  659ccc     H917826   4.900   2.050   1.594  2.1501  0.5563  0.3375
  659ccc    H1017827   4.959   1.886   1.590  1.2072  0.5785 -0.4371
  659ccc     O517828   4.994   2.004   1.770  0.1277  0.4231 -0.1651
  659ccc    H1117829   5.081   2.022   1.732  0.2604 -0.7128 -0.4571
  659ccc     O617830   4.824   1.770   1.766 -0.0229 -0.0962  0.3107
  660ccc     C117831   4.306   1.321   2.725  0.0177 -0.2184 -0.2998
  660ccc     C217832   4.310   1.467   2.779  0.0696  0.2888 -0.3332
  660ccc     H117833   4.352   1.252   2.797 -3.3686 -3.2640 -0.7832
  660ccc     H217834   4.242   1.478   2.864 -2.3883  1.7928 -2.3391
  660ccc     C317835   4.457   1.502   2.811  0.0892 -0.2274 -0.3407
  660ccc     C417836   4.542   1.489   2.684  0.6252 -0.5808 -0.5616
  660ccc     C517837   4.508   1.359   2.608 -0.3246  0.1673 -0.0035
  660ccc     H317838   4.514   1.573   2.619 -2.1922 -0.6973  0.3788
  660ccc     H417839   4.493   1.427   2.882 -1.5734 -2.2231 -1.5041
  660ccc     H517840   4.560   1.275   2.656 -0.4731  0.0421 -0.0616
  660ccc     O117841   4.558   1.374   2.478 -0.3409  0.5961  0.1050
  660ccc     O217842   4.684   1.490   2.719  0.4656  0.1354  0.6830
  660ccc     O317843   4.464   1.636   2.872  0.3406 -0.0167  0.4662
  660ccc     O417844   4.261   1.551   2.673  0.2249 -0.0252  0.4516
  660ccc     C617845   4.170   1.253   2.705 -0.1177 -0.1298  0.7698
  660ccc     H617846   4.497   1.618   2.961  1.6029 -2.6240 -0.4105
  660ccc     H717847   4.264   1.639   2.715  1.6353 -1.3994  3.5904
  660ccc     H817848   4.701   1.583   2.739 -0.5434  0.5050 -0.1113
  660ccc     H917849   4.108   1.239   2.794 -0.5290  1.3301  0.7257
  660ccc    H1017850   4.169   1.157   2.652 -1.0482  0.0350  0.4729
  660ccc     O517851   4.108   1.347   2.631 -0.6008  0.8063 -0.5386
  660ccc    H1117852   4.167   1.424   2.636 -1.8469  1.7227  1.0163
  660ccc     O617853   4.369   1.330   2.593 -0.0165  0.2114  0.0607
  661ccc     C117854   4.948   2.409   1.598  0.3043 -0.2704  0.3699
  661ccc     C217855   4.942   2.559   1.633  0.3792  0.1513  0.5681
  661ccc     H117856   4.846   2.380   1.568  0.6106 -0.6627 -0.3230
  661ccc     H217857   4.928   2.618   1.542  0.6378  0.3288  0.6432
  661ccc     C317858   4.846   2.593   1.745  0.3347  0.5295 -0.0890
  661ccc     C417859   4.884   2.510   1.875  0.3506  0.0521  0.5393
  661ccc     C517860   4.887   2.359   1.832 -0.1696 -0.3649 -0.8776
  661ccc     H317861   4.989   2.531   1.902  0.0396 -0.4299  2.2058
  661ccc     H417862   4.745   2.565   1.714  0.3628  1.4734 -1.0982
  661ccc     H517863   4.789   2.323   1.800 -0.3990  0.2932 -0.9407
  661ccc     O117864   4.935   2.279   1.949 -0.7416  0.2922  0.0531
  661ccc     O217865   4.786   2.535   1.979 -0.6531  0.3528  0.5586
  661ccc     O317866   4.847   2.732   1.774  0.3135  0.4251  0.4126
  661ccc     O417867   5.074   2.608   1.667 -0.0884  0.0628  0.5378
  661ccc     C617868   5.038   2.369   1.480 -0.2522  0.2536 -0.9094
  661ccc     H617869   4.761   2.744   1.817 -0.0354 -0.4922 -0.0001
  661ccc     H717870   5.067   2.704   1.676  1.5389  0.4170 -1.3576
  661ccc     H817871   4.816   2.625   2.001 -2.7426  0.8611  1.5367
  661ccc     H917872   5.026   2.444   1.401 -0.4094 -0.2145 -1.3334
  661ccc    H1017873   5.009   2.266   1.458  0.8651 -0.0478 -1.0212
  661ccc     O517874   5.168   2.382   1.530 -0.6354 -0.1786 -0.2832
  661ccc    H1117875   5.144   2.368   1.624  1.0321 -2.3156 -0.1031
  661ccc     O617876   4.985   2.340   1.720  0.6076  0.3315 -0.3534
  662ccc     C117877   5.595   1.740   2.038  0.1925 -0.0516  0.1632
  662ccc     C217878   5.658   1.883   2.050 -0.5750  0.3328 -0.5878
  662ccc     H117879   5.613   1.686   1.944 -1.3181  0.8787 -0.7032
  662ccc     H217880   5.764   1.879   2.023 -0.5020 -0.3392 -0.2077
  662ccc     C317881   5.592   1.981   1.958  0.5951 -0.2796  0.3481
  662ccc     C417882   5.440   1.975   1.970 -0.4883  0.9768  0.0203
  662ccc     C517883   5.380   1.836   1.970 -0.2042 -0.2891 -0.4424
  662ccc     H317884   5.408   2.016   2.066 -1.4831 -2.0135  1.0727
  662ccc     H417885   5.618   1.949   1.856  0.3100  1.0203 -0.1414
  662ccc     H517886   5.384   1.798   1.867  0.7204  0.4621 -0.6905
  662ccc     O117887   5.243   1.842   2.019 -0.1612 -0.0838  0.4143
  662ccc     O217888   5.381   2.052   1.870 -0.2012 -0.3848 -0.5715
  662ccc     O317889   5.665   2.105   1.967 -0.4127 -0.4385 -0.4912
  662ccc     O417890   5.648   1.936   2.184  0.5783  0.1889  0.6972
  662ccc     C617891   5.651   1.658   2.150 -0.1822 -0.1089 -0.7120
  662ccc     H617892   5.631   2.167   1.901 -0.8141 -0.1469 -0.0209
  662ccc     H717893   5.637   2.032   2.173  1.0846 -0.0351 -3.4919
  662ccc     H817894   5.368   2.139   1.912 -0.6848 -0.2612 -0.9646
  662ccc     H917895   5.621   1.693   2.249 -0.8380 -1.9489 -0.2309
  662ccc    H1017896   5.760   1.671   2.159  0.1591 -2.4333 -1.0067
  662ccc     O517897   5.627   1.518   2.132 -0.1041 -0.4759 -0.6199
  662ccc    H1117898   5.532   1.523   2.152 -0.0028  2.6993 -0.4318
  662ccc     O617899   5.453   1.753   2.056  0.6661 -0.3253 -0.4129
  663ccc     C117900   4.906   0.782   2.156 -1.2890  0.0692 -0.2443
  663ccc     C217901   4.814   0.660   2.138 -0.4243  0.1370  0.1401
  663ccc     H117902   4.974   0.772   2.071  2.1885  0.7161  2.2296
  663ccc     H217903   4.755   0.671   2.046 -3.0812 -0.7923  1.6176
  663ccc     C317904   4.897   0.533   2.143 -0.2304  0.8531 -0.3518
  663ccc     C417905   4.986   0.536   2.273  0.5978  0.2532 -0.3897
  663ccc     C517906   5.066   0.663   2.275 -0.0515 -0.4216 -0.8082
  663ccc     H317907   4.922   0.536   2.362  1.8133 -0.7494  0.5210
  663ccc     H417908   4.961   0.532   2.054  0.6667  1.9152  0.2478
  663ccc     H517909   5.133   0.667   2.188 -0.7563  0.5282 -1.3164
  663ccc     O117910   5.149   0.660   2.389 -0.2874 -0.0361 -0.4294
  663ccc     O217911   5.071   0.424   2.286  0.0160 -0.1331  0.4501
  663ccc     O317912   4.804   0.418   2.145  0.3602  0.2018 -0.0837
  663ccc     O417913   4.725   0.649   2.246  0.4536 -0.5458 -0.1573
  663ccc     C617914   4.833   0.915   2.143 -0.3247 -0.4858 -0.3559
  663ccc     H617915   4.755   0.436   2.227  1.8662  2.6766  0.3852
  663ccc     H717916   4.636   0.671   2.212  0.7908 -1.6026 -1.7886
  663ccc     H817917   5.060   0.369   2.207 -1.1560  1.5788 -0.6386
  663ccc     H917918   4.794   0.943   2.241 -0.3067  0.5318 -0.6266
  663ccc    H1017919   4.743   0.901   2.081 -0.1287 -2.7190 -0.2349
  663ccc     O517920   4.915   1.021   2.078  1.0212 -0.0635  0.2705
  663ccc    H1117921   4.896   1.012   1.983 -3.0705  3.5903  0.4397
  663ccc     O617922   4.974   0.773   2.282 -0.3648 -0.4675  0.1652
  664ccc     C117923   5.609  -0.162   2.242  0.4502 -0.4748 -0.4184
  664ccc     C217924   5.641  -0.261   2.359  0.2237  0.2682  0.0214
  664ccc     H117925   5.697  -0.098   2.229  2.7106 -2.9986  1.2815
  664ccc     H217926   5.739  -0.308   2.343  0.4196 -0.5117  3.0172
  664ccc     C317927   5.646  -0.189   2.499 -0.0076  0.0011  1.0767
  664ccc     C417928   5.527  -0.094   2.517 -0.3074 -0.2617  0.3275
  664ccc     C517929   5.518   0.008   2.400 -0.7478 -0.0797  0.2706
  664ccc     H317930   5.432  -0.148   2.512 -0.1756 -0.3658 -1.8249
  664ccc     H417931   5.728  -0.118   2.485 -0.4228  0.0642 -1.6593
  664ccc     H517932   5.604   0.072   2.379 -0.2792 -0.8561 -0.2333
  664ccc     O117933   5.396   0.082   2.432 -0.1344  0.0222 -0.1489
  664ccc     O217934   5.557  -0.024   2.640 -0.2326 -0.9340 -0.0431
  664ccc     O317935   5.664  -0.285   2.605 -0.1592 -0.3706 -0.2676
  664ccc     O417936   5.532  -0.354   2.360 -0.3817 -0.1388 -0.3424
  664ccc     C617937   5.571  -0.239   2.116  0.3333  0.5633  0.4258
  664ccc     H617938   5.636  -0.373   2.574  0.8750 -0.2372 -1.6939
  664ccc     H717939   5.568  -0.430   2.310  1.2866  1.8280 -2.3615
  664ccc     H817940   5.559  -0.095   2.707 -0.0107  0.0631  1.0401
  664ccc     H917941   5.467  -0.271   2.126  0.3734  0.1989 -0.2736
  664ccc    H1017942   5.636  -0.323   2.090 -0.7785  0.1467 -1.1205
  664ccc     O517943   5.566  -0.145   2.009  0.3339  0.7643 -0.1119
  664ccc    H1117944   5.546  -0.201   1.932  1.0725  2.7003 -1.8019
  664ccc     O617945   5.498  -0.066   2.277 -0.2245  0.2400 -0.3649
  665ccc     C117946   6.406   0.834   1.608 -0.0588  0.4482  1.4863
  665ccc     C217947   6.264   0.874   1.643 -0.0879  0.6446  0.1679
  665ccc     H117948   6.422   0.726   1.597  0.2207  0.4862  1.5013
  665ccc     H217949   6.200   0.838   1.561  1.0417  1.4886 -1.1470
  665ccc     C317950   6.223   0.819   1.781  0.1734  0.0848 -0.2974
  665ccc     C417951   6.331   0.864   1.884  0.8137 -0.7599 -0.2675
  665ccc     C517952   6.474   0.839   1.849  0.6397 -1.0993 -0.4126
  665ccc     H317953   6.324   0.972   1.902  1.6795 -0.4162 -1.8253
  665ccc     H417954   6.218   0.710   1.786  0.9932  0.0322 -0.5663
  665ccc     H517955   6.498   0.732   1.849  2.5257 -0.7160 -1.3643
  665ccc     O117956   6.562   0.912   1.938 -0.3237  0.7013  0.6673
  665ccc     O217957   6.296   0.793   2.009 -0.3288 -0.2125  1.0303
  665ccc     O317958   6.088   0.867   1.813 -0.4659 -0.1774  0.0467
  665ccc     O417959   6.254   1.017   1.644  0.2143 -0.0092  0.3693
  665ccc     C617960   6.444   0.894   1.467 -0.6039  0.6850  0.5705
  665ccc     H617961   6.045   0.794   1.859 -2.0303  0.6125 -0.0968
  665ccc     H717962   6.164   1.029   1.681 -0.1669  3.5405 -1.3557
  665ccc     H817963   6.227   0.843   2.056 -1.0374 -0.4054  0.2171
  665ccc     H917964   6.461   1.002   1.469 -1.4431  0.8838 -0.8834
  665ccc    H1017965   6.367   0.874   1.391  1.1815 -2.4885 -0.6029
  665ccc     O517966   6.555   0.818   1.415  0.1642  0.5317 -0.1611
  665ccc    H1117967   6.612   0.790   1.488  0.1126  0.0294 -0.3117
  665ccc     O617968   6.496   0.886   1.709  0.4621  0.1537 -0.7338
  666ccc     C117969   7.336   0.938   1.965  0.6406 -0.3931 -0.0256
  666ccc     C217970   7.369   1.088   1.964  1.1305  0.2071 -0.8025
  666ccc     H117971   7.295   0.918   1.865 -1.5027 -2.3340  1.1357
  666ccc     H217972   7.439   1.111   1.883  1.6434  1.7792  0.0432
  666ccc     C317973   7.237   1.170   1.954  0.4489  0.1832  1.6936
  666ccc     C417974   7.120   1.124   2.045 -0.0521 -0.1921 -0.2371
  666ccc     C517975   7.100   0.970   2.033  0.2241 -0.0298  0.4012
  666ccc     H317976   7.147   1.143   2.150 -2.8994 -0.0324  0.5468
  666ccc     H417977   7.186   1.154   1.858  2.1534 -1.2272  0.9792
  666ccc     H517978   7.066   0.942   1.933 -0.7230 -0.8962  0.9425
  666ccc     O117979   6.996   0.923   2.129  0.3454 -0.2201 -0.2966
  666ccc     O217980   7.000   1.199   2.012  0.4294  0.0207 -0.0902
  666ccc     O317981   7.262   1.309   1.978 -0.3224 -0.0287  0.2588
  666ccc     O417982   7.428   1.114   2.092  0.3482 -0.3650 -0.9236
  666ccc     C617983   7.452   0.845   2.015 -0.6951 -0.0405 -0.1947
  666ccc     H617984   7.215   1.363   1.912 -1.3745  0.1074  1.0782
  666ccc     H717985   7.416   1.210   2.102  1.6369 -0.1179 -1.4961
  666ccc     H817986   6.999   1.204   1.914 -2.6455 -0.3247 -0.1765
  666ccc     H917987   7.548   0.872   1.969  0.5350  1.2979  2.8295
  666ccc    H1017988   7.432   0.739   1.996 -1.0536  0.2495 -1.4789
  666ccc     O517989   7.466   0.869   2.154  0.6587  0.1227  0.1226
  666ccc    H1117990   7.434   0.961   2.144 -1.2945 -0.7290 -2.6274
  666ccc     O617991   7.227   0.904   2.060 -0.0657  0.1253 -0.1904
  667ccc     C117992   4.734   0.024   2.034 -0.5915 -0.1889 -0.5321
  667ccc     C217993   4.810   0.054   1.906 -0.1081 -0.1491  0.3186
  667ccc     H117994   4.667   0.103   2.070 -2.1528 -1.9752  0.6949
  667ccc     H217995   4.748   0.092   1.825 -0.1242 -2.2948 -0.7538
  667ccc     C317996   4.919   0.158   1.925 -0.2484 -0.1344  0.5568
  667ccc     C417997   5.015   0.133   2.051 -0.2924 -0.6974  0.3537
  667ccc     C517998   4.927   0.103   2.176  0.4601  0.4149  0.0446
  667ccc     H317999   5.065   0.036   2.047 -0.2676 -0.6407 -1.1891
  667ccc     H418000   4.860   0.246   1.953 -2.2656 -1.4246  0.5591
  667ccc     H518001   4.868   0.192   2.202 -0.9853 -0.0456 -1.4927
  667ccc     O118002   5.010   0.056   2.284 -0.2899  0.0836 -0.4237
  667ccc     O218003   5.094   0.248   2.084  0.1340 -0.3451  0.6680
  667ccc     O318004   4.996   0.190   1.804  0.0705  0.3333  0.9781
  667ccc     O418005   4.869  -0.068   1.853 -0.1818 -0.2748 -0.1476
  667ccc     C618006   4.636  -0.099   2.015  0.4993 -0.2859  0.3624
  667ccc     H618007   5.031   0.103   1.781 -0.5845  0.3183 -0.0120
  667ccc     H718008   4.801  -0.109   1.796  0.1163  0.4702 -1.0844
  667ccc     H818009   5.176   0.249   2.031  0.1641  2.9949  0.5512
  667ccc     H918010   4.684  -0.198   2.014  1.4173  0.0884  2.0922
  667ccc    H1018011   4.588  -0.085   1.918  2.0050  1.0234 -0.2285
  667ccc     O518012   4.536  -0.096   2.113  0.1683 -0.1115  0.5901
  667ccc    H1118013   4.582  -0.109   2.198 -0.2668  3.1966  1.4912
  667ccc     O618014   4.838  -0.006   2.139  0.9587 -0.2448  0.6991
  668ccc     C118015   5.466  -0.660   2.877 -0.3235 -0.2744 -0.8678
  668ccc     C218016   5.576  -0.616   2.779  0.2105 -0.4613  0.5788
  668ccc     H118017   5.415  -0.748   2.837  0.3201 -0.8143 -0.5160
  668ccc     H218018   5.656  -0.688   2.757  1.1233  0.5901  0.3522
  668ccc     C318019   5.503  -0.579   2.648 -0.1211  0.2309  0.0488
  668ccc     C418020   5.399  -0.467   2.676 -1.1893 -0.0930 -0.4051
  668ccc     C518021   5.303  -0.498   2.789  0.0727 -0.6177 -0.4513
  668ccc     H318022   5.456  -0.378   2.706 -0.2107 -1.3738  1.7725
  668ccc     H418023   5.435  -0.657   2.613  0.2545  0.7566 -1.9698
  668ccc     H518024   5.220  -0.564   2.760  1.3768 -2.4893 -0.0723
  668ccc     O118025   5.252  -0.372   2.822 -0.0461 -0.8363 -0.2424
  668ccc     O218026   5.330  -0.439   2.553  0.1101 -0.0161 -0.0843
  668ccc     O318027   5.593  -0.542   2.545 -0.3093 -0.3095 -0.6495
  668ccc     O418028   5.645  -0.507   2.843 -0.0165  0.6230 -0.4494
  668ccc     C618029   5.517  -0.710   3.019 -0.4806 -0.6071 -0.0270
  668ccc     H618030   5.632  -0.621   2.504  1.7538  0.3472 -0.0706
  668ccc     H718031   5.720  -0.492   2.783  2.2438  0.0998  2.0353
  668ccc     H818032   5.399  -0.437   2.485 -1.1033  1.5171 -1.3612
  668ccc     H918033   5.584  -0.796   3.011 -1.9565 -1.8286  0.2768
  668ccc    H1018034   5.431  -0.747   3.076 -2.9443  2.3386 -1.5229
  668ccc     O518035   5.591  -0.605   3.083 -0.2042  0.2024 -0.4689
  668ccc    H1118036   5.623  -0.559   3.004 -1.6694 -1.7543 -2.3236
  668ccc     O618037   5.368  -0.553   2.901 -0.1643 -0.7440 -0.0935
  669ccc     C118038   5.742   0.197   4.344  0.2221  0.4172 -0.4458
  669ccc     C218039   5.867   0.182   4.437  0.4573 -0.0478 -0.1056
  669ccc     H118040   5.710   0.096   4.318  1.1156 -1.0038  3.3713
  669ccc     H218041   5.835   0.134   4.530  3.2869  0.9181  1.4956
  669ccc     C318042   5.981   0.102   4.365 -0.0620 -0.4383  0.2923
  669ccc     C418043   6.015   0.168   4.222  0.4490  1.0667  0.3751
  669ccc     C518044   5.886   0.207   4.141 -0.4640  0.4844 -0.0838
  669ccc     H318045   6.075   0.258   4.239  3.2939 -0.5811 -0.1969
  669ccc     H418046   5.949  -0.001   4.346  2.8078 -1.4168  0.3399
  669ccc     H518047   5.833   0.120   4.100  0.6492  0.2842 -1.1470
  669ccc     O118048   5.923   0.288   4.027  0.5640  0.3542  0.4949
  669ccc     O218049   6.092   0.069   4.146  0.6431 -0.1744  0.9614
  669ccc     O318050   6.098   0.104   4.445 -0.2723 -0.2670 -0.1431
  669ccc     O418051   5.919   0.308   4.471 -0.0680 -0.1751  0.2334
  669ccc     C618052   5.624   0.285   4.394 -0.4081  0.6408 -0.3978
  669ccc     H618053   6.160   0.038   4.409 -1.9070 -1.6635 -0.5110
  669ccc     H718054   6.013   0.285   4.466 -0.2840 -1.0653  0.2123
  669ccc     H818055   6.168   0.041   4.200  0.4976  0.8706  1.7248
  669ccc     H918056   5.549   0.234   4.456 -0.9767  1.0340 -0.7512
  669ccc    H1018057   5.568   0.322   4.307 -1.7307 -1.6358 -0.5886
  669ccc     O518058   5.674   0.394   4.470 -0.2000 -0.8588 -0.2258
  669ccc    H1118059   5.770   0.378   4.469 -0.1210 -0.5130  0.6807
  669ccc     O618060   5.791   0.266   4.228 -0.1525  0.2143 -0.1167
  670ccc     C118061   6.346   0.440   4.265  0.0519 -0.4817  0.2178
  670ccc     C218062   6.249   0.545   4.317 -0.0984 -0.4605  0.4700
  670ccc     H118063   6.438   0.485   4.227  0.1686  0.7354  1.8645
  670ccc     H218064   6.303   0.599   4.396 -0.0046  0.2686 -0.0785
  670ccc     C318065   6.193   0.646   4.215 -0.0392 -0.0138  0.6897
  670ccc     C418066   6.138   0.565   4.097  0.5974  0.0176 -0.0595
  670ccc     C518067   6.236   0.459   4.041 -0.0517 -1.0371 -0.5294
  670ccc     H318068   6.047   0.516   4.134 -0.3803  1.9126  0.1633
  670ccc     H418069   6.277   0.710   4.183  0.6418 -1.0908  0.2458
  670ccc     H518070   6.329   0.509   4.011 -0.3021 -0.6808 -0.7168
  670ccc     O118071   6.179   0.390   3.933 -0.2977  0.6760  0.0112
  670ccc     O218072   6.098   0.658   3.998  0.3774 -0.5751  0.7098
  670ccc     O318073   6.092   0.736   4.267  0.1560  0.1145  0.1412
  670ccc     O418074   6.140   0.478   4.378  0.2223  0.1925  0.5077
  670ccc     C618075   6.393   0.336   4.371  0.8458 -0.6079 -0.0895
  670ccc     H618076   6.120   0.771   4.353  0.1539 -0.9001  0.5783
  670ccc     H718077   6.077   0.547   4.405 -0.1784  0.4190 -0.9226
  670ccc     H818078   6.052   0.717   4.059  0.3946  0.1807  0.0173
  670ccc     H918079   6.338   0.246   4.343 -0.1567  0.1332 -0.5865
  670ccc    H1018080   6.359   0.365   4.472 -1.7238 -0.9822 -0.7741
  670ccc     O518081   6.533   0.311   4.364 -0.3575  0.0888  0.2113
  670ccc    H1118082   6.545   0.266   4.278 -0.3780 -1.6606  1.0964
  670ccc     O618083   6.288   0.375   4.145  0.6011 -0.4339 -0.5079
  671ccc     C118084   2.026   1.774   3.410 -0.2160 -0.1581 -0.0959
  671ccc     C218085   2.135   1.880   3.433  0.4500  0.2287  0.3232
  671ccc     H118086   2.020   1.752   3.303  1.0219  1.6989 -0.5870
  671ccc     H218087   2.226   1.836   3.391 -0.2496  0.7588 -1.9399
  671ccc     C318088   2.103   2.010   3.346  0.2923  0.2459 -0.1680
  671ccc     C418089   1.960   2.068   3.381 -0.3186 -0.0466 -0.1800
  671ccc     C518090   1.847   1.955   3.373  0.6290  0.8690  0.7034
  671ccc     H318091   1.975   2.094   3.487  1.4378  0.1905 -0.4584
  671ccc     H418092   2.093   1.966   3.246 -0.1282 -2.2283  0.9084
  671ccc     H518093   1.822   1.930   3.269 -0.6365  1.7412  0.7689
  671ccc     O118094   1.725   1.995   3.444 -0.1161  0.0482 -0.2601
  671ccc     O218095   1.927   2.185   3.297 -0.0635  0.0097 -0.0761
  671ccc     O318096   2.217   2.103   3.346 -0.1128 -0.2637  0.0958
  671ccc     O418097   2.138   1.912   3.574  0.7552 -0.2921  0.3472
  671ccc     C618098   2.051   1.635   3.472  0.0816 -0.2977  0.2571
  671ccc     H618099   2.190   2.176   3.287  0.3992 -1.5391 -1.8297
  671ccc     H718100   2.137   1.823   3.613 -0.1240 -0.2421  0.4473
  671ccc     H818101   1.917   2.252   3.367 -3.2566 -1.7979  1.4204
  671ccc     H918102   2.138   1.587   3.425  0.3223  0.1202  0.2750
  671ccc    H1018103   1.965   1.570   3.453 -1.0268  1.5672 -1.4702
  671ccc     O518104   2.084   1.653   3.607 -0.3475  0.0691 -0.6087
  671ccc    H1118105   2.175   1.621   3.611  0.3480  2.0236  2.0282
  671ccc     O618106   1.892   1.830   3.441  0.1682  0.3341 -0.4321
  672ccc     C118107   1.250   1.668   4.228 -0.3790 -0.1436  0.5054
  672ccc     C218108   1.234   1.706   4.376  0.8171 -0.5603  0.1351
  672ccc     H118109   1.338   1.604   4.217  1.9021  3.1282 -3.5335
  672ccc     H218110   1.222   1.616   4.437 -1.0366  0.2514  1.0575
  672ccc     C318111   1.359   1.792   4.427  0.5958  0.1760 -0.0183
  672ccc     C418112   1.390   1.906   4.326  0.1547 -0.0518 -0.2033
  672ccc     C518113   1.378   1.859   4.176 -0.3005  0.7232 -0.2646
  672ccc     H318114   1.323   1.992   4.340 -0.0773 -0.3230  0.3421
  672ccc     H418115   1.445   1.726   4.413  1.7447  1.6939 -0.4169
  672ccc     H518116   1.460   1.789   4.154  0.8575  1.0362  2.5798
  672ccc     O118117   1.395   1.970   4.085  0.1006  0.2360  0.0210
  672ccc     O218118   1.530   1.940   4.352 -0.1373 -0.6014  0.2918
  672ccc     O318119   1.346   1.829   4.567  0.5685 -0.2933 -0.1300
  672ccc     O418120   1.111   1.771   4.398  0.5806  0.1034 -0.3321
  672ccc     C618121   1.134   1.584   4.177 -0.7324 -0.3477  0.6132
  672ccc     H618122   1.263   1.878   4.581  0.3193 -0.5540 -0.6515
  672ccc     H718123   1.077   1.719   4.472  0.8651  0.9860  0.4419
  672ccc     H818124   1.519   1.991   4.434  0.6010  0.9558 -0.5496
  672ccc     H918125   1.060   1.656   4.142 -0.0388 -0.0374 -0.2592
  672ccc    H1018126   1.085   1.523   4.254 -4.2355  1.4248 -0.0242
  672ccc     O518127   1.182   1.496   4.076  0.5467 -0.7391  0.5943
  672ccc    H1118128   1.104   1.461   4.030  1.9239  2.5287 -5.2034
  672ccc     O618129   1.259   1.787   4.156  0.0595 -0.2374  0.8793
  673ccc     C118130   2.115   0.771   4.068  0.0670  0.5672 -0.5347
  673ccc     C218131   2.237   0.676   4.045  0.3926  0.4510 -0.2882
  673ccc     H118132   2.045   0.754   3.985  0.2563 -1.0195 -0.3924
  673ccc     H218133   2.200   0.573   4.036 -2.0186  1.0038  1.8834
  673ccc     C318134   2.310   0.718   3.918  0.1645  0.0289 -0.5418
  673ccc     C418135   2.339   0.874   3.913  0.5697  0.6879 -0.5620
  673ccc     C518136   2.217   0.969   3.955 -1.3031  0.7948  0.4767
  673ccc     H318137   2.417   0.878   3.990 -0.6065 -0.4400  0.7359
  673ccc     H418138   2.236   0.691   3.841  0.3160 -0.9678 -0.3527
  673ccc     H518139   2.143   0.959   3.874 -2.4293  1.2401  1.4181
  673ccc     O118140   2.280   1.101   3.966  0.8309  0.5621 -0.2183
  673ccc     O218141   2.390   0.902   3.779 -0.5853  0.3582 -0.0263
  673ccc     O318142   2.423   0.627   3.911 -0.0535  0.6907  0.0077
  673ccc     O418143   2.328   0.682   4.155  0.0207  0.0863  0.7805
  673ccc     C618144   2.054   0.738   4.208 -0.0534  0.2020  0.1900
  673ccc     H618145   2.394   0.542   3.873  2.0900 -0.0091 -0.1595
  673ccc     H718146   2.385   0.607   4.129  1.5325  1.5416 -0.3710
  673ccc     H818147   2.429   0.816   3.754 -2.9164 -0.6410 -0.5256
  673ccc     H918148   2.111   0.791   4.285 -0.8644 -0.1546  1.0412
  673ccc    H1018149   2.051   0.631   4.230  0.9183 -0.4713 -2.5244
  673ccc     O518150   1.915   0.783   4.208 -0.1104 -0.4047  0.0363
  673ccc    H1118151   1.895   0.842   4.133 -0.4015 -1.8570 -1.0630
  673ccc     O618152   2.156   0.910   4.071  0.5363 -0.1808  0.2913
  674ccc     C118153   1.754   1.232   4.251 -0.4036  0.1710  0.1450
  674ccc     C218154   1.809   1.094   4.212  0.1746 -0.0388  0.3456
  674ccc     H118155   1.654   1.248   4.207 -0.7566  0.0063  0.8721
  674ccc     H218156   1.734   1.025   4.252 -0.2441  1.0735  1.5551
  674ccc     C318157   1.813   1.089   4.058  0.6260  0.3745 -0.5345
  674ccc     C418158   1.898   1.201   3.990  0.1230  0.2585 -0.2521
  674ccc     C518159   1.859   1.339   4.055  0.1307  0.2163  0.6007
  674ccc     H318160   2.000   1.192   4.028  0.6564 -0.3013 -1.7352
  674ccc     H418161   1.708   1.112   4.035  0.4672  3.7088  2.5708
  674ccc     H518162   1.760   1.363   4.014 -0.0822  0.3423  1.1857
  674ccc     O118163   1.954   1.430   4.013 -0.2260 -0.0302  0.1619
  674ccc     O218164   1.897   1.191   3.848  0.5012 -0.6882  0.2492
  674ccc     O318165   1.852   0.951   4.024  0.1697  0.1662 -0.2990
  674ccc     O418166   1.947   1.081   4.260  0.2347 -0.2510  0.1481
  674ccc     C618167   1.730   1.248   4.400  0.1129 -0.6143 -0.0778
  674ccc     H618168   1.864   0.940   3.928 -4.1078  1.3118 -1.1627
  674ccc     H718169   1.953   0.985   4.277 -0.4417 -0.3471 -0.1280
  674ccc     H818170   1.922   1.278   3.811 -0.9020 -0.6121 -0.5830
  674ccc     H918171   1.823   1.228   4.453  0.8574 -0.9897 -1.4643
  674ccc    H1018172   1.654   1.176   4.433 -1.2782  1.4779  1.5120
  674ccc     O518173   1.676   1.375   4.428  0.2600 -0.0102 -0.3226
  674ccc    H1118174   1.754   1.432   4.430  0.0526  0.2765 -0.3179
  674ccc     O618175   1.844   1.331   4.195  0.1562 -0.0406  0.2244
  675ccc     C118176   2.030   3.476   3.085 -0.2590  0.0896  0.5185
  675ccc     C218177   1.884   3.598   3.022 -0.2892 -0.9124 -0.5380
  675ccc     H118178   2.017   3.381   3.032 -1.3098  1.1269 -1.1575
  675ccc     H218179   1.843   3.551   2.932  1.4825 -1.4172 -1.1214
  675ccc     C318180   1.737   3.642   3.148 -0.0234  0.6874  0.2623
  675ccc     C418181   1.747   3.590   3.338  0.3045  0.7932 -0.5303
  675ccc     C518182   1.891   3.467   3.394  0.7250 -0.4872 -0.0668
  675ccc     H318183   1.769   3.684   3.391 -1.5991  1.9018 -1.5951
  675ccc     H418184   1.655   3.577   3.115  0.2759  0.3227  0.2333
  675ccc     H518185   1.849   3.369   3.418  4.2746 -1.7706  1.7199
  675ccc     O118186   1.945   3.513   3.517 -0.1629  0.0553 -0.3142
  675ccc     O218187   1.618   3.563   3.389 -0.5617  0.2063 -0.1084
  675ccc     O318188   1.676   3.776   3.117  0.3744  0.3512 -0.5986
  675ccc     O418189   1.938   3.721   2.971  0.2950 -0.0832 -0.0871
  675ccc     C618190   2.166   3.524   3.034  1.0023 -0.0731 -0.6126
  675ccc     H618191   1.590   3.759   3.074  0.2420  2.1998 -1.1852
  675ccc     H718192   1.865   3.783   2.951 -0.6380 -1.3274 -0.7479
  675ccc     H818193   1.604   3.468   3.369  0.0895 -0.4798  2.3142
  675ccc     H918194   2.209   3.607   3.091 -0.6960 -0.5877  1.5842
  675ccc    H1018195   2.163   3.542   2.926 -1.2717 -3.8012 -1.3623
  675ccc     O518196   2.256   3.421   3.049  0.2294  0.0856  0.2913
  675ccc    H1118197   2.233   3.353   2.983  2.1985  0.0930 -0.4459
  675ccc     O618198   2.033   3.427   3.271 -0.0006 -0.6539  0.4557
  676ccc     C118199   1.587   3.744   4.466 -1.1449 -0.0974 -0.5851
  676ccc     C218200   1.663   3.795   4.593  0.0772 -0.3754 -0.0381
  676ccc     H118201   1.572   3.637   4.483  1.1236 -0.3450  0.1488
  676ccc     H218202   1.602   3.805   4.684 -0.2575  0.3974 -0.3318
  676ccc     C318203   1.795   3.709   4.611 -0.1534  0.5342  0.6921
  676ccc     C418204   1.877   3.698   4.480 -0.6610 -0.1806 -0.0747
  676ccc     C518205   1.797   3.666   4.353  0.0343  0.1413  0.4300
  676ccc     H318206   1.921   3.797   4.463 -1.4045 -0.1675 -2.2690
  676ccc     H418207   1.763   3.607   4.637  1.4931 -0.5412 -1.2047
  676ccc     H518208   1.771   3.560   4.366  0.2774  0.2124  1.5765
  676ccc     O118209   1.882   3.677   4.235  0.1272  0.1795 -0.2502
  676ccc     O218210   1.980   3.597   4.499 -0.0400  0.0450 -0.2530
  676ccc     O318211   1.871   3.749   4.726  0.8070 -0.1277  0.0086
  676ccc     O418212   1.700   3.928   4.559 -0.0628 -0.0740 -0.4364
  676ccc     C618213   1.447   3.805   4.461 -0.1544 -0.3570  0.0217
  676ccc     H618214   1.814   3.752   4.805  1.6318 -0.1809  0.6133
  676ccc     H718215   1.623   3.945   4.502 -0.0423 -1.2900 -0.8585
  676ccc     H818216   2.042   3.639   4.561 -0.0538  0.0203 -0.2225
  676ccc     H918217   1.384   3.797   4.550  3.0862 -1.6687  2.3766
  676ccc    H1018218   1.400   3.767   4.369 -1.5668  1.5693 -0.1308
  676ccc     O518219   1.468   3.941   4.430  0.4767  0.0267  0.1172
  676ccc    H1118220   1.386   3.994   4.439 -0.0725 -0.5295 -1.2602
  676ccc     O618221   1.676   3.753   4.352 -0.1223 -0.3840  0.3686
  677ccc     C118222   2.229   3.981   4.899 -0.2132 -0.5978 -0.0521
  677ccc     C218223   2.268   4.109   4.833  1.1491 -0.6467  0.0870
  677ccc     H118224   2.253   3.980   5.006 -4.5610 -1.8878  1.0976
  677ccc     H218225   2.231   4.194   4.892 -1.6667  1.1363 -3.7778
  677ccc     C318226   2.421   4.134   4.835 -0.1668  0.2079  0.6811
  677ccc     C418227   2.485   4.007   4.776 -0.3553 -0.5181 -0.4952
  677ccc     C518228   2.434   3.880   4.854  0.5476 -0.7102 -0.1083
  677ccc     H318229   2.466   3.997   4.669 -1.1972  1.3720 -0.5545
  677ccc     H418230   2.449   4.151   4.939  2.1963 -2.7655  0.6850
  677ccc     H518231   2.448   3.895   4.961 -0.2078 -0.5017 -0.0320
  677ccc     O118232   2.499   3.762   4.807 -0.3254 -0.0926  0.5317
  677ccc     O218233   2.622   4.017   4.797 -0.2056 -0.1144  0.2848
  677ccc     O318234   2.445   4.261   4.765  0.2025  0.1612  0.4416
  677ccc     O418235   2.213   4.097   4.697 -0.1964 -0.6004 -0.0260
  677ccc     C618236   2.075   3.969   4.916  0.1852  0.0324 -1.2504
  677ccc     H618237   2.381   4.329   4.794  0.9457  0.1314  2.3157
  677ccc     H718238   2.132   4.044   4.709 -0.6017  0.2845  1.3519
  677ccc     H818239   2.651   3.980   4.712 -2.0381 -0.2879 -0.3065
  677ccc     H918240   2.032   4.051   4.974 -0.4522 -2.2370  1.7378
  677ccc    H1018241   2.048   3.884   4.979  1.0133  0.5746 -0.1286
  677ccc     O518242   2.016   3.963   4.786  1.0534 -0.1249 -0.2907
  677ccc    H1118243   1.978   3.874   4.786 -1.7833  0.9477 -1.2467
  677ccc     O618244   2.297   3.873   4.843  0.1808  0.5967  0.3475
  678ccc     C118245   3.231   3.547   5.441  0.8604  1.1474  0.3710
  678ccc     C218246   3.196   3.692   5.476 -0.0100  0.7087  0.1258
  678ccc     H118247   3.333   3.531   5.404  0.9127  1.6607  0.2896
  678ccc     H218248   3.267   3.725   5.552 -0.3362  1.8931 -0.0648
  678ccc     C318249   3.192   3.780   5.353 -0.4478 -0.2800  0.6308
  678ccc     C418250   3.101   3.727   5.240 -0.2641  0.5170 -0.0670
  678ccc     C518251   3.133   3.576   5.215  0.3300 -0.3896 -0.3712
  678ccc     H318252   2.994   3.730   5.263 -0.0033 -0.9826  1.5575
  678ccc     H418253   3.291   3.772   5.306 -0.0868 -1.9432  1.5789
  678ccc     H518254   3.234   3.583   5.172  0.9732  0.2508  1.1529
  678ccc     O118255   3.038   3.531   5.125  0.3889 -0.0460 -0.1382
  678ccc     O218256   3.132   3.794   5.121  0.1738 -0.1421 -0.1078
  678ccc     O318257   3.150   3.917   5.394 -0.2105  0.0686  0.3154
  678ccc     O418258   3.078   3.699   5.550  0.4235  0.0505 -0.2748
  678ccc     C618259   3.221   3.452   5.565 -0.1154 -0.5825  0.1106
  678ccc     H618260   3.231   3.968   5.410  1.1210 -2.2779  1.6451
  678ccc     H718261   3.040   3.785   5.524  2.1866  0.7250 -0.7430
  678ccc     H818262   3.096   3.885   5.126  0.5487 -0.0398  0.9462
  678ccc     H918263   3.115   3.436   5.590  0.0684 -0.4012  1.0387
  678ccc    H1018264   3.279   3.492   5.649  0.4531 -0.4352 -0.3469
  678ccc     O518265   3.293   3.332   5.530 -0.6729 -0.3983  0.0782
  678ccc    H1118266   3.240   3.291   5.459 -0.6852  2.4426 -1.7099
  678ccc     O618267   3.146   3.493   5.336  0.3871 -0.1125  0.4213
  679ccc     C118268   1.304   1.776   5.028 -0.5807 -0.3956 -0.2464
  679ccc     C218269   1.366   1.754   4.889 -0.0733 -0.4879  0.6969
  679ccc     H118270   1.280   1.883   5.029 -0.2811 -0.2721  2.4295
  679ccc     H218271   1.281   1.767   4.820 -0.1362  1.2526  1.0540
  679ccc     C318272   1.481   1.849   4.862 -0.1256  0.2900  0.3352
  679ccc     C418273   1.590   1.822   4.973  0.6005 -0.7723 -0.4653
  679ccc     C518274   1.535   1.816   5.115 -0.2786 -0.6227 -0.1073
  679ccc     H318275   1.621   1.721   4.946  0.1805 -1.6200  2.0544
  679ccc     H418276   1.441   1.948   4.885  0.0823 -0.1634  2.9591
  679ccc     H518277   1.507   1.917   5.149 -0.9927 -0.7559 -0.2761
  679ccc     O118278   1.642   1.760   5.186  0.5934 -0.0268 -0.3790
  679ccc     O218279   1.687   1.930   4.954  0.3664 -0.5425 -0.4128
  679ccc     O318280   1.543   1.844   4.726 -0.3230  0.5842  0.1224
  679ccc     O418281   1.419   1.621   4.889 -0.3845 -0.4210  0.1817
  679ccc     C618282   1.181   1.694   5.072 -0.4999  0.4283  0.4692
  679ccc     H618283   1.471   1.852   4.661  1.5932  2.3268 -1.9519
  679ccc     H718284   1.348   1.587   4.947 -1.1272  1.7742  0.6636
  679ccc     H818285   1.701   1.929   4.857  0.1728 -0.7438 -0.4403
  679ccc     H918286   1.096   1.723   5.009 -0.0370  0.2206 -0.2623
  679ccc    H1018287   1.156   1.723   5.175 -1.6086  4.4145 -0.7430
  679ccc     O518288   1.206   1.553   5.057  0.3336 -0.2028  0.1181
  679ccc    H1118289   1.121   1.506   5.056  0.0553  0.2781  0.9257
  679ccc     O618290   1.413   1.744   5.119 -0.2569 -0.5881  0.4605
  680ccc     C118291   2.433   1.141   5.282  0.4599 -0.2562 -0.7126
  680ccc     C218292   2.459   1.193   5.425 -0.4282  0.2971  0.3906
  680ccc     H118293   2.532   1.136   5.235  0.2554 -1.3960 -1.0490
  680ccc     H218294   2.542   1.136   5.469  2.3384  1.8482 -2.4221
  680ccc     C318295   2.518   1.342   5.417  0.3850 -0.0171 -0.2316
  680ccc     C418296   2.418   1.427   5.331  0.9894  0.2723  0.0197
  680ccc     C518297   2.378   1.364   5.199  0.0168 -0.7399  0.0376
  680ccc     H318298   2.324   1.439   5.387 -0.4274 -1.5106 -1.8231
  680ccc     H418299   2.613   1.337   5.362  0.4437 -0.0124 -0.1320
  680ccc     H518300   2.458   1.373   5.124  0.8342  0.9991  1.0815
  680ccc     O118301   2.260   1.436   5.156  0.3385  0.1050  0.0462
  680ccc     O218302   2.482   1.553   5.299  0.2891 -0.4507  0.0587
  680ccc     O318303   2.531   1.406   5.541 -0.0261 -0.3357  0.1199
  680ccc     O418304   2.335   1.194   5.493 -0.0760  0.0893 -0.1790
  680ccc     C618305   2.390   0.992   5.290  0.1426  0.2985  0.2748
  680ccc     H618306   2.442   1.407   5.580  0.5887 -0.1447  1.5811
  680ccc     H718307   2.350   1.202   5.589  2.5601 -1.4071 -0.3932
  680ccc     H818308   2.461   1.602   5.380 -1.9676  0.5469 -1.0454
  680ccc     H918309   2.286   0.977   5.322  0.9766 -0.4423  2.8369
  680ccc    H1018310   2.454   0.945   5.366 -0.2805  0.2001  0.5715
  680ccc     O518311   2.405   0.919   5.174  0.0220  0.1433  0.4052
  680ccc    H1118312   2.335   0.853   5.161 -0.4122  0.6380  0.2017
  680ccc     O618313   2.338   1.223   5.220 -0.7295 -0.4848  0.2104
  681ccc     C118314   1.669   1.430   6.250 -0.0378  0.3547 -0.5221
  681ccc     C218315   1.691   1.309   6.162 -0.3809 -0.3270  0.3360
  681ccc     H118316   1.580   1.485   6.218 -0.0331 -0.0801 -1.3103
  681ccc     H218317   1.600   1.249   6.174 -1.4034  1.1172  0.0828
  681ccc     C318318   1.710   1.349   6.010  0.3771 -0.5216  0.2683
  681ccc     C418319   1.808   1.469   5.987  0.8148 -0.1741 -0.5911
  681ccc     C518320   1.813   1.570   6.111 -0.4391  0.2367  0.4247
  681ccc     H318321   1.910   1.429   5.984  0.6360 -0.7715  0.7705
  681ccc     H418322   1.610   1.376   5.974  0.6734 -3.4853 -3.3798
  681ccc     H518323   1.743   1.651   6.088  2.8805  3.1574 -0.2011
  681ccc     O118324   1.942   1.632   6.122 -0.2796  0.0713  0.2673
  681ccc     O218325   1.764   1.521   5.863 -0.3827  0.0859  0.7183
  681ccc     O318326   1.750   1.239   5.929  0.6533  0.0261  0.9329
  681ccc     O418327   1.815   1.244   6.199  0.1914 -0.4702  0.0143
  681ccc     C618328   1.659   1.392   6.398  0.0624 -0.1571 -0.4714
  681ccc     H618329   1.666   1.207   5.892  0.3494 -0.5957  2.1145
  681ccc     H718330   1.822   1.184   6.123  1.0493  0.7488 -0.9072
  681ccc     H818331   1.786   1.450   5.800  0.0401 -0.0853  1.0546
  681ccc     H918332   1.756   1.361   6.437 -0.8599 -1.4103  0.9208
  681ccc    H1018333   1.594   1.305   6.415  0.0952  0.1420  1.3427
  681ccc     O518334   1.612   1.507   6.471 -0.2841 -0.2262  0.2210
  681ccc    H1118335   1.680   1.575   6.456 -0.5587 -0.0708 -0.3434
  681ccc     O618336   1.781   1.509   6.240 -0.5162 -0.5088  0.1953
  682ccc     C118337   1.615   2.364   5.605 -0.2115 -0.2005  0.1573
  682ccc     C218338   1.563   2.277   5.493  0.1103  0.0737 -0.3379
  682ccc     H118339   1.655   2.450   5.551 -1.9651 -0.0903 -1.0492
  682ccc     H218340   1.501   2.335   5.423  2.0139  2.7332  0.0136
  682ccc     C318341   1.686   2.226   5.414  0.1249 -0.3893  0.4442
  682ccc     C418342   1.778   2.146   5.510  0.0569  0.1600  0.4729
  682ccc     C518343   1.820   2.246   5.621  0.7716 -0.8004 -0.3956
  682ccc     H318344   1.712   2.074   5.561 -1.7883  1.2896 -0.2358
  682ccc     H418345   1.744   2.310   5.375 -0.2428 -0.8427 -1.1708
  682ccc     H518346   1.881   2.328   5.580  0.1772  0.4865  1.1844
  682ccc     O118347   1.891   2.171   5.726 -0.6215  0.0011 -0.8496
  682ccc     O218348   1.889   2.090   5.429 -0.2169  0.1008 -0.0843
  682ccc     O318349   1.638   2.146   5.308 -0.3856 -0.5437  0.1241
  682ccc     O418350   1.484   2.166   5.543  0.2301  0.0317  0.1003
  682ccc     C618351   1.506   2.423   5.694  0.0755  0.6624  0.5750
  682ccc     H618352   1.716   2.112   5.261  0.3660 -0.0216  0.9824
  682ccc     H718353   1.450   2.138   5.456  0.2875 -0.1467  0.1344
  682ccc     H818354   1.957   2.056   5.489 -0.5898 -0.3875  0.0626
  682ccc     H918355   1.465   2.335   5.746 -0.0859  0.9490  0.9395
  682ccc    H1018356   1.421   2.464   5.638 -0.0704  0.7191  0.8306
  682ccc     O518357   1.563   2.510   5.781 -0.4478 -0.1732 -0.3978
  682ccc    H1118358   1.557   2.478   5.872 -0.4393  3.3598  0.9933
  682ccc     O618359   1.708   2.300   5.693 -0.0521 -0.0266 -0.3980
  683ccc     C118360   3.300   1.256   5.336 -0.0054  0.0830 -0.1181
  683ccc     C218361   3.250   1.378   5.418  0.8266 -0.3984 -0.4084
  683ccc     H118362   3.220   1.183   5.344 -0.5446  0.8540  2.6661
  683ccc     H218363   3.165   1.407   5.355  0.3216 -0.3956  0.2774
  683ccc     C318364   3.195   1.333   5.554 -0.1555 -0.5328 -0.3483
  683ccc     C418365   3.302   1.243   5.632 -0.1741 -0.5450 -0.0123
  683ccc     C518366   3.363   1.132   5.537 -0.7889 -1.2235  0.5346
  683ccc     H318367   3.384   1.312   5.656 -0.7929 -0.0828  0.8426
  683ccc     H418368   3.113   1.263   5.535 -0.5607 -0.5506  1.3575
  683ccc     H518369   3.289   1.055   5.512 -0.2872 -1.1292 -1.3545
  683ccc     O118370   3.482   1.084   5.603  0.4462  0.9643  0.2210
  683ccc     O218371   3.249   1.177   5.751  0.1687  0.2043 -0.1723
  683ccc     O318372   3.152   1.442   5.646  0.1452  0.3221  0.3936
  683ccc     O418373   3.358   1.480   5.434  0.6925  0.3400  0.5469
  683ccc     C618374   3.362   1.284   5.193  0.5086  0.0953  0.0390
  683ccc     H618375   3.229   1.495   5.675  1.0232 -0.3299 -0.6262
  683ccc     H718376   3.317   1.559   5.473 -2.0720 -1.4310  1.5048
  683ccc     H818377   3.273   1.240   5.821  0.1797 -2.5122  2.5263
  683ccc     H918378   3.286   1.308   5.118  2.8605  3.9812 -1.3881
  683ccc    H1018379   3.413   1.193   5.158  0.4534 -0.4991  1.4384
  683ccc     O518380   3.445   1.395   5.201  0.6155  0.2570 -0.0477
  683ccc    H1118381   3.414   1.430   5.287  0.2922 -0.7081  0.2438
  683ccc     O618382   3.406   1.192   5.414  0.1452 -0.5161 -0.0107
  684ccc     C118383   3.433   0.993   6.454 -0.0163 -0.3682  0.1373
  684ccc     C218384   3.292   1.050   6.436 -0.4361 -0.3290  0.3524
  684ccc     H118385   3.488   1.053   6.528 -1.8298  0.0276  1.2157
  684ccc     H218386   3.238   1.050   6.532 -0.1834  0.9532  0.5103
  684ccc     C318387   3.290   1.200   6.392  0.1542 -0.2324 -0.5289
  684ccc     C418388   3.385   1.225   6.270  0.3710 -1.1589  0.4634
  684ccc     C518389   3.509   1.138   6.271 -0.4525  0.1398 -0.2707
  684ccc     H318390   3.335   1.187   6.181  1.4755 -1.3614 -0.0885
  684ccc     H418391   3.323   1.264   6.475 -1.9630 -0.0122  0.1999
  684ccc     H518392   3.584   1.187   6.334 -0.8419 -2.2065  2.1734
  684ccc     O118393   3.558   1.138   6.137  0.1287  0.1924  0.4249
  684ccc     O218394   3.410   1.371   6.238 -0.5916 -0.1997  0.0846
  684ccc     O318395   3.150   1.236   6.350  0.3085  0.1546  0.1636
  684ccc     O418396   3.225   0.972   6.342  0.6817  0.0020  0.3903
  684ccc     C618397   3.430   0.845   6.507  0.7791  0.2004 -0.5826
  684ccc     H618398   3.101   1.258   6.431 -1.6284  0.7813 -1.1277
  684ccc     H718399   3.129   0.989   6.353  0.3537  0.6675 -2.5322
  684ccc     H818400   3.474   1.375   6.165 -1.9462 -1.5560 -1.2701
  684ccc     H918401   3.376   0.788   6.430  1.2523 -1.1042  0.0227
  684ccc    H1018402   3.365   0.849   6.595  0.3971  0.5337 -0.8732
  684ccc     O518403   3.559   0.802   6.535  0.0755  0.1036 -0.3195
  684ccc    H1118404   3.555   0.705   6.532  0.2217  0.0919 -0.1450
  684ccc     O618405   3.494   1.004   6.330 -0.0901  0.2375  0.5911
  685ccc     C118406   2.883   1.532   6.024 -0.2670  0.6527 -0.1488
  685ccc     C218407   2.911   1.390   6.085  1.0029 -0.1568 -0.0678
  685ccc     H118408   2.861   1.522   5.917  0.9852 -0.7797 -0.2975
  685ccc     H218409   2.823   1.327   6.069 -0.2384  1.3096  0.7734
  685ccc     C318410   3.039   1.320   6.032 -0.3093 -0.1992 -0.3298
  685ccc     C418411   3.165   1.411   6.029  0.5521 -0.6273  0.0225
  685ccc     C518412   3.124   1.558   5.981  0.2159  0.1868  0.3102
  685ccc     H318413   3.207   1.426   6.129  1.1888  2.0693 -0.5654
  685ccc     H418414   3.027   1.293   5.926  0.9533 -1.6378 -0.1519
  685ccc     H518415   3.098   1.548   5.874 -1.3795  0.1166  0.6832
  685ccc     O118416   3.224   1.654   6.004 -0.0936 -0.4708  0.4759
  685ccc     O218417   3.276   1.359   5.950  0.6988 -0.0796 -0.7874
  685ccc     O318418   3.063   1.195   6.105  0.3164 -0.0696 -0.5723
  685ccc     O418419   2.934   1.412   6.225 -0.3493 -0.4249  0.4124
  685ccc     C618420   2.770   1.602   6.094 -0.0916 -0.6700  0.1374
  685ccc     H618421   3.085   1.227   6.195  0.5467 -1.8504  0.0381
  685ccc     H718422   2.882   1.338   6.262 -0.5595  0.3116  1.6279
  685ccc     H818423   3.351   1.415   5.977 -1.0965  1.3401  1.6144
  685ccc     H918424   2.820   1.654   6.177  2.3313  0.9669 -2.1782
  685ccc    H1018425   2.688   1.535   6.125  0.1480 -0.3792  1.4646
  685ccc     O518426   2.722   1.703   6.006  0.7172  0.1886  0.0369
  685ccc    H1118427   2.779   1.780   6.023 -1.8735  2.6094 -1.3211
  685ccc     O618428   3.004   1.609   6.043  0.0717  0.5152 -0.2102
  686ccc     C118429   3.752   1.857   6.100  0.2135 -0.2853  0.2799
  686ccc     C218430   3.782   1.735   6.184 -0.0345  0.4767 -0.2810
  686ccc     H118431   3.845   1.915   6.099 -0.4056  0.7560  1.1142
  686ccc     H218432   3.877   1.687   6.159  0.7223  1.7967  0.0235
  686ccc     C318433   3.808   1.766   6.340  0.2300  0.2654  0.3856
  686ccc     C418434   3.693   1.864   6.388 -0.8794  0.1393  0.5003
  686ccc     C518435   3.681   1.989   6.295 -0.1662  0.1776 -0.1465
  686ccc     H318436   3.601   1.806   6.377 -0.1216 -0.9810 -0.2252
  686ccc     H418437   3.900   1.825   6.347  1.3777 -1.4622  0.6644
  686ccc     H518438   3.764   2.060   6.297  0.4164 -0.4699 -0.7640
  686ccc     O118439   3.560   2.054   6.322  0.3894  0.3059 -0.0368
  686ccc     O218440   3.714   1.907   6.526 -0.8751 -0.6168  0.3099
  686ccc     O318441   3.816   1.643   6.414 -0.2240  0.0530  0.3932
  686ccc     O418442   3.672   1.649   6.172 -0.2741  0.0133  0.3434
  686ccc     C618443   3.736   1.840   5.952 -0.0101 -0.0001 -0.2918
  686ccc     H618444   3.905   1.613   6.389 -0.7394 -0.9363 -0.3172
  686ccc     H718445   3.690   1.587   6.245 -1.5381 -0.7134  0.0597
  686ccc     H818446   3.641   1.967   6.547 -1.0611 -0.9231  0.5524
  686ccc     H918447   3.817   1.776   5.916 -1.2724 -1.1717 -1.1485
  686ccc    H1018448   3.732   1.934   5.897  1.0110 -0.9336 -2.0723
  686ccc     O518449   3.626   1.756   5.943 -0.3850 -0.5192  0.5114
  686ccc    H1118450   3.625   1.714   6.030 -1.1739  0.0431  0.7785
  686ccc     O618451   3.653   1.944   6.162  0.0745 -0.2556  0.0535
  687ccc     C118452   4.945   3.619   2.409  0.5568  0.2904  0.0244
  687ccc     C218453   4.871   3.563   2.286 -0.6011 -0.7089  0.2426
  687ccc     H118454   5.053   3.610   2.393  0.9131  1.4815  1.5589
  687ccc     H218455   4.925   3.598   2.197 -0.9366 -3.6145 -1.1987
  687ccc     C318456   4.888   3.410   2.280 -0.2380 -0.5852 -1.0267
  687ccc     C418457   4.853   3.347   2.414 -0.1627 -0.3172  0.2035
  687ccc     C518458   4.920   3.415   2.535 -0.7543  0.0175 -0.4763
  687ccc     H318459   4.746   3.364   2.428 -0.2606  1.6819 -2.2532
  687ccc     H418460   4.997   3.406   2.269 -0.0681  0.3345  0.1926
  687ccc     H518461   5.023   3.378   2.538 -0.9735 -0.5602  1.5640
  687ccc     O118462   4.858   3.393   2.666  0.4914  0.2122  0.3019
  687ccc     O218463   4.888   3.208   2.415 -0.0470 -0.0647 -0.1647
  687ccc     O318464   4.814   3.346   2.171  0.2740 -0.6358  0.2851
  687ccc     O418465   4.734   3.604   2.276 -0.7345  0.3088 -0.2930
  687ccc     C618466   4.930   3.768   2.430  0.1453 -0.4101  0.2683
  687ccc     H618467   4.804   3.251   2.187  0.9119 -0.5594  1.2528
  687ccc     H718468   4.709   3.582   2.184  1.4426  0.8866 -1.0818
  687ccc     H818469   4.848   3.174   2.497  0.9597  2.2038  1.3646
  687ccc     H918470   4.970   3.814   2.338  2.3522 -1.4560  0.6329
  687ccc    H1018471   4.990   3.788   2.520  1.1970 -0.7081 -0.3456
  687ccc     O518472   4.797   3.804   2.441 -0.5402  0.0710  0.1439
  687ccc    H1118473   4.752   3.764   2.364 -0.9004  0.1272  0.3235
  687ccc     O618474   4.903   3.552   2.524  0.1615 -1.0205  0.6822
  688ccc     C118475   4.584   4.294   2.801 -0.4288  0.2469  0.3510
  688ccc     C218476   4.633   4.415   2.885  0.4056 -0.3460  0.8333
  688ccc     H118477   4.474   4.295   2.804 -0.4355  0.9375  0.0365
  688ccc     H218478   4.586   4.510   2.856 -0.5998  0.4160  4.4334
  688ccc     C318479   4.606   4.401   3.038 -0.3706 -0.3140 -0.9242
  688ccc     C418480   4.656   4.265   3.091 -0.8366 -0.5057 -0.5337
  688ccc     C518481   4.599   4.150   2.999 -0.8494 -0.7120  0.3638
  688ccc     H318482   4.763   4.266   3.069 -0.7246  0.2178  0.0467
  688ccc     H418483   4.497   4.391   3.045 -0.1995 -0.8605  2.1823
  688ccc     H518484   4.490   4.146   3.012 -0.9516  0.9373  0.3291
  688ccc     O118485   4.656   4.027   3.036  0.0412 -0.5355 -0.4416
  688ccc     O218486   4.631   4.245   3.234 -0.5397  0.4876  0.4052
  688ccc     O318487   4.657   4.515   3.115  0.0104  0.0939  0.6645
  688ccc     O418488   4.777   4.419   2.853  0.2773 -0.6235  0.3769
  688ccc     C618489   4.621   4.306   2.651 -0.4502  0.9226  0.0795
  688ccc     H618490   4.626   4.515   3.207  0.2871  0.0606  0.7580
  688ccc     H718491   4.829   4.481   2.908 -0.3039  0.8479 -0.6877
  688ccc     H818492   4.535   4.240   3.243 -0.3972 -0.1752  1.8708
  688ccc     H918493   4.724   4.272   2.633 -0.5565  0.6628 -0.0450
  688ccc    H1018494   4.612   4.412   2.622 -1.8333  1.0720  0.9521
  688ccc     O518495   4.541   4.217   2.574 -0.7453 -0.3282 -0.1485
  688ccc    H1118496   4.452   4.255   2.588  0.3249  2.3136  0.0843
  688ccc     O618497   4.637   4.168   2.859  0.0551  0.5509  0.2062
  689ccc     C118498   4.829   4.388   3.630  0.3681 -0.0153 -0.0183
  689ccc     C218499   4.731   4.393   3.512  0.2041  0.6536 -0.0942
  689ccc     H118500   4.774   4.428   3.716  2.2954  1.5624  0.5609
  689ccc     H218501   4.639   4.337   3.536 -0.7016  1.5159 -1.3755
  689ccc     C318502   4.690   4.531   3.467  0.8726 -0.9287  0.2575
  689ccc     C418503   4.810   4.630   3.449 -1.0559 -0.1215 -0.6908
  689ccc     C518504   4.914   4.616   3.569  0.4448 -0.3654 -0.4840
  689ccc     H318505   4.868   4.606   3.359  0.8510 -1.2446  0.7666
  689ccc     H418506   4.636   4.573   3.553 -0.1984 -1.8034  0.0344
  689ccc     H518507   4.884   4.663   3.664  2.3833 -1.4827  0.7669
  689ccc     O118508   5.030   4.687   3.523 -0.4919  0.3097 -0.1980
  689ccc     O218509   4.761   4.764   3.446  0.1377 -0.2340 -0.4890
  689ccc     O318510   4.592   4.529   3.353 -0.3300 -0.0175 -0.4025
  689ccc     O418511   4.801   4.326   3.405 -0.3660 -0.0685 -0.0983
  689ccc     C618512   4.878   4.250   3.680  0.3037 -0.3927  0.4086
  689ccc     H618513   4.500   4.530   3.385 -0.4693  0.6546 -0.8167
  689ccc     H718514   4.738   4.300   3.336  0.9126 -2.4292 -0.4897
  689ccc     H818515   4.719   4.768   3.358 -2.1631 -2.1529  0.4028
  689ccc     H918516   4.787   4.199   3.715  0.6175 -1.9102 -0.8473
  689ccc    H1018517   4.960   4.257   3.752  0.9343  1.0061 -0.4145
  689ccc     O518518   4.922   4.171   3.572 -0.6816 -0.1162 -0.4435
  689ccc    H1118519   4.882   4.225   3.501 -2.0694 -1.3984 -0.6976
  689ccc     O618520   4.946   4.475   3.599  0.7320  0.4992  0.3855
  690ccc     C118521   5.934   4.386   3.893 -0.0831 -0.1035  0.6878
  690ccc     C218522   6.019   4.262   3.858 -0.3637  0.4321 -0.0644
  690ccc     H118523   5.914   4.392   4.000 -0.1181  2.9705  0.5906
  690ccc     H218524   6.111   4.265   3.918  0.9711  0.9968 -2.0429
  690ccc     C318525   5.943   4.135   3.906  0.2089 -0.3367  0.0205
  690ccc     C418526   5.797   4.135   3.840  0.2461 -0.4175 -0.2676
  690ccc     C518527   5.727   4.278   3.853 -0.2186 -0.7921  0.2537
  690ccc     H318528   5.816   4.125   3.732  0.9537  1.4142 -0.3459
  690ccc     H418529   5.920   4.160   4.010 -0.6755  0.3244 -0.3185
  690ccc     H518530   5.691   4.283   3.956 -0.3384 -2.5093  0.3229
  690ccc     O118531   5.607   4.280   3.773  0.9119 -0.5811  0.2671
  690ccc     O218532   5.726   4.029   3.897  0.3539 -0.0432 -0.0561
  690ccc     O318533   6.018   4.012   3.895  0.2733 -0.0501  0.4928
  690ccc     O418534   6.046   4.259   3.721 -0.7652 -0.1084 -0.0726
  690ccc     C618535   6.011   4.515   3.863  0.4085  0.3842  0.1935
  690ccc     H618536   6.049   4.014   3.802 -3.1255 -0.3612 -0.8106
  690ccc     H718537   6.042   4.351   3.689  0.6464 -1.1666 -3.7998
  690ccc     H818538   5.673   4.000   3.820  1.5895  1.3148 -1.4772
  690ccc     H918539   6.109   4.500   3.909 -0.2421  1.1183  1.9129
  690ccc    H1018540   5.966   4.602   3.913  0.2236  0.5960 -0.3336
  690ccc     O518541   6.022   4.526   3.719 -0.2342  0.1793 -0.2370
  690ccc    H1118542   5.988   4.616   3.707 -0.3384  0.6325  2.7053
  690ccc     O618543   5.816   4.376   3.818 -0.2320  0.2163  0.5257
  691ccc     C118544   3.462   4.756   4.091  0.1246 -0.6157 -0.0620
  691ccc     C218545   3.505   4.835   4.217 -0.1792 -0.7383  0.0980
  691ccc     H118546   3.434   4.834   4.020  3.0166  1.1622  0.5902
  691ccc     H218547   3.586   4.906   4.198  2.0138 -3.3604 -0.8986
  691ccc     C318548   3.382   4.910   4.277  0.5572 -0.2437  0.7214
  691ccc     C418549   3.263   4.817   4.304  0.3004  0.2611  0.4207
  691ccc     C518550   3.225   4.731   4.178  0.0702  0.3477 -0.5971
  691ccc     H318551   3.279   4.745   4.385  2.1631 -1.2388 -1.1873
  691ccc     H418552   3.354   4.971   4.190 -1.4325 -4.9358 -2.3149
  691ccc     H518553   3.179   4.800   4.106 -1.7830  0.3340  0.4939
  691ccc     O118554   3.142   4.621   4.226  0.6694 -0.0015 -0.4525
  691ccc     O218555   3.147   4.898   4.331 -0.4720  0.3317 -0.3044
  691ccc     O318556   3.428   4.982   4.391  0.4600 -0.0332  0.1290
  691ccc     O418557   3.551   4.733   4.304  0.0836  0.2664  0.2670
  691ccc     C618558   3.577   4.681   4.027  0.1445 -0.5058 -0.2890
  691ccc     H618559   3.374   4.953   4.466  0.7847 -0.6066  0.1462
  691ccc     H718560   3.572   4.766   4.393 -0.6562  0.1880  0.4816
  691ccc     H818561   3.180   4.990   4.330  1.5506 -0.2245  2.4486
  691ccc     H918562   3.591   4.586   4.080  0.3791 -1.1869 -1.5141
  691ccc    H1018563   3.668   4.742   4.028 -1.0427  1.3636 -0.9562
  691ccc     O518564   3.536   4.657   3.892  0.0763 -1.0540  0.0404
  691ccc    H1118565   3.526   4.744   3.850 -1.1970 -1.8098 -1.3543
  691ccc     O618566   3.352   4.676   4.127  0.1661  0.4768  0.0556
  692ccc     C118567   3.300   4.665   4.900  1.0828 -0.3592  0.1380
  692ccc     C218568   3.451   4.661   4.885  0.3064  0.3857 -0.1203
  692ccc     H118569   3.270   4.584   4.967  0.0482  0.6723  0.9726
  692ccc     H218570   3.488   4.673   4.988 -1.5054 -0.9299  0.7468
  692ccc     C318571   3.502   4.535   4.814  0.0433  0.1746  0.0572
  692ccc     C418572   3.426   4.523   4.675  0.3577 -0.9185  0.1568
  692ccc     C518573   3.277   4.534   4.700  0.5550 -0.2971 -0.0874
  692ccc     H318574   3.454   4.608   4.610 -0.1541 -1.8037 -1.2763
  692ccc     H418575   3.481   4.447   4.875  3.4984 -0.9948 -0.1679
  692ccc     H518576   3.236   4.451   4.757  1.7861 -0.1293  1.0904
  692ccc     O118577   3.211   4.541   4.566  0.6106 -0.2904 -0.4761
  692ccc     O218578   3.452   4.401   4.611  0.3331  0.1900 -0.4997
  692ccc     O318579   3.649   4.553   4.794  0.0718  0.5776  0.1181
  692ccc     O418580   3.484   4.779   4.807 -0.1019  0.0795  0.5167
  692ccc     C618581   3.232   4.792   4.969  0.5032  0.7922 -0.2425
  692ccc     H618582   3.673   4.643   4.819 -0.2421  0.0971  2.4239
  692ccc     H718583   3.410   4.837   4.832 -0.3915  0.3156 -0.8017
  692ccc     H818584   3.487   4.411   4.521  2.3985  2.1682  0.4360
  692ccc     H918585   3.283   4.815   5.064 -1.3629  1.6852  0.5911
  692ccc    H1018586   3.127   4.785   4.997  0.8397 -1.1201  0.7393
  692ccc     O518587   3.256   4.902   4.880  0.2249  0.1047  0.3044
  692ccc    H1118588   3.263   4.984   4.933  1.0340  1.2768 -1.4875
  692ccc     O618589   3.249   4.648   4.773 -0.0921  0.3736  0.2283
  693ccc     C118590   3.660   3.318   5.249  0.5130  1.1937  0.2215
  693ccc     C218591   3.653   3.453   5.336  0.8881  0.1550  0.4888
  693ccc     H118592   3.731   3.255   5.304 -0.6874  0.2820  0.7853
  693ccc     H218593   3.625   3.424   5.438  0.3403  0.5037  0.4410
  693ccc     C318594   3.782   3.522   5.345  0.2541 -0.3644  0.1655
  693ccc     C418595   3.853   3.552   5.206  0.6827  0.0370  0.8330
  693ccc     C518596   3.830   3.442   5.102  0.5247  0.6273  0.8887
  693ccc     H318597   3.792   3.639   5.177  1.5614  1.8027  3.8563
  693ccc     H418598   3.850   3.455   5.399  0.3914  0.2004  0.7128
  693ccc     H518599   3.918   3.377   5.109 -0.9572 -1.5217  0.5369
  693ccc     O118600   3.830   3.498   4.975 -0.5122  0.1473 -0.6040
  693ccc     O218601   3.996   3.578   5.216  0.3626 -0.0902 -0.3538
  693ccc     O318602   3.776   3.645   5.421  0.9786 -0.2224  0.3135
  693ccc     O418603   3.557   3.534   5.271  0.8205 -0.0611  0.1044
  693ccc     C618604   3.526   3.236   5.240 -0.0096 -0.6231  0.9515
  693ccc     H618605   3.711   3.631   5.492 -1.6431 -1.3087 -2.0952
  693ccc     H718606   3.498   3.462   5.242  0.6289  0.0235  0.2809
  693ccc     H818607   3.988   3.662   5.265  0.6275 -0.1975 -0.1255
  693ccc     H918608   3.507   3.194   5.339  2.2709 -1.3173  1.1647
  693ccc    H1018609   3.530   3.152   5.169 -0.0800  1.9352 -2.3642
  693ccc     O518610   3.429   3.330   5.195  1.0571 -0.0266 -0.0947
  693ccc    H1118611   3.354   3.268   5.185  1.0933  0.2891 -3.7367
  693ccc     O618612   3.714   3.353   5.120 -0.1194 -0.2828 -0.5615
  694ccc     C118613   3.188   4.155   5.124 -0.2758  0.0110  0.6692
  694ccc     C218614   3.238   4.301   5.092  0.4784  0.1755  0.6683
  694ccc     H118615   3.172   4.141   5.232 -0.8871  1.5126  0.7929
  694ccc     H218616   3.170   4.366   5.149 -1.6609 -2.2464  1.0910
  694ccc     C318617   3.389   4.326   5.134  0.1144 -0.7701 -0.5206
  694ccc     C418618   3.481   4.215   5.087  0.3629 -1.0173 -0.2483
  694ccc     C518619   3.415   4.077   5.120  0.0205  0.5896 -0.0330
  694ccc     H318620   3.495   4.229   4.979 -1.4189  0.2417 -0.3570
  694ccc     H418621   3.379   4.319   5.243  0.4894 -0.2321 -0.4477
  694ccc     H518622   3.418   4.062   5.229  1.3399 -0.6010 -0.2134
  694ccc     O118623   3.500   3.971   5.068 -0.0211 -0.4516  0.2039
  694ccc     O218624   3.613   4.231   5.162  0.4065  0.5933 -0.6324
  694ccc     O318625   3.430   4.461   5.102 -1.0904  0.0317  0.7337
  694ccc     O418626   3.213   4.328   4.948  0.9013 -0.2864  0.3316
  694ccc     C618627   3.049   4.132   5.067  0.2704  0.4992 -0.5743
  694ccc     H618628   3.518   4.478   5.141 -0.5315  0.0660 -0.5056
  694ccc     H718629   3.128   4.375   4.947 -0.0286 -1.9072 -0.0140
  694ccc     H818630   3.660   4.287   5.098  2.6395 -2.0024 -1.4801
  694ccc     H918631   3.057   4.124   4.958 -0.5279 -0.8060 -0.5600
  694ccc    H1018632   3.003   4.230   5.084  0.2594  0.4715 -0.4411
  694ccc     O518633   2.972   4.027   5.130 -0.1231  0.0105 -0.4096
  694ccc    H1118634   2.914   3.996   5.058 -0.1450  0.7228 -0.7135
  694ccc     O618635   3.284   4.065   5.068 -0.3260 -0.5843  0.5251
  695ccc     C118636   4.278   2.332   1.223  0.1845 -0.4298 -0.2512
  695ccc     C218637   4.294   2.213   1.124 -0.8152  1.0910  0.3228
  695ccc     H118638   4.377   2.365   1.257 -0.1753 -1.7946  2.4117
  695ccc     H218639   4.359   2.243   1.040  0.1409  0.1658  0.7153
  695ccc     C318640   4.359   2.095   1.196 -0.3897  0.1709 -0.3814
  695ccc     C418641   4.281   2.065   1.325  0.1414 -0.7362 -0.1112
  695ccc     C518642   4.273   2.192   1.421  0.0225  0.7829  0.1416
  695ccc     H318643   4.175   2.053   1.299  0.5197 -0.2626 -2.0575
  695ccc     H418644   4.461   2.121   1.227 -0.6496  1.5523 -0.6276
  695ccc     H518645   4.376   2.228   1.437  0.3388  1.0170 -2.0319
  695ccc     O118646   4.195   2.169   1.536 -0.0846 -0.7205  0.3023
  695ccc     O218647   4.325   1.944   1.386 -0.6958 -0.4540  0.7742
  695ccc     O318648   4.366   1.987   1.103 -0.0879  0.4994 -0.1706
  695ccc     O418649   4.165   2.181   1.075 -0.7251  0.6220 -0.1411
  695ccc     C618650   4.220   2.461   1.169  0.6648 -0.3631  0.6148
  695ccc     H618651   4.425   1.918   1.136 -0.2917  1.1901  1.7799
  695ccc     H718652   4.188   2.118   1.004  0.1360  0.3262  0.3773
  695ccc     H818653   4.422   1.947   1.392 -0.7016  0.0688  0.6680
  695ccc     H918654   4.119   2.437   1.132  1.5363 -0.3851 -1.9826
  695ccc    H1018655   4.265   2.486   1.073 -0.6308 -0.6221 -0.0960
  695ccc     O518656   4.222   2.568   1.262 -0.1462 -0.1276  0.4926
  695ccc    H1118657   4.177   2.643   1.220 -0.3134 -0.7272 -0.4323
  695ccc     O618658   4.206   2.291   1.345  0.3288 -0.4327 -0.0574
  696ccc     C118659   3.848   1.540   2.286 -0.3702  0.1047  0.0971
  696ccc     C218660   3.892   1.626   2.407 -0.7101 -0.2333 -0.0986
  696ccc     H118661   3.921   1.465   2.252 -2.0005 -1.1068 -0.8926
  696ccc     H218662   3.911   1.560   2.492  1.5659  0.4066 -0.0355
  696ccc     C318663   4.021   1.707   2.360 -0.0631  0.6451  0.0447
  696ccc     C418664   3.985   1.799   2.235  0.1109 -0.0108  0.1727
  696ccc     C518665   3.922   1.714   2.118  0.6991  0.1019  0.7741
  696ccc     H318666   3.916   1.877   2.268 -0.6135 -1.1318  1.4325
  696ccc     H418667   4.092   1.626   2.340  0.5023  1.3794 -1.0399
  696ccc     H518668   4.000   1.654   2.070 -1.1897 -0.7162 -1.4295
  696ccc     O118669   3.856   1.807   2.032 -0.0852  0.1673 -0.0585
  696ccc     O218670   4.100   1.860   2.180 -0.3211 -0.5892 -0.3000
  696ccc     O318671   4.075   1.780   2.473 -0.7345 -0.1736 -0.1022
  696ccc     O418672   3.778   1.700   2.438  0.2191 -0.1862  0.2672
  696ccc     C618673   3.721   1.451   2.313 -0.4818  0.7616  0.4301
  696ccc     H618674   4.143   1.844   2.445  1.5761 -1.4804  2.0257
  696ccc     H718675   3.778   1.729   2.531 -1.7054 -0.9444  0.5371
  696ccc     H818676   4.137   1.910   2.254 -1.2769  0.4355 -0.4839
  696ccc     H918677   3.721   1.392   2.405 -1.7737 -0.6072 -0.3928
  696ccc    H1018678   3.709   1.381   2.229  1.6709 -0.6931  1.2418
  696ccc     O518679   3.614   1.544   2.317 -0.1246  0.0698 -0.3060
  696ccc    H1118680   3.664   1.614   2.363  0.0422  0.9649 -1.7916
  696ccc     O618681   3.819   1.618   2.164  0.1163  0.4181 -0.0620
  697ccc     C118682   3.575   2.972   0.980 -0.7089  0.6758  0.3756
  697ccc     C218683   3.532   3.115   1.017  0.0514  0.9390 -0.5170
  697ccc     H118684   3.482   2.920   0.957  0.9913 -2.2183 -0.5599
  697ccc     H218685   3.453   3.142   0.946  0.0106  1.7949 -0.1560
  697ccc     C318686   3.473   3.123   1.162  0.1145 -0.9029  0.0262
  697ccc     C418687   3.578   3.063   1.257 -0.0151 -0.2572  0.2080
  697ccc     C518688   3.606   2.912   1.223  0.3232  0.3115 -0.6269
  697ccc     H318689   3.672   3.120   1.252 -1.1342  1.8169  1.4480
  697ccc     H418690   3.385   3.058   1.167 -0.1618 -0.6991 -1.5364
  697ccc     H518691   3.512   2.862   1.250  1.8040 -0.9298  2.6886
  697ccc     O118692   3.708   2.851   1.308 -0.3445  0.2630 -0.2029
  697ccc     O218693   3.529   3.078   1.394 -0.1610  0.8491  0.0677
  697ccc     O318694   3.458   3.267   1.187 -0.2750  0.5921  0.1373
  697ccc     O418695   3.645   3.201   1.010 -0.3401 -0.1998  0.1434
  697ccc     C618696   3.656   2.960   0.851 -0.2833 -0.0274  0.1350
  697ccc     H618697   3.383   3.273   1.248  1.6162 -0.3543  2.7170
  697ccc     H718698   3.598   3.270   1.060  0.4984  1.1601 -0.8534
  697ccc     H818699   3.513   3.173   1.403  0.2314  0.9306 -0.0520
  697ccc     H918700   3.743   3.027   0.852  1.7185 -2.1486 -4.5109
  697ccc    H1018701   3.597   2.985   0.762  0.7068 -0.7405 -0.7353
  697ccc     O518702   3.704   2.834   0.831 -0.3824  0.5424  0.4213
  697ccc    H1118703   3.642   2.785   0.887 -1.0799  1.8507  0.8285
  697ccc     O618704   3.652   2.904   1.088 -0.4446 -0.4919  0.3850
  698ccc     C118705   4.357   2.626   2.089 -0.3673 -0.2185  0.4512
  698ccc     C218706   4.463   2.718   2.025  0.1598 -0.1454  0.4473
  698ccc     H118707   4.405   2.528   2.083 -1.3547 -0.6278 -2.1532
  698ccc     H218708   4.554   2.714   2.086 -0.0983 -0.9545  0.7892
  698ccc     C318709   4.494   2.669   1.878  0.0546 -0.4814  0.3934
  698ccc     C418710   4.361   2.646   1.796  0.2077 -0.1462 -0.3375
  698ccc     C518711   4.254   2.566   1.870  0.0386 -0.2467  0.7673
  698ccc     H318712   4.318   2.746   1.782 -0.6301 -0.0735  2.2683
  698ccc     H418713   4.540   2.570   1.887  0.3383 -0.3259  0.6570
  698ccc     H518714   4.288   2.462   1.869  2.2078  0.3974 -0.6195
  698ccc     O118715   4.126   2.574   1.803  0.0880 -0.0350  0.3218
  698ccc     O218716   4.392   2.588   1.666  0.0202 -0.2195  0.1417
  698ccc     O318717   4.589   2.755   1.815 -0.3397  0.3822  0.3199
  698ccc     O418718   4.403   2.849   2.020  0.2274  0.2455 -0.3937
  698ccc     C618719   4.321   2.663   2.240 -0.3085  0.1931  0.1111
  698ccc     H618720   4.540   2.837   1.796 -1.2429 -0.4326 -1.0446
  698ccc     H718721   4.335   2.846   2.089 -2.3123  0.4694 -2.7133
  698ccc     H818722   4.307   2.557   1.630 -0.4064  0.3560  0.6190
  698ccc     H918723   4.403   2.655   2.312  1.7734 -0.2185 -2.1438
  698ccc    H1018724   4.241   2.594   2.269  1.1062 -2.1181 -1.1622
  698ccc     O518725   4.287   2.804   2.239  0.3229  0.4038  0.2139
  698ccc    H1118726   4.318   2.834   2.326  0.3004  0.0324  0.3533
  698ccc     O618727   4.241   2.620   2.005 -0.1739 -0.1022 -0.2568
  699ccc     C118728   2.330   1.866   2.956 -0.3717  0.5172  0.4686
  699ccc     C218729   2.238   1.991   2.968 -0.1077 -0.6811  0.2710
  699ccc     H118730   2.416   1.883   3.022 -1.4386  0.1443  1.9982
  699ccc     H218731   2.221   2.001   3.076  2.6776  0.4538  0.6761
  699ccc     C318732   2.321   2.111   2.908  0.8212  0.7630 -0.3114
  699ccc     C418733   2.351   2.074   2.758 -0.2569 -0.6122 -0.6135
  699ccc     C518734   2.431   1.940   2.739 -0.3430  0.6243  0.3436
  699ccc     H318735   2.251   2.069   2.713  0.5747 -1.6025 -2.4681
  699ccc     H418736   2.409   2.118   2.973 -1.0837  2.8981  2.2922
  699ccc     H518737   2.535   1.948   2.775 -0.4307 -0.0515  0.7687
  699ccc     O118738   2.423   1.895   2.609 -0.5104  0.0514  0.2153
  699ccc     O218739   2.416   2.187   2.700 -0.0634  0.1868  0.2033
  699ccc     O318740   2.241   2.230   2.923  0.0362  0.2125  0.5972
  699ccc     O418741   2.113   1.975   2.902 -0.2086 -0.3436  0.3018
  699ccc     C618742   2.270   1.735   3.019 -0.3589  0.1751 -0.2151
  699ccc     H618743   2.186   2.240   2.843  0.4381  0.3997  0.3414
  699ccc     H718744   2.047   2.038   2.936  0.5999 -0.0630  1.3821
  699ccc     H818745   2.485   2.216   2.762 -0.4146  1.7163 -0.0977
  699ccc     H918746   2.212   1.682   2.942 -1.4248 -3.2941  2.6806
  699ccc    H1018747   2.199   1.750   3.101 -0.7434  0.2210 -0.5501
  699ccc     O518748   2.378   1.652   3.062 -0.0430 -0.3206 -0.1647
  699ccc    H1118749   2.453   1.670   3.001 -1.0904 -1.8655 -2.0095
  699ccc     O618750   2.363   1.836   2.818  0.3919 -0.2039 -0.3540
  700ccc     C118751   2.486   1.301   2.634  0.3033  0.2038 -0.1866
  700ccc     C218752   2.610   1.356   2.706 -0.0072  1.1382 -0.2146
  700ccc     H118753   2.504   1.194   2.618  1.8547  0.6794 -2.0424
  700ccc     H218754   2.606   1.303   2.802  0.1768  2.1612  0.3783
  700ccc     C318755   2.742   1.332   2.633 -0.1865  0.4592  0.7764
  700ccc     C418756   2.723   1.388   2.491 -0.3679 -0.2966  0.2535
  700ccc     C518757   2.591   1.345   2.426  0.3427  0.2264  1.0211
  700ccc     H318758   2.714   1.497   2.499 -0.8530 -0.4093  1.3188
  700ccc     H418759   2.749   1.223   2.620 -0.6433  0.7250 -2.3615
  700ccc     H518760   2.590   1.242   2.387  1.9135  0.0736  1.3131
  700ccc     O118761   2.560   1.438   2.316 -0.2498 -0.5932 -0.0177
  700ccc     O218762   2.826   1.346   2.399  0.3703 -0.4214 -0.3526
  700ccc     O318763   2.855   1.387   2.703 -0.0135 -0.2348  0.2283
  700ccc     O418764   2.589   1.495   2.731  0.3731  0.2900  0.6399
  700ccc     C618765   2.355   1.318   2.710 -0.3561  0.3005 -0.2279
  700ccc     H618766   2.829   1.480   2.696 -1.8209 -0.8102 -1.5603
  700ccc     H718767   2.492   1.492   2.727  0.2007  3.0173  0.5886
  700ccc     H818768   2.893   1.296   2.448  0.2397 -0.0724  0.1860
  700ccc     H918769   2.367   1.264   2.805 -0.5825 -2.5417 -1.7193
  700ccc    H1018770   2.271   1.267   2.662  0.0248  0.4879 -1.1032
  700ccc     O518771   2.329   1.453   2.748 -0.2555  0.8649 -0.4429
  700ccc    H1118772   2.243   1.456   2.794 -1.1370 -0.5146 -1.8818
  700ccc     O618773   2.478   1.360   2.509  0.0098  0.3398 -0.0980
  701ccc     C118774   2.424   2.369   0.829 -0.1067 -0.6050  0.0096
  701ccc     C218775   2.413   2.266   0.711  0.0866 -0.2521 -0.4327
  701ccc     H118776   2.529   2.384   0.860  0.5502 -0.4106 -2.1669
  701ccc     H218777   2.469   2.303   0.624 -0.3472  0.4714 -0.4194
  701ccc     C318778   2.473   2.130   0.770  0.8299  0.2201 -0.2589
  701ccc     C418779   2.390   2.086   0.892  0.3664  0.0755 -0.3013
  701ccc     C518780   2.397   2.189   1.000 -0.0191  0.1143  0.4173
  701ccc     H318781   2.285   2.075   0.860 -0.3706  0.8615  1.6977
  701ccc     H418782   2.576   2.147   0.804  1.5492  0.5918 -2.4379
  701ccc     H518783   2.503   2.197   1.027  0.2364 -0.3916 -0.3894
  701ccc     O118784   2.315   2.166   1.117  0.6100 -0.1395  0.0098
  701ccc     O218785   2.451   1.968   0.947  0.2251  0.2411 -0.0495
  701ccc     O318786   2.469   2.033   0.664  0.1006 -0.1288  0.2115
  701ccc     O418787   2.272   2.255   0.675  0.3514  0.5516 -0.2970
  701ccc     C618788   2.366   2.507   0.796  0.3578 -0.9605 -0.0001
  701ccc     H618789   2.524   1.960   0.695 -1.0224 -1.2870 -0.4412
  701ccc     H718790   2.267   2.185   0.608 -1.6606  2.6941 -2.6247
  701ccc     H818791   2.389   1.895   0.933  0.3056 -0.2153  1.6970
  701ccc     H918792   2.424   2.549   0.713  1.7170 -0.9117  0.9436
  701ccc    H1018793   2.378   2.574   0.881  2.9259 -2.0199  0.5751
  701ccc     O518794   2.225   2.498   0.762 -0.1329  0.3097  0.3148
  701ccc    H1118795   2.236   2.418   0.707  0.2705  1.7053 -1.7247
  701ccc     O618796   2.349   2.319   0.945 -0.1899  0.2547 -0.6318
  702ccc     C118797   2.955   1.972   1.928  0.3087  0.3547 -0.3301
  702ccc     C218798   3.052   2.058   2.013 -0.0386 -0.1402  0.4728
  702ccc     H118799   3.005   1.920   1.845 -1.4009 -1.5806 -0.2282
  702ccc     H218800   3.141   2.003   2.043  1.3319  2.9495  2.5682
  702ccc     C318801   3.099   2.188   1.941 -0.8137  0.3715 -0.1876
  702ccc     C418802   2.968   2.265   1.890 -0.8104  0.1825 -0.4231
  702ccc     C518803   2.870   2.172   1.814 -0.5623  0.2701  0.4698
  702ccc     H318804   2.921   2.304   1.981 -0.7784  1.6127 -1.0056
  702ccc     H418805   3.158   2.159   1.853  1.2360  0.2878  1.1354
  702ccc     H518806   2.904   2.145   1.714 -1.3423 -1.2315  0.5852
  702ccc     O118807   2.746   2.232   1.787 -0.3623 -0.7021 -0.7348
  702ccc     O218808   3.015   2.379   1.814  0.2321 -0.1956  0.2558
  702ccc     O318809   3.180   2.269   2.032  0.1564 -0.0969 -0.6217
  702ccc     O418810   2.989   2.090   2.135  0.0268 -0.1860 -0.1506
  702ccc     C618811   2.902   1.853   2.021  0.2462  0.2257  0.4132
  702ccc     H618812   3.256   2.215   2.060  0.1154 -0.5342 -1.3273
  702ccc     H718813   3.055   2.090   2.206  0.0270  0.6708 -0.1377
  702ccc     H818814   3.079   2.331   1.758  0.3792  0.2561  0.0292
  702ccc     H918815   2.818   1.892   2.080 -2.3043 -0.2300 -2.6472
  702ccc    H1018816   2.978   1.797   2.077 -2.5838 -1.7203  2.6010
  702ccc     O518817   2.850   1.755   1.934  0.3455 -0.0082 -0.1331
  702ccc    H1118818   2.781   1.803   1.886  0.4091 -1.1951 -1.4700
  702ccc     O618819   2.844   2.049   1.891  0.3880  1.0394  0.1176
  703ccc     C118820   9.916   3.589   5.240  0.3395  0.0477  0.5879
  703ccc     C218821   9.800   3.569   5.345  0.0414 -0.3199  0.6093
  703ccc     H118822   9.958   3.687   5.266  1.6983 -0.8844  2.1162
  703ccc     H218823   9.848   3.596   5.440  0.0877  1.9575 -0.0101
  703ccc     C318824   9.679   3.662   5.325  0.2425 -0.4600 -0.0574
  703ccc     C418825   9.631   3.659   5.174 -0.1158  1.1594 -0.1261
  703ccc     C518826   9.748   3.669   5.075  0.4325  0.0361 -0.3192
  703ccc     H318827   9.565   3.572   5.159 -3.5264  3.3835  0.8162
  703ccc     H418828   9.716   3.761   5.354 -2.1969 -0.0933  2.2585
  703ccc     H518829   9.792   3.768   5.056  1.1620  0.6743  3.6652
  703ccc     O118830   9.695   3.636   4.946  0.4914  0.1718  0.0157
  703ccc     O218831   9.540   3.775   5.155  0.3958  0.4409  0.0128
  703ccc     O318832   9.574   3.634   5.419 -0.3101 -0.5847 -0.1693
  703ccc     O418833   9.751   3.434   5.350  0.5838 -0.0636  0.1638
  703ccc     C618834  10.020   3.471   5.254 -0.9443 -0.8009 -0.0533
  703ccc     H618835   9.598   3.543   5.444  1.2667  0.1183  1.0112
  703ccc     H718836   9.829   3.392   5.310  0.0099 -0.8792 -0.1230
  703ccc     H818837   9.498   3.788   5.242  0.9639 -0.7288  0.4764
  703ccc     H918838  10.078   3.483   5.347  0.9303  0.3870 -1.3148
  703ccc    H1018839  10.091   3.475   5.171 -1.6412 -3.3167 -0.8465
  703ccc     O518840   9.961   3.345   5.252 -0.3488 -0.3250  0.3516
  703ccc    H1118841  10.032   3.278   5.250 -0.2453 -0.2212  0.5786
  703ccc     O618842   9.856   3.576   5.106 -0.1989 -0.1642 -0.2944
  704ccc     C118843   9.896   2.940   4.141 -0.1058  0.4347  0.3880
  704ccc     C218844   9.782   2.886   4.047 -0.1262  0.3342  0.4807
  704ccc     H118845   9.961   2.857   4.172  1.2613  0.5870 -1.8278
  704ccc     H218846   9.826   2.814   3.977 -1.0662  0.3461 -0.1505
  704ccc     C318847   9.680   2.808   4.134  0.0203 -0.0161  0.0177
  704ccc     C418848   9.641   2.891   4.262  0.3178  0.0894 -0.4586
  704ccc     C518849   9.760   2.944   4.343 -0.1389  0.8333 -0.0578
  704ccc     H318850   9.591   2.983   4.230  0.5156  1.1302  1.9543
  704ccc     H418851   9.731   2.718   4.169  1.8845 -0.4402 -3.3070
  704ccc     H518852   9.813   2.859   4.387 -1.4217  0.3228  0.5547
  704ccc     O118853   9.723   3.046   4.437  0.7443 -0.3179 -0.2222
  704ccc     O218854   9.552   2.821   4.348 -0.4615 -0.2432 -0.2286
  704ccc     O318855   9.564   2.760   4.051  0.4475 -0.2978  0.0960
  704ccc     O418856   9.720   2.995   3.981  0.2759 -0.2048 -0.9886
  704ccc     C618857  10.005   3.026   4.069  0.3538 -0.8171 -0.1686
  704ccc     H618858   9.504   2.714   4.112  2.1455 -0.0199  2.0909
  704ccc     H718859   9.657   2.959   3.917 -1.2737  0.0112  0.3317
  704ccc     H818860   9.596   2.739   4.375 -1.9403 -0.7070  0.9358
  704ccc     H918861  10.057   2.976   3.986 -1.6137 -0.5288 -1.6624
  704ccc    H1018862  10.081   3.056   4.142  1.4796 -1.6980 -0.9367
  704ccc     O518863   9.944   3.143   4.011 -0.0632 -0.1020  0.3004
  704ccc    H1118864   9.866   3.105   3.968  0.2550  0.5143 -0.8524
  704ccc     O618865   9.847   3.011   4.252 -0.1620 -0.2109 -0.5137
  705ccc     C118866   9.770   4.680   3.491  0.7581 -0.3008 -0.3884
  705ccc     C218867   9.701   4.815   3.548 -0.7086 -1.0383 -0.6328
  705ccc     H118868   9.720   4.640   3.402  2.4829 -0.8374 -1.1645
  705ccc     H218869   9.708   4.893   3.470 -1.8081 -0.7494 -0.4566
  705ccc     C318870   9.548   4.793   3.585  0.7304  0.3398  0.1166
  705ccc     C418871   9.560   4.682   3.697 -0.2095 -0.3507  0.0856
  705ccc     C518872   9.635   4.552   3.649  0.9296 -0.0685 -0.1382
  705ccc     H318873   9.617   4.721   3.782  3.8662 -1.9229 -1.6457
  705ccc     H418874   9.493   4.752   3.500 -1.9936  0.0983  1.8711
  705ccc     H518875   9.574   4.504   3.573  1.7242 -1.8929  0.3130
  705ccc     O118876   9.640   4.460   3.761 -0.5517 -0.7033 -0.7839
  705ccc     O218877   9.423   4.650   3.734  0.8989 -0.3720 -0.1617
  705ccc     O318878   9.488   4.914   3.637 -0.1095 -0.2830  0.5673
  705ccc     O418879   9.774   4.859   3.668  0.0783  0.3009  0.3234
  705ccc     C618880   9.914   4.708   3.461 -0.0479 -0.0612 -0.8704
  705ccc     H618881   9.556   4.976   3.668  0.3617 -1.5487  2.1930
  705ccc     H718882   9.861   4.822   3.649  0.0147 -0.4178  1.2990
  705ccc     H818883   9.373   4.730   3.756  0.5662 -0.6926  0.2817
  705ccc     H918884   9.915   4.798   3.398 -0.5831  0.7806  0.2785
  705ccc    H1018885   9.968   4.627   3.410  0.5872 -0.6977  0.7370
  705ccc     O518886   9.982   4.734   3.585  0.9137 -0.0435  0.5150
  705ccc    H1118887  10.077   4.744   3.566  1.5237 -3.7456  0.7597
  705ccc     O618888   9.764   4.588   3.603 -0.5974  0.1089 -1.2277
  706ccc     C118889  10.144   3.677   3.979  0.8252 -0.3944  0.3091
  706ccc     C218890  10.148   3.555   3.887 -0.5353 -1.0954  0.0076
  706ccc     H118891  10.151   3.646   4.084 -3.5048 -1.6328  0.4081
  706ccc     H218892  10.245   3.503   3.895 -0.4260 -0.8039  0.6862
  706ccc     C318893  10.040   3.453   3.936 -0.9263 -0.0976  0.4311
  706ccc     C418894   9.898   3.520   3.930  0.0458  1.2245 -0.1924
  706ccc     C518895   9.899   3.653   4.014  0.0238 -0.0697 -0.1666
  706ccc     H318896   9.879   3.566   3.833 -0.3605  0.9085 -0.2659
  706ccc     H418897  10.062   3.431   4.041 -0.9723  0.1174  0.4876
  706ccc     H518898   9.903   3.635   4.122 -2.5716 -1.1869 -0.1724
  706ccc     O118899   9.783   3.728   3.976  0.0210  0.0816 -0.0451
  706ccc     O218900   9.802   3.421   3.979  0.3110  0.2988  0.2310
  706ccc     O318901  10.038   3.335   3.859  0.3619  0.1056 -0.9797
  706ccc     O418902  10.129   3.596   3.749  0.0040  0.6648 -0.4797
  706ccc     C618903  10.258   3.778   3.956  0.1881  0.0809  0.2308
  706ccc     H618904  10.000   3.271   3.921  2.1115 -0.1300 -0.0957
  706ccc     H718905  10.190   3.537   3.702 -1.4353 -0.9511 -0.4121
  706ccc     H818906   9.788   3.356   3.908  1.3121 -0.4571  0.7024
  706ccc     H918907  10.348   3.718   3.941 -1.3036 -2.5246  1.1567
  706ccc    H1018908  10.275   3.849   4.038 -0.0173 -0.3726  0.6666
  706ccc     O518909  10.219   3.861   3.842  0.1724  0.2407 -0.4131
  706ccc    H1118910  10.138   3.815   3.815 -1.4725  1.9199  1.4004
  706ccc     O618911  10.011   3.736   3.972  0.0244 -0.5268 -0.0401
  707ccc     C118912   9.475   3.530   2.085 -1.1547 -0.1975  0.4148
  707ccc     C218913   9.416   3.658   2.023  0.2795  0.0997  0.5316
  707ccc     H118914   9.421   3.447   2.038 -1.8876  0.2039  0.5300
  707ccc     H218915   9.420   3.649   1.913 -0.5682  1.2171  0.4033
  707ccc     C318916   9.271   3.676   2.075 -0.1645  0.0733 -0.3237
  707ccc     C418917   9.253   3.637   2.219 -0.0394 -0.3988 -1.1660
  707ccc     C518918   9.314   3.509   2.267 -0.6524  0.1081 -0.5540
  707ccc     H318919   9.310   3.710   2.277 -0.8017  0.0553 -0.9708
  707ccc     H418920   9.197   3.617   2.021 -1.0642  0.9981 -0.1381
  707ccc     H518921   9.258   3.419   2.238 -1.2614  0.3043 -0.0172
  707ccc     O118922   9.311   3.503   2.416  0.4899 -0.3610  0.2855
  707ccc     O218923   9.113   3.640   2.261 -0.0025 -0.0972  0.2473
  707ccc     O318924   9.222   3.810   2.058  0.2885 -0.0473 -0.2940
  707ccc     O418925   9.489   3.775   2.058 -0.1296  0.1783 -0.3460
  707ccc     C618926   9.629   3.521   2.041  0.0516 -0.0695 -0.0400
  707ccc     H618927   9.240   3.827   1.964  0.8550  1.8556  0.1131
  707ccc     H718928   9.426   3.847   2.075 -0.9482 -0.9019  1.5850
  707ccc     H818929   9.098   3.736   2.272  1.5941  0.6383 -2.8509
  707ccc     H918930   9.697   3.580   2.105  0.2702  1.0822 -1.2925
  707ccc    H1018931   9.635   3.566   1.941 -1.1853 -0.9490 -0.5332
  707ccc     O518932   9.676   3.390   2.039  0.8486 -0.0691  0.5867
  707ccc    H1118933   9.760   3.395   1.990 -0.7248  2.5860 -2.2443
  707ccc     O618934   9.454   3.506   2.229 -0.1815 -0.3241  0.0052
  708ccc     C118935   9.557   3.559   3.573  0.5732  0.4568  0.0217
  708ccc     C218936   9.709   3.559   3.575 -0.1403  0.0398  0.4563
  708ccc     H118937   9.519   3.460   3.597  0.8268 -0.2912 -2.3522
  708ccc     H218938   9.752   3.523   3.669  1.9315 -1.7122 -1.0595
  708ccc     C318939   9.755   3.464   3.462  0.6631 -0.7869 -0.1247
  708ccc     C418940   9.691   3.477   3.324  0.5181 -0.2753 -0.3826
  708ccc     C518941   9.542   3.491   3.335  0.1071  0.0802 -0.1536
  708ccc     H318942   9.719   3.566   3.265  1.1679 -1.9514 -2.7220
  708ccc     H418943   9.737   3.364   3.505  0.1532 -0.0999  1.3030
  708ccc     H518944   9.512   3.390   3.365  1.2659 -0.1435  0.3062
  708ccc     O118945   9.482   3.532   3.209 -0.0772 -0.4486  1.0219
  708ccc     O218946   9.728   3.362   3.246 -0.3383 -0.0019  0.2036
  708ccc     O318947   9.898   3.477   3.448 -0.5754  0.1291 -0.2429
  708ccc     O418948   9.749   3.691   3.547 -0.1260  0.1758 -0.0467
  708ccc     C618949   9.518   3.668   3.680 -0.0258 -0.0017  0.1954
  708ccc     H618950   9.947   3.411   3.500 -0.2208  1.0404  0.6063
  708ccc     H718951   9.840   3.683   3.580 -0.4617 -2.0263  0.4906
  708ccc     H818952   9.793   3.308   3.293 -0.1124 -0.2735 -0.4033
  708ccc     H918953   9.536   3.768   3.639 -1.1272 -0.2508 -0.9619
  708ccc    H1018954   9.585   3.649   3.766 -0.5920 -0.0223  0.6371
  708ccc     O518955   9.382   3.655   3.732  0.2131 -0.2443  0.3489
  708ccc    H1118956   9.324   3.695   3.665  0.2139  0.5396  0.8035
  708ccc     O618957   9.519   3.593   3.441  0.4595 -0.3747  0.0379
  709ccc     C118958  10.082   2.920   3.602  0.1011 -0.4381 -0.2160
  709ccc     C218959  10.028   3.057   3.667 -0.1529  1.1756 -0.0752
  709ccc     H118960  10.178   2.947   3.556 -0.2194 -1.0449 -1.2616
  709ccc     H218961  10.096   3.086   3.747  1.6011 -0.7870 -0.7704
  709ccc     C318962  10.025   3.167   3.557 -0.5037 -0.1701 -0.3775
  709ccc     C418963   9.931   3.111   3.445 -0.1862 -0.0927  0.2042
  709ccc     C518964   9.971   2.967   3.383 -0.5914 -0.2372 -0.5448
  709ccc     H318965   9.837   3.088   3.497 -0.4698 -0.2005 -0.3507
  709ccc     H418966  10.131   3.181   3.530 -0.9242  0.3056 -1.8986
  709ccc     H518967  10.060   2.981   3.322  0.6129 -1.2947  0.8962
  709ccc     O118968   9.863   2.908   3.309 -0.5358 -0.5039  0.0165
  709ccc     O218969   9.917   3.204   3.336  0.2494  0.4429  0.1851
  709ccc     O318970   9.977   3.294   3.604  0.1784  0.1428  0.3256
  709ccc     O418971   9.897   3.027   3.719 -0.2045 -0.3782 -0.1332
  709ccc     C618972  10.102   2.805   3.703  0.6443 -0.3121 -0.5691
  709ccc     H618973  10.009   3.310   3.695 -1.3872  0.9675  0.7717
  709ccc     H718974   9.925   2.947   3.767 -0.0190  0.6555  1.5646
  709ccc     H818975  10.006   3.234   3.310 -0.1215  1.4564  0.0254
  709ccc     H918976  10.199   2.818   3.753 -0.8591 -0.5784  2.6647
  709ccc    H1018977  10.111   2.709   3.650  0.1894 -0.1893 -0.8691
  709ccc     O518978  10.000   2.812   3.803 -0.6809  0.2529  0.2389
  709ccc    H1118979  10.015   2.751   3.877 -1.7778  1.3092  1.3763
  709ccc     O618980  10.005   2.876   3.491  0.5672 -0.1518  0.2509
  710ccc     C118981   9.824   2.932   2.224 -0.2850  1.0230 -0.4848
  710ccc     C218982   9.846   3.086   2.220  0.4766 -0.3846 -0.1424
  710ccc     H118983   9.759   2.902   2.141  0.9432 -2.8938 -0.2160
  710ccc     H218984   9.888   3.128   2.128  1.6550 -2.2368 -0.4966
  710ccc     C318985   9.711   3.152   2.254  0.6667 -0.1431 -0.0212
  710ccc     C418986   9.653   3.091   2.387  0.2485 -0.5018 -0.1296
  710ccc     C518987   9.648   2.934   2.389 -0.1659 -0.1474  0.1560
  710ccc     H318988   9.721   3.121   2.468  0.5493  0.4709 -0.7190
  710ccc     H418989   9.640   3.134   2.172  0.8215  2.6137 -0.8646
  710ccc     H518990   9.580   2.895   2.312  1.1564  0.0100 -1.1302
  710ccc     O118991   9.624   2.896   2.528 -0.0478  0.3548 -0.1181
  710ccc     O218992   9.529   3.157   2.414  0.1697 -0.1381 -0.2947
  710ccc     O318993   9.701   3.299   2.274 -0.4149  0.4004  0.3684
  710ccc     O418994   9.951   3.126   2.327 -0.5816 -0.1298 -0.3508
  710ccc     C618995   9.949   2.858   2.185  0.1808  0.1664  0.7043
  710ccc     H618996   9.687   3.337   2.186 -0.3931 -0.0233  0.1777
  710ccc     H718997   9.980   3.215   2.299  0.0442 -0.6285 -1.3403
  710ccc     H818998   9.553   3.240   2.369  0.4569 -0.6991 -1.2005
  710ccc     H918999   9.984   2.899   2.090  2.8872 -3.1561  0.0704
  710ccc    H1019000   9.939   2.751   2.160 -1.5475  0.2107  1.0308
  710ccc     O519001  10.043   2.866   2.286  0.4018 -0.8815  0.4276
  710ccc    H1119002  10.023   2.956   2.319  0.4980 -0.0707 -1.6208
  710ccc     O619003   9.786   2.900   2.358  0.2447  0.0492 -0.0249
  711ccc     C119004   8.777   1.085   3.801  0.0576 -0.5464 -0.0457
  711ccc     C219005   8.646   1.014   3.829 -0.1799 -0.4884 -0.3164
  711ccc     H119006   8.824   1.054   3.707  1.2478 -2.1799  1.0283
  711ccc     H219007   8.591   1.012   3.734  1.2901 -5.2315 -1.3734
  711ccc     C319008   8.675   0.859   3.856 -0.3962  0.4554 -0.9055
  711ccc     C419009   8.770   0.846   3.981 -0.2814 -0.2158 -0.0590
  711ccc     C519010   8.895   0.937   3.958  0.0926  0.0758  0.2977
  711ccc     H319011   8.717   0.876   4.072  1.3441 -0.5909  1.0460
  711ccc     H419012   8.727   0.811   3.772 -0.0445  0.6674 -0.8091
  711ccc     H519013   8.963   0.889   3.885 -0.6172  1.5821 -1.4310
  711ccc     O119014   8.964   0.950   4.081 -0.2915 -0.1963 -0.3317
  711ccc     O219015   8.812   0.713   4.013 -0.0247 -0.3946  0.0514
  711ccc     O319016   8.551   0.788   3.883  0.0957 -0.0335 -0.1801
  711ccc     O419017   8.581   1.083   3.936 -0.5331  0.0466  0.0773
  711ccc     C619018   8.755   1.237   3.771 -0.5193  0.3877 -0.1125
  711ccc     H619019   8.500   0.792   3.801  0.1959  0.3361 -0.2289
  711ccc     H719020   8.491   1.053   3.916 -0.1254 -0.6086 -0.8583
  711ccc     H819021   8.809   0.648   3.940 -1.1261  1.1822 -1.3877
  711ccc     H919022   8.667   1.243   3.707 -0.7457 -0.3820  0.1126
  711ccc    H1019023   8.838   1.285   3.717  0.3206  0.5452  1.2398
  711ccc     O519024   8.733   1.296   3.898 -0.2310 -0.0174  0.1517
  711ccc    H1119025   8.679   1.224   3.934  0.8858 -0.6027  0.6751
  711ccc     O619026   8.866   1.069   3.908  0.5755 -0.6720 -0.2178
  712ccc     C119027   9.530   1.686   4.770 -0.0669 -0.5575 -0.1210
  712ccc     C219028   9.514   1.841   4.807  0.0577 -0.1367 -0.3130
  712ccc     H119029   9.628   1.672   4.723  0.9808  1.1100  1.4354
  712ccc     H219030   9.594   1.875   4.875 -1.9883  2.8636  0.7790
  712ccc     C319031   9.502   1.924   4.673 -0.5229 -0.5349  0.0831
  712ccc     C419032   9.394   1.874   4.584  0.1979  0.0898  0.3434
  712ccc     C519033   9.411   1.723   4.549  1.0147  0.3144  0.2272
  712ccc     H319034   9.311   1.888   4.653 -0.1769 -1.5642  0.2566
  712ccc     H419035   9.599   1.919   4.624  0.6305 -1.0969  2.2851
  712ccc     H519036   9.504   1.716   4.491  0.8176 -1.0815  0.0637
  712ccc     O119037   9.302   1.678   4.472  0.0234 -0.0564 -0.2165
  712ccc     O219038   9.376   1.965   4.470  0.0871 -0.7178  0.3799
  712ccc     O319039   9.481   2.059   4.703 -0.0400 -0.1014 -0.4182
  712ccc     O419040   9.397   1.867   4.883 -0.2322 -0.3994 -0.5255
  712ccc     C619041   9.530   1.594   4.886 -0.1688  0.3776 -0.2407
  712ccc     H619042   9.446   2.092   4.618 -0.5703 -0.7980 -0.4789
  712ccc     H719043   9.369   1.958   4.863 -1.8937 -0.3989  1.4283
  712ccc     H819044   9.378   1.919   4.385  0.7851 -2.0068  1.0730
  712ccc     H919045   9.608   1.629   4.955  0.7643 -2.1027  0.0663
  712ccc    H1019046   9.557   1.489   4.868 -2.6417 -0.4336  0.3105
  712ccc     O519047   9.411   1.611   4.954  0.2461 -0.6402 -0.0231
  712ccc    H1119048   9.396   1.707   4.944 -0.7684 -0.3777  2.8917
  712ccc     O619049   9.419   1.654   4.677 -0.1077  0.4689 -0.3423
  713ccc     C119050   8.719   2.519   5.009 -0.2647  0.1733 -0.2321
  713ccc     C219051   8.779   2.558   4.869  0.3465 -0.6691  0.0451
  713ccc     H119052   8.764   2.583   5.086 -0.3342  0.4719 -0.4373
  713ccc     H219053   8.772   2.667   4.860  1.2115 -0.4675  1.5533
  713ccc     C319054   8.930   2.526   4.863 -0.8532 -0.5042  0.3622
  713ccc     C419055   8.959   2.379   4.909 -0.8754  0.0182 -1.0196
  713ccc     C519056   8.905   2.357   5.049  0.0603  0.0936  0.0635
  713ccc     H319057   8.893   2.324   4.841 -0.0380 -1.9178 -0.3281
  713ccc     H419058   8.988   2.589   4.932  0.5938 -0.5880 -0.7117
  713ccc     H519059   8.953   2.421   5.123 -0.6779  0.5598  0.1500
  713ccc     O119060   8.920   2.216   5.092  0.1021 -0.3813 -0.8428
  713ccc     O219061   9.101   2.352   4.909 -0.8871  0.5973 -0.2541
  713ccc     O319062   9.001   2.554   4.735 -0.3079  0.2085 -0.5318
  713ccc     O419063   8.701   2.502   4.761  0.0495  0.5373  0.0105
  713ccc     C619064   8.568   2.532   5.014  1.0940  0.2527  0.1668
  713ccc     H619065   9.044   2.641   4.743  0.4956 -0.0510 -1.7574
  713ccc     H719066   8.670   2.568   4.696 -2.4235 -0.6202 -0.1240
  713ccc     H819067   9.131   2.389   4.824  1.2689  0.2657  0.2916
  713ccc     H919068   8.508   2.463   4.952  0.8357  1.1589 -0.6092
  713ccc    H1019069   8.555   2.630   4.967  1.1525 -0.0208 -0.4259
  713ccc     O519070   8.529   2.540   5.146  0.4355 -0.3587  0.4187
  713ccc    H1119071   8.517   2.633   5.170 -3.4252 -0.1232 -1.7563
  713ccc     O619072   8.758   2.382   5.052 -0.0520  0.2093  0.1881
  714ccc     C119073   9.912   1.922   5.063  0.1850  0.7908  0.0828
  714ccc     C219074   9.949   1.811   5.168  0.4653  0.0132  0.1134
  714ccc     H119075   9.989   1.999   5.079  0.9149  0.0959 -0.0111
  714ccc     H219076  10.057   1.792   5.164  0.7961  0.7439  3.0712
  714ccc     C319077   9.927   1.860   5.315  0.7397 -0.0275 -0.2995
  714ccc     C419078   9.789   1.922   5.340  0.4844  0.4910 -0.1180
  714ccc     C519079   9.765   2.030   5.233  0.4318 -0.0509 -0.9280
  714ccc     H319080   9.709   1.849   5.327 -0.8383  1.8854 -0.0366
  714ccc     H419081   9.995   1.946   5.320 -0.2116  0.7923 -1.1622
  714ccc     H519082   9.830   2.118   5.241  0.7517 -0.0935 -2.6092
  714ccc     O119083   9.622   2.072   5.238 -0.0647  1.1967 -0.1964
  714ccc     O219084   9.776   1.972   5.478 -0.3808  0.2045 -0.2954
  714ccc     O319085   9.956   1.758   5.419 -0.0186  0.1324  0.5838
  714ccc     O419086   9.859   1.706   5.143 -0.0712  0.0452  0.8718
  714ccc     C619087   9.912   1.877   4.914 -0.5342  0.1936  0.0797
  714ccc     H619088   9.889   1.688   5.413 -1.8001  1.7490 -4.5909
  714ccc     H719089   9.816   1.752   5.068 -1.9246 -0.7327  1.3978
  714ccc     H819090   9.801   1.898   5.535  0.3606 -1.4403 -2.5961
  714ccc     H919091  10.010   1.838   4.883 -0.5723  0.2780 -0.1560
  714ccc    H1019092   9.886   1.961   4.849 -0.6618  1.2670  1.4673
  714ccc     O519093   9.812   1.776   4.894  0.5961  0.0788  0.1756
  714ccc    H1119094   9.843   1.742   4.809 -0.7013 -1.7081  0.3534
  714ccc     O619095   9.780   1.977   5.098 -0.1486  0.0072  0.3434
  715ccc     C119096   9.059   2.586   4.401  0.7373 -0.1252 -0.1175
  715ccc     C219097   9.109   2.729   4.358  0.0149  0.1493 -0.2465
  715ccc     H119098   9.126   2.542   4.476 -1.7482 -1.5091  1.4590
  715ccc     H219099   9.121   2.806   4.434 -0.9509 -0.0231  0.1001
  715ccc     C319100   9.249   2.714   4.296  0.0345 -0.1563  0.0044
  715ccc     C419101   9.263   2.598   4.196  0.1983  0.2119 -0.2401
  715ccc     C519102   9.202   2.466   4.251 -0.0118  0.0683  0.4185
  715ccc     H319103   9.202   2.629   4.110  0.8360  1.3921 -0.2858
  715ccc     H419104   9.314   2.700   4.383  1.2255  0.4614 -0.7585
  715ccc     H519105   9.269   2.429   4.329  0.2304  0.1624  0.2571
  715ccc     O119106   9.192   2.370   4.145 -0.4583  0.1362 -0.4251
  715ccc     O219107   9.403   2.574   4.162 -0.3038 -0.4828  0.2346
  715ccc     O319108   9.298   2.850   4.258 -0.1554 -0.7025 -0.0709
  715ccc     O419109   9.026   2.776   4.249 -0.0496 -0.0467 -0.3869
  715ccc     C619110   8.913   2.580   4.449 -0.1851  0.3475  0.5176
  715ccc     H619111   9.392   2.849   4.280  1.0098  1.7194 -4.0733
  715ccc     H719112   9.008   2.869   4.274 -3.6855  0.2355 -3.1740
  715ccc     H819113   9.408   2.511   4.089 -1.2455 -1.5025  1.0108
  715ccc     H919114   8.839   2.589   4.367  0.6225 -0.0617 -0.2686
  715ccc    H1019115   8.901   2.664   4.519  2.0406  0.7738  0.4589
  715ccc     O519116   8.908   2.457   4.518 -0.0765 -0.1472 -1.1407
  715ccc    H1119117   8.940   2.487   4.605 -0.8140  0.6093 -1.1223
  715ccc     O619118   9.064   2.495   4.292 -0.2480 -0.1676  0.3633
  716ccc     C119119   9.097   2.044   3.286 -0.3082  0.5821 -0.0115
  716ccc     C219120   9.033   1.903   3.249 -0.0628 -0.1927  0.5026
  716ccc     H119121   9.199   2.023   3.319 -0.0240  0.6682 -0.8239
  716ccc     H219122   9.097   1.844   3.183  1.9655  2.6449 -0.2721
  716ccc     C319123   9.016   1.813   3.376 -0.2197 -0.5047 -0.2531
  716ccc     C419124   8.946   1.892   3.492 -0.2887  0.2682 -0.4823
  716ccc     C519125   9.018   2.028   3.514  0.0740 -0.2648 -0.1406
  716ccc     H319126   8.843   1.907   3.459 -1.8006  0.8688  3.8888
  716ccc     H419127   9.117   1.791   3.413  0.9763  3.5450 -0.6562
  716ccc     H519128   9.117   2.005   3.553  0.7078 -1.0701 -2.0745
  716ccc     O119129   8.942   2.103   3.607  0.6478  0.5259  0.3648
  716ccc     O219130   8.951   1.808   3.604 -0.2006 -0.5927  0.1993
  716ccc     O319131   8.949   1.686   3.342 -0.2323 -0.5518 -0.0122
  716ccc     O419132   8.904   1.931   3.199  0.1539 -0.3588 -0.2853
  716ccc     C619133   9.097   2.146   3.173 -0.4428 -0.3656  0.5075
  716ccc     H619134   8.996   1.624   3.401 -2.4576 -1.7115  0.6692
  716ccc     H719135   8.913   1.957   3.105 -0.8999  0.0992 -0.2645
  716ccc     H819136   8.913   1.725   3.570 -2.3387  0.5356 -0.3649
  716ccc     H919137   8.999   2.194   3.168 -0.3362 -0.2917 -1.6422
  716ccc    H1019138   9.117   2.087   3.083  0.0028 -0.0723  0.4135
  716ccc     O519139   9.188   2.255   3.194  0.0655  0.3140  0.2207
  716ccc    H1119140   9.204   2.248   3.290 -0.0565 -0.6424  0.1797
  716ccc     O619141   9.020   2.105   3.394 -0.5295  0.0811  0.1603
  717ccc     C119142   8.699   1.641   3.114 -0.8743  0.5229 -0.7159
  717ccc     C219143   8.640   1.615   3.257  0.2028  0.1853  0.3737
  717ccc     H119144   8.793   1.697   3.125 -0.9106  0.2563  1.4046
  717ccc     H219145   8.717   1.555   3.308 -1.5512 -2.2810  0.3290
  717ccc     C319146   8.609   1.753   3.326  0.6117 -0.2229 -0.0598
  717ccc     C419147   8.526   1.852   3.241 -0.0430 -0.4452 -0.1379
  717ccc     C519148   8.583   1.864   3.103 -0.9101  0.5434  0.5932
  717ccc     H319149   8.428   1.809   3.222  0.3883 -1.7926  0.5851
  717ccc     H419150   8.706   1.802   3.338  0.8749 -0.7042 -0.1903
  717ccc     H519151   8.680   1.915   3.106 -0.9200  0.6286 -0.2945
  717ccc     O119152   8.491   1.938   3.017  0.2168  0.3516 -0.9610
  717ccc     O219153   8.516   1.979   3.298 -0.1919  0.4042 -0.3394
  717ccc     O319154   8.538   1.741   3.456 -0.5164 -0.1569  0.1165
  717ccc     O419155   8.516   1.536   3.244  0.1251 -0.6222 -0.8749
  717ccc     C619156   8.723   1.511   3.033 -0.3481 -0.3526  0.4178
  717ccc     H619157   8.559   1.825   3.500  3.6930 -0.8039 -0.1976
  717ccc     H719158   8.477   1.569   3.327  2.5772 -1.3961  0.7006
  717ccc     H819159   8.439   1.971   3.356  0.3636  3.8272  1.0940
  717ccc     H919160   8.632   1.475   2.983 -2.0637  0.2282  2.9256
  717ccc    H1019161   8.757   1.428   3.096  0.8438 -0.4521 -0.3151
  717ccc     O519162   8.826   1.554   2.944 -0.0664 -0.2086  0.2217
  717ccc    H1119163   8.911   1.553   2.991  1.6404 -0.3174 -2.5970
  717ccc     O619164   8.599   1.722   3.054  0.2516 -0.1726 -0.3471
  718ccc     C119165   8.618   2.650   2.222  0.2604  0.6076  0.1775
  718ccc     C219166   8.582   2.568   2.103  0.7810 -0.6455 -0.3003
  718ccc     H119167   8.722   2.624   2.243 -0.2431 -1.4145  0.3541
  718ccc     H219168   8.653   2.578   2.020  0.3034  2.8154 -0.4438
  718ccc     C319169   8.590   2.419   2.141  0.2513  0.3601  0.1074
  718ccc     C419170   8.519   2.374   2.270  0.8865 -0.5141  0.5400
  718ccc     C519171   8.549   2.477   2.385  0.3419 -0.8587 -0.0960
  718ccc     H319172   8.411   2.374   2.253  0.6693  1.4283  1.6377
  718ccc     H419173   8.699   2.414   2.155  0.6354  3.6527 -0.8120
  718ccc     H519174   8.647   2.456   2.430 -0.1799 -0.4569  1.2688
  718ccc     O119175   8.457   2.463   2.501 -0.7559  0.0069  0.4950
  718ccc     O219176   8.564   2.243   2.307  0.0549 -0.2341  0.3135
  718ccc     O319177   8.558   2.338   2.023 -0.4598 -0.4662 -0.2304
  718ccc     O419178   8.446   2.605   2.071 -0.2493 -0.4616 -0.0718
  718ccc     C619179   8.618   2.802   2.190 -0.4468 -0.0952 -0.1655
  718ccc     H619180   8.607   2.255   2.031 -0.6844 -0.4997  0.9911
  718ccc     H719181   8.437   2.577   1.978  0.2800 -2.5250  0.4623
  718ccc     H819182   8.517   2.225   2.391  0.9515  0.5292  1.0065
  718ccc     H919183   8.522   2.856   2.197  0.3741  1.4107 -0.2414
  718ccc    H1019184   8.655   2.821   2.089  0.2561  1.5311  0.3763
  718ccc     O519185   8.708   2.871   2.273  0.0605 -0.0465 -0.4710
  718ccc    H1119186   8.795   2.840   2.243  0.1125  0.5064 -0.9163
  718ccc     O619187   8.543   2.616   2.342  0.3836  0.0755  0.2803
  719ccc     C119188   7.797   1.558   1.313  0.0837 -0.5014 -0.0897
  719ccc     C219189   7.809   1.406   1.280 -0.6560 -0.8372 -0.5655
  719ccc     H119190   7.780   1.619   1.223  0.7777  2.0399  1.3835
  719ccc     H219191   7.714   1.360   1.249 -0.3182 -1.3797 -0.8174
  719ccc     C319192   7.926   1.368   1.191 -0.4188 -0.3824  0.3108
  719ccc     C419193   8.064   1.433   1.235 -0.2169 -0.5165 -0.5258
  719ccc     C519194   8.045   1.588   1.268  0.1479 -0.2548 -0.0522
  719ccc     H319195   8.094   1.389   1.331 -0.1260  1.0084  0.1837
  719ccc     H419196   7.901   1.402   1.090 -2.4880  0.7360  1.1330
  719ccc     H519197   8.039   1.643   1.173 -1.3418 -1.0134 -0.4297
  719ccc     O119198   8.158   1.632   1.353 -0.3061 -0.3226 -0.2981
  719ccc     O219199   8.157   1.413   1.126  0.0667  0.0165 -0.3648
  719ccc     O319200   7.942   1.224   1.193  0.6481 -0.3911  0.4717
  719ccc     O419201   7.840   1.346   1.411 -0.1808  0.0552 -0.1131
  719ccc     C619202   7.694   1.596   1.421 -0.6323 -0.5270 -0.0942
  719ccc     H619203   8.030   1.200   1.161  0.1887  0.7215 -1.8200
  719ccc     H719204   7.820   1.252   1.392  0.9689 -0.0265 -1.0766
  719ccc     H819205   8.193   1.323   1.118  1.5911  0.6866 -1.8797
  719ccc     H919206   7.733   1.563   1.519  2.5372  3.8864  0.4169
  719ccc    H1019207   7.601   1.542   1.398 -0.1225 -0.8680 -1.4300
  719ccc     O519208   7.660   1.734   1.413  0.4691 -1.2585  0.3027
  719ccc    H1119209   7.637   1.764   1.503 -2.4510 -1.4863 -0.2790
  719ccc     O619210   7.930   1.602   1.354 -0.1366  0.5832 -0.0453
  720ccc     C119211   7.749   2.048   1.918 -0.5383  0.6978 -0.0317
  720ccc     C219212   7.693   1.907   1.872 -0.5061  0.2955 -0.1723
  720ccc     H119213   7.689   2.128   1.874  0.0011  1.2217  0.1703
  720ccc     H219214   7.585   1.921   1.882 -0.2166  4.1436 -0.9815
  720ccc     C319215   7.720   1.888   1.724  0.3252  0.2540  1.0908
  720ccc     C419216   7.868   1.917   1.691 -1.1690 -0.3168  0.2412
  720ccc     C519217   7.911   2.059   1.735 -0.3303  0.4026  0.0584
  720ccc     H319218   7.936   1.851   1.746 -0.4203 -0.3011 -0.6300
  720ccc     H419219   7.657   1.956   1.665 -1.4643 -1.3637  1.0250
  720ccc     H519220   7.862   2.132   1.670  0.3557  2.2132  1.4827
  720ccc     O119221   8.053   2.065   1.717 -0.1506 -0.4423  0.3277
  720ccc     O219222   7.885   1.900   1.553  0.4242 -0.4450  0.1754
  720ccc     O319223   7.677   1.758   1.675  0.3879  0.1172  0.5340
  720ccc     O419224   7.748   1.797   1.943 -0.1407  0.0691  0.3114
  720ccc     C619225   7.731   2.076   2.066  0.1528  0.4896 -0.2370
  720ccc     H619226   7.729   1.688   1.717  0.3736 -0.1801  0.0680
  720ccc     H719227   7.682   1.725   1.945  1.6815 -1.7981 -1.4446
  720ccc     H819228   7.850   1.811   1.536 -0.2056  0.1319 -1.7899
  720ccc     H919229   7.795   2.006   2.122 -0.0833  0.8720  0.5276
  720ccc    H1019230   7.626   2.054   2.090  0.7664 -2.9731 -0.2199
  720ccc     O519231   7.760   2.209   2.093 -0.3696  1.2171 -0.1314
  720ccc    H1119232   7.841   2.233   2.045  0.7344 -0.9991  0.5276
  720ccc     O619233   7.889   2.074   1.878  0.0427 -0.3186 -0.0875
  721ccc     C119234   7.272   1.282   2.598 -0.0900 -1.1085  0.6712
  721ccc     C219235   7.320   1.259   2.747  0.3688 -0.4969  0.4424
  721ccc     H119236   7.190   1.211   2.580  0.7814 -2.4485  1.7675
  721ccc     H219237   7.233   1.263   2.813 -0.3771 -0.4733 -0.5256
  721ccc     C319238   7.359   1.106   2.747  0.5325  0.0452 -0.3472
  721ccc     C419239   7.478   1.084   2.651 -0.4256 -0.0009 -0.1114
  721ccc     C519240   7.450   1.146   2.509 -0.0095  0.2521  0.5940
  721ccc     H319241   7.569   1.130   2.690 -1.3139 -0.3276  2.5382
  721ccc     H419242   7.267   1.058   2.711  0.2386  1.9013 -2.2890
  721ccc     H519243   7.386   1.079   2.450 -0.1438  0.1921  0.8053
  721ccc     O119244   7.579   1.153   2.440  0.2554  0.0184  0.2219
  721ccc     O219245   7.511   0.938   2.644  0.1202  0.0181  0.0321
  721ccc     O319246   7.381   1.063   2.880 -0.5530 -0.0502 -0.1542
  721ccc     O419247   7.434   1.348   2.774  0.3726 -0.0148  0.0958
  721ccc     C619248   7.209   1.423   2.583  1.0418  0.1533  0.1647
  721ccc     H619249   7.379   0.966   2.868  0.5329  0.0242 -1.1448
  721ccc     H719250   7.453   1.333   2.868 -0.8808  1.7870  0.6973
  721ccc     H819251   7.600   0.928   2.607  0.5055  0.5514  0.8122
  721ccc     H919252   7.289   1.496   2.596  1.1175  0.0497  0.2811
  721ccc    H1019253   7.135   1.447   2.661  0.9163 -0.0259  0.1024
  721ccc     O519254   7.158   1.427   2.446 -0.0175  0.0562 -0.5642
  721ccc    H1119255   7.090   1.359   2.433  0.0334 -0.0511 -0.2854
  721ccc     O619256   7.379   1.270   2.501  0.6065 -0.5194  0.6548
  722ccc     C119257   7.879   0.900   1.471  0.1397  0.1326 -0.2112
  722ccc     C219258   7.756   0.956   1.402  0.2782  0.1147  0.2457
  722ccc     H119259   7.881   0.792   1.453  0.0338 -0.1766  1.5113
  722ccc     H219260   7.760   0.913   1.301  0.0748  0.0866  0.2492
  722ccc     C319261   7.622   0.916   1.462 -0.2946 -0.1966 -0.0876
  722ccc     C419262   7.620   0.946   1.614 -0.0412 -0.1063  0.1031
  722ccc     C519263   7.746   0.881   1.679  0.0220  0.2069 -0.0094
  722ccc     H319264   7.603   1.054   1.623 -1.9794 -0.1643 -1.9945
  722ccc     H419265   7.599   0.810   1.446  1.8356 -0.4583 -2.0341
  722ccc     H519266   7.737   0.772   1.680 -0.3315  0.2040 -1.2988
  722ccc     O119267   7.757   0.937   1.812 -0.1558 -0.1772  0.3297
  722ccc     O219268   7.505   0.879   1.667 -0.0493  0.1363 -0.7218
  722ccc     O319269   7.525   0.995   1.393  0.0890 -0.1489  0.1666
  722ccc     O419270   7.754   1.098   1.396  0.6489  0.2399 -0.3539
  722ccc     C619271   8.012   0.957   1.413  0.4369 -0.3006  0.5140
  722ccc     H619272   7.440   0.948   1.397 -1.0573  1.8326  0.5590
  722ccc     H719273   7.664   1.095   1.360  0.0529  1.8092  0.8783
  722ccc     H819274   7.423   0.922   1.637  0.3654  1.6510  0.2286
  722ccc     H919275   8.019   1.060   1.450  2.2314  0.0811 -0.8134
  722ccc    H1019276   8.008   0.955   1.304  2.2585 -2.2651  0.4316
  722ccc     O519277   8.123   0.875   1.447  0.5256 -0.5819  0.0416
  722ccc    H1119278   8.183   0.884   1.371 -1.2631 -0.4155 -1.4399
  722ccc     O619279   7.868   0.916   1.613  0.1221 -0.0670 -0.3981
  723ccc     C119280   7.547   0.565   2.659 -0.6137 -0.7725 -0.6700
  723ccc     C219281   7.591   0.417   2.682  0.6282 -0.0080  0.2455
  723ccc     H119282   7.611   0.608   2.580  0.5178  1.3112  1.2742
  723ccc     H219283   7.594   0.370   2.583  1.8088  1.2322 -0.3424
  723ccc     C319284   7.736   0.408   2.742  0.2946  0.3379 -0.3805
  723ccc     C419285   7.755   0.503   2.867  0.0004  0.5591  0.2573
  723ccc     C519286   7.711   0.645   2.831  0.0319 -0.3825  0.1630
  723ccc     H319287   7.693   0.458   2.946 -2.1428 -0.4943 -1.9179
  723ccc     H419288   7.811   0.454   2.676  1.5903  1.6041  1.8503
  723ccc     H519289   7.775   0.686   2.751 -0.9732  0.3330 -0.2950
  723ccc     O119290   7.713   0.714   2.961 -0.0775  0.5381  0.0964
  723ccc     O219291   7.895   0.508   2.896  0.0648  0.6542  0.4052
  723ccc     O319292   7.764   0.272   2.768  0.1947  0.2380  0.1163
  723ccc     O419293   7.503   0.359   2.775  0.6057 -0.3852 -0.8309
  723ccc     C619294   7.407   0.595   2.621 -0.2467  0.8010 -0.0006
  723ccc     H619295   7.695   0.225   2.818 -0.5788  0.3344 -0.8218
  723ccc     H719296   7.439   0.303   2.728 -0.5262 -1.1772  1.5274
  723ccc     H819297   7.919   0.424   2.939 -1.1500 -0.2177 -0.5578
  723ccc     H919298   7.334   0.586   2.702  0.1238 -1.4168  0.1496
  723ccc    H1019299   7.380   0.516   2.550  0.6931  0.9735 -0.5740
  723ccc     O519300   7.405   0.722   2.555 -0.5777  0.3353  0.2180
  723ccc    H1119301   7.465   0.779   2.607  0.2262  0.2643 -0.6091
  723ccc     O619302   7.577   0.646   2.782 -0.0661  1.0048 -0.0065
  724ccc     C119303   7.816   0.130   3.605  0.1434 -0.3507  0.4481
  724ccc     C219304   7.699   0.152   3.705  0.0087 -0.3614  0.0567
  724ccc     H119305   7.909   0.139   3.662  0.1200  0.8951  0.3217
  724ccc     H219306   7.709   0.079   3.786 -1.2078  0.5228  1.0315
  724ccc     C319307   7.720   0.291   3.774  0.3989 -1.2842  0.4079
  724ccc     C419308   7.739   0.403   3.667 -0.1358 -0.3447 -0.2727
  724ccc     C519309   7.854   0.369   3.569  0.5981 -0.4748  0.0303
  724ccc     H319310   7.652   0.388   3.603 -0.8310 -0.9861  0.7760
  724ccc     H419311   7.813   0.286   3.831 -1.0441 -1.7516  2.8834
  724ccc     H519312   7.958   0.367   3.604  1.3324 -0.1742 -2.0086
  724ccc     O119313   7.866   0.457   3.454 -0.7328  0.5637 -0.4914
  724ccc     O219314   7.750   0.532   3.737  0.2833  0.4026  0.9864
  724ccc     O319315   7.606   0.316   3.855  0.2440 -0.1888 -0.4385
  724ccc     O419316   7.581   0.152   3.636  0.0681  0.9156 -0.2290
  724ccc     C619317   7.806  -0.006   3.528 -0.5405  0.3251 -0.0771
  724ccc     H619318   7.625   0.279   3.943 -0.9780  0.0689 -0.0494
  724ccc     H719319   7.513   0.203   3.684  1.3195  1.9266  0.5293
  724ccc     H819320   7.730   0.526   3.832  0.8740  1.2971  1.1814
  724ccc     H919321   7.783  -0.086   3.599 -1.7430 -0.6969 -1.5520
  724ccc    H1019322   7.897  -0.031   3.473 -0.2375  0.3733  0.3938
  724ccc     O519323   7.688  -0.001   3.450  0.2433  0.1471 -0.3201
  724ccc    H1119324   7.634   0.059   3.503  1.5935  0.5971  0.6080
  724ccc     O619325   7.824   0.240   3.512  0.5619 -0.0487  0.7095
  725ccc     C119326   9.175   1.915   2.670 -0.4948 -0.1926 -0.2295
  725ccc     C219327   9.119   1.968   2.803 -0.2052  0.1397  0.4584
  725ccc     H119328   9.126   1.971   2.590  1.3982  0.0371 -1.2810
  725ccc     H219329   9.139   2.075   2.795 -1.4158  0.4073  0.8674
  725ccc     C319330   8.968   1.933   2.821  0.1225 -0.0938  0.3133
  725ccc     C419331   8.954   1.774   2.802  0.0515 -0.6849  0.8736
  725ccc     C519332   9.009   1.722   2.666 -0.1983 -0.0651 -0.6315
  725ccc     H319333   8.998   1.733   2.893 -0.5654 -2.3890  0.4452
  725ccc     H419334   8.916   1.985   2.739 -1.4848 -0.5844  0.9978
  725ccc     H519335   8.952   1.754   2.579 -2.4628 -1.0155  0.4281
  725ccc     O119336   9.019   1.580   2.662 -0.6382  0.2501 -0.1412
  725ccc     O219337   8.813   1.759   2.796  0.3501  0.8649 -0.0455
  725ccc     O319338   8.919   1.972   2.945  0.0821 -0.1599  0.5119
  725ccc     O419339   9.204   1.916   2.899 -0.3450  0.7692 -0.2823
  725ccc     C619340   9.328   1.925   2.649  0.6201 -0.3633  0.3067
  725ccc     H619341   8.905   2.068   2.935 -0.9258 -0.0833  2.2897
  725ccc     H719342   9.272   1.873   2.844  0.7815  0.7810  1.0485
  725ccc     H819343   8.799   1.680   2.851  0.7737  0.3095 -0.7276
  725ccc     H919344   9.361   2.029   2.652  0.8771 -0.4237 -0.2891
  725ccc    H1019345   9.353   1.899   2.545 -0.1606 -0.7772  0.2147
  725ccc     O519346   9.390   1.845   2.747 -0.1416  0.1840 -0.6207
  725ccc    H1119347   9.413   1.763   2.699 -0.7414 -0.6985  0.5538
  725ccc     O619348   9.147   1.774   2.663  0.3503 -0.2669  0.6759
  726ccc     C119349   9.444   1.471   2.995  1.1683  0.0701  1.1291
  726ccc     C219350   9.412   1.523   3.135  0.1301  0.1635 -0.6522
  726ccc     H119351   9.468   1.557   2.930 -0.3247  0.1793  0.6986
  726ccc     H219352   9.485   1.598   3.166 -0.8160  1.3901 -1.3398
  726ccc     C319353   9.279   1.597   3.137  0.1663  0.2840  0.0596
  726ccc     C419354   9.167   1.507   3.081  0.8340 -0.1256  0.0606
  726ccc     C519355   9.197   1.468   2.934  0.1928  0.8357  0.1013
  726ccc     H319356   9.168   1.416   3.142  1.6972 -0.4023 -0.3533
  726ccc     H419357   9.290   1.684   3.070 -0.9234 -0.0242 -0.5551
  726ccc     H519358   9.209   1.552   2.865 -2.7754  0.9231 -0.4166
  726ccc     O119359   9.101   1.367   2.885  0.1963  0.2299 -0.4738
  726ccc     O219360   9.040   1.580   3.083 -0.3034 -0.8017  0.6710
  726ccc     O319361   9.245   1.642   3.272  0.1239 -0.1450 -0.2628
  726ccc     O419362   9.420   1.417   3.228 -0.3995  1.0437  0.0390
  726ccc     C619363   9.567   1.381   2.985  0.0562 -0.2112  0.0289
  726ccc     H619364   9.315   1.708   3.287 -1.2856  1.6180 -1.0925
  726ccc     H719365   9.447   1.339   3.176 -0.1426  0.2071  1.3759
  726ccc     H819366   9.028   1.597   3.178  1.5716 -0.9815  0.9910
  726ccc     H919367   9.651   1.430   3.036 -0.2847  0.2575  0.1495
  726ccc    H1019368   9.600   1.363   2.882  1.7537  1.2042  0.2757
  726ccc     O519369   9.533   1.255   3.052  0.0147  0.2079  0.0268
  726ccc    H1119370   9.489   1.209   2.979  1.4101 -0.4803 -0.4123
  726ccc     O619371   9.321   1.406   2.937 -1.1299 -0.0218 -0.5896
  727ccc     C119372   8.677   4.664   2.631 -0.0531 -1.1399  0.3414
  727ccc     C219373   8.621   4.722   2.500  1.1474 -0.6252 -0.0551
  727ccc     H119374   8.732   4.573   2.604 -0.4461 -1.4342  0.5133
  727ccc     H219375   8.695   4.733   2.420  0.1296 -0.3298 -0.9819
  727ccc     C319376   8.510   4.624   2.446  0.6520 -0.2387 -0.7944
  727ccc     C419377   8.403   4.581   2.557  0.5217 -0.4167  0.4804
  727ccc     C519378   8.477   4.534   2.683  0.4639 -0.3901 -0.2979
  727ccc     H319379   8.341   4.669   2.578  2.1313  0.1739  3.2565
  727ccc     H419380   8.565   4.533   2.417  0.7127 -0.3105 -0.4517
  727ccc     H519381   8.550   4.453   2.674  0.3218 -0.5113 -0.3525
  727ccc     O119382   8.389   4.517   2.795 -0.0855  0.3451  0.4187
  727ccc     O219383   8.309   4.477   2.499 -0.4037  0.0119  0.3042
  727ccc     O319384   8.449   4.690   2.328  0.0444 -0.5428 -0.1867
  727ccc     O419385   8.564   4.853   2.540  0.6744  0.0657 -0.0356
  727ccc     C619386   8.780   4.759   2.695  0.0821  0.0703 -0.4087
  727ccc     H619387   8.445   4.627   2.255  2.4301  1.2888 -2.0918
  727ccc     H719388   8.621   4.873   2.616 -1.2948  1.9365  1.0605
  727ccc     H819389   8.323   4.394   2.549 -1.0353 -0.6866 -0.6449
  727ccc     H919390   8.872   4.766   2.635 -0.1650  1.6046 -0.6582
  727ccc    H1019391   8.810   4.716   2.791 -0.3630  0.0582 -0.2750
  727ccc     O519392   8.739   4.891   2.725  0.8672 -0.1775 -0.3390
  727ccc    H1119393   8.811   4.933   2.775  0.8477  1.6281 -1.7497
  727ccc     O619394   8.567   4.635   2.719 -0.1286  0.2364 -0.2983
  728ccc     C119395   7.730   5.217   2.950 -1.0492  0.1183  0.3243
  728ccc     C219396   7.823   5.318   3.011  0.0292 -0.2164 -0.3364
  728ccc     H119397   7.656   5.181   3.023  0.4077 -0.3025  1.6474
  728ccc     H219398   7.775   5.415   3.033  2.7372  1.0639  0.3887
  728ccc     C319399   7.889   5.258   3.142  0.2442 -0.4594 -0.3375
  728ccc     C419400   7.946   5.112   3.127  0.0483  0.3547  0.2161
  728ccc     C519401   7.848   5.034   3.043 -0.1597  0.2539 -0.3741
  728ccc     H319402   8.047   5.102   3.086  0.7253  3.6857  0.7315
  728ccc     H419403   7.822   5.253   3.229  3.4636 -1.2169  2.3603
  728ccc     H519404   7.760   5.004   3.100  0.1961 -1.3489 -0.6279
  728ccc     O119405   7.913   4.912   3.004 -0.4670 -0.9629  0.2299
  728ccc     O219406   7.967   5.068   3.259 -0.1306  0.2680  0.2109
  728ccc     O319407   7.991   5.352   3.180 -0.0951 -0.1113  0.5811
  728ccc     O419408   7.920   5.344   2.913 -0.2760 -0.7064  0.2659
  728ccc     C619409   7.660   5.256   2.814 -0.6276  0.2468 -0.3438
  728ccc     H619410   8.027   5.377   3.093 -3.2800  2.1741 -0.2560
  728ccc     H719411   7.868   5.343   2.830 -1.3433  1.7201  0.8236
  728ccc     H819412   8.040   5.121   3.294 -0.2017 -0.3427  1.3139
  728ccc     H919413   7.586   5.334   2.834 -0.2325  0.4735  0.2511
  728ccc    H1019414   7.611   5.167   2.773  1.5333 -1.2855  0.2649
  728ccc     O519415   7.758   5.302   2.732 -0.3980  0.0648  0.1886
  728ccc    H1119416   7.765   5.234   2.663  0.0916  0.9785 -0.6672
  728ccc     O619417   7.806   5.098   2.925  0.7431  0.6958  0.0247
  729ccc     C119418   6.376   3.945   3.073 -0.4390  0.8344 -0.7322
  729ccc     C219419   6.285   3.850   3.157  0.2613  0.3273  0.4848
  729ccc     H119420   6.375   3.904   2.971 -2.7628  0.0737 -0.4575
  729ccc     H219421   6.182   3.840   3.122  0.5288  0.3404 -0.3263
  729ccc     C319422   6.339   3.706   3.158 -0.3480  0.3289 -0.7949
  729ccc     C419423   6.490   3.690   3.195 -0.2081 -0.6031 -0.1108
  729ccc     C519424   6.573   3.806   3.141  0.2925 -0.3271  0.3744
  729ccc     H319425   6.502   3.699   3.304 -0.9404 -1.9075  0.1016
  729ccc     H419426   6.335   3.676   3.052 -0.9610 -3.0049  0.0560
  729ccc     H519427   6.612   3.769   3.045  1.0247 -0.1039  0.5809
  729ccc     O119428   6.681   3.827   3.240  0.4354  0.3695 -0.0448
  729ccc     O219429   6.546   3.568   3.153  0.2165 -0.1016 -0.4358
  729ccc     O319430   6.258   3.628   3.252 -0.2457 -0.0367  0.4089
  729ccc     O419431   6.284   3.894   3.296 -0.0192 -0.0992 -0.3395
  729ccc     C619432   6.333   4.091   3.079  0.6339 -0.7077 -0.2797
  729ccc     H619433   6.236   3.547   3.203  1.4354  1.1187 -2.5002
  729ccc     H719434   6.203   3.868   3.345  0.3789  1.1476  1.0639
  729ccc     H819435   6.526   3.511   3.229  0.0652 -1.9987 -1.8452
  729ccc     H919436   6.358   4.132   3.178 -2.3129  2.6723 -0.7247
  729ccc    H1019437   6.228   4.119   3.061  0.7452 -0.6733 -0.8823
  729ccc     O519438   6.415   4.158   2.980  0.0928 -0.1592  0.0188
  729ccc    H1119439   6.496   4.108   2.959 -0.6371 -0.4613 -2.4801
  729ccc     O619440   6.502   3.934   3.126  0.3750 -0.5837 -0.2890
  730ccc     C119441   6.545   4.381   3.590  0.5890 -0.2916  0.5132
  730ccc     C219442   6.395   4.331   3.563 -0.1045  1.0515  0.0872
  730ccc     H119443   6.589   4.414   3.495  0.0077  2.8103  1.2106
  730ccc     H219444   6.346   4.417   3.517 -0.9243 -0.5226 -2.1505
  730ccc     C319445   6.388   4.204   3.472 -0.4846 -0.8434 -0.0140
  730ccc     C419446   6.490   4.100   3.530  0.2684  0.3058  0.0038
  730ccc     C519447   6.636   4.155   3.560  0.8763 -1.0063  0.3425
  730ccc     H319448   6.449   4.077   3.629  0.8859  0.0558  0.2089
  730ccc     H419449   6.423   4.235   3.373 -3.1751  1.1300 -0.4353
  730ccc     H519450   6.694   4.174   3.469  0.6197 -0.7956  0.2242
  730ccc     O119451   6.699   4.053   3.642 -0.3626  0.0826  0.2514
  730ccc     O219452   6.491   3.983   3.462 -0.6264  0.0100  0.8194
  730ccc     O319453   6.250   4.155   3.456 -0.2843 -0.0668 -0.4936
  730ccc     O419454   6.329   4.305   3.691  0.1195  0.4387  0.4496
  730ccc     C619455   6.552   4.508   3.675  0.2405  0.8621 -0.6488
  730ccc     H619456   6.206   4.201   3.382 -0.3671  0.0133 -0.3960
  730ccc     H719457   6.242   4.265   3.673  0.4270 -0.2855  0.5286
  730ccc     H819458   6.414   3.986   3.402 -0.0033  3.2352  0.0240
  730ccc     H919459   6.500   4.593   3.629  1.2738  1.5692 -0.5551
  730ccc    H1019460   6.657   4.534   3.693  0.2275  0.2390  0.4088
  730ccc     O519461   6.491   4.476   3.793 -0.1758 -0.3426  0.0611
  730ccc    H1119462   6.422   4.420   3.752  0.1645 -0.0626 -0.9388
  730ccc     O619463   6.630   4.275   3.639 -0.5430  0.2621  0.0936
  731ccc     C119464   7.410   3.333   1.233 -0.3993 -0.1639  0.0886
  731ccc     C219465   7.319   3.208   1.239  0.0990 -0.1118 -0.2135
  731ccc     H119466   7.417   3.367   1.129 -0.2013  0.5515  0.3309
  731ccc     H219467   7.220   3.225   1.195 -0.2369  1.5796  1.0985
  731ccc     C319468   7.384   3.090   1.166  0.3426  0.0648  0.0352
  731ccc     C419469   7.521   3.064   1.225  0.1294 -0.5580 -0.0110
  731ccc     C519470   7.612   3.191   1.224 -0.1263  0.6377  0.3891
  731ccc     H319471   7.521   3.048   1.333  1.7796  1.9823  0.4693
  731ccc     H419472   7.404   3.114   1.061  0.4053  0.4309  0.1285
  731ccc     H519473   7.633   3.228   1.123 -0.4665  0.7450  0.3570
  731ccc     O119474   7.733   3.168   1.302 -0.1809  0.2192  0.2872
  731ccc     O219475   7.583   2.956   1.155  0.2418 -0.1456 -0.0680
  731ccc     O319476   7.299   2.977   1.162 -0.1772  0.7612  0.4830
  731ccc     O419477   7.314   3.180   1.381 -0.2092 -0.2560 -0.6084
  731ccc     C619478   7.360   3.462   1.312 -0.3861  0.1468  0.6022
  731ccc     H619479   7.362   2.905   1.143 -0.7253  0.2288  0.6587
  731ccc     H719480   7.239   3.120   1.397 -1.1861  1.6412  3.1632
  731ccc     H819481   7.634   2.915   1.227 -2.2845  1.6587  3.0052
  731ccc     H919482   7.391   3.469   1.417 -0.6233 -0.3604  0.7071
  731ccc    H1019483   7.251   3.458   1.304 -0.3622  2.4720 -2.2456
  731ccc     O519484   7.406   3.577   1.237 -0.2629  0.0657 -0.0704
  731ccc    H1119485   7.352   3.648   1.275 -0.9458  0.3471 -1.4984
  731ccc     O619486   7.542   3.308   1.283  0.5311 -0.2640 -0.3489
  732ccc     C119487   8.244   2.817   1.814 -0.5464  0.2783  0.0946
  732ccc     C219488   8.147   2.697   1.785 -0.0015  0.4502  0.2576
  732ccc     H119489   8.310   2.791   1.898 -3.2370 -0.9332  1.9852
  732ccc     H219490   8.201   2.612   1.740 -1.3490  0.1801 -0.9255
  732ccc     C319491   8.091   2.653   1.923 -1.0789 -0.2578  0.4906
  732ccc     C419492   8.000   2.765   1.978  0.5499 -0.6307 -0.5031
  732ccc     C519493   8.088   2.897   1.985  1.1325  0.3575  0.1914
  732ccc     H319494   7.912   2.772   1.912  0.1324  1.1195  0.1904
  732ccc     H419495   8.173   2.636   1.994 -0.3370 -0.2028 -0.3346
  732ccc     H519496   8.161   2.887   2.066 -0.7762 -1.8717  1.7939
  732ccc     O119497   7.992   3.004   1.996 -0.4028 -0.0737  0.4283
  732ccc     O219498   7.968   2.724   2.113 -0.0166 -0.0411  0.8725
  732ccc     O319499   8.024   2.525   1.909 -0.4217 -0.1047 -0.6587
  732ccc     O419500   8.041   2.742   1.695 -0.2532  0.2658 -0.6244
  732ccc     C619501   8.310   2.858   1.682 -0.4051  0.3961 -0.1320
  732ccc     H619502   7.942   2.541   1.859 -0.7385 -2.0249 -0.8671
  732ccc     H719503   8.037   2.672   1.627  0.8394  1.1334 -1.6014
  732ccc     H819504   7.906   2.649   2.103 -1.0110  1.0381 -1.8651
  732ccc     H919505   8.230   2.885   1.612 -2.6213 -3.3017  0.7334
  732ccc    H1019506   8.368   2.772   1.644  1.2703 -0.3630  3.6779
  732ccc     O519507   8.404   2.967   1.707 -0.5061  0.1791  0.1045
  732ccc    H1119508   8.348   3.037   1.746  2.3455  3.4720 -1.1293
  732ccc     O619509   8.156   2.923   1.862 -0.1075 -0.1602  0.1353
  733ccc     C119510   6.375   2.622   2.196 -0.6195  0.2409  0.0234
  733ccc     C219511   6.372   2.695   2.058 -0.3430 -0.2458  0.5902
  733ccc     H119512   6.333   2.683   2.276 -0.8555 -1.4189  1.2205
  733ccc     H219513   6.274   2.741   2.044  0.9744  2.3308 -0.8265
  733ccc     C319514   6.477   2.803   2.045 -0.5145  0.2487 -0.1848
  733ccc     C419515   6.622   2.740   2.075 -0.3706 -0.3056 -0.3561
  733ccc     C519516   6.616   2.681   2.219 -0.4528  0.0481 -0.1337
  733ccc     H319517   6.623   2.654   2.006 -0.7683 -1.1674  0.6758
  733ccc     H419518   6.469   2.884   2.119  0.8194 -2.0704  2.7305
  733ccc     H519519   6.597   2.753   2.299  1.0729 -0.4466  0.7067
  733ccc     O119520   6.735   2.616   2.246  0.2990  0.2369  0.1887
  733ccc     O219521   6.732   2.838   2.068 -0.5839  0.2205  0.1716
  733ccc     O319522   6.475   2.856   1.910  0.0387 -0.1614 -0.0305
  733ccc     O419523   6.372   2.593   1.954  0.0959  0.0770  0.0002
  733ccc     C619524   6.295   2.487   2.193  0.0997  0.6623 -0.1438
  733ccc     H619525   6.386   2.893   1.900 -0.7392 -1.6796  0.8823
  733ccc     H719526   6.357   2.632   1.866  0.8916 -1.6258 -0.9398
  733ccc     H819527   6.750   2.843   1.973  0.4151 -3.1807  0.0397
  733ccc     H919528   6.356   2.410   2.145  1.3205  0.6675  1.2987
  733ccc    H1019529   6.197   2.494   2.146 -1.7835  0.3678  3.3669
  733ccc     O519530   6.271   2.445   2.323  0.0044 -0.2199 -0.3212
  733ccc    H1119531   6.350   2.401   2.359  1.1441  0.9050 -1.3273
  733ccc     O619532   6.512   2.581   2.229  0.2184  0.7100 -0.2114
  734ccc     C119533   6.794   2.326   1.599 -1.0148 -0.0524 -0.3308
  734ccc     C219534   6.647   2.305   1.609  0.3290  0.1134  0.3705
  734ccc     H119535   6.843   2.230   1.619 -1.8444 -0.9890 -2.4891
  734ccc     H219536   6.615   2.219   1.550  1.3566  0.0889 -0.1812
  734ccc     C319537   6.598   2.291   1.755 -0.1525 -0.2834  0.1057
  734ccc     C419538   6.647   2.406   1.847 -0.0625  1.0099  0.6694
  734ccc     C519539   6.801   2.400   1.838 -0.1577  0.1153  0.1471
  734ccc     H319540   6.608   2.492   1.792 -0.8034  0.1144 -0.2702
  734ccc     H419541   6.647   2.196   1.782  1.5774 -0.0249 -1.8280
  734ccc     H519542   6.855   2.312   1.873  0.6046 -0.1555 -1.6050
  734ccc     O119543   6.849   2.508   1.910 -0.0460  0.0133 -0.2012
  734ccc     O219544   6.585   2.386   1.976 -0.0854 -0.6519 -0.0056
  734ccc     O319545   6.453   2.285   1.771  0.0432 -0.3012  0.1394
  734ccc     O419546   6.591   2.422   1.551 -0.0327  0.9268 -0.1840
  734ccc     C619547   6.855   2.354   1.461 -0.3078  0.6344 -0.3216
  734ccc     H619548   6.409   2.307   1.687 -0.5914  0.3163  0.6243
  734ccc     H719549   6.664   2.446   1.491  1.3008 -1.9601  0.1269
  734ccc     H819550   6.491   2.401   1.959 -0.1998 -0.3165  0.8682
  734ccc     H919551   6.841   2.268   1.393  0.9481 -0.8127  1.1567
  734ccc    H1019552   6.964   2.360   1.478 -0.4141 -0.5329  0.9412
  734ccc     O519553   6.805   2.476   1.412 -0.2016  0.2856  0.1038
  734ccc    H1119554   6.794   2.460   1.317  0.6904 -0.0794  0.0515
  734ccc     O619555   6.837   2.428   1.697  0.2599 -0.0048  0.2017
  735ccc     C119556   7.515   2.250   6.876  0.8828  0.4167  0.1350
  735ccc     C219557   7.640   2.308   6.944  0.0064 -0.1499 -0.8794
  735ccc     H119558   7.450   2.207   6.953  2.0183 -1.3277  0.1951
  735ccc     H219559   7.608   2.386   7.014  0.3407  0.5337 -1.4781
  735ccc     C319560   7.717   2.195   7.027 -0.0399 -0.1674  0.0504
  735ccc     C419561   7.742   2.078   6.927 -0.1649 -0.1209  0.3103
  735ccc     C519562   7.612   2.019   6.862  0.7633 -0.3125  0.3946
  735ccc     H319563   7.802   2.111   6.842 -1.2086 -2.2135 -1.3329
  735ccc     H419564   7.647   2.157   7.102 -0.2246  0.2317  0.0813
  735ccc     H519565   7.542   1.979   6.936  0.8802 -2.7300 -0.7073
  735ccc     O119566   7.648   1.917   6.765 -0.1366 -0.0374 -0.3171
  735ccc     O219567   7.819   1.979   6.994  0.4836  0.7516  0.2805
  735ccc     O319568   7.838   2.245   7.081  0.3540  0.6701  0.5477
  735ccc     O419569   7.723   2.363   6.841  0.3781 -0.1223 -0.7967
  735ccc     C619570   7.426   2.344   6.789  0.4916  0.4709  0.0352
  735ccc     H619571   7.822   2.306   7.156 -1.4651  0.1029  0.6613
  735ccc     H719572   7.769   2.433   6.890  1.9792 -2.4205  1.2097
  735ccc     H819573   7.862   2.018   7.073  0.7945 -0.9443  0.9927
  735ccc     H919574   7.467   2.355   6.688 -0.5905  0.0474 -0.4622
  735ccc    H1019575   7.435   2.448   6.824 -0.3969  0.2047  1.1099
  735ccc     O519576   7.292   2.307   6.816 -0.2653  0.2585 -0.5964
  735ccc    H1119577   7.242   2.379   6.773 -0.4935 -0.5138 -1.6733
  735ccc     O619578   7.554   2.132   6.795 -0.3004  0.0080  0.5977
  736ccc     C119579   8.133   1.268   6.384 -0.0346 -0.2776  0.4491
  736ccc     C219580   8.169   1.122   6.361  0.1610  0.3358 -0.0584
  736ccc     H119581   8.219   1.321   6.427 -0.5639  1.9417 -1.0379
  736ccc     H219582   8.256   1.125   6.294 -0.3972  0.2791 -0.8069
  736ccc     C319583   8.197   1.052   6.499  0.1443  0.3548 -0.4166
  736ccc     C419584   8.083   1.072   6.608  0.6955  0.1954 -0.1289
  736ccc     C519585   8.028   1.221   6.606  0.5928 -0.3058 -0.0891
  736ccc     H319586   8.005   1.003   6.573  2.4445 -1.1099 -1.6633
  736ccc     H419587   8.283   1.113   6.529 -0.2670  0.6056  0.2764
  736ccc     H519588   8.083   1.288   6.673 -0.3841  0.6921 -0.2702
  736ccc     O119589   7.887   1.213   6.666  0.3713  0.1510 -0.1913
  736ccc     O219590   8.125   1.026   6.742 -0.7991  0.4036 -0.0201
  736ccc     O319591   8.236   0.913   6.476  0.1568  0.7246  0.1204
  736ccc     O419592   8.061   1.059   6.293  0.3588  0.0744  0.0688
  736ccc     C619593   8.114   1.345   6.258  0.0637  0.1039  0.0624
  736ccc     H619594   8.317   0.910   6.422  0.1606 -0.6556  0.1682
  736ccc     H719595   8.092   0.972   6.261 -0.3155  0.3862 -1.5152
  736ccc     H819596   8.202   1.080   6.765 -0.8856 -0.4758  2.6262
  736ccc     H919597   8.202   1.325   6.196 -0.7976  0.5597 -1.3554
  736ccc    H1019598   8.106   1.454   6.273 -1.8582 -0.3865  3.8269
  736ccc     O519599   8.009   1.291   6.179 -0.2007 -0.3531 -0.2440
  736ccc    H1119600   8.013   1.202   6.220  0.7649  0.3093  1.1769
  736ccc     O619601   8.021   1.272   6.473  0.1052  0.8649  0.5847
  737ccc     C119602   8.234   2.438   6.917 -0.9093  0.5569  0.4432
  737ccc     C219603   8.089   2.426   6.966  0.3074  0.2964 -0.2556
  737ccc     H119604   8.279   2.532   6.951  1.5113 -0.2210 -0.3824
  737ccc     H219605   8.094   2.434   7.076  0.7089  0.7505 -0.3056
  737ccc     C319606   8.002   2.548   6.916 -0.4802  0.0336 -0.4986
  737ccc     C419607   8.002   2.545   6.765  0.5585  0.6650  1.0544
  737ccc     C519608   8.147   2.538   6.711  0.1853  0.0372  0.9081
  737ccc     H319609   7.941   2.457   6.739  1.0485  1.2855 -2.8156
  737ccc     H419610   8.056   2.643   6.928 -0.6395 -0.1379  2.2469
  737ccc     H519611   8.195   2.635   6.729  3.2727 -0.6147 -2.6145
  737ccc     O119612   8.146   2.516   6.566 -0.6546  0.5828 -0.2652
  737ccc     O219613   7.935   2.664   6.717 -0.3205 -0.5732  0.6423
  737ccc     O319614   7.878   2.544   6.974  0.1260  0.1241 -1.1688
  737ccc     O419615   8.038   2.293   6.939 -0.4565 -0.0095 -0.2810
  737ccc     C619616   8.330   2.321   6.964  0.1776 -0.1712  0.4351
  737ccc     H619617   7.880   2.587   7.060 -0.5500 -2.4748  0.2586
  737ccc     H719618   7.961   2.286   6.997  0.3171 -1.4947  0.6335
  737ccc     H819619   7.858   2.687   6.771  0.3259 -0.2791  1.4684
  737ccc     H919620   8.304   2.227   6.914 -0.2880 -1.3062  2.6863
  737ccc    H1019621   8.317   2.311   7.072 -1.3198  1.7746  0.4850
  737ccc     O519622   8.461   2.363   6.946  0.6724  0.3489 -0.9200
  737ccc    H1119623   8.475   2.350   6.850 -2.2866 -2.9232 -1.1025
  737ccc     O619624   8.236   2.444   6.774  0.2831  0.1249 -0.0751
  738ccc     C119625   8.675   2.501   6.557  0.1505 -0.0435 -0.7095
  738ccc     C219626   8.613   2.634   6.613 -0.5035  0.0115  0.1945
  738ccc     H119627   8.782   2.522   6.544  0.6374 -0.0881  2.3773
  738ccc     H219628   8.673   2.674   6.695  0.8015 -0.1905 -0.6190
  738ccc     C319629   8.601   2.747   6.504  0.3591 -0.0587 -0.8516
  738ccc     C419630   8.545   2.701   6.373  0.4384  0.4948  0.2335
  738ccc     C519631   8.601   2.566   6.327  0.6177  0.3678 -0.1557
  738ccc     H319632   8.440   2.679   6.393  0.5660  0.1993  0.5966
  738ccc     H419633   8.700   2.793   6.491  0.5815 -0.6156 -1.1973
  738ccc     H519634   8.697   2.572   6.274  1.2600  0.0381  0.9323
  738ccc     O119635   8.507   2.515   6.229 -0.4629 -0.4277  0.5181
  738ccc     O219636   8.560   2.814   6.276 -0.6597 -0.6336  0.1152
  738ccc     O319637   8.517   2.850   6.563  0.4589  0.0761  0.1335
  738ccc     O419638   8.484   2.604   6.660 -0.3314  0.0736  0.4569
  738ccc     C619639   8.670   2.389   6.663 -0.6778  0.0079 -0.0891
  738ccc     H619640   8.426   2.842   6.528  0.8287 -1.1132 -0.6146
  738ccc     H719641   8.458   2.682   6.712  1.3463  1.9044 -1.2340
  738ccc     H819642   8.491   2.879   6.299 -2.0088 -1.3357 -1.7240
  738ccc     H919643   8.725   2.409   6.756 -0.9395 -0.9266  0.2729
  738ccc    H1019644   8.726   2.308   6.614 -0.2583  0.4227 -0.2985
  738ccc     O519645   8.538   2.346   6.688  0.0766  0.6517  0.0267
  738ccc    H1119646   8.495   2.430   6.666 -1.9805 -0.1626  0.6865
  738ccc     O619647   8.606   2.470   6.433 -0.3715 -0.1537  0.4602
  739ccc     C119648   8.678   4.018   6.194 -0.1917 -0.3009  0.0660
  739ccc     C219649   8.796   3.934   6.202  0.2075  0.2207  0.2303
  739ccc     H119650   8.674   4.067   6.292  0.6798  0.0620 -0.0712
  739ccc     H219651   8.879   4.003   6.223 -0.1793  0.0951  2.4120
  739ccc     C319652   8.782   3.829   6.317  0.1658  0.0078  0.0267
  739ccc     C419653   8.643   3.758   6.290  0.3303  0.2401 -0.0070
  739ccc     C519654   8.519   3.858   6.275  0.0397  0.3964 -0.0813
  739ccc     H319655   8.652   3.697   6.199  2.7868 -2.3573  1.8201
  739ccc     H419656   8.763   3.869   6.417 -0.9558 -2.3645  0.8407
  739ccc     H519657   8.499   3.910   6.370  0.3158  0.4213 -0.0359
  739ccc     O119658   8.403   3.774   6.229 -0.0374  0.3661  0.1382
  739ccc     O219659   8.615   3.662   6.403 -0.3429 -0.2515  0.1701
  739ccc     O319660   8.882   3.733   6.309  0.3897 -0.1375 -0.2970
  739ccc     O419661   8.817   3.874   6.073  0.4639  0.0867 -0.0599
  739ccc     C619662   8.689   4.134   6.094 -0.5929 -0.2386  0.4764
  739ccc     H619663   8.959   3.788   6.329  0.3348 -0.4256  0.7308
  739ccc     H719664   8.761   3.934   6.021 -0.5979 -1.5518 -0.8855
  739ccc     H819665   8.695   3.608   6.415 -0.4066 -0.4978 -0.4957
  739ccc     H919666   8.778   4.195   6.111  1.5135 -3.0281  0.1136
  739ccc    H1019667   8.604   4.201   6.113  1.2251  2.3910 -0.0480
  739ccc     O519668   8.698   4.080   5.966  0.1889  0.5505  0.1916
  739ccc    H1119669   8.697   4.159   5.909 -0.7874  0.1375 -0.3776
  739ccc     O619670   8.551   3.945   6.168 -0.5431 -0.2520  0.1663
  740ccc     C119671   7.979   2.833   6.270 -0.3345  0.0718  0.2878
  740ccc     C219672   8.046   2.791   6.401 -0.3793  0.1124 -0.8427
  740ccc     H119673   8.009   2.759   6.194 -1.2741  1.6324 -1.6805
  740ccc     H219674   8.031   2.683   6.416  0.9524  0.0807  0.4688
  740ccc     C319675   8.201   2.825   6.408  0.2975  0.1938 -0.3306
  740ccc     C419676   8.229   2.969   6.348 -0.5375  1.2223  0.4901
  740ccc     C519677   8.150   2.991   6.212 -0.5618 -0.2056 -0.0716
  740ccc     H319678   8.185   3.043   6.415 -1.6132  0.7326  0.3519
  740ccc     H419679   8.248   2.757   6.336  2.1795  0.1577  0.8746
  740ccc     H519680   8.195   2.929   6.133 -1.7330 -1.5735  0.2915
  740ccc     O119681   8.174   3.128   6.168  0.1321  0.1867 -0.5511
  740ccc     O219682   8.369   2.982   6.328 -0.1502  0.6278  0.1407
  740ccc     O319683   8.259   2.813   6.535  0.0333  0.1317 -0.2217
  740ccc     O419684   7.983   2.865   6.506 -0.4234  0.0102 -0.3757
  740ccc     C619685   7.826   2.816   6.262 -0.1663  0.2676  0.5067
  740ccc     H619686   8.218   2.879   6.594  0.5138  0.1104  0.1410
  740ccc     H719687   7.983   2.806   6.583 -0.5923 -2.1104 -1.9101
  740ccc     H819688   8.403   3.072   6.345  1.8850  0.2247 -1.4131
  740ccc     H919689   7.788   2.902   6.319 -0.9045 -0.0504  0.5031
  740ccc    H1019690   7.797   2.721   6.308 -1.8502 -1.9635 -4.5023
  740ccc     O519691   7.794   2.823   6.117 -0.1121  0.3057  0.2327
  740ccc    H1119692   7.809   2.914   6.085 -2.0191  0.0720 -1.5194
  740ccc     O619693   8.009   2.972   6.234  0.1601 -0.1134 -0.0469
  741ccc     C119694   9.183   3.309   6.908  0.8555  1.4749  0.3264
  741ccc     C219695   9.317   3.388   6.882  0.2245  0.5632 -0.1441
  741ccc     H119696   9.188   3.231   6.985 -0.7998 -0.7938 -1.7161
  741ccc     H219697   9.342   3.430   6.980 -0.4596  3.1324 -0.9707
  741ccc     C319698   9.417   3.275   6.839 -0.0060 -0.0419  0.2695
  741ccc     C419699   9.377   3.195   6.713  0.5720 -0.7048  0.8584
  741ccc     C519700   9.226   3.153   6.728 -0.0598 -0.2993  0.0771
  741ccc     H319701   9.385   3.269   6.633 -0.6040  0.5169  1.8195
  741ccc     H419702   9.430   3.199   6.917 -0.7700  0.1261  0.5619
  741ccc     H519703   9.221   3.061   6.788  0.9327 -1.4221 -1.4730
  741ccc     O119704   9.174   3.118   6.596  0.2128  0.1015 -0.2350
  741ccc     O219705   9.461   3.086   6.682 -0.3170 -0.5178 -0.1887
  741ccc     O319706   9.539   3.346   6.811 -0.0391 -0.6293 -0.3169
  741ccc     O419707   9.304   3.495   6.791 -0.7080 -0.0842 -0.2773
  741ccc     C619708   9.076   3.411   6.955  0.5622 -0.4616  0.0600
  741ccc     H619709   9.607   3.301   6.863  0.2700 -0.1877 -0.3277
  741ccc     H719710   9.359   3.569   6.820 -0.3187  0.1664 -1.5842
  741ccc     H819711   9.548   3.128   6.695 -0.6423  0.3530 -0.7024
  741ccc     H919712   9.077   3.490   6.878  0.4235  0.6936  1.2186
  741ccc    H1019713   9.105   3.455   7.051  2.5252 -1.0776 -0.2053
  741ccc     O519714   8.946   3.348   6.972 -0.2853 -0.2057 -0.3745
  741ccc    H1119715   8.971   3.258   6.997  0.9172  0.6277  1.6615
  741ccc     O619716   9.144   3.250   6.783 -0.0864  0.4209 -1.0515
  742ccc     C119717   9.708   2.989   6.419 -1.1219 -0.1085 -0.8114
  742ccc     C219718   9.755   2.838   6.426 -0.2524 -0.1802 -0.3421
  742ccc     H119719   9.673   3.020   6.518  0.2645 -0.0848 -0.3122
  742ccc     H219720   9.840   2.835   6.496 -2.4179  0.8689  2.5630
  742ccc     C319721   9.646   2.746   6.492  0.1517 -0.6404 -0.1075
  742ccc     C419722   9.521   2.769   6.413  0.4554  0.3210  0.2917
  742ccc     C519723   9.487   2.917   6.380  1.2386 -0.3859 -0.0107
  742ccc     H319724   9.545   2.719   6.318 -0.7480 -2.2158  1.2286
  742ccc     H419725   9.626   2.795   6.589 -1.2398  1.3803 -1.3409
  742ccc     H519726   9.453   2.977   6.465 -2.4817 -0.9797 -0.9002
  742ccc     O119727   9.381   2.922   6.276 -0.1389  0.1356  0.2377
  742ccc     O219728   9.404   2.707   6.473  0.2847 -0.4348  0.4914
  742ccc     O319729   9.686   2.608   6.494 -0.1353 -0.2624  0.7566
  742ccc     O419730   9.787   2.787   6.294 -0.5707 -0.1401 -0.1484
  742ccc     C619731   9.819   3.080   6.365  0.8962  0.4779 -0.7489
  742ccc     H619732   9.778   2.607   6.527  0.4432  0.9884 -0.6365
  742ccc     H719733   9.875   2.822   6.275 -1.6491  1.1906 -3.3205
  742ccc     H819734   9.439   2.620   6.498  0.2647 -0.7730 -0.5964
  742ccc     H919735   9.837   3.048   6.261 -0.3151  0.4125 -0.9605
  742ccc    H1019736   9.913   3.067   6.419 -0.0213  0.4705  0.9086
  742ccc     O519737   9.773   3.215   6.382 -0.2358 -0.1511 -0.6564
  742ccc    H1119738   9.781   3.221   6.479  0.1488  0.4764 -0.7268
  742ccc     O619739   9.595   2.990   6.329  0.4650 -0.1963 -0.4537
  743ccc     C119740   7.055   3.328   6.611 -0.1591 -0.2337  0.3370
  743ccc     C219741   7.155   3.359   6.485 -0.8209 -0.0446 -0.7208
  743ccc     H119742   7.103   3.247   6.667  4.2326  2.1970  0.5402
  743ccc     H219743   7.255   3.385   6.523 -1.1315 -0.4266  0.3912
  743ccc     C319744   7.171   3.235   6.399  0.1631  0.4185 -0.4417
  743ccc     C419745   7.037   3.172   6.362  0.5582  0.1985  0.9159
  743ccc     C519746   6.939   3.160   6.476 -0.0803  0.4631 -0.8777
  743ccc     H319747   6.987   3.242   6.294 -1.3201  0.0427  2.0669
  743ccc     H419748   7.214   3.168   6.474 -0.8049  3.3406  2.9776
  743ccc     H519749   6.960   3.072   6.539 -0.2206 -0.3105 -1.8767
  743ccc     O119750   6.811   3.144   6.426 -0.0132  0.7595  0.0976
  743ccc     O219751   7.062   3.040   6.297 -0.4437 -0.5382 -0.2556
  743ccc     O319752   7.260   3.260   6.289 -0.0335  0.0524 -0.0164
  743ccc     O419753   7.098   3.468   6.417  0.5693 -0.2729 -0.2576
  743ccc     C619754   7.030   3.441   6.712 -0.4554  0.0774  0.2653
  743ccc     H619755   7.347   3.228   6.318  1.4280  1.0313 -2.9757
  743ccc     H719756   7.168   3.534   6.405 -0.1425  0.6110  0.3713
  743ccc     H819757   7.136   3.060   6.238  0.9842 -0.1147  1.5888
  743ccc     H919758   7.123   3.475   6.759 -0.7688  2.0585 -0.4438
  743ccc    H1019759   6.947   3.417   6.779 -1.0655  0.4984 -0.3315
  743ccc     O519760   6.981   3.554   6.646 -0.1161  0.1973  0.1994
  743ccc    H1119761   6.992   3.540   6.550  1.2099  1.7560  0.0630
  743ccc     O619762   6.931   3.278   6.551  0.0078 -0.1679  0.3610
  744ccc     C119763   6.162   3.633   5.900 -0.6491  0.0117  0.5045
  744ccc     C219764   6.287   3.631   5.808 -0.6036  0.0081 -0.7819
  744ccc     H119765   6.136   3.736   5.929 -1.8995 -0.3049  0.5523
  744ccc     H219766   6.268   3.701   5.725 -2.5759  0.3851 -0.0730
  744ccc     C319767   6.407   3.677   5.899  0.6720 -0.2475 -0.4317
  744ccc     C419768   6.420   3.582   6.021 -0.6393  0.0208 -0.2811
  744ccc     C519769   6.286   3.579   6.102 -0.6418  0.3320  0.6465
  744ccc     H319770   6.444   3.482   5.982  0.7755  0.3806 -0.3843
  744ccc     H419771   6.377   3.770   5.950 -0.5737 -0.7087 -0.2765
  744ccc     H519772   6.267   3.678   6.147 -1.8191 -0.2256  1.4536
  744ccc     O119773   6.292   3.477   6.197  0.4797  0.0037  0.0999
  744ccc     O219774   6.533   3.618   6.105  0.2060  0.0506 -0.2747
  744ccc     O319775   6.520   3.688   5.813  0.3088 -0.2716  0.1452
  744ccc     O419776   6.304   3.494   5.767 -0.4898 -0.2070  0.2427
  744ccc     C619777   6.037   3.593   5.826 -0.1311  0.1742  0.7687
  744ccc     H619778   6.585   3.732   5.871  2.7611  0.0277 -2.6028
  744ccc     H719779   6.370   3.493   5.695  0.7706 -1.8630  1.3346
  744ccc     H819780   6.615   3.597   6.057 -0.1458 -2.3852  0.0781
  744ccc     H919781   6.033   3.484   5.820 -0.3447  0.2066  0.3023
  744ccc    H1019782   6.043   3.635   5.725 -0.4105 -1.2082  0.1620
  744ccc     O519783   5.926   3.651   5.910  0.5639 -0.0366 -0.0885
  744ccc    H1119784   5.856   3.672   5.846 -0.4333 -0.0817  0.9765
  744ccc     O619785   6.176   3.548   6.016  0.4940  0.0270 -0.0593
  745ccc     C119786   5.629   3.474   5.691  0.2818 -0.7633  0.4894
  745ccc     C219787   5.568   3.434   5.825  0.4838  0.9446 -0.0277
  745ccc     H119788   5.567   3.423   5.616 -2.7072  1.9002  0.9203
  745ccc     H219789   5.461   3.458   5.821  0.1104 -0.2993  1.3684
  745ccc     C319790   5.581   3.279   5.847 -0.1269  0.5216 -0.4971
  745ccc     C419791   5.722   3.225   5.816  0.1841  0.1080  0.0313
  745ccc     C519792   5.775   3.281   5.683  0.1504  0.0134  0.5402
  745ccc     H319793   5.785   3.265   5.897 -0.3640  2.1049 -0.4818
  745ccc     H419794   5.523   3.225   5.770  1.5432 -0.8979 -0.8208
  745ccc     H519795   5.720   3.240   5.597  2.0129 -0.3349 -0.5447
  745ccc     O119796   5.916   3.254   5.665 -0.1571  0.0576 -0.4662
  745ccc     O219797   5.723   3.080   5.805 -0.2824 -0.1594 -0.0221
  745ccc     O319798   5.535   3.236   5.984  0.4821 -0.3333  0.7400
  745ccc     O419799   5.644   3.497   5.931  0.0584  0.4090  0.0274
  745ccc     C619800   5.637   3.626   5.669 -0.5539 -0.1263 -0.4550
  745ccc     H619801   5.614   3.192   6.020  0.6818 -1.6570 -1.1553
  745ccc     H719802   5.666   3.584   5.894 -0.1084  0.9301  1.1124
  745ccc     H819803   5.671   3.033   5.871 -2.2121  1.9305  0.0702
  745ccc     H919804   5.533   3.661   5.666 -0.0364  1.5866  0.2911
  745ccc    H1019805   5.677   3.650   5.569 -0.1818  0.9955 -0.0534
  745ccc     O519806   5.703   3.700   5.774  0.8914 -0.1551  0.2530
  745ccc    H1119807   5.697   3.793   5.746 -2.8123 -0.5816 -0.9388
  745ccc     O619808   5.760   3.426   5.679  0.1501  0.3765  0.0390
  746ccc     C119809   6.772   3.131   5.987 -0.3924 -0.1099 -1.4441
  746ccc     C219810   6.760   3.274   6.046 -0.1233  0.1093  0.4572
  746ccc     H119811   6.870   3.126   5.937  0.4210 -0.0772  0.1070
  746ccc     H219812   6.843   3.299   6.114 -0.4065 -2.0680  1.6935
  746ccc     C319813   6.763   3.371   5.925  0.0597 -0.0836  0.2058
  746ccc     C419814   6.650   3.334   5.822 -0.3814  0.1741  0.2409
  746ccc     C519815   6.665   3.189   5.774  0.4213  0.3055  0.0884
  746ccc     H319816   6.560   3.336   5.885  0.3587 -2.7577  1.5527
  746ccc     H419817   6.857   3.357   5.870 -1.6385 -0.5951 -2.7422
  746ccc     H519818   6.756   3.176   5.714  2.7836 -1.0646  3.6421
  746ccc     O119819   6.538   3.150   5.709 -1.0092  0.0647 -0.1716
  746ccc     O219820   6.646   3.435   5.715  0.2900 -0.0594 -0.4574
  746ccc     O319821   6.746   3.503   5.981  0.0583  0.7639 -0.2886
  746ccc     O419822   6.641   3.283   6.124 -0.5135 -0.1459 -0.5198
  746ccc     C619823   6.766   3.025   6.095  0.6674 -0.4216 -0.4292
  746ccc     H619824   6.824   3.556   5.959 -1.5799  3.6843  0.3851
  746ccc     H719825   6.661   3.365   6.171 -2.2252 -0.1240  0.2246
  746ccc     H819826   6.632   3.513   5.770  1.2983  0.3134 -0.7075
  746ccc     H919827   6.665   3.024   6.136  0.7579 -0.8810 -0.2049
  746ccc    H1019828   6.834   3.049   6.177  0.2044  1.9279 -0.6641
  746ccc     O519829   6.804   2.904   6.038  0.2725  0.5032 -0.4401
  746ccc    H1119830   6.811   2.842   6.112 -0.3933  0.9214 -0.0073
  746ccc     O619831   6.674   3.106   5.889  0.0169 -0.0712 -0.8126
  747ccc     C119832   5.598   1.515   7.546 -0.0570 -0.4391  0.6238
  747ccc     C219833   5.537   1.620   7.636  0.6902  0.1176  0.2074
  747ccc     H119834   5.605   1.419   7.598  2.6557 -0.7310 -0.0900
  747ccc     H219835   5.439   1.584   7.672  0.8332 -0.4455  0.0424
  747ccc     C319836   5.635   1.638   7.752  0.4148  0.1428 -0.4456
  747ccc     C419837   5.765   1.710   7.701  0.5484  0.1730  1.8782
  747ccc     C519838   5.828   1.617   7.592  0.3171 -0.2556  0.2048
  747ccc     H319839   5.726   1.801   7.653  1.3904 -1.1108 -1.5772
  747ccc     H419840   5.667   1.542   7.795 -0.3165 -0.3784 -1.0240
  747ccc     H519841   5.876   1.531   7.639 -1.2467 -1.2383  0.0676
  747ccc     O119842   5.918   1.702   7.519 -0.8896  0.4641  0.0776
  747ccc     O219843   5.853   1.735   7.812 -0.0083  0.0517  0.2583
  747ccc     O319844   5.561   1.698   7.856  0.8865  0.2449 -0.0758
  747ccc     O419845   5.523   1.735   7.556  0.5735  0.0262 -0.2754
  747ccc     C619846   5.522   1.497   7.420  0.0537 -0.3553  0.2046
  747ccc     H619847   5.517   1.636   7.916 -0.6880  1.5569  0.1869
  747ccc     H719848   5.436   1.769   7.585 -0.0093 -1.0915 -0.6286
  747ccc     H819849   5.795   1.785   7.871  1.5672  3.2266 -0.6533
  747ccc     H919850   5.548   1.588   7.364  1.1721 -0.7732  0.0060
  747ccc    H1019851   5.415   1.489   7.441 -0.5233  1.3635 -1.6719
  747ccc     O519852   5.562   1.383   7.346  0.2700  0.0181  0.1942
  747ccc    H1119853   5.649   1.400   7.305  0.1043 -0.8758 -0.5622
  747ccc     O619854   5.724   1.572   7.502 -0.4329 -0.9164  0.0604
  748ccc     C119855   6.800   1.982   7.489 -0.0079  0.4192 -0.7418
  748ccc     C219856   6.775   1.957   7.638  0.6888  0.4697 -0.3176
  748ccc     H119857   6.859   2.074   7.482  0.1694  0.2491 -1.6322
  748ccc     H219858   6.872   1.950   7.690  0.9231 -0.1511 -0.8298
  748ccc     C319859   6.704   2.081   7.703  0.1331 -0.1889 -1.2247
  748ccc     C419860   6.582   2.129   7.621  0.2265  0.4462 -0.1403
  748ccc     C519861   6.602   2.126   7.467 -0.2694 -0.5100 -0.2920
  748ccc     H319862   6.497   2.068   7.654 -0.4821  2.1008  1.1883
  748ccc     H419863   6.775   2.164   7.705  0.3745 -0.3979 -0.0118
  748ccc     H519864   6.665   2.210   7.433 -0.7468 -0.1139 -0.2040
  748ccc     O119865   6.470   2.135   7.406 -0.0010 -0.1196  0.2648
  748ccc     O219866   6.558   2.269   7.656 -0.5114  0.1428  0.2648
  748ccc     O319867   6.666   2.037   7.844  0.3116 -0.3098  0.3248
  748ccc     O419868   6.693   1.842   7.659 -0.7065  0.0054  0.2105
  748ccc     C619869   6.879   1.862   7.417  0.1604 -0.0087  0.3352
  748ccc     H619870   6.745   2.046   7.900  0.8571  2.4414 -0.7464
  748ccc     H719871   6.665   1.847   7.752 -0.8715  1.1412  0.1117
  748ccc     H819872   6.594   2.290   7.744  0.2673 -0.1247  0.0234
  748ccc     H919873   6.811   1.776   7.429 -0.0433 -0.1281 -1.4317
  748ccc    H1019874   6.970   1.838   7.473  0.9586 -0.6108 -1.1797
  748ccc     O519875   6.908   1.906   7.288  0.6276 -0.6494 -0.2540
  748ccc    H1119876   6.838   1.969   7.263  3.0693  2.3355 -0.1547
  748ccc     O619877   6.673   2.005   7.429 -0.2090  0.2025 -0.3020
  749ccc     C119878   6.152   1.281   7.114  0.2308 -0.3672  0.3514
  749ccc     C219879   6.291   1.204   7.099  0.5810  0.6228 -0.3225
  749ccc     H119880   6.072   1.206   7.123  1.1069 -1.4418 -0.5634
  749ccc     H219881   6.293   1.122   7.171  0.9288 -0.4641 -1.5306
  749ccc     C319882   6.310   1.148   6.959  0.1083  0.2418  0.2904
  749ccc     C419883   6.271   1.247   6.848 -0.4991  0.0450  0.1102
  749ccc     C519884   6.134   1.314   6.868  0.0407  0.1609  0.0331
  749ccc     H319885   6.350   1.323   6.839  0.7481 -1.3579 -1.5381
  749ccc     H419886   6.231   1.071   6.961 -1.2908  1.6520  2.5192
  749ccc     H519887   6.053   1.244   6.848  0.1673  0.1008 -0.2923
  749ccc     O119888   6.121   1.422   6.766  0.3272  0.1316  0.1869
  749ccc     O219889   6.267   1.177   6.723 -0.0083  0.4638  0.1730
  749ccc     O319890   6.439   1.090   6.927  0.7172 -0.3034  0.4817
  749ccc     O419891   6.391   1.296   7.133  0.4867 -0.7023 -0.1060
  749ccc     C619892   6.146   1.374   7.243 -0.8955  0.3569  0.0612
  749ccc     H619893   6.457   1.022   6.994  0.1633 -1.1443 -0.1977
  749ccc     H719894   6.462   1.285   7.067  0.6205 -2.2496  0.2570
  749ccc     H819895   6.353   1.130   6.719 -1.5628 -2.5488 -0.7597
  749ccc     H919896   6.189   1.473   7.222  0.8322 -0.5675 -1.0277
  749ccc    H1019897   6.188   1.315   7.325 -1.1653  0.4381  0.2606
  749ccc     O519898   6.010   1.385   7.273 -0.1891 -0.0590 -0.5675
  749ccc    H1119899   5.967   1.306   7.310 -0.4008  0.0843 -0.5052
  749ccc     O619900   6.123   1.369   7.002  0.3234  0.3547  0.6691
  750ccc     C119901   6.447   2.292   6.783 -0.1168  0.2018 -0.1786
  750ccc     C219902   6.411   2.445   6.790 -0.4238  0.3868 -0.1959
  750ccc     H119903   6.540   2.284   6.725  0.0415  1.6361 -0.1399
  750ccc     H219904   6.499   2.502   6.822 -1.3269  0.8367  1.5806
  750ccc     C319905   6.364   2.496   6.657 -0.0107 -0.1203  0.5562
  750ccc     C419906   6.255   2.409   6.589 -0.1363 -0.2451 -0.7259
  750ccc     C519907   6.297   2.256   6.592  0.1329  0.1102  0.0598
  750ccc     H319908   6.163   2.431   6.645  1.1923  3.1433  0.4021
  750ccc     H419909   6.447   2.484   6.586 -0.3878 -1.3192  0.3070
  750ccc     H519910   6.374   2.230   6.518 -0.2883  2.5625 -1.3548
  750ccc     O119911   6.181   2.179   6.570  0.5287  0.1780 -0.9533
  750ccc     O219912   6.253   2.450   6.452 -0.6435 -0.1400  0.4802
  750ccc     O319913   6.315   2.629   6.677  0.3502  0.2079  0.9718
  750ccc     O419914   6.303   2.462   6.882 -0.0018 -0.2223 -0.4635
  750ccc     C619915   6.467   2.236   6.925  0.0033 -0.0895 -0.4879
  750ccc     H619916   6.335   2.672   6.591  0.3758 -2.2901 -0.3642
  750ccc     H719917   6.300   2.559   6.888 -0.5591 -0.2074 -0.8747
  750ccc     H819918   6.161   2.450   6.421 -0.6813  2.4789  0.4097
  750ccc     H919919   6.382   2.255   6.991  0.5209 -1.0959  0.5123
  750ccc    H1019920   6.547   2.295   6.972 -1.8305  0.9783  1.5093
  750ccc     O519921   6.506   2.101   6.910  0.4940 -0.2528  0.1474
  750ccc    H1119922   6.425   2.048   6.898  1.4475 -1.9982  1.0001
  750ccc     O619923   6.340   2.218   6.721  0.0989  0.1436  0.0232
  751ccc     C119924   5.723   0.585   5.844 -0.3367  0.2145 -0.6882
  751ccc     C219925   5.570   0.579   5.797 -0.4869  0.5985 -0.5977
  751ccc     H119926   5.756   0.689   5.839  0.1480  0.0233 -1.6004
  751ccc     H219927   5.507   0.660   5.835  1.5598  2.0986 -0.2380
  751ccc     C319928   5.563   0.593   5.638  0.4921 -0.2226 -0.6956
  751ccc     C419929   5.662   0.496   5.575 -0.0420 -0.2880  0.4178
  751ccc     C519930   5.811   0.529   5.621 -0.2646 -0.4023 -0.5269
  751ccc     H319931   5.635   0.394   5.602 -0.6294 -0.5013 -0.9214
  751ccc     H419932   5.602   0.694   5.619  1.6803 -0.3075  1.0879
  751ccc     H519933   5.836   0.631   5.591  0.7512 -0.5496 -0.2230
  751ccc     O119934   5.911   0.437   5.572  0.6167  0.5680 -0.2976
  751ccc     O219935   5.647   0.505   5.432 -0.3408 -0.2651 -0.1798
  751ccc     O319936   5.425   0.582   5.581  0.4574 -0.3983 -0.2469
  751ccc     O419937   5.514   0.456   5.836  0.1624  0.2721 -0.0281
  751ccc     C619938   5.745   0.557   5.993 -0.4272  0.1191  0.1217
  751ccc     H619939   5.427   0.638   5.501  2.4328 -0.4410 -0.2624
  751ccc     H719940   5.420   0.461   5.812  0.1307 -2.7071 -0.9869
  751ccc     H819941   5.681   0.421   5.397  1.0887 -0.6898  2.0277
  751ccc     H919942   5.685   0.616   6.063  0.0558  0.4251  0.2807
  751ccc    H1019943   5.847   0.580   6.024 -0.4584 -0.4562  0.6855
  751ccc     O519944   5.726   0.422   6.015 -0.1427  0.4927  0.2757
  751ccc    H1119945   5.632   0.416   5.991  0.3946  0.5812 -2.1447
  751ccc     O619946   5.813   0.501   5.759 -0.4983 -0.2269  0.0510
  752ccc     C119947   6.075  -0.457   5.445  0.4142  0.0511  0.0112
  752ccc     C219948   6.120  -0.504   5.580 -0.7633  0.5844 -0.0157
  752ccc     H119949   6.132  -0.512   5.370 -0.2130  0.2160 -0.6093
  752ccc     H219950   6.108  -0.611   5.597  2.0984 -0.1837 -2.1579
  752ccc     C319951   6.277  -0.469   5.614  0.2371 -0.0291  0.6277
  752ccc     C419952   6.301  -0.314   5.578  0.1816  0.3273 -0.9171
  752ccc     C519953   6.249  -0.279   5.441  0.1568  0.6230  0.9546
  752ccc     H319954   6.247  -0.248   5.647  1.4475  3.3200 -2.6009
  752ccc     H419955   6.341  -0.517   5.538  0.0596  0.3251  0.2488
  752ccc     H519956   6.313  -0.333   5.370  1.3385  0.5862  2.0029
  752ccc     O119957   6.273  -0.135   5.411  0.1475 -0.1550 -0.0240
  752ccc     O219958   6.443  -0.299   5.596  0.6148 -0.2818 -0.4285
  752ccc     O319959   6.315  -0.508   5.753  0.2098  0.2045  0.4546
  752ccc     O419960   6.041  -0.425   5.670 -0.1032 -0.5453  0.4297
  752ccc     C619961   5.923  -0.487   5.419 -0.1136 -0.0730  0.0611
  752ccc     H619962   6.262  -0.451   5.812 -1.8262 -0.6743 -0.4350
  752ccc     H719963   5.958  -0.433   5.621  0.1501 -0.2589 -0.0618
  752ccc     H819964   6.458  -0.327   5.688 -0.7226  0.9406  0.2102
  752ccc     H919965   5.911  -0.592   5.389  0.9596 -1.1414  2.9405
  752ccc    H1019966   5.898  -0.435   5.326 -1.3763 -1.4048 -0.3885
  752ccc     O519967   5.840  -0.445   5.526  0.3370 -0.1470  0.7370
  752ccc    H1119968   5.762  -0.495   5.499  1.6404 -0.9512 -1.8797
  752ccc     O619969   6.107  -0.318   5.429 -0.1255  0.1312  0.4758
  753ccc     C119970   7.260   0.697   5.195 -0.5033 -0.4812  0.0540
  753ccc     C219971   7.211   0.786   5.078 -0.0979 -0.0286  0.5929
  753ccc     H119972   7.368   0.681   5.185 -0.1055  0.9168  1.5742
  753ccc     H219973   7.267   0.880   5.090  1.0919 -0.6333 -0.0486
  753ccc     C319974   7.255   0.721   4.948 -0.6639  0.3300 -0.6129
  753ccc     C419975   7.205   0.574   4.941 -0.0201  0.7295 -0.3291
  753ccc     C519976   7.247   0.486   5.065 -0.1004 -0.0290 -0.1555
  753ccc     H319977   7.098   0.589   4.959  0.2336  2.8844 -0.3886
  753ccc     H419978   7.365   0.719   4.954 -0.6486 -2.7821 -0.3491
  753ccc     H519979   7.355   0.464   5.060 -0.4049 -1.4586 -1.0437
  753ccc     O119980   7.156   0.372   5.071 -0.0964 -0.0495  0.3401
  753ccc     O219981   7.223   0.508   4.817 -0.4197 -0.4544  0.8269
  753ccc     O319982   7.214   0.791   4.830 -0.3970 -0.0092  0.1204
  753ccc     O419983   7.063   0.797   5.085 -0.0683  0.3880 -0.8280
  753ccc     C619984   7.221   0.748   5.332  0.1977 -0.4476 -0.0376
  753ccc     H619985   7.119   0.807   4.823 -0.6308 -0.9387  0.9756
  753ccc     H719986   7.048   0.773   5.178 -3.0486 -0.1633 -1.3473
  753ccc     H819987   7.133   0.502   4.782 -0.3031  3.0708 -0.4292
  753ccc     H919988   7.257   0.851   5.341 -2.5968  0.6513 -0.3912
  753ccc    H1019989   7.267   0.692   5.415 -0.9140 -0.4163  0.6156
  753ccc     O519990   7.086   0.750   5.354  0.5497  0.4796  0.0900
  753ccc    H1119991   7.056   0.683   5.419 -1.4563  0.8373 -0.4051
  753ccc     O619992   7.213   0.562   5.183  0.2596 -0.6451  0.6752
  754ccc     C119993   7.492   0.024   5.300  0.4117 -0.8969  0.3121
  754ccc     C219994   7.598   0.102   5.223 -0.1075 -0.1718  0.4816
  754ccc     H119995   7.542  -0.070   5.326 -0.2571 -1.8573 -1.6701
  754ccc     H219996   7.689   0.127   5.279  2.2549 -1.6218 -2.3931
  754ccc     C319997   7.642   0.018   5.101 -0.6733 -0.7213  0.4083
  754ccc     C419998   7.525  -0.033   5.015 -0.4541  0.2228 -0.0712
  754ccc     C519999   7.423  -0.105   5.108 -0.4336 -0.5702 -0.0170
  754ccc     H320000   7.472   0.058   4.985  1.3232  1.8395  1.4807
  754ccc     H420001   7.693  -0.062   5.157  0.6688  0.8977  1.5991
  754ccc     H520002   7.462  -0.193   5.160  1.6375  0.8433  0.9556
  754ccc     O120003   7.305  -0.151   5.041 -0.1050 -0.1245  1.0331
  754ccc     O220004   7.567  -0.111   4.902 -0.1483 -0.0433  0.2175
  754ccc     O320005   7.737   0.085   5.012 -0.1174  0.3151  0.1410
  754ccc     O420006   7.532   0.223   5.179 -0.1004 -0.1329 -0.0266
  754ccc     C620007   7.443   0.090   5.432  0.3506  0.5105  0.4691
  754ccc     H620008   7.731   0.045   4.924 -2.3823 -1.8449  1.1461
  754ccc     H720009   7.480   0.234   5.261 -0.5630 -0.5676 -0.2559
  754ccc     H820010   7.595  -0.200   4.929 -1.0968 -0.6306 -0.6279
  754ccc     H920011   7.526   0.104   5.502  0.6802  1.8701 -0.1619
  754ccc    H1020012   7.365   0.024   5.474 -2.0026  2.8480  0.0401
  754ccc     O520013   7.394   0.219   5.398 -0.1824 -0.1163 -0.6521
  754ccc    H1120014   7.329   0.242   5.466 -1.5975 -0.4664 -1.8570
  754ccc     O620015   7.382  -0.013   5.210 -0.6927  0.6200  0.0582
  755ccc     C120016   7.408   0.474   6.881 -0.2268  0.3947 -0.2439
  755ccc     C220017   7.304   0.359   6.869  0.1202 -0.6398 -0.2675
  755ccc     H120018   7.408   0.504   6.987 -0.3385  1.2190 -0.4696
  755ccc     H220019   7.316   0.286   6.950  0.5867  0.7080  0.9447
  755ccc     C320020   7.160   0.418   6.891 -0.4353  0.2772 -0.0515
  755ccc     C420021   7.132   0.543   6.801 -0.2542 -0.5806 -0.0912
  755ccc     C520022   7.244   0.654   6.823 -0.6312  0.5437  0.1412
  755ccc     H320023   7.135   0.504   6.698 -0.2790 -0.5825 -0.0911
  755ccc     H420024   7.159   0.457   6.994 -0.8179 -0.6482  0.3090
  755ccc     H520025   7.230   0.701   6.920 -2.7270 -1.3513  0.8379
  755ccc     O120026   7.221   0.746   6.716 -0.2006  0.5475 -0.5604
  755ccc     O220027   7.004   0.600   6.830  0.8436  0.1640  0.8342
  755ccc     O320028   7.054   0.318   6.874 -0.0717 -0.3553 -0.4436
  755ccc     O420029   7.309   0.295   6.742 -0.4509  0.7142 -0.2069
  755ccc     C620030   7.554   0.435   6.835  0.3928  0.2451  0.3681
  755ccc     H620031   7.056   0.260   6.953  1.4061 -0.3145 -0.4102
  755ccc     H720032   7.230   0.239   6.735  0.1471 -0.6189  2.4161
  755ccc     H820033   6.949   0.528   6.865 -1.5388  2.7125  2.7379
  755ccc     H920034   7.568   0.464   6.730  1.5474  0.3439  0.5366
  755ccc    H1020035   7.568   0.331   6.867  2.1602  0.8609  1.7677
  755ccc     O520036   7.646   0.509   6.913  0.3357 -0.0186 -0.1404
  755ccc    H1120037   7.737   0.478   6.894  1.4478  3.7301 -1.8352
  755ccc     O620038   7.373   0.588   6.801  0.2162 -0.5631  0.0034
  756ccc     C120039   8.078   0.475   6.313 -0.1415  0.5180 -0.1064
  756ccc     C220040   8.164   0.463   6.444  0.1257 -0.1337  0.3320
  756ccc     H120041   8.134   0.545   6.249 -2.9229  1.0787 -2.1250
  756ccc     H220042   8.269   0.451   6.413  0.2380 -0.1804  0.7241
  756ccc     C320043   8.166   0.600   6.523  0.0044 -0.0815 -0.0327
  756ccc     C420044   8.014   0.634   6.542 -0.7010 -0.2154  0.3966
  756ccc     C520045   7.932   0.639   6.410  0.3729  0.3607  0.5616
  756ccc     H320046   7.963   0.550   6.592 -0.5548 -0.6157 -0.1171
  756ccc     H420047   8.204   0.675   6.453  0.4138 -0.1915  0.0709
  756ccc     H520048   7.980   0.706   6.337 -0.7792 -0.8129 -1.3595
  756ccc     O120049   7.795   0.679   6.422  0.4302 -0.1691  0.5754
  756ccc     O220050   7.998   0.756   6.619 -0.1427  0.1524  0.3489
  756ccc     O320051   8.232   0.594   6.653  0.0302 -0.1268 -0.3719
  756ccc     O420052   8.113   0.350   6.517  0.0624  0.1029  0.7637
  756ccc     C620053   8.062   0.338   6.238 -0.1867 -0.9743  0.4905
  756ccc     H620054   8.185   0.538   6.717  0.8766  0.1385  0.5073
  756ccc     H720055   8.183   0.315   6.575 -1.1479 -1.9690  1.0565
  756ccc     H820056   7.905   0.764   6.646  0.0088 -0.1855  0.9961
  756ccc     H920057   7.993   0.278   6.297  0.6344  0.2822  2.8331
  756ccc    H1020058   8.154   0.284   6.211 -1.7244 -2.5666 -1.9237
  756ccc     O520059   8.000   0.377   6.113  0.2533  0.5373  0.3300
  756ccc    H1120060   7.909   0.370   6.146 -0.2483 -1.8443 -1.2691
  756ccc     O620061   7.941   0.514   6.348  0.0029  0.2309 -0.4669
  757ccc     C120062   5.839   0.236   6.260  0.6510  0.0517 -0.1149
  757ccc     C220063   5.881   0.097   6.225  0.2651 -0.8206  0.6411
  757ccc     H120064   5.769   0.267   6.182 -1.4988  1.2838  2.1481
  757ccc     H220065   5.796   0.028   6.229 -0.7178  0.4284  2.4939
  757ccc     C320066   5.936   0.092   6.083  0.0551  0.4571 -1.0054
  757ccc     C420067   6.042   0.201   6.061 -0.0109  0.4778 -0.0100
  757ccc     C520068   6.010   0.335   6.115  0.8220 -0.7313  0.1091
  757ccc     H320069   6.134   0.163   6.105 -1.0377 -2.3728 -0.1088
  757ccc     H420070   5.853   0.114   6.014  0.5649  3.2470 -0.8115
  757ccc     H520071   5.945   0.384   6.043  0.0267 -2.2113 -0.2241
  757ccc     O120072   6.134   0.401   6.116 -0.9591  0.4137  0.4552
  757ccc     O220073   6.055   0.215   5.919  0.8916  0.1888  0.5584
  757ccc     O320074   5.996  -0.038   6.064  0.2060  0.5283 -0.5403
  757ccc     O420075   5.984   0.051   6.308  0.7620  0.2232 -0.6190
  757ccc     C620076   5.787   0.255   6.410 -0.0833 -0.0894  0.7175
  757ccc     H620077   5.914  -0.090   6.058  0.1569  0.3633  1.1716
  757ccc     H720078   6.022  -0.025   6.261 -1.7278 -1.3674 -0.2369
  757ccc     H820079   6.140   0.259   5.907  0.7472  0.6010  1.0070
  757ccc     H920080   5.868   0.275   6.481 -1.5247  3.4186  1.5884
  757ccc    H1020081   5.734   0.166   6.447 -1.5251  1.5904  2.9349
  757ccc     O520082   5.705   0.368   6.411  0.1722  0.3425  0.1565
  757ccc    H1120083   5.661   0.353   6.497  0.0835  1.2504  0.2794
  757ccc     O620084   5.953   0.327   6.252  0.3872 -0.1858  0.7262
  758ccc     C120085   6.571   0.431   7.059  0.1944  0.2420  0.9553
  758ccc     C220086   6.558   0.275   7.082 -1.3564 -0.1805  0.9057
  758ccc     H120087   6.475   0.471   7.096 -0.2610  1.3021 -1.2276
  758ccc     H220088   6.536   0.254   7.188  0.4891 -2.5552  0.9092
  758ccc     C320089   6.449   0.223   6.983 -0.0386  0.1241  0.2239
  758ccc     C420090   6.490   0.255   6.834  0.8837 -0.0127 -0.2854
  758ccc     C520091   6.496   0.412   6.826  0.4309 -0.5354 -0.0593
  758ccc     H320092   6.587   0.211   6.805  0.0318 -1.7694 -0.5937
  758ccc     H420093   6.358   0.282   6.994 -0.9298 -0.8480 -1.3925
  758ccc     H520094   6.403   0.466   6.846 -0.2534 -1.0580 -1.7618
  758ccc     O120095   6.534   0.451   6.690 -0.2560 -0.1522 -0.1783
  758ccc     O220096   6.383   0.214   6.740  0.0497 -0.4397  0.2255
  758ccc     O320097   6.424   0.083   7.006  0.1094  0.8134 -0.6995
  758ccc     O420098   6.675   0.206   7.047  0.2496 -0.2377  0.4973
  758ccc     C620099   6.685   0.502   7.136  0.0911  1.2694  0.0516
  758ccc     H620100   6.339   0.050   6.971 -0.4174 -1.6418  2.4161
  758ccc     H720101   6.657   0.116   7.079  0.0090 -0.7427 -1.0106
  758ccc     H820102   6.430   0.188   6.659  0.5031 -1.3081  0.7452
  758ccc     H920103   6.678   0.474   7.242 -0.0157 -0.3547 -0.3474
  758ccc    H1020104   6.679   0.610   7.118 -0.0750  1.3786  0.7568
  758ccc     O520105   6.811   0.440   7.084  0.1254  0.1417 -0.2248
  758ccc    H1120106   6.775   0.352   7.065 -0.1734  0.1697  0.2137
  758ccc     O620107   6.596   0.454   6.917 -0.6358 -0.0084 -0.4695
  759ccc     C120108   7.415   0.783   3.996  0.3452  0.4872 -0.2939
  759ccc     C220109   7.523   0.685   3.957 -0.8437 -0.7352  0.9532
  759ccc     H120110   7.461   0.877   4.030 -0.6219  0.5675  0.8640
  759ccc     H220111   7.582   0.747   3.888 -1.6764  1.4541  2.1160
  759ccc     C320112   7.622   0.649   4.073  0.2478  1.1851  0.1254
  759ccc     C420113   7.543   0.609   4.200  0.2121 -0.5626  0.5591
  759ccc     C520114   7.423   0.705   4.230 -0.0479 -0.3835  0.7493
  759ccc     H320115   7.491   0.515   4.180 -3.1569  1.6020 -2.0323
  759ccc     H420116   7.686   0.734   4.100  3.0379 -0.4889 -0.8431
  759ccc     H520117   7.462   0.799   4.270 -0.1875 -0.7740  1.8408
  759ccc     O120118   7.352   0.634   4.331  0.3249  0.2720  0.5216
  759ccc     O220119   7.632   0.605   4.314  0.6295  0.1961  0.2805
  759ccc     O320120   7.700   0.538   4.025 -0.6367  0.0590  0.2977
  759ccc     O420121   7.470   0.574   3.888 -0.7920  0.3333 -0.2524
  759ccc     C620122   7.313   0.818   3.880 -0.0606  0.4826  0.1352
  759ccc     H620123   7.785   0.535   4.073  0.6300  0.0367 -1.8133
  759ccc     H720124   7.541   0.514   3.919  2.6566  3.5835 -1.1736
  759ccc     H820125   7.583   0.542   4.369  0.6060  1.1497  1.3954
  759ccc     H920126   7.366   0.881   3.808 -1.2676  0.5662 -0.7091
  759ccc    H1020127   7.236   0.886   3.918 -0.1930  1.8404 -2.3701
  759ccc     O520128   7.254   0.696   3.832  0.1039 -0.3108  0.7931
  759ccc    H1120129   7.340   0.651   3.827  0.8616  1.2663 -2.7270
  759ccc     O620130   7.344   0.722   4.110 -0.0186  0.1414 -0.0584
  760ccc     C120131   7.382  -0.144   4.043  0.1666 -0.4996 -0.3390
  760ccc     C220132   7.505  -0.167   4.134  0.0188  0.1951 -0.3128
  760ccc     H120133   7.405  -0.150   3.936 -3.3134 -1.9005 -1.1555
  760ccc     H220134   7.556  -0.263   4.120 -0.1847 -0.3202  2.1447
  760ccc     C320135   7.618  -0.062   4.107 -0.4478 -0.0298 -0.2340
  760ccc     C420136   7.571   0.081   4.126  0.6517 -0.1581 -0.6164
  760ccc     C520137   7.429   0.100   4.051 -0.7440 -1.1494 -0.6527
  760ccc     H320138   7.550   0.093   4.233 -1.4481 -0.2682 -0.9727
  760ccc     H420139   7.658  -0.068   4.005 -0.5362  2.7391 -0.5119
  760ccc     H520140   7.439   0.107   3.942 -1.1185  0.8715 -0.5980
  760ccc     O120141   7.371   0.219   4.104 -0.3760 -0.0932  0.0922
  760ccc     O220142   7.670   0.175   4.078  0.1549  0.1690  0.4171
  760ccc     O320143   7.735  -0.084   4.190 -0.1551 -0.2199  1.0076
  760ccc     O420144   7.460  -0.157   4.270  0.1750  0.4827 -0.3785
  760ccc     C620145   7.274  -0.245   4.062  0.7422 -0.1578  0.3600
  760ccc     H620146   7.770  -0.173   4.176 -0.4949 -0.0531 -1.1957
  760ccc     H720147   7.516  -0.223   4.315  0.3994 -0.7150 -2.2843
  760ccc     H820148   7.738   0.174   4.148  0.5060 -0.4788  0.0785
  760ccc     H920149   7.234  -0.251   4.164 -0.3608  1.0355  0.0283
  760ccc    H1020150   7.316  -0.344   4.043  1.6084  0.2332  0.1929
  760ccc     O520151   7.171  -0.212   3.969  0.2678 -0.0371  0.4530
  760ccc    H1120152   7.115  -0.161   4.030  0.7051  1.3705 -0.2705
  760ccc     O620153   7.335  -0.008   4.073  0.0488  0.2636 -0.6350
  761ccc     C120154   8.975   0.650   4.434 -0.3765 -0.1952 -0.1779
  761ccc     C220155   8.925   0.790   4.412 -0.5108 -0.5108 -0.5025
  761ccc     H120156   8.940   0.601   4.342 -1.0691  0.5869 -0.3399
  761ccc     H220157   8.966   0.818   4.315  3.0126 -1.8120  0.4563
  761ccc     C320158   8.775   0.810   4.426  0.6029  0.4373  0.5105
  761ccc     C420159   8.715   0.727   4.543  0.4830 -0.1514  0.0503
  761ccc     C520160   8.772   0.584   4.555 -0.0735 -0.0660  0.2579
  761ccc     H320161   8.740   0.789   4.630 -2.1695  1.2821 -0.1093
  761ccc     H420162   8.723   0.766   4.340  2.1422  0.7749 -0.6324
  761ccc     H520163   8.734   0.524   4.472  0.2271 -0.0210  0.0832
  761ccc     O120164   8.734   0.529   4.682 -0.2422 -0.3353 -0.7687
  761ccc     O220165   8.570   0.714   4.522 -0.3402  0.1690  0.6464
  761ccc     O320166   8.740   0.954   4.422 -0.0986 -0.1060  0.1861
  761ccc     O420167   8.986   0.870   4.518 -0.0068  0.6092 -0.1376
  761ccc     C620168   9.128   0.635   4.446 -0.2615  0.0550 -0.3791
  761ccc     H620169   8.801   0.996   4.485  1.0284 -0.4517 -0.6479
  761ccc     H720170   9.062   0.813   4.540  1.2994  2.1562 -0.4741
  761ccc     H820171   8.529   0.800   4.541 -1.0710  0.1189 -0.6183
  761ccc     H920172   9.181   0.677   4.360 -0.4102  0.2786 -0.3599
  761ccc    H1020173   9.155   0.528   4.445 -1.5035 -0.2937 -2.6018
  761ccc     O520174   9.175   0.706   4.560  0.0458 -0.1726  0.3194
  761ccc    H1120175   9.272   0.698   4.566  0.3248  0.8031 -1.7913
  761ccc     O620176   8.915   0.595   4.553 -0.1123 -0.0405 -0.2230
  762ccc     C120177   8.776   1.158   4.795 -0.3389 -0.7510 -0.0915
  762ccc     C220178   8.926   1.127   4.759 -0.2656  0.9301 -0.2218
  762ccc     H120179   8.764   1.226   4.880  2.0024  0.0899 -0.3869
  762ccc     H220180   8.993   1.214   4.758  0.8606  0.0996 -1.7382
  762ccc     C320181   8.997   1.019   4.851  0.5451  0.1788 -0.5374
  762ccc     C420182   8.906   0.896   4.879  0.0497 -0.5668 -0.3948
  762ccc     C520183   8.760   0.940   4.909  0.4354 -0.4321 -0.2234
  762ccc     H320184   8.888   0.839   4.787  2.1188  0.1790 -1.3360
  762ccc     H420185   9.004   1.071   4.948 -1.9678  0.6567 -0.5457
  762ccc     H520186   8.755   0.983   5.009  1.1419  0.5686 -0.6052
  762ccc     O120187   8.679   0.826   4.899  0.1786  0.4447 -0.4094
  762ccc     O220188   8.957   0.816   4.985  0.3816 -0.6393  0.3433
  762ccc     O320189   9.119   0.989   4.799 -0.5433 -0.5576  0.0108
  762ccc     O420190   8.924   1.096   4.619  0.0527 -0.5097 -0.2662
  762ccc     C620191   8.700   1.215   4.674  0.1999  0.3055  0.0907
  762ccc     H620192   9.170   0.947   4.870  0.1572 -1.7369 -1.1434
  762ccc     H720193   8.996   1.033   4.599  0.6697  0.3638 -0.8560
  762ccc     H820194   9.030   0.764   4.946  1.5996  1.3722 -0.2267
  762ccc     H920195   8.682   1.140   4.596 -0.9168 -1.3221  1.8218
  762ccc    H1020196   8.761   1.297   4.634  0.0158  0.4363  0.0787
  762ccc     O520197   8.573   1.253   4.724  0.0236 -0.0406 -0.0337
  762ccc    H1120198   8.522   1.277   4.645 -1.7525  2.5435  1.7090
  762ccc     O620199   8.705   1.032   4.809 -0.5506 -0.3805  0.1852
  763ccc     C120200   6.508   1.809   3.473 -0.4561  0.2816  0.1194
  763ccc     C220201   6.485   1.851   3.324  0.3734 -0.3620 -0.1569
  763ccc     H120202   6.554   1.898   3.517  0.6814 -0.2996  0.1466
  763ccc     H220203   6.443   1.953   3.320 -1.6214 -1.0549  1.4922
  763ccc     C320204   6.608   1.840   3.219  0.4513  0.1889  0.5734
  763ccc     C420205   6.693   1.715   3.248 -0.1078  0.0943 -0.7334
  763ccc     C520206   6.728   1.699   3.405  0.3472 -1.1662  0.3694
  763ccc     H320207   6.641   1.628   3.206  1.3865 -0.5884 -1.2213
  763ccc     H420208   6.671   1.929   3.233  1.4041 -0.3139 -0.3934
  763ccc     H520209   6.779   1.786   3.449 -3.0086  0.7590  0.8356
  763ccc     O120210   6.786   1.574   3.435 -0.5990 -0.0056 -0.1878
  763ccc     O220211   6.818   1.736   3.170 -0.2647  0.5049 -0.1214
  763ccc     O320212   6.535   1.841   3.093 -0.8337 -0.2389  0.1226
  763ccc     O420213   6.385   1.757   3.283  0.1145  0.2190 -0.2608
  763ccc     C620214   6.375   1.789   3.542  0.0220  0.0578  0.0627
  763ccc     H620215   6.602   1.878   3.033 -0.6544 -0.0321  0.4474
  763ccc     H720216   6.379   1.795   3.193  0.8801  1.6807  0.2752
  763ccc     H820217   6.801   1.724   3.075 -1.4091 -0.8332  0.2259
  763ccc     H920218   6.336   1.688   3.522 -1.1131  0.9901 -3.1026
  763ccc    H1020219   6.298   1.857   3.501  0.0919 -0.0610 -0.2707
  763ccc     O520220   6.391   1.812   3.681  0.3705  0.0121 -0.2895
  763ccc    H1120221   6.457   1.884   3.685  0.9506 -0.4145 -1.7897
  763ccc     O620222   6.600   1.692   3.477  0.6695 -0.4624  0.1722
  764ccc     C120223   7.178   0.890   3.381 -0.0288 -0.1238  0.1992
  764ccc     C220224   7.262   1.000   3.308 -0.1308  0.0341  0.1600
  764ccc     H120225   7.155   0.809   3.311 -1.9364  0.1211  0.4962
  764ccc     H220226   7.352   0.957   3.262 -1.9072 -1.2376 -2.3480
  764ccc     C320227   7.179   1.045   3.182 -0.2325  0.6090  0.1919
  764ccc     C420228   7.035   1.083   3.216  0.2093 -0.3939  0.2979
  764ccc     C520229   6.969   0.980   3.309  0.5410  0.7069  0.1715
  764ccc     H320230   7.033   1.182   3.262  0.3987  0.6005 -1.7344
  764ccc     H420231   7.159   0.957   3.119  0.7297 -0.4730  1.3381
  764ccc     H520232   6.935   0.894   3.249  1.3443  0.7785 -0.3954
  764ccc     O120233   6.861   1.043   3.371 -0.4598 -0.0248  0.1823
  764ccc     O220234   6.951   1.090   3.096 -0.6311  0.1099 -0.1851
  764ccc     O320235   7.244   1.149   3.107  0.0063 -0.3080 -0.4467
  764ccc     O420236   7.295   1.113   3.396  0.2931  0.6134 -0.4961
  764ccc     C620237   7.261   0.831   3.495  0.9083  0.4979 -0.5364
  764ccc     H620238   7.290   1.114   3.028 -0.4445  1.9771 -1.7936
  764ccc     H720239   7.353   1.175   3.349  1.2883 -0.3164 -0.5429
  764ccc     H820240   6.902   1.172   3.115  1.9790  1.7666 -0.0498
  764ccc     H920241   7.306   0.904   3.563  1.2650  0.7648 -1.0539
  764ccc    H1020242   7.341   0.774   3.446 -0.4074 -1.2729 -0.7587
  764ccc     O520243   7.177   0.735   3.563 -0.3681 -0.3757 -0.2791
  764ccc    H1120244   7.209   0.718   3.653  0.9115 -0.8113 -0.7892
  764ccc     O620245   7.055   0.955   3.423  0.0839  0.0667 -0.2191
  765ccc     C120246   5.932   0.888   3.797 -0.5519  0.0176  0.4553
  765ccc     C220247   6.014   0.827   3.678  0.1416  0.4716 -0.2479
  765ccc     H120248   5.891   0.981   3.756  2.2014  1.0860 -0.1126
  765ccc     H220249   5.942   0.811   3.597  0.8788  0.4113 -0.8955
  765ccc     C320250   6.124   0.928   3.635 -0.3326 -0.0957 -0.3052
  765ccc     C420251   6.209   0.963   3.766  0.0407 -0.4199 -0.1937
  765ccc     C520252   6.125   1.021   3.882  0.5422  0.3200  0.0881
  765ccc     H320253   6.270   0.876   3.793  3.1557  2.3131  2.3448
  765ccc     H420254   6.065   1.016   3.605 -2.6212 -1.5734 -0.3406
  765ccc     H520255   6.075   1.117   3.865 -0.1183  0.2260  1.3724
  765ccc     O120256   6.213   1.030   3.999  0.4610 -0.5004  0.1447
  765ccc     O220257   6.314   1.049   3.723  0.2136 -0.1224 -0.1804
  765ccc     O320258   6.215   0.893   3.530  0.3161  0.5832  0.1317
  765ccc     O420259   6.062   0.702   3.724 -0.0861  0.4981 -0.3368
  765ccc     C620260   5.818   0.802   3.837  1.0780  0.5069 -0.3035
  765ccc     H620261   6.283   0.962   3.541 -1.1293  2.2311 -0.6247
  765ccc     H720262   6.078   0.712   3.819 -1.0130  2.5041 -0.3383
  765ccc     H820263   6.273   1.131   3.691  2.3136  0.7091 -0.9490
  765ccc     H920264   5.841   0.705   3.882  3.0731  1.7027  1.4386
  765ccc    H1020265   5.748   0.787   3.753 -1.7670 -0.3067  2.0183
  765ccc     O520266   5.741   0.880   3.931  0.0933  0.4154  0.3518
  765ccc    H1120267   5.790   0.856   4.011  3.2530  0.1164 -1.4787
  765ccc     O620268   6.015   0.924   3.908 -0.3024 -0.1435  0.1551
  766ccc     C120269   6.406   2.042   3.999  0.3195 -0.1616 -0.0475
  766ccc     C220270   6.290   2.126   4.058  0.7385  0.0921 -0.0672
  766ccc     H120271   6.372   2.031   3.895  1.2902  2.1553 -0.6845
  766ccc     H220272   6.267   2.210   3.992  1.0204 -0.0263 -0.3178
  766ccc     C320273   6.164   2.027   4.057  0.5972 -0.0765 -0.2412
  766ccc     C420274   6.184   1.898   4.136 -0.8053 -0.4653  0.4539
  766ccc     C520275   6.308   1.821   4.081  0.8219 -0.4189  0.4591
  766ccc     H320276   6.207   1.913   4.242 -3.9400  1.8868  0.9318
  766ccc     H420277   6.144   1.997   3.954  0.6980 -2.2663  0.3346
  766ccc     H520278   6.281   1.795   3.977 -0.4277 -2.0690  1.1476
  766ccc     O120279   6.341   1.698   4.162 -0.1261  0.1877  0.5631
  766ccc     O220280   6.065   1.820   4.140 -0.1985  0.1486  0.1922
  766ccc     O320281   6.041   2.095   4.091 -0.3053 -0.2389 -0.3171
  766ccc     O420282   6.316   2.164   4.192 -0.6096  0.7580 -0.3822
  766ccc     C620283   6.539   2.114   4.002  0.1749 -0.1150 -0.2048
  766ccc     H620284   6.065   2.138   4.175  0.1067 -1.2480  0.1072
  766ccc     H720285   6.252   2.235   4.210 -0.7310  0.6075 -0.2188
  766ccc     H820286   6.014   1.843   4.220  0.0516  0.9313  0.1358
  766ccc     H920287   6.568   2.143   4.104  1.6966 -1.0070 -0.3557
  766ccc    H1020288   6.523   2.202   3.938 -2.5384 -0.0984  0.3874
  766ccc     O520289   6.638   2.027   3.943  0.1200 -0.0843  0.2996
  766ccc    H1120290   6.632   1.950   4.003 -0.0423  0.5656  1.1403
  766ccc     O620291   6.417   1.920   4.076 -0.0882  0.0905  0.3318
  767SOL     OW20292   2.201   0.352   0.253 -0.2604 -1.1840 -0.6783
  767SOL    HW120293   2.198   0.267   0.208 -0.9336 -0.8874 -1.2285
  767SOL    HW220294   2.183   0.331   0.344  0.0839 -1.6930 -0.7251
  768SOL     OW20295  13.160   2.066   2.753  0.0338 -0.6341 -0.2010
  768SOL    HW120296  13.067   2.044   2.757 -0.6687  2.0820  1.7412
  768SOL    HW220297  13.162   2.156   2.722  2.1044 -0.8329 -0.7780
  769SOL     OW20298   2.806   4.665  13.167 -0.5072 -0.2733  0.3135
  769SOL    HW120299   2.727   4.613  13.179 -0.4562 -0.5375 -0.4026
  769SOL    HW220300   2.775   4.748  13.132 -0.5626  0.0656  1.1576
  770SOL     OW20301  10.711   4.538   0.746 -0.0540 -0.2218  0.2770
  770SOL    HW120302  10.637   4.488   0.713  0.6010 -0.1472 -1.3519
  770SOL    HW220303  10.752   4.480   0.811 -0.0778 -1.2685 -0.6171
  771SOL     OW20304   4.495   6.738   2.954  0.1051 -0.8597 -0.1540
  771SOL    HW120305   4.520   6.813   2.900 -0.5492 -0.7831 -0.3651
  771SOL    HW220306   4.568   6.677   2.947 -0.0453 -0.9359 -1.3055
  772SOL     OW20307   5.312  11.703  12.779 -0.0589  0.1252  0.4024
  772SOL    HW120308   5.306  11.618  12.822 -0.1635 -0.2094 -0.2582
  772SOL    HW220309   5.223  11.724  12.754  0.1253 -0.1584 -0.5352
  773SOL     OW20310  10.783  10.197   0.179 -0.3583  0.1905  0.3674
  773SOL    HW120311  10.708  10.167   0.231 -0.3601 -0.5440 -0.0530
  773SOL    HW220312  10.774  10.151   0.095  1.2412 -0.8826  0.7424
  774SOL     OW20313  13.131   5.920   8.329 -0.0655 -0.0379 -0.4814
  774SOL    HW120314  13.106   6.010   8.306  0.1827 -0.3330 -2.0096
  774SOL    HW220315  13.048   5.876   8.347 -0.1007  0.9193  2.1336
  775SOL     OW20316  13.349   0.757   6.000 -0.2489  0.1899  0.3550
  775SOL    HW120317  13.261   0.764   5.963 -0.3233 -0.0480  0.4899
  775SOL    HW220318  13.375   0.848   6.014 -0.2394  0.2875 -0.2340
  776SOL     OW20319  10.029   6.883   5.742  0.4256  0.0911 -0.5300
  776SOL    HW120320   9.945   6.902   5.700 -0.2320 -0.1785  0.6192
  776SOL    HW220321  10.018   6.795   5.777  0.8107  0.4533  0.5245
  777SOL     OW20322   3.874   7.340  13.811  0.0384  0.4851 -0.5064
  777SOL    HW120323   3.892   7.260  13.860  2.1001  0.0705 -1.8036
  777SOL    HW220324   3.903   7.411  13.868 -1.7322  0.3548  0.6230
  778SOL     OW20325  12.467  10.091  12.596  0.2294 -0.3194  0.1224
  778SOL    HW120326  12.447  10.004  12.631  1.0944 -0.9880 -0.9848
  778SOL    HW220327  12.504  10.139  12.670 -0.2340 -0.8973  0.7371
  779SOL     OW20328  12.115  11.502   8.843  0.1298 -0.1353  0.0055
  779SOL    HW120329  12.079  11.426   8.889 -0.2233  0.0937  0.1083
  779SOL    HW220330  12.091  11.577   8.897  0.2040  0.0824 -0.2568
  780SOL     OW20331   0.482   6.560  10.390 -0.1239 -1.1041 -0.7095
  780SOL    HW120332   0.494   6.647  10.428 -0.4722 -1.0543 -0.7170
  780SOL    HW220333   0.388   6.547  10.388 -0.0602 -1.6959 -0.2226
  781SOL     OW20334   0.862   7.360  10.663 -0.0811  0.1642 -0.0968
  781SOL    HW120335   0.843   7.358  10.757 -0.1470 -0.0406 -0.1153
  781SOL    HW220336   0.833   7.276  10.630 -0.1357  0.2684 -0.3189
  782SOL     OW20337  10.302  10.677  11.647  0.2326  0.0630 -0.1098
  782SOL    HW120338  10.341  10.590  11.660  0.4634 -0.3031 -2.6636
  782SOL    HW220339  10.376  10.734  11.627  0.0111  0.7071  0.8826
  783SOL     OW20340   9.818   4.772   4.749  0.5322  0.1715 -0.1821
  783SOL    HW120341   9.810   4.692   4.696 -0.5914 -0.6475  1.1693
  783SOL    HW220342   9.734   4.817   4.739  0.8506  0.7628 -0.2538
  784SOL     OW20343   0.939   0.272   4.350 -0.5105 -0.3336  0.5724
  784SOL    HW120344   0.928   0.218   4.272 -1.3948 -0.1642  0.5658
  784SOL    HW220345   0.886   0.350   4.333 -2.6061 -1.2889  2.2406
  785SOL     OW20346   8.350   5.443  13.856 -0.4711  0.5643 -0.1624
  785SOL    HW120347   8.385   5.525  13.821 -1.2459  1.8311  1.8477
  785SOL    HW220348   8.423   5.381  13.849  1.7405  2.6487  2.3728
  786SOL     OW20349   2.590   9.914   4.476  0.3605  0.3850 -0.1892
  786SOL    HW120350   2.583   9.941   4.567 -0.8855  0.2376 -0.2221
  786SOL    HW220351   2.511   9.863   4.460  1.0483 -0.4476 -1.0754
  787SOL     OW20352  10.736   6.486  13.571  0.2910  0.4171 -0.4154
  787SOL    HW120353  10.679   6.457  13.642  1.4165  0.2880  0.4566
  787SOL    HW220354  10.686   6.468  13.491 -0.3734 -0.8712  0.2668
  788SOL     OW20355   1.589   8.102  13.115  0.2012 -0.5378  0.5644
  788SOL    HW120356   1.566   8.012  13.093  0.8020 -0.8294  1.0725
  788SOL    HW220357   1.511   8.153  13.096 -0.1071 -1.1538  0.1644
  789SOL     OW20358   4.820   6.345   2.152 -0.0910  0.3757 -0.3233
  789SOL    HW120359   4.910   6.352   2.120 -0.4845 -1.5227 -1.9813
  789SOL    HW220360   4.821   6.269   2.210 -0.4682  0.8318  0.2906
  790SOL     OW20361   1.177   6.249  13.441  0.1404 -0.2691  0.2852
  790SOL    HW120362   1.179   6.160  13.475  1.0382 -0.6620 -0.7573
  790SOL    HW220363   1.260   6.287  13.469  0.2839 -0.1527 -0.2932
  791SOL     OW20364  12.700   9.058  13.933 -0.3524  0.0204 -0.6965
  791SOL    HW120365  12.605   9.062  13.920 -1.0664 -1.3441  3.0221
  791SOL    HW220366  12.720   9.136  13.984  0.3417 -0.1977 -0.6299
  792SOL     OW20367   6.460   8.178   2.525  0.3072  0.0316 -0.5543
  792SOL    HW120368   6.473   8.213   2.614 -1.0323  2.1840 -1.1154
  792SOL    HW220369   6.376   8.215   2.498  1.5385  0.9790 -3.4118
  793SOL     OW20370   1.275   0.176   6.031  0.5030 -0.0724 -0.4967
  793SOL    HW120371   1.357   0.171   5.982  0.5575 -0.5474 -0.3625
  793SOL    HW220372   1.219   0.108   5.993  0.2554  0.0919 -0.4333
  794SOL     OW20373   9.574   3.644   8.581  0.1628 -0.1141 -0.4800
  794SOL    HW120374   9.652   3.612   8.625  0.2989 -0.1704 -0.7547
  794SOL    HW220375   9.505   3.582   8.604 -0.1823  0.7604  0.9878
  795SOL     OW20376  13.551  11.442  11.964 -0.1288 -0.0095 -0.9088
  795SOL    HW120377  13.455  11.435  11.962 -0.1243  0.0311 -1.1875
  795SOL    HW220378  13.581  11.371  11.907  0.0476 -1.0015  0.3708
  796SOL     OW20379   4.230   8.667   8.603 -0.5654 -0.1719 -0.1230
  796SOL    HW120380   4.312   8.620   8.621 -0.4524  0.0527 -0.0363
  796SOL    HW220381   4.222   8.665   8.508  2.1068  3.9262 -0.6996
  797SOL     OW20382   2.447   0.525  12.629  0.2841  0.0291  0.0242
  797SOL    HW120383   2.492   0.486  12.704  1.0497 -1.3104 -1.1027
  797SOL    HW220384   2.463   0.465  12.557 -0.6777  1.1479 -1.1707
  798SOL     OW20385   5.880   2.102  13.719  0.2993  0.4530  0.2019
  798SOL    HW120386   5.799   2.153  13.728  0.5831  0.8465  0.5361
  798SOL    HW220387   5.938   2.137  13.786  0.3960 -0.5250  0.6453
  799SOL     OW20388   3.673  11.922   5.557 -0.0297 -0.0831 -0.1531
  799SOL    HW120389   3.581  11.948   5.566  0.1661  0.9925 -1.0253
  799SOL    HW220390   3.715  11.951   5.638 -0.0615  1.3013 -0.6069
  800SOL     OW20391   7.249  13.160   9.648  0.2245 -0.6131 -0.4029
  800SOL    HW120392   7.154  13.158   9.662  0.4350 -1.8570  1.1727
  800SOL    HW220393   7.260  13.129   9.558 -0.8287 -1.5583 -0.2354
  801SOL     OW20394   5.820   9.010   7.902 -0.2796  0.0186  0.0752
  801SOL    HW120395   5.874   8.995   7.825  0.8016  2.0144  0.3754
  801SOL    HW220396   5.852   8.947   7.967  0.9038  0.3832 -0.1362
  802SOL     OW20397  10.249   4.574  10.922  0.2273 -0.1061  0.1766
  802SOL    HW120398  10.332   4.610  10.890 -0.2072  0.9640  0.1963
  802SOL    HW220399  10.272   4.490  10.960  1.2554  0.0359 -0.1033
  803SOL     OW20400   7.766   2.547   2.105  0.1003  0.2827  0.3343
  803SOL    HW120401   7.672   2.553   2.119 -0.1294 -0.5997 -0.6752
  803SOL    HW220402   7.777   2.473   2.045  1.4322  0.3863  0.4093
  804SOL     OW20403  11.388   2.838   4.643 -0.1496 -0.0653 -0.3697
  804SOL    HW120404  11.303   2.879   4.627 -0.5875 -0.9009 -0.2066
  804SOL    HW220405  11.370   2.744   4.645  0.6543 -0.2183  0.4347
  805SOL     OW20406   6.757   7.268  12.855 -0.2297  0.0495  0.9078
  805SOL    HW120407   6.674   7.257  12.902 -0.2075 -0.8498  0.7651
  805SOL    HW220408   6.740   7.229  12.769  0.2514  0.1302  0.7766
  806SOL     OW20409   5.006  13.629   9.843 -0.5638 -0.2056 -0.5745
  806SOL    HW120410   4.937  13.612   9.907 -0.8983 -0.7937 -1.0753
  806SOL    HW220411   4.964  13.611   9.758 -0.3125  1.1269 -1.0035
  807SOL     OW20412   2.271   0.029  12.894 -0.0217 -0.2552 -0.2267
  807SOL    HW120413   2.185   0.070  12.906  0.1336 -0.0341  0.1746
  807SOL    HW220414   2.328   0.074  12.958  0.1569 -1.0873  0.2083
  808SOL     OW20415  11.944  12.754   2.049  0.4471 -0.0123 -0.8057
  808SOL    HW120416  11.955  12.659   2.048  0.4027 -0.1256  2.2650
  808SOL    HW220417  11.968  12.781   1.960  0.7682 -2.8340 -1.6822
  809SOL     OW20418  11.534  13.613   1.135 -0.1564 -0.3661  0.7205
  809SOL    HW120419  11.446  13.603   1.099 -1.5435  1.9305  3.0848
  809SOL    HW220420  11.584  13.655   1.065 -0.4733 -2.8778 -1.1303
  810SOL     OW20421   1.272  13.466  14.048 -0.5498  0.8692 -0.2574
  810SOL    HW120422   1.271  13.550  14.094  0.2573  0.1029  1.2492
  810SOL    HW220423   1.364  13.439  14.050 -0.8485 -0.2014 -0.4105
  811SOL     OW20424   6.670   3.765  12.011 -0.4395 -0.6986  0.4344
  811SOL    HW120425   6.737   3.750  11.945 -0.9299 -0.3676 -0.1493
  811SOL    HW220426   6.627   3.846  11.983 -1.3674 -1.1392  0.5603
  812SOL     OW20427  12.240  11.497   4.662  0.2227 -0.0621  0.4952
  812SOL    HW120428  12.258  11.590   4.670 -1.3982  0.2065  1.4686
  812SOL    HW220429  12.238  11.465   4.752  2.6556 -1.4655  0.1176
  813SOL     OW20430   7.887   8.811  13.451  0.2231  0.3059 -0.0029
  813SOL    HW120431   7.976   8.843  13.437  0.8215 -1.1717  0.2396
  813SOL    HW220432   7.831   8.879  13.412  1.4535  1.0750 -0.5081
  814SOL     OW20433   5.899   6.133   9.643 -0.9107  0.3194  0.1734
  814SOL    HW120434   5.937   6.221   9.641 -2.9757  1.3125  1.2915
  814SOL    HW220435   5.878   6.118   9.735 -2.1292 -0.6400 -0.2370
  815SOL     OW20436   6.989  10.266   8.025  0.4148 -0.2195 -0.2080
  815SOL    HW120437   7.029  10.352   8.037  0.8574 -0.3380 -0.8044
  815SOL    HW220438   7.005  10.220   8.107  0.3674  0.1936  0.0334
  816SOL     OW20439   1.236   1.144   9.776  0.4989  0.4789  0.6044
  816SOL    HW120440   1.259   1.237   9.778  2.0172  0.1220  1.0911
  816SOL    HW220441   1.207   1.125   9.866 -1.3780  0.8138  0.1148
  817SOL     OW20442   8.662   2.497  13.163 -0.0254 -0.2376 -0.2603
  817SOL    HW120443   8.716   2.448  13.225 -0.9146 -1.8374 -0.6970
  817SOL    HW220444   8.621   2.566  13.215 -0.7448 -1.5449  0.9618
  818SOL     OW20445   3.022   3.633  14.091  0.0123  0.6745 -0.3703
  818SOL    HW120446   2.957   3.564  14.074 -0.1811  0.2854  1.6893
  818SOL    HW220447   3.060   3.652  14.005 -1.9418  0.0370 -1.4282
  819SOL     OW20448   4.190   5.814   4.103 -0.6282  0.1140 -0.1548
  819SOL    HW120449   4.201   5.851   4.015  0.1809  1.7200  0.5900
  819SOL    HW220450   4.146   5.882   4.152 -0.7968 -0.6518  0.7863
  820SOL     OW20451   5.372   2.263   3.637  0.4786  0.5283  0.4303
  820SOL    HW120452   5.345   2.338   3.690  0.0398 -0.0042  0.9826
  820SOL    HW220453   5.430   2.300   3.570  0.4766  1.3153  0.8514
  821SOL     OW20454   7.335   3.364  11.337 -0.2626  0.1309 -0.5802
  821SOL    HW120455   7.314   3.455  11.357 -0.3493  0.1275 -0.6595
  821SOL    HW220456   7.394   3.369  11.261  0.0244  0.1408 -0.3589
  822SOL     OW20457   0.267   0.002  12.051  0.0896  0.0415 -0.3209
  822SOL    HW120458   0.342   0.048  12.088 -0.5011  0.0792  0.8625
  822SOL    HW220459   0.257   0.041  11.963  0.9730  0.5684 -0.2027
  823SOL     OW20460   6.311   0.307   5.874  0.1964 -0.2388 -0.4791
  823SOL    HW120461   6.357   0.320   5.957 -0.0736 -1.7820 -0.0586
  823SOL    HW220462   6.331   0.385   5.823  0.5856  0.6154  0.9365
  824SOL     OW20463  11.276   3.790   0.114  0.5056 -0.0256  0.2855
  824SOL    HW120464  11.288   3.837   0.031  0.7863  1.0687  0.9253
  824SOL    HW220465  11.363   3.787   0.152  0.6485 -1.8402 -0.1196
  825SOL     OW20466  11.683   7.929   4.458  0.0334 -0.0082  0.1737
  825SOL    HW120467  11.696   8.005   4.514  0.6188 -0.4251  0.6263
  825SOL    HW220468  11.665   7.857   4.520 -1.3931 -0.0803 -0.2837
  826SOL     OW20469  13.298   4.535   1.260 -0.6388 -0.1055  0.1433
  826SOL    HW120470  13.349   4.462   1.294 -2.3623 -1.6816 -0.4702
  826SOL    HW220471  13.229   4.549   1.325 -1.5894 -0.4839 -0.7536
  827SOL     OW20472  12.339   0.331  10.212  0.0023  0.1421 -0.8387
  827SOL    HW120473  12.410   0.390  10.235  0.8299 -0.0888 -2.5798
  827SOL    HW220474  12.327   0.276  10.289  0.2123  1.6022  0.2654
  828SOL     OW20475   7.220  10.789   6.750 -0.3867  0.3711 -0.5046
  828SOL    HW120476   7.128  10.770   6.765 -0.9157  1.1027 -2.4346
  828SOL    HW220477   7.255  10.814   6.835 -1.2238 -2.7035  0.8462
  829SOL     OW20478   2.280  12.433  13.721  0.3824  0.0285  0.1305
  829SOL    HW120479   2.188  12.429  13.745 -0.0750  2.8084 -0.7831
  829SOL    HW220480   2.319  12.495  13.782  0.9892  1.0011 -1.1978
  830SOL     OW20481   3.724   0.692   9.786  0.5732  0.1671  0.0054
  830SOL    HW120482   3.695   0.735   9.867 -1.2893 -0.4615 -0.2777
  830SOL    HW220483   3.673   0.733   9.717  1.8906  0.4496 -0.8486
  831SOL     OW20484  11.237   5.089  10.212  0.3280 -0.1546  0.3945
  831SOL    HW120485  11.330   5.067  10.220  0.6602  1.2999  0.9085
  831SOL    HW220486  11.198   5.065  10.296  0.1843 -0.9649  0.1023
  832SOL     OW20487  13.662   6.644   7.441  0.3473  0.1520  0.2464
  832SOL    HW120488  13.591   6.631   7.504  0.2522 -1.3599 -0.1352
  832SOL    HW220489  13.639   6.724   7.395 -0.3322  0.4914  1.1535
  833SOL     OW20490   7.610   0.822   0.942 -0.1984 -0.5172 -0.4552
  833SOL    HW120491   7.590   0.881   1.015  0.1634  0.0665 -0.8211
  833SOL    HW220492   7.704   0.835   0.925 -0.6459  0.8401 -2.2872
  834SOL     OW20493   3.875  13.798  14.108  0.6816 -0.1651  0.2223
  834SOL    HW120494   3.958  13.846  14.110  0.6081 -0.0444  0.4887
  834SOL    HW220495   3.866  13.763  14.197  0.4959 -0.2615  0.1650
  835SOL     OW20496   4.918   0.129  13.826 -0.1564  0.0758 -0.0174
  835SOL    HW120497   4.957   0.051  13.865 -0.6757  0.0659  0.4803
  835SOL    HW220498   4.931   0.117  13.731 -1.5949 -1.3537 -0.0683
  836SOL     OW20499   4.074   4.710   5.963  0.0801 -0.0445  0.1364
  836SOL    HW120500   4.024   4.786   5.994 -0.5831 -0.9382  1.3641
  836SOL    HW220501   4.126   4.743   5.890  0.0441  1.6641  0.8394
  837SOL     OW20502   3.758   9.037   3.140  0.2923  0.2447  0.1320
  837SOL    HW120503   3.789   8.949   3.120 -1.6479 -0.2765 -0.8384
  837SOL    HW220504   3.694   9.056   3.071 -0.0938  2.0029  0.9107
  838SOL     OW20505  10.068   1.465   7.821  0.8729  0.0577  0.4545
  838SOL    HW120506  10.013   1.543   7.815  3.2824  1.8197 -0.4811
  838SOL    HW220507  10.008   1.396   7.849 -1.8532  1.7222 -0.7645
  839SOL     OW20508  11.926   5.185   9.879  0.3387 -0.5852  0.3181
  839SOL    HW120509  11.977   5.105   9.895  2.4893  0.4720 -0.7685
  839SOL    HW220510  11.987   5.256   9.898 -1.7876  0.8961  2.1215
  840SOL     OW20511   6.456  11.705   9.156 -0.0966  0.6713  0.3966
  840SOL    HW120512   6.522  11.657   9.106  1.1942  0.8134  1.8785
  840SOL    HW220513   6.374  11.663   9.133  0.5502  0.1214 -1.0852
  841SOL     OW20514  10.417   3.757  10.910  0.0727  0.0237  0.6840
  841SOL    HW120515  10.467   3.677  10.927 -0.6703 -0.9473 -1.4135
  841SOL    HW220516  10.436   3.779  10.819 -2.7507 -0.0326 -0.0056
  842SOL     OW20517  10.334   3.529   7.811  0.1611 -0.0101 -0.0850
  842SOL    HW120518  10.327   3.514   7.905 -1.1737 -0.9379 -0.2989
  842SOL    HW220519  10.355   3.443   7.774  3.7066  0.8432 -0.4385
  843SOL     OW20520   8.862   2.054  12.741 -0.8199  0.1933 -0.0000
  843SOL    HW120521   8.794   2.104  12.697 -2.0301 -1.0003  0.4683
  843SOL    HW220522   8.835   1.963  12.732  0.5522 -0.2860  0.4698
  844SOL     OW20523   4.113   2.464   8.980  0.2371  0.0013 -0.5221
  844SOL    HW120524   4.144   2.545   9.019 -0.1226 -0.1755  0.1495
  844SOL    HW220525   4.159   2.458   8.896  0.7072  0.5966 -0.3113
  845SOL     OW20526   7.165   1.826   3.041  0.0266 -0.1796 -0.3816
  845SOL    HW120527   7.134   1.773   3.115  1.6952  0.1203  0.5913
  845SOL    HW220528   7.091   1.885   3.022 -0.5338 -0.4217  0.8997
  846SOL     OW20529  12.777   1.895  10.330  0.1783  0.4821 -0.6135
  846SOL    HW120530  12.763   1.983  10.363  0.7915  0.1665  0.5581
  846SOL    HW220531  12.848   1.860  10.385 -0.5418 -0.9870 -0.5775
  847SOL     OW20532  12.702   8.839   3.240 -0.0646 -0.3975  0.2002
  847SOL    HW120533  12.786   8.879   3.261  0.0050 -0.2693 -0.3191
  847SOL    HW220534  12.640   8.880   3.301  0.4600 -1.4440  1.4963
  848SOL     OW20535   9.113   3.343   0.731  0.5338 -0.0222  0.2416
  848SOL    HW120536   9.025   3.324   0.700 -0.7561  2.3335  2.1123
  848SOL    HW220537   9.136   3.267   0.786 -0.9317 -0.0558  0.8444
  849SOL     OW20538   2.166   2.642   8.767 -0.1054 -0.0240 -0.2795
  849SOL    HW120539   2.216   2.671   8.843  0.0543 -0.6668 -0.1332
  849SOL    HW220540   2.089   2.598   8.804  0.3582 -1.0217 -0.4629
  850SOL     OW20541   7.904  12.300   5.834  0.1926 -0.7285 -0.3662
  850SOL    HW120542   7.903  12.205   5.839 -2.6351 -0.8191 -1.1311
  850SOL    HW220543   7.971  12.327   5.896  0.2106 -3.1747  0.7585
  851SOL     OW20544  10.794   6.495   0.776 -0.4792 -0.0913  0.0705
  851SOL    HW120545  10.754   6.559   0.835 -3.8160 -1.7383 -0.1727
  851SOL    HW220546  10.862   6.453   0.830 -0.8153  1.0189  1.4375
  852SOL     OW20547   4.583   1.392  13.635 -0.2314 -0.1819  0.1684
  852SOL    HW120548   4.632   1.405  13.554  0.4399  0.4890  0.6702
  852SOL    HW220549   4.547   1.304  13.627 -1.0051  0.2192 -1.2828
  853SOL     OW20550   8.120   2.372  10.333 -0.2833  0.2329  0.0199
  853SOL    HW120551   8.048   2.332  10.285  0.4407 -2.0920  0.7175
  853SOL    HW220552   8.199   2.336  10.293  0.4252  0.7625  0.8847
  854SOL     OW20553   1.606   5.417  12.336 -0.3651  0.7745  0.5055
  854SOL    HW120554   1.533   5.478  12.326  1.3054  2.7753 -0.0542
  854SOL    HW220555   1.614   5.376  12.250 -1.2868 -0.0507  0.7919
  855SOL     OW20556   1.331  11.542   5.788 -0.0185 -0.2436 -0.2232
  855SOL    HW120557   1.375  11.568   5.707  1.0793 -0.0127  0.4154
  855SOL    HW220558   1.281  11.619   5.813  1.9130  0.7807  0.7842
  856SOL     OW20559  10.899   6.911   2.215  0.2308 -0.2847  0.3996
  856SOL    HW120560  10.803   6.902   2.218  0.0501  1.1562 -0.3346
  856SOL    HW220561  10.916   6.951   2.130  1.4065  0.4480  0.9649
  857SOL     OW20562   3.979   7.679   5.069  0.5137 -0.8826 -0.0820
  857SOL    HW120563   4.061   7.689   5.117  0.6498 -1.1761 -0.2529
  857SOL    HW220564   3.914   7.722   5.124  0.6170 -1.4605  0.5035
  858SOL     OW20565  14.001  11.961  13.999 -0.3451  0.1314  0.2336
  858SOL    HW120566  14.001  11.898  13.927  0.6936 -0.0790  0.4041
  858SOL    HW220567  13.980  12.045  13.958  0.3577  0.0325 -0.3471
  859SOL     OW20568   7.425   5.553   0.310  0.7241  0.4287 -0.5423
  859SOL    HW120569   7.505   5.565   0.361 -0.3251  0.2816  1.2200
  859SOL    HW220570   7.441   5.475   0.257  2.1383  1.0539 -1.0629
  860SOL     OW20571  10.704   0.856   3.697  0.4178 -0.1244 -0.3387
  860SOL    HW120572  10.785   0.804   3.694  0.6091  0.1652 -0.2227
  860SOL    HW220573  10.729   0.942   3.665 -0.1437 -0.4073 -1.5910
  861SOL     OW20574  10.777  11.706   0.277  0.1169  0.0171  0.0348
  861SOL    HW120575  10.852  11.759   0.249 -0.1389  0.1658 -0.3932
  861SOL    HW220576  10.795  11.684   0.368  0.7475 -0.0680 -0.1070
  862SOL     OW20577   7.401   5.113   0.666  0.3942 -0.0850  0.0224
  862SOL    HW120578   7.465   5.042   0.660 -1.0133 -1.4129  0.1565
  862SOL    HW220579   7.428   5.176   0.599  2.6272  0.0929  0.9956
  863SOL     OW20580  13.215   3.916  12.866  0.2846  0.1625 -0.7763
  863SOL    HW120581  13.272   3.992  12.854  1.8934 -0.9537 -0.3362
  863SOL    HW220582  13.266   3.854  12.916 -0.8048 -1.4611 -1.5807
  864SOL     OW20583  10.623   1.207  13.392  0.3987  0.1060  0.4650
  864SOL    HW120584  10.666   1.206  13.307  1.3208  1.6286  0.8754
  864SOL    HW220585  10.537   1.168  13.377 -0.0644  1.7499 -1.5118
  865SOL     OW20586   9.117   2.103  12.322 -0.5223 -0.9212 -0.2072
  865SOL    HW120587   9.208   2.132  12.332 -0.4950 -1.7498  3.1162
  865SOL    HW220588   9.065   2.183  12.327 -0.0377 -0.5845 -0.5602
  866SOL     OW20589  10.080   1.610  12.755  0.4273  0.0345  0.1501
  866SOL    HW120590   9.995   1.570  12.741  0.4657  0.1577 -0.4603
  866SOL    HW220591  10.120   1.558  12.825 -0.1599  0.0098  0.4758
  867SOL     OW20592   9.441   0.422   2.747 -0.2893  0.5777 -0.3725
  867SOL    HW120593   9.478   0.504   2.781 -0.5773  1.7327 -2.6556
  867SOL    HW220594   9.347   0.429   2.765 -0.1384  0.0320  0.7406
  868SOL     OW20595  13.172   0.848   6.839  0.4701  0.4519  0.4205
  868SOL    HW120596  13.187   0.755   6.827  1.2562  0.5977  0.2328
  868SOL    HW220597  13.157   0.882   6.750  2.7746  0.9280  0.1489
  869SOL     OW20598   5.384  11.043   2.950 -0.1165  0.4406  0.0442
  869SOL    HW120599   5.456  11.099   2.920  1.5779 -0.4380  2.1154
  869SOL    HW220600   5.354  10.998   2.871 -1.4289  3.9834 -1.6741
  870SOL     OW20601  11.206  10.448  11.745 -0.0854 -0.0344  0.5657
  870SOL    HW120602  11.275  10.502  11.706  1.0401 -0.8898  1.3034
  870SOL    HW220603  11.234  10.436  11.836 -2.0457  0.9355  1.3666
  871SOL     OW20604   9.040   9.159   9.074  0.3559 -0.8809  0.3732
  871SOL    HW120605   9.131   9.161   9.104  0.5599  0.3961 -0.2456
  871SOL    HW220606   8.998   9.231   9.120 -0.5073 -1.8084  1.0791
  872SOL     OW20607   0.030  11.155   4.297  0.0461 -0.1745 -0.1613
  872SOL    HW120608   0.042  11.167   4.202  0.1950 -1.6710 -0.3571
  872SOL    HW220609   0.101  11.096   4.323  0.0104  0.2318  0.8917
  873SOL     OW20610   1.171  13.036  12.746 -0.1471 -0.1489  1.0058
  873SOL    HW120611   1.097  13.093  12.767 -1.4896 -1.1641 -0.7313
  873SOL    HW220612   1.244  13.096  12.732 -1.0351  0.9906  1.1263
  874SOL     OW20613  10.182  10.845   2.139  0.0845  0.3060  0.5262
  874SOL    HW120614  10.093  10.871   2.162 -0.1752  0.0355 -0.1520
  874SOL    HW220615  10.171  10.783   2.067  0.8365  0.5309  0.2071
  875SOL     OW20616   7.417   8.523   2.219  0.3248  0.4658 -0.3755
  875SOL    HW120617   7.423   8.436   2.258  1.1835  0.2001 -1.0820
  875SOL    HW220618   7.420   8.583   2.294  0.8894 -0.0712  0.0415
  876SOL     OW20619  12.460   7.321   2.803  0.6825 -0.3847  0.4257
  876SOL    HW120620  12.438   7.380   2.731  4.3007  0.1252 -0.4454
  876SOL    HW220621  12.446   7.374   2.882  0.8659  0.5743 -0.1726
  877SOL     OW20622   2.239   2.495  13.044 -0.3123 -0.0058  0.3433
  877SOL    HW120623   2.332   2.489  13.023 -0.1017 -0.8314  1.4316
  877SOL    HW220624   2.236   2.514  13.137 -1.2282 -1.0818  0.5600
  878SOL     OW20625   4.033  11.702   4.296  0.0249  0.1513  1.1110
  878SOL    HW120626   3.969  11.762   4.335  0.1685 -0.3154  2.1002
  878SOL    HW220627   3.999  11.615   4.317  0.0205 -0.1207  0.0223
  879SOL     OW20628   7.833  12.251   3.052 -0.2696  0.0358 -0.0579
  879SOL    HW120629   7.769  12.233   3.122  0.5511 -0.5069  0.5746
  879SOL    HW220630   7.807  12.335   3.017 -0.8808  0.1841  0.7155
  880SOL     OW20631   7.505   6.057   7.326  0.7178  0.1228  0.5362
  880SOL    HW120632   7.457   6.086   7.404 -0.2708 -1.5933  0.6200
  880SOL    HW220633   7.510   5.962   7.336  0.2946 -0.1642 -1.6238
  881SOL     OW20634   1.121   1.790  13.741  0.5083 -0.1440  0.4377
  881SOL    HW120635   1.032   1.766  13.714  0.7150 -2.1155  1.3442
  881SOL    HW220636   1.165   1.813  13.659 -0.6212  0.1671 -0.1089
  882SOL     OW20637   2.819  11.193   5.056  0.0606 -0.6108 -0.0118
  882SOL    HW120638   2.832  11.148   5.140  0.7458 -0.7700 -0.1971
  882SOL    HW220639   2.817  11.286   5.079  1.1090 -0.6015  0.0955
  883SOL     OW20640  10.744   9.324   7.445 -0.0577 -0.6228 -0.0664
  883SOL    HW120641  10.748   9.374   7.526 -0.1811  0.0213 -0.4541
  883SOL    HW220642  10.659   9.346   7.407 -0.7073 -2.1475  0.3947
  884SOL     OW20643  13.019  13.011   9.263 -0.4911  0.8780  0.4258
  884SOL    HW120644  13.042  12.918   9.266 -0.8308  0.8092  1.1245
  884SOL    HW220645  13.000  13.033   9.354 -0.6182  1.5792  0.2293
  885SOL     OW20646   2.584   3.832   6.654  0.2337  0.1267 -0.0937
  885SOL    HW120647   2.565   3.752   6.702  4.9341 -1.2213 -0.0077
  885SOL    HW220648   2.609   3.802   6.566 -1.1348  1.9166 -1.1950
  886SOL     OW20649   7.896   4.979   3.909 -0.4603  0.2450  0.0301
  886SOL    HW120650   7.929   5.066   3.886 -1.7470  0.4499 -1.2014
  886SOL    HW220651   7.866   4.942   3.825  0.5516 -1.6182  0.4324
  887SOL     OW20652   8.678   8.443   5.082  0.2267  0.1388  0.8658
  887SOL    HW120653   8.755   8.479   5.038 -0.7278  0.7351 -0.3690
  887SOL    HW220654   8.603   8.480   5.035 -0.8412  0.1747  2.5014
  888SOL     OW20655   2.475  13.643   0.489  0.1520 -0.2848 -0.3950
  888SOL    HW120656   2.521  13.633   0.406  1.0670  2.7135 -0.3513
  888SOL    HW220657   2.544  13.633   0.555 -0.0808 -0.0652 -0.1185
  889SOL     OW20658   2.734   1.643   8.195  0.2423  0.9072 -0.4576
  889SOL    HW120659   2.796   1.603   8.256 -0.3018  1.2036  0.3019
  889SOL    HW220660   2.673   1.692   8.251  0.3685  2.0744 -1.3020
  890SOL     OW20661  12.046   3.093   9.399 -0.0200  0.6787 -0.5192
  890SOL    HW120662  12.034   3.040   9.478 -0.1804  1.3017 -0.1193
  890SOL    HW220663  12.133   3.131   9.409  0.3517 -0.0024 -1.1081
  891SOL     OW20664   9.933  10.874   9.703  0.3025  0.1069 -0.5744
  891SOL    HW120665   9.859  10.814   9.697 -1.1937  1.9427 -1.6427
  891SOL    HW220666   9.942  10.911   9.615  2.7187 -0.2601 -0.5651
  892SOL     OW20667  13.274   2.423   0.072  0.1980  0.0463 -0.3089
  892SOL    HW120668  13.193   2.414   0.023 -0.0408  1.7617 -0.2773
  892SOL    HW220669  13.343   2.421   0.006  0.0718 -0.3202 -0.4341
  893SOL     OW20670  13.145  10.420   3.854  0.0588  0.5501 -0.1817
  893SOL    HW120671  13.183  10.360   3.790 -1.1800  0.0291 -0.4568
  893SOL    HW220672  13.078  10.468   3.805 -1.0320  0.0262  0.7386
  894SOL     OW20673  10.107   8.100   4.205  0.5813  0.0275  0.4162
  894SOL    HW120674  10.102   8.091   4.300  1.5752  0.2274  0.4926
  894SOL    HW220675  10.179   8.161   4.191  0.2108  0.2779 -0.4581
  895SOL     OW20676  11.051  13.211   1.366  0.4598  0.0406  0.0282
  895SOL    HW120677  11.134  13.217   1.318 -0.2339  0.4217 -1.1701
  895SOL    HW220678  11.076  13.178   1.452  2.0975  1.8801  0.3474
  896SOL     OW20679  11.246   5.126   9.731 -0.3074  0.0357  0.2946
  896SOL    HW120680  11.340   5.131   9.749  0.0361  0.2817 -1.3949
  896SOL    HW220681  11.239   5.064   9.659 -1.3569  0.6604 -0.1594
  897SOL     OW20682   8.663   0.597  11.838 -0.2404  0.2109  0.7657
  897SOL    HW120683   8.570   0.579  11.846 -0.0334 -1.2598  0.1740
  897SOL    HW220684   8.672   0.641  11.754 -0.5351  1.4629  1.3777
  898SOL     OW20685   2.383  13.215   6.556  0.6842  0.3569  0.4414
  898SOL    HW120686   2.314  13.250   6.499  1.9415  2.0315 -0.1473
  898SOL    HW220687   2.434  13.159   6.498 -0.2509 -1.0629  0.9317
  899SOL     OW20688   7.122   5.641   2.035  0.5188  0.5627  0.0111
  899SOL    HW120689   7.148   5.612   2.123 -0.2970  1.8596  0.7172
  899SOL    HW220690   7.062   5.572   2.005  0.7236  0.1567  0.5049
  900SOL     OW20691   6.464   8.106  11.362 -0.1154  0.9531 -0.1103
  900SOL    HW120692   6.400   8.169  11.395  0.6433  2.5119 -1.4735
  900SOL    HW220693   6.429   8.078  11.278 -0.5564 -0.6795  0.5782
  901SOL     OW20694   9.417   6.552   6.004 -0.4109 -0.5848 -0.4375
  901SOL    HW120695   9.427   6.600   6.086  0.9044 -1.7479  0.1407
  901SOL    HW220696   9.436   6.461   6.028 -1.9839 -1.2665 -1.6587
  902SOL     OW20697   0.950  11.811   5.990  0.4415 -0.4322  0.2052
  902SOL    HW120698   0.927  11.897   6.026 -1.3895 -0.3680 -0.9925
  902SOL    HW220699   0.880  11.753   6.021  0.3231 -0.9397 -0.9521
  903SOL     OW20700   2.325   6.535  11.201 -0.0525 -0.6376  0.2748
  903SOL    HW120701   2.255   6.576  11.150  1.8174  1.4039 -0.8247
  903SOL    HW220702   2.385   6.501  11.135  0.4876 -1.5114  1.1947
  904SOL     OW20703   4.991   4.948   9.200 -0.1124 -0.2769  0.0104
  904SOL    HW120704   5.046   4.882   9.242  1.3693  1.7705  1.4518
  904SOL    HW220705   4.912   4.950   9.253  1.5510  1.9551  2.6397
  905SOL     OW20706   2.431   7.655  13.835 -0.3377  0.3526  0.2143
  905SOL    HW120707   2.494   7.603  13.884  0.9936  1.5629 -0.1393
  905SOL    HW220708   2.351   7.653  13.888 -0.7517 -2.9344 -0.3155
  906SOL     OW20709  12.783   3.160   7.996 -0.3919 -0.3681 -0.5466
  906SOL    HW120710  12.845   3.186   7.928 -1.2365 -1.1272 -1.6547
  906SOL    HW220711  12.697   3.162   7.953 -0.7558 -2.7113 -0.1131
  907SOL     OW20712   9.184   4.501   1.668 -0.4205 -0.0655  0.1978
  907SOL    HW120713   9.103   4.452   1.654 -0.4640 -0.1917  0.8386
  907SOL    HW220714   9.234   4.448   1.731  0.1574  0.0142 -0.1795
  908SOL     OW20715   4.438   0.768   8.343  0.1741  0.1830  0.0114
  908SOL    HW120716   4.532   0.787   8.346  0.0506  0.7499  0.6033
  908SOL    HW220717   4.427   0.712   8.266  1.2472 -1.3465  0.9230
  909SOL     OW20718   4.359   7.458  12.514  0.2215  0.3550  0.9658
  909SOL    HW120719   4.370   7.375  12.559  1.2265 -0.3603 -0.5031
  909SOL    HW220720   4.266   7.479  12.523 -0.4690 -1.9038 -0.2356
  910SOL     OW20721   4.359  13.134   0.415 -0.1192  0.7824  0.0306
  910SOL    HW120722   4.439  13.102   0.457 -2.0726 -0.8459  2.7935
  910SOL    HW220723   4.314  13.183   0.484 -1.7818  1.2143 -1.3075
  911SOL     OW20724  12.480   0.901   6.084 -0.5676  0.0523 -0.0337
  911SOL    HW120725  12.490   0.838   6.013  0.1702 -0.1989  0.2916
  911SOL    HW220726  12.569   0.919   6.114 -0.8437  0.4646  0.5644
  912SOL     OW20727   0.133   5.628   8.251 -0.2726 -0.2074  0.5957
  912SOL    HW120728   0.069   5.688   8.213 -1.6564 -1.5073  0.7515
  912SOL    HW220729   0.163   5.671   8.330  0.2364  1.1116 -0.2844
  913SOL     OW20730   9.085   0.524  11.792  0.0621  0.7315 -0.4571
  913SOL    HW120731   9.105   0.606  11.748  0.2652  0.5685 -0.6710
  913SOL    HW220732   9.169   0.492  11.824 -0.2324  1.4076  1.0487
  914SOL     OW20733   4.639  11.731   3.710  0.5349  0.3612  0.0043
  914SOL    HW120734   4.618  11.689   3.626  0.6711  0.5905 -0.1486
  914SOL    HW220735   4.722  11.692   3.736  0.5837  0.4195 -0.0611
  915SOL     OW20736  13.865  13.585   0.063 -0.1924  0.0037  0.7871
  915SOL    HW120737  13.824  13.661   0.021  0.4835  0.3966  0.8269
  915SOL    HW220738  13.889  13.616   0.150  0.5885 -0.0837  0.6097
  916SOL     OW20739   4.962   1.809   8.986 -0.6470 -0.2891 -0.3463
  916SOL    HW120740   4.918   1.872   9.042 -1.1775 -0.9940  0.0547
  916SOL    HW220741   5.016   1.758   9.046  2.0723  1.6082 -1.0258
  917SOL     OW20742   5.562   6.964   2.781  0.1009 -0.3268 -0.2422
  917SOL    HW120743   5.601   6.965   2.868  1.5951 -0.8234 -0.8831
  917SOL    HW220744   5.605   7.036   2.735  0.5988 -1.1541 -1.0973
  918SOL     OW20745   6.250   7.481   0.676  0.1948 -0.2263  0.3144
  918SOL    HW120746   6.262   7.400   0.627  0.1081  0.3580 -0.6850
  918SOL    HW220747   6.325   7.535   0.653 -0.4424  0.5021 -0.0972
  919SOL     OW20748   5.139  13.419   2.964  0.0463 -0.0380 -0.7189
  919SOL    HW120749   5.056  13.373   2.961 -1.1779  1.9659  0.4808
  919SOL    HW220750   5.180  13.401   2.879 -3.1565  1.6217 -2.7993
  920SOL     OW20751   7.774   6.749  11.028 -0.0575 -0.5350 -0.4586
  920SOL    HW120752   7.715   6.815  10.991  1.3929  0.4673 -1.0974
  920SOL    HW220753   7.778   6.769  11.121 -0.2350 -0.1991 -0.5221
  921SOL     OW20754   7.366   3.975  13.616 -0.0642 -0.2347  0.5670
  921SOL    HW120755   7.436   4.039  13.615  1.1243 -1.4828  0.3703
  921SOL    HW220756   7.287   4.025  13.594  0.4147  1.5313  2.5514
  922SOL     OW20757  10.816   2.042  10.203 -0.3993  0.1284  0.3985
  922SOL    HW120758  10.863   2.116  10.165 -1.4944  1.9305  2.3255
  922SOL    HW220759  10.877   2.004  10.266 -0.1638 -0.0037  0.0892
  923SOL     OW20760   6.215  11.627   4.764 -0.5884 -0.6259 -0.1511
  923SOL    HW120761   6.309  11.611   4.748 -0.5379  0.5429 -1.2123
  923SOL    HW220762   6.212  11.666   4.851  0.2379  1.6416 -1.0469
  924SOL     OW20763   9.096   4.588   5.140  0.1064  0.5048 -0.0557
  924SOL    HW120764   9.034   4.661   5.138 -0.0756  0.3893  0.6796
  924SOL    HW220765   9.040   4.510   5.148  0.3185  0.5189  2.8042
  925SOL     OW20766  12.528   0.346  12.188 -0.3810 -0.7491  0.0159
  925SOL    HW120767  12.613   0.308  12.211 -0.1870 -1.1003 -1.2156
  925SOL    HW220768  12.510   0.409  12.258  0.4040 -1.4088  0.8359
  926SOL     OW20769   8.401   7.588  10.446 -0.3264 -0.1566 -0.0598
  926SOL    HW120770   8.408   7.671  10.493 -2.2959 -0.9152  1.6945
  926SOL    HW220771   8.311   7.586  10.415  0.4119 -0.5260 -2.3803
  927SOL     OW20772   0.884   9.883   4.473  0.3242 -0.3446  0.2953
  927SOL    HW120773   0.959   9.929   4.434  0.3344 -1.4281 -1.0412
  927SOL    HW220774   0.919   9.797   4.495 -1.3116 -2.4748 -4.1363
  928SOL     OW20775  10.054   6.311  10.682 -0.0659 -0.4861  0.0924
  928SOL    HW120776   9.991   6.273  10.743  0.1368  0.8261  1.1550
  928SOL    HW220777  10.033   6.270  10.598 -0.9407 -1.6531  0.8430
  929SOL     OW20778   4.085  10.073   9.484 -0.0376  0.1326 -0.6573
  929SOL    HW120779   4.158  10.045   9.429  0.4869  1.8810 -0.8978
  929SOL    HW220780   4.067   9.997   9.540  2.2445 -0.2154 -0.2936
  930SOL     OW20781   7.648   7.598   1.634 -0.0747  0.5998  0.2158
  930SOL    HW120782   7.580   7.647   1.588  0.7767  0.4071 -1.3139
  930SOL    HW220783   7.609   7.513   1.651 -0.3865  0.6656 -0.1757
  931SOL     OW20784   3.833   7.695  11.687  0.3799  0.3476  0.2586
  931SOL    HW120785   3.828   7.620  11.628 -0.5599  1.8599 -1.6620
  931SOL    HW220786   3.923   7.726  11.680  0.3727  0.2901 -0.0631
  932SOL     OW20787   4.418   1.340   7.713  0.6261  0.3489 -0.0447
  932SOL    HW120788   4.323   1.336   7.715  0.4688  2.7033  0.1710
  932SOL    HW220789   4.446   1.267   7.768 -1.1014  0.4889  1.0951
  933SOL     OW20790   6.340   5.965  10.143  0.1113 -0.0327  0.8145
  933SOL    HW120791   6.417   5.911  10.126 -0.2324  0.2199 -2.0084
  933SOL    HW220792   6.266   5.906  10.130 -0.2136  0.1907  1.6062
  934SOL     OW20793   2.510   5.686   2.173  0.3249 -0.8576 -0.7742
  934SOL    HW120794   2.431   5.640   2.142  0.3004 -1.0357 -0.4531
  934SOL    HW220795   2.549   5.625   2.236  0.7350 -0.7819 -0.9561
  935SOL     OW20796   8.199   0.062   4.517 -0.0429 -0.1035  0.2477
  935SOL    HW120797   8.280   0.048   4.566 -0.1370  1.1469  0.8008
  935SOL    HW220798   8.222   0.128   4.451 -1.5335  3.9042  3.2677
  936SOL     OW20799  12.709   4.908   1.267  0.2198 -0.0935 -0.4197
  936SOL    HW120800  12.639   4.911   1.333 -1.2486  0.0612 -1.9173
  936SOL    HW220801  12.717   4.815   1.246  0.6352 -0.1337 -0.1044
  937SOL     OW20802  12.788   7.960   3.587  1.0108 -0.6414 -0.1024
  937SOL    HW120803  12.829   8.044   3.609 -0.5829  0.3234 -0.6484
  937SOL    HW220804  12.745   7.933   3.668 -0.1069  0.0774 -0.4297
  938SOL     OW20805   0.821   2.450   4.568 -0.2165 -0.0977 -0.3489
  938SOL    HW120806   0.757   2.482   4.505 -0.7195 -1.4402 -0.5616
  938SOL    HW220807   0.898   2.430   4.516 -0.3110 -0.3208 -0.4074
  939SOL     OW20808  13.209   1.328   9.947 -0.3268  0.1829  0.0864
  939SOL    HW120809  13.238   1.289  10.030  1.3375  2.3025  0.5720
  939SOL    HW220810  13.271   1.294   9.882 -0.0867  0.4631  0.1659
  940SOL     OW20811   0.612   3.873  11.989 -0.0358  0.3718  0.1827
  940SOL    HW120812   0.597   3.864  11.895 -0.6988 -2.3376  0.4480
  940SOL    HW220813   0.524   3.870  12.027  0.2039  1.8025  0.9081
  941SOL     OW20814   2.784   8.103   2.529  0.1793  0.7310 -0.0243
  941SOL    HW120815   2.788   8.135   2.439 -1.2645  1.4418  0.1351
  941SOL    HW220816   2.730   8.023   2.523 -0.2164  0.9763  0.2512
  942SOL     OW20817  10.320  13.402   2.518  0.6651 -0.3288  0.5192
  942SOL    HW120818  10.315  13.350   2.438  0.8163 -1.9947  1.5336
  942SOL    HW220819  10.228  13.421   2.540  0.6523  2.1619 -1.2129
  943SOL     OW20820   2.643   0.806  10.077 -0.0457  0.4683  0.2921
  943SOL    HW120821   2.631   0.897  10.104 -1.1837  0.3050  0.3917
  943SOL    HW220822   2.584   0.756  10.133 -0.8903 -0.1027 -1.0408
  944SOL     OW20823   4.609   7.897   0.311  0.0810 -0.3155 -0.0015
  944SOL    HW120824   4.628   7.990   0.320 -0.1241 -0.2054 -0.6663
  944SOL    HW220825   4.661   7.855   0.379  1.8725  0.0649 -1.0899
  945SOL     OW20826   7.235   1.474   0.162 -0.0531 -0.2323  0.0551
  945SOL    HW120827   7.256   1.498   0.072  1.1610 -0.8848  0.1486
  945SOL    HW220828   7.250   1.379   0.166 -0.7283 -0.3230  0.7725
  946SOL     OW20829   6.385   0.041   1.086  0.4219  0.5672 -0.0649
  946SOL    HW120830   6.458   0.039   1.148  0.4267  2.1559  0.0169
  946SOL    HW220831   6.330  -0.033   1.112  0.7323  0.8383  1.4744
  947SOL     OW20832  11.651   0.016   3.134 -0.0721 -0.2883  0.6336
  947SOL    HW120833  11.638   0.080   3.065  0.8167 -1.3444 -0.5654
  947SOL    HW220834  11.746   0.010   3.144 -0.0660 -2.1826 -0.0762
  948SOL     OW20835   2.531   4.201   3.490 -0.2361  0.0652  0.7524
  948SOL    HW120836   2.590   4.266   3.527  0.5515 -0.8053  1.0392
  948SOL    HW220837   2.485   4.164   3.566 -1.2680  0.8178  0.5266
  949SOL     OW20838   2.659   5.180  10.595  0.3091 -0.2964 -0.0173
  949SOL    HW120839   2.666   5.202  10.502 -1.6332  1.1506  0.1193
  949SOL    HW220840   2.581   5.125  10.602  1.7081 -2.3519  0.5125
  950SOL     OW20841   9.164  13.707   3.589 -0.0272  0.2253  0.0554
  950SOL    HW120842   9.120  13.773   3.536  0.2742 -0.0709 -0.5666
  950SOL    HW220843   9.257  13.723   3.576  0.0762 -1.2217 -1.2799
  951SOL     OW20844  11.958   8.909   1.783 -0.0637 -1.0178 -0.2867
  951SOL    HW120845  11.909   8.876   1.859 -0.8236 -1.7832 -1.0754
  951SOL    HW220846  12.031   8.958   1.820 -1.1216 -0.3067  0.9367
  952SOL     OW20847   2.659   8.610  10.271 -0.3940 -0.6562  0.6256
  952SOL    HW120848   2.605   8.683  10.241  1.1268  0.3021  0.0805
  952SOL    HW220849   2.630   8.536  10.219 -0.7102  0.0051 -0.1643
  953SOL     OW20850  14.004   8.023   5.758 -0.3871  0.0930  0.4621
  953SOL    HW120851  13.937   8.079   5.799 -0.3030 -0.6160  1.6195
  953SOL    HW220852  14.080   8.030   5.817  0.4995  0.7006 -0.7070
  954SOL     OW20853  12.060   0.148   3.722  0.2354  0.2857 -0.1678
  954SOL    HW120854  11.966   0.151   3.742  0.4338  0.0117  0.8384
  954SOL    HW220855  12.098   0.094   3.792  1.0303 -0.2922 -1.0189
  955SOL     OW20856   4.478  10.705   4.680 -0.4966  0.6055 -0.3185
  955SOL    HW120857   4.498  10.731   4.590  0.5981 -1.0808 -0.6019
  955SOL    HW220858   4.472  10.610   4.677 -1.0041  0.5525  1.3077
  956SOL     OW20859   2.141   9.789   7.473 -0.0306  0.4358 -0.3341
  956SOL    HW120860   2.109   9.837   7.550 -0.0641 -0.7429  0.4161
  956SOL    HW220861   2.070   9.728   7.452  0.7552 -0.5838 -0.1051
  957SOL     OW20862   0.037   8.443  10.059 -0.1383  0.0949 -0.1020
  957SOL    HW120863   0.123   8.484  10.063 -0.1649  0.1220  0.1992
  957SOL    HW220864   0.054   8.352  10.033 -0.1151  0.4143 -1.2391
  958SOL     OW20865  13.121   2.445  11.801  0.3326 -0.1402 -0.4014
  958SOL    HW120866  13.207   2.405  11.784 -0.3232 -2.3323  1.0162
  958SOL    HW220867  13.134   2.500  11.878  0.5218 -0.3047 -0.3142
  959SOL     OW20868  11.828  11.486   7.263  0.2219 -0.3279  0.2713
  959SOL    HW120869  11.903  11.472   7.321 -0.8451  0.4121  1.8953
  959SOL    HW220870  11.828  11.580   7.247 -1.3539 -0.0328  1.7564
  960SOL     OW20871   7.512   0.213   2.019  0.0726  0.0767  0.1045
  960SOL    HW120872   7.588   0.230   1.963  0.7243  0.7694  1.1641
  960SOL    HW220873   7.534   0.132   2.065 -1.6654 -2.1450 -2.5975
  961SOL     OW20874  11.842  11.052  11.225 -0.6467 -0.1556 -0.2322
  961SOL    HW120875  11.829  11.026  11.317 -0.0453  1.6679  0.4162
  961SOL    HW220876  11.802  10.981  11.175  1.0924 -2.4314  1.3428
  962SOL     OW20877  13.955   4.508   1.081 -0.0690 -0.1581  0.0145
  962SOL    HW120878  13.876   4.552   1.048  0.7806  0.0589 -1.8504
  962SOL    HW220879  14.010   4.579   1.113  0.7830  0.1213 -1.8805
  963SOL     OW20880  10.532   6.017   5.699  0.0763 -0.2047  0.0682
  963SOL    HW120881  10.593   6.006   5.771  0.2190 -2.4200 -0.3133
  963SOL    HW220882  10.455   5.967   5.725 -0.8354  0.9856 -0.2838
  964SOL     OW20883   8.655   4.066   7.112 -0.2241  0.5836  0.2691
  964SOL    HW120884   8.580   4.021   7.073  0.0445  1.3487 -1.2237
  964SOL    HW220885   8.731   4.014   7.086  0.0087  1.3843 -0.7619
  965SOL     OW20886   7.482   8.464   7.825 -0.3400 -0.0778  0.2045
  965SOL    HW120887   7.570   8.464   7.863  0.1291  1.7651 -0.7744
  965SOL    HW220888   7.423   8.461   7.901  0.5615  0.2541  0.9402
  966SOL     OW20889  12.542   5.475  12.800  0.5565  0.3288 -0.0281
  966SOL    HW120890  12.471   5.473  12.736 -0.1817  0.2784  0.7714
  966SOL    HW220891  12.514   5.540  12.865 -0.7050 -2.4537  2.4562
  967SOL     OW20892   3.610  12.911   9.237 -0.2910 -0.5129  0.2870
  967SOL    HW120893   3.650  12.953   9.313 -0.9573  0.5348  0.0854
  967SOL    HW220894   3.519  12.938   9.240 -0.2525 -0.1208 -1.0850
  968SOL     OW20895  14.057  13.137   0.670  0.5415 -0.0615  0.3310
  968SOL    HW120896  13.971  13.157   0.635  0.9309 -0.5851 -0.9753
  968SOL    HW220897  14.095  13.075   0.608  1.3606 -0.8468  1.5651
  969SOL     OW20898   0.839   2.399   0.432  0.4714 -0.0088 -0.2268
  969SOL    HW120899   0.910   2.403   0.495  0.1957  1.8234  0.0176
  969SOL    HW220900   0.882   2.386   0.348  1.2214  2.0027 -0.2101
  970SOL     OW20901   9.195   3.494  12.554  0.0971  0.7073  0.4041
  970SOL    HW120902   9.270   3.464  12.604 -0.3618  0.1991  0.8048
  970SOL    HW220903   9.133   3.420  12.557 -0.5474  1.2356  0.3545
  971SOL     OW20904   5.157   6.911  12.668 -0.2033  0.1927  0.0144
  971SOL    HW120905   5.153   6.997  12.626 -2.6915  1.1386  1.8801
  971SOL    HW220906   5.180   6.930  12.759 -0.4610 -1.1532  0.3840
  972SOL     OW20907   9.575  13.682   8.083  0.4129  0.1691  0.1716
  972SOL    HW120908   9.503  13.711   8.027  0.7293  1.0743  0.2017
  972SOL    HW220909   9.625  13.621   8.028  0.5116  0.7606 -0.4179
  973SOL     OW20910  10.498  12.265   9.340 -0.0906  0.3690 -0.0566
  973SOL    HW120911  10.433  12.247   9.272  0.8850  3.3135 -1.9529
  973SOL    HW220912  10.557  12.189   9.337 -2.2387 -1.3989  0.3189
  974SOL     OW20913   7.152   9.900   1.332  0.2188 -0.0578 -0.4505
  974SOL    HW120914   7.144   9.845   1.410  0.1553  2.1767  1.2157
  974SOL    HW220915   7.236   9.875   1.294  1.1892  0.1226  1.4441
  975SOL     OW20916   4.200  13.622   9.842  0.2786 -0.3173 -0.6736
  975SOL    HW120917   4.208  13.650   9.933 -3.3969 -1.7378  0.2884
  975SOL    HW220918   4.197  13.526   9.846 -0.0183 -0.4077 -2.2535
  976SOL     OW20919   1.768   9.846   9.553  0.6725  0.1542 -0.1473
  976SOL    HW120920   1.801   9.827   9.465  1.3954 -0.9842  0.3577
  976SOL    HW220921   1.767   9.762   9.598 -1.5238  0.3905  0.3539
  977SOL     OW20922   5.687  11.343  11.089 -0.5021 -0.3962  0.1282
  977SOL    HW120923   5.771  11.388  11.099 -1.1431  1.2174 -1.4183
  977SOL    HW220924   5.655  11.368  11.003 -2.1505 -1.7477  0.2806
  978SOL     OW20925   1.988  13.707   1.685 -0.3902 -0.0080 -0.3866
  978SOL    HW120926   1.977  13.638   1.750  1.2745  2.3756  2.7298
  978SOL    HW220927   2.073  13.691   1.645 -1.2626 -1.2808 -1.8263
  979SOL     OW20928   4.957  10.724  14.113  0.4182  0.0793 -0.6727
  979SOL    HW120929   4.935  10.725  14.020  1.3148  2.7508 -0.9406
  979SOL    HW220930   5.044  10.765  14.117  0.9738 -1.1756  1.2414
  980SOL     OW20931   0.503   4.292   0.250 -0.6274 -0.1579  0.1178
  980SOL    HW120932   0.509   4.271   0.343 -1.2446 -0.0505  0.1900
  980SOL    HW220933   0.477   4.210   0.208  2.8163 -1.1160 -0.4336
  981SOL     OW20934   4.396   7.440   3.741  0.1872  0.1586  0.5019
  981SOL    HW120935   4.374   7.361   3.790 -0.8921  0.2792  0.2476
  981SOL    HW220936   4.364   7.512   3.795  1.1423  0.4341  0.7203
  982SOL     OW20937   6.786  14.134   2.562  0.1217 -0.5700  0.2378
  982SOL    HW120938   6.739  14.062   2.605 -0.0223 -0.9175 -0.4816
  982SOL    HW220939   6.744  14.141   2.476 -1.0078  1.5038  0.8978
  983SOL     OW20940   7.657  12.194  11.949 -0.5359 -0.1849 -0.0494
  983SOL    HW120941   7.714  12.117  11.949 -0.7850 -0.3791 -0.5897
  983SOL    HW220942   7.633  12.204  11.857 -1.9208 -0.5154  0.2578
  984SOL     OW20943   0.078  13.565  10.168 -0.0317  0.2342  0.4798
  984SOL    HW120944   0.160  13.567  10.118  0.8360  0.1813  1.8493
  984SOL    HW220945   0.017  13.516  10.112  1.0319 -0.1996 -0.3353
  985SOL     OW20946   9.895  12.709   1.288 -0.3036 -0.3158 -0.4096
  985SOL    HW120947   9.962  12.715   1.357 -0.4385 -0.9054 -0.2151
  985SOL    HW220948   9.812  12.704   1.336 -0.2514 -4.2126 -0.3487
  986SOL     OW20949  14.054   5.057   3.576 -0.6872  0.4563 -0.0278
  986SOL    HW120950  14.145   5.030   3.568 -0.7042  0.9109 -2.3918
  986SOL    HW220951  14.052   5.112   3.655  1.0999  0.5830 -0.0338
  987SOL     OW20952   7.816   6.946   8.470  0.3953  0.2965  0.8652
  987SOL    HW120953   7.743   6.999   8.501  0.5005  0.7709  0.3224
  987SOL    HW220954   7.893   7.000   8.488  0.3607  1.2829 -1.5717
  988SOL     OW20955   9.708  11.764   1.768  0.3929 -0.8975  0.3610
  988SOL    HW120956   9.681  11.790   1.856  1.3061 -3.6447  1.5783
  988SOL    HW220957   9.629  11.730   1.728  0.0511  0.0330  0.2149
  989SOL     OW20958   2.400   1.062  13.436  0.0131  0.1229 -0.8447
  989SOL    HW120959   2.310   1.033  13.455  0.7668 -0.6134  2.0990
  989SOL    HW220960   2.453   0.983  13.443  1.0836  0.7922 -1.0829
  990SOL     OW20961  12.724   3.414   9.069  0.0427 -0.2700 -0.1686
  990SOL    HW120962  12.773   3.405   9.151  1.5618 -0.0219 -1.0110
  990SOL    HW220963  12.694   3.325   9.050  3.7587 -1.3987 -1.7011
  991SOL     OW20964   2.084  12.936   7.766  0.4636 -0.1085 -0.3266
  991SOL    HW120965   2.028  12.956   7.841  1.4743 -0.6998  0.6048
  991SOL    HW220966   2.142  13.012   7.758  2.0447 -1.0810  1.1127
  992SOL     OW20967   7.644   9.734   2.939  0.8888  0.1281 -0.6590
  992SOL    HW120968   7.586   9.804   2.910  1.2059  0.4312 -0.5765
  992SOL    HW220969   7.605   9.653   2.905 -0.3883  0.1584  0.6607
  993SOL     OW20970  13.996   3.217   5.601 -0.0861 -0.1019 -0.1292
  993SOL    HW120971  14.081   3.188   5.566 -0.5215 -0.9897 -0.4798
  993SOL    HW220972  14.014   3.238   5.692  1.0351  2.0342 -0.7547
  994SOL     OW20973  13.106   7.824  11.744 -0.2944 -0.2539  0.0918
  994SOL    HW120974  13.062   7.904  11.773 -0.1756  0.0702 -0.5896
  994SOL    HW220975  13.170   7.855  11.679  1.4678 -0.6186  1.5647
  995SOL     OW20976   4.715   0.275   3.069  0.5121 -0.0493  0.5271
  995SOL    HW120977   4.765   0.301   3.146  0.0509  0.4978  0.6532
  995SOL    HW220978   4.694   0.357   3.026 -0.8040 -0.2033  0.8187
  996SOL     OW20979  13.111  11.842  10.771  0.2350 -0.5538 -0.2347
  996SOL    HW120980  13.118  11.878  10.859 -0.2444 -1.1340  0.0502
  996SOL    HW220981  13.196  11.798  10.756 -0.3348 -2.0495  0.6843
  997SOL     OW20982  13.964   6.687   5.300 -0.1923 -0.3207 -0.1437
  997SOL    HW120983  13.898   6.650   5.359 -0.0518  1.0436  0.9490
  997SOL    HW220984  14.014   6.612   5.269 -1.4107 -1.2546  0.0537
  998SOL     OW20985   2.752   4.277   1.183  0.1859 -0.0759 -0.5902
  998SOL    HW120986   2.820   4.264   1.116  0.0628  0.3755 -0.8043
  998SOL    HW220987   2.688   4.335   1.141  0.3145  0.5488  0.0661
  999SOL     OW20988   6.132   6.740   4.482 -0.0840 -0.1118 -0.3091
  999SOL    HW120989   6.049   6.715   4.521 -0.7037  1.0303 -0.8551
  999SOL    HW220990   6.140   6.834   4.502  1.4548 -0.3587  0.4239
 1000SOL     OW20991   2.691  13.053   5.377  0.2306 -0.1857  0.2956
 1000SOL    HW120992   2.743  12.975   5.358 -0.1343 -0.7899  1.6277
 1000SOL    HW220993   2.752  13.112   5.423 -0.4212 -1.2832  2.7208
 1001SOL     OW20994   1.171   7.902   4.923  0.8545 -0.1109 -0.1658
 1001SOL    HW120995   1.262   7.874   4.930  0.8013 -0.0444  0.9763
 1001SOL    HW220996   1.122   7.836   4.972  0.0140 -1.3013 -2.4821
 1002SOL     OW20997  12.405  12.827  10.741 -0.0059 -0.0942 -0.1515
 1002SOL    HW120998  12.322  12.782  10.754  0.6615 -0.9857  1.2706
 1002SOL    HW220999  12.450  12.775  10.674 -0.2026 -0.1520 -0.2400
 1003SOL     OW21000   3.668   4.461  11.800  0.5564 -0.4414  0.1437
 1003SOL    HW121001   3.600   4.518  11.764  1.3571  0.9277  0.7491
 1003SOL    HW221002   3.729   4.448  11.727  0.5886 -0.1739  0.1226
 1004SOL     OW21003   4.667   6.675   7.331 -0.1760  0.4533 -0.4257
 1004SOL    HW121004   4.650   6.732   7.406  0.1263  0.1516 -0.1265
 1004SOL    HW221005   4.582   6.665   7.289 -0.0262  2.2064 -1.2636
 1005SOL     OW21006   7.202   6.024   5.110 -0.1804 -0.2841  0.1817
 1005SOL    HW121007   7.256   6.095   5.076  1.1407 -1.0200  0.6961
 1005SOL    HW221008   7.118   6.035   5.065  0.5758  0.5033 -1.1075
 1006SOL     OW21009   5.950   3.691   1.560  0.2349 -0.1228 -0.0371
 1006SOL    HW121010   5.896   3.630   1.510  2.5413 -2.0904 -0.2814
 1006SOL    HW221011   5.907   3.696   1.646 -0.9176 -0.7366 -0.5552
 1007SOL     OW21012  12.487   7.494   4.605 -0.1170  0.3175  0.2486
 1007SOL    HW121013  12.415   7.520   4.663 -2.1908  1.0731 -2.4754
 1007SOL    HW221014  12.499   7.401   4.622 -2.1304  0.0579  0.3976
 1008SOL     OW21015   1.823  11.298   8.387  0.2952 -0.6862 -0.0360
 1008SOL    HW121016   1.901  11.346   8.358 -0.3496  0.0600 -0.5659
 1008SOL    HW221017   1.760  11.366   8.412 -0.6056 -1.2499 -0.7188
 1009SOL     OW21018   1.407   9.209  12.637  0.2249  0.5660  0.6479
 1009SOL    HW121019   1.325   9.256  12.654  0.6183  1.4388  0.1779
 1009SOL    HW221020   1.455   9.212  12.719  0.3741  1.2579  0.5430
 1010SOL     OW21021   9.267   1.577  12.288  0.0762 -0.0240 -1.1954
 1010SOL    HW121022   9.284   1.580  12.194 -0.2685  0.4239 -1.2449
 1010SOL    HW221023   9.236   1.665  12.310 -3.3262 -1.0721 -1.3395
 1011SOL     OW21024  10.533   9.993  12.791  0.1812 -0.0351  0.4683
 1011SOL    HW121025  10.591   9.953  12.726 -0.6638  1.6661 -1.4432
 1011SOL    HW221026  10.511   9.922  12.851  0.1064 -2.0146 -1.7596
 1012SOL     OW21027   9.971   6.731   1.270 -0.1116  0.5481 -0.2314
 1012SOL    HW121028   9.921   6.774   1.339 -0.8475  2.1975 -1.7299
 1012SOL    HW221029  10.063   6.742   1.296 -0.3893  0.3213  0.9139
 1013SOL     OW21030  12.845   3.254  13.775 -0.8224 -0.4931 -0.5042
 1013SOL    HW121031  12.858   3.281  13.684 -2.0222 -0.0060 -0.5436
 1013SOL    HW221032  12.876   3.328  13.827  0.8041 -1.1588 -0.4580
 1014SOL     OW21033  12.137   2.473  12.094 -0.1725 -0.3257  0.4588
 1014SOL    HW121034  12.071   2.481  12.163 -0.9663  0.4045 -0.3538
 1014SOL    HW221035  12.118   2.545  12.034 -0.7405 -2.0426 -1.5535
 1015SOL     OW21036   5.335   2.125  13.082 -0.2299  0.3367  0.0974
 1015SOL    HW121037   5.423   2.124  13.045 -0.4902  0.0422 -0.5247
 1015SOL    HW221038   5.306   2.034  13.079  0.0088  0.1774  1.7058
 1016SOL     OW21039   9.917   3.212   5.012  0.6065 -0.0659 -0.0580
 1016SOL    HW121040   9.927   3.279   5.080  1.7456 -1.3737  1.1429
 1016SOL    HW221041   9.840   3.162   5.038  1.1665 -0.7013  0.4457
 1017SOL     OW21042  11.331  13.822  12.340 -0.4409 -0.0936  0.2248
 1017SOL    HW121043  11.346  13.729  12.355 -1.2703 -0.3898 -0.6936
 1017SOL    HW221044  11.415  13.863  12.361  0.1400 -1.1178 -0.0062
 1018SOL     OW21045   1.401   0.923   3.365  0.1549 -0.2329 -0.1881
 1018SOL    HW121046   1.388   1.008   3.409 -1.1050 -0.6226  0.2457
 1018SOL    HW221047   1.367   0.859   3.427  1.4043 -1.1078 -0.3720
 1019SOL     OW21048  12.003  12.981   6.217 -0.1683 -0.1738 -0.1485
 1019SOL    HW121049  11.985  13.025   6.301 -0.8660 -1.7473  0.5514
 1019SOL    HW221050  11.923  12.992   6.166 -1.6192 -3.2511  1.2381
 1020SOL     OW21051   9.080   6.943  13.795 -0.4542 -0.3077 -0.0805
 1020SOL    HW121052   8.996   6.959  13.751 -1.6846  1.5683  2.6347
 1020SOL    HW221053   9.125   7.028  13.791  0.6509 -0.8801 -0.1518
 1021SOL     OW21054  12.083  12.527   4.905  0.3582  0.3492 -0.6362
 1021SOL    HW121055  12.033  12.450   4.931 -0.7251  0.1870 -2.9779
 1021SOL    HW221056  12.155  12.491   4.853  1.5379  0.7646  0.6581
 1022SOL     OW21057   1.969   0.819   5.899 -0.6683  1.2306  0.1003
 1022SOL    HW121058   1.880   0.816   5.864 -0.3828  2.5514 -0.8329
 1022SOL    HW221059   2.024   0.800   5.823 -0.1744 -2.7604  1.2759
 1023SOL     OW21060   1.956  10.362   6.744 -0.7497 -0.4384  0.1040
 1023SOL    HW121061   1.921  10.284   6.701 -0.8344  0.5766 -1.7454
 1023SOL    HW221062   1.896  10.377   6.817 -2.2003 -0.6863 -0.9865
 1024SOL     OW21063   3.810   0.908   4.328  0.2663 -0.0869  0.3602
 1024SOL    HW121064   3.791   0.995   4.362 -0.1495  0.1524 -0.4549
 1024SOL    HW221065   3.849   0.861   4.402  0.6384  0.8306  0.7603
 1025SOL     OW21066   5.547  12.761  12.844 -0.5541 -0.2224  0.1937
 1025SOL    HW121067   5.524  12.672  12.819 -0.2841 -0.1301 -0.3981
 1025SOL    HW221068   5.529  12.813  12.766  0.5139  0.0330  0.1059
 1026SOL     OW21069   0.539   9.208  14.037  0.4343  0.1714  0.3959
 1026SOL    HW121070   0.585   9.272  14.091  0.5518  1.6662 -1.3719
 1026SOL    HW221071   0.601   9.185  13.968  0.1122 -1.2876  0.5534
 1027SOL     OW21072   2.730   9.920   3.757  0.2694  0.3228 -0.8945
 1027SOL    HW121073   2.768   9.872   3.831 -1.5533 -0.4938 -0.4247
 1027SOL    HW221074   2.798   9.917   3.689  1.5348  0.0954  0.3309
 1028SOL     OW21075   5.190   4.567   1.945 -0.5559 -0.5418  0.2337
 1028SOL    HW121076   5.104   4.528   1.957 -1.0428  0.1234 -0.8943
 1028SOL    HW221077   5.213   4.604   2.030 -2.1204  0.6762  0.1691
 1029SOL     OW21078  10.242   6.757   7.830  0.7869 -0.4512 -0.1346
 1029SOL    HW121079  10.296   6.756   7.751 -0.8682  0.1143 -1.3383
 1029SOL    HW221080  10.293   6.709   7.895  2.1701 -1.0089 -1.5709
 1030SOL     OW21081   1.454   4.414   0.297 -0.0172  0.3399  0.2181
 1030SOL    HW121082   1.509   4.482   0.336  1.6883 -0.3771 -0.7964
 1030SOL    HW221083   1.419   4.455   0.217  2.3956 -0.4120 -1.3247
 1031SOL     OW21084   8.197  10.260   3.167  0.3645  0.1444  0.1270
 1031SOL    HW121085   8.209  10.171   3.200  1.3902 -0.2701 -1.2543
 1031SOL    HW221086   8.275  10.307   3.198  0.8669 -0.0063 -0.8627
 1032SOL     OW21087   6.030   4.969   8.542  0.2252  0.1150  0.2993
 1032SOL    HW121088   5.963   4.903   8.560  0.0282  0.4038  0.6327
 1032SOL    HW221089   6.105   4.919   8.510 -0.2932 -0.1733 -0.4872
 1033SOL     OW21090   2.495   7.850   3.548  0.1716 -0.0914  0.1515
 1033SOL    HW121091   2.524   7.941   3.538 -1.1311  0.2162 -1.1461
 1033SOL    HW221092   2.529   7.823   3.633  0.1394  1.7806  0.7917
 1034SOL     OW21093   7.702  12.258  13.866 -0.0009  0.1168 -0.1140
 1034SOL    HW121094   7.707  12.162  13.869 -1.2575  0.0479  0.9393
 1034SOL    HW221095   7.736  12.286  13.951 -1.6324  0.4552  0.4607
 1035SOL     OW21096   9.886   2.090   1.296  0.6728 -0.0270 -0.5202
 1035SOL    HW121097   9.845   2.177   1.286 -1.1162 -0.7370  0.1537
 1035SOL    HW221098   9.923   2.091   1.384  0.4990 -0.0024 -0.4463
 1036SOL     OW21099  11.853  12.520   0.011  0.1663 -0.1491 -0.0157
 1036SOL    HW121100  11.943  12.504  -0.017  0.0043 -0.1208 -0.5763
 1036SOL    HW221101  11.860  12.549   0.102  0.5508 -2.3621  0.7119
 1037SOL     OW21102   3.370   4.060   3.963 -0.3782  0.3440 -0.3428
 1037SOL    HW121103   3.397   4.104   3.883  3.3536  0.8224  0.9598
 1037SOL    HW221104   3.355   3.969   3.937  1.2347  0.3830 -1.5543
 1038SOL     OW21105  10.728   3.244   4.021  0.2824  0.3867  0.1030
 1038SOL    HW121106  10.662   3.303   3.985  0.7863  0.1985 -1.1937
 1038SOL    HW221107  10.806   3.298   4.031  0.5493  0.1085 -0.4394
 1039SOL     OW21108  12.906   7.030   2.773  0.1073 -0.1810 -0.2808
 1039SOL    HW121109  12.926   6.939   2.752  0.1193  0.2484 -2.3018
 1039SOL    HW221110  12.856   7.025   2.854 -0.3799 -2.0340 -0.6482
 1040SOL     OW21111  13.209   3.620  12.273  0.0361 -0.2900  0.3155
 1040SOL    HW121112  13.157   3.586  12.200 -0.4814 -0.1089  0.5988
 1040SOL    HW221113  13.174   3.577  12.350 -1.0560  1.3102  0.7701
 1041SOL     OW21114   3.668   9.950   8.000 -0.4760 -0.3985 -0.2597
 1041SOL    HW121115   3.707   9.936   8.086  0.2577 -1.2253 -0.7075
 1041SOL    HW221116   3.738   9.991   7.949 -0.7622 -0.3091 -0.5799
 1042SOL     OW21117   6.159   9.078   2.274  0.0995  0.0023 -0.3777
 1042SOL    HW121118   6.067   9.101   2.287 -0.2604 -2.1665  1.6084
 1042SOL    HW221119   6.160   9.025   2.194 -0.0459  1.3863 -1.3419
 1043SOL     OW21120   9.190   3.797  10.775  0.6153 -0.0977 -0.1279
 1043SOL    HW121121   9.273   3.759  10.804  0.6136 -0.5429 -0.6869
 1043SOL    HW221122   9.175   3.757  10.689  1.2091  2.0634 -1.2900
 1044SOL     OW21123  10.538   5.290   7.733 -0.6000 -0.1072 -0.3394
 1044SOL    HW121124  10.459   5.264   7.686  0.3733 -0.4929 -1.8462
 1044SOL    HW221125  10.599   5.315   7.664  0.4622  0.5758  0.8144
 1045SOL     OW21126   4.501  11.787   6.211  0.1129  0.4582  0.5782
 1045SOL    HW121127   4.572  11.758   6.269  1.5042 -0.4790 -1.4829
 1045SOL    HW221128   4.443  11.712   6.205  1.0130 -0.1796 -0.7130
 1046SOL     OW21129  10.569   1.457   1.357 -0.0951  0.3445  0.1465
 1046SOL    HW121130  10.603   1.546   1.356 -0.1532  0.3691  0.2671
 1046SOL    HW221131  10.535   1.446   1.446 -1.3605  0.6865 -0.2716
 1047SOL     OW21132   7.284  12.923   8.216 -0.0722 -0.1423 -0.1470
 1047SOL    HW121133   7.256  12.843   8.170  0.5912 -1.1357  1.1074
 1047SOL    HW221134   7.214  12.940   8.279  1.2569 -1.6748  1.8512
 1048SOL     OW21135   6.228   3.017   9.381 -0.2908  0.1397 -0.3757
 1048SOL    HW121136   6.133   3.004   9.378 -0.3550  0.7168 -1.4856
 1048SOL    HW221137   6.240   3.091   9.440 -0.4713 -0.3707  0.3119
 1049SOL     OW21138   1.345   0.250   0.552  0.5855  0.1499  0.5322
 1049SOL    HW121139   1.333   0.314   0.482  0.7096  0.6746  0.9833
 1049SOL    HW221140   1.295   0.174   0.523  1.9279 -0.2577 -0.9069
 1050SOL     OW21141  13.611   0.836  12.559  0.6561 -0.3456  0.2123
 1050SOL    HW121142  13.547   0.770  12.534  1.4829 -0.2476 -2.3960
 1050SOL    HW221143  13.695   0.791  12.556  1.0782  0.4400 -0.0859
 1051SOL     OW21144   6.696   5.937   0.109  0.7082  0.3567  0.1750
 1051SOL    HW121145   6.760   5.917   0.178  0.0562 -0.4346  0.5605
 1051SOL    HW221146   6.699   5.860   0.051 -0.5847 -0.1426  0.7324
 1052SOL     OW21147  13.790  11.193   1.027 -0.3601 -0.6913 -0.3372
 1052SOL    HW121148  13.756  11.178   1.115  1.6567 -0.9891  0.4608
 1052SOL    HW221149  13.759  11.119   0.976  0.1975 -1.6808  0.7063
 1053SOL     OW21150  14.124  10.287  13.489  0.1502  0.1644 -0.9934
 1053SOL    HW121151  14.214  10.282  13.522  0.6723  1.3689 -2.1732
 1053SOL    HW221152  14.080  10.346  13.549  0.9789  1.9839 -2.0961
 1054SOL     OW21153   3.820   5.737   2.654  0.5044 -0.2329  0.0169
 1054SOL    HW121154   3.849   5.715   2.566 -0.7435  1.0201 -0.7428
 1054SOL    HW221155   3.883   5.803   2.684  1.6643 -1.5482  0.5919
 1055SOL     OW21156   8.845  11.565   2.067  0.0206 -0.7168 -0.1522
 1055SOL    HW121157   8.811  11.496   2.124 -2.5947  0.4000 -0.2225
 1055SOL    HW221158   8.868  11.636   2.128 -1.3996 -0.0636 -0.3602
 1056SOL     OW21159   2.263   0.967   5.968  0.0207 -0.2024 -0.1702
 1056SOL    HW121160   2.290   0.944   6.057 -2.7316 -0.7966  0.5889
 1056SOL    HW221161   2.230   0.885   5.931 -0.0483  0.3163 -1.2925
 1057SOL     OW21162   9.318  13.173  12.722 -0.2783  0.5068 -0.0094
 1057SOL    HW121163   9.341  13.082  12.700 -0.0940 -0.1198  2.5176
 1057SOL    HW221164   9.253  13.197  12.656 -1.0278 -1.7932 -0.2147
 1058SOL     OW21165  11.615  13.806  12.344  0.1469  0.4926 -0.6385
 1058SOL    HW121166  11.706  13.831  12.362  0.1695 -0.6888  1.1016
 1058SOL    HW221167  11.615  13.780  12.252  1.5525  0.5938 -0.6901
 1059SOL     OW21168   4.027  10.574   4.002 -0.0779  0.5751  0.4816
 1059SOL    HW121169   3.950  10.627   3.983  0.5266  0.9766 -0.9852
 1059SOL    HW221170   4.003  10.485   3.976 -0.3674  0.5041  0.9688
 1060SOL     OW21171  13.256  12.475   7.425  0.0826 -0.1236  0.1962
 1060SOL    HW121172  13.231  12.405   7.485  0.0688 -2.0403 -1.9214
 1060SOL    HW221173  13.291  12.544   7.481 -0.9288 -1.3608  2.4552
 1061SOL     OW21174  10.552   1.184   8.347  0.7463  0.1410 -0.1868
 1061SOL    HW121175  10.521   1.114   8.405 -1.1202  0.6996 -0.4252
 1061SOL    HW221176  10.594   1.138   8.274  0.4406 -0.6866  0.1437
 1062SOL     OW21177  13.552   7.994   5.876 -0.1530  0.4349  0.2033
 1062SOL    HW121178  13.520   7.982   5.965  1.3863  2.8176  1.1948
 1062SOL    HW221179  13.632   7.942   5.872 -0.9519 -0.7831 -0.2867
 1063SOL     OW21180   8.526   5.566   8.231 -0.2201 -0.4276  0.4237
 1063SOL    HW121181   8.614   5.569   8.194 -1.1109 -0.4679 -1.8547
 1063SOL    HW221182   8.501   5.474   8.226 -1.0828 -0.1438 -0.7483
 1064SOL     OW21183  10.486   7.447  13.264  0.5091  0.5730 -0.1864
 1064SOL    HW121184  10.548   7.443  13.191  0.0053 -3.2612 -0.6015
 1064SOL    HW221185  10.400   7.434  13.224 -0.1615  1.5562  0.8376
 1065SOL     OW21186   7.810   4.814   3.702  0.0444 -0.1464  0.0156
 1065SOL    HW121187   7.796   4.774   3.616  0.1226 -1.0075  0.3949
 1065SOL    HW221188   7.874   4.758   3.745  2.5001  2.0365 -0.5420
 1066SOL     OW21189   8.108  10.924  13.014 -0.0846 -0.1885 -0.0213
 1066SOL    HW121190   8.165  10.861  12.970 -0.4697 -0.1138 -0.6467
 1066SOL    HW221191   8.167  10.993  13.044  0.1838 -0.2063 -0.4904
 1067SOL     OW21192   1.024  12.032   7.493 -0.0608  0.0200  0.4628
 1067SOL    HW121193   0.978  12.049   7.411 -0.0994 -2.8148 -0.2006
 1067SOL    HW221194   0.975  12.083   7.558 -3.4937 -1.8531 -0.3988
 1068SOL     OW21195  12.436   7.326  11.248  0.2593  0.4105 -0.5103
 1068SOL    HW121196  12.481   7.401  11.210 -1.1464  0.9330 -1.2074
 1068SOL    HW221197  12.346   7.333  11.216  0.0208 -1.4020 -0.3334
 1069SOL     OW21198  13.138   1.430   5.596 -0.0485  0.2815  0.0066
 1069SOL    HW121199  13.100   1.483   5.526 -3.0783  0.7161  1.8003
 1069SOL    HW221200  13.114   1.340   5.573  0.1835  0.2749 -0.2120
 1070SOL     OW21201   0.051  10.390   2.988  0.3429  0.7170  0.2840
 1070SOL    HW121202   0.036  10.320   2.924 -0.1274  1.9333 -1.0177
 1070SOL    HW221203   0.019  10.469   2.943  0.2441  1.6609  1.9501
 1071SOL     OW21204  12.052   0.131   9.023  0.4278 -0.3959  0.2916
 1071SOL    HW121205  12.066   0.044   9.062  1.5009 -0.3571  0.0246
 1071SOL    HW221206  12.029   0.187   9.098  0.2058 -0.7989  0.5321
 1072SOL     OW21207   6.873  10.523  12.049  0.4673 -0.0709  0.3345
 1072SOL    HW121208   6.914  10.495  11.967  0.9464 -0.3226  0.6551
 1072SOL    HW221209   6.930  10.487  12.118 -0.3872 -0.5920  0.7903
 1073SOL     OW21210   1.852   6.221  11.033  0.2960 -0.4191  0.2149
 1073SOL    HW121211   1.796   6.250  11.105 -0.1110 -0.3494 -0.1216
 1073SOL    HW221212   1.905   6.150  11.070 -0.8036 -1.2491  0.2384
 1074SOL     OW21213   3.319   1.267   0.322 -0.0539  0.5692  0.6478
 1074SOL    HW121214   3.353   1.342   0.274  1.3917 -0.4140  0.0595
 1074SOL    HW221215   3.381   1.254   0.394  0.2715 -0.6358  0.1714
 1075SOL     OW21216   2.394   6.304  12.718 -0.2569 -0.1554 -0.2284
 1075SOL    HW121217   2.336   6.291  12.643 -1.9618  0.2280  0.9406
 1075SOL    HW221218   2.375   6.230  12.776 -0.5129  0.6201  0.7101
 1076SOL     OW21219  12.004  10.904  11.711 -0.6222  0.0026  0.2250
 1076SOL    HW121220  12.074  10.969  11.714  0.1298 -0.8064  0.4855
 1076SOL    HW221221  11.952  10.928  11.634  1.6542 -1.1270 -1.7788
 1077SOL     OW21222   7.796   7.681  13.004 -0.2327  0.2226  0.6121
 1077SOL    HW121223   7.706   7.709  13.021 -0.1471  0.6354  0.3927
 1077SOL    HW221224   7.850   7.744  13.050  0.0050  1.4264 -1.2146
 1078SOL     OW21225   3.349   9.820   2.787  0.1155 -0.1206  0.3030
 1078SOL    HW121226   3.429   9.871   2.803  0.0932 -0.1869  0.6331
 1078SOL    HW221227   3.278   9.884   2.790  0.1633 -0.0520 -0.0502
 1079SOL     OW21228   1.800   3.131  13.896 -0.3669  0.1032 -0.0343
 1079SOL    HW121229   1.886   3.172  13.883  0.5402 -1.0684  1.7851
 1079SOL    HW221230   1.738   3.204  13.896  0.2786  0.8201 -3.3119
 1080SOL     OW21231   7.181  10.172   9.442 -0.2310  0.0292  0.0553
 1080SOL    HW121232   7.221  10.192   9.358  1.0083  0.9050  0.8111
 1080SOL    HW221233   7.160  10.079   9.438  1.8589 -0.4752 -0.4321
 1081SOL     OW21234   4.043   8.476  10.209  0.0124 -0.2140 -0.0275
 1081SOL    HW121235   4.124   8.435  10.239  1.2304  0.5328 -2.0691
 1081SOL    HW221236   3.997   8.406  10.162 -1.1297 -0.9469  2.0815
 1082SOL     OW21237  12.986  13.409  11.656  0.3974  0.4152  0.2290
 1082SOL    HW121238  12.920  13.369  11.713  0.5291 -0.0136  0.0843
 1082SOL    HW221239  13.063  13.420  11.713  0.4264  0.2723  0.2190
 1083SOL     OW21240  10.547  13.741  10.025 -0.2975  0.1078  0.7448
 1083SOL    HW121241  10.599  13.729   9.946 -0.1848  1.9118  0.4828
 1083SOL    HW221242  10.587  13.683  10.090  0.7508 -0.0547 -0.0201
 1084SOL     OW21243   7.130  11.411   0.895  0.0477 -0.2640 -0.1169
 1084SOL    HW121244   7.097  11.490   0.938 -0.6897  0.1715 -1.4099
 1084SOL    HW221245   7.186  11.445   0.824 -0.1465 -0.9050 -0.5827
 1085SOL     OW21246  10.249  13.725   8.288  0.0228 -0.1782  0.5091
 1085SOL    HW121247  10.327  13.738   8.233 -0.7111  0.9935 -0.3017
 1085SOL    HW221248  10.178  13.709   8.225 -0.4999 -0.7246  1.2199
 1086SOL     OW21249   6.109   7.954   0.831  0.2460 -0.4476  0.6468
 1086SOL    HW121250   6.177   8.007   0.873  0.2038 -0.5475  0.8413
 1086SOL    HW221251   6.145   7.865   0.830 -0.4995 -0.8014  2.1461
 1087SOL     OW21252   7.542   0.065  13.239 -0.7311  0.4100 -0.5071
 1087SOL    HW121253   7.484   0.066  13.315  1.3452  0.0126  1.1962
 1087SOL    HW221254   7.544  -0.026  13.211 -0.3058  0.2591 -0.0145
 1088SOL     OW21255   2.975   3.554   2.890 -0.0347 -0.0002 -0.0013
 1088SOL    HW121256   3.062   3.592   2.879 -0.0184  0.1554  0.6148
 1088SOL    HW221257   2.942   3.593   2.971  0.0114 -1.3489  0.6867
 1089SOL     OW21258   7.288   6.617   3.324  0.3271 -0.0254  0.5194
 1089SOL    HW121259   7.235   6.633   3.402 -0.4470 -1.1792  0.2628
 1089SOL    HW221260   7.334   6.535   3.342  2.8538  1.4091  1.1284
 1090SOL     OW21261  13.993   3.036   9.809 -0.2534 -0.1147 -0.2890
 1090SOL    HW121262  13.982   3.131   9.809 -0.4975 -0.0605  2.5957
 1090SOL    HW221263  13.912   3.003   9.850  1.0940 -1.2833  1.6014
 1091SOL     OW21264   2.565   2.712   5.885 -0.1381  0.4122 -0.5738
 1091SOL    HW121265   2.618   2.651   5.935  0.3243 -0.4497 -2.0548
 1091SOL    HW221266   2.610   2.796   5.895  0.8653 -0.0721 -0.8299
 1092SOL     OW21267   6.452  10.444   1.404  0.7196 -0.0058 -0.1720
 1092SOL    HW121268   6.396  10.367   1.409 -1.0586  1.3140  1.6832
 1092SOL    HW221269   6.425  10.488   1.323  0.0783 -0.1159 -0.0216
 1093SOL     OW21270   8.440  11.927   3.879  0.3268 -0.2582 -0.1660
 1093SOL    HW121271   8.474  11.870   3.948 -0.5372  0.4927  0.9033
 1093SOL    HW221272   8.489  12.009   3.888 -0.8102  0.3693  0.5428
 1094SOL     OW21273  13.379   5.904   1.198 -0.0363 -0.0488 -0.0208
 1094SOL    HW121274  13.289   5.911   1.231  0.4048  0.3287  1.1400
 1094SOL    HW221275  13.421   5.842   1.257  0.8131  0.7361  0.2161
 1095SOL     OW21276   9.535   4.185   9.119 -0.3263 -0.0156 -0.0640
 1095SOL    HW121277   9.479   4.208   9.193  1.6821  0.4355  1.3733
 1095SOL    HW221278   9.559   4.269   9.080  0.3687 -0.1353  0.1045
 1096SOL     OW21279   8.210  10.683   0.854  0.7790  0.0060 -0.1572
 1096SOL    HW121280   8.247  10.657   0.938 -0.4231 -0.1479  0.3327
 1096SOL    HW221281   8.150  10.755   0.874 -0.7781 -1.1148 -0.6365
 1097SOL     OW21282   0.030   9.877  12.417  0.4628  0.2234 -0.6396
 1097SOL    HW121283   0.090   9.886  12.342  0.5328  1.8762 -0.4342
 1097SOL    HW221284  -0.054   9.856  12.378  0.6468  0.4012 -1.1425
 1098SOL     OW21285  11.393   1.005   7.635 -0.0325 -0.0668  0.3411
 1098SOL    HW121286  11.425   0.915   7.633 -0.6159 -0.2741  0.1232
 1098SOL    HW221287  11.471   1.058   7.653  0.6618 -0.4530 -1.3918
 1099SOL     OW21288   3.657   6.902   2.828  0.0278  0.0520 -1.1961
 1099SOL    HW121289   3.577   6.943   2.860  0.4974  0.6835 -0.7795
 1099SOL    HW221290   3.639   6.808   2.829 -0.7812  0.2014 -1.3435
 1100SOL     OW21291  12.311  13.165   1.111 -0.5886 -0.3793  0.3020
 1100SOL    HW121292  12.386  13.210   1.071 -0.6657 -0.8372 -0.3781
 1100SOL    HW221293  12.283  13.223   1.182  1.4288 -0.9534  1.6629
 1101SOL     OW21294  13.797   1.060   1.619 -0.4272 -0.1917 -0.1363
 1101SOL    HW121295  13.888   1.047   1.644 -0.7333 -2.2702  0.0923
 1101SOL    HW221296  13.752   1.077   1.702 -0.2024  1.3736 -0.3070
 1102SOL     OW21297   8.810   3.942   8.560 -0.7649 -0.0003  0.1772
 1102SOL    HW121298   8.869   3.918   8.488 -1.1753 -0.8242  0.0965
 1102SOL    HW221299   8.848   4.021   8.597 -1.0322  0.9685 -1.5100
 1103SOL     OW21300   6.956   8.091  13.542  0.0250  0.7014  0.1694
 1103SOL    HW121301   6.915   8.040  13.473  1.1479 -0.2718  0.1871
 1103SOL    HW221302   6.894   8.161  13.561 -1.0670 -0.0385 -0.5991
 1104SOL     OW21303   7.016   0.291  12.408 -0.2205 -0.1723 -0.1889
 1104SOL    HW121304   6.943   0.238  12.440 -0.6807 -0.9503 -2.4034
 1104SOL    HW221305   7.081   0.286  12.478 -1.6335 -0.7782  1.1482
 1105SOL     OW21306   6.150  11.205   2.115  0.8725  0.1977  0.4226
 1105SOL    HW121307   6.205  11.275   2.148 -0.2741  2.0203 -1.2470
 1105SOL    HW221308   6.061  11.242   2.115  0.0466 -1.6477  0.4787
 1106SOL     OW21309  13.178   4.098   3.114  0.1428  0.4289  0.5382
 1106SOL    HW121310  13.116   4.169   3.101 -0.5654  0.1329  2.1362
 1106SOL    HW221311  13.169   4.073   3.206  1.8413 -0.3678  0.5414
 1107SOL     OW21312   8.566  11.756   1.371 -0.5380 -0.9514 -0.5597
 1107SOL    HW121313   8.561  11.849   1.395 -3.4959 -1.4753  1.3971
 1107SOL    HW221314   8.575  11.756   1.276  2.1835  1.2713 -0.4361
 1108SOL     OW21315  11.082   8.159   5.495 -0.0771 -0.2199  0.1316
 1108SOL    HW121316  11.151   8.175   5.431 -0.9903  2.1211 -0.3609
 1108SOL    HW221317  11.024   8.096   5.452  0.0513  0.2746 -0.8017
 1109SOL     OW21318   9.050   0.820   5.240 -0.6052  0.7277  0.0526
 1109SOL    HW121319   9.002   0.877   5.300 -1.0316  0.2828  0.1430
 1109SOL    HW221320   9.004   0.828   5.157 -0.4360  0.8026 -0.0353
 1110SOL     OW21321   5.233  10.488   4.339  0.4309 -0.6581 -0.4449
 1110SOL    HW121322   5.319  10.502   4.378  0.3981  0.6844 -0.7826
 1110SOL    HW221323   5.195  10.417   4.389  0.5395  0.7476  1.7817
 1111SOL     OW21324  11.672   2.688  13.285  0.1652  0.0123  0.3562
 1111SOL    HW121325  11.631   2.603  13.303 -0.4963  0.1703 -0.3853
 1111SOL    HW221326  11.683   2.728  13.371  0.0083 -0.6073  0.6696
 1112SOL     OW21327   6.539   0.179  11.679 -0.1568 -0.1750  0.2011
 1112SOL    HW121328   6.570   0.140  11.597  0.4154 -1.2853  0.9141
 1112SOL    HW221329   6.566   0.270  11.673 -1.6442  0.2172 -1.5794
 1113SOL     OW21330   3.387   4.420   3.872  0.3388  0.4626  0.4296
 1113SOL    HW121331   3.311   4.435   3.816  0.0976  1.3067  0.9585
 1113SOL    HW221332   3.411   4.508   3.903  0.4490  0.0161  1.6682
 1114SOL     OW21333   8.466  12.807  10.062  0.1144 -0.2247  0.3076
 1114SOL    HW121334   8.502  12.763   9.985 -0.2755 -0.5050  0.2809
 1114SOL    HW221335   8.526  12.785  10.133  2.2376  2.5262 -0.4773
 1115SOL     OW21336  11.295   9.914   9.182 -0.3698 -0.1906 -0.5511
 1115SOL    HW121337  11.210   9.879   9.207 -0.0564 -0.2191  0.5578
 1115SOL    HW221338  11.355   9.840   9.194 -0.1054 -0.0056 -0.7398
 1116SOL     OW21339   1.207   8.913  12.001 -0.4820 -0.0413 -0.2847
 1116SOL    HW121340   1.224   8.820  12.011 -1.2616 -0.2033 -0.3893
 1116SOL    HW221341   1.112   8.920  11.997 -0.4131  0.6581 -1.2207
 1117SOL     OW21342   8.927  11.820   6.488  0.5922 -0.3890 -0.1779
 1117SOL    HW121343   8.931  11.739   6.540  2.5427 -0.9393 -1.1120
 1117SOL    HW221344   8.877  11.795   6.410  0.3964 -0.4288 -0.0412
 1118SOL     OW21345   5.328   8.835   4.587  0.5440 -0.8386 -0.0797
 1118SOL    HW121346   5.345   8.788   4.669  2.1516 -1.1341 -0.5370
 1118SOL    HW221347   5.402   8.896   4.578 -0.7258  0.7493 -0.2528
 1119SOL     OW21348   9.735   3.151   0.395  0.0295  0.5096  0.1342
 1119SOL    HW121349   9.643   3.148   0.422 -0.1500  1.6658 -0.3237
 1119SOL    HW221350   9.733   3.134   0.301  0.2752  0.6731  0.1006
 1120SOL     OW21351   2.751   4.333   5.364  0.7291 -0.1479 -0.5166
 1120SOL    HW121352   2.674   4.290   5.327 -0.2685  0.2476  1.0019
 1120SOL    HW221353   2.821   4.268   5.357 -0.1388 -1.1126 -0.4721
 1121SOL     OW21354   2.503   8.259  10.618 -0.0840 -0.1666 -0.1811
 1121SOL    HW121355   2.508   8.233  10.710  1.1554 -3.2133 -0.9957
 1121SOL    HW221356   2.421   8.220  10.586  0.0010  0.0008 -0.6157
 1122SOL     OW21357   3.065  11.396  11.006  0.1025 -0.1733 -0.0767
 1122SOL    HW121358   3.091  11.387  11.098 -0.9512 -0.6011  0.1970
 1122SOL    HW221359   2.970  11.412  11.010 -0.4229 -2.5471 -1.1702
 1123SOL     OW21360  13.787   0.055   8.623  0.0043 -0.1901 -0.2593
 1123SOL    HW121361  13.777   0.107   8.703  2.6193  0.7168 -0.4231
 1123SOL    HW221362  13.844   0.107   8.568 -0.3108 -1.6150 -2.0131
 1124SOL     OW21363  13.052   0.162  12.506 -0.2102 -0.2519  0.6266
 1124SOL    HW121364  13.130   0.171  12.561 -0.9943 -0.4580  1.8046
 1124SOL    HW221365  13.076   0.095  12.441  0.3181 -0.9394  1.5020
 1125SOL     OW21366   5.977   2.357   5.400 -0.2359 -0.4815  0.4765
 1125SOL    HW121367   5.969   2.282   5.341 -1.5324  0.1578 -0.2229
 1125SOL    HW221368   6.041   2.414   5.357 -1.2721  0.0455 -0.4515
 1126SOL     OW21369   4.721   6.291   9.236  0.3794 -0.1711  0.2650
 1126SOL    HW121370   4.707   6.215   9.180  0.0675  0.0522  0.0446
 1126SOL    HW221371   4.634   6.325   9.255  0.5147  0.1252  0.3759
 1127SOL     OW21372  12.944   6.099  12.972 -0.2581  0.4417  0.1354
 1127SOL    HW121373  13.019   6.120  12.915  0.3697 -2.0500 -0.0545
 1127SOL    HW221374  12.872   6.084  12.911  0.1498 -1.1615 -0.0080
 1128SOL     OW21375   7.927  12.211   0.439  0.5166 -0.0662  0.2384
 1128SOL    HW121376   7.937  12.170   0.524  2.4445 -0.4366 -0.1091
 1128SOL    HW221377   8.016  12.242   0.417 -0.2167  1.3121 -0.9883
 1129SOL     OW21378   7.102   6.695   9.234  0.1301 -0.0671  0.0871
 1129SOL    HW121379   7.155   6.774   9.243  0.1056 -0.2491  2.7739
 1129SOL    HW221380   7.164   6.623   9.250 -0.1069 -0.5353 -1.0293
 1130SOL     OW21381   4.751   4.086   1.737  0.3644  0.1008  0.3445
 1130SOL    HW121382   4.784   4.049   1.655  1.6031 -1.7915  1.6161
 1130SOL    HW221383   4.827   4.125   1.779 -0.1822  0.7278  0.7765
 1131SOL     OW21384   2.849   8.852   5.036 -0.6033  0.2736  0.1728
 1131SOL    HW121385   2.870   8.791   4.965 -1.1418  0.4639 -0.1561
 1131SOL    HW221386   2.769   8.816   5.075 -0.5507  0.4096  0.4079
 1132SOL     OW21387   0.575  12.069   5.947 -0.0831 -0.2591 -0.5354
 1132SOL    HW121388   0.552  11.993   5.894 -0.3934 -0.4511 -0.1284
 1132SOL    HW221389   0.493  12.094   5.991 -0.2954  1.0507 -1.5906
 1133SOL     OW21390   8.376  11.419   2.037 -0.1191  0.3856 -0.0574
 1133SOL    HW121391   8.308  11.363   2.074  0.3682 -1.1740 -1.4017
 1133SOL    HW221392   8.437  11.358   1.995  0.0904  1.9399 -2.1745
 1134SOL     OW21393   1.261   9.660  13.105 -0.3649 -0.1474  0.2431
 1134SOL    HW121394   1.349   9.694  13.124  0.2754 -3.1640  3.9449
 1134SOL    HW221395   1.274   9.600  13.031  0.1980  1.0233 -0.6393
 1135SOL     OW21396   8.686   6.193  11.135  0.0741  0.6106  0.0851
 1135SOL    HW121397   8.724   6.107  11.117  2.6990  1.2058  2.1800
 1135SOL    HW221398   8.619   6.176  11.201  1.4965  0.2338  1.5025
 1136SOL     OW21399   2.761   9.344  11.982 -0.3412 -0.0929 -0.4186
 1136SOL    HW121400   2.701   9.367  11.911 -2.1252  0.4723  1.1850
 1136SOL    HW221401   2.760   9.421  12.039  0.1085 -0.9950  0.8358
 1137SOL     OW21402   8.551   8.666   1.153  0.2843 -0.1969 -0.1169
 1137SOL    HW121403   8.466   8.710   1.161  0.9050  1.2545 -1.0664
 1137SOL    HW221404   8.607   8.711   1.215  0.4240 -1.0163  0.3557
 1138SOL     OW21405   5.654  12.938   1.143  0.2687 -0.3955  0.3994
 1138SOL    HW121406   5.667  12.844   1.134 -0.2706 -0.3123 -2.3876
 1138SOL    HW221407   5.742  12.975   1.132  0.1500 -0.5278 -1.4205
 1139SOL     OW21408  11.708   7.813   6.239 -0.1207  0.3018 -0.6101
 1139SOL    HW121409  11.638   7.876   6.257  0.8930  1.0990  0.7071
 1139SOL    HW221410  11.663   7.730   6.224 -1.4416  1.1706 -1.6260
 1140SOL     OW21411   6.211   2.694  13.416 -0.4308 -0.4463 -0.4788
 1140SOL    HW121412   6.152   2.688  13.492 -1.2451  0.9329 -0.9642
 1140SOL    HW221413   6.239   2.604  13.401  0.1426 -0.7004  1.7434
 1141SOL     OW21414   7.509   8.404  11.761  0.0721 -0.1336 -0.3299
 1141SOL    HW121415   7.494   8.464  11.688  0.2742 -0.1930 -0.4196
 1141SOL    HW221416   7.605   8.397  11.767  0.0888 -2.3528 -1.8934
 1142SOL     OW21417   6.966   1.249  14.038  0.3277 -0.5411  0.5522
 1142SOL    HW121418   7.061   1.260  14.041  0.5128 -1.9340  0.4277
 1142SOL    HW221419   6.946   1.237  13.945  0.2024 -1.5562  0.7050
 1143SOL     OW21420   0.295   3.743   3.823  0.3499 -0.5206  1.0011
 1143SOL    HW121421   0.289   3.795   3.903 -0.1200  0.8461  0.1197
 1143SOL    HW221422   0.208   3.704   3.813  0.1204  0.0492  0.6996
 1144SOL     OW21423   7.079   3.179  12.198  0.2853  0.0479  0.3347
 1144SOL    HW121424   7.087   3.208  12.288 -0.4953  0.4441  0.2902
 1144SOL    HW221425   6.986   3.190  12.178  0.7997  2.1763 -1.2425
 1145SOL     OW21426  10.466   6.918   6.607  0.7103  0.1169 -0.8975
 1145SOL    HW121427  10.386   6.936   6.558 -0.0194 -0.4563  0.0411
 1145SOL    HW221428  10.500   7.004   6.631 -0.0657  0.3540 -0.6252
 1146SOL     OW21429   6.738   6.352  13.452  0.9453 -0.0389 -0.4541
 1146SOL    HW121430   6.810   6.299  13.419  0.6741 -0.3776 -0.5064
 1146SOL    HW221431   6.708   6.306  13.531 -0.2904 -0.8146 -1.3453
 1147SOL     OW21432  13.343   6.861  11.234  0.1492 -0.2884 -0.1713
 1147SOL    HW121433  13.348   6.956  11.235 -1.0286 -0.1928  1.7611
 1147SOL    HW221434  13.434   6.832  11.242  0.4970  0.6689 -0.5289
 1148SOL     OW21435  12.939  12.754   2.407  0.2223  0.8261  0.3369
 1148SOL    HW121436  12.980  12.812   2.343 -2.0238  1.2388 -0.8181
 1148SOL    HW221437  13.008  12.736   2.471  1.4709  3.4139 -0.1675
 1149SOL     OW21438   0.812   4.038   2.396 -0.2018 -0.5521  0.0627
 1149SOL    HW121439   0.763   3.980   2.338 -1.7549  1.4614 -0.7877
 1149SOL    HW221440   0.878   4.078   2.340  0.0682 -0.5997  0.3442
 1150SOL     OW21441   4.073   6.547   4.333  0.3426 -0.0952  0.1314
 1150SOL    HW121442   4.041   6.613   4.395 -1.9723 -0.3083 -0.7143
 1150SOL    HW221443   4.123   6.486   4.386 -0.2899  0.5444  1.5157
 1151SOL     OW21444   4.231   5.505  13.022  0.6056 -0.4308  0.2570
 1151SOL    HW121445   4.207   5.448  13.095  0.1855  0.5652  0.9110
 1151SOL    HW221446   4.260   5.444  12.953 -1.4838 -1.5447  0.2871
 1152SOL     OW21447   8.326  12.106   8.601  0.5021  0.5812 -0.6095
 1152SOL    HW121448   8.231  12.121   8.599  0.6807  2.0692  0.1854
 1152SOL    HW221449   8.336  12.018   8.637 -0.5657  1.1738  1.3040
 1153SOL     OW21450  13.338  10.961   4.040 -0.3275 -0.1083  0.0637
 1153SOL    HW121451  13.393  10.946   4.116  1.0423  1.4432 -0.5357
 1153SOL    HW221452  13.266  11.015   4.072 -0.8614 -1.1173  0.6134
 1154SOL     OW21453  12.027   0.733   6.803  0.6883 -0.7206 -0.6163
 1154SOL    HW121454  12.024   0.785   6.723  0.8908 -0.1090 -0.2302
 1154SOL    HW221455  12.118   0.740   6.832  0.4444 -0.3406  0.0595
 1155SOL     OW21456   8.344   7.323  13.431  0.0938  0.0991  0.8820
 1155SOL    HW121457   8.416   7.385  13.444 -0.8900  1.2455  1.0221
 1155SOL    HW221458   8.311   7.341  13.343 -0.2963 -0.1286  0.9766
 1156SOL     OW21459  13.585  13.280  11.164 -0.0440  0.0831 -0.9186
 1156SOL    HW121460  13.563  13.298  11.255  0.3879 -0.5256 -0.6877
 1156SOL    HW221461  13.507  13.306  11.115  0.3488  2.0566 -0.5755
 1157SOL     OW21462  13.606   9.694   3.944  0.4393 -0.0692 -0.0848
 1157SOL    HW121463  13.578   9.643   3.868  0.3040  1.2834 -0.9636
 1157SOL    HW221464  13.535   9.757   3.958  0.5325 -0.1925  1.0859
 1158SOL     OW21465  13.370  13.513  13.523 -0.2456 -0.0540  0.1921
 1158SOL    HW121466  13.321  13.441  13.484 -0.5190  0.4212 -0.3700
 1158SOL    HW221467  13.382  13.488  13.615  1.3163 -1.6750 -0.4065
 1159SOL     OW21468   2.559   3.903   3.857 -0.1750  0.0775 -0.6524
 1159SOL    HW121469   2.536   3.871   3.944  1.2284 -2.0548 -0.9632
 1159SOL    HW221470   2.593   3.991   3.872  0.2478 -0.3268  1.0167
 1160SOL     OW21471   4.396   8.891   8.152  0.2455 -0.3924 -0.0453
 1160SOL    HW121472   4.339   8.891   8.075  0.4442 -0.3944 -0.1919
 1160SOL    HW221473   4.383   8.978   8.191 -1.5492 -1.1374  1.1807
 1161SOL     OW21474   0.207   2.298   8.633  0.0614 -0.1426 -0.3254
 1161SOL    HW121475   0.201   2.212   8.675  1.1152  1.0705  2.5160
 1161SOL    HW221476   0.127   2.344   8.660 -0.0598  0.1271 -1.0863
 1162SOL     OW21477   6.011   8.787   7.485  0.4683 -0.3022  0.1969
 1162SOL    HW121478   6.103   8.778   7.509  0.5803  1.2002  0.4330
 1162SOL    HW221479   5.979   8.697   7.476  1.9977 -0.8414 -0.0744
 1163SOL     OW21480   3.286   1.017   9.500  0.4656 -0.0080  0.5871
 1163SOL    HW121481   3.336   0.987   9.576  1.4233  2.9307  1.2234
 1163SOL    HW221482   3.351   1.024   9.430  0.4747  1.3777  0.7120
 1164SOL     OW21483  13.456   8.963  11.506 -0.2628  0.0997 -0.3239
 1164SOL    HW121484  13.375   8.931  11.466 -0.1934  0.8601 -1.1091
 1164SOL    HW221485  13.456   9.057  11.488  0.3940  0.2430  0.3854
 1165SOL     OW21486  12.515   7.814  10.227 -0.3442 -0.0923  0.0718
 1165SOL    HW121487  12.454   7.786  10.295 -0.5806 -0.0435 -0.1221
 1165SOL    HW221488  12.460   7.852  10.158 -0.0327  0.9995  0.3944
 1166SOL     OW21489   5.873   1.522  12.670 -0.5740  0.3166  0.0994
 1166SOL    HW121490   5.839   1.595  12.618  0.1028  0.5542 -0.0166
 1166SOL    HW221491   5.955   1.554  12.706 -0.3262 -0.3472  0.1441
 1167SOL     OW21492   2.334   4.527   3.643  0.1583 -0.4694  0.1141
 1167SOL    HW121493   2.389   4.563   3.573  1.1935 -0.9137  0.6703
 1167SOL    HW221494   2.376   4.557   3.724 -0.5042 -0.7092  0.5520
 1168SOL     OW21495  11.945  11.895  13.296  0.4236  0.1151  0.1603
 1168SOL    HW121496  11.853  11.907  13.320  0.8246  0.9371  1.3515
 1168SOL    HW221497  11.952  11.802  13.274 -0.1464 -0.5482  2.5461
 1169SOL     OW21498   1.471   7.502   3.191 -0.1341 -0.1810  0.5418
 1169SOL    HW121499   1.439   7.513   3.281 -0.4613  0.2268  0.3762
 1169SOL    HW221500   1.494   7.590   3.162 -3.6236  0.3420 -1.1068
 1170SOL     OW21501   9.830  13.518   7.090 -0.3538  0.0484  0.0225
 1170SOL    HW121502   9.761  13.512   7.024 -0.5222 -0.5877  0.2478
 1170SOL    HW221503   9.797  13.467   7.164  0.3493 -0.2556  0.1367
 1171SOL     OW21504   2.092  11.049   7.682 -0.0391  0.5129 -0.0364
 1171SOL    HW121505   2.014  11.069   7.733  0.7807 -2.5565  2.7812
 1171SOL    HW221506   2.133  11.134   7.666 -3.1479  2.0642 -0.3859
 1172SOL     OW21507   9.198   7.011   7.261 -0.4091 -0.1006 -0.8763
 1172SOL    HW121508   9.206   6.957   7.340 -2.3926  0.3284 -0.3442
 1172SOL    HW221509   9.281   6.997   7.215  0.0525 -1.7997  0.3623
 1173SOL     OW21510   7.458   6.945   7.365  0.4698  0.4992  0.8681
 1173SOL    HW121511   7.516   7.018   7.390  1.0723  0.3306 -0.0092
 1173SOL    HW221512   7.492   6.915   7.281 -0.4315 -0.1126  0.7135
 1174SOL     OW21513  13.986   3.302   9.681 -0.0057 -0.4425 -0.6965
 1174SOL    HW121514  13.925   3.342   9.742  1.5081  0.9917 -0.0205
 1174SOL    HW221515  13.943   3.310   9.595 -0.6127  0.8912 -0.2971
 1175SOL     OW21516   8.958   6.606  12.180  0.2103 -0.0801 -0.1292
 1175SOL    HW121517   9.038   6.570  12.142  0.6389 -0.2204  0.8653
 1175SOL    HW221518   8.935   6.543  12.249 -0.4682  0.2302 -0.0686
 1176SOL     OW21519   6.732   7.283   7.235 -0.1322  0.2904  0.2350
 1176SOL    HW121520   6.711   7.192   7.254 -0.1680  0.4431  0.9573
 1176SOL    HW221521   6.804   7.304   7.295  1.7740 -0.0616 -1.7994
 1177SOL     OW21522  11.800   2.062   7.489 -0.5461  0.2968  0.3544
 1177SOL    HW121523  11.823   2.065   7.396 -0.1091 -0.0825  0.4456
 1177SOL    HW221524  11.830   1.976   7.518  0.5397  0.9249  1.1556
 1178SOL     OW21525   9.479  12.969   2.856 -0.7820  0.2208 -0.4626
 1178SOL    HW121526   9.493  13.049   2.906 -1.1054  0.4846 -0.7857
 1178SOL    HW221527   9.388  12.976   2.825 -0.6509 -0.0294 -0.9142
 1179SOL     OW21528   5.587   2.978   8.524 -0.1693  0.1266 -0.4464
 1179SOL    HW121529   5.549   2.933   8.600  0.1948 -0.1195 -0.4071
 1179SOL    HW221530   5.642   3.046   8.562  0.7866 -0.6185 -0.4592
 1180SOL     OW21531   0.993  11.556   3.466 -0.5128 -0.0317  0.3505
 1180SOL    HW121532   0.954  11.641   3.487  0.4431  0.4331  0.2919
 1180SOL    HW221533   1.020  11.521   3.551 -1.0295 -0.3466  0.3894
 1181SOL     OW21534   7.792   6.385  13.008  0.1854  0.2414 -0.1098
 1181SOL    HW121535   7.886   6.385  13.021  0.1962  0.2908 -0.1894
 1181SOL    HW221536   7.774   6.465  12.959  0.1127  0.1912 -0.1668
 1182SOL     OW21537   9.861   3.943  13.615  0.0932  0.5198 -0.0674
 1182SOL    HW121538   9.903   3.903  13.539 -0.7377  1.0207 -0.8242
 1182SOL    HW221539   9.898   3.898  13.691  0.1091 -0.7884 -0.8285
 1183SOL     OW21540   8.728   0.712   8.388  0.2851 -0.5598  0.6979
 1183SOL    HW121541   8.704   0.626   8.353 -0.8938 -0.4854  1.2644
 1183SOL    HW221542   8.802   0.695   8.446  0.6585 -1.0458  0.0909
 1184SOL     OW21543  12.968   3.399  10.737  0.2379  0.2150  0.1057
 1184SOL    HW121544  12.883   3.369  10.706  0.8667 -1.1356 -0.4205
 1184SOL    HW221545  12.976   3.364  10.826 -0.2349  1.3715  0.6254
 1185SOL     OW21546  10.186  10.315   6.551  0.1914 -0.6747  0.0243
 1185SOL    HW121547  10.242  10.390   6.528 -1.7020  1.0484  0.6734
 1185SOL    HW221548  10.198  10.304   6.645 -1.0458  0.2136  0.3184
 1186SOL     OW21549  13.084   3.839   5.872 -0.2418 -0.5435  0.0491
 1186SOL    HW121550  13.127   3.921   5.846  1.1650 -0.8521  1.2616
 1186SOL    HW221551  13.094   3.781   5.797  4.3431 -1.6629  1.2144
 1187SOL     OW21552   9.112   6.426   8.237 -0.7814  0.1120  0.0894
 1187SOL    HW121553   9.036   6.395   8.188 -0.8567 -1.0233  0.8682
 1187SOL    HW221554   9.170   6.349   8.243  1.1684  1.3185 -1.7752
 1188SOL     OW21555  13.237   9.246   8.688 -0.1387  0.4356  0.4076
 1188SOL    HW121556  13.327   9.273   8.669 -0.0923  0.2191  0.3100
 1188SOL    HW221557  13.210   9.302   8.760 -0.4445  1.5007 -0.5217
 1189SOL     OW21558  10.609   4.256   5.181 -0.1233 -0.2490  0.1356
 1189SOL    HW121559  10.650   4.327   5.231  0.4231 -1.3469  1.3096
 1189SOL    HW221560  10.523   4.244   5.222 -0.6765  0.4570 -0.7826
 1190SOL     OW21561  13.006   5.158   0.032 -0.4650 -0.6056 -0.4813
 1190SOL    HW121562  12.924   5.200   0.006  0.7104  2.3570  0.1314
 1190SOL    HW221563  13.001   5.152   0.128 -0.5230 -1.7561 -0.5430
 1191SOL     OW21564  13.479   5.748   4.216  0.0196 -0.5500  0.1734
 1191SOL    HW121565  13.516   5.664   4.189 -0.3258 -0.2609 -1.3252
 1191SOL    HW221566  13.390   5.727   4.243 -0.0750 -0.6687 -0.2246
 1192SOL     OW21567   0.493   7.080   8.212 -0.2965  0.8415  0.3997
 1192SOL    HW121568   0.448   7.153   8.254 -0.8716  1.6496 -1.4855
 1192SOL    HW221569   0.555   7.122   8.151  0.4822 -0.2526  0.4115
 1193SOL     OW21570  13.545  12.935   6.563 -0.0036 -0.5249 -0.3972
 1193SOL    HW121571  13.623  12.953   6.510 -0.1405  2.5772  0.2570
 1193SOL    HW221572  13.577  12.931   6.653 -0.4214 -0.7948 -0.2584
 1194SOL     OW21573   9.711   7.528   9.010  0.5019 -0.0415  0.7761
 1194SOL    HW121574   9.726   7.436   9.032  1.5600 -0.1933 -0.4720
 1194SOL    HW221575   9.798   7.563   8.993  0.2311  1.5346  2.4136
 1195SOL     OW21576   6.457   9.379  13.942  0.7956  0.1401 -0.0633
 1195SOL    HW121577   6.364   9.401  13.946  0.6448 -0.3864 -0.5556
 1195SOL    HW221578   6.478   9.351  14.031  0.5401  0.4762  0.1061
 1196SOL     OW21579   6.060  13.200   2.753  0.4448 -0.0424 -0.4242
 1196SOL    HW121580   5.987  13.140   2.766  1.6383 -1.4399  0.1942
 1196SOL    HW221581   6.067  13.248   2.835 -0.1585  0.5546 -0.7142
 1197SOL     OW21582   8.634   6.236  13.330  0.0472  0.0512  0.4849
 1197SOL    HW121583   8.588   6.255  13.249 -1.3561  0.8716  1.4261
 1197SOL    HW221584   8.574   6.266  13.399  0.4168 -2.2139  1.8963
 1198SOL     OW21585   7.068   6.066   6.812  0.8234 -0.6179  0.0745
 1198SOL    HW121586   7.036   6.136   6.869  0.3241 -0.8138  0.0338
 1198SOL    HW221587   7.133   6.020   6.865 -0.8431 -1.8699  1.1320
 1199SOL     OW21588   4.640  10.175   4.295  0.0781  0.3984  0.3253
 1199SOL    HW121589   4.607  10.111   4.232  1.5105 -1.0135  0.9370
 1199SOL    HW221590   4.729  10.145   4.315  0.5309  2.1849  1.2023
 1200SOL     OW21591   0.453   6.420  12.198 -0.5166 -0.1278  0.6715
 1200SOL    HW121592   0.433   6.487  12.132 -0.8806  0.2051  1.1064
 1200SOL    HW221593   0.524   6.369  12.160 -0.5452  0.2216  0.1329
 1201SOL     OW21594  12.606   5.923  11.454  0.3911 -0.4053 -0.4452
 1201SOL    HW121595  12.563   5.938  11.538  0.3995 -2.2265 -0.0839
 1201SOL    HW221596  12.584   5.833  11.431  1.6476 -0.4342 -1.6584
 1202SOL     OW21597  10.134   9.750   1.317 -0.3005 -0.1218  0.1438
 1202SOL    HW121598  10.062   9.741   1.255 -0.7486  1.5148  0.3661
 1202SOL    HW221599  10.184   9.669   1.309 -1.5599 -0.8401 -0.7867
 1203SOL     OW21600  11.103   7.176   6.634  0.3112 -0.7342  0.2558
 1203SOL    HW121601  11.121   7.197   6.725  2.0624  1.2162 -0.4631
 1203SOL    HW221602  11.189   7.170   6.592 -0.4340  0.8981 -1.7278
 1204SOL     OW21603   6.141   4.091  12.550  0.4739 -0.0855 -0.3635
 1204SOL    HW121604   6.189   4.094  12.467 -0.9814  1.0412 -1.2204
 1204SOL    HW221605   6.155   4.177  12.589  0.8804 -0.4961  0.4195
 1205SOL     OW21606   5.119   1.629  11.964 -0.0317  0.0901 -0.0736
 1205SOL    HW121607   5.058   1.584  12.022 -1.2585 -1.8274 -2.6479
 1205SOL    HW221608   5.198   1.576  11.965 -0.5214 -0.6934 -1.0714
 1206SOL     OW21609   3.640   4.507   1.405 -0.3777  0.2074  0.6450
 1206SOL    HW121610   3.670   4.477   1.318 -1.4147  0.0117  0.3429
 1206SOL    HW221611   3.588   4.434   1.439 -0.7722  0.6563  1.0216
 1207SOL     OW21612  13.104   9.128   9.476  0.5154  0.0521 -0.1742
 1207SOL    HW121613  13.016   9.166   9.483  1.5032  2.4381  0.1875
 1207SOL    HW221614  13.151   9.163   9.552  1.5221 -2.0246  0.2165
 1208SOL     OW21615  10.661   6.792   9.166  0.2160 -0.1142 -0.1155
 1208SOL    HW121616  10.740   6.815   9.117 -1.1070 -0.1906 -2.4137
 1208SOL    HW221617  10.649   6.698   9.149 -0.2977 -0.1278  0.3101
 1209SOL     OW21618   2.454  11.433  12.215 -0.0690  0.0309 -0.5056
 1209SOL    HW121619   2.509  11.498  12.258 -0.6780 -0.0240  0.3887
 1209SOL    HW221620   2.366  11.472  12.214 -0.1264 -0.0939 -1.4497
 1210SOL     OW21621  14.006  14.144   3.709 -0.4110  0.0671  0.1762
 1210SOL    HW121622  14.093  14.174   3.736 -0.2834  0.7592 -0.9567
 1210SOL    HW221623  14.021  14.090   3.632 -1.1410  2.1405 -1.5019
 1211SOL     OW21624   3.845   9.010   6.088  0.0114  0.2678 -0.5087
 1211SOL    HW121625   3.875   9.065   6.160  0.2427 -0.9941  0.3913
 1211SOL    HW221626   3.784   8.948   6.129 -0.7506  0.2493 -1.6096
 1212SOL     OW21627   0.467   5.941   6.316  0.3049 -0.3404 -0.1119
 1212SOL    HW121628   0.470   5.959   6.410  0.4903 -0.7738 -0.0292
 1212SOL    HW221629   0.379   5.907   6.301  0.4823 -0.8622  0.0200
 1213SOL     OW21630   0.498  12.063   8.179  0.3093 -0.0011  0.1876
 1213SOL    HW121631   0.480  12.044   8.087  1.7588 -0.1265 -0.0818
 1213SOL    HW221632   0.421  12.112   8.208  0.5751  1.5446 -1.5545
 1214SOL     OW21633   9.945   5.441   0.981 -0.3280  0.3454  0.2168
 1214SOL    HW121634  10.020   5.386   0.959 -0.1355  1.1476 -1.2353
 1214SOL    HW221635   9.880   5.380   1.017  1.4939 -0.1775  2.9157
 1215SOL     OW21636   6.398   4.825   8.825  0.1884  0.1333 -0.3806
 1215SOL    HW121637   6.385   4.841   8.919  2.0179 -0.1856 -0.0340
 1215SOL    HW221638   6.372   4.734   8.812  0.3175  0.0546 -0.0906
 1216SOL     OW21639  10.486   3.848   0.051 -0.1112  0.2029 -0.5050
 1216SOL    HW121640  10.473   3.793   0.129  0.4423 -0.1790 -0.6759
 1216SOL    HW221641  10.410   3.907   0.051  1.3860  2.3765  2.1116
 1217SOL     OW21642   9.275  10.830   9.209 -0.9911 -0.3262  0.0979
 1217SOL    HW121643   9.280  10.734   9.214  0.1523 -0.2675  0.3491
 1217SOL    HW221644   9.314  10.851   9.124  0.0511 -0.0200  0.6337
 1218SOL     OW21645  11.172   4.047   3.610  0.0377 -0.2565  0.3917
 1218SOL    HW121646  11.210   3.995   3.539  1.0670 -0.7666  1.2836
 1218SOL    HW221647  11.229   4.029   3.686 -1.8642 -0.9130  1.7478
 1219SOL     OW21648   1.022   1.954   0.598 -0.2664  0.8403 -0.0120
 1219SOL    HW121649   1.061   1.998   0.522  0.0476 -0.4683 -0.6480
 1219SOL    HW221650   1.067   1.993   0.674 -0.0426  1.6337 -0.5379
 1220SOL     OW21651   5.413  11.281   7.465  0.0725 -0.4626  0.4839
 1220SOL    HW121652   5.374  11.341   7.529 -0.0056  0.6698 -0.5962
 1220SOL    HW221653   5.508  11.297   7.473  0.0078  0.4882 -0.4211
 1221SOL     OW21654   5.743   6.764   7.307 -0.2625  0.0552 -0.2486
 1221SOL    HW121655   5.714   6.705   7.377  1.7077 -1.6364 -0.7635
 1221SOL    HW221656   5.729   6.851   7.343  0.7771 -0.7303  2.3399
 1222SOL     OW21657  10.534  11.999   2.625  0.0919  0.0697  0.2880
 1222SOL    HW121658  10.487  12.065   2.573 -1.9405 -0.6968  1.0335
 1222SOL    HW221659  10.532  11.920   2.571  1.7004  0.3408 -0.2070
 1223SOL     OW21660   7.183   7.403   0.669 -0.6055  0.1111  0.2450
 1223SOL    HW121661   7.248   7.440   0.728  1.5534 -2.9933  0.0347
 1223SOL    HW221662   7.182   7.462   0.594  1.5216  0.6245  0.5680
 1224SOL     OW21663   0.928   9.371   7.329 -0.1809 -0.2126 -0.2125
 1224SOL    HW121664   0.948   9.423   7.407 -1.0238 -1.2501  0.7110
 1224SOL    HW221665   0.843   9.331   7.347 -0.5274 -0.2445 -1.7891
 1225SOL     OW21666  14.120  12.010   5.523 -0.0639  0.4682  0.3285
 1225SOL    HW121667  14.086  12.084   5.473 -1.7622 -0.6533 -0.2723
 1225SOL    HW221668  14.049  11.986   5.582 -0.2765 -1.7569 -0.7185
 1226SOL     OW21669  12.238   0.892   1.569 -0.5514 -0.1219  0.4354
 1226SOL    HW121670  12.285   0.935   1.641 -1.2619  0.3240  0.6500
 1226SOL    HW221671  12.254   0.798   1.583  0.9180  0.0438  0.0291
 1227SOL     OW21672   3.468   6.709  11.338  0.2809 -0.6780 -0.4541
 1227SOL    HW121673   3.532   6.640  11.322 -0.7925 -1.5758 -1.0663
 1227SOL    HW221674   3.516   6.791  11.326  1.3336 -1.3224 -0.7225
 1228SOL     OW21675   4.125   4.172   7.153 -0.0378  0.5944  0.0635
 1228SOL    HW121676   4.042   4.127   7.166  1.0828 -1.8708 -0.7740
 1228SOL    HW221677   4.132   4.184   7.059  1.6836 -1.6900 -0.1798
 1229SOL     OW21678   7.267   8.234   2.966  0.2565  0.1834  0.3280
 1229SOL    HW121679   7.333   8.240   3.035  0.1634 -0.3710  0.4700
 1229SOL    HW221680   7.285   8.309   2.910  0.2159  0.7463  1.0557
 1230SOL     OW21681   6.609   7.263   1.017  0.0572  0.0475 -0.2071
 1230SOL    HW121682   6.628   7.284   0.926 -0.3139  0.7623 -0.1221
 1230SOL    HW221683   6.688   7.219   1.048  0.8024  1.2016 -0.4174
 1231SOL     OW21684  11.390   5.707   6.034  0.1476 -0.0769 -0.1190
 1231SOL    HW121685  11.393   5.611   6.031 -0.6374 -0.0752 -1.4459
 1231SOL    HW221686  11.305   5.727   6.072 -0.2567  0.0933 -1.0974
 1232SOL     OW21687   8.451   5.365   0.254  0.4019 -0.0496 -0.1938
 1232SOL    HW121688   8.356   5.354   0.246  0.3228 -0.5485  1.2401
 1232SOL    HW221689   8.475   5.417   0.177 -0.7714 -1.3353 -1.5039
 1233SOL     OW21690   5.577   0.447  10.060 -0.7979  0.2461  0.0691
 1233SOL    HW121691   5.602   0.450  10.152  2.8119  0.5368 -0.7665
 1233SOL    HW221692   5.514   0.376  10.054 -1.8561  0.8280  2.8622
 1234SOL     OW21693  12.095   5.561   3.848  0.3065 -0.0983 -0.2635
 1234SOL    HW121694  12.102   5.596   3.759 -1.7565 -1.8341 -1.2124
 1234SOL    HW221695  12.111   5.467   3.838 -1.4029 -0.5600  0.9078
 1235SOL     OW21696   2.051   9.807   3.548 -0.5195 -0.5817  0.3809
 1235SOL    HW121697   1.987   9.876   3.570  1.0346  0.2017  2.9426
 1235SOL    HW221698   2.026   9.733   3.604  1.3769  0.1278  2.2704
 1236SOL     OW21699   2.899   1.804  11.406 -0.3829 -0.4461 -0.5187
 1236SOL    HW121700   2.858   1.782  11.322 -0.3053  0.0020 -0.6752
 1236SOL    HW221701   2.826   1.806  11.468 -0.3382 -1.5632 -0.4134
 1237SOL     OW21702   8.313  13.446   2.781 -0.5583 -0.6649 -0.3459
 1237SOL    HW121703   8.284  13.536   2.799  0.2466 -0.8359  2.3388
 1237SOL    HW221704   8.247  13.411   2.721 -2.0151  1.1081  0.1294
 1238SOL     OW21705  11.571  13.910  13.066 -0.1366  0.6025  0.3144
 1238SOL    HW121706  11.554  13.834  13.120 -1.5381 -1.7129 -3.0243
 1238SOL    HW221707  11.484  13.947  13.048  0.0465  0.1039 -1.8264
 1239SOL     OW21708  11.444   6.388   0.648 -0.5543 -0.2584 -0.2867
 1239SOL    HW121709  11.493   6.319   0.692 -1.9526 -0.5512  0.8993
 1239SOL    HW221710  11.485   6.396   0.562  1.9144 -0.0678  0.8255
 1240SOL     OW21711   8.710   1.790  11.867  0.1572 -0.1202  0.8075
 1240SOL    HW121712   8.624   1.829  11.873  0.2371 -0.1171  2.6095
 1240SOL    HW221713   8.761   1.850  11.813 -0.2350  1.3258  1.9725
 1241SOL     OW21714   6.422   5.868  12.714 -0.9688  0.9831  0.4432
 1241SOL    HW121715   6.501   5.820  12.739 -0.8837  1.4760  1.1534
 1241SOL    HW221716   6.451   5.928  12.645 -0.3148  2.3432  1.8295
 1242SOL     OW21717   8.703  11.147   9.143  0.0047 -0.2616 -0.4957
 1242SOL    HW121718   8.620  11.114   9.109 -0.2769 -0.8541  0.6940
 1242SOL    HW221719   8.679  11.224   9.194 -0.0579 -1.2585  1.0712
 1243SOL     OW21720  10.017   1.983   8.719 -0.1211 -0.1899 -0.3599
 1243SOL    HW121721  10.030   2.058   8.661 -1.5894 -0.7768 -1.5113
 1243SOL    HW221722  10.082   1.995   8.788  1.2333  0.9065 -1.7526
 1244SOL     OW21723   6.552   3.233  10.481 -0.1321  0.1931 -0.0589
 1244SOL    HW121724   6.600   3.163  10.438  0.7990  1.8184 -1.8035
 1244SOL    HW221725   6.596   3.246  10.565  1.2313  0.3035 -0.7752
 1245SOL     OW21726   2.913  12.821  13.764 -0.1732 -0.5202 -0.4014
 1245SOL    HW121727   2.957  12.752  13.813 -0.4473 -0.1687  0.3515
 1245SOL    HW221728   2.844  12.776  13.716  0.0805 -0.8624 -0.4494
 1246SOL     OW21729  12.190   2.380  12.876  0.7859  0.2677  0.3234
 1246SOL    HW121730  12.182   2.450  12.941 -1.1919 -1.0724  1.6152
 1246SOL    HW221731  12.214   2.302  12.927 -1.4860 -0.9680 -0.3677
 1247SOL     OW21732  10.233   8.400   3.264 -0.5390 -0.1509  0.4626
 1247SOL    HW121733  10.325   8.402   3.290 -0.5158  2.8452  0.5035
 1247SOL    HW221734  10.185   8.393   3.346 -0.3500  3.8128  1.0982
 1248SOL     OW21735  12.969   2.482   2.198  0.1011 -0.4788 -0.1313
 1248SOL    HW121736  13.011   2.397   2.183 -0.0659 -0.8044  1.0960
 1248SOL    HW221737  13.016   2.543   2.142  2.2087 -0.8339  1.1372
 1249SOL     OW21738   5.261   7.708   4.449 -0.0040 -0.1640  0.0499
 1249SOL    HW121739   5.331   7.749   4.500  0.0829 -2.7349  2.2517
 1249SOL    HW221740   5.299   7.694   4.362  0.5232  2.6386 -0.2551
 1250SOL     OW21741   3.822   5.012   8.059  0.0814  0.5277  0.2753
 1250SOL    HW121742   3.813   5.106   8.043  1.0104  0.3154 -1.7970
 1250SOL    HW221743   3.899   5.004   8.115  0.5158  0.9761 -0.2410
 1251SOL     OW21744   4.587   7.663   1.119  0.2402 -0.2214 -1.1694
 1251SOL    HW121745   4.593   7.650   1.213  0.7639  2.8883 -0.6658
 1251SOL    HW221746   4.494   7.672   1.101  0.2307  0.8118 -0.6497
 1252SOL     OW21747   6.416  10.471   8.354  0.3455  0.5578 -0.2761
 1252SOL    HW121748   6.381  10.406   8.295  1.7929  0.9342 -1.6207
 1252SOL    HW221749   6.346  10.536   8.364 -0.8503 -0.8099  0.5399
 1253SOL     OW21750   7.651   5.170   0.983  0.1907 -0.3661 -0.3728
 1253SOL    HW121751   7.680   5.092   0.936 -0.4828  0.0151 -1.4578
 1253SOL    HW221752   7.596   5.217   0.920 -1.6681 -0.3873  1.1358
 1254SOL     OW21753   0.892   3.965   8.681  0.1153  0.4987 -0.2087
 1254SOL    HW121754   0.929   3.967   8.592  1.4186 -2.3555  0.1737
 1254SOL    HW221755   0.944   4.029   8.730 -0.7490  2.2674 -1.4557
 1255SOL     OW21756   7.956  12.044   2.911  0.0708  0.2613  0.2874
 1255SOL    HW121757   7.905  11.964   2.926 -1.4926  0.5379 -2.6332
 1255SOL    HW221758   7.926  12.104   2.979 -0.6694 -0.8187  0.9603
 1256SOL     OW21759  12.088   8.585   1.827 -0.1562 -0.1374  0.5275
 1256SOL    HW121760  12.058   8.636   1.751  1.6726  1.1312  0.5869
 1256SOL    HW221761  12.111   8.651   1.892  0.3365 -1.1355  1.3918
 1257SOL     OW21762   2.279  10.183  14.038  0.0329  0.8623 -0.4494
 1257SOL    HW121763   2.200  10.171  13.986 -0.5674  0.4730  0.5228
 1257SOL    HW221764   2.261  10.137  14.120  1.4902  0.2824 -0.4268
 1258SOL     OW21765   3.615   0.815   9.994 -0.1628 -0.3006  0.1387
 1258SOL    HW121766   3.575   0.763  10.064 -0.2875 -0.4305 -0.0271
 1258SOL    HW221767   3.543   0.829   9.931 -0.4332  1.0420  0.7275
 1259SOL     OW21768   7.764   2.666   8.918  0.2574  0.2209  0.1675
 1259SOL    HW121769   7.703   2.723   8.966  1.7014  3.2166 -1.2742
 1259SOL    HW221770   7.802   2.610   8.985  0.7930  2.9080  2.2984
 1260SOL     OW21771  10.409   5.011   4.094 -0.0016  0.0642 -0.3427
 1260SOL    HW121772  10.323   4.971   4.083 -0.3209  0.6817 -0.1520
 1260SOL    HW221773  10.450   4.961   4.164 -0.4769  0.1967  0.0357
 1261SOL     OW21774   7.504   4.084   6.264  0.3505 -0.2935 -0.0297
 1261SOL    HW121775   7.590   4.085   6.221  1.1356  0.8816  1.4957
 1261SOL    HW221776   7.443   4.113   6.196  1.2507 -0.3959 -0.9123
 1262SOL     OW21777   1.213   0.724   3.810 -0.4468  0.0788 -0.0999
 1262SOL    HW121778   1.144   0.660   3.793  0.3473 -1.1544  1.1506
 1262SOL    HW221779   1.168   0.809   3.806 -1.5376 -0.5275 -1.6658
 1263SOL     OW21780  10.375  10.113   2.799 -0.1229  0.0142 -0.1529
 1263SOL    HW121781  10.402  10.204   2.803  1.6440 -0.3984 -1.3236
 1263SOL    HW221782  10.303  10.112   2.735 -0.4450  0.6359  0.1979
 1264SOL     OW21783  12.535   7.730   9.503 -0.1393 -0.3999  0.2684
 1264SOL    HW121784  12.479   7.653   9.490 -1.0079  0.2522  0.0372
 1264SOL    HW221785  12.477   7.795   9.542 -0.1311  1.0477 -2.0039
 1265SOL     OW21786   5.410   9.702  14.021 -0.0581 -0.3199  0.6269
 1265SOL    HW121787   5.468   9.655  14.081 -0.6844 -1.0436  0.6785
 1265SOL    HW221788   5.325   9.700  14.063 -0.6548 -1.4009 -0.5737
 1266SOL     OW21789   6.368   8.361   7.580  0.4446  0.0982  0.1051
 1266SOL    HW121790   6.459   8.340   7.598 -0.2488 -1.6291  1.9144
 1266SOL    HW221791   6.331   8.280   7.544 -0.7187  0.3082  0.7766
 1267SOL     OW21792   8.197   2.317   1.027  0.2986 -0.0928  0.7882
 1267SOL    HW121793   8.187   2.268   0.946 -1.5337 -0.3381  1.1074
 1267SOL    HW221794   8.226   2.404   1.000 -0.5986 -0.0783 -0.1664
 1268SOL     OW21795   3.406   9.470   4.122  0.4464 -0.2584  0.3183
 1268SOL    HW121796   3.411   9.389   4.172  0.7445 -0.0270  0.6631
 1268SOL    HW221797   3.486   9.518   4.144 -0.1628  0.5533  0.8469
 1269SOL     OW21798   6.120   3.868   9.253 -0.3451  0.0385 -0.3218
 1269SOL    HW121799   6.138   3.800   9.319 -0.4638 -0.4605 -0.7936
 1269SOL    HW221800   6.042   3.837   9.208 -1.5852  1.4550  0.7376
 1270SOL     OW21801  10.953   7.147   0.810  0.4697  0.6158 -0.1645
 1270SOL    HW121802  10.945   7.054   0.787  1.2707  0.8465 -1.4669
 1270SOL    HW221803  10.921   7.193   0.733 -2.4268  1.4779  1.4086
 1271SOL     OW21804   5.375   3.494   3.209 -0.0539  0.0477  0.3049
 1271SOL    HW121805   5.312   3.548   3.160  0.6538  0.0765 -0.6006
 1271SOL    HW221806   5.460   3.532   3.189  0.4215 -1.1439 -0.0140
 1272SOL     OW21807   5.343   8.493   0.156 -0.1354 -0.2129 -0.3855
 1272SOL    HW121808   5.254   8.521   0.134 -0.1874  0.1370  0.2375
 1272SOL    HW221809   5.365   8.543   0.235  0.7260 -0.0741 -0.7001
 1273SOL     OW21810   6.488  10.522  11.631 -0.2692 -0.1433  0.1957
 1273SOL    HW121811   6.528  10.606  11.609  2.0282 -0.8355  1.4508
 1273SOL    HW221812   6.449  10.492  11.549  1.3352  0.8519 -0.9809
 1274SOL     OW21813   2.141   8.569   3.458 -0.4009 -0.3829  0.3739
 1274SOL    HW121814   2.156   8.546   3.366 -2.0569  0.9822 -0.2918
 1274SOL    HW221815   2.100   8.492   3.496  0.9083 -1.2045  0.1658
 1275SOL     OW21816   4.758  13.092   1.605 -0.2367  0.1337  0.3353
 1275SOL    HW121817   4.754  13.179   1.565  0.8576  0.1774  0.2918
 1275SOL    HW221818   4.780  13.109   1.697  1.2208 -0.1265  0.0608
 1276SOL     OW21819   8.647  13.450   0.377 -0.1015  0.0082 -0.2078
 1276SOL    HW121820   8.609  13.538   0.369  0.8220  0.3427 -1.0857
 1276SOL    HW221821   8.732  13.464   0.419 -0.9003 -0.7341  1.7451
 1277SOL     OW21822   6.041  13.322   5.092 -0.1413  0.3943 -0.1931
 1277SOL    HW121823   6.126  13.363   5.109 -0.1505  0.2134  0.3161
 1277SOL    HW221824   6.007  13.368   5.016  0.8910 -0.2472 -1.0663
 1278SOL     OW21825   5.949   9.811   2.083 -0.0071 -0.2764  0.3864
 1278SOL    HW121826   5.954   9.717   2.065 -0.3056  0.0219 -1.4962
 1278SOL    HW221827   5.899   9.847   2.010  0.1933  1.3779  1.0047
 1279SOL     OW21828   5.463   6.083   7.985 -0.2270 -0.1436  0.3122
 1279SOL    HW121829   5.434   5.995   8.007 -0.3572 -0.8594 -2.3783
 1279SOL    HW221830   5.387   6.139   8.000 -0.5980 -0.7285  0.6296
 1280SOL     OW21831   8.333   0.738   8.929 -0.1425  0.0383  0.0850
 1280SOL    HW121832   8.348   0.712   9.020 -0.9732 -1.5375 -0.2010
 1280SOL    HW221833   8.293   0.825   8.936  0.9964  0.5206  1.1478
 1281SOL     OW21834   3.730  12.566  13.159  0.5772 -0.4558 -0.3598
 1281SOL    HW121835   3.644  12.532  13.186  0.1977  1.3678  0.9290
 1281SOL    HW221836   3.787  12.489  13.161 -0.6453 -1.4010  0.4670
 1282SOL     OW21837   2.759   9.951   0.630  0.4532 -0.4453  0.0754
 1282SOL    HW121838   2.793  10.019   0.571 -2.0063  1.2123  0.4077
 1282SOL    HW221839   2.810   9.873   0.609  1.7683  0.8825 -2.0331
 1283SOL     OW21840  12.234   3.430   2.595  0.1940 -0.2481 -0.3037
 1283SOL    HW121841  12.140   3.422   2.579 -0.1698  0.9953  0.9581
 1283SOL    HW221842  12.269   3.342   2.581 -1.0781 -0.6372 -1.2184
 1284SOL     OW21843   4.263   2.522  13.997  0.1209  0.4617  0.1182
 1284SOL    HW121844   4.171   2.537  13.976 -0.1883 -1.5302 -0.1701
 1284SOL    HW221845   4.284   2.439  13.953  1.4182 -0.2854  2.0155
 1285SOL     OW21846  11.666  13.979  13.493  0.5308 -0.0353  0.2401
 1285SOL    HW121847  11.727  14.039  13.450 -0.9059  0.3049 -1.4384
 1285SOL    HW221848  11.683  13.895  13.452 -0.1189  0.0683 -0.2592
 1286SOL     OW21849  10.976   0.974   2.385 -0.4657 -0.3899  0.0955
 1286SOL    HW121850  10.925   0.956   2.464  0.1362 -1.6556  0.2182
 1286SOL    HW221851  11.003   1.066   2.394 -0.3555 -0.5319  1.3959
 1287SOL     OW21852  10.162   2.194  11.300 -0.2463 -0.6008  0.2226
 1287SOL    HW121853  10.167   2.286  11.273  1.7950 -0.5504  0.5712
 1287SOL    HW221854  10.127   2.197  11.389 -1.1063 -0.2540 -0.1213
 1288SOL     OW21855   0.657   6.432  11.700 -0.3880 -0.1322  1.4339
 1288SOL    HW121856   0.570   6.395  11.713 -0.8382  1.2369  2.5135
 1288SOL    HW221857   0.683   6.465  11.786  1.5270 -1.1547  1.2966
 1289SOL     OW21858  11.499   6.930   1.717 -0.4736  0.4269 -0.4817
 1289SOL    HW121859  11.568   6.975   1.765 -0.6857 -0.5604  0.7881
 1289SOL    HW221860  11.424   6.929   1.776 -1.4153  0.9671 -1.6165
 1290SOL     OW21861   1.839  12.385  10.031  0.1226 -0.5639  0.1419
 1290SOL    HW121862   1.863  12.296  10.004  0.6751 -0.0573 -1.1594
 1290SOL    HW221863   1.923  12.430  10.039 -0.1973  0.1736 -0.4882
 1291SOL     OW21864   9.222   5.089   3.913  0.3392 -0.5226  0.4158
 1291SOL    HW121865   9.129   5.112   3.910  0.4854  0.2034  1.3218
 1291SOL    HW221866   9.233   5.028   3.839 -0.6060  0.2376 -0.3902
 1292SOL     OW21867   6.892   8.958   9.429  0.3248  0.1214 -0.7234
 1292SOL    HW121868   6.874   9.023   9.362 -0.8283  0.3180 -0.2526
 1292SOL    HW221869   6.807   8.919   9.449  0.5678  0.3331  0.8776
 1293SOL     OW21870   6.044  11.173  14.083 -0.4049  0.0656 -0.0102
 1293SOL    HW121871   5.956  11.174  14.121  0.1895 -0.7510  1.4732
 1293SOL    HW221872   6.045  11.096  14.027 -0.7319  0.2571 -0.2826
 1294SOL     OW21873   4.726   5.838   8.949 -0.2732 -0.0215 -0.3153
 1294SOL    HW121874   4.802   5.814   9.001 -1.3333 -1.2356  0.7315
 1294SOL    HW221875   4.755   5.828   8.858  1.1329  0.6601  0.0252
 1295SOL     OW21876   1.381  12.406  11.396  0.0119  0.8595 -0.3573
 1295SOL    HW121877   1.427  12.345  11.454  1.3278  1.0448 -1.1855
 1295SOL    HW221878   1.425  12.490  11.409 -0.1418  1.0617 -1.1053
 1296SOL     OW21879  11.292   2.017   9.961 -0.4543 -0.4487 -0.9424
 1296SOL    HW121880  11.365   2.058  10.009 -1.3686 -1.0442  1.0362
 1296SOL    HW221881  11.286   2.068   9.880  0.8913  0.8664 -0.2706
 1297SOL     OW21882  13.686   1.995   4.114 -0.3066  0.5656  0.2309
 1297SOL    HW121883  13.627   2.046   4.170 -0.3499  0.8377 -0.0605
 1297SOL    HW221884  13.629   1.929   4.073 -0.3188  0.5184  0.3236
 1298SOL     OW21885   9.859   0.623   2.357 -0.5210  0.1290  0.0446
 1298SOL    HW121886   9.766   0.646   2.348 -0.3020  1.8448  1.5620
 1298SOL    HW221887   9.860   0.527   2.362 -2.7624  0.1027  4.4064
 1299SOL     OW21888  14.097   5.614   5.223  0.0190  0.0659 -0.3176
 1299SOL    HW121889  14.048   5.660   5.290 -0.7128  0.7446 -1.2868
 1299SOL    HW221890  14.071   5.656   5.141  0.6810 -0.9077 -1.0543
 1300SOL     OW21891   7.312  13.041  11.389  0.1730  0.3288 -0.1517
 1300SOL    HW121892   7.226  13.076  11.367  0.6026 -0.1898 -3.0716
 1300SOL    HW221893   7.370  13.118  11.389 -0.3046  0.8038  2.6103
 1301SOL     OW21894   0.598   2.432  11.677  0.3642  0.0022 -0.1315
 1301SOL    HW121895   0.617   2.441  11.584 -2.1279 -3.4654 -1.1800
 1301SOL    HW221896   0.678   2.462  11.720  1.4264  2.2327 -3.2765
 1302SOL     OW21897   4.003   7.446  10.601  0.6869 -0.0528 -0.9184
 1302SOL    HW121898   3.916   7.472  10.629  0.7404 -0.5944 -0.1922
 1302SOL    HW221899   4.004   7.457  10.506 -0.1770 -0.0612 -0.9286
 1303SOL     OW21900   9.538   3.491  12.724 -0.2945  0.6231 -0.3733
 1303SOL    HW121901   9.543   3.569  12.779  1.9872 -0.1270  0.6045
 1303SOL    HW221902   9.554   3.523  12.636 -0.9999  1.4656 -0.2083
 1304SOL     OW21903  13.226   4.605   5.102 -0.3050 -0.1377 -0.2481
 1304SOL    HW121904  13.196   4.637   5.017 -0.2184  0.3969 -0.0841
 1304SOL    HW221905  13.244   4.512   5.088 -1.2634 -0.2859 -0.5471
 1305SOL     OW21906   7.759  11.866  12.325 -0.3091  0.1579 -0.1146
 1305SOL    HW121907   7.728  11.948  12.363  1.0405  0.1080  1.1836
 1305SOL    HW221908   7.714  11.798  12.374  0.3492  0.1157  0.4542
 1306SOL     OW21909  10.913   9.392   6.993  0.8906  0.4501  0.0645
 1306SOL    HW121910  10.823   9.361   6.995  1.1165 -0.2352  1.5092
 1306SOL    HW221911  10.965   9.314   6.972  1.2209  0.5838  0.3652
 1307SOL     OW21912  13.193   8.688   4.647  0.0737  0.6238 -0.5271
 1307SOL    HW121913  13.178   8.623   4.578 -0.1385  1.2724 -1.1102
 1307SOL    HW221914  13.127   8.755   4.631  0.0563  0.8113  0.2865
 1308SOL     OW21915   5.622  11.513   5.707  0.1590 -0.5339  0.1368
 1308SOL    HW121916   5.623  11.418   5.696  0.1162 -0.4187 -0.9609
 1308SOL    HW221917   5.576  11.546   5.629 -2.0110  0.2567  1.6697
 1309SOL     OW21918   9.825   5.878   0.982  0.2622  0.1339 -0.1572
 1309SOL    HW121919   9.782   5.849   0.902  0.2641  2.2517 -0.9808
 1309SOL    HW221920   9.918   5.878   0.961  0.1940  1.8221 -0.6040
 1310SOL     OW21921   5.386   9.091   9.134  0.0846 -0.1868 -0.1306
 1310SOL    HW121922   5.465   9.134   9.101 -0.5479  0.4885 -0.8099
 1310SOL    HW221923   5.392   9.001   9.101  1.2530 -0.5553  1.0154
 1311SOL     OW21924   9.820  10.891  12.111 -0.1838  0.0648  0.3299
 1311SOL    HW121925   9.776  10.925  12.033 -1.3472  0.3026  1.0673
 1311SOL    HW221926   9.814  10.796  12.103 -0.9023  0.0981  0.4592
 1312SOL     OW21927   4.186  13.786   9.396 -0.6362 -0.5817  0.1750
 1312SOL    HW121928   4.221  13.811   9.310 -1.9165 -0.1065 -0.2237
 1312SOL    HW221929   4.159  13.869   9.436 -1.6877 -0.9683  0.2900
 1313SOL     OW21930   3.778   8.266  13.118 -0.6802  0.4385 -0.4941
 1313SOL    HW121931   3.741   8.250  13.204  0.3419 -2.0951 -0.4378
 1313SOL    HW221932   3.706   8.249  13.057 -0.5583 -1.2048 -0.2400
 1314SOL     OW21933   4.787  13.937   9.706  0.4226 -0.1461 -0.4404
 1314SOL    HW121934   4.695  13.918   9.726  1.1371 -1.5246  1.8913
 1314SOL    HW221935   4.796  13.915   9.614 -1.9546  1.7009 -1.2332
 1315SOL     OW21936  12.718   3.672   6.720  0.3133 -0.0381  0.7103
 1315SOL    HW121937  12.794   3.699   6.669  0.8301 -1.7025  0.5349
 1315SOL    HW221938  12.687   3.753   6.762  1.7975  0.7806  0.3071
 1316SOL     OW21939   4.508   0.201   9.546 -0.2582 -0.3203 -0.4529
 1316SOL    HW121940   4.533   0.265   9.613 -1.3275 -0.9413  0.5779
 1316SOL    HW221941   4.590   0.156   9.525  0.8933  2.4903 -2.4999
 1317SOL     OW21942   3.713  13.978   5.239 -0.0627  0.0270 -0.1765
 1317SOL    HW121943   3.717  14.059   5.289 -0.5526 -0.4623  0.6849
 1317SOL    HW221944   3.791  13.929   5.265 -0.1001 -0.0509 -0.2101
 1318SOL     OW21945   7.617  12.858   9.363  0.4797 -0.2781 -0.3650
 1318SOL    HW121946   7.592  12.862   9.271 -2.7013 -1.1284  0.3419
 1318SOL    HW221947   7.630  12.765   9.381  0.0900 -0.2168  0.2731
 1319SOL     OW21948  12.355   1.531  13.082 -0.0596  0.0187 -0.1092
 1319SOL    HW121949  12.311   1.455  13.120  0.7434 -0.1878  0.4489
 1319SOL    HW221950  12.406   1.568  13.155 -0.3789  1.0510 -0.3866
 1320SOL     OW21951   5.310   0.594  11.829 -0.2214  0.2919  0.0992
 1320SOL    HW121952   5.269   0.635  11.905 -0.2211  1.3283 -0.4384
 1320SOL    HW221953   5.240   0.586  11.764  0.1190  0.8517 -0.3472
 1321SOL     OW21954  13.952  13.553   3.769 -0.0765 -0.2162 -0.1367
 1321SOL    HW121955  13.893  13.612   3.722 -1.5016 -3.2746 -2.4644
 1321SOL    HW221956  13.909  13.539   3.854  0.0034  1.5289  0.2363
 1322SOL     OW21957   8.432  12.066   6.584  0.0500  0.3229  0.5286
 1322SOL    HW121958   8.377  12.144   6.580  0.3705  0.5081 -0.9657
 1322SOL    HW221959   8.372  11.994   6.563  0.0545  0.3309  0.4899
 1323SOL     OW21960  12.554   9.423   8.199 -0.0941 -0.2742  0.1820
 1323SOL    HW121961  12.468   9.431   8.156 -0.7427  1.4014  1.6763
 1323SOL    HW221962  12.617   9.435   8.128 -1.0117 -2.9211 -1.2065
 1324SOL     OW21963   3.688   6.216   9.732  0.9364  0.2290  0.6737
 1324SOL    HW121964   3.677   6.152   9.802 -0.1373 -0.2738  0.0645
 1324SOL    HW221965   3.783   6.220   9.718  1.0549 -0.7568  1.1501
 1325SOL     OW21966   4.717  10.980   2.219  0.0420 -0.3976 -0.3866
 1325SOL    HW121967   4.676  10.940   2.142  0.3783 -0.7567 -0.3829
 1325SOL    HW221968   4.644  11.015   2.269 -0.2875 -1.2456 -0.2526
 1326SOL     OW21969   2.591  12.258   8.669 -0.1809  0.0793 -0.4569
 1326SOL    HW121970   2.532  12.334   8.669 -2.1452 -1.3739  0.0239
 1326SOL    HW221971   2.597  12.232   8.578  0.5058  0.7990 -0.6254
 1327SOL     OW21972   9.548   7.910   8.257 -0.1915 -0.2850  0.0778
 1327SOL    HW121973   9.525   7.903   8.350  2.6977 -2.0652  0.7910
 1327SOL    HW221974   9.534   7.821   8.223 -0.4348  0.1542 -1.0133
 1328SOL     OW21975   7.543  11.868   3.609 -0.0102 -0.1439  0.2045
 1328SOL    HW121976   7.530  11.945   3.554 -0.2281  0.6888  1.4050
 1328SOL    HW221977   7.638  11.859   3.615  0.0163 -0.1403 -0.1460
 1329SOL     OW21978   1.972  11.318   0.145  0.6601 -0.3141  0.9015
 1329SOL    HW121979   1.994  11.317   0.238 -1.0995  0.7563  1.3678
 1329SOL    HW221980   1.901  11.381   0.137  0.5357 -0.6299 -1.1292
 1330SOL     OW21981   4.894  11.143   2.835  0.1212 -0.1744  0.1285
 1330SOL    HW121982   4.823  11.147   2.770 -1.1131  2.1690  1.4883
 1330SOL    HW221983   4.932  11.231   2.834 -0.3553  0.1445  2.9717
 1331SOL     OW21984  13.960  10.947   1.118  0.5383 -0.2059  0.3453
 1331SOL    HW121985  13.991  11.000   1.191 -0.3551  2.0044 -0.7619
 1331SOL    HW221986  13.867  10.968   1.111  0.1862 -1.8068 -0.2943
 1332SOL     OW21987   7.437   8.001   7.550 -0.5318 -0.0907 -0.1230
 1332SOL    HW121988   7.501   7.953   7.602 -1.1660 -0.2404  0.5316
 1332SOL    HW221989   7.450   8.092   7.575 -1.1475 -0.2062  0.6697
 1333SOL     OW21990   9.351   3.210   8.659 -0.1219 -0.6288  0.2054
 1333SOL    HW121991   9.256   3.197   8.656 -0.3301  0.5757  0.5780
 1333SOL    HW221992   9.387   3.140   8.606 -1.2975 -0.3676 -0.9881
 1334SOL     OW21993   0.522   5.723  10.377 -0.1594 -0.1579  0.1942
 1334SOL    HW121994   0.596   5.672  10.344 -0.0565  1.2142 -1.8624
 1334SOL    HW221995   0.562   5.803  10.411 -0.5059 -0.4792  1.3895
 1335SOL     OW21996   4.694  12.332   0.067  0.1172  0.2335 -0.4793
 1335SOL    HW121997   4.651  12.274   0.130 -0.3008  1.0741  0.0255
 1335SOL    HW221998   4.648  12.315  -0.016 -0.5945  0.4793 -0.1377
 1336SOL     OW21999   3.873  11.549   7.143 -0.2445 -0.6859  0.4463
 1336SOL    HW122000   3.865  11.579   7.233  2.1869 -0.0734  0.5388
 1336SOL    HW222001   3.830  11.616   7.091  0.3562  0.1513  1.0158
 1337SOL     OW22002  11.500   5.743   1.998  0.7588  0.1602  0.0279
 1337SOL    HW122003  11.472   5.690   2.073  0.6380 -0.9245 -0.7596
 1337SOL    HW222004  11.552   5.813   2.037 -0.4570  0.4276  1.2447
 1338SOL     OW22005  10.939  10.760  12.414  0.3341  0.1247  0.1931
 1338SOL    HW122006  10.985  10.684  12.451  0.6429  0.0871 -0.2613
 1338SOL    HW222007  10.977  10.770  12.327 -0.5374  0.0749 -0.1977
 1339SOL     OW22008  12.504   2.798  10.225 -0.3685  0.4835  0.3640
 1339SOL    HW122009  12.540   2.874  10.270 -2.0940  0.5505  1.7613
 1339SOL    HW222010  12.411   2.817  10.215 -0.6505 -1.0002 -0.1893
 1340SOL     OW22011  11.386   9.870   9.735 -0.1511  0.0585  0.5459
 1340SOL    HW122012  11.443   9.937   9.773 -0.3361 -0.1903  1.2742
 1340SOL    HW222013  11.431   9.843   9.655 -0.7947  2.1092 -0.5835
 1341SOL     OW22014   4.892   7.589   3.525  0.3422 -0.3347  0.1000
 1341SOL    HW122015   4.972   7.537   3.516 -0.1162 -1.1249  0.4986
 1341SOL    HW222016   4.889   7.643   3.446  0.1640 -1.8375 -0.9621
 1342SOL     OW22017   9.254   0.849   2.825  0.7424  0.0442  0.1470
 1342SOL    HW122018   9.168   0.869   2.789  1.0914 -0.6052 -1.1233
 1342SOL    HW222019   9.242   0.768   2.874  0.3476  0.7179  1.1895
 1343SOL     OW22020   2.334   1.990   1.578 -0.1836 -0.0071 -0.2627
 1343SOL    HW122021   2.411   1.948   1.542  1.2743  1.8282  0.5302
 1343SOL    HW222022   2.306   1.933   1.650  0.3574 -0.7593 -0.6418
 1344SOL     OW22023   6.172  11.070  13.222  0.7082  0.4020  0.3601
 1344SOL    HW122024   6.098  11.101  13.169 -0.2444  0.0811  1.4604
 1344SOL    HW222025   6.226  11.020  13.160  0.3457  1.1553 -0.6010
 1345SOL     OW22026   0.640   3.793   5.691 -0.1656 -0.4207 -0.3119
 1345SOL    HW122027   0.645   3.861   5.623 -0.6402  0.5371  0.5870
 1345SOL    HW222028   0.566   3.739   5.666 -0.0143 -0.3921 -0.8368
 1346SOL     OW22029   4.384   6.723   2.506 -0.2224  0.0250 -0.0623
 1346SOL    HW122030   4.305   6.764   2.542  0.7015 -0.3547  2.5978
 1346SOL    HW222031   4.386   6.636   2.546  1.5307  0.0200 -0.0843
 1347SOL     OW22032   4.742  11.456   3.780  0.6056  0.3409 -0.3369
 1347SOL    HW122033   4.698  11.474   3.863  0.1214  1.1164 -0.7552
 1347SOL    HW222034   4.714  11.367   3.757  0.4452  0.2655  0.1369
 1348SOL     OW22035   5.054   7.765   9.971 -0.7047 -0.1425  0.1661
 1348SOL    HW122036   5.023   7.844  10.015  0.2294  0.8534 -0.9015
 1348SOL    HW222037   5.139   7.747  10.011 -0.8480 -0.5400  0.3030
 1349SOL     OW22038  11.535   2.025   0.951 -0.1674 -0.7908 -0.1140
 1349SOL    HW122039  11.481   2.093   0.912 -0.5018 -0.6440  0.5887
 1349SOL    HW222040  11.512   2.026   1.044  0.4809 -1.2515  0.0619
 1350SOL     OW22041   4.601   9.890   6.078 -0.3197 -0.4134  0.5821
 1350SOL    HW122042   4.544   9.947   6.025 -2.2110 -0.1595  2.7612
 1350SOL    HW222043   4.679   9.879   6.024 -1.2692  1.5178 -1.3627
 1351SOL     OW22044   4.541  12.181   6.246 -0.0493  0.0513  0.4333
 1351SOL    HW122045   4.467  12.133   6.281  0.2341  0.2856  1.3971
 1351SOL    HW222046   4.571  12.235   6.319 -0.6461  2.0658 -0.7333
 1352SOL     OW22047   9.980  12.823   8.983 -0.0473 -0.7423 -0.1994
 1352SOL    HW122048   9.982  12.864   8.896  1.1012  0.3830  0.3208
 1352SOL    HW222049  10.068  12.836   9.018 -0.8837  0.1684  1.7327
 1353SOL     OW22050   2.049   3.684   0.924  0.5696  0.7780 -0.2227
 1353SOL    HW122051   2.037   3.614   0.988  1.9722  0.9471  0.2677
 1353SOL    HW222052   1.995   3.756   0.955 -0.3087  0.1837 -0.3316
 1354SOL     OW22053   3.557   8.815   3.312 -0.1314  0.0342 -0.2997
 1354SOL    HW122054   3.524   8.839   3.398  0.1569  0.2154 -0.2378
 1354SOL    HW222055   3.558   8.898   3.263  1.5749  0.3316  0.1443
 1355SOL     OW22056  12.547   3.519  13.241  0.2660 -0.3170  0.1746
 1355SOL    HW122057  12.507   3.599  13.208  0.2186 -0.3323  0.1944
 1355SOL    HW222058  12.543   3.458  13.168 -0.2384 -0.4928  0.3456
 1356SOL     OW22059   1.883  10.534   4.158  0.0941  0.2759 -0.6598
 1356SOL    HW122060   1.910  10.567   4.243  0.6660 -0.3710 -0.5810
 1356SOL    HW222061   1.932  10.586   4.095  0.7171 -0.1753 -0.5494
 1357SOL     OW22062   7.965   7.994   5.596  0.2033  0.3336  0.2585
 1357SOL    HW122063   7.982   8.056   5.525 -0.3318  0.9235  0.6280
 1357SOL    HW222064   7.873   7.971   5.586 -0.1812  1.2524  1.3770
 1358SOL     OW22065  12.246   0.756   6.145 -0.1173  0.0519  0.0471
 1358SOL    HW122066  12.173   0.806   6.110  0.0792  0.2462 -0.0786
 1358SOL    HW222067  12.322   0.813   6.136  0.5265 -1.0609 -2.0793
 1359SOL     OW22068   9.363   7.883  12.636 -0.4491  0.0181  0.0443
 1359SOL    HW122069   9.409   7.808  12.674 -0.8329 -0.4978 -0.4988
 1359SOL    HW222070   9.316   7.922  12.710  1.8726  1.3785  0.9402
 1360SOL     OW22071   8.878   8.389  13.938  0.2954  0.8260  0.0402
 1360SOL    HW122072   8.944   8.365  13.873 -0.9650 -0.4418 -0.8393
 1360SOL    HW222073   8.795   8.387  13.890 -0.7477 -0.6184  1.7558
 1361SOL     OW22074  13.756   5.772   9.795 -0.4466 -0.1842  0.1575
 1361SOL    HW122075  13.817   5.813   9.735 -0.0356  0.0133  0.7051
 1361SOL    HW222076  13.777   5.679   9.791 -0.4412 -0.1756 -0.0251
 1362SOL     OW22077   9.807  12.320  14.085  0.4487  0.0889 -0.0863
 1362SOL    HW122078   9.742  12.319  14.016  1.0699  0.6322 -0.6907
 1362SOL    HW222079   9.891  12.318  14.039  0.8633  0.0443  0.6584
 1363SOL     OW22080   2.766   3.163   6.059 -0.0340 -0.1533  0.1020
 1363SOL    HW122081   2.861   3.176   6.053  0.0522 -0.0476  1.4174
 1363SOL    HW222082   2.752   3.129   6.148 -1.4425  1.8002  0.6806
 1364SOL     OW22083   0.453   1.820   7.031  0.2046  0.4704  0.0217
 1364SOL    HW122084   0.414   1.907   7.023  0.6804  0.5172 -2.7607
 1364SOL    HW222085   0.405   1.767   6.967 -0.1581 -1.3904  1.7480
 1365SOL     OW22086   1.840   5.318   0.534  0.1426  0.1491 -0.3043
 1365SOL    HW122087   1.827   5.412   0.548 -0.2275  0.0094  0.3242
 1365SOL    HW222088   1.765   5.291   0.480  0.6919  0.3641 -1.2087
 1366SOL     OW22089  12.279   8.909   7.663  0.7467 -0.1456  0.1179
 1366SOL    HW122090  12.330   8.844   7.710  0.3859  0.2151  1.0273
 1366SOL    HW222091  12.272   8.983   7.723  0.2838  0.3317 -0.5012
 1367SOL     OW22092  13.615  12.095  10.684  0.4251 -0.0671 -0.6309
 1367SOL    HW122093  13.599  12.043  10.762  0.6350  0.8974  0.0815
 1367SOL    HW222094  13.701  12.065  10.652  1.0125  0.5076  0.3453
 1368SOL     OW22095   5.860  11.874   8.800 -0.3203  0.4738  1.3157
 1368SOL    HW122096   5.914  11.897   8.875  2.2129  1.9173 -0.7847
 1368SOL    HW222097   5.801  11.949   8.789 -1.2507 -0.0882  2.2489
 1369SOL     OW22098  11.025   0.760   2.840 -0.5253  0.3309 -0.2940
 1369SOL    HW122099  11.013   0.666   2.826  4.7999 -0.2567 -3.2115
 1369SOL    HW222100  11.093   0.765   2.906 -1.8550  2.3466  1.0226
 1370SOL     OW22101   7.880   4.907   8.301  0.3512  0.3475  0.1673
 1370SOL    HW122102   7.872   4.832   8.360 -0.2424  0.2258 -0.0547
 1370SOL    HW222103   7.851   4.873   8.216  1.3947  0.4616 -0.2449
 1371SOL     OW22104   1.030  12.020   4.524  0.0225 -0.6927 -0.2153
 1371SOL    HW122105   1.073  12.095   4.483  0.2376 -0.5705  0.2266
 1371SOL    HW222106   0.941  12.050   4.540 -0.1303 -0.8232 -0.8058
 1372SOL     OW22107  13.949   0.300  10.985  0.2912  0.0535  0.5280
 1372SOL    HW122108  14.042   0.318  10.981  0.4202 -0.6933 -0.0659
 1372SOL    HW222109  13.927   0.268  10.898 -0.6474  0.7978  0.4723
 1373SOL     OW22110  13.024   2.880   0.281 -0.0540  0.1387  0.0780
 1373SOL    HW122111  13.099   2.939   0.274 -0.7067  1.0059  0.1488
 1373SOL    HW222112  12.948   2.936   0.262 -0.5283 -1.2967 -2.7999
 1374SOL     OW22113  12.980  13.677  11.573  0.2530  0.1135 -0.7140
 1374SOL    HW122114  12.995  13.586  11.599 -0.0613  1.0387  3.3360
 1374SOL    HW222115  12.886  13.681  11.553 -0.3096 -0.0137  1.6582
 1375SOL     OW22116  13.328   0.629  14.046 -0.1747 -0.3808  0.4925
 1375SOL    HW122117  13.302   0.694  14.111 -2.2701 -0.2593 -0.3974
 1375SOL    HW222118  13.384   0.677  13.985  0.2716 -0.0352  1.1664
 1376SOL     OW22119   2.502   1.938   8.066  0.4233 -0.5060 -0.0721
 1376SOL    HW122120   2.486   1.852   8.026 -0.7367  0.8263 -2.7790
 1376SOL    HW222121   2.516   1.997   7.991  1.9943  1.5527  1.7035
 1377SOL     OW22122   0.863  13.874   6.766  0.1917 -0.5660 -0.4099
 1377SOL    HW122123   0.785  13.820   6.754 -1.9056  2.1991 -0.3103
 1377SOL    HW222124   0.892  13.854   6.855 -1.1943 -0.7586  0.0228
 1378SOL     OW22125   4.171   7.367   3.302 -0.2823 -0.2775  0.4783
 1378SOL    HW122126   4.212   7.415   3.374 -0.4477 -1.1614  1.1697
 1378SOL    HW222127   4.216   7.398   3.224 -0.7289  1.3900  0.8440
 1379SOL     OW22128  13.441   9.541  11.941 -0.3236  0.3806  0.0634
 1379SOL    HW122129  13.450   9.606  11.871 -0.1864  0.7003  0.3733
 1379SOL    HW222130  13.412   9.461  11.897  0.7847  0.2717 -0.5088
 1380SOL     OW22131   0.005   8.854   5.733  0.2646  0.0522  0.2510
 1380SOL    HW122132  -0.086   8.871   5.709  0.3525 -0.0321 -0.1594
 1380SOL    HW222133   0.010   8.873   5.827 -0.1007  0.3586  0.2101
 1381SOL     OW22134   8.456  11.137   0.306  0.4698  0.0213  0.1093
 1381SOL    HW122135   8.460  11.081   0.383  1.8808 -0.3871 -0.2348
 1381SOL    HW222136   8.374  11.112   0.263  0.6784 -1.2326  0.3870
 1382SOL     OW22137   4.092  11.695   5.668  0.2183 -0.0718  0.2263
 1382SOL    HW122138   4.042  11.678   5.588 -0.1313 -0.1621  0.4621
 1382SOL    HW222139   4.162  11.629   5.667  0.6602  0.3950 -0.3737
 1383SOL     OW22140  12.068   0.274  10.959 -0.0323 -0.1402  0.4086
 1383SOL    HW122141  12.026   0.194  10.989  0.3323  0.3965  2.5567
 1383SOL    HW222142  12.067   0.332  11.036  1.2622  1.2557 -0.5589
 1384SOL     OW22143  10.727   7.623   8.611 -0.3256  0.4384  0.4330
 1384SOL    HW122144  10.742   7.554   8.547  1.8973  0.0406  1.3083
 1384SOL    HW222145  10.631   7.631   8.615 -0.5591 -0.6338 -1.6993
 1385SOL     OW22146  12.286   3.429  12.931 -0.3234 -0.2984  0.1433
 1385SOL    HW122147  12.213   3.448  12.991 -0.3668  0.2492 -0.0780
 1385SOL    HW222148  12.243   3.415  12.846 -0.1444  0.4215 -0.0717
 1386SOL     OW22149  13.110   9.179   0.440  0.0035  0.0845  0.5578
 1386SOL    HW122150  13.186   9.120   0.442  1.3166  1.7386  1.5015
 1386SOL    HW222151  13.085   9.189   0.532 -1.3792 -0.4060  0.2638
 1387SOL     OW22152  13.505   6.383   2.083  0.4520 -0.1564  0.2854
 1387SOL    HW122153  13.506   6.459   2.025 -1.5894 -0.5006 -0.2670
 1387SOL    HW222154  13.498   6.420   2.171 -2.2408  0.3635 -0.0689
 1388SOL     OW22155   8.418   0.887   7.258 -0.0404  0.1201  0.6587
 1388SOL    HW122156   8.437   0.808   7.207 -1.2972  0.8156 -0.9942
 1388SOL    HW222157   8.483   0.950   7.229 -0.4808  0.3828  0.2264
 1389SOL     OW22158   2.675   9.764   6.125  0.3609  0.3539  0.2849
 1389SOL    HW122159   2.616   9.764   6.200  0.9984 -1.3880  0.8379
 1389SOL    HW222160   2.746   9.823   6.151  0.2253  0.3170  0.7553
 1390SOL     OW22161   5.458   5.621   0.997 -0.2671  0.3077 -0.2569
 1390SOL    HW122162   5.404   5.611   1.075  0.7119 -3.0519  0.1501
 1390SOL    HW222163   5.504   5.704   1.011 -1.8490  0.9443  1.6021
 1391SOL     OW22164   5.410   7.366   1.227 -0.4426  0.0552  0.1513
 1391SOL    HW122165   5.478   7.315   1.184  0.2765  0.2207  1.0531
 1391SOL    HW222166   5.394   7.439   1.167 -1.0570 -0.8847 -0.8638
 1392SOL     OW22167   1.210  12.195   8.890  0.1584  0.3267  0.0078
 1392SOL    HW122168   1.118  12.205   8.863  0.3666  3.3194  0.0379
 1392SOL    HW222169   1.257  12.261   8.839  1.8070  0.8427  2.0556
 1393SOL     OW22170   8.409   1.081  12.160 -0.4036  0.2819  0.1627
 1393SOL    HW122171   8.465   1.123  12.225  0.8993 -1.0083 -0.0790
 1393SOL    HW222172   8.338   1.144  12.145 -1.1230  0.3697  3.2602
 1394SOL     OW22173   7.726  10.758   3.291  0.5653  0.4357 -0.0780
 1394SOL    HW122174   7.781  10.818   3.341  0.8363  0.3462 -0.2693
 1394SOL    HW222175   7.682  10.705   3.357  1.5389 -0.2369  0.0512
 1395SOL     OW22176   3.170   0.234  12.709  0.2715  0.5183  0.2802
 1395SOL    HW122177   3.199   0.325  12.711  2.6575 -0.0373 -2.5056
 1395SOL    HW222178   3.092   0.234  12.654 -0.3785  0.9674  1.1748
 1396SOL     OW22179  12.245   0.513  10.497  0.8495  0.4992 -0.0433
 1396SOL    HW122180  12.271   0.458  10.571 -3.2138 -0.4273  0.9659
 1396SOL    HW222181  12.248   0.454  10.422  1.4278  0.3653  0.0828
 1397SOL     OW22182   8.997  10.212  12.744  0.3926  0.3085 -0.2236
 1397SOL    HW122183   8.977  10.303  12.763  0.4871 -0.0687  1.9495
 1397SOL    HW222184   8.933  10.162  12.795  0.1214 -0.8599 -1.6454
 1398SOL     OW22185   0.395   2.505  12.857  0.5285 -0.4706 -0.0176
 1398SOL    HW122186   0.473   2.523  12.805 -0.0751  0.1604 -0.7431
 1398SOL    HW222187   0.409   2.551  12.939  0.1746  1.1745 -0.8299
 1399SOL     OW22188   8.957   2.886  10.535  1.0752  0.1406  0.5980
 1399SOL    HW122189   8.887   2.822  10.521  1.0000  0.5796 -1.2520
 1399SOL    HW222190   8.912   2.968  10.552  1.0973  0.4231 -0.5913
 1400SOL     OW22191   3.977   6.074   5.039 -0.1329  0.0434  0.2673
 1400SOL    HW122192   3.935   6.058   5.123 -3.1338  0.8306 -0.9265
 1400SOL    HW222193   4.033   6.150   5.055  0.6876 -0.8533  1.8984
 1401SOL     OW22194   7.573   5.440   1.782  0.0727  0.0757 -0.1681
 1401SOL    HW122195   7.614   5.475   1.703 -1.0885  3.6171  0.6239
 1401SOL    HW222196   7.635   5.461   1.852 -0.0790 -0.6700  0.1967
 1402SOL     OW22197   1.356   4.288   2.170  0.0498 -0.5442  0.2980
 1402SOL    HW122198   1.416   4.218   2.193  0.0886 -0.0084  1.9785
 1402SOL    HW222199   1.395   4.367   2.209 -0.2289  0.3527 -1.1333
 1403SOL     OW22200  10.358   5.104   0.707 -0.1051  0.2378  0.2460
 1403SOL    HW122201  10.271   5.067   0.725  0.6991 -2.6706 -1.2733
 1403SOL    HW222202  10.347   5.154   0.626 -0.2474 -0.7015 -0.3251
 1404SOL     OW22203   3.696   4.033  13.781  0.2496  0.0720 -0.0968
 1404SOL    HW122204   3.654   4.103  13.732  0.3942 -0.4511 -0.9948
 1404SOL    HW222205   3.645   3.955  13.760 -0.3575  0.0042  1.4633
 1405SOL     OW22206  12.961   6.496   3.132 -0.4929 -0.1909 -0.1386
 1405SOL    HW122207  13.004   6.494   3.047 -1.5487 -1.3020 -0.6858
 1405SOL    HW222208  12.935   6.405   3.147 -2.1019  0.3344  0.4221
 1406SOL     OW22209   3.031   9.351   0.792 -0.0350 -0.2766 -0.4811
 1406SOL    HW122210   2.963   9.313   0.737  1.5870 -0.6988 -2.3130
 1406SOL    HW222211   3.063   9.278   0.845 -0.6817 -0.1843  0.0384
 1407SOL     OW22212   8.148  12.915   8.837 -0.1023  0.5592  0.3781
 1407SOL    HW122213   8.058  12.927   8.866 -0.2635 -1.0184  0.6349
 1407SOL    HW222214   8.142  12.848   8.769  0.5315  2.6097 -1.8487
 1408SOL     OW22215   0.229   2.372   1.761  0.1200  0.2130 -0.0319
 1408SOL    HW122216   0.156   2.373   1.699  0.3756  1.0886 -0.3349
 1408SOL    HW222217   0.306   2.395   1.709  0.3417  0.9278  0.5956
 1409SOL     OW22218  13.757   8.154  13.757 -0.5539 -0.2406  0.6617
 1409SOL    HW122219  13.779   8.145  13.664 -0.5233  1.6163  0.4589
 1409SOL    HW222220  13.827   8.107  13.803  1.0777  1.2757 -0.1686
 1410SOL     OW22221   6.237  11.538   6.053  0.4758 -0.7473  0.2542
 1410SOL    HW122222   6.163  11.550   5.993 -0.0954 -1.2176  0.8443
 1410SOL    HW222223   6.269  11.627   6.069  0.0628 -0.5393 -0.0394
 1411SOL     OW22224   8.915   7.288  11.282  0.5389 -0.0795 -0.0204
 1411SOL    HW122225   8.992   7.306  11.228  0.0994  0.4152 -0.4979
 1411SOL    HW222226   8.938   7.210  11.332  0.9331 -0.5920 -0.9812
 1412SOL     OW22227  13.559   5.599  13.969  0.1662 -0.2559 -0.2426
 1412SOL    HW122228  13.538   5.528  13.909  0.0735 -0.4901  0.0682
 1412SOL    HW222229  13.608   5.557  14.040  1.4817  0.2261 -0.8219
 1413SOL     OW22230   5.895   6.115   5.718 -0.3351 -0.5425  0.2145
 1413SOL    HW122231   5.936   6.199   5.740  1.0001 -1.4177  1.2461
 1413SOL    HW222232   5.967   6.053   5.717 -1.0950 -1.4819 -1.8666
 1414SOL     OW22233   8.886   2.517   1.930  0.6882 -0.0224  0.3175
 1414SOL    HW122234   8.866   2.482   1.844  1.8960  1.0450 -0.4403
 1414SOL    HW222235   8.933   2.599   1.912  1.0404  0.1765  1.9828
 1415SOL     OW22236  11.407   8.359   4.461 -0.5829  1.0176  0.2621
 1415SOL    HW122237  11.353   8.330   4.387 -0.4120 -0.1184  0.5607
 1415SOL    HW222238  11.490   8.386   4.421 -0.5501  0.5614  0.0054
 1416SOL     OW22239   6.199   2.799   3.516 -0.0850 -0.2866 -0.0519
 1416SOL    HW122240   6.163   2.840   3.437  0.0424 -0.0170  0.0301
 1416SOL    HW222241   6.125   2.750   3.553 -0.3298  0.1320  0.0260
 1417SOL     OW22242  10.243  10.289   4.441 -0.3188  0.5981  0.0607
 1417SOL    HW122243  10.267  10.301   4.349 -0.6622  2.3143  0.1682
 1417SOL    HW222244  10.152  10.260   4.438  0.3344 -1.6419 -0.1804
 1418SOL     OW22245  11.578  12.441  13.243 -0.3632 -0.2013  0.3263
 1418SOL    HW122246  11.507  12.447  13.179 -1.4265  1.5049  1.5832
 1418SOL    HW222247  11.617  12.529  13.245  0.1281 -0.4205  1.4540
 1419SOL     OW22248   8.077   1.136   5.492 -0.5479 -0.7571  0.9408
 1419SOL    HW122249   8.028   1.217   5.504  1.2797  0.5631  0.0167
 1419SOL    HW222250   8.163   1.153   5.531  0.4700 -1.5649 -0.7815
 1420SOL     OW22251   1.368   2.507   6.743 -0.0279 -0.1445 -0.1546
 1420SOL    HW122252   1.318   2.502   6.662  0.2798  0.3946 -0.3786
 1420SOL    HW222253   1.305   2.536   6.809 -0.0878  0.2111 -0.3682
 1421SOL     OW22254   1.730   9.595   2.777 -0.2186  0.5648 -0.1576
 1421SOL    HW122255   1.800   9.547   2.732 -0.8966 -0.7371  0.1301
 1421SOL    HW222256   1.665   9.528   2.799 -0.6305  1.4133  1.3647
 1422SOL     OW22257   1.307   2.392   1.360  0.2094  0.5657 -0.2608
 1422SOL    HW122258   1.390   2.353   1.333 -0.6807  0.0592 -2.5335
 1422SOL    HW222259   1.309   2.480   1.323 -1.2338 -0.2999 -2.6691
 1423SOL     OW22260   4.738   0.198   5.321 -0.2067 -0.4511 -0.1007
 1423SOL    HW122261   4.799   0.203   5.394 -0.2015  2.8582 -0.1867
 1423SOL    HW222262   4.652   0.188   5.362 -0.0396 -0.4421  0.2561
 1424SOL     OW22263  12.213   1.903   7.692  0.0699 -0.1361 -0.2739
 1424SOL    HW122264  12.197   1.993   7.721  0.7144  0.3017 -1.2196
 1424SOL    HW222265  12.132   1.856   7.713  0.6085  0.0192  2.5845
 1425SOL     OW22266   1.477   3.539   6.333 -0.4409  0.4533 -0.2860
 1425SOL    HW122267   1.387   3.507   6.324 -1.3967  2.4029  1.5291
 1425SOL    HW222268   1.470   3.634   6.324  1.0928  0.8472  1.8929
 1426SOL     OW22269  13.403   1.825   9.553  0.1296  0.3943 -0.3545
 1426SOL    HW122270  13.490   1.804   9.521  0.3257  1.1299 -0.3162
 1426SOL    HW222271  13.417   1.891   9.621 -0.4396  0.4033 -0.2395
 1427SOL     OW22272  10.539  12.860   0.394 -0.1484 -0.4574  0.0706
 1427SOL    HW122273  10.504  12.774   0.373 -1.6592  0.4364 -1.3209
 1427SOL    HW222274  10.583  12.889   0.313 -0.2716  0.3561  0.2830
 1428SOL     OW22275  13.178   4.351  13.747 -0.0505  0.5489  0.3632
 1428SOL    HW122276  13.245   4.374  13.682 -0.6310  0.4322 -0.2805
 1428SOL    HW222277  13.102   4.327  13.696  0.1034 -1.5483  1.0197
 1429SOL     OW22278   8.944   0.991  13.540  0.4808 -0.2517 -0.9606
 1429SOL    HW122279   8.924   1.035  13.623  1.9398  0.2444 -0.8388
 1429SOL    HW222280   8.859   0.981  13.497 -0.2381 -0.0633  0.3681
 1430SOL     OW22281   8.050  10.968   4.647 -0.0970 -0.4323 -0.1520
 1430SOL    HW122282   7.967  10.993   4.606  1.2787  2.5957 -1.4389
 1430SOL    HW222283   8.093  10.913   4.582  0.2176  0.6896 -0.9196
 1431SOL     OW22284  14.070   5.728   4.390  0.0264 -0.2260 -0.4447
 1431SOL    HW122285  14.110   5.799   4.439 -2.1879  1.6962 -1.2619
 1431SOL    HW222286  13.985   5.715   4.432  0.1268 -2.0175 -0.7050
 1432SOL     OW22287   9.680   1.679   3.299  0.0260 -0.0825  0.1527
 1432SOL    HW122288   9.691   1.766   3.336  0.8253  0.0133 -0.2945
 1432SOL    HW222289   9.704   1.688   3.207 -1.7443 -0.3589 -0.3669
 1433SOL     OW22290   4.203   4.466   6.034  0.6721  0.0685 -0.3122
 1433SOL    HW122291   4.217   4.512   6.116  0.2803 -1.4100  0.6312
 1433SOL    HW222292   4.178   4.534   5.971 -0.1286  1.0912  1.0676
 1434SOL     OW22293   9.738   6.605   2.203 -0.1380 -0.0207  0.0704
 1434SOL    HW122294   9.680   6.638   2.272 -0.5399  0.7931 -0.6335
 1434SOL    HW222295   9.796   6.544   2.247  0.0521  0.9920  1.2719
 1435SOL     OW22296  12.695   0.794   4.019 -0.2972  0.6312 -0.1289
 1435SOL    HW122297  12.645   0.724   3.977  1.1798 -0.2228 -0.5151
 1435SOL    HW222298  12.648   0.812   4.100 -1.4521  0.1488 -0.6713
 1436SOL     OW22299  12.779   8.414   3.028 -0.7086  0.4849 -0.7203
 1436SOL    HW122300  12.693   8.431   3.067 -1.5013  3.2948 -3.3110
 1436SOL    HW222301  12.842   8.451   3.091 -1.6568  1.4686 -0.3202
 1437SOL     OW22302   6.533  11.029   9.438  0.5705 -0.0141  0.4617
 1437SOL    HW122303   6.504  10.954   9.387 -2.5592  0.8627  0.7374
 1437SOL    HW222304   6.628  11.025   9.436  0.5221 -2.1291 -2.2441
 1438SOL     OW22305   1.460   2.782   6.532 -0.4281 -0.5179  0.0650
 1438SOL    HW122306   1.403   2.742   6.598 -1.1450 -1.6893 -1.2006
 1438SOL    HW222307   1.546   2.788   6.575 -1.5905  2.0237  2.2876
 1439SOL     OW22308  13.061   7.050  10.405  0.3748 -0.2854 -0.1450
 1439SOL    HW122309  13.037   7.078  10.317  0.8410 -0.8343 -0.4518
 1439SOL    HW222310  13.066   7.131  10.455 -1.4738 -0.0865 -0.2141
 1440SOL     OW22311  13.425   5.167   2.705  0.0563 -0.1439 -0.0587
 1440SOL    HW122312  13.345   5.115   2.714 -0.2582  0.4796  1.0639
 1440SOL    HW222313  13.448   5.190   2.795  0.1556  1.6830 -0.5132
 1441SOL     OW22314   0.410  11.792   0.948 -0.2291  0.0805 -0.1831
 1441SOL    HW122315   0.366  11.747   1.020 -0.3398  2.1076  1.1176
 1441SOL    HW222316   0.490  11.826   0.987  1.4253 -1.5744 -1.9221
 1442SOL     OW22317   1.791  11.786   7.445  0.0180 -0.1403 -0.1793
 1442SOL    HW122318   1.882  11.756   7.439 -0.2591 -1.0741  0.1448
 1442SOL    HW222319   1.797  11.877   7.477  0.8466 -0.0581 -0.5567
 1443SOL     OW22320   4.004   4.509  12.587 -0.1231  0.8964  0.6173
 1443SOL    HW122321   4.078   4.503  12.527  0.6089  3.6921  1.1176
 1443SOL    HW222322   3.939   4.449  12.550  0.6434  1.7552 -2.4431
 1444SOL     OW22323   2.657   6.949  11.974 -0.6082 -0.3565  0.0135
 1444SOL    HW122324   2.639   6.880  12.039  0.5320  0.6976  1.5134
 1444SOL    HW222325   2.689   6.901  11.898  2.3950 -1.4878  1.7984
 1445SOL     OW22326   4.389   9.012  11.269  0.3500 -0.1939 -0.2269
 1445SOL    HW122327   4.441   8.934  11.251  0.4164 -0.2020  0.0019
 1445SOL    HW222328   4.324   8.983  11.333  0.0072 -0.2061 -0.5709
 1446SOL     OW22329   8.207   6.425   2.949 -0.6408 -0.2903 -0.2138
 1446SOL    HW122330   8.238   6.357   3.008 -1.8423 -1.5096 -0.9335
 1446SOL    HW222331   8.112   6.429   2.964 -0.4556  2.2308  0.8162
 1447SOL     OW22332   1.569   5.994  13.494 -0.0270 -0.0098 -0.3275
 1447SOL    HW122333   1.649   5.960  13.454  0.2814  0.9776 -0.5756
 1447SOL    HW222334   1.520   6.033  13.422 -1.1355 -1.2993 -0.3186
 1448SOL     OW22335  12.222   4.802   3.124 -0.2675  0.6029 -0.1046
 1448SOL    HW122336  12.254   4.877   3.074 -1.3445  0.7098 -0.6631
 1448SOL    HW222337  12.213   4.834   3.214  0.5396  0.7533 -0.0752
 1449SOL     OW22338   3.459   3.938   9.972  0.4799 -0.4789  0.0890
 1449SOL    HW122339   3.397   3.866   9.955 -0.8346  0.8721 -1.1018
 1449SOL    HW222340   3.419   3.987  10.044 -0.2925  0.8159 -1.1585
 1450SOL     OW22341   4.994  12.527   1.971  0.2400  0.3138  0.4701
 1450SOL    HW122342   5.074  12.478   1.952  0.4308  0.8032  0.0233
 1450SOL    HW222343   4.945  12.469   2.030  1.2132  0.2833  1.2863
 1451SOL     OW22344   0.712   3.115  11.768  0.2336 -0.5786 -0.3827
 1451SOL    HW122345   0.806   3.129  11.782  0.1102  0.6512 -0.6697
 1451SOL    HW222346   0.686   3.186  11.709 -0.7621 -1.2621 -0.7878
 1452SOL     OW22347  11.523  10.344   2.252  0.7162 -0.6508 -0.3009
 1452SOL    HW122348  11.497  10.314   2.165  0.4452  1.5370 -1.0439
 1452SOL    HW222349  11.464  10.417   2.271  2.7549  0.9292  0.3401
 1453SOL     OW22350  11.927   9.042   4.501  0.6665  0.3781 -0.0939
 1453SOL    HW122351  11.868   9.052   4.426 -1.7409 -0.8717  1.5271
 1453SOL    HW222352  12.005   8.999   4.464 -0.4346 -0.1988 -1.8651
 1454SOL     OW22353   7.755  13.566   4.993 -0.0837 -0.6190 -0.1348
 1454SOL    HW122354   7.811  13.517   5.053  0.1133  0.8818  0.9731
 1454SOL    HW222355   7.789  13.546   4.906  0.5449 -1.7199  0.3554
 1455SOL     OW22356   7.017  10.585   1.144  0.5596 -0.0057  0.5729
 1455SOL    HW122357   7.058  10.537   1.072  0.5006  0.0621  0.4953
 1455SOL    HW222358   7.056  10.546   1.223  0.8320  0.1094  0.4973
 1456SOL     OW22359   7.627   0.128   2.964 -0.7667 -0.2045 -0.5920
 1456SOL    HW122360   7.571   0.054   2.939  0.2655 -1.2452  0.0727
 1456SOL    HW222361   7.683   0.094   3.033  0.1760  1.0272 -0.7014
 1457SOL     OW22362  10.545  11.483   7.287 -0.0168 -0.0971 -0.1714
 1457SOL    HW122363  10.450  11.489   7.301  0.0296  0.3655 -0.0514
 1457SOL    HW222364  10.564  11.551   7.222  0.6346  1.6890  1.7966
 1458SOL     OW22365  10.298  13.242   9.020  0.4266 -0.1085 -0.1639
 1458SOL    HW122366  10.389  13.211   9.018  0.5065 -0.0941  1.5871
 1458SOL    HW222367  10.303  13.328   9.062 -0.1604  0.9844 -2.1947
 1459SOL     OW22368   7.588  13.627   8.560  0.5407 -0.2197 -0.2000
 1459SOL    HW122369   7.668  13.616   8.611 -0.1620 -0.3613  0.8879
 1459SOL    HW222370   7.537  13.692   8.608  0.1762  0.1871 -1.1070
 1460SOL     OW22371   2.969   5.687   0.368  0.2390 -0.1658  0.0762
 1460SOL    HW122372   2.880   5.706   0.398 -0.3407 -1.0464 -1.0140
 1460SOL    HW222373   2.978   5.592   0.376  0.5467 -0.2591 -1.1905
 1461SOL     OW22374  11.752  10.151   5.157  0.0810  0.4817  0.1639
 1461SOL    HW122375  11.695  10.140   5.080  0.7434  1.7741 -0.5498
 1461SOL    HW222376  11.760  10.063   5.194 -0.7347 -0.0671 -0.9104
 1462SOL     OW22377  10.957   3.233   9.477  0.4684  0.2115  0.0775
 1462SOL    HW122378  10.957   3.301   9.544  1.0105  0.3197 -0.0214
 1462SOL    HW222379  10.905   3.162   9.514  2.2903 -0.5016  1.4325
 1463SOL     OW22380  10.862   4.341  10.496 -0.0182 -0.1078 -0.0770
 1463SOL    HW122381  10.879   4.248  10.480 -0.1061 -0.3412  1.0758
 1463SOL    HW222382  10.888   4.355  10.587 -0.0499  0.9949 -0.2182
 1464SOL     OW22383  10.246  11.019   4.240  0.4885 -0.2147  0.0725
 1464SOL    HW122384  10.156  10.999   4.213  0.5155  2.6322 -2.6221
 1464SOL    HW222385  10.301  10.963   4.184  0.4257  0.1410 -0.3473
 1465SOL     OW22386  10.482   5.252   0.919  0.1821  0.0891 -0.0226
 1465SOL    HW122387  10.417   5.224   0.984  0.3883  0.0517  0.1703
 1465SOL    HW222388  10.468   5.193   0.844  1.5841 -1.5491  0.9329
 1466SOL     OW22389  12.290   1.817   1.419 -0.7058 -0.0929  0.1958
 1466SOL    HW122390  12.353   1.750   1.391 -1.1307 -0.2219 -0.4650
 1466SOL    HW222391  12.262   1.788   1.506 -0.4058 -0.4273  0.1842
 1467SOL     OW22392   3.962   9.672   3.216  0.8009 -0.3462  0.4025
 1467SOL    HW122393   4.038   9.645   3.165  0.1577 -0.1662 -0.6864
 1467SOL    HW222394   3.908   9.593   3.224  1.4665 -0.6881  1.8952
 1468SOL     OW22395   2.598   3.814  11.434 -0.5957 -0.2485 -0.2130
 1468SOL    HW122396   2.609   3.787  11.343  0.4461 -1.4868  0.2587
 1468SOL    HW222397   2.596   3.910  11.430 -1.1519 -0.2998 -1.5890
 1469SOL     OW22398  12.799   1.433  13.029  0.5545  0.0597 -0.4298
 1469SOL    HW122399  12.777   1.455  12.939  0.7741 -0.6058 -0.6546
 1469SOL    HW222400  12.725   1.379  13.059 -0.0095  1.1039  0.1324
 1470SOL     OW22401   6.031   1.756   9.740  0.5072 -0.4972  1.0972
 1470SOL    HW122402   6.117   1.769   9.699  0.5834  0.1435  1.4511
 1470SOL    HW222403   6.051   1.729   9.830  0.3385 -0.9548  0.9994
 1471SOL     OW22404   2.370   5.626   0.858  0.5865  0.1322 -0.2219
 1471SOL    HW122405   2.291   5.672   0.829  0.3872  0.8276  1.3401
 1471SOL    HW222406   2.377   5.550   0.799 -2.1479 -0.8595  0.5893
 1472SOL     OW22407  10.422  10.000  10.030 -0.2309  0.3603  0.4853
 1472SOL    HW122408  10.436  10.089  10.061  0.4289  0.6032 -0.4816
 1472SOL    HW222409  10.382  10.010   9.944 -0.3638 -0.2768  0.4656
 1473SOL     OW22410   7.749  13.845   8.465  0.4331  0.0709 -0.0116
 1473SOL    HW122411   7.783  13.903   8.533 -0.0438 -0.5564  0.7738
 1473SOL    HW222412   7.722  13.766   8.512  0.1173 -0.3840 -0.9344
 1474SOL     OW22413   5.519   5.181   7.890  0.8978  0.0292 -0.3366
 1474SOL    HW122414   5.614   5.176   7.880  0.9363  0.2894 -0.1223
 1474SOL    HW222415   5.505   5.255   7.950  0.4369  2.0776 -2.7750
 1475SOL     OW22416   5.765   3.556   3.634  0.6100  0.5124 -0.4723
 1475SOL    HW122417   5.707   3.510   3.695  0.3137  1.2785 -0.1603
 1475SOL    HW222418   5.769   3.645   3.669  0.5432  0.9254 -1.5041
 1476SOL     OW22419  12.500  12.515   5.621 -1.1899  0.0568 -0.2482
 1476SOL    HW122420  12.424  12.495   5.675  0.5721 -1.1872  1.9336
 1476SOL    HW222421  12.509  12.610   5.627 -1.4969  0.0191  1.0081
 1477SOL     OW22422  10.781   3.255   7.498  0.8340 -0.1918  0.5287
 1477SOL    HW122423  10.687   3.268   7.480  0.7235  1.2475  1.9515
 1477SOL    HW222424  10.811   3.201   7.425 -0.6780  0.9606 -1.0568
 1478SOL     OW22425   2.392  13.223  12.818  0.0183 -0.3935  0.4320
 1478SOL    HW122426   2.425  13.172  12.892 -0.7166 -0.2278  0.8863
 1478SOL    HW222427   2.340  13.161  12.767  0.2980 -0.4418  0.2076
 1479SOL     OW22428  12.022   0.324  12.101 -0.1431  0.1301  0.4148
 1479SOL    HW122429  11.938   0.362  12.076  0.8737  1.1358 -1.7648
 1479SOL    HW222430  12.068   0.312  12.018  0.7936 -3.1055  1.2849
 1480SOL     OW22431   8.842   6.398  10.804 -0.0399  0.2069 -0.3509
 1480SOL    HW122432   8.831   6.428  10.714  0.8271 -1.3395 -1.0036
 1480SOL    HW222433   8.920   6.443  10.835  0.0740  0.1953 -0.6183
 1481SOL     OW22434   4.771   8.960   5.574 -0.3108 -0.6105 -0.4121
 1481SOL    HW122435   4.786   8.918   5.489 -0.1392  0.4672 -0.9250
 1481SOL    HW222436   4.679   8.986   5.572 -0.3480 -0.7200 -0.1953
 1482SOL     OW22437   0.747   1.935   7.951  0.1920 -0.4403 -0.4827
 1482SOL    HW122438   0.675   1.872   7.948 -0.7464  0.6176 -2.3943
 1482SOL    HW222439   0.725   1.999   7.883  0.9568  2.1139  1.5154
 1483SOL     OW22440  13.874   6.712  11.892  0.1336 -0.2626  0.4371
 1483SOL    HW122441  13.826   6.783  11.849  0.5183 -0.8282 -0.9688
 1483SOL    HW222442  13.906   6.658  11.821  1.3851 -0.8651  1.4179
 1484SOL     OW22443   8.923  12.271   6.938 -0.1606 -0.1855 -0.9426
 1484SOL    HW122444   8.969  12.253   7.020 -1.4783 -1.4132 -0.4327
 1484SOL    HW222445   8.992  12.274   6.872  0.9913  1.3358  0.2352
 1485SOL     OW22446  12.157  13.567   5.089 -0.3155 -0.5843  0.1921
 1485SOL    HW122447  12.121  13.609   5.011  0.5645  1.7765  0.9856
 1485SOL    HW222448  12.232  13.517   5.057 -1.6425 -1.9831 -0.8386
 1486SOL     OW22449  14.017  13.462  12.682  0.1685 -0.0391  0.4134
 1486SOL    HW122450  13.982  13.386  12.635  0.4662  0.7626 -1.1839
 1486SOL    HW222451  14.036  13.429  12.770  0.2915 -1.8044 -0.2300
 1487SOL     OW22452   6.700   0.603   1.312  0.0526  0.2411  1.0830
 1487SOL    HW122453   6.678   0.549   1.388 -1.6805  0.7123  0.9419
 1487SOL    HW222454   6.649   0.683   1.324  2.8004  2.0706  1.4720
 1488SOL     OW22455   2.448   8.274   1.908 -0.1466  0.2387  0.2891
 1488SOL    HW122456   2.483   8.348   1.858  0.4707 -0.4843 -0.3583
 1488SOL    HW222457   2.520   8.246   1.964  0.4521 -1.4140 -1.2306
 1489SOL     OW22458  10.434   0.092   1.193 -0.1310  0.3473 -0.5709
 1489SOL    HW122459  10.402   0.053   1.113 -0.2919 -0.6622 -0.0277
 1489SOL    HW222460  10.447   0.185   1.171  0.3515 -0.0102 -1.9068
 1490SOL     OW22461   7.451  11.381   2.465 -0.2995  0.1103  0.0407
 1490SOL    HW122462   7.385  11.315   2.446 -1.1840  1.1705 -0.6622
 1490SOL    HW222463   7.469  11.372   2.559 -0.8306 -0.7292  0.0640
 1491SOL     OW22464   3.258   7.842   4.655  0.2341  0.1812 -0.6622
 1491SOL    HW122465   3.168   7.810   4.650  0.0493  0.3120  1.0683
 1491SOL    HW222466   3.279   7.841   4.749  3.0638 -2.6684 -1.1123
 1492SOL     OW22467  11.382  12.979  12.883  0.1275  0.0705 -0.5530
 1492SOL    HW122468  11.379  12.975  12.979  0.7269 -0.8556 -0.5639
 1492SOL    HW222469  11.333  13.059  12.861 -2.0906 -0.9185  0.4068
 1493SOL     OW22470   6.000  12.758  12.041 -0.3342 -0.2503  0.2707
 1493SOL    HW122471   5.932  12.715  12.093 -0.8873 -0.6314 -0.7548
 1493SOL    HW222472   5.957  12.784  11.960  0.5759  0.1031 -0.1146
 1494SOL     OW22473   9.331   8.261   7.637  0.1599  0.3047  0.0706
 1494SOL    HW122474   9.347   8.283   7.729  0.7297 -0.1446  0.0829
 1494SOL    HW222475   9.416   8.267   7.595  0.1164 -0.6629 -0.1777
 1495SOL     OW22476   1.447   7.998  12.576  0.6398  0.2297  0.6056
 1495SOL    HW122477   1.387   7.924  12.564  2.0221 -0.9617  0.7000
 1495SOL    HW222478   1.414   8.044  12.653  0.5133 -1.0959  1.3651
 1496SOL     OW22479   5.042   0.386   6.704 -0.0327 -0.1652  0.2967
 1496SOL    HW122480   5.049   0.433   6.787  1.5746  2.7110 -1.3040
 1496SOL    HW222481   5.055   0.294   6.727 -1.6136  0.2655  3.4213
 1497SOL     OW22482   9.174   6.937  11.588  0.1333 -0.0358  0.1422
 1497SOL    HW122483   9.192   6.892  11.506 -0.5129  1.4268 -0.8431
 1497SOL    HW222484   9.206   6.877  11.656  0.7855 -1.2216 -1.1630
 1498SOL     OW22485  10.867   2.748  14.029 -0.2795 -0.6200 -0.2521
 1498SOL    HW122486  10.826   2.670  14.065  0.8926 -0.0647  2.5691
 1498SOL    HW222487  10.814   2.821  14.063 -0.9837 -0.1321 -2.3095
 1499SOL     OW22488   9.140  11.051   1.285 -0.4612 -0.1907  0.0827
 1499SOL    HW122489   9.128  11.120   1.351  0.6137 -0.1147  0.2137
 1499SOL    HW222490   9.231  11.060   1.257  0.2056 -2.5064  1.2023
 1500SOL     OW22491   7.576  12.143   6.500 -0.5104  0.2253 -0.1842
 1500SOL    HW122492   7.554  12.053   6.523 -0.1783  0.3689  0.7395
 1500SOL    HW222493   7.531  12.159   6.418 -1.3165 -0.4850  0.1121
 1501SOL     OW22494   8.694   5.691  12.423  0.5829  0.0562 -0.4391
 1501SOL    HW122495   8.673   5.658  12.335  0.4416 -1.5277  0.1423
 1501SOL    HW222496   8.623   5.658  12.478  2.3492 -1.8699  0.8396
 1502SOL     OW22497  10.766   2.143   6.745 -0.2458 -0.1905  0.1401
 1502SOL    HW122498  10.851   2.100   6.760  0.3482  0.2496 -1.6915
 1502SOL    HW222499  10.785   2.210   6.679 -1.9457  0.2391  0.0515
 1503SOL     OW22500  13.264  11.276   7.978  0.3276 -0.1956 -0.5431
 1503SOL    HW122501  13.259  11.319   8.063  1.3931 -0.3499 -0.3792
 1503SOL    HW222502  13.191  11.214   7.977  0.9500 -0.9863  0.7242
 1504SOL     OW22503   8.396  11.242   8.152  0.3047  0.7216  0.4874
 1504SOL    HW122504   8.346  11.247   8.071  1.1325  3.0027  0.0488
 1504SOL    HW222505   8.468  11.182   8.132  0.3449  1.0487 -0.3868
 1505SOL     OW22506   6.257   2.546  12.090 -0.1090 -0.1204 -0.0664
 1505SOL    HW122507   6.303   2.573  12.010  0.2454  0.4356  0.3237
 1505SOL    HW222508   6.188   2.611  12.101  0.4601  0.3809  0.6228
 1506SOL     OW22509  13.715   1.574   6.759  0.1399 -0.7814  0.0304
 1506SOL    HW122510  13.808   1.585   6.781  0.0150 -2.7481  1.8701
 1506SOL    HW222511  13.669   1.604   6.838 -0.9259  1.2955 -1.2876
 1507SOL     OW22512   6.717  11.667  12.238 -0.2591  0.3385  0.0693
 1507SOL    HW122513   6.728  11.643  12.330  0.6782  0.5190  0.0095
 1507SOL    HW222514   6.805  11.665  12.201 -0.6354  0.1432 -0.8624
 1508SOL     OW22515  11.169   3.213   1.120 -0.4882  0.2400 -0.0626
 1508SOL    HW122516  11.261   3.186   1.116  0.3349  2.6918  0.5995
 1508SOL    HW222517  11.139   3.186   1.207 -0.4321 -0.6000 -0.2960
 1509SOL     OW22518  13.355   4.921  12.258  0.3665 -0.5011 -0.3566
 1509SOL    HW122519  13.291   4.903  12.327  1.1794 -0.6516  0.3717
 1509SOL    HW222520  13.417   4.849  12.262  1.1145  0.1204 -0.4189
 1510SOL     OW22521   4.576   8.964   3.103  0.3763  0.1277 -0.4648
 1510SOL    HW122522   4.598   8.916   3.183 -1.1006 -3.1161 -1.8204
 1510SOL    HW222523   4.484   8.988   3.114  1.0066  2.5590  0.0508
 1511SOL     OW22524   0.162  10.545  13.702 -0.3423 -0.3826 -0.2135
 1511SOL    HW122525   0.085  10.573  13.652 -0.5096  1.7227  1.1019
 1511SOL    HW222526   0.129  10.531  13.791  0.6694 -0.1748  0.2106
 1512SOL     OW22527   2.439   6.043  12.911 -0.3449  0.3102 -0.2500
 1512SOL    HW122528   2.492   6.107  12.958  1.0766 -0.4946 -0.6936
 1512SOL    HW222529   2.418   5.976  12.976 -0.4725  0.4198 -0.1776
 1513SOL     OW22530   9.908   5.986   3.150  0.0034  0.7490  0.3916
 1513SOL    HW122531   9.947   5.914   3.100  0.3271  1.6997 -0.7570
 1513SOL    HW222532   9.911   5.956   3.241 -0.8980 -1.1595 -0.1597
 1514SOL     OW22533   1.933  12.993   7.503  0.6225 -0.3823  0.3230
 1514SOL    HW122534   1.975  12.941   7.571  0.9095 -0.8561 -0.2150
 1514SOL    HW222535   1.962  13.083   7.520  1.6116 -0.6588  0.1340
 1515SOL     OW22536  12.391  14.090   0.505  0.4393 -0.2610  1.1534
 1515SOL    HW122537  12.301  14.064   0.487  0.3097  1.1309 -0.4375
 1515SOL    HW222538  12.443  14.013   0.485 -0.0941 -0.0052 -1.5097
 1516SOL     OW22539  11.342  10.044   8.538  0.1288 -0.0227 -0.0249
 1516SOL    HW122540  11.282  10.116   8.517 -0.5426 -0.8527 -1.0997
 1516SOL    HW222541  11.334  10.033   8.632 -0.5351  0.6492  0.0102
 1517SOL     OW22542   8.158   2.045   8.254 -0.0035  0.2072 -0.0800
 1517SOL    HW122543   8.228   2.109   8.240 -0.7993  0.6843 -2.2908
 1517SOL    HW222544   8.098   2.089   8.314  1.1671  0.0787  1.2553
 1518SOL     OW22545   7.775  11.231  13.809  0.0068  0.1743 -0.2687
 1518SOL    HW122546   7.701  11.176  13.783  0.2223 -0.7473  0.9626
 1518SOL    HW222547   7.853  11.182  13.781  0.1817  0.3615 -0.1188
 1519SOL     OW22548   3.268   4.715  12.755  0.0321  0.3968  0.1427
 1519SOL    HW122549   3.306   4.734  12.669  1.9700  0.6728  0.9939
 1519SOL    HW222550   3.231   4.798  12.784 -0.4437  0.3539 -0.3220
 1520SOL     OW22551  10.806   7.244   6.048 -0.0563 -0.4366  0.5768
 1520SOL    HW122552  10.873   7.183   6.078 -0.6453 -1.7291 -0.6317
 1520SOL    HW222553  10.748   7.191   5.994 -0.0453  1.3832 -1.3485
 1521SOL     OW22554  10.531   3.915   5.618 -0.2079  0.3784  0.3319
 1521SOL    HW122555  10.562   4.000   5.586 -1.5665  0.3706 -1.1727
 1521SOL    HW222556  10.487   3.935   5.700 -2.1867  1.4891 -0.9276
 1522SOL     OW22557  12.127   4.440   8.314  0.4144 -0.2265 -0.4844
 1522SOL    HW122558  12.175   4.420   8.394  0.9240  0.8890 -0.4942
 1522SOL    HW222559  12.190   4.424   8.244 -0.6594 -3.3636 -0.9084
 1523SOL     OW22560   5.954   1.806   6.118  0.4547 -0.7053 -0.3589
 1523SOL    HW122561   6.040   1.846   6.104  1.2314 -3.0738 -3.5996
 1523SOL    HW222562   5.938   1.757   6.037 -3.8502 -0.6449  0.2583
 1524SOL     OW22563   0.437  12.934  11.301  0.0926 -0.0821  0.3167
 1524SOL    HW122564   0.347  12.936  11.269 -0.6277 -1.2683  2.0723
 1524SOL    HW222565   0.472  12.851  11.267  0.5362  0.3627 -0.3380
 1525SOL     OW22566  11.246   4.758  12.518  0.0881  0.8770 -0.1638
 1525SOL    HW122567  11.174   4.809  12.480 -0.1826  0.0572 -0.7786
 1525SOL    HW222568  11.324   4.790  12.473 -0.3629 -0.9755 -2.4817
 1526SOL     OW22569   3.119   9.454   8.613  0.2256 -0.7384  0.8431
 1526SOL    HW122570   3.121   9.359   8.626 -0.5983 -1.1653 -1.6748
 1526SOL    HW222571   3.208   9.477   8.587 -0.0753 -1.2113 -0.6815
 1527SOL     OW22572  11.467  10.009   8.823  0.2951 -0.3223  0.0157
 1527SOL    HW122573  11.424  10.037   8.903 -0.0069 -2.2302  0.5656
 1527SOL    HW222574  11.540  10.070   8.812 -0.6692  1.0215  0.7750
 1528SOL     OW22575  11.470   9.965   5.578  0.1379  0.0153 -0.1500
 1528SOL    HW122576  11.523  10.040   5.552  0.9514  0.4174  2.3751
 1528SOL    HW222577  11.383   9.983   5.541  0.8479  1.1296 -1.3594
 1529SOL     OW22578   9.860   5.392   5.614  0.5086  0.6290 -0.2260
 1529SOL    HW122579   9.948   5.401   5.577  0.8753  0.5595  0.6067
 1529SOL    HW222580   9.873   5.343   5.695 -0.1158  1.7184  0.5643
 1530SOL     OW22581  13.783   1.670   8.407  0.1330  0.2931  0.1838
 1530SOL    HW122582  13.867   1.688   8.364 -0.1434  0.1169 -0.4486
 1530SOL    HW222583  13.771   1.575   8.398  0.8234 -0.0037  2.0809
 1531SOL     OW22584  11.272   3.681  11.539  0.3358  0.2706 -0.5313
 1531SOL    HW122585  11.359   3.718  11.528  0.4258  0.2299  0.0170
 1531SOL    HW222586  11.287   3.587  11.547  0.3900  0.3940  1.0450
 1532SOL     OW22587   3.726   7.912   8.083  0.0729 -0.9583  0.0706
 1532SOL    HW122588   3.685   7.932   8.168  0.1960  0.7593 -0.2509
 1532SOL    HW222589   3.679   7.835   8.052 -0.5368 -1.1200  1.3208
 1533SOL     OW22590   8.618  11.406  10.149  0.3660  0.3571  0.2866
 1533SOL    HW122591   8.612  11.458  10.069  1.0087  2.7054  1.6789
 1533SOL    HW222592   8.528  11.405  10.184  0.6795  2.5029  1.3448
 1534SOL     OW22593   8.182   9.835   7.269 -0.3951  0.4177  0.4800
 1534SOL    HW122594   8.160   9.927   7.285 -0.3251  0.4298  0.5056
 1534SOL    HW222595   8.156   9.820   7.178 -0.6424  0.3921  0.5561
 1535SOL     OW22596   0.256   0.709   8.580  0.9094  0.2239 -0.0799
 1535SOL    HW122597   0.281   0.630   8.629  0.3470 -0.3628 -0.7139
 1535SOL    HW222598   0.187   0.679   8.521 -1.4604  1.8124  1.6861
 1536SOL     OW22599   3.335   4.148   1.830 -0.0486  0.1052  0.0953
 1536SOL    HW122600   3.241   4.136   1.843  0.1543 -0.4354  1.1247
 1536SOL    HW222601   3.375   4.121   1.913  0.9704  0.9980 -0.0880
 1537SOL     OW22602   3.580  10.280   8.473 -0.3240 -0.3302  0.8057
 1537SOL    HW122603   3.567  10.315   8.385  1.4496 -1.8310 -0.1095
 1537SOL    HW222604   3.634  10.345   8.517  0.8626 -0.6924 -0.0655
 1538SOL     OW22605  12.880   8.323   4.568  0.0118  0.8906  0.3307
 1538SOL    HW122606  12.859   8.354   4.656 -0.8818 -0.1271  0.4979
 1538SOL    HW222607  12.874   8.228   4.574 -0.7342  0.8342 -0.9949
 1539SOL     OW22608   7.258   0.935  11.858  0.5296 -0.0064  0.3752
 1539SOL    HW122609   7.346   0.964  11.882  1.3903 -0.5915 -1.8515
 1539SOL    HW222610   7.261   0.840  11.866  0.3478 -0.0856 -0.4082
 1540SOL     OW22611   6.331  10.044  12.923 -0.0386  0.0386 -0.6077
 1540SOL    HW122612   6.418  10.070  12.894  1.3403  0.6034  3.3831
 1540SOL    HW222613   6.284  10.127  12.936  0.2897 -0.0020  1.0341
 1541SOL     OW22614   9.768  12.868   5.314 -0.1011 -0.2522  0.1072
 1541SOL    HW122615   9.813  12.942   5.355  1.1225  0.5039 -2.4301
 1541SOL    HW222616   9.784  12.795   5.374  2.5363  0.5298  0.4881
 1542SOL     OW22617  11.817   6.952  12.141 -0.1350  0.5567  1.0138
 1542SOL    HW122618  11.785   6.869  12.107 -1.0080  1.7777 -1.3707
 1542SOL    HW222619  11.797   7.016  12.072  2.0692  2.4579  1.9849
 1543SOL     OW22620   2.096   8.963   0.279 -0.1869  0.2709  0.5288
 1543SOL    HW122621   2.176   8.991   0.235 -0.2338 -0.4692 -0.0451
 1543SOL    HW222622   2.033   9.031   0.259 -0.2442 -0.1125 -0.6798
 1544SOL     OW22623  13.247   5.834  13.238 -0.0170  0.5160  0.0933
 1544SOL    HW122624  13.281   5.854  13.325 -1.5947 -0.9115  1.1005
 1544SOL    HW222625  13.182   5.903  13.221 -0.0034  0.5640  0.2324
 1545SOL     OW22626  13.832   3.209  13.339 -0.0565 -0.1127 -0.1040
 1545SOL    HW122627  13.770   3.272  13.374 -1.1847 -0.7763 -0.8647
 1545SOL    HW222628  13.883   3.257  13.274  1.7199  1.0042  1.9716
 1546SOL     OW22629   5.180  13.328  11.276  0.9094 -0.0567 -0.2005
 1546SOL    HW122630   5.125  13.377  11.216  0.4185 -0.4833 -0.1031
 1546SOL    HW222631   5.159  13.236  11.259  0.8124 -0.1876  0.5730
 1547SOL     OW22632   2.073   4.431   2.266 -0.1778 -0.1757 -0.9916
 1547SOL    HW122633   2.080   4.429   2.362  1.1938 -1.0505 -1.0815
 1547SOL    HW222634   2.000   4.491   2.249  0.0604  0.6214  0.5726
 1548SOL     OW22635   5.355   4.117   3.852 -0.5063  0.3786 -0.1461
 1548SOL    HW122636   5.295   4.134   3.779  0.1989 -0.3608 -0.9244
 1548SOL    HW222637   5.406   4.041   3.824  0.3409  0.5769  0.7820
 1549SOL     OW22638  11.400   4.638  10.419 -0.0336 -0.1147  0.2434
 1549SOL    HW122639  11.484   4.655  10.462 -0.2894  0.9420  0.3757
 1549SOL    HW222640  11.398   4.544  10.405  1.8534  0.0061 -1.1443
 1550SOL     OW22641   8.899   2.928   2.988 -0.1358 -0.0340 -0.1119
 1550SOL    HW122642   8.924   3.000   2.931  0.8083 -0.2603  0.0034
 1550SOL    HW222643   8.958   2.856   2.964  0.3205 -0.1164  1.1810
 1551SOL     OW22644   2.792  12.019  10.163 -0.2832  0.2302 -0.1880
 1551SOL    HW122645   2.757  12.065  10.240 -1.2204 -0.3269 -0.2594
 1551SOL    HW222646   2.755  11.931  10.170 -0.2317  0.1235 -1.1800
 1552SOL     OW22647  13.725   7.273  13.037  0.0557  0.0309  0.4413
 1552SOL    HW122648  13.639   7.297  13.070 -0.3786  0.6238 -1.0540
 1552SOL    HW222649  13.741   7.332  12.963  0.7298 -1.5622 -0.7698
 1553SOL     OW22650   8.092   3.334   0.797 -0.3628 -0.1031  0.2581
 1553SOL    HW122651   8.132   3.411   0.837  0.6494 -0.9979  1.0144
 1553SOL    HW222652   8.107   3.345   0.703 -0.7121  0.8729  0.3040
 1554SOL     OW22653   8.522   6.551   0.018 -0.3544  0.1568 -0.2710
 1554SOL    HW122654   8.448   6.496   0.043  0.2670 -0.2461  0.7149
 1554SOL    HW222655   8.500   6.638   0.052 -0.5904  0.1575 -0.4173
 1555SOL     OW22656   8.936   1.616   9.876  0.1744  0.2032 -0.1024
 1555SOL    HW122657   8.974   1.563   9.947  1.7985 -0.5435 -1.4538
 1555SOL    HW222658   8.950   1.706   9.903 -0.8830 -0.0312  1.3465
 1556SOL     OW22659   6.905   1.040   0.052 -0.4090  0.1942  0.4058
 1556SOL    HW122660   6.977   0.995   0.098  0.8580  0.3354 -1.3558
 1556SOL    HW222661   6.940   1.126   0.032 -0.9340  0.1415 -0.7852
 1557SOL     OW22662   4.196   7.523   3.962 -0.0034  0.2485  0.7037
 1557SOL    HW122663   4.143   7.599   3.940  1.0843  0.4583 -1.4877
 1557SOL    HW222664   4.160   7.452   3.909  0.6599 -0.0934  0.6997
 1558SOL     OW22665  11.186  14.099   7.422 -0.1039 -0.2967 -0.6745
 1558SOL    HW122666  11.093  14.114   7.438  0.0035 -0.7342  0.4828
 1558SOL    HW222667  11.204  14.144   7.340 -1.0882  0.7422 -0.3436
 1559SOL     OW22668   5.754  11.768   1.360 -0.4375 -0.3888 -0.1020
 1559SOL    HW122669   5.705  11.687   1.375 -0.3713 -0.8214 -1.9477
 1559SOL    HW222670   5.827  11.765   1.422 -2.4815  0.1044  2.4631
 1560SOL     OW22671   6.006   2.229   9.355  0.0426 -0.4489  0.0797
 1560SOL    HW122672   6.064   2.203   9.284  1.3609 -0.8812  1.2801
 1560SOL    HW222673   6.045   2.192   9.434 -0.2980  1.6191  1.3176
 1561SOL     OW22674   5.392  11.715  11.392  0.1755  0.0496  0.1308
 1561SOL    HW122675   5.424  11.804  11.375 -0.7469  0.4319  0.3156
 1561SOL    HW222676   5.460  11.658  11.356 -0.0543  0.8179 -1.6531
 1562SOL     OW22677  12.417   2.636  12.516  0.3878 -0.2550  0.1714
 1562SOL    HW122678  12.335   2.612  12.561  1.0158  0.1957  1.6016
 1562SOL    HW222679  12.412   2.731  12.507  0.8143 -0.2151  0.3710
 1563SOL     OW22680   9.980   5.069   1.136 -0.8274  0.2733 -0.0059
 1563SOL    HW122681   9.995   5.135   1.204 -1.1152  0.3897 -0.0527
 1563SOL    HW222682   9.912   5.108   1.080 -0.6256  0.1581 -0.3318
 1564SOL     OW22683   4.704  11.591   1.177 -0.0247 -0.3070  0.2008
 1564SOL    HW122684   4.723  11.664   1.236 -0.9833 -0.2291  0.4359
 1564SOL    HW222685   4.608  11.588   1.173 -0.0004  0.0979 -1.8548
 1565SOL     OW22686  13.739  11.122   2.581 -0.1006  0.1578  0.0360
 1565SOL    HW122687  13.733  11.050   2.518 -0.4298 -0.3843  0.6600
 1565SOL    HW222688  13.808  11.095   2.641 -0.9985 -0.2074  0.9464
 1566SOL     OW22689   3.846  12.057  13.913 -0.2870  0.3480  0.4061
 1566SOL    HW122690   3.899  12.015  13.981  0.5902  0.8758  0.0583
 1566SOL    HW222691   3.824  11.985  13.853  1.5628  0.3983 -0.4106
 1567SOL     OW22692   8.371   9.035   8.835 -0.1895 -0.2800  0.7543
 1567SOL    HW122693   8.422   9.116   8.836  1.7045 -1.3741 -0.7446
 1567SOL    HW222694   8.408   8.981   8.905 -0.8358 -0.2134  1.1564
 1568SOL     OW22695   4.782   0.355   4.898 -0.5677 -0.5707 -0.2643
 1568SOL    HW122696   4.850   0.421   4.907 -1.6700  0.5023  0.4815
 1568SOL    HW222697   4.814   0.296   4.830  0.4464  0.7229 -0.9368
 1569SOL     OW22698   9.748   0.739   9.878 -0.1439  0.2764  0.1799
 1569SOL    HW122699   9.826   0.770   9.832 -1.1911  0.1398 -1.7922
 1569SOL    HW222700   9.765   0.647   9.894  1.0347  0.7447  1.8718
 1570SOL     OW22701  14.090   7.293  11.417 -0.2191  0.3242  0.2381
 1570SOL    HW122702  14.167   7.324  11.369 -0.7565  0.1062 -0.8031
 1570SOL    HW222703  14.065   7.366  11.473 -0.1793  0.9713 -0.5741
 1571SOL     OW22704  13.912  13.857   7.694 -0.3507  0.4310  0.1170
 1571SOL    HW122705  13.853  13.916   7.647  0.3573  2.2707  1.4660
 1571SOL    HW222706  13.964  13.816   7.625 -1.1696  1.0197 -0.8798
 1572SOL     OW22707   0.459   9.168  10.551 -0.2941  0.0419 -0.2839
 1572SOL    HW122708   0.514   9.245  10.563 -0.4541  0.1612 -0.3093
 1572SOL    HW222709   0.370   9.203  10.545 -0.3394 -0.1161 -0.5856
 1573SOL     OW22710   4.261  11.618   2.897  0.3122 -0.0688 -0.4141
 1573SOL    HW122711   4.282  11.645   2.986 -0.8098  2.4938 -0.8528
 1573SOL    HW222712   4.333  11.653   2.844 -0.3643  0.7775 -0.8029
 1574SOL     OW22713  13.103   0.005  13.086  0.5468 -0.2464 -0.6408
 1574SOL    HW122714  13.065  -0.037  13.163 -0.3697  0.9496 -0.4048
 1574SOL    HW222715  13.162   0.072  13.122 -0.5368  0.8993 -0.9359
 1575SOL     OW22716   9.608   7.011   0.550 -0.2088 -0.7876 -0.0993
 1575SOL    HW122717   9.543   6.954   0.590  2.1269 -3.1326  0.7097
 1575SOL    HW222718   9.611   7.088   0.606 -1.5430 -1.0794  0.4106
 1576SOL     OW22719  10.001   5.834   5.839 -0.4848 -0.0060 -0.1117
 1576SOL    HW122720   9.930   5.801   5.894  0.3340 -1.4269  0.1207
 1576SOL    HW222721   9.976   5.925   5.821 -1.1138  0.2972  2.0224
 1577SOL     OW22722   5.364  12.695  13.666  0.2994  0.1861  0.4299
 1577SOL    HW122723   5.415  12.630  13.714 -0.3410 -0.3729  0.3569
 1577SOL    HW222724   5.300  12.727  13.730 -0.7814 -0.8040 -0.1198
 1578SOL     OW22725   1.444   3.444  11.233  0.7255  0.2717 -0.6646
 1578SOL    HW122726   1.486   3.530  11.237  0.5003  0.3443  2.0500
 1578SOL    HW222727   1.507   3.385  11.275 -0.3410 -0.2824  0.2074
 1579SOL     OW22728  10.168  13.411   5.014  0.3462  0.0741 -0.2751
 1579SOL    HW122729  10.097  13.349   4.998  0.9180 -0.3399 -1.3291
 1579SOL    HW222730  10.131  13.496   4.992 -0.1801  0.0082  0.3311
 1580SOL     OW22731  12.806   3.102   3.616  0.3306  0.6655  0.4889
 1580SOL    HW122732  12.871   3.172   3.606  0.9286  0.6745  3.4421
 1580SOL    HW222733  12.736   3.142   3.668 -1.1127  0.0418 -0.8623
 1581SOL     OW22734   0.656   9.213  13.232 -0.1979 -0.0437  0.0028
 1581SOL    HW122735   0.573   9.261  13.228 -0.5006 -0.4856  0.6964
 1581SOL    HW222736   0.630   9.121  13.240  0.3446 -0.1450  0.7454
 1582SOL     OW22737  13.835  13.203   5.459 -0.7440  0.5109  0.1887
 1582SOL    HW122738  13.911  13.179   5.406  0.1621  1.4912  1.0021
 1582SOL    HW222739  13.835  13.299   5.457 -0.8881  0.5530  1.6704
 1583SOL     OW22740   6.813  12.058  12.228 -0.0513  0.2783 -0.0357
 1583SOL    HW122741   6.741  12.050  12.290 -0.1431 -0.7912 -0.2604
 1583SOL    HW222742   6.865  11.979  12.242 -0.1636 -0.0637 -1.4337
 1584SOL     OW22743   3.842  12.258  11.992 -0.0754 -0.0110 -0.7361
 1584SOL    HW122744   3.771  12.225  12.047  0.8138 -0.4606  0.1856
 1584SOL    HW222745   3.835  12.353  11.996 -0.4618 -0.0525 -0.4419
 1585SOL     OW22746  10.767  10.713  13.268  0.2400 -0.3115  0.2552
 1585SOL    HW122747  10.748  10.768  13.192 -0.4582 -0.6296  0.1946
 1585SOL    HW222748  10.722  10.756  13.341 -1.3077 -1.4114 -0.0063
 1586SOL     OW22749  12.708   8.820   9.813 -0.0995 -0.0262  0.1931
 1586SOL    HW122750  12.743   8.766   9.885  0.3340  0.8098  0.6223
 1586SOL    HW222751  12.778   8.821   9.748 -0.5422 -0.8919 -0.3257
 1587SOL     OW22752   0.171  11.487   4.775  0.5347  0.2930 -0.0356
 1587SOL    HW122753   0.221  11.513   4.853 -0.9883 -0.0476  1.0905
 1587SOL    HW222754   0.159  11.568   4.726  0.3197  0.7667  0.7863
 1588SOL     OW22755  11.884   5.171   6.988  0.0561 -0.1118  0.0195
 1588SOL    HW122756  11.914   5.254   7.026  0.2756 -0.3383  0.3540
 1588SOL    HW222757  11.886   5.109   7.062 -0.4523 -0.3280 -0.1423
 1589SOL     OW22758   9.266  13.272  13.362  0.3851  0.5934 -0.1118
 1589SOL    HW122759   9.341  13.301  13.310  0.8750  0.0165  0.2489
 1589SOL    HW222760   9.278  13.177  13.369  0.2125  0.6277  0.8527
 1590SOL     OW22761  10.154   9.501   5.896  0.1979 -0.1992 -0.0281
 1590SOL    HW122762  10.064   9.472   5.904  0.6716 -2.2929 -1.3418
 1590SOL    HW222763  10.151   9.570   5.830 -0.5995  0.6987  0.9335
 1591SOL     OW22764  14.149  12.301   2.687  0.3196  0.3451  0.2663
 1591SOL    HW122765  14.161  12.233   2.620 -0.3349  1.4318 -1.0092
 1591SOL    HW222766  14.209  12.276   2.758 -0.5913 -2.0951  0.2984
 1592SOL     OW22767   2.511  12.508   7.694  0.7461  0.1494 -0.1175
 1592SOL    HW122768   2.604  12.498   7.675  0.3265 -0.7322 -1.9023
 1592SOL    HW222769   2.474  12.549   7.615 -0.1389  2.0053  1.1857
 1593SOL     OW22770  10.098   4.616   7.970  0.0715  0.0230 -0.1208
 1593SOL    HW122771  10.140   4.622   8.055  1.5619 -0.6316 -0.7703
 1593SOL    HW222772  10.093   4.707   7.939 -0.1670  0.2274  0.5115
 1594SOL     OW22773   7.348   6.087  11.272 -0.1638 -0.2096  0.3920
 1594SOL    HW122774   7.379   6.110  11.184  0.2467  1.7894  1.0008
 1594SOL    HW222775   7.396   6.008  11.294 -0.2494 -0.7374 -1.1490
 1595SOL     OW22776   8.449   8.677   9.968 -0.1400 -0.1834 -0.2219
 1595SOL    HW122777   8.391   8.731  10.021 -0.0218 -0.4999  0.2357
 1595SOL    HW222778   8.529   8.729   9.959 -0.1036 -0.1912  0.0419
 1596SOL     OW22779   3.017  12.528   8.026  0.3702 -0.3088 -0.1249
 1596SOL    HW122780   2.944  12.559   7.972 -0.4981 -4.1376 -1.5022
 1596SOL    HW222781   3.095  12.554   7.977 -0.0183  2.4124  0.5343
 1597SOL     OW22782   1.412   4.251   9.312 -0.5287  0.5947  0.2432
 1597SOL    HW122783   1.371   4.284   9.232  0.4513  3.2717  0.7231
 1597SOL    HW222784   1.349   4.188   9.347 -1.1344 -0.4154 -2.4246
 1598SOL     OW22785  10.658   0.884  13.850 -0.2323  0.2193 -0.2541
 1598SOL    HW122786  10.641   0.949  13.781  0.5998  0.9622  0.2225
 1598SOL    HW222787  10.661   0.800  13.803 -0.0568  0.6727 -1.0733
 1599SOL     OW22788  10.583  12.029   6.962  0.1655 -0.4946 -0.6015
 1599SOL    HW122789  10.632  12.111   6.957 -0.9520  0.2231 -0.2155
 1599SOL    HW222790  10.650  11.960   6.959  1.0564  0.3726 -2.3005
 1600SOL     OW22791   1.962   4.720   1.373  0.5974  0.4667  0.1650
 1600SOL    HW122792   1.950   4.729   1.279 -0.5192  1.4440  0.3704
 1600SOL    HW222793   2.009   4.638   1.384  3.2914  1.6573 -1.4167
 1601SOL     OW22794   2.842   8.993   0.354 -0.1162 -0.0424  0.1951
 1601SOL    HW122795   2.827   8.951   0.439  1.3768 -0.6090  0.2045
 1601SOL    HW222796   2.771   8.960   0.298 -1.1995  0.4479  1.2257
 1602SOL     OW22797   1.081   6.858  11.496  0.3923  0.3890 -0.0631
 1602SOL    HW122798   1.154   6.796  11.500  0.1965  0.1299 -0.3923
 1602SOL    HW222799   1.045   6.859  11.584  0.2153 -0.1896 -0.1277
 1603SOL     OW22800   2.707   2.569  11.098  0.4226 -0.0696  0.0959
 1603SOL    HW122801   2.722   2.538  11.187 -0.6659  0.5015  0.4971
 1603SOL    HW222802   2.620   2.536  11.075  1.0504 -0.9661 -1.1037
 1604SOL     OW22803   8.536   1.160  11.122 -0.4494 -0.5369 -0.2215
 1604SOL    HW122804   8.623   1.155  11.163 -1.1281 -0.7973  1.2294
 1604SOL    HW222805   8.514   1.070  11.100 -1.6913 -0.9245  2.3593
 1605SOL     OW22806   4.889   7.217   5.102  0.0166  0.2281 -0.4776
 1605SOL    HW122807   4.925   7.172   5.178 -0.9495  0.0814 -0.0868
 1605SOL    HW222808   4.812   7.166   5.078 -1.1021  1.6278 -0.0376
 1606SOL     OW22809   7.233   9.810   6.062  0.4170  0.7888  0.1393
 1606SOL    HW122810   7.166   9.838   6.000  1.2330  0.7644 -0.7720
 1606SOL    HW222811   7.186   9.755   6.124 -0.1924 -0.3155 -1.2429
 1607SOL     OW22812   3.510  13.532   0.733  0.0032  0.3026 -0.0204
 1607SOL    HW122813   3.486  13.585   0.656  0.6311  0.5595 -0.0488
 1607SOL    HW222814   3.427  13.499   0.766 -0.6139  2.6802  0.9891
 1608SOL     OW22815   1.369  10.950   6.719  0.2238  0.3672 -0.8275
 1608SOL    HW122816   1.397  11.034   6.684  0.1846  0.1965 -1.2771
 1608SOL    HW222817   1.273  10.955   6.722  0.1682  0.0110 -1.7136
 1609SOL     OW22818  11.803   2.529  10.350 -0.0839 -0.2516  0.8447
 1609SOL    HW122819  11.824   2.599  10.412  0.8108  0.5386 -0.3074
 1609SOL    HW222820  11.888   2.490  10.329 -0.3672 -0.4541  0.0599
 1610SOL     OW22821   2.363  13.645  13.949  0.0923 -0.4116 -0.3735
 1610SOL    HW122822   2.361  13.646  14.045  2.7873  1.3601 -0.2431
 1610SOL    HW222823   2.324  13.729  13.924 -1.4955 -1.2695 -0.9410
 1611SOL     OW22824   9.109   3.860  10.470 -0.2540 -0.2024 -0.7125
 1611SOL    HW122825   9.077   3.826  10.387  2.2862 -1.4330 -1.2981
 1611SOL    HW222826   9.149   3.944  10.448  2.3202 -1.4770 -1.2531
 1612SOL     OW22827   5.087  13.297   3.434 -0.3960 -0.3002 -0.0605
 1612SOL    HW122828   5.040  13.237   3.492 -0.7765 -0.2465 -0.3065
 1612SOL    HW222829   5.024  13.318   3.365  0.7411 -2.2107 -1.8134
 1613SOL     OW22830  13.365   3.624   3.323  0.4512 -0.9172  0.0318
 1613SOL    HW122831  13.348   3.635   3.229 -0.6208 -0.8882  0.2129
 1613SOL    HW222832  13.289   3.575   3.355 -0.6187  1.4059  1.3635
 1614SOL     OW22833   9.815  13.386   3.692 -0.4478  0.4686 -0.7210
 1614SOL    HW122834   9.883  13.399   3.625  0.6517 -1.4379 -0.0692
 1614SOL    HW222835   9.808  13.291   3.701 -1.6884  0.6562  0.7722
 1615SOL     OW22836   0.413   4.571   6.232  0.0551 -0.4192  0.7726
 1615SOL    HW122837   0.335   4.521   6.257  0.5541 -2.0092 -0.6134
 1615SOL    HW222838   0.447   4.605   6.314 -0.2939 -2.4416  1.8360
 1616SOL     OW22839   9.557   2.888  11.002 -0.1790 -0.2583 -0.6578
 1616SOL    HW122840   9.621   2.825  10.967  0.4206  0.7980 -1.5277
 1616SOL    HW222841   9.544   2.951  10.931  1.6972  2.4666  1.1960
 1617SOL     OW22842   3.061   7.041   8.723 -0.1847  0.2397  0.0765
 1617SOL    HW122843   3.083   7.124   8.764 -0.7814 -0.6619  2.4492
 1617SOL    HW222844   3.064   6.978   8.796 -2.9373 -1.2195 -0.9393
 1618SOL     OW22845   9.388   6.017   8.352  0.0479  0.2553  0.6289
 1618SOL    HW122846   9.475   5.978   8.353 -0.0293  0.0843  0.7896
 1618SOL    HW222847   9.371   6.041   8.443  0.6879  2.0125  0.3241
 1619SOL     OW22848   1.844   9.639  13.009  0.3116 -0.2223 -0.6449
 1619SOL    HW122849   1.914   9.574  13.008 -0.6035 -1.5270  3.1823
 1619SOL    HW222850   1.879   9.712  13.060  0.0287  0.6732 -1.6939
 1620SOL     OW22851  11.400   5.218   8.051  0.0380 -0.7449 -0.1244
 1620SOL    HW122852  11.348   5.250   7.977 -2.5385 -1.6290  1.1836
 1620SOL    HW222853  11.427   5.130   8.024  1.5506 -0.0189 -1.0974
 1621SOL     OW22854  12.106   0.511  13.611 -0.7945  0.3132  0.6399
 1621SOL    HW122855  12.176   0.499  13.675 -0.6795  1.2692  0.7102
 1621SOL    HW222856  12.134   0.586  13.559  0.4708 -2.0384 -2.3798
 1622SOL     OW22857   8.109   9.053   0.680  0.1821 -0.0262  0.4507
 1622SOL    HW122858   8.064   8.969   0.690 -0.1899  0.2030  0.7158
 1622SOL    HW222859   8.187   9.045   0.736  1.4741 -1.0968 -1.3767
 1623SOL     OW22860   2.880  12.843   7.295  0.2375 -0.0247  0.0758
 1623SOL    HW122861   2.805  12.838   7.354 -0.2752 -1.6186 -0.6578
 1623SOL    HW222862   2.939  12.774   7.326  1.4840  1.2588  0.6934
 1624SOL     OW22863  12.262   1.035   4.232 -0.2566  0.4528  0.6864
 1624SOL    HW122864  12.190   1.034   4.295 -0.3581 -0.4113  0.5775
 1624SOL    HW222865  12.255   0.950   4.187  0.2699  0.7459  0.0381
 1625SOL     OW22866   4.676  10.060  11.422  0.3795  0.1002  0.2363
 1625SOL    HW122867   4.591  10.017  11.432  0.8834 -1.1301 -0.4260
 1625SOL    HW222868   4.739   9.995  11.454  1.1630  0.4160 -0.6097
 1626SOL     OW22869   4.241   1.051  12.982  0.3208 -0.3847 -0.0310
 1626SOL    HW122870   4.282   1.126  13.025  1.0394 -0.5661 -0.3789
 1626SOL    HW222871   4.164   1.032  13.036  2.1186 -1.7148  2.2971
 1627SOL     OW22872   9.820   8.936   1.785  0.1624  0.0861  0.0495
 1627SOL    HW122873   9.730   8.903   1.785  0.3864 -0.5792 -1.3563
 1627SOL    HW222874   9.813   9.025   1.752 -0.0899  0.4189  0.9703
 1628SOL     OW22875   3.114   5.593   6.840 -0.2633  0.4709 -0.7793
 1628SOL    HW122876   3.074   5.518   6.797 -0.1849 -0.1221  0.1375
 1628SOL    HW222877   3.040   5.642   6.877 -0.2088 -1.1357  1.7390
 1629SOL     OW22878   7.468   3.814  12.891 -0.3300 -0.2654  0.5698
 1629SOL    HW122879   7.413   3.798  12.814  0.3391 -1.6636  0.3470
 1629SOL    HW222880   7.493   3.907  12.884 -0.3570 -0.3423 -0.8600
 1630SOL     OW22881  10.122   3.844   5.054  0.3681 -0.2034  0.1122
 1630SOL    HW122882  10.206   3.889   5.064 -0.7238  2.0217 -0.0856
 1630SOL    HW222883  10.119   3.820   4.961  0.2657  0.8778 -0.1797
 1631SOL     OW22884   0.271   7.264   5.156 -0.3562  0.2593  0.1713
 1631SOL    HW122885   0.342   7.328   5.154  1.1755 -1.3552 -0.9351
 1631SOL    HW222886   0.316   7.179   5.151 -2.3442 -0.8615  0.4011
 1632SOL     OW22887   0.668   6.021   1.886 -0.8401 -0.5652 -0.1181
 1632SOL    HW122888   0.667   6.062   1.800  0.2436 -2.1011 -0.9228
 1632SOL    HW222889   0.586   5.970   1.889 -0.9442 -0.4029 -0.1747
 1633SOL     OW22890   2.672   5.480   9.674  0.4434  0.2113 -0.0934
 1633SOL    HW122891   2.577   5.488   9.665  0.4335  0.5897  0.3006
 1633SOL    HW222892   2.701   5.443   9.591  0.0401  0.8705 -0.5402
 1634SOL     OW22893   7.087   1.942   8.879 -0.2993  0.2271 -0.1897
 1634SOL    HW122894   7.119   1.946   8.969 -1.2929 -1.1546  0.2679
 1634SOL    HW222895   7.101   1.851   8.853 -1.5365  0.1916 -0.8170
 1635SOL     OW22896   7.995   6.886   6.319 -0.1324 -0.4520 -0.5456
 1635SOL    HW122897   7.902   6.876   6.300  0.2581  0.0040 -2.9010
 1635SOL    HW222898   8.033   6.800   6.301 -0.1083 -0.7683  0.8459
 1636SOL     OW22899   8.547   2.945  13.513 -0.3413 -0.3550 -0.3927
 1636SOL    HW122900   8.622   3.000  13.534 -0.9550 -0.2095  1.6644
 1636SOL    HW222901   8.476   2.979  13.568 -2.5120  0.6853 -3.5842
 1637SOL     OW22902   3.505  10.906   0.454 -0.0800 -0.0273  0.2759
 1637SOL    HW122903   3.555  10.916   0.373 -2.1080 -1.0258 -1.1670
 1637SOL    HW222904   3.572  10.898   0.522  1.7161 -0.5691 -1.4524
 1638SOL     OW22905   7.913  12.315   3.411 -0.1376  0.0958 -0.4455
 1638SOL    HW122906   7.984  12.255   3.433 -0.5984  0.4875  2.5105
 1638SOL    HW222907   7.849  12.260   3.366  1.6144 -0.4170 -2.4845
 1639SOL     OW22908   6.970   5.376  11.349 -0.6845  0.0802  0.6000
 1639SOL    HW122909   7.063   5.365  11.329 -0.8645 -1.7496  0.6300
 1639SOL    HW222910   6.969   5.405  11.440 -0.1179  1.4492  0.1948
 1640SOL     OW22911   5.217   6.015   8.587  0.2378  0.1863 -0.4891
 1640SOL    HW122912   5.187   6.101   8.616 -0.5622  0.0443 -0.8694
 1640SOL    HW222913   5.242   6.028   8.496  1.7431  0.3876 -0.0855
 1641SOL     OW22914   4.597   3.992  11.286 -0.6126  0.0857 -0.1717
 1641SOL    HW122915   4.642   3.932  11.226 -2.2307  0.2049 -1.5606
 1641SOL    HW222916   4.605   3.949  11.372  1.8873 -0.0034 -0.3689
 1642SOL     OW22917   0.185  11.941   3.937 -0.2757 -0.1832 -0.2077
 1642SOL    HW122918   0.101  11.980   3.916 -0.6123 -1.4443 -1.3783
 1642SOL    HW222919   0.244  11.972   3.869 -0.1891 -0.5317 -0.2957
 1643SOL     OW22920   4.910   7.928  11.140  0.3736 -0.0401  0.2651
 1643SOL    HW122921   4.822   7.956  11.113  1.7231  3.6314 -0.9205
 1643SOL    HW222922   4.916   7.954  11.232 -0.6734 -3.1339  1.3522
 1644SOL     OW22923   8.944   2.869   9.152  0.2866  0.9922 -0.0747
 1644SOL    HW122924   8.960   2.787   9.107 -0.6263 -0.4138  2.0035
 1644SOL    HW222925   8.850   2.886   9.140  0.6038  2.1580 -1.1089
 1645SOL     OW22926   9.072   3.372   7.299 -0.4812  0.3070 -0.2080
 1645SOL    HW122927   8.981   3.349   7.279 -0.4717  1.3141 -1.6328
 1645SOL    HW222928   9.123   3.321   7.237 -0.1640  0.6143 -0.2024
 1646SOL     OW22929  13.937   9.901   6.026 -0.6704  0.3215 -0.2329
 1646SOL    HW122930  13.959   9.974   5.969 -0.5562 -0.0736 -0.7102
 1646SOL    HW222931  14.017   9.883   6.075 -0.8782  0.9043  0.3384
 1647SOL     OW22932   9.172  11.510  13.110 -0.0479 -0.5561 -0.0703
 1647SOL    HW122933   9.223  11.501  13.029 -1.0686 -1.4171 -0.6464
 1647SOL    HW222934   9.179  11.425  13.153  1.2607  0.1805  1.2570
 1648SOL     OW22935   5.558  12.115  11.867 -0.4977  0.2640  0.0362
 1648SOL    HW122936   5.540  12.022  11.862 -1.1858  0.4246 -0.7209
 1648SOL    HW222937   5.515  12.145  11.947 -0.4469 -0.0228  0.1713
 1649SOL     OW22938  10.896  13.892  10.223  0.5255 -0.2093 -0.1076
 1649SOL    HW122939  10.830  13.956  10.196  0.4094 -0.4775 -0.4550
 1649SOL    HW222940  10.912  13.839  10.146  1.1756 -0.1298 -0.0339
 1650SOL     OW22941  10.392   5.841   3.421 -0.1080  0.2036 -0.6023
 1650SOL    HW122942  10.447   5.836   3.498 -0.4991  2.4610 -0.1046
 1650SOL    HW222943  10.311   5.796   3.445 -0.5183  1.5358  0.6155
 1651SOL     OW22944   6.142  10.686   0.758 -0.3313 -0.3736 -0.0625
 1651SOL    HW122945   6.090  10.610   0.783  1.8317 -2.3427 -1.1746
 1651SOL    HW222946   6.215  10.650   0.707  0.8273  2.4507 -0.6036
 1652SOL     OW22947   1.258   5.526  11.727  0.4949 -0.2914  0.2068
 1652SOL    HW122948   1.195   5.598  11.737  2.3042  1.5384 -0.7074
 1652SOL    HW222949   1.248   5.499  11.636 -0.9998 -2.0976  0.8481
 1653SOL     OW22950   2.594   1.851   1.175  0.1364 -0.0519 -0.2462
 1653SOL    HW122951   2.562   1.939   1.157 -1.3620 -0.7217 -1.0442
 1653SOL    HW222952   2.525   1.793   1.142  1.4206 -1.5424 -0.4349
 1654SOL     OW22953   8.451  11.664  12.884  0.1012 -0.3200 -0.8513
 1654SOL    HW122954   8.403  11.585  12.909 -1.9467  0.7673 -1.1500
 1654SOL    HW222955   8.435  11.673  12.790 -0.2989  0.8211 -0.6866
 1655SOL     OW22956  11.005   7.219  10.449  0.1370 -0.1737 -0.0812
 1655SOL    HW122957  10.924   7.191  10.407  1.1251 -1.1943 -1.4144
 1655SOL    HW222958  11.044   7.137  10.482  0.3617  0.3718  1.0549
 1656SOL     OW22959   8.919   2.035   6.719 -0.4530 -1.0956 -0.3422
 1656SOL    HW122960   8.997   1.993   6.682 -1.7273 -2.2892 -1.7735
 1656SOL    HW222961   8.880   1.967   6.774 -1.6562 -1.2792 -1.3876
 1657SOL     OW22962   1.591   8.479   7.739  0.1652  0.4066 -0.7795
 1657SOL    HW122963   1.543   8.538   7.681  1.0611  1.5442 -0.4194
 1657SOL    HW222964   1.634   8.416   7.681 -0.3952  0.4184 -1.2125
 1658SOL     OW22965  13.929  11.590  13.650 -0.4061  0.5532 -0.0679
 1658SOL    HW122966  13.896  11.526  13.586 -1.1227 -0.8799  1.6433
 1658SOL    HW222967  14.024  11.578  13.649 -0.5129 -0.3898  0.0450
 1659SOL     OW22968   9.367  12.450   3.367 -0.2135 -0.4562 -0.8086
 1659SOL    HW122969   9.308  12.426   3.438  2.1961 -1.7641  0.8896
 1659SOL    HW222970   9.455  12.439   3.403  1.1507  2.1477 -2.9430
 1660SOL     OW22971  12.595   8.871   0.430 -0.0827 -0.0453  0.6972
 1660SOL    HW122972  12.586   8.964   0.410  0.3166 -0.3549 -1.0758
 1660SOL    HW222973  12.689   8.855   0.426 -0.1277 -0.4868  1.2528
 1661SOL     OW22974  11.692  12.331   4.235 -0.0658 -0.0570  0.3255
 1661SOL    HW122975  11.690  12.355   4.143  1.2920  0.2350  0.3574
 1661SOL    HW222976  11.659  12.409   4.281  3.3563  1.5448  0.3534
 1662SOL     OW22977   3.003  13.190   9.157 -0.2817  0.3707  0.1558
 1662SOL    HW122978   2.961  13.212   9.074 -0.4425 -0.0727  0.1190
 1662SOL    HW222979   3.012  13.274   9.202 -1.3428  0.4523  0.2359
 1663SOL     OW22980   1.165   3.749   5.007 -0.0586 -0.5916  0.1556
 1663SOL    HW122981   1.149   3.703   4.925 -0.1228 -0.2365 -0.0320
 1663SOL    HW222982   1.159   3.842   4.984 -1.3078 -0.4936  0.8117
 1664SOL     OW22983   8.675  13.870   6.417  0.3161 -0.3185 -0.8404
 1664SOL    HW122984   8.717  13.844   6.499  0.9454 -2.3953 -1.7561
 1664SOL    HW222985   8.626  13.949   6.439  0.7646 -0.6141  1.4373
 1665SOL     OW22986  10.444  10.007   2.310  0.4614  0.3921 -1.0336
 1665SOL    HW122987  10.393  10.085   2.334 -0.5403 -0.6855  0.5038
 1665SOL    HW222988  10.414   9.987   2.221 -2.1437 -0.3902 -0.0794
 1666SOL     OW22989   1.708   6.103   6.255  0.3184  0.4080  0.0471
 1666SOL    HW122990   1.635   6.078   6.312  0.8765 -0.4529  0.3987
 1666SOL    HW222991   1.683   6.189   6.221  0.0251  1.0177  1.6912
 1667SOL     OW22992   1.378  10.162   8.760  0.7306  0.2716 -0.1306
 1667SOL    HW122993   1.457  10.134   8.806 -0.2809 -0.4355  1.2751
 1667SOL    HW222994   1.355  10.088   8.703 -0.4297 -0.7715  1.5683
 1668SOL     OW22995   7.534  13.853   8.275 -0.2563  0.1509  0.1572
 1668SOL    HW122996   7.611  13.854   8.331  0.4753 -0.6528 -0.7994
 1668SOL    HW222997   7.478  13.785   8.312  0.7257 -1.1760 -0.7002
 1669SOL     OW22998   7.862  13.953   7.850 -0.3565 -0.1754  0.1182
 1669SOL    HW122999   7.835  13.939   7.941 -0.1769 -0.2184  0.1656
 1669SOL    HW223000   7.842  14.045   7.833  0.0622 -0.0398  0.3572
 1670SOL     OW23001   2.100  11.900   8.570 -0.1533 -0.0688 -0.8866
 1670SOL    HW123002   2.098  11.968   8.503  1.6561  1.2226  0.3085
 1670SOL    HW223003   2.063  11.941   8.648  0.7317 -0.5077 -0.2106
 1671SOL     OW23004  13.006   0.642   0.061 -0.3170 -0.3651 -0.1057
 1671SOL    HW123005  12.978   0.637  -0.031  2.0126  0.5899 -0.9632
 1671SOL    HW223006  12.959   0.571   0.104  0.7913 -2.9733 -2.7537
 1672SOL     OW23007   9.666  12.974   6.489  0.1478 -0.6130 -0.0961
 1672SOL    HW123008   9.676  12.967   6.583  0.5639  1.6731  0.0989
 1672SOL    HW223009   9.754  12.990   6.456 -0.2437  0.6328 -0.6036
 1673SOL     OW23010  14.086   8.648   1.767  0.3337 -0.0476 -0.3322
 1673SOL    HW123011  14.085   8.744   1.759  0.0085 -0.0250 -0.0035
 1673SOL    HW223012  14.163   8.621   1.716  0.3124  0.3716 -0.5921
 1674SOL     OW23013   5.325   0.049  13.785  0.0990  0.1993 -0.1214
 1674SOL    HW123014   5.388   0.078  13.720 -0.2050 -0.3212 -0.6629
 1674SOL    HW223015   5.323  -0.046  13.777  0.9477  0.0086  1.4978
 1675SOL     OW23016  13.617   3.027  10.955  0.1669  0.1006 -0.3625
 1675SOL    HW123017  13.629   3.025  10.860 -1.0781  0.6787 -0.5485
 1675SOL    HW223018  13.700   2.995  10.991  0.1000 -1.6941 -1.6702
 1676SOL     OW23019   8.910   3.335   4.602  0.6689  0.7889  0.1014
 1676SOL    HW123020   8.977   3.389   4.560  2.8358 -0.3358  1.9399
 1676SOL    HW223021   8.957   3.283   4.667 -1.9526 -0.3374  1.2571
 1677SOL     OW23022  12.383   3.011   7.978  0.2180 -0.1602 -0.5987
 1677SOL    HW123023  12.298   3.055   7.972  0.6221  0.5872 -1.0108
 1677SOL    HW223024  12.426   3.052   8.052  0.5006 -0.0331 -0.8318
 1678SOL     OW23025   5.977   6.302  10.502  0.2090  0.3076 -0.2125
 1678SOL    HW123026   5.907   6.336  10.446 -0.5232  1.5117  1.3562
 1678SOL    HW223027   5.932   6.239  10.559  0.3488  1.1480  0.8613
 1679SOL     OW23028   2.275   5.419  10.162  0.5777  0.4377 -0.1139
 1679SOL    HW123029   2.262   5.324  10.154 -2.3888  0.6398  0.7923
 1679SOL    HW223030   2.320   5.430  10.246  0.5148 -0.1641  0.0047
 1680SOL     OW23031  10.990   5.664   4.088  0.1879 -0.5397 -0.9381
 1680SOL    HW123032  10.902   5.646   4.055  0.6732  1.0506 -3.3596
 1680SOL    HW223033  11.039   5.584   4.069 -0.3885 -0.9113 -0.8801
 1681SOL     OW23034   6.505   9.147   1.867  0.1018 -0.6693  0.2202
 1681SOL    HW123035   6.499   9.084   1.795 -1.2882 -0.5934  0.2446
 1681SOL    HW223036   6.568   9.212   1.836 -0.1470 -0.8766 -0.7531
 1682SOL     OW23037   3.923   2.166  13.711 -0.5837 -0.4056 -0.1358
 1682SOL    HW123038   3.834   2.135  13.726 -0.6876  0.3739  1.0185
 1682SOL    HW223039   3.978   2.107  13.762 -0.5394 -0.3154 -0.0772
 1683SOL     OW23040   7.339   1.662  13.201  0.8581  0.0238  0.1325
 1683SOL    HW123041   7.375   1.574  13.191  1.3664  0.3135 -0.6448
 1683SOL    HW223042   7.322   1.670  13.295 -1.0909 -1.6234 -0.0309
 1684SOL     OW23043  10.672   8.777   1.756 -0.0167 -0.2015  0.0161
 1684SOL    HW123044  10.767   8.767   1.763  0.1997 -0.2291 -2.2885
 1684SOL    HW223045  10.637   8.692   1.782  0.6153 -0.3806  0.3013
 1685SOL     OW23046   5.764   5.688   2.292  0.2516 -0.6027  0.4056
 1685SOL    HW123047   5.698   5.645   2.346  0.9234 -0.9119  1.0006
 1685SOL    HW223048   5.787   5.767   2.341  0.4650 -0.6007  0.3036
 1686SOL     OW23049   0.758  10.120  11.595  0.3856  0.2327 -0.1198
 1686SOL    HW123050   0.848  10.090  11.606  0.3444 -0.1049 -0.7083
 1686SOL    HW223051   0.713  10.090  11.674 -0.0769 -2.8129 -1.4162
 1687SOL     OW23052  11.996   6.745   3.807 -0.0929  0.0074  0.1774
 1687SOL    HW123053  12.017   6.829   3.767 -2.0030  1.2503  1.5772
 1687SOL    HW223054  11.956   6.693   3.737  0.0419  0.7208 -0.4351
 1688SOL     OW23055  11.381  12.882   5.247 -0.5517 -0.2000  0.1749
 1688SOL    HW123056  11.431  12.963   5.253 -0.8562 -0.1011  3.6731
 1688SOL    HW223057  11.387  12.856   5.155  3.8241  1.0718 -0.1168
 1689SOL     OW23058   1.890   1.510   6.733 -0.1053 -0.1624 -0.0859
 1689SOL    HW123059   1.970   1.560   6.751  0.1051 -0.6197  0.2724
 1689SOL    HW223060   1.834   1.526   6.809 -0.7014  0.8201 -0.7100
 1690SOL     OW23061  13.969   8.524   2.306 -0.3682  0.1636 -0.0566
 1690SOL    HW123062  14.054   8.548   2.342 -0.2320  1.0911 -0.9510
 1690SOL    HW223063  13.966   8.428   2.313  0.9056  0.0885 -0.3533
 1691SOL     OW23064   7.683   1.733  10.274 -0.5065  0.0953 -1.3617
 1691SOL    HW123065   7.708   1.824  10.257 -0.8017  0.2835 -0.8231
 1691SOL    HW223066   7.623   1.738  10.348 -0.6136 -0.5322 -1.3969
 1692SOL     OW23067   9.560   1.363   6.863 -0.1057 -0.5165 -0.4285
 1692SOL    HW123068   9.649   1.327   6.860  0.8483  1.5391  0.5242
 1692SOL    HW223069   9.565   1.431   6.930 -2.3730 -0.2183 -0.4994
 1693SOL     OW23070   4.905  13.580  14.106 -0.4115 -0.1131 -0.2005
 1693SOL    HW123071   4.836  13.552  14.046  1.4264 -1.3133 -1.8904
 1693SOL    HW223072   4.955  13.645  14.058  0.6785 -0.5707  0.2643
 1694SOL     OW23073   1.142   1.480   8.386 -0.0957 -0.2154 -0.2939
 1694SOL    HW123074   1.091   1.502   8.308 -0.9497 -0.1724  0.2555
 1694SOL    HW223075   1.196   1.557   8.402  0.5434 -0.4699 -1.1945
 1695SOL     OW23076   8.267  13.383   5.458 -0.2175  0.4676 -0.1001
 1695SOL    HW123077   8.186  13.430   5.476  0.9402  2.5541 -0.0878
 1695SOL    HW223078   8.290  13.408   5.368  0.2608 -0.3511 -0.2206
 1696SOL     OW23079   4.076  12.672   6.351  1.3804 -0.1048  0.0689
 1696SOL    HW123080   4.038  12.648   6.266  0.8386  2.0450 -0.3559
 1696SOL    HW223081   4.164  12.635   6.349  1.5492  0.2932 -1.6677
 1697SOL     OW23082   0.706   6.095   5.902 -0.7818  0.5430 -0.2405
 1697SOL    HW123083   0.688   6.189   5.892  0.8061  0.8960 -0.0463
 1697SOL    HW223084   0.783   6.092   5.959 -1.7711 -0.9470  1.1142
 1698SOL     OW23085   3.513  11.372  11.533 -0.0841  0.4372  0.0335
 1698SOL    HW123086   3.456  11.296  11.545 -0.3710  0.4175 -1.2609
 1698SOL    HW223087   3.518  11.413  11.619  0.8827 -1.5964  1.0355
 1699SOL     OW23088   2.091   9.203   1.847 -0.1717  0.1661 -0.2813
 1699SOL    HW123089   2.049   9.274   1.894 -2.3094 -1.8563  1.0854
 1699SOL    HW223090   2.019   9.154   1.807  1.3165 -0.4299 -2.4198
 1700SOL     OW23091  13.837   2.029   7.459  0.6524  0.4969 -0.1899
 1700SOL    HW123092  13.917   2.068   7.423 -0.1032  1.0601 -1.3142
 1700SOL    HW223093  13.799   2.098   7.513  0.7806  0.3221  0.1256
 1701SOL     OW23094  12.899  10.581  11.398 -0.4250  0.3674  0.0121
 1701SOL    HW123095  12.890  10.566  11.492 -1.1433 -2.0230 -0.3710
 1701SOL    HW223096  12.877  10.673  11.386 -1.1080  0.5263  2.0843
 1702SOL     OW23097  11.886  12.051   6.639  0.5946  0.5165 -1.0445
 1702SOL    HW123098  11.928  11.977   6.597  1.4679  1.1595 -1.3387
 1702SOL    HW223099  11.804  12.064   6.591  0.5881 -0.0557 -1.1857
 1703SOL     OW23100   7.051   9.098  12.390  0.4672  0.3201 -0.0677
 1703SOL    HW123101   7.064   9.154  12.466  0.0940  2.1027 -1.2653
 1703SOL    HW223102   7.139   9.068  12.367  0.8029  1.2501 -0.0248
 1704SOL     OW23103   7.434   6.552   7.250  0.2246 -0.3256  0.2493
 1704SOL    HW123104   7.445   6.459   7.233 -0.5862 -0.4679  0.4638
 1704SOL    HW223105   7.344   6.560   7.281  0.7747  0.3034  1.7935
 1705SOL     OW23106   3.650   4.275   3.979  0.1827  0.3088 -0.1537
 1705SOL    HW123107   3.673   4.195   3.932  0.7073 -0.8907  2.0367
 1705SOL    HW223108   3.730   4.328   3.977  0.0774  0.4459 -0.9330
 1706SOL     OW23109  11.040  11.446   7.430  0.0872  0.4055 -0.5822
 1706SOL    HW123110  10.961  11.501   7.437 -0.1693 -0.0533  0.1979
 1706SOL    HW223111  11.110  11.501   7.466 -0.5906 -0.6144  2.6055
 1707SOL     OW23112   8.899  13.140   2.805 -0.1718  0.1029  0.1572
 1707SOL    HW123113   8.832  13.114   2.743 -1.1149  0.5324  0.9710
 1707SOL    HW223114   8.910  13.235   2.790 -0.3352  0.1899  0.5829
 1708SOL     OW23115  13.214  13.497   7.757 -0.6140  0.0262  0.5077
 1708SOL    HW123116  13.222  13.572   7.699 -1.4641  0.3349  0.7706
 1708SOL    HW223117  13.227  13.421   7.700  0.8355  0.3704  0.3508
 1709SOL     OW23118  10.539  14.123  14.141  0.2947  0.5871 -0.1657
 1709SOL    HW123119  10.557  14.050  14.200  2.4055  0.9450 -0.3117
 1709SOL    HW223120  10.450  14.150  14.164  0.1814 -0.8026  1.1929
 1710SOL     OW23121   0.969   5.360   5.334 -0.6442 -0.8751 -0.1346
 1710SOL    HW123122   0.992   5.400   5.418  1.4592  2.5970 -2.1191
 1710SOL    HW223123   0.886   5.401   5.309  0.0057  0.0449 -0.8353
 1711SOL     OW23124  13.663   2.752   9.394  0.6836 -0.9267  0.1264
 1711SOL    HW123125  13.690   2.820   9.456  0.5229 -1.1731  0.4705
 1711SOL    HW223126  13.645   2.799   9.312 -0.0965 -0.4624  0.5565
 1712SOL     OW23127   5.663  10.608   6.560 -0.0343  0.7685 -0.2552
 1712SOL    HW123128   5.598  10.665   6.518  1.0339  1.8592 -0.4965
 1712SOL    HW223129   5.645  10.615   6.653 -0.0459  1.3524 -0.2976
 1713SOL     OW23130  10.642  10.160   4.313  0.1432 -0.2031  0.0029
 1713SOL    HW123131  10.577  10.223   4.343  0.7992  0.1513  0.7489
 1713SOL    HW223132  10.716  10.213   4.283  0.8539 -0.5869  0.9796
 1714SOL     OW23133   4.346   8.137   9.568  0.4356  0.0071 -0.1605
 1714SOL    HW123134   4.357   8.042   9.579  0.6096  0.1132  0.6562
 1714SOL    HW223135   4.270   8.146   9.511  1.4935 -0.6573 -1.7323
 1715SOL     OW23136   1.466   6.872  14.144  0.3505 -1.0543 -0.2706
 1715SOL    HW123137   1.467   6.945  14.082 -0.7950  0.1520  1.0470
 1715SOL    HW223138   1.392   6.890  14.202  1.5621 -1.8975  1.6785
 1716SOL     OW23139   4.443  11.970  11.839 -0.2332 -0.3011 -0.2436
 1716SOL    HW123140   4.466  11.920  11.760  0.3596  2.0553 -1.6786
 1716SOL    HW223141   4.526  11.979  11.886  0.0823  0.8631 -0.9718
 1717SOL     OW23142   8.875  12.275  12.811  0.3704  0.2773  0.0527
 1717SOL    HW123143   8.872  12.284  12.907  1.6825 -0.4489  0.1986
 1717SOL    HW223144   8.790  12.307  12.781  0.0211  0.7454  1.4422
 1718SOL     OW23145   1.710   7.522  13.864  0.0308  0.3491  0.6992
 1718SOL    HW123146   1.620   7.500  13.841  0.2038 -0.7336  0.9955
 1718SOL    HW223147   1.760   7.444  13.842  1.1299  1.3663 -0.6617
 1719SOL     OW23148   9.894   5.695   7.201 -0.0578  0.0282 -0.0826
 1719SOL    HW123149   9.858   5.783   7.208 -0.7844 -0.2024 -0.9249
 1719SOL    HW223150   9.987   5.706   7.222 -0.1372  0.9991 -0.2051
 1720SOL     OW23151   3.014  11.231  11.668 -1.0630 -0.1992 -0.2092
 1720SOL    HW123152   2.927  11.211  11.633 -0.9954 -1.7329  0.4186
 1720SOL    HW223153   3.019  11.326  11.664 -2.8215 -0.0563 -0.1531
 1721SOL     OW23154  10.739  14.066   1.024  0.3514 -0.7033  0.7400
 1721SOL    HW123155  10.682  14.087   0.950  2.5099  2.5282 -0.1917
 1721SOL    HW223156  10.684  14.079   1.101 -1.2594 -1.8022 -0.1540
 1722SOL     OW23157  12.913   3.399   2.793  0.3367  0.4577  0.1921
 1722SOL    HW123158  12.937   3.310   2.819  2.7534  0.9018 -0.3528
 1722SOL    HW223159  12.994   3.449   2.798 -1.1350  2.9412  1.5034
 1723SOL     OW23160   2.210   9.717  10.703 -0.2311 -0.3030 -0.2067
 1723SOL    HW123161   2.208   9.689  10.794 -1.2048  1.1209  0.2509
 1723SOL    HW223162   2.216   9.812  10.708  0.8493 -0.2643 -1.6578
 1724SOL     OW23163   4.009  11.573   0.229 -0.9670 -0.0180 -0.4184
 1724SOL    HW123164   4.004  11.664   0.200 -0.6209 -0.1536 -0.9219
 1724SOL    HW223165   4.083  11.537   0.181  0.7588  0.2070  1.9009
 1725SOL     OW23166   5.785   6.910   5.975  0.1404 -0.1768  0.2720
 1725SOL    HW123167   5.847   6.841   6.000 -0.6391 -1.6607 -1.6430
 1725SOL    HW223168   5.795   6.977   6.043  0.6301 -2.3359  2.4605
 1726SOL     OW23169  12.699  11.147   4.229  0.4994 -0.3470 -0.0801
 1726SOL    HW123170  12.770  11.195   4.271 -0.0468 -0.9685  1.6419
 1726SOL    HW223171  12.703  11.174   4.137  3.1727 -0.6484 -0.1312
 1727SOL     OW23172   2.671   0.249  11.101  0.2359  0.3859 -0.2648
 1727SOL    HW123173   2.582   0.271  11.129  0.2595  0.5805 -0.3446
 1727SOL    HW223174   2.674   0.153  11.107 -0.0798  0.3535 -0.5619
 1728SOL     OW23175   8.059   0.811  13.897 -0.0924 -0.5493  0.4470
 1728SOL    HW123176   8.008   0.887  13.925  0.5303 -0.5580  1.6644
 1728SOL    HW223177   7.996   0.739  13.894 -0.5597 -0.1196 -0.1043
 1729SOL     OW23178   4.672   2.342  11.753  0.2090 -0.3563 -0.1776
 1729SOL    HW123179   4.601   2.402  11.734  1.0576  0.9351  0.5440
 1729SOL    HW223180   4.692   2.300  11.670 -1.0214 -0.3411 -0.4947
 1730SOL     OW23181   6.426   0.402   7.511  0.4718 -0.5379  0.6872
 1730SOL    HW123182   6.442   0.383   7.603  1.0962  0.2543  0.7596
 1730SOL    HW223183   6.418   0.498   7.508  0.9710 -0.5081 -0.1427
 1731SOL     OW23184   1.922   3.240  13.115 -0.0876  0.2882 -0.0705
 1731SOL    HW123185   1.866   3.259  13.040  0.2390  1.2456 -0.0869
 1731SOL    HW223186   1.862   3.203  13.180 -1.0099  2.3404  0.3328
 1732SOL     OW23187   5.494  12.453  11.629  0.0084  0.3858  0.4070
 1732SOL    HW123188   5.421  12.446  11.690 -0.2121 -0.5331  0.0634
 1732SOL    HW223189   5.502  12.365  11.591  1.1621  0.5200  0.2917
 1733SOL     OW23190   8.178   4.019  12.099  0.2729 -0.0947  0.2974
 1733SOL    HW123191   8.252   3.977  12.055  0.6391  0.6583  0.1916
 1733SOL    HW223192   8.217   4.090  12.150 -0.4909  1.0390 -0.6634
 1734SOL     OW23193  10.708  11.479  10.835 -0.6639  0.2423 -0.0776
 1734SOL    HW123194  10.708  11.403  10.776 -1.3567 -0.1026  0.3510
 1734SOL    HW223195  10.617  11.509  10.834 -0.9023 -0.3327  1.5331
 1735SOL     OW23196   4.373  10.914  11.578  0.5243  0.4965  0.0019
 1735SOL    HW123197   4.376  10.901  11.672  2.2485 -1.2047 -0.2007
 1735SOL    HW223198   4.462  10.940  11.555  0.6724 -0.9903 -1.3265
 1736SOL     OW23199  11.010   3.302  13.182  0.3078  0.3806 -0.0040
 1736SOL    HW123200  10.988   3.328  13.092  1.2216 -1.2510 -0.7434
 1736SOL    HW223201  11.015   3.384  13.230  1.9623  1.5010 -1.9383
 1737SOL     OW23202   5.361  12.194   4.441  0.3784  0.5578 -0.0617
 1737SOL    HW123203   5.409  12.223   4.364  0.5440 -0.2664 -0.2830
 1737SOL    HW223204   5.399  12.109   4.462 -1.4222 -0.4638 -0.6581
 1738SOL     OW23205   9.831   0.716   0.860  0.6744 -0.4718 -0.3826
 1738SOL    HW123206   9.924   0.736   0.845  0.6412  0.4575  0.5346
 1738SOL    HW223207   9.794   0.706   0.772  1.6268 -0.8166 -0.7593
 1739SOL     OW23208  10.839   1.964   7.801 -1.0165  0.1464  0.0516
 1739SOL    HW123209  10.848   1.870   7.787 -1.3825  0.2193 -0.7178
 1739SOL    HW223210  10.929   1.995   7.811 -0.9392 -0.4174  1.3268
 1740SOL     OW23211  11.314   3.918   2.340  0.1671  0.0644 -0.3494
 1740SOL    HW123212  11.278   3.970   2.412 -0.2860 -1.3707  0.4863
 1740SOL    HW223213  11.407   3.941   2.340  0.1037  0.3882  0.4317
 1741SOL     OW23214   5.143   8.976  10.852  0.2358 -0.0961  0.4935
 1741SOL    HW123215   5.170   8.912  10.917  1.0170 -0.1365  0.1426
 1741SOL    HW223216   5.129   8.924  10.772 -0.8906 -0.0744  0.6661
 1742SOL     OW23217   4.799   6.338   8.755  0.1259 -0.4611 -0.1269
 1742SOL    HW123218   4.869   6.370   8.811 -0.8189  0.4911  0.5666
 1742SOL    HW223219   4.842   6.314   8.673  1.0113  2.0792 -0.4945
 1743SOL     OW23220   1.351  13.946   7.216 -0.3039 -0.4175  0.5282
 1743SOL    HW123221   1.376  14.034   7.187 -0.3317 -0.4540  0.3921
 1743SOL    HW223222   1.422  13.890   7.184 -0.8959 -0.6246 -0.4646
 1744SOL     OW23223   8.343   7.714   1.501  0.0803 -0.4578 -0.2516
 1744SOL    HW123224   8.327   7.692   1.593 -1.0219 -0.9317 -0.5427
 1744SOL    HW223225   8.438   7.722   1.495  0.1649 -0.3592  0.9411
 1745SOL     OW23226  11.531  13.386  13.250  0.3992 -0.3354 -0.3037
 1745SOL    HW123227  11.489  13.317  13.301 -1.0564 -0.7582 -1.9572
 1745SOL    HW223228  11.613  13.403  13.295  1.6306 -4.3039 -0.6708
 1746SOL     OW23229   0.868   2.121   0.886  0.1426  0.5184 -0.1725
 1746SOL    HW123230   0.841   2.030   0.890  1.8960 -0.3519 -3.6000
 1746SOL    HW223231   0.786   2.171   0.883 -1.0186 -1.3156 -2.0731
 1747SOL     OW23232   9.318   0.426   1.701  0.2826 -0.3747  0.0117
 1747SOL    HW123233   9.356   0.494   1.646 -0.3269 -1.0466 -1.2893
 1747SOL    HW223234   9.233   0.407   1.661 -0.0682 -1.0788  1.0357
 1748SOL     OW23235   1.355   4.883   7.420  0.0358  0.3922 -0.0390
 1748SOL    HW123236   1.413   4.920   7.486 -0.8568  0.4528  0.7319
 1748SOL    HW223237   1.266   4.897   7.455 -0.4966  1.0690 -1.5639
 1749SOL     OW23238   5.177   4.122   3.650 -0.6601 -0.3559  0.0347
 1749SOL    HW123239   5.194   4.039   3.606 -1.1804 -0.1376 -0.6051
 1749SOL    HW223240   5.087   4.144   3.625 -0.2664  0.7871 -0.4537
 1750SOL     OW23241   0.855  13.914  13.246  0.7347  0.2517  0.0470
 1750SOL    HW123242   0.790  13.847  13.268  0.5014  0.8586  1.2892
 1750SOL    HW223243   0.930  13.896  13.302  1.6623 -0.4189 -1.3529
 1751SOL     OW23244   1.378   0.672   5.294  0.1048 -0.1857 -0.0982
 1751SOL    HW123245   1.329   0.592   5.275 -0.2242  0.0583 -0.2937
 1751SOL    HW223246   1.465   0.642   5.319  0.0210 -0.5965 -0.2943
 1752SOL     OW23247   3.466   4.685   9.484  0.4265  0.2174 -0.1104
 1752SOL    HW123248   3.424   4.771   9.488 -1.6049 -0.7400  0.6666
 1752SOL    HW223249   3.393   4.623   9.480  1.8372 -1.4788 -0.5956
 1753SOL     OW23250  12.520  13.254  13.990 -0.2755 -0.3833 -0.6702
 1753SOL    HW123251  12.613  13.236  14.002 -0.6014 -2.0476 -0.4797
 1753SOL    HW223252  12.502  13.228  13.900 -0.9246 -1.8780 -0.1412
 1754SOL     OW23253   9.640  11.795   9.422  0.1900  0.1211 -0.2700
 1754SOL    HW123254   9.666  11.887   9.433  2.2991 -0.4944  0.4354
 1754SOL    HW223255   9.721  11.750   9.399 -0.3919 -1.8534  1.2530
 1755SOL     OW23256   2.116  11.507  14.125 -0.4481 -0.2052  0.4191
 1755SOL    HW123257   2.079  11.441  14.184  0.4775 -0.8305  0.3169
 1755SOL    HW223258   2.066  11.496  14.044 -0.3464 -0.7318  0.4251
 1756SOL     OW23259   7.790   7.291  10.986  0.4368  0.3430 -0.6246
 1756SOL    HW123260   7.833   7.317  10.904  0.9224 -1.3714 -0.9457
 1756SOL    HW223261   7.849   7.227  11.025 -0.0187  0.7932  0.8586
 1757SOL     OW23262   8.179  12.258   1.298 -0.7454  0.2328 -0.2213
 1757SOL    HW123263   8.201  12.224   1.385  1.8574 -0.1240 -0.9170
 1757SOL    HW223264   8.139  12.343   1.314 -2.5306 -0.8445  1.3705
 1758SOL     OW23265  13.300  10.659  11.234 -0.3618 -0.3050 -0.3121
 1758SOL    HW123266  13.383  10.691  11.271  0.6521 -0.6312 -2.1473
 1758SOL    HW223267  13.269  10.593  11.296  1.8606 -1.6764 -0.5425
 1759SOL     OW23268   7.607  12.647  11.708 -0.3192 -0.0804 -0.3394
 1759SOL    HW123269   7.604  12.661  11.614 -0.3626  0.9908 -0.2014
 1759SOL    HW223270   7.552  12.570  11.723 -2.0045  0.9135 -1.0115
 1760SOL     OW23271   9.109  10.252  10.205  0.3900  0.1025  0.4380
 1760SOL    HW123272   9.195  10.238  10.244 -0.2697 -1.8846  1.3036
 1760SOL    HW223273   9.050  10.261  10.280 -0.6265 -1.9556 -0.0424
 1761SOL     OW23274   6.128   5.947  14.077  0.3735  0.6009 -0.3347
 1761SOL    HW123275   6.117   6.039  14.055  0.9799  1.0164  1.0599
 1761SOL    HW223276   6.072   5.933  14.153 -0.3924 -0.4095 -1.0531
 1762SOL     OW23277   6.854   6.786   9.333 -0.0023 -0.4307  0.1952
 1762SOL    HW123278   6.827   6.878   9.335 -1.5669 -0.8243 -0.8896
 1762SOL    HW223279   6.938   6.786   9.285  0.5553  0.5246  1.1468
 1763SOL     OW23280   7.154  14.015   7.180  0.2840 -0.4561  0.1485
 1763SOL    HW123281   7.066  14.043   7.156  0.0571  0.5236  1.9630
 1763SOL    HW223282   7.141  13.930   7.223 -0.2899  1.1063  3.3809
 1764SOL     OW23283  10.519  13.013   9.657 -0.3306  0.6475  0.0381
 1764SOL    HW123284  10.608  12.979   9.670 -1.0405 -1.1680  0.5029
 1764SOL    HW223285  10.462  12.941   9.683 -1.9606  1.8789  0.0385
 1765SOL     OW23286   8.501  11.742   4.082  0.4516 -0.0356 -0.0261
 1765SOL    HW123287   8.489  11.648   4.096 -0.1622  0.3160  2.1189
 1765SOL    HW223288   8.540  11.774   4.163  0.7146  1.5640 -0.7434
 1766SOL     OW23289   8.893   0.925   0.338 -0.2929  0.2998  0.2074
 1766SOL    HW123290   8.836   0.848   0.337 -0.0867  0.0334  2.8789
 1766SOL    HW223291   8.834   0.997   0.360  0.1172  0.2701  1.4484
 1767SOL     OW23292   3.892  10.594   4.567  0.5431  0.0998  0.8249
 1767SOL    HW123293   3.985  10.583   4.551  0.4415  0.4589 -0.0815
 1767SOL    HW223294   3.872  10.533   4.638  1.4205 -0.1454  0.8678
 1768SOL     OW23295   4.529   2.349  13.972 -0.6943 -0.6020  0.0255
 1768SOL    HW123296   4.466   2.368  13.902 -1.8990 -0.6262  1.0707
 1768SOL    HW223297   4.493   2.273  14.018 -0.3262 -0.1334  1.1332
 1769SOL     OW23298   8.459   8.412   3.316  0.3671 -0.6650  0.0610
 1769SOL    HW123299   8.444   8.502   3.344  0.4413 -0.7719  0.4536
 1769SOL    HW223300   8.550   8.394   3.342 -0.0434 -1.2754  1.1660
 1770SOL     OW23301  13.863   3.899   5.085 -0.0672  0.6930 -0.4453
 1770SOL    HW123302  13.783   3.878   5.036  0.2347  0.9709 -1.0716
 1770SOL    HW223303  13.868   3.994   5.084  1.1978  0.6437 -1.9608
 1771SOL     OW23304  13.762   3.321   0.660 -0.1596 -0.3460  0.6225
 1771SOL    HW123305  13.808   3.302   0.578 -0.8277 -0.2575  0.2179
 1771SOL    HW223306  13.741   3.234   0.695 -1.4806 -0.3952 -0.2350
 1772SOL     OW23307  12.488   9.022   9.722 -0.4420 -0.3653 -0.1217
 1772SOL    HW123308  12.408   8.980   9.690 -0.4661  0.8082 -1.7168
 1772SOL    HW223309  12.543   8.949   9.750 -1.5588 -1.2778 -0.2210
 1773SOL     OW23310   7.323   1.611   9.066  0.8823  0.0170 -0.0062
 1773SOL    HW123311   7.306   1.539   9.005  1.4935  0.5814 -0.8665
 1773SOL    HW223312   7.251   1.607   9.129  0.1125 -0.4480 -0.8935
 1774SOL     OW23313   8.002   8.249  13.888  0.1749 -0.0444 -0.1901
 1774SOL    HW123314   7.968   8.159  13.884  0.3296 -0.0766 -0.7615
 1774SOL    HW223315   8.093   8.241  13.861  0.7989 -0.0278  1.7687
 1775SOL     OW23316  13.627  13.146   2.768 -0.2257 -0.0841 -0.1494
 1775SOL    HW123317  13.684  13.082   2.811 -0.9508 -2.5323 -2.5676
 1775SOL    HW223318  13.684  13.193   2.707 -0.4933 -1.8114 -1.8115
 1776SOL     OW23319  13.820  12.675  11.790  0.5738 -0.1201  0.4784
 1776SOL    HW123320  13.845  12.616  11.718  0.0928  0.5537 -0.2575
 1776SOL    HW223321  13.902  12.715  11.818  0.8164 -0.6614  0.5602
 1777SOL     OW23322   1.333   0.928   9.158  0.1131  1.0711 -0.5049
 1777SOL    HW123323   1.382   0.868   9.100 -2.5007  0.5485 -2.3744
 1777SOL    HW223324   1.354   1.015   9.125 -0.1130  0.8597 -1.2336
 1778SOL     OW23325   5.775   6.685   2.999 -0.1883 -0.5418  0.2904
 1778SOL    HW123326   5.689   6.727   2.993 -0.3575 -0.9768 -0.4672
 1778SOL    HW223327   5.826   6.726   2.929  0.1287 -0.5060  0.5418
 1779SOL     OW23328  10.442   1.979   9.161  0.6170 -0.0930 -0.5911
 1779SOL    HW123329  10.394   1.994   9.242  3.0043 -0.0482  0.9218
 1779SOL    HW223330  10.531   1.957   9.189  1.3161 -0.9795 -3.1916
 1780SOL     OW23331   3.557   1.546   3.960 -0.1554  0.2216  0.3588
 1780SOL    HW123332   3.560   1.546   4.056 -1.6463 -3.7371  0.5777
 1780SOL    HW223333   3.484   1.603   3.939 -0.4787  0.3187  1.6410
 1781SOL     OW23334   4.547   8.339  14.130  0.4304  0.0222  0.1662
 1781SOL    HW123335   4.641   8.353  14.117  0.0802  0.3027 -2.6462
 1781SOL    HW223336   4.506   8.421  14.101 -0.7473 -0.6843 -0.2507
 1782SOL     OW23337   6.883   9.660   4.983  0.2340  0.7188 -0.5404
 1782SOL    HW123338   6.969   9.618   4.993 -0.2680 -0.0782  0.6915
 1782SOL    HW223339   6.826   9.611   5.042 -1.8691 -0.8032 -3.6088
 1783SOL     OW23340  10.544  12.259  11.897 -0.1946 -0.1056  0.1687
 1783SOL    HW123341  10.449  12.269  11.892 -0.3459 -1.9415 -1.6123
 1783SOL    HW223342  10.571  12.325  11.961 -2.6513  0.4397  0.7573
 1784SOL     OW23343   2.147   5.708   9.519  0.0142 -0.3843 -0.0405
 1784SOL    HW123344   2.138   5.671   9.431  1.7275 -1.9187  0.3731
 1784SOL    HW223345   2.179   5.797   9.504  0.0943 -0.5599 -0.9937
 1785SOL     OW23346   6.108   8.777   1.253 -0.1604  0.3064 -0.3979
 1785SOL    HW123347   6.047   8.788   1.180 -1.1756  0.5559  0.4697
 1785SOL    HW223348   6.055   8.739   1.323  0.4204  1.5104  0.7302
 1786SOL     OW23349   5.105   8.880   1.373  0.1846 -0.4768  0.1415
 1786SOL    HW123350   5.193   8.850   1.399  0.7565  0.7267 -0.3345
 1786SOL    HW223351   5.063   8.802   1.337  1.1043 -1.0429  0.2546
 1787SOL     OW23352   8.102  10.823   9.744  0.2251  0.4161 -0.2290
 1787SOL    HW123353   8.056  10.877   9.809 -0.4850 -0.4431  0.0090
 1787SOL    HW223354   8.173  10.782   9.794  0.7008  1.0258 -0.3872
 1788SOL     OW23355  12.034   6.870   8.221  0.5063 -0.1662  0.2712
 1788SOL    HW123356  12.091   6.800   8.189  1.5462  0.7541  0.0794
 1788SOL    HW223357  12.075   6.901   8.301 -0.6423 -0.6185  1.0658
 1789SOL     OW23358   9.913   4.779  11.343 -0.1459 -0.7481 -0.1498
 1789SOL    HW123359  10.003   4.747  11.347  0.0369 -0.3128 -0.6242
 1789SOL    HW223360   9.863   4.707  11.306  0.2704 -0.4975 -1.2604
 1790SOL     OW23361   1.676  13.625   7.227  0.3154  0.8955 -0.0769
 1790SOL    HW123362   1.612  13.555   7.210  1.2383  0.1624 -0.6304
 1790SOL    HW223363   1.720  13.597   7.308  0.5942  0.9009 -0.2269
 1791SOL     OW23364   3.950  12.557  13.370  0.1226  0.6765 -0.1717
 1791SOL    HW123365   3.974  12.482  13.316 -1.4304  0.7345 -1.0001
 1791SOL    HW223366   3.877  12.597  13.324 -0.7430  1.1949  1.5655
 1792SOL     OW23367  12.933  12.929   2.163 -0.0053 -0.5457 -0.3665
 1792SOL    HW123368  13.013  12.965   2.124  0.2587 -1.4176 -0.6537
 1792SOL    HW223369  12.868  12.934   2.092 -0.3012  0.4501 -0.0368
 1793SOL     OW23370  12.545   5.441   9.226  0.2339 -0.1828 -0.4602
 1793SOL    HW123371  12.465   5.480   9.260  0.4192 -0.2932  0.1049
 1793SOL    HW223372  12.515   5.366   9.175 -0.0073 -0.4334  0.0433
 1794SOL     OW23373  11.013   5.005   7.659 -0.1852 -0.5492 -0.1337
 1794SOL    HW123374  10.988   5.051   7.739  0.9202 -0.5468  0.2209
 1794SOL    HW223375  10.946   4.937   7.648 -0.2353 -0.6791  0.9035
 1795SOL     OW23376   2.305   3.856   3.769  0.7700 -0.4722  0.0952
 1795SOL    HW123377   2.400   3.848   3.777  0.6607  0.0925  3.6016
 1795SOL    HW223378   2.272   3.847   3.858 -2.5636 -1.1414 -1.0446
 1796SOL     OW23379   9.537   8.843   1.857  0.3292  0.5000 -0.1585
 1796SOL    HW123380   9.501   8.903   1.792  0.1784 -0.1644 -0.6963
 1796SOL    HW223381   9.476   8.850   1.931  0.2230  0.8822 -0.2749
 1797SOL     OW23382   5.467  12.667   7.971 -0.0348 -0.6392 -0.5300
 1797SOL    HW123383   5.530  12.646   7.902  0.4208 -0.6476 -0.1196
 1797SOL    HW223384   5.413  12.588   7.978  1.2192 -1.4419  0.5158
 1798SOL     OW23385  10.604  13.047   3.846  0.0065 -0.3260  0.7054
 1798SOL    HW123386  10.685  13.021   3.802 -0.4135  0.7273 -0.7665
 1798SOL    HW223387  10.563  12.964   3.871  1.0249 -0.9030  0.5236
 1799SOL     OW23388   6.294   6.514   7.658  0.6597 -0.3764  0.3695
 1799SOL    HW123389   6.358   6.533   7.589  0.9102 -0.1637  0.6567
 1799SOL    HW223390   6.340   6.534   7.739 -0.2812  1.3437  0.5306
 1800SOL     OW23391   7.802   7.910  14.150  0.5981  0.0046  0.2256
 1800SOL    HW123392   7.839   7.823  14.133  2.0000  0.1927  2.0578
 1800SOL    HW223393   7.735   7.896  14.216  1.3597  0.3967  1.0971
 1801SOL     OW23394   5.324   8.338  13.414 -0.2871 -0.3798 -0.2269
 1801SOL    HW123395   5.241   8.312  13.455  0.3667 -2.9297 -0.3464
 1801SOL    HW223396   5.385   8.350  13.487 -0.5635  0.9123 -0.1769
 1802SOL     OW23397   8.300   7.743   2.115 -0.4582 -0.2882 -0.3272
 1802SOL    HW123398   8.334   7.679   2.053  0.3773 -0.7983  0.6395
 1802SOL    HW223399   8.211   7.713   2.134  0.2584 -1.7609  0.8722
 1803SOL     OW23400   3.191   8.367   1.704  0.9340 -0.0983 -0.0881
 1803SOL    HW123401   3.232   8.417   1.775  3.6011 -0.2048 -1.4075
 1803SOL    HW223402   3.202   8.423   1.627 -1.3861 -0.2320 -0.5804
 1804SOL     OW23403  11.230   6.952   3.348 -0.5306 -0.3216 -0.4734
 1804SOL    HW123404  11.152   6.967   3.403  0.9733 -0.7531  1.9600
 1804SOL    HW223405  11.277   6.881   3.393  0.8198 -0.7103 -2.3882
 1805SOL     OW23406   6.293   5.355   2.787  0.3004  0.4769 -0.3673
 1805SOL    HW123407   6.358   5.345   2.857  1.1876  0.6798 -1.1505
 1805SOL    HW223408   6.217   5.306   2.818  0.7439  0.4136  0.6594
 1806SOL     OW23409   4.063   9.363   9.995 -0.9181 -0.4379 -0.2012
 1806SOL    HW123410   4.077   9.275  10.028  0.6472  0.2239  1.0105
 1806SOL    HW223411   3.998   9.401  10.054 -1.4491 -0.6980 -0.6086
 1807SOL     OW23412  12.081  10.869   4.868  0.3684  0.1657  0.0497
 1807SOL    HW123413  12.162  10.885   4.917  0.2069  0.3083  0.2734
 1807SOL    HW223414  12.092  10.919   4.787  0.6196 -0.0360 -0.0412
 1808SOL     OW23415   0.938  14.036   6.558  0.3046 -0.0052  0.0603
 1808SOL    HW123416   1.011  13.976   6.546  0.9692  0.8255 -0.1703
 1808SOL    HW223417   0.893  14.004   6.636 -0.2427 -1.6531 -0.8940
 1809SOL     OW23418   9.361  12.501  10.915 -0.0837 -0.2221  0.4062
 1809SOL    HW123419   9.363  12.596  10.930 -1.4606 -0.0508 -0.3987
 1809SOL    HW223420   9.383  12.491  10.823 -1.8864 -0.5180 -0.0251
 1810SOL     OW23421   6.755  13.659   1.753 -0.0364 -0.1122 -0.3176
 1810SOL    HW123422   6.828  13.598   1.738 -0.6522 -0.7630 -0.7094
 1810SOL    HW223423   6.709  13.623   1.829  0.1913  0.4364  0.0831
 1811SOL     OW23424   0.815   1.109  12.568  0.0412 -0.0737 -0.1447
 1811SOL    HW123425   0.840   1.195  12.537 -1.2426 -0.1061 -1.3942
 1811SOL    HW223426   0.897   1.067  12.594  0.6724  1.5059  0.4855
 1812SOL     OW23427   7.843   6.764  13.945  0.1294  0.4673  0.0552
 1812SOL    HW123428   7.893   6.750  13.864  0.2299  0.0071  0.1883
 1812SOL    HW223429   7.836   6.859  13.953 -0.5342  0.5181 -0.8931
 1813SOL     OW23430  13.251   1.365   8.696  0.1662 -0.3695  0.3459
 1813SOL    HW123431  13.177   1.343   8.753 -1.4087 -0.3253 -1.5865
 1813SOL    HW223432  13.301   1.429   8.746 -0.4639 -1.1926  2.1540
 1814SOL     OW23433  12.977  13.123   4.504  0.4870  0.4154  0.7104
 1814SOL    HW123434  13.010  13.101   4.591  1.2006  1.2388  0.6622
 1814SOL    HW223435  13.056  13.133   4.451  0.0351 -2.2505 -0.6147
 1815SOL     OW23436  10.792   6.706  12.708 -0.1402  0.1564  0.7265
 1815SOL    HW123437  10.857   6.776  12.698  0.0695 -0.0898  0.3602
 1815SOL    HW223438  10.838   6.626  12.683 -0.9262  0.1363 -0.7698
 1816SOL     OW23439   2.183   8.476  10.841  0.0132 -0.0311 -0.2591
 1816SOL    HW123440   2.182   8.416  10.915 -1.1903 -0.8159 -0.8786
 1816SOL    HW223441   2.272   8.510  10.838  0.9222 -2.2799 -0.2746
 1817SOL     OW23442  12.108   7.599   7.621  0.4314  0.1980  0.5917
 1817SOL    HW123443  12.166   7.529   7.592  0.0594 -1.1449  2.8933
 1817SOL    HW223444  12.152   7.635   7.699 -0.8359  0.5150  1.1778
 1818SOL     OW23445   3.394   7.737   1.565 -0.2196  0.1665 -0.2137
 1818SOL    HW123446   3.399   7.821   1.519 -0.5325  0.1685 -0.2414
 1818SOL    HW223447   3.334   7.685   1.513 -0.1262 -0.0317 -0.1219
 1819SOL     OW23448  12.480  10.841   7.109 -0.3218  0.2732  0.4225
 1819SOL    HW123449  12.458  10.853   7.201  0.1867 -1.9279  0.8853
 1819SOL    HW223450  12.574  10.855   7.104  0.1337 -2.2547  0.8142
 1820SOL     OW23451   3.865   9.152  13.705  0.0094 -0.3751  0.5719
 1820SOL    HW123452   3.825   9.173  13.620  2.3011 -1.0798 -0.7695
 1820SOL    HW223453   3.802   9.183  13.769 -1.3630  1.1441 -1.3715
 1821SOL     OW23454   5.313   7.522  13.908  0.5586 -0.4981 -0.1715
 1821SOL    HW123455   5.365   7.584  13.959 -1.6835 -0.0225  1.7529
 1821SOL    HW223456   5.223   7.554  13.916 -0.1942 -1.7273 -2.6067
 1822SOL     OW23457   4.178   7.040   3.899 -0.4404 -0.3230 -0.0479
 1822SOL    HW123458   4.180   6.984   3.977  1.0349 -0.8991 -0.4732
 1822SOL    HW223459   4.228   6.991   3.833  1.3273  1.6653 -0.2850
 1823SOL     OW23460   2.840  12.686   0.780 -0.1758 -0.1014 -0.2535
 1823SOL    HW123461   2.890  12.704   0.700  0.8097 -0.4542  0.2626
 1823SOL    HW223462   2.822  12.772   0.818 -0.0659  0.0376 -0.5155
 1824SOL     OW23463   7.050  13.966   2.426  0.0424  0.1868  0.2301
 1824SOL    HW123464   7.037  13.984   2.333 -0.1267  0.6213  0.3322
 1824SOL    HW223465   6.967  13.926   2.454 -0.2750  0.9291  0.3950
 1825SOL     OW23466   8.830   6.041   8.229 -0.7878 -0.2138 -0.1068
 1825SOL    HW123467   8.854   5.997   8.311  0.9145  0.6445 -0.0968
 1825SOL    HW223468   8.792   6.124   8.257  0.8533  0.5993 -0.1325
 1826SOL     OW23469  13.464  13.798   2.987 -0.0059  0.1404  0.0692
 1826SOL    HW123470  13.529  13.733   2.961  1.3409  1.3422  0.2996
 1826SOL    HW223471  13.419  13.820   2.905  0.4772 -0.0727 -0.2620
 1827SOL     OW23472   1.145  11.017   6.463  0.1813 -0.3239 -0.3364
 1827SOL    HW123473   1.230  11.025   6.421 -0.4210  0.5148 -1.4328
 1827SOL    HW223474   1.107  11.105   6.459 -1.0619 -0.8449 -0.5754
 1828SOL     OW23475   5.673   8.442  11.412 -0.3807 -0.1177  0.2328
 1828SOL    HW123476   5.607   8.461  11.479  0.6565  1.6208  0.8504
 1828SOL    HW223477   5.623   8.428  11.332 -1.6036 -1.3050  1.1488
 1829SOL     OW23478  10.346   4.600  14.047 -0.3781  0.3556 -0.0755
 1829SOL    HW123479  10.301   4.638  13.971 -0.0587  1.8891  0.4557
 1829SOL    HW223480  10.279   4.596  14.115 -0.7811 -1.4406 -0.5300
 1830SOL     OW23481   8.379  12.700   1.886 -0.2255  0.6263  0.2842
 1830SOL    HW123482   8.365  12.732   1.975  2.2444 -0.3895  1.0986
 1830SOL    HW223483   8.472  12.680   1.881  0.2455  2.7982 -3.2686
 1831SOL     OW23484  13.082   8.106   2.963 -0.6009  0.3250 -0.1812
 1831SOL    HW123485  13.114   8.139   3.047  2.2736  0.1244 -1.0830
 1831SOL    HW223486  13.102   8.176   2.901  2.9258 -1.7232 -1.6292
 1832SOL     OW23487  11.619   5.077   5.632  0.0536  0.6249 -0.3033
 1832SOL    HW123488  11.692   5.016   5.625 -0.9004 -0.7237  0.8386
 1832SOL    HW223489  11.568   5.064   5.552 -0.0136  0.0888 -0.1750
 1833SOL     OW23490  13.907  12.705   0.707 -0.1063 -0.2949  0.7703
 1833SOL    HW123491  13.824  12.744   0.733 -1.0490  0.5946 -2.9267
 1833SOL    HW223492  13.972  12.749   0.761 -1.6526  2.3976  0.6083
 1834SOL     OW23493  13.703   8.562  14.106  0.8505  0.0942 -0.1324
 1834SOL    HW123494  13.754   8.643  14.104  0.2000  0.5878  1.8027
 1834SOL    HW223495  13.674   8.551  14.015  2.8406  0.7547 -0.9238
 1835SOL     OW23496   1.198   0.920   9.611 -0.5171  0.0586  0.2710
 1835SOL    HW123497   1.280   0.872   9.597 -0.2306  0.7432 -0.4692
 1835SOL    HW223498   1.223   0.995   9.666 -0.3905  0.9724 -1.0070
 1836SOL     OW23499   9.360   4.226   5.831 -0.2958 -0.4064  0.5614
 1836SOL    HW123500   9.411   4.182   5.899  0.3337 -1.5117 -0.5682
 1836SOL    HW223501   9.295   4.160   5.804 -0.1621 -0.2031 -0.2864
 1837SOL     OW23502   2.596   3.068   6.556  0.1909  0.1524 -0.3995
 1837SOL    HW123503   2.598   2.975   6.535  1.5495 -0.0262  0.4162
 1837SOL    HW223504   2.567   3.073   6.647 -0.5785  0.5836 -0.6574
 1838SOL     OW23505   1.873   9.705   7.401 -0.0329  0.4538  0.0458
 1838SOL    HW123506   1.799   9.649   7.378  0.2555  0.1393 -0.1327
 1838SOL    HW223507   1.834   9.787   7.430 -0.5342 -0.3096  1.6668
 1839SOL     OW23508   8.541   4.449  11.830  0.4056  0.1998 -0.1312
 1839SOL    HW123509   8.583   4.448  11.745  1.6912  1.0279  0.4698
 1839SOL    HW223510   8.609   4.478  11.891 -0.7130  0.4509  1.0509
 1840SOL     OW23511   5.083   2.980  10.256 -0.5670 -0.3038  0.2656
 1840SOL    HW123512   5.009   2.935  10.297 -0.2002 -1.1861 -0.0178
 1840SOL    HW223513   5.057   3.072  10.254 -1.4296 -0.5291  0.6523
 1841SOL     OW23514  11.707   7.019   0.303  0.1100  0.1828  0.5608
 1841SOL    HW123515  11.732   7.038   0.394 -0.7640 -0.7286  1.0060
 1841SOL    HW223516  11.773   6.958   0.272  0.4398  0.5347  0.5532
 1842SOL     OW23517   3.896   0.682  12.210  0.3054 -0.1176 -0.3444
 1842SOL    HW123518   3.852   0.598  12.195 -0.4028  0.2021 -0.0848
 1842SOL    HW223519   3.825   0.746  12.213  0.4171  0.0272  3.0530
 1843SOL     OW23520  13.510   8.404  11.140 -0.1838 -0.2816 -0.5720
 1843SOL    HW123521  13.478   8.321  11.174  1.5055 -0.8918 -0.3700
 1843SOL    HW223522  13.563   8.380  11.064 -1.4289  0.8173 -1.8488
 1844SOL     OW23523  10.048  12.621   9.402  0.0325 -0.3989  0.3800
 1844SOL    HW123524  10.123  12.661   9.359  0.2420  0.4201  1.4819
 1844SOL    HW223525  10.048  12.531   9.369  1.4654 -0.4029  0.3126
 1845SOL     OW23526   2.253   2.233   2.488 -0.4047 -0.4026 -0.3741
 1845SOL    HW123527   2.334   2.205   2.530  0.1549 -0.7380 -1.6094
 1845SOL    HW223528   2.187   2.229   2.557  0.9137  1.5513  1.1501
 1846SOL     OW23529  12.431   0.749   3.108  0.1159  0.3227 -0.3938
 1846SOL    HW123530  12.464   0.732   3.020  0.5965  3.0777 -0.8372
 1846SOL    HW223531  12.476   0.829   3.136 -0.3604 -0.2032  2.2020
 1847SOL     OW23532   8.823  13.126   7.469 -0.5777  0.0401  0.1015
 1847SOL    HW123533   8.801  13.135   7.562 -2.3042  1.0362 -0.3716
 1847SOL    HW223534   8.866  13.040   7.463  1.9476  0.9907  2.2028
 1848SOL     OW23535   0.130  13.357  12.080  0.4387 -0.1053  0.6011
 1848SOL    HW123536   0.057  13.306  12.114  0.7692  0.8986  2.9915
 1848SOL    HW223537   0.097  13.447  12.077  1.6452  0.4392  2.1322
 1849SOL     OW23538   3.784   3.286   0.119  0.4225 -0.0634 -0.0683
 1849SOL    HW123539   3.779   3.288   0.023 -1.3182  2.4521 -0.0031
 1849SOL    HW223540   3.833   3.364   0.142 -1.2554  0.6812  1.1345
 1850SOL     OW23541   7.958  11.971   1.232  0.3969 -0.1019 -0.1785
 1850SOL    HW123542   7.882  11.999   1.283  0.0859  1.7373 -1.5591
 1850SOL    HW223543   8.028  11.959   1.297 -0.3452  0.8142  0.8210
 1851SOL     OW23544  11.096   4.346   8.096 -0.3179 -0.0432  0.1244
 1851SOL    HW123545  11.186   4.364   8.124 -1.1757  1.5916  2.1602
 1851SOL    HW223546  11.071   4.268   8.147  0.5488 -1.8446 -2.0461
 1852SOL     OW23547   5.282   6.295   7.031  0.0274  0.2453 -0.1123
 1852SOL    HW123548   5.226   6.220   7.051  0.8434 -0.3893 -0.1986
 1852SOL    HW223549   5.283   6.300   6.936  0.8746 -0.3344 -0.1448
 1853SOL     OW23550  13.044   5.716  11.601  0.2192  0.6189  0.5076
 1853SOL    HW123551  13.034   5.805  11.634  0.8808  0.4714  1.1330
 1853SOL    HW223552  13.032   5.723  11.507 -1.1726  1.1436  0.6908
 1854SOL     OW23553  10.996  11.412   0.337 -0.0161 -0.7165  0.2479
 1854SOL    HW123554  11.020  11.329   0.378 -1.3451 -1.0050  0.4743
 1854SOL    HW223555  11.025  11.478   0.400  1.0462 -0.9828  0.0659
 1855SOL     OW23556   4.839   5.493   8.184 -0.2009  0.3247  0.3589
 1855SOL    HW123557   4.920   5.505   8.234  0.2469  1.4019 -0.5874
 1855SOL    HW223558   4.777   5.552   8.225 -0.4184 -0.2546  0.8746
 1856SOL     OW23559   5.061  13.618   8.016 -0.3127  0.1984 -0.0796
 1856SOL    HW123560   5.018  13.687   8.067  0.2207  0.2783  0.2727
 1856SOL    HW223561   5.004  13.542   8.026 -0.3545  0.2904  0.4216
 1857SOL     OW23562  10.297  12.643   6.200  0.2171  0.4595 -0.3296
 1857SOL    HW123563  10.351  12.705   6.248 -0.1958  0.9511 -0.5001
 1857SOL    HW223564  10.353  12.613   6.128  0.9162 -0.4364  0.5423
 1858SOL     OW23565  14.119   1.213   8.644 -0.3306  0.5148 -0.2367
 1858SOL    HW123566  14.089   1.210   8.735  0.6176  0.2147  0.0792
 1858SOL    HW223567  14.208   1.179   8.647  0.9909  3.5770 -0.7535
 1859SOL     OW23568   3.227  13.223  12.433  0.0693 -0.1704  0.1707
 1859SOL    HW123569   3.146  13.183  12.401  0.4027 -0.8914  0.2194
 1859SOL    HW223570   3.204  13.315  12.447 -0.3069 -0.0152 -1.3350
 1860SOL     OW23571   5.698  12.103   0.241  0.2131  0.0665 -0.1428
 1860SOL    HW123572   5.626  12.050   0.275 -0.0742  0.4803 -0.0942
 1860SOL    HW223573   5.750  12.124   0.318  1.6641 -2.0863 -0.4505
 1861SOL     OW23574   2.935   9.162   8.836  0.0153 -0.1240 -0.2180
 1861SOL    HW123575   2.851   9.208   8.829 -0.2672 -0.8054 -2.2196
 1861SOL    HW223576   2.910   9.070   8.844  0.5914 -0.1451  1.9138
 1862SOL     OW23577  12.124  12.025   0.482  0.7610 -0.2590 -0.3658
 1862SOL    HW123578  12.180  12.073   0.543  0.6396  0.1386 -0.5624
 1862SOL    HW223579  12.048  12.082   0.469  1.0505 -0.0825 -1.3329
 1863SOL     OW23580  11.101   7.786   2.037 -0.1181 -0.4982  0.1091
 1863SOL    HW123581  11.171   7.776   1.972 -0.0996  0.3917 -0.0199
 1863SOL    HW223582  11.124   7.866   2.085 -0.7788 -0.4803  0.4076
 1864SOL     OW23583  11.525   7.071   8.093  0.5957  0.2763 -0.0441
 1864SOL    HW123584  11.597   7.073   8.156  1.4110  1.2650 -0.9647
 1864SOL    HW223585  11.560   7.116   8.016 -1.4107  1.8605 -0.0894
 1865SOL     OW23586   1.179  12.324   1.407  0.3802 -0.1848 -0.2315
 1865SOL    HW123587   1.109  12.352   1.348 -1.6086  0.7373  2.4017
 1865SOL    HW223588   1.168  12.378   1.485  1.2252 -3.1234  2.0835
 1866SOL     OW23589  10.227   5.716   1.505  0.3858  0.4077  0.3952
 1866SOL    HW123590  10.307   5.700   1.555 -0.0641  0.7041  1.2174
 1866SOL    HW223591  10.252   5.784   1.442  0.7388  0.6288  0.7704
 1867SOL     OW23592   2.515   2.590   3.661  0.0560 -0.2893  0.7470
 1867SOL    HW123593   2.459   2.649   3.611  0.6803  0.5002  0.9390
 1867SOL    HW223594   2.566   2.543   3.595 -1.3854 -1.6079  0.5428
 1868SOL     OW23595   0.841   8.265   8.843  0.5212  0.0232 -0.1881
 1868SOL    HW123596   0.814   8.317   8.919 -1.7357 -0.4716 -0.5677
 1868SOL    HW223597   0.865   8.180   8.880  0.5431  0.1375  0.0676
 1869SOL     OW23598  11.343   6.339   5.841 -0.1002 -0.1378  0.1816
 1869SOL    HW123599  11.431   6.302   5.827 -0.5930 -1.0085 -0.7343
 1869SOL    HW223600  11.323   6.382   5.758 -0.8069 -0.5305  0.1437
 1870SOL     OW23601   7.012   6.593   6.434  0.2010  0.0598  0.1175
 1870SOL    HW123602   6.987   6.543   6.512  0.6329  0.0606  0.2572
 1870SOL    HW223603   7.089   6.548   6.400  0.9624  0.9727  0.5895
 1871SOL     OW23604   1.923   8.392   2.115  0.0583 -0.0448  0.0278
 1871SOL    HW123605   2.002   8.416   2.066  0.0289 -0.8729 -0.4318
 1871SOL    HW223606   1.956   8.341   2.189  0.0482  0.6650  0.5349
 1872SOL     OW23607   0.797   9.676  12.868  0.3784 -0.4018  0.0627
 1872SOL    HW123608   0.783   9.762  12.909 -1.1911 -1.2645  1.4588
 1872SOL    HW223609   0.717   9.658  12.820  1.5701 -0.1519 -2.1373
 1873SOL     OW23610   1.437  12.736   9.329  0.0634  0.0310  0.1871
 1873SOL    HW123611   1.369  12.705   9.390 -1.1235  1.0970 -0.5337
 1873SOL    HW223612   1.499  12.663   9.323 -1.5944 -1.4413  0.0159
 1874SOL     OW23613  12.746   0.064   5.545  0.0235 -0.1413 -0.3036
 1874SOL    HW123614  12.743  -0.026   5.513  0.2566 -0.5813  0.8549
 1874SOL    HW223615  12.729   0.056   5.639  0.0088  1.0310 -0.1974
 1875SOL     OW23616   4.550   4.716   7.908  0.3073  0.0513  0.2649
 1875SOL    HW123617   4.628   4.770   7.893  0.4677  0.0364  1.0132
 1875SOL    HW223618   4.564   4.676   7.994 -0.6757  0.3105  0.5645
 1876SOL     OW23619  10.670   4.517  13.203  0.4706  0.2120 -0.0307
 1876SOL    HW123620  10.708   4.568  13.274  2.0706 -0.7839 -0.1234
 1876SOL    HW223621  10.642   4.582  13.139 -0.1080  1.0803  1.0587
 1877SOL     OW23622  11.745   4.259   4.854  0.4460  0.2644 -1.1148
 1877SOL    HW123623  11.693   4.208   4.916 -2.5415  0.9985 -2.7935
 1877SOL    HW223624  11.681   4.318   4.812  2.8863  2.0759 -2.5687
 1878SOL     OW23625   9.017   7.731  13.197 -0.0357  0.0304  0.1984
 1878SOL    HW123626   8.996   7.708  13.106  0.4081  0.1119  0.0725
 1878SOL    HW223627   9.102   7.692  13.212  0.6813  1.4603  0.0247
 1879SOL     OW23628   1.984   4.202   8.057 -0.5139 -0.2007  0.1249
 1879SOL    HW123629   1.976   4.295   8.080  0.9053 -0.0365  0.0602
 1879SOL    HW223630   2.013   4.203   7.965 -1.3597 -0.7432 -0.1648
 1880SOL     OW23631   0.521   0.426   6.956 -0.5107  0.0871 -0.3839
 1880SOL    HW123632   0.596   0.463   6.909 -0.5868  1.0607  0.2313
 1880SOL    HW223633   0.446   0.478   6.928 -0.6094  0.4733  0.5653
 1881SOL     OW23634   2.676  10.604  13.591 -0.8348 -0.2779  0.4460
 1881SOL    HW123635   2.697  10.515  13.620 -0.6039 -0.8901 -1.4938
 1881SOL    HW223636   2.750  10.657  13.621  0.3711 -1.2474 -0.6859
 1882SOL     OW23637  10.885   4.390   4.477 -0.0075 -0.0624  0.5301
 1882SOL    HW123638  10.838   4.326   4.422  0.1611 -1.3025  1.7609
 1882SOL    HW223639  10.966   4.345   4.502  0.8282  1.2181  0.2400
 1883SOL     OW23640  10.507  12.690   1.417 -0.3469 -0.7454 -0.4027
 1883SOL    HW123641  10.493  12.595   1.423 -0.4200 -0.6840  0.5851
 1883SOL    HW223642  10.446  12.727   1.480 -2.1250  0.1552 -2.5156
 1884SOL     OW23643  10.143  14.015  12.181  0.7997 -0.3957  0.2757
 1884SOL    HW123644  10.170  14.091  12.130 -1.8363  0.6764  0.3455
 1884SOL    HW223645  10.126  13.947  12.117 -1.6380  0.6715 -0.2962
 1885SOL     OW23646  11.153   9.723   9.712 -0.1806 -0.2233 -0.1886
 1885SOL    HW123647  11.240   9.762   9.723  0.3799 -1.0410 -1.4288
 1885SOL    HW223648  11.142   9.717   9.617 -0.6815 -2.0629 -0.0507
 1886SOL     OW23649  12.269   7.250   4.384  0.2825  0.0339  0.0923
 1886SOL    HW123650  12.217   7.177   4.418  0.9153 -0.2264  0.5130
 1886SOL    HW223651  12.206   7.322   4.375 -0.5925 -0.8899 -1.4327
 1887SOL     OW23652   8.843   0.108   6.530 -0.1018 -0.0259 -0.4888
 1887SOL    HW123653   8.825   0.137   6.620 -0.9169  0.3570 -0.7549
 1887SOL    HW223654   8.881   0.021   6.539 -2.0692 -0.8778  0.1741
 1888SOL     OW23655   7.973   0.554   2.138  0.2686  0.4793  0.7444
 1888SOL    HW123656   7.879   0.538   2.148  0.5908 -0.9190  1.7703
 1888SOL    HW223657   8.015   0.483   2.187  1.8849  0.0232 -1.1767
 1889SOL     OW23658   7.505   3.796  13.451  0.3902  0.0964  0.3634
 1889SOL    HW123659   7.535   3.731  13.515  1.0544 -0.6438 -0.6715
 1889SOL    HW223660   7.471   3.867  13.505  0.5776 -0.6641  1.5428
 1890SOL     OW23661   3.368  11.966  13.494  0.2303 -0.2759 -0.2153
 1890SOL    HW123662   3.294  12.002  13.543 -0.7171 -2.4790  0.1099
 1890SOL    HW223663   3.348  11.986  13.403  1.3202  2.6432  0.0749
 1891SOL     OW23664   7.682  11.930   9.709 -0.1793 -0.0812  0.9325
 1891SOL    HW123665   7.676  12.024   9.695 -2.1696 -0.3920 -0.8182
 1891SOL    HW223666   7.593  11.897   9.693  0.5792 -2.3275  0.9106
 1892SOL     OW23667   3.204  10.627   1.736 -0.1197 -0.4832 -0.0642
 1892SOL    HW123668   3.159  10.558   1.786 -0.4232 -0.5896 -0.4799
 1892SOL    HW223669   3.162  10.708   1.765 -0.2708 -0.5410 -0.1196
 1893SOL     OW23670   5.514  12.043   1.648  0.3315  0.1063  0.0524
 1893SOL    HW123671   5.563  11.973   1.691  1.2034  0.4932 -0.2927
 1893SOL    HW223672   5.537  12.035   1.556 -2.2534 -1.3201 -0.5597
 1894SOL     OW23673   2.511   9.939   4.728  0.5396  0.0162  0.1233
 1894SOL    HW123674   2.487   9.887   4.805  0.1664  0.2629  0.1746
 1894SOL    HW223675   2.525  10.027   4.762  2.2775 -0.2698  0.2226
 1895SOL     OW23676  14.094   8.048  13.197 -0.1012  0.1299  0.0652
 1895SOL    HW123677  14.093   8.057  13.102  0.1421  0.4422  0.0909
 1895SOL    HW223678  14.013   8.090  13.227 -1.2369 -1.7885 -0.1487
 1896SOL     OW23679  13.541   3.795   1.727 -0.0805 -0.0527 -0.5481
 1896SOL    HW123680  13.447   3.785   1.713 -0.0454  0.8356 -1.5648
 1896SOL    HW223681  13.576   3.818   1.641  0.6784  2.1358  0.2589
 1897SOL     OW23682   4.791   1.293   9.142 -0.4120  0.1256 -0.3994
 1897SOL    HW123683   4.728   1.300   9.071  0.2457  0.7777 -0.9249
 1897SOL    HW223684   4.873   1.326   9.106  0.3821 -1.1990  0.0990
 1898SOL     OW23685  12.931   6.139  13.559 -0.3157 -0.4728 -0.2666
 1898SOL    HW123686  12.951   6.187  13.479  0.6368  0.0125  0.2482
 1898SOL    HW223687  12.866   6.193  13.604  1.4956  0.9228  0.8025
 1899SOL     OW23688  11.246  11.085   4.336 -0.3144  0.2178  0.8281
 1899SOL    HW123689  11.294  11.009   4.304 -0.2722  0.9285 -0.9126
 1899SOL    HW223690  11.272  11.156   4.278 -2.5554  0.8932  0.5394
 1900SOL     OW23691  13.134   3.446   1.808  0.0612  0.1551 -0.4962
 1900SOL    HW123692  13.200   3.472   1.744  0.3567  0.0569 -0.2284
 1900SOL    HW223693  13.157   3.357   1.833  0.2195  0.3587  0.0975
 1901SOL     OW23694   3.158   0.568  11.265 -0.1410 -0.1562  0.3112
 1901SOL    HW123695   3.088   0.612  11.216 -1.2672 -1.4730  0.6941
 1901SOL    HW223696   3.235   0.575  11.207 -0.7399  0.7173 -0.4156
 1902SOL     OW23697   5.755  10.604   7.615 -0.2915 -0.3089 -0.0393
 1902SOL    HW123698   5.828  10.544   7.596 -0.9153 -1.2988  0.5687
 1902SOL    HW223699   5.710  10.563   7.689 -1.1371  0.5819 -0.0490
 1903SOL     OW23700   7.649   3.778   1.575  0.3317  0.2683  0.1380
 1903SOL    HW123701   7.651   3.774   1.480  3.0221 -1.6274  0.1752
 1903SOL    HW223702   7.640   3.871   1.595  0.0303  0.7254 -1.9356
 1904SOL     OW23703  10.969   5.254   7.442 -0.8114  0.1746 -0.1543
 1904SOL    HW123704  11.029   5.225   7.511 -0.7550  1.3994  0.3233
 1904SOL    HW223705  10.924   5.174   7.415  0.9538 -0.7577 -0.4619
 1905SOL     OW23706   5.449   2.920  12.738 -0.0060  0.5539  0.5134
 1905SOL    HW123707   5.459   3.013  12.760  0.9265  0.9760 -1.4629
 1905SOL    HW223708   5.538   2.890  12.719 -0.4885 -0.2753 -0.5768
 1906SOL     OW23709   2.420   8.535   3.898 -0.0286  0.4722  0.3160
 1906SOL    HW123710   2.372   8.452   3.905  1.9054 -0.7016  0.7098
 1906SOL    HW223711   2.426   8.551   3.804  2.4952 -1.7905 -0.0594
 1907SOL     OW23712   5.445   0.002   8.528 -0.1749  0.1589 -0.0520
 1907SOL    HW123713   5.478  -0.043   8.449  0.3721 -1.3484  0.9822
 1907SOL    HW223714   5.519   0.002   8.588 -0.4213  1.7893  0.2813
 1908SOL     OW23715   5.850   6.711   9.401  0.3772 -0.0588  0.3377
 1908SOL    HW123716   5.860   6.664   9.318  0.8300  1.0307 -0.2418
 1908SOL    HW223717   5.923   6.773   9.402 -0.3881  0.8649  0.9211
 1909SOL     OW23718   2.958   2.324  11.112 -0.4784  0.2342  0.6227
 1909SOL    HW123719   2.969   2.411  11.074  1.6664  0.5429  1.8215
 1909SOL    HW223720   2.939   2.268  11.037  0.2108  1.3886 -0.4571
 1910SOL     OW23721   1.713  12.705   8.007 -0.1639  0.2590  0.5100
 1910SOL    HW123722   1.660  12.632   7.975 -0.4474  0.9982 -0.7833
 1910SOL    HW223723   1.789  12.663   8.049  0.5335 -0.8134 -1.6384
 1911SOL     OW23724  13.475  12.132   8.925 -0.0272 -0.0443  0.5603
 1911SOL    HW123725  13.471  12.228   8.921 -0.0982 -0.0798 -0.2656
 1911SOL    HW223726  13.521  12.114   9.007  0.2140  0.6971  0.5982
 1912SOL     OW23727   9.166   1.961   1.718  0.0094 -0.2997 -0.7770
 1912SOL    HW123728   9.077   1.944   1.688  0.6405 -0.8319 -2.4867
 1912SOL    HW223729   9.209   2.003   1.643  0.9158  0.9316  0.3855
 1913SOL     OW23730   1.312  11.938   8.988  0.3367  0.1247 -0.1924
 1913SOL    HW123731   1.346  11.958   9.076 -1.1960  1.0388  0.2191
 1913SOL    HW223732   1.261  12.015   8.964 -0.5969 -0.7835 -1.2121
 1914SOL     OW23733   3.806  11.459  13.111  0.0361  0.1274 -0.4426
 1914SOL    HW123734   3.855  11.403  13.051  0.8284  0.1688  0.1508
 1914SOL    HW223735   3.862  11.535  13.124 -2.4328  2.8929 -3.9636
 1915SOL     OW23736   3.102   3.931   0.763  0.7359  0.2530 -0.1702
 1915SOL    HW123737   3.147   3.847   0.756 -1.7407 -1.2268  0.5224
 1915SOL    HW223738   3.096   3.962   0.672 -0.1429 -1.3917 -0.7163
 1916SOL     OW23739   0.549   0.447   0.436 -0.4759  0.2116  0.2744
 1916SOL    HW123740   0.589   0.363   0.416  1.6194  1.2297 -0.1415
 1916SOL    HW223741   0.456   0.429   0.443  0.0708 -2.4252  1.8469
 1917SOL     OW23742  12.870   8.416   6.476  0.5746 -0.2929  0.0641
 1917SOL    HW123743  12.862   8.329   6.438  0.8002 -0.1627 -0.2887
 1917SOL    HW223744  12.943   8.456   6.428  1.7604 -0.6104  1.5357
 1918SOL     OW23745  12.372   6.295  10.030  0.5117 -0.6799  0.4024
 1918SOL    HW123746  12.399   6.208  10.000  0.4068 -0.4007 -0.5268
 1918SOL    HW223747  12.374   6.289  10.126 -1.6717 -2.3918  0.4127
 1919SOL     OW23748   5.973   3.027  10.529  0.3964  0.4917  0.1828
 1919SOL    HW123749   6.057   2.981  10.535  1.1908  1.7637 -0.8160
 1919SOL    HW223750   5.991   3.115  10.561 -0.3291  1.0455 -0.8536
 1920SOL     OW23751   9.271   4.591   2.346 -0.7560  0.3204  0.4102
 1920SOL    HW123752   9.290   4.517   2.288 -1.7706 -0.1126  0.6052
 1920SOL    HW223753   9.352   4.605   2.395 -0.6048 -0.7667  0.4836
 1921SOL     OW23754   8.621   9.323  10.987  0.5325  0.0092 -0.0756
 1921SOL    HW123755   8.558   9.395  10.983 -0.2027 -0.4836  1.7526
 1921SOL    HW223756   8.688   9.353  11.049  1.7233  0.2083 -1.4023
 1922SOL     OW23757  11.135   5.447   7.328  0.2943  0.6697 -0.0091
 1922SOL    HW123758  11.124   5.450   7.233  0.0373 -0.5092 -0.0204
 1922SOL    HW223759  11.057   5.403   7.360  0.7116  0.4352  0.6915
 1923SOL     OW23760   0.359   7.220   5.798  0.4492 -0.1939 -0.1814
 1923SOL    HW123761   0.315   7.146   5.758 -0.1841 -0.0386  0.2041
 1923SOL    HW223762   0.419   7.252   5.731 -0.2748 -0.2006 -0.8494
 1924SOL     OW23763  12.736   4.945  13.132  0.5010 -0.1377 -0.1032
 1924SOL    HW123764  12.768   5.019  13.184  3.2113 -2.1025  1.2192
 1924SOL    HW223765  12.687   4.891  13.194  0.6709 -0.7021 -0.4576
 1925SOL     OW23766   2.145   9.928   9.469 -0.2791  0.2957 -0.3635
 1925SOL    HW123767   2.217   9.865   9.473  0.5645  1.1066 -2.0628
 1925SOL    HW223768   2.187  10.014   9.468 -1.4160  0.9728  1.9708
 1926SOL     OW23769   1.009  12.117   2.011 -0.6901  0.0015 -0.3090
 1926SOL    HW123770   0.968  12.052   2.069  1.2996 -0.8625  0.2060
 1926SOL    HW223771   1.026  12.069   1.930 -0.5197  0.2965 -0.4487
 1927SOL     OW23772  12.411   6.176   2.254  0.0700 -0.1674  0.5204
 1927SOL    HW123773  12.468   6.186   2.330  0.7748 -0.5433  0.0474
 1927SOL    HW223774  12.462   6.212   2.181 -0.5099 -0.0228  0.1810
 1928SOL     OW23775   0.417   7.451   2.052 -0.5602  0.1939 -0.6203
 1928SOL    HW123776   0.495   7.442   1.997  0.0276 -0.0590  0.2445
 1928SOL    HW223777   0.349   7.400   2.007 -1.0517  2.5960 -2.8476
 1929SOL     OW23778   2.525   1.803   7.362 -0.1514 -0.1131  0.5714
 1929SOL    HW123779   2.605   1.838   7.323  0.3846 -2.8534 -1.0532
 1929SOL    HW223780   2.454   1.845   7.313  0.4150 -0.5361 -0.6280
 1930SOL     OW23781  11.147  13.403  11.260  0.1728  0.3446  0.3013
 1930SOL    HW123782  11.239  13.429  11.257 -0.1138  1.4955  1.0108
 1930SOL    HW223783  11.110  13.433  11.177  0.0470  1.4462  0.7468
 1931SOL     OW23784   6.385   0.629  11.442 -0.2053  0.5410  0.2047
 1931SOL    HW123785   6.416   0.658  11.356 -0.8459  0.0976 -0.1777
 1931SOL    HW223786   6.435   0.550  11.461  1.0523  1.4636  0.9469
 1932SOL     OW23787  14.109   0.195   4.850  0.5665 -0.6257  0.0586
 1932SOL    HW123788  14.111   0.277   4.899  1.2648 -1.2920  1.1866
 1932SOL    HW223789  14.021   0.159   4.867  0.3568 -0.2481 -0.2198
 1933SOL     OW23790  14.057   1.540   0.682 -0.4189 -0.7499 -0.2260
 1933SOL    HW123791  14.059   1.544   0.778 -2.5964  1.5433 -0.1745
 1933SOL    HW223792  14.149   1.540   0.657  0.3680  3.1204  1.8727
 1934SOL     OW23793   3.416   1.531  10.158 -0.1583 -0.0037  0.0414
 1934SOL    HW123794   3.392   1.518  10.250  1.3351  1.9255  0.7661
 1934SOL    HW223795   3.446   1.622  10.153 -0.2321 -0.0347 -2.3819
 1935SOL     OW23796   7.397   9.052  11.601  0.1910 -0.1853  0.5644
 1935SOL    HW123797   7.386   8.961  11.572 -1.4169  0.6201 -1.5837
 1935SOL    HW223798   7.469   9.086  11.548 -1.6177  0.7846 -1.4296
 1936SOL     OW23799   2.981   1.277   5.101 -0.2604  0.5893 -0.0081
 1936SOL    HW123800   2.937   1.201   5.063 -0.2716 -1.2700  3.3193
 1936SOL    HW223801   3.048   1.301   5.037  0.0324 -2.5304 -1.0118
 1937SOL     OW23802  13.011   0.284   9.466  0.0199  0.2481  0.1379
 1937SOL    HW123803  13.031   0.194   9.441  0.3190 -0.1040  1.5665
 1937SOL    HW223804  13.072   0.338   9.414  0.1810 -0.3989 -0.3528
 1938SOL     OW23805  12.487  13.207   2.333  0.2626 -0.0001  0.0987
 1938SOL    HW123806  12.398  13.181   2.311  0.6295 -0.2999 -1.1650
 1938SOL    HW223807  12.498  13.292   2.289  0.8661 -0.3808 -0.5238
 1939SOL     OW23808   7.544   8.478  12.324 -0.3198  0.5578  0.0068
 1939SOL    HW123809   7.536   8.479  12.228 -0.8691  0.7227  0.0536
 1939SOL    HW223810   7.531   8.569  12.350 -0.3301  0.4852  0.2561
 1940SOL     OW23811   2.796  12.939   6.346 -0.5055  0.6286 -0.3833
 1940SOL    HW123812   2.875  12.973   6.389  0.6180  0.6866 -2.3852
 1940SOL    HW223813   2.824  12.920   6.257 -2.5248 -0.3426 -0.8571
 1941SOL     OW23814   8.316   6.348   2.383 -0.4897  0.1766  0.0049
 1941SOL    HW123815   8.305   6.440   2.405  0.9944  0.2369  0.6482
 1941SOL    HW223816   8.384   6.317   2.443 -0.0695 -1.0113 -1.0356
 1942SOL     OW23817  13.545   1.503   5.185 -0.1054  0.0036 -0.4508
 1942SOL    HW123818  13.536   1.598   5.190 -1.9989 -0.1919  0.3695
 1942SOL    HW223819  13.640   1.488   5.188  0.1879  1.8001  0.3572
 1943SOL     OW23820   2.124   5.139  10.723 -0.4055  0.0333  0.0796
 1943SOL    HW123821   2.184   5.152  10.796  1.2335  1.1577 -1.3866
 1943SOL    HW223822   2.143   5.211  10.663 -2.4342 -0.2480 -0.9807
 1944SOL     OW23823   5.757  11.241   5.634  0.7651  0.2892  0.9756
 1944SOL    HW123824   5.757  11.251   5.730  1.2148  0.2686  0.9817
 1944SOL    HW223825   5.665  11.229   5.611  0.8067 -1.2844  1.5642
 1945SOL     OW23826   1.269  11.661   3.748  0.0811  0.0046  0.5660
 1945SOL    HW123827   1.254  11.722   3.676  0.3598 -0.3716  0.1819
 1945SOL    HW223828   1.190  11.607   3.751  1.1041 -1.7118 -1.1946
 1946SOL     OW23829  11.878  12.494  13.303  0.0557 -0.0117 -0.1469
 1946SOL    HW123830  11.801  12.472  13.356 -1.4357 -1.1297 -2.5991
 1946SOL    HW223831  11.923  12.410  13.291  0.4794  0.2640 -0.5049
 1947SOL     OW23832  11.774  12.012   6.900  0.4157 -0.1805 -0.4581
 1947SOL    HW123833  11.786  12.010   6.805  1.9252 -0.2173 -0.2798
 1947SOL    HW223834  11.819  11.934   6.932 -0.2057 -0.2435  0.2874
 1948SOL     OW23835   0.758   1.457   6.347 -0.5353 -0.4033 -0.0687
 1948SOL    HW123836   0.742   1.537   6.398  0.6059 -0.4578  0.3995
 1948SOL    HW223837   0.788   1.393   6.411 -0.7461 -1.0011 -0.5540
 1949SOL     OW23838   5.915   5.667   4.015 -0.6143 -0.3934  0.3720
 1949SOL    HW123839   5.927   5.664   4.110 -1.8453 -1.4360  0.5203
 1949SOL    HW223840   5.986   5.614   3.980 -0.8379 -0.9878  0.8003
 1950SOL     OW23841   9.422   4.613  10.342 -0.3218 -0.7432 -0.4015
 1950SOL    HW123842   9.376   4.661  10.411  1.7636  0.8123  0.0029
 1950SOL    HW223843   9.490   4.673  10.313 -0.0220 -2.0585 -2.6034
 1951SOL     OW23844  10.386  12.422  12.921 -0.0753  0.2375  0.2895
 1951SOL    HW123845  10.347  12.352  12.975 -0.0043  0.4656  0.6349
 1951SOL    HW223846  10.420  12.485  12.984 -0.3322  0.6944 -0.0260
 1952SOL     OW23847   7.395   9.629   7.802 -0.5466 -0.6254  0.0786
 1952SOL    HW123848   7.398   9.617   7.707 -0.8697 -0.3299  0.0322
 1952SOL    HW223849   7.392   9.723   7.814  0.9643 -0.5963  0.4247
 1953SOL     OW23850   0.400   7.285   6.056  0.1898 -0.4926  0.1978
 1953SOL    HW123851   0.387   7.258   5.964 -1.4931  1.1873 -0.1201
 1953SOL    HW223852   0.360   7.214   6.107 -0.2372 -0.7281 -0.4423
 1954SOL     OW23853   1.761   7.747  13.116 -0.2277  0.7525  0.2888
 1954SOL    HW123854   1.762   7.695  13.036 -0.5409 -1.4400  1.6197
 1954SOL    HW223855   1.849   7.784  13.122  0.3411 -0.4653 -0.2207
 1955SOL     OW23856   2.354  13.886  13.247 -0.4754 -0.1706  0.2290
 1955SOL    HW123857   2.372  13.975  13.278  1.3481 -0.3705 -0.1731
 1955SOL    HW223858   2.293  13.898  13.174 -0.7024  0.6924  0.5520
 1956SOL     OW23859  12.163   4.421   3.490 -0.3593 -0.4758  0.3268
 1956SOL    HW123860  12.094   4.475   3.452 -0.7743 -1.1991  0.0246
 1956SOL    HW223861  12.119   4.340   3.516  0.1367 -0.4462  1.3132
 1957SOL     OW23862   6.671   4.954   5.464  0.6372 -0.4739  0.4102
 1957SOL    HW123863   6.751   4.904   5.453  0.9408 -0.0420  0.5927
 1957SOL    HW223864   6.647   4.941   5.556  0.4462 -0.6815  0.3299
 1958SOL     OW23865   5.326   0.066   7.401  0.3862 -0.2191 -0.1411
 1958SOL    HW123866   5.354   0.155   7.382 -1.1703  0.0420 -1.3978
 1958SOL    HW223867   5.335   0.058   7.496  0.6953  1.2028 -0.0314
 1959SOL     OW23868   1.229   3.472   6.253 -0.1171 -0.1346 -0.3672
 1959SOL    HW123869   1.186   3.492   6.169  1.1338  0.2630 -0.9391
 1959SOL    HW223870   1.224   3.376   6.260 -1.4457 -0.0767 -0.2013
 1960SOL     OW23871   0.819  13.075  11.811 -0.1635  0.4689 -0.0740
 1960SOL    HW123872   0.910  13.046  11.819  0.5987  2.7461  0.2737
 1960SOL    HW223873   0.789  13.035  11.729  1.0345 -0.5498 -0.0654
 1961SOL     OW23874   8.091  13.782  11.850  0.0087  0.0145  1.0425
 1961SOL    HW123875   8.127  13.753  11.934 -0.8014 -1.6999  0.8463
 1961SOL    HW223876   8.007  13.736  11.843  0.4479 -0.5844 -1.0709
 1962SOL     OW23877  12.460   6.379   9.043  0.0059  0.4358  0.1850
 1962SOL    HW123878  12.505   6.451   9.087 -2.2784  0.9455  1.8466
 1962SOL    HW223879  12.487   6.300   9.091  0.7232  0.4514 -0.1774
 1963SOL     OW23880  12.808   2.776   1.125 -0.1617 -0.4675  0.4063
 1963SOL    HW123881  12.843   2.865   1.128 -0.6380 -0.3013  1.5722
 1963SOL    HW223882  12.717   2.787   1.097 -0.2393 -0.5856  0.6116
 1964SOL     OW23883   6.569   0.816  12.104  0.3400  0.1942  0.6212
 1964SOL    HW123884   6.594   0.904  12.133  3.3567 -0.8797  1.6557
 1964SOL    HW223885   6.642   0.760  12.129 -1.5762 -2.7222  0.2492
 1965SOL     OW23886   5.668  13.382   8.400 -0.1244  0.4445 -0.4683
 1965SOL    HW123887   5.742  13.392   8.340  0.9292 -1.2171  0.4601
 1965SOL    HW223888   5.692  13.307   8.454 -1.5459  1.1633  1.2613
 1966SOL     OW23889   1.859   8.640   1.534 -0.2184 -0.1200 -0.9503
 1966SOL    HW123890   1.806   8.651   1.455 -0.2422  1.0386 -0.7944
 1966SOL    HW223891   1.805   8.676   1.604 -0.0349 -0.7787 -0.4582
 1967SOL     OW23892  10.704   8.039   7.665 -0.1528  0.3820 -0.5637
 1967SOL    HW123893  10.626   8.088   7.638  0.4986  0.4458 -2.5033
 1967SOL    HW223894  10.691   7.952   7.627  2.4078  1.4544 -4.5554
 1968SOL     OW23895   9.688  13.853  11.842 -0.4123 -0.7113  0.0322
 1968SOL    HW123896   9.743  13.914  11.891 -0.1748 -1.1177  0.2789
 1968SOL    HW223897   9.599  13.886  11.852 -0.0940  0.8022 -1.5796
 1969SOL     OW23898  13.861   3.448   7.481  0.1513 -0.2261  0.2756
 1969SOL    HW123899  13.893   3.516   7.422 -0.4738 -0.8043 -0.7482
 1969SOL    HW223900  13.870   3.367   7.432  1.2671 -0.9642  1.6377
 1970SOL     OW23901   6.103  12.720   5.170 -0.8848 -0.3514  0.2326
 1970SOL    HW123902   6.151  12.646   5.134  2.0469  1.0877  0.8458
 1970SOL    HW223903   6.130  12.723   5.262 -0.3358  1.8065  0.0613
 1971SOL     OW23904   5.977   9.451   8.239  0.5165 -0.2079 -0.1550
 1971SOL    HW123905   5.891   9.491   8.249  0.8127  0.7178 -1.1116
 1971SOL    HW223906   5.996   9.412   8.324  0.1655  1.6188  0.8188
 1972SOL     OW23907   3.076  12.521   8.586  0.0692  0.0529  0.0385
 1972SOL    HW123908   2.989  12.544   8.554  0.1682  0.4919  0.0820
 1972SOL    HW223909   3.118  12.478   8.512 -0.3680 -0.6584  0.1809
 1973SOL     OW23910   1.702  13.812   2.205  0.4768 -0.1474  0.0086
 1973SOL    HW123911   1.720  13.825   2.112  2.7804 -1.4739  0.1980
 1973SOL    HW223912   1.731  13.892   2.247  0.5111 -0.0055 -0.2868
 1974SOL     OW23913   6.842   8.675   1.856  0.3562  0.4251 -0.2184
 1974SOL    HW123914   6.765   8.727   1.831  0.5293  1.3709  1.0961
 1974SOL    HW223915   6.879   8.723   1.930  1.8904 -0.3306 -0.4716
 1975SOL     OW23916  10.909   5.424   3.067  0.1224 -0.2491  0.1048
 1975SOL    HW123917  10.973   5.492   3.045 -0.1818 -0.4773 -1.6441
 1975SOL    HW223918  10.857   5.462   3.139  0.5187  1.0117 -0.2503
 1976SOL     OW23919  13.781   7.579   4.651 -0.1974 -0.3506 -0.1399
 1976SOL    HW123920  13.833   7.525   4.593  1.5785  1.2432 -0.1090
 1976SOL    HW223921  13.844   7.633   4.698 -1.8328  1.6067 -0.0202
 1977SOL     OW23922   2.771   4.623  12.236  0.4036  0.2956  0.3426
 1977SOL    HW123923   2.844   4.625  12.173 -1.2441  0.1437 -1.6779
 1977SOL    HW223924   2.777   4.537  12.277  0.2954 -0.4965 -1.2068
 1978SOL     OW23925   5.653   3.399  12.489  0.3924 -0.3334 -0.2198
 1978SOL    HW123926   5.590   3.373  12.556  1.5331 -0.1353  0.9895
 1978SOL    HW223927   5.612   3.473  12.444  0.2107  0.5785  1.3468
 1979SOL     OW23928  13.307   3.933  13.637 -0.2908 -0.2385  0.0624
 1979SOL    HW123929  13.226   3.978  13.616 -0.0861  1.3322  2.2528
 1979SOL    HW223930  13.286   3.840  13.629 -2.1103  0.1542 -0.0512
 1980SOL     OW23931   2.082   5.191  12.554 -0.1578 -0.3327 -0.3422
 1980SOL    HW123932   2.163   5.169  12.508 -0.6033 -0.9931 -0.8329
 1980SOL    HW223933   2.111   5.233  12.635  0.6530  0.1382 -0.8639
 1981SOL     OW23934   7.191   1.800   5.593 -0.1196  0.3916  0.1398
 1981SOL    HW123935   7.236   1.879   5.624  0.2390  0.2650 -0.0521
 1981SOL    HW223936   7.098   1.822   5.599 -0.0074  1.1607 -0.7662
 1982SOL     OW23937   9.015   3.800   0.468 -0.3660  0.4085 -0.3284
 1982SOL    HW123938   8.971   3.873   0.512  1.0604  1.4694 -0.5937
 1982SOL    HW223939   8.971   3.793   0.383 -0.9984  0.4574 -0.0124
 1983SOL     OW23940  11.244  11.691   8.454 -0.0944  0.0080  0.2064
 1983SOL    HW123941  11.307  11.708   8.524  0.8861 -1.8117 -0.1770
 1983SOL    HW223942  11.277  11.743   8.380  0.1253  0.2004  0.4386
 1984SOL     OW23943   3.682  12.530   3.895  0.3364  0.3254  0.6716
 1984SOL    HW123944   3.680  12.607   3.951  0.1511 -0.1710  1.3569
 1984SOL    HW223945   3.596  12.528   3.853  0.6210  0.9286  0.0352
 1985SOL     OW23946   2.505  11.858   6.570  0.2958 -0.1926 -0.3090
 1985SOL    HW123947   2.553  11.941   6.569  0.5306 -0.3251 -0.2364
 1985SOL    HW223948   2.538  11.812   6.647  0.2768 -0.4176 -0.4348
 1986SOL     OW23949  10.366  11.657   0.026 -0.8695  0.1498  0.6153
 1986SOL    HW123950  10.410  11.738   0.052 -0.4100  1.4721 -3.5853
 1986SOL    HW223951  10.273  11.678   0.032 -0.7763  0.5531  0.7034
 1987SOL     OW23952   8.466   1.291   6.383 -0.1455 -0.3286  0.0177
 1987SOL    HW123953   8.492   1.334   6.465  2.4007 -0.4028 -0.6494
 1987SOL    HW223954   8.448   1.364   6.323  0.4781 -0.2264 -0.0523
 1988SOL     OW23955  10.379   9.847   9.701  0.0496 -0.5835 -0.5747
 1988SOL    HW123956  10.349   9.910   9.767  0.3406 -1.7318  0.7089
 1988SOL    HW223957  10.298   9.816   9.660 -0.1009  0.5419 -1.1538
 1989SOL     OW23958   6.500   5.661   4.271 -0.2575 -0.8685 -1.0970
 1989SOL    HW123959   6.588   5.653   4.308 -1.3722 -0.0830  2.0278
 1989SOL    HW223960   6.498   5.747   4.229 -0.1884  0.2229  1.0168
 1990SOL     OW23961   5.827  12.348  13.650 -0.3784  0.0372  0.3951
 1990SOL    HW123962   5.921  12.334  13.640 -0.4466 -0.1191 -0.0481
 1990SOL    HW223963   5.812  12.340  13.744  0.3664  2.0846  0.7494
 1991SOL     OW23964   6.085   0.394   7.797 -0.0497 -0.5912 -0.0346
 1991SOL    HW123965   6.122   0.367   7.713 -0.5471 -1.1319 -0.0817
 1991SOL    HW223966   6.153   0.449   7.836  0.9350 -1.7643 -0.0151
 1992SOL     OW23967   7.725  11.246   8.012 -0.3996 -0.4482  0.0783
 1992SOL    HW123968   7.720  11.153   7.992  0.9916 -0.2755 -1.2237
 1992SOL    HW223969   7.819  11.264   8.020 -0.6651  0.7696  0.7177
 1993SOL     OW23970   2.039  13.821  10.207  0.1339  0.9488 -0.3899
 1993SOL    HW123971   2.102  13.879  10.248 -0.4193  1.2752  0.0096
 1993SOL    HW223972   2.007  13.870  10.131  0.6401  0.6293 -0.8142
 1994SOL     OW23973   1.999  11.610   4.467  0.0270  0.4305  0.1032
 1994SOL    HW123974   1.981  11.695   4.506 -2.8418 -0.3868  0.8274
 1994SOL    HW223975   1.947  11.549   4.519  0.2386 -1.4449 -1.7559
 1995SOL     OW23976   7.834   9.352   0.881 -0.8479 -0.3219 -0.0968
 1995SOL    HW123977   7.817   9.263   0.912  0.8904 -0.4576  0.5930
 1995SOL    HW223978   7.864   9.340   0.791  1.4446 -0.7171  0.6367
 1996SOL     OW23979   9.986   1.576   3.050  0.0090  0.1867 -0.5386
 1996SOL    HW123980  10.079   1.568   3.071  0.5971  1.0574 -2.5902
 1996SOL    HW223981   9.965   1.496   3.001  0.0497  0.6225 -1.2802
 1997SOL     OW23982  13.195  11.560   2.623 -0.2684  0.0304  0.4612
 1997SOL    HW123983  13.210  11.603   2.538 -1.4958 -1.5831 -0.6259
 1997SOL    HW223984  13.280  11.524   2.647  0.2161  0.9693  0.2119
 1998SOL     OW23985  13.621   9.473  11.038  0.6657  0.4320  0.6535
 1998SOL    HW123986  13.715   9.464  11.022  0.4225 -0.6995 -0.2437
 1998SOL    HW223987  13.594   9.387  11.069 -0.3235  0.3450 -0.4134
 1999SOL     OW23988  10.157   5.249   3.286  0.1732  0.3602  0.1806
 1999SOL    HW123989  10.200   5.197   3.218 -0.6033  0.3209 -0.3091
 1999SOL    HW223990  10.206   5.231   3.366  0.8704  0.1006 -0.2963
 2000SOL     OW23991   0.541   8.790   0.980 -0.8114  0.9319 -0.3221
 2000SOL    HW123992   0.630   8.766   1.006 -0.8570  1.1949  0.0842
 2000SOL    HW223993   0.488   8.713   1.002 -1.2635  1.9429  2.5926
 2001SOL     OW23994   7.873   9.804   4.987  0.5408  0.3311 -0.0752
 2001SOL    HW123995   7.865   9.709   4.996  2.2667  0.2313  0.8421
 2001SOL    HW223996   7.855   9.822   4.895  0.3933 -0.9080 -0.3022
 2002SOL     OW23997   5.341   1.864   8.821  0.1729  0.0260 -0.1067
 2002SOL    HW123998   5.436   1.851   8.815  0.0818 -1.0728  0.7453
 2002SOL    HW223999   5.317   1.832   8.908 -0.7689  1.7156  0.3044
 2003SOL     OW24000   3.666   9.857   2.314 -0.3102  0.2658 -0.1980
 2003SOL    HW124001   3.596   9.796   2.293 -0.7089  0.4900  0.4663
 2003SOL    HW224002   3.733   9.840   2.248  0.1043 -1.7377  0.6620
 2004SOL     OW24003  10.101  14.076  13.290  0.1296 -0.0059  0.4241
 2004SOL    HW124004  10.111  14.159  13.242 -1.1447 -0.4423 -0.6747
 2004SOL    HW224005  10.159  14.015  13.245 -0.9048 -0.3593 -0.4899
 2005SOL     OW24006   9.946   0.753   4.937 -0.4021 -0.3688  0.1623
 2005SOL    HW124007   9.921   0.702   5.014  0.4787  0.5223  1.0683
 2005SOL    HW224008  10.029   0.795   4.962 -0.4999  0.5532 -0.9880
 2006SOL     OW24009   4.511  13.584  12.987 -0.7090  0.0405 -0.1933
 2006SOL    HW124010   4.505  13.513  12.923  2.1805 -0.0345 -0.5339
 2006SOL    HW224011   4.453  13.557  13.059 -3.7954 -0.0498 -2.4944
 2007SOL     OW24012  13.642   1.066  13.761  0.8050  0.6398  0.2446
 2007SOL    HW124013  13.675   0.984  13.725  1.0879  0.0962  1.6713
 2007SOL    HW224014  13.658   1.060  13.855 -0.6265  1.6463  0.6049
 2008SOL     OW24015  11.676   8.244  11.201  0.4600  0.0666 -0.4429
 2008SOL    HW124016  11.633   8.179  11.258  1.8004 -0.3448  0.1395
 2008SOL    HW224017  11.618   8.251  11.126  0.6628 -2.4772 -0.9382
 2009SOL     OW24018   0.055   7.306   0.667  0.3538  0.2167 -0.4024
 2009SOL    HW124019   0.016   7.326   0.582 -1.5863 -2.4935 -0.2806
 2009SOL    HW224020   0.137   7.261   0.647  0.1756  0.0866 -0.8371
 2010SOL     OW24021   4.799   0.673   4.296 -0.0972  0.2531 -0.5308
 2010SOL    HW124022   4.873   0.719   4.336  0.0439 -1.0572  0.8268
 2010SOL    HW224023   4.838   0.597   4.254 -0.5912 -0.0433 -0.4616
 2011SOL     OW24024   2.687  11.779  13.916 -0.3861 -0.7832  0.4847
 2011SOL    HW124025   2.742  11.703  13.931  0.6931 -0.2383 -0.5091
 2011SOL    HW224026   2.740  11.853  13.946  0.2010 -0.0759 -2.0407
 2012SOL     OW24027   3.706  11.241   0.702 -0.4260  0.6723 -0.1481
 2012SOL    HW124028   3.726  11.204   0.615 -0.2557  0.9502 -0.2266
 2012SOL    HW224029   3.752  11.325   0.704  1.6156 -0.3892  1.1301
 2013SOL     OW24030  11.327  14.134   5.632 -0.2015 -0.5728 -0.1306
 2013SOL    HW124031  11.299  14.200   5.568 -2.7366 -1.1013  0.3365
 2013SOL    HW224032  11.360  14.185   5.706  1.2927  0.0618 -1.1791
 2014SOL     OW24033   0.234  12.018   1.073  0.2286 -0.5208 -0.6107
 2014SOL    HW124034   0.278  12.016   0.988 -1.0250 -3.2068 -1.3092
 2014SOL    HW224035   0.293  11.971   1.131  0.8543  0.8828 -0.0724
 2015SOL     OW24036   0.327   3.627   0.045  0.4721 -0.1312  0.2869
 2015SOL    HW124037   0.394   3.662  -0.014 -1.2330  2.5177 -0.2401
 2015SOL    HW224038   0.271   3.575  -0.012 -0.3321  1.2222 -0.2134
 2016SOL     OW24039   0.269   4.806   6.849 -0.0050 -0.0564 -0.0256
 2016SOL    HW124040   0.205   4.867   6.812  0.6230  0.8388  0.3283
 2016SOL    HW224041   0.270   4.826   6.943 -1.2939 -2.0378  0.4548
 2017SOL     OW24042   8.535  13.003   6.711  0.6173  0.3812 -0.5581
 2017SOL    HW124043   8.513  12.998   6.804 -1.5191  3.4208 -0.7506
 2017SOL    HW224044   8.628  13.027   6.709  1.0377 -1.0382  0.7009
 2018SOL     OW24045  12.157   4.133   4.042  0.4600 -0.2278  0.4688
 2018SOL    HW124046  12.215   4.082   3.985  0.9567  2.0693 -1.2486
 2018SOL    HW224047  12.210   4.209   4.068 -1.1158  0.9152  0.4824
 2019SOL     OW24048   4.939  13.425   4.036 -0.5462  0.3506 -0.2586
 2019SOL    HW124049   4.995  13.383   3.971 -0.3500 -1.5971  1.0908
 2019SOL    HW224050   4.993  13.493   4.075  0.4409 -0.5960  0.0687
 2020SOL     OW24051  13.634   9.257   8.310  0.3056 -0.0636 -0.1517
 2020SOL    HW124052  13.684   9.331   8.276  1.7957 -1.8735 -2.2304
 2020SOL    HW224053  13.700   9.201   8.351 -0.7747 -0.3321  1.2865
 2021SOL     OW24054   2.393   1.011  10.806  0.1555 -0.0574 -0.1916
 2021SOL    HW124055   2.354   0.923  10.806 -0.3540  0.1570  1.0504
 2021SOL    HW224056   2.476   1.000  10.851  0.6605 -0.1216 -1.1074
 2022SOL     OW24057   6.656   5.407   1.820  0.3388 -0.2660 -0.3937
 2022SOL    HW124058   6.743   5.424   1.785 -0.1817  1.6985 -0.8334
 2022SOL    HW224059   6.603   5.384   1.744  0.0414  0.4693 -0.4217
 2023SOL     OW24060   9.896  11.149   6.596 -0.4128  0.2363 -0.2855
 2023SOL    HW124061   9.895  11.236   6.636 -2.1382  0.0174  0.2185
 2023SOL    HW224062   9.940  11.162   6.512 -1.8184  1.9011 -0.8111
 2024SOL     OW24063  11.232  12.331   3.606  0.4180  0.0645 -0.5240
 2024SOL    HW124064  11.145  12.317   3.643 -0.1711  0.7075 -1.6085
 2024SOL    HW224065  11.227  12.418   3.566  2.4398  1.3843  1.8009
 2025SOL     OW24066   7.496   4.645   9.372  0.2728  0.3893 -0.3605
 2025SOL    HW124067   7.562   4.704   9.337  1.9759 -0.6374  1.0056
 2025SOL    HW224068   7.529   4.557   9.352 -1.6608 -0.1692 -1.3754
 2026SOL     OW24069  12.183   6.020   2.292 -0.3332  0.4434 -0.0636
 2026SOL    HW124070  12.269   6.061   2.280 -0.6187  0.8264 -0.8399
 2026SOL    HW224071  12.163   6.034   2.384  0.1213  0.9714 -0.0402
 2027SOL     OW24072   9.955   9.263  13.339  0.2483  0.0911  0.1920
 2027SOL    HW124073   9.941   9.188  13.397 -1.2826  2.2549  2.8787
 2027SOL    HW224074  10.026   9.312  13.380 -0.1928  1.1876 -0.3166
 2028SOL     OW24075   1.305  10.634   6.532 -0.0154 -0.0438  0.3902
 2028SOL    HW124076   1.361  10.702   6.569  0.1281 -0.2274  0.5131
 2028SOL    HW224077   1.344  10.616   6.447 -0.2782  0.2972  0.1947
 2029SOL     OW24078  11.245   9.921   0.482  0.4734 -0.3273 -0.2373
 2029SOL    HW124079  11.340   9.932   0.479  0.3818  1.3075  0.9924
 2029SOL    HW224080  11.227   9.846   0.427  2.5716 -1.1999  0.1782
 2030SOL     OW24081   3.342   8.516   1.393 -0.1242 -0.2492 -0.2370
 2030SOL    HW124082   3.353   8.518   1.298 -0.0564 -0.5910 -0.2383
 2030SOL    HW224083   3.303   8.601   1.415 -2.5265 -1.1352 -0.8621
 2031SOL     OW24084   9.333   1.104  11.002 -0.3323 -0.1986  0.8110
 2031SOL    HW124085   9.267   1.057  10.951  0.2648 -0.3442  0.1433
 2031SOL    HW224086   9.382   1.035  11.046  1.2277 -0.3459 -1.0021
 2032SOL     OW24087   1.356   2.206  12.266 -0.1406 -0.4091  0.1414
 2032SOL    HW124088   1.367   2.182  12.174  0.5142  0.7811 -0.1117
 2032SOL    HW224089   1.387   2.130  12.315  1.2309 -0.3669 -0.6169
 2033SOL     OW24090  12.543   7.115   3.645 -0.8339 -0.0291 -0.1160
 2033SOL    HW124091  12.561   7.137   3.737 -1.6736 -0.0403  0.0669
 2033SOL    HW224092  12.606   7.167   3.595 -0.9507  0.6715  0.4385
 2034SOL     OW24093   6.482  11.191   0.729  0.0563  0.1652  0.4397
 2034SOL    HW124094   6.392  11.179   0.761 -1.0146 -0.6244 -2.5145
 2034SOL    HW224095   6.524  11.107   0.744 -0.3830 -0.1502 -0.0514
 2035SOL     OW24096   7.842   4.047   1.662 -0.2240  0.0702 -0.6183
 2035SOL    HW124097   7.862   3.993   1.739  1.6721  0.6927 -0.6280
 2035SOL    HW224098   7.747   4.055   1.663 -0.2058  1.8344  2.9253
 2036SOL     OW24099   2.145   7.734   8.790  0.3160  0.0686 -0.3310
 2036SOL    HW124100   2.207   7.785   8.842  3.1669 -3.0813 -0.2486
 2036SOL    HW224101   2.191   7.717   8.708  0.5615 -3.8711  0.3949
 2037SOL     OW24102   9.258   7.607  13.232  0.2140 -0.8409 -0.5307
 2037SOL    HW124103   9.255   7.516  13.262  2.3654 -0.8832 -0.2619
 2037SOL    HW224104   9.245   7.659  13.311  1.5361 -0.9526 -0.2131
 2038SOL     OW24105   3.197   1.077   1.144 -0.3183 -0.0969  0.2703
 2038SOL    HW124106   3.220   1.136   1.072  1.4034 -1.5100 -0.4323
 2038SOL    HW224107   3.105   1.056   1.129 -0.5710  1.2534 -0.2797
 2039SOL     OW24108   5.101   1.281  12.526  0.0455  0.7221 -0.3725
 2039SOL    HW124109   5.186   1.252  12.495 -0.1068  0.5894 -0.6725
 2039SOL    HW224110   5.119   1.360  12.577  0.5440 -0.2544  1.0354
 2040SOL     OW24111  10.344  11.799   3.945  0.6058  0.2650 -0.0787
 2040SOL    HW124112  10.434  11.783   3.972  0.8193  0.9805 -0.3584
 2040SOL    HW224113  10.298  11.822   4.027  1.0721  1.6311 -0.1706
 2041SOL     OW24114   1.775  10.350   3.228 -0.2346 -0.1471  0.0337
 2041SOL    HW124115   1.728  10.281   3.181  0.0214  0.6064 -1.4035
 2041SOL    HW224116   1.813  10.306   3.304 -0.6019 -1.4454 -0.5070
 2042SOL     OW24117   5.254  12.224   6.813 -0.1858 -0.0021 -0.6492
 2042SOL    HW124118   5.223  12.138   6.786 -2.7848  0.5597  0.2144
 2042SOL    HW224119   5.216  12.237   6.900  1.3374  1.4480 -0.1555
 2043SOL     OW24120   1.731  13.284   1.932 -0.0754  0.3481  0.0579
 2043SOL    HW124121   1.746  13.273   2.026 -1.8331  0.0259  0.3446
 2043SOL    HW224122   1.776  13.210   1.892  2.1105  1.3953  0.4507
 2044SOL     OW24123   8.684   1.868   6.374 -0.2225  0.3398  0.1882
 2044SOL    HW124124   8.701   1.889   6.282  0.5002  1.1533  0.4962
 2044SOL    HW224125   8.770   1.844   6.409 -0.3565  0.8067  0.8457
 2045SOL     OW24126   6.455   2.468   4.461  0.1852 -0.1838  0.0757
 2045SOL    HW124127   6.475   2.531   4.530  1.2041 -0.8012  0.3687
 2045SOL    HW224128   6.378   2.503   4.417  0.4479  1.0112  0.5421
 2046SOL     OW24129  11.936   1.604   4.245  0.1750 -0.6007  0.1686
 2046SOL    HW124130  11.974   1.555   4.318  1.8002 -0.2706 -0.4121
 2046SOL    HW224131  11.856   1.556   4.223  0.1542 -1.2488  1.5309
 2047SOL     OW24132   8.302   5.974   6.946 -0.3701 -0.7888  0.1271
 2047SOL    HW124133   8.266   6.024   7.020 -2.1700 -0.6177 -0.8069
 2047SOL    HW224134   8.345   6.040   6.892 -0.7539 -0.5994  0.0464
 2048SOL     OW24135   7.322  10.149   3.649 -0.2199 -0.1622  0.0010
 2048SOL    HW124136   7.254  10.181   3.588  0.1022 -0.8189 -0.7187
 2048SOL    HW224137   7.377  10.093   3.595  0.2191 -0.5614  0.8584
 2049SOL     OW24138   6.344  10.989   9.921  0.2384  0.1254  0.1504
 2049SOL    HW124139   6.282  11.053   9.887 -0.0721  0.4965  1.3610
 2049SOL    HW224140   6.430  11.028   9.905  0.0394  1.1299  1.3754
 2050SOL     OW24141  12.586   1.703   8.099 -0.0232 -0.1209 -0.2481
 2050SOL    HW124142  12.628   1.617   8.101  0.9997  0.3587  1.7698
 2050SOL    HW224143  12.495   1.686   8.124 -0.3280 -0.8000 -1.6908
 2051SOL     OW24144  10.485   7.841   3.749  0.1105  0.1177 -0.1037
 2051SOL    HW124145  10.489   7.747   3.733 -0.2604  0.0784  0.0350
 2051SOL    HW224146  10.566   7.875   3.711  0.5611 -0.3415  0.4319
 2052SOL     OW24147  11.449   2.914   8.507  0.5006 -0.3266 -0.4281
 2052SOL    HW124148  11.444   2.935   8.414  1.7261  1.1050 -0.1964
 2052SOL    HW224149  11.513   2.976   8.543  0.7655 -1.4726  1.1922
 2053SOL     OW24150   0.425   8.495   4.709 -0.5479 -0.1182  0.2947
 2053SOL    HW124151   0.447   8.472   4.618 -0.8051  0.2185  0.1472
 2053SOL    HW224152   0.333   8.473   4.718 -1.3420  2.5385 -0.4230
 2054SOL     OW24153   4.540   2.126   7.765 -0.0980 -0.9481  0.0555
 2054SOL    HW124154   4.582   2.205   7.732 -0.1183 -0.9249  0.0843
 2054SOL    HW224155   4.581   2.110   7.850  0.0653 -1.0977 -0.0509
 2055SOL     OW24156  13.244   6.199  13.813 -0.3972 -0.0887 -0.2846
 2055SOL    HW124157  13.318   6.149  13.780 -1.4130 -2.5200  0.8899
 2055SOL    HW224158  13.279   6.246  13.889 -0.0046 -1.0935  0.1713
 2056SOL     OW24159  10.651   9.004  13.209 -0.6694 -0.1530  0.0224
 2056SOL    HW124160  10.623   8.954  13.286  1.7138 -0.7493  0.5893
 2056SOL    HW224161  10.682   9.087  13.245  1.3364 -0.7914 -0.1079
 2057SOL     OW24162   5.630   1.328   2.844 -0.2479  0.2900 -0.4133
 2057SOL    HW124163   5.676   1.306   2.925 -1.9832  1.6466  1.0228
 2057SOL    HW224164   5.540   1.302   2.860 -0.6719  0.7699 -1.8463
 2058SOL     OW24165   7.518   5.988   9.775 -0.0402 -0.1796  0.3880
 2058SOL    HW124166   7.503   6.082   9.785 -1.3890 -0.3551  0.2590
 2058SOL    HW224167   7.500   5.971   9.682  1.9818 -0.2900 -0.0231
 2059SOL     OW24168  12.958   1.588   0.676 -0.3246 -0.3236  0.0118
 2059SOL    HW124169  12.906   1.600   0.756  0.3078  1.4493  0.2076
 2059SOL    HW224170  13.048   1.602   0.704 -0.1252  0.7459 -1.0610
 2060SOL     OW24171   2.339  14.053  11.647  0.0474 -0.2463  0.7696
 2060SOL    HW124172   2.355  14.125  11.586  2.8229 -0.0389  1.5810
 2060SOL    HW224173   2.313  13.980  11.591 -1.0506  0.8686 -0.2529
 2061SOL     OW24174  12.963   3.312   3.577  0.8120 -0.4045 -0.2985
 2061SOL    HW124175  13.053   3.335   3.597  1.5369 -0.6343 -2.9822
 2061SOL    HW224176  12.935   3.378   3.513 -0.1505 -1.6430 -1.2012
 2062SOL     OW24177   2.790  13.835   6.829  0.6659 -0.2514  0.0925
 2062SOL    HW124178   2.814  13.927   6.817 -0.4380 -0.0125 -0.3675
 2062SOL    HW224179   2.835  13.810   6.910  1.3178  0.5635  0.0035
 2063SOL     OW24180  13.769   6.473   9.550  0.1503 -0.2323 -0.3199
 2063SOL    HW124181  13.822   6.550   9.572 -2.1700  1.1708  0.6955
 2063SOL    HW224182  13.709   6.504   9.482 -1.4772 -0.8095  0.7911
 2064SOL     OW24183  13.839   0.141  13.510  0.5466 -0.2312 -0.0678
 2064SOL    HW124184  13.874   0.065  13.464 -1.1931 -1.3629  0.3700
 2064SOL    HW224185  13.773   0.177  13.450 -0.1378 -0.3627  0.5928
 2065SOL     OW24186   6.458   1.465  13.561 -0.4103 -0.1169  0.4074
 2065SOL    HW124187   6.363   1.469  13.555 -0.3168  1.8954 -0.6116
 2065SOL    HW224188   6.489   1.497  13.477  1.1524  0.9466  1.3230
 2066SOL     OW24189   5.291  10.737  10.178 -0.2986  0.0814 -0.1575
 2066SOL    HW124190   5.251  10.707  10.260 -2.4552  2.3967 -0.2206
 2066SOL    HW224191   5.372  10.780  10.205 -1.4123  1.6126  0.9782
 2067SOL     OW24192   9.573  13.776   2.119  0.6782 -0.1284  0.6233
 2067SOL    HW124193   9.618  13.836   2.060 -1.1477 -0.0122 -0.7751
 2067SOL    HW224194   9.553  13.828   2.197  2.3462 -0.0243  1.0024
 2068SOL     OW24195   0.838   0.435   2.367  0.4120  0.3417 -0.3261
 2068SOL    HW124196   0.847   0.420   2.272 -0.5666 -1.1980 -0.2256
 2068SOL    HW224197   0.920   0.402   2.404  0.0743 -0.7594 -0.5129
 2069SOL     OW24198  10.790   9.174   8.519  0.1489  0.1215 -0.0862
 2069SOL    HW124199  10.787   9.079   8.521  1.1896  0.0461 -1.0243
 2069SOL    HW224200  10.785   9.201   8.611  1.1561 -0.8878  0.2791
 2070SOL     OW24201   5.077  11.167   1.797 -0.2296 -0.4089  0.2172
 2070SOL    HW124202   5.094  11.089   1.745  0.0018  0.5473 -1.2131
 2070SOL    HW224203   5.162  11.191   1.833  0.5842  1.3355 -2.5535
 2071SOL     OW24204   8.522   5.369   7.650  0.2939  0.4739 -0.0048
 2071SOL    HW124205   8.553   5.414   7.728  2.2121 -0.9891  0.1510
 2071SOL    HW224206   8.497   5.281   7.681 -1.1071  0.6011 -0.6831
 2072SOL     OW24207   9.555   9.608   0.844  0.1666  0.6328  0.2061
 2072SOL    HW124208   9.632   9.638   0.796 -0.8265  1.4283 -0.9470
 2072SOL    HW224209   9.489   9.675   0.827 -0.7945 -0.0593  1.1280
 2073SOL     OW24210  11.247   0.285   6.944  0.2728  0.0299  0.8556
 2073SOL    HW124211  11.280   0.297   6.855  0.9363  0.0532  1.0950
 2073SOL    HW224212  11.242   0.191   6.955  1.9180 -0.0352  1.3831
 2074SOL     OW24213   4.538   6.713  11.577 -0.5273  0.0270  0.0681
 2074SOL    HW124214   4.613   6.742  11.628 -0.2250 -1.4646  0.5389
 2074SOL    HW224215   4.481   6.789  11.571  0.8535  1.0844  0.0068
 2075SOL     OW24216   7.171   2.199  13.466  0.1252  0.3951  0.6174
 2075SOL    HW124217   7.078   2.211  13.445 -0.2817 -0.7895  1.6061
 2075SOL    HW224218   7.197   2.283  13.505  0.1642  1.6127 -1.8076
 2076SOL     OW24219   4.957   3.220   9.732  0.2148  0.1822 -0.1821
 2076SOL    HW124220   4.942   3.127   9.752 -2.0902  0.6022  0.2366
 2076SOL    HW224221   5.050   3.233   9.753  0.3195 -1.7479  0.8636
 2077SOL     OW24222  13.302   9.580  13.420  0.0704  0.4810  0.1685
 2077SOL    HW124223  13.260   9.602  13.503 -0.7751  1.2845 -0.4498
 2077SOL    HW224224  13.395   9.576  13.440 -0.2641 -4.1136  2.2511
 2078SOL     OW24225   1.937   8.096   7.993 -0.4170  0.3177  0.6010
 2078SOL    HW124226   1.893   8.106   7.909 -0.7323  0.7389  0.8106
 2078SOL    HW224227   1.867   8.077   8.056 -0.3479  1.1897  0.9687
 2079SOL     OW24228   0.692  13.743  12.662  0.1954  0.3465 -0.6301
 2079SOL    HW124229   0.758  13.688  12.706 -0.8079  0.3949  1.0104
 2079SOL    HW224230   0.609  13.697  12.677 -0.4491  1.4815 -0.6278
 2080SOL     OW24231   4.517   2.932  11.131  0.2317  0.0491  0.3819
 2080SOL    HW124232   4.492   2.909  11.041  1.1388  1.8111 -0.3828
 2080SOL    HW224233   4.612   2.943  11.127  0.2956  0.0658  1.5917
 2081SOL     OW24234   4.375   6.318   3.058 -0.4072  0.1162  0.5039
 2081SOL    HW124235   4.311   6.353   3.120  0.5020  0.4530  1.2749
 2081SOL    HW224236   4.454   6.306   3.110  0.0444 -0.6800 -0.3402
 2082SOL     OW24237   7.364   3.076   3.848 -1.0073 -0.4928  0.1715
 2082SOL    HW124238   7.384   2.988   3.816 -1.8526 -0.4722 -0.4671
 2082SOL    HW224239   7.449   3.117   3.861 -0.4645 -2.1496  2.7391
 2083SOL     OW24240   0.932   9.430   0.727 -0.1302  0.1642  0.5310
 2083SOL    HW124241   1.016   9.453   0.767  0.1227  0.2284 -0.0192
 2083SOL    HW224242   0.956   9.394   0.641 -0.6089 -0.7229  0.7574
 2084SOL     OW24243   4.097   2.432  12.481 -0.1212  0.3580 -0.3506
 2084SOL    HW124244   4.167   2.416  12.419 -1.5013  1.5463 -2.3343
 2084SOL    HW224245   4.063   2.345  12.502  0.4994 -0.0779 -1.1113
 2085SOL     OW24246   0.781  12.791  11.050  0.2716 -0.4378 -0.4769
 2085SOL    HW124247   0.804  12.884  11.044  0.1229 -0.3889 -0.2954
 2085SOL    HW224248   0.794  12.769  11.142 -0.3643 -0.4156 -0.3741
 2086SOL     OW24249   8.560   2.004   9.578 -0.5913 -0.6146  0.5827
 2086SOL    HW124250   8.570   1.941   9.649  1.1758 -2.3594 -1.0837
 2086SOL    HW224251   8.470   1.991   9.548 -1.7772  0.9681  3.1020
 2087SOL     OW24252  10.736  10.826   5.857 -0.1125 -0.1385  0.4149
 2087SOL    HW124253  10.695  10.763   5.916 -1.2408  0.9433  0.8205
 2087SOL    HW224254  10.671  10.895   5.847  1.0747  0.9391 -0.0616
 2088SOL     OW24255   5.090  11.749  11.367 -0.2896  0.0894 -0.4751
 2088SOL    HW124256   5.167  11.693  11.380 -2.0440 -2.8984 -1.8248
 2088SOL    HW224257   5.043  11.744  11.450 -1.2674 -1.9977 -1.0797
 2089SOL     OW24258   9.788   7.789   9.813  0.6239 -0.5131 -0.1626
 2089SOL    HW124259   9.735   7.710   9.812  0.1715 -0.2653  1.4239
 2089SOL    HW224260   9.836   7.785   9.895 -0.1006  1.2901  0.3972
 2090SOL     OW24261   4.275  13.644  11.995  0.1088 -0.3848  0.0706
 2090SOL    HW124262   4.203  13.583  12.008 -0.3465  0.2367  0.5376
 2090SOL    HW224263   4.354  13.594  12.017 -0.2894 -0.6771  0.8437
 2091SOL     OW24264  12.857  13.526   1.227  0.2235  0.2373 -0.1629
 2091SOL    HW124265  12.880  13.596   1.289 -0.3072  1.9049 -1.7856
 2091SOL    HW224266  12.767  13.502   1.251 -0.0128  0.9372 -0.3079
 2092SOL     OW24267   1.049   4.640   8.971  0.6727 -0.0077 -0.4165
 2092SOL    HW124268   1.003   4.610   9.049  1.8440 -0.5387  0.1049
 2092SOL    HW224269   1.039   4.735   8.972  0.1981 -0.0613  0.0636
 2093SOL     OW24270  11.607   4.497  11.775 -0.1182 -0.5574 -0.5802
 2093SOL    HW124271  11.650   4.540  11.701 -0.2187  0.3492 -0.1258
 2093SOL    HW224272  11.547   4.434  11.735 -0.2173 -0.0294 -1.2723
 2094SOL     OW24273   1.598  13.513   3.817 -0.2492  0.0305  0.8622
 2094SOL    HW124274   1.684  13.555   3.815  0.4449 -1.3324  0.5522
 2094SOL    HW224275   1.535  13.585   3.810  0.8090  1.1942  2.6461
 2095SOL     OW24276   6.222   0.556   1.093 -0.3798 -0.7428  0.1280
 2095SOL    HW124277   6.196   0.565   1.002 -2.6660 -1.6998  0.6256
 2095SOL    HW224278   6.141   0.538   1.140  0.6478  0.2350  2.4515
 2096SOL     OW24279  14.040   7.041   1.674  0.8278  0.1302 -0.1870
 2096SOL    HW124280  14.100   7.017   1.746 -0.4975  1.5852  1.4951
 2096SOL    HW224281  13.967   6.979   1.682 -0.5981  1.9112  1.5089
 2097SOL     OW24282  10.598   0.976  13.211 -0.4087 -0.3653  0.2668
 2097SOL    HW124283  10.517   1.017  13.240 -0.3110  1.1021 -1.3668
 2097SOL    HW224284  10.572   0.926  13.133  0.4320  1.2225 -1.0899
 2098SOL     OW24285  10.383   1.271  11.974 -0.1657  0.1124  0.2112
 2098SOL    HW124286  10.365   1.183  12.009 -0.9550  0.3681  0.4719
 2098SOL    HW224287  10.328   1.329  12.026  0.1596  0.7376 -0.1301
 2099SOL     OW24288   6.186   5.706  10.064  0.1443  1.0324 -0.5000
 2099SOL    HW124289   6.097   5.675  10.045  0.5495  0.0691 -0.9126
 2099SOL    HW224290   6.226   5.635  10.114  1.8562 -0.2508 -3.4434
 2100SOL     OW24291   5.480   6.237  10.584  0.0301  0.0916 -0.6621
 2100SOL    HW124292   5.524   6.190  10.514 -0.0853 -0.1872 -0.5472
 2100SOL    HW224293   5.551   6.269  10.640  0.0531 -1.6424  0.3623
 2101SOL     OW24294   2.338  13.455   7.777 -0.3642  0.3044  0.2113
 2101SOL    HW124295   2.372  13.447   7.867  1.3079  1.7280 -0.2447
 2101SOL    HW224296   2.332  13.364   7.746  2.0444 -0.1051  0.7270
 2102SOL     OW24297   8.924   4.908   6.525  0.0882 -0.2018  0.5252
 2102SOL    HW124298   8.851   4.940   6.578 -0.0871 -2.0986  1.5025
 2102SOL    HW224299   8.906   4.942   6.438 -1.2647  0.4725  1.0311
 2103SOL     OW24300   1.659   7.060   5.515 -0.3099 -0.1684 -0.6222
 2103SOL    HW124301   1.701   7.140   5.547 -0.8366 -0.5598  1.1280
 2103SOL    HW224302   1.590   7.041   5.579 -0.0627 -2.1519 -0.8828
 2104SOL     OW24303  11.245   8.955   2.374 -0.7763  0.3394 -0.0860
 2104SOL    HW124304  11.220   8.862   2.370  0.4671 -0.0025 -0.2905
 2104SOL    HW224305  11.179   8.994   2.431 -2.5485 -0.2285 -1.6290
 2105SOL     OW24306   6.407   0.055   6.087  0.7883 -0.1189 -0.6329
 2105SOL    HW124307   6.333   0.013   6.043  0.1241 -1.4321  1.5842
 2105SOL    HW224308   6.470  -0.015   6.102 -0.0325 -0.3530  2.5132
 2106SOL     OW24309   0.267   8.774   2.847 -0.1529  0.7902  0.4651
 2106SOL    HW124310   0.286   8.681   2.846 -1.3985  0.4659  2.1317
 2106SOL    HW224311   0.350   8.816   2.868  0.0731 -0.0867  1.3878
 2107SOL     OW24312  10.527   3.026   6.819  0.5664  0.2220  0.2286
 2107SOL    HW124313  10.477   3.095   6.863  0.9091  0.0597  0.8917
 2107SOL    HW224314  10.618   3.057   6.822  0.6415  0.0327 -0.0381
 2108SOL     OW24315  12.123   0.764  13.468  0.2954 -0.4115 -0.0778
 2108SOL    HW124316  12.056   0.822  13.504 -0.0777 -2.0659  2.1266
 2108SOL    HW224317  12.194   0.767  13.532  1.2012 -0.7391 -1.0342
 2109SOL     OW24318  10.791   2.810   3.928  0.3058 -0.2248  0.3507
 2109SOL    HW124319  10.850   2.821   4.002  0.0629  1.0783  0.3779
 2109SOL    HW224320  10.729   2.883   3.935  0.5658  0.2227 -1.3963
 2110SOL     OW24321   7.596   2.120   1.132  0.5677 -0.1617  0.3983
 2110SOL    HW124322   7.654   2.052   1.166 -0.0903 -0.5445  0.7605
 2110SOL    HW224323   7.647   2.162   1.062  0.7366 -1.4363 -0.2647
 2111SOL     OW24324   4.342   7.635   9.889  0.0290  0.9714  0.2162
 2111SOL    HW124325   4.289   7.561   9.919  1.8491 -0.6814 -0.4162
 2111SOL    HW224326   4.429   7.597   9.873  0.6570  2.9710 -1.5137
 2112SOL     OW24327   9.446   2.956  13.172 -0.3078  0.1075 -0.2355
 2112SOL    HW124328   9.501   2.879  13.182  0.3627  0.1798 -2.6381
 2112SOL    HW224329   9.356   2.923  13.175 -0.0487 -0.5606  0.1682
 2113SOL     OW24330   4.199   7.624  10.755  0.0418  0.4339 -0.5994
 2113SOL    HW124331   4.104   7.623  10.756  0.0212  1.5143 -0.7100
 2113SOL    HW224332   4.224   7.532  10.745 -0.9585 -0.0015  0.6355
 2114SOL     OW24333   1.298  12.653  10.720  0.3988 -0.0609 -0.0421
 2114SOL    HW124334   1.337  12.672  10.805  1.4696 -0.9026 -0.3170
 2114SOL    HW224335   1.318  12.560  10.705  0.3147  0.1013 -1.2509
 2115SOL     OW24336   9.784  11.460   8.494  0.0341  0.8744 -0.0269
 2115SOL    HW124337   9.871  11.444   8.457 -0.2580  2.7118 -1.6740
 2115SOL    HW224338   9.798  11.462   8.589  2.1532  2.9503 -0.2931
 2116SOL     OW24339  12.955   4.720  12.314  0.0583 -0.3262  0.4012
 2116SOL    HW124340  12.955   4.784  12.243 -1.4204 -0.0282  0.6459
 2116SOL    HW224341  13.033   4.667  12.298 -1.0283 -1.2594 -2.3446
 2117SOL     OW24342   9.347   9.632   8.818 -0.6184  0.1157  0.3763
 2117SOL    HW124343   9.429   9.614   8.770  0.2739 -1.9648  2.5056
 2117SOL    HW224344   9.278   9.601   8.759  0.1928  0.5384 -0.8438
 2118SOL     OW24345  14.142   9.320   0.242  0.3958  0.1970  0.5065
 2118SOL    HW124346  14.115   9.396   0.191 -0.2991 -0.3816 -0.0130
 2118SOL    HW224347  14.173   9.257   0.177  3.7389  1.0458  1.1028
 2119SOL     OW24348   0.206   2.576   7.097 -0.0789  0.0747 -0.2046
 2119SOL    HW124349   0.149   2.629   7.152 -1.5325 -0.5092 -1.0813
 2119SOL    HW224350   0.190   2.486   7.125 -0.3466 -0.1731 -1.1103
 2120SOL     OW24351  10.804   5.820  11.991 -0.4958 -0.0360  0.4414
 2120SOL    HW124352  10.781   5.731  11.961 -0.4922  0.4403 -1.0616
 2120SOL    HW224353  10.735   5.876  11.955  0.0757  0.7109  0.4935
 2121SOL     OW24354   3.212  11.846  12.778 -0.3206  0.0438  0.3026
 2121SOL    HW124355   3.256  11.889  12.704  2.1463 -0.1149  1.5745
 2121SOL    HW224356   3.225  11.753  12.762  0.2982  0.0105  0.9512
 2122SOL     OW24357   6.042   6.624   7.717 -0.0561 -0.0200  0.3631
 2122SOL    HW124358   6.057   6.719   7.717 -0.3116  0.0674 -1.8947
 2122SOL    HW224359   6.129   6.586   7.705 -0.0152 -0.0618  0.7769
 2123SOL     OW24360  11.609   1.100  10.307  0.3040 -0.5879 -0.5084
 2123SOL    HW124361  11.623   1.008  10.330 -0.4836 -0.6722 -0.3450
 2123SOL    HW224362  11.516   1.115  10.321 -0.1301 -0.4772 -3.0492
 2124SOL     OW24363  13.515  10.291  13.389  0.1808 -0.0101  0.5285
 2124SOL    HW124364  13.598  10.310  13.346 -0.0750  0.5391  0.2692
 2124SOL    HW224365  13.536  10.224  13.454  0.4429 -1.3703 -0.9166
 2125SOL     OW24366   7.694  13.837  10.078 -0.4222  0.4711 -0.6243
 2125SOL    HW124367   7.778  13.791  10.076 -0.2048  0.7148  1.1738
 2125SOL    HW224368   7.696  13.894  10.001  1.3916  1.0135 -0.2351
 2126SOL     OW24369  11.306   3.420  11.606 -0.1482  0.2329  0.4223
 2126SOL    HW124370  11.286   3.371  11.685 -0.3002 -0.6963 -0.1729
 2126SOL    HW224371  11.321   3.353  11.539  2.1058  0.9371  0.1365
 2127SOL     OW24372  11.296   6.175   0.861  0.0970  0.2031  0.8240
 2127SOL    HW124373  11.260   6.237   0.798 -2.4260 -0.4156  1.5134
 2127SOL    HW224374  11.375   6.141   0.820 -1.3427 -0.0629 -1.9590
 2128SOL     OW24375   1.521  10.624  13.905  0.1902 -0.0817 -0.2668
 2128SOL    HW124376   1.480  10.587  13.983  0.5817 -1.7222 -0.8013
 2128SOL    HW224377   1.612  10.639  13.930  0.2366 -0.2922 -0.3107
 2129SOL     OW24378   4.574   2.961  12.581 -0.4371 -0.4856  0.2859
 2129SOL    HW124379   4.633   3.027  12.617 -1.6781  0.1309  1.2598
 2129SOL    HW224380   4.577   2.889  12.646 -1.4856 -0.0326  0.8560
 2130SOL     OW24381   2.505  10.003  10.592  0.0885  0.0885  0.4555
 2130SOL    HW124382   2.593  10.007  10.631 -0.7158 -2.7092  2.9630
 2130SOL    HW224383   2.516   9.948  10.514  0.5950 -0.1420  0.6837
 2131SOL     OW24384  10.291   1.506   4.954  0.2815 -0.2175  0.0921
 2131SOL    HW124385  10.241   1.576   4.912  0.0995  0.2345  1.0484
 2131SOL    HW224386  10.353   1.551   5.011  0.0120 -0.8381  0.8902
 2132SOL     OW24387   0.554   3.102   2.104 -0.2360 -0.1551 -0.1123
 2132SOL    HW124388   0.575   3.054   2.184 -0.3293  1.1674  0.7460
 2132SOL    HW224389   0.638   3.140   2.077 -0.4562  0.5122  0.1340
 2133SOL     OW24390   3.949  10.271   5.608 -0.0079 -0.3728  0.0030
 2133SOL    HW124391   4.026  10.293   5.661  1.6111 -1.2172 -1.8584
 2133SOL    HW224392   3.897  10.351   5.607  2.2956  1.2213 -0.9893
 2134SOL     OW24393   8.469   4.467   5.680 -0.3516  0.6235 -0.3227
 2134SOL    HW124394   8.557   4.441   5.655 -0.5302  0.2854 -0.6042
 2134SOL    HW224395   8.477   4.497   5.771  0.2173  1.4235 -0.6305
 2135SOL     OW24396   2.377   9.298   4.755 -0.6401  0.5808 -0.3670
 2135SOL    HW124397   2.410   9.380   4.792 -1.4316  0.2241  1.2347
 2135SOL    HW224398   2.323   9.325   4.681 -0.4830  1.4747 -0.1636
 2136SOL     OW24399  13.717   7.845   2.081  0.0638 -0.4750 -0.4164
 2136SOL    HW124400  13.643   7.797   2.119  0.1436 -0.8877 -0.7672
 2136SOL    HW224401  13.782   7.776   2.061  0.8162 -0.0534  0.5018
 2137SOL     OW24402   5.015   5.406  10.071 -0.3662  0.5023  0.3589
 2137SOL    HW124403   4.946   5.471  10.060 -0.1163  1.3804  3.1709
 2137SOL    HW224404   4.975   5.336  10.122 -0.4091 -1.3079 -1.9779
 2138SOL     OW24405  13.383   6.587   3.148 -0.7034  0.2837  0.0751
 2138SOL    HW124406  13.419   6.595   3.060 -0.7901 -1.3060 -0.1286
 2138SOL    HW224407  13.330   6.508   3.146 -0.1753 -0.1753  1.7276
 2139SOL     OW24408   8.664   6.650   4.366  0.4676 -0.0893  0.1161
 2139SOL    HW124409   8.586   6.647   4.422  0.6239 -1.4157  0.2891
 2139SOL    HW224410   8.736   6.670   4.427  0.4371 -0.1473  0.1725
 2140SOL     OW24411   7.919   0.475   0.360  1.0751  0.8756 -0.1487
 2140SOL    HW124412   7.976   0.442   0.430 -1.7571 -0.3277  1.7563
 2140SOL    HW224413   7.892   0.397   0.312 -0.9823  1.0752  0.6254
 2141SOL     OW24414   7.803  11.431   0.689  0.0197  0.2987 -0.0241
 2141SOL    HW124415   7.835  11.352   0.732 -1.5806 -0.5815 -0.3654
 2141SOL    HW224416   7.787  11.493   0.761  1.6246  0.4826  0.2134
 2142SOL     OW24417   9.985   4.678  12.708  0.7451 -0.1607  0.7635
 2142SOL    HW124418  10.053   4.705  12.646 -0.7512 -0.6135 -1.1699
 2142SOL    HW224419   9.946   4.760  12.738  1.6795  0.0742  1.3848
 2143SOL     OW24420  14.134   0.148   2.616  0.8385  0.2460  0.2944
 2143SOL    HW124421  14.187   0.079   2.576 -0.3765 -0.3575 -0.3275
 2143SOL    HW224422  14.066   0.101   2.664  1.0919  0.9981  1.4337
 2144SOL     OW24423  11.371   4.141   7.958 -0.1742 -0.3221 -0.0289
 2144SOL    HW124424  11.382   4.062   7.906  1.4712  0.1518 -0.4576
 2144SOL    HW224425  11.351   4.110   8.046 -0.6288 -1.1778 -0.4311
 2145SOL     OW24426  11.416   5.726   7.281 -0.1023 -0.3924  0.3141
 2145SOL    HW124427  11.350   5.774   7.231 -0.6960 -0.3590  1.1098
 2145SOL    HW224428  11.495   5.733   7.228 -0.1243  1.6115  0.4725
 2146SOL     OW24429  12.855   7.036   6.714  0.4016  0.0094 -0.4999
 2146SOL    HW124430  12.811   7.072   6.637  0.7650  1.9409  0.1330
 2146SOL    HW224431  12.934   6.993   6.680  1.3436  2.1277 -1.1364
 2147SOL     OW24432   5.457  11.686   1.011  0.7793 -0.4923  0.0399
 2147SOL    HW124433   5.494  11.766   0.974  1.0329 -0.2282  0.8384
 2147SOL    HW224434   5.507  11.615   0.971  1.6031 -0.1731  0.4861
 2148SOL     OW24435  12.058  12.943   9.290 -0.4167  0.4456  0.4287
 2148SOL    HW124436  12.143  12.904   9.269 -0.5068  0.4685  0.0127
 2148SOL    HW224437  12.015  12.953   9.205 -0.4684  1.2851  0.5492
 2149SOL     OW24438  11.974  10.242  12.129 -0.3720  0.3601 -0.0958
 2149SOL    HW124439  11.961  10.296  12.051  1.6885  2.4057  0.8660
 2149SOL    HW224440  11.958  10.301  12.203  1.9768 -0.2644  1.0132
 2150SOL     OW24441   2.613   1.104  13.639 -0.2992  0.4494 -0.2516
 2150SOL    HW124442   2.543   1.127  13.578  1.3060  4.4434 -0.9167
 2150SOL    HW224443   2.683   1.069  13.584 -1.0897 -2.0670  0.2270
 2151SOL     OW24444   5.282   3.459   7.689 -0.5081  0.2681 -0.2403
 2151SOL    HW124445   5.244   3.537   7.730  0.6174 -0.3270  2.1635
 2151SOL    HW224446   5.377   3.472   7.698 -0.3046 -1.4230  0.3594
 2152SOL     OW24447  13.975   5.028   6.218 -0.0545 -0.1451 -0.3188
 2152SOL    HW124448  14.001   4.937   6.208  0.0936  0.0963 -3.0496
 2152SOL    HW224449  14.050   5.078   6.185  0.1069  1.0321  1.6752
 2153SOL     OW24450   6.037   4.884   9.557 -0.7062 -0.1209 -0.0413
 2153SOL    HW124451   5.996   4.955   9.608 -0.5440  0.9625 -1.3526
 2153SOL    HW224452   6.126   4.878   9.591 -0.2338  1.3898 -0.9268
 2154SOL     OW24453   6.090   6.400   5.993 -0.0800  0.2616  0.0210
 2154SOL    HW124454   6.085   6.495   5.989 -0.2411  0.2632  0.2184
 2154SOL    HW224455   6.184   6.381   5.997 -0.0504  0.4162  0.0729
 2155SOL     OW24456  13.866   0.819  10.934 -0.4674  0.3365  0.3013
 2155SOL    HW124457  13.904   0.905  10.914  0.4735 -0.0737  0.2977
 2155SOL    HW224458  13.941   0.764  10.956 -0.6465 -1.3921 -2.8630
 2156SOL     OW24459   7.851  10.198   9.713 -0.1091 -0.1660  0.1899
 2156SOL    HW124460   7.797  10.161   9.783 -2.0524  0.6401 -0.8001
 2156SOL    HW224461   7.792  10.204   9.638  1.2649  1.1584 -0.8463
 2157SOL     OW24462   0.709   4.542   6.635 -0.0574  0.4525 -0.4934
 2157SOL    HW124463   0.651   4.547   6.711  0.6402 -1.2203  0.2068
 2157SOL    HW224464   0.687   4.619   6.583 -2.5734  0.1303 -0.0428
 2158SOL     OW24465   8.409   6.647   1.917  0.2783 -0.1374  0.3123
 2158SOL    HW124466   8.379   6.589   1.987 -0.5593  0.0848  0.1493
 2158SOL    HW224467   8.444   6.588   1.851  0.3138 -0.4031  0.5666
 2159SOL     OW24468  10.436  11.770   3.505  0.1811 -0.1029 -0.0796
 2159SOL    HW124469  10.402  11.852   3.469 -0.2149 -0.6326 -0.9672
 2159SOL    HW224470  10.518  11.794   3.547 -0.4198  0.9105  0.5474
 2160SOL     OW24471  12.229   5.824  10.773 -0.0120  0.0286 -0.0780
 2160SOL    HW124472  12.172   5.895  10.801 -0.7847  0.6686 -2.9367
 2160SOL    HW224473  12.176   5.774  10.711  1.9962 -0.2409 -1.7111
 2161SOL     OW24474   5.267   8.284  11.183 -0.6297  0.7147 -0.1461
 2161SOL    HW124475   5.361   8.297  11.187 -0.5334 -0.0537  0.3928
 2161SOL    HW224476   5.255   8.215  11.118 -0.8201  0.8063 -0.2095
 2162SOL     OW24477  11.030   8.217   8.623  0.1659  0.1063  0.2997
 2162SOL    HW124478  10.964   8.148   8.625 -1.6374  1.7172 -0.5752
 2162SOL    HW224479  11.058   8.221   8.532  1.5788 -0.6188  0.6816
 2163SOL     OW24480   8.496  13.382   0.162  0.1499  0.2784  0.3530
 2163SOL    HW124481   8.539  13.396   0.246 -1.0657  1.7105  0.7930
 2163SOL    HW224482   8.455  13.467   0.142 -0.7732 -0.4476 -0.9884
 2164SOL     OW24483   2.302   1.137   7.241  0.1925 -0.1920 -0.4630
 2164SOL    HW124484   2.253   1.055   7.232 -0.5571  0.2781 -0.8250
 2164SOL    HW224485   2.243   1.203   7.204  0.9524  0.4478 -0.5390
 2165SOL     OW24486  10.722   8.315   0.789 -0.7247 -0.0820 -0.0279
 2165SOL    HW124487  10.801   8.319   0.735 -0.4112  0.3258  0.4574
 2165SOL    HW224488  10.753   8.333   0.878 -1.2733 -0.5092  0.2551
 2166SOL     OW24489   2.845   6.445  11.909  0.0106  0.5803  0.0140
 2166SOL    HW124490   2.867   6.456  11.817  1.8074 -2.9081 -0.1298
 2166SOL    HW224491   2.922   6.404  11.948 -1.8482 -0.9978  2.3201
 2167SOL     OW24492   5.892   0.794  13.499 -0.1163  0.2444 -0.0542
 2167SOL    HW124493   5.976   0.769  13.459 -0.3619 -1.0509  0.2140
 2167SOL    HW224494   5.917   0.848  13.575  0.5796 -1.4769  1.0006
 2168SOL     OW24495   5.421   3.668  11.704  0.6388  0.1176  0.2776
 2168SOL    HW124496   5.406   3.702  11.616 -0.5549 -1.0340  0.0074
 2168SOL    HW224497   5.477   3.733  11.745  0.1504  1.3338 -0.8979
 2169SOL     OW24498   5.024  11.336   7.442  0.0147 -0.1777 -0.2535
 2169SOL    HW124499   5.052  11.344   7.534  1.4822  0.5293 -0.7204
 2169SOL    HW224500   5.105  11.348   7.392 -0.7356 -0.7150 -1.6430
 2170SOL     OW24501   4.408   9.535   1.550  0.3236  0.5779 -0.4303
 2170SOL    HW124502   4.380   9.578   1.631  0.0270  0.1437 -0.2991
 2170SOL    HW224503   4.418   9.443   1.574  2.0631  0.7336 -0.4223
 2171SOL     OW24504   5.468   8.478   9.564 -0.2189 -0.3215  0.3107
 2171SOL    HW124505   5.464   8.574   9.568  1.3232 -0.1867 -0.5567
 2171SOL    HW224506   5.480   8.450   9.655  2.3577  0.5441  0.3216
 2172SOL     OW24507   9.184   3.035  10.459  0.3435 -0.3554 -0.5864
 2172SOL    HW124508   9.251   2.974  10.488  0.4967 -0.8818 -1.9705
 2172SOL    HW224509   9.109   3.018  10.517  0.0848 -2.4811 -1.4671
 2173SOL     OW24510   7.570   2.110  11.753 -0.5989  0.6122 -0.0985
 2173SOL    HW124511   7.617   2.027  11.749 -0.8406  0.4641  0.1113
 2173SOL    HW224512   7.631   2.174  11.715  0.1594  0.6013  1.0365
 2174SOL     OW24513  13.330  12.760  13.629  0.1226 -0.1718  0.1325
 2174SOL    HW124514  13.239  12.755  13.601 -0.1103 -1.6052  1.0709
 2174SOL    HW224515  13.380  12.727  13.555  0.0716  2.0710 -1.0122
 2175SOL     OW24516   7.454   0.246   7.164 -1.0601 -0.0044  0.0179
 2175SOL    HW124517   7.547   0.265   7.155 -1.3652  0.7021 -2.2816
 2175SOL    HW224518   7.411   0.332   7.159 -2.0129 -0.5326 -2.9401
 2176SOL     OW24519   1.148   7.129   8.146  0.0605  0.0855 -0.2193
 2176SOL    HW124520   1.143   7.036   8.171 -1.0331 -0.3419 -1.9150
 2176SOL    HW224521   1.076   7.170   8.193  1.0806  0.2922  1.2391
 2177SOL     OW24522   9.567   9.280   0.548 -0.1140  0.1425 -0.3659
 2177SOL    HW124523   9.487   9.290   0.496 -0.3884  0.9326  0.1745
 2177SOL    HW224524   9.638   9.299   0.487 -0.3453 -0.3755 -0.8035
 2178SOL     OW24525   7.872   7.636   6.601  0.1614  0.6373 -0.1625
 2178SOL    HW124526   7.818   7.652   6.678  0.3126 -0.1986  0.1254
 2178SOL    HW224527   7.889   7.723   6.565 -2.1635  0.8987 -0.7932
 2179SOL     OW24528   1.780  11.751   0.748  0.0983  0.0890  0.2223
 2179SOL    HW124529   1.717  11.700   0.697 -0.5102  1.7950 -0.7758
 2179SOL    HW224530   1.731  11.827   0.779  1.2341  0.5864  0.8642
 2180SOL     OW24531   3.316   3.567   0.230  0.0267 -0.3368  0.5490
 2180SOL    HW124532   3.276   3.481   0.234  0.5105 -0.6352 -0.5552
 2180SOL    HW224533   3.401   3.553   0.189 -0.6283  0.8754 -1.3878
 2181SOL     OW24534   0.632  13.617   9.525 -0.4311 -0.2682 -0.2091
 2181SOL    HW124535   0.615  13.661   9.442 -4.1396 -0.0526  0.4829
 2181SOL    HW224536   0.600  13.527   9.511  0.4181 -0.6956  0.5183
 2182SOL     OW24537  10.000   9.069   1.137  0.4535  0.3626  0.5837
 2182SOL    HW124538   9.959   9.105   1.216  1.5455  1.5302  0.6376
 2182SOL    HW224539  10.070   9.013   1.169 -0.7606 -1.3132  0.4753
 2183SOL     OW24540   0.329  13.733   6.300  0.3525 -0.0279 -0.4685
 2183SOL    HW124541   0.356  13.808   6.353  1.7333 -0.9609  0.2152
 2183SOL    HW224542   0.307  13.770   6.215  1.1446  1.1422 -0.1835
 2184SOL     OW24543   1.186   2.423  10.344 -0.5218  0.5061 -0.1655
 2184SOL    HW124544   1.105   2.475  10.351 -1.2023 -0.4434 -0.7650
 2184SOL    HW224545   1.196   2.383  10.430  0.8008  2.6936  0.7971
 2185SOL     OW24546   0.793   8.449   6.340 -0.5054  0.1347  0.8638
 2185SOL    HW124547   0.816   8.368   6.385 -0.0315 -0.4439 -0.3721
 2185SOL    HW224548   0.767   8.509   6.410 -0.8637 -1.0765  1.7999
 2186SOL     OW24549   3.565   9.201  13.498 -0.1384 -0.3849 -0.3393
 2186SOL    HW124550   3.521   9.133  13.446 -1.3261 -1.1542  1.5774
 2186SOL    HW224551   3.658   9.191  13.477 -0.4740 -1.4300 -1.4221
 2187SOL     OW24552   2.668   0.887  13.806 -0.4770 -0.4375 -0.0750
 2187SOL    HW124553   2.656   0.963  13.748 -2.0505 -0.0322  0.7237
 2187SOL    HW224554   2.634   0.813  13.755  0.9441 -0.6442 -0.8048
 2188SOL     OW24555  13.660   9.903   0.226 -0.5498 -0.1070  0.3076
 2188SOL    HW124556  13.689   9.923   0.315  0.5070 -1.8632  0.4193
 2188SOL    HW224557  13.598   9.831   0.236 -0.5325 -0.2246 -0.3534
 2189SOL     OW24558  10.953   4.593   9.381 -0.0511 -0.4722 -0.0481
 2189SOL    HW124559  11.028   4.587   9.440 -1.0826 -2.2766  1.1627
 2189SOL    HW224560  10.880   4.616   9.437 -0.9298 -1.5451 -0.7148
 2190SOL     OW24561   7.006   9.716   8.172  0.4056  0.2559  0.1165
 2190SOL    HW124562   7.025   9.806   8.147  0.3454 -0.0464 -1.0368
 2190SOL    HW224563   6.950   9.724   8.249  0.8185  1.1938  0.3337
 2191SOL     OW24564  10.786  10.461   7.021 -0.1100  0.0092 -0.4328
 2191SOL    HW124565  10.819  10.523   6.956  0.5148  1.2015  0.9534
 2191SOL    HW224566  10.816  10.496   7.105 -0.9332 -1.4408  0.5167
 2192SOL     OW24567   3.058   1.918   8.822 -0.0392  0.0438 -0.0929
 2192SOL    HW124568   3.001   1.898   8.747 -1.5310  0.5100  0.8556
 2192SOL    HW224569   3.042   1.848   8.884  2.9622 -1.6533 -1.0437
 2193SOL     OW24570  11.818  13.632   0.765  0.0500  0.0215  0.4519
 2193SOL    HW124571  11.901  13.638   0.811 -0.0866  1.1319  0.5901
 2193SOL    HW224572  11.774  13.556   0.803 -0.8469  1.9087  3.5115
 2194SOL     OW24573  14.138  13.147   5.327 -0.0177 -0.1602 -0.3229
 2194SOL    HW124574  14.175  13.110   5.407 -0.1472 -0.3904 -0.3679
 2194SOL    HW224575  14.127  13.071   5.269 -0.0721 -0.0174 -0.5010
 2195SOL     OW24576   7.602   0.538   7.998  0.1317 -0.5755 -0.2550
 2195SOL    HW124577   7.539   0.557   7.928  0.3421 -0.5666 -0.4422
 2195SOL    HW224578   7.592   0.444   8.015  1.0991 -0.8863 -1.3025
 2196SOL     OW24579   8.028  13.777  10.342  0.3047 -0.3242 -0.2899
 2196SOL    HW124580   7.938  13.747  10.351  0.2437 -0.4095 -1.1268
 2196SOL    HW224581   8.081  13.703  10.372  0.1258 -0.8619 -1.2718
 2197SOL     OW24582  11.436   7.012   2.539 -0.2270 -0.3519  0.0993
 2197SOL    HW124583  11.442   6.997   2.633  0.0179 -0.5079  0.0602
 2197SOL    HW224584  11.461   6.928   2.500 -2.9823 -1.1937 -0.0813
 2198SOL     OW24585  12.117  11.225   2.870  0.5199  0.0191  0.5795
 2198SOL    HW124586  12.094  11.159   2.935  1.4976 -0.7507  0.1774
 2198SOL    HW224587  12.066  11.202   2.792  0.1411  0.3144  0.7387
 2199SOL     OW24588   8.411   1.254   4.491 -0.2711  0.4730  0.0926
 2199SOL    HW124589   8.455   1.338   4.481 -0.6165  0.6144 -0.2328
 2199SOL    HW224590   8.330   1.262   4.441  0.7734 -0.8380 -1.9716
 2200SOL     OW24591   5.269  13.311   0.167 -0.1905  0.1609 -0.0694
 2200SOL    HW124592   5.213  13.351   0.100 -0.3059 -1.6130 -1.0857
 2200SOL    HW224593   5.346  13.368   0.171 -1.5351  2.0524  0.5956
 2201SOL     OW24594   9.792  11.577   8.746  0.0426 -0.2995  0.2153
 2201SOL    HW124595   9.858  11.583   8.815 -0.9790 -0.3676  1.2304
 2201SOL    HW224596   9.798  11.661   8.700 -0.6765  0.6364  1.7428
 2202SOL     OW24597  10.905   1.613   0.866  0.0720 -0.0790 -0.6767
 2202SOL    HW124598  10.936   1.676   0.931 -0.8975 -0.5489  0.2887
 2202SOL    HW224599  10.809   1.623   0.867 -0.2190 -2.2364  0.2848
 2203SOL     OW24600   3.445   4.570  11.645  0.0461 -0.1009 -0.2771
 2203SOL    HW124601   3.361   4.613  11.662 -0.3130 -0.3210 -1.4336
 2203SOL    HW224602   3.445   4.555  11.551  0.8351 -1.2630 -0.1031
 2204SOL     OW24603   9.325  10.352   1.594 -0.2971 -0.1877  0.3324
 2204SOL    HW124604   9.405  10.305   1.570  1.5851  3.0614 -0.4457
 2204SOL    HW224605   9.356  10.439   1.622 -3.5344  1.0226  0.6170
 2205SOL     OW24606  11.920  11.814   9.270  0.3330  0.0980  0.2289
 2205SOL    HW124607  11.950  11.735   9.314  1.9892  0.4608 -0.1701
 2205SOL    HW224608  11.907  11.877   9.340  0.4191 -0.0996  0.4243
 2206SOL     OW24609  13.187   8.902   1.715 -0.4945  0.0396 -0.0029
 2206SOL    HW124610  13.113   8.842   1.702 -1.2739  1.0530 -0.4139
 2206SOL    HW224611  13.245   8.856   1.775 -2.4753  0.0338  2.0731
 2207SOL     OW24612   8.964   5.036  11.903 -0.3753  0.0578  0.4482
 2207SOL    HW124613   8.969   5.114  11.847  0.5569  0.8311  1.5719
 2207SOL    HW224614   8.900   4.979  11.859  2.0694 -0.5030 -2.7832
 2208SOL     OW24615  11.630   9.903   1.358  0.4439  0.0402  0.0206
 2208SOL    HW124616  11.574   9.916   1.281  0.0504 -3.7968 -0.5470
 2208SOL    HW224617  11.711   9.948   1.336 -0.5438  1.2346 -1.4476
 2209SOL     OW24618  11.974   8.058   8.638  0.2700  0.1349 -0.4559
 2209SOL    HW124619  12.024   7.992   8.590  0.3670 -1.1586  1.2974
 2209SOL    HW224620  12.023   8.071   8.719 -0.3770  1.5151 -0.2643
 2210SOL     OW24621  13.312   3.279   5.474  0.2879 -0.0291  0.3123
 2210SOL    HW124622  13.390   3.329   5.450 -0.2304  0.7523  0.2298
 2210SOL    HW224623  13.343   3.219   5.542  0.9560  0.3034  0.3135
 2211SOL     OW24624   3.524  12.668   9.132  0.0903  0.2208 -0.0590
 2211SOL    HW124625   3.565  12.752   9.153 -0.1252  0.6322 -1.2097
 2211SOL    HW224626   3.458  12.689   9.066  0.4262 -0.9260 -0.7885
 2212SOL     OW24627  11.770   9.524   0.834 -0.3309 -0.7184  0.4479
 2212SOL    HW124628  11.749   9.485   0.919  0.0703 -1.8587  0.0494
 2212SOL    HW224629  11.787   9.448   0.778  1.5464  0.0607 -0.0962
 2213SOL     OW24630   4.371   8.790  11.730  0.1667 -0.3086 -0.3534
 2213SOL    HW124631   4.344   8.756  11.815  0.4557  0.6320  0.1269
 2213SOL    HW224632   4.305   8.756  11.669  0.9159 -2.4046 -0.0519
 2214SOL     OW24633   1.300  11.727  10.127  0.3988  0.0128 -0.7359
 2214SOL    HW124634   1.210  11.743  10.099  0.0693 -0.1649  0.1871
 2214SOL    HW224635   1.318  11.636  10.101  0.1624 -0.0899 -0.5362
 2215SOL     OW24636   3.038  10.330   2.659  0.0970  0.2517  0.2838
 2215SOL    HW124637   2.957  10.280   2.651  0.9191 -0.9461 -1.1317
 2215SOL    HW224638   3.098  10.271   2.704  0.9041  0.1188 -0.8936
 2216SOL     OW24639   7.584  11.965   2.866 -0.4169  0.8616  0.3967
 2216SOL    HW124640   7.528  12.023   2.815 -0.5556  0.2648 -0.1336
 2216SOL    HW224641   7.550  11.973   2.956 -0.7221  1.2523  0.2505
 2217SOL     OW24642  10.304   7.131  12.843  0.8422 -0.2059 -0.1389
 2217SOL    HW124643  10.242   7.069  12.881  0.7534 -0.0355 -0.0067
 2217SOL    HW224644  10.303   7.112  12.749  0.0238  0.3035 -0.2414
 2218SOL     OW24645   3.992   5.526   6.451  0.3076  0.1805 -0.3249
 2218SOL    HW124646   4.024   5.601   6.401 -1.5178  1.5536  0.4336
 2218SOL    HW224647   3.974   5.562   6.538 -2.3947 -0.6248 -0.4525
 2219SOL     OW24648   3.529  12.018  13.992  0.2339  0.0830 -0.3268
 2219SOL    HW124649   3.538  12.059  13.906  1.7827 -0.5322 -0.4809
 2219SOL    HW224650   3.559  12.085  14.054 -3.4059  1.5790  0.0937
 2220SOL     OW24651   1.076   8.520   9.509  0.3808  0.1219  0.3686
 2220SOL    HW124652   1.150   8.532   9.449  0.0028 -0.1258 -0.1534
 2220SOL    HW224653   1.053   8.609   9.536 -0.4394  0.3840 -1.0829
 2221SOL     OW24654  13.932   3.497   5.503  0.1799 -0.3469  0.2040
 2221SOL    HW124655  13.900   3.488   5.414 -0.2209 -0.3606  0.3464
 2221SOL    HW224656  13.896   3.421   5.549  1.1700 -0.8695  0.1548
 2222SOL     OW24657   9.039   0.960  13.278 -0.3927  0.1113  0.0314
 2222SOL    HW124658   9.040   0.982  13.371  0.0175  1.3549 -0.2438
 2222SOL    HW224659   9.037   0.865  13.275 -1.3078  0.0721  1.3116
 2223SOL     OW24660   9.171   4.965  10.280  0.0012  0.1248  0.3715
 2223SOL    HW124661   9.175   5.060  10.267  1.2656 -0.1097 -1.3031
 2223SOL    HW224662   9.251   4.944  10.329 -0.1011 -0.1327  0.4326
 2224SOL     OW24663   1.933   9.867   6.675  0.2689  0.3338  0.2525
 2224SOL    HW124664   1.933   9.903   6.764 -1.7023 -1.5821  1.1382
 2224SOL    HW224665   2.024   9.841   6.660  0.6278  0.5887  1.7792
 2225SOL     OW24666   9.576   0.712  12.396 -0.3950  0.0783 -0.2653
 2225SOL    HW124667   9.505   0.679  12.340 -0.7063  0.1332  0.0885
 2225SOL    HW224668   9.540   0.791  12.436 -0.2229 -0.0269  0.1045
 2226SOL     OW24669   9.776  13.741   1.844  0.5354 -0.4417  0.6501
 2226SOL    HW124670   9.787  13.813   1.905  0.9198  1.0014 -1.0307
 2226SOL    HW224671   9.855  13.689   1.853  0.2565 -0.6671  1.8842
 2227SOL     OW24672   4.818  12.632   9.704  0.4015 -0.2502 -0.6859
 2227SOL    HW124673   4.853  12.622   9.616 -0.1625  0.7922 -1.0511
 2227SOL    HW224674   4.767  12.553   9.719  1.2451 -0.8570 -0.9216
 2228SOL     OW24675   6.284   9.049   1.203 -1.0073  0.2677  0.0944
 2228SOL    HW124676   6.220   9.019   1.138 -0.5585 -1.5714  0.4515
 2228SOL    HW224677   6.367   9.013   1.173 -0.2365  2.0037  0.0521
 2229SOL     OW24678   0.183   6.759   7.400  0.8938  0.0743  0.5917
 2229SOL    HW124679   0.108   6.781   7.454  2.0261  1.7342  1.6015
 2229SOL    HW224680   0.148   6.748   7.312 -0.7251 -0.8427  1.3202
 2230SOL     OW24681   9.980   5.762   0.409 -0.0793 -0.4037  0.1676
 2230SOL    HW124682   9.903   5.721   0.448 -1.0320 -0.6944 -1.8986
 2230SOL    HW224683   9.945   5.834   0.356  1.2951  0.9700  1.0324
 2231SOL     OW24684  13.121  13.140  10.430  0.3058 -0.2105  0.1368
 2231SOL    HW124685  13.106  13.055  10.472 -0.7260 -0.1697 -0.1288
 2231SOL    HW224686  13.101  13.204  10.498 -2.8961 -0.1022 -0.7903
 2232SOL     OW24687   2.649  12.453   4.185 -0.1470  0.1847  0.4004
 2232SOL    HW124688   2.735  12.414   4.201  1.2637  2.7990 -0.1890
 2232SOL    HW224689   2.666  12.524   4.123 -2.8668  0.4014 -0.2167
 2233SOL     OW24690  11.946   7.256   4.614 -0.7254  0.2633 -0.2043
 2233SOL    HW124691  11.991   7.183   4.573 -0.3590  1.1128 -1.3515
 2233SOL    HW224692  11.886   7.215   4.677  0.9803 -0.9179  0.7117
 2234SOL     OW24693   5.361  12.669   1.077  0.0860 -0.3083  0.2805
 2234SOL    HW124694   5.456  12.664   1.067 -0.1484 -0.8313 -2.0776
 2234SOL    HW224695   5.344  12.758   1.108  1.2642  0.2159 -0.5228
 2235SOL     OW24696  11.745  13.623  13.609  0.3587  0.2737 -0.7981
 2235SOL    HW124697  11.801  13.677  13.664 -1.4614  0.7332  0.7176
 2235SOL    HW224698  11.774  13.533  13.626  0.6567  0.5050 -0.0567
 2236SOL     OW24699  10.692  10.573   4.837  0.5312  0.0334  0.6564
 2236SOL    HW124700  10.739  10.656   4.847  0.9756 -0.1506  0.1796
 2236SOL    HW224701  10.633  10.569   4.912 -2.1494  2.4992 -1.1010
 2237SOL     OW24702  11.139   0.483  11.293  0.3055 -0.0832  0.3182
 2237SOL    HW124703  11.143   0.477  11.388 -0.3691 -0.5711  0.3188
 2237SOL    HW224704  11.166   0.573  11.274 -2.4779  1.0359  1.1828
 2238SOL     OW24705  13.346   7.101   2.981 -0.3798  0.1094  0.9695
 2238SOL    HW124706  13.280   7.088   3.049 -0.7034 -2.8299  0.2264
 2238SOL    HW224707  13.325   7.036   2.914  3.4998 -1.3469  0.8878
 2239SOL     OW24708  13.330  13.562   4.343 -0.4551  0.5746 -0.4207
 2239SOL    HW124709  13.305  13.488   4.287 -1.0862  0.7965 -0.4420
 2239SOL    HW224710  13.373  13.521   4.418  0.4638  0.2728 -1.0850
 2240SOL     OW24711  11.303   0.345  12.176 -0.1253 -0.1617 -0.1796
 2240SOL    HW124712  11.277   0.311  12.262  0.2388  2.7191  1.1777
 2240SOL    HW224713  11.379   0.400  12.194 -0.1191  0.6191 -2.3357
 2241SOL     OW24714   2.631  11.163  10.221 -0.0264  0.1454 -0.0109
 2241SOL    HW124715   2.622  11.100  10.149  0.6721  1.0472 -0.9256
 2241SOL    HW224716   2.660  11.110  10.295 -0.0033 -0.6966 -0.5970
 2242SOL     OW24717   8.800   0.023   9.046  0.0089  0.4232 -0.2054
 2242SOL    HW124718   8.735  -0.046   9.043  1.1977 -0.7280 -1.9049
 2242SOL    HW224719   8.825   0.029   9.138  1.2844 -2.8742 -0.1938
 2243SOL     OW24720   9.044   2.932  10.247  0.3722  0.5168 -0.5282
 2243SOL    HW124721   9.093   2.956  10.325  0.3651  0.8256 -0.6179
 2243SOL    HW224722   8.953   2.952  10.267  0.4737  1.4022 -0.9224
 2244SOL     OW24723  10.575  11.166   8.478  0.2380  0.2689  0.0947
 2244SOL    HW124724  10.522  11.238   8.511 -0.4483  0.0272 -0.4558
 2244SOL    HW224725  10.578  11.103   8.550 -0.5425  0.1167 -0.0020
 2245SOL     OW24726  11.355   7.201   0.017 -0.0474  0.4520 -0.4157
 2245SOL    HW124727  11.260   7.190   0.017 -0.0106  0.0373  0.3116
 2245SOL    HW224728  11.384   7.156  -0.062 -0.1062 -3.2214  1.4064
 2246SOL     OW24729   4.017   0.640   9.816  0.4246 -0.0011  0.1300
 2246SOL    HW124730   4.043   0.565   9.870 -1.3508  0.1202  1.2268
 2246SOL    HW224731   3.923   0.649   9.831  0.7702  3.2492  1.1048
 2247SOL     OW24732   4.613  13.756   6.764 -0.0157 -0.0561 -0.3003
 2247SOL    HW124733   4.659  13.685   6.810  0.8862 -0.5942 -1.9498
 2247SOL    HW224734   4.566  13.711   6.693  0.1443  0.9499 -1.0515
 2248SOL     OW24735   1.261   8.719   9.673  0.4947  0.1793 -0.4937
 2248SOL    HW124736   1.263   8.756   9.761  0.5134  0.1267 -0.4715
 2248SOL    HW224737   1.331   8.654   9.673 -0.2214 -0.6020 -0.2055
 2249SOL     OW24738   8.288   4.734  13.543  0.7566  0.1835 -0.1697
 2249SOL    HW124739   8.232   4.740  13.465 -0.4118  1.4708  0.7278
 2249SOL    HW224740   8.265   4.810  13.595  1.2354 -0.8529  1.6372
 2250SOL     OW24741   3.620   8.859   4.733 -0.4491  0.0750  0.2328
 2250SOL    HW124742   3.548   8.911   4.769  0.5157  1.5998  0.0547
 2250SOL    HW224743   3.627   8.889   4.642  0.0158 -0.4984  0.0798
 2251SOL     OW24744   8.870   4.293   8.913 -0.5046 -0.0578 -0.5281
 2251SOL    HW124745   8.941   4.255   8.964  0.5451  1.5273 -0.7453
 2251SOL    HW224746   8.896   4.384   8.898 -2.4516  0.5052 -0.8583
 2252SOL     OW24747   9.419  10.652  10.222 -0.5763 -0.2451 -0.6527
 2252SOL    HW124748   9.377  10.619  10.143  0.1886 -1.9477 -0.3850
 2252SOL    HW224749   9.510  10.670  10.195 -0.3843 -0.5722 -0.2315
 2253SOL     OW24750   0.482   6.751   6.817 -0.1676  0.6046 -0.3988
 2253SOL    HW124751   0.535   6.742   6.896  0.3824  0.0601 -0.8261
 2253SOL    HW224752   0.461   6.844   6.813 -1.1695  0.4936  1.0096
 2254SOL     OW24753   8.178   5.460  13.477  0.0130  0.0483  0.3666
 2254SOL    HW124754   8.171   5.379  13.427  1.7591 -0.3388  0.7057
 2254SOL    HW224755   8.120   5.446  13.552 -1.3198 -0.0274 -0.6410
 2255SOL     OW24756   2.235   8.740   7.290  0.3794  0.7035  0.4307
 2255SOL    HW124757   2.304   8.782   7.342  1.0495  0.5274 -0.2845
 2255SOL    HW224758   2.235   8.789   7.207 -0.4780  0.8058  0.4859
 2256SOL     OW24759   2.800  10.426   9.828 -0.2382 -0.2896  0.5984
 2256SOL    HW124760   2.826  10.382   9.747 -0.0153 -0.9251  1.0076
 2256SOL    HW224761   2.764  10.510   9.800  1.8588  0.4652 -0.0376
 2257SOL     OW24762   8.215  12.168   7.774 -0.3668  0.2097  0.5877
 2257SOL    HW124763   8.204  12.121   7.691  0.4321 -1.1188  1.1992
 2257SOL    HW224764   8.279  12.116   7.823 -2.1301 -0.0603  2.7780
 2258SOL     OW24765  10.110  13.840  11.967 -0.1866 -0.1209 -0.2551
 2258SOL    HW124766  10.118  13.880  11.880  0.1294 -1.4927 -0.8771
 2258SOL    HW224767  10.018  13.815  11.974 -0.3621  0.5898  0.0934
 2259SOL     OW24768  13.061   1.416   7.769  0.0381  0.0303 -0.3156
 2259SOL    HW124769  13.017   1.487   7.817  1.3756 -0.3509  1.6218
 2259SOL    HW224770  13.128   1.461   7.718  0.3783  0.2568  0.3084
 2260SOL     OW24771   3.540  13.818   9.673 -0.0347  0.2608 -0.0574
 2260SOL    HW124772   3.605  13.751   9.655 -1.6104 -0.9939 -1.4177
 2260SOL    HW224773   3.467  13.771   9.712 -1.0977  1.1785 -0.8648
 2261SOL     OW24774  13.855   8.947  10.366  0.0505 -0.0463  0.1832
 2261SOL    HW124775  13.948   8.935  10.349  0.2913  2.7296 -0.9566
 2261SOL    HW224776  13.814   8.867  10.335  2.1210 -1.9467  2.0231
 2262SOL     OW24777  13.823  12.050   4.265  0.1400  0.3765 -0.7294
 2262SOL    HW124778  13.765  12.045   4.341 -0.4327  0.4263 -1.1560
 2262SOL    HW224779  13.911  12.041   4.301 -0.1443  0.0900 -0.0975
 2263SOL     OW24780   3.270   1.369   1.459  0.3116 -0.3465 -0.2822
 2263SOL    HW124781   3.362   1.345   1.457  0.6872  1.0336 -0.6359
 2263SOL    HW224782   3.255   1.399   1.549  0.3188 -0.1609 -0.3431
 2264SOL     OW24783   1.890   3.675  14.003 -0.0200  0.1701 -0.0265
 2264SOL    HW124784   1.951   3.603  14.021  0.6368  0.5866 -0.5570
 2264SOL    HW224785   1.934   3.729  13.938 -1.4506 -0.1369 -1.3114
 2265SOL     OW24786  11.186  12.497   0.752 -0.1378 -0.0886  0.3933
 2265SOL    HW124787  11.248  12.438   0.709  0.3925  1.4745 -1.0755
 2265SOL    HW224788  11.116  12.439   0.784  0.1198 -1.4657 -1.4169
 2266SOL     OW24789   5.210   4.935  12.676  0.1561 -0.2595  0.2201
 2266SOL    HW124790   5.171   5.004  12.621 -1.4362 -0.5365  0.9494
 2266SOL    HW224791   5.301   4.964  12.690 -0.1440  1.0923 -0.4500
 2267SOL     OW24792  11.971   4.941   2.191 -0.0533  0.6079 -0.1112
 2267SOL    HW124793  11.912   4.903   2.126 -1.3671  0.2902  1.2021
 2267SOL    HW224794  12.013   5.014   2.146 -1.1704  0.6134 -1.1973
 2268SOL     OW24795  13.605  12.483   1.529 -0.0181 -0.6401  0.2443
 2268SOL    HW124796  13.612  12.399   1.485  1.0595 -0.1389 -0.6012
 2268SOL    HW224797  13.650  12.544   1.471 -1.3395  0.6551  0.5201
 2269SOL     OW24798   0.244   6.017   9.847  0.4923 -0.1032 -0.1662
 2269SOL    HW124799   0.320   5.961   9.865  1.2048  0.3344 -1.7119
 2269SOL    HW224800   0.257   6.048   9.758  0.5764  3.2363  0.8773
 2270SOL     OW24801   7.155   7.649   2.308 -0.6269  0.1084  0.0327
 2270SOL    HW124802   7.154   7.651   2.212 -0.0575 -1.5689 -0.0359
 2270SOL    HW224803   7.104   7.726   2.334  0.0692  1.1752 -1.5981
 2271SOL     OW24804  14.126   5.567  12.997  0.2707  0.0612  0.4311
 2271SOL    HW124805  14.083   5.484  12.979 -0.5576  0.6052 -0.1627
 2271SOL    HW224806  14.088   5.628  12.934  0.7851  0.9166  0.9277
 2272SOL     OW24807  12.539   3.184   4.206  0.1403 -0.3516 -0.1656
 2272SOL    HW124808  12.571   3.192   4.296  1.1837  0.4480 -0.5821
 2272SOL    HW224809  12.452   3.145   4.214  0.8233 -1.6688  1.0796
 2273SOL     OW24810   0.236  13.564   6.731  0.6359 -0.3690  0.4155
 2273SOL    HW124811   0.296  13.539   6.660 -0.1943 -1.9872  0.2271
 2273SOL    HW224812   0.173  13.622   6.689 -0.1174 -1.6735 -0.3261
 2274SOL     OW24813   0.626   2.522   5.078 -0.0298  0.0713 -0.0043
 2274SOL    HW124814   0.664   2.495   4.994 -1.3645  0.3774 -0.7413
 2274SOL    HW224815   0.611   2.616   5.067 -0.4123  0.0702  0.5030
 2275SOL     OW24816  12.198   5.954   3.258 -0.1961  0.0109 -0.1116
 2275SOL    HW124817  12.191   6.048   3.275  1.6124  0.1134  0.2291
 2275SOL    HW224818  12.129   5.915   3.312  0.1098  1.0085  1.0453
 2276SOL     OW24819  12.975   8.590   8.022  0.3208  0.0965 -0.3145
 2276SOL    HW124820  12.916   8.576   7.948 -0.4024 -1.1435  0.4600
 2276SOL    HW224821  12.978   8.685   8.033 -1.1490  0.2118 -0.6928
 2277SOL     OW24822   6.005   7.516   2.708  0.4288 -0.5823  0.3321
 2277SOL    HW124823   6.058   7.436   2.716 -0.6871 -1.3339  0.4194
 2277SOL    HW224824   5.995   7.547   2.798  0.5328 -0.5650  0.3375
 2278SOL     OW24825  10.158   7.065   4.111 -0.3230 -0.1606  0.5797
 2278SOL    HW124826  10.143   7.097   4.022 -3.0460  3.8226  2.1718
 2278SOL    HW224827  10.073   7.032   4.139  0.3797 -0.9568  1.8658
 2279SOL     OW24828  12.640  13.526   0.176 -0.3167 -0.1038 -0.8866
 2279SOL    HW124829  12.610  13.513   0.087 -1.8931  0.9165 -0.5297
 2279SOL    HW224830  12.660  13.437   0.208 -0.8909 -0.5818 -1.8432
 2280SOL     OW24831   4.671   5.886   1.475  0.0277  0.3351 -0.4900
 2280SOL    HW124832   4.752   5.863   1.430 -0.2178 -0.9513 -0.3202
 2280SOL    HW224833   4.665   5.981   1.467  2.5143  0.7254  1.1497
 2281SOL     OW24834   5.155   9.518   2.513 -0.0223 -0.0071 -0.0850
 2281SOL    HW124835   5.181   9.456   2.445 -1.4011 -1.8041  0.9368
 2281SOL    HW224836   5.237   9.546   2.553  0.6162 -1.8648 -0.0161
 2282SOL     OW24837   1.452  13.916   5.558  0.0698  0.1051 -1.0378
 2282SOL    HW124838   1.388  13.914   5.487 -0.8789 -0.9942 -0.1781
 2282SOL    HW224839   1.534  13.940   5.515 -1.0072  2.3222 -2.0616
 2283SOL     OW24840  14.098   3.313   1.271  0.1895 -0.0092 -0.0282
 2283SOL    HW124841  14.066   3.402   1.260 -0.1335 -0.2652 -1.5174
 2283SOL    HW224842  14.132   3.289   1.184  0.4681 -1.2512  0.3970
 2284SOL     OW24843   8.077   0.630   9.926  0.2623  0.1560 -0.4884
 2284SOL    HW124844   8.118   0.670  10.002  0.3786  0.7237 -0.8449
 2284SOL    HW224845   7.986   0.616   9.953  0.1403  0.9523 -0.4608
 2285SOL     OW24846   9.029   5.468   6.772 -0.2154  0.3653 -0.0168
 2285SOL    HW124847   9.031   5.561   6.794  1.8426 -0.0123  1.6319
 2285SOL    HW224848   8.945   5.437   6.807  0.4856  0.9869  2.3430
 2286SOL     OW24849   0.986  10.158   5.171  0.5009  0.1172  0.1377
 2286SOL    HW124850   1.017  10.210   5.245  2.1470 -0.4234 -0.1360
 2286SOL    HW224851   1.030  10.196   5.094 -0.9461  0.4765 -0.5546
 2287SOL     OW24852   2.867   2.892   1.200 -0.5077  0.4387 -0.3094
 2287SOL    HW124853   2.905   2.813   1.162 -1.4175  0.9756 -2.4747
 2287SOL    HW224854   2.940   2.935   1.244 -0.1518 -1.9499  1.6508
 2288SOL     OW24855   0.644   6.171   4.621  0.3720  0.0250 -0.6570
 2288SOL    HW124856   0.572   6.218   4.664  0.3271  0.4458 -1.1839
 2288SOL    HW224857   0.688   6.125   4.693 -0.3088 -0.0957 -0.2988
 2289SOL     OW24858   9.128  11.619   3.192 -0.1060 -0.4667 -0.0468
 2289SOL    HW124859   9.200  11.679   3.211 -1.9193  2.2155 -1.0966
 2289SOL    HW224860   9.102  11.585   3.277 -0.4060  1.9940  0.9297
 2290SOL     OW24861  13.315   9.163   4.018  0.0072 -0.3964 -0.4859
 2290SOL    HW124862  13.241   9.223   4.013  1.1534  0.9875 -1.7533
 2290SOL    HW224863  13.369   9.197   4.090  1.3801  1.0823 -2.0919
 2291SOL     OW24864   8.692   1.965   8.327  0.3985 -0.3452 -0.0106
 2291SOL    HW124865   8.639   1.888   8.310  1.4994 -1.1131 -0.0552
 2291SOL    HW224866   8.685   1.979   8.422  0.9956 -1.1203  0.1597
 2292SOL     OW24867   5.334   9.987   4.876 -0.1738 -0.3633 -0.1218
 2292SOL    HW124868   5.271   9.991   4.804 -1.2074  0.4251  0.7847
 2292SOL    HW224869   5.375  10.073   4.876 -0.3893 -0.2576  0.4049
 2293SOL     OW24870   4.711  12.974  14.079 -0.1166 -0.3099  0.1070
 2293SOL    HW124871   4.699  12.990  14.173  0.7957 -3.3962  0.8764
 2293SOL    HW224872   4.805  12.960  14.069 -0.3505 -1.2096 -1.0302
 2294SOL     OW24873   2.740   9.246  11.085  0.1671 -0.2684 -0.0404
 2294SOL    HW124874   2.810   9.185  11.061 -0.5857 -0.7878 -0.9837
 2294SOL    HW224875   2.781   9.332  11.083  0.6640 -0.5165 -1.1021
 2295SOL     OW24876   0.067   4.902   5.406 -0.0262  0.4293  0.4831
 2295SOL    HW124877   0.051   4.996   5.409 -1.3896  0.3263 -1.3622
 2295SOL    HW224878  -0.002   4.864   5.461  0.1716  0.4924  0.7718
 2296SOL     OW24879  12.334  12.088  13.999 -0.4242  0.8487 -0.2609
 2296SOL    HW124880  12.243  12.115  14.011 -1.0282 -0.3421 -1.9122
 2296SOL    HW224881  12.340  12.001  14.038 -1.2926 -1.1403 -4.1132
 2297SOL     OW24882  10.727   2.981   2.307  0.6729 -0.2614 -0.2688
 2297SOL    HW124883  10.795   3.039   2.272  0.5043 -0.1612 -0.4356
 2297SOL    HW224884  10.743   2.977   2.401  0.2633  0.6169 -0.1536
 2298SOL     OW24885  13.151   8.312   2.438  0.1811  0.1229 -0.2784
 2298SOL    HW124886  13.152   8.221   2.467 -0.7274 -0.3149 -1.5266
 2298SOL    HW224887  13.211   8.314   2.363 -0.0495  0.4760 -0.4563
 2299SOL     OW24888   1.724   2.214   8.263 -0.2580 -0.1621 -0.1378
 2299SOL    HW124889   1.801   2.163   8.287 -0.7536 -0.7316  0.2701
 2299SOL    HW224890   1.682   2.235   8.346  0.8133  2.3774 -0.1344
 2300SOL     OW24891   3.089   3.814  10.244  0.4424 -0.4376 -0.0733
 2300SOL    HW124892   3.048   3.859  10.318  0.2557  0.1825 -0.5353
 2300SOL    HW224893   3.070   3.871  10.169 -0.4071 -1.6488 -0.8076
 2301SOL     OW24894  12.110   6.206  11.135  0.6997 -0.4344 -0.0686
 2301SOL    HW124895  12.038   6.269  11.137  2.8566  2.2446 -0.5319
 2301SOL    HW224896  12.147   6.210  11.223  0.7103 -1.2828 -0.0269
 2302SOL     OW24897  10.026   5.959  13.033  0.1351 -0.1754 -0.0502
 2302SOL    HW124898  10.052   6.050  13.020  2.1910 -0.9325 -1.7292
 2302SOL    HW224899   9.941   5.952  12.989 -1.1465  1.3815  1.9855
 2303SOL     OW24900   7.587   6.630   9.102 -0.5337  0.0125  0.2784
 2303SOL    HW124901   7.650   6.622   9.030 -1.2327  0.8915 -0.4478
 2303SOL    HW224902   7.563   6.540   9.123  0.1085 -0.2770 -0.2020
 2304SOL     OW24903   6.855  13.567   0.157  0.1056  0.2172  0.3356
 2304SOL    HW124904   6.875  13.490   0.209 -0.7402  1.6077  2.9098
 2304SOL    HW224905   6.937  13.618   0.157  0.1438  0.1550  0.1972
 2305SOL     OW24906   6.532  10.877  10.384  0.6511  0.0666  0.4654
 2305SOL    HW124907   6.447  10.852  10.420  0.4528  0.1729  0.0774
 2305SOL    HW224908   6.567  10.797  10.346 -0.9984  0.7676 -2.8360
 2306SOL     OW24909   0.216   8.421   6.430  0.3327 -0.2287  0.3177
 2306SOL    HW124910   0.208   8.326   6.424 -0.7816 -0.1417  0.2329
 2306SOL    HW224911   0.292   8.442   6.375  0.8671 -1.0958  0.6926
 2307SOL     OW24912   3.668   2.976   8.102  0.1027 -0.0994 -0.4127
 2307SOL    HW124913   3.676   3.056   8.155  1.9089 -2.0777  2.6036
 2307SOL    HW224914   3.758   2.945   8.092 -0.5912 -2.1564 -0.7558
 2308SOL     OW24915   7.573   6.014  10.534  0.1200  0.1420  0.5409
 2308SOL    HW124916   7.629   6.019  10.612 -0.5192 -0.8961  1.0870
 2308SOL    HW224917   7.591   5.928  10.497  1.2628  1.0465 -1.1490
 2309SOL     OW24918   0.159   7.579   5.465 -0.2122 -0.2097  0.3752
 2309SOL    HW124919   0.210   7.579   5.546 -1.2993  2.2824  1.1678
 2309SOL    HW224920   0.068   7.586   5.493 -0.7288 -0.7643 -1.0565
 2310SOL     OW24921   9.111   0.431   8.908 -0.1515 -0.4821  0.0672
 2310SOL    HW124922   9.046   0.362   8.892 -0.1675 -0.4713  0.0863
 2310SOL    HW224923   9.186   0.406   8.855 -1.0549  0.8153 -1.9149
 2311SOL     OW24924  13.769   9.314   1.159  0.0480  0.4065  0.0215
 2311SOL    HW124925  13.782   9.235   1.211 -0.0107  0.0458 -0.4984
 2311SOL    HW224926  13.766   9.283   1.069  1.2140  1.1397 -0.2884
 2312SOL     OW24927  12.862   1.721   2.812 -0.2350 -0.7888 -0.0464
 2312SOL    HW124928  12.934   1.663   2.786  0.6807  0.7954 -1.2302
 2312SOL    HW224929  12.862   1.717   2.908  1.5768 -0.6949 -0.0122
 2313SOL     OW24930   6.123   2.420  13.848  0.3171 -0.2921 -0.0870
 2313SOL    HW124931   6.084   2.332  13.850  1.3458 -0.8175 -1.3753
 2313SOL    HW224932   6.070   2.471  13.909 -0.3382 -1.7911  0.6545
 2314SOL     OW24933   8.134   5.966  11.740 -0.1846  0.2057 -0.3836
 2314SOL    HW124934   8.042   5.951  11.762  0.0173 -1.3258 -0.4663
 2314SOL    HW224935   8.164   5.882  11.705  1.2393  0.6882 -0.3748
 2315SOL     OW24936  12.342   1.225   1.270  0.1324  0.0914  0.8430
 2315SOL    HW124937  12.372   1.292   1.209 -0.4395  1.4669  2.0149
 2315SOL    HW224938  12.254   1.253   1.295 -0.2231 -1.2436  1.1814
 2316SOL     OW24939   9.128  12.002   8.092 -0.3297 -0.1864  0.7957
 2316SOL    HW124940   9.034  11.985   8.102 -0.3732  0.3341  1.3597
 2316SOL    HW224941   9.134  12.098   8.091  0.3619 -0.1731  2.5969
 2317SOL     OW24942  10.804  11.436   2.170  0.6645  0.1720  0.5435
 2317SOL    HW124943  10.864  11.362   2.165 -0.6798 -0.8740 -1.3153
 2317SOL    HW224944  10.745  11.415   2.241 -0.3167 -1.0717 -0.5952
 2318SOL     OW24945  12.686   1.059  13.466 -0.8838 -0.2073  0.1693
 2318SOL    HW124946  12.632   1.120  13.517 -1.6810  0.1900 -1.0966
 2318SOL    HW224947  12.644   0.974  13.478 -1.2251 -0.0689 -0.0429
 2319SOL     OW24948  12.026   1.343   6.378  0.0792 -0.0929  0.3098
 2319SOL    HW124949  12.041   1.412   6.313 -1.1828  0.5191  0.6432
 2319SOL    HW224950  12.002   1.266   6.325 -1.3992  0.5241  0.0392
 2320SOL     OW24951   8.586   7.214   5.842 -0.1731  0.0377  0.1380
 2320SOL    HW124952   8.629   7.255   5.768  0.2150 -2.0424 -0.8713
 2320SOL    HW224953   8.506   7.265   5.856 -0.7943 -0.1236 -2.4127
 2321SOL     OW24954   5.536   3.922   8.334  0.2112  0.7547 -0.3502
 2321SOL    HW124955   5.449   3.922   8.374  0.3271 -2.2515  0.1671
 2321SOL    HW224956   5.537   4.000   8.278 -2.2861  1.6188  0.6616
 2322SOL     OW24957   6.868   9.471   6.510 -0.0330 -0.0154  0.1927
 2322SOL    HW124958   6.824   9.550   6.479 -0.6425 -0.7486 -0.8848
 2322SOL    HW224959   6.797   9.415   6.541  0.2752 -0.6294 -0.1946
 2323SOL     OW24960   5.527   7.327   6.966  0.3449  0.3271  0.0836
 2323SOL    HW124961   5.559   7.319   7.056  1.4149 -0.9338 -0.3732
 2323SOL    HW224962   5.460   7.259   6.958  0.3105  0.3797 -0.0886
 2324SOL     OW24963   1.259   3.899  10.089 -0.1048  0.1593 -0.0131
 2324SOL    HW124964   1.250   3.804  10.089  0.6172  0.0275  2.1731
 2324SOL    HW224965   1.350   3.914  10.063 -0.6791  0.4062 -2.0914
 2325SOL     OW24966  11.821  11.655  13.296 -0.5587 -0.0803  0.2756
 2325SOL    HW124967  11.736  11.611  13.295 -0.4695 -0.3056 -1.3057
 2325SOL    HW224968  11.863  11.625  13.377 -1.7269 -0.4614  0.7635
 2326SOL     OW24969  11.343  12.354  11.250  0.2911  0.3769 -0.1841
 2326SOL    HW124970  11.327  12.448  11.243 -0.9898  0.1211 -0.9376
 2326SOL    HW224971  11.280  12.324  11.315  0.5851  0.0072 -0.0688
 2327SOL     OW24972   0.836   1.243   3.330 -0.4033  0.2600 -0.5071
 2327SOL    HW124973   0.757   1.204   3.367 -0.2942  2.1251  1.8775
 2327SOL    HW224974   0.813   1.258   3.238 -2.1611 -0.8878 -0.3113
 2328SOL     OW24975   8.919   2.033   4.642  0.3493 -0.2062 -0.4143
 2328SOL    HW124976   8.983   2.090   4.598  0.5237  0.3306  0.4968
 2328SOL    HW224977   8.835   2.075   4.627  0.4450  0.1442  0.0234
 2329SOL     OW24978   5.746   1.857  13.690  0.6562  0.0703 -0.6609
 2329SOL    HW124979   5.807   1.926  13.719  0.3011  0.4258 -0.7423
 2329SOL    HW224980   5.802   1.783  13.667  0.9194 -0.9954  2.7999
 2330SOL     OW24981   5.358   5.354   9.385 -0.0321 -0.2204 -0.1621
 2330SOL    HW124982   5.439   5.406   9.382  1.3654 -2.2657  0.6123
 2330SOL    HW224983   5.341   5.340   9.478 -1.0312 -0.2536 -0.3312
 2331SOL     OW24984   8.064  13.088   7.557  0.0916  0.4610 -0.8855
 2331SOL    HW124985   8.128  13.146   7.516 -0.6122  1.7823 -0.2040
 2331SOL    HW224986   7.985  13.100   7.505 -0.6751  1.8092  0.5043
 2332SOL     OW24987   9.082   3.905   2.323 -0.6656  0.1033  0.2373
 2332SOL    HW124988   9.141   3.968   2.365 -1.9949  0.8783  1.0182
 2332SOL    HW224989   9.048   3.951   2.247  0.4601 -0.7102 -0.8105
 2333SOL     OW24990  13.789  14.123  10.895 -0.6831 -0.1574 -0.4064
 2333SOL    HW124991  13.743  14.095  10.974 -1.3907  0.6679 -0.5128
 2333SOL    HW224992  13.768  14.056  10.830 -2.1222  0.4227 -0.5743
 2334SOL     OW24993   5.995  11.250  13.587  0.2742 -0.2636  0.1610
 2334SOL    HW124994   5.928  11.210  13.642 -0.6767  1.3292  0.2197
 2334SOL    HW224995   5.950  11.320  13.540  1.5301 -0.2550 -1.0989
 2335SOL     OW24996   2.618  12.991   9.056 -0.1525  0.0135  0.0898
 2335SOL    HW124997   2.608  12.999   9.151 -0.8218 -0.2126  0.0475
 2335SOL    HW224998   2.590  12.902   9.036  2.8096 -1.0121  0.0189
 2336SOL     OW24999   9.903   6.160  10.311 -0.3257  0.0221 -0.5634
 2336SOL    HW125000   9.883   6.150  10.217 -0.8462 -0.2592 -0.4306
 2336SOL    HW225001   9.903   6.255  10.325  1.3635  0.1507 -1.1669
 2337SOL     OW25002   2.701  13.752   8.150  0.3702  0.2822  0.1403
 2337SOL    HW125003   2.618  13.742   8.195 -0.7518  0.4648 -1.7744
 2337SOL    HW225004   2.743  13.666   8.159 -0.3473 -0.0394  0.5029
 2338SOL     OW25005   0.631   7.417  12.354 -0.1094  0.2393  0.2836
 2338SOL    HW125006   0.693   7.375  12.413 -1.5871 -0.8647  1.1263
 2338SOL    HW225007   0.669   7.503  12.336  1.9200 -0.6100  0.2801
 2339SOL     OW25008   4.355   1.573   2.384 -0.4316  0.2176 -0.0519
 2339SOL    HW125009   4.265   1.598   2.364 -1.1330 -2.5209 -0.7274
 2339SOL    HW225010   4.348   1.525   2.466  0.1812 -1.1052 -0.7511
 2340SOL     OW25011  14.077  13.053   3.390  0.5754  0.5117 -0.1287
 2340SOL    HW125012  14.140  13.066   3.319  2.4407  0.3436  1.4058
 2340SOL    HW225013  14.124  13.080   3.469 -0.3787 -1.9443  1.4112
 2341SOL     OW25014   5.190   8.889  11.487  0.3070  0.8739  0.7364
 2341SOL    HW125015   5.244   8.965  11.507  0.4325  0.9291  0.1935
 2341SOL    HW225016   5.194   8.835  11.566  1.0514  0.9399  0.7512
 2342SOL     OW25017   0.888  11.472   8.871 -0.0864 -0.1568  0.1743
 2342SOL    HW125018   0.805  11.489   8.826  0.4157 -0.6077 -0.9691
 2342SOL    HW225019   0.903  11.549   8.925 -0.4821  0.6383 -0.8249
 2343SOL     OW25020   8.326  13.184   1.691  0.2946  0.3063 -0.6874
 2343SOL    HW125021   8.290  13.097   1.674 -2.6095  0.8464  1.8899
 2343SOL    HW225022   8.300  13.236   1.615 -0.6007 -0.3725 -0.8589
 2344SOL     OW25023   4.968  12.906  11.293  0.0218 -0.6469 -0.1680
 2344SOL    HW125024   5.034  12.839  11.308 -0.1327 -0.8451 -0.3646
 2344SOL    HW225025   4.898  12.861  11.244 -0.4340 -0.5420  0.3759
 2345SOL     OW25026   6.691  11.472  13.377 -0.0882  0.6085  0.4400
 2345SOL    HW125027   6.610  11.425  13.354 -0.2712  1.3982 -0.6218
 2345SOL    HW225028   6.694  11.470  13.473  0.2058 -2.0174  0.4372
 2346SOL     OW25029   0.124   0.483  13.528 -0.2328 -0.1339 -0.4761
 2346SOL    HW125030   0.069   0.411  13.560  1.2761 -0.9593  0.4124
 2346SOL    HW225031   0.152   0.528  13.608  0.7766 -0.0476 -0.8729
 2347SOL     OW25032   3.984   0.673   7.059 -0.4249 -0.1082  0.2568
 2347SOL    HW125033   3.966   0.610   6.989 -3.6042 -0.1886  0.9535
 2347SOL    HW225034   3.973   0.759   7.018 -1.1661 -0.1382  0.3742
 2348SOL     OW25035   3.880  12.859   1.625 -0.4107 -0.0570  0.0570
 2348SOL    HW125036   3.808  12.918   1.604 -0.2743 -0.2766 -1.0561
 2348SOL    HW225037   3.838  12.774   1.643 -0.5420  0.1783  0.9347
 2349SOL     OW25038   6.199   1.042  11.958 -0.2403  0.0647  0.3001
 2349SOL    HW125039   6.233   1.092  12.032  1.4069  0.7162 -0.8527
 2349SOL    HW225040   6.118   1.087  11.934  0.0951  0.8643  0.6404
 2350SOL     OW25041  10.863   1.019   7.925 -0.0589 -0.6325 -0.8174
 2350SOL    HW125042  10.876   1.098   7.977 -0.8325 -0.9984 -0.0456
 2350SOL    HW225043  10.881   1.046   7.835  0.1969  0.2855 -0.4999
 2351SOL     OW25044   6.313   6.685   4.701 -0.1888  0.0632 -0.3990
 2351SOL    HW125045   6.267   6.716   4.624 -0.1235  1.4719  0.0955
 2351SOL    HW225046   6.352   6.764   4.739  1.2053 -0.8334  0.1332
 2352SOL     OW25047   8.726   5.625   5.978  0.4930 -0.4700  0.1975
 2352SOL    HW125048   8.714   5.594   5.888 -0.9970  1.2698 -0.2362
 2352SOL    HW225049   8.821   5.634   5.987  0.6178  0.3050 -1.5487
 2353SOL     OW25050   3.145  10.268   1.424 -0.1693 -0.0203 -0.2123
 2353SOL    HW125051   3.218  10.223   1.467 -0.5685 -0.0489  0.4469
 2353SOL    HW225052   3.072  10.207   1.430 -0.6322  0.5806  0.4114
 2354SOL     OW25053   5.920   7.698  10.236  0.0385  0.5424  0.4546
 2354SOL    HW125054   5.894   7.605  10.235 -0.5675  0.7051 -0.0697
 2354SOL    HW225055   6.015   7.696  10.232  0.0015 -0.0615 -0.6233
 2355SOL     OW25056  13.546  12.256  12.119 -0.5146 -0.6451  0.1914
 2355SOL    HW125057  13.542  12.216  12.205  0.1782  1.1459  1.1064
 2355SOL    HW225058  13.640  12.260  12.099 -0.6840 -1.3717 -0.8178
 2356SOL     OW25059   1.589   5.098  12.300  0.3309  0.0954 -0.0671
 2356SOL    HW125060   1.641   5.162  12.348  1.4856 -0.3422 -0.6953
 2356SOL    HW225061   1.629   5.013  12.322  0.0646 -0.2227 -0.7696
 2357SOL     OW25062  10.989  12.526   2.560  0.0364 -0.1529  0.1390
 2357SOL    HW125063  10.951  12.472   2.630 -0.4497  1.7935  1.4576
 2357SOL    HW225064  11.078  12.545   2.591  0.5490 -0.9655 -0.7874
 2358SOL     OW25065  10.971   9.581   4.300  0.0241  0.1043  0.2543
 2358SOL    HW125066  11.027   9.592   4.224 -1.2877  1.7254 -0.5292
 2358SOL    HW225067  11.013   9.511   4.350  1.1367 -0.7329 -1.7334
 2359SOL     OW25068  13.420   0.531   2.049 -0.3715 -0.2709 -0.1724
 2359SOL    HW125069  13.368   0.462   2.009  0.8541 -0.8610 -0.7900
 2359SOL    HW225070  13.404   0.608   1.994 -1.6642 -0.0569  0.4613
 2360SOL     OW25071  11.958   6.857  12.841 -0.2715 -0.2094 -0.1888
 2360SOL    HW125072  11.900   6.811  12.901 -1.7459 -1.3399 -2.3516
 2360SOL    HW225073  11.909   6.936  12.816  1.2600  1.4549  1.6818
 2361SOL     OW25074  10.281  11.204   2.361  0.1720  0.2939 -0.4591
 2361SOL    HW125075  10.274  11.270   2.292 -2.6494  1.0059  0.3702
 2361SOL    HW225076  10.314  11.252   2.437 -0.4044  0.4049 -0.2769
 2362SOL     OW25077  14.088  11.888   1.363  0.2522 -0.2412  0.2390
 2362SOL    HW125078  14.084  11.945   1.287  0.1147  0.3663  0.6930
 2362SOL    HW225079  14.025  11.926   1.425  0.6356 -0.5046  0.7999
 2363SOL     OW25080   3.292  14.125   0.380  0.5857 -0.2043 -0.3342
 2363SOL    HW125081   3.339  14.132   0.463 -0.0083  0.7270 -0.0690
 2363SOL    HW225082   3.330  14.048   0.338  0.4989 -1.0342  1.0505
 2364SOL     OW25083   2.315   9.078   5.493 -0.1911 -0.4585 -0.1016
 2364SOL    HW125084   2.286   9.074   5.402 -0.4590  0.1810 -0.0542
 2364SOL    HW225085   2.352   8.992   5.511 -1.0607 -0.9346 -0.5096
 2365SOL     OW25086   6.420  10.915   8.050  0.0526  0.2703  0.2611
 2365SOL    HW125087   6.505  10.926   8.093 -0.5440 -0.7712  1.8211
 2365SOL    HW225088   6.362  10.975   8.097 -0.0321  1.2539 -1.0431
 2366SOL     OW25089   1.061   8.195   6.398  0.2470  0.5610 -0.1613
 2366SOL    HW125090   1.129   8.131   6.418  0.1588  0.2217 -0.9045
 2366SOL    HW225091   1.108   8.269   6.360  0.2265  0.4133 -0.4791
 2367SOL     OW25092   2.572   8.330   5.855 -0.4661 -0.0056 -0.2297
 2367SOL    HW125093   2.643   8.386   5.888 -0.2012 -1.3067  1.5351
 2367SOL    HW225094   2.498   8.390   5.844 -0.2150  0.7279  1.6570
 2368SOL     OW25095   7.020   1.705  11.602  0.3950  0.0519 -0.7977
 2368SOL    HW125096   7.035   1.620  11.559  0.0886 -0.5844  0.3075
 2368SOL    HW225097   6.948   1.744  11.553 -0.2878 -0.8841 -0.5562
 2369SOL     OW25098   3.369   8.730   6.712 -0.9524  0.6032  0.1352
 2369SOL    HW125099   3.352   8.806   6.767 -1.7854 -0.4218  1.3464
 2369SOL    HW225100   3.339   8.757   6.625 -1.3280  1.6122  0.5591
 2370SOL     OW25101   5.563   4.021  10.551  0.0675  0.2115 -0.4274
 2370SOL    HW125102   5.655   4.005  10.572 -0.2430  0.1024  1.0143
 2370SOL    HW225103   5.527   4.059  10.631 -1.0663  0.5655 -1.0840
 2371SOL     OW25104  13.176   7.332  10.366 -0.2209 -0.0632 -0.3899
 2371SOL    HW125105  13.179   7.427  10.353 -1.3360 -0.0741 -0.7739
 2371SOL    HW225106  13.144   7.321  10.456  0.7896 -0.0810 -0.0152
 2372SOL     OW25107  11.251   7.868   2.742 -0.1711  0.1845  0.7872
 2372SOL    HW125108  11.212   7.912   2.667 -1.0741 -1.7953  0.0198
 2372SOL    HW225109  11.344   7.892   2.740 -0.2625  0.4723 -0.7339
 2373SOL     OW25110   3.087   9.447   7.034  0.1173  0.1084  0.0556
 2373SOL    HW125111   3.073   9.519   7.096  0.6979  0.5488 -0.3047
 2373SOL    HW225112   3.171   9.468   6.992 -0.0514 -0.4104 -0.5605
 2374SOL     OW25113  11.551  13.075   9.475  0.1404  0.3751  0.2772
 2374SOL    HW125114  11.644  13.096   9.483 -0.0535  1.5167 -0.3542
 2374SOL    HW225115  11.505  13.155   9.501 -0.6395  0.2314 -0.5881
 2375SOL     OW25116   9.794  12.959   4.817 -0.0086  0.0641  0.6749
 2375SOL    HW125117   9.764  12.874   4.851  1.6455  0.2117  2.7485
 2375SOL    HW225118   9.838  12.938   4.735 -1.0291 -0.8437  0.3346
 2376SOL     OW25119  11.232  10.981   8.531  0.2536 -0.0940  0.1473
 2376SOL    HW125120  11.214  11.074   8.521  1.0721 -0.0491 -1.1481
 2376SOL    HW225121  11.317  10.968   8.489  0.1676 -1.4291  0.3334
 2377SOL     OW25122  11.086   6.366   6.150 -0.1958 -0.2538 -0.3637
 2377SOL    HW125123  11.086   6.402   6.239  0.9131  0.4235 -0.6186
 2377SOL    HW225124  11.172   6.326   6.140  0.0063  0.3960 -1.4035
 2378SOL     OW25125   7.293   2.944   5.694 -0.1871 -0.6891  0.0544
 2378SOL    HW125126   7.280   2.950   5.600  0.3852  0.9881  0.0452
 2378SOL    HW225127   7.212   2.980   5.731  0.5470  0.9541  0.1365
 2379SOL     OW25128   5.570   0.629   7.850 -0.4250 -0.2403 -0.3608
 2379SOL    HW125129   5.485   0.650   7.810 -1.3804 -1.6137  0.8441
 2379SOL    HW225130   5.555   0.641   7.943  0.8116 -0.2354 -0.1561
 2380SOL     OW25131   8.281  13.624  10.916 -0.2773  0.1427 -0.0065
 2380SOL    HW125132   8.190  13.597  10.899 -0.1997 -0.6803  0.7841
 2380SOL    HW225133   8.321  13.547  10.956  0.9784  0.2510 -0.9800
 2381SOL     OW25134   0.780   2.631  11.767 -0.6574  0.5061 -0.2258
 2381SOL    HW125135   0.796   2.711  11.818 -1.8978  1.9092 -1.9120
 2381SOL    HW225136   0.818   2.649  11.681 -1.7390 -0.3483 -0.9147
 2382SOL     OW25137   6.832  13.964   7.371  0.1498 -0.3925 -0.1193
 2382SOL    HW125138   6.913  13.924   7.340  0.2702  1.3637 -2.3397
 2382SOL    HW225139   6.762  13.912   7.330 -0.0019 -2.6296  2.7089
 2383SOL     OW25140   9.368   8.889   2.058 -0.1943 -0.7121 -0.0294
 2383SOL    HW125141   9.300   8.857   2.117 -0.9153  0.0096 -0.4575
 2383SOL    HW225142   9.350   8.982   2.049  1.0345 -0.4419  0.0826
 2384SOL     OW25143   5.746   1.423   0.741 -0.4087 -0.2606 -0.4134
 2384SOL    HW125144   5.800   1.462   0.672  0.2948  0.2886  0.4211
 2384SOL    HW225145   5.734   1.332   0.714 -0.1619 -0.0519 -1.2629
 2385SOL     OW25146  13.486  11.207   6.056  0.1155  0.0301  0.4306
 2385SOL    HW125147  13.394  11.213   6.082 -0.1742 -0.2307 -0.4963
 2385SOL    HW225148  13.522  11.138   6.112 -1.2693 -2.7500 -1.8598
 2386SOL     OW25149   6.217   6.331   5.362 -0.2917  0.2638 -0.2549
 2386SOL    HW125150   6.140   6.372   5.324 -0.2795 -0.2330 -0.8313
 2386SOL    HW225151   6.213   6.352   5.456 -0.6034  1.0516 -0.4473
 2387SOL     OW25152  11.706   8.625   1.753 -0.6290 -0.3427  0.3069
 2387SOL    HW125153  11.784   8.632   1.697  1.2527 -2.1672  2.4660
 2387SOL    HW225154  11.634   8.612   1.692  1.2583 -1.9420 -1.7837
 2388SOL     OW25155   4.493  10.722  12.225  0.5533 -0.4516 -0.1832
 2388SOL    HW125156   4.450  10.637  12.215 -1.3799  0.3179  0.9665
 2388SOL    HW225157   4.447  10.779  12.163 -0.3747  0.4585  1.2765
 2389SOL     OW25158   3.706   0.130   6.682  0.2325  0.1446 -0.5195
 2389SOL    HW125159   3.617   0.162   6.670  0.8786  1.5995 -1.7835
 2389SOL    HW225160   3.719   0.066   6.612  0.6985  1.1646 -1.3901
 2390SOL     OW25161  10.243  13.420   1.237  0.3886  0.4925  0.1629
 2390SOL    HW125162  10.272  13.449   1.323 -0.2608  0.8765  0.2591
 2390SOL    HW225163  10.311  13.359   1.208  0.7514  0.5736  0.8233
 2391SOL     OW25164   0.022   8.083   9.544  0.3166  0.4213 -0.3489
 2391SOL    HW125165   0.044   8.110   9.455 -0.6139 -2.4724 -1.5830
 2391SOL    HW225166   0.105   8.084   9.591  1.3280 -0.5513 -2.0268
 2392SOL     OW25167   8.910  13.024   4.230  0.2513  0.4047 -0.2423
 2392SOL    HW125168   8.946  13.102   4.274 -1.1605  1.6241 -1.1390
 2392SOL    HW225169   8.924  13.041   4.137 -0.0727 -0.4316 -0.4449
 2393SOL     OW25170  11.857   3.410   5.798  0.6894  0.2012  0.3810
 2393SOL    HW125171  11.809   3.486   5.764  0.2602  0.2198  1.0006
 2393SOL    HW225172  11.817   3.335   5.753  2.1918  0.4325 -1.4470
 2394SOL     OW25173   4.796  11.802   5.076 -0.2158 -0.1524 -0.4814
 2394SOL    HW125174   4.824  11.777   5.164  2.4881 -0.9530 -1.4424
 2394SOL    HW225175   4.716  11.753   5.060  0.4102 -1.6455  0.7921
 2395SOL     OW25176  14.084   4.195   2.772  0.0887 -0.2850  0.1740
 2395SOL    HW125177  14.038   4.122   2.731 -0.5057  0.1121  0.1211
 2395SOL    HW225178  14.176   4.169   2.771 -0.0085 -0.6441 -0.6589
 2396SOL     OW25179  12.154  11.955  11.024  0.5374 -0.3277 -0.1036
 2396SOL    HW125180  12.156  11.908  10.941 -1.9673  0.5391 -0.7563
 2396SOL    HW225181  12.088  11.910  11.076 -0.1507  0.9648  0.1914
 2397SOL     OW25182  12.312  10.931  13.387  0.0390 -0.2323 -0.4757
 2397SOL    HW125183  12.350  10.860  13.440 -0.7210 -1.2081 -1.1943
 2397SOL    HW225184  12.218  10.924  13.403  0.0508  1.7707  0.8105
 2398SOL     OW25185   3.136   9.093  12.920 -0.1305 -0.1974 -0.0417
 2398SOL    HW125186   3.067   9.045  12.965  1.8388 -1.2912  2.0561
 2398SOL    HW225187   3.091   9.145  12.854 -2.8331 -1.3940  0.7318
 2399SOL     OW25188  10.319  11.519   3.455 -0.1982  0.1255 -0.6035
 2399SOL    HW125189  10.362  11.597   3.491 -0.9875  0.6630 -0.7844
 2399SOL    HW225190  10.359  11.508   3.369  1.4003 -0.9202  0.2229
 2400SOL     OW25191   2.690   5.012   2.590  0.0507 -0.3104  0.0919
 2400SOL    HW125192   2.755   5.083   2.590 -0.7906  0.4827 -0.4489
 2400SOL    HW225193   2.607   5.055   2.612 -0.3471 -1.2591  0.5065
 2401SOL     OW25194  13.401   9.417  13.054 -0.8048  0.1723  0.4460
 2401SOL    HW125195  13.456   9.382  12.984 -0.0617  3.2012 -0.6303
 2401SOL    HW225196  13.311   9.399  13.025 -0.5054 -2.3419  0.8676
 2402SOL     OW25197   7.310  13.780  11.319  0.1641  0.1549 -0.0303
 2402SOL    HW125198   7.354  13.768  11.403  0.4828  1.6818  0.0455
 2402SOL    HW225199   7.381  13.789  11.255 -0.0715 -0.3772 -0.3753
 2403SOL     OW25200   1.057   2.737   1.854  0.3366  0.7780  0.6531
 2403SOL    HW125201   0.985   2.750   1.792  0.0441  0.7099  0.9772
 2403SOL    HW225202   1.120   2.805   1.831  0.0461  1.0144  0.5448
 2404SOL     OW25203  10.348   5.556   2.595  0.4131  0.1424  0.0482
 2404SOL    HW125204  10.437   5.555   2.558  0.2292 -0.0005 -0.3936
 2404SOL    HW225205  10.335   5.645   2.625 -0.3137  0.9361 -2.3876
 2405SOL     OW25206   6.160   9.592  12.092  0.4620  0.2828 -0.1399
 2405SOL    HW125207   6.208   9.512  12.111  0.2052  0.2537  0.3950
 2405SOL    HW225208   6.072   9.577  12.128  0.1844  0.5095 -0.7096
 2406SOL     OW25209   8.355   9.968  11.497  0.4872  0.2064 -0.6493
 2406SOL    HW125210   8.381  10.029  11.565  1.5905 -0.5863 -0.3269
 2406SOL    HW225211   8.406   9.889  11.515  0.2736 -0.2618 -1.9747
 2407SOL     OW25212   2.575   1.790   1.848  0.0925 -0.0497 -0.0401
 2407SOL    HW125213   2.482   1.791   1.823 -0.3830  0.3542  1.6197
 2407SOL    HW225214   2.619   1.752   1.773 -1.3315  0.4092 -1.1614
 2408SOL     OW25215  11.971   8.432   1.091 -0.1591  0.4389  0.1353
 2408SOL    HW125216  11.929   8.349   1.068  0.1170 -0.0051  1.2054
 2408SOL    HW225217  11.901   8.484   1.130 -0.2120  0.5348 -0.0823
 2409SOL     OW25218  11.013   4.014   6.788  0.0026 -0.2244  0.5283
 2409SOL    HW125219  10.990   3.954   6.859  2.3083 -0.0643  1.5155
 2409SOL    HW225220  11.020   3.958   6.710 -0.5746 -0.7367  0.8324
 2410SOL     OW25221   3.903   6.858   3.898  0.4680  0.6614  0.6073
 2410SOL    HW125222   3.915   6.784   3.838  0.1632  0.8651  0.2924
 2410SOL    HW225223   3.934   6.825   3.983 -0.9071 -0.2821  0.7825
 2411SOL     OW25224   7.066   0.955  10.605 -0.4262 -0.1191 -0.3416
 2411SOL    HW125225   7.076   0.861  10.617 -0.7475 -0.1471 -0.3077
 2411SOL    HW225226   7.149   0.992  10.636  0.0017 -0.4484 -1.0549
 2412SOL     OW25227   7.333   7.100   9.600 -0.3012  0.4479  0.2241
 2412SOL    HW125228   7.393   7.048   9.547  0.6950  0.2833  1.4764
 2412SOL    HW225229   7.354   7.191   9.578  0.0860  0.3791  0.3016
 2413SOL     OW25230   2.100   2.610   6.712 -0.4902 -0.7102  0.1879
 2413SOL    HW125231   2.181   2.562   6.696 -0.2739  0.0296 -1.0450
 2413SOL    HW225232   2.118   2.664   6.789  0.4186 -0.0678 -0.4625
 2414SOL     OW25233  13.574   6.049  14.003  0.2921  0.6755  0.0544
 2414SOL    HW125234  13.550   5.971  14.053 -0.9695 -0.3129 -1.9540
 2414SOL    HW225235  13.491   6.095  13.990  0.9634  2.1938  0.8892
 2415SOL     OW25236   4.905  12.108   0.449  0.0139 -0.0352 -0.0237
 2415SOL    HW125237   4.883  12.019   0.478  3.2170 -0.9198  0.0603
 2415SOL    HW225238   4.960  12.143   0.518  0.2729  1.3436 -0.8901
 2416SOL     OW25239  11.970  12.873  11.185  0.5056 -0.2018 -0.6263
 2416SOL    HW125240  11.949  12.870  11.092  0.0741 -1.2895 -0.5091
 2416SOL    HW225241  12.063  12.852  11.189  0.9070  1.3588 -0.8981
 2417SOL     OW25242   3.943   5.306   5.765 -0.1922 -0.1387 -0.7573
 2417SOL    HW125243   3.874   5.325   5.830 -0.2325  0.5535 -0.9897
 2417SOL    HW225244   3.921   5.219   5.731  0.5855 -1.1251  1.1211
 2418SOL     OW25245  11.954   9.938   5.707 -0.4829  0.0900 -0.3888
 2418SOL    HW125246  12.002   9.978   5.635 -1.6606  0.9617 -0.7165
 2418SOL    HW225247  11.883   9.889   5.665  0.2699 -1.4563  0.0710
 2419SOL     OW25248  11.257   2.296   6.808  0.1468  0.2990 -0.0170
 2419SOL    HW125249  11.248   2.297   6.904 -2.1173  0.2879 -0.1700
 2419SOL    HW225250  11.214   2.377   6.780 -0.0049 -0.1437 -1.0903
 2420SOL     OW25251  10.397   0.410   1.473 -0.3278  0.2517 -0.2281
 2420SOL    HW125252  10.322   0.389   1.529 -0.9926  2.7864 -0.0538
 2420SOL    HW225253  10.436   0.488   1.512  1.3565  0.0120 -1.3218
 2421SOL     OW25254  13.046  10.351   6.612 -0.1833 -0.0896  0.9244
 2421SOL    HW125255  12.955  10.379   6.604  0.5996  2.5657  0.1853
 2421SOL    HW225256  13.069  10.368   6.703 -0.3259 -0.4024  1.0181
 2422SOL     OW25257   1.455  12.023  14.098  0.0877 -0.2536  0.4393
 2422SOL    HW125258   1.413  12.101  14.133 -2.6659 -1.8702  0.9718
 2422SOL    HW225259   1.474  11.969  14.175  0.6124 -0.7772 -0.0433
 2423SOL     OW25260   3.646  11.134   5.451  0.0893 -0.4204 -0.7512
 2423SOL    HW125261   3.671  11.141   5.543 -1.1023  0.4470 -0.4542
 2423SOL    HW225262   3.550  11.131   5.453 -0.4068  4.7030 -2.1033
 2424SOL     OW25263  12.887   4.455   9.786 -0.6461  0.1445 -0.3415
 2424SOL    HW125264  12.833   4.431   9.861 -0.5922 -0.5252 -0.5138
 2424SOL    HW225265  12.831   4.514   9.735 -0.5430  0.9145  0.4099
 2425SOL     OW25266   8.435  12.450   6.270 -0.0138 -0.3592 -0.1538
 2425SOL    HW125267   8.434  12.365   6.226  0.2107 -1.1972  1.4027
 2425SOL    HW225268   8.348  12.487   6.252 -0.0165 -0.7885 -1.0757
 2426SOL     OW25269   6.496  11.283  10.050 -0.5316  0.2525 -0.3059
 2426SOL    HW125270   6.554  11.347  10.089  0.5117 -0.9025  0.1204
 2426SOL    HW225271   6.494  11.211  10.113  0.4839 -1.2797 -1.9266
 2427SOL     OW25272   1.881   6.588   3.417  0.4661  0.4937 -0.0611
 2427SOL    HW125273   1.841   6.504   3.436 -3.2386  2.0416 -0.1458
 2427SOL    HW225274   1.922   6.576   3.331 -1.7433 -0.7389 -1.0145
 2428SOL     OW25275   0.184   3.552   4.028  0.7060  0.2008  0.0217
 2428SOL    HW125276   0.202   3.465   4.063  0.3065  0.1225  0.0361
 2428SOL    HW225277   0.121   3.537   3.958 -1.8626  0.7739  2.0671
 2429SOL     OW25278   5.154  13.585   1.306 -0.0915  0.1859  0.2399
 2429SOL    HW125279   5.218  13.640   1.260  0.1411  0.1306  0.4902
 2429SOL    HW225280   5.092  13.558   1.239 -0.9858  1.8468  0.3510
 2430SOL     OW25281  11.025  11.982  11.631 -0.0834  0.3280 -0.0110
 2430SOL    HW125282  10.944  12.021  11.663 -0.1221  0.3263 -0.1063
 2430SOL    HW225283  10.997  11.922  11.562 -0.3561 -2.1844  2.1146
 2431SOL     OW25284   9.828   7.689   5.799  0.3008  0.5921 -0.6130
 2431SOL    HW125285   9.914   7.717   5.831  0.7673 -1.1128 -0.2601
 2431SOL    HW225286   9.842   7.599   5.770 -2.0346 -0.9201  2.4125
 2432SOL     OW25287   9.101   6.596   7.413 -0.1221  0.4311  0.3281
 2432SOL    HW125288   9.163   6.524   7.407  0.4704  0.9482  0.1168
 2432SOL    HW225289   9.058   6.599   7.327  0.3772  0.7837  0.0846
 2433SOL     OW25290  12.922   4.030   9.177 -0.4229 -0.1165 -0.4243
 2433SOL    HW125291  12.860   3.956   9.184 -0.7788 -0.0655 -2.3656
 2433SOL    HW225292  12.902   4.085   9.253 -0.0832 -2.0150  1.1418
 2434SOL     OW25293  10.604   8.191  10.852  0.0476 -0.1571  0.4771
 2434SOL    HW125294  10.591   8.249  10.927  0.8573 -0.8330  1.1571
 2434SOL    HW225295  10.569   8.107  10.881 -1.2988 -0.0056 -0.5741
 2435SOL     OW25296   9.824   0.741   8.329  0.0632  0.1430  0.5083
 2435SOL    HW125297   9.896   0.798   8.302  1.1191 -2.3279 -2.4410
 2435SOL    HW225298   9.748   0.773   8.280  0.0681  0.3753  0.6458
 2436SOL     OW25299  10.160   0.127   7.155  0.0241  0.1843 -0.2283
 2436SOL    HW125300  10.179   0.220   7.144 -0.8208  0.2750 -1.0862
 2436SOL    HW225301  10.237   0.082   7.121 -0.8019  0.5478 -2.8303
 2437SOL     OW25302   7.115   0.194  10.436 -0.3476  0.0231 -0.7621
 2437SOL    HW125303   7.112   0.126  10.368 -0.8304 -1.2738  0.5066
 2437SOL    HW225304   7.086   0.149  10.515  3.3183  0.5667  1.1063
 2438SOL     OW25305   9.377  13.119   3.379  0.0130 -0.1143 -0.3013
 2438SOL    HW125306   9.351  13.075   3.298 -1.5868  0.9518 -0.4091
 2438SOL    HW225307   9.337  13.066   3.448  0.4691 -0.4080 -0.2561
 2439SOL     OW25308   9.040   8.811  13.138 -0.1580 -0.2926  0.0286
 2439SOL    HW125309   9.065   8.763  13.217  1.3072  1.2843  0.5997
 2439SOL    HW225310   8.970   8.869  13.167  0.6105  0.5309  0.3052
 2440SOL     OW25311  11.326   4.010  12.730  0.3760 -0.7038  0.1021
 2440SOL    HW125312  11.288   4.097  12.718  2.4408  0.1701 -0.4601
 2440SOL    HW225313  11.389   4.021  12.801  1.3570 -1.4778 -0.6141
 2441SOL     OW25314   8.195   2.446  10.765 -0.2306  0.4319  0.2657
 2441SOL    HW125315   8.238   2.531  10.776 -1.1484  0.9895 -0.3086
 2441SOL    HW225316   8.197   2.407  10.853  1.7253  0.2714  0.1876
 2442SOL     OW25317  12.932   1.243  11.035 -0.5045  0.1011  0.6115
 2442SOL    HW125318  12.937   1.193  11.117  0.4750 -1.0228 -0.1021
 2442SOL    HW225319  12.845   1.282  11.037 -0.5750 -0.0537  2.0979
 2443SOL     OW25320   5.671   7.461   9.523 -0.2186  0.2322  0.0674
 2443SOL    HW125321   5.613   7.417   9.460 -0.4323  0.0384  0.3971
 2443SOL    HW225322   5.662   7.554   9.504 -2.0170  0.3429  1.2703
 2444SOL     OW25323  12.108  11.458   0.139 -0.8762  0.2155 -0.3782
 2444SOL    HW125324  12.152  11.374   0.124 -0.3891  0.0218  1.8200
 2444SOL    HW225325  12.039  11.438   0.202  0.1772  1.6682  1.3213
 2445SOL     OW25326  12.262   6.083  12.094 -0.6866  0.1310 -0.2775
 2445SOL    HW125327  12.300   6.003  12.058  2.1156  1.6399 -0.9414
 2445SOL    HW225328  12.185   6.099  12.040 -0.1553 -1.0356 -1.4305
 2446SOL     OW25329   1.670  13.378   1.668 -0.1809  0.0166 -0.3022
 2446SOL    HW125330   1.650  13.302   1.614 -0.3212 -0.3889  0.3127
 2446SOL    HW225331   1.671  13.345   1.757 -2.2053  1.1059  0.1866
 2447SOL     OW25332   0.704   7.046  10.886  0.0749 -0.2588  0.7955
 2447SOL    HW125333   0.739   7.136  10.891 -0.3345  0.0751 -1.4563
 2447SOL    HW225334   0.729   7.015  10.799 -1.4365 -1.6407  0.8078
 2448SOL     OW25335   3.223  11.436   1.059  0.0189  0.0489  0.3149
 2448SOL    HW125336   3.180  11.472   0.982 -0.8617 -1.8028 -0.1064
 2448SOL    HW225337   3.155  11.432   1.126 -0.2239 -1.8251  0.0012
 2449SOL     OW25338   0.310   4.024  12.784  0.3383  0.2900  0.0338
 2449SOL    HW125339   0.249   4.011  12.711  0.4793  0.5588 -0.1332
 2449SOL    HW225340   0.370   3.949  12.778  0.7438  0.6497 -0.5248
 2450SOL     OW25341   1.951  14.000   0.636 -0.1965  0.4515 -0.0602
 2450SOL    HW125342   1.914  14.042   0.714 -0.4833  0.8892 -0.4350
 2450SOL    HW225343   2.034  14.045   0.621 -0.0608  0.2549  0.0847
 2451SOL     OW25344  13.051   6.183   7.591  0.3101  0.0682  0.1272
 2451SOL    HW125345  13.045   6.249   7.660  0.2710  0.1433  0.0528
 2451SOL    HW225346  12.962   6.174   7.558  0.2719 -0.2043  0.3051
 2452SOL     OW25347  10.605  13.351  11.644  0.3985 -0.1813  0.2800
 2452SOL    HW125348  10.530  13.409  11.634  0.5068  0.0293  0.6596
 2452SOL    HW225349  10.588  13.278  11.584 -0.9500 -1.0129  1.5907
 2453SOL     OW25350  10.437  12.775  13.860 -0.2813 -0.6694 -0.0712
 2453SOL    HW125351  10.405  12.821  13.782  0.3965 -1.4754 -0.8481
 2453SOL    HW225352  10.532  12.777  13.852 -0.2167 -3.2179 -0.7948
 2454SOL     OW25353   8.447  12.532   7.150 -0.2608 -0.0566  0.0202
 2454SOL    HW125354   8.497  12.602   7.107 -0.7046 -0.2817 -0.8924
 2454SOL    HW225355   8.361  12.535   7.108 -0.0510 -1.6407 -0.5741
 2455SOL     OW25356   4.337  13.072   1.879 -0.1438 -0.0276 -0.6789
 2455SOL    HW125357   4.407  13.137   1.878  0.8141 -0.9867 -3.2155
 2455SOL    HW225358   4.370  13.002   1.937 -1.1379  1.5285  1.9738
 2456SOL     OW25359   6.293  14.059  13.592  0.1018 -1.0120  0.4656
 2456SOL    HW125360   6.210  14.090  13.556  0.4909 -0.5769 -0.0644
 2456SOL    HW225361   6.296  14.098  13.680 -0.7463 -1.9055  0.9044
 2457SOL     OW25362   5.601  13.332  13.893  0.7751 -0.1618  0.4976
 2457SOL    HW125363   5.612  13.421  13.927  0.7382 -0.3936  1.1329
 2457SOL    HW225364   5.538  13.291  13.952  0.0822 -0.3263 -0.3412
 2458SOL     OW25365   0.999  13.498   1.168 -0.0504 -0.2133  0.3116
 2458SOL    HW125366   0.951  13.459   1.095 -0.0697  3.0660 -1.6246
 2458SOL    HW225367   1.091  13.497   1.139 -0.2394  2.7466 -0.8043
 2459SOL     OW25368   9.102  12.999  13.535  0.5253  0.0268  0.0644
 2459SOL    HW125369   9.075  13.044  13.615  1.7369  0.1189  0.4422
 2459SOL    HW225370   9.195  12.982  13.547  0.5453 -0.7160 -0.9748
 2460SOL     OW25371  12.034  13.225   7.390 -0.2048  0.0626 -0.2751
 2460SOL    HW125372  12.064  13.230   7.480  0.6128 -1.0306 -0.4762
 2460SOL    HW225373  11.965  13.291   7.384  0.3425  0.7649  0.9017
 2461SOL     OW25374   2.522   3.370  12.951  0.0909  0.1460 -0.0241
 2461SOL    HW125375   2.477   3.288  12.931  0.4513 -0.6071  1.9817
 2461SOL    HW225376   2.612   3.345  12.971 -0.1265  0.7594  2.0426
 2462SOL     OW25377  12.604   6.675  12.621  0.8216 -0.1290 -0.9490
 2462SOL    HW125378  12.645   6.753  12.657  0.4819 -0.2313 -0.3365
 2462SOL    HW225379  12.615   6.608  12.689  1.5765 -0.7733 -1.6680
 2463SOL     OW25380   6.427   0.270  10.174 -0.4056  0.5502  0.0061
 2463SOL    HW125381   6.382   0.262  10.091 -0.8813 -0.4134  0.3520
 2463SOL    HW225382   6.419   0.184  10.215  0.8024  0.6700  0.5551
 2464SOL     OW25383   9.622  11.818   2.877  0.1334 -0.7827  0.1818
 2464SOL    HW125384   9.565  11.892   2.859  1.2891  0.2715  0.6850
 2464SOL    HW225385   9.587  11.779   2.957  0.2795  0.0520  0.6662
 2465SOL     OW25386   7.264   2.626  10.422  0.1429 -0.9364  0.5579
 2465SOL    HW125387   7.258   2.682  10.499  1.2168  1.1287 -0.7856
 2465SOL    HW225388   7.242   2.683  10.348  1.1957 -2.2985 -0.8768
 2466SOL     OW25389   4.998  10.841   8.097 -0.2619 -0.1427 -0.6480
 2466SOL    HW125390   5.012  10.756   8.139  0.5738  0.3307  0.0826
 2466SOL    HW225391   4.904  10.857   8.105 -0.5699 -1.3587 -1.5442
 2467SOL     OW25392  13.953   2.496   4.725 -0.0040  0.0869 -0.1266
 2467SOL    HW125393  14.016   2.426   4.742 -0.0423 -0.0873 -0.6719
 2467SOL    HW225394  13.869   2.460   4.752  0.3759  1.1280  2.7956
 2468SOL     OW25395  13.788   6.713   2.878 -0.2042 -0.6304 -0.0429
 2468SOL    HW125396  13.720   6.775   2.905 -0.1818 -0.5364 -0.1945
 2468SOL    HW225397  13.763   6.630   2.918  1.1885  0.0250  2.3946
 2469SOL     OW25398   2.915   3.377  13.412 -0.1277 -0.0661  0.3603
 2469SOL    HW125399   2.984   3.350  13.351 -1.6291 -1.3103 -0.8451
 2469SOL    HW225400   2.861   3.438  13.362 -0.5604  0.0189  0.9232
 2470SOL     OW25401   8.613   1.020   2.711  0.0886  0.4641 -0.0304
 2470SOL    HW125402   8.535   0.982   2.751 -0.6681  3.3102  1.4744
 2470SOL    HW225403   8.685   0.966   2.743 -1.0507 -0.9195  0.3076
 2471SOL     OW25404   2.086   9.345   0.229  0.0854  0.0131  0.2579
 2471SOL    HW125405   2.065   9.363   0.137 -0.7223  0.7337  0.5775
 2471SOL    HW225406   2.024   9.278   0.255  0.4968 -0.3927  0.2078
 2472SOL     OW25407   9.466   7.931   1.457  0.3980 -0.5070  0.7429
 2472SOL    HW125408   9.388   7.977   1.488 -1.2312 -1.9734 -0.9591
 2472SOL    HW225409   9.436   7.843   1.437  2.6279 -1.2721  0.4586
 2473SOL     OW25410  10.758  10.289   7.683  0.2007  0.4586  0.2464
 2473SOL    HW125411  10.671  10.320   7.706 -0.7753 -0.9593 -1.2873
 2473SOL    HW225412  10.790  10.246   7.763 -1.6381 -1.3016  0.1262
 2474SOL     OW25413   6.208  12.096   4.070  0.0115  0.0262  0.1673
 2474SOL    HW125414   6.217  12.157   4.144 -0.7828 -0.8657  1.0301
 2474SOL    HW225415   6.278  12.032   4.084 -1.8772 -1.8034  1.8385
 2475SOL     OW25416  12.415   6.669  10.206  0.1496  0.4825 -0.0897
 2475SOL    HW125417  12.457   6.685  10.291  0.8791 -1.0252 -0.1346
 2475SOL    HW225418  12.322   6.657  10.228  0.5529 -1.5780  0.7929
 2476SOL     OW25419  13.708  11.829   7.612 -0.4423  0.0804  0.0789
 2476SOL    HW125420  13.651  11.785   7.676  0.1151 -0.6597  0.0815
 2476SOL    HW225421  13.760  11.890   7.664  0.7500 -1.2569  0.5305
 2477SOL     OW25422   0.025   6.292   1.422  0.2937 -0.7535 -0.3386
 2477SOL    HW125423  -0.020   6.341   1.353 -4.2554 -2.8507  0.8104
 2477SOL    HW225424   0.008   6.342   1.502 -1.1329 -2.1694  0.2822
 2478SOL     OW25425  10.463   4.283   8.792 -0.0003  0.1922  0.1139
 2478SOL    HW125426  10.557   4.298   8.789  0.3744 -1.9287 -1.9241
 2478SOL    HW225427  10.436   4.285   8.700 -1.6763 -0.6911  0.5575
 2479SOL     OW25428  10.638   0.661  10.068  0.1602  0.1433 -0.2621
 2479SOL    HW125429  10.552   0.632  10.099 -0.0230 -0.0112 -0.8950
 2479SOL    HW225430  10.639   0.637   9.975  0.9517 -0.0081 -0.2210
 2480SOL     OW25431   8.234   8.921   5.474 -0.0810  0.0124 -0.2999
 2480SOL    HW125432   8.165   8.925   5.408  0.8470 -3.3964 -1.6901
 2480SOL    HW225433   8.315   8.919   5.423  1.0165  2.1505  1.2286
 2481SOL     OW25434   4.052   9.810   8.636  0.3087 -0.2888 -0.6361
 2481SOL    HW125435   4.093   9.877   8.691  0.5104 -1.5825  0.8679
 2481SOL    HW225436   4.102   9.731   8.653 -0.2367 -0.9578 -1.9879
 2482SOL     OW25437  10.375   6.330  13.655 -0.1340 -0.1603 -0.1700
 2482SOL    HW125438  10.312   6.317  13.727  0.5074 -0.8379  0.2827
 2482SOL    HW225439  10.460   6.315  13.695  0.3903  1.3636 -0.6290
 2483SOL     OW25440   2.628   0.572   1.952 -0.4039 -0.2298 -0.1294
 2483SOL    HW125441   2.704   0.577   2.010 -0.3880 -1.3446 -0.0359
 2483SOL    HW225442   2.611   0.663   1.926  0.7344  0.0695  0.1342
 2484SOL     OW25443  12.805   1.530   6.743  0.6865 -0.3463 -0.2217
 2484SOL    HW125444  12.741   1.465   6.714  0.9059 -0.5202 -0.3224
 2484SOL    HW225445  12.765   1.614   6.723  0.6087 -0.4586 -0.5416
 2485SOL     OW25446   1.079  14.006  10.862  0.0818  0.3723 -0.3710
 2485SOL    HW125447   1.070  14.054  10.780  0.8246  0.1826 -0.5704
 2485SOL    HW225448   1.039  13.921  10.844 -2.5812  1.3501  0.4282
 2486SOL     OW25449  10.888  14.097   9.941  0.1984 -0.0388  0.3609
 2486SOL    HW125450  10.944  14.160   9.986 -1.0238  1.4472 -0.1105
 2486SOL    HW225451  10.945  14.055   9.876  1.0438  0.5364  0.7239
 2487SOL     OW25452   1.767   9.458   8.007 -0.0871 -0.1439 -0.2842
 2487SOL    HW125453   1.858   9.480   8.029 -0.3709  0.2904  0.4987
 2487SOL    HW225454   1.765   9.458   7.911  0.7485 -0.2023 -0.3117
 2488SOL     OW25455   5.065   0.385   2.968 -0.0234 -0.2403  0.1683
 2488SOL    HW125456   5.065   0.419   2.878 -1.5900 -0.6031 -0.0021
 2488SOL    HW225457   5.017   0.452   3.018  0.6415 -0.1521  0.7002
 2489SOL     OW25458   0.048   2.047   1.535 -0.7051  0.3659  0.8153
 2489SOL    HW125459   0.101   1.997   1.597 -0.6521  0.0221  0.4974
 2489SOL    HW225460  -0.028   2.076   1.585 -0.5834  0.2294  1.0809
 2490SOL     OW25461   8.328   9.695   9.978  0.2635  0.1003 -0.0079
 2490SOL    HW125462   8.383   9.721  10.052 -0.1227 -2.6107  1.3683
 2490SOL    HW225463   8.368   9.738   9.902  3.4249 -0.5172  1.1492
 2491SOL     OW25464   2.718   9.548   7.303  0.3755 -0.6582  0.6280
 2491SOL    HW125465   2.673   9.570   7.385  0.4215 -1.1597  0.7903
 2491SOL    HW225466   2.664   9.480   7.264  0.0345 -0.0162 -0.0535
 2492SOL     OW25467  10.022  12.009   3.072  0.0955  0.2416 -0.3247
 2492SOL    HW125468  10.005  11.963   2.990 -0.8482 -1.0550  0.5529
 2492SOL    HW225469   9.957  11.974   3.133  0.0460  1.9881  0.6904
 2493SOL     OW25470   3.307  13.892   0.186  0.2802  0.4435  0.4726
 2493SOL    HW125471   3.344  13.939   0.112  0.4054  1.1984  1.0003
 2493SOL    HW225472   3.327  13.800   0.169  1.1334  0.7021  0.0340
 2494SOL     OW25473  14.124   4.650   6.407  0.4756  0.5182 -0.4468
 2494SOL    HW125474  14.210   4.687   6.428 -0.5565  2.1060  1.2728
 2494SOL    HW225475  14.106   4.589   6.479  0.4447 -0.3437 -1.1705
 2495SOL     OW25476   6.946  10.401   0.525  0.2279  0.0969 -0.0837
 2495SOL    HW125477   7.022  10.429   0.475  0.9369 -1.1125  0.2801
 2495SOL    HW225478   6.945  10.306   0.517 -2.0861  0.1465 -1.2639
 2496SOL     OW25479   1.370   9.267  11.867  0.5506  0.2963 -0.9901
 2496SOL    HW125480   1.421   9.227  11.937 -0.2998 -1.6214 -1.4042
 2496SOL    HW225481   1.296   9.308  11.912 -0.1908 -1.2401 -0.7389
 2497SOL     OW25482  13.826   2.169   5.275 -0.3889 -0.0168 -0.1425
 2497SOL    HW125483  13.846   2.115   5.198 -0.2192  1.2864 -1.0509
 2497SOL    HW225484  13.820   2.258   5.241 -2.1983  0.3830  1.0420
 2498SOL     OW25485   2.217   1.208  11.581 -0.0910  0.2354 -0.7320
 2498SOL    HW125486   2.249   1.247  11.662  0.0610 -1.9240  0.3206
 2498SOL    HW225487   2.142   1.262  11.555  0.2556  1.3285  0.5041
 2499SOL     OW25488   2.237   8.614   9.383  0.3832  0.7973 -0.5477
 2499SOL    HW125489   2.153   8.587   9.421  0.1166  1.1617 -0.8775
 2499SOL    HW225490   2.289   8.534   9.383 -0.1954  0.4069 -0.9617
 2500SOL     OW25491   8.763  11.060   0.994 -0.6550  0.1489  0.0509
 2500SOL    HW125492   8.769  11.116   1.072  3.6027  0.7146 -0.4253
 2500SOL    HW225493   8.719  11.115   0.929 -5.3465 -0.7242  2.0918
 2501SOL     OW25494   0.704  13.380   6.190  0.2745  0.4175  0.1428
 2501SOL    HW125495   0.666  13.406   6.106  1.3829 -1.6959 -1.0948
 2501SOL    HW225496   0.629  13.346   6.240 -0.6949  3.2248  0.7494
 2502SOL     OW25497  11.973   7.636  13.507  0.5500  0.2219  0.3402
 2502SOL    HW125498  12.060   7.601  13.526 -0.1151 -0.6610  1.8928
 2502SOL    HW225499  11.913   7.584  13.561 -1.0420  0.3207 -1.2456
 2503SOL     OW25500  11.174  13.882   1.751  0.4280 -0.6542  0.6677
 2503SOL    HW125501  11.199  13.882   1.659 -1.2052 -0.0292  0.1981
 2503SOL    HW225502  11.221  13.956   1.789  0.2022 -0.2002  0.0677
 2504SOL     OW25503   3.059   8.059   7.883  0.6720 -0.1741 -0.3039
 2504SOL    HW125504   2.977   8.029   7.924  0.6961  0.2885  0.0866
 2504SOL    HW225505   3.110   7.979   7.871  0.5791 -0.3423  0.3846
 2505SOL     OW25506  13.124   3.917   3.740 -0.1378 -0.5821  0.0004
 2505SOL    HW125507  13.125   3.838   3.794 -1.0924 -2.1794 -2.1939
 2505SOL    HW225508  13.205   3.914   3.690 -0.2824 -0.2902 -0.2607
 2506SOL     OW25509  12.238  10.199   3.252  0.1154 -0.9088 -0.1133
 2506SOL    HW125510  12.294  10.266   3.214 -0.2359 -0.3597  0.3382
 2506SOL    HW225511  12.149  10.235   3.246 -0.1382 -1.5412 -0.3275
 2507SOL     OW25512  10.692  10.355  12.525  0.1668 -0.3113 -0.8500
 2507SOL    HW125513  10.743  10.420  12.574  0.6141  0.5738 -2.4143
 2507SOL    HW225514  10.756  10.288  12.500  0.1578 -0.2405 -1.0710
 2508SOL     OW25515   8.180   7.922  12.044  0.1754 -0.8560 -0.6312
 2508SOL    HW125516   8.113   7.856  12.063  0.0516 -0.3829  0.7353
 2508SOL    HW225517   8.157   7.996  12.100  1.2910 -0.3119 -0.8584
 2509SOL     OW25518   8.199   3.273   0.509 -0.3956  0.5706  0.0544
 2509SOL    HW125519   8.295   3.272   0.511 -0.3229  2.1765  3.2071
 2509SOL    HW225520   8.176   3.189   0.468  2.3548 -0.6592  0.7536
 2510SOL     OW25521   1.653   9.463   6.839  0.0069 -0.1399  0.0952
 2510SOL    HW125522   1.630   9.487   6.929  0.5620 -1.2018  0.5398
 2510SOL    HW225523   1.585   9.503   6.785 -0.5386  0.2045  1.0192
 2511SOL     OW25524   5.673  13.212   6.264 -0.7328 -0.4137 -0.5990
 2511SOL    HW125525   5.619  13.210   6.343 -2.4428  1.2557 -1.6367
 2511SOL    HW225526   5.740  13.277   6.284 -0.6853 -0.5656 -0.2482
 2512SOL     OW25527   3.149   7.771  14.072 -0.4120 -0.2832 -0.4211
 2512SOL    HW125528   3.079   7.814  14.023  0.3658  1.2317 -0.2693
 2512SOL    HW225529   3.228   7.791  14.023  0.2773  0.5337  0.9475
 2513SOL     OW25530  13.300   5.253   2.208  0.2901  0.0175  0.1096
 2513SOL    HW125531  13.351   5.184   2.252  2.5879  0.5223 -1.5530
 2513SOL    HW225532  13.239   5.205   2.153 -0.3207 -0.6266  1.3033
 2514SOL     OW25533  12.427   9.310  11.465 -0.7248 -0.1323  0.2869
 2514SOL    HW125534  12.388   9.258  11.394 -0.8661 -0.6114  0.7122
 2514SOL    HW225535  12.512   9.269  11.480  1.3932  2.6604 -2.6629
 2515SOL     OW25536   1.140  12.837   5.743 -0.2610  0.2686 -0.3300
 2515SOL    HW125537   1.203  12.768   5.720 -0.8270 -0.4102  0.1094
 2515SOL    HW225538   1.095  12.803   5.821 -2.4043 -0.0939 -1.6403
 2516SOL     OW25539   1.407   5.926   1.604 -0.2262  0.1739  0.6434
 2516SOL    HW125540   1.420   5.970   1.520  1.2118  0.9332  1.2175
 2516SOL    HW225541   1.317   5.894   1.602 -0.2396  0.2592 -1.1416
 2517SOL     OW25542  13.354   1.570  13.006  0.2219  0.6243 -0.0066
 2517SOL    HW125543  13.314   1.630  13.070  0.2009  0.8521 -0.2331
 2517SOL    HW225544  13.325   1.603  12.921  0.2626  0.3288 -0.1332
 2518SOL     OW25545   3.695   7.672   0.137  0.1773 -0.3851 -0.2419
 2518SOL    HW125546   3.621   7.734   0.139  3.0407  3.7389 -3.7259
 2518SOL    HW225547   3.692   7.634   0.049  2.7962  0.9758 -1.0203
 2519SOL     OW25548   3.862   0.002   7.756  0.2477  0.1550  0.3085
 2519SOL    HW125549   3.829   0.090   7.742 -0.5543  0.0419  1.2974
 2519SOL    HW225550   3.907   0.006   7.841  1.0175 -0.1757 -0.0735
 2520SOL     OW25551   7.260  12.312   5.501 -0.4446 -0.3133  0.7965
 2520SOL    HW125552   7.284  12.377   5.567 -0.5167  0.2761  0.2535
 2520SOL    HW225553   7.238  12.363   5.423 -3.0329 -0.8154  1.0857
 2521SOL     OW25554   2.309   6.289   8.504 -0.4955  0.3237  0.3024
 2521SOL    HW125555   2.254   6.212   8.487 -0.6771  0.9278 -2.2183
 2521SOL    HW225556   2.247   6.362   8.506  0.0774  0.9604 -2.1784
 2522SOL     OW25557  12.773   5.748   1.523  0.0803 -0.2016  0.3082
 2522SOL    HW125558  12.688   5.791   1.537  0.4052  0.2758  0.8583
 2522SOL    HW225559  12.766   5.665   1.571 -0.8184 -1.1569 -1.3630
 2523SOL     OW25560   5.334   8.812   9.036 -0.0752  0.2940  0.4059
 2523SOL    HW125561   5.248   8.837   9.003  0.5843  1.1727 -0.7423
 2523SOL    HW225562   5.320   8.729   9.080 -1.6764  0.8690  1.0500
 2524SOL     OW25563   8.534   4.853  10.014  0.1397  0.3992  0.3683
 2524SOL    HW125564   8.497   4.942  10.020 -1.6978 -0.3005  0.0698
 2524SOL    HW225565   8.494   4.816   9.935  1.2086 -0.5598  0.2605
 2525SOL     OW25566   9.060  11.639  11.972 -0.0330  0.0903  0.2070
 2525SOL    HW125567   9.116  11.683  12.036  0.3078 -2.0702  1.5320
 2525SOL    HW225568   8.972  11.674  11.987  0.2998  0.6673  0.8305
 2526SOL     OW25569  11.489   8.256   0.801  0.4633  0.0392  0.1637
 2526SOL    HW125570  11.535   8.270   0.718  0.9693  0.6281  0.5282
 2526SOL    HW225571  11.530   8.319   0.861  0.0772 -0.3560  0.8472
 2527SOL     OW25572   9.014   5.391   8.277  0.1718  0.5830  0.2202
 2527SOL    HW125573   9.034   5.340   8.199 -2.1596  1.1138 -0.8131
 2527SOL    HW225574   9.094   5.440   8.295  1.0715 -0.2795 -1.2463
 2528SOL     OW25575   4.007   9.256   1.191 -0.0142 -0.9459  0.4938
 2528SOL    HW125576   3.928   9.252   1.136 -0.2235 -0.7484  0.7731
 2528SOL    HW225577   4.077   9.279   1.131 -0.2426 -0.7246  0.3089
 2529SOL     OW25578  10.500   5.408   1.938 -0.3846  0.3656  0.3579
 2529SOL    HW125579  10.470   5.465   2.009 -5.4809 -0.6902 -0.5289
 2529SOL    HW225580  10.429   5.412   1.873  1.7114 -2.5044 -2.4021
 2530SOL     OW25581  13.476  13.237   5.706 -0.4310  0.5105  0.0993
 2530SOL    HW125582  13.557  13.271   5.745 -0.6457  0.8089  0.2971
 2530SOL    HW225583  13.495  13.229   5.613 -0.3415  1.1064  0.0574
 2531SOL     OW25584  13.866   2.002  13.126 -0.2350 -0.5829 -0.1284
 2531SOL    HW125585  13.792   2.061  13.109 -0.0088 -0.2754 -0.0541
 2531SOL    HW225586  13.943   2.052  13.099  0.0174 -0.5999  0.5304
 2532SOL     OW25587  10.230   8.448   1.941 -0.5130 -0.4638 -0.3008
 2532SOL    HW125588  10.195   8.376   1.993 -3.0212  0.6797 -0.2687
 2532SOL    HW225589  10.231   8.523   2.001 -0.2602  0.0939 -0.9845
 2533SOL     OW25590   4.967  10.746   5.882 -0.5304  0.2188  0.1319
 2533SOL    HW125591   5.045  10.754   5.827 -0.0381 -1.5813  0.4944
 2533SOL    HW225592   4.944  10.836   5.905  2.2003  0.7662  1.0733
 2534SOL     OW25593   6.209   1.938  13.111 -0.6141 -0.4562  0.2862
 2534SOL    HW125594   6.284   1.997  13.112 -1.5495  0.8186 -1.0483
 2534SOL    HW225595   6.138   1.990  13.075 -1.5046 -2.3702 -0.8583
 2535SOL     OW25596   4.687   9.251   8.529  0.7536  0.1474  0.0637
 2535SOL    HW125597   4.713   9.342   8.520 -0.3655  0.3498 -1.6679
 2535SOL    HW225598   4.612   9.253   8.588  0.3481  0.4342 -0.4552
 2536SOL     OW25599  10.349   0.966  12.918  0.5561 -0.0829 -0.0597
 2536SOL    HW125600  10.279   0.940  12.978  1.7739 -0.1554  1.3964
 2536SOL    HW225601  10.416   0.898  12.928  0.8411 -0.0295 -1.4385
 2537SOL     OW25602   2.910  13.727  11.355  0.1423 -0.1730  0.1120
 2537SOL    HW125603   2.837  13.690  11.405  0.5171  0.2537  1.0015
 2537SOL    HW225604   2.980  13.737  11.420  1.0129 -0.6345 -0.7357
 2538SOL     OW25605  11.928   9.910   7.059  0.0424 -0.0825  0.6488
 2538SOL    HW125606  11.911   9.964   6.981 -1.9001 -0.2086  0.9180
 2538SOL    HW225607  11.968   9.970   7.121 -0.6709  0.6784  0.4028
 2539SOL     OW25608   9.913   8.368   5.236  0.1552  0.1008 -0.0040
 2539SOL    HW125609   9.925   8.273   5.236  0.1427  0.0986 -0.3446
 2539SOL    HW225610   9.956   8.398   5.156 -0.0056  0.3594  0.0044
 2540SOL     OW25611   4.054   5.287   6.563 -0.2302  0.0062 -0.6178
 2540SOL    HW125612   4.003   5.291   6.644 -0.4950  0.9079 -0.8305
 2540SOL    HW225613   4.063   5.378   6.535  0.0645 -0.2822 -1.4828
 2541SOL     OW25614   4.302   9.299  11.299 -0.0800  0.0772 -0.2788
 2541SOL    HW125615   4.253   9.260  11.227 -0.0456  0.1704 -0.3536
 2541SOL    HW225616   4.349   9.226  11.338  0.2493  0.1002 -0.6290
 2542SOL     OW25617  13.330  13.141   2.176  0.5194 -0.1760 -0.0741
 2542SOL    HW125618  13.394  13.213   2.167  1.0762 -0.7271 -0.6120
 2542SOL    HW225619  13.310  13.116   2.086  0.3086 -0.6789  0.1099
 2543SOL     OW25620   3.282  13.621   8.450  0.2340  0.5188 -0.3256
 2543SOL    HW125621   3.194  13.646   8.477 -0.5746 -2.1461 -0.2266
 2543SOL    HW225622   3.305  13.548   8.508  2.4397  1.0249 -0.4757
 2544SOL     OW25623   5.652  10.377   3.012  0.5549 -0.4514  0.3394
 2544SOL    HW125624   5.660  10.299   2.958  0.5487 -0.1433 -0.1141
 2544SOL    HW225625   5.558  10.388   3.025  0.5878 -0.8907  0.9527
 2545SOL     OW25626   4.128   0.327   8.100 -0.3259 -0.1893 -0.5467
 2545SOL    HW125627   4.208   0.308   8.051 -1.7137 -0.1360 -2.9912
 2545SOL    HW225628   4.098   0.241   8.130  1.8553 -0.0078  2.6429
 2546SOL     OW25629   1.290  11.045   9.917  0.2673 -0.0648  0.4513
 2546SOL    HW125630   1.342  10.994   9.856  0.6223  0.1155  0.5972
 2546SOL    HW225631   1.202  11.046   9.880  0.7794  1.2533 -0.8278
 2547SOL     OW25632  12.320  14.084  12.192 -0.1194  0.6416  0.0303
 2547SOL    HW125633  12.231  14.078  12.158  0.6388  2.3499 -2.5753
 2547SOL    HW225634  12.314  14.147  12.264 -1.0389  0.6162 -0.0118
 2548SOL     OW25635   9.819   6.465   5.368 -0.2405 -0.0880  0.3633
 2548SOL    HW125636   9.832   6.538   5.428  0.0748 -1.9810  2.7423
 2548SOL    HW225637   9.741   6.421   5.400  0.0020 -1.2214 -0.5427
 2549SOL     OW25638   6.761   8.980   8.938  0.4445 -0.1561  0.2453
 2549SOL    HW125639   6.786   8.999   9.029 -0.5185  1.6846  0.1829
 2549SOL    HW225640   6.826   8.917   8.908  1.0587 -0.4707  2.0688
 2550SOL     OW25641  13.124   5.747  13.735  0.1255  0.8516 -0.3113
 2550SOL    HW125642  13.138   5.706  13.821 -1.0126 -2.4887 -1.5450
 2550SOL    HW225643  13.135   5.841  13.751 -0.1222  0.3972  3.4653
 2551SOL     OW25644   3.566   6.189   3.024  0.4112 -0.2673 -0.4124
 2551SOL    HW125645   3.580   6.224   3.112 -2.4230 -0.2979  0.1543
 2551SOL    HW225646   3.481   6.225   2.998  1.0985 -0.4136 -3.0896
 2552SOL     OW25647  12.612  10.729   1.589 -0.0712 -0.0602  0.1498
 2552SOL    HW125648  12.707  10.723   1.590 -0.0358  0.4154  1.4536
 2552SOL    HW225649  12.589  10.735   1.496  1.2029  0.4813 -0.1515
 2553SOL     OW25650   9.742   6.207   4.567  0.1263 -0.1339 -0.5935
 2553SOL    HW125651   9.794   6.222   4.488  0.9575  1.9804  0.2862
 2553SOL    HW225652   9.652   6.205   4.536  0.5138 -0.6063 -1.7455
 2554SOL     OW25653   2.243   6.975   8.990  0.2074  0.0096 -0.3165
 2554SOL    HW125654   2.273   7.028   9.065 -0.3568  0.5917 -0.4820
 2554SOL    HW225655   2.156   6.944   9.017 -0.3868  0.9658 -1.0691
 2555SOL     OW25656   9.548   7.798   4.071  0.3580  0.0761 -0.2339
 2555SOL    HW125657   9.584   7.789   3.983  0.3043 -0.0088 -0.2470
 2555SOL    HW225658   9.454   7.782   4.060  0.6210 -1.9664  0.1592
 2556SOL     OW25659   1.512   3.402   1.672 -0.1468  0.0626 -0.6382
 2556SOL    HW125660   1.592   3.362   1.638 -1.2808  0.4073 -4.0930
 2556SOL    HW225661   1.443   3.340   1.648 -1.1309  0.4469  1.0371
 2557SOL     OW25662   0.771   9.544  11.791 -0.3345 -0.6711  0.5871
 2557SOL    HW125663   0.721   9.537  11.710 -1.4854  2.5775  0.8666
 2557SOL    HW225664   0.706   9.533  11.860  0.2061 -0.9940  1.0546
 2558SOL     OW25665   8.039   9.302   3.261 -0.3472 -0.1460 -0.3820
 2558SOL    HW125666   7.971   9.332   3.321 -1.0069  0.0680 -1.2154
 2558SOL    HW225667   8.117   9.353   3.286  0.0287 -1.6001  1.6951
 2559SOL     OW25668   2.011   9.879   2.853  0.4388  0.7542 -0.0470
 2559SOL    HW125669   1.920   9.852   2.840  0.6157  0.6212 -1.0997
 2559SOL    HW225670   2.006   9.957   2.907 -0.3950  1.5435 -1.2249
 2560SOL     OW25671   8.677   7.220  10.391 -0.4437 -0.3368 -0.3369
 2560SOL    HW125672   8.679   7.305  10.435  0.2074 -0.9499  0.8743
 2560SOL    HW225673   8.609   7.171  10.437 -1.0144 -0.3794 -1.2186
 2561SOL     OW25674   9.345   0.362   4.504  0.4784 -0.2706 -0.2719
 2561SOL    HW125675   9.267   0.320   4.467  0.2807  1.1745 -1.6056
 2561SOL    HW225676   9.380   0.298   4.565 -2.5391 -0.4596  1.4610
 2562SOL     OW25677  13.357  13.241   6.344  0.1998 -0.1669  0.3666
 2562SOL    HW125678  13.278  13.187   6.336 -0.6976  1.1481  0.0959
 2562SOL    HW225679  13.394  13.242   6.255 -0.5843  0.8328  0.0414
 2563SOL     OW25680   4.356  13.792  11.780  0.1448 -0.6194 -0.6693
 2563SOL    HW125681   4.405  13.864  11.820 -0.5395 -0.3486 -0.2971
 2563SOL    HW225682   4.306  13.755  11.853 -0.6611 -0.5057 -1.1558
 2564SOL     OW25683   9.230   7.412   3.217  0.1881  0.1354 -0.3571
 2564SOL    HW125684   9.255   7.494   3.261 -0.4142 -0.0221  0.2857
 2564SOL    HW225685   9.177   7.365   3.282  2.2337 -1.7264  0.1034
 2565SOL     OW25686   0.408   9.625  12.548 -0.2054 -0.0937 -0.7538
 2565SOL    HW125687   0.445   9.709  12.523  0.9325 -0.7727 -1.4532
 2565SOL    HW225688   0.470   9.560  12.514 -1.0691 -1.2172 -0.2682
 2566SOL     OW25689  13.212   2.442   0.330 -0.5754 -0.0624  0.0782
 2566SOL    HW125690  13.203   2.466   0.238  0.8140 -0.8810 -0.2855
 2566SOL    HW225691  13.220   2.347   0.330  0.8444  0.0307  0.9103
 2567SOL     OW25692   5.500   1.405   6.548  0.2003  0.3255 -0.0466
 2567SOL    HW125693   5.513   1.414   6.454  1.4907 -0.7495 -0.0124
 2567SOL    HW225694   5.480   1.312   6.561 -0.7185  0.6086  0.6765
 2568SOL     OW25695   3.771   9.414   7.945 -0.3321 -0.0059 -0.1460
 2568SOL    HW125696   3.688   9.452   7.976 -0.6811 -0.7501 -0.1256
 2568SOL    HW225697   3.838   9.477   7.970 -0.9183  0.7056 -0.3445
 2569SOL     OW25698  13.079   1.596   2.268  0.1253 -0.0008 -0.5468
 2569SOL    HW125699  13.039   1.663   2.323  0.1707 -0.5496  0.1578
 2569SOL    HW225700  13.105   1.643   2.188 -0.9261  0.5775 -0.5614
 2570SOL     OW25701   7.074  12.319  13.560 -0.2013  0.1697  0.4883
 2570SOL    HW125702   6.983  12.321  13.587 -0.4130 -0.7866 -0.1206
 2570SOL    HW225703   7.100  12.227  13.565  0.2251  0.1802 -0.9300
 2571SOL     OW25704   8.473  12.676   9.604 -0.7250  0.6765 -0.3926
 2571SOL    HW125705   8.411  12.743   9.575  0.3248  1.3568 -1.1408
 2571SOL    HW225706   8.468  12.609   9.536  0.3657  1.3938 -1.2083
 2572SOL     OW25707  11.207   3.069  10.298  0.7137  0.2235 -0.1487
 2572SOL    HW125708  11.271   3.116  10.352 -1.0553  1.1637  1.2362
 2572SOL    HW225709  11.129   3.065  10.353 -0.8642  0.3147 -2.2912
 2573SOL     OW25710   1.612   3.507   9.685 -0.0556  0.0342  0.7427
 2573SOL    HW125711   1.601   3.508   9.780  2.1146 -0.6519  1.0720
 2573SOL    HW225712   1.684   3.445   9.670 -1.5426 -1.2721 -1.5222
 2574SOL     OW25713  10.266   8.354  10.194  0.0101  0.0971 -1.2685
 2574SOL    HW125714  10.299   8.328  10.108 -1.7522 -2.6142 -1.2422
 2574SOL    HW225715  10.173   8.332  10.192  0.4305 -3.2347  2.2760
 2575SOL     OW25716   5.404   6.497  10.322 -0.6636 -0.6505 -0.0393
 2575SOL    HW125717   5.406   6.442  10.243 -1.0115 -1.6874  0.6544
 2575SOL    HW225718   5.493   6.491  10.356 -0.7673 -0.9968  0.1744
 2576SOL     OW25719   6.417   1.336  10.695 -0.3477  0.4035  0.8118
 2576SOL    HW125720   6.406   1.296  10.781  0.3697  0.6556  1.0310
 2576SOL    HW225721   6.496   1.297  10.660  0.6040  1.8787  1.2027
 2577SOL     OW25722   0.403  10.887   0.373  0.3076 -0.2370 -0.2122
 2577SOL    HW125723   0.403  10.798   0.337  1.8381 -0.0667 -0.6686
 2577SOL    HW225724   0.473  10.932   0.327  0.0849  0.9815  0.5972
 2578SOL     OW25725  13.122  11.003   0.193  0.5074 -0.0531 -0.0205
 2578SOL    HW125726  13.179  10.926   0.203 -0.5290 -0.8981 -0.4345
 2578SOL    HW225727  13.097  11.002   0.101  0.4918  0.8048 -0.0325
 2579SOL     OW25728   0.241  13.080   2.636  0.1732  0.1672  0.0413
 2579SOL    HW125729   0.324  13.036   2.651  0.1016 -0.0957 -0.3080
 2579SOL    HW225730   0.192  13.020   2.579 -0.2347  0.3396  0.2044
 2580SOL     OW25731  11.513  11.083   4.469 -0.1506 -0.0704 -0.3458
 2580SOL    HW125732  11.479  11.069   4.381  0.2105 -0.4242 -0.4366
 2580SOL    HW225733  11.594  11.134   4.456  0.1284 -0.4837 -0.2582
 2581SOL     OW25734   7.044  12.954  13.515 -0.5455  0.5607  0.1857
 2581SOL    HW125735   6.984  12.909  13.575  1.8158 -0.2554  2.1322
 2581SOL    HW225736   7.102  12.885  13.484  2.3904  1.8770  2.2682
 2582SOL     OW25737   9.714   6.882   9.071  0.2566  0.2403  0.2266
 2582SOL    HW125738   9.786   6.903   9.131  0.3611 -0.0747  0.2129
 2582SOL    HW225739   9.721   6.788   9.057  0.6232  0.3992 -0.7881
 2583SOL     OW25740  10.399   1.267   8.109 -0.1897 -0.0743 -0.3834
 2583SOL    HW125741  10.465   1.216   8.156  0.3909  1.3046  0.3533
 2583SOL    HW225742  10.431   1.271   8.019  1.0703  1.0428  0.0771
 2584SOL     OW25743   2.221   3.047  11.877 -0.2313  0.3209 -0.2732
 2584SOL    HW125744   2.140   3.056  11.927  0.7798  2.2815  1.1679
 2584SOL    HW225745   2.212   3.109  11.805 -0.7125 -0.7799 -1.1890
 2585SOL     OW25746  13.601   8.848   4.594 -0.1065  0.1472 -0.1080
 2585SOL    HW125747  13.657   8.919   4.564 -0.1204  0.2523  0.1098
 2585SOL    HW225748  13.557   8.883   4.672 -0.2878 -0.0194 -0.1339
 2586SOL     OW25749   6.501   2.399   0.300  0.1546  0.0937  0.0926
 2586SOL    HW125750   6.446   2.324   0.275 -1.9368  2.4215 -3.1350
 2586SOL    HW225751   6.586   2.380   0.261 -0.4710 -0.4690 -1.0773
 2587SOL     OW25752   7.769   6.673   5.564  0.0511  0.0333 -0.2127
 2587SOL    HW125753   7.692   6.691   5.510  1.6960  0.4999 -2.5274
 2587SOL    HW225754   7.781   6.752   5.616 -0.6797  0.1802 -0.2522
 2588SOL     OW25755   5.203   0.281  13.878 -0.4495  0.1695 -0.3657
 2588SOL    HW125756   5.238   0.197  13.848  1.0280  0.6102  0.0272
 2588SOL    HW225757   5.108   0.273  13.867 -0.2620 -1.1869 -1.2282
 2589SOL     OW25758   4.491   4.664  12.818  0.6176 -0.2896  0.2278
 2589SOL    HW125759   4.409   4.709  12.799  2.0153  2.5480  0.5087
 2589SOL    HW225760   4.559   4.730  12.807  3.0998 -2.8452 -1.3753
 2590SOL     OW25761  14.109  11.687   8.200  0.0334  0.8371  0.9163
 2590SOL    HW125762  14.057  11.748   8.147  0.9587 -1.4660 -3.0863
 2590SOL    HW225763  14.050  11.613   8.215  0.8446 -0.0509 -0.1287
 2591SOL     OW25764   9.892   1.174  10.646  0.3381  0.2483  0.4508
 2591SOL    HW125765   9.835   1.150  10.718 -1.1008  1.4295 -0.2429
 2591SOL    HW225766   9.953   1.100  10.637 -1.6390 -1.4945  0.6415
 2592SOL     OW25767  12.920   6.364   9.872 -0.7481  0.3900 -0.0979
 2592SOL    HW125768  12.924   6.451   9.911 -0.4723  0.4032 -0.1536
 2592SOL    HW225769  12.827   6.340   9.875 -0.7590  0.4919  0.3340
 2593SOL     OW25770   4.776  14.101   8.019 -0.7483 -0.5955 -0.4858
 2593SOL    HW125771   4.754  14.167   8.085 -3.5661 -1.5548 -0.3351
 2593SOL    HW225772   4.800  14.024   8.071 -1.4328 -0.8838 -0.5924
 2594SOL     OW25773   1.149  13.236   1.001  0.1439  0.2878 -0.6299
 2594SOL    HW125774   1.231  13.270   0.964 -0.6243  2.3191 -0.5694
 2594SOL    HW225775   1.168  13.225   1.094  0.6718 -0.3328 -0.8030
 2595SOL     OW25776   0.476   5.610  12.540 -0.3244  1.0150  0.2521
 2595SOL    HW125777   0.416   5.648  12.475 -0.5604  1.1210  0.5312
 2595SOL    HW225778   0.478   5.674  12.611 -1.6596 -0.0292  1.2648
 2596SOL     OW25779   1.337   3.238   4.033 -0.4208  0.5142  0.1467
 2596SOL    HW125780   1.376   3.194   4.108  0.3603  1.5147  0.3515
 2596SOL    HW225781   1.301   3.319   4.069 -0.3704  0.8273 -0.4985
 2597SOL     OW25782   9.206  10.290  12.565  0.3046 -0.6296 -0.3173
 2597SOL    HW125783   9.293  10.273  12.602  0.6379  1.8254  0.1648
 2597SOL    HW225784   9.146  10.266  12.635  0.5582 -2.2501 -0.6159
 2598SOL     OW25785  12.508   0.066  13.291 -0.1942  0.1860 -0.0902
 2598SOL    HW125786  12.550   0.145  13.328 -1.0824 -0.3622  2.3010
 2598SOL    HW225787  12.472   0.095  13.208  2.8467  1.2736 -1.1820
 2599SOL     OW25788   5.167   9.583  13.387 -0.4594  0.4495  0.3479
 2599SOL    HW125789   5.247   9.610  13.434 -0.5266 -0.4696  1.0096
 2599SOL    HW225790   5.102   9.648  13.413  0.2069  1.5567 -0.6614
 2600SOL     OW25791  11.177   6.850   0.314  0.5111  0.3791  0.0866
 2600SOL    HW125792  11.259   6.892   0.286  1.2311  0.7109  2.5100
 2600SOL    HW225793  11.109   6.915   0.292  1.1424  1.0394  0.0433
 2601SOL     OW25794  12.257   3.164   2.012 -0.3841 -0.1740 -0.0638
 2601SOL    HW125795  12.207   3.099   1.964  0.7647 -1.2788  0.1818
 2601SOL    HW225796  12.341   3.169   1.966  0.5014 -0.7919  1.4004
 2602SOL     OW25797   9.851  11.657   5.300 -0.1965 -0.3569  0.0922
 2602SOL    HW125798   9.888  11.638   5.386 -0.9652 -2.5064  0.0184
 2602SOL    HW225799   9.756  11.662   5.316 -0.2143  1.5272 -0.3000
 2603SOL     OW25800   4.404   4.639  13.905 -0.5602  0.0227  0.8272
 2603SOL    HW125801   4.383   4.570  13.968  0.2716 -0.3879  0.6633
 2603SOL    HW225802   4.369   4.719  13.945 -2.7426 -0.6605  0.4059
 2604SOL     OW25803   2.332  13.506   7.382  0.3211 -0.4326  0.1179
 2604SOL    HW125804   2.257  13.538   7.331 -0.5060 -0.0120  1.5348
 2604SOL    HW225805   2.322  13.411   7.383  0.0417 -0.4040 -0.0606
 2605SOL     OW25806   0.523   3.172   4.033 -0.1169 -0.4111  0.3375
 2605SOL    HW125807   0.577   3.128   3.967  0.1725  0.7705 -0.2325
 2605SOL    HW225808   0.461   3.105   4.061  1.1993 -1.5999  0.5170
 2606SOL     OW25809   2.515   6.150  12.412 -0.2148  0.0512 -0.1803
 2606SOL    HW125810   2.572   6.128  12.338 -0.0430 -0.5960  0.1361
 2606SOL    HW225811   2.539   6.087  12.480  0.0672  1.0348  0.6540
 2607SOL     OW25812  13.288   6.954  10.259  0.2403 -0.3611  0.1335
 2607SOL    HW125813  13.256   6.872  10.220  1.4647 -0.8382  0.0789
 2607SOL    HW225814  13.226   6.972  10.330 -0.2959 -1.0999 -0.1289
 2608SOL     OW25815  10.136   1.803   9.062  0.0458 -0.4201 -0.4648
 2608SOL    HW125816  10.109   1.870   9.125  1.2689 -0.5969  0.2717
 2608SOL    HW225817  10.175   1.852   8.990  0.3852 -0.3000 -0.2039
 2609SOL     OW25818   2.423  12.118   2.423 -0.3635 -0.1941 -0.0858
 2609SOL    HW125819   2.498  12.061   2.407  0.0392 -0.1012  1.3086
 2609SOL    HW225820   2.364  12.066   2.477 -0.4773  0.3429  0.3145
 2610SOL     OW25821  12.225  13.327   1.716 -0.1021  0.4659 -0.2102
 2610SOL    HW125822  12.208  13.247   1.765  0.6323  0.9471  0.8795
 2610SOL    HW225823  12.185  13.397   1.769 -0.3137  0.8673 -0.8913
 2611SOL     OW25824   4.998   8.794   7.994  0.0936  0.3254 -0.3350
 2611SOL    HW125825   4.951   8.864   7.949  1.2029  0.3683 -1.4772
 2611SOL    HW225826   4.929   8.744   8.039 -0.7687  1.8349  0.1196
 2612SOL     OW25827   0.218   5.377   5.098 -0.3856 -0.5578 -0.0711
 2612SOL    HW125828   0.235   5.419   5.014 -0.0331 -3.0405 -1.3300
 2612SOL    HW225829   0.151   5.432   5.139 -1.8245 -0.1705 -2.7295
 2613SOL     OW25830  10.345   5.461  10.650 -0.2440  0.3897  0.3053
 2613SOL    HW125831  10.316   5.490  10.736 -0.0522 -1.5247  1.0646
 2613SOL    HW225832  10.322   5.368  10.646  1.7818 -0.1342 -0.7894
 2614SOL     OW25833  11.791  11.342   5.776  0.0807 -0.0194  0.1324
 2614SOL    HW125834  11.839  11.408   5.725 -0.8463 -0.0770 -0.8504
 2614SOL    HW225835  11.825  11.351   5.865  1.9669 -0.1233 -0.5324
 2615SOL     OW25836   9.646   2.462   2.944 -0.0476 -0.3367 -0.2953
 2615SOL    HW125837   9.731   2.465   2.899 -0.2216 -1.4490 -0.7202
 2615SOL    HW225838   9.668   2.446   3.036  0.2130 -0.4787 -0.3797
 2616SOL     OW25839   4.915   6.424   8.272 -0.3735 -0.6563 -0.4015
 2616SOL    HW125840   4.968   6.376   8.336 -0.7674  0.9471  1.2320
 2616SOL    HW225841   4.949   6.397   8.187  1.0686 -1.8909  0.5101
 2617SOL     OW25842   7.749   1.526   9.805 -0.6390  0.3157 -0.0277
 2617SOL    HW125843   7.708   1.611   9.819 -2.6367 -0.4600 -0.8383
 2617SOL    HW225844   7.676   1.463   9.806  0.6176 -1.2399 -0.7762
 2618SOL     OW25845  10.409   3.189   5.803  0.2685  0.4190 -0.7616
 2618SOL    HW125846  10.468   3.171   5.730  0.1517  0.2818 -0.8216
 2618SOL    HW225847  10.457   3.160   5.880  1.9284  3.8068 -0.3451
 2619SOL     OW25848  10.973   3.113   0.698 -0.4240 -0.0959  0.3642
 2619SOL    HW125849  11.000   3.154   0.616 -2.8318  1.8509  0.4272
 2619SOL    HW225850  11.037   3.143   0.763  1.0149 -0.9831 -0.6036
 2620SOL     OW25851  11.341   5.670  10.718 -0.4466  0.3486  0.3851
 2620SOL    HW125852  11.420   5.645  10.765 -1.4389 -0.8397  1.4982
 2620SOL    HW225853  11.344   5.765  10.714  1.3610  0.3122 -0.2187
 2621SOL     OW25854  11.697   2.570  11.849  0.1339 -0.0034 -0.0978
 2621SOL    HW125855  11.728   2.636  11.910  1.2246  0.3735 -1.0161
 2621SOL    HW225856  11.772   2.512  11.835 -0.7228 -1.3029  0.4916
 2622SOL     OW25857   9.351   1.121   8.798  0.1401  0.5260  0.0441
 2622SOL    HW125858   9.354   1.145   8.705 -1.0059 -2.9334 -1.0288
 2622SOL    HW225859   9.431   1.070   8.811  0.0573  0.5955  0.8254
 2623SOL     OW25860   5.751   3.358  13.085  0.3507  0.5187 -0.0022
 2623SOL    HW125861   5.662   3.343  13.052 -0.8555 -2.9818  3.9512
 2623SOL    HW225862   5.805   3.299  13.032 -0.8226 -1.8937  1.3284
 2624SOL     OW25863  10.915   4.316   1.339  0.3509  0.2640 -0.4111
 2624SOL    HW125864  10.833   4.284   1.301  0.6429 -1.2409  0.1772
 2624SOL    HW225865  10.975   4.320   1.266  0.8843 -2.5334 -0.2327
 2625SOL     OW25866   7.644  11.537   9.338  0.1075 -0.4434 -0.1612
 2625SOL    HW125867   7.672  11.446   9.336  1.5242 -0.1596  2.2637
 2625SOL    HW225868   7.583  11.546   9.265  1.7977 -2.6767 -1.9746
 2626SOL     OW25869   3.944   9.616   1.580 -0.2511 -0.1307 -0.5139
 2626SOL    HW125870   3.857   9.655   1.570 -0.2950  0.0463  0.5149
 2626SOL    HW225871   3.955   9.562   1.502 -1.5442 -0.6594 -0.3448
 2627SOL     OW25872   1.149   8.377   4.538  0.0532  0.0790  0.2755
 2627SOL    HW125873   1.168   8.359   4.630  0.9290 -1.9617 -0.2483
 2627SOL    HW225874   1.091   8.453   4.540  1.3874  1.1322  2.4123
 2628SOL     OW25875   6.065   1.354   6.383 -0.1475  0.3281 -0.1496
 2628SOL    HW125876   6.018   1.397   6.311 -1.4640 -2.4075 -1.0604
 2628SOL    HW225877   6.146   1.322   6.343  0.8644  1.9048  0.5418
 2629SOL     OW25878   0.444   7.886   6.851  0.1272  0.1525 -0.3468
 2629SOL    HW125879   0.433   7.964   6.797 -0.9877 -0.3049 -0.8095
 2629SOL    HW225880   0.422   7.814   6.793 -2.3857 -0.2879  1.0052
 2630SOL     OW25881  10.674   9.259  10.807 -0.5354 -0.1989  0.0200
 2630SOL    HW125882  10.590   9.271  10.851  0.4689  0.3772  1.8618
 2630SOL    HW225883  10.682   9.165  10.795 -0.7078 -0.4127  1.3983
 2631SOL     OW25884  11.431   8.752   8.749  0.1000 -0.4336 -0.4899
 2631SOL    HW125885  11.352   8.786   8.707  1.9114  3.0668 -1.4512
 2631SOL    HW225886  11.438   8.801   8.831  1.6083 -0.1325 -0.7683
 2632SOL     OW25887  13.220   6.039   5.647  0.0200 -0.3039  0.6538
 2632SOL    HW125888  13.215   6.039   5.742  0.5125 -0.5635  0.6844
 2632SOL    HW225889  13.192   6.127   5.621  0.3222 -0.0816  1.0654
 2633SOL     OW25890   8.968   2.647   4.024 -0.4753  0.3881  0.3045
 2633SOL    HW125891   8.911   2.572   4.037 -0.3995 -0.0968 -1.7346
 2633SOL    HW225892   8.985   2.681   4.112 -2.8937 -0.1843  1.0571
 2634SOL     OW25893   4.005  13.330  13.810  0.1571 -0.3591 -0.2383
 2634SOL    HW125894   4.091  13.370  13.820 -0.4265  0.5508  1.6521
 2634SOL    HW225895   3.960  13.349  13.892 -2.3103  0.2941 -1.6296
 2635SOL     OW25896   8.919   0.664  10.741 -0.2319  0.2044  0.2939
 2635SOL    HW125897   8.908   0.572  10.717  2.8112  0.0130 -0.9078
 2635SOL    HW225898   8.889   0.713  10.665 -0.7702  0.1540  0.4715
 2636SOL     OW25899   0.834  10.052   7.183  0.1024  0.2950 -0.2452
 2636SOL    HW125900   0.813  10.104   7.260  2.1976  0.1589  0.4626
 2636SOL    HW225901   0.929  10.059   7.173  0.2354 -1.8584 -1.2305
 2637SOL     OW25902   4.620   4.377   1.719  0.1621  0.2435 -0.1249
 2637SOL    HW125903   4.702   4.379   1.669  0.0346 -1.4256 -0.4781
 2637SOL    HW225904   4.640   4.323   1.795 -0.3886  0.5189  0.2177
 2638SOL     OW25905  11.946   8.676   2.291  0.4710 -0.2494 -0.3202
 2638SOL    HW125906  11.961   8.582   2.293 -2.5022 -0.8299  0.1601
 2638SOL    HW225907  11.975   8.707   2.377 -1.6007 -1.4120  0.9051
 2639SOL     OW25908   3.382   2.096   0.397  0.1843  0.4255 -0.3913
 2639SOL    HW125909   3.421   2.033   0.336 -0.5207  0.5200 -0.9477
 2639SOL    HW225910   3.457   2.134   0.442  0.6315 -0.6525 -0.2013
 2640SOL     OW25911   4.471  12.978   5.020  0.4252 -0.0152 -0.2732
 2640SOL    HW125912   4.469  12.889   5.055 -1.6725 -0.5445 -1.5822
 2640SOL    HW225913   4.546  12.979   4.960  1.7416 -0.2148  1.2971
 2641SOL     OW25914   9.884   0.383  11.567 -0.1101 -0.1579 -0.5201
 2641SOL    HW125915   9.806   0.337  11.598 -0.5490  0.5911 -0.4801
 2641SOL    HW225916   9.898   0.453  11.632 -0.0193  0.3499 -1.0762
 2642SOL     OW25917  13.894  12.210   6.178  0.4899 -0.0847 -0.3842
 2642SOL    HW125918  13.989  12.216   6.164  0.5197 -1.7755 -1.2055
 2642SOL    HW225919  13.883  12.140   6.243 -0.1724  0.5063  0.1505
 2643SOL     OW25920   2.501   3.314   4.521  0.2125  0.6683  0.5434
 2643SOL    HW125921   2.490   3.220   4.536  0.9969  0.4731 -0.0560
 2643SOL    HW225922   2.592   3.324   4.494  0.4012  1.7286  1.4967
 2644SOL     OW25923   5.695  11.683   3.822  0.3673  0.0924  0.6774
 2644SOL    HW125924   5.678  11.744   3.750  1.2525  0.5619  0.8478
 2644SOL    HW225925   5.790  11.668   3.818  0.1211 -1.4958  0.4737
 2645SOL     OW25926   2.483  11.802   5.842  0.3902  0.3505 -0.1715
 2645SOL    HW125927   2.519  11.829   5.757  1.3458 -0.1156  0.0748
 2645SOL    HW225928   2.521  11.864   5.904  2.2623 -1.2233  0.3408
 2646SOL     OW25929   1.977   7.926  13.736  0.5470 -0.1836 -0.0989
 2646SOL    HW125930   1.945   7.936  13.826  2.2190 -1.0209  0.6339
 2646SOL    HW225931   1.918   7.862  13.696  0.6061 -0.8317  0.8321
 2647SOL     OW25932   9.607   9.032   8.885 -0.1035  0.0679  0.0331
 2647SOL    HW125933   9.587   8.968   8.954 -1.9767  0.8623  0.2738
 2647SOL    HW225934   9.559   9.111   8.910  1.2904  1.2506 -0.8276
 2648SOL     OW25935   9.264   0.591   0.127  0.0451 -0.1347 -0.2750
 2648SOL    HW125936   9.298   0.502   0.134  0.5915  0.1510  0.9546
 2648SOL    HW225937   9.200   0.598   0.198  0.6375  0.7115  0.1994
 2649SOL     OW25938   8.134  11.019   8.198 -0.1745  0.0197 -0.8502
 2649SOL    HW125939   8.188  11.038   8.121  2.6356  0.0614  1.0226
 2649SOL    HW225940   8.123  11.103   8.241  0.9013 -0.4551  0.3934
 2650SOL     OW25941   7.321  13.315   4.736 -0.3104  0.0785 -0.5623
 2650SOL    HW125942   7.387  13.373   4.775  0.5939 -0.3906 -1.3618
 2650SOL    HW225943   7.371  13.241   4.702 -1.1006  0.2711 -2.2496
 2651SOL     OW25944  13.772   0.579   6.814 -0.2271  0.1276  0.5705
 2651SOL    HW125945  13.827   0.558   6.739 -1.0240 -0.6702  0.1950
 2651SOL    HW225946  13.705   0.639   6.780 -0.5817 -0.2208  0.6446
 2652SOL     OW25947  11.977   3.369   7.705  0.5605  0.1842  0.2842
 2652SOL    HW125948  12.068   3.398   7.716  0.2577  1.1136  0.3672
 2652SOL    HW225949  11.925   3.448   7.714 -0.4004 -0.6080  2.0903
 2653SOL     OW25950   2.298   0.010   9.712 -0.1438  0.4208  0.4091
 2653SOL    HW125951   2.366   0.077   9.703  1.9997 -1.8092 -1.7073
 2653SOL    HW225952   2.346  -0.072   9.723 -2.3201 -1.4592 -2.4028
 2654SOL     OW25953   6.430   9.278   9.394  0.4629 -0.1470 -0.1206
 2654SOL    HW125954   6.373   9.202   9.405 -0.8072  0.6924 -0.7132
 2654SOL    HW225955   6.514   9.250   9.431 -0.3805 -1.3299  1.0031
 2655SOL     OW25956  10.370   9.410   3.132  0.2962 -0.1511  0.3154
 2655SOL    HW125957  10.328   9.326   3.117 -1.6991  0.7803  0.3396
 2655SOL    HW225958  10.412   9.431   3.048 -0.9887 -0.2431 -0.3813
 2656SOL     OW25959   2.121  14.060   5.749 -0.2223 -0.2604  0.5448
 2656SOL    HW125960   2.112  13.967   5.730  0.9634 -0.5161  1.1838
 2656SOL    HW225961   2.107  14.103   5.664  0.5102 -1.1030 -0.0239
 2657SOL     OW25962  12.493   2.901  13.262  0.4401 -0.0734 -0.4407
 2657SOL    HW125963  12.550   2.972  13.231  0.6627 -0.5609 -1.1641
 2657SOL    HW225964  12.445   2.940  13.335  0.2694  0.9552 -1.0723
 2658SOL     OW25965   0.130   4.558   7.297 -0.5011 -0.0583 -0.2729
 2658SOL    HW125966   0.037   4.536   7.303 -0.2449 -1.0169  0.3317
 2658SOL    HW225967   0.166   4.535   7.383  0.4053 -0.1866 -0.6747
 2659SOL     OW25968  13.319   1.782   0.252  0.2454  0.1130  0.4112
 2659SOL    HW125969  13.378   1.754   0.322  1.1313  1.2669  0.1492
 2659SOL    HW225970  13.294   1.871   0.276  2.9168  1.7084 -2.1692
 2660SOL     OW25971   6.246  11.889  13.042  0.5986 -0.3352 -0.2397
 2660SOL    HW125972   6.210  11.939  13.115  0.1539 -0.5011 -0.3384
 2660SOL    HW225973   6.244  11.950  12.968 -0.9843 -0.8107 -0.6329
 2661SOL     OW25974  13.341   4.617   1.650  0.5458 -0.0022  0.2519
 2661SOL    HW125975  13.331   4.690   1.588 -0.3390 -0.8451 -0.6461
 2661SOL    HW225976  13.252   4.601   1.682  0.6854 -0.8746  0.2146
 2662SOL     OW25977   7.831  13.435   7.022 -0.2838 -0.1256 -0.0044
 2662SOL    HW125978   7.923  13.409   7.019 -0.1954  0.1616  0.2759
 2662SOL    HW225979   7.788  13.373   6.962  0.3695  0.9526 -1.6690
 2663SOL     OW25980   4.298  13.465  10.372  0.0803  0.1017  0.1590
 2663SOL    HW125981   4.299  13.372  10.396 -0.2595  0.2747  0.8618
 2663SOL    HW225982   4.376  13.476  10.317 -0.3259 -0.7754 -0.6178
 2664SOL     OW25983   7.094   6.304   9.512 -0.4372 -0.5430  0.1143
 2664SOL    HW125984   7.096   6.397   9.536  0.1556 -1.1146  2.5830
 2664SOL    HW225985   7.022   6.297   9.449  0.1478  1.7215 -0.9003
 2665SOL     OW25986   3.019  13.685   8.490  1.2559  0.7927 -0.6224
 2665SOL    HW125987   2.985  13.647   8.410 -0.2559 -0.7651  0.6720
 2665SOL    HW225988   2.964  13.762   8.506  0.9539  0.5772 -0.6155
 2666SOL     OW25989   5.041   1.142   9.984 -0.2745  0.0191  0.0949
 2666SOL    HW125990   5.082   1.056   9.973 -0.2077 -0.0070  0.5350
 2666SOL    HW225991   5.016   1.168   9.895 -1.1085 -0.8563  0.0533
 2667SOL     OW25992   2.095   3.239   8.820 -0.4087  1.0404 -0.1918
 2667SOL    HW125993   2.129   3.175   8.883  0.3914  1.5402 -0.1045
 2667SOL    HW225994   2.091   3.321   8.869 -1.0749  1.1466 -0.4133
 2668SOL     OW25995   5.839  13.585   6.496  0.1049 -0.5168  0.1314
 2668SOL    HW125996   5.826  13.495   6.528  0.4940 -0.4842  0.3892
 2668SOL    HW225997   5.889  13.627   6.565 -1.3829  0.3491  0.7297
 2669SOL     OW25998   5.759   4.016  13.277 -0.1969  0.0431 -0.0697
 2669SOL    HW125999   5.825   3.968  13.328 -0.7293 -1.7202 -0.9825
 2669SOL    HW226000   5.756   3.971  13.193 -3.3119 -0.5860  0.2898
 2670SOL     OW26001   2.295   0.594   4.956 -0.0259 -0.1566  0.9691
 2670SOL    HW126002   2.265   0.663   5.014  1.9621  0.4171  1.3959
 2670SOL    HW226003   2.215   0.557   4.918 -1.1571  2.2862  0.8094
 2671SOL     OW26004  10.974   6.307   3.416 -0.6279  0.9523 -0.5230
 2671SOL    HW126005  11.011   6.236   3.469 -0.8304  1.6008  0.5123
 2671SOL    HW226006  10.879   6.299   3.428 -0.6438  1.5010 -0.2411
 2672SOL     OW26007   8.807  12.326  10.374  0.1667  0.3733  0.1703
 2672SOL    HW126008   8.712  12.317  10.366  0.2891 -0.6260 -0.3485
 2672SOL    HW226009   8.840  12.236  10.377  1.1468  0.6971 -0.3089
 2673SOL     OW26010   3.292   1.385   8.085  0.7810 -0.1492  0.3510
 2673SOL    HW126011   3.304   1.477   8.110  0.6523 -0.6308  2.4127
 2673SOL    HW226012   3.379   1.346   8.098  0.1901 -0.9139  2.5867
 2674SOL     OW26013  14.028   2.739   2.021 -0.0506 -0.2035  0.4504
 2674SOL    HW126014  14.006   2.668   1.961  0.1056  1.0196 -1.1480
 2674SOL    HW226015  14.120   2.760   2.001 -0.8796  2.3445 -1.3207
 2675SOL     OW26016   1.121   7.267   4.804  0.1328 -0.5515  0.3609
 2675SOL    HW126017   1.111   7.187   4.855 -1.4206 -0.1293  0.7755
 2675SOL    HW226018   1.035   7.309   4.809  0.9616  1.2275  0.3194
 2676SOL     OW26019   3.949  13.359   2.349  0.1953  0.0141  0.5727
 2676SOL    HW126020   3.900  13.365   2.431  0.8598  0.6105  0.9438
 2676SOL    HW226021   3.913  13.282   2.305  0.7529 -1.1410  2.0531
 2677SOL     OW26022   9.539  11.858  12.277  0.1127  1.0525 -0.1235
 2677SOL    HW126023   9.579  11.797  12.215 -0.7232  0.2310  0.1126
 2677SOL    HW226024   9.608  11.921  12.296  1.2834 -0.2649  0.2062
 2678SOL     OW26025   6.459  11.147   8.628  0.2711  0.4645 -0.2155
 2678SOL    HW126026   6.487  11.066   8.670  0.6678  0.3393 -0.7103
 2678SOL    HW226027   6.520  11.159   8.555  0.4191  1.3749  0.0386
 2679SOL     OW26028   0.178  13.221   6.955  0.3055  0.1903 -0.0357
 2679SOL    HW126029   0.111  13.164   6.992 -0.6254  2.1922  1.5739
 2679SOL    HW226030   0.256  13.205   7.009  0.1691  0.1302  0.1432
 2680SOL     OW26031  14.151  12.964   0.481  0.5234 -0.1445 -0.2883
 2680SOL    HW126032  14.097  12.936   0.407 -0.5433 -2.0801  1.1142
 2680SOL    HW226033  14.199  12.885   0.507  0.8025  0.4536  1.1249
 2681SOL     OW26034   8.191   9.187   1.572 -0.2637 -0.3230 -0.0420
 2681SOL    HW126035   8.201   9.206   1.479 -1.0247  0.2498 -0.0132
 2681SOL    HW226036   8.128   9.251   1.604  0.3373 -0.2085  0.9753
 2682SOL     OW26037   1.980   8.453   3.123 -0.1212  0.3201  0.3077
 2682SOL    HW126038   1.907   8.403   3.158 -0.0031 -0.9746 -1.1876
 2682SOL    HW226039   2.010   8.506   3.196  0.1910 -2.2943  2.1903
 2683SOL     OW26040  12.184   4.725   0.549  0.3345 -0.2220 -0.4211
 2683SOL    HW126041  12.199   4.815   0.519  1.9380 -0.7285 -1.2366
 2683SOL    HW226042  12.102   4.700   0.506  1.5624 -0.2463 -2.9542
 2684SOL     OW26043   1.556   6.264   2.926 -0.2485 -0.4899  0.8464
 2684SOL    HW126044   1.550   6.171   2.902  0.7396 -0.2345 -0.4981
 2684SOL    HW226045   1.639   6.272   2.971  1.2719  0.2472 -1.8525
 2685SOL     OW26046   7.784  13.697   7.094  0.3947 -0.1843 -0.1191
 2685SOL    HW126047   7.809  13.608   7.070  1.0351 -0.1726  0.4836
 2685SOL    HW226048   7.688  13.695   7.096  0.2824 -0.2370 -2.4456
 2686SOL     OW26049   9.839   2.055   6.377  0.0792  0.1615 -0.0627
 2686SOL    HW126050   9.750   2.073   6.348  0.4329  2.2646 -0.0547
 2686SOL    HW226051   9.834   1.970   6.420 -1.5301 -0.6015 -1.6530
 2687SOL     OW26052  10.759   4.073   5.034 -0.1564  0.2574  0.1798
 2687SOL    HW126053  10.796   4.073   4.946 -1.2783 -0.8884 -0.3219
 2687SOL    HW226054  10.687   4.136   5.029 -0.3236  0.0711  0.2257
 2688SOL     OW26055   4.827   4.259  12.242 -0.3887 -0.3512 -0.4540
 2688SOL    HW126056   4.897   4.296  12.295 -0.1366 -1.3786 -0.0354
 2688SOL    HW226057   4.866   4.181  12.202 -0.6396  0.2772 -1.9960
 2689SOL     OW26058   2.084  11.976   2.999 -0.1944 -0.2871  0.5684
 2689SOL    HW126059   2.020  12.036   2.962 -0.5753 -1.2645 -0.4352
 2689SOL    HW226060   2.169  12.014   2.978 -0.3928 -0.8492 -1.4836
 2690SOL     OW26061   1.200  13.612   5.358  0.5553 -0.5702  0.4074
 2690SOL    HW126062   1.161  13.538   5.405  1.0901 -1.5615 -0.6512
 2690SOL    HW226063   1.131  13.679   5.357 -0.9452 -2.0340 -0.8608
 2691SOL     OW26064   6.719   2.370   3.217  0.3835 -0.4130 -0.0581
 2691SOL    HW126065   6.763   2.455   3.210 -0.7491  0.2344  0.4774
 2691SOL    HW226066   6.642   2.378   3.160 -0.9443 -0.2766  1.7016
 2692SOL     OW26067   5.292   5.724   5.744 -0.3162  0.0105  0.4581
 2692SOL    HW126068   5.352   5.699   5.814 -1.4221  0.4073  1.5941
 2692SOL    HW226069   5.335   5.695   5.663  0.3889 -1.6659  1.3838
 2693SOL     OW26070   4.416   8.519   4.721  0.1606 -0.0752  0.8218
 2693SOL    HW126071   4.370   8.581   4.778  0.5838 -0.3322  1.4603
 2693SOL    HW226072   4.352   8.450   4.704 -0.3134  0.5371  0.1033
 2694SOL     OW26073  10.282   8.937  10.991 -0.1819  0.3036  0.8342
 2694SOL    HW126074  10.365   8.894  10.973 -0.3770  0.0045  0.6345
 2694SOL    HW226075  10.265   8.990  10.913 -0.1160  0.4658  0.9287
 2695SOL     OW26076   6.531   1.545  11.118  0.0248  0.5634 -0.4637
 2695SOL    HW126077   6.542   1.548  11.023 -1.1889  1.8350 -0.5870
 2695SOL    HW226078   6.585   1.617  11.151 -0.2219  0.6589 -0.2646
 2696SOL     OW26079   3.667  11.843   9.579 -0.7431  0.1387 -0.2697
 2696SOL    HW126080   3.600  11.885   9.525 -1.8592 -0.6194  0.4837
 2696SOL    HW226081   3.671  11.753   9.547 -0.3632  0.0756 -0.0530
 2697SOL     OW26082   2.420   6.309  11.550 -0.3342 -0.7188 -0.3507
 2697SOL    HW126083   2.503   6.272  11.518  0.8026  0.3013  1.2698
 2697SOL    HW226084   2.423   6.294  11.645 -1.0680  1.1276 -0.0141
 2698SOL     OW26085   7.022   9.111  12.086  0.2612 -0.0196  0.2121
 2698SOL    HW126086   7.017   9.098  12.181 -0.0795  0.7319  0.3096
 2698SOL    HW226087   7.005   9.025  12.049  2.1957 -0.7326  0.8469
 2699SOL     OW26088  10.098   1.791   7.629  0.3726 -0.1087  0.0064
 2699SOL    HW126089  10.182   1.820   7.665  0.5088 -1.1361  0.5709
 2699SOL    HW226090  10.056   1.745   7.702  0.3998 -1.7526 -0.9675
 2700SOL     OW26091  11.886   1.337   4.582 -0.3373 -0.0926 -0.1366
 2700SOL    HW126092  11.841   1.338   4.666 -0.3840  2.3219 -0.1477
 2700SOL    HW226093  11.826   1.290   4.524 -1.1836 -0.0888  0.7158
 2701SOL     OW26094  11.096   1.962   3.566  0.3921  0.1213  0.4481
 2701SOL    HW126095  11.145   2.037   3.533 -1.2476  1.3567  0.6729
 2701SOL    HW226096  11.031   1.944   3.498 -1.1501  0.8518  1.6606
 2702SOL     OW26097   9.659   3.877   6.943  0.1729 -0.1408  0.1995
 2702SOL    HW126098   9.631   3.885   7.034 -0.4025  0.8036 -0.0500
 2702SOL    HW226099   9.645   3.964   6.906  0.4767 -0.4973 -0.7699
 2703SOL     OW26100  10.374   2.544   0.510 -0.0121  0.1369  0.4500
 2703SOL    HW126101  10.293   2.494   0.525  0.8682 -1.4269  0.1959
 2703SOL    HW226102  10.418   2.497   0.438  0.6782  1.5272 -0.0692
 2704SOL     OW26103   9.164   5.985   5.695  0.0791 -0.3224  0.1014
 2704SOL    HW126104   9.112   6.016   5.621 -0.7540  1.6607  1.4204
 2704SOL    HW226105   9.115   6.015   5.772  2.7126  0.8318  1.4390
 2705SOL     OW26106   1.934   9.950   6.934  0.2059  0.4214 -0.1665
 2705SOL    HW126107   1.875  10.009   6.980  0.4664  0.5656 -0.0149
 2705SOL    HW226108   2.011   9.944   6.990  0.2126 -0.0066 -0.2138
 2706SOL     OW26109   4.738   1.513   1.088 -0.3548 -0.4849  0.4948
 2706SOL    HW126110   4.811   1.468   1.045  0.4460  1.3705 -0.1802
 2706SOL    HW226111   4.760   1.606   1.082 -3.2956  0.2573 -0.7099
 2707SOL     OW26112   3.171  13.577   3.248  1.0073 -0.6033  0.3066
 2707SOL    HW126113   3.170  13.512   3.319  1.2269 -2.3519 -1.2198
 2707SOL    HW226114   3.079  13.597   3.232  0.9810  1.5354  2.5020
 2708SOL     OW26115   1.492  13.402  13.191  0.1133 -0.4395  0.4486
 2708SOL    HW126116   1.406  13.391  13.150 -0.2094 -0.0526  0.9949
 2708SOL    HW226117   1.474  13.455  13.268  0.6553 -1.3417  1.2258
 2709SOL     OW26118   2.643  12.730   9.955  0.0818 -0.3043  0.1292
 2709SOL    HW126119   2.632  12.770   9.869 -1.4912 -1.9318 -0.4743
 2709SOL    HW226120   2.737  12.735   9.972  0.1493  2.1758 -0.5757
 2710SOL     OW26121   5.361   1.022   5.756 -0.0117  0.4075 -0.2463
 2710SOL    HW126122   5.370   1.114   5.729 -0.2760  0.6303  0.4002
 2710SOL    HW226123   5.271   1.015   5.788 -0.4828 -0.4619 -1.6893
 2711SOL     OW26124  10.840   8.359   3.438 -0.0936  0.0490  0.4990
 2711SOL    HW126125  10.833   8.410   3.519 -0.6247  1.2364 -0.2707
 2711SOL    HW226126  10.915   8.301   3.453 -0.1479  0.2883  1.8181
 2712SOL     OW26127  10.146   3.157   5.223  0.1570  0.4937  0.5521
 2712SOL    HW126128  10.111   3.068   5.223 -0.7839  0.8309  2.0387
 2712SOL    HW226129  10.241   3.145   5.230 -0.0117 -0.4109  1.7570
 2713SOL     OW26130   0.458   0.478   2.507 -0.1215 -0.3011 -0.4939
 2713SOL    HW126131   0.476   0.400   2.560 -0.7692  0.9763  1.7480
 2713SOL    HW226132   0.542   0.525   2.505  0.2026 -0.8840 -1.6336
 2714SOL     OW26133   5.482   5.634   5.052 -0.1974 -0.3013  0.0426
 2714SOL    HW126134   5.450   5.657   4.965  2.4597  1.3431 -0.6330
 2714SOL    HW226135   5.518   5.716   5.087 -1.7724 -0.7521  3.0314
 2715SOL     OW26136   4.800  13.214   9.886  0.2244  0.0097  0.5298
 2715SOL    HW126137   4.768  13.227   9.975  2.2187 -0.3733  1.3397
 2715SOL    HW226138   4.862  13.141   9.893 -0.0775 -0.4682 -1.3031
 2716SOL     OW26139   8.796   2.717   7.123  0.6275  0.6841  0.4428
 2716SOL    HW126140   8.852   2.694   7.197 -0.2338 -0.0022  0.9038
 2716SOL    HW226141   8.733   2.645   7.117  1.9009 -0.3723 -2.2406
 2717SOL     OW26142   9.355   1.799   8.487  1.3301 -0.1854 -0.7630
 2717SOL    HW126143   9.398   1.862   8.544 -0.5865 -0.5945  1.2661
 2717SOL    HW226144   9.401   1.717   8.502  0.6541 -0.3572  0.4805
 2718SOL     OW26145  11.590   7.218   9.357 -0.2198  0.2599 -0.4274
 2718SOL    HW126146  11.672   7.239   9.312 -0.6652 -0.6867 -1.7568
 2718SOL    HW226147  11.523   7.262   9.306 -0.5516  1.2307  0.7985
 2719SOL     OW26148   2.389   6.841   9.213 -0.2736  0.5295  0.2743
 2719SOL    HW126149   2.474   6.866   9.179  0.0338  1.0120  1.3441
 2719SOL    HW226150   2.368   6.759   9.168  0.2268  0.9899 -0.8312
 2720SOL     OW26151  12.239   1.641   9.021  0.4907 -0.1787  0.2229
 2720SOL    HW126152  12.316   1.590   9.047  0.5849 -0.5435 -0.7241
 2720SOL    HW226153  12.174   1.575   8.997  0.4512  0.1364 -0.5610
 2721SOL     OW26154   7.698  13.040   8.158 -0.6842  0.2376  0.4165
 2721SOL    HW126155   7.684  12.973   8.224  0.7447  0.2456  0.7551
 2721SOL    HW226156   7.612  13.083   8.148 -1.1862 -0.5066  1.4212
 2722SOL     OW26157   1.768   3.343   2.294  0.7544  0.1095 -0.0293
 2722SOL    HW126158   1.716   3.316   2.370  0.7625  0.0957 -0.0286
 2722SOL    HW226159   1.803   3.429   2.318  2.8284 -0.9331  1.0392
 2723SOL     OW26160   3.711   7.678  11.216  0.6464 -0.3613  0.5384
 2723SOL    HW126161   3.681   7.596  11.177  1.8982 -2.1949  3.1322
 2723SOL    HW226162   3.650   7.744  11.183 -1.7845 -2.6845  0.0351
 2724SOL     OW26163   9.788   0.162  11.259  0.7994  0.0408  0.5619
 2724SOL    HW126164   9.829   0.148  11.344  0.9431 -1.2113  0.3180
 2724SOL    HW226165   9.778   0.257  11.251 -0.6565  0.1256  2.6367
 2725SOL     OW26166   1.117  11.125  13.119 -0.1657 -0.2363  0.2282
 2725SOL    HW126167   1.109  11.181  13.196 -1.4137  0.3922 -0.3254
 2725SOL    HW226168   1.132  11.186  13.046  1.5347 -0.8530  0.0154
 2726SOL     OW26169   0.158   1.728  11.506  0.1107 -0.3394  0.3964
 2726SOL    HW126170   0.156   1.653  11.446 -1.0826 -1.0711  1.3236
 2726SOL    HW226171   0.222   1.704  11.573  1.4243  0.4674 -0.5233
 2727SOL     OW26172   8.967   4.710   9.848  0.2071  0.2878  0.3551
 2727SOL    HW126173   9.038   4.652   9.879  1.5706 -0.8434 -4.1866
 2727SOL    HW226174   9.009   4.795   9.838  0.5472 -0.0025 -0.8238
 2728SOL     OW26175   3.172   7.299   1.930 -0.0971 -0.6728 -0.1871
 2728SOL    HW126176   3.120   7.336   2.001 -0.5169  1.0110 -1.2981
 2728SOL    HW226177   3.189   7.209   1.956 -0.8996 -0.3264  1.6605
 2729SOL     OW26178  10.531   5.103   7.464  0.7905  0.0457 -0.0962
 2729SOL    HW126179  10.525   5.196   7.441 -0.3509 -0.1223 -0.5278
 2729SOL    HW226180  10.477   5.059   7.398  0.8711 -0.8681  0.4418
 2730SOL     OW26181   8.763  12.072   1.626  0.1106 -0.4937 -0.4170
 2730SOL    HW126182   8.694  12.135   1.603 -0.0720 -1.1995 -1.9464
 2730SOL    HW226183   8.829  12.083   1.558  0.2273 -1.7058 -0.5216
 2731SOL     OW26184  10.032   0.550   1.470  0.4280  0.0953  0.4158
 2731SOL    HW126185   9.944   0.563   1.435 -0.7062 -2.0564  2.2770
 2731SOL    HW226186  10.063   0.470   1.428  1.0955  0.2583  0.5757
 2732SOL     OW26187   3.403  14.154   0.608 -0.0280  0.2311  0.4189
 2732SOL    HW126188   3.422  14.236   0.563  0.5828 -0.2843 -0.2652
 2732SOL    HW226189   3.471  14.147   0.675  0.7440 -0.3773 -0.4078
 2733SOL     OW26190   0.056  13.334   9.660 -0.2425  0.5458 -0.0894
 2733SOL    HW126191  -0.024  13.286   9.640  0.7332 -0.3448 -2.0653
 2733SOL    HW226192   0.057  13.407   9.597  0.7233  0.2750 -0.4025
 2734SOL     OW26193   8.699   6.966   7.884  0.2040 -0.5800  0.7262
 2734SOL    HW126194   8.622   7.002   7.928 -0.4660 -2.3902  1.1503
 2734SOL    HW226195   8.742   6.912   7.950  4.0240  3.1340  1.6917
 2735SOL     OW26196   1.940  11.068  13.810  0.1833  0.0187  0.6471
 2735SOL    HW126197   1.994  11.041  13.885  0.6952  0.0074  0.2797
 2735SOL    HW226198   1.948  10.996  13.748  0.3575  0.3530  0.2772
 2736SOL     OW26199   9.978   3.448   0.576 -0.0569 -0.2839 -0.2961
 2736SOL    HW126200   9.950   3.489   0.494 -1.3943 -2.3565 -0.9590
 2736SOL    HW226201   9.909   3.468   0.639 -0.5690 -1.1929 -0.5439
 2737SOL     OW26202  10.493   9.418  12.501 -0.4097 -0.0356  0.7995
 2737SOL    HW126203  10.517   9.341  12.551  0.3257 -0.2283  0.1615
 2737SOL    HW226204  10.495   9.390  12.409 -1.9031  0.2636  0.6382
 2738SOL     OW26205   1.020   0.267   0.972 -0.0819  0.2537  0.0610
 2738SOL    HW126206   0.942   0.279   0.919  0.0256  1.8129  0.1917
 2738SOL    HW226207   1.067   0.350   0.964  0.0916  0.4489  2.3083
 2739SOL     OW26208   5.205  12.842   8.259 -0.6343  0.8716 -0.1386
 2739SOL    HW126209   5.291  12.803   8.271 -0.4901  1.0313 -0.6130
 2739SOL    HW226210   5.170  12.800   8.181  0.2058  2.8212 -1.6599
 2740SOL     OW26211   5.472   8.453  11.597 -0.2876 -0.3301 -0.2854
 2740SOL    HW126212   5.428   8.379  11.639 -2.1226  0.7147 -0.2492
 2740SOL    HW226213   5.533   8.486  11.663 -1.3479 -0.2239  0.6657
 2741SOL     OW26214  12.221  12.499   2.567 -0.4327  0.0548 -0.1101
 2741SOL    HW126215  12.191  12.434   2.630 -1.7642  0.5211 -0.2214
 2741SOL    HW226216  12.196  12.583   2.607 -0.0901  0.4193 -0.6564
 2742SOL     OW26217  13.488  12.372  10.183  0.8126 -0.2762  0.0146
 2742SOL    HW126218  13.536  12.304  10.137  2.4984  1.3652 -0.7613
 2742SOL    HW226219  13.422  12.401  10.120 -0.1748 -1.3934  0.4872
 2743SOL     OW26220  11.672   8.896   4.102 -0.3412 -0.0594  0.3351
 2743SOL    HW126221  11.702   8.805   4.098 -0.9441 -0.2230 -1.3104
 2743SOL    HW226222  11.712   8.931   4.181  0.0090 -1.7211  0.9354
 2744SOL     OW26223  11.718   2.244  11.816  0.5792  0.0577 -0.4711
 2744SOL    HW126224  11.718   2.168  11.757 -0.3965  0.1966 -0.6591
 2744SOL    HW226225  11.804   2.284  11.803  0.6341 -0.3038 -1.2942
 2745SOL     OW26226  11.813  10.212   4.673  0.0575  0.1467  0.0335
 2745SOL    HW126227  11.722  10.191   4.651  0.8168 -2.7723 -0.7615
 2745SOL    HW226228  11.849  10.249   4.592  0.3878 -1.8833 -0.8228
 2746SOL     OW26229   1.226   5.308  12.633  0.8367 -0.2291 -0.5968
 2746SOL    HW126230   1.228   5.304  12.729  0.9783  0.7936 -0.5482
 2746SOL    HW226231   1.254   5.221  12.605  0.0376 -0.7988  0.2882
 2747SOL     OW26232   1.007   7.700  11.227  0.8397  0.0892 -0.0806
 2747SOL    HW126233   0.964   7.746  11.299  2.9889 -0.1428  1.4714
 2747SOL    HW226234   1.075   7.761  11.197  2.7522 -1.3707  1.0111
 2748SOL     OW26235   7.622  12.639  13.751 -0.0048  0.1649 -0.0108
 2748SOL    HW126236   7.607  12.643  13.846  2.9754  1.1294  0.5282
 2748SOL    HW226237   7.624  12.546  13.731  1.3389 -0.1223  1.2949
 2749SOL     OW26238   2.778   9.698   7.973  0.4878 -0.1164  0.2906
 2749SOL    HW126239   2.844   9.705   8.042  3.1660 -1.1131 -1.9695
 2749SOL    HW226240   2.776   9.785   7.932 -0.8702  0.3824  1.3298
 2750SOL     OW26241   7.865  10.669   5.764 -0.2591  0.6059  0.7107
 2750SOL    HW126242   7.779  10.665   5.806 -0.9310  0.1868 -0.6446
 2750SOL    HW226243   7.898  10.579   5.767 -1.3305  0.0566 -1.6067
 2751SOL     OW26244   4.137  11.183   3.584  0.3825  0.2317  0.0915
 2751SOL    HW126245   4.098  11.211   3.501 -0.0885  2.0562  0.8911
 2751SOL    HW226246   4.137  11.087   3.579 -3.0954  0.1360 -0.4815
 2752SOL     OW26247   1.412  13.820  10.374 -0.0514 -0.2850  1.4293
 2752SOL    HW126248   1.454  13.737  10.354 -0.6820 -0.4760  0.8711
 2752SOL    HW226249   1.320  13.799  10.383 -0.9284  0.8770 -2.6826
 2753SOL     OW26250   8.941  12.566  11.619  0.6632 -0.4774  0.6554
 2753SOL    HW126251   8.957  12.471  11.621 -0.3144 -0.8064 -2.2287
 2753SOL    HW226252   9.029  12.604  11.615  1.0576 -1.3791  0.3117
 2754SOL     OW26253   3.390   5.423   4.310  0.5936  0.6011  0.4811
 2754SOL    HW126254   3.379   5.349   4.370  0.2263  0.1060 -0.1882
 2754SOL    HW226255   3.398   5.383   4.224 -1.4816  1.4250 -0.1438
 2755SOL     OW26256  11.725   5.580   0.207  0.2904  0.2920 -0.1747
 2755SOL    HW126257  11.675   5.646   0.255  0.2879  0.0222  0.1983
 2755SOL    HW226258  11.815   5.611   0.209  0.3666  0.0420  0.4204
 2756SOL     OW26259   1.272  13.826   1.254  0.1430  0.4885  0.1026
 2756SOL    HW126260   1.234  13.817   1.341 -1.5002 -1.6274 -0.7534
 2756SOL    HW226261   1.314  13.742   1.237 -0.6361  0.4033 -1.6026
 2757SOL     OW26262   8.809   6.978   7.569  0.0542 -0.6203  0.2167
 2757SOL    HW126263   8.773   6.972   7.657  0.8532 -1.6715  0.4944
 2757SOL    HW226264   8.760   7.048   7.527 -0.1861  0.0447  1.5726
 2758SOL     OW26265   1.658   2.750   6.710  0.7783 -0.0354 -0.9596
 2758SOL    HW126266   1.703   2.800   6.778 -0.9146 -0.9003  0.9262
 2758SOL    HW226267   1.711   2.671   6.699  0.3946 -0.5232  0.4146
 2759SOL     OW26268   9.106   1.806   8.772 -0.3357 -0.0117  0.6628
 2759SOL    HW126269   9.160   1.886   8.768  0.7998 -0.7513  0.6464
 2759SOL    HW226270   9.165   1.736   8.744 -1.5220 -0.7733 -0.0261
 2760SOL     OW26271   2.004   9.511   5.932 -0.0855 -0.1951  0.3977
 2760SOL    HW126272   1.924   9.563   5.920 -0.8381 -1.9203 -3.6587
 2760SOL    HW226273   1.981   9.448   5.999 -1.7432  0.1135  0.1787
 2761SOL     OW26274  12.835   9.429  12.255 -0.5386 -0.0813  0.5105
 2761SOL    HW126275  12.836   9.453  12.348 -0.8593  2.6812 -0.0923
 2761SOL    HW226276  12.760   9.477  12.219  0.0705 -0.4069 -1.3170
 2762SOL     OW26277   7.798   9.962   5.901  0.0805  0.2965  0.0805
 2762SOL    HW126278   7.821  10.054   5.887 -0.4101  0.5483  0.8605
 2762SOL    HW226279   7.820   9.946   5.993 -0.3520 -0.2036  0.1008
 2763SOL     OW26280  11.659  12.744   1.076 -0.7346  0.5510 -0.4869
 2763SOL    HW126281  11.638  12.826   1.121 -0.2958  1.1045 -1.2691
 2763SOL    HW226282  11.745  12.719   1.109  0.0180  1.4643 -1.6963
 2764SOL     OW26283   3.580   5.831   2.796  0.4133  0.1967 -0.2759
 2764SOL    HW126284   3.669   5.857   2.822  0.8437 -0.7417 -0.7669
 2764SOL    HW226285   3.593   5.755   2.738 -0.7719 -0.7636  0.6738
 2765SOL     OW26286  10.175  12.981   4.195 -0.0845  0.4833 -0.7152
 2765SOL    HW126287  10.151  12.889   4.205  1.6284  0.0197 -0.4872
 2765SOL    HW226288  10.155  13.021   4.280  0.0646  0.0821 -0.4902
 2766SOL     OW26289   6.083  12.082  13.491 -0.4055 -0.3333 -0.7266
 2766SOL    HW126290   6.079  12.173  13.521  1.7946 -0.5046  0.2545
 2766SOL    HW226291   6.031  12.033  13.555  1.0024 -0.1594  0.6004
 2767SOL     OW26292   1.271  13.546  10.397  0.4931 -0.1835  0.0231
 2767SOL    HW126293   1.346  13.492  10.421  0.4399  0.2170  1.1138
 2767SOL    HW226294   1.214  13.487  10.348  0.6399 -1.0004  0.8160
 2768SOL     OW26295   1.808   2.972   0.776 -0.0352  0.3482 -0.4648
 2768SOL    HW126296   1.815   2.920   0.696 -0.5202 -1.3441  0.5512
 2768SOL    HW226297   1.878   3.037   0.768  1.5318 -1.3424 -1.1559
 2769SOL     OW26298   4.161  13.246   2.533 -0.3348  0.0173  0.4245
 2769SOL    HW126299   4.115  13.257   2.450 -0.1233  0.8410  0.4067
 2769SOL    HW226300   4.122  13.310   2.592 -0.0788 -0.1533  0.7892
 2770SOL     OW26301   3.553   3.770  13.728 -0.0567 -0.3551  0.0765
 2770SOL    HW126302   3.515   3.751  13.814 -1.0250 -0.9093 -0.4493
 2770SOL    HW226303   3.487   3.825  13.686 -0.1568 -1.0970 -0.7566
 2771SOL     OW26304  11.111   9.860   0.729 -0.1733  0.2751  0.5447
 2771SOL    HW126305  11.175   9.833   0.795 -0.9081 -0.8108  0.8266
 2771SOL    HW226306  11.164   9.902   0.661  0.8718 -0.8040  0.6581
 2772SOL     OW26307  13.214   2.504   3.016  0.1132  0.1094 -0.1360
 2772SOL    HW126308  13.265   2.540   2.943  0.2507  1.1764  0.4613
 2772SOL    HW226309  13.275   2.445   3.060  0.7429  1.0897  0.3506
 2773SOL     OW26310   2.324  12.175   9.325  0.1372 -0.2145 -0.0438
 2773SOL    HW126311   2.316  12.268   9.307 -0.2497 -0.1803  0.2970
 2773SOL    HW226312   2.293  12.165   9.415  0.7251 -0.5884  0.1211
 2774SOL     OW26313   6.899   6.201  13.316 -0.0364 -0.2438 -0.2679
 2774SOL    HW126314   6.967   6.146  13.355  1.5853  2.2556  0.7116
 2774SOL    HW226315   6.946   6.277  13.282 -2.0947  0.3505 -1.9918
 2775SOL     OW26316   1.608  10.285   7.368  0.2119 -0.7362  0.0716
 2775SOL    HW126317   1.677  10.224   7.393  0.0821 -0.2528  1.7289
 2775SOL    HW226318   1.527  10.244   7.397 -0.3897 -1.7642 -2.7354
 2776SOL     OW26319   1.047   5.562   2.721  0.3555  0.4398  0.1466
 2776SOL    HW126320   1.060   5.619   2.645 -2.2684  1.0173  0.0617
 2776SOL    HW226321   1.006   5.483   2.685  1.8917 -0.6083  0.5881
 2777SOL     OW26322   4.233   6.960  12.466 -0.0129  0.6521 -0.3131
 2777SOL    HW126323   4.283   7.031  12.425  0.6760 -0.2801 -1.1586
 2777SOL    HW226324   4.158   6.947  12.409 -0.9717  1.6901  0.6666
 2778SOL     OW26325  13.255   3.238   2.986 -0.2546  0.7500  0.2530
 2778SOL    HW126326  13.245   3.324   2.945 -0.9409 -0.4504 -2.3094
 2778SOL    HW226327  13.166   3.214   3.012 -0.1785  0.5251  0.3038
 2779SOL     OW26328   6.940  13.308  13.422  0.0443 -0.0189 -0.4135
 2779SOL    HW126329   7.034  13.299  13.410  0.1423 -0.5721  0.6594
 2779SOL    HW226330   6.926  13.294  13.516 -1.1705 -0.5679 -0.6534
 2780SOL     OW26331  11.723   3.398  10.449 -0.4769  0.2214 -0.5412
 2780SOL    HW126332  11.806   3.445  10.461 -0.6392  0.1749  0.9505
 2780SOL    HW226333  11.735   3.316  10.496 -1.3344  0.1892 -0.3649
 2781SOL     OW26334   3.651  13.308  13.270 -0.1484 -0.2952 -0.7483
 2781SOL    HW126335   3.699  13.228  13.252  0.1694 -0.1301 -0.6511
 2781SOL    HW226336   3.661  13.361  13.191  1.1870  0.3993 -0.1631
 2782SOL     OW26337  11.644   9.284   9.444  0.4210  0.0633  0.0025
 2782SOL    HW126338  11.726   9.324   9.417  0.7160  1.1001  2.1763
 2782SOL    HW226339  11.664   9.240   9.526 -1.0432 -0.1833  0.2648
 2783SOL     OW26340   4.249   7.572   2.538  0.3762 -0.1373  0.5108
 2783SOL    HW126341   4.326   7.586   2.483  0.1565  1.8376  0.6250
 2783SOL    HW226342   4.263   7.486   2.578  2.5507  0.2073  0.5934
 2784SOL     OW26343   2.857   3.292   3.758  0.3062 -0.3650 -0.0746
 2784SOL    HW126344   2.819   3.343   3.686  0.9668 -2.0668 -1.7066
 2784SOL    HW226345   2.809   3.209   3.757  2.5425 -1.7256 -0.7942
 2785SOL     OW26346  13.730  12.225   3.303  0.0328  0.0403 -0.5684
 2785SOL    HW126347  13.764  12.243   3.216 -0.2941 -0.5144 -0.8123
 2785SOL    HW226348  13.693  12.309   3.332  2.0092  0.7869 -0.0869
 2786SOL     OW26349   7.924   3.371   9.899  0.3835  0.0636  0.4781
 2786SOL    HW126350   7.848   3.400   9.848  0.0933 -1.0025  0.2898
 2786SOL    HW226351   7.936   3.279   9.875  1.4291  0.0775  0.8897
 2787SOL     OW26352   4.970  11.281   4.182  0.4891 -0.1583  0.0925
 2787SOL    HW126353   4.918  11.334   4.242 -0.3245  0.1672 -0.8789
 2787SOL    HW226354   4.975  11.333   4.102  1.3244 -0.7047 -0.2242
 2788SOL     OW26355  12.235   6.604   1.859 -0.3520 -0.6716  0.4104
 2788SOL    HW126356  12.226   6.634   1.768 -0.4516  0.5058  0.7918
 2788SOL    HW226357  12.175   6.530   1.866  0.0907 -1.1538 -0.6394
 2789SOL     OW26358   0.316   9.276   0.647  0.7437  0.4353  0.1106
 2789SOL    HW126359   0.328   9.262   0.741  0.8842  1.8983  0.3365
 2789SOL    HW226360   0.258   9.205   0.619 -0.1876  0.5904  1.5283
 2790SOL     OW26361   0.877   0.358  13.753 -0.3048  0.0825 -0.2796
 2790SOL    HW126362   0.911   0.447  13.761 -1.7968  0.8534 -1.9381
 2790SOL    HW226363   0.899   0.317  13.836 -1.9436  2.8570  1.7228
 2791SOL     OW26364   6.572   1.650   3.817  0.1579 -0.4804  0.1784
 2791SOL    HW126365   6.512   1.581   3.842 -0.7223  0.6668  1.3549
 2791SOL    HW226366   6.521   1.708   3.760  0.7777 -0.5952 -0.5165
 2792SOL     OW26367   0.563  11.183  10.672 -0.2481  0.6860 -0.4937
 2792SOL    HW126368   0.612  11.257  10.708 -0.4929  0.3623  0.5411
 2792SOL    HW226369   0.495  11.165  10.738 -1.2459  0.6112 -1.5217
 2793SOL     OW26370   4.576  13.047   0.821  0.2213 -0.2283  0.1344
 2793SOL    HW126371   4.525  13.010   0.748  0.2932  1.4191 -0.8141
 2793SOL    HW226372   4.586  12.974   0.883 -1.2205 -1.2457 -0.7567
 2794SOL     OW26373   2.672  11.953   3.912  0.2754 -0.6139 -0.1880
 2794SOL    HW126374   2.767  11.960   3.914  0.2073  1.5539 -1.3790
 2794SOL    HW226375   2.649  11.904   3.991  2.3890 -1.7335 -0.2205
 2795SOL     OW26376   9.368  14.103   3.981  0.3810  0.6838 -0.2428
 2795SOL    HW126377   9.304  14.033   3.968  0.3004  0.6721  0.2055
 2795SOL    HW226378   9.349  14.136   4.069 -0.0830  1.7716 -0.7334
 2796SOL     OW26379   9.707   2.114   7.805  0.5281 -0.1280 -0.6482
 2796SOL    HW126380   9.673   2.121   7.716  0.1928 -0.1353 -0.5250
 2796SOL    HW226381   9.630   2.130   7.860  0.9728  1.1213 -0.3542
 2797SOL     OW26382   9.094   4.554   4.367 -0.0507 -0.1344 -0.4005
 2797SOL    HW126383   9.054   4.636   4.392  0.7276  0.3693 -0.7603
 2797SOL    HW226384   9.170   4.545   4.425  0.9057  0.3095 -1.5394
 2798SOL     OW26385  14.125   8.816   3.334 -0.1583 -0.0200  0.3618
 2798SOL    HW126386  14.039   8.856   3.344 -0.4197 -0.0024 -1.7092
 2798SOL    HW226387  14.186   8.890   3.335 -0.5480  0.4151 -2.3359
 2799SOL     OW26388  10.158   4.325  11.000  0.4105  0.1288 -0.1747
 2799SOL    HW126389  10.117   4.334  11.086  2.3540  0.7151  0.7468
 2799SOL    HW226390  10.107   4.382  10.943 -0.9198 -0.2759  0.5539
 2800SOL     OW26391   9.020   4.777   4.519 -0.3902 -0.3084  0.0965
 2800SOL    HW126392   8.988   4.718   4.587 -0.8708  2.2674  2.2480
 2800SOL    HW226393   9.101   4.813   4.555  0.1878 -0.0419 -1.4106
 2801SOL     OW26394   0.679  11.940   9.436  0.5915 -0.7400  0.7445
 2801SOL    HW126395   0.690  11.899   9.523  2.0977  0.3943  1.1256
 2801SOL    HW226396   0.724  12.024   9.443 -0.3975 -0.0441 -0.7600
 2802SOL     OW26397   8.387  12.112  10.187  0.0065 -0.4731  0.1451
 2802SOL    HW126398   8.414  12.044  10.125  1.2394  0.7307 -0.6936
 2802SOL    HW226399   8.393  12.070  10.272  3.0715 -0.8366 -0.1134
 2803SOL     OW26400  12.581  13.390   1.367 -0.9424 -0.9068  0.6601
 2803SOL    HW126401  12.527  13.356   1.439 -2.4529  0.6390  0.3381
 2803SOL    HW226402  12.670  13.367   1.391 -1.6811 -3.4072  1.3277
 2804SOL     OW26403   9.942   7.507   1.146 -0.2532  0.0788  0.1569
 2804SOL    HW126404   9.976   7.418   1.155  0.9095  0.3269 -1.3560
 2804SOL    HW226405   9.911   7.511   1.055 -1.6141  0.7934  0.6363
 2805SOL     OW26406   4.366   5.829   0.484  0.4402 -0.1944 -0.0194
 2805SOL    HW126407   4.424   5.754   0.495  1.2199  0.4012  0.0322
 2805SOL    HW226408   4.278   5.794   0.499  0.9052 -0.7760  1.5721
 2806SOL     OW26409   8.150   3.924  10.814  0.4284 -0.1088  0.7361
 2806SOL    HW126410   8.099   3.982  10.870  0.7271  0.5414  0.3502
 2806SOL    HW226411   8.165   3.975  10.734  2.2855  0.0252  1.1133
 2807SOL     OW26412   5.817   5.382   8.387 -0.4849  0.3115  0.2446
 2807SOL    HW126413   5.801   5.415   8.298 -0.3339 -1.9659 -0.7058
 2807SOL    HW226414   5.911   5.388   8.398 -0.6353  1.9878  0.8835
 2808SOL     OW26415  13.190  10.032   8.525  0.4832  0.5946  0.4477
 2808SOL    HW126416  13.185  10.093   8.452 -0.4552 -0.7677 -0.6823
 2808SOL    HW226417  13.099  10.013   8.547  0.7612  0.3454  1.4068
 2809SOL     OW26418   6.879   8.797   6.479 -0.1015 -0.4045 -0.4322
 2809SOL    HW126419   6.970   8.826   6.474  0.0374 -0.9652 -1.6496
 2809SOL    HW226420   6.852   8.817   6.568  1.3743 -0.7060  0.1105
 2810SOL     OW26421   9.038   2.447   2.892  0.4002 -0.1352  0.4503
 2810SOL    HW126422   9.093   2.391   2.837  0.8092  0.1919  0.5276
 2810SOL    HW226423   9.084   2.450   2.976  0.0296 -0.2329  0.6593
 2811SOL     OW26424   3.165   3.041  12.113 -0.4252 -0.4106  0.4146
 2811SOL    HW126425   3.070   3.035  12.125 -0.3846 -0.3955  0.7450
 2811SOL    HW226426   3.176   3.056  12.019 -0.7876  0.5085  0.5116
 2812SOL     OW26427  10.249   3.287   9.770 -0.0383  0.6490  0.3354
 2812SOL    HW126428  10.197   3.346   9.715  1.4965  2.0601  0.3074
 2812SOL    HW226429  10.204   3.288   9.855 -2.0169 -0.9826 -0.5895
 2813SOL     OW26430   5.723   5.758   9.843 -0.2763 -0.3644  0.0415
 2813SOL    HW126431   5.805   5.783   9.799  0.1299 -0.5921  0.6651
 2813SOL    HW226432   5.654   5.795   9.787  0.2816  1.1980  0.3554
 2814SOL     OW26433   2.524   8.771   3.489 -0.5548  0.2756  0.6978
 2814SOL    HW126434   2.484   8.836   3.431 -0.5341  0.5741  1.0094
 2814SOL    HW226435   2.612   8.806   3.507 -0.1412 -0.3836  0.0038
 2815SOL     OW26436   3.739  10.365  11.735 -0.4067 -0.2397  0.4318
 2815SOL    HW126437   3.707  10.399  11.818 -0.8873 -1.5547  0.8020
 2815SOL    HW226438   3.833  10.351  11.749  0.1786  2.4024 -0.2499
 2816SOL     OW26439   4.969   0.952   8.219 -0.2361  0.0003  0.1223
 2816SOL    HW126440   5.032   0.907   8.162 -0.7679 -0.8194  0.1692
 2816SOL    HW226441   5.001   0.934   8.307  0.0292  0.4471  0.1250
 2817SOL     OW26442   7.520   9.950   9.195  0.1944 -0.9255  0.2178
 2817SOL    HW126443   7.516   9.955   9.100 -0.9517 -2.3285  0.1434
 2817SOL    HW226444   7.453  10.011   9.225  1.9202  1.0634  0.2534
 2818SOL     OW26445   7.750  11.963  13.861  0.3104  0.5525  0.1558
 2818SOL    HW126446   7.773  11.878  13.823 -0.8601  0.5759 -0.6485
 2818SOL    HW226447   7.830  11.992  13.905  0.2914 -1.6694  1.7968
 2819SOL     OW26448  11.135   7.582   9.848 -0.8335 -0.2144  0.1312
 2819SOL    HW126449  11.133   7.616   9.758 -0.3642  0.1705  0.2607
 2819SOL    HW226450  11.060   7.622   9.891 -0.2130  0.7822  0.3184
 2820SOL     OW26451  10.779   1.352   7.610 -0.0093 -0.3126  0.0396
 2820SOL    HW126452  10.815   1.425   7.560  1.3237  0.3815  1.9241
 2820SOL    HW226453  10.684   1.363   7.603  0.1534  2.0187  0.8367
 2821SOL     OW26454   5.507  10.995   5.085  0.5944 -0.3750  0.3030
 2821SOL    HW126455   5.492  11.071   5.140 -1.1765 -0.4843  0.0042
 2821SOL    HW226456   5.544  11.031   5.004  0.4096  0.0961  0.4241
 2822SOL     OW26457  13.945   0.877   4.318 -0.0263  0.0580 -0.0158
 2822SOL    HW126458  14.037   0.867   4.294 -0.0190  0.3132 -0.0944
 2822SOL    HW226459  13.946   0.875   4.414 -0.1484 -1.7681 -0.0134
 2823SOL     OW26460   2.343   4.040  11.617 -0.1868  0.1222 -0.4916
 2823SOL    HW126461   2.354   4.125  11.658 -2.2124  1.0164 -1.6455
 2823SOL    HW226462   2.249   4.023  11.622  0.0083 -1.4393 -1.4321
 2824SOL     OW26463  12.820   2.336   9.725 -0.6162  0.0103 -0.3711
 2824SOL    HW126464  12.912   2.319   9.703 -0.4009 -0.1316  0.5995
 2824SOL    HW226465  12.783   2.249   9.740  0.0804  0.1636  3.0250
 2825SOL     OW26466  10.601   7.178   2.518  0.1417  0.3580 -0.2530
 2825SOL    HW126467  10.560   7.120   2.582  0.4447  0.4261  0.0060
 2825SOL    HW226468  10.563   7.152   2.434  1.7727 -1.6323 -0.4466
 2826SOL     OW26469   1.197  11.371   9.806  0.3382  0.3849  0.0771
 2826SOL    HW126470   1.183  11.319   9.727  0.0297  1.4712 -0.6185
 2826SOL    HW226471   1.292  11.375   9.815  0.3623 -1.2833  0.8471
 2827SOL     OW26472  10.151  12.019   1.136  0.0077 -0.2742 -0.2378
 2827SOL    HW126473  10.137  12.105   1.095 -1.2699 -0.1258  0.4605
 2827SOL    HW226474  10.241  11.996   1.113  1.1038  2.1738  1.1674
 2828SOL     OW26475   9.373  13.810   5.885  0.4313 -0.4665  0.4444
 2828SOL    HW126476   9.281  13.835   5.891  0.8398  1.5945 -0.9459
 2828SOL    HW226477   9.382  13.736   5.946 -2.1833 -0.9321  0.3659
 2829SOL     OW26478  12.096   0.026  11.894  0.2551  0.2210  0.1250
 2829SOL    HW126479  12.077   0.027  11.988 -2.4471  2.4401 -0.3143
 2829SOL    HW226480  12.055  -0.055  11.862 -0.1827  0.2429  0.6201
 2830SOL     OW26481  13.709  11.396   1.831 -0.6416  0.4531 -0.0825
 2830SOL    HW126482  13.642  11.458   1.862 -1.9481 -0.7697 -0.3510
 2830SOL    HW226483  13.672  11.359   1.751  0.2459 -0.4362 -0.0971
 2831SOL     OW26484   7.680   5.734   2.437 -0.6196  0.2857 -0.0654
 2831SOL    HW126485   7.597   5.693   2.461  0.5048 -1.7130  0.6452
 2831SOL    HW226486   7.711   5.682   2.362 -0.3930  1.5475 -0.8663
 2832SOL     OW26487   9.565   8.216   0.426 -0.2237 -0.2331  0.2540
 2832SOL    HW126488   9.529   8.289   0.476 -0.2619 -0.1715  0.1360
 2832SOL    HW226489   9.555   8.140   0.484 -0.2570 -0.1604  0.3447
 2833SOL     OW26490   5.576  14.032   3.460  0.0038 -0.4278  0.5728
 2833SOL    HW126491   5.544  13.943   3.454 -2.6632  0.3444  1.7145
 2833SOL    HW226492   5.659  14.025   3.508  0.8527 -2.3958 -1.0563
 2834SOL     OW26493   1.670  12.900   7.515 -0.0061 -0.2899 -0.5381
 2834SOL    HW126494   1.757  12.926   7.484  0.2297  0.0482  0.3831
 2834SOL    HW226495   1.626  12.983   7.536  0.3666 -0.5467  1.4105
 2835SOL     OW26496   5.776   5.856  10.094 -0.3754  0.9419  0.2150
 2835SOL    HW126497   5.760   5.882  10.003  1.9036 -1.2990 -0.9460
 2835SOL    HW226498   5.759   5.762  10.095  0.6610  0.7441  1.8281
 2836SOL     OW26499  10.345   3.627  10.455  0.0596 -0.1551 -0.3242
 2836SOL    HW126500  10.351   3.554  10.517 -4.3792 -0.7983 -0.3611
 2836SOL    HW226501  10.342   3.585  10.369 -1.0900  0.1377 -0.4401
 2837SOL     OW26502  11.939   7.720  11.318 -0.0202 -0.4114 -0.3412
 2837SOL    HW126503  11.988   7.664  11.379  1.2021 -0.0130 -0.9297
 2837SOL    HW226504  11.947   7.808  11.356 -2.1750 -0.6068  0.7366
 2838SOL     OW26505   9.473   2.154  13.027 -0.0894 -0.4989 -0.5567
 2838SOL    HW126506   9.443   2.156  12.935 -4.3677  3.0735  0.5265
 2838SOL    HW226507   9.521   2.237  13.037 -0.3814 -0.4592  0.5753
 2839SOL     OW26508  10.295  11.443   9.084  0.2901  0.0122  0.4533
 2839SOL    HW126509  10.302  11.538   9.098 -0.7548  0.1489  0.1050
 2839SOL    HW226510  10.214  11.418   9.126 -0.2954 -0.4332 -0.8754
 2840SOL     OW26511   1.162  11.288  12.900 -0.1939 -0.2179 -0.4806
 2840SOL    HW126512   1.156  11.215  12.840 -1.5757  0.8819 -1.7585
 2840SOL    HW226513   1.254  11.316  12.895 -0.1426 -0.5404 -1.6106
 2841SOL     OW26514  13.790  13.764   8.901 -0.1757  0.2550 -0.5580
 2841SOL    HW126515  13.826  13.847   8.869  1.7227 -0.2530  0.1046
 2841SOL    HW226516  13.697  13.781   8.913  0.3385  2.6812  0.6854
 2842SOL     OW26517   0.684   3.787  10.922 -0.0191  0.5935 -0.4376
 2842SOL    HW126518   0.595   3.755  10.905  0.5699 -0.9435 -0.8183
 2842SOL    HW226519   0.698   3.773  11.015 -0.4769  1.6790 -0.1938
 2843SOL     OW26520  10.952  11.536  10.895  0.0564  0.3119  0.2829
 2843SOL    HW126521  10.921  11.561  10.982 -1.1361  0.2633 -0.1016
 2843SOL    HW226522  10.874  11.499  10.852  0.3457  1.2760 -1.1501
 2844SOL     OW26523   5.763   0.667  12.706 -0.1725 -0.6411 -0.2232
 2844SOL    HW126524   5.766   0.737  12.641 -0.7547 -0.2881  0.1151
 2844SOL    HW226525   5.836   0.685  12.765 -1.6650  1.0809  1.2294
 2845SOL     OW26526   0.343   9.333   2.127  0.5745 -0.2290  0.1171
 2845SOL    HW126527   0.269   9.381   2.164  0.7708 -1.3611  2.1999
 2845SOL    HW226528   0.308   9.245   2.110  1.0611 -0.3461 -0.2876
 2846SOL     OW26529  12.141  12.640   7.666 -0.5740  0.3111  0.0061
 2846SOL    HW126530  12.135  12.693   7.745  1.0206 -1.1945  1.2081
 2846SOL    HW226531  12.064  12.665   7.614 -0.4748  2.9296  0.9874
 2847SOL     OW26532   6.333   5.324  12.118  0.3106  0.0155 -0.3724
 2847SOL    HW126533   6.394   5.350  12.048  0.8998 -0.9353 -0.2302
 2847SOL    HW226534   6.254   5.296  12.071  0.2507  0.5330 -0.5931
 2848SOL     OW26535   5.901  10.732   5.934  0.2138 -0.1679 -0.1005
 2848SOL    HW126536   5.936  10.730   6.024  0.1994 -2.4329 -0.0931
 2848SOL    HW226537   5.978  10.723   5.878  0.2603  1.5994 -0.3760
 2849SOL     OW26538   4.308  12.538  13.974  0.3529  0.1336  0.0125
 2849SOL    HW126539   4.297  12.568  14.064 -2.4087  2.2351 -0.9044
 2849SOL    HW226540   4.376  12.595  13.938  2.2041 -1.3723  0.9422
 2850SOL     OW26541   4.351   9.590   5.842 -0.2855 -0.1424 -0.0630
 2850SOL    HW126542   4.362   9.617   5.933  0.3453 -1.8774  0.4165
 2850SOL    HW226543   4.367   9.669   5.792 -0.4906  0.8204  1.3308
 2851SOL     OW26544  11.537   6.036  11.580  0.2287 -0.4227 -0.7386
 2851SOL    HW126545  11.570   5.964  11.527  1.5414 -0.0369 -0.4823
 2851SOL    HW226546  11.557   6.011  11.670 -3.0852 -1.6536 -0.2150
 2852SOL     OW26547  13.239   6.791   0.460  0.3921 -0.1855  0.5395
 2852SOL    HW126548  13.263   6.884   0.465 -0.7985  0.2946 -1.5104
 2852SOL    HW226549  13.320   6.747   0.432  0.5295  0.4967 -0.1755
 2853SOL     OW26550   1.976   6.914   9.070  0.5778  0.4597  0.6301
 2853SOL    HW126551   1.890   6.933   9.033  1.5304  0.9567 -1.4616
 2853SOL    HW226552   1.992   6.986   9.132 -0.7591 -0.0096  1.5644
 2854SOL     OW26553  13.423   8.360  13.797  0.2840  0.0756 -0.3137
 2854SOL    HW126554  13.341   8.410  13.792 -1.1480 -2.0249  0.7374
 2854SOL    HW226555  13.411   8.288  13.735  0.5696 -1.2404  1.1171
 2855SOL     OW26556   0.451  12.496  12.050  0.0815 -0.6030  0.5392
 2855SOL    HW126557   0.535  12.461  12.020  0.3134  0.8218 -0.5497
 2855SOL    HW226558   0.469  12.527  12.139  1.1957  1.2377 -0.2884
 2856SOL     OW26559  10.974   3.760  10.057 -0.0216  0.0023 -0.0222
 2856SOL    HW126560  10.903   3.789  10.000 -0.7110  0.9516  1.2838
 2856SOL    HW226561  10.969   3.664  10.055 -1.7976  0.0500  0.5653
 2857SOL     OW26562  11.035  12.103   9.631  0.3107  0.1198 -0.6912
 2857SOL    HW126563  10.953  12.063   9.659 -0.2353  0.4514 -1.7372
 2857SOL    HW226564  11.014  12.144   9.547  1.4955  0.4022 -0.8733
 2858SOL     OW26565  10.029   3.490  10.549  0.1534  0.4447 -0.3209
 2858SOL    HW126566   9.934   3.489  10.560  0.3622 -0.1130  1.8472
 2858SOL    HW226567  10.061   3.544  10.621  1.6222 -1.9385  0.9394
 2859SOL     OW26568   5.595   4.676   5.538  0.2547 -0.1815  0.3149
 2859SOL    HW126569   5.577   4.751   5.482 -0.6076 -1.6828 -1.5097
 2859SOL    HW226570   5.666   4.629   5.495  0.0033 -1.0302  0.7891
 2860SOL     OW26571   8.498  10.229   9.392 -0.3491  0.3206 -0.2517
 2860SOL    HW126572   8.426  10.189   9.343  1.7833 -0.3798 -3.0717
 2860SOL    HW226573   8.551  10.155   9.421  1.9740  0.8178 -2.8327
 2861SOL     OW26574   6.269   0.077   5.729 -0.1506  0.4167  0.1544
 2861SOL    HW126575   6.296   0.156   5.776 -0.4240  0.9931 -0.6297
 2861SOL    HW226576   6.343   0.057   5.671 -0.3559  0.4932 -0.1366
 2862SOL     OW26577  11.068   1.380  13.226 -0.3561 -0.3214  0.7603
 2862SOL    HW126578  11.058   1.472  13.203 -2.3011 -0.1027  2.2697
 2862SOL    HW226579  11.156   1.374  13.263  0.8585  0.3180 -1.7694
 2863SOL     OW26580  13.252   1.906   7.858  0.5240 -0.3381  0.0648
 2863SOL    HW126581  13.319   1.902   7.926  0.1155 -0.8177  0.4431
 2863SOL    HW226582  13.172   1.929   7.905  0.2800 -0.4708 -0.2826
 2864SOL     OW26583   6.651   9.234  12.812 -0.4021 -0.0286 -0.3446
 2864SOL    HW126584   6.692   9.303  12.758  0.8962 -2.5703 -2.9152
 2864SOL    HW226585   6.712   9.222  12.885 -1.1554  2.1296  0.7179
 2865SOL     OW26586  10.500   3.167   0.082  0.0572  0.4325 -0.5078
 2865SOL    HW126587  10.438   3.124   0.023 -0.6781 -0.2098  0.6738
 2865SOL    HW226588  10.583   3.121   0.068  0.0469  0.6799 -1.4408
 2866SOL     OW26589  12.496   6.219   0.040 -0.2003  0.4425  0.4703
 2866SOL    HW126590  12.454   6.213   0.126 -0.9302 -1.2723  0.0473
 2866SOL    HW226591  12.502   6.313   0.023  1.0525  0.8965  2.8765
 2867SOL     OW26592   5.381   9.607   2.600 -0.3365 -0.0865 -0.0759
 2867SOL    HW126593   5.444   9.535   2.605 -1.4457 -1.0672  0.1561
 2867SOL    HW226594   5.360   9.626   2.691 -0.0768  0.5266 -0.1381
 2868SOL     OW26595   0.190   5.010   7.552 -0.2450 -0.1838 -0.5553
 2868SOL    HW126596   0.105   4.979   7.521 -0.4283  1.0555 -1.3766
 2868SOL    HW226597   0.174   5.041   7.641 -0.3885 -0.9795 -0.2919
 2869SOL     OW26598  12.506   4.673   4.868  0.4539  0.4700  0.1242
 2869SOL    HW126599  12.461   4.748   4.907  0.2169 -0.6909  2.2204
 2869SOL    HW226600  12.489   4.601   4.928  1.6134 -1.0135 -1.2431
 2870SOL     OW26601  12.328  13.279   6.088 -0.3901 -0.2514  0.4275
 2870SOL    HW126602  12.370  13.293   6.004 -0.8646 -1.3590 -0.0088
 2870SOL    HW226603  12.251  13.226   6.068  1.0096 -3.0227  1.8731
 2871SOL     OW26604  10.185   4.681  12.520 -0.2558 -0.0484 -0.0024
 2871SOL    HW126605  10.192   4.651  12.429 -0.4136  0.8983 -0.3417
 2871SOL    HW226606  10.248   4.753  12.526  0.7738 -1.0092  1.0460
 2872SOL     OW26607   7.064   9.668  11.274 -0.0460  0.2390  0.3627
 2872SOL    HW126608   6.986   9.633  11.232  0.2066  0.1678 -0.0465
 2872SOL    HW226609   7.035   9.750  11.315 -0.5941 -0.3312  1.1604
 2873SOL     OW26610   4.999   1.324   3.404 -0.0913 -0.6804 -0.3885
 2873SOL    HW126611   5.011   1.260   3.334  1.8634 -0.3722 -0.3917
 2873SOL    HW226612   4.954   1.397   3.361  0.0510 -0.9673 -1.0446
 2874SOL     OW26613  10.858   3.309   9.899 -0.8450 -0.1090 -0.1851
 2874SOL    HW126614  10.873   3.350   9.983 -3.3737 -1.1700  0.9006
 2874SOL    HW226615  10.865   3.380   9.835 -0.3707  1.0043  1.0694
 2875SOL     OW26616   4.290   6.860   4.105 -0.4490 -0.4675  0.3238
 2875SOL    HW126617   4.229   6.917   4.153 -1.1302 -1.8836  1.2221
 2875SOL    HW226618   4.338   6.814   4.173  1.3231  0.2318 -0.3786
 2876SOL     OW26619   4.423   9.810   0.307 -0.0714  0.3292  0.0005
 2876SOL    HW126620   4.497   9.779   0.360  1.4413 -0.5891 -2.4825
 2876SOL    HW226621   4.395   9.891   0.350  3.0347  1.2603  0.5304
 2877SOL     OW26622  11.581  11.422  12.361 -0.0514 -0.9478  0.3924
 2877SOL    HW126623  11.490  11.435  12.335  0.6670  0.2385 -1.7408
 2877SOL    HW226624  11.595  11.486  12.431 -0.7955 -1.0250  0.6278
 2878SOL     OW26625   3.560   3.290   4.438  0.8419  0.1586  0.1647
 2878SOL    HW126626   3.608   3.347   4.378 -0.6027 -0.0720 -1.2749
 2878SOL    HW226627   3.490   3.345   4.473 -0.4954 -0.6282 -1.1499
 2879SOL     OW26628  11.006   5.302   9.690 -0.1127 -0.4801  0.1581
 2879SOL    HW126629  10.952   5.331   9.763  2.8844  0.0530  2.3531
 2879SOL    HW226630  11.063   5.234   9.726  0.5759 -1.1958 -2.0620
 2880SOL     OW26631   9.759  11.815   4.615  0.1680 -0.2065  0.2016
 2880SOL    HW126632   9.846  11.839   4.647  0.3274 -0.9121  0.3236
 2880SOL    HW226633   9.702  11.824   4.691  0.1570  0.1563  0.1488
 2881SOL     OW26634   3.264  11.510  10.127 -0.2629 -0.3113 -0.4771
 2881SOL    HW126635   3.338  11.492  10.069  0.5120  0.7890  0.1127
 2881SOL    HW226636   3.264  11.438  10.189  0.5540 -0.1583 -0.2793
 2882SOL     OW26637   1.774   8.422   9.233 -0.1161 -0.5405  0.1347
 2882SOL    HW126638   1.739   8.408   9.145 -0.3981  1.4084 -0.1041
 2882SOL    HW226639   1.747   8.345   9.282 -1.1568 -1.0152 -1.1375
 2883SOL     OW26640   7.672   9.490   4.648  0.0829 -0.1850  0.2634
 2883SOL    HW126641   7.590   9.441   4.649  1.6170 -3.3800  4.7239
 2883SOL    HW226642   7.650   9.575   4.685 -1.5101 -0.0955 -0.7885
 2884SOL     OW26643   1.670   0.957   6.100  0.0397  0.4865  0.3295
 2884SOL    HW126644   1.647   0.955   6.007 -1.8860  2.2080  0.6741
 2884SOL    HW226645   1.765   0.969   6.101  0.0778  0.6059 -1.4244
 2885SOL     OW26646   0.542   8.881  12.816 -1.0196 -0.0436 -0.3550
 2885SOL    HW126647   0.474   8.946  12.799  0.6107  2.0276  0.6212
 2885SOL    HW226648   0.512   8.834  12.893 -0.9204  1.5775  0.7213
 2886SOL     OW26649   6.433   1.818   8.774 -0.3676 -0.7089  0.1074
 2886SOL    HW126650   6.462   1.764   8.848 -1.5060  0.9143  1.8229
 2886SOL    HW226651   6.356   1.773   8.740 -0.6267 -0.7912  0.7844
 2887SOL     OW26652   6.242   2.149   0.512 -0.6435  0.1634  0.1294
 2887SOL    HW126653   6.263   2.104   0.430 -0.9827 -2.2133  1.2668
 2887SOL    HW226654   6.195   2.228   0.484 -0.1933 -0.2320 -1.9754
 2888SOL     OW26655  12.696  11.894   5.157 -0.3044  0.1292 -0.5636
 2888SOL    HW126656  12.674  11.975   5.111  0.2341  0.4598 -0.2637
 2888SOL    HW226657  12.714  11.923   5.247 -0.7246 -0.4156 -0.3025
 2889SOL     OW26658  10.061   4.535  13.102 -0.1545  0.6117  0.2161
 2889SOL    HW126659   9.997   4.517  13.171  0.0685 -1.7941 -0.1275
 2889SOL    HW226660  10.137   4.483  13.126  0.0788  0.0597 -1.6100
 2890SOL     OW26661   4.516   5.853  10.173  0.6934  0.7389 -0.3722
 2890SOL    HW126662   4.549   5.927  10.122  0.2519 -0.3318 -2.3299
 2890SOL    HW226663   4.493   5.788  10.107  1.0272 -1.1400  1.2869
 2891SOL     OW26664   1.342   1.610  10.736 -0.1976  0.0645  0.6583
 2891SOL    HW126665   1.432   1.578  10.746 -0.2379  0.3830  2.2674
 2891SOL    HW226666   1.335   1.682  10.799 -1.1573  0.9956 -0.4543
 2892SOL     OW26667   9.569   6.438  12.116 -0.4227  0.3241  1.0521
 2892SOL    HW126668   9.541   6.373  12.052 -1.5119  2.0799 -0.3523
 2892SOL    HW226669   9.664   6.435  12.113 -0.4117  0.7724 -1.1867
 2893SOL     OW26670   1.107   2.418   2.679  0.1973 -0.0891  0.2227
 2893SOL    HW126671   1.108   2.511   2.703  0.6710 -0.1264  0.3577
 2893SOL    HW226672   1.199   2.391   2.684  0.1327 -0.4264 -0.3714
 2894SOL     OW26673   1.307   7.830   0.223 -0.0774  0.1630  0.5038
 2894SOL    HW126674   1.224   7.783   0.217 -0.5571  1.1314 -0.7358
 2894SOL    HW226675   1.322   7.864   0.135  1.4147  0.3881  0.8202
 2895SOL     OW26676   9.350  11.277   1.307  0.1086  0.1768 -0.4116
 2895SOL    HW126677   9.354  11.302   1.214  2.2936  0.0620 -0.3952
 2895SOL    HW226678   9.441  11.257   1.330 -0.5108 -0.5406  1.5666
 2896SOL     OW26679  13.906  13.580   4.974 -0.2254  0.5485 -0.2077
 2896SOL    HW126680  13.937  13.644   4.909 -0.5291 -0.1321 -1.0501
 2896SOL    HW226681  13.963  13.504   4.961 -1.0083 -0.0107 -0.4550
 2897SOL     OW26682   0.499   6.540   1.071  0.2671  0.2757  0.3276
 2897SOL    HW126683   0.445   6.487   1.130  1.9590 -0.8157  0.9435
 2897SOL    HW226684   0.513   6.622   1.118 -0.2654  0.2986  0.4518
 2898SOL     OW26685  11.048   4.096   7.313 -0.2454 -0.6600 -0.0517
 2898SOL    HW126686  11.055   4.076   7.406  0.5952 -2.1959 -0.4222
 2898SOL    HW226687  11.114   4.042   7.271 -1.2019 -0.6598 -1.6460
 2899SOL     OW26688  11.263   4.205   7.668  0.2839 -0.3159 -0.0648
 2899SOL    HW126689  11.182   4.166   7.700 -0.0158  0.7339  0.4739
 2899SOL    HW226690  11.318   4.214   7.746  1.1644 -1.5487 -0.5075
 2900SOL     OW26691   5.250   2.640   6.200  0.2025  0.1942 -0.2697
 2900SOL    HW126692   5.180   2.704   6.186 -0.9442 -0.7303  0.9825
 2900SOL    HW226693   5.213   2.557   6.170  1.9822  0.1596 -2.7139
 2901SOL     OW26694   0.111   1.063  13.870 -0.1773  0.2500 -0.0281
 2901SOL    HW126695   0.120   1.120  13.947 -0.4375 -1.0581  0.9988
 2901SOL    HW226696   0.179   0.997  13.880 -1.8585 -1.5146  0.5273
 2902SOL     OW26697   2.977   5.960  10.435 -0.2768  0.4408  0.1203
 2902SOL    HW126698   3.004   5.935  10.347 -1.3460 -0.0319 -0.0911
 2902SOL    HW226699   2.952   6.053  10.427 -1.5753  0.0710 -0.3928
 2903SOL     OW26700   9.810   1.593  11.055  0.0813 -0.8645 -0.7611
 2903SOL    HW126701   9.799   1.524  10.990  0.5902  0.1151 -1.9140
 2903SOL    HW226702   9.882   1.646  11.023  0.9309 -0.8316  1.0528
 2904SOL     OW26703   4.420  11.190  14.059 -0.2349  0.3600  0.5334
 2904SOL    HW126704   4.493  11.130  14.041 -1.7035 -1.3408  0.0103
 2904SOL    HW226705   4.457  11.277  14.046  0.9545 -0.4954 -2.7365
 2905SOL     OW26706  12.981  10.570   5.305  0.3921 -0.0784 -0.7402
 2905SOL    HW126707  12.991  10.525   5.389 -0.5613  1.6814  0.3851
 2905SOL    HW226708  13.059  10.547   5.256  1.2011 -0.7950  0.8135
 2906SOL     OW26709   6.386   6.523   0.364  0.7527  0.0728 -0.7406
 2906SOL    HW126710   6.299   6.529   0.323  0.8391  2.1365 -0.7320
 2906SOL    HW226711   6.447   6.530   0.291  0.9187 -0.3156 -0.6409
 2907SOL     OW26712  11.293   1.839  12.983  0.0274  0.1175 -0.5318
 2907SOL    HW126713  11.351   1.829  12.908  0.5707  0.4820 -0.1723
 2907SOL    HW226714  11.212   1.873  12.947  0.6122  1.2285 -0.8464
 2908SOL     OW26715   3.742  12.274   1.579  0.0438  0.1719  0.1366
 2908SOL    HW126716   3.744  12.345   1.515  2.3194 -0.0141 -0.1064
 2908SOL    HW226717   3.780  12.199   1.533  2.0832  0.1324  1.7061
 2909SOL     OW26718   0.662   5.207  13.363  0.3301  0.2530 -0.2141
 2909SOL    HW126719   0.593   5.273  13.357  0.8387  0.7103 -1.4062
 2909SOL    HW226720   0.636   5.140  13.300  1.1079  0.5613 -0.8697
 2910SOL     OW26721   1.814  14.151   7.893  0.1774 -0.2886 -0.5040
 2910SOL    HW126722   1.759  14.195   7.958  1.6957 -0.3398  0.8862
 2910SOL    HW226723   1.858  14.223   7.847  0.5058 -0.2859 -0.1894
 2911SOL     OW26724   6.647  10.655  11.958  0.1579 -0.1460 -0.5409
 2911SOL    HW126725   6.684  10.731  11.913 -0.9485 -0.0853 -1.3968
 2911SOL    HW226726   6.722  10.609  11.994  0.9063  0.9694 -0.6218
 2912SOL     OW26727  12.745  13.438   5.154  0.5984 -0.5900  0.2853
 2912SOL    HW126728  12.650  13.447   5.168  0.4197  0.2232 -1.2832
 2912SOL    HW226729  12.773  13.375   5.221 -0.9912 -0.6196  0.9669
 2913SOL     OW26730   2.172  12.158   5.051  0.5884 -0.0725 -0.2726
 2913SOL    HW126731   2.166  12.204   4.968 -1.6509  0.4124  0.0999
 2913SOL    HW226732   2.246  12.200   5.096  0.7282  0.8354 -1.3078
 2914SOL     OW26733  11.157  10.649   8.259 -0.4679  0.5264  0.1792
 2914SOL    HW126734  11.147  10.650   8.164 -2.4807  2.3306  0.3241
 2914SOL    HW226735  11.078  10.604   8.291  0.1906 -0.0745  1.0187
 2915SOL     OW26736   9.946   2.889   0.601 -0.9016 -0.4581 -0.0212
 2915SOL    HW126737  10.002   2.946   0.549 -1.6272 -1.1972 -1.6810
 2915SOL    HW226738   9.858   2.903   0.566 -1.4590 -0.8236  1.1674
 2916SOL     OW26739  12.651   3.548   4.316  0.5176  0.1279 -0.1905
 2916SOL    HW126740  12.612   3.632   4.293 -1.2173 -0.0185  1.8384
 2916SOL    HW226741  12.595   3.483   4.273 -0.8674 -0.0497  1.7600
 2917SOL     OW26742   0.037   0.726   4.546 -0.3729  0.4704 -0.0137
 2917SOL    HW126743   0.052   0.776   4.465 -2.8565 -2.0323 -2.2466
 2917SOL    HW226744   0.120   0.682   4.563  0.2891  1.2694 -1.0232
 2918SOL     OW26745   0.086   7.745  13.467 -0.2822  0.2431 -0.0577
 2918SOL    HW126746   0.087   7.805  13.393  0.0931  0.2329 -0.0663
 2918SOL    HW226747   0.011   7.772  13.520 -0.0664  0.7675 -0.0213
 2919SOL     OW26748  11.189  11.195   9.907  0.4160 -0.3135 -0.5480
 2919SOL    HW126749  11.240  11.161   9.981 -0.5314  1.1715  0.8626
 2919SOL    HW226750  11.098  11.174   9.929 -0.1076  2.1506 -0.0665
 2920SOL     OW26751  11.357   9.403   4.639 -0.1825 -0.5478 -0.2739
 2920SOL    HW126752  11.405   9.482   4.665  0.1660  0.5941 -3.8321
 2920SOL    HW226753  11.421   9.333   4.644 -0.1062 -0.3910  1.5730
 2921SOL     OW26754   6.488  13.599   4.783  0.0471  0.1634 -0.6523
 2921SOL    HW126755   6.409  13.566   4.742 -1.6788  1.6154  1.2877
 2921SOL    HW226756   6.517  13.670   4.726  1.3002 -1.7360 -2.5241
 2922SOL     OW26757   1.600  14.141  11.193  0.0305 -0.5134  0.1168
 2922SOL    HW126758   1.559  14.226  11.180  0.4762 -0.5144 -1.5222
 2922SOL    HW226759   1.668  14.158  11.259 -1.2802 -0.1113  1.4275
 2923SOL     OW26760   2.969  13.217  11.276  0.1225  0.0409 -0.0562
 2923SOL    HW126761   2.989  13.171  11.195  0.1538 -1.6708  0.8781
 2923SOL    HW226762   2.963  13.309  11.251  4.1533  0.1393 -1.3214
 2924SOL     OW26763   8.643   6.627   8.989 -0.0524  0.2837 -0.2835
 2924SOL    HW126764   8.699   6.645   9.065  1.4697  2.4809 -1.8128
 2924SOL    HW226765   8.574   6.692   8.995 -1.7342 -1.4672  0.7616
 2925SOL     OW26766  11.751   9.860   5.515  0.1873 -0.3658  0.3786
 2925SOL    HW126767  11.760   9.882   5.423  0.6884  2.5298  1.0265
 2925SOL    HW226768  11.670   9.903   5.543  0.4011 -0.6082  1.4328
 2926SOL     OW26769   7.664   8.788   7.202 -0.1504 -0.1395 -0.4964
 2926SOL    HW126770   7.648   8.883   7.202  2.1859  0.3585  1.5380
 2926SOL    HW226771   7.636   8.759   7.289 -1.1301 -1.4387 -1.2003
 2927SOL     OW26772  12.452   5.850   3.776  0.6017 -0.1790  0.2275
 2927SOL    HW126773  12.361   5.874   3.792  1.1444  1.0029  1.7438
 2927SOL    HW226774  12.474   5.893   3.693  0.2052  0.7928  0.6138
 2928SOL     OW26775   8.145  12.273  10.427 -0.3414 -0.0190 -0.6106
 2928SOL    HW126776   8.145  12.185  10.390  0.7193 -0.0298 -0.6110
 2928SOL    HW226777   8.055  12.304  10.417 -0.3702 -0.5158 -1.9897
 2929SOL     OW26778   4.718  12.547   8.831  0.0768 -0.1558  0.6698
 2929SOL    HW126779   4.681  12.621   8.782 -0.6925 -0.4585  0.7801
 2929SOL    HW226780   4.688  12.470   8.783 -1.3249 -0.4961  2.0140
 2930SOL     OW26781   2.875  10.320  11.763 -0.5465 -0.5092 -0.1582
 2930SOL    HW126782   2.896  10.302  11.671 -0.4947 -0.6752 -0.1133
 2930SOL    HW226783   2.846  10.236  11.798  0.7906 -0.7770  0.3529
 2931SOL     OW26784  10.632   1.880   2.458  0.6638 -0.5310 -0.3561
 2931SOL    HW126785  10.605   1.930   2.535  1.8042  0.4915 -0.5845
 2931SOL    HW226786  10.603   1.933   2.384  2.2084  0.0147 -0.6040
 2932SOL     OW26787  10.525   0.150   5.211  0.2516  0.1119  0.4052
 2932SOL    HW126788  10.540   0.055   5.213  1.4747  0.2908  0.6471
 2932SOL    HW226789  10.521   0.175   5.303  0.5448  0.3825  0.3440
 2933SOL     OW26790  10.929   6.391   1.260  0.8623  0.0678  0.4404
 2933SOL    HW126791  10.835   6.369   1.258 -0.0445  3.4784 -0.4794
 2933SOL    HW226792  10.970   6.327   1.203 -0.8682 -1.5090  0.8492
 2934SOL     OW26793  13.486   3.809   0.206 -0.3361  0.6653  0.0133
 2934SOL    HW126794  13.418   3.820   0.141  0.1249 -0.8211 -0.7731
 2934SOL    HW226795  13.484   3.889   0.258 -2.5219  0.7280 -0.1119
 2935SOL     OW26796   0.986   8.373   2.001 -0.0583  0.2135 -0.1255
 2935SOL    HW126797   1.007   8.355   1.909  1.3149 -1.3905  0.4295
 2935SOL    HW226798   0.929   8.300   2.027  0.2060  0.2157  0.4830
 2936SOL     OW26799   8.952   3.210   0.092  0.0658 -0.9632 -0.7253
 2936SOL    HW126800   9.013   3.274   0.055  2.5843 -1.8097  1.6278
 2936SOL    HW226801   8.933   3.151   0.019 -0.0573  0.7819 -2.1960
 2937SOL     OW26802   3.289   5.731   7.667  0.1558 -0.2682  0.4224
 2937SOL    HW126803   3.207   5.698   7.705  1.2508 -2.8583  0.7835
 2937SOL    HW226804   3.351   5.728   7.740  1.1396 -0.7066 -0.4074
 2938SOL     OW26805  13.856   8.837   1.153 -0.2092 -0.0526 -0.0585
 2938SOL    HW126806  13.769   8.805   1.176 -0.6862  1.6349  0.6969
 2938SOL    HW226807  13.839   8.924   1.114  1.1751  0.7316  1.0075
 2939SOL     OW26808  10.409   6.598   5.927  0.0029  0.2127 -0.6125
 2939SOL    HW126809  10.357   6.525   5.961  0.4123  1.0428  1.9894
 2939SOL    HW226810  10.487   6.600   5.983  0.9364  1.4504 -1.8866
 2940SOL     OW26811   8.032   1.477   0.554  0.1442 -0.5360 -0.5626
 2940SOL    HW126812   7.943   1.499   0.527  0.0697 -0.0500  0.0426
 2940SOL    HW226813   8.083   1.556   0.535 -0.2178  0.4169  2.0846
 2941SOL     OW26814  11.262   0.369  13.467 -0.7542  0.0280  0.5282
 2941SOL    HW126815  11.287   0.433  13.400  0.3092 -0.1599  0.7229
 2941SOL    HW226816  11.187   0.408  13.511  0.7759  1.9006  1.6545
 2942SOL     OW26817   0.770   3.535  11.413  0.2330 -0.0863 -0.7485
 2942SOL    HW126818   0.796   3.589  11.487  0.2773 -1.0717 -0.0202
 2942SOL    HW226819   0.835   3.553  11.345  0.6451  0.2361 -0.2670
 2943SOL     OW26820   6.207   8.528   2.783 -0.3425 -0.1398 -0.6874
 2943SOL    HW126821   6.232   8.603   2.837  1.2934 -0.1742 -1.3369
 2943SOL    HW226822   6.152   8.475   2.840  2.2815 -0.7833  1.4809
 2944SOL     OW26823  11.523   0.125   4.140  0.2223  0.3079  0.0880
 2944SOL    HW126824  11.492   0.214   4.125  0.8920  0.4382 -0.5362
 2944SOL    HW226825  11.617   0.129   4.126  0.3024 -0.4406  0.3524
 2945SOL     OW26826   9.819  12.515   7.954  0.6612 -0.1169 -0.1500
 2945SOL    HW126827   9.765  12.471   7.888  1.0445  2.7874 -2.6308
 2945SOL    HW226828   9.909  12.500   7.925  0.8661  0.7333  0.0111
 2946SOL     OW26829   4.671   9.367  13.838 -0.0304  0.3402  0.2902
 2946SOL    HW126830   4.738   9.315  13.794 -0.7297  0.0037 -0.3906
 2946SOL    HW226831   4.639   9.311  13.909  0.7138  0.6773  0.9139
 2947SOL     OW26832  11.197  10.713   4.138  0.0495 -0.0918 -0.3203
 2947SOL    HW126833  11.226  10.743   4.052 -0.3180 -0.7432 -0.6815
 2947SOL    HW226834  11.105  10.741   4.142  0.5357  1.5138  0.6042
 2948SOL     OW26835  13.783  10.604  13.117 -0.0500  0.2323 -0.5437
 2948SOL    HW126836  13.761  10.555  13.197  0.0968  0.1089 -0.5771
 2948SOL    HW226837  13.871  10.638  13.134 -0.5872  1.4598 -0.0532
 2949SOL     OW26838   2.133  10.598   2.865  0.2186 -0.0839 -0.4538
 2949SOL    HW126839   2.146  10.676   2.811  1.8340  1.7538  2.3200
 2949SOL    HW226840   2.040  10.580   2.858 -0.3828  2.6178 -0.6032
 2950SOL     OW26841   0.872   9.089   7.634 -0.0926  0.6639 -0.1879
 2950SOL    HW126842   0.897   9.005   7.596 -0.8943  0.2051  0.2817
 2950SOL    HW226843   0.819   9.131   7.566 -1.3394 -0.0624  0.2947
 2951SOL     OW26844   6.481   5.847   6.983 -0.3788 -0.3031  0.3333
 2951SOL    HW126845   6.434   5.824   6.903 -1.3136 -1.4021  1.1736
 2951SOL    HW226846   6.572   5.826   6.964 -0.4305  0.4223 -0.7910
 2952SOL     OW26847  12.581  10.555   5.966  0.1146  0.4492  0.0429
 2952SOL    HW126848  12.589  10.588   6.055 -0.5139 -0.6233  0.5232
 2952SOL    HW226849  12.508  10.605   5.929  0.3403  0.8574  0.1459
 2953SOL     OW26850   9.860   9.997   1.517  0.4703  0.1533  0.0554
 2953SOL    HW126851   9.829  10.014   1.429 -0.1797  1.0761  0.4543
 2953SOL    HW226852   9.950  10.029   1.518  0.4522  0.2113 -0.2491
 2954SOL     OW26853   8.222  11.825   6.771  0.0708  0.4732 -0.0548
 2954SOL    HW126854   8.223  11.886   6.697 -0.2850  1.2528  0.5577
 2954SOL    HW226855   8.241  11.881   6.847 -1.3264  0.0251  0.6555
 2955SOL     OW26856   0.825   8.314  12.039  0.3206 -0.1946  0.1762
 2955SOL    HW126857   0.777   8.330  11.957  0.7020  0.8146  0.1375
 2955SOL    HW226858   0.843   8.220  12.038 -0.0808 -0.2726 -0.6816
 2956SOL     OW26859   9.030   8.730   1.604  0.3545 -0.9699 -0.1094
 2956SOL    HW126860   8.947   8.775   1.587  1.4035  1.2556  0.3476
 2956SOL    HW226861   9.006   8.658   1.662 -1.7348 -2.5451 -2.6582
 2957SOL     OW26862   7.067   9.726  12.361  0.6654 -0.4736 -0.0967
 2957SOL    HW126863   7.101   9.761  12.443  0.3231  0.4696 -0.3481
 2957SOL    HW226864   7.049   9.633  12.381  2.2136 -0.6952  0.3704
 2958SOL     OW26865   0.777  10.818   9.545  0.0700  0.3535  0.4082
 2958SOL    HW126866   0.753  10.783   9.459 -0.1833  1.7773 -0.1290
 2958SOL    HW226867   0.824  10.899   9.526 -0.9194  1.2586  1.6061
 2959SOL     OW26868  10.050  13.803  10.396 -0.0901 -0.7729 -0.3717
 2959SOL    HW126869   9.975  13.849  10.360  0.3802 -0.4819 -0.9911
 2959SOL    HW226870  10.102  13.778  10.320  1.1532  0.2414  0.1068
 2960SOL     OW26871  13.399  10.704   6.717  0.0385 -0.3882  0.3795
 2960SOL    HW126872  13.330  10.709   6.783 -0.4694  1.3411 -0.2208
 2960SOL    HW226873  13.369  10.637   6.656 -1.5658  0.8706 -0.3068
 2961SOL     OW26874   2.136   0.007   3.712  0.4793 -0.3115 -0.3785
 2961SOL    HW126875   2.180  -0.007   3.796 -1.0723 -2.6732  0.1133
 2961SOL    HW226876   2.045   0.024   3.735  0.4647  1.4380 -1.5351
 2962SOL     OW26877   8.932  11.990  12.730 -1.0290  0.0326 -0.6127
 2962SOL    HW126878   8.969  12.076  12.749 -1.5100  0.1850 -0.3144
 2962SOL    HW226879   8.846  12.009  12.692 -1.5060 -0.3100  0.2508
 2963SOL     OW26880   0.973   0.150   6.527 -0.2429 -0.1334 -0.9178
 2963SOL    HW126881   0.974   0.055   6.540 -0.5090  0.0101  0.2986
 2963SOL    HW226882   1.045   0.167   6.466  1.3903 -0.8889  0.7077
 2964SOL     OW26883  11.255   6.479   7.600  0.0185 -0.0055 -0.1221
 2964SOL    HW126884  11.196   6.405   7.585 -0.1129  0.1784 -0.5427
 2964SOL    HW226885  11.243   6.535   7.523 -0.0136  0.5431  0.2766
 2965SOL     OW26886   5.711   2.310   3.780  0.0409 -0.4482  0.3856
 2965SOL    HW126887   5.787   2.256   3.801  0.6112 -0.1100 -0.7377
 2965SOL    HW226888   5.697   2.296   3.687  1.7446  3.1644 -0.6090
 2966SOL     OW26889  10.610   5.506   3.454 -0.1167  0.2024 -0.0691
 2966SOL    HW126890  10.669   5.507   3.529  0.9397  0.8207 -0.8713
 2966SOL    HW226891  10.523   5.523   3.491  0.3509  0.3142  1.0195
 2967SOL     OW26892   1.066   1.948   7.376  0.0329 -0.1436 -0.2026
 2967SOL    HW126893   0.973   1.960   7.396  0.6636  0.3761  3.1606
 2967SOL    HW226894   1.074   1.855   7.354 -1.3331 -0.0730 -1.1400
 2968SOL     OW26895   7.642  13.938  13.418 -0.6302 -0.2110  0.2494
 2968SOL    HW126896   7.566  13.880  13.408 -1.9053  1.2171  1.1141
 2968SOL    HW226897   7.711  13.898  13.365 -2.0609 -1.4400 -0.7618
 2969SOL     OW26898   7.123   0.434  13.863 -0.1071  0.0795 -0.2663
 2969SOL    HW126899   7.155   0.525  13.860  1.0733 -0.3118 -0.2701
 2969SOL    HW226900   7.111   0.416  13.956 -1.2138  0.5179 -0.3155
 2970SOL     OW26901  14.130   7.459   0.885 -0.0261 -0.6357  0.5667
 2970SOL    HW126902  14.153   7.380   0.837 -0.6866 -1.9396  2.3030
 2970SOL    HW226903  14.035   7.456   0.893 -0.0023  0.0122  1.1876
 2971SOL     OW26904   7.297   1.157   1.102  0.0208 -0.3329 -0.0483
 2971SOL    HW126905   7.213   1.113   1.089 -0.1487  0.1843 -0.7426
 2971SOL    HW226906   7.341   1.152   1.017  0.1241  0.5623 -0.0622
 2972SOL     OW26907   5.129   2.151   4.593 -0.1227  0.3202 -0.1226
 2972SOL    HW126908   5.143   2.167   4.499  1.7368 -1.4325 -0.2109
 2972SOL    HW226909   5.121   2.239   4.631 -1.5665  1.0605 -1.9720
 2973SOL     OW26910   5.885   8.440  10.625  0.2245  0.0837 -0.0831
 2973SOL    HW126911   5.905   8.388  10.702  0.7295 -1.0205 -0.9199
 2973SOL    HW226912   5.797   8.413  10.599  0.2422  0.0991 -0.1610
 2974SOL     OW26913  11.285   1.798  14.013  0.7741  0.3373  0.8240
 2974SOL    HW126914  11.259   1.750  14.093  1.5511  1.0890  1.5489
 2974SOL    HW226915  11.373   1.830  14.032  0.1937  2.2709  0.4677
 2975SOL     OW26916  11.104   7.591   7.265 -0.2099 -0.2367 -0.4148
 2975SOL    HW126917  11.174   7.528   7.252  0.2267 -0.2891  1.7648
 2975SOL    HW226918  11.029   7.553   7.219  0.3068 -1.8760  0.0103
 2976SOL     OW26919   5.978   9.817   9.162 -0.0107  0.2673 -0.6381
 2976SOL    HW126920   5.903   9.833   9.219  0.1493 -2.3134  0.4001
 2976SOL    HW226921   6.013   9.733   9.190  4.1685  1.8927 -0.1269
 2977SOL     OW26922   4.173  10.339   4.384  0.5475 -0.5220  0.1829
 2977SOL    HW126923   4.115  10.289   4.441  2.1591  0.2433  2.6785
 2977SOL    HW226924   4.235  10.275   4.350  0.6308 -0.7294  0.7223
 2978SOL     OW26925   3.555   0.856   2.111 -0.2691  0.1634  0.3663
 2978SOL    HW126926   3.505   0.779   2.138 -1.1444  0.2133 -1.0464
 2978SOL    HW226927   3.587   0.835   2.024 -2.0770  2.0612 -0.8499
 2979SOL     OW26928  14.016   7.627   7.192 -0.4052  0.1190 -0.8622
 2979SOL    HW126929  14.037   7.542   7.153  0.8008  0.0852 -0.2075
 2979SOL    HW226930  14.017   7.610   7.286  1.9448  1.2300 -0.5959
 2980SOL     OW26931  13.035  10.779   4.129 -0.1329  0.3250 -0.0149
 2980SOL    HW126932  13.031  10.845   4.060 -1.0525  1.7295  1.3005
 2980SOL    HW226933  12.960  10.799   4.185  0.4222 -0.9310  1.2365
 2981SOL     OW26934   5.774   1.696  10.676 -0.2959 -0.5135  0.1777
 2981SOL    HW126935   5.821   1.751  10.614  0.2083 -1.5774 -0.3982
 2981SOL    HW226936   5.813   1.609  10.667 -0.3906 -0.7645  1.7834
 2982SOL     OW26937  13.340   4.165  11.768  0.5348 -0.1008 -0.1725
 2982SOL    HW126938  13.320   4.092  11.826  0.2352 -0.0464 -0.2061
 2982SOL    HW226939  13.412   4.133  11.713  0.4180 -0.3626 -0.1751
 2983SOL     OW26940   4.012   8.074   8.720  0.0149 -0.7501 -0.1023
 2983SOL    HW126941   3.986   7.993   8.764 -0.4361 -0.0924  0.8754
 2983SOL    HW226942   4.086   8.106   8.772 -1.9060  1.1984  1.6320
 2984SOL     OW26943  12.333   9.469   4.950 -0.3177  0.1300 -0.3748
 2984SOL    HW126944  12.405   9.511   4.996 -1.6510  1.5280  0.5430
 2984SOL    HW226945  12.340   9.501   4.860  0.6895 -0.4356 -0.5132
 2985SOL     OW26946   5.779  13.942   4.731 -0.2784  0.0183 -0.2651
 2985SOL    HW126947   5.787  13.848   4.750  0.4787  0.5836  2.5863
 2985SOL    HW226948   5.685  13.958   4.728 -0.4318 -0.9628 -1.7555
 2986SOL     OW26949  11.458  10.071  11.381 -0.5104 -0.3741  0.4004
 2986SOL    HW126950  11.492  10.127  11.451 -1.8778  0.5436  0.3653
 2986SOL    HW226951  11.418  10.131  11.319 -1.0893 -1.3246 -0.1758
 2987SOL     OW26952   9.388   2.833   8.125 -0.5335  0.1398  0.1940
 2987SOL    HW126953   9.342   2.773   8.067  1.3222 -0.4262 -0.7714
 2987SOL    HW226954   9.481   2.814   8.111  0.0519  1.8627  1.3644
 2988SOL     OW26955   9.219  13.913   3.214  0.5067  0.0867 -0.4003
 2988SOL    HW126956   9.182  13.944   3.297  1.6329 -0.1428  0.2009
 2988SOL    HW226957   9.200  13.983   3.152 -2.7742 -0.8713 -0.6765
 2989SOL     OW26958   4.440   9.428  10.721  0.6114 -0.0785  0.4317
 2989SOL    HW126959   4.433   9.335  10.739 -0.8566 -0.0789  0.0336
 2989SOL    HW226960   4.354   9.452  10.686  0.2627  1.8264  2.3761
 2990SOL     OW26961  10.239   0.234   1.639 -0.2295  0.5132  0.0249
 2990SOL    HW126962  10.225   0.140   1.635  1.4071  0.2570 -0.6208
 2990SOL    HW226963  10.306   0.246   1.707 -0.6923  1.2504  0.3660
 2991SOL     OW26964   0.482  10.027   5.741 -0.3598 -0.0821 -0.4796
 2991SOL    HW126965   0.535  10.089   5.692  1.1161  1.1458  2.4048
 2991SOL    HW226966   0.409  10.078   5.775  0.8987  0.2441  1.9674
 2992SOL     OW26967   7.427  13.757   1.798 -0.4744 -0.6903 -0.0273
 2992SOL    HW126968   7.428  13.847   1.830  1.1375 -0.5442 -0.4349
 2992SOL    HW226969   7.367  13.759   1.723  1.1831  0.5715 -1.3971
 2993SOL     OW26970  13.237  12.764   7.166 -0.2611  0.4879  0.0524
 2993SOL    HW126971  13.304  12.751   7.100 -1.4750 -1.9874 -0.8110
 2993SOL    HW226972  13.285  12.768   7.249  1.0870  1.2801 -0.7218
 2994SOL     OW26973   9.658  11.582   2.515 -0.2883 -0.4325 -0.5987
 2994SOL    HW126974   9.620  11.521   2.578  1.2224 -0.8911 -0.0828
 2994SOL    HW226975   9.660  11.666   2.561 -0.1847 -0.5312 -0.4195
 2995SOL     OW26976   1.452   6.648   3.028 -0.3073  0.5972 -0.1065
 2995SOL    HW126977   1.527   6.594   3.052  0.3344  0.4362 -2.2700
 2995SOL    HW226978   1.377   6.606   3.070  0.5826 -0.2785  0.6339
 2996SOL     OW26979   5.897   4.766  12.072  0.1086  1.0126 -0.3430
 2996SOL    HW126980   5.899   4.852  12.028  1.8271  1.6237  0.8138
 2996SOL    HW226981   5.988   4.735  12.066 -0.5829 -0.9917 -1.1815
 2997SOL     OW26982   8.704   2.851   4.363 -0.4520 -0.3066  0.3558
 2997SOL    HW126983   8.747   2.826   4.445 -0.5287 -1.5088  0.0421
 2997SOL    HW226984   8.772   2.896   4.313  0.0476 -0.9605  0.4343
 2998SOL     OW26985   8.671   1.828   9.764  0.0229 -0.5794  0.9248
 2998SOL    HW126986   8.754   1.876   9.765  0.2536 -0.9044 -0.3273
 2998SOL    HW226987   8.686   1.756   9.702 -1.3997 -0.2632  0.1783
 2999SOL     OW26988   7.120   3.299   0.363 -0.1812 -0.2780  0.5668
 2999SOL    HW126989   7.212   3.303   0.336 -0.6755  0.2065 -1.0960
 2999SOL    HW226990   7.113   3.214   0.407  0.9969 -0.4152  0.5448
 3000SOL     OW26991   0.618  11.472  14.104 -0.3490 -0.1709  0.0625
 3000SOL    HW126992   0.558  11.544  14.122 -0.2794  0.5742 -2.3459
 3000SOL    HW226993   0.563  11.394  14.106 -0.7978  0.1566  0.8153
 3001SOL     OW26994   8.978   4.369   1.553  0.0982  0.3625  0.3514
 3001SOL    HW126995   8.958   4.287   1.597 -0.1069 -0.1688 -0.6945
 3001SOL    HW226996   8.909   4.429   1.582  0.1382  0.1197  0.9730
 3002SOL     OW26997   1.900   5.277   1.625 -0.1102  0.4198  0.5013
 3002SOL    HW126998   1.832   5.311   1.684 -0.8710 -1.8085  1.0130
 3002SOL    HW226999   1.896   5.182   1.637  1.0604  0.0354 -1.7259
 3003SOL     OW27000   1.602   5.266  13.064 -0.1291 -0.0243  0.5685
 3003SOL    HW127001   1.562   5.293  13.147  0.6645  2.5203  0.2167
 3003SOL    HW227002   1.531   5.222  13.016 -1.5119  1.2685  1.3515
 3004SOL     OW27003   5.727   7.048   4.386  0.4002 -0.0678 -0.4578
 3004SOL    HW127004   5.721   6.993   4.308 -1.6440 -1.0473  0.3205
 3004SOL    HW227005   5.735   7.137   4.351  1.5663 -0.6337 -1.7408
 3005SOL     OW27006   7.512   2.956   6.126  0.0454 -0.6130 -0.0257
 3005SOL    HW127007   7.487   2.949   6.218  0.7692 -0.1381  0.2131
 3005SOL    HW227008   7.600   2.918   6.122  0.3376  0.0870 -0.3750
 3006SOL     OW27009   2.279   0.285  10.432  0.1624 -0.0410  0.2388
 3006SOL    HW127010   2.270   0.328  10.347 -2.2472 -1.7744 -0.4802
 3006SOL    HW227011   2.194   0.297  10.474  0.5094 -1.3154  1.3672
 3007SOL     OW27012  10.084  11.803   4.136  0.2487  0.2540 -0.1653
 3007SOL    HW127013  10.082  11.881   4.080  0.2151 -0.1443 -0.7206
 3007SOL    HW227014  10.018  11.745   4.099  0.1532  0.0256  0.3524
 3008SOL     OW27015  13.014   4.061   9.846 -0.4730 -0.2750 -0.3303
 3008SOL    HW127016  12.962   4.090   9.771 -1.3970 -1.0203 -0.0047
 3008SOL    HW227017  13.000   4.129   9.912 -0.2055  0.0422 -0.5993
 3009SOL     OW27018   2.727  12.199  12.552 -0.0694  0.3909  1.1937
 3009SOL    HW127019   2.648  12.209  12.605 -1.7774  0.5613 -1.1939
 3009SOL    HW227020   2.695  12.165  12.468  2.3186  1.0346 -0.0767
 3010SOL     OW27021  13.278   0.172  13.191  0.3559 -0.2981  0.3321
 3010SOL    HW127022  13.346   0.129  13.243  0.6577  0.5374  0.6385
 3010SOL    HW227023  13.320   0.251  13.157  0.2646 -0.9586 -1.4416
 3011SOL     OW27024  10.499   1.754   4.766  0.7874  0.2667  0.5231
 3011SOL    HW127025  10.525   1.693   4.835  1.9714 -0.0066 -0.1360
 3011SOL    HW227026  10.549   1.726   4.689  0.7153  1.5612 -0.0168
 3012SOL     OW27027   0.160   8.917   5.293  0.4249  0.2979 -0.0002
 3012SOL    HW127028   0.173   8.928   5.388  1.6380  0.3882 -0.1570
 3012SOL    HW227029   0.200   8.995   5.254  0.9752 -0.2839 -0.6320
 3013SOL     OW27030   5.109  13.712   4.442  0.0782  0.0515 -0.3183
 3013SOL    HW127031   5.167  13.770   4.492 -0.3736  0.4963 -0.3088
 3013SOL    HW227032   5.138  13.624   4.465 -0.3620  0.2319  1.0199
 3014SOL     OW27033   0.301  10.399   7.535 -0.0400 -0.1307  0.1404
 3014SOL    HW127034   0.292  10.317   7.583  0.5252 -0.1838  0.1543
 3014SOL    HW227035   0.273  10.466   7.598 -0.1330 -0.2767  0.2553
 3015SOL     OW27036   7.187   2.352  12.030 -0.1922 -0.0932  0.0407
 3015SOL    HW127037   7.199   2.260  12.054 -0.1359 -0.3890 -1.0820
 3015SOL    HW227038   7.213   2.401  12.108 -1.8729 -1.0683  1.2945
 3016SOL     OW27039   3.545   1.096   7.932  0.0742  0.4545  0.3524
 3016SOL    HW127040   3.592   1.013   7.923 -1.2923 -0.2987 -0.1037
 3016SOL    HW227041   3.452   1.071   7.935 -0.3025  1.8285  1.8960
 3017SOL     OW27042   2.747  12.309  13.169 -0.2821 -0.3730 -0.3066
 3017SOL    HW127043   2.834  12.299  13.132 -0.2752  0.2594 -0.4834
 3017SOL    HW227044   2.696  12.236  13.133 -0.1262 -0.0914 -1.1178
 3018SOL     OW27045  11.413   2.529  10.802 -0.2344 -0.1948 -0.1959
 3018SOL    HW127046  11.504   2.526  10.773 -0.3614  0.3911 -0.6714
 3018SOL    HW227047  11.396   2.622  10.818 -0.2613 -0.4508  1.4676
 3019SOL     OW27048  10.721   9.636   0.139  0.2020 -0.0236  0.4954
 3019SOL    HW127049  10.685   9.627   0.227 -0.2625 -1.1909  0.2111
 3019SOL    HW227050  10.644   9.628   0.082  0.5898  0.0184 -0.0359
 3020SOL     OW27051   0.159   3.166   5.939  0.2525  0.4533 -0.8440
 3020SOL    HW127052   0.159   3.206   5.852 -0.1175  1.6471 -0.3271
 3020SOL    HW227053   0.160   3.241   5.999 -2.4474 -0.2551  0.2124
 3021SOL     OW27054  10.005   7.337   1.883 -0.2882  0.1236  0.4804
 3021SOL    HW127055  10.062   7.411   1.863 -0.3730  0.1186  0.2192
 3021SOL    HW227056  10.055   7.284   1.945  0.7347 -0.8180 -1.0852
 3022SOL     OW27057  10.661   7.335  11.933  0.8502 -0.1409 -0.2629
 3022SOL    HW127058  10.703   7.287  12.005 -0.4156 -2.8412 -1.1631
 3022SOL    HW227059  10.568   7.312  11.941  0.5949  0.0089 -2.3440
 3023SOL     OW27060   2.075   8.074  13.486 -0.2639 -0.3248 -0.5919
 3023SOL    HW127061   2.076   8.028  13.570 -0.6908 -0.7036 -0.7918
 3023SOL    HW227062   1.996   8.043  13.442 -0.9910  1.1763 -0.4109
 3024SOL     OW27063  13.829   6.341  13.350 -0.5515 -0.0283  0.0636
 3024SOL    HW127064  13.745   6.313  13.387 -0.2705 -2.2101 -0.7808
 3024SOL    HW227065  13.878   6.375  13.425 -1.2231 -1.2003  1.0742
 3025SOL     OW27066   3.777   5.826  11.932  0.1405 -0.0049 -0.0276
 3025SOL    HW127067   3.835   5.756  11.963 -0.8794 -0.0848  1.8277
 3025SOL    HW227068   3.709   5.781  11.882 -0.8199 -0.4710  1.6179
 3026SOL     OW27069   6.544   5.675   0.397  0.5625 -0.1814  0.3447
 3026SOL    HW127070   6.487   5.668   0.321  0.7921  2.0804 -0.1142
 3026SOL    HW227071   6.490   5.718   0.463  0.8013 -0.8643  0.9993
 3027SOL     OW27072   8.941  10.088   5.898 -0.1581 -0.3112  0.3077
 3027SOL    HW127073   8.906  10.012   5.852  2.3756 -0.7125 -1.1638
 3027SOL    HW227074   8.938  10.159   5.834 -0.6854  0.3251  1.0233
 3028SOL     OW27075   9.235   8.205   6.566  0.0160 -0.3661 -0.0064
 3028SOL    HW127076   9.312   8.242   6.523  0.5340 -0.6156  0.6740
 3028SOL    HW227077   9.163   8.218   6.504  0.7553 -0.8240 -0.9856
 3029SOL     OW27078   3.068  12.296   2.770  0.3301 -0.2712  0.1367
 3029SOL    HW127079   2.996  12.263   2.717  0.0437  2.1926 -1.1092
 3029SOL    HW227080   3.028  12.314   2.855 -0.1475 -0.3862 -0.0573
 3030SOL     OW27081  10.713   8.388  11.947 -0.0390 -0.1352 -0.2559
 3030SOL    HW127082  10.788   8.437  11.913 -0.3159  0.7545  0.3836
 3030SOL    HW227083  10.751   8.309  11.984  0.9747  1.5389  2.5657
 3031SOL     OW27084   9.625   2.623  11.776 -0.0936  0.0121  0.3656
 3031SOL    HW127085   9.598   2.562  11.845 -1.7401 -0.4942 -0.6730
 3031SOL    HW227086   9.567   2.604  11.703  0.0072  2.1566 -0.3517
 3032SOL     OW27087   6.263  13.476   5.148  0.9136  0.5380 -0.0637
 3032SOL    HW127088   6.329  13.507   5.087  1.2361  0.9408  0.4887
 3032SOL    HW227089   6.302  13.488   5.235  1.7696 -2.9083  0.1907
 3033SOL     OW27090   6.885   7.162   1.877  0.0486 -0.4422  0.0897
 3033SOL    HW127091   6.923   7.236   1.924  1.8074 -0.5853 -0.9968
 3033SOL    HW227092   6.849   7.201   1.797  0.5934 -0.6719 -0.2789
 3034SOL     OW27093   1.860  10.891   7.095 -0.5029  0.0823  0.1706
 3034SOL    HW127094   1.828  10.805   7.067  0.3896 -0.8801  1.9247
 3034SOL    HW227095   1.952  10.892   7.068 -0.3612  0.2431  0.6536
 3035SOL     OW27096   5.713  11.016   9.375 -0.1851 -0.0243 -0.0910
 3035SOL    HW127097   5.779  11.068   9.330 -2.7387  2.0335 -1.8114
 3035SOL    HW227098   5.693  11.064   9.455  0.2992 -0.5725  0.3640
 3036SOL     OW27099  11.230   3.551   6.986 -0.0230  0.1998 -0.3602
 3036SOL    HW127100  11.293   3.603   7.035  0.0829  0.7563 -1.0757
 3036SOL    HW227101  11.186   3.498   7.053  0.8837  0.1238  0.2021
 3037SOL     OW27102   2.877   8.213   8.938  0.5059  0.2413  0.9365
 3037SOL    HW127103   2.823   8.253   8.870  0.2137 -0.7033  0.5890
 3037SOL    HW227104   2.891   8.123   8.907 -0.7103 -0.6346  2.7367
 3038SOL     OW27105   3.551   6.084  14.107  0.6704 -0.2036 -0.3980
 3038SOL    HW127106   3.604   6.119  14.179  0.2137 -1.5451  0.6235
 3038SOL    HW227107   3.493   6.019  14.148 -0.5897 -0.0038 -1.7515
 3039SOL     OW27108   2.313   0.443   2.555  0.0651 -0.0812 -0.1373
 3039SOL    HW127109   2.332   0.359   2.514  1.1019 -0.1250  0.4090
 3039SOL    HW227110   2.217   0.447   2.560  0.0187 -1.9959  1.4134
 3040SOL     OW27111   3.506  10.811   9.343  0.3801 -0.9917 -0.1809
 3040SOL    HW127112   3.568  10.765   9.399  2.2421 -1.7474 -2.6907
 3040SOL    HW227113   3.428  10.755   9.342 -1.5662  1.0412  4.8172
 3041SOL     OW27114  13.869   5.720  14.131  0.5073  0.3227 -0.0952
 3041SOL    HW127115  13.809   5.647  14.148  2.0782 -0.5520  2.1367
 3041SOL    HW227116  13.952   5.677  14.109  0.7819  1.5052 -1.5158
 3042SOL     OW27117   7.476  10.291   9.018  0.0735 -0.3464  0.1326
 3042SOL    HW127118   7.425  10.334   8.949  1.6450  0.0111 -0.8502
 3042SOL    HW227119   7.532  10.361   9.053  0.8724 -1.0340  0.2398
 3043SOL     OW27120   1.092   0.258   3.305 -0.5844  0.7678  0.0752
 3043SOL    HW127121   1.164   0.317   3.281 -0.4510  0.1521 -1.1027
 3043SOL    HW227122   1.014   0.312   3.299 -0.3317  1.1827  0.3919
 3044SOL     OW27123   9.980   7.311   8.442 -0.0882 -0.0234  0.1143
 3044SOL    HW127124   9.949   7.401   8.450 -0.9196 -0.2357 -0.5711
 3044SOL    HW227125   9.934   7.277   8.365 -0.2696 -1.2392  0.7436
 3045SOL     OW27126  12.425   2.287   0.416 -0.3109  0.3531  0.0991
 3045SOL    HW127127  12.429   2.235   0.335 -0.6268  2.0101 -1.0296
 3045SOL    HW227128  12.513   2.323   0.425 -0.1531 -0.1698  0.7685
 3046SOL     OW27129   5.942   8.566  12.396  0.2550 -0.2807 -0.4434
 3046SOL    HW127130   5.923   8.561  12.490  1.9032 -0.7347 -0.1131
 3046SOL    HW227131   5.925   8.657  12.373 -0.0034 -0.1276  0.3163
 3047SOL     OW27132   8.772   0.187  13.750  0.4103 -0.0605  0.0869
 3047SOL    HW127133   8.727   0.195  13.666  1.9497 -0.7418 -0.8454
 3047SOL    HW227134   8.815   0.272  13.762  3.4234 -1.1278 -1.8433
 3048SOL     OW27135  11.828   9.323   9.792  0.4004 -0.4670 -0.1529
 3048SOL    HW127136  11.868   9.292   9.710  0.9750 -4.0976  1.3050
 3048SOL    HW227137  11.739   9.290   9.789  0.4636 -0.7399  0.7197
 3049SOL     OW27138  11.997   7.677   8.624  0.4013 -0.3267 -0.3839
 3049SOL    HW127139  12.025   7.739   8.557  1.0378 -1.9730 -1.7192
 3049SOL    HW227140  12.047   7.700   8.702  0.6496  0.7802 -0.8552
 3050SOL     OW27141   8.058  11.584   5.291 -0.1436  0.0592 -0.5965
 3050SOL    HW127142   8.008  11.554   5.216  0.2187 -0.0552 -0.7961
 3050SOL    HW227143   8.027  11.673   5.307 -2.4880 -0.9728  1.0837
 3051SOL     OW27144   5.990  10.809   6.237 -0.2582  0.2790  0.7136
 3051SOL    HW127145   5.981  10.841   6.327 -2.8015  0.0146  0.6363
 3051SOL    HW227146   6.036  10.726   6.246  0.8887  0.9795  1.5813
 3052SOL     OW27147   9.234   6.967  14.064 -0.1441 -0.1304 -0.2650
 3052SOL    HW127148   9.185   6.925  13.993 -2.4937  0.1425  1.0953
 3052SOL    HW227149   9.245   7.058  14.035 -1.4820  0.0916 -0.1430
 3053SOL     OW27150  14.130   5.843   8.226  0.0627  0.2965  0.5441
 3053SOL    HW127151  14.086   5.928   8.218  0.9733  0.6755 -0.8210
 3053SOL    HW227152  14.105   5.796   8.146 -0.0653 -0.5616  1.0740
 3054SOL     OW27153  12.840  13.538   3.727  0.1525  0.6069  0.5356
 3054SOL    HW127154  12.827  13.459   3.778  0.8152 -0.5142 -0.9717
 3054SOL    HW227155  12.752  13.565   3.702 -0.0228 -0.2397  0.2099
 3055SOL     OW27156   2.545   4.048  11.886  0.1156  0.3392  0.3047
 3055SOL    HW127157   2.481   4.105  11.843  0.2199  0.2986  0.0964
 3055SOL    HW227158   2.491   3.987  11.937 -0.0004  0.5286  0.4081
 3056SOL     OW27159  13.701   8.570   9.707 -0.0600 -0.0987  0.2408
 3056SOL    HW127160  13.714   8.488   9.659  0.6750  0.3204 -0.3169
 3056SOL    HW227161  13.775   8.625   9.679  0.0346  0.3821  1.3983
 3057SOL     OW27162   9.195  12.104  12.854  0.2095  0.6068  0.0845
 3057SOL    HW127163   9.187  12.030  12.915  2.1776  1.3305  1.3088
 3057SOL    HW227164   9.227  12.065  12.773  1.6345  0.1353  0.8456
 3058SOL     OW27165   0.387  13.169   5.717  0.2123  0.0148 -0.2824
 3058SOL    HW127166   0.424  13.133   5.797 -1.1637 -0.3605  0.2151
 3058SOL    HW227167   0.422  13.257   5.711  0.5440 -0.0529  0.5894
 3059SOL     OW27168  13.568   2.815   2.662 -0.0642 -0.3176  0.3698
 3059SOL    HW127169  13.662   2.828   2.648  0.5560 -0.4418  3.6493
 3059SOL    HW227170  13.548   2.735   2.615  1.4282 -0.1967 -0.5553
 3060SOL     OW27171   3.198   8.780   7.252 -0.2695 -0.0438 -0.1618
 3060SOL    HW127172   3.232   8.713   7.192  2.3496 -0.1714  1.3394
 3060SOL    HW227173   3.274   8.834   7.274 -0.8840 -0.4209  3.5583
 3061SOL     OW27174   5.748   9.073   1.880  0.2766 -0.2797  0.9704
 3061SOL    HW127175   5.777   9.011   1.946 -1.8624 -0.8303  1.4548
 3061SOL    HW227176   5.652   9.076   1.888  0.2161  2.6734  0.6019
 3062SOL     OW27177  13.916  13.753  12.528  0.1264 -0.2516  0.6337
 3062SOL    HW127178  13.999  13.781  12.489 -0.6506  0.5278 -0.5389
 3062SOL    HW227179  13.872  13.835  12.551 -1.5129 -0.4827 -1.3924
 3063SOL     OW27180   0.889   5.088  12.247 -0.3214  0.3931  0.0369
 3063SOL    HW127181   0.826   5.076  12.175 -1.9770 -0.3954  1.5333
 3063SOL    HW227182   0.966   5.039  12.219 -0.9764 -0.0103 -1.1484
 3064SOL     OW27183   6.146   1.499   1.722 -0.0345 -0.0888  0.6018
 3064SOL    HW127184   6.079   1.536   1.664  0.4161 -0.0387  0.0937
 3064SOL    HW227185   6.102   1.486   1.806 -0.7136 -0.1918  0.2365
 3065SOL     OW27186  11.321  13.960   8.344 -0.0503  0.5759 -0.0857
 3065SOL    HW127187  11.399  13.916   8.309  0.2053  1.2075 -0.3062
 3065SOL    HW227188  11.293  14.019   8.275 -0.8795  0.1724 -0.1051
 3066SOL     OW27189  11.202  10.819   6.476  0.8578  0.3767  0.2272
 3066SOL    HW127190  11.217  10.865   6.394 -1.3444  0.3915 -0.2518
 3066SOL    HW227191  11.268  10.853   6.536  2.2601  0.6526 -1.4063
 3067SOL     OW27192  10.582  12.500   1.994  0.0068  0.1671  0.1426
 3067SOL    HW127193  10.641  12.486   1.919 -1.4053 -1.0409 -0.8101
 3067SOL    HW227194  10.632  12.555   2.054  2.0262 -0.6510 -0.6988
 3068SOL     OW27195  11.499   1.794   4.524 -0.9527 -0.5072 -0.2640
 3068SOL    HW127196  11.476   1.858   4.592 -0.5452 -2.4419  1.8267
 3068SOL    HW227197  11.480   1.709   4.564  2.7298 -1.9401 -1.1214
 3069SOL     OW27198  10.867   2.325   4.394 -0.3392 -0.9202  0.4947
 3069SOL    HW127199  10.921   2.362   4.464 -0.5652  0.8978 -0.2415
 3069SOL    HW227200  10.926   2.322   4.318 -1.2265  1.1434 -0.3354
 3070SOL     OW27201   5.074   5.704  11.652  0.2091  0.3927  0.1565
 3070SOL    HW127202   5.135   5.654  11.597  0.2161 -0.0352  0.5488
 3070SOL    HW227203   5.064   5.651  11.731 -1.4029 -0.0154 -0.2867
 3071SOL     OW27204  13.405  10.375   0.750 -0.6227  0.0487 -0.3694
 3071SOL    HW127205  13.402  10.417   0.664 -0.0386 -0.8842 -0.8701
 3071SOL    HW227206  13.491  10.332   0.751  0.1550  1.5011  1.3939
 3072SOL     OW27207   0.400   9.876   1.547  0.5442  0.6802  1.0133
 3072SOL    HW127208   0.419   9.787   1.579 -0.6639 -0.4690 -1.2025
 3072SOL    HW227209   0.485   9.912   1.523  0.8867 -0.7267 -0.0142
 3073SOL     OW27210  12.855   5.529   1.728  0.4881  0.2136 -0.1938
 3073SOL    HW127211  12.763   5.516   1.754  0.8452  0.9238  1.5735
 3073SOL    HW227212  12.893   5.581   1.799  2.0562  0.6794 -1.3155
 3074SOL     OW27213   6.800   5.422   9.528  0.3528  0.2895 -0.1295
 3074SOL    HW127214   6.862   5.425   9.601 -1.2449 -1.0255  1.3763
 3074SOL    HW227215   6.824   5.343   9.479 -0.4367 -0.5608  0.8050
 3075SOL     OW27216   9.686   6.551   7.035  0.1526 -0.0220 -0.0671
 3075SOL    HW127217   9.668   6.533   7.127  2.1924 -1.2544  0.1453
 3075SOL    HW227218   9.635   6.485   6.988 -0.8056  0.5382  0.1548
 3076SOL     OW27219  12.369   5.796   3.040  0.2942  0.1469  0.2173
 3076SOL    HW127220  12.288   5.846   3.047 -1.8262 -3.1166  1.4038
 3076SOL    HW227221  12.368   5.761   2.951 -0.4920 -1.1549  0.7107
 3077SOL     OW27222   4.626   6.240   1.797  0.2097 -0.4259  0.4482
 3077SOL    HW127223   4.631   6.243   1.702  3.0179  1.4737  0.5458
 3077SOL    HW227224   4.698   6.182   1.823 -0.2718 -0.6021  1.4563
 3078SOL     OW27225  12.054   9.874  10.306 -0.4794 -0.5865 -0.6371
 3078SOL    HW127226  12.135   9.914  10.275 -0.2955 -0.5029 -0.0754
 3078SOL    HW227227  12.069   9.861  10.400 -1.3986  0.1357 -0.3773
 3079SOL     OW27228   0.915  10.501   8.816  0.2307  0.3084 -0.2277
 3079SOL    HW127229   0.843  10.546   8.771  0.4089 -0.5317 -1.3981
 3079SOL    HW227230   0.913  10.412   8.780  0.0881 -0.5525  1.7872
 3080SOL     OW27231   2.207  13.863  11.475  0.0854 -0.1822  0.1390
 3080SOL    HW127232   2.264  13.786  11.475  0.2800 -0.0385  0.1437
 3080SOL    HW227233   2.119  13.828  11.471  0.2074 -0.3821 -1.0207
 3081SOL     OW27234   2.019  12.927   4.920 -0.1414  0.0985 -0.6046
 3081SOL    HW127235   2.101  12.961   4.883  1.1064 -0.2281  1.6389
 3081SOL    HW227236   1.992  12.994   4.982 -2.2039  0.6753 -2.0356
 3082SOL     OW27237   7.376  11.368   4.798  0.9355 -0.1642  0.0117
 3082SOL    HW127238   7.297  11.391   4.847  1.2197 -0.2906  0.5333
 3082SOL    HW227239   7.377  11.429   4.724 -0.9405 -1.7074 -1.3817
 3083SOL     OW27240  11.299   8.764  11.556 -0.4545  0.3639 -0.6126
 3083SOL    HW127241  11.365   8.701  11.529 -0.3463 -0.3317  1.1442
 3083SOL    HW227242  11.344   8.821  11.619 -1.4387  0.0155  0.4381
 3084SOL     OW27243   8.359   4.297   0.450 -0.3427 -0.2658  0.2860
 3084SOL    HW127244   8.378   4.208   0.479 -0.4056  0.2811  2.1367
 3084SOL    HW227245   8.317   4.286   0.364  0.5170 -1.9358  0.0436
 3085SOL     OW27246  12.592   8.316  11.051  0.6895 -0.1490  0.2493
 3085SOL    HW127247  12.563   8.404  11.027 -0.4788  0.1587  2.5124
 3085SOL    HW227248  12.662   8.331  11.115  0.4732 -0.8825  0.6610
 3086SOL     OW27249  11.557   8.642  13.201 -0.3930  0.4839 -0.4624
 3086SOL    HW127250  11.626   8.597  13.152 -0.3098  1.2105 -1.0252
 3086SOL    HW227251  11.477   8.596  13.176  0.0626 -1.8072  1.8604
 3087SOL     OW27252   5.756   0.399  12.584 -0.2426 -0.1900  0.3026
 3087SOL    HW127253   5.669   0.361  12.597 -0.0593  0.0049  2.4807
 3087SOL    HW227254   5.748   0.488  12.620  0.8472 -0.1806  0.5489
 3088SOL     OW27255   6.579   0.152   9.064  0.0413 -0.0686 -0.0772
 3088SOL    HW127256   6.491   0.185   9.045  0.8454  0.4693 -3.5195
 3088SOL    HW227257   6.621   0.224   9.112 -0.5597  0.8667 -0.9039
 3089SOL     OW27258   1.681  11.465   4.324  0.3146  0.2561  0.0294
 3089SOL    HW127259   1.598  11.428   4.294  0.7684 -1.6242  0.8835
 3089SOL    HW227260   1.711  11.403   4.391  2.7862  0.4506 -0.8120
 3090SOL     OW27261  13.002   7.447  12.132  0.2827 -0.0153  0.2739
 3090SOL    HW127262  12.936   7.495  12.183 -0.8193 -0.2330 -0.8920
 3090SOL    HW227263  13.007   7.361  12.173  0.1166  0.1325  0.6056
 3091SOL     OW27264  13.662   6.760  14.155  0.2843  0.1689 -0.3813
 3091SOL    HW127265  13.570   6.762  14.181  0.7704 -0.3181  1.5666
 3091SOL    HW227266  13.693   6.673  14.184  1.9076  1.2016  1.2313
 3092SOL     OW27267   9.935  12.417   1.176 -0.6199  0.7239 -0.1677
 3092SOL    HW127268   9.954  12.393   1.267  0.9682 -0.8450 -0.8340
 3092SOL    HW227269   9.905  12.507   1.180 -2.2574  0.1635  2.0740
 3093SOL     OW27270   2.999   4.842  11.487  0.8449 -0.7993  0.7646
 3093SOL    HW127271   2.952   4.837  11.570  0.1362  0.7080  0.4934
 3093SOL    HW227272   2.944   4.795  11.425 -0.7755  1.5217  0.2974
 3094SOL     OW27273   8.097   5.902   5.537  0.0499  0.1895  0.0408
 3094SOL    HW127274   8.192   5.906   5.524  0.2441  2.0745  1.6606
 3094SOL    HW227275   8.069   5.993   5.536 -1.4843 -0.2366  1.2726
 3095SOL     OW27276  12.311   2.739   5.591 -0.1037  0.2926 -0.3002
 3095SOL    HW127277  12.255   2.749   5.668  0.3675  1.5424 -0.1075
 3095SOL    HW227278  12.389   2.791   5.610  0.6152 -0.4584 -1.0723
 3096SOL     OW27279   3.386   7.844   7.199  0.2062  0.8661  0.2362
 3096SOL    HW127280   3.391   7.912   7.132  2.0031 -0.6768 -1.2913
 3096SOL    HW227281   3.407   7.763   7.153  0.9651 -0.3433  2.5614
 3097SOL     OW27282   6.691   2.375   0.873 -0.9424  0.2563  0.1381
 3097SOL    HW127283   6.747   2.435   0.825 -0.4502  0.6921  1.2376
 3097SOL    HW227284   6.709   2.289   0.835 -2.0553  0.8400 -1.8260
 3098SOL     OW27285   6.313   6.517  10.579  0.3439 -0.1517 -0.2472
 3098SOL    HW127286   6.357   6.584  10.632 -1.6448 -0.3902  1.8410
 3098SOL    HW227287   6.374   6.442  10.580  2.6970  1.5209 -2.7886
 3099SOL     OW27288   8.445   1.328  10.245  0.0828  0.3476 -1.1292
 3099SOL    HW127289   8.529   1.304  10.283  0.1757  0.3340 -1.3391
 3099SOL    HW227290   8.466   1.397  10.181 -0.0490  0.2678 -1.2614
 3100SOL     OW27291   5.358   3.558   8.780  0.2576 -0.6909 -0.2778
 3100SOL    HW127292   5.439   3.597   8.747  1.3932 -0.9115  2.0848
 3100SOL    HW227293   5.289   3.608   8.737  1.6426  0.8634 -0.8120
 3101SOL     OW27294   8.682  13.297   2.652 -0.3256 -0.1959 -0.3604
 3101SOL    HW127295   8.679  13.392   2.649  0.4324  0.0336  2.9533
 3101SOL    HW227296   8.595  13.271   2.682 -0.4372 -0.5350 -0.9673
 3102SOL     OW27297   3.973   6.762  10.442  0.2710  0.1527  0.0088
 3102SOL    HW127298   3.950   6.838  10.388 -0.2357 -0.2194 -0.3110
 3102SOL    HW227299   4.061   6.781  10.474  1.0050 -0.0906 -1.7811
 3103SOL     OW27300   9.058   9.469   4.815 -0.1464  0.3663 -0.1812
 3103SOL    HW127301   9.120   9.400   4.791  0.4221  0.1761  1.7487
 3103SOL    HW227302   9.012   9.435   4.892 -0.3034  1.8918  0.4291
 3104SOL     OW27303   8.001   2.356   1.195 -0.0701  0.0360  0.1049
 3104SOL    HW127304   7.966   2.424   1.137  0.0674  0.2889  0.3140
 3104SOL    HW227305   8.081   2.327   1.152 -0.5183 -0.5270 -0.3621
 3105SOL     OW27306  11.732   8.633  12.978  0.2381  0.0644 -0.2211
 3105SOL    HW127307  11.668   8.696  12.945 -1.6017 -1.4663  0.1793
 3105SOL    HW227308  11.753   8.578  12.902  1.5484  0.8854 -0.4815
 3106SOL     OW27309   8.347  11.257  12.341 -0.3656 -0.4689  0.2850
 3106SOL    HW127310   8.303  11.189  12.392 -1.2433  0.2482  0.4997
 3106SOL    HW227311   8.419  11.286  12.397 -1.1685  0.1320  1.0200
 3107SOL     OW27312   3.489   5.429   8.938 -0.0412 -0.3435  0.4161
 3107SOL    HW127313   3.412   5.373   8.933 -0.9219  0.8937 -0.6042
 3107SOL    HW227314   3.498   5.466   8.849  3.2002 -2.3111 -0.2292
 3108SOL     OW27315   1.928   4.060   4.477  0.0843 -0.1082 -0.0785
 3108SOL    HW127316   1.870   4.030   4.547  1.5419 -2.2163  0.3243
 3108SOL    HW227317   1.868   4.084   4.406 -1.3698  0.7534  1.3466
 3109SOL     OW27318   6.654   8.392  12.862  0.0225 -0.5070  0.1028
 3109SOL    HW127319   6.574   8.372  12.911 -0.3297 -1.6487 -0.9237
 3109SOL    HW227320   6.669   8.316  12.807  0.6388  0.5860 -1.2905
 3110SOL     OW27321   1.140   2.036   0.353  0.4056 -0.4057  0.4022
 3110SOL    HW127322   1.124   1.959   0.299  1.3476 -1.4966  1.6007
 3110SOL    HW227323   1.147   2.108   0.291 -0.3245 -1.3047 -0.7731
 3111SOL     OW27324   4.655  10.265  13.062  0.2849  0.3405  0.6136
 3111SOL    HW127325   4.602  10.333  13.020  1.8549  0.6271 -1.0501
 3111SOL    HW227326   4.594  10.194  13.080 -0.6750  0.5787 -1.4299
 3112SOL     OW27327  12.486  11.288   5.146 -0.0640 -0.2034 -0.5559
 3112SOL    HW127328  12.471  11.289   5.241 -0.5400 -0.7983 -0.6266
 3112SOL    HW227329  12.545  11.214   5.132  2.4384  1.6033 -0.3808
 3113SOL     OW27330  11.121   4.105   4.970 -0.0224 -0.7066  0.2484
 3113SOL    HW127331  11.032   4.076   4.950 -0.9184  1.3190  1.0019
 3113SOL    HW227332  11.173   4.025   4.970 -1.6080 -1.8125 -1.3434
 3114SOL     OW27333  10.174   7.061   8.965 -0.4200  0.2453  0.3833
 3114SOL    HW127334  10.098   7.083   8.912 -0.4192  1.0413  0.6877
 3114SOL    HW227335  10.247   7.106   8.922 -0.2608  0.1313  0.5325
 3115SOL     OW27336  11.295  11.255  11.880  0.1964  0.2415  0.0250
 3115SOL    HW127337  11.325  11.198  11.810 -0.9078 -0.0986 -0.1947
 3115SOL    HW227338  11.201  11.264  11.866  0.3658  2.4115 -0.1555
 3116SOL     OW27339   9.794   4.744   8.284 -0.1309  0.1563 -0.0154
 3116SOL    HW127340   9.741   4.750   8.204  0.3365 -1.5481 -0.4846
 3116SOL    HW227341   9.812   4.651   8.295 -1.2765  0.1707  2.8381
 3117SOL     OW27342   4.065   1.771  13.547 -0.2371  0.3590  0.1824
 3117SOL    HW127343   4.139   1.731  13.501  0.0555  1.2560 -0.1473
 3117SOL    HW227344   4.056   1.721  13.628 -0.0038 -0.4870 -0.3050
 3118SOL     OW27345   5.250  13.900   1.458 -0.1497  0.3700 -0.3049
 3118SOL    HW127346   5.281  13.812   1.481  0.6518  1.0319  1.2789
 3118SOL    HW227347   5.161  13.903   1.492 -0.6016 -0.2080 -1.3971
 3119SOL     OW27348   6.447  14.083  13.253 -0.2744 -0.5529  0.3984
 3119SOL    HW127349   6.357  14.099  13.281  0.5749  1.3901  2.3201
 3119SOL    HW227350   6.486  14.032  13.324  0.9770  1.4176  1.2006
 3120SOL     OW27351   0.442   1.593   5.542 -0.0906 -0.2099  0.5187
 3120SOL    HW127352   0.531   1.567   5.516  0.4669  0.9826  1.1759
 3120SOL    HW227353   0.405   1.634   5.464  0.1396 -0.1949  0.4164
 3121SOL     OW27354  10.275   1.348   4.650 -0.5515 -0.0030 -0.4064
 3121SOL    HW127355  10.342   1.364   4.583  2.6752  1.7664  2.8467
 3121SOL    HW227356  10.321   1.300   4.719 -3.7966 -2.1596  0.5119
 3122SOL     OW27357   9.553  14.086   5.591 -0.3635  0.0121  0.0415
 3122SOL    HW127358   9.566  14.094   5.685 -1.9181 -0.6562  0.3419
 3122SOL    HW227359   9.623  14.028   5.562  0.0060  0.0650  0.8181
 3123SOL     OW27360  10.255  13.845   8.903  0.1218  0.5151 -0.2436
 3123SOL    HW127361  10.294  13.865   8.818  0.4030  0.2372 -0.1859
 3123SOL    HW227362  10.175  13.796   8.882  0.0640  0.6572 -0.3536
 3124SOL     OW27363   3.233   4.660   3.830 -0.2642 -0.2682  0.5668
 3124SOL    HW127364   3.285   4.738   3.848  0.1920 -0.6966  1.1486
 3124SOL    HW227365   3.225   4.658   3.735 -1.2135  1.0766  0.5980
 3125SOL     OW27366   0.366   1.115   0.818 -0.3895  1.1186  0.4432
 3125SOL    HW127367   0.298   1.151   0.875 -1.4447 -2.4235  1.6912
 3125SOL    HW227368   0.321   1.049   0.765  1.7760 -0.4113  0.3708
 3126SOL     OW27369  10.096   8.272   6.799 -0.1289 -0.1622  0.1241
 3126SOL    HW127370  10.152   8.315   6.735 -1.2204 -0.7590 -1.2814
 3126SOL    HW227371  10.024   8.333   6.814  0.7975  0.5763  1.8766
 3127SOL     OW27372  12.304   2.327   1.716 -0.6159 -0.2566 -0.0064
 3127SOL    HW127373  12.372   2.268   1.683 -0.6340 -0.2779 -0.0054
 3127SOL    HW227374  12.264   2.279   1.788 -1.1267 -0.5460 -0.4783
 3128SOL     OW27375  10.603  13.721   0.428  0.1291 -0.1743 -0.1923
 3128SOL    HW127376  10.691  13.737   0.463 -0.0299 -0.5499  0.3854
 3128SOL    HW227377  10.603  13.628   0.406 -0.5050 -0.4492  0.9146
 3129SOL     OW27378   0.775   1.864   9.180  0.4327 -0.5426  0.0212
 3129SOL    HW127379   0.706   1.872   9.114 -0.3556  1.8747  1.0365
 3129SOL    HW227380   0.855   1.849   9.129 -0.4625 -0.8723 -1.3321
 3130SOL     OW27381   6.912   4.076  10.539  0.2897  0.3821  0.6792
 3130SOL    HW127382   6.938   4.099  10.628  1.4292  0.5125  0.3263
 3130SOL    HW227383   6.961   3.996  10.519  0.5422  0.7091 -0.0539
 3131SOL     OW27384  13.903  10.904   4.006 -0.0137  0.3747 -0.6859
 3131SOL    HW127385  13.973  10.857   4.053 -1.0224 -0.9122 -0.4146
 3131SOL    HW227386  13.849  10.942   4.075  0.3685  1.3116 -0.8960
 3132SOL     OW27387  14.111   3.884   0.647  0.0681  0.1755  0.3514
 3132SOL    HW127388  14.044   3.942   0.682 -1.6917  0.8071 -3.5994
 3132SOL    HW227389  14.170   3.941   0.599  0.0939 -0.9353 -1.0135
 3133SOL     OW27390   5.550   6.363   0.931  0.5599  0.5100 -0.2306
 3133SOL    HW127391   5.487   6.411   0.984  0.8606  1.2116 -0.5029
 3133SOL    HW227392   5.593   6.304   0.992  0.7340  1.1371  0.2598
 3134SOL     OW27393   6.139   2.513   8.432  0.1720  0.4017  0.3687
 3134SOL    HW127394   6.150   2.486   8.340 -1.7769  0.2623  0.1233
 3134SOL    HW227395   6.228   2.514   8.468  1.0898  1.1989 -1.7145
 3135SOL     OW27396   0.755   3.840  13.675 -0.4622  0.5946 -0.1613
 3135SOL    HW127397   0.705   3.843  13.593 -3.7737  0.0188  1.6582
 3135SOL    HW227398   0.743   3.751  13.707 -0.0267  1.0708  1.3927
 3136SOL     OW27399   9.571   1.868  11.431  0.1446 -0.4438 -0.4992
 3136SOL    HW127400   9.658   1.843  11.460 -0.2297 -0.7213  0.4340
 3136SOL    HW227401   9.556   1.816  11.352  1.0386  0.0410 -1.0049
 3137SOL     OW27402   9.045   6.782   0.833 -0.2681  0.0048  0.1850
 3137SOL    HW127403   9.131   6.746   0.856 -0.2388 -0.4058 -0.5154
 3137SOL    HW227404   9.019   6.834   0.909  1.6402  2.0788 -0.4768
 3138SOL     OW27405  10.553  11.552   2.424 -0.2731  0.3335 -0.6332
 3138SOL    HW127406  10.541  11.589   2.512  0.9235 -0.6531 -0.0210
 3138SOL    HW227407  10.464  11.539   2.391 -0.7738 -0.0394  0.7828
 3139SOL     OW27408   4.754  12.472   5.858 -0.2273  0.0515  0.2744
 3139SOL    HW127409   4.720  12.524   5.785 -1.0088 -0.1521  0.4755
 3139SOL    HW227410   4.789  12.393   5.816  3.3191  1.7552 -0.3038
 3140SOL     OW27411  11.278  13.813   7.492  0.1356  0.2570 -0.4253
 3140SOL    HW127412  11.270  13.792   7.399 -0.8072  1.4241 -0.6204
 3140SOL    HW227413  11.248  13.903   7.500 -0.9058 -0.1894  1.1819
 3141SOL     OW27414   4.892   9.417  10.074  0.5427  0.2909 -0.3552
 3141SOL    HW127415   4.809   9.465  10.080  0.8242  1.1832 -2.5790
 3141SOL    HW227416   4.869   9.335  10.030  0.7141  0.2048 -0.2854
 3142SOL     OW27417   0.677   3.113   7.309 -0.2702  0.0959  0.4882
 3142SOL    HW127418   0.589   3.151   7.306 -0.2761  0.1681 -3.2537
 3142SOL    HW227419   0.731   3.183   7.345 -1.4006  0.8282  0.8412
 3143SOL     OW27420  12.315   7.847  11.865  0.2866 -0.1366  0.0172
 3143SOL    HW127421  12.231   7.805  11.886 -0.6995  0.6373 -2.0893
 3143SOL    HW227422  12.294   7.940  11.855  1.6934  0.3006  0.8021
 3144SOL     OW27423   0.087  11.688  11.273  0.1184 -0.4067  0.1505
 3144SOL    HW127424   0.036  11.679  11.193  0.8382  0.7183 -0.4549
 3144SOL    HW227425   0.174  11.715  11.244  0.2215  0.6521  1.3357
 3145SOL     OW27426  10.809   1.453   4.129  0.9279 -0.1432 -1.0541
 3145SOL    HW127427  10.732   1.439   4.074  1.3481  0.7218 -1.8864
 3145SOL    HW227428  10.830   1.546   4.118  1.6364 -0.1972 -0.2438
 3146SOL     OW27429  10.403   4.564  11.869  0.5433 -0.1991  0.2331
 3146SOL    HW127430  10.340   4.492  11.878 -0.9267  1.1106  0.8080
 3146SOL    HW227431  10.433   4.582  11.958  1.1174 -0.2634  0.0585
 3147SOL     OW27432   8.143   9.146   3.581 -0.2191  0.5689  0.0625
 3147SOL    HW127433   8.143   9.084   3.654  1.5854  0.6161  0.1485
 3147SOL    HW227434   8.163   9.231   3.621  1.4103  0.4879 -0.5240
 3148SOL     OW27435   1.823   4.772  11.685 -0.6530  0.1390  0.1309
 3148SOL    HW127436   1.731   4.751  11.701 -0.6717 -1.0659 -1.2580
 3148SOL    HW227437   1.870   4.727  11.754 -1.0435 -0.3753  0.0750
 3149SOL     OW27438   6.994  13.928   6.738  1.2727 -0.2408  0.6830
 3149SOL    HW127439   6.920  13.963   6.688 -0.5013 -2.6362  1.4094
 3149SOL    HW227440   7.071  13.949   6.685 -0.1411  0.4478 -1.2213
 3150SOL     OW27441  11.904  13.324   1.522 -0.5727 -0.3554 -0.2347
 3150SOL    HW127442  11.943  13.237   1.510 -1.6179 -0.9528  0.5177
 3150SOL    HW227443  11.861  13.319   1.607  3.4716  2.5274  2.2830
 3151SOL     OW27444  12.620  12.485   1.395 -0.3142  0.1463  0.2748
 3151SOL    HW127445  12.554  12.512   1.459 -0.3615 -0.4718  0.4882
 3151SOL    HW227446  12.620  12.390   1.398  1.1797  0.1372  0.8995
 3152SOL     OW27447  13.454   6.582   8.599  0.0456  0.2948  0.3348
 3152SOL    HW127448  13.387   6.608   8.536 -1.6135 -2.7997  0.6136
 3152SOL    HW227449  13.504   6.514   8.553 -0.2860 -1.0025  1.8175
 3153SOL     OW27450   2.285   0.728  11.077 -0.3173  0.0383 -0.1355
 3153SOL    HW127451   2.189   0.724  11.082 -0.3279  0.6715  0.2481
 3153SOL    HW227452   2.312   0.763  11.162  0.3532 -1.5356  0.3371
 3154SOL     OW27453   2.836  10.817  12.599  0.0924 -0.1688  0.4489
 3154SOL    HW127454   2.878  10.731  12.605  1.1808  0.2232 -1.0175
 3154SOL    HW227455   2.857  10.848  12.511  1.0143  2.2642  1.4447
 3155SOL     OW27456  12.635  13.604  10.729 -0.2884 -0.2914 -0.3443
 3155SOL    HW127457  12.657  13.536  10.665  1.1645 -0.6232  0.4555
 3155SOL    HW227458  12.571  13.563  10.787 -1.7133  0.0525 -1.6067
 3156SOL     OW27459   6.822   5.863   8.313 -0.0908 -0.2588  0.2677
 3156SOL    HW127460   6.806   5.793   8.250 -2.0316 -0.2860  0.7171
 3156SOL    HW227461   6.740   5.912   8.316  1.0276  1.7517  0.3692
 3157SOL     OW27462  10.954   5.397   1.794  0.5055 -0.1454 -0.4500
 3157SOL    HW127463  10.943   5.487   1.764  1.4786  0.1565  0.0357
 3157SOL    HW227464  10.899   5.345   1.736  0.5747  0.6738 -1.2774
 3158SOL     OW27465   4.888   1.111   0.116  1.0344 -0.0332  0.3469
 3158SOL    HW127466   4.903   1.176   0.185  0.1914  0.9773 -0.3871
 3158SOL    HW227467   4.962   1.050   0.124  0.9022 -0.0184  2.1973
 3159SOL     OW27468   2.065   9.836   7.768  0.0564 -0.4361  0.3515
 3159SOL    HW127469   2.055   9.929   7.791  0.2481 -0.5327  0.8410
 3159SOL    HW227470   2.030   9.789   7.844  0.0125 -0.7643  0.1263
 3160SOL     OW27471  13.677  12.502   1.057  0.4898  0.1046 -0.2815
 3160SOL    HW127472  13.684  12.540   1.144 -1.5188 -0.0191 -0.0221
 3160SOL    HW227473  13.755  12.447   1.048  0.9119  0.4149  1.2759
 3161SOL     OW27474  12.309   1.476  12.767 -0.3658  0.2234  0.2108
 3161SOL    HW127475  12.254   1.458  12.690  1.1904  2.1233 -1.4847
 3161SOL    HW227476  12.280   1.562  12.797 -0.2854 -0.0753  1.1615
 3162SOL     OW27477   9.132   2.081   8.354  0.2336 -0.1718  0.0916
 3162SOL    HW127478   9.134   2.152   8.419  0.1772 -1.4061  1.4901
 3162SOL    HW227479   9.051   2.034   8.372  0.1648 -0.4691 -0.9579
 3163SOL     OW27480   6.830   8.364   8.035 -0.5598  0.2826  0.0310
 3163SOL    HW127481   6.777   8.285   8.044  0.7867 -0.5886  0.5184
 3163SOL    HW227482   6.920   8.334   8.047 -0.0273  1.8933  0.2440
 3164SOL     OW27483   6.157   0.249  11.362 -0.2241  0.3714 -0.4550
 3164SOL    HW127484   6.066   0.222  11.378  0.1725 -0.7073  0.0661
 3164SOL    HW227485   6.171   0.231  11.269 -0.3905  0.0465 -0.4200
 3165SOL     OW27486   1.540   0.882   2.991  1.3772  0.2679 -0.3618
 3165SOL    HW127487   1.567   0.870   3.082 -0.4576  2.4340  0.5745
 3165SOL    HW227488   1.541   0.794   2.953 -0.5129 -1.1780  2.5584
 3166SOL     OW27489  12.738  11.584  10.476 -0.0686 -0.2786  0.0510
 3166SOL    HW127490  12.656  11.631  10.461 -1.1687 -2.0604  0.2674
 3166SOL    HW227491  12.799  11.622  10.413 -1.3801  0.2892 -0.9220
 3167SOL     OW27492   6.708   7.583   9.226 -0.1182 -0.5323 -0.0252
 3167SOL    HW127493   6.783   7.637   9.201 -0.6465  0.0796 -0.3114
 3167SOL    HW227494   6.641   7.604   9.161 -0.4911 -1.1900  0.1350
 3168SOL     OW27495   8.761   4.346   3.232  0.1064  0.3676 -0.2531
 3168SOL    HW127496   8.696   4.276   3.237  1.5759 -1.1799 -1.6736
 3168SOL    HW227497   8.836   4.306   3.190  0.8512  2.9461 -1.5751
 3169SOL     OW27498   5.855   5.402  11.889 -0.5662  0.2690 -0.0081
 3169SOL    HW127499   5.801   5.451  11.951 -0.9809  1.3048 -1.1462
 3169SOL    HW227500   5.798   5.331  11.859 -0.2918 -0.3655  0.9203
 3170SOL     OW27501   9.953   9.436   8.521  0.1213  0.0174 -0.3494
 3170SOL    HW127502   9.975   9.399   8.435  1.4180 -0.5668  0.2089
 3170SOL    HW227503   9.946   9.360   8.579 -3.2062  0.1553 -0.3732
 3171SOL     OW27504  13.194   6.885   6.407  0.0029 -0.2174 -0.1528
 3171SOL    HW127505  13.151   6.958   6.364  0.2212  0.0110  0.0142
 3171SOL    HW227506  13.194   6.815   6.341 -0.7255 -0.2653 -0.1115
 3172SOL     OW27507  11.825   9.923   8.802 -0.6560  0.6329  0.2502
 3172SOL    HW127508  11.821   9.830   8.784 -1.3082  0.1146  2.6399
 3172SOL    HW227509  11.771   9.963   8.734 -2.3533 -1.0139  0.5448
 3173SOL     OW27510   5.271   2.070   8.488 -0.0460  0.3113  0.1916
 3173SOL    HW127511   5.347   2.114   8.524 -0.8566  3.1589 -1.2421
 3173SOL    HW227512   5.242   2.127   8.417 -2.3562 -1.6697 -0.5990
 3174SOL     OW27513   6.654  11.197   5.698  0.0582 -0.0369  0.2771
 3174SOL    HW127514   6.605  11.275   5.727  1.3170  0.6597  0.6035
 3174SOL    HW227515   6.624  11.128   5.757  1.7361  1.1024  2.6544
 3175SOL     OW27516   5.513  11.258   7.870 -0.0437 -0.9699 -0.4580
 3175SOL    HW127517   5.545  11.287   7.784  1.5658 -0.4074  0.2795
 3175SOL    HW227518   5.507  11.163   7.862  3.1018 -1.3014 -0.3460
 3176SOL     OW27519  12.598   5.413   7.878 -0.0858 -0.5315  0.5098
 3176SOL    HW127520  12.557   5.411   7.791 -1.4352 -0.6594  1.1197
 3176SOL    HW227521  12.645   5.496   7.880 -0.0622 -0.5119 -0.3351
 3177SOL     OW27522  13.483   8.779   5.881 -0.6621 -0.1913  0.2723
 3177SOL    HW127523  13.511   8.802   5.792  0.2785 -1.0645  0.3280
 3177SOL    HW227524  13.491   8.861   5.929 -0.1198  0.0372 -0.1941
 3178SOL     OW27525   7.574  10.468  11.329 -0.0151 -0.3520  0.3250
 3178SOL    HW127526   7.622  10.469  11.412 -0.9666  0.7851  0.9036
 3178SOL    HW227527   7.550  10.377  11.317 -0.6803 -0.4104  1.8215
 3179SOL     OW27528   9.150   5.506   6.214  0.0521  0.3561 -0.5065
 3179SOL    HW127529   9.203   5.474   6.286  0.2804  2.5627  0.3759
 3179SOL    HW227530   9.213   5.534   6.148 -0.1461 -0.8327 -1.2447
 3180SOL     OW27531   1.686   9.479   4.778  0.0381 -0.4234  0.0624
 3180SOL    HW127532   1.611   9.516   4.731 -0.4734 -0.1764  1.0312
 3180SOL    HW227533   1.666   9.385   4.784 -1.0998 -0.1262  1.8174
 3181SOL     OW27534   2.379   4.774   2.958 -0.7478  0.4375  0.9210
 3181SOL    HW127535   2.316   4.796   2.889 -0.2186 -2.9212 -0.8268
 3181SOL    HW227536   2.464   4.798   2.922 -0.4850 -1.1511  0.4263
 3182SOL     OW27537   2.079   8.159   4.467 -0.0610  0.3783 -0.1870
 3182SOL    HW127538   2.128   8.143   4.386  0.9837 -0.2453  0.5410
 3182SOL    HW227539   2.044   8.073   4.490 -0.2163  0.5232  0.1110
 3183SOL     OW27540   7.899  10.222   5.890  0.1906  0.2282 -0.4263
 3183SOL    HW127541   7.966  10.283   5.858  1.8766 -0.2188  1.9760
 3183SOL    HW227542   7.886  10.246   5.982 -1.0081 -1.3969 -0.1180
 3184SOL     OW27543   9.105   3.844   6.419 -0.1389  0.1311 -0.3305
 3184SOL    HW127544   9.186   3.828   6.466  1.0436  0.8835 -1.9816
 3184SOL    HW227545   9.043   3.872   6.486  0.6896 -1.2969  1.0952
 3185SOL     OW27546  10.060   9.612   2.308  0.2740  0.3119  0.0248
 3185SOL    HW127547  10.155   9.601   2.297  0.0420 -1.4482 -0.5694
 3185SOL    HW227548  10.023   9.584   2.224 -0.7834  1.2937  0.1285
 3186SOL     OW27549   5.547  11.145   3.217  0.4884 -0.2894  0.2685
 3186SOL    HW127550   5.542  11.226   3.166  2.2127 -0.0114  0.4846
 3186SOL    HW227551   5.530  11.076   3.154 -0.2643  0.1967 -0.0757
 3187SOL     OW27552   8.341   7.512   8.871  0.1142  0.0205 -0.2005
 3187SOL    HW127553   8.430   7.527   8.837  0.0123 -0.1700 -0.5539
 3187SOL    HW227554   8.294   7.471   8.798 -0.3600  0.4297 -0.1226
 3188SOL     OW27555   2.514   0.304   6.835 -0.8328  0.4152 -0.2679
 3188SOL    HW127556   2.563   0.353   6.901 -0.8645 -0.4497  0.4093
 3188SOL    HW227557   2.490   0.222   6.878 -0.5320 -0.3327 -1.4799
 3189SOL     OW27558   6.891   9.228   8.205 -0.6508 -0.0483  0.1906
 3189SOL    HW127559   6.883   9.284   8.127  1.2205  0.1456  0.0899
 3189SOL    HW227560   6.970   9.260   8.250 -0.8303 -1.1467  1.3512
 3190SOL     OW27561   3.041  13.179  10.037  0.6875  0.2620 -0.2735
 3190SOL    HW127562   3.125  13.134  10.051  0.3888 -0.1066  0.3457
 3190SOL    HW227563   2.996  13.172  10.121  0.0056  0.4070 -0.6272
 3191SOL     OW27564   8.248  10.047   5.976 -0.2272 -0.1554  0.5408
 3191SOL    HW127565   8.281   9.973   5.924 -0.1274  1.5574 -2.0521
 3191SOL    HW227566   8.169  10.075   5.930 -1.1920  0.3710  2.4303
 3192SOL     OW27567   4.542   5.371   6.569 -0.1344 -0.4521  0.6232
 3192SOL    HW127568   4.490   5.310   6.622 -1.4558  2.4782  3.0243
 3192SOL    HW227569   4.579   5.432   6.633  2.3164  0.4456 -1.4930
 3193SOL     OW27570  12.007  12.550  11.796 -0.6529 -0.1435 -0.3448
 3193SOL    HW127571  11.928  12.559  11.742  0.3227 -0.8608 -1.9641
 3193SOL    HW227572  12.065  12.494  11.744 -0.5537 -2.8915  2.4709
 3194SOL     OW27573   9.607  13.395   5.848  0.5037 -0.4228  0.0477
 3194SOL    HW127574   9.616  13.470   5.789 -1.5310 -1.1782 -1.3481
 3194SOL    HW227575   9.667  13.329   5.813  0.3378 -0.3673 -0.3538
 3195SOL     OW27576   2.366   6.649   1.648 -1.0003 -0.1160 -0.0553
 3195SOL    HW127577   2.398   6.723   1.699 -1.7702  0.5184 -0.4824
 3195SOL    HW227578   2.335   6.586   1.713 -1.9297  0.6700  0.2783
 3196SOL     OW27579   6.280  10.445   4.426  0.5934 -0.3259 -0.1876
 3196SOL    HW127580   6.349  10.504   4.396  0.8532  0.5237  1.9061
 3196SOL    HW227581   6.233  10.495   4.493  0.0682 -2.0797  0.8153
 3197SOL     OW27582   5.720  13.676   7.485  0.4503 -0.1088 -0.4915
 3197SOL    HW127583   5.757  13.654   7.570 -0.1055  1.0275  0.0653
 3197SOL    HW227584   5.784  13.644   7.421  1.0218 -0.6815  0.3536
 3198SOL     OW27585   7.997   1.383   3.550  0.2130 -0.3916 -0.7005
 3198SOL    HW127586   8.084   1.388   3.512  1.5939  0.2440  2.2592
 3198SOL    HW227587   8.003   1.312   3.614 -0.1032  2.1277  2.3806
 3199SOL     OW27588   4.721   3.217  11.065  0.2042 -0.7119 -0.3080
 3199SOL    HW127589   4.809   3.227  11.030 -0.6916  1.1794 -2.2409
 3199SOL    HW227590   4.664   3.214  10.988 -1.5385 -0.3226  0.9012
 3200SOL     OW27591  10.786   0.831   2.231 -0.6206  0.0127 -0.7361
 3200SOL    HW127592  10.770   0.756   2.289 -2.1168  1.6175  1.0877
 3200SOL    HW227593  10.864   0.873   2.267 -0.3757 -0.0931 -1.1364
 3201SOL     OW27594   1.639   2.392   9.815 -0.6638 -0.3384 -0.0929
 3201SOL    HW127595   1.580   2.466   9.800  0.2971 -0.1964 -4.7236
 3201SOL    HW227596   1.722   2.433   9.838 -1.0047 -0.2576  1.0713
 3202SOL     OW27597  13.141  12.764  12.164  0.3208  0.1438  0.2841
 3202SOL    HW127598  13.133  12.682  12.115 -2.8131 -0.0801  0.9763
 3202SOL    HW227599  13.211  12.811  12.119  1.6310 -2.4904 -0.6788
 3203SOL     OW27600   9.705  10.089   7.544 -0.7269  0.6268 -0.1407
 3203SOL    HW127601   9.692  10.047   7.459 -2.2316 -1.5194  1.0509
 3203SOL    HW227602   9.618  10.118   7.571 -0.2103  1.6715  0.5224
 3204SOL     OW27603   9.641   4.120   0.882  0.2358 -0.2426  0.0392
 3204SOL    HW127604   9.700   4.044   0.884  0.4423 -0.0718  0.5967
 3204SOL    HW227605   9.660   4.162   0.799  1.9356  0.6068  0.8074
 3205SOL     OW27606   3.207   0.852   5.411  0.1512  0.5521 -0.1083
 3205SOL    HW127607   3.300   0.833   5.418  0.0833  0.5415  0.8523
 3205SOL    HW227608   3.197   0.890   5.324  0.8086 -0.8008 -0.7992
 3206SOL     OW27609   9.151   5.327   2.827  0.7550  0.2271  0.1790
 3206SOL    HW127610   9.182   5.407   2.786  0.8441  0.3406  0.4612
 3206SOL    HW227611   9.160   5.260   2.759 -0.5388  0.6929 -0.4797
 3207SOL     OW27612  11.074  11.178  13.593  0.3260 -0.6299  0.1938
 3207SOL    HW127613  11.166  11.154  13.599  0.7567  1.1793  1.6230
 3207SOL    HW227614  11.037  11.154  13.678 -0.5967 -1.5064 -0.4256
 3208SOL     OW27615  11.422   8.026   3.646 -0.0544 -0.1157  0.0938
 3208SOL    HW127616  11.440   8.057   3.557 -0.0673 -2.0413 -0.6126
 3208SOL    HW227617  11.508   7.999   3.680 -0.4224 -2.1252 -0.4539
 3209SOL     OW27618  10.334   7.177   9.908  0.2778 -0.5898 -0.1348
 3209SOL    HW127619  10.312   7.101   9.961  0.4896 -0.5304  0.0382
 3209SOL    HW227620  10.429   7.186   9.916  0.2793 -0.4242 -0.3127
 3210SOL     OW27621   3.061   1.713  10.470  1.0622  0.0503  0.3693
 3210SOL    HW127622   3.130   1.659  10.430  0.8549 -0.5549  0.8234
 3210SOL    HW227623   3.077   1.706  10.564 -0.7363 -1.6440  0.6084
 3211SOL     OW27624  12.454   5.176  12.578 -0.6821 -0.2685  0.0068
 3211SOL    HW127625  12.446   5.270  12.597  2.4065  0.2247 -0.7220
 3211SOL    HW227626  12.406   5.134  12.650 -1.6888  1.8134  0.6468
 3212SOL     OW27627   6.869   5.296  13.385 -0.0054  0.2408 -0.1065
 3212SOL    HW127628   6.862   5.252  13.470 -1.9492  0.4988 -0.0911
 3212SOL    HW227629   6.783   5.335  13.371  1.2385  3.0075 -0.7048
 3213SOL     OW27630   9.974   3.034   9.004 -0.5345 -0.0702  0.8441
 3213SOL    HW127631  10.024   2.968   9.051  1.9950  0.9834 -0.1474
 3213SOL    HW227632   9.902   3.057   9.063 -0.6582 -2.6131  1.8034
 3214SOL     OW27633   4.473  12.715   5.534  0.0249 -0.1353 -0.6871
 3214SOL    HW127634   4.414  12.647   5.567  1.6572 -0.8582  0.9160
 3214SOL    HW227635   4.480  12.777   5.606  2.6695 -1.0792 -0.0039
 3215SOL     OW27636   6.412  12.903   5.616 -0.0585  0.7636  0.5425
 3215SOL    HW127637   6.370  12.855   5.545 -0.7307 -0.7503  1.9156
 3215SOL    HW227638   6.354  12.977   5.633  0.1613  1.2039 -0.5101
 3216SOL     OW27639  13.651   5.396   5.463  0.3240 -0.5086 -0.0251
 3216SOL    HW127640  13.591   5.370   5.534 -0.7345 -1.2486 -1.1642
 3216SOL    HW227641  13.649   5.492   5.466  0.0188 -0.5255  0.7265
 3217SOL     OW27642   6.806   9.256   2.875  0.0548  0.1068  0.0089
 3217SOL    HW127643   6.750   9.215   2.941  0.5460  1.4813  1.3254
 3217SOL    HW227644   6.750   9.320   2.831  0.4375  1.1460  1.0023
 3218SOL     OW27645  13.069  11.217   1.845  0.3073  0.1535  0.6427
 3218SOL    HW127646  12.990  11.205   1.792  1.3301  3.2188 -1.8977
 3218SOL    HW227647  13.118  11.136   1.833 -0.7316 -0.3044 -0.9574
 3219SOL     OW27648  12.464   8.055  10.528 -0.3445 -0.2440 -0.1887
 3219SOL    HW127649  12.427   7.978  10.572 -0.7245  0.6959  1.2041
 3219SOL    HW227650  12.552   8.027  10.502 -0.4812 -1.1589  0.2738
 3220SOL     OW27651   3.933   4.589   1.294  0.3147  0.6365  0.3193
 3220SOL    HW127652   3.936   4.558   1.384 -0.3554  2.5762  1.0674
 3220SOL    HW227653   3.967   4.517   1.242 -0.2191 -0.9052  2.0184
 3221SOL     OW27654   1.698   5.769  13.837  0.6010  0.1181  0.0858
 3221SOL    HW127655   1.775   5.823  13.821  0.2681  0.3386 -0.8302
 3221SOL    HW227656   1.728   5.680  13.821  0.6169  0.2225 -0.4856
 3222SOL     OW27657  10.503   2.510   1.443 -0.3352 -0.2976 -0.1353
 3222SOL    HW127658  10.590   2.525   1.481  0.0577 -2.1409 -0.2456
 3222SOL    HW227659  10.448   2.487   1.517 -0.6722  0.5102 -0.1181
 3223SOL     OW27660  10.729   0.210  12.510  0.8396 -0.0014 -0.3977
 3223SOL    HW127661  10.791   0.151  12.467  1.5325 -0.3340  0.9794
 3223SOL    HW227662  10.674   0.152  12.563  1.0415  0.5141  0.3926
 3224SOL     OW27663   4.261   0.625   7.052 -0.6315 -0.0185 -0.4570
 3224SOL    HW127664   4.167   0.614   7.068 -0.6557 -1.8418 -1.5778
 3224SOL    HW227665   4.273   0.595   6.962  1.2402 -1.1426  0.1228
 3225SOL     OW27666   3.642  12.825   1.179  0.0270  0.0436 -0.3476
 3225SOL    HW127667   3.672  12.758   1.241 -0.7356  0.8651  0.9726
 3225SOL    HW227668   3.686  12.905   1.208  0.5585  0.2294 -1.6053
 3226SOL     OW27669  13.043  11.426   5.526  0.0508 -0.7304  0.2463
 3226SOL    HW127670  13.013  11.514   5.549  1.7745 -0.5030  1.8078
 3226SOL    HW227671  13.095  11.438   5.447 -0.2051 -0.4592  0.1139
 3227SOL     OW27672   4.390   2.134   9.721 -0.1122 -0.0984 -0.2976
 3227SOL    HW127673   4.447   2.074   9.672  0.5503 -0.6601  1.1132
 3227SOL    HW227674   4.357   2.083   9.794 -1.2494  0.6694 -0.2379
 3228SOL     OW27675  10.152   7.238  10.176  0.6191  0.0211  0.4366
 3228SOL    HW127676  10.082   7.181  10.206 -0.2812 -1.0127 -3.2248
 3228SOL    HW227677  10.229   7.180  10.170  1.1085  0.4995  1.7424
 3229SOL     OW27678  11.402  12.753  10.080  0.1142  0.8250  0.0412
 3229SOL    HW127679  11.378  12.714  10.165 -0.0345  0.8421  0.0073
 3229SOL    HW227680  11.398  12.847  10.095 -0.3410  0.8302 -0.1030
 3230SOL     OW27681   0.865   0.439   6.224  0.0901  0.5349 -0.3896
 3230SOL    HW127682   0.887   0.519   6.271 -0.3413  0.2213  0.3649
 3230SOL    HW227683   0.949   0.399   6.203  0.2915  0.8400 -0.1678
 3231SOL     OW27684   6.751   1.577   9.223 -0.0998  0.5241  0.3647
 3231SOL    HW127685   6.683   1.554   9.286  0.4344  0.7423  1.0291
 3231SOL    HW227686   6.827   1.525   9.249  0.2466  0.9124  0.1474
 3232SOL     OW27687   4.304   8.170  11.988 -0.1802 -0.0902  0.1674
 3232SOL    HW127688   4.356   8.179  12.068 -0.2513  1.5564  0.0795
 3232SOL    HW227689   4.215   8.191  12.015  0.0285  1.9972 -0.5690
 3233SOL     OW27690   5.554  11.001   7.801  0.0736 -0.1575 -0.0879
 3233SOL    HW127691   5.595  10.983   7.885 -0.9771  3.9930  1.5673
 3233SOL    HW227692   5.603  10.949   7.738  3.8122 -0.1130  2.5137
 3234SOL     OW27693   8.595   6.478  12.823  0.1306 -0.3078 -0.5322
 3234SOL    HW127694   8.599   6.383  12.833  1.1289 -0.3516 -1.1341
 3234SOL    HW227695   8.509   6.495  12.786 -0.1538 -0.9493 -0.1894
 3235SOL     OW27696  11.566  11.237   5.386  0.5225 -0.2866 -0.3460
 3235SOL    HW127697  11.502  11.274   5.325 -0.4849  2.0711  1.9611
 3235SOL    HW227698  11.650  11.267   5.352 -0.1544  2.7766  0.3949
 3236SOL     OW27699   0.869   2.555   9.936 -0.2565 -0.5223  0.0506
 3236SOL    HW127700   0.807   2.583   9.868  1.2528 -0.1870 -1.2521
 3236SOL    HW227701   0.862   2.623  10.004  0.7877  1.2002 -1.4574
 3237SOL     OW27702  13.211   5.277  12.517  0.3760 -0.4985 -0.3564
 3237SOL    HW127703  13.231   5.347  12.454 -1.3447 -0.2014 -0.6226
 3237SOL    HW227704  13.238   5.197  12.472  3.0280 -0.0252  0.2247
 3238SOL     OW27705   4.749  13.861   0.392  0.5103 -0.1278  0.7962
 3238SOL    HW127706   4.724  13.815   0.312  0.4048  1.0391  0.1263
 3238SOL    HW227707   4.843  13.848   0.399  1.1067  2.1444 -1.1975
 3239SOL     OW27708  11.516   1.619  12.752 -0.1334  0.2182  0.8626
 3239SOL    HW127709  11.426   1.612  12.721  0.1987 -2.4503  0.2186
 3239SOL    HW227710  11.534   1.712  12.753 -3.0502  0.8754  1.4933
 3240SOL     OW27711   8.216   5.413  11.487  0.1929 -0.4068 -0.1504
 3240SOL    HW127712   8.206   5.493  11.539 -0.3867 -1.0905  0.8234
 3240SOL    HW227713   8.140   5.413  11.428  0.2638 -0.1722 -0.2401
 3241SOL     OW27714  10.054   3.515   4.667  0.6872  0.1890  0.0246
 3241SOL    HW127715  10.019   3.526   4.579 -0.0158  0.3198  0.3188
 3241SOL    HW227716  10.077   3.422   4.672  0.5364  0.1378 -0.2265
 3242SOL     OW27717   4.508   9.758  11.131 -0.0777 -0.1289 -0.3232
 3242SOL    HW127718   4.482   9.832  11.185  1.3516  0.3704 -0.2761
 3242SOL    HW227719   4.484   9.681  11.183 -0.0901  0.3185  0.3442
 3243SOL     OW27720   1.590   2.061  13.450  0.3584 -0.0801  0.0362
 3243SOL    HW127721   1.667   2.069  13.507 -0.8556  2.0129  1.5095
 3243SOL    HW227722   1.575   2.149  13.416 -1.2942 -0.4556 -0.3075
 3244SOL     OW27723  12.987  13.377   7.158 -0.5308  0.0753 -0.3564
 3244SOL    HW127724  12.914  13.390   7.096 -0.4648  0.5569 -0.3412
 3244SOL    HW227725  13.046  13.450   7.140  0.6895 -1.1258 -1.3861
 3245SOL     OW27726   0.902  11.320   6.787  0.5103 -0.2612 -0.2137
 3245SOL    HW127727   0.882  11.291   6.698 -1.2320  0.3816 -0.0652
 3245SOL    HW227728   0.996  11.304   6.797  0.3899 -2.0087 -1.5323
 3246SOL     OW27729   5.999   2.333   5.670  0.5717 -0.4782  0.0431
 3246SOL    HW127730   5.988   2.421   5.706  0.3630 -0.8767  0.9858
 3246SOL    HW227731   5.973   2.341   5.579 -1.6582 -0.0510  0.6593
 3247SOL     OW27732   4.921   6.574  10.427 -0.0564  0.0841  0.1317
 3247SOL    HW127733   5.015   6.565  10.447  0.3674 -0.1382 -1.7940
 3247SOL    HW227734   4.879   6.506  10.480  1.2472 -1.9549 -1.3029
 3248SOL     OW27735   2.725  11.944  11.160 -0.4483  0.1546  0.3792
 3248SOL    HW127736   2.658  12.009  11.135  0.3146  1.0194  0.5518
 3248SOL    HW227737   2.745  11.964  11.251  1.1503  0.9011 -0.1107
 3249SOL     OW27738  12.919   8.935  12.633  0.5235  0.1473  0.1706
 3249SOL    HW127739  12.942   8.918  12.725  1.2828 -1.6251 -0.3014
 3249SOL    HW227740  12.885   9.024  12.633  1.2033  0.4576  2.0508
 3250SOL     OW27741   3.296   8.164   8.983 -0.2671  0.2443  0.4617
 3250SOL    HW127742   3.275   8.180   8.891 -0.3685  1.3281  0.6570
 3250SOL    HW227743   3.390   8.150   8.985  0.2704  3.1755  0.5054
 3251SOL     OW27744  14.153   4.383  13.287  0.0620 -0.0938 -0.1291
 3251SOL    HW127745  14.176   4.443  13.358 -1.4161 -0.0860  0.3665
 3251SOL    HW227746  14.105   4.437  13.224 -0.9520 -0.6598  0.1452
 3252SOL     OW27747   5.377   2.606  10.293 -0.0249 -0.3059  0.4941
 3252SOL    HW127748   5.435   2.566  10.228 -1.3344 -0.1333 -0.8314
 3252SOL    HW227749   5.430   2.675  10.333  0.3654  0.6357 -1.5200
 3253SOL     OW27750   5.537   8.295   3.481 -0.6588 -0.1224  0.2524
 3253SOL    HW127751   5.547   8.232   3.552 -2.0422 -1.4510 -0.6637
 3253SOL    HW227752   5.626   8.310   3.449 -0.3888 -3.2502 -0.8212
 3254SOL     OW27753   8.400   8.626  12.307 -0.3496  0.4270  0.3224
 3254SOL    HW127754   8.383   8.701  12.365 -1.3299  0.1132  0.4521
 3254SOL    HW227755   8.473   8.655  12.253  1.4362  0.3032  2.5039
 3255SOL     OW27756  13.208  11.774   6.762  0.1396 -0.2004  0.2523
 3255SOL    HW127757  13.199  11.869   6.761 -0.1861 -0.2259  0.6800
 3255SOL    HW227758  13.221  11.752   6.854  0.0676 -0.5850  0.1729
 3256SOL     OW27759   6.419  11.375   7.940 -0.1635  0.8275  0.4062
 3256SOL    HW127760   6.378  11.359   8.025  1.0871  0.5155  0.9718
 3256SOL    HW227761   6.454  11.464   7.947 -0.1505  0.8427  0.1711
 3257SOL     OW27762   6.833   0.100   4.007 -0.0440 -0.1672  0.3682
 3257SOL    HW127763   6.766   0.047   4.050 -0.9897  0.9069  0.2600
 3257SOL    HW227764   6.859   0.048   3.931 -0.5328 -0.7308  0.5726
 3258SOL     OW27765   2.656   1.335   8.499  0.2089 -0.3048  0.3154
 3258SOL    HW127766   2.639   1.266   8.435  0.4878 -0.0712 -0.0138
 3258SOL    HW227767   2.729   1.384   8.462  0.2469 -0.0500  0.7227
 3259SOL     OW27768   2.292  11.618   6.085 -0.0395 -0.4253  0.0878
 3259SOL    HW127769   2.317  11.709   6.103 -0.6259 -0.3972  0.8269
 3259SOL    HW227770   2.376  11.571   6.080  0.2877  0.2254 -0.7580
 3260SOL     OW27771  12.239  12.728   8.247  0.0407 -0.3480  0.0920
 3260SOL    HW127772  12.148  12.757   8.250 -0.0014 -0.2691 -1.1769
 3260SOL    HW227773  12.291  12.805   8.271 -0.2205 -0.3220  0.5671
 3261SOL     OW27774   3.299   6.847  11.173  0.2124  0.1267  0.0993
 3261SOL    HW127775   3.277   6.940  11.168 -1.9661 -0.3122  0.2063
 3261SOL    HW227776   3.350   6.839  11.254 -2.1608  0.8462  1.7970
 3262SOL     OW27777  12.168   9.928   7.780 -0.3074 -0.5722 -0.2657
 3262SOL    HW127778  12.237   9.878   7.822 -0.1599  0.7455  1.1754
 3262SOL    HW227779  12.201   9.947   7.692  1.2515  0.1416  0.4374
 3263SOL     OW27780   3.894  11.352   5.815 -0.9769 -0.0403  0.1037
 3263SOL    HW127781   3.930  11.278   5.863 -1.5150 -0.9573 -0.8682
 3263SOL    HW227782   3.936  11.350   5.730  0.9803  2.3820  0.8907
 3264SOL     OW27783  11.227   5.946   2.979  0.2438  0.0792 -0.1685
 3264SOL    HW127784  11.189   6.024   3.021  1.2307 -0.0127  0.9515
 3264SOL    HW227785  11.286   5.980   2.913  0.2874  0.2739 -0.0293
 3265SOL     OW27786  10.382   8.352   9.932 -0.3371  0.4513  0.0540
 3265SOL    HW127787  10.411   8.432   9.975 -1.1871  0.7032  0.1653
 3265SOL    HW227788  10.307   8.378   9.879 -1.3151 -0.4665  0.9391
 3266SOL     OW27789   8.003  12.474   1.316  0.1189 -0.0724 -0.6578
 3266SOL    HW127790   7.989  12.568   1.321 -1.2990 -0.3270  0.7266
 3266SOL    HW227791   7.951  12.437   1.387 -0.6220 -2.0414 -2.1216
 3267SOL     OW27792   2.811  10.956  12.331 -0.0589 -0.3436 -0.0921
 3267SOL    HW127793   2.718  10.967  12.352  0.2161 -1.5362  2.0509
 3267SOL    HW227794   2.812  10.900  12.253 -1.1238 -0.4634 -0.0292
 3268SOL     OW27795   6.207   8.098   1.853 -0.4834  0.4561  0.3296
 3268SOL    HW127796   6.291   8.053   1.844 -0.6635  0.3848 -1.4293
 3268SOL    HW227797   6.206   8.129   1.944 -0.1200 -2.5679  1.4897
 3269SOL     OW27798   8.803   5.079  13.764 -0.2379 -0.1128  0.4495
 3269SOL    HW127799   8.859   5.031  13.825  0.1546  0.1052  0.2629
 3269SOL    HW227800   8.824   5.171  13.779  1.5702 -0.1335 -1.6150
 3270SOL     OW27801   9.583   0.582   2.353  0.8233  0.2147  0.2600
 3270SOL    HW127802   9.526   0.510   2.381  1.0535  0.4254  1.2984
 3270SOL    HW227803   9.582   0.577   2.257  1.0698 -1.3514  0.3137
 3271SOL     OW27804  12.977   4.442   5.157 -0.1135  0.0381  0.2647
 3271SOL    HW127805  12.893   4.399   5.142 -0.1629  0.1952  0.0937
 3271SOL    HW227806  12.969   4.527   5.116 -0.3878  0.6368  1.5183
 3272SOL     OW27807   4.585  12.182   8.293  0.0075  0.4744 -0.1074
 3272SOL    HW127808   4.542  12.256   8.250  1.5096  1.2609 -0.3314
 3272SOL    HW227809   4.636  12.221   8.364 -1.4305 -0.6844  1.6418
 3273SOL     OW27810   2.779   1.435  10.010  0.1845  0.5452  0.2543
 3273SOL    HW127811   2.690   1.414   9.981 -0.1505  2.5494 -0.3229
 3273SOL    HW227812   2.788   1.392  10.095 -0.3718 -1.8710 -0.8181
 3274SOL     OW27813   9.309  10.103   4.976  0.1065  0.0348 -0.4011
 3274SOL    HW127814   9.401  10.108   4.951  0.2833  0.2026  0.2680
 3274SOL    HW227815   9.280  10.194   4.980  0.6491  0.1575  2.0165
 3275SOL     OW27816   8.059   1.900   3.707 -0.2861 -0.3053 -0.0824
 3275SOL    HW127817   7.972   1.937   3.722 -0.2327 -0.5603  0.9890
 3275SOL    HW227818   8.046   1.805   3.712  0.0924 -0.3379  0.4042
 3276SOL     OW27819   5.936  10.971  11.937 -0.5406  0.6512 -0.0400
 3276SOL    HW127820   5.959  10.981  11.844  0.8065  1.8554  0.3812
 3276SOL    HW227821   5.985  10.894  11.966  0.1820  1.1154 -0.0038
 3277SOL     OW27822   7.977  12.682  11.717  0.2181 -0.1047 -0.0297
 3277SOL    HW127823   7.968  12.743  11.644 -0.4115 -0.6802 -0.4427
 3277SOL    HW227824   8.069  12.653  11.712  0.4246  0.5386 -0.0344
 3278SOL     OW27825   0.360   2.481   6.899  0.2146  0.1620 -0.2877
 3278SOL    HW127826   0.339   2.523   6.983  0.7046  1.1849 -0.6580
 3278SOL    HW227827   0.287   2.421   6.883 -1.3308  1.9925 -0.4722
 3279SOL     OW27828   2.490   8.279   6.957  0.0651 -0.0775  0.1546
 3279SOL    HW127829   2.435   8.318   7.026  1.1513  2.8051 -0.4687
 3279SOL    HW227830   2.554   8.347   6.937  0.4229 -1.2172 -2.9909
 3280SOL     OW27831   6.674   9.408   5.383 -0.0057  0.1698  0.2387
 3280SOL    HW127832   6.730   9.399   5.460 -0.8530  0.4091  0.9076
 3280SOL    HW227833   6.590   9.370   5.410 -0.9569  2.0751  0.1662
 3281SOL     OW27834   6.303   2.039  10.347  0.0790 -0.0436  0.3839
 3281SOL    HW127835   6.381   2.083  10.380 -0.3836 -0.4607  2.1188
 3281SOL    HW227836   6.256   2.108  10.298 -0.1259  1.1643  2.1857
 3282SOL     OW27837   3.677  11.616   6.275 -0.2140 -0.4139 -0.2078
 3282SOL    HW127838   3.587  11.590   6.256 -0.3061 -0.5705  0.4053
 3282SOL    HW227839   3.668  11.685   6.341  0.0745  0.3459 -0.9483
 3283SOL     OW27840   3.219   0.209   6.517 -0.3170  0.6344  0.2504
 3283SOL    HW127841   3.141   0.159   6.541 -0.2094  0.9879  1.3666
 3283SOL    HW227842   3.190   0.300   6.517  0.0008  0.7355  0.2387
 3284SOL     OW27843   3.792   4.153  11.514  0.5762 -0.0551 -0.7108
 3284SOL    HW127844   3.781   4.248  11.521 -0.6420 -0.1539 -1.1544
 3284SOL    HW227845   3.823   4.126  11.601 -0.5353  0.5566 -0.1149
 3285SOL     OW27846   0.334   6.911   0.040  0.6920  0.3312 -0.3123
 3285SOL    HW127847   0.380   6.962   0.107  1.1753 -2.4042  1.6362
 3285SOL    HW227848   0.245   6.902   0.074  0.3032  0.7831 -1.1873
 3286SOL     OW27849   9.846  14.025   9.600 -0.2086 -0.0824 -0.4225
 3286SOL    HW127850   9.768  14.027   9.544 -0.5291 -1.3741 -0.0648
 3286SOL    HW227851   9.918  14.005   9.540 -0.2925  0.1824 -0.6152
 3287SOL     OW27852  13.592   5.461  13.698  0.3640  0.4587 -0.0651
 3287SOL    HW127853  13.587   5.556  13.696 -0.3258  0.4645  1.0460
 3287SOL    HW227854  13.685   5.441  13.699  0.5761  1.0255 -2.4723
 3288SOL     OW27855  12.199   6.652   3.163  0.5653  0.0278  0.1517
 3288SOL    HW127856  12.260   6.675   3.093  1.7434  0.5301  1.2970
 3288SOL    HW227857  12.128   6.717   3.155  0.8299  0.2590 -0.3848
 3289SOL     OW27858   5.147  12.077   3.059 -0.3074 -0.2954 -0.1366
 3289SOL    HW127859   5.202  12.120   2.993  1.0063  0.6151  1.4786
 3289SOL    HW227860   5.122  12.147   3.119 -2.3640 -0.9113 -0.1972
 3290SOL     OW27861   6.419   6.155   1.355  0.1614  0.6468  0.6754
 3290SOL    HW127862   6.371   6.108   1.424  2.7551 -0.8574  1.6134
 3290SOL    HW227863   6.450   6.086   1.297  0.0755  1.6964 -0.6526
 3291SOL     OW27864  11.600  12.699  11.141  0.4515 -0.1691  0.1482
 3291SOL    HW127865  11.562  12.741  11.218  0.9375  1.2607 -0.3415
 3291SOL    HW227866  11.534  12.636  11.112  0.1310 -0.4979  1.5277
 3292SOL     OW27867  12.152   9.835   3.741  0.6722 -0.4681 -0.6790
 3292SOL    HW127868  12.136   9.891   3.817  0.5872  0.1167 -1.1265
 3292SOL    HW227869  12.113   9.751   3.765  1.5957 -0.6318  0.3690
 3293SOL     OW27870   9.054   6.549   6.328 -0.5256 -0.1338 -0.3800
 3293SOL    HW127871   9.085   6.638   6.344  1.2037 -0.5756 -1.0058
 3293SOL    HW227872   8.967   6.560   6.292 -0.4661  1.2896 -0.1521
 3294SOL     OW27873   8.777   4.813   8.501  0.3484  0.1409  0.0204
 3294SOL    HW127874   8.723   4.892   8.491 -0.5384 -0.2420  1.5771
 3294SOL    HW227875   8.833   4.832   8.576  1.2734 -0.1129 -0.5868
 3295SOL     OW27876   0.365  13.006  12.464 -0.3216 -0.3698 -0.0277
 3295SOL    HW127877   0.358  13.016  12.369 -1.3669 -0.3763  0.0310
 3295SOL    HW227878   0.438  12.946  12.477 -0.5727 -0.8729 -0.8641
 3296SOL     OW27879  10.369  13.307  13.448  0.3439  0.4579  0.1476
 3296SOL    HW127880  10.462  13.302  13.429  0.0960 -1.2641 -0.8316
 3296SOL    HW227881  10.358  13.261  13.531  0.0674 -1.9925 -1.1438
 3297SOL     OW27882   5.741   9.131   5.057  0.3121 -0.3759  0.4338
 3297SOL    HW127883   5.654   9.109   5.089  0.5211  0.8309  1.9640
 3297SOL    HW227884   5.727   9.161   4.967 -0.8199 -0.3961  0.5974
 3298SOL     OW27885  13.275   5.141   7.638 -0.6128  0.0347 -0.2193
 3298SOL    HW127886  13.201   5.117   7.582 -0.2145 -0.6848 -0.4431
 3298SOL    HW227887  13.234   5.168   7.720 -1.1602  0.3525 -0.5895
 3299SOL     OW27888   4.356   1.165   8.971 -0.0444  0.1738 -0.4020
 3299SOL    HW127889   4.443   1.179   8.933  0.2732 -1.5645 -0.4143
 3299SOL    HW227890   4.320   1.092   8.921 -2.1763  1.8053 -1.4286
 3300SOL     OW27891  10.773  13.055  13.857  0.3109 -0.0817  0.2259
 3300SOL    HW127892  10.836  13.109  13.807  1.2263  0.9137  2.3348
 3300SOL    HW227893  10.796  13.070  13.948 -1.2097 -1.9635  0.9830
 3301SOL     OW27894   2.755   2.880  14.047  0.1697 -0.3638 -0.0499
 3301SOL    HW127895   2.828   2.822  14.026 -1.6262 -2.6780 -0.2684
 3301SOL    HW227896   2.744   2.872  14.141  1.6416  1.8908  0.3869
 3302SOL     OW27897   0.593   1.389   4.685 -0.3612  0.5929 -0.5244
 3302SOL    HW127898   0.531   1.342   4.629  0.0446 -1.3179  0.5366
 3302SOL    HW227899   0.538   1.441   4.744 -0.8518  0.9614 -1.3043
 3303SOL     OW27900   9.168  10.434   7.493  0.4250 -0.9979 -0.2484
 3303SOL    HW127901   9.263  10.428   7.478  0.3616 -1.1200 -0.6065
 3303SOL    HW227902   9.158  10.414   7.586  0.8906  0.5091  0.1515
 3304SOL     OW27903   8.537   9.467   2.973 -0.2027 -0.0093  1.0596
 3304SOL    HW127904   8.593   9.542   2.989 -0.3545  0.1281  0.9417
 3304SOL    HW227905   8.463   9.501   2.923  0.1459 -0.3937  0.2632
 3305SOL     OW27906   0.845   1.009   9.680 -0.2533 -0.0498 -0.3973
 3305SOL    HW127907   0.878   0.940   9.622  1.9077  1.9159 -1.7300
 3305SOL    HW227908   0.833   0.966   9.765  1.3676 -1.9915 -1.0649
 3306SOL     OW27909   1.170   0.667  11.237  0.0638 -0.3733 -0.2628
 3306SOL    HW127910   1.218   0.738  11.194 -0.9692  0.3783 -0.2149
 3306SOL    HW227911   1.152   0.604  11.167 -0.5578  0.2683 -0.6911
 3307SOL     OW27912   4.737   6.058  10.922  0.2253  0.6222  0.2934
 3307SOL    HW127913   4.777   6.083  10.839  0.2772  0.7651  0.3606
 3307SOL    HW227914   4.708   5.967  10.909  1.6991  0.0784  0.6652
 3308SOL     OW27915   1.396   2.422   4.433 -0.0747  0.0925 -0.0786
 3308SOL    HW127916   1.473   2.372   4.406  0.0959  0.8546 -1.0799
 3308SOL    HW227917   1.382   2.397   4.524  1.4261  0.0202  0.1589
 3309SOL     OW27918   0.749   3.544   1.639 -0.7169  0.5747  0.6392
 3309SOL    HW127919   0.690   3.610   1.676 -0.1501  0.5067  1.6975
 3309SOL    HW227920   0.828   3.549   1.693 -0.3123 -0.3308  0.1565
 3310SOL     OW27921   1.589   4.213   7.991 -0.0444 -0.0037  0.0538
 3310SOL    HW127922   1.509   4.266   7.980  0.4600  0.5907 -0.9551
 3310SOL    HW227923   1.659   4.278   7.995  0.6208 -0.5804 -1.5098
 3311SOL     OW27924   1.653  10.655   4.179  0.6288 -0.0550  0.1144
 3311SOL    HW127925   1.627  10.616   4.263  1.0358 -3.6861 -1.2520
 3311SOL    HW227926   1.740  10.618   4.162  0.9169  1.2825 -1.5248
 3312SOL     OW27927   0.009  12.598  11.329  0.0276 -0.3659  0.3764
 3312SOL    HW127928   0.067  12.674  11.339 -1.1369  0.6919 -0.4446
 3312SOL    HW227929   0.039  12.555  11.249  2.2940 -2.3314  2.1335
 3313SOL     OW27930  10.155   8.842   6.167 -0.6584  0.5090  0.4480
 3313SOL    HW127931  10.201   8.926   6.166  0.1195  0.0985 -0.3479
 3313SOL    HW227932  10.147   8.821   6.260 -0.2314  1.1370  0.6378
 3314SOL     OW27933  11.723   7.445   2.494 -0.0997  0.3384 -0.7139
 3314SOL    HW127934  11.722   7.541   2.492  0.6837  0.3481 -0.9455
 3314SOL    HW227935  11.644   7.420   2.447 -1.4154  0.8691  1.1157
 3315SOL     OW27936   2.670   1.557   3.491 -0.1242 -0.3017  0.2610
 3315SOL    HW127937   2.597   1.597   3.445 -0.6021 -1.8694 -0.4126
 3315SOL    HW227938   2.692   1.480   3.439  1.9452  0.0599  0.5027
 3316SOL     OW27939   3.877  10.578  13.636  0.3450 -0.0929 -0.2934
 3316SOL    HW127940   3.873  10.523  13.558  0.8303 -1.8165  0.8305
 3316SOL    HW227941   3.786  10.587  13.664  0.2533 -0.2623 -0.5317
 3317SOL     OW27942   1.794   9.543   7.688  0.0898 -0.2366  0.0460
 3317SOL    HW127943   1.797   9.626   7.735  1.2725 -0.2391  0.0006
 3317SOL    HW227944   1.861   9.489   7.730  0.4933 -0.5778 -1.0226
 3318SOL     OW27945  11.002   1.983   3.179 -0.9659  0.6112  0.3744
 3318SOL    HW127946  11.084   1.981   3.129  0.0314  0.3698  1.9415
 3318SOL    HW227947  10.984   1.891   3.200 -1.5137  0.6863  0.2473
 3319SOL     OW27948   7.049   9.810   2.971 -0.0853  0.1861 -0.5988
 3319SOL    HW127949   7.096   9.889   2.999  0.6951 -0.8647  1.2703
 3319SOL    HW227950   7.107   9.768   2.908  1.2307 -0.7406  1.1699
 3320SOL     OW27951   5.955   4.759   6.988 -0.3903  0.6235  0.1142
 3320SOL    HW127952   5.988   4.711   7.064 -0.6613 -0.1202 -0.2314
 3320SOL    HW227953   6.009   4.729   6.915 -0.4254  1.0036 -0.0698
 3321SOL     OW27954   3.236   8.989   2.131 -0.3268  0.3977  0.0729
 3321SOL    HW127955   3.244   8.983   2.036 -0.0481 -1.0094  0.1606
 3321SOL    HW227956   3.213   9.081   2.148  1.4946  1.1370 -1.1961
 3322SOL     OW27957   3.712   4.807   9.154  0.2182  0.0906  0.2737
 3322SOL    HW127958   3.791   4.807   9.100  0.1105 -1.3330  0.0808
 3322SOL    HW227959   3.690   4.900   9.164  0.8881  0.4398 -1.1686
 3323SOL     OW27960   3.164  11.342   2.760 -0.1430 -0.3644 -0.0129
 3323SOL    HW127961   3.113  11.388   2.827  2.2455 -0.4515  2.0354
 3323SOL    HW227962   3.223  11.410   2.725  0.3216 -0.8695 -0.2246
 3324SOL     OW27963   2.985   0.265   2.014  0.4931  0.3862  0.1641
 3324SOL    HW127964   2.997   0.358   2.029  1.2295  0.2237  0.5959
 3324SOL    HW227965   2.891   0.250   2.029  0.8324  0.5611  2.8359
 3325SOL     OW27966  12.264  14.106   1.883  0.3861  0.0971 -0.2542
 3325SOL    HW127967  12.192  14.083   1.824  0.5225 -0.1236 -0.3352
 3325SOL    HW227968  12.291  14.193   1.854 -0.0447  0.3084 -0.0276
 3326SOL     OW27969   7.963  12.066  11.285  0.1958  0.2902  0.0303
 3326SOL    HW127970   7.951  12.122  11.209 -2.5460  0.6248  0.6257
 3326SOL    HW227971   8.008  12.122  11.349 -0.7453  1.1970 -0.0763
 3327SOL     OW27972  10.134   4.107   7.063  0.3161 -0.3735 -0.2933
 3327SOL    HW127973  10.052   4.105   7.112  1.3941 -1.9821  1.5906
 3327SOL    HW227974  10.109   4.082   6.974 -0.9889 -3.8817  0.8689
 3328SOL     OW27975   8.174   3.080  10.973  0.5201 -0.1322 -0.8966
 3328SOL    HW127976   8.149   2.992  10.944  0.2917 -0.0712 -0.8843
 3328SOL    HW227977   8.238   3.065  11.042 -0.0056 -0.3031 -0.4351
 3329SOL     OW27978  13.904   9.391   3.921 -0.5741  0.1730  0.1026
 3329SOL    HW127979  13.892   9.419   3.830  0.0499  0.6045  0.1453
 3329SOL    HW227980  13.881   9.468   3.973  2.8551  1.3186  0.1680
 3330SOL     OW27981   3.843   5.698   6.242 -0.0994 -0.5438 -0.5234
 3330SOL    HW127982   3.880   5.621   6.199  0.0234  0.3020 -1.9940
 3330SOL    HW227983   3.919   5.747   6.274 -0.0871 -0.2551 -0.9851
 3331SOL     OW27984  12.446   3.421   1.287 -0.3375 -0.0757 -0.5571
 3331SOL    HW127985  12.512   3.372   1.337 -0.3811 -0.3167 -0.7353
 3331SOL    HW227986  12.494   3.456   1.212 -0.3720 -0.0968 -0.5884
 3332SOL     OW27987   3.857  12.999  12.084  0.5519  0.4273 -0.0578
 3332SOL    HW127988   3.785  13.047  12.125 -1.0729 -0.6309 -1.4716
 3332SOL    HW227989   3.926  13.063  12.073 -0.5808  1.7816  0.3907
 3333SOL     OW27990   2.343  10.747   6.815 -0.1870  0.2960 -0.4157
 3333SOL    HW127991   2.408  10.701   6.761  0.2125  2.1795 -1.6229
 3333SOL    HW227992   2.363  10.719   6.904  0.4801 -1.3033 -1.0137
 3334SOL     OW27993   3.036   9.737   5.023  0.2345 -0.2659 -0.0924
 3334SOL    HW127994   3.104   9.799   4.998  0.3933 -0.1468  0.6282
 3334SOL    HW227995   3.064   9.653   4.985 -0.1942  0.1775 -1.4320
 3335SOL     OW27996   0.002   8.226  11.142  0.6635 -0.2467  0.2148
 3335SOL    HW127997  -0.067   8.280  11.103  0.2100 -2.1790 -1.8674
 3335SOL    HW227998  -0.024   8.216  11.233 -1.4681 -0.3550 -0.3453
 3336SOL     OW27999   2.012   4.164   0.485 -0.7891 -0.3709 -0.1302
 3336SOL    HW128000   1.951   4.208   0.545 -1.2512  1.8774 -2.1115
 3336SOL    HW228001   2.080   4.129   0.542 -1.8365  0.6014  1.8203
 3337SOL     OW28002  12.699   4.954   2.601  0.2919 -0.0815 -0.7221
 3337SOL    HW128003  12.607   4.962   2.574  0.0002 -2.3136 -0.6549
 3337SOL    HW228004  12.718   5.035   2.647 -1.6050  0.4960 -0.8540
 3338SOL     OW28005   9.742   3.351   9.574  0.3781 -0.0949  0.2384
 3338SOL    HW128006   9.732   3.447   9.572  0.7610 -0.0040  1.7999
 3338SOL    HW228007   9.791   3.331   9.494  0.4589  1.0261 -0.0192
 3339SOL     OW28008  10.672   8.347  11.359 -0.6079  1.0302  0.0725
 3339SOL    HW128009  10.615   8.423  11.370 -1.2538  0.6213 -0.3415
 3339SOL    HW228010  10.724   8.367  11.281 -0.3446  1.3108  0.3211
 3340SOL     OW28011   8.503   0.257   8.385 -0.1524 -0.8686  0.0421
 3340SOL    HW128012   8.568   0.324   8.364  0.4809 -1.5664 -0.2908
 3340SOL    HW228013   8.537   0.177   8.345 -0.4638 -1.5840  1.1435
 3341SOL     OW28014  11.212   8.639  13.946 -0.1151 -0.0866 -0.4897
 3341SOL    HW128015  11.135   8.696  13.949  0.7780  1.1184  0.6277
 3341SOL    HW228016  11.276   8.687  13.894 -0.1139 -1.1055 -1.4613
 3342SOL     OW28017   3.450   2.116   1.490  0.4798 -0.0136  0.1231
 3342SOL    HW128018   3.503   2.193   1.511 -0.7395  0.9525 -0.1838
 3342SOL    HW228019   3.442   2.119   1.395  0.3393 -0.4794  0.1193
 3343SOL     OW28020  13.670   2.812   8.852 -1.0954  0.0999  0.0708
 3343SOL    HW128021  13.728   2.808   8.776  0.7217  2.5300  1.1794
 3343SOL    HW228022  13.702   2.745   8.911 -2.1023 -1.3508 -0.9676
 3344SOL     OW28023  13.875   3.902   4.072 -0.1041 -0.2052 -0.6775
 3344SOL    HW128024  13.946   3.931   4.130  0.8512 -0.3438 -1.7423
 3344SOL    HW228025  13.796   3.939   4.111  0.1047 -2.4035  2.1646
 3345SOL     OW28026   6.730   7.635   9.778 -0.3126  0.4547 -0.0158
 3345SOL    HW128027   6.735   7.556   9.833  2.7436  0.2533 -0.3716
 3345SOL    HW228028   6.700   7.603   9.693  1.1415 -0.4299 -0.2271
 3346SOL     OW28029   3.027   7.042   0.471  0.4154  0.1243 -0.2728
 3346SOL    HW128030   2.970   6.966   0.456 -0.0447  0.6557 -1.3913
 3346SOL    HW228031   3.053   7.070   0.383 -1.6160  2.8653 -0.1684
 3347SOL     OW28032  14.070   0.800   7.843  0.5644  0.0906 -0.0309
 3347SOL    HW128033  14.149   0.809   7.789  0.3282 -2.4527 -0.9273
 3347SOL    HW228034  14.000   0.785   7.780 -0.6924  2.3056  0.7670
 3348SOL     OW28035   8.479   3.459   6.836  0.0808 -0.0404 -0.4302
 3348SOL    HW128036   8.550   3.397   6.853 -0.2769 -0.6095 -0.9491
 3348SOL    HW228037   8.404   3.404   6.814 -0.3056  0.5748 -0.6827
 3349SOL     OW28038   3.374   2.115   2.117  0.5363  0.0849  0.2200
 3349SOL    HW128039   3.424   2.149   2.191  0.4062 -1.9177  1.2959
 3349SOL    HW228040   3.403   2.024   2.108 -3.2323 -1.4076  1.3092
 3350SOL     OW28041   1.816   1.490   0.110  0.1076 -0.1244 -0.0435
 3350SOL    HW128042   1.809   1.550   0.036 -0.8878  0.6714  0.6623
 3350SOL    HW228043   1.843   1.545   0.183  0.1925 -0.7222  0.3852
 3351SOL     OW28044  12.696   5.082   1.873  0.1237  0.1499  0.5280
 3351SOL    HW128045  12.611   5.047   1.899 -0.1824 -0.1870 -0.8071
 3351SOL    HW228046  12.754   5.066   1.947 -0.8003 -0.3037  1.1592
 3352SOL     OW28047   0.892  11.020  12.906 -0.2729  0.1274 -0.4599
 3352SOL    HW128048   0.825  11.013  12.838 -0.0483 -0.7954 -0.6012
 3352SOL    HW228049   0.975  11.025  12.859 -0.1529 -0.0005 -0.2642
 3353SOL     OW28050   7.905  14.096  11.283  0.1863  0.7355 -0.2084
 3353SOL    HW128051   7.900  14.040  11.360  0.3942  1.1112  0.0835
 3353SOL    HW228052   7.927  14.182  11.318  2.2989  0.5210 -0.8282
 3354SOL     OW28053   8.959  12.949   0.543 -0.8258 -0.1572  0.2878
 3354SOL    HW128054   8.932  12.949   0.451 -0.2031 -0.6381  0.0991
 3354SOL    HW228055   9.043  12.995   0.543  0.3996 -2.2916  0.2234
 3355SOL     OW28056   6.085   2.541   7.684 -0.0548  0.2972  0.9834
 3355SOL    HW128057   6.009   2.566   7.737 -1.2742  0.0012 -0.5471
 3355SOL    HW228058   6.085   2.604   7.612  1.0599  0.1811  0.8654
 3356SOL     OW28059   2.593   0.038  12.372 -0.6376  0.2530 -0.4246
 3356SOL    HW128060   2.596   0.091  12.451 -1.3419 -1.2087  0.6221
 3356SOL    HW228061   2.673  -0.013  12.373 -0.3506  0.6788 -0.9960
 3357SOL     OW28062   2.555   5.257   3.090 -0.1978  0.2769 -0.2195
 3357SOL    HW128063   2.629   5.219   3.042  0.4654  1.3953 -0.1060
 3357SOL    HW228064   2.481   5.251   3.028  0.8991  2.7457 -1.8996
 3358SOL     OW28065  13.845   6.504   6.595  0.2265 -0.3262  0.0350
 3358SOL    HW128066  13.842   6.583   6.649  1.4488 -0.9760  1.1125
 3358SOL    HW228067  13.939   6.488   6.582 -0.0282 -0.9214 -1.2007
 3359SOL     OW28068   2.094   7.517  13.336  0.1237  0.2791 -0.4206
 3359SOL    HW128069   2.111   7.527  13.430  0.1676 -2.3764 -0.0619
 3359SOL    HW228070   2.021   7.455  13.331 -0.7601  1.3739 -2.1644
 3360SOL     OW28071   2.877   7.078  12.566  0.5192 -0.3958 -0.1745
 3360SOL    HW128072   2.910   7.164  12.540  0.7721 -0.0576  1.1892
 3360SOL    HW228073   2.829   7.046  12.489  0.3518  0.9907 -0.6641
 3361SOL     OW28074   0.021   4.032  11.731  0.0760 -0.6260 -0.3392
 3361SOL    HW128075  -0.074   4.033  11.744  0.0821 -1.2241 -0.2001
 3361SOL    HW228076   0.036   3.959  11.671  0.4400 -0.4712 -0.4405
 3362SOL     OW28077   8.288  11.625   3.461  0.3314 -0.6296  0.4623
 3362SOL    HW128078   8.221  11.588   3.519  0.1877 -0.5482  0.3509
 3362SOL    HW228079   8.339  11.683   3.518 -0.4286  0.2257  0.3101
 3363SOL     OW28080  11.201  12.557  12.365  0.2304  0.2671 -0.0049
 3363SOL    HW128081  11.209  12.641  12.319 -1.2337 -0.1563 -1.1245
 3363SOL    HW228082  11.109  12.532  12.354  0.5158 -1.2477  0.7229
 3364SOL     OW28083  13.214   0.495  12.926 -0.3661 -0.3652 -0.4824
 3364SOL    HW128084  13.292   0.526  12.973 -1.3031 -1.2642  1.8160
 3364SOL    HW228085  13.248   0.439  12.856  1.0567 -0.4890  0.2768
 3365SOL     OW28086  11.760   7.016   0.591 -0.0873 -0.0134 -0.3420
 3365SOL    HW128087  11.678   7.056   0.619  1.6367  2.2350  1.9177
 3365SOL    HW228088  11.779   6.950   0.658  0.9841  1.0591  0.4696
 3366SOL     OW28089  10.665   4.734   7.945 -0.1710 -0.5106 -0.5901
 3366SOL    HW128090  10.569   4.726   7.941 -0.2397  0.5128 -3.4392
 3366SOL    HW228091  10.681   4.809   8.001 -0.9044 -1.7482  1.3604
 3367SOL     OW28092   7.363   0.358   5.839 -0.1060 -0.4548 -0.4177
 3367SOL    HW128093   7.446   0.326   5.804 -0.4287 -1.2351 -0.4866
 3367SOL    HW228094   7.366   0.337   5.933  0.8638  1.8534  0.1529
 3368SOL     OW28095  10.917   7.478   8.132  0.4265 -0.3631 -0.3958
 3368SOL    HW128096  10.893   7.392   8.097  1.5258 -0.7684 -0.1788
 3368SOL    HW228097  10.907   7.469   8.227  1.8165 -0.6787 -0.2616
 3369SOL     OW28098   0.121   1.783  11.993  0.0599  0.0592  0.3373
 3369SOL    HW128099   0.036   1.815  11.965 -0.0127 -0.0646  0.4182
 3369SOL    HW228100   0.117   1.688  11.978  0.0267 -0.0063  0.7600
 3370SOL     OW28101   5.602   3.056   3.227 -0.0982 -0.4565  0.1701
 3370SOL    HW128102   5.663   3.013   3.167 -0.7660  0.3786 -1.1388
 3370SOL    HW228103   5.658   3.093   3.296  0.6683 -1.4816  0.1257
 3371SOL     OW28104  10.393   9.725   2.275 -0.6815  0.2659 -0.2903
 3371SOL    HW128105  10.355   9.769   2.350 -0.6857 -0.2282  0.0044
 3371SOL    HW228106  10.481   9.762   2.267 -0.7593  0.4742 -0.1756
 3372SOL     OW28107   3.147   2.146   8.113 -0.3800 -0.1537 -0.2640
 3372SOL    HW128108   3.104   2.091   8.048  1.2429 -1.6615 -0.1407
 3372SOL    HW228109   3.239   2.144   8.088  0.1295  0.0392  1.4947
 3373SOL     OW28110   9.253   1.733  13.959 -0.6387  0.0655  0.5646
 3373SOL    HW128111   9.207   1.816  13.952  0.3022  0.4897 -1.4277
 3373SOL    HW228112   9.204   1.674  13.902 -1.1251 -0.6906  1.7325
 3374SOL     OW28113   5.242   7.825   9.784 -0.0363  0.0622  0.1383
 3374SOL    HW128114   5.260   7.919   9.780  0.9517 -0.0054  1.9175
 3374SOL    HW228115   5.153   7.820   9.821 -0.3454  0.2812 -0.5512
 3375SOL     OW28116   5.383   4.656   4.872  0.4636 -0.5315 -0.0012
 3375SOL    HW128117   5.307   4.695   4.829  0.9644  0.5729  0.0955
 3375SOL    HW228118   5.384   4.694   4.959  2.1340  0.8737 -0.5720
 3376SOL     OW28119   7.571   9.195  13.074  0.6131 -0.0582 -0.0595
 3376SOL    HW128120   7.533   9.134  13.010 -0.6776  0.7181 -0.0647
 3376SOL    HW228121   7.521   9.180  13.154  2.6170 -1.4503  1.0085
 3377SOL     OW28122  12.170   8.868   9.994  0.6095  0.4104  0.2005
 3377SOL    HW128123  12.248   8.812   9.994  0.6926  0.5182  0.7218
 3377SOL    HW228124  12.203   8.956   9.974  0.9262  0.8266  2.3008
 3378SOL     OW28125  12.305   6.079   9.604  0.0928  0.2408  0.0329
 3378SOL    HW128126  12.249   6.001   9.605 -0.1540  0.2710 -2.7043
 3378SOL    HW228127  12.373   6.061   9.669 -2.5731 -0.1263  2.9190
 3379SOL     OW28128   1.098   7.033   5.596 -0.4358 -0.6037 -0.2019
 3379SOL    HW128129   1.085   7.126   5.579  0.2188 -0.2221  1.2651
 3379SOL    HW228130   1.012   7.003   5.626 -0.4111 -0.2595  0.2208
 3380SOL     OW28131  12.033   6.782  13.808  0.0590  0.1424 -0.1178
 3380SOL    HW128132  12.122   6.813  13.825  1.0653 -2.4793 -0.1793
 3380SOL    HW228133  11.978   6.831  13.869  1.9092 -0.0927  1.8338
 3381SOL     OW28134   4.779   2.629  11.167 -0.8170  0.1060 -0.3732
 3381SOL    HW128135   4.725   2.640  11.245 -0.2553 -0.7851  0.1443
 3381SOL    HW228136   4.788   2.718  11.132  0.2281  0.7494  1.4370
 3382SOL     OW28137   6.304   0.541   9.438 -0.3225  0.6205  0.2567
 3382SOL    HW128138   6.310   0.570   9.529  1.0180 -0.9277  0.7278
 3382SOL    HW228139   6.212   0.553   9.414 -0.8323  0.4720  2.0229
 3383SOL     OW28140   1.858   7.345  13.405  0.6029  0.1299  0.8091
 3383SOL    HW128141   1.802   7.316  13.333  1.8408 -0.7493  0.1660
 3383SOL    HW228142   1.809   7.416  13.447 -0.5534  0.0177 -0.3077
 3384SOL     OW28143   8.675  11.138  12.028 -0.0835 -0.4791 -0.5898
 3384SOL    HW128144   8.715  11.056  12.001  0.7763  0.4114 -2.1644
 3384SOL    HW228145   8.581  11.122  12.020 -0.0260 -1.9070  1.0565
 3385SOL     OW28146  10.541   0.320   8.602  0.1272 -0.0083 -0.1984
 3385SOL    HW128147  10.532   0.360   8.689 -0.0759 -0.7081  0.1126
 3385SOL    HW228148  10.485   0.373   8.545 -0.3168  0.0128  0.2499
 3386SOL     OW28149   1.277  11.331   8.528 -0.4276 -0.5233  0.0211
 3386SOL    HW128150   1.283  11.398   8.595  0.7091 -1.0948  0.5284
 3386SOL    HW228151   1.300  11.376   8.447  0.1413 -0.2406  0.3286
 3387SOL     OW28152   7.633   1.248   0.598 -0.1109 -0.4079 -0.1921
 3387SOL    HW128153   7.606   1.323   0.545  0.2102  0.2933  0.6134
 3387SOL    HW228154   7.681   1.191   0.537 -0.2604  0.1010 -0.7854
 3388SOL     OW28155   9.298   5.662   7.896  0.0520 -0.0485  0.3087
 3388SOL    HW128156   9.245   5.731   7.856 -0.5223 -0.4052  0.4470
 3388SOL    HW228157   9.380   5.706   7.919  0.9915 -0.1471 -2.5134
 3389SOL     OW28158   8.384  10.890  13.398 -0.1465  0.0903  0.5845
 3389SOL    HW128159   8.299  10.849  13.381  0.8215 -1.5917 -0.5380
 3389SOL    HW228160   8.401  10.945  13.322 -0.5890  1.0939  1.2006
 3390SOL     OW28161   2.181   8.060   2.180 -0.0062  0.3983 -0.0005
 3390SOL    HW128162   2.191   8.087   2.088  0.2569  0.4421  0.0392
 3390SOL    HW228163   2.112   7.994   2.178  1.4895 -1.2423 -0.5732
 3391SOL     OW28164   8.362   9.524  12.354 -0.0261 -0.3923 -0.2585
 3391SOL    HW128165   8.421   9.520  12.429  0.0250  1.2946 -0.1672
 3391SOL    HW228166   8.275   9.511  12.391 -0.0355  0.7635  0.1772
 3392SOL     OW28167   7.610   2.903   4.600 -0.4363  0.3207  0.0598
 3392SOL    HW128168   7.699   2.901   4.636 -1.1475 -0.3100  1.9343
 3392SOL    HW228169   7.610   2.977   4.540  1.2282  0.6088  0.3475
 3393SOL     OW28170  11.550   1.487   6.617  0.3072 -0.2433  1.0406
 3393SOL    HW128171  11.459   1.472   6.643 -0.0792 -2.3396 -1.1486
 3393SOL    HW228172  11.579   1.403   6.582  1.6891  1.4359 -2.2537
 3394SOL     OW28173   8.837   1.803   8.787  0.3996 -0.0194 -0.2604
 3394SOL    HW128174   8.921   1.793   8.744  0.5203 -0.7952  0.1465
 3394SOL    HW228175   8.858   1.831   8.876  0.2220 -0.2333 -0.1513
 3395SOL     OW28176  10.020  13.780   0.219 -0.7952 -0.0432 -0.1126
 3395SOL    HW128177  10.086  13.719   0.250 -0.8005  0.9376  1.9897
 3395SOL    HW228178  10.059  13.867   0.232 -1.6432  0.4787 -0.9291
 3396SOL     OW28179   8.917   1.858   1.569  0.3971 -0.5186  0.2679
 3396SOL    HW128180   8.928   1.925   1.502  1.1943  0.9567  1.7938
 3396SOL    HW228181   8.952   1.778   1.529 -2.0784 -0.4914 -2.1845
 3397SOL     OW28182   3.920  13.339   7.685  0.2476 -0.2524 -0.0943
 3397SOL    HW128183   3.924  13.300   7.773 -0.5124 -0.9586 -0.3574
 3397SOL    HW228184   3.924  13.264   7.625 -1.1175  0.0588 -0.6137
 3398SOL     OW28185   3.304   5.249  11.212 -0.5517  0.2376 -0.1982
 3398SOL    HW128186   3.347   5.164  11.203 -0.8747 -0.0374  0.6552
 3398SOL    HW228187   3.271   5.249  11.302 -0.4496  1.3207 -0.1466
 3399SOL     OW28188   3.170   8.247   9.208  0.4555 -0.1023 -0.1202
 3399SOL    HW128189   3.183   8.229   9.115 -0.9013  0.7171 -0.5026
 3399SOL    HW228190   3.254   8.225   9.249  0.4127 -2.5717 -1.1992
 3400SOL     OW28191   9.375   1.386   6.666 -0.2639  0.1941 -0.1384
 3400SOL    HW128192   9.410   1.322   6.605 -1.3299 -1.1819  0.6351
 3400SOL    HW228193   9.426   1.373   6.746 -0.1563  0.6630 -0.1265
 3401SOL     OW28194  12.800   6.485   7.454 -0.8778 -0.0035 -0.1221
 3401SOL    HW128195  12.759   6.406   7.419  0.3543  0.4246 -2.7292
 3401SOL    HW228196  12.752   6.557   7.412  0.3755  0.5433 -0.6733
 3402SOL     OW28197   5.237  10.898   9.945  0.0268  0.2760  0.4318
 3402SOL    HW128198   5.287  10.959  10.000 -0.1903 -0.5131  1.5484
 3402SOL    HW228199   5.230  10.819   9.999 -0.6992 -0.3218 -0.5226
 3403SOL     OW28200   3.936  11.497  12.821  0.1787  0.0481 -0.3330
 3403SOL    HW128201   3.909  11.416  12.863 -1.3939 -0.1218 -1.5755
 3403SOL    HW228202   4.020  11.519  12.862 -0.4698 -0.9665  1.6438
 3404SOL     OW28203   0.356   7.518  10.997  0.4351 -0.0050 -0.3734
 3404SOL    HW128204   0.296   7.592  11.004 -1.5626 -1.6475  1.1090
 3404SOL    HW228205   0.334   7.476  10.914  2.1930  1.4698 -1.6682
 3405SOL     OW28206   4.272   8.149   8.811  0.5476 -0.3210  0.3603
 3405SOL    HW128207   4.347   8.104   8.850 -0.0186 -0.1261  1.7328
 3405SOL    HW228208   4.295   8.241   8.814  1.0110 -0.3866 -0.9179
 3406SOL     OW28209   8.743  13.734   4.112 -0.0581 -0.1892 -0.0013
 3406SOL    HW128210   8.647  13.737   4.111 -0.1474 -1.3302 -2.3720
 3406SOL    HW228211   8.765  13.710   4.202 -2.0452 -0.7145  0.4004
 3407SOL     OW28212   0.660   7.648  10.757 -0.3037  0.5732  0.9512
 3407SOL    HW128213   0.655   7.603  10.673 -1.0841  1.3035  0.5945
 3407SOL    HW228214   0.738   7.704  10.750  0.7985 -0.8462  1.4820
 3408SOL     OW28215   1.482   2.202  13.845 -0.6585 -0.1875  0.0605
 3408SOL    HW128216   1.567   2.200  13.890 -0.2330  1.0804 -0.6579
 3408SOL    HW228217   1.468   2.111  13.817 -0.1920 -0.6851  1.3611
 3409SOL     OW28218   4.323  10.924   6.051  0.5220  0.5379  0.0226
 3409SOL    HW128219   4.316  11.011   6.014  0.1897  0.3561 -0.3454
 3409SOL    HW228220   4.283  10.866   5.986  0.4494  0.1495  0.4034
 3410SOL     OW28221   7.696   5.219  13.147 -0.2011 -0.4593  0.7493
 3410SOL    HW128222   7.791   5.211  13.158  0.1125  0.7941 -0.7212
 3410SOL    HW228223   7.675   5.303  13.188 -0.1297  0.7796 -1.5752
 3411SOL     OW28224  10.185   0.630   8.241  0.2793 -0.3989  0.2266
 3411SOL    HW128225  10.248   0.595   8.178 -0.1727 -2.3252  0.7900
 3411SOL    HW228226  10.104   0.582   8.224 -0.7432  1.2157  0.2828
 3412SOL     OW28227  12.996   4.823  12.077 -0.0656 -0.5261  0.4533
 3412SOL    HW128228  12.945   4.889  12.029 -0.0238  0.1672  1.3484
 3412SOL    HW228229  13.059   4.791  12.012 -0.0574  0.3433  0.0113
 3413SOL     OW28230   9.998  11.789   8.336 -0.5257  0.3532 -0.0281
 3413SOL    HW128231  10.038  11.714   8.291 -0.2723  0.0769  0.6563
 3413SOL    HW228232   9.904  11.776   8.326 -0.4840 -0.1019  0.1704
 3414SOL     OW28233  13.720   6.071  10.221 -0.2274 -0.1426  0.3626
 3414SOL    HW128234  13.711   6.012  10.147  0.8673 -1.8230  1.4989
 3414SOL    HW228235  13.634   6.114  10.228 -0.6808 -0.7373 -1.2073
 3415SOL     OW28236   6.627  12.763   0.484  0.0295  0.3486 -0.0922
 3415SOL    HW128237   6.621  12.727   0.572  1.9200 -1.3257 -0.5617
 3415SOL    HW228238   6.617  12.687   0.426  1.3564  0.9895 -1.2270
 3416SOL     OW28239   3.403  11.788   0.175 -0.0307  0.2214 -0.1089
 3416SOL    HW128240   3.430  11.702   0.145  1.2423  0.5359  0.0965
 3416SOL    HW228241   3.313  11.775   0.207  0.3958 -1.1780  0.5984
 3417SOL     OW28242  10.694  13.145  11.030  0.4672  0.1862  0.1271
 3417SOL    HW128243  10.736  13.145  10.945 -0.3167  0.6548 -0.2723
 3417SOL    HW228244  10.685  13.052  11.052  1.3391  0.0768  0.0505
 3418SOL     OW28245  12.030   2.154   9.897  0.3503 -0.0301  0.0061
 3418SOL    HW128246  12.123   2.180   9.899  0.5134 -0.5655 -0.4219
 3418SOL    HW228247  12.018   2.104   9.977  0.5610 -0.3848 -0.1814
 3419SOL     OW28248   1.677   7.195   7.050 -0.4631  0.0532  0.2991
 3419SOL    HW128249   1.613   7.129   7.023 -1.4707  0.4984  1.5089
 3419SOL    HW228250   1.631   7.278   7.040  0.9555  0.6851 -1.6927
 3420SOL     OW28251   2.862  10.897   4.007 -0.2297  0.1924  0.1080
 3420SOL    HW128252   2.916  10.962   4.052  0.4424 -0.3267  0.0767
 3420SOL    HW228253   2.854  10.825   4.070  0.3014 -0.3277 -0.4036
 3421SOL     OW28254  13.505  13.118   0.760  0.4124 -0.5660 -0.1237
 3421SOL    HW128255  13.500  13.203   0.804  1.1215  1.4439 -3.4839
 3421SOL    HW228256  13.419  13.108   0.719  1.0947 -0.1480 -1.7571
 3422SOL     OW28257  11.511   2.171  12.863 -0.2145  0.4186  0.0508
 3422SOL    HW128258  11.519   2.258  12.901 -0.7599  0.1115  0.9000
 3422SOL    HW228259  11.418   2.148  12.874 -0.0819 -0.2590 -0.1829
 3423SOL     OW28260   4.627   9.656   2.276 -0.5823 -0.0511  0.3260
 3423SOL    HW128261   4.543   9.682   2.239 -0.8790 -0.7233  0.5255
 3423SOL    HW228262   4.623   9.561   2.283  0.2600 -0.1068  0.1803
 3424SOL     OW28263  10.758  11.012   6.161  0.2449  0.8314 -0.0565
 3424SOL    HW128264  10.665  11.004   6.138 -0.8086  2.0451  3.1476
 3424SOL    HW228265  10.784  10.923   6.186 -0.2968  0.6327 -0.1847
 3425SOL     OW28266   8.413   8.664   3.452  0.0185  0.1818 -0.2272
 3425SOL    HW128267   8.452   8.714   3.524 -1.1970  0.3033  0.3848
 3425SOL    HW228268   8.324   8.644   3.483 -0.6231  0.4402 -1.7870
 3426SOL     OW28269  12.273   9.660  10.953 -0.1113 -0.0599 -0.0639
 3426SOL    HW128270  12.178   9.670  10.947 -0.0651  2.3050  1.7116
 3426SOL    HW228271  12.299   9.721  11.022  2.6633 -1.0066 -0.1574
 3427SOL     OW28272   9.642   7.275   9.858  0.0673  0.3916 -0.1273
 3427SOL    HW128273   9.623   7.184   9.838  1.9296 -0.1975  0.6049
 3427SOL    HW228274   9.592   7.294   9.937 -0.9366  0.2585 -0.7170
 3428SOL     OW28275   1.864   7.498   0.120  0.2510  0.2095  0.5642
 3428SOL    HW128276   1.799   7.434   0.088  1.1698 -1.0011  1.0694
 3428SOL    HW228277   1.832   7.523   0.206 -1.1052  1.8836 -0.3706
 3429SOL     OW28278  14.059  11.046  10.957  0.8117 -0.2216 -0.0779
 3429SOL    HW128279  13.979  11.066  11.007  0.5829  0.9919 -0.8946
 3429SOL    HW228280  14.127  11.099  10.999  1.2627 -1.4296  0.7618
 3430SOL     OW28281   0.663   4.178   4.512  0.1128  0.6591  0.5783
 3430SOL    HW128282   0.682   4.183   4.419  1.4757  1.2506  0.8560
 3430SOL    HW228283   0.569   4.188   4.519 -0.1174 -0.3405 -0.7943
 3431SOL     OW28284  10.724   0.740   1.798 -0.3904 -0.3940 -0.7337
 3431SOL    HW128285  10.733   0.714   1.706  0.1988  1.0572 -1.1211
 3431SOL    HW228286  10.785   0.814   1.808 -0.5349 -0.4459  0.7953
 3432SOL     OW28287   5.580  10.291   2.513 -0.2991 -0.1454 -0.0107
 3432SOL    HW128288   5.643  10.218   2.506  0.6605  0.7420 -0.9551
 3432SOL    HW228289   5.555  10.309   2.423  0.4952  1.5375  0.0727
 3433SOL     OW28290  10.117   8.566   4.114 -0.2300 -0.8799 -0.1456
 3433SOL    HW128291  10.160   8.535   4.035  0.9491 -1.0046  0.5119
 3433SOL    HW228292  10.175   8.537   4.185 -0.4786  0.5076  0.6591
 3434SOL     OW28293   0.207  14.002  12.275  0.1007  0.1703 -0.0339
 3434SOL    HW128294   0.249  13.929  12.229 -0.3239 -1.2069  1.6591
 3434SOL    HW228295   0.209  14.074  12.212  0.8824 -1.1734 -1.6354
 3435SOL     OW28296   4.744   1.221  12.179  0.2591 -0.0291  0.3455
 3435SOL    HW128297   4.763   1.168  12.256 -0.1558 -0.8646 -0.1087
 3435SOL    HW228298   4.654   1.199  12.156  0.7581 -0.7456 -1.0857
 3436SOL     OW28299   1.622   2.206  13.122  0.2456  0.2879 -0.4389
 3436SOL    HW128300   1.536   2.172  13.102  0.0938 -1.0211  2.0307
 3436SOL    HW228301   1.614   2.242  13.211  1.8793  1.4940 -0.7146
 3437SOL     OW28302  11.535   7.023   0.764 -0.2184  0.5527 -0.0557
 3437SOL    HW128303  11.590   7.069   0.828 -0.7276  0.4273  0.4773
 3437SOL    HW228304  11.490   6.956   0.815 -0.6400  0.4570 -0.5497
 3438SOL     OW28305   6.165   9.041   6.838  0.3576  0.1786  0.1222
 3438SOL    HW128306   6.202   9.101   6.773  0.3950  1.0096  0.9002
 3438SOL    HW228307   6.238   9.021   6.896  0.6950 -1.6759 -0.8637
 3439SOL     OW28308  13.697   9.499   6.512  0.1100  0.0272 -0.5034
 3439SOL    HW128309  13.743   9.495   6.429 -0.3257 -0.3938 -0.7346
 3439SOL    HW228310  13.643   9.578   6.507  2.3801  1.7472  0.6340
 3440SOL     OW28311   4.299   0.706   6.388 -0.0140  0.4229  0.0753
 3440SOL    HW128312   4.326   0.778   6.331 -0.4559  0.8315  0.3767
 3440SOL    HW228313   4.230   0.661   6.340  0.2358  0.2212 -0.0967
 3441SOL     OW28314   9.812   5.183  14.078 -0.2662 -0.2280 -0.5720
 3441SOL    HW128315   9.831   5.275  14.057  0.7672 -0.3575 -0.2608
 3441SOL    HW228316   9.883   5.134  14.038 -0.2294 -0.7913  0.1601
 3442SOL     OW28317  11.459  12.676  13.987  0.0403 -0.0538  0.1421
 3442SOL    HW128318  11.523  12.716  14.045 -0.7559  0.6708  0.5366
 3442SOL    HW228319  11.379  12.671  14.038 -0.3113 -0.6883 -0.4400
 3443SOL     OW28320  12.062   5.712   3.616  0.0376  0.7390  0.5822
 3443SOL    HW128321  12.136   5.724   3.555 -0.4199 -1.9018 -0.6261
 3443SOL    HW228322  11.990   5.682   3.561 -1.2638  0.9778  2.0862
 3444SOL     OW28323   5.544   2.757  14.057  0.2891  0.3370 -0.8632
 3444SOL    HW128324   5.556   2.681  14.000 -0.2154 -0.1245 -0.3718
 3444SOL    HW228325   5.450   2.757  14.077  0.6627 -0.4120  1.1738
 3445SOL     OW28326  12.197   6.686   8.067  0.4365 -0.3635  0.2788
 3445SOL    HW128327  12.122   6.658   8.015 -1.1168  2.6315  0.7005
 3445SOL    HW228328  12.266   6.702   8.002 -0.6231  0.7760 -0.6231
 3446SOL     OW28329   3.723  12.014   8.607  0.2410 -0.1434 -0.3833
 3446SOL    HW128330   3.684  11.940   8.560  0.6056 -1.0449  0.6786
 3446SOL    HW228331   3.766  12.066   8.539  2.6122 -2.5519 -0.9190
 3447SOL     OW28332   3.928   5.958   2.782 -0.2339 -0.8121 -0.5435
 3447SOL    HW128333   3.870   6.034   2.783 -1.7643 -1.9354  1.1404
 3447SOL    HW228334   3.968   5.957   2.869 -0.9255 -2.3952 -0.1980
 3448SOL     OW28335   4.437   2.855   6.617 -0.2944 -0.2821  0.5693
 3448SOL    HW128336   4.353   2.831   6.579 -0.0590 -2.2542  1.1822
 3448SOL    HW228337   4.436   2.815   6.704  1.0260  0.1767  0.8110
 3449SOL     OW28338   6.027   1.343   7.726  0.3437 -0.5140 -0.4337
 3449SOL    HW128339   6.012   1.251   7.746 -1.6933 -0.2742 -0.6878
 3449SOL    HW228340   5.982   1.390   7.796 -1.3301  0.2766 -1.9689
 3450SOL     OW28341   7.676   3.046  13.786  0.4159 -0.3590  0.0200
 3450SOL    HW128342   7.685   3.058  13.880  0.3686 -1.5075  0.1852
 3450SOL    HW228343   7.596   2.994  13.775  2.1628 -3.1740 -0.3677
 3451SOL     OW28344  12.913   0.513  10.568  0.3868 -0.0507 -0.3993
 3451SOL    HW128345  12.879   0.519  10.657 -1.2003  1.3359 -1.0414
 3451SOL    HW228346  12.977   0.583  10.562  0.6766 -0.3030 -0.2876
 3452SOL     OW28347   0.631   2.484  12.128  0.1886  0.2904  0.2301
 3452SOL    HW128348   0.556   2.466  12.185  0.0989  0.1225  0.0627
 3452SOL    HW228349   0.648   2.400  12.084 -0.3278  0.6513 -0.6804
 3453SOL     OW28350   5.643   8.757   3.104 -0.1815  0.3862  0.1988
 3453SOL    HW128351   5.581   8.688   3.131  1.3728 -1.5792 -0.9949
 3453SOL    HW228352   5.637   8.822   3.174 -2.7843 -0.2068  0.6561
 3454SOL     OW28353   0.363   0.655   7.521  0.4672 -0.3504  0.3048
 3454SOL    HW128354   0.356   0.568   7.559  0.5101 -0.6564 -0.3842
 3454SOL    HW228355   0.331   0.645   7.431  0.4848  0.3392  0.2149
 3455SOL     OW28356  11.810   3.180  12.895 -0.2732 -0.2706 -0.0837
 3455SOL    HW128357  11.889   3.155  12.942 -1.2295 -1.0023  1.2334
 3455SOL    HW228358  11.812   3.129  12.814  0.0080 -1.2303  0.5113
 3456SOL     OW28359   0.666   1.765  12.892  0.1445  0.0547 -0.4886
 3456SOL    HW128360   0.576   1.741  12.914 -0.1025 -0.0692 -1.6014
 3456SOL    HW228361   0.659   1.808  12.807  1.0880  0.4407 -0.3778
 3457SOL     OW28362   4.350   7.103   9.055 -0.3008 -0.0642  0.1227
 3457SOL    HW128363   4.354   7.052   8.974 -1.2787 -2.8705  1.6751
 3457SOL    HW228364   4.432   7.082   9.099  0.0470  1.1251  0.0564
 3458SOL     OW28365   8.906  13.416   2.873 -0.2658  0.1755  0.3175
 3458SOL    HW128366   8.822  13.462   2.874 -0.9320 -1.0090  0.5787
 3458SOL    HW228367   8.944  13.435   2.959 -1.1116 -0.7462  0.9214
 3459SOL     OW28368   5.296   8.841   6.591 -0.5858  0.2983 -0.4147
 3459SOL    HW128369   5.389   8.862   6.600 -0.4406  0.2426 -1.5851
 3459SOL    HW228370   5.273   8.872   6.504 -1.7168  0.4647 -0.0722
 3460SOL     OW28371   5.258  12.443   4.983 -0.0508  0.1173  0.1815
 3460SOL    HW128372   5.227  12.501   5.053 -0.7001 -0.0527  0.0389
 3460SOL    HW228373   5.268  12.358   5.025 -2.2136 -0.4466 -0.2989
 3461SOL     OW28374   4.711   8.278   2.214  0.1729  0.3021 -0.4207
 3461SOL    HW128375   4.657   8.354   2.236  1.2764  1.1858 -0.7010
 3461SOL    HW228376   4.656   8.202   2.236  0.0652  1.1172  2.5334
 3462SOL     OW28377  11.858   1.412  11.236 -0.7417  0.4736 -0.3185
 3462SOL    HW128378  11.819   1.381  11.318  0.8066  0.4389  0.4494
 3462SOL    HW228379  11.784   1.435  11.181 -1.8324  0.1888  0.9818
 3463SOL     OW28380   6.079   6.768   5.363  0.0583  0.0535  0.3336
 3463SOL    HW128381   6.083   6.791   5.270  0.6218 -0.3827  0.2433
 3463SOL    HW228382   6.024   6.836   5.402 -0.8570 -0.2116 -0.4482
 3464SOL     OW28383   0.104   8.531   4.350  0.5321  0.3754  0.0898
 3464SOL    HW128384   0.115   8.601   4.286  0.0779 -0.3879 -0.8373
 3464SOL    HW228385   0.122   8.451   4.301 -1.0863 -0.3166  0.5923
 3465SOL     OW28386  13.738   1.383  13.063  0.5979  0.6613  0.0562
 3465SOL    HW128387  13.707   1.466  13.027 -2.3838  0.0917  1.1044
 3465SOL    HW228388  13.781   1.407  13.145  0.9437  1.2442 -0.2815
 3466SOL     OW28389   8.738   6.465   5.761  0.5170 -0.1969 -0.2709
 3466SOL    HW128390   8.658   6.518   5.758 -0.3479 -1.4815 -0.8241
 3466SOL    HW228391   8.772   6.469   5.672 -1.7585 -3.7032 -1.5165
 3467SOL     OW28392  13.846   9.009  10.043  0.1342  0.0463  0.0796
 3467SOL    HW128393  13.807   8.992  10.128 -2.8272  2.0646 -0.7052
 3467SOL    HW228394  13.893   9.092  10.055  0.3522 -0.0508 -0.0920
 3468SOL     OW28395  13.370   2.193   0.422  0.1649 -0.3959  0.1281
 3468SOL    HW128396  13.396   2.282   0.442  1.5852 -0.9614  0.9205
 3468SOL    HW228397  13.452   2.148   0.400 -0.2578 -1.9584  1.5717
 3469SOL     OW28398   4.209  10.124  12.465  0.2818  0.6010 -0.6792
 3469SOL    HW128399   4.303  10.136  12.478  0.1971  0.2986  0.2589
 3469SOL    HW228400   4.169  10.165  12.541 -0.1337 -3.1505  1.3641
 3470SOL     OW28401  13.016  11.142   7.464 -0.5808 -0.2419 -0.0762
 3470SOL    HW128402  12.923  11.150   7.485 -0.4356 -0.1457  0.5447
 3470SOL    HW228403  13.060  11.149   7.548 -0.0584 -1.0830 -0.2716
 3471SOL     OW28404   6.665  12.958   1.754  0.0802 -0.5200  0.2267
 3471SOL    HW128405   6.700  12.876   1.718  0.1076  0.0664 -1.1359
 3471SOL    HW228406   6.664  13.018   1.679 -1.5092  0.2322  0.8137
 3472SOL     OW28407   2.359   9.345   4.390 -0.5089  0.2912 -0.0124
 3472SOL    HW128408   2.408   9.311   4.315 -0.2687  0.6765 -0.0311
 3472SOL    HW228409   2.284   9.390   4.351 -0.2777  0.6649 -0.0369
 3473SOL     OW28410   1.374   6.773   5.298  0.0635 -0.8611 -0.2994
 3473SOL    HW128411   1.395   6.866   5.284 -0.0775 -0.9787 -1.3454
 3473SOL    HW228412   1.460   6.731   5.308  0.1237 -0.6020  0.3433
 3474SOL     OW28413   1.895   5.435   2.900 -0.1028  0.4722 -0.2454
 3474SOL    HW128414   1.905   5.464   2.991  0.5753 -2.2156  0.6459
 3474SOL    HW228415   1.958   5.488   2.851  0.0867  1.4280  0.9832
 3475SOL     OW28416  14.045   0.092   1.359 -0.1469  0.6760 -0.6570
 3475SOL    HW128417  14.033   0.050   1.274  0.9606  0.5121 -0.7481
 3475SOL    HW228418  13.957   0.117   1.386 -0.5211  0.6808 -1.8260
 3476SOL     OW28419   4.332  13.476   2.610 -0.4017  0.5236 -0.2577
 3476SOL    HW128420   4.422  13.483   2.641 -0.2769  1.5947 -0.8540
 3476SOL    HW228421   4.331  13.396   2.558  0.2116  0.5295 -0.2845
 3477SOL     OW28422   2.424  13.227   1.294 -0.1266 -0.1150 -0.4077
 3477SOL    HW128423   2.370  13.148   1.283 -0.6275 -0.1005  1.5166
 3477SOL    HW228424   2.514  13.195   1.291 -0.2296 -0.3440 -2.2717
 3478SOL     OW28425  12.635   6.512   4.602  0.4185 -0.1034 -0.1454
 3478SOL    HW128426  12.605   6.471   4.522  0.4185 -0.5690  0.0909
 3478SOL    HW228427  12.623   6.606   4.587 -3.0257 -0.3009  0.6590
 3479SOL     OW28428   9.056   5.551   7.655  0.4834 -0.7823  0.0130
 3479SOL    HW128429   9.095   5.607   7.722  0.0385 -0.0306 -0.3484
 3479SOL    HW228430   9.084   5.463   7.679  1.0877 -0.4280  0.6647
 3480SOL     OW28431   4.550  13.006  13.330 -0.4173  0.0303  0.3481
 3480SOL    HW128432   4.637  13.035  13.359 -0.8010 -1.4348  3.4308
 3480SOL    HW228433   4.568  12.937  13.266  0.7484 -0.7408  1.4552
 3481SOL     OW28434   4.328  14.134   5.837 -0.4166 -0.2410 -0.0157
 3481SOL    HW128435   4.239  14.139   5.872 -0.1746  0.4374  0.5104
 3481SOL    HW228436   4.369  14.216   5.863  0.2346 -0.3675 -0.6218
 3482SOL     OW28437   3.936   7.831   8.816 -0.0807 -0.2913  0.0086
 3482SOL    HW128438   3.902   7.742   8.803 -2.6732  0.7500 -1.1138
 3482SOL    HW228439   3.984   7.827   8.898 -1.6343 -2.3513  0.9093
 3483SOL     OW28440   0.282  10.601  10.172 -0.4694  0.6705 -0.3836
 3483SOL    HW128441   0.348  10.665  10.200  0.4079  0.2392 -1.3672
 3483SOL    HW228442   0.199  10.637  10.202  0.2384  1.0350  1.2589
 3484SOL     OW28443   2.905  13.979   1.100 -0.4026 -0.4567  0.7171
 3484SOL    HW128444   2.989  14.020   1.081 -0.9653 -0.1511 -1.4006
 3484SOL    HW228445   2.905  13.900   1.046 -2.0469  0.3235 -0.5003
 3485SOL     OW28446  12.333   9.036   4.798 -0.5080 -0.5781 -0.9732
 3485SOL    HW128447  12.341   9.081   4.882 -4.0538 -0.0263 -0.7530
 3485SOL    HW228448  12.423   9.022   4.769  0.9811 -2.2331  3.5907
 3486SOL     OW28449  11.653   1.677   2.781 -0.2972 -0.5753  0.6903
 3486SOL    HW128450  11.565   1.652   2.753  0.2372 -1.8747  0.0663
 3486SOL    HW228451  11.709   1.606   2.750  0.7730 -0.5624  2.4428
 3487SOL     OW28452   9.115  11.937   6.046 -0.2039 -0.3790  0.6429
 3487SOL    HW128453   9.180  11.944   5.976 -0.8934  0.1919  0.0375
 3487SOL    HW228454   9.163  11.958   6.126  0.8818 -2.2215  0.5276
 3488SOL     OW28455  13.828  12.449   3.682 -0.4081  0.3455  0.0801
 3488SOL    HW128456  13.858  12.435   3.593 -0.5568 -0.1284  0.1045
 3488SOL    HW228457  13.900  12.496   3.724 -0.0239 -0.0962 -0.0768
 3489SOL     OW28458   8.071  13.650   5.159 -0.7088  0.3111  0.3921
 3489SOL    HW128459   8.005  13.685   5.220 -1.0776 -0.7146  0.5901
 3489SOL    HW228460   8.150  13.639   5.213 -0.1856  1.9910  0.0532
 3490SOL     OW28461   8.361   7.568   2.377 -0.6837 -0.2526 -0.0169
 3490SOL    HW128462   8.363   7.644   2.319 -2.1828  0.5748  0.9519
 3490SOL    HW228463   8.359   7.493   2.317 -1.9038  0.5608 -1.0525
 3491SOL     OW28464  13.235   5.760   4.309 -0.2951 -0.2663 -0.6385
 3491SOL    HW128465  13.215   5.836   4.255  1.1896  0.4200 -0.2804
 3491SOL    HW228466  13.177   5.770   4.385  0.4260  0.9898 -0.2049
 3492SOL     OW28467   1.046  10.310   5.729 -0.5744  0.1973 -0.1035
 3492SOL    HW128468   0.965  10.357   5.710  1.0755  1.9486 -3.7222
 3492SOL    HW228469   1.085  10.359   5.801 -0.9795  1.7049 -0.8678
 3493SOL     OW28470   0.872   4.438  13.783  0.0065  0.7431  0.0449
 3493SOL    HW128471   0.777   4.427  13.789  0.0748 -0.4164 -0.6775
 3493SOL    HW228472   0.907   4.370  13.840  0.4114  1.4884  0.6978
 3494SOL     OW28473   4.742  10.005   2.277  0.4490  0.0760  0.5803
 3494SOL    HW128474   4.803  10.048   2.218 -0.2046 -0.4328 -0.4842
 3494SOL    HW228475   4.751   9.911   2.258 -0.3466 -0.0345  0.7060
 3495SOL     OW28476  13.427   3.009   6.918 -0.0407  0.2257 -0.1696
 3495SOL    HW128477  13.493   2.982   6.982 -0.5641 -2.3826 -0.6457
 3495SOL    HW228478  13.465   3.086   6.875  1.1066  0.9287  1.9759
 3496SOL     OW28479   6.261  11.944  11.653 -0.2366  0.1012  0.3161
 3496SOL    HW128480   6.356  11.952  11.644  0.0343 -2.0729  0.7726
 3496SOL    HW228481   6.236  11.874  11.592 -1.6984  1.2037 -0.4234
 3497SOL     OW28482   1.231   5.471  13.776  0.2148 -0.4032  0.0736
 3497SOL    HW128483   1.318   5.476  13.817 -0.1717  1.8370  0.7811
 3497SOL    HW228484   1.171   5.468  13.850 -0.3845  0.7695 -0.3351
 3498SOL     OW28485   0.851  11.304   4.156 -0.3863 -0.3511 -0.0865
 3498SOL    HW128486   0.806  11.367   4.100  1.3778 -0.2098 -1.4535
 3498SOL    HW228487   0.886  11.357   4.228 -0.1279 -0.0013 -0.4657
 3499SOL     OW28488  13.387  11.866   1.415 -0.2454  0.6870 -0.5842
 3499SOL    HW128489  13.467  11.912   1.442  0.4242  1.1799 -3.1536
 3499SOL    HW228490  13.406  11.835   1.327 -2.2342 -0.8937 -0.5204
 3500SOL     OW28491   7.079  10.591  12.653  0.3478 -0.4296  0.0869
 3500SOL    HW128492   7.162  10.581  12.606  0.9263  0.7237  0.8282
 3500SOL    HW228493   7.027  10.515  12.625 -0.6887  1.7516 -5.0725
 3501SOL     OW28494   6.535   7.435   6.168 -0.1984  0.0047 -0.0141
 3501SOL    HW128495   6.589   7.363   6.135 -0.9592 -0.4357 -0.3339
 3501SOL    HW228496   6.522   7.492   6.093 -2.0780 -1.0886 -0.5839
 3502SOL     OW28497   1.127   2.953   5.191  0.2322  0.3513 -0.3846
 3502SOL    HW128498   1.091   3.008   5.260 -3.3401 -0.1473 -1.6751
 3502SOL    HW228499   1.144   3.014   5.119 -3.7177  0.0010 -1.8112
 3503SOL     OW28500   6.966  12.031   8.533  0.8382 -0.0728  0.1590
 3503SOL    HW128501   7.020  12.108   8.516 -0.3137  0.8865  0.7255
 3503SOL    HW228502   7.002  11.964   8.475  0.7374  1.4034 -1.7275
 3504SOL     OW28503   3.369   7.526  14.073 -0.2359 -0.2326 -0.0723
 3504SOL    HW128504   3.330   7.552  14.156 -0.5303  0.9571 -0.5653
 3504SOL    HW228505   3.309   7.561  14.007  0.0776 -1.0306 -0.7931
 3505SOL     OW28506  10.940   2.095   1.845 -0.5330 -0.2055 -0.0471
 3505SOL    HW128507  11.022   2.091   1.795 -0.2849  0.2883  0.3123
 3505SOL    HW228508  10.881   2.035   1.799 -0.7175  1.1432 -1.6740
 3506SOL     OW28509  12.485   8.427   6.252 -0.7328  0.6022  0.3771
 3506SOL    HW128510  12.556   8.372   6.218 -1.5538 -0.3998  0.2264
 3506SOL    HW228511  12.435   8.453   6.174  0.1257  2.2866  0.3576
 3507SOL     OW28512   7.691   4.653   9.694  0.3099 -0.2945  0.5637
 3507SOL    HW128513   7.669   4.687   9.608  0.0652 -0.9896  0.3486
 3507SOL    HW228514   7.692   4.731   9.751  0.2980  0.1387 -0.0247
 3508SOL     OW28515   9.249  10.681   0.629 -0.5210 -0.2927  0.6972
 3508SOL    HW128516   9.278  10.676   0.720  2.1621 -1.8951 -0.1376
 3508SOL    HW228517   9.217  10.771   0.619  0.6984  0.4420  2.7943
 3509SOL     OW28518   5.671   1.687   9.598 -0.4108 -0.0720 -0.6695
 3509SOL    HW128519   5.678   1.592   9.595  0.2968 -0.0214 -0.6505
 3509SOL    HW228520   5.591   1.704   9.648  0.1185 -0.6379  0.3876
 3510SOL     OW28521   6.427   7.541   6.429  0.4690  0.2221  0.0638
 3510SOL    HW128522   6.494   7.510   6.491 -0.2854 -0.3629  0.6111
 3510SOL    HW228523   6.438   7.485   6.352 -0.2650 -0.7983  0.6815
 3511SOL     OW28524  13.361   1.750   6.447 -0.8458  0.0243  0.0405
 3511SOL    HW128525  13.431   1.781   6.505  0.3803 -2.1630 -0.1442
 3511SOL    HW228526  13.393   1.768   6.359 -0.4714 -0.9970 -0.0453
 3512SOL     OW28527   5.414   2.564   6.776  0.0609  0.4688 -0.1839
 3512SOL    HW128528   5.347   2.595   6.836 -1.6735  0.1480 -1.8683
 3512SOL    HW228529   5.453   2.644   6.740  0.5533  0.6553  0.7295
 3513SOL     OW28530   0.607  12.346  13.935 -0.0560  0.3177 -0.2032
 3513SOL    HW128531   0.546  12.418  13.919  1.4161  1.8983  0.9842
 3513SOL    HW228532   0.606  12.334  14.030 -0.6913 -1.6539 -0.4158
 3514SOL     OW28533  13.713   3.792  10.671 -0.1170 -0.0727 -0.5014
 3514SOL    HW128534  13.755   3.763  10.590 -2.6329  0.8618 -2.2627
 3514SOL    HW228535  13.733   3.722  10.734  1.0426 -1.3780 -2.2132
 3515SOL     OW28536   5.395   0.491   2.947  0.5646 -0.3776  0.2066
 3515SOL    HW128537   5.361   0.485   3.036  1.4253  1.5421  0.7009
 3515SOL    HW228538   5.322   0.524   2.895  0.6656  0.5340  0.6264
 3516SOL     OW28539  11.968  14.135   0.179 -0.1659 -0.0012 -0.1049
 3516SOL    HW128540  11.939  14.221   0.150 -0.9052 -0.3923 -0.5372
 3516SOL    HW228541  11.931  14.125   0.267  0.8092  0.5471  0.3959
 3517SOL     OW28542  12.255  11.571   0.937 -0.4087 -0.6013 -0.0549
 3517SOL    HW128543  12.310  11.592   0.861 -1.3987  1.0981 -0.3527
 3517SOL    HW228544  12.175  11.533   0.899 -1.5512  1.6173 -0.0656
 3518SOL     OW28545   0.046  13.814   1.116  0.0297 -0.0109  0.1295
 3518SOL    HW128546   0.089  13.896   1.092  0.6598  0.4088  2.4308
 3518SOL    HW228547  -0.025  13.805   1.053  0.9966  1.4117 -1.2342
 3519SOL     OW28548  11.133   8.152   4.528  0.7559 -0.6034  0.6847
 3519SOL    HW128549  11.156   8.243   4.510 -0.3967 -0.2606  0.8855
 3519SOL    HW228550  11.216   8.111   4.553  1.6198 -0.0483 -1.1154
 3520SOL     OW28551   4.892  10.162   5.480  0.4617 -0.1393  0.1780
 3520SOL    HW128552   4.930  10.095   5.423 -0.2295 -0.5690  0.1988
 3520SOL    HW228553   4.798  10.157   5.462  0.2084 -0.3810  1.4385
 3521SOL     OW28554   8.057   5.155   5.918  0.2018 -0.1606 -0.2513
 3521SOL    HW128555   8.140   5.154   5.967  0.7217  1.4109 -1.0625
 3521SOL    HW228556   8.030   5.246   5.917 -1.5874 -0.6452  0.0126
 3522SOL     OW28557   8.708   3.512  10.676 -0.1479  0.4010 -0.3642
 3522SOL    HW128558   8.691   3.461  10.597  0.1231  0.9424 -0.7722
 3522SOL    HW228559   8.683   3.601  10.654 -1.7004  0.2798  0.7078
 3523SOL     OW28560  12.687   3.863  13.317  0.1446 -0.3433  0.1167
 3523SOL    HW128561  12.654   3.918  13.246 -0.3944  0.0797  0.6747
 3523SOL    HW228562  12.609   3.818  13.351  0.4134 -0.6332  0.3573
 3524SOL     OW28563   5.022  11.783   8.700 -0.6193 -0.0595 -0.0818
 3524SOL    HW128564   5.072  11.768   8.780 -0.8206  0.9016  0.2401
 3524SOL    HW228565   4.980  11.699   8.681 -0.5124 -0.3161  0.7880
 3525SOL     OW28566   5.365   8.939   0.525  0.1803  0.3451 -0.2796
 3525SOL    HW128567   5.453   8.962   0.552 -0.0630 -1.0691  1.9114
 3525SOL    HW228568   5.371   8.929   0.430  2.4336  0.0063 -0.1539
 3526SOL     OW28569  11.149   3.692  13.937  0.3496  0.4243 -0.3209
 3526SOL    HW128570  11.202   3.745  13.997 -0.9834  1.4894 -0.0538
 3526SOL    HW228571  11.212   3.658  13.873  1.5349  0.6442  0.6970
 3527SOL     OW28572  10.208   5.223  13.012 -0.0296 -0.1587  0.4696
 3527SOL    HW128573  10.282   5.277  13.039 -0.0233 -0.7043  1.6081
 3527SOL    HW228574  10.230   5.135  13.042 -1.0355 -0.3665  0.6246
 3528SOL     OW28575   9.901   7.167  13.559 -0.1228 -0.2701 -0.1972
 3528SOL    HW128576   9.961   7.132  13.493  0.9670  0.8765  0.1393
 3528SOL    HW228577   9.893   7.097  13.624 -0.6932 -1.1630 -1.2039
 3529SOL     OW28578  10.938   9.838  13.599 -0.6199 -0.1753 -0.5474
 3529SOL    HW128579  10.982   9.895  13.535 -2.8050  0.0663 -1.9173
 3529SOL    HW228580  10.919   9.895  13.673 -0.9005  0.3364 -1.0139
 3530SOL     OW28581   9.942  13.766   7.905 -0.8193 -0.6260  0.2723
 3530SOL    HW128582   9.929  13.701   7.836  0.2033 -0.1887 -0.3466
 3530SOL    HW228583  10.037  13.782   7.906 -1.1018  1.3142 -0.0175
 3531SOL     OW28584   7.059  13.531   6.489  0.0584  0.0474 -0.0366
 3531SOL    HW128585   7.069  13.495   6.401  0.9116 -1.1757  0.5379
 3531SOL    HW228586   6.998  13.472   6.534 -0.6921  0.8934  0.0824
 3532SOL     OW28587  10.019   7.971  10.093 -0.5177  0.4438 -0.0641
 3532SOL    HW128588   9.935   7.929  10.106 -0.4840  0.6498  0.8732
 3532SOL    HW228589  10.065   7.914  10.032 -0.0038 -1.5866  2.0715
 3533SOL     OW28590  13.646   2.857  13.882  0.3013  0.9812  0.1260
 3533SOL    HW128591  13.579   2.815  13.829  0.3313  1.5639 -0.3913
 3533SOL    HW228592  13.727   2.810  13.860  0.1088  0.4620  0.5390
 3534SOL     OW28593   4.881  12.053   4.180 -0.1589  0.7693  0.4618
 3534SOL    HW128594   4.892  11.990   4.251 -2.0299 -0.7676 -0.5228
 3534SOL    HW228595   4.968  12.062   4.142 -0.1420 -2.9079 -0.6936
 3535SOL     OW28596  13.125  11.693   6.524 -0.3088 -0.0808  0.3379
 3535SOL    HW128597  13.161  11.711   6.611 -0.8719 -0.8249  0.7415
 3535SOL    HW228598  13.110  11.779   6.486  2.7317  0.3216 -0.2320
 3536SOL     OW28599   9.509   4.848   1.110 -0.0563 -0.3592 -0.2741
 3536SOL    HW128600   9.418   4.847   1.080 -0.2861  1.4217  0.2552
 3536SOL    HW228601   9.560   4.828   1.031 -0.8391  0.3331 -0.9797
 3537SOL     OW28602   0.408  10.136  10.889  0.1170  0.0565 -0.4952
 3537SOL    HW128603   0.420  10.047  10.921  0.0164 -0.7450 -2.5071
 3537SOL    HW228604   0.320  10.160  10.918 -0.1655 -0.8121 -0.5857
 3538SOL     OW28605   1.596  12.686   8.797  0.0104  0.4383  0.4690
 3538SOL    HW128606   1.680  12.721   8.828  0.8937 -2.6015  1.8747
 3538SOL    HW228607   1.613  12.662   8.706 -0.3529  2.6091 -0.2388
 3539SOL     OW28608   1.289   4.970   1.684  0.2025 -0.2589 -0.1635
 3539SOL    HW128609   1.360   4.985   1.622 -0.2533 -0.8255 -0.8290
 3539SOL    HW228610   1.244   5.055   1.690  0.6995 -0.0001 -0.0222
 3540SOL     OW28611   9.842  11.213   8.750  0.1007 -0.1392 -0.0768
 3540SOL    HW128612   9.894  11.140   8.717  0.8784  0.5327 -0.3542
 3540SOL    HW228613   9.905  11.270   8.794 -0.5667  0.1419  0.5286
 3541SOL     OW28614   3.298  11.263  13.205 -0.5048 -0.2949  0.5893
 3541SOL    HW128615   3.357  11.198  13.241  1.2678  0.2815 -1.0778
 3541SOL    HW228616   3.330  11.347  13.239 -0.6600 -0.0173  0.0669
 3542SOL     OW28617   5.860   5.389  11.535 -0.3812 -0.1630  0.8015
 3542SOL    HW128618   5.882   5.481  11.518  0.0264 -0.6838 -1.9292
 3542SOL    HW228619   5.831   5.388  11.626  3.2652  2.0127  2.2188
 3543SOL     OW28620   2.220   9.080   8.212 -0.4673 -0.2449 -0.3216
 3543SOL    HW128621   2.214   9.084   8.117 -0.5769  1.0340 -0.2766
 3543SOL    HW228622   2.309   9.048   8.229 -0.5771 -0.8491 -0.8434
 3544SOL     OW28623   1.566   4.216   6.085 -0.1918 -0.0771  0.5223
 3544SOL    HW128624   1.601   4.220   6.174  0.4519  0.7104  0.2459
 3544SOL    HW228625   1.541   4.306   6.065 -0.7592 -0.3287  0.0712
 3545SOL     OW28626  10.057   6.592   2.306 -0.0974  0.0229  0.1701
 3545SOL    HW128627  10.074   6.640   2.224 -2.9800  0.9262 -0.0139
 3545SOL    HW228628  10.016   6.510   2.277 -1.5249  0.5311  0.6584
 3546SOL     OW28629  13.580  14.056   3.357  0.5692  0.4775 -0.0346
 3546SOL    HW128630  13.556  14.136   3.403  0.7191  0.9752 -0.8064
 3546SOL    HW228631  13.608  14.085   3.270  0.9173 -0.3805 -0.2256
 3547SOL     OW28632   9.632   7.204   0.298  0.1925  0.0481 -0.4053
 3547SOL    HW128633   9.667   7.286   0.333 -2.5641  1.4740 -0.7057
 3547SOL    HW228634   9.616   7.150   0.375  2.0390 -0.2849 -0.2014
 3548SOL     OW28635   7.881  13.165  13.610 -0.0957 -0.1105  0.5867
 3548SOL    HW128636   7.953  13.110  13.580 -0.3904 -0.3086  0.2290
 3548SOL    HW228637   7.920  13.222  13.676  0.2308 -0.7124  0.9290
 3549SOL     OW28638  10.896   0.422   6.671  0.0643  0.2390  0.0882
 3549SOL    HW128639  10.898   0.329   6.649  2.0792  0.2283  0.1387
 3549SOL    HW228640  10.864   0.464   6.591  2.3027 -0.2467 -1.1282
 3550SOL     OW28641   1.223   7.968  10.380 -0.4987 -0.0701 -0.1586
 3550SOL    HW128642   1.213   8.049  10.430  1.3800  0.5688 -0.7327
 3550SOL    HW228643   1.217   7.899  10.446  1.3280  0.7345  0.9348
 3551SOL     OW28644   9.727   9.814  13.810  0.3167 -0.1735  0.1002
 3551SOL    HW128645   9.724   9.888  13.749 -1.8129 -0.6630 -0.4785
 3551SOL    HW228646   9.780   9.845  13.883 -1.4615  2.4047  0.4317
 3552SOL     OW28647   6.918   9.485   2.634 -0.1226  0.1413 -0.1102
 3552SOL    HW128648   6.883   9.527   2.555  1.1932  1.9233  0.2038
 3552SOL    HW228649   6.844   9.481   2.694 -0.2814  2.1225 -0.1318
 3553SOL     OW28650   0.173   3.731  11.755  0.9956 -0.3922  0.0135
 3553SOL    HW128651   0.197   3.762  11.843 -0.1532  2.7009 -0.6326
 3553SOL    HW228652   0.121   3.652  11.772  2.4129 -1.0135  1.9472
 3554SOL     OW28653  12.433   2.906   4.352  0.1356 -0.2760 -0.3203
 3554SOL    HW128654  12.379   2.946   4.420  0.7961  3.9425 -1.9416
 3554SOL    HW228655  12.522   2.909   4.388  0.0795 -1.1637 -0.1056
 3555SOL     OW28656   9.442   6.763   6.299  0.3656  0.4750 -0.2503
 3555SOL    HW128657   9.535   6.771   6.319  0.0036  2.2483  0.8749
 3555SOL    HW228658   9.413   6.852   6.280 -0.9535 -0.1556 -1.4183
 3556SOL     OW28659   8.565  10.579   5.411 -0.0024 -0.3637  0.8109
 3556SOL    HW128660   8.516  10.614   5.337  0.3475 -3.6225 -1.1695
 3556SOL    HW228661   8.507  10.514   5.450  1.3631 -1.8060  0.5743
 3557SOL     OW28662   5.433  10.987   8.457  0.1042  0.0312 -0.1646
 3557SOL    HW128663   5.443  11.038   8.537  1.4804  0.2756 -0.4638
 3557SOL    HW228664   5.375  10.915   8.481 -0.6702  0.9024  0.6534
 3558SOL     OW28665   9.923  11.803   9.927 -0.4345 -0.0820 -0.0291
 3558SOL    HW128666   9.851  11.741   9.916 -0.1738 -0.3321 -0.3407
 3558SOL    HW228667   9.991  11.771   9.868 -0.8947  1.4102 -1.4359
 3559SOL     OW28668   1.822   7.047  13.782 -0.2356 -0.5107 -0.0747
 3559SOL    HW128669   1.880   6.993  13.729  0.0387 -0.4432  0.1507
 3559SOL    HW228670   1.799   7.121  13.725  0.1889 -0.3531 -0.0483
 3560SOL     OW28671   8.527  10.112   5.813  0.3576  0.4126  0.2302
 3560SOL    HW128672   8.481  10.121   5.729  0.0093 -0.0395  0.3719
 3560SOL    HW228673   8.605  10.060   5.792 -0.8697 -1.6781  0.5805
 3561SOL     OW28674   5.872  13.054  12.407  0.5219 -0.1592  0.1083
 3561SOL    HW128675   5.909  13.110  12.339  1.7883  0.6285  1.3961
 3561SOL    HW228676   5.929  12.978  12.410  1.0801  0.2689  0.9301
 3562SOL     OW28677   9.452  13.486   9.647 -0.7068  0.3963  0.4377
 3562SOL    HW128678   9.436  13.569   9.604  0.3771  0.2994 -0.1771
 3562SOL    HW228679   9.443  13.420   9.578  0.9261  0.2302  0.3462
 3563SOL     OW28680   9.765   2.824   5.613  0.0906  0.0292  0.5212
 3563SOL    HW128681   9.747   2.775   5.694  0.4055  0.4031  0.8188
 3563SOL    HW228682   9.859   2.818   5.602 -0.0387 -0.6954 -0.2564
 3564SOL     OW28683  11.494  11.096  10.294 -0.2484 -0.2370  0.2601
 3564SOL    HW128684  11.512  11.047  10.374 -0.6471 -0.8220 -0.0007
 3564SOL    HW228685  11.571  11.080  10.239  0.1314  0.3578  0.6158
 3565SOL     OW28686  11.928   8.224   7.306 -0.0813 -0.1080  0.3114
 3565SOL    HW128687  12.022   8.206   7.296 -0.0755  0.4664 -0.8814
 3565SOL    HW228688  11.901   8.169   7.379  1.0568 -0.7524  0.2759
 3566SOL     OW28689  13.090   8.022   8.864  0.3147 -0.0963 -0.1934
 3566SOL    HW128690  13.123   7.998   8.950  1.0835  0.6913 -0.2637
 3566SOL    HW228691  13.162   8.003   8.804 -0.1888 -0.5777 -0.6659
 3567SOL     OW28692   7.643   6.362   4.018 -0.1327  0.3698 -0.0814
 3567SOL    HW128693   7.551   6.353   3.992 -0.5262 -1.1879  1.6597
 3567SOL    HW228694   7.693   6.341   3.938 -1.2735 -0.0474 -0.7113
 3568SOL     OW28695   7.151  11.877  10.351  0.7311 -1.0705  0.4745
 3568SOL    HW128696   7.211  11.951  10.365 -0.5555 -0.1019  0.9897
 3568SOL    HW228697   7.202  11.815  10.298  1.6960  0.3511 -0.3217
 3569SOL     OW28698   0.213  11.579   6.732  0.0576  0.2878 -0.3318
 3569SOL    HW128699   0.271  11.586   6.808 -1.5300  0.0876  0.9339
 3569SOL    HW228700   0.127  11.559   6.768 -0.8864  0.8185 -2.1466
 3570SOL     OW28701   1.474   6.433   1.890 -0.1350 -0.0942  0.1356
 3570SOL    HW128702   1.517   6.365   1.940  0.4232  0.2092  0.0742
 3570SOL    HW228703   1.538   6.505   1.886  0.0247 -0.2849 -1.4070
 3571SOL     OW28704   0.454   3.113   9.879  0.2155  0.2469  0.0151
 3571SOL    HW128705   0.367   3.152   9.879  0.9654  1.9796 -0.2507
 3571SOL    HW228706   0.478   3.108   9.972  0.1637  0.5416  0.0449
 3572SOL     OW28707  12.234   7.701   5.080  0.2323 -0.2855  0.4099
 3572SOL    HW128708  12.190   7.712   5.164 -0.4018 -0.9723  0.1791
 3572SOL    HW228709  12.202   7.773   5.026 -1.0889 -1.0872  0.0638
 3573SOL     OW28710   4.750   1.430   3.293 -0.2207 -0.4260  0.5704
 3573SOL    HW128711   4.765   1.404   3.202 -0.3173 -1.4542  0.8378
 3573SOL    HW228712   4.721   1.521   3.287  1.2666  0.0211 -0.3105
 3574SOL     OW28713  13.979   7.137  10.786 -0.1447 -0.7874 -0.3830
 3574SOL    HW128714  14.027   7.109  10.864  0.5463 -1.7277 -1.1103
 3574SOL    HW228715  14.043   7.189  10.736 -1.0287  1.0828  0.3422
 3575SOL     OW28716   7.486   5.654   2.863  0.0235 -0.0679  0.2904
 3575SOL    HW128717   7.395   5.650   2.833  0.4740  0.0948 -1.1898
 3575SOL    HW228718   7.499   5.746   2.887  0.1846  0.2408 -0.8884
 3576SOL     OW28719  11.588   9.729   8.000 -0.0659 -0.0790 -0.0375
 3576SOL    HW128720  11.570   9.742   8.093 -0.0162  0.1516 -0.0605
 3576SOL    HW228721  11.513   9.678   7.968 -1.2271  1.7187 -0.3545
 3577SOL     OW28722   7.151   4.409   3.389  0.0575  0.0704 -0.1155
 3577SOL    HW128723   7.213   4.475   3.359 -0.7167  0.2950 -1.3246
 3577SOL    HW228724   7.067   4.455   3.392 -0.1021 -0.2688  1.3314
 3578SOL     OW28725  10.099   9.657   6.995 -0.2337 -0.2898 -0.2167
 3578SOL    HW128726  10.039   9.608   7.050 -1.2926  1.9491  0.7659
 3578SOL    HW228727  10.178   9.667   7.047 -0.0053 -0.9127 -0.4289
 3579SOL     OW28728  11.686   5.015   8.589  0.0712 -0.1266  0.8692
 3579SOL    HW128729  11.689   5.110   8.601 -1.7046  0.0096  0.4664
 3579SOL    HW228730  11.750   4.982   8.652  0.8386  1.3298  0.9093
 3580SOL     OW28731   8.866  10.754  10.340  0.2643  0.0128 -0.3139
 3580SOL    HW128732   8.854  10.817  10.268 -0.0845  0.4780  0.1489
 3580SOL    HW228733   8.889  10.808  10.415  0.6331 -0.4785 -0.0710
 3581SOL     OW28734   5.183   1.182   1.047  0.4297  0.4497 -0.6184
 3581SOL    HW128735   5.155   1.265   1.086 -0.0076 -0.4253  1.0590
 3581SOL    HW228736   5.111   1.155   0.991  0.4476  1.0399 -0.9327
 3582SOL     OW28737   2.250   3.986   4.020  0.1839  0.3657 -0.4298
 3582SOL    HW128738   2.324   4.047   4.025  0.2341  0.4934 -2.0664
 3582SOL    HW228739   2.207   3.993   4.105  1.9795  0.3726  0.5261
 3583SOL     OW28740  12.936   3.744  11.910  0.4320 -0.0228 -0.1309
 3583SOL    HW128741  12.960   3.695  11.989 -1.3192  1.2663  1.2952
 3583SOL    HW228742  12.944   3.680  11.839  1.1165 -1.5067  1.2165
 3584SOL     OW28743   5.540   0.014   0.153 -0.0453 -0.3034 -0.5283
 3584SOL    HW128744   5.466  -0.034   0.190 -0.3212 -1.3153 -2.3194
 3584SOL    HW228745   5.547  -0.017   0.063  3.5395 -1.4580 -0.0353
 3585SOL     OW28746   7.105  11.167   4.588  0.4893  0.5774 -0.7347
 3585SOL    HW128747   7.198  11.151   4.601  0.3059 -0.8005 -0.8997
 3585SOL    HW228748   7.091  11.157   4.494 -0.3221 -2.5951 -0.4003
 3586SOL     OW28749   8.578   4.680   5.515  0.3377  0.0090  0.0460
 3586SOL    HW128750   8.516   4.644   5.578  0.6848 -0.4661  0.1275
 3586SOL    HW228751   8.615   4.757   5.558 -0.5872  0.6193 -0.2237
 3587SOL     OW28752   9.502  11.124   6.062 -0.1231 -0.0095  0.0526
 3587SOL    HW128753   9.458  11.096   5.982  1.3344 -0.5056 -0.6225
 3587SOL    HW228754   9.452  11.083   6.132 -1.2419  0.1764 -0.6074
 3588SOL     OW28755   4.134   0.066  11.713 -0.2413 -0.7014  0.3023
 3588SOL    HW128756   4.219   0.081  11.671 -0.7730 -0.3159 -0.6570
 3588SOL    HW228757   4.144   0.104  11.800  0.2288  0.3149 -0.1769
 3589SOL     OW28758   2.228   6.642   1.189  0.1383 -0.0813  0.0708
 3589SOL    HW128759   2.293   6.665   1.256  0.4669 -3.6685  1.2081
 3589SOL    HW228760   2.148   6.625   1.238 -0.2185 -0.6581 -0.6874
 3590SOL     OW28761   7.184   0.053  11.634  0.2871  0.5997 -0.3492
 3590SOL    HW128762   7.098   0.093  11.645 -0.0788 -0.0625 -0.6993
 3590SOL    HW228763   7.233   0.116  11.582 -0.1526  0.7673 -0.5692
 3591SOL     OW28764   8.637  13.642   9.600 -0.1034 -0.0583 -0.1553
 3591SOL    HW128765   8.636  13.713   9.665 -0.9903  0.3665 -0.6201
 3591SOL    HW228766   8.631  13.686   9.516 -0.8885 -0.6876 -0.4424
 3592SOL     OW28767   7.089  10.355   8.265 -0.2762 -0.5524 -0.1451
 3592SOL    HW128768   7.010  10.395   8.301 -0.0387  0.1421 -0.3780
 3592SOL    HW228769   7.087  10.264   8.296 -0.9534 -0.4275  0.1822
 3593SOL     OW28770   4.929   3.643  10.554  0.1998 -0.0586  0.9599
 3593SOL    HW128771   4.986   3.679  10.486 -0.4750 -0.2754  0.2603
 3593SOL    HW228772   4.841   3.661  10.523 -0.1189 -0.1802  1.7787
 3594SOL     OW28773   0.629   1.611  10.354 -0.8842  0.3278 -0.2083
 3594SOL    HW128774   0.610   1.523  10.320 -1.0764  0.8041 -1.3924
 3594SOL    HW228775   0.548   1.639  10.395 -1.4633  0.6961 -1.5417
 3595SOL     OW28776   1.699  13.702  12.272  0.2617  0.1533  0.2378
 3595SOL    HW128777   1.634  13.771  12.288 -0.4690 -0.4923  0.1072
 3595SOL    HW228778   1.713  13.662  12.357 -0.3782 -0.4562  0.0612
 3596SOL     OW28779   0.343   5.841   4.576  0.2534  0.8019  0.0906
 3596SOL    HW128780   0.402   5.895   4.523 -0.7549  1.6526 -0.2055
 3596SOL    HW228781   0.294   5.790   4.512 -0.9830  1.8436  0.1696
 3597SOL     OW28782  12.614  11.386   6.209 -0.5881 -0.2807  0.2349
 3597SOL    HW128783  12.594  11.335   6.131  3.1450 -1.4594 -0.1204
 3597SOL    HW228784  12.635  11.322   6.277  1.4926  0.6796  0.5886
 3598SOL     OW28785   1.630   9.771   9.851  0.0903 -0.2108 -0.1744
 3598SOL    HW128786   1.623   9.864   9.873  0.6720 -0.5495  1.5849
 3598SOL    HW228787   1.548   9.732   9.881  0.1085 -0.3762 -0.3365
 3599SOL     OW28788   2.204   8.695   9.824 -0.3634  0.3340 -0.1735
 3599SOL    HW128789   2.178   8.604   9.811  0.4384  0.1684 -0.6946
 3599SOL    HW228790   2.296   8.690   9.850 -0.3987  0.9858  0.0917
 3600SOL     OW28791  12.416   5.271  11.976 -0.7984  0.4330  0.2928
 3600SOL    HW128792  12.489   5.212  11.957 -1.0819  0.0783  0.2810
 3600SOL    HW228793  12.373   5.283  11.892 -1.9938 -1.0541  0.6386
 3601SOL     OW28794   9.329   9.938  13.706 -0.2413 -0.1535  0.1010
 3601SOL    HW128795   9.383   9.907  13.779 -1.3634  0.5782  1.2801
 3601SOL    HW228796   9.263   9.994  13.747 -1.7742 -0.8494 -1.3196
 3602SOL     OW28797   2.597  11.418  14.125  0.2168  0.1480 -0.4677
 3602SOL    HW128798   2.517  11.462  14.096  0.3900  0.5998 -0.2653
 3602SOL    HW228799   2.571  11.327  14.138 -0.8632  0.6963  1.8472
 3603SOL     OW28800  12.733  12.042   6.896 -0.0667 -0.5731 -0.0580
 3603SOL    HW128801  12.808  12.007   6.848 -0.7784  0.2234 -1.8223
 3603SOL    HW228802  12.666  12.056   6.829 -0.9385  1.0455  1.0871
 3604SOL     OW28803   1.281   1.470   4.687 -0.5204 -0.7781  0.4890
 3604SOL    HW128804   1.372   1.460   4.660 -0.4709  0.1176  0.2871
 3604SOL    HW228805   1.287   1.514   4.772 -0.7681 -0.2650  0.2465
 3605SOL     OW28806   0.376   7.240   7.070 -0.3982 -0.3823 -0.5588
 3605SOL    HW128807   0.319   7.227   7.146 -2.1936  0.1550 -1.7461
 3605SOL    HW228808   0.458   7.272   7.107 -1.3442  0.2162  1.1388
 3606SOL     OW28809   0.146   5.793  10.165 -0.0134 -0.4777 -0.3110
 3606SOL    HW128810   0.086   5.721  10.146  2.1191 -2.4757  0.0654
 3606SOL    HW228811   0.090   5.864  10.196 -2.1334 -2.3708  0.4515
 3607SOL     OW28812   4.032   5.712   6.720  0.1094  0.4910  0.1506
 3607SOL    HW128813   4.090   5.707   6.796  1.4162  1.1732 -0.7587
 3607SOL    HW228814   4.072   5.779   6.664 -0.3324 -0.5967 -1.5313
 3608SOL     OW28815  11.459  12.888  13.450  0.7625  0.3264 -0.2482
 3608SOL    HW128816  11.456  12.913  13.543  1.1055  0.4000 -0.2569
 3608SOL    HW228817  11.417  12.802  13.448  0.7822  0.3101 -0.0189
 3609SOL     OW28818   4.754   0.004   6.749  0.2503  0.5946 -0.3240
 3609SOL    HW128819   4.746  -0.025   6.839 -2.2288 -0.3423 -0.7632
 3609SOL    HW228820   4.736   0.098   6.752 -0.2676  0.4823  0.0927
 3610SOL     OW28821   6.601   3.386   2.427  0.0832 -0.3088  0.0135
 3610SOL    HW128822   6.620   3.368   2.519  0.1074 -0.8157 -0.0891
 3610SOL    HW228823   6.509   3.361   2.416  0.0648 -0.1969 -0.0879
 3611SOL     OW28824   6.691   3.243   3.998 -0.1948 -0.1476 -0.1361
 3611SOL    HW128825   6.603   3.244   4.036 -0.0643  0.9232  0.1595
 3611SOL    HW228826   6.683   3.187   3.921 -0.7653 -1.3402  0.7493
 3612SOL     OW28827  10.304   8.250   5.103 -0.0951 -0.2969  0.0943
 3612SOL    HW128828  10.255   8.331   5.095  0.9431  0.3491  0.1110
 3612SOL    HW228829  10.352   8.242   5.021  1.5170  0.2760  0.9299
 3613SOL     OW28830   8.646   7.109   2.642 -0.1951  0.2170  0.4229
 3613SOL    HW128831   8.696   7.027   2.633 -0.0535  0.2804  0.6362
 3613SOL    HW228832   8.564   7.092   2.595  0.0169  0.1040  0.0900
 3614SOL     OW28833  13.861  11.916  11.807  0.3269 -0.2010  0.6263
 3614SOL    HW128834  13.846  11.850  11.875 -0.6114  0.1265  0.7511
 3614SOL    HW228835  13.940  11.963  11.836  1.7912 -2.0698 -0.1130
 3615SOL     OW28836   5.122   5.316   3.973 -0.2944 -0.4524  0.3259
 3615SOL    HW128837   5.050   5.328   4.034 -2.0322  1.3594 -1.9026
 3615SOL    HW228838   5.144   5.223   3.979 -1.3460 -0.6149  2.5766
 3616SOL     OW28839   4.745  13.332   1.994 -0.3704 -0.4453  0.2358
 3616SOL    HW128840   4.747  13.309   2.087  0.1952  2.1023  0.9353
 3616SOL    HW228841   4.657  13.366   1.979 -0.4951 -0.9507 -0.1821
 3617SOL     OW28842   8.576   9.395  10.086  0.3202 -0.1272  0.0908
 3617SOL    HW128843   8.546   9.378  10.175  1.3465 -1.4799  0.2170
 3617SOL    HW228844   8.628   9.476  10.093  1.0022 -0.6160  0.8842
 3618SOL     OW28845   1.216  12.584  13.957 -1.2910  0.0114  0.3682
 3618SOL    HW128846   1.286  12.550  13.900 -2.4785 -1.0402 -0.5217
 3618SOL    HW228847   1.211  12.521  14.028 -1.4165  0.0200  0.3660
 3619SOL     OW28848   9.248   5.552   0.661  0.0920  0.3101 -0.4816
 3619SOL    HW128849   9.293   5.515   0.585 -1.0209 -1.8966 -0.1296
 3619SOL    HW228850   9.167   5.589   0.625  0.6818  1.4393 -0.6775
 3620SOL     OW28851   6.629   4.389  11.847  0.2357  0.0204  0.0917
 3620SOL    HW128852   6.545   4.410  11.887 -0.8458 -2.1287 -0.9360
 3620SOL    HW228853   6.693   4.409  11.915 -0.7655  4.1030  0.0966
 3621SOL     OW28854  13.228  12.014   8.982  1.0004 -0.1992 -0.0941
 3621SOL    HW128855  13.179  12.073   9.039  1.6106 -0.9799  1.3176
 3621SOL    HW228856  13.307  12.063   8.958  0.3176  0.4670 -1.0465
 3622SOL     OW28857   7.252   5.594   5.111 -0.1609 -0.1712  0.3113
 3622SOL    HW128858   7.295   5.679   5.106  0.0668 -0.3193 -0.3559
 3622SOL    HW228859   7.166   5.613   5.150  0.1583  0.2513  0.8226
 3623SOL     OW28860   7.259   0.117  13.933  0.4256  0.3049 -0.7251
 3623SOL    HW128861   7.292   0.136  14.021 -1.0859  0.1934 -0.1044
 3623SOL    HW228862   7.338   0.108  13.879  1.3932 -0.0633  0.6966
 3624SOL     OW28863   8.455   7.116   3.547 -0.9971  0.4516 -0.6080
 3624SOL    HW128864   8.508   7.103   3.626 -1.8921 -0.8138 -0.1801
 3624SOL    HW228865   8.517   7.105   3.475 -0.7601 -1.7294 -0.1402
 3625SOL     OW28866   6.958   4.013   9.813 -0.3556  0.1416  0.3832
 3625SOL    HW128867   7.047   4.043   9.830  0.0446 -0.9517  0.2946
 3625SOL    HW228868   6.912   4.024   9.896  0.0210  0.1692  0.5858
 3626SOL     OW28869  10.504   6.774   2.934 -0.0753 -0.3803  0.2715
 3626SOL    HW128870  10.517   6.680   2.936  0.0959 -0.3454  1.0997
 3626SOL    HW228871  10.472   6.792   2.845 -0.3706 -1.2454  0.1933
 3627SOL     OW28872   3.421   2.414   2.699 -0.0667  0.7915 -0.1453
 3627SOL    HW128873   3.393   2.422   2.790 -1.5199 -0.8963 -0.3900
 3627SOL    HW228874   3.475   2.491   2.684 -1.5545  2.2509  1.5092
 3628SOL     OW28875  12.199   5.074   1.937  0.1087  0.3403 -0.4811
 3628SOL    HW128876  12.153   5.130   2.000  0.8865 -0.9196  1.3080
 3628SOL    HW228877  12.146   5.078   1.858 -1.1212  1.7219  0.3582
 3629SOL     OW28878  10.019  12.006   0.304  0.0636  0.1392 -0.2880
 3629SOL    HW128879  10.047  11.976   0.217 -1.6940 -0.1364 -0.7940
 3629SOL    HW228880  10.006  11.926   0.355  1.6868  0.3133  0.4774
 3630SOL     OW28881   2.551  13.717  11.402 -0.9259 -0.8074  0.0185
 3630SOL    HW128882   2.580  13.801  11.366 -2.2763  1.3036  3.3387
 3630SOL    HW228883   2.631  13.677  11.436 -0.6015  0.6142  1.0319
 3631SOL     OW28884   4.703   0.121   0.037  0.1234  0.0463 -0.5721
 3631SOL    HW128885   4.759   0.044   0.039 -0.9028 -0.7081  0.1933
 3631SOL    HW228886   4.614   0.087   0.051 -0.1043  1.5437  2.2632
 3632SOL     OW28887   0.048   3.613  10.085 -0.0270 -0.0250  0.1479
 3632SOL    HW128888   0.134   3.627  10.126  0.6555  2.3301 -1.8304
 3632SOL    HW228889   0.068   3.570  10.002 -0.9258 -0.6338  0.2337
 3633SOL     OW28890  11.677   2.852   0.660 -0.2506 -0.1648 -0.0235
 3633SOL    HW128891  11.694   2.921   0.724 -0.3726  1.6180 -1.8160
 3633SOL    HW228892  11.738   2.870   0.589 -0.7636 -1.5030 -0.8384
 3634SOL     OW28893   2.606   4.459  10.913 -0.7215 -0.1870 -0.3739
 3634SOL    HW128894   2.511   4.456  10.911 -0.6825 -1.8765 -1.3520
 3634SOL    HW228895   2.630   4.505  10.832 -0.6947  1.8416  0.7188
 3635SOL     OW28896   2.062  11.875   0.887  0.2065  0.3436 -0.3204
 3635SOL    HW128897   2.141  11.825   0.864 -0.8903 -1.0666 -1.2360
 3635SOL    HW228898   2.062  11.950   0.828  0.2059 -0.3696 -1.2545
 3636SOL     OW28899   0.082   8.283   9.023  0.1303 -0.4775 -0.0504
 3636SOL    HW128900   0.001   8.328   9.046  1.4003  0.8336  2.2904
 3636SOL    HW228901   0.074   8.264   8.930 -2.5479  0.2000 -0.0413
 3637SOL     OW28902   5.673   1.847   2.841  0.6327 -0.1187 -0.6121
 3637SOL    HW128903   5.755   1.868   2.886  1.5304  1.2996 -2.6966
 3637SOL    HW228904   5.701   1.807   2.759 -0.9040 -1.9767 -0.2874
 3638SOL     OW28905  13.000   4.857   7.798 -0.2568  0.5704  0.6472
 3638SOL    HW128906  13.045   4.798   7.858  1.5313  1.4435  0.2194
 3638SOL    HW228907  12.913   4.818   7.787  0.2038 -0.8940  1.9032
 3639SOL     OW28908   1.435   5.532   6.632  0.3059 -0.4122  0.6575
 3639SOL    HW128909   1.410   5.562   6.719  0.7062 -1.3250  1.1012
 3639SOL    HW228910   1.523   5.494   6.644 -0.5354 -2.6168  0.3539
 3640SOL     OW28911   6.886   1.777   5.273  0.2190 -0.6684  0.4185
 3640SOL    HW128912   6.921   1.724   5.201  0.9137  0.5419 -0.1806
 3640SOL    HW228913   6.807   1.731   5.301 -0.2291 -1.0480 -1.3149
 3641SOL     OW28914   7.092  11.294   6.018  0.0925 -0.9869  0.3574
 3641SOL    HW128915   7.035  11.270   5.944 -0.1248 -0.0535  0.2003
 3641SOL    HW228916   7.085  11.221   6.078 -0.9779 -1.0759  0.1552
 3642SOL     OW28917   4.868   9.874   0.478  0.1897 -0.4862  0.0589
 3642SOL    HW128918   4.885   9.959   0.517 -1.5018 -0.7259  1.4321
 3642SOL    HW228919   4.921   9.873   0.398  0.2425  1.8395 -0.0032
 3643SOL     OW28920   2.803   2.513   9.964 -0.2064 -0.1464  0.1578
 3643SOL    HW128921   2.717   2.481   9.938 -0.9782  2.8496 -1.5278
 3643SOL    HW228922   2.784   2.577  10.033  0.5623  0.7766 -0.4529
 3644SOL     OW28923   1.348  11.485   7.848 -0.3491 -0.1094 -0.0172
 3644SOL    HW128924   1.364  11.413   7.909 -0.1128 -0.5883 -0.6302
 3644SOL    HW228925   1.271  11.457   7.798  0.1481 -0.2380 -0.7123
 3645SOL     OW28926  13.436  13.552  12.509  0.0208  0.3799  0.1269
 3645SOL    HW128927  13.521  13.574  12.472 -0.5836  0.1078 -1.5384
 3645SOL    HW228928  13.423  13.460  12.486  0.0358 -0.1090  1.9485
 3646SOL     OW28929  13.518   3.042   2.961 -0.1796  0.0065 -0.5773
 3646SOL    HW128930  13.430   3.064   2.929  0.2328  0.4150 -1.4638
 3646SOL    HW228931  13.528   2.949   2.938 -0.0839  0.1637 -1.1872
 3647SOL     OW28932   2.690  12.821   7.474 -0.1599  0.6193  0.4536
 3647SOL    HW128933   2.612  12.765   7.474  0.0364  0.3433  0.4818
 3647SOL    HW228934   2.677  12.880   7.548 -0.4928  0.7889  0.2649
 3648SOL     OW28935   3.724   8.845   8.078 -0.2891  0.3227  0.4811
 3648SOL    HW128936   3.778   8.878   8.007  2.0070 -0.5448  1.7194
 3648SOL    HW228937   3.664   8.917   8.099  0.1042  1.1720 -1.2021
 3649SOL     OW28938  11.902  12.415   2.005  0.1948 -0.2080 -0.0135
 3649SOL    HW128939  11.821  12.424   2.055  0.0054  2.0989 -0.6522
 3649SOL    HW228940  11.971  12.421   2.071 -0.0954 -0.3343  0.3100
 3650SOL     OW28941  11.378   4.980   9.141  0.6825 -0.4984 -0.2725
 3650SOL    HW128942  11.434   4.975   9.064  1.0426  0.0914 -0.0613
 3650SOL    HW228943  11.377   5.074   9.163 -0.2563 -0.5269 -0.1805
 3651SOL     OW28944  10.616  11.522   0.131 -0.5000  0.1350  0.1783
 3651SOL    HW128945  10.523  11.539   0.119 -1.0866 -0.7414  2.7891
 3651SOL    HW228946  10.652  11.605   0.161 -0.2629  0.6501 -1.4431
 3652SOL     OW28947   0.196   4.757   6.478 -0.2390  0.0032  0.2871
 3652SOL    HW128948   0.184   4.822   6.547  0.3753  0.8143 -0.3528
 3652SOL    HW228949   0.226   4.807   6.403 -1.7278 -0.7282 -0.8528
 3653SOL     OW28950   1.005   3.057  10.089  0.0219  0.5779 -0.3417
 3653SOL    HW128951   1.067   3.043  10.161 -1.4283 -1.6681  0.5831
 3653SOL    HW228952   1.048   3.017  10.013  0.1658 -0.0536  0.0601
 3654SOL     OW28953   3.005  11.329   6.094  0.1601  0.1053  0.3043
 3654SOL    HW128954   3.008  11.241   6.057  1.1133  0.2116  0.0957
 3654SOL    HW228955   3.088  11.369   6.066 -0.0106  0.8721  0.8736
 3655SOL     OW28956   6.523   3.199   5.004  0.2020 -0.1020  0.3603
 3655SOL    HW128957   6.446   3.189   5.060 -0.3655  1.2129 -0.1549
 3655SOL    HW228958   6.578   3.124   5.027 -0.2906  0.0494  2.2166
 3656SOL     OW28959   0.197  10.430   2.149 -0.2945 -0.2587 -0.5722
 3656SOL    HW128960   0.183  10.521   2.124 -4.5515  0.2594  2.6433
 3656SOL    HW228961   0.133  10.381   2.096 -1.2079 -0.6583  0.8313
 3657SOL     OW28962   5.959   3.821   6.111  0.0129 -0.1279  0.3826
 3657SOL    HW128963   5.973   3.744   6.055  0.3764  0.5514 -0.4738
 3657SOL    HW228964   5.867   3.843   6.100  0.6049  1.4883 -1.9340
 3658SOL     OW28965   7.413   2.036   1.534 -0.0654 -0.7422  0.2167
 3658SOL    HW128966   7.414   2.078   1.620  3.0702 -1.4133  0.6565
 3658SOL    HW228967   7.328   2.058   1.496 -0.9328  0.8339  2.8632
 3659SOL     OW28968   7.458   8.888   7.694 -0.5356 -0.2343 -0.5592
 3659SOL    HW128969   7.529   8.830   7.717 -0.4570 -0.1754 -0.6540
 3659SOL    HW228970   7.498   8.975   7.687 -0.1949 -0.5024 -2.6890
 3660SOL     OW28971   9.064   8.486   3.108 -0.2135  0.3294  0.4728
 3660SOL    HW128972   9.081   8.517   3.019 -1.5750 -1.1694 -0.3940
 3660SOL    HW228973   9.042   8.393   3.096 -0.8826  0.2131  2.3249
 3661SOL     OW28974   4.254  10.847   5.299 -0.2352  0.3251 -0.5747
 3661SOL    HW128975   4.159  10.851   5.309 -0.0565  1.2216  1.0323
 3661SOL    HW228976   4.288  10.892   5.376  1.5181 -1.1822 -0.4135
 3662SOL     OW28977   8.127   8.746   7.375  0.5236 -0.2791 -0.4846
 3662SOL    HW128978   8.205   8.691   7.364  0.4195 -0.3268 -1.0334
 3662SOL    HW228979   8.068   8.694   7.430  1.3389  0.2416  0.9345
 3663SOL     OW28980   1.757   8.440   5.970  0.4515 -0.5284  0.1718
 3663SOL    HW128981   1.805   8.495   6.032  1.6919  0.3091 -1.4685
 3663SOL    HW228982   1.672   8.483   5.960  1.1604  0.7207 -0.5750
 3664SOL     OW28983   0.636   7.884  12.147  0.7803 -0.1275 -0.2424
 3664SOL    HW128984   0.562   7.889  12.087  0.3703  0.3032  0.2834
 3664SOL    HW228985   0.703   7.939  12.108  0.4048  0.3982 -0.1564
 3665SOL     OW28986   9.782   4.438  11.785  0.4233 -0.3065  0.5430
 3665SOL    HW128987   9.856   4.379  11.777  2.2059  1.9237 -0.5873
 3665SOL    HW228988   9.766   4.444  11.880  1.1603 -1.4051  0.7500
 3666SOL     OW28989   0.560   7.053  11.734  0.0316 -0.6774  0.0631
 3666SOL    HW128990   0.497   6.996  11.689  0.4203 -0.4328 -0.8063
 3666SOL    HW228991   0.515   7.079  11.814 -0.5684 -1.3454 -0.0387
 3667SOL     OW28992  12.532  12.143   6.729  0.0703  0.3350 -0.1792
 3667SOL    HW128993  12.558  12.234   6.740  0.8416  0.0066  0.8506
 3667SOL    HW228994  12.448  12.136   6.774  0.7089  0.2164  1.0292
 3668SOL     OW28995  11.850   6.924   9.590 -0.0064  0.3831 -0.1607
 3668SOL    HW128996  11.932   6.973   9.582 -0.5347  1.1491 -1.0265
 3668SOL    HW228997  11.786   6.989   9.621 -0.8512  0.4189 -1.8803
 3669SOL     OW28998   6.539  11.669   0.296  0.1915  0.1718 -0.8258
 3669SOL    HW128999   6.575  11.583   0.316  0.6715  0.1458 -1.7540
 3669SOL    HW229000   6.498  11.659   0.210 -0.1350  0.7563 -0.7469
 3670SOL     OW29001   4.075   1.530   3.040 -0.5452 -0.0535 -0.1573
 3670SOL    HW129002   4.134   1.543   3.114  0.0239  0.6093 -0.7181
 3670SOL    HW229003   4.056   1.436   3.041 -0.2286 -0.1180  0.5831
 3671SOL     OW29004   3.188   5.722   8.906 -0.4529  0.2157  0.2818
 3671SOL    HW129005   3.241   5.752   8.832  0.6800  0.7690  1.2759
 3671SOL    HW229006   3.219   5.775   8.980 -0.1087 -1.7054  1.5752
 3672SOL     OW29007   3.018  10.488   2.427  0.2855 -0.0204  0.3468
 3672SOL    HW129008   2.994  10.437   2.505 -0.5700 -0.2042 -0.0270
 3672SOL    HW229009   3.112  10.474   2.418  0.3431 -0.2435  1.1720
 3673SOL     OW29010  12.359  13.214   7.798  0.9330  0.3472 -0.1699
 3673SOL    HW129011  12.308  13.273   7.744 -1.0284 -0.5435  0.6321
 3673SOL    HW229012  12.325  13.226   7.886  1.0774 -1.3335  0.1478
 3674SOL     OW29013  13.106   8.726   0.508  0.2142 -0.2019  0.3006
 3674SOL    HW129014  13.184   8.759   0.462 -0.6904  0.7989 -0.5978
 3674SOL    HW229015  13.097   8.784   0.584 -1.9742  2.5532 -1.8358
 3675SOL     OW29016   8.540   7.596   7.063  0.3634  0.4285 -0.1221
 3675SOL    HW129017   8.543   7.676   7.116 -2.6736  0.8158 -0.3993
 3675SOL    HW229018   8.569   7.625   6.976 -0.1856  1.1081 -0.0884
 3676SOL     OW29019  10.544   9.317   4.621 -0.2468  0.2164 -0.1983
 3676SOL    HW129020  10.629   9.360   4.634 -0.4363  0.2475  1.0943
 3676SOL    HW229021  10.554   9.267   4.540  0.9595  0.3376 -0.1383
 3677SOL     OW29022   8.299   8.670   2.751 -0.0546  0.3213  0.3835
 3677SOL    HW129023   8.343   8.591   2.720  0.4814  0.2507  1.2728
 3677SOL    HW229024   8.323   8.675   2.844 -1.0894  0.8491  0.6409
 3678SOL     OW29025   3.131   6.313   2.739  0.1966  0.5385 -0.3166
 3678SOL    HW129026   3.200   6.293   2.676 -0.2135 -1.3131 -0.2338
 3678SOL    HW229027   3.075   6.236   2.738 -0.3059  0.8212  1.6784
 3679SOL     OW29028   4.792   4.043   8.368 -0.0492  0.8925 -0.3036
 3679SOL    HW129029   4.807   4.138   8.376 -0.2538  1.0493 -1.6332
 3679SOL    HW229030   4.698   4.036   8.354  0.1745  0.6142 -1.7737
 3680SOL     OW29031   7.857  13.175   6.215 -0.1081 -0.2866  0.2951
 3680SOL    HW129032   7.831  13.172   6.123  1.0172 -1.5966 -0.0155
 3680SOL    HW229033   7.901  13.091   6.231 -0.6069 -0.2542  2.1313
 3681SOL     OW29034   3.837   1.531   8.473 -0.1907  0.9787 -0.0318
 3681SOL    HW129035   3.797   1.449   8.502 -1.1110  2.0870  2.0228
 3681SOL    HW229036   3.776   1.566   8.409 -0.4799  0.7081  0.0893
 3682SOL     OW29037   8.376   1.017   8.370  0.2272 -0.8368 -0.1932
 3682SOL    HW129038   8.458   1.064   8.353 -0.1221 -0.4335 -0.7852
 3682SOL    HW229039   8.404   0.931   8.400  0.8807 -0.3541  0.6476
 3683SOL     OW29040  12.720   9.280   6.577  0.6080  0.5216  0.6104
 3683SOL    HW129041  12.632   9.261   6.545  0.8364 -0.3229  0.4496
 3683SOL    HW229042  12.752   9.196   6.609  1.2495  0.8820  0.9251
 3684SOL     OW29043   7.819   8.123   3.861  0.0864 -0.0619  0.2199
 3684SOL    HW129044   7.833   8.206   3.815  2.1670 -0.5560 -0.1527
 3684SOL    HW229045   7.798   8.061   3.791  0.1594 -0.1864  0.3100
 3685SOL     OW29046  10.434  13.544  10.944 -0.1928 -0.1542  0.2070
 3685SOL    HW129047  10.404  13.584  10.863 -2.0495 -1.7528  0.0085
 3685SOL    HW229048  10.510  13.491  10.919 -0.4034 -0.1843 -0.3715
 3686SOL     OW29049   7.790  12.502   9.528  0.5723 -0.1244 -0.0946
 3686SOL    HW129050   7.857  12.459   9.473 -0.5292 -1.1527 -0.6794
 3686SOL    HW229051   7.731  12.544   9.466 -0.2137 -0.5856  0.3166
 3687SOL     OW29052   5.272   4.513  11.204  0.5312  0.0802 -0.0987
 3687SOL    HW129053   5.245   4.455  11.132 -0.3316 -0.0501  0.3242
 3687SOL    HW229054   5.343   4.565  11.166 -0.4433  0.5850 -1.3192
 3688SOL     OW29055   8.326   0.001  10.119  0.1293 -0.7550  0.0931
 3688SOL    HW129056   8.360  -0.046  10.043 -1.0680 -2.2507  0.4221
 3688SOL    HW229057   8.392   0.067  10.139  1.0381 -1.1429 -1.4886
 3689SOL     OW29058   0.449   1.764   1.891  0.1658  0.1476  0.1918
 3689SOL    HW129059   0.479   1.846   1.932  1.2508 -0.8300  1.4340
 3689SOL    HW229060   0.399   1.720   1.959 -0.4077 -0.2481 -0.4738
 3690SOL     OW29061   1.975   2.112   4.218 -0.2740  0.5146 -0.0058
 3690SOL    HW129062   1.975   2.023   4.252  0.7166  0.1649 -0.8728
 3690SOL    HW229063   1.885   2.143   4.232 -0.8580 -0.9051 -0.4237
 3691SOL     OW29064   2.447   4.344   7.077  0.6411  0.5024  0.5066
 3691SOL    HW129065   2.441   4.285   7.151  2.7637 -0.1272  0.2284
 3691SOL    HW229066   2.423   4.430   7.112  1.0734  0.1171  1.7864
 3692SOL     OW29067   2.899  12.455   6.869  0.1393  0.2314 -0.2624
 3692SOL    HW129068   2.939  12.538   6.843 -0.2330  0.2415 -0.8404
 3692SOL    HW229069   2.972  12.396   6.883  0.5068  1.0952  1.7980
 3693SOL     OW29070   1.264  11.861   6.845 -0.2172  0.2510 -0.2143
 3693SOL    HW129071   1.322  11.934   6.821  1.0776 -0.5601  0.3612
 3693SOL    HW229072   1.296  11.787   6.794 -0.3911 -0.3512  0.5403
 3694SOL     OW29073   7.063  11.466   1.275  0.8965  0.0847  0.4212
 3694SOL    HW129074   7.002  11.460   1.349 -0.3549  1.9322 -0.3700
 3694SOL    HW229075   7.072  11.376   1.244 -1.4462 -0.2773  0.5982
 3695SOL     OW29076   9.484   6.515   0.784 -0.2244 -0.1959  0.0433
 3695SOL    HW129077   9.473   6.427   0.749  0.9863 -0.5496  0.5049
 3695SOL    HW229078   9.552   6.554   0.729  2.7704 -1.2386  2.7051
 3696SOL     OW29079   4.321   0.860   0.446 -0.1018  0.1764  0.1741
 3696SOL    HW129080   4.255   0.797   0.474 -0.2819 -0.0426 -0.7009
 3696SOL    HW229081   4.405   0.815   0.457 -0.2447 -0.3318 -0.6865
 3697SOL     OW29082   6.149  13.460   6.236  0.3439  0.7717  0.4402
 3697SOL    HW129083   6.127  13.368   6.218 -1.6735  1.0944  1.0125
 3697SOL    HW229084   6.223  13.479   6.178  2.7251 -2.0054  2.2867
 3698SOL     OW29085   9.195   1.372   2.212  1.0135 -0.2644  0.5762
 3698SOL    HW129086   9.179   1.397   2.121  1.1753 -0.2137  0.5614
 3698SOL    HW229087   9.109   1.376   2.254  0.8674 -0.6930  0.3285
 3699SOL     OW29088   9.646   0.643   9.453  0.2581 -0.0987 -0.2074
 3699SOL    HW129089   9.628   0.550   9.466 -1.0002  0.1186 -0.3340
 3699SOL    HW229090   9.735   0.654   9.486  0.3597 -1.3045 -0.0168
 3700SOL     OW29091  13.045   8.904   7.306 -0.2545  0.4533 -0.1409
 3700SOL    HW129092  13.039   8.995   7.278  1.6078  0.4230 -0.7639
 3700SOL    HW229093  12.962   8.887   7.352 -1.4294  1.8813 -1.6200
 3701SOL     OW29094   0.836   8.893  12.752  0.6048  0.4972 -0.1028
 3701SOL    HW129095   0.761   8.839  12.777  1.1180 -0.3566 -0.3771
 3701SOL    HW229096   0.867   8.931  12.834  2.4164 -2.4534  0.7319
 3702SOL     OW29097   9.027   8.919   2.638 -0.4797  0.0436  0.8047
 3702SOL    HW129098   8.939   8.889   2.614 -0.1023  0.7283 -1.7991
 3702SOL    HW229099   9.080   8.839   2.639 -0.6451 -0.1001 -0.2664
 3703SOL     OW29100   8.203  12.848  12.283  0.0025 -0.1290  0.2577
 3703SOL    HW129101   8.280  12.897  12.310  1.5683 -2.5198  0.3902
 3703SOL    HW229102   8.206  12.848  12.187  1.9423 -2.7288  0.2471
 3704SOL     OW29103  13.551   6.731   4.192 -0.0017  0.4592 -0.2708
 3704SOL    HW129104  13.480   6.775   4.146  0.6544  0.0961 -1.6602
 3704SOL    HW229105  13.532   6.638   4.181  0.0722  0.3683  0.3414
 3705SOL     OW29106   8.963   8.739   5.390 -0.3011  0.5854 -0.9070
 3705SOL    HW129107   8.978   8.650   5.357 -1.4751  0.1508 -0.3137
 3705SOL    HW229108   9.047   8.783   5.377  0.3189 -0.6171 -1.1676
 3706SOL     OW29109   5.707  13.415   7.130 -0.7473 -0.4671  0.0516
 3706SOL    HW129110   5.626  13.364   7.137 -0.0917 -1.4881  0.5022
 3706SOL    HW229111   5.760  13.368   7.065 -0.2358 -0.2101  0.2758
 3707SOL     OW29112   0.517   3.616  11.293 -0.0517 -0.1000 -0.3435
 3707SOL    HW129113   0.535   3.701  11.333 -1.1974  0.1170 -0.2623
 3707SOL    HW229114   0.587   3.559  11.326 -0.0581  0.4668  0.6934
 3708SOL     OW29115   0.980   9.558   4.603 -0.4152 -0.1904  0.0854
 3708SOL    HW129116   1.016   9.471   4.618 -0.5558 -0.6190 -1.8013
 3708SOL    HW229117   0.886   9.545   4.592 -0.1138 -0.3620 -3.3585
 3709SOL     OW29118   3.403   5.964   1.212  0.7710 -0.2230  0.0890
 3709SOL    HW129119   3.471   5.983   1.276  1.1480 -0.6468 -0.1825
 3709SOL    HW229120   3.409   6.035   1.148  1.8024 -0.9310 -0.6198
 3710SOL     OW29121   4.595  12.772  13.836 -0.0500 -0.3043 -0.1801
 3710SOL    HW129122   4.690  12.786  13.836 -0.0444 -0.3125 -0.5939
 3710SOL    HW229123   4.562  12.833  13.769 -0.5369  0.9913  1.1726
 3711SOL     OW29124   3.957   7.528   2.876  0.2668 -0.2411 -0.4518
 3711SOL    HW129125   4.009   7.593   2.829 -0.6474  0.9341  0.0970
 3711SOL    HW229126   3.931   7.572   2.957 -1.5991 -0.7477 -0.7084
 3712SOL     OW29127   7.614   1.366   7.666 -0.1061  0.0323 -0.1186
 3712SOL    HW129128   7.609   1.373   7.571 -1.2720 -0.2301 -0.0862
 3712SOL    HW229129   7.523   1.365   7.695  0.2234  1.7380  1.1338
 3713SOL     OW29130   4.291   2.311   4.964 -0.5184  0.0245 -0.4743
 3713SOL    HW129131   4.380   2.277   4.958 -0.5919 -0.0246 -1.3726
 3713SOL    HW229132   4.300   2.405   4.946 -0.8141 -0.2241 -2.1059
 3714SOL     OW29133   4.109  11.742   1.928  0.5825 -0.0974  0.3562
 3714SOL    HW129134   4.093  11.822   1.977  2.8310 -0.3197  1.5718
 3714SOL    HW229135   4.117  11.674   1.995 -1.3085 -1.4271 -0.6384
 3715SOL     OW29136   0.524   0.852   9.417  0.0541  0.8341 -0.3863
 3715SOL    HW129137   0.558   0.927   9.367 -1.6294  2.2056  0.4008
 3715SOL    HW229138   0.504   0.786   9.350  0.1370  1.6815 -1.2738
 3716SOL     OW29139   2.400  12.815  10.432 -0.0971  0.0071 -0.0576
 3716SOL    HW129140   2.401  12.854  10.345  1.4431  0.1694  0.0044
 3716SOL    HW229141   2.366  12.884  10.489 -2.2462 -0.4926 -0.6652
 3717SOL     OW29142   5.812   2.958  13.823 -0.3176 -0.3258  0.0093
 3717SOL    HW129143   5.853   2.876  13.851  1.1136  0.3591  0.0179
 3717SOL    HW229144   5.817   2.957  13.728  0.1600 -0.0302  0.0291
 3718SOL     OW29145  14.054  13.922   1.856 -0.5525 -0.1012 -0.2590
 3718SOL    HW129146  14.059  13.975   1.777 -0.8445  2.5464  1.4046
 3718SOL    HW229147  14.083  13.835   1.828  0.7905  1.0961 -2.9323
 3719SOL     OW29148   9.449  13.050  13.336 -0.0701  0.2840 -0.1430
 3719SOL    HW129149   9.535  13.092  13.342  0.0627 -0.0789  0.7330
 3719SOL    HW229150   9.445  12.994  13.414 -0.1934 -1.4162 -1.3327
 3720SOL     OW29151   9.693   7.637   6.107 -0.1343  0.8560 -0.3196
 3720SOL    HW129152   9.757   7.703   6.082 -1.9301  2.6465 -0.4367
 3720SOL    HW229153   9.610   7.668   6.069 -1.6682  0.1967  2.2198
 3721SOL     OW29154   4.072   2.320   5.288  0.4206  0.2108  0.2636
 3721SOL    HW129155   4.111   2.240   5.252  0.2240  0.9392 -1.6726
 3721SOL    HW229156   4.142   2.385   5.283  0.0480  0.6069  0.1522
 3722SOL     OW29157  11.222   3.577  13.009  0.0668 -0.4179  0.1275
 3722SOL    HW129158  11.282   3.632  13.059  0.1397  0.8921 -1.3263
 3722SOL    HW229159  11.267   3.493  13.002  0.3056 -0.4571  1.7124
 3723SOL     OW29160   0.922   9.566   4.916 -0.2598  0.1037 -0.1919
 3723SOL    HW129161   1.007   9.556   4.873  0.3823 -1.2457  1.2936
 3723SOL    HW229162   0.897   9.657   4.900  1.9505  0.8239  0.1944
 3724SOL     OW29163   7.263  13.333  12.243 -0.2041  0.2351  0.0873
 3724SOL    HW129164   7.228  13.283  12.317 -2.5696  0.7417 -0.6045
 3724SOL    HW229165   7.222  13.295  12.166  2.6436 -0.6502 -1.1288
 3725SOL     OW29166   5.179   6.279   7.386 -0.5953  0.4080 -0.4071
 3725SOL    HW129167   5.208   6.359   7.342 -1.3582  0.7596 -0.2766
 3725SOL    HW229168   5.260   6.238   7.414 -0.2163  2.7432  2.3772
 3726SOL     OW29169   1.335   9.035   3.925  0.1597 -0.2905 -0.3544
 3726SOL    HW129170   1.349   8.960   3.983 -0.3609 -1.5159 -1.7400
 3726SOL    HW229171   1.243   9.027   3.897 -0.0397  1.1384 -0.1770
 3727SOL     OW29172   5.872  10.442   7.217 -0.2355 -0.2193  0.3135
 3727SOL    HW129173   5.886  10.529   7.256 -1.4810  0.1081  0.0635
 3727SOL    HW229174   5.960  10.415   7.190  0.0054  1.6303 -0.9783
 3728SOL     OW29175   8.621   0.466  10.451  0.3720  0.0163 -0.5533
 3728SOL    HW129176   8.589   0.546  10.491  0.8778 -0.2169  0.3352
 3728SOL    HW229177   8.553   0.401  10.468  1.4813 -0.6245  1.8310
 3729SOL     OW29178   7.498   7.598   1.250  0.0251  0.2613 -0.0559
 3729SOL    HW129179   7.445   7.532   1.295 -0.3776  0.6624  0.0744
 3729SOL    HW229180   7.479   7.680   1.298  1.0024  0.3579  0.1896
 3730SOL     OW29181   3.961   7.472   0.434  0.3031  0.1085 -0.2707
 3730SOL    HW129182   3.936   7.461   0.526  0.0848  0.7462 -0.2459
 3730SOL    HW229183   4.048   7.433   0.427  1.1092  1.6782  0.6293
 3731SOL     OW29184   6.439   1.453  12.051  0.3835 -0.1693  0.1894
 3731SOL    HW129185   6.488   1.534  12.067  0.9816 -0.7051  1.1821
 3731SOL    HW229186   6.406   1.428  12.138 -1.6826  0.1669 -0.4487
 3732SOL     OW29187  11.400   8.872   5.641  0.0026 -0.3546  0.5760
 3732SOL    HW129188  11.479   8.820   5.628 -0.1014 -0.4793  0.4506
 3732SOL    HW229189  11.432   8.962   5.650  0.2457 -0.5254  1.5160
 3733SOL     OW29190  12.724  12.060   5.904  0.3259  0.1072  0.0031
 3733SOL    HW129191  12.773  12.073   5.823  0.5512 -0.8163 -0.0223
 3733SOL    HW229192  12.658  12.129   5.903 -1.0175 -1.0789 -2.0226
 3734SOL     OW29193   9.761   9.006  14.100  0.4427 -0.3723 -0.4715
 3734SOL    HW129194   9.801   8.937  14.152 -0.9992 -1.4524 -0.7564
 3734SOL    HW229195   9.667   8.991  14.106  0.1915 -0.2165 -2.9169
 3735SOL     OW29196   4.105  13.729   6.735  0.0599 -0.7478  0.5923
 3735SOL    HW129197   4.187  13.702   6.777 -0.0118 -0.2127  1.0793
 3735SOL    HW229198   4.096  13.669   6.661  0.9947 -0.6855  0.4137
 3736SOL     OW29199   5.187  13.974  10.791 -0.5152 -0.1315 -0.3145
 3736SOL    HW129200   5.145  14.058  10.806 -0.2963 -0.2136  0.8070
 3736SOL    HW229201   5.149  13.916  10.857 -0.0560 -0.6963 -0.5411
 3737SOL     OW29202   0.456  11.848   9.659 -0.4391  0.0441 -0.3238
 3737SOL    HW129203   0.414  11.762   9.661 -2.2282  0.8302 -1.3895
 3737SOL    HW229204   0.399  11.901   9.604  1.3485  1.5585 -0.8191
 3738SOL     OW29205   2.275  11.270  10.997  0.7910  0.6839 -0.3489
 3738SOL    HW129206   2.200  11.247  10.942  1.8964  1.4104 -2.2555
 3738SOL    HW229207   2.247  11.349  11.044 -1.1818 -1.4484  2.4182
 3739SOL     OW29208   7.261   1.244   5.201 -0.1574  0.0566 -0.1779
 3739SOL    HW129209   7.268   1.329   5.158 -1.7612  0.7820  0.9003
 3739SOL    HW229210   7.328   1.246   5.269 -1.6473  1.4433  1.3433
 3740SOL     OW29211   3.187   6.791   5.723  0.4383  0.5194  0.0255
 3740SOL    HW129212   3.138   6.835   5.792  0.8389 -0.6435  1.0895
 3740SOL    HW229213   3.179   6.698   5.743  1.4546  0.2097 -0.8926
 3741SOL     OW29214  10.480  13.504  11.985 -0.1164  0.0451 -0.4937
 3741SOL    HW129215  10.506  13.587  12.025  0.4749 -0.7527  0.8693
 3741SOL    HW229216  10.392  13.519  11.952  0.1289  1.3228 -0.6073
 3742SOL     OW29217   3.574   7.467   6.891 -0.4727 -0.0732 -0.2826
 3742SOL    HW129218   3.586   7.519   6.811  0.8099 -0.4069 -0.3363
 3742SOL    HW229219   3.620   7.385   6.872  0.5575  0.1559  1.0883
 3743SOL     OW29220  13.804   5.796  11.410 -0.1239  0.1031 -0.2674
 3743SOL    HW129221  13.868   5.859  11.445  0.8854 -0.0941 -1.6604
 3743SOL    HW229222  13.748   5.776  11.484  2.3423 -0.8555  1.4852
 3744SOL     OW29223   6.994   3.899   8.246 -0.2844  0.2843 -0.6647
 3744SOL    HW129224   7.084   3.866   8.246 -0.2451  0.2731  1.1946
 3744SOL    HW229225   6.944   3.831   8.202  0.1093 -1.4410  1.3888
 3745SOL     OW29226  13.033   4.627   2.262 -0.5167  0.2021  0.1304
 3745SOL    HW129227  13.049   4.541   2.222  1.2154  0.3601  0.4079
 3745SOL    HW229228  12.972   4.670   2.202  0.1773 -0.4573 -1.1007
 3746SOL     OW29229   2.483   7.596   5.503 -0.0901  0.8389 -0.2587
 3746SOL    HW129230   2.536   7.571   5.578  0.2104  1.7761 -0.1447
 3746SOL    HW229231   2.422   7.661   5.537 -1.6104 -0.4872 -0.2983
 3747SOL     OW29232  10.401   7.603   3.594 -0.2264 -0.7500 -0.1554
 3747SOL    HW129233  10.403   7.512   3.564 -0.5022  0.2798 -3.7791
 3747SOL    HW229234  10.308   7.622   3.606 -0.3369 -0.4378 -1.3723
 3748SOL     OW29235  13.751   7.782   4.472 -0.0031  0.1760  0.4852
 3748SOL    HW129236  13.739   7.720   4.544  0.7639  1.1926  1.5100
 3748SOL    HW229237  13.702   7.860   4.499 -0.2250  0.3464 -0.3888
 3749SOL     OW29238  13.203   3.041   8.744  0.1941  0.1824 -0.0364
 3749SOL    HW129239  13.276   2.982   8.761  1.2163  1.1270 -0.8912
 3749SOL    HW229240  13.145   2.992   8.687 -0.3440 -0.9158  1.3983
 3750SOL     OW29241   7.229   8.027  12.116 -0.2394 -0.3091  0.3604
 3750SOL    HW129242   7.310   7.976  12.113  0.2210  0.4114  0.3279
 3750SOL    HW229243   7.258   8.118  12.120 -1.0543  0.0309 -1.0141
 3751SOL     OW29244  13.641   7.323   8.974  0.4438  0.1703  0.0963
 3751SOL    HW129245  13.709   7.314   8.907 -0.4307 -2.1406 -0.6136
 3751SOL    HW229246  13.564   7.280   8.934 -0.6746  0.4795  1.8364
 3752SOL     OW29247   0.688   9.364   7.943  0.7527 -0.0881 -0.5326
 3752SOL    HW129248   0.739   9.393   7.868  0.3223 -1.2412 -1.3033
 3752SOL    HW229249   0.701   9.269   7.945 -0.6625 -0.2992 -0.2277
 3753SOL     OW29250   5.651   8.999  13.228  0.2833  0.1148 -0.5321
 3753SOL    HW129251   5.732   8.952  13.205  1.0625  1.6267 -1.0324
 3753SOL    HW229252   5.595   8.989  13.151 -0.3328 -1.5443  0.0928
 3754SOL     OW29253  13.633   0.839   4.594 -0.1941  0.3731 -0.3718
 3754SOL    HW129254  13.564   0.862   4.657  0.2808  0.2697  0.1890
 3754SOL    HW229255  13.585   0.809   4.517 -0.7921  1.1592 -0.3195
 3755SOL     OW29256   5.203   8.360  11.970  0.4231  0.6654 -0.3514
 3755SOL    HW129257   5.186   8.397  12.057 -1.5886  1.2075 -0.9270
 3755SOL    HW229258   5.119   8.323  11.943  0.9465  0.7128 -2.1712
 3756SOL     OW29259  10.591   7.362  13.031 -0.4551  0.0731  0.9352
 3756SOL    HW129260  10.686   7.365  13.023 -0.5876  2.5883 -0.6961
 3756SOL    HW229261  10.575   7.306  13.108  2.2095 -1.9480  0.1445
 3757SOL     OW29262  10.499  13.021   7.165 -0.3907 -0.2965 -0.1086
 3757SOL    HW129263  10.446  13.071   7.228 -1.3024  1.3629 -2.0484
 3757SOL    HW229264  10.494  12.931   7.195 -0.9319  0.3949  2.0617
 3758SOL     OW29265   3.857   0.508  10.449  0.1397  0.1373 -0.2853
 3758SOL    HW129266   3.852   0.599  10.422 -1.3533 -0.1112 -0.9901
 3758SOL    HW229267   3.776   0.469  10.415  0.3354 -1.2459  0.7382
 3759SOL     OW29268   0.086   0.487   1.828  0.4396 -0.5761  0.6762
 3759SOL    HW129269   0.159   0.536   1.865 -0.3557  1.3975 -0.2269
 3759SOL    HW229270   0.117   0.457   1.743 -0.3314  1.9786 -0.6188
 3760SOL     OW29271  12.290  12.664   2.290 -0.1580  0.7445  0.0458
 3760SOL    HW129272  12.358  12.618   2.241 -0.8706 -0.3192  0.0282
 3760SOL    HW229273  12.318  12.658   2.382 -0.1601  0.4409  0.0259
 3761SOL     OW29274   6.300   9.176  10.232 -0.2685 -0.2749 -0.4654
 3761SOL    HW129275   6.279   9.167  10.325 -2.5056 -0.8986 -0.9688
 3761SOL    HW229276   6.371   9.240  10.229 -1.9725  1.8877  1.5089
 3762SOL     OW29277   9.449   1.975   6.200 -0.1145  0.3840  0.1127
 3762SOL    HW129278   9.430   1.985   6.293  0.1890  1.7522  0.0430
 3762SOL    HW229279   9.366   1.948   6.161 -0.5086  0.8336  0.6287
 3763SOL     OW29280   6.040   5.558   0.012 -0.2643 -0.4334  0.2722
 3763SOL    HW129281   6.023   5.472   0.050  2.4481 -1.7269 -1.1612
 3763SOL    HW229282   6.131   5.578   0.036  0.4405  0.2198 -2.5449
 3764SOL     OW29283   1.611  12.377   4.196  0.5282 -0.2016 -0.6110
 3764SOL    HW129284   1.578  12.466   4.198  0.8426 -0.0830  0.7040
 3764SOL    HW229285   1.706  12.387   4.201  0.6637 -0.5914 -1.9556
 3765SOL     OW29286   9.474   8.745  11.153 -0.5061 -0.0856  0.8718
 3765SOL    HW129287   9.458   8.650  11.157 -0.1597 -0.2516 -0.6867
 3765SOL    HW229288   9.517   8.766  11.235 -1.1232 -1.1776  1.4968
 3766SOL     OW29289   4.759   5.425  12.626 -0.0587 -0.1921  0.0174
 3766SOL    HW129290   4.785   5.492  12.688 -0.8124 -0.3927  0.5705
 3766SOL    HW229291   4.707   5.472  12.560 -2.8952 -0.5588  1.8321
 3767SOL     OW29292   9.284   9.721   9.258 -0.1403 -0.0855 -0.4368
 3767SOL    HW129293   9.374   9.695   9.276 -0.3109 -1.6899 -1.6764
 3767SOL    HW229294   9.292   9.791   9.193  0.1911 -0.5554 -0.9036
 3768SOL     OW29295   3.708   7.402   0.811 -0.3602 -0.9158  0.2909
 3768SOL    HW129296   3.665   7.464   0.753  0.5208 -0.0780  0.4957
 3768SOL    HW229297   3.799   7.400   0.781  0.0674 -0.6140  1.4776
 3769SOL     OW29298   1.741   4.748  10.897  0.1710 -0.0179 -0.1870
 3769SOL    HW129299   1.730   4.706  10.812  1.4124  2.3619 -1.6332
 3769SOL    HW229300   1.835   4.755  10.908  0.0103  0.7477  0.8446
 3770SOL     OW29301  11.997   2.889  11.801  0.1279 -0.0222  0.3062
 3770SOL    HW129302  12.045   2.971  11.790 -0.2175  0.2120  0.5412
 3770SOL    HW229303  11.958   2.873  11.715  0.2009  0.0595  0.2575
 3771SOL     OW29304   4.522   2.150  10.069  0.4859  0.2723  0.6315
 3771SOL    HW129305   4.513   2.086  10.139 -0.4162  0.4224  0.6755
 3771SOL    HW229306   4.432   2.178  10.050  0.8741  1.8415  0.9186
 3772SOL     OW29307   8.049   7.171  11.410  0.1898 -0.0425 -0.5798
 3772SOL    HW129308   8.119   7.226  11.445 -0.2465 -0.9046  1.8543
 3772SOL    HW229309   7.968   7.215  11.436 -0.1693 -0.5506 -0.8140
 3773SOL     OW29310   1.241   7.743   3.651  0.2125  0.3516  0.4064
 3773SOL    HW129311   1.332   7.714   3.641  0.2421  0.1654  1.1678
 3773SOL    HW229312   1.219   7.724   3.742 -1.2274 -1.4389 -0.2394
 3774SOL     OW29313  12.091   0.827  11.040  0.2376  0.1567 -0.0514
 3774SOL    HW129314  12.063   0.842  11.130 -0.0463 -0.1137 -0.0952
 3774SOL    HW229315  12.152   0.754  11.046  0.1175  0.0535 -0.0984
 3775SOL     OW29316  12.558   6.775  13.566 -0.7463 -0.5378 -0.0055
 3775SOL    HW129317  12.571   6.856  13.614 -1.2387 -0.3742 -0.1411
 3775SOL    HW229318  12.532   6.711  13.633  2.4612 -1.3724  0.5955
 3776SOL     OW29319   9.682   0.941   6.537  0.4029 -0.3569  0.0220
 3776SOL    HW129320   9.709   0.934   6.445  0.2850 -0.3734 -0.0117
 3776SOL    HW229321   9.751   0.993   6.579  0.6812 -0.7219  0.0187
 3777SOL     OW29322   5.165  13.515   9.053 -0.1412 -0.0181  0.7573
 3777SOL    HW129323   5.175  13.495   9.147  3.4406 -1.5777  0.2343
 3777SOL    HW229324   5.161  13.429   9.011 -1.5311  0.6571 -0.5788
 3778SOL     OW29325  10.712   2.757   4.844 -0.2262  0.3457  0.1375
 3778SOL    HW129326  10.647   2.819   4.811 -0.8350  0.8030  2.0733
 3778SOL    HW229327  10.670   2.672   4.836 -0.8620  0.5835  0.8547
 3779SOL     OW29328   7.574   3.202   0.587  0.3533  0.2158 -0.1024
 3779SOL    HW129329   7.489   3.171   0.557  0.1440  0.5127  0.1754
 3779SOL    HW229330   7.560   3.295   0.606  1.2234  0.8026 -1.9881
 3780SOL     OW29331  12.544   9.809  13.111  0.4613 -0.0941  0.2241
 3780SOL    HW129332  12.459   9.819  13.067  0.4810  0.7495  0.3612
 3780SOL    HW229333  12.522   9.798  13.203  0.5001  0.0758  0.2533
 3781SOL     OW29334   6.430   4.902   3.354  0.0342  0.0246 -0.0343
 3781SOL    HW129335   6.487   4.827   3.338 -0.3095  0.0138 -1.2725
 3781SOL    HW229336   6.346   4.863   3.377  0.6432  0.0288  2.5337
 3782SOL     OW29337   3.700   6.349  14.026 -0.5310 -0.2242  0.0060
 3782SOL    HW129338   3.650   6.275  14.060 -1.0776 -1.2487 -2.7780
 3782SOL    HW229339   3.637   6.401  13.977  0.8449 -0.9832 -2.7299
 3783SOL     OW29340   9.566   0.403   8.402  0.0648  0.7098 -0.1188
 3783SOL    HW129341   9.660   0.414   8.418 -0.2308 -0.3792  3.0667
 3783SOL    HW229342   9.561   0.333   8.337  1.5287 -2.0903  2.5360
 3784SOL     OW29343   2.884   2.425  14.139 -0.9326 -0.2113 -0.1356
 3784SOL    HW129344   2.930   2.344  14.161 -0.4864 -0.1634 -0.8555
 3784SOL    HW229345   2.887   2.429  14.043 -0.5823  0.8755 -0.0907
 3785SOL     OW29346  13.244   8.206   8.445  0.6598 -0.1463 -0.1702
 3785SOL    HW129347  13.214   8.237   8.530 -1.1531 -0.3659 -0.6849
 3785SOL    HW229348  13.279   8.285   8.402 -0.4721  0.4423 -0.0569
 3786SOL     OW29349   0.788   0.279   7.488  0.5290 -0.7613  0.5002
 3786SOL    HW129350   0.858   0.334   7.452 -0.0023 -0.4734 -0.1110
 3786SOL    HW229351   0.786   0.202   7.430 -1.2508  0.3317 -0.9974
 3787SOL     OW29352   0.057   0.821   3.193  0.3497 -0.7392  0.0286
 3787SOL    HW129353  -0.020   0.837   3.248 -0.6800  1.4833 -1.8708
 3787SOL    HW229354   0.040   0.737   3.152  0.5808 -1.8689  2.1049
 3788SOL     OW29355   9.338   0.113   6.429  0.1930 -0.1605 -0.1154
 3788SOL    HW129356   9.404   0.137   6.494  0.1729  0.9387 -0.4826
 3788SOL    HW229357   9.283   0.191   6.421 -0.1786 -0.4994 -0.9963
 3789SOL     OW29358   8.116  13.058   5.338  0.2526  0.3043 -0.1692
 3789SOL    HW129359   8.113  13.026   5.428  0.3255  0.6032 -0.0595
 3789SOL    HW229360   8.200  13.025   5.304  1.5192  2.4203  0.7288
 3790SOL     OW29361   9.547   4.591   5.501 -0.2688 -0.3405  0.0989
 3790SOL    HW129362   9.619   4.654   5.505 -1.4439  1.3843 -2.5291
 3790SOL    HW229363   9.479   4.628   5.558 -0.6749  0.4471 -0.8615
 3791SOL     OW29364   7.110  12.682   1.989 -0.3055  0.4697  0.1184
 3791SOL    HW129365   7.163  12.606   2.012  0.2773  0.9295  0.3111
 3791SOL    HW229366   7.020  12.651   1.998 -0.1532 -1.0488 -2.5740
 3792SOL     OW29367  13.506   3.687   4.220  0.0663 -0.0092  0.0423
 3792SOL    HW129368  13.492   3.628   4.295 -2.1492  1.7646  1.1772
 3792SOL    HW229369  13.456   3.766   4.243 -0.2214  0.8394 -3.0660
 3793SOL     OW29370  13.569   9.482  10.435  0.2261  0.1255 -0.3675
 3793SOL    HW129371  13.565   9.389  10.457  0.3819 -0.2947 -1.9804
 3793SOL    HW229372  13.642   9.516  10.486  1.9897 -1.2744 -1.8302
 3794SOL     OW29373   9.575   8.015   4.827 -0.3978 -0.3209  0.2316
 3794SOL    HW129374   9.483   8.039   4.832 -0.2932 -0.0849  1.1202
 3794SOL    HW229375   9.603   8.045   4.741 -1.1145 -0.2760  0.0111
 3795SOL     OW29376   3.356   0.480  11.469  0.5195  0.2934 -0.0630
 3795SOL    HW129377   3.416   0.554  11.462  0.5261  0.5089  1.7822
 3795SOL    HW229378   3.275   0.512  11.429  0.2322  1.6659  1.5092
 3796SOL     OW29379  11.454   7.940  10.264 -0.6379 -0.3311 -0.2275
 3796SOL    HW129380  11.376   7.905  10.222 -0.4726  0.3448 -1.1355
 3796SOL    HW229381  11.426   7.961  10.353 -1.7405  0.6785 -0.7849
 3797SOL     OW29382   1.173   7.223  10.380  0.0146  0.0628  0.3427
 3797SOL    HW129383   1.265   7.198  10.372  0.3620  0.9876  1.1662
 3797SOL    HW229384   1.140   7.167  10.451 -0.6826 -1.8228 -1.3676
 3798SOL     OW29385   3.031   7.829  11.417  0.8316 -0.3756 -0.2880
 3798SOL    HW129386   2.970   7.859  11.483  3.2081  0.9935  1.4406
 3798SOL    HW229387   3.086   7.764  11.462  1.5101 -0.5940 -1.3765
 3799SOL     OW29388   8.477   6.251   5.966  0.6938  0.3723  0.2432
 3799SOL    HW129389   8.462   6.279   6.056  1.0021  2.6639 -0.3538
 3799SOL    HW229390   8.572   6.253   5.955  0.6361  0.6224 -0.2536
 3800SOL     OW29391   2.413   6.476  12.225 -0.0466 -0.4056 -0.6855
 3800SOL    HW129392   2.349   6.500  12.292  1.7799  2.4168  0.2239
 3800SOL    HW229393   2.360   6.440  12.154 -2.4280  0.0208  0.7534
 3801SOL     OW29394   2.328   9.595   6.778 -0.1791 -0.3628  0.1094
 3801SOL    HW129395   2.297   9.634   6.860 -1.1571  0.8318 -0.7984
 3801SOL    HW229396   2.271   9.519   6.764  1.4173 -1.9728  1.6248
 3802SOL     OW29397   4.449  11.004  11.085  0.0326 -0.7021 -0.0397
 3802SOL    HW129398   4.386  10.937  11.056 -0.5050 -0.4323  0.5004
 3802SOL    HW229399   4.463  11.058  11.007  1.2628 -2.0411 -0.7840
 3803SOL     OW29400  13.402   3.985   8.358 -0.1397 -0.1638  0.2588
 3803SOL    HW129401  13.480   3.997   8.412 -0.2701  2.0641  0.0271
 3803SOL    HW229402  13.430   4.004   8.269 -1.2945  2.9138  0.4100
 3804SOL     OW29403   1.287  10.828  11.575  0.1078 -0.1976  0.1651
 3804SOL    HW129404   1.218  10.866  11.521  1.5228  2.0728 -0.1683
 3804SOL    HW229405   1.243  10.806  11.657 -0.6712  3.4217  0.8841
 3805SOL     OW29406  10.153   8.126  10.808  0.3413  0.0796 -0.7522
 3805SOL    HW129407  10.221   8.152  10.746  1.0265 -0.2613 -0.1555
 3805SOL    HW229408  10.071   8.133  10.758  1.0125 -1.8437 -2.2456
 3806SOL     OW29409   7.055   3.495   8.318 -0.2343 -0.1605  0.0722
 3806SOL    HW129410   7.106   3.445   8.381 -0.7261 -0.1652  0.4725
 3806SOL    HW229411   7.113   3.507   8.243 -1.4650 -5.2096 -2.0651
 3807SOL     OW29412   5.560  11.097  10.993  0.3651 -0.1500  0.3590
 3807SOL    HW129413   5.608  11.148  11.059  0.2671  0.5350 -0.0896
 3807SOL    HW229414   5.542  11.160  10.923  0.3086 -0.8287 -0.2392
 3808SOL     OW29415  13.441   8.016   6.762 -0.1134 -0.4370 -0.3915
 3808SOL    HW129416  13.398   7.998   6.678  0.5069  0.2598 -0.8774
 3808SOL    HW229417  13.462   7.930   6.798 -1.0044 -0.7608 -0.6196
 3809SOL     OW29418   0.615   1.265  13.665  0.1882  0.1237 -0.0203
 3809SOL    HW129419   0.581   1.338  13.717  0.0749 -0.2968  0.5027
 3809SOL    HW229420   0.658   1.307  13.590 -0.5830  0.6959 -0.1558
 3810SOL     OW29421  13.127   9.622  11.311 -0.1047  0.0658 -0.3814
 3810SOL    HW129422  13.221   9.640  11.317  0.1962 -1.3515 -0.4512
 3810SOL    HW229423  13.095   9.687  11.248  0.7698  0.7343 -0.1652
 3811SOL     OW29424  13.457   0.158   9.465 -0.1426 -0.3232  0.2017
 3811SOL    HW129425  13.456   0.148   9.370 -1.7011 -0.1903  0.1794
 3811SOL    HW229426  13.422   0.075   9.498 -0.8634  0.1183  0.5858
 3812SOL     OW29427   6.997   7.338  11.948  0.2193 -0.1410  0.2544
 3812SOL    HW129428   7.062   7.363  11.884  0.1276  1.4829  0.7457
 3812SOL    HW229429   7.027   7.378  12.030 -0.9692 -0.0214  0.6558
 3813SOL     OW29430   5.631   9.555   4.741 -0.1579 -0.0301 -0.1419
 3813SOL    HW129431   5.638   9.576   4.648 -0.9390 -2.3647 -0.7973
 3813SOL    HW229432   5.580   9.627   4.778 -0.6663  0.4629 -1.6965
 3814SOL     OW29433   1.209   0.107   0.236 -0.7396 -0.7341  0.1835
 3814SOL    HW129434   1.218   0.012   0.247  0.7528 -0.7772 -1.0755
 3814SOL    HW229435   1.131   0.130   0.287 -0.4761 -2.4517  1.4489
 3815SOL     OW29436   1.449   3.515   8.954  0.4676  0.1038 -0.5386
 3815SOL    HW129437   1.512   3.460   9.000 -0.5000 -0.4364  0.1807
 3815SOL    HW229438   1.379   3.529   9.018  1.2175  3.2035 -0.2417
 3816SOL     OW29439   3.886   4.982   4.024  0.0352  0.1699  0.3518
 3816SOL    HW129440   3.977   5.012   4.019 -0.3113  1.4166  1.0355
 3816SOL    HW229441   3.890   4.903   4.078  0.8253 -0.3572 -0.4493
 3817SOL     OW29442   1.041   7.629  12.018 -0.0654  0.0031  0.0538
 3817SOL    HW129443   1.066   7.548  12.063 -1.3646 -0.4131  0.0701
 3817SOL    HW229444   1.031   7.603  11.926  0.9565  0.4906 -0.2138
 3818SOL     OW29445   8.340   5.437   3.262  0.0820  0.7558 -0.0855
 3818SOL    HW129446   8.431   5.415   3.239  0.1095  2.0154 -1.3135
 3818SOL    HW229447   8.344   5.529   3.290 -0.7666  0.7089  0.2194
 3819SOL     OW29448   6.839   1.241   7.007 -0.4185 -0.1801  0.1873
 3819SOL    HW129449   6.915   1.289   6.973 -0.2081  0.2906  1.2870
 3819SOL    HW229450   6.862   1.221   7.097 -1.8122  0.4204  0.6955
 3820SOL     OW29451  10.599   0.053   3.117  0.9306  0.4143  0.1887
 3820SOL    HW129452  10.621   0.012   3.200  2.3636  1.9562  0.6149
 3820SOL    HW229453  10.654   0.007   3.052  1.0153  0.2997  0.3416
 3821SOL     OW29454  11.038   8.311   2.539 -0.5839 -0.5047 -0.4711
 3821SOL    HW129455  11.020   8.328   2.447  1.4270  0.1849 -0.7868
 3821SOL    HW229456  10.983   8.373   2.586 -0.5210  0.1741 -1.2691
 3822SOL     OW29457   1.293  11.425  12.085 -0.2054  0.3516  0.3388
 3822SOL    HW129458   1.230  11.424  12.157  0.4768 -0.4957  0.9347
 3822SOL    HW229459   1.371  11.382  12.120 -0.4656 -1.7147 -1.4374
 3823SOL     OW29460  11.762   3.259   2.337 -0.1838 -0.0013  0.0591
 3823SOL    HW129461  11.689   3.260   2.276  0.0726 -0.8088 -0.2733
 3823SOL    HW229462  11.840   3.262   2.282  0.0586 -1.3300  0.3076
 3824SOL     OW29463  10.114  13.851   3.538 -0.1702  0.5420 -0.2206
 3824SOL    HW129464  10.165  13.858   3.619  0.2196 -3.0399 -0.0352
 3824SOL    HW229465  10.172  13.805   3.478 -1.6106  0.3839 -1.5243
 3825SOL     OW29466   2.042   0.358   0.742  0.2929  0.1682 -0.5545
 3825SOL    HW129467   1.972   0.422   0.755 -0.4971 -0.6295 -0.7801
 3825SOL    HW229468   2.031   0.296   0.815 -0.1000 -0.7076 -1.3387
 3826SOL     OW29469   9.545  10.982   0.555 -0.3699  0.4730  0.1850
 3826SOL    HW129470   9.627  10.945   0.523 -1.5352 -0.3194 -2.0661
 3826SOL    HW229471   9.525  10.931   0.633  1.5122  1.0498  1.1087
 3827SOL     OW29472   8.722  11.033   3.694  0.1904 -0.2381  0.1234
 3827SOL    HW129473   8.777  11.025   3.771 -1.8221 -0.9457  1.5774
 3827SOL    HW229474   8.641  10.986   3.717 -1.5679  1.8389 -1.3407
 3828SOL     OW29475  13.179   7.821   7.486 -0.1665  0.2811 -0.2009
 3828SOL    HW129476  13.162   7.841   7.394  0.3119 -1.4021 -0.6878
 3828SOL    HW229477  13.115   7.753   7.508 -0.8488  1.2747  0.9781
 3829SOL     OW29478   0.508  10.417   6.592  0.2180 -0.8770  0.1238
 3829SOL    HW129479   0.592  10.406   6.548  0.6600  0.8117  0.4632
 3829SOL    HW229480   0.461  10.482   6.539 -1.1501 -2.2251 -0.3987
 3830SOL     OW29481  13.768   5.671   8.990  0.3746  0.1850  0.2899
 3830SOL    HW129482  13.707   5.695   8.920  0.8954 -0.0362 -0.2450
 3830SOL    HW229483  13.714   5.622   9.053 -0.3965  1.5291  0.7173
 3831SOL     OW29484  10.381   4.330   2.634 -0.5747 -0.1777 -0.2318
 3831SOL    HW129485  10.414   4.387   2.564  0.4199 -0.1393  0.2504
 3831SOL    HW229486  10.459   4.290   2.671 -1.1982 -1.2499 -0.0268
 3832SOL     OW29487  10.894  11.187  12.005  0.3139 -0.1599  0.4205
 3832SOL    HW129488  10.931  11.134  12.076 -0.7094 -0.9693  0.3705
 3832SOL    HW229489  10.949  11.167  11.929  1.0822  0.3005  0.8408
 3833SOL     OW29490   8.168  11.063   0.252 -0.4341 -0.2386  0.4075
 3833SOL    HW129491   8.158  11.032   0.343 -0.9787 -0.7172  0.1917
 3833SOL    HW229492   8.137  10.990   0.199 -0.4317  0.1694 -0.1602
 3834SOL     OW29493   7.561   3.225   7.618 -0.5638  0.5013  0.6709
 3834SOL    HW129494   7.476   3.181   7.628 -0.7168  0.9708  1.4955
 3834SOL    HW229495   7.576   3.268   7.702  0.5182  0.3942  0.5434
 3835SOL     OW29496   7.916   8.136   6.683  0.0335  0.1600 -0.5227
 3835SOL    HW129497   7.882   8.106   6.599  2.4549  0.4539 -1.7128
 3835SOL    HW229498   7.970   8.064   6.715 -0.5596  0.1968  0.6235
 3836SOL     OW29499   8.810  11.090   0.424  0.1569  0.1379 -0.0235
 3836SOL    HW129500   8.904  11.104   0.415  0.3741 -1.7269 -1.3380
 3836SOL    HW229501   8.770  11.152   0.363  0.6436 -0.2048 -0.6962
 3837SOL     OW29502   9.357  11.734  11.863  0.8879 -0.0381 -0.5168
 3837SOL    HW129503   9.448  11.749  11.836  1.1262  0.3508  0.4816
 3837SOL    HW229504   9.360  11.730  11.958 -0.2387  0.6764 -0.4331
 3838SOL     OW29505   2.026  13.377   3.083  0.0686  0.0704 -0.3448
 3838SOL    HW129506   2.095  13.374   3.149 -0.1855  0.6087 -0.0489
 3838SOL    HW229507   2.069  13.404   3.002  0.3294 -0.3064 -0.3330
 3839SOL     OW29508   7.608   3.279  13.617 -0.4927 -0.1065  0.0173
 3839SOL    HW129509   7.675   3.283  13.549 -1.0932  0.9705 -0.5488
 3839SOL    HW229510   7.642   3.216  13.681  0.3906 -0.6398 -0.9435
 3840SOL     OW29511   8.262   9.023   0.914  0.0512 -0.5676 -0.3678
 3840SOL    HW129512   8.293   9.086   0.979  1.3393 -1.7713  0.2452
 3840SOL    HW229513   8.342   8.982   0.881 -0.5571  0.0117 -2.7600
 3841SOL     OW29514  12.433  10.116   0.272 -0.1823 -0.2248  0.5270
 3841SOL    HW129515  12.359  10.174   0.291 -0.5387 -0.3230 -0.5106
 3841SOL    HW229516  12.502  10.175   0.243 -0.2208 -0.2287  0.4266
 3842SOL     OW29517   3.106  11.676  11.539  1.0885 -0.0591  0.4700
 3842SOL    HW129518   3.166  11.641  11.473  1.0143 -0.0539  0.3990
 3842SOL    HW229519   3.055  11.742  11.492 -2.7050 -3.6092 -1.0476
 3843SOL     OW29520   7.961  10.209  12.365  0.0500 -0.1656  0.0447
 3843SOL    HW129521   8.021  10.179  12.297 -0.5786  0.1916 -0.6924
 3843SOL    HW229522   7.986  10.301  12.379  1.1520 -0.6415  1.3909
 3844SOL     OW29523   2.549   7.010   3.842  0.4559  0.0560 -0.2214
 3844SOL    HW129524   2.627   6.956   3.826  1.0915  0.9026 -0.0809
 3844SOL    HW229525   2.497   7.001   3.763  0.5176 -0.8090 -0.1743
 3845SOL     OW29526   9.180  14.008   1.341 -0.4962 -0.0782  0.1744
 3845SOL    HW129527   9.258  14.000   1.287 -0.4297 -1.8066  0.4920
 3845SOL    HW229528   9.119  13.943   1.306 -2.3783  2.1123 -0.9458
 3846SOL     OW29529   0.758  13.359   0.567 -0.0014 -0.8166 -0.2661
 3846SOL    HW129530   0.838  13.359   0.620 -0.7625  0.4022  0.9755
 3846SOL    HW229531   0.688  13.375   0.631 -1.0076  0.2033 -1.5817
 3847SOL     OW29532   5.936   7.933   3.941 -0.1607 -0.0995 -0.2946
 3847SOL    HW129533   5.871   8.004   3.936  1.1802  1.2403  0.5014
 3847SOL    HW229534   5.931   7.891   3.855 -1.4254  0.5432 -0.5742
 3848SOL     OW29535  10.897  10.411   1.262  0.1885  0.4870  0.1532
 3848SOL    HW129536  10.874  10.463   1.339  1.2655  0.3390  0.6044
 3848SOL    HW229537  10.949  10.471   1.208  2.0626 -0.2747  1.0205
 3849SOL     OW29538  13.969   9.676  12.934 -0.1842 -0.6981 -0.3498
 3849SOL    HW129539  14.059   9.707  12.949 -0.2422  0.3004 -1.8106
 3849SOL    HW229540  13.915   9.733  12.988  0.0576 -1.3895  0.6404
 3850SOL     OW29541   9.596   5.574   9.003 -0.6967  0.6594  0.3890
 3850SOL    HW129542   9.535   5.560   9.075  0.1199  1.1650  1.2007
 3850SOL    HW229543   9.682   5.553   9.040 -0.4564 -1.1091 -1.0408
 3851SOL     OW29544  12.560  10.475   8.470  0.2752 -0.6308  0.2723
 3851SOL    HW129545  12.569  10.397   8.415  0.7306 -0.5528  0.2259
 3851SOL    HW229546  12.579  10.548   8.411  1.9539 -0.6063  0.7668
 3852SOL     OW29547  10.538  13.382   4.469 -0.2588  0.6173 -0.0917
 3852SOL    HW129548  10.477  13.436   4.420  0.8617 -0.8252 -3.4227
 3852SOL    HW229549  10.619  13.385   4.417  0.7355 -1.8342  1.1411
 3853SOL     OW29550  13.429   6.498   9.966  0.1584  0.2548 -0.7760
 3853SOL    HW129551  13.444   6.454   9.882  0.4784  0.0960 -0.6380
 3853SOL    HW229552  13.404   6.587   9.942  0.4162  0.2598 -1.0378
 3854SOL     OW29553  12.483   5.938  12.756  0.4758 -0.3425  0.6322
 3854SOL    HW129554  12.565   5.961  12.799  0.5948 -2.2659  1.5263
 3854SOL    HW229555  12.496   5.848  12.724 -0.5241  0.1066 -1.1924
 3855SOL     OW29556   8.844   4.447   4.513 -0.8153  0.2394 -0.5939
 3855SOL    HW129557   8.889   4.366   4.489 -0.5417  0.6485 -1.5041
 3855SOL    HW229558   8.909   4.498   4.560 -0.7661  0.2309 -0.6530
 3856SOL     OW29559   7.531   8.501  12.060  0.2665 -0.0103  0.3926
 3856SOL    HW129560   7.588   8.447  12.006 -0.2742  0.8638 -1.1016
 3856SOL    HW229561   7.499   8.569  12.002 -3.2783 -1.1242  0.7508
 3857SOL     OW29562   1.388   1.477   2.385  0.0302 -0.3926 -0.0414
 3857SOL    HW129563   1.425   1.476   2.474 -0.9647 -1.6383  0.3874
 3857SOL    HW229564   1.456   1.439   2.330  0.4106 -0.1999  0.2886
 3858SOL     OW29565   4.767   2.112   4.367 -0.1180 -0.1754  0.3928
 3858SOL    HW129566   4.674   2.117   4.387 -0.3050 -0.4021 -0.4009
 3858SOL    HW229567   4.807   2.078   4.447 -0.7586 -0.4542  0.5995
 3859SOL     OW29568   8.882  10.610   8.081  0.4554  0.0279  0.2746
 3859SOL    HW129569   8.815  10.638   8.020  0.3100 -0.4816  0.1909
 3859SOL    HW229570   8.908  10.523   8.050 -0.6125 -0.8466  1.7310
 3860SOL     OW29571  13.972  10.791   8.416  0.2160 -0.2025  0.4615
 3860SOL    HW129572  13.959  10.875   8.459 -0.1583  0.6023 -1.1596
 3860SOL    HW229573  13.926  10.728   8.471  1.1239  0.5126  2.0905
 3861SOL     OW29574   4.726  11.959   7.640  0.6482 -0.1995 -0.4220
 3861SOL    HW129575   4.633  11.937   7.644  0.9348 -1.3057  1.1608
 3861SOL    HW229576   4.749  11.951   7.547 -0.5734 -1.0740 -0.6686
 3862SOL     OW29577   3.964  12.706   0.644 -0.1512 -0.3290  0.4626
 3862SOL    HW129578   3.890  12.697   0.703 -0.4050 -0.9732  0.0577
 3862SOL    HW229579   4.039  12.723   0.701 -0.3165 -1.3434  0.9997
 3863SOL     OW29580   7.278   3.921   5.909 -0.3477  0.0332  0.5507
 3863SOL    HW129581   7.332   3.930   5.830 -0.1070 -0.1466  0.6964
 3863SOL    HW229582   7.274   3.827   5.925  0.1197  0.1072  1.1114
 3864SOL     OW29583   2.620  12.449  10.705 -0.4298  0.0672 -0.3128
 3864SOL    HW129584   2.566  12.487  10.635 -2.0505 -0.4806  0.5804
 3864SOL    HW229585   2.564  12.454  10.783  0.9143 -0.3454  0.7095
 3865SOL     OW29586   2.910   7.051   2.040  0.5167 -0.3556 -0.1815
 3865SOL    HW129587   2.914   6.969   1.991  1.8397  1.0642 -2.6686
 3865SOL    HW229588   3.001   7.081   2.044  0.0336  1.1236  0.4139
 3866SOL     OW29589   4.237  12.995   8.969 -0.8252 -0.0298 -0.2212
 3866SOL    HW129590   4.183  13.074   8.958 -1.0293  0.2373  2.2074
 3866SOL    HW229591   4.174  12.926   8.990 -0.6169 -0.8482 -2.0666
 3867SOL     OW29592   1.311  13.946   8.732  0.1426  0.3400 -0.2468
 3867SOL    HW129593   1.340  13.956   8.641 -1.0692 -0.4623 -0.7443
 3867SOL    HW229594   1.237  14.006   8.740 -0.7274 -0.7287 -0.2455
 3868SOL     OW29595  12.789   1.053   3.419  0.0115  0.1819 -0.4454
 3868SOL    HW129596  12.700   1.017   3.428  0.5420 -0.8967  0.8700
 3868SOL    HW229597  12.834   0.991   3.361  0.1815  0.1732 -0.3053
 3869SOL     OW29598  10.104   3.056   8.754 -0.1562 -0.6345 -0.0238
 3869SOL    HW129599  10.045   3.051   8.830 -0.0178  2.2434  0.3721
 3869SOL    HW229600  10.190   3.073   8.792  0.0992 -0.1910 -0.7940
 3870SOL     OW29601   8.008   7.817   4.542 -0.0605 -0.6400 -0.1271
 3870SOL    HW129602   8.057   7.770   4.609  1.1267  1.1266  0.3013
 3870SOL    HW229603   8.075   7.854   4.485 -0.9851 -0.0208 -0.8426
 3871SOL     OW29604   6.910   2.981   5.651  0.1298  0.1592  0.1892
 3871SOL    HW129605   6.904   3.047   5.582 -0.1227 -0.1900 -0.1290
 3871SOL    HW229606   6.978   3.013   5.709  1.1545 -0.0890 -0.8296
 3872SOL     OW29607   4.858  10.729   3.567  0.0113  0.7037  0.4686
 3872SOL    HW129608   4.918  10.744   3.494  0.2651 -0.1384  0.4946
 3872SOL    HW229609   4.910  10.682   3.632 -1.1212 -1.7365 -0.2644
 3873SOL     OW29610   7.864   6.203  10.989  0.2027 -0.1216 -0.5128
 3873SOL    HW129611   7.880   6.109  10.978 -0.4023 -0.0685 -2.1945
 3873SOL    HW229612   7.778   6.207  11.032  0.3780 -0.3343 -0.1375
 3874SOL     OW29613   7.396   2.393  13.405  0.2577  0.6012  0.0495
 3874SOL    HW129614   7.452   2.319  13.381 -1.6635 -0.7260 -0.5522
 3874SOL    HW229615   7.388   2.387  13.500 -2.2142 -1.8638 -0.1783
 3875SOL     OW29616   8.000   0.883   8.439 -0.0027 -0.4036  0.5899
 3875SOL    HW129617   7.992   0.814   8.373 -0.0623 -1.4482  1.6421
 3875SOL    HW229618   7.972   0.963   8.394  2.6658 -0.5041 -1.4991
 3876SOL     OW29619  10.187   9.859  10.084  0.5398  0.0060  0.5249
 3876SOL    HW129620  10.224   9.853  10.172  1.4912  1.1181  0.2237
 3876SOL    HW229621  10.245   9.918  10.037 -0.6332  0.3885 -0.5090
 3877SOL     OW29622   7.361   8.722  11.984  0.3778  0.1424  0.3353
 3877SOL    HW129623   7.346   8.814  11.965 -1.6472  0.6130  3.6462
 3877SOL    HW229624   7.294   8.676  11.933  0.4420  0.5948 -0.1693
 3878SOL     OW29625   6.953  13.694   7.059  0.3289 -0.2025  0.3534
 3878SOL    HW129626   6.950  13.719   6.967  1.0069 -0.6455  0.1989
 3878SOL    HW229627   6.911  13.609   7.062  1.2060 -0.6578  0.2667
 3879SOL     OW29628  14.069   4.739   8.350 -0.3154 -0.3991 -0.6574
 3879SOL    HW129629  14.157   4.701   8.346 -0.9945 -2.0915 -0.2178
 3879SOL    HW229630  14.082   4.824   8.393  0.8730 -1.3983  1.0863
 3880SOL     OW29631   7.988  10.560  13.875  0.4208 -0.0160 -0.3563
 3880SOL    HW129632   7.999  10.562  13.970  1.0190 -1.4015 -0.3760
 3880SOL    HW229633   7.896  10.586  13.862 -0.6788 -2.8032  0.8629
 3881SOL     OW29634   9.373   8.949   4.632  0.1115 -0.5885 -0.1333
 3881SOL    HW129635   9.449   9.004   4.646 -0.0775 -0.2886 -0.2832
 3881SOL    HW229636   9.308   9.006   4.591  0.1558 -1.0898 -0.9298
 3882SOL     OW29637   4.763   5.317   4.563  0.2457 -0.2293 -0.4853
 3882SOL    HW129638   4.745   5.228   4.594  3.4967 -0.5581  0.9253
 3882SOL    HW229639   4.803   5.305   4.477 -0.2879 -0.0254 -0.7663
 3883SOL     OW29640   4.930   6.829   8.579  0.0268  0.2730 -0.1468
 3883SOL    HW129641   5.023   6.822   8.601  0.6082 -1.0715 -2.6198
 3883SOL    HW229642   4.925   6.903   8.519 -0.1912 -0.6127 -1.2522
 3884SOL     OW29643   0.351  11.194  10.849 -0.1407  0.3267 -0.1506
 3884SOL    HW129644   0.286  11.264  10.855 -1.1404 -0.6094  0.1157
 3884SOL    HW229645   0.302  11.113  10.864  1.2551 -0.3320  1.1547
 3885SOL     OW29646   0.784   1.637   4.853 -0.3479 -0.1357  0.2934
 3885SOL    HW129647   0.749   1.646   4.765  3.3749 -0.7026 -1.4348
 3885SOL    HW229648   0.766   1.546   4.876 -2.3783  0.3222  0.7193
 3886SOL     OW29649   0.723  11.299   2.216  0.1581  0.4105  0.2928
 3886SOL    HW129650   0.725  11.341   2.302  0.2802 -1.0058  1.0266
 3886SOL    HW229651   0.797  11.338   2.169  0.6731  0.5403  1.1749
 3887SOL     OW29652   9.499  12.856   1.106  0.1469  0.0964  0.0343
 3887SOL    HW129653   9.433  12.897   1.049 -0.2067 -0.1836  0.2470
 3887SOL    HW229654   9.468  12.872   1.195 -0.0903 -0.7953  0.1176
 3888SOL     OW29655  12.531   2.821   6.583 -0.0453 -0.1360 -0.3469
 3888SOL    HW129656  12.480   2.790   6.508  0.9941 -1.3711 -0.5713
 3888SOL    HW229657  12.577   2.744   6.615  0.4245  0.6137  0.8611
 3889SOL     OW29658   2.979   5.152   4.792  0.4584 -0.4649 -0.1920
 3889SOL    HW129659   2.907   5.207   4.761  0.9599  0.2416 -0.1111
 3889SOL    HW229660   2.981   5.167   4.886 -1.1759 -2.7424  0.2932
 3890SOL     OW29661   6.268  10.773   4.765  0.2182  0.2820  0.0978
 3890SOL    HW129662   6.210  10.814   4.701  0.2640  2.7236  1.4859
 3890SOL    HW229663   6.245  10.680   4.764 -0.8044  0.5110 -2.3321
 3891SOL     OW29664   9.763   9.533   8.050  0.0870  0.0856  0.5042
 3891SOL    HW129665   9.748   9.537   7.956 -0.0385  0.3927  0.5367
 3891SOL    HW229666   9.687   9.577   8.089 -0.0633 -0.3986  0.7655
 3892SOL     OW29667  10.589   5.798   1.229 -0.2243 -0.7304  0.1151
 3892SOL    HW129668  10.565   5.812   1.137  0.7293  1.5736  0.1460
 3892SOL    HW229669  10.679   5.766   1.225 -0.0830 -0.3591  0.2233
 3893SOL     OW29670   6.607  13.334   5.748  0.3903  0.6801 -0.2931
 3893SOL    HW129671   6.669  13.342   5.822  0.6587  0.9310 -0.5442
 3893SOL    HW229672   6.565  13.249   5.762  0.5417  0.6629  0.0740
 3894SOL     OW29673   0.041   5.475   6.441 -0.0961  0.3085 -0.4166
 3894SOL    HW129674   0.036   5.550   6.382  0.9389 -0.3156 -1.3302
 3894SOL    HW229675   0.016   5.400   6.387  0.6143 -0.2373 -0.0095
 3895SOL     OW29676  11.077   3.474   1.496 -0.0022 -0.1102 -0.6157
 3895SOL    HW129677  11.096   3.471   1.403  2.1628  3.0050 -0.4174
 3895SOL    HW229678  10.997   3.421   1.506 -0.2138 -0.6851 -4.1447
 3896SOL     OW29679   9.717   1.304   2.114 -0.2907  0.0434 -0.7171
 3896SOL    HW129680   9.639   1.355   2.092 -0.1222  0.1621 -1.0482
 3896SOL    HW229681   9.714   1.229   2.054  0.4644  0.6588 -1.5504
 3897SOL     OW29682   4.464  11.191   9.883  0.1956 -0.3903 -0.1492
 3897SOL    HW129683   4.513  11.148   9.953 -0.9914 -1.0758  0.2837
 3897SOL    HW229684   4.405  11.123   9.850 -0.9743  0.6031 -0.1660
 3898SOL     OW29685   6.895  10.347   4.447 -0.0197  0.1013 -0.3126
 3898SOL    HW129686   6.847  10.265   4.430  1.2939 -0.4273 -1.6696
 3898SOL    HW229687   6.943  10.330   4.528  0.1953 -0.4411 -0.5500
 3899SOL     OW29688   2.111  13.428  10.136 -0.3811  0.7163  0.0694
 3899SOL    HW129689   2.115  13.505  10.079  0.1191 -0.1689 -1.1443
 3899SOL    HW229690   2.022  13.395  10.126 -1.2281  2.2176  2.1276
 3900SOL     OW29691   2.154   5.941  13.563  0.3055  0.0193  0.0076
 3900SOL    HW129692   2.108   6.007  13.615  1.6399  0.5254  0.5905
 3900SOL    HW229693   2.233   5.921  13.614  1.7528  0.6280 -1.8740
 3901SOL     OW29694  12.889   4.868   9.923 -0.3779 -0.0672  0.1100
 3901SOL    HW129695  12.858   4.788   9.966  2.1312 -0.6442  1.0587
 3901SOL    HW229696  12.873   4.937   9.987 -0.5155 -0.1858  0.2052
 3902SOL     OW29697   5.267  11.383  13.883 -0.4182  0.5471  0.3976
 3902SOL    HW129698   5.259  11.370  13.788 -1.1569  1.8329  0.2613
 3902SOL    HW229699   5.215  11.462  13.901  0.4168  0.8245  1.7395
 3903SOL     OW29700   2.636   8.131   9.165  0.0412  0.3467 -0.2654
 3903SOL    HW129701   2.717   8.141   9.216 -0.0589 -0.6819  0.1194
 3903SOL    HW229702   2.569   8.111   9.230 -0.3895  0.5023 -0.6565
 3904SOL     OW29703   6.505   1.531   6.795 -0.2903  0.3391  0.6976
 3904SOL    HW129704   6.557   1.471   6.849 -0.6493  0.4308  1.1492
 3904SOL    HW229705   6.560   1.548   6.719 -0.4274 -1.0363  0.2618
 3905SOL     OW29706   1.860   8.688   6.114 -0.0741 -0.5659 -0.1800
 3905SOL    HW129707   1.860   8.781   6.089 -2.0465 -0.3083  0.5008
 3905SOL    HW229708   1.898   8.688   6.202 -0.4187 -0.3220 -0.0244
 3906SOL     OW29709  13.216   5.451  10.747  0.1522  0.6938 -1.0447
 3906SOL    HW129710  13.232   5.428  10.655  1.6510  1.9521 -1.1278
 3906SOL    HW229711  13.226   5.546  10.750  0.5095  0.6256  0.4848
 3907SOL     OW29712   0.276   9.546  12.804  0.3038  0.4877 -0.0605
 3907SOL    HW129713   0.247   9.586  12.722  0.3773 -1.0253 -0.8611
 3907SOL    HW229714   0.312   9.461  12.778  2.0961  0.7490  1.3173
 3908SOL     OW29715  12.006   8.468   9.132  0.3829 -0.3747 -0.4043
 3908SOL    HW129716  11.988   8.390   9.185 -1.7349  0.7513  0.6413
 3908SOL    HW229717  11.953   8.457   9.054  1.6212 -0.8731 -1.2071
 3909SOL     OW29718  13.826  11.172  11.080  0.6923 -0.5035  0.0570
 3909SOL    HW129719  13.780  11.187  11.163 -1.4105  1.1090 -1.2782
 3909SOL    HW229720  13.766  11.117  11.030  1.6103 -0.8735 -0.6489
 3910SOL     OW29721  13.106  11.797   3.820 -0.6053 -0.2878  0.3865
 3910SOL    HW129722  13.091  11.825   3.910  0.6911 -1.5232  1.0011
 3910SOL    HW229723  13.149  11.712   3.827 -0.8543 -0.6026 -1.4084
 3911SOL     OW29724   9.002   3.441   7.629  0.0471 -0.4860  0.4045
 3911SOL    HW129725   9.081   3.413   7.676 -0.1097  0.5729  1.3248
 3911SOL    HW229726   9.029   3.521   7.583  0.7078 -2.3352 -2.7934
 3912SOL     OW29727   3.482  13.533   1.201 -0.0680 -0.1972  0.0870
 3912SOL    HW129728   3.573  13.533   1.230 -0.2402 -0.8114  0.6321
 3912SOL    HW229729   3.461  13.626   1.187 -0.1868  0.2177  2.5526
 3913SOL     OW29730   9.366  10.572  13.676  0.0283 -0.1479  0.2072
 3913SOL    HW129731   9.457  10.553  13.701 -0.1188  0.2095  1.0531
 3913SOL    HW229732   9.331  10.488  13.648  0.4967 -0.3762  0.2839
 3914SOL     OW29733   1.754   0.089   1.478 -0.0292 -0.1530  0.0023
 3914SOL    HW129734   1.788  -0.000   1.473  0.0334 -0.0862 -0.8033
 3914SOL    HW229735   1.832   0.144   1.481 -0.0524 -0.1411  1.2625
 3915SOL     OW29736   6.898   8.542   0.339  0.1885 -0.4697  0.1844
 3915SOL    HW129737   6.947   8.479   0.392  1.7123 -0.5038 -1.1833
 3915SOL    HW229738   6.965   8.593   0.294 -0.9795  1.9694  0.9756
 3916SOL     OW29739   8.295   1.439   4.061 -0.7559  0.3296  0.4369
 3916SOL    HW129740   8.214   1.443   4.010  0.1622 -0.4194 -1.1736
 3916SOL    HW229741   8.340   1.521   4.043 -0.0789 -0.2534 -0.6203
 3917SOL     OW29742   7.308   1.110  12.670 -0.1381  0.5339 -0.4571
 3917SOL    HW129743   7.235   1.073  12.720  0.3597  1.2777  0.8986
 3917SOL    HW229744   7.320   1.198  12.708  0.6593  0.8929 -1.4995
 3918SOL     OW29745   6.654   2.528  13.049 -0.3257 -0.8022 -0.8095
 3918SOL    HW129746   6.737   2.548  13.005  0.1774  1.8665  1.1152
 3918SOL    HW229747   6.674   2.451  13.104  0.5428 -0.8751 -1.2056
 3919SOL     OW29748   2.569   2.169   7.425  0.1430 -0.2277 -0.2204
 3919SOL    HW129749   2.620   2.212   7.356 -0.0220  1.1648  0.4877
 3919SOL    HW229750   2.630   2.107   7.465  0.9267  0.5646 -0.1651
 3920SOL     OW29751   1.775  10.040  12.593  0.0644  0.0534  0.2978
 3920SOL    HW129752   1.771  10.108  12.526 -1.1278  0.6591  0.9410
 3920SOL    HW229753   1.685  10.033  12.626  0.5884 -0.2694  1.7785
 3921SOL     OW29754   5.760   3.139   2.049 -0.1565 -0.7206  0.3590
 3921SOL    HW129755   5.701   3.127   2.123 -1.0672  2.2791  0.2214
 3921SOL    HW229756   5.831   3.194   2.084  0.4749 -0.9674 -0.5013
 3922SOL     OW29757  10.795   6.169   1.601 -0.0619  0.4922 -0.6772
 3922SOL    HW129758  10.734   6.237   1.572 -1.1066 -0.1803 -0.1043
 3922SOL    HW229759  10.803   6.183   1.696  0.4817  0.4106 -0.7065
 3923SOL     OW29760  13.033   7.812   1.342 -0.8053  0.1275  0.2258
 3923SOL    HW129761  12.975   7.834   1.415 -0.7061  0.8628  0.0906
 3923SOL    HW229762  13.040   7.716   1.345  1.0984  0.2480  2.6380
 3924SOL     OW29763   0.837   1.629   1.059  0.1184 -1.0989  0.1696
 3924SOL    HW129764   0.901   1.664   1.121 -0.0002 -0.2318 -0.1900
 3924SOL    HW229765   0.829   1.697   0.992  0.1591 -1.9700 -0.7412
 3925SOL     OW29766   5.252   4.133   4.142 -0.5520  0.1928  0.0366
 3925SOL    HW129767   5.298   4.053   4.168 -2.2828 -0.8083  0.1438
 3925SOL    HW229768   5.292   4.158   4.058 -0.0982 -0.8603 -0.0692
 3926SOL     OW29769   2.663   2.813   0.509 -0.4733  0.1205  0.4621
 3926SOL    HW129770   2.613   2.840   0.587 -2.4927  0.7353 -0.9710
 3926SOL    HW229771   2.728   2.882   0.498 -1.0882  0.7703  0.8030
 3927SOL     OW29772   1.480  11.214   8.120  0.3895  0.3520  0.0499
 3927SOL    HW129773   1.546  11.184   8.057  1.6024  1.8616  0.5637
 3927SOL    HW229774   1.483  11.150   8.191 -1.0075 -1.3913 -1.3311
 3928SOL     OW29775   5.157   1.010  14.098 -0.6709  0.1666  0.2136
 3928SOL    HW129776   5.179   0.949  14.027  0.9285  1.1818 -0.2105
 3928SOL    HW229777   5.123   0.954  14.168 -1.0631 -0.9959 -0.8645
 3929SOL     OW29778   6.973  10.570   7.403  0.5784  0.4294 -0.6968
 3929SOL    HW129779   7.010  10.648   7.444  0.4855  0.3981 -0.5511
 3929SOL    HW229780   6.997  10.498   7.463 -1.8839  0.7314  0.7821
 3930SOL     OW29781   1.130   1.247  10.051  0.7997  0.0659 -0.1860
 3930SOL    HW129782   1.135   1.251  10.146  0.9922 -0.5314 -0.1611
 3930SOL    HW229783   1.065   1.312  10.026  1.1844  0.6426  0.3110
 3931SOL     OW29784   4.592   7.548   0.439 -0.1390  0.3771 -0.1732
 3931SOL    HW129785   4.619   7.536   0.348  1.2665  0.3106  0.2214
 3931SOL    HW229786   4.633   7.630   0.465 -0.9350  0.6440  0.2700
 3932SOL     OW29787  13.169   6.292   9.997 -0.4760 -0.1271  0.3015
 3932SOL    HW129788  13.104   6.327   9.936 -0.1738  0.8285  0.5111
 3932SOL    HW229789  13.239   6.357   9.997 -0.1769 -0.4351  1.1736
 3933SOL     OW29790  11.754   0.437  11.054 -0.1924 -0.0857  0.0974
 3933SOL    HW129791  11.839   0.462  11.091  0.1777 -0.0081 -0.7898
 3933SOL    HW229792  11.690   0.486  11.106  0.2691 -0.5059  1.0808
 3934SOL     OW29793  10.742   6.611   3.249 -0.0050  0.1487  0.4407
 3934SOL    HW129794  10.663   6.657   3.276  0.9536  2.1216  0.0773
 3934SOL    HW229795  10.810   6.641   3.310  0.4405 -1.7748  0.9763
 3935SOL     OW29796  13.424  10.421   8.287  0.2372 -0.2043  0.1681
 3935SOL    HW129797  13.510  10.460   8.301  0.9101 -0.8690 -1.7373
 3935SOL    HW229798  13.411  10.362   8.361  0.9613  0.6496  1.0004
 3936SOL     OW29799  11.366   5.025  14.021 -0.0032 -0.9258 -0.1762
 3936SOL    HW129800  11.299   5.007  14.087  0.5146 -1.1948  0.2849
 3936SOL    HW229801  11.409   4.940  14.006  0.1132 -0.7948 -0.6004
 3937SOL     OW29802   7.782   3.083   6.060  0.2041 -0.2760  0.0673
 3937SOL    HW129803   7.779   3.169   6.102  1.7935  0.6139 -1.5025
 3937SOL    HW229804   7.704   3.081   6.004 -0.1256 -0.0968  0.5144
 3938SOL     OW29805   2.005   9.376  12.678 -0.8090  0.1511  0.0555
 3938SOL    HW129806   1.919   9.372  12.719 -1.2365  1.9162 -0.5875
 3938SOL    HW229807   2.066   9.358  12.750 -1.6863 -2.4313  0.2629
 3939SOL     OW29808   3.133   3.296  13.262  0.8649  0.0477  0.2202
 3939SOL    HW129809   3.208   3.249  13.226  0.4695 -1.6519  1.5171
 3939SOL    HW229810   3.157   3.389  13.253  2.4342 -0.4065 -0.7733
 3940SOL     OW29811   8.664   8.344   1.209  0.2135  0.1077  0.3849
 3940SOL    HW129812   8.595   8.366   1.272 -0.4515 -0.2615 -0.2028
 3940SOL    HW229813   8.717   8.424   1.203 -0.1769  0.4059  0.8223
 3941SOL     OW29814  14.148   7.798   0.520 -0.2629 -0.2003  0.3773
 3941SOL    HW129815  14.153   7.894   0.518 -0.8989 -0.1593 -1.7333
 3941SOL    HW229816  14.116   7.778   0.608 -3.3982  1.7354 -0.1755
 3942SOL     OW29817   8.058   3.760   1.000  0.9934 -0.2156  0.2301
 3942SOL    HW129818   8.007   3.810   0.937  1.2686 -1.1776 -0.7769
 3942SOL    HW229819   8.089   3.826   1.063  0.1685  0.6602 -0.2525
 3943SOL     OW29820   0.750  13.092   7.092 -0.0205  0.6073  0.6373
 3943SOL    HW129821   0.662  13.121   7.072 -0.0719  0.4371  0.6184
 3943SOL    HW229822   0.745  13.060   7.182 -0.1650 -0.1607  0.3623
 3944SOL     OW29823  14.083  10.042  13.692 -0.0838  0.3575 -0.1936
 3944SOL    HW129824  14.027  10.114  13.665 -0.2463  0.2822 -0.0643
 3944SOL    HW229825  14.130  10.075  13.769  1.3110  1.0059 -1.2881
 3945SOL     OW29826  11.100   0.531   4.816 -0.0604 -0.1681 -0.5433
 3945SOL    HW129827  11.042   0.537   4.891 -2.0862 -0.7735 -1.9690
 3945SOL    HW229828  11.116   0.622   4.791  1.1843  0.0671  0.9539
 3946SOL     OW29829  10.288   4.453  12.675  0.1799  0.0459 -0.0423
 3946SOL    HW129830  10.229   4.439  12.749  0.4342 -0.5692  0.0540
 3946SOL    HW229831  10.272   4.543  12.648 -1.4481 -0.3696 -0.5855
 3947SOL     OW29832   8.297  11.561  13.279  0.4140 -0.1359 -0.2885
 3947SOL    HW129833   8.291  11.650  13.242  2.5119  1.1284  2.1036
 3947SOL    HW229834   8.235  11.561  13.351  1.0038 -0.2960  0.2277
 3948SOL     OW29835  10.656   2.265   2.526 -0.1706 -0.9001 -0.3127
 3948SOL    HW129836  10.721   2.200   2.551  0.2889 -0.9356 -1.5583
 3948SOL    HW229837  10.604   2.222   2.457  0.2668  0.1088 -1.2949
 3949SOL     OW29838   7.183   3.391   1.580  0.0352 -0.8120  0.4143
 3949SOL    HW129839   7.122   3.322   1.556  0.0419 -0.2011 -1.5637
 3949SOL    HW229840   7.268   3.347   1.585 -0.0742 -1.0905 -0.1032
 3950SOL     OW29841   8.884   1.658  10.249 -0.4334  0.6377 -0.5212
 3950SOL    HW129842   8.834   1.645  10.168 -1.0331 -0.4140  0.0052
 3950SOL    HW229843   8.824   1.633  10.319  1.0678 -1.4664  0.1020
 3951SOL     OW29844   0.264   7.073   8.932  0.0836 -0.1924  0.1142
 3951SOL    HW129845   0.313   7.070   8.849 -0.4140 -0.4666 -0.1789
 3951SOL    HW229846   0.330   7.059   8.999  0.4759 -0.1171 -0.2491
 3952SOL     OW29847   6.245   6.164   8.193  0.1408 -0.1071 -0.1335
 3952SOL    HW129848   6.264   6.219   8.268 -1.2346 -2.6369  2.2609
 3952SOL    HW229849   6.150   6.170   8.182  0.4159  1.1599 -2.5649
 3953SOL     OW29850   6.781  10.250   7.223 -0.9067 -0.5208  0.6101
 3953SOL    HW129851   6.745  10.333   7.191 -1.2762 -0.9164 -0.0318
 3953SOL    HW229852   6.786  10.261   7.318  0.3628  0.7435  0.4316
 3954SOL     OW29853  11.853   4.948   8.798 -1.0510 -0.0343 -0.0561
 3954SOL    HW129854  11.772   4.952   8.850 -0.7059  0.2871  0.4691
 3954SOL    HW229855  11.922   4.963   8.862 -0.7009  2.1723 -0.8939
 3955SOL     OW29856  13.370   8.846   1.330  0.5086  0.2307 -0.9666
 3955SOL    HW129857  13.311   8.774   1.308 -0.6999  0.4862  1.1388
 3955SOL    HW229858  13.434   8.806   1.389  0.4008  0.6620 -0.5529
 3956SOL     OW29859   2.247  13.148   8.892 -0.0845  0.6141 -0.5117
 3956SOL    HW129860   2.189  13.113   8.961 -0.1238 -0.7838 -1.2117
 3956SOL    HW229861   2.299  13.215   8.936 -2.2986  2.0345  0.1256
 3957SOL     OW29862   0.841   8.678  12.164  0.6378 -0.4489  0.0415
 3957SOL    HW129863   0.799   8.638  12.088  0.8660 -1.3485  0.3805
 3957SOL    HW229864   0.781   8.749  12.189  0.0870 -0.7441 -0.3975
 3958SOL     OW29865   6.898   4.464   2.209 -0.2990 -0.4252 -0.3075
 3958SOL    HW129866   6.966   4.404   2.241 -1.4594 -1.7873 -0.3031
 3958SOL    HW229867   6.860   4.501   2.289 -0.4921 -0.7462 -0.2467
 3959SOL     OW29868   7.930   9.812   8.494  0.0927  0.1662 -0.0785
 3959SOL    HW129869   7.860   9.752   8.517 -1.7525  1.8857 -0.9072
 3959SOL    HW229870   7.938   9.805   8.399  1.5635 -0.5134  0.0666
 3960SOL     OW29871   3.813  12.766   4.665 -0.8862  0.2271  0.5808
 3960SOL    HW129872   3.823  12.744   4.572 -1.4504  1.7873  0.1192
 3960SOL    HW229873   3.889  12.726   4.707 -1.0395 -1.1949 -0.4141
 3961SOL     OW29874   1.717   3.335   8.997  0.1593  0.3173  0.1009
 3961SOL    HW129875   1.674   3.252   9.018  2.1710 -0.4824  1.3362
 3961SOL    HW229876   1.769   3.316   8.919  0.2111  0.5624  0.0764
 3962SOL     OW29877  11.308   3.891   7.857 -0.5521  0.1587  0.2154
 3962SOL    HW129878  11.350   3.810   7.885 -0.7750 -0.0485 -0.0498
 3962SOL    HW229879  11.233   3.863   7.805  0.8455  0.5109 -2.1374
 3963SOL     OW29880   2.884   9.406   7.768 -0.0118 -0.2616 -0.3132
 3963SOL    HW129881   2.804   9.356   7.751 -0.4348  0.6735 -1.2167
 3963SOL    HW229882   2.913   9.435   7.682  0.2732  0.9399  0.1607
 3964SOL     OW29883   6.430  10.479  13.679  0.3203  0.8555  0.1425
 3964SOL    HW129884   6.360  10.458  13.617 -0.3241  0.2771  1.0398
 3964SOL    HW229885   6.406  10.431  13.759  1.8228  0.5304  0.4204
 3965SOL     OW29886   0.942   8.215   5.902 -0.2121  0.0212 -0.3747
 3965SOL    HW129887   0.869   8.157   5.925  0.2709 -0.3161  0.3377
 3965SOL    HW229888   0.970   8.186   5.816  0.7013 -1.5095  0.3987
 3966SOL     OW29889   9.974   6.123   6.035  0.0640 -0.0054  0.2391
 3966SOL    HW129890   9.906   6.129   5.968 -1.5890 -1.4322  1.6522
 3966SOL    HW229891   9.960   6.200   6.091  1.9119  1.5814 -1.3733
 3967SOL     OW29892   1.700   6.958   8.970 -0.2484  0.6931 -0.3275
 3967SOL    HW129893   1.677   6.893   9.037  0.2914 -0.4672 -1.2400
 3967SOL    HW229894   1.653   7.037   8.997 -0.4024  0.1282  1.1688
 3968SOL     OW29895   2.197  13.150   4.853 -0.8708 -0.4425  0.3012
 3968SOL    HW129896   2.204  13.086   4.782 -0.0615  1.1747 -1.1613
 3968SOL    HW229897   2.273  13.132   4.909 -1.1017 -1.2581  0.3704
 3969SOL     OW29898  10.715   7.659   3.411 -0.4747  0.0693 -0.3877
 3969SOL    HW129899  10.625   7.632   3.428 -0.4306  0.0913 -0.1202
 3969SOL    HW229900  10.764   7.630   3.488 -0.4441  0.9940 -0.0470
 3970SOL     OW29901   4.876  11.537   2.354 -0.8437 -0.1942 -0.0473
 3970SOL    HW129902   4.920  11.622   2.346 -1.2057 -0.1439 -1.7607
 3970SOL    HW229903   4.789  11.551   2.316 -0.9525 -1.2995 -0.2407
 3971SOL     OW29904   3.367  10.940   1.665 -0.4107  0.4029 -0.1938
 3971SOL    HW129905   3.279  10.975   1.654 -1.3218 -0.8989  2.2257
 3971SOL    HW229906   3.371  10.864   1.607 -0.9170  0.3976 -0.2219
 3972SOL     OW29907   1.388   9.957   5.324 -0.3027  0.2797  0.3012
 3972SOL    HW129908   1.427   9.909   5.397 -0.5488  0.0479  0.2818
 3972SOL    HW229909   1.302   9.917   5.312 -0.2863  0.3514 -0.0781
 3973SOL     OW29910   9.184   6.676  12.616  0.5729  0.7456 -0.3375
 3973SOL    HW129911   9.155   6.677  12.707  0.5482  2.1351 -0.3417
 3973SOL    HW229912   9.275   6.645  12.621 -0.2651 -1.9839 -0.1703
 3974SOL     OW29913   2.535  11.925  12.117 -0.5184  0.0750 -0.0357
 3974SOL    HW129914   2.519  11.834  12.141 -0.2257 -0.2589 -1.0599
 3974SOL    HW229915   2.472  11.942  12.047 -1.0859  0.9005  0.6615
 3975SOL     OW29916   8.499   3.108   9.169 -0.2566 -0.6451 -0.6835
 3975SOL    HW129917   8.550   3.124   9.090  1.4855 -1.4104  0.2331
 3975SOL    HW229918   8.464   3.195   9.192  0.8851 -0.0275 -1.1824
 3976SOL     OW29919  12.614   3.690   7.229 -0.6244  0.0991  0.1893
 3976SOL    HW129920  12.642   3.611   7.183 -1.5559 -1.1938  1.7702
 3976SOL    HW229921  12.688   3.751   7.219  0.1421 -0.9755 -0.9780
 3977SOL     OW29922   2.217   1.774  10.150  0.0614  0.2633 -0.1575
 3977SOL    HW129923   2.154   1.833  10.110 -0.1971 -0.6907 -1.2115
 3977SOL    HW229924   2.199   1.689  10.109  0.4920 -0.5231  1.2288
 3978SOL     OW29925  12.586   3.903  13.750 -0.4186  0.5157  0.2223
 3978SOL    HW129926  12.639   3.891  13.829  0.8238  0.7136 -0.5502
 3978SOL    HW229927  12.521   3.969  13.774  0.4315  1.1410  0.8649
 3979SOL     OW29928   2.441   2.945   5.193 -0.3207  0.5708  0.1614
 3979SOL    HW129929   2.526   2.908   5.170 -1.3501 -3.2540  1.8090
 3979SOL    HW229930   2.456   2.987   5.279 -0.1719 -0.5504  0.6979
 3980SOL     OW29931  12.966   2.436   8.888  0.4159  0.2445  0.3070
 3980SOL    HW129932  13.045   2.427   8.941  0.6962 -1.3505 -0.3214
 3980SOL    HW229933  12.975   2.521   8.845  1.3536  0.4754  0.9420
 3981SOL     OW29934  10.295   8.792   9.049 -0.0780  0.3401 -0.1170
 3981SOL    HW129935  10.365   8.816   9.109  0.7914  0.7345 -1.2673
 3981SOL    HW229936  10.247   8.723   9.096  0.3080  0.9265  1.1968
 3982SOL     OW29937  10.978  13.081   9.278  0.1982  0.3130 -0.0598
 3982SOL    HW129938  10.905  13.020   9.291 -0.1759  1.2425  3.0477
 3982SOL    HW229939  11.055  13.032   9.308  0.5759 -0.0010 -1.4963
 3983SOL     OW29940   7.453   8.394   4.855 -0.0058  0.5657  0.1877
 3983SOL    HW129941   7.490   8.461   4.912 -1.5505 -0.0166  1.9926
 3983SOL    HW229942   7.527   8.339   4.831  0.7772  1.1020  1.2688
 3984SOL     OW29943   4.971  10.132   3.580  0.2685  0.1894 -0.7021
 3984SOL    HW129944   5.005  10.096   3.498  1.2658  0.9656 -0.6393
 3984SOL    HW229945   4.896  10.076   3.601  0.1619 -0.1864 -1.9976
 3985SOL     OW29946  10.884   7.130   7.448 -0.5277  0.8503  0.2214
 3985SOL    HW129947  10.843   7.216   7.441 -1.1737  0.8602  2.9321
 3985SOL    HW229948  10.835   7.085   7.517 -0.0772 -1.6389 -0.9755
 3986SOL     OW29949   9.238   5.372   3.720  0.0293  0.6194 -0.1369
 3986SOL    HW129950   9.235   5.281   3.751 -0.4533  1.2142  1.6978
 3986SOL    HW229951   9.308   5.412   3.772 -2.3656  2.2572  2.0699
 3987SOL     OW29952   9.199   3.365   9.732 -0.0416  0.1192  0.2489
 3987SOL    HW129953   9.190   3.383   9.639  0.8311  0.1208  0.1526
 3987SOL    HW229954   9.149   3.284   9.746 -1.9073  1.2252  0.2057
 3988SOL     OW29955  12.429  10.664  13.479  0.1230  0.5949  0.3505
 3988SOL    HW129956  12.343  10.625  13.464  0.4022  0.2308 -0.3784
 3988SOL    HW229957  12.423  10.704  13.566 -0.5762  0.0117  0.5819
 3989SOL     OW29958  13.753  11.114   1.982 -0.4667  0.1552 -0.5158
 3989SOL    HW129959  13.737  11.108   1.888 -0.8381 -2.5701 -0.3647
 3989SOL    HW229960  13.826  11.176   1.991  0.0727 -0.1065 -2.6568
 3990SOL     OW29961   2.307  11.524   8.796  0.0478 -0.1029  0.4254
 3990SOL    HW129962   2.231  11.475   8.826  0.8810 -2.6183 -1.2622
 3990SOL    HW229963   2.382  11.474   8.828  0.9791  1.0739  0.1418
 3991SOL     OW29964   0.812   7.090  10.612  0.0169  0.1853 -0.0484
 3991SOL    HW129965   0.905   7.070  10.619  0.2401  1.1821 -0.1033
 3991SOL    HW229966   0.778   7.024  10.551  0.4897 -0.7631  0.6926
 3992SOL     OW29967   1.938  12.216   7.653 -0.6865 -0.0238  0.6150
 3992SOL    HW129968   2.022  12.178   7.628 -1.7675 -1.2746 -1.5227
 3992SOL    HW229969   1.942  12.306   7.622 -0.7747 -0.6290 -1.3379
 3993SOL     OW29970  14.120  10.586  13.033 -0.5365 -0.3299  0.1382
 3993SOL    HW129971  14.202  10.616  12.995 -0.4373 -0.5062  0.2146
 3993SOL    HW229972  14.097  10.509  12.982 -0.2595 -0.7316  0.6118
 3994SOL     OW29973   5.175  12.610   9.387 -0.1419  0.7634 -1.1479
 3994SOL    HW129974   5.262  12.616   9.349  0.5246 -0.2416  0.1261
 3994SOL    HW229975   5.175  12.672   9.460 -0.4397  0.6774 -1.0686
 3995SOL     OW29976   1.300   1.391   5.655  0.5243  0.2160  0.0074
 3995SOL    HW129977   1.214   1.354   5.673  0.3678  1.7383  3.2295
 3995SOL    HW229978   1.356   1.357   5.726  2.1141  0.6547 -0.9766
 3996SOL     OW29979   7.949   2.091  11.539 -0.4431 -0.4648  0.9398
 3996SOL    HW129980   7.972   2.141  11.617 -0.1892  1.2634 -0.1877
 3996SOL    HW229981   8.030   2.088  11.488 -1.4690  1.7268 -0.9746
 3997SOL     OW29982   3.983  12.045  12.077 -0.2035  0.4946 -0.4970
 3997SOL    HW129983   3.940  12.128  12.055 -1.3170  0.3307  0.8963
 3997SOL    HW229984   4.074  12.057  12.050  0.0368  2.7632  1.0054
 3998SOL     OW29985   1.588   6.986   5.919 -0.7261 -0.2267 -0.2257
 3998SOL    HW129986   1.681   7.009   5.927 -0.0354 -2.8590  0.3807
 3998SOL    HW229987   1.543   7.070   5.910  1.4513  1.3226  1.9965
 3999SOL     OW29988   7.422   1.772   2.909  0.2488  0.0994 -0.0535
 3999SOL    HW129989   7.335   1.778   2.949 -0.2688 -0.0995 -1.1029
 3999SOL    HW229990   7.419   1.833   2.835  1.1341  0.3743  0.1333
 4000SOL     OW29991   4.285  13.466   4.698  0.4077 -0.0080  0.8368
 4000SOL    HW129992   4.342  13.459   4.774 -0.2105 -2.1585  1.1859
 4000SOL    HW229993   4.344  13.462   4.623  0.8385 -0.5874  1.2016
 4001SOL     OW29994   0.415   5.810   9.391 -0.0453  0.2321 -0.2360
 4001SOL    HW129995   0.393   5.740   9.454  1.4145 -0.4373 -0.4214
 4001SOL    HW229996   0.335   5.821   9.339  0.1136 -2.4163 -1.2211
 4002SOL     OW29997   2.480   4.623   3.422  0.3926 -0.2428 -0.0274
 4002SOL    HW129998   2.560   4.605   3.372 -1.0615 -2.6828 -1.6936
 4002SOL    HW229999   2.495   4.709   3.461  3.8073 -0.5806 -0.2630
 4003SOL     OW30000   7.805   0.496   1.283  0.1431 -0.3260  0.6074
 4003SOL    HW130001   7.759   0.447   1.215 -2.4264  1.3978  0.9528
 4003SOL    HW230002   7.855   0.562   1.236 -0.9980  0.3535  0.3080
 4004SOL     OW30003   2.633   6.124   3.154 -0.1805 -0.4524  0.2024
 4004SOL    HW130004   2.559   6.078   3.114 -0.9093  0.7574  0.0997
 4004SOL    HW230005   2.593   6.198   3.199  0.9845  0.2945  0.0467
 4005SOL     OW30006   3.242   5.542  12.465 -0.4518  0.0775 -0.0173
 4005SOL    HW130007   3.148   5.534  12.445 -0.4597  0.5316 -0.1818
 4005SOL    HW230008   3.278   5.455  12.445 -0.8984 -0.2110  0.4046
 4006SOL     OW30009  11.978   9.264  13.389  0.3038  0.1237 -0.4081
 4006SOL    HW130010  11.928   9.228  13.317 -0.3094  1.6644 -0.8069
 4006SOL    HW230011  11.971   9.359  13.378  0.6741  0.3984  1.3427
 4007SOL     OW30012   1.026   6.516  10.573 -0.2015  0.7429  0.0932
 4007SOL    HW130013   0.947   6.565  10.599 -0.2845  0.0655  1.1715
 4007SOL    HW230014   1.023   6.515  10.477 -2.5780 -0.9591  0.0956
 4008SOL     OW30015  11.194  12.009   7.798 -0.3974  0.2784  0.0021
 4008SOL    HW130016  11.247  11.931   7.786  0.1413  0.3367  1.7101
 4008SOL    HW230017  11.214  12.065   7.723  1.8471  0.2237  0.4914
 4009SOL     OW30018   6.586   5.494   6.741  0.4963  0.2857  0.5951
 4009SOL    HW130019   6.610   5.585   6.762 -0.5647  0.9064 -0.7033
 4009SOL    HW230020   6.603   5.487   6.647  0.0401 -0.7003  0.5825
 4010SOL     OW30021   5.926   7.850   6.829 -0.1603  0.4442  0.0556
 4010SOL    HW130022   5.936   7.898   6.911  0.1215 -1.1387  0.9968
 4010SOL    HW230023   6.009   7.862   6.784  0.1614  0.2864  0.5982
 4011SOL     OW30024  12.659   5.581   8.287  0.6334  0.0104  0.0881
 4011SOL    HW130025  12.589   5.571   8.351 -0.0545 -0.8505 -0.7552
 4011SOL    HW230026  12.623   5.640   8.221  0.0026 -1.7245 -1.2100
 4012SOL     OW30027  13.512  13.860   0.993  0.1376  0.0051 -0.0359
 4012SOL    HW130028  13.601  13.879   0.966 -0.3596  0.3551 -1.5064
 4012SOL    HW230029  13.485  13.787   0.938 -0.6329  0.2047  0.0611
 4013SOL     OW30030   0.924   6.760   8.183  0.0334 -0.4885 -0.2497
 4013SOL    HW130031   0.880   6.829   8.233  1.1389 -0.0827  0.1857
 4013SOL    HW230032   0.908   6.783   8.091  1.0705  0.8374 -0.1295
 4014SOL     OW30033   0.130   9.229  12.416  0.1779 -0.1222  0.1119
 4014SOL    HW130034   0.183   9.308  12.404  0.7165 -0.8404 -2.9918
 4014SOL    HW230035   0.041   9.257  12.397 -0.1081  0.2937  1.8510
 4015SOL     OW30036  12.852   2.223   1.911  0.4480 -0.1218 -0.5089
 4015SOL    HW130037  12.798   2.158   1.956  0.9680 -0.5277 -0.4667
 4015SOL    HW230038  12.791   2.270   1.855 -0.0450 -0.2288 -0.0740
 4016SOL     OW30039   9.280  10.175   7.910  0.1411 -0.2492  0.2545
 4016SOL    HW130040   9.239  10.153   7.994  0.1845 -0.2382  0.2781
 4016SOL    HW230041   9.310  10.092   7.875  0.0559 -0.2636  0.2144
 4017SOL     OW30042   3.675   8.361   9.757  0.0659  0.4196 -0.4854
 4017SOL    HW130043   3.764   8.378   9.789  0.0592  0.5486 -0.5371
 4017SOL    HW230044   3.640   8.298   9.820  0.0176  0.7524 -0.1693
 4018SOL     OW30045   9.692  10.459   6.341  0.0382 -0.0296 -0.2218
 4018SOL    HW130046   9.650  10.475   6.425  0.4687 -0.0739  0.0016
 4018SOL    HW230047   9.759  10.527   6.334 -0.1763  0.1463 -0.6551
 4019SOL     OW30048   0.750  11.583   1.204 -0.0663 -0.7223 -0.0129
 4019SOL    HW130049   0.704  11.636   1.269  0.2498  0.7908 -0.9622
 4019SOL    HW230050   0.712  11.609   1.121  3.3537  1.7439 -1.0212
 4020SOL     OW30051  13.868   4.643   5.224  0.5358 -0.4387  0.4559
 4020SOL    HW130052  13.907   4.715   5.174  1.6231 -1.0627  0.3734
 4020SOL    HW230053  13.830   4.685   5.301  0.2134  0.3403 -0.1093
 4021SOL     OW30054   8.385   2.203  12.057 -0.5880  0.6048 -0.0578
 4021SOL    HW130055   8.297   2.183  12.090 -0.3232  1.8181  1.5017
 4021SOL    HW230056   8.389   2.299  12.057  1.2871  0.6013  1.6029
 4022SOL     OW30057  10.714   9.709  12.179  0.1293 -0.1300 -0.0618
 4022SOL    HW130058  10.751   9.655  12.108  0.9622  0.2527  0.0755
 4022SOL    HW230059  10.787   9.760  12.211 -0.3419  0.0152  0.8037
 4023SOL     OW30060  10.544   8.185  13.973 -0.0894  0.5587  0.4100
 4023SOL    HW130061  10.578   8.189  14.063  1.7234  2.9229 -0.2670
 4023SOL    HW230062  10.544   8.092  13.952  0.4700  0.0206  2.4812
 4024SOL     OW30063   9.854  13.586   6.292  0.2757 -0.3471 -0.1086
 4024SOL    HW130064   9.777  13.619   6.337  0.7790 -1.1538  1.4356
 4024SOL    HW230065   9.836  13.600   6.199 -1.0114  0.9455  0.3016
 4025SOL     OW30066  13.575  11.059   7.896  0.4307  0.2684 -0.1740
 4025SOL    HW130067  13.582  11.059   7.800 -0.0347 -0.6417 -0.2196
 4025SOL    HW230068  13.568  11.151   7.919  2.4159  0.6305 -0.8660
 4026SOL     OW30069   8.261  13.409  11.260  0.1717 -0.5053 -0.0850
 4026SOL    HW130070   8.184  13.358  11.287  0.2785 -0.1709  0.8789
 4026SOL    HW230071   8.227  13.498  11.248  0.1763 -0.5983 -0.8325
 4027SOL     OW30072   8.545   6.160  13.997 -0.1496  0.0755 -0.3154
 4027SOL    HW130073   8.496   6.086  13.961  1.7793 -0.9507 -0.9751
 4027SOL    HW230074   8.543   6.147  14.092  0.9229 -1.3498 -0.4714
 4028SOL     OW30075  12.476  12.105   3.305  0.2737  0.0382 -0.3674
 4028SOL    HW130076  12.542  12.157   3.350 -0.6919  0.2467  0.8507
 4028SOL    HW230077  12.478  12.020   3.349  1.2127 -0.7066 -1.7573
 4029SOL     OW30078   7.376   5.511   3.073  0.4931  0.5561  0.1751
 4029SOL    HW130079   7.420   5.543   2.995  2.1623  0.4411  1.0326
 4029SOL    HW230080   7.302   5.460   3.040  0.2490  1.8020 -1.2744
 4030SOL     OW30081   1.772   5.562   5.770  0.5029 -1.2152 -0.2474
 4030SOL    HW130082   1.770   5.608   5.686 -1.3211 -2.3759 -0.9007
 4030SOL    HW230083   1.686   5.579   5.809  0.2645 -2.9511  0.0694
 4031SOL     OW30084   2.339   3.356   1.354 -0.0350  0.2126 -0.2274
 4031SOL    HW130085   2.374   3.381   1.269  0.5661 -0.2278 -0.1188
 4031SOL    HW230086   2.413   3.314   1.399 -0.5231 -0.1415  0.2611
 4032SOL     OW30087   2.310   7.286   9.287 -0.0844  0.1370 -0.6994
 4032SOL    HW130088   2.363   7.229   9.232  1.7177  0.7264  0.3649
 4032SOL    HW230089   2.316   7.249   9.375 -2.1983 -0.2777 -0.6596
 4033SOL     OW30090   5.408   0.234  10.002  0.2440  0.7539 -0.1601
 4033SOL    HW130091   5.342   0.185  10.050 -1.3949  2.2882 -0.7164
 4033SOL    HW230092   5.400   0.204   9.911  1.0562  0.2007 -0.0568
 4034SOL     OW30093  11.380   5.891  12.492 -0.3548 -0.0597 -0.5077
 4034SOL    HW130094  11.289   5.892  12.462 -0.3133  1.9664 -0.7047
 4034SOL    HW230095  11.431   5.873  12.412 -0.5414 -1.2691 -0.3844
 4035SOL     OW30096   8.832   3.924   9.905 -0.3507 -0.7091 -0.0452
 4035SOL    HW130097   8.817   3.887   9.992 -1.8956  0.4421  0.2345
 4035SOL    HW230098   8.744   3.939   9.870  0.2430 -1.0167 -1.7674
 4036SOL     OW30099   1.155   5.138   3.887 -0.1489 -0.5359  0.0568
 4036SOL    HW130100   1.126   5.080   3.816  0.1587 -0.8872  0.2100
 4036SOL    HW230101   1.210   5.082   3.942  2.1074  0.4657 -1.0688
 4037SOL     OW30102  13.076  10.292  10.717 -0.4309  0.3204  0.6795
 4037SOL    HW130103  13.059  10.368  10.661 -2.3184 -0.2664  0.3705
 4037SOL    HW230104  13.026  10.221  10.677 -1.0347 -0.3703  2.5319
 4038SOL     OW30105  10.416  12.611  11.845 -0.2060  0.2326 -0.0863
 4038SOL    HW130106  10.465  12.570  11.916  0.7437  0.6019 -0.5212
 4038SOL    HW230107  10.355  12.670  11.889  0.0080  0.0628  0.4392
 4039SOL     OW30108   6.771   9.285  14.100 -0.0807  0.1647  0.8466
 4039SOL    HW130109   6.748   9.284  14.007 -0.4027 -1.8321  0.9124
 4039SOL    HW230110   6.865   9.267  14.101  0.5626  2.9624  0.8452
 4040SOL     OW30111  13.358   4.558  13.107 -0.5084 -0.5347 -0.4978
 4040SOL    HW130112  13.309   4.574  13.188  0.4367 -1.2973  0.2504
 4040SOL    HW230113  13.437   4.611  13.116  0.8372 -2.5558  0.2899
 4041SOL     OW30114   1.842  13.506   2.215  0.1045 -0.8190  0.4528
 4041SOL    HW130115   1.831  13.418   2.179 -0.1757  0.2171 -2.2657
 4041SOL    HW230116   1.752  13.539   2.226  0.2093 -0.4947  0.3579
 4042SOL     OW30117   0.263   8.734  11.007  0.0116  0.4209 -0.1873
 4042SOL    HW130118   0.265   8.754  10.913 -2.0123 -0.9435 -0.5977
 4042SOL    HW230119   0.250   8.819  11.049  1.9179  1.1761 -1.0284
 4043SOL     OW30120   7.460   6.052  12.246  0.2149  0.5664 -0.3135
 4043SOL    HW130121   7.518   6.122  12.217  0.7330  0.4532  0.3988
 4043SOL    HW230122   7.372   6.084  12.228  0.4933  0.4063 -2.1840
 4044SOL     OW30123   7.209  11.750  11.630 -0.4867  0.2587 -0.3221
 4044SOL    HW130124   7.142  11.686  11.606  1.3666 -1.4729 -1.1842
 4044SOL    HW230125   7.252  11.713  11.707 -0.6691  1.4925  0.4090
 4045SOL     OW30126   2.707   5.627   5.027  0.1612 -0.3815  0.3775
 4045SOL    HW130127   2.637   5.585   4.976  0.8497 -1.4153  0.2534
 4045SOL    HW230128   2.694   5.595   5.117  0.5259 -0.6431  0.3383
 4046SOL     OW30129  13.696   5.166   7.836  0.3113  0.2695 -0.2581
 4046SOL    HW130130  13.773   5.214   7.866 -0.4790  1.4698 -0.0838
 4046SOL    HW230131  13.693   5.088   7.892  0.3472  1.1650  1.0327
 4047SOL     OW30132   7.978   6.517  12.270 -0.0291 -0.4453  0.1343
 4047SOL    HW130133   7.960   6.510  12.176 -0.7648 -1.9113  0.3593
 4047SOL    HW230134   7.920   6.586  12.301 -0.2473 -0.3942 -0.3789
 4048SOL     OW30135   1.838   2.561   9.912 -0.0194  0.3719 -0.0645
 4048SOL    HW130136   1.794   2.637   9.874 -1.2913 -0.5961 -0.5742
 4048SOL    HW230137   1.786   2.539   9.989  0.5833  0.2522  0.3183
 4049SOL     OW30138   9.970  10.885  13.686  0.5142  0.2225 -0.1125
 4049SOL    HW130139  10.061  10.876  13.712  0.2337 -1.1395  0.4838
 4049SOL    HW230140   9.973  10.926  13.600  1.6303  1.2420  0.3939
 4050SOL     OW30141  10.547   7.149   4.205 -0.1178 -0.0875 -0.6140
 4050SOL    HW130142  10.491   7.221   4.234  0.1281 -0.3611  0.5915
 4050SOL    HW230143  10.569   7.170   4.115 -0.2895  1.1992 -0.3697
 4051SOL     OW30144   7.138   1.939  10.955 -0.0170 -0.5464  0.2613
 4051SOL    HW130145   7.216   1.883  10.957  0.6502  0.3668  0.2220
 4051SOL    HW230146   7.153   2.003  11.024  0.3735  1.0541 -1.2178
 4052SOL     OW30147   7.879  13.198   1.822  0.4084 -0.1546 -0.2076
 4052SOL    HW130148   7.856  13.287   1.795 -1.0257 -0.6990 -0.8277
 4052SOL    HW230149   7.907  13.155   1.742 -2.6339 -1.3933 -0.6987
 4053SOL     OW30150  13.897   3.564  13.219 -0.5048 -0.2914 -0.5262
 4053SOL    HW130151  13.805   3.573  13.197 -0.0289  1.3357 -2.1424
 4053SOL    HW230152  13.936   3.517  13.145  0.1465  0.0639 -0.4255
 4054SOL     OW30153  13.617   1.958   7.070  0.3349  0.2566 -0.4420
 4054SOL    HW130154  13.695   1.985   7.021  0.4916 -0.7185 -0.7527
 4054SOL    HW230155  13.644   1.878   7.115 -0.8445 -0.8291 -1.5747
 4055SOL     OW30156   0.555   8.617   2.019 -0.2144  0.6284 -0.0080
 4055SOL    HW130157   0.521   8.703   2.044 -1.3811  0.2250 -0.1281
 4055SOL    HW230158   0.557   8.618   1.924 -1.6850  0.0305 -0.0841
 4056SOL     OW30159  11.103  14.016   9.226  0.1166  0.8001 -0.7834
 4056SOL    HW130160  11.078  13.990   9.137  0.8913  0.4896 -0.9180
 4056SOL    HW230161  11.178  14.074   9.214  0.6838  0.1818 -0.3033
 4057SOL     OW30162   7.249  10.910  11.085  0.3353  0.7996 -0.1751
 4057SOL    HW130163   7.265  10.864  11.167  0.4514  0.6173 -0.3013
 4057SOL    HW230164   7.326  10.966  11.074  0.8964 -0.0830 -0.7864
 4058SOL     OW30165   8.782   9.985  13.389  0.4164 -0.6489  0.1381
 4058SOL    HW130166   8.839  10.058  13.412  0.8074 -0.9352  0.0852
 4058SOL    HW230167   8.693  10.017  13.407  0.6137 -0.3125  0.5178
 4059SOL     OW30168   3.319   6.920   6.575 -0.1608  0.6151 -0.0396
 4059SOL    HW130169   3.370   6.984   6.624 -0.9688  1.7927 -0.6808
 4059SOL    HW230170   3.373   6.841   6.575 -0.0689  0.5813  2.6239
 4060SOL     OW30171   5.430   7.339   8.793  0.1321 -0.0388 -0.1696
 4060SOL    HW130172   5.520   7.373   8.789  0.1085 -0.0475 -0.9793
 4060SOL    HW230173   5.441   7.244   8.790  0.0905 -0.0339 -0.6242
 4061SOL     OW30174   2.863   3.173   1.272 -0.6344  0.4068 -0.2877
 4061SOL    HW130175   2.856   3.145   1.181  2.2979  0.8160 -0.7579
 4061SOL    HW230176   2.826   3.261   1.274  0.7655  1.0647 -1.5221
 4062SOL     OW30177   0.489  10.797  10.492  0.0382  0.2652  0.3504
 4062SOL    HW130178   0.574  10.813  10.532  1.1282 -0.9091 -1.3467
 4062SOL    HW230179   0.509  10.768  10.403 -2.2291  2.1507 -0.9028
 4063SOL     OW30180   5.122  11.007   5.771 -0.0609 -0.0737  0.0193
 4063SOL    HW130181   5.144  10.934   5.713 -0.2658 -0.3795  0.3251
 4063SOL    HW230182   5.184  11.076   5.747 -0.5111  0.0076 -0.9534
 4064SOL     OW30183  12.207   8.537   1.444 -0.4911 -0.0150 -0.3665
 4064SOL    HW130184  12.265   8.550   1.518 -1.3725 -1.5415  0.6433
 4064SOL    HW230185  12.151   8.615   1.443 -0.6281 -0.0931  0.7174
 4065SOL     OW30186  13.913  12.711  11.431 -0.4935 -0.5950 -0.0734
 4065SOL    HW130187  13.876  12.638  11.481  1.0542 -0.2014  1.7418
 4065SOL    HW230188  13.994  12.677  11.393 -1.6055 -0.8724 -2.3911
 4066SOL     OW30189   4.931  13.472   1.874 -0.3199  0.4693 -0.1879
 4066SOL    HW130190   4.975  13.427   1.802 -0.8394  0.8997 -0.7809
 4066SOL    HW230191   4.856  13.416   1.894  1.2840 -1.1225  1.8926
 4067SOL     OW30192   7.660  12.048   8.286 -0.3131  0.1405 -0.2291
 4067SOL    HW130193   7.676  12.013   8.373  0.4090  0.2582 -0.3070
 4067SOL    HW230194   7.615  11.978   8.239  0.4842 -0.4303 -0.1658
 4068SOL     OW30195  12.870   0.704  11.977 -0.3765 -0.6090 -0.3162
 4068SOL    HW130196  12.822   0.661  12.047 -1.1893  0.4931 -0.1672
 4068SOL    HW230197  12.961   0.679  11.991 -0.4724 -0.1126  1.3575
 4069SOL     OW30198  11.322   3.888  14.020  0.3193  0.1753  0.5333
 4069SOL    HW130199  11.287   3.966  13.978 -0.2499 -0.0030  0.6728
 4069SOL    HW230200  11.415   3.888  13.996  0.1788  0.5199 -0.0405
 4070SOL     OW30201  10.411   7.383  11.265 -0.1881  0.1980  0.3246
 4070SOL    HW130202  10.458   7.365  11.183 -0.2320  0.7815  0.1673
 4070SOL    HW230203  10.336   7.324  11.262 -0.4150  0.5023 -0.2557
 4071SOL     OW30204  12.772   5.850  11.229 -0.4970 -0.2686 -0.4260
 4071SOL    HW130205  12.856   5.889  11.253 -0.5240 -0.0448 -0.6931
 4071SOL    HW230206  12.712   5.876  11.299 -0.1082 -1.2785  0.3071
 4072SOL     OW30207   2.562  11.027   6.419 -0.2274  0.3764  0.1727
 4072SOL    HW130208   2.647  11.039   6.461 -0.6385 -0.9954  1.4996
 4072SOL    HW230209   2.556  11.098   6.355  2.4301 -0.2213 -0.8505
 4073SOL     OW30210   5.319   0.145   9.492 -0.0277  0.3552 -0.0669
 4073SOL    HW130211   5.242   0.189   9.457 -0.2828 -1.2637 -1.6784
 4073SOL    HW230212   5.311   0.054   9.462  3.1049  0.3783 -1.4225
 4074SOL     OW30213  11.797   1.575   7.822 -0.0418  0.1689  0.7164
 4074SOL    HW130214  11.748   1.575   7.740 -0.3591  0.0635  0.9015
 4074SOL    HW230215  11.839   1.490   7.825  0.2798  0.3182  0.4837
 4075SOL     OW30216   1.190  14.083   9.200 -0.1376  0.2349 -0.0970
 4075SOL    HW130217   1.135  14.135   9.142 -0.7538  0.9965  1.1090
 4075SOL    HW230218   1.279  14.112   9.181 -0.1707 -0.6100 -1.6803
 4076SOL     OW30219   6.678   8.986   2.058  0.2182 -0.4420 -0.2593
 4076SOL    HW130220   6.639   9.054   2.003 -1.0685 -0.5748  0.4530
 4076SOL    HW230221   6.634   8.905   2.031  1.2932 -0.9072 -0.6714
 4077SOL     OW30222  13.489  11.015   1.719 -0.5118  0.0699 -1.0243
 4077SOL    HW130223  13.466  10.962   1.643 -0.4199 -0.2704 -0.8147
 4077SOL    HW230224  13.584  11.013   1.722 -0.5049 -2.9306  1.1822
 4078SOL     OW30225   0.392   8.047   2.649 -0.0488  0.3342 -0.1168
 4078SOL    HW130226   0.476   8.006   2.630 -0.0801  0.7500 -1.1925
 4078SOL    HW230227   0.403   8.138   2.622 -1.1111  0.2058 -1.0400
 4079SOL     OW30228  12.692   4.314   2.857 -0.4087  0.0657  0.1134
 4079SOL    HW130229  12.648   4.302   2.772 -0.4483  0.2014  0.1155
 4079SOL    HW230230  12.657   4.243   2.911  0.6759 -0.9014 -0.4120
 4080SOL     OW30231   0.992   6.517   0.713 -0.6700 -0.2530 -0.0314
 4080SOL    HW130232   0.928   6.482   0.775  1.5890 -1.1750  1.9724
 4080SOL    HW230233   0.960   6.605   0.692 -2.8113 -0.8724  0.4644
 4081SOL     OW30234   8.780  10.711   6.126  0.0336  0.3094 -0.2264
 4081SOL    HW130235   8.752  10.753   6.045  0.9321  1.1443 -0.1293
 4081SOL    HW230236   8.775  10.780   6.192  0.6509  0.0255  0.1302
 4082SOL     OW30237   6.959  12.649  11.787  0.1404 -0.5651  0.3480
 4082SOL    HW130238   6.937  12.706  11.861  0.8741  0.5549 -0.2715
 4082SOL    HW230239   6.875  12.616  11.757 -0.3817  0.6956  0.3465
 4083SOL     OW30240   8.866   6.540   3.008  0.6463  0.2054 -0.3143
 4083SOL    HW130241   8.775   6.529   2.979  0.1980 -1.5777  1.4927
 4083SOL    HW230242   8.918   6.525   2.930 -0.5873  1.4043 -1.4281
 4084SOL     OW30243   3.231  13.349  11.066  0.6269 -0.1905 -0.2925
 4084SOL    HW130244   3.306  13.334  11.009  0.1091  0.8153 -1.2939
 4084SOL    HW230245   3.158  13.306  11.021 -0.0625  1.7645 -1.1553
 4085SOL     OW30246   6.849   2.973   0.339 -0.6272 -0.4178  0.3419
 4085SOL    HW130247   6.809   2.888   0.322 -0.8471 -0.1956 -0.2524
 4085SOL    HW230248   6.890   2.963   0.425  0.1093 -1.4047 -0.1081
 4086SOL     OW30249   7.024   0.193   8.582  0.0138 -0.2209 -0.3111
 4086SOL    HW130250   7.112   0.177   8.617 -0.0194 -1.4148 -0.7305
 4086SOL    HW230251   6.971   0.211   8.659  0.6399  0.6581 -0.0616
 4087SOL     OW30252   9.590  11.853  10.304 -0.3586  0.0818 -0.0382
 4087SOL    HW130253   9.563  11.799  10.378 -1.5275  1.1767  0.3969
 4087SOL    HW230254   9.633  11.928  10.344  1.5414 -0.6434 -0.6452
 4088SOL     OW30255   4.383   1.702   1.608 -0.0320  0.0121 -0.4211
 4088SOL    HW130256   4.323   1.760   1.562 -0.0474 -0.4294 -0.9774
 4088SOL    HW230257   4.345   1.615   1.595  1.0714 -0.3634 -1.3731
 4089SOL     OW30258  10.657   3.426   1.288 -0.3557  0.0787  0.3448
 4089SOL    HW130259  10.739   3.475   1.294  0.2847 -0.9275  0.0958
 4089SOL    HW230260  10.592   3.492   1.265  0.0785  1.1661  2.0457
 4090SOL     OW30261  12.585   7.702   2.559  0.5041 -0.1864  0.0725
 4090SOL    HW130262  12.632   7.627   2.523  2.2990  1.2921 -0.8278
 4090SOL    HW230263  12.635   7.778   2.531 -0.8750  1.3497  1.5056
 4091SOL     OW30264   2.632  11.993   6.932 -0.3789  0.3346 -0.5765
 4091SOL    HW130265   2.600  11.904   6.917  2.4131 -0.4145 -3.0429
 4091SOL    HW230266   2.645  11.998   7.027 -1.6921 -1.4571 -0.2547
 4092SOL     OW30267  12.613  10.628   9.416 -0.5820 -0.3919  0.3903
 4092SOL    HW130268  12.660  10.703   9.453 -0.5531  0.5347 -1.4097
 4092SOL    HW230269  12.666  10.552   9.439  1.9147  0.6135 -1.6042
 4093SOL     OW30270  11.614   7.144  11.598  0.0648 -0.1169 -0.3358
 4093SOL    HW130271  11.683   7.080  11.585  0.6469  0.5742 -0.7250
 4093SOL    HW230272  11.541   7.113  11.543  0.8713  0.3293 -1.7014
 4094SOL     OW30273  13.168  10.568   2.317 -0.1135  0.1647  0.1941
 4094SOL    HW130274  13.093  10.510   2.333 -0.1095 -0.0377 -0.5065
 4094SOL    HW230275  13.195  10.549   2.227  1.9800 -1.1301  1.0388
 4095SOL     OW30276  10.152   0.157  13.163 -0.3175 -0.7693  0.4287
 4095SOL    HW130277  10.091   0.197  13.101 -1.0645 -0.2816  1.4486
 4095SOL    HW230278  10.239   0.174  13.125 -0.6025  1.6367  0.6746
 4096SOL     OW30279   7.823   0.447   9.943 -0.4828  0.6750  0.0636
 4096SOL    HW130280   7.886   0.449  10.015 -0.6512 -0.1613  0.2457
 4096SOL    HW230281   7.844   0.366   9.896  0.2016  1.6353 -1.3617
 4097SOL     OW30282   0.705   2.213   9.977 -0.4805  0.5290 -0.0051
 4097SOL    HW130283   0.737   2.174  10.059 -0.3786  0.7777  0.0728
 4097SOL    HW230284   0.639   2.275  10.005 -2.3477 -1.2377 -0.2537
 4098SOL     OW30285   2.136   9.544  11.266  0.6611 -0.0442  0.0249
 4098SOL    HW130286   2.130   9.481  11.338  0.3881  0.8769  0.8188
 4098SOL    HW230287   2.058   9.599  11.275  1.1047  0.6689 -0.4153
 4099SOL     OW30288  13.346   9.943   1.518 -0.2223  0.4472  0.3706
 4099SOL    HW130289  13.307   9.995   1.447 -1.9309 -3.0212 -1.5104
 4099SOL    HW230290  13.271   9.901   1.560  1.0928 -2.0702  0.3481
 4100SOL     OW30291   4.399  12.712   5.280 -0.4679  0.2422  0.0495
 4100SOL    HW130292   4.424  12.712   5.372 -1.6484 -1.5489  0.4325
 4100SOL    HW230293   4.475  12.677   5.234  0.0464  0.9326  0.3606
 4101SOL     OW30294   9.339  11.723   4.791 -0.3960  0.3538  0.3584
 4101SOL    HW130295   9.434  11.734   4.792 -0.4538  0.9731 -0.0468
 4101SOL    HW230296   9.320  11.670   4.868  0.4518 -1.3517 -0.5472
 4102SOL     OW30297  12.710   0.895   4.591  0.3946  0.3648 -0.2126
 4102SOL    HW130298  12.744   0.932   4.510  0.0846  1.7748  0.2734
 4102SOL    HW230299  12.730   0.960   4.658  0.3050 -0.5993  0.7877
 4103SOL     OW30300  10.316   5.388   9.165  0.1487 -0.1360 -0.0213
 4103SOL    HW130301  10.283   5.298   9.157 -0.3142  0.0851 -0.7370
 4103SOL    HW230302  10.245   5.442   9.129  1.3365  0.3350 -1.8077
 4104SOL     OW30303   9.627   3.505   8.876 -0.1050 -0.0731 -0.3712
 4104SOL    HW130304   9.691   3.533   8.811 -1.9702  2.1072 -1.4087
 4104SOL    HW230305   9.665   3.533   8.960  1.0942 -0.4665 -0.7602
 4105SOL     OW30306   0.947   7.735   9.265  1.1592  0.9580 -0.3328
 4105SOL    HW130307   0.873   7.679   9.288  3.0068 -0.5572  2.5475
 4105SOL    HW230308   0.910   7.823   9.263 -1.4419 -0.0096 -3.1174
 4106SOL     OW30309   9.706   2.215  11.194  0.3360 -0.1244  0.0626
 4106SOL    HW130310   9.728   2.181  11.281 -1.9747  1.5083  1.3904
 4106SOL    HW230311   9.789   2.211  11.145  1.6187 -1.4590  2.1913
 4107SOL     OW30312  10.476   7.094   2.284 -0.2595 -0.4310  0.2566
 4107SOL    HW130313  10.492   7.186   2.265 -3.6423  0.3425  0.4262
 4107SOL    HW230314  10.429   7.061   2.206  0.2874 -1.8227  0.4831
 4108SOL     OW30315   2.294   0.193   8.706  0.1195  0.6314 -0.0680
 4108SOL    HW130316   2.379   0.216   8.668 -0.6692 -0.4595 -2.7119
 4108SOL    HW230317   2.315   0.158   8.793  2.2135  1.6675 -0.0944
 4109SOL     OW30318  12.485   1.347  10.846  0.2633  0.5000  0.5202
 4109SOL    HW130319  12.497   1.257  10.875  0.4753  0.9899  2.0656
 4109SOL    HW230320  12.544   1.399  10.902 -0.6172  1.6958  0.3890
 4110SOL     OW30321   4.071   1.220   8.941  0.1742  0.3681 -0.2127
 4110SOL    HW130322   4.025   1.142   8.910  0.7435 -0.1335  0.1826
 4110SOL    HW230323   4.156   1.217   8.898 -0.1707  1.3309 -0.9969
 4111SOL     OW30324   8.735   1.423  14.075 -0.1975 -0.6436 -0.1632
 4111SOL    HW130325   8.761   1.515  14.073  0.8426 -0.9112 -2.9602
 4111SOL    HW230326   8.641   1.425  14.095 -0.0185  0.9178  0.7406
 4112SOL     OW30327   6.184  11.374  13.730 -0.2024  0.3430  0.6344
 4112SOL    HW130328   6.125  11.340  13.663  2.1065  0.7258 -1.7208
 4112SOL    HW230329   6.256  11.311  13.733  2.3971  2.9559 -1.2562
 4113SOL     OW30330   1.859   6.894   5.395  0.2436 -0.2318 -0.2926
 4113SOL    HW130331   1.797   6.952   5.440 -0.1039 -0.0619 -0.9885
 4113SOL    HW230332   1.879   6.827   5.460 -0.4049 -0.0948  0.0597
 4114SOL     OW30333   2.257   2.449   7.282  0.1849 -0.2102  0.1430
 4114SOL    HW130334   2.195   2.439   7.210 -0.4677  0.8254  0.5484
 4114SOL    HW230335   2.218   2.400   7.355  1.2931 -2.0564 -0.4311
 4115SOL     OW30336   9.499   7.077   4.950  0.1184  0.8056 -0.1495
 4115SOL    HW130337   9.573   7.120   4.992 -0.1771  1.0411  0.1415
 4115SOL    HW230338   9.538   7.022   4.882  0.5427  1.0723 -0.1256
 4116SOL     OW30339   0.030   8.243   6.117 -0.0930  0.0024  0.4766
 4116SOL    HW130340   0.107   8.193   6.092 -1.0152 -1.7807  1.0215
 4116SOL    HW230341   0.063   8.331   6.134  1.7240 -0.5830  0.1839
 4117SOL     OW30342   0.189  10.896  12.769 -0.1622  0.3923 -0.0218
 4117SOL    HW130343   0.102  10.898  12.809 -0.5393 -0.9889 -0.7104
 4117SOL    HW230344   0.185  10.824  12.705  1.0246  1.2744 -1.1389
 4118SOL     OW30345   7.682  13.668   6.793 -0.0438  0.0027 -0.1955
 4118SOL    HW130346   7.670  13.576   6.816  1.1173 -0.0455  0.2783
 4118SOL    HW230347   7.726  13.706   6.869  1.3646  0.4701 -1.2021
 4119SOL     OW30348   5.990   2.889   2.773 -0.1286 -0.5133 -0.5520
 4119SOL    HW130349   6.073   2.846   2.791  0.3786  0.2368 -1.0206
 4119SOL    HW230350   5.963   2.927   2.857  1.3327  1.4643 -0.9010
 4120SOL     OW30351   1.816   6.227   8.303  0.1762 -0.0927  0.0176
 4120SOL    HW130352   1.762   6.303   8.284  1.1623  0.8989  1.0543
 4120SOL    HW230353   1.760   6.171   8.358  0.4616  1.3867  1.9201
 4121SOL     OW30354   3.030   1.832   2.358 -0.7565  0.6546 -0.4790
 4121SOL    HW130355   2.963   1.847   2.425 -0.5450  0.2602 -0.1762
 4121SOL    HW230356   3.083   1.912   2.360 -1.9480  1.5164 -1.6012
 4122SOL     OW30357   2.932   7.842   0.715 -0.8502 -0.1527  0.1800
 4122SOL    HW130358   2.899   7.928   0.741 -1.0526 -1.0452  3.2204
 4122SOL    HW230359   3.026   7.856   0.700 -1.0053  0.7023 -0.0509
 4123SOL     OW30360  13.961  11.485  10.990  0.0442 -0.6057  0.1084
 4123SOL    HW130361  13.949  11.453  10.900  0.3289  0.8202 -0.4771
 4123SOL    HW230362  14.056  11.498  10.998  0.1684 -1.9948  1.0958
 4124SOL     OW30363  11.023   5.540  10.078 -0.0795  0.1874 -0.6462
 4124SOL    HW130364  11.000   5.576  10.164 -1.4028 -0.5027 -0.6759
 4124SOL    HW230365  11.055   5.615  10.028  2.0600  0.3554  0.8585
 4125SOL     OW30366   6.696  13.595   6.501 -0.3052  1.0747  0.3627
 4125SOL    HW130367   6.764  13.531   6.478 -1.6723 -0.9095  1.5199
 4125SOL    HW230368   6.744  13.666   6.544  1.1347  0.1354  0.3924
 4126SOL     OW30369  12.868   7.453   5.765  0.2602 -0.4894 -0.0495
 4126SOL    HW130370  12.801   7.492   5.709  0.8193  2.4688  1.1309
 4126SOL    HW230371  12.948   7.454   5.712  0.4571  0.9094  0.2227
 4127SOL     OW30372   6.909  13.076   6.869 -0.1316  0.3902 -0.4589
 4127SOL    HW130373   6.948  13.019   6.803 -2.1786 -1.5101 -0.1225
 4127SOL    HW230374   6.939  13.040   6.953 -3.7095 -2.2205 -0.0965
 4128SOL     OW30375  12.241   7.830  11.202  0.0618 -0.2077  0.0219
 4128SOL    HW130376  12.255   7.925  11.206  0.9888 -0.3022 -0.6769
 4128SOL    HW230377  12.154   7.820  11.163 -1.0780  0.3623  2.2236
 4129SOL     OW30378   9.922   0.315   0.969  0.6357  0.1183 -0.2484
 4129SOL    HW130379   9.988   0.351   0.909  0.3053  1.2703  0.0518
 4129SOL    HW230380   9.912   0.382   1.037 -1.2923  0.2801 -0.6206
 4130SOL     OW30381   6.760   5.492   6.123  0.2237 -0.2395 -0.5897
 4130SOL    HW130382   6.823   5.515   6.191 -1.2156 -0.1564  0.7633
 4130SOL    HW230383   6.714   5.574   6.105  0.7235 -0.2152 -1.8389
 4131SOL     OW30384   6.577   8.933  11.658 -0.3215  0.1473  0.3399
 4131SOL    HW130385   6.561   9.026  11.642  0.0768  1.0977  4.3662
 4131SOL    HW230386   6.493   8.900  11.690  0.1112 -0.3245  0.9945
 4132SOL     OW30387  14.135   4.019   6.806 -0.2454  0.0610 -0.0942
 4132SOL    HW130388  14.132   4.103   6.760 -0.9855 -0.4455 -1.0241
 4132SOL    HW230389  14.057   4.019   6.862 -0.6135 -0.2554 -0.5907
 4133SOL     OW30390  10.934  13.341   6.218 -0.1290  0.0660 -0.2131
 4133SOL    HW130391  10.986  13.334   6.298  0.1138 -0.1456 -0.3853
 4133SOL    HW230392  10.954  13.427   6.183 -1.8124  1.0320  1.0200
 4134SOL     OW30393  11.824   8.637  10.339  0.4918 -0.3773  0.2083
 4134SOL    HW130394  11.817   8.685  10.256 -0.2163 -2.2534 -0.9016
 4134SOL    HW230395  11.904   8.584  10.328  1.0744  0.2610  1.2612
 4135SOL     OW30396   3.478  13.483  12.758  0.0075 -0.4859  0.1624
 4135SOL    HW130397   3.469  13.505  12.666  1.7852 -2.7803 -0.6667
 4135SOL    HW230398   3.470  13.566  12.804 -0.6685  0.7478 -2.0629
 4136SOL     OW30399  10.414   1.339   1.599 -0.2425 -0.2065  0.8818
 4136SOL    HW130400  10.370   1.296   1.526 -1.0506 -0.3070  1.4261
 4136SOL    HW230401  10.443   1.268   1.656 -0.4218 -0.0824  1.1255
 4137SOL     OW30402   0.112   6.428   2.519 -0.5141  0.2182 -0.4455
 4137SOL    HW130403   0.162   6.347   2.512 -1.3100 -0.1777 -1.8767
 4137SOL    HW230404   0.176   6.493   2.549  0.8854 -0.2596 -2.2422
 4138SOL     OW30405   3.915   9.705   9.977 -0.0372 -0.3455 -0.4639
 4138SOL    HW130406   4.005   9.689   9.951 -0.1457 -1.4041 -0.2451
 4138SOL    HW230407   3.907   9.800   9.982  0.8805 -0.2259 -1.1077
 4139SOL     OW30408   5.458   9.749   0.408 -0.3439  0.5494  0.5343
 4139SOL    HW130409   5.412   9.829   0.434 -0.3829  1.1013 -1.1139
 4139SOL    HW230410   5.545   9.779   0.380  0.1433 -0.1733  1.2243
 4140SOL     OW30411   6.933   3.567  10.034 -0.0172 -0.2300 -0.6062
 4140SOL    HW130412   7.017   3.523  10.047 -0.2234 -0.2700  0.6473
 4140SOL    HW230413   6.943   3.612   9.949  1.7126  0.7821  0.0743
 4141SOL     OW30414   7.694   4.831  10.424 -0.0703  0.3350  0.3857
 4141SOL    HW130415   7.726   4.905  10.475  1.8393 -1.1383  1.4920
 4141SOL    HW230416   7.761   4.817  10.357 -1.4783  0.8980 -1.1976
 4142SOL     OW30417  11.094   5.212  12.063  0.3876 -0.2770 -0.0031
 4142SOL    HW130418  11.048   5.226  11.980 -0.4006 -0.4836  0.3903
 4142SOL    HW230419  11.078   5.293  12.112 -1.3248 -1.1347  0.9420
 4143SOL     OW30420   5.638   6.349   4.349  0.3517  0.1652  0.2621
 4143SOL    HW130421   5.622   6.416   4.283 -1.7826  0.7727  1.3106
 4143SOL    HW230422   5.613   6.390   4.432  0.9538 -1.2580  1.1889
 4144SOL     OW30423  11.543  10.567   9.474 -0.1620  0.1812 -0.0722
 4144SOL    HW130424  11.529  10.486   9.424  0.2325  0.0115  0.0896
 4144SOL    HW230425  11.479  10.562   9.545 -0.3751  0.1779 -0.2626
 4145SOL     OW30426   8.754  10.629   5.816 -0.5460 -0.0409  0.0088
 4145SOL    HW130427   8.670  10.617   5.861 -1.4402  0.7707 -1.3794
 4145SOL    HW230428   8.747  10.576   5.737  0.8250 -1.0883  0.5553
 4146SOL     OW30429   9.403   4.526  11.403 -0.2529 -0.1024  0.2116
 4146SOL    HW130430   9.460   4.482  11.466 -0.5979 -1.6777 -0.5282
 4146SOL    HW230431   9.315   4.498  11.427 -0.5515  0.7307  0.1218
 4147SOL     OW30432  13.098   8.307   8.685  0.3110 -0.6692  0.2019
 4147SOL    HW130433  13.064   8.242   8.747 -1.0595 -0.6226 -0.4621
 4147SOL    HW230434  13.021   8.338   8.638  1.0354  0.9251 -0.0020
 4148SOL     OW30435   4.752   3.787   0.076 -0.1938  0.0697 -0.0472
 4148SOL    HW130436   4.700   3.865   0.092  1.6669  0.9723  2.2371
 4148SOL    HW230437   4.739   3.732   0.153 -0.1626 -1.1285 -0.8552
 4149SOL     OW30438   0.136   0.712  13.361  0.4637 -0.8547  0.2965
 4149SOL    HW130439   0.154   0.636  13.416  0.0241 -1.4386 -0.3432
 4149SOL    HW230440   0.078   0.767  13.414  3.0463  0.4864  1.9138
 4150SOL     OW30441  12.448  12.520   0.779 -0.1136  0.2077  0.3687
 4150SOL    HW130442  12.480  12.610   0.770  1.1253  0.2841  3.9245
 4150SOL    HW230443  12.364  12.529   0.824 -2.1589 -0.3769 -2.9442
 4151SOL     OW30444  10.570   3.417  11.251 -0.0353  0.5622  0.1243
 4151SOL    HW130445  10.562   3.341  11.308  0.4196  0.4434  0.0321
 4151SOL    HW230446  10.480   3.444  11.233 -0.1808  0.4627  0.7153
 4152SOL     OW30447   6.267  13.985   2.996 -0.4388 -0.0102 -0.3353
 4152SOL    HW130448   6.326  13.910   3.001 -0.4462 -0.0343 -0.5913
 4152SOL    HW230449   6.272  14.026   3.082 -0.4943 -0.3486 -0.1709
 4153SOL     OW30450  11.939   9.329  10.988  0.3899  0.1949  0.3660
 4153SOL    HW130451  12.004   9.309  10.920 -0.6687  0.5148 -0.7683
 4153SOL    HW230452  11.861   9.355  10.939 -0.8758 -0.9936  1.6737
 4154SOL     OW30453  13.861  10.437   8.218  0.2987  0.0572  0.3325
 4154SOL    HW130454  13.954  10.423   8.199  1.1050  1.0014  3.1538
 4154SOL    HW230455  13.835  10.360   8.268 -0.1994  0.2339  0.3499
 4155SOL     OW30456   4.150   2.822   9.706  0.1830 -0.6011  0.1086
 4155SOL    HW130457   4.189   2.735   9.696 -1.9601 -1.7237  0.9777
 4155SOL    HW230458   4.080   2.825   9.642 -1.2415 -0.4352  1.6073
 4156SOL     OW30459   8.292  11.051   4.392 -0.0904  0.4232 -0.2620
 4156SOL    HW130460   8.244  10.987   4.339 -0.1097 -0.1771  0.4621
 4156SOL    HW230461   8.258  11.039   4.481  0.0872  1.2703 -0.0697
 4157SOL     OW30462   5.458  13.925  10.992 -0.1222  0.3745 -0.2044
 4157SOL    HW130463   5.485  13.971  10.913 -0.4032 -1.4726 -1.4529
 4157SOL    HW230464   5.533  13.934  11.052  0.5164  0.9524 -1.0684
 4158SOL     OW30465   2.788   6.645  10.916 -0.0690  0.2817  0.0002
 4158SOL    HW130466   2.864   6.618  10.968 -0.6822 -0.7381  0.4025
 4158SOL    HW230467   2.735   6.697  10.977  0.8489  1.9934 -0.6169
 4159SOL     OW30468   0.970   7.325   2.265  0.4164 -0.4015  0.0001
 4159SOL    HW130469   0.891   7.295   2.221  1.4728 -1.8148 -1.0072
 4159SOL    HW230470   0.986   7.412   2.230 -0.7101 -0.0615  0.2790
 4160SOL     OW30471  12.043  10.207  13.147  0.1817  0.3827 -0.1286
 4160SOL    HW130472  12.138  10.194  13.153 -0.0525 -0.8701  1.8429
 4160SOL    HW230473  12.023  10.271  13.216 -0.4928 -0.0337  0.0737
 4161SOL     OW30474   5.357   9.307   0.418  0.0763  0.4248  0.2559
 4161SOL    HW130475   5.327   9.379   0.475 -1.2372  0.4579 -0.4518
 4161SOL    HW230476   5.451   9.302   0.434 -0.0110  1.5062  1.2260
 4162SOL     OW30477   0.842  13.618  11.077 -0.1347 -0.4264 -0.2348
 4162SOL    HW130478   0.755  13.591  11.048 -0.1724 -0.5713  0.0148
 4162SOL    HW230479   0.900  13.591  11.006 -0.0539 -1.9175  0.3645
 4163SOL     OW30480  12.542   9.437   5.627 -0.6288 -0.0815 -0.1651
 4163SOL    HW130481  12.509   9.397   5.546 -1.7365 -1.6210  0.9843
 4163SOL    HW230482  12.561   9.528   5.603 -1.2172 -0.4077 -2.0661
 4164SOL     OW30483   0.348   1.359  11.278 -0.3155  0.5986  0.4071
 4164SOL    HW130484   0.423   1.400  11.321 -1.3842  2.3232  0.7218
 4164SOL    HW230485   0.273   1.415  11.301 -1.4157 -0.0902 -1.2787
 4165SOL     OW30486   3.517  10.710   4.021 -0.7036 -0.1173  0.4601
 4165SOL    HW130487   3.497  10.626   3.979 -0.7273  1.9274 -4.2765
 4165SOL    HW230488   3.434  10.757   4.020 -0.5096  0.3346  2.3363
 4166SOL     OW30489   3.045   6.362   0.818  0.4189  0.0268  0.6469
 4166SOL    HW130490   3.065   6.347   0.911  1.1674  1.3838  0.7264
 4166SOL    HW230491   2.994   6.443   0.818  0.4135  0.0236 -0.1402
 4167SOL     OW30492  11.081   1.761   1.552  0.1149 -0.5102  0.1325
 4167SOL    HW130493  11.048   1.741   1.639 -0.0043 -0.1855  0.1657
 4167SOL    HW230494  11.078   1.857   1.547  1.7210 -0.4145  0.4100
 4168SOL     OW30495   8.521   6.168   0.152 -0.4591 -0.8079 -0.5096
 4168SOL    HW130496   8.454   6.111   0.190 -1.0011  0.1734  0.0705
 4168SOL    HW230497   8.482   6.256   0.157  0.5900 -0.3142 -0.8255
 4169SOL     OW30498   5.228  11.707  11.860  0.0475 -0.0267  0.0852
 4169SOL    HW130499   5.230  11.627  11.912  0.4760  0.2708  0.5359
 4169SOL    HW230500   5.193  11.774  11.919 -3.9562 -0.5831 -1.3235
 4170SOL     OW30501   2.923   1.690  10.019 -0.5976 -0.3673 -0.1390
 4170SOL    HW130502   2.877   1.736  10.088 -1.3559 -1.5681  0.1767
 4170SOL    HW230503   2.890   1.601  10.022 -0.4307 -0.5295 -1.8604
 4171SOL     OW30504  11.096   7.326   5.890 -0.0161  0.0225  0.6486
 4171SOL    HW130505  11.090   7.247   5.944 -1.1407  0.2609  0.8919
 4171SOL    HW230506  11.073   7.297   5.802  1.7088 -0.3422  0.2693
 4172SOL     OW30507  10.240   5.463   4.145 -0.3569 -0.0940  0.2689
 4172SOL    HW130508  10.325   5.474   4.188 -0.6882  2.3371  0.4334
 4172SOL    HW230509  10.191   5.404   4.203 -0.4023  2.2089  2.7664
 4173SOL     OW30510   0.560   0.821  10.029 -0.2923 -0.0914 -0.1640
 4173SOL    HW130511   0.587   0.766  10.103 -0.8722 -1.5896 -1.0075
 4173SOL    HW230512   0.479   0.780   9.997 -1.4238  1.9623 -0.1223
 4174SOL     OW30513  13.405   9.752  10.762  0.3962  0.1343 -0.1718
 4174SOL    HW130514  13.456   9.807  10.703  0.7089  0.9740  0.8586
 4174SOL    HW230515  13.347   9.702  10.704 -1.3897  3.0410 -1.0840
 4175SOL     OW30516   8.331   6.893   1.112  0.4953  0.0661 -0.9110
 4175SOL    HW130517   8.362   6.968   1.060  0.5264  1.3362  0.8424
 4175SOL    HW230518   8.398   6.826   1.101 -0.1420 -0.2462 -3.5311
 4176SOL     OW30519  10.257  11.007   3.522 -0.6357 -0.3362  0.0825
 4176SOL    HW130520  10.329  11.068   3.539 -1.2026  0.3003  0.2336
 4176SOL    HW230521  10.299  10.933   3.478  0.3180 -0.5509  1.2949
 4177SOL     OW30522   2.540   6.534   5.424 -0.1733 -0.1559  0.2375
 4177SOL    HW130523   2.611   6.552   5.484  0.9398 -0.0636 -1.0595
 4177SOL    HW230524   2.579   6.480   5.355 -1.1893  0.4047 -0.8329
 4178SOL     OW30525  12.378  10.938   0.000  0.4541 -0.2509  0.2451
 4178SOL    HW130526  12.342  11.015  -0.043 -0.6476 -1.9394 -2.0780
 4178SOL    HW230527  12.371  10.957   0.094  0.8652  2.6786 -0.2292
 4179SOL     OW30528  11.254   5.064  12.238 -0.2900  0.0558 -0.1650
 4179SOL    HW130529  11.172   5.107  12.215 -0.3886  0.1379  0.3339
 4179SOL    HW230530  11.318   5.136  12.244 -0.6087  0.2515  1.3910
 4180SOL     OW30531   4.892   9.547   4.424 -0.1043  0.0040 -0.3599
 4180SOL    HW130532   4.896   9.633   4.382  1.9761  0.9104  1.4529
 4180SOL    HW230533   4.959   9.495   4.380  0.2353  0.0889  0.0484
 4181SOL     OW30534   4.456   8.554   9.523  0.0232  0.0423  0.9204
 4181SOL    HW130535   4.434   8.636   9.478  1.1597  0.0062  0.2601
 4181SOL    HW230536   4.438   8.573   9.616  0.0028  0.9435  0.7462
 4182SOL     OW30537  11.869   4.691   0.005  0.1177 -0.4624  0.0398
 4182SOL    HW130538  11.839   4.623   0.065  0.0450  0.3798  0.9830
 4182SOL    HW230539  11.899   4.762   0.062  1.5239 -0.2573 -0.9002
 4183SOL     OW30540   0.857   2.973   1.028 -0.5834  0.1206  0.2093
 4183SOL    HW130541   0.798   2.958   0.955 -0.5758 -0.4094  0.3058
 4183SOL    HW230542   0.885   2.885   1.055  1.1221  0.3922 -0.5500
 4184SOL     OW30543  11.920   9.024   3.755 -0.4062 -0.0646 -0.5506
 4184SOL    HW130544  11.875   9.104   3.728 -0.7693  0.0232  0.3105
 4184SOL    HW230545  11.970   9.048   3.832  1.0554 -0.1911 -1.4163
 4185SOL     OW30546   7.017   6.302   2.458  0.4028 -0.1364 -0.2351
 4185SOL    HW130547   7.011   6.236   2.527  2.1547  0.7081  0.8032
 4185SOL    HW230548   6.961   6.373   2.488 -1.3437 -1.0194 -1.2678
 4186SOL     OW30549   8.195  12.233   4.265  0.2090  0.0847  0.1862
 4186SOL    HW130550   8.224  12.150   4.227 -0.6038  0.3586 -1.1030
 4186SOL    HW230551   8.101  12.237   4.244 -0.1653  0.4923  1.8339
 4187SOL     OW30552   4.456   2.693   7.256  0.2545  0.0189 -0.0779
 4187SOL    HW130553   4.410   2.776   7.255  3.5749  2.0413  0.2006
 4187SOL    HW230554   4.454   2.666   7.348 -0.0172  0.2822 -0.0040
 4188SOL     OW30555  11.254   2.415  10.302 -0.7100  0.6167  0.8320
 4188SOL    HW130556  11.236   2.486  10.364 -0.3378 -0.0731  1.7435
 4188SOL    HW230557  11.235   2.453  10.216 -0.9288  1.6853  1.3400
 4189SOL     OW30558  10.698   3.827  13.883  0.0650  0.0886  0.0478
 4189SOL    HW130559  10.634   3.764  13.850  0.4415 -0.5783  0.5772
 4189SOL    HW230560  10.672   3.843  13.974  1.0917 -0.7829  0.5103
 4190SOL     OW30561  12.514  12.701  13.569  0.2592  0.4902 -0.0009
 4190SOL    HW130562  12.563  12.781  13.588  0.1671  0.4461  0.4425
 4190SOL    HW230563  12.443  12.730  13.512  0.1779  0.7361  0.2225
 4191SOL     OW30564   8.770   2.103  10.899 -0.0716  0.3916  0.1598
 4191SOL    HW130565   8.839   2.064  10.847 -1.3413  1.2128 -2.3194
 4191SOL    HW230566   8.706   2.033  10.912 -0.3907  0.5336 -0.6140
 4192SOL     OW30567  12.681   8.383   8.584 -0.0370 -0.3384 -0.0581
 4192SOL    HW130568  12.668   8.460   8.638 -0.6185 -0.4245 -0.0622
 4192SOL    HW230569  12.601   8.378   8.530 -0.0059 -0.9383 -0.0549
 4193SOL     OW30570   8.812  11.037   7.786 -0.5136  0.8005  0.0149
 4193SOL    HW130571   8.798  10.970   7.719  1.6326  0.6401 -0.3561
 4193SOL    HW230572   8.801  10.991   7.869  0.0654  0.1755 -0.2420
 4194SOL     OW30573   5.819   5.301  10.100  0.3570  0.5346  0.7470
 4194SOL    HW130574   5.842   5.208  10.109  1.8168  0.8220  0.3181
 4194SOL    HW230575   5.829   5.338  10.187 -1.4364  0.0711  1.1895
 4195SOL     OW30576   7.279   1.481  10.996 -0.5992 -0.0033 -0.4037
 4195SOL    HW130577   7.249   1.436  10.917  0.8322 -0.9618 -0.4424
 4195SOL    HW230578   7.203   1.484  11.053 -1.4026 -0.1442 -1.4357
 4196SOL     OW30579  11.512   3.299  11.177 -0.0032  0.2107 -0.2527
 4196SOL    HW130580  11.425   3.320  11.144 -0.2659 -1.5689 -0.8274
 4196SOL    HW230581  11.496   3.258  11.262  0.4554  1.8066  0.6400
 4197SOL     OW30582   2.970   7.560   6.514  0.2974 -0.4436  0.6325
 4197SOL    HW130583   2.904   7.572   6.583 -1.3025  1.1557 -1.0811
 4197SOL    HW230584   2.996   7.649   6.490  3.6457 -0.9849  1.6421
 4198SOL     OW30585   6.216   1.214  13.289  0.2888  0.2987 -0.2137
 4198SOL    HW130586   6.137   1.214  13.235 -1.2807  1.2367  1.9442
 4198SOL    HW230587   6.222   1.303  13.323  0.2609 -0.6104  2.3968
 4199SOL     OW30588   3.402  11.094   9.438  0.4575  0.6416 -0.3283
 4199SOL    HW130589   3.410  11.064   9.528 -0.3042  0.1889 -0.4011
 4199SOL    HW230590   3.375  11.016   9.389 -1.4607  1.3853 -0.5380
 4200SOL     OW30591   6.530   2.801  13.860 -0.2184 -0.3256 -0.0332
 4200SOL    HW130592   6.511   2.729  13.799  1.4931 -0.5614 -0.3536
 4200SOL    HW230593   6.474   2.873  13.830  0.0714 -0.6513 -1.4709
 4201SOL     OW30594   2.565  11.818   8.448  0.0548 -0.2087  0.1720
 4201SOL    HW130595   2.605  11.868   8.519  0.4929 -2.7267  1.8341
 4201SOL    HW230596   2.494  11.770   8.490 -1.2864  0.0953 -1.6501
 4202SOL     OW30597   4.462  11.315   6.641 -0.3300 -0.0444 -0.0837
 4202SOL    HW130598   4.478  11.384   6.705  0.8281 -0.1381 -0.2463
 4202SOL    HW230599   4.386  11.268   6.675  0.5294 -0.3788  1.4857
 4203SOL     OW30600  10.241   4.125   3.578 -0.0734  0.0827 -0.2028
 4203SOL    HW130601  10.230   4.052   3.639  2.8411  0.1810  0.6188
 4203SOL    HW230602  10.265   4.083   3.495 -0.0228  0.0639 -0.1786
 4204SOL     OW30603   6.860   1.647   1.050 -0.1988 -0.2660 -0.1716
 4204SOL    HW130604   6.849   1.566   1.100 -0.4291  0.5147  1.0920
 4204SOL    HW230605   6.792   1.644   0.983 -0.5117 -0.8928  0.1733
 4205SOL     OW30606  14.049   4.410  12.089  0.1391  0.3747 -0.2639
 4205SOL    HW130607  14.003   4.338  12.133  0.1705  0.0889 -0.6843
 4205SOL    HW230608  14.025   4.400  11.996  1.9575 -0.4937 -0.6845
 4206SOL     OW30609  13.421  12.445   0.092  0.9004 -0.1179 -0.6178
 4206SOL    HW130610  13.446  12.366   0.138  0.3051 -0.5620 -1.0370
 4206SOL    HW230611  13.325  12.443   0.090  0.9075 -0.1332 -1.8794
 4207SOL     OW30612   6.388   2.593   4.148  0.3176  0.1753  0.1523
 4207SOL    HW130613   6.329   2.541   4.202  0.1130 -0.8623 -1.0191
 4207SOL    HW230614   6.351   2.681   4.149 -0.3555 -0.1080  0.7080
 4208SOL     OW30615   0.672   4.797  13.993  0.2372  1.1409 -0.4805
 4208SOL    HW130616   0.589   4.842  14.010  0.2465  1.4584 -1.2587
 4208SOL    HW230617   0.668   4.773  13.901 -0.4325 -1.8382  0.2146
 4209SOL     OW30618   2.446   0.522   5.556  0.4166 -0.1855 -0.5160
 4209SOL    HW130619   2.395   0.444   5.535 -0.6686  0.6407 -0.9908
 4209SOL    HW230620   2.402   0.594   5.512  0.2646  1.0238  1.4599
 4210SOL     OW30621   0.194   9.309  14.126  0.2586  0.1761  0.3487
 4210SOL    HW130622   0.206   9.318  14.031  0.2424 -1.1726  0.2014
 4210SOL    HW230623   0.266   9.359  14.164 -1.4832  3.3869 -0.2757
 4211SOL     OW30624  11.529  11.559   2.650 -0.1475 -0.6533  0.2464
 4211SOL    HW130625  11.503  11.634   2.597  1.9938 -0.9954 -1.4373
 4211SOL    HW230626  11.551  11.491   2.586 -2.7745 -3.0793  1.6996
 4212SOL     OW30627   9.610   0.896   0.972  0.3317  0.3316 -0.2351
 4212SOL    HW130628   9.533   0.901   0.915 -1.4494 -2.9394  1.6286
 4212SOL    HW230629   9.667   0.833   0.930 -0.0740 -0.5827  0.5586
 4213SOL     OW30630   3.765   4.736  12.152 -0.0459  0.3476 -0.3186
 4213SOL    HW130631   3.801   4.737  12.063  0.4935  0.9832 -0.1009
 4213SOL    HW230632   3.690   4.795  12.148 -1.0242 -0.8803 -0.7403
 4214SOL     OW30633   0.855   6.717   0.961 -0.5637  0.6482  0.7040
 4214SOL    HW130634   0.944   6.719   0.925 -0.5331  0.0745  0.7410
 4214SOL    HW230635   0.866   6.746   1.051 -0.5352  1.3706  0.4769
 4215SOL     OW30636   0.075   9.966   5.900  0.1202 -1.0337 -0.4246
 4215SOL    HW130637   0.038   9.971   5.811 -0.8012 -0.7998 -0.0376
 4215SOL    HW230638   0.150   9.908   5.891 -0.0015 -1.0669 -1.3526
 4216SOL     OW30639  13.182   2.229  13.343 -0.2036 -0.4929  0.7986
 4216SOL    HW130640  13.183   2.319  13.310 -0.2906  0.4325  3.1909
 4216SOL    HW230641  13.267   2.218  13.386 -0.0920 -1.6648  0.3211
 4217SOL     OW30642   9.140   0.368   5.585 -0.1256 -0.1907  0.1189
 4217SOL    HW130643   9.161   0.295   5.643 -1.5533  0.9562  2.2090
 4217SOL    HW230644   9.204   0.435   5.607  0.7910 -0.5348 -1.3563
 4218SOL     OW30645   9.236   5.349  12.542 -0.3395 -0.3100 -0.4161
 4218SOL    HW130646   9.263   5.367  12.632  0.8866  0.6742 -0.9554
 4218SOL    HW230647   9.154   5.300  12.551 -0.6263  0.4126  1.2094
 4219SOL     OW30648  11.571   5.250  11.966 -0.2124  0.5816  0.0034
 4219SOL    HW130649  11.634   5.288  12.027  0.0633 -1.6454  1.2304
 4219SOL    HW230650  11.623   5.225  11.890 -0.0893  1.0540 -0.0685
 4220SOL     OW30651  11.714  11.719   2.850 -0.6071  0.6945 -0.1637
 4220SOL    HW130652  11.677  11.634   2.827 -0.4615  0.2582  1.1090
 4220SOL    HW230653  11.765  11.745   2.774 -1.2511 -0.0056 -0.8518
 4221SOL     OW30654   5.487   1.686   6.953 -0.2349 -0.3101  0.0147
 4221SOL    HW130655   5.558   1.695   7.016  0.5275 -1.6205 -0.6015
 4221SOL    HW230656   5.427   1.623   6.993  0.9573 -2.2430 -1.1029
 4222SOL     OW30657  10.900   3.522   8.109 -0.4057  0.2750  0.5897
 4222SOL    HW130658  10.859   3.599   8.147 -0.6343 -0.6371  2.2729
 4222SOL    HW230659  10.849   3.448   8.142  1.0067 -0.7269  0.6518
 4223SOL     OW30660  11.879   7.835   6.638 -0.3847 -0.2367 -0.6055
 4223SOL    HW130661  11.887   7.930   6.636 -0.7010 -0.2220 -1.2002
 4223SOL    HW230662  11.803   7.819   6.694  1.0052 -0.2326  1.3962
 4224SOL     OW30663   6.418   7.614   5.988 -0.0932  0.2130  0.5213
 4224SOL    HW130664   6.339   7.653   6.025 -0.3912 -1.0600  1.2951
 4224SOL    HW230665   6.397   7.604   5.894 -1.3190 -1.1023  0.8900
 4225SOL     OW30666   6.673  12.611   1.387 -0.5423  0.0672  0.4861
 4225SOL    HW130667   6.593  12.583   1.343  0.3477 -0.6182 -0.7523
 4225SOL    HW230668   6.734  12.631   1.316  1.1448 -1.6084  1.3834
 4226SOL     OW30669   3.081   9.454   1.627  0.5824 -0.5388 -0.6491
 4226SOL    HW130670   3.141   9.464   1.553  0.9401 -2.0181 -0.6097
 4226SOL    HW230671   3.107   9.371   1.667 -0.2915 -0.2828  0.5047
 4227SOL     OW30672  12.312  11.913   5.044  0.4468  0.4258  0.0508
 4227SOL    HW130673  12.392  11.966   5.049 -0.4226  1.7646  0.2289
 4227SOL    HW230674  12.331  11.837   5.098  1.5264  0.8351  0.2877
 4228SOL     OW30675  11.648   3.925   0.334 -0.6436  0.4181  0.0802
 4228SOL    HW130676  11.666   4.018   0.320 -0.3438  0.3947  0.2999
 4228SOL    HW230677  11.638   3.889   0.246  0.9171  0.3286 -0.0878
 4229SOL     OW30678  11.380   5.508   3.507 -0.9199  0.1930 -0.0411
 4229SOL    HW130679  11.371   5.592   3.551 -0.5876  0.0709  0.2670
 4229SOL    HW230680  11.440   5.524   3.434 -0.2978  0.0759  0.4326
 4230SOL     OW30681   0.735  13.476  13.523 -0.5389 -0.2833 -0.3222
 4230SOL    HW130682   0.748  13.459  13.616  0.2952  0.4023 -0.3087
 4230SOL    HW230683   0.770  13.399  13.479 -0.3552 -0.3241 -0.0999
 4231SOL     OW30684  11.141   2.704   9.710  0.0501 -0.0474  0.4934
 4231SOL    HW130685  11.071   2.707   9.775  1.7801  1.9678  2.4427
 4231SOL    HW230686  11.163   2.611   9.702  0.5114 -0.3228  3.7151
 4232SOL     OW30687  12.964  12.901   3.337 -0.5003  0.5259  0.5556
 4232SOL    HW130688  12.977  12.827   3.278  0.3535 -1.3018  2.8880
 4232SOL    HW230689  13.043  12.953   3.328 -0.5343  0.4567 -0.1693
 4233SOL     OW30690   2.941   3.961   5.642 -0.4751  0.2106  0.4356
 4233SOL    HW130691   2.895   4.044   5.657  0.8653  1.1219 -0.3189
 4233SOL    HW230692   2.882   3.895   5.678 -2.3928  1.3099 -0.4805
 4234SOL     OW30693  12.063   6.476  10.911 -0.4721 -0.5719 -0.9743
 4234SOL    HW130694  11.970   6.490  10.929 -0.2016 -1.5365  1.5321
 4234SOL    HW230695  12.087   6.549  10.854 -2.2952  0.8953  0.0108
 4235SOL     OW30696   1.251   9.525  13.908 -0.0175 -0.0470  0.2133
 4235SOL    HW130697   1.189   9.553  13.840  1.4958  0.6220 -0.9417
 4235SOL    HW230698   1.233   9.432  13.920 -1.7751  0.2845  0.5079
 4236SOL     OW30699   8.187   8.053  10.682 -0.1666 -0.0252  0.0551
 4236SOL    HW130700   8.199   8.061  10.777 -0.0850 -2.5909  0.3126
 4236SOL    HW230701   8.096   8.024  10.672  0.4420 -1.8549 -0.4832
 4237SOL     OW30702   1.291  10.617   8.250 -0.0228  0.2743 -0.1919
 4237SOL    HW130703   1.285  10.536   8.302 -1.7323 -0.3903 -1.3196
 4237SOL    HW230704   1.209  10.619   8.200  0.7146  1.8783 -1.4173
 4238SOL     OW30705   4.438   6.520   9.506  0.0435 -0.3702  0.2922
 4238SOL    HW130706   4.530   6.532   9.486  0.1411 -0.9842  0.3345
 4238SOL    HW230707   4.392   6.554   9.429  0.3538 -1.1619 -0.2586
 4239SOL     OW30708  12.776  12.921   7.966 -0.2200  0.2161  0.1931
 4239SOL    HW130709  12.829  12.923   8.045 -1.0145  0.5887  0.7382
 4239SOL    HW230710  12.739  12.833   7.963  0.1559  0.0663  0.0041
 4240SOL     OW30711   5.237   7.223  10.929 -0.0642  0.0086 -0.3427
 4240SOL    HW130712   5.324   7.255  10.952 -0.6213  0.3141  1.5204
 4240SOL    HW230713   5.240   7.210  10.835  1.4442  1.7129 -0.5808
 4241SOL     OW30714  10.577   5.843   4.173  0.6528 -0.2461 -0.6831
 4241SOL    HW130715  10.546   5.817   4.260 -1.7900 -0.8577 -1.6597
 4241SOL    HW230716  10.498   5.850   4.121  1.9195  1.6288 -2.5017
 4242SOL     OW30717   1.051   7.391   8.418 -0.3499 -0.4260 -0.2119
 4242SOL    HW130718   1.103   7.471   8.407  1.2549 -1.5660 -1.3013
 4242SOL    HW230719   0.964   7.414   8.384 -0.0740  1.0012  0.0002
 4243SOL     OW30720  13.727   4.188   8.638 -0.5167 -0.5350  0.4033
 4243SOL    HW130721  13.791   4.147   8.580  0.3878  0.7126  0.4915
 4243SOL    HW230722  13.763   4.176   8.726 -0.3240  0.3040  0.4412
 4244SOL     OW30723   2.120   2.525   5.729  0.4657 -0.2215 -0.2853
 4244SOL    HW130724   2.122   2.510   5.823  0.7800 -1.1482 -0.4288
 4244SOL    HW230725   2.027   2.527   5.707  0.3852  0.3788  0.0957
 4245SOL     OW30726  10.986  11.834  11.422 -0.0857  0.1720 -0.8443
 4245SOL    HW130727  10.906  11.782  11.413 -0.4619  0.6277 -0.2190
 4245SOL    HW230728  10.987  11.890  11.345  0.0043 -0.3192 -1.2098
 4246SOL     OW30729   1.595  10.612  10.140  0.3893 -0.0141  0.3749
 4246SOL    HW130730   1.663  10.679  10.128 -0.6515  0.9133 -0.5745
 4246SOL    HW230731   1.560  10.597  10.053 -0.2539 -0.8813  0.7702
 4247SOL     OW30732   1.484  11.939  12.040 -0.1678  0.2313  0.0222
 4247SOL    HW130733   1.399  11.904  12.067  0.8376 -2.1794  0.3157
 4247SOL    HW230734   1.534  11.947  12.121  0.0094  1.3676 -0.1833
 4248SOL     OW30735   3.467  11.417   9.037 -0.0035  0.0679 -0.0691
 4248SOL    HW130736   3.391  11.475   9.037 -0.4576 -0.5080 -0.3055
 4248SOL    HW230737   3.491  11.408   9.129 -2.5063 -2.6121  0.4691
 4249SOL     OW30738  12.536  14.009  13.460  0.0197  0.2946 -0.2080
 4249SOL    HW130739  12.468  14.041  13.519 -1.1792 -0.0670 -1.3541
 4249SOL    HW230740  12.537  14.073  13.388 -0.4184 -0.6624 -1.1020
 4250SOL     OW30741   3.477  11.115   4.509  0.2057  0.1809  0.1518
 4250SOL    HW130742   3.389  11.123   4.545 -0.0844 -1.5981 -0.0771
 4250SOL    HW230743   3.465  11.126   4.414 -0.0741 -1.7555 -0.0747
 4251SOL     OW30744  12.854  11.175   1.653  0.2122  0.1473 -0.7560
 4251SOL    HW130745  12.797  11.248   1.630  1.4845  0.7617 -2.2086
 4251SOL    HW230746  12.836  11.108   1.587  0.6968  0.0915 -0.8403
 4252SOL     OW30747  12.902   4.364   5.503 -0.1084 -0.0180 -0.4532
 4252SOL    HW130748  12.848   4.443   5.494 -1.0139 -0.5610  0.0133
 4252SOL    HW230749  12.992   4.395   5.490 -0.5117  0.9318 -1.1346
 4253SOL     OW30750   1.559  12.811   8.326  0.5605 -0.1143  0.1785
 4253SOL    HW130751   1.533  12.903   8.322 -0.3645 -0.3773 -0.0449
 4253SOL    HW230752   1.576  12.787   8.235  2.0512  0.1619  0.3507
 4254SOL     OW30753  11.477  14.095   5.389  0.4160  0.4659 -0.4616
 4254SOL    HW130754  11.410  14.084   5.456  0.2902  2.9593 -0.0672
 4254SOL    HW230755  11.532  14.166   5.422  1.6833  0.2356 -1.9724
 4255SOL     OW30756  10.961   1.357   5.914 -0.1522  0.2957  0.1822
 4255SOL    HW130757  10.949   1.410   5.835 -0.2710  0.8432  0.5620
 4255SOL    HW230758  10.894   1.389   5.975 -0.6574 -0.7439  0.1893
 4256SOL     OW30759  12.326  10.730   0.540 -0.1116  0.0802 -0.0078
 4256SOL    HW130760  12.365  10.755   0.624 -0.1557  0.6989 -0.1665
 4256SOL    HW230761  12.233  10.744   0.552 -0.0221  1.2274 -0.5011
 4257SOL     OW30762  13.025  11.962  12.676  0.1115 -0.2039 -0.1168
 4257SOL    HW130763  12.934  11.952  12.650  0.0983  0.5815 -0.3912
 4257SOL    HW230764  13.042  12.056  12.671  0.9677 -0.3490 -0.1767
 4258SOL     OW30765   8.818  13.204  10.527 -0.0463 -0.2615  0.6526
 4258SOL    HW130766   8.868  13.125  10.507  0.6351  0.1548  0.6658
 4258SOL    HW230767   8.853  13.270  10.466 -0.7799 -0.0313  0.4666
 4259SOL     OW30768   0.428   0.646   0.716  0.2164  0.0487 -0.0851
 4259SOL    HW130769   0.351   0.594   0.738  0.4038  0.0950  0.7240
 4259SOL    HW230770   0.498   0.611   0.772  0.2775  1.3407  0.7107
 4260SOL     OW30771  13.701   5.670   5.401 -0.2415 -0.6496  0.0776
 4260SOL    HW130772  13.655   5.741   5.445 -0.2508 -0.6953  0.1396
 4260SOL    HW230773  13.783   5.710   5.370 -0.8948 -0.2186 -1.1775
 4261SOL     OW30774   3.823   8.668   8.997 -0.1025  0.3293 -0.6420
 4261SOL    HW130775   3.878   8.727   8.944  1.2311 -0.9835 -0.7715
 4261SOL    HW230776   3.884   8.627   9.058 -1.3257  0.4282  0.7003
 4262SOL     OW30777   3.316   4.820   3.253 -0.4326  0.5288  0.4508
 4262SOL    HW130778   3.373   4.788   3.183  0.7443  0.3207  1.4797
 4262SOL    HW230779   3.228   4.818   3.215  0.3506  2.1826 -1.6651
 4263SOL     OW30780  11.625   1.231   0.826  0.2491  0.4018 -0.6890
 4263SOL    HW130781  11.641   1.324   0.812 -0.4865  0.6784  0.2068
 4263SOL    HW230782  11.545   1.228   0.879  0.7592 -0.6961  0.0635
 4264SOL     OW30783   4.661   4.237  10.613  0.1348 -0.7806 -0.0539
 4264SOL    HW130784   4.620   4.153  10.590 -1.8150  0.6658 -2.3504
 4264SOL    HW230785   4.751   4.229  10.581  1.5352 -3.4875  3.7663
 4265SOL     OW30786  12.655   1.708   6.352  0.3610 -0.1412  0.1366
 4265SOL    HW130787  12.652   1.720   6.257  0.6466 -1.1527 -0.0161
 4265SOL    HW230788  12.576   1.751   6.384  0.6165  0.8138 -0.4789
 4266SOL     OW30789   9.367   7.360  11.273  0.1673  0.5442  0.4573
 4266SOL    HW130790   9.352   7.295  11.342 -2.5853 -0.6857 -1.1479
 4266SOL    HW230791   9.458   7.345  11.246 -0.4272 -3.0467 -0.1125
 4267SOL     OW30792   3.258   4.500   9.478  0.1327 -0.2110 -1.0318
 4267SOL    HW130793   3.292   4.417   9.513  0.1582 -0.6949 -2.1724
 4267SOL    HW230794   3.190   4.474   9.415 -2.3780  0.7021  1.0915
 4268SOL     OW30795   5.577   7.649  11.372  0.3528 -0.1037 -0.1531
 4268SOL    HW130796   5.519   7.658  11.447  2.2058 -2.1267  1.6269
 4268SOL    HW230797   5.602   7.739  11.350 -0.1742  0.5244  1.6899
 4269SOL     OW30798   8.331   1.968  10.073  0.7087 -0.0844  0.0104
 4269SOL    HW130799   8.329   1.885  10.026 -2.0929 -0.0220 -0.1441
 4269SOL    HW230800   8.422   1.996  10.068  1.1971 -1.7686 -2.3963
 4270SOL     OW30801   8.202   1.494   2.484 -0.4902  0.2603 -0.0971
 4270SOL    HW130802   8.138   1.467   2.550  1.3017 -1.9488  0.8521
 4270SOL    HW230803   8.284   1.503   2.532  0.3389  1.1467 -1.6146
 4271SOL     OW30804   9.231  10.823   5.098 -0.3285 -0.8527 -0.1649
 4271SOL    HW130805   9.292  10.749   5.103 -0.0610 -0.6115  0.2502
 4271SOL    HW230806   9.231  10.848   5.006 -0.4643 -1.4078 -0.3176
 4272SOL     OW30807  11.294  11.990   3.497 -0.1100  0.1956  0.0239
 4272SOL    HW130808  11.341  12.005   3.415  0.4211  1.7655  0.5852
 4272SOL    HW230809  11.329  12.056   3.557  0.9125 -2.0803  2.1253
 4273SOL     OW30810   1.462   4.517  11.538 -0.2138 -0.5547  0.3461
 4273SOL    HW130811   1.370   4.509  11.564  0.2525 -0.6240  2.1142
 4273SOL    HW230812   1.511   4.487  11.614  1.3007  1.2875  0.1747
 4274SOL     OW30813  11.622   9.981   3.378  0.7976  0.2384  0.0832
 4274SOL    HW130814  11.573   9.908   3.342  0.3888  0.9573 -0.8543
 4274SOL    HW230815  11.713   9.961   3.357  0.7960 -0.4719  0.7042
 4275SOL     OW30816  11.550   1.890   5.167  0.3812  0.6693  0.1884
 4275SOL    HW130817  11.639   1.872   5.137  0.8975  1.3842  1.2399
 4275SOL    HW230818  11.549   1.984   5.188 -0.7866  0.8014 -0.3547
 4276SOL     OW30819  10.714  10.316  13.554  0.3852 -0.0774 -0.6115
 4276SOL    HW130820  10.625  10.292  13.578  0.4907 -1.8305 -1.7325
 4276SOL    HW230821  10.737  10.254  13.484  2.3218  0.6149 -0.6512
 4277SOL     OW30822   1.769   6.610   4.849  0.4108  0.0365 -0.1907
 4277SOL    HW130823   1.760   6.682   4.786  1.4630  0.8303  0.5276
 4277SOL    HW230824   1.702   6.547   4.823 -0.5631  1.2818 -0.8286
 4278SOL     OW30825   2.326   7.867   8.967  0.1098  0.1104  0.3225
 4278SOL    HW130826   2.283   7.849   9.050  0.8485 -1.1641  0.4473
 4278SOL    HW230827   2.418   7.881   8.989  0.0100  1.5091 -0.0932
 4279SOL     OW30828  12.358   1.990  13.176  0.1596 -0.0086 -0.3057
 4279SOL    HW130829  12.284   2.014  13.231  0.6399  0.7164  0.0419
 4279SOL    HW230830  12.384   1.903  13.206  0.1254  0.1882  0.2950
 4280SOL     OW30831  12.896   9.620  11.466 -0.4475 -0.0014  0.1806
 4280SOL    HW130832  12.902   9.716  11.475 -0.6603  0.0458 -0.1646
 4280SOL    HW230833  12.984   9.593  11.445 -0.6778  0.2903 -1.2311
 4281SOL     OW30834   5.749   7.682   0.253  0.2654 -0.2358 -0.4160
 4281SOL    HW130835   5.844   7.669   0.263 -0.1754 -1.6612  3.3770
 4281SOL    HW230836   5.718   7.601   0.212  0.6047  0.2398 -1.6811
 4282SOL     OW30837   8.136   1.657  11.069 -0.1665 -0.6258 -0.2214
 4282SOL    HW130838   8.098   1.727  11.122  0.8515 -0.7569  0.7139
 4282SOL    HW230839   8.202   1.616  11.126  1.3386 -0.4421 -1.7283
 4283SOL     OW30840   3.151  10.031   5.255 -0.1538 -0.4713 -0.1117
 4283SOL    HW130841   3.165  10.124   5.269 -2.4788 -0.2870  1.6287
 4283SOL    HW230842   3.124  10.024   5.163  0.4607  0.4934 -0.3730
 4284SOL     OW30843  10.496   0.804   4.582  0.0429  0.1243 -0.4168
 4284SOL    HW130844  10.457   0.801   4.495  0.9899  0.9197 -0.9016
 4284SOL    HW230845  10.584   0.769   4.569 -0.3243 -1.2176  0.5521
 4285SOL     OW30846   1.337  10.408  12.398  0.1030  0.1782  0.2578
 4285SOL    HW130847   1.286  10.452  12.466  0.5209 -0.5305  1.0514
 4285SOL    HW230848   1.298  10.321  12.391  0.2771  0.1302 -0.1756
 4286SOL     OW30849   5.433  13.109   0.787  0.2218 -0.0313  0.4631
 4286SOL    HW130850   5.439  13.123   0.882  1.1932 -0.5980  0.5061
 4286SOL    HW230851   5.488  13.177   0.749  1.1518 -0.7759  0.4183
 4287SOL     OW30852   3.238   3.588  13.564  0.2218 -0.0460  0.0365
 4287SOL    HW130853   3.293   3.527  13.515 -1.6941 -1.1172 -0.9084
 4287SOL    HW230854   3.287   3.605  13.645  2.0400 -0.6868 -0.8764
 4288SOL     OW30855  12.743   8.373  12.723  0.2264 -0.0201 -0.4575
 4288SOL    HW130856  12.784   8.287  12.738 -2.5045 -1.1535  1.3174
 4288SOL    HW230857  12.789   8.432  12.783  1.7661 -0.2817 -1.3039
 4289SOL     OW30858   5.351  10.379   8.943 -0.0302 -0.6605  0.1486
 4289SOL    HW130859   5.309  10.306   8.899 -2.1887 -0.4056  1.6512
 4289SOL    HW230860   5.325  10.456   8.892 -2.8093 -0.3247  1.8589
 4290SOL     OW30861  12.323  13.264   8.079 -0.0018 -0.0212  0.8470
 4290SOL    HW130862  12.339  13.188   8.136  0.5186 -1.8788 -1.6025
 4290SOL    HW230863  12.233  13.290   8.100 -0.2947 -1.4947  1.5718
 4291SOL     OW30864  13.985   4.664  12.379 -0.0500  0.9112  0.1752
 4291SOL    HW130865  14.063   4.709  12.411 -0.3206  0.8620  0.9383
 4291SOL    HW230866  14.004   4.571  12.392 -0.6402  0.9341  1.3875
 4292SOL     OW30867  13.846   1.569  13.290 -0.1129 -0.0009  0.2412
 4292SOL    HW130868  13.762   1.606  13.262  0.7031  1.2656 -0.6319
 4292SOL    HW230869  13.842   1.570  13.386 -1.4655 -0.8760  0.2142
 4293SOL     OW30870   2.116   9.201  11.041 -0.2407  0.2885  0.3563
 4293SOL    HW130871   2.158   9.267  10.986  2.2881 -0.6151  1.0757
 4293SOL    HW230872   2.023   9.213  11.025  0.2856  1.1394 -2.8698
 4294SOL     OW30873   6.800   6.431   7.085  0.0396  0.3147  0.0421
 4294SOL    HW130874   6.774   6.522   7.074  0.3081  0.5024  0.9566
 4294SOL    HW230875   6.723   6.381   7.055  0.0529  0.8147 -0.8717
 4295SOL     OW30876   8.321   0.264   6.647 -0.6408 -0.1675 -0.4496
 4295SOL    HW130877   8.313   0.227   6.735 -0.9436 -3.3217 -1.6747
 4295SOL    HW230878   8.410   0.299   6.643 -1.2625  1.9768  1.6690
 4296SOL     OW30879  10.324   9.586   6.519  0.0828  0.7072 -0.3192
 4296SOL    HW130880  10.373   9.584   6.437 -0.7276 -0.9589 -0.7984
 4296SOL    HW230881  10.235   9.610   6.493 -0.4058 -0.7499 -0.0849
 4297SOL     OW30882   0.924  11.442  12.956 -0.0072 -0.0982  0.1862
 4297SOL    HW130883   0.994  11.381  12.932  0.3905  1.0202 -1.6940
 4297SOL    HW230884   0.969  11.525  12.969 -0.8546  0.3691  0.1701
 4298SOL     OW30885   4.269  13.103  12.226 -0.8766 -0.5306  0.2290
 4298SOL    HW130886   4.215  13.128  12.151 -0.1810  0.5876  0.0723
 4298SOL    HW230887   4.275  13.008  12.221  0.0253 -0.4249 -1.7753
 4299SOL     OW30888   5.844   8.371   4.458  0.3402  0.8429  0.1984
 4299SOL    HW130889   5.923   8.366   4.404  1.1493 -1.7797  1.4496
 4299SOL    HW230890   5.864   8.318   4.535 -1.9953  1.6552  1.4672
 4300SOL     OW30891   7.968   5.064   1.783 -0.0436  0.1119  0.2986
 4300SOL    HW130892   7.956   4.976   1.748  1.1275  0.0480  0.0181
 4300SOL    HW230893   8.002   5.114   1.709 -1.5775  1.0452  0.1962
 4301SOL     OW30894   5.786   9.268  11.982 -0.0501 -0.5170 -0.3376
 4301SOL    HW130895   5.824   9.223  11.907  1.2953  1.3453 -0.8405
 4301SOL    HW230896   5.705   9.305  11.950  0.2713 -0.1543 -0.7357
 4302SOL     OW30897  13.454   7.998   7.887  0.5357 -0.6616 -0.4140
 4302SOL    HW130898  13.450   8.079   7.837 -0.3019  0.1193  0.8590
 4302SOL    HW230899  13.384   7.944   7.851  1.6728 -1.2195 -1.8763
 4303SOL     OW30900   3.894  13.625   6.359  0.1431 -0.0098 -0.0536
 4303SOL    HW130901   3.950  13.622   6.282 -0.5524 -1.3040 -0.5273
 4303SOL    HW230902   3.945  13.580   6.427 -0.4002 -1.4131 -0.5526
 4304SOL     OW30903   5.040   8.932   3.407  0.1234  0.4580 -0.2015
 4304SOL    HW130904   4.970   8.954   3.346 -0.5879  2.4117  1.2320
 4304SOL    HW230905   5.020   8.982   3.486  3.8753  2.3052 -0.1976
 4305SOL     OW30906  12.720   0.507  13.852  0.2422 -0.2459 -0.2618
 4305SOL    HW130907  12.808   0.540  13.866  0.2954 -0.6386  0.4091
 4305SOL    HW230908  12.730   0.436  13.788  0.3576 -0.0356 -0.4758
 4306SOL     OW30909   5.012   1.363   8.989 -0.7161 -0.5622  0.4911
 4306SOL    HW130910   4.968   1.399   8.912  2.4586 -0.2672 -1.3581
 4306SOL    HW230911   5.051   1.281   8.959  0.8295 -0.3132  1.6599
 4307SOL     OW30912   9.080  11.871   7.208  0.7772 -0.4396  0.1363
 4307SOL    HW130913   9.013  11.940   7.208 -0.5312 -1.6763  0.7513
 4307SOL    HW230914   9.057  11.815   7.134  0.2865 -1.6371  1.1600
 4308SOL     OW30915   3.641   9.771   9.356 -0.2304 -0.1438 -0.0745
 4308SOL    HW130916   3.721   9.718   9.357  1.0290  1.6344 -0.6995
 4308SOL    HW230917   3.664   9.849   9.406 -2.5656 -0.8019  2.2768
 4309SOL     OW30918   0.956  12.220  12.365 -0.7107 -0.0987  0.8424
 4309SOL    HW130919   0.957  12.313  12.385  1.2105  0.7454 -2.4010
 4309SOL    HW230920   0.863  12.198  12.355 -1.1381  1.8266  0.2767
 4310SOL     OW30921  12.208  11.099   2.564 -0.1135 -0.4944 -0.5399
 4310SOL    HW130922  12.278  11.043   2.597  0.4819  0.7106  0.3084
 4310SOL    HW230923  12.129  11.045   2.571  0.3208 -0.9895  0.9574
 4311SOL     OW30924   1.523  11.077   5.172  0.2195  0.0111 -0.2374
 4311SOL    HW130925   1.598  11.023   5.147  0.6668  0.8153 -0.6589
 4311SOL    HW230926   1.473  11.088   5.091  0.4810  0.7669 -0.3040
 4312SOL     OW30927  11.227   4.575   5.930  0.0071  0.1867 -0.3334
 4312SOL    HW130928  11.239   4.504   5.866 -0.9965  0.2110 -0.5682
 4312SOL    HW230929  11.201   4.650   5.877 -0.3419  0.3422  0.0539
 4313SOL     OW30930   1.866  13.537   3.328  0.4682 -0.1648  0.0143
 4313SOL    HW130931   1.928  13.535   3.255  1.7839 -0.0710  1.0814
 4313SOL    HW230932   1.902  13.474   3.391  1.4202  2.3310  2.1270
 4314SOL     OW30933   6.283   5.415   8.927  0.4384 -0.6116  0.1676
 4314SOL    HW130934   6.340   5.435   8.853  1.0170  0.9452  0.9737
 4314SOL    HW230935   6.328   5.346   8.975  0.7360 -0.6716 -0.1987
 4315SOL     OW30936  12.758  13.880   6.252  0.9247 -0.3567 -0.1977
 4315SOL    HW130937  12.811  13.848   6.179  0.7228 -1.0497 -0.0489
 4315SOL    HW230938  12.682  13.921   6.210  0.4096 -1.4556 -0.3817
 4316SOL     OW30939   8.801   4.944  11.392 -0.0813  0.4332  0.1192
 4316SOL    HW130940   8.879   4.996  11.372 -0.6949  0.7531 -1.6385
 4316SOL    HW230941   8.742   5.005  11.435 -0.3622  0.9296 -0.9320
 4317SOL     OW30942  12.027   4.468  11.751  0.3011  0.0201 -0.2327
 4317SOL    HW130943  11.987   4.547  11.715  0.1676  0.1965  0.3069
 4317SOL    HW230944  12.054   4.492  11.839 -0.2076 -0.6904  0.1264
 4318SOL     OW30945  11.430   8.464   5.159 -0.1638  0.0048  0.0379
 4318SOL    HW130946  11.367   8.453   5.231 -1.2766  1.5106 -0.6739
 4318SOL    HW230947  11.443   8.375   5.126 -2.5842 -0.2806 -0.3297
 4319SOL     OW30948  11.193   0.175  11.246 -0.2180 -0.0860 -0.1930
 4319SOL    HW130949  11.178   0.268  11.235  0.3323  0.1495  0.8869
 4319SOL    HW230950  11.253   0.169  11.321 -3.0466 -1.4520  2.1558
 4320SOL     OW30951   0.287  11.206   6.801  0.5421  0.6683  0.3167
 4320SOL    HW130952   0.365  11.252   6.830  0.3402  0.4112  1.3024
 4320SOL    HW230953   0.294  11.204   6.705  2.4000 -0.4660  0.4217
 4321SOL     OW30954  13.026   8.962   7.865 -0.7627 -0.1821 -0.1483
 4321SOL    HW130955  13.015   8.924   7.953 -0.3610 -0.4414 -0.2075
 4321SOL    HW230956  13.086   8.902   7.821  0.4375  0.8875 -0.0195
 4322SOL     OW30957  10.613   4.357  10.317  0.0492  0.5656 -0.3144
 4322SOL    HW130958  10.635   4.422  10.250  0.5449  0.5006 -0.2167
 4322SOL    HW230959  10.687   4.360  10.378  0.1051 -0.1270 -0.3378
 4323SOL     OW30960  11.641   8.541   7.281  0.5818 -0.0644  0.2181
 4323SOL    HW130961  11.573   8.558   7.216  0.8953 -0.9086 -0.3438
 4323SOL    HW230962  11.606   8.578   7.362 -0.6716 -0.7103  0.0036
 4324SOL     OW30963   2.388   6.955  13.954  0.2414 -0.3660 -0.2906
 4324SOL    HW130964   2.334   6.977  14.030 -1.7459 -1.3915 -1.2952
 4324SOL    HW230965   2.438   6.878  13.981  1.1291  0.4994  0.6107
 4325SOL     OW30966   6.279  10.785   9.571  0.4072 -0.2305  0.2732
 4325SOL    HW130967   6.278  10.879   9.550  2.1038  0.4115  2.5868
 4325SOL    HW230968   6.341  10.747   9.509  0.3530  0.3318 -0.1384
 4326SOL     OW30969   4.382   2.423  10.801  0.1326  0.7640  0.0830
 4326SOL    HW130970   4.386   2.377  10.885 -1.0848 -0.2950 -0.4132
 4326SOL    HW230971   4.290   2.446  10.790  0.4987  2.0810 -0.3489
 4327SOL     OW30972   2.517   1.220   3.273 -0.0518 -0.1868  0.3899
 4327SOL    HW130973   2.609   1.237   3.294  0.0133  0.7359 -0.5475
 4327SOL    HW230974   2.520   1.183   3.185 -0.5778 -0.1161  0.3408
 4328SOL     OW30975   5.903   5.065  11.155  0.1207 -0.2901  0.2687
 4328SOL    HW130976   5.988   5.110  11.150  0.0594  0.3076  3.1889
 4328SOL    HW230977   5.843   5.133  11.185 -1.1673 -1.0431 -0.5353
 4329SOL     OW30978  11.125  10.350   2.621  0.3424 -0.4680  0.1149
 4329SOL    HW130979  11.098  10.321   2.709  0.5168 -1.2094 -0.0661
 4329SOL    HW230980  11.044  10.376   2.578  0.2826  0.1427  0.5743
 4330SOL     OW30981  13.797  12.423  10.248 -0.1905  0.3703  0.0433
 4330SOL    HW130982  13.784  12.338  10.288 -0.2223  0.4341  0.1690
 4330SOL    HW230983  13.888  12.445  10.266 -0.5856  1.0527  1.3574
 4331SOL     OW30984   3.753   6.132   2.083 -0.4506 -0.3226  0.1665
 4331SOL    HW130985   3.700   6.113   2.161 -0.3877  0.1363  0.3262
 4331SOL    HW230986   3.838   6.160   2.118  0.1382 -1.6946 -0.0971
 4332SOL     OW30987   8.267   9.517   8.223 -0.0182  0.0734  0.4030
 4332SOL    HW130988   8.339   9.475   8.269  0.7746  1.8958  0.9241
 4332SOL    HW230989   8.214   9.557   8.292  1.3624  3.1215 -0.1578
 4333SOL     OW30990  13.204  12.396  10.105  0.0118  0.2706  0.1584
 4333SOL    HW130991  13.126  12.359  10.063 -0.1296  0.8276 -0.0831
 4333SOL    HW230992  13.212  12.347  10.187 -0.8140  0.4498  0.3654
 4334SOL     OW30993   2.863   3.779   1.742  0.1830  0.5349 -0.7149
 4334SOL    HW130994   2.867   3.756   1.650  1.0915 -0.6343 -0.4034
 4334SOL    HW230995   2.918   3.714   1.786 -0.0215  1.2235  0.6204
 4335SOL     OW30996  12.387   9.937   0.950 -0.3210  0.0428 -0.3644
 4335SOL    HW130997  12.442   9.990   0.893 -1.4836  1.1321 -0.5169
 4335SOL    HW230998  12.447   9.874   0.990  0.7381  0.1453 -1.7461
 4336SOL     OW30999   9.951  10.355   2.535  0.1280 -0.0435 -0.3432
 4336SOL    HW131000   9.907  10.372   2.619  0.5266  0.8039 -0.2939
 4336SOL    HW231001   9.887  10.306   2.484 -0.8837  1.1315 -0.2626
 4337SOL     OW31002   7.619  11.267   0.109 -0.2775  0.3703 -0.2678
 4337SOL    HW131003   7.561  11.343   0.105 -0.8199  0.0221  0.7210
 4337SOL    HW231004   7.695  11.298   0.157 -1.3153 -0.1934  1.8347
 4338SOL     OW31005   0.989  10.421   0.009  0.4828  0.3570 -0.2929
 4338SOL    HW131006   0.899  10.454  -0.002  0.6306  0.2892 -1.9118
 4338SOL    HW231007   1.044  10.499  -0.002  0.7342 -0.0364 -2.2588
 4339SOL     OW31008   8.041  11.293  14.010 -0.6155  0.1271  0.2310
 4339SOL    HW131009   7.959  11.340  14.020 -1.0498 -0.7025  0.6478
 4339SOL    HW231010   8.066  11.307  13.918 -1.1624  0.4703  0.1344
 4340SOL     OW31011  12.991   3.215  11.548  0.1025  0.1055 -0.1297
 4340SOL    HW131012  13.002   3.238  11.640 -1.4877  0.7106 -0.0676
 4340SOL    HW231013  12.951   3.292  11.508  0.4245 -0.2933 -1.2552
 4341SOL     OW31014   0.957   2.254   3.235  0.7807 -0.2663  0.0766
 4341SOL    HW131015   0.921   2.166   3.246  0.9833 -0.2561  0.8735
 4341SOL    HW231016   1.038   2.252   3.286  0.2906  0.6835  0.9146
 4342SOL     OW31017  10.701  13.657   1.958 -0.2221  0.3405 -0.2802
 4342SOL    HW131018  10.775  13.630   2.013 -0.2869  1.4361  0.3861
 4342SOL    HW231019  10.654  13.576   1.939  0.0219 -0.1201  0.9834
 4343SOL     OW31020   8.180   8.997  12.085 -0.9329 -0.4632 -0.5849
 4343SOL    HW131021   8.136   8.973  12.166 -1.7404 -0.9925 -1.1653
 4343SOL    HW231022   8.123   9.064  12.046  0.5765  1.4820  0.3422
 4344SOL     OW31023  10.524   5.716  12.481  1.2314  0.4163 -0.3522
 4344SOL    HW131024  10.586   5.746  12.547  0.2708  0.3101  0.6262
 4344SOL    HW231025  10.438   5.735  12.518  0.5948  3.3981 -2.9349
 4345SOL     OW31026   4.856   5.899   0.913 -0.0885 -0.2358  0.0997
 4345SOL    HW131027   4.914   5.933   0.982 -2.0788  0.1596  1.6488
 4345SOL    HW231028   4.879   5.806   0.906  2.4763  0.3977 -1.1919
 4346SOL     OW31029  12.162   0.531   7.507  0.2080  0.6198  0.3158
 4346SOL    HW131030  12.117   0.453   7.476  1.9842 -0.8156  1.1714
 4346SOL    HW231031  12.194   0.574   7.427  1.0050 -0.6727 -0.0833
 4347SOL     OW31032   5.788   3.499  10.186  0.2689 -0.2778  0.6079
 4347SOL    HW131033   5.803   3.410  10.219  0.9495  0.2693  1.8534
 4347SOL    HW231034   5.872   3.525  10.149  0.1844 -0.0153  0.6015
 4348SOL     OW31035  11.254  11.929   1.227 -0.3594  1.1691 -0.4425
 4348SOL    HW131036  11.249  12.023   1.208  0.4163  1.7926  2.0516
 4348SOL    HW231037  11.335  11.919   1.278 -0.2633 -0.9178 -0.9040
 4349SOL     OW31038  14.007  10.760  11.025 -0.3612 -1.1601  0.1298
 4349SOL    HW131039  14.043  10.848  11.033  0.7077 -1.4225 -1.3383
 4349SOL    HW231040  13.912  10.772  11.030 -0.2213  0.0354  0.2018
 4350SOL     OW31041   9.153  12.597   8.805  0.2272  0.1707  0.8638
 4350SOL    HW131042   9.202  12.541   8.865  0.1153  0.9546  1.7209
 4350SOL    HW231043   9.061  12.580   8.827  0.0310 -1.7293 -1.1337
 4351SOL     OW31044   8.466  12.347   2.819  0.1249 -0.0425 -0.7538
 4351SOL    HW131045   8.506  12.274   2.867 -1.8132 -0.3777  0.4664
 4351SOL    HW231046   8.481  12.423   2.875 -2.6749 -0.5387  0.8353
 4352SOL     OW31047  12.343  12.094  12.273 -0.0019  0.2719  0.5371
 4352SOL    HW131048  12.409  12.024  12.270  0.9472  1.1578  0.4972
 4352SOL    HW231049  12.348  12.127  12.363 -1.9092 -1.0528  1.2069
 4353SOL     OW31050  12.147   5.553   6.475  0.2957 -0.1718  0.0387
 4353SOL    HW131051  12.091   5.522   6.545 -0.4258  2.5030  0.7653
 4353SOL    HW231052  12.107   5.519   6.395 -2.9117  2.1332  0.4606
 4354SOL     OW31053   9.055   3.369  13.992 -0.3841  0.0821  0.1222
 4354SOL    HW131054   9.058   3.437  14.060  1.1803  0.4345 -0.2604
 4354SOL    HW231055   8.983   3.395  13.935  0.1657  1.4135  0.0038
 4355SOL     OW31056   6.067   6.380   9.329 -0.1799  0.2098  0.0594
 4355SOL    HW131057   6.033   6.462   9.294  0.3906  1.6053  2.5130
 4355SOL    HW231058   6.153   6.371   9.288 -0.8396 -0.0052 -1.3553
 4356SOL     OW31059   2.463  13.330   2.042  0.3364  0.3028 -0.3807
 4356SOL    HW131060   2.541  13.275   2.032  0.2509  0.1069  0.0159
 4356SOL    HW231061   2.497  13.419   2.047  0.6368  0.1407  0.9231
 4357SOL     OW31062   8.866   5.402   2.591 -0.6224 -1.3285  0.3146
 4357SOL    HW131063   8.797   5.365   2.536 -0.5929 -1.0536  0.0918
 4357SOL    HW231064   8.842   5.376   2.680 -1.5106 -0.4789  0.3456
 4358SOL     OW31065   2.137   2.023   3.954 -0.0625  0.4497 -0.6471
 4358SOL    HW131066   2.229   2.043   3.939  0.2311 -0.7895 -0.5840
 4358SOL    HW231067   2.120   2.053   4.043  1.0112 -1.6715  0.3376
 4359SOL     OW31068   8.892   9.828  13.208 -0.3900  0.2202 -0.3949
 4359SOL    HW131069   8.973   9.802  13.252  0.6560  2.7896 -0.6077
 4359SOL    HW231070   8.850   9.889  13.269 -0.5624  1.2859 -1.5291
 4360SOL     OW31071  11.075   6.408   6.432 -0.3794  0.6543  0.2753
 4360SOL    HW131072  11.098   6.384   6.522 -2.4473 -2.4348  0.1556
 4360SOL    HW231073  10.979   6.402   6.430 -0.3282 -2.0419 -2.6633
 4361SOL     OW31074   6.552   6.568   2.484  0.2916 -0.2641  0.0454
 4361SOL    HW131075   6.576   6.497   2.542  1.9862 -0.6644 -1.0820
 4361SOL    HW231076   6.572   6.648   2.532  2.0669 -0.5915 -0.1065
 4362SOL     OW31077  10.272  11.354   6.416 -0.7008  0.3757  0.2373
 4362SOL    HW131078  10.364  11.331   6.413 -1.2191 -2.1706  0.8846
 4362SOL    HW231079  10.266  11.423   6.483  0.5667 -0.4471  1.2368
 4363SOL     OW31080  12.909  11.658   6.212  0.4421 -0.5080  0.0093
 4363SOL    HW131081  12.875  11.743   6.184 -1.2508 -1.4522 -1.0002
 4363SOL    HW231082  12.866  11.642   6.296  1.1550 -0.1616  0.4486
 4364SOL     OW31083   4.038   5.924   3.554 -0.2079  0.0432  0.4558
 4364SOL    HW131084   4.115   5.883   3.592 -2.0388 -3.7372  0.5314
 4364SOL    HW231085   4.055   5.925   3.460  0.3839  0.3021  0.5635
 4365SOL     OW31086   6.588   0.422   8.134 -0.1924 -0.6115  0.3414
 4365SOL    HW131087   6.613   0.399   8.044  0.0068  0.4979  0.0979
 4365SOL    HW231088   6.493   0.416   8.135 -0.1410 -1.6398  0.3558
 4366SOL     OW31089   5.781   1.096  12.779 -0.3798 -0.1205 -0.0835
 4366SOL    HW131090   5.836   1.173  12.762 -0.1025  0.1194  1.7271
 4366SOL    HW231091   5.795   1.040  12.703  2.9322 -0.3878  0.5547
 4367SOL     OW31092   5.408  10.762   6.595 -0.7752 -0.2687 -0.3186
 4367SOL    HW131093   5.314  10.780   6.604 -0.8530 -0.3880 -0.8705
 4367SOL    HW231094   5.450  10.824   6.655 -1.0489  1.6034 -1.9405
 4368SOL     OW31095   7.508  12.035   8.727 -0.9992  0.3116 -0.4216
 4368SOL    HW131096   7.563  11.971   8.773 -0.0996  0.4346 -1.3169
 4368SOL    HW231097   7.478  11.989   8.649 -3.7351 -0.4113  0.9222
 4369SOL     OW31098  10.002   2.227   4.321 -0.1001  0.0957 -0.1278
 4369SOL    HW131099   9.915   2.237   4.360 -0.0083 -1.1336  0.4415
 4369SOL    HW231100   9.991   2.257   4.231 -0.9649  0.5065  0.0961
 4370SOL     OW31101   0.989   1.364  12.909  0.2614  1.0862  0.3266
 4370SOL    HW131102   1.015   1.340  12.998  0.1270 -1.1779 -0.1760
 4370SOL    HW231103   0.894   1.378  12.915  0.4961  2.6421  0.8349
 4371SOL     OW31104   4.617  12.325   8.686 -0.0698  0.5153 -0.5497
 4371SOL    HW131105   4.683  12.285   8.631  1.0980 -0.3712  1.3929
 4371SOL    HW231106   4.587  12.254   8.744 -0.6274  1.5635  0.5056
 4372SOL     OW31107  11.179   7.535   8.078  0.3271 -0.2629 -0.1072
 4372SOL    HW131108  11.094   7.574   8.101  0.6422  0.2437  0.2117
 4372SOL    HW231109  11.167   7.441   8.093  0.7389  0.0703  3.0067
 4373SOL     OW31110   3.927  11.944   9.653  0.4898  0.2877  0.5305
 4373SOL    HW131111   3.834  11.921   9.649  0.6087 -0.1601  0.2900
 4373SOL    HW231112   3.965  11.884   9.716  1.1025 -1.2898 -1.2523
 4374SOL     OW31113   0.494  10.745   1.540 -0.4814  0.5055  0.0321
 4374SOL    HW131114   0.409  10.790   1.539  0.0054  1.5267 -1.7631
 4374SOL    HW231115   0.498  10.700   1.455  1.3220  1.6758 -0.5675
 4375SOL     OW31116   0.199   4.564  10.431 -0.0338  0.0864 -0.1379
 4375SOL    HW131117   0.277   4.616  10.415 -0.4096  0.6557 -0.1562
 4375SOL    HW231118   0.230   4.485  10.476  0.7609 -0.4838 -1.6361
 4376SOL     OW31119   0.979   3.369  10.066 -0.4884 -0.4484  0.6469
 4376SOL    HW131120   0.990   3.274  10.070 -1.3500 -0.5509  0.6299
 4376SOL    HW231121   0.974   3.397  10.157  0.7468 -0.2892  0.6845
 4377SOL     OW31122   5.905  10.531  10.773  0.6192  0.0930 -0.3761
 4377SOL    HW131123   5.921  10.625  10.764  1.9972 -0.0562  0.2543
 4377SOL    HW231124   5.990  10.491  10.754  0.5852 -0.8950  1.3259
 4378SOL     OW31125   1.287   6.592   8.464 -0.5744 -0.8314  0.2328
 4378SOL    HW131126   1.308   6.502   8.486  1.5753 -1.0325 -2.1507
 4378SOL    HW231127   1.231   6.586   8.386 -0.8181 -0.0975  0.3347
 4379SOL     OW31128   7.740  13.837   4.982  0.8024 -0.0246  0.2072
 4379SOL    HW131129   7.729  13.742   4.981  2.0752 -0.1936 -0.1215
 4379SOL    HW231130   7.797  13.853   5.058  0.2667  0.5188  0.4974
 4380SOL     OW31131   2.443   4.360   7.619 -0.4800  0.2801 -0.4272
 4380SOL    HW131132   2.485   4.274   7.621 -0.3072  0.3220 -1.6851
 4380SOL    HW231133   2.361   4.347   7.667 -0.2662 -0.4844 -0.2494
 4381SOL     OW31134   4.868   4.470   6.379  0.1262 -0.2380 -0.0503
 4381SOL    HW131135   4.929   4.419   6.432  0.3606  0.7253  0.6358
 4381SOL    HW231136   4.814   4.404   6.335  1.1305 -1.0956 -0.0596
 4382SOL     OW31137   3.177  10.838   5.383 -0.0978  0.0116 -0.1030
 4382SOL    HW131138   3.159  10.761   5.329 -0.5093 -0.1688  0.2836
 4382SOL    HW231139   3.169  10.912   5.323  0.3691 -0.2462 -0.4948
 4383SOL     OW31140  11.650   7.352   4.659  0.0352 -0.1770 -0.3593
 4383SOL    HW131141  11.628   7.274   4.608  0.3196 -1.5428  1.4904
 4383SOL    HW231142  11.611   7.336   4.745  1.9452  0.7049  0.7360
 4384SOL     OW31143   4.773   7.216   1.508  0.0812  0.2165 -0.0855
 4384SOL    HW131144   4.859   7.205   1.550  0.1049  1.1082  0.1193
 4384SOL    HW231145   4.790   7.204   1.415  0.4231  0.3244 -0.0402
 4385SOL     OW31146  10.108  14.147   4.389  0.2429 -0.3736 -0.3669
 4385SOL    HW131147  10.024  14.148   4.435  0.3499 -1.5829 -0.1215
 4385SOL    HW231148  10.091  14.197   4.308 -0.5382 -0.0997 -0.0523
 4386SOL     OW31149   6.427   5.148   1.936 -0.2531 -0.1145 -0.1887
 4386SOL    HW131150   6.354   5.098   1.972 -0.0379  0.6458  1.3967
 4386SOL    HW231151   6.502   5.124   1.990  0.3691  0.1583 -0.9134
 4387SOL     OW31152   1.058   9.865   2.927  0.1929 -0.3259  0.0677
 4387SOL    HW131153   1.021   9.902   3.007 -1.1768  0.7059 -0.9930
 4387SOL    HW231154   1.130   9.925   2.904 -1.1472  0.9979 -0.8965
 4388SOL     OW31155   3.157   8.680  13.138  0.3707 -0.4111  0.1021
 4388SOL    HW131156   3.211   8.728  13.076  0.5245 -1.6815 -0.7790
 4388SOL    HW231157   3.102   8.623  13.083  0.6635 -1.7274  1.1097
 4389SOL     OW31158   6.443  11.251   5.192  0.2430  0.4446  0.1269
 4389SOL    HW131159   6.487  11.167   5.207  2.7601  1.7844  0.9302
 4389SOL    HW231160   6.514  11.310   5.164 -1.3264  2.4478  0.1530
 4390SOL     OW31161  10.801   1.704   2.744  0.4898 -0.6039  0.4693
 4390SOL    HW131162  10.727   1.764   2.740  0.2419 -0.9133  0.4178
 4390SOL    HW231163  10.776   1.638   2.808  0.3142 -1.2565 -0.2665
 4391SOL     OW31164   7.657   5.906   4.232  0.0519  0.0270 -0.0812
 4391SOL    HW131165   7.626   5.894   4.322 -0.2657 -1.8757 -0.3946
 4391SOL    HW231166   7.698   5.993   4.232 -0.5845  0.3770  1.6991
 4392SOL     OW31167   2.013  12.610   4.451 -0.6836  0.1684 -0.0797
 4392SOL    HW131168   1.952  12.536   4.445 -2.1386  1.1710  1.4733
 4392SOL    HW231169   2.000  12.645   4.539  2.0159  0.5832  0.2528
 4393SOL     OW31170  10.858   5.539   3.345 -0.1700 -0.0063  0.0401
 4393SOL    HW131171  10.916   5.482   3.395 -1.5492 -2.3324 -0.8692
 4393SOL    HW231172  10.776   5.539   3.393 -0.5173  0.3852 -0.5348
 4394SOL     OW31173  13.584  13.672   6.241 -0.2931  1.0129 -0.2755
 4394SOL    HW131174  13.570  13.755   6.285 -0.4354  0.8740 -0.0561
 4394SOL    HW231175  13.551  13.606   6.302  1.2287  0.6752  0.2197
 4395SOL     OW31176   0.372   8.772   1.223  0.1666  0.5704  0.1374
 4395SOL    HW131177   0.282   8.777   1.192 -0.3841 -0.9512  1.3401
 4395SOL    HW231178   0.408   8.860   1.209 -1.6371  1.3359  0.0526
 4396SOL     OW31179   8.297  12.976  12.052 -0.1386 -0.2305  0.0927
 4396SOL    HW131180   8.298  13.072  12.052 -0.3782 -0.1972 -1.2765
 4396SOL    HW231181   8.316  12.953  11.961 -1.0900 -1.4617  0.1876
 4397SOL     OW31182  12.743   8.234   0.901 -0.3060  0.3711 -0.4224
 4397SOL    HW131183  12.797   8.313   0.903  1.5379 -0.8319  0.4965
 4397SOL    HW231184  12.686   8.243   0.978  0.8974  0.1650  0.5119
 4398SOL     OW31185  10.425   8.058   3.891  0.1779 -0.1183  0.2223
 4398SOL    HW131186  10.451   7.979   3.843 -0.2803 -0.1391  0.0098
 4398SOL    HW231187  10.335   8.041   3.919 -0.6898  1.1602 -1.6095
 4399SOL     OW31188   9.584  13.207  12.793 -0.4289  0.0616  0.0858
 4399SOL    HW131189   9.579  13.130  12.850 -1.1216  0.1831  0.2026
 4399SOL    HW231190   9.493  13.224  12.769 -0.1401 -0.0271 -1.1289
 4400SOL     OW31191  10.700   8.808  12.311 -0.2191 -0.8728 -0.2642
 4400SOL    HW131192  10.787   8.847  12.299 -0.7719  0.3034 -0.5981
 4400SOL    HW231193  10.717   8.717  12.332  1.1089 -0.5855 -0.0303
 4401SOL     OW31194  13.892   7.225   0.405 -0.3957 -0.1791 -0.0567
 4401SOL    HW131195  13.822   7.225   0.470  0.4452  0.0194  0.8784
 4401SOL    HW231196  13.855   7.271   0.330 -1.1740  0.1704  0.5222
 4402SOL     OW31197   7.749  10.034   2.838 -0.4527 -0.3019 -0.4899
 4402SOL    HW131198   7.732  10.124   2.809 -0.0813 -0.3100 -0.7353
 4402SOL    HW231199   7.663   9.992   2.837 -0.6084  0.0109 -0.5076
 4403SOL     OW31200   7.966   4.247   9.610  0.0636 -0.8961  0.9646
 4403SOL    HW131201   7.882   4.205   9.629 -0.0406  0.0025  2.6859
 4403SOL    HW231202   7.951   4.340   9.625  1.1793 -0.6260  0.5435
 4404SOL     OW31203  10.346  13.585   1.799  0.6947  0.1553 -0.1737
 4404SOL    HW131204  10.423  13.532   1.819  0.9946  0.6472  0.0076
 4404SOL    HW231205  10.342  13.649   1.871 -0.3382 -0.3654  0.2437
 4405SOL     OW31206   8.049   4.858   8.833 -0.0163 -0.4114  0.0677
 4405SOL    HW131207   8.141   4.843   8.856  0.2774  1.3804  0.2729
 4405SOL    HW231208   8.005   4.776   8.853  1.9099 -2.1356 -2.2410
 4406SOL     OW31209   6.851   7.809   4.087  0.0390 -0.1385  0.4080
 4406SOL    HW131210   6.920   7.873   4.070 -0.0154  0.1904  1.3753
 4406SOL    HW231211   6.797   7.849   4.155 -0.0966 -1.1379  0.9044
 4407SOL     OW31212   2.354   6.277   6.634  0.2957 -0.1331  0.3802
 4407SOL    HW131213   2.448   6.293   6.632  0.2084  0.3420 -0.0522
 4407SOL    HW231214   2.316   6.359   6.668 -0.0757  0.2501 -0.9021
 4408SOL     OW31215   2.466   6.928   3.228  0.5157 -0.2361  0.2116
 4408SOL    HW131216   2.552   6.949   3.263  0.6908 -0.4710 -0.0692
 4408SOL    HW231217   2.453   6.835   3.248  0.9056 -0.5486 -0.9127
 4409SOL     OW31218   7.689  11.462   4.665  0.4157 -0.8798 -0.3841
 4409SOL    HW131219   7.762  11.435   4.609  0.1670 -0.7067 -0.7914
 4409SOL    HW231220   7.670  11.384   4.718  0.2383 -1.2497 -0.9790
 4410SOL     OW31221   9.697   3.592   7.055 -0.7483  0.4553  0.7219
 4410SOL    HW131222   9.701   3.683   7.024 -1.3176 -0.2290 -1.5650
 4410SOL    HW231223   9.608   3.581   7.088 -1.5263  0.0893 -1.3571
 4411SOL     OW31224   0.867   3.920  13.939  0.4249 -0.6978  0.3738
 4411SOL    HW131225   0.812   3.896  13.864 -0.5883  0.3972  0.7365
 4411SOL    HW231226   0.838   3.861  14.009 -0.0925 -0.3262  0.4784
 4412SOL     OW31227   3.364   6.161  11.086 -0.1278  0.4420  0.3654
 4412SOL    HW131228   3.294   6.201  11.035 -0.3230  0.7176  0.8433
 4412SOL    HW231229   3.401   6.094  11.028 -1.9766 -0.9742  0.7301
 4413SOL     OW31230   0.286   8.475   7.104 -0.4263 -0.1671 -0.2669
 4413SOL    HW131231   0.359   8.512   7.055 -0.4559 -2.5035 -2.2378
 4413SOL    HW231232   0.208   8.511   7.062 -0.4971  1.3550  1.0532
 4414SOL     OW31233   2.113   2.696   3.912  0.2474 -0.4913  0.8250
 4414SOL    HW131234   2.019   2.702   3.894  0.2566  0.1667  0.9988
 4414SOL    HW231235   2.155   2.724   3.830  0.2874  0.9655  1.3246
 4415SOL     OW31236   6.819   6.011  11.415  0.2393  0.3017 -0.8632
 4415SOL    HW131237   6.826   6.060  11.496  1.1840 -0.5962 -0.3821
 4415SOL    HW231238   6.897   6.037  11.364  1.8752 -2.0976  0.2259
 4416SOL     OW31239  11.303   5.288   3.655  0.6132 -0.4879  0.1166
 4416SOL    HW131240  11.359   5.353   3.611  0.6112 -1.0168 -0.6773
 4416SOL    HW231241  11.215   5.307   3.623  0.5779 -0.7211  0.0745
 4417SOL     OW31242   8.043   8.515   3.126 -0.4145  0.1775  0.7400
 4417SOL    HW131243   8.028   8.428   3.088 -0.2424 -0.3317  1.8087
 4417SOL    HW231244   8.137   8.529   3.116 -0.6606  0.9128 -0.8021
 4418SOL     OW31245   9.466   0.314  11.162  0.4689  0.1024 -0.0785
 4418SOL    HW131246   9.493   0.268  11.083 -0.4909 -1.8157  0.6237
 4418SOL    HW231247   9.383   0.356  11.139  1.0135  0.9472 -0.5356
 4419SOL     OW31248   1.281   2.485   7.191 -0.1084 -0.1568 -0.0839
 4419SOL    HW131249   1.251   2.415   7.249 -0.6745  0.2582  0.1436
 4419SOL    HW231250   1.373   2.497   7.212 -0.2322 -0.2229  0.5164
 4420SOL     OW31251   8.654   4.058   3.764  0.6527  0.0682  0.2456
 4420SOL    HW131252   8.693   3.975   3.791  2.4325  0.9343  0.5176
 4420SOL    HW231253   8.692   4.123   3.825  0.2966  1.2445 -0.7407
 4421SOL     OW31254   8.199   4.368   6.379  0.2959 -0.0451  0.4337
 4421SOL    HW131255   8.183   4.451   6.335 -0.7093 -0.9659 -1.0526
 4421SOL    HW231256   8.290   4.372   6.406  0.6491  1.0160 -0.8179
 4422SOL     OW31257   0.539   7.386   5.228  0.0797 -0.0628 -0.5287
 4422SOL    HW131258   0.560   7.474   5.198  1.5286  0.1152  0.8979
 4422SOL    HW231259   0.590   7.328   5.171 -1.1234 -0.0477 -1.6819
 4423SOL     OW31260   9.576   7.642   8.791 -0.0181 -0.4764 -0.7069
 4423SOL    HW131261   9.618   7.587   8.858  0.2232  0.0538 -0.4171
 4423SOL    HW231262   9.511   7.585   8.750  3.0793 -2.4245 -3.4251
 4424SOL     OW31263   1.740   8.827   2.821  0.1557 -0.8270 -0.1799
 4424SOL    HW131264   1.802   8.761   2.790  0.4996 -0.5417 -0.1068
 4424SOL    HW231265   1.701   8.863   2.742  1.6727  0.5246 -0.3578
 4425SOL     OW31266   8.935  10.207  13.432 -0.1060 -0.1508  0.1272
 4425SOL    HW131267   8.984  10.224  13.351  1.0062  0.0695  0.8372
 4425SOL    HW231268   8.954  10.282  13.488 -1.0163 -0.2176  0.5423
 4426SOL     OW31269   1.938   7.414  12.527  0.4559  0.9628 -0.1826
 4426SOL    HW131270   1.851   7.386  12.557  0.7544 -0.9099 -0.9409
 4426SOL    HW231271   1.986   7.430  12.608  0.6365 -2.0932  0.4564
 4427SOL     OW31272  10.970   1.061  11.907 -0.3014  0.4645 -0.1923
 4427SOL    HW131273  11.064   1.069  11.890 -0.2748 -0.3376 -0.4447
 4427SOL    HW231274  10.931   1.136  11.862  0.2649  1.1176  0.3802
 4428SOL     OW31275   5.613  11.688   7.354 -0.3747  0.9157 -0.3169
 4428SOL    HW131276   5.689  11.695   7.297 -0.1411  2.0249  0.1179
 4428SOL    HW231277   5.542  11.731   7.305 -0.6968  0.0280 -0.6523
 4429SOL     OW31278   3.710   7.338  12.323 -0.4082  0.1413  0.3302
 4429SOL    HW131279   3.708   7.242  12.314 -2.0118  0.2318 -0.6762
 4429SOL    HW231280   3.680   7.370  12.238  1.6168  1.6095  0.1063
 4430SOL     OW31281  13.001   3.749   6.101 -0.0215 -0.1637  0.5203
 4430SOL    HW131282  13.035   3.796   6.025 -0.5935 -1.0303 -0.2991
 4430SOL    HW231283  12.909   3.734   6.081 -0.2327 -0.2152  1.4919
 4431SOL     OW31284  10.889   1.189   6.556  0.0389  0.1705 -0.0782
 4431SOL    HW131285  10.934   1.168   6.474  0.7378  0.7244  0.1620
 4431SOL    HW231286  10.916   1.120   6.617 -0.5160 -0.2669 -0.3123
 4432SOL     OW31287   0.193   0.562   7.765 -0.0842 -0.0786 -0.3889
 4432SOL    HW131288   0.243   0.537   7.842 -2.5750  0.2662  1.4851
 4432SOL    HW231289   0.129   0.492   7.754 -1.0944  0.8790 -0.8630
 4433SOL     OW31290  10.396   6.884   1.717 -0.5120  0.2636 -0.5419
 4433SOL    HW131291  10.436   6.837   1.790 -0.0633 -0.3984 -1.1937
 4433SOL    HW231292  10.303   6.890   1.740 -0.4343 -0.2485 -0.0825
 4434SOL     OW31293  12.764   9.383   9.892  0.1915  0.4640  0.0575
 4434SOL    HW131294  12.693   9.376   9.955  1.5946 -0.2940  1.6199
 4434SOL    HW231295  12.765   9.476   9.867 -1.6051  0.4026 -0.3622
 4435SOL     OW31296   2.774  10.768   1.606 -0.2222 -0.0876  0.2515
 4435SOL    HW131297   2.790  10.766   1.700  0.3731 -0.2373  0.1487
 4435SOL    HW231298   2.799  10.681   1.576  0.2834  0.1926 -0.1568
 4436SOL     OW31299  11.694  11.108   5.870  0.6413  0.3235 -0.3322
 4436SOL    HW131300  11.739  11.190   5.850  0.6877  0.1050 -1.1711
 4436SOL    HW231301  11.637  11.093   5.794 -0.4415  0.3207  0.4627
 4437SOL     OW31302  14.155  10.107  11.253 -0.0205 -0.2452 -0.1334
 4437SOL    HW131303  14.080  10.124  11.196 -0.3994  1.1846  0.7380
 4437SOL    HW231304  14.231  10.134  11.201 -0.3691  1.1399  0.0349
 4438SOL     OW31305  10.508  10.361   4.424 -0.4090 -0.4148 -0.5253
 4438SOL    HW131306  10.556  10.423   4.479  0.7445 -2.3418  0.7784
 4438SOL    HW231307  10.422  10.354   4.465 -0.8749  0.9038 -1.1983
 4439SOL     OW31308   4.778   2.384   0.769 -0.2554  0.1323 -0.1589
 4439SOL    HW131309   4.700   2.436   0.750 -0.8151 -0.3992  0.6299
 4439SOL    HW231310   4.751   2.293   0.757  0.2448 -0.0627  0.1312
 4440SOL     OW31311   8.376   9.668   8.629  0.0087 -0.0492 -0.5718
 4440SOL    HW131312   8.457   9.695   8.586 -0.2416  2.1937  0.2152
 4440SOL    HW231313   8.361   9.734   8.697 -2.2126 -0.6702 -0.3557
 4441SOL     OW31314   4.200   3.805  11.002 -0.1508 -0.6235  0.3767
 4441SOL    HW131315   4.207   3.870  10.932 -0.1821 -0.5595  0.4329
 4441SOL    HW231316   4.290   3.790  11.030  0.0142 -1.7530 -0.6843
 4442SOL     OW31317  12.609   6.924   1.178  0.0948 -0.2043 -0.1311
 4442SOL    HW131318  12.691   6.918   1.129  0.2204  0.7071 -0.0532
 4442SOL    HW231319  12.616   7.006   1.226 -1.7258  0.9928 -1.7473
 4443SOL     OW31320   7.786   5.304   9.190  0.0373  0.2749 -0.3885
 4443SOL    HW131321   7.849   5.236   9.214 -1.2304 -1.2194 -1.0970
 4443SOL    HW231322   7.807   5.326   9.100 -0.3991 -0.1872 -0.6086
 4444SOL     OW31323  11.756   6.917  11.810  0.3504  0.1187 -0.2730
 4444SOL    HW131324  11.727   6.903  11.720  1.4212  1.2760 -0.8392
 4444SOL    HW231325  11.850   6.901  11.808  0.2125 -1.0620  0.9416
 4445SOL     OW31326   0.865  12.903   9.454 -0.4471  0.1319  0.2583
 4445SOL    HW131327   0.852  12.996   9.436 -0.5802  0.4807  1.9809
 4445SOL    HW231328   0.946  12.900   9.504 -0.5305 -0.6701  0.3504
 4446SOL     OW31329  13.638  13.201   7.900 -0.1160 -0.0270 -0.0184
 4446SOL    HW131330  13.674  13.281   7.861  0.9466 -0.2006  0.5925
 4446SOL    HW231331  13.706  13.135   7.888 -0.7094 -0.6797  0.0998
 4447SOL     OW31332   5.802   0.719   7.257  0.1516 -0.3119  0.3798
 4447SOL    HW131333   5.791   0.699   7.350 -0.2823  0.3578  0.4816
 4447SOL    HW231334   5.888   0.760   7.251  0.4948 -1.0275  0.3667
 4448SOL     OW31335  13.859   7.557  12.465 -0.8027  0.1859  0.2668
 4448SOL    HW131336  13.894   7.577  12.378 -0.7447  0.0443  0.2571
 4448SOL    HW231337  13.789   7.493  12.448  0.5934 -1.5020  0.4869
 4449SOL     OW31338   3.925  10.510   6.503 -0.1783  0.1855  0.5696
 4449SOL    HW131339   3.956  10.542   6.419  1.9882 -0.9566  0.8638
 4449SOL    HW231340   3.945  10.581   6.564 -0.5014  0.4678  0.3509
 4450SOL     OW31341   8.420   5.402   1.617  0.0516  0.0016 -0.5150
 4450SOL    HW131342   8.450   5.312   1.632 -1.1598 -0.3687 -0.2364
 4450SOL    HW231343   8.401   5.405   1.523  1.7956  0.5136 -0.8782
 4451SOL     OW31344   4.104   9.959   7.370  0.0069  0.3146  0.3079
 4451SOL    HW131345   4.169  10.015   7.329 -0.2120  1.0017  0.8817
 4451SOL    HW231346   4.069   9.906   7.298  0.1531  0.9765 -0.2583
 4452SOL     OW31347  12.114  12.714   6.337 -0.5467 -0.4650 -0.3390
 4452SOL    HW131348  12.073  12.721   6.251 -0.5325  0.5769 -0.2736
 4452SOL    HW231349  12.100  12.799   6.378  2.2482  0.2062 -0.5754
 4453SOL     OW31350  11.412   2.871   6.219 -0.0604  0.4713  0.2126
 4453SOL    HW131351  11.459   2.804   6.169 -0.4303  1.5748 -1.6962
 4453SOL    HW231352  11.477   2.938   6.237  0.4455 -0.5334  2.5907
 4454SOL     OW31353   3.496   1.489  13.263  0.1968  0.2579 -0.3645
 4454SOL    HW131354   3.486   1.584  13.274 -1.0607 -0.0542  1.7192
 4454SOL    HW231355   3.559   1.463  13.330  0.4254 -0.4176 -0.8258
 4455SOL     OW31356   7.212   0.428   0.513  0.0088  0.0790 -0.5312
 4455SOL    HW131357   7.129   0.428   0.560  0.5747  0.9479  0.5143
 4455SOL    HW231358   7.269   0.371   0.565  0.2840  0.0826 -0.8277
 4456SOL     OW31359   2.565  13.333   3.295  0.0705 -0.3868 -0.5363
 4456SOL    HW131360   2.658  13.333   3.272  0.6660 -0.8701  1.6665
 4456SOL    HW231361   2.545  13.243   3.318 -0.4398  0.0636  0.8644
 4457SOL     OW31362   9.762   1.097   0.041  0.1451  0.0253 -0.1476
 4457SOL    HW131363   9.719   1.145  -0.030  2.6800  0.0342 -1.7696
 4457SOL    HW231364   9.689   1.067   0.096 -1.7976  1.6555 -1.6719
 4458SOL     OW31365   0.080  12.599   0.765  0.3163  0.0298 -0.3655
 4458SOL    HW131366   0.072  12.640   0.679 -2.2242 -0.0177 -0.2393
 4458SOL    HW231367   0.102  12.671   0.824 -0.8636  0.6419 -0.6440
 4459SOL     OW31368  12.428   7.257   7.320 -0.1452  0.0704  0.1055
 4459SOL    HW131369  12.374   7.185   7.352 -1.5955  0.1390 -1.9619
 4459SOL    HW231370  12.439   7.239   7.227  3.2505  0.2235  0.3518
 4460SOL     OW31371   9.285   8.553  12.495  0.1493 -0.3522  0.0175
 4460SOL    HW131372   9.302   8.616  12.565 -1.8891  0.9701 -0.5750
 4460SOL    HW231373   9.317   8.597  12.416 -0.5201 -0.3904 -0.2843
 4461SOL     OW31374  11.793  12.011   8.751  0.2306 -0.0040  0.0279
 4461SOL    HW131375  11.727  12.073   8.782 -0.8666  0.3339 -2.6637
 4461SOL    HW231376  11.876  12.059   8.758 -0.4325  1.3449 -0.8217
 4462SOL     OW31377   0.034   7.957  11.977 -0.3195  0.2429 -0.2438
 4462SOL    HW131378   0.096   7.999  11.917 -0.3057  0.6300  0.0333
 4462SOL    HW231379   0.078   7.962  12.062 -0.4766 -0.0145 -0.1478
 4463SOL     OW31380   8.616   1.590  10.471  0.0268  0.4679 -0.0307
 4463SOL    HW131381   8.679   1.586  10.543 -1.0635  2.2304  1.0655
 4463SOL    HW231382   8.605   1.498  10.444  1.1963 -0.1208  1.3634
 4464SOL     OW31383   8.122   1.936   7.007  0.0630  0.4242  0.4329
 4464SOL    HW131384   8.073   1.962   7.085 -0.4185 -3.6372  1.7006
 4464SOL    HW231385   8.059   1.943   6.936 -1.0314 -0.3712  1.2876
 4465SOL     OW31386   2.081   2.586  10.018 -0.7866  0.2010  0.1429
 4465SOL    HW131387   2.009   2.573   9.955  0.4194 -1.4241 -0.9935
 4465SOL    HW231388   2.106   2.498  10.044  0.9018  0.7229  0.3921
 4466SOL     OW31389  12.604   6.647  11.351  0.0756  0.1299 -0.3610
 4466SOL    HW131390  12.509   6.651  11.364  0.1115 -0.5811  0.2047
 4466SOL    HW231391  12.624   6.722  11.295 -0.4185  2.0550  1.8949
 4467SOL     OW31392  13.775   6.599   2.027  0.4537  0.0180 -0.6737
 4467SOL    HW131393  13.807   6.689   2.030 -1.6060  0.8247 -0.7380
 4467SOL    HW231394  13.690   6.607   1.983 -0.0679 -1.8740 -0.0631
 4468SOL     OW31395   1.259   5.464   0.750  0.3557 -0.5314 -0.2571
 4468SOL    HW131396   1.342   5.416   0.757  1.0405  0.5563 -0.5865
 4468SOL    HW231397   1.222   5.462   0.838 -0.1565 -2.5182 -0.4635
 4469SOL     OW31398   0.060   1.242   3.409  1.0117  0.1982  0.7657
 4469SOL    HW131399   0.012   1.176   3.359  0.5147  1.4033 -0.3865
 4469SOL    HW231400   0.136   1.263   3.355 -0.2134  2.4663 -0.2126
 4470SOL     OW31401   5.748  12.185  12.861 -0.3770 -0.0249 -0.0296
 4470SOL    HW131402   5.661  12.174  12.899  0.0148 -1.0172  0.6431
 4470SOL    HW231403   5.807  12.143  12.925  0.5589  0.3534 -0.6197
 4471SOL     OW31404  12.293  11.645  10.897 -0.2964 -0.5991 -0.2862
 4471SOL    HW131405  12.366  11.694  10.861 -0.3890  0.3031  0.7021
 4471SOL    HW231406  12.294  11.561  10.850  1.8549 -0.9269  0.2643
 4472SOL     OW31407   7.247   8.855  10.017  0.2435  0.2456 -0.1426
 4472SOL    HW131408   7.324   8.877   9.964  1.0506  0.4593  1.0813
 4472SOL    HW231409   7.271   8.881  10.106 -0.6673 -1.0896  0.5232
 4473SOL     OW31410   0.178   5.005  10.430  0.2861 -0.3894 -0.0782
 4473SOL    HW131411   0.222   4.940  10.485  2.2873  1.1834  0.3025
 4473SOL    HW231412   0.186   5.087  10.478 -0.9375  0.4131 -1.1750
 4474SOL     OW31413   2.275   5.369   9.822 -0.0288 -0.1989 -0.6070
 4474SOL    HW131414   2.290   5.383   9.916 -0.0398 -2.8612 -0.1484
 4474SOL    HW231415   2.198   5.424   9.802 -2.4498 -2.3692  1.8820
 4475SOL     OW31416   1.524   0.361  10.863  0.1773 -0.0913  0.4610
 4475SOL    HW131417   1.618   0.376  10.869  0.6715 -2.6491  0.4724
 4475SOL    HW231418   1.502   0.379  10.772  1.5919 -3.2812 -0.6719
 4476SOL     OW31419   3.231   9.858   7.523  0.0338  0.3670 -0.1483
 4476SOL    HW131420   3.154   9.804   7.540 -1.3826  1.6003 -2.2420
 4476SOL    HW231421   3.259   9.888   7.610 -1.8359 -0.1331  0.6725
 4477SOL     OW31422  10.386   1.826  12.654 -0.2673 -0.2240  0.5685
 4477SOL    HW131423  10.291   1.812  12.657 -0.2268 -0.7928 -0.5687
 4477SOL    HW231424  10.421   1.764  12.718 -0.5672 -0.9777  0.0186
 4478SOL     OW31425   6.316  11.467   9.044 -0.0322  0.4296  0.4851
 4478SOL    HW131426   6.304  11.392   8.987  0.0052  1.8342 -1.5010
 4478SOL    HW231427   6.280  11.541   8.995  3.3228  2.3657  0.6197
 4479SOL     OW31428   3.445  11.855   6.425  0.4911 -0.3583  0.3222
 4479SOL    HW131429   3.378  11.813   6.479 -0.9661  0.4760 -0.7423
 4479SOL    HW231430   3.425  11.948   6.430  0.7043 -0.2110 -1.1118
 4480SOL     OW31431   0.706   6.953   7.005 -0.2159  0.5849  0.0722
 4480SOL    HW131432   0.802   6.951   7.002 -0.2298  0.9015 -0.7136
 4480SOL    HW231433   0.684   7.039   7.040 -0.2315  1.0576 -1.0796
 4481SOL     OW31434  12.700   3.326  11.853  0.0554 -0.7087  0.5464
 4481SOL    HW131435  12.795   3.330  11.844  0.2728 -3.9762  0.2305
 4481SOL    HW231436  12.667   3.372  11.776  1.3835 -0.4383  0.0973
 4482SOL     OW31437   9.607   9.811   7.813 -0.1140  0.4573  0.3214
 4482SOL    HW131438   9.608   9.761   7.731 -1.3749  1.2392 -0.1988
 4482SOL    HW231439   9.692   9.855   7.815  1.0448 -1.6340  0.7911
 4483SOL     OW31440   5.860   8.253  13.704 -0.1159  0.6143  0.3025
 4483SOL    HW131441   5.901   8.271  13.619 -1.6404  1.3248 -0.3137
 4483SOL    HW231442   5.826   8.164  13.696 -0.1890  0.6517  0.1891
 4484SOL     OW31443   3.711   8.672   4.289  0.2680 -0.0084 -0.2959
 4484SOL    HW131444   3.796   8.634   4.267 -0.0565 -1.1267  0.2806
 4484SOL    HW231445   3.650   8.598   4.283 -0.9045  1.0298 -1.9542
 4485SOL     OW31446   0.183  10.797   0.666  0.6689 -0.0614 -0.2349
 4485SOL    HW131447   0.087  10.790   0.668  0.7299 -0.7654  0.8834
 4485SOL    HW231448   0.199  10.890   0.647 -0.2167 -0.1961 -1.7560
 4486SOL     OW31449   3.658  14.040   9.112  0.3826 -0.0302  0.4426
 4486SOL    HW131450   3.718  14.089   9.167 -0.2653 -0.9585  2.0348
 4486SOL    HW231451   3.713  13.975   9.068  1.0867  1.4276 -0.9516
 4487SOL     OW31452   8.498  12.504   6.524  0.4291 -0.6182 -0.3216
 4487SOL    HW131453   8.424  12.457   6.561  1.4036 -1.6993  0.3306
 4487SOL    HW231454   8.485  12.499   6.429 -1.3878  1.0209 -0.2193
 4488SOL     OW31455   3.808   1.672   3.876  0.5422 -0.2179  0.4873
 4488SOL    HW131456   3.722   1.634   3.859 -0.0389  1.7299 -1.4736
 4488SOL    HW231457   3.793   1.737   3.945  0.3045  0.4407 -0.1677
 4489SOL     OW31458  14.017  13.261   6.420  0.1067  0.0837  0.5721
 4489SOL    HW131459  14.061  13.345   6.406  0.0206  0.0521  0.0601
 4489SOL    HW231460  14.007  13.254   6.514  0.9782  0.2084  0.6827
 4490SOL     OW31461   5.673   1.396   1.129  0.2676  0.1344 -0.4197
 4490SOL    HW131462   5.595   1.352   1.095 -0.0703  0.8432 -0.5903
 4490SOL    HW231463   5.742   1.330   1.124 -0.0099 -0.0980 -1.5470
 4491SOL     OW31464   2.302   4.479   4.820 -0.5710  0.5085  0.3710
 4491SOL    HW131465   2.378   4.536   4.826 -0.3322  0.3102 -0.5323
 4491SOL    HW231466   2.232   4.527   4.865 -0.0543  0.9329  0.7335
 4492SOL     OW31467  11.481   6.746   2.418  0.0814  0.0450  0.1508
 4492SOL    HW131468  11.525   6.672   2.460  2.5118  0.1842 -1.8700
 4492SOL    HW231469  11.486   6.726   2.324 -0.6383  2.0309 -0.3579
 4493SOL     OW31470   4.883   0.457  13.315  0.3716 -0.1281 -0.3357
 4493SOL    HW131471   4.971   0.466  13.280  0.8973 -0.4396  0.8644
 4493SOL    HW231472   4.857   0.546  13.339  1.5511 -0.3758  2.0621
 4494SOL     OW31473  13.025   8.644   5.551  0.2844  0.0413 -0.0194
 4494SOL    HW131474  13.120   8.653   5.545  0.5922 -1.1052  1.9131
 4494SOL    HW231475  13.013   8.569   5.610 -1.8234  0.4616  0.1465
 4495SOL     OW31476  12.222   7.469   7.141  0.3400  0.1752  0.0371
 4495SOL    HW131477  12.156   7.403   7.163  0.2857  0.1188 -0.2919
 4495SOL    HW231478  12.271   7.482   7.222  1.2978 -1.3508 -0.2541
 4496SOL     OW31479   5.808  11.345  13.182  0.5780 -0.2474 -0.2363
 4496SOL    HW131480   5.858  11.377  13.257  0.3895 -0.0227 -0.2065
 4496SOL    HW231481   5.852  11.263  13.157  0.5107 -0.4294  0.2448
 4497SOL     OW31482   6.865  11.419   7.581 -0.0842 -0.2188 -0.0071
 4497SOL    HW131483   6.952  11.407   7.618  0.1335  0.8647 -0.1376
 4497SOL    HW231484   6.879  11.477   7.506 -0.6400 -1.6321 -1.2663
 4498SOL     OW31485   6.989   5.098   2.488  0.4690 -0.3716 -0.0752
 4498SOL    HW131486   6.918   5.058   2.539  0.2118 -0.3112 -0.3859
 4498SOL    HW231487   7.048   5.133   2.554  0.4374 -0.8114  0.1974
 4499SOL     OW31488  12.860   4.039   3.692  0.2722 -0.1282  0.5179
 4499SOL    HW131489  12.808   3.995   3.759 -0.1267 -0.2179  0.1500
 4499SOL    HW231490  12.949   4.007   3.706  0.1330 -0.3987  0.7942
 4500SOL     OW31491   2.049  12.389  13.808  0.0191 -0.7079 -0.2149
 4500SOL    HW131492   1.993  12.409  13.882 -0.1389  0.0256 -0.5290
 4500SOL    HW231493   2.052  12.293  13.806  0.3965 -0.7325  1.0038
 4501SOL     OW31494   5.201  11.144   8.066  0.8448  0.1161  0.0390
 4501SOL    HW131495   5.241  11.132   7.980  2.0948  1.3147  0.4172
 4501SOL    HW231496   5.271  11.123   8.128  0.9533  2.2775  0.7293
 4502SOL     OW31497   1.672   5.171  11.205 -0.4424 -0.3263  0.1295
 4502SOL    HW131498   1.635   5.091  11.243 -1.4055  0.0021 -0.0901
 4502SOL    HW231499   1.675   5.153  11.111 -1.8718  0.3455 -0.0734
 4503SOL     OW31500   2.483   1.530   9.510 -0.1011 -0.1929 -0.1986
 4503SOL    HW131501   2.466   1.621   9.486  0.3023 -0.1277 -0.2442
 4503SOL    HW231502   2.502   1.487   9.427  0.4114 -0.1608 -0.1035
 4504SOL     OW31503  12.796  10.403   8.586 -0.6102 -0.4503 -0.4817
 4504SOL    HW131504  12.754  10.351   8.655  0.1032  0.5342  0.7272
 4504SOL    HW231505  12.724  10.445   8.541 -1.1231 -1.5123 -0.6923
 4505SOL     OW31506   3.512   3.363  12.613 -0.2188  0.1448 -0.2372
 4505SOL    HW131507   3.580   3.356  12.545 -0.3440 -2.2154 -0.1946
 4505SOL    HW231508   3.430   3.341  12.567 -0.5448  0.1649  0.3257
 4506SOL     OW31509   5.120   9.794   2.625 -0.1454  0.8915  0.1637
 4506SOL    HW131510   5.159   9.752   2.549  0.5808  1.2471  0.3339
 4506SOL    HW231511   5.093   9.881   2.594  1.1960  1.4774  0.5839
 4507SOL     OW31512   2.930   3.087   6.566  0.1970 -0.4739  0.0986
 4507SOL    HW131513   3.022   3.063   6.552  0.0496 -1.4732  0.7646
 4507SOL    HW231514   2.886   3.004   6.586 -0.1596  0.4042  3.5371
 4508SOL     OW31515   1.926  11.261  11.729  0.2885 -0.1471 -0.1235
 4508SOL    HW131516   1.911  11.185  11.673 -0.0617  1.2534 -2.0500
 4508SOL    HW231517   2.011  11.296  11.701  0.9364 -0.3634  1.4438
 4509SOL     OW31518   4.451   1.627  13.534 -0.1260  0.0287 -0.2361
 4509SOL    HW131519   4.544   1.647  13.518 -0.3088  0.1945 -1.0952
 4509SOL    HW231520   4.452   1.539  13.570  0.4302  0.3466  0.5852
 4510SOL     OW31521   2.076   5.355   6.093 -0.2451  0.0003 -0.2099
 4510SOL    HW131522   2.059   5.352   5.999 -0.3240 -1.1595 -0.1715
 4510SOL    HW231523   2.161   5.398   6.101 -0.0122 -0.3461 -0.8411
 4511SOL     OW31524   1.551   4.376   5.261  0.3250 -0.1719 -0.1728
 4511SOL    HW131525   1.606   4.328   5.323 -0.3277 -1.3335 -0.4621
 4511SOL    HW231526   1.603   4.453   5.237  1.2245 -0.5117  0.6264
 4512SOL     OW31527   8.341  12.183   0.014  0.0781  0.1712 -0.0371
 4512SOL    HW131528   8.436  12.183   0.001  0.0203 -1.2329 -0.6613
 4512SOL    HW231529   8.305  12.169  -0.074 -0.5632 -2.8523  0.5932
 4513SOL     OW31530  13.300   5.376  12.284 -0.5566  0.1998 -0.0560
 4513SOL    HW131531  13.388   5.410  12.264 -1.1589  1.2786 -0.9620
 4513SOL    HW231532  13.295   5.294  12.235 -0.6993  1.0376 -1.4952
 4514SOL     OW31533   9.703   4.856  11.979  0.3485 -0.4523  0.4987
 4514SOL    HW131534   9.706   4.783  11.917 -1.2466  0.3814 -0.6054
 4514SOL    HW231535   9.715   4.934  11.926 -4.1361  0.5559  0.5502
 4515SOL     OW31536  11.522   4.142  13.260 -0.2208 -0.2640 -0.6251
 4515SOL    HW131537  11.600   4.197  13.264 -1.4591  1.5370  1.1058
 4515SOL    HW231538  11.553   4.054  13.277  1.5181  0.2814 -0.8011
 4516SOL     OW31539   7.939   6.446   8.633  0.1872  0.0078  0.0366
 4516SOL    HW131540   7.922   6.534   8.600  0.1620 -0.0575 -0.1237
 4516SOL    HW231541   7.921   6.388   8.559  0.9023 -0.0814 -0.0831
 4517SOL     OW31542   9.912   9.581   0.235  0.4142  0.0528  0.1496
 4517SOL    HW131543   9.883   9.574   0.144 -0.6345 -0.2476  0.4880
 4517SOL    HW231544   9.906   9.674   0.255  1.0105  0.1690 -0.1963
 4518SOL     OW31545  12.794   1.219  12.606 -0.1804 -0.0530  0.0358
 4518SOL    HW131546  12.869   1.159  12.601 -0.7303 -1.1685  2.8048
 4518SOL    HW231547  12.717   1.163  12.595 -0.6745  0.8884 -1.5848
 4519SOL     OW31548   9.867   2.687  11.702  0.0895 -0.1158 -0.1649
 4519SOL    HW131549   9.786   2.658  11.744 -0.4208  0.6186 -0.6252
 4519SOL    HW231550   9.841   2.762  11.649  0.5416 -1.5264 -2.5147
 4520SOL     OW31551  13.818   6.471  10.499  0.2886  0.6160  0.7879
 4520SOL    HW131552  13.748   6.405  10.492  0.5425  0.3416  0.8113
 4520SOL    HW231553  13.824   6.490  10.592  0.1365  0.7594  0.7693
 4521SOL     OW31554   1.963   7.251   6.720 -0.3124 -0.4481  0.0748
 4521SOL    HW131555   1.908   7.176   6.698 -0.4281 -0.4973  0.5186
 4521SOL    HW231556   1.902   7.325   6.722 -0.2410 -0.3838 -0.1195
 4522SOL     OW31557  12.415  11.854   2.373  0.0561 -0.0035 -0.7809
 4522SOL    HW131558  12.326  11.889   2.380  0.4263  1.0110 -0.8862
 4522SOL    HW231559  12.463  11.896   2.445 -0.0535 -2.2682  0.7141
 4523SOL     OW31560  13.764  10.993   1.688 -0.3020  0.6647 -0.1271
 4523SOL    HW131561  13.859  10.989   1.695 -0.4174  0.2131  1.3022
 4523SOL    HW231562  13.747  10.974   1.595  0.8973 -1.0577 -0.0427
 4524SOL     OW31563  13.905   2.408  13.151 -0.4006  0.0305 -0.3975
 4524SOL    HW131564  13.846   2.359  13.208  0.7026 -0.0528  0.7041
 4524SOL    HW231565  13.932   2.483  13.203 -1.6060  1.5374 -1.8616
 4525SOL     OW31566   1.884   9.280  10.733  0.2111  0.0135 -0.1566
 4525SOL    HW131567   1.935   9.359  10.750  2.6531 -1.4814 -0.0426
 4525SOL    HW231568   1.936   9.231  10.670 -1.6922 -1.1201 -0.9310
 4526SOL     OW31569  10.433  13.138   4.826  0.4221  0.6642  0.8357
 4526SOL    HW131570  10.386  13.194   4.887 -2.4553 -0.8785  0.1826
 4526SOL    HW231571  10.447  13.057   4.875 -0.4261  0.0080  0.0230
 4527SOL     OW31572  12.672   5.123   1.097 -0.2801  0.3949  0.0813
 4527SOL    HW131573  12.679   5.051   1.160  1.2753  0.0393 -0.4454
 4527SOL    HW231574  12.744   5.182   1.121  0.5251  0.1050 -1.5105
 4528SOL     OW31575   1.110   2.116   9.917 -0.1436  0.2058 -0.1267
 4528SOL    HW131576   1.079   2.207   9.923  1.4361  0.8270 -1.0035
 4528SOL    HW231577   1.188   2.120   9.862 -0.0760 -1.7105 -0.2395
 4529SOL     OW31578   3.310  13.934   9.999 -0.2651  0.1525 -0.4291
 4529SOL    HW131579   3.304  13.917  10.094  1.3764  0.2379 -0.2833
 4529SOL    HW231580   3.266  13.859   9.959 -0.0471 -0.4280  0.3897
 4530SOL     OW31581   6.215   3.148   4.766 -0.2610 -0.9234 -0.3691
 4530SOL    HW131582   6.248   3.233   4.794 -1.1596 -0.8814  0.5824
 4530SOL    HW231583   6.145   3.127   4.827  0.8994 -3.0319  0.3388
 4531SOL     OW31584   7.262   7.953   1.119 -0.2795  0.4460 -0.0420
 4531SOL    HW131585   7.229   7.864   1.132  0.8131 -0.0359 -0.4321
 4531SOL    HW231586   7.338   7.959   1.177 -0.1248  0.9881 -0.2977
 4532SOL     OW31587   8.181  11.894  13.583 -0.5231  0.4948 -0.2230
 4532SOL    HW131588   8.126  11.939  13.519 -1.2365  0.5226  0.3926
 4532SOL    HW231589   8.121  11.839  13.632  0.1170 -0.0105  0.0080
 4533SOL     OW31590   7.993   7.741   1.538 -0.2084 -0.2421 -0.2368
 4533SOL    HW131591   8.023   7.754   1.628  0.6009  0.9901 -0.6630
 4533SOL    HW231592   8.072   7.742   1.485 -0.6968 -0.7078 -1.0099
 4534SOL     OW31593   7.391  11.911   9.697 -0.0190  0.5551  0.0573
 4534SOL    HW131594   7.364  11.964   9.772 -0.3333  0.7537 -0.1927
 4534SOL    HW231595   7.346  11.950   9.623 -1.9171 -1.2750  0.1475
 4535SOL     OW31596   1.165  10.661  10.093  0.3547 -0.0129  0.1536
 4535SOL    HW131597   1.111  10.600  10.043  1.5525 -2.0020  1.1508
 4535SOL    HW231598   1.209  10.714  10.027 -0.2314 -0.6794 -0.7887
 4536SOL     OW31599   5.130   7.801  11.064  0.2702  0.1429 -0.4479
 4536SOL    HW131600   5.046   7.843  11.081  0.6409  0.4591  0.6867
 4536SOL    HW231601   5.145   7.745  11.140  1.5010  0.7742 -0.2078
 4537SOL     OW31602   8.875   3.968   7.438  0.1927  0.0591  0.3838
 4537SOL    HW131603   8.782   3.978   7.417  0.1681 -0.0490  0.4421
 4537SOL    HW231604   8.904   3.893   7.385  0.2562  0.1177  0.3356
 4538SOL     OW31605   2.354   3.028  11.189  0.0608  0.6409 -0.6102
 4538SOL    HW131606   2.338   3.112  11.233 -1.0521  0.3529 -0.4284
 4538SOL    HW231607   2.442   3.003  11.217 -0.0253  1.2193  0.2265
 4539SOL     OW31608   3.337   7.711   3.857  0.5003 -0.5297  0.1009
 4539SOL    HW131609   3.277   7.742   3.925  1.3793 -0.4698  0.8691
 4539SOL    HW231610   3.309   7.622   3.838  0.2701 -0.5647  0.5874
 4540SOL     OW31611   1.381   7.460  12.564  0.1567 -0.2640 -0.6642
 4540SOL    HW131612   1.305   7.443  12.619 -0.2321  0.1314 -1.0686
 4540SOL    HW231613   1.345   7.503  12.486  0.8230  0.1861 -0.7339
 4541SOL     OW31614   8.985   2.586   9.095 -0.1239 -0.1173  0.8487
 4541SOL    HW131615   8.979   2.532   9.174 -1.3399 -1.1210  0.1104
 4541SOL    HW231616   9.079   2.585   9.073  0.1106 -0.5345  1.7911
 4542SOL     OW31617   0.486   2.570   4.614 -0.0342  0.0644 -0.3945
 4542SOL    HW131618   0.557   2.621   4.652 -0.6623 -0.7295  1.9700
 4542SOL    HW231619   0.530   2.493   4.578  0.2813 -0.9869  2.0547
 4543SOL     OW31620   7.580   7.775  13.186  0.4430  0.0574  0.1181
 4543SOL    HW131621   7.571   7.853  13.132  0.5564 -0.7850 -1.1846
 4543SOL    HW231622   7.515   7.714  13.149  1.5965 -1.0889 -0.1019
 4544SOL     OW31623  12.267  13.816   4.747 -0.1921  0.2650  0.0801
 4544SOL    HW131624  12.261  13.832   4.653 -0.2604  0.4400  0.1133
 4544SOL    HW231625  12.359  13.792   4.762 -0.3939 -0.7258 -0.1767
 4545SOL     OW31626   1.598  13.306   5.507 -0.0255  0.0710 -0.4229
 4545SOL    HW131627   1.607  13.234   5.569  0.3946  0.6434  0.2000
 4545SOL    HW231628   1.624  13.384   5.557 -1.4807  0.8083 -0.7669
 4546SOL     OW31629   2.294  11.737   7.218 -0.5471 -0.2007 -0.4720
 4546SOL    HW131630   2.369  11.772   7.266  1.1930 -1.5074 -2.0773
 4546SOL    HW231631   2.228  11.719   7.285  0.9628  0.0097  1.1340
 4547SOL     OW31632   5.573   0.559   3.699  0.2367 -0.4067  0.0370
 4547SOL    HW131633   5.525   0.626   3.747  2.1858 -0.1595  1.7657
 4547SOL    HW231634   5.517   0.482   3.702 -0.4487  0.1210  1.2257
 4548SOL     OW31635  11.850   2.018   6.804  0.3293 -0.2071  0.2089
 4548SOL    HW131636  11.910   2.016   6.878 -1.1990 -0.6738  1.4894
 4548SOL    HW231637  11.907   2.018   6.727  1.9602 -1.0114  1.3502
 4549SOL     OW31638   8.521  10.419   6.376 -0.7591 -0.1109  0.0589
 4549SOL    HW131639   8.520  10.492   6.438 -0.6734 -0.5915  0.6478
 4549SOL    HW231640   8.546  10.458   6.293  0.2908  0.3732  0.5799
 4550SOL     OW31641   7.731   9.119  10.430 -0.4689 -0.9669  0.4495
 4550SOL    HW131642   7.728   9.128  10.335  2.4000 -0.6408  0.3039
 4550SOL    HW231643   7.693   9.200  10.463  0.2743 -0.2065 -0.4849
 4551SOL     OW31644   7.312   5.073   9.953 -0.4741 -0.3742  0.0868
 4551SOL    HW131645   7.393   5.089  10.002  1.0358  2.1475 -2.9321
 4551SOL    HW231646   7.243   5.108  10.010  0.4779 -2.3081  2.5980
 4552SOL     OW31647  13.397   3.157  10.594  0.0094  0.1879  0.2340
 4552SOL    HW131648  13.378   3.119  10.508 -0.1267 -0.1936  0.4298
 4552SOL    HW231649  13.491   3.178  10.590  0.0989 -0.2119  0.1364
 4553SOL     OW31650  13.473  10.248   6.083  0.0084 -0.5339  0.0746
 4553SOL    HW131651  13.519  10.180   6.034 -0.8793 -1.5079  0.5613
 4553SOL    HW231652  13.531  10.325   6.078  0.0433 -0.6393 -2.3227
 4554SOL     OW31653  11.781   5.271  13.375 -0.3546 -0.4366 -0.2979
 4554SOL    HW131654  11.726   5.224  13.438  0.2254  0.6818  1.0822
 4554SOL    HW231655  11.767   5.224  13.293 -2.0932 -1.1836  0.3627
 4555SOL     OW31656   3.854  12.913   3.056 -0.7531 -1.0075  0.5034
 4555SOL    HW131657   3.863  12.822   3.083  0.7760 -0.9713  0.1619
 4555SOL    HW231658   3.789  12.911   2.986  0.4205 -2.0581 -0.5852
 4556SOL     OW31659   5.209   4.256   6.823  0.1008 -0.4191 -0.3980
 4556SOL    HW131660   5.145   4.206   6.771 -0.7933 -0.9256  1.1098
 4556SOL    HW231661   5.259   4.189   6.869  0.6459  0.0219 -0.3510
 4557SOL     OW31662  10.811   1.979   8.502 -0.4270 -0.9122 -0.0921
 4557SOL    HW131663  10.748   1.908   8.504 -0.0941 -1.1961  0.4416
 4557SOL    HW231664  10.884   1.948   8.555 -0.5014  0.0457  0.5863
 4558SOL     OW31665  10.172  11.951   7.935 -0.0253  0.2295 -0.1550
 4558SOL    HW131666  10.126  11.957   8.018 -1.4607 -0.5316 -0.8572
 4558SOL    HW231667  10.232  11.876   7.946 -0.1536  0.1783  0.2128
 4559SOL     OW31668  11.049  13.686   9.789 -0.1240 -0.5026 -0.4286
 4559SOL    HW131669  11.045  13.777   9.760 -1.3875  0.2675  1.8404
 4559SOL    HW231670  10.966  13.648   9.762 -0.2163 -0.5325 -0.1122
 4560SOL     OW31671   8.424   0.170   8.639 -0.0423  0.4011  0.3823
 4560SOL    HW131672   8.446   0.199   8.551  0.1380  0.6372  0.5047
 4560SOL    HW231673   8.412   0.075   8.631  0.7790  0.3020  0.2647
 4561SOL     OW31674   1.889   5.575   3.147 -0.0934  0.0759 -0.2537
 4561SOL    HW131675   1.866   5.667   3.139  0.6411  0.1090 -2.7599
 4561SOL    HW231676   1.982   5.575   3.172 -0.3933 -0.0354  0.9499
 4562SOL     OW31677   2.226  12.168   1.121  0.5597  0.3402  0.4023
 4562SOL    HW131678   2.157  12.191   1.059  2.3522  1.8707 -1.1826
 4562SOL    HW231679   2.307  12.192   1.075  2.1460 -1.3175  2.1818
 4563SOL     OW31680   6.482  13.248  11.648  0.4640  0.4052  0.3846
 4563SOL    HW131681   6.449  13.336  11.629 -1.9025  0.4305  3.8305
 4563SOL    HW231682   6.521  13.254  11.735  0.6847 -1.8621  0.5165
 4564SOL     OW31683   9.677  13.780   1.020  0.7164 -0.0316  0.1372
 4564SOL    HW131684   9.604  13.726   0.990  0.8456 -0.6532  0.9173
 4564SOL    HW231685   9.673  13.857   0.964  0.4927 -0.8129 -0.9611
 4565SOL     OW31686  10.848  12.671  11.691  0.2353  0.0741  0.3462
 4565SOL    HW131687  10.877  12.748  11.641  0.8474 -0.2895  0.1327
 4565SOL    HW231688  10.758  12.656  11.662 -0.4085  1.5681  1.4256
 4566SOL     OW31689  11.882   6.080   5.589 -0.1569  0.4299 -0.0617
 4566SOL    HW131690  11.873   6.143   5.660 -0.8071  0.7787 -0.4491
 4566SOL    HW231691  11.885   5.995   5.633 -1.5148  0.5742  0.3327
 4567SOL     OW31692  13.572  14.057   9.187 -0.1090 -0.5138  0.1212
 4567SOL    HW131693  13.517  14.010   9.124 -0.3675  1.8125 -1.5625
 4567SOL    HW231694  13.654  14.073   9.139  0.3102 -0.0605  0.9743
 4568SOL     OW31695  11.175   8.876  10.863 -0.1852  0.0363 -0.3861
 4568SOL    HW131696  11.248   8.851  10.806  0.0785  1.4551 -0.7196
 4568SOL    HW231697  11.191   8.828  10.944  0.0947 -1.0868 -1.0838
 4569SOL     OW31698  10.390   3.581  12.293 -0.5706 -0.2004 -0.0589
 4569SOL    HW131699  10.333   3.624  12.357  1.0655  1.6031  0.3112
 4569SOL    HW231700  10.338   3.509  12.258 -2.5197  0.4774  1.2755
 4570SOL     OW31701   6.330  10.384   8.778 -0.6255  0.1683 -0.0455
 4570SOL    HW131702   6.425  10.382   8.785 -0.6534 -0.6534  0.1141
 4570SOL    HW231703   6.313  10.358   8.687 -0.7618 -1.6265  0.4625
 4571SOL     OW31704  10.615   2.961   9.948 -0.5874 -0.1760 -0.1796
 4571SOL    HW131705  10.548   2.991  10.008  0.9061 -1.0732  2.0805
 4571SOL    HW231706  10.612   2.866   9.954 -0.1533 -0.2723 -1.2484
 4572SOL     OW31707   1.880   1.586  13.539  0.0733  0.0808  0.2609
 4572SOL    HW131708   1.972   1.561  13.530 -0.0452  0.2014 -1.9859
 4572SOL    HW231709   1.880   1.655  13.605  1.4905 -0.4126  0.8077
 4573SOL     OW31710   3.774   1.732   8.733  0.0040  0.4737  0.6909
 4573SOL    HW131711   3.683   1.758   8.723 -0.0252 -0.0874 -0.6722
 4573SOL    HW231712   3.789   1.669   8.663  1.1687 -0.1989  1.5108
 4574SOL     OW31713   6.140  14.088   0.347 -0.0115 -0.1169 -0.3848
 4574SOL    HW131714   6.166  14.152   0.282 -1.4274 -0.2621 -1.1440
 4574SOL    HW231715   6.214  14.028   0.353  0.3674  0.2287 -1.4450
 4575SOL     OW31716   5.972   8.965   4.554 -0.5027 -0.1733  0.1594
 4575SOL    HW131717   6.043   8.900   4.548  0.4157  0.8771 -0.6352
 4575SOL    HW231718   5.970   9.007   4.469 -0.5142  1.4250  0.9179
 4576SOL     OW31719  13.709   4.796   0.217 -0.1229  0.1590  0.1745
 4576SOL    HW131720  13.625   4.759   0.190  0.7262 -0.7673 -1.3138
 4576SOL    HW231721  13.726   4.756   0.303 -0.7944 -0.3188  0.0933
 4577SOL     OW31722   4.428  13.182  11.931 -0.4297  0.1992  0.3825
 4577SOL    HW131723   4.412  13.119  11.860 -0.4911  0.8109 -0.1476
 4577SOL    HW231724   4.341  13.216  11.953 -0.3655  0.2929  0.4944
 4578SOL     OW31725   7.054   2.163   5.154 -0.0218 -0.0574 -0.0348
 4578SOL    HW131726   6.981   2.105   5.135  0.2987 -0.2159 -0.8340
 4578SOL    HW231727   7.018   2.251   5.149  0.1873 -0.0320 -2.2677
 4579SOL     OW31728   7.882   3.565  11.351 -0.0614  0.6159 -0.6018
 4579SOL    HW131729   7.861   3.582  11.443  0.8607 -1.2019  0.0126
 4579SOL    HW231730   7.972   3.532  11.353  0.5130  1.9270 -2.3474
 4580SOL     OW31731   5.832   6.956  11.169 -0.4201  0.5307 -0.5881
 4580SOL    HW131732   5.902   7.022  11.166 -1.1594  1.3155 -1.2070
 4580SOL    HW231733   5.835   6.922  11.258 -1.0552  2.5927  0.2897
 4581SOL     OW31734   8.025  12.272   4.536 -0.2153 -0.2912 -0.0422
 4581SOL    HW131735   8.087  12.323   4.589  1.2200 -1.3352 -0.6619
 4581SOL    HW231736   8.004  12.329   4.462 -0.0270  0.0814  0.1897
 4582SOL     OW31737  13.853   6.282  11.741  0.2696  0.1987 -0.7976
 4582SOL    HW131738  13.842   6.249  11.652 -1.8220 -1.6566  0.0672
 4582SOL    HW231739  13.779   6.341  11.754 -0.1616 -0.5159  0.0964
 4583SOL     OW31740   7.236   5.708   3.255 -0.0801  0.5290 -0.2420
 4583SOL    HW131741   7.321   5.684   3.218 -0.2500  0.4169 -0.5654
 4583SOL    HW231742   7.223   5.647   3.328 -0.7101 -0.7050 -1.3279
 4584SOL     OW31743   2.579   6.024  11.605 -0.2448 -0.6070 -0.0905
 4584SOL    HW131744   2.673   6.034  11.593 -0.1593 -0.1394  0.8733
 4584SOL    HW231745   2.557   5.941  11.562  0.2044  0.3469 -2.3220
 4585SOL     OW31746  13.119   7.396  11.874 -0.2622  0.7821 -0.2436
 4585SOL    HW131747  13.157   7.416  11.788 -1.5782 -0.7497 -1.2527
 4585SOL    HW231748  13.028   7.426  11.868  0.0765  2.2321  1.2656
 4586SOL     OW31749  12.370   8.925   9.012  0.5680  0.3765 -0.0546
 4586SOL    HW131750  12.426   8.869   8.959  0.8084 -0.9929  1.5372
 4586SOL    HW231751  12.386   8.897   9.102  0.3433  2.7394  0.7954
 4587SOL     OW31752   0.199   8.939   5.546 -0.2896  0.1305 -0.3461
 4587SOL    HW131753   0.119   8.921   5.594 -0.6172  0.3392 -0.8099
 4587SOL    HW231754   0.257   8.981   5.610 -1.0256  1.1789 -0.3457
 4588SOL     OW31755  11.496  11.272   6.419 -0.0713  0.3004  0.3187
 4588SOL    HW131756  11.427  11.279   6.484  0.2276  2.5227  0.4847
 4588SOL    HW231757  11.457  11.306   6.338 -0.0046 -1.0749 -0.3134
 4589SOL     OW31758  11.773   7.122   8.253 -0.0586 -0.2314  0.2186
 4589SOL    HW131759  11.782   7.119   8.348  2.3506  1.0124  0.1039
 4589SOL    HW231760  11.819   7.043   8.223 -0.1140 -0.1999  0.0534
 4590SOL     OW31761   0.095   7.479   2.872  0.1575 -0.4232 -0.5451
 4590SOL    HW131762   0.092   7.564   2.828 -0.1735 -1.0768 -1.8715
 4590SOL    HW231763   0.084   7.416   2.800 -2.7320 -1.5062  0.7155
 4591SOL     OW31764   0.965  12.970  10.297 -0.7170 -0.1368  0.1826
 4591SOL    HW131765   0.940  12.942  10.209 -0.7516  0.5261 -0.0180
 4591SOL    HW231766   1.061  12.968  10.297 -0.7189 -0.3125  0.1954
 4592SOL     OW31767   2.717   2.289  12.711  0.1415 -0.3154 -0.0219
 4592SOL    HW131768   2.797   2.240  12.726  0.4395  0.2932  0.4425
 4592SOL    HW231769   2.649   2.223  12.701  0.7702 -0.8542 -0.8805
 4593SOL     OW31770   2.792   1.278   0.014 -0.3084 -0.4408 -0.0882
 4593SOL    HW131771   2.750   1.192   0.012 -0.1745 -0.5803  1.3835
 4593SOL    HW231772   2.865   1.267   0.074  0.4340  0.4077 -0.8164
 4594SOL     OW31773   8.363   9.716   2.306  0.5449  0.1270 -0.3490
 4594SOL    HW131774   8.355   9.621   2.319  0.0247  0.3104  0.7756
 4594SOL    HW231775   8.358   9.727   2.211  0.4628 -0.9598 -0.4912
 4595SOL     OW31776   9.719  12.939  13.751  0.3586  0.5806  0.1488
 4595SOL    HW131777   9.810  12.939  13.721 -0.2277  2.1328 -1.8259
 4595SOL    HW231778   9.670  12.902  13.677 -0.5218 -1.6530  1.7431
 4596SOL     OW31779   3.282  13.178   0.668  0.1858 -0.0200  0.0909
 4596SOL    HW131780   3.359  13.151   0.717 -1.2065  2.0485  3.8214
 4596SOL    HW231781   3.225  13.100   0.667  1.2286 -0.8001 -0.4861
 4597SOL     OW31782   7.855  11.360   2.081 -0.0175  0.1871  0.0145
 4597SOL    HW131783   7.866  11.265   2.089 -1.6089 -0.0781 -0.6436
 4597SOL    HW231784   7.771  11.379   2.121 -0.1024  1.2112 -0.6059
 4598SOL     OW31785  11.301  13.976   4.742 -0.3281 -0.0089 -0.3567
 4598SOL    HW131786  11.305  13.960   4.836  0.8517  1.3468 -0.1307
 4598SOL    HW231787  11.393  13.987   4.716 -0.7331  1.9966 -1.1637
 4599SOL     OW31788  10.924   1.792   5.448 -0.0013  0.1249 -0.1491
 4599SOL    HW131789  10.945   1.850   5.374  1.1797 -0.3303 -0.2039
 4599SOL    HW231790  10.869   1.724   5.410 -0.7497  0.7683 -0.2493
 4600SOL     OW31791  10.238   1.158   8.330 -0.1386  0.6733  0.1444
 4600SOL    HW131792  10.237   1.194   8.419 -0.5875 -0.2226  0.5139
 4600SOL    HW231793  10.285   1.223   8.279  0.0834  1.2302  1.0273
 4601SOL     OW31794   3.106   2.214   7.721 -0.6967 -0.0383  0.0951
 4601SOL    HW131795   3.016   2.179   7.719 -0.7098 -0.0621  0.8381
 4601SOL    HW231796   3.104   2.281   7.789  0.1712 -0.9665  1.0686
 4602SOL     OW31797   1.810   6.298  13.302  0.0656  0.2681  0.9323
 4602SOL    HW131798   1.768   6.357  13.364  0.5493  1.5627  0.0845
 4602SOL    HW231799   1.904   6.306  13.321  0.1531 -0.0703  0.6678
 4603SOL     OW31800  10.040   1.102   2.005  0.0479  0.1837 -0.2465
 4603SOL    HW131801  10.019   1.010   2.025  1.0243 -0.0728 -0.3134
 4603SOL    HW231802  10.070   1.138   2.088  2.8211 -0.5100 -0.8167
 4604SOL     OW31803   5.556   9.487   3.148  0.4409 -0.2564  0.7965
 4604SOL    HW131804   5.605   9.405   3.140 -1.0696 -0.9515 -2.8795
 4604SOL    HW231805   5.593   9.544   3.081 -1.6772  0.3047  0.0290
 4605SOL     OW31806  13.013   9.819  10.369  0.3714  0.1992 -0.0862
 4605SOL    HW131807  12.989   9.873  10.294 -1.3127 -0.7106 -0.2481
 4605SOL    HW231808  12.990   9.730  10.343 -0.6658 -0.0915  1.6166
 4606SOL     OW31809   2.788   4.495   3.969  0.0585  0.7858  0.6558
 4606SOL    HW131810   2.753   4.486   3.880  0.1133  0.7764  0.6346
 4606SOL    HW231811   2.842   4.574   3.966  1.8360 -0.3780  0.0757
 4607SOL     OW31812   8.130   1.260   4.674  0.2940  0.2164  0.1005
 4607SOL    HW131813   8.047   1.238   4.715 -0.4514  1.6240 -0.5548
 4607SOL    HW231814   8.149   1.186   4.616 -1.0489  0.3135 -0.5088
 4608SOL     OW31815   7.615   8.420   9.000  0.4035  0.6944  0.5451
 4608SOL    HW131816   7.522   8.442   9.000 -0.3606 -2.0006 -1.4478
 4608SOL    HW231817   7.655   8.483   8.940 -0.3045  1.2591  0.6527
 4609SOL     OW31818   0.692  12.944   1.094  0.1344  0.1285 -0.2801
 4609SOL    HW131819   0.674  13.034   1.066 -1.0407 -0.2326 -0.7586
 4609SOL    HW231820   0.605  12.905   1.104  0.6358 -1.2648 -1.0983
 4610SOL     OW31821   3.219  10.913  10.693  0.1175 -0.4273 -0.2474
 4610SOL    HW131822   3.251  10.822  10.692  0.1680 -0.4678  1.7441
 4610SOL    HW231823   3.254  10.950  10.774 -0.2292  1.2786 -0.8344
 4611SOL     OW31824   2.688  13.695   4.400  0.9337  0.0064 -0.4525
 4611SOL    HW131825   2.659  13.619   4.349  1.5291 -1.8451  1.7800
 4611SOL    HW231826   2.783  13.685   4.405  0.8844  0.1672  0.9607
 4612SOL     OW31827   8.783   2.227   7.857  0.0433 -0.1460 -0.5623
 4612SOL    HW131828   8.752   2.242   7.768  0.4966  1.0992 -0.5232
 4612SOL    HW231829   8.831   2.306   7.880 -0.7883 -0.0651  1.1044
 4613SOL     OW31830   8.253  10.173   9.293  0.1795  0.2423 -0.0920
 4613SOL    HW131831   8.198  10.214   9.360 -0.6491  0.1688 -0.7218
 4613SOL    HW231832   8.195  10.116   9.244  1.2441 -1.4406  0.5203
 4614SOL     OW31833   8.487  12.191   3.062  0.4227 -0.3860  0.1239
 4614SOL    HW131834   8.432  12.191   3.140  1.6587 -2.1873  1.0648
 4614SOL    HW231835   8.468  12.106   3.020 -0.8118  0.8652 -2.0158
 4615SOL     OW31836   0.562   9.232  10.955 -0.3703  0.0467  0.3190
 4615SOL    HW131837   0.600   9.144  10.960 -1.2495 -0.3493  0.3635
 4615SOL    HW231838   0.609   9.275  10.885 -0.1728 -0.5944  0.0491
 4616SOL     OW31839  11.775   8.931   1.110 -0.0780 -0.5232 -0.3977
 4616SOL    HW131840  11.844   8.883   1.155 -0.1428 -0.0404  0.2425
 4616SOL    HW231841  11.739   8.869   1.047  0.7443 -0.8712 -0.5443
 4617SOL     OW31842   8.609  10.540  11.370  0.7744  0.4413  0.4381
 4617SOL    HW131843   8.695  10.517  11.405  1.1413 -0.0740 -0.7248
 4617SOL    HW231844   8.628  10.596  11.294  0.2050 -1.2060 -0.9872
 4618SOL     OW31845  12.162  14.027  13.806  0.0056  0.5151  0.1486
 4618SOL    HW131846  12.073  13.994  13.811  0.6815 -1.4045  0.1845
 4618SOL    HW231847  12.216  13.958  13.846  1.6663  0.9397 -1.2531
 4619SOL     OW31848  10.286   9.240   7.116 -0.5785  0.9609  0.7157
 4619SOL    HW131849  10.317   9.296   7.187 -1.4897  1.3526  0.8199
 4619SOL    HW231850  10.190   9.249   7.118 -0.5815  2.8286 -1.9776
 4620SOL     OW31851  10.245   3.766   9.141  0.8016 -0.1627 -0.1667
 4620SOL    HW131852  10.236   3.856   9.111 -0.3517 -0.4813 -0.8718
 4620SOL    HW231853  10.190   3.715   9.080  0.7250 -1.2178  0.7464
 4621SOL     OW31854   1.003   0.060   2.856  0.6881  0.5225  0.5001
 4621SOL    HW131855   1.074   0.001   2.829 -0.1510 -0.6233  0.7067
 4621SOL    HW231856   0.965   0.091   2.774  1.2122  0.8831  0.3884
 4622SOL     OW31857   2.325  11.895   5.344 -0.7502  0.3303 -0.2025
 4622SOL    HW131858   2.297  11.946   5.420  0.3134  0.4826  0.0905
 4622SOL    HW231859   2.261  11.824   5.338 -0.4671 -0.0689  1.2312
 4623SOL     OW31860  11.344  10.006   1.224 -0.0092  0.0737 -0.1561
 4623SOL    HW131861  11.430  10.028   1.190  0.0783 -0.8901 -0.6060
 4623SOL    HW231862  11.318  10.081   1.277  0.6100  0.8454 -0.9397
 4624SOL     OW31863   0.920  10.172   3.320  0.5499  0.4541  0.0027
 4624SOL    HW131864   0.914  10.095   3.264  0.3590  0.1890  0.3887
 4624SOL    HW231865   0.861  10.236   3.279  1.8817  0.9669 -1.2104
 4625SOL     OW31866   5.239  12.309  13.539 -0.0078  0.2573 -1.0464
 4625SOL    HW131867   5.205  12.232  13.493  0.1360 -0.8902  0.6914
 4625SOL    HW231868   5.333  12.293  13.546 -0.5015 -2.3987  4.2647
 4626SOL     OW31869   4.946   4.405   8.490  0.0006  0.3696 -0.6547
 4626SOL    HW131870   4.875   4.342   8.478  0.0917  0.1031  0.1170
 4626SOL    HW231871   5.003   4.365   8.556  1.0365  0.4405 -1.4873
 4627SOL     OW31872  12.413   5.793   1.011  0.1778 -0.2109 -0.1381
 4627SOL    HW131873  12.451   5.706   0.995  2.3351  0.1129  2.4997
 4627SOL    HW231874  12.484   5.843   1.050 -1.5208  2.2386  0.0400
 4628SOL     OW31875   4.905  11.528   6.276 -0.6332 -0.1658  0.1676
 4628SOL    HW131876   4.908  11.496   6.366 -2.0978  1.8113  0.9854
 4628SOL    HW231877   4.869  11.455   6.226  0.9723 -1.5943  0.9610
 4629SOL     OW31878   5.505   5.946  11.394 -0.1034 -0.3517  0.2109
 4629SOL    HW131879   5.453   5.923  11.318 -0.1590 -1.3875  0.5500
 4629SOL    HW231880   5.443   5.946  11.467 -0.0286  0.5047  0.2865
 4630SOL     OW31881   7.321   7.271  12.903  0.0036  0.2379  0.1591
 4630SOL    HW131882   7.390   7.234  12.958 -1.4618 -1.9138  0.6675
 4630SOL    HW231883   7.289   7.197  12.852 -0.2297  1.7221 -1.9787
 4631SOL     OW31884  11.161   5.866   0.446 -0.0486 -0.5896  0.6077
 4631SOL    HW131885  11.160   5.824   0.532 -0.5833 -0.4928  0.6539
 4631SOL    HW231886  11.248   5.904   0.439 -0.4361  0.5423  1.6691
 4632SOL     OW31887   9.765   7.783  13.911  0.0111 -0.5206 -0.1968
 4632SOL    HW131888   9.796   7.740  13.991 -0.6397 -1.1393 -0.2644
 4632SOL    HW231889   9.844   7.797  13.859  0.4842  0.1707  0.6823
 4633SOL     OW31890   9.391   0.796   5.766 -0.3326  0.0564  0.4600
 4633SOL    HW131891   9.463   0.849   5.799 -1.6021  2.1425  0.0784
 4633SOL    HW231892   9.331   0.787   5.841 -0.5856 -0.0270  0.2485
 4634SOL     OW31893  12.561  12.745   1.163 -0.4115  0.2103  0.0632
 4634SOL    HW131894  12.650  12.739   1.129  0.3616  1.2611  1.7580
 4634SOL    HW231895  12.533  12.834   1.140 -0.4462  0.3978  0.8063
 4635SOL     OW31896   4.654  11.936   7.969  0.4936 -0.4346 -0.3328
 4635SOL    HW131897   4.694  11.968   8.050  1.4835  0.6516 -1.2313
 4635SOL    HW231898   4.648  12.013   7.912  1.2586 -1.4665 -1.8722
 4636SOL     OW31899   9.096  13.986   4.693  0.4860 -0.4007 -0.3212
 4636SOL    HW131900   9.056  14.038   4.623  0.4213 -0.6376 -0.4618
 4636SOL    HW231901   9.190  13.992   4.676  0.4182 -2.0236 -1.5870
 4637SOL     OW31902  12.775  12.283   2.232  0.1374  0.0233 -0.0068
 4637SOL    HW131903  12.785  12.370   2.271 -1.6812  0.3784 -0.2504
 4637SOL    HW231904  12.854  12.236   2.258  1.5570  1.9913 -0.5692
 4638SOL     OW31905   8.533   3.894   2.151  0.5617 -0.5431  0.0773
 4638SOL    HW131906   8.619   3.863   2.176  0.7872 -0.4193 -0.5217
 4638SOL    HW231907   8.550   3.960   2.083  0.1090  0.9935  1.3914
 4639SOL     OW31908   9.729   3.537  13.076  0.5805  0.0716  0.4712
 4639SOL    HW131909   9.652   3.533  13.133  0.0064  0.0101 -0.2962
 4639SOL    HW231910   9.712   3.473  13.007 -0.0866  2.1088 -1.3935
 4640SOL     OW31911   7.098   0.694  12.466 -0.6315 -0.4187  0.0196
 4640SOL    HW131912   7.069   0.705  12.556  1.7177 -1.5422  1.0184
 4640SOL    HW231913   7.153   0.770  12.449  0.6993 -1.2625  0.3709
 4641SOL     OW31914   0.648  11.119   2.556 -0.5497 -0.6938 -0.4644
 4641SOL    HW131915   0.608  11.163   2.630  1.0127  0.4867 -0.2727
 4641SOL    HW231916   0.633  11.178   2.482  0.6196 -0.3270 -0.4250
 4642SOL     OW31917  13.246  12.923   1.956 -0.7870  0.0692 -0.5540
 4642SOL    HW131918  13.214  12.834   1.939 -0.1113 -0.4259  0.6249
 4642SOL    HW231919  13.337  12.922   1.926 -0.1709 -0.2567  1.1637
 4643SOL     OW31920   1.427   8.006   3.478 -0.3950 -0.2201  0.4576
 4643SOL    HW131921   1.429   7.916   3.511 -0.4569 -0.1578  0.6274
 4643SOL    HW231922   1.496   8.008   3.412  0.6967  0.0441  1.5721
 4644SOL     OW31923   6.830  13.806   4.425 -0.3048 -0.4909 -0.1116
 4644SOL    HW131924   6.783  13.860   4.362  0.9909  0.5617 -0.2203
 4644SOL    HW231925   6.778  13.812   4.505 -0.2779  0.8376 -0.1645
 4645SOL     OW31926   6.987   5.630   5.165 -0.3883 -0.5569 -0.1152
 4645SOL    HW131927   6.956   5.619   5.255 -1.5997  0.2124 -0.4073
 4645SOL    HW231928   6.952   5.715   5.138  0.0295 -0.7308 -1.2848
 4646SOL     OW31929  11.080  11.090   8.219  0.1851 -0.0256 -0.1526
 4646SOL    HW131930  11.092  11.017   8.280 -0.1577 -0.7227 -0.8928
 4646SOL    HW231931  10.992  11.123   8.239  0.4820  0.4279  0.4272
 4647SOL     OW31932   4.772  12.013   2.192 -0.2891  0.2919 -1.2504
 4647SOL    HW131933   4.732  12.073   2.254 -1.7243  1.3845 -3.1206
 4647SOL    HW231934   4.706  12.001   2.124  0.4238 -2.4557 -1.5930
 4648SOL     OW31935   6.708   0.436   0.649  0.4470  0.3234 -0.5164
 4648SOL    HW131936   6.640   0.500   0.671  1.2499  0.4557  1.7777
 4648SOL    HW231937   6.664   0.351   0.655  0.6654  0.3252  2.0666
 4649SOL     OW31938  13.616  13.819   4.958 -0.1898  0.3560  0.1756
 4649SOL    HW131939  13.694  13.845   4.909  0.6444 -0.4796  1.0208
 4649SOL    HW231940  13.571  13.901   4.978  2.2116  1.2107  2.5273
 4650SOL     OW31941   7.296   7.859   8.873  0.1689 -0.1917 -0.2862
 4650SOL    HW131942   7.383   7.857   8.912 -0.5242 -1.6121  1.3390
 4650SOL    HW231943   7.311   7.843   8.780  1.6036 -1.2125  0.0820
 4651SOL     OW31944   3.155   8.214   3.479  0.0943  0.7235  0.9269
 4651SOL    HW131945   3.244   8.180   3.483  0.0793  0.2629 -1.3231
 4651SOL    HW231946   3.103   8.152   3.531  1.1096  1.3141  2.7441
 4652SOL     OW31947   3.927  10.159  11.835  0.3523  0.5592 -0.3776
 4652SOL    HW131948   3.908  10.224  11.903 -0.8485 -0.4969  0.3312
 4652SOL    HW231949   3.975  10.089  11.880  0.8769  0.5339 -0.9515
 4653SOL     OW31950  12.297   0.156   6.928  0.5115  0.2378 -0.3870
 4653SOL    HW131951  12.384   0.172   6.892  1.3217  3.1977  2.4334
 4653SOL    HW231952  12.257   0.243   6.934 -2.1414 -0.8933 -0.3207
 4654SOL     OW31953  10.226   5.737   4.760  0.2007  0.2947  0.0914
 4654SOL    HW131954  10.275   5.678   4.818  0.7503  0.1989 -0.4567
 4654SOL    HW231955  10.278   5.817   4.759  0.8041 -0.0906 -1.1469
 4655SOL     OW31956   8.906   9.338  11.088  0.2072 -0.5822  0.0465
 4655SOL    HW131957   9.000   9.342  11.107  0.1888 -1.0078  0.2548
 4655SOL    HW231958   8.867   9.304  11.169  0.0899 -2.1001 -0.6160
 4656SOL     OW31959   2.526  12.845  13.713  0.2745  0.1222 -0.0525
 4656SOL    HW131960   2.554  12.915  13.771 -0.1893  1.3444 -1.2685
 4656SOL    HW231961   2.431  12.851  13.711  0.2094 -0.6786 -0.0243
 4657SOL     OW31962   7.071   8.218   1.902  0.4437 -0.3996 -0.0615
 4657SOL    HW131963   7.083   8.139   1.956  2.5036 -0.0840  0.0292
 4657SOL    HW231964   7.128   8.283   1.942  0.6120  0.4040 -1.5402
 4658SOL     OW31965   9.935  10.037  13.083 -0.1106 -0.0540  0.5732
 4658SOL    HW131966   9.912  10.115  13.133  0.4561 -0.5534  1.6592
 4658SOL    HW231967  10.017  10.059  13.039 -0.4787  0.3012  0.0627
 4659SOL     OW31968  10.700   6.286   5.354 -0.3942  0.1371 -0.3923
 4659SOL    HW131969  10.616   6.333   5.358 -0.4397  0.0186  0.1352
 4659SOL    HW231970  10.677   6.196   5.376 -0.0589  0.1970  0.2163
 4660SOL     OW31971   0.794  13.359   9.275 -0.2785  0.3195 -0.0476
 4660SOL    HW131972   0.801  13.450   9.245  2.8567 -0.1210 -1.0310
 4660SOL    HW231973   0.790  13.307   9.195  1.4826 -0.5355  0.3655
 4661SOL     OW31974  12.683  11.923   7.681  0.3567  0.3218 -0.2285
 4661SOL    HW131975  12.622  11.860   7.719  1.0024  0.6299  1.4403
 4661SOL    HW231976  12.710  11.977   7.755  1.1472  1.4447 -1.2992
 4662SOL     OW31977   6.468   8.558   6.796 -0.2931 -0.0295 -0.5324
 4662SOL    HW131978   6.446   8.650   6.780  0.6924  0.1065 -1.2321
 4662SOL    HW231979   6.563   8.557   6.804 -0.3273 -0.9377 -0.1250
 4663SOL     OW31980   0.645   4.037   5.538 -0.5646 -0.2860  0.5987
 4663SOL    HW131981   0.725   3.984   5.538 -0.4876 -0.1755  0.2226
 4663SOL    HW231982   0.597   4.007   5.460  0.3820  1.5402 -0.7692
 4664SOL     OW31983  11.284   7.460   6.821  0.7321 -0.7342  0.9420
 4664SOL    HW131984  11.212   7.412   6.862 -0.5212  1.7436  1.9057
 4664SOL    HW231985  11.354   7.459   6.886  0.2495 -0.2738  1.4872
 4665SOL     OW31986  10.321   0.003   0.206  0.0665 -0.3519 -0.0070
 4665SOL    HW131987  10.390   0.025   0.269 -0.2074 -0.2796  0.2719
 4665SOL    HW231988  10.277  -0.073   0.244 -1.3958  0.9039  0.9282
 4666SOL     OW31989  12.258   5.205  12.184 -0.2805 -0.4883  0.7177
 4666SOL    HW131990  12.316   5.143  12.227 -0.9826 -1.2538  0.5935
 4666SOL    HW231991  12.298   5.221  12.099  0.2532 -0.2392  1.0092
 4667SOL     OW31992  13.604  12.511   3.293 -0.0179 -0.2530  0.4442
 4667SOL    HW131993  13.526  12.487   3.344  0.1714 -0.1939  0.7684
 4667SOL    HW231994  13.621  12.602   3.316  0.0908 -0.2370  0.3018
 4668SOL     OW31995   2.724  12.389   7.057  0.3458 -0.5881 -0.0155
 4668SOL    HW131996   2.647  12.377   7.002  0.2982 -3.1218  0.4555
 4668SOL    HW231997   2.795  12.405   6.996 -0.3857  1.0535 -0.4982
 4669SOL     OW31998  13.697   1.086  13.192 -0.3876  0.4925  0.2583
 4669SOL    HW131999  13.714   1.180  13.188  0.6077  0.2688 -1.4910
 4669SOL    HW232000  13.762   1.052  13.253  0.8425  0.6359 -0.9363
 4670SOL     OW32001   2.234  12.043   2.022 -0.4987 -0.4301  0.3401
 4670SOL    HW132002   2.188  12.013   2.100 -0.4808  1.2083  1.0054
 4670SOL    HW232003   2.165  12.078   1.965 -0.2128  1.5625  1.1262
 4671SOL     OW32004   5.904  13.630  10.720 -0.8466 -0.1076 -0.0756
 4671SOL    HW132005   5.841  13.623  10.791  0.2244 -1.5788  0.7796
 4671SOL    HW232006   5.953  13.548  10.723  1.6428  1.2812 -0.1838
 4672SOL     OW32007   9.442   3.107   4.753 -0.1375  0.3856  0.2165
 4672SOL    HW132008   9.401   3.037   4.804 -0.8221 -0.3783 -1.3101
 4672SOL    HW232009   9.431   3.080   4.662 -0.3438  2.4424 -0.4269
 4673SOL     OW32010  11.104   0.190   4.301 -0.1595  0.0855 -0.1827
 4673SOL    HW132011  11.041   0.261   4.305 -0.2561 -0.0459  0.8431
 4673SOL    HW232012  11.148   0.191   4.386  0.4953 -0.4841 -0.4964
 4674SOL     OW32013   1.356   8.523  10.290  0.0794 -0.0282 -0.0262
 4674SOL    HW132014   1.264   8.504  10.309 -0.6679  2.0821 -1.1439
 4674SOL    HW232015   1.367   8.615  10.317  1.6667 -0.0201 -0.5918
 4675SOL     OW32016   4.557  12.310   6.820 -0.3594 -0.9164  0.3265
 4675SOL    HW132017   4.547  12.352   6.906  0.2879  1.0255 -0.4941
 4675SOL    HW232018   4.467  12.294   6.791 -0.5925 -2.8971  1.9073
 4676SOL     OW32019  12.118   7.382   7.980 -0.1496  0.2882 -0.4264
 4676SOL    HW132020  12.163   7.382   7.896 -0.7605  0.2541 -0.7573
 4676SOL    HW232021  12.081   7.294   7.988 -0.6064  0.4775 -0.4039
 4677SOL     OW32022  12.099   3.924   5.196 -0.6908 -0.4376  0.0024
 4677SOL    HW132023  12.135   3.995   5.249 -1.6237  2.2533 -2.6701
 4677SOL    HW232024  12.051   3.870   5.258  0.0742  1.2443  2.1950
 4678SOL     OW32025   5.713   5.683  13.767 -0.0805 -0.4903 -0.4783
 4678SOL    HW132026   5.640   5.723  13.814  0.0525 -0.5105 -0.2530
 4678SOL    HW232027   5.788   5.691  13.826 -0.5384 -3.1379  0.5972
 4679SOL     OW32028   2.794  11.483   5.480  0.1288 -0.2365  0.7127
 4679SOL    HW132029   2.723  11.444   5.532 -0.7644  0.8020  0.3150
 4679SOL    HW232030   2.749  11.546   5.423  1.1401 -0.8842 -0.8739
 4680SOL     OW32031   6.634  11.090   0.368 -0.3185 -1.0215  0.4127
 4680SOL    HW132032   6.724  11.119   0.355 -0.5069 -0.6078  0.0078
 4680SOL    HW232033   6.631  11.059   0.459  0.3022 -1.3177  0.3358
 4681SOL     OW32034  12.647  11.279   7.216 -0.1147  0.4019  0.2380
 4681SOL    HW132035  12.690  11.345   7.270  1.4587 -0.3886 -0.0071
 4681SOL    HW232036  12.711  11.257   7.148 -0.2459 -1.9394  0.7870
 4682SOL     OW32037   5.507   7.978   3.149  0.3182  0.5983 -0.2823
 4682SOL    HW132038   5.428   7.933   3.117  0.8903  0.0386 -0.9247
 4682SOL    HW232039   5.508   8.061   3.103  1.3957 -0.3962 -2.1333
 4683SOL     OW32040   3.731   7.303  10.833 -0.1105  0.0714 -0.6236
 4683SOL    HW132041   3.778   7.368  10.886 -0.2752 -0.4824  0.2318
 4683SOL    HW232042   3.644   7.297  10.874 -0.6864  0.5430 -1.7346
 4684SOL     OW32043  12.277   2.827  11.300  0.0202  0.4730  0.2136
 4684SOL    HW132044  12.233   2.754  11.258 -1.9281  0.4187  2.1990
 4684SOL    HW232045  12.334   2.864  11.231 -1.2541 -0.9907 -1.7110
 4685SOL     OW32046  13.184  11.178  11.597  0.3962  0.1264  0.0528
 4685SOL    HW132047  13.105  11.143  11.555  0.0996  0.7246  0.0935
 4685SOL    HW232048  13.178  11.273  11.582  2.4399 -0.0227 -2.2250
 4686SOL     OW32049  12.244  10.808   1.740 -0.2270 -0.2815  0.3128
 4686SOL    HW132050  12.262  10.715   1.727  0.6929 -0.0355 -0.3085
 4686SOL    HW232051  12.205  10.837   1.658 -1.9062 -0.4209  1.0353
 4687SOL     OW32052  10.765   6.505   7.674 -0.8845 -0.3865  0.5820
 4687SOL    HW132053  10.823   6.437   7.639 -1.3241 -0.8907  0.8254
 4687SOL    HW232054  10.766   6.491   7.769 -0.0779  0.6724  0.7560
 4688SOL     OW32055  11.399   3.674   8.044 -0.0203 -0.3181 -0.0114
 4688SOL    HW132056  11.351   3.617   8.104  2.3828 -2.5418 -0.0088
 4688SOL    HW232057  11.396   3.628   7.960  0.4524  0.4821 -0.4789
 4689SOL     OW32058   9.204  13.742  13.657 -0.3739 -0.1930  0.4967
 4689SOL    HW132059   9.291  13.782  13.657 -0.2980 -0.3414 -0.7318
 4689SOL    HW232060   9.192  13.709  13.568 -1.6148 -0.3498  0.7057
 4690SOL     OW32061   8.474  12.007  11.671  0.1302 -0.6189 -0.8122
 4690SOL    HW132062   8.429  11.984  11.752  1.1837 -1.9792 -0.5793
 4690SOL    HW232063   8.524  12.085  11.692  2.1918 -2.2106  0.5874
 4691SOL     OW32064   1.922   1.774  14.032  0.1388  0.1289 -0.7193
 4691SOL    HW132065   1.846   1.773  14.090  0.8722  0.8304  0.3002
 4691SOL    HW232066   1.980   1.841  14.070  1.7991 -1.2116 -0.7465
 4692SOL     OW32067  11.549   0.385  13.249 -0.1365 -0.2256 -0.3485
 4692SOL    HW132068  11.549   0.294  13.280  1.9103 -0.3738 -0.6551
 4692SOL    HW232069  11.482   0.387  13.181  0.0919 -1.6171 -0.6399
 4693SOL     OW32070  13.342  11.726   6.137  0.5764 -0.0099 -0.1952
 4693SOL    HW132071  13.336  11.800   6.198  2.0086  0.7337 -0.9053
 4693SOL    HW232072  13.319  11.650   6.190  2.6324  0.4898  1.5822
 4694SOL     OW32073  11.529   0.220   0.273 -0.6484 -0.2965  0.4515
 4694SOL    HW132074  11.501   0.128   0.280 -2.9750  0.2456 -0.8277
 4694SOL    HW232075  11.475   0.266   0.337 -0.0983  0.3272  0.4709
 4695SOL     OW32076   6.032  13.584  13.077 -0.5021 -0.3751  0.1062
 4695SOL    HW132077   6.105  13.543  13.123  1.4229  0.9719 -1.5645
 4695SOL    HW232078   6.072  13.622  12.999 -2.3036  3.3924  0.7979
 4696SOL     OW32079   4.827   3.570   7.213  0.4893 -0.3112  0.6589
 4696SOL    HW132080   4.839   3.475   7.216  1.0219 -0.2304  1.5832
 4696SOL    HW232081   4.911   3.603   7.181 -0.4702 -0.2532 -2.1191
 4697SOL     OW32082   2.337  10.372  10.860 -0.4423 -0.1502 -0.4885
 4697SOL    HW132083   2.242  10.357  10.862 -1.0835  3.1771 -0.8030
 4697SOL    HW232084   2.351  10.447  10.918  2.1490 -0.9956  0.1196
 4698SOL     OW32085  13.198   7.541   9.284 -0.3707 -0.0856 -0.0372
 4698SOL    HW132086  13.235   7.601   9.349 -0.9786  0.6732 -0.3783
 4698SOL    HW232087  13.229   7.575   9.200 -3.7521  2.0854 -0.5663
 4699SOL     OW32088   1.471   6.846  12.420  0.1759  0.2486 -0.0956
 4699SOL    HW132089   1.522   6.796  12.484 -2.1669 -2.0663  0.0798
 4699SOL    HW232090   1.495   6.809  12.336  1.1280  1.3770 -0.3542
 4700SOL     OW32091   8.017  11.095   8.920 -0.5055  0.2906  0.7527
 4700SOL    HW132092   7.994  11.090   8.828 -0.1710 -0.0307  0.6794
 4700SOL    HW232093   8.063  11.178   8.929 -0.2440  0.1726  0.5545
 4701SOL     OW32094   3.310   3.338   9.636 -0.7140 -0.2208  0.1331
 4701SOL    HW132095   3.249   3.339   9.562 -2.7669  0.9789  1.7213
 4701SOL    HW232096   3.266   3.283   9.702  0.2435  0.1286  1.0829
 4702SOL     OW32097   7.044  10.963   0.934  0.5368 -0.1230 -0.2460
 4702SOL    HW132098   7.039  11.040   0.991  2.7156  1.0234 -1.4854
 4702SOL    HW232099   7.075  10.893   0.992  0.4119  0.4030  0.4752
 4703SOL     OW32100   6.912   6.787  10.351 -0.0419 -0.0949  0.8114
 4703SOL    HW132101   6.956   6.712  10.392  1.1971  1.0802  1.7023
 4703SOL    HW232102   6.984   6.842  10.319 -0.9535  0.0722 -1.0550
 4704SOL     OW32103  11.175   7.210   7.555  0.2771 -0.3175  0.7072
 4704SOL    HW132104  11.149   7.302   7.558  1.5858  0.1960 -1.4195
 4704SOL    HW232105  11.104   7.167   7.508 -0.5290 -0.5242  2.0491
 4705SOL     OW32106  13.837  14.152   6.863  0.5249  0.2878 -0.3121
 4705SOL    HW132107  13.765  14.098   6.895  1.3062 -0.0579  0.9239
 4705SOL    HW232108  13.916  14.103   6.886  1.1748  0.8171 -1.3407
 4706SOL     OW32109   6.358   7.565   3.025 -0.3104 -0.1081  1.0849
 4706SOL    HW132110   6.360   7.576   3.120 -1.1566  0.6067  1.0310
 4706SOL    HW232111   6.323   7.477   3.011  0.5905 -0.5415  1.4299
 4707SOL     OW32112  10.219   1.035   9.717 -0.6954 -0.1291 -0.0497
 4707SOL    HW132113  10.184   1.120   9.691 -2.7946 -0.8284  0.2607
 4707SOL    HW232114  10.230   0.987   9.635  0.6866  0.4760 -0.2426
 4708SOL     OW32115   2.110   3.127   1.701  0.1513 -0.6397  0.1134
 4708SOL    HW132116   2.111   3.175   1.784  0.5175 -1.1324  0.3955
 4708SOL    HW232117   2.129   3.194   1.634  0.6158 -0.3852  0.4961
 4709SOL     OW32118   0.340   0.739   0.296 -0.1423  0.0649  0.0699
 4709SOL    HW132119   0.404   0.700   0.237  0.3212 -1.0802  1.2865
 4709SOL    HW232120   0.391   0.767   0.372 -0.7564  1.3197  0.0406
 4710SOL     OW32121   8.308  11.129   8.784 -0.0360  0.6510 -0.1299
 4710SOL    HW132122   8.390  11.090   8.754  0.3861  1.2899  0.1690
 4710SOL    HW232123   8.252  11.054   8.805  0.6786  0.2063  0.2210
 4711SOL     OW32124   4.488   9.061   2.151 -0.0052 -0.6311  0.8086
 4711SOL    HW132125   4.465   9.133   2.092 -0.1106 -0.4933  1.0170
 4711SOL    HW232126   4.568   9.023   2.114  0.1630 -0.2785  0.8115
 4712SOL     OW32127   1.813   3.722   9.264 -0.3123  0.0479 -0.5203
 4712SOL    HW132128   1.853   3.663   9.200  3.2414  0.9960  0.5823
 4712SOL    HW232129   1.842   3.689   9.349 -1.3170  1.2860  0.3505
 4713SOL     OW32130   2.013   1.661   8.556  0.0810  0.0795  0.3847
 4713SOL    HW132131   1.988   1.694   8.470  2.5370  0.1958 -0.3744
 4713SOL    HW232132   2.010   1.737   8.614  1.9249  0.8749 -0.4787
 4714SOL     OW32133  13.264   0.168   2.463  0.1086  0.0674 -0.4040
 4714SOL    HW132134  13.196   0.103   2.451  0.6515 -0.5415 -0.2701
 4714SOL    HW232135  13.290   0.193   2.375  0.1635 -0.1812 -0.4580
 4715SOL     OW32136   8.716   7.494  10.735  0.0384 -0.1764 -0.1005
 4715SOL    HW132137   8.708   7.483  10.641 -0.3525  1.1503 -0.2376
 4715SOL    HW232138   8.797   7.448  10.758 -0.6168 -1.7600 -0.8349
 4716SOL     OW32139   9.201   6.167   7.943 -0.1227  0.3965  0.4905
 4716SOL    HW132140   9.208   6.234   7.875 -0.6254 -1.1962 -1.1933
 4716SOL    HW232141   9.109   6.140   7.942  0.1178 -0.4880  0.9798
 4717SOL     OW32142  12.598   4.555  11.638  0.3560  0.3147  0.0205
 4717SOL    HW132143  12.599   4.485  11.573 -0.9323 -0.6914  1.0292
 4717SOL    HW232144  12.655   4.622  11.602  0.6406 -0.7302 -1.5615
 4718SOL     OW32145   2.914   6.658   5.260  0.3313  0.1304 -0.1986
 4718SOL    HW132146   2.952   6.633   5.344  0.0227  0.5964  0.0836
 4718SOL    HW232147   2.977   6.628   5.195  1.2409  1.0050  0.2702
 4719SOL     OW32148   3.626   7.915  13.974 -0.0405  0.2358  0.3089
 4719SOL    HW132149   3.665   8.000  13.955 -0.3270  1.9514  5.7196
 4719SOL    HW232150   3.696   7.864  14.015 -1.0800 -0.2325  1.5659
 4720SOL     OW32151  11.661   7.571   4.316 -0.1591 -0.2500 -0.0810
 4720SOL    HW132152  11.706   7.647   4.278 -0.1616 -1.5318 -2.9090
 4720SOL    HW232153  11.721   7.540   4.384  0.3669  1.5940  0.3564
 4721SOL     OW32154   2.985   2.189   9.357 -0.0582  0.6636  0.0130
 4721SOL    HW132155   2.898   2.153   9.371 -0.3119  1.4381  0.4818
 4721SOL    HW232156   3.020   2.140   9.282 -0.7721  0.1407  0.0184
 4722SOL     OW32157   6.217   2.266  13.430  0.2431 -0.1603 -0.3798
 4722SOL    HW132158   6.152   2.293  13.365 -0.4685 -1.5945 -0.3072
 4722SOL    HW232159   6.178   2.189  13.471  2.0496 -1.1179 -0.3978
 4723SOL     OW32160   6.396   0.151   1.748 -0.2893 -0.3705  0.0805
 4723SOL    HW132161   6.417   0.095   1.674  0.8168  1.5072 -1.0955
 4723SOL    HW232162   6.477   0.155   1.799 -0.0030  0.9412 -0.4257
 4724SOL     OW32163   1.645   0.935   7.683  0.1932  0.3638  0.3375
 4724SOL    HW132164   1.662   0.987   7.761 -0.2417 -0.8328  1.2575
 4724SOL    HW232165   1.679   0.848   7.704  0.1568  0.0427 -0.8460
 4725SOL     OW32166   8.503   5.950   3.795 -0.2911  0.3101 -0.4969
 4725SOL    HW132167   8.534   6.033   3.756 -0.9467  0.2266 -1.2300
 4725SOL    HW232168   8.575   5.888   3.779 -0.1622  0.5171 -0.7359
 4726SOL     OW32169  11.475   5.986   5.809  0.0470 -0.1114 -0.6020
 4726SOL    HW132170  11.387   5.952   5.795 -0.0832 -0.0822  0.1083
 4726SOL    HW232171  11.480   6.003   5.903  1.2642 -1.4106 -0.3938
 4727SOL     OW32172   2.097  13.611   2.241  0.1370 -0.0747  0.6759
 4727SOL    HW132173   2.009  13.573   2.237  0.0048  0.2987 -0.2805
 4727SOL    HW232174   2.156  13.536   2.235 -0.1164 -0.2687  0.5889
 4728SOL     OW32175   0.992   8.312  13.707 -0.4313 -0.8800  0.1533
 4728SOL    HW132176   1.022   8.232  13.750 -3.7865 -1.9682  0.7982
 4728SOL    HW232177   0.899   8.317  13.728 -0.8392  2.0420 -1.7333
 4729SOL     OW32178   1.279   9.908  11.236 -0.6470 -0.2643 -0.0719
 4729SOL    HW132179   1.209   9.903  11.171 -0.5956 -0.3635 -0.1210
 4729SOL    HW232180   1.263   9.989  11.283 -1.5521 -0.9030  0.7733
 4730SOL     OW32181  11.960   5.657   0.407 -0.1273  0.6798  0.5092
 4730SOL    HW132182  12.030   5.709   0.447 -0.4342  1.5402 -0.0560
 4730SOL    HW232183  11.989   5.642   0.317 -0.5566  0.8327  0.3417
 4731SOL     OW32184   2.585  11.679  12.260 -0.5424 -0.4073  0.8482
 4731SOL    HW132185   2.679  11.690  12.274 -0.6978  1.2893  0.7395
 4731SOL    HW232186   2.550  11.662  12.348 -0.4244  1.5058  1.2998
 4732SOL     OW32187   1.079   9.271   3.041  0.1888 -0.3923  0.3236
 4732SOL    HW132188   1.055   9.324   3.116 -2.0013 -1.0289  0.1505
 4732SOL    HW232189   1.001   9.217   3.024  1.6041 -2.2318 -0.7024
 4733SOL     OW32190  13.014   7.944   0.360 -0.4431 -0.0655 -1.0385
 4733SOL    HW132191  13.091   7.888   0.350 -0.8444 -1.0601  0.8211
 4733SOL    HW232192  13.007   7.991   0.278  1.4179 -0.8791 -1.7140
 4734SOL     OW32193  11.710   8.445  13.830  0.2762 -0.2963  0.1099
 4734SOL    HW132194  11.730   8.374  13.769 -1.9322  0.2171 -1.2814
 4734SOL    HW232195  11.662   8.402  13.901 -0.7212 -0.2656 -0.5404
 4735SOL     OW32196   8.164   8.630   4.598 -0.3995  0.0349 -0.2887
 4735SOL    HW132197   8.086   8.587   4.564 -0.6601  0.1787  0.1232
 4735SOL    HW232198   8.233   8.606   4.536 -1.0258  0.9657 -1.3916
 4736SOL     OW32199   1.392   5.712   0.108 -0.7213 -0.0535  0.0362
 4736SOL    HW132200   1.347   5.774   0.165  0.1198 -0.3400  1.0569
 4736SOL    HW232201   1.478   5.752   0.094 -0.5806 -0.4537 -0.2442
 4737SOL     OW32202   1.810   9.083   0.022  0.3543  0.3249  0.0060
 4737SOL    HW132203   1.815   9.170  -0.019  1.2451  0.5969  0.6462
 4737SOL    HW232204   1.824   9.022  -0.051 -0.6582  0.6890 -0.5134
 4738SOL     OW32205   7.595  11.948   7.960 -0.5351  0.1571 -0.4656
 4738SOL    HW132206   7.654  11.886   7.917 -0.9284 -0.3027 -0.3498
 4738SOL    HW232207   7.578  12.015   7.894 -0.6474 -0.2222 -0.8260
 4739SOL     OW32208  11.632  10.735   0.174 -1.3334  0.1172  0.6497
 4739SOL    HW132209  11.592  10.803   0.121  0.4412  0.9079  0.2371
 4739SOL    HW232210  11.719  10.770   0.196 -0.6358 -1.7221  1.0045
 4740SOL     OW32211   6.167   4.022   6.005  0.0754  0.2981  0.2978
 4740SOL    HW132212   6.085   3.976   5.985  1.6067 -1.6651 -2.1073
 4740SOL    HW232213   6.230   3.987   5.942  3.0217  1.0632  2.5852
 4741SOL     OW32214   1.172   5.911  10.004  0.0515 -0.5505 -0.0321
 4741SOL    HW132215   1.148   5.854   9.931 -0.2897  0.9655 -1.1675
 4741SOL    HW232216   1.090   5.955  10.028  0.5913  0.6306 -0.2687
 4742SOL     OW32217   2.818  12.704  12.448 -0.2468 -0.3892  0.5666
 4742SOL    HW132218   2.769  12.645  12.505 -0.1780  0.0082  1.0440
 4742SOL    HW232219   2.896  12.654  12.423 -0.1622 -0.4835  1.0101
 4743SOL     OW32220   7.381  12.918  13.623  0.2710 -0.0702 -0.2675
 4743SOL    HW132221   7.344  12.997  13.663 -1.0566 -0.5086 -0.5826
 4743SOL    HW232222   7.333  12.846  13.664  1.0040 -0.6881 -0.4679
 4744SOL     OW32223   4.592   6.323   3.207  0.0920 -0.6305  0.4379
 4744SOL    HW132224   4.653   6.304   3.135 -1.6877  0.8313 -1.6013
 4744SOL    HW232225   4.617   6.411   3.237 -0.3329 -0.4718  0.3282
 4745SOL     OW32226   2.376   4.110   7.858 -0.4785  0.5311 -0.8572
 4745SOL    HW132227   2.451   4.085   7.804 -0.5835  0.4034 -0.9443
 4745SOL    HW232228   2.411   4.112   7.948 -1.4140 -4.5901 -0.0459
 4746SOL     OW32229   2.478   8.257  10.893  0.3529  0.3788 -0.2078
 4746SOL    HW132230   2.454   8.349  10.883 -0.1603  0.3533  0.7332
 4746SOL    HW232231   2.554   8.258  10.950  2.8527  0.4683 -3.2509
 4747SOL     OW32232   5.609  12.444   9.618  0.6587  0.3170 -0.5761
 4747SOL    HW132233   5.635  12.365   9.665 -1.2530 -0.4634 -0.7559
 4747SOL    HW232234   5.601  12.416   9.527  0.1712  0.7738 -0.6726
 4748SOL     OW32235   9.733   3.270   3.780 -0.1313 -0.2776  0.3885
 4748SOL    HW132236   9.798   3.233   3.720 -0.0772  2.3320 -1.3507
 4748SOL    HW232237   9.649   3.241   3.747 -0.1606  1.8005 -1.6392
 4749SOL     OW32238   1.276   1.726  12.220  0.3849  0.6027  0.0306
 4749SOL    HW132239   1.245   1.681  12.298  2.3048  1.4342  1.3698
 4749SOL    HW232240   1.282   1.818  12.246  2.8419  0.6403 -0.4232
 4750SOL     OW32241   7.235  10.067   6.204  0.5717  0.2141  0.0293
 4750SOL    HW132242   7.171   9.998   6.223 -0.3875  0.9886 -0.3444
 4750SOL    HW232243   7.260  10.101   6.290  1.8863 -1.3029  0.3001
 4751SOL     OW32244   4.171   9.357  13.526  0.0656  0.1100 -0.1676
 4751SOL    HW132245   4.111   9.415  13.573 -2.3406 -1.2486 -1.3630
 4751SOL    HW232246   4.227   9.416  13.477  0.1481  1.4632  1.4679
 4752SOL     OW32247   0.688   1.718   5.096  0.3525  0.5842  0.3697
 4752SOL    HW132248   0.755   1.679   5.151 -0.1460 -0.3389  0.3364
 4752SOL    HW232249   0.718   1.704   5.006  0.1783  0.2815  0.3582
 4753SOL     OW32250  10.673   2.234   4.848 -0.3218 -0.2351 -0.3492
 4753SOL    HW132251  10.614   2.197   4.783  1.1617  0.3711 -2.1498
 4753SOL    HW232252  10.690   2.323   4.817  1.9241 -0.5614 -0.2442
 4754SOL     OW32253   7.796   7.793  10.835  0.1391 -0.4058  0.0173
 4754SOL    HW132254   7.770   7.873  10.880  0.0354 -0.4751  0.0797
 4754SOL    HW232255   7.722   7.771  10.779 -0.2526 -1.0207  0.7539
 4755SOL     OW32256  14.089   8.403   9.659  0.3600 -0.3298 -0.3728
 4755SOL    HW132257  14.126   8.318   9.683 -1.0058 -0.5972  0.9254
 4755SOL    HW232258  14.005   8.382   9.620 -0.0003  0.4283 -0.0218
 4756SOL     OW32259  10.932  13.426   3.006  0.5411 -0.5420  0.4583
 4756SOL    HW132260  10.855  13.482   2.995 -0.0093 -1.0451  1.6103
 4756SOL    HW232261  10.909  13.345   2.961 -0.4043 -1.3994  2.3903
 4757SOL     OW32262  12.714   7.759   4.071  0.3448  0.1061  0.4254
 4757SOL    HW132263  12.751   7.690   4.128  0.4169 -0.1169  0.1118
 4757SOL    HW232264  12.621   7.762   4.095  0.6534  1.0171  1.5721
 4758SOL     OW32265   2.242  12.271  11.832  0.7397  0.3464  0.6249
 4758SOL    HW132266   2.214  12.201  11.892  0.7781  0.3147  0.6049
 4758SOL    HW232267   2.311  12.231  11.779  0.4734  0.2674  0.3301
 4759SOL     OW32268   6.486   0.113   8.642  0.0449 -0.7462 -0.3440
 4759SOL    HW132269   6.390   0.112   8.632 -0.1566  1.2160  0.9549
 4759SOL    HW232270   6.505   0.194   8.687  2.0869 -2.4927  2.2288
 4760SOL     OW32271   4.413   8.075  11.575  0.2476  0.6697  0.3674
 4760SOL    HW132272   4.407   8.038  11.663  5.3404 -0.3181  0.6122
 4760SOL    HW232273   4.374   8.008  11.519  2.8990 -2.0671  1.4830
 4761SOL     OW32274   0.905   8.566   4.560  0.6119 -0.4498  0.3298
 4761SOL    HW132275   0.847   8.590   4.488  1.5500  1.7041  0.2253
 4761SOL    HW232276   0.847   8.535   4.629 -0.2955 -2.7303 -1.3561
 4762SOL     OW32277   2.565   8.471   9.687 -0.5822 -0.7104 -0.2159
 4762SOL    HW132278   2.585   8.527   9.612  0.2261 -2.7607 -1.6303
 4762SOL    HW232279   2.507   8.403   9.652 -4.7267  1.1525  2.2704
 4763SOL     OW32280  10.110   5.667  10.002  0.3731 -0.5790 -0.1251
 4763SOL    HW132281  10.177   5.678   9.934  0.1136 -1.0888 -0.4664
 4763SOL    HW232282  10.091   5.574  10.002 -1.0408 -0.3073 -0.7024
 4764SOL     OW32283   8.856  10.181   6.216  0.2917 -0.0679 -0.2056
 4764SOL    HW132284   8.840  10.266   6.175 -2.5997 -1.2184 -1.7178
 4764SOL    HW232285   8.853  10.118   6.144 -1.1482 -1.8085  1.2764
 4765SOL     OW32286   1.941   2.191  11.748  0.4746  0.9146 -0.2192
 4765SOL    HW132287   1.895   2.200  11.831 -0.9098  0.9933 -0.9663
 4765SOL    HW232288   2.033   2.183  11.773 -0.1021 -1.7307  1.5120
 4766SOL     OW32289   3.909   7.386   8.497  0.1501  0.2289 -0.1140
 4766SOL    HW132290   3.986   7.330   8.489  0.7324  1.0838 -0.6715
 4766SOL    HW232291   3.837   7.325   8.512  0.9000 -0.6004  0.2524
 4767SOL     OW32292   4.943   7.195  12.746  0.1346  0.4719  0.1526
 4767SOL    HW132293   4.860   7.158  12.715  0.2750  0.5324 -0.2969
 4767SOL    HW232294   5.002   7.188  12.672  0.5695  0.3316  0.5063
 4768SOL     OW32295  11.563   8.978  10.120 -0.2620  0.3719 -0.3292
 4768SOL    HW132296  11.497   9.002  10.055  0.5686 -0.6577 -1.6036
 4768SOL    HW232297  11.584   8.887  10.100  2.3821  0.9928 -0.7419
 4769SOL     OW32298   4.924   0.244   8.526  0.0563 -0.2052  0.9721
 4769SOL    HW132299   4.938   0.198   8.609 -1.7222  1.4797  2.2909
 4769SOL    HW232300   5.004   0.296   8.513  0.4462 -0.6709  1.4865
 4770SOL     OW32301   1.324   6.765   7.354 -0.3636 -0.3624  0.3891
 4770SOL    HW132302   1.298   6.774   7.263 -1.1999  0.7665  0.7115
 4770SOL    HW232303   1.262   6.820   7.402  0.2434 -0.7023  1.6044
 4771SOL     OW32304   6.643   9.022  10.779 -0.0183 -0.5389 -0.1002
 4771SOL    HW132305   6.679   8.962  10.713 -1.7978  0.2269 -1.8860
 4771SOL    HW232306   6.639   8.970  10.859  1.9921 -1.5998 -0.6271
 4772SOL     OW32307   5.340   4.344   9.390 -0.0821 -0.1613  0.0354
 4772SOL    HW132308   5.295   4.283   9.447 -0.9091  0.8467  0.4878
 4772SOL    HW232309   5.381   4.407   9.449  0.8808 -0.3342 -0.4178
 4773SOL     OW32310  12.570   9.026   0.085  0.1585 -0.0992  0.2663
 4773SOL    HW132311  12.552   9.102   0.029 -2.1405 -0.9867 -0.3270
 4773SOL    HW232312  12.573   9.061   0.173 -0.6989  0.7293 -0.0163
 4774SOL     OW32313   0.042   7.069   8.570  0.1609 -0.0439  0.4691
 4774SOL    HW132314  -0.003   7.013   8.507  1.0388  0.5982 -0.7615
 4774SOL    HW232315  -0.023   7.136   8.592  0.9487  1.9131 -2.6330
 4775SOL     OW32316   8.118   8.586   1.132 -0.2982  0.3325  0.1766
 4775SOL    HW132317   8.055   8.645   1.090 -0.1462  0.0925 -0.3900
 4775SOL    HW232318   8.170   8.551   1.060  0.6846  0.7527  0.6695
 4776SOL     OW32319   4.091   4.287   8.128  0.8152 -0.2529  0.6542
 4776SOL    HW132320   4.103   4.194   8.148 -1.1263 -0.4003  1.3279
 4776SOL    HW232321   4.133   4.298   8.043  2.0014 -1.4895  1.0260
 4777SOL     OW32322   8.440   4.642   1.889  0.4571  0.1793  0.3715
 4777SOL    HW132323   8.373   4.581   1.920 -1.4125  2.1482  0.4063
 4777SOL    HW232324   8.517   4.587   1.873 -1.6490 -2.4800 -1.3718
 4778SOL     OW32325   1.134  11.968   4.064 -0.8297 -0.1218  0.3217
 4778SOL    HW132326   1.184  11.887   4.057  0.0847  0.4553  0.1380
 4778SOL    HW232327   1.101  11.984   3.976 -0.9236 -0.2268  0.3365
 4779SOL     OW32328   4.862   2.056   4.622  0.3925 -0.0763  0.3915
 4779SOL    HW132329   4.945   2.099   4.603  0.3338  0.6378  1.6834
 4779SOL    HW232330   4.887   1.968   4.652  0.6531 -0.0165  0.3518
 4780SOL     OW32331   9.590  10.381   2.962  0.3358 -0.4449  0.2973
 4780SOL    HW132332   9.577  10.333   3.044  0.5794 -2.0888 -0.5826
 4780SOL    HW232333   9.542  10.463   2.974 -1.2649 -1.4801  1.3571
 4781SOL     OW32334  12.295   6.465  11.053 -0.0621 -0.2298  0.1492
 4781SOL    HW132335  12.207   6.467  11.017 -1.3681 -0.3337  3.0963
 4781SOL    HW232336  12.297   6.387  11.109  1.7262  0.0708  0.5840
 4782SOL     OW32337   4.124  11.981   4.979 -0.0704  0.2074  0.0570
 4782SOL    HW132338   4.042  11.980   4.930 -1.7198 -1.8244  2.5852
 4782SOL    HW232339   4.108  12.038   5.054  0.5490 -0.7359  0.9470
 4783SOL     OW32340  12.476  13.034   8.861  0.0757 -0.7154 -0.0665
 4783SOL    HW132341  12.530  13.113   8.855 -0.3284 -0.5009 -0.9766
 4783SOL    HW232342  12.435  13.025   8.775  0.1255 -1.9321  0.0084
 4784SOL     OW32343  14.153  10.746  11.936 -0.2010 -0.3428  0.1530
 4784SOL    HW132344  14.195  10.679  11.882 -0.1646 -0.2012  0.0071
 4784SOL    HW232345  14.094  10.792  11.877  0.9222  0.7852 -0.1469
 4785SOL     OW32346   9.524   1.115   7.335  0.0473  0.6898 -0.1668
 4785SOL    HW132347   9.457   1.171   7.298  0.1844 -0.6283 -2.6092
 4785SOL    HW232348   9.605   1.142   7.292  0.1380 -1.1803 -1.2801
 4786SOL     OW32349  11.963   2.454   2.284 -0.0457 -0.2008 -0.2963
 4786SOL    HW132350  11.985   2.385   2.346 -1.1990 -0.5583 -0.2629
 4786SOL    HW232351  11.872   2.476   2.304 -0.2210  0.1540 -1.4171
 4787SOL     OW32352   0.390   4.634  10.047  0.0744 -0.6239 -0.2613
 4787SOL    HW132353   0.306   4.675  10.064  0.9053  0.4811  1.5247
 4787SOL    HW232354   0.399   4.568  10.116  0.7939 -0.5250 -0.2493
 4788SOL     OW32355  13.274   2.728   3.873 -0.3616  0.2803 -0.3716
 4788SOL    HW132356  13.231   2.695   3.794  2.3013  2.6310 -3.0127
 4788SOL    HW232357  13.316   2.651   3.911 -0.7537 -0.7146 -1.8641
 4789SOL     OW32358   2.162  12.213  11.035 -0.2348 -0.4240 -0.4363
 4789SOL    HW132359   2.217  12.257  10.970 -0.6417 -1.9020 -1.8603
 4789SOL    HW232360   2.223  12.180  11.100  0.3068  0.0897 -0.6780
 4790SOL     OW32361   7.893  10.625   4.619 -0.2164  0.6244  0.6992
 4790SOL    HW132362   7.885  10.639   4.713  0.1609  1.4652  0.6138
 4790SOL    HW232363   7.987  10.616   4.605 -0.3379 -0.5290  0.5343
 4791SOL     OW32364  11.680   3.457   3.315 -0.4394 -0.0465  0.1445
 4791SOL    HW132365  11.706   3.482   3.226  0.1261  0.7039  0.4997
 4791SOL    HW232366  11.652   3.539   3.355 -1.7694 -0.5713  0.3166
 4792SOL     OW32367  12.883   4.072  11.502  0.4797  0.1587 -0.3288
 4792SOL    HW132368  12.910   4.038  11.417 -0.0771  1.0260 -0.8668
 4792SOL    HW232369  12.818   4.009  11.534  2.7803 -1.7646  0.8320
 4793SOL     OW32370   0.942   1.327  10.567  0.4401 -0.3200  0.8277
 4793SOL    HW132371   0.980   1.407  10.604  1.2077 -0.5540  0.5643
 4793SOL    HW232372   0.970   1.327  10.475 -2.2220  0.7456 -0.1039
 4794SOL     OW32373   4.233   7.209  13.085 -0.2221 -0.0399  0.2315
 4794SOL    HW132374   4.249   7.130  13.136 -1.4358 -0.3376  0.1855
 4794SOL    HW232375   4.153   7.191  13.036 -0.3929  1.1323  0.0348
 4795SOL     OW32376   5.030   1.188  11.342  0.3769 -0.0125  0.3101
 4795SOL    HW132377   5.019   1.283  11.338  0.3523 -0.0414 -0.6796
 4795SOL    HW232378   5.125   1.175  11.343  0.3801  0.0420  1.4405
 4796SOL     OW32379  13.225   7.725   6.691  0.1747 -0.6882 -0.5220
 4796SOL    HW132380  13.135   7.731   6.659 -0.2309  0.7089  0.7696
 4796SOL    HW232381  13.220   7.666   6.766  0.2706 -0.3471 -0.2448
 4797SOL     OW32382  12.314   6.441   5.650 -0.4141 -0.3652  0.6655
 4797SOL    HW132383  12.271   6.421   5.733  0.5297  1.0156  1.5345
 4797SOL    HW232384  12.388   6.381   5.646 -0.4974 -0.4765  0.8049
 4798SOL     OW32385   4.580   0.760   1.226 -0.6793 -0.0004 -0.2817
 4798SOL    HW132386   4.585   0.758   1.131  1.6094 -1.4174 -0.1986
 4798SOL    HW232387   4.626   0.840   1.252 -0.2189 -0.2474 -0.3333
 4799SOL     OW32388   8.045   2.246   8.474  0.5355 -0.2043 -0.2245
 4799SOL    HW132389   7.983   2.237   8.401  2.6019  0.7547 -2.2090
 4799SOL    HW232390   7.989   2.254   8.552 -1.8099  0.0705 -1.8300
 4800SOL     OW32391   9.605  10.832  13.954 -0.1836 -0.1680  0.0091
 4800SOL    HW132392   9.696  10.826  13.981 -0.8644 -1.4387  2.2591
 4800SOL    HW232393   9.565  10.750  13.983 -1.8050 -0.1690 -1.9944
 4801SOL     OW32394  10.806   2.315   6.202  0.1709  0.2191  0.2686
 4801SOL    HW132395  10.776   2.230   6.171 -0.2914  0.1041  0.9959
 4801SOL    HW232396  10.901   2.305   6.211  0.2782  0.1732 -0.8026
 4802SOL     OW32397   1.582   7.468  11.536 -0.3401 -0.2010 -0.2220
 4802SOL    HW132398   1.539   7.479  11.621  0.3524 -0.9166  0.2410
 4802SOL    HW232399   1.534   7.396  11.495 -1.6880  1.1727 -1.1306
 4803SOL     OW32400  11.966   0.014  11.036 -0.6178  0.7711 -0.3663
 4803SOL    HW132401  12.018  -0.066  11.034  1.6058  2.1177 -0.0901
 4803SOL    HW232402  11.876  -0.015  11.021  0.0207 -1.8195  0.3816
 4804SOL     OW32403   3.083   3.046  11.260  0.0887 -0.7166 -0.4761
 4804SOL    HW132404   3.170   3.056  11.222  0.3130 -0.1575  0.1631
 4804SOL    HW232405   3.057   2.957  11.238  0.6997 -0.7888 -0.9239
 4805SOL     OW32406  10.933   6.155   5.615  0.1277  0.5035 -0.0888
 4805SOL    HW132407  10.841   6.133   5.625  0.2754 -0.5982 -0.8812
 4805SOL    HW232408  10.940   6.247   5.641 -1.3927  0.9370 -1.1028
 4806SOL     OW32409   8.821   0.443   1.097 -0.3886  0.0452 -0.2236
 4806SOL    HW132410   8.901   0.494   1.083 -0.9845  0.8866 -0.7229
 4806SOL    HW232411   8.795   0.464   1.186  0.9712 -1.7542  0.6403
 4807SOL     OW32412  11.324   4.090   2.871 -0.1148 -0.0572 -0.2032
 4807SOL    HW132413  11.309   4.183   2.888  0.0984  0.5717 -2.8980
 4807SOL    HW232414  11.333   4.050   2.957 -1.6436  2.1642  1.0689
 4808SOL     OW32415   7.499  11.626   4.609 -0.3037 -0.3860 -0.3043
 4808SOL    HW132416   7.422  11.577   4.581 -0.7867  0.5375 -0.6336
 4808SOL    HW232417   7.572  11.566   4.596 -0.9662 -1.2890  0.0552
 4809SOL     OW32418   0.330   2.203  12.004 -0.1529  0.1835 -0.1767
 4809SOL    HW132419   0.332   2.130  12.066  0.1999  0.9190  0.7093
 4809SOL    HW232420   0.422   2.228  11.993 -0.2393  0.2525 -0.7682
 4810SOL     OW32421  12.857   7.351   0.706 -0.3112 -0.0887 -0.6012
 4810SOL    HW132422  12.918   7.362   0.634 -0.2986 -0.4992 -0.6588
 4810SOL    HW232423  12.825   7.439   0.726  0.0283  0.0786 -0.8070
 4811SOL     OW32424  13.376   9.351  12.614  0.4514 -0.3308  0.3293
 4811SOL    HW132425  13.388   9.302  12.533 -1.0913 -2.8978  1.5614
 4811SOL    HW232426  13.286   9.382  12.610  0.9649  1.2547  0.2417
 4812SOL     OW32427   0.275   6.640   2.593 -0.0617  0.2065  0.3843
 4812SOL    HW132428   0.203   6.703   2.593  2.0767  2.9054  0.7694
 4812SOL    HW232429   0.336   6.674   2.526  1.1616 -1.5558  0.5262
 4813SOL     OW32430  11.165  12.949   9.503 -0.0474 -0.3906  0.4392
 4813SOL    HW132431  11.137  13.035   9.533  2.8002  0.4151  1.1696
 4813SOL    HW232432  11.227  12.920   9.571  0.0476 -2.4325 -0.4460
 4814SOL     OW32433   4.578  11.478   3.992  0.1756 -0.2995 -0.4898
 4814SOL    HW132434   4.565  11.466   4.086 -1.5458  0.3477 -0.6257
 4814SOL    HW232435   4.493  11.458   3.953 -0.1598  2.7680 -1.5754
 4815SOL     OW32436  11.467   3.251   5.480  0.5977  0.4189 -0.2034
 4815SOL    HW132437  11.460   3.326   5.540 -0.9728 -0.5093  0.8412
 4815SOL    HW232438  11.409   3.184   5.518  1.7158 -1.2251 -1.2749
 4816SOL     OW32439   4.658   3.222  13.293  0.2762 -0.1803  0.2760
 4816SOL    HW132440   4.626   3.139  13.258  0.6172  0.3751 -1.4480
 4816SOL    HW232441   4.739   3.239  13.245  0.3822  1.0040  0.8298
 4817SOL     OW32442   4.775   9.027   9.145  0.2702  0.0155  0.3234
 4817SOL    HW132443   4.833   9.100   9.166  0.2106  0.2275 -0.2401
 4817SOL    HW232444   4.692   9.051   9.186  0.6132 -0.3688  1.2775
 4818SOL     OW32445   4.838  13.835   2.405 -0.3189  1.1302  0.1231
 4818SOL    HW132446   4.844  13.796   2.317 -1.7241 -0.5645  0.7219
 4818SOL    HW232447   4.926  13.826   2.441 -0.0579  0.5914 -0.6137
 4819SOL     OW32448  12.504   0.544   9.465  0.5266 -0.4916 -0.1426
 4819SOL    HW132449  12.490   0.483   9.393  0.8915 -1.1686  0.3467
 4819SOL    HW232450  12.440   0.517   9.532  1.3684 -1.0040  0.4777
 4820SOL     OW32451   3.161  12.266   3.306 -0.3356 -0.4302  0.4951
 4820SOL    HW132452   3.119  12.313   3.378  0.0836 -0.1971  0.5888
 4820SOL    HW232453   3.229  12.214   3.348  0.1314 -0.0367  0.2298
 4821SOL     OW32454   8.999  10.639  11.667  0.5994  0.3510  0.2620
 4821SOL    HW132455   8.994  10.717  11.613  0.4489  0.6395  0.6849
 4821SOL    HW232456   8.909  10.606  11.669  0.8245 -0.3742 -0.6869
 4822SOL     OW32457   9.517   3.290  13.800 -0.3549 -0.1600 -0.0957
 4822SOL    HW132458   9.425   3.311  13.790 -0.4392  0.1816  1.2188
 4822SOL    HW232459   9.519   3.197  13.823 -0.5373  0.2698  1.8124
 4823SOL     OW32460   4.259   8.356  13.364 -0.6950  0.0046  0.5301
 4823SOL    HW132461   4.285   8.438  13.406  1.0373 -0.4920  0.4956
 4823SOL    HW232462   4.181   8.379  13.314  0.4912  1.9750 -0.5800
 4824SOL     OW32463   1.714   1.049   9.806 -0.1023 -0.5312  0.2638
 4824SOL    HW132464   1.734   1.127   9.858  0.4270  0.5564 -1.4752
 4824SOL    HW232465   1.626   1.023   9.834 -0.3069  0.7220  0.8531
 4825SOL     OW32466   1.403   3.338   0.743 -1.0772 -0.5803 -0.2757
 4825SOL    HW132467   1.447   3.285   0.676 -0.2439  0.8806 -0.9300
 4825SOL    HW232468   1.470   3.354   0.809 -1.5971 -1.1142  0.3968
 4826SOL     OW32469  13.271   4.500   2.823 -0.0999 -0.0151  0.2365
 4826SOL    HW132470  13.327   4.488   2.746 -1.2418  0.6901 -0.7410
 4826SOL    HW232471  13.241   4.412   2.845 -0.2516 -0.1607 -0.5126
 4827SOL     OW32472   0.417   0.978   5.534 -0.2080  0.0516 -0.6759
 4827SOL    HW132473   0.494   0.949   5.584  0.0333  1.1448 -0.3969
 4827SOL    HW232474   0.397   0.904   5.477  1.1059 -0.2187 -0.8231
 4828SOL     OW32475  10.531   6.020   2.268 -0.0424  0.5614  0.3951
 4828SOL    HW132476  10.496   5.996   2.354 -0.9522  1.5607  0.3193
 4828SOL    HW232477  10.486   6.101   2.245  1.1092  0.9727 -0.4820
 4829SOL     OW32478  10.133  13.428   0.144 -0.4570  0.1351 -0.4198
 4829SOL    HW132479  10.185  13.508   0.150 -1.6652  0.9077  0.4593
 4829SOL    HW232480  10.133  13.392   0.233 -0.7965 -0.2519 -0.5693
 4830SOL     OW32481   9.711   7.811  12.862  0.5275  0.3210 -0.2437
 4830SOL    HW132482   9.768   7.734  12.869  1.8556  1.3753  1.3889
 4830SOL    HW232483   9.667   7.816  12.947 -0.0203  1.0038 -0.5624
 4831SOL     OW32484   3.194  13.713  12.560 -0.0264  0.4487 -0.0084
 4831SOL    HW132485   3.287  13.717  12.585  0.0473  1.6956 -0.4252
 4831SOL    HW232486   3.151  13.776  12.616 -0.6796 -0.2627  0.3134
 4832SOL     OW32487  11.798   4.107  11.484  0.0028 -0.0005  0.4492
 4832SOL    HW132488  11.729   4.078  11.544  0.0481 -0.5282  0.2493
 4832SOL    HW232489  11.848   4.170  11.535 -0.3421  0.0278  0.7568
 4833SOL     OW32490  11.996   3.863  10.329  0.0840  0.1354 -0.1038
 4833SOL    HW132491  11.983   3.957  10.325 -0.7587  0.2076  2.7348
 4833SOL    HW232492  11.914   3.828  10.363  0.9639 -1.4158  0.5297
 4834SOL     OW32493   4.782  12.971   9.165  0.1423  0.0387 -0.4762
 4834SOL    HW132494   4.814  13.025   9.238 -2.6393  1.4632 -0.1773
 4834SOL    HW232495   4.813  12.883   9.186 -0.0428  0.5062  2.1277
 4835SOL     OW32496   8.567   3.082  13.996 -0.0332  0.4447 -0.1489
 4835SOL    HW132497   8.527   3.007  13.951 -2.0167 -0.0135  2.1357
 4835SOL    HW232498   8.544   3.068  14.089  1.4872  2.7243  0.6338
 4836SOL     OW32499   2.273   1.104  12.370  0.3386 -0.2181 -0.3155
 4836SOL    HW132500   2.267   1.009  12.377 -0.3274 -0.1980 -0.4807
 4836SOL    HW232501   2.182   1.133  12.363  0.5793  0.3233 -1.6102
 4837SOL     OW32502   8.277   1.617   7.575 -0.7734 -0.5407  0.0908
 4837SOL    HW132503   8.181   1.607   7.574 -0.8978  0.5813 -0.7811
 4837SOL    HW232504   8.310   1.527   7.583 -1.8882 -0.8893  1.2255
 4838SOL     OW32505  11.600   5.994  12.917 -0.3644 -0.1758  0.1137
 4838SOL    HW132506  11.508   5.984  12.943  0.1516 -0.2467  2.0471
 4838SOL    HW232507  11.616   6.088  12.923  0.3950 -0.3904  2.5816
 4839SOL     OW32508   9.675   8.714   4.084 -0.2272 -0.2554  0.3883
 4839SOL    HW132509   9.630   8.646   4.134  1.2012 -1.7311 -0.2375
 4839SOL    HW232510   9.763   8.717   4.120  1.6372 -2.9824 -3.2170
 4840SOL     OW32511  12.734   1.333   7.092 -0.4007 -0.6192  0.0019
 4840SOL    HW132512  12.701   1.321   7.181  0.1467  0.4765  0.3841
 4840SOL    HW232513  12.721   1.427   7.075 -0.5613 -0.8328 -1.1022
 4841SOL     OW32514  13.074  11.665  10.227 -0.4073  0.1885 -0.2348
 4841SOL    HW132515  13.130  11.595  10.258 -0.4615 -0.0098 -0.5780
 4841SOL    HW232516  13.129  11.744  10.231  0.0394 -0.0760 -0.9850
 4842SOL     OW32517  11.903   7.631   4.797  0.0634  0.3470 -0.1994
 4842SOL    HW132518  11.873   7.593   4.714 -3.7565 -3.1717  2.3685
 4842SOL    HW232519  11.988   7.590   4.812  0.0952 -0.1883 -1.6389
 4843SOL     OW32520  13.768   6.702  12.147 -0.4524 -0.0573  0.2108
 4843SOL    HW132521  13.678   6.675  12.169 -0.9228 -1.3788 -2.8022
 4843SOL    HW232522  13.765   6.719  12.052  2.3425  0.5034  0.1467
 4844SOL     OW32523   8.130   1.482  10.599  0.1982  0.4766 -0.5168
 4844SOL    HW132524   8.063   1.414  10.586 -0.5019  0.4114  2.6860
 4844SOL    HW232525   8.081   1.560  10.625  1.2278  0.0453  3.3544
 4845SOL     OW32526   2.785  11.420  11.050  0.0816  0.0120  0.6909
 4845SOL    HW132527   2.709  11.370  11.080  0.5886  0.5085  3.0691
 4845SOL    HW232528   2.757  11.461  10.969 -1.1623 -2.1599 -0.0503
 4846SOL     OW32529   3.192  12.595  13.455  0.1399  0.1698  0.0026
 4846SOL    HW132530   3.211  12.665  13.517 -1.5162  2.2466 -1.6825
 4846SOL    HW232531   3.098  12.580  13.462 -0.0197  0.1575 -1.6625
 4847SOL     OW32532   9.799   4.301   4.519 -0.1050 -0.6008  0.1879
 4847SOL    HW132533   9.813   4.210   4.494 -0.8749 -1.0205  1.2402
 4847SOL    HW232534   9.715   4.301   4.565 -0.6971  0.8442 -0.8014
 4848SOL     OW32535   2.110   6.525  11.987  0.3627  0.1963 -0.3967
 4848SOL    HW132536   2.101   6.521  12.083 -1.5736 -0.4243 -0.5602
 4848SOL    HW232537   2.175   6.457  11.967  0.1535 -0.2662  0.4187
 4849SOL     OW32538   0.600   5.739   5.269  0.6080  0.9514 -0.1000
 4849SOL    HW132539   0.643   5.750   5.354  0.5386  0.6782 -0.0270
 4849SOL    HW232540   0.586   5.828   5.237  1.7879  1.0278 -0.4169
 4850SOL     OW32541   0.117   0.666   1.091 -0.1098 -0.5257 -0.6322
 4850SOL    HW132542   0.104   0.735   1.157  0.3106  0.2382 -1.3382
 4850SOL    HW232543   0.154   0.711   1.016  0.8118 -1.6462 -0.8739
 4851SOL     OW32544  12.025   4.676  11.952  0.1381 -0.0832 -0.0364
 4851SOL    HW132545  12.045   4.710  12.039 -1.4341  0.9867 -0.0335
 4851SOL    HW232546  12.041   4.750  11.894  0.9448 -0.7187 -0.6340
 4852SOL     OW32547  12.970   6.375   5.673 -0.2616  0.4934 -0.3386
 4852SOL    HW132548  12.889   6.423   5.659 -0.2430  0.7785  0.4877
 4852SOL    HW232549  13.005   6.362   5.585 -1.5971 -0.3385 -0.7802
 4853SOL     OW32550  10.127   4.473   5.618  0.0279 -0.3530  0.1791
 4853SOL    HW132551  10.044   4.514   5.595 -0.1227 -1.1460 -0.7389
 4853SOL    HW232552  10.114   4.442   5.708 -0.4577  0.0422  0.2522
 4854SOL     OW32553  10.168   9.181  10.571  0.2065 -0.4439  0.1229
 4854SOL    HW132554  10.074   9.171  10.557 -0.1789  1.0561  1.4629
 4854SOL    HW232555  10.179   9.269  10.606  1.9280 -1.1469  1.5224
 4855SOL     OW32556  13.770   1.074   0.471  0.6714  0.1006 -0.4026
 4855SOL    HW132557  13.793   1.091   0.562 -1.0385  1.0264 -0.0992
 4855SOL    HW232558  13.755   0.979   0.467  2.2188 -0.1708 -0.1032
 4856SOL     OW32559  10.503   5.514  13.468  1.1105 -0.5349 -0.7596
 4856SOL    HW132560  10.420   5.533  13.426  1.0780  1.6069  0.1149
 4856SOL    HW232561  10.497   5.423  13.495 -1.4569 -0.1248  0.3167
 4857SOL     OW32562  13.498   9.698   5.406 -0.0472 -0.0766 -0.1887
 4857SOL    HW132563  13.488   9.607   5.434 -0.1756  0.3224  1.1312
 4857SOL    HW232564  13.409   9.731   5.400 -0.0024 -0.0467 -0.7108
 4858SOL     OW32565   5.872   7.981  11.448 -0.1370  0.3140 -0.5943
 4858SOL    HW132566   5.936   8.043  11.483 -0.2216  0.1234 -0.1044
 4858SOL    HW232567   5.789   8.027  11.450 -0.4058 -0.1915  0.8267
 4859SOL     OW32568   5.343  10.005   6.575  0.4642 -0.2910 -0.5781
 4859SOL    HW132569   5.402   9.932   6.555  1.0518  0.3651 -1.2890
 4859SOL    HW232570   5.264   9.986   6.525  0.3542 -0.7871 -0.2222
 4860SOL     OW32571  11.650  11.702  12.813 -0.1895  0.3379 -0.2048
 4860SOL    HW132572  11.607  11.777  12.771 -1.4933  0.6137  1.5010
 4860SOL    HW232573  11.664  11.731  12.903  1.5955 -0.5916 -0.1405
 4861SOL     OW32574  13.151  10.025  12.308  0.0459  0.2379  0.0241
 4861SOL    HW132575  13.106  10.001  12.389  1.2926  0.0632  0.6804
 4861SOL    HW232576  13.196  10.107  12.328  1.1048 -0.2786 -0.1968
 4862SOL     OW32577   3.021   9.353   8.024 -0.5089  0.3178  0.0399
 4862SOL    HW132578   3.063   9.301   7.955  0.5869  0.7724  0.3373
 4862SOL    HW232579   2.938   9.380   7.987 -0.7056 -0.9045 -0.4489
 4863SOL     OW32580  13.781   6.092   3.156 -0.6227  0.4625 -0.0254
 4863SOL    HW132581  13.857   6.103   3.099 -0.4818  2.5880  0.4943
 4863SOL    HW232582  13.814   6.043   3.231 -0.1772  0.0052 -0.5062
 4864SOL     OW32583   2.373   5.148   9.001 -0.2755  0.4554  0.1619
 4864SOL    HW132584   2.385   5.239   9.027 -0.3193  0.5813 -0.2573
 4864SOL    HW232585   2.358   5.102   9.083  1.8286  0.4747  0.6186
 4865SOL     OW32586   6.739   7.271   6.117  0.0426 -0.1416 -0.7828
 4865SOL    HW132587   6.776   7.348   6.073  2.2753 -0.1282  0.9416
 4865SOL    HW232588   6.789   7.197   6.084  0.0518 -0.4357 -0.1358
 4866SOL     OW32589   7.500   2.955   1.570 -0.2808  1.0601  0.3491
 4866SOL    HW132590   7.522   2.880   1.514  0.3073  0.8176  0.8854
 4866SOL    HW232591   7.451   2.917   1.643 -1.6590  1.4704 -0.3307
 4867SOL     OW32592   9.874   0.924   1.298 -0.3578  0.9761 -0.1724
 4867SOL    HW132593   9.932   0.871   1.243  0.4850  0.9827  0.6981
 4867SOL    HW232594   9.826   0.861   1.351  0.8897  1.0443  1.1090
 4868SOL     OW32595   0.064  13.165   3.189  0.4145  0.2791  0.1707
 4868SOL    HW132596   0.058  13.113   3.109 -1.3843 -0.1719  0.5489
 4868SOL    HW232597   0.026  13.250   3.167  1.3979  0.7212  0.1300
 4869SOL     OW32598  12.277   1.274   5.404  0.7417  0.2763 -0.3710
 4869SOL    HW132599  12.227   1.326   5.467 -3.4642 -0.7629 -2.4325
 4869SOL    HW232600  12.250   1.309   5.319  1.3649 -2.2563 -1.6985
 4870SOL     OW32601   0.470   1.144  11.118  0.3671  0.1658  0.5180
 4870SOL    HW132602   0.496   1.057  11.086  0.5333  0.1341  0.7301
 4870SOL    HW232603   0.552   1.184  11.147  0.2973  0.4178  0.3617
 4871SOL     OW32604  10.152   4.785   2.356  0.2864  0.1486 -0.4972
 4871SOL    HW132605  10.112   4.729   2.421  0.9105 -0.3469 -0.5296
 4871SOL    HW232606  10.080   4.811   2.299 -0.0358 -0.4829 -0.3849
 4872SOL     OW32607  12.797   2.832   4.969 -0.4262  0.2672  0.2027
 4872SOL    HW132608  12.798   2.742   5.002 -1.4947  0.3258  0.4451
 4872SOL    HW232609  12.880   2.868   4.997 -0.2603 -0.4511  0.6826
 4873SOL     OW32610  14.031  13.668   6.122 -0.2508  0.9503 -0.2355
 4873SOL    HW132611  14.088  13.664   6.046  0.6158  1.6361  0.3516
 4873SOL    HW232612  14.028  13.761   6.146 -2.5270  1.1153 -0.8912
 4874SOL     OW32613  13.554  13.486   8.702 -0.7214 -0.0129  0.2198
 4874SOL    HW132614  13.502  13.489   8.782 -1.3761 -0.2654 -0.1870
 4874SOL    HW232615  13.490  13.470   8.632 -0.0544 -0.8033 -0.2371
 4875SOL     OW32616   9.985  10.956   8.160 -0.1483 -0.2650 -0.4923
 4875SOL    HW132617  10.067  10.912   8.183 -0.6634 -1.1820 -0.3275
 4875SOL    HW232618   9.936  10.890   8.110 -0.7972  0.2483 -0.5439
 4876SOL     OW32619   6.821   4.288   9.919 -0.2024 -0.0884  0.4731
 4876SOL    HW132620   6.868   4.220   9.967 -1.5169  0.2179  2.3002
 4876SOL    HW232621   6.739   4.246   9.891 -1.4539  0.9003  2.4203
 4877SOL     OW32622   8.731  12.854   4.376 -0.5678 -0.2389 -0.4923
 4877SOL    HW132623   8.802  12.905   4.337  0.1385 -0.0278  0.9960
 4877SOL    HW232624   8.658  12.915   4.382 -0.5649 -0.1696 -1.1261
 4878SOL     OW32625   2.063   5.498   9.715  0.1833  0.1603  0.6085
 4878SOL    HW132626   2.055   5.565   9.647  1.3392 -0.3995 -0.1282
 4878SOL    HW232627   2.028   5.418   9.675  1.3894 -0.3058  0.4303
 4879SOL     OW32628   0.075  11.051   7.156  0.3066  0.1474 -0.3107
 4879SOL    HW132629   0.087  11.107   7.079  0.1233 -1.0580 -1.2390
 4879SOL    HW232630  -0.018  11.060   7.178  0.6838  1.7864  0.8319
 4880SOL     OW32631   8.881   3.381   5.052  0.0550  0.4217 -0.0072
 4880SOL    HW132632   8.928   3.316   5.104 -0.2860  1.0273  1.0806
 4880SOL    HW232633   8.791   3.348   5.047  0.1333  0.2567 -0.4159
 4881SOL     OW32634  11.796   1.966   2.477  0.4858  0.4763 -0.3414
 4881SOL    HW132635  11.730   1.917   2.427 -2.3852  2.3527  1.2842
 4881SOL    HW232636  11.832   1.903   2.539  1.0455 -0.8528 -1.9588
 4882SOL     OW32637  13.862  11.391   0.085  0.5211  0.6701 -0.4631
 4882SOL    HW132638  13.807  11.318   0.057  0.1317  0.9840 -0.5373
 4882SOL    HW232639  13.840  11.403   0.177 -0.7960  1.8694 -0.9047
 4883SOL     OW32640   1.751  10.605  13.401 -0.1966  0.1046  0.1708
 4883SOL    HW132641   1.794  10.524  13.428  2.2949  1.2566 -0.0544
 4883SOL    HW232642   1.685  10.620  13.469 -1.3031 -2.4634 -0.2163
 4884SOL     OW32643   3.009  11.743  13.035  0.4923 -0.1059  0.4300
 4884SOL    HW132644   3.055  11.810  13.085 -1.5111  2.2995 -0.7666
 4884SOL    HW232645   3.076  11.704  12.980  1.5820  1.5870  0.4894
 4885SOL     OW32646   8.139  10.346   2.333  0.2832 -0.2981 -0.6086
 4885SOL    HW132647   8.184  10.265   2.307 -0.1257 -1.2135  1.3532
 4885SOL    HW232648   8.053  10.317   2.363 -1.1681  1.2588 -2.8996
 4886SOL     OW32649  11.346   3.247   4.740 -0.1659  0.0384 -0.4774
 4886SOL    HW132650  11.321   3.323   4.792  2.2053  0.5272  0.0721
 4886SOL    HW232651  11.307   3.172   4.785 -0.1215  0.6853  0.6690
 4887SOL     OW32652   3.725   3.054   6.392 -0.2111  0.3129  0.1005
 4887SOL    HW132653   3.806   3.089   6.355  1.5695 -2.4489  1.1028
 4887SOL    HW232654   3.665   3.049   6.317  1.1158  0.8124 -1.0357
 4888SOL     OW32655   3.004   9.550   9.901 -0.2036 -0.0599 -0.0181
 4888SOL    HW132656   3.033   9.465   9.936 -1.8990 -0.3930  0.6687
 4888SOL    HW232657   2.959   9.591   9.974 -0.3111  0.9940 -0.6637
 4889SOL     OW32658   6.078   7.413   9.306 -0.3802  0.6951  0.5614
 4889SOL    HW132659   6.077   7.487   9.367 -0.2920 -0.4595  2.0099
 4889SOL    HW232660   6.016   7.350   9.343  1.3837 -1.0247  0.7458
 4890SOL     OW32661   2.412   5.632  10.947 -0.0259  0.5766 -0.2939
 4890SOL    HW132662   2.439   5.641  11.038 -0.7109 -0.4305  0.0204
 4890SOL    HW232663   2.356   5.708  10.932 -1.3255 -0.1526  0.6714
 4891SOL     OW32664   3.457   8.960   7.874 -0.1014 -0.3676 -0.3942
 4891SOL    HW132665   3.476   9.047   7.838 -3.5015  0.4326 -0.5268
 4891SOL    HW232666   3.406   8.916   7.806 -1.3465 -1.1634  1.0107
 4892SOL     OW32667  13.907   8.283   8.371  0.0429  0.4232  0.1080
 4892SOL    HW132668  13.871   8.210   8.421  2.4756 -0.3539  0.8555
 4892SOL    HW232669  13.908   8.356   8.433 -1.4035  0.8569 -0.3276
 4893SOL     OW32670   8.993   5.495   1.341  0.4370  0.0816  0.1499
 4893SOL    HW132671   8.913   5.521   1.295  0.6683 -1.0958 -0.9715
 4893SOL    HW232672   8.962   5.441   1.413  0.1594  0.5615  0.3938
 4894SOL     OW32673   4.055  10.550   8.051  0.4234  0.3889 -0.2012
 4894SOL    HW132674   4.058  10.454   8.046  0.2389  0.3926 -0.4205
 4894SOL    HW232675   4.146  10.576   8.063  0.7202  0.2716 -1.9135
 4895SOL     OW32676   1.194   9.682   1.674 -0.4182 -0.8131 -0.5431
 4895SOL    HW132677   1.185   9.684   1.578 -2.2723  0.3013 -0.4050
 4895SOL    HW232678   1.264   9.744   1.693 -1.3077  0.4217 -1.1209
 4896SOL     OW32679   1.656  10.966   4.791 -0.1935 -1.2150 -0.4797
 4896SOL    HW132680   1.726  10.955   4.855 -1.5313 -4.2883  0.6090
 4896SOL    HW232681   1.582  10.999   4.841  0.1656  1.4002 -1.5128
 4897SOL     OW32682  11.604   2.542  10.028  0.3064  0.1594  0.4829
 4897SOL    HW132683  11.685   2.494  10.048  2.4294  2.5181 -1.6144
 4897SOL    HW232684  11.625   2.633  10.049 -2.8893  0.5552  2.5061
 4898SOL     OW32685   6.053  11.432  12.684 -0.0705  0.0169 -0.1267
 4898SOL    HW132686   6.125  11.479  12.641 -0.5111  0.5752 -0.2716
 4898SOL    HW232687   6.048  11.471  12.771 -2.3255  2.4131 -1.1697
 4899SOL     OW32688  10.402   3.041  13.203  0.5431  0.2440  0.4780
 4899SOL    HW132689  10.474   3.090  13.242  0.5757  0.3502  0.2863
 4899SOL    HW232690  10.366   2.989  13.275 -0.2012  1.3897  0.9615
 4900SOL     OW32691   8.554   0.127   0.684 -0.0106  0.1134  0.0500
 4900SOL    HW132692   8.611   0.130   0.607 -0.0912 -1.0972 -0.0703
 4900SOL    HW232693   8.555   0.217   0.718  0.3213  0.5762 -1.1435
 4901SOL     OW32694   9.600   5.855   5.017  0.2699  0.4605 -0.1312
 4901SOL    HW132695   9.680   5.822   4.978 -1.4156 -2.2584 -1.6158
 4901SOL    HW232696   9.583   5.797   5.091 -0.2218  1.1307  0.2942
 4902SOL     OW32697  13.443   3.773  11.206  0.2008  0.2961  0.1349
 4902SOL    HW132698  13.355   3.743  11.182 -0.2298  3.1471 -2.4351
 4902SOL    HW232699  13.486   3.790  11.122  2.2443  1.5604  1.3628
 4903SOL     OW32700   9.759  11.246   4.040 -0.2298  0.0754  0.0414
 4903SOL    HW132701   9.853  11.238   4.021 -0.3523 -2.2822  0.1340
 4903SOL    HW232702   9.722  11.284   3.961  0.6116 -0.3677 -0.5838
 4904SOL     OW32703  10.294   3.733   0.881 -0.4028 -0.4706  0.6699
 4904SOL    HW132704  10.240   3.717   0.958 -0.2088 -0.4143  0.8157
 4904SOL    HW232705  10.344   3.652   0.869 -0.3288 -0.4270  0.6851
 4905SOL     OW32706   8.671  13.050   6.206 -0.1196 -1.1425 -0.2886
 4905SOL    HW132707   8.701  12.959   6.217  0.2631 -0.9143  0.6033
 4905SOL    HW232708   8.684  13.068   6.113  2.4230 -1.1077 -0.0087
 4906SOL     OW32709   3.749   8.536  13.403 -0.0506 -0.0357  0.7212
 4906SOL    HW132710   3.674   8.528  13.344 -0.3624 -0.5974  1.1888
 4906SOL    HW232711   3.748   8.456  13.455  0.6739  0.1089  0.9710
 4907SOL     OW32712   5.072   0.105   0.062 -0.4985 -0.1149 -0.0670
 4907SOL    HW132713   5.154   0.153   0.070 -0.9763  0.6452  0.4196
 4907SOL    HW232714   5.006   0.164   0.097 -1.1881 -0.9081  0.0106
 4908SOL     OW32715   8.634   5.125  11.544  0.1974  0.3377  0.1108
 4908SOL    HW132716   8.543   5.146  11.524  0.1414  1.3472  1.3445
 4908SOL    HW232717   8.633   5.099  11.636  1.0421 -0.4461 -0.0890
 4909SOL     OW32718  12.233   7.944   6.588 -0.3244 -0.1265  0.0958
 4909SOL    HW132719  12.152   7.974   6.629  0.4315  0.4843  1.2039
 4909SOL    HW232720  12.284   7.909   6.660  0.1553 -1.0904 -0.6913
 4910SOL     OW32721  13.414   8.110   9.674 -0.0714  0.3842  0.4719
 4910SOL    HW132722  13.440   8.080   9.587  0.3992  2.3701 -0.1021
 4910SOL    HW232723  13.340   8.054   9.697  0.7568 -1.2037 -0.5210
 4911SOL     OW32724   7.040   5.834  11.352  0.3441 -0.2536 -0.3280
 4911SOL    HW132725   7.117   5.827  11.407  1.5412 -0.1824 -1.9244
 4911SOL    HW232726   6.966   5.822  11.412  1.6103 -3.3571  0.7913
 4912SOL     OW32727   6.078   1.753   5.076 -0.8611 -0.4005 -0.2227
 4912SOL    HW132728   6.013   1.709   5.131 -0.2761 -1.4057 -0.3084
 4912SOL    HW232729   6.150   1.772   5.136 -0.1233 -1.7027 -0.6513
 4913SOL     OW32730  12.785  11.092  10.450  0.3207 -0.6866  0.0693
 4913SOL    HW132731  12.788  11.020  10.387 -0.0072 -0.2100 -0.5039
 4913SOL    HW232732  12.734  11.160  10.406  1.7977  0.4521  0.0209
 4914SOL     OW32733   5.677   9.540  13.690  0.8681 -0.3326  0.2921
 4914SOL    HW132734   5.766   9.510  13.670  0.3898 -1.9173  0.3760
 4914SOL    HW232735   5.658   9.501  13.776 -0.0034 -0.2256  0.1520
 4915SOL     OW32736   3.085   7.570  12.629 -0.0738  0.3413  0.3589
 4915SOL    HW132737   3.023   7.561  12.557 -0.4363  0.0370  0.6988
 4915SOL    HW232738   3.056   7.649  12.676  0.1736  0.5507  0.1595
 4916SOL     OW32739   3.083   2.062   6.514  0.7065  0.3234 -0.1563
 4916SOL    HW132740   3.051   1.992   6.458  0.6386 -0.7420  1.1537
 4916SOL    HW232741   3.004   2.104   6.548  0.6718 -0.7720  1.2086
 4917SOL     OW32742   2.049  11.896   1.768 -0.1769 -0.2623 -0.2634
 4917SOL    HW132743   2.066  11.970   1.710  0.7669  0.5110  0.9591
 4917SOL    HW232744   1.974  11.923   1.820  1.3416  0.7351  1.5464
 4918SOL     OW32745  10.517  11.060   4.610  0.1644  0.0221 -0.1842
 4918SOL    HW132746  10.439  11.030   4.565  0.6623  0.7444 -1.5768
 4918SOL    HW232747  10.530  11.150   4.579  0.3676  0.6623  1.6306
 4919SOL     OW32748   7.493   7.546   2.687 -0.1937 -0.1971  0.3362
 4919SOL    HW132749   7.459   7.591   2.764 -1.3371 -0.0360 -0.2350
 4919SOL    HW232750   7.444   7.584   2.614  1.2183  0.0261 -0.5413
 4920SOL     OW32751   3.222   7.254   6.767  0.4628 -0.1058 -0.0389
 4920SOL    HW132752   3.142   7.205   6.748  1.5987 -1.5812 -1.2523
 4920SOL    HW232753   3.208   7.340   6.726 -1.3741  0.5214  1.7463
 4921SOL     OW32754   5.003  13.538   6.564 -0.0583  0.3536 -0.7772
 4921SOL    HW132755   4.979  13.628   6.540 -1.3419  0.0270 -0.8197
 4921SOL    HW232756   4.994  13.536   6.659 -1.1040  0.0021 -0.8679
 4922SOL     OW32757  14.061   8.966   2.266 -1.0535  0.3282  0.3297
 4922SOL    HW132758  13.975   8.971   2.307 -0.5833  0.8492  1.2781
 4922SOL    HW232759  14.062   8.881   2.223 -1.8910  0.1462  0.6500
 4923SOL     OW32760  11.169   2.395   9.860 -0.1980 -0.1471 -0.3053
 4923SOL    HW132761  11.090   2.378   9.808 -0.3376  0.7289 -0.3884
 4923SOL    HW232762  11.137   2.433   9.942 -0.0266 -2.1007  0.7262
 4924SOL     OW32763   9.666   1.228   8.804  0.3522  0.8528  0.0610
 4924SOL    HW132764   9.628   1.301   8.754  1.6938  0.4072 -1.7245
 4924SOL    HW232765   9.725   1.185   8.742 -0.5254 -1.9082  0.9827
 4925SOL     OW32766  13.352   0.279   7.594 -0.1561 -0.7368 -0.1593
 4925SOL    HW132767  13.266   0.249   7.565 -0.8577  1.3079 -0.3761
 4925SOL    HW232768  13.355   0.257   7.687 -1.8199  0.9739  0.3611
 4926SOL     OW32769  12.664   1.421   1.439  0.4551  0.0901 -0.2570
 4926SOL    HW132770  12.736   1.380   1.392 -1.7101 -1.7200 -2.2914
 4926SOL    HW232771  12.640   1.358   1.506 -0.6091 -0.3933 -1.0598
 4927SOL     OW32772   5.368   7.786   5.734  0.2689 -0.8873  0.3612
 4927SOL    HW132773   5.305   7.793   5.663  0.6544 -4.1832 -0.5128
 4927SOL    HW232774   5.406   7.873   5.743 -3.0145  0.7270 -0.3292
 4928SOL     OW32775  12.861   0.615   7.331  0.5190  0.1153  0.1492
 4928SOL    HW132776  12.818   0.603   7.246 -0.4352 -3.0035  0.9439
 4928SOL    HW232777  12.953   0.630   7.309  0.3010 -0.6628 -1.4647
 4929SOL     OW32778   2.740   7.200  12.063  0.0223 -0.0318 -0.4586
 4929SOL    HW132779   2.651   7.235  12.069  0.0113 -0.2302  0.7684
 4929SOL    HW232780   2.729   7.107  12.043 -0.0659 -0.1872  0.3098
 4930SOL     OW32781  12.328   0.959  12.942 -0.3901  0.6027 -0.0195
 4930SOL    HW132782  12.413   0.968  12.898  0.4304 -1.7994  0.9212
 4930SOL    HW232783  12.269   0.928  12.873  0.7275 -2.4498  0.2407
 4931SOL     OW32784  13.545  11.045  11.862 -0.1613  0.0250 -0.3073
 4931SOL    HW132785  13.451  11.058  11.875  0.3199  1.7685  2.3514
 4931SOL    HW232786  13.555  10.951  11.851 -2.0803 -0.4985  1.5945
 4932SOL     OW32787  10.779   2.227  13.433 -0.3311  0.2876 -0.4408
 4932SOL    HW132788  10.806   2.139  13.458 -0.8154  0.2967  0.1385
 4932SOL    HW232789  10.710   2.214  13.368  0.3044  0.2575 -1.1283
 4933SOL     OW32790   9.885   8.285  10.703 -0.2787  0.1511 -0.3296
 4933SOL    HW132791   9.868   8.360  10.759 -2.2089 -0.0710 -0.5531
 4933SOL    HW232792   9.824   8.218  10.733  1.9486 -1.6775  0.4160
 4934SOL     OW32793  11.648   0.177  10.385 -0.1610  0.2313 -0.2628
 4934SOL    HW132794  11.697   0.168  10.303 -0.1043 -0.5457 -0.1453
 4934SOL    HW232795  11.708   0.146  10.453 -0.4657  0.1950 -0.0050
 4935SOL     OW32796  10.248   3.518   4.301 -0.2866 -0.7369 -0.0715
 4935SOL    HW132797  10.303   3.544   4.228 -0.6785  0.6751  0.1040
 4935SOL    HW232798  10.299   3.451   4.347  1.6364  0.9964  0.4898
 4936SOL     OW32799  11.067   8.667   4.124 -0.6886 -0.1950 -0.3474
 4936SOL    HW132800  11.152   8.623   4.129 -0.6384 -0.0136  0.7389
 4936SOL    HW232801  11.005   8.597   4.106 -0.4314 -0.4997 -0.0743
 4937SOL     OW32802   8.131  12.743   7.119 -0.3121 -0.0447 -0.0980
 4937SOL    HW132803   8.145  12.785   7.034  0.2762 -0.0038  0.0120
 4937SOL    HW232804   8.080  12.806   7.169  1.2871  0.9539  0.3622
 4938SOL     OW32805   2.081  14.157  12.077  0.0023  0.3607  0.2792
 4938SOL    HW132806   2.167  14.128  12.046  0.1708  0.3087  0.7895
 4938SOL    HW232807   2.098  14.196  12.162 -0.6875 -1.0746  1.1145
 4939SOL     OW32808   7.468   9.390  13.301  0.5175 -0.2993  0.4383
 4939SOL    HW132809   7.487   9.448  13.375 -0.0854  0.1533  0.2451
 4939SOL    HW232810   7.553   9.375  13.260  0.7822 -0.1431  0.9192
 4940SOL     OW32811  13.673   5.578  11.671  0.2535  0.6983  0.1633
 4940SOL    HW132812  13.662   5.668  11.701 -0.9345  1.1840 -1.5882
 4940SOL    HW232813  13.688   5.585  11.577  4.6205 -0.7138  0.5382
 4941SOL     OW32814   1.883  12.336   7.921 -0.5254 -0.0824  0.1928
 4941SOL    HW132815   1.944  12.407   7.941 -1.0163  0.6303 -0.7349
 4941SOL    HW232816   1.913  12.302   7.836 -2.4670  1.5358 -1.2417
 4942SOL     OW32817   0.734   4.391  12.637 -0.5089  0.7177  0.5716
 4942SOL    HW132818   0.655   4.361  12.681 -0.6512 -0.2398 -0.2745
 4942SOL    HW232819   0.708   4.399  12.545  0.4664 -0.0083  0.2162
 4943SOL     OW32820   1.277   7.259  13.009  0.8333 -0.1572  0.4251
 4943SOL    HW132821   1.352   7.284  12.955  1.0927 -2.0062 -0.1474
 4943SOL    HW232822   1.259   7.168  12.984 -2.1696  0.4775 -0.0933
 4944SOL     OW32823   4.477  12.944   8.538 -0.2043 -0.5452  0.6248
 4944SOL    HW132824   4.541  13.009   8.566 -0.5727  0.1413 -0.0766
 4944SOL    HW232825   4.396  12.993   8.526 -0.0395 -0.7130 -1.7764
 4945SOL     OW32826   1.048   5.907   0.091 -0.0821  0.1646  0.3020
 4945SOL    HW132827   1.119   5.903   0.154  0.9903  0.2748 -0.8557
 4945SOL    HW232828   1.091   5.899   0.005 -1.5275 -0.5256 -0.4081
 4946SOL     OW32829   3.191  11.293   9.261 -0.1762 -0.3766  0.3097
 4946SOL    HW132830   3.155  11.227   9.319 -0.5368  0.8015  1.4827
 4946SOL    HW232831   3.284  11.273   9.255  0.3493  0.7326  3.1518
 4947SOL     OW32832  12.150   8.186   0.108  0.2744 -0.3872 -0.4395
 4947SOL    HW132833  12.221   8.245   0.135 -0.9424  0.4476  1.0963
 4947SOL    HW232834  12.194   8.103   0.091  1.5832 -0.0450  0.9883
 4948SOL     OW32835   8.380   6.666   7.944 -0.8367  0.1514 -0.6029
 4948SOL    HW132836   8.318   6.719   7.994 -0.0318 -1.2533  2.1016
 4948SOL    HW232837   8.428   6.729   7.890 -1.3469  1.8799  0.8693
 4949SOL     OW32838   1.059   8.459  12.781 -0.8357  0.1260  0.2459
 4949SOL    HW132839   0.970   8.476  12.812 -1.0466 -0.6095  0.0727
 4949SOL    HW232840   1.052   8.458  12.686 -0.4385  1.0762  0.1938
 4950SOL     OW32841   6.906   7.867   6.550  0.1311 -0.1764 -0.6851
 4950SOL    HW132842   6.918   7.796   6.613  0.3002  0.3365 -0.1294
 4950SOL    HW232843   6.895   7.823   6.465 -0.0629 -0.8707 -0.3053
 4951SOL     OW32844  10.807   1.510  12.428  0.1850  0.4277  0.1578
 4951SOL    HW132845  10.719   1.472  12.420  0.2545  0.6962 -3.1605
 4951SOL    HW232846  10.866   1.434  12.434 -0.1485  0.2444  1.7428
 4952SOL     OW32847  12.076   6.907   5.925 -0.0134  0.2824 -0.5826
 4952SOL    HW132848  12.103   6.967   5.856 -0.2676  2.9736  1.4782
 4952SOL    HW232849  11.981   6.903   5.919  0.0192 -0.1597 -0.8721
 4953SOL     OW32850  12.655   6.433   5.155 -0.2833 -0.3549 -0.4018
 4953SOL    HW132851  12.575   6.469   5.193  0.0360 -0.8613  0.8153
 4953SOL    HW232852  12.721   6.501   5.169 -0.1164 -0.6266  0.1727
 4954SOL     OW32853   8.146   8.194   3.686 -0.1943 -0.3583 -0.3419
 4954SOL    HW132854   8.159   8.258   3.755 -1.4477 -0.4691  0.0324
 4954SOL    HW232855   8.201   8.224   3.614  0.6131  0.1272  0.4615
 4955SOL     OW32856   5.870   5.691   1.001 -0.4666 -0.2661 -0.4633
 4955SOL    HW132857   5.815   5.618   1.030 -0.8728 -0.4169 -1.5548
 4955SOL    HW232858   5.899   5.733   1.082 -2.4123 -0.0132  0.1586
 4956SOL     OW32859   1.167  11.941  11.242 -0.5705  0.8811  0.1483
 4956SOL    HW132860   1.209  11.959  11.326 -0.1902  0.3134  0.0809
 4956SOL    HW232861   1.239  11.927  11.181 -0.8546  0.5563 -0.1153
 4957SOL     OW32862  11.424   2.578   2.349  0.1987 -0.4527 -0.0307
 4957SOL    HW132863  11.369   2.505   2.375  0.6827 -1.7403 -2.3826
 4957SOL    HW232864  11.362   2.644   2.316 -0.0448 -1.4061 -1.5422
 4958SOL     OW32865   6.464   2.533   3.597 -0.2506  0.3128  0.2096
 4958SOL    HW132866   6.476   2.502   3.687 -0.3009 -0.7857 -0.1440
 4958SOL    HW232867   6.371   2.520   3.579  0.3070 -2.7141 -1.0925
 4959SOL     OW32868   9.288   6.843   7.741  0.4111 -0.3149 -0.6892
 4959SOL    HW132869   9.260   6.930   7.768  1.3068 -0.4450  0.7960
 4959SOL    HW232870   9.384   6.846   7.746  0.5149 -1.0527 -1.7399
 4960SOL     OW32871   4.575   3.086   3.483 -0.5502 -0.0102  0.6328
 4960SOL    HW132872   4.542   3.130   3.405 -3.1087 -0.6933  1.2331
 4960SOL    HW232873   4.564   2.993   3.464 -1.3997 -0.1837  1.8336
 4961SOL     OW32874  10.982  12.343   8.992 -0.1569  0.5036  0.0996
 4961SOL    HW132875  10.935  12.392   8.924 -1.0776 -1.2170 -0.5887
 4961SOL    HW232876  10.925  12.268   9.011  0.0299  0.9579  2.8869
 4962SOL     OW32877   7.939  13.852  13.449  0.6236 -0.0752 -0.1886
 4962SOL    HW132878   7.894  13.850  13.533  0.3730  0.7618 -0.2964
 4962SOL    HW232879   8.006  13.920  13.458  0.0336  0.6256 -0.9380
 4963SOL     OW32880   9.913  12.940   6.096 -0.0628 -0.2786  0.0759
 4963SOL    HW132881   9.996  12.987   6.094 -0.5173  0.5273 -1.0000
 4963SOL    HW232882   9.850  13.003   6.129 -0.5249 -0.3846 -0.5759
 4964SOL     OW32883   8.610   3.341   1.982 -0.3308  0.2008  0.8349
 4964SOL    HW132884   8.624   3.435   1.993  0.1437  0.2653 -0.1836
 4964SOL    HW232885   8.688   3.301   2.021  0.9016  0.3846 -1.3069
 4965SOL     OW32886   7.740   8.521   7.321  0.5114 -0.8044 -0.1484
 4965SOL    HW132887   7.823   8.490   7.285  1.2807 -0.7092  1.4714
 4965SOL    HW232888   7.760   8.607   7.357  0.1158 -1.3793  1.5667
 4966SOL     OW32889  12.306   4.448  11.421 -0.0212  0.4607  0.5336
 4966SOL    HW132890  12.390   4.424  11.382  0.3971  1.7080  0.6300
 4966SOL    HW232891  12.325   4.459  11.514 -0.5798 -0.4691  0.7778
 4967SOL     OW32892   7.857   8.028   9.336 -0.1387 -0.4928  0.7932
 4967SOL    HW132893   7.898   8.106   9.372 -0.0980 -0.2401  0.2096
 4967SOL    HW232894   7.891   8.021   9.247 -2.0009  0.2476 -0.0501
 4968SOL     OW32895  13.520   9.470   1.860 -0.4490  0.0569 -0.0738
 4968SOL    HW132896  13.559   9.423   1.787  1.9152  2.2970 -0.3671
 4968SOL    HW232897  13.502   9.402   1.925  1.1236 -1.4752 -1.1521
 4969SOL     OW32898   1.530   8.278   0.675 -1.5927 -0.4923 -0.7873
 4969SOL    HW132899   1.516   8.270   0.581  1.9198  1.4277 -1.6590
 4969SOL    HW232900   1.533   8.372   0.691 -0.5692 -0.7701  0.9140
 4970SOL     OW32901   2.453   4.865   2.395  0.4326  0.3961 -0.5494
 4970SOL    HW132902   2.484   4.782   2.359 -1.2949  0.3779 -2.1400
 4970SOL    HW232903   2.450   4.925   2.320 -2.5599  0.5763 -0.4207
 4971SOL     OW32904   1.053   2.411  11.680  0.5344  0.2866  0.1262
 4971SOL    HW132905   0.984   2.475  11.696 -0.4644 -1.1120  1.8688
 4971SOL    HW232906   1.072   2.374  11.767  2.4120 -0.4311 -0.5402
 4972SOL     OW32907   7.895  10.938   0.375  0.1967  0.7013 -0.2102
 4972SOL    HW132908   7.817  10.972   0.418 -1.3797 -2.8468  0.0194
 4972SOL    HW232909   7.967  10.960   0.436 -1.1888  0.5639  1.5589
 4973SOL     OW32910   7.338   1.651   6.861 -0.0713  0.0070  0.6000
 4973SOL    HW132911   7.364   1.671   6.951  2.9863 -0.5429 -0.0548
 4973SOL    HW232912   7.258   1.703   6.847  0.1258  1.1559  3.1659
 4974SOL     OW32913   0.042   7.747   2.655 -0.1436  0.2867 -0.3752
 4974SOL    HW132914   0.024   7.836   2.684 -0.9817 -0.3486  1.1890
 4974SOL    HW232915   0.137   7.740   2.657 -0.1015  0.8973  0.3171
 4975SOL     OW32916   8.015   5.086  12.013 -0.0946 -0.2439  0.3903
 4975SOL    HW132917   7.936   5.133  11.989 -0.2785 -0.7186  0.0314
 4975SOL    HW232918   7.996   4.994  11.992  1.8478  0.0127 -3.3924
 4976SOL     OW32919  13.200  10.466  11.391 -0.1341 -0.2276  0.0917
 4976SOL    HW132920  13.215  10.383  11.436  0.5906  0.6000  1.4627
 4976SOL    HW232921  13.110  10.489  11.412  0.1585  0.0927  1.0883
 4977SOL     OW32922   3.995   4.063  10.955 -0.1547 -0.5901  0.0171
 4977SOL    HW132923   4.007   4.009  11.032 -0.2002  0.5673  0.8581
 4977SOL    HW232924   3.900   4.071  10.945 -0.1689 -1.4014 -0.6601
 4978SOL     OW32925   4.916  13.726   3.311  0.1098 -0.4305 -0.6072
 4978SOL    HW132926   4.929  13.672   3.389 -0.2434 -0.5383 -0.6206
 4978SOL    HW232927   4.993  13.782   3.307  0.6280 -1.1311 -0.7463
 4979SOL     OW32928   5.796   2.477   0.006 -0.1170 -0.5321  0.1591
 4979SOL    HW132929   5.735   2.492  -0.066  0.3125  0.2444 -0.0542
 4979SOL    HW232930   5.882   2.471  -0.036  0.1041 -0.3560  0.5823
 4980SOL     OW32931   9.899   8.997  11.134  0.3031  0.1805  0.3371
 4980SOL    HW132932   9.897   9.041  11.218  0.1076 -0.7543  0.8367
 4980SOL    HW232933   9.814   9.013  11.095 -0.0168 -0.3133  0.8183
 4981SOL     OW32934   0.507   3.133   8.366  0.1335  0.1107 -0.8123
 4981SOL    HW132935   0.601   3.133   8.381  0.1967 -0.1562 -1.1714
 4981SOL    HW232936   0.494   3.196   8.295  0.1744 -0.5836 -1.4588
 4982SOL     OW32937   1.837   6.582  12.493  0.3352 -0.1939  0.0981
 4982SOL    HW132938   1.889   6.653  12.456 -0.4253  0.3594  0.0560
 4982SOL    HW232939   1.755   6.624  12.518 -0.7269 -1.3264 -1.3048
 4983SOL     OW32940  12.273   6.659   9.295  0.3393 -0.3475  0.1755
 4983SOL    HW132941  12.267   6.647   9.390  0.9540  0.7371  0.3614
 4983SOL    HW232942  12.366   6.671   9.278  0.2535 -0.7173 -0.6000
 4984SOL     OW32943   1.487   2.366   7.435 -0.1322 -0.3385 -0.3671
 4984SOL    HW132944   1.433   2.429   7.482  0.9106 -0.4719  1.0939
 4984SOL    HW232945   1.462   2.281   7.471  0.1633 -0.5223 -0.5876
 4985SOL     OW32946  10.218   4.874   2.935  0.4350  0.1574  0.1561
 4985SOL    HW132947  10.194   4.864   3.027 -0.9366  1.2401 -0.0405
 4985SOL    HW232948  10.222   4.969   2.921 -2.1528  0.1373 -1.4923
 4986SOL     OW32949   5.813   6.116  10.664  0.5580  0.0205 -0.3732
 4986SOL    HW132950   5.744   6.053  10.641  0.8874 -0.4418 -0.1215
 4986SOL    HW232951   5.795   6.140  10.755 -0.2211  1.1653 -0.8019
 4987SOL     OW32952  12.622   7.514  11.147  0.2742  0.2785  0.4607
 4987SOL    HW132953  12.685   7.457  11.192 -0.7490 -1.5208 -0.2743
 4987SOL    HW232954  12.633   7.599  11.189  1.9994 -0.3963  1.4944
 4988SOL     OW32955   3.979   2.744   2.333 -0.4707 -0.3035  0.2743
 4988SOL    HW132956   4.047   2.786   2.282 -1.6053 -0.1839 -1.2002
 4988SOL    HW232957   3.953   2.810   2.398  0.5212 -0.2157  0.5890
 4989SOL     OW32958  11.033  11.551   7.766 -0.1748 -1.0455  0.4815
 4989SOL    HW132959  10.945  11.587   7.780  0.3290  0.4372 -0.0314
 4989SOL    HW232960  11.047  11.493   7.841 -0.5214  0.8303  2.0809
 4990SOL     OW32961   5.152  11.567   4.368  0.2883 -0.3902 -0.0340
 4990SOL    HW132962   5.119  11.477   4.373  0.3023 -0.4600 -1.0930
 4990SOL    HW232963   5.181  11.578   4.278 -0.3723  0.9027 -0.1200
 4991SOL     OW32964   6.546  10.992   4.465  0.5437 -0.5310 -0.0789
 4991SOL    HW132965   6.548  11.015   4.372 -1.1132  1.5422  0.3005
 4991SOL    HW232966   6.635  11.009   4.496  0.5975  0.8795 -0.8866
 4992SOL     OW32967   0.125   5.951   2.905  0.2820 -0.6819 -0.1574
 4992SOL    HW132968   0.191   5.889   2.873  1.2412 -0.5197  1.4337
 4992SOL    HW232969   0.076   5.901   2.971  0.6946  0.0615  0.7285
 4993SOL     OW32970  13.189   3.710   2.369 -0.7604  0.2628  0.1571
 4993SOL    HW132971  13.188   3.703   2.273 -1.8757  1.8901  0.0005
 4993SOL    HW232972  13.147   3.795   2.386  0.2850  0.4292  2.0538
 4994SOL     OW32973  12.085   3.232  13.050 -0.3516 -0.6275 -0.3356
 4994SOL    HW132974  12.034   3.313  13.045  2.8256  1.4998 -1.4257
 4994SOL    HW232975  12.102   3.220  13.143  0.8847  1.2170 -0.2889
 4995SOL     OW32976  12.620   1.068   7.696 -0.0386  0.2397  0.0735
 4995SOL    HW132977  12.542   1.071   7.752  0.4101 -0.0342  0.7226
 4995SOL    HW232978  12.591   1.105   7.613 -0.6421  0.9117  0.5720
 4996SOL     OW32979   1.298   8.553   1.696 -0.6648 -0.1591  0.0322
 4996SOL    HW132980   1.374   8.561   1.754  0.3028  2.1981 -1.4428
 4996SOL    HW232981   1.233   8.612   1.734 -0.9383 -0.4677  0.0480
 4997SOL     OW32982  13.615  11.966   7.166 -0.7555 -0.4704  0.4896
 4997SOL    HW132983  13.700  11.950   7.126  0.0630  1.5607  1.2937
 4997SOL    HW232984  13.588  12.052   7.132 -1.4191 -0.0605  1.9611
 4998SOL     OW32985  13.562   0.046   4.584  0.1399 -0.1141  0.6142
 4998SOL    HW132986  13.643   0.095   4.579  0.2421 -0.3038  0.4037
 4998SOL    HW232987  13.511   0.075   4.509  0.7297 -1.2673 -0.2728
 4999SOL     OW32988   7.912   7.708   8.977  0.2396  0.4557  0.2401
 4999SOL    HW132989   7.893   7.688   8.885  0.5745 -1.7810  0.6002
 4999SOL    HW232990   8.008   7.705   8.982  0.2367  0.9941  0.5722
 5000SOL     OW32991   6.038   1.923   5.511 -0.2957 -0.0724  0.1098
 5000SOL    HW132992   5.991   1.846   5.480  0.3719 -1.4173  2.2748
 5000SOL    HW232993   6.108   1.888   5.566 -1.1653  2.1168  2.7902
 5001SOL     OW32994   3.039   3.236   5.747 -0.5411  0.6143 -0.1690
 5001SOL    HW132995   2.978   3.177   5.702  0.7224 -0.8550 -0.0474
 5001SOL    HW232996   3.115   3.240   5.689 -0.1119  1.1518  0.4176
 5002SOL     OW32997   7.861   8.585  12.100 -0.0437  0.0700 -0.3580
 5002SOL    HW132998   7.948   8.607  12.134 -0.1641  0.6383 -0.4074
 5002SOL    HW232999   7.821   8.670  12.081 -1.1049 -0.1082  0.9025
 5003SOL     OW33000   3.960   1.142   7.889 -0.4741  0.4890  0.2057
 5003SOL    HW133001   3.985   1.080   7.957 -0.3734  1.6244  1.2225
 5003SOL    HW233002   4.038   1.152   7.835 -0.7294 -0.8628 -0.4532
 5004SOL     OW33003   9.025   8.357  11.232  0.2446  0.7512 -0.2774
 5004SOL    HW133004   9.025   8.395  11.144 -2.6088  0.7301 -0.3676
 5004SOL    HW233005   9.023   8.432  11.291 -0.4114  0.7632 -0.3126
 5005SOL     OW33006  12.962  13.111  10.019  0.6654  0.0931  0.3139
 5005SOL    HW133007  13.024  13.173  10.058  1.3802 -1.6792  2.2447
 5005SOL    HW233008  12.934  13.056  10.093 -1.7145 -0.4418 -0.8683
 5006SOL     OW33009   3.434   9.857  10.352 -0.1919  0.2134  0.5193
 5006SOL    HW133010   3.393   9.770  10.345 -0.8243  0.5575 -0.2027
 5006SOL    HW233011   3.504   9.855  10.286 -0.2095  0.2486  0.4995
 5007SOL     OW33012   4.143  10.208   0.421 -0.0855  0.2537  0.2867
 5007SOL    HW133013   4.186  10.158   0.351 -0.3215  0.7010 -0.1785
 5007SOL    HW233014   4.073  10.256   0.377  0.3588  1.2736  0.6617
 5008SOL     OW33015  11.718   7.508   9.407 -0.1910  0.2252 -0.3272
 5008SOL    HW133016  11.747   7.442   9.344 -2.4486  0.4693 -1.6976
 5008SOL    HW233017  11.742   7.592   9.367 -1.2675  0.3663 -0.6947
 5009SOL     OW33018   8.934   8.673   7.470 -0.2483 -0.4629 -0.8771
 5009SOL    HW133019   8.938   8.593   7.417 -0.1961 -1.6188  0.8225
 5009SOL    HW233020   9.025   8.692   7.490 -0.2254  0.3106 -1.6341
 5010SOL     OW33021   6.219  11.767   6.586 -0.1748 -0.1405  0.3881
 5010SOL    HW133022   6.226  11.797   6.496  0.3417  1.2856  0.8732
 5010SOL    HW233023   6.174  11.839   6.631  0.6516 -0.3015  1.5064
 5011SOL     OW33024   6.244   2.920  10.185  0.3875 -0.4306  0.2818
 5011SOL    HW133025   6.271   2.878  10.103  2.1368 -3.1015  2.0674
 5011SOL    HW233026   6.283   3.008  10.181  0.7664 -0.6369 -1.5451
 5012SOL     OW33027  11.336   4.938   8.004 -0.5566  0.2659 -0.4453
 5012SOL    HW133028  11.371   4.851   7.988  1.7727  1.0914 -0.1583
 5012SOL    HW233029  11.300   4.934   8.092 -1.5485 -0.6779 -0.8616
 5013SOL     OW33030  12.229  12.699   8.602 -0.5237  0.0640 -0.3870
 5013SOL    HW133031  12.311  12.654   8.626 -0.0323 -0.1754 -2.3220
 5013SOL    HW233032  12.187  12.639   8.539 -1.1239  1.1430 -1.0453
 5014SOL     OW33033   9.945   9.237   0.949  0.0297  0.0229  0.0045
 5014SOL    HW133034  10.026   9.253   0.901  0.2473  1.5965  0.8193
 5014SOL    HW233035   9.974   9.200   1.032 -0.1191  0.0175  0.0535
 5015SOL     OW33036   9.433  13.565   8.779  0.7073  0.0577 -1.0203
 5015SOL    HW133037   9.464  13.590   8.692  1.5114  0.6242 -0.5874
 5015SOL    HW233038   9.480  13.484   8.798  0.5066 -0.0834 -1.1334
 5016SOL     OW33039   5.953   2.977   4.606  0.2978  0.1141 -0.3665
 5016SOL    HW133040   5.942   3.052   4.663  1.7745  0.7610 -0.9000
 5016SOL    HW233041   5.993   2.910   4.661 -2.9243 -1.1223  0.7029
 5017SOL     OW33042   4.609  13.882   7.005  0.1870 -0.5211 -0.1958
 5017SOL    HW133043   4.610  13.838   6.920  0.2672  1.5935 -1.3664
 5017SOL    HW233044   4.627  13.974   6.985 -4.4307  1.0638  1.5073
 5018SOL     OW33045   8.499  13.432  13.389 -0.3510  0.4742  0.2483
 5018SOL    HW133046   8.514  13.478  13.472 -0.4735 -0.1300  0.6147
 5018SOL    HW233047   8.482  13.342  13.415  0.7496  0.0253 -0.5106
 5019SOL     OW33048   4.910  12.534   7.101  0.0586  0.2165  0.4488
 5019SOL    HW133049   4.950  12.546   7.187 -0.2242  1.3798  0.4351
 5019SOL    HW233050   4.971  12.574   7.039  0.5155 -1.0699  0.0187
 5020SOL     OW33051   4.526  13.837   8.132 -0.6844  0.1039 -0.4814
 5020SOL    HW133052   4.474  13.837   8.052 -0.1293  0.4040 -0.8488
 5020SOL    HW233053   4.489  13.907   8.186 -0.2879  0.7169 -0.9925
 5021SOL     OW33054   4.943   6.906   9.666 -0.1208 -0.1148  0.2504
 5021SOL    HW133055   5.030   6.909   9.707  1.0797 -1.4645 -1.9919
 5021SOL    HW233056   4.921   6.998   9.651 -0.2551  0.3957  2.9861
 5022SOL     OW33057  13.701  10.074   1.168 -0.6945  0.1329  0.0151
 5022SOL    HW133058  13.754  10.135   1.118  0.3677  2.2282  3.3555
 5022SOL    HW233059  13.745   9.990   1.160  0.6206  0.8822 -0.8063
 5023SOL     OW33060   0.542   6.305   8.963  0.1469  0.2274  0.2802
 5023SOL    HW133061   0.564   6.216   8.990 -0.9766  0.0759  0.7625
 5023SOL    HW233062   0.564   6.360   9.039 -1.1454  0.0608  0.8069
 5024SOL     OW33063   1.079  13.530   4.328 -0.1120  0.2068 -0.3943
 5024SOL    HW133064   1.122  13.551   4.246  1.3624 -2.3484 -0.3883
 5024SOL    HW233065   0.991  13.501   4.303  0.6108 -1.3665 -1.2052
 5025SOL     OW33066   3.856   3.321  12.078 -0.1731 -0.3640 -0.0646
 5025SOL    HW133067   3.879   3.410  12.105  0.6460 -0.1450 -1.4357
 5025SOL    HW233068   3.877   3.267  12.155  0.0458  0.5173  0.5134
 5026SOL     OW33069   6.677  10.076   7.031 -0.1070  0.3864  0.3605
 5026SOL    HW133070   6.716  10.119   7.107  0.5123  0.8048 -0.1883
 5026SOL    HW233071   6.648  10.148   6.975 -1.0003  0.0805  0.4085
 5027SOL     OW33072  13.376   4.431  10.220 -0.2702 -0.0168  0.0194
 5027SOL    HW133073  13.471   4.418  10.231 -0.1993  0.2842 -0.2261
 5027SOL    HW233074  13.366   4.526  10.209 -0.3262 -0.2398 -2.4245
 5028SOL     OW33075   3.163  13.026   9.718  0.1955 -0.1050  0.1618
 5028SOL    HW133076   3.165  13.040   9.812  1.2921  1.0089  0.0151
 5028SOL    HW233077   3.070  13.031   9.694  0.0138  0.9734  1.0125
 5029SOL     OW33078   3.800   2.398  10.023 -0.3376  0.2840  0.3611
 5029SOL    HW133079   3.836   2.310  10.035  0.9408  0.9680  1.9060
 5029SOL    HW233080   3.707   2.383  10.006 -0.5752 -1.3222  2.5163
 5030SOL     OW33081   0.899  10.233  10.486 -0.3888 -0.2396  0.3611
 5030SOL    HW133082   0.821  10.180  10.473 -1.4200  1.4484 -0.6553
 5030SOL    HW233083   0.971  10.177  10.457 -1.3536 -1.3015 -0.0453
 5031SOL     OW33084   1.890   8.237  11.181 -0.1257 -0.3093 -0.4272
 5031SOL    HW133085   1.968   8.253  11.129  0.3906 -0.3694  0.3229
 5031SOL    HW233086   1.866   8.323  11.216  0.4938 -0.5321  0.5765
 5032SOL     OW33087   6.748   2.833  12.884 -0.0271 -0.3324 -0.5888
 5032SOL    HW133088   6.709   2.747  12.865 -1.6889  0.1516  0.4109
 5032SOL    HW233089   6.731   2.884  12.805  0.2428 -0.6867 -0.8785
 5033SOL     OW33090  10.706   3.778   8.783 -0.4084 -0.4172 -0.4125
 5033SOL    HW133091  10.614   3.753   8.792 -0.1358 -1.3176  0.0506
 5033SOL    HW233092  10.714   3.862   8.827 -1.3800  0.5919 -2.0624
 5034SOL     OW33093   5.000   6.061  12.771 -0.2050  0.6519 -0.3223
 5034SOL    HW133094   5.091   6.044  12.794 -0.2015  0.7870 -0.2364
 5034SOL    HW233095   5.005   6.120  12.696 -0.2204  0.5182 -0.4301
 5035SOL     OW33096  11.813   7.086  12.696 -0.4532 -0.0012 -0.1867
 5035SOL    HW133097  11.871   7.081  12.620 -0.7611  1.0708 -0.5091
 5035SOL    HW233098  11.832   7.172  12.734 -2.1693  0.5972 -0.5995
 5036SOL     OW33099  13.556   7.648   3.820  0.3621  0.1941 -0.8349
 5036SOL    HW133100  13.485   7.678   3.764  0.1283 -0.1999 -0.7553
 5036SOL    HW233101  13.560   7.553   3.805 -0.5287 -0.1240  0.7606
 5037SOL     OW33102  10.573  11.060   1.173 -0.0732  0.0520  0.2651
 5037SOL    HW133103  10.565  10.999   1.099  0.0918 -0.1332  0.4011
 5037SOL    HW233104  10.483  11.068   1.206 -0.6385  2.0768 -1.4974
 5038SOL     OW33105  13.707  13.169   1.023  0.1893 -0.5552  0.0936
 5038SOL    HW133106  13.674  13.229   0.957  1.1055  0.6089  0.6606
 5038SOL    HW233107  13.634  13.158   1.084  0.2231  0.5248  0.3450
 5039SOL     OW33108   7.523  11.634   8.646 -0.7170 -0.0302 -0.5128
 5039SOL    HW133109   7.465  11.624   8.721  0.1551 -2.1667 -0.0486
 5039SOL    HW233110   7.603  11.674   8.682 -1.6665  2.6431 -1.1013
 5040SOL     OW33111   5.367   3.169  13.477  0.3440 -0.2156 -0.1751
 5040SOL    HW133112   5.326   3.210  13.553  0.1966 -0.0809 -0.3267
 5040SOL    HW233113   5.339   3.078  13.481  1.6222 -0.5865  0.8222
 5041SOL     OW33114   7.851   7.990  12.304 -0.5253  0.1457 -0.2473
 5041SOL    HW133115   7.928   8.044  12.317 -0.0068 -0.3101 -1.3083
 5041SOL    HW233116   7.869   7.940  12.225 -2.0096  0.1997 -0.6603
 5042SOL     OW33117   2.245   0.736  10.128  0.9267  0.7794 -0.5518
 5042SOL    HW133118   2.322   0.750  10.183  0.2646  0.0603  0.5764
 5042SOL    HW233119   2.181   0.696  10.186 -0.2643  1.2497 -1.5115
 5043SOL     OW33120   6.575   9.663   7.191 -0.6370 -0.3787 -0.2055
 5043SOL    HW133121   6.485   9.636   7.204 -0.3419 -1.7700 -0.9055
 5043SOL    HW233122   6.577   9.702   7.104 -0.7159  0.4510  0.1480
 5044SOL     OW33123   7.308   3.061  12.332 -0.1348  0.2548  0.3072
 5044SOL    HW133124   7.259   3.085  12.254  0.1696 -0.1093  0.0024
 5044SOL    HW233125   7.244   3.018  12.389  0.1156 -1.4755 -0.6642
 5045SOL     OW33126   2.864   6.116   0.331  0.0675 -0.1449  0.1184
 5045SOL    HW133127   2.827   6.036   0.293 -3.2002  0.7708  1.0778
 5045SOL    HW233128   2.795   6.181   0.321  1.9435  2.1016  1.0237
 5046SOL     OW33129   5.009  13.773   8.231 -0.2378 -0.4017 -0.4603
 5046SOL    HW133130   5.006  13.721   8.311  1.2316 -2.1238 -1.4406
 5046SOL    HW233131   4.962  13.854   8.252  1.1791 -0.2327  2.5085
 5047SOL     OW33132   9.568   2.189  10.937  0.5149 -0.1176  0.0131
 5047SOL    HW133133   9.601   2.279  10.941  0.4724 -0.1178  0.4725
 5047SOL    HW233134   9.587   2.153  11.024  0.9094 -0.6870 -0.3009
 5048SOL     OW33135  11.820   6.586  12.185  0.3254  0.8053 -0.0147
 5048SOL    HW133136  11.855   6.545  12.106 -2.4903 -1.2003 -0.3748
 5048SOL    HW233137  11.784   6.670  12.155 -0.5590  0.1397 -0.8941
 5049SOL     OW33138  14.065   2.789   8.270  0.1561  0.6938  0.5799
 5049SOL    HW133139  14.026   2.702   8.258 -0.4224  1.0323 -0.0431
 5049SOL    HW233140  14.144   2.772   8.321 -0.5697 -0.0616  1.5029
 5050SOL     OW33141   2.288   1.439   0.875  0.6769 -0.3742  0.2156
 5050SOL    HW133142   2.375   1.426   0.837  1.9912  0.4206  2.7417
 5050SOL    HW233143   2.256   1.350   0.895 -0.5227 -0.9177 -3.4168
 5051SOL     OW33144   1.556   9.834  13.857 -0.1982 -0.1024  0.1919
 5051SOL    HW133145   1.529   9.918  13.895 -0.1420 -0.9674  2.3317
 5051SOL    HW233146   1.545   9.844  13.763 -1.4726  1.8463  0.5067
 5052SOL     OW33147   5.509   2.684   0.728  0.3885  0.0475 -0.2505
 5052SOL    HW133148   5.485   2.763   0.775 -1.5962 -0.1560 -0.8209
 5052SOL    HW233149   5.605   2.683   0.730  0.6758  3.8197 -2.3766
 5053SOL     OW33150   1.858  11.108   5.202 -0.0919 -0.3203 -0.8453
 5053SOL    HW133151   1.949  11.079   5.193 -0.0399 -0.4503  0.0577
 5053SOL    HW233152   1.806  11.037   5.165  0.1586 -0.3916 -1.0628
 5054SOL     OW33153   9.520   5.865   7.060 -0.5304  0.2012 -0.2081
 5054SOL    HW133154   9.426   5.867   7.079 -0.6553 -1.1578 -0.5598
 5054SOL    HW233155   9.558   5.816   7.132 -0.2955 -0.4522 -0.7640
 5055SOL     OW33156  11.550  13.328   1.657 -0.9137 -0.4152  0.0475
 5055SOL    HW133157  11.521  13.282   1.578 -0.5402 -0.9164  0.2004
 5055SOL    HW233158  11.509  13.414   1.650 -1.9664 -0.9068 -0.0384
 5056SOL     OW33159   9.101  11.557  11.730 -0.0178 -0.1556 -0.0409
 5056SOL    HW133160   9.016  11.533  11.693 -0.3890 -1.2827  1.4387
 5056SOL    HW233161   9.082  11.583  11.820  1.2797 -1.2225  0.5816
 5057SOL     OW33162  12.958   6.280  13.879 -0.1482  0.0118  0.2626
 5057SOL    HW133163  12.916   6.358  13.843  0.1261 -0.0562 -0.2090
 5057SOL    HW233164  13.050   6.287  13.853  0.0532 -0.0554  0.9235
 5058SOL     OW33165   7.718   7.318  12.452 -0.5006  0.0333  0.1048
 5058SOL    HW133166   7.675   7.378  12.391 -0.8973 -1.2567 -0.9447
 5058SOL    HW233167   7.650   7.254  12.474 -0.4134  0.5369  2.0530
 5059SOL     OW33168   6.475  10.283   4.230  0.0628 -0.5504  0.4663
 5059SOL    HW133169   6.457  10.266   4.322 -0.5129  0.1211  0.4932
 5059SOL    HW233170   6.550  10.344   4.231  0.4523 -1.0238  0.4629
 5060SOL     OW33171  11.933   8.618   7.659 -0.7777  0.4485  0.1778
 5060SOL    HW133172  11.951   8.703   7.698  1.4782 -0.4370  1.1894
 5060SOL    HW233173  11.990   8.557   7.705 -2.2572 -1.6339 -0.5792
 5061SOL     OW33174   0.237   5.953  13.670 -0.2049 -0.0899 -0.0511
 5061SOL    HW133175   0.317   5.901  13.657 -0.7087 -1.0334  0.5465
 5061SOL    HW233176   0.250   6.030  13.614  0.4786 -0.9330 -1.0982
 5062SOL     OW33177   4.753   7.447   6.423  0.1043  0.2315  0.2720
 5062SOL    HW133178   4.673   7.455   6.371 -0.0465  2.2961  0.7304
 5062SOL    HW233179   4.823   7.440   6.359 -0.1251  2.2247 -0.2722
 5063SOL     OW33180  13.498  10.520   9.423  0.1545 -0.0878 -0.3245
 5063SOL    HW133181  13.508  10.478   9.338  1.3923  0.1364 -0.3183
 5063SOL    HW233182  13.569  10.483   9.476 -0.6976 -0.3451  0.6644
 5064SOL     OW33183   4.373   9.865   5.633 -0.2572  0.0560 -0.1930
 5064SOL    HW133184   4.301   9.864   5.571  0.6893  1.6135 -1.3683
 5064SOL    HW233185   4.368   9.950   5.676  0.2398 -0.2613  0.5271
 5065SOL     OW33186  12.442   2.781  12.966 -0.4670 -0.4544 -0.3231
 5065SOL    HW133187  12.467   2.841  12.897 -1.0412 -0.2749 -0.3828
 5065SOL    HW233188  12.353   2.753  12.943 -0.9744  0.2065  0.7379
 5066SOL     OW33189  13.187   0.596   6.717  0.4430  0.4296 -0.3751
 5066SOL    HW133190  13.193   0.519   6.660  2.3025  0.4794 -0.3213
 5066SOL    HW233191  13.144   0.663   6.663 -1.6753 -0.7350 -0.2565
 5067SOL     OW33192  11.672  12.410   1.387  0.1803 -0.7487  0.2376
 5067SOL    HW133193  11.638  12.445   1.304  0.6659 -0.4904  0.1461
 5067SOL    HW233194  11.766  12.403   1.373  0.6245  1.6963  1.6389
 5068SOL     OW33195   1.946   8.525  12.953 -0.4041 -0.0262 -0.3750
 5068SOL    HW133196   1.928   8.613  12.918 -0.6600  0.3986  0.7984
 5068SOL    HW233197   1.866   8.476  12.935 -1.0034  0.5427  0.6998
 5069SOL     OW33198   8.880   0.749   9.127  0.3035 -0.0276 -0.2588
 5069SOL    HW133199   8.814   0.771   9.193  0.8801  1.0344 -0.0225
 5069SOL    HW233200   8.897   0.832   9.081 -0.3029 -0.7869 -1.9611
 5070SOL     OW33201   9.795   0.513   8.988  0.1542  0.1788 -0.0662
 5070SOL    HW133202   9.828   0.602   9.000 -3.1706  1.2655  2.6478
 5070SOL    HW233203   9.701   0.520   9.004 -0.1749 -3.9390  0.8149
 5071SOL     OW33204  12.900  13.230  10.830  0.1157 -0.0923  0.4412
 5071SOL    HW133205  12.843  13.280  10.888  2.7701  2.8705  0.7750
 5071SOL    HW233206  12.950  13.173  10.889  0.0582  0.0086  0.5874
 5072SOL     OW33207  10.632  10.167   7.430 -0.3740 -0.7331 -0.9051
 5072SOL    HW133208  10.663  10.223   7.500 -0.4457 -1.5108 -0.2406
 5072SOL    HW233209  10.590  10.227   7.368 -0.7283 -0.0925 -0.0609
 5073SOL     OW33210   8.979  13.029  11.118 -0.6730  0.5043 -0.2814
 5073SOL    HW133211   8.962  12.972  11.043 -0.8340  0.1829  0.0014
 5073SOL    HW233212   9.052  13.084  11.089  0.7086 -1.0430  0.0685
 5074SOL     OW33213  12.750  10.749  11.865 -0.4742 -0.3642 -0.3764
 5074SOL    HW133214  12.780  10.691  11.795 -0.3439  1.0792 -1.5581
 5074SOL    HW233215  12.793  10.716  11.944 -1.5198 -2.7512 -0.7030
 5075SOL     OW33216  11.764   7.518   5.677 -0.6423 -0.5666 -0.3379
 5075SOL    HW133217  11.699   7.537   5.744 -1.4900 -1.2383 -0.9481
 5075SOL    HW233218  11.795   7.603   5.647  1.6365 -0.1932  2.6549
 5076SOL     OW33219   9.208   9.362   9.559 -0.5411  0.1023  0.1583
 5076SOL    HW133220   9.186   9.315   9.639  2.1029 -1.3199  0.1539
 5076SOL    HW233221   9.135   9.344   9.499 -1.7569 -0.1648  1.6639
 5077SOL     OW33222  10.517   6.103   8.721  0.3558  0.5132  0.0931
 5077SOL    HW133223  10.603   6.065   8.741 -0.1541  0.4084  2.3467
 5077SOL    HW233224  10.536   6.187   8.680  1.5081 -0.1308 -0.7444
 5078SOL     OW33225   4.506   1.281   0.895  0.2723 -0.3625  0.1344
 5078SOL    HW133226   4.567   1.318   0.832 -0.8740  1.3501 -0.0175
 5078SOL    HW233227   4.481   1.197   0.857  0.3329  0.2092 -1.2175
 5079SOL     OW33228   3.790   9.073   2.722 -0.4711 -0.1527  0.0880
 5079SOL    HW133229   3.741   8.996   2.694  2.2017 -1.6612 -0.7405
 5079SOL    HW233230   3.753   9.145   2.671 -2.2448 -1.0441  0.0349
 5080SOL     OW33231  13.499   8.355   1.491  0.4487 -0.7522  0.4057
 5080SOL    HW133232  13.533   8.373   1.578  0.0638  0.0576  0.3922
 5080SOL    HW233233  13.564   8.392   1.431  0.6429 -1.1827  0.3445
 5081SOL     OW33234   6.344   1.771   9.216  0.1027  0.0019  0.0840
 5081SOL    HW133235   6.279   1.795   9.150 -1.8351 -1.4000  1.4124
 5081SOL    HW233236   6.375   1.855   9.250 -1.1944  0.6902 -0.3874
 5082SOL     OW33237  13.288   8.329  10.417 -0.4221  0.5526  0.2319
 5082SOL    HW133238  13.288   8.270  10.492  0.3507  0.1971 -0.0335
 5082SOL    HW233239  13.341   8.284  10.351 -0.7017  1.0697 -0.3551
 5083SOL     OW33240   4.184  12.354   5.067  0.2229  0.4380  0.3080
 5083SOL    HW133241   4.279  12.364   5.075  0.7065 -1.4094 -1.8726
 5083SOL    HW233242   4.155  12.330   5.155  1.7039  1.2920  1.0816
 5084SOL     OW33243   1.053  13.194  12.436 -0.0073 -0.5357 -0.2587
 5084SOL    HW133244   1.076  13.116  12.488 -1.8444 -0.6826  0.3928
 5084SOL    HW233245   0.978  13.232  12.482  0.8210  1.6250 -0.5886
 5085SOL     OW33246   6.796  13.689   3.380  0.1499  0.2146 -0.5809
 5085SOL    HW133247   6.709  13.652   3.379  0.7170 -1.4215  1.6015
 5085SOL    HW233248   6.835  13.664   3.297 -0.9097 -0.4120 -0.9017
 5086SOL     OW33249  10.766   3.168  10.126 -0.9126  0.5844  0.2905
 5086SOL    HW133250  10.761   3.073  10.137  0.2227  0.5525  0.7171
 5086SOL    HW233251  10.860   3.187  10.123 -1.1164  1.7276  0.5262
 5087SOL     OW33252   2.172   8.387  12.260  0.0672 -0.3594 -0.5049
 5087SOL    HW133253   2.198   8.298  12.282  2.2021 -0.3031 -2.4507
 5087SOL    HW233254   2.076   8.385  12.262  0.0524 -1.7981  2.5740
 5088SOL     OW33255   0.802   1.842  10.541  0.2971 -0.1653 -0.6572
 5088SOL    HW133256   0.773   1.871  10.455 -2.0372  0.9426  0.4174
 5088SOL    HW233257   0.732   1.868  10.600  2.4402  0.3902  1.8306
 5089SOL     OW33258   9.243   3.443   9.064  0.7092 -0.2824  0.0453
 5089SOL    HW133259   9.212   3.482   9.146 -0.2390  0.8440 -0.8176
 5089SOL    HW233260   9.257   3.517   9.006  0.1259 -1.1321 -1.2227
 5090SOL     OW33261   1.851   0.335   8.688  0.4227  0.6151  0.4111
 5090SOL    HW133262   1.853   0.403   8.622  1.6768 -0.7074 -0.9973
 5090SOL    HW233263   1.761   0.304   8.690 -0.6069  3.3139  2.2645
 5091SOL     OW33264   1.915   9.926   0.859 -0.2313  0.1701  0.4467
 5091SOL    HW133265   1.937   9.920   0.952 -0.8419 -0.3141  0.5651
 5091SOL    HW233266   1.859   9.850   0.843  0.7907 -0.4033 -0.5816
 5092SOL     OW33267   5.167   3.868  12.316 -0.4030 -0.0160 -0.2028
 5092SOL    HW133268   5.240   3.875  12.377  0.5518 -1.4584 -1.1379
 5092SOL    HW233269   5.103   3.812  12.360  0.0567 -0.6288 -0.3161
 5093SOL     OW33270   1.146   9.597   5.108 -0.4749  1.0317 -0.3153
 5093SOL    HW133271   1.187   9.516   5.076  0.0466  0.2921  2.0382
 5093SOL    HW233272   1.053   9.586   5.089 -0.3012  0.2489 -0.7543
 5094SOL     OW33273   3.908   0.884  12.926  0.2068  0.2112  0.2374
 5094SOL    HW133274   3.844   0.843  12.867  1.1249  0.0073 -0.6521
 5094SOL    HW233275   3.945   0.956  12.875  1.1584 -0.0844  0.4987
 5095SOL     OW33276   5.921  10.161   9.551  0.2959 -0.1307 -0.6714
 5095SOL    HW133277   5.941  10.078   9.595  0.4511  0.0469 -0.4036
 5095SOL    HW233278   5.972  10.158   9.470  1.0042  0.0917 -0.2390
 5096SOL     OW33279   8.868  12.001  10.284  0.5612 -0.1763 -0.3227
 5096SOL    HW133280   8.857  12.053  10.204 -0.0035  0.3026  0.0577
 5096SOL    HW233281   8.925  11.929  10.258  0.4135 -0.0054 -1.1497
 5097SOL     OW33282   1.926   7.634  12.857 -0.1415  0.4345 -0.1544
 5097SOL    HW133283   1.997   7.570  12.850 -0.0198  0.4191  1.0215
 5097SOL    HW233284   1.959   7.711  12.811  1.6894  1.2922  2.3868
 5098SOL     OW33285   0.308   7.710  11.836 -0.2529  0.3549  0.2101
 5098SOL    HW133286   0.233   7.672  11.881  0.4761  0.0803  1.2053
 5098SOL    HW233287   0.285   7.703  11.743 -1.2266 -0.2025  0.4745
 5099SOL     OW33288   2.221  11.666   4.725 -0.6327 -0.0280  0.1678
 5099SOL    HW133289   2.241  11.588   4.674  0.8808 -1.4893  2.8223
 5099SOL    HW233290   2.131  11.688   4.700 -0.1756 -0.9202 -2.6468
 5100SOL     OW33291  11.136  10.650   9.242  0.1604 -0.3821 -0.1624
 5100SOL    HW133292  11.194  10.717   9.205  1.7039 -1.5791  0.0022
 5100SOL    HW233293  11.063  10.700   9.280  0.0984  1.0528 -2.0393
 5101SOL     OW33294  11.227   3.220   8.735  0.2279 -0.4217 -0.1129
 5101SOL    HW133295  11.206   3.127   8.724  0.7615 -0.4980 -0.5768
 5101SOL    HW233296  11.306   3.220   8.788  1.4704 -0.3512 -1.8678
 5102SOL     OW33297   1.565   4.403   2.777 -0.5442 -0.3034  0.0143
 5102SOL    HW133298   1.625   4.344   2.824 -0.5071 -1.2078 -1.1447
 5102SOL    HW233299   1.478   4.371   2.798 -0.4996 -1.9352 -2.0079
 5103SOL     OW33300   2.594   4.669   0.152  0.4441  0.6807 -0.0391
 5103SOL    HW133301   2.560   4.734   0.214  1.8840  1.3600  0.0878
 5103SOL    HW233302   2.575   4.585   0.193 -4.6442  0.6216 -1.7689
 5104SOL     OW33303   0.511   0.884   1.062 -0.1569  0.2618  0.3081
 5104SOL    HW133304   0.513   0.791   1.040  0.7193 -0.1063  1.7860
 5104SOL    HW233305   0.436   0.919   1.013 -0.3257 -1.1454 -0.4921
 5105SOL     OW33306   0.477   4.625   2.422 -0.2130 -0.1518 -0.0290
 5105SOL    HW133307   0.483   4.625   2.326 -1.3039 -0.3883 -0.1140
 5105SOL    HW233308   0.479   4.533   2.446  3.1021 -0.0615  0.4466
 5106SOL     OW33309   1.833  10.577  12.389  0.0557 -0.4326 -0.2210
 5106SOL    HW133310   1.749  10.586  12.343  0.7385 -0.7972 -1.6003
 5106SOL    HW233311   1.895  10.552  12.320  1.5101  0.8314  0.5736
 5107SOL     OW33312  11.220   0.283  12.436  0.2332 -0.1431 -0.2233
 5107SOL    HW133313  11.225   0.375  12.410 -1.7131  0.2759  0.6520
 5107SOL    HW233314  11.130   0.257  12.412  0.9069 -1.9958 -0.9421
 5108SOL     OW33315   8.133   0.483   5.130 -0.4205  0.0965 -0.1336
 5108SOL    HW133316   8.183   0.409   5.166 -0.4513  0.3204  0.3798
 5108SOL    HW233317   8.111   0.456   5.041  0.1670 -0.2265 -0.1901
 5109SOL     OW33318   9.798  13.004   9.240 -0.1965 -0.4106 -0.4333
 5109SOL    HW133319   9.834  12.940   9.301 -1.4561 -1.3650 -0.6400
 5109SOL    HW233320   9.854  12.999   9.163  0.5004 -0.3016  0.0663
 5110SOL     OW33321   3.381   5.318  14.062  0.2453  0.2573 -0.2064
 5110SOL    HW133322   3.460   5.310  14.008  0.5139  1.2626  0.0242
 5110SOL    HW233323   3.376   5.411  14.083 -1.3308  0.2990 -0.6966
 5111SOL     OW33324  11.139  11.640  13.468 -0.2934  0.2392 -0.3467
 5111SOL    HW133325  11.056  11.663  13.509  0.8958  1.0309  1.7318
 5111SOL    HW233326  11.129  11.547  13.444 -0.7877 -0.5646  2.5785
 5112SOL     OW33327  12.689   7.947   2.799  0.1637 -0.5527  0.3038
 5112SOL    HW133328  12.662   7.856   2.809  2.9722 -1.7294 -1.6126
 5112SOL    HW233329  12.742   7.965   2.877  0.2333 -0.8284  0.3216
 5113SOL     OW33330   7.171   6.079  12.181 -0.0640 -0.1851  0.1003
 5113SOL    HW133331   7.076   6.068  12.177 -0.5198  2.6545  0.9890
 5113SOL    HW233332   7.195   6.110  12.093 -0.0046 -0.5878 -0.0258
 5114SOL     OW33333   1.147  12.508   8.148 -0.4066 -0.0042 -0.6620
 5114SOL    HW133334   1.055  12.532   8.136 -0.4810 -1.1963 -2.8702
 5114SOL    HW233335   1.173  12.467   8.066  1.5229 -1.6062  0.6405
 5115SOL     OW33336   5.374   6.814   5.418  0.2714 -0.1457  0.2179
 5115SOL    HW133337   5.388   6.720   5.414  0.2242 -0.1441  0.0012
 5115SOL    HW233338   5.284   6.824   5.450  0.3587 -0.1710  0.4716
 5116SOL     OW33339  10.263   4.011   8.048 -0.0976 -0.3231  0.3678
 5116SOL    HW133340  10.202   4.042   7.982  1.2327 -0.6823 -1.0834
 5116SOL    HW233341  10.334   3.969   7.999  1.0040 -0.4989  2.0022
 5117SOL     OW33342   9.316   5.249   4.125 -0.2447  0.2594 -0.8182
 5117SOL    HW133343   9.298   5.191   4.051 -0.3811 -0.7710 -0.0055
 5117SOL    HW233344   9.412   5.254   4.130 -0.0398 -2.8176  1.2069
 5118SOL     OW33345   1.613   1.045   7.407  0.3914 -0.0876 -0.4311
 5118SOL    HW133346   1.594   1.119   7.465 -0.5824 -0.1683 -0.6357
 5118SOL    HW233347   1.651   0.978   7.464 -2.8644 -1.1579  0.6701
 5119SOL     OW33348  13.293   2.868   4.556 -0.4787  0.1014 -0.6541
 5119SOL    HW133349  13.218   2.810   4.566 -0.8218  0.1933 -2.5057
 5119SOL    HW233350  13.367   2.809   4.539 -0.2169  0.0602  0.4761
 5120SOL     OW33351  13.036   4.522  11.673  0.4698  0.1271  0.4993
 5120SOL    HW133352  12.989   4.604  11.660 -1.0977 -0.9697 -1.3308
 5120SOL    HW233353  12.991   4.479  11.746  0.3740  0.2613  0.5189
 5121SOL     OW33354   1.455   6.569   8.824  0.1540  0.5085 -0.6543
 5121SOL    HW133355   1.413   6.655   8.830 -2.3147 -0.7021  2.2074
 5121SOL    HW233356   1.537   6.580   8.872  1.4054  1.9132 -2.9190
 5122SOL     OW33357   5.252   6.139   1.344 -0.7417  0.1034  0.1229
 5122SOL    HW133358   5.304   6.156   1.422 -0.2729  0.6310 -0.2998
 5122SOL    HW233359   5.192   6.069   1.370 -0.9731  0.6531  1.1188
 5123SOL     OW33360   6.190  11.599  12.507  0.5536  0.1831  0.3933
 5123SOL    HW133361   6.255  11.591  12.436  0.5886  0.8278  0.3455
 5123SOL    HW233362   6.169  11.692  12.509  0.1907  0.0915  0.9163
 5124SOL     OW33363   2.664   6.148   8.505  0.5770 -0.2132 -0.0628
 5124SOL    HW133364   2.607   6.141   8.429 -1.1445 -1.8197  1.2842
 5124SOL    HW233365   2.658   6.239   8.532  0.3788  0.1225 -1.1974
 5125SOL     OW33366   5.946   2.182   3.862  0.2028 -0.1825 -0.1319
 5125SOL    HW133367   5.984   2.135   3.937  0.5641 -0.0778 -0.2457
 5125SOL    HW233368   5.985   2.269   3.868  0.0396 -0.0996 -0.3006
 5126SOL     OW33369   5.429   4.903  10.280 -0.0836 -0.5366 -0.3066
 5126SOL    HW133370   5.503   4.935  10.332 -1.6277  0.7748  1.2199
 5126SOL    HW233371   5.373   4.980  10.269 -1.1667 -1.4645 -1.5296
 5127SOL     OW33372   1.797   3.528  11.700  0.0209 -0.0574 -0.0232
 5127SOL    HW133373   1.789   3.445  11.746 -0.8739  0.3724  0.6302
 5127SOL    HW233374   1.865   3.576  11.748  0.7365 -0.5022 -0.5679
 5128SOL     OW33375   6.832  12.940   2.863  0.4272 -0.5101  0.1530
 5128SOL    HW133376   6.809  12.970   2.776 -0.9084  0.1614  0.6998
 5128SOL    HW233377   6.852  12.847   2.852  0.4013 -0.4013 -0.8823
 5129SOL     OW33378   0.377  12.921  10.863 -0.3535 -0.0343 -0.3505
 5129SOL    HW133379   0.374  12.991  10.928  0.8487 -1.2086  1.0431
 5129SOL    HW233380   0.417  12.962  10.786 -1.1862  1.2067 -0.1474
 5130SOL     OW33381   8.602   4.845   3.825 -0.2776 -0.0856 -0.7481
 5130SOL    HW133382   8.681   4.794   3.807 -0.0948 -0.4010  0.8202
 5130SOL    HW233383   8.592   4.901   3.749 -0.4210 -2.3388 -2.4880
 5131SOL     OW33384  10.933   7.063   4.464 -0.0232  0.1311  0.3298
 5131SOL    HW133385  10.860   7.035   4.520 -1.4017  0.4644 -1.2249
 5131SOL    HW233386  10.919   7.018   4.381  1.1317  0.8000 -0.2597
 5132SOL     OW33387   2.336  13.739   7.490  0.2237 -0.0828 -0.7399
 5132SOL    HW133388   2.302  13.689   7.564  1.9310  1.6297  1.3538
 5132SOL    HW233389   2.363  13.673   7.427 -0.1178 -1.6743  0.7039
 5133SOL     OW33390   4.001   6.498   1.619  0.5742  0.1337 -0.3260
 5133SOL    HW133391   4.009   6.443   1.541 -0.0891 -0.8141  0.2560
 5133SOL    HW233392   4.086   6.541   1.626  0.3334  0.9607 -2.0897
 5134SOL     OW33393  11.058   8.951   6.122 -0.4074 -0.0351 -0.4729
 5134SOL    HW133394  11.085   8.859   6.113  1.6548  0.5188 -0.5615
 5134SOL    HW233395  11.080   8.973   6.213  1.1319  0.9039 -1.0191
 5135SOL     OW33396   6.244   8.861   4.186  0.1635  0.3102  0.3500
 5135SOL    HW133397   6.313   8.848   4.251 -0.4032  0.5168  1.0024
 5135SOL    HW233398   6.285   8.915   4.118 -0.2046  3.1816  2.2324
 5136SOL     OW33399   2.345   3.450   9.254  0.0651 -0.0452  0.7619
 5136SOL    HW133400   2.350   3.395   9.333 -0.0327 -0.6686  0.3437
 5136SOL    HW233401   2.433   3.444   9.216 -0.0874 -0.3277  0.4458
 5137SOL     OW33402   2.931   8.082   4.450 -0.1790  0.9132  0.4950
 5137SOL    HW133403   2.894   8.159   4.408  2.0386  2.2290  0.7706
 5137SOL    HW233404   2.909   8.093   4.543 -0.6477  0.7172  0.4102
 5138SOL     OW33405  13.219   5.298   7.869  0.2804 -0.1007  0.2777
 5138SOL    HW133406  13.235   5.389   7.842  0.8923 -0.4327 -0.5031
 5138SOL    HW233407  13.282   5.283   7.940  0.6000 -0.1099 -0.0083
 5139SOL     OW33408   0.408   6.059   8.542  0.0320 -0.8284  0.2283
 5139SOL    HW133409   0.356   5.985   8.510 -0.6286 -0.3570  0.1996
 5139SOL    HW233410   0.450   6.095   8.464 -0.8570 -0.2410  0.0054
 5140SOL     OW33411   8.977   8.932   6.447 -0.4661  0.1683  0.4055
 5140SOL    HW133412   9.042   8.863   6.459 -0.8999 -0.8905 -2.5812
 5140SOL    HW233413   8.894   8.889   6.466 -0.9109 -0.8074 -3.0912
 5141SOL     OW33414   7.174  12.012   6.794 -0.2445 -0.3989 -0.5790
 5141SOL    HW133415   7.078  12.009   6.796 -0.2531  0.1594  0.0883
 5141SOL    HW233416   7.202  11.955   6.866 -0.1132  0.6494  0.2241
 5142SOL     OW33417   3.295  12.189  12.032  0.1676  0.1907  0.2854
 5142SOL    HW133418   3.236  12.123  12.068 -2.4631  2.1671 -0.0580
 5142SOL    HW233419   3.261  12.204  11.943  0.0767  2.5679  0.6625
 5143SOL     OW33420  10.406  14.090  10.432  0.0001  0.2111  0.0802
 5143SOL    HW133421  10.444  14.017  10.383 -0.0534  0.6737 -0.6667
 5143SOL    HW233422  10.333  14.051  10.480 -0.0145 -0.2290 -0.2892
 5144SOL     OW33423   9.178  11.835   9.894  0.2074 -0.0963  0.2975
 5144SOL    HW133424   9.202  11.903   9.958 -0.3990 -0.4963  0.9674
 5144SOL    HW233425   9.222  11.756   9.925  0.3440 -0.1762 -0.0905
 5145SOL     OW33426   0.754   0.739   2.186 -0.2327  0.4649 -0.6055
 5145SOL    HW133427   0.692   0.796   2.140 -0.9648 -0.3333 -0.6301
 5145SOL    HW233428   0.730   0.651   2.159  2.3472  0.2081 -2.4157
 5146SOL     OW33429   9.998   4.551   3.795  0.3595  0.0529  0.4022
 5146SOL    HW133430  10.017   4.474   3.740  0.0470 -0.7975  1.4449
 5146SOL    HW233431   9.956   4.613   3.736  0.7810 -0.5033 -0.5100
 5147SOL     OW33432   0.588   0.165   2.325 -0.2751  0.4357 -0.4755
 5147SOL    HW133433   0.629   0.251   2.314 -0.0245  0.2556 -0.9757
 5147SOL    HW233434   0.498   0.184   2.351 -0.0612  0.8422 -0.0095
 5148SOL     OW33435   2.317  11.177  12.154  0.1167 -0.7307 -0.4142
 5148SOL    HW133436   2.347  11.121  12.082 -0.3913 -0.5683 -0.7588
 5148SOL    HW233437   2.347  11.264  12.130 -0.7391 -0.5369 -0.8475
 5149SOL     OW33438   1.865  11.293   9.063  0.2237  0.4815 -0.3575
 5149SOL    HW133439   1.878  11.373   9.114 -0.1007 -0.2334  0.8723
 5149SOL    HW233440   1.778  11.303   9.024  0.5679  1.1321 -0.9900
 5150SOL     OW33441   1.273   4.081   3.854  0.4597  0.4660 -0.1149
 5150SOL    HW133442   1.193   4.033   3.872 -0.2473  1.2752 -1.0004
 5150SOL    HW233443   1.331   4.060   3.928  0.2015 -1.7219 -0.4467
 5151SOL     OW33444   9.768   5.994   5.231 -0.2048  0.2320  0.0787
 5151SOL    HW133445   9.703   6.011   5.299  1.2475 -0.2363  1.6639
 5151SOL    HW233446   9.717   5.976   5.152 -2.0533 -1.7538  1.6304
 5152SOL     OW33447  13.243   3.941  11.926 -0.2365  0.8661  0.2248
 5152SOL    HW133448  13.284   3.878  11.866  0.5691  2.0745 -0.5316
 5152SOL    HW233449  13.158   3.959  11.887 -0.1652  0.8102  0.0408
 5153SOL     OW33450   3.342   5.119   3.738 -0.0925 -0.0685 -0.1376
 5153SOL    HW133451   3.282   5.098   3.666  0.9357 -0.6551 -0.8505
 5153SOL    HW233452   3.409   5.175   3.698  1.2124 -1.4533  0.0175
 5154SOL     OW33453  10.674   4.390  11.859  0.0931  0.4973  0.3795
 5154SOL    HW133454  10.619   4.468  11.856  0.4983  0.7801  0.2120
 5154SOL    HW233455  10.707   4.380  11.770 -2.8759 -2.0125 -0.6019
 5155SOL     OW33456   4.559   7.547  12.344 -0.0257  0.2586 -0.2921
 5155SOL    HW133457   4.523   7.491  12.412  0.7306  0.1399  0.0250
 5155SOL    HW233458   4.638   7.584  12.383 -0.1493  1.0219 -0.7335
 5156SOL     OW33459   0.331   3.298   9.449 -1.0148  0.0264 -1.1628
 5156SOL    HW133460   0.238   3.303   9.424 -0.7539  0.7320 -2.0627
 5156SOL    HW233461   0.348   3.205   9.461 -2.2606 -0.0157  0.7149
 5157SOL     OW33462   1.025   6.249   7.370  0.0718 -0.4000 -0.3966
 5157SOL    HW133463   1.032   6.341   7.394  0.2564 -0.5102 -0.0248
 5157SOL    HW233464   0.937   6.240   7.335 -0.1334 -0.1974  0.0659
 5158SOL     OW33465  11.028   2.751  10.382 -0.1696 -0.5050 -0.1879
 5158SOL    HW133466  11.043   2.822  10.444  0.6889  1.3774 -2.3988
 5158SOL    HW233467  11.100   2.690  10.397 -0.0627 -0.1657  0.7229
 5159SOL     OW33468  10.892   1.063   0.899  0.1736 -0.3939  0.4448
 5159SOL    HW133469  10.903   1.039   0.991  1.8481 -2.7415 -0.2885
 5159SOL    HW233470  10.980   1.060   0.862 -0.4618  0.5169 -1.2641
 5160SOL     OW33471   0.656   4.973  12.612 -0.0498  0.0906  0.6759
 5160SOL    HW133472   0.733   4.917  12.603 -0.2925 -0.2113  0.4872
 5160SOL    HW233473   0.585   4.925  12.571 -0.1482  0.7709  0.0218
 5161SOL     OW33474  10.748   6.757  10.463  0.1070  0.6404  0.2966
 5161SOL    HW133475  10.694   6.742  10.385  0.3671  0.2498  0.1882
 5161SOL    HW233476  10.717   6.841  10.498 -0.0868  0.7645 -0.1638
 5162SOL     OW33477   4.913   0.287   0.185  0.6001  0.0464 -1.1732
 5162SOL    HW133478   4.826   0.252   0.204  1.0667 -1.0525 -0.9748
 5162SOL    HW233479   4.896   0.368   0.137 -0.5893  1.9270  2.1022
 5163SOL     OW33480   5.652   4.840  11.285  0.0532 -0.3575 -0.7776
 5163SOL    HW133481   5.669   4.749  11.310 -0.6595 -0.1151  0.7046
 5163SOL    HW233482   5.731   4.888  11.312  0.1489 -0.4255 -0.9359
 5164SOL     OW33483   0.508   8.827   5.401 -0.0902  0.5497 -1.0034
 5164SOL    HW133484   0.422   8.823   5.359 -1.4982  0.6536  1.6614
 5164SOL    HW233485   0.509   8.911   5.446  0.8017 -0.0953  0.2357
 5165SOL     OW33486   3.831   1.679   7.868  0.2026 -0.2617 -0.1751
 5165SOL    HW133487   3.893   1.606   7.864  0.0806 -0.3218 -1.3534
 5165SOL    HW233488   3.869   1.746   7.812 -1.0344 -0.5018 -1.3494
 5166SOL     OW33489   8.802  11.699   7.694  0.2356 -0.4912  0.2013
 5166SOL    HW133490   8.799  11.700   7.598  0.0992 -0.9071  0.1947
 5166SOL    HW233491   8.836  11.612   7.715 -0.8615 -0.8570  0.5428
 5167SOL     OW33492   8.776   2.724  13.401 -0.0159  0.4638  0.3872
 5167SOL    HW133493   8.703   2.770  13.361  0.4708  1.5743  0.7539
 5167SOL    HW233494   8.736   2.667  13.467 -0.6826 -0.2377 -0.5918
 5168SOL     OW33495   3.503   0.517   3.303 -0.3147 -0.1787  0.2936
 5168SOL    HW133496   3.487   0.494   3.211  0.2406 -0.6052  0.3003
 5168SOL    HW233497   3.581   0.572   3.301 -0.9066  0.6755  0.4094
 5169SOL     OW33498   8.385  12.951   2.594 -0.2316 -0.0512  0.1903
 5169SOL    HW133499   8.327  12.956   2.519 -2.7681  1.2913  2.0642
 5169SOL    HW233500   8.405  13.042   2.615  2.3092 -0.4733 -0.1437
 5170SOL     OW33501  11.105  13.460   6.556 -1.4131  0.0428  0.1488
 5170SOL    HW133502  11.189  13.466   6.511 -2.0076  1.3249 -0.8453
 5170SOL    HW233503  11.046  13.516   6.505 -2.7631 -0.4802  1.0766
 5171SOL     OW33504   1.693  11.500   7.283  0.3164  0.4140 -0.9536
 5171SOL    HW133505   1.735  11.518   7.199  0.5204  3.3981 -0.3339
 5171SOL    HW233506   1.636  11.576   7.297 -1.9503 -1.4069  0.2953
 5172SOL     OW33507   5.092   4.296   7.147 -0.3343  0.1673  0.0270
 5172SOL    HW133508   5.067   4.206   7.126 -1.3116  0.3028  0.5455
 5172SOL    HW233509   5.010   4.338   7.172  0.1194  1.2026 -0.1856
 5173SOL     OW33510  13.894   1.487   5.008  0.0042  0.5982  0.2627
 5173SOL    HW133511  13.985   1.461   5.024 -0.4444 -0.9404  0.4799
 5173SOL    HW233512  13.844   1.439   5.075 -1.0806  0.4839 -0.6151
 5174SOL     OW33513   2.005   9.843  13.095  0.0789  0.3117  0.7899
 5174SOL    HW133514   2.080   9.841  13.155 -0.5467 -0.5610  1.5728
 5174SOL    HW233515   2.044   9.857  13.008  0.9727  2.1675  1.4231
 5175SOL     OW33516  13.743   4.139   0.109  0.5885  0.3337 -0.4180
 5175SOL    HW133517  13.683   4.089   0.053  0.2999  1.2720 -0.9775
 5175SOL    HW233518  13.823   4.146   0.058  0.0926  1.7920 -1.0522
 5176SOL     OW33519   7.337   0.453   6.533 -0.4819 -0.3728 -0.5016
 5176SOL    HW133520   7.356   0.412   6.618 -1.5445  2.2222  1.1322
 5176SOL    HW233521   7.261   0.405   6.499  0.1553 -1.6531 -0.1744
 5177SOL     OW33522  13.321   0.839  13.712 -0.5074  1.0444  0.3891
 5177SOL    HW133523  13.294   0.788  13.635  0.1903 -0.5278  1.1297
 5177SOL    HW233524  13.322   0.929  13.682  0.1600  0.4336 -1.5814
 5178SOL     OW33525   6.966   7.076  13.314 -0.8214  0.6106  0.9660
 5178SOL    HW133526   6.926   7.159  13.289 -0.4019  0.6585  0.4342
 5178SOL    HW233527   6.902   7.035  13.373 -1.5443  0.7949  0.3258
 5179SOL     OW33528   5.294   9.855   9.777 -0.0591  0.0071  0.3803
 5179SOL    HW133529   5.257   9.924   9.722  0.9585 -1.4923 -2.3822
 5179SOL    HW233530   5.243   9.777   9.754  3.1213 -1.6151 -1.8523
 5180SOL     OW33531   0.317   2.316   2.312 -0.5150  0.4673 -0.1025
 5180SOL    HW133532   0.227   2.288   2.295 -0.1501 -0.4081 -0.6822
 5180SOL    HW233533   0.308   2.385   2.377 -1.5458 -0.3330  0.6506
 5181SOL     OW33534   6.059   4.656   1.086  0.3500  0.3201 -0.3592
 5181SOL    HW133535   6.061   4.728   1.023 -0.1440  1.8728  1.3147
 5181SOL    HW233536   6.148   4.655   1.124  0.4973 -0.2737 -0.7138
 5182SOL     OW33537  12.703   7.463   7.122 -0.0552 -0.1773 -0.1171
 5182SOL    HW133538  12.728   7.450   7.030 -0.9390 -1.3107 -0.2234
 5182SOL    HW233539  12.631   7.402   7.135  1.0887 -1.1963  1.7884
 5183SOL     OW33540   0.405  11.594   4.028  0.7036  0.2269 -0.1916
 5183SOL    HW133541   0.380  11.503   4.015 -2.4304  0.7852  1.0142
 5183SOL    HW233542   0.322  11.643   4.022  1.6463  2.5240  2.9287
 5184SOL     OW33543   6.400   2.273   3.400  0.3607 -0.0135  0.0185
 5184SOL    HW133544   6.397   2.324   3.480 -0.0689 -0.7447  0.4778
 5184SOL    HW233545   6.315   2.229   3.396  1.0853 -1.4807  0.1638
 5185SOL     OW33546   1.444   9.171   1.947 -0.0325  0.2583 -0.0624
 5185SOL    HW133547   1.469   9.175   2.039  1.0906 -1.9790 -0.1975
 5185SOL    HW233548   1.371   9.110   1.944  1.1686 -1.2248 -0.8013
 5186SOL     OW33549   1.633  12.605   8.516  0.0515 -0.0819  0.3751
 5186SOL    HW133550   1.599  12.664   8.448  0.0354 -0.8185 -0.2750
 5186SOL    HW233551   1.573  12.531   8.515  0.3950 -0.3684  0.7877
 5187SOL     OW33552   7.818   9.000  13.105 -0.0076 -0.3763  0.0691
 5187SOL    HW133553   7.731   9.041  13.104 -0.4118 -1.1792 -2.0354
 5187SOL    HW233554   7.852   9.020  13.193 -2.0059  0.5641  0.7053
 5188SOL     OW33555   9.305   5.400   8.592 -0.3923 -0.2777  0.2183
 5188SOL    HW133556   9.281   5.311   8.617 -0.9911 -0.1636  0.0912
 5188SOL    HW233557   9.302   5.449   8.674  0.8761 -0.5604  0.4447
 5189SOL     OW33558   0.814  13.522  10.176  0.5172 -0.2245  0.0913
 5189SOL    HW133559   0.888  13.583  10.178 -0.8879  1.6403 -0.8456
 5189SOL    HW233560   0.759  13.549  10.250 -0.4478  0.1174 -0.7298
 5190SOL     OW33561   9.628  14.074   1.177 -0.1103  0.3073 -0.6025
 5190SOL    HW133562   9.624  14.061   1.082  0.3858  1.7149 -0.8352
 5190SOL    HW233563   9.692  14.144   1.189 -0.8227  0.7578  0.7056
 5191SOL     OW33564   4.499  11.387   1.386 -0.0356  0.1320  0.3407
 5191SOL    HW133565   4.465  11.300   1.407  0.3957 -0.1639 -0.1605
 5191SOL    HW233566   4.425  11.433   1.346 -0.3753  0.1334  0.9595
 5192SOL     OW33567   7.748  13.607  12.330  0.1512 -0.2930 -0.0218
 5192SOL    HW133568   7.719  13.516  12.333 -0.1757 -0.3570 -2.9117
 5192SOL    HW233569   7.822  13.607  12.270  0.4640  1.2802  0.3259
 5193SOL     OW33570   1.274   3.291   7.023 -0.0725 -0.3915  0.6154
 5193SOL    HW133571   1.213   3.225   7.056 -0.6011  0.7442  2.0237
 5193SOL    HW233572   1.359   3.263   7.057 -0.2085 -0.6581  0.7422
 5194SOL     OW33573   2.130  12.056   8.352 -0.1897 -0.6481  0.4695
 5194SOL    HW133574   2.144  12.150   8.340 -0.8496 -0.6197 -0.1495
 5194SOL    HW233575   2.065  12.033   8.286  0.1946 -1.6046  0.4082
 5195SOL     OW33576  10.907   9.123  13.962  0.3242 -0.2599  0.1050
 5195SOL    HW133577  10.906   9.183  13.888 -0.8385 -0.6365 -0.2152
 5195SOL    HW233578  10.815   9.106  13.980  0.5943 -2.5606 -0.3391
 5196SOL     OW33579   6.720  13.330   5.446  0.5046 -1.1522 -0.2043
 5196SOL    HW133580   6.747  13.241   5.422 -2.4738 -2.4791  0.8379
 5196SOL    HW233581   6.726  13.332   5.542  2.3386  0.4941 -0.2953
 5197SOL     OW33582   1.644   1.286   2.862 -0.2521 -0.1549  0.3093
 5197SOL    HW133583   1.636   1.287   2.767  0.3944 -1.3292  0.2291
 5197SOL    HW233584   1.571   1.231   2.892 -0.3302  0.0410  0.4819
 5198SOL     OW33585   9.238   5.274   9.833  0.0839  0.4288 -0.3388
 5198SOL    HW133586   9.312   5.333   9.822  0.4051 -0.2470 -2.1637
 5198SOL    HW233587   9.183   5.290   9.756 -0.5395 -0.6323 -0.1309
 5199SOL     OW33588   9.718   0.747  11.182 -0.4065  0.1525 -0.3073
 5199SOL    HW133589   9.678   0.832  11.200 -0.2884 -0.2859  2.6017
 5199SOL    HW233590   9.650   0.684  11.205 -0.1171 -0.5599 -1.3534
 5200SOL     OW33591  10.326   8.276   7.191  0.0956 -0.1051  0.1487
 5200SOL    HW133592  10.334   8.181   7.183  1.3002  0.0619 -1.0058
 5200SOL    HW233593  10.269   8.290   7.266  0.4470 -1.7334  0.7379
 5201SOL     OW33594   2.129   8.705  13.363  0.4471 -0.1971 -0.3521
 5201SOL    HW133595   2.108   8.756  13.441  2.3456 -1.6380  1.2108
 5201SOL    HW233596   2.067   8.632  13.365 -1.6036  1.3887 -2.0341
 5202SOL     OW33597  11.366   0.247   2.301 -0.1257 -0.0110  0.2666
 5202SOL    HW133598  11.389   0.333   2.266 -0.1193 -1.0977 -2.6695
 5202SOL    HW233599  11.280   0.259   2.341 -0.1821  1.3364 -0.2088
 5203SOL     OW33600   6.845   4.946   6.099  0.2401  0.1691 -0.5319
 5203SOL    HW133601   6.790   4.878   6.059 -3.0811  1.7988  0.8932
 5203SOL    HW233602   6.901   4.898   6.160 -1.3040 -1.3981 -0.2650
 5204SOL     OW33603   2.646   4.308  13.299 -0.0806 -0.0995  0.4392
 5204SOL    HW133604   2.677   4.220  13.278  0.9351  0.7277 -1.8397
 5204SOL    HW233605   2.623   4.346  13.214 -2.9597  0.9845  1.5921
 5205SOL     OW33606   1.056   2.267   6.281 -0.3152 -0.6368  0.1650
 5205SOL    HW133607   0.967   2.291   6.308 -0.4987 -0.1909 -0.7973
 5205SOL    HW233608   1.105   2.348   6.284  1.0643 -1.4006  4.1478
 5206SOL     OW33609  13.035   8.752  13.697 -0.0500  0.2311  0.1215
 5206SOL    HW133610  12.983   8.826  13.667  0.3431  0.4663  0.0126
 5206SOL    HW233611  12.990   8.720  13.774 -0.2769  0.5206  0.1103
 5207SOL     OW33612  13.237   9.755   0.253  0.2712  0.2221 -0.0582
 5207SOL    HW133613  13.244   9.782   0.345  2.6409  1.0286 -0.4162
 5207SOL    HW233614  13.219   9.836   0.206 -0.2000 -0.0737 -0.3966
 5208SOL     OW33615   0.323  12.626  11.184 -0.1835  0.1953  0.0980
 5208SOL    HW133616   0.388  12.620  11.114 -1.3011  1.5452 -1.1410
 5208SOL    HW233617   0.245  12.583  11.147  0.1314 -2.0131  1.8057
 5209SOL     OW33618   0.418   5.944   1.916  0.1448  0.3237 -0.1538
 5209SOL    HW133619   0.344   5.995   1.883 -1.6047 -1.2898  1.1015
 5209SOL    HW233620   0.412   5.860   1.872  0.1069 -0.4750  1.3012
 5210SOL     OW33621   8.264  10.829   3.839 -0.1822 -0.5019  0.2331
 5210SOL    HW133622   8.229  10.873   3.916 -2.3738 -2.8281  0.7031
 5210SOL    HW233623   8.194  10.833   3.774  0.7981 -0.4677 -0.8607
 5211SOL     OW33624   6.484   0.626   4.642  0.5525 -0.6065  0.1752
 5211SOL    HW133625   6.487   0.666   4.555 -1.2832 -0.7567  0.0119
 5211SOL    HW233626   6.392   0.630   4.667  1.2163  0.8762  2.7992
 5212SOL     OW33627   0.274   9.897   9.709  0.1542  0.1677 -0.4551
 5212SOL    HW133628   0.335   9.847   9.653  0.0094 -0.6514  0.1146
 5212SOL    HW233629   0.324   9.914   9.789 -0.0519  0.3010 -0.3560
 5213SOL     OW33630  11.419   5.226   9.992 -0.6931  0.2036  0.0803
 5213SOL    HW133631  11.371   5.187  10.065  1.0181  0.8798  1.6496
 5213SOL    HW233632  11.511   5.206  10.011 -0.1772  0.7961 -1.6662
 5214SOL     OW33633  12.705   5.077   6.932 -0.7037  0.1737  0.9646
 5214SOL    HW133634  12.794   5.055   6.959 -0.2245  0.7935 -0.0289
 5214SOL    HW233635  12.686   5.159   6.976 -0.4381  0.4943  0.4899
 5215SOL     OW33636   6.070   9.953   9.851 -0.1897  0.3011  0.3476
 5215SOL    HW133637   6.157   9.971   9.815 -0.2061 -0.0455  0.1241
 5215SOL    HW233638   6.056   9.860   9.832 -0.5570  0.3276  0.4912
 5216SOL     OW33639  11.965   7.360   1.925  0.6714 -0.4938 -0.3940
 5216SOL    HW133640  11.925   7.407   1.999 -0.0001  0.1129 -1.1138
 5216SOL    HW233641  12.039   7.313   1.963 -0.2418 -0.9915  0.8504
 5217SOL     OW33642   0.805  13.549   7.078  0.2460 -0.6630  0.4007
 5217SOL    HW133643   0.753  13.573   7.155 -0.5775  1.1522 -0.6633
 5217SOL    HW233644   0.864  13.622   7.065  0.2779 -0.8737 -0.7750
 5218SOL     OW33645   3.813  11.654  11.140  0.1909 -0.1527  0.4437
 5218SOL    HW133646   3.875  11.583  11.124  0.5304  0.2966 -0.2716
 5218SOL    HW233647   3.855  11.732  11.103 -0.2691  0.3869  1.0334
 5219SOL     OW33648   6.514   1.185   1.699  0.8104 -0.3727  0.0544
 5219SOL    HW133649   6.557   1.223   1.623  1.2001 -2.9779 -1.1285
 5219SOL    HW233650   6.502   1.093   1.676 -2.8049 -0.4106  1.4878
 5220SOL     OW33651   3.995   2.810   6.567 -0.1566 -0.0944 -0.3300
 5220SOL    HW133652   3.974   2.889   6.617 -1.2109  0.4182 -1.5400
 5220SOL    HW233653   3.916   2.756   6.574  1.1401 -1.9074  1.9501
 5221SOL     OW33654   4.344   9.563   4.839  0.0190 -0.5587 -0.5712
 5221SOL    HW133655   4.294   9.606   4.909 -0.2964  1.5505 -1.9987
 5221SOL    HW233656   4.435   9.574   4.864 -0.0073  1.8167 -1.2885
 5222SOL     OW33657  13.911   2.739   9.725 -0.3282  0.1475  0.1675
 5222SOL    HW133658  14.003   2.757   9.740 -0.1034 -0.3531 -0.5763
 5222SOL    HW233659  13.881   2.810   9.668 -0.3833  0.2517  0.3237
 5223SOL     OW33660  10.413   3.399   4.713  0.4913 -0.0711 -0.3834
 5223SOL    HW133661  10.344   3.370   4.772  1.4964 -0.8624  0.4463
 5223SOL    HW233662  10.448   3.478   4.754  1.2706 -0.6886  0.1742
 5224SOL     OW33663  12.204  11.065   9.353 -0.2288  0.4287  0.5676
 5224SOL    HW133664  12.110  11.079   9.344 -0.1933  1.1629  1.2452
 5224SOL    HW233665  12.240  11.091   9.268 -0.5200  1.2987  0.6962
 5225SOL     OW33666   5.900  11.084   2.946  0.4067  0.5288 -0.5952
 5225SOL    HW133667   5.934  11.001   2.978 -0.1608  0.0057 -1.3155
 5225SOL    HW233668   5.948  11.151   2.996 -0.7465 -0.2391  1.6770
 5226SOL     OW33669   7.577   0.830   9.298 -0.2296 -0.2231 -0.3063
 5226SOL    HW133670   7.622   0.816   9.214 -0.7468 -1.6763 -0.3749
 5226SOL    HW233671   7.647   0.829   9.363 -0.0619 -1.9558 -0.4622
 5227SOL     OW33672   3.003   0.878  11.501 -0.2001 -0.1226  0.3922
 5227SOL    HW133673   3.014   0.837  11.586  0.7055 -0.1900  0.2558
 5227SOL    HW233674   2.914   0.855  11.474 -0.4262 -0.2464  1.2336
 5228SOL     OW33675  10.189   8.269  12.529 -0.2539 -0.6979  0.3940
 5228SOL    HW133676  10.136   8.199  12.568 -1.0366 -0.8122 -0.8122
 5228SOL    HW233677  10.178   8.257  12.434 -2.1024  2.2830  0.1102
 5229SOL     OW33678   3.874   9.166   8.090  0.0233 -0.1389 -0.1772
 5229SOL    HW133679   3.842   9.229   8.025  1.1201  1.7053  0.9545
 5229SOL    HW233680   3.796   9.125   8.126 -0.9557  2.1584  0.5178
 5230SOL     OW33681   3.092   3.073   9.234  0.3548 -0.3587  0.1319
 5230SOL    HW133682   3.071   3.119   9.315  2.6905  1.2926 -0.0783
 5230SOL    HW233683   3.014   3.084   9.179  0.2338  2.0901  0.6802
 5231SOL     OW33684   8.079   3.148  11.981  0.2007 -0.3249 -0.0836
 5231SOL    HW133685   8.146   3.082  11.959  1.3155 -0.2350  2.7323
 5231SOL    HW233686   8.020   3.102  12.040  0.2273  0.8078  0.8369
 5232SOL     OW33687  10.168  11.435   8.627 -0.5987  0.0083  0.5495
 5232SOL    HW133688  10.223  11.365   8.592 -2.2313 -0.4872 -1.1792
 5232SOL    HW233689  10.131  11.399   8.708 -0.2109 -0.5312  0.4907
 5233SOL     OW33690   7.163  10.456   0.402 -0.1026  0.2411  0.3506
 5233SOL    HW133691   7.216  10.484   0.327 -0.7936  0.7149  0.0336
 5233SOL    HW233692   7.181  10.521   0.470  0.2583  0.0032  0.4883
 5234SOL     OW33693   4.610  11.503   7.978  0.0656 -0.2405 -0.7292
 5234SOL    HW133694   4.528  11.512   8.027  0.0806  0.7583 -0.8661
 5234SOL    HW233695   4.609  11.576   7.916  1.1359 -0.1092 -0.6174
 5235SOL     OW33696   3.821   8.822  13.971  0.3902  0.1696 -0.2973
 5235SOL    HW133697   3.742   8.791  13.927 -0.2237  3.0842 -1.4960
 5235SOL    HW233698   3.881   8.842  13.900  0.7859  1.4966  0.3903
 5236SOL     OW33699   4.246   5.603   0.812  0.1682 -0.0230 -0.0626
 5236SOL    HW133700   4.336   5.593   0.781  1.5665  3.6239  2.1464
 5236SOL    HW233701   4.252   5.590   0.907 -1.8090 -0.3853  0.0581
 5237SOL     OW33702   2.522   4.135   1.981 -0.5900 -0.0222  0.2700
 5237SOL    HW133703   2.521   4.071   1.911 -0.1511  1.5017 -1.1994
 5237SOL    HW233704   2.455   4.105   2.042 -0.8768 -1.4769 -0.7085
 5238SOL     OW33705   9.739   8.419  10.162  0.6526  0.5272  0.7670
 5238SOL    HW133706   9.684   8.405  10.239  1.0188  2.4736  1.4426
 5238SOL    HW233707   9.691   8.378  10.090  0.6020 -1.8860  2.0976
 5239SOL     OW33708   4.888   2.673  14.001  1.0765 -0.3365  0.8011
 5239SOL    HW133709   4.837   2.602  14.040  0.6865  0.2544  1.3873
 5239SOL    HW233710   4.969   2.631  13.970  0.5524 -1.1524  0.5089
 5240SOL     OW33711  11.407   0.182  10.292 -0.1648 -0.2828  0.1419
 5240SOL    HW133712  11.499   0.185  10.320 -0.1802 -0.7572  0.2455
 5240SOL    HW233713  11.364   0.249  10.345 -0.2831 -1.4716  1.6075
 5241SOL     OW33714  11.709  11.487   0.545 -0.3139 -0.5591 -0.3379
 5241SOL    HW133715  11.638  11.424   0.532 -1.1696  0.1359  0.8303
 5241SOL    HW233716  11.695  11.552   0.476  0.2997 -1.3721 -1.2590
 5242SOL     OW33717   6.986   1.701   5.876 -0.1317 -0.1296 -0.4086
 5242SOL    HW133718   6.914   1.640   5.890  0.0463  0.0154  1.3503
 5242SOL    HW233719   7.034   1.702   5.959  0.7468  1.2699 -0.8876
 5243SOL     OW33720  12.423   3.937  12.454  0.5441  0.1259  0.0062
 5243SOL    HW133721  12.337   3.917  12.415  1.0771 -1.9624 -0.2187
 5243SOL    HW233722  12.403   3.998  12.525 -1.4272 -1.7580  1.2061
 5244SOL     OW33723   9.551  10.580   1.373 -0.0741  0.5959  0.6680
 5244SOL    HW133724   9.520  10.581   1.464 -1.7909 -0.9031  0.1591
 5244SOL    HW233725   9.486  10.631   1.325  1.1040  1.8163  0.3194
 5245SOL     OW33726   4.818   0.847   3.035  0.0263  0.4814  0.0731
 5245SOL    HW133727   4.842   0.922   2.982  0.1210  0.0031 -0.5721
 5245SOL    HW233728   4.722   0.846   3.034  0.0255  0.6306  0.1336
 5246SOL     OW33729   0.635   0.867  10.671 -0.2122 -0.1402  0.1808
 5246SOL    HW133730   0.676   0.881  10.757 -0.7113  1.4554  0.2039
 5246SOL    HW233731   0.689   0.918  10.611  1.2537 -2.7474 -0.8445
 5247SOL     OW33732  14.021   7.533  10.755  0.0070  0.4787  0.1406
 5247SOL    HW133733  13.990   7.563  10.840 -1.6452 -0.9991  0.1202
 5247SOL    HW233734  14.034   7.613  10.704  0.4254  1.3507  1.5636
 5248SOL     OW33735  11.840   0.689   3.820 -0.3404 -0.8068 -0.3752
 5248SOL    HW133736  11.926   0.712   3.784 -0.9019 -1.9197 -2.6055
 5248SOL    HW233737  11.850   0.701   3.914  1.0509  2.8987 -0.8221
 5249SOL     OW33738   2.480   0.226   4.338  0.1058 -0.1339 -0.5676
 5249SOL    HW133739   2.509   0.136   4.346  1.5101  0.3509  0.1579
 5249SOL    HW233740   2.406   0.233   4.399  0.3872 -0.6370 -0.1593
 5250SOL     OW33741   5.998  13.870   3.965 -0.1702  0.0032 -0.6084
 5250SOL    HW133742   6.032  13.780   3.971 -0.7294 -0.1253  1.8379
 5250SOL    HW233743   6.074  13.923   3.944  0.9609 -0.6642  1.5178
 5251SOL     OW33744   4.603  12.359   4.843  0.5017  0.0683 -0.3975
 5251SOL    HW133745   4.621  12.450   4.818 -0.1402 -0.2327 -2.1259
 5251SOL    HW233746   4.547  12.326   4.773 -0.6134 -1.1977  1.0248
 5252SOL     OW33747   7.506   4.345   1.109 -0.4878  0.4952 -0.2014
 5252SOL    HW133748   7.417   4.376   1.123  0.2745  2.7274  0.0532
 5252SOL    HW233749   7.560   4.402   1.164  1.2546  0.3823 -1.7060
 5253SOL     OW33750   2.579   9.087   5.076  0.3455  0.1314  0.1028
 5253SOL    HW133751   2.602   9.082   5.168 -0.3006  0.6285  0.2963
 5253SOL    HW233752   2.537   9.173   5.066 -1.2546 -0.6433 -0.2535
 5254SOL     OW33753  13.705   8.874   8.150 -0.4552 -0.1409  0.5183
 5254SOL    HW133754  13.719   8.967   8.131 -0.7946 -0.6039 -2.3829
 5254SOL    HW233755  13.623   8.871   8.198 -0.5021  1.0317  0.5331
 5255SOL     OW33756   7.002   2.449  10.232 -0.1691 -0.2845  0.1997
 5255SOL    HW133757   6.983   2.498  10.312  1.7070 -1.1515  1.2292
 5255SOL    HW233758   7.097   2.436  10.233 -0.1354 -0.6637 -1.9807
 5256SOL     OW33759  10.807   7.174   7.084 -0.0816 -0.2115 -0.3325
 5256SOL    HW133760  10.843   7.087   7.103 -0.3789  0.1715  2.3606
 5256SOL    HW233761  10.883   7.226   7.057  0.5872 -0.6709  0.5904
 5257SOL     OW33762   0.085   1.084  12.275 -0.0342 -0.2388  0.0424
 5257SOL    HW133763   0.080   1.178  12.290 -0.7233 -0.1415 -0.7509
 5257SOL    HW233764   0.159   1.055  12.330  0.1531  0.7443  0.3277
 5258SOL     OW33765   1.173   5.171   0.232  0.8139 -0.1960 -0.6830
 5258SOL    HW133766   1.146   5.082   0.207  0.5570 -0.0084 -1.0824
 5258SOL    HW233767   1.249   5.157   0.288 -0.4610 -0.7559  0.9754
 5259SOL     OW33768   8.986   4.508  11.185 -0.4095  0.3634  0.2058
 5259SOL    HW133769   9.076   4.511  11.154 -0.1033  0.6936  1.0969
 5259SOL    HW233770   8.960   4.416  11.175  0.4287  0.0136  1.0197
 5260SOL     OW33771   4.669  12.855  12.876  0.0639  0.1737  0.3420
 5260SOL    HW133772   4.762  12.878  12.879  0.0753  0.0644  0.8954
 5260SOL    HW233773   4.624  12.938  12.855  0.3843 -0.0489 -1.3904
 5261SOL     OW33774  10.900   3.210  13.441 -0.0079 -0.2513  0.4193
 5261SOL    HW133775  10.911   3.224  13.347 -1.2261 -1.2116  0.1210
 5261SOL    HW233776  10.989   3.196  13.473  0.2680 -2.0387 -0.9599
 5262SOL     OW33777   3.927  10.730   1.084 -0.1559 -0.6715 -0.3545
 5262SOL    HW133778   3.842  10.727   1.129  0.4149  0.3411  0.8668
 5262SOL    HW233779   3.909  10.777   1.003 -0.6310  0.2159  0.2469
 5263SOL     OW33780   7.087   9.169   7.636  0.5659 -0.1711 -0.2311
 5263SOL    HW133781   7.142   9.129   7.704  0.2301  1.2230  0.8999
 5263SOL    HW233782   7.023   9.221   7.684 -0.3738 -0.0122 -1.6013
 5264SOL     OW33783  11.687   2.243   8.063  0.1985 -0.2686  0.4234
 5264SOL    HW133784  11.727   2.279   8.142  1.9077 -0.8129 -0.1503
 5264SOL    HW233785  11.683   2.148   8.079  1.7029 -0.5358 -0.5831
 5265SOL     OW33786  13.664  12.746   1.800 -0.3123  0.2569 -0.2396
 5265SOL    HW133787  13.583  12.699   1.783 -0.6465  0.1956  1.3312
 5265SOL    HW233788  13.733  12.688   1.769 -0.7802 -0.7287  0.5072
 5266SOL     OW33789   6.532   9.358   2.281 -0.0755  0.0155  0.0113
 5266SOL    HW133790   6.519   9.263   2.282 -2.5138  0.2758 -0.0358
 5266SOL    HW233791   6.526   9.382   2.189 -1.3012  0.3633  0.1562
 5267SOL     OW33792   0.164   9.353   3.589  0.4285  0.2316 -0.0474
 5267SOL    HW133793   0.230   9.357   3.520 -0.4796 -2.1069 -1.1670
 5267SOL    HW233794   0.081   9.369   3.544 -0.0223  0.2947  0.7957
 5268SOL     OW33795   4.562   7.873   5.057  0.0488  0.2297  0.3535
 5268SOL    HW133796   4.643   7.822   5.060  0.6988  1.2707  1.1203
 5268SOL    HW233797   4.590   7.962   5.036 -1.1118  0.2280 -1.5374
 5269SOL     OW33798   2.842   8.327   4.291 -0.4431  0.0912  0.1661
 5269SOL    HW133799   2.803   8.251   4.247  0.7740 -0.2435 -0.3909
 5269SOL    HW233800   2.784   8.400   4.269 -2.2786 -0.8323  1.6472
 5270SOL     OW33801  10.823  10.423  10.215  0.0364 -0.1704  0.0261
 5270SOL    HW133802  10.832  10.335  10.253  1.2194 -0.3101 -0.5446
 5270SOL    HW233803  10.731  10.446  10.229 -0.6027 -1.9916 -0.8797
 5271SOL     OW33804  12.868   7.053   3.108  0.0245 -0.5591  0.3438
 5271SOL    HW133805  12.805   7.066   3.180  0.6013 -0.0663  0.7663
 5271SOL    HW233806  12.837   6.974   3.064 -0.5248 -0.6888  0.9434
 5272SOL     OW33807  11.965   4.341   9.636 -0.1154  0.1384 -0.5335
 5272SOL    HW133808  11.947   4.351   9.730 -1.2887  0.3933 -0.7720
 5272SOL    HW233809  11.966   4.247   9.621  1.0020  0.0680 -0.1082
 5273SOL     OW33810   7.939   0.509   4.185  0.0478  0.3070 -0.2643
 5273SOL    HW133811   7.906   0.521   4.274 -0.3832  0.7453 -0.4771
 5273SOL    HW233812   7.980   0.423   4.186  2.3252  1.3210  1.0445
 5274SOL     OW33813   1.252  10.207  12.131  0.0097  0.0700 -0.2919
 5274SOL    HW133814   1.315  10.246  12.071 -0.6179  1.9897  0.2114
 5274SOL    HW233815   1.296  10.208  12.216  0.1586 -0.7644 -0.3587
 5275SOL     OW33816   8.932  10.516  13.154 -0.4920  0.3187  0.3809
 5275SOL    HW133817   9.006  10.473  13.197 -0.7709 -0.1699  0.3792
 5275SOL    HW233818   8.921  10.469  13.072 -1.3410 -0.1771  0.7637
 5276SOL     OW33819   0.558  13.042   5.513 -0.0758 -0.1393  0.3037
 5276SOL    HW133820   0.490  13.105   5.537 -0.6899  0.1235 -1.8790
 5276SOL    HW233821   0.610  13.031   5.593 -2.4961 -0.1718  1.9777
 5277SOL     OW33822   6.078  12.605   4.885  0.0273  0.3191  0.0534
 5277SOL    HW133823   6.066  12.544   4.958  1.3200  1.0581  0.9333
 5277SOL    HW233824   6.013  12.578   4.820  2.1647 -3.5826 -0.7106
 5278SOL     OW33825   6.240   1.025   9.254 -0.7843  0.8463 -0.2578
 5278SOL    HW133826   6.248   1.067   9.168 -1.9974 -0.6006 -1.1300
 5278SOL    HW233827   6.323   1.043   9.298  0.0733  1.1846 -1.9436
 5279SOL     OW33828   8.816   9.084  11.197 -0.2767  0.2552  0.0110
 5279SOL    HW133829   8.729   9.064  11.164 -1.2879  0.7925  2.1960
 5279SOL    HW233830   8.816   9.052  11.287  1.9487 -0.1260 -0.0498
 5280SOL     OW33831   5.184  10.060   9.618  0.0691 -0.3499  0.0458
 5280SOL    HW133832   5.144  10.118   9.684  2.1439  0.7148  0.4850
 5280SOL    HW233833   5.197  10.116   9.542 -1.6938 -1.4038 -1.0885
 5281SOL     OW33834  13.629  10.885   0.183 -0.6328  0.2447 -0.2314
 5281SOL    HW133835  13.656  10.814   0.240 -1.5509  0.5584  0.6255
 5281SOL    HW233836  13.710  10.930   0.159 -0.2344  0.1080  0.8399
 5282SOL     OW33837   4.211   9.246   7.277  0.3514 -0.4261 -0.5086
 5282SOL    HW133838   4.282   9.188   7.304  0.4427 -0.5241 -0.9500
 5282SOL    HW233839   4.132   9.202   7.305  0.3891 -1.0398 -1.3228
 5283SOL     OW33840  12.844   1.662  12.048  0.7526  0.4720  0.1999
 5283SOL    HW133841  12.879   1.751  12.056  0.2749  0.5492  1.8993
 5283SOL    HW233842  12.897   1.622  11.979  0.1788  2.4146 -1.4834
 5284SOL     OW33843   0.159   6.048  14.103  0.0329 -0.2547 -0.2662
 5284SOL    HW133844   0.228   6.075  14.043 -0.3854 -0.0115 -0.6487
 5284SOL    HW233845   0.140   6.127  14.154  1.4004 -0.8370  1.2219
 5285SOL     OW33846  11.282   8.473   8.930  0.1843 -0.0266 -0.3332
 5285SOL    HW133847  11.242   8.558   8.948  0.2324 -0.3724  1.6324
 5285SOL    HW233848  11.208   8.414   8.914  0.0568  0.0148  0.0912
 5286SOL     OW33849  10.984   9.994  12.823  1.0449 -0.4391  0.2512
 5286SOL    HW133850  11.012   9.903  12.826  1.2340 -0.3548  3.2099
 5286SOL    HW233851  10.922  10.004  12.895  1.5622  1.9513  0.4724
 5287SOL     OW33852   2.814  11.307   0.181 -0.1709 -0.0852 -0.4017
 5287SOL    HW133853   2.782  11.389   0.144 -1.3092  0.0625  0.8384
 5287SOL    HW233854   2.909  11.317   0.182 -0.2576  0.9520 -0.8540
 5288SOL     OW33855   3.878  11.145   8.403 -0.1494 -0.2038 -0.5766
 5288SOL    HW133856   3.905  11.096   8.480 -1.0139 -2.0842 -1.4076
 5288SOL    HW233857   3.945  11.212   8.392  1.3679 -1.5100  0.3165
 5289SOL     OW33858  13.902   5.300   5.001 -0.1116 -0.1918  0.2612
 5289SOL    HW133859  13.814   5.338   4.994 -0.2298 -0.6766 -1.0001
 5289SOL    HW233860  13.897   5.218   4.953  1.1919  0.0453 -0.3287
 5290SOL     OW33861   5.146   0.819   9.250 -0.6646 -0.1036  0.3587
 5290SOL    HW133862   5.070   0.875   9.236 -0.3287  0.2735  0.0260
 5290SOL    HW233863   5.155   0.815   9.345 -1.7249 -1.0099  0.4381
 5291SOL     OW33864   1.305   1.960  12.813 -0.3982 -0.0430 -0.0213
 5291SOL    HW133865   1.371   1.935  12.748 -2.1367 -2.3764 -1.0490
 5291SOL    HW233866   1.229   1.907  12.791 -1.8969  0.8989  2.4803
 5292SOL     OW33867  10.502   6.543  10.824  0.3312 -0.2989  0.2524
 5292SOL    HW133868  10.545   6.565  10.906  1.1155  0.7741 -0.4235
 5292SOL    HW233869  10.573   6.533  10.761 -0.3098 -0.1628 -0.5096
 5293SOL     OW33870   0.839  14.018   2.606  0.1957  0.4883 -0.1312
 5293SOL    HW133871   0.773  14.031   2.538  1.4251  0.7224 -1.3246
 5293SOL    HW233872   0.862  14.107   2.633 -0.5976  0.3875  0.9341
 5294SOL     OW33873   8.785   0.445   9.392 -0.4362 -0.3383  0.4357
 5294SOL    HW133874   8.858   0.395   9.428  1.4067  0.4379 -1.9500
 5294SOL    HW233875   8.756   0.501   9.465 -1.2482 -3.2700  2.5477
 5295SOL     OW33876  13.272   2.374   6.186  0.0158 -0.1123 -0.5266
 5295SOL    HW133877  13.257   2.411   6.099  0.6033  2.4004  0.3632
 5295SOL    HW233878  13.329   2.437   6.230  0.7558 -1.9251  1.2890
 5296SOL     OW33879   7.345  12.923  12.675 -0.1586 -0.1245 -0.0455
 5296SOL    HW133880   7.261  12.951  12.637 -1.8765 -2.0071  2.1114
 5296SOL    HW233881   7.340  12.951  12.766 -0.0826 -3.3434  1.0618
 5297SOL     OW33882   6.662   5.160   2.371 -0.0157  0.1131 -0.0867
 5297SOL    HW133883   6.724   5.134   2.439  0.0976 -0.2749 -0.3371
 5297SOL    HW233884   6.590   5.202   2.419 -0.4554 -1.1188  0.3898
 5298SOL     OW33885   5.647  12.102   9.974 -0.0320  0.2287  0.1426
 5298SOL    HW133886   5.554  12.108   9.996 -0.0427  0.0756  0.1425
 5298SOL    HW233887   5.685  12.047  10.042 -0.3645 -1.5666 -1.0418
 5299SOL     OW33888   6.315   2.716   7.936 -0.2169  0.3186 -0.8294
 5299SOL    HW133889   6.336   2.636   7.887  0.5712  0.9217 -1.4934
 5299SOL    HW233890   6.386   2.724   8.000 -0.5554  0.2450 -0.4330
 5300SOL     OW33891  12.802  10.183   5.067  0.7200 -0.1270  0.5360
 5300SOL    HW133892  12.786  10.107   5.012  0.6452 -0.0027  0.3853
 5300SOL    HW233893  12.897  10.186   5.076  0.7303 -0.1703  0.4457
 5301SOL     OW33894  11.080   0.023   2.688  0.0184 -0.2690 -0.3296
 5301SOL    HW133895  11.029  -0.039   2.740 -0.7698 -0.0093 -0.7897
 5301SOL    HW233896  11.067  -0.005   2.597  0.3498  0.0607 -0.4822
 5302SOL     OW33897   6.625  12.643  10.452 -0.3101 -0.7977 -0.0985
 5302SOL    HW133898   6.661  12.555  10.464  1.2893 -0.2863 -0.8225
 5302SOL    HW233899   6.566  12.635  10.377  0.9797 -0.9854 -1.1307
 5303SOL     OW33900   6.554   8.212   5.094 -0.0040  0.2534  0.2816
 5303SOL    HW133901   6.472   8.230   5.047  0.3553  0.4188 -0.2956
 5303SOL    HW233902   6.531   8.141   5.154 -1.0328  1.5256  1.4527
 5304SOL     OW33903  12.089   3.340   6.803  0.5018 -0.3989  0.2927
 5304SOL    HW133904  12.085   3.284   6.725  0.6617 -0.5824  0.4163
 5304SOL    HW233905  12.163   3.399   6.788 -0.8504  1.1225 -0.7330
 5305SOL     OW33906   6.588   4.175   9.894  0.1063 -0.1191 -0.1552
 5305SOL    HW133907   6.529   4.161   9.968  1.5285 -0.4615  0.9608
 5305SOL    HW233908   6.552   4.120   9.824  0.2201 -1.9084  1.1325
 5306SOL     OW33909   5.350   6.027   7.213  0.1519  1.1768 -0.0671
 5306SOL    HW133910   5.377   6.060   7.298  0.3992  2.3467 -0.5849
 5306SOL    HW233911   5.415   6.062   7.152  1.5180 -1.6850 -0.4731
 5307SOL     OW33912  12.402   0.065   3.491 -0.3459 -0.0165 -0.3835
 5307SOL    HW133913  12.395   0.088   3.584 -0.5503 -0.3800 -0.3058
 5307SOL    HW233914  12.450   0.138   3.452 -0.2584  0.1404  0.0083
 5308SOL     OW33915   6.572  12.106  12.890  0.5663 -0.2527 -0.3577
 5308SOL    HW133916   6.662  12.136  12.898  0.9670 -1.7431  1.5766
 5308SOL    HW233917   6.550  12.074  12.978 -2.2263  1.0506 -0.4939
 5309SOL     OW33918  12.016   5.299   9.479 -0.5574  0.3912  1.1163
 5309SOL    HW133919  12.057   5.307   9.393 -1.6376  2.2962  0.7218
 5309SOL    HW233920  12.016   5.205   9.497 -1.3694 -0.1873 -1.5048
 5310SOL     OW33921   1.454   2.002  10.658 -0.2903  0.4472 -0.2103
 5310SOL    HW133922   1.416   2.087  10.633  0.0177  0.3535 -1.0310
 5310SOL    HW233923   1.534   2.025  10.705  0.2942  0.6185 -1.2511
 5311SOL     OW33924   2.813  12.794   9.315 -0.1713 -0.1974 -0.6204
 5311SOL    HW133925   2.812  12.727   9.247  0.5221 -1.6764  0.7624
 5311SOL    HW233926   2.896  12.781   9.361  0.6970  2.5835 -1.1867
 5312SOL     OW33927   0.879  13.637  13.128  0.1879  0.1182  0.2120
 5312SOL    HW133928   0.923  13.720  13.110  3.3064 -1.7196 -1.7919
 5312SOL    HW233929   0.945  13.586  13.176 -1.0428 -1.6671  0.0865
 5313SOL     OW33930   8.262  11.398   0.745 -0.3677 -0.0525 -0.2175
 5313SOL    HW133931   8.297  11.319   0.703 -0.1239 -0.0779  0.0259
 5313SOL    HW233932   8.340  11.449   0.768 -0.5580  1.1517 -2.0409
 5314SOL     OW33933   7.751  10.624   6.687 -0.2227  0.0139 -0.0511
 5314SOL    HW133934   7.678  10.677   6.719 -0.3397  0.2130 -0.6268
 5314SOL    HW233935   7.719  10.587   6.604  0.3136  0.0774 -0.2900
 5315SOL     OW33936   4.581   1.538  12.763  0.2858  0.8913 -0.0203
 5315SOL    HW133937   4.646   1.468  12.765 -1.1978 -0.7036 -2.3309
 5315SOL    HW233938   4.622   1.607  12.711  0.2822  0.0181 -1.2206
 5316SOL     OW33939   5.074   4.751   1.338  0.1499 -0.5134 -0.1323
 5316SOL    HW133940   5.078   4.756   1.433  2.4496  0.9430 -0.2323
 5316SOL    HW233941   5.087   4.658   1.318 -0.1194 -0.7907  0.9641
 5317SOL     OW33942  12.994  13.564   4.479 -0.0999 -0.3082  0.3153
 5317SOL    HW133943  13.019  13.531   4.393  0.0887 -1.1802  0.6901
 5317SOL    HW233944  12.910  13.522   4.498 -0.2591  0.0647  0.4657
 5318SOL     OW33945   0.557   3.686   3.283  0.2237 -0.6261 -0.1867
 5318SOL    HW133946   0.627   3.682   3.348  0.4614 -1.4183 -0.4825
 5318SOL    HW233947   0.583   3.756   3.223  0.6317 -0.7430 -0.1441
 5319SOL     OW33948   5.672   2.759   4.289  0.4556  0.2499  0.0800
 5319SOL    HW133949   5.607   2.794   4.228  0.0338 -1.0456 -0.2405
 5319SOL    HW233950   5.627   2.759   4.374  0.0942 -0.4461 -0.1036
 5320SOL     OW33951   1.719   8.841   7.703 -0.5195 -0.3383  0.0517
 5320SOL    HW133952   1.677   8.797   7.777 -2.4623  0.0320 -0.7479
 5320SOL    HW233953   1.732   8.931   7.733  1.3999 -0.8621  0.9123
 5321SOL     OW33954   8.412   9.472   7.297 -0.0102 -0.4089  0.0876
 5321SOL    HW133955   8.480   9.408   7.319 -1.8850 -2.5052  0.2415
 5321SOL    HW233956   8.334   9.441   7.345 -1.0427  1.9624  0.0579
 5322SOL     OW33957   6.568   7.808   5.772  0.3247 -0.6155 -0.3465
 5322SOL    HW133958   6.490   7.863   5.782  1.3227  0.6675  0.8867
 5322SOL    HW233959   6.534   7.721   5.752 -1.2788  0.7218 -4.3366
 5323SOL     OW33960  12.746   1.111   0.478  0.4932 -0.3486  0.3801
 5323SOL    HW133961  12.827   1.117   0.427  0.1836 -0.2413 -0.1037
 5323SOL    HW233962  12.771   1.141   0.566  0.1419  3.6946 -0.6828
 5324SOL     OW33963   6.255   4.863  10.749 -0.5368  0.0571  0.2158
 5324SOL    HW133964   6.220   4.794  10.804 -2.5825  0.4251 -0.5535
 5324SOL    HW233965   6.311   4.818  10.686 -1.1492 -0.7872  0.2731
 5325SOL     OW33966   6.075   9.502  10.209  0.0067  0.1994 -0.1651
 5325SOL    HW133967   6.106   9.511  10.300  0.4855  2.7238 -0.5036
 5325SOL    HW233968   6.148   9.461  10.163 -0.0363 -0.6087  0.4516
 5326SOL     OW33969   9.187  12.667   2.619  0.3375 -0.3802 -0.0428
 5326SOL    HW133970   9.130  12.610   2.670 -0.3545  1.4890  1.4024
 5326SOL    HW233971   9.135  12.746   2.603  2.1023  0.9430  0.3696
 5327SOL     OW33972   6.405   0.236  10.483 -0.2336  0.4712 -0.1473
 5327SOL    HW133973   6.483   0.181  10.486 -0.1548  0.3801 -2.3219
 5327SOL    HW233974   6.337   0.180  10.446 -0.8947  1.0532  0.1543
 5328SOL     OW33975   4.495  13.979   0.462 -0.1343  0.1486  0.2276
 5328SOL    HW133976   4.587  13.954   0.460  0.1664  1.2498 -0.5291
 5328SOL    HW233977   4.481  14.011   0.551 -0.4680 -2.3488  1.1454
 5329SOL     OW33978   1.787  10.780   6.769 -0.1488  0.0368 -0.1063
 5329SOL    HW133979   1.778  10.873   6.788 -0.6552 -0.5524  3.1167
 5329SOL    HW233980   1.697  10.747   6.768 -0.1001 -0.2443 -2.8297
 5330SOL     OW33981  13.876  12.575   2.482 -0.5514 -0.1257  0.3122
 5330SOL    HW133982  13.964  12.575   2.520  0.0444 -0.2012 -1.0046
 5330SOL    HW233983  13.862  12.484   2.456 -1.2105 -0.2015  0.9254
 5331SOL     OW33984   8.101   9.318   4.157 -0.5645 -0.5032 -0.1511
 5331SOL    HW133985   8.139   9.244   4.205 -0.1283 -1.1316 -1.4255
 5331SOL    HW233986   8.164   9.336   4.088  0.1868  2.1671  1.0827
 5332SOL     OW33987   9.523   7.005   3.855 -0.3552 -0.3256  0.8154
 5332SOL    HW133988   9.570   6.987   3.774  0.2788  1.4261  0.7474
 5332SOL    HW233989   9.503   7.099   3.851  0.2071 -0.0542  2.9214
 5333SOL     OW33990   7.046   3.503   3.265 -0.0650  0.2534 -0.0388
 5333SOL    HW133991   6.995   3.440   3.316 -0.0892  0.5801  0.3409
 5333SOL    HW233992   6.996   3.515   3.184  0.2913 -0.7515 -0.4282
 5334SOL     OW33993   0.163   2.367   6.423 -0.5075  0.1085 -0.4896
 5334SOL    HW133994   0.201   2.281   6.406  0.0339  0.2672 -0.0825
 5334SOL    HW233995   0.198   2.393   6.508 -2.0812 -0.0572  0.2577
 5335SOL     OW33996   5.664  12.981   3.455 -0.3090  0.0888 -0.0659
 5335SOL    HW133997   5.596  12.943   3.399 -0.9869  0.4610  0.4886
 5335SOL    HW233998   5.665  12.926   3.533  0.8149 -0.5832 -0.5287
 5336SOL     OW33999   0.832   1.850   1.892 -0.5475  0.0548 -0.2617
 5336SOL    HW134000   0.803   1.926   1.941  0.4288  0.3211 -0.0705
 5336SOL    HW234001   0.923   1.836   1.920 -1.0575 -1.9064  0.6177
 5337SOL     OW34002  13.128   3.392   3.926  0.2414  0.6800 -0.1037
 5337SOL    HW134003  13.130   3.378   3.831 -1.4248  0.0512 -0.0834
 5337SOL    HW234004  13.040   3.364   3.952  0.8262  0.3924  1.6974
 5338SOL     OW34005   7.491   6.180   4.206 -0.2915 -0.6217 -0.3612
 5338SOL    HW134006   7.524   6.105   4.157 -0.8874 -0.2879 -1.2952
 5338SOL    HW234007   7.446   6.234   4.141  0.6464  0.8643  0.1687
 5339SOL     OW34008  13.304  14.149  10.196  0.4297 -0.1700  0.4366
 5339SOL    HW134009  13.313  14.243  10.188  1.2610 -0.2479  0.3724
 5339SOL    HW234010  13.359  14.113  10.127 -0.7316 -0.6968 -0.2401
 5340SOL     OW34011  11.048   7.363   5.233  0.4703  0.6112  0.0929
 5340SOL    HW134012  11.090   7.344   5.317  0.8862  1.0196 -0.0149
 5340SOL    HW234013  10.957   7.385   5.255  0.1587 -0.8129  0.2768
 5341SOL     OW34014   4.754   6.022   4.122 -0.3286 -0.0786  0.0623
 5341SOL    HW134015   4.745   6.047   4.030 -0.2495  0.1183  0.1065
 5341SOL    HW234016   4.664   6.019   4.154 -0.3557 -0.1311 -0.0169
 5342SOL     OW34017   2.112   9.066  10.641 -0.1674 -0.0478  0.1477
 5342SOL    HW134018   2.168   9.025  10.575  0.7212  1.0313  0.1931
 5342SOL    HW234019   2.145   9.156  10.648 -2.9079  1.1716 -1.0073
 5343SOL     OW34020   9.510   6.139  12.247 -0.0320 -0.3006  0.3568
 5343SOL    HW134021   9.605   6.133  12.257 -0.0874 -1.3378  0.3346
 5343SOL    HW234022   9.495   6.130  12.152 -0.1196  0.4851  0.2876
 5344SOL     OW34023  14.134  12.515   1.037 -0.1575  0.4719 -0.3601
 5344SOL    HW134024  14.160  12.567   0.961 -0.6405  1.5702  0.1970
 5344SOL    HW234025  14.173  12.561   1.111 -0.2842 -0.1819  0.1198
 5345SOL     OW34026   5.767  11.873  13.879  0.1094 -0.2673  1.0358
 5345SOL    HW134027   5.725  11.896  13.962  1.0795  0.2914  1.3871
 5345SOL    HW234028   5.776  11.778  13.882  1.3237 -0.1475  2.1814
 5346SOL     OW34029  12.510   2.303  12.525  0.1328  0.2104  0.5457
 5346SOL    HW134030  12.531   2.337  12.612  1.8968 -0.5875  0.4678
 5346SOL    HW234031  12.543   2.370  12.465  1.5263 -0.5351  0.4484
 5347SOL     OW34032   4.995  10.783   3.346 -0.4217 -0.6820 -0.0973
 5347SOL    HW134033   5.090  10.788   3.349 -0.2913 -2.7059  0.1958
 5347SOL    HW234034   4.975  10.746   3.260 -0.9230 -0.6486  0.0003
 5348SOL     OW34035   1.730   7.217   7.724 -0.8854  0.4275  0.2271
 5348SOL    HW134036   1.787   7.280   7.769  0.4793 -0.2845 -0.4410
 5348SOL    HW234037   1.773   7.132   7.737 -1.3620 -0.0196 -0.9772
 5349SOL     OW34038  12.637  11.108   2.585  0.7841  1.3679 -0.1836
 5349SOL    HW134039  12.597  11.156   2.513 -0.4504  2.0989  0.9294
 5349SOL    HW234040  12.701  11.170   2.621  1.5225  0.9402 -0.7444
 5350SOL     OW34041  13.243   5.156   6.158  0.7999  0.2793 -0.8786
 5350SOL    HW134042  13.240   5.243   6.198 -0.2911 -0.3840  0.5503
 5350SOL    HW234043  13.231   5.173   6.064  0.3828  1.6550 -0.6028
 5351SOL     OW34044   7.047   4.673  12.851 -0.4214  0.5956 -0.4183
 5351SOL    HW134045   7.070   4.605  12.914  0.2936 -1.0766 -2.3496
 5351SOL    HW234046   6.956   4.693  12.869 -1.0929 -1.9359 -0.6506
 5352SOL     OW34047   2.699   2.158  13.733  0.1179  0.0534  0.1327
 5352SOL    HW134048   2.684   2.156  13.828 -0.2270 -1.5829  0.0692
 5352SOL    HW234049   2.698   2.251  13.711  0.8006  0.4994  1.8236
 5353SOL     OW34050   4.531   0.020   2.574  0.1173 -0.4497 -0.0252
 5353SOL    HW134051   4.588  -0.013   2.644  0.6022 -1.1935 -0.7613
 5353SOL    HW234052   4.579   0.093   2.536 -0.4493  0.4118  0.8405
 5354SOL     OW34053   3.988   0.519   1.990  0.0325  0.0239  1.0060
 5354SOL    HW134054   4.015   0.428   1.994 -0.0063  0.0266  1.3702
 5354SOL    HW234055   3.942   0.534   2.072 -0.2735  0.2732  0.7922
 5355SOL     OW34056   9.790  10.863   3.472 -0.0354 -0.3738 -0.7703
 5355SOL    HW134057   9.713  10.824   3.513  0.0261  1.0871  0.8825
 5355SOL    HW234058   9.856  10.793   3.473 -0.8695 -1.1697 -0.7931
 5356SOL     OW34059   2.525  11.265   9.458  0.1890  0.4703 -0.8225
 5356SOL    HW134060   2.470  11.190   9.482  1.7989 -1.4714 -2.8314
 5356SOL    HW234061   2.483  11.301   9.380  1.4360 -0.7337 -2.0904
 5357SOL     OW34062   5.710   8.138   2.614  0.2466  0.4006  0.4124
 5357SOL    HW134063   5.623   8.128   2.575  0.8128 -2.4880 -0.3011
 5357SOL    HW234064   5.696   8.200   2.686 -1.9885  1.4628 -0.7868
 5358SOL     OW34065   1.041  13.552   3.163  0.5322 -0.2647  0.0724
 5358SOL    HW134066   0.945  13.560   3.161  0.5923  0.8332  0.7208
 5358SOL    HW234067   1.067  13.597   3.243  1.8051  2.2808 -1.6068
 5359SOL     OW34068   6.478   2.003   9.280  0.6715  0.8697 -0.0872
 5359SOL    HW134069   6.447   2.024   9.368  1.4992 -1.4873  0.8545
 5359SOL    HW234070   6.573   1.999   9.288  0.9450  2.6543 -1.6417
 5360SOL     OW34071  13.798   9.534  13.591 -0.3615  0.2378  0.1284
 5360SOL    HW134072  13.876   9.588  13.579 -0.7635  0.8071  0.0641
 5360SOL    HW234073  13.725   9.590  13.565 -0.6237 -1.1183 -2.3872
 5361SOL     OW34074   2.449  12.176   9.784  0.0632  0.1167 -0.0726
 5361SOL    HW134075   2.495  12.250   9.824 -0.3413 -0.5221  1.7045
 5361SOL    HW234076   2.518  12.115   9.759  0.3048 -0.8959  2.7015
 5362SOL     OW34077  12.738   2.137   4.887  0.5483  0.4184  0.1039
 5362SOL    HW134078  12.738   2.170   4.797 -1.5768 -0.5526 -0.3120
 5362SOL    HW234079  12.726   2.215   4.941 -1.4902  0.7094 -0.6911
 5363SOL     OW34080   3.390   5.514   3.230 -0.2159 -0.0598  0.3600
 5363SOL    HW134081   3.343   5.457   3.170  1.0854 -3.9152  2.6932
 5363SOL    HW234082   3.341   5.509   3.312  0.9301  0.7704  1.1232
 5364SOL     OW34083   6.283  10.925   0.907 -0.1424 -0.0522  0.1436
 5364SOL    HW134084   6.351  10.859   0.915  0.2700  0.1099 -1.5648
 5364SOL    HW234085   6.295  10.982   0.983  0.1529 -1.3331  1.0788
 5365SOL     OW34086   8.476   4.311   9.865  0.2270 -0.3381  0.6404
 5365SOL    HW134087   8.507   4.237   9.917  2.3488  0.5581  0.7392
 5365SOL    HW234088   8.484   4.282   9.774 -1.0006 -0.9596  0.7048
 5366SOL     OW34089   3.367   8.704   5.209 -0.3421 -0.5059 -0.3195
 5366SOL    HW134090   3.307   8.776   5.228 -0.2039 -0.5014  0.0915
 5366SOL    HW234091   3.447   8.725   5.257  0.2048 -0.2229 -1.3104
 5367SOL     OW34092  13.508   4.258   9.250 -0.3680 -0.0176  0.5258
 5367SOL    HW134093  13.441   4.285   9.313 -3.8300  0.9480 -3.1548
 5367SOL    HW234094  13.526   4.337   9.199 -0.2465 -1.4087 -1.7211
 5368SOL     OW34095   7.064   3.102   7.769  0.4422  0.5573 -0.5838
 5368SOL    HW134096   7.053   3.053   7.851 -0.1036  2.6181  0.6616
 5368SOL    HW234097   7.000   3.173   7.776  1.6421  1.8335 -1.9725
 5369SOL     OW34098  11.649   4.117   7.686 -0.5404  0.1508  0.7497
 5369SOL    HW134099  11.650   4.195   7.741 -0.2714  0.9639 -0.3600
 5369SOL    HW234100  11.689   4.049   7.739 -0.6986  0.7957  1.7122
 5370SOL     OW34101   9.506  13.906   1.338 -0.2524 -0.1688 -0.2781
 5370SOL    HW134102   9.480  13.941   1.423 -0.2737  0.2821 -0.4667
 5370SOL    HW234103   9.555  13.977   1.297 -1.1027 -0.0283 -1.0568
 5371SOL     OW34104   8.628   9.558   2.544  0.1388  0.1484 -0.1713
 5371SOL    HW134105   8.696   9.523   2.601  0.8718  2.2390  0.3367
 5371SOL    HW234106   8.669   9.563   2.457 -0.4597 -1.5728 -0.5778
 5372SOL     OW34107   0.645   5.190  12.436  0.7053  0.1451  0.6191
 5372SOL    HW134108   0.739   5.180  12.420  0.1317 -3.5806 -1.5642
 5372SOL    HW234109   0.624   5.121  12.498 -0.4924  1.7060  2.0416
 5373SOL     OW34110  10.533  10.249   1.677 -0.3639  0.0759  0.1061
 5373SOL    HW134111  10.579  10.166   1.688 -2.9826 -1.5951 -0.5482
 5373SOL    HW234112  10.538  10.291   1.762  4.2415  1.1961 -0.4610
 5374SOL     OW34113   5.111  11.964   9.744 -0.1499  0.8785  0.6547
 5374SOL    HW134114   5.066  11.883   9.766 -2.6975  2.0728  0.1700
 5374SOL    HW234115   5.081  11.986   9.656  1.0450  2.0165  0.4900
 5375SOL     OW34116   3.778  10.738   6.035 -0.4914 -0.1767 -0.2748
 5375SOL    HW134117   3.706  10.677   6.053  0.6958 -1.6164 -0.2079
 5375SOL    HW234118   3.821  10.703   5.957  0.4088  0.3993 -0.0544
 5376SOL     OW34119  12.650  11.968   9.011  0.7323  0.7393  0.5798
 5376SOL    HW134120  12.698  11.951   8.930 -1.3673 -3.4185 -0.0579
 5376SOL    HW234121  12.598  12.046   8.991 -0.3974 -0.6228 -2.5652
 5377SOL     OW34122   8.617   3.066   2.926  0.4811  0.6756 -0.6242
 5377SOL    HW134123   8.601   3.078   3.020  0.6699  1.2977 -0.6636
 5377SOL    HW234124   8.538   3.024   2.893  0.7925 -0.4281 -0.0165
 5378SOL     OW34125   1.494   9.772   0.954 -0.4093  0.3146 -0.1012
 5378SOL    HW134126   1.439   9.850   0.959  1.0114  1.3525 -0.0939
 5378SOL    HW234127   1.468   9.719   1.029 -0.0728  1.6953  1.0318
 5379SOL     OW34128   0.123   5.167   9.945 -0.2669 -0.3470 -0.0027
 5379SOL    HW134129   0.044   5.114   9.957 -1.2560  0.5763 -1.9165
 5379SOL    HW234130   0.091   5.258   9.946  0.7773  0.0546 -0.7062
 5380SOL     OW34131   8.708   3.519   4.135  0.2528  0.1099  0.6409
 5380SOL    HW134132   8.660   3.462   4.195 -0.1593 -0.5833 -0.3206
 5380SOL    HW234133   8.685   3.608   4.161 -1.2128 -0.2080  0.4661
 5381SOL     OW34134   8.930   0.331   2.282 -0.3538  0.2759  0.0642
 5381SOL    HW134135   8.911   0.237   2.282 -2.1088  0.5836  1.3797
 5381SOL    HW234136   8.870   0.368   2.347 -2.6365  2.9081 -3.2340
 5382SOL     OW34137  12.117   5.441  12.258 -0.3101 -0.2111 -0.3291
 5382SOL    HW134138  12.190   5.503  12.265 -1.0818  0.8745 -1.3249
 5382SOL    HW234139  12.158   5.357  12.239  0.7103  0.2723 -0.3145
 5383SOL     OW34140  13.585   2.873  13.089  0.0644 -0.4316 -0.4101
 5383SOL    HW134141  13.618   2.924  13.164  0.0506 -0.2179 -0.5481
 5383SOL    HW234142  13.490   2.873  13.100 -0.0005  0.2902 -0.8601
 5384SOL     OW34143  10.946   5.876   1.137  0.4117  0.2661  0.4027
 5384SOL    HW134144  10.905   5.905   1.219 -0.7449  0.9163 -0.3889
 5384SOL    HW234145  10.988   5.793   1.160  0.0624  0.4117  1.6461
 5385SOL     OW34146   2.643   9.729   5.279 -0.3239  0.7158  0.2468
 5385SOL    HW134147   2.661   9.710   5.371 -0.0316  1.1270  0.2788
 5385SOL    HW234148   2.667   9.821   5.269  1.0175  0.3040 -0.5838
 5386SOL     OW34149   0.479  13.820  11.325 -0.2441 -0.6302  0.4028
 5386SOL    HW134150   0.527  13.850  11.403  1.4082 -0.5082 -0.6230
 5386SOL    HW234151   0.489  13.891  11.262  0.5085 -1.6989 -0.7417
 5387SOL     OW34152   5.301   7.042   2.439  0.1494  0.0263  0.4362
 5387SOL    HW134153   5.307   7.125   2.486 -1.3627 -0.2501  1.1934
 5387SOL    HW234154   5.341   7.060   2.354  1.0545  1.1332  1.0655
 5388SOL     OW34155   0.585  11.951  13.605  0.2779 -0.8555 -0.1774
 5388SOL    HW134156   0.536  12.003  13.541  1.4330  0.6313  0.1064
 5388SOL    HW234157   0.565  11.992  13.689 -0.7531 -2.4323  0.3894
 5389SOL     OW34158   6.258   8.417   8.751 -0.4435 -0.1726 -0.4319
 5389SOL    HW134159   6.339   8.367   8.764  0.1881  0.8668 -0.1818
 5389SOL    HW234160   6.280   8.478   8.680 -1.0889 -0.0514 -0.5280
 5390SOL     OW34161   0.998   2.198   1.551 -0.0453 -0.3281  0.3636
 5390SOL    HW134162   1.059   2.270   1.539  0.6554 -0.9576  0.0724
 5390SOL    HW234163   1.048   2.130   1.595 -0.7788 -0.5386  0.9055
 5391SOL     OW34164   9.499   8.185  11.867 -0.5587 -0.0335  0.2008
 5391SOL    HW134165   9.540   8.258  11.912 -1.4178  1.1204 -0.7868
 5391SOL    HW234166   9.448   8.140  11.934  0.4337 -0.0914  0.9372
 5392SOL     OW34167  12.876   1.588   3.898 -0.2745  0.0858 -0.4985
 5392SOL    HW134168  12.782   1.577   3.883 -0.4338  2.0465 -1.2979
 5392SOL    HW234169  12.911   1.607   3.811  0.8940 -0.6838 -0.2129
 5393SOL     OW34170  12.985   3.154   5.755  0.1201  0.0587 -0.0963
 5393SOL    HW134171  12.947   3.215   5.692  1.3479  1.6587  0.6332
 5393SOL    HW234172  12.924   3.156   5.829 -3.0585 -4.1834 -2.1577
 5394SOL     OW34173   3.453   3.378   4.928  0.3379 -0.9003  0.2151
 5394SOL    HW134174   3.484   3.361   5.017  0.5508 -0.5279  0.2133
 5394SOL    HW234175   3.445   3.291   4.888  1.4126 -1.0054  0.2015
 5395SOL     OW34176  10.921  13.148  11.996  0.5287 -0.2827  0.0577
 5395SOL    HW134177  10.866  13.101  12.059 -0.0864  0.0194 -0.2451
 5395SOL    HW234178  10.947  13.229  12.042 -0.0824  0.0309 -0.1442
 5396SOL     OW34179   5.102   6.096   5.705 -0.2120 -0.3319 -0.6409
 5396SOL    HW134180   5.159   6.085   5.629  1.0208 -0.6038  0.2847
 5396SOL    HW234181   5.069   6.007   5.723 -0.3476 -0.3022 -0.7451
 5397SOL     OW34182   3.815   3.667   8.119 -0.4957 -0.5709  0.1569
 5397SOL    HW134183   3.727   3.694   8.092 -0.5147 -0.2082  0.5624
 5397SOL    HW234184   3.810   3.660   8.214  0.2805  0.8698  0.3313
 5398SOL     OW34185   0.566   2.716   4.125 -0.4477 -0.1199  0.1103
 5398SOL    HW134186   0.650   2.681   4.154 -0.6217 -0.0102  0.7648
 5398SOL    HW234187   0.513   2.720   4.205 -0.8881  0.3382 -0.1992
 5399SOL     OW34188   2.241   8.222   4.199 -0.0446  0.7270 -0.0154
 5399SOL    HW134189   2.191   8.303   4.208 -1.3614  0.1586 -1.7138
 5399SOL    HW234190   2.304   8.241   4.129 -1.8405 -0.3280 -2.0213
 5400SOL     OW34191  10.916   4.026   3.364  0.0866  0.1776  0.4936
 5400SOL    HW134192  10.969   3.985   3.296  0.1437 -1.2770  1.3728
 5400SOL    HW234193  10.832   4.045   3.321 -0.0848 -1.2673  0.1460
 5401SOL     OW34194   7.442   6.673   1.293 -0.3288 -0.1870  0.5571
 5401SOL    HW134195   7.429   6.650   1.201  0.7782  0.1163  0.3064
 5401SOL    HW234196   7.468   6.765   1.291  2.2904 -0.8305  0.9101
 5402SOL     OW34197   7.622   5.953   0.724  0.2272 -0.4037 -0.0007
 5402SOL    HW134198   7.666   5.977   0.642  1.7723  1.6966  1.3409
 5402SOL    HW234199   7.690   5.912   0.777  0.1247  1.1146  1.3825
 5403SOL     OW34200   4.330  11.633   0.955 -0.3822  0.2017 -0.3115
 5403SOL    HW134201   4.401  11.651   0.894  0.2996  0.1634  0.4655
 5403SOL    HW234202   4.252  11.624   0.899  0.0364  1.2161 -1.0866
 5404SOL     OW34203   7.584   2.427   2.366 -0.1038 -0.7881 -0.4215
 5404SOL    HW134204   7.675   2.430   2.394 -0.3701 -0.2556  0.4216
 5404SOL    HW234205   7.554   2.340   2.391 -0.0713 -0.6520  0.0919
 5405SOL     OW34206   1.357   3.230   5.306  0.1647 -0.4473  0.3278
 5405SOL    HW134207   1.328   3.213   5.216  0.9888 -0.3793  0.0449
 5405SOL    HW234208   1.450   3.250   5.298  0.1358  0.0441  1.1449
 5406SOL     OW34209  12.493   6.381  11.648 -0.1357  0.2019 -0.6467
 5406SOL    HW134210  12.517   6.332  11.569 -0.3294 -1.0538  0.0437
 5406SOL    HW234211  12.416   6.335  11.682  0.5798  0.0341  0.8484
 5407SOL     OW34212   1.895  10.291   5.777  0.1667 -0.5477 -0.2916
 5407SOL    HW134213   1.960  10.255   5.716 -1.0637 -2.2744 -0.6664
 5407SOL    HW234214   1.842  10.350   5.723 -0.8544 -1.9938 -0.9474
 5408SOL     OW34215   9.058   1.561   6.119 -0.1729  0.0680  0.0627
 5408SOL    HW134216   9.104   1.485   6.154 -0.0264  0.1301  0.0044
 5408SOL    HW234217   9.104   1.636   6.155 -1.1146  0.1382  1.1807
 5409SOL     OW34218   4.620   2.147   2.340  0.7078 -0.4305  0.0990
 5409SOL    HW134219   4.617   2.143   2.436 -2.3955 -0.7103  0.0882
 5409SOL    HW234220   4.630   2.240   2.320 -0.6575 -0.1032  0.7702
 5410SOL     OW34221   1.791   1.200   4.953  0.2524  0.1495  0.0623
 5410SOL    HW134222   1.822   1.164   4.870  0.4369  2.0263 -0.7276
 5410SOL    HW234223   1.770   1.123   5.006 -0.0666 -1.0970 -1.7756
 5411SOL     OW34224  11.996   2.763   3.219  0.1760 -0.0209  0.0905
 5411SOL    HW134225  12.046   2.843   3.201 -1.3356  0.9476  0.0581
 5411SOL    HW234226  12.050   2.692   3.184  1.7930  0.9263  0.5777
 5412SOL     OW34227   0.151   6.019   1.840  0.3616  0.2396 -0.0657
 5412SOL    HW134228   0.138   5.937   1.889 -0.6983 -0.0705 -0.8306
 5412SOL    HW234229   0.108   6.004   1.756  0.9799  1.2555 -0.5781
 5413SOL     OW34230   7.546   8.050   8.234  0.1350 -0.2632  0.4279
 5413SOL    HW134231   7.634   8.014   8.222  0.7546  1.6716 -1.3494
 5413SOL    HW234232   7.542   8.073   8.327  1.3890 -0.6822  0.6083
 5414SOL     OW34233  12.333   2.407   3.569  0.9051 -0.2459  0.5779
 5414SOL    HW134234  12.246   2.439   3.547  0.4790 -1.5816  0.2225
 5414SOL    HW234235  12.389   2.484   3.565 -0.0624  0.4374 -0.2656
 5415SOL     OW34236   9.069   5.034   0.822 -0.2984 -0.4921 -0.2506
 5415SOL    HW134237   8.993   5.044   0.878 -1.2271 -0.5119 -1.4598
 5415SOL    HW234238   9.097   5.123   0.803 -0.5101 -0.4592 -0.4230
 5416SOL     OW34239   9.632   2.462  11.208  0.4396 -0.3170 -0.2007
 5416SOL    HW134240   9.694   2.520  11.254  1.7084 -2.3074  0.7276
 5416SOL    HW234241   9.677   2.378  11.204 -0.9873 -1.0580 -2.2894
 5417SOL     OW34242   9.774  11.765  14.146 -0.4517  0.0809 -0.3817
 5417SOL    HW134243   9.778  11.837  14.083 -0.9079 -0.0463 -0.5579
 5417SOL    HW234244   9.854  11.715  14.131  1.1651  1.9163  1.4090
 5418SOL     OW34245   1.550   2.517   4.836 -0.0526 -0.3671  0.3324
 5418SOL    HW134246   1.488   2.526   4.908  0.3362 -0.4012  0.6679
 5418SOL    HW234247   1.527   2.433   4.795  1.0626 -1.3730  1.6951
 5419SOL     OW34248   2.826   6.926  12.291  0.0170 -0.0800  0.7930
 5419SOL    HW134249   2.908   6.923  12.242  0.0262  0.5461  0.7588
 5419SOL    HW234250   2.788   6.839  12.280  0.2400 -0.0925  0.0553
 5420SOL     OW34251  13.627   7.806   2.768 -0.6650 -0.1874  0.0065
 5420SOL    HW134252  13.706   7.760   2.740 -0.2184  1.5137 -1.7375
 5420SOL    HW234253  13.560   7.779   2.705 -1.4875 -1.4531  1.3482
 5421SOL     OW34254   5.728  10.126   1.306  0.2052  0.4106 -0.0534
 5421SOL    HW134255   5.695  10.038   1.325  1.3447  0.2912  1.5941
 5421SOL    HW234256   5.657  10.185   1.330 -0.2399 -0.0077 -0.3265
 5422SOL     OW34257   5.221  11.252   2.318 -0.0677 -0.0593 -0.6280
 5422SOL    HW134258   5.267  11.335   2.320 -0.4083  0.1217  0.1058
 5422SOL    HW234259   5.288  11.187   2.296  0.1641  0.4230 -1.3625
 5423SOL     OW34260   5.176  10.267  12.042  0.0770  0.3234  0.1640
 5423SOL    HW134261   5.124  10.242  11.965 -0.7279 -1.4361  1.2308
 5423SOL    HW234262   5.211  10.354  12.019  0.3011 -0.3522 -2.3776
 5424SOL     OW34263   2.177   3.909   1.436  0.2614 -0.2476 -0.9305
 5424SOL    HW134264   2.223   3.838   1.392 -0.5161 -0.9071 -0.7133
 5424SOL    HW234265   2.144   3.965   1.365  0.8501 -0.1113 -1.1013
 5425SOL     OW34266   5.860   2.642   6.541  0.1304  0.1508  0.0778
 5425SOL    HW134267   5.844   2.730   6.507 -1.5979  0.2515  1.0863
 5425SOL    HW234268   5.798   2.631   6.612 -0.1341 -2.1217 -0.4214
 5426SOL     OW34269   8.546   3.621   9.873  0.4863  0.2088 -0.5543
 5426SOL    HW134270   8.621   3.650   9.822  1.3849  1.2784  1.3050
 5426SOL    HW234271   8.584   3.581   9.951 -0.8801  0.0266  0.0448
 5427SOL     OW34272   7.450   7.262  11.103  0.2655 -0.2859 -0.0329
 5427SOL    HW134273   7.446   7.357  11.100  1.9445 -0.2055 -1.0026
 5427SOL    HW234274   7.476   7.236  11.014  0.2458 -1.6124  0.3260
 5428SOL     OW34275   0.063   3.504   2.440  0.4420 -0.0664  0.6867
 5428SOL    HW134276  -0.013   3.490   2.497  0.5175 -0.3102  0.7289
 5428SOL    HW234277   0.045   3.587   2.396 -0.0568 -0.3349  0.3687
 5429SOL     OW34278  11.087  14.061  13.489 -0.0411  0.9831 -0.7776
 5429SOL    HW134279  11.068  14.135  13.432 -1.4372  2.6172  1.5917
 5429SOL    HW234280  11.098  14.100  13.576  1.3744 -1.4017  0.2119
 5430SOL     OW34281   2.488   7.021   1.061  0.0743  0.6685  0.0587
 5430SOL    HW134282   2.547   7.007   1.135  0.1699  0.1622 -0.1094
 5430SOL    HW234283   2.456   6.933   1.039  0.3050  0.7762 -0.7190
 5431SOL     OW34284   3.311   0.114   4.281  0.2598 -0.0441  0.5637
 5431SOL    HW134285   3.352   0.200   4.284 -0.4329  0.3198 -0.1305
 5431SOL    HW234286   3.377   0.057   4.242  0.3614  0.3932  0.0818
 5432SOL     OW34287  10.089   3.798   1.941  0.1546  0.4824 -0.3475
 5432SOL    HW134288  10.035   3.742   1.886  0.3038  0.7169 -0.7378
 5432SOL    HW234289  10.176   3.759   1.937  0.2422  0.6980 -0.5612
 5433SOL     OW34290   4.441  11.549   1.634 -0.5369 -0.2240 -0.0024
 5433SOL    HW134291   4.474  11.539   1.545 -0.2437 -1.1286  0.1973
 5433SOL    HW234292   4.478  11.475   1.682  0.5949  1.1069  1.2631
 5434SOL     OW34293  12.388   8.398  12.428 -0.5062 -0.3536 -0.2634
 5434SOL    HW134294  12.303   8.359  12.450 -0.5149 -0.7201 -0.9163
 5434SOL    HW234295  12.426   8.422  12.513 -0.9031 -0.9510  0.0895
 5435SOL     OW34296   0.164   9.307   9.782  0.4014 -0.0514  0.1547
 5435SOL    HW134297   0.128   9.390   9.750 -0.3333  0.5820  2.4474
 5435SOL    HW234298   0.095   9.243   9.765  0.3059  0.1324 -0.1567
 5436SOL     OW34299   7.838   8.838  10.979  0.3427 -0.0731 -0.5313
 5436SOL    HW134300   7.930   8.861  10.965  1.2194 -2.2751  1.1268
 5436SOL    HW234301   7.823   8.762  10.924 -0.6891  0.6112 -1.2246
 5437SOL     OW34302  10.306   3.333  10.842  0.6767  0.0987  0.3984
 5437SOL    HW134303  10.221   3.351  10.883  0.4332 -0.5484  0.1907
 5437SOL    HW234304  10.338   3.255  10.886 -0.8103 -2.2439 -2.3254
 5438SOL     OW34305   5.927   5.722  11.146  0.0935 -0.5721  0.1867
 5438SOL    HW134306   5.863   5.663  11.105 -0.8468  1.6321 -1.7380
 5438SOL    HW234307   6.011   5.696  11.109 -0.0907 -1.5282  0.4021
 5439SOL     OW34308  11.407   2.941   3.682 -0.3002 -0.0389 -0.3269
 5439SOL    HW134309  11.481   2.881   3.679  1.3087  1.8812 -1.4989
 5439SOL    HW234310  11.338   2.892   3.727  1.8268 -1.7196  1.3071
 5440SOL     OW34311   6.147   4.402   7.022  0.1118  0.6519 -0.0003
 5440SOL    HW134312   6.089   4.434   6.954  1.3784 -0.2831 -1.6017
 5440SOL    HW234313   6.119   4.446   7.101 -1.9925  1.1043 -0.9486
 5441SOL     OW34314   9.235   0.093   2.296 -0.3291  0.7872  0.0042
 5441SOL    HW134315   9.287   0.035   2.241  0.7623 -0.3130  2.0577
 5441SOL    HW234316   9.164   0.038   2.330  1.1967  0.2480  2.6508
 5442SOL     OW34317  12.594   4.748  11.194 -0.1824 -0.3512  0.4763
 5442SOL    HW134318  12.557   4.835  11.212 -2.4397 -1.1077 -0.1777
 5442SOL    HW234319  12.674   4.745  11.246  1.0251  2.8085 -0.8800
 5443SOL     OW34320  12.730   3.589   5.419 -0.6491 -0.0820 -0.1390
 5443SOL    HW134321  12.808   3.607   5.366  0.9676 -1.2111  1.6642
 5443SOL    HW234322  12.703   3.501   5.392 -1.1321  0.2079 -0.5888
 5444SOL     OW34323   6.239   7.410  10.791  0.3479  0.2965 -0.2142
 5444SOL    HW134324   6.165   7.468  10.774 -1.2878 -1.1870  1.3702
 5444SOL    HW234325   6.235   7.344  10.722  1.4924  1.3501 -1.3277
 5445SOL     OW34326  12.572  10.135   1.696  0.0237 -0.4392  0.5204
 5445SOL    HW134327  12.492  10.084   1.692  1.0691 -2.0836 -0.9470
 5445SOL    HW234328  12.602  10.126   1.787 -0.4860 -1.3832  0.6059
 5446SOL     OW34329   5.589   8.110   3.721 -0.2132  0.8821 -0.2793
 5446SOL    HW134330   5.504   8.106   3.765  0.4378 -1.0150  0.9460
 5446SOL    HW234331   5.653   8.111   3.793  0.8224  1.3520 -1.1845
 5447SOL     OW34332   2.081  12.227   0.068 -0.0780 -0.1755 -0.5450
 5447SOL    HW134333   2.022  12.277   0.125 -0.9359 -0.5611 -1.0677
 5447SOL    HW234334   2.147  12.290   0.039  1.0004 -0.1838  1.6619
 5448SOL     OW34335  11.796   8.199  12.464 -0.5843 -0.4605 -0.0948
 5448SOL    HW134336  11.845   8.279  12.481  0.9816 -1.5977  1.1926
 5448SOL    HW234337  11.705   8.223  12.477 -0.1464  1.1073  0.3090
 5449SOL     OW34338  11.881   2.284  11.444 -0.0963 -0.2566  0.1724
 5449SOL    HW134339  11.819   2.218  11.414  0.1067 -1.0160  1.3566
 5449SOL    HW234340  11.924   2.244  11.520  0.8949  0.7692  0.1767
 5450SOL     OW34341   6.625   7.043  10.778  0.0426  0.1432  0.2970
 5450SOL    HW134342   6.714   7.008  10.772 -0.0044  0.0456  0.1592
 5450SOL    HW234343   6.621   7.109  10.709 -0.5648 -1.1276 -0.9192
 5451SOL     OW34344   9.228  10.425   5.330  0.2158 -0.3664 -0.3919
 5451SOL    HW134345   9.316  10.461   5.347  0.1658 -1.1647  1.9578
 5451SOL    HW234346   9.203  10.462   5.246  2.1016  1.2833 -0.3108
 5452SOL     OW34347   9.144   8.009  13.509 -0.1147 -0.3586 -0.0768
 5452SOL    HW134348   9.071   7.957  13.544 -0.2717  0.3616  0.7175
 5452SOL    HW234349   9.165   8.070  13.580 -0.4714  1.1983 -1.2691
 5453SOL     OW34350   5.525   3.676  12.261 -0.3997 -0.1811  0.7536
 5453SOL    HW134351   5.567   3.751  12.303 -0.3960  0.1911  0.0934
 5453SOL    HW234352   5.468   3.714  12.195 -1.7882 -0.6727  1.6187
 5454SOL     OW34353   6.949  12.473  10.486  0.2869  0.5992 -0.2925
 5454SOL    HW134354   6.963  12.411  10.415 -1.7323  1.1569 -1.2553
 5454SOL    HW234355   6.937  12.558  10.443 -0.6572  1.0025  0.7055
 5455SOL     OW34356   3.937   0.716  13.407 -1.0750  0.1341 -0.3022
 5455SOL    HW134357   3.942   0.805  13.444 -1.9639 -0.2621  0.8459
 5455SOL    HW234358   3.941   0.729  13.313 -0.8046  1.3697 -0.1431
 5456SOL     OW34359   5.458  13.134   7.725 -0.2259 -0.0249 -0.1727
 5456SOL    HW134360   5.426  13.089   7.802 -1.2334  1.3280  0.2280
 5456SOL    HW234361   5.484  13.064   7.665  0.8352 -1.0961  1.4641
 5457SOL     OW34362  11.687   1.308  13.232  0.2017  0.3154 -0.2035
 5457SOL    HW134363  11.593   1.301  13.244  0.0728  0.3889 -1.0837
 5457SOL    HW234364  11.707   1.247  13.161  0.9496 -0.3286  0.5312
 5458SOL     OW34365  12.144   3.999  12.323  0.0303 -0.2405 -0.1025
 5458SOL    HW134366  12.088   4.076  12.328  0.6307  0.1155  1.7495
 5458SOL    HW234367  12.213   4.022  12.261 -0.8232 -0.0122 -0.9918
 5459SOL     OW34368   4.243   9.448   0.787  0.5353  0.5321  0.0083
 5459SOL    HW134369   4.321   9.407   0.749 -0.7330 -0.1349 -2.0549
 5459SOL    HW234370   4.224   9.521   0.727 -1.3064 -0.2932 -0.4520
 5460SOL     OW34371   9.272  13.660  10.828 -0.0231  0.3463  0.4259
 5460SOL    HW134372   9.328  13.726  10.869  2.0775 -1.3983  0.5739
 5460SOL    HW234373   9.295  13.663  10.735  0.4337 -0.4615  0.5044
 5461SOL     OW34374   8.256   2.774  12.734  0.2146  0.1653  0.1986
 5461SOL    HW134375   8.166   2.776  12.704  1.3311  2.4437 -3.7955
 5461SOL    HW234376   8.299   2.708  12.679  1.0209 -1.0784  2.2034
 5462SOL     OW34377   5.303  13.519  10.145 -0.2822  0.1140  0.3228
 5462SOL    HW134378   5.260  13.522  10.231 -0.3080 -1.6272  0.3937
 5462SOL    HW234379   5.248  13.461  10.093  1.1777 -1.0053 -0.0347
 5463SOL     OW34380   0.978  11.517  10.269 -0.6503  0.1682 -0.2210
 5463SOL    HW134381   0.952  11.595  10.319 -0.3176  0.6275 -0.7611
 5463SOL    HW234382   0.903  11.498  10.213 -1.1794 -0.5764  0.7037
 5464SOL     OW34383  13.183   8.249   0.034  0.2118  0.0407 -0.1857
 5464SOL    HW134384  13.229   8.221  -0.046 -1.3820  0.0137 -1.1404
 5464SOL    HW234385  13.122   8.178   0.053  0.1987  0.2955  0.7432
 5465SOL     OW34386  13.277   8.200   3.974  0.0664  0.1947  0.3529
 5465SOL    HW134387  13.185   8.208   3.948  0.1884  1.0337  0.1640
 5465SOL    HW234388  13.310   8.290   3.976  1.4703 -0.2025 -1.7484
 5466SOL     OW34389   9.225   2.316  10.616 -0.4196  0.5078  0.1859
 5466SOL    HW134390   9.256   2.288  10.530 -1.0887  0.3509 -0.0100
 5466SOL    HW234391   9.297   2.296  10.675  0.6359  1.9483 -0.5553
 5467SOL     OW34392   7.406  12.178  11.771 -0.4371  0.2621 -0.1654
 5467SOL    HW134393   7.405  12.270  11.796 -0.5756  0.1083  0.3979
 5467SOL    HW234394   7.487  12.168  11.721 -0.9294  0.9222 -1.1418
 5468SOL     OW34395   4.266  13.332   8.037  0.1244  0.3791  0.2034
 5468SOL    HW134396   4.355  13.324   8.070  0.8423 -0.0554 -1.7387
 5468SOL    HW234397   4.241  13.243   8.013 -0.8547  0.4991  0.7126
 5469SOL     OW34398   6.971  13.675  10.341 -0.3531 -0.1816 -0.1834
 5469SOL    HW134399   6.890  13.683  10.391  0.4219 -2.0919  1.5322
 5469SOL    HW234400   6.946  13.626  10.262 -1.0838  0.3620 -0.3005
 5470SOL     OW34401  12.721   2.532  12.544 -0.3181 -0.2528  0.3311
 5470SOL    HW134402  12.663   2.607  12.557 -1.3361 -0.8948 -0.4100
 5470SOL    HW234403  12.736   2.530  12.450  0.0485 -0.7316  0.3984
 5471SOL     OW34404   6.122   4.417   0.486 -0.2531 -0.6176  0.6253
 5471SOL    HW134405   6.191   4.360   0.521  0.9528 -1.4235 -2.6955
 5471SOL    HW234406   6.170   4.493   0.451 -1.4082  0.3302  1.0282
 5472SOL     OW34407   1.536  11.711   1.823 -0.2837 -0.3537  0.8536
 5472SOL    HW134408   1.526  11.799   1.788 -0.4671 -0.5241  0.4757
 5472SOL    HW234409   1.611  11.675   1.775  0.1928 -0.1843  1.4540
 5473SOL     OW34410   2.003   5.495  13.601  0.0055 -0.4003 -0.2092
 5473SOL    HW134411   1.980   5.564  13.539  0.5729 -1.2162 -1.3574
 5473SOL    HW234412   1.927   5.490  13.660 -2.0584 -1.7731 -2.7739
 5474SOL     OW34413   3.136  10.853   2.700 -0.3578 -0.6829  0.3540
 5474SOL    HW134414   3.156  10.829   2.610 -0.9630 -0.3297  0.1188
 5474SOL    HW234415   3.166  10.779   2.752 -1.2474 -1.4895 -0.2520
 5475SOL     OW34416   2.101   9.263   2.128  0.7631 -0.0403 -0.2978
 5475SOL    HW134417   2.160   9.212   2.073  2.0746  1.2353 -0.1409
 5475SOL    HW234418   2.137   9.352   2.126 -0.3263  0.4690  0.9802
 5476SOL     OW34419   2.385  12.568   3.093 -0.2660  0.0317  0.5190
 5476SOL    HW134420   2.370  12.526   3.009 -0.5923 -0.1148  0.6475
 5476SOL    HW234421   2.432  12.648   3.072  0.4710 -0.4506  0.2837
 5477SOL     OW34422   6.673   2.223  11.181  0.1721 -0.1948  0.0050
 5477SOL    HW134423   6.661   2.143  11.130  0.7900  0.9141 -2.0062
 5477SOL    HW234424   6.593   2.273  11.166  2.2568  2.4365 -4.4626
 5478SOL     OW34425   9.739   1.839   3.783  0.2529 -0.0569 -0.0818
 5478SOL    HW134426   9.731   1.927   3.747 -3.6713 -0.4806 -0.7137
 5478SOL    HW234427   9.761   1.784   3.708  1.0945  0.1682 -0.0046
 5479SOL     OW34428   4.223   2.527   8.688  0.5633 -0.3509 -0.2307
 5479SOL    HW134429   4.275   2.584   8.631 -0.8288 -0.6972 -1.9167
 5479SOL    HW234430   4.211   2.447   8.637 -1.1294 -0.4959  0.3333
 5480SOL     OW34431   2.648  12.146   7.195  0.1343  0.6000  0.4536
 5480SOL    HW134432   2.567  12.173   7.240 -0.5669  0.6769 -0.8275
 5480SOL    HW234433   2.671  12.220   7.140 -1.5937 -1.0792 -2.8047
 5481SOL     OW34434  11.086   5.138   1.386 -0.1281 -0.0039  0.1896
 5481SOL    HW134435  11.018   5.204   1.372  0.8480  1.1826  0.8592
 5481SOL    HW234436  11.061   5.066   1.328 -1.1068  1.0388 -0.7481
 5482SOL     OW34437  11.899   2.124   1.430 -0.2310 -0.1227 -0.5518
 5482SOL    HW134438  11.987   2.134   1.395  0.2504  1.7871  1.0436
 5482SOL    HW234439  11.863   2.213   1.430 -0.5516 -0.1382  2.7360
 5483SOL     OW34440  13.603   1.983   5.384  0.2684 -0.1141 -0.4204
 5483SOL    HW134441  13.647   1.900   5.402 -1.9042 -1.3441 -0.3560
 5483SOL    HW234442  13.672   2.041   5.352  1.7186 -2.2129 -1.3159
 5484SOL     OW34443   4.033   9.210   8.450  0.5931 -0.1813  0.0963
 5484SOL    HW134444   3.939   9.202   8.436  0.5522 -1.6670  1.0642
 5484SOL    HW234445   4.058   9.288   8.399 -0.8483 -0.7148 -1.5174
 5485SOL     OW34446  13.081   2.510  13.391  0.1447  0.5934  0.2968
 5485SOL    HW134447  13.031   2.563  13.453  0.6589  0.0004  1.2573
 5485SOL    HW234448  13.172   2.528  13.413  0.4196  2.0949 -1.7998
 5486SOL     OW34449  13.430   6.311   9.414 -0.2484 -0.0522 -0.3022
 5486SOL    HW134450  13.493   6.277   9.350  0.1421  0.6720 -0.3147
 5486SOL    HW234451  13.450   6.265   9.495  0.2469  0.1237 -0.3255
 5487SOL     OW34452   0.197  12.819   8.173 -0.0564  0.1727  0.5941
 5487SOL    HW134453   0.111  12.813   8.215 -0.5323  2.2495  0.0274
 5487SOL    HW234454   0.177  12.820   8.079  0.5928  0.6382  0.4554
 5488SOL     OW34455   2.195  10.918  12.404 -0.3786  0.0284 -0.3361
 5488SOL    HW134456   2.171  11.007  12.431 -0.8782 -0.5444  1.2020
 5488SOL    HW234457   2.115  10.881  12.368 -0.4895 -0.2072  0.1533
 5489SOL     OW34458  11.675  13.183   4.803 -0.0121  0.6553  0.4431
 5489SOL    HW134459  11.616  13.113   4.829  0.6305  0.7033  2.1397
 5489SOL    HW234460  11.657  13.197   4.710 -0.1140 -1.7805  0.0444
 5490SOL     OW34461  10.613  10.635   9.377 -0.2748 -0.0140  0.1880
 5490SOL    HW134462  10.648  10.723   9.391 -0.5336  0.0047  0.7372
 5490SOL    HW234463  10.547  10.645   9.310  2.0899 -0.3523 -2.3816
 5491SOL     OW34464   0.850   3.339   7.348 -0.2632  0.0786 -0.2527
 5491SOL    HW134465   0.810   3.397   7.283 -0.5471  0.4542  0.2503
 5491SOL    HW234466   0.826   3.377   7.432 -0.5869 -0.8611  0.0901
 5492SOL     OW34467   4.131   1.454  12.864  0.1565  0.5402 -0.2333
 5492SOL    HW134468   4.219   1.424  12.843 -0.0609 -0.0722 -0.2780
 5492SOL    HW234469   4.104   1.401  12.939  0.0474  1.1340  0.1553
 5493SOL     OW34470   7.479   5.271   0.461  0.1904  0.7017 -0.6395
 5493SOL    HW134471   7.574   5.272   0.476  0.0966  2.0259  0.0482
 5493SOL    HW234472   7.465   5.203   0.395  1.5913  0.3458 -0.5917
 5494SOL     OW34473  11.562   1.966   6.554 -0.2705  0.5624 -0.0116
 5494SOL    HW134474  11.555   1.901   6.624  0.1927 -0.1605 -0.6245
 5494SOL    HW234475  11.634   1.935   6.499 -0.2318  1.4429 -0.4770
 5495SOL     OW34476   9.532   2.516   7.519 -0.2978 -0.6866  0.0531
 5495SOL    HW134477   9.619   2.557   7.516 -0.7632  0.4504  1.0613
 5495SOL    HW234478   9.489   2.545   7.439  0.8448 -2.7277 -1.3642
 5496SOL     OW34479   9.597  11.761   0.531 -0.7257 -0.2791  0.3486
 5496SOL    HW134480   9.601  11.828   0.462  0.8486  1.7678  2.2949
 5496SOL    HW234481   9.675  11.776   0.584 -0.4166 -3.5947  1.0318
 5497SOL     OW34482   0.533  13.438   4.142 -0.2714 -0.1534  0.0815
 5497SOL    HW134483   0.550  13.513   4.198  2.0619 -0.9779  0.5945
 5497SOL    HW234484   0.566  13.463   4.056 -0.1096 -0.3405  0.0868
 5498SOL     OW34485   0.912  12.603   9.060 -0.0928  0.0463  0.5883
 5498SOL    HW134486   0.869  12.611   8.975 -1.6179 -0.0198  1.3124
 5498SOL    HW234487   0.928  12.693   9.087  2.5252  0.0741 -0.7295
 5499SOL     OW34488   0.198   2.124   9.984 -0.2650  0.2241 -0.2264
 5499SOL    HW134489   0.191   2.100   9.892 -3.1333 -1.8216  0.3957
 5499SOL    HW234490   0.256   2.058  10.022 -1.9093 -1.1497  0.0159
 5500SOL     OW34491   4.523   1.328   5.057  0.2602  0.3211 -0.1793
 5500SOL    HW134492   4.568   1.410   5.079  0.3296  0.2549 -0.0753
 5500SOL    HW234493   4.589   1.260   5.070  0.2390  0.2596 -0.3860
 5501SOL     OW34494   2.193   2.756  10.419  0.0444  0.2957 -0.4236
 5501SOL    HW134495   2.264   2.696  10.394 -0.8965 -1.3708  0.7170
 5501SOL    HW234496   2.238   2.835  10.450  1.4593 -0.8139  0.5022
 5502SOL     OW34497   2.116  11.888   8.084 -0.0320  0.0810 -0.4286
 5502SOL    HW134498   2.023  11.911   8.092 -0.1122  0.4526 -2.0546
 5502SOL    HW234499   2.126  11.810   8.137 -1.5759 -0.6602 -1.1585
 5503SOL     OW34500   4.668   7.928  13.501  0.2510  0.4119 -0.0343
 5503SOL    HW134501   4.733   7.918  13.431  0.6780 -0.6492  0.4855
 5503SOL    HW234502   4.596   7.976  13.460  0.7967  0.4380 -1.0031
 5504SOL     OW34503   2.954  14.119   8.206  0.2178  0.0626 -0.1910
 5504SOL    HW134504   2.883  14.093   8.148 -1.3064  0.2928  1.5010
 5504SOL    HW234505   2.987  14.200   8.168 -1.6863  0.9652 -0.0284
 5505SOL     OW34506   3.332  12.574   6.564  0.3031 -0.0022 -0.4985
 5505SOL    HW134507   3.416  12.620   6.561  0.4334 -0.2701 -2.1163
 5505SOL    HW234508   3.315  12.559   6.657  3.3062 -2.2291 -0.1639
 5506SOL     OW34509  13.389  12.936   2.888 -0.0305  0.1392  0.2649
 5506SOL    HW134510  13.396  12.960   2.980 -0.2783  0.7779  0.1241
 5506SOL    HW234511  13.474  12.956   2.850  0.0800 -0.1477  0.3549
 5507SOL     OW34512  10.383  11.688   4.951  0.0462  0.2343 -0.1608
 5507SOL    HW134513  10.452  11.672   4.887  0.9481  0.7950  0.6414
 5507SOL    HW234514  10.410  11.768   4.996 -0.2710 -0.4381  1.2762
 5508SOL     OW34515  11.650  13.412   3.097  0.0147 -0.1878 -0.3459
 5508SOL    HW134516  11.711  13.467   3.047 -0.5758  0.5241 -0.2912
 5508SOL    HW234517  11.601  13.363   3.030  0.8884 -1.0599 -0.3840
 5509SOL     OW34518   1.668   9.573   0.569 -0.3752 -0.4177 -0.0388
 5509SOL    HW134519   1.693   9.482   0.584  2.3509  0.3962  0.9508
 5509SOL    HW234520   1.714   9.598   0.489  1.5697  0.9169  1.4073
 5510SOL     OW34521  10.431  10.896   1.563 -0.0717 -0.0423 -0.2247
 5510SOL    HW134522  10.513  10.873   1.520 -0.5207 -2.3542  0.0287
 5510SOL    HW234523  10.426  10.838   1.638 -1.1634  1.2293  0.7340
 5511SOL     OW34524  13.895   2.856  12.307 -0.2990 -0.1065  0.9957
 5511SOL    HW134525  13.972   2.823  12.352  0.7253 -0.2717 -0.7867
 5511SOL    HW234526  13.832   2.784  12.312  1.0042 -1.4475 -0.6648
 5512SOL     OW34527   8.165   1.736   9.789 -0.1019  0.8204 -0.1838
 5512SOL    HW134528   8.100   1.696   9.846 -0.7601  1.5324 -0.4122
 5512SOL    HW234529   8.250   1.709   9.825 -0.5178  0.6068  0.6427
 5513SOL     OW34530   7.176  13.300  14.054 -0.6503 -0.4591  0.2385
 5513SOL    HW134531   7.110  13.365  14.030 -1.0958 -1.3938 -1.1323
 5513SOL    HW234532   7.157  13.279  14.145 -1.6121  0.0024  0.1531
 5514SOL     OW34533   3.454  10.260   5.162 -0.1218  0.5377 -0.3548
 5514SOL    HW134534   3.527  10.315   5.132 -0.1250  0.3801 -0.6566
 5514SOL    HW234535   3.496  10.179   5.191 -0.2766 -0.0632 -1.7353
 5515SOL     OW34536   9.096  12.261   3.975  0.5522  0.0433  0.4070
 5515SOL    HW134537   9.144  12.233   3.897  0.8822  0.2424  0.5375
 5515SOL    HW234538   9.008  12.226   3.962  0.6894 -0.1970  0.0940
 5516SOL     OW34539  13.630  12.345   2.796 -0.1017 -0.1302  0.3152
 5516SOL    HW134540  13.713  12.297   2.797  0.1045  0.1645  2.4534
 5516SOL    HW234541  13.652  12.431   2.760  0.0923 -0.6577 -0.8898
 5517SOL     OW34542   7.571  12.810  12.574 -0.0434  0.1779  0.0429
 5517SOL    HW134543   7.589  12.796  12.667 -0.7066 -0.1204  0.1324
 5517SOL    HW234544   7.484  12.848  12.572 -0.5518 -0.9637 -0.5144
 5518SOL     OW34545   9.482   1.638   0.233  0.2640 -0.0112 -0.0127
 5518SOL    HW134546   9.535   1.611   0.309 -0.5639 -1.4280  0.1018
 5518SOL    HW234547   9.508   1.577   0.164 -1.3215 -0.8821  0.1092
 5519SOL     OW34548  13.656   1.511   4.334 -0.3284 -0.0695  0.5347
 5519SOL    HW134549  13.675   1.602   4.357  0.4143 -0.0112 -0.2570
 5519SOL    HW234550  13.741   1.468   4.330 -0.5499 -0.4507 -0.4954
 5520SOL     OW34551  11.620   4.173  10.848  0.3964  0.3018 -0.1271
 5520SOL    HW134552  11.673   4.204  10.921  0.6679  0.8450 -0.5533
 5520SOL    HW234553  11.643   4.230  10.775 -0.6493  0.4420 -0.3657
 5521SOL     OW34554   6.652   0.811  10.653 -0.1276  0.4083  0.0759
 5521SOL    HW134555   6.620   0.828  10.565  1.2505  0.6309 -0.4119
 5521SOL    HW234556   6.709   0.734  10.643  0.3241  0.6583  0.7004
 5522SOL     OW34557   1.259  13.727  12.112 -0.0201 -0.0582  0.4952
 5522SOL    HW134558   1.352  13.709  12.099  0.5504  1.2857  2.2894
 5522SOL    HW234559   1.248  13.728  12.207 -1.9257 -0.3985  0.3083
 5523SOL     OW34560   8.664   4.650  10.372 -0.4668  0.0352 -0.4737
 5523SOL    HW134561   8.706   4.702  10.440 -0.1482 -1.3999  0.4638
 5523SOL    HW234562   8.600   4.710  10.332 -0.3880  1.0203  0.8107
 5524SOL     OW34563   2.046  12.700  14.108 -0.1701  0.0684  0.2664
 5524SOL    HW134564   2.070  12.779  14.157 -1.3398 -0.7514  2.2811
 5524SOL    HW234565   1.951  12.699  14.110 -0.1703 -1.5719  0.6051
 5525SOL     OW34566   9.715   5.942  11.927 -0.4152  0.2509  0.1805
 5525SOL    HW134567   9.665   5.884  11.985 -1.7064  1.6081  0.4828
 5525SOL    HW234568   9.794   5.962  11.977 -1.4242  1.2538  1.4387
 5526SOL     OW34569   3.702  12.318   5.799  0.0218 -0.2040  0.7003
 5526SOL    HW134570   3.719  12.268   5.879 -1.0104  0.0152  1.0769
 5526SOL    HW234571   3.654  12.396   5.829 -0.2559 -0.0494 -0.1192
 5527SOL     OW34572  11.981   7.366   2.465  0.0642  0.3271  0.3047
 5527SOL    HW134573  11.978   7.292   2.404  1.1139  1.0793 -0.7183
 5527SOL    HW234574  11.889   7.383   2.486 -0.7061  1.9711 -3.5467
 5528SOL     OW34575  12.375   9.803   0.262  0.0451  0.4908 -0.2383
 5528SOL    HW134576  12.295   9.765   0.226 -0.1472  0.4264  0.2645
 5528SOL    HW234577  12.368   9.897   0.241 -0.2459  0.5151 -0.0343
 5529SOL     OW34578   7.759  11.981  10.114 -0.6396 -0.3004  0.1402
 5529SOL    HW134579   7.752  12.054  10.052 -0.1317  0.4113  0.9061
 5529SOL    HW234580   7.679  11.985  10.165 -0.7868 -0.5220 -0.0692
 5530SOL     OW34581  12.941   4.657   7.581  0.3195  0.0302 -0.5995
 5530SOL    HW134582  12.935   4.575   7.631 -1.8189  1.8232  2.4252
 5530SOL    HW234583  12.880   4.716   7.625  2.2756  3.5291 -2.1953
 5531SOL     OW34584   2.663  10.162   9.513  0.3937  0.4894  0.1927
 5531SOL    HW134585   2.657  10.067   9.501  0.4523  0.3247  1.3278
 5531SOL    HW234586   2.604  10.180   9.587  2.0494  1.0120  1.4498
 5532SOL     OW34587   3.525   1.759   3.219 -0.2082 -0.1345  0.5856
 5532SOL    HW134588   3.473   1.745   3.298 -0.1860 -1.3232  0.4148
 5532SOL    HW234589   3.598   1.814   3.247  0.8274 -2.0527  1.8498
 5533SOL     OW34590   7.256  13.664   1.097 -0.1661 -0.0792 -0.4878
 5533SOL    HW134591   7.348  13.650   1.076  0.0686  0.8917 -0.1091
 5533SOL    HW234592   7.214  13.581   1.073  0.5689 -0.0654 -1.9805
 5534SOL     OW34593   9.873   8.412  13.296 -0.0373 -0.1189 -0.1887
 5534SOL    HW134594   9.806   8.481  13.293  0.6852  0.6650  1.0112
 5534SOL    HW234595   9.929   8.430  13.221  0.0408  0.5052  0.0097
 5535SOL     OW34596  11.089   3.331   2.204  0.0471  0.0904  0.2083
 5535SOL    HW134597  11.116   3.241   2.219 -0.4869  0.0104  0.6915
 5535SOL    HW234598  11.002   3.338   2.242  0.4377  1.0511  0.9867
 5536SOL     OW34599  11.597   3.275  13.104  0.6513 -0.9602  0.4327
 5536SOL    HW134600  11.659   3.292  13.033  1.2308 -1.6276  0.7639
 5536SOL    HW234601  11.589   3.359  13.150 -1.1313  0.0085 -1.4569
 5537SOL     OW34602   7.313   4.027   4.469 -0.0560 -0.0488 -0.6000
 5537SOL    HW134603   7.389   3.970   4.454  0.0393 -0.4205  1.1175
 5537SOL    HW234604   7.237   3.972   4.451  0.0514 -0.4622  0.1842
 5538SOL     OW34605   0.600  11.594   8.562  0.0433 -0.2261 -0.0906
 5538SOL    HW134606   0.666  11.661   8.579  0.7633 -0.7416 -0.7614
 5538SOL    HW234607   0.605  11.536   8.638  0.2948 -0.2135 -0.0977
 5539SOL     OW34608   9.137   9.697   4.572  0.4552 -0.4096  0.2040
 5539SOL    HW134609   9.169   9.778   4.532  0.0493 -0.5184 -0.3461
 5539SOL    HW234610   9.211   9.665   4.624  0.2749  0.8641  1.2876
 5540SOL     OW34611   6.872  11.849   4.521  0.2781 -0.1030 -0.4306
 5540SOL    HW134612   6.877  11.889   4.608 -0.9385 -0.1661 -0.3143
 5540SOL    HW234613   6.958  11.810   4.508  0.7552  0.6416  0.3867
 5541SOL     OW34614   5.171  12.723  11.294  0.0864  0.5004 -0.0727
 5541SOL    HW134615   5.245  12.784  11.299 -1.8824  3.3641 -2.2273
 5541SOL    HW234616   5.211  12.639  11.268  2.5656  2.1793 -2.2782
 5542SOL     OW34617   3.646  11.465   1.574 -0.4019 -0.1354 -0.3687
 5542SOL    HW134618   3.631  11.453   1.481 -1.0237  0.4804 -0.3608
 5542SOL    HW234619   3.580  11.411   1.617 -0.1528 -0.3748 -0.2786
 5543SOL     OW34620   0.188   4.583   8.256 -0.3632 -0.0113 -0.2354
 5543SOL    HW134621   0.162   4.554   8.344  0.7780 -1.2207 -0.2612
 5543SOL    HW234622   0.240   4.662   8.271 -1.0880  0.4167  0.0759
 5544SOL     OW34623  10.437   7.782   9.291 -0.2751  0.2229  0.1643
 5544SOL    HW134624  10.353   7.744   9.318 -0.0144 -2.3277 -2.1070
 5544SOL    HW234625  10.430   7.790   9.196  1.6645  0.9715  0.0413
 5545SOL     OW34626   1.786  13.905   6.920 -0.1863 -0.1853  0.0916
 5545SOL    HW134627   1.839  13.879   6.844 -1.3515 -2.2610 -0.0816
 5545SOL    HW234628   1.717  13.960   6.882  1.7859  2.7085  0.3430
 5546SOL     OW34629   9.225  12.356   0.323  0.0177  0.8315 -0.7497
 5546SOL    HW134630   9.287  12.373   0.394 -1.4829  1.8776  0.3895
 5546SOL    HW234631   9.258  12.278   0.280  1.9301  1.1769  0.0090
 5547SOL     OW34632   9.177  13.649  12.461 -0.4300  0.3154  0.1555
 5547SOL    HW134633   9.092  13.618  12.430  0.0764 -0.8683 -0.1114
 5547SOL    HW234634   9.239  13.582  12.431  0.4222  0.4776  1.4866
 5548SOL     OW34635  12.647   5.947   2.730 -0.3571 -0.3230  0.1004
 5548SOL    HW134636  12.634   6.028   2.779  2.1734  0.5591 -0.5606
 5548SOL    HW234637  12.578   5.948   2.663 -1.4151  0.3764  1.1572
 5549SOL     OW34638   3.736   8.183  11.602 -0.1734 -0.2303  0.1659
 5549SOL    HW134639   3.665   8.209  11.661 -0.2859  0.7331 -0.3649
 5549SOL    HW234640   3.749   8.259  11.545 -0.6435 -1.4236 -1.6236
 5550SOL     OW34641   8.181   9.213   1.298 -0.7416  0.0495 -0.3640
 5550SOL    HW134642   8.131   9.189   1.220 -2.2135 -0.9856  0.8303
 5550SOL    HW234643   8.269   9.181   1.280 -1.2511 -0.9318 -1.2832
 5551SOL     OW34644   9.842   1.969  13.723 -0.2167 -0.1543  0.2935
 5551SOL    HW134645   9.906   2.003  13.786  0.2450 -0.4556 -0.0042
 5551SOL    HW234646   9.826   1.879  13.751  0.8301 -0.6572 -0.6404
 5552SOL     OW34647   5.180   7.333  10.560  0.2120 -0.4016 -0.0437
 5552SOL    HW134648   5.093   7.366  10.539  0.1746  0.4575  1.3137
 5552SOL    HW234649   5.227   7.410  10.594  1.3170 -0.9732 -0.2335
 5553SOL     OW34650   3.678  13.891   2.422  0.2472  0.1418  0.1089
 5553SOL    HW134651   3.713  13.889   2.333  1.5931 -1.0795  0.6392
 5553SOL    HW234652   3.749  13.859   2.477 -0.5567  0.8942  1.6442
 5554SOL     OW34653  12.180   1.355   8.545 -0.5492  0.0145  0.5853
 5554SOL    HW134654  12.189   1.436   8.595  1.6135 -0.5973  1.2782
 5554SOL    HW234655  12.099   1.367   8.495 -0.3959  2.5272  0.7965
 5555SOL     OW34656   0.317  12.641   2.855 -0.2785 -0.3261 -0.9898
 5555SOL    HW134657   0.257  12.579   2.898 -1.8794  1.9744  0.2943
 5555SOL    HW234658   0.272  12.666   2.775 -0.1708  0.0545 -0.9307
 5556SOL     OW34659   4.641   8.488  13.409  0.0505 -0.0441 -0.1463
 5556SOL    HW134660   4.594   8.439  13.341 -0.9614  2.2482 -1.2250
 5556SOL    HW234661   4.733   8.483  13.383 -0.2316  0.0964 -1.2486
 5557SOL     OW34662   4.208   6.751  11.642  0.1713 -0.5857 -0.6099
 5557SOL    HW134663   4.124   6.720  11.609 -0.6857 -0.3639  1.2613
 5557SOL    HW234664   4.229   6.693  11.715  0.1912  1.0795  0.7753
 5558SOL     OW34665   4.917  11.878   4.810  0.1325 -0.5421 -0.2016
 5558SOL    HW134666   4.881  11.795   4.777 -0.3575 -0.6513  0.5935
 5558SOL    HW234667   4.913  11.870   4.905 -3.0510  1.6611  0.0347
 5559SOL     OW34668   6.222   0.935  13.756 -0.0129  0.5680 -0.0056
 5559SOL    HW134669   6.246   0.851  13.796 -1.8639  0.5049  1.0572
 5559SOL    HW234670   6.299   0.959  13.704  1.0129 -1.2005  0.6042
 5560SOL     OW34671   2.870   0.339  12.046 -0.2349 -0.5986 -0.5720
 5560SOL    HW134672   2.878   0.248  12.075 -1.1323 -0.2549  0.9021
 5560SOL    HW234673   2.823   0.334  11.963  2.5347 -1.6473 -2.1963
 5561SOL     OW34674  13.986  14.080   2.724 -0.1383 -0.2841 -0.2878
 5561SOL    HW134675  13.919  14.015   2.746 -0.8838  0.3686 -0.5805
 5561SOL    HW234676  14.056  14.065   2.788 -0.0883 -1.6644 -0.6244
 5562SOL     OW34677   4.671   2.777  11.423  0.4903 -0.5458  0.5268
 5562SOL    HW134678   4.686   2.742  11.511  1.5590 -1.5254 -0.0090
 5562SOL    HW234679   4.697   2.869  11.428 -0.9821 -0.1537  1.6132
 5563SOL     OW34680   9.270  11.459   3.703 -0.4796 -0.2070  0.2668
 5563SOL    HW134681   9.292  11.502   3.786 -1.2095 -1.1771  0.9739
 5563SOL    HW234682   9.340  11.487   3.643 -1.3035  2.5587  0.4604
 5564SOL     OW34683   3.816  11.050  13.987 -0.4631 -0.3324 -0.1354
 5564SOL    HW134684   3.794  11.139  13.961 -2.0846 -0.1366  1.6253
 5564SOL    HW234685   3.799  10.997  13.909 -1.7639  0.6237 -0.5531
 5565SOL     OW34686   5.755   9.798   0.601 -0.5502  0.2373  0.6785
 5565SOL    HW134687   5.695   9.835   0.666  0.3715  2.7687  0.2191
 5565SOL    HW234688   5.840   9.837   0.623  0.0321  0.1209 -1.2381
 5566SOL     OW34689   7.309   8.916   2.709 -0.3552 -0.1691  0.2517
 5566SOL    HW134690   7.297   8.881   2.620  0.3913  0.7925 -0.2433
 5566SOL    HW234691   7.402   8.904   2.726 -0.1655  1.1580  0.2410
 5567SOL     OW34692   6.092  13.605   6.936  0.0825 -0.5224  0.0534
 5567SOL    HW134693   6.187  13.615   6.924  0.1165 -1.2038 -0.3243
 5567SOL    HW234694   6.084  13.555   7.017  0.2527 -3.8522 -1.7769
 5568SOL     OW34695  11.415  13.394   9.025 -0.0254 -0.3275 -0.0526
 5568SOL    HW134696  11.370  13.478   9.013  0.8802  0.3031  0.8239
 5568SOL    HW234697  11.395  13.368   9.115  0.2256 -0.7310 -0.1092
 5569SOL     OW34698   0.338   6.819   1.673 -0.0213  0.2277  0.1494
 5569SOL    HW134699   0.265   6.880   1.662  0.3344  0.5910 -0.2353
 5569SOL    HW234700   0.305   6.736   1.639  0.1084  0.6586 -1.1114
 5570SOL     OW34701   5.015   7.091   6.879 -0.4640  0.5036 -0.3919
 5570SOL    HW134702   5.008   7.010   6.830 -0.0589 -0.8271  1.6126
 5570SOL    HW234703   4.929   7.133   6.869 -1.3858 -1.1717  0.1078
 5571SOL     OW34704   2.113   3.551   6.793  0.9149  0.6006 -0.2031
 5571SOL    HW134705   2.055   3.554   6.717 -1.2313 -0.1619  1.3146
 5571SOL    HW234706   2.139   3.459   6.800 -1.4779 -0.0123  1.7341
 5572SOL     OW34707  14.117  11.600   1.729  0.2442  0.3408 -0.0083
 5572SOL    HW134708  14.113  11.654   1.808 -1.2358  0.7034 -0.3003
 5572SOL    HW234709  14.111  11.510   1.761  3.2524  0.2166  0.5248
 5573SOL     OW34710   1.673   8.665  12.056 -0.3273 -0.5624 -0.3091
 5573SOL    HW134711   1.727   8.586  12.053 -0.2102 -0.4862 -0.1645
 5573SOL    HW234712   1.721   8.729  12.004  0.5404  0.0221  1.1551
 5574SOL     OW34713   6.370   0.908  10.914 -0.3888  0.2598  0.2371
 5574SOL    HW134714   6.403   0.843  10.852  1.1076 -1.1594  2.4031
 5574SOL    HW234715   6.289   0.869  10.949 -0.8153  0.7135 -0.2169
 5575SOL     OW34716   1.933   6.507   8.428  0.5699  0.3006 -0.3717
 5575SOL    HW134717   1.938   6.598   8.399 -0.2285  0.7891  0.9405
 5575SOL    HW234718   1.842   6.495   8.456  0.3251 -1.2736 -1.6552
 5576SOL     OW34719  13.413  12.863  12.333 -0.0140 -0.0222  0.4178
 5576SOL    HW134720  13.399  12.784  12.281  1.5398 -0.5790  0.7887
 5576SOL    HW234721  13.341  12.921  12.309 -0.1804 -0.8485 -1.2005
 5577SOL     OW34722   2.815   2.164  11.301 -0.7175 -0.1710 -0.1034
 5577SOL    HW134723   2.873   2.223  11.253 -1.4230 -0.1573 -0.9797
 5577SOL    HW234724   2.837   2.178  11.393 -1.1033  1.7337 -0.2588
 5578SOL     OW34725   4.772   9.077   1.690 -0.0683 -0.0927 -0.1114
 5578SOL    HW134726   4.736   9.147   1.744 -1.8098  0.9972 -2.5069
 5578SOL    HW234727   4.732   8.997   1.724  1.0392  0.1386  1.9153
 5579SOL     OW34728   1.214   8.577  12.982  0.1843  0.2717  0.1816
 5579SOL    HW134729   1.181   8.550  12.896  0.1629  2.4551 -0.5636
 5579SOL    HW234730   1.152   8.644  13.011  0.3578 -0.2269  1.7804
 5580SOL     OW34731   1.869  11.271  13.600 -0.3653 -0.0204  0.5010
 5580SOL    HW134732   1.934  11.225  13.654 -0.1989 -0.2529  0.1072
 5580SOL    HW234733   1.785  11.235  13.627 -0.3038  0.0649  0.8044
 5581SOL     OW34734   7.803  12.682   9.744 -0.3616 -0.3269 -0.4671
 5581SOL    HW134735   7.717  12.712   9.773 -0.7056 -1.9509  0.2723
 5581SOL    HW234736   7.785  12.613   9.681  0.3850 -0.7427 -0.2435
 5582SOL     OW34737   7.567   7.248   2.843  0.1464  0.0856 -0.0040
 5582SOL    HW134738   7.483   7.205   2.831  0.0115  0.5251 -0.6794
 5582SOL    HW234739   7.630   7.190   2.800  0.0532  0.2370 -0.3471
 5583SOL     OW34740   1.862   5.775  11.109 -0.0431 -0.7040 -0.4871
 5583SOL    HW134741   1.877   5.869  11.113 -0.1195 -0.7067 -0.0773
 5583SOL    HW234742   1.931   5.738  11.163 -1.9203 -0.6676  2.1281
 5584SOL     OW34743   3.521  11.012   8.859 -0.1665  0.4980 -0.9103
 5584SOL    HW134744   3.593  11.039   8.916 -0.1622 -2.2438  0.5201
 5584SOL    HW234745   3.563  10.959   8.791 -0.5051  1.6347 -2.0666
 5585SOL     OW34746   1.019   6.998   9.064 -0.4951  0.1704 -0.1691
 5585SOL    HW134747   0.995   6.992   8.971  0.6926 -0.1891 -0.4724
 5585SOL    HW234748   1.054   7.086   9.074  0.6873 -0.2408 -0.4222
 5586SOL     OW34749   6.876   6.746  13.975  0.0975 -0.7951  0.0757
 5586SOL    HW134750   6.960   6.787  13.955  0.1407 -0.5015  0.8546
 5586SOL    HW234751   6.884   6.657  13.941  0.5198 -0.6060 -0.3358
 5587SOL     OW34752   9.146   5.514  11.821 -0.0280  0.2779 -0.3035
 5587SOL    HW134753   9.165   5.576  11.891 -0.8165 -0.9886  1.1039
 5587SOL    HW234754   9.214   5.447  11.830  0.0388  0.2594 -0.9394
 5588SOL     OW34755   6.079   9.553   0.291  0.3022  0.3948 -0.5895
 5588SOL    HW134756   6.001   9.541   0.346  0.9721 -0.0657  0.2894
 5588SOL    HW234757   6.103   9.645   0.304 -0.7687  0.8658 -1.8002
 5589SOL     OW34758  10.199  12.933   1.197  0.4897  0.0449  0.6652
 5589SOL    HW134759  10.214  12.846   1.161 -1.5016 -0.1207  0.1022
 5589SOL    HW234760  10.266  12.944   1.264  2.0117 -1.1062 -0.6167
 5590SOL     OW34761  13.365  12.842   2.229  0.0695  0.5163 -0.2387
 5590SOL    HW134762  13.302  12.890   2.174 -1.1513  2.2080  2.4456
 5590SOL    HW234763  13.429  12.909   2.256  0.9188 -0.3821  0.0354
 5591SOL     OW34764  12.709   8.746  10.880  0.1748  0.0235  0.1772
 5591SOL    HW134765  12.761   8.710  10.951  2.1849  0.7429 -0.8642
 5591SOL    HW234766  12.660   8.672  10.846  1.2746 -0.9057  0.5723
 5592SOL     OW34767   3.330   1.907  11.168  0.1492 -0.0967  0.0941
 5592SOL    HW134768   3.288   1.991  11.187  0.1308 -0.3849  1.4655
 5592SOL    HW234769   3.259   1.852  11.134  0.3326  0.6578 -1.6356
 5593SOL     OW34770   0.009  11.766   5.030 -0.2930 -0.3191 -0.3258
 5593SOL    HW134771  -0.038  11.739   4.951 -1.6454  2.1669 -0.4917
 5593SOL    HW234772   0.072  11.831   4.999 -2.6119  2.7014  0.7456
 5594SOL     OW34773  12.168   3.917   1.395 -0.1723  0.0361  0.2577
 5594SOL    HW134774  12.109   3.990   1.373 -1.0801 -0.7758 -0.1003
 5594SOL    HW234775  12.142   3.892   1.484  0.9168  0.8670  0.8330
 5595SOL     OW34776   1.988  13.068   4.121  0.3399  0.3088 -0.2725
 5595SOL    HW134777   2.035  13.151   4.127 -0.8011  0.8972  1.0177
 5595SOL    HW234778   2.056  13.002   4.111  1.5401  1.0463  2.2156
 5596SOL     OW34779   5.756  11.336   1.508  0.1397 -0.3949  0.2569
 5596SOL    HW134780   5.843  11.338   1.470  0.0758 -2.3370 -0.0890
 5596SOL    HW234781   5.706  11.402   1.459  1.3889  0.7958  0.5135
 5597SOL     OW34782   1.409   1.567  11.281  0.4142  0.0542  0.0603
 5597SOL    HW134783   1.391   1.629  11.352 -0.3413 -1.7798  1.5448
 5597SOL    HW234784   1.330   1.569  11.226 -0.4757 -1.0284  1.2486
 5598SOL     OW34785   8.831   8.433  10.956 -0.1522  0.2447  0.4251
 5598SOL    HW134786   8.917   8.475  10.961 -0.2856  0.7268 -0.9432
 5598SOL    HW234787   8.796   8.439  11.045  1.1222  0.2658  0.9348
 5599SOL     OW34788  10.600   0.429   7.565  0.0748 -0.1070  0.4552
 5599SOL    HW134789  10.599   0.341   7.526  2.1575 -0.1518  0.4185
 5599SOL    HW234790  10.655   0.420   7.642 -2.4016  0.4514  2.4204
 5600SOL     OW34791   1.885  11.534   3.351  0.1186  0.3224  0.4910
 5600SOL    HW134792   1.938  11.486   3.288  0.2299  0.8062  0.2130
 5600SOL    HW234793   1.931  11.525   3.434  0.7848  0.9651  0.1992
 5601SOL     OW34794  11.018  11.540  11.386  0.0367  0.7917  0.2656
 5601SOL    HW134795  11.068  11.616  11.417 -0.0244  0.8327  0.2614
 5601SOL    HW234796  11.084  11.482  11.348  0.2058  0.4293  1.0918
 5602SOL     OW34797   6.052   1.643   0.290  0.4751  0.0725 -0.7343
 5602SOL    HW134798   5.979   1.590   0.258  1.0776 -0.2222 -1.6493
 5602SOL    HW234799   6.011   1.709   0.346 -0.4181 -0.5146 -0.6813
 5603SOL     OW34800   2.875   7.440  12.023  0.6553 -0.2987  0.2703
 5603SOL    HW134801   2.839   7.363  12.067  0.5613  0.2663  1.2118
 5603SOL    HW234802   2.863   7.511  12.086 -1.3449  0.9945 -1.4160
 5604SOL     OW34803   2.227  12.173  12.642  0.5425 -0.4616 -0.0753
 5604SOL    HW134804   2.159  12.141  12.701  0.3978 -2.8953 -1.4115
 5604SOL    HW234805   2.181  12.190  12.560  1.2729 -0.5600 -0.5104
 5605SOL     OW34806  12.891   6.238   0.818  0.5256 -0.5884 -0.8730
 5605SOL    HW134807  12.970   6.191   0.847 -0.1633 -1.3367 -0.1737
 5605SOL    HW234808  12.925   6.313   0.770  1.6698 -1.0832 -0.8823
 5606SOL     OW34809  11.732   5.396   1.438  0.1609 -0.1851  0.1638
 5606SOL    HW134810  11.661   5.360   1.491 -0.8751  1.8460  0.2864
 5606SOL    HW234811  11.766   5.322   1.389 -2.0219 -1.2433  0.1286
 5607SOL     OW34812   7.004  11.876   1.074  0.6508 -0.7224  0.0754
 5607SOL    HW134813   6.937  11.874   1.142  0.4001 -0.8293 -0.1704
 5607SOL    HW234814   7.081  11.913   1.116  0.1537  0.2868  0.1120
 5608SOL     OW34815  14.084   2.724   6.729 -0.4193 -0.1039 -0.6895
 5608SOL    HW134816  14.177   2.750   6.736 -0.3754 -0.5344  0.7836
 5608SOL    HW234817  14.037   2.807   6.726  0.0295  0.1212 -1.9256
 5609SOL     OW34818  11.409   0.950   3.159  0.1576  0.0541  0.1997
 5609SOL    HW134819  11.501   0.972   3.148  0.0764  0.6302  0.6490
 5609SOL    HW234820  11.371   0.958   3.071  0.4119  0.4012  0.1213
 5610SOL     OW34821  10.767   4.603   8.863 -0.1104 -0.1521  0.6991
 5610SOL    HW134822  10.810   4.683   8.833  2.4090 -1.9434 -0.8659
 5610SOL    HW234823  10.795   4.594   8.954  0.2079  0.3347  0.6556
 5611SOL     OW34824   3.027   6.580   2.751  0.0822  0.3806 -0.2511
 5611SOL    HW134825   3.050   6.489   2.730 -1.7722 -0.1370 -0.2377
 5611SOL    HW234826   3.089   6.633   2.701 -1.3781 -0.8506 -3.6741
 5612SOL     OW34827   9.616   7.776   7.200  0.2423  0.5904 -0.4767
 5612SOL    HW134828   9.559   7.853   7.193  0.9879  1.2640  0.5778
 5612SOL    HW234829   9.650   7.779   7.289  0.7295 -0.6549 -0.6009
 5613SOL     OW34830   3.931  12.364  10.434 -0.0660  0.2595  0.5552
 5613SOL    HW134831   3.944  12.433  10.499 -1.2920  0.7366  0.3214
 5613SOL    HW234832   3.976  12.397  10.355 -2.3268  1.7938 -0.1893
 5614SOL     OW34833   9.214   2.120   0.228  0.2159 -0.4869 -0.0169
 5614SOL    HW134834   9.197   2.210   0.201  0.2111 -0.3212  0.5133
 5614SOL    HW234835   9.310   2.114   0.231  0.2528 -0.9781 -1.5765
 5615SOL     OW34836   3.561   6.938   5.080  0.2483 -0.0440 -0.1187
 5615SOL    HW134837   3.585   6.884   5.154  1.3937  1.0219  0.3149
 5615SOL    HW234838   3.644   6.964   5.041 -0.1681  2.4810  0.5041
 5616SOL     OW34839   0.139  12.798  10.812 -0.4662 -0.0692 -0.6405
 5616SOL    HW134840   0.231  12.820  10.825 -0.5492  0.7434 -1.3585
 5616SOL    HW234841   0.102  12.874  10.766 -0.9465 -1.3863 -2.5214
 5617SOL     OW34842   8.853   4.921   5.888  0.1646 -0.1675 -0.7137
 5617SOL    HW134843   8.773   4.870   5.876  0.1103  0.0923 -1.4680
 5617SOL    HW234844   8.921   4.869   5.845  0.3755 -0.3071 -0.2165
 5618SOL     OW34845  13.365   8.819   1.932  0.4539 -0.2127  0.0631
 5618SOL    HW134846  13.387   8.912   1.943  1.1086 -0.4520  0.9163
 5618SOL    HW234847  13.294   8.804   1.994 -0.7208  0.0585 -1.1703
 5619SOL     OW34848   2.632   7.039  11.367  0.0607 -0.5352  0.2947
 5619SOL    HW134849   2.709   7.021  11.314  1.4413 -0.3785  2.1327
 5619SOL    HW234850   2.606   6.954  11.402 -0.8215 -0.6354 -0.5783
 5620SOL     OW34851  10.850  12.315   6.128  0.3044  0.0414  0.2749
 5620SOL    HW134852  10.861  12.348   6.217 -3.4727 -2.4826  1.9377
 5620SOL    HW234853  10.867  12.221   6.135  0.4226 -0.1441 -1.8384
 5621SOL     OW34854   2.214   3.405   0.808  0.0146 -0.2124  0.8807
 5621SOL    HW134855   2.251   3.493   0.807  1.3765 -0.7665  0.1269
 5621SOL    HW234856   2.210   3.379   0.716  1.5351 -1.6784  1.1756
 5622SOL     OW34857   9.794   1.167   3.118 -0.3926  0.5377 -0.9104
 5622SOL    HW134858   9.721   1.228   3.124 -1.8766 -1.1791 -0.2838
 5622SOL    HW234859   9.850   1.188   3.193 -2.4830 -0.7136  1.1613
 5623SOL     OW34860   2.441   7.487   7.556  0.0538  0.2205  0.4092
 5623SOL    HW134861   2.399   7.496   7.642  0.2175 -0.3671  0.5561
 5623SOL    HW234862   2.412   7.401   7.525  1.3222 -0.2996  0.6145
 5624SOL     OW34863   1.345   2.465  10.070  0.4211 -0.0726  0.3355
 5624SOL    HW134864   1.329   2.455  10.164  1.6002 -1.0224  0.4688
 5624SOL    HW234865   1.376   2.379  10.042  2.1744  0.7644 -0.4697
 5625SOL     OW34866  12.264   4.764   8.210  0.2126  0.5283  0.4488
 5625SOL    HW134867  12.203   4.693   8.225  0.3068  0.1956 -0.6044
 5625SOL    HW234868  12.212   4.844   8.217 -0.3608  0.2499 -0.4326
 5626SOL     OW34869  12.326   6.097   6.513  0.2848  0.2038  0.9062
 5626SOL    HW134870  12.263   6.038   6.554 -1.7986  1.9653  0.4189
 5626SOL    HW234871  12.342   6.058   6.427  0.5301 -0.6780  1.3332
 5627SOL     OW34872   3.514   6.602  13.577  0.1213  0.5225 -0.6925
 5627SOL    HW134873   3.438   6.623  13.523  0.4901 -2.0476 -2.3698
 5627SOL    HW234874   3.583   6.661  13.546 -0.3193  0.6944 -1.3535
 5628SOL     OW34875   2.840  13.847  12.021 -0.2312 -0.6374 -0.0144
 5628SOL    HW134876   2.875  13.826  11.934 -1.5413  1.5344 -1.1417
 5628SOL    HW234877   2.906  13.904  12.061 -0.0692 -0.8625  0.0412
 5629SOL     OW34878   1.251   9.365   5.040 -0.0485  0.4265 -0.2680
 5629SOL    HW134879   1.222   9.282   5.076 -0.5824  0.6978 -0.0588
 5629SOL    HW234880   1.333   9.345   4.995 -0.2337 -0.2273 -0.3162
 5630SOL     OW34881   9.802   1.713  13.805  0.4724  0.0337 -0.3813
 5630SOL    HW134882   9.895   1.690  13.801  0.8236  0.8817  1.7742
 5630SOL    HW234883   9.772   1.676  13.888 -0.6809  1.2079 -0.2501
 5631SOL     OW34884  13.698   2.489   5.773 -0.4094  0.2160 -0.3164
 5631SOL    HW134885  13.735   2.520   5.856  0.9025  1.4552 -1.3068
 5631SOL    HW234886  13.640   2.560   5.746 -0.4799  0.0140 -0.6925
 5632SOL     OW34887   0.417  14.110   8.543  0.4941 -0.3923  0.2021
 5632SOL    HW134888   0.393  14.082   8.455 -0.7462  2.6136 -0.5110
 5632SOL    HW234889   0.383  14.040   8.600 -1.6884 -0.7961 -1.4579
 5633SOL     OW34890  13.757   9.335   5.382 -0.8446  0.4118 -0.3117
 5633SOL    HW134891  13.733   9.269   5.317 -1.2769 -0.1006  0.3388
 5633SOL    HW234892  13.823   9.390   5.340 -0.7562 -0.2145 -0.9935
 5634SOL     OW34893   8.632  13.146   9.557 -0.4446  0.2322  0.1578
 5634SOL    HW134894   8.663  13.180   9.641  0.2483 -0.0676  0.0344
 5634SOL    HW234895   8.682  13.065   9.545 -0.8215  0.0739 -0.3590
 5635SOL     OW34896   2.656   4.113   1.432  0.1354 -0.7430 -0.2202
 5635SOL    HW134897   2.634   4.021   1.446  0.6564 -0.6987  0.9885
 5635SOL    HW234898   2.649   4.125   1.338  0.0010 -2.0047 -0.3902
 5636SOL     OW34899   3.676  13.373   5.130 -0.6359 -0.5976  0.4835
 5636SOL    HW134900   3.769  13.351   5.126 -0.5489 -0.3874  1.1056
 5636SOL    HW234901   3.660  13.426   5.052  0.0034  0.1949  0.8776
 5637SOL     OW34902   1.856  11.981  10.589  0.7830 -0.2072  0.2495
 5637SOL    HW134903   1.809  11.975  10.672 -0.9949 -0.6887 -0.7234
 5637SOL    HW234904   1.888  11.893  10.572 -0.7764 -0.6596 -0.5760
 5638SOL     OW34905  12.039   7.889  12.269  1.1501 -0.1045 -0.0157
 5638SOL    HW134906  12.036   7.849  12.356  1.6615 -2.2380 -0.9241
 5638SOL    HW234907  11.947   7.895  12.242  1.0314 -0.0155  0.3932
 5639SOL     OW34908   4.359   3.468  11.289 -0.5453 -0.5809  0.5527
 5639SOL    HW134909   4.374   3.538  11.225 -1.7556  0.1681  1.0298
 5639SOL    HW234910   4.276   3.428  11.262 -0.9363 -0.4310  1.4727
 5640SOL     OW34911   3.361  12.995   9.281 -0.4939 -0.0078  0.4613
 5640SOL    HW134912   3.350  13.058   9.352 -1.7427 -0.4541  0.6823
 5640SOL    HW234913   3.275  12.988   9.240 -0.1926 -0.9893 -0.0506
 5641SOL     OW34914   3.362   2.459   7.669  0.3373  0.1669 -0.6477
 5641SOL    HW134915   3.392   2.527   7.610 -2.9666  1.3436 -1.1810
 5641SOL    HW234916   3.330   2.389   7.612 -0.2687  0.0770 -0.2184
 5642SOL     OW34917  13.664   5.929   9.990 -0.2271 -0.3980 -0.8121
 5642SOL    HW134918  13.704   5.881   9.917 -1.6313 -0.9319 -1.2492
 5642SOL    HW234919  13.580   5.960   9.956 -0.2413  0.6384  0.1157
 5643SOL     OW34920  13.995   1.012  10.364  0.2590  0.0993 -0.4944
 5643SOL    HW134921  13.973   0.919  10.359  1.1853 -0.1765  0.2995
 5643SOL    HW234922  13.952   1.051  10.288 -0.4969 -0.8995 -0.6016
 5644SOL     OW34923   6.781   5.194   3.202 -0.1895 -0.7105  0.4394
 5644SOL    HW134924   6.817   5.222   3.286 -2.0643  0.7628  0.8151
 5644SOL    HW234925   6.692   5.166   3.222 -0.6566 -0.3716 -1.0456
 5645SOL     OW34926   5.286   5.068  11.338  0.4378 -0.5452  0.1207
 5645SOL    HW134927   5.353   5.105  11.281  0.9011  0.1051  1.0592
 5645SOL    HW234928   5.318   4.981  11.360  1.1638 -0.1246  0.8146
 5646SOL     OW34929   0.287  13.879   8.486  0.7078 -0.0637 -0.3899
 5646SOL    HW134930   0.237  13.811   8.441  0.1386  0.7564 -1.0287
 5646SOL    HW234931   0.226  13.917   8.549  2.1369 -2.8320  3.0390
 5647SOL     OW34932   3.737  12.689   5.805 -0.1402 -0.9518 -0.2773
 5647SOL    HW134933   3.753  12.674   5.898 -0.9947 -2.6768 -0.3713
 5647SOL    HW234934   3.647  12.721   5.800  0.6726  1.6173 -0.3637
 5648SOL     OW34935   4.670   8.946   8.274 -0.1077 -0.5425 -0.4876
 5648SOL    HW134936   4.655   8.855   8.249 -0.7745 -0.4356 -0.4791
 5648SOL    HW234937   4.662   8.947   8.369 -1.1244 -0.2943 -0.5636
 5649SOL     OW34938  13.674  10.405   1.172 -0.6659  0.1300  0.3668
 5649SOL    HW134939  13.673  10.367   1.259  0.5859  1.6766  1.1064
 5649SOL    HW234940  13.748  10.363   1.128  1.5697  2.4878  1.6343
 5650SOL     OW34941   8.172  10.744   8.239  0.4080 -0.5953 -0.0032
 5650SOL    HW134942   8.159  10.834   8.208  0.9237 -0.6086 -0.2773
 5650SOL    HW234943   8.245  10.750   8.301  0.1613 -0.7574  0.3019
 5651SOL     OW34944  13.090   8.451   5.732  0.6475  0.6678 -0.1879
 5651SOL    HW134945  13.180   8.450   5.699  0.4418 -0.0668 -0.7353
 5651SOL    HW234946  13.077   8.363   5.768  0.1678  0.7902 -0.0560
 5652SOL     OW34947   7.556  11.448   2.742  0.2167 -0.0544  0.7489
 5652SOL    HW134948   7.616  11.462   2.816  0.4710  0.4436  0.4538
 5652SOL    HW234949   7.502  11.527   2.741 -0.4768 -0.5183  1.0373
 5653SOL     OW34950   5.671   3.767  11.405 -0.9041 -0.2010  0.4484
 5653SOL    HW134951   5.688   3.701  11.472 -1.9247 -2.4413 -1.3727
 5653SOL    HW234952   5.577   3.761  11.389 -0.5721 -0.2674 -1.6979
 5654SOL     OW34953   9.348   1.824   3.595  0.1951 -0.3152  0.2018
 5654SOL    HW134954   9.415   1.867   3.648  1.6250  0.0387 -1.7603
 5654SOL    HW234955   9.359   1.862   3.507 -2.3500 -0.5244 -0.2870
 5655SOL     OW34956   1.810   8.276   4.060  0.0455 -0.8069  0.6529
 5655SOL    HW134957   1.798   8.281   4.155  0.6690 -0.0332  0.6951
 5655SOL    HW234958   1.723   8.296   4.024 -0.5001 -2.3205  1.0660
 5656SOL     OW34959   7.886  13.213   2.216  0.3727 -0.0398 -0.5488
 5656SOL    HW134960   7.848  13.247   2.297  0.3768 -0.3366 -0.4216
 5656SOL    HW234961   7.831  13.137   2.194  1.9222 -1.5607  0.5851
 5657SOL     OW34962   1.654  11.985   9.861 -0.3018 -0.3689  0.6021
 5657SOL    HW134963   1.622  12.009   9.774  4.3636  1.8688 -0.8026
 5657SOL    HW234964   1.624  12.057   9.918  1.4039  1.3225 -0.5175
 5658SOL     OW34965  11.125  11.418   8.313 -0.6129  0.5168  0.4045
 5658SOL    HW134966  11.147  11.509   8.334  0.1475  0.5578 -0.5106
 5658SOL    HW234967  11.170  11.401   8.230 -0.4655 -0.8057  0.7385
 5659SOL     OW34968   9.538  14.014   7.556 -0.1077  0.3851  0.5405
 5659SOL    HW134969   9.499  14.062   7.629  2.2754  1.7986  1.0002
 5659SOL    HW234970   9.586  13.943   7.598 -1.7280 -1.0915  0.0156
 5660SOL     OW34971   6.795  13.975  12.785 -0.0685 -0.6264  0.0705
 5660SOL    HW134972   6.726  14.015  12.837  0.1525 -0.7542  0.4769
 5660SOL    HW234973   6.871  13.973  12.844  0.0565 -1.2019 -0.0953
 5661SOL     OW34974   9.240   2.425   6.656  0.1560 -0.3472 -0.7158
 5661SOL    HW134975   9.324   2.446   6.616  0.7871  0.1804  0.8132
 5661SOL    HW234976   9.195   2.509   6.665  0.1913 -0.3901 -0.0149
 5662SOL     OW34977  10.512  11.337   6.898 -0.6358 -0.2074 -0.1474
 5662SOL    HW134978  10.478  11.257   6.856 -1.8930  0.6077 -0.7353
 5662SOL    HW234979  10.437  11.372   6.945 -0.3761  1.1596 -0.7162
 5663SOL     OW34980   7.494  12.748   0.395 -0.0586  0.4531  0.1709
 5663SOL    HW134981   7.427  12.712   0.337  0.3034 -1.7874  1.0701
 5663SOL    HW234982   7.538  12.672   0.433  0.6020  1.8303  2.3825
 5664SOL     OW34983   3.442   9.796   9.784  0.6173  0.9138 -0.1568
 5664SOL    HW134984   3.389   9.717   9.793 -1.3656  2.2895  0.9057
 5664SOL    HW234985   3.426   9.826   9.695 -0.9464  1.6490  0.3425
 5665SOL     OW34986   0.837  10.118   1.467  0.1349 -0.2888  0.2105
 5665SOL    HW134987   0.925  10.081   1.469  0.4674  0.3913 -0.9504
 5665SOL    HW234988   0.837  10.183   1.537  0.2357 -0.9672  0.8485
 5666SOL     OW34989  13.375   7.483   5.421  0.0558 -0.3584  0.2887
 5666SOL    HW134990  13.312   7.503   5.352 -1.8296  0.6666  2.1906
 5666SOL    HW234991  13.348   7.396   5.452  0.3586 -0.4539  0.2799
 5667SOL     OW34992   3.197  11.404   4.923 -0.2103 -0.4160  0.0582
 5667SOL    HW134993   3.250  11.330   4.954  0.1489  0.8918  2.9412
 5667SOL    HW234994   3.200  11.467   4.995 -3.9950  0.6361 -0.4632
 5668SOL     OW34995   2.594   0.667   8.284 -1.0412  0.2289 -0.0139
 5668SOL    HW134996   2.687   0.666   8.305 -0.6476 -2.3889 -1.5138
 5668SOL    HW234997   2.550   0.660   8.369  0.2424 -1.4049  0.5671
 5669SOL     OW34998   7.272   7.418  10.803 -0.0304 -0.1037 -0.2121
 5669SOL    HW134999   7.191   7.367  10.801  0.2756 -0.5786 -1.9316
 5669SOL    HW235000   7.339   7.358  10.772  0.9335  0.4128  0.7977
 5670SOL     OW35001   7.479   4.910   9.569 -0.1417  0.1669  0.0532
 5670SOL    HW135002   7.534   4.929   9.645  0.5157  0.8116 -0.5622
 5670SOL    HW235003   7.408   4.856   9.603 -2.5697  4.1713  2.1443
 5671SOL     OW35004   8.797  12.548   3.980  0.0760  0.0804  0.2920
 5671SOL    HW135005   8.752  12.632   3.982 -0.6052 -0.1846 -1.4375
 5671SOL    HW235006   8.727  12.483   3.989 -0.2478 -0.3758 -3.6456
 5672SOL     OW35007   4.648   1.541   5.166 -0.0906 -0.5717 -0.0776
 5672SOL    HW135008   4.595   1.610   5.126  0.4965 -0.6133 -0.9804
 5672SOL    HW235009   4.724   1.587   5.201  0.1164 -0.7105 -0.3421
 5673SOL     OW35010  11.730  14.034  12.869 -0.3636  0.1472  0.5161
 5673SOL    HW135011  11.786  14.104  12.902  1.0044 -0.9963  0.6921
 5673SOL    HW235012  11.654  14.035  12.928  0.4590  0.3418  1.5946
 5674SOL     OW35013   0.053  11.465   9.901 -0.1013  0.7247 -0.1057
 5674SOL    HW135014   0.016  11.545   9.937 -0.9151  0.6312 -0.6930
 5674SOL    HW235015   0.010  11.394   9.950  1.6522  0.6358  1.3922
 5675SOL     OW35016  13.616   2.555   5.280  0.0734 -0.0871  0.6893
 5675SOL    HW135017  13.704   2.588   5.296  0.1150 -0.8192  2.1117
 5675SOL    HW235018  13.594   2.586   5.192  2.1795 -0.8229 -0.1402
 5676SOL     OW35019   1.847   7.900  12.420  0.6041 -0.6218 -0.4255
 5676SOL    HW135020   1.839   7.870  12.329  1.1346 -0.0992 -0.6462
 5676SOL    HW235021   1.935   7.937  12.425  0.1608  0.4035 -0.0081
 5677SOL     OW35022   8.311   8.792   0.242 -0.0499  0.3990 -0.4824
 5677SOL    HW135023   8.313   8.887   0.248 -1.5183  0.4055  0.4008
 5677SOL    HW235024   8.327   8.761   0.331 -0.8417 -0.1275 -0.5039
 5678SOL     OW35025  10.122   5.581   9.559  0.1526 -0.5898 -0.1086
 5678SOL    HW135026  10.217   5.581   9.546  0.1167 -1.7432 -0.4766
 5678SOL    HW235027  10.108   5.520   9.632 -0.3371 -0.7970 -0.3731
 5679SOL     OW35028   4.183   3.335   9.470 -0.0671  0.4898 -0.2416
 5679SOL    HW135029   4.185   3.257   9.526 -0.0614  0.6164 -0.0651
 5679SOL    HW235030   4.207   3.407   9.528 -1.6493  0.8620  0.0103
 5680SOL     OW35031   9.626   9.201   1.232 -0.2206 -0.2086  0.5844
 5680SOL    HW135032   9.586   9.164   1.154  1.5396  0.3976 -0.6451
 5680SOL    HW235033   9.680   9.130   1.268  0.1156 -0.0395  0.4167
 5681SOL     OW35034   0.978   2.722  12.490  0.5286 -0.1441  0.2468
 5681SOL    HW135035   0.999   2.810  12.519 -0.3191  0.2233 -0.2063
 5681SOL    HW235036   1.037   2.665  12.539 -0.5420  0.4752  2.3757
 5682SOL     OW35037   4.256   2.751   8.336 -0.8465  0.6293  0.2616
 5682SOL    HW135038   4.239   2.686   8.268  3.6968  0.7745 -1.3614
 5682SOL    HW235039   4.269   2.833   8.288 -0.4634  1.3852  1.6044
 5683SOL     OW35040   4.994  11.006   7.500 -1.1816 -0.6780  0.1121
 5683SOL    HW135041   5.088  10.988   7.486 -1.1384  0.2796 -1.0946
 5683SOL    HW235042   4.967  11.051   7.419 -2.4734 -0.1452  0.8164
 5684SOL     OW35043   1.325   5.712   2.636 -0.0832  0.1772  0.1162
 5684SOL    HW135044   1.417   5.691   2.622 -0.0798  0.6102 -0.5371
 5684SOL    HW235045   1.285   5.704   2.550  0.0172  3.3216 -0.3302
 5685SOL     OW35046   4.720   0.906   8.975 -0.1507 -0.4874  0.1535
 5685SOL    HW135047   4.723   0.811   8.961  1.1452 -0.7415  1.8291
 5685SOL    HW235048   4.654   0.918   9.043 -1.1596 -0.0280 -0.8693
 5686SOL     OW35049  12.080   6.934  10.201 -0.0002 -0.2493 -0.2496
 5686SOL    HW135050  12.011   7.000  10.191 -2.1657 -2.3632 -0.3168
 5686SOL    HW235051  12.091   6.924  10.296 -0.9316 -0.9309 -0.1918
 5687SOL     OW35052   2.953   6.130  10.806 -0.0965  0.1561 -0.4478
 5687SOL    HW135053   2.882   6.193  10.822 -0.9366 -0.4367 -1.7025
 5687SOL    HW235054   3.004   6.170  10.736  1.8003  1.3291  1.4911
 5688SOL     OW35055   5.522  12.591  11.362 -0.3255  0.0951  0.1984
 5688SOL    HW135056   5.507  12.579  11.455 -0.2831  0.6936  0.2847
 5688SOL    HW235057   5.606  12.548  11.345  0.2439  0.9786  0.6704
 5689SOL     OW35058  13.771   7.285   3.918  0.0755 -0.5305  0.1243
 5689SOL    HW135059  13.757   7.211   3.977 -1.6415  0.2167  0.7109
 5689SOL    HW235060  13.866   7.288   3.905  0.3816 -1.4179  1.9134
 5690SOL     OW35061   5.818  11.650   9.490 -0.3509  0.3580  0.1051
 5690SOL    HW135062   5.775  11.732   9.514  0.0831  0.7754 -0.5315
 5690SOL    HW235063   5.787  11.631   9.402 -0.6872 -0.3294  0.3647
 5691SOL     OW35064   0.602   3.177   4.502 -0.3197  0.4449  0.0893
 5691SOL    HW135065   0.530   3.206   4.445  0.1544  2.3807  0.3759
 5691SOL    HW235066   0.674   3.157   4.442 -1.0113 -1.3946 -0.1911
 5692SOL     OW35067   2.050  10.489  12.228 -0.2252 -0.1030  0.0350
 5692SOL    HW135068   2.075  10.483  12.135 -0.8125 -0.4149 -0.1090
 5692SOL    HW235069   2.118  10.440  12.274 -0.2203 -0.4023 -0.2848
 5693SOL     OW35070  12.984   0.359   8.316 -0.9562  0.6421  0.8529
 5693SOL    HW135071  12.931   0.403   8.251 -0.6218 -1.7818 -1.2350
 5693SOL    HW235072  12.927   0.349   8.392 -2.2864  1.1826 -0.0477
 5694SOL     OW35073   1.761   8.401  12.722 -0.6770 -0.1645 -0.6020
 5694SOL    HW135074   1.808   8.387  12.639  1.0276  0.2341  0.2500
 5694SOL    HW235075   1.788   8.328  12.778  0.6302  1.1616  0.5920
 5695SOL     OW35076   9.168   8.889   8.692 -0.3792  0.0790  0.3768
 5695SOL    HW135077   9.229   8.961   8.676 -1.6618  1.0199 -0.5307
 5695SOL    HW235078   9.139   8.901   8.783 -2.1781  2.0646 -0.3649
 5696SOL     OW35079   2.087   4.475   1.390  0.4176 -0.5779 -0.0066
 5696SOL    HW135080   2.046   4.397   1.428 -1.1012 -0.5473 -1.4628
 5696SOL    HW235081   2.121   4.445   1.306 -1.1404  0.4953 -1.0886
 5697SOL     OW35082  11.907   4.476   1.566  0.8806  0.0108 -0.5739
 5697SOL    HW135083  11.838   4.478   1.633 -0.3705 -4.0881 -1.4326
 5697SOL    HW235084  11.860   4.456   1.484  2.9079 -1.1806 -1.5126
 5698SOL     OW35085   1.552   0.177  11.561  0.1637  0.0667  0.3174
 5698SOL    HW135086   1.633   0.139  11.528  0.2103 -3.0113  3.4153
 5698SOL    HW235087   1.483   0.134  11.510  0.3661  0.4168 -0.2639
 5699SOL     OW35088   0.576   6.677   9.613  0.1291 -0.3735 -0.2276
 5699SOL    HW135089   0.538   6.736   9.678  0.4663  0.0962 -0.4473
 5699SOL    HW235090   0.631   6.618   9.664  1.1037  0.5570 -0.1574
 5700SOL     OW35091  13.937   5.930   5.952 -0.3576 -0.3852 -0.1509
 5700SOL    HW135092  13.948   5.840   5.923 -3.0849 -0.6099 -0.7621
 5700SOL    HW235093  13.858   5.929   6.006 -0.9122  1.7565 -0.8026
 5701SOL     OW35094  13.142   5.085   8.770  0.1292  0.3097 -0.3739
 5701SOL    HW135095  13.164   5.109   8.680 -0.0275  2.1561  0.0444
 5701SOL    HW235096  13.065   5.138   8.791  0.7994  0.7030  1.2100
 5702SOL     OW35097   0.323  12.538   3.237 -0.0259  0.0281  0.1486
 5702SOL    HW135098   0.411  12.573   3.250  0.4453 -0.6901 -0.9954
 5702SOL    HW235099   0.336  12.444   3.221 -0.7961  0.2124 -1.9016
 5703SOL     OW35100  13.855   3.476  13.490 -0.5913  0.2144  0.2197
 5703SOL    HW135101  13.888   3.515  13.409 -0.4186  2.1688  1.1604
 5703SOL    HW235102  13.760   3.475  13.480 -0.6570  1.6767  0.4726
 5704SOL     OW35103   6.146   0.740   5.813 -0.1558 -0.4720  0.1317
 5704SOL    HW135104   6.107   0.740   5.726 -2.1174 -1.1900  0.9499
 5704SOL    HW235105   6.089   0.796   5.866  0.7533 -0.3774  1.0554
 5705SOL     OW35106  12.959   1.716   7.665  0.3569 -0.6656  0.5568
 5705SOL    HW135107  12.892   1.664   7.620  0.7179 -0.9067  0.2902
 5705SOL    HW235108  13.031   1.722   7.602  0.3352  0.1405  0.5951
 5706SOL     OW35109  13.558   2.487   2.942  0.3985  0.3912  0.2050
 5706SOL    HW135110  13.494   2.437   2.993  1.9936 -0.0710  1.8685
 5706SOL    HW235111  13.614   2.421   2.901  1.0044  0.7764  0.3844
 5707SOL     OW35112   7.438  10.865   8.354 -0.6859 -0.4424  0.5879
 5707SOL    HW135113   7.501  10.794   8.364  0.7856  0.7511  0.1482
 5707SOL    HW235114   7.419  10.894   8.443  0.6820  0.2611  0.6698
 5708SOL     OW35115  10.119  11.657   0.165 -0.9465  0.1164  0.0033
 5708SOL    HW135116  10.072  11.636   0.084  0.9184  0.4307 -1.2142
 5708SOL    HW235117  10.056  11.707   0.217 -2.4993 -0.9028 -0.8283
 5709SOL     OW35118   7.226  12.852   6.427  0.0598  0.5406  0.5182
 5709SOL    HW135119   7.251  12.862   6.518  0.6383  0.3259  0.3854
 5709SOL    HW235120   7.282  12.914   6.380  1.4399 -1.0282  0.0403
 5710SOL     OW35121  14.019   8.481  13.171 -0.2303 -0.3306  0.6113
 5710SOL    HW135122  13.938   8.430  13.167 -0.6618  0.2875  1.2178
 5710SOL    HW235123  14.013   8.542  13.098  0.6533 -1.6244 -0.6161
 5711SOL     OW35124  10.717   3.391   7.940  0.5491 -0.1379 -0.0280
 5711SOL    HW135125  10.799   3.429   7.909  0.9843 -1.4974 -0.5887
 5711SOL    HW235126  10.711   3.306   7.896 -0.9697 -0.2293  0.3007
 5712SOL     OW35127   0.234   2.916   5.600 -0.7906 -0.5305 -0.1768
 5712SOL    HW135128   0.181   2.851   5.554 -0.2478 -0.9075 -0.2769
 5712SOL    HW235129   0.272   2.868   5.674 -0.7833 -0.2033  0.0337
 5713SOL     OW35130   3.484   0.360   0.815 -0.3284  0.9111  0.1264
 5713SOL    HW135131   3.569   0.403   0.806  1.6139 -2.6175 -0.1008
 5713SOL    HW235132   3.459   0.375   0.906  2.5894 -1.1773  1.4310
 5714SOL     OW35133   5.176   1.387   6.278  0.1937  0.3251 -0.0788
 5714SOL    HW135134   5.174   1.299   6.240 -0.2511 -0.2381  1.2161
 5714SOL    HW235135   5.116   1.438   6.224 -0.8452 -0.5921  0.1901
 5715SOL     OW35136   1.377   5.091  11.536  0.1060  0.4436  0.0108
 5715SOL    HW135137   1.340   5.087  11.624  1.9555 -0.4358  0.8041
 5715SOL    HW235138   1.314   5.046  11.481 -0.7563  0.3856  1.0123
 5716SOL     OW35139   5.358   9.368  10.130  0.2848  0.2846  0.3521
 5716SOL    HW135140   5.333   9.354  10.038 -0.0675  1.2566  0.2870
 5716SOL    HW235141   5.450   9.343  10.134  0.9684  2.3847 -0.8156
 5717SOL     OW35142   7.021   8.924   1.773  0.2657  0.4491  0.0134
 5717SOL    HW135143   7.090   8.883   1.825 -0.4786 -1.6803 -0.5535
 5717SOL    HW235144   7.067   8.981   1.712  1.2928  1.2823  1.5197
 5718SOL     OW35145  10.814   5.441   6.337  0.5447 -0.5198  0.5736
 5718SOL    HW135146  10.787   5.488   6.258  2.2734  1.1673  0.8946
 5718SOL    HW235147  10.747   5.462   6.402 -0.5432 -1.3978 -0.2177
 5719SOL     OW35148  12.914   9.235   2.435 -0.6700 -0.6860 -0.3924
 5719SOL    HW135149  12.839   9.292   2.419 -0.3886 -0.5263 -1.1682
 5719SOL    HW235150  12.984   9.272   2.382 -0.5699 -1.9562 -1.1947
 5720SOL     OW35151   9.905  13.109   7.337  0.4255  0.0187  0.0612
 5720SOL    HW135152   9.948  13.089   7.254  0.7976  0.9500  0.0212
 5720SOL    HW235153   9.889  13.023   7.377  1.7687 -0.3826 -0.2054
 5721SOL     OW35154   8.194  13.558   4.183 -0.1134 -0.1473  0.1373
 5721SOL    HW135155   8.150  13.559   4.098  1.7046  0.9537 -0.8587
 5721SOL    HW235156   8.191  13.467   4.211 -1.6337 -0.3503 -0.6025
 5722SOL     OW35157  13.987  10.745   7.923 -0.0667  0.1602 -0.0173
 5722SOL    HW135158  13.960  10.663   7.884 -0.8028  0.0737  0.6398
 5722SOL    HW235159  13.949  10.743   8.011  0.4264  0.9262  0.2239
 5723SOL     OW35160   4.446  11.581   8.898 -0.5615 -0.0480 -0.2539
 5723SOL    HW135161   4.466  11.644   8.829 -0.4127 -0.6919 -0.8116
 5723SOL    HW235162   4.384  11.520   8.857  0.7285 -1.3662 -0.3579
 5724SOL     OW35163   5.619  11.153  12.981 -0.2349  0.6046  0.3743
 5724SOL    HW135164   5.706  11.183  13.006  0.6270  0.3506 -2.0867
 5724SOL    HW235165   5.624  11.058  12.986 -0.6625  0.6058  1.0216
 5725SOL     OW35166   0.090   1.168   7.558  0.0464 -0.1085 -0.2900
 5725SOL    HW135167   0.071   1.249   7.511 -0.6101 -0.1941 -0.1753
 5725SOL    HW235168   0.159   1.192   7.621  0.9461  0.0007 -1.2834
 5726SOL     OW35169   0.821   1.032   4.557 -0.1957  0.0561 -0.1952
 5726SOL    HW135170   0.830   0.944   4.521  0.0332  0.6283 -1.6164
 5726SOL    HW235171   0.910   1.058   4.580 -0.2744 -0.1140  0.3051
 5727SOL     OW35172   8.386   8.165   5.180 -0.0291 -0.1741  0.2813
 5727SOL    HW135173   8.330   8.206   5.113 -0.5994 -1.4545 -0.0453
 5727SOL    HW235174   8.460   8.131   5.131 -0.4813 -1.1742  0.2706
 5728SOL     OW35175   1.674   3.968   9.020  0.2936 -0.5404  0.5428
 5728SOL    HW135176   1.599   3.909   9.009  0.5100 -0.8466  0.7044
 5728SOL    HW235177   1.686   3.974   9.114 -0.0839  0.2166  0.5450
 5729SOL     OW35178   8.376   9.620   3.875 -0.0243 -0.1722  0.1632
 5729SOL    HW135179   8.295   9.640   3.921  0.7152  1.4153  0.8736
 5729SOL    HW235180   8.418   9.552   3.928 -0.0692  0.2922  0.8091
 5730SOL     OW35181   8.285   1.434   1.511  0.2904 -0.1878 -0.1880
 5730SOL    HW135182   8.357   1.441   1.573  1.5060 -2.4493 -1.2255
 5730SOL    HW235183   8.206   1.437   1.565  1.2246  0.4948  1.1706
 5731SOL     OW35184   2.542   4.864  14.056  0.1812  0.1275  0.4145
 5731SOL    HW135185   2.550   4.792  14.117  2.6816  1.4140  1.7290
 5731SOL    HW235186   2.469   4.916  14.090  1.1640  0.5167  2.0257
 5732SOL     OW35187  11.994   8.695  11.466 -0.2758  0.1445  0.2265
 5732SOL    HW135188  11.999   8.790  11.464 -1.7537  0.2448  0.5213
 5732SOL    HW235189  12.020   8.671  11.555 -1.0562  0.3623  0.5192
 5733SOL     OW35190   0.930  10.888   7.154 -0.7728  0.4516 -0.1703
 5733SOL    HW135191   0.998  10.952   7.133 -0.5892  0.0668 -0.7747
 5733SOL    HW235192   0.859  10.908   7.093 -0.7671  0.1642 -0.2714
 5734SOL     OW35193   9.511   4.639   7.457  0.0244 -0.5468  0.4604
 5734SOL    HW135194   9.589   4.583   7.458  1.4586  1.3708  0.3090
 5734SOL    HW235195   9.458   4.607   7.530  1.8939 -0.6262  1.8497
 5735SOL     OW35196   3.942  11.916   7.053 -0.4769  0.1112 -0.5520
 5735SOL    HW135197   3.872  11.852   7.058 -0.2309 -0.2554 -1.6497
 5735SOL    HW235198   3.957  11.943   7.144 -0.0617 -1.9400  0.0273
 5736SOL     OW35199  11.859  12.844  12.529  0.1216 -0.0214  0.1263
 5736SOL    HW135200  11.841  12.904  12.457 -0.4725  0.2499  0.4980
 5736SOL    HW235201  11.780  12.846  12.582 -0.5287 -2.3090 -0.6563
 5737SOL     OW35202  10.312   4.562   0.680  0.4021  0.4037  0.0165
 5737SOL    HW135203  10.257   4.616   0.738 -0.8462 -1.0529  0.2561
 5737SOL    HW235204  10.352   4.625   0.620 -1.5877  1.5516 -0.2045
 5738SOL     OW35205  11.590   6.270   8.878  0.1938 -0.3935 -0.0674
 5738SOL    HW135206  11.595   6.365   8.885  1.5698 -0.5179  1.3439
 5738SOL    HW235207  11.566   6.241   8.966 -0.4069 -1.3489 -0.5317
 5739SOL     OW35208  12.730  12.977   3.020 -0.4818 -0.0386 -0.0138
 5739SOL    HW135209  12.764  13.059   2.984 -1.2441 -0.2620 -1.3461
 5739SOL    HW235210  12.647  13.001   3.061 -0.9882 -0.1894 -0.9002
 5740SOL     OW35211   4.827  13.868   3.929 -0.0662  0.2809  0.0009
 5740SOL    HW135212   4.840  13.789   3.982  0.0073 -0.3403 -0.9048
 5740SOL    HW235213   4.752  13.912   3.969  0.6742  0.4296  1.2800
 5741SOL     OW35214   6.964   4.367  12.403  0.4011 -0.1642 -0.2096
 5741SOL    HW135215   6.878   4.398  12.429  0.2322 -0.7178 -0.1009
 5741SOL    HW235216   6.961   4.272  12.417  0.6833 -0.3314 -1.1825
 5742SOL     OW35217   3.872   7.898   9.197 -0.0475  0.7605  0.1033
 5742SOL    HW135218   3.928   7.970   9.166 -0.0393  0.6505 -0.1333
 5742SOL    HW235219   3.801   7.893   9.133  1.2471 -1.0665 -1.2984
 5743SOL     OW35220  10.322   3.558   8.534 -0.1802  0.4502 -0.3429
 5743SOL    HW135221  10.401   3.516   8.566 -1.3313 -2.0024 -0.5050
 5743SOL    HW235222  10.295   3.506   8.458 -2.0884  1.0448 -0.1467
 5744SOL     OW35223  10.121   9.257   8.139  0.1266 -0.1784  0.9919
 5744SOL    HW135224  10.191   9.193   8.152  0.4891 -0.6248 -2.3074
 5744SOL    HW235225  10.167   9.338   8.116 -0.3865 -0.2176 -0.2344
 5745SOL     OW35226   5.413   3.995   9.173  0.1648 -0.1316 -0.2714
 5745SOL    HW135227   5.347   3.925   9.180  0.4424 -0.4860 -1.0467
 5745SOL    HW235228   5.496   3.948   9.167  0.1689  0.0877 -3.6218
 5746SOL     OW35229   6.639   4.343  12.403 -0.1837  0.0180 -0.0889
 5746SOL    HW135230   6.588   4.351  12.323 -0.3832  0.4249  0.0779
 5746SOL    HW235231   6.665   4.251  12.406 -0.5864 -0.1059 -0.3680
 5747SOL     OW35232   9.058  10.572  10.123 -0.4757  0.7126  0.6046
 5747SOL    HW135233   9.015  10.656  10.109 -1.5266  0.4758  2.1453
 5747SOL    HW235234   8.987  10.510  10.136  0.2664 -0.5809 -1.1055
 5748SOL     OW35235   8.191   1.971  11.199 -0.3590  0.1188  0.1084
 5748SOL    HW135236   8.242   1.992  11.120 -0.2888  0.0951  0.1474
 5748SOL    HW235237   8.103   1.954  11.166  0.0925 -1.8317 -0.2107
 5749SOL     OW35238  10.728  11.600   8.428 -0.5702 -0.6096  0.3874
 5749SOL    HW135239  10.710  11.694   8.420  2.3403  0.0052 -0.3231
 5749SOL    HW235240  10.788  11.593   8.502  1.2490 -1.4953 -1.0746
 5750SOL     OW35241   2.145   5.300  13.828 -0.3464 -0.1977  0.0071
 5750SOL    HW135242   2.109   5.271  13.745 -0.6365  0.6705 -0.1828
 5750SOL    HW235243   2.236   5.324  13.808 -0.6996  0.9572 -0.2946
 5751SOL     OW35244   9.347   1.720  13.448 -0.0241  0.1328  0.0845
 5751SOL    HW135245   9.293   1.779  13.395 -0.1442 -0.1645 -0.1259
 5751SOL    HW235246   9.422   1.773  13.475  0.0756  0.2652 -0.4446
 5752SOL     OW35247  13.240   6.706   1.246  0.0742 -0.3690  0.2576
 5752SOL    HW135248  13.179   6.722   1.174 -2.8628  1.0238  2.8143
 5752SOL    HW235249  13.224   6.615   1.271 -3.1594  0.6281  2.5158
 5753SOL     OW35250  12.105  13.851   8.996  0.3988  0.2009 -0.0721
 5753SOL    HW135251  12.141  13.774   9.041  1.1960 -0.0882 -1.1757
 5753SOL    HW235252  12.158  13.860   8.917  0.5210  2.0806  0.1845
 5754SOL     OW35253   1.570  11.830   6.956 -0.7187  0.2315 -0.6003
 5754SOL    HW135254   1.645  11.797   7.007 -0.8814  0.1700 -0.4002
 5754SOL    HW235255   1.594  11.920   6.934 -0.0326 -0.1740 -1.6076
 5755SOL     OW35256   1.904   1.992  12.245  0.3116  0.1155  0.0253
 5755SOL    HW135257   1.923   1.901  12.266 -0.6722 -0.1588 -0.2172
 5755SOL    HW235258   1.893   2.035  12.330  0.4780 -0.0516  0.1318
 5756SOL     OW35259   0.708   0.710   6.426 -0.2306  1.0472  0.2663
 5756SOL    HW135260   0.683   0.722   6.518  0.7082  0.4159  0.6277
 5756SOL    HW235261   0.625   0.704   6.379 -0.8263 -1.3248  1.4461
 5757SOL     OW35262   9.282   9.080   9.157 -0.2921  0.3983  0.3251
 5757SOL    HW135263   9.288   9.036   9.072 -1.8513  2.2431 -0.8500
 5757SOL    HW235264   9.371   9.110   9.175 -0.2170  1.4411 -1.5421
 5758SOL     OW35265   2.614  10.845   3.864  0.1255  0.6221 -0.3617
 5758SOL    HW135266   2.679  10.866   3.931 -2.0765 -1.1457  2.5420
 5758SOL    HW235267   2.602  10.928   3.816  2.8912  1.5352  0.3353
 5759SOL     OW35268   8.977   2.025   0.410 -0.4361 -0.1138 -0.2435
 5759SOL    HW135269   8.960   2.119   0.418 -0.4920 -0.0777 -0.7713
 5759SOL    HW235270   9.066   2.020   0.373  0.2139 -0.2873  1.2823
 5760SOL     OW35271   6.572  11.626   0.827 -0.5008  0.0152  0.1760
 5760SOL    HW135272   6.602  11.544   0.787  1.5260  0.7985 -0.0253
 5760SOL    HW235273   6.482  11.636   0.796 -0.5904 -1.8169 -0.2878
 5761SOL     OW35274   7.245   2.040   6.226 -0.3214 -0.1363  0.2739
 5761SOL    HW135275   7.225   2.097   6.152 -1.5312 -1.4312 -0.4466
 5761SOL    HW235276   7.308   2.090   6.279 -1.0534  1.6963 -0.5030
 5762SOL     OW35277   4.457   6.781   5.015  0.1654 -0.2506  0.1901
 5762SOL    HW135278   4.500   6.695   5.008  0.7777  0.1990 -2.0241
 5762SOL    HW235279   4.372   6.769   4.972 -0.7145 -0.2915  1.8361
 5763SOL     OW35280  13.966  11.674   8.855  0.2087 -0.3937 -0.4446
 5763SOL    HW135281  13.925  11.595   8.888  0.5944 -0.3344  0.2140
 5763SOL    HW235282  13.925  11.691   8.771  0.4896 -1.5851 -0.8312
 5764SOL     OW35283   1.484   5.674   0.405 -0.2637  0.4081  0.3484
 5764SOL    HW135284   1.395   5.639   0.409 -0.0515 -0.1125  0.5921
 5764SOL    HW235285   1.485   5.727   0.325 -0.4654 -0.5189 -0.2890
 5765SOL     OW35286  14.064   7.398  11.726  0.0294  0.1507  0.0910
 5765SOL    HW135287  14.027   7.460  11.788  1.4329 -0.0050  1.1254
 5765SOL    HW235288  14.153   7.383  11.757  0.8732  0.2309 -2.0789
 5766SOL     OW35289   1.948   6.253   3.296  0.2078 -0.1606  0.1240
 5766SOL    HW135290   1.867   6.263   3.345 -0.1933 -0.9379 -0.3576
 5766SOL    HW235291   2.017   6.283   3.356 -0.3826  0.0338  0.7120
 5767SOL     OW35292   9.801   9.533   5.382 -0.1816 -0.6334 -0.2362
 5767SOL    HW135293   9.849   9.469   5.435  0.5258  0.3340  0.3349
 5767SOL    HW235294   9.765   9.595   5.445 -0.5256 -0.2525 -0.7948
 5768SOL     OW35295   8.746   9.641   2.306 -0.8843  0.6948  0.0138
 5768SOL    HW135296   8.740   9.558   2.259 -2.0653 -0.0218  1.3465
 5768SOL    HW235297   8.830   9.677   2.280 -0.6643 -0.5613 -1.1609
 5769SOL     OW35298   4.345   2.030   6.909 -0.1767 -0.1679  0.5740
 5769SOL    HW135299   4.339   2.063   6.819 -4.9935 -0.0916  0.6646
 5769SOL    HW235300   4.370   2.106   6.961  1.7609 -0.0057 -0.4843
 5770SOL     OW35301  10.618  11.899   0.348 -0.1289 -0.3883 -0.6198
 5770SOL    HW135302  10.667  11.820   0.326  1.0132  0.0151  0.3064
 5770SOL    HW235303  10.681  11.970   0.335 -1.1309  0.3746 -1.4299
 5771SOL     OW35304  10.149   7.040   6.657  0.2726  0.0187 -0.2479
 5771SOL    HW135305  10.082   7.109   6.657 -0.1837 -0.4145 -0.0745
 5771SOL    HW235306  10.141   6.999   6.743 -0.6980 -1.4190 -0.9804
 5772SOL     OW35307  13.044   4.246   4.862  0.2048  0.1937  0.2895
 5772SOL    HW135308  12.992   4.209   4.790  0.9183  0.1052 -0.1930
 5772SOL    HW235309  12.982   4.255   4.934 -0.2074 -1.0682  0.1219
 5773SOL     OW35310   7.017   3.681  11.935 -0.5943  0.4487  0.1268
 5773SOL    HW135311   7.010   3.775  11.918  1.9364  0.4328 -1.4785
 5773SOL    HW235312   7.106   3.668  11.967 -0.8573 -1.4108  0.2112
 5774SOL     OW35313   8.112  14.133   9.770  0.2399  0.1453 -0.1577
 5774SOL    HW135314   8.114  14.125   9.866  2.8376 -1.8556 -0.2558
 5774SOL    HW235315   8.168  14.208   9.751  0.2554  0.1399 -0.1334
 5775SOL     OW35316   7.695  10.307  11.541 -0.1396 -0.1402 -0.0174
 5775SOL    HW135317   7.650  10.229  11.510  0.3284 -0.4934  0.1919
 5775SOL    HW235318   7.784  10.298  11.508 -0.0899  0.3169 -0.0135
 5776SOL     OW35319  10.835  10.992   5.509 -0.1040  0.9659 -0.4095
 5776SOL    HW135320  10.780  11.066   5.482 -1.3737 -0.1792 -1.0798
 5776SOL    HW235321  10.922  11.031   5.523 -0.0749  2.2106 -3.1871
 5777SOL     OW35322   0.013   0.718   9.479 -0.2917  0.0108  0.1099
 5777SOL    HW135323   0.003   0.811   9.460 -0.1950  0.2898  1.3655
 5777SOL    HW235324  -0.036   0.674   9.409 -1.3772  1.0410  0.1909
 5778SOL     OW35325   8.281   0.770   7.473 -0.2022  0.2805 -0.1094
 5778SOL    HW135326   8.309   0.687   7.434 -0.4732  0.2407 -0.2179
 5778SOL    HW235327   8.321   0.837   7.416  0.1163  0.2267  0.0499
 5779SOL     OW35328   7.586   0.050   6.891  0.5203 -0.4022 -0.0811
 5779SOL    HW135329   7.544   0.065   6.976  0.1921 -0.0547 -0.3012
 5779SOL    HW235330   7.545  -0.030   6.858  1.6391 -1.3219  0.6992
 5780SOL     OW35331  11.753  11.462   4.336 -0.2765 -0.3511 -0.1990
 5780SOL    HW135332  11.829  11.474   4.280 -1.0712  1.6058 -0.9391
 5780SOL    HW235333  11.696  11.403   4.286  0.0517 -0.5483 -0.3471
 5781SOL     OW35334  10.161  12.208   7.011 -0.8635  0.1974  0.2421
 5781SOL    HW135335  10.121  12.138   6.959 -2.6680  2.7146 -1.9821
 5781SOL    HW235336  10.226  12.248   6.953  1.7879 -0.8816  2.2501
 5782SOL     OW35337   4.203  11.453   9.491 -0.2030 -0.2159  0.2426
 5782SOL    HW135338   4.236  11.515   9.426  0.5895 -0.6028  0.2627
 5782SOL    HW235339   4.155  11.508   9.553 -1.7523  0.0514 -1.1231
 5783SOL     OW35340   3.414   6.665   1.120  0.2057 -0.4825 -0.1624
 5783SOL    HW135341   3.461   6.748   1.125  0.8308 -0.6730 -1.9390
 5783SOL    HW235342   3.443   6.616   1.197 -0.5444  1.0959  1.1781
 5784SOL     OW35343   2.443   8.792  11.484  0.5237  0.1978 -0.4331
 5784SOL    HW135344   2.402   8.871  11.518  0.0363 -0.1642 -0.1709
 5784SOL    HW235345   2.372   8.745  11.440  0.6784 -0.3611 -0.0978
 5785SOL     OW35346   1.606   1.727  11.892 -0.2027 -0.0967 -0.7514
 5785SOL    HW135347   1.623   1.774  11.973 -0.2899  0.2565 -0.9346
 5785SOL    HW235348   1.690   1.687  11.869  0.1633  0.8914 -1.1746
 5786SOL     OW35349  12.260   7.582   3.015 -0.2215  0.7331  0.2574
 5786SOL    HW135350  12.325   7.512   3.008 -0.6334  0.2138  1.4065
 5786SOL    HW235351  12.305   7.653   3.061  0.3720  1.4805 -1.3967
 5787SOL     OW35352   0.458   4.378  11.994  0.0552 -0.6540  0.1662
 5787SOL    HW135353   0.385   4.356  11.935  0.7838 -1.0990 -0.6034
 5787SOL    HW235354   0.448   4.471  12.012 -2.0093 -1.1332  1.9352
 5788SOL     OW35355   0.459   8.033   0.674  0.1910  0.3191 -0.1087
 5788SOL    HW135356   0.412   8.016   0.756  3.1950 -1.2852  1.4676
 5788SOL    HW235357   0.525   8.098   0.698  0.9053  0.0750 -1.3498
 5789SOL     OW35358   8.627  11.955  13.749  0.2420 -0.1931  0.3039
 5789SOL    HW135359   8.640  11.928  13.840 -1.5319 -0.1191  0.6053
 5789SOL    HW235360   8.713  11.987  13.722  1.2311 -1.7332  1.4102
 5790SOL     OW35361  13.856   7.336   2.700 -0.0892  0.9300 -0.0723
 5790SOL    HW135362  13.865   7.248   2.664  1.8407  1.1263 -0.1537
 5790SOL    HW235363  13.840   7.323   2.793 -0.9896  0.4984 -0.2739
 5791SOL     OW35364   2.664   8.042   0.276  0.5046 -0.7804 -0.2279
 5791SOL    HW135365   2.738   7.983   0.292 -0.1033 -1.7871 -1.0642
 5791SOL    HW235366   2.590   8.001   0.321 -0.7923 -2.6484 -3.6894
 5792SOL     OW35367  12.887   8.664   4.571  0.1115 -0.5271 -0.5769
 5792SOL    HW135368  12.938   8.599   4.620 -0.1300  0.9290  1.7611
 5792SOL    HW235369  12.800   8.624   4.561  0.3404 -1.0941 -0.3407
 5793SOL     OW35370   1.042   8.737   3.896 -0.3523 -0.1676  0.2552
 5793SOL    HW135371   1.064   8.755   3.987 -1.5024  1.5666  0.2364
 5793SOL    HW235372   0.968   8.677   3.900 -1.9183  1.6765  0.5949
 5794SOL     OW35373  11.837   4.453   9.118 -0.1118 -0.2822  0.3427
 5794SOL    HW135374  11.841   4.547   9.100  1.0441  0.1058  2.2878
 5794SOL    HW235375  11.775   4.418   9.054  0.5581  1.5490 -1.3916
 5795SOL     OW35376   7.234  11.201  10.146 -0.6908  0.2308 -0.3890
 5795SOL    HW135377   7.203  11.225  10.234  0.8316 -0.2654  0.3172
 5795SOL    HW235378   7.243  11.285  10.100  0.8615  0.7582  0.7766
 5796SOL     OW35379  10.407   2.219   0.696  0.3142  0.4727  0.2496
 5796SOL    HW135380  10.321   2.253   0.722  0.3753  0.8647 -0.0529
 5796SOL    HW235381  10.389   2.153   0.630  0.3017  1.3857 -0.6805
 5797SOL     OW35382  12.456   4.304   8.736 -0.1177  0.1505 -0.2415
 5797SOL    HW135383  12.452   4.284   8.830  2.2194  2.5025  0.4867
 5797SOL    HW235384  12.536   4.261   8.706 -1.5125 -1.6853 -1.5583
 5798SOL     OW35385   4.395   8.883   9.195  1.2439  0.3973  0.7397
 5798SOL    HW135386   4.362   8.813   9.139  1.3747  0.0145  1.1426
 5798SOL    HW235387   4.480   8.851   9.226  0.6778  0.1336  2.0436
 5799SOL     OW35388   4.709   9.462  10.702 -0.2084 -0.3172 -0.1943
 5799SOL    HW135389   4.729   9.548  10.664 -0.6524 -0.0476  0.1676
 5799SOL    HW235390   4.613   9.459  10.705 -0.1820 -0.3149  0.9258
 5800SOL     OW35391  11.480  12.858   6.494  0.0457  0.5225  0.2302
 5800SOL    HW135392  11.435  12.861   6.410  0.2252  1.9594  0.1553
 5800SOL    HW235393  11.433  12.792   6.545  0.0809 -0.5293 -1.0605
 5801SOL     OW35394   6.997   3.723  11.260 -0.3987  0.6460 -0.0541
 5801SOL    HW135395   7.070   3.702  11.201 -0.9081  0.7843 -0.7335
 5801SOL    HW235396   6.957   3.638  11.280 -1.2544  0.7491 -1.2483
 5802SOL     OW35397  13.663  12.295   7.215  0.1795  0.0468 -0.4370
 5802SOL    HW135398  13.666  12.368   7.154  1.1223 -0.4870 -1.0429
 5802SOL    HW235399  13.739  12.308   7.272  0.7270 -0.8085 -0.9620
 5803SOL     OW35400  10.472   6.229   7.867 -0.8262 -0.4234  0.0856
 5803SOL    HW135401  10.499   6.156   7.923  2.2306 -0.2243 -0.9960
 5803SOL    HW235402  10.508   6.307   7.910 -1.2736  0.1017 -0.4724
 5804SOL     OW35403   8.983   6.636  11.677 -0.1989  0.6824 -0.8314
 5804SOL    HW135404   8.991   6.729  11.696 -1.2683  1.1455 -2.4200
 5804SOL    HW235405   9.041   6.593  11.741 -0.5178  2.3298  0.6426
 5805SOL     OW35406   1.011   0.884   1.509  0.3607 -0.0108  0.4932
 5805SOL    HW135407   1.002   0.891   1.414  0.5852 -0.2084  0.4554
 5805SOL    HW235408   1.080   0.818   1.522 -0.6198 -1.0124  0.8079
 5806SOL     OW35409  12.899   2.562   6.612 -0.0781 -0.3124  0.8060
 5806SOL    HW135410  12.806   2.584   6.620 -0.2002 -0.7752  0.6881
 5806SOL    HW235411  12.935   2.585   6.698 -0.7308 -2.1246  1.6039
 5807SOL     OW35412   1.639  10.160   2.439 -0.3435 -0.7064 -1.0207
 5807SOL    HW135413   1.610  10.085   2.386 -1.2729 -0.5332 -0.7678
 5807SOL    HW235414   1.571  10.170   2.506 -0.2309  0.3737 -1.0580
 5808SOL     OW35415   0.141   1.228  14.099 -0.7101 -0.4864 -0.0224
 5808SOL    HW135416   0.050   1.245  14.123 -0.6651 -0.5060  0.1614
 5808SOL    HW235417   0.180   1.315  14.088 -0.9100 -0.4795 -0.7048
 5809SOL     OW35418   1.746   5.486   6.153  0.1610  0.1471 -0.4335
 5809SOL    HW135419   1.685   5.441   6.211 -0.9049  0.6908 -1.1062
 5809SOL    HW235420   1.756   5.428   6.078  2.1781 -0.9379  0.6068
 5810SOL     OW35421  10.217  12.850   0.222 -0.2254  0.2088 -0.0220
 5810SOL    HW135422  10.143  12.788   0.225 -0.0797  0.0032 -0.6476
 5810SOL    HW235423  10.216  12.891   0.309 -2.0147  1.3113 -0.4980
 5811SOL     OW35424  10.654  12.890  11.112  0.7187 -0.6815 -0.1323
 5811SOL    HW135425  10.663  12.822  11.045 -0.3686 -0.8210 -0.1614
 5811SOL    HW235426  10.709  12.860  11.184  4.2717  0.8567 -1.9436
 5812SOL     OW35427   1.327   9.694   9.238 -0.0731  0.4616 -0.3766
 5812SOL    HW135428   1.254   9.728   9.291 -0.1267 -1.1854  0.6724
 5812SOL    HW235429   1.285   9.639   9.173  0.1904  0.0303 -0.1835
 5813SOL     OW35430   2.017   4.565   7.161  0.7668 -0.2852  0.0032
 5813SOL    HW135431   1.976   4.563   7.248  1.7851 -0.3137  0.4998
 5813SOL    HW235432   2.078   4.639   7.165 -0.7339  1.0854 -1.4400
 5814SOL     OW35433   6.546  12.132   0.013  0.4129  0.4943  0.0033
 5814SOL    HW135434   6.602  12.086  -0.049 -1.7317 -0.9900 -0.9406
 5814SOL    HW235435   6.604  12.156   0.085  1.9545 -2.3582 -0.1771
 5815SOL     OW35436   0.976   6.406   1.094  0.3429  0.2827 -0.0459
 5815SOL    HW135437   1.056   6.434   1.050  0.5768 -1.4147 -0.7459
 5815SOL    HW235438   0.962   6.316   1.066 -1.6591  0.4266  0.3003
 5816SOL     OW35439   3.582   4.892   5.253 -0.2286 -0.0067 -0.3366
 5816SOL    HW135440   3.522   4.823   5.282 -0.0555 -0.7846 -1.7587
 5816SOL    HW235441   3.524   4.966   5.230 -0.3536  0.8016  2.2401
 5817SOL     OW35442   7.165   6.831  12.058 -0.1914 -0.0414  0.0357
 5817SOL    HW135443   7.112   6.876  11.992 -0.7365 -0.7349 -0.0194
 5817SOL    HW235444   7.238   6.793  12.008 -0.1969  0.0622 -0.0509
 5818SOL     OW35445   1.175   8.655   7.211 -0.3732  0.0093  0.5461
 5818SOL    HW135446   1.240   8.708   7.164 -0.5257 -1.3624 -1.3191
 5818SOL    HW235447   1.112   8.628   7.144 -1.3836 -0.9006  1.8056
 5819SOL     OW35448   5.557   8.711   1.756 -1.0652 -0.0772 -0.3011
 5819SOL    HW135449   5.477   8.681   1.799 -0.8681 -1.0599 -0.5956
 5819SOL    HW235450   5.532   8.794   1.715 -1.8013 -0.1363  0.0047
 5820SOL     OW35451   4.237  10.418   2.537  0.1924 -0.8309 -0.3536
 5820SOL    HW135452   4.329  10.392   2.536  0.7015  0.3561  3.1108
 5820SOL    HW235453   4.196  10.361   2.602 -0.6875  0.8756  0.6761
 5821SOL     OW35454  12.135   2.964   3.069  0.2504  0.1156  0.4574
 5821SOL    HW135455  12.090   2.961   2.984 -0.6352  0.4559  0.8989
 5821SOL    HW235456  12.226   2.942   3.049  0.1686  0.7039 -0.6608
 5822SOL     OW35457   9.448   0.567   5.184 -0.2328 -0.3601 -0.3863
 5822SOL    HW135458   9.498   0.624   5.125  0.9132  0.0109  0.8799
 5822SOL    HW235459   9.508   0.495   5.203 -1.3018 -1.4866 -1.1576
 5823SOL     OW35460   1.882  10.757  11.108 -0.1213  0.0162 -0.0278
 5823SOL    HW135461   1.876  10.663  11.122 -0.8524  0.0289 -0.1945
 5823SOL    HW235462   1.963  10.769  11.059 -1.0013 -0.7624 -1.7842
 5824SOL     OW35463   7.311   0.352  13.537  0.4422 -0.5473 -0.4572
 5824SOL    HW135464   7.253   0.342  13.462 -2.4264 -1.0288  1.6552
 5824SOL    HW235465   7.290   0.279  13.594  1.3626  0.6479  1.5241
 5825SOL     OW35466   1.818  12.344   3.683  0.2570  0.1433  0.2747
 5825SOL    HW135467   1.753  12.295   3.632  1.1095 -1.0494  0.2978
 5825SOL    HW235468   1.770  12.375   3.759  0.0519 -2.1442  1.1584
 5826SOL     OW35469   0.370   8.402   7.361 -0.0266 -0.0419 -0.1384
 5826SOL    HW135470   0.306   8.413   7.290 -0.3891 -1.7189 -0.1096
 5826SOL    HW235471   0.396   8.310   7.356  0.3318 -0.0681  1.5921
 5827SOL     OW35472   8.550   1.839  10.416 -0.5380  0.0505  0.4447
 5827SOL    HW135473   8.608   1.903  10.375 -2.1744  0.7284 -0.9715
 5827SOL    HW235474   8.606   1.764  10.435  0.6193  0.2263 -1.8670
 5828SOL     OW35475  13.996  13.720   7.459 -0.3558  0.3884 -0.5942
 5828SOL    HW135476  14.040  13.790   7.410  1.0803 -0.8113 -1.0978
 5828SOL    HW235477  13.950  13.670   7.392 -0.7664  0.4114 -0.3302
 5829SOL     OW35478   2.301   8.291   3.903 -0.2923 -0.7731 -0.2956
 5829SOL    HW135479   2.375   8.261   3.957 -0.5581 -0.6657  0.1278
 5829SOL    HW235480   2.265   8.210   3.867  0.7116 -0.7545 -1.4076
 5830SOL     OW35481   8.853   4.709  13.783  0.0461  0.5758 -0.2683
 5830SOL    HW135482   8.844   4.680  13.692 -1.1433  1.6450 -0.5030
 5830SOL    HW235483   8.802   4.646  13.833 -0.1753  0.6001 -0.4610
 5831SOL     OW35484   2.818   0.350   6.042  0.4166 -0.3201 -0.2148
 5831SOL    HW135485   2.762   0.305   5.979 -1.2363  0.2080  0.8089
 5831SOL    HW235486   2.828   0.289   6.115 -1.0807  0.5591  0.7772
 5832SOL     OW35487  11.544   5.341  12.896  0.1566  0.0353 -0.3622
 5832SOL    HW135488  11.526   5.358  12.804  4.4936  1.6002 -1.1497
 5832SOL    HW235489  11.581   5.422  12.929 -1.8704 -0.2445  3.1006
 5833SOL     OW35490   1.969   1.889   3.804  0.6560 -0.4960  0.4915
 5833SOL    HW135491   2.013   1.882   3.720 -0.2870  1.9193 -0.2725
 5833SOL    HW235492   2.030   1.937   3.860 -0.0413  0.8688  0.1170
 5834SOL     OW35493   1.596  13.063   5.606  1.0969  0.5359 -1.0050
 5834SOL    HW135494   1.526  13.052   5.541  1.2205 -3.9367 -0.6850
 5834SOL    HW235495   1.552  13.054   5.690  1.8603 -1.5095 -0.7791
 5835SOL     OW35496  12.159   3.679   7.464  0.0908 -0.7298 -0.3601
 5835SOL    HW135497  12.225   3.660   7.530 -0.0494  2.4831  0.9122
 5835SOL    HW235498  12.188   3.761   7.424 -2.3280  0.0024 -0.8064
 5836SOL     OW35499   3.860   0.545   9.164 -1.1986  0.4110 -0.3731
 5836SOL    HW135500   3.842   0.468   9.218  0.3552  1.4613  1.7992
 5836SOL    HW235501   3.947   0.573   9.190 -1.5139  2.6460 -1.4475
 5837SOL     OW35502  10.599   0.640  12.138  0.3050  0.7186  0.1727
 5837SOL    HW135503  10.557   0.585  12.073 -1.5671 -0.4466  2.2190
 5837SOL    HW235504  10.660   0.582  12.184  1.5119  1.4883 -0.3962
 5838SOL     OW35505  13.619  10.859   8.395 -0.1806  0.8420 -0.5895
 5838SOL    HW135506  13.564  10.896   8.326  0.1828  0.8261 -0.8912
 5838SOL    HW235507  13.679  10.929   8.417  0.0901  0.6502 -0.7095
 5839SOL     OW35508   3.776   1.880  10.364  0.1929  0.2239 -0.8859
 5839SOL    HW135509   3.744   1.970  10.377  0.5373  0.4867 -1.8080
 5839SOL    HW235510   3.843   1.869  10.431  1.0555  1.1130 -1.5768
 5840SOL     OW35511   5.086   3.665   5.443 -0.5667  0.2667  0.7490
 5840SOL    HW135512   5.011   3.724   5.455 -0.0164  1.1439  0.0594
 5840SOL    HW235513   5.117   3.684   5.355 -1.2291 -2.1058 -0.0694
 5841SOL     OW35514   4.703   4.067   0.636 -0.0017 -0.1224  0.4306
 5841SOL    HW135515   4.687   4.147   0.687 -0.2983 -0.6822  1.2403
 5841SOL    HW235516   4.703   4.097   0.545  1.3967  1.0445  0.7804
 5842SOL     OW35517   3.290   4.984   8.658  0.1513 -0.2319  0.4396
 5842SOL    HW135518   3.224   4.956   8.722 -0.0258  0.4927  0.5823
 5842SOL    HW235519   3.313   4.904   8.610  0.2849 -0.7901  1.4046
 5843SOL     OW35520   3.756   0.505   1.832  0.2389 -0.0720 -0.5768
 5843SOL    HW135521   3.842   0.511   1.874 -0.1310 -0.4221  0.2599
 5843SOL    HW235522   3.756   0.576   1.768  0.2435  1.5463  1.1068
 5844SOL     OW35523   4.475   9.508   0.491  0.4332 -0.2739 -0.4101
 5844SOL    HW135524   4.409   9.560   0.537  0.2111  0.0650 -1.0866
 5844SOL    HW235525   4.537   9.573   0.458  1.3499 -0.6228  0.5747
 5845SOL     OW35526   8.612  13.509   3.797  0.6065 -0.4126 -0.3434
 5845SOL    HW135527   8.565  13.446   3.741  0.2576 -1.9535  1.5531
 5845SOL    HW235528   8.568  13.502   3.882  1.5087  1.3679  0.3149
 5846SOL     OW35529  12.816  10.646   7.550  0.2360  0.3756  0.3893
 5846SOL    HW135530  12.812  10.624   7.457  0.3526 -0.6317  0.6048
 5846SOL    HW235531  12.751  10.589   7.591  0.9375  0.0340  1.0540
 5847SOL     OW35532   8.767  11.664   8.781  0.2937  0.2241 -0.1794
 5847SOL    HW135533   8.693  11.615   8.816 -0.4374  0.5008 -1.2810
 5847SOL    HW235534   8.831  11.598   8.756  0.8543  0.0227  1.6569
 5848SOL     OW35535   1.759  13.406   0.164  0.0160  0.2214  0.2679
 5848SOL    HW135536   1.774  13.500   0.163  2.7860 -0.1077  1.7261
 5848SOL    HW235537   1.761  13.380   0.071 -0.7842  1.5589 -0.1446
 5849SOL     OW35538  13.366  10.989   1.201  0.8541  1.0588  0.0867
 5849SOL    HW135539  13.369  11.082   1.222  1.7237  0.9709  0.4369
 5849SOL    HW235540  13.361  10.946   1.287  0.0287  0.7866 -0.0891
 5850SOL     OW35541  11.766  11.159  10.343  0.1147  0.1527  0.6251
 5850SOL    HW135542  11.784  11.181  10.252 -2.7835 -1.2193 -0.3898
 5850SOL    HW235543  11.736  11.241  10.382 -1.2918  0.1787 -0.4558
 5851SOL     OW35544  10.196  12.905  11.260  0.4224  0.1872  0.2131
 5851SOL    HW135545  10.139  12.880  11.332 -1.0054  0.9892 -0.6018
 5851SOL    HW235546  10.171  12.848  11.187  1.4649 -0.2340  0.1529
 5852SOL     OW35547  12.864   4.318   9.000 -0.3222  0.5129  0.2663
 5852SOL    HW135548  12.811   4.239   9.008 -1.6531  1.4784  1.4466
 5852SOL    HW235549  12.942   4.299   9.053 -0.7513  0.0918  0.7655
 5853SOL     OW35550   2.051   5.946   4.920 -0.0985  0.4386 -0.0585
 5853SOL    HW135551   2.000   5.942   4.839 -0.5580  0.2294  0.2404
 5853SOL    HW235552   2.013   5.879   4.976  1.5193 -0.8229 -0.4066
 5854SOL     OW35553   0.985   7.207  13.053  0.0710 -0.2737  0.3379
 5854SOL    HW135554   0.996   7.197  12.958  0.3073  1.7670  0.1140
 5854SOL    HW235555   1.031   7.288  13.074 -0.4093 -0.4303  2.1348
 5855SOL     OW35556   1.393  12.134   6.823 -0.2295 -0.5696  0.3837
 5855SOL    HW135557   1.386  12.140   6.918 -0.7345 -0.1327  0.3279
 5855SOL    HW235558   1.435  12.217   6.797 -0.8050 -0.3379  0.1687
 5856SOL     OW35559   6.602   1.303  13.716  0.1003  0.1471  0.3320
 5856SOL    HW135560   6.562   1.370  13.662  1.1408  1.1683  0.7883
 5856SOL    HW235561   6.671   1.349  13.765  2.6274 -1.6875 -1.2509
 5857SOL     OW35562   9.248   1.570  11.421  1.2521 -0.8351  0.2827
 5857SOL    HW135563   9.298   1.575  11.502  0.1447  0.7423  0.9299
 5857SOL    HW235564   9.174   1.513  11.443  0.2584  0.5947  0.8456
 5858SOL     OW35565   9.691   9.453  12.113  0.0874  0.2517  0.3037
 5858SOL    HW135566   9.687   9.544  12.140  1.5762  0.2441  0.6690
 5858SOL    HW235567   9.610   9.414  12.145  0.1222  1.1052  1.4665
 5859SOL     OW35568  10.528   4.056   1.982  0.0918 -0.6292 -0.0016
 5859SOL    HW135569  10.572   4.137   2.008  0.8197 -1.4288  1.3317
 5859SOL    HW235570  10.435   4.077   1.987  0.2364  0.7864 -1.8976
 5860SOL     OW35571  13.919  11.925   8.572 -0.1651  0.2753  0.3158
 5860SOL    HW135572  14.010  11.925   8.545  0.0643  0.2184  1.0498
 5860SOL    HW235573  13.920  11.965   8.659 -0.6694 -0.7765  0.8291
 5861SOL     OW35574   8.086   1.170  12.358 -0.4142 -0.9946  0.1302
 5861SOL    HW135575   7.992   1.158  12.371 -0.6124  0.4068  0.2396
 5861SOL    HW235576   8.094   1.192  12.265 -0.1164 -1.7568 -0.0244
 5862SOL     OW35577  13.237  11.454   7.765 -0.1492 -0.2193  0.5487
 5862SOL    HW135578  13.268  11.395   7.834 -0.3980 -1.5821 -0.4690
 5862SOL    HW235579  13.144  11.468   7.786 -0.4496 -1.3318  0.0338
 5863SOL     OW35580  10.677  13.635   9.828  0.3115  0.2853 -0.0810
 5863SOL    HW135581  10.745  13.577   9.863  0.5048  0.3377 -0.3682
 5863SOL    HW235582  10.701  13.647   9.736 -0.5167 -0.3347 -0.3898
 5864SOL     OW35583   2.724   3.692   9.948  0.0213 -0.3023 -0.0683
 5864SOL    HW135584   2.745   3.633  10.020 -1.2674  0.8410  1.3165
 5864SOL    HW235585   2.675   3.763   9.989 -2.0097 -0.2991 -2.2770
 5865SOL     OW35586   0.260   4.486   9.622  0.4010 -0.2087 -0.8236
 5865SOL    HW135587   0.344   4.443   9.605  1.5803  2.2526 -1.6173
 5865SOL    HW235588   0.281   4.579   9.628 -2.2005  0.4255 -0.3911
 5866SOL     OW35589  14.115   9.729   1.676 -0.1513  0.5973 -0.4471
 5866SOL    HW135590  14.128   9.736   1.582 -0.7516  1.9483 -0.4423
 5866SOL    HW235591  14.072   9.644   1.688 -1.7664  1.1971 -1.6034
 5867SOL     OW35592   7.902  12.662   2.465  0.4931  0.2735  0.0127
 5867SOL    HW135593   7.844  12.588   2.487  0.3000  0.6236  0.7214
 5867SOL    HW235594   7.987  12.621   2.448  0.4762 -0.0938  0.7556
 5868SOL     OW35595   3.790   0.410   4.136  0.0059  0.1542  0.4606
 5868SOL    HW135596   3.877   0.450   4.147 -0.3444  0.5005  2.4652
 5868SOL    HW235597   3.745   0.467   4.073  1.3727 -0.3176 -1.0036
 5869SOL     OW35598  14.000   4.307  12.733 -0.4233 -0.2561  0.0976
 5869SOL    HW135599  14.089   4.314  12.766 -0.5892 -0.1346  0.5207
 5869SOL    HW235600  13.945   4.344  12.802 -0.9899 -2.2600  0.7999
 5870SOL     OW35601   7.661   9.119   7.686 -0.0419 -0.3570 -0.6152
 5870SOL    HW135602   7.736   9.141   7.632  0.5571  0.2767  0.4304
 5870SOL    HW235603   7.699   9.083   7.766 -0.9248 -1.9891 -0.8927
 5871SOL     OW35604   3.582  10.381  11.158 -0.3445  0.2933 -0.3071
 5871SOL    HW135605   3.581  10.298  11.110 -1.3463  0.3768 -0.4355
 5871SOL    HW235606   3.547  10.360  11.245 -0.0392  0.4662 -0.1389
 5872SOL     OW35607  10.169   8.135   6.320  0.4304  0.5778 -0.2843
 5872SOL    HW135608  10.088   8.100   6.283  0.2925 -0.5502  1.0086
 5872SOL    HW235609  10.140   8.193   6.390  0.6877 -1.5137  1.6697
 5873SOL     OW35610   0.374   9.754   8.839 -0.4903 -0.1527 -0.1905
 5873SOL    HW135611   0.412   9.830   8.882 -2.1290 -0.1087  1.2988
 5873SOL    HW235612   0.323   9.790   8.767  1.0189 -0.1062 -1.2823
 5874SOL     OW35613   8.034   4.203   3.724  0.2694 -0.3148 -0.1211
 5874SOL    HW135614   8.069   4.125   3.681  1.4259 -0.2650  0.6831
 5874SOL    HW235615   8.096   4.221   3.795  0.3874  1.7003 -0.6739
 5875SOL     OW35616   2.236  13.948  10.756  0.6768 -0.1464 -0.0424
 5875SOL    HW135617   2.288  13.942  10.675  0.1134  0.0005 -0.4182
 5875SOL    HW235618   2.259  14.033  10.793  0.4770  0.0550 -0.3714
 5876SOL     OW35619  13.450  13.295   3.425  1.2239  0.2357 -0.2960
 5876SOL    HW135620  13.533  13.341   3.434  1.3909  0.0119 -0.6596
 5876SOL    HW235621  13.445  13.274   3.332  0.0170  1.6415 -0.5889
 5877SOL     OW35622   5.915   5.440   5.667 -0.0342 -0.2145 -0.8552
 5877SOL    HW135623   5.965   5.395   5.735 -1.5678  0.1089  0.5436
 5877SOL    HW235624   5.925   5.384   5.589  3.2852  0.3664 -0.9795
 5878SOL     OW35625  13.956   9.454   1.763 -0.2274  0.5393  0.2250
 5878SOL    HW135626  14.039   9.420   1.731  0.3108  2.5190 -0.6213
 5878SOL    HW235627  13.968   9.464   1.857 -0.0669 -0.5870  0.3406
 5879SOL     OW35628   9.250   6.196  10.617  0.1822  0.2710 -0.3646
 5879SOL    HW135629   9.238   6.288  10.595 -0.1269  0.2288 -0.3766
 5879SOL    HW235630   9.171   6.172  10.665 -0.3134 -0.3198 -1.4546
 5880SOL     OW35631  11.881   7.761  10.668  0.3664  0.6948  0.3930
 5880SOL    HW135632  11.804   7.761  10.725  0.5806 -2.6767  0.9091
 5880SOL    HW235633  11.950   7.802  10.720 -0.0751 -0.0654  1.6277
 5881SOL     OW35634  11.862   7.842   2.689 -0.2072 -0.0412  0.3913
 5881SOL    HW135635  11.946   7.797   2.684 -0.4389 -0.3464 -1.6994
 5881SOL    HW235636  11.884   7.934   2.701  0.3454 -0.3506  1.8760
 5882SOL     OW35637  10.234  12.421  12.058  0.3268  0.8465  0.0109
 5882SOL    HW135638  10.212  12.438  11.966 -0.0768  1.7948  0.2738
 5882SOL    HW235639  10.178  12.348  12.083  0.4585  0.5649 -0.5025
 5883SOL     OW35640   5.576  11.942   1.399 -0.0135 -0.0275 -0.0955
 5883SOL    HW135641   5.653  11.893   1.372  0.0429  1.0423 -2.0540
 5883SOL    HW235642   5.505  11.906   1.347 -0.8048 -0.7617  1.4377
 5884SOL     OW35643   2.891   4.586  14.018 -0.4512  0.2945  0.2426
 5884SOL    HW135644   2.944   4.552  13.946 -0.0670 -0.5079  0.8992
 5884SOL    HW235645   2.805   4.603  13.978 -0.5534 -1.1111 -0.2021
 5885SOL     OW35646   7.828   7.993   7.939  0.1705 -0.2371  0.2231
 5885SOL    HW135647   7.905   7.969   7.991 -0.0043  0.2483  0.7242
 5885SOL    HW235648   7.762   7.929   7.962  0.0222  0.1059  0.7880
 5886SOL     OW35649  10.211  12.107  11.836 -0.7151  0.3480  0.1947
 5886SOL    HW135650  10.239  12.188  11.793 -1.2174  0.7379  0.5912
 5886SOL    HW235651  10.283  12.046  11.821 -0.7065  0.6015 -0.8471
 5887SOL     OW35652  12.840  12.733  11.328  0.7768  0.1469 -0.7424
 5887SOL    HW135653  12.875  12.822  11.328  1.2909 -0.0213  1.2193
 5887SOL    HW235654  12.747  12.744  11.351  1.0279  0.1373  0.3171
 5888SOL     OW35655   7.328  14.002  11.905 -0.4418  0.2058  0.2679
 5888SOL    HW135656   7.287  13.981  11.989 -2.3795  1.1194 -0.3882
 5888SOL    HW235657   7.335  14.098  11.905  0.2629  0.1621 -0.2984
 5889SOL     OW35658   0.259   9.512  12.280  0.3026  0.4027 -0.1989
 5889SOL    HW135659   0.271   9.574  12.208 -2.0816  1.7944  0.4832
 5889SOL    HW235660   0.287   9.560  12.358 -1.8340  0.8657  0.3739
 5890SOL     OW35661   8.078   3.175  10.701 -0.1744  0.5113  0.1681
 5890SOL    HW135662   8.070   3.111  10.631 -1.1244  0.5279  0.2547
 5890SOL    HW235663   8.114   3.125  10.775  1.2220  0.5848 -0.4342
 5891SOL     OW35664   2.783   4.588   5.303 -0.3173 -0.1864  0.0308
 5891SOL    HW135665   2.741   4.503   5.317  1.9529 -1.6298 -1.3394
 5891SOL    HW235666   2.871   4.578   5.338  0.1973  1.3814 -0.7262
 5892SOL     OW35667   3.125   0.480   1.714 -0.1244 -0.1261 -0.1991
 5892SOL    HW135668   3.127   0.501   1.807 -1.1216 -2.4127  0.4251
 5892SOL    HW235669   3.032   0.480   1.692  0.0606 -0.3415 -1.0084
 5893SOL     OW35670   1.091   4.385   1.407 -0.0762 -0.0849 -0.5221
 5893SOL    HW135671   1.145   4.311   1.379  0.7755  0.2116  0.2664
 5893SOL    HW235672   1.153   4.445   1.449 -1.2346 -0.5502  2.0702
 5894SOL     OW35673   5.477   6.005   0.187  0.1809  0.4568  0.0252
 5894SOL    HW135674   5.531   6.026   0.111  2.0690 -2.9081  0.2235
 5894SOL    HW235675   5.401   5.959   0.151 -0.2031  1.0744  0.0376
 5895SOL     OW35676   7.720   4.066   7.789  0.3539  0.1879 -0.3029
 5895SOL    HW135677   7.746   4.150   7.828  0.0700  0.5452 -0.8619
 5895SOL    HW235678   7.630   4.082   7.759 -0.4234 -0.8956  1.2739
 5896SOL     OW35679  11.523   5.396   8.653  1.0659 -0.0638  0.1701
 5896SOL    HW135680  11.574   5.476   8.640 -0.3909  1.1165  1.3720
 5896SOL    HW235681  11.433   5.421   8.629  0.2975 -0.8549  2.0702
 5897SOL     OW35682   0.266  12.861   3.056  0.0165  0.0833  0.8447
 5897SOL    HW135683   0.303  12.798   2.994  2.0447  1.0647  0.9826
 5897SOL    HW235684   0.212  12.918   3.002  1.3295  0.6028  0.0377
 5898SOL     OW35685   2.814  12.267   8.448 -0.0098 -0.1869  0.1577
 5898SOL    HW135686   2.726  12.259   8.411  0.0300 -0.1913  0.0633
 5898SOL    HW235687   2.862  12.317   8.382  0.3915 -1.2135 -0.3478
 5899SOL     OW35688   8.025  11.795  10.418  0.3630 -0.1236  0.2020
 5899SOL    HW135689   7.989  11.855  10.352  1.0800 -0.1482 -0.2206
 5899SOL    HW235690   8.022  11.709  10.377 -0.7391 -0.4069  0.8395
 5900SOL     OW35691   1.556  12.407   7.661 -0.2195 -0.0014  0.1583
 5900SOL    HW135692   1.621  12.426   7.592 -1.1049 -0.0879 -0.7172
 5900SOL    HW235693   1.501  12.338   7.624 -2.9419  2.3672 -0.5429
 5901SOL     OW35694   9.271  13.550   1.742  0.5097 -0.1500 -0.1329
 5901SOL    HW135695   9.331  13.622   1.760  0.7296 -0.2772 -0.3464
 5901SOL    HW235696   9.328  13.474   1.730  0.2317 -0.6336  1.3135
 5902SOL     OW35697  11.477  11.861  11.168  0.1148  0.1365 -0.5197
 5902SOL    HW135698  11.427  11.923  11.221 -0.2374 -0.7874  0.2573
 5902SOL    HW235699  11.412  11.818  11.113  0.2370 -0.1324 -0.4545
 5903SOL     OW35700  10.977  10.162  12.063  0.6244 -0.5896  0.4358
 5903SOL    HW135701  10.925  10.241  12.076  1.0129 -0.4483  1.2015
 5903SOL    HW235702  11.014  10.171  11.975  0.6506  0.0704  0.5156
 5904SOL     OW35703  13.987   6.730  11.526 -0.5158 -0.0581 -0.1056
 5904SOL    HW135704  14.066   6.746  11.577 -0.2908 -0.0115 -0.4653
 5904SOL    HW235705  13.961   6.816  11.493  0.2213 -0.2787 -1.3472
 5905SOL     OW35706   6.758   4.035  10.791 -0.0472  0.1419 -0.2770
 5905SOL    HW135707   6.834   4.005  10.840 -0.3952 -0.0075  0.1718
 5905SOL    HW235708   6.755   4.129  10.806 -1.4358 -0.1658  1.8517
 5906SOL     OW35709  12.536   9.785   5.240 -0.1024  0.3732 -0.0990
 5906SOL    HW135710  12.577   9.871   5.252  2.4516 -0.7361 -0.1187
 5906SOL    HW235711  12.498   9.765   5.325  2.5405  0.0202  1.1144
 5907SOL     OW35712  13.168  13.531  13.122  0.0005 -0.4525 -0.0318
 5907SOL    HW135713  13.224  13.469  13.075 -0.6153 -1.5421  0.6520
 5907SOL    HW235714  13.130  13.481  13.193 -0.6654  0.6674  0.4308
 5908SOL     OW35715   9.160   4.324   0.577 -0.5134  0.1558  0.3523
 5908SOL    HW135716   9.143   4.418   0.572 -0.7928  0.0355 -2.6803
 5908SOL    HW235717   9.116   4.288   0.500  2.6572 -1.9306 -0.6681
 5909SOL     OW35718  12.124   2.173   7.552  0.2538 -0.1573  0.1505
 5909SOL    HW135719  12.171   2.257   7.554  1.8581 -0.9857  3.0445
 5909SOL    HW235720  12.103   2.156   7.643 -3.3881 -1.2223 -0.7438
 5910SOL     OW35721   1.179   1.636   0.729 -0.2453 -0.0905  0.5416
 5910SOL    HW135722   1.103   1.656   0.676  0.3047  0.9307  0.1222
 5910SOL    HW235723   1.252   1.633   0.667  0.0870 -0.8899  0.9591
 5911SOL     OW35724   8.400  11.190  12.014  0.7077  0.7325 -0.0964
 5911SOL    HW135725   8.396  11.205  12.108 -0.3062  1.0898 -0.1792
 5911SOL    HW235726   8.412  11.276  11.976 -0.2173  0.7733 -0.3379
 5912SOL     OW35727   3.319   1.939   4.825 -0.6143 -0.3965 -0.5857
 5912SOL    HW135728   3.347   1.913   4.913  0.8743  1.6462 -0.3914
 5912SOL    HW235729   3.393   1.917   4.769 -0.8699 -0.0894 -1.0498
 5913SOL     OW35730   0.178   9.316   6.479  0.1435 -0.3901  0.5678
 5913SOL    HW135731   0.115   9.287   6.546  0.1305  0.1688  0.8017
 5913SOL    HW235732   0.123   9.349   6.408  0.1607  0.9795  1.1621
 5914SOL     OW35733   6.560   1.088   9.620  0.2016  0.5260  0.0041
 5914SOL    HW135734   6.567   0.998   9.588  0.3690  0.7997 -0.7406
 5914SOL    HW235735   6.596   1.084   9.709  2.4298  0.2875 -0.8369
 5915SOL     OW35736   3.090   2.010   0.213  0.3197  0.1444 -0.1413
 5915SOL    HW135737   3.055   1.963   0.289  0.9608  0.6136  0.4526
 5915SOL    HW235738   3.175   1.968   0.195  1.4888  1.8429  1.1758
 5916SOL     OW35739   3.613  10.469  14.006  0.1761 -0.2595 -0.1151
 5916SOL    HW135740   3.679  10.500  14.068 -0.5096  1.9790 -0.4103
 5916SOL    HW235741   3.663  10.440  13.930  0.8741  0.3209  0.1121
 5917SOL     OW35742   3.817  11.163   3.753 -0.9146  0.4203  0.3907
 5917SOL    HW135743   3.813  11.100   3.681 -1.3192 -0.1672  0.9076
 5917SOL    HW235744   3.903  11.149   3.792 -1.1510 -0.1140  0.7479
 5918SOL     OW35745   7.044   0.736   0.256  0.2814 -0.5997  0.4998
 5918SOL    HW135746   7.125   0.786   0.272 -1.4082  1.9801  1.7482
 5918SOL    HW235747   7.032   0.740   0.161  1.1724 -0.2965  0.3846
 5919SOL     OW35748  12.598   4.811   6.142  0.6765  0.3273  0.1119
 5919SOL    HW135749  12.587   4.894   6.188  0.6172  0.3677  0.0248
 5919SOL    HW235750  12.612   4.835   6.051 -1.1288  0.1981 -0.2512
 5920SOL     OW35751  13.917   4.031   7.395  0.4011 -0.0656  0.5322
 5920SOL    HW135752  13.991   4.030   7.455  0.7345  1.7632  0.2321
 5920SOL    HW235753  13.945   4.089   7.324 -1.2775  0.6186  0.3771
 5921SOL     OW35754   0.776   7.826   0.185  0.4618 -0.3217 -0.1810
 5921SOL    HW135755   0.738   7.869   0.261 -1.8305  0.1958 -1.5147
 5921SOL    HW235756   0.781   7.895   0.118 -1.0576 -1.5064 -1.6065
 5922SOL     OW35757   1.758   8.988   3.388  0.0403 -0.6007  0.1958
 5922SOL    HW135758   1.825   8.921   3.401 -1.2233 -1.7127  1.1429
 5922SOL    HW235759   1.809   9.069   3.374  1.5744 -1.5609 -0.0657
 5923SOL     OW35760   2.281   5.689   0.055 -0.3463 -0.3583 -0.0700
 5923SOL    HW135761   2.362   5.707   0.009 -0.9277  0.6686 -0.7254
 5923SOL    HW235762   2.218   5.666  -0.014 -1.0628  0.5851  0.2450
 5924SOL     OW35763   2.333   5.393   6.212  0.2468  0.7182  0.4890
 5924SOL    HW135764   2.279   5.346   6.276 -2.0780 -0.6006 -2.1689
 5924SOL    HW235765   2.363   5.324   6.152  1.0639  2.0449 -0.6745
 5925SOL     OW35766   1.629   9.180   2.171  0.0630 -0.2865  0.2302
 5925SOL    HW135767   1.697   9.200   2.108 -1.6995  0.4650 -1.5268
 5925SOL    HW235768   1.630   9.253   2.233  0.8917 -0.3283  0.2676
 5926SOL     OW35769  12.144  10.334  13.634 -0.3131  0.0554  0.1369
 5926SOL    HW135770  12.191  10.260  13.674  0.7373  1.2711  1.2194
 5926SOL    HW235771  12.058  10.334  13.677 -0.6158 -0.9606 -0.4179
 5927SOL     OW35772  13.623   8.502   6.839  0.3039 -0.3752  0.5159
 5927SOL    HW135773  13.536   8.499   6.800  0.4881 -0.1572  0.0751
 5927SOL    HW235774  13.621   8.579   6.896  1.1104  1.4607 -1.7645
 5928SOL     OW35775   7.610   1.018   3.807  0.0977  0.4553 -0.0674
 5928SOL    HW135776   7.567   1.040   3.725  0.1529 -1.6403 -0.7037
 5928SOL    HW235777   7.569   1.077   3.872 -0.6636  1.4269 -1.3843
 5929SOL     OW35778  12.305   3.114   8.894  0.1234  0.2810  0.3235
 5929SOL    HW135779  12.375   3.093   8.832  0.5560  1.0045  0.5436
 5929SOL    HW235780  12.349   3.166   8.962 -0.6281  0.7661  0.4535
 5930SOL     OW35781   8.771   6.253   7.800 -0.2541  0.2833  0.7137
 5930SOL    HW135782   8.837   6.292   7.743 -0.1709 -2.5065 -1.3462
 5930SOL    HW235783   8.688   6.290   7.769 -0.0751 -0.1582 -0.3558
 5931SOL     OW35784   1.571  13.698  14.016 -0.1136  0.2119 -0.1296
 5931SOL    HW135785   1.611  13.783  13.996  1.0484 -0.4582 -0.8202
 5931SOL    HW235786   1.478  13.717  14.026  0.2162  1.6801  0.4727
 5932SOL     OW35787   3.981   6.148   3.737 -0.1342  0.3571 -0.5284
 5932SOL    HW135788   3.999   6.069   3.687 -1.4517  0.6067 -1.4430
 5932SOL    HW235789   4.034   6.139   3.816  0.7031 -0.8332 -1.1903
 5933SOL     OW35790  12.365   8.685   9.959  0.1028 -0.0834 -0.0555
 5933SOL    HW135791  12.402   8.667   9.872  0.0482 -0.1629 -0.0626
 5933SOL    HW235792  12.435   8.662  10.020  0.7037  1.4006 -0.1353
 5934SOL     OW35793   1.707   1.395  11.059 -0.7417  0.3569 -0.2863
 5934SOL    HW135794   1.800   1.415  11.057 -0.3715 -0.9392  1.3921
 5934SOL    HW235795   1.678   1.422  11.147 -1.8169  0.2123 -0.5769
 5935SOL     OW35796   0.924   8.031   4.121  0.6922 -0.2501  0.1533
 5935SOL    HW135797   0.868   7.975   4.174  1.0573 -2.7602 -1.8726
 5935SOL    HW235798   0.875   8.044   4.040  1.6440  0.2861 -0.3551
 5936SOL     OW35799  11.110  13.713   8.174 -0.0901 -0.5202 -0.4688
 5936SOL    HW135800  11.047  13.688   8.106 -1.2959 -2.1475  1.1704
 5936SOL    HW235801  11.182  13.753   8.125 -1.8671  0.4256 -2.5163
 5937SOL     OW35802  11.207   1.518   1.579  0.2338 -0.1248  0.1636
 5937SOL    HW135803  11.287   1.563   1.605 -0.1646 -0.1298  1.4967
 5937SOL    HW235804  11.150   1.587   1.546  0.9735 -0.1997 -1.3112
 5938SOL     OW35805   0.740  14.132   8.703  0.0871 -0.2941  0.7744
 5938SOL    HW135806   0.683  14.207   8.716  0.4702  0.6275 -2.2491
 5938SOL    HW235807   0.726  14.077   8.781 -3.9224  0.4738  0.7774
 5939SOL     OW35808   1.544   7.526  10.751 -0.1553 -0.0232 -0.4244
 5939SOL    HW135809   1.463   7.537  10.800  0.5038 -0.2323  0.7566
 5939SOL    HW235810   1.586   7.612  10.752  0.4130 -0.2987  0.4131
 5940SOL     OW35811  12.747   9.047   0.844  0.0129 -0.5762 -0.0559
 5940SOL    HW135812  12.789   8.982   0.901 -1.6820 -1.1308  0.6264
 5940SOL    HW235813  12.723   8.997   0.766  2.0071  0.1036 -1.1699
 5941SOL     OW35814   1.451  13.073  13.124 -0.0943  0.2147 -0.6732
 5941SOL    HW135815   1.382  13.021  13.082  1.5596 -1.9641 -0.8751
 5941SOL    HW235816   1.472  13.140  13.059  0.5213 -1.4281 -2.2724
 5942SOL     OW35817   6.554  10.734  10.668  0.1535 -0.3245  0.0966
 5942SOL    HW135818   6.475  10.758  10.620  0.0663  0.0589  0.4288
 5942SOL    HW235819   6.583  10.815  10.710  1.7307  0.0013 -1.4666
 5943SOL     OW35820   4.396   6.791   1.486  0.1133 -0.6026 -0.2532
 5943SOL    HW135821   4.483   6.829   1.483  0.5859 -1.6961 -0.8202
 5943SOL    HW235822   4.364   6.798   1.396 -0.2484 -0.5377 -0.1237
 5944SOL     OW35823   9.524   4.553   2.768  0.1740 -0.4013  0.1108
 5944SOL    HW135824   9.501   4.506   2.848 -1.8943  0.1540 -0.0947
 5944SOL    HW235825   9.464   4.518   2.701 -0.3446  1.3720 -0.4137
 5945SOL     OW35826   2.337  10.283   7.934  0.3330 -0.2967  0.6332
 5945SOL    HW135827   2.269  10.325   7.881  2.3761  0.5885 -1.4477
 5945SOL    HW235828   2.335  10.332   8.017  0.2357  1.5648 -0.4054
 5946SOL     OW35829  10.242  13.350   4.248  0.4292  0.1306 -0.2779
 5946SOL    HW135830  10.309  13.282   4.237  0.2407 -0.1818  0.4707
 5946SOL    HW235831  10.292  13.432   4.257  0.6767  0.0126 -0.5602
 5947SOL     OW35832   2.647   8.818   8.076  0.6720 -0.0652  0.3536
 5947SOL    HW135833   2.557   8.827   8.045  0.9267  1.1895 -0.1009
 5947SOL    HW235834   2.699   8.809   7.996  0.9459 -1.0321  0.6225
 5948SOL     OW35835   3.251  11.973   4.456  0.4495  0.7428 -0.2660
 5948SOL    HW135836   3.251  11.885   4.419 -0.0238  0.5449  0.1850
 5948SOL    HW235837   3.181  11.971   4.522 -0.5048  1.8372 -1.1840
 5949SOL     OW35838  12.302   6.937  10.010 -0.2682  0.1197  0.2962
 5949SOL    HW135839  12.252   6.939  10.092 -1.3974 -1.3855 -0.3077
 5949SOL    HW235840  12.302   7.028   9.980 -2.3427  0.2567  0.5384
 5950SOL     OW35841   1.074   7.955   4.420 -0.1442  0.2943  0.3115
 5950SOL    HW135842   1.040   7.869   4.394 -0.6584  0.7989 -0.7786
 5950SOL    HW235843   1.166   7.953   4.395  0.1682 -0.3847  1.4692
 5951SOL     OW35844   7.815   3.196   7.074  0.3837 -0.0755  0.8147
 5951SOL    HW135845   7.863   3.142   7.137  2.0103  0.6414  0.2683
 5951SOL    HW235846   7.845   3.165   6.988 -1.4513 -0.7279  0.3695
 5952SOL     OW35847   1.717  12.164  12.904 -0.4195  0.5160  0.5144
 5952SOL    HW135848   1.632  12.128  12.930 -1.5776  2.4247 -0.4108
 5952SOL    HW235849   1.774  12.148  12.980 -2.2394  1.2923  2.1323
 5953SOL     OW35850  12.496  11.443  10.664  0.0189  0.5358 -0.0109
 5953SOL    HW135851  12.570  11.384  10.678 -0.0976  0.3896 -0.0105
 5953SOL    HW235852  12.532  11.530  10.678  0.4003  0.5276 -0.8441
 5954SOL     OW35853   0.149  12.357  13.302  0.5745 -0.0352  0.1207
 5954SOL    HW135854   0.085  12.367  13.374  1.4061  0.7597  0.7753
 5954SOL    HW235855   0.131  12.431  13.244  0.9530  0.2331  0.3467
 5955SOL     OW35856  11.954   4.002   6.416 -0.6727 -0.7598  0.6312
 5955SOL    HW135857  12.005   3.942   6.360  2.3134  2.0751 -0.0071
 5955SOL    HW235858  11.910   4.060   6.354  0.1098  0.4459  1.1756
 5956SOL     OW35859   5.941   2.797  13.306  0.0444  0.0451 -0.3206
 5956SOL    HW135860   5.924   2.794  13.211  3.8918 -0.0861 -1.1813
 5956SOL    HW235861   6.000   2.723  13.321  1.1056  1.2387  1.7718
 5957SOL     OW35862   4.876   8.956   1.131  0.2601  0.3348  0.2793
 5957SOL    HW135863   4.787   8.951   1.166  0.3339 -1.0801  0.3323
 5957SOL    HW235864   4.864   8.980   1.039 -0.3322 -1.5706 -0.1920
 5958SOL     OW35865   0.370   6.879  11.635 -0.2322 -0.3447  0.1321
 5958SOL    HW135866   0.337   6.867  11.546  0.9050  1.1468 -0.5324
 5958SOL    HW235867   0.317   6.820  11.688  0.3642 -2.8061 -1.7909
 5959SOL     OW35868   4.777  10.938  11.360 -0.0863  0.3295  0.1923
 5959SOL    HW135869   4.771  10.846  11.387 -0.1208  0.1786 -0.3206
 5959SOL    HW235870   4.687  10.971  11.367 -0.2389  0.0690 -0.5061
 5960SOL     OW35871   4.366   2.124   5.375  0.1452 -0.1407 -0.1390
 5960SOL    HW135872   4.309   2.145   5.301  1.5048  1.2197 -0.8441
 5960SOL    HW235873   4.387   2.031   5.365  2.1078  0.4863 -2.8052
 5961SOL     OW35874   1.820  11.505  13.492  0.0767 -0.0772 -0.4304
 5961SOL    HW135875   1.797  11.562  13.565 -0.3749 -1.8074  0.8548
 5961SOL    HW235876   1.856  11.427  13.533  1.3091 -0.4772 -2.1454
 5962SOL     OW35877  11.957   1.210   6.623  0.4004  0.4335  0.0616
 5962SOL    HW135878  11.969   1.247   6.536 -1.8365  0.0297 -0.4747
 5962SOL    HW235879  11.984   1.280   6.683  3.0510  0.3323 -0.8688
 5963SOL     OW35880  12.103   2.323   7.239 -0.8123 -0.0383  0.0586
 5963SOL    HW135881  12.122   2.414   7.263 -2.4110  0.1887  0.6307
 5963SOL    HW235882  12.179   2.274   7.269  0.4025  1.1770 -0.9010
 5964SOL     OW35883  11.268  14.127   8.108  0.6961 -0.1031  0.1263
 5964SOL    HW135884  11.264  14.197   8.043  1.0945  0.0632  0.2767
 5964SOL    HW235885  11.177  14.118   8.139  0.7022  0.6123  0.3771
 5965SOL     OW35886   9.394   9.210   1.398 -0.0196 -0.0121  0.6991
 5965SOL    HW135887   9.345   9.139   1.355 -1.0542  1.0209  0.1025
 5965SOL    HW235888   9.434   9.258   1.326 -1.6616  1.6676  0.8431
 5966SOL     OW35889   4.079   8.278   3.319  0.0296 -0.3147  0.1960
 5966SOL    HW135890   4.082   8.341   3.391 -0.2493 -0.3017  0.1969
 5966SOL    HW235891   4.106   8.195   3.359  0.7071 -0.1313  0.1230
 5967SOL     OW35892   3.383   4.661   6.524 -0.1025  0.1601 -0.5639
 5967SOL    HW135893   3.395   4.751   6.555 -2.6206  0.3634  0.1173
 5967SOL    HW235894   3.352   4.670   6.434 -1.4034  0.1004 -0.1546
 5968SOL     OW35895   3.601   3.083  12.439  0.2279 -0.0037 -0.1442
 5968SOL    HW135896   3.657   3.100  12.363 -0.5429 -0.6728 -0.8838
 5968SOL    HW235897   3.643   3.130  12.511  0.6513  1.1299 -1.1061
 5969SOL     OW35898   0.252   6.124   7.965  0.1171 -0.2699 -0.2797
 5969SOL    HW135899   0.218   6.204   8.005  0.1250  0.2525 -1.2788
 5969SOL    HW235900   0.278   6.069   8.039 -0.5318  0.3663  0.4344
 5970SOL     OW35901   9.388  11.840   1.161 -0.7165  0.2227 -0.3348
 5970SOL    HW135902   9.335  11.769   1.126 -0.1475 -0.8259  0.8513
 5970SOL    HW235903   9.334  11.879   1.230 -0.4988  0.0543 -0.0667
 5971SOL     OW35904   3.565  12.643   7.288 -0.2453  0.6757  0.2812
 5971SOL    HW135905   3.602  12.730   7.302 -0.4221  0.9238 -0.7717
 5971SOL    HW235906   3.583  12.623   7.197 -1.2808  0.1136  0.1846
 5972SOL     OW35907   7.812   4.728  12.098 -0.4678 -0.6310 -0.4841
 5972SOL    HW135908   7.890   4.769  12.061 -1.7273  0.3924 -2.1085
 5972SOL    HW235909   7.824   4.634  12.079  0.8877 -0.6509  0.3339
 5973SOL     OW35910  13.576   2.753   3.029 -0.3903  0.0541  0.7664
 5973SOL    HW135911  13.564   2.664   2.995  1.6253 -0.5699  1.5113
 5973SOL    HW235912  13.504   2.765   3.091 -1.5792 -0.4390 -0.4659
 5974SOL     OW35913  11.149  11.367   1.531 -0.3687  0.4430  0.0482
 5974SOL    HW135914  11.057  11.378   1.554 -1.3447 -2.4040 -1.9406
 5974SOL    HW235915  11.157  11.409   1.445 -0.6336 -1.7631 -1.1178
 5975SOL     OW35916  11.804   1.752   5.997  0.0613 -0.0844 -0.6745
 5975SOL    HW135917  11.742   1.823   5.980  0.1492 -0.2934 -2.0502
 5975SOL    HW235918  11.768   1.706   6.073 -0.6629  0.6837 -0.5359
 5976SOL     OW35919   3.785   5.072   5.379  0.1637 -0.0453  0.0113
 5976SOL    HW135920   3.833   5.048   5.458  0.0458  1.0666  0.4326
 5976SOL    HW235921   3.760   4.988   5.340 -1.4664 -0.6558  2.1776
 5977SOL     OW35922  13.019   8.706   1.680 -0.3840 -0.2986  0.2104
 5977SOL    HW135923  12.941   8.680   1.731  0.2041 -1.0615  0.7519
 5977SOL    HW235924  12.984   8.751   1.603 -1.3651 -0.6827  0.4191
 5978SOL     OW35925   4.421  12.187  11.307  0.8245  0.5245  0.1681
 5978SOL    HW135926   4.505  12.233  11.307  0.0400  2.0254  0.4255
 5978SOL    HW235927   4.393  12.186  11.398  0.1120  0.9567 -0.0276
 5979SOL     OW35928   1.474  10.508   2.150  0.4382 -0.5024  0.1613
 5979SOL    HW135929   1.464  10.562   2.071 -0.6373 -1.0496 -0.0966
 5979SOL    HW235930   1.403  10.536   2.207  0.0623 -1.4201  0.1530
 5980SOL     OW35931   4.113   1.685  10.989  0.2408  0.3038 -0.1337
 5980SOL    HW135932   4.063   1.606  11.010  1.1039 -0.5337 -1.0910
 5980SOL    HW235933   4.089   1.705  10.899  2.0238 -0.4745 -0.8247
 5981SOL     OW35934  12.814   0.889   9.252 -0.8675 -0.4756 -0.0060
 5981SOL    HW135935  12.822   0.820   9.317 -2.1357 -0.1096  0.5794
 5981SOL    HW235936  12.744   0.945   9.286 -1.2084  0.0012 -1.4436
 5982SOL     OW35937   2.948  13.727   5.915 -0.2735 -0.4750  0.6796
 5982SOL    HW135938   2.922  13.791   5.848 -0.5272 -1.0867  0.1737
 5982SOL    HW235939   3.034  13.755   5.944 -0.7020  0.5255  1.0185
 5983SOL     OW35940  10.546   1.931   2.770  0.3537 -0.5220 -0.2073
 5983SOL    HW135941  10.582   1.993   2.834  3.0634 -1.6520 -0.5159
 5983SOL    HW235942  10.476   1.980   2.727  1.6797  1.9832  0.2862
 5984SOL     OW35943   2.251   1.863   1.322  0.2688  0.1118 -0.5837
 5984SOL    HW135944   2.171   1.834   1.367  0.3312  0.5944 -0.1533
 5984SOL    HW235945   2.292   1.924   1.384  0.8046  0.1132 -0.9382
 5985SOL     OW35946  10.719   6.818  13.061 -0.3939  0.3071  0.3795
 5985SOL    HW135947  10.632   6.841  13.027 -0.8958  0.0561  1.4424
 5985SOL    HW235948  10.715   6.842  13.153  0.4704 -0.2621  0.5708
 5986SOL     OW35949   7.649   6.504   3.586  0.7067  0.3408 -0.3862
 5986SOL    HW135950   7.710   6.480   3.516  2.8547  1.3490  1.0444
 5986SOL    HW235951   7.607   6.422   3.610 -1.0903  0.1384 -3.6468
 5987SOL     OW35952   6.165   7.108   3.684  0.8931 -0.3663  0.2120
 5987SOL    HW135953   6.136   7.196   3.707  2.4636 -0.1607  1.5202
 5987SOL    HW235954   6.260   7.113   3.679  0.9332 -1.6171 -1.4438
 5988SOL     OW35955   5.125   5.222  13.820  0.2391 -0.2062 -0.4964
 5988SOL    HW135956   5.148   5.315  13.817  2.0057 -0.6111 -2.9195
 5988SOL    HW235957   5.186   5.185  13.885  0.2571  0.1591 -0.2992
 5989SOL     OW35958   6.912   9.427   8.009  0.0027  0.4588 -0.0578
 5989SOL    HW135959   6.865   9.506   8.037  0.3386  0.4334  0.5839
 5989SOL    HW235960   7.001   9.457   7.991 -0.3557  0.5985 -1.7400
 5990SOL     OW35961   6.594   5.295   6.226 -0.0950  0.5708  0.3126
 5990SOL    HW135962   6.643   5.357   6.173 -2.5741  2.2757 -0.1708
 5990SOL    HW235963   6.589   5.216   6.172  2.0317  0.3275  0.3963
 5991SOL     OW35964   9.894   7.152   8.941 -0.4195 -0.1979  0.3904
 5991SOL    HW135965   9.860   7.072   8.902  0.8719 -1.0043  0.8667
 5991SOL    HW235966   9.915   7.208   8.866  3.6891 -2.3866 -0.3944
 5992SOL     OW35967   1.733   1.821  13.762 -0.2832 -0.2594  0.3684
 5992SOL    HW135968   1.811   1.860  13.724 -1.6720  0.3462 -2.0242
 5992SOL    HW235969   1.763   1.738  13.798  1.3857 -0.2546 -0.9013
 5993SOL     OW35970   9.842  13.244   8.532  0.1092  0.0070  0.3879
 5993SOL    HW135971   9.783  13.318   8.543  0.4559  0.1361  1.5111
 5993SOL    HW235972   9.930  13.281   8.542  0.4211 -0.1342 -1.5405
 5994SOL     OW35973   1.861   9.363  10.393  0.5055  0.2144  0.2590
 5994SOL    HW135974   1.827   9.414  10.320 -0.2583  0.3238  0.6874
 5994SOL    HW235975   1.830   9.409  10.471  0.4513 -0.4841  0.6503
 5995SOL     OW35976   8.288  11.716   9.287  0.4286 -0.0808  0.1038
 5995SOL    HW135977   8.328  11.771   9.354  0.4285 -0.6987  0.6250
 5995SOL    HW235978   8.241  11.777   9.231  2.3282  0.6973 -0.7211
 5996SOL     OW35979   1.497   9.705   1.387  0.6905 -0.1547  0.0053
 5996SOL    HW135980   1.505   9.611   1.372  0.9993  0.0659 -1.2503
 5996SOL    HW235981   1.564   9.724   1.453  1.4181 -0.6143 -0.5967
 5997SOL     OW35982   8.220   8.218  14.132  0.4893  0.1506  0.1233
 5997SOL    HW135983   8.128   8.220  14.157  0.5423  0.4721  0.2841
 5997SOL    HW235984   8.260   8.153  14.190  0.0278 -1.2708 -1.0710
 5998SOL     OW35985  12.098   2.791  12.445  0.5830  0.3030 -0.1029
 5998SOL    HW135986  12.010   2.819  12.470  0.6875  0.5766 -0.0464
 5998SOL    HW235987  12.141   2.870  12.412  0.6434  0.0667 -0.5999
 5999SOL     OW35988   6.439  13.828  10.592 -0.0342  0.1926 -0.0707
 5999SOL    HW135989   6.471  13.908  10.634  0.6817 -0.5596  0.8682
 5999SOL    HW235990   6.519  13.781  10.566 -0.4318 -0.5344  0.0045
 6000SOL     OW35991   3.054   9.417   5.100 -0.1886 -0.1440  0.4774
 6000SOL    HW135992   3.075   9.344   5.040 -0.3686 -2.4412  3.0016
 6000SOL    HW235993   2.963   9.439   5.080  0.4719  0.8369 -1.6839
 6001SOL     OW35994  12.341   5.882   1.763  0.0989  0.0072  0.1677
 6001SOL    HW135995  12.369   5.807   1.711 -1.6616 -0.8990  0.4435
 6001SOL    HW235996  12.419   5.938   1.768  1.4942 -1.8155  0.0268
 6002SOL     OW35997   1.813   4.288   2.839  0.1580  0.4730 -0.2626
 6002SOL    HW135998   1.887   4.247   2.795 -0.0296  1.2364 -1.3251
 6002SOL    HW235999   1.835   4.284   2.933  0.6357 -1.0452 -0.4092
 6003SOL     OW36000   1.112  13.272  13.818 -0.5602  0.2914  0.2023
 6003SOL    HW136001   1.097  13.179  13.838 -0.4666  0.0325 -0.8784
 6003SOL    HW236002   1.179  13.299  13.881 -1.7745  0.0856  1.6406
 6004SOL     OW36003  13.573   1.499   7.364  0.6714  0.1131 -0.7670
 6004SOL    HW136004  13.491   1.467   7.403  0.4144  0.7791 -0.7449
 6004SOL    HW236005  13.544   1.560   7.295  1.1540  0.9137 -0.2780
 6005SOL     OW36006   4.690   8.010   1.567  0.0934 -0.1174  0.5741
 6005SOL    HW136007   4.596   8.009   1.552 -0.0717 -1.2614  1.5293
 6005SOL    HW236008   4.709   8.098   1.599 -0.7650 -0.1145  1.0890
 6006SOL     OW36009   6.655   6.251  13.032  0.6239 -0.2916  0.1116
 6006SOL    HW136010   6.645   6.201  13.113 -1.3538  0.3336  0.2838
 6006SOL    HW236011   6.570   6.290  13.016  0.0944 -2.4707 -3.6654
 6007SOL     OW36012   3.003  12.407   1.810  0.3353 -0.4732  0.7990
 6007SOL    HW136013   3.022  12.421   1.903 -1.0779 -0.0812  1.0457
 6007SOL    HW236014   2.953  12.484   1.783  1.6134 -0.0765 -0.5798
 6008SOL     OW36015  11.512  12.216  11.069 -0.6259 -0.6366  0.1130
 6008SOL    HW136016  11.579  12.156  11.103 -0.6818 -0.5953  0.2963
 6008SOL    HW236017  11.461  12.241  11.146 -0.9024 -0.7298 -0.0386
 6009SOL     OW36018   9.484  12.549   0.166  0.5680 -0.2128 -0.3967
 6009SOL    HW136019   9.512  12.619   0.224  2.0352  0.5376 -1.9213
 6009SOL    HW236020   9.494  12.469   0.217 -1.8745  0.6405  1.6480
 6010SOL     OW36021   5.251  13.139  11.959  0.3947  0.1849  0.1029
 6010SOL    HW136022   5.195  13.108  11.888  1.6383  1.5706 -1.5611
 6010SOL    HW236023   5.286  13.223  11.928  0.3198  1.2948  2.7156
 6011SOL     OW36024  12.882   7.055   9.410  0.1811 -0.6702 -1.0648
 6011SOL    HW136025  12.960   7.080   9.360  0.0276  0.2570 -0.8486
 6011SOL    HW236026  12.903   7.076   9.501 -0.0100 -1.1880 -0.8972
 6012SOL     OW36027  13.176   7.992   4.744  0.4101 -0.5726 -0.1325
 6012SOL    HW136028  13.229   8.041   4.681  2.2008 -1.7701  0.3361
 6012SOL    HW236029  13.196   7.900   4.724 -0.8815 -1.0329  0.6266
 6013SOL     OW36030   8.629  11.504   9.896  0.5273 -0.3022  0.3013
 6013SOL    HW136031   8.636  11.598   9.878  2.1772 -0.5243 -0.5063
 6013SOL    HW236032   8.583  11.469   9.820  2.8904 -0.5338 -1.1449
 6014SOL     OW36033  13.102   2.174   9.659 -0.1320 -0.7813  0.0303
 6014SOL    HW136034  13.071   2.170   9.569  0.2019  1.3995 -0.2470
 6014SOL    HW236035  13.095   2.084   9.691 -0.6882 -1.5240 -2.0074
 6015SOL     OW36036   4.921   7.400  12.417  0.1480 -0.0671 -0.5899
 6015SOL    HW136037   4.941   7.425  12.327  3.8725 -0.7343 -0.1284
 6015SOL    HW236038   4.945   7.477  12.469  1.6898 -0.9317  0.0431
 6016SOL     OW36039  12.596  13.196   5.987  0.3365 -0.0429  0.9440
 6016SOL    HW136040  12.688  13.182   5.966  0.4001  3.0021 -1.6052
 6016SOL    HW236041  12.594  13.283   6.028 -1.5736  1.4115 -1.8863
 6017SOL     OW36042   4.305  10.861  14.145  0.1981  0.2435 -0.5139
 6017SOL    HW136043   4.302  10.870  14.240 -1.7875  0.9306 -0.5956
 6017SOL    HW236044   4.318  10.767  14.130 -1.2436 -0.1450  0.4597
 6018SOL     OW36045   1.215  12.955   8.407  0.2727 -0.0929  0.4887
 6018SOL    HW136046   1.180  12.894   8.472 -2.2149  0.8246  0.1554
 6018SOL    HW236047   1.216  12.906   8.325  2.9662 -1.1047  1.0360
 6019SOL     OW36048  10.704   2.338   1.086 -0.9465 -0.0724 -0.5528
 6019SOL    HW136049  10.685   2.263   1.030  0.2711 -0.0430 -1.0342
 6019SOL    HW236050  10.744   2.402   1.028  1.2227 -0.3995  0.4596
 6020SOL     OW36051   2.142   0.757   2.145  0.6976 -0.6318 -0.3101
 6020SOL    HW136052   2.128   0.676   2.095  1.1875 -1.3444  0.6690
 6020SOL    HW236053   2.228   0.745   2.187  0.2471 -0.1188  0.8015
 6021SOL     OW36054   3.365  10.373   9.415 -0.4275 -0.2146  0.1517
 6021SOL    HW136055   3.289  10.429   9.421 -0.3597 -0.0280 -0.5755
 6021SOL    HW236056   3.440  10.433   9.420 -0.3387  0.1357 -2.9425
 6022SOL     OW36057   0.065   9.322   4.985 -0.4489 -0.2592  0.2198
 6022SOL    HW136058   0.006   9.280   5.048 -0.4530 -2.3797 -1.1114
 6022SOL    HW236059   0.130   9.255   4.965  0.9569  1.1861 -0.2601
 6023SOL     OW36060   5.524   5.394   5.195 -0.5720  0.1019  0.0100
 6023SOL    HW136061   5.566   5.321   5.149 -0.8369 -0.0606  0.0228
 6023SOL    HW236062   5.543   5.470   5.141  0.0155  0.0890  0.1810
 6024SOL     OW36063  11.487   1.609  10.267 -0.0539  0.1299 -0.2123
 6024SOL    HW136064  11.477   1.543  10.199  2.5555 -1.3796  0.7406
 6024SOL    HW236065  11.553   1.670  10.233  0.7726 -0.2545  0.6619
 6025SOL     OW36066   5.643  13.201   3.299  0.3851 -0.7142 -0.0046
 6025SOL    HW136067   5.618  13.139   3.368  1.3095 -2.8808 -1.5144
 6025SOL    HW236068   5.582  13.274   3.309 -0.4459 -1.6249  2.1610
 6026SOL     OW36069   7.957   5.588   7.249  0.1289 -0.4304  0.3541
 6026SOL    HW136070   7.994   5.640   7.178 -0.6645  0.6832  0.7419
 6026SOL    HW236071   8.033   5.545   7.289  0.8121  0.5300  0.1139
 6027SOL     OW36072  14.059  13.334   4.969 -0.0968 -0.0717 -0.2012
 6027SOL    HW136073  13.995  13.293   4.910 -0.5173  0.0837  0.1438
 6027SOL    HW236074  14.144  13.304   4.936 -0.3138  0.1831 -1.0238
 6028SOL     OW36075   6.116   4.145   7.109 -0.0233 -0.1961 -0.7142
 6028SOL    HW136076   6.187   4.091   7.074  1.0365  0.1269  0.8409
 6028SOL    HW236077   6.133   4.233   7.075  0.9388  0.0929  0.4528
 6029SOL     OW36078  12.950  10.521  13.550 -0.1221 -0.0663 -0.9381
 6029SOL    HW136079  12.976  10.430  13.534  0.3724  0.0512 -0.7931
 6029SOL    HW236080  12.895  10.543  13.475 -1.9087 -1.1268 -0.0023
 6030SOL     OW36081   1.293   0.765  13.112 -0.0924  0.1546  0.3152
 6030SOL    HW136082   1.267   0.742  13.201  0.1517 -0.5933  0.2043
 6030SOL    HW236083   1.233   0.716  13.055 -0.4419  0.8654  0.0665
 6031SOL     OW36084   4.269  14.127   6.553  0.5840 -0.5801 -0.1169
 6031SOL    HW136085   4.181  14.127   6.592 -0.4166 -1.9168 -2.1845
 6031SOL    HW236086   4.278  14.213   6.514  0.2059 -0.4288  0.1249
 6032SOL     OW36087  10.389  13.685   3.713  0.0223  0.0837  0.3744
 6032SOL    HW136088  10.378  13.778   3.732  0.6203 -0.1943  2.2822
 6032SOL    HW236089  10.463  13.681   3.653 -0.0369  0.8335  0.2424
 6033SOL     OW36090   2.317   4.279   6.207 -0.6361  0.0852  0.3317
 6033SOL    HW136091   2.336   4.318   6.121 -0.0238 -2.7313 -0.9272
 6033SOL    HW236092   2.401   4.244   6.236 -0.9019  0.7666  1.9821
 6034SOL     OW36093   7.892   3.427  12.184 -0.4689  0.6023 -0.0144
 6034SOL    HW136094   7.971   3.479  12.168  0.2766 -0.5598 -0.3183
 6034SOL    HW236095   7.896   3.407  12.278  0.1694 -0.2891 -0.2118
 6035SOL     OW36096  12.289   8.990   2.383  0.3338  0.4492  0.7049
 6035SOL    HW136097  12.280   9.050   2.308  1.9993  1.2724  1.1082
 6035SOL    HW236098  12.372   8.945   2.368  0.1114 -0.2365  1.4713
 6036SOL     OW36099   3.646   5.686   6.467  0.7640  0.0407 -0.1140
 6036SOL    HW136100   3.715   5.694   6.400 -0.0118  0.7661 -0.8633
 6036SOL    HW236101   3.663   5.759   6.527  1.5826 -0.7314  0.6228
 6037SOL     OW36102   2.326  12.386   0.347  0.3536 -0.1119  0.5665
 6037SOL    HW136103   2.302  12.294   0.336 -4.1953  1.0046 -1.1998
 6037SOL    HW236104   2.382  12.405   0.272  2.7116 -1.6488  1.8117
 6038SOL     OW36105   8.860  11.341  10.292 -0.1488 -0.2727 -0.2483
 6038SOL    HW136106   8.786  11.356  10.233  0.8091 -0.1417 -1.4500
 6038SOL    HW236107   8.861  11.418  10.349  0.4161  0.8684 -1.7284
 6039SOL     OW36108   1.281   9.584   3.840 -0.0655  0.4163  0.4210
 6039SOL    HW136109   1.283   9.489   3.824 -0.7312  0.7218 -1.7357
 6039SOL    HW236110   1.278   9.623   3.753  0.8320  2.4685  1.2502
 6040SOL     OW36111   5.694   6.142   1.069  0.0897  0.0832  0.4581
 6040SOL    HW136112   5.645   6.177   1.144  0.1138 -2.0746  1.5569
 6040SOL    HW236113   5.776   6.109   1.107  2.1832  2.8654 -1.2208
 6041SOL     OW36114  11.023  11.510   4.231  0.0462 -0.3312 -0.0204
 6041SOL    HW136115  11.089  11.550   4.287  0.6030 -1.3111  0.0503
 6041SOL    HW236116  10.941  11.551   4.257  0.3623 -0.4302  1.1868
 6042SOL     OW36117  13.478   5.106   9.333 -0.1867 -0.0712  0.6939
 6042SOL    HW136118  13.390   5.118   9.369 -0.3873 -2.5270  1.1799
 6042SOL    HW236119  13.465   5.089   9.240 -0.1008  0.6815  0.5329
 6043SOL     OW36120  12.203   9.346  11.602  0.3969  0.1407 -0.3724
 6043SOL    HW136121  12.286   9.326  11.557 -0.5459  0.0910 -2.1655
 6043SOL    HW236122  12.197   9.441  11.601 -0.3706  0.1005 -1.8351
 6044SOL     OW36123   4.984   5.324  11.081 -0.0033  0.1594  0.5588
 6044SOL    HW136124   4.934   5.273  11.145  0.7662 -0.6427  0.5391
 6044SOL    HW236125   5.042   5.260  11.039 -0.5045  0.6659 -0.9632
 6045SOL     OW36126  14.077  12.530   5.277  0.3649  0.1590  0.2939
 6045SOL    HW136127  13.990  12.565   5.297 -1.8968 -4.7216  0.2766
 6045SOL    HW236128  14.110  12.499   5.361  0.6790 -0.7760 -0.1642
 6046SOL     OW36129   9.404   4.829   9.345 -0.0247  0.1223 -0.5336
 6046SOL    HW136130   9.332   4.812   9.283 -1.6942  1.3491  0.9554
 6046SOL    HW236131   9.395   4.760   9.411 -0.6452  0.9765  0.3012
 6047SOL     OW36132   4.792   3.323   0.911  0.8352 -0.1328 -0.1846
 6047SOL    HW136133   4.814   3.249   0.967  1.0068  0.9199  1.1848
 6047SOL    HW236134   4.712   3.360   0.949 -0.9286 -1.2469 -2.5027
 6048SOL     OW36135  10.122   1.064   4.764  0.1710  0.0066 -0.2548
 6048SOL    HW136136  10.101   0.994   4.827 -0.2659 -0.2582 -0.6865
 6048SOL    HW236137  10.103   1.145   4.811  2.1739 -0.0959  0.8031
 6049SOL     OW36138  10.658  11.779   5.464  0.5005 -0.1379 -0.0810
 6049SOL    HW136139  10.643  11.853   5.405  0.6720 -0.9351 -1.1607
 6049SOL    HW236140  10.588  11.717   5.443  2.9768 -2.3769 -2.7262
 6050SOL     OW36141   8.337  13.496   5.205  0.0069  0.1421  0.1254
 6050SOL    HW136142   8.341  13.487   5.110  0.1936 -0.8650  0.2119
 6050SOL    HW236143   8.362  13.586   5.222  2.9163 -0.4029 -0.6127
 6051SOL     OW36144   3.309   0.379   3.106 -0.6018  0.4662  0.2802
 6051SOL    HW136145   3.233   0.367   3.164 -0.9592 -1.4235 -0.4857
 6051SOL    HW236146   3.367   0.306   3.129  0.6272  1.4140  0.2745
 6052SOL     OW36147   5.671  11.441  12.950 -0.2915  0.3914  0.2172
 6052SOL    HW136148   5.739  11.505  12.968  1.5084 -0.7072 -2.1567
 6052SOL    HW236149   5.682  11.374  13.017  1.9615 -0.4496 -0.9116
 6053SOL     OW36150   4.272  11.630   9.312  0.5140 -0.7322  0.2126
 6053SOL    HW136151   4.280  11.725   9.316  0.6836 -0.6948 -0.7228
 6053SOL    HW236152   4.346  11.602   9.258 -0.1489 -1.2911 -0.4216
 6054SOL     OW36153   4.892   2.355   1.119 -0.0264 -0.0830  0.2090
 6054SOL    HW136154   4.808   2.343   1.075  0.1776  1.1539 -0.5789
 6054SOL    HW236155   4.952   2.297   1.074  0.1280  0.9987 -1.0209
 6055SOL     OW36156   8.567  14.059   8.615 -0.0130 -0.1008 -0.4028
 6055SOL    HW136157   8.604  13.999   8.550 -0.1362 -1.0509  0.3986
 6055SOL    HW236158   8.478  14.027   8.629 -0.2788  0.6272 -0.4023
 6056SOL     OW36159   3.310  12.281  10.670  0.1010  0.3805 -0.1097
 6056SOL    HW136160   3.276  12.369  10.655  1.3972  0.8174 -0.6279
 6056SOL    HW236161   3.284  12.232  10.591 -2.6622 -0.4254  1.1558
 6057SOL     OW36162   4.161  10.787   9.277  0.6989  0.0199 -0.0239
 6057SOL    HW136163   4.093  10.805   9.212 -1.1798  1.0416  2.0779
 6057SOL    HW236164   4.189  10.698   9.259  0.1509  0.2247 -2.1070
 6058SOL     OW36165   3.075   9.915   9.944  1.0366 -0.0883  0.1060
 6058SOL    HW136166   3.084   9.943   9.853  0.1112  0.0615  0.0444
 6058SOL    HW236167   3.163   9.921   9.981  0.8514  3.4991  0.2922
 6059SOL     OW36168   0.444  11.821   6.482  1.0829  0.3384  0.3550
 6059SOL    HW136169   0.436  11.739   6.434 -0.0222  1.0565 -0.7409
 6059SOL    HW236170   0.470  11.795   6.570 -2.1291 -1.4858  0.9198
 6060SOL     OW36171   8.187   4.515   8.754 -0.3383 -0.0183  0.0809
 6060SOL    HW136172   8.240   4.546   8.680 -1.7910  2.3673 -0.0610
 6060SOL    HW236173   8.233   4.549   8.831 -0.6578  0.4767  0.0581
 6061SOL     OW36174   4.728   2.349  12.059 -0.1884  0.1591 -0.1501
 6061SOL    HW136175   4.694   2.436  12.039 -1.2452 -0.3206 -0.5291
 6061SOL    HW236176   4.756   2.355  12.150 -0.3484  0.8712 -0.1381
 6062SOL     OW36177  10.603  11.104  11.626  0.6570  0.1190  0.2281
 6062SOL    HW136178  10.536  11.041  11.653  0.8152 -1.0876 -1.8918
 6062SOL    HW236179  10.686  11.063  11.652  0.6996 -0.0343 -0.1290
 6063SOL     OW36180   1.989   0.234   6.576 -0.3017 -0.7019  0.3234
 6063SOL    HW136181   2.026   0.217   6.489 -0.0424  1.3126  0.0021
 6063SOL    HW236182   1.896   0.246   6.561 -0.0751  1.0041  0.0659
 6064SOL     OW36183   0.485   3.889   9.851  0.1230  0.0808 -0.6257
 6064SOL    HW136184   0.515   3.907   9.941 -0.6795 -1.5400  0.0041
 6064SOL    HW236185   0.390   3.902   9.855  0.2593  1.7669 -1.7372
 6065SOL     OW36186   9.821   0.354   2.290  0.2874  0.1077 -0.0221
 6065SOL    HW136187   9.885   0.289   2.320  2.2417  1.7568 -0.3740
 6065SOL    HW236188   9.858   0.388   2.209 -1.8812  0.0109 -1.1060
 6066SOL     OW36189  12.753   1.862   1.916  0.1574 -0.7070 -0.2961
 6066SOL    HW136190  12.710   1.947   1.928  0.5740 -0.5544  0.1900
 6066SOL    HW236191  12.723   1.831   1.831  0.0838 -0.0209 -0.5261
 6067SOL     OW36192  10.840  12.381   8.227  0.0021  0.0720 -0.3930
 6067SOL    HW136193  10.884  12.372   8.143  0.8036  1.8357 -0.1987
 6067SOL    HW236194  10.845  12.474   8.248  0.8301 -0.4542  2.1524
 6068SOL     OW36195  10.571   9.549   6.374 -0.0463 -0.0722  0.6648
 6068SOL    HW136196  10.544   9.470   6.327  1.0839  0.1250 -0.3602
 6068SOL    HW236197  10.661   9.533   6.399  0.0781  0.7354  0.7823
 6069SOL     OW36198  12.679   4.931   5.469  0.7393 -0.0396 -0.1919
 6069SOL    HW136199  12.608   4.867   5.458  1.3558 -0.9824  1.0641
 6069SOL    HW236200  12.643   4.996   5.530  1.8360 -2.0772  2.8482
 6070SOL     OW36201  10.156   1.263   9.315  0.0977 -0.2004  0.0570
 6070SOL    HW136202  10.225   1.267   9.248 -0.8963  0.2484 -0.9692
 6070SOL    HW236203  10.124   1.173   9.310  2.1022 -1.1254  2.1377
 6071SOL     OW36204  10.059   4.396   1.656  0.1013 -0.7469 -0.5179
 6071SOL    HW136205  10.130   4.458   1.675 -2.6740  2.6273  0.0333
 6071SOL    HW236206  10.041   4.355   1.741 -0.7342  0.9738  0.1909
 6072SOL     OW36207  11.846   2.823   5.308  0.1292 -0.2370 -0.2294
 6072SOL    HW136208  11.902   2.755   5.271  1.1395 -0.5074  1.6621
 6072SOL    HW236209  11.757   2.793   5.290  0.5455 -2.2051  0.7214
 6073SOL     OW36210   5.889  10.036  11.142 -0.2387 -0.3308 -0.2912
 6073SOL    HW136211   5.823  10.105  11.140  0.8039  0.7136  0.4493
 6073SOL    HW236212   5.852   9.970  11.201 -0.9076 -0.0767 -0.4097
 6074SOL     OW36213  14.010   2.194   0.483 -0.2218  0.5666 -0.2409
 6074SOL    HW136214  13.999   2.174   0.576 -1.6074  0.4686 -0.4102
 6074SOL    HW236215  14.017   2.108   0.441  1.2338  0.6179 -0.1616
 6075SOL     OW36216   0.445   8.940   8.072  0.6459 -0.2700  0.2146
 6075SOL    HW136217   0.395   8.996   8.012  1.2613  1.1571  0.9586
 6075SOL    HW236218   0.380   8.881   8.110  0.0360 -0.3437 -0.9003
 6076SOL     OW36219   0.703   8.492   4.715  0.1422  0.4657  0.8293
 6076SOL    HW136220   0.696   8.411   4.664  1.2056  1.0178 -0.2726
 6076SOL    HW236221   0.620   8.499   4.761 -0.5687 -0.4833 -0.2409
 6077SOL     OW36222  14.072  13.486   4.518  0.3149  0.6904  0.1430
 6077SOL    HW136223  14.145  13.497   4.579  0.7093 -1.3167  0.1160
 6077SOL    HW236224  14.108  13.512   4.433  1.3698 -1.2028 -0.0438
 6078SOL     OW36225  13.565  10.437  13.022  0.3515 -0.5900 -0.1658
 6078SOL    HW136226  13.648  10.473  13.055  0.5087 -1.1711  0.0869
 6078SOL    HW236227  13.588  10.400  12.936  0.0917  0.2966 -0.6320
 6079SOL     OW36228   6.911   0.021  13.793 -0.1285 -0.4231  0.2615
 6079SOL    HW136229   6.959  -0.037  13.852  1.5389  0.9458  0.3339
 6079SOL    HW236230   6.900  -0.029  13.713 -1.0238 -1.7405  1.1739
 6080SOL     OW36231   8.610  10.718   6.475 -0.2029  0.1266  0.4221
 6080SOL    HW136232   8.519  10.743   6.490 -0.6146 -1.1866  0.2807
 6080SOL    HW236233   8.647  10.791   6.425 -1.3520  0.4014 -0.0779
 6081SOL     OW36234   6.054   8.373  12.241 -0.3701  0.1749  0.0417
 6081SOL    HW136235   6.115   8.445  12.225  0.3404 -0.2911  0.5821
 6081SOL    HW236236   5.976   8.415  12.277 -0.9593  0.9375 -1.9856
 6082SOL     OW36237   6.105   4.349   7.452 -0.8657  0.1749 -0.4236
 6082SOL    HW136238   6.091   4.396   7.370  1.6523 -2.1931 -2.3822
 6082SOL    HW236239   6.143   4.414   7.511 -2.2710  1.8034 -1.2227
 6083SOL     OW36240   1.515   1.303   4.015 -0.1061 -0.8922 -0.0331
 6083SOL    HW136241   1.479   1.227   3.969  0.3778 -1.0702 -0.1229
 6083SOL    HW236242   1.493   1.377   3.958  1.4093 -1.2269 -1.1248
 6084SOL     OW36243  11.024   5.710   0.636  0.4928 -0.1155  0.4418
 6084SOL    HW136244  11.024   5.615   0.640 -0.2964 -0.1900 -0.8982
 6084SOL    HW236245  10.958   5.732   0.570 -1.7200  1.4765  2.9468
 6085SOL     OW36246  12.747   6.912   5.174  0.3356  0.1311  0.6338
 6085SOL    HW136247  12.770   6.990   5.226  0.5290 -0.0607  0.8410
 6085SOL    HW236248  12.717   6.849   5.239 -1.0585  0.4714  0.3380
 6086SOL     OW36249   0.269  11.190   6.529 -0.8638  0.3338  0.5309
 6086SOL    HW136250   0.303  11.106   6.499 -0.5099  0.8679 -0.6481
 6086SOL    HW236251   0.200  11.212   6.467 -1.4373  0.5942  1.2422
 6087SOL     OW36252  11.115   0.401   8.350  0.2098  0.3533  0.3796
 6087SOL    HW136253  11.081   0.434   8.266  0.8807 -0.0279 -0.0507
 6087SOL    HW236254  11.199   0.446   8.360  0.3688  0.0039  0.5966
 6088SOL     OW36255   1.677  10.422   0.506  0.4776  0.1658  0.3733
 6088SOL    HW136256   1.689  10.329   0.488 -0.1531 -0.1593  1.5466
 6088SOL    HW236257   1.710  10.434   0.595 -0.6483  0.7922  0.7267
 6089SOL     OW36258  13.794   3.396   7.995 -0.4435  0.3979 -0.1607
 6089SOL    HW136259  13.818   3.307   8.020 -0.6630  0.3246 -0.2059
 6089SOL    HW236260  13.809   3.399   7.900 -0.3052  0.4514 -0.1373
 6090SOL     OW36261   5.164  10.465   3.035  0.0150  0.0543 -0.2388
 6090SOL    HW136262   5.257  10.489   3.034  0.4989 -1.6663 -1.0408
 6090SOL    HW236263   5.164  10.373   3.061 -1.4941  0.1131  0.0290
 6091SOL     OW36264   1.750   2.734  12.769  0.3209  1.1850  0.4751
 6091SOL    HW136265   1.839   2.698  12.777  0.3857  1.4834  1.1880
 6091SOL    HW236266   1.763   2.829  12.777  0.2634  1.4909 -2.2395
 6092SOL     OW36267   2.529   8.158   4.877 -0.2638  0.1023  0.3661
 6092SOL    HW136268   2.494   8.150   4.788  0.2379  1.4065  0.0395
 6092SOL    HW236269   2.624   8.161   4.866 -0.2161  0.8680  0.8863
 6093SOL     OW36270   0.871  12.899   6.949 -0.4463  0.0032 -0.3127
 6093SOL    HW136271   0.835  12.965   7.009 -1.0326 -2.5253  2.3068
 6093SOL    HW236272   0.963  12.891   6.973 -0.2896  0.0850 -0.8625
 6094SOL     OW36273   6.441   2.215   4.690  0.2036  0.4879 -0.5519
 6094SOL    HW136274   6.404   2.134   4.726  0.5169  0.7869  0.4646
 6094SOL    HW236275   6.444   2.200   4.595 -1.2788 -0.0567 -0.5397
 6095SOL     OW36276  13.178   5.171   5.263  0.2070 -0.1270 -0.4150
 6095SOL    HW136277  13.219   5.253   5.235  1.1753 -0.1208  0.9287
 6095SOL    HW236278  13.104   5.198   5.318  0.2634 -0.1551 -0.3263
 6096SOL     OW36279   3.044  10.652   0.511 -0.5014  0.4077  0.3268
 6096SOL    HW136280   3.128  10.697   0.512 -0.4660  0.4114 -1.0523
 6096SOL    HW236281   3.066  10.559   0.501 -0.6300  0.2547  1.3659
 6097SOL     OW36282   4.872   4.340   5.998 -0.3043 -0.0894 -0.7557
 6097SOL    HW136283   4.801   4.401   6.016 -0.1787  0.1076 -0.9237
 6097SOL    HW236284   4.884   4.343   5.904 -0.4015 -0.4954 -0.7830
 6098SOL     OW36285   0.557   3.475   5.921 -0.4324  0.3611 -0.3671
 6098SOL    HW136286   0.592   3.482   5.832 -0.5115  1.0531 -0.3477
 6098SOL    HW236287   0.462   3.483   5.910 -0.4687  0.1096 -0.2513
 6099SOL     OW36288  13.351   0.454   4.142  0.2023  0.6362  0.5556
 6099SOL    HW136289  13.390   0.388   4.085 -1.6062 -0.9823  1.1063
 6099SOL    HW236290  13.407   0.454   4.220 -0.9539 -1.9679  1.5222
 6100SOL     OW36291  14.015   0.945  12.873  0.7041  0.2362  0.2758
 6100SOL    HW136292  13.926   0.926  12.844  0.5647  0.1152  0.7754
 6100SOL    HW236293  14.015   1.039  12.891  0.2500 -0.0148  1.7043
 6101SOL     OW36294   7.459  12.538   4.207  0.0317  0.5140 -0.0051
 6101SOL    HW136295   7.430  12.629   4.214 -0.1448  0.3662  1.5470
 6101SOL    HW236296   7.404  12.491   4.270  1.7762 -0.2450  1.0254
 6102SOL     OW36297   7.958  11.193   3.198 -0.3149 -0.1655 -0.4897
 6102SOL    HW136298   7.917  11.279   3.207  0.0069  0.0035 -0.6276
 6102SOL    HW236299   8.005  11.197   3.115 -1.0184 -0.7799 -0.9333
 6103SOL     OW36300   1.948   8.661   6.929  0.7375  0.1922  0.5568
 6103SOL    HW136301   2.036   8.678   6.898  1.1636 -1.9429  0.4414
 6103SOL    HW236302   1.898   8.739   6.903  2.5664  1.4912  0.7196
 6104SOL     OW36303  13.176  11.337   6.714  0.0805  0.4210  0.0113
 6104SOL    HW136304  13.148  11.306   6.627 -2.9298 -1.1663  1.3894
 6104SOL    HW236305  13.112  11.404   6.737  1.5119  1.6351  0.6340
 6105SOL     OW36306   2.574   8.853   8.895  0.5087  0.1964  0.0529
 6105SOL    HW136307   2.560   8.944   8.868 -2.2455  0.2175  1.2718
 6105SOL    HW236308   2.557   8.803   8.815  0.4691  0.6435 -0.2284
 6106SOL     OW36309   9.757   5.517   5.987 -0.4618  0.3954 -0.5252
 6106SOL    HW136310   9.785   5.510   6.079 -1.5532  0.2189 -0.1898
 6106SOL    HW236311   9.661   5.513   5.991 -0.6494  2.6163 -1.4770
 6107SOL     OW36312   0.198   5.753   2.724  0.0346 -0.0468  0.2912
 6107SOL    HW136313   0.122   5.770   2.669 -0.6047  2.4078  1.7483
 6107SOL    HW236314   0.273   5.781   2.671  0.0229 -2.4889 -1.1541
 6108SOL     OW36315   9.055   9.534  12.603  0.1742  0.4312  0.1588
 6108SOL    HW136316   9.141   9.556  12.567 -0.2684  1.5792 -0.2615
 6108SOL    HW236317   9.067   9.536  12.698  0.4906  1.1292  0.1064
 6109SOL     OW36318   2.007  13.723  12.486  0.0077  0.3339  0.1157
 6109SOL    HW136319   2.023  13.816  12.496  1.2665  0.0403  1.2254
 6109SOL    HW236320   2.027  13.686  12.573  0.5399 -1.0783 -0.5689
 6110SOL     OW36321   2.721  11.365   3.586  0.6967 -0.0200 -0.7079
 6110SOL    HW136322   2.654  11.356   3.653  0.5267 -0.5015 -0.9347
 6110SOL    HW236323   2.683  11.425   3.522  0.2066 -0.8156 -1.1688
 6111SOL     OW36324  12.460  14.068  12.636 -0.5108  0.0937  0.0977
 6111SOL    HW136325  12.504  14.045  12.554 -0.4266 -2.3953  0.7782
 6111SOL    HW236326  12.495  14.007  12.700 -1.0629  1.5688  1.8718
 6112SOL     OW36327  13.206   7.296   0.747 -0.0666  0.0502 -0.0130
 6112SOL    HW136328  13.160   7.334   0.672 -0.6934  0.6053  0.6349
 6112SOL    HW236329  13.299   7.305   0.726 -0.2331  0.0589 -0.7831
 6113SOL     OW36330   5.675   1.774   1.696 -0.0638  0.4021 -0.2238
 6113SOL    HW136331   5.630   1.820   1.625  0.3673  1.1875  0.0013
 6113SOL    HW236332   5.737   1.838   1.730  0.3740 -0.2766  0.2631
 6114SOL     OW36333   5.878   6.537   5.093 -0.1237 -0.0034 -0.8748
 6114SOL    HW136334   5.924   6.621   5.105 -0.4910  0.2618 -1.2729
 6114SOL    HW236335   5.946   6.478   5.061  0.9080 -0.7586  2.3241
 6115SOL     OW36336  13.021   7.118   9.652  0.7893  0.3063  0.2799
 6115SOL    HW136337  13.095   7.061   9.676  0.3123 -0.9681 -1.1205
 6115SOL    HW236338  13.062   7.195   9.612  1.3898 -1.1333 -2.0567
 6116SOL     OW36339   2.416  12.603   7.454  0.0986  0.0716 -0.0584
 6116SOL    HW136340   2.458  12.612   7.368 -0.3168  2.3335 -0.0808
 6116SOL    HW236341   2.359  12.526   7.445  3.1323 -2.3520 -0.4356
 6117SOL     OW36342  12.640  12.170  13.609 -0.0452  1.0291 -0.3106
 6117SOL    HW136343  12.644  12.162  13.705  2.5512 -1.1280 -0.4762
 6117SOL    HW236344  12.619  12.262  13.594  2.9389  2.3430  2.3945
 6118SOL     OW36345  12.430   4.574   8.398  0.0303 -0.1969  0.0687
 6118SOL    HW136346  12.405   4.632   8.326 -1.9055  0.4938  1.2141
 6118SOL    HW236347  12.453   4.633   8.470 -2.2286 -0.7137  1.3395
 6119SOL     OW36348   8.045   7.926   7.515 -0.2025  0.1334 -0.1726
 6119SOL    HW136349   8.102   8.001   7.495 -1.6323  1.1164 -0.7066
 6119SOL    HW236350   8.105   7.860   7.550  1.1529  1.4194  0.0682
 6120SOL     OW36351   8.232   3.452   8.338 -0.1205 -0.4716 -0.0523
 6120SOL    HW136352   8.236   3.457   8.243  1.4648 -0.8532 -0.0388
 6120SOL    HW236353   8.139   3.453   8.358 -0.5295 -1.4741 -1.6742
 6121SOL     OW36354  13.490   0.998   5.002  0.1613  0.2843  0.2983
 6121SOL    HW136355  13.492   0.973   4.909  2.3503  0.2193  0.3107
 6121SOL    HW236356  13.548   1.073   5.008  0.9384 -0.3853  1.7752
 6122SOL     OW36357   7.678  12.923   2.333 -0.1723 -0.4426 -0.3342
 6122SOL    HW136358   7.729  12.929   2.414  1.2111 -0.3651 -1.1753
 6122SOL    HW236359   7.609  12.989   2.343  0.5656  0.2509  0.3964
 6123SOL     OW36360  12.884  11.826   8.367  0.3201 -0.1071 -0.1489
 6123SOL    HW136361  12.928  11.776   8.298  0.4402 -1.5596  0.9468
 6123SOL    HW236362  12.953  11.876   8.409  0.2409  0.8169 -1.0819
 6124SOL     OW36363  11.842   6.647   5.230 -0.0671 -0.1944 -0.0391
 6124SOL    HW136364  11.753   6.680   5.221 -0.2686 -0.8091 -0.3444
 6124SOL    HW236365  11.863   6.660   5.322 -0.4265  0.0640  0.0087
 6125SOL     OW36366   2.893   8.164   5.726 -0.0550  0.1676 -0.4189
 6125SOL    HW136367   2.959   8.225   5.759 -0.2903 -0.7932  2.0592
 6125SOL    HW236368   2.921   8.078   5.758 -2.3860 -0.2893  0.5935
 6126SOL     OW36369   8.119   2.751  11.449 -0.2295 -0.1055 -0.2332
 6126SOL    HW136370   8.139   2.790  11.363  1.0894  1.0620  0.5675
 6126SOL    HW236371   8.152   2.661  11.442  0.3392  0.1351 -0.7922
 6127SOL     OW36372   9.784  14.122  12.809 -0.1198  0.1599 -1.0797
 6127SOL    HW136373   9.847  14.087  12.872  0.3464  0.4958 -1.3524
 6127SOL    HW236374   9.703  14.130  12.858  0.3322  0.7701 -0.4058
 6128SOL     OW36375  13.943   6.246   4.984 -0.0306  0.1497  0.0229
 6128SOL    HW136376  14.025   6.295   4.992  0.9143 -1.5466  1.6395
 6128SOL    HW236377  13.913   6.237   5.075 -0.3321 -1.8997 -0.2370
 6129SOL     OW36378  12.061  12.318   9.238  0.1418 -1.0165 -0.5566
 6129SOL    HW136379  12.107  12.349   9.316 -1.6568  0.0812  0.1191
 6129SOL    HW236380  11.969  12.311   9.265 -0.8121  0.8858 -2.9778
 6130SOL     OW36381   5.160  10.312   5.212  0.6567  0.4798 -0.3125
 6130SOL    HW136382   5.155  10.217   5.197  1.8170 -0.0013  2.0013
 6130SOL    HW236383   5.069  10.340   5.220  0.2189 -0.1220 -2.4731
 6131SOL     OW36384  12.691   1.868   9.328 -0.7657 -0.1318 -0.7292
 6131SOL    HW136385  12.655   1.793   9.280  0.4022 -0.5624 -0.9507
 6131SOL    HW236386  12.633   1.940   9.306 -0.5535 -0.4411 -2.3920
 6132SOL     OW36387  10.417   5.884   3.762 -0.4199 -0.3415 -0.6626
 6132SOL    HW136388  10.474   5.846   3.696  0.4361  0.4739 -0.4068
 6132SOL    HW236389  10.459   5.965   3.787 -1.0956 -0.2902  0.3826
 6133SOL     OW36390   2.874   6.231   4.954  0.6109 -0.0014  0.1899
 6133SOL    HW136391   2.960   6.195   4.933 -0.1453 -1.1951 -1.0012
 6133SOL    HW236392   2.848   6.187   5.035  0.1060 -1.4701 -0.7438
 6134SOL     OW36393   4.218   7.734   3.680  0.0301  0.1441 -0.4800
 6134SOL    HW136394   4.205   7.815   3.729  1.1137  0.0391  0.0107
 6134SOL    HW236395   4.138   7.684   3.695  0.5973 -0.1925  1.8163
 6135SOL     OW36396   5.796   7.048   2.020 -0.0983 -0.0547  0.0179
 6135SOL    HW136397   5.781   6.959   2.051 -0.0470 -0.0837 -0.0384
 6135SOL    HW236398   5.879   7.042   1.971  1.1904  0.5136  2.0296
 6136SOL     OW36399   7.170   9.371  12.212  0.4119  0.5991  0.3215
 6136SOL    HW136400   7.114   9.352  12.136 -0.7390 -3.4503  1.9396
 6136SOL    HW236401   7.256   9.339  12.186 -0.3259 -2.2737  1.1176
 6137SOL     OW36402   9.092   8.349  13.312 -0.5348 -0.2511 -0.3958
 6137SOL    HW136403   9.119   8.392  13.393 -0.1447 -1.0674 -0.0838
 6137SOL    HW236404   9.014   8.299  13.336 -1.4368  0.8369 -0.9295
 6138SOL     OW36405   7.576   9.446   4.246  0.0855  0.2687 -0.6210
 6138SOL    HW136406   7.671   9.461   4.253 -0.1342  3.2092 -2.4701
 6138SOL    HW236407   7.547   9.440   4.337  1.5796  3.4070  0.2181
 6139SOL     OW36408   8.695   2.382  11.835  0.5299  0.2599 -0.2462
 6139SOL    HW136409   8.610   2.393  11.878  0.1590 -2.0806 -0.2250
 6139SOL    HW236410   8.685   2.425  11.750 -0.5698  0.3030 -0.1085
 6140SOL     OW36411  10.453   1.797   7.752  0.3760 -0.5163  0.1276
 6140SOL    HW136412  10.470   1.853   7.828 -0.0866 -0.3586  0.1188
 6140SOL    HW236413  10.470   1.853   7.677  0.6325 -0.6104  0.1152
 6141SOL     OW36414   2.661   3.844  10.828 -0.6820  0.0206  0.2014
 6141SOL    HW136415   2.681   3.755  10.857 -0.4009 -0.1391 -0.4898
 6141SOL    HW236416   2.582   3.835  10.775  0.2247 -0.0496 -1.1786
 6142SOL     OW36417   0.734   5.738   0.448 -0.6127 -0.0627  0.6522
 6142SOL    HW136418   0.750   5.703   0.535  0.5018  0.6278  0.7560
 6142SOL    HW236419   0.821   5.748   0.410 -1.0193  0.6285 -0.1414
 6143SOL     OW36420   5.728   3.890  10.000  0.3120  0.6010  0.6563
 6143SOL    HW136421   5.788   3.941   9.945 -0.4888  1.7696  0.8445
 6143SOL    HW236422   5.742   3.924  10.089  0.4132 -0.1410  0.9334
 6144SOL     OW36423   6.481   2.311   1.038  0.0180 -0.3550 -0.1075
 6144SOL    HW136424   6.432   2.263   0.971 -1.3784  1.8153 -0.7359
 6144SOL    HW236425   6.543   2.364   0.989 -0.9824  1.2180  0.2443
 6145SOL     OW36426  13.111   0.404  12.649 -0.0719 -0.0651 -0.5402
 6145SOL    HW136427  13.073   0.402  12.737 -0.0802 -0.2360 -0.5476
 6145SOL    HW236428  13.062   0.338  12.600 -1.5407  1.4549 -1.2780
 6146SOL     OW36429   9.967   3.795   8.606 -0.0371  0.5694  0.6568
 6146SOL    HW136430   9.931   3.882   8.627  0.5404  1.0037 -0.1123
 6146SOL    HW236431  10.043   3.813   8.552 -0.3513 -0.4445 -0.1579
 6147SOL     OW36432   1.187  11.329   1.976 -0.2519  0.9132 -0.1700
 6147SOL    HW136433   1.174  11.283   1.893 -2.2891  2.6750 -0.9236
 6147SOL    HW236434   1.217  11.416   1.950  0.0181  1.1824  0.9965
 6148SOL     OW36435   7.535   1.074   7.567 -0.4987 -0.6809 -0.2080
 6148SOL    HW136436   7.509   0.987   7.597 -0.5006 -0.2366  1.1708
 6148SOL    HW236437   7.615   1.094   7.617 -0.4335  0.0603 -0.5867
 6149SOL     OW36438  12.090  10.833   3.274 -0.3185 -0.0415  0.4184
 6149SOL    HW136439  12.070  10.740   3.269  2.2998 -0.6898  0.6896
 6149SOL    HW236440  12.127  10.846   3.361 -0.9224  1.3230  0.4999
 6150SOL     OW36441   8.549   9.223  12.930  0.1152  0.4387 -0.4540
 6150SOL    HW136442   8.538   9.286  12.859  0.3971  0.4954 -0.4484
 6150SOL    HW236443   8.570   9.277  13.006 -1.7586  0.5201  0.0554
 6151SOL     OW36444   2.594   5.470  14.023 -0.0974  0.6876 -0.4012
 6151SOL    HW136445   2.580   5.556  14.062  0.1717  0.2927  0.6025
 6151SOL    HW236446   2.636   5.488  13.939  5.0168  1.5088  1.8906
 6152SOL     OW36447   6.385   0.457   3.239 -0.6162 -0.2011 -0.2293
 6152SOL    HW136448   6.435   0.459   3.157 -1.3451  1.4028 -0.6855
 6152SOL    HW236449   6.295   0.442   3.212 -0.8277  0.0977  0.2917
 6153SOL     OW36450   2.974  12.168   9.382 -0.0311 -0.1623  0.1407
 6153SOL    HW136451   2.995  12.114   9.306  1.1589 -1.6354  1.4455
 6153SOL    HW236452   2.919  12.238   9.347  2.0666  0.3650 -2.4184
 6154SOL     OW36453  11.236   3.559   8.544 -0.0147  0.2821 -0.3032
 6154SOL    HW136454  11.167   3.609   8.502  0.0056  0.3348 -0.2743
 6154SOL    HW236455  11.306   3.555   8.479  0.6743  1.7686  0.3087
 6155SOL     OW36456  12.021  10.560   3.305  0.3706  0.4994 -0.0431
 6155SOL    HW136457  12.032  10.545   3.399 -1.6029  2.7499  0.6284
 6155SOL    HW236458  11.952  10.499   3.279  0.9552 -0.1628 -0.0924
 6156SOL     OW36459   7.072   8.854   6.802  0.0688 -0.3611  0.5258
 6156SOL    HW136460   7.168   8.854   6.799  0.0409 -0.0283 -1.9088
 6156SOL    HW236461   7.048   8.947   6.799 -0.3108 -0.4786 -0.7041
 6157SOL     OW36462   6.825   3.421   7.204 -0.4525  0.1277 -0.1516
 6157SOL    HW136463   6.779   3.339   7.183 -0.5039 -0.1054  0.8324
 6157SOL    HW236464   6.817   3.429   7.299  1.5838  0.0631  0.0642
 6158SOL     OW36465   3.409   5.757  13.084  0.4321 -0.3608  0.8074
 6158SOL    HW136466   3.366   5.694  13.142 -2.4035  0.0137 -0.6986
 6158SOL    HW236467   3.412   5.838  13.135 -2.3118  0.0493  0.4620
 6159SOL     OW36468   8.632   2.976  11.167 -0.2477  0.5702 -0.2320
 6159SOL    HW136469   8.658   3.048  11.109  2.0931 -0.5737 -0.7082
 6159SOL    HW236470   8.671   2.998  11.252  0.4739 -0.0782 -0.3777
 6160SOL     OW36471   7.004   2.833  10.603 -0.1454  0.0279  0.3576
 6160SOL    HW136472   6.964   2.892  10.540  0.0174  0.0173  0.2416
 6160SOL    HW236473   6.960   2.851  10.686 -0.4972 -0.0965  0.1985
 6161SOL     OW36474  10.846   3.432  11.862  0.0277 -0.7689  0.1853
 6161SOL    HW136475  10.797   3.351  11.874  0.4060 -0.8203  1.5547
 6161SOL    HW236476  10.831   3.456  11.770 -3.7632  0.0225  0.8360
 6162SOL     OW36477  12.539  13.090   5.713  0.6909 -0.0414 -0.0417
 6162SOL    HW136478  12.445  13.089   5.696  0.9245  0.1080 -1.4742
 6162SOL    HW236479  12.548  13.137   5.796 -0.4199  1.0647 -0.5132
 6163SOL     OW36480   4.219   8.885   6.440 -0.0977  0.5877 -0.3760
 6163SOL    HW136481   4.169   8.919   6.515 -0.9061 -0.4338 -0.4296
 6163SOL    HW236482   4.277   8.957   6.416 -2.3282  2.2951 -1.0287
 6164SOL     OW36483  11.911  14.004  12.632 -0.2364  0.3709  0.7225
 6164SOL    HW136484  12.004  14.021  12.645 -0.2780  0.5600  0.7784
 6164SOL    HW236485  11.878  13.985  12.720 -0.3121  0.6161  0.7470
 6165SOL     OW36486   3.821   3.389   2.153  0.1110 -0.5143  0.4438
 6165SOL    HW136487   3.763   3.357   2.083  0.0767 -0.5252  0.4778
 6165SOL    HW236488   3.763   3.437   2.212  0.3711  0.7698 -0.3111
 6166SOL     OW36489   9.666  12.625  12.872  0.5174 -0.5936 -0.0103
 6166SOL    HW136490   9.674  12.612  12.778  0.8268 -0.0462 -0.0637
 6166SOL    HW236491   9.735  12.569  12.909  1.0869 -0.0201 -0.1748
 6167SOL     OW36492   8.673  10.427  13.829 -0.6071 -0.6957 -0.3229
 6167SOL    HW136493   8.601  10.370  13.802 -0.6034 -1.3929  1.0636
 6167SOL    HW236494   8.728  10.371  13.884  1.1251 -0.2379 -1.5185
 6168SOL     OW36495   7.759  11.826  13.435 -0.3189 -0.1271 -0.1285
 6168SOL    HW136496   7.754  11.761  13.505  0.2992 -1.7600 -1.5120
 6168SOL    HW236497   7.676  11.816  13.388 -0.4899  0.5546  0.0241
 6169SOL     OW36498   7.444   5.172  11.394 -0.3000  0.0467  0.2969
 6169SOL    HW136499   7.522   5.145  11.442 -0.4429  0.8691  1.0148
 6169SOL    HW236500   7.376   5.109  11.419  0.1001 -0.6398 -0.2901
 6170SOL     OW36501   2.287   9.870  13.365 -0.0871  0.2929 -0.3433
 6170SOL    HW136502   2.284   9.966  13.371 -2.7205  0.1865  1.9809
 6170SOL    HW236503   2.339   9.843  13.440 -0.3127 -0.1340 -0.3401
 6171SOL     OW36504   5.946   5.946  11.313  0.0843  0.8648  0.5005
 6171SOL    HW136505   6.016   5.917  11.371 -0.6799 -0.4428  0.8153
 6171SOL    HW236506   5.945   5.882  11.242 -1.1724  0.4784  0.8278
 6172SOL     OW36507   7.315   0.539   5.651  0.0611  0.0585  0.4751
 6172SOL    HW136508   7.397   0.587   5.654  1.2178 -1.7763 -0.0675
 6172SOL    HW236509   7.327   0.467   5.713 -1.0439 -0.3776  0.2068
 6173SOL     OW36510  11.798   6.308   6.729  0.0054  0.5493  0.4167
 6173SOL    HW136511  11.750   6.339   6.652 -1.9386 -0.8384  1.0028
 6173SOL    HW236512  11.799   6.384   6.788 -0.9321  0.8017  0.1268
 6174SOL     OW36513   9.285   7.973   6.707 -0.4303  0.0074 -0.4280
 6174SOL    HW136514   9.236   7.920   6.645 -0.4041 -1.1673  0.5264
 6174SOL    HW236515   9.283   8.061   6.670 -2.1860 -0.2524 -1.0555
 6175SOL     OW36516  12.912   0.100   4.803 -0.1987  0.1362 -0.3274
 6175SOL    HW136517  12.973   0.147   4.860  0.0612  0.1634 -0.6273
 6175SOL    HW236518  12.905   0.155   4.724 -1.9853  1.0485  0.4052
 6176SOL     OW36519  13.512   8.511   0.169 -0.3517  0.6604  0.3175
 6176SOL    HW136520  13.584   8.535   0.110  0.8414 -2.0856  0.5137
 6176SOL    HW236521  13.448   8.467   0.113  0.1331 -0.6888  0.7832
 6177SOL     OW36522   9.618   0.321   6.277 -0.4216  0.3825  0.5528
 6177SOL    HW136523   9.690   0.381   6.257  1.0668 -1.8913 -1.4658
 6177SOL    HW236524   9.641   0.284   6.362 -0.2958  1.1717  0.8715
 6178SOL     OW36525  12.804  11.914  13.713  0.2390 -0.2973 -0.4436
 6178SOL    HW136526  12.898  11.935  13.710 -0.1327  1.9587  1.0973
 6178SOL    HW236527  12.761  11.994  13.683 -1.2287 -1.1078 -0.5780
 6179SOL     OW36528   4.871  10.711  13.857 -0.5036  0.5043 -0.4939
 6179SOL    HW136529   4.852  10.617  13.856  1.9286 -0.0608 -2.3545
 6179SOL    HW236530   4.804  10.749  13.801 -0.3506 -0.4220 -1.3355
 6180SOL     OW36531   0.043   0.135   9.079  0.1616 -0.0109 -0.5290
 6180SOL    HW136532  -0.020   0.206   9.068 -0.2881 -0.2643  0.3639
 6180SOL    HW236533   0.090   0.157   9.159  0.3861 -0.4377 -0.5442
 6181SOL     OW36534   3.927   1.909   9.601  0.3731 -0.3771  0.3152
 6181SOL    HW136535   3.979   1.830   9.588 -0.6451 -0.8949 -0.7418
 6181SOL    HW236536   3.837   1.883   9.583 -0.0083  0.9947  0.0757
 6182SOL     OW36537   5.124   0.292   9.729  0.2864 -0.0700 -0.2028
 6182SOL    HW136538   5.117   0.322   9.820 -1.4480 -1.2661  0.1014
 6182SOL    HW236539   5.195   0.344   9.692 -2.0809  4.0167  0.4166
 6183SOL     OW36540   9.959   8.799   4.110 -0.0773 -0.2693  0.1335
 6183SOL    HW136541  10.035   8.741   4.103 -0.8591 -1.1745 -1.3684
 6183SOL    HW236542   9.995   8.884   4.135  1.3848 -0.7381 -0.2997
 6184SOL     OW36543  10.234  12.243   2.965 -0.9068  0.9704  0.3554
 6184SOL    HW136544  10.184  12.191   2.902  1.9565  0.6398 -1.8345
 6184SOL    HW236545  10.287  12.178   3.012 -1.0964  1.4729  1.2781
 6185SOL     OW36546   1.383   9.056   2.385  0.3086  0.0005 -0.1447
 6185SOL    HW136547   1.409   8.993   2.317  0.0975 -1.5062  1.1137
 6185SOL    HW236548   1.441   9.131   2.371  0.0360 -0.1050 -2.1855
 6186SOL     OW36549  12.937   9.619   9.102  0.2289  0.3565 -0.0447
 6186SOL    HW136550  12.959   9.673   9.177 -0.3293  0.2037  0.2350
 6186SOL    HW236551  12.852   9.651   9.073  0.5373  0.5584 -0.7495
 6187SOL     OW36552   5.352  13.345  12.979 -0.1294  0.7160 -0.1282
 6187SOL    HW136553   5.332  13.436  13.002 -0.1113  0.6891 -0.0083
 6187SOL    HW236554   5.347  13.297  13.061  1.4620  0.8873  0.1012
 6188SOL     OW36555  13.338   7.584  10.544 -0.0739 -0.1979 -0.5122
 6188SOL    HW136556  13.279   7.643  10.592  0.0311  0.9159 -1.6960
 6188SOL    HW236557  13.365   7.635  10.468 -0.4616 -2.0096 -1.9042
 6189SOL     OW36558   0.880   6.144   9.709  0.2580  0.4520  0.2106
 6189SOL    HW136559   0.825   6.165   9.633  2.1572 -0.2328 -1.4501
 6189SOL    HW236560   0.827   6.086   9.762 -1.1679  1.0246 -0.5419
 6190SOL     OW36561   1.284   7.493   3.450  0.4018  0.7973  0.0305
 6190SOL    HW136562   1.279   7.447   3.534  0.1679 -0.0943 -0.4567
 6190SOL    HW236563   1.346   7.564   3.465  1.5586 -0.2906  0.5222
 6191SOL     OW36564   6.814   9.062   5.286 -0.1791 -0.7413 -0.2160
 6191SOL    HW136565   6.848   9.097   5.368 -2.5532  1.5623 -0.0685
 6191SOL    HW236566   6.721   9.048   5.303 -0.6388 -0.6982 -2.3496
 6192SOL     OW36567   1.249   8.858  14.012  0.3644 -0.6659 -0.4791
 6192SOL    HW136568   1.166   8.890  13.975  0.3533  0.7827  0.6766
 6192SOL    HW236569   1.238   8.763  14.017 -1.7195 -0.4339  0.7038
 6193SOL     OW36570   6.295  13.868   6.965  0.3136  0.2743 -0.2927
 6193SOL    HW136571   6.275  13.847   7.056  0.3680 -2.3223 -0.8015
 6193SOL    HW236572   6.352  13.796   6.936  0.7564  1.3393 -2.2222
 6194SOL     OW36573   3.496   9.756   8.974 -0.2918  0.5542  0.4080
 6194SOL    HW136574   3.512   9.850   8.979  2.3155  0.1649  0.8319
 6194SOL    HW236575   3.480   9.729   9.065 -0.2740  0.4734  0.3879
 6195SOL     OW36576  12.605   1.833  12.676  0.1567 -0.0881 -0.1373
 6195SOL    HW136577  12.599   1.744  12.642 -0.7891  0.1382 -0.5784
 6195SOL    HW236578  12.554   1.832  12.757  1.6917 -0.4049  0.8789
 6196SOL     OW36579   0.515  10.271  13.593 -0.1605 -0.2368 -0.2929
 6196SOL    HW136580   0.533  10.332  13.522  0.7144 -2.0336 -1.7023
 6196SOL    HW236581   0.567  10.303  13.667 -0.1688  1.0097 -0.8108
 6197SOL     OW36582   4.275  10.064   6.872  0.1905 -0.8061  0.0475
 6197SOL    HW136583   4.235   9.984   6.838 -1.9381  0.4784 -0.6286
 6197SOL    HW236584   4.336  10.092   6.804  0.4315 -1.4506 -0.0101
 6198SOL     OW36585  12.013   9.157   3.990  0.2507 -0.6904  0.2039
 6198SOL    HW136586  11.936   9.189   4.037  0.3524 -2.7128  1.8661
 6198SOL    HW236587  12.066   9.236   3.975  0.1070  0.1272  3.3371
 6199SOL     OW36588   8.414  13.790  11.154  0.3486 -0.5063 -0.2143
 6199SOL    HW136589   8.366  13.742  11.087  0.6714 -0.8786 -0.1836
 6199SOL    HW236590   8.350  13.851  11.191  0.3420  0.1695 -1.3134
 6200SOL     OW36591   9.556   9.363   7.057  0.1962 -0.2037  0.5575
 6200SOL    HW136592   9.632   9.307   7.073 -0.2150 -0.7483  0.6031
 6200SOL    HW236593   9.568   9.394   6.967  0.5697 -0.1355  0.6296
 6201SOL     OW36594   5.016  13.452   9.606 -0.0315  0.2338 -0.0021
 6201SOL    HW136595   5.068  13.374   9.627  1.6828  1.5517  0.8239
 6201SOL    HW236596   4.993  13.441   9.513  0.0343 -1.3101  0.1427
 6202SOL     OW36597  12.611   7.707   2.864  0.1692  0.1501  0.3726
 6202SOL    HW136598  12.665   7.634   2.893  0.3156 -0.3434 -1.0298
 6202SOL    HW236599  12.572   7.676   2.781 -1.9080  0.6582  1.1007
 6203SOL     OW36600   2.091  10.916   6.932  0.1165 -0.3035 -0.4437
 6203SOL    HW136601   2.123  10.842   6.983 -0.0758 -0.9955 -1.3020
 6203SOL    HW236602   2.163  10.936   6.872  0.1879  0.2434 -0.1807
 6204SOL     OW36603   8.924   5.616   6.315  0.0340 -0.6258  0.2328
 6204SOL    HW136604   8.894   5.675   6.246 -1.9719 -2.1280 -0.2576
 6204SOL    HW236605   8.996   5.567   6.275  0.1970 -0.1193 -0.1079
 6205SOL     OW36606   0.452   1.338  14.042  0.0962  0.0734  0.8677
 6205SOL    HW136607   0.453   1.257  14.092  1.2639  0.1867  1.0672
 6205SOL    HW236608   0.529   1.386  14.073 -0.2955  1.0364  0.3984
 6206SOL     OW36609  11.018   3.584   7.774 -0.3641  0.2339  0.7126
 6206SOL    HW136610  11.056   3.507   7.818  2.0107 -0.1003 -1.6725
 6206SOL    HW236611  10.953   3.548   7.715 -1.5359  0.4300  1.8289
 6207SOL     OW36612   2.897  12.249   7.683  0.3871 -0.3456 -0.7688
 6207SOL    HW136613   2.968  12.243   7.619  0.8524  0.0143 -0.2943
 6207SOL    HW236614   2.854  12.332   7.664  0.9625  0.0981 -0.1801
 6208SOL     OW36615   7.909   0.914   5.670  0.5086 -0.6379 -0.4636
 6208SOL    HW136616   7.991   0.937   5.626  0.8863 -0.6921  0.1963
 6208SOL    HW236617   7.906   0.970   5.747 -0.2626 -0.3764 -0.6682
 6209SOL     OW36618  10.679   2.973   1.065  0.3064 -0.6358  0.0507
 6209SOL    HW136619  10.645   2.909   1.128  0.8583 -1.2350 -0.2374
 6209SOL    HW236620  10.721   3.040   1.119 -0.1546 -0.5898  0.3548
 6210SOL     OW36621  11.340   2.811   9.559  0.8437 -0.7977 -0.5861
 6210SOL    HW136622  11.324   2.793   9.467 -2.6086 -0.2455 -0.2324
 6210SOL    HW236623  11.257   2.793   9.602  0.2764  4.6909  1.4410
 6211SOL     OW36624  13.530   2.473   3.740  0.3801  0.3749 -0.0542
 6211SOL    HW136625  13.555   2.542   3.802  0.5551  0.1560  0.1207
 6211SOL    HW236626  13.528   2.518   3.655  0.9210  0.5039 -0.0049
 6212SOL     OW36627   7.729   5.238   0.517  0.5420  0.2212  0.1142
 6212SOL    HW136628   7.748   5.248   0.610 -0.1811  1.5280  0.1477
 6212SOL    HW236629   7.806   5.194   0.481  0.7684 -0.4254  1.3427
 6213SOL     OW36630   0.707   1.303  10.298  0.0983 -0.4311  0.0959
 6213SOL    HW136631   0.734   1.270  10.212 -0.9268 -3.2299  0.7482
 6213SOL    HW236632   0.789   1.317  10.345  0.6951  1.5333 -1.3954
 6214SOL     OW36633   5.626   2.413   4.822 -0.2612  0.4681  0.0819
 6214SOL    HW136634   5.582   2.348   4.768  0.6895 -0.1462  0.0310
 6214SOL    HW236635   5.557   2.475   4.846 -1.1713 -0.5214  0.0846
 6215SOL     OW36636   1.791  14.115   8.985  0.2513 -0.3435  0.0955
 6215SOL    HW136637   1.720  14.146   8.929  0.4517 -0.3301 -0.1568
 6215SOL    HW236638   1.835  14.195   9.015  1.9391 -0.3474 -2.0708
 6216SOL     OW36639  10.322   9.602   2.643 -0.3171  0.4498  0.4928
 6216SOL    HW136640  10.271   9.646   2.710 -0.1251  1.3609  0.0577
 6216SOL    HW236641  10.409   9.643   2.648  0.0666 -0.3555  0.5372
 6217SOL     OW36642   5.386  11.846  10.061 -0.5269  0.1116 -0.2477
 6217SOL    HW136643   5.439  11.846  10.141  0.1604  0.7553 -0.6979
 6217SOL    HW236644   5.297  11.826  10.092 -0.0815 -0.7177  0.5435
 6218SOL     OW36645  13.936  10.592   4.276  0.6075 -0.2500 -0.1080
 6218SOL    HW136646  13.973  10.564   4.360  0.4423 -1.9139 -0.5555
 6218SOL    HW236647  13.842  10.597   4.291  0.4850 -1.4354 -0.4134
 6219SOL     OW36648   9.757   8.827   9.975 -0.2743 -0.1037  0.2496
 6219SOL    HW136649   9.726   8.917   9.981  1.6610  0.7391 -1.3846
 6219SOL    HW236650   9.795   8.809  10.061  0.6860  1.1815  0.1134
 6220SOL     OW36651   7.744   6.753   7.804  0.1726  0.1553  0.1372
 6220SOL    HW136652   7.808   6.823   7.817 -0.6577  0.8223  0.7653
 6220SOL    HW236653   7.691   6.783   7.731  0.2090 -0.1201 -0.0012
 6221SOL     OW36654   0.717   7.756   5.968 -0.3734  0.5551  0.4911
 6221SOL    HW136655   0.735   7.722   6.055  0.1571  0.2125  0.2560
 6221SOL    HW236656   0.793   7.729   5.916 -1.2490 -0.3469 -0.3717
 6222SOL     OW36657   1.785  13.063   9.750  0.1514 -0.4963 -0.9219
 6222SOL    HW136658   1.833  13.122   9.692 -0.3942  2.2209  1.1244
 6222SOL    HW236659   1.692  13.082   9.733 -0.0232  0.7225  1.0195
 6223SOL     OW36660  10.006   4.174   5.172  0.1008  0.1684 -0.1663
 6223SOL    HW136661  10.013   4.242   5.238 -0.7349 -0.6039  0.7458
 6223SOL    HW236662  10.090   4.177   5.125  0.8203  0.5451  1.1200
 6224SOL     OW36663  12.795  11.940   3.575 -0.1399 -0.3441  0.3816
 6224SOL    HW136664  12.725  11.934   3.510 -0.1928 -0.6187  0.4622
 6224SOL    HW236665  12.871  11.902   3.531  0.1782  0.6920  0.0016
 6225SOL     OW36666  10.404  13.173   7.820 -1.1671  0.1088  0.7969
 6225SOL    HW136667  10.394  13.248   7.877  0.6309  1.5633 -0.6577
 6225SOL    HW236668  10.426  13.210   7.734  1.4215 -2.0505  0.3845
 6226SOL     OW36669   0.654   4.207   9.306 -0.6289 -0.2002  0.3359
 6226SOL    HW136670   0.651   4.207   9.210 -0.2691  0.0341  0.3215
 6226SOL    HW236671   0.747   4.208   9.327 -0.7037  0.4209  0.6817
 6227SOL     OW36672   9.561   6.172   3.631  0.0692 -0.1348 -0.2910
 6227SOL    HW136673   9.631   6.155   3.569 -0.3207 -0.6630 -0.5940
 6227SOL    HW236674   9.510   6.090   3.633 -0.7202  0.3443 -0.3205
 6228SOL     OW36675   9.046  13.771   7.630  0.2676 -0.0581 -0.0918
 6228SOL    HW136676   9.029  13.678   7.638  1.6363 -0.3507 -0.3968
 6228SOL    HW236677   8.973  13.804   7.577 -0.4759 -0.8588  0.4109
 6229SOL     OW36678   8.664  10.911   0.108  0.0793  0.3887  0.2813
 6229SOL    HW136679   8.571  10.915   0.132  0.4944  0.5892  1.9407
 6229SOL    HW236680   8.664  10.915   0.012 -1.5163  2.4214  0.2980
 6230SOL     OW36681   9.572   1.892   8.318  0.6400  0.0216 -0.5789
 6230SOL    HW136682   9.519   1.890   8.398  0.0621  0.1703 -0.9534
 6230SOL    HW236683   9.652   1.939   8.343  0.4169  0.1602 -0.1159
 6231SOL     OW36684   1.984  11.954   5.544 -0.4344  0.2413 -0.4771
 6231SOL    HW136685   2.024  11.969   5.459  1.0508 -0.7224  0.0231
 6231SOL    HW236686   1.968  12.042   5.579  1.1909  0.6604 -0.7365
 6232SOL     OW36687  11.181  10.855   9.486  0.0218 -0.3090 -0.6558
 6232SOL    HW136688  11.098  10.897   9.462  0.1335 -0.2280 -0.8988
 6232SOL    HW236689  11.157  10.791   9.553 -0.1521  0.1560 -0.2590
 6233SOL     OW36690  12.953  12.422   9.730 -0.3296  0.2101  0.3484
 6233SOL    HW136691  12.884  12.410   9.665 -0.2053  0.3610  0.1880
 6233SOL    HW236692  13.032  12.392   9.686 -0.8226 -3.7433  1.8157
 6234SOL     OW36693   4.954  11.017  12.087  0.2628  0.2990 -0.1239
 6234SOL    HW136694   4.886  11.030  12.021 -0.4930  0.5784  0.6983
 6234SOL    HW236695   4.909  10.972  12.159  1.3427 -1.0919 -0.2639
 6235SOL     OW36696   4.664   1.533  10.636 -0.3642  0.1984 -0.0000
 6235SOL    HW136697   4.744   1.490  10.668 -0.3338 -0.6371 -1.1411
 6235SOL    HW236698   4.682   1.627  10.647  0.1822 -0.0204  1.1176
 6236SOL     OW36699   2.544   3.551   8.647  0.1879 -0.0257 -0.3041
 6236SOL    HW136700   2.522   3.479   8.706  2.8462 -0.6730  0.0157
 6236SOL    HW236701   2.554   3.627   8.705  2.7004 -0.6395  0.2067
 6237SOL     OW36702  10.801  12.212   8.432 -0.2254  0.7196 -0.4042
 6237SOL    HW136703  10.838  12.129   8.400  0.0859  0.4406  0.6251
 6237SOL    HW236704  10.809  12.272   8.359  0.7556  0.1930 -0.7435
 6238SOL     OW36705   1.130   7.602   6.587  0.5168 -0.5781  0.1305
 6238SOL    HW136706   1.080   7.552   6.651  0.4128  0.9753  1.3299
 6238SOL    HW236707   1.067   7.626   6.520 -0.0611  0.1670  0.9132
 6239SOL     OW36708  11.350   2.723   2.950  0.1348 -0.2992 -0.9254
 6239SOL    HW136709  11.384   2.637   2.975 -0.3210 -0.1951  0.0848
 6239SOL    HW236710  11.427   2.780   2.954 -0.0369 -0.1433  0.9727
 6240SOL     OW36711   8.623   6.104   7.984  0.2445  0.4271  0.3847
 6240SOL    HW136712   8.612   6.031   7.923  0.1243  0.1984  0.6761
 6240SOL    HW236713   8.689   6.160   7.943  0.7922 -0.1631  0.4461
 6241SOL     OW36714   5.577  10.570  10.106  0.1716 -0.5561  0.9612
 6241SOL    HW136715   5.573  10.604  10.196 -1.3389 -2.1090  1.5524
 6241SOL    HW236716   5.584  10.647  10.051  2.7045  0.3914  2.4575
 6242SOL     OW36717  13.428   7.224   4.968  0.4096  0.1125 -0.1593
 6242SOL    HW136718  13.417   7.148   5.025  0.0110 -0.2738 -0.7480
 6242SOL    HW236719  13.493   7.197   4.904  1.1763  0.6931  0.3506
 6243SOL     OW36720   1.653   6.025  13.921 -0.1429  0.0787  0.6360
 6243SOL    HW136721   1.699   6.056  13.844 -0.1986 -1.2086  0.0455
 6243SOL    HW236722   1.622   5.937  13.897 -0.4033 -0.2451  2.0203
 6244SOL     OW36723  10.607   2.357   5.479  0.2589  0.1482 -0.1339
 6244SOL    HW136724  10.682   2.398   5.521  0.9710  1.7094 -2.7015
 6244SOL    HW236725  10.590   2.279   5.531  3.3913 -0.0538  0.7770
 6245SOL     OW36726   5.241   6.932  12.263  0.9629  0.2215  0.0493
 6245SOL    HW136727   5.196   6.990  12.201  0.2211  0.5652  0.8832
 6245SOL    HW236728   5.226   6.844  12.229  2.5746  0.5193 -1.5390
 6246SOL     OW36729   9.172   0.525   2.703 -0.1474 -0.7168 -0.0504
 6246SOL    HW136730   9.203   0.526   2.612 -0.2193 -0.8190 -0.0762
 6246SOL    HW236731   9.079   0.547   2.696 -0.1794 -0.8374 -0.0118
 6247SOL     OW36732   5.403  14.123  14.023 -0.8093  0.4406 -0.9940
 6247SOL    HW136733   5.380  14.130  13.931 -2.0786  1.5478 -0.6342
 6247SOL    HW236734   5.333  14.069  14.061  0.9567 -2.0645 -1.0454
 6248SOL     OW36735  13.056   4.278   6.385 -0.6214  0.3408 -0.3690
 6248SOL    HW136736  13.033   4.296   6.293  0.0641  0.4950 -0.5205
 6248SOL    HW236737  13.095   4.360   6.416 -1.4624  0.5120  0.2744
 6249SOL     OW36738   5.479  12.883  10.676 -0.6866 -0.3064 -0.0159
 6249SOL    HW136739   5.499  12.869  10.769 -0.9360  0.1912  0.1146
 6249SOL    HW236740   5.384  12.877  10.671 -0.9825  2.5475  0.2858
 6250SOL     OW36741   0.393  11.275   2.638  0.2120  0.3382  0.3993
 6250SOL    HW136742   0.348  11.347   2.593  0.2646 -0.4846 -1.0498
 6250SOL    HW236743   0.322  11.224   2.677 -0.1703 -0.7119 -1.5113
 6251SOL     OW36744  10.008   1.015   2.939 -0.0965  0.0990  0.4140
 6251SOL    HW136745   9.980   1.009   2.848  0.3079 -1.2068  0.3584
 6251SOL    HW236746   9.939   1.064   2.983 -0.1023  1.0851 -0.6664
 6252SOL     OW36747   2.176   3.991  11.943 -0.2161  0.2480 -0.4803
 6252SOL    HW136748   2.172   3.957  11.854  2.9297  0.8409 -0.9418
 6252SOL    HW236749   2.190   3.913  11.998  0.5346  0.1358 -0.8222
 6253SOL     OW36750   8.602  12.080   1.274  0.0351  0.0954 -0.1782
 6253SOL    HW136751   8.526  12.134   1.251 -1.1177 -1.1081  0.7313
 6253SOL    HW236752   8.639  12.123   1.351 -0.6455 -0.1722  0.3060
 6254SOL     OW36753  11.025   0.639   6.794 -0.1638 -0.3449  0.3044
 6254SOL    HW136754  11.116   0.639   6.767 -0.5608 -1.5762 -1.2478
 6254SOL    HW236755  10.998   0.547   6.787 -1.8290  0.1508 -0.5299
 6255SOL     OW36756   0.049   8.988   8.176  0.2500 -0.0951  0.4303
 6255SOL    HW136757   0.066   9.020   8.087 -0.3369 -1.7653 -0.3168
 6255SOL    HW236758   0.105   8.911   8.185 -1.3757 -1.2989  0.6404
 6256SOL     OW36759   9.213  10.748  11.376 -0.9271  0.0288 -0.6650
 6256SOL    HW136760   9.118  10.745  11.365 -0.9485  1.0867 -0.9495
 6256SOL    HW236761   9.231  10.839  11.402  0.1548  0.3573 -2.3561
 6257SOL     OW36762   7.714   2.947  11.594 -0.2297 -0.0906  0.5686
 6257SOL    HW136763   7.777   2.981  11.658 -0.7028  0.3203  0.8286
 6257SOL    HW236764   7.757   2.870  11.556  0.7539  0.6333  0.1652
 6258SOL     OW36765   3.802   5.568  10.672 -0.6430  0.2363 -0.1038
 6258SOL    HW136766   3.822   5.628  10.744  0.0202 -2.1566  1.8076
 6258SOL    HW236767   3.707   5.557  10.675 -0.5847 -0.1030  0.6383
 6259SOL     OW36768   0.918   3.283   4.387  0.2187 -0.0703  0.1789
 6259SOL    HW136769   0.888   3.194   4.366  0.5055  0.1671 -1.4227
 6259SOL    HW236770   1.010   3.272   4.411  0.4086 -0.1565 -0.5669
 6260SOL     OW36771   7.533   4.397  10.788  0.3606  0.2122 -0.0122
 6260SOL    HW136772   7.512   4.304  10.780  1.2579 -0.0435  0.3635
 6260SOL    HW236773   7.564   4.422  10.701 -0.1872  0.2450 -0.1998
 6261SOL     OW36774  11.484  13.034   4.092 -0.3142 -0.1751  0.0177
 6261SOL    HW136775  11.463  13.023   3.999  1.8439 -0.0446 -0.5368
 6261SOL    HW236776  11.543  12.962   4.112  0.1489  0.4518  0.9866
 6262SOL     OW36777  13.089  10.511  13.194  0.1292 -0.6698  0.2809
 6262SOL    HW136778  13.020  10.532  13.257 -0.0353  0.1081 -0.1417
 6262SOL    HW236779  13.168  10.504  13.247  0.1468  0.8003  0.5097
 6263SOL     OW36780   8.102  12.294   8.928  0.2538 -0.3096  0.5230
 6263SOL    HW136781   8.056  12.378   8.924  3.0240  1.2678 -1.1922
 6263SOL    HW236782   8.079  12.250   8.846 -0.6035 -0.9516  1.0865
 6264SOL     OW36783   8.784   9.455  12.179  0.0540  0.5894  0.1285
 6264SOL    HW136784   8.807   9.544  12.148 -0.8978  1.1175  0.9072
 6264SOL    HW236785   8.869   9.412  12.190  0.6056  1.8264  0.9707
 6265SOL     OW36786  12.653  10.469   1.274 -0.3513 -0.1900  0.7209
 6265SOL    HW136787  12.734  10.486   1.324  0.6208  0.8618 -1.1210
 6265SOL    HW236788  12.683  10.450   1.186 -2.0455 -1.9742  0.4677
 6266SOL     OW36789  13.231  10.310  11.590  0.1669  0.1217  0.1564
 6266SOL    HW136790  13.165  10.298  11.659 -1.7387  0.6216 -1.5070
 6266SOL    HW236791  13.277  10.226  11.587 -1.3579 -0.7574  0.3994
 6267SOL     OW36792   7.914   1.860  14.066 -0.4432  0.0931  0.3810
 6267SOL    HW136793   7.833   1.902  14.095 -0.2994 -0.6688  1.9513
 6267SOL    HW236794   7.895   1.831  13.977 -1.2873  1.4741  0.0873
 6268SOL     OW36795   2.973   3.370   6.466  0.1236  0.0176 -0.2471
 6268SOL    HW136796   2.917   3.307   6.511  0.0745 -0.2366 -0.6636
 6268SOL    HW236797   2.913   3.424   6.415  0.2874 -0.5335 -1.0362
 6269SOL     OW36798   0.687   0.089  12.155 -0.1169  0.6299 -0.4745
 6269SOL    HW136799   0.612   0.103  12.099 -0.6733 -0.2763  0.0250
 6269SOL    HW236800   0.650   0.077  12.243  0.6724  1.1723 -0.0492
 6270SOL     OW36801   4.151  14.046   4.739 -0.0662  0.4031 -0.7249
 6270SOL    HW136802   4.160  13.957   4.704  1.3517 -0.3555  1.3684
 6270SOL    HW236803   4.208  14.100   4.684  1.8574 -0.6888  0.1030
 6271SOL     OW36804  13.718   5.448   5.894  0.1038  0.2065 -0.2921
 6271SOL    HW136805  13.735   5.354   5.900 -1.2121  0.0026  0.4757
 6271SOL    HW236806  13.623   5.455   5.884  0.2880  1.4190 -1.4287
 6272SOL     OW36807   1.873   9.821   4.118 -0.0415 -0.4771  0.0812
 6272SOL    HW136808   1.794   9.787   4.077 -0.2375 -0.1347  0.1632
 6272SOL    HW236809   1.841   9.871   4.193  0.0756  1.3469 -1.0020
 6273SOL     OW36810   8.462   4.801   8.254 -0.3334  0.4858 -0.4652
 6273SOL    HW136811   8.473   4.786   8.348 -0.9322 -1.1596 -0.6245
 6273SOL    HW236812   8.377   4.761   8.233 -1.0692  2.4215 -1.3970
 6274SOL     OW36813  11.634   4.896   7.576  0.2657 -0.0653 -0.1862
 6274SOL    HW136814  11.585   4.942   7.645  0.8367  1.1372 -0.5580
 6274SOL    HW236815  11.715   4.869   7.619  0.0005 -0.6100 -0.0120
 6275SOL     OW36816   5.211  11.638   4.102 -0.1425  0.3019 -0.0864
 6275SOL    HW136817   5.134  11.626   4.046  1.4264 -1.8279 -1.9839
 6275SOL    HW236818   5.285  11.628   4.043  1.6219  0.2857  2.0072
 6276SOL     OW36819   4.923  11.297   7.120 -0.1768  0.4183  0.7576
 6276SOL    HW136820   4.861  11.303   7.193  0.2987 -0.2134  1.2287
 6276SOL    HW236821   5.003  11.337   7.154 -1.1624  4.2467 -0.8962
 6277SOL     OW36822  13.873   6.997   6.121  0.1307 -0.2771  0.9403
 6277SOL    HW136823  13.792   6.950   6.104  0.2775 -0.7589  1.5159
 6277SOL    HW236824  13.933   6.966   6.052 -0.3007  0.4301  0.2343
 6278SOL     OW36825   4.137  13.138   2.979 -0.3175 -0.5410  0.3137
 6278SOL    HW136826   4.108  13.082   2.907 -0.5470  1.3743 -1.1658
 6278SOL    HW236827   4.179  13.212   2.936  1.6733 -0.4464  2.2551
 6279SOL     OW36828   8.687   8.456  13.753  0.2090 -0.4167  0.1406
 6279SOL    HW136829   8.628   8.414  13.691 -0.2853  0.6850 -0.1637
 6279SOL    HW236830   8.702   8.543  13.716  0.5058 -0.0111  1.1860
 6280SOL     OW36831  10.658  13.543  13.720  0.0722 -0.0680 -0.1610
 6280SOL    HW136832  10.708  13.621  13.696  1.1711 -0.8495 -0.4843
 6280SOL    HW236833  10.568  13.563  13.694  0.6722  0.3680 -2.0392
 6281SOL     OW36834  10.358  13.739   2.030 -0.8015  0.8744 -0.0030
 6281SOL    HW136835  10.426  13.793   1.990  0.0824  0.4846  0.9208
 6281SOL    HW236836  10.327  13.792   2.104 -1.2837  0.9173 -0.2344
 6282SOL     OW36837   4.393   9.870   3.440 -0.0237 -0.5293 -0.3440
 6282SOL    HW136838   4.411   9.778   3.421 -0.4829 -1.0675  1.5530
 6282SOL    HW236839   4.299   9.873   3.457  0.0668  0.1992  0.0800
 6283SOL     OW36840   2.219   7.304   5.554 -0.1289  0.5805  0.5677
 6283SOL    HW136841   2.124   7.311   5.560 -0.0728  0.8853  1.2159
 6283SOL    HW236842   2.251   7.351   5.631  0.5303 -0.0380  0.6812
 6284SOL     OW36843  10.865   8.016   8.741  0.2973 -0.4443 -0.1470
 6284SOL    HW136844  10.862   8.000   8.835  1.3480  0.6776  0.1096
 6284SOL    HW236845  10.917   7.944   8.705  1.3549  0.0414  0.3802
 6285SOL     OW36846   6.791   9.743   7.700  0.0059 -0.0108  0.0844
 6285SOL    HW136847   6.778   9.824   7.651 -2.9318 -1.1969 -1.2857
 6285SOL    HW236848   6.806   9.676   7.633 -0.2438 -1.0393  1.0269
 6286SOL     OW36849   5.798  12.002   2.355  0.6790  0.0466  0.5240
 6286SOL    HW136850   5.850  12.007   2.436 -0.5919 -0.4175  1.4104
 6286SOL    HW236851   5.708  12.015   2.384  0.2683  0.6874 -0.9552
 6287SOL     OW36852   3.555  13.999  11.738  0.0914 -0.7281  0.0257
 6287SOL    HW136853   3.467  13.965  11.723 -0.1502 -0.5090  0.8619
 6287SOL    HW236854   3.612  13.922  11.731 -0.2753 -1.0376  0.3789
 6288SOL     OW36855   6.650  11.800   7.057  0.3418  0.0301  0.7620
 6288SOL    HW136856   6.576  11.754   7.096 -0.5958  0.1984 -0.7501
 6288SOL    HW236857   6.613  11.879   7.019  1.0286 -0.4754 -1.1160
 6289SOL     OW36858   3.972  13.134   3.439 -0.8234  0.2173 -0.4144
 6289SOL    HW136859   3.905  13.119   3.505 -0.8672 -1.7341 -0.8485
 6289SOL    HW236860   3.928  13.118   3.356  0.1678 -1.1964 -0.7008
 6290SOL     OW36861   9.905   2.313   2.408 -0.0271  0.0088 -0.0019
 6290SOL    HW136862   9.962   2.387   2.428 -0.2458  0.0493  0.4864
 6290SOL    HW236863   9.966   2.243   2.384  0.3213 -0.2814  1.6003
 6291SOL     OW36864   7.520   9.585   2.329 -0.0429  0.4403 -0.5407
 6291SOL    HW136865   7.526   9.564   2.422  0.6826 -2.6244 -1.1892
 6291SOL    HW236866   7.610   9.574   2.296 -0.4498  0.6606 -1.7676
 6292SOL     OW36867   3.709   6.885   6.007 -0.2179 -0.2122 -0.3075
 6292SOL    HW136868   3.791   6.919   6.043 -0.7250  1.6454 -0.7955
 6292SOL    HW236869   3.684   6.814   6.066  2.7485 -2.2533 -1.2908
 6293SOL     OW36870  11.253  11.359   5.713  0.1725  0.0132 -0.0881
 6293SOL    HW136871  11.344  11.353   5.686 -0.2824  1.3194 -2.0799
 6293SOL    HW236872  11.221  11.440   5.675 -2.4022 -1.4178 -1.3046
 6294SOL     OW36873  12.928  13.691   6.894 -0.0986 -0.4603  0.4289
 6294SOL    HW136874  13.014  13.696   6.937  1.0497 -0.1653 -1.7542
 6294SOL    HW236875  12.935  13.614   6.837 -1.5079 -0.7454  0.5990
 6295SOL     OW36876  11.278   6.835  11.569 -0.0847 -0.0729  0.7918
 6295SOL    HW136877  11.262   6.768  11.636 -1.7987  1.3789  1.9272
 6295SOL    HW236878  11.204   6.826  11.509  0.5737 -0.2627 -0.0115
 6296SOL     OW36879   1.531   0.763   4.920  0.1598  0.0900 -0.1623
 6296SOL    HW136880   1.475   0.728   4.851 -0.1230  0.3869 -0.0844
 6296SOL    HW236881   1.474   0.769   4.997  0.9820 -2.3079  0.7397
 6297SOL     OW36882   5.147   1.649  14.103 -0.0076 -0.3851  0.2898
 6297SOL    HW136883   5.212   1.694  14.158  0.1727 -0.9206  0.5142
 6297SOL    HW236884   5.173   1.672  14.014  0.6162 -0.7511  0.3656
 6298SOL     OW36885  11.425   1.799   0.348  0.2026 -0.7689 -0.6355
 6298SOL    HW136886  11.385   1.856   0.414  0.6076 -0.8830 -0.2849
 6298SOL    HW236887  11.388   1.828   0.265 -0.6828 -0.9372 -0.3055
 6299SOL     OW36888   5.023   8.521   5.320 -0.2861  0.5729  0.3777
 6299SOL    HW136889   5.082   8.451   5.292  0.4298  1.3585 -0.1181
 6299SOL    HW236890   4.943   8.506   5.269 -0.3511 -0.2116  0.6950
 6300SOL     OW36891  12.858   4.746  11.634 -0.0319 -0.0354 -0.3697
 6300SOL    HW136892  12.888   4.827  11.594 -1.6393  0.9737  0.3826
 6300SOL    HW236893  12.873   4.759  11.728  0.1194 -0.8090 -0.2797
 6301SOL     OW36894  10.170   1.217   7.276 -0.6297  0.1373  0.0095
 6301SOL    HW136895  10.118   1.229   7.356  1.7327 -0.9392  1.8700
 6301SOL    HW236896  10.184   1.305   7.242 -1.7634  0.6123  0.7117
 6302SOL     OW36897   9.149   8.182   5.641  0.2805 -0.2192 -0.1382
 6302SOL    HW136898   9.115   8.228   5.717  2.5537 -0.5742  1.2005
 6302SOL    HW236899   9.195   8.106   5.677  1.6775 -0.2456 -1.8201
 6303SOL     OW36900   0.496   6.788   4.130  0.0559  0.9711 -0.3384
 6303SOL    HW136901   0.423   6.811   4.188 -0.5866 -0.7385 -0.4257
 6303SOL    HW236902   0.462   6.718   4.075  2.2749 -1.2080  0.8480
 6304SOL     OW36903   0.349  13.874  10.803 -0.3599  0.4123 -0.0518
 6304SOL    HW136904   0.301  13.887  10.884  1.7253 -0.0941  1.3371
 6304SOL    HW236905   0.370  13.963  10.773  1.5749  0.6309  1.7312
 6305SOL     OW36906  12.899   2.703  10.542 -0.2658  0.8141  0.2331
 6305SOL    HW136907  12.897   2.672  10.632 -0.7086 -1.9050 -0.6077
 6305SOL    HW236908  12.842   2.642  10.495  2.6797 -0.1279 -2.5053
 6306SOL     OW36909   5.184   3.090   3.839  0.4893  0.2836 -0.2028
 6306SOL    HW136910   5.250   3.146   3.879 -0.2356  0.9025  0.1506
 6306SOL    HW236911   5.140   3.049   3.913  0.5433 -0.2132 -0.4414
 6307SOL     OW36912   6.759   8.978   1.704 -0.8414  0.0788  0.0531
 6307SOL    HW136913   6.846   8.941   1.722 -0.7377  0.6341  0.7559
 6307SOL    HW236914   6.769   9.071   1.725 -0.5904  0.9368 -3.3303
 6308SOL     OW36915   0.307  13.635  10.048 -0.3988  0.0948 -0.6082
 6308SOL    HW136916   0.386  13.638   9.993  0.5342 -4.7540 -0.0185
 6308SOL    HW236917   0.334  13.676  10.130  0.3772  1.4433 -1.5032
 6309SOL     OW36918  10.295   7.927   1.982  0.5711 -0.4057 -0.4164
 6309SOL    HW136919  10.306   7.892   2.070 -0.0259  1.1467  0.3066
 6309SOL    HW236920  10.374   7.899   1.935  1.6461  0.0285  1.0529
 6310SOL     OW36921  10.999   7.880   9.061  0.7694 -0.1328  0.3523
 6310SOL    HW136922  11.042   7.963   9.042  0.7878 -0.5710 -1.6871
 6310SOL    HW236923  11.026   7.822   8.991  0.1439 -1.6622  1.3217
 6311SOL     OW36924   7.614   3.672  11.157 -0.2624  0.1444  0.0416
 6311SOL    HW136925   7.693   3.703  11.201  0.3789 -0.3278 -0.7247
 6311SOL    HW236926   7.602   3.582  11.189 -0.4785  0.2118  0.1492
 6312SOL     OW36927  11.538   7.136   8.948  0.1969 -0.4796  0.5112
 6312SOL    HW136928  11.498   7.088   9.020  1.6107  0.9464  2.3653
 6312SOL    HW236929  11.485   7.216   8.940  0.1627 -0.5414  0.0937
 6313SOL     OW36930   5.247  12.621   9.700  1.1004 -0.4236 -0.3731
 6313SOL    HW136931   5.306  12.601   9.773  1.6408  0.0344 -0.6738
 6313SOL    HW236932   5.209  12.536   9.676  1.8656 -0.7746 -0.3698
 6314SOL     OW36933   9.563   2.049   1.480  0.3614 -0.2308  0.1397
 6314SOL    HW136934   9.587   1.973   1.426  1.0208  0.5510 -0.6931
 6314SOL    HW236935   9.600   2.124   1.433  0.2803  0.5436  1.2926
 6315SOL     OW36936  10.987  10.954   5.838 -0.0414  0.0850  0.0038
 6315SOL    HW136937  10.903  10.908   5.830  0.0221  0.0798 -0.7223
 6315SOL    HW236938  11.000  10.995   5.753 -0.0856  1.4498  0.6299
 6316SOL     OW36939   3.527   2.231   3.816 -0.3359 -0.2085  0.1497
 6316SOL    HW136940   3.602   2.239   3.757 -1.0909  1.9063 -0.6005
 6316SOL    HW236941   3.458   2.192   3.763 -0.7936  1.0326 -0.2047
 6317SOL     OW36942   5.348   8.783  10.750 -0.3395  0.3721 -0.0108
 6317SOL    HW136943   5.377   8.722  10.682  0.5837  0.9243 -0.1267
 6317SOL    HW236944   5.359   8.733  10.832 -0.0977  0.1944 -0.1484
 6318SOL     OW36945   8.360   8.927   6.774 -0.2214 -0.7454  0.4464
 6318SOL    HW136946   8.390   8.920   6.683 -0.9064  1.0810  0.0397
 6318SOL    HW236947   8.389   9.013   6.803 -0.9262 -0.8766  1.6062
 6319SOL     OW36948   2.535  10.737  13.418  0.0971  0.4494  0.5566
 6319SOL    HW136949   2.589  10.675  13.467 -0.7192 -1.6567 -1.0240
 6319SOL    HW236950   2.598  10.791  13.370  0.8535 -0.4830  0.4661
 6320SOL     OW36951   0.570  10.931   1.724 -0.6955  0.5850  0.3993
 6320SOL    HW136952   0.619  10.882   1.790 -0.7569  0.8902  0.6735
 6320SOL    HW236953   0.553  10.867   1.655 -0.6436  0.2577  0.6839
 6321SOL     OW36954   4.326   2.113   2.583 -0.1862 -0.0718 -0.0494
 6321SOL    HW136955   4.313   2.038   2.641 -0.6228  0.5619  0.7034
 6321SOL    HW236956   4.420   2.130   2.585 -0.1645 -0.2311  0.2496
 6322SOL     OW36957   0.190   5.621   8.630 -0.0617  0.0517  0.3985
 6322SOL    HW136958   0.113   5.588   8.583 -0.2130  0.4597  0.3594
 6322SOL    HW236959   0.217   5.548   8.686 -1.4822  0.4397  1.6597
 6323SOL     OW36960   4.807  10.166   9.476 -0.1388 -0.0279 -0.3072
 6323SOL    HW136961   4.831  10.144   9.386  0.8627  0.7035 -0.2467
 6323SOL    HW236962   4.733  10.110   9.496 -0.4255 -0.1493 -1.6197
 6324SOL     OW36963   4.695   8.335   7.182 -0.4641 -0.8843 -0.1231
 6324SOL    HW136964   4.717   8.417   7.138 -2.6484 -0.6770 -0.9725
 6324SOL    HW236965   4.771   8.279   7.167  1.3190  1.1145  0.9600
 6325SOL     OW36966  14.104   8.611  11.049 -0.3045 -0.1235 -0.2074
 6325SOL    HW136967  14.051   8.686  11.022  0.2851  0.6947  0.8118
 6325SOL    HW236968  14.148   8.582  10.969 -0.6319  0.5562 -0.6382
 6326SOL     OW36969   3.091  10.871   1.808 -0.6043  0.1902  0.5598
 6326SOL    HW136970   3.114  10.908   1.893 -0.5749  2.3538 -0.3398
 6326SOL    HW236971   3.128  10.931   1.744  2.2218 -3.0008 -1.1626
 6327SOL     OW36972   3.378  11.671   1.298  0.2336  0.1405 -0.2587
 6327SOL    HW136973   3.463  11.653   1.338  0.0818  2.0222  1.0486
 6327SOL    HW236974   3.396  11.676   1.204  1.3908 -0.3320 -0.0795
 6328SOL     OW36975   4.067   6.581   6.331  0.1497 -0.0470  0.4395
 6328SOL    HW136976   4.090   6.628   6.252 -0.1744  0.4441  0.6309
 6328SOL    HW236977   4.027   6.499   6.300 -0.7434  0.5083  0.0797
 6329SOL     OW36978   0.426   4.002  11.702  0.5525  0.1458  0.2340
 6329SOL    HW136979   0.379   4.062  11.760 -0.0497  0.8033 -0.8891
 6329SOL    HW236980   0.363   3.981  11.633  0.9606 -1.3161  0.2894
 6330SOL     OW36981   4.107  11.593   3.774 -0.2752 -0.2753 -0.0557
 6330SOL    HW136982   4.049  11.594   3.699 -0.5095 -0.9469  0.1161
 6330SOL    HW236983   4.134  11.502   3.784  1.2413  0.0916 -0.4556
 6331SOL     OW36984  10.098   9.153   9.650  0.9968 -0.0782  0.5616
 6331SOL    HW136985  10.162   9.160   9.721  1.2806  0.2879  0.2814
 6331SOL    HW236986  10.151   9.136   9.572  0.7250 -0.0878  0.3767
 6332SOL     OW36987   9.234  10.881   0.978 -0.0595 -0.2805  0.5994
 6332SOL    HW136988   9.147  10.916   0.955 -1.1761 -1.0228  3.3427
 6332SOL    HW236989   9.228  10.787   0.959  0.0340 -0.3900  1.1081
 6333SOL     OW36990   5.614   8.189   0.595 -0.3549  0.3819 -0.0225
 6333SOL    HW136991   5.672   8.163   0.666  1.2775  2.1432 -0.6075
 6333SOL    HW236992   5.526   8.178   0.630  0.3658 -0.6252  1.5615
 6334SOL     OW36993   6.175  10.540   4.677 -0.6533 -0.3603 -0.4153
 6334SOL    HW136994   6.264  10.508   4.691  0.0425  0.3083 -2.8502
 6334SOL    HW236995   6.120  10.482   4.729  1.0643 -1.8116 -0.1336
 6335SOL     OW36996   0.881   0.494   9.235  0.5427 -0.2610 -0.4850
 6335SOL    HW136997   0.859   0.527   9.147  2.6494 -0.6601 -1.2290
 6335SOL    HW236998   0.935   0.563   9.273 -0.7044  0.0893  0.6926
 6336SOL     OW36999   8.047   6.047   0.429 -0.4041 -0.1995  0.1790
 6336SOL    HW137000   8.039   5.955   0.453  2.1033 -0.1641  1.3909
 6336SOL    HW237001   8.113   6.082   0.488  1.1216  1.5981 -2.3997
 6337SOL     OW37002  13.775   3.587   4.471 -0.3961  0.4688  0.0251
 6337SOL    HW137003  13.814   3.594   4.384 -1.8750  1.4168 -0.5916
 6337SOL    HW237004  13.809   3.504   4.506 -1.0422 -0.7501 -2.0983
 6338SOL     OW37005  10.886   7.893   3.877  0.3071  0.0727  1.1866
 6338SOL    HW137006  10.838   7.945   3.812  1.7418 -0.3079 -0.2560
 6338SOL    HW237007  10.921   7.820   3.827  0.6587 -0.7714  2.6215
 6339SOL     OW37008  12.429   2.487   8.841  0.4854  0.3160  0.4319
 6339SOL    HW137009  12.507   2.542   8.851  0.4753  0.7159 -1.3596
 6339SOL    HW237010  12.460   2.410   8.794 -0.4051  1.0835 -1.5070
 6340SOL     OW37011  13.034   0.061   8.287 -0.0094 -0.2794 -0.1008
 6340SOL    HW137012  13.123   0.089   8.311  0.2107 -0.8836 -0.2057
 6340SOL    HW237013  13.012   0.114   8.210 -0.0484  0.4309  0.3867
 6341SOL     OW37014   7.322   7.909   0.142 -0.3546  0.2569  0.1606
 6341SOL    HW137015   7.231   7.879   0.137 -0.4252  0.4178  0.4417
 6341SOL    HW237016   7.360   7.884   0.058 -0.8984  0.9779 -0.3078
 6342SOL     OW37017   3.695   3.717   7.150  0.6361 -0.1630 -0.4182
 6342SOL    HW137018   3.747   3.798   7.157  0.5969 -0.2298  1.1042
 6342SOL    HW237019   3.636   3.733   7.076  0.7114  1.1675 -0.2305
 6343SOL     OW37020  11.377   0.186  11.472  0.2879 -0.3208 -0.0048
 6343SOL    HW137021  11.469   0.177  11.447  0.1498  0.1885 -0.7549
 6343SOL    HW237022  11.371   0.273  11.512  0.0243 -0.0989 -0.5148
 6344SOL     OW37023   7.529  11.358  11.570  0.2822 -0.3689  0.0859
 6344SOL    HW137024   7.550  11.306  11.493 -0.9314 -0.4382 -0.2260
 6344SOL    HW237025   7.581  11.438  11.561  0.7035 -0.6952 -0.4242
 6345SOL     OW37026   8.195   3.540   0.939 -0.2881 -0.6228  0.2149
 6345SOL    HW137027   8.162   3.629   0.930  2.4900  0.5192  0.5047
 6345SOL    HW237028   8.172   3.516   1.029  2.4384  1.4563  1.6059
 6346SOL     OW37029   4.808  11.937   7.394  0.8298 -0.3289  0.5258
 6346SOL    HW137030   4.765  11.877   7.333 -1.4538  1.3573  0.3384
 6346SOL    HW237031   4.768  12.022   7.376  1.1082  0.5116  3.3890
 6347SOL     OW37032   2.566   4.284   1.638  0.4546  0.6394 -0.3736
 6347SOL    HW137033   2.612   4.209   1.601 -0.0079  0.2309 -0.1380
 6347SOL    HW237034   2.507   4.313   1.568 -1.6993 -1.2094  0.5239
 6348SOL     OW37035  10.280   3.684  13.423  0.2834 -0.3892  0.0479
 6348SOL    HW137036  10.223   3.614  13.393  1.2566 -0.4221 -1.8399
 6348SOL    HW237037  10.352   3.639  13.469 -0.2684 -0.4536  0.8711
 6349SOL     OW37038  10.877   2.899   3.457  0.0569  0.1758  0.0283
 6349SOL    HW137039  10.926   2.845   3.519  2.5256  0.5609 -1.4532
 6349SOL    HW237040  10.904   2.988   3.478  0.1667  0.3773 -0.9385
 6350SOL     OW37041  12.624  12.722   8.195  0.3277  0.0120  0.1692
 6350SOL    HW137042  12.572  12.799   8.171 -2.3586 -2.1234 -1.5464
 6350SOL    HW237043  12.566  12.671   8.253  0.5912 -2.2688 -1.4406
 6351SOL     OW37044   7.498   7.735  10.359  0.3620 -0.2789 -0.3050
 6351SOL    HW137045   7.520   7.796  10.288  1.8231  1.0710  1.2210
 6351SOL    HW237046   7.439   7.785  10.416 -0.3697 -1.1634 -0.2656
 6352SOL     OW37047  13.985   7.178   0.779 -0.5492 -0.5203 -0.4869
 6352SOL    HW137048  14.071   7.219   0.774 -1.1670  0.9249  0.0521
 6352SOL    HW237049  14.003   7.084   0.786  1.0621 -0.1228  1.8647
 6353SOL     OW37050   2.689   4.494   4.487 -0.0863  0.3621 -0.4060
 6353SOL    HW137051   2.667   4.428   4.553  1.2030  0.1327 -0.1786
 6353SOL    HW237052   2.722   4.568   4.538  3.3572 -0.7474 -0.8119
 6354SOL     OW37053  11.834   4.121   5.077 -0.4337 -0.2674 -0.2826
 6354SOL    HW137054  11.914   4.154   5.036  0.7616 -3.5561 -0.9484
 6354SOL    HW237055  11.840   4.026   5.067 -2.7239 -0.9013  2.7895
 6355SOL     OW37056  12.234  11.637   8.547  0.5231 -0.0080  0.2897
 6355SOL    HW137057  12.301  11.608   8.609  1.8852  1.7874 -0.2370
 6355SOL    HW237058  12.202  11.719   8.584 -1.9291 -1.1370  0.8604
 6356SOL     OW37059   0.640  13.619  13.272 -0.0100 -0.7653  0.2170
 6356SOL    HW137060   0.709  13.593  13.212  1.4290 -2.6014  2.5129
 6356SOL    HW237061   0.662  13.577  13.355 -4.4871 -2.4834  0.8414
 6357SOL     OW37062   9.089   4.863   6.151  0.1619  0.2937 -0.0637
 6357SOL    HW137063   9.161   4.810   6.117 -0.0560 -0.3396  0.4222
 6357SOL    HW237064   9.010   4.818   6.119 -0.0385  1.7767 -1.7912
 6358SOL     OW37065   1.467   6.310   7.576  0.1442  0.2952 -0.0039
 6358SOL    HW137066   1.559   6.320   7.551  0.3012  0.1813  0.4984
 6358SOL    HW237067   1.421   6.381   7.531  0.5135  0.4711 -0.1033
 6359SOL     OW37068   9.863   1.120   6.635  0.8197  0.0655  0.0897
 6359SOL    HW137069   9.845   1.204   6.592  0.3666  0.8379  1.7027
 6359SOL    HW237070   9.945   1.091   6.596  1.5408  1.7888  0.2299
 6360SOL     OW37071  11.989   8.486   0.333 -0.4474 -0.0772 -0.3587
 6360SOL    HW137072  12.080   8.516   0.324 -0.6517  0.2895 -1.4008
 6360SOL    HW237073  11.997   8.395   0.360  0.4103 -1.4391 -4.4587
 6361SOL     OW37074  11.633   1.563   3.875  0.2717  0.5828 -0.1803
 6361SOL    HW137075  11.652   1.644   3.922  1.8879  1.6155 -2.4467
 6361SOL    HW237076  11.579   1.513   3.936 -1.3107  3.5657  1.0928
 6362SOL     OW37077   1.833   5.652  12.300 -0.5433 -0.6468  0.1128
 6362SOL    HW137078   1.833   5.586  12.369 -1.0800  0.6862  1.4502
 6362SOL    HW237079   1.746   5.692  12.305 -0.6091 -0.5303 -1.3865
 6363SOL     OW37080   4.409   1.372   9.916  0.1752 -0.4184  0.4256
 6363SOL    HW137081   4.402   1.358   9.822 -0.8752  0.4264  0.3549
 6363SOL    HW237082   4.503   1.370   9.934  0.3507 -1.1900 -0.5365
 6364SOL     OW37083   3.719   7.913  10.100  0.0278  0.3037  0.2122
 6364SOL    HW137084   3.741   7.958  10.182  0.8921  1.3416 -0.5750
 6364SOL    HW237085   3.687   7.982  10.042  2.4544  0.1795 -1.4110
 6365SOL     OW37086   9.883   6.930  11.272  0.0872  0.2370  0.4851
 6365SOL    HW137087   9.903   6.942  11.365  2.6960  1.5621 -0.1190
 6365SOL    HW237088   9.877   7.019  11.238 -0.6779 -0.2341 -0.6455
 6366SOL     OW37089   3.271   2.894   7.846 -0.1220 -0.0093 -0.5954
 6366SOL    HW137090   3.247   2.913   7.937 -0.7170 -0.6306 -0.6182
 6366SOL    HW237091   3.365   2.915   7.842 -0.2530  0.7297 -0.0380
 6367SOL     OW37092   2.554   5.777  12.267 -0.5784 -0.0453 -0.0745
 6367SOL    HW137093   2.587   5.841  12.205 -0.6835 -0.7691 -0.8994
 6367SOL    HW237094   2.569   5.817  12.353 -0.4765  0.9877 -0.5598
 6368SOL     OW37095   9.724   7.910  13.323 -0.4802 -0.1555  0.0493
 6368SOL    HW137096   9.768   7.990  13.295  0.1150 -0.9474 -1.4068
 6368SOL    HW237097   9.773   7.882  13.401 -0.1634  0.4409  0.0715
 6369SOL     OW37098   4.819   4.300  10.263 -0.1307 -0.1655  0.0741
 6369SOL    HW137099   4.735   4.290  10.220 -0.8416 -3.6943  1.8779
 6369SOL    HW237100   4.878   4.333  10.196 -1.7579 -2.7339 -2.8508
 6370SOL     OW37101   5.711   0.691   0.627  0.0468 -0.2747  0.4277
 6370SOL    HW137102   5.781   0.756   0.631  0.3517 -0.5086 -0.6576
 6370SOL    HW237103   5.656   0.719   0.554  1.1087 -2.0909 -1.1684
 6371SOL     OW37104  13.509   1.387   4.945 -0.2281 -0.0801  0.7057
 6371SOL    HW137105  13.414   1.377   4.949 -0.3120  0.4614  0.2477
 6371SOL    HW237106  13.532   1.438   5.023 -0.5765  1.5265 -0.1864
 6372SOL     OW37107   4.896  10.347   0.637  0.3417 -0.1052  0.0840
 6372SOL    HW137108   4.917  10.426   0.687  1.8468 -0.1157 -0.4716
 6372SOL    HW237109   4.801  10.340   0.641  0.3828 -0.0597  2.8595
 6373SOL     OW37110   5.957   8.202   5.943  0.3504 -0.1497 -0.5564
 6373SOL    HW137111   5.892   8.197   5.873  0.0199 -0.0057 -0.2627
 6373SOL    HW237112   6.021   8.135   5.921  0.1321 -0.2527 -0.8810
 6374SOL     OW37113   6.924   9.931   5.054  0.0104  0.1349  0.2324
 6374SOL    HW137114   7.019   9.931   5.060  0.2146  0.7481 -2.0104
 6374SOL    HW237115   6.900   9.838   5.059  0.8579 -0.1327 -0.4397
 6375SOL     OW37116   7.514  12.096   3.474 -0.0595  0.3259  0.0043
 6375SOL    HW137117   7.570  12.115   3.398 -1.7025 -0.3153 -1.4438
 6375SOL    HW237118   7.427  12.125   3.447 -0.6521  0.2772  1.7611
 6376SOL     OW37119   0.750   0.437   4.059  0.0937 -0.0387  0.1742
 6376SOL    HW137120   0.844   0.445   4.075 -0.0081  0.5582  0.4899
 6376SOL    HW237121   0.709   0.473   4.138 -0.4022  1.0894 -0.5733
 6377SOL     OW37122  10.390   2.622  13.792  0.1947 -0.0763  1.0313
 6377SOL    HW137123  10.331   2.547  13.786 -1.1927  1.0807 -2.4904
 6377SOL    HW237124  10.456   2.606  13.724  1.1430  0.8873  1.6968
 6378SOL     OW37125   4.048   1.776  10.732 -0.1591 -0.3976  0.3584
 6378SOL    HW137126   4.058   1.799  10.640 -0.0846 -0.6634  0.2996
 6378SOL    HW237127   3.991   1.845  10.768  0.7811  0.3833  0.3990
 6379SOL     OW37128  12.426   6.888   9.156  0.9655 -0.4475  0.5081
 6379SOL    HW137129  12.495   6.870   9.221  1.4092  1.0511  0.5021
 6379SOL    HW237130  12.451   6.973   9.119 -2.1813  1.4026  2.2582
 6380SOL     OW37131   5.545  11.606  12.205 -0.0007 -0.1829  0.0062
 6380SOL    HW137132   5.597  11.545  12.257  0.5658  0.8037  0.6264
 6380SOL    HW237133   5.579  11.597  12.116  0.3369 -0.4867  0.1639
 6381SOL     OW37134   3.312   0.477   5.888 -0.0278  0.3885 -0.4752
 6381SOL    HW137135   3.390   0.456   5.940 -0.8667 -1.4478  0.1296
 6381SOL    HW237136   3.267   0.544   5.939 -0.5326 -0.9601  0.9628
 6382SOL     OW37137  13.224   4.498   6.534  0.6470  0.1156  0.2704
 6382SOL    HW137138  13.284   4.429   6.561 -0.7679 -1.2064  0.2000
 6382SOL    HW237139  13.199   4.542   6.615 -0.3939 -1.1415  0.6630
 6383SOL     OW37140  11.952   8.531  11.871  0.0615  0.2610  0.5278
 6383SOL    HW137141  11.903   8.560  11.948 -0.3226 -1.0800  0.8190
 6383SOL    HW237142  11.902   8.458  11.837  0.8815  0.0564 -0.2814
 6384SOL     OW37143  10.136   0.147   3.932  0.6700 -0.4879 -0.0545
 6384SOL    HW137144  10.229   0.125   3.938  1.5105  2.5886 -0.1471
 6384SOL    HW237145  10.116   0.194   4.013 -0.7804 -0.9238 -0.1200
 6385SOL     OW37146   8.406   6.284   5.309 -0.0858 -0.3422  0.7076
 6385SOL    HW137147   8.337   6.287   5.376 -0.4294  0.0435  0.3502
 6385SOL    HW237148   8.487   6.275   5.358 -0.3972 -0.8465  1.1364
 6386SOL     OW37149  12.123   4.036  13.667 -0.3664  0.1577 -0.1629
 6386SOL    HW137150  12.134   4.034  13.762 -0.1707  0.1508 -0.1854
 6386SOL    HW237151  12.040   4.082  13.654 -0.0815  0.7212 -0.0089
 6387SOL     OW37152   2.822   9.575  12.108  0.2209  0.4786 -0.2704
 6387SOL    HW137153   2.824   9.630  12.030 -0.4748  0.3951 -0.3565
 6387SOL    HW237154   2.758   9.617  12.166  1.4340  1.0739  0.6688
 6388SOL     OW37155   0.959   1.690   9.371  0.2474 -0.4156 -0.4165
 6388SOL    HW137156   0.894   1.679   9.301 -2.3074  1.9786  1.3399
 6388SOL    HW237157   0.926   1.636   9.442 -1.5047  2.7320  1.4009
 6389SOL     OW37158   5.544   5.159   3.427 -0.5141 -0.5065  0.2907
 6389SOL    HW137159   5.577   5.192   3.344 -1.6981  0.9143  0.3608
 6389SOL    HW237160   5.607   5.189   3.492 -1.8811  2.3001  0.4417
 6390SOL     OW37161   7.233  12.417   4.379 -0.5430 -0.3540 -0.3054
 6390SOL    HW137162   7.273  12.406   4.466  0.6526  0.0916 -0.7764
 6390SOL    HW237163   7.181  12.497   4.387  0.5186  0.3645 -0.3117
 6391SOL     OW37164  11.902  12.330   4.416  0.0197  0.8308  0.6227
 6391SOL    HW137165  11.859  12.277   4.350  0.2772  1.0639  0.2648
 6391SOL    HW237166  11.866  12.418   4.405 -0.2631  0.7789  1.0845
 6392SOL     OW37167   0.752   0.472   2.084 -0.2015  0.4262  0.2924
 6392SOL    HW137168   0.667   0.442   2.052  0.0662 -0.4798  0.3863
 6392SOL    HW237169   0.794   0.510   2.007 -0.5141  0.4553  0.1360
 6393SOL     OW37170   9.147  11.858   4.212  0.1014 -0.5581  0.1721
 6393SOL    HW137171   9.235  11.874   4.248 -0.1289 -2.0584  1.5642
 6393SOL    HW237172   9.092  11.926   4.250  0.3402 -0.6822  0.7558
 6394SOL     OW37173  10.905  11.949   7.649 -0.2314 -0.8586  0.1991
 6394SOL    HW137174  10.981  11.962   7.705 -0.3557 -2.3316  0.7337
 6394SOL    HW237175  10.833  11.932   7.709 -0.8871 -0.0421 -0.3268
 6395SOL     OW37176  11.706   2.353   1.393  0.3837  0.3120  0.1244
 6395SOL    HW137177  11.759   2.407   1.452  0.7442  1.7763 -1.4665
 6395SOL    HW237178  11.618   2.357   1.430  0.7489  0.5762  0.9849
 6396SOL     OW37179   8.250  11.668   1.220  0.2156  0.4464  0.0132
 6396SOL    HW137180   8.306  11.614   1.275 -0.9061 -0.6750  0.0923
 6396SOL    HW237181   8.309  11.704   1.154  1.4717  1.3048  1.5260
 6397SOL     OW37182   6.215  10.418   8.126  0.7234  0.3760 -0.0489
 6397SOL    HW137183   6.162  10.415   8.046  0.9982 -1.2865 -0.2025
 6397SOL    HW237184   6.289  10.475   8.103 -0.1788  1.4685 -0.3313
 6398SOL     OW37185   6.879   9.149   7.423 -0.0395  0.5993  0.0820
 6398SOL    HW137186   6.937   9.131   7.496  0.5573 -1.2570 -0.7934
 6398SOL    HW237187   6.799   9.182   7.464  0.4171 -0.0218  1.5341
 6399SOL     OW37188   4.374  13.283   9.086  0.1053 -0.2526 -0.1274
 6399SOL    HW137189   4.441  13.215   9.081  0.6631  0.1983  0.9569
 6399SOL    HW237190   4.422  13.362   9.111 -0.8585  0.0121  0.9687
 6400SOL     OW37191   4.790   1.992  11.482  0.5428  0.2533 -0.2469
 6400SOL    HW137192   4.804   1.898  11.489 -0.1285  0.1331 -0.3975
 6400SOL    HW237193   4.863   2.031  11.530 -0.4036 -0.3862  1.8409
 6401SOL     OW37194   3.403   1.741  12.567 -0.1785 -0.1697  0.0637
 6401SOL    HW137195   3.419   1.755  12.474  0.5765  1.2630  0.3788
 6401SOL    HW237196   3.483   1.700  12.600 -0.1339  0.0447  0.2263
 6402SOL     OW37197   4.019   3.329  10.755  0.1206 -0.0158  0.2311
 6402SOL    HW137198   3.927   3.342  10.732  0.1495 -0.4468 -0.1451
 6402SOL    HW237199   4.025   3.236  10.776  0.4271  0.0589  0.4769
 6403SOL     OW37200  11.085   7.808   1.008  0.3693 -0.2895 -0.0413
 6403SOL    HW137201  11.124   7.828   1.093 -0.5659 -0.4900  0.4512
 6403SOL    HW237202  11.050   7.892   0.977  0.1768 -0.3310  0.0598
 6404SOL     OW37203  10.859  10.030   2.226  0.5906 -0.1918 -0.4199
 6404SOL    HW137204  10.908  10.047   2.306  0.5559 -0.5971 -0.3102
 6404SOL    HW237205  10.829   9.940   2.235  0.0623 -0.0402 -0.6095
 6405SOL     OW37206   4.302  11.158   6.234  0.0048 -0.6247  0.3138
 6405SOL    HW137207   4.233  11.092   6.243 -0.0207 -0.6341  0.0747
 6405SOL    HW237208   4.267  11.235   6.279 -2.2354  0.9342 -3.6021
 6406SOL     OW37209  10.492   3.127   6.053 -0.4792  0.1120  0.4139
 6406SOL    HW137210  10.417   3.079   6.089 -0.3185 -0.6856 -0.2813
 6406SOL    HW237211  10.567   3.071   6.073 -0.1226  0.6924  0.7068
 6407SOL     OW37212   5.852   5.009  13.226  0.0647 -0.7175 -0.5764
 6407SOL    HW137213   5.943   5.024  13.200  0.2170 -4.1098 -2.6311
 6407SOL    HW237214   5.802   5.078  13.181  1.4888  0.7986  0.0770
 6408SOL     OW37215  13.141   6.911  12.865 -1.0230  0.1286 -0.1716
 6408SOL    HW137216  13.180   6.992  12.895 -1.8551  0.7558 -0.7248
 6408SOL    HW237217  13.187   6.842  12.912  1.2395  0.7590 -1.3485
 6409SOL     OW37218   9.733   6.838  12.316 -0.4646 -0.6048  0.0189
 6409SOL    HW137219   9.790   6.851  12.392 -0.8809  0.6772  0.1249
 6409SOL    HW237220   9.661   6.899  12.329  0.0621  0.5223 -2.0082
 6410SOL     OW37221   2.939   5.306   2.842 -0.1146  0.0687 -0.2173
 6410SOL    HW137222   2.866   5.263   2.885  0.6592 -1.9325 -0.7802
 6410SOL    HW237223   3.002   5.324   2.913 -0.6904  0.8465  0.1086
 6411SOL     OW37224   9.113  14.121   0.596  0.1876 -0.1315  0.3799
 6411SOL    HW137225   9.048  14.066   0.639  0.9669  0.8028  2.9212
 6411SOL    HW237226   9.099  14.208   0.633  0.3181  0.9807 -2.0227
 6412SOL     OW37227  10.011   9.676   0.819  0.6074  0.5979  0.1548
 6412SOL    HW137228   9.931   9.640   0.781  0.3604  0.4335  0.8058
 6412SOL    HW237229  10.074   9.677   0.747  0.5574 -0.9348  0.0371
 6413SOL     OW37230   9.217   6.602   3.579  0.1162 -0.3118 -0.2263
 6413SOL    HW137231   9.182   6.520   3.543 -1.0010  0.4589 -0.9320
 6413SOL    HW237232   9.166   6.617   3.658 -1.3151  0.8827 -1.3281
 6414SOL     OW37233   8.414   1.637  13.128 -0.0119  0.0074  0.0355
 6414SOL    HW137234   8.483   1.697  13.155  0.1769  0.4579 -1.3494
 6414SOL    HW237235   8.416   1.640  13.032  0.4889 -2.7530 -0.1230
 6415SOL     OW37236  11.461  13.548  10.761  0.4609  0.4718 -0.7482
 6415SOL    HW137237  11.492  13.533  10.671  0.5207 -2.2675 -0.3457
 6415SOL    HW237238  11.528  13.605  10.799  3.1021 -2.1000 -1.1070
 6416SOL     OW37239   9.184   2.018   5.545 -0.5171  0.1896  0.1290
 6416SOL    HW137240   9.126   2.069   5.602  1.6056  1.7441  1.0388
 6416SOL    HW237241   9.270   2.025   5.586  0.5902 -0.9162 -1.8595
 6417SOL     OW37242   6.744   6.407  10.992  0.4387  0.0038 -0.5051
 6417SOL    HW137243   6.672   6.467  10.972 -0.3899 -1.0409 -0.7564
 6417SOL    HW237244   6.783   6.387  10.907  1.7387  1.3876 -0.2733
 6418SOL     OW37245   4.012   1.320   3.325 -0.3280 -0.6127 -0.3746
 6418SOL    HW137246   4.071   1.355   3.392  0.9101 -0.8665 -1.2798
 6418SOL    HW237247   3.925   1.349   3.352  0.1198 -0.7931  1.3682
 6419SOL     OW37248   0.312   3.956  14.042 -0.2333 -0.1606  0.1728
 6419SOL    HW137249   0.221   3.979  14.021 -0.1242  2.3408  2.0179
 6419SOL    HW237250   0.353   3.942  13.957 -1.7738  1.0248 -0.8185
 6420SOL     OW37251   7.818   1.853  12.071 -0.1242 -0.2397  0.4829
 6420SOL    HW137252   7.844   1.808  12.151  0.4502  1.7318  1.4750
 6420SOL    HW237253   7.742   1.905  12.096  1.9191  2.9129  0.7589
 6421SOL     OW37254  12.962   5.241   0.319 -0.4943 -0.1667 -0.2919
 6421SOL    HW137255  13.056   5.256   0.309 -0.4469 -1.0992 -1.4406
 6421SOL    HW237256  12.953   5.207   0.408  0.4913 -1.6686 -0.7291
 6422SOL     OW37257  12.857   2.952  11.865 -0.0448 -0.1026 -0.1365
 6422SOL    HW137258  12.817   2.919  11.785 -0.1115  2.7681 -1.4079
 6422SOL    HW237259  12.931   3.006  11.835  0.4345  0.3919  1.7757
 6423SOL     OW37260  13.367   3.493  13.233 -0.2246  0.4985 -0.0432
 6423SOL    HW137261  13.285   3.533  13.207 -0.0713 -0.4041 -2.1048
 6423SOL    HW237262  13.360   3.402  13.204  1.3721  0.3320 -0.0306
 6424SOL     OW37263   3.239  12.785  13.636  0.3449  0.1327 -0.1623
 6424SOL    HW137264   3.326  12.820  13.653  0.7666 -1.7433  2.0022
 6424SOL    HW237265   3.181  12.836  13.693  0.4500 -0.3407  0.3822
 6425SOL     OW37266   2.086  11.780   7.034 -0.2965 -0.1483 -0.2835
 6425SOL    HW137267   2.119  11.817   6.952  0.3318  0.1196  0.0805
 6425SOL    HW237268   2.163  11.741   7.075 -0.7235 -0.8155 -0.1000
 6426SOL     OW37269  12.798   4.639  11.014 -0.2160 -0.1055 -0.1552
 6426SOL    HW137270  12.717   4.672  11.053 -0.2399  0.2869 -0.5290
 6426SOL    HW237271  12.794   4.666  10.922  0.1717 -0.3957 -0.2626
 6427SOL     OW37272   2.801   8.513   1.740 -0.0038 -0.4819  0.0346
 6427SOL    HW137273   2.860   8.474   1.675  2.2181  1.2055  0.9100
 6427SOL    HW237274   2.773   8.439   1.794 -0.4808 -1.6517 -1.7108
 6428SOL     OW37275   8.619   0.932   0.186 -0.0807 -0.1927  0.6398
 6428SOL    HW137276   8.563   0.863   0.153 -0.2377 -0.1537  0.8254
 6428SOL    HW237277   8.601   0.936   0.280 -0.6770  0.6464  0.5019
 6429SOL     OW37278   1.599  11.792  10.055  0.3131  0.7196  0.3241
 6429SOL    HW137279   1.603  11.876  10.010  0.6285  0.8231  0.5374
 6429SOL    HW237280   1.509  11.786  10.086 -0.8002 -0.7195 -2.8531
 6430SOL     OW37281   1.039   2.508  12.006 -0.0047 -0.4762  0.2715
 6430SOL    HW137282   1.010   2.572  12.071  2.4380  0.3887  0.5959
 6430SOL    HW237283   1.127   2.484  12.033 -0.3657 -3.0547 -0.5831
 6431SOL     OW37284   3.081   9.033   1.240 -0.1455 -0.2419  0.4631
 6431SOL    HW137285   3.120   9.120   1.229 -1.9157  0.4580 -0.8023
 6431SOL    HW237286   3.118   8.981   1.169  0.1760 -0.2538  0.6357
 6432SOL     OW37287   8.004   7.523   5.754 -0.0925  0.1324  0.0512
 6432SOL    HW137288   8.078   7.583   5.766 -0.2291  0.2558  0.2907
 6432SOL    HW237289   7.949   7.566   5.688  0.7652 -0.6507 -1.2236
 6433SOL     OW37290  13.455   0.279   3.973  0.7364 -0.4331  0.5256
 6433SOL    HW137291  13.520   0.257   3.907  1.5905  0.4787  1.0377
 6433SOL    HW237292  13.374   0.238   3.942  0.8036  0.9418 -1.7093
 6434SOL     OW37293  13.203   3.511  10.671 -0.7091  0.1973 -0.4564
 6434SOL    HW137294  13.131   3.454  10.696 -0.6695  0.5563  0.5004
 6434SOL    HW237295  13.177   3.547  10.586 -2.7122  2.0610  0.8492
 6435SOL     OW37296   9.863   8.165  10.351 -0.4501  1.0765 -0.5383
 6435SOL    HW137297   9.875   8.076  10.383 -0.1954  0.5855 -1.9559
 6435SOL    HW237298   9.886   8.220  10.427 -1.1166 -0.0354  0.5118
 6436SOL     OW37299  10.566   8.151   6.852  0.2147  0.3511 -0.2401
 6436SOL    HW137300  10.550   8.241   6.880  0.0531  0.0950  0.5283
 6436SOL    HW237301  10.479   8.114   6.837  0.2264  0.0234  0.4507
 6437SOL     OW37302  12.111   5.255  12.707 -0.0593 -0.3533 -0.5797
 6437SOL    HW137303  12.177   5.207  12.757 -0.5213  0.6781  1.1039
 6437SOL    HW237304  12.124   5.347  12.732 -0.3005  0.2326 -2.4223
 6438SOL     OW37305   3.851   0.877   8.757  0.0848 -0.5412  0.0876
 6438SOL    HW137306   3.756   0.884   8.743  0.1304  0.5463  0.2170
 6438SOL    HW237307   3.875   0.794   8.717 -0.8007 -0.4378 -0.6989
 6439SOL     OW37308   1.790   7.105  10.096 -0.1670 -0.2220  0.5030
 6439SOL    HW137309   1.819   7.058  10.174 -1.3422  1.0107  1.7250
 6439SOL    HW237310   1.750   7.038  10.041  0.2091 -1.0150  1.1757
 6440SOL     OW37311   1.913   7.848   9.035 -0.3034  0.1472 -0.7722
 6440SOL    HW137312   1.992   7.801   9.064  0.2484  1.2457 -0.4399
 6440SOL    HW237313   1.842   7.807   9.084  0.2852  0.2819  0.2211
 6441SOL     OW37314  13.226   5.636   8.706  0.2092 -0.5436  0.4796
 6441SOL    HW137315  13.208   5.565   8.644  2.9217 -1.4269  0.5672
 6441SOL    HW237316  13.252   5.710   8.652 -0.4794 -0.2948  0.4775
 6442SOL     OW37317  11.247  12.109   7.558 -0.1762  0.1323 -0.1749
 6442SOL    HW137318  11.220  12.036   7.501  0.2350 -0.3560  0.2473
 6442SOL    HW237319  11.341  12.119   7.542 -0.1321  0.2397  0.1372
 6443SOL     OW37320   7.115   1.605   0.887 -0.0572 -0.0917 -0.1345
 6443SOL    HW137321   7.088   1.669   0.953 -1.0647 -0.6411  0.0115
 6443SOL    HW237322   7.056   1.620   0.813 -0.4395 -0.9713 -0.0184
 6444SOL     OW37323   7.220   3.873   4.878 -0.1907  0.1817 -0.0956
 6444SOL    HW137324   7.252   3.963   4.869 -0.8102  0.5894  1.4151
 6444SOL    HW237325   7.295   3.824   4.912  0.2758  0.0095 -1.3245
 6445SOL     OW37326   6.261   4.187   2.012  0.6838  0.4410  0.0524
 6445SOL    HW137327   6.296   4.196   1.923  1.0080 -0.0756  0.1229
 6445SOL    HW237328   6.236   4.276   2.037  1.6738  0.7745 -0.1130
 6446SOL     OW37329  11.761  12.607   8.545  0.3304  0.4514 -0.1175
 6446SOL    HW137330  11.720  12.653   8.471  0.1050  0.0114 -0.2665
 6446SOL    HW237331  11.694  12.545   8.575  1.0622 -0.6204 -0.6651
 6447SOL     OW37332  11.315   8.212  10.675 -0.4044 -0.1403 -0.1331
 6447SOL    HW137333  11.257   8.206  10.750 -0.2822  1.9520  0.1998
 6447SOL    HW237334  11.395   8.168  10.703 -0.2057  0.9604  1.1823
 6448SOL     OW37335   5.576   7.183   0.578  0.5164  0.5368  0.0356
 6448SOL    HW137336   5.483   7.164   0.590  1.0500 -2.3657  0.4566
 6448SOL    HW237337   5.588   7.268   0.619 -1.3869 -0.4866  3.1013
 6449SOL     OW37338   4.988   1.726  11.072  0.1860  0.3630  0.7130
 6449SOL    HW137339   4.974   1.631  11.081  1.0126  0.1983  0.3003
 6449SOL    HW237340   5.038   1.735  10.991 -0.7438  1.2395  0.2100
 6450SOL     OW37341  10.580  12.214  13.577 -0.0040  0.0406 -0.3217
 6450SOL    HW137342  10.558  12.122  13.591  1.5242 -0.3918 -0.5986
 6450SOL    HW237343  10.611  12.245  13.662  1.6360 -0.3603 -0.7355
 6451SOL     OW37344   1.013   2.696  13.054  0.2496  0.0180 -0.1940
 6451SOL    HW137345   1.105   2.722  13.066  0.5010 -0.7750 -0.3880
 6451SOL    HW237346   0.963   2.766  13.096  0.8977  1.0712 -1.1297
 6452SOL     OW37347   3.770   4.111   1.649  0.0106  0.0661  0.2118
 6452SOL    HW137348   3.679   4.085   1.661 -0.0530  0.4287  0.5385
 6452SOL    HW237349   3.774   4.202   1.680  0.2438  0.4259 -0.8329
 6453SOL     OW37350   6.723  13.530   4.558  0.4617  0.5504 -0.8560
 6453SOL    HW137351   6.688  13.615   4.586 -1.1055  0.5538 -2.6077
 6453SOL    HW237352   6.647  13.485   4.521  0.6882 -2.6325  2.0726
 6454SOL     OW37353  13.865   3.684   4.867 -0.8834 -0.5230 -0.4347
 6454SOL    HW137354  13.928   3.678   4.795 -0.4479 -0.0260 -0.0979
 6454SOL    HW237355  13.887   3.765   4.912  0.3961 -1.9384  1.6976
 6455SOL     OW37356   5.121   3.103   0.307 -0.5632  0.3575 -0.2109
 6455SOL    HW137357   5.200   3.071   0.351 -0.6938 -1.6954 -1.3203
 6455SOL    HW237358   5.052   3.042   0.335 -1.6439  1.7149  0.2132
 6456SOL     OW37359   5.268   2.608  10.923 -0.6122 -0.0961  0.0198
 6456SOL    HW137360   5.172   2.619  10.926 -0.7375  1.2237 -3.5666
 6456SOL    HW237361   5.301   2.697  10.909  1.0868 -0.6565  0.3017
 6457SOL     OW37362   0.610  12.742   3.810  0.0721 -0.2665 -0.3036
 6457SOL    HW137363   0.666  12.795   3.867 -1.8566  0.2540  1.2028
 6457SOL    HW237364   0.619  12.782   3.724  0.0051  1.4533  0.4549
 6458SOL     OW37365   3.775  13.267  12.169  0.1668 -0.3043  0.1562
 6458SOL    HW137366   3.854  13.311  12.201 -1.2197  0.5640  2.6957
 6458SOL    HW237367   3.717  13.263  12.245 -1.6319 -2.3913 -1.1773
 6459SOL     OW37368   3.318   7.225   4.473  0.5729 -0.3255 -0.1904
 6459SOL    HW137369   3.322   7.180   4.389  2.7173 -0.4823 -0.0397
 6459SOL    HW237370   3.394   7.193   4.522 -0.2635  0.2489  1.5745
 6460SOL     OW37371   6.217  11.976   5.082 -0.1681  0.2040 -0.1744
 6460SOL    HW137372   6.212  12.051   5.023 -0.4645  0.9195  0.7430
 6460SOL    HW237373   6.297  11.990   5.132 -1.7819  1.6382  2.2262
 6461SOL     OW37374   1.223   9.872   9.462 -0.8177 -0.0164 -0.5025
 6461SOL    HW137375   1.129   9.861   9.472 -0.5290 -0.9391  1.9264
 6461SOL    HW237376   1.242   9.955   9.506 -0.4641  0.1520 -0.9555
 6462SOL     OW37377   9.402   3.782  12.685  0.2541 -0.5111  0.0977
 6462SOL    HW137378   9.437   3.750  12.768  0.8070  1.0482  0.4831
 6462SOL    HW237379   9.310   3.798  12.703  0.8067  1.9063  1.0969
 6463SOL     OW37380  14.038   1.988  13.693  0.7626 -0.0913 -0.4209
 6463SOL    HW137381  13.978   1.918  13.668  0.8802 -0.6187  0.7124
 6463SOL    HW237382  14.115   1.975  13.638  0.2088  0.0378 -1.2384
 6464SOL     OW37383  10.177  10.721   9.724  0.2564  0.1457  0.7821
 6464SOL    HW137384  10.113  10.792   9.720  0.5080  0.4013  1.3009
 6464SOL    HW237385  10.125  10.644   9.746 -0.0154  0.1646  0.2222
 6465SOL     OW37386   7.142   7.131  10.510  0.1773 -0.0784  0.3547
 6465SOL    HW137387   7.231   7.117  10.477  0.5272  0.7383  0.9081
 6465SOL    HW237388   7.090   7.151  10.432  0.2466 -1.5449 -0.0959
 6466SOL     OW37389   4.806   0.557   8.997 -0.4643 -0.5121  0.0490
 6466SOL    HW137390   4.715   0.586   8.989  0.5889  2.6200 -2.9185
 6466SOL    HW237391   4.843   0.613   9.065  0.3478  1.8597 -2.2189
 6467SOL     OW37392   2.888  12.622   5.007  0.2183 -0.1767  0.2351
 6467SOL    HW137393   2.951  12.585   4.946  0.6808 -1.0217  1.1950
 6467SOL    HW237394   2.940  12.645   5.084 -0.3229  1.0516  0.2629
 6468SOL     OW37395   1.585  13.492   4.453  0.3700 -0.7383  0.0107
 6468SOL    HW137396   1.560  13.499   4.545  1.1167 -1.4586  0.2756
 6468SOL    HW237397   1.632  13.409   4.446 -1.3425 -1.6584 -1.4123
 6469SOL     OW37398   0.608   6.100   9.164  0.3841  0.6155 -0.1657
 6469SOL    HW137399   0.619   6.025   9.105 -1.1450  0.7703 -0.6745
 6469SOL    HW237400   0.634   6.067   9.250  0.9910 -0.1055 -0.6126
 6470SOL     OW37401   7.573   6.554   0.756 -0.0332 -0.2523 -0.2859
 6470SOL    HW137402   7.499   6.616   0.756 -1.1417 -1.4675  1.6215
 6470SOL    HW237403   7.610   6.561   0.844  0.9036 -1.0799 -0.5972
 6471SOL     OW37404   1.817   0.879   0.811 -0.4608 -0.3299  0.6940
 6471SOL    HW137405   1.843   0.933   0.886  0.2144  0.2081  0.0868
 6471SOL    HW237406   1.722   0.890   0.806 -0.3629  0.6515  0.7139
 6472SOL     OW37407  10.087  13.825   5.922 -1.1375 -0.6135 -0.2803
 6472SOL    HW137408  10.154  13.771   5.880 -1.3494 -0.5310 -0.7318
 6472SOL    HW237409  10.077  13.900   5.865 -1.2472 -0.3684  0.0577
 6473SOL     OW37410   5.075  10.942   9.659  0.4246  0.7067 -0.6468
 6473SOL    HW137411   5.031  10.940   9.574  0.1534 -0.3179 -0.4914
 6473SOL    HW237412   5.163  10.975   9.639 -0.1235  1.9576 -1.0815
 6474SOL     OW37413  12.783   0.882   9.634 -0.6347  0.0152 -0.0214
 6474SOL    HW137414  12.708   0.830   9.663 -1.4570  1.1285 -0.1043
 6474SOL    HW237415  12.857   0.846   9.684 -1.3215 -0.6879  0.5179
 6475SOL     OW37416  14.077   3.581   6.148 -0.5875  0.1074 -0.5818
 6475SOL    HW137417  14.047   3.620   6.066  0.5671  0.3877 -0.8913
 6475SOL    HW237418  14.001   3.587   6.206 -2.0820 -1.9207 -2.1983
 6476SOL     OW37419   9.921  13.086  12.465 -0.4300 -0.2347 -0.2650
 6476SOL    HW137420   9.907  13.172  12.503 -0.3540  0.3964 -1.6059
 6476SOL    HW237421  10.011  13.064  12.490  0.0560  0.7240 -1.1060
 6477SOL     OW37422   1.682   7.313  12.541  0.3745  0.5158 -0.1549
 6477SOL    HW137423   1.692   7.280  12.451 -0.7666  0.0365 -0.1235
 6477SOL    HW237424   1.599   7.360  12.541  1.0304  1.7113  0.3206
 6478SOL     OW37425   8.110   8.358   2.877 -0.0529 -0.7556  0.5760
 6478SOL    HW137426   8.188   8.302   2.887 -0.7658 -1.4432  3.0178
 6478SOL    HW237427   8.036   8.299   2.889 -0.9704  0.0503 -0.8367
 6479SOL     OW37428   3.685   7.457   1.812 -0.0392  0.8688 -0.5812
 6479SOL    HW137429   3.636   7.478   1.733  0.2977  2.0425 -0.4909
 6479SOL    HW237430   3.641   7.380   1.848 -0.0228  0.1411 -2.0467
 6480SOL     OW37431  14.132   6.769   5.745 -0.2181 -0.1449 -0.4955
 6480SOL    HW137432  14.048   6.783   5.702  0.4468  0.8820 -1.5406
 6480SOL    HW237433  14.118   6.797   5.836 -0.4348  2.2741 -1.1996
 6481SOL     OW37434   7.767  13.383   7.292  0.3653 -0.4103 -0.0151
 6481SOL    HW137435   7.856  13.383   7.327  0.1542  0.8059  0.5575
 6481SOL    HW237436   7.778  13.368   7.198  1.1242 -0.9008  0.1435
 6482SOL     OW37437   7.092   9.679   5.186 -0.0263 -0.0649  0.3304
 6482SOL    HW137438   7.061   9.602   5.235 -0.1033  1.2951  2.5338
 6482SOL    HW237439   7.137   9.733   5.252 -2.0602  2.9317 -0.5633
 6483SOL     OW37440   4.035   3.201  13.726  0.1188 -0.1756 -0.0512
 6483SOL    HW137441   4.114   3.154  13.754 -0.5605 -0.8762  0.7379
 6483SOL    HW237442   4.011   3.158  13.643  1.1750  0.7853 -0.8955
 6484SOL     OW37443  10.881  12.439  13.896 -0.4685 -0.4264  0.2740
 6484SOL    HW137444  10.953  12.487  13.855 -1.3966  1.0308  0.2610
 6484SOL    HW237445  10.907  12.427  13.987  0.2736 -0.9530  0.0029
 6485SOL     OW37446   0.929  12.456   9.868 -0.1881 -0.1952  0.6257
 6485SOL    HW137447   0.891  12.455   9.956 -1.2843 -0.4819  0.1741
 6485SOL    HW237448   0.872  12.397   9.818 -0.9614  1.6736 -0.8195
 6486SOL     OW37449  14.110   8.795   7.093 -0.1024 -0.8691  0.3139
 6486SOL    HW137450  14.197   8.808   7.131 -0.9665  0.1521  2.0354
 6486SOL    HW237451  14.122   8.813   7.000  1.1368  1.2411  0.8179
 6487SOL     OW37452   9.256   3.706   6.589  0.1423  0.3546 -0.1965
 6487SOL    HW137453   9.296   3.644   6.529 -0.6536  0.8594 -1.2830
 6487SOL    HW237454   9.223   3.653   6.662  0.2690 -0.3777 -0.6722
 6488SOL     OW37455   2.988  13.754   4.353  0.2052 -0.0210 -0.4452
 6488SOL    HW137456   3.050  13.682   4.367  1.2677  1.0315  0.5019
 6488SOL    HW237457   3.037  13.833   4.377 -1.8843  0.7598  1.6661
 6489SOL     OW37458   6.546   4.310   9.592  0.0742 -0.1014  0.3318
 6489SOL    HW137459   6.533   4.217   9.613 -1.0678  0.3358  1.7209
 6489SOL    HW237460   6.499   4.357   9.661 -0.9006  1.5058 -1.3480
 6490SOL     OW37461  13.463  13.182   1.173  0.0025  0.6744 -0.0588
 6490SOL    HW137462  13.435  13.091   1.161 -1.9359  1.3149 -0.8603
 6490SOL    HW237463  13.445  13.200   1.265  1.0070  0.0809  0.2695
 6491SOL     OW37464   7.528  12.250   8.861 -0.5102 -0.4742 -0.4882
 6491SOL    HW137465   7.522  12.172   8.806 -1.2725 -3.6530  3.6386
 6491SOL    HW237466   7.438  12.283   8.866 -0.8718 -1.5737  0.5888
 6492SOL     OW37467   1.161   1.530   7.027 -0.2653  0.1289  0.1176
 6492SOL    HW137468   1.179   1.496   6.940 -0.7830 -1.7856  0.6950
 6492SOL    HW237469   1.078   1.577   7.019  0.3204  1.0444 -0.6575
 6493SOL     OW37470   6.681  12.374  10.489 -0.7075 -0.3486  0.4808
 6493SOL    HW137471   6.770  12.348  10.465  0.3559  2.5269  0.8131
 6493SOL    HW237472   6.626  12.341  10.418  0.6455 -1.9129  0.1032
 6494SOL     OW37473   4.342   3.924   4.419  0.0169  0.5077  0.4991
 6494SOL    HW137474   4.422   3.910   4.368 -1.4292  1.2540 -2.1446
 6494SOL    HW237475   4.295   3.841   4.413  0.6269 -0.0162  2.2675
 6495SOL     OW37476   0.280   3.927  13.533  0.7619 -0.4258 -0.2543
 6495SOL    HW137477   0.294   3.944  13.626  0.5794  0.1788 -0.3341
 6495SOL    HW237478   0.186   3.937  13.520  0.8393 -0.1139 -0.5809
 6496SOL     OW37479   4.221   0.734  12.550 -0.3403 -0.5063  0.6728
 6496SOL    HW137480   4.129   0.741  12.526  0.3587 -0.4387 -2.4280
 6496SOL    HW237481   4.232   0.794  12.623 -2.5805  0.1048  0.5628
 6497SOL     OW37482  12.540   7.752   4.484 -0.1303 -0.2888 -0.4086
 6497SOL    HW137483  12.526   7.662   4.515  0.9392 -1.2907 -2.6274
 6497SOL    HW237484  12.565   7.800   4.563 -1.6890 -1.6875  1.0081
 6498SOL     OW37485  13.851  12.006  10.519 -0.5233  0.0473  0.0487
 6498SOL    HW137486  13.894  11.975  10.599  1.4782 -2.6769 -1.8697
 6498SOL    HW237487  13.901  12.083  10.493  0.2247 -0.3255  0.3369
 6499SOL     OW37488   8.138   3.993   8.872  0.2673 -0.6378 -0.0142
 6499SOL    HW137489   8.210   3.930   8.873 -0.6473 -1.7152 -0.5490
 6499SOL    HW237490   8.180   4.076   8.852  1.3208 -1.3043 -0.6680
 6500SOL     OW37491   2.671  10.160   1.480 -0.4355 -0.1181  0.4722
 6500SOL    HW137492   2.592  10.161   1.535  0.6282 -0.2645  2.0772
 6500SOL    HW237493   2.733  10.217   1.526  0.5244 -0.2952 -0.5579
 6501SOL     OW37494   3.538   1.098  12.138 -0.2323 -0.1136 -0.3143
 6501SOL    HW137495   3.462   1.097  12.197  0.2576  1.4941  0.4213
 6501SOL    HW237496   3.544   1.189  12.110  0.2695 -0.6289 -1.9402
 6502SOL     OW37497  13.546   1.529   5.585 -0.2721 -0.2124 -0.1444
 6502SOL    HW137498  13.479   1.485   5.637 -0.7836  0.2683 -0.3839
 6502SOL    HW237499  13.499   1.600   5.541  0.4546  0.3385 -0.0568
 6503SOL     OW37500  13.402   6.816   2.837  0.1445 -0.1004 -0.5250
 6503SOL    HW137501  13.309   6.809   2.816  0.3751 -0.6529 -1.4664
 6503SOL    HW237502  13.432   6.725   2.840  0.8818  0.0949 -1.4130
 6504SOL     OW37503   9.758   9.883  12.501 -0.1487 -0.7259 -0.0369
 6504SOL    HW137504   9.813   9.836  12.564  1.3781  0.7653 -0.1932
 6504SOL    HW237505   9.818   9.943  12.457 -1.7013  0.1352 -1.0606
 6505SOL     OW37506   2.861   6.821   0.091 -0.3421 -0.2181 -0.2778
 6505SOL    HW137507   2.820   6.808   0.006 -0.5846 -0.6702 -0.0907
 6505SOL    HW237508   2.789   6.823   0.154 -0.1312 -0.3174 -0.0284
 6506SOL     OW37509  10.059  13.799   4.665 -0.5700  0.1998  0.3915
 6506SOL    HW137510   9.972  13.821   4.633 -0.2127 -0.7047 -1.3094
 6506SOL    HW237511  10.113  13.793   4.586  0.4893 -1.6389  1.1844
 6507SOL     OW37512   6.772  13.655  11.457  0.2125  0.1394  0.6560
 6507SOL    HW137513   6.762  13.615  11.370  2.3385 -1.0743  0.8973
 6507SOL    HW237514   6.833  13.597  11.503 -0.3087  1.1506  2.7308
 6508SOL     OW37515  11.307   0.661   6.805 -0.2826 -0.1052  0.1193
 6508SOL    HW137516  11.322   0.580   6.755  0.3386  0.6959 -1.0293
 6508SOL    HW237517  11.367   0.655   6.879  1.3273  0.2644 -1.1204
 6509SOL     OW37518   7.781   3.906   5.107  0.6040  0.0963  0.5910
 6509SOL    HW137519   7.686   3.919   5.107  0.4964 -0.6474  0.4028
 6509SOL    HW237520   7.803   3.885   5.017  0.8361 -0.4456  0.7668
 6510SOL     OW37521   0.876  12.017   3.888  0.1278 -0.5545 -0.7405
 6510SOL    HW137522   0.843  11.947   3.945  0.4335  0.3284  0.5786
 6510SOL    HW237523   0.819  12.091   3.906  1.5048  0.3726  0.0279
 6511SOL     OW37524   6.358  13.638   3.874  0.1127  0.2662 -0.0542
 6511SOL    HW137525   6.299  13.667   3.805 -0.3376  1.0167  0.6312
 6511SOL    HW237526   6.446  13.659   3.841  0.2623 -2.8456 -2.0512
 6512SOL     OW37527  10.794  13.197  10.800  0.0894  0.1770  0.2086
 6512SOL    HW137528  10.746  13.141  10.738  2.3074 -0.7474 -0.7743
 6512SOL    HW237529  10.874  13.221  10.754  0.6882  1.5166  1.8465
 6513SOL     OW37530   8.111   5.212   8.420  0.0638 -0.0036  0.2376
 6513SOL    HW137531   8.090   5.177   8.506  0.2994 -2.2891 -0.5556
 6513SOL    HW237532   8.040   5.180   8.363  1.3073 -0.8556 -0.8990
 6514SOL     OW37533   5.687   9.512  13.983  0.3114 -0.3079  0.2535
 6514SOL    HW137534   5.734   9.432  13.960 -0.9465 -1.0303  0.1529
 6514SOL    HW237535   5.643   9.492  14.065 -1.5136 -0.3778 -0.7035
 6515SOL     OW37536  12.695   9.580   3.046 -0.4053 -0.2681  0.0131
 6515SOL    HW137537  12.779   9.558   3.008 -1.1711 -0.7717 -1.4530
 6515SOL    HW237538  12.630   9.547   2.984 -1.6820  1.0651  0.5652
 6516SOL     OW37539   6.150   9.449   6.736 -0.2830 -0.2485  0.3349
 6516SOL    HW137540   6.107   9.454   6.821 -0.0459  0.7186  0.4191
 6516SOL    HW237541   6.200   9.367   6.738 -0.5436 -0.3923  0.9927
 6517SOL     OW37542  11.560   5.963   8.763 -0.3649 -0.2525  0.1376
 6517SOL    HW137543  11.557   5.981   8.669 -2.2391  1.2422  0.4119
 6517SOL    HW237544  11.582   6.048   8.803  1.1049 -1.0210  1.0478
 6518SOL     OW37545  11.555  11.739  13.118 -0.1131 -0.1378 -0.0304
 6518SOL    HW137546  11.494  11.693  13.176  0.2568 -0.7917 -0.1539
 6518SOL    HW237547  11.544  11.831  13.141 -0.5745 -0.3162  0.5019
 6519SOL     OW37548   2.887  10.829   8.600 -0.0804 -0.2336  0.8607
 6519SOL    HW137549   2.865  10.752   8.652  1.4066 -1.0081  0.3973
 6519SOL    HW237550   2.858  10.903   8.653 -2.5048 -1.0897  0.8544
 6520SOL     OW37551  12.622  12.264   0.335  0.0746  0.4773  0.6160
 6520SOL    HW137552  12.564  12.312   0.394  0.5468  0.6322  0.9552
 6520SOL    HW237553  12.698  12.242   0.388 -0.9771 -2.5131  1.1197
 6521SOL     OW37554  10.317   7.733   8.420  0.3255  0.1350 -0.3662
 6521SOL    HW137555  10.397   7.687   8.395 -0.3927 -1.4572  0.1456
 6521SOL    HW237556  10.279   7.762   8.337 -0.9382 -3.2213 -1.1271
 6522SOL     OW37557   1.670  13.313   7.985  0.2526  0.3959 -0.3235
 6522SOL    HW137558   1.640  13.222   7.992 -1.4673  0.9412 -0.0939
 6522SOL    HW237559   1.762  13.309   8.010 -0.1055 -1.1051  0.9837
 6523SOL     OW37560   5.938   6.364   7.054  0.7386  0.1130 -0.0606
 6523SOL    HW137561   5.956   6.344   7.146 -1.8087 -2.2016  0.0515
 6523SOL    HW237562   5.844   6.381   7.051  0.9000  0.9610 -2.1524
 6524SOL     OW37563   5.875   0.303   1.103 -0.7891  0.2137 -0.6137
 6524SOL    HW137564   5.842   0.350   1.026  0.3157  1.0850 -0.5962
 6524SOL    HW237565   5.917   0.225   1.067 -0.9192  0.2433 -0.8327
 6525SOL     OW37566   3.846  11.651   5.832  0.3350  0.2367 -0.0116
 6525SOL    HW137567   3.861  11.557   5.823 -1.3298  0.1491 -2.9572
 6525SOL    HW237568   3.919  11.691   5.786 -0.0294  0.3191 -0.5194
 6526SOL     OW37569   2.852  12.359   8.756 -0.3887 -0.3203 -0.4678
 6526SOL    HW137570   2.892  12.276   8.781  0.0924 -0.4660 -1.6589
 6526SOL    HW237571   2.841  12.353   8.661 -2.6970 -0.0297 -0.2775
 6527SOL     OW37572  13.972   6.426   7.024  0.1161  0.2667  0.6709
 6527SOL    HW137573  13.989   6.391   7.112  0.5951 -0.9189  0.1383
 6527SOL    HW237574  13.924   6.355   6.980  1.9330 -0.1512 -0.7480
 6528SOL     OW37575  12.124   5.369   9.197  0.0722  0.6469 -0.5833
 6528SOL    HW137576  12.056   5.364   9.129 -1.1406 -1.2313  0.6774
 6528SOL    HW237577  12.189   5.304   9.171 -1.2648 -1.3961  0.8421
 6529SOL     OW37578   5.149  11.429  10.330  0.2851 -0.8161  0.0303
 6529SOL    HW137579   5.193  11.507  10.362  0.5117 -0.5294 -0.9398
 6529SOL    HW237580   5.139  11.373  10.407 -2.4620  1.3097  1.3836
 6530SOL     OW37581   4.376  14.030   0.761  0.0526 -0.3429 -0.5941
 6530SOL    HW137582   4.297  14.035   0.815  1.3927  0.6800  1.4365
 6530SOL    HW237583   4.387  14.119   0.727  0.1783 -0.5470 -1.0893
 6531SOL     OW37584   9.729   9.321   3.008  0.5396 -0.0275 -0.0941
 6531SOL    HW137585   9.660   9.377   3.042 -1.0130 -0.9982 -1.5103
 6531SOL    HW237586   9.797   9.381   2.978  0.7407  0.9227  2.0555
 6532SOL     OW37587   3.197  10.101  13.437 -0.1826 -0.0620 -0.6720
 6532SOL    HW137588   3.156  10.097  13.351 -1.5345 -1.7014 -0.0056
 6532SOL    HW237589   3.126  10.120  13.498  0.5971  0.1944  0.1925
 6533SOL     OW37590   2.553   8.600   7.592  0.4248  0.4094  0.0094
 6533SOL    HW137591   2.565   8.695   7.599 -1.0370  0.6528 -0.3708
 6533SOL    HW237592   2.463   8.590   7.560  0.7515 -1.0958 -0.5043
 6534SOL     OW37593   3.366  11.475   7.141  0.1573 -0.0184 -0.3028
 6534SOL    HW137594   3.354  11.470   7.236  2.6679  1.7807  0.2470
 6534SOL    HW237595   3.283  11.447   7.104 -1.1080 -0.2242  2.4458
 6535SOL     OW37596   7.456  10.686   5.066  0.1416 -0.4209  0.2809
 6535SOL    HW137597   7.426  10.595   5.073 -0.8504 -0.0399  1.1673
 6535SOL    HW237598   7.463  10.701   4.971 -1.0150 -1.0130  0.0800
 6536SOL     OW37599   5.820  12.607   3.228  0.6261  0.2614 -0.0348
 6536SOL    HW137600   5.751  12.617   3.293  1.2290  1.4163  0.4676
 6536SOL    HW237601   5.871  12.688   3.236  0.0991  0.9316 -2.6773
 6537SOL     OW37602   6.711  13.061   5.319  1.0614  0.1052  0.5382
 6537SOL    HW137603   6.801  13.029   5.311  0.4651 -1.2367 -1.5103
 6537SOL    HW237604   6.691  13.099   5.233 -0.9123 -1.3211  0.2961
 6538SOL     OW37605  11.477   4.619  12.343  0.7727 -0.3467 -0.2675
 6538SOL    HW137606  11.470   4.714  12.344  0.4469 -0.2457  3.2393
 6538SOL    HW237607  11.551   4.600  12.401 -0.0400 -2.1935  0.2621
 6539SOL     OW37608   1.151   9.605   0.661  0.0970 -0.4499  0.0998
 6539SOL    HW137609   1.194   9.691   0.663  2.8270 -1.7066  0.6332
 6539SOL    HW237610   1.159   9.572   0.750 -1.8473 -0.8866  0.1491
 6540SOL     OW37611  12.244   7.340   1.753 -0.2508  0.8806  0.1853
 6540SOL    HW137612  12.180   7.392   1.705  0.0082  2.3442  1.3730
 6540SOL    HW237613  12.243   7.376   1.842  2.5332  1.2735  0.1376
 6541SOL     OW37614   6.599  11.328   4.428  0.4272  0.0053 -0.3962
 6541SOL    HW137615   6.621  11.421   4.433  1.3994 -0.2798  1.8053
 6541SOL    HW237616   6.673  11.289   4.380  1.0719  0.1207  0.4626
 6542SOL     OW37617   7.394   8.619   1.583  0.4086 -0.4728 -0.0811
 6542SOL    HW137618   7.365   8.639   1.672  2.7152  1.3330  0.3684
 6542SOL    HW237619   7.368   8.695   1.531  1.4606 -0.2558 -0.3198
 6543SOL     OW37620   5.961  11.632   5.044 -0.5410  0.0926 -0.0486
 6543SOL    HW137621   5.929  11.572   5.111 -0.9773 -0.3439 -0.6360
 6543SOL    HW237622   6.051  11.651   5.070 -0.6718 -0.1423  0.6034
 6544SOL     OW37623   4.221   7.453  14.065 -0.5186 -0.3108  0.1512
 6544SOL    HW137624   4.255   7.389  14.128 -1.2242 -0.4515  0.3961
 6544SOL    HW237625   4.126   7.444  14.070 -0.6005  0.1156 -0.4874
 6545SOL     OW37626  12.318   4.223   1.042 -0.6182  0.8755 -0.4728
 6545SOL    HW137627  12.237   4.189   1.079 -0.9879 -0.1245 -2.0771
 6545SOL    HW237628  12.342   4.159   0.975  3.3201 -0.6818  2.0950
 6546SOL     OW37629   4.209  11.593   7.000 -0.4106 -0.1979 -0.1154
 6546SOL    HW137630   4.136  11.533   7.019 -0.7486  0.6001  1.2981
 6546SOL    HW237631   4.172  11.658   6.940 -0.9000  0.2070  0.6006
 6547SOL     OW37632   8.345   5.532   3.958 -0.1276 -0.4502  0.3466
 6547SOL    HW137633   8.429   5.573   3.980  0.2880 -1.1146  0.0271
 6547SOL    HW237634   8.336   5.546   3.864 -0.5119 -0.1455  0.4252
 6548SOL     OW37635   5.338   2.558  11.267  0.5814  0.0346 -0.3713
 6548SOL    HW137636   5.254   2.512  11.265  1.2662 -1.2459 -1.5907
 6548SOL    HW237637   5.370   2.547  11.357 -2.1190  3.6597  1.2815
 6549SOL     OW37638   1.600   1.782   1.645 -0.6835 -0.1505  0.4716
 6549SOL    HW137639   1.679   1.732   1.627  0.1718  1.3822 -0.1881
 6549SOL    HW237640   1.603   1.855   1.583 -2.6091 -0.0368  0.4518
 6550SOL     OW37641  12.906   8.938   4.024 -0.0805 -0.2633 -0.0909
 6550SOL    HW137642  13.000   8.936   4.040  0.0308 -0.5509 -0.7622
 6550SOL    HW237643  12.878   8.847   4.034 -0.5215  0.0197  1.4337
 6551SOL     OW37644  11.747  10.403   5.980  0.1208  0.1445 -0.4959
 6551SOL    HW137645  11.662  10.423   6.020 -0.1662 -0.8769 -0.5652
 6551SOL    HW237646  11.725  10.355   5.901  0.7465  0.8108 -1.0869
 6552SOL     OW37647  13.399   1.226   7.068  0.4123 -0.0502  0.3810
 6552SOL    HW137648  13.485   1.267   7.080 -0.5796  1.9435  1.2809
 6552SOL    HW237649  13.341   1.276   7.126 -1.1778 -1.9850  0.5661
 6553SOL     OW37650  10.911   4.898   4.724 -0.5318 -0.1933  0.5269
 6553SOL    HW137651  10.930   4.952   4.647 -1.5593 -1.0707 -0.3972
 6553SOL    HW237652  10.890   4.812   4.687 -0.0812 -0.9009  1.8715
 6554SOL     OW37653   9.381   1.042  10.078 -0.5990  0.0989 -0.0164
 6554SOL    HW137654   9.445   1.016  10.144 -1.4436 -0.1239  0.7232
 6554SOL    HW237655   9.330   0.963  10.061 -0.6570  0.2622 -0.6454
 6555SOL     OW37656  10.863   1.017   7.307 -0.1380  0.2633  0.1391
 6555SOL    HW137657  10.795   0.950   7.296  0.0210  0.3523 -1.4779
 6555SOL    HW237658  10.815   1.100   7.308 -0.1053  0.2891 -0.4204
 6556SOL     OW37659   4.945  12.480   1.567 -0.1336 -0.3698  0.5679
 6556SOL    HW137660   4.995  12.557   1.542  0.2721 -0.6355  0.5608
 6556SOL    HW237661   4.909  12.502   1.653 -0.6495  0.1217  0.2383
 6557SOL     OW37662  10.390   1.209  11.374  0.0810 -0.1724 -0.9868
 6557SOL    HW137663  10.459   1.147  11.399 -0.3834 -0.4259 -0.3075
 6557SOL    HW237664  10.410   1.289  11.422 -0.7386 -0.6184  0.1346
 6558SOL     OW37665   7.083   9.443   4.268  0.3671 -0.2206 -0.2653
 6558SOL    HW137666   7.115   9.412   4.353 -0.1310 -3.4992 -1.1600
 6558SOL    HW237667   6.998   9.400   4.257  1.0066 -0.9859 -2.9700
 6559SOL     OW37668   0.301   3.816   5.387  0.2378 -0.0473  0.1534
 6559SOL    HW137669   0.288   3.781   5.299  1.3415 -1.3911  0.4813
 6559SOL    HW237670   0.290   3.910   5.378 -0.3768 -0.2356 -1.2717
 6560SOL     OW37671  12.958  14.106   0.413 -0.3044  0.1127  0.4140
 6560SOL    HW137672  12.880  14.132   0.363 -0.1012 -0.8845 -0.4341
 6560SOL    HW237673  13.020  14.074   0.347  0.7286  0.6237  1.1065
 6561SOL     OW37674  10.825   0.650   5.913  0.4362 -0.0270  0.3050
 6561SOL    HW137675  10.881   0.627   5.839 -0.5681 -1.4145 -0.0618
 6561SOL    HW237676  10.827   0.573   5.970  0.0367  0.4561  0.9866
 6562SOL     OW37677   2.271   4.164   6.944 -0.5994 -0.1874 -0.2828
 6562SOL    HW137678   2.344   4.206   6.989 -0.9787  1.4362 -1.0816
 6562SOL    HW237679   2.309   4.086   6.903  0.3080 -0.2455  0.6567
 6563SOL     OW37680  12.589  12.966   6.481  0.5839  0.0216 -0.3388
 6563SOL    HW137681  12.669  13.013   6.456  1.0392 -0.7600 -0.3924
 6563SOL    HW237682  12.518  13.023   6.452  1.1141  0.8802 -0.0098
 6564SOL     OW37683   1.195   3.634   4.762  0.6183 -0.1704 -0.1686
 6564SOL    HW137684   1.148   3.555   4.735 -3.2449  1.3274  1.3740
 6564SOL    HW237685   1.183   3.695   4.689  1.4515 -0.2244 -0.3522
 6565SOL     OW37686   9.256   3.915   1.146 -0.0182 -0.5041 -0.2342
 6565SOL    HW137687   9.166   3.947   1.156  0.2860  0.8329 -1.4671
 6565SOL    HW237688   9.302   3.987   1.103  1.4201 -1.5281 -0.4660
 6566SOL     OW37689   2.021   4.867   1.953  0.4239 -0.8312  0.6952
 6566SOL    HW137690   2.039   4.955   1.920 -1.2912 -0.2229  1.2605
 6566SOL    HW237691   2.063   4.866   2.040 -0.5771 -0.1119  1.2095
 6567SOL     OW37692   5.777   4.708   2.248 -0.0472 -0.7344  0.4036
 6567SOL    HW137693   5.763   4.800   2.224  0.3328 -0.6061  0.6737
 6567SOL    HW237694   5.689   4.673   2.259 -0.2078 -0.5170 -0.1227
 6568SOL     OW37695   0.914   6.357   2.096  1.3015 -0.6288  0.7870
 6568SOL    HW137696   0.883   6.356   2.006 -0.0690 -0.0286  1.2153
 6568SOL    HW237697   0.996   6.405   2.093  2.3314 -2.3677 -0.4201
 6569SOL     OW37698   2.435   0.545   1.325  0.0338  0.4993  0.0489
 6569SOL    HW137699   2.457   0.456   1.299 -0.5359  0.6797 -1.0862
 6569SOL    HW237700   2.385   0.535   1.406 -2.9467 -0.4887 -1.7640
 6570SOL     OW37701   6.558   1.958   0.465  0.3848  0.0192  0.2081
 6570SOL    HW137702   6.553   2.010   0.384 -2.5639 -1.2558 -0.5661
 6570SOL    HW237703   6.531   2.019   0.534 -0.9989  0.1129 -0.3848
 6571SOL     OW37704  13.616   3.437  10.236  0.6613  0.2131  0.0796
 6571SOL    HW137705  13.548   3.430  10.303  2.0944 -0.1740  1.5632
 6571SOL    HW237706  13.576   3.488  10.167 -0.7800  0.9297  1.3763
 6572SOL     OW37707  13.115   8.542  11.785 -0.2704 -0.3985 -0.0547
 6572SOL    HW137708  13.134   8.497  11.867  0.2276  0.4951  0.3401
 6572SOL    HW237709  13.201   8.561  11.747 -0.4567  0.4761 -0.0593
 6573SOL     OW37710   0.405   2.532   0.275 -0.3983  0.7493  0.3319
 6573SOL    HW137711   0.372   2.444   0.292  0.3091  0.7912  2.0728
 6573SOL    HW237712   0.327   2.587   0.272 -0.8187  0.1267 -0.4741
 6574SOL     OW37713   4.394  10.393   2.808  0.1127  0.2237 -0.4731
 6574SOL    HW137714   4.482  10.431   2.805  0.1821  0.2768  1.0983
 6574SOL    HW237715   4.407  10.300   2.788  0.2710  0.5426 -1.9371
 6575SOL     OW37716   3.034   8.483   7.767  0.4985  0.7679 -0.5311
 6575SOL    HW137717   3.027   8.388   7.777  1.2422  0.6821 -0.7985
 6575SOL    HW237718   3.127   8.499   7.754  0.4237  1.5727 -0.1438
 6576SOL     OW37719   8.035   3.313   7.463  0.6345  0.1533 -0.0919
 6576SOL    HW137720   8.128   3.291   7.454  1.0334  2.0417 -1.2599
 6576SOL    HW237721   8.033   3.409   7.455 -1.3912  0.1639  0.1849
 6577SOL     OW37722   2.937   9.352   5.989  0.5368  0.3974 -0.2070
 6577SOL    HW137723   2.877   9.418   6.022  2.6988  2.4735 -0.2167
 6577SOL    HW237724   2.963   9.302   6.066 -1.2357 -0.6634 -0.2255
 6578SOL     OW37725   5.607   6.530  13.899 -0.4113 -0.5891  0.0285
 6578SOL    HW137726   5.687   6.581  13.888 -1.9231  2.0159  0.4449
 6578SOL    HW237727   5.563   6.537  13.814  0.3288 -3.1404 -0.6552
 6579SOL     OW37728   1.968   0.570   1.763  0.4872 -0.3125 -0.2469
 6579SOL    HW137729   1.881   0.602   1.737  0.7514  0.6983  0.0561
 6579SOL    HW237730   1.959   0.475   1.764 -1.0961 -0.2079  1.3790
 6580SOL     OW37731   5.932   1.021   0.363 -0.1077 -0.1604 -0.2315
 6580SOL    HW137732   5.986   1.001   0.440  1.2923  1.0428 -0.8464
 6580SOL    HW237733   5.970   0.969   0.292 -1.7651 -1.7260 -0.0381
 6581SOL     OW37734   0.219   5.854   6.263  0.5479 -0.1878 -0.1037
 6581SOL    HW137735   0.136   5.868   6.308 -0.4225  0.6999 -2.0735
 6581SOL    HW237736   0.214   5.765   6.229  0.9337 -0.5638  0.7999
 6582SOL     OW37737   4.725   7.599   3.736 -0.2906  0.4298 -0.3971
 6582SOL    HW137738   4.636   7.632   3.720 -0.9410 -1.2916 -0.6022
 6582SOL    HW237739   4.767   7.602   3.651 -1.2824 -1.7748 -1.0400
 6583SOL     OW37740   8.618   8.901  14.003 -0.2705  0.5674  0.5919
 6583SOL    HW137741   8.626   8.951  14.084  0.4645  0.2202  0.7397
 6583SOL    HW237742   8.681   8.829  14.012 -0.0187  0.6445 -0.3738
 6584SOL     OW37743   3.975   9.750   6.458  0.5221 -0.3160  0.4848
 6584SOL    HW137744   4.015   9.752   6.371  0.1034 -1.3428  0.2485
 6584SOL    HW237745   3.938   9.837   6.470  1.5371  0.1887  0.1064
 6585SOL     OW37746  13.718  10.243   5.634 -0.1170 -0.1896  0.3489
 6585SOL    HW137747  13.675  10.328   5.622 -0.4054 -0.2913  0.6311
 6585SOL    HW237748  13.753  10.221   5.548 -0.3547  0.0479  0.1888
 6586SOL     OW37749  10.591   6.389   4.091 -0.0764 -0.2358 -0.4261
 6586SOL    HW137750  10.633   6.315   4.135 -1.1692 -1.3684 -1.2170
 6586SOL    HW237751  10.602   6.462   4.152  2.5380 -0.5750 -0.3711
 6587SOL     OW37752   0.956   8.274  10.928  0.3176 -0.1945  0.1969
 6587SOL    HW137753   0.979   8.357  10.887  1.5556  0.2997  1.8074
 6587SOL    HW237754   0.863   8.263  10.910  0.0582  1.7107  0.2491
 6588SOL     OW37755  11.554  10.283   7.651 -0.1914 -0.2460 -0.3502
 6588SOL    HW137756  11.468  10.277   7.694 -1.3194 -4.1205 -2.6501
 6588SOL    HW237757  11.535  10.269   7.559  2.9440 -1.8842 -0.8665
 6589SOL     OW37758   6.467   9.322   3.233 -0.0639 -0.0907  0.3030
 6589SOL    HW137759   6.473   9.264   3.309  1.5813  0.0801  0.3379
 6589SOL    HW237760   6.557   9.351   3.218 -0.6465  1.3562 -0.5739
 6590SOL     OW37761   6.855   2.193  12.852 -0.1802 -0.1349  0.2488
 6590SOL    HW137762   6.779   2.137  12.839  0.8652 -1.6418  0.3575
 6590SOL    HW237763   6.928   2.132  12.867  0.6766  1.2626  2.2687
 6591SOL     OW37764   2.434   5.167   1.760 -0.1044  0.0769  0.3646
 6591SOL    HW137765   2.339   5.166   1.752 -0.0870 -0.6943  0.1704
 6591SOL    HW237766   2.450   5.185   1.853 -0.4050  1.5088  0.1652
 6592SOL     OW37767   4.056   2.925  13.041  0.5042  0.2235 -0.0854
 6592SOL    HW137768   4.055   2.947  13.134  0.0170 -2.9456  0.7642
 6592SOL    HW237769   4.125   2.860  13.031  0.8617  0.8251 -2.0683
 6593SOL     OW37770   3.677  13.956   8.688  0.1633 -0.4528 -0.1161
 6593SOL    HW137771   3.710  13.873   8.652  1.1374 -0.1120 -0.0587
 6593SOL    HW237772   3.627  13.995   8.617  0.0032 -0.9294 -0.2640
 6594SOL     OW37773   4.278   1.591  12.278 -0.4430 -0.3622  0.1992
 6594SOL    HW137774   4.371   1.569  12.271 -0.7582 -1.8282  0.2869
 6594SOL    HW237775   4.277   1.682  12.308  0.9558  0.5754 -2.2916
 6595SOL     OW37776   5.099   7.506   4.584  0.4707  0.2233 -0.2668
 6595SOL    HW137777   5.130   7.576   4.527  0.4841  0.8883  0.5434
 6595SOL    HW237778   5.136   7.526   4.670 -0.2272 -0.3060  0.1710
 6596SOL     OW37779   9.582   6.893  13.542  0.4882 -0.0321 -0.4440
 6596SOL    HW137780   9.549   6.812  13.581 -0.0673  1.0070  1.3711
 6596SOL    HW237781   9.673   6.898  13.572  0.2472  0.4559  0.2308
 6597SOL     OW37782   8.174   6.687   0.430 -0.0366  0.6330 -0.0500
 6597SOL    HW137783   8.247   6.634   0.462  0.8574  2.2824  0.7327
 6597SOL    HW237784   8.139   6.730   0.508 -1.4768  0.3522 -0.5017
 6598SOL     OW37785   8.977   1.737   7.237  0.1535  0.2365 -0.1897
 6598SOL    HW137786   9.050   1.725   7.297 -0.4609 -1.8593  0.2148
 6598SOL    HW237787   8.924   1.658   7.248 -1.6311  1.2363 -1.2152
 6599SOL     OW37788  12.101   9.697   2.524  0.2040  0.3635  0.4633
 6599SOL    HW137789  12.127   9.764   2.461  0.2262 -0.8720 -0.9009
 6599SOL    HW237790  12.018   9.729   2.560  0.5796  1.4602  0.3875
 6600SOL     OW37791   4.229   0.427   4.256 -0.3516  0.1125  0.2522
 6600SOL    HW137792   4.257   0.349   4.305  0.0626 -0.8212 -1.4012
 6600SOL    HW237793   4.293   0.436   4.186 -0.6724  1.6783  0.1208
 6601SOL     OW37794  11.145   7.020   5.886  0.1714  0.4018  0.3193
 6601SOL    HW137795  11.076   6.979   5.939  0.2867  0.6054  0.6297
 6601SOL    HW237796  11.219   6.959   5.892  0.0134  0.1730 -0.0306
 6602SOL     OW37797   3.712   5.982   7.105  0.0956 -0.2010 -0.2389
 6602SOL    HW137798   3.765   5.971   7.026  2.4038  0.8857  1.0403
 6602SOL    HW237799   3.624   6.002   7.073  1.0995  0.8904 -2.5458
 6603SOL     OW37800  10.354   3.918   8.845 -0.1126  0.4322 -0.3369
 6603SOL    HW137801  10.337   3.824   8.839  0.5818  0.2405  0.4234
 6603SOL    HW237802  10.279   3.953   8.893  1.4939 -0.4468  3.2290
 6604SOL     OW37803   7.580  13.021   7.259  0.4280  0.2879 -0.1354
 6604SOL    HW137804   7.515  12.975   7.206 -0.0865  1.1808 -0.2964
 6604SOL    HW237805   7.614  12.954   7.318 -1.7458  0.1231  1.0242
 6605SOL     OW37806   5.783  10.234   6.882  0.0603  0.2351 -0.2905
 6605SOL    HW137807   5.739  10.156   6.917  0.6607 -0.3671 -0.8517
 6605SOL    HW237808   5.747  10.306   6.933  0.9237 -0.5962  1.6146
 6606SOL     OW37809   5.148  10.458   7.543  0.3288  0.2817 -0.0394
 6606SOL    HW137810   5.107  10.519   7.605  0.7826  1.1993 -0.6233
 6606SOL    HW237811   5.240  10.457   7.569  0.2145 -0.6607  0.3657
 6607SOL     OW37812   4.975  11.033   3.065  0.3028 -0.1344 -0.3975
 6607SOL    HW137813   4.924  11.072   2.993  1.0434  1.5668 -0.0549
 6607SOL    HW237814   5.014  10.955   3.027  2.0060  1.5813 -2.3980
 6608SOL     OW37815   8.217   8.528   1.921 -0.4135 -0.0536  0.3529
 6608SOL    HW137816   8.245   8.491   1.837 -1.7273  0.9102 -0.5616
 6608SOL    HW237817   8.184   8.453   1.971  1.4062 -0.8064  0.4705
 6609SOL     OW37818   5.390  11.461   2.368 -0.2690 -0.1478 -0.4488
 6609SOL    HW137819   5.330  11.524   2.408 -1.2556  0.1439 -2.2834
 6609SOL    HW237820   5.470  11.510   2.351 -0.1738 -0.0406  0.2603
 6610SOL     OW37821   3.357   8.302  10.951  0.1183  0.4960 -0.2937
 6610SOL    HW137822   3.265   8.328  10.959  0.3290  1.1015  0.2534
 6610SOL    HW237823   3.398   8.374  10.903  0.1161 -0.2360 -1.4200
 6611SOL     OW37824  13.035  13.489  13.956 -0.1977  0.1881  0.4233
 6611SOL    HW137825  12.960  13.457  13.906  1.2331 -0.5401 -1.4067
 6611SOL    HW237826  13.012  13.579  13.980 -1.0117  0.5540 -1.5245
 6612SOL     OW37827   0.767  12.445   7.803  0.4729  0.0183 -0.4789
 6612SOL    HW137828   0.788  12.453   7.896 -2.0267  1.0805  0.0712
 6612SOL    HW237829   0.718  12.363   7.796 -0.1552  0.4079 -0.6898
 6613SOL     OW37830   2.970   4.802  13.690  0.0532 -0.0173 -0.1104
 6613SOL    HW137831   2.899   4.813  13.753  1.5779 -1.2903  2.0071
 6613SOL    HW237832   2.968   4.882  13.637 -2.3107  0.4012  0.4801
 6614SOL     OW37833  11.229   6.594   0.298  0.2361 -0.0713  0.2295
 6614SOL    HW137834  11.208   6.687   0.310  2.4514  0.5687 -0.2399
 6614SOL    HW237835  11.230   6.582   0.203 -0.7191 -0.7727  0.3000
 6615SOL     OW37836   2.921  11.397   1.865  0.2916 -0.0250  0.0097
 6615SOL    HW137837   2.843  11.451   1.876 -0.4140 -1.2246  1.1375
 6615SOL    HW237838   2.916  11.366   1.775 -0.0935  0.5431 -0.1733
 6616SOL     OW37839   7.511  11.808  12.102 -0.1167  0.1378 -0.0473
 6616SOL    HW137840   7.576  11.774  12.164 -1.5750  0.1749  1.5960
 6616SOL    HW237841   7.429  11.768  12.131 -0.7383 -0.5895 -2.5924
 6617SOL     OW37842   1.245   5.959   7.837  0.1560 -0.1141  0.3573
 6617SOL    HW137843   1.310   5.913   7.890 -1.1048 -0.8832  1.2866
 6617SOL    HW237844   1.268   6.051   7.845  1.0003 -0.3555  0.8333
 6618SOL     OW37845   4.436  11.098   0.194  0.0483  0.4440  0.1144
 6618SOL    HW137846   4.454  11.113   0.101  2.3930  2.8653  0.8257
 6618SOL    HW237847   4.349  11.136   0.207  0.3090  1.4218 -0.8161
 6619SOL     OW37848   6.695   1.033  12.164 -0.1229  0.4628 -0.0418
 6619SOL    HW137849   6.729   1.018  12.252 -0.3459  0.1601 -0.0030
 6619SOL    HW237850   6.637   1.109  12.173  3.6699  3.7656 -0.9045
 6620SOL     OW37851   9.539   6.618  12.312  0.7727  0.4418  0.8302
 6620SOL    HW137852   9.564   6.566  12.236  0.0203  1.4880 -0.1729
 6620SOL    HW237853   9.591   6.698  12.305  1.1533  0.2856  1.7665
 6621SOL     OW37854   6.627  11.689   9.394 -0.5062 -0.3125  0.1045
 6621SOL    HW137855   6.686  11.616   9.376 -0.0644  0.1521 -0.3593
 6621SOL    HW237856   6.561  11.684   9.326 -0.3911 -0.1910 -0.0162
 6622SOL     OW37857   3.554   3.470   0.101  0.3227 -0.0250 -0.1209
 6622SOL    HW137858   3.573   3.436   0.013 -2.2057 -2.0590  0.0070
 6622SOL    HW237859   3.607   3.417   0.160 -0.4815 -0.9823 -0.2298
 6623SOL     OW37860   6.467   2.844   9.026  0.5045  0.6035  0.2603
 6623SOL    HW137861   6.507   2.759   9.005  0.7016  1.2407 -2.2100
 6623SOL    HW237862   6.381   2.821   9.064 -1.2845 -0.8515 -4.0564
 6624SOL     OW37863  11.172   9.923  11.693 -0.1708 -0.5507 -0.3078
 6624SOL    HW137864  11.252   9.894  11.648  0.0636 -2.1177  1.0186
 6624SOL    HW237865  11.101   9.889  11.639  0.0240  0.5404 -1.3030
 6625SOL     OW37866  13.294   2.947  11.433  0.0622  0.1327  0.0186
 6625SOL    HW137867  13.256   2.866  11.466  0.7045 -0.0984  0.2064
 6625SOL    HW237868  13.241   2.969  11.356  0.1864 -0.7182 -0.3111
 6626SOL     OW37869  12.350   7.256   8.503 -0.0003  0.0479 -0.6342
 6626SOL    HW137870  12.419   7.260   8.436 -0.1267 -0.7325 -0.8139
 6626SOL    HW237871  12.269   7.243   8.454 -0.4530  2.0612 -0.5102
 6627SOL     OW37872   5.582  12.799   9.209 -0.0434  0.2093 -0.3853
 6627SOL    HW137873   5.619  12.813   9.122 -1.4957  2.9618 -0.6770
 6627SOL    HW237874   5.647  12.837   9.268 -0.1545  0.5755 -0.4941
 6628SOL     OW37875   7.409   4.643   8.057 -0.3796  0.5234 -0.3757
 6628SOL    HW137876   7.371   4.659   7.971 -2.4364 -0.7583  0.2357
 6628SOL    HW237877   7.406   4.729   8.100 -1.9349  0.6282 -0.6324
 6629SOL     OW37878   1.130   2.081  13.213  0.0307  0.3194  0.0914
 6629SOL    HW137879   1.173   2.120  13.289  1.6659  1.6634 -1.4298
 6629SOL    HW237880   1.037   2.091  13.230  0.3794  1.8589  1.2862
 6630SOL     OW37881   9.262  11.184  12.864 -0.3520  0.2989 -0.1563
 6630SOL    HW137882   9.261  11.098  12.906  0.6050 -0.8412 -2.2985
 6630SOL    HW237883   9.183  11.185  12.810 -0.8882  1.2092  0.6151
 6631SOL     OW37884   4.937   4.933   8.086  0.3450 -0.1784 -0.0673
 6631SOL    HW137885   5.025   4.896   8.091  1.1424  1.2593 -2.1472
 6631SOL    HW237886   4.951   5.027   8.072 -1.3522 -0.2990 -3.9552
 6632SOL     OW37887   8.715   4.751   4.252  0.1030  0.9463  0.1103
 6632SOL    HW137888   8.637   4.749   4.308  0.8671 -0.2508  1.1862
 6632SOL    HW237889   8.785   4.783   4.309  0.7920  0.2190 -0.3011
 6633SOL     OW37890  10.220  12.549   7.683  0.4385  0.4447  0.3591
 6633SOL    HW137891  10.219  12.520   7.592 -1.2202  0.7653  0.2396
 6633SOL    HW237892  10.312  12.569   7.702  0.5686  2.3726 -1.8875
 6634SOL     OW37893   4.422  11.978   7.296  0.3827 -0.6484  0.0514
 6634SOL    HW137894   4.460  12.044   7.237  0.5477 -0.7759  0.0150
 6634SOL    HW237895   4.431  11.895   7.249 -0.8259 -0.5580 -0.3885
 6635SOL     OW37896   3.569   0.497   2.443 -0.0860  0.1463  0.0122
 6635SOL    HW137897   3.544   0.588   2.431  1.3195  0.2829 -2.6239
 6635SOL    HW237898   3.493   0.456   2.486 -1.5169  2.1251 -0.5255
 6636SOL     OW37899  11.856   2.170   8.788 -0.2071  0.2052  0.2501
 6636SOL    HW137900  11.814   2.177   8.874  1.0329  2.3320  0.7352
 6636SOL    HW237901  11.935   2.119   8.804 -0.8097 -0.8580 -0.0112
 6637SOL     OW37902   7.188   2.786  13.122  0.4652  0.5169 -0.7053
 6637SOL    HW137903   7.150   2.819  13.040 -0.5306 -0.6023 -0.7290
 6637SOL    HW237904   7.282   2.778  13.103  0.4453  1.5362 -1.2875
 6638SOL     OW37905   5.747   2.573   2.294 -0.3816 -0.2133 -0.8275
 6638SOL    HW137906   5.727   2.667   2.298  1.7745  0.2579  0.1746
 6638SOL    HW237907   5.842   2.568   2.303 -0.4518 -2.5042 -0.8339
 6639SOL     OW37908  11.234   0.196   7.916  0.5572  0.4360  0.4789
 6639SOL    HW137909  11.202   0.280   7.950 -0.9373  1.1511 -2.3280
 6639SOL    HW237910  11.192   0.188   7.830  3.6057 -1.3960 -1.0170
 6640SOL     OW37911  10.509  11.250   5.897 -0.2164  0.2166  0.4337
 6640SOL    HW137912  10.438  11.258   5.960  0.5917  2.1218  1.2094
 6640SOL    HW237913  10.513  11.157   5.875 -3.3814  0.1365 -0.2152
 6641SOL     OW37914  13.180   3.517  12.563  0.4375  0.1187  0.0859
 6641SOL    HW137915  13.259   3.568  12.576  1.8823 -1.9322 -0.1496
 6641SOL    HW237916  13.138   3.516  12.650  1.1931  0.4106  0.4604
 6642SOL     OW37917  12.347   7.771   8.708  0.0895  0.2982  0.6950
 6642SOL    HW137918  12.275   7.763   8.771  1.3922 -1.6321  2.0380
 6642SOL    HW237919  12.330   7.702   8.644  0.8044 -0.2749  1.1090
 6643SOL     OW37920   6.702   8.590  12.667  0.6260 -0.1165  0.1826
 6643SOL    HW137921   6.645   8.661  12.695 -0.7743 -1.3155  0.4922
 6643SOL    HW237922   6.692   8.523  12.734  0.0949 -1.5369 -1.2363
 6644SOL     OW37923   8.742   6.155  12.073  0.3445  0.2850  0.1531
 6644SOL    HW137924   8.672   6.155  12.138 -0.6292 -1.6136 -0.8018
 6644SOL    HW237925   8.818   6.119  12.119 -0.2469 -0.7325  0.3670
 6645SOL     OW37926  11.245   1.452  11.645 -0.2730 -0.2059  0.4668
 6645SOL    HW137927  11.315   1.514  11.661  0.4993 -0.9352  0.0053
 6645SOL    HW237928  11.194   1.491  11.574  1.0687 -0.7389 -0.8500
 6646SOL     OW37929   3.293   3.395  11.050 -0.1571 -0.1154  0.3235
 6646SOL    HW137930   3.366   3.338  11.026  0.0514  0.6490 -0.9615
 6646SOL    HW237931   3.333   3.461  11.107  0.0294 -0.0766  0.1522
 6647SOL     OW37932  10.693  12.464   3.950  0.1863  0.0729 -0.6887
 6647SOL    HW137933  10.684  12.455   4.045 -2.2034  2.7188 -0.5683
 6647SOL    HW237934  10.653  12.385   3.914 -1.2752  0.2481  0.4939
 6648SOL     OW37935  12.897  12.248  11.772  0.1146  0.2966  0.2346
 6648SOL    HW137936  12.964  12.228  11.707  0.0194  0.4565  0.0865
 6648SOL    HW237937  12.932  12.323  11.821  1.0753 -1.0176  1.6619
 6649SOL     OW37938   6.095  12.515  11.003 -0.0096 -0.3637  0.5355
 6649SOL    HW137939   6.154  12.588  10.985  0.7302 -1.5931 -2.7961
 6649SOL    HW237940   6.151  12.448  11.042  0.3597 -0.7164 -0.5571
 6650SOL     OW37941   6.926   7.463  13.495 -0.0124 -0.2407 -0.8666
 6650SOL    HW137942   6.837   7.459  13.530 -0.1169  2.1126 -0.6630
 6650SOL    HW237943   6.954   7.554  13.511  2.4182 -0.9003 -0.9594
 6651SOL     OW37944   9.927  13.902   0.764  0.0505  0.1601 -0.0047
 6651SOL    HW137945   9.992  13.892   0.833 -0.3658 -1.5921  0.1722
 6651SOL    HW237946   9.843  13.904   0.810 -0.2064 -0.6658 -0.4281
 6652SOL     OW37947   9.529   5.214  12.527  0.2423 -0.2260 -0.4722
 6652SOL    HW137948   9.485   5.244  12.606  1.1702 -1.9308  0.7839
 6652SOL    HW237949   9.538   5.119  12.540  1.7246 -0.3307 -1.9565
 6653SOL     OW37950  13.507   1.168  10.862 -0.4104  0.4219 -0.0942
 6653SOL    HW137951  13.593   1.189  10.898 -0.0639 -2.0637  0.7610
 6653SOL    HW237952  13.492   1.234  10.794  1.1009  2.3106  1.3067
 6654SOL     OW37953  12.408   6.632   0.444  0.1150 -0.0523 -0.3712
 6654SOL    HW137954  12.477   6.609   0.382 -0.2600  0.1570 -0.8720
 6654SOL    HW237955  12.450   6.690   0.507  0.0196  1.4513 -1.6283
 6655SOL     OW37956   7.582   4.426   9.227  0.5742  0.5721  0.1220
 6655SOL    HW137957   7.610   4.355   9.284 -1.0285 -0.7826 -0.6876
 6655SOL    HW237958   7.661   4.449   9.177  0.8896 -1.4203 -0.3897
 6656SOL     OW37959  12.935   5.661  11.082 -0.3928 -0.2282 -0.0330
 6656SOL    HW137960  12.892   5.643  10.998 -0.0112  0.9780 -0.5013
 6656SOL    HW237961  12.878   5.724  11.125 -2.1915 -2.9965  1.9926
 6657SOL     OW37962   5.000  13.346   4.318  0.3361  0.0621  0.1792
 6657SOL    HW137963   4.921  13.297   4.293  0.2599 -0.0045  0.5466
 6657SOL    HW237964   5.050  13.353   4.237 -0.4641  0.8827 -0.2617
 6658SOL     OW37965   6.671   0.208   7.955 -0.3499  0.1910 -0.3499
 6658SOL    HW137966   6.601   0.160   8.001 -0.1385 -0.2255 -0.4557
 6658SOL    HW237967   6.728   0.239   8.025 -0.6470  0.5534 -0.2599
 6659SOL     OW37968   7.297   4.628   9.002  0.1031 -0.1609 -0.5186
 6659SOL    HW137969   7.361   4.604   8.934  0.6318  0.0055 -0.0893
 6659SOL    HW237970   7.219   4.653   8.953  0.8840  1.2063 -1.1463
 6660SOL     OW37971   8.529   6.690  10.110  0.3902 -0.5116  0.0864
 6660SOL    HW137972   8.534   6.597  10.091 -1.9211 -0.7670  0.3793
 6660SOL    HW237973   8.522   6.732  10.024  1.3136 -0.5971 -0.0394
 6661SOL     OW37974   7.861   4.113   5.308  0.0019  0.6607  0.3169
 6661SOL    HW137975   7.826   4.046   5.249  0.3969 -0.3355  1.1686
 6661SOL    HW237976   7.955   4.116   5.288  0.1484  0.2792  0.8940
 6662SOL     OW37977   7.840   0.904  10.261  0.1620 -0.1321  0.0787
 6662SOL    HW137978   7.858   0.836  10.326 -3.0236  0.6422  2.0162
 6662SOL    HW237979   7.761   0.875  10.217 -0.3241  1.4990 -0.2147
 6663SOL     OW37980   6.458   2.394   8.838  0.4750 -0.5312 -0.0334
 6663SOL    HW137981   6.541   2.352   8.812  0.4530 -1.0223  0.6588
 6663SOL    HW237982   6.485   2.466   8.895  0.4226 -0.9737  0.5708
 6664SOL     OW37983   1.842  12.431   7.168 -0.4316  0.2019 -0.0756
 6664SOL    HW137984   1.886  12.348   7.190 -0.3344 -0.3089 -1.9736
 6664SOL    HW237985   1.912  12.496   7.168 -0.5612  0.3714  1.7394
 6665SOL     OW37986  10.412   9.931  13.863 -0.3979 -0.0550 -0.5113
 6665SOL    HW137987  10.344   9.890  13.918  1.0877 -2.6165 -0.4025
 6665SOL    HW237988  10.479   9.863  13.855  1.3006  1.7189 -2.1651
 6666SOL     OW37989   9.359   2.237  12.248 -0.6539  0.1105 -0.3136
 6666SOL    HW137990   9.413   2.160  12.265 -1.0915 -0.4536 -1.3788
 6666SOL    HW237991   9.379   2.260  12.157  1.4415  2.8580  0.7173
 6667SOL     OW37992   9.073   8.313  13.754  0.0714  0.2140 -0.5326
 6667SOL    HW137993   9.013   8.285  13.686 -1.6381  1.5047  0.3608
 6667SOL    HW237994   9.160   8.293  13.720 -0.7110  0.9300 -3.1124
 6668SOL     OW37995  11.587   9.753  13.021 -0.0750 -0.1676 -0.2784
 6668SOL    HW137996  11.627   9.777  12.937 -0.9459 -0.7893 -0.8974
 6668SOL    HW237997  11.534   9.676  13.001 -2.2707  1.0921  0.2765
 6669SOL     OW37998  12.433   8.557  11.819 -0.3471  0.2718 -0.2888
 6669SOL    HW137999  12.481   8.565  11.902 -0.4939  0.2994 -0.2054
 6669SOL    HW238000  12.347   8.524  11.844 -0.4867  0.5469 -0.4003
 6670SOL     OW38001   5.957   4.820   0.390  0.2683 -0.1886 -0.4487
 6670SOL    HW138002   5.891   4.854   0.329  0.5717  1.2474 -0.0153
 6670SOL    HW238003   6.032   4.879   0.380  0.5351 -0.2611  0.9001
 6671SOL     OW38004  12.043   7.701   5.562 -0.6089 -0.0993 -0.1896
 6671SOL    HW138005  12.057   7.688   5.469 -1.5010  0.0545 -0.3549
 6671SOL    HW238006  12.066   7.616   5.602 -0.2472 -0.1689 -0.5482
 6672SOL     OW38007  13.492  11.850  12.365 -0.0363  0.4313  0.1766
 6672SOL    HW138008  13.538  11.814  12.442 -3.0212  0.2338  2.0458
 6672SOL    HW238009  13.557  11.846  12.295  2.7782  0.2869  2.5615
 6673SOL     OW38010   0.002  13.982   4.682 -0.1239  0.2705  0.1060
 6673SOL    HW138011   0.050  14.064   4.676 -0.0860  0.1558 -1.7028
 6673SOL    HW238012  -0.089  14.006   4.661 -0.4112  0.0750  1.0621
 6674SOL     OW38013   6.541   1.670  11.508  0.0953 -0.3769  0.0050
 6674SOL    HW138014   6.621   1.682  11.457 -0.7456  2.8126 -0.8318
 6674SOL    HW238015   6.562   1.707  11.594 -0.4529  0.5277 -0.2375
 6675SOL     OW38016   9.209   4.456  13.802  0.2937  0.1735  0.4849
 6675SOL    HW138017   9.251   4.542  13.809 -0.7874  0.6822  0.8431
 6675SOL    HW238018   9.155   4.449  13.881 -2.3379  0.6364 -1.1689
 6676SOL     OW38019  11.718   6.998   3.791 -0.3967  0.0378 -0.1919
 6676SOL    HW138020  11.705   6.941   3.867  2.6009  0.9250  1.1702
 6676SOL    HW238021  11.760   6.942   3.726  0.4866  0.1116  0.2933
 6677SOL     OW38022   1.533  12.631  11.462 -0.4291 -0.9946  0.3677
 6677SOL    HW138023   1.455  12.683  11.480 -0.4402 -0.3884 -1.2372
 6677SOL    HW238024   1.578  12.624  11.547 -0.5444  1.4622  0.6887
 6678SOL     OW38025   9.217  12.907   6.420  0.5028  0.1102 -0.1019
 6678SOL    HW138026   9.149  12.949   6.472 -0.2128  0.7208 -1.4906
 6678SOL    HW238027   9.191  12.922   6.329  2.4311  0.2558 -0.6724
 6679SOL     OW38028  13.157   6.589   0.108 -0.2013  0.1347  0.5485
 6679SOL    HW138029  13.184   6.505   0.144 -0.4422  0.0693  0.5748
 6679SOL    HW238030  13.072   6.572   0.067 -0.6719  0.5532  1.3179
 6680SOL     OW38031   6.968   7.595   0.397  0.1066  0.1536  0.0403
 6680SOL    HW138032   6.963   7.503   0.424  2.3910 -0.4793 -1.4133
 6680SOL    HW238033   6.877   7.621   0.384 -0.5648 -2.3958 -0.9822
 6681SOL     OW38034  11.353  12.286   0.628 -0.3440  0.0787 -0.1365
 6681SOL    HW138035  11.395  12.237   0.699  0.5601  0.0280 -0.6945
 6681SOL    HW238036  11.302  12.221   0.581 -2.4998  0.4330  1.5493
 6682SOL     OW38037  13.185   2.102  12.848  0.0171 -0.2785 -0.3821
 6682SOL    HW138038  13.238   2.145  12.781  0.8228 -1.3149 -0.4340
 6682SOL    HW238039  13.132   2.039  12.801 -0.2377 -0.2262 -0.1682
 6683SOL     OW38040  11.962  12.043  11.997 -0.0520  0.1004  0.0949
 6683SOL    HW138041  11.981  12.061  12.089 -1.1183 -1.1364  0.5931
 6683SOL    HW238042  11.872  12.076  11.985  0.0625  0.1988 -0.4871
 6684SOL     OW38043  13.205   7.629   0.646 -0.2364 -0.1131  0.0536
 6684SOL    HW138044  13.277   7.591   0.697 -2.7367 -2.3121  2.2268
 6684SOL    HW238045  13.181   7.708   0.694 -0.7568 -0.6482  0.6854
 6685SOL     OW38046   2.434  10.687   7.975  0.8989 -0.4887 -0.3805
 6685SOL    HW138047   2.439  10.764   8.032 -0.0813  0.3782 -1.4164
 6685SOL    HW238048   2.524  10.667   7.953  1.1303  3.0175 -3.5207
 6686SOL     OW38049   1.761   0.402   2.242 -0.0592 -0.1975 -0.1751
 6686SOL    HW138050   1.676   0.413   2.200 -0.6406 -2.5126  0.2524
 6686SOL    HW238051   1.768   0.308   2.258  1.5286  0.2074  1.9784
 6687SOL     OW38052   5.127   8.343  10.524 -0.3152 -0.0409  0.4909
 6687SOL    HW138053   5.066   8.292  10.471 -0.3872  0.3292  0.2133
 6687SOL    HW238054   5.086   8.429  10.532  0.5907  0.5042 -0.4723
 6688SOL     OW38055  12.988  13.432   2.445 -0.3356  0.3010  0.1129
 6688SOL    HW138056  12.967  13.354   2.394  1.1609 -0.0203 -0.0481
 6688SOL    HW238057  12.958  13.505   2.391 -0.6492 -0.1140 -0.2792
 6689SOL     OW38058   4.731  11.793   8.604  0.1532  0.6620 -0.2969
 6689SOL    HW138059   4.790  11.781   8.678 -1.9804  0.6428  1.5023
 6689SOL    HW238060   4.676  11.715   8.605 -0.0282  0.7401 -1.8433
 6690SOL     OW38061  11.867  12.859   2.736 -0.1446 -0.4072  0.0448
 6690SOL    HW138062  11.793  12.890   2.682 -0.7069 -1.9024 -0.0844
 6690SOL    HW238063  11.848  12.892   2.824 -1.3372 -1.3318  0.1569
 6691SOL     OW38064   3.951   7.347  13.247  0.4689  0.0212  0.3536
 6691SOL    HW138065   4.042   7.376  13.245  0.6692 -0.6084 -0.5609
 6691SOL    HW238066   3.938   7.302  13.164 -1.2702  1.8068 -0.4314
 6692SOL     OW38067   3.168   9.954   5.784 -0.2587  0.1942 -0.6080
 6692SOL    HW138068   3.096   9.953   5.847  0.1134 -1.0520 -0.1756
 6692SOL    HW238069   3.223  10.026   5.813 -0.0777 -0.3778  0.5431
 6693SOL     OW38070  12.352   8.832   9.427  0.2717 -1.3583 -0.1149
 6693SOL    HW138071  12.273   8.807   9.379  1.4657 -2.8241 -1.4329
 6693SOL    HW238072  12.406   8.877   9.363 -0.4364  1.9033  1.4026
 6694SOL     OW38073   7.162  13.924   1.066  0.7327 -0.4512  0.1925
 6694SOL    HW138074   7.234  13.986   1.055 -0.5390  1.3586  1.6383
 6694SOL    HW238075   7.206  13.840   1.080  2.5722  0.4925  0.4078
 6695SOL     OW38076   1.372   2.157   6.301 -0.1680 -0.1046 -0.1437
 6695SOL    HW138077   1.443   2.102   6.334  0.0728  0.0844 -0.3403
 6695SOL    HW238078   1.372   2.143   6.207 -0.5587 -0.2963 -0.1166
 6696SOL     OW38079   9.863   7.161  11.819 -0.0939 -0.0100  0.7914
 6696SOL    HW138080   9.845   7.255  11.821  1.4657  0.3024  1.8077
 6696SOL    HW238081   9.897   7.145  11.731 -0.8655  0.2597  0.4364
 6697SOL     OW38082   3.763   3.064   9.601 -0.0724 -0.6112  0.5393
 6697SOL    HW138083   3.703   3.136   9.620  0.1764  0.0496 -1.0359
 6697SOL    HW238084   3.779   3.023   9.686 -1.5892  0.1071  1.2068
 6698SOL     OW38085   5.672   0.503   1.757  0.4422 -0.1944  0.0749
 6698SOL    HW138086   5.614   0.554   1.700  1.7519  0.6113 -0.5689
 6698SOL    HW238087   5.642   0.524   1.846 -0.7185 -0.3811 -0.2498
 6699SOL     OW38088   3.939   1.254   9.922 -0.4217 -0.3575 -0.6151
 6699SOL    HW138089   3.939   1.274  10.016  2.2044 -2.4506 -0.0514
 6699SOL    HW238090   4.011   1.304   9.886  0.3968 -1.6956 -0.9233
 6700SOL     OW38091  10.406   5.489   6.598  0.0494  0.4621  0.0475
 6700SOL    HW138092  10.381   5.445   6.679  0.3501  0.7627  0.3068
 6700SOL    HW238093  10.345   5.562   6.591 -0.3956  0.0595 -0.3391
 6701SOL     OW38094   8.457  12.646   0.072 -0.1035  0.3684 -0.2980
 6701SOL    HW138095   8.550  12.639   0.052  0.7905  0.7155  3.1522
 6701SOL    HW238096   8.442  12.740   0.083 -1.1652  0.4124 -1.7931
 6702SOL     OW38097   1.466  11.031   8.348  0.1430 -0.1556  0.4871
 6702SOL    HW138098   1.505  10.956   8.393 -0.2628  0.2674  1.5738
 6702SOL    HW238099   1.375  11.033   8.378 -0.8543 -1.2654 -2.2028
 6703SOL     OW38100   6.879   8.138   2.502 -0.1430  0.0780  0.1794
 6703SOL    HW138101   6.918   8.074   2.441 -1.7457 -0.9351  0.1739
 6703SOL    HW238102   6.946   8.150   2.570  1.0699  0.0907 -0.9630
 6704SOL     OW38103   4.278  13.708   5.710  0.1735 -0.0163 -0.0596
 6704SOL    HW138104   4.270  13.683   5.618 -0.5794  0.6686 -0.1879
 6704SOL    HW238105   4.341  13.780   5.711 -0.9682  1.0096 -0.2441
 6705SOL     OW38106   3.993   9.059   7.302  0.2032  0.0322 -0.0044
 6705SOL    HW138107   3.908   9.102   7.313  1.2727  2.1369  0.4478
 6705SOL    HW238108   4.001   9.001   7.378 -1.6945 -1.8560 -1.1294
 6706SOL     OW38109   5.907   9.579  12.435  0.4751  0.1936 -0.0267
 6706SOL    HW138110   5.870   9.596  12.522  0.9356 -1.7797  0.5925
 6706SOL    HW238111   5.835   9.541  12.385 -0.1470  2.4200 -0.9638
 6707SOL     OW38112  13.866   4.564   8.347  0.0105  0.4731 -0.4803
 6707SOL    HW138113  13.895   4.652   8.369 -0.7012  0.5427  0.2638
 6707SOL    HW238114  13.944   4.520   8.314  0.2408  1.5507 -1.4064
 6708SOL     OW38115   3.481  10.743  10.751 -0.4787 -0.2144 -0.2988
 6708SOL    HW138116   3.536  10.817  10.775 -0.8791  0.2334 -0.7384
 6708SOL    HW238117   3.434  10.720  10.832  1.1466 -1.3192  0.3778
 6709SOL     OW38118  13.422   6.802   5.003  0.0657 -0.0532 -0.5270
 6709SOL    HW138119  13.350   6.807   4.939  0.4570 -0.1040 -0.9779
 6709SOL    HW238120  13.392   6.739   5.068 -1.6244  2.1693  1.0119
 6710SOL     OW38121   1.737   2.251   1.425  0.5638 -0.0951  0.4040
 6710SOL    HW138122   1.764   2.302   1.502  0.6215 -2.2865  1.9284
 6710SOL    HW238123   1.812   2.194   1.407 -0.3596 -1.2923  0.2493
 6711SOL     OW38124   6.227  10.192   5.485  0.0445 -0.1213  0.2832
 6711SOL    HW138125   6.217  10.209   5.391 -1.7934  1.1235  0.6559
 6711SOL    HW238126   6.245  10.098   5.491 -0.0486 -0.2628 -1.2827
 6712SOL     OW38127   2.831  11.461   2.633 -0.6508  0.1432 -0.9039
 6712SOL    HW138128   2.739  11.456   2.659  0.1634 -2.0125  2.0993
 6712SOL    HW238129   2.858  11.370   2.622  2.0480  0.3192  2.4278
 6713SOL     OW38130   5.864   0.972   4.854  0.0594  0.2308  0.1622
 6713SOL    HW138131   5.859   1.066   4.873 -0.1957  0.2333  0.0844
 6713SOL    HW238132   5.812   0.961   4.774 -1.2101 -0.2147  1.0243
 6714SOL     OW38133   6.229   5.850   9.837  0.5622 -0.3515 -0.0472
 6714SOL    HW138134   6.240   5.803   9.920  0.4570 -0.2519  0.0230
 6714SOL    HW238135   6.305   5.824   9.785 -0.3015 -1.8431 -0.6169
 6715SOL     OW38136  12.397   2.242   3.826  0.4662  0.4208 -0.3386
 6715SOL    HW138137  12.347   2.163   3.845 -0.0630  0.3567 -1.8739
 6715SOL    HW238138  12.380   2.260   3.734  3.6013  0.1639 -1.0624
 6716SOL     OW38139   6.238   6.358   1.686  0.0586 -0.0171  0.1183
 6716SOL    HW138140   6.255   6.274   1.728  1.9507  0.0361 -0.4565
 6716SOL    HW238141   6.325   6.395   1.670 -0.5740  0.4676 -2.7786
 6717SOL     OW38142  13.311   6.022   2.258  0.1276  0.2649 -0.0388
 6717SOL    HW138143  13.380   6.069   2.305 -0.0165 -1.3838  1.9608
 6717SOL    HW238144  13.350   5.937   2.237 -0.5378  0.1932 -1.0239
 6718SOL     OW38145   2.845  13.955  10.675  0.3486 -0.3448 -0.0234
 6718SOL    HW138146   2.916  13.907  10.717 -0.3333 -1.2999  0.0789
 6718SOL    HW238147   2.765  13.913  10.707 -0.2971  1.0618  0.2984
 6719SOL     OW38148  10.366   1.556  12.423  0.5794 -0.1893  0.4543
 6719SOL    HW138149  10.273   1.575  12.410  0.8163  0.4482 -0.4034
 6719SOL    HW238150  10.398   1.626  12.480  0.3092 -1.0351  1.6916
 6720SOL     OW38151   1.055  10.522  10.313  1.2937  0.7300  0.6445
 6720SOL    HW138152   1.038  10.454  10.247 -0.3299 -1.1052  2.8185
 6720SOL    HW238153   1.102  10.590  10.264  0.6003 -0.7015 -2.2810
 6721SOL     OW38154  11.174   8.230  13.402 -0.2310 -0.0101  0.2069
 6721SOL    HW138155  11.177   8.226  13.306 -1.1750 -0.9610  0.1841
 6721SOL    HW238156  11.137   8.316  13.421  3.6603  1.9020 -0.1014
 6722SOL     OW38157   2.339  12.826  10.754  0.2263  0.3506  0.4837
 6722SOL    HW138158   2.276  12.777  10.807  0.3417 -0.7477 -0.3469
 6722SOL    HW238159   2.322  12.918  10.776 -0.6151 -0.0013  1.4172
 6723SOL     OW38160   4.801  10.261   2.540 -0.0412  0.5725  0.7558
 6723SOL    HW138161   4.871  10.255   2.475 -1.1643  0.8375 -0.5126
 6723SOL    HW238162   4.783  10.170   2.563  1.4707  0.5342  1.9780
 6724SOL     OW38163   5.427   0.041   8.935  0.0409 -0.1378 -0.4081
 6724SOL    HW138164   5.516   0.024   8.965  0.5021 -0.5449 -1.9306
 6724SOL    HW238165   5.437   0.100   8.860 -0.9433 -0.3918 -0.7599
 6725SOL     OW38166   5.606   8.841   8.136 -0.3442  0.4367 -0.1357
 6725SOL    HW138167   5.583   8.892   8.214  3.3272 -1.1075  2.1729
 6725SOL    HW238168   5.647   8.904   8.077  0.1173  0.9861  0.7577
 6726SOL     OW38169   9.817   5.555   9.161  0.0584  0.5081 -0.0928
 6726SOL    HW138170   9.792   5.627   9.219 -0.8575  0.6934 -0.6947
 6726SOL    HW238171   9.820   5.479   9.219  0.9605  1.0000  0.5371
 6727SOL     OW38172   0.769   9.092   7.902  0.2265  0.2947  0.3654
 6727SOL    HW138173   0.776   9.109   7.808  2.0729  1.8406  0.7215
 6727SOL    HW238174   0.793   9.000   7.911 -1.6247 -0.3557 -0.8053
 6728SOL     OW38175  11.167   8.102   7.818 -0.0836  0.0437  0.4620
 6728SOL    HW138176  11.221   8.079   7.743 -0.2495  0.8311  0.0949
 6728SOL    HW238177  11.226   8.148   7.878 -0.1580  0.1999  0.4161
 6729SOL     OW38178   0.180   8.356   3.785  0.6371  0.4832 -0.3029
 6729SOL    HW138179   0.086   8.343   3.772  0.6428  0.1696 -0.0501
 6729SOL    HW238180   0.205   8.420   3.719  0.4237 -0.1188 -0.9734
 6730SOL     OW38181   7.857  10.748  11.296 -0.2902 -0.3933 -0.7417
 6730SOL    HW138182   7.927  10.775  11.237 -1.5272  0.1808 -1.9913
 6730SOL    HW238183   7.817  10.829  11.326 -0.5639 -0.7209 -0.1899
 6731SOL     OW38184   9.494   1.223  13.523  0.1171  0.0085  1.0132
 6731SOL    HW138185   9.466   1.296  13.468  1.1312  0.3916  0.9781
 6731SOL    HW238186   9.457   1.243  13.610  0.4142  0.5832  1.0133
 6732SOL     OW38187   1.829   6.899  10.299  0.6919  0.1136 -0.3764
 6732SOL    HW138188   1.796   6.926  10.384 -0.1960 -1.5153 -0.1658
 6732SOL    HW238189   1.905   6.845  10.318  1.3213  0.8698 -0.6968
 6733SOL     OW38190  12.757   1.319   0.190 -0.8215  0.5899  0.0272
 6733SOL    HW138191  12.667   1.304   0.219 -0.6952  0.1888  0.2247
 6733SOL    HW238192  12.752   1.396   0.134 -1.3216  0.4551 -0.1201
 6734SOL     OW38193   9.081   7.445   8.663 -0.0263 -0.1465 -0.2203
 6734SOL    HW138194   9.046   7.363   8.698 -0.2102 -0.6204 -1.4872
 6734SOL    HW238195   9.128   7.484   8.737  0.9414 -1.8805  0.1248
 6735SOL     OW38196   5.258   4.310   1.781  0.1397  0.9552  0.0731
 6735SOL    HW138197   5.259   4.219   1.812 -1.3760  1.0164  0.3865
 6735SOL    HW238198   5.284   4.362   1.857  0.8127  0.8133 -0.0512
 6736SOL     OW38199  11.153   5.764   5.015 -0.1096 -0.0173  0.3177
 6736SOL    HW138200  11.180   5.777   5.106  1.8242 -1.1674 -0.0359
 6736SOL    HW238201  11.220   5.808   4.964 -0.2410 -0.8415 -0.5873
 6737SOL     OW38202   9.519   3.202   3.606  0.0997  0.0672  0.1284
 6737SOL    HW138203   9.494   3.147   3.532 -1.5566  3.3291 -2.0085
 6737SOL    HW238204   9.436   3.229   3.645  0.6878  2.3172 -0.0251
 6738SOL     OW38205   8.892  11.359   9.956  0.0715 -0.3927 -0.0374
 6738SOL    HW138206   8.948  11.424   9.998 -0.4304  0.6644 -0.9601
 6738SOL    HW238207   8.818  11.409   9.921 -0.2151 -1.4168 -0.9584
 6739SOL     OW38208   2.474   8.757  13.678  0.3587 -0.4385 -0.5786
 6739SOL    HW138209   2.387   8.716  13.671 -0.3595  0.3462  2.3336
 6739SOL    HW238210   2.479   8.816  13.603 -1.6443 -0.5246 -0.8360
 6740SOL     OW38211   4.839  10.453   0.990 -0.3307 -0.0675  0.0809
 6740SOL    HW138212   4.926  10.456   1.030 -0.4675 -1.8410  0.5818
 6740SOL    HW238213   4.793  10.528   1.028  0.9915  0.9813 -0.2904
 6741SOL     OW38214  11.853   6.802  13.180  0.4349  0.2705 -0.0764
 6741SOL    HW138215  11.871   6.889  13.143 -1.0640 -0.4454 -2.7305
 6741SOL    HW238216  11.779   6.769  13.129  0.6158 -2.3834  1.2168
 6742SOL     OW38217   6.225   0.167   0.887 -0.1118  0.3327  0.7321
 6742SOL    HW138218   6.173   0.114   0.828 -0.5338  0.7573  0.7199
 6742SOL    HW238219   6.260   0.105   0.951 -2.0047  0.2509  1.7623
 6743SOL     OW38220   5.824  11.519  11.307 -0.7443 -0.3095 -0.0950
 6743SOL    HW138221   5.751  11.457  11.316  0.1369 -1.4792 -0.7064
 6743SOL    HW238222   5.899  11.472  11.342 -0.2412  0.8170  0.3623
 6744SOL     OW38223   7.699  11.880   4.465  0.1042  0.2900  0.2356
 6744SOL    HW138224   7.639  11.843   4.401  0.7071 -0.9352  0.3448
 6744SOL    HW238225   7.714  11.970   4.435 -3.1257  1.2681  1.1869
 6745SOL     OW38226   5.622   8.952   2.422 -0.0859 -0.6048 -0.0067
 6745SOL    HW138227   5.638   8.937   2.515  0.0059  0.5568  0.1860
 6745SOL    HW238228   5.563   8.882   2.396 -0.4267 -0.7256  1.0259
 6746SOL     OW38229  12.611   9.607   8.385  0.1583 -0.0116  0.4745
 6746SOL    HW138230  12.704   9.629   8.378 -0.2959  1.7192 -0.5992
 6746SOL    HW238231  12.598   9.539   8.318  0.4379  0.5478 -0.1629
 6747SOL     OW38232   4.556   2.681   8.077  0.5864 -0.3022  0.2054
 6747SOL    HW138233   4.551   2.754   8.140 -0.0196  0.3900 -0.6180
 6747SOL    HW238234   4.519   2.717   7.997 -2.4515 -2.3694  0.5238
 6748SOL     OW38235   5.799  10.719   1.101 -0.2153 -0.0769 -0.5783
 6748SOL    HW138236   5.740  10.658   1.146 -0.4167  1.1551  0.9229
 6748SOL    HW238237   5.794  10.695   1.009 -0.9277 -1.7726 -0.1264
 6749SOL     OW38238  14.118   4.205   2.247 -0.0435 -0.2941 -0.1142
 6749SOL    HW138239  14.083   4.282   2.204 -1.3788  0.0306  1.4952
 6749SOL    HW238240  14.167   4.239   2.322 -0.1544 -0.9891  0.2788
 6750SOL     OW38241   1.836  12.173   5.712 -0.0068 -0.5514  0.3782
 6750SOL    HW138242   1.747  12.158   5.681  0.6586 -1.8389 -1.0740
 6750SOL    HW238243   1.835  12.262   5.747 -1.8718 -0.5798  0.4706
 6751SOL     OW38244   7.727   0.722   5.659  0.1740  0.0540 -0.2801
 6751SOL    HW138245   7.698   0.740   5.569  1.9910  0.2938 -0.8516
 6751SOL    HW238246   7.802   0.779   5.672 -1.4521  1.8121  2.2716
 6752SOL     OW38247  11.566   9.333   8.162 -0.0838  0.2138 -0.1967
 6752SOL    HW138248  11.511   9.255   8.171 -0.1032  0.4257  1.9332
 6752SOL    HW238249  11.515   9.403   8.203 -0.2092  1.4783 -2.3437
 6753SOL     OW38250   2.527  12.084   5.254  0.5583 -0.2037 -0.1036
 6753SOL    HW138251   2.583  12.051   5.184  2.0607 -0.1869  1.0415
 6753SOL    HW238252   2.469  12.011   5.275 -0.5396  0.0897 -1.9518
 6754SOL     OW38253  10.279   7.745   2.193  0.3906 -0.0731  0.3905
 6754SOL    HW138254  10.309   7.665   2.151 -1.6439 -0.1273 -1.1282
 6754SOL    HW238255  10.184   7.735   2.199  0.1663  1.9001  0.8707
 6755SOL     OW38256  12.580   3.016  11.964  0.3138 -0.4760  0.2656
 6755SOL    HW138257  12.674   3.034  11.968 -0.0586  1.5574  1.4298
 6755SOL    HW238258  12.545   3.083  11.905 -0.3301 -1.7842 -0.8989
 6756SOL     OW38259   7.205  12.588   6.316  0.1758 -0.6185  0.3642
 6756SOL    HW138260   7.223  12.668   6.365  1.4018 -0.0586 -0.9390
 6756SOL    HW238261   7.110  12.582   6.314  0.0074  1.5881 -0.6869
 6757SOL     OW38262  13.914   3.837  10.302  0.0830  0.4222  0.2187
 6757SOL    HW138263  13.882   3.922  10.330  1.5167  0.4169  2.0550
 6757SOL    HW238264  14.005   3.852  10.278  0.6480 -0.7379  1.5033
 6758SOL     OW38265   1.290  13.508   2.399  0.0771 -0.5448  0.0279
 6758SOL    HW138266   1.363  13.448   2.414  0.0309 -0.4801  0.5032
 6758SOL    HW238267   1.319  13.592   2.434  0.5300 -0.0236 -1.5237
 6759SOL     OW38268  11.567   9.551  12.172  0.5308  0.4483  0.0408
 6759SOL    HW138269  11.482   9.507  12.173  1.7037 -1.9537  1.1248
 6759SOL    HW238270  11.568   9.603  12.252  0.7192 -0.9088  0.9499
 6760SOL     OW38271   0.833   1.950  11.878 -0.2154 -0.4368  0.1282
 6760SOL    HW138272   0.758   1.965  11.820 -0.9944  1.3935  1.4997
 6760SOL    HW238273   0.794   1.908  11.956  0.0034  1.1695  1.1479
 6761SOL     OW38274  10.568   7.635   1.698  0.0974  0.0734  0.7061
 6761SOL    HW138275  10.640   7.583   1.663 -1.6495 -1.1570 -1.2836
 6761SOL    HW238276  10.515   7.573   1.748 -1.7978 -0.0936 -1.3586
 6762SOL     OW38277   2.060   1.150   5.425  0.3274  0.2740  0.3140
 6762SOL    HW138278   2.029   1.078   5.480  0.1970 -1.7405 -2.1608
 6762SOL    HW238279   2.148   1.168   5.456  0.8419 -1.8671  0.2734
 6763SOL     OW38280   0.234   3.423  12.653 -0.0108  0.3074 -0.7265
 6763SOL    HW138281   0.196   3.425  12.741 -1.2318  0.8249 -1.2440
 6763SOL    HW238282   0.325   3.447  12.666  0.8946 -3.2080  0.8629
 6764SOL     OW38283   5.483  13.309  11.723  0.5303  0.2016  0.1339
 6764SOL    HW138284   5.417  13.372  11.754 -0.7883 -0.7830 -0.5924
 6764SOL    HW238285   5.510  13.261  11.802 -3.0667 -2.5459 -0.0782
 6765SOL     OW38286  11.518  13.138   8.960  0.8083 -0.1100 -0.1370
 6765SOL    HW138287  11.468  13.204   9.007 -1.9670 -1.3415 -1.1490
 6765SOL    HW238288  11.525  13.171   8.870 -2.2309 -1.8204 -1.1455
 6766SOL     OW38289  10.994   6.326  13.073 -0.3488  0.6017  0.0861
 6766SOL    HW138290  10.922   6.283  13.027 -0.1288  1.1379 -0.7806
 6766SOL    HW238291  10.953   6.368  13.149 -0.8464  0.3790 -0.0559
 6767SOL     OW38292  10.753   9.421  10.104 -0.5973 -0.0553  0.4464
 6767SOL    HW138293  10.839   9.443  10.066 -0.8633 -0.2379 -0.2862
 6767SOL    HW238294  10.735   9.493  10.164  0.6336 -0.6381  1.5760
 6768SOL     OW38295  10.585   1.908   9.543  0.7073  0.6182  1.0625
 6768SOL    HW138296  10.629   1.857   9.475  0.4380  1.1419  0.4854
 6768SOL    HW238297  10.594   1.855   9.622  2.2766  0.6747  0.9398
 6769SOL     OW38298  10.184   6.064   4.149 -0.0986  0.8935 -0.0257
 6769SOL    HW138299  10.257   6.114   4.186 -0.5156 -0.1919  2.4994
 6769SOL    HW238300  10.139   6.125   4.091  1.3619  2.3582  0.3223
 6770SOL     OW38301   7.998   0.194   1.188  0.1113  0.0417 -0.6823
 6770SOL    HW138302   7.982   0.119   1.246 -0.6037  0.2472 -0.5949
 6770SOL    HW238303   7.933   0.185   1.118 -0.1342  0.6959 -0.5494
 6771SOL     OW38304   9.482   4.899   4.222 -0.3137 -0.0527  0.3883
 6771SOL    HW138305   9.503   4.806   4.235  2.6713  0.1160 -2.0160
 6771SOL    HW238306   9.557   4.946   4.259 -1.4070  1.3878  0.8593
 6772SOL     OW38307   1.327   0.700   0.724  0.2354  0.1309  0.5555
 6772SOL    HW138308   1.379   0.716   0.645 -2.0607  2.8894 -0.5786
 6772SOL    HW238309   1.373   0.747   0.793  1.0245 -0.3190  0.3430
 6773SOL     OW38310  12.502   1.616  12.565  0.3706 -0.3254  0.4213
 6773SOL    HW138311  12.408   1.602  12.577 -0.1042  0.9091 -1.3428
 6773SOL    HW238312  12.518   1.590  12.474  1.6143  0.0639  0.5147
 6774SOL     OW38313  10.270   9.016   0.643 -0.2497 -0.0079  0.1022
 6774SOL    HW138314  10.177   9.039   0.650  0.0274  1.0264  0.6563
 6774SOL    HW238315  10.313   9.072   0.707  0.7840 -0.3490 -0.2733
 6775SOL     OW38316   9.660   6.764   4.434 -0.1812  0.0160 -0.1347
 6775SOL    HW138317   9.755   6.761   4.444 -0.4154 -1.0221  3.0746
 6775SOL    HW238318   9.634   6.672   4.426 -1.0038  0.1164  1.0769
 6776SOL     OW38319  13.168  11.624   0.321  0.1109  0.2424 -0.5092
 6776SOL    HW138320  13.143  11.554   0.259  1.1383 -1.8115  1.2469
 6776SOL    HW238321  13.263  11.629   0.313  0.2056  0.2687  0.5624
 6777SOL     OW38322   1.136   3.750   6.750  0.2199  0.2198 -0.7237
 6777SOL    HW138323   1.053   3.762   6.703 -0.2696  0.0614  0.0618
 6777SOL    HW238324   1.130   3.812   6.823  0.1539 -0.8004  0.1545
 6778SOL     OW38325   4.180   7.240   8.131  0.1148 -0.2155 -0.0700
 6778SOL    HW138326   4.221   7.325   8.147  0.2833 -0.3902  0.4736
 6778SOL    HW238327   4.136   7.249   8.047 -0.1918  0.5344  0.1683
 6779SOL     OW38328   0.142   5.773   7.041  0.1619  0.5833 -0.0288
 6779SOL    HW138329   0.213   5.712   7.022 -0.8281 -0.3704 -0.8266
 6779SOL    HW238330   0.179   5.859   7.023  1.5012  0.2242  0.8345
 6780SOL     OW38331   7.703   4.167   1.234  0.4771  0.2675  0.8632
 6780SOL    HW138332   7.642   4.240   1.234 -0.8599 -0.7934  0.1068
 6780SOL    HW238333   7.726   4.154   1.142  0.0815 -0.7192  0.8826
 6781SOL     OW38334  13.381  12.009  14.058 -0.3712 -0.1383  0.3272
 6781SOL    HW138335  13.422  11.933  14.098 -2.1031 -1.5326 -0.3863
 6781SOL    HW238336  13.392  11.996  13.964  2.4375  2.3839  0.1443
 6782SOL     OW38337   8.454   9.717   1.329  0.1747 -0.2212  0.2562
 6782SOL    HW138338   8.459   9.630   1.369  0.0923  0.4296  1.7589
 6782SOL    HW238339   8.537   9.758   1.350  0.3731 -0.0624 -0.7961
 6783SOL     OW38340   3.258  12.505  11.940  0.4295  0.4193  0.0186
 6783SOL    HW138341   3.337  12.457  11.913 -1.4420 -1.4257 -2.7597
 6783SOL    HW238342   3.186  12.447  11.914 -1.9046  2.8541  0.7072
 6784SOL     OW38343   9.753   0.683   3.728 -0.0958 -0.0395 -0.2994
 6784SOL    HW138344   9.690   0.698   3.658 -0.3436  2.2345  0.3521
 6784SOL    HW238345   9.833   0.725   3.699 -0.3565  1.4029  0.9668
 6785SOL     OW38346   7.707   5.286   6.487  1.0303 -0.1344  0.7996
 6785SOL    HW138347   7.769   5.215   6.472  1.7630 -0.0831  3.1863
 6785SOL    HW238348   7.719   5.310   6.579 -1.0267  1.3414  0.7669
 6786SOL     OW38349   9.755  13.549  10.421  0.1394  0.2628  0.0513
 6786SOL    HW138350   9.783  13.555  10.512  2.1821  2.1000 -0.6212
 6786SOL    HW238351   9.671  13.596  10.418  0.9431  1.7882  0.6710
 6787SOL     OW38352   4.984  13.745   2.170  0.3982  0.3713 -0.2324
 6787SOL    HW138353   4.979  13.790   2.086 -0.7333  0.3993 -0.1613
 6787SOL    HW238354   5.060  13.784   2.214  1.3426 -0.0381 -1.4575
 6788SOL     OW38355   9.738   8.008  11.274 -0.6134 -0.4357 -0.2625
 6788SOL    HW138356   9.795   8.055  11.335 -1.1404 -0.3097  0.1402
 6788SOL    HW238357   9.793   7.936  11.242  0.4636  0.8681 -1.4893
 6789SOL     OW38358   0.977   4.430   9.445 -0.4326 -0.1677  0.0288
 6789SOL    HW138359   0.982   4.365   9.515 -0.7148  1.5716  1.7537
 6789SOL    HW238360   0.968   4.379   9.365 -0.9074 -2.2286  1.3336
 6790SOL     OW38361   0.546  10.935   3.240  0.0337 -0.2273  0.1938
 6790SOL    HW138362   0.498  10.943   3.158  1.9701 -0.8301 -1.0681
 6790SOL    HW238363   0.614  11.001   3.234  1.1167 -1.2644  0.6029
 6791SOL     OW38364  11.843   3.499   5.464  0.0803  0.0289  0.4059
 6791SOL    HW138365  11.853   3.494   5.369 -0.7159 -3.3136  0.3776
 6791SOL    HW238366  11.930   3.480   5.498  0.0587 -0.2406  0.3159
 6792SOL     OW38367   4.682  13.599   3.270  0.0126  0.6457  0.4305
 6792SOL    HW138368   4.749  13.656   3.307  0.4075  0.9919 -0.7893
 6792SOL    HW238369   4.723  13.561   3.193 -0.7578 -0.1578  0.4035
 6793SOL     OW38370   3.435  13.197   1.351 -0.1505  0.6232  0.3924
 6793SOL    HW138371   3.473  13.285   1.343 -1.1017  0.9265 -1.1342
 6793SOL    HW238372   3.443  13.159   1.264 -0.3604 -0.5620  0.8743
 6794SOL     OW38373   1.604   1.775   9.077 -0.5432  0.0469 -0.1354
 6794SOL    HW138374   1.603   1.838   9.149 -0.5524  0.6705 -0.6687
 6794SOL    HW238375   1.629   1.692   9.117  2.1802  0.9145  0.1736
 6795SOL     OW38376  10.706   8.241   3.233  0.4562 -0.5373 -0.1521
 6795SOL    HW138377  10.765   8.260   3.305 -0.2952 -0.1760  0.3779
 6795SOL    HW238378  10.728   8.151   3.207  0.5982 -0.7464  0.6586
 6796SOL     OW38379   3.492   6.163  11.576  0.2661 -0.3029  0.1002
 6796SOL    HW138380   3.561   6.144  11.512 -0.4108 -0.5522 -0.5675
 6796SOL    HW238381   3.429   6.216  11.528  0.3596  0.5943  0.9307
 6797SOL     OW38382   4.071   8.419  12.818  0.1038  0.3010  0.6466
 6797SOL    HW138383   4.096   8.490  12.877  3.0059 -0.0929  0.0520
 6797SOL    HW238384   4.074   8.341  12.873 -0.7840  0.3368  0.7627
 6798SOL     OW38385  13.484   7.031   5.148 -0.4287 -0.2481 -0.3381
 6798SOL    HW138386  13.575   7.010   5.169 -0.4036 -0.2763 -0.4739
 6798SOL    HW238387  13.452   6.954   5.101 -0.3739 -0.0302 -0.7318
 6799SOL     OW38388  13.663   0.326  13.400 -0.3466  0.0039  0.5174
 6799SOL    HW138389  13.670   0.355  13.309  1.0926 -0.3287  0.4947
 6799SOL    HW238390  13.597   0.256  13.397  0.7447 -1.0404 -0.5745
 6800SOL     OW38391   6.378   0.775  10.369 -0.6123 -0.0474 -0.2201
 6800SOL    HW138392   6.392   0.682  10.357 -0.8910  0.1080 -2.0464
 6800SOL    HW238393   6.457   0.816  10.336 -0.3727  0.3694  0.8340
 6801SOL     OW38394  11.031   8.796  13.632  0.1579 -0.1951 -0.1682
 6801SOL    HW138395  11.020   8.821  13.723  0.2064 -0.1822 -0.1664
 6801SOL    HW238396  10.995   8.708  13.626 -1.8600  0.6002 -0.5894
 6802SOL     OW38397   9.615   5.600   7.687 -0.3148 -0.2911  0.2375
 6802SOL    HW138398   9.560   5.524   7.669  0.8024 -1.0634 -0.0259
 6802SOL    HW238399   9.665   5.614   7.607  0.4503 -0.1032  0.7346
 6803SOL     OW38400   3.591   4.691   3.457 -0.2717 -0.2117 -0.1868
 6803SOL    HW138401   3.605   4.651   3.543  1.4355  1.8693  0.5854
 6803SOL    HW238402   3.627   4.627   3.395  1.1141 -0.5297  0.8868
 6804SOL     OW38403   0.661   2.669   8.293  0.4458 -0.3723  0.0699
 6804SOL    HW138404   0.659   2.612   8.370  1.4307 -1.3170 -0.5921
 6804SOL    HW238405   0.723   2.738   8.317  0.7040 -0.6293  0.1389
 6805SOL     OW38406   1.933  13.533   7.059 -0.6345  0.4008  0.3447
 6805SOL    HW138407   1.895  13.446   7.050 -0.1662  0.3188 -1.2220
 6805SOL    HW238408   1.859  13.589   7.082 -1.1643 -0.2212  0.1842
 6806SOL     OW38409   6.309   3.544   5.343 -0.7196  0.5252 -0.1875
 6806SOL    HW138410   6.368   3.502   5.407  0.2925 -1.4284 -2.2860
 6806SOL    HW238411   6.342   3.516   5.258 -1.6132  3.5745 -1.6779
 6807SOL     OW38412   1.673   4.724   9.714 -0.0838  0.4810  0.2343
 6807SOL    HW138413   1.672   4.632   9.739 -0.0233  0.1335 -0.9450
 6807SOL    HW238414   1.626   4.770   9.784  0.9925 -0.2580  1.4817
 6808SOL     OW38415  11.928   7.788   1.118 -0.8444 -0.4353 -0.2458
 6808SOL    HW138416  11.991   7.856   1.095 -1.3846  0.3083  0.4136
 6808SOL    HW238417  11.968   7.706   1.088  0.6710 -0.0467  0.6239
 6809SOL     OW38418   4.454  13.663   1.497  0.9563 -0.0532 -0.2095
 6809SOL    HW138419   4.531  13.686   1.548  0.0968  0.5694  0.8507
 6809SOL    HW238420   4.486  13.602   1.431  2.3654  0.2798  0.1411
 6810SOL     OW38421   5.432  13.974   0.559  0.2290 -0.0556  0.2371
 6810SOL    HW138422   5.376  14.029   0.615  0.5867 -0.4284  0.9771
 6810SOL    HW238423   5.486  13.925   0.621  2.5257  1.4437 -0.4532
 6811SOL     OW38424   4.512   0.727   9.253 -0.1222 -0.4034  0.1227
 6811SOL    HW138425   4.562   0.780   9.316 -1.4853  2.4519 -0.9948
 6811SOL    HW238426   4.421   0.754   9.267 -0.7086 -1.3643 -1.5887
 6812SOL     OW38427  14.053  12.180   3.340  0.1775  0.0540  0.5663
 6812SOL    HW138428  14.023  12.267   3.368  2.2189  0.7204  0.8602
 6812SOL    HW238429  13.973  12.129   3.333 -0.8547  0.8189  4.2649
 6813SOL     OW38430   5.652   5.118   3.813 -0.1880 -0.6071  0.0721
 6813SOL    HW138431   5.672   5.192   3.870 -0.5223 -0.6511  0.2444
 6813SOL    HW238432   5.710   5.130   3.737 -0.1300 -0.2553  0.1725
 6814SOL     OW38433  11.695   1.549   6.158 -0.1916 -0.0343  0.2484
 6814SOL    HW138434  11.690   1.465   6.203  0.0132 -0.3917 -0.3788
 6814SOL    HW238435  11.634   1.541   6.085  0.9259 -0.2174 -0.7106
 6815SOL     OW38436   9.399   3.532   6.429  0.4475 -0.2587 -0.1367
 6815SOL    HW138437   9.451   3.547   6.508 -0.9102 -0.0857  0.7412
 6815SOL    HW238438   9.435   3.451   6.392  1.1102 -0.3270  0.6380
 6816SOL     OW38439   2.275   1.340  10.856  0.1025  0.6315 -0.3656
 6816SOL    HW138440   2.195   1.340  10.803 -0.5911  0.3971  0.6485
 6816SOL    HW238441   2.269   1.420  10.908 -0.3301 -0.2053  0.9345
 6817SOL     OW38442   5.174   6.782   5.600  0.4207  0.0528  0.3073
 6817SOL    HW138443   5.092   6.830   5.585 -0.6281 -2.3638 -2.7804
 6817SOL    HW238444   5.156   6.725   5.675 -0.7906 -0.4721 -0.3525
 6818SOL     OW38445   4.269   0.801   9.349 -0.3664 -0.2547 -0.0970
 6818SOL    HW138446   4.285   0.747   9.427 -1.2367 -0.0104  0.2580
 6818SOL    HW238447   4.248   0.888   9.384 -0.1620  0.0142 -0.6321
 6819SOL     OW38448  13.949   1.512  10.342 -0.2850 -0.0195 -0.3517
 6819SOL    HW138449  13.930   1.428  10.385 -0.3977 -1.1847 -2.5003
 6819SOL    HW238450  13.864   1.556  10.336 -0.7460 -0.9989 -1.5663
 6820SOL     OW38451  10.284   4.712  12.233  0.2911  0.2520  0.1117
 6820SOL    HW138452  10.331   4.630  12.214  2.2496  1.3791 -0.2081
 6820SOL    HW238453  10.264   4.748  12.146  0.1106  0.4703  0.2449
 6821SOL     OW38454   6.987   1.324   6.451  0.6667  0.9643 -0.2753
 6821SOL    HW138455   7.070   1.315   6.403  0.5969  2.0692 -0.6262
 6821SOL    HW238456   7.008   1.381   6.524  0.6196 -0.2163  0.6982
 6822SOL     OW38457   8.092   3.087  11.648 -0.2931  0.4349 -0.2526
 6822SOL    HW138458   8.161   3.152  11.663 -0.7485  0.9916 -0.5107
 6822SOL    HW238459   8.129   3.027  11.583  0.7972 -0.6146  1.2497
 6823SOL     OW38460   6.653   0.777   7.670 -0.2051  0.1148  0.5501
 6823SOL    HW138461   6.616   0.757   7.756  1.9122 -0.2115  1.4513
 6823SOL    HW238462   6.635   0.870   7.657 -4.0116 -0.6047 -0.5404
 6824SOL     OW38463  10.513  10.668   3.838 -0.2969 -0.4362 -0.6054
 6824SOL    HW138464  10.515  10.745   3.895 -0.0700 -1.0997  0.3254
 6824SOL    HW238465  10.605  10.640   3.832 -0.4323 -0.9152 -0.5166
 6825SOL     OW38466   4.613   4.126   5.666  0.4982  0.4221 -0.1361
 6825SOL    HW138467   4.660   4.146   5.585  0.3781  0.8154 -0.1082
 6825SOL    HW238468   4.655   4.180   5.733  2.1736 -1.6017  0.5722
 6826SOL     OW38469   4.307  13.543  11.365 -0.0455  0.3191 -0.1647
 6826SOL    HW138470   4.395  13.554  11.401  0.3395 -1.7684 -0.3826
 6826SOL    HW238471   4.248  13.570  11.435  0.7453 -0.7408  0.9378
 6827SOL     OW38472   2.961   4.478   2.137  0.4080 -0.1937  0.1788
 6827SOL    HW138473   2.914   4.561   2.134 -1.0857 -1.0301 -1.0171
 6827SOL    HW238474   2.900   4.414   2.100  2.8669 -1.1732 -2.6171
 6828SOL     OW38475   7.613   6.101   7.782  0.1272 -0.3923  0.5305
 6828SOL    HW138476   7.599   6.190   7.750 -2.3895 -1.5652 -2.0227
 6828SOL    HW238477   7.673   6.061   7.720  1.2842 -0.5238  1.6891
 6829SOL     OW38478  12.464   7.317   6.569  0.3889 -0.3787  0.1124
 6829SOL    HW138479  12.388   7.365   6.601  1.0035  0.9871 -0.4274
 6829SOL    HW238480  12.478   7.349   6.480  1.7913 -0.3487  0.3203
 6830SOL     OW38481  12.070   7.600   9.083  0.1935 -0.8609 -0.0298
 6830SOL    HW138482  12.150   7.644   9.112 -0.0478 -1.9974  2.6692
 6830SOL    HW238483  12.095   7.508   9.078 -0.2562 -0.9065 -1.9897
 6831SOL     OW38484  11.847   2.771   7.602  0.0491  0.9624 -0.5973
 6831SOL    HW138485  11.880   2.691   7.561  0.2868  1.5920 -1.6783
 6831SOL    HW238486  11.840   2.749   7.695 -0.1868 -0.4074 -0.9106
 6832SOL     OW38487  13.768   9.088   6.573  0.1801 -0.3032 -0.1437
 6832SOL    HW138488  13.687   9.139   6.577  1.3638  1.6799 -0.1110
 6832SOL    HW238489  13.824   9.128   6.640  2.2893  0.4591 -2.2438
 6833SOL     OW38490   9.317  13.364   5.874  0.2423  0.3382  0.6714
 6833SOL    HW138491   9.290  13.422   5.945  1.3445  1.0933  0.5004
 6833SOL    HW238492   9.409  13.385   5.859  0.3390 -0.6116 -0.2201
 6834SOL     OW38493   4.653   8.751  10.353 -0.0406 -0.0616 -0.4747
 6834SOL    HW138494   4.709   8.719  10.282  0.4369 -0.3325  0.0162
 6834SOL    HW238495   4.715   8.784  10.419 -0.4947  1.9793 -0.9965
 6835SOL     OW38496   9.034  10.707   3.141  0.3673 -0.2626  0.0120
 6835SOL    HW138497   8.945  10.675   3.128  0.9832 -1.4464 -1.5798
 6835SOL    HW238498   9.062  10.668   3.224 -0.9881  1.1455  1.1935
 6836SOL     OW38499  12.386  13.879  13.869  0.3768 -0.3893  0.2630
 6836SOL    HW138500  12.456  13.825  13.833 -1.4597 -1.3702 -2.1338
 6836SOL    HW238501  12.388  13.862  13.963  3.2243 -0.4534  0.2629
 6837SOL     OW38502   9.238  13.647  13.395 -0.2032  0.7390  0.1054
 6837SOL    HW138503   9.305  13.716  13.397 -1.5506  2.0994  0.2829
 6837SOL    HW238504   9.225  13.629  13.302  1.8479 -1.0734  0.0827
 6838SOL     OW38505   4.608   1.499   1.529 -0.4071  0.3858  0.2938
 6838SOL    HW138506   4.515   1.504   1.553 -0.2063  0.9623  1.0104
 6838SOL    HW238507   4.628   1.587   1.496 -0.5387 -0.2396 -1.5478
 6839SOL     OW38508  13.937   0.346  11.317 -0.6157  0.1370  0.3758
 6839SOL    HW138509  13.892   0.338  11.401 -3.0520 -1.0092 -0.9268
 6839SOL    HW238510  13.965   0.256  11.296  0.7530  0.5531  0.3188
 6840SOL     OW38511   0.497  13.301   5.053 -0.1090  0.6654 -0.3322
 6840SOL    HW138512   0.538  13.382   5.021  0.5359  0.7103  0.5562
 6840SOL    HW238513   0.504  13.240   4.979 -0.7517  1.4587 -1.0716
 6841SOL     OW38514  13.185   3.352   0.582  0.2145 -0.2701 -0.4570
 6841SOL    HW138515  13.262   3.298   0.567  0.6538  0.1972  0.0430
 6841SOL    HW238516  13.195   3.382   0.672  0.8596  2.0050 -1.2259
 6842SOL     OW38517   0.463   2.601  13.103 -0.3173 -0.0255  0.0894
 6842SOL    HW138518   0.485   2.510  13.123 -0.6883  0.3077  2.2187
 6842SOL    HW238519   0.391   2.622  13.162  0.2034  1.8532  0.1308
 6843SOL     OW38520  13.756   7.722  12.668  0.1130 -0.7181 -0.6286
 6843SOL    HW138521  13.781   7.634  12.640  2.5034  0.4719 -2.6504
 6843SOL    HW238522  13.803   7.734  12.751  1.0440 -0.8596 -1.1115
 6844SOL     OW38523   4.962   2.652   7.289  0.4938  0.3778 -0.9141
 6844SOL    HW138524   4.941   2.737   7.329  0.8840 -0.3809  1.0086
 6844SOL    HW238525   4.881   2.602   7.294  0.8018 -0.0712 -0.0580
 6845SOL     OW38526   0.281   0.413  12.020  0.1241 -0.4450  0.2049
 6845SOL    HW138527   0.339   0.456  11.957 -0.3667  0.3187  0.2680
 6845SOL    HW238528   0.324   0.330  12.040  1.1142  0.0488  0.1405
 6846SOL     OW38529   7.907   7.381   5.959  0.6995 -0.2454  0.5888
 6846SOL    HW138530   7.994   7.374   5.999  1.1781 -0.7433 -0.5146
 6846SOL    HW238531   7.919   7.437   5.883  0.2052 -0.8601  0.0377
 6847SOL     OW38532   6.425  13.910   2.122 -0.3924 -0.1245 -0.7200
 6847SOL    HW138533   6.363  13.973   2.158  1.1902  1.3980 -0.5033
 6847SOL    HW238534   6.417  13.834   2.180 -1.2314  0.4743 -0.0087
 6848SOL     OW38535   8.330   2.845   9.821  0.5886  0.8088  0.2621
 6848SOL    HW138536   8.383   2.801   9.754  0.5417  0.5380  0.4010
 6848SOL    HW238537   8.251   2.792   9.827  1.5771 -0.5673  2.2016
 6849SOL     OW38538   3.028   1.936   1.562 -0.0274  0.3970  0.4012
 6849SOL    HW138539   3.035   1.999   1.491 -0.1755  1.2594  1.1284
 6849SOL    HW238540   3.118   1.907   1.577  0.2294  1.4176  0.9087
 6850SOL     OW38541  11.187   5.924   1.528  0.5878  0.2023  0.1618
 6850SOL    HW138542  11.121   5.863   1.495  1.5998 -0.3046 -1.0133
 6850SOL    HW238543  11.271   5.884   1.503  1.2881  2.4008 -1.3237
 6851SOL     OW38544   8.429   7.759   2.957  0.7202  0.5113  0.2711
 6851SOL    HW138545   8.477   7.676   2.952  1.1765  0.8534 -1.7078
 6851SOL    HW238546   8.494   7.823   2.986  0.4906  0.2883  1.3092
 6852SOL     OW38547   1.475  12.384   1.140  0.1969  0.2925  0.4769
 6852SOL    HW138548   1.510  12.469   1.165  0.4369  0.1812  0.5184
 6852SOL    HW238549   1.529  12.321   1.188  1.6644 -0.0055 -1.4773
 6853SOL     OW38550  11.580  11.066   5.620  0.0903 -0.1623 -0.3721
 6853SOL    HW138551  11.579  11.029   5.532  2.5069  0.7968 -0.8925
 6853SOL    HW238552  11.527  11.145   5.614 -1.8196 -1.3930 -0.2733
 6854SOL     OW38553  12.063   9.198  12.419 -0.7897 -0.1940  0.0933
 6854SOL    HW138554  12.116   9.122  12.395 -1.8176 -0.9446  0.1427
 6854SOL    HW238555  12.048   9.244  12.336 -0.4424 -0.2237  0.0123
 6855SOL     OW38556  11.622   3.469  11.769  0.3900 -0.1560  0.3605
 6855SOL    HW138557  11.564   3.415  11.822  0.1455 -0.0470  0.2036
 6855SOL    HW238558  11.568   3.543  11.741  0.2623 -0.6531 -0.7623
 6856SOL     OW38559  13.345   8.537   9.611 -0.7794  0.0400  0.1154
 6856SOL    HW138560  13.391   8.518   9.692  1.0015 -0.5053 -0.9688
 6856SOL    HW238561  13.405   8.592   9.561 -0.2438 -2.4807 -2.2600
 6857SOL     OW38562   5.481   4.500   9.564 -0.3272 -0.1029  0.0418
 6857SOL    HW138563   5.428   4.477   9.641 -0.0737 -0.4722  0.1109
 6857SOL    HW238564   5.535   4.574   9.593 -0.5560  0.0475  0.0814
 6858SOL     OW38565   4.199   0.684   2.861  0.7988  0.6315 -0.4201
 6858SOL    HW138566   4.206   0.771   2.901  0.9152  0.2660  0.3650
 6858SOL    HW238567   4.105   0.671   2.849  0.6898  0.3563  0.6262
 6859SOL     OW38568   5.010   9.772  10.284 -0.0186  0.5836  0.0189
 6859SOL    HW138569   5.085   9.724  10.250 -1.2723 -1.0810 -0.5375
 6859SOL    HW238570   5.047   9.833  10.348  1.7263 -0.6339  0.2273
 6860SOL     OW38571  10.648   3.614   6.416  0.3410  0.2755  0.2315
 6860SOL    HW138572  10.560   3.607   6.378 -0.7919 -0.0533  2.7034
 6860SOL    HW238573  10.671   3.524   6.439  0.2640  0.6112  1.7313
 6861SOL     OW38574   2.218  11.797   5.811 -0.1519  0.1879 -0.2469
 6861SOL    HW138575   2.313  11.784   5.820 -0.4354 -1.9698  0.1185
 6861SOL    HW238576   2.195  11.753   5.730 -0.5628  2.7631 -1.6417
 6862SOL     OW38577   1.178   2.978   1.210  0.3097 -0.1497 -0.2701
 6862SOL    HW138578   1.218   2.895   1.184  0.5976  0.3129 -1.3441
 6862SOL    HW238579   1.229   3.045   1.166  1.4265  0.7914  2.2362
 6863SOL     OW38580   0.392   4.598   2.134 -0.1189  0.4537  0.0393
 6863SOL    HW138581   0.359   4.518   2.176  1.5055  0.3909  1.2664
 6863SOL    HW238582   0.402   4.574   2.042 -0.9179 -0.3229  0.1379
 6864SOL     OW38583  10.802   9.247   8.822 -0.2599  0.0074  0.1939
 6864SOL    HW138584  10.756   9.177   8.867  0.9299 -1.3525 -0.6114
 6864SOL    HW238585  10.852   9.291   8.891 -0.3564 -0.4896  0.5894
 6865SOL     OW38586  11.140  10.921  11.022 -0.6561  0.4683  0.1593
 6865SOL    HW138587  11.215  10.865  11.000 -0.8968  0.4721 -0.7106
 6865SOL    HW238588  11.077  10.906  10.952  0.0638  3.2842 -1.2547
 6866SOL     OW38589   6.877   8.838  11.239  0.3369  0.0431  0.2336
 6866SOL    HW138590   6.861   8.829  11.333  2.0329  0.8806  0.6331
 6866SOL    HW238591   6.903   8.750  11.211  2.5104  0.3330  1.1438
 6867SOL     OW38592  12.369   5.731   3.380  0.6935  0.2705 -0.2595
 6867SOL    HW138593  12.345   5.662   3.319 -3.4667  0.1849  1.1410
 6867SOL    HW238594  12.334   5.811   3.341  4.7340  1.6932 -1.4670
 6868SOL     OW38595   8.339  11.771   5.726 -0.0736 -0.5494  0.1119
 6868SOL    HW138596   8.298  11.842   5.678  0.1916 -0.0357  0.6326
 6868SOL    HW238597   8.323  11.791   5.818  0.1164 -1.0932  0.2705
 6869SOL     OW38598   9.753   1.349   6.446  0.4845  0.1702  0.1606
 6869SOL    HW138599   9.701   1.409   6.393  0.6634  0.7224  0.6047
 6869SOL    HW238600   9.796   1.404   6.511  0.8672 -0.4022  0.4083
 6870SOL     OW38601   0.679   1.043   9.229 -0.0839  0.3471  0.0214
 6870SOL    HW138602   0.633   1.024   9.147 -0.9382 -0.7404  0.7190
 6870SOL    HW238603   0.764   1.001   9.219 -0.5905 -0.7346  0.0997
 6871SOL     OW38604   1.903   8.343   1.838 -0.0866  0.1230  0.6766
 6871SOL    HW138605   1.820   8.386   1.818 -0.3225 -0.6693 -0.1017
 6871SOL    HW238606   1.915   8.357   1.932  0.5953  3.1562  0.2448
 6872SOL     OW38607  13.623   2.604   6.733  0.2864  0.3490 -0.2400
 6872SOL    HW138608  13.614   2.513   6.761 -1.7113  0.0930 -1.4878
 6872SOL    HW238609  13.562   2.652   6.790  0.2624  0.6666 -0.5319
 6873SOL     OW38610   1.861   7.596   1.404 -0.9960 -0.3562 -0.1512
 6873SOL    HW138611   1.810   7.609   1.484 -0.8951 -1.8828  0.1878
 6873SOL    HW238612   1.914   7.675   1.397 -0.9749 -0.2043  1.3132
 6874SOL     OW38613   9.696  13.521   1.669 -0.1762  1.0760  0.3156
 6874SOL    HW138614   9.696  13.561   1.756  0.3703  1.5647  0.0983
 6874SOL    HW238615   9.781  13.477   1.663 -0.3008  0.8614  0.1115
 6875SOL     OW38616   0.955  10.106   3.608 -0.5495 -0.5907  0.1472
 6875SOL    HW138617   0.905  10.152   3.676 -0.6207 -1.6716  0.8617
 6875SOL    HW238618   0.944  10.159   3.529 -1.4145  0.0855  0.7058
 6876SOL     OW38619  11.665  12.574  10.108  0.1685  0.1130 -0.3038
 6876SOL    HW138620  11.607  12.650  10.107 -0.3854 -0.2386  1.4423
 6876SOL    HW238621  11.720  12.584  10.030 -0.1650  2.0744 -0.3278
 6877SOL     OW38622   9.628   9.458  13.991 -0.0773  0.3160  0.3701
 6877SOL    HW138623   9.621   9.507  13.909 -0.7003  1.8337  1.2995
 6877SOL    HW238624   9.552   9.400  13.990 -0.2804  0.5835  0.0331
 6878SOL     OW38625   0.166   2.298   6.844 -0.0442 -0.8226 -0.5655
 6878SOL    HW138626   0.104   2.296   6.770  0.1295  0.5746 -0.7708
 6878SOL    HW238627   0.110   2.297   6.922 -0.3133 -0.2625 -0.7440
 6879SOL     OW38628  12.922   8.916   3.376 -0.5961 -0.4407 -0.6598
 6879SOL    HW138629  13.008   8.886   3.404 -0.0487 -1.2076 -2.9215
 6879SOL    HW238630  12.897   8.983   3.440  1.3139 -0.7610  0.4853
 6880SOL     OW38631  11.826   5.521   2.741  0.2677 -0.0491  0.0770
 6880SOL    HW138632  11.733   5.543   2.734 -0.0891 -0.9853  1.4977
 6880SOL    HW238633  11.829   5.443   2.796  1.7370 -1.5582 -1.9702
 6881SOL     OW38634   1.032   7.797   2.412  0.9449 -0.7069 -0.2177
 6881SOL    HW138635   1.102   7.733   2.401  1.1891 -0.5300  0.2733
 6881SOL    HW238636   1.071   7.866   2.466  0.3023 -0.7544  0.3205
 6882SOL     OW38637   4.431   9.672   9.273  0.1249 -0.1015  0.0068
 6882SOL    HW138638   4.378   9.752   9.271  1.0127  0.4994 -0.8667
 6882SOL    HW238639   4.491   9.684   9.346 -0.3611 -0.4025  0.4629
 6883SOL     OW38640  11.299   2.334   4.389  0.0770  0.7795  0.1860
 6883SOL    HW138641  11.335   2.389   4.319 -0.5218  1.1163  0.1372
 6883SOL    HW238642  11.270   2.395   4.456 -0.9460  0.5701 -0.0339
 6884SOL     OW38643   5.775   0.885   1.275 -0.7944 -0.0710 -0.4760
 6884SOL    HW138644   5.754   0.792   1.270 -2.0727  0.1925 -0.2973
 6884SOL    HW238645   5.748   0.911   1.362  0.0721  0.3642 -0.3248
 6885SOL     OW38646   2.846   6.414   0.263  0.4507 -0.7469  0.2471
 6885SOL    HW138647   2.844   6.457   0.177 -0.9718 -0.5030  0.3719
 6885SOL    HW238648   2.939   6.406   0.284  0.7871  1.3143 -0.2517
 6886SOL     OW38649   7.125   1.818   6.328  0.6918  0.2191 -0.0480
 6886SOL    HW138650   7.181   1.811   6.405  0.6152 -1.1665 -0.0911
 6886SOL    HW238651   7.171   1.878   6.270  0.7131  1.3486  1.0954
 6887SOL     OW38652   0.094   0.692  10.966 -0.3011  0.1870  0.0366
 6887SOL    HW138653   0.010   0.647  10.979  0.2316 -1.0534 -0.6381
 6887SOL    HW238654   0.127   0.657  10.883  1.6091 -0.5750  1.0586
 6888SOL     OW38655  10.583  11.566  12.721  0.1577 -0.4922  0.1977
 6888SOL    HW138656  10.570  11.498  12.655 -0.7100  0.0939 -0.2415
 6888SOL    HW238657  10.604  11.645  12.672  3.7870 -0.9426  0.7889
 6889SOL     OW38658   4.769   5.036  11.488 -0.0905  0.0990  0.3448
 6889SOL    HW138659   4.758   4.958  11.542  0.0731 -0.2607 -0.1284
 6889SOL    HW238660   4.741   5.109  11.544 -2.5055 -0.4974  0.0503
 6890SOL     OW38661   9.430   3.336  10.947 -0.2191 -0.5457 -0.1118
 6890SOL    HW138662   9.376   3.308  11.021 -1.0398  0.3313 -0.3638
 6890SOL    HW238663   9.368   3.351  10.876  0.4935 -0.7403 -0.7838
 6891SOL     OW38664   6.651   3.731   9.878  0.0648 -0.0174 -1.0679
 6891SOL    HW138665   6.606   3.767   9.955  1.9093  1.8784 -0.7808
 6891SOL    HW238666   6.649   3.636   9.891 -1.7193  0.1374  0.0966
 6892SOL     OW38667   3.489  12.486   9.362  0.4255  0.3386 -0.2057
 6892SOL    HW138668   3.488  12.564   9.306  0.0826  0.5399  0.0765
 6892SOL    HW238669   3.552  12.427   9.320  0.4513  0.6388 -0.5947
 6893SOL     OW38670  11.517   0.792   7.923  0.2661  0.4108  0.2085
 6893SOL    HW138671  11.537   0.699   7.927  0.7365  0.3786 -1.6243
 6893SOL    HW238672  11.485   0.805   7.833 -0.8282  1.8258  0.7604
 6894SOL     OW38673   2.121   6.022   1.722  0.5766  0.2612 -0.7228
 6894SOL    HW138674   2.041   5.970   1.713 -0.1878  1.4794 -1.3021
 6894SOL    HW238675   2.098   6.108   1.685  1.9811  0.8163 -0.3803
 6895SOL     OW38676  13.192   1.606  12.803 -0.3546  0.0486  0.2981
 6895SOL    HW138677  13.110   1.655  12.791  0.1620  0.6987 -0.7333
 6895SOL    HW238678  13.204   1.559  12.720 -0.1931 -0.8523  0.8146
 6896SOL     OW38679  10.536   3.814   9.573  0.5799  0.3508  0.0251
 6896SOL    HW138680  10.523   3.867   9.494  3.0338  2.0988  0.6680
 6896SOL    HW238681  10.516   3.873   9.646  1.0325 -0.3732  0.7546
 6897SOL     OW38682  10.462  12.331   0.980  0.0876  0.2877 -0.3630
 6897SOL    HW138683  10.458  12.425   0.967 -0.9070  0.1372 -1.4261
 6897SOL    HW238684  10.515  12.299   0.907 -0.0320 -0.0204 -0.3185
 6898SOL     OW38685   3.605   4.883  13.082 -0.6128  0.2790  0.4953
 6898SOL    HW138686   3.633   4.881  12.991 -3.4310  0.6757 -0.4788
 6898SOL    HW238687   3.667   4.826  13.128 -0.4380 -1.7601 -2.0668
 6899SOL     OW38688   5.528   5.420  11.498  0.2577  0.3282  0.1106
 6899SOL    HW138689   5.561   5.367  11.425  1.4310  1.5224 -0.2705
 6899SOL    HW238690   5.587   5.495  11.501  0.3292  0.2347  2.4119
 6900SOL     OW38691  13.365   6.907   9.011 -0.5488 -0.2011 -0.6934
 6900SOL    HW138692  13.331   6.969   9.074 -2.4717 -1.9280  0.0963
 6900SOL    HW238693  13.375   6.825   9.060  1.6786 -0.6393 -1.7271
 6901SOL     OW38694  11.892   7.243   5.546  0.3091  0.2387  0.4467
 6901SOL    HW138695  11.949   7.310   5.508 -0.9465  0.8854 -0.3851
 6901SOL    HW238696  11.810   7.290   5.564 -0.3703 -0.9316  0.4582
 6902SOL     OW38697   1.193   7.108   6.099  0.0157 -0.0775  0.2005
 6902SOL    HW138698   1.135   7.049   6.051 -1.7914  0.6388  1.4080
 6902SOL    HW238699   1.270   7.055   6.118  0.2972 -0.7371 -2.3729
 6903SOL     OW38700  13.510  10.945   8.171  0.4495 -0.5670  0.3938
 6903SOL    HW138701  13.556  11.015   8.125 -0.7713  0.8741  1.2805
 6903SOL    HW238702  13.455  10.904   8.105 -3.2782  3.1395  0.8170
 6904SOL     OW38703   2.137  13.755   8.538  0.0789 -0.2271  0.1044
 6904SOL    HW138704   2.046  13.734   8.516  0.0082 -0.0326  0.2102
 6904SOL    HW238705   2.131  13.823   8.605  0.3013 -0.0891 -0.0104
 6905SOL     OW38706  11.739   6.507  10.966  0.3427  0.4231  0.5512
 6905SOL    HW138707  11.688   6.498  10.886 -0.2151 -0.0968  0.9627
 6905SOL    HW238708  11.711   6.590  11.003 -2.9928 -1.4325  2.6787
 6906SOL     OW38709  12.959   4.095   4.485  1.0608 -0.2244  0.3218
 6906SOL    HW138710  12.992   4.127   4.401  2.3324  0.2020  0.9631
 6906SOL    HW238711  12.870   4.065   4.466  1.5515 -0.7292 -1.3025
 6907SOL     OW38712  12.594   3.627   0.658 -0.3139  0.2431 -0.2372
 6907SOL    HW138713  12.649   3.559   0.618  0.0393  0.2522  0.2216
 6907SOL    HW238714  12.653   3.671   0.719 -0.2111  1.7275 -1.3511
 6908SOL     OW38715   7.175   4.069  14.082 -0.1930 -0.3431 -0.3021
 6908SOL    HW138716   7.146   4.072  13.991 -0.6418 -0.1074 -0.1538
 6908SOL    HW238717   7.215   4.154  14.097 -2.3905  0.6354  0.4523
 6909SOL     OW38718  12.035   8.104  13.145  0.2952 -0.0045  0.3446
 6909SOL    HW138719  11.963   8.167  13.149 -0.7409 -0.8536 -2.5085
 6909SOL    HW238720  12.093   8.139  13.077  0.7186 -1.1164  0.1220
 6910SOL     OW38721   9.246  12.671   0.103  0.4079  0.2004  0.2274
 6910SOL    HW138722   9.308  12.599   0.115 -0.1510 -0.3732 -0.2129
 6910SOL    HW238723   9.301  12.749   0.092  1.0046  0.1165  2.2415
 6911SOL     OW38724   8.942   0.020   2.619 -0.2043 -0.5848 -0.5928
 6911SOL    HW138725   8.947   0.034   2.714  1.6304 -1.3866 -0.5340
 6911SOL    HW238726   9.032   0.034   2.588 -0.5987 -1.2255 -2.0919
 6912SOL     OW38727   8.280  14.012   8.649 -0.4299 -0.0344 -0.6565
 6912SOL    HW138728   8.239  14.081   8.701  1.5972  0.1016  0.8836
 6912SOL    HW238729   8.239  13.931   8.681  0.0590  0.1375  0.4375
 6913SOL     OW38730   9.384   7.518   9.104  0.3341 -0.0753 -0.2870
 6913SOL    HW138731   9.361   7.468   9.026 -0.9474 -0.1049  0.0720
 6913SOL    HW238732   9.462   7.476   9.138 -0.6322 -1.7769 -0.0796
 6914SOL     OW38733   8.981   0.727   0.663 -0.0816  0.4756  0.0128
 6914SOL    HW138734   9.068   0.689   0.653 -0.0040  0.5185  0.5084
 6914SOL    HW238735   8.923   0.666   0.617 -0.0443 -0.6046  1.3612
 6915SOL     OW38736   5.424   8.016  11.632 -0.4298 -0.2475  0.1008
 6915SOL    HW138737   5.330   8.028  11.648 -0.2307  2.0468 -0.1134
 6915SOL    HW238738   5.451   8.097  11.588  1.5707 -1.0639 -0.2713
 6916SOL     OW38739   5.279   0.904   1.129 -0.0274  0.8276 -0.1891
 6916SOL    HW138740   5.211   0.837   1.123  0.1755  0.7061 -1.3712
 6916SOL    HW238741   5.245   0.976   1.075  0.9231  0.6248 -1.0882
 6917SOL     OW38742   2.265   9.399   9.168  0.3541  0.7057 -0.2352
 6917SOL    HW138743   2.241   9.420   9.259 -0.1328 -0.6858 -0.0191
 6917SOL    HW238744   2.318   9.474   9.140 -1.3388  2.2379  0.4404
 6918SOL     OW38745  10.064  13.271   4.059 -0.4989 -0.2359 -0.5502
 6918SOL    HW138746  10.063  13.345   3.998 -0.2046  0.4350  0.2441
 6918SOL    HW238747  10.134  13.291   4.121 -0.0726 -1.4251 -0.6044
 6919SOL     OW38748  10.627  11.335   1.867 -0.0840 -0.3021 -0.1010
 6919SOL    HW138749  10.582  11.369   1.790  1.0957 -0.6495 -0.9850
 6919SOL    HW238750  10.567  11.271   1.905 -0.6655 -0.1511 -0.7492
 6920SOL     OW38751   9.113   3.158  12.241  0.1621  0.0258  0.1139
 6920SOL    HW138752   9.132   3.090  12.176 -1.8411 -0.8943  0.3998
 6920SOL    HW238753   9.092   3.109  12.321 -0.1272  1.0197  0.6543
 6921SOL     OW38754   9.088   3.337  11.510 -0.5513 -0.2272  0.0713
 6921SOL    HW138755   9.015   3.374  11.560 -1.3319 -1.2267 -0.2780
 6921SOL    HW238756   9.164   3.391  11.533 -1.1772  0.1680  1.2650
 6922SOL     OW38757   2.871   9.406   3.182 -0.0089  0.0719 -0.4710
 6922SOL    HW138758   2.888   9.348   3.108 -0.7515 -0.3288 -0.3464
 6922SOL    HW238759   2.875   9.494   3.145 -0.6822 -0.1354 -1.0627
 6923SOL     OW38760   9.828   3.096   3.101  0.2344  0.7330  0.1486
 6923SOL    HW138761   9.842   3.141   3.184  0.2130  2.1126 -0.5591
 6923SOL    HW238762   9.781   3.160   3.047  0.5290 -0.0088 -1.0222
 6924SOL     OW38763   9.420   5.617  10.317 -0.6669  0.3522 -0.2826
 6924SOL    HW138764   9.498   5.568  10.293 -1.6964 -3.0973  2.5804
 6924SOL    HW238765   9.451   5.688  10.372  0.5774  0.6102 -1.2751
 6925SOL     OW38766   2.203  13.145  12.567  0.2872 -0.0717 -0.1046
 6925SOL    HW138767   2.119  13.185  12.546  0.1448  0.2867  1.1152
 6925SOL    HW238768   2.264  13.219  12.575  0.3836 -0.2165  0.5178
 6926SOL     OW38769  10.648  10.502   3.555  0.0242  0.0891 -0.0520
 6926SOL    HW138770  10.691  10.550   3.627  3.3243 -0.5737 -1.4037
 6926SOL    HW238771  10.559  10.486   3.587  0.6865  1.6657  2.9814
 6927SOL     OW38772  13.323   8.861  13.358  0.2068 -0.4536 -0.5292
 6927SOL    HW138773  13.289   8.934  13.306 -0.1046 -1.6141 -2.0411
 6927SOL    HW238774  13.412   8.848  13.325  0.8876  0.2748  0.9123
 6928SOL     OW38775  10.155   6.011   7.548 -0.5121  0.8661 -0.3683
 6928SOL    HW138776  10.147   6.034   7.455  0.5718  3.3984  0.0925
 6928SOL    HW238777  10.065   5.993   7.575 -0.9602  0.9529 -1.6905
 6929SOL     OW38778   4.798   7.419  10.112  0.6166 -0.4521  0.2466
 6929SOL    HW138779   4.740   7.487  10.145  0.7768 -1.2742  2.3694
 6929SOL    HW238780   4.838   7.457  10.034 -0.5725  1.2168  0.3999
 6930SOL     OW38781   9.473   7.288   3.828 -0.6231  0.3591 -0.4217
 6930SOL    HW138782   9.404   7.303   3.763 -0.1703  1.3667 -0.7007
 6930SOL    HW238783   9.554   7.307   3.781 -0.0257 -2.0153 -0.4578
 6931SOL     OW38784   1.848   4.170  11.417  0.2684 -0.0648 -0.6187
 6931SOL    HW138785   1.821   4.260  11.401 -2.7662 -0.4035  1.7751
 6931SOL    HW238786   1.774   4.116  11.389  0.7311 -1.5641  0.8482
 6932SOL     OW38787   7.722  11.184  12.979  0.5917 -0.0182 -0.2883
 6932SOL    HW138788   7.670  11.115  13.021  0.5092 -0.0341 -0.4174
 6932SOL    HW238789   7.658  11.251  12.957  0.7460  0.3283  0.3036
 6933SOL     OW38790  13.218   2.223   4.623 -0.2136  0.5048 -0.3154
 6933SOL    HW138791  13.249   2.293   4.680 -0.0363 -0.1396  0.4043
 6933SOL    HW238792  13.135   2.255   4.588  0.4046  1.5282 -0.8798
 6934SOL     OW38793  11.973   9.135   8.841 -0.2953  0.0932  0.3375
 6934SOL    HW138794  12.025   9.156   8.764 -1.1517  0.5055 -0.1494
 6934SOL    HW238795  12.036   9.132   8.913  0.4239  0.3614 -0.2691
 6935SOL     OW38796   5.769   9.632  12.668 -0.2580 -0.0246  0.0428
 6935SOL    HW138797   5.840   9.626  12.732 -1.3982 -1.5928  1.2535
 6935SOL    HW238798   5.710   9.560  12.691 -1.2899  0.0564 -2.1043
 6936SOL     OW38799   5.733   8.681   2.862 -0.0340 -0.4923  0.8148
 6936SOL    HW138800   5.819   8.724   2.867 -0.3868  0.2761  0.4369
 6936SOL    HW238801   5.689   8.707   2.942  0.4004 -1.6059  1.4327
 6937SOL     OW38802   2.718  10.072   1.894  0.2130  0.1243  0.0885
 6937SOL    HW138803   2.765  10.139   1.943  0.4266  1.0805 -1.3521
 6937SOL    HW238804   2.786  10.029   1.841  0.2691 -1.9998  1.7475
 6938SOL     OW38805   0.029   7.507   4.214 -0.2316  0.1546 -1.0035
 6938SOL    HW138806   0.003   7.597   4.231  3.6114  1.2904 -0.3500
 6938SOL    HW238807   0.046   7.470   4.301  0.1676 -0.5346 -1.3629
 6939SOL     OW38808   9.119  12.225  13.931 -0.2139  0.0001 -0.4054
 6939SOL    HW138809   9.156  12.284  13.996  0.5916 -0.5036 -0.3961
 6939SOL    HW238810   9.192  12.169  13.905 -0.4746  0.3411 -1.9193
 6940SOL     OW38811  11.264   2.185   0.761  0.2900 -0.1447  0.1591
 6940SOL    HW138812  11.334   2.238   0.799  0.1135  0.6724 -0.6166
 6940SOL    HW238813  11.258   2.215   0.670 -0.8666 -0.4113  0.1309
 6941SOL     OW38814   5.930  12.026   7.617  0.1654 -0.5505 -0.0252
 6941SOL    HW138815   5.905  11.948   7.667 -2.1889  0.6248  0.7477
 6941SOL    HW238816   5.883  12.018   7.534  1.3695 -0.8172 -0.7026
 6942SOL     OW38817   6.353  13.131   4.508 -0.6625  0.5779 -0.7439
 6942SOL    HW138818   6.362  13.067   4.579  1.5158  1.3080 -0.2644
 6942SOL    HW238819   6.276  13.182   4.531 -0.6644  0.0457  0.5017
 6943SOL     OW38820   3.773  11.405   7.587  0.3664  0.1341  0.2294
 6943SOL    HW138821   3.846  11.462   7.610 -0.5361  1.6100 -0.4150
 6943SOL    HW238822   3.695  11.450   7.620 -0.3811 -0.6535 -0.3928
 6944SOL     OW38823   9.424   4.002  13.378  0.1403 -0.0140  0.4855
 6944SOL    HW138824   9.496   4.029  13.435  0.0925 -1.0164  1.0527
 6944SOL    HW238825   9.352   4.062  13.400  1.0784  1.6652 -0.8235
 6945SOL     OW38826  13.690   1.436   2.994 -0.1691 -0.3362  0.3152
 6945SOL    HW138827  13.655   1.522   3.012 -0.2094 -0.4292  0.6744
 6945SOL    HW238828  13.744   1.414   3.070  0.3507 -0.3621 -0.0493
 6946SOL     OW38829   1.928   2.178  12.067  0.3190  0.0130  0.0213
 6946SOL    HW138830   2.016   2.215  12.063 -0.7683  3.0529  1.3734
 6946SOL    HW238831   1.937   2.100  12.122  1.9434  1.1255  1.4332
 6947SOL     OW38832  11.017   3.436   9.082  1.0027  0.1473 -0.1238
 6947SOL    HW138833  10.983   3.525   9.073  1.5307  0.5043  1.1798
 6947SOL    HW238834  10.939   3.381   9.087  0.6689  0.5229 -0.9211
 6948SOL     OW38835  11.063  13.660  12.563  0.1025  0.5131 -0.3746
 6948SOL    HW138836  11.150  13.666  12.603 -0.3142 -0.4220  0.6908
 6948SOL    HW238837  11.081  13.646  12.470  1.0981 -0.6057 -0.0315
 6949SOL     OW38838  12.703   6.219   5.442  0.4543 -0.1729  0.1638
 6949SOL    HW138839  12.640   6.182   5.379  0.1525 -0.4482  0.6206
 6949SOL    HW238840  12.748   6.288   5.393  2.6486 -2.5715 -1.4688
 6950SOL     OW38841   3.905   0.479  14.098  0.5767  0.0487 -0.2927
 6950SOL    HW138842   3.946   0.541  14.037  0.2744  0.3534 -0.1900
 6950SOL    HW238843   3.862   0.535  14.162  0.8734 -0.2722  0.1893
 6951SOL     OW38844   7.167   6.962   6.014  0.0507 -0.3121  0.5347
 6951SOL    HW138845   7.186   6.907   6.090  0.6560 -0.4188  0.3144
 6951SOL    HW238846   7.249   6.965   5.966 -0.2062  0.1204  0.1150
 6952SOL     OW38847   7.238   2.991   9.525  0.3090  0.1278 -0.2919
 6952SOL    HW138848   7.327   3.022   9.510  0.6380 -1.4558 -2.0261
 6952SOL    HW238849   7.182   3.058   9.487  0.7854  0.7228  0.0345
 6953SOL     OW38850   8.479   7.810   7.785  0.1817 -0.0756  0.2710
 6953SOL    HW138851   8.532   7.742   7.742 -0.0171  0.3563 -0.6922
 6953SOL    HW238852   8.491   7.794   7.878  2.7015  0.5384  0.1134
 6954SOL     OW38853  10.571   4.214   7.243  0.3791  0.7467 -0.3379
 6954SOL    HW138854  10.601   4.156   7.172 -2.6142 -0.3287 -0.8884
 6954SOL    HW238855  10.646   4.220   7.302  1.3448 -2.5231 -1.0225
 6955SOL     OW38856   3.501   3.968  12.745  0.0427  0.1297 -0.2146
 6955SOL    HW138857   3.476   4.049  12.790 -2.8261 -0.5200 -0.4626
 6955SOL    HW238858   3.548   3.918  12.812 -1.2994  0.5196  1.0690
 6956SOL     OW38859   3.331   5.538   0.938 -0.4693  0.0560  0.2150
 6956SOL    HW138860   3.248   5.510   0.899  0.0809 -1.6945  0.2051
 6956SOL    HW238861   3.313   5.626   0.972 -2.3012 -0.2532  0.1629
 6957SOL     OW38862   2.875  13.594   3.515 -0.2989 -0.4947  0.5099
 6957SOL    HW138863   2.836  13.625   3.597 -0.2013 -1.3215  0.8787
 6957SOL    HW238864   2.955  13.549   3.542  0.6183  0.6663 -0.1896
 6958SOL     OW38865   1.611   8.393   4.506  0.0569 -0.3255 -0.4344
 6958SOL    HW138866   1.577   8.336   4.574  0.9502 -0.2895  0.0520
 6958SOL    HW238867   1.596   8.482   4.539  3.2683 -0.2800  1.1985
 6959SOL     OW38868   9.905   6.914  12.570  0.2125  0.2767 -0.3180
 6959SOL    HW138869   9.902   6.990  12.512  0.7342 -0.1869 -0.9664
 6959SOL    HW238870   9.908   6.952  12.658  0.7962  1.0211 -0.6442
 6960SOL     OW38871   9.028  13.122   5.765 -0.6362 -0.2085 -0.4919
 6960SOL    HW138872   9.113  13.089   5.794 -1.1235  1.3446  3.3118
 6960SOL    HW238873   9.045  13.161   5.679  2.0808 -1.4132 -0.5958
 6961SOL     OW38874   3.091   5.199   7.721 -0.2101  0.0115 -0.5291
 6961SOL    HW138875   3.080   5.176   7.629 -2.5626  1.5761 -0.7223
 6961SOL    HW238876   3.020   5.153   7.766 -0.4027  0.9697  0.1760
 6962SOL     OW38877   6.785   1.454  13.830 -0.5592 -0.5697 -0.2395
 6962SOL    HW138878   6.814   1.499  13.909 -1.6145  0.9300 -0.6657
 6962SOL    HW238879   6.866   1.434  13.783 -0.0259  0.1637  0.3526
 6963SOL     OW38880  11.501   1.981  14.103 -0.1132 -0.1971  0.0714
 6963SOL    HW138881  11.446   2.039  14.050 -1.6415 -0.6663  1.0840
 6963SOL    HW238882  11.517   2.031  14.184 -0.3844 -0.6919  0.4312
 6964SOL     OW38883   3.683  12.090  12.558 -0.2205  0.0802 -0.2620
 6964SOL    HW138884   3.710  12.063  12.646 -1.1088  3.3182  1.1581
 6964SOL    HW238885   3.761  12.132  12.521 -0.0095 -0.7882 -0.8136
 6965SOL     OW38886   7.621  12.288   9.622 -0.4223  0.2739 -0.0401
 6965SOL    HW138887   7.647  12.233   9.549  1.6238  0.1404  0.7193
 6965SOL    HW238888   7.679  12.363   9.618 -0.4419  0.3885  1.2928
 6966SOL     OW38889   7.655   4.725  12.585  1.0578 -0.1316  0.6729
 6966SOL    HW138890   7.645   4.656  12.520  2.3801  0.4541 -0.2145
 6966SOL    HW238891   7.623   4.804  12.541  0.0972 -0.0583  1.4676
 6967SOL     OW38892  12.394   9.372  11.043  0.1587 -0.0842 -0.7073
 6967SOL    HW138893  12.485   9.401  11.042  0.0215  0.3548 -0.7684
 6967SOL    HW238894  12.345   9.446  11.005 -0.1268 -0.6285 -1.4273
 6968SOL     OW38895   9.681  13.067   8.979 -0.0200  0.4437  0.3405
 6968SOL    HW138896   9.710  13.066   9.070 -1.1795  1.6275  0.7542
 6968SOL    HW238897   9.589  13.042   8.983  0.3792 -1.3285 -0.7324
 6969SOL     OW38898   9.564   1.259  12.916 -0.0800 -0.5071 -0.0684
 6969SOL    HW138899   9.577   1.333  12.975  0.8241  0.1692 -1.0729
 6969SOL    HW238900   9.476   1.272  12.880  0.7997  1.2749 -1.7789
 6970SOL     OW38901  12.259   7.497   3.541 -0.1730 -0.5215 -0.1338
 6970SOL    HW138902  12.342   7.472   3.500  0.6112  0.5796  0.7377
 6970SOL    HW238903  12.256   7.447   3.622  0.4294  0.6433  0.6239
 6971SOL     OW38904   1.634   5.265   8.964 -0.3769  0.8444  0.3990
 6971SOL    HW138905   1.607   5.176   8.944  0.8694  0.3596  0.7628
 6971SOL    HW238906   1.632   5.310   8.880 -0.9791  0.4741  0.2071
 6972SOL     OW38907  14.095   5.241   3.802 -0.0547 -0.4405 -0.3280
 6972SOL    HW138908  14.079   5.157   3.846 -0.1154 -0.5688 -0.5925
 6972SOL    HW238909  14.183   5.267   3.829 -0.0685 -0.5490 -0.1788
 6973SOL     OW38910  13.746   4.586  11.969 -0.4715  0.0847  0.3203
 6973SOL    HW138911  13.680   4.539  12.020  0.2275 -1.1207  0.1602
 6973SOL    HW238912  13.789   4.518  11.917  0.1034  1.0189 -0.4577
 6974SOL     OW38913  14.040  12.219  13.308 -0.1229 -0.4887 -0.2325
 6974SOL    HW138914  14.067  12.243  13.397  0.9257  0.2492 -0.7284
 6974SOL    HW238915  14.105  12.156  13.279 -0.4186 -0.6699 -0.5040
 6975SOL     OW38916  11.325   0.517  13.053  0.1762  0.5160  0.2955
 6975SOL    HW138917  11.240   0.532  13.094 -0.2606 -0.2699 -0.2867
 6975SOL    HW238918  11.308   0.452  12.985  1.4307 -0.4808  0.8696
 6976SOL     OW38919   4.497   8.389   8.697  1.1104 -0.0271 -0.1507
 6976SOL    HW138920   4.521   8.299   8.716  1.5908  0.1304 -0.0001
 6976SOL    HW238921   4.556   8.442   8.751  0.0186  0.3545  0.7169
 6977SOL     OW38922  12.664   1.755   3.750  0.2835  0.3021  0.4764
 6977SOL    HW138923  12.656   1.675   3.698 -2.2921  1.4476 -1.0784
 6977SOL    HW238924  12.690   1.823   3.688  0.0463  1.1308  1.2489
 6978SOL     OW38925   9.880  10.024   5.528 -0.2747 -0.5233  0.3704
 6978SOL    HW138926   9.806  10.021   5.467 -1.9008 -2.0632  2.2586
 6978SOL    HW238927   9.942   9.960   5.494  0.2147  0.7401 -1.2076
 6979SOL     OW38928  10.317  10.301   4.151 -0.3576 -0.1979 -0.8511
 6979SOL    HW138929  10.371  10.222   4.142  0.4395  0.0750  1.0220
 6979SOL    HW238930  10.371  10.371   4.116  0.2740 -0.0361  0.3747
 6980SOL     OW38931   2.496  10.657   6.225  0.1828 -0.4869  0.0937
 6980SOL    HW138932   2.501  10.704   6.308  0.8763 -0.1911 -0.1111
 6980SOL    HW238933   2.491  10.564   6.250 -0.3739 -0.3614  0.4740
 6981SOL     OW38934   1.252   3.395   1.295  0.1946  0.2932  0.0182
 6981SOL    HW138935   1.211   3.370   1.212  0.9656 -1.0397  0.0073
 6981SOL    HW238936   1.180   3.428   1.348 -0.2850  1.3784 -1.2320
 6982SOL     OW38937   4.751   8.071   1.300  0.5467 -0.1293 -0.0870
 6982SOL    HW138938   4.743   8.037   1.390 -0.2879  0.3129  0.0157
 6982SOL    HW238939   4.757   7.992   1.246 -2.2502 -0.5437  0.0673
 6983SOL     OW38940   2.588   1.274  12.540 -0.3255  0.2849  0.4339
 6983SOL    HW138941   2.628   1.202  12.590  0.4795  1.3223  1.3455
 6983SOL    HW238942   2.632   1.353  12.573 -2.9237  1.4868  1.2989
 6984SOL     OW38943  13.624   8.341   3.696  0.7254 -0.0096  0.0828
 6984SOL    HW138944  13.566   8.283   3.646  2.1060 -0.9434 -0.4806
 6984SOL    HW238945  13.692   8.284   3.731  0.8682  0.9372  1.4462
 6985SOL     OW38946  13.244   5.975  10.700  1.0156 -0.4639  0.0191
 6985SOL    HW138947  13.153   5.949  10.716  0.7349  1.6050  2.2986
 6985SOL    HW238948  13.249   6.065  10.730  3.9562 -0.6420  0.3311
 6986SOL     OW38949   3.532  11.481  13.024  0.2872 -0.6265 -0.5684
 6986SOL    HW138950   3.617  11.455  13.060  0.2086 -0.0817  0.0215
 6986SOL    HW238951   3.476  11.491  13.101  0.3961  1.6158 -0.7365
 6987SOL     OW38952   3.868   9.707  11.042 -0.1915 -0.6632  0.1395
 6987SOL    HW138953   3.801   9.776  11.039 -0.1894 -0.5765  1.7381
 6987SOL    HW238954   3.820   9.628  11.065  0.2213 -0.6443  1.0738
 6988SOL     OW38955   3.980   6.278  12.134  0.0490  0.2297  0.3175
 6988SOL    HW138956   4.018   6.212  12.076 -1.2426 -0.3739  0.1253
 6988SOL    HW238957   3.934   6.228  12.201  1.3861  0.9238  1.8193
 6989SOL     OW38958   7.680  10.260   6.600 -0.2504 -0.5713 -0.3223
 6989SOL    HW138959   7.733  10.337   6.583 -0.0790 -0.7246 -0.4891
 6989SOL    HW238960   7.589  10.291   6.594 -0.1877 -0.0633  1.0794
 6990SOL     OW38961  10.256   2.356   9.210  0.2028  0.1213  0.7284
 6990SOL    HW138962  10.294   2.308   9.284 -0.1974 -0.6593  0.4332
 6990SOL    HW238963  10.163   2.330   9.210  0.4142 -0.7118 -0.6794
 6991SOL     OW38964   7.912  12.788   2.808  0.0685 -0.4387  0.4609
 6991SOL    HW138965   7.992  12.737   2.825  0.8491 -0.3077 -2.3043
 6991SOL    HW238966   7.844  12.722   2.794  0.3898 -0.6578 -0.1115
 6992SOL     OW38967  10.469   6.568   8.464  0.5073 -0.2477  0.3718
 6992SOL    HW138968  10.421   6.532   8.538  0.1987 -0.4666  0.0734
 6992SOL    HW238969  10.498   6.654   8.493  0.0708 -0.1790  0.6160
 6993SOL     OW38970   3.300   5.571  14.068 -0.1588  0.0396  0.2285
 6993SOL    HW138971   3.327   5.618  13.989  0.0612  0.3493  0.4848
 6993SOL    HW238972   3.205   5.563  14.061  0.0636 -2.3473 -1.4056
 6994SOL     OW38973   4.094  12.955  13.458 -0.1611  0.8512  0.1138
 6994SOL    HW138974   4.097  12.895  13.384  1.3458 -0.6774  1.3692
 6994SOL    HW238975   4.163  13.019  13.440  0.0601  0.6053  0.0821
 6995SOL     OW38976   9.365   4.347   5.410  0.2791 -0.6211 -0.3516
 6995SOL    HW138977   9.336   4.306   5.329 -0.5000 -0.6590 -0.0635
 6995SOL    HW238978   9.315   4.303   5.479  0.3805 -0.0785  0.0832
 6996SOL     OW38979  10.826   6.288   6.316 -0.2483 -0.2283  0.0467
 6996SOL    HW138980  10.851   6.307   6.225 -4.1544  2.4838 -0.7071
 6996SOL    HW238981  10.747   6.235   6.308  0.9290 -2.4313  2.0351
 6997SOL     OW38982   0.297   0.310   7.612  0.1912 -0.5083  0.0337
 6997SOL    HW138983   0.286   0.265   7.696  1.3131  0.2658  0.6289
 6997SOL    HW238984   0.384   0.349   7.617 -0.1055  0.3664 -1.1078
 6998SOL     OW38985   5.644   3.966   7.082 -0.2952  0.5297 -0.0151
 6998SOL    HW138986   5.698   4.044   7.077 -0.4286  0.6019 -0.3502
 6998SOL    HW238987   5.672   3.922   7.163 -0.5597  1.1724  0.4364
 6999SOL     OW38988   9.556  10.616   0.819 -0.1665  0.8304 -0.2976
 6999SOL    HW138989   9.554  10.598   0.725  0.1702 -1.0756  0.0149
 6999SOL    HW238990   9.469  10.590   0.850  0.3128 -0.3243  0.1629
 7000SOL     OW38991   8.970   4.593   4.738 -0.2135  0.1907  0.0509
 7000SOL    HW138992   9.048   4.562   4.784  0.2395  0.0957 -0.7522
 7000SOL    HW238993   8.911   4.622   4.807  0.1032 -0.7299  0.7386
 7001SOL     OW38994   3.872   0.043  11.588  0.2234  0.2684  0.0105
 7001SOL    HW138995   3.872  -0.017  11.514 -1.7599 -0.3847  0.4816
 7001SOL    HW238996   3.956   0.028  11.631  0.6782 -0.5804 -1.1339
 7002SOL     OW38997  13.396   8.241   6.897  0.1940  0.1420  0.1461
 7002SOL    HW138998  13.400   8.165   6.839 -2.3176 -0.5926  0.8065
 7002SOL    HW238999  13.410   8.316   6.839 -1.9005 -0.5852 -1.4224
 7003SOL     OW39000   7.926   4.069  12.684  0.8868 -0.4104  0.0787
 7003SOL    HW139001   7.951   4.027  12.602  1.8618  1.0203 -0.3932
 7003SOL    HW239002   7.830   4.066  12.684  0.8422  0.3663 -1.5551
 7004SOL     OW39003   6.762  12.918   1.015 -0.7974  0.0442 -0.0373
 7004SOL    HW139004   6.672  12.884   1.013 -0.3890 -1.0448 -1.1759
 7004SOL    HW239005   6.766  12.980   0.943 -0.4462 -0.4687 -0.4692
 7005SOL     OW39006   2.270   6.303  12.080 -0.2547 -0.0925 -0.0639
 7005SOL    HW139007   2.351   6.252  12.080  0.0719  0.3841  1.2960
 7005SOL    HW239008   2.200   6.239  12.071  0.1514 -0.8018  1.5212
 7006SOL     OW39009   8.751   5.216  10.306  0.5716 -0.6555 -0.8969
 7006SOL    HW139010   8.675   5.162  10.324 -0.0556  1.0188  2.4747
 7006SOL    HW239011   8.823   5.154  10.295 -0.8146 -2.2150 -1.4547
 7007SOL     OW39012   5.120   9.813   4.998  0.0182 -0.3049 -0.0457
 7007SOL    HW139013   5.120   9.717   5.003  1.5278 -0.3364 -0.1003
 7007SOL    HW239014   5.208   9.835   4.967  0.4469  1.1878  2.0402
 7008SOL     OW39015  12.220   0.220   1.121  0.1509 -0.4225 -0.3547
 7008SOL    HW139016  12.248   0.199   1.211  2.1478  1.3379 -0.4950
 7008SOL    HW239017  12.286   0.281   1.089 -3.1297  3.0250 -1.2524
 7009SOL     OW39018   9.010   0.913   6.327 -0.1810 -0.3039  0.0494
 7009SOL    HW139019   9.066   0.959   6.264  0.8456 -1.2250  0.2632
 7009SOL    HW239020   9.030   0.954   6.411 -1.1006  0.5110 -0.1119
 7010SOL     OW39021   9.420   6.776   7.229 -0.1725 -0.0507 -0.1975
 7010SOL    HW139022   9.386   6.777   7.319 -0.9951 -0.6889 -0.4890
 7010SOL    HW239023   9.413   6.684   7.202 -1.8220  0.4327 -1.5978
 7011SOL     OW39024  12.090   2.606   5.484 -0.2465  0.7410 -0.7109
 7011SOL    HW139025  12.103   2.633   5.393  1.1106  0.4822 -0.6107
 7011SOL    HW239026  12.168   2.638   5.530 -1.0725  1.1641  0.4402
 7012SOL     OW39027  12.846   6.023   5.163 -0.9131  0.0193  0.0891
 7012SOL    HW139028  12.764   6.073   5.166 -1.3223 -0.6058 -0.4246
 7012SOL    HW239029  12.818   5.932   5.171 -0.1829 -0.1416  0.8801
 7013SOL     OW39030   1.041   0.081  12.925 -0.8217  0.1112  0.3945
 7013SOL    HW139031   1.109   0.016  12.909 -0.3053  1.3000 -2.8995
 7013SOL    HW239032   1.078   0.138  12.993  1.5910  0.7295 -1.2954
 7014SOL     OW39033   2.654   7.821   8.782 -0.0736 -0.0624 -0.3126
 7014SOL    HW139034   2.636   7.863   8.866 -0.2450  2.0618 -1.3664
 7014SOL    HW239035   2.601   7.740   8.785 -1.7711  1.0149  0.7610
 7015SOL     OW39036  13.183   6.528  10.910 -0.2627 -0.1508  0.0044
 7015SOL    HW139037  13.233   6.499  10.834  2.8911 -1.7992  2.4711
 7015SOL    HW239038  13.204   6.621  10.919 -2.5190  0.6989 -2.2955
 7016SOL     OW39039   3.322  10.405   6.108 -0.1668  0.2800 -0.1390
 7016SOL    HW139040   3.294  10.474   6.049  1.1671  0.6165 -0.4044
 7016SOL    HW239041   3.249  10.394   6.169 -0.0459  2.5509  0.4742
 7017SOL     OW39042   4.884  11.355  13.420  0.4640 -0.6789  0.1491
 7017SOL    HW139043   4.977  11.334  13.415  0.9715  1.4456 -0.3368
 7017SOL    HW239044   4.841  11.284  13.373  2.0389 -0.6608 -1.4193
 7018SOL     OW39045   4.061   8.053   9.076  0.0003  0.3237  0.0046
 7018SOL    HW139046   4.141   8.088   9.114 -1.1455  1.0433  1.8836
 7018SOL    HW239047   4.082   7.961   9.056  0.8514  0.0688  1.9032
 7019SOL     OW39048   5.455  11.147  13.681  0.3643  0.4125  0.1734
 7019SOL    HW139049   5.390  11.216  13.688  0.1024  0.1533  0.3163
 7019SOL    HW239050   5.473  11.121  13.771  0.0685 -0.0643  0.1023
 7020SOL     OW39051   0.900   8.105  13.285 -0.4300 -0.1780 -0.3797
 7020SOL    HW139052   0.939   8.018  13.277 -0.5009 -0.4014  1.2858
 7020SOL    HW239053   0.848   8.116  13.205  1.5178 -0.6384 -1.7739
 7021SOL     OW39054   4.760   7.708  13.253 -0.0865  0.9624 -0.0603
 7021SOL    HW139055   4.795   7.709  13.164  1.8269  1.5293  0.6653
 7021SOL    HW239056   4.667   7.686  13.241  0.2619  0.3786 -2.1261
 7022SOL     OW39057   7.088   3.484   7.147  0.1904 -0.1565  0.3615
 7022SOL    HW139058   7.114   3.570   7.179  1.4909 -0.6411  0.6796
 7022SOL    HW239059   6.995   3.476   7.171 -0.1709  1.4395 -0.3646
 7023SOL     OW39060  12.395   0.435   2.272  0.3687  0.1643  0.1045
 7023SOL    HW139061  12.412   0.526   2.249  0.0340  0.0088 -0.7812
 7023SOL    HW239062  12.362   0.439   2.362  1.1192  0.8396  0.3643
 7024SOL     OW39063  12.822  13.123   7.796 -0.0027  0.6209  0.1335
 7024SOL    HW139064  12.819  13.045   7.851  1.4588 -0.5636 -1.3639
 7024SOL    HW239065  12.740  13.122   7.748 -0.8825  1.1620  1.5680
 7025SOL     OW39066   0.613   8.509   7.401  0.3581 -0.3707 -0.0715
 7025SOL    HW139067   0.601   8.547   7.488  2.3281 -0.3036  0.2234
 7025SOL    HW239068   0.528   8.470   7.380 -0.0967 -0.6391  2.0106
 7026SOL     OW39069   8.846   1.895  12.447  0.0084  0.0475 -0.5121
 7026SOL    HW139070   8.770   1.840  12.468 -0.1925  0.4812 -0.0695
 7026SOL    HW239071   8.922   1.837  12.460 -0.2023 -0.1437 -0.0956
 7027SOL     OW39072   8.391  14.033   4.974 -0.2200  0.3994  0.3321
 7027SOL    HW139073   8.409  13.940   4.959  3.6015  1.2536 -1.8848
 7027SOL    HW239074   8.310  14.050   4.926 -0.9761 -1.7234  0.7503
 7028SOL     OW39075  10.022   3.719   8.907  0.4234  0.0503  0.3552
 7028SOL    HW139076  10.002   3.793   8.850  1.0329 -0.1788 -0.1664
 7028SOL    HW239077  10.065   3.656   8.850 -0.4371 -0.8810  0.7043
 7029SOL     OW39078   8.883   7.299   0.762 -0.3689 -0.0994  0.1949
 7029SOL    HW139079   8.822   7.332   0.829 -1.0676 -0.9678  0.0027
 7029SOL    HW239080   8.946   7.245   0.811 -0.8912 -0.7494  0.1659
 7030SOL     OW39081  10.599   4.353   6.132  0.4060  0.3035 -0.3755
 7030SOL    HW139082  10.687   4.325   6.107  0.2358 -0.7869  0.1838
 7030SOL    HW239083  10.558   4.381   6.050  1.0210  0.0929 -0.7580
 7031SOL     OW39084   9.288   9.404   7.996  0.2830 -0.1667 -0.4351
 7031SOL    HW139085   9.378   9.412   7.965  0.3167 -1.5879 -0.7624
 7031SOL    HW239086   9.258   9.494   8.006  1.9862  0.3468  0.4356
 7032SOL     OW39087   3.417  10.183  10.461  0.1010 -0.3751 -0.0382
 7032SOL    HW139088   3.377  10.166  10.376  1.4842 -0.1467 -0.7545
 7032SOL    HW239089   3.355  10.146  10.524 -0.9036 -0.6244 -1.1341
 7033SOL     OW39090  10.176   2.153   0.882 -0.3489  0.0759  0.6354
 7033SOL    HW139091  10.174   2.242   0.917 -1.0312  0.5481 -0.5756
 7033SOL    HW239092  10.097   2.146   0.829  1.1640 -0.2427 -1.6969
 7034SOL     OW39093   8.526  11.786   0.339  0.3682 -0.0357 -0.0938
 7034SOL    HW139094   8.510  11.808   0.430 -0.3907 -0.1144 -0.1966
 7034SOL    HW239095   8.477  11.852   0.290  0.5685 -0.1411 -0.4395
 7035SOL     OW39096  13.586   6.242   1.670 -0.4263  0.2239 -0.2761
 7035SOL    HW139097  13.568   6.149   1.665 -1.3608  0.4307 -0.8801
 7035SOL    HW239098  13.500   6.284   1.676 -0.0483  1.0694 -0.4990
 7036SOL     OW39099  12.576  12.950  13.606  0.3270  0.0169  0.6577
 7036SOL    HW139100  12.522  12.983  13.534 -0.4838  1.5910  1.9248
 7036SOL    HW239101  12.587  13.025  13.664 -1.4049 -1.8062  3.5962
 7037SOL     OW39102   1.076   8.852   3.337 -0.2740 -0.6271  0.0070
 7037SOL    HW139103   1.057   8.933   3.386 -1.6455  0.5344 -2.2555
 7037SOL    HW239104   1.133   8.802   3.395 -0.5112  1.3336  2.0970
 7038SOL     OW39105  12.567   4.006   9.944  0.0442 -0.1718  0.3087
 7038SOL    HW139106  12.652   4.002   9.987 -0.0127 -2.9177  0.3357
 7038SOL    HW239107  12.580   3.962   9.861 -1.4634 -1.1784  0.5649
 7039SOL     OW39108   2.068   1.400   3.232  1.2750  0.2621  0.3761
 7039SOL    HW139109   1.996   1.381   3.172  2.3357 -0.0318 -0.8614
 7039SOL    HW239110   2.147   1.387   3.179  2.2632 -0.0646  1.8572
 7040SOL     OW39111   2.854   4.945  10.483  0.0564  0.3926 -0.0050
 7040SOL    HW139112   2.913   4.883  10.526  1.1631  1.2566 -0.2277
 7040SOL    HW239113   2.838   5.012  10.549 -1.5201 -0.3172  0.4002
 7041SOL     OW39114  11.313   8.752   3.657  0.5570 -0.1630  0.5145
 7041SOL    HW139115  11.258   8.773   3.733  0.0369 -0.3440  0.1988
 7041SOL    HW239116  11.299   8.659   3.643  1.6825 -0.4190  0.9960
 7042SOL     OW39117   9.505  10.682  12.150 -0.2826  0.1518 -0.2149
 7042SOL    HW139118   9.483  10.720  12.065 -0.6316  0.9875  0.2443
 7042SOL    HW239119   9.476  10.747  12.214 -0.5448 -0.7277  0.5697
 7043SOL     OW39120   4.487  11.218   8.447 -0.1293  0.1782 -0.5373
 7043SOL    HW139121   4.448  11.133   8.429  0.7479 -0.0612 -1.4386
 7043SOL    HW239122   4.508  11.216   8.540 -0.8539 -0.2753 -0.3782
 7044SOL     OW39123   8.439   0.580   8.242  0.4137  0.4377 -0.5206
 7044SOL    HW139124   8.441   0.670   8.275 -0.1292 -0.2575  1.5350
 7044SOL    HW239125   8.530   0.550   8.249  0.1728  0.0251  1.2518
 7045SOL     OW39126   6.867   7.802   5.002  0.4684 -0.7174 -0.3614
 7045SOL    HW139127   6.823   7.886   5.011 -0.5828 -1.4550  3.1687
 7045SOL    HW239128   6.935   7.804   5.070 -0.2985 -3.0441  0.5925
 7046SOL     OW39129  12.988   9.749   8.002 -0.0865  0.0944 -0.0239
 7046SOL    HW139130  12.981   9.775   7.910  1.8574  2.8090  0.4538
 7046SOL    HW239131  13.054   9.680   8.002 -0.6518 -0.4662 -0.7122
 7047SOL     OW39132   2.731   9.484   6.088  0.1412  0.4743  0.2728
 7047SOL    HW139133   2.664   9.449   6.029 -2.2130  1.5664  2.1558
 7047SOL    HW239134   2.708   9.576   6.101  1.6995  0.7636  1.4240
 7048SOL     OW39135  13.867   3.166   8.736 -0.5168 -0.1624 -0.5277
 7048SOL    HW139136  13.814   3.143   8.660  0.0174 -1.2849 -0.5714
 7048SOL    HW239137  13.930   3.094   8.745  0.4490  0.7249  0.0318
 7049SOL     OW39138  12.489   1.121   5.353  0.3901  0.1610 -0.0378
 7049SOL    HW139139  12.417   1.180   5.373  1.5101  1.1927  1.1814
 7049SOL    HW239140  12.533   1.108   5.437  1.1520 -1.0929 -0.6003
 7050SOL     OW39141   3.609  13.983   7.153  0.3198 -0.0764  0.0098
 7050SOL    HW139142   3.557  13.917   7.107  2.7704  0.3608 -3.8687
 7050SOL    HW239143   3.562  14.065   7.138 -0.1775 -0.2600  0.5256
 7051SOL     OW39144   8.337   1.827   7.734  0.4593 -0.2574  0.3058
 7051SOL    HW139145   8.327   1.759   7.668  0.1938  1.5088 -1.5805
 7051SOL    HW239146   8.347   1.908   7.684  0.7343  1.1190  2.4421
 7052SOL     OW39147  12.035   9.312   8.109  0.8855 -0.2057 -0.2958
 7052SOL    HW139148  12.111   9.368   8.122  2.2285 -1.7984 -0.9518
 7052SOL    HW239149  11.972   9.367   8.062  0.3618  2.1022  2.8049
 7053SOL     OW39150   2.356   2.124  10.942 -0.3906  0.1399  0.0378
 7053SOL    HW139151   2.361   2.064  10.868 -0.1373 -0.4374  0.5221
 7053SOL    HW239152   2.434   2.179  10.933 -0.0062 -0.3707  0.2596
 7054SOL     OW39153  12.091  12.738   0.655  0.6545 -0.5771  0.0863
 7054SOL    HW139154  12.048  12.720   0.739  0.3586  0.3974  0.1571
 7054SOL    HW239155  12.169  12.788   0.678  0.6574 -0.4420 -0.2155
 7055SOL     OW39156   3.449   7.159   6.641  0.2605  0.3075  0.1927
 7055SOL    HW139157   3.475   7.224   6.576 -1.8174  0.9464 -0.0728
 7055SOL    HW239158   3.369   7.195   6.681 -1.4621 -2.3895 -0.5233
 7056SOL     OW39159   1.341   1.832   9.980 -0.0340 -0.8503  0.2962
 7056SOL    HW139160   1.362   1.829   9.887 -0.7284 -0.0550  0.0985
 7056SOL    HW239161   1.413   1.880  10.020 -1.8312  2.9710 -0.5532
 7057SOL     OW39162  12.607   8.902   2.956 -0.3424  0.4894 -0.3102
 7057SOL    HW139163  12.533   8.962   2.948 -0.4901  0.7010  1.9875
 7057SOL    HW239164  12.597   8.862   3.043  2.6808  1.1545  0.4615
 7058SOL     OW39165  11.461   6.717   8.683 -0.3523 -0.2307  0.1815
 7058SOL    HW139166  11.527   6.687   8.746 -0.2955 -0.7169 -0.1012
 7058SOL    HW239167  11.402   6.772   8.735  1.3998  1.8929  0.0372
 7059SOL     OW39168   9.169   0.629   3.002 -0.2098  0.0807  0.0554
 7059SOL    HW139169   9.117   0.592   2.930  1.4037 -0.9527 -0.6487
 7059SOL    HW239170   9.116   0.615   3.080 -1.2768 -0.2934 -0.7140
 7060SOL     OW39171   5.587   9.147   5.894  0.1182  0.1376 -0.1841
 7060SOL    HW139172   5.501   9.156   5.852 -1.1265 -0.6285  2.0006
 7060SOL    HW239173   5.600   9.230   5.939  1.3723  0.8980 -1.8431
 7061SOL     OW39174  11.141  10.331   2.215 -0.2858 -0.1318  0.2806
 7061SOL    HW139175  11.196  10.272   2.163 -0.2816 -0.4991  0.6923
 7061SOL    HW239176  11.088  10.378   2.150  0.2718 -0.0151 -0.0974
 7062SOL     OW39177   2.082   0.241   7.566  0.0118 -0.0901  0.9364
 7062SOL    HW139178   2.056   0.159   7.525  0.9534  0.1498 -0.2230
 7062SOL    HW239179   2.135   0.285   7.499  2.1088  0.0838  2.6280
 7063SOL     OW39180   5.129   8.085   4.172 -0.2128  0.3273 -0.3699
 7063SOL    HW139181   5.212   8.115   4.135  0.2831  0.4553  0.7975
 7063SOL    HW239182   5.110   8.147   4.242 -0.4914 -0.6125  0.3985
 7064SOL     OW39183   7.495  13.044   3.715 -0.5946 -0.5538 -0.4776
 7064SOL    HW139184   7.547  12.964   3.724  0.3813  0.2085  1.2434
 7064SOL    HW239185   7.415  13.026   3.764  0.5724  0.1948  1.9142
 7065SOL     OW39186   9.267   5.972   6.367  0.2335  0.0384  0.4274
 7065SOL    HW139187   9.256   5.933   6.281 -2.4824  0.9653  0.2807
 7065SOL    HW239188   9.276   6.065   6.350 -0.5449  0.2524  1.1530
 7066SOL     OW39189   3.031   7.759   2.483  0.1644 -0.5558 -0.0369
 7066SOL    HW139190   3.027   7.846   2.442  0.9990 -0.0709  0.8531
 7066SOL    HW239191   3.063   7.701   2.413 -0.9402 -0.2723 -0.8029
 7067SOL     OW39192  13.133   4.419   7.456  0.3335  0.3730  0.2308
 7067SOL    HW139193  13.090   4.464   7.529 -0.4798 -0.4650  0.2817
 7067SOL    HW239194  13.196   4.483   7.423 -2.1677  2.4120 -1.0213
 7068SOL     OW39195  12.064   4.293   5.150  0.9772 -0.4742 -0.2956
 7068SOL    HW139196  12.064   4.302   5.245 -1.0581  0.6760 -0.3640
 7068SOL    HW239197  12.100   4.376   5.118 -1.3644  0.5136 -0.5466
 7069SOL     OW39198  11.973   4.514   5.713  0.5291  0.3436  0.0768
 7069SOL    HW139199  11.932   4.557   5.638 -0.6322  1.1238  1.1262
 7069SOL    HW239200  12.022   4.584   5.757  1.8710 -0.2731 -0.3559
 7070SOL     OW39201   8.030  12.391   0.876 -0.3686  0.3601 -0.3075
 7070SOL    HW139202   7.940  12.359   0.866  0.1089 -0.9945 -0.4641
 7070SOL    HW239203   8.080  12.344   0.809  0.7233 -0.0056  0.7286
 7071SOL     OW39204   4.216   4.606   6.249  0.3192  0.2301  0.8856
 7071SOL    HW139205   4.231   4.700   6.242 -1.4311  0.4703 -0.3583
 7071SOL    HW239206   4.122   4.598   6.266  0.4838 -1.2914  1.2237
 7072SOL     OW39207   4.203   2.129   5.151  0.1344 -0.0057  0.7885
 7072SOL    HW139208   4.226   2.189   5.080  1.5458 -0.7778  0.5607
 7072SOL    HW239209   4.197   2.044   5.108 -0.1206 -0.3069  1.4186
 7073SOL     OW39210   5.829  12.756   5.234  0.0742 -0.0064  0.5647
 7073SOL    HW139211   5.920  12.769   5.210 -0.3880 -0.5824 -1.7950
 7073SOL    HW239212   5.782  12.827   5.191 -0.6973 -0.3777  0.7714
 7074SOL     OW39213   2.755   1.130  13.267  0.3334  0.0676 -0.1739
 7074SOL    HW139214   2.666   1.136  13.231  0.0916 -2.0219 -0.0409
 7074SOL    HW239215   2.766   1.038  13.289  2.5897  0.2509 -0.2728
 7075SOL     OW39216   8.661   3.889   4.779  0.0894 -0.4711 -0.7358
 7075SOL    HW139217   8.575   3.925   4.802  0.4241 -0.3401  0.4217
 7075SOL    HW239218   8.715   3.967   4.762  0.1059 -0.5355 -0.9822
 7076SOL     OW39219   8.331   4.460  11.644 -0.1033  0.1272  0.2112
 7076SOL    HW139220   8.338   4.403  11.568 -0.2084 -0.6952  0.8014
 7076SOL    HW239221   8.399   4.429  11.704 -0.6302  0.1451  0.8351
 7077SOL     OW39222   1.424   0.497  10.645 -0.1333  0.2766 -0.2717
 7077SOL    HW139223   1.412   0.544  10.728  0.5758  0.9321 -0.5384
 7077SOL    HW239224   1.352   0.529  10.589 -0.3640  0.1455 -0.0528
 7078SOL     OW39225  13.815   8.932   7.823 -0.0969  0.2726 -0.3900
 7078SOL    HW139226  13.835   8.981   7.902 -1.9534 -0.0435  0.3155
 7078SOL    HW239227  13.871   8.854   7.829  0.1642  0.5069  0.3415
 7079SOL     OW39228   1.633   0.092  13.120  0.0231  0.1434 -0.4595
 7079SOL    HW139229   1.625   0.177  13.077  0.2269  0.1420 -0.5023
 7079SOL    HW239230   1.727   0.083  13.138 -0.0511  0.1153 -0.0723
 7080SOL     OW39231   9.075   5.936   3.188  0.2388 -0.4188  0.5036
 7080SOL    HW139232   9.104   5.845   3.200  0.3937 -0.6298 -1.1320
 7080SOL    HW239233   9.010   5.931   3.118  0.2875  0.7426  0.3566
 7081SOL     OW39234   8.403  10.073  11.992  0.7420  0.2387 -0.4017
 7081SOL    HW139235   8.427   9.986  12.024 -0.9753 -0.0997  0.0926
 7081SOL    HW239236   8.414  10.130  12.068  2.0623  0.5080 -0.7811
 7082SOL     OW39237   2.840   0.185   1.493  0.5907  0.5313  0.3191
 7082SOL    HW139238   2.908   0.119   1.504 -0.3940 -0.8710 -1.5179
 7082SOL    HW239239   2.766   0.138   1.456 -0.9006  2.2857  0.9193
 7083SOL     OW39240   2.100   1.144   6.960 -0.5118 -0.5120 -0.2370
 7083SOL    HW139241   2.117   1.098   7.042 -3.3077  0.0862  0.7822
 7083SOL    HW239242   2.083   1.075   6.896  2.1908 -1.0049 -0.5604
 7084SOL     OW39243   8.959   3.907   4.241 -0.0035 -0.6639 -0.2276
 7084SOL    HW139244   8.940   3.895   4.335 -0.8111  0.3743 -0.2431
 7084SOL    HW239245   9.055   3.910   4.237  0.0420 -0.6423  0.5735
 7085SOL     OW39246  11.155   3.664  10.834  0.1796  0.1196 -0.3917
 7085SOL    HW139247  11.216   3.628  10.770 -0.7440 -1.0504 -0.6436
 7085SOL    HW239248  11.141   3.593  10.897  0.0096  0.7872  0.3473
 7086SOL     OW39249   5.467   0.706   6.898 -0.5537  0.2236  0.0925
 7086SOL    HW139250   5.432   0.630   6.945  2.0912 -1.6539 -0.7873
 7086SOL    HW239251   5.416   0.710   6.817 -1.8021  0.4474  0.8602
 7087SOL     OW39252   8.625   1.169   5.150  0.0952  0.6113  0.1813
 7087SOL    HW139253   8.601   1.087   5.192 -0.0214 -0.9614 -2.6814
 7087SOL    HW239254   8.721   1.173   5.158  0.3040 -0.7851 -1.1713
 7088SOL     OW39255   7.034   1.910  11.774 -0.7666 -0.4313  0.2354
 7088SOL    HW139256   7.018   1.836  11.716 -1.0778  0.1411 -0.4229
 7088SOL    HW239257   7.029   1.872  11.862  3.1221 -2.0284 -0.0225
 7089SOL     OW39258   7.870   7.620  11.481 -0.0350  0.0949 -0.8712
 7089SOL    HW139259   7.796   7.642  11.424 -1.4211 -0.2145  0.7604
 7089SOL    HW239260   7.867   7.685  11.551  0.2814 -0.8742  0.0560
 7090SOL     OW39261  12.344   4.831   8.957 -0.0643  0.2650 -0.2802
 7090SOL    HW139262  12.381   4.823   9.044  1.7735 -0.4016 -1.0833
 7090SOL    HW239263  12.377   4.755   8.909  0.5987  1.6434 -2.1247
 7091SOL     OW39264  12.179  12.170   6.373  0.1525 -0.2116 -0.9206
 7091SOL    HW139265  12.274  12.163   6.358  0.1280 -1.1615 -0.6910
 7091SOL    HW239266  12.160  12.263   6.359  0.8655 -0.2534 -2.3989
 7092SOL     OW39267   0.687   9.894   0.870  0.7540  0.2010  0.4154
 7092SOL    HW139268   0.628   9.855   0.806  0.5865 -0.7246  1.1157
 7092SOL    HW239269   0.750   9.943   0.818  0.2399 -0.0095 -0.4210
 7093SOL     OW39270   9.649   6.586   4.769 -0.1132  0.5303  0.3904
 7093SOL    HW139271   9.659   6.579   4.864  1.4792  0.2885  0.2406
 7093SOL    HW239272   9.732   6.625   4.740 -0.2237 -0.2028 -0.9680
 7094SOL     OW39273   1.550  12.721   7.744  0.0252 -0.2244 -0.0438
 7094SOL    HW139274   1.584  12.744   7.657  1.5290 -1.7598  0.0776
 7094SOL    HW239275   1.627  12.693   7.793 -0.9552 -0.4011  1.4487
 7095SOL     OW39276   0.106   2.067   9.700 -0.3778  0.8644  0.8794
 7095SOL    HW139277   0.041   2.013   9.655 -0.1304  1.4378 -0.1848
 7095SOL    HW239278   0.185   2.059   9.646 -0.5713  2.9591  0.2188
 7096SOL     OW39279   0.432   9.250   6.459  0.3098  0.1205  0.1132
 7096SOL    HW139280   0.358   9.310   6.472  0.9630  1.5532 -2.2528
 7096SOL    HW239281   0.507   9.296   6.495  0.6247  0.2189 -0.6616
 7097SOL     OW39282   9.327   7.593  12.498  0.2703  0.1451  0.0169
 7097SOL    HW139283   9.337   7.608  12.592 -3.0339 -2.0658  0.8721
 7097SOL    HW239284   9.373   7.511  12.482  0.4734  0.3049 -0.2295
 7098SOL     OW39285   3.714  10.740   2.696 -0.1607 -0.6616  0.0334
 7098SOL    HW139286   3.705  10.834   2.715  1.5760  0.1978 -2.7279
 7098SOL    HW239287   3.624  10.707   2.696 -0.7796  0.8291  1.5783
 7099SOL     OW39288  12.613   9.433  13.395 -0.2310 -0.6195 -0.3844
 7099SOL    HW139289  12.616   9.349  13.350  0.0688 -0.4680 -0.6507
 7099SOL    HW239290  12.533   9.429  13.448  0.2024 -1.3930  0.2410
 7100SOL     OW39291  10.610   6.114   9.388 -0.2814 -0.1670 -0.6149
 7100SOL    HW139292  10.631   6.047   9.324  0.0852  0.5391 -1.2486
 7100SOL    HW239293  10.556   6.177   9.341  1.3063  1.1910 -0.7411
 7101SOL     OW39294   6.979   7.606  10.916 -0.2684 -0.1797  0.1388
 7101SOL    HW139295   7.066   7.642  10.934  0.1758 -0.5721 -1.1534
 7101SOL    HW239296   6.974   7.600  10.821 -2.6996  2.2523 -0.0193
 7102SOL     OW39297   3.310   4.224   3.108  0.2455 -0.9454 -0.4514
 7102SOL    HW139298   3.250   4.188   3.173  0.4147  0.4200  0.5039
 7102SOL    HW239299   3.274   4.196   3.024 -1.5991 -0.4032  0.0981
 7103SOL     OW39300  13.839   9.620  13.288 -1.1343 -0.1711  0.3541
 7103SOL    HW139301  13.930   9.611  13.315 -1.1926 -1.2129  0.2363
 7103SOL    HW239302  13.801   9.532  13.299 -1.8324 -0.0170 -0.6268
 7104SOL     OW39303   0.044  10.146   6.594 -0.5285 -0.0160 -0.2036
 7104SOL    HW139304   0.114  10.179   6.537  0.1506  0.0880  0.6614
 7104SOL    HW239305   0.072  10.057   6.616 -1.1096 -0.2867 -0.5347
 7105SOL     OW39306   2.571  12.679   6.214  0.0675  0.4074  0.0247
 7105SOL    HW139307   2.618  12.701   6.294 -1.1547  0.0799  0.8584
 7105SOL    HW239308   2.503  12.747   6.206 -0.9785 -0.5724  0.2790
 7106SOL     OW39309   7.191   0.097   4.761  0.2481  0.1408  0.0430
 7106SOL    HW139310   7.255   0.037   4.724 -1.1822 -0.7941 -0.9742
 7106SOL    HW239311   7.244   0.165   4.803  1.8982 -1.1517  0.1590
 7107SOL     OW39312   4.468   5.603   1.560  0.4861  0.4628  0.6631
 7107SOL    HW139313   4.546   5.583   1.613 -0.0332  1.8782  2.0598
 7107SOL    HW239314   4.499   5.667   1.496  1.7508 -3.1037 -2.7111
 7108SOL     OW39315  13.949   4.687   6.827 -0.5266 -0.2606  0.1595
 7108SOL    HW139316  14.001   4.673   6.906 -0.4997 -0.8529  0.0404
 7108SOL    HW239317  13.933   4.599   6.793 -0.9213 -0.0341 -0.2474
 7109SOL     OW39318   8.764   4.373   6.456  0.9718 -0.3404 -0.2726
 7109SOL    HW139319   8.708   4.450   6.453  1.3498 -0.0803 -0.6244
 7109SOL    HW239320   8.711   4.307   6.502  0.7729  0.2249  0.3154
 7110SOL     OW39321   1.815  11.698  13.094  0.5076 -0.5046  0.5377
 7110SOL    HW139322   1.803  11.652  13.011  0.4632  1.9013 -0.8886
 7110SOL    HW239323   1.890  11.756  13.079 -1.1387  1.9351  1.1980
 7111SOL     OW39324   6.776   2.990  13.123  0.4836 -0.0002  0.2802
 7111SOL    HW139325   6.793   2.943  13.041  0.0199 -0.2050  0.2991
 7111SOL    HW239326   6.684   3.016  13.117  0.3324 -0.3668  0.9142
 7112SOL     OW39327   4.741  14.059  11.005 -0.0824 -0.1950 -0.4563
 7112SOL    HW139328   4.820  14.090  11.048 -0.3359 -0.3072  0.0957
 7112SOL    HW239329   4.764  13.972  10.972  0.3499  0.1996 -1.2317
 7113SOL     OW39330   8.183   8.202   1.273 -0.5552  0.2702 -0.2451
 7113SOL    HW139331   8.269   8.211   1.233 -0.0095  1.6902  1.1547
 7113SOL    HW239332   8.185   8.117   1.316 -0.1687 -0.0646 -0.9013
 7114SOL     OW39333   9.368  13.309   9.467 -0.1206  0.2354  0.1791
 7114SOL    HW139334   9.379  13.236   9.405 -0.4456 -0.0940  0.5004
 7114SOL    HW239335   9.388  13.387   9.416 -0.7266 -0.0014 -0.4380
 7115SOL     OW39336  12.705   4.913   8.262  0.5431 -0.4754  0.5383
 7115SOL    HW139337  12.701   4.981   8.329  0.6016  0.8986 -0.7888
 7115SOL    HW239338  12.792   4.875   8.271  1.3210  1.0664  0.0050
 7116SOL     OW39339   0.379   7.799   3.082  0.3991 -0.2401 -0.0007
 7116SOL    HW139340   0.355   7.876   3.030 -0.2422 -0.2093  0.3354
 7116SOL    HW239341   0.404   7.834   3.167  1.5182 -0.2858 -0.2958
 7117SOL     OW39342   6.876   3.607   3.067 -0.0767  0.0844  0.2419
 7117SOL    HW139343   6.912   3.647   2.989 -1.7483 -1.3210 -1.3600
 7117SOL    HW239344   6.833   3.679   3.114  1.1283  0.9755  0.0127
 7118SOL     OW39345  11.583   4.740   2.362  0.0732 -0.1643  0.4440
 7118SOL    HW139346  11.660   4.683   2.351  1.5387  1.5546  1.3178
 7118SOL    HW239347  11.616   4.815   2.411 -2.0720  0.8959  0.3505
 7119SOL     OW39348  11.533   2.586  11.629 -0.0683  0.1496 -0.0597
 7119SOL    HW139349  11.552   2.551  11.716 -1.5807 -1.7412 -0.4124
 7119SOL    HW239350  11.577   2.525  11.569  1.2559  1.6267 -0.6724
 7120SOL     OW39351   8.526   3.929   3.558 -0.0395  0.4813  0.5284
 7120SOL    HW139352   8.557   3.998   3.617  1.4084  1.0204 -0.7824
 7120SOL    HW239353   8.606   3.886   3.527 -0.7001  0.4327 -1.2603
 7121SOL     OW39354   1.363   5.715   0.789  0.4412  0.0065  0.6306
 7121SOL    HW139355   1.314   5.634   0.772  0.1102  0.0306  1.4349
 7121SOL    HW239356   1.360   5.725   0.884 -0.2065  1.3869  0.4837
 7122SOL     OW39357   1.080   0.511   4.515 -0.3784  0.1891 -0.4043
 7122SOL    HW139358   1.047   0.424   4.493  2.6172 -0.9525 -0.7749
 7122SOL    HW239359   1.118   0.501   4.602  0.2411  1.0751 -0.5651
 7123SOL     OW39360   1.861   2.101   2.648 -0.4025  0.6362 -0.0433
 7123SOL    HW139361   1.822   2.014   2.650 -2.8588  1.6345 -0.8209
 7123SOL    HW239362   1.862   2.126   2.556 -0.3930  1.7078  0.2277
 7124SOL     OW39363  13.302   0.235  10.474  0.3620 -0.2969 -0.5677
 7124SOL    HW139364  13.296   0.284  10.557 -0.5572  0.2198 -0.9293
 7124SOL    HW239365  13.340   0.298  10.413  4.2467 -1.6548  0.1916
 7125SOL     OW39366  13.404   6.884   0.916 -0.3896  0.0476 -0.7206
 7125SOL    HW139367  13.474   6.926   0.866  1.5202 -1.5027  0.5116
 7125SOL    HW239368  13.439   6.798   0.939 -2.1616 -0.2495  1.1513
 7126SOL     OW39369   6.604   6.881  11.284  0.0590 -0.6252 -0.0240
 7126SOL    HW139370   6.597   6.791  11.252 -0.7717 -1.0808  1.3396
 7126SOL    HW239371   6.514   6.915  11.278  0.2915 -0.0282 -0.1523
 7127SOL     OW39372   5.852  11.482   9.924  0.0150  0.7144  0.2230
 7127SOL    HW139373   5.886  11.418   9.987 -1.7087 -0.5448 -0.0505
 7127SOL    HW239374   5.763  11.501   9.955  0.4985  3.0634  0.3158
 7128SOL     OW39375  10.360   1.996   1.656  0.1352  0.3205  0.3692
 7128SOL    HW139376  10.388   1.970   1.744  1.7358 -0.3827 -0.3182
 7128SOL    HW239377  10.280   2.047   1.671  1.5493  2.1320  2.4282
 7129SOL     OW39378   5.310   0.385   9.021  1.0620 -0.3761  0.1557
 7129SOL    HW139379   5.225   0.343   9.007  2.1319 -2.7160  0.1680
 7129SOL    HW239380   5.338   0.411   8.933  0.9800 -0.9737 -0.0560
 7130SOL     OW39381   6.641  10.572   2.756  0.2717  0.2705  0.1655
 7130SOL    HW139382   6.631  10.599   2.665 -0.1360  0.1110  0.1566
 7130SOL    HW239383   6.562  10.520   2.773  1.8426 -2.5126 -0.4002
 7131SOL     OW39384  13.429  11.719   0.550  0.3284  0.2506 -0.1678
 7131SOL    HW139385  13.415  11.813   0.541  1.3035  0.7798  2.5966
 7131SOL    HW239386  13.522  11.706   0.529 -0.0055 -0.2601 -1.3730
 7132SOL     OW39387   0.401   5.660   1.191  0.4621 -0.0673  0.1385
 7132SOL    HW139388   0.358   5.638   1.108  3.5836  0.5119 -1.8300
 7132SOL    HW239389   0.424   5.575   1.229  1.6247 -0.4115 -1.2045
 7133SOL     OW39390   1.328   8.124   0.132  0.0437  0.6499  0.2799
 7133SOL    HW139391   1.385   8.126   0.209  0.4018  1.6313  0.0035
 7133SOL    HW239392   1.315   8.216   0.109  4.0241  0.5703 -3.7881
 7134SOL     OW39393   8.565  11.958   8.259 -0.2760  0.1925  0.0640
 7134SOL    HW139394   8.572  11.903   8.337 -1.9560 -0.1532  0.0075
 7134SOL    HW239395   8.512  12.033   8.287  0.7691  1.0745 -0.2431
 7135SOL     OW39396   5.319   3.359   3.482  0.0982 -0.6059 -0.4341
 7135SOL    HW139397   5.332   3.400   3.397  0.3689 -0.1595 -0.1816
 7135SOL    HW239398   5.224   3.360   3.495  0.1930  2.0478  0.5638
 7136SOL     OW39399  13.356  10.832   0.265  0.0376  0.0839 -0.6724
 7136SOL    HW139400  13.355  10.773   0.189 -0.2393  1.6681 -1.9589
 7136SOL    HW239401  13.437  10.881   0.255 -1.9384  3.3346 -2.4818
 7137SOL     OW39402   5.347  11.821   2.659  0.0966  0.0810 -0.0904
 7137SOL    HW139403   5.335  11.790   2.749 -0.8048 -2.0333 -0.8969
 7137SOL    HW239404   5.298  11.760   2.605  0.1211  1.6599 -2.0072
 7138SOL     OW39405   0.042   2.345   0.313 -0.2982 -0.1384 -0.6971
 7138SOL    HW139406   0.011   2.390   0.392  0.4727  1.0997 -1.0667
 7138SOL    HW239407  -0.010   2.265   0.309  0.3104 -0.7090  1.5816
 7139SOL     OW39408   5.538   3.386  10.375 -0.0491  0.2408 -0.3378
 7139SOL    HW139409   5.628   3.375  10.342 -0.3886 -0.6600 -1.0116
 7139SOL    HW239410   5.543   3.357  10.466  0.7629  2.1557  0.2880
 7140SOL     OW39411   9.307   0.033   4.243  0.0506  0.0098  0.4102
 7140SOL    HW139412   9.259   0.102   4.288 -0.5111 -0.3381  0.3588
 7140SOL    HW239413   9.279  -0.048   4.287 -0.1312 -0.2860 -0.2382
 7141SOL     OW39414   2.590   1.542  11.682 -0.5084  0.2026 -0.1968
 7141SOL    HW139415   2.506   1.553  11.638 -0.4355  1.2861 -0.0747
 7141SOL    HW239416   2.580   1.461  11.733 -1.4230  0.2504 -0.2855
 7142SOL     OW39417   0.902  10.331  13.631 -0.0485  0.6469 -0.3328
 7142SOL    HW139418   0.845  10.372  13.695 -1.4024  1.3218 -1.8789
 7142SOL    HW239419   0.910  10.397  13.561 -2.9747 -1.7982 -3.3326
 7143SOL     OW39420   3.416  10.079   7.945  0.1321 -0.3818 -0.1045
 7143SOL    HW139421   3.502  10.040   7.957  0.8212  0.8669 -0.7347
 7143SOL    HW239422   3.426  10.137   7.869 -0.7976  1.0639  0.8187
 7144SOL     OW39423  13.658   8.876  12.020  0.4305  0.3112  0.3318
 7144SOL    HW139424  13.585   8.844  12.072  0.6375 -0.0982  0.3781
 7144SOL    HW239425  13.731   8.883  12.083  1.3098 -2.3193 -0.2842
 7145SOL     OW39426   7.554  12.480   3.019 -0.1843 -0.2671 -0.0164
 7145SOL    HW139427   7.512  12.462   2.935 -2.8036  1.0273  0.8771
 7145SOL    HW239428   7.632  12.530   2.997 -1.3552  0.9492 -1.6611
 7146SOL     OW39429   6.800   1.812   0.469 -0.2203 -0.1628 -0.1045
 7146SOL    HW139430   6.724   1.870   0.474  1.4251  2.2448 -1.2330
 7146SOL    HW239431   6.793   1.772   0.382  0.0469  0.3936 -0.3801
 7147SOL     OW39432  11.704   2.603   8.142 -0.6998  0.1720  0.2243
 7147SOL    HW139433  11.610   2.589   8.133 -0.8323 -0.3218  2.1114
 7147SOL    HW239434  11.741   2.515   8.150  0.1311  0.2660 -1.7704
 7148SOL     OW39435  10.389   0.879   6.519  0.2884  0.1957  0.0096
 7148SOL    HW139436  10.483   0.866   6.527  1.2478  2.2661 -4.4070
 7148SOL    HW239437  10.360   0.808   6.461 -0.9619 -0.4711  1.3944
 7149SOL     OW39438   8.661   8.857   8.763  0.2336  0.6010 -0.5515
 7149SOL    HW139439   8.599   8.894   8.826 -0.4832  0.6382 -1.2616
 7149SOL    HW239440   8.644   8.905   8.682 -1.0591 -1.5105 -1.6514
 7150SOL     OW39441   5.777   8.896  13.632  0.6152  0.2383 -0.1131
 7150SOL    HW139442   5.709   8.930  13.574  1.6558  0.3389 -1.3022
 7150SOL    HW239443   5.824   8.832  13.579  1.9452  0.7379  0.4217
 7151SOL     OW39444   5.208  10.679   5.445 -0.0268 -0.0333  0.0357
 7151SOL    HW139445   5.272  10.708   5.380 -0.3806 -1.8148 -1.1563
 7151SOL    HW239446   5.220  10.584   5.450 -2.9095 -0.5021 -0.6154
 7152SOL     OW39447  11.959   1.104  13.361 -0.0487  0.7404  0.1998
 7152SOL    HW139448  12.022   1.045  13.321 -1.0286  0.4799 -1.0262
 7152SOL    HW239449  11.943   1.067  13.448  1.4678  0.8273  0.5473
 7153SOL     OW39450   6.920   4.903  13.472 -0.4035 -0.0438  0.3364
 7153SOL    HW139451   6.826   4.896  13.455 -0.7400  1.9002  1.2078
 7153SOL    HW239452   6.944   4.817  13.507 -1.2341 -1.5492 -2.4183
 7154SOL     OW39453  13.243   7.969  11.206  0.6344 -0.1163 -0.1792
 7154SOL    HW139454  13.254   8.037  11.140  2.4780  0.1909  0.4100
 7154SOL    HW239455  13.209   7.894  11.157  0.4334  0.5967 -1.1702
 7155SOL     OW39456   3.018  12.643   9.548 -0.1808 -0.1998 -0.1023
 7155SOL    HW139457   3.063  12.727   9.542 -1.7078  0.5879 -1.4463
 7155SOL    HW239458   3.083  12.579   9.520  0.7291  0.6255  0.0406
 7156SOL     OW39459   7.775   2.167   8.286  0.2897 -0.1368 -0.1188
 7156SOL    HW139460   7.724   2.097   8.327 -0.1058 -1.0989 -2.0922
 7156SOL    HW239461   7.793   2.134   8.197 -0.2115  2.3969 -1.2505
 7157SOL     OW39462   0.036   3.596   1.482 -0.3548  0.7903 -0.6040
 7157SOL    HW139463   0.051   3.505   1.507  1.1137  1.4663  1.1497
 7157SOL    HW239464  -0.053   3.596   1.445  1.0154 -2.0841 -4.6700
 7158SOL     OW39465   2.605   4.781  12.722  0.5255  0.2747 -0.5103
 7158SOL    HW139466   2.621   4.795  12.629  0.4215 -1.0595 -0.7588
 7158SOL    HW239467   2.638   4.859  12.765 -0.2269  1.3036 -1.7441
 7159SOL     OW39468   6.805   4.568   5.831  0.3938  0.2344  0.1980
 7159SOL    HW139469   6.874   4.629   5.804  1.8417 -1.0820  0.7891
 7159SOL    HW239470   6.781   4.522   5.751  0.5974  0.2951  0.1005
 7160SOL     OW39471  13.694  13.343   8.325 -0.1306  0.3886  0.1830
 7160SOL    HW139472  13.667  13.255   8.352  0.1633  0.8826  2.2360
 7160SOL    HW239473  13.681  13.344   8.230 -2.6873 -1.0014  0.4207
 7161SOL     OW39474   0.222   8.063  13.521  0.0228  0.1238  0.4888
 7161SOL    HW139475   0.198   8.111  13.442  2.2030  2.7800  1.2768
 7161SOL    HW239476   0.264   7.983  13.488 -2.0148 -0.4417 -0.9113
 7162SOL     OW39477   0.138  12.341   9.910  0.2167  0.0779  0.7591
 7162SOL    HW139478   0.056  12.306   9.944  0.3877 -1.9015 -0.7327
 7162SOL    HW239479   0.204  12.314   9.973  0.1627 -1.2782  0.2654
 7163SOL     OW39480   8.722   0.353  10.050 -0.4243  0.3184 -0.1911
 7163SOL    HW139481   8.805   0.350  10.001 -1.2957 -0.8043 -1.7023
 7163SOL    HW239482   8.684   0.437  10.025 -1.2326 -0.5745 -2.2119
 7164SOL     OW39483   3.473   6.484   8.898 -0.2960  0.5448  0.2485
 7164SOL    HW139484   3.503   6.545   8.964  0.3686  0.7041 -0.1876
 7164SOL    HW239485   3.451   6.539   8.823 -2.1117  0.4752  0.6900
 7165SOL     OW39486  11.317   4.327   8.813  0.0150 -0.7721 -0.4091
 7165SOL    HW139487  11.225   4.318   8.836 -0.5300  2.3173 -1.0219
 7165SOL    HW239488  11.347   4.403   8.862  1.7402 -0.6097 -1.6321
 7166SOL     OW39489   9.317   5.562   8.832 -0.4182  0.4939  0.4431
 7166SOL    HW139490   9.411   5.568   8.847 -0.1507 -2.0012  0.3064
 7166SOL    HW239491   9.282   5.523   8.912 -1.1063  0.0672 -0.0523
 7167SOL     OW39492  13.450   9.363   6.351 -0.3235  0.2245  0.2699
 7167SOL    HW139493  13.513   9.316   6.297 -1.0596 -0.2762 -0.1779
 7167SOL    HW239494  13.476   9.345   6.441  0.5743  0.5915  0.0872
 7168SOL     OW39495   7.642  12.880   1.119 -0.0168  0.2666  0.0121
 7168SOL    HW139496   7.719  12.835   1.085 -1.4871 -1.9453 -0.5250
 7168SOL    HW239497   7.630  12.955   1.061  1.6756  0.6321  0.0913
 7169SOL     OW39498  11.723   9.030   4.888  0.1033  0.0988 -0.2167
 7169SOL    HW139499  11.808   9.066   4.865  0.6977  0.3966  2.1464
 7169SOL    HW239500  11.660   9.091   4.850  1.0320  1.7381  0.7537
 7170SOL     OW39501   7.751   5.728   4.713  0.0937  0.2474 -0.5014
 7170SOL    HW139502   7.784   5.697   4.797 -0.3642 -1.5595 -0.9381
 7170SOL    HW239503   7.676   5.783   4.735  0.5183  0.5273  0.2885
 7171SOL     OW39504   6.853   9.663  10.639  0.0174  0.1799 -0.0088
 7171SOL    HW139505   6.936   9.704  10.615  0.4127 -0.5680  0.0329
 7171SOL    HW239506   6.786   9.722  10.605  0.5271  2.0016  1.9925
 7172SOL     OW39507  11.446  13.155   5.427  0.6363 -0.1555  0.0553
 7172SOL    HW139508  11.399  13.184   5.349 -0.2191  1.2538  1.0350
 7172SOL    HW239509  11.379  13.111   5.480  1.5316 -2.4748 -0.6153
 7173SOL     OW39510   4.913  12.251   0.711  0.3636  0.4688  0.4159
 7173SOL    HW139511   4.951  12.339   0.705 -1.0690  1.0062 -3.5410
 7173SOL    HW239512   4.819  12.266   0.712  0.0939 -1.0332 -0.1336
 7174SOL     OW39513   8.489  12.222  11.306  0.1000  0.5781 -0.2715
 7174SOL    HW139514   8.539  12.185  11.233  0.4152  2.1336 -0.8657
 7174SOL    HW239515   8.550  12.281  11.350 -0.3644  0.3366  0.7216
 7175SOL     OW39516   2.569   3.951  14.028 -0.2744  0.1180 -0.3235
 7175SOL    HW139517   2.535   4.030  14.070 -2.6011 -1.3302  0.7533
 7175SOL    HW239518   2.570   3.886  14.098 -1.8800 -1.7216 -1.9089
 7176SOL     OW39519   5.340  13.196  10.090  0.3447  0.4216  1.0061
 7176SOL    HW139520   5.423  13.242  10.095  0.5399  0.2915 -0.6051
 7176SOL    HW239521   5.364  13.103  10.084  0.0487  0.3159  1.3796
 7177SOL     OW39522   0.112   3.218   0.121 -0.6862  0.4211  0.0790
 7177SOL    HW139523   0.136   3.152   0.187 -2.2245  0.0996  0.3571
 7177SOL    HW239524   0.080   3.292   0.172 -1.4670  0.3471 -0.2975
 7178SOL     OW39525   2.321   1.491  11.691 -0.0421 -0.1022  0.8777
 7178SOL    HW139526   2.335   1.539  11.772  0.2313 -0.1322  0.8480
 7178SOL    HW239527   2.261   1.546  11.641 -0.3601 -0.1713  1.1752
 7179SOL     OW39528   5.795  12.738   8.081  0.1565  0.2792  0.4285
 7179SOL    HW139529   5.777  12.645   8.088  0.4541  0.2226  0.4278
 7179SOL    HW239530   5.717  12.780   8.119  1.1737  0.0093  3.0437
 7180SOL     OW39531  11.575   2.347  11.493 -0.2147  0.3464  0.2273
 7180SOL    HW139532  11.554   2.334  11.401  0.9412  3.1722 -0.5657
 7180SOL    HW239533  11.670   2.338  11.497 -0.2982 -0.1965  1.2394
 7181SOL     OW39534   7.492   3.039  10.388  0.2627  0.9106  0.4637
 7181SOL    HW139535   7.477   2.974  10.456 -0.7585  0.3027 -0.3106
 7181SOL    HW239536   7.497   3.122  10.434 -1.9508  0.7048  1.1757
 7182SOL     OW39537  11.334   8.795   4.769 -0.0576  0.5563 -0.3592
 7182SOL    HW139538  11.402   8.785   4.836  0.7391  1.7786 -0.9468
 7182SOL    HW239539  11.339   8.714   4.718 -1.3168 -0.8234  1.5623
 7183SOL     OW39540   4.382  10.391  13.580 -0.0514 -0.1552 -0.0231
 7183SOL    HW139541   4.390  10.295  13.575 -0.8134 -0.4037  2.2638
 7183SOL    HW239542   4.445  10.416  13.648  0.5159  1.0598 -0.9696
 7184SOL     OW39543  11.457  12.898   0.053 -0.0657  0.0386  0.2201
 7184SOL    HW139544  11.458  12.876   0.146  0.8415  2.0118  0.7329
 7184SOL    HW239545  11.537  12.861   0.018 -0.0597 -0.0991  0.3782
 7185SOL     OW39546  10.147  12.117   2.749 -0.1990 -0.0831  0.4870
 7185SOL    HW139547  10.133  12.022   2.754  1.1715 -0.3801 -0.6124
 7185SOL    HW239548  10.152  12.135   2.655 -0.1515  1.0412  0.6905
 7186SOL     OW39549   4.033  10.482   2.799  0.2576  0.2380 -0.2997
 7186SOL    HW139550   4.123  10.506   2.780  0.1586  0.2590 -0.7499
 7186SOL    HW239551   3.989  10.566   2.815  0.1171  0.2954 -0.9707
 7187SOL     OW39552   5.786   7.767  10.799 -0.2500  0.2479 -0.1530
 7187SOL    HW139553   5.839   7.845  10.818  0.8491 -0.6601  0.6211
 7187SOL    HW239554   5.779   7.765  10.704  1.8497 -0.0558 -0.3447
 7188SOL     OW39555  13.829   5.439   7.275  0.0213 -0.1738 -0.2431
 7188SOL    HW139556  13.801   5.482   7.355 -1.6049  0.8918 -1.3063
 7188SOL    HW239557  13.748   5.402   7.239  0.5780 -0.0098 -1.7293
 7189SOL     OW39558   0.211  11.091   0.668  0.2337 -0.1313  0.1903
 7189SOL    HW139559   0.241  11.167   0.618  1.5031  0.4080  1.6934
 7189SOL    HW239560   0.243  11.107   0.757  0.2285 -2.2547  0.6226
 7190SOL     OW39561   5.286   2.883   9.013 -0.2284  0.5594  0.2722
 7190SOL    HW139562   5.341   2.813   9.050  0.5522  0.6147 -0.7239
 7190SOL    HW239563   5.334   2.964   9.032 -0.2548  0.6649 -0.1100
 7191SOL     OW39564   5.091   5.912   2.774  0.2043 -0.3788  0.1717
 7191SOL    HW139565   5.158   5.951   2.717  0.0412  0.5679  0.6099
 7191SOL    HW239566   5.115   5.940   2.862 -1.2780  0.7938  0.2558
 7192SOL     OW39567   6.549   1.940   6.127 -0.0558 -0.1727  0.4154
 7192SOL    HW139568   6.602   1.873   6.170  0.4644  0.7402  1.2387
 7192SOL    HW239569   6.567   1.929   6.034  0.3442 -0.8957  0.5666
 7193SOL     OW39570   3.989   0.115  10.273 -0.4102 -0.5038  0.3460
 7193SOL    HW139571   3.920   0.151  10.217 -0.9322 -0.7773  0.8008
 7193SOL    HW239572   3.943   0.086  10.352  0.3455  0.1431  1.0435
 7194SOL     OW39573   0.198   1.600   3.346 -0.1347  0.1380 -0.1588
 7194SOL    HW139574   0.152   1.519   3.322  1.0948 -0.7517  0.3820
 7194SOL    HW239575   0.227   1.585   3.436 -0.0737  1.2841  0.0235
 7195SOL     OW39576  13.199   5.524  13.971 -0.0634  0.7689  0.7732
 7195SOL    HW139577  13.270   5.514  14.033  0.4207 -0.4667  0.0594
 7195SOL    HW239578  13.120   5.531  14.025  0.3664 -0.0863  1.5282
 7196SOL     OW39579   1.706   7.669   1.623 -0.0688  0.4064 -0.0900
 7196SOL    HW139580   1.630   7.721   1.647  1.0094  2.0067  0.0354
 7196SOL    HW239581   1.771   7.689   1.691  1.0642  0.5107 -1.1614
 7197SOL     OW39582   5.998  12.742  13.156  0.2135 -0.4158  0.0140
 7197SOL    HW139583   6.010  12.790  13.074 -0.2765 -0.8214 -0.3026
 7197SOL    HW239584   5.925  12.683  13.139 -0.1406 -0.2389  0.8696
 7198SOL     OW39585   6.277   4.703   2.608 -0.0899  0.0618 -0.1263
 7198SOL    HW139586   6.349   4.765   2.604  0.9427 -1.1129 -0.2166
 7198SOL    HW239587   6.269   4.670   2.518 -1.3317  0.8198 -0.3159
 7199SOL     OW39588  10.522  11.712   2.648  0.1088  0.1183  0.2249
 7199SOL    HW139589  10.600  11.672   2.686 -0.0741 -0.6128 -0.1462
 7199SOL    HW239590  10.513  11.796   2.693  1.1575  0.2509  0.2055
 7200SOL     OW39591   4.097   0.217   5.948  0.0784 -0.1719  0.4879
 7200SOL    HW139592   4.033   0.153   5.918  0.0686  0.3130 -0.5717
 7200SOL    HW239593   4.128   0.260   5.868  1.3917 -0.0755  1.0169
 7201SOL     OW39594  11.085  11.288   3.923  0.0398  0.0579  0.7054
 7201SOL    HW139595  11.123  11.204   3.948 -1.8634 -0.8383  0.8029
 7201SOL    HW239596  11.005  11.294   3.975 -0.7478  1.1152 -0.5535
 7202SOL     OW39597   6.720  10.960  13.756  0.4032  0.1029 -0.2729
 7202SOL    HW139598   6.672  10.878  13.749 -0.8606  0.6386  1.4011
 7202SOL    HW239599   6.729  10.975  13.851  1.6673  1.3008 -0.5330
 7203SOL     OW39600   4.287   2.410  12.266  0.0195 -0.7603 -0.0375
 7203SOL    HW139601   4.276   2.315  12.273  1.6660 -0.9674  0.2589
 7203SOL    HW239602   4.304   2.425  12.173  1.8722 -1.0682  0.2052
 7204SOL     OW39603  13.960   3.247  13.592 -0.1247  0.1721  0.5024
 7204SOL    HW139604  13.970   3.335  13.556  0.3722 -0.3324 -0.6412
 7204SOL    HW239605  13.870   3.223  13.572  0.3756 -0.4184 -1.2023
 7205SOL     OW39606  10.397   3.846  10.634 -0.0085 -0.5374  1.1271
 7205SOL    HW139607  10.399   3.758  10.595 -2.4573 -0.9279  1.7316
 7205SOL    HW239608  10.305   3.871  10.631  0.5922  1.8644  1.3705
 7206SOL     OW39609  13.025   0.196  13.326 -0.4701  0.2583  0.6765
 7206SOL    HW139610  13.044   0.242  13.408 -0.8421 -0.2483  1.0513
 7206SOL    HW239611  13.110   0.187  13.283 -0.2617  0.4434  1.0476
 7207SOL     OW39612  11.674   1.716   0.243 -0.3231 -0.2215 -0.1060
 7207SOL    HW139613  11.581   1.711   0.264 -0.4415 -0.5056 -0.6906
 7207SOL    HW239614  11.718   1.715   0.329 -0.8888  0.8926  0.2161
 7208SOL     OW39615   0.325   7.974   1.467  0.3085 -0.2375 -0.2381
 7208SOL    HW139616   0.273   7.937   1.539 -0.5725 -0.6260 -1.0572
 7208SOL    HW239617   0.262   7.990   1.398  1.2151 -0.2803 -1.0934
 7209SOL     OW39618   9.319   5.950   2.249  0.0385 -0.2017  0.1118
 7209SOL    HW139619   9.395   5.916   2.202  0.0539  0.3220 -0.2598
 7209SOL    HW239620   9.265   5.990   2.181 -0.3956 -0.2531  0.4209
 7210SOL     OW39621   1.685   5.435   6.622 -0.0152  0.0677  0.2367
 7210SOL    HW139622   1.757   5.378   6.648 -0.5548 -1.0975 -0.6850
 7210SOL    HW239623   1.683   5.430   6.526 -0.6654  0.9055  0.1881
 7211SOL     OW39624   6.285   1.426   8.294  0.2796  0.1488 -0.0774
 7211SOL    HW139625   6.282   1.429   8.198 -0.7981 -0.0829 -0.0657
 7211SOL    HW239626   6.293   1.518   8.320 -0.0638  0.2723 -0.3854
 7212SOL     OW39627  10.405  10.464  11.288  0.5634  0.0630  0.0844
 7212SOL    HW139628  10.346  10.400  11.249  1.5257 -0.5588 -0.4035
 7212SOL    HW239629  10.348  10.534  11.320 -0.6219 -1.5997  1.7859
 7213SOL     OW39630   8.462   4.065  13.620 -0.2038  0.6167 -0.4485
 7213SOL    HW139631   8.420   4.124  13.557 -1.3248 -0.3821 -0.6658
 7213SOL    HW239632   8.398   4.054  13.690  0.5465  0.7401  0.2752
 7214SOL     OW39633  13.046  11.612  14.098  0.1551 -0.0332 -0.2055
 7214SOL    HW139634  13.082  11.638  14.013 -0.5647 -0.8085 -0.7635
 7214SOL    HW239635  13.069  11.684  14.157  0.1096  0.8175 -1.2024
 7215SOL     OW39636   4.721   5.945  12.253  0.3175 -0.0604 -0.5163
 7215SOL    HW139637   4.672   6.028  12.259 -0.5027 -0.4731 -1.3220
 7215SOL    HW239638   4.798   5.966  12.200  0.7845  0.4774  0.3482
 7216SOL     OW39639  12.627   9.748   0.002 -0.3183  0.5270  0.1786
 7216SOL    HW139640  12.690   9.705   0.059 -1.6088 -1.8508 -0.0487
 7216SOL    HW239641  12.672   9.754  -0.082  0.1360  0.2209  0.3931
 7217SOL     OW39642  11.564  10.084   6.455  0.7431 -0.0800 -0.1909
 7217SOL    HW139643  11.485  10.096   6.508  0.8053  0.2726 -0.1805
 7217SOL    HW239644  11.626  10.040   6.513 -0.2046 -2.4445 -0.8559
 7218SOL     OW39645   5.200   8.090   8.677  0.1359 -0.6429 -0.1791
 7218SOL    HW139646   5.191   8.081   8.771  0.3336 -1.7569 -0.2558
 7218SOL    HW239647   5.290   8.119   8.663  0.1698 -0.6866 -0.0447
 7219SOL     OW39648  10.119  12.692   4.156 -0.2406 -0.1445 -0.3672
 7219SOL    HW139649  10.043  12.654   4.111 -0.4202 -0.4585  0.1953
 7219SOL    HW239650  10.194  12.648   4.117 -0.4477 -1.1321  0.3142
 7220SOL     OW39651  13.821  12.239   9.123  0.1847  0.4509 -0.7579
 7220SOL    HW139652  13.866  12.265   9.043  1.1318  0.6752 -0.1673
 7220SOL    HW239653  13.833  12.314   9.182 -0.5417  0.3088 -0.4214
 7221SOL     OW39654  11.563   5.680  13.265 -0.8480  0.8576 -0.2913
 7221SOL    HW139655  11.654   5.666  13.294 -0.9224  1.5499  0.2976
 7221SOL    HW239656  11.517   5.602  13.295 -0.2972  0.1010 -1.3247
 7222SOL     OW39657   2.276   6.025  12.674  0.0429 -0.0207 -0.1416
 7222SOL    HW139658   2.350   6.001  12.730  0.0139  0.5930  0.1702
 7222SOL    HW239659   2.199   6.011  12.729 -0.0100  0.2250 -0.1497
 7223SOL     OW39660   0.561  13.050   8.298  0.0809 -0.1295 -0.1357
 7223SOL    HW139661   0.593  12.974   8.249  1.1029  0.6209 -0.6804
 7223SOL    HW239662   0.616  13.123   8.268 -0.0492  0.5913  1.2553
 7224SOL     OW39663   0.350   4.269  12.503  0.0977 -0.2915 -0.4654
 7224SOL    HW139664   0.288   4.199  12.524  0.3697 -0.0645  1.2936
 7224SOL    HW239665   0.410   4.271  12.578  1.1925  0.6362 -1.3274
 7225SOL     OW39666   6.084  12.172   6.888  0.2947 -0.0986  0.3064
 7225SOL    HW139667   6.173  12.199   6.910  0.0584  0.0874  1.0464
 7225SOL    HW239668   6.032  12.251   6.899  0.0836 -0.1252 -0.4432
 7226SOL     OW39669   6.985   5.732  14.143 -0.5403 -0.3647  0.6218
 7226SOL    HW139670   7.024   5.797  14.085  0.4091  0.1399  1.7693
 7226SOL    HW239671   6.891   5.745  14.134 -0.3973  0.1303 -0.3014
 7227SOL     OW39672   2.808  11.973  11.640 -0.3407 -0.0814  0.5104
 7227SOL    HW139673   2.820  12.050  11.584 -0.5042  0.6815  1.4791
 7227SOL    HW239674   2.788  11.902  11.580 -2.9737  1.1964 -0.2523
 7228SOL     OW39675   3.184   0.090   8.029 -0.1333 -0.3113  0.1628
 7228SOL    HW139676   3.219   0.159   7.974  0.2789  0.4649  1.3597
 7228SOL    HW239677   3.261   0.047   8.066 -0.3513 -2.0055 -1.2229
 7229SOL     OW39678   5.864  10.796  10.281  0.1687 -0.3951 -0.4897
 7229SOL    HW139679   5.885  10.709  10.247  1.0642  0.0860 -1.1940
 7229SOL    HW239680   5.769  10.801  10.276  0.1117 -1.2869 -0.5481
 7230SOL     OW39681  11.342  13.603   0.166 -0.9839 -0.3698 -1.0679
 7230SOL    HW139682  11.383  13.527   0.208  0.6372  2.1976  2.5815
 7230SOL    HW239683  11.396  13.619   0.089  0.6978 -1.1014 -0.1219
 7231SOL     OW39684   8.417  12.792   3.063 -0.6334 -0.1529  0.1844
 7231SOL    HW139685   8.352  12.767   3.128  0.0417 -1.0416  0.5423
 7231SOL    HW239686   8.366  12.814   2.985 -1.3582 -0.7823  0.4710
 7232SOL     OW39687   8.579  12.755   7.083 -0.1754 -0.6080  0.1804
 7232SOL    HW139688   8.550  12.766   6.993 -0.3716  2.2451  0.4861
 7232SOL    HW239689   8.675  12.754   7.078 -0.1439  0.7402 -0.0379
 7233SOL     OW39690   0.808   8.635   4.318  0.4476  0.5963 -0.3217
 7233SOL    HW139691   0.733   8.694   4.330  1.2408  1.7928 -1.0536
 7233SOL    HW239692   0.770   8.557   4.278 -0.6640  0.4603  0.9173
 7234SOL     OW39693   9.298  13.273   1.130  0.2908  0.0021  0.7148
 7234SOL    HW139694   9.354  13.223   1.188  2.1877  1.8232  0.5696
 7234SOL    HW239695   9.274  13.351   1.180 -1.5549 -0.3868  0.5109
 7235SOL     OW39696   5.844   4.827   9.371 -0.3300 -0.5966  0.2507
 7235SOL    HW139697   5.920   4.821   9.428 -0.4669  0.8422  0.6350
 7235SOL    HW239698   5.881   4.849   9.285 -0.2666 -0.4986  0.3020
 7236SOL     OW39699  10.445   7.975   2.989  0.0189  0.2305 -0.0254
 7236SOL    HW139700  10.473   7.930   2.910 -1.5068 -0.5444 -0.1687
 7236SOL    HW239701  10.463   8.068   2.973  2.2970 -0.1655 -0.1278
 7237SOL     OW39702   8.849   9.141   2.754 -0.4031 -0.0982  0.2407
 7237SOL    HW139703   8.899   9.151   2.835 -0.5876 -1.5498  0.5521
 7237SOL    HW239704   8.912   9.109   2.690 -0.1644  1.4214 -0.3383
 7238SOL     OW39705   2.859  13.219   5.498 -0.1984 -0.0940  0.1000
 7238SOL    HW139706   2.870  13.164   5.575 -1.0642 -0.2665  0.1124
 7238SOL    HW239707   2.936  13.276   5.497 -0.1118 -0.1877  1.0052
 7239SOL     OW39708   4.595   3.069  10.048  0.2643  0.2917  0.3855
 7239SOL    HW139709   4.633   3.015   9.978 -1.6569 -0.0631 -0.4809
 7239SOL    HW239710   4.525   3.014  10.084  0.1523  1.1186  1.4670
 7240SOL     OW39711  13.322  10.985   6.723  0.0320  0.1519 -0.4005
 7240SOL    HW139712  13.354  10.898   6.700 -1.2247 -0.3477 -0.3322
 7240SOL    HW239713  13.372  11.045   6.668  1.0571 -0.5907 -0.2986
 7241SOL     OW39714  11.477   5.461   5.260 -0.0797  0.7014 -0.0099
 7241SOL    HW139715  11.497   5.534   5.318  0.4522  0.7496 -0.2570
 7241SOL    HW239716  11.546   5.462   5.194 -1.0638  1.0783 -1.0616
 7242SOL     OW39717   6.045   5.368   5.903  0.0554  0.0785  0.2681
 7242SOL    HW139718   6.101   5.291   5.911 -0.1057 -0.3685 -2.1232
 7242SOL    HW239719   6.076   5.428   5.970  0.4646 -1.8873  1.9189
 7243SOL     OW39720  11.210   1.436   4.944 -0.0760 -0.0787 -0.2305
 7243SOL    HW139721  11.163   1.519   4.944 -2.9239 -1.5664 -0.6194
 7243SOL    HW239722  11.174   1.388   4.869  0.4198 -2.1956  0.8151
 7244SOL     OW39723  12.695   6.356  12.074 -0.1552  0.1457  0.1862
 7244SOL    HW139724  12.736   6.442  12.066 -0.6001  0.3002 -0.6195
 7244SOL    HW239725  12.684   6.327  11.983 -0.2482 -0.6469  0.4474
 7245SOL     OW39726  11.107   7.579   5.075  0.0945 -0.1545 -0.0342
 7245SOL    HW139727  11.073   7.651   5.127 -0.2287  0.2797 -0.8214
 7245SOL    HW239728  11.104   7.503   5.133  1.0744  0.5845  1.0350
 7246SOL     OW39729  12.316   4.067  11.199  0.1633  0.4289  0.2357
 7246SOL    HW139730  12.294   4.094  11.110  2.1551  1.5120  0.0362
 7246SOL    HW239731  12.254   4.115  11.255  0.7029  1.9381 -0.4108
 7247SOL     OW39732   2.301   2.596   4.091 -0.5338 -0.0084 -0.8528
 7247SOL    HW139733   2.239   2.629   4.026  0.5441 -1.2666 -2.6251
 7247SOL    HW239734   2.271   2.506   4.108 -0.3824  0.0719 -0.1119
 7248SOL     OW39735  14.118   8.024   2.764  0.2114 -0.4154  0.3192
 7248SOL    HW139736  14.028   8.010   2.791  0.1039 -1.0220 -0.3169
 7248SOL    HW239737  14.170   8.017   2.844 -0.2538 -0.5833  0.6027
 7249SOL     OW39738  10.523   4.235   4.043  0.0185 -0.9348 -0.7611
 7249SOL    HW139739  10.555   4.145   4.036 -0.8139 -1.6995  3.1649
 7249SOL    HW239740  10.429   4.226   4.054 -0.0123  0.3712  0.2489
 7250SOL     OW39741  13.250   4.356   3.431  0.2417 -0.1557  0.6730
 7250SOL    HW139742  13.252   4.261   3.436 -1.4711 -0.1976  1.6497
 7250SOL    HW239743  13.176   4.381   3.488 -0.4083  1.6394 -0.8455
 7251SOL     OW39744   6.483   2.394   6.329  0.0691 -0.8030 -0.1545
 7251SOL    HW139745   6.397   2.422   6.359  0.3280 -0.4832  0.2945
 7251SOL    HW239746   6.465   2.319   6.271 -0.7440  0.9185 -2.2904
 7252SOL     OW39747   0.180  10.158   3.358 -0.3192  0.2210 -0.1590
 7252SOL    HW139748   0.268  10.122   3.344 -0.3163 -0.3567  1.2457
 7252SOL    HW239749   0.121  10.089   3.328 -0.3193 -1.2263  2.8609
 7253SOL     OW39750  11.846  11.844   8.253  0.1278  0.2435  0.1246
 7253SOL    HW139751  11.909  11.878   8.317 -0.7558  2.2835  0.0015
 7253SOL    HW239752  11.770  11.819   8.304  0.0049  0.4135  0.0286
 7254SOL     OW39753   4.142   6.759  10.045 -0.2427  0.0025  0.7873
 7254SOL    HW139754   4.188   6.754  10.129  1.8503 -1.8202 -0.3818
 7254SOL    HW239755   4.124   6.668  10.022 -0.3794  0.4336 -0.9470
 7255SOL     OW39756   8.927  10.284   5.114 -0.0569  0.3782 -0.2904
 7255SOL    HW139757   8.904  10.333   5.193 -2.7620 -0.1191 -0.6766
 7255SOL    HW239758   8.892  10.197   5.129  1.5125 -0.4339 -1.1060
 7256SOL     OW39759   6.153   5.643  10.939 -0.5021 -0.8430 -0.5649
 7256SOL    HW139760   6.194   5.720  10.900 -1.9946 -0.1328 -0.8207
 7256SOL    HW239761   6.215   5.572  10.922  0.5675  0.1508 -0.9810
 7257SOL     OW39762   7.455   5.401   2.579  0.4852 -0.1008 -0.2977
 7257SOL    HW139763   7.527   5.337   2.581  0.4507 -0.1511  1.7750
 7257SOL    HW239764   7.383   5.354   2.538  1.0073 -0.7675 -0.4770
 7258SOL     OW39765   5.280   4.773   3.931  0.0307  0.2359 -0.0111
 7258SOL    HW139766   5.295   4.800   4.021 -0.5928  0.6538 -0.0174
 7258SOL    HW239767   5.329   4.836   3.878 -0.4854  0.6617  0.0096
 7259SOL     OW39768   5.404  10.429  12.368  0.2471 -0.7958 -0.3361
 7259SOL    HW139769   5.388  10.340  12.338  0.4340 -0.9635  0.0511
 7259SOL    HW239770   5.387  10.426  12.462  0.6446 -0.5166 -0.2520
 7260SOL     OW39771  10.353   0.742  10.368  0.4536 -0.1116 -0.1428
 7260SOL    HW139772  10.342   0.735  10.273  1.3753 -1.8013 -0.1642
 7260SOL    HW239773  10.278   0.694  10.404  0.2967  0.2230 -0.0260
 7261SOL     OW39774   4.601   1.156   3.133 -0.1070 -0.2111 -0.0781
 7261SOL    HW139775   4.650   1.218   3.078 -1.5176  1.1346  0.1242
 7261SOL    HW239776   4.579   1.084   3.074 -1.7105  1.2726 -1.3925
 7262SOL     OW39777   4.550   7.239  13.073 -0.1161  0.1975 -0.5155
 7262SOL    HW139778   4.522   7.208  13.160 -2.1453  0.1773 -1.1385
 7262SOL    HW239779   4.473   7.282  13.037  0.4311 -0.5000 -2.6436
 7263SOL     OW39780   2.255  14.132   7.353 -0.1299  0.0764 -0.7028
 7263SOL    HW139781   2.309  14.176   7.419 -1.2217  0.3650  0.0178
 7263SOL    HW239782   2.306  14.141   7.272  1.0059  0.1390 -0.0124
 7264SOL     OW39783   3.001   5.174   7.468 -1.1562 -0.1147  0.2735
 7264SOL    HW139784   3.049   5.198   7.388  0.4920 -0.3313  1.1593
 7264SOL    HW239785   2.929   5.120   7.436 -0.0668 -0.8747 -1.0225
 7265SOL     OW39786   3.505   8.009   6.786  0.3012 -0.9387  0.0735
 7265SOL    HW139787   3.521   8.063   6.863  0.3499 -0.1219 -0.4972
 7265SOL    HW239788   3.592   7.977   6.761  0.4257 -0.3372 -0.2647
 7266SOL     OW39789  13.072   4.849   1.573 -0.4961  0.0871 -0.2521
 7266SOL    HW139790  13.142   4.914   1.581 -0.4586 -0.1615  1.8911
 7266SOL    HW239791  13.005   4.878   1.634 -1.2734 -0.9228 -0.6043
 7267SOL     OW39792   6.801  12.660  10.103 -0.3468  0.4116 -0.1247
 7267SOL    HW139793   6.886  12.637  10.140 -0.0788 -1.3105 -1.6628
 7267SOL    HW239794   6.817  12.742  10.057 -0.1574  1.3985  1.5954
 7268SOL     OW39795   8.737  10.541   6.635  0.0678  0.0075 -0.0416
 7268SOL    HW139796   8.802  10.522   6.568 -0.7770 -0.7282 -0.6759
 7268SOL    HW239797   8.675  10.600   6.593 -0.5961 -0.6441 -0.0121
 7269SOL     OW39798   0.765   4.190  10.119 -0.2136 -0.5130  0.0700
 7269SOL    HW139799   0.816   4.118  10.156 -0.9228 -0.5960  0.9182
 7269SOL    HW239800   0.818   4.268  10.134  0.8004 -0.9115 -1.3285
 7270SOL     OW39801   1.065  14.028   4.601  0.6437  0.1674  0.1272
 7270SOL    HW139802   1.132  14.022   4.669  0.8735 -0.4146 -0.1499
 7270SOL    HW239803   1.070  13.945   4.554  0.6360  0.6470 -0.7408
 7271SOL     OW39804   8.929  12.979   3.660  0.3566 -0.1408 -0.2113
 7271SOL    HW139805   8.957  12.898   3.616  1.9298 -0.6072  1.5235
 7271SOL    HW239806   9.011  13.019   3.689 -0.4839  1.5009 -0.0396
 7272SOL     OW39807  10.647   2.105   0.205  0.1547 -0.2235  0.0301
 7272SOL    HW139808  10.616   2.190   0.237  1.5054  0.0199  0.8005
 7272SOL    HW239809  10.667   2.055   0.285  0.2005 -0.9501 -0.4242
 7273SOL     OW39810   8.283   7.046   6.704  0.0706 -0.6703  0.2157
 7273SOL    HW139811   8.268   6.955   6.732 -2.2770 -0.5145 -0.3127
 7273SOL    HW239812   8.231   7.055   6.624  0.4140  1.1015  0.1618
 7274SOL     OW39813  13.165  11.018   9.164 -0.7403 -0.2248  0.5253
 7274SOL    HW139814  13.115  10.977   9.234  0.6496 -0.1969  1.5823
 7274SOL    HW239815  13.206  11.094   9.205 -0.8479  0.4896 -0.6353
 7275SOL     OW39816  14.045  10.834   9.465  0.5549  0.5174 -0.0556
 7275SOL    HW139817  14.016  10.770   9.530  1.0679 -0.3323 -0.6313
 7275SOL    HW239818  13.972  10.842   9.403  1.2252 -1.1179 -1.1362
 7276SOL     OW39819   8.025   9.315   1.729 -0.6739 -0.4573  0.0296
 7276SOL    HW139820   7.943   9.321   1.681 -0.1170 -0.8941 -1.0172
 7276SOL    HW239821   8.006   9.351   1.816 -1.2735  2.0240 -1.0619
 7277SOL     OW39822   4.299  13.885   2.076 -0.5136 -0.4328  0.0838
 7277SOL    HW139823   4.229  13.950   2.083  0.7566  1.2030 -1.6109
 7277SOL    HW239824   4.380  13.935   2.082  0.5233 -1.6044 -2.4935
 7278SOL     OW39825  13.180  11.146  10.825  0.1113 -0.2460 -0.5517
 7278SOL    HW139826  13.255  11.106  10.869 -0.5038 -0.0014  0.7910
 7278SOL    HW239827  13.124  11.176  10.897 -1.9290 -1.6206 -1.4723
 7279SOL     OW39828   9.006   1.726   7.702  0.5311  0.2193  0.2941
 7279SOL    HW139829   9.070   1.795   7.715  1.8886 -0.9698  0.1781
 7279SOL    HW239830   8.953   1.726   7.782 -0.5219  2.3682 -0.3393
 7280SOL     OW39831   6.139  11.093   3.339 -0.2522 -0.6748 -0.8383
 7280SOL    HW139832   6.188  11.024   3.295 -0.4497 -1.4268  0.0673
 7280SOL    HW239833   6.047  11.071   3.323 -0.3141 -0.4537 -0.7928
 7281SOL     OW39834  10.633   4.968   3.896 -0.9639  0.8021 -0.3236
 7281SOL    HW139835  10.561   4.971   3.958  0.0046 -0.2599  0.9020
 7281SOL    HW239836  10.711   4.963   3.950 -0.0183  0.9427 -1.6354
 7282SOL     OW39837   2.433   2.751   1.144 -0.2483  0.6623  0.3233
 7282SOL    HW139838   2.425   2.840   1.178 -0.5799  1.4772 -1.7662
 7282SOL    HW239839   2.514   2.752   1.094 -0.4998 -0.0679 -0.1066
 7283SOL     OW39840   1.643   4.151  13.487 -0.8025  0.6719  0.2929
 7283SOL    HW139841   1.698   4.134  13.564 -0.8442 -1.3556 -0.0693
 7283SOL    HW239842   1.628   4.246  13.489  2.4261  1.3015  0.5947
 7284SOL     OW39843   8.722   5.658   3.980 -0.5629  0.1977  0.5840
 7284SOL    HW139844   8.689   5.667   3.891 -2.6421  1.6117  1.4000
 7284SOL    HW239845   8.813   5.632   3.970 -0.7249  0.3642 -1.9344
 7285SOL     OW39846  13.813   2.936   9.572  0.3036 -0.3008  0.2794
 7285SOL    HW139847  13.775   3.010   9.620 -0.0626 -0.3737  0.1008
 7285SOL    HW239848  13.905   2.961   9.560  0.1963  0.1013  0.2670
 7286SOL     OW39849   9.599  10.681   9.177 -0.2499 -0.1696 -0.6298
 7286SOL    HW139850   9.588  10.681   9.272  0.8762 -0.5992 -0.4900
 7286SOL    HW239851   9.527  10.627   9.145 -0.9236  0.3691 -0.0669
 7287SOL     OW39852   0.138   5.280   7.162  0.2187 -0.1498  0.4044
 7287SOL    HW139853   0.220   5.287   7.114  1.1359 -0.2670  1.8851
 7287SOL    HW239854   0.164   5.278   7.254 -1.3842 -1.1070  0.8837
 7288SOL     OW39855   2.692  10.941  13.276 -0.0897  0.0332  0.2377
 7288SOL    HW139856   2.649  10.994  13.208  0.5350  0.4372  0.1460
 7288SOL    HW239857   2.724  10.864  13.229 -1.5038 -0.7505  0.4716
 7289SOL     OW39858  13.697  12.675   1.357  0.1421 -0.0688  0.1382
 7289SOL    HW139859  13.778  12.647   1.315 -0.4477 -0.6476 -0.6423
 7289SOL    HW239860  13.717  12.762   1.392  1.1001 -0.2131 -0.0264
 7290SOL     OW39861   8.984  10.436   3.651  0.0416 -0.2511  0.2734
 7290SOL    HW139862   9.009  10.481   3.570 -0.7555 -0.9905 -0.4108
 7290SOL    HW239863   9.062  10.387   3.677  0.5238  0.5440  0.3474
 7291SOL     OW39864   6.727   8.899   5.605  0.1191  0.0912  0.1069
 7291SOL    HW139865   6.798   8.845   5.569  0.6589  0.7400  0.1707
 7291SOL    HW239866   6.754   8.918   5.695  0.0482  0.6478  0.0159
 7292SOL     OW39867   6.674   6.051  13.257 -0.4698  0.2378 -0.0725
 7292SOL    HW139868   6.612   6.062  13.329 -1.1040 -0.6739 -0.4548
 7292SOL    HW239869   6.749   6.105  13.281  0.0833 -1.4067  2.1275
 7293SOL     OW39870  13.772  12.815  10.038 -0.0696 -0.4635  0.1246
 7293SOL    HW139871  13.741  12.724  10.046  0.7343 -0.6225  1.8185
 7293SOL    HW239872  13.834  12.825  10.110  0.3401  1.2505 -0.4384
 7294SOL     OW39873   6.484   2.237  13.350  0.3058 -0.3015  0.2575
 7294SOL    HW139874   6.482   2.144  13.373 -0.5952 -0.3700 -0.0406
 7294SOL    HW239875   6.392   2.261  13.341  0.5451  0.5002 -0.1652
 7295SOL     OW39876   9.541  11.500   8.807 -0.2621 -0.1114  0.9105
 7295SOL    HW139877   9.479  11.566   8.776 -2.1859 -2.0283  0.4036
 7295SOL    HW239878   9.626  11.528   8.773 -1.4620  0.6031 -1.7516
 7296SOL     OW39879   3.157  14.128  13.731  0.2636  0.3903  0.5207
 7296SOL    HW139880   3.085  14.174  13.687 -0.6124 -0.3028  1.1807
 7296SOL    HW239881   3.236  14.160  13.688 -0.5251 -0.0118 -1.3284
 7297SOL     OW39882   8.154   2.627   0.579 -0.0377 -0.3772 -0.2106
 7297SOL    HW139883   8.240   2.631   0.620 -0.2037 -1.4722  0.2807
 7297SOL    HW239884   8.096   2.675   0.639  0.3286  0.9809 -0.8914
 7298SOL     OW39885   6.279  13.370  14.125 -0.1336 -0.2826 -0.1846
 7298SOL    HW139886   6.236  13.287  14.104  1.5840 -1.1158 -0.5479
 7298SOL    HW239887   6.343  13.383  14.055 -0.0352  1.1145  0.1325
 7299SOL     OW39888   2.562  12.043  10.818 -0.4354 -0.0235  0.1246
 7299SOL    HW139889   2.486  12.096  10.794 -1.3190 -1.1478  0.3721
 7299SOL    HW239890   2.564  11.972  10.753  0.4083 -0.0158  0.1215
 7300SOL     OW39891  14.151   9.059   3.508 -0.8458 -0.2956  0.4108
 7300SOL    HW139892  14.132   9.146   3.473  1.0246  0.1668  0.4746
 7300SOL    HW239893  14.083   9.045   3.574 -1.1419  1.1309  0.4424
 7301SOL     OW39894  10.289   9.878   8.306 -0.0992 -0.3163  0.0124
 7301SOL    HW139895  10.362   9.857   8.362 -0.2075 -0.9719 -0.0899
 7301SOL    HW239896  10.305   9.969   8.279 -0.1737  0.0953  1.2773
 7302SOL     OW39897   5.299   1.132   9.456 -0.6240  0.2508 -0.1467
 7302SOL    HW139898   5.382   1.097   9.424  0.3410  3.0079 -0.9255
 7302SOL    HW239899   5.249   1.055   9.482  1.7905 -1.5652 -0.5518
 7303SOL     OW39900   1.286   4.029   2.412 -0.5778 -1.2227 -0.0498
 7303SOL    HW139901   1.277   4.086   2.336  0.8860 -1.1953 -0.2325
 7303SOL    HW239902   1.346   3.960   2.383  0.2185 -1.0623  1.1506
 7304SOL     OW39903  11.429   8.715  12.744 -0.1585  0.2564  0.3553
 7304SOL    HW139904  11.464   8.733  12.831  1.4932  0.2588 -0.2621
 7304SOL    HW239905  11.482   8.769  12.685 -0.4909 -0.5707 -0.7434
 7305SOL     OW39906   3.537   0.953   0.743 -0.2865 -0.1225 -0.1777
 7305SOL    HW139907   3.506   0.932   0.831 -0.8461 -1.0774 -0.5848
 7305SOL    HW239908   3.628   0.923   0.742  0.8629  2.9164  1.0995
 7306SOL     OW39909   5.392   6.330  11.722 -0.0490 -0.3478 -0.2626
 7306SOL    HW139910   5.437   6.402  11.679  0.1872 -0.7593 -0.7083
 7306SOL    HW239911   5.305   6.329  11.683  0.1252 -0.6437 -0.6515
 7307SOL     OW39912   3.086   8.196  13.237  0.1909  0.6829  0.2330
 7307SOL    HW139913   3.012   8.159  13.285  1.4652  0.2736  1.9875
 7307SOL    HW239914   3.107   8.131  13.171 -0.3699  0.3230  0.4009
 7308SOL     OW39915   5.968  14.042   2.228 -0.3723  0.0089 -0.3013
 7308SOL    HW139916   6.016  14.051   2.146  0.2639  0.2984  0.0947
 7308SOL    HW239917   6.011  13.969   2.273 -1.5551 -1.0232 -0.7858
 7309SOL     OW39918   8.056   4.593   4.591 -0.0418 -0.4743  0.0990
 7309SOL    HW139919   8.006   4.543   4.527 -0.0846  1.0691 -1.1178
 7309SOL    HW239920   7.992   4.622   4.655 -0.8328  1.6897 -1.5752
 7310SOL     OW39921  12.905  14.042   7.382  0.1927 -0.6270 -0.8806
 7310SOL    HW139922  12.865  13.956   7.394 -1.3211  0.2786  1.3520
 7310SOL    HW239923  12.873  14.093   7.456  0.8920  1.9198 -2.2259
 7311SOL     OW39924   4.585  10.076   3.426  0.6490 -0.3492  0.4346
 7311SOL    HW139925   4.672  10.060   3.464  1.5999 -0.2944 -1.6140
 7311SOL    HW239926   4.533  10.000   3.451  0.9282  0.0968  2.5727
 7312SOL     OW39927   2.051   1.863  10.343 -0.2582 -0.1509 -0.0808
 7312SOL    HW139928   2.088   1.944  10.377 -0.8248  0.4750 -0.8893
 7312SOL    HW239929   2.118   1.828  10.284 -0.8401  0.9020 -1.4301
 7313SOL     OW39930   6.116  11.438  13.237  0.2289 -0.2999  0.0986
 7313SOL    HW139931   6.202  11.471  13.262  1.6586 -2.2250 -1.8454
 7313SOL    HW239932   6.086  11.388  13.312  1.5733 -0.9219  0.2481
 7314SOL     OW39933  10.867   2.231   8.941 -0.5688  0.4059  0.1761
 7314SOL    HW139934  10.778   2.251   8.911 -0.5236  1.8682  0.9480
 7314SOL    HW239935  10.922   2.251   8.865 -0.7976  0.5925  0.0546
 7315SOL     OW39936  10.368   0.510  13.584  0.3407 -0.1179  0.1720
 7315SOL    HW139937  10.451   0.473  13.614  1.1876  0.7895 -0.9797
 7315SOL    HW239938  10.320   0.531  13.664  0.5824 -1.9934  0.8518
 7316SOL     OW39939   2.079   7.213   9.925 -0.3389  0.1350  0.1588
 7316SOL    HW139940   1.986   7.233   9.918 -0.2807  1.0378  1.5436
 7316SOL    HW239941   2.112   7.219   9.836 -1.4681  0.5517 -0.2443
 7317SOL     OW39942   5.342  13.259  11.007 -0.0686 -0.0297 -0.1805
 7317SOL    HW139943   5.341  13.263  11.103  0.9465  0.5221 -0.1706
 7317SOL    HW239944   5.429  13.291  10.983  0.6662 -2.5214 -1.1871
 7318SOL     OW39945   3.419   7.677  10.451 -0.1183 -0.4247 -0.4509
 7318SOL    HW139946   3.481   7.649  10.383  1.0614  1.8187 -0.4016
 7318SOL    HW239947   3.333   7.668  10.410  0.5930  2.3645 -3.0093
 7319SOL     OW39948   9.382   2.920   8.367 -0.1912 -0.0823 -0.2982
 7319SOL    HW139949   9.436   2.999   8.372 -0.6263  0.1526  1.0583
 7319SOL    HW239950   9.390   2.891   8.276 -0.0626  1.5379 -0.8277
 7320SOL     OW39951  13.733   4.041   8.913  0.0788  0.0092  0.5551
 7320SOL    HW139952  13.747   4.074   9.001 -0.5220 -0.5218  0.8628
 7320SOL    HW239953  13.650   3.993   8.919 -0.0461  0.1070 -0.3341
 7321SOL     OW39954   9.489   5.680   1.267 -0.1245 -0.1705  0.2930
 7321SOL    HW139955   9.420   5.614   1.271  0.5315 -0.9654 -0.9952
 7321SOL    HW239956   9.442   5.762   1.247 -0.7065 -0.7293 -0.7366
 7322SOL     OW39957  13.486   9.926  13.378 -0.1563  0.5313  0.1165
 7322SOL    HW139958  13.506   9.919  13.284  0.2604 -1.0058  0.2963
 7322SOL    HW239959  13.395   9.954  13.381 -0.2582  0.3240 -0.7622
 7323SOL     OW39960   2.879   7.919   8.495 -0.3630 -0.9767  0.0742
 7323SOL    HW139961   2.901   7.842   8.549  0.2125  0.2692  1.6809
 7323SOL    HW239962   2.800   7.955   8.535 -0.1497 -0.2563 -0.1393
 7324SOL     OW39963   4.617   0.123   9.810 -0.0206 -0.1866  0.1088
 7324SOL    HW139964   4.558   0.193   9.838 -0.1831 -0.0643 -0.5273
 7324SOL    HW239965   4.648   0.084   9.891  1.6350  1.9221  0.6158
 7325SOL     OW39966  11.533   5.913  11.853  0.4948  0.2019 -0.4315
 7325SOL    HW139967  11.468   5.844  11.847  1.8870 -1.4142  1.7158
 7325SOL    HW239968  11.617   5.868  11.863  1.6253  2.1947 -0.2049
 7326SOL     OW39969   2.428   3.423  11.263 -0.2723  0.2971  0.0681
 7326SOL    HW139970   2.503   3.425  11.203  0.9615  0.3850  1.5581
 7326SOL    HW239971   2.378   3.502  11.241 -1.4552 -1.0951 -2.7441
 7327SOL     OW39972   9.216   0.287   5.982 -0.1983  0.2966 -0.0297
 7327SOL    HW139973   9.271   0.299   6.059  0.6920  0.2556 -0.6460
 7327SOL    HW239974   9.242   0.202   5.947  1.2506  1.3981 -1.7995
 7328SOL     OW39975   1.081  12.412  11.533  0.4918  1.0016  0.4967
 7328SOL    HW139976   1.013  12.437  11.470  0.6268  0.1455 -0.0072
 7328SOL    HW239977   1.149  12.479  11.523 -0.0686  1.6059  0.6796
 7329SOL     OW39978   7.638   7.737   0.996 -0.0338 -0.3731  0.4416
 7329SOL    HW139979   7.577   7.734   1.069 -0.9543 -0.3228 -0.2959
 7329SOL    HW239980   7.719   7.700   1.029 -0.6763 -1.0743  1.2513
 7330SOL     OW39981   4.331   7.563   0.516  0.2373  0.0119  0.0444
 7330SOL    HW139982   4.426   7.559   0.508  0.2957 -0.0094  0.7154
 7330SOL    HW239983   4.301   7.478   0.482  0.5127 -0.2920  0.5448
 7331SOL     OW39984   3.493   6.865  10.926 -0.0052 -0.0763 -0.0834
 7331SOL    HW139985   3.466   6.821  11.006  0.0261 -1.5445 -0.8430
 7331SOL    HW239986   3.413   6.871  10.873  0.2466 -0.4194 -0.5140
 7332SOL     OW39987   6.570   9.191   8.056  0.6138 -0.5529  0.4123
 7332SOL    HW139988   6.491   9.176   8.108  0.4242  2.6424  1.2697
 7332SOL    HW239989   6.538   9.203   7.966  0.2807 -0.5888  0.5255
 7333SOL     OW39990   8.808   4.128  12.455  0.1419 -0.0089 -0.2632
 7333SOL    HW139991   8.875   4.191  12.428 -1.3299  1.0483 -1.6225
 7333SOL    HW239992   8.851   4.043  12.447  1.1733  0.5996 -1.5826
 7334SOL     OW39993   5.997   9.836   5.395  0.0685  0.5901 -0.1382
 7334SOL    HW139994   5.964   9.921   5.364 -1.7743 -0.6315 -1.8015
 7334SOL    HW239995   6.013   9.786   5.315  1.6554 -0.4807  0.7961
 7335SOL     OW39996  12.180  13.442   2.835  0.3043 -0.1462  0.0199
 7335SOL    HW139997  12.159  13.467   2.925  2.9998  1.5133  0.2968
 7335SOL    HW239998  12.239  13.368   2.844  0.7948  0.1933 -0.3716
 7336SOL     OW39999   5.600   1.501  12.764  0.1462  0.5634 -0.2762
 7336SOL    HW140000   5.682   1.489  12.717 -1.4333 -0.2505 -3.0008
 7336SOL    HW240001   5.601   1.434  12.833  0.6891 -1.1380 -1.8799
 7337SOL     OW40002  13.765  10.584   1.931  0.2274 -0.4322 -0.8085
 7337SOL    HW140003  13.729  10.575   2.019  3.2640  0.6614  0.6991
 7337SOL    HW240004  13.758  10.678   1.912 -0.5899 -0.6871 -1.8656
 7338SOL     OW40005  11.944  11.200   4.218  0.3932 -0.1172 -0.5660
 7338SOL    HW140006  11.924  11.281   4.170 -0.2252  0.3610  0.4667
 7338SOL    HW240007  12.037  11.207   4.238 -0.1127  1.5539  1.6247
 7339SOL     OW40008   1.029  13.700   8.483 -0.8940  0.0635 -0.6703
 7339SOL    HW140009   0.985  13.772   8.529 -0.8628 -0.7568  0.6829
 7339SOL    HW240010   0.963  13.631   8.478 -1.0948  0.3394 -2.4306
 7340SOL     OW40011   1.887   8.448   6.386 -0.1058 -0.5348 -0.6458
 7340SOL    HW140012   1.828   8.510   6.430 -1.8559 -1.2059 -1.9368
 7340SOL    HW240013   1.927   8.399   6.458  1.3820  2.0210  0.4312
 7341SOL     OW40014  12.541   9.133   0.352  0.3898  0.3180  0.3147
 7341SOL    HW140015  12.607   9.182   0.401  0.6390  1.0323 -0.7003
 7341SOL    HW240016  12.471   9.197   0.335  0.7396  0.3722 -1.0589
 7342SOL     OW40017   3.428  12.382  13.491 -0.0473 -0.3909 -0.0033
 7342SOL    HW140018   3.523  12.375  13.496 -0.0060 -0.8114 -1.1717
 7342SOL    HW240019   3.402  12.408  13.579  0.9947 -1.9676  0.8310
 7343SOL     OW40020   0.883   1.298   8.993  0.0879  0.2001 -0.0918
 7343SOL    HW140021   0.865   1.291   8.899  0.4763 -2.6939 -0.0457
 7343SOL    HW240022   0.910   1.389   9.006 -2.0367  1.2663 -2.3650
 7344SOL     OW40023   5.372   6.367   6.482  0.1216  0.1928 -0.0634
 7344SOL    HW140024   5.348   6.309   6.554 -0.0500  1.3643  0.8393
 7344SOL    HW240025   5.438   6.317   6.433 -0.9353 -1.2717 -0.0629
 7345SOL     OW40026  10.642   4.875   3.245  0.3660 -0.2416  0.2212
 7345SOL    HW140027  10.691   4.894   3.165 -0.0639 -1.0464 -0.2423
 7345SOL    HW240028  10.695   4.809   3.290  1.3555  1.2571  1.3453
 7346SOL     OW40029   3.339   0.984   1.364  0.0552 -0.2401 -0.3410
 7346SOL    HW140030   3.314   1.044   1.294  0.7127  1.1539  0.5555
 7346SOL    HW240031   3.278   1.005   1.436  1.0868  0.2652  0.4125
 7347SOL     OW40032   1.105   9.306   4.686  0.2584  0.0390 -0.1266
 7347SOL    HW140033   1.191   9.294   4.645  0.2532  0.5437 -0.2930
 7347SOL    HW240034   1.101   9.238   4.753  0.5293 -0.3866 -0.5362
 7348SOL     OW40035  11.924  12.751  12.939  0.4596 -0.4961 -0.4373
 7348SOL    HW140036  11.966  12.778  13.021 -0.4023 -0.7660  0.1138
 7348SOL    HW240037  11.862  12.682  12.966  1.6320 -2.0720 -1.5887
 7349SOL     OW40038   5.792   2.839   3.552  0.1349  0.2808 -0.4565
 7349SOL    HW140039   5.764   2.824   3.642 -1.3072 -0.4188 -0.9998
 7349SOL    HW240040   5.775   2.756   3.507  2.9171 -0.1661 -0.9207
 7350SOL     OW40041   0.020  12.746   4.156  0.5500  0.5056  0.2183
 7350SOL    HW140042   0.003  12.800   4.079  2.3961 -0.1086 -0.6933
 7350SOL    HW240043  -0.037  12.782   4.224 -0.4980  1.6195 -1.1891
 7351SOL     OW40044  13.417   7.205  10.328  0.0551 -0.2925  0.1276
 7351SOL    HW140045  13.327   7.239  10.330  0.6813  1.4954 -0.2697
 7351SOL    HW240046  13.448   7.215  10.418 -0.3096 -1.4453  0.3951
 7352SOL     OW40047   1.556   5.719   5.841  0.0565  0.6667  0.1278
 7352SOL    HW140048   1.517   5.778   5.905  1.8199  1.4654  0.5228
 7352SOL    HW240049   1.534   5.757   5.756 -0.0721  1.0622  0.3364
 7353SOL     OW40050   1.945  10.501  11.145 -0.5770 -0.2273  0.6431
 7353SOL    HW140051   1.869  10.465  11.190 -2.0933  0.6009 -1.0861
 7353SOL    HW240052   1.960  10.440  11.072  0.0202 -0.0623  0.6272
 7354SOL     OW40053   9.930   9.571  10.616  0.4371 -0.2393  0.0217
 7354SOL    HW140054   9.924   9.497  10.556 -0.0990 -0.6985  0.6277
 7354SOL    HW240055   9.842   9.609  10.615 -0.3033 -1.7084  2.3189
 7355SOL     OW40056   5.157   3.571   0.054 -0.2645  0.0925 -0.0247
 7355SOL    HW140057   5.106   3.555   0.134 -0.5180  2.5920  0.4116
 7355SOL    HW240058   5.104   3.635   0.005  0.2391 -0.8433 -1.8613
 7356SOL     OW40059  11.078   2.662   6.257 -0.3867 -0.2580 -0.4932
 7356SOL    HW140060  11.126   2.679   6.176 -0.3021 -1.1851 -0.6579
 7356SOL    HW240061  10.988   2.687   6.238 -0.2023  0.3401 -0.5868
 7357SOL     OW40062   4.354   1.245  13.208  0.0384  0.0946  0.2427
 7357SOL    HW140063   4.379   1.322  13.156 -1.0268 -0.3001 -0.8987
 7357SOL    HW240064   4.311   1.282  13.285  1.0729  0.6794  0.5511
 7358SOL     OW40065  12.963   2.260   7.412 -0.4489  0.1106 -0.2484
 7358SOL    HW140066  12.887   2.311   7.442 -0.0894  1.1783 -1.1266
 7358SOL    HW240067  13.029   2.275   7.479 -0.5814  0.2087 -0.1372
 7359SOL     OW40068  12.378   3.478   8.970 -0.0546  0.5514 -0.6452
 7359SOL    HW140069  12.354   3.454   8.881  3.3421  1.5152 -1.9465
 7359SOL    HW240070  12.441   3.411   8.997 -1.0585  0.2320  1.1312
 7360SOL     OW40071   3.554   8.736   8.991  0.2944  0.3360  0.1397
 7360SOL    HW140072   3.645   8.707   8.998  0.8688  1.8982 -0.5047
 7360SOL    HW240073   3.503   8.657   9.010  1.7676 -0.8031 -0.3984
 7361SOL     OW40074   9.571  13.460  11.032  0.1729  0.3335 -0.7558
 7361SOL    HW140075   9.558  13.386  11.092  1.7111 -1.1347 -2.1241
 7361SOL    HW240076   9.581  13.536  11.089  1.4329 -0.9752  0.8688
 7362SOL     OW40077   2.666  12.101  10.385 -0.0032  0.3023 -0.5807
 7362SOL    HW140078   2.621  12.186  10.383 -0.8765 -0.0467  1.4001
 7362SOL    HW240079   2.701  12.095  10.474  0.8436 -1.0408 -0.9752
 7363SOL     OW40080  13.480   8.688   9.147  0.1217  0.2835 -0.0631
 7363SOL    HW140081  13.405   8.641   9.183 -1.1101  1.0144 -1.5559
 7363SOL    HW240082  13.503   8.751   9.216  0.5864 -1.1607  1.1640
 7364SOL     OW40083  13.182   1.043   4.620  0.3752 -0.4507 -0.1382
 7364SOL    HW140084  13.177   0.947   4.624  0.2901 -0.4921 -0.9611
 7364SOL    HW240085  13.173   1.063   4.527  0.8756  0.3336 -0.0270
 7365SOL     OW40086   7.653  13.990   9.843  0.3568  0.2518  0.3226
 7365SOL    HW140087   7.714  14.059   9.818 -0.4723  0.9840  0.2872
 7365SOL    HW240088   7.567  14.032   9.844 -0.0150 -0.4812  1.4897
 7366SOL     OW40089  12.444   0.259   7.807 -0.5760  0.1020 -0.4135
 7366SOL    HW140090  12.394   0.341   7.804 -0.0690  0.4415  0.1361
 7366SOL    HW240091  12.510   0.274   7.875  0.0315 -0.4761 -0.8649
 7367SOL     OW40092   9.504   6.028   5.368 -0.1764  0.2158  0.2899
 7367SOL    HW140093   9.489   6.073   5.451  1.7242  0.9024  0.2944
 7367SOL    HW240094   9.429   6.053   5.313 -0.3126  1.5410  1.0515
 7368SOL     OW40095   1.847  12.336   8.474  0.0066  0.3956 -0.3761
 7368SOL    HW140096   1.905  12.334   8.398 -0.3441 -1.7177 -0.6487
 7368SOL    HW240097   1.785  12.406   8.455  0.8717  0.9261 -1.3179
 7369SOL     OW40098  14.071   1.667   6.542  0.7682  0.5938 -0.2235
 7369SOL    HW140099  14.073   1.637   6.632 -3.7856  0.0598 -0.0545
 7369SOL    HW240100  14.037   1.757   6.547 -0.0926  0.3658 -1.3871
 7370SOL     OW40101  11.408   0.941   2.868  0.2530 -0.2687  0.2490
 7370SOL    HW140102  11.332   0.948   2.811  1.0307 -1.3811 -0.9867
 7370SOL    HW240103  11.471   1.003   2.832  0.6743 -0.8294  0.0063
 7371SOL     OW40104   2.777   0.131  11.539  0.3717 -0.3517 -0.1123
 7371SOL    HW140105   2.826   0.049  11.532  1.6144  0.1389  1.8820
 7371SOL    HW240106   2.842   0.194  11.570 -0.5479  1.4141 -1.6362
 7372SOL     OW40107   1.877   8.207   0.061  0.0260 -0.3223 -0.0532
 7372SOL    HW140108   1.794   8.162   0.078  0.2473 -0.0626  1.9459
 7372SOL    HW240109   1.852   8.281   0.006 -0.8603 -0.9750 -0.5671
 7373SOL     OW40110   7.280  14.096  13.032 -0.5945  0.0124  0.5563
 7373SOL    HW140111   7.353  14.038  13.055 -1.2623 -1.4694 -0.8533
 7373SOL    HW240112   7.306  14.134  12.948 -0.2509  1.6820  1.3759
 7374SOL     OW40113   8.259   3.155   3.386 -0.4900  0.1242  0.3817
 7374SOL    HW140114   8.197   3.094   3.346  0.6740 -1.6986  1.1951
 7374SOL    HW240115   8.327   3.167   3.320 -1.2337  1.4245 -0.1768
 7375SOL     OW40116   3.324  13.395  13.049 -0.2800 -0.0555  0.6601
 7375SOL    HW140117   3.390  13.332  13.022 -0.2405  0.0988  0.3910
 7375SOL    HW240118   3.351  13.478  13.008 -0.2898  0.1543  1.0686
 7376SOL     OW40119   9.327  12.845   9.892 -0.3569  0.0727 -0.4511
 7376SOL    HW140120   9.374  12.823   9.811 -1.2169  0.7782 -1.1754
 7376SOL    HW240121   9.246  12.886   9.861 -0.5710  0.6201  0.7871
 7377SOL     OW40122   8.388   4.646  12.499 -0.3828  0.1500 -0.4391
 7377SOL    HW140123   8.346   4.669  12.416 -2.6408 -0.3805  0.5109
 7377SOL    HW240124   8.408   4.553  12.490 -1.5815 -0.1560 -0.0070
 7378SOL     OW40125  10.051   7.795   0.150  0.0065 -0.0167  0.2892
 7378SOL    HW140126  10.098   7.730   0.203  0.8540 -0.4749 -0.9854
 7378SOL    HW240127   9.994   7.840   0.213  2.6524  1.0937  2.1080
 7379SOL     OW40128   0.180   9.206   9.422  0.1469  0.3805  0.1616
 7379SOL    HW140129   0.211   9.129   9.469  1.8188  0.3756 -0.8629
 7379SOL    HW240130   0.250   9.271   9.434 -0.6563  1.3129 -0.0504
 7380SOL     OW40131   8.672  11.798   4.750  0.4560  0.3086 -0.3523
 7380SOL    HW140132   8.767  11.791   4.749  0.4537 -0.8641  1.7824
 7380SOL    HW240133   8.648  11.787   4.841 -1.8936 -2.1190 -1.1349
 7381SOL     OW40134   4.420   9.393  12.533  0.4118 -0.0049 -0.5110
 7381SOL    HW140135   4.477   9.432  12.466 -0.8621 -0.6804 -2.0538
 7381SOL    HW240136   4.439   9.299  12.529  0.5835 -0.0191  0.3670
 7382SOL     OW40137  10.487  11.597   5.323 -0.2350 -0.3223 -0.4574
 7382SOL    HW140138  10.493  11.517   5.272 -1.0005 -0.6442 -0.0554
 7382SOL    HW240139  10.395  11.623   5.318 -0.6807 -1.1656  1.9066
 7383SOL     OW40140   4.511  13.251   5.454 -0.4356 -0.0497  0.4328
 7383SOL    HW140141   4.495  13.194   5.378  2.7280  0.1227 -0.4820
 7383SOL    HW240142   4.567  13.199   5.512 -1.2245  0.5409  1.7944
 7384SOL     OW40143  10.552   0.422  12.784  0.1121 -0.6466 -0.2541
 7384SOL    HW140144  10.531   0.365  12.710 -0.5852  0.1027 -0.6533
 7384SOL    HW240145  10.473   0.420  12.838  0.6526 -1.2633  0.5309
 7385SOL     OW40146   0.380   0.698   4.292  0.0242 -0.3595  1.0659
 7385SOL    HW140147   0.462   0.699   4.341  1.3654 -5.5839 -0.4417
 7385SOL    HW240148   0.407   0.707   4.200 -1.1455 -1.2030  0.6120
 7386SOL     OW40149   0.508  12.763   7.225  0.2343 -0.1446 -0.5459
 7386SOL    HW140150   0.437  12.767   7.289  0.2800  0.9496 -0.5479
 7386SOL    HW240151   0.530  12.855   7.207  0.3594 -0.4275 -1.9795
 7387SOL     OW40152   1.908  11.027  12.426 -0.8366  0.3923 -0.0939
 7387SOL    HW140153   1.923  10.989  12.513  0.2503  2.1870  0.5457
 7387SOL    HW240154   1.856  10.960  12.380 -1.6835 -0.4977  1.9960
 7388SOL     OW40155   8.449   6.996  10.206  0.8287 -0.5099 -0.4673
 7388SOL    HW140156   8.418   6.923  10.152 -1.1472 -0.6688  0.7923
 7388SOL    HW240157   8.440   7.073  10.151 -1.4502 -0.6253 -0.3363
 7389SOL     OW40158   5.172   0.417   4.873  0.0974  0.5629 -0.0247
 7389SOL    HW140159   5.100   0.475   4.847 -1.1648 -0.0698  1.8264
 7389SOL    HW240160   5.153   0.335   4.826 -1.3986 -0.1321  1.6543
 7390SOL     OW40161   5.626   3.525  11.582 -0.2108 -0.4936 -0.8235
 7390SOL    HW140162   5.537   3.540  11.613 -0.1380  1.7206 -1.5264
 7390SOL    HW240163   5.668   3.478  11.654 -1.6928 -0.7966 -0.1170
 7391SOL     OW40164   6.060   9.751  13.192 -0.6031  0.5814 -0.3711
 7391SOL    HW140165   6.136   9.795  13.153  0.9885 -0.5819  1.2851
 7391SOL    HW240166   5.985   9.803  13.162  0.6416  0.9180 -3.3089
 7392SOL     OW40167   0.469   5.222   0.286  0.2883 -0.2670  0.2637
 7392SOL    HW140168   0.417   5.186   0.358  0.9642  2.0195  1.9942
 7392SOL    HW240169   0.414   5.291   0.249  0.1709 -1.0594 -1.1219
 7393SOL     OW40170   1.108  11.754   8.679 -0.3614  0.2038 -0.0735
 7393SOL    HW140171   1.143  11.717   8.760 -2.6834  0.9027  1.3368
 7393SOL    HW240172   1.156  11.835   8.667  1.1374 -0.6768 -0.3517
 7394SOL     OW40173  10.802   5.990   1.388  0.8382 -0.0303  0.1366
 7394SOL    HW140174  10.800   6.029   1.475 -0.7143 -4.0010  2.1177
 7394SOL    HW240175  10.742   6.044   1.336 -1.3793  0.2277  2.7256
 7395SOL     OW40176   2.932   1.145  11.954  0.1759  0.2003 -0.1702
 7395SOL    HW140177   2.906   1.133  11.862 -1.2533 -0.5057  0.2903
 7395SOL    HW240178   2.864   1.099  12.004  1.8012 -0.8760  1.1837
 7396SOL     OW40179   3.273  12.673   6.832 -0.6505  1.0696  0.0582
 7396SOL    HW140180   3.302  12.755   6.872  0.1211  0.0155  1.7726
 7396SOL    HW240181   3.343  12.611   6.852 -1.1258  0.0327 -1.3847
 7397SOL     OW40182   9.595  10.625   2.345  0.4500 -0.2634 -0.2493
 7397SOL    HW140183   9.627  10.631   2.435 -0.1480 -0.8703  0.0082
 7397SOL    HW240184   9.531  10.696   2.337  0.4366 -0.2674 -0.1723
 7398SOL     OW40185   5.890   4.608   5.146  0.2504 -0.2392  0.6994
 7398SOL    HW140186   5.942   4.683   5.176  0.7478 -0.2696 -0.0591
 7398SOL    HW240187   5.923   4.590   5.058 -1.0954 -0.2391  0.1762
 7399SOL     OW40188  13.573  10.426   9.887  0.6621 -0.5654 -0.1753
 7399SOL    HW140189  13.650  10.372   9.871  1.1672  0.0420  0.1897
 7399SOL    HW240190  13.504  10.386   9.834  1.2468 -1.0593 -0.5661
 7400SOL     OW40191  12.969   4.964   2.932 -0.3747  0.2864 -0.4416
 7400SOL    HW140192  12.997   4.876   2.908  0.4475  0.6918 -0.9963
 7400SOL    HW240193  12.939   4.955   3.023  0.6505 -0.3633 -0.1527
 7401SOL     OW40194  11.487   5.097  11.558 -0.1924 -0.0767  0.0703
 7401SOL    HW140195  11.453   5.178  11.597  0.6949  0.7589 -0.8417
 7401SOL    HW240196  11.420   5.070  11.496 -0.8019 -0.4358  0.8617
 7402SOL     OW40197   6.151  12.280   5.580 -0.4044 -0.2951 -0.0345
 7402SOL    HW140198   6.174  12.241   5.495  0.7495 -0.8916  0.5238
 7402SOL    HW240199   6.057  12.294   5.575 -0.8918 -3.1012 -0.3230
 7403SOL     OW40200   4.712   8.971   8.563  1.0623 -0.1376  1.0326
 7403SOL    HW140201   4.696   9.064   8.544  2.3154  0.2438  1.6792
 7403SOL    HW240202   4.802   8.969   8.596  0.7950 -1.4865  1.7430
 7404SOL     OW40203  13.556  13.775   0.564  0.0449 -0.6686 -0.1728
 7404SOL    HW140204  13.587  13.793   0.475  2.6697 -0.2485  0.7232
 7404SOL    HW240205  13.467  13.742   0.553  0.1181 -0.1575 -2.8997
 7405SOL     OW40206   8.395   6.176   6.807  0.5860 -0.1364 -0.0138
 7405SOL    HW140207   8.346   6.221   6.739 -2.1355 -1.8781  0.6494
 7405SOL    HW240208   8.386   6.233   6.884 -0.3993 -0.4140  0.0883
 7406SOL     OW40209   5.304  10.411  13.739 -0.4752 -0.0740 -0.1543
 7406SOL    HW140210   5.307  10.369  13.825 -0.1850  0.0676 -0.0938
 7406SOL    HW240211   5.215  10.446  13.733  0.0626  1.6749  0.9410
 7407SOL     OW40212   1.727   8.375  10.432  0.3883 -0.2321 -0.0226
 7407SOL    HW140213   1.814   8.364  10.393 -0.4243  1.0211 -2.3968
 7407SOL    HW240214   1.683   8.291  10.417  0.3370 -0.0062 -1.1943
 7408SOL     OW40215   9.682   8.009  13.766  0.3112  0.4361  0.3942
 7408SOL    HW140216   9.599   8.014  13.717  0.3714 -0.8528  0.1391
 7408SOL    HW240217   9.672   7.932  13.822  0.9442  0.8804  1.1322
 7409SOL     OW40218  13.927   3.112   4.600 -0.3340  0.3283  0.6751
 7409SOL    HW140219  13.870   3.035   4.596 -1.3279  1.0540  0.4800
 7409SOL    HW240220  13.966   3.117   4.513 -1.4456  0.8886  0.1813
 7410SOL     OW40221   3.980   4.371   7.333  0.0599 -0.0252  0.1398
 7410SOL    HW140222   3.944   4.455   7.360 -0.8783  0.1611 -1.5446
 7410SOL    HW240223   3.922   4.341   7.263  1.0990 -1.4798 -0.1537
 7411SOL     OW40224  11.696   5.465  11.256  0.0880  0.0178  0.3243
 7411SOL    HW140225  11.653   5.380  11.247  2.0172 -0.8493 -2.0876
 7411SOL    HW240226  11.677   5.510  11.174  2.1733  0.3187 -0.0595
 7412SOL     OW40227  12.608   8.845  13.588  0.2351  0.5875  0.3103
 7412SOL    HW140228  12.522   8.842  13.629  0.4853 -0.8293  0.7869
 7412SOL    HW240229  12.590   8.842  13.494 -0.2633  1.5010  0.3673
 7413SOL     OW40230   7.387   7.592   2.446 -0.3573 -0.3842  0.2267
 7413SOL    HW140231   7.408   7.504   2.413  0.9878  0.1753 -0.5240
 7413SOL    HW240232   7.317   7.623   2.388 -0.4685 -0.7552  0.1575
 7414SOL     OW40233  10.401   2.411   6.618 -0.0931  0.2488 -0.6982
 7414SOL    HW140234  10.359   2.419   6.532  2.4906  1.9341 -1.9170
 7414SOL    HW240235  10.463   2.338   6.607 -0.4246 -0.1574  0.0659
 7415SOL     OW40236  12.934   1.950   3.940 -0.5529  0.1857  0.6839
 7415SOL    HW140237  12.965   1.918   3.855  1.4026 -1.3721  1.8964
 7415SOL    HW240238  12.932   2.045   3.930 -0.8254  0.0106 -1.2474
 7416SOL     OW40239   4.397   3.808  13.760 -0.2467 -0.1375 -0.1150
 7416SOL    HW140240   4.391   3.900  13.785 -1.3163 -0.7227  2.0495
 7416SOL    HW240241   4.321   3.767  13.800  0.5971 -2.1033 -0.3911
 7417SOL     OW40242   1.248   5.638   8.876 -0.0183  0.3386  0.0811
 7417SOL    HW140243   1.259   5.714   8.933 -0.8610 -0.8025  1.8338
 7417SOL    HW240244   1.161   5.650   8.837  0.0770  0.5455 -0.0672
 7418SOL     OW40245   1.199   7.853   5.558  0.4008  0.1677  0.2074
 7418SOL    HW140246   1.212   7.897   5.473  0.7502 -0.4632 -0.0705
 7418SOL    HW240247   1.169   7.765   5.535  1.4125 -0.3192  0.7141
 7419SOL     OW40248   1.257  11.932   9.266  0.1135  0.4415  0.6062
 7419SOL    HW140249   1.228  11.840   9.264 -2.6284  1.2098 -0.7612
 7419SOL    HW240250   1.228  11.964   9.351  0.7690  0.1568  0.9462
 7420SOL     OW40251   4.382   5.243   3.691 -0.2903  0.1608  0.9278
 7420SOL    HW140252   4.363   5.153   3.665 -2.4136  0.5424  1.0441
 7420SOL    HW240253   4.476   5.242   3.713 -0.1769 -1.9035  0.5367
 7421SOL     OW40254   4.191   0.945  13.504  0.4624 -0.5314 -0.0138
 7421SOL    HW140255   4.258   0.897  13.553  0.3531 -1.4536 -0.7222
 7421SOL    HW240256   4.240   0.997  13.441  0.5499 -2.8338 -2.0144
 7422SOL     OW40257   9.141   7.850  12.189  0.0518 -0.0948 -1.2758
 7422SOL    HW140258   9.083   7.826  12.117 -0.3238 -0.3363 -0.8992
 7422SOL    HW240259   9.131   7.944  12.198 -1.9730 -0.3805  0.1886
 7423SOL     OW40260  10.667  13.438  10.851 -0.3573  0.4047 -1.1157
 7423SOL    HW140261  10.723  13.460  10.925  0.6604 -0.6268 -1.5442
 7423SOL    HW240262  10.700  13.353  10.820 -0.8731  0.7205 -2.6351
 7424SOL     OW40263   8.357  11.284   4.270 -0.3091  0.0035  0.2142
 7424SOL    HW140264   8.371  11.204   4.321  2.5432  0.3010  0.0431
 7424SOL    HW240265   8.262  11.297   4.272 -0.7310 -2.5956  1.4139
 7425SOL     OW40266  10.460   8.214  13.673  0.1689 -0.0401  0.6643
 7425SOL    HW140267  10.489   8.216  13.764 -0.3057 -0.5646  0.8309
 7425SOL    HW240268  10.413   8.296  13.661 -1.5385 -0.8552  1.5018
 7426SOL     OW40269   2.655   3.926   8.486 -0.0726  0.1198  0.2055
 7426SOL    HW140270   2.652   4.018   8.510 -3.1717 -0.1189  1.2627
 7426SOL    HW240271   2.694   3.882   8.562 -1.1115  0.3377  0.8933
 7427SOL     OW40272  13.050  10.934  11.866 -0.4746  0.1191 -0.1025
 7427SOL    HW140273  13.105  10.861  11.836 -1.9158 -1.0320 -0.0420
 7427SOL    HW240274  13.056  10.930  11.962 -1.2070 -0.4677 -0.0716
 7428SOL     OW40275   2.032   2.931  13.387 -0.8763 -0.3895  0.0680
 7428SOL    HW140276   1.968   2.930  13.315 -1.2981 -1.2560  0.4331
 7428SOL    HW240277   2.117   2.929  13.344 -1.1253 -0.8696 -0.4113
 7429SOL     OW40278   3.522  13.335  10.643  0.4920 -0.1342  0.2412
 7429SOL    HW140279   3.445  13.308  10.594  1.4530  0.5849 -1.8152
 7429SOL    HW240280   3.489  13.365  10.727 -1.1758 -2.1357  0.3551
 7430SOL     OW40281   0.881  12.071   7.266 -0.0377  0.0818 -0.5150
 7430SOL    HW140282   0.838  11.990   7.295  1.2392  0.0688  1.4805
 7430SOL    HW240283   0.917  12.049   7.180  1.0088 -1.7786  0.3363
 7431SOL     OW40284   3.847   1.361   1.661 -0.1484 -0.1881  0.0547
 7431SOL    HW140285   3.891   1.287   1.619  1.5698  1.5338 -1.3930
 7431SOL    HW240286   3.874   1.437   1.609  0.6982  1.8957  3.2528
 7432SOL     OW40287   0.935   3.487   6.372  0.3182  0.3922  0.2719
 7432SOL    HW140288   1.006   3.495   6.436 -0.9728 -2.3995  2.2545
 7432SOL    HW240289   0.897   3.574   6.368  1.3022  0.9842  2.3056
 7433SOL     OW40290   9.500   4.483  12.520 -0.1336  0.0759 -0.3927
 7433SOL    HW140291   9.421   4.535  12.537  0.8359  1.7017 -0.7085
 7433SOL    HW240292   9.561   4.544  12.479  0.7825 -1.5205 -1.5213
 7434SOL     OW40293   7.274   9.800   2.529  0.0604 -0.1401 -0.1206
 7434SOL    HW140294   7.314   9.719   2.560  1.1212 -0.2408 -1.6368
 7434SOL    HW240295   7.341   9.867   2.543 -0.4444  0.3032  0.2173
 7435SOL     OW40296  13.428   1.000   2.605 -0.0895  0.6587  0.7922
 7435SOL    HW140297  13.349   0.947   2.597 -0.0100  0.8483 -2.7338
 7435SOL    HW240298  13.499   0.940   2.583  0.2963  1.4513 -0.2056
 7436SOL     OW40299   0.165   3.847   9.030  0.3335  0.4297 -0.5281
 7436SOL    HW140300   0.175   3.868   9.123 -1.6363 -1.6326  0.2113
 7436SOL    HW240301   0.174   3.752   9.025 -2.1617  0.2009 -2.0277
 7437SOL     OW40302  12.195   5.007   0.469 -0.9080 -0.4125  0.3226
 7437SOL    HW140303  12.226   5.091   0.503 -0.9794  0.4124 -1.5684
 7437SOL    HW240304  12.103   5.022   0.447 -0.6888 -0.7070 -0.8534
 7438SOL     OW40305   1.323   1.446   1.333  0.1415 -0.6094  0.2347
 7438SOL    HW140306   1.359   1.483   1.414  1.0770 -1.9063  0.4570
 7438SOL    HW240307   1.279   1.366   1.362 -0.1519 -0.6988 -0.4538
 7439SOL     OW40308   5.394  12.488   9.903  0.2751 -0.0555 -0.0550
 7439SOL    HW140309   5.317  12.433   9.909  0.9828 -0.9468  1.2277
 7439SOL    HW240310   5.466  12.428   9.883  0.9723  0.4642  0.8065
 7440SOL     OW40311   8.628   1.664   6.714 -0.0490 -0.2122 -0.4278
 7440SOL    HW140312   8.604   1.638   6.802 -0.4723  1.0369 -0.1635
 7440SOL    HW240313   8.722   1.685   6.719 -0.6021  2.3863  0.3841
 7441SOL     OW40314  13.160   3.435   3.359 -0.0885  0.2887  0.7568
 7441SOL    HW140315  13.179   3.342   3.371  0.4416 -0.2455 -2.9011
 7441SOL    HW240316  13.066   3.439   3.345  0.2430 -0.3507 -2.4513
 7442SOL     OW40317   0.666   1.339  12.141 -0.2649 -0.9096  0.0412
 7442SOL    HW140318   0.609   1.412  12.116  1.9213  0.9558  0.0909
 7442SOL    HW240319   0.693   1.299  12.059  1.0317  0.4443 -0.2358
 7443SOL     OW40320  11.007  12.387   9.812 -0.0929  0.0324 -0.5565
 7443SOL    HW140321  10.921  12.365   9.777  0.1865 -1.7202 -0.2324
 7443SOL    HW240322  11.054  12.304   9.815  1.0404  0.6761  0.8453
 7444SOL     OW40323  10.940  13.929  11.249 -0.4218  0.0587  0.6859
 7444SOL    HW140324  10.956  13.835  11.264  0.3232  0.0759  0.0517
 7444SOL    HW240325  10.951  13.969  11.335 -1.0167 -0.4669  1.0180
 7445SOL     OW40326   5.643  10.193   9.547 -0.4391 -0.0465 -0.4702
 7445SOL    HW140327   5.639  10.175   9.641 -1.9721  0.7927 -0.3537
 7445SOL    HW240328   5.735  10.182   9.525 -0.3314 -2.0886  0.7531
 7446SOL     OW40329  10.619  13.893   3.842  0.1230 -0.0891  0.2549
 7446SOL    HW140330  10.602  13.937   3.759 -1.9780 -0.0198  0.6601
 7446SOL    HW240331  10.684  13.947   3.886  0.5780  0.3659 -0.9481
 7447SOL     OW40332  10.544  12.934   8.099  0.0204  0.3882 -0.9588
 7447SOL    HW140333  10.471  12.944   8.160  0.7238  3.2689 -0.4750
 7447SOL    HW240334  10.504  12.946   8.013 -0.2644  0.8138 -0.7725
 7448SOL     OW40335   9.753  10.457  10.915 -0.4619 -0.1866  0.1226
 7448SOL    HW140336   9.735  10.522  10.846 -1.0757 -1.4471 -0.9580
 7448SOL    HW240337   9.678  10.464  10.974 -0.6657 -0.0941 -0.1405
 7449SOL     OW40338   8.845   2.820   6.850  0.0816 -0.5287 -0.0579
 7449SOL    HW140339   8.875   2.745   6.798 -1.3497 -0.5674 -0.8700
 7449SOL    HW240340   8.786   2.781   6.914  1.0424 -0.3448  0.9770
 7450SOL     OW40341   5.145  12.411   0.762  0.8591  0.1003  0.2283
 7450SOL    HW140342   5.203  12.407   0.685  1.0115 -0.1726  0.3548
 7450SOL    HW240343   5.205  12.423   0.836  0.5987  2.6876  0.1149
 7451SOL     OW40344   2.829  12.157   6.829  0.1892  0.1722 -0.2929
 7451SOL    HW140345   2.907  12.156   6.884  0.7251  1.1773 -1.0076
 7451SOL    HW240346   2.764  12.106   6.879  0.1976  2.1367  1.9435
 7452SOL     OW40347   1.306   0.202   3.632  0.2510 -0.3878 -0.0498
 7452SOL    HW140348   1.317   0.121   3.582  1.8026 -0.6512  0.6682
 7452SOL    HW240349   1.394   0.238   3.641 -0.2086  0.5659  0.9867
 7453SOL     OW40350  13.420   0.507   5.763  0.5701  0.4406 -0.4257
 7453SOL    HW140351  13.460   0.592   5.744 -0.1417  0.6411 -1.0634
 7453SOL    HW240352  13.414   0.505   5.859  0.9781  0.9217 -0.3828
 7454SOL     OW40353   5.176   8.716   9.769  0.4587 -0.2268 -0.2963
 7454SOL    HW140354   5.262   8.692   9.734  1.1439  0.2056  1.0165
 7454SOL    HW240355   5.159   8.803   9.734 -0.1790 -0.9077 -1.7888
 7455SOL     OW40356   3.509  10.919   0.015  0.3951 -0.0824 -0.1760
 7455SOL    HW140357   3.475  10.967  -0.061  5.5969  0.6421 -2.4721
 7455SOL    HW240358   3.504  10.827  -0.010 -1.3045 -0.1986  0.3904
 7456SOL     OW40359   7.071   7.412   7.152  0.4823 -0.6158  0.0443
 7456SOL    HW140360   7.038   7.434   7.239  0.6820 -1.0866  0.2427
 7456SOL    HW240361   6.999   7.367   7.109  0.2995 -0.1677 -0.1249
 7457SOL     OW40362  10.791  12.194  10.149 -0.6217 -0.3058 -0.2945
 7457SOL    HW140363  10.733  12.149  10.211  0.6883 -0.5640  0.8053
 7457SOL    HW240364  10.877  12.153  10.163 -0.2307 -0.2012 -2.1360
 7458SOL     OW40365  12.624  13.196  12.739  0.4491 -0.2300 -0.2209
 7458SOL    HW140366  12.567  13.137  12.788 -0.3198 -0.6057 -1.5203
 7458SOL    HW240367  12.712  13.160  12.752  0.2237 -0.5311  0.5624
 7459SOL     OW40368   3.547   5.601  12.906  0.1274 -0.2548 -0.5574
 7459SOL    HW140369   3.496   5.657  12.964 -0.5283 -0.6092 -0.7830
 7459SOL    HW240370   3.496   5.598  12.825  0.6267 -0.4217 -0.8722
 7460SOL     OW40371   3.323   3.384  12.413 -0.3945 -0.0518  0.5778
 7460SOL    HW140372   3.234   3.349  12.427  0.1841 -1.8946 -0.0265
 7460SOL    HW240373   3.338   3.373  12.319  1.6869 -3.0629  1.1221
 7461SOL     OW40374   1.260   5.044  11.052 -0.0484 -0.0470 -0.3489
 7461SOL    HW140375   1.294   4.956  11.040  2.8264  0.8977  0.0171
 7461SOL    HW240376   1.324   5.101  11.008 -2.1080  1.8561 -1.1037
 7462SOL     OW40377  12.320   9.109  13.928  0.3723 -0.0591  0.6308
 7462SOL    HW140378  12.392   9.162  13.894 -1.6459  3.1076  0.9340
 7462SOL    HW240379  12.244   9.135  13.876 -1.2815 -0.5999  2.6471
 7463SOL     OW40380   4.408   4.486   1.875 -0.4602  0.5317 -0.3814
 7463SOL    HW140381   4.443   4.572   1.854  0.6485  0.0192 -0.6585
 7463SOL    HW240382   4.426   4.432   1.798  1.1215 -0.6080  0.7181
 7464SOL     OW40383  12.818   9.760   5.850  0.2884  0.5671  0.1742
 7464SOL    HW140384  12.823   9.766   5.755  0.8786  0.7233  0.2043
 7464SOL    HW240385  12.729   9.731   5.869  0.0789  0.8202 -0.4128
 7465SOL     OW40386   5.561  10.513   1.721  0.1485 -0.3325  0.2140
 7465SOL    HW140387   5.534  10.426   1.689  0.8296 -0.2186 -0.6934
 7465SOL    HW240388   5.656  10.514   1.710 -0.0235  1.1485 -1.3572
 7466SOL     OW40389   8.964  12.124   9.027  0.1797  0.0844  0.2690
 7466SOL    HW140390   9.004  12.102   9.111  0.5847 -2.4453 -0.4989
 7466SOL    HW240391   9.032  12.105   8.962 -0.9014 -0.2994 -0.7915
 7467SOL     OW40392  10.276   4.529   2.400 -0.0472  0.0515 -0.2876
 7467SOL    HW140393  10.251   4.610   2.356 -0.7070 -0.6390 -1.2114
 7467SOL    HW240394  10.227   4.530   2.482 -0.3063  0.4234 -0.4452
 7468SOL     OW40395   3.601   6.029   2.292  0.4139 -0.2868  0.0167
 7468SOL    HW140396   3.650   5.947   2.300  1.0197 -0.0453 -1.0825
 7468SOL    HW240397   3.518   6.004   2.251  0.5307 -0.3663 -0.1680
 7469SOL     OW40398   8.294   4.346   5.474 -0.1383  0.2543 -0.0890
 7469SOL    HW140399   8.244   4.420   5.439 -1.4614 -0.3354  0.4691
 7469SOL    HW240400   8.355   4.385   5.536 -2.1799  0.7647  1.7168
 7470SOL     OW40401   9.275   8.408   6.137 -0.1011  0.6235 -0.2835
 7470SOL    HW140402   9.352   8.454   6.104 -0.3010  0.1620 -1.4598
 7470SOL    HW240403   9.310   8.336   6.189  0.3462 -0.5450 -2.1066
 7471SOL     OW40404   5.154   7.800  13.542 -0.1214  0.0376 -0.1561
 7471SOL    HW140405   5.091   7.842  13.599  0.1471 -1.3471  1.2209
 7471SOL    HW240406   5.238   7.807  13.588 -0.2075 -2.7518  0.6422
 7472SOL     OW40407   7.777   5.735   7.743 -0.7143  0.8341  0.3578
 7472SOL    HW140408   7.704   5.767   7.691  0.6919  2.3595 -0.7674
 7472SOL    HW240409   7.753   5.754   7.833 -1.8057  1.0454  0.0360
 7473SOL     OW40410  12.998   5.426   4.590 -0.2641  0.0839  0.1753
 7473SOL    HW140411  12.952   5.479   4.526 -0.2942  0.5034  0.5441
 7473SOL    HW240412  12.930   5.395   4.649 -0.0360  1.0457  0.9651
 7474SOL     OW40413   5.694   4.115   2.801  0.0503 -0.2226 -0.0900
 7474SOL    HW140414   5.602   4.142   2.804  0.2104  0.6266 -1.6874
 7474SOL    HW240415   5.742   4.197   2.797  1.0516 -0.5700  2.6433
 7475SOL     OW40416  10.570   3.620  12.566 -0.4390  0.0653 -0.1383
 7475SOL    HW140417  10.504   3.623  12.496 -1.1594  2.4948  0.5151
 7475SOL    HW240418  10.643   3.672  12.532 -0.9655  1.6373  0.9735
 7476SOL     OW40419   8.998   1.136   8.212  0.2402 -0.0254  0.1231
 7476SOL    HW140420   8.919   1.118   8.163 -1.3400 -0.5817  2.7062
 7476SOL    HW240421   9.010   1.231   8.204  0.4102 -0.1866 -1.7927
 7477SOL     OW40422   9.475  10.120   3.303  0.4053 -1.2189  0.0507
 7477SOL    HW140423   9.565  10.112   3.337  0.8847  0.7467 -0.5779
 7477SOL    HW240424   9.484  10.106   3.208  0.8614  2.7903 -0.6807
 7478SOL     OW40425  10.916   2.116   2.143 -0.2281 -0.0755 -0.7604
 7478SOL    HW140426  10.947   2.087   2.057  0.8135 -0.2908 -0.3303
 7478SOL    HW240427  10.978   2.077   2.205 -0.5757  0.6114  0.0389
 7479SOL     OW40428  10.151   7.225  12.502 -0.1779  0.5448 -0.7023
 7479SOL    HW140429  10.246   7.225  12.491 -0.0491 -0.5370  0.2635
 7479SOL    HW240430  10.135   7.272  12.584 -0.1197 -2.6601  1.3131
 7480SOL     OW40431  12.087   5.690   1.542 -0.4515  0.4603 -0.6430
 7480SOL    HW140432  12.144   5.615   1.525 -0.4604  0.2275  0.2861
 7480SOL    HW240433  12.147   5.764   1.550 -0.0186 -0.0913  2.2654
 7481SOL     OW40434   6.017   8.730  12.774 -0.0554  0.5479 -0.1105
 7481SOL    HW140435   6.034   8.710  12.866  1.0422  0.9473 -0.2090
 7481SOL    HW240436   6.032   8.825  12.767  0.2358  0.4590 -0.7670
 7482SOL     OW40437   5.965   4.377  13.653  0.5693  0.9498 -0.1786
 7482SOL    HW140438   5.998   4.398  13.565  1.7869 -0.7655 -0.1949
 7482SOL    HW240439   5.884   4.329  13.637 -0.6534  2.9405 -0.2322
 7483SOL     OW40440   6.695   9.955   9.496 -0.4667  0.0507 -0.0314
 7483SOL    HW140441   6.709   9.861   9.485 -0.0721 -0.0183  0.8978
 7483SOL    HW240442   6.619   9.975   9.442  1.0944 -0.2687 -2.4792
 7484SOL     OW40443  13.647  12.066  11.764  0.3086  0.1420  0.3740
 7484SOL    HW140444  13.723  12.011  11.782  0.5571  0.3707  0.0204
 7484SOL    HW240445  13.683  12.145  11.724 -0.0965  0.3431  0.3999
 7485SOL     OW40446   8.834   7.287   5.717  0.3441  0.1691  0.2302
 7485SOL    HW140447   8.843   7.369   5.765  0.3938  0.0353  0.4505
 7485SOL    HW240448   8.922   7.249   5.719 -0.1494 -1.0256  2.1770
 7486SOL     OW40449   7.759  13.498   9.901 -0.2691 -0.7197  0.7307
 7486SOL    HW140450   7.802  13.430   9.953 -0.8235 -1.7138 -0.0886
 7486SOL    HW240451   7.680  13.519   9.951 -0.6108 -1.4079  0.4963
 7487SOL     OW40452   7.703   4.815  13.551 -0.2133  0.3829  0.3752
 7487SOL    HW140453   7.613   4.805  13.581 -0.6897 -0.5623 -1.2583
 7487SOL    HW240454   7.700   4.890  13.492 -0.2800 -0.5412 -0.8414
 7488SOL     OW40455  13.214  13.424  11.833 -0.0176 -0.1247 -0.4516
 7488SOL    HW140456  13.276  13.412  11.761  0.1842  1.8307 -0.6614
 7488SOL    HW240457  13.219  13.517  11.854 -2.5931  0.0322 -0.1968
 7489SOL     OW40458   3.495   9.043  11.456 -0.1350 -0.8701 -0.0365
 7489SOL    HW140459   3.513   8.949  11.466 -0.6459 -0.8554  1.1984
 7489SOL    HW240460   3.400   9.050  11.469 -0.8366 -0.6294 -3.8713
 7490SOL     OW40461   9.676   2.966   9.005  0.0220 -0.4059 -0.0107
 7490SOL    HW140462   9.589   2.956   8.966 -0.8821  1.5376  1.3268
 7490SOL    HW240463   9.662   2.955   9.099  0.8228  1.7440  0.4273
 7491SOL     OW40464  11.576   8.053   6.370 -0.1233  0.3903 -0.4276
 7491SOL    HW140465  11.524   8.097   6.303 -2.2808 -3.4066 -1.5659
 7491SOL    HW240466  11.514   8.035   6.440  0.9932  0.3414  0.5718
 7492SOL     OW40467  11.876   8.475   3.809  0.1557 -0.1810  0.1443
 7492SOL    HW140468  11.881   8.571   3.802 -1.5893 -0.0157  0.6761
 7492SOL    HW240469  11.959   8.444   3.773  0.4587  1.5015 -0.7055
 7493SOL     OW40470   9.359   3.411  10.300 -0.4391  0.3145  0.0787
 7493SOL    HW140471   9.359   3.505  10.314 -0.5885  0.1887  0.9656
 7493SOL    HW240472   9.288   3.378  10.355 -0.2693 -0.3371 -0.0791
 7494SOL     OW40473   2.327   5.092   0.446  0.0427 -0.6973  0.6610
 7494SOL    HW140474   2.303   5.181   0.470  0.5849 -0.2962 -0.2403
 7494SOL    HW240475   2.324   5.043   0.529  1.9366  0.6409  1.5860
 7495SOL     OW40476  10.211  10.856   0.527 -0.2655  0.6928 -0.5285
 7495SOL    HW140477  10.235  10.933   0.475 -1.7542  1.8367  0.3903
 7495SOL    HW240478  10.214  10.887   0.617 -0.6757 -0.4049 -0.1292
 7496SOL     OW40479  11.158   5.897   2.493 -0.1786  0.4049  0.1076
 7496SOL    HW140480  11.104   5.826   2.459 -1.8037  1.4384  0.4044
 7496SOL    HW240481  11.125   5.976   2.450  2.0278  0.9517 -0.7299
 7497SOL     OW40482   9.945   0.538  10.933 -0.0048  0.2391  0.0092
 7497SOL    HW140483   9.901   0.498  10.858  0.1411  0.4232 -0.1741
 7497SOL    HW240484  10.010   0.473  10.960 -0.1467  0.1167  0.0605
 7498SOL     OW40485   0.035   7.689   1.831  0.5937  0.1238  0.0398
 7498SOL    HW140486  -0.059   7.697   1.818  0.5626  1.8362  0.8840
 7498SOL    HW240487   0.044   7.658   1.921  0.8254 -0.3589 -0.1516
 7499SOL     OW40488   4.058   1.748   1.799  0.7387 -0.3564  0.1223
 7499SOL    HW140489   4.040   1.658   1.771  0.8990 -0.0469 -1.0286
 7499SOL    HW240490   4.145   1.743   1.838 -0.2304 -1.1485  2.3223
 7500SOL     OW40491   0.400   8.750   7.008 -0.3835  0.1560  0.0852
 7500SOL    HW140492   0.473   8.716   6.957 -0.0257  2.4564 -1.0787
 7500SOL    HW240493   0.322   8.723   6.960 -0.2058 -0.3311  0.0609
 7501SOL     OW40494   7.658  11.849   5.067  0.1233  0.1593  0.4197
 7501SOL    HW140495   7.663  11.943   5.080 -2.3558  0.3276  0.7578
 7501SOL    HW240496   7.671  11.836   4.973  0.7325  0.7933  0.4129
 7502SOL     OW40497  12.196   0.511   1.856 -0.5067 -0.4259  0.0800
 7502SOL    HW140498  12.153   0.516   1.941 -0.9636 -1.5525 -0.0663
 7502SOL    HW240499  12.276   0.462   1.872  0.1868  0.6918  0.1362
 7503SOL     OW40500   9.115   8.816   3.040  0.0066 -0.3172 -0.0010
 7503SOL    HW140501   9.158   8.817   3.126  0.1387 -2.0089 -0.0141
 7503SOL    HW240502   9.107   8.724   3.019 -1.6202  0.0236 -1.0372
 7504SOL     OW40503   2.461   2.163  11.914 -0.0430  0.3229  0.0219
 7504SOL    HW140504   2.453   2.133  12.004  0.7440 -0.5507 -0.1859
 7504SOL    HW240505   2.462   2.083  11.862 -1.7979  0.8468 -0.8972
 7505SOL     OW40506   7.711  13.197   0.244  0.2723  0.3641  0.3428
 7505SOL    HW140507   7.709  13.222   0.337  1.4421  0.4170  0.3665
 7505SOL    HW240508   7.722  13.101   0.245 -0.1065  0.3176  0.2519
 7506SOL     OW40509   1.741   4.182   8.443  0.0580 -0.4036  0.8743
 7506SOL    HW140510   1.768   4.107   8.391  1.7820  1.3093 -0.9052
 7506SOL    HW240511   1.645   4.185   8.434  0.1036 -1.5685 -0.1712
 7507SOL     OW40512   2.884   9.825  12.313  0.3830  0.3663  0.1317
 7507SOL    HW140513   2.801   9.777  12.309  1.1569 -1.4277  2.7270
 7507SOL    HW240514   2.861   9.915  12.290 -2.0221 -0.3253 -0.4755
 7508SOL     OW40515   0.997   5.565  12.862  0.4971 -0.0667  0.5083
 7508SOL    HW140516   0.912   5.532  12.891  1.5259 -1.1873  2.4018
 7508SOL    HW240517   1.011   5.644  12.913  0.7871 -0.1115  0.4968
 7509SOL     OW40518   6.428   5.463  13.316 -0.1483 -0.2963 -0.2027
 7509SOL    HW140519   6.518   5.444  13.289 -0.5050 -0.3829 -1.3575
 7509SOL    HW240520   6.437   5.533  13.381  0.7114  0.0690 -0.7013
 7510SOL     OW40521   8.810   1.326   6.956 -0.6030  0.0322  0.3893
 7510SOL    HW140522   8.814   1.294   7.046 -0.4543 -0.6483  0.1505
 7510SOL    HW240523   8.827   1.248   6.902  2.7727  0.9967 -0.1601
 7511SOL     OW40524  11.346   2.123   9.587  0.2340 -0.3673 -0.4920
 7511SOL    HW140525  11.263   2.128   9.540 -1.1742 -1.3721  1.7086
 7511SOL    HW240526  11.374   2.214   9.597 -1.0876  0.0668 -0.5045
 7512SOL     OW40527   1.673   2.203  11.963 -0.5982 -0.3318  0.2568
 7512SOL    HW140528   1.633   2.289  11.979 -0.6915 -0.6296  1.7549
 7512SOL    HW240529   1.759   2.208  12.004  0.1975 -0.3400 -1.3110
 7513SOL     OW40530   4.929   9.395   7.909 -0.5365 -0.1146  0.3799
 7513SOL    HW140531   4.885   9.319   7.870 -1.2851 -0.0658  1.1004
 7513SOL    HW240532   4.897   9.470   7.858 -2.0344  0.0272  1.4570
 7514SOL     OW40533  12.661  11.827   2.804  0.3233  0.5747  0.0711
 7514SOL    HW140534  12.584  11.825   2.861  0.3008  2.5811  0.1931
 7514SOL    HW240535  12.724  11.882   2.851  2.3397 -1.9274  0.5098
 7515SOL     OW40536   5.347   8.008   0.630  0.5124 -0.2173  0.0052
 7515SOL    HW140537   5.300   8.023   0.548  2.4489  0.5334 -1.0235
 7515SOL    HW240538   5.353   7.913   0.637  0.7578 -0.2759 -0.9737
 7516SOL     OW40539   2.145   0.062  10.905  0.4967  1.0588 -0.0740
 7516SOL    HW140540   2.211   0.089  10.842  1.6047 -0.0777  0.5556
 7516SOL    HW240541   2.081   0.012  10.854  0.9353  0.8631 -0.4310
 7517SOL     OW40542   5.172   8.775   0.139  0.0478  0.0583  0.0860
 7517SOL    HW140543   5.152   8.707   0.204  0.6082 -1.0151 -0.8254
 7517SOL    HW240544   5.219   8.842   0.188  0.0390 -0.5055  0.8866
 7518SOL     OW40545   1.792   6.991   2.913  0.3955 -0.3381  0.0657
 7518SOL    HW140546   1.734   6.952   2.978  1.4577 -0.5663  0.9032
 7518SOL    HW240547   1.879   6.962   2.939  1.1363  1.7795  0.1309
 7519SOL     OW40548  12.490   3.828   7.910 -0.0222  0.0466  0.0046
 7519SOL    HW140549  12.432   3.854   7.982  1.6303  2.2334  0.6646
 7519SOL    HW240550  12.576   3.818   7.951  0.8606  0.8580 -1.5490
 7520SOL     OW40551  10.817   0.192   0.265  0.2427 -0.2524  0.2393
 7520SOL    HW140552  10.774   0.237   0.338 -0.3577 -0.4921  0.0314
 7520SOL    HW240553  10.750   0.185   0.198 -0.0664 -2.5889  0.7286
 7521SOL     OW40554   7.786   9.894   2.567  0.3011 -0.6674  0.2320
 7521SOL    HW140555   7.838   9.909   2.646 -0.9622 -0.1394  0.9977
 7521SOL    HW240556   7.827   9.950   2.501  0.4475  0.0936  0.9424
 7522SOL     OW40557   5.989  10.726   7.880 -0.1341  0.3405 -0.5851
 7522SOL    HW140558   5.912  10.723   7.936  0.1132  0.3928 -0.2358
 7522SOL    HW240559   6.063  10.729   7.941  0.1707 -0.2618 -0.9100
 7523SOL     OW40560  11.104  10.582   7.086  0.0586  0.7624 -0.4251
 7523SOL    HW140561  11.185  10.554   7.129  0.3119  0.5603 -1.0147
 7523SOL    HW240562  11.034  10.544   7.139  0.3777 -0.0680 -0.5894
 7524SOL     OW40563   5.996   4.894   9.899  0.3920  0.0089 -0.2186
 7524SOL    HW140564   5.935   4.905   9.972  0.4308 -0.6110 -0.0901
 7524SOL    HW240565   5.963   4.953   9.831 -0.0362  0.0820  0.0504
 7525SOL     OW40566   9.922   7.588  11.748 -0.2224  0.3291 -0.4085
 7525SOL    HW140567   9.925   7.663  11.688  0.1733 -0.2291 -1.0997
 7525SOL    HW240568   9.984   7.525  11.711 -0.7253 -0.4390  0.0405
 7526SOL     OW40569   1.885   5.225   7.753 -0.0993  0.1069 -0.2848
 7526SOL    HW140570   1.874   5.174   7.833 -0.1863 -1.1440 -1.0842
 7526SOL    HW240571   1.796   5.244   7.724 -0.0792 -0.3703 -0.6666
 7527SOL     OW40572   1.742  10.301   0.133  0.4217 -0.0953  0.5309
 7527SOL    HW140573   1.756  10.223   0.186 -1.4771 -2.6700 -2.3538
 7527SOL    HW240574   1.654  10.331   0.157  0.2811 -0.1925  0.1515
 7528SOL     OW40575   0.648   6.723   1.647  0.7254 -0.0078 -0.2849
 7528SOL    HW140576   0.606   6.678   1.574  0.9577 -1.7416  0.6128
 7528SOL    HW240577   0.625   6.815   1.634 -2.1557 -0.6935 -0.6043
 7529SOL     OW40578   6.495   6.610   6.983 -0.3269  0.9232  0.1614
 7529SOL    HW140579   6.581   6.631   7.020 -0.0439  0.8730 -0.4616
 7529SOL    HW240580   6.454   6.695   6.968  0.0833  0.9854 -0.6363
 7530SOL     OW40581   4.108  13.483   1.482 -0.4149 -0.2484  0.3372
 7530SOL    HW140582   4.135  13.575   1.486 -0.7941 -0.0820 -0.6533
 7530SOL    HW240583   4.100  13.464   1.389  0.4640 -1.5409  0.4880
 7531SOL     OW40584   9.117   8.472  10.760 -0.0541 -0.4973 -0.3308
 7531SOL    HW140585   9.146   8.537  10.824  0.0079 -1.3436  0.5287
 7531SOL    HW240586   9.089   8.523  10.685  1.9664  0.4617 -0.5162
 7532SOL     OW40587   8.067  13.310   9.341 -0.1591  0.2128  0.3210
 7532SOL    HW140588   8.157  13.334   9.364  0.3061 -0.6570 -0.5172
 7532SOL    HW240589   8.015  13.385   9.369  1.0446  1.5042 -0.7176
 7533SOL     OW40590  11.750   9.113   0.216 -0.0125  0.6341 -0.0169
 7533SOL    HW140591  11.844   9.128   0.207 -0.0088  1.0163  0.6024
 7533SOL    HW240592  11.738   9.090   0.307 -0.5263  0.6199 -0.0861
 7534SOL     OW40593   2.672   3.105   9.764 -0.0063  0.0436 -0.7729
 7534SOL    HW140594   2.689   3.180   9.707  0.5026 -0.7865 -1.7465
 7534SOL    HW240595   2.706   3.132   9.849 -2.9242  2.2323 -0.1642
 7535SOL     OW40596  13.115   9.818   3.604 -0.3650  0.0536  0.4451
 7535SOL    HW140597  13.123   9.774   3.520  2.1925  0.8127  0.2198
 7535SOL    HW240598  13.202   9.814   3.642 -0.6373  2.6618  1.5465
 7536SOL     OW40599  10.411   7.714  13.332  0.9172  0.0098 -0.0622
 7536SOL    HW140600  10.458   7.632  13.317 -0.9921 -0.9559 -0.9624
 7536SOL    HW240601  10.407   7.722  13.427 -0.8731 -2.1699  0.1049
 7537SOL     OW40602   6.006   1.805   9.316 -0.0223  0.3430  0.6319
 7537SOL    HW140603   5.941   1.859   9.361  0.1623  0.0468  1.2702
 7537SOL    HW240604   6.079   1.799   9.378  1.3956  2.1038 -0.7126
 7538SOL     OW40605  12.806   6.116   2.438  0.1376 -0.0624  0.2234
 7538SOL    HW140606  12.877   6.065   2.399 -0.0690  0.1190 -0.3840
 7538SOL    HW240607  12.850   6.172   2.503  0.7370  0.9411 -0.9939
 7539SOL     OW40608   9.933   7.151   2.156  0.2374 -0.0627  0.3617
 7539SOL    HW140609   9.928   7.184   2.245  0.4675 -0.8916  0.6870
 7539SOL    HW240610  10.020   7.177   2.125 -0.4132  1.5995 -0.1912
 7540SOL     OW40611   0.940   1.681   2.738 -0.1478  0.7724 -0.1456
 7540SOL    HW140612   0.899   1.762   2.770 -1.0720  0.2927 -0.0629
 7540SOL    HW240613   0.878   1.612   2.763  1.1183 -0.0903  0.7104
 7541SOL     OW40614   9.321   0.128   8.276 -0.1524  0.2424  0.3618
 7541SOL    HW140615   9.381   0.183   8.226 -0.3357  0.1872  0.0786
 7541SOL    HW240616   9.377   0.076   8.333  0.2081 -1.0414 -1.0962
 7542SOL     OW40617   3.869  12.079   9.416  0.6050  0.0949 -0.0852
 7542SOL    HW140618   3.886  12.010   9.351 -0.1211 -0.5454  0.3792
 7542SOL    HW240619   3.884  12.036   9.501 -2.2610 -0.2918  0.3306
 7543SOL     OW40620   0.918   9.479   1.574 -0.0166  0.4661  0.1450
 7543SOL    HW140621   0.982   9.459   1.642  1.2662  4.6150  0.4483
 7543SOL    HW240622   0.967   9.473   1.493 -0.6930 -1.3061 -0.1717
 7544SOL     OW40623  11.225   6.082  13.359 -0.5870  0.3050 -0.2434
 7544SOL    HW140624  11.310   6.054  13.326 -1.2469  0.1346 -1.9093
 7544SOL    HW240625  11.175   6.001  13.370 -0.0826  0.2496  2.2568
 7545SOL     OW40626  10.389   0.058   3.874  0.1681 -0.4155  0.1149
 7545SOL    HW140627  10.428   0.141   3.843 -1.1196 -0.0745 -0.6864
 7545SOL    HW240628  10.362   0.014   3.794 -1.0956 -0.6227  0.6381
 7546SOL     OW40629   6.688   7.199  13.767 -0.6885  0.5631 -0.2709
 7546SOL    HW140630   6.747   7.124  13.775  0.1819  1.2016 -0.5471
 7546SOL    HW240631   6.601   7.160  13.755 -0.6003 -0.4104  1.8480
 7547SOL     OW40632   3.596   0.167   9.410  0.9679  0.2260  0.5293
 7547SOL    HW140633   3.664   0.192   9.348 -0.5288  1.7115 -0.6324
 7547SOL    HW240634   3.523   0.137   9.355  0.4999 -0.8582  1.6970
 7548SOL     OW40635   5.651   6.457  10.439 -0.0599  0.3903 -0.6794
 7548SOL    HW140636   5.660   6.538  10.489  0.6443  0.3340 -0.7042
 7548SOL    HW240637   5.735   6.447  10.394  0.4403 -1.1066  0.4777
 7549SOL     OW40638   9.105   9.878   8.419  0.3328  0.0981 -0.6037
 7549SOL    HW140639   9.077   9.844   8.504 -0.7674  1.7472 -0.2440
 7549SOL    HW240640   9.200   9.883   8.424  0.2557  0.6049  0.7371
 7550SOL     OW40641   9.006  12.407   8.947  0.2582  0.0154  0.2876
 7550SOL    HW140642   8.928  12.385   8.897  1.5983 -1.4786 -1.2799
 7550SOL    HW240643   9.045  12.322   8.968  1.3919  0.7293  1.1542
 7551SOL     OW40644  12.960  12.200  11.030  0.0633  0.4495 -0.4424
 7551SOL    HW140645  12.996  12.112  11.024 -1.8145 -0.3101 -1.5713
 7551SOL    HW240646  12.878  12.189  11.078 -0.0267  1.6382 -0.2955
 7552SOL     OW40647   3.372   0.572   4.757 -0.3804 -0.1003  0.0965
 7552SOL    HW140648   3.421   0.629   4.697 -1.5187  0.1687 -0.5988
 7552SOL    HW240649   3.379   0.485   4.718  1.2164 -0.4504  1.0706
 7553SOL     OW40650  11.304  13.471   7.350  0.5380 -0.2239  0.3331
 7553SOL    HW140651  11.304  13.543   7.287  0.8216  0.1122  0.7098
 7553SOL    HW240652  11.220  13.479   7.395  0.1431 -0.7283 -0.2860
 7554SOL     OW40653  13.603  10.038   2.172  0.3142 -0.0867  0.5341
 7554SOL    HW140654  13.583  10.091   2.249  1.2092  0.1047  0.6361
 7554SOL    HW240655  13.695  10.016   2.181  0.1616 -0.9567  0.0556
 7555SOL     OW40656   1.713   7.233  11.652  0.1432 -0.2283  0.2152
 7555SOL    HW140657   1.664   7.290  11.592 -0.2379  1.1468  1.7845
 7555SOL    HW240658   1.681   7.145  11.630 -2.4849  0.5292  0.5940
 7556SOL     OW40659  12.351   5.457   4.605  0.2292 -0.2589  0.1372
 7556SOL    HW140660  12.275   5.399   4.616  1.3834 -1.4884  2.2448
 7556SOL    HW240661  12.313   5.543   4.591 -1.5773 -0.7652  1.5656
 7557SOL     OW40662  13.356   0.580   2.746  0.7484 -0.2744  0.3177
 7557SOL    HW140663  13.395   0.559   2.831  0.4977 -2.5439 -0.0653
 7557SOL    HW240664  13.311   0.500   2.720 -0.0892  0.7193 -1.4849
 7558SOL     OW40665  12.642   8.711   3.974  0.2252 -0.2173 -0.4561
 7558SOL    HW140666  12.671   8.711   3.883  1.2320  0.4083 -0.1482
 7558SOL    HW240667  12.718   8.682   4.024 -0.2142 -0.2440  0.2194
 7559SOL     OW40668  10.168   6.839   7.213  0.1734  0.0704  0.2948
 7559SOL    HW140669  10.182   6.759   7.163  0.4947 -0.0918  0.6364
 7559SOL    HW240670  10.089   6.822   7.264 -1.7887  1.2434 -2.1494
 7560SOL     OW40671   2.487  13.938  10.281 -0.1447 -0.2204 -0.2300
 7560SOL    HW140672   2.404  13.965  10.242  0.1117 -0.8500 -1.2601
 7560SOL    HW240673   2.503  13.850  10.246  0.1332 -0.8009  1.2864
 7561SOL     OW40674   6.871   0.962   8.006  0.1964 -0.1543  0.1785
 7561SOL    HW140675   6.924   1.018   8.062 -0.4533 -0.8241  1.5024
 7561SOL    HW240676   6.840   1.020   7.936 -0.9008  1.2956  1.7874
 7562SOL     OW40677   1.934  10.250   4.329 -0.0395  0.9597  0.1274
 7562SOL    HW140678   1.874  10.180   4.301  0.7365  0.6871 -0.8931
 7562SOL    HW240679   1.887  10.293   4.401 -0.3544 -0.8672  1.0973
 7563SOL     OW40680   7.753   9.343  13.663 -0.2795 -0.3355 -0.3971
 7563SOL    HW140681   7.720   9.293  13.737  1.2774 -0.3343  0.3489
 7563SOL    HW240682   7.717   9.431  13.675 -0.5768 -0.5087 -0.0131
 7564SOL     OW40683   6.813  11.667  11.094  0.1814 -0.5768 -0.4034
 7564SOL    HW140684   6.811  11.722  11.172 -1.4077 -2.2779  0.8553
 7564SOL    HW240685   6.796  11.727  11.022 -2.7660  0.5089  1.0176
 7565SOL     OW40686   3.252   8.197   3.770 -0.0036 -0.0050 -0.2610
 7565SOL    HW140687   3.170   8.171   3.811 -1.1957  1.3815 -1.6292
 7565SOL    HW240688   3.233   8.281   3.729  2.7409  1.5008  1.2365
 7566SOL     OW40689   1.200  13.794   2.853 -0.3327 -0.0862 -0.1456
 7566SOL    HW140690   1.252  13.731   2.902  0.9001 -0.2930 -1.6412
 7566SOL    HW240691   1.140  13.740   2.801 -0.1361  0.0057 -0.4766
 7567SOL     OW40692   9.879   0.869   5.960 -0.5013 -0.1577 -0.7238
 7567SOL    HW140693   9.971   0.871   5.985 -0.7615 -0.9129  0.3793
 7567SOL    HW240694   9.875   0.917   5.878  1.2789 -2.2307 -2.1350
 7568SOL     OW40695   2.458  12.994   6.849 -0.2474  0.6046 -0.7939
 7568SOL    HW140696   2.411  13.077   6.854  0.5566  1.0766 -0.8632
 7568SOL    HW240697   2.551  13.018   6.855 -0.0358 -0.4703  1.9799
 7569SOL     OW40698  13.813  13.807   9.200  0.3897  0.2952 -0.4202
 7569SOL    HW140699  13.908  13.793   9.209  0.0059 -3.0705  0.0216
 7569SOL    HW240700  13.794  13.783   9.110  0.0888  2.4577 -0.9747
 7570SOL     OW40701   4.183   9.756  14.082 -0.3430  0.1742  0.1006
 7570SOL    HW140702   4.208   9.844  14.053 -1.2980  0.5758  0.4608
 7570SOL    HW240703   4.207   9.699  14.009  0.7644  0.6500  0.0677
 7571SOL     OW40704   8.430  11.540   1.477 -0.2697  0.5926  0.2107
 7571SOL    HW140705   8.466  11.540   1.565  0.4194  0.2518 -0.0632
 7571SOL    HW240706   8.474  11.613   1.433 -1.2374  1.3097  0.3808
 7572SOL     OW40707  11.270   4.716   0.587 -0.3573 -0.1923  0.4241
 7572SOL    HW140708  11.279   4.789   0.526  0.5639 -0.6419  0.0029
 7572SOL    HW240709  11.233   4.755   0.666  0.6338  0.8318  0.4047
 7573SOL     OW40710  11.630   5.608   1.793 -0.0158  0.3359 -0.6451
 7573SOL    HW140711  11.580   5.628   1.872 -0.5044  0.7014 -1.0390
 7573SOL    HW240712  11.709   5.564   1.825 -0.5404 -0.1542 -0.0123
 7574SOL     OW40713   8.799   2.730   2.558  0.3373 -0.0253 -0.1403
 7574SOL    HW140714   8.873   2.779   2.524  0.3792 -0.7913 -1.2177
 7574SOL    HW240715   8.729   2.745   2.495 -0.5072  0.8604  0.9751
 7575SOL     OW40716  11.568  12.158  11.433  0.5589  0.5720  0.1966
 7575SOL    HW140717  11.473  12.147  11.439  0.6565 -0.9325 -0.5223
 7575SOL    HW240718  11.600  12.135  11.520  0.3683 -0.5583 -0.0131
 7576SOL     OW40719  13.416   7.881   5.653  0.6220  0.4533  0.4005
 7576SOL    HW140720  13.460   7.933   5.720  0.7131 -0.2788  0.9175
 7576SOL    HW240721  13.359   7.943   5.608  2.3268  1.4844 -0.4363
 7577SOL     OW40722   7.065   2.782   6.382 -0.4862 -0.1090 -0.7059
 7577SOL    HW140723   7.080   2.864   6.336 -2.8347  0.4766 -0.5569
 7577SOL    HW240724   7.064   2.806   6.475 -1.5513 -0.2018 -0.6800
 7578SOL     OW40725   1.972  13.968   8.014 -0.5320  0.1089  0.1265
 7578SOL    HW140726   2.058  14.007   8.034  0.1299 -0.6618 -1.0789
 7578SOL    HW240727   1.925  14.038   7.967 -0.4094  0.3929  0.4208
 7579SOL     OW40728   7.680   3.405   0.363 -0.1456  0.1301  0.0506
 7579SOL    HW140729   7.653   3.497   0.368  2.8384  1.0736  0.7522
 7579SOL    HW240730   7.713   3.384   0.450 -0.0151 -1.3462 -0.3235
 7580SOL     OW40731   5.204   2.407  10.505 -0.2228  0.0792 -0.8796
 7580SOL    HW140732   5.144   2.468  10.548 -0.3167 -0.4423 -0.2554
 7580SOL    HW240733   5.249   2.362  10.576  0.2328 -0.2072 -1.3345
 7581SOL     OW40734  11.951   4.598   2.043  0.0617 -0.5340  0.3352
 7581SOL    HW140735  11.885   4.667   2.041  0.7090  0.0960 -0.4920
 7581SOL    HW240736  11.959   4.574   2.135 -2.1666 -1.5001  0.3218
 7582SOL     OW40737   4.478   9.294   7.582  0.0514 -0.0760 -0.6051
 7582SOL    HW140738   4.542   9.263   7.646 -0.2632  2.4263  1.0543
 7582SOL    HW240739   4.497   9.387   7.571 -1.6630  0.1694 -2.0842
 7583SOL     OW40740   1.066   1.399  11.780  0.3577 -0.4467  0.5696
 7583SOL    HW140741   1.064   1.361  11.693 -1.8875 -0.6478  0.6572
 7583SOL    HW240742   1.121   1.477  11.771  0.9886 -1.0144 -0.7583
 7584SOL     OW40743   1.736   2.949  13.672  0.4517  0.1061 -0.1797
 7584SOL    HW140744   1.742   3.029  13.725 -0.7033 -0.5976  1.0838
 7584SOL    HW240745   1.665   2.967  13.610  0.8660  0.4105 -0.5764
 7585SOL     OW40746   1.201   6.644   6.758  0.1493 -0.7052  0.3900
 7585SOL    HW140747   1.190   6.667   6.850  0.8920 -1.2809  0.6357
 7585SOL    HW240748   1.195   6.727   6.711  1.0668 -0.2318  1.0867
 7586SOL     OW40749   8.957   9.554   8.454  0.0930  0.2980 -0.1466
 7586SOL    HW140750   8.981   9.602   8.533  2.4901  0.0333 -0.6230
 7586SOL    HW240751   9.033   9.499   8.436 -0.3826  0.3438 -2.6365
 7587SOL     OW40752   0.492   7.985   5.120 -0.7914 -0.1364  0.3778
 7587SOL    HW140753   0.536   7.948   5.043 -0.1318 -2.2068  1.6685
 7587SOL    HW240754   0.563   8.016   5.176 -1.0704 -1.1567  1.3380
 7588SOL     OW40755   7.567   1.800   2.253  0.1981  0.6352  0.4664
 7588SOL    HW140756   7.510   1.867   2.215  1.9555  1.3861 -0.9481
 7588SOL    HW240757   7.540   1.796   2.345 -0.9228  2.2426  0.2555
 7589SOL     OW40758   2.296   7.175   0.938 -0.4803  0.0643 -0.2038
 7589SOL    HW140759   2.242   7.123   0.879 -0.4534  0.9161 -0.9979
 7589SOL    HW240760   2.350   7.111   0.983 -0.3995 -0.5978 -1.2074
 7590SOL     OW40761   2.991   2.263   0.541 -0.2501 -0.0987 -0.3791
 7590SOL    HW140762   2.922   2.250   0.606  1.4246 -1.3757  1.2516
 7590SOL    HW240763   3.072   2.265   0.592  0.9805  0.9354 -2.2643
 7591SOL     OW40764   7.041   0.813   2.788 -0.3134  0.1225 -0.1113
 7591SOL    HW140765   7.004   0.839   2.704 -1.8224 -0.8002  0.2455
 7591SOL    HW240766   6.968   0.778   2.838  0.9339 -1.3054  0.8268
 7592SOL     OW40767   3.532  12.268   8.106  0.1223  0.1181 -0.1860
 7592SOL    HW140768   3.552  12.285   8.014 -0.3445 -0.3056 -0.3695
 7592SOL    HW240769   3.512  12.175   8.110 -0.5184  0.2633  0.2199
 7593SOL     OW40770  10.415   8.978   1.026 -0.3738 -0.1785  0.3670
 7593SOL    HW140771  10.486   8.983   1.090 -0.6568 -2.3138  0.9266
 7593SOL    HW240772  10.427   8.894   0.983 -0.2952  1.1328 -2.3394
 7594SOL     OW40773   5.062   2.666   7.844  0.4845  0.1051 -0.4553
 7594SOL    HW140774   5.083   2.742   7.790  1.1939 -0.1497 -0.5505
 7594SOL    HW240775   4.985   2.627   7.803  1.1450 -0.2159 -1.4246
 7595SOL     OW40776   4.187   0.457   6.830 -0.0022  0.0989 -0.3708
 7595SOL    HW140777   4.170   0.383   6.889  1.1994  1.5065  1.8790
 7595SOL    HW240778   4.269   0.434   6.786  0.3327  0.0270  0.2721
 7596SOL     OW40779   8.411   1.473   1.237 -0.4475  0.1743  0.1402
 7596SOL    HW140780   8.327   1.503   1.204 -0.8635  0.1153  1.1297
 7596SOL    HW240781   8.396   1.455   1.330  0.6575  0.1780  0.3331
 7597SOL     OW40782   0.138  10.454   3.817 -0.3104  0.5669 -0.2782
 7597SOL    HW140783   0.098  10.453   3.904  0.2033  1.4485 -0.0152
 7597SOL    HW240784   0.122  10.367   3.781 -1.0280  0.3834  0.4704
 7598SOL     OW40785  13.544   2.295   7.303  0.5713 -0.2868 -0.1057
 7598SOL    HW140786  13.598   2.217   7.288  1.4502  0.2338  0.2834
 7598SOL    HW240787  13.524   2.327   7.215  1.9382  0.2087 -0.2596
 7599SOL     OW40788  10.408  12.144   2.395 -0.4137 -0.4175  0.3691
 7599SOL    HW140789  10.398  12.100   2.310  0.3626 -1.7843  0.9463
 7599SOL    HW240790  10.486  12.198   2.386 -0.0249 -0.9750  0.3734
 7600SOL     OW40791   7.320  10.120   3.128  0.2396 -0.0390  0.0823
 7600SOL    HW140792   7.344  10.061   3.057 -1.1849 -2.1348  1.2241
 7600SOL    HW240793   7.240  10.081   3.165 -0.8297  2.6757  0.8660
 7601SOL     OW40794   1.353   6.843  11.415 -0.3492  0.3899  0.2257
 7601SOL    HW140795   1.386   6.904  11.349  0.3796 -1.2051 -0.9613
 7601SOL    HW240796   1.431   6.799  11.448 -0.7336  0.9526  2.0025
 7602SOL     OW40797  11.197   5.062  11.025 -0.0442 -0.0933 -0.5864
 7602SOL    HW140798  11.167   5.133  10.969  0.7690  0.7062 -0.0260
 7602SOL    HW240799  11.292   5.065  11.020  0.0602  0.0949  0.9283
 7603SOL     OW40800  10.989   6.116  10.680 -0.3965  0.2336  0.6167
 7603SOL    HW140801  11.070   6.128  10.729  0.0648 -2.1724  0.5761
 7603SOL    HW240802  10.926   6.173  10.722  1.0525  1.3824  1.3061
 7604SOL     OW40803  10.478   7.821  10.538 -0.1190  0.6493  0.2871
 7604SOL    HW140804  10.419   7.858  10.604  0.8454 -0.2158  1.6786
 7604SOL    HW240805  10.516   7.744  10.580 -0.2749 -0.5682 -1.6744
 7605SOL     OW40806   4.146   9.940   4.130 -0.0333 -0.2709 -0.8373
 7605SOL    HW140807   4.127  10.033   4.143 -1.9266 -0.6565 -0.5615
 7605SOL    HW240808   4.203   9.917   4.203 -1.4873  0.1637  0.4905
 7606SOL     OW40809  10.921   6.597   4.372 -0.0439  0.5863 -0.4329
 7606SOL    HW140810  10.966   6.669   4.417  0.7184 -0.2147  0.1082
 7606SOL    HW240811  10.889   6.541   4.442 -0.3440  0.2118 -0.8638
 7607SOL     OW40812   3.670  11.012   1.335 -0.3618 -0.4207  0.1876
 7607SOL    HW140813   3.576  10.992   1.335 -0.0676 -2.1333 -1.4484
 7607SOL    HW240814   3.706  10.958   1.406 -0.3542 -1.5438 -0.6315
 7608SOL     OW40815  12.343   4.224   6.938  0.2734 -0.3353 -0.4144
 7608SOL    HW140816  12.272   4.261   6.886 -1.3766 -1.3967  1.0007
 7608SOL    HW240817  12.381   4.299   6.985  0.4726  0.3142 -1.5727
 7609SOL     OW40818   0.477  13.717  13.047 -0.3116  0.7862  0.4381
 7609SOL    HW140819   0.514  13.699  13.134 -1.6740 -0.0783  0.8744
 7609SOL    HW240820   0.493  13.810  13.033 -0.0289  0.9348  1.5965
 7610SOL     OW40821   2.818   2.759  12.035  0.4189 -0.6954  0.1690
 7610SOL    HW140822   2.877   2.823  12.075 -0.7060  0.8990 -0.5872
 7610SOL    HW240823   2.740   2.760  12.091  0.4408 -1.5208  0.2240
 7611SOL     OW40824  11.881   2.149   1.822 -0.0526 -0.3913 -0.6021
 7611SOL    HW140825  11.912   2.070   1.779  0.2532  0.2018 -1.4999
 7611SOL    HW240826  11.787   2.152   1.802  0.0937 -0.1062 -1.2526
 7612SOL     OW40827   5.276   6.419  10.678  0.0613 -0.1424 -0.0401
 7612SOL    HW140828   5.351   6.364  10.653 -0.3486 -2.7171  3.5874
 7612SOL    HW240829   5.208   6.356  10.703 -1.8212  2.0903  0.7831
 7613SOL     OW40830   3.014   2.456   9.307  0.5795 -0.6000  0.1310
 7613SOL    HW140831   2.921   2.473   9.323  0.6447 -0.5272  0.4340
 7613SOL    HW240832   3.036   2.386   9.369  0.5315 -1.1777 -0.4877
 7614SOL     OW40833  13.208  10.614   7.574 -0.2311 -0.4011 -0.7093
 7614SOL    HW140834  13.247  10.573   7.497  1.9141 -1.2990  0.7452
 7614SOL    HW240835  13.175  10.698   7.543 -0.5459 -1.2401 -2.8275
 7615SOL     OW40836   9.645   5.489   9.540 -0.1053  0.8104  0.4507
 7615SOL    HW140837   9.710   5.498   9.609  0.3303 -0.4213  0.2315
 7615SOL    HW240838   9.689   5.439   9.472 -1.4445 -0.5660  0.5428
 7616SOL     OW40839   2.696   0.756  13.208  0.5709  1.0092  0.5792
 7616SOL    HW140840   2.689   0.661  13.217  1.3105  0.9553  0.5866
 7616SOL    HW240841   2.701   0.771  13.114 -0.5906  1.1256  0.5130
 7617SOL     OW40842   2.506   6.897  10.696  0.3654 -0.3495 -0.5327
 7617SOL    HW140843   2.502   6.985  10.659  1.1773 -0.1895 -0.2596
 7617SOL    HW240844   2.493   6.839  10.620  0.4313 -0.0058 -0.8113
 7618SOL     OW40845   0.128  10.573   7.726 -0.1099  0.3619 -0.2303
 7618SOL    HW140846   0.079  10.507   7.774  1.8149 -0.8411  0.1922
 7618SOL    HW240847   0.065  10.644   7.710 -2.0620 -1.2816 -0.1349
 7619SOL     OW40848  12.662   0.707   4.966  0.2614 -0.1271  0.1698
 7619SOL    HW140849  12.638   0.706   5.058 -0.0435 -1.1671  0.0893
 7619SOL    HW240850  12.757   0.695   4.966  0.3133  0.2802  0.3635
 7620SOL     OW40851  12.888   6.065   7.833 -0.0403  0.0849 -0.0868
 7620SOL    HW140852  12.854   6.148   7.800  0.6988  0.2742 -0.3893
 7620SOL    HW240853  12.863   6.000   7.767 -1.6990 -0.1681  0.7388
 7621SOL     OW40854  13.026  11.233   3.697  0.3381  0.0614 -0.0111
 7621SOL    HW140855  13.069  11.148   3.695  0.2965 -0.0061  1.2270
 7621SOL    HW240856  12.988  11.239   3.784  0.6270  1.4893  0.0517
 7622SOL     OW40857   6.552   9.806   6.454 -0.0931 -0.0228 -0.0685
 7622SOL    HW140858   6.545   9.884   6.508  0.3050  0.4344 -0.6652
 7622SOL    HW240859   6.613   9.831   6.384  1.2070 -1.3089  0.5409
 7623SOL     OW40860   9.213  12.809   5.981 -0.0631 -0.1757  0.8783
 7623SOL    HW140861   9.240  12.900   5.988  1.0129 -0.4227  0.2032
 7623SOL    HW240862   9.248  12.767   6.060  1.1464 -0.3783  0.2711
 7624SOL     OW40863  10.119   0.237   3.652  0.0520  0.2735  0.5995
 7624SOL    HW140864  10.042   0.284   3.618  0.6836  2.0032  1.4215
 7624SOL    HW240865  10.101   0.227   3.746  0.7142  0.4494  0.7473
 7625SOL     OW40866   3.187   4.236   5.711  0.6278  0.0872  0.0991
 7625SOL    HW140867   3.221   4.277   5.632  0.0690 -0.0297 -0.2111
 7625SOL    HW240868   3.128   4.301   5.749  0.1885 -0.1953 -0.0819
 7626SOL     OW40869   0.113   6.248   0.553 -0.4918 -0.1480  0.4809
 7626SOL    HW140870   0.127   6.219   0.463 -2.1150  0.0479  0.1290
 7626SOL    HW240871   0.104   6.167   0.603  0.5424 -0.2598  0.5076
 7627SOL     OW40872   7.616   1.517   2.182  0.1084  0.4616  0.5518
 7627SOL    HW140873   7.595   1.610   2.192  0.8791  0.5810  1.1331
 7627SOL    HW240874   7.534   1.472   2.203  0.5969  0.8752  3.9374
 7628SOL     OW40875  11.486   7.996   8.915 -0.1186  0.0788  0.0552
 7628SOL    HW140876  11.482   8.046   8.833 -0.3716  0.4832  0.3147
 7628SOL    HW240877  11.466   8.059   8.983  1.1039 -0.0186  0.5345
 7629SOL     OW40878  11.374   0.953   4.263  0.1024 -0.4764 -0.2001
 7629SOL    HW140879  11.296   0.954   4.319 -0.0677 -0.5431 -0.4350
 7629SOL    HW240880  11.369   0.870   4.216  0.2045 -0.3866 -0.3697
 7630SOL     OW40881   7.130   6.554   7.606  0.0775 -0.2972  0.3843
 7630SOL    HW140882   7.172   6.627   7.560 -1.9498  1.3138  0.9325
 7630SOL    HW240883   7.140   6.479   7.547 -1.6486  1.4655 -2.3641
 7631SOL     OW40884  13.397  14.045   9.422  0.1382  0.0918 -0.5557
 7631SOL    HW140885  13.416  13.954   9.442 -1.1314 -0.4310 -1.5704
 7631SOL    HW240886  13.445  14.062   9.340  0.2402  0.2861 -0.4564
 7632SOL     OW40887   0.201  13.491   1.722  0.5494  0.2317  0.2238
 7632SOL    HW140888   0.150  13.480   1.642  2.2744  1.8041 -1.1841
 7632SOL    HW240889   0.153  13.556   1.773 -0.8389 -1.1693  0.7747
 7633SOL     OW40890   2.446  11.109  12.609 -0.7802 -0.2976  0.2949
 7633SOL    HW140891   2.457  11.096  12.703 -3.0853 -0.2376  0.6217
 7633SOL    HW240892   2.354  11.132  12.598 -0.4235  0.3584 -1.9249
 7634SOL     OW40893   7.326   0.688   2.307  0.6827  0.2829  0.0672
 7634SOL    HW140894   7.346   0.763   2.252 -0.5465  0.6749  0.1137
 7634SOL    HW240895   7.355   0.714   2.395  0.4306  0.6273  0.0480
 7635SOL     OW40896  12.226   4.180   1.605 -0.1852  0.3101  0.0952
 7635SOL    HW140897  12.233   4.202   1.512 -0.6624 -0.4834 -0.1386
 7635SOL    HW240898  12.139   4.143   1.615  0.3524 -0.8844  0.5720
 7636SOL     OW40899  11.860  10.069  11.517  0.3927 -0.0273 -0.0565
 7636SOL    HW140900  11.910  10.151  11.521  0.3929 -0.0291 -0.0116
 7636SOL    HW240901  11.796  10.077  11.589  1.6815 -0.9163  1.2471
 7637SOL     OW40902   2.486  10.844  10.291  0.1691  0.4360 -0.2133
 7637SOL    HW140903   2.549  10.773  10.302 -1.5296 -0.9936  0.6557
 7637SOL    HW240904   2.476  10.881  10.379 -0.6417  0.2592 -0.2259
 7638SOL     OW40905   3.796   1.444   7.603 -0.1423 -0.1214 -0.2919
 7638SOL    HW140906   3.863   1.416   7.541 -0.9601  1.8176 -2.1793
 7638SOL    HW240907   3.714   1.442   7.554 -0.7536  1.9889  0.4900
 7639SOL     OW40908   9.107   7.692   5.271  0.6821  0.4033  0.5052
 7639SOL    HW140909   9.091   7.782   5.243  1.0714  0.6858  1.1901
 7639SOL    HW240910   9.202   7.681   5.266  0.5341 -0.4943 -1.1467
 7640SOL     OW40911   6.805   3.876   9.397 -0.3118 -0.1490 -0.1890
 7640SOL    HW140912   6.787   3.856   9.489  0.0185 -0.4077 -0.1767
 7640SOL    HW240913   6.847   3.963   9.400 -1.3900  0.3863 -0.2082
 7641SOL     OW40914  13.524   1.465   7.764 -0.2753 -0.8699 -0.3751
 7641SOL    HW140915  13.606   1.456   7.715 -1.0931 -1.4768 -1.6803
 7641SOL    HW240916  13.539   1.540   7.822  0.9649 -0.5676 -1.0541
 7642SOL     OW40917  10.373   1.771  11.146  0.7798 -0.3295 -0.0801
 7642SOL    HW140918  10.390   1.754  11.239  1.0760  0.0010 -0.0712
 7642SOL    HW240919  10.349   1.864  11.143 -1.6194 -0.8788 -0.0213
 7643SOL     OW40920  11.516  10.637   5.612 -0.2191 -0.0822 -0.0462
 7643SOL    HW140921  11.441  10.683   5.575  1.1205  0.1512 -2.6904
 7643SOL    HW240922  11.491  10.544   5.609 -0.5296  0.0141 -0.5789
 7644SOL     OW40923   6.803   5.268  10.074  0.4801  0.3512  0.1488
 7644SOL    HW140924   6.826   5.178  10.050  1.2760  0.5371  0.2055
 7644SOL    HW240925   6.881   5.319  10.057  0.5827  0.7634  1.6573
 7645SOL     OW40926  11.820   1.758   5.662  0.0665  0.6356 -0.5232
 7645SOL    HW140927  11.804   1.839   5.612 -1.9789 -1.0856 -2.9625
 7645SOL    HW240928  11.744   1.751   5.720  0.0149  0.2796 -0.6318
 7646SOL     OW40929  11.223   3.100  11.122  0.1673 -0.0707  0.3122
 7646SOL    HW140930  11.254   3.138  11.040 -1.4851  2.4450  0.7322
 7646SOL    HW240931  11.131   3.077  11.105 -0.0247 -0.0565  1.2788
 7647SOL     OW40932   6.014  12.542  10.599 -0.8337 -0.3559 -0.5311
 7647SOL    HW140933   6.022  12.482  10.525 -2.0469 -0.9676 -0.1938
 7647SOL    HW240934   5.976  12.489  10.669 -0.9758  0.5561  0.0958
 7648SOL     OW40935   3.981   5.565   1.492 -0.0646 -0.1412 -0.6581
 7648SOL    HW140936   4.021   5.637   1.442 -0.1159  0.5951  0.3415
 7648SOL    HW240937   4.054   5.528   1.541 -0.2985  0.1278 -0.1065
 7649SOL     OW40938  11.879   8.020   6.980 -0.2507 -0.1635 -0.1676
 7649SOL    HW140939  11.791   8.001   6.949 -0.0822 -1.8722  0.2680
 7649SOL    HW240940  11.891   8.113   6.964 -1.9402 -0.0041 -0.6988
 7650SOL     OW40941   0.634   2.253   8.327 -0.4186  0.1256 -0.0894
 7650SOL    HW140942   0.560   2.223   8.274  0.2549 -0.9717 -0.4447
 7650SOL    HW240943   0.679   2.173   8.354 -0.3309  0.7004  1.5729
 7651SOL     OW40944  10.587   8.971   5.681 -0.0292 -0.2994 -0.6603
 7651SOL    HW140945  10.512   8.982   5.624 -1.4338 -2.2514  0.6690
 7651SOL    HW240946  10.555   8.917   5.753  2.7526 -1.6528 -0.2795
 7652SOL     OW40947   2.449  13.246   0.480 -0.6983 -0.2261 -0.1412
 7652SOL    HW140948   2.473  13.274   0.391  1.0134 -0.9872  0.0279
 7652SOL    HW240949   2.427  13.153   0.470  3.3679 -1.4897  0.6981
 7653SOL     OW40950   3.087  12.403   5.202  0.4044  0.3308 -0.1500
 7653SOL    HW140951   3.104  12.406   5.107  1.1061 -0.3449 -0.0586
 7653SOL    HW240952   3.080  12.310   5.222  0.5654  0.4542  0.5117
 7654SOL     OW40953  13.344   2.982   2.701  0.0748 -0.2210  0.2267
 7654SOL    HW140954  13.411   2.916   2.678  0.3615  0.1326  0.0310
 7654SOL    HW240955  13.390   3.066   2.695 -0.0634 -0.0547  1.3205
 7655SOL     OW40956   1.174   0.483   0.841  0.0732 -0.8394 -0.2470
 7655SOL    HW140957   1.222   0.551   0.794 -1.6571  0.7093  0.1021
 7655SOL    HW240958   1.120   0.441   0.773 -2.6368  1.5814  0.1797
 7656SOL     OW40959  11.172   5.232   1.750 -0.6893 -0.3544  0.7923
 7656SOL    HW140960  11.233   5.306   1.759 -1.2972  0.2736 -0.1143
 7656SOL    HW240961  11.085   5.271   1.760 -1.1045 -0.6513 -1.2018
 7657SOL     OW40962   4.583   2.055   5.701  0.3295 -0.5918 -0.2187
 7657SOL    HW140963   4.634   1.992   5.650  0.0612 -0.6140 -0.4673
 7657SOL    HW240964   4.569   2.012   5.785  2.1469  0.1009  0.4793
 7658SOL     OW40965   7.363  13.178  13.161  0.0556 -0.1032  0.0810
 7658SOL    HW140966   7.363  13.273  13.150 -3.0547 -0.1068 -0.9437
 7658SOL    HW240967   7.316  13.163  13.242  1.8828 -0.8160  1.0763
 7659SOL     OW40968  13.261   3.748   5.322  0.4468  0.0113 -0.1694
 7659SOL    HW140969  13.341   3.703   5.293 -1.6555 -3.3268 -1.3917
 7659SOL    HW240970  13.230   3.793   5.244  0.2771 -0.1010 -0.1673
 7660SOL     OW40971   9.059  11.538   3.426  0.2641  0.2930 -1.2994
 7660SOL    HW140972   8.970  11.524   3.457  0.6958 -1.2648 -0.6716
 7660SOL    HW240973   9.112  11.474   3.475  1.7577  1.3374 -1.4883
 7661SOL     OW40974   8.031   2.322   7.350 -0.2721 -0.4270 -0.4422
 7661SOL    HW140975   8.031   2.279   7.435 -0.1502 -2.0097 -1.2129
 7661SOL    HW240976   7.944   2.363   7.344 -0.1393  0.0335  0.5881
 7662SOL     OW40977   8.007   5.680   3.165  0.2040  0.9258 -0.1111
 7662SOL    HW140978   7.927   5.679   3.112 -1.0671  1.4995  1.7097
 7662SOL    HW240979   8.031   5.588   3.175 -0.3788  0.7320 -0.4572
 7663SOL     OW40980   1.722   5.470  13.731  0.0209  0.2507 -0.2127
 7663SOL    HW140981   1.698   5.401  13.793 -2.1971  1.1049 -0.0477
 7663SOL    HW240982   1.647   5.478  13.673  0.3501  2.2785 -0.4418
 7664SOL     OW40983   8.884   5.057   6.836 -0.2473 -0.1552 -0.3054
 7664SOL    HW140984   8.869   5.094   6.923 -0.4872 -0.1506 -0.3501
 7664SOL    HW240985   8.960   5.000   6.848  0.6112  0.9412 -0.4152
 7665SOL     OW40986  13.882  12.216  13.886 -0.5042  0.0454 -0.0178
 7665SOL    HW140987  13.918  12.260  13.963 -1.3212  0.4742  0.1224
 7665SOL    HW240988  13.835  12.285  13.838  2.0306  0.4147 -2.2441
 7666SOL     OW40989   7.280   6.985  13.212 -0.0607 -0.5325  0.0299
 7666SOL    HW140990   7.355   7.034  13.179 -0.5296 -1.5072 -2.8449
 7666SOL    HW240991   7.216   7.052  13.238  0.6323  0.3346 -0.4628
 7667SOL     OW40992   4.629  10.592   9.983 -0.1736 -0.0923  0.3462
 7667SOL    HW140993   4.654  10.506   9.949 -0.2415 -0.8353  2.0567
 7667SOL    HW240994   4.533  10.593   9.977 -0.2028 -0.3293  0.7438
 7668SOL     OW40995   6.430   8.826   6.757 -0.1813 -0.1157 -0.3487
 7668SOL    HW140996   6.455   8.914   6.785 -1.1796 -0.0093  0.2804
 7668SOL    HW240997   6.369   8.840   6.684 -0.8626 -0.2407  0.1796
 7669SOL     OW40998   4.551   2.481  12.339 -0.0747  0.6070  0.4412
 7669SOL    HW140999   4.568   2.575  12.333 -1.0742  0.7296 -0.9373
 7669SOL    HW241000   4.466   2.469  12.296  0.2498 -0.9848  0.1848
 7670SOL     OW41001  10.064   3.612   6.372  0.2660 -0.3654 -0.0284
 7670SOL    HW141002  10.104   3.613   6.459  0.8100  1.3252 -0.2641
 7670SOL    HW241003   9.986   3.667   6.381  0.5751  0.1951 -0.7119
 7671SOL     OW41004   5.479   6.564  12.915 -0.3353  0.1000 -0.0666
 7671SOL    HW141005   5.550   6.594  12.971 -1.2326  1.4656  0.3996
 7671SOL    HW241006   5.495   6.470  12.903  1.0612  0.2173  0.6967
 7672SOL     OW41007  10.267   6.410   0.265 -0.4471 -0.3667  0.2612
 7672SOL    HW141008  10.245   6.319   0.246 -0.0686 -0.9175  2.2295
 7672SOL    HW241009  10.222   6.461   0.197 -0.7069 -1.9930 -0.8454
 7673SOL     OW41010   9.006   9.187   1.650 -0.5608  0.7757  0.4548
 7673SOL    HW141011   9.051   9.147   1.576 -0.2684 -0.4063  1.2304
 7673SOL    HW241012   9.059   9.262   1.674  0.0506  0.4022  0.2816
 7674SOL     OW41013  10.576   8.861   7.675  0.4007 -0.1210 -0.3644
 7674SOL    HW141014  10.516   8.794   7.642 -0.3775  0.6574 -0.5649
 7674SOL    HW241015  10.535   8.944   7.652  1.0147  0.4379  0.4816
 7675SOL     OW41016   4.482  12.423   1.245 -0.8508 -0.4746  0.0704
 7675SOL    HW141017   4.463  12.479   1.320 -0.3682  0.4087 -0.4454
 7675SOL    HW241018   4.568  12.385   1.264 -1.9486 -2.5207  1.2601
 7676SOL     OW41019   6.867   4.016   4.152  0.5637  0.0501 -0.3553
 7676SOL    HW141020   6.841   3.935   4.107  0.2695 -0.4396  0.6797
 7676SOL    HW241021   6.962   4.021   4.138  0.3388  0.4412 -1.8822
 7677SOL     OW41022   6.980  12.713  12.382  0.0794 -0.0996  0.1671
 7677SOL    HW141023   6.930  12.669  12.312  0.9902  0.0347 -0.5830
 7677SOL    HW241024   7.038  12.773  12.336  0.9444 -0.2549  1.0233
 7678SOL     OW41025   2.961   6.157   7.989 -0.3420 -0.5330 -0.8626
 7678SOL    HW141026   3.040   6.111   8.017  0.7497  1.7870  0.1263
 7678SOL    HW241027   2.910   6.169   8.069 -0.5007  0.1656 -1.0604
 7679SOL     OW41028   0.880  13.821   9.916  0.0620  0.3390  0.0988
 7679SOL    HW141029   0.940  13.895   9.900 -0.6050  1.0355  0.7309
 7679SOL    HW241030   0.845  13.800   9.830 -0.3801  1.3291  0.0222
 7680SOL     OW41031   0.672   7.159   4.444 -0.2740 -0.5347  0.0003
 7680SOL    HW141032   0.680   7.156   4.349  0.6406  1.9933 -0.0668
 7680SOL    HW241033   0.655   7.068   4.469 -0.3395 -1.2994 -2.5347
 7681SOL     OW41034   6.737  12.716   7.704 -0.1296 -0.1815  0.1403
 7681SOL    HW141035   6.733  12.676   7.617  0.1097 -4.0695  1.7066
 7681SOL    HW241036   6.651  12.698   7.742  0.2993  0.0839  1.2639
 7682SOL     OW41037   4.714   8.652   4.777  0.1238 -0.1389  0.5382
 7682SOL    HW141038   4.787   8.681   4.830  0.1379 -1.4435  1.2719
 7682SOL    HW241039   4.659   8.601   4.836 -1.0101  0.1992 -0.1752
 7683SOL     OW41040   7.475  10.287   8.109  0.2685 -0.0302 -0.2306
 7683SOL    HW141041   7.474  10.251   8.197 -0.0384  0.2927 -0.1002
 7683SOL    HW241042   7.539  10.233   8.062 -0.3355 -0.8939 -0.0971
 7684SOL     OW41043   3.258   4.443   6.721 -1.0223  0.2067 -0.2174
 7684SOL    HW141044   3.192   4.509   6.746  0.0795  1.6452 -0.9276
 7684SOL    HW241045   3.283   4.468   6.632  0.1991 -0.5423 -0.1020
 7685SOL     OW41046  11.460  14.039  11.925 -0.3282 -0.2013 -0.3188
 7685SOL    HW141047  11.466  14.122  11.879 -0.9984  0.5172  0.8486
 7685SOL    HW241048  11.415  14.059  12.007 -1.9988 -2.0022 -0.7017
 7686SOL     OW41049   5.356   1.717  10.410 -0.4647 -0.0838  0.6892
 7686SOL    HW141050   5.342   1.637  10.360  0.0606  0.4489 -0.3344
 7686SOL    HW241051   5.305   1.784  10.364 -0.8164  0.2157  1.4731
 7687SOL     OW41052   9.897   4.052   1.835 -0.1438  0.0267 -0.5899
 7687SOL    HW141053   9.810   4.012   1.834 -0.6961  1.1099 -2.9777
 7687SOL    HW241054   9.952   3.989   1.882 -1.6328 -1.9929 -1.4156
 7688SOL     OW41055   7.719   7.311   9.258  0.4131  0.4607 -0.8514
 7688SOL    HW141056   7.760   7.360   9.329 -0.5127 -1.0154  0.7763
 7688SOL    HW241057   7.781   7.240   9.240 -0.4173 -0.5367  0.1440
 7689SOL     OW41058   3.612   4.463   0.207  0.6798 -0.2578  0.0066
 7689SOL    HW141059   3.522   4.431   0.213  0.1713  1.0397 -0.3623
 7689SOL    HW241060   3.609   4.527   0.136  1.5229  1.0087  1.0832
 7690SOL     OW41061  10.159   6.521   4.753  0.1200 -0.5814 -0.2748
 7690SOL    HW141062  10.181   6.446   4.809 -0.7109  0.2994  1.2943
 7690SOL    HW241063  10.244   6.557   4.727  0.5192 -1.3647 -0.0990
 7691SOL     OW41064   8.354   5.098   0.570 -0.5104  0.0209  0.4985
 7691SOL    HW141065   8.291   5.106   0.498 -1.0585  1.7009  1.1251
 7691SOL    HW241066   8.419   5.036   0.537 -2.4189 -1.7332 -0.2009
 7692SOL     OW41067   7.429  12.326  12.907  0.5910 -0.4308  0.1183
 7692SOL    HW141068   7.372  12.388  12.954 -0.0162 -0.7083 -0.2421
 7692SOL    HW241069   7.395  12.325  12.818  1.5299 -0.1649 -0.2520
 7693SOL     OW41070   7.056  11.929   9.755 -0.2304 -0.4029 -0.3035
 7693SOL    HW141071   7.042  11.884   9.672  0.1430 -1.0796 -0.0121
 7693SOL    HW241072   7.070  12.020   9.732 -1.7447 -0.2792 -0.8579
 7694SOL     OW41073   6.666  11.453  14.118 -0.1626  0.1084 -0.4865
 7694SOL    HW141074   6.606  11.527  14.124 -0.3227 -0.1021  0.8404
 7694SOL    HW241075   6.614  11.377  14.145  0.8074  0.0016  1.2434
 7695SOL     OW41076   1.078   0.880   6.343  0.0094  0.3153  0.2391
 7695SOL    HW141077   1.038   0.793   6.343  1.2238 -0.2822  1.1507
 7695SOL    HW241078   1.069   0.911   6.434 -1.5531  1.7306 -0.3437
 7696SOL     OW41079   1.819   1.236  10.076 -0.1110 -0.3391  0.0320
 7696SOL    HW141080   1.753   1.238  10.145 -2.4204 -1.5086 -1.9836
 7696SOL    HW241081   1.780   1.286  10.004  0.9871 -1.4013 -1.3638
 7697SOL     OW41082   9.256  12.032  13.198 -0.1988  0.0279  0.6998
 7697SOL    HW141083   9.187  12.097  13.213 -0.3179  0.1054 -0.1450
 7697SOL    HW241084   9.327  12.082  13.156  0.1459 -0.1641  1.0560
 7698SOL     OW41085   5.962   7.753   3.650 -0.0564  0.2537  0.1940
 7698SOL    HW141086   5.957   7.799   3.566 -0.8486  0.3317  0.2715
 7698SOL    HW241087   6.052   7.766   3.679  0.0604  0.7413 -0.3576
 7699SOL     OW41088  12.232   9.140   0.838  0.0420  0.1242 -0.1209
 7699SOL    HW141089  12.219   9.155   0.931  1.0012 -2.7931  0.5814
 7699SOL    HW241090  12.327   9.136   0.827 -0.0303  1.0011 -1.3926
 7700SOL     OW41091   9.122  11.409   0.624 -0.2079 -0.2657  0.1005
 7700SOL    HW141092   9.028  11.390   0.621 -0.4361  0.8250 -0.3481
 7700SOL    HW241093   9.152  11.397   0.534  0.3757 -1.8579  0.4703
 7701SOL     OW41094  11.918   2.102  11.664 -0.3137  0.1808 -0.4507
 7701SOL    HW141095  11.877   2.027  11.622  0.4412  0.6194 -2.0141
 7701SOL    HW241096  12.011   2.093  11.646  0.2797 -0.3847  2.4161
 7702SOL     OW41097   5.498   9.499   9.410  0.4183  0.2479 -0.1742
 7702SOL    HW141098   5.588   9.480   9.381  0.9886  1.0563  0.9676
 7702SOL    HW241099   5.500   9.592   9.433 -1.5259  1.0635 -2.8940
 7703SOL     OW41100   5.799  12.750  12.511  0.2037  0.1324 -0.0462
 7703SOL    HW141101   5.785  12.666  12.556 -0.4694  0.3028  0.0790
 7703SOL    HW241102   5.847  12.803  12.575 -0.4223  0.2458  0.3384
 7704SOL     OW41103   0.854  13.142   4.844  0.0636  0.2389 -0.3988
 7704SOL    HW141104   0.883  13.202   4.913 -1.3684 -2.3661  2.7377
 7704SOL    HW241105   0.769  13.176   4.817  0.5420  1.1592 -0.7925
 7705SOL     OW41106  13.997   3.196   3.861 -0.4069 -0.2672 -0.0712
 7705SOL    HW141107  14.038   3.110   3.866 -1.5990 -0.8162  0.4492
 7705SOL    HW241108  14.071   3.257   3.851  0.8495 -0.8894  3.9289
 7706SOL     OW41109  12.794   5.660  10.782  0.4487 -0.9140 -0.2965
 7706SOL    HW141110  12.715   5.644  10.730  0.1978 -1.8667  0.3315
 7706SOL    HW241111  12.765   5.719  10.852  0.7784  0.3366 -1.1960
 7707SOL     OW41112   4.193   4.698   4.841  0.1402 -0.0847 -0.0406
 7707SOL    HW141113   4.278   4.655   4.845 -0.2780 -1.0578 -1.2171
 7707SOL    HW241114   4.132   4.631   4.811 -0.8829  0.8364 -0.1175
 7708SOL     OW41115  10.504   0.411   5.810  0.3971  0.2042  0.3518
 7708SOL    HW141116  10.475   0.372   5.893 -0.6359  0.3430  0.0647
 7708SOL    HW241117  10.599   0.399   5.810  0.2721 -0.8607  1.0048
 7709SOL     OW41118  12.038  10.050  12.740  0.4111 -0.0313  0.0184
 7709SOL    HW141119  12.052   9.978  12.801  0.9971  1.0017  1.1421
 7709SOL    HW241120  12.092  10.121  12.774 -0.6189  1.1424 -0.7280
 7710SOL     OW41121  12.408  12.010   5.737 -0.6643 -0.5482 -0.1105
 7710SOL    HW141122  12.430  11.997   5.830 -2.1311 -2.5672  0.0279
 7710SOL    HW241123  12.487  11.986   5.690  0.3677  1.2500  0.5886
 7711SOL     OW41124   0.437  10.995   8.781 -0.6675  0.2036 -0.0733
 7711SOL    HW141125   0.410  10.987   8.689  0.4311 -0.0486 -0.3867
 7711SOL    HW241126   0.361  10.964   8.831 -1.8034  1.6060 -0.8317
 7712SOL     OW41127  13.980   9.918   1.898 -0.1552 -0.1275  0.4181
 7712SOL    HW141128  14.015   9.896   1.812 -0.7818 -1.6352  0.5236
 7712SOL    HW241129  13.911   9.982   1.880  0.4009  0.3307 -0.1030
 7713SOL     OW41130   2.426   3.781   8.391  0.7689  0.4437  0.2900
 7713SOL    HW141131   2.387   3.851   8.339 -0.0593  0.1787  0.5541
 7713SOL    HW241132   2.495   3.825   8.442 -0.3555  1.2498  1.1536
 7714SOL     OW41133   1.779   1.761   8.062  0.0592  0.3795 -0.0226
 7714SOL    HW141134   1.832   1.730   8.136  0.7043 -0.9436 -1.0048
 7714SOL    HW241135   1.773   1.856   8.075 -0.3425  0.1163  2.0367
 7715SOL     OW41136   6.776  13.282  14.063 -0.1233  0.3705  0.3738
 7715SOL    HW141137   6.723  13.213  14.023 -2.3015  1.6727  0.8663
 7715SOL    HW241138   6.863  13.243  14.072  0.4289 -0.3879 -4.7552
 7716SOL     OW41139  11.428  13.651   9.664 -0.1554  0.0413  0.1863
 7716SOL    HW141140  11.387  13.683   9.745 -0.3374  0.1350  0.0582
 7716SOL    HW241141  11.520  13.639   9.687 -0.1324  0.4249  0.3072
 7717SOL     OW41142   2.155   2.751  12.369 -0.0651 -0.2398  0.3251
 7717SOL    HW141143   2.149   2.673  12.314 -0.4731 -0.2479  0.3763
 7717SOL    HW241144   2.202   2.815  12.315 -0.4740 -0.2411 -0.0386
 7718SOL     OW41145  12.838  10.351   2.864  0.6648 -0.0166  0.1265
 7718SOL    HW141146  12.747  10.381   2.854  0.4070 -0.1170  1.9059
 7718SOL    HW241147  12.862  10.320   2.777 -1.4917 -1.2723 -0.0937
 7719SOL     OW41148   2.502   3.896   9.632 -0.5981 -0.3439  0.5068
 7719SOL    HW141149   2.445   3.819   9.630 -1.5486  0.3027  1.6285
 7719SOL    HW241150   2.489   3.933   9.720 -0.0924  1.0536  0.0118
 7720SOL     OW41151  13.495   0.755   1.203 -0.2289 -0.1067  0.1483
 7720SOL    HW141152  13.555   0.785   1.271 -1.2194 -0.5483  1.2497
 7720SOL    HW241153  13.454   0.834   1.169 -0.0841  0.0783  0.4072
 7721SOL     OW41154  10.426   8.270  12.250  0.4464  0.5802 -0.0846
 7721SOL    HW141155  10.474   8.189  12.231 -2.0007 -0.7430 -1.0441
 7721SOL    HW241156  10.339   8.241  12.277  0.6145  2.7774  3.5681
 7722SOL     OW41157  13.171  14.030   6.042 -0.0865  0.0060  0.1228
 7722SOL    HW141158  13.144  14.046   6.133 -2.0390 -0.5409 -0.3028
 7722SOL    HW241159  13.218  13.947   6.044  0.3200  0.2460  0.6974
 7723SOL     OW41160   4.981   8.666  10.791 -0.3010  0.0550  0.3925
 7723SOL    HW141161   5.022   8.583  10.815  0.3759  1.2723  3.9789
 7723SOL    HW241162   5.040   8.704  10.726 -1.3352 -2.7364 -2.4184
 7724SOL     OW41163  13.123   9.911  12.834 -0.5953  0.4477 -0.3974
 7724SOL    HW141164  13.211   9.887  12.806 -1.1640 -1.7399 -0.5604
 7724SOL    HW241165  13.136   9.980  12.899  1.3010 -0.3705  0.1714
 7725SOL     OW41166   5.161  13.186   9.486  0.2866  0.4803 -0.2783
 7725SOL    HW141167   5.145  13.175   9.580  0.2710  0.9164 -0.2281
 7725SOL    HW241168   5.250  13.155   9.473 -0.1085 -0.6651 -0.3186
 7726SOL     OW41169   6.998   4.235  10.753 -0.2360  0.5278 -0.9753
 7726SOL    HW141170   7.082   4.200  10.784 -1.3214 -0.8115  0.6037
 7726SOL    HW241171   6.943   4.238  10.832 -1.5228  1.8903 -1.8724
 7727SOL     OW41172   4.265   6.906   2.929 -0.1529 -0.9156  0.4617
 7727SOL    HW141173   4.342   6.850   2.915  0.9600  0.9191 -1.3055
 7727SOL    HW241174   4.194   6.844   2.948  1.3029 -2.8116  0.1083
 7728SOL     OW41175  12.160   8.315   4.298  0.0985 -0.3530 -0.6704
 7728SOL    HW141176  12.247   8.301   4.337  0.3645 -0.2749 -1.2284
 7728SOL    HW241177  12.123   8.228   4.288 -0.7492 -0.3014  1.4702
 7729SOL     OW41178   7.316  14.063   8.187 -0.4899  0.7963 -0.4305
 7729SOL    HW141179   7.291  14.040   8.276 -0.3751  0.5253 -0.4668
 7729SOL    HW241180   7.380  13.997   8.162  0.0014  1.2758 -0.4662
 7730SOL     OW41181   6.902  10.499  14.136 -0.0009 -0.5583  0.0638
 7730SOL    HW141182   6.937  10.559  14.202 -0.9166  1.3249 -1.0692
 7730SOL    HW241183   6.980  10.461  14.094  0.6024 -0.1066  0.7510
 7731SOL     OW41184   4.927   0.449   4.231  0.8614  0.7984  0.0663
 7731SOL    HW141185   4.986   0.438   4.306  1.8867  0.4138 -0.7654
 7731SOL    HW241186   4.896   0.360   4.211 -0.0974  1.0100  0.5564
 7732SOL     OW41187   2.452  13.252  11.959  0.5368 -0.4048  0.6300
 7732SOL    HW141188   2.386  13.293  11.903  0.0483 -0.4808  1.1419
 7732SOL    HW241189   2.462  13.164  11.922  0.9580 -0.1258  0.0559
 7733SOL     OW41190  10.480   4.224  12.506 -0.4239  0.0032  0.1988
 7733SOL    HW141191  10.425   4.212  12.428  1.2430  2.1348 -1.4363
 7733SOL    HW241192  10.528   4.142  12.514 -0.0291  0.0112 -1.5705
 7734SOL     OW41193   3.404   5.439   7.607  0.3335 -0.0266 -0.0854
 7734SOL    HW141194   3.432   5.348   7.602  0.4042  0.0605 -1.6840
 7734SOL    HW241195   3.341   5.440   7.679  0.6121 -1.2484  0.2046
 7735SOL     OW41196   5.366   2.123   8.941  0.3790  0.0449  0.2424
 7735SOL    HW141197   5.418   2.190   8.897 -0.7614  0.5104 -0.4350
 7735SOL    HW241198   5.358   2.052   8.876  0.1717 -0.0244  0.3427
 7736SOL     OW41199   1.752   3.934   0.493 -0.2415  0.1717  0.1919
 7736SOL    HW141200   1.820   3.964   0.553  0.3430  0.6959 -0.7075
 7736SOL    HW241201   1.794   3.867   0.440 -0.5511  0.1867 -0.0758
 7737SOL     OW41202   4.243  13.354   0.562  0.9880  0.1645  0.5724
 7737SOL    HW141203   4.231  13.380   0.653  0.4173  0.9448  0.2936
 7737SOL    HW241204   4.246  13.437   0.514  0.8641 -0.2475 -0.1607
 7738SOL     OW41205   6.325   6.470   6.782 -0.3088 -0.5336 -0.2666
 7738SOL    HW141206   6.357   6.534   6.845  0.3316 -1.0170 -0.0892
 7738SOL    HW241207   6.234   6.454   6.807 -0.8230  1.1019 -0.9692
 7739SOL     OW41208   0.057   4.470  11.543  0.3611  0.3063  0.0299
 7739SOL    HW141209   0.112   4.397  11.571 -2.4187 -1.2564  1.8813
 7739SOL    HW241210   0.017   4.439  11.461  1.8534  1.3059 -1.1343
 7740SOL     OW41211   2.313   7.890   9.672  0.3415  0.2096 -0.7672
 7740SOL    HW141212   2.356   7.975   9.662  1.3223 -0.2954 -0.8866
 7740SOL    HW241213   2.238   7.908   9.729  2.3615  0.5622  1.9497
 7741SOL     OW41214   8.206   4.101  14.098 -0.1918  0.1622 -0.1838
 7741SOL    HW141215   8.174   4.011  14.101  1.5294 -0.5107 -0.7829
 7741SOL    HW241216   8.250   4.108  14.013  1.5183  0.8996  0.7124
 7742SOL     OW41217   1.478  13.613   5.495 -0.4319  0.0588 -0.0679
 7742SOL    HW141218   1.529  13.564   5.430  1.0755  2.0265 -0.4286
 7742SOL    HW241219   1.391  13.621   5.454  0.5236  1.4091 -1.9913
 7743SOL     OW41220   9.804   0.364   3.038  0.5876 -0.3045 -0.3203
 7743SOL    HW141221   9.753   0.332   2.963  0.4114  0.2712 -0.4525
 7743SOL    HW241222   9.884   0.399   2.999  0.8243 -0.6677 -0.1672
 7744SOL     OW41223   0.412  11.110  12.415 -0.1212 -0.4493  0.5288
 7744SOL    HW141224   0.402  11.032  12.469  0.8021 -0.5658  0.5519
 7744SOL    HW241225   0.446  11.077  12.332 -2.8869 -0.4544 -0.7194
 7745SOL     OW41226  10.651  12.773  13.186 -0.0853 -0.1970  0.1507
 7745SOL    HW141227  10.691  12.803  13.104  2.0959 -0.8076  0.9396
 7745SOL    HW241228  10.579  12.717  13.158  1.5007 -1.5590 -1.4091
 7746SOL     OW41229   3.512   4.053   1.641 -0.1070 -0.5758 -0.3489
 7746SOL    HW141230   3.512   3.962   1.670 -0.0093 -0.3374  0.4127
 7746SOL    HW241231   3.435   4.092   1.682  0.2703 -0.1239 -0.0521
 7747SOL     OW41232  13.958   5.765   6.322 -0.4369 -0.5153 -0.0489
 7747SOL    HW141233  13.950   5.784   6.415 -1.1449  1.4794 -0.4723
 7747SOL    HW241234  13.899   5.827   6.279 -0.6660 -1.8640 -1.8006
 7748SOL     OW41235   5.850   7.459  12.348  0.1660  0.6274 -0.4084
 7748SOL    HW141236   5.823   7.371  12.375 -1.5507  1.6442  1.4737
 7748SOL    HW241237   5.769   7.509  12.345  1.2590  2.5404  0.1631
 7749SOL     OW41238   6.309   5.516   6.401 -0.2270  0.4549 -0.0495
 7749SOL    HW141239   6.370   5.458   6.355 -1.2417 -1.8982  1.3777
 7749SOL    HW241240   6.226   5.505   6.354 -0.6678 -0.0844  0.8215
 7750SOL     OW41241   4.996   0.640   8.800  0.4475  0.7986 -0.5753
 7750SOL    HW141242   4.946   0.613   8.877  1.7986  1.5329  0.5976
 7750SOL    HW241243   4.930   0.655   8.732 -0.9750  2.2982  1.0748
 7751SOL     OW41244   8.716  11.829   3.259 -0.1334 -0.1669  0.3833
 7751SOL    HW141245   8.730  11.747   3.307 -0.2597 -0.2083  0.3516
 7751SOL    HW241246   8.804  11.858   3.235 -0.0796 -0.2243  0.5097
 7752SOL     OW41247  12.829  10.256   7.307 -0.5476  0.3029 -0.4360
 7752SOL    HW141248  12.895  10.219   7.365 -0.3035  0.7778 -0.4095
 7752SOL    HW241249  12.835  10.350   7.319 -1.0060  0.3704 -0.6788
 7753SOL     OW41250  10.863   0.735  13.072  0.1209  0.4716 -0.1013
 7753SOL    HW141251  10.891   0.811  13.020 -2.2999  0.9211 -0.8973
 7753SOL    HW241252  10.839   0.669  13.007  2.0448 -0.9952  0.5857
 7754SOL     OW41253   3.214   9.319   3.884  1.0508  0.2588  0.0655
 7754SOL    HW141254   3.162   9.397   3.864  1.6465  0.3927 -1.0289
 7754SOL    HW241255   3.294   9.353   3.925  0.7466  0.1224  0.7925
 7755SOL     OW41256   6.670   1.296   6.112 -0.0296 -0.2124  0.1953
 7755SOL    HW141257   6.683   1.365   6.048 -0.5181 -2.0523 -2.0196
 7755SOL    HW241258   6.580   1.309   6.143 -1.3000 -1.5750 -2.5713
 7756SOL     OW41259   6.124   3.909   0.655  0.3675 -0.5205 -0.0098
 7756SOL    HW141260   6.126   3.841   0.588 -2.1589 -1.5534  0.8437
 7756SOL    HW241261   6.050   3.886   0.710  0.1101  2.3338  0.9965
 7757SOL     OW41262   7.461  13.770   3.751 -0.0460 -0.6970  0.5456
 7757SOL    HW141263   7.404  13.763   3.675  0.2142 -0.9824  0.3766
 7757SOL    HW241264   7.436  13.696   3.807 -0.3197 -0.4187  0.7957
 7758SOL     OW41265  13.798   9.982  11.388 -0.1587  0.2759 -0.0678
 7758SOL    HW141266  13.708   9.979  11.357  0.2975  1.4905 -1.6499
 7758SOL    HW241267  13.799  10.051  11.454 -0.5968 -0.5280  0.8028
 7759SOL     OW41268  12.747  11.524   7.258 -0.2963 -0.7182 -0.2532
 7759SOL    HW141269  12.676  11.589   7.260 -1.9420 -2.4329  0.8055
 7759SOL    HW241270  12.802  11.546   7.334  0.7947  1.0712 -1.5014
 7760SOL     OW41271   6.280   7.169  12.004  0.1192 -0.1512  0.3578
 7760SOL    HW141272   6.247   7.241  12.058  0.9656  1.0264 -0.6476
 7760SOL    HW241273   6.208   7.148  11.945  0.3554  0.9051 -0.3385
 7761SOL     OW41274  12.044   2.233  11.120  0.0834 -0.9082 -0.4865
 7761SOL    HW141275  12.007   2.144  11.124  0.7629 -1.1620  0.5723
 7761SOL    HW241276  12.128   2.221  11.075  0.2484 -0.8299 -0.1996
 7762SOL     OW41277   1.783   9.609   9.701 -0.4868 -0.5367  0.0033
 7762SOL    HW141278   1.713   9.570   9.649  0.1541 -2.5193  0.5399
 7762SOL    HW241279   1.738   9.659   9.769 -1.3329  1.6649 -2.0103
 7763SOL     OW41280   2.620  12.080   4.337 -0.0959  0.4745  0.3789
 7763SOL    HW141281   2.611  11.985   4.330  1.2269  0.4086 -0.7678
 7763SOL    HW241282   2.639  12.095   4.430 -2.6698 -0.1201  1.0700
 7764SOL     OW41283   0.872   1.545   7.632  0.0565  0.3556 -0.0592
 7764SOL    HW141284   0.923   1.543   7.713 -0.7867  0.9032  0.5067
 7764SOL    HW241285   0.894   1.463   7.588 -0.4093 -0.5606  1.3268
 7765SOL     OW41286   2.956  12.281   9.734  0.1924  0.8444  0.0937
 7765SOL    HW141287   3.016  12.213   9.764 -1.7907 -0.1518  2.0483
 7765SOL    HW241288   2.887  12.234   9.687 -2.0577  1.1321  2.8228
 7766SOL     OW41289   4.035   8.146  12.024 -0.3790 -0.5421  0.4789
 7766SOL    HW141290   4.015   8.128  12.116 -2.1000 -0.2724  0.1876
 7766SOL    HW241291   4.039   8.059  11.983 -1.8257 -0.5838  0.3934
 7767SOL     OW41292  13.525  13.321   7.012  0.3985 -0.4283  0.4888
 7767SOL    HW141293  13.498  13.391   7.070  2.2981  0.0490  0.8767
 7767SOL    HW241294  13.558  13.366   6.934 -3.0883 -1.0753 -1.5352
 7768SOL     OW41295   4.512   6.933  11.277 -0.4073  0.0256  0.1844
 7768SOL    HW141296   4.593   6.940  11.227 -0.3779 -0.3176  0.1833
 7768SOL    HW241297   4.474   6.850  11.249  0.0067 -0.5555  1.3266
 7769SOL     OW41298   7.057   4.290  11.665  0.2833  0.0517 -0.1309
 7769SOL    HW141299   7.095   4.223  11.722  1.4267 -0.4161 -1.3881
 7769SOL    HW241300   7.089   4.373  11.702  2.3115 -0.3094 -0.9391
 7770SOL     OW41301  12.984  10.941   5.788 -0.5361 -0.1318 -0.1869
 7770SOL    HW141302  12.897  10.953   5.751 -0.8473 -0.2137  0.5154
 7770SOL    HW241303  13.009  10.852   5.762 -1.6244 -1.0006  1.5371
 7771SOL     OW41304   6.660   6.294   9.059 -0.2152 -0.4838 -0.5766
 7771SOL    HW141305   6.727   6.294   8.991 -1.1423 -0.4178 -1.5142
 7771SOL    HW241306   6.704   6.331   9.136  1.2105 -1.7462 -0.7431
 7772SOL     OW41307  13.440   7.612  13.194 -0.2493 -0.5193 -0.2138
 7772SOL    HW141308  13.412   7.690  13.146  0.7466 -0.1962 -0.2974
 7772SOL    HW241309  13.525   7.636  13.231 -0.5254 -1.1214  0.8554
 7773SOL     OW41310   1.466   7.278   7.252  0.9071  0.6921 -0.6432
 7773SOL    HW141311   1.527   7.253   7.322  0.4546  0.0685 -0.4633
 7773SOL    HW241312   1.429   7.195   7.221 -1.0695  1.1327  0.3657
 7774SOL     OW41313  13.194   1.300   0.843  0.0510  0.5809 -0.0589
 7774SOL    HW141314  13.113   1.275   0.889 -0.3311 -1.2679 -1.6234
 7774SOL    HW241315  13.205   1.393   0.863 -3.1319  1.2294 -0.7548
 7775SOL     OW41316   9.245   5.059   1.505  0.1766  0.1296 -0.2553
 7775SOL    HW141317   9.247   5.103   1.590  1.9997  0.5947 -0.5004
 7775SOL    HW241318   9.265   4.968   1.526  1.2456  0.3623 -0.2396
 7776SOL     OW41319  10.157   8.196   3.067  0.4004 -0.4903  0.6444
 7776SOL    HW141320  10.162   8.280   3.112  0.2569  0.8934 -1.7866
 7776SOL    HW241321  10.230   8.145   3.102  0.1155  0.3741  2.6054
 7777SOL     OW41322  13.489   0.038   2.862  0.4376 -0.4271 -0.3677
 7777SOL    HW141323  13.462   0.129   2.878 -2.6772 -1.4189  0.6815
 7777SOL    HW241324  13.513   0.036   2.769 -2.2933  0.9061 -1.1918
 7778SOL     OW41325  13.981   8.983   4.214  0.8417  0.0378  0.0111
 7778SOL    HW141326  14.064   8.994   4.169  0.5737 -1.4530 -0.9260
 7778SOL    HW241327  13.951   9.072   4.232  2.3350  0.6059 -0.1797
 7779SOL     OW41328   6.042   0.219   0.516 -0.4165 -0.5750 -0.1219
 7779SOL    HW141329   5.972   0.175   0.467 -0.7645  0.8478 -0.9618
 7779SOL    HW241330   6.000   0.298   0.551  0.3815 -0.5067  0.7170
 7780SOL     OW41331  10.664   5.754  10.118 -0.0520  0.4811 -0.5579
 7780SOL    HW141332  10.641   5.806  10.041  0.4926  0.6580 -0.6039
 7780SOL    HW241333  10.691   5.818  10.184 -0.5931  0.3378 -0.1869
 7781SOL     OW41334   5.039  11.969   2.086  0.1449 -0.0847  0.6132
 7781SOL    HW141335   4.949  11.991   2.111 -0.3885 -0.6451 -0.7096
 7781SOL    HW241336   5.093  12.032   2.134 -0.7897 -0.9233  2.9215
 7782SOL     OW41337   8.077  13.452   1.083  0.4081  0.6523  0.1723
 7782SOL    HW141338   8.026  13.531   1.063  2.0081  1.4370 -0.9840
 7782SOL    HW241339   8.119  13.471   1.167 -0.7901  0.1758  0.9117
 7783SOL     OW41340   2.629   4.874  13.064  0.1446 -0.0670 -0.2338
 7783SOL    HW141341   2.643   4.918  12.979  1.5275  1.4651  0.7181
 7783SOL    HW241342   2.534   4.864  13.070  0.0392 -0.8944 -2.2613
 7784SOL     OW41343   7.553  11.089   7.686 -0.3622  0.1188  0.3710
 7784SOL    HW141344   7.508  11.130   7.760  0.5251 -0.1979  1.1063
 7784SOL    HW241345   7.646  11.095   7.708 -0.0220  0.7291 -1.0911
 7785SOL     OW41346   9.258   8.738   7.019 -0.0017 -0.0511  0.2237
 7785SOL    HW141347   9.210   8.763   6.941 -1.5805  0.3460  1.2667
 7785SOL    HW241348   9.255   8.643   7.021 -1.7975 -0.0122  0.8584
 7786SOL     OW41349   1.755   4.109   1.341  0.3752 -0.5340  0.0279
 7786SOL    HW141350   1.842   4.106   1.302  0.1639 -0.1948 -0.4928
 7786SOL    HW241351   1.696   4.092   1.267 -0.0580  0.6447  0.0813
 7787SOL     OW41352   7.045   6.583   3.159  0.0837 -0.1480  0.2399
 7787SOL    HW141353   7.135   6.554   3.145 -0.6248 -1.8495 -1.2604
 7787SOL    HW241354   7.022   6.630   3.079 -0.6316 -0.4981  0.2291
 7788SOL     OW41355   1.574   2.425   2.607 -0.0932  0.4033  0.3046
 7788SOL    HW141356   1.566   2.519   2.589 -0.7250  0.6187  1.6055
 7788SOL    HW241357   1.489   2.389   2.582  0.4964 -0.0262 -1.1958
 7789SOL     OW41358   0.153  14.044  10.302  0.0721  0.3598  0.2913
 7789SOL    HW141359   0.229  14.102  10.298 -1.1210  1.9688 -3.8495
 7789SOL    HW241360   0.169  13.978  10.234 -1.8229  0.2043 -0.0424
 7790SOL     OW41361  13.892   0.251   9.650  0.4742  0.2287  0.3921
 7790SOL    HW141362  13.980   0.234   9.685  0.3484  0.0853  0.6392
 7790SOL    HW241363  13.890   0.204   9.567  1.4744  2.1756 -0.8162
 7791SOL     OW41364   2.395  11.041   5.160 -0.9335  0.2452 -0.3305
 7791SOL    HW141365   2.402  11.133   5.134  1.1443  0.0210 -0.7148
 7791SOL    HW241366   2.472  11.026   5.214 -0.2523 -1.7572 -1.7900
 7792SOL     OW41367   7.574   2.582  12.136 -0.1202 -0.0867  0.5906
 7792SOL    HW141368   7.491   2.620  12.163 -0.2546  0.1302 -0.1145
 7792SOL    HW241369   7.616   2.651  12.083 -0.6176 -1.0874 -1.1842
 7793SOL     OW41370   2.714  13.838   8.585 -0.2436 -0.3527  0.1377
 7793SOL    HW141371   2.771  13.869   8.515 -0.4144 -1.6406 -0.6089
 7793SOL    HW241372   2.629  13.877   8.566 -0.0439  0.1400  0.2377
 7794SOL     OW41373   0.083  11.657   7.955  0.4237 -0.0402  0.1487
 7794SOL    HW141374   0.038  11.658   8.039  0.1051  0.7556 -0.0232
 7794SOL    HW241375   0.115  11.747   7.943 -3.1829  1.1106 -2.5081
 7795SOL     OW41376  13.717   1.597  13.807 -0.2059  0.3695  0.3145
 7795SOL    HW141377  13.652   1.547  13.858  0.1906  0.7123  1.1841
 7795SOL    HW241378  13.782   1.624  13.872  0.5382  0.4753 -0.4571
 7796SOL     OW41379  12.465   8.332   6.947  0.2820 -0.0490 -0.1747
 7796SOL    HW141380  12.527   8.322   6.874  0.1123  0.8617 -0.4503
 7796SOL    HW241381  12.514   8.379   7.014 -0.6831  2.5892 -1.1933
 7797SOL     OW41382   9.592   6.762   6.870  0.6845  0.1176 -0.5823
 7797SOL    HW141383   9.599   6.694   6.937 -1.0204 -0.3948 -0.8729
 7797SOL    HW241384   9.503   6.753   6.836  0.3090  2.6514 -0.4656
 7798SOL     OW41385   8.928  13.123   1.593  0.0978 -0.4224  0.3413
 7798SOL    HW141386   8.903  13.124   1.685  2.6822 -1.7164  1.1459
 7798SOL    HW241387   8.881  13.049   1.556  1.6623 -2.0902  1.5227
 7799SOL     OW41388   4.141   2.271   9.788  0.4925  0.2994 -0.9062
 7799SOL    HW141389   4.170   2.274   9.879 -1.3159  0.5974 -0.3018
 7799SOL    HW241390   4.199   2.207   9.746  1.0313 -0.2003  0.5628
 7800SOL     OW41391  11.507   6.456   7.661 -0.2471 -0.1713  0.2119
 7800SOL    HW141392  11.419   6.468   7.623 -1.4602 -0.5402  2.6779
 7800SOL    HW241393  11.564   6.510   7.606 -2.0228  0.1821 -1.4022
 7801SOL     OW41394   9.132  11.987  11.574 -0.8349  0.5852 -0.7608
 7801SOL    HW141395   9.102  11.958  11.660  0.5652  1.3974  0.0199
 7801SOL    HW241396   9.181  12.067  11.590 -0.8149  0.9345 -2.3576
 7802SOL     OW41397   9.406   8.147   3.351  0.2248  0.5339  0.5542
 7802SOL    HW141398   9.478   8.124   3.293 -0.6218 -0.8803  0.0075
 7802SOL    HW241399   9.328   8.139   3.297 -0.5585 -0.5055  1.7921
 7803SOL     OW41400   9.479   2.174   0.292  0.0843  0.2982  0.1289
 7803SOL    HW141401   9.530   2.115   0.237 -1.2830 -0.2981 -0.5647
 7803SOL    HW241402   9.497   2.262   0.257  0.5529  0.0922 -0.1517
 7804SOL     OW41403  12.432   4.478   9.302 -0.2900 -0.4819 -0.1754
 7804SOL    HW141404  12.361   4.519   9.350 -0.2514  0.4353 -0.8852
 7804SOL    HW241405  12.478   4.550   9.259 -0.4934 -1.2833 -1.8181
 7805SOL     OW41406   8.916  13.591   8.449  0.7874 -0.0432  0.5816
 7805SOL    HW141407   8.863  13.517   8.480 -2.4246  1.7641 -0.1115
 7805SOL    HW241408   8.920  13.579   8.354 -0.9304  1.2817  0.2977
 7806SOL     OW41409   5.837   7.096   0.206  0.2986 -0.4631  0.3470
 7806SOL    HW141410   5.741   7.096   0.201  0.2397 -0.0866  1.3659
 7806SOL    HW241411   5.859   7.012   0.245  0.4400 -0.9270 -0.7105
 7807SOL     OW41412   9.005  10.507  10.984  0.5298  0.0624  0.2290
 7807SOL    HW141413   9.022  10.593  10.944 -1.5416  1.2943  1.7978
 7807SOL    HW241414   9.059  10.507  11.064  2.4400 -1.1999 -0.9842
 7808SOL     OW41415   2.683   7.774   5.930 -0.2075  0.6054  0.1777
 7808SOL    HW141416   2.673   7.759   6.024 -2.9590 -1.9859 -0.3709
 7808SOL    HW241417   2.765   7.730   5.908 -0.5960 -0.6336  1.0674
 7809SOL     OW41418  10.006  11.402  12.697 -0.7872  0.2333 -0.0639
 7809SOL    HW141419   9.974  11.351  12.772  0.0903  0.6073  0.5940
 7809SOL    HW241420  10.087  11.357  12.671  1.0195  2.2519  1.7024
 7810SOL     OW41421  11.674   0.968   8.926  0.0477 -0.5538  0.3404
 7810SOL    HW141422  11.744   0.921   8.971  2.4484 -0.3801 -2.8855
 7810SOL    HW241423  11.628   0.901   8.876  1.0442 -0.0721 -1.2856
 7811SOL     OW41424   7.799   7.204  13.318 -0.2108 -0.0608  0.2797
 7811SOL    HW141425   7.718   7.195  13.268  0.0839 -1.3642 -0.0179
 7811SOL    HW241426   7.844   7.120  13.305  0.9928  0.4858  0.7704
 7812SOL     OW41427   8.913   6.318   0.106 -0.2055  0.3274 -0.0407
 7812SOL    HW141428   8.858   6.386   0.143  2.0308  0.6874  3.0243
 7812SOL    HW241429   8.872   6.236   0.134 -0.2318  0.5442  0.5629
 7813SOL     OW41430   3.329   1.592   0.592 -0.1147  0.0656 -0.0907
 7813SOL    HW141431   3.391   1.596   0.519 -2.0050  2.1040 -1.7191
 7813SOL    HW241432   3.316   1.683   0.618 -0.6882 -0.4995  1.7740
 7814SOL     OW41433   4.813   6.365  10.619  0.2621 -0.1791  0.2710
 7814SOL    HW141434   4.786   6.417  10.694  1.5736  1.0496 -0.0666
 7814SOL    HW241435   4.734   6.319  10.592 -0.6265  0.6577  1.3622
 7815SOL     OW41436   5.336   8.707   1.425 -0.1510  0.1377  0.4070
 7815SOL    HW141437   5.432   8.711   1.417 -0.2412 -1.1682 -2.6274
 7815SOL    HW241438   5.321   8.638   1.490  0.9491  0.5428  1.1276
 7816SOL     OW41439  10.182   1.453  10.940 -0.7631 -0.3121  0.4622
 7816SOL    HW141440  10.089   1.462  10.919 -0.2726  0.6202 -1.4799
 7816SOL    HW241441  10.206   1.366  10.907 -1.0058 -0.7047  1.2945
 7817SOL     OW41442  12.600   3.340  11.597 -0.1204 -0.2590 -0.4245
 7817SOL    HW141443  12.521   3.385  11.568  0.0498 -0.0257 -0.5347
 7817SOL    HW241444  12.574   3.249  11.608  0.0510 -0.5842 -2.3509
 7818SOL     OW41445   8.344  10.790   6.485  0.8393 -0.5816  0.3013
 7818SOL    HW141446   8.337  10.778   6.579 -0.3049  0.1755  0.3302
 7818SOL    HW241447   8.264  10.836   6.460  1.5667  0.1145 -0.8840
 7819SOL     OW41448   0.802   9.115   3.105  0.2180  0.3872  0.4985
 7819SOL    HW141449   0.809   9.146   3.195  0.3447 -0.4396  0.7773
 7819SOL    HW241450   0.809   9.020   3.111 -1.6460  0.1524 -0.1799
 7820SOL     OW41451   3.663   1.191   9.310  0.2946  0.1289  0.2079
 7820SOL    HW141452   3.572   1.164   9.298  0.3846 -0.3961  0.6603
 7820SOL    HW241453   3.700   1.189   9.221  0.4225 -1.7396  0.2575
 7821SOL     OW41454  12.492   5.855  10.852 -0.0455  0.2623 -0.4368
 7821SOL    HW141455  12.490   5.809  10.936 -0.4317 -1.4520 -1.3269
 7821SOL    HW241456  12.403   5.848  10.818  0.1651  0.7004 -1.1082
 7822SOL     OW41457   4.320   2.492   6.745 -0.0339  0.5838  0.3757
 7822SOL    HW141458   4.236   2.449   6.761 -0.2386  1.8083  3.2104
 7822SOL    HW241459   4.361   2.497   6.832  2.8289  0.3450 -0.8698
 7823SOL     OW41460   0.988   2.610  10.457 -0.0056 -0.5077  0.3193
 7823SOL    HW141461   0.918   2.563  10.411 -0.7296  2.0737 -1.4069
 7823SOL    HW241462   0.953   2.624  10.545 -0.8704 -0.8623  0.0486
 7824SOL     OW41463   6.370   0.530   5.737 -0.7398  0.0467 -0.3736
 7824SOL    HW141464   6.460   0.551   5.761 -0.8436  1.9601 -1.4471
 7824SOL    HW241465   6.319   0.603   5.773 -1.9925 -1.3980  0.8819
 7825SOL     OW41466   6.182   7.340   2.763  0.5507  0.2349  0.0193
 7825SOL    HW141467   6.181   7.361   2.856  1.1266  1.7106 -0.2938
 7825SOL    HW241468   6.170   7.245   2.760 -0.1163  0.2492  1.5606
 7826SOL     OW41469   9.579   8.954  13.741  0.6920 -0.8141 -0.3073
 7826SOL    HW141470   9.597   8.941  13.648 -0.3230 -2.1933 -0.3484
 7826SOL    HW241471   9.601   8.870  13.782 -0.0867 -0.6538  0.4876
 7827SOL     OW41472   1.331  10.228  11.697 -0.1606  0.4803 -1.0710
 7827SOL    HW141473   1.257  10.196  11.749  0.1864 -1.3739 -1.6335
 7827SOL    HW241474   1.384  10.277  11.760 -0.4537 -0.5366  0.0267
 7828SOL     OW41475   2.940   2.742   4.419 -0.6904  0.3526  0.0026
 7828SOL    HW141476   2.891   2.660   4.429  1.4560 -1.2924 -1.7324
 7828SOL    HW241477   2.888   2.794   4.358 -1.8145  0.1104  0.7093
 7829SOL     OW41478  10.550   8.864  11.871 -0.5642  0.2218  0.1906
 7829SOL    HW141479  10.542   8.847  11.965 -1.2959 -0.1151  0.0713
 7829SOL    HW241480  10.512   8.788  11.829  3.7923 -1.8985 -0.4978
 7830SOL     OW41481   1.192  11.821   0.051  0.1710  0.1344  0.2625
 7830SOL    HW141482   1.206  11.729   0.075 -2.3109 -0.1199  1.1378
 7830SOL    HW241483   1.139  11.817  -0.028 -0.0462  0.7994  0.3711
 7831SOL     OW41484   6.721  14.039   2.890  0.1532  0.0246 -1.3968
 7831SOL    HW141485   6.801  14.071   2.932  0.0348 -2.3519  0.9147
 7831SOL    HW241486   6.751  13.973   2.828  0.0554  0.0034 -1.4220
 7832SOL     OW41487   2.368  10.780   3.704  0.8826 -0.5148 -0.2552
 7832SOL    HW141488   2.327  10.694   3.714  0.7716 -0.5200 -0.7379
 7832SOL    HW241489   2.442  10.779   3.766 -0.4733 -0.0998  1.4508
 7833SOL     OW41490   8.161   2.866  12.173  0.0797  0.6173  0.2500
 7833SOL    HW141491   8.079   2.910  12.193 -0.3193  0.4494 -0.9305
 7833SOL    HW241492   8.171   2.876  12.078 -0.1228 -1.9713 -0.1168
 7834SOL     OW41493   5.655   6.576   4.172  0.4621  0.2761  0.1618
 7834SOL    HW141494   5.731   6.547   4.122  1.2975 -0.2571  1.6589
 7834SOL    HW241495   5.648   6.670   4.153 -0.6688 -0.2890 -2.6861
 7835SOL     OW41496  12.942   1.144  12.107 -0.0680 -0.0287  0.1046
 7835SOL    HW141497  13.001   1.083  12.151 -0.9570 -0.8842  0.1526
 7835SOL    HW241498  12.865   1.091  12.085 -0.5109  0.8812 -0.6111
 7836SOL     OW41499   5.272   7.460  12.313  0.0764  0.4073 -0.3837
 7836SOL    HW141500   5.270   7.444  12.218  1.3372 -0.3541 -0.2990
 7836SOL    HW241501   5.357   7.426  12.341 -0.4548  0.2553  1.0965
 7837SOL     OW41502   8.565   6.454   6.712  0.8324 -0.1615  0.0741
 7837SOL    HW141503   8.594   6.428   6.624  0.9983  1.1591 -0.2967
 7837SOL    HW241504   8.510   6.531   6.696 -0.0212 -0.5568  1.0550
 7838SOL     OW41505  12.931   5.760   3.390  0.0364 -0.4302  0.7900
 7838SOL    HW141506  12.957   5.739   3.300  1.7612  0.3234  1.0651
 7838SOL    HW241507  12.939   5.677   3.437  1.5712 -0.3389  0.7473
 7839SOL     OW41508   0.250   5.631  11.537 -0.2558 -0.1713  0.1808
 7839SOL    HW141509   0.288   5.544  11.553 -1.8708 -0.9947 -0.2927
 7839SOL    HW241510   0.181   5.639  11.603 -0.4143  0.5606 -0.0720
 7840SOL     OW41511  10.388   3.640   6.304 -0.1995 -0.2492  0.3712
 7840SOL    HW141512  10.335   3.718   6.318 -1.2884 -0.4466 -2.2045
 7840SOL    HW241513  10.326   3.567   6.313  0.1462 -0.6346 -0.2960
 7841SOL     OW41514   6.187  11.821  10.234 -0.1335  0.3278 -0.0643
 7841SOL    HW141515   6.093  11.831  10.221 -0.2992  1.3473  1.5392
 7841SOL    HW241516   6.194  11.776  10.319  0.8107  0.8715  0.1623
 7842SOL     OW41517  11.674   5.174  10.066 -0.9493  0.6323 -0.5138
 7842SOL    HW141518  11.717   5.254  10.098 -0.8852 -0.4531  2.4157
 7842SOL    HW241519  11.743   5.128  10.018 -0.8647  2.0524 -1.8570
 7843SOL     OW41520   8.065   6.095  13.055  0.2480  0.2768  0.6459
 7843SOL    HW141521   8.125   6.122  12.985  2.2902  0.0149  2.1968
 7843SOL    HW241522   8.077   6.000  13.061 -1.6795 -0.0703 -0.1402
 7844SOL     OW41523  10.910   9.530   7.254  0.5680 -0.0687  0.4870
 7844SOL    HW141524  10.914   9.515   7.160  1.8029  1.8332  0.1810
 7844SOL    HW241525  10.817   9.527   7.276  0.2894 -0.7979 -0.7292
 7845SOL     OW41526   2.653  12.892   5.017  0.2977  0.7599  0.0583
 7845SOL    HW141527   2.718  12.909   5.086  1.3028  0.1631 -0.7160
 7845SOL    HW241528   2.705  12.870   4.940 -0.8115  1.3614 -0.8922
 7846SOL     OW41529   2.856   1.035   4.857  0.1430 -0.5469  0.1310
 7846SOL    HW141530   2.811   1.003   4.779  0.1360 -0.0471 -0.0706
 7846SOL    HW241531   2.936   0.983   4.861 -0.7801 -1.9892  0.9193
 7847SOL     OW41532   3.686   1.817  13.852 -0.4894 -0.4367 -0.3513
 7847SOL    HW141533   3.776   1.823  13.821  0.3124  0.3634  1.9843
 7847SOL    HW241534   3.636   1.875  13.793  0.9136  0.8842 -0.2816
 7848SOL     OW41535   1.632   4.929   3.815 -0.1664  0.3085  0.0091
 7848SOL    HW141536   1.660   4.850   3.860 -0.2725 -0.6504 -1.5229
 7848SOL    HW241537   1.707   4.956   3.763 -0.1354  1.2308  0.5004
 7849SOL     OW41538   6.334   9.570   7.431  0.7458  0.3765  0.3511
 7849SOL    HW141539   6.361   9.493   7.381  0.4185  0.0133  0.7286
 7849SOL    HW241540   6.244   9.586   7.404  0.6065  0.2465  0.7440
 7850SOL     OW41541   3.636   6.271  11.771  0.2687 -0.4846  0.0687
 7850SOL    HW141542   3.677   6.202  11.823 -0.0208 -1.8598 -1.4569
 7850SOL    HW241543   3.566   6.226  11.723 -3.3095  1.7588  2.6973
 7851SOL     OW41544   9.885   1.505  11.811  0.5246 -0.1162 -0.1786
 7851SOL    HW141545   9.794   1.485  11.789  0.3736  0.4537 -0.0706
 7851SOL    HW241546   9.921   1.543  11.731  0.3116  0.8354  0.1685
 7852SOL     OW41547   6.355   8.897   3.921  0.6098  0.0554  0.0747
 7852SOL    HW141548   6.433   8.850   3.950  0.2853  0.0931  1.0587
 7852SOL    HW241549   6.388   8.970   3.868  1.2157 -0.1597  0.1581
 7853SOL     OW41550  10.755  10.240   9.023  0.1134 -0.0762  0.1320
 7853SOL    HW141551  10.695  10.277   9.089  1.6080  2.0766  0.3802
 7853SOL    HW241552  10.703  10.239   8.942 -1.0654 -0.7136  0.8669
 7854SOL     OW41553   6.753   0.344  12.075 -0.0183  0.0820 -0.5005
 7854SOL    HW141554   6.776   0.272  12.016 -0.1725 -0.5070  0.1576
 7854SOL    HW241555   6.816   0.413  12.053  1.4344 -0.9675  0.2392
 7855SOL     OW41556   9.379   0.194   1.267  0.5162 -0.2002  0.3815
 7855SOL    HW141557   9.434   0.150   1.332 -0.5496 -3.2190 -0.5638
 7855SOL    HW241558   9.412   0.163   1.183 -0.4842  0.6267 -0.3360
 7856SOL     OW41559   3.654  11.210  10.642 -0.0603  0.8088  0.2633
 7856SOL    HW141560   3.674  11.218  10.548 -0.1035  1.4999  0.3017
 7856SOL    HW241561   3.631  11.299  10.668  0.7581  0.7893  1.1154
 7857SOL     OW41562   2.154   0.953   7.874 -0.0937  0.2506 -0.7198
 7857SOL    HW141563   2.165   0.890   7.803 -1.0797 -1.3447  0.4576
 7857SOL    HW241564   2.227   0.933   7.934  0.9932  1.8773 -1.4318
 7858SOL     OW41565   8.676  13.960  11.689 -0.6063  0.6382  0.4593
 7858SOL    HW141566   8.682  13.864  11.682  1.8294  0.8398 -2.0315
 7858SOL    HW241567   8.746  13.984  11.749 -0.0918  0.9043 -0.2241
 7859SOL     OW41568  12.904   8.853   2.507 -0.0955  0.4263 -0.5070
 7859SOL    HW141569  12.860   8.865   2.591  0.5636 -1.4203  0.1523
 7859SOL    HW241570  12.877   8.766   2.478  1.7365 -0.0636 -0.9036
 7860SOL     OW41571   6.553  12.565   9.670 -0.2792 -0.4010  0.3231
 7860SOL    HW141572   6.590  12.529   9.589  0.3343  1.5890 -0.3467
 7860SOL    HW241573   6.525  12.653   9.646  0.2854  0.3869  2.3923
 7861SOL     OW41574   9.836   0.956   8.886 -0.1618  0.1169  0.4859
 7861SOL    HW141575   9.775   0.938   8.814  0.8649  2.4824 -1.1267
 7861SOL    HW241576   9.808   0.899   8.957 -1.9125 -1.5483 -1.4279
 7862SOL     OW41577  13.573  10.650   7.994  0.2536  0.2408  0.1090
 7862SOL    HW141578  13.626  10.653   8.074 -1.0826  0.1182  1.0335
 7862SOL    HW241579  13.528  10.566   7.999 -1.0659  0.9245  0.0463
 7863SOL     OW41580   0.418   6.389   0.014 -0.2783 -0.3409 -0.3180
 7863SOL    HW141581   0.385   6.362   0.100 -1.3225  0.0085 -0.5891
 7863SOL    HW241582   0.426   6.484   0.020  0.6769 -0.4134 -0.2746
 7864SOL     OW41583  10.040   6.827   0.726 -0.6376 -0.4633 -0.2215
 7864SOL    HW141584  10.099   6.764   0.684 -0.5202 -0.9417  0.6483
 7864SOL    HW241585  10.076   6.839   0.814 -1.1954  0.1073 -0.0654
 7865SOL     OW41586   1.202   2.673  12.809 -0.0955  1.3357 -0.5126
 7865SOL    HW141587   1.215   2.768  12.813 -0.3557  1.3626 -0.2696
 7865SOL    HW241588   1.228   2.641  12.895 -0.1641  1.2051 -0.5401
 7866SOL     OW41589   6.474   1.089   3.100  0.2637  0.4859 -0.1566
 7866SOL    HW141590   6.436   1.042   3.026  0.8610  0.5930 -0.5347
 7866SOL    HW241591   6.540   1.029   3.135  0.0328  0.4652  0.2431
 7867SOL     OW41592  11.520  13.775   5.104 -0.3218  0.0743  0.1139
 7867SOL    HW141593  11.581  13.750   5.034  0.7785  0.8625  0.7650
 7867SOL    HW241594  11.464  13.842   5.064  0.9606  1.2639  0.2581
 7868SOL     OW41595   1.864  12.157  13.994  0.5286  0.8063  0.8284
 7868SOL    HW141596   1.871  12.246  14.027  2.5245  0.9646  0.1634
 7868SOL    HW241597   1.952  12.137  13.962 -0.2164 -0.8891 -0.3333
 7869SOL     OW41598  12.619   4.024  10.607  0.3493 -0.2140  0.4458
 7869SOL    HW141599  12.614   3.933  10.578 -1.3939 -0.5635  1.6963
 7869SOL    HW241600  12.547   4.034  10.668  0.7692  1.9110  0.6802
 7870SOL     OW41601   5.196  10.379   4.084  0.3867 -0.0786  0.0456
 7870SOL    HW141602   5.209  10.423   4.167  1.1879  0.6775 -0.4600
 7870SOL    HW241603   5.101  10.370   4.076  0.2998 -0.0968  0.9958
 7871SOL     OW41604   2.195   7.014   3.169 -0.4505 -0.1039 -0.6079
 7871SOL    HW141605   2.289   7.000   3.180 -0.3336 -0.1333 -1.5487
 7871SOL    HW241606   2.156   6.987   3.253  0.4141  0.3450 -0.0487
 7872SOL     OW41607   3.907   5.058   6.868 -0.5574  0.2483  0.1548
 7872SOL    HW141608   3.938   5.145   6.844 -1.9652  0.3859 -1.3355
 7872SOL    HW241609   3.815   5.070   6.890 -0.8202 -0.8794 -0.2560
 7873SOL     OW41610   4.731   7.166   6.887 -0.5295  0.0427 -0.3640
 7873SOL    HW141611   4.735   7.202   6.975 -1.8081 -0.7149  0.0215
 7873SOL    HW241612   4.652   7.113   6.885 -0.6027  0.1356 -2.0150
 7874SOL     OW41613   2.781   8.046   6.017  0.1242  0.1991  0.1711
 7874SOL    HW141614   2.781   7.972   5.955 -1.1648  1.1025 -0.9554
 7874SOL    HW241615   2.757   8.122   5.964 -3.0696  0.7148  2.1116
 7875SOL     OW41616   9.278   4.794   5.039  0.8431  0.1262 -0.5037
 7875SOL    HW141617   9.344   4.766   5.101  0.2848  0.5826  0.3172
 7875SOL    HW241618   9.209   4.727   5.045  0.3530  0.6733  0.0906
 7876SOL     OW41619  11.283   0.894  12.816 -0.7819  0.2770 -0.4030
 7876SOL    HW141620  11.378   0.900  12.810 -0.6261 -0.7618  0.6742
 7876SOL    HW241621  11.251   0.943  12.741  0.5841  1.4521 -0.2630
 7877SOL     OW41622   6.390   1.821   1.929 -0.4298  0.0145  0.0894
 7877SOL    HW141623   6.485   1.811   1.928 -0.4413 -0.6358  2.0950
 7877SOL    HW241624   6.376   1.914   1.948 -0.3035  0.9703 -3.5551
 7878SOL     OW41625   8.093  10.319   9.455 -0.6602  0.1300  0.3771
 7878SOL    HW141626   8.019  10.379   9.443  0.4245  1.1986 -1.5390
 7878SOL    HW241627   8.053  10.234   9.469 -2.2592  0.7907  0.0642
 7879SOL     OW41628   4.135   9.962  12.248  0.3740  0.4265  0.2476
 7879SOL    HW141629   4.172   9.984  12.334 -0.7835  1.9710  0.3887
 7879SOL    HW241630   4.186  10.014  12.186 -0.2406  1.0713  0.2576
 7880SOL     OW41631   1.790   1.228  11.392 -0.8121  0.4218  0.2527
 7880SOL    HW141632   1.812   1.157  11.331  1.3821  2.2360 -1.2425
 7880SOL    HW241633   1.843   1.209  11.470 -0.4576  0.2746 -0.0203
 7881SOL     OW41634  13.735   1.224   5.956 -0.5220 -0.0272  0.4362
 7881SOL    HW141635  13.792   1.211   6.031 -0.5628  0.8552  0.6327
 7881SOL    HW241636  13.701   1.137   5.935 -0.5797 -0.2683  1.4968
 7882SOL     OW41637   6.633  11.715   4.220 -0.1663 -0.5248 -0.4028
 7882SOL    HW141638   6.647  11.803   4.254 -0.6837 -0.4630 -0.3447
 7882SOL    HW241639   6.694  11.709   4.145  0.7499 -0.5595  0.3256
 7883SOL     OW41640   1.692   3.143   7.480 -0.2711  0.0135 -0.0515
 7883SOL    HW141641   1.760   3.117   7.418 -0.6765  0.0292 -0.5111
 7883SOL    HW241642   1.701   3.238   7.487  0.3414 -0.0867  0.5937
 7884SOL     OW41643   8.402   5.439  13.017  0.9590 -0.1535  0.3306
 7884SOL    HW141644   8.497   5.434  13.007  0.8899  1.7600 -2.1646
 7884SOL    HW241645   8.370   5.468  12.932 -1.5858  2.1862  1.9234
 7885SOL     OW41646  10.939   2.514  11.445  0.1438  0.0780  0.3193
 7885SOL    HW141647  10.966   2.507  11.537 -0.0420  0.9908  0.4553
 7885SOL    HW241648  10.855   2.559  11.448  0.4296  0.6807 -0.3295
 7886SOL     OW41649   2.619  10.421   9.409 -0.5981 -0.5395 -0.2663
 7886SOL    HW141650   2.526  10.444   9.413 -0.2268  1.0220  2.1685
 7886SOL    HW241651   2.624  10.332   9.444 -1.1774 -0.5532 -0.2155
 7887SOL     OW41652   7.830   4.717   5.554 -0.0611  0.3410 -0.7447
 7887SOL    HW141653   7.755   4.756   5.508 -0.0240 -0.1600 -1.2528
 7887SOL    HW241654   7.790   4.654   5.614 -0.0582  0.0202 -1.0681
 7888SOL     OW41655   1.727   9.280  12.276 -0.4443 -0.0622 -0.1569
 7888SOL    HW141656   1.805   9.322  12.312 -1.3316  1.7519 -0.2143
 7888SOL    HW241657   1.740   9.187  12.292  2.0230  0.1134 -0.7958
 7889SOL     OW41658   5.785   6.687   9.681  0.1462  0.1512  0.0033
 7889SOL    HW141659   5.808   6.671   9.590  0.4082  1.5891 -0.2112
 7889SOL    HW241660   5.778   6.600   9.720  0.0202 -0.4842 -1.3821
 7890SOL     OW41661   4.102  13.877   3.540  0.1904 -0.5158 -0.1039
 7890SOL    HW141662   4.041  13.950   3.533  0.1180 -0.4043  1.3093
 7890SOL    HW241663   4.180  13.906   3.493 -0.1764  0.1069 -0.3316
 7891SOL     OW41664  10.440  11.601  10.385  0.3172  0.0077 -0.0987
 7891SOL    HW141665  10.372  11.619  10.451 -2.7962  0.3735 -3.1083
 7891SOL    HW241666  10.393  11.558  10.314  3.5151 -0.5768 -2.0302
 7892SOL     OW41667   1.589  12.634  10.531 -0.7432  0.3505  0.3490
 7892SOL    HW141668   1.616  12.719  10.567 -1.1827  0.5675  0.1859
 7892SOL    HW241669   1.502  12.619  10.570  0.3550 -1.2238  2.3492
 7893SOL     OW41670   4.271   1.390   5.365  0.9809 -0.1411 -0.5020
 7893SOL    HW141671   4.322   1.314   5.393 -0.4203 -1.3424 -1.0799
 7893SOL    HW241672   4.322   1.427   5.293  0.5677 -1.9539 -1.7842
 7894SOL     OW41673  10.114   6.154   7.953  0.9639  0.1607  0.4340
 7894SOL    HW141674  10.116   6.068   7.913  0.3711  0.0648  0.5948
 7894SOL    HW241675  10.170   6.147   8.030  2.2224  0.3903 -0.4434
 7895SOL     OW41676   5.623   4.650   8.835 -0.2244 -0.1321 -0.4628
 7895SOL    HW141677   5.540   4.656   8.881 -0.5204 -1.7794 -0.7119
 7895SOL    HW241678   5.609   4.699   8.753 -0.1165  1.6651  0.5398
 7896SOL     OW41679   7.746   0.970  11.471 -0.1493 -0.0052  0.1144
 7896SOL    HW141680   7.743   1.037  11.402  0.8774  1.2679  1.2554
 7896SOL    HW241681   7.654   0.961  11.499 -0.2747  1.1189  0.1047
 7897SOL     OW41682   8.048  10.505   2.128 -0.4856 -0.1401 -0.1255
 7897SOL    HW141683   8.097  10.475   2.204 -0.4723  2.4769  1.0097
 7897SOL    HW241684   8.016  10.591   2.153 -3.9321 -0.8375 -1.6019
 7898SOL     OW41685  13.017   8.161  10.151  0.1468 -0.0419 -0.3186
 7898SOL    HW141686  13.027   8.164  10.246 -1.3421  1.9670 -0.1691
 7898SOL    HW241687  12.933   8.203  10.134 -1.3359 -3.4518 -2.3259
 7899SOL     OW41688  13.606   3.945   1.939  0.3085  0.0112 -0.3604
 7899SOL    HW141689  13.591   3.883   1.867  2.1690  1.0206 -1.7048
 7899SOL    HW241690  13.697   3.972   1.928  0.2834  1.1212  1.6972
 7900SOL     OW41691   6.683   8.819   3.646  0.0038  0.0811 -0.3514
 7900SOL    HW141692   6.651   8.751   3.704 -1.4375 -1.4491 -2.7880
 7900SOL    HW241693   6.747   8.775   3.590  1.4353  1.5280  0.0705
 7901SOL     OW41694   2.205  11.714  13.473  0.3120  0.1382  0.1196
 7901SOL    HW141695   2.294  11.686  13.495  0.2936  1.5011  2.2754
 7901SOL    HW241696   2.164  11.635  13.437  1.4389 -1.5114  2.1569
 7902SOL     OW41697   3.609  11.065   5.760  1.1971 -0.2827 -0.2853
 7902SOL    HW141698   3.530  11.103   5.799  1.5513 -0.1564  0.3264
 7902SOL    HW241699   3.654  11.022   5.833  1.5496 -0.5972 -0.6826
 7903SOL     OW41700   5.230   7.317   1.413  0.0727  0.0460 -0.4535
 7903SOL    HW141701   5.253   7.391   1.469 -0.6124  0.7768 -1.1237
 7903SOL    HW241702   5.299   7.314   1.347 -0.3893  0.6954 -0.9867
 7904SOL     OW41703  10.792   1.229   2.000 -0.4382  0.0193 -0.2927
 7904SOL    HW141704  10.717   1.170   1.993  0.2950 -0.7332 -3.0709
 7904SOL    HW241705  10.794   1.275   1.916  2.1350  0.1081 -0.2571
 7905SOL     OW41706   1.181   6.514   1.951 -0.3444 -0.4563  0.6101
 7905SOL    HW141707   1.111   6.537   1.890 -0.2228 -1.9063 -0.1195
 7905SOL    HW241708   1.258   6.500   1.895 -0.4804 -2.8379  0.9216
 7906SOL     OW41709   3.600   9.239  11.755 -0.5797 -0.1468 -0.0155
 7906SOL    HW141710   3.614   9.155  11.712 -1.1800 -0.9335  1.2903
 7906SOL    HW241711   3.554   9.218  11.836 -1.8356  1.5533 -0.2247
 7907SOL     OW41712  12.571   6.378  13.238  0.0150 -0.1824 -0.0769
 7907SOL    HW141713  12.565   6.473  13.229 -1.1277 -0.3378 -1.1322
 7907SOL    HW241714  12.663   6.358  13.218 -0.1297  0.5361 -1.6223
 7908SOL     OW41715  12.237   0.485   1.398  0.1143  1.0949 -0.1506
 7908SOL    HW141716  12.258   0.534   1.319 -1.6102  0.9322 -0.7452
 7908SOL    HW241717  12.250   0.394   1.374  0.7442  1.1015  0.1394
 7909SOL     OW41718   3.133   9.775   4.705 -0.0537  0.6453 -0.1232
 7909SOL    HW141719   3.133   9.811   4.793 -0.7012 -0.4495  0.3479
 7909SOL    HW241720   3.199   9.826   4.658  1.7546 -0.0319  1.5341
 7910SOL     OW41721   6.089   2.469   9.496 -0.2529 -0.2334  0.0915
 7910SOL    HW141722   6.059   2.399   9.439 -0.7414 -0.3035  0.4257
 7910SOL    HW241723   6.032   2.463   9.573 -0.5551  0.7710 -0.0419
 7911SOL     OW41724  10.382   3.760  13.035  0.2236  0.0300 -0.1307
 7911SOL    HW141725  10.421   3.740  12.950 -0.8748 -0.0063 -0.6417
 7911SOL    HW241726  10.443   3.723  13.099 -0.4551 -2.7300 -0.9571
 7912SOL     OW41727   6.413   6.434   5.199 -0.0328  0.1042 -0.5289
 7912SOL    HW141728   6.498   6.413   5.238 -0.1317 -0.7719 -0.7681
 7912SOL    HW241729   6.349   6.411   5.266 -0.0451  2.1376  0.2291
 7913SOL     OW41730   6.394   9.357   7.266 -0.5959  0.3893 -0.2663
 7913SOL    HW141731   6.356   9.270   7.277  2.3935 -0.8920  0.8101
 7913SOL    HW241732   6.452   9.349   7.191 -2.8386  2.5436 -2.4339
 7914SOL     OW41733   7.126  12.956   0.523 -0.4820 -0.3273 -0.2044
 7914SOL    HW141734   7.147  12.865   0.545 -0.1572 -0.0121  0.8594
 7914SOL    HW241735   7.065  12.984   0.592  0.1572  0.5423  0.0233
 7915SOL     OW41736   7.000   1.465   2.933 -0.0394 -0.3653  0.6892
 7915SOL    HW141737   6.925   1.518   2.907 -1.3189 -2.1350  0.5704
 7915SOL    HW241738   7.076   1.520   2.915 -1.2912  1.5987  1.0676
 7916SOL     OW41739   9.785   1.481   9.138  0.4769  0.3826  0.1987
 7916SOL    HW141740   9.846   1.507   9.207  1.9463 -1.7631 -0.1915
 7916SOL    HW241741   9.801   1.387   9.126 -3.0874 -0.3533  0.1822
 7917SOL     OW41742   4.835   0.169   7.775  0.3251 -0.2353  0.4085
 7917SOL    HW141743   4.903   0.104   7.759  0.9888  0.6889 -0.6489
 7917SOL    HW241744   4.883   0.252   7.783 -0.5597  0.2271  1.0599
 7918SOL     OW41745   1.327  10.971   3.800  0.7706 -0.7229  0.6880
 7918SOL    HW141746   1.232  10.978   3.790  1.0364 -0.0075 -2.4695
 7918SOL    HW241747   1.345  10.877   3.800  0.1099 -0.8526  0.4520
 7919SOL     OW41748   7.196   5.977   9.813  0.2039 -0.5532  0.0990
 7919SOL    HW141749   7.192   5.984   9.908 -1.5272 -2.1759  0.2022
 7919SOL    HW241750   7.153   5.894   9.793  1.5062 -0.7837 -2.0414
 7920SOL     OW41751  10.956  13.456   8.380 -0.2114  0.1035  0.1346
 7920SOL    HW141752  11.044  13.454   8.342  0.2470 -1.5761  1.1976
 7920SOL    HW241753  10.937  13.365   8.403 -1.5549  0.6753  1.4479
 7921SOL     OW41754   9.397   1.425  13.363  0.1234  0.1346  0.0625
 7921SOL    HW141755   9.406   1.514  13.397 -0.3537  0.5384 -0.8290
 7921SOL    HW241756   9.311   1.423  13.321 -0.0300 -0.8664  0.3941
 7922SOL     OW41757   7.919   0.887  12.628 -0.1037  0.0678  0.1676
 7922SOL    HW141758   7.833   0.930  12.632  0.4443  1.1448  1.7767
 7922SOL    HW241759   7.928   0.858  12.537 -0.2717  4.0129 -1.3142
 7923SOL     OW41760   1.643  12.435  11.799  0.6967 -0.1962 -0.6549
 7923SOL    HW141761   1.693  12.363  11.837 -0.6258 -0.0372  1.5559
 7923SOL    HW241762   1.672  12.513  11.847 -1.9420 -0.1779  1.1390
 7924SOL     OW41763  10.730  13.548   6.720 -0.2927  0.7332  0.3228
 7924SOL    HW141764  10.768  13.481   6.662 -1.6504  0.1679  0.0341
 7924SOL    HW241765  10.798  13.615   6.727  0.3801  0.2232 -0.9182
 7925SOL     OW41766  12.825   4.380   2.549  0.2482 -0.2359 -0.1952
 7925SOL    HW141767  12.781   4.414   2.471 -0.9742  0.1713  0.6425
 7925SOL    HW241768  12.860   4.457   2.593  2.2689 -0.5802 -1.0656
 7926SOL     OW41769   2.731  13.522  13.170  0.8660 -0.2317 -0.1222
 7926SOL    HW141770   2.680  13.481  13.240  0.0329  2.1082  0.7520
 7926SOL    HW241771   2.694  13.487  13.089 -0.9567  0.0572  0.5382
 7927SOL     OW41772  11.151  13.703   2.990  0.0352  0.4976  0.1335
 7927SOL    HW141773  11.072  13.706   3.045 -0.6581 -1.8342 -0.6017
 7927SOL    HW241774  11.222  13.686   3.051 -0.5062 -0.4811  0.5264
 7928SOL     OW41775   0.547  12.616   8.827  0.0080  0.9468 -0.1233
 7928SOL    HW141776   0.520  12.708   8.819  2.4997  1.7086 -0.5202
 7928SOL    HW241777   0.518  12.591   8.915  1.3486  2.8851  0.9462
 7929SOL     OW41778   7.382   7.808   2.039  0.4179  0.6447 -0.3916
 7929SOL    HW141779   7.451   7.793   2.104  0.1842  0.7239 -0.1244
 7929SOL    HW241780   7.348   7.720   2.021 -0.6207  0.7755  0.8117
 7930SOL     OW41781   9.119  11.049   4.440 -0.1150  0.5791  0.3076
 7930SOL    HW141782   9.153  11.116   4.500  0.4276  0.4956  0.0954
 7930SOL    HW241783   9.052  11.095   4.389 -1.1628  0.4531  1.5137
 7931SOL     OW41784  12.257  11.632  11.184 -0.0812  0.1847 -0.2060
 7931SOL    HW141785  12.336  11.685  11.197 -0.3990  1.1059 -1.8011
 7931SOL    HW241786  12.227  11.654  11.096 -2.7486  0.7145  0.7391
 7932SOL     OW41787   8.093   6.884   5.044  1.1486 -0.0250  0.4067
 7932SOL    HW141788   8.081   6.975   5.017 -2.8596 -0.7945 -1.0193
 7932SOL    HW241789   8.109   6.889   5.139 -0.4800  2.1309  0.6450
 7933SOL     OW41790   2.908   3.107  13.183 -0.2304 -0.1743 -0.4763
 7933SOL    HW141791   2.937   3.050  13.254 -1.1256 -0.6073 -0.4375
 7933SOL    HW241792   2.979   3.169  13.171 -0.9618  1.4110  2.4101
 7934SOL     OW41793  13.749  10.819  11.100  0.1714  0.4922 -0.8686
 7934SOL    HW141794  13.706  10.871  11.032 -1.0789  0.4933 -0.1002
 7934SOL    HW241795  13.691  10.744  11.113 -1.7402  2.3804  2.8961
 7935SOL     OW41796   7.809   1.210   0.808 -0.4190  0.1457  0.0763
 7935SOL    HW141797   7.855   1.289   0.836  0.0556 -0.1696  0.2015
 7935SOL    HW241798   7.741   1.241   0.748 -1.0311  0.7709  1.0708
 7936SOL     OW41799  11.415  11.082   3.663 -0.4066 -0.3126  0.2509
 7936SOL    HW141800  11.401  10.987   3.659 -1.1388 -0.2049  0.1028
 7936SOL    HW241801  11.345  11.119   3.609  0.8343  0.2416 -1.0514
 7937SOL     OW41802   2.392   8.736   4.674 -0.1790  0.1044 -0.1270
 7937SOL    HW141803   2.418   8.710   4.762 -0.1667 -0.9684 -0.4413
 7937SOL    HW241804   2.463   8.706   4.617  0.5380  2.0831 -0.3690
 7938SOL     OW41805   3.781  13.181  10.584 -0.1410  0.0006  0.3488
 7938SOL    HW141806   3.694  13.203  10.617  0.0822  0.5468  0.5944
 7938SOL    HW241807   3.765  13.125  10.508 -0.6693 -1.5666  1.5592
 7939SOL     OW41808   3.192  10.880   8.800  0.4397  0.2433 -0.2686
 7939SOL    HW141809   3.162  10.958   8.753  1.5215  0.8164 -0.0351
 7939SOL    HW241810   3.267  10.910   8.851  3.0733 -1.6376 -2.7084
 7940SOL     OW41811  11.557   8.529   9.406  0.1138  0.1064  1.0124
 7940SOL    HW141812  11.562   8.434   9.407 -0.6907 -0.0249 -1.2006
 7940SOL    HW241813  11.540   8.554   9.497  3.7966 -1.5738  2.3556
 7941SOL     OW41814  11.481   6.086   6.611  0.0884  0.2713  0.3091
 7941SOL    HW141815  11.498   6.180   6.610  3.5430 -0.2208 -1.2383
 7941SOL    HW241816  11.401   6.076   6.559  0.7742  2.2442 -1.2382
 7942SOL     OW41817  12.696   9.792  10.637  0.1341  0.2426  0.3939
 7942SOL    HW141818  12.756   9.718  10.638  1.0960  0.9737 -0.3204
 7942SOL    HW241819  12.645   9.783  10.717 -0.9552 -2.1022 -0.4715
 7943SOL     OW41820   1.055   6.200   0.732  0.0225  0.7058 -0.0114
 7943SOL    HW141821   1.141   6.237   0.714  0.2019 -0.4751 -1.7884
 7943SOL    HW241822   0.997   6.239   0.667 -0.2026 -0.5472 -0.5882
 7944SOL     OW41823   9.244   3.966  13.055 -0.0701  0.3755 -0.1509
 7944SOL    HW141824   9.324   3.938  13.098 -0.0188  1.2931  0.3805
 7944SOL    HW241825   9.235   4.058  13.079  0.2473  1.0829 -2.5490
 7945SOL     OW41826   7.052  13.500   5.642  0.2575  0.2627  0.4455
 7945SOL    HW141827   7.050  13.405   5.653  3.7350 -0.2113 -1.7480
 7945SOL    HW241828   7.087  13.533   5.725  0.9936 -0.5865  0.4864
 7946SOL     OW41829   6.740   4.502   4.799 -0.0965 -0.2976 -0.1369
 7946SOL    HW141830   6.714   4.425   4.850 -0.5854 -0.5099 -0.6950
 7946SOL    HW241831   6.705   4.576   4.848  0.8754 -0.3752  0.7126
 7947SOL     OW41832   2.384   1.771   4.452  0.6667 -0.2675  0.2966
 7947SOL    HW141833   2.430   1.765   4.535  0.4325 -0.5325  0.4098
 7947SOL    HW241834   2.450   1.753   4.385  0.6300 -1.0979  0.4800
 7948SOL     OW41835   2.555  11.333   9.707 -0.4328  0.5218 -0.1177
 7948SOL    HW141836   2.542  11.312   9.615  0.4036  1.9050 -0.6008
 7948SOL    HW241837   2.630  11.280   9.734  1.1122  2.0957 -1.0730
 7949SOL     OW41838  14.131   0.788   5.863 -0.4797 -0.0308 -0.4879
 7949SOL    HW141839  14.187   0.756   5.793 -0.5932  1.1773 -1.1691
 7949SOL    HW241840  14.066   0.719   5.876  0.3334 -0.8453 -0.6350
 7950SOL     OW41841   0.263   4.458   0.163  0.2747 -0.3931  0.6158
 7950SOL    HW141842   0.330   4.415   0.109  0.4932 -0.2481  0.7682
 7950SOL    HW241843   0.290   4.439   0.253 -0.0140 -0.5218  0.6760
 7951SOL     OW41844   8.398   2.858   1.257 -0.1087 -0.3991 -0.4356
 7951SOL    HW141845   8.471   2.847   1.318  0.3089  1.5382 -0.5042
 7951SOL    HW241846   8.415   2.797   1.186  0.0885 -1.7557  0.7426
 7952SOL     OW41847   5.236   6.934   2.959  0.1426 -0.3191 -0.2404
 7952SOL    HW141848   5.258   6.936   2.866  1.0770 -0.9648 -0.0478
 7952SOL    HW241849   5.315   6.965   3.003 -0.8010  1.4746  0.2878
 7953SOL     OW41850   3.152  10.604   8.776 -0.1166  0.8384  0.2639
 7953SOL    HW141851   3.185  10.581   8.689 -1.2187 -0.3769  0.1308
 7953SOL    HW241852   3.161  10.700   8.780 -0.4210  0.9735 -1.3533
 7954SOL     OW41853  13.289  13.483   1.459 -0.4988 -0.6650  0.2816
 7954SOL    HW141854  13.376  13.446   1.445  0.7909  2.7036 -1.7886
 7954SOL    HW241855  13.241  13.460   1.379  0.2907  1.7748 -0.9889
 7955SOL     OW41856   0.197   9.618   9.451 -0.4304  0.1148 -0.1401
 7955SOL    HW141857   0.279   9.574   9.427  0.8623 -0.8312  4.9185
 7955SOL    HW241858   0.218   9.712   9.445  0.6948 -0.1030  0.1380
 7956SOL     OW41859  10.902  11.147   3.408 -0.7194 -0.2560 -0.2229
 7956SOL    HW141860  10.868  11.094   3.480  2.0971 -0.1270  1.3209
 7956SOL    HW241861  10.919  11.085   3.337 -0.2747 -0.9625  0.4905
 7957SOL     OW41862   9.230   8.526  11.488  0.4457 -0.5662  0.4430
 7957SOL    HW141863   9.150   8.559  11.446 -0.9525 -2.1366  1.7827
 7957SOL    HW241864   9.263   8.601  11.538 -1.3593 -0.4378  1.5265
 7958SOL     OW41865  11.502   5.300  10.651  0.1609 -0.0153  0.5733
 7958SOL    HW141866  11.414   5.303  10.613  0.5893  3.2599 -0.4782
 7958SOL    HW241867  11.544   5.225  10.609 -1.5693 -0.6218 -0.1693
 7959SOL     OW41868   7.033   3.997  11.993 -0.1084  0.5329 -0.0174
 7959SOL    HW141869   7.063   4.012  11.903 -0.9102 -0.7330 -0.5124
 7959SOL    HW241870   7.114   3.981  12.042  0.2195 -0.5599 -0.8776
 7960SOL     OW41871   7.305  12.681   5.451  0.2367  0.7874 -0.2187
 7960SOL    HW141872   7.314  12.768   5.413  1.6338  0.7855  0.0377
 7960SOL    HW241873   7.301  12.622   5.376  0.2130  1.0014 -0.3842
 7961SOL     OW41874   0.754  13.307   7.302 -0.4456  0.0024 -0.0488
 7961SOL    HW141875   0.816  13.371   7.338  0.3725 -1.2598  0.8428
 7961SOL    HW241876   0.791  13.282   7.217  0.9866 -1.6567  0.9992
 7962SOL     OW41877  14.005  10.347   5.247  0.0149  0.2150  0.9209
 7962SOL    HW141878  14.028  10.426   5.198 -0.4156  0.7587  1.5649
 7962SOL    HW241879  14.049  10.358   5.331  0.2028 -0.3796  0.8981
 7963SOL     OW41880  10.212   5.996   2.923  0.0035 -0.2391  0.2289
 7963SOL    HW141881  10.169   6.049   2.991 -1.4006 -0.3383 -0.5393
 7963SOL    HW241882  10.258   6.060   2.868 -1.4011  0.1940 -0.4897
 7964SOL     OW41883  12.996  12.661   4.768 -0.3352 -0.0735  0.3550
 7964SOL    HW141884  13.029  12.739   4.724  0.6591 -0.4130  0.4612
 7964SOL    HW241885  12.926  12.629   4.711  1.9848 -1.4620 -1.9988
 7965SOL     OW41886  10.178   7.945  10.338  0.4422 -0.0236 -1.2927
 7965SOL    HW141887  10.264   7.984  10.327  0.1001  0.1731 -3.7316
 7965SOL    HW241888  10.131   7.965  10.257 -1.1966 -1.8817 -0.8956
 7966SOL     OW41889   8.573  11.792  10.602 -0.1719 -0.7564  0.1927
 7966SOL    HW141890   8.605  11.744  10.678 -0.4365  0.4217  1.0627
 7966SOL    HW241891   8.498  11.741  10.571  0.0350 -1.3240  0.6054
 7967SOL     OW41892   3.608   6.271   3.982 -0.2426 -0.0318  0.4796
 7967SOL    HW141893   3.669   6.244   4.050 -0.9967  0.3638  1.3375
 7967SOL    HW241894   3.663   6.302   3.910  0.5716 -0.8633  0.7308
 7968SOL     OW41895  11.839   2.433   6.855 -0.3468  0.1139  0.1595
 7968SOL    HW141896  11.757   2.477   6.877  0.7833  2.7625 -0.5090
 7968SOL    HW241897  11.875   2.405   6.939  0.0880  2.8654  0.9858
 7969SOL     OW41898  13.576   3.314  12.675 -0.0321  0.7527  0.2359
 7969SOL    HW141899  13.558   3.220  12.681  0.1188  0.5675 -1.7810
 7969SOL    HW241900  13.580   3.332  12.581  1.7887  2.4356  0.5795
 7970SOL     OW41901   6.020  12.435   8.549  0.7179 -0.7510 -0.6280
 7970SOL    HW141902   6.051  12.357   8.503 -0.7375 -0.4046 -2.3268
 7970SOL    HW241903   5.952  12.471   8.491 -1.4559 -0.4115  1.9310
 7971SOL     OW41904  11.281   2.600  10.092 -0.5894 -0.2172 -0.7869
 7971SOL    HW141905  11.208   2.620  10.033  0.9227 -1.0802 -3.0931
 7971SOL    HW241906  11.334   2.679  10.092 -0.0778 -0.5542 -1.4015
 7972SOL     OW41907  14.139   6.277   6.787  0.2293 -0.0162  0.0851
 7972SOL    HW141908  14.090   6.238   6.860  1.5972 -0.5907  0.7374
 7972SOL    HW241909  14.202   6.334   6.829 -0.7211  1.7746 -0.8055
 7973SOL     OW41910  12.492   5.019  14.078 -0.1621  0.1817  0.0577
 7973SOL    HW141911  12.479   5.081  14.007 -2.2550  0.4464  0.6256
 7973SOL    HW241912  12.474   5.069  14.158 -0.5725 -0.7982  0.6060
 7974SOL     OW41913   9.411  13.551   5.107 -0.2116 -0.1886  0.3323
 7974SOL    HW141914   9.398  13.579   5.017 -1.9046 -0.1464  0.5445
 7974SOL    HW241915   9.436  13.631   5.154 -3.2260  0.7243  0.5915
 7975SOL     OW41916  13.007  12.386   3.668 -0.3238  0.0612  0.0744
 7975SOL    HW141917  13.046  12.466   3.632 -0.5546 -0.0157 -0.3554
 7975SOL    HW241918  12.989  12.332   3.591  1.1055 -0.9926  0.4337
 7976SOL     OW41919   0.873   0.298  12.411  0.1676  0.3968  0.2048
 7976SOL    HW141920   0.824   0.380  12.401 -0.8901 -0.2784 -0.3103
 7976SOL    HW241921   0.944   0.305  12.348 -0.3132  0.6330 -0.3177
 7977SOL     OW41922   8.428   0.134   1.584  0.3834 -0.4990 -0.2551
 7977SOL    HW141923   8.441   0.165   1.495 -0.3826  1.1251  0.1578
 7977SOL    HW241924   8.484   0.057   1.592  3.8037  1.7497 -0.8225
 7978SOL     OW41925   3.974   5.057  11.760  0.1297  0.1406 -0.3722
 7978SOL    HW141926   3.904   5.010  11.714 -0.4103 -0.0063  0.5686
 7978SOL    HW241927   3.950   5.149  11.752 -2.9185  0.0318  3.9247
 7979SOL     OW41928   2.117  12.301  11.584  0.1826 -0.6825  0.0591
 7979SOL    HW141929   2.022  12.299  11.582  0.2091 -1.0546 -1.1313
 7979SOL    HW241930   2.139  12.284  11.676 -0.9360  1.9587  0.9249
 7980SOL     OW41931  11.815   6.708   8.436 -0.3674 -0.0088  0.0794
 7980SOL    HW141932  11.731   6.740   8.404 -0.5251  0.0009  0.4914
 7980SOL    HW241933  11.871   6.786   8.439 -0.0408 -0.1827 -1.1213
 7981SOL     OW41934   8.162   2.209   0.175  0.3577 -0.3166  0.0370
 7981SOL    HW141935   8.177   2.233   0.084  0.0637 -1.5776 -0.3606
 7981SOL    HW241936   8.118   2.285   0.213  1.5820  0.7181 -0.5251
 7982SOL     OW41937   0.993   1.627  12.444  0.3631  0.3709 -0.3127
 7982SOL    HW141938   0.996   1.720  12.422 -2.0831  0.7791  0.6932
 7982SOL    HW241939   0.976   1.625  12.538 -1.5969 -0.9830 -0.6142
 7983SOL     OW41940   9.460   1.389   9.689 -0.2425  0.0745 -0.0917
 7983SOL    HW141941   9.484   1.328   9.759 -1.5695 -0.3604  0.0028
 7983SOL    HW241942   9.521   1.370   9.618 -0.6432 -1.3848 -0.0757
 7984SOL     OW41943   8.019  12.813   4.295 -0.6559 -0.5911 -0.0891
 7984SOL    HW141944   7.959  12.751   4.254 -1.4918 -0.2144  0.5310
 7984SOL    HW241945   8.010  12.893   4.243 -1.4835 -0.2112  0.6042
 7985SOL     OW41946  10.803   8.200   9.033 -0.1873 -0.4353 -0.5199
 7985SOL    HW141947  10.773   8.109   9.030 -2.2079  0.0541  1.8446
 7985SOL    HW241948  10.726   8.252   9.010  0.1955  0.7458  0.7744
 7986SOL     OW41949   6.883   2.817  13.330  0.0995 -0.3838  0.7199
 7986SOL    HW141950   6.843   2.738  13.293  0.4340  0.6168 -1.9712
 7986SOL    HW241951   6.861   2.886  13.268  0.8807  1.4267  2.3602
 7987SOL     OW41952   5.874   2.684   0.189  0.1228  0.1108  0.1063
 7987SOL    HW141953   5.824   2.639   0.120 -0.1850  1.7878 -0.8175
 7987SOL    HW241954   5.963   2.690   0.154 -0.4400  2.6683 -1.0791
 7988SOL     OW41955   1.521  12.798  12.052 -0.3975 -0.0363 -0.1902
 7988SOL    HW141956   1.561  12.866  12.106  0.9462 -1.1500  0.2731
 7988SOL    HW241957   1.493  12.844  11.973  1.1044  0.9432 -0.1965
 7989SOL     OW41958   8.274   5.102   6.094 -0.1072 -0.4442 -0.0853
 7989SOL    HW141959   8.360   5.113   6.054  0.2655 -1.2940  0.4582
 7989SOL    HW241960   8.288   5.041   6.166 -1.0139  0.0514  0.5326
 7990SOL     OW41961   1.885   0.213   3.186  0.0060  0.5662  0.0182
 7990SOL    HW141962   1.975   0.194   3.209 -0.2489 -0.5578  0.1461
 7990SOL    HW241963   1.885   0.216   3.090  0.3189  1.3630  0.0359
 7991SOL     OW41964   7.473  11.508  10.145 -0.0343 -0.3719  0.2634
 7991SOL    HW141965   7.532  11.575  10.111 -0.6235  1.0938  1.9472
 7991SOL    HW241966   7.510  11.484  10.230  0.1717 -2.2404 -0.3118
 7992SOL     OW41967   5.413   5.366  12.108 -0.1786  0.5697 -0.4032
 7992SOL    HW141968   5.485   5.313  12.144  0.7096  1.9811 -0.0040
 7992SOL    HW241969   5.443   5.389  12.020 -0.4211  0.6837 -0.4559
 7993SOL     OW41970  11.804  13.950   8.655 -0.3745  0.0294 -0.0293
 7993SOL    HW141971  11.882  14.005   8.663 -0.5582  0.1895  0.8215
 7993SOL    HW241972  11.743  14.002   8.604 -0.2368  0.2639  0.0436
 7994SOL     OW41973  11.477   3.780   9.552 -0.8087  0.5539 -0.2464
 7994SOL    HW141974  11.442   3.716   9.614 -1.3540  1.2310  0.1639
 7994SOL    HW241975  11.540   3.831   9.603  0.1098 -0.0652 -0.7440
 7995SOL     OW41976   8.886   7.168   1.182 -0.5455 -0.4475 -0.1659
 7995SOL    HW141977   8.905   7.139   1.271 -1.1347 -0.9966 -0.2139
 7995SOL    HW241978   8.823   7.239   1.193 -1.4335 -1.2152 -0.1816
 7996SOL     OW41979  11.059   2.965   1.036 -0.1686  0.0912  0.3963
 7996SOL    HW141980  11.152   2.947   1.024 -0.4114 -0.6546 -0.4941
 7996SOL    HW241981  11.049   3.058   1.015  0.4971  0.3687  1.2789
 7997SOL     OW41982   5.246   9.064   9.805 -0.6431 -0.1329 -0.5904
 7997SOL    HW141983   5.310   9.120   9.848 -0.0878 -0.5664 -0.8411
 7997SOL    HW241984   5.295   9.020   9.736 -1.5547  0.6478 -1.7557
 7998SOL     OW41985  10.246  11.603  12.463 -0.0829 -0.2317  0.1027
 7998SOL    HW141986  10.217  11.588  12.553 -0.2065 -0.6425 -0.0033
 7998SOL    HW241987  10.338  11.629  12.472  0.1972 -1.2379  0.2923
 7999SOL     OW41988   1.377   6.837   4.365 -0.0581 -0.4258  0.0558
 7999SOL    HW141989   1.311   6.901   4.392  0.4545  0.7862 -1.4265
 7999SOL    HW241990   1.329   6.754   4.356 -1.1378  0.1817  0.1207
 8000SOL     OW41991  12.648   1.531  12.347  0.1819 -0.0642  0.3196
 8000SOL    HW141992  12.599   1.450  12.362 -0.2051 -0.4737 -2.6104
 8000SOL    HW241993  12.735   1.514  12.384  0.4413 -2.2873 -1.0992
 8001SOL     OW41994   2.706   1.033  12.070 -0.3964 -0.0222 -0.6532
 8001SOL    HW141995   2.677   1.028  12.161 -0.7026  0.0669 -0.7448
 8001SOL    HW241996   2.627   1.014  12.019 -0.9381  2.7590 -0.9801
 8002SOL     OW41997   3.796   5.283   8.024 -0.1673  0.1429  0.5763
 8002SOL    HW141998   3.852   5.350   7.985  0.0664 -0.7822 -0.7594
 8002SOL    HW241999   3.802   5.297   8.118  0.6505  1.3639  0.3550
 8003SOL     OW42000  13.733   4.219   7.572  0.0842 -0.0618 -0.1145
 8003SOL    HW142001  13.758   4.307   7.543 -0.0209  0.3728  1.0494
 8003SOL    HW242002  13.774   4.160   7.509  2.7706  0.6821  0.7986
 8004SOL     OW42003   9.336   8.628   4.220 -0.5772 -0.4100  0.3816
 8004SOL    HW142004   9.300   8.707   4.261 -1.2442 -0.6783  0.3344
 8004SOL    HW242005   9.392   8.590   4.288 -0.2275  0.1085  0.3954
 8005SOL     OW42006   9.995   3.903   6.436  0.1218 -0.3303 -0.3633
 8005SOL    HW142007   9.972   3.946   6.519 -2.7858 -0.2586 -1.0813
 8005SOL    HW242008   9.939   3.946   6.371  0.7396 -1.8538 -1.9829
 8006SOL     OW42009  10.894  10.706   6.096  0.0749 -0.1399 -0.1043
 8006SOL    HW142010  10.812  10.660   6.113 -0.2629 -0.4428 -2.2560
 8006SOL    HW242011  10.957  10.637   6.076  0.0199  0.2013 -1.5771
 8007SOL     OW42012   6.575   1.193   8.576  0.1312  1.1803  0.6772
 8007SOL    HW142013   6.494   1.194   8.628  0.1831  0.9057  0.7673
 8007SOL    HW242014   6.644   1.172   8.640  0.2635  1.3376  0.5867
 8008SOL     OW42015  12.182  10.697  10.280 -0.3981 -0.5283 -0.1757
 8008SOL    HW142016  12.164  10.616  10.233 -2.7858 -0.4574  0.4864
 8008SOL    HW242017  12.163  10.767  10.217  3.0985 -0.3516 -1.2513
 8009SOL     OW42018  11.072  13.920   1.293 -0.3688 -0.0142  0.0811
 8009SOL    HW142019  11.063  13.992   1.231 -0.4414 -1.6894 -1.9961
 8009SOL    HW242020  10.986  13.913   1.335  0.1474  2.1618  1.6471
 8010SOL     OW42021   2.737  10.501   3.531  0.2188  0.3003 -0.5433
 8010SOL    HW142022   2.777  10.567   3.474  2.8241 -0.1524  0.6078
 8010SOL    HW242023   2.774  10.518   3.618 -2.2875 -0.1152  0.6912
 8011SOL     OW42024   2.199  13.264   2.010 -0.2666 -0.2805 -0.3949
 8011SOL    HW142025   2.291  13.281   2.028 -0.1804 -1.1460  0.0145
 8011SOL    HW242026   2.191  13.269   1.915  0.7774 -2.8754 -0.6859
 8012SOL     OW42027   5.739   2.953  10.637  0.3125 -0.6591 -0.0679
 8012SOL    HW142028   5.685   2.957  10.558  1.2760 -1.0852 -0.7718
 8012SOL    HW242029   5.828   2.938  10.604  0.7748 -0.5494  1.0890
 8013SOL     OW42030  11.318  12.582   9.893  0.6544 -0.0774 -0.1925
 8013SOL    HW142031  11.271  12.515   9.943 -1.7327  1.3398 -0.3486
 8013SOL    HW242032  11.342  12.649   9.957 -3.5334  2.3683 -0.7861
 8014SOL     OW42033   5.708   8.827  10.208  0.3809 -0.0820  0.0393
 8014SOL    HW142034   5.615   8.823  10.232  0.7868  0.3173  1.8407
 8014SOL    HW242035   5.749   8.759  10.263  1.1465 -0.3227 -0.8135
 8015SOL     OW42036  10.850   4.901   2.389  0.3239  0.3071  0.0551
 8015SOL    HW142037  10.914   4.941   2.448 -0.2801  0.0776  0.8938
 8015SOL    HW242038  10.793   4.851   2.447  0.5527 -1.0951 -0.8737
 8016SOL     OW42039   8.390  12.293   5.497 -0.1189 -0.4668  0.4432
 8016SOL    HW142040   8.460  12.351   5.525 -0.8499  0.0832  1.1724
 8016SOL    HW242041   8.364  12.245   5.576 -2.2884  1.1977  0.8337
 8017SOL     OW42042  12.661   6.142   5.821  0.0432  0.1801  0.0305
 8017SOL    HW142043  12.683   6.067   5.766 -1.2748 -0.1456 -0.1018
 8017SOL    HW242044  12.635   6.211   5.760 -2.7100 -0.5978  0.1605
 8018SOL     OW42045  11.638  10.090  13.005  0.0473  0.3356  0.6167
 8018SOL    HW142046  11.688  10.172  13.012 -1.3548  1.0986  3.0618
 8018SOL    HW242047  11.597  10.095  12.919  0.0306  2.2454  0.6781
 8019SOL     OW42048  10.045   5.418   2.896  0.4036 -0.4501  0.4713
 8019SOL    HW142049  10.086   5.486   2.949  2.6390 -1.0268 -0.3996
 8019SOL    HW242050   9.952   5.441   2.895  0.9053  1.8905  1.2022
 8020SOL     OW42051   7.674   4.705   1.174 -0.4513  0.0397  0.5426
 8020SOL    HW142052   7.642   4.790   1.202  0.2032  0.6693 -0.5497
 8020SOL    HW242053   7.762   4.722   1.139 -0.3160 -1.0728  0.2781
 8021SOL     OW42054  13.423   4.272   8.493 -0.4366  0.3506 -0.5648
 8021SOL    HW142055  13.334   4.236   8.493  0.3997 -1.8800 -0.7506
 8021SOL    HW242056  13.461   4.241   8.411  1.8871 -2.6616  1.4182
 8022SOL     OW42057   2.568  12.933   4.676 -0.2893 -0.0237  0.1545
 8022SOL    HW142058   2.655  12.898   4.692 -0.8776 -1.7543 -0.2269
 8022SOL    HW242059   2.552  12.992   4.750  1.0969  0.1661  0.3350
 8023SOL     OW42060   4.082  12.183   9.236 -0.2760  0.2098 -0.2138
 8023SOL    HW142061   4.000  12.199   9.189 -0.5633 -0.3522  0.0764
 8023SOL    HW242062   4.053  12.151   9.322  0.2429 -1.3955 -0.6079
 8024SOL     OW42063   6.973  12.285  11.582 -0.2798  0.2458  0.0152
 8024SOL    HW142064   6.999  12.308  11.493 -0.7906 -1.7822 -0.7063
 8024SOL    HW242065   6.885  12.321  11.591  0.4744  2.1092  0.4260
 8025SOL     OW42066  11.064   0.160   3.594 -0.1923 -0.6095 -0.4199
 8025SOL    HW142067  11.106   0.163   3.509 -1.3494  0.9239 -0.9968
 8025SOL    HW242068  11.114   0.096   3.644  3.6342  1.9549 -0.5953
 8026SOL     OW42069   7.720   8.578  13.146 -0.6929  0.0410  0.2734
 8026SOL    HW142070   7.766   8.494  13.157  0.7462  0.9356  1.6229
 8026SOL    HW242071   7.667   8.586  13.225 -0.1578  0.7559  0.5777
 8027SOL     OW42072   9.350   5.766   7.596 -0.0010  0.1473 -0.1872
 8027SOL    HW142073   9.393   5.711   7.661 -1.0499 -1.2549 -0.6057
 8027SOL    HW242074   9.379   5.855   7.615 -0.5146 -0.1581  2.4060
 8028SOL     OW42075   8.569   7.983   5.026  0.1025  0.5550  0.2412
 8028SOL    HW142076   8.510   7.928   4.976 -0.1299  0.9811  0.0384
 8028SOL    HW242077   8.654   7.939   5.021  0.7910  1.9258 -2.8929
 8029SOL     OW42078  11.602   6.434   8.268 -0.0343  0.1860  0.5751
 8029SOL    HW142079  11.684   6.396   8.298  0.1331 -1.0191 -1.2418
 8029SOL    HW242080  11.624   6.477   8.186 -1.3751 -1.2045 -0.5870
 8030SOL     OW42081   1.027   6.639  12.072  0.2060 -0.3943 -0.0651
 8030SOL    HW142082   1.113   6.669  12.101  0.5795 -0.3837 -1.1256
 8030SOL    HW242083   1.016   6.553  12.113  1.0744 -0.7424 -0.5353
 8031SOL     OW42084   1.222   5.240   7.635  0.8429 -0.6043  0.3458
 8031SOL    HW142085   1.178   5.189   7.566  0.5842 -1.2991  1.0054
 8031SOL    HW242086   1.175   5.323   7.637  3.2794  1.0912 -2.9873
 8032SOL     OW42087   0.860  13.058  11.074 -0.1015  0.7357 -0.5877
 8032SOL    HW142088   0.849  13.083  10.982 -1.8184 -1.3104 -1.0360
 8032SOL    HW242089   0.796  13.112  11.121  0.2597  1.2635 -0.6952
 8033SOL     OW42090  11.839   4.786   4.925 -0.0223  0.4787  0.6651
 8033SOL    HW142091  11.815   4.832   4.844  0.6808 -1.9755 -1.0666
 8033SOL    HW242092  11.755   4.769   4.968 -0.6878 -0.4559 -0.9097
 8034SOL     OW42093  11.232   9.415  13.118 -0.3080 -0.2444  0.4492
 8034SOL    HW142094  11.144   9.435  13.088 -0.3845  1.0779  1.4939
 8034SOL    HW242095  11.241   9.320  13.104 -1.6992 -0.3114 -0.1194
 8035SOL     OW42096  13.170  10.218   7.733 -0.8822  0.1834 -0.0253
 8035SOL    HW142097  13.202  10.189   7.818 -0.5163 -0.4432 -0.3660
 8035SOL    HW242098  13.225  10.293   7.711 -1.3411  0.6896  0.5290
 8036SOL     OW42099   3.525   0.756   9.218  0.5124  0.7365 -0.1381
 8036SOL    HW142100   3.571   0.707   9.150  2.4875  2.3672 -0.0914
 8036SOL    HW242101   3.460   0.695   9.252  0.3872 -0.5689 -2.5322
 8037SOL     OW42102  10.383   4.775   2.144 -0.3883 -0.1933  0.0087
 8037SOL    HW142103  10.336   4.791   2.226  0.5180 -0.3031  0.5683
 8037SOL    HW242104  10.470   4.813   2.159 -0.9498  2.0311 -1.7929
 8038SOL     OW42105   3.514   1.127  11.000 -0.0683 -0.0813  0.2576
 8038SOL    HW142106   3.560   1.182  10.936 -0.4894  0.3918  0.3603
 8038SOL    HW242107   3.566   1.136  11.080 -0.1509  0.1833  0.2807
 8039SOL     OW42108   9.591   6.894  11.957  0.1167  0.1329 -0.5434
 8039SOL    HW142109   9.579   6.829  11.888 -1.8091 -2.1583  1.7702
 8039SOL    HW242110   9.503   6.928  11.973  0.2979 -0.2249  1.4965
 8040SOL     OW42111   4.195  10.804   4.836 -0.0186  0.1121 -0.1719
 8040SOL    HW142112   4.269  10.744   4.848 -0.3618 -0.4436 -0.7466
 8040SOL    HW242113   4.118  10.747   4.841 -0.4199  0.7130  0.5913
 8041SOL     OW42114   7.769   6.004  10.736 -0.0686  0.2584 -0.7043
 8041SOL    HW142115   7.808   5.939  10.677 -0.4829 -0.8663  0.2342
 8041SOL    HW242116   7.796   5.978  10.823 -1.1433  0.7010 -0.2142
 8042SOL     OW42117   2.504  11.915  10.229 -0.3026  0.6644 -0.0904
 8042SOL    HW142118   2.443  11.899  10.301 -0.6822  1.6403 -0.1868
 8042SOL    HW242119   2.569  11.975  10.265  0.4318 -0.1148 -0.0879
 8043SOL     OW42120  10.462   7.285   3.795  0.4352  0.3594  0.6365
 8043SOL    HW142121  10.463   7.344   3.871 -1.1334 -0.4492  1.3376
 8043SOL    HW242122  10.526   7.217   3.816  0.5103  0.5134  0.9156
 8044SOL     OW42123   1.333   3.899  13.188  0.2164 -0.0632  0.1596
 8044SOL    HW142124   1.241   3.873  13.196 -0.3221  1.2147 -1.3384
 8044SOL    HW242125   1.347   3.960  13.261 -0.1377 -0.2423  0.3810
 8045SOL     OW42126   1.156   4.785  13.189  0.3455  0.0395  0.3440
 8045SOL    HW142127   1.087   4.843  13.220  1.3489  1.6864 -0.3190
 8045SOL    HW242128   1.152   4.793  13.093  1.5680  0.3585  0.3012
 8046SOL     OW42129   0.864   8.157   3.661 -0.7989 -0.0200 -0.6330
 8046SOL    HW142130   0.952   8.121   3.653 -0.6136  0.5282 -1.1086
 8046SOL    HW242131   0.847   8.156   3.756  0.4551  1.5972 -0.3473
 8047SOL     OW42132  13.241   0.283  10.146 -0.1284  0.5141  0.1679
 8047SOL    HW142133  13.236   0.253  10.056  0.3719  0.6443  0.0923
 8047SOL    HW242134  13.151   0.306  10.169 -0.4749 -0.7102  0.1235
 8048SOL     OW42135  10.481   1.940  13.428 -0.0835 -1.1949 -0.1224
 8048SOL    HW142136  10.440   1.986  13.355 -1.0207 -0.0942  1.0677
 8048SOL    HW242137  10.562   1.903  13.390 -0.3676 -0.3646 -1.6144
 8049SOL     OW42138   2.574   8.722   5.390  0.3001  0.1504 -0.0520
 8049SOL    HW142139   2.537   8.634   5.381  0.0906  0.3843 -1.6115
 8049SOL    HW242140   2.509   8.770   5.442  0.5340 -0.6555  1.0268
 8050SOL     OW42141   7.544   2.078   4.332 -0.0873  0.4865 -0.4186
 8050SOL    HW142142   7.466   2.058   4.383  0.7139 -1.5202  0.1128
 8050SOL    HW242143   7.511   2.101   4.245 -1.2912  0.3158 -0.0228
 8051SOL     OW42144   3.261   8.040   6.100 -0.0833  0.3869  0.3825
 8051SOL    HW142145   3.193   8.102   6.075 -0.0229  0.1743 -0.3480
 8051SOL    HW242146   3.257   8.036   6.195 -1.1847  0.2830  0.3460
 8052SOL     OW42147   3.915  13.146   3.161  0.4466 -0.4885  0.1567
 8052SOL    HW142148   3.883  13.075   3.106 -1.2564  0.4463 -0.1206
 8052SOL    HW242149   4.007  13.156   3.137  0.2711 -1.4916 -1.0003
 8053SOL     OW42150   7.591   3.970   0.896 -0.1141 -0.1368  0.2312
 8053SOL    HW142151   7.570   3.921   0.975  1.7005  0.1321  0.9176
 8053SOL    HW242152   7.604   3.903   0.829 -0.2520 -0.4397  0.5056
 8054SOL     OW42153   9.059  12.687  12.505  0.1562  0.0352  0.0860
 8054SOL    HW142154   8.985  12.718  12.557  1.3246  0.6867  1.4240
 8054SOL    HW242155   9.101  12.622  12.561 -0.7659 -2.1955 -1.6465
 8055SOL     OW42156   3.479   7.470   2.280  0.1559  0.1104  0.2470
 8055SOL    HW142157   3.533   7.542   2.247 -1.0564  1.0337  0.2101
 8055SOL    HW242158   3.391   7.507   2.289  0.0190 -0.6257  2.7574
 8056SOL     OW42159  13.706   8.586   4.700  0.8545 -0.2420 -0.5465
 8056SOL    HW142160  13.724   8.671   4.739 -0.0306 -0.0977 -0.4251
 8056SOL    HW242161  13.764   8.525   4.745  1.0964  0.2075 -0.2501
 8057SOL     OW42162   5.926   8.119   0.129  0.9098  0.3937  0.2427
 8057SOL    HW142163   5.903   8.141   0.039 -2.1371 -0.7151  0.6489
 8057SOL    HW242164   5.943   8.024   0.128 -0.4732  0.1102  1.0206
 8058SOL     OW42165  10.077   9.173   5.593 -0.8034 -0.6766 -0.0758
 8058SOL    HW142166  10.143   9.130   5.648 -0.2082 -0.9312 -0.9637
 8058SOL    HW242167  10.002   9.115   5.596 -0.4652 -1.1263 -0.2287
 8059SOL     OW42168   6.929   5.258   0.056  0.2059  0.1422 -0.2873
 8059SOL    HW142169   6.886   5.268  -0.029 -2.0433 -0.6003  0.6912
 8059SOL    HW242170   6.968   5.344   0.073 -1.8261  1.2453 -0.7999
 8060SOL     OW42171  13.517   8.313   9.923  0.0434 -0.6972  0.0020
 8060SOL    HW142172  13.481   8.400   9.906  0.6199 -0.5262 -0.3799
 8060SOL    HW242173  13.481   8.259   9.853  1.2425 -0.3197 -0.9457
 8061SOL     OW42174   7.683  11.285   1.747 -0.4844  0.2420  0.6101
 8061SOL    HW142175   7.755  11.223   1.756  0.3201  1.0190 -0.1976
 8061SOL    HW242176   7.726  11.371   1.743 -1.6312  1.0018  2.8302
 8062SOL     OW42177   5.255  11.855   0.472 -0.0869 -0.6265  0.0967
 8062SOL    HW142178   5.202  11.934   0.467  0.7028 -0.0067  1.2065
 8062SOL    HW242179   5.332  11.875   0.418  0.1411 -0.6129  0.4256
 8063SOL     OW42180   6.572  12.378  13.067  0.0348 -0.4561 -0.0930
 8063SOL    HW142181   6.661  12.345  13.080  0.1675 -0.1840 -0.2915
 8063SOL    HW242182   6.576  12.426  12.985 -0.0560  0.3676  0.3683
 8064SOL     OW42183   6.413   1.777  12.025 -0.3667  0.0505  0.4214
 8064SOL    HW142184   6.322   1.769  11.995 -1.1094 -0.6293  2.6401
 8064SOL    HW242185   6.418   1.867  12.058 -0.1359  0.1930 -0.0058
 8065SOL     OW42186  14.149   5.079   6.482 -0.6354  0.5476  0.5134
 8065SOL    HW142187  14.068   5.110   6.522 -2.0116 -1.8240 -0.2212
 8065SOL    HW242188  14.123   5.049   6.395  0.9166 -0.6415  0.4052
 8066SOL     OW42189   5.187   0.074   1.085  0.1639 -0.2682 -0.2469
 8066SOL    HW142190   5.096   0.081   1.057  0.1789 -1.5598 -0.7157
 8066SOL    HW242191   5.190  -0.008   1.134  1.0312 -0.1246 -0.0435
 8067SOL     OW42192   1.640   8.492  10.987 -0.1002  0.3023  0.6055
 8067SOL    HW142193   1.587   8.549  11.042 -0.9627 -0.5913  0.7429
 8067SOL    HW242194   1.578   8.455  10.924  0.7641  0.8626 -0.6189
 8068SOL     OW42195   2.578  12.338  11.777  0.9160  0.0875 -0.3545
 8068SOL    HW142196   2.535  12.413  11.737  2.6415  0.5480 -1.4754
 8068SOL    HW242197   2.586  12.361  11.870  0.2438  0.6928 -0.4438
 8069SOL     OW42198   2.283   9.388   7.415 -0.6579  0.0659  0.4453
 8069SOL    HW142199   2.213   9.440   7.374  0.6542  1.1745 -0.4621
 8069SOL    HW242200   2.349   9.452   7.440  0.7940 -1.1087 -0.2549
 8070SOL     OW42201   3.666   5.261   7.320 -0.0148 -0.0156  0.6847
 8070SOL    HW142202   3.608   5.330   7.351 -1.4422 -1.1484  0.6333
 8070SOL    HW242203   3.743   5.307   7.288 -0.7656  1.5180  1.0001
 8071SOL     OW42204  12.272  13.109   0.183 -0.3668 -0.0436 -0.3520
 8071SOL    HW142205  12.324  13.110   0.263  0.8080  1.5294 -1.0924
 8071SOL    HW242206  12.198  13.051   0.204  0.7290 -0.9313  1.3137
 8072SOL     OW42207   9.579   8.641   9.424 -0.2042 -0.2567 -0.1317
 8072SOL    HW142208   9.631   8.604   9.496  1.0358 -1.0048 -1.3674
 8072SOL    HW242209   9.501   8.587   9.420  0.4836 -1.2537 -0.3822
 8073SOL     OW42210   3.368   0.773   6.153 -0.4658  0.0067 -0.4277
 8073SOL    HW142211   3.358   0.867   6.166 -0.4178  0.0694 -0.8357
 8073SOL    HW242212   3.402   0.740   6.236 -2.0017  0.1121  0.2876
 8074SOL     OW42213   6.457  13.319  10.912 -0.2451 -0.2086  0.0642
 8074SOL    HW142214   6.524  13.320  10.844 -0.4671 -1.1734 -0.1735
 8074SOL    HW242215   6.401  13.245  10.890 -1.3172  0.5051  0.3366
 8075SOL     OW42216   5.240   2.244  13.893  0.2616  0.2390 -0.0499
 8075SOL    HW142217   5.250   2.284  13.807  1.7971 -0.4056 -0.2166
 8075SOL    HW242218   5.329   2.218  13.917 -0.6646 -3.9423 -0.4045
 8076SOL     OW42219   0.682  13.761   2.621  0.4647 -0.3807  0.7659
 8076SOL    HW142220   0.741  13.814   2.567  1.0486 -1.3046  0.4811
 8076SOL    HW242221   0.667  13.682   2.570 -2.4179  0.4971  0.0156
 8077SOL     OW42222   0.298   8.528  13.181  0.3045  0.6262  0.3139
 8077SOL    HW142223   0.247   8.498  13.106  1.2850  0.4326 -0.2985
 8077SOL    HW242224   0.237   8.581  13.231 -0.7625 -0.3382  0.1014
 8078SOL     OW42225   0.846  10.905   4.855  0.0357  0.1250  0.5286
 8078SOL    HW142226   0.833  10.959   4.778 -4.5836 -1.4919 -0.1303
 8078SOL    HW242227   0.820  10.960   4.928 -0.7149  0.0686  0.3103
 8079SOL     OW42228   9.800   0.245   4.662  0.2634 -0.1541  0.0111
 8079SOL    HW142229   9.754   0.296   4.596 -1.3590 -0.0023  1.2011
 8079SOL    HW242230   9.840   0.310   4.719 -0.2815 -0.2306  0.4879
 8080SOL     OW42231   9.965   2.048   3.338 -0.1810  0.0716  0.1275
 8080SOL    HW142232  10.054   2.068   3.368  0.6088 -0.8190 -1.4898
 8080SOL    HW242233   9.976   2.025   3.246 -1.8414 -1.8590  0.3532
 8081SOL     OW42234   0.351   2.493   5.234 -0.0240  0.0316 -0.7483
 8081SOL    HW142235   0.334   2.561   5.299  0.4085  0.4018 -1.0210
 8081SOL    HW242236   0.438   2.512   5.201 -0.3552  0.0180 -1.6496
 8082SOL     OW42237   2.272   3.815   9.885 -0.3305  0.4396 -0.2668
 8082SOL    HW142238   2.303   3.767   9.809 -0.3159 -0.2150  0.1436
 8082SOL    HW242239   2.344   3.812   9.948 -0.6779  0.1472  0.1338
 8083SOL     OW42240   1.497   7.242  11.449 -0.2679 -0.0238 -0.3453
 8083SOL    HW142241   1.460   7.237  11.361  1.1500 -0.4141 -0.9313
 8083SOL    HW242242   1.458   7.168  11.496  0.6498 -1.1479 -1.3048
 8084SOL     OW42243   1.355   9.260  13.142  0.1685 -0.0040  0.5539
 8084SOL    HW142244   1.434   9.281  13.191  0.1192  0.9994  0.2259
 8084SOL    HW242245   1.317   9.185  13.189  1.1116 -0.2659  0.9207
 8085SOL     OW42246   5.519   8.476   0.591 -0.4884  0.2192 -0.2244
 8085SOL    HW142247   5.573   8.400   0.610  0.7770  0.7532 -1.5037
 8085SOL    HW242248   5.429   8.443   0.599  0.0024 -0.8678  1.2345
 8086SOL     OW42249   4.690   8.605   8.555  0.2859  0.3640  0.2037
 8086SOL    HW142250   4.739   8.687   8.554 -0.8332  1.0406 -0.2121
 8086SOL    HW242251   4.652   8.601   8.642  0.3939  0.2391  0.2466
 8087SOL     OW42252   4.512  12.840   3.005 -0.4255  0.1003  0.2290
 8087SOL    HW142253   4.452  12.903   3.045  0.1721  1.2703 -0.6506
 8087SOL    HW242254   4.513  12.863   2.912  1.0206 -0.1655  0.1466
 8088SOL     OW42255   2.538   0.825   1.871  0.6081  0.2250 -0.4241
 8088SOL    HW142256   2.493   0.855   1.950 -0.8202 -2.1999 -0.2081
 8088SOL    HW242257   2.504   0.880   1.801 -3.0285 -1.5467 -0.3024
 8089SOL     OW42258   0.413   5.307   2.203 -0.5273 -0.1880  0.1604
 8089SOL    HW142259   0.360   5.385   2.213 -0.6328 -0.3745  1.0673
 8089SOL    HW242260   0.478   5.331   2.136 -1.0796  0.3843 -0.1815
 8090SOL     OW42261   2.451   4.951  10.289  0.1020 -0.0213  0.8284
 8090SOL    HW142262   2.395   4.938  10.366  0.2779 -0.5784  0.8656
 8090SOL    HW242263   2.410   4.899  10.220 -0.5328  1.1606  0.3015
 8091SOL     OW42264   5.973   0.734   8.338  0.7608  0.1841 -0.2333
 8091SOL    HW142265   6.025   0.813   8.350  1.6556 -0.3686 -0.4138
 8091SOL    HW242266   5.888   0.766   8.306  1.0702  1.0741 -0.1859
 8092SOL     OW42267  12.949   0.618   9.535 -0.5343  0.1581  0.2733
 8092SOL    HW142268  12.901   0.661   9.605 -0.9337 -1.2077  0.8699
 8092SOL    HW242269  12.958   0.527   9.563  3.4433  0.5044  0.7435
 8093SOL     OW42270  10.830   4.307   2.499  0.6538 -0.1826  0.0621
 8093SOL    HW142271  10.842   4.229   2.552 -2.1109  0.1684  1.3961
 8093SOL    HW242272  10.783   4.277   2.422  2.8854 -0.3588 -1.3088
 8094SOL     OW42273   5.484   5.945  13.081  0.2270 -0.2763  0.2158
 8094SOL    HW142274   5.489   5.996  13.000  0.0586 -0.1069  0.3108
 8094SOL    HW242275   5.420   5.877  13.063 -0.1042  0.0007  0.3369
 8095SOL     OW42276   2.763   1.647   7.576 -0.1035  0.1031  0.6450
 8095SOL    HW142277   2.737   1.710   7.643  0.4298 -1.0377  1.9816
 8095SOL    HW242278   2.754   1.694   7.493  0.7070  2.0776  1.6197
 8096SOL     OW42279   6.240   8.427   2.544 -0.4979 -0.6236 -0.1844
 8096SOL    HW142280   6.231   8.468   2.630 -2.5668  3.2506 -1.9885
 8096SOL    HW242281   6.331   8.442   2.519 -0.2332 -0.5871  0.7679
 8097SOL     OW42282   8.299   6.879   2.733 -0.7183  0.0283 -0.1367
 8097SOL    HW142283   8.239   6.894   2.660 -1.2684 -0.8316  0.1343
 8097SOL    HW242284   8.338   6.965   2.749  0.3345  0.0135 -2.2392
 8098SOL     OW42285   9.256   6.061  12.972  0.2845  0.7382  0.2922
 8098SOL    HW142286   9.170   6.027  12.996  0.2746 -0.7924 -1.6360
 8098SOL    HW242287   9.311   5.983  12.961  1.8194  1.6599  1.0119
 8099SOL     OW42288   7.724   1.214   3.372 -0.1208 -0.3600 -0.1778
 8099SOL    HW142289   7.638   1.233   3.333  0.1333  2.1553  0.3159
 8099SOL    HW242290   7.725   1.264   3.453  0.9595 -2.2431  1.0354
 8100SOL     OW42291   5.663   9.840   3.637 -0.0408 -0.3514  0.0883
 8100SOL    HW142292   5.643   9.921   3.685  0.5741 -1.4677  2.3718
 8100SOL    HW242293   5.749   9.814   3.669 -0.4835 -2.2320 -0.1479
 8101SOL     OW42294   1.733   5.490   0.091  0.2949 -0.3105  0.3024
 8101SOL    HW142295   1.819   5.457   0.114  1.0032  2.6839  2.6882
 8101SOL    HW242296   1.750   5.574   0.049 -1.3922  0.6945  1.4886
 8102SOL     OW42297  11.790  12.558  11.664  0.2621 -0.2719  0.2217
 8102SOL    HW142298  11.739  12.618  11.609  0.1170 -0.2374  0.3951
 8102SOL    HW242299  11.809  12.484  11.606 -1.0735 -0.8789  0.5234
 8103SOL     OW42300   9.214   5.536   2.676  0.1142 -0.1546 -0.7952
 8103SOL    HW142301   9.269   5.514   2.601  0.9096  1.2478 -0.6576
 8103SOL    HW242302   9.207   5.632   2.673 -0.7152 -0.1637  0.3162
 8104SOL     OW42303   8.249   2.940   9.518 -0.3474  0.5835 -0.6932
 8104SOL    HW142304   8.326   2.983   9.554  0.8856 -1.1358 -1.1721
 8104SOL    HW242305   8.256   2.952   9.423 -2.0551  2.5937 -0.6422
 8105SOL     OW42306  13.569   7.384   6.113  0.2464 -0.3501 -0.4961
 8105SOL    HW142307  13.658   7.349   6.112  0.2263 -0.4253 -0.0308
 8105SOL    HW242308  13.567   7.447   6.041  0.8633  0.1122 -0.1197
 8106SOL     OW42309   8.570  13.191   8.854  0.0393  0.0456  0.2242
 8106SOL    HW142310   8.645  13.132   8.848  0.2838  0.5038 -2.3575
 8106SOL    HW242311   8.603  13.265   8.905  0.6285 -0.7153  0.9899
 8107SOL     OW42312  12.526   9.989  13.749 -0.0961  0.0232 -0.2147
 8107SOL    HW142313  12.555  10.068  13.793 -1.6556  1.5383 -1.7443
 8107SOL    HW242314  12.534  10.009  13.655 -0.9511 -1.4400 -0.6429
 8108SOL     OW42315   9.089   8.021  11.617  0.0008  0.4647  0.0996
 8108SOL    HW142316   9.035   7.942  11.625 -0.1565  0.4521 -0.9497
 8108SOL    HW242317   9.025   8.093  11.612  0.1433  0.6782  1.0725
 8109SOL     OW42318   1.174  12.387  13.352  0.8431  0.1076 -0.1466
 8109SOL    HW142319   1.184  12.480  13.372 -0.0924  0.6383 -1.9541
 8109SOL    HW242320   1.248  12.345  13.396  0.8185  1.5716  1.4042
 8110SOL     OW42321  13.941   3.870   6.262  0.1782 -0.3627 -0.2882
 8110SOL    HW142322  13.879   3.799   6.280  0.3199 -0.2787  0.5697
 8110SOL    HW242323  14.026   3.835   6.291  0.1418  0.3913  0.7504
 8111SOL     OW42324  12.240   7.712   0.635  0.1264  0.3451 -0.1237
 8111SOL    HW142325  12.299   7.653   0.589 -0.1290  0.1732 -0.2326
 8111SOL    HW242326  12.288   7.738   0.714 -0.2375 -1.0034  0.5805
 8112SOL     OW42327  10.436   1.166   6.385 -0.2653  0.5348 -0.1703
 8112SOL    HW142328  10.432   1.101   6.455 -1.6018  1.1293  0.3424
 8112SOL    HW242329  10.495   1.233   6.418  0.2783  0.0991 -0.2499
 8113SOL     OW42330   3.058   1.781  11.082  0.2018  0.2071  0.6823
 8113SOL    HW142331   2.992   1.788  11.151 -0.3969  1.9027 -0.0343
 8113SOL    HW242332   3.015   1.732  11.012 -0.1394  0.8693  0.4207
 8114SOL     OW42333  10.247   6.133   9.108 -0.5617  0.1254  0.1384
 8114SOL    HW142334  10.176   6.141   9.044  0.5068  0.8114 -1.0061
 8114SOL    HW242335  10.284   6.047   9.092 -0.3152  0.2845 -0.1526
 8115SOL     OW42336   2.401   6.658   2.108  0.3419 -0.5251 -0.1251
 8115SOL    HW142337   2.484   6.661   2.155  0.1465 -2.6332  0.4722
 8115SOL    HW242338   2.408   6.727   2.042  1.1769  1.6051  2.0715
 8116SOL     OW42339  10.745   8.945   9.864  0.1087 -0.3478 -0.3651
 8116SOL    HW142340  10.777   9.010   9.926 -0.9072  0.3216 -0.5074
 8116SOL    HW242341  10.813   8.878   9.861  0.2156 -0.3441  1.3785
 8117SOL     OW42342  14.012   9.946  13.149  0.3340  0.5621 -0.5140
 8117SOL    HW142343  14.069   9.870  13.164  0.3869  0.6958 -0.0217
 8117SOL    HW242344  13.928   9.908  13.126 -0.1491  0.2903  1.5042
 8118SOL     OW42345   8.118  11.730  11.717 -0.0297 -0.1009 -0.4941
 8118SOL    HW142346   8.142  11.641  11.742 -1.4059 -0.2374  0.4598
 8118SOL    HW242347   8.183  11.755  11.652  0.7568 -1.5671 -0.3151
 8119SOL     OW42348   2.288   5.114   4.930  0.4226  0.1197  0.1165
 8119SOL    HW142349   2.323   5.027   4.950  0.2288  0.0032 -0.0463
 8119SOL    HW242350   2.339   5.143   4.855 -1.3037 -1.0060 -1.6142
 8120SOL     OW42351  13.341  12.370  11.194 -0.1950 -0.0623 -0.2940
 8120SOL    HW142352  13.271  12.404  11.250 -0.1601 -0.6053  0.0948
 8120SOL    HW242353  13.389  12.309  11.250  0.0108 -0.4087 -0.8343
 8121SOL     OW42354   6.403  11.502   7.612 -0.0529 -0.3286 -0.1563
 8121SOL    HW142355   6.425  11.464   7.697 -0.1443 -0.0694 -0.0125
 8121SOL    HW242356   6.359  11.585   7.634 -2.9151 -1.6623 -0.3362
 8122SOL     OW42357  13.694   1.626   0.958 -0.1907 -0.4764 -0.0203
 8122SOL    HW142358  13.652   1.677   0.889 -2.6925  0.2531  1.9002
 8122SOL    HW242359  13.676   1.535   0.935  0.1506 -0.3166 -0.9666
 8123SOL     OW42360   1.300   9.033   0.643  0.2010 -0.1698 -0.5751
 8123SOL    HW142361   1.268   8.994   0.561 -1.8791  0.7567 -0.2637
 8123SOL    HW242362   1.223   9.040   0.698  1.0370  1.8202  0.4263
 8124SOL     OW42363   1.538  11.067  12.581  0.3544  0.2253 -0.0797
 8124SOL    HW142364   1.585  10.985  12.565  0.2043 -0.1419  1.2962
 8124SOL    HW242365   1.555  11.119  12.502  0.1115 -1.2669 -1.1510
 8125SOL     OW42366   7.393   1.348   2.215  0.1275 -0.3894  0.2811
 8125SOL    HW142367   7.319   1.370   2.157 -0.2849 -1.0411  0.5454
 8125SOL    HW242368   7.355   1.345   2.302  0.9442  1.5355  0.7438
 8126SOL     OW42369   5.504   8.079   0.134 -0.3683  0.0246 -0.0347
 8126SOL    HW142370   5.419   8.121   0.142 -0.4340 -0.2442  0.8428
 8126SOL    HW242371   5.561   8.129   0.193 -0.5125 -1.2483  1.2376
 8127SOL     OW42372   2.237   8.033   5.661 -0.0349  0.6982  0.1328
 8127SOL    HW142373   2.187   8.014   5.740 -1.9079 -0.5893 -1.2628
 8127SOL    HW242374   2.176   8.081   5.605 -0.1073 -1.6357 -1.9637
 8128SOL     OW42375   7.856   9.912  13.960 -0.0772  0.8326 -0.0621
 8128SOL    HW142376   7.895   9.975  14.020 -1.1395  2.4348 -0.9916
 8128SOL    HW242377   7.909   9.920  13.880 -1.3679  2.0058 -0.8485
 8129SOL     OW42378  14.140   2.527   8.107  0.4122 -0.0530 -0.0262
 8129SOL    HW142379  14.061   2.545   8.157 -0.0336  1.2681 -1.1268
 8129SOL    HW242380  14.111   2.529   8.016  1.8084  1.1425 -0.4877
 8130SOL     OW42381   8.542   4.563   6.783  0.5700 -0.5785 -0.0144
 8130SOL    HW142382   8.505   4.646   6.816  1.7045  1.2475 -2.9539
 8130SOL    HW242383   8.627   4.558   6.826  0.6671  0.0157 -0.1191
 8131SOL     OW42384   0.644   4.035   0.877  0.0490  0.4226 -0.8007
 8131SOL    HW142385   0.634   4.000   0.965 -0.6561  2.2226 -0.1000
 8131SOL    HW242386   0.705   4.108   0.887  0.9419 -0.1105 -2.0599
 8132SOL     OW42387  10.056  13.489   8.841 -0.2476  0.8298 -0.5010
 8132SOL    HW142388  10.029  13.570   8.885  0.1811 -0.0399  1.5026
 8132SOL    HW242389  10.007  13.420   8.887 -0.7565 -0.0550 -2.2888
 8133SOL     OW42390  12.902   8.137  12.679 -0.0865 -0.2109  0.1098
 8133SOL    HW142391  12.888   8.052  12.720  1.9585 -2.0517 -2.6357
 8133SOL    HW242392  12.989   8.164  12.708 -0.5231  0.7562  0.5752
 8134SOL     OW42393  12.062   8.188  11.335  0.4147  0.2720  0.2914
 8134SOL    HW142394  12.117   8.219  11.408 -2.4147  2.0600  1.8613
 8134SOL    HW242395  12.074   8.255  11.267 -0.7168  1.3945  1.1444
 8135SOL     OW42396  11.371  10.650   4.335  0.0216 -0.1795 -0.1163
 8135SOL    HW142397  11.303  10.672   4.272  0.4417  0.1581 -0.4624
 8135SOL    HW242398  11.368  10.720   4.400  0.2837  0.0375 -0.3356
 8136SOL     OW42399   5.533   0.262   8.440 -0.3377 -0.5140 -0.0993
 8136SOL    HW142400   5.514   0.170   8.421  1.9019 -0.7921 -1.3262
 8136SOL    HW242401   5.592   0.260   8.515  0.4790 -0.1664 -0.7140
 8137SOL     OW42402  11.173   9.845   6.417 -0.4254  0.2271 -0.2864
 8137SOL    HW142403  11.140   9.890   6.495  0.6715 -0.2626  0.4949
 8137SOL    HW242404  11.108   9.778   6.398 -1.0890  0.8533 -0.2676
 8138SOL     OW42405   9.872   1.306   7.931  0.1213  0.1559  0.3536
 8138SOL    HW142406   9.918   1.261   8.002 -0.7250 -3.3773 -1.1532
 8138SOL    HW242407   9.785   1.324   7.967  0.4122  0.4717  0.9199
 8139SOL     OW42408   0.256  13.416   4.315 -0.7509 -0.0345 -0.3793
 8139SOL    HW142409   0.171  13.373   4.319 -0.3852 -0.9234 -1.4537
 8139SOL    HW242410   0.303  13.369   4.246 -0.0418  1.6181 -1.0599
 8140SOL     OW42411  13.936   4.786   8.633 -0.3013  0.1127 -0.6180
 8140SOL    HW142412  14.031   4.776   8.629  0.0972  2.7235  0.3790
 8140SOL    HW242413  13.905   4.712   8.685  1.0790 -1.1349 -1.5191
 8141SOL     OW42414  11.994  11.811  10.331  0.4436  0.2204  0.5334
 8141SOL    HW142415  11.906  11.830  10.363  0.0072 -2.0144  0.8329
 8141SOL    HW242416  11.986  11.813  10.235 -0.7849 -2.9743  0.4542
 8142SOL     OW42417   9.496   9.491   7.865  0.0865  0.4308 -0.0653
 8142SOL    HW142418   9.442   9.463   7.792 -0.2729  0.8341  0.0445
 8142SOL    HW242419   9.586   9.482   7.833 -0.0798  1.1806 -0.7718
 8143SOL     OW42420  12.963  11.327   2.106 -0.1752 -0.2237  0.5517
 8143SOL    HW142421  13.035  11.344   2.167  0.1053 -2.5267  0.9586
 8143SOL    HW242422  13.006  11.308   2.022 -0.4664  1.0109  0.1066
 8144SOL     OW42423   5.797   3.776   3.781 -0.3623 -0.4320  0.0971
 8144SOL    HW142424   5.848   3.855   3.798 -0.4363 -0.1762 -0.8314
 8144SOL    HW242425   5.733   3.774   3.852 -0.9468  0.8488 -0.3523
 8145SOL     OW42426   8.489  13.182   8.023 -0.5181 -0.1225  0.2569
 8145SOL    HW142427   8.530  13.268   8.025 -0.4535 -0.1535  0.2281
 8145SOL    HW242428   8.398  13.199   8.000 -0.3781 -0.1135 -0.2960
 8146SOL     OW42429   4.781   8.277   8.713  0.5189 -0.7015 -0.0329
 8146SOL    HW142430   4.855   8.222   8.738  0.2955 -1.2935 -0.6604
 8146SOL    HW242431   4.818   8.365   8.708  0.4993 -0.4489  2.7422
 8147SOL     OW42432  10.353  11.859   8.135 -0.1865  0.4725 -0.0340
 8147SOL    HW142433  10.338  11.943   8.178  1.0750 -0.2749  2.0372
 8147SOL    HW242434  10.309  11.796   8.191  1.8740 -0.5970  0.4819
 8148SOL     OW42435   9.347   0.092  14.077 -0.2088 -0.1571  0.2335
 8148SOL    HW142436   9.400   0.167  14.053 -0.5459  0.5053  1.4397
 8148SOL    HW242437   9.260   0.112  14.042 -0.5270  0.4855  1.3075
 8149SOL     OW42438  13.141   2.371   9.084  0.0522 -0.1338  0.4131
 8149SOL    HW142439  13.218   2.426   9.098  0.9499 -0.8668 -1.3188
 8149SOL    HW242440  13.085   2.389   9.159  1.2857  1.4711  1.0142
 8150SOL     OW42441   4.388   5.395   3.031  0.1798 -0.2088 -0.4470
 8150SOL    HW142442   4.324   5.465   3.019 -1.5698 -1.7099 -0.2823
 8150SOL    HW242443   4.399   5.390   3.126 -0.5440 -0.8396 -0.3822
 8151SOL     OW42444  11.331   1.222  11.120 -0.5720 -0.6185  0.5325
 8151SOL    HW142445  11.252   1.200  11.169 -1.3098  0.9448  0.0967
 8151SOL    HW242446  11.371   1.137  11.100 -2.8071 -1.5236 -0.3673
 8152SOL     OW42447   8.982   8.425  11.636  0.4079  0.0095 -0.2345
 8152SOL    HW142448   9.072   8.433  11.667  1.1033  0.3617 -2.2049
 8152SOL    HW242449   8.973   8.333  11.610 -0.8487 -0.8399  2.8172
 8153SOL     OW42450   2.014   8.767   2.946 -0.0134 -0.3818  0.3951
 8153SOL    HW142451   2.051   8.853   2.923 -1.4220  0.5228  1.3185
 8153SOL    HW242452   1.996   8.726   2.862  0.6390  0.2490 -0.0707
 8154SOL     OW42453   2.765   7.688   7.253 -0.3048 -0.0920  0.4278
 8154SOL    HW142454   2.727   7.679   7.165 -0.3867 -0.2874  0.4834
 8154SOL    HW242455   2.767   7.783   7.268  2.0402  0.1093 -0.7957
 8155SOL     OW42456   1.873   2.198   1.048 -0.2977 -0.3628 -0.4123
 8155SOL    HW142457   1.840   2.281   1.083 -1.1367  0.0146 -2.0263
 8155SOL    HW242458   1.943   2.223   0.987 -1.5135 -0.6872 -2.0148
 8156SOL     OW42459   4.048  13.572  11.125 -0.0226  0.5087 -0.1691
 8156SOL    HW142460   4.101  13.523  11.062 -0.3122  0.7620 -0.6145
 8156SOL    HW242461   4.060  13.526  11.207  0.8101  0.5030 -0.2879
 8157SOL     OW42462   5.891   7.197   2.217 -0.0787  0.1753  0.2254
 8157SOL    HW142463   5.872   7.139   2.143  0.1355 -0.2724  0.5201
 8157SOL    HW242464   5.853   7.153   2.292 -0.0044  0.4691  0.4363
 8158SOL     OW42465   6.706   5.583   4.626 -0.3262 -0.0183  0.2780
 8158SOL    HW142466   6.612   5.564   4.624 -0.4019  0.2066  1.2072
 8158SOL    HW242467   6.716   5.644   4.699  0.3550  1.0550 -0.6700
 8159SOL     OW42468   9.535   7.803  10.033  0.0054  0.2237 -0.1429
 8159SOL    HW142469   9.519   7.898  10.035  1.1186  0.4536 -0.9571
 8159SOL    HW242470   9.448   7.764  10.028 -0.4445  1.2333 -0.4991
 8160SOL     OW42471   2.675   8.942   5.692 -0.0688  0.0650 -0.6002
 8160SOL    HW142472   2.643   8.980   5.774  0.6862 -0.7721  0.0949
 8160SOL    HW242473   2.708   9.017   5.643  0.8924  0.4071  0.5191
 8161SOL     OW42474   2.885  11.818   1.047 -0.3305  0.5402  0.8687
 8161SOL    HW142475   2.966  11.804   0.997  0.4319 -0.5244  2.3426
 8161SOL    HW242476   2.907  11.887   1.109 -0.0441 -0.7705  2.2772
 8162SOL     OW42477   4.178  14.152  12.188  0.4239 -0.1884 -0.0289
 8162SOL    HW142478   4.130  14.104  12.256 -0.8808  1.9254  0.6349
 8162SOL    HW242479   4.264  14.168  12.227 -0.3661  1.1667  1.2791
 8163SOL     OW42480   3.146   5.145   4.580 -0.5716  0.3503  0.0425
 8163SOL    HW142481   3.089   5.183   4.514  0.1104 -1.4859 -1.6939
 8163SOL    HW242482   3.096   5.152   4.662 -2.4773  0.4405 -1.0813
 8164SOL     OW42483   9.908   3.477  12.752 -0.0276  0.0346  0.4956
 8164SOL    HW142484   9.901   3.457  12.658 -0.1330  1.1800  0.2534
 8164SOL    HW242485   9.855   3.555  12.764  0.5255  0.2783  1.3953
 8165SOL     OW42486  13.708   0.252   1.489  0.0550 -0.5121 -0.0808
 8165SOL    HW142487  13.662   0.193   1.549 -1.9363  1.6076  0.6278
 8165SOL    HW242488  13.701   0.209   1.404  0.5807 -2.2969  0.7388
 8166SOL     OW42489  12.994   8.441   1.952  0.2251  0.6848 -0.8365
 8166SOL    HW142490  12.992   8.346   1.944 -1.8921  0.2548  2.6702
 8166SOL    HW242491  13.071   8.468   1.901  0.7092 -2.8131 -2.2062
 8167SOL     OW42492   2.570  10.624   9.900 -0.4183  0.1428  0.0107
 8167SOL    HW142493   2.499  10.574   9.859 -0.6573 -0.1625  0.7870
 8167SOL    HW242494   2.526  10.679   9.965 -0.1701  1.4618 -0.9092
 8168SOL     OW42495   7.196   6.536   9.759 -0.3909 -0.2276 -0.1900
 8168SOL    HW142496   7.201   6.444   9.785  1.4944  0.0498  0.5915
 8168SOL    HW242497   7.190   6.584   9.842 -2.6143  0.3512 -0.6176
 8169SOL     OW42498  11.491   6.138  13.605  0.4584 -0.1381  0.4954
 8169SOL    HW142499  11.560   6.172  13.547 -1.7130  1.4510 -1.3430
 8169SOL    HW242500  11.503   6.043  13.604  3.4877  0.1238  1.5027
 8170SOL     OW42501   9.635   4.161   6.877  0.4549  0.5233  0.8350
 8170SOL    HW142502   9.543   4.175   6.853  0.8201  1.4163 -0.1228
 8170SOL    HW242503   9.645   4.206   6.961 -0.0966 -0.0255  1.2079
 8171SOL     OW42504  13.862  10.425   4.996 -0.6338 -0.2698 -0.1443
 8171SOL    HW142505  13.781  10.391   4.958 -0.4452  1.9002 -2.7938
 8171SOL    HW242506  13.860  10.519   4.977  1.7843  0.1214  1.1384
 8172SOL     OW42507   0.542   1.244   1.055 -0.0810 -0.1338 -0.6545
 8172SOL    HW142508   0.479   1.195   1.002 -1.2842  1.8524 -1.1891
 8172SOL    HW242509   0.561   1.323   1.003  2.3070 -0.3037 -0.1601
 8173SOL     OW42510   4.199  11.699   8.258  0.2319  0.0109  0.2694
 8173SOL    HW142511   4.241  11.711   8.343  0.4576 -0.7264  0.2609
 8173SOL    HW242512   4.215  11.781   8.212  2.2413 -0.4911  0.0124
 8174SOL     OW42513   4.394   5.134  12.900  0.5721  0.2718 -0.9328
 8174SOL    HW142514   4.356   5.213  12.863 -1.2765 -0.7820 -1.3953
 8174SOL    HW242515   4.432   5.087  12.825 -1.1726 -0.7741 -1.2137
 8175SOL     OW42516   8.892   7.631   0.296  0.0649  0.4933 -0.0430
 8175SOL    HW142517   8.896   7.578   0.376  1.7564 -1.1113 -1.0813
 8175SOL    HW242518   8.799   7.642   0.278 -0.3704 -1.5117  0.6947
 8176SOL     OW42519  10.007  11.937  11.054  0.1335 -0.0685 -0.2857
 8176SOL    HW142520   9.998  11.937  10.959 -0.4885 -0.5631 -0.2342
 8176SOL    HW242521   9.980  12.025  11.081 -0.3300 -0.1409 -0.5140
 8177SOL     OW42522   7.770   8.344   1.130  0.5183 -0.3293  0.0112
 8177SOL    HW142523   7.841   8.355   1.066  0.1407 -0.4010 -0.4275
 8177SOL    HW242524   7.707   8.287   1.086  0.2296 -0.3361  0.4303
 8178SOL     OW42525   3.770   6.160   2.802  0.0958  0.3184 -0.1427
 8178SOL    HW142526   3.712   6.150   2.878  0.1442 -0.7503 -0.2323
 8178SOL    HW242527   3.714   6.193   2.732 -0.3555 -0.4436 -0.1504
 8179SOL     OW42528  12.435   9.136   1.840  0.4478 -0.4594 -0.4475
 8179SOL    HW142529  12.353   9.089   1.853  0.3095  0.1773  1.2445
 8179SOL    HW242530  12.425   9.216   1.892  1.1957  0.8159 -2.1659
 8180SOL     OW42531   8.603  10.127   9.782  0.5543  0.2614  0.0572
 8180SOL    HW142532   8.597  10.219   9.754 -1.1822 -0.1312 -1.0552
 8180SOL    HW242533   8.622  10.131   9.876 -0.8379  1.7952  0.3132
 8181SOL     OW42534  12.509   2.306   6.252 -0.0439  0.1965 -0.8166
 8181SOL    HW142535  12.485   2.285   6.161 -0.4498 -0.5171 -0.5488
 8181SOL    HW242536  12.560   2.231   6.282 -0.0366  0.3626 -0.4042
 8182SOL     OW42537   9.102   8.293   8.995 -0.0017 -0.0881  0.3832
 8182SOL    HW142538   9.190   8.262   8.974  0.1584  0.4035  0.3145
 8182SOL    HW242539   9.114   8.384   9.021 -0.5801  0.1963 -0.3161
 8183SOL     OW42540   6.417   0.350   1.155  0.1361 -0.5362 -0.2966
 8183SOL    HW142541   6.360   0.421   1.127  1.6402  1.0249  0.3740
 8183SOL    HW242542   6.363   0.272   1.150 -1.5848  0.6463 -1.0932
 8184SOL     OW42543   7.991   5.409   1.867 -0.3070 -0.1161  0.1249
 8184SOL    HW142544   8.075   5.368   1.890  0.3677  0.6346 -0.8951
 8184SOL    HW242545   7.986   5.400   1.772 -1.5539 -0.4377  0.2054
 8185SOL     OW42546   6.824   5.121  12.734  0.0241  0.4493  0.3810
 8185SOL    HW142547   6.777   5.190  12.780 -2.7411 -0.1097 -1.3893
 8185SOL    HW242548   6.851   5.161  12.652 -0.4439 -0.1805 -0.0925
 8186SOL     OW42549   1.318   1.113   3.915 -0.0757  0.4017 -0.3909
 8186SOL    HW142550   1.370   1.049   3.867 -0.0032 -0.1632  0.4191
 8186SOL    HW242551   1.278   1.063   3.986 -0.0564  1.2463  0.2274
 8187SOL     OW42552  11.943  11.317   8.982 -0.2471  0.3372  0.4914
 8187SOL    HW142553  11.863  11.349   8.942  0.1151 -0.5408 -0.9901
 8187SOL    HW242554  11.934  11.222   8.982  1.0194  0.1919 -0.2470
 8188SOL     OW42555   2.444   1.278   0.292  0.2578  0.9811  0.2395
 8188SOL    HW142556   2.364   1.245   0.252  1.0993 -0.7883 -0.0747
 8188SOL    HW242557   2.495   1.312   0.219  0.5231  0.4907  0.1906
 8189SOL     OW42558   7.227   1.315  12.146  0.2406 -0.4824 -0.2952
 8189SOL    HW142559   7.159   1.252  12.122  0.9276 -0.6285 -1.9513
 8189SOL    HW242560   7.272   1.335  12.064  2.1761 -0.3596  0.7256
 8190SOL     OW42561   5.001  14.146   3.292 -0.0295 -0.1492  0.1579
 8190SOL    HW142562   5.086  14.128   3.252 -0.7573 -4.1378 -0.0106
 8190SOL    HW242563   5.011  14.121   3.383 -1.1605 -1.5532 -0.0569
 8191SOL     OW42564  10.498   4.143  10.221 -0.0980 -0.1873  0.0814
 8191SOL    HW142565  10.532   4.219  10.268  2.3206 -0.3671 -1.1991
 8191SOL    HW242566  10.490   4.075  10.288 -3.6288  1.3903  1.5430
 8192SOL     OW42567   0.784   6.426   7.572  0.4091 -0.1927 -0.7749
 8192SOL    HW142568   0.863   6.468   7.537  0.2506 -0.4590 -1.4727
 8192SOL    HW242569   0.817   6.352   7.623  0.7321  1.1315  1.0673
 8193SOL     OW42570   3.080  12.659  10.926 -0.4465 -0.0792 -0.0181
 8193SOL    HW142571   3.109  12.580  10.971 -0.0444 -0.7454 -1.4278
 8193SOL    HW242572   3.157  12.692  10.881 -0.7518  0.8062  0.0793
 8194SOL     OW42573   4.463  12.672   9.703  0.2969 -0.2698 -0.1507
 8194SOL    HW142574   4.499  12.648   9.618  1.4487 -0.0760  0.2630
 8194SOL    HW242575   4.500  12.606   9.763 -0.6121 -0.4880  0.1826
 8195SOL     OW42576   9.072   7.787   3.209  0.5694  0.0465  0.2567
 8195SOL    HW142577   8.987   7.756   3.239  1.1936 -1.6902  0.3029
 8195SOL    HW242578   9.069   7.882   3.225 -1.6642  0.1820 -0.5584
 8196SOL     OW42579   6.875  13.997   5.293 -0.5065 -0.2775 -0.0194
 8196SOL    HW142580   6.781  13.977   5.295 -0.3946 -0.7741  0.4335
 8196SOL    HW242581   6.916  13.923   5.337 -0.1470  1.2328  2.3920
 8197SOL     OW42582   7.060   1.386  10.810  0.1944 -0.6593  0.6209
 8197SOL    HW142583   7.028   1.467  10.770 -1.0153 -0.1622  2.4536
 8197SOL    HW242584   6.980   1.338  10.834  0.8911 -2.0862  0.2296
 8198SOL     OW42585   7.195   6.877   1.111  0.2028  0.1958  0.6628
 8198SOL    HW142586   7.165   6.800   1.063  2.6713 -0.5460  0.1391
 8198SOL    HW242587   7.252   6.922   1.049  3.3737 -0.7105  2.7057
 8199SOL     OW42588  10.295   8.788  13.918  0.1163  0.6511  0.1863
 8199SOL    HW142589  10.210   8.829  13.904 -0.1871  0.0733  0.2844
 8199SOL    HW242590  10.305   8.787  14.013 -0.0952  0.0880  0.2098
 8200SOL     OW42591  10.324   7.365   6.132 -0.0718 -0.1527  0.0935
 8200SOL    HW142592  10.411   7.340   6.164  0.4234  1.6681  0.2819
 8200SOL    HW242593  10.320   7.460   6.146 -2.0147 -0.1772 -0.1175
 8201SOL     OW42594   5.274   5.989   5.498 -0.6229  0.6981  0.4088
 8201SOL    HW142595   5.293   6.023   5.410 -0.6664  1.8252  0.8169
 8201SOL    HW242596   5.341   5.923   5.513  0.9989  2.2908  0.5239
 8202SOL     OW42597   4.934  13.686  11.430  0.0164  0.8796  0.4523
 8202SOL    HW142598   4.868  13.662  11.365  1.3394 -0.8657 -0.3218
 8202SOL    HW242599   5.003  13.729  11.380  0.2863  1.0530  0.9666
 8203SOL     OW42600   8.777   0.492   6.397  0.1403  0.3749  0.2540
 8203SOL    HW142601   8.826   0.532   6.469  0.0125  1.4761 -0.2568
 8203SOL    HW242602   8.840   0.433   6.355 -0.3430 -1.9202  2.4890
 8204SOL     OW42603  11.257  10.041   7.295 -0.2643 -0.7883  0.3601
 8204SOL    HW142604  11.208  10.116   7.263 -0.9604 -1.8380 -1.1896
 8204SOL    HW242605  11.275   9.989   7.216  0.7271 -1.9401  1.2990
 8205SOL     OW42606   7.788   6.145   4.138 -0.1183 -0.8829 -0.0022
 8205SOL    HW142607   7.737   6.215   4.097  1.1717  0.0428 -0.0869
 8205SOL    HW242608   7.820   6.092   4.065 -0.2164 -0.9411 -0.0034
 8206SOL     OW42609  10.937   8.312   5.881 -0.5929  0.9594 -0.7254
 8206SOL    HW142610  10.940   8.280   5.791 -0.6362  1.2148 -0.8185
 8206SOL    HW242611  10.852   8.283   5.914 -1.6624  2.9475 -1.5571
 8207SOL     OW42612  10.054   3.127  11.074  0.0529  0.0038 -0.3999
 8207SOL    HW142613   9.962   3.115  11.051 -0.0012 -0.4963  0.0537
 8207SOL    HW242614  10.079   3.209  11.031 -0.2300 -0.5412 -1.6304
 8208SOL     OW42615  12.089   3.511  12.031 -0.0857  0.1474 -0.1445
 8208SOL    HW142616  12.051   3.427  12.057 -0.0832  0.7007  1.7949
 8208SOL    HW242617  12.100   3.559  12.113 -0.5308  2.2435 -1.2424
 8209SOL     OW42618  11.964   9.115   4.750  0.2932 -0.4212 -0.0091
 8209SOL    HW142619  11.946   9.083   4.661 -0.4081  1.8109 -0.7314
 8209SOL    HW242620  12.046   9.162   4.742 -1.0929  2.1579 -0.2078
 8210SOL     OW42621  11.186   0.992   1.898 -0.0692 -0.5447 -0.3709
 8210SOL    HW142622  11.260   1.003   1.838 -0.6634 -0.5563 -1.1197
 8210SOL    HW242623  11.196   1.063   1.961  0.6214 -0.5943 -0.4125
 8211SOL     OW42624   4.296   6.084  14.009  0.5170  0.1548  0.2167
 8211SOL    HW142625   4.221   6.029  14.032  1.1521 -0.6469  0.4100
 8211SOL    HW242626   4.274   6.119  13.922 -0.2865  0.3202  0.4761
 8212SOL     OW42627  12.581   2.473   4.314 -0.0051  0.2305 -0.9721
 8212SOL    HW142628  12.563   2.451   4.406 -1.7533  0.0684 -1.3233
 8212SOL    HW242629  12.674   2.453   4.303  0.0832 -0.3946  0.5808
 8213SOL     OW42630   3.802   2.138   8.760  0.2231  0.2076  0.5346
 8213SOL    HW142631   3.711   2.137   8.790 -0.5802 -0.0613 -1.7063
 8213SOL    HW242632   3.844   2.208   8.811 -1.4174  0.8158  1.1067
 8214SOL     OW42633   1.979   5.008   4.938  0.0857 -0.5413 -0.1495
 8214SOL    HW142634   1.972   4.919   4.905 -0.7118 -0.6281  0.2289
 8214SOL    HW242635   2.057   5.008   4.993 -0.9079 -1.4875  1.3129
 8215SOL     OW42636   1.762   1.325   5.602  0.0969 -0.1961 -0.0913
 8215SOL    HW142637   1.674   1.341   5.569  0.0336  0.2688  0.2865
 8215SOL    HW242638   1.763   1.232   5.624 -0.2142 -0.2626 -0.3461
 8216SOL     OW42639   4.671  13.312   6.997 -0.0595 -0.6188  0.7621
 8216SOL    HW142640   4.670  13.219   6.977 -1.3499 -0.8066  1.6209
 8216SOL    HW242641   4.661  13.355   6.911 -0.4392 -1.2961  0.4611
 8217SOL     OW42642   2.826  12.507   0.158  0.2427  0.1120  0.4454
 8217SOL    HW142643   2.817  12.594   0.197  2.5468  1.2407 -1.3313
 8217SOL    HW242644   2.887  12.462   0.216 -0.6238 -0.2241  1.1290
 8218SOL     OW42645   6.747   5.553   9.293  0.2294 -0.3962  0.0372
 8218SOL    HW142646   6.744   5.648   9.291  1.8832 -0.2847  1.1083
 8218SOL    HW242647   6.748   5.530   9.386  1.2281 -1.3792 -0.1929
 8219SOL     OW42648  12.457   2.934  11.120 -0.0194  0.1099 -0.2136
 8219SOL    HW142649  12.528   2.985  11.082  0.4920 -0.0204  0.5499
 8219SOL    HW242650  12.498   2.853  11.149 -0.5015 -0.0191  0.1330
 8220SOL     OW42651   0.969   3.936   1.391  0.0018  0.0183 -0.4903
 8220SOL    HW142652   0.997   3.893   1.472 -2.8065  1.8061  1.6206
 8220SOL    HW242653   0.931   3.865   1.339  2.0453 -1.1963 -0.4579
 8221SOL     OW42654  13.499  14.152   8.078  0.4115 -0.1868 -0.6275
 8221SOL    HW142655  13.483  14.076   8.134 -1.9640  0.3800 -0.4390
 8221SOL    HW242656  13.553  14.210   8.132  1.3646 -1.2459 -0.3858
 8222SOL     OW42657   8.249  10.023  12.604 -0.1580 -0.3140  0.6836
 8222SOL    HW142658   8.234   9.950  12.544 -1.3131 -0.7802  1.5046
 8222SOL    HW242659   8.278   9.982  12.686 -1.0491  0.1101  1.2234
 8223SOL     OW42660   5.943  10.615   9.822  0.1654 -0.3477  0.1463
 8223SOL    HW142661   5.992  10.561   9.884  1.1742 -0.5628 -0.8139
 8223SOL    HW242662   5.999  10.692   9.807 -0.8441  0.5539  0.7982
 8224SOL     OW42663   9.562   5.672   5.207 -0.4834  0.2005 -0.0207
 8224SOL    HW142664   9.532   5.600   5.152 -1.2760 -0.0747  0.7620
 8224SOL    HW242665   9.626   5.633   5.266  1.1512  0.6979 -1.3841
 8225SOL     OW42666   1.611   6.855   7.184  0.2969 -1.1042 -0.3012
 8225SOL    HW142667   1.532   6.832   7.233 -1.5980  3.7850 -0.4981
 8225SOL    HW242668   1.590   6.834   7.093 -0.9290  0.2528 -0.3651
 8226SOL     OW42669   2.627  13.685   3.202  0.4395  0.3566  0.2300
 8226SOL    HW142670   2.578  13.648   3.276 -0.3270  2.2997  0.7582
 8226SOL    HW242671   2.569  13.672   3.127  0.7722 -0.6970  0.1395
 8227SOL     OW42672   4.555   0.290   1.647 -0.0221  0.0451 -0.4852
 8227SOL    HW142673   4.633   0.235   1.642 -0.6958 -1.0241  0.5981
 8227SOL    HW242674   4.523   0.293   1.557  0.4364 -0.7160 -0.6818
 8228SOL     OW42675  12.801   2.303  13.219 -0.1057 -0.2102 -0.0200
 8228SOL    HW142676  12.718   2.318  13.175 -0.3687  0.9800  0.8225
 8228SOL    HW242677  12.780   2.243  13.290 -0.7020  1.5376  1.3747
 8229SOL     OW42678   4.688   6.462   1.022  0.2076 -0.3674 -0.1128
 8229SOL    HW142679   4.774   6.487   1.055  0.1227  0.2516 -0.3594
 8229SOL    HW242680   4.628   6.527   1.058 -0.8428 -2.9547  3.3637
 8230SOL     OW42681   5.745   6.072   7.915 -0.1861 -0.0007  0.1631
 8230SOL    HW142682   5.655   6.076   7.946 -0.0758  0.0123  0.4822
 8230SOL    HW242683   5.796   6.047   7.991 -0.0646 -1.2561 -0.3120
 8231SOL     OW42684  11.765   9.379   2.131 -0.3095 -0.4238  0.1792
 8231SOL    HW142685  11.858   9.395   2.114 -0.1041 -1.0540  0.6640
 8231SOL    HW242686  11.720   9.455   2.094  0.4197  0.0047  0.1556
 8232SOL     OW42687  13.115  13.229  13.101  0.6813 -0.5419  0.0697
 8232SOL    HW142688  13.034  13.229  13.049  0.7295  4.7265 -0.5446
 8232SOL    HW242689  13.184  13.246  13.037  1.1352  2.8600  1.2573
 8233SOL     OW42690  13.605   3.328  10.981  0.4184 -0.1188  0.0752
 8233SOL    HW142691  13.647   3.372  11.055  0.7902 -1.2603  0.5522
 8233SOL    HW242692  13.623   3.235  10.994 -1.4872 -0.5688 -0.1991
 8234SOL     OW42693   3.562   9.281  11.336  0.1127  0.6814 -0.2129
 8234SOL    HW142694   3.551   9.191  11.367 -0.2959  1.2370  1.3496
 8234SOL    HW242695   3.560   9.273  11.240 -1.8568 -0.7509 -0.1365
 8235SOL     OW42696   0.393   2.404   4.929 -0.7284  0.0775  0.2333
 8235SOL    HW142697   0.340   2.355   4.992 -0.6573 -1.4331 -0.8080
 8235SOL    HW242698   0.470   2.432   4.977 -0.6138 -1.1583  0.7894
 8236SOL     OW42699   1.395   7.582   4.743 -0.2095 -0.7765 -0.2074
 8236SOL    HW142700   1.386   7.529   4.822  2.0557 -0.2506  0.5058
 8236SOL    HW242701   1.381   7.672   4.774 -1.3831 -0.7345 -0.8478
 8237SOL     OW42702  11.281   4.104   1.303 -0.1194 -0.6803  0.3671
 8237SOL    HW142703  11.228   4.092   1.382 -1.4254 -0.5441 -0.4652
 8237SOL    HW242704  11.273   4.197   1.283 -1.5505 -1.0757 -1.0871
 8238SOL     OW42705   6.899   3.356   8.075  0.4961  0.3898 -0.2734
 8238SOL    HW142706   6.891   3.425   8.141  0.6011  0.7907 -0.6733
 8238SOL    HW242707   6.813   3.350   8.036 -0.0161 -0.9472  0.9579
 8239SOL     OW42708  11.205   7.981   1.488 -0.4048 -0.9899 -0.0262
 8239SOL    HW142709  11.282   7.959   1.540 -1.0594 -2.8000  0.2485
 8239SOL    HW242710  11.189   8.073   1.507  0.4282 -1.1377  1.5803
 8240SOL     OW42711   6.742   2.472   6.783 -0.2528  0.1294 -0.3865
 8240SOL    HW142712   6.714   2.457   6.692 -1.3422  0.5458 -0.1400
 8240SOL    HW242713   6.793   2.553   6.779  2.3924 -1.4626 -1.0989
 8241SOL     OW42714  12.101   9.706  13.715 -0.2391 -0.2487  0.0989
 8241SOL    HW142715  12.129   9.790  13.750  0.7896 -0.9535  1.0389
 8241SOL    HW242716  12.015   9.690  13.756 -0.3368  0.2324  0.0827
 8242SOL     OW42717   1.049   9.939   1.561  0.1923 -0.1919  0.4675
 8242SOL    HW142718   1.009   9.853   1.552 -3.4697  1.4004 -0.5858
 8242SOL    HW242719   1.088   9.956   1.475 -1.3438  0.1385 -0.1973
 8243SOL     OW42720  13.015   5.635   1.177 -0.2838 -0.2998 -0.7067
 8243SOL    HW142721  12.924   5.632   1.206 -0.3350 -2.6390 -0.9175
 8243SOL    HW242722  13.052   5.710   1.223 -2.0286  0.0378  0.2434
 8244SOL     OW42723   7.400  12.145  13.957  0.3908 -0.1287  0.1483
 8244SOL    HW142724   7.396  12.241  13.958 -1.1176 -0.1703  0.2094
 8244SOL    HW242725   7.426  12.123  13.867 -2.0666  0.3018 -0.7376
 8245SOL     OW42726   1.308  11.950  12.659 -0.2276  0.1794 -0.0113
 8245SOL    HW142727   1.307  12.011  12.584  0.2324 -1.7486 -1.6823
 8245SOL    HW242728   1.400  11.924  12.666 -0.2738  0.3347  1.2565
 8246SOL     OW42729   3.812  10.064   2.549  0.0422  0.3166 -0.4001
 8246SOL    HW142730   3.824  10.146   2.596  2.9197 -0.1499 -0.1645
 8246SOL    HW242731   3.801  10.090   2.457  1.2154  0.9665 -0.3679
 8247SOL     OW42732   7.894  12.899   9.979  0.0504 -0.0825 -0.0834
 8247SOL    HW142733   7.911  12.983  10.022  0.3889 -0.4396  0.4942
 8247SOL    HW242734   7.930  12.910   9.891 -1.0703  0.8183 -0.4515
 8248SOL     OW42735   5.868   4.305   8.689 -0.4543  0.2474 -0.2449
 8248SOL    HW142736   5.901   4.363   8.621  1.1764 -0.4646 -0.1054
 8248SOL    HW242737   5.774   4.323   8.693  0.0376  3.1722  0.0787
 8249SOL     OW42738   2.930  10.542   5.930 -0.0713 -0.0812  0.2311
 8249SOL    HW142739   3.026  10.548   5.929  0.0512 -0.5104  2.8543
 8249SOL    HW242740   2.900  10.632   5.939  0.1084  0.0022  0.0073
 8250SOL     OW42741   2.605   2.263   9.205 -0.9578 -0.5659  0.0018
 8250SOL    HW142742   2.576   2.172   9.202  1.4469 -1.3873 -2.7986
 8250SOL    HW242743   2.578   2.299   9.120  0.8027  0.3679 -0.2062
 8251SOL     OW42744  11.877  10.232  11.003  0.0964 -0.2950 -0.1359
 8251SOL    HW142745  11.932  10.240  10.925 -1.5566  1.0258 -1.2479
 8251SOL    HW242746  11.939  10.232  11.076  1.6301 -0.3723 -1.3827
 8252SOL     OW42747   9.890   6.202   4.331  0.4198  0.1987 -0.3418
 8252SOL    HW142748   9.924   6.114   4.315  0.6655  0.3405 -0.6008
 8252SOL    HW242749   9.956   6.244   4.385 -1.0346 -0.7480  2.4017
 8253SOL     OW42750   3.993   6.276  11.127 -0.1278 -0.2789 -0.6577
 8253SOL    HW142751   3.958   6.196  11.166  2.1792 -0.9186  0.2575
 8253SOL    HW242752   4.033   6.322  11.201 -3.3415  2.9814 -0.6472
 8254SOL     OW42753   9.105   6.339   2.085 -0.0234 -0.1060 -0.2430
 8254SOL    HW142754   9.033   6.364   2.028 -0.5447 -0.4505  0.2570
 8254SOL    HW242755   9.172   6.304   2.025 -1.1337 -1.8243 -0.5337
 8255SOL     OW42756  10.672   5.456  10.058  0.4397 -0.0773  0.0036
 8255SOL    HW142757  10.698   5.549  10.055 -0.4561  0.1670 -0.9435
 8255SOL    HW242758  10.737   5.412  10.004 -0.9153  0.5021 -2.2123
 8256SOL     OW42759   4.371   0.278  10.766  0.6157  0.4497  0.0848
 8256SOL    HW142760   4.368   0.373  10.766  0.4437  0.5349 -2.6579
 8256SOL    HW242761   4.457   0.256  10.732  0.5006 -0.3760  0.2997
 8257SOL     OW42762   7.538  11.083   2.201 -0.1963 -0.9218  0.1489
 8257SOL    HW142763   7.574  11.016   2.259  1.2205  0.5186  1.0146
 8257SOL    HW242764   7.586  11.163   2.223 -1.9579  0.4546 -0.6889
 8258SOL     OW42765   5.387   6.699  14.040 -0.2273 -0.0651 -0.6116
 8258SOL    HW142766   5.419   6.789  14.030  0.8960 -0.3943 -0.2175
 8258SOL    HW242767   5.388   6.663  13.951 -0.7325  0.3208 -0.7789
 8259SOL     OW42768   2.758  11.003  10.394  0.2324  0.2292  0.2970
 8259SOL    HW142769   2.842  10.994  10.439  0.5319  2.5939  0.2979
 8259SOL    HW242770   2.693  11.001  10.464  0.2356 -1.5701  0.2993
 8260SOL     OW42771   9.211   2.502   3.114  0.1172  0.4232 -0.1277
 8260SOL    HW142772   9.209   2.408   3.131  0.1193  0.1498 -1.5507
 8260SOL    HW242773   9.210   2.542   3.202 -0.4455 -0.8747  0.4846
 8261SOL     OW42774  10.470   6.302  10.336  0.3728  0.1579  0.1017
 8261SOL    HW142775  10.504   6.262  10.415  0.4513 -1.5364 -0.7498
 8261SOL    HW242776  10.522   6.265  10.265 -0.2659  0.9730 -0.8304
 8262SOL     OW42777  10.462   9.111   7.636  0.1829  0.4935  0.1352
 8262SOL    HW142778  10.481   9.177   7.569  0.9210 -0.9212 -1.1103
 8262SOL    HW242779  10.383   9.144   7.680 -0.2665  1.5191 -1.3525
 8263SOL     OW42780  11.582   8.748   3.790 -0.1358  0.1121 -0.2373
 8263SOL    HW142781  11.532   8.826   3.768 -0.0424  0.0689 -0.6052
 8263SOL    HW242782  11.552   8.682   3.728  0.6892  0.2103 -0.7588
 8264SOL     OW42783   9.549   4.805   8.136  0.3788 -0.3103 -0.5427
 8264SOL    HW142784   9.477   4.760   8.093  0.8271  0.0838 -1.7573
 8264SOL    HW242785   9.582   4.866   8.070  2.4309 -1.1455 -0.3739
 8265SOL     OW42786  11.779  11.161   3.070  0.5317  0.3769  0.1671
 8265SOL    HW142787  11.818  11.136   3.153  1.3392 -0.1262 -0.3444
 8265SOL    HW242788  11.740  11.246   3.086 -0.5576 -0.3273  1.4305
 8266SOL     OW42789   6.690   1.900  12.148  0.4709  0.3782 -0.1546
 8266SOL    HW142790   6.737   1.983  12.160 -0.5592  1.0584 -0.5967
 8266SOL    HW242791   6.606   1.926  12.110 -0.3174 -0.7721  0.7138
 8267SOL     OW42792   2.772  13.193   5.142 -0.6388 -0.0208 -0.3983
 8267SOL    HW142793   2.696  13.246   5.119 -2.0139 -1.3607  0.7958
 8267SOL    HW242794   2.749  13.152   5.225  2.2418  1.0630  1.0739
 8268SOL     OW42795   9.580   3.369   9.952  0.3325  0.0272  0.0195
 8268SOL    HW142796   9.667   3.354   9.915 -0.5227  0.9711 -2.5259
 8268SOL    HW242797   9.580   3.317  10.033  3.7358  1.1616  0.9212
 8269SOL     OW42798   1.073   4.979   8.512  0.0494  0.2930 -0.4921
 8269SOL    HW142799   1.132   5.032   8.458  0.0755 -0.1224 -0.8799
 8269SOL    HW242800   1.043   4.909   8.453  1.6440 -1.3641  0.5370
 8270SOL     OW42801   6.838   7.399   0.079 -0.1627 -0.4150  0.6354
 8270SOL    HW142802   6.840   7.332   0.011 -1.8412 -0.3854  0.5344
 8270SOL    HW242803   6.925   7.393   0.120  0.3477 -1.4299 -0.5245
 8271SOL     OW42804   2.540   1.375   3.736  0.4563  0.2521  0.0618
 8271SOL    HW142805   2.613   1.376   3.798  1.0153 -1.0188 -0.5398
 8271SOL    HW242806   2.581   1.388   3.651 -0.0414 -0.3143 -0.2646
 8272SOL     OW42807   7.204   4.558   7.586  0.4403  0.6594  0.2848
 8272SOL    HW142808   7.189   4.475   7.541  1.1246  0.5868  0.1791
 8272SOL    HW242809   7.241   4.616   7.519  1.0256  0.6958  0.6311
 8273SOL     OW42810   9.586  11.214   8.183  0.1040 -0.4579  0.3366
 8273SOL    HW142811   9.663  11.186   8.133  0.5295  0.9762  0.1546
 8273SOL    HW242812   9.513  11.204   8.122 -0.0053 -2.4588  0.7138
 8274SOL     OW42813   1.214   2.702   0.192 -0.3736 -0.4078  0.6868
 8274SOL    HW142814   1.152   2.680   0.122  0.9823 -0.9182 -0.3856
 8274SOL    HW242815   1.212   2.798   0.197 -1.5732 -0.4315  0.9959
 8275SOL     OW42816  12.644   7.621  13.695 -0.7872 -0.7193  0.6303
 8275SOL    HW142817  12.720   7.619  13.637 -0.4973 -2.5169  1.0178
 8275SOL    HW242818  12.568   7.618  13.636 -0.5883  0.7329  0.2586
 8276SOL     OW42819   4.325   4.769   0.441 -0.1246  0.5349 -0.2304
 8276SOL    HW142820   4.276   4.844   0.475 -0.6124 -0.7681  2.1817
 8276SOL    HW242821   4.340   4.713   0.518  1.4065 -1.1997 -1.6841
 8277SOL     OW42822  11.349   0.477   1.087  0.0304 -0.6345  0.2153
 8277SOL    HW142823  11.392   0.398   1.055  0.5772 -0.6172  0.8853
 8277SOL    HW242824  11.336   0.531   1.009 -0.5588 -1.4753 -0.2831
 8278SOL     OW42825   6.421   9.367   2.024  0.2961  0.3905 -0.0019
 8278SOL    HW142826   6.335   9.369   2.067  0.2646 -0.0511 -0.0358
 8278SOL    HW242827   6.415   9.293   1.963 -0.2626  2.0161 -2.0312
 8279SOL     OW42828   5.369  10.245   2.900 -0.9104  0.6778  0.8719
 8279SOL    HW142829   5.384  10.336   2.876  0.8368  0.5225  1.2745
 8279SOL    HW242830   5.310  10.212   2.833 -0.0575  1.6006 -0.3657
 8280SOL     OW42831   0.749   9.141   4.188 -0.0760 -0.2838 -0.7649
 8280SOL    HW142832   0.763   9.061   4.138  2.2466 -0.4549  0.0229
 8280SOL    HW242833   0.773   9.212   4.128 -1.2117 -0.2173 -1.1565
 8281SOL     OW42834   8.178   9.735  13.008 -0.0545 -1.0131  0.2529
 8281SOL    HW142835   8.157   9.648  12.973 -0.8870 -1.2548  1.2847
 8281SOL    HW242836   8.209   9.718  13.096  2.1027 -0.4216 -0.3476
 8282SOL     OW42837   4.987   7.885   9.613 -0.1835 -0.3478 -0.3316
 8282SOL    HW142838   5.007   7.969   9.654 -1.7332  0.6000 -1.3924
 8282SOL    HW242839   4.908   7.855   9.658 -0.3828 -0.5862 -0.8305
 8283SOL     OW42840  12.015  13.990  11.271 -0.0861 -0.2557  0.4933
 8283SOL    HW142841  11.932  14.003  11.227  0.6222 -0.2860 -0.9131
 8283SOL    HW242842  12.030  14.071  11.320 -0.3548  0.2464 -0.2514
 8284SOL     OW42843   5.163  11.241   8.308  0.0367  0.3265  0.7585
 8284SOL    HW142844   5.088  11.188   8.335  1.2879 -1.2294  1.3069
 8284SOL    HW242845   5.168  11.229   8.213  1.0049 -1.5345  1.0147
 8285SOL     OW42846   1.307   3.011   3.808 -0.6342  0.1306  0.0643
 8285SOL    HW142847   1.222   2.967   3.806  0.9663 -3.4535  1.2438
 8285SOL    HW242848   1.309   3.055   3.893 -1.4931  0.7590 -0.2247
 8286SOL     OW42849   6.856   9.828   1.569  0.4162 -0.1972  0.3609
 8286SOL    HW142850   6.803   9.812   1.491 -0.2183 -0.3460  0.8128
 8286SOL    HW242851   6.835   9.918   1.595 -1.7176 -1.1086  2.0860
 8287SOL     OW42852   2.934   1.496   4.576  0.0761  0.1399  0.3847
 8287SOL    HW142853   2.876   1.422   4.560 -1.4513  0.9050  2.0623
 8287SOL    HW242854   3.017   1.455   4.602  0.0242 -0.9614 -1.0487
 8288SOL     OW42855   4.467   5.543   7.016  0.2733  0.5320  0.0812
 8288SOL    HW142856   4.531   5.550   7.087 -0.3645  0.0570  0.7258
 8288SOL    HW242857   4.464   5.450   6.996  0.5395  0.6775 -0.6723
 8289SOL     OW42858   0.223  12.358   0.759 -0.4085 -0.0685 -0.0857
 8289SOL    HW142859   0.194  12.447   0.779  0.8555  0.0922  1.2705
 8289SOL    HW242860   0.144  12.311   0.733 -0.8519  1.8685 -2.5756
 8290SOL     OW42861   2.255  13.545  10.792  0.0243  0.1835 -0.6762
 8290SOL    HW142862   2.227  13.494  10.716 -1.4767 -1.5170  0.9343
 8290SOL    HW242863   2.189  13.614  10.801 -1.4801 -1.3572  0.7088
 8291SOL     OW42864  11.474   6.285   3.052  0.4636  0.2435 -0.2933
 8291SOL    HW142865  11.421   6.260   3.128 -1.4287 -0.6275 -1.7805
 8291SOL    HW242866  11.563   6.262   3.076  0.4966  2.9820  2.8524
 8292SOL     OW42867   2.198   8.260   8.883 -0.1804  0.1489 -0.2477
 8292SOL    HW142868   2.276   8.315   8.880 -0.7112  0.8746 -1.2117
 8292SOL    HW242869   2.207   8.210   8.964  1.1830  0.3648 -0.2422
 8293SOL     OW42870   2.272  10.438   5.918 -0.0886  0.3022 -0.0787
 8293SOL    HW142871   2.313  10.355   5.894  1.2217  0.5627  1.1284
 8293SOL    HW242872   2.265  10.486   5.836 -1.5225 -1.2418 -0.9296
 8294SOL     OW42873  10.239   0.875   7.794  0.9772  0.5594 -0.2595
 8294SOL    HW142874  10.283   0.869   7.878 -1.9553 -0.4417  1.3183
 8294SOL    HW242875  10.211   0.966   7.788 -0.0476  0.3133  0.5627
 8295SOL     OW42876   4.751   7.878  13.859  0.5106  0.1105  0.2376
 8295SOL    HW142877   4.656   7.870  13.858  0.4325  0.9495 -0.5141
 8295SOL    HW242878   4.779   7.827  13.935 -0.4948 -0.5663  0.1661
 8296SOL     OW42879  10.844   6.582  10.157  0.3726  0.1560 -0.0704
 8296SOL    HW142880  10.876   6.531  10.232 -0.2427  1.2151  0.9346
 8296SOL    HW242881  10.913   6.572  10.091  0.2062 -2.0920  0.0041
 8297SOL     OW42882   9.295   0.198   3.907  0.2522  0.0027  0.1596
 8297SOL    HW142883   9.317   0.229   3.819  2.4058  0.1272  0.7006
 8297SOL    HW242884   9.324   0.107   3.909 -3.1932 -1.2877 -0.3871
 8298SOL     OW42885  12.131   0.329   2.460 -0.2748  0.1918  0.0317
 8298SOL    HW142886  12.210   0.345   2.513 -1.2767  0.5643  1.4639
 8298SOL    HW242887  12.163   0.278   2.386  1.8509  2.7764 -1.0275
 8299SOL     OW42888   7.980   7.562  11.760 -0.3590  0.4686 -0.0120
 8299SOL    HW142889   7.895   7.540  11.722 -0.1611 -1.1668  0.4022
 8299SOL    HW242890   7.969   7.544  11.853  0.8979 -1.4659 -0.1736
 8300SOL     OW42891  12.718  11.066  11.238  0.1052  0.3076  0.4078
 8300SOL    HW142892  12.692  11.145  11.286 -0.7153  0.3666 -0.1182
 8300SOL    HW242893  12.639  11.012  11.236  0.7802 -0.7545  1.1632
 8301SOL     OW42894  12.300   5.754  13.266 -0.0274 -0.2917 -0.3609
 8301SOL    HW142895  12.320   5.834  13.219 -0.3029 -1.2796 -2.2501
 8301SOL    HW242896  12.342   5.685  13.216 -2.7060 -1.7106 -0.8530
 8302SOL     OW42897   6.201   5.772  12.137 -0.4443 -0.2342  0.4610
 8302SOL    HW142898   6.148   5.724  12.074 -1.6206  2.0020 -0.3905
 8302SOL    HW242899   6.139   5.824  12.188  0.5859 -1.0615  2.7147
 8303SOL     OW42900   7.873  13.141  11.685 -0.0831 -0.1892 -0.1725
 8303SOL    HW142901   7.954  13.171  11.727  0.0546 -0.1428 -0.4619
 8303SOL    HW242902   7.815  13.118  11.757 -0.4247  1.3868  0.0918
 8304SOL     OW42903   7.727   8.228   5.380  0.1099 -0.3151  0.5098
 8304SOL    HW142904   7.775   8.145   5.386 -0.1077 -0.3944  1.3456
 8304SOL    HW242905   7.791   8.295   5.404  0.7898 -0.0158 -1.8738
 8305SOL     OW42906   0.070  11.154  10.622  0.5232  0.0395  0.3384
 8305SOL    HW142907   0.142  11.106  10.581  0.5357  0.1948  0.1775
 8305SOL    HW242908  -0.008  11.126  10.574  0.3269 -0.9127  1.1790
 8306SOL     OW42909   9.686  11.774   2.329 -0.4739 -0.1341  0.7383
 8306SOL    HW142910   9.696  11.716   2.405  1.2892  0.2911  0.8740
 8306SOL    HW242911   9.775  11.803   2.309 -1.1688  1.5945 -0.0610
 8307SOL     OW42912   8.530   6.667  10.711  0.6822  0.7188 -0.0355
 8307SOL    HW142913   8.588   6.603  10.670  0.4480  1.1859 -1.1348
 8307SOL    HW242914   8.573   6.752  10.697  0.3952  0.9276  0.3245
 8308SOL     OW42915  10.574  10.383   5.944  0.0464  0.1570 -0.6559
 8308SOL    HW142916  10.572  10.304   5.998 -1.3946  0.7550  0.2290
 8308SOL    HW242917  10.510  10.366   5.875 -0.7274  0.7499 -0.1110
 8309SOL     OW42918  10.941   0.729  11.891 -0.7558  0.6799  0.0641
 8309SOL    HW142919  10.980   0.806  11.849  1.8417 -0.8956 -0.6534
 8309SOL    HW242920  10.852   0.725  11.856  0.1241  1.5026 -2.5134
 8310SOL     OW42921   2.491   8.656   9.866 -0.4133 -0.3328 -0.5324
 8310SOL    HW142922   2.510   8.585   9.805  2.4993  0.0893 -0.2471
 8310SOL    HW242923   2.523   8.624   9.951  0.6949  1.1457 -0.3397
 8311SOL     OW42924   7.209  10.904  14.015  0.3431 -0.1077 -0.7081
 8311SOL    HW142925   7.131  10.849  14.016 -0.8913  1.5367 -0.6210
 8311SOL    HW242926   7.233  10.911  13.923 -1.0636  1.2259 -1.0183
 8312SOL     OW42927  13.596   1.692  12.041  0.2029  0.1643 -0.0851
 8312SOL    HW142928  13.627   1.704  12.131  0.6253  1.1258 -0.3505
 8312SOL    HW242929  13.626   1.770  11.994  0.8759 -0.7814 -1.3068
 8313SOL     OW42930   5.853  11.564  10.478 -0.6889 -0.2098  0.1410
 8313SOL    HW142931   5.876  11.608  10.396 -0.9194 -1.3276 -0.5459
 8313SOL    HW242932   5.851  11.471  10.455 -3.3730 -0.3854  0.7380
 8314SOL     OW42933   6.431   9.670   1.640 -0.5088 -0.3291 -0.2501
 8314SOL    HW142934   6.427   9.761   1.611 -2.3829 -0.5019 -0.6446
 8314SOL    HW242935   6.422   9.619   1.559  1.5717 -0.9275 -0.1726
 8315SOL     OW42936  11.081   5.055   9.963 -0.1155 -0.3454 -0.4300
 8315SOL    HW142937  11.139   5.049  10.040 -0.2250  0.8878 -0.2197
 8315SOL    HW242938  11.141   5.058   9.888  0.1105  0.8255 -0.2204
 8316SOL     OW42939   6.437   7.593   9.797  0.4288 -0.1277  0.1338
 8316SOL    HW142940   6.522   7.638   9.792 -0.4880  1.5755 -2.9718
 8316SOL    HW242941   6.376   7.662   9.824 -0.3254 -0.6726 -0.1575
 8317SOL     OW42942   4.876   9.879   9.304 -0.1065  0.2336  0.6784
 8317SOL    HW142943   4.854   9.958   9.255  1.8292 -0.3793 -1.3230
 8317SOL    HW242944   4.955   9.902   9.353 -1.8348  0.7385  3.4695
 8318SOL     OW42945  13.236   5.642   5.799 -0.5405 -0.1328  0.0889
 8318SOL    HW142946  13.143   5.644   5.819 -0.2781  1.4097  1.3274
 8318SOL    HW242947  13.243   5.682   5.712 -1.1357 -1.6158 -0.6803
 8319SOL     OW42948   0.235   8.147   0.858 -0.5550  0.0079 -0.0387
 8319SOL    HW142949   0.241   8.233   0.815 -0.5288 -0.6166 -1.3361
 8319SOL    HW242950   0.291   8.155   0.935  0.1925  0.8794 -0.6486
 8320SOL     OW42951  12.698  10.407   4.289 -0.1376  0.0520 -0.6548
 8320SOL    HW142952  12.759  10.471   4.252  0.4354 -0.4592 -0.6013
 8320SOL    HW242953  12.678  10.348   4.216  0.2233 -0.3734 -0.4163
 8321SOL     OW42954   4.929   6.337  12.594  0.4569 -0.1161  0.5474
 8321SOL    HW142955   4.856   6.280  12.570  1.9188 -1.0998 -1.9225
 8321SOL    HW242956   4.913   6.359  12.686 -2.1646 -1.4122  0.4925
 8322SOL     OW42957   3.102  12.997   0.791  0.7293  0.8857 -0.0051
 8322SOL    HW142958   3.013  13.024   0.770 -0.1044 -0.8126  1.1441
 8322SOL    HW242959   3.105  12.997   0.887  1.6249 -0.0673 -0.0189
 8323SOL     OW42960   7.770   0.188   2.512  0.0169  0.0793 -1.0083
 8323SOL    HW142961   7.688   0.143   2.533  0.5334 -0.8269 -0.8788
 8323SOL    HW242962   7.783   0.248   2.586 -0.4676  0.1461 -0.9730
 8324SOL     OW42963  10.155   6.067   2.211 -0.5122 -0.2005  0.2474
 8324SOL    HW142964  10.076   6.061   2.264  0.5966 -2.1657  1.7703
 8324SOL    HW242965  10.212   6.128   2.259 -1.2233  1.6509 -1.1262
 8325SOL     OW42966   6.211   6.811   8.852  0.5007 -0.4332  0.1652
 8325SOL    HW142967   6.169   6.891   8.821 -2.0787 -1.6011  0.4033
 8325SOL    HW242968   6.198   6.811   8.947  0.1708 -1.2725  0.1342
 8326SOL     OW42969   2.478   4.661   8.757 -0.4169 -0.2362 -0.6611
 8326SOL    HW142970   2.428   4.586   8.789 -0.0130 -1.2165 -2.2398
 8326SOL    HW242971   2.411   4.728   8.739 -1.3622 -1.7961 -3.4753
 8327SOL     OW42972  11.507   8.095  11.552  0.0718 -0.3585 -0.8170
 8327SOL    HW142973  11.443   8.024  11.544 -0.5754 -0.0013  0.8681
 8327SOL    HW242974  11.490   8.150  11.475 -0.4521 -1.1991 -1.3228
 8328SOL     OW42975   9.769   6.513   5.877 -0.1635 -0.9532  0.2410
 8328SOL    HW142976   9.798   6.560   5.955  0.1733 -1.5700  0.4962
 8328SOL    HW242977   9.703   6.570   5.838  0.7888  0.0979  0.1016
 8329SOL     OW42978   7.238   1.706   8.806 -0.0447  0.2724  0.3236
 8329SOL    HW142979   7.300   1.655   8.756  0.4220  1.8993 -0.8369
 8329SOL    HW242980   7.160   1.651   8.812  0.8466 -1.0415  0.2099
 8330SOL     OW42981   0.845   9.619  12.463 -0.4938  0.0104  0.0431
 8330SOL    HW142982   0.804   9.577  12.538  0.8232 -0.6976  0.4078
 8330SOL    HW242983   0.776   9.672  12.424 -1.6040 -0.7655  0.8868
 8331SOL     OW42984   1.740  12.641  11.942  0.3318  0.1878  0.6585
 8331SOL    HW142985   1.828  12.661  11.975  0.7571 -2.8786  1.6917
 8331SOL    HW242986   1.682  12.699  11.992  1.6454  1.4308  0.7996
 8332SOL     OW42987  10.932   3.032   2.071 -0.0168  0.3830  0.2027
 8332SOL    HW142988  10.906   2.940   2.072 -0.0635  0.3668  1.9025
 8332SOL    HW242989  11.008   3.036   2.130 -0.4271  1.5321  0.6840
 8333SOL     OW42990   8.489  11.378  13.223 -0.0376  0.6505 -0.4828
 8333SOL    HW142991   8.417  11.442  13.224 -0.1338  0.5623 -1.4619
 8333SOL    HW242992   8.447  11.295  13.202 -0.0163  0.0964  1.4230
 8334SOL     OW42993  12.705   0.912   9.921  0.6800  0.3663 -0.0280
 8334SOL    HW142994  12.635   0.977   9.918  0.0793 -0.3149 -1.7370
 8334SOL    HW242995  12.673   0.839   9.869  2.2469 -0.4052  0.0164
 8335SOL     OW42996  13.024  12.821   6.459  0.2564  0.8529 -0.1310
 8335SOL    HW142997  13.058  12.795   6.373 -0.1741  1.3738 -0.4673
 8335SOL    HW242998  13.033  12.917   6.460  1.5242  0.7574  0.9508
 8336SOL     OW42999   5.808   1.735   1.202  0.5919 -0.4573 -0.5056
 8336SOL    HW143000   5.832   1.827   1.203 -1.2065  0.0541 -0.5280
 8336SOL    HW243001   5.826   1.706   1.113 -0.7104  0.4439 -1.0929
 8337SOL     OW43002   4.949   1.779   7.549  0.8197  0.3308  0.0547
 8337SOL    HW143003   4.990   1.775   7.463  1.4723 -1.3420  0.4083
 8337SOL    HW243004   4.855   1.786   7.530  0.4964 -3.7997 -1.0009
 8338SOL     OW43005   2.147   2.024   6.789 -0.1452  0.2565 -0.3647
 8338SOL    HW143006   2.067   1.983   6.755 -0.9936  0.8393  0.8534
 8338SOL    HW243007   2.172   1.970   6.864  0.9639 -0.2678 -1.0948
 8339SOL     OW43008  11.360   8.956   8.977  0.4041 -0.1871  0.3115
 8339SOL    HW143009  11.453   8.940   8.991  0.7681 -0.1737 -1.6928
 8339SOL    HW243010  11.358   9.040   8.930 -0.8875  1.6080  3.3018
 8340SOL     OW43011   2.189  11.476   0.705 -0.7664 -0.2844  0.1649
 8340SOL    HW143012   2.236  11.541   0.757 -0.2013 -1.2321  0.8688
 8340SOL    HW243013   2.101  11.474   0.743 -0.1361 -1.5346  1.6569
 8341SOL     OW43014   9.057   8.470   7.904  0.6517 -0.8133 -0.3168
 8341SOL    HW143015   9.044   8.553   7.859  0.4507  0.0305  1.2586
 8341SOL    HW243016   9.148   8.447   7.886  1.2765  0.7035  0.7688
 8342SOL     OW43017  10.063   6.432   2.933 -0.4469  0.2028  0.1919
 8342SOL    HW143018  10.079   6.417   3.026 -0.9184  0.7884  0.3757
 8342SOL    HW243019   9.981   6.386   2.915  0.1886 -0.8069 -0.1922
 8343SOL     OW43020  11.445  14.111   8.747  0.0322  0.1707  0.4548
 8343SOL    HW143021  11.434  14.180   8.813 -0.3288 -1.2782  1.9955
 8343SOL    HW243022  11.436  14.030   8.797  2.3724 -1.0330 -0.9595
 8344SOL     OW43023  11.295   0.638   8.221 -0.0160  0.5968  0.3569
 8344SOL    HW143024  11.213   0.675   8.254 -0.7920  0.7728 -1.6462
 8344SOL    HW243025  11.363   0.683   8.271 -1.0381 -2.2341  4.8815
 8345SOL     OW43026  10.910  10.370   2.453  0.1043  0.2493 -0.6308
 8345SOL    HW143027  10.955  10.334   2.377  0.8222 -1.6611  0.6309
 8345SOL    HW243028  10.824  10.327   2.453 -0.3432  1.1129 -0.9693
 8346SOL     OW43029  13.166   0.872   3.465 -0.7245  0.0568 -0.0870
 8346SOL    HW143030  13.198   0.783   3.478 -2.1800 -0.5982 -0.7840
 8346SOL    HW243031  13.239   0.928   3.491  0.7598 -1.3421 -1.0928
 8347SOL     OW43032  12.897   2.862   4.728 -0.6610  0.1722 -0.0214
 8347SOL    HW143033  12.875   2.954   4.712 -3.0482 -0.2666  0.4333
 8347SOL    HW243034  12.868   2.845   4.817 -0.2584 -1.0261 -0.0950
 8348SOL     OW43035   2.737  13.029  13.887  0.3131  0.7557  0.2669
 8348SOL    HW143036   2.789  12.950  13.902 -1.6123 -0.6627 -0.2102
 8348SOL    HW243037   2.791  13.081  13.827  1.5997 -0.2024  0.5366
 8349SOL     OW43038   3.240   4.588   6.165  0.2206  0.1665  0.2362
 8349SOL    HW143039   3.160   4.622   6.126 -0.6595  0.9758  2.5904
 8349SOL    HW243040   3.303   4.659   6.158 -0.5651  1.1013  2.0313
 8350SOL     OW43041   7.203   8.686   6.503 -0.7173  0.1607  0.5030
 8350SOL    HW143042   7.297   8.691   6.487 -0.2643 -0.7894  2.6131
 8350SOL    HW243043   7.177   8.777   6.520 -0.1406  0.3848  0.2278
 8351SOL     OW43044   0.612   2.185  12.928  0.2998 -0.2286  0.0350
 8351SOL    HW143045   0.661   2.259  12.893 -0.1193  1.1162  2.1023
 8351SOL    HW243046   0.671   2.143  12.990 -0.3323  0.0070  0.8263
 8352SOL     OW43047   2.361   6.076   9.682  0.3283 -0.3246 -0.6212
 8352SOL    HW143048   2.452   6.105   9.683  0.9658 -2.1224  1.5489
 8352SOL    HW243049   2.317   6.134   9.745  0.1688 -0.0961 -0.9365
 8353SOL     OW43050   2.233   7.696  11.392 -0.1084  0.6662  0.1868
 8353SOL    HW143051   2.279   7.626  11.439 -0.7691  0.9130  1.2034
 8353SOL    HW243052   2.183   7.650  11.324 -0.9697  0.0846  1.1920
 8354SOL     OW43053   7.648  10.119   7.997  0.2421 -0.6116  0.4748
 8354SOL    HW143054   7.663  10.060   8.071 -0.0068 -0.8937  0.3048
 8354SOL    HW243055   7.658  10.063   7.920 -1.3996 -0.7801  0.3372
 8355SOL     OW43056  11.077  13.212   9.523 -0.3789 -0.4224 -0.2776
 8355SOL    HW143057  11.041  13.215   9.434  0.9542 -2.1425 -0.9326
 8355SOL    HW243058  11.108  13.302   9.539 -0.1583 -0.1930 -1.7801
 8356SOL     OW43059   3.709   8.070   1.364  0.5163 -0.0292 -0.4859
 8356SOL    HW143060   3.677   8.018   1.290  1.6494  1.1181 -1.8497
 8356SOL    HW243061   3.801   8.086   1.344  0.6432  0.9934  0.7700
 8357SOL     OW43062   7.144   7.867   8.566  0.1989 -0.6998  0.5482
 8357SOL    HW143063   7.065   7.844   8.517 -1.0198 -1.2796  2.6564
 8357SOL    HW243064   7.216   7.851   8.505 -1.2336 -1.1002 -1.1169
 8358SOL     OW43065   4.072   0.869   3.359 -0.3852  0.0229  0.1599
 8358SOL    HW143066   4.071   0.912   3.445 -0.0249  2.6646 -1.0479
 8358SOL    HW243067   4.157   0.825   3.356  0.8347  2.1840  0.2347
 8359SOL     OW43068  11.713  10.898  13.096 -0.3235  0.0028 -0.0387
 8359SOL    HW143069  11.802  10.892  13.063 -0.8228 -0.5985 -1.3395
 8359SOL    HW243070  11.680  10.808  13.091 -1.0055  0.2241  0.4095
 8360SOL     OW43071   8.844   2.878   4.617  0.1661  0.0726  0.1162
 8360SOL    HW143072   8.818   2.964   4.649 -0.0689  0.7360 -1.7164
 8360SOL    HW243073   8.934   2.866   4.650 -0.6505 -0.1138  2.4298
 8361SOL     OW43074   1.970  10.902   9.729 -0.0110 -0.9227 -0.0020
 8361SOL    HW143075   2.053  10.899   9.776  0.7251  2.5099 -0.7880
 8361SOL    HW243076   1.904  10.920   9.796  0.7258  1.7173  0.1294
 8362SOL     OW43077  11.150   4.811   9.241 -0.1970 -0.1857  0.2141
 8362SOL    HW143078  11.150   4.782   9.332  1.8133 -4.2558 -0.8030
 8362SOL    HW243079  11.233   4.856   9.230 -0.4118  0.2515  0.3688
 8363SOL     OW43080   5.326   5.793   6.549  0.5680 -0.0199 -0.2227
 8363SOL    HW143081   5.333   5.718   6.490 -0.7076  0.1611 -0.6503
 8363SOL    HW243082   5.379   5.861   6.507  0.4203 -0.1845 -0.6893
 8364SOL     OW43083   5.631   4.068   0.244  0.7218  0.2469  0.0631
 8364SOL    HW143084   5.568   4.141   0.248  0.2370  0.0327 -2.3245
 8364SOL    HW243085   5.704   4.097   0.298 -0.1799  1.7672  0.5395
 8365SOL     OW43086  12.032  11.672   1.884  0.3350 -0.3374  0.7790
 8365SOL    HW143087  12.117  11.627   1.884 -0.3162 -1.5965  0.2775
 8365SOL    HW243088  11.973  11.613   1.930 -0.6583 -0.2678 -0.3436
 8366SOL     OW43089   0.733   3.340   4.122  0.1756  0.3061 -0.8322
 8366SOL    HW143090   0.670   3.287   4.073  1.1822  0.0759 -1.9356
 8366SOL    HW243091   0.759   3.285   4.195  1.4637 -0.9198 -2.1556
 8367SOL     OW43092  13.859  11.953   9.065 -0.2931  0.5919 -0.1955
 8367SOL    HW143093  13.840  11.886   9.000 -0.2907  0.8749 -0.4913
 8367SOL    HW243094  13.813  12.031   9.034 -1.7988  0.2629  1.0773
 8368SOL     OW43095  14.154  13.719   4.120  0.4412  0.1985  0.3819
 8368SOL    HW143096  14.204  13.680   4.048 -1.0717 -0.3233 -0.4318
 8368SOL    HW243097  14.203  13.798   4.143  1.1879  0.1593 -0.9552
 8369SOL     OW43098   1.206  12.665   0.284 -0.2726 -0.4633 -0.3710
 8369SOL    HW143099   1.262  12.741   0.295 -1.4085  0.5465 -1.2461
 8369SOL    HW243100   1.250  12.595   0.332  1.9052  0.1621 -1.3384
 8370SOL     OW43101  10.573   4.687   0.446 -0.3552 -0.0881  0.0877
 8370SOL    HW143102  10.571   4.768   0.496 -2.0187 -0.0972  0.0992
 8370SOL    HW243103  10.641   4.635   0.488  0.5312  1.1687  0.2698
 8371SOL     OW43104   6.844   3.281   7.728  0.3044  0.0221  0.1003
 8371SOL    HW143105   6.769   3.288   7.787  0.2878 -0.7071  0.1741
 8371SOL    HW243106   6.830   3.350   7.663 -0.5828 -0.2932 -0.0602
 8372SOL     OW43107  13.984  11.576   9.312 -0.1961 -0.0161  0.1775
 8372SOL    HW143108  13.959  11.635   9.383  0.4822 -0.1204  0.5176
 8372SOL    HW243109  13.935  11.606   9.236  0.0551  0.9171  0.3729
 8373SOL     OW43110  10.224  13.945   7.561 -0.1663  0.6379 -0.3831
 8373SOL    HW143111  10.286  13.897   7.617 -0.1372 -0.6949 -1.4994
 8373SOL    HW243112  10.261  13.937   7.473 -0.8276  1.6713 -0.7624
 8374SOL     OW43113  12.021   7.476   3.072  0.1279 -0.0819 -0.7694
 8374SOL    HW143114  12.103   7.517   3.045 -0.4633  0.9783 -1.0466
 8374SOL    HW243115  12.021   7.481   3.167  1.0866 -1.5431 -0.6647
 8375SOL     OW43116  12.892  13.873  12.552 -0.0510  0.5428  0.1663
 8375SOL    HW143117  12.880  13.964  12.526  2.9215  1.1480  0.4881
 8375SOL    HW243118  12.894  13.875  12.648 -0.3376  0.0836  0.1855
 8376SOL     OW43119   6.691  11.476  13.645  0.2158 -0.7084  0.1152
 8376SOL    HW143120   6.723  11.425  13.720 -1.3745 -0.8841  0.7011
 8376SOL    HW243121   6.629  11.538  13.682 -1.3191 -1.4177 -1.1463
 8377SOL     OW43122   9.476   5.420   3.841 -0.4978 -0.2032  0.5504
 8377SOL    HW143123   9.507   5.357   3.906 -0.8998  0.7109  1.6412
 8377SOL    HW243124   9.550   5.480   3.828 -0.3916 -0.4261  0.0953
 8378SOL     OW43125   5.951  11.859   9.946 -0.3654  1.0627 -0.1064
 8378SOL    HW143126   5.946  11.954   9.932 -0.5606  0.9186 -1.0784
 8378SOL    HW243127   5.868  11.826   9.915 -0.4139  0.5908  0.5061
 8379SOL     OW43128   7.621   8.944   2.759 -0.9952  0.2293  0.2450
 8379SOL    HW143129   7.638   8.988   2.676 -1.7088  1.1688  0.5655
 8379SOL    HW243130   7.707   8.921   2.793 -0.6529  0.6438 -0.3344
 8380SOL     OW43131   4.866  11.352  12.306  0.1062 -0.2620 -0.1124
 8380SOL    HW143132   4.943  11.380  12.256  1.1604 -2.9930 -0.1962
 8380SOL    HW243133   4.793  11.361  12.246  0.6390  0.7162 -0.6315
 8381SOL     OW43134   5.079   3.349   0.936 -0.2436 -0.2617 -0.5915
 8381SOL    HW143135   4.983   3.352   0.946 -0.3107 -0.3256 -1.1529
 8381SOL    HW243136   5.099   3.423   0.878 -0.0215 -0.6197 -0.9721
 8382SOL     OW43137   2.412   9.793   5.602  0.3438 -0.5502 -0.7658
 8382SOL    HW143138   2.385   9.722   5.544 -0.3719  0.5788 -1.8551
 8382SOL    HW243139   2.504   9.774   5.622  0.3622 -1.3961 -1.6108
 8383SOL     OW43140   1.342   6.370   1.190  0.6369  0.6453  0.3841
 8383SOL    HW143141   1.352   6.319   1.109 -1.7759  0.5535  0.0684
 8383SOL    HW243142   1.338   6.461   1.161  3.1647  0.9338  0.7791
 8384SOL     OW43143   1.731   6.404  11.213 -0.2819  0.0444  0.2647
 8384SOL    HW143144   1.681   6.476  11.174 -1.5858 -0.9598  0.0081
 8384SOL    HW243145   1.665   6.342  11.244  0.7985 -1.3812 -0.1459
 8385SOL     OW43146   7.496   6.558  10.894 -0.2141  0.2426 -0.3801
 8385SOL    HW143147   7.581   6.556  10.850 -1.0757 -0.2728 -2.0849
 8385SOL    HW243148   7.461   6.470  10.883 -0.9745  0.4470  0.3073
 8386SOL     OW43149   5.835   9.359   7.509 -0.2021 -0.1181  0.0306
 8386SOL    HW143150   5.804   9.387   7.595 -2.8577 -2.8556  0.1280
 8386SOL    HW243151   5.925   9.328   7.525  0.0065  1.0862  1.3994
 8387SOL     OW43152  11.497   2.359   6.712  0.5073  0.0703  0.0371
 8387SOL    HW143153  11.409   2.335   6.739  0.3682  1.1534  0.5933
 8387SOL    HW243154  11.544   2.276   6.709 -0.9488 -0.7484 -1.9501
 8388SOL     OW43155   1.622   7.429  11.119 -0.2442 -0.0647  0.1294
 8388SOL    HW143156   1.543   7.407  11.169 -0.8251  0.7666 -0.3953
 8388SOL    HW243157   1.693   7.419  11.182 -0.7514 -0.8997  0.5931
 8389SOL     OW43158   7.475  13.336   2.208  0.3455  0.4871 -0.4192
 8389SOL    HW143159   7.426  13.385   2.275  3.2318  0.3629  1.9984
 8389SOL    HW243160   7.441  13.369   2.125 -2.7109  1.4366  1.0536
 8390SOL     OW43161   7.426   1.300   5.418  0.0324  0.4492 -0.1284
 8390SOL    HW143162   7.450   1.332   5.505  0.6473  0.0966 -0.1554
 8390SOL    HW243163   7.490   1.340   5.359 -1.7367  2.5056 -0.7752
 8391SOL     OW43164   0.364   7.638   9.946 -0.5521 -0.0998  0.3509
 8391SOL    HW143165   0.321   7.560   9.911 -0.8967  0.8538 -1.4526
 8391SOL    HW243166   0.457   7.622   9.931 -0.6199 -0.2012  0.0138
 8392SOL     OW43167   5.405   7.747   2.349 -0.2611 -0.1285  0.3911
 8392SOL    HW143168   5.443   7.833   2.330  1.8384 -0.7339  1.5283
 8392SOL    HW243169   5.391   7.707   2.263 -0.9720  1.2072 -0.1305
 8393SOL     OW43170   5.956   5.023   3.619  0.1545  0.3194 -0.0830
 8393SOL    HW143171   5.890   5.091   3.609  1.3291  1.8688  1.8113
 8393SOL    HW243172   6.025   5.047   3.557  0.0403  0.1697 -0.2667
 8394SOL     OW43173   7.772   2.532   6.501  0.0781 -0.5644  0.4423
 8394SOL    HW143174   7.680   2.520   6.479 -0.0758  0.3214  0.5510
 8394SOL    HW243175   7.772   2.600   6.569  0.9700  1.8733 -1.7947
 8395SOL     OW43176  13.057  13.361  12.051 -0.2041 -0.4426  0.0827
 8395SOL    HW143177  13.107  13.409  12.117 -0.5401  0.1881 -0.1106
 8395SOL    HW243178  13.098  13.384  11.968 -0.5283 -0.2831 -0.0339
 8396SOL     OW43179  13.002   9.515   7.691  0.1826  0.0793  0.1567
 8396SOL    HW143180  13.087   9.520   7.733  0.4797  1.8204 -0.5462
 8396SOL    HW243181  13.021   9.485   7.602 -0.3044 -2.3773  0.8146
 8397SOL     OW43182   8.089   2.130  13.944  0.2471  1.2360 -0.2226
 8397SOL    HW143183   8.090   2.128  13.848  0.2868  0.3722 -0.2075
 8397SOL    HW243184   8.106   2.040  13.970  0.8058  1.5695  0.6076
 8398SOL     OW43185   4.964  10.402   0.256 -0.7679  0.0791  0.1620
 8398SOL    HW143186   5.017  10.372   0.182 -0.7934 -0.5272  0.3799
 8398SOL    HW243187   5.026  10.439   0.318 -0.4274 -1.6349  0.9161
 8399SOL     OW43188   2.199   0.770   3.107  0.2566 -0.0718 -0.2171
 8399SOL    HW143189   2.184   0.863   3.118  1.1234  0.0985 -0.3416
 8399SOL    HW243190   2.295   0.761   3.112  0.1582 -0.9978  0.1703
 8400SOL     OW43191  10.050   1.157   1.365 -0.7415  0.2067  1.0083
 8400SOL    HW143192   9.993   1.087   1.335  0.0695 -0.0825  0.1021
 8400SOL    HW243193  10.103   1.118   1.435  1.1439 -0.7607 -0.8323
 8401SOL     OW43194  13.453  12.308   2.597  0.1217  0.1120 -0.5152
 8401SOL    HW143195  13.458  12.338   2.687  2.0145  1.6408 -1.0737
 8401SOL    HW243196  13.422  12.217   2.604  2.7350 -0.7304  1.8781
 8402SOL     OW43197   8.312   4.511  13.822  0.1979 -0.2457  0.1367
 8402SOL    HW143198   8.395   4.464  13.813 -0.6210 -1.6621 -0.5350
 8402SOL    HW243199   8.272   4.503  13.735 -0.8076  0.0761  0.5631
 8403SOL     OW43200   9.382   7.944   5.123 -0.0869  0.4329 -0.1047
 8403SOL    HW143201   9.378   7.946   5.028  0.8329 -0.6291 -0.1823
 8403SOL    HW243202   9.410   8.032   5.148 -0.1880  0.6679 -0.8135
 8404SOL     OW43203   5.169  10.067   5.119 -0.2537 -0.3991 -0.0409
 8404SOL    HW143204   5.105   9.997   5.135 -0.6299 -0.5275 -1.9163
 8404SOL    HW243205   5.179  10.069   5.024  1.6604  0.4278  0.1460
 8405SOL     OW43206   4.457  10.339  13.849 -0.3692 -0.2906  0.2066
 8405SOL    HW143207   4.364  10.330  13.866 -0.2884 -1.4277  0.1244
 8405SOL    HW243208   4.490  10.250  13.847  1.1380  0.1305  2.5025
 8406SOL     OW43209  11.155   5.525   6.717  0.1411 -0.1173 -0.4262
 8406SOL    HW143210  11.208   5.497   6.642  0.5974  1.5524 -0.7649
 8406SOL    HW243211  11.197   5.605   6.748 -1.0405  0.1539  0.5480
 8407SOL     OW43212   1.706  12.410   5.269  0.3946 -0.1050  0.0156
 8407SOL    HW143213   1.736  12.324   5.298 -0.9449 -0.5517  0.1639
 8407SOL    HW243214   1.724  12.468   5.343 -0.0173 -0.5629  0.4793
 8408SOL     OW43215   6.549   5.942  13.047  0.4789  0.3104  0.0470
 8408SOL    HW143216   6.618   5.947  13.113 -1.4778  0.9879  2.1693
 8408SOL    HW243217   6.521   5.851  13.048  0.2952  0.3676  0.3552
 8409SOL     OW43218   2.923   5.540   4.851 -0.1071 -0.2892  0.5128
 8409SOL    HW143219   2.865   5.554   4.926 -1.3613  1.5884 -0.7201
 8409SOL    HW243220   2.886   5.464   4.805 -1.5586  0.7745 -0.1600
 8410SOL     OW43221  12.394   1.571   0.189  0.1220  0.3043 -0.8282
 8410SOL    HW143222  12.453   1.645   0.199  0.1676  0.0706  0.9945
 8410SOL    HW243223  12.451   1.494   0.186 -0.0219  0.0123  1.6601
 8411SOL     OW43224   9.170   2.325  13.931  0.4261 -0.1201 -0.1337
 8411SOL    HW143225   9.183   2.249  13.874  1.0725  2.2148 -3.3854
 8411SOL    HW243226   9.093   2.369  13.895  0.8819  1.4989  0.7714
 8412SOL     OW43227   3.923  10.373  13.443 -0.0237 -0.1867  0.3942
 8412SOL    HW143228   3.902  10.286  13.408 -0.4416 -0.3323  1.0025
 8412SOL    HW243229   4.019  10.376  13.443  0.0215  0.3666 -2.1218
 8413SOL     OW43230   6.673  13.501   4.207  0.5028 -0.4340 -0.0407
 8413SOL    HW143231   6.627  13.454   4.137  0.7000 -0.0701 -0.4228
 8413SOL    HW243232   6.620  13.486   4.285 -1.4687  1.6742 -0.8579
 8414SOL     OW43233   3.047   9.280   6.652  0.2523 -0.0915  0.0903
 8414SOL    HW143234   3.030   9.316   6.564 -0.3621 -2.2357 -0.7297
 8414SOL    HW243235   2.978   9.317   6.707 -0.4680 -0.1450 -0.7579
 8415SOL     OW43236   8.547   5.830   3.453 -0.3051  0.2215 -0.7105
 8415SOL    HW143237   8.452   5.821   3.442 -0.0895 -0.6969 -1.9941
 8415SOL    HW243238   8.582   5.827   3.364  1.1170 -1.7329 -0.1503
 8416SOL     OW43239   3.562   3.526   8.214  0.0489 -0.2297 -0.0045
 8416SOL    HW143240   3.556   3.496   8.123 -2.2865 -0.3093  0.0933
 8416SOL    HW243241   3.478   3.499   8.253  0.7878  0.2509  2.0340
 8417SOL     OW43242   9.849  10.769   4.569  0.2094  0.3735 -0.0458
 8417SOL    HW143243   9.826  10.736   4.656  1.7123 -0.3972  0.0890
 8417SOL    HW243244   9.764  10.785   4.527 -0.5774  1.3720  1.7604
 8418SOL     OW43245  12.908   6.059   6.929 -0.2962 -0.1149 -0.6932
 8418SOL    HW143246  12.999   6.089   6.928  0.1917 -1.5342 -0.4490
 8418SOL    HW243247  12.872   6.088   6.845 -0.3141  2.4109  0.0805
 8419SOL     OW43248  11.564  10.400  10.188  0.3647 -0.8884 -0.1370
 8419SOL    HW143249  11.603  10.451  10.117  2.7355 -1.8032  0.3908
 8419SOL    HW243250  11.619  10.420  10.264 -1.7454 -0.3949  1.3220
 8420SOL     OW43251   0.756   2.901   7.023 -0.0484  0.0293  0.1564
 8420SOL    HW143252   0.789   2.828   7.075 -1.2390 -0.5762  0.0854
 8420SOL    HW243253   0.774   2.979   7.076 -2.2208 -0.6531  2.0354
 8421SOL     OW43254  11.474  11.782  12.483  0.3756  0.2457 -0.2098
 8421SOL    HW143255  11.456  11.782  12.389 -0.6867  1.3605 -0.0372
 8421SOL    HW243256  11.557  11.737  12.492  0.2754 -0.2727 -1.6444
 8422SOL     OW43257  12.515   5.264  12.964  0.1876  0.4138  0.5481
 8422SOL    HW143258  12.586   5.203  12.943  0.0200  0.1796  0.6538
 8422SOL    HW243259  12.537   5.345  12.917  0.7806  0.5031  0.9762
 8423SOL     OW43260  11.594  11.154   8.606 -0.8306  0.2372 -0.4715
 8423SOL    HW143261  11.544  11.096   8.550 -0.8241 -0.3056  0.0792
 8423SOL    HW243262  11.602  11.235   8.556 -1.3389 -0.0366 -0.9985
 8424SOL     OW43263  13.864  13.027   7.857  0.1066  0.8556 -0.3307
 8424SOL    HW143264  13.959  13.012   7.861  0.3064  2.0029 -0.3777
 8424SOL    HW243265  13.834  12.969   7.787  0.3091 -1.5809  1.4772
 8425SOL     OW43266   6.038   8.939   0.541 -0.3544 -0.7316  0.6118
 8425SOL    HW143267   6.047   8.978   0.628 -1.3320 -0.2802  0.5170
 8425SOL    HW243268   6.050   9.013   0.480 -3.5385 -0.2091  0.4488
 8426SOL     OW43269   4.372   9.629   2.907  0.0959 -0.1715  0.0853
 8426SOL    HW143270   4.391   9.652   2.816  0.1223  0.6834  0.2915
 8426SOL    HW243271   4.456   9.639   2.953 -0.1501  0.5144  0.4050
 8427SOL     OW43272   3.389   1.274  13.704 -0.1619 -0.1420  0.2980
 8427SOL    HW143273   3.453   1.311  13.765 -0.6241  1.6728 -0.2597
 8427SOL    HW243274   3.439   1.212  13.651  0.9722  0.7038  0.3469
 8428SOL     OW43275   9.329   1.829   9.927 -0.0482  0.2367  0.1157
 8428SOL    HW143276   9.390   1.903   9.931  0.3063 -0.0380 -0.2509
 8428SOL    HW243277   9.366   1.769   9.863 -0.4767 -0.1398  0.2091
 8429SOL     OW43278   7.161   2.896   7.595 -0.5861  0.0449  0.0009
 8429SOL    HW143279   7.110   2.898   7.675  1.0108  0.8916  1.0657
 8429SOL    HW243280   7.124   2.966   7.541 -0.1253  1.1556  1.0611
 8430SOL     OW43281   8.707  13.273  11.825  0.2902 -0.3177 -0.2119
 8430SOL    HW143282   8.787  13.285  11.774  0.1687 -1.3987 -0.6798
 8430SOL    HW243283   8.653  13.215  11.772 -0.4619 -0.2771  0.4860
 8431SOL     OW43284  12.509  12.279  10.896  1.0321  0.1219 -0.5889
 8431SOL    HW143285  12.560  12.317  10.968 -0.0773 -0.2058  0.3914
 8431SOL    HW243286  12.546  12.319  10.817  0.2442  2.9417  0.3395
 8432SOL     OW43287   5.552   0.863  10.184  0.4865  0.2855  0.5051
 8432SOL    HW143288   5.565   0.815  10.266 -0.5478  1.2471  1.2720
 8432SOL    HW243289   5.532   0.952  10.211 -0.8246  0.4182 -0.7493
 8433SOL     OW43290  13.338   9.436   0.287  0.3576 -0.1692 -0.1252
 8433SOL    HW143291  13.382   9.390   0.216  1.7363  0.8874  0.0089
 8433SOL    HW243292  13.389   9.516   0.300  0.4797 -0.5735  2.4241
 8434SOL     OW43293   2.467   4.857   5.029  0.0526  0.0219 -0.1192
 8434SOL    HW143294   2.406   4.783   5.024 -0.6922  0.6955 -2.0921
 8434SOL    HW243295   2.461   4.886   5.120 -1.1478 -1.1015  0.2024
 8435SOL     OW43296   1.144  11.034   4.621  0.0847  0.0122 -0.1333
 8435SOL    HW143297   1.093  10.957   4.595  1.3981 -0.9886  0.1710
 8435SOL    HW243298   1.081  11.090   4.667 -1.0924 -0.4703 -1.1098
 8436SOL     OW43299   9.169   9.622   6.285 -0.2028  0.5362 -0.1975
 8436SOL    HW143300   9.249   9.593   6.328 -1.0102 -0.2592  0.8293
 8436SOL    HW243301   9.196   9.644   6.196  0.9944 -0.6132 -0.1524
 8437SOL     OW43302   2.716   6.965   6.591 -0.5166  0.0315 -0.0957
 8437SOL    HW143303   2.686   7.030   6.655 -0.3294 -0.7206  0.7798
 8437SOL    HW243304   2.650   6.896   6.594  0.5114 -0.9503  0.7787
 8438SOL     OW43305  13.415  13.939  12.077 -0.2280  0.2325  0.1029
 8438SOL    HW143306  13.468  13.998  12.023 -0.5755 -0.2260 -0.7545
 8438SOL    HW243307  13.456  13.944  12.164  1.7152 -0.6961 -0.6926
 8439SOL     OW43308   2.471   8.625  10.549  0.2615 -0.2287  0.4193
 8439SOL    HW143309   2.445   8.567  10.478 -0.1626  1.9208 -1.3071
 8439SOL    HW243310   2.551   8.666  10.518  0.0848  0.7318  1.1824
 8440SOL     OW43311   1.355   1.530  12.887  0.6364 -0.6728  0.6963
 8440SOL    HW143312   1.422   1.597  12.876 -1.7151  1.9624  1.2029
 8440SOL    HW243313   1.322   1.543  12.976 -0.2137 -2.2181  0.6357
 8441SOL     OW43314  11.326   1.469   8.560 -0.0270  0.3564 -0.1949
 8441SOL    HW143315  11.247   1.486   8.509 -0.4560 -4.4047 -1.6499
 8441SOL    HW243316  11.299   1.481   8.651 -2.2355 -0.3743 -0.6926
 8442SOL     OW43317  13.543   9.456   7.269  0.0996  0.4073 -0.0505
 8442SOL    HW143318  13.517   9.495   7.352 -0.5648  1.4698 -0.7435
 8442SOL    HW243319  13.531   9.525   7.205  0.9666 -0.2823 -0.9885
 8443SOL     OW43320  11.909   6.944   0.855 -0.3706  0.1234  0.3965
 8443SOL    HW143321  11.893   6.868   0.800 -2.3034  0.2589  0.7152
 8443SOL    HW243322  11.932   6.907   0.940 -0.9896 -0.1216  0.4635
 8444SOL     OW43323  12.266   2.621   9.801 -0.9570 -0.2847  0.0890
 8444SOL    HW143324  12.212   2.558   9.754 -0.3834  0.1218 -1.1810
 8444SOL    HW243325  12.355   2.602   9.771 -0.8190  1.4018 -0.7053
 8445SOL     OW43326   9.074   9.623   5.412 -0.5533  0.3504  0.3385
 8445SOL    HW143327   9.016   9.699   5.417  0.4638  1.1570  0.2302
 8445SOL    HW243328   9.133   9.634   5.487 -1.4583 -1.2550  1.3394
 8446SOL     OW43329  13.610  10.750   7.038  0.3413 -0.0431  0.6219
 8446SOL    HW143330  13.686  10.771   6.984 -0.5702  2.2666  0.1000
 8446SOL    HW243331  13.547  10.819   7.018 -1.0679 -0.6428  2.6569
 8447SOL     OW43332   6.227   2.643  10.922 -0.2195  0.3109 -0.2970
 8447SOL    HW143333   6.137   2.612  10.929 -0.0559 -0.1022  0.0167
 8447SOL    HW243334   6.234   2.676  10.832 -0.6812  0.3395 -0.3228
 8448SOL     OW43335  13.063   4.307   9.190  0.5488 -0.7199 -0.0710
 8448SOL    HW143336  13.063   4.260   9.274  2.0297  0.1223  0.4367
 8448SOL    HW243337  13.128   4.261   9.137  0.5393 -0.4799 -0.2923
 8449SOL     OW43338   3.688   5.907   4.459 -0.7287  0.4431 -0.4642
 8449SOL    HW143339   3.623   5.935   4.524  0.0905  0.6048  0.2986
 8449SOL    HW243340   3.759   5.868   4.510 -1.0012 -1.3885 -1.3859
 8450SOL     OW43341   7.894   7.057   7.030  0.1712 -0.0734 -0.2047
 8450SOL    HW143342   7.839   7.111   6.973 -0.6579  0.0680  0.6973
 8450SOL    HW243343   7.948   7.120   7.078 -1.1289  0.0457  1.1935
 8451SOL     OW43344   0.344   2.578   5.495  0.0057 -0.0739  0.8375
 8451SOL    HW143345   0.329   2.583   5.589 -2.6212 -0.3926  0.5162
 8451SOL    HW243346   0.424   2.526   5.485  0.0207 -0.4963  2.8609
 8452SOL     OW43347   9.739   5.622  12.522 -0.6873 -0.1366  0.0464
 8452SOL    HW143348   9.736   5.690  12.455 -2.1776 -1.7338 -1.6386
 8452SOL    HW243349   9.751   5.540  12.473 -0.5286 -1.2514  1.8474
 8453SOL     OW43350  13.414   2.734   6.849  0.1603  0.1001 -0.2131
 8453SOL    HW143351  13.339   2.721   6.907 -0.9370  1.5488 -1.2374
 8453SOL    HW243352  13.430   2.829   6.851  0.9651  0.0034 -1.2217
 8454SOL     OW43353   1.831  11.095   6.567 -0.3006 -0.9583 -0.7088
 8454SOL    HW143354   1.829  11.078   6.661  0.3382  1.1944 -0.2407
 8454SOL    HW243355   1.751  11.056   6.533 -0.8466 -1.2314  0.8330
 8455SOL     OW43356   3.323  12.830   3.038 -0.5156 -0.6477  0.3615
 8455SOL    HW143357   3.346  12.762   2.976  0.0071 -0.4844  0.3764
 8455SOL    HW243358   3.227  12.825   3.044 -0.6587 -0.0381 -1.1634
 8456SOL     OW43359   3.522   0.884   6.910 -0.2722  0.0767 -0.1553
 8456SOL    HW143360   3.593   0.822   6.891  0.7315  0.9717  0.5804
 8456SOL    HW243361   3.450   0.829   6.941  0.8205 -0.7069  1.1314
 8457SOL     OW43362  11.370   2.907   4.084 -0.0374  0.2060 -0.2645
 8457SOL    HW143363  11.401   2.976   4.143  0.4862  0.6314 -1.0219
 8457SOL    HW243364  11.421   2.829   4.109 -1.7577 -0.3852  1.6708
 8458SOL     OW43365  11.778   0.867   6.407 -0.3394 -0.0987 -0.2133
 8458SOL    HW143366  11.710   0.809   6.372 -0.5556  0.0775 -0.0911
 8458SOL    HW243367  11.755   0.954   6.373  1.0624 -0.3601 -1.9843
 8459SOL     OW43368  10.835  12.847   6.831 -0.0320  0.6237  0.6822
 8459SOL    HW143369  10.923  12.834   6.795 -0.5180 -0.6808 -0.1226
 8459SOL    HW243370  10.777  12.800   6.771 -1.1915  0.7366  1.6632
 8460SOL     OW43371  10.289   6.878   3.901 -0.3465  0.4624  0.0853
 8460SOL    HW143372  10.264   6.967   3.879  0.8163  0.6868 -0.4012
 8460SOL    HW243373  10.304   6.879   3.995 -3.3003  0.0087  0.6510
 8461SOL     OW43374  11.709  10.144   0.711 -0.3270  0.0426  0.4399
 8461SOL    HW143375  11.744  10.059   0.737  3.1705  0.5315 -2.0012
 8461SOL    HW243376  11.774  10.208   0.738 -0.2688  1.3169 -2.2973
 8462SOL     OW43377   2.000  12.635  11.590  0.3130  0.0212 -0.1099
 8462SOL    HW143378   2.002  12.540  11.596  1.7152  0.0090 -0.5932
 8462SOL    HW243379   2.065  12.665  11.654 -0.4971  0.7000  0.4397
 8463SOL     OW43380   1.708   8.219   2.016  0.0971  0.2918  0.4333
 8463SOL    HW143381   1.758   8.301   2.025 -1.4023  1.0450  3.1425
 8463SOL    HW243382   1.621   8.248   1.988 -0.0871 -0.5267  0.1527
 8464SOL     OW43383   4.231  13.116   6.618  0.4618 -0.3442 -0.3256
 8464SOL    HW143384   4.230  13.136   6.524  0.2657  0.1096 -0.2322
 8464SOL    HW243385   4.151  13.066   6.632 -0.6139  1.3473 -0.0500
 8465SOL     OW43386  13.059   3.843   9.500 -0.0755  0.0959  0.1138
 8465SOL    HW143387  13.023   3.852   9.411  0.4281 -1.5403 -0.2920
 8465SOL    HW243388  13.113   3.920   9.512 -1.2606  1.0552 -0.4487
 8466SOL     OW43389   0.773   6.712   0.706 -0.1140 -0.3694  0.8514
 8466SOL    HW143390   0.763   6.715   0.801 -1.3417  0.6290  0.7113
 8466SOL    HW243391   0.688   6.738   0.672  0.1894 -1.1125 -0.5401
 8467SOL     OW43392   4.094   9.579   1.838  0.5592  0.0823  0.7525
 8467SOL    HW143393   4.027   9.613   1.897 -0.0524 -2.9526  1.9817
 8467SOL    HW243394   4.045   9.535   1.768  1.2197 -1.1109  1.0109
 8468SOL     OW43395   9.133   8.109   1.841 -0.3943 -0.6366  0.4381
 8468SOL    HW143396   9.081   8.115   1.761 -1.1779  0.2591  1.0003
 8468SOL    HW243397   9.083   8.051   1.898  0.3566 -1.5941  0.1576
 8469SOL     OW43398  13.264   7.475   8.341  0.0072 -0.0900 -0.2425
 8469SOL    HW143399  13.217   7.392   8.345 -1.7724  0.8814  0.1052
 8469SOL    HW243400  13.239   7.513   8.257  0.8991  0.0683 -0.4509
 8470SOL     OW43401  10.972   4.588   9.979 -0.0112  0.1320 -0.2002
 8470SOL    HW143402  10.938   4.518   9.923  0.3144  1.3071 -1.9363
 8470SOL    HW243403  11.052   4.552  10.017  0.0385 -0.5204 -0.8971
 8471SOL     OW43404   4.993   7.939  13.757 -0.1276 -0.0166 -1.0236
 8471SOL    HW143405   4.900   7.928  13.776 -0.3834  0.8829 -1.6509
 8471SOL    HW243406   5.005   8.034  13.752  0.9484 -0.0985 -0.3936
 8472SOL     OW43407   8.626   4.511   8.560 -0.3379  0.1577  0.4967
 8472SOL    HW143408   8.646   4.597   8.524  0.9468  0.2726  1.4145
 8472SOL    HW243409   8.642   4.520   8.654  2.3172 -1.6841  0.3507
 8473SOL     OW43410   9.463   7.380   1.012  0.0459 -0.6794 -0.7527
 8473SOL    HW143411   9.385   7.393   1.066  1.6680 -0.2572  1.6414
 8473SOL    HW243412   9.471   7.285   1.005  0.3320 -0.7846  0.6461
 8474SOL     OW43413   1.738  11.477   7.015  0.0448  0.0265  0.2632
 8474SOL    HW143414   1.699  11.540   6.954 -2.9071 -2.3103 -0.4695
 8474SOL    HW243415   1.801  11.428   6.963  0.1335  0.3645  0.0481
 8475SOL     OW43416   6.641   9.081  10.424 -0.0747  0.7976 -0.1355
 8475SOL    HW143417   6.579   9.142  10.384 -0.4754  1.5526  1.5510
 8475SOL    HW243418   6.661   9.119  10.510  1.9341  0.0345 -0.2024
 8476SOL     OW43419   9.410   7.429   1.478  0.2002  0.1268  0.0765
 8476SOL    HW143420   9.392   7.512   1.433  2.0369  0.3321 -0.3523
 8476SOL    HW243421   9.470   7.383   1.420  0.4568 -0.8174  1.0628
 8477SOL     OW43422   9.549  12.685   4.313 -0.3270  0.1963  0.2240
 8477SOL    HW143423   9.616  12.617   4.309 -1.5318 -1.0689  0.7846
 8477SOL    HW243424   9.523  12.699   4.222 -0.5474 -0.5935  0.1595
 8478SOL     OW43425   9.341   8.967   1.682 -0.0472 -0.1301  0.6884
 8478SOL    HW143426   9.374   9.055   1.665 -0.7649  0.0013 -0.1738
 8478SOL    HW243427   9.256   8.981   1.724 -0.0748 -0.4100  0.7288
 8479SOL     OW43428   7.022   6.095  13.768  0.5824  0.5376  0.3098
 8479SOL    HW143429   6.996   6.068  13.679  1.4001  1.9122 -0.3880
 8479SOL    HW243430   7.040   6.013  13.814  0.0158 -0.2092 -0.7548
 8480SOL     OW43431   5.826   2.777   8.628  0.5279  0.3451  0.0057
 8480SOL    HW143432   5.875   2.712   8.678 -0.8729 -0.1432  0.8042
 8480SOL    HW243433   5.807   2.847   8.691  0.0389  0.4248 -0.2224
 8481SOL     OW43434   0.195  13.705  12.889 -0.4089  0.4017  0.0617
 8481SOL    HW143435   0.274  13.748  12.920 -0.2967  0.9613 -0.9367
 8481SOL    HW243436   0.214  13.681  12.798 -1.8765  1.9493 -0.7282
 8482SOL     OW43437  12.850   6.866  12.700  0.1610 -0.2286 -0.2749
 8482SOL    HW143438  12.917   6.798  12.708  1.0640  0.5571 -0.9388
 8482SOL    HW243439  12.824   6.885  12.791  2.4432  0.9859  0.2102
 8483SOL     OW43440   8.134   4.884   9.418 -0.2271  0.4915 -0.6826
 8483SOL    HW143441   8.212   4.897   9.365  1.3250 -0.9065  1.1197
 8483SOL    HW243442   8.160   4.913   9.506 -1.8133  0.1822 -0.0781
 8484SOL     OW43443   0.742  13.450   5.450  0.2737 -0.8197 -0.1304
 8484SOL    HW143444   0.748  13.374   5.508 -1.7297  0.2268  1.5936
 8484SOL    HW243445   0.709  13.415   5.367  1.1529 -2.0552  0.0139
 8485SOL     OW43446   8.131  12.147   3.517 -0.7800 -0.0084  0.0785
 8485SOL    HW143447   8.131  12.179   3.607 -2.9881 -1.2072  0.5904
 8485SOL    HW243448   8.192  12.074   3.517 -0.0711  0.5778  0.3584
 8486SOL     OW43449  12.890   9.098   2.194  0.2293 -0.4989  0.3815
 8486SOL    HW143450  12.949   9.173   2.199  0.0854 -0.3134 -0.5377
 8486SOL    HW243451  12.827   9.112   2.264 -1.1522  1.4346 -1.1375
 8487SOL     OW43452  13.174   1.635  11.065 -0.2068  0.0338 -0.5707
 8487SOL    HW143453  13.150   1.645  10.973  0.0904 -0.4987 -0.7067
 8487SOL    HW243454  13.270   1.628  11.064 -0.0599  1.5679 -0.0836
 8488SOL     OW43455   2.772   8.843  13.155 -0.0368  0.4568 -0.6533
 8488SOL    HW143456   2.770   8.764  13.102 -3.2640  1.5928 -2.5325
 8488SOL    HW243457   2.730   8.818  13.237 -0.4090  0.0339 -0.9686
 8489SOL     OW43458  14.001   3.939   6.549  0.0098 -0.2758  0.4463
 8489SOL    HW143459  13.958   3.923   6.632  2.0192  0.6839  1.7574
 8489SOL    HW243460  14.051   3.859   6.532 -2.9155 -1.8268 -1.6140
 8490SOL     OW43461  10.495   7.223   5.742  0.5441  0.4911  0.3567
 8490SOL    HW143462  10.539   7.172   5.810  1.7238  0.1871 -0.5870
 8490SOL    HW243463  10.450   7.157   5.689 -0.3213  0.7188  0.8079
 8491SOL     OW43464   4.488   9.315   0.703  0.5397  0.3958 -0.4175
 8491SOL    HW143465   4.495   9.360   0.620  0.8464 -0.4503 -0.8645
 8491SOL    HW243466   4.463   9.225   0.680 -3.1464  0.9848  0.5616
 8492SOL     OW43467   2.901  10.134   8.364 -0.1158  0.2663  0.4358
 8492SOL    HW143468   2.971  10.080   8.401 -0.4746 -1.7577 -1.6240
 8492SOL    HW243469   2.820  10.090   8.390 -0.6291  1.7888  1.5816
 8493SOL     OW43470   5.216   0.285  13.380 -0.3165 -0.5662 -0.5113
 8493SOL    HW143471   5.187   0.331  13.459  0.8249 -3.1868  1.6107
 8493SOL    HW243472   5.284   0.341  13.343 -1.9021  1.4378 -0.5734
 8494SOL     OW43473  12.369   1.764   3.248 -0.6701  0.1774 -0.0909
 8494SOL    HW143474  12.345   1.752   3.339  0.8478 -0.6711  0.2373
 8494SOL    HW243475  12.311   1.706   3.199 -0.7463 -0.1955  0.4457
 8495SOL     OW43476  11.708   1.099   9.777 -0.1589 -0.3965  0.5345
 8495SOL    HW143477  11.685   1.111   9.869  0.0501  1.7831  0.3458
 8495SOL    HW243478  11.628   1.069   9.736 -0.3670 -0.9845  1.3344
 8496SOL     OW43479   5.614  12.404   3.851 -0.5884  0.3540 -0.2726
 8496SOL    HW143480   5.597  12.451   3.933 -0.4545  0.5952 -0.3796
 8496SOL    HW243481   5.639  12.316   3.879  0.1256  0.6294 -0.0172
 8497SOL     OW43482   5.095   8.393  10.157 -0.4462  0.8811 -0.4831
 8497SOL    HW143483   5.039   8.444  10.216 -1.9527 -1.8990  0.6749
 8497SOL    HW243484   5.087   8.438  10.073 -0.8409  3.0947  0.6437
 8498SOL     OW43485   1.476   6.889   7.565  0.0939  0.0545  0.1054
 8498SOL    HW143486   1.389   6.881   7.528  0.4497 -0.7408 -0.5775
 8498SOL    HW243487   1.462   6.887   7.660 -0.5946 -0.3079 -0.0008
 8499SOL     OW43488   9.387   6.561   6.557  0.3322 -0.1914  0.3420
 8499SOL    HW143489   9.481   6.571   6.540  0.5209 -1.2540  0.6754
 8499SOL    HW243490   9.348   6.552   6.471  0.4344  0.9545  0.1575
 8500SOL     OW43491  12.240   0.239  12.631  0.3128  0.2930  0.7664
 8500SOL    HW143492  12.175   0.258  12.698 -0.3500  0.4930  0.0855
 8500SOL    HW243493  12.220   0.301  12.560  0.9576  0.0499  0.3645
 8501SOL     OW43494   3.648   5.345   2.644  0.2740  0.3042  0.4447
 8501SOL    HW143495   3.727   5.359   2.697 -1.3341  0.4354  2.9592
 8501SOL    HW243496   3.672   5.379   2.558  3.0944 -0.0603  0.9619
 8502SOL     OW43497   2.937   4.204   1.007  0.3986 -0.0532  0.4764
 8502SOL    HW143498   3.031   4.190   1.013  0.3688 -1.1709 -0.9934
 8502SOL    HW243499   2.904   4.126   0.961 -1.6751 -1.2632  3.6545
 8503SOL     OW43500  10.872   3.436   3.829  0.0584  0.4494  0.1785
 8503SOL    HW143501  10.790   3.486   3.828  0.1400  0.5850 -0.9395
 8503SOL    HW243502  10.858   3.367   3.765  0.5018 -0.0682  0.6334
 8504SOL     OW43503   6.066   0.590   0.513  0.0124  0.4249  0.1458
 8504SOL    HW143504   6.055   0.571   0.420  1.5029 -0.3160  0.0795
 8504SOL    HW243505   6.026   0.514   0.558  0.5641  0.0724  0.0535
 8505SOL     OW43506   9.688  10.540   7.944 -0.1845 -0.2743  0.3815
 8505SOL    HW143507   9.620  10.482   7.977 -0.6559  0.5126  0.8331
 8505SOL    HW243508   9.643  10.624   7.930  0.3729 -0.1411 -0.7001
 8506SOL     OW43509   1.485  13.085  10.205  0.3762  0.3963  0.0835
 8506SOL    HW143510   1.530  13.169  10.195  0.1337  0.4925 -0.2216
 8506SOL    HW243511   1.537  13.024  10.154  0.4088  0.4168  0.0915
 8507SOL     OW43512   2.428   7.071  12.394  0.1402 -0.2735 -0.2142
 8507SOL    HW143513   2.335   7.050  12.406 -0.2083  0.4836 -1.3579
 8507SOL    HW243514   2.474   6.991  12.417 -0.6817 -0.1866  1.8811
 8508SOL     OW43515  10.776   1.711   6.799  0.3688  0.2920 -0.1822
 8508SOL    HW143516  10.719   1.658   6.855 -0.6735  0.2417 -1.2363
 8508SOL    HW243517  10.725   1.791   6.782 -0.6325 -0.8538 -3.2981
 8509SOL     OW43518   3.166   8.849   5.805  0.4116 -0.2009  0.4808
 8509SOL    HW143519   3.170   8.821   5.897 -1.1857  1.1678  1.0060
 8509SOL    HW243520   3.078   8.826   5.776 -0.4092  2.6086  0.4477
 8510SOL     OW43521   0.748   8.428  13.459  0.2388  0.4931  0.0101
 8510SOL    HW143522   0.696   8.490  13.510  0.2304  0.7713 -0.3295
 8510SOL    HW243523   0.805   8.386  13.523 -0.3188  0.2697  0.3659
 8511SOL     OW43524   1.063  12.396   3.762  0.1625 -0.6563 -0.1138
 8511SOL    HW143525   1.017  12.473   3.796 -0.7581 -0.8520 -0.8660
 8511SOL    HW243526   1.150  12.428   3.739  0.7468 -0.4577  2.1159
 8512SOL     OW43527   8.705  10.988   5.456 -0.0286  0.1691  0.2317
 8512SOL    HW143528   8.796  10.968   5.480 -0.0621 -0.4698 -0.1568
 8512SOL    HW243529   8.655  10.914   5.491 -0.4303  0.6234  0.6283
 8513SOL     OW43530   4.299  14.155   5.566  0.3633 -0.3261 -0.6157
 8513SOL    HW143531   4.373  14.112   5.523  0.6075 -0.1503 -0.3697
 8513SOL    HW243532   4.322  14.157   5.658  1.3740  2.2747 -0.8304
 8514SOL     OW43533   8.769   8.287  12.310  0.2872 -0.5918  0.4339
 8514SOL    HW143534   8.775   8.321  12.399 -2.0300  1.9246 -0.2513
 8514SOL    HW243535   8.848   8.318  12.267 -0.9490  2.7474  0.3077
 8515SOL     OW43536   9.481  13.960   9.885  0.2867 -0.1525 -0.0152
 8515SOL    HW143537   9.479  13.872   9.924  1.4202  0.0779  0.5951
 8515SOL    HW243538   9.432  14.015   9.947  0.7066 -0.1007  0.2739
 8516SOL     OW43539   3.246  10.785   4.065 -0.4737  0.5342  0.2113
 8516SOL    HW143540   3.171  10.843   4.077 -0.4373  0.8396 -0.9451
 8516SOL    HW243541   3.228  10.711   4.123 -2.1942  0.1010 -0.7979
 8517SOL     OW43542  13.462  11.150   5.217 -0.1694 -0.3334  0.1661
 8517SOL    HW143543  13.531  11.144   5.151 -0.8285  1.0889 -0.7036
 8517SOL    HW243544  13.390  11.097   5.182 -0.2976 -0.0705  0.0276
 8518SOL     OW43545   4.127   7.154   8.768 -0.1595  0.4168  0.5887
 8518SOL    HW143546   4.172   7.232   8.798 -0.6432  0.9236  0.0257
 8518SOL    HW243547   4.181   7.081   8.799  0.4162  0.9750  0.9145
 8519SOL     OW43548   5.093   2.653  10.334  0.1370 -0.0421  0.5857
 8519SOL    HW143549   5.071   2.562  10.312  0.0771  0.4114 -1.3516
 8519SOL    HW243550   5.187   2.659  10.316  0.0211  0.4271  0.1158
 8520SOL     OW43551   0.888   3.992  13.372 -0.3725 -1.0564  0.3551
 8520SOL    HW143552   0.814   3.938  13.345 -0.8332  0.7170 -2.3424
 8520SOL    HW243553   0.849   4.063  13.423 -0.0873 -1.8513  1.7093
 8521SOL     OW43554  13.661   8.812  11.411 -0.4553  0.7780  0.4614
 8521SOL    HW143555  13.661   8.858  11.327 -0.9025  1.8617  1.0328
 8521SOL    HW243556  13.587   8.850  11.459 -0.2658  0.1061  1.3082
 8522SOL     OW43557   4.522   1.674   5.830 -0.2024 -0.0720 -0.0647
 8522SOL    HW143558   4.607   1.630   5.833 -0.1341 -0.3014 -2.8850
 8522SOL    HW243559   4.464   1.613   5.784 -0.7578  1.6588 -1.8198
 8523SOL     OW43560  10.004  10.086   2.332  0.2616 -0.2705 -0.1421
 8523SOL    HW143561  10.054  10.020   2.283 -2.9120 -2.3372 -0.9179
 8523SOL    HW243562   9.978  10.041   2.412 -1.0729  0.3554 -0.1936
 8524SOL     OW43563   6.384   0.455   0.347 -0.1600  0.4154  0.0636
 8524SOL    HW143564   6.467   0.503   0.349 -0.4392  0.9049  0.0474
 8524SOL    HW243565   6.410   0.364   0.331  0.3760  0.5547  0.0996
 8525SOL     OW43566   6.029   9.223  10.890  0.1015  0.3583  0.0030
 8525SOL    HW143567   5.944   9.180  10.893 -0.8452  2.2190  1.9051
 8525SOL    HW243568   6.024   9.281  10.814 -0.5815  0.9059  0.4581
 8526SOL     OW43569  12.171   3.336   5.881  0.4995 -0.4570 -0.2245
 8526SOL    HW143570  12.140   3.264   5.935  0.0063  0.4132  0.6807
 8526SOL    HW243571  12.178   3.299   5.793  0.8102 -1.7521  0.3304
 8527SOL     OW43572  11.207   0.774   4.911  0.3926 -0.2660  0.2655
 8527SOL    HW143573  11.116   0.768   4.940  0.3238  1.7551  0.6549
 8527SOL    HW243574  11.256   0.717   4.971 -0.8484 -3.4860 -1.5431
 8528SOL     OW43575   1.277   8.803   6.056  0.1374  0.3242 -0.6210
 8528SOL    HW143576   1.186   8.831   6.051 -0.5331 -1.4598  0.4066
 8528SOL    HW243577   1.304   8.790   5.965  0.3756  3.6270 -1.1363
 8529SOL     OW43578   1.177   7.969  13.587  0.4204  0.2038  0.2579
 8529SOL    HW143579   1.147   8.021  13.662  1.0956  0.2922  0.4741
 8529SOL    HW243580   1.225   8.031  13.533  0.3085  0.0394 -0.0312
 8530SOL     OW43581   9.565  12.239   3.425 -0.1013 -0.0182 -0.1278
 8530SOL    HW143582   9.647  12.202   3.457 -0.7738 -0.8911  0.6465
 8530SOL    HW243583   9.527  12.283   3.501  0.7438  2.4839 -1.0455
 8531SOL     OW43584   7.168   8.338   0.162  0.2533 -0.0020  0.4908
 8531SOL    HW143585   7.252   8.348   0.117 -0.0090  3.3840  0.5284
 8531SOL    HW243586   7.103   8.367   0.099 -0.7396 -0.9917  1.0320
 8532SOL     OW43587   8.018   0.805  10.678 -0.0279 -0.2866 -0.1058
 8532SOL    HW143588   8.027   0.806  10.773  0.4789 -0.2103 -0.1511
 8532SOL    HW243589   8.038   0.895  10.651  0.5965 -0.4926 -0.3470
 8533SOL     OW43590   1.836  11.938   7.882 -0.1886  0.0139 -0.5275
 8533SOL    HW143591   1.820  12.028   7.853  0.6672  1.5270  3.1322
 8533SOL    HW243592   1.898  11.903   7.818 -1.1923  1.6749 -2.5301
 8534SOL     OW43593   1.123   1.053  12.191 -0.1409  0.1189  0.1854
 8534SOL    HW143594   1.195   1.039  12.131  1.4006  0.8413  1.7738
 8534SOL    HW243595   1.063   1.111  12.145 -0.2218 -1.2558 -1.5230
 8535SOL     OW43596  11.146   7.390  13.903 -0.4962 -0.2565  0.5634
 8535SOL    HW143597  11.092   7.439  13.840  1.1480  3.1435  1.5717
 8535SOL    HW243598  11.093   7.387  13.982 -0.7866 -0.4989  0.3620
 8536SOL     OW43599   9.969   4.407   2.217 -0.1826  0.3045 -0.2421
 8536SOL    HW143600   9.984   4.463   2.141  0.3411  1.1500  0.4766
 8536SOL    HW243601   9.900   4.452   2.267 -2.0973 -1.3253 -1.2764
 8537SOL     OW43602   2.462  12.616   8.596 -0.0475 -0.2229 -0.1686
 8537SOL    HW143603   2.411  12.614   8.677  0.0082 -0.5332 -0.1377
 8537SOL    HW243604   2.403  12.582   8.529  0.2319 -0.9522 -0.0590
 8538SOL     OW43605   7.413   0.725   9.999  0.3412 -0.3626  0.0534
 8538SOL    HW143606   7.406   0.812   9.959 -0.1661 -0.8390 -0.9455
 8538SOL    HW243607   7.327   0.709  10.037  0.4485 -0.4077  0.2784
 8539SOL     OW43608  10.018  12.044   0.732 -0.3835  0.2191  0.4076
 8539SOL    HW143609   9.987  12.108   0.668 -0.5488 -0.3483 -0.0955
 8539SOL    HW243610  10.026  12.093   0.813  0.7558  1.1759 -0.2538
 8540SOL     OW43611  13.076  13.277   2.078  0.6352 -0.0369  0.0495
 8540SOL    HW143612  13.009  13.291   2.146  0.2072  1.2489 -0.6114
 8540SOL    HW243613  13.141  13.221   2.120 -0.8300 -1.3028  0.7262
 8541SOL     OW43614   8.144  11.858   3.322 -0.0483  0.5492  0.7595
 8541SOL    HW143615   8.185  11.903   3.248 -0.4636 -1.7550 -0.9704
 8541SOL    HW243616   8.192  11.890   3.399  1.3098  2.0009 -0.6131
 8542SOL     OW43617   3.596  12.198   2.104  0.4354  0.4429  0.2257
 8542SOL    HW143618   3.661  12.171   2.169  1.8980  0.3883 -1.2147
 8542SOL    HW243619   3.613  12.291   2.090  0.3302  0.3835 -0.3097
 8543SOL     OW43620  10.978   6.185   3.839 -0.3879  0.5964  0.3681
 8543SOL    HW143621  10.932   6.135   3.772  1.9369 -0.6306 -0.4263
 8543SOL    HW243622  11.018   6.119   3.895  1.6241  1.4976  0.1121
 8544SOL     OW43623   9.564   3.014  11.570  0.1079 -0.1671  0.5573
 8544SOL    HW143624   9.503   3.016  11.644 -0.3732  1.6754  0.1690
 8544SOL    HW243625   9.568   3.105  11.540  1.2092 -0.6698 -0.9403
 8545SOL     OW43626   4.868   7.463   5.379  0.5241  0.2671  1.2446
 8545SOL    HW143627   4.783   7.426   5.355  0.9071 -0.3096  0.7591
 8545SOL    HW243628   4.916   7.469   5.296  0.7675  1.1067  1.4302
 8546SOL     OW43629   8.029  12.017   9.912 -0.3049 -0.6053 -0.1488
 8546SOL    HW143630   7.975  11.939   9.900 -2.4475  0.8199 -0.4848
 8546SOL    HW243631   7.985  12.084   9.859  1.5397  0.8051 -0.0035
 8547SOL     OW43632   4.829   8.287  11.160  1.0498 -0.7144  0.1087
 8547SOL    HW143633   4.893   8.270  11.091 -0.1737 -1.1740 -0.9479
 8547SOL    HW243634   4.785   8.203  11.174 -0.5503 -0.0232 -0.4973
 8548SOL     OW43635   5.779   2.702   0.726 -0.4657  0.1156  0.0415
 8548SOL    HW143636   5.862   2.657   0.707 -1.0290 -1.6992  1.5481
 8548SOL    HW243637   5.805   2.778   0.778  0.3960  0.9351 -1.4715
 8549SOL     OW43638   1.093  11.678  13.567  0.6989 -0.5038  0.4948
 8549SOL    HW143639   1.028  11.671  13.637  0.2708  1.6463  0.3783
 8549SOL    HW243640   1.153  11.746  13.597  1.5310 -0.7890 -0.4744
 8550SOL     OW43641   9.211   8.393   3.839 -0.6983 -0.3607  0.3180
 8550SOL    HW143642   9.205   8.381   3.744  1.3051  0.0150  0.0887
 8550SOL    HW243643   9.244   8.483   3.849  0.3652 -0.8406  1.2847
 8551SOL     OW43644  13.717   2.174   9.077 -0.2959 -0.8574 -0.3798
 8551SOL    HW143645  13.629   2.185   9.112 -1.3475 -4.0308 -1.6911
 8551SOL    HW243646  13.764   2.126   9.145 -0.7797 -2.5098 -1.1812
 8552SOL     OW43647   0.746  14.150  10.215 -0.1482 -0.3292 -0.4038
 8552SOL    HW143648   0.740  14.083  10.146  1.4794 -0.7853 -0.1483
 8552SOL    HW243649   0.837  14.145  10.245 -0.7923 -0.0837  1.7305
 8553SOL     OW43650   4.924  11.864   0.565  0.5820 -0.0650  0.2071
 8553SOL    HW143651   4.909  11.797   0.498  1.1207 -0.2950  0.3152
 8553SOL    HW243652   4.916  11.817   0.648  1.7580 -0.1663  0.2685
 8554SOL     OW43653   4.330   3.968   5.942  0.4230 -0.3882  0.5685
 8554SOL    HW143654   4.300   4.058   5.929  0.4768 -0.4964 -0.3631
 8554SOL    HW243655   4.396   3.955   5.874 -0.8868 -1.7197 -0.4835
 8555SOL     OW43656   0.806   9.327   5.586 -0.1725 -1.1216 -0.1737
 8555SOL    HW143657   0.718   9.353   5.613 -0.6221 -1.0560 -1.6146
 8555SOL    HW243658   0.857   9.327   5.667 -1.0164  0.7290  0.4034
 8556SOL     OW43659   6.541  10.014   2.012 -0.0789  0.0045 -0.3693
 8556SOL    HW143660   6.571  10.054   2.094  0.0056 -1.0292  0.1245
 8556SOL    HW243661   6.445  10.014   2.019 -0.0475 -1.2286  0.3203
 8557SOL     OW43662  11.419   1.904  12.101  0.2073 -0.1733 -0.8555
 8557SOL    HW143663  11.421   1.814  12.069  0.9855 -0.7838  0.8034
 8557SOL    HW243664  11.511   1.931  12.105  0.0322  0.4247 -0.6259
 8558SOL     OW43665   5.506   9.528  10.557 -0.0534  0.1378 -0.3176
 8558SOL    HW143666   5.487   9.493  10.644 -0.0792  0.9530  0.0133
 8558SOL    HW243667   5.431   9.583  10.535  1.6412  3.1651  0.8835
 8559SOL     OW43668   6.414   8.240   5.605  0.7851  0.3490  0.6807
 8559SOL    HW143669   6.466   8.210   5.680 -0.1597  1.2070  1.7145
 8559SOL    HW243670   6.373   8.321   5.635  0.8225  1.0179 -0.9778
 8560SOL     OW43671   2.144  10.190   6.415 -0.0845  0.0991  0.0216
 8560SOL    HW143672   2.197  10.137   6.355 -2.2768 -1.7454 -0.4098
 8560SOL    HW243673   2.155  10.279   6.383 -1.0369 -0.7734 -3.1300
 8561SOL     OW43674  13.536  12.347  10.694 -0.4876 -0.0645  0.2659
 8561SOL    HW143675  13.554  12.384  10.607 -1.4484  0.1667  0.1566
 8561SOL    HW243676  13.564  12.256  10.688  1.5027  0.4908  0.3983
 8562SOL     OW43677   1.925   6.553   2.140 -0.2817  0.0105  0.1163
 8562SOL    HW143678   1.867   6.625   2.116 -0.5125 -0.1245  0.2695
 8562SOL    HW243679   2.010   6.578   2.104 -0.8036 -0.6028 -1.6150
 8563SOL     OW43680   5.025   5.978   0.080 -0.0482 -0.2255 -0.2905
 8563SOL    HW143681   4.948   5.947   0.032  0.5269  0.0680 -1.4569
 8563SOL    HW243682   5.044   6.063   0.040  1.4064 -0.7038 -0.6569
 8564SOL     OW43683   8.304   9.663   7.511 -0.3685 -0.2803  0.6065
 8564SOL    HW143684   8.272   9.697   7.595 -1.2620 -0.3261  0.2849
 8564SOL    HW243685   8.269   9.723   7.446 -0.8007 -1.0250  0.1507
 8565SOL     OW43686   1.869   2.366   7.206  0.2768 -0.6366 -0.4861
 8565SOL    HW143687   1.867   2.423   7.283 -1.0227  0.4474 -1.2896
 8565SOL    HW243688   1.947   2.393   7.158  0.3412 -0.3837 -0.2410
 8566SOL     OW43689  10.538   9.629  14.101  0.2799 -0.7126  0.0085
 8566SOL    HW143690  10.446   9.652  14.087 -0.0969 -1.8267  0.4944
 8566SOL    HW243691  10.585   9.673  14.031 -0.8170 -1.2825 -1.1285
 8567SOL     OW43692  12.995   9.821   9.324  0.1446 -0.2421  0.4134
 8567SOL    HW143693  12.900   9.809   9.321  0.1078  0.0695 -2.5136
 8567SOL    HW243694  13.006   9.915   9.341  0.0116 -0.4336  1.7209
 8568SOL     OW43695  13.349   8.915  11.165  0.2482 -0.0220  0.9078
 8568SOL    HW143696  13.373   8.890  11.254 -1.1783  3.2302  2.3475
 8568SOL    HW243697  13.254   8.920  11.165  0.2510  0.8728 -0.5414
 8569SOL     OW43698  11.286   5.038   5.834  0.1413  0.4635  0.0639
 8569SOL    HW143699  11.264   5.111   5.775 -1.0229  1.3547  1.5304
 8569SOL    HW243700  11.372   5.061   5.869 -0.5901  1.6275  1.1835
 8570SOL     OW43701   9.391  10.530  10.456  0.0806 -0.3848 -0.2971
 8570SOL    HW143702   9.297  10.549  10.455  0.3555  1.1569  0.6606
 8570SOL    HW243703   9.425  10.571  10.376  0.3072  1.2315  0.6043
 8571SOL     OW43704   2.289   5.125  12.910  0.2109  0.3262  0.1677
 8571SOL    HW143705   2.369   5.115  12.962 -0.5831  0.8026  1.5547
 8571SOL    HW243706   2.221   5.084  12.964 -1.0678  2.8951  0.6500
 8572SOL     OW43707   4.284   5.933  10.322 -0.4241 -0.3288 -0.2262
 8572SOL    HW143708   4.279   6.028  10.323 -1.2336 -0.2826  3.0189
 8572SOL    HW243709   4.361   5.913  10.268 -1.1929  2.0037 -2.3878
 8573SOL     OW43710   0.546   6.113   7.475 -0.0886 -0.4864  0.1158
 8573SOL    HW143711   0.453   6.130   7.461 -0.0781  1.8865  2.1014
 8573SOL    HW243712   0.566   6.157   7.558  3.2673  1.0218 -1.2985
 8574SOL     OW43713   3.201   6.608   9.181 -0.2372 -0.0944 -0.0388
 8574SOL    HW143714   3.127   6.547   9.186  0.5496 -1.0089  1.2051
 8574SOL    HW243715   3.224   6.610   9.088 -1.7367  0.1164 -0.4224
 8575SOL     OW43716   7.926   2.886   5.080 -0.8379 -0.2717  0.0560
 8575SOL    HW143717   7.900   2.872   5.172 -1.0306 -1.1722 -0.1230
 8575SOL    HW243718   7.986   2.814   5.061  0.1897  0.6308 -0.1590
 8576SOL     OW43719  12.811  14.088  13.605 -0.5931 -0.2004 -0.4032
 8576SOL    HW143720  12.831  14.111  13.514 -2.6679  0.5540 -0.7177
 8576SOL    HW243721  12.754  14.012  13.599 -1.0659  0.0942  0.2438
 8577SOL     OW43722   9.554   5.100  13.583 -0.3283  0.3272 -0.1562
 8577SOL    HW143723   9.470   5.080  13.626 -1.1759  0.6946 -1.5801
 8577SOL    HW243724   9.529   5.141  13.500  1.2018 -1.8124 -1.7581
 8578SOL     OW43725   7.772   7.231   8.762 -0.1539  0.2972  0.4171
 8578SOL    HW143726   7.850   7.188   8.795 -1.0184 -1.6566  0.0418
 8578SOL    HW243727   7.707   7.219   8.831 -1.0460 -1.0357 -0.6030
 8579SOL     OW43728  10.583   3.246   9.789  0.1576  0.3396 -0.4280
 8579SOL    HW143729  10.548   3.311   9.729 -0.9319  2.1096  1.9476
 8579SOL    HW243730  10.511   3.185   9.804  0.5057 -0.2409 -1.0466
 8580SOL     OW43731   1.175   6.007  13.542 -0.4607 -0.1758  0.5624
 8580SOL    HW143732   1.126   6.008  13.624  0.0191  0.5198  0.8502
 8580SOL    HW243733   1.164   5.918  13.508  0.2520 -0.8054  1.9214
 8581SOL     OW43734   8.194   1.903  13.366  0.5533 -0.0227 -0.4358
 8581SOL    HW143735   8.203   1.981  13.312 -0.7467 -0.3242 -1.1424
 8581SOL    HW243736   8.185   1.832  13.303 -1.1989 -0.3615  0.1507
 8582SOL     OW43737   0.771   3.859   8.427 -0.2495 -0.4472  0.2443
 8582SOL    HW143738   0.831   3.865   8.352 -2.1359 -0.3729 -1.3390
 8582SOL    HW243739   0.725   3.943   8.427 -0.3197 -0.4751  1.4597
 8583SOL     OW43740  13.738  12.478   4.723  0.2106  0.3464  0.7346
 8583SOL    HW143741  13.729  12.395   4.769  1.1162 -0.5511 -0.6555
 8583SOL    HW243742  13.658  12.485   4.671  0.9247 -0.5586 -0.5243
 8584SOL     OW43743   1.991  10.169   1.140 -0.2706 -0.3008 -0.1016
 8584SOL    HW143744   1.947  10.237   1.191 -0.3077  1.1841 -2.0092
 8584SOL    HW243745   1.920  10.115   1.105 -0.2363 -1.5116  1.5282
 8585SOL     OW43746  13.824   5.053   3.385  0.0636 -0.0973  0.3280
 8585SOL    HW143747  13.902   5.079   3.433 -0.4322  1.0696  0.5260
 8585SOL    HW243748  13.839   4.960   3.364  0.3664 -0.6185  2.5989
 8586SOL     OW43749   7.138   8.814   8.988  0.1375 -0.1752 -0.3928
 8586SOL    HW143750   7.132   8.792   9.081 -2.0021  2.5837  0.2377
 8586SOL    HW243751   7.214   8.871   8.981 -0.8684  1.2676  0.0996
 8587SOL     OW43752   8.017  10.225   7.364 -0.0513  0.2047 -0.0654
 8587SOL    HW143753   8.113  10.236   7.367  0.0368 -0.4945  2.5705
 8587SOL    HW243754   8.000  10.179   7.282  1.9289 -0.0758 -0.3659
 8588SOL     OW43755   3.167  12.519   4.474  0.0291 -0.6718  0.3572
 8588SOL    HW143756   3.245  12.520   4.529 -0.1553  0.2055  0.6292
 8588SOL    HW243757   3.151  12.611   4.453  0.0031 -0.9769 -1.0502
 8589SOL     OW43758  13.938   1.906   9.038  0.2276 -0.4666 -0.0640
 8589SOL    HW143759  13.850   1.911   9.000 -0.0970  0.3426  0.7429
 8589SOL    HW243760  13.940   1.822   9.083 -0.4852 -0.0928  0.6968
 8590SOL     OW43761   0.480   0.811   4.040  0.3677 -0.4003  0.4925
 8590SOL    HW143762   0.510   0.901   4.028 -2.1341  0.5292  0.5144
 8590SOL    HW243763   0.520   0.762   3.969  0.4639  1.0999 -0.5238
 8591SOL     OW43764   4.501   3.010  13.250  0.1608 -0.9775 -0.0705
 8591SOL    HW143765   4.420   3.040  13.210  0.3698 -1.9901 -1.3369
 8591SOL    HW243766   4.474   2.955  13.323 -0.3433 -2.0484 -1.0326
 8592SOL     OW43767   6.421  12.743   5.992  0.7021 -0.1532  0.0689
 8592SOL    HW143768   6.347  12.688   5.966  1.2790 -0.7055 -0.4665
 8592SOL    HW243769   6.439  12.717   6.082 -1.9259  2.4586  1.5243
 8593SOL     OW43770  10.263   0.486   7.501  0.3786 -0.0386 -0.3812
 8593SOL    HW143771  10.181   0.487   7.450  0.1971  3.5602 -0.3158
 8593SOL    HW243772  10.270   0.396   7.533 -2.0466 -1.2253 -2.7121
 8594SOL     OW43773  10.247   2.237   1.559  0.1749  0.7319  0.1745
 8594SOL    HW143774  10.226   2.298   1.489 -0.8403  1.6825  1.2529
 8594SOL    HW243775  10.338   2.256   1.582  0.4001  0.6528 -0.6239
 8595SOL     OW43776   8.818  10.475   9.245 -0.0010 -0.6678  0.4368
 8595SOL    HW143777   8.805  10.400   9.187 -0.0246 -1.6487  1.6635
 8595SOL    HW243778   8.733  10.491   9.285 -0.8211  2.0603 -2.0918
 8596SOL     OW43779   3.005  10.910  11.257  0.0639  0.5911  0.4653
 8596SOL    HW143780   3.052  10.886  11.336  0.0548  0.9362  0.5782
 8596SOL    HW243781   3.069  10.958  11.204 -0.3473  1.6966  0.9344
 8597SOL     OW43782  13.128   8.264   7.841  0.2701  0.0856 -0.2158
 8597SOL    HW143783  13.084   8.338   7.800  0.7336 -0.7303 -2.2792
 8597SOL    HW243784  13.204   8.247   7.785  0.6903 -1.3709  0.7376
 8598SOL     OW43785  10.457  12.879  10.256 -0.3779 -0.2312 -0.4735
 8598SOL    HW143786  10.374  12.846  10.224 -1.1898  2.2423 -1.1612
 8598SOL    HW243787  10.523  12.824  10.214 -1.6021 -2.2777  0.1446
 8599SOL     OW43788   9.176   5.848   7.406 -0.4318  0.1168 -0.2022
 8599SOL    HW143789   9.228   5.797   7.468 -1.2316  0.2871  0.6301
 8599SOL    HW243790   9.161   5.932   7.450 -0.0542  0.6807 -1.1024
 8600SOL     OW43791   2.863   6.789   9.259 -0.4443 -0.6936 -0.0700
 8600SOL    HW143792   2.853   6.736   9.339 -0.6906  1.3056  1.3085
 8600SOL    HW243793   2.957   6.788   9.241 -0.4623 -1.7137 -0.1730
 8601SOL     OW43794   0.831  11.033   4.580 -1.0268  0.0457 -0.6309
 8601SOL    HW143795   0.839  11.126   4.560  0.4862 -0.1705 -1.1768
 8601SOL    HW243796   0.861  10.989   4.500  1.5340 -0.8617  0.7139
 8602SOL     OW43797   8.827   0.773  12.036  0.7302  0.2678 -0.0744
 8602SOL    HW143798   8.753   0.796  12.092 -0.2083  3.2889 -2.2771
 8602SOL    HW243799   8.838   0.679  12.048 -2.4497 -0.0236  1.5264
 8603SOL     OW43800   1.687   9.915   4.909  0.1911 -0.2177 -0.7000
 8603SOL    HW143801   1.685  10.002   4.869 -0.5568 -0.1933 -0.6190
 8603SOL    HW243802   1.630   9.922   4.985 -0.4833 -0.9829 -1.1187
 8604SOL     OW43803  11.329  10.420   2.928  0.0356  0.1483  0.8727
 8604SOL    HW143804  11.330  10.494   2.989 -0.5534 -1.0965  2.4546
 8604SOL    HW243805  11.262  10.361   2.963  0.1363 -0.9051 -0.6360
 8605SOL     OW43806  13.671   7.810   1.186 -0.7293  0.2269  0.0866
 8605SOL    HW143807  13.635   7.762   1.261 -1.9267 -1.1436 -1.2729
 8605SOL    HW243808  13.698   7.894   1.222 -1.5397 -0.2645  1.9924
 8606SOL     OW43809   1.192  13.895   7.667 -0.2645  0.0909 -0.5291
 8606SOL    HW143810   1.237  13.965   7.620 -1.7761  0.5318 -1.3645
 8606SOL    HW243811   1.261  13.831   7.687  0.9216  1.2676 -0.7578
 8607SOL     OW43812   6.819   2.396   0.129  0.3099 -0.2504 -0.1922
 8607SOL    HW143813   6.888   2.462   0.141  1.6554 -1.5768 -0.3600
 8607SOL    HW243814   6.791   2.408   0.038  2.5878 -1.7274 -1.1715
 8608SOL     OW43815  11.435   3.839  10.338 -0.3284  0.3639 -0.1511
 8608SOL    HW143816  11.466   3.762  10.385  2.3339  0.7834 -1.0567
 8608SOL    HW243817  11.397   3.804  10.257  0.8115 -0.0476 -0.5319
 8609SOL     OW43818   6.158  11.815   8.490  0.6347 -0.8413 -0.8099
 8609SOL    HW143819   6.162  11.835   8.583  0.3168 -0.6946 -0.8263
 8609SOL    HW243820   6.244  11.838   8.456  0.0000  1.4786 -1.0258
 8610SOL     OW43821   3.377  14.009   8.604 -0.0351 -0.1501  0.0310
 8610SOL    HW143822   3.409  14.086   8.651 -0.2396 -0.2565  0.3489
 8610SOL    HW243823   3.289  14.033   8.576 -0.5897 -0.7179  1.2253
 8611SOL     OW43824   4.777  10.600   2.332 -0.2118 -0.2812  0.1891
 8611SOL    HW143825   4.809  10.513   2.310 -1.3536 -0.3987 -1.1499
 8611SOL    HW243826   4.853  10.657   2.323  0.1769 -0.9027 -0.4828
 8612SOL     OW43827   1.363   2.672  11.386  0.0806 -0.4134  0.5999
 8612SOL    HW143828   1.340   2.594  11.437 -2.0552 -0.8549 -0.8939
 8612SOL    HW243829   1.309   2.742  11.424 -0.6417 -0.4833 -0.2771
 8613SOL     OW43830  12.258   2.307   6.637 -0.2306 -0.1870 -0.2369
 8613SOL    HW143831  12.189   2.252   6.600  0.8179 -0.0806 -2.5097
 8613SOL    HW243832  12.308   2.247   6.693  0.0538 -1.2490 -1.5664
 8614SOL     OW43833   2.952   7.390   6.834  0.0645 -0.0579  0.6652
 8614SOL    HW143834   2.944   7.295   6.842 -1.3070 -0.1776 -1.3948
 8614SOL    HW243835   3.042   7.404   6.806 -0.2431 -0.9424 -0.8663
 8615SOL     OW43836   3.314   8.004  10.613 -0.7487 -0.0323  0.3048
 8615SOL    HW143837   3.324   7.985  10.519 -3.3731 -1.1057  0.1786
 8615SOL    HW243838   3.283   8.095  10.615  0.1736  0.2991  0.2219
 8616SOL     OW43839  12.540   1.797   9.904  0.1857  0.2137  0.2181
 8616SOL    HW143840  12.627   1.788   9.943 -0.3866 -0.8426  1.3075
 8616SOL    HW243841  12.500   1.869   9.951  0.2662  0.3476  0.0842
 8617SOL     OW43842   5.055   6.748  10.113  0.2068 -0.4099 -0.3114
 8617SOL    HW143843   5.032   6.837  10.089  0.1458 -0.2902  0.1671
 8617SOL    HW243844   4.973   6.709  10.142 -0.2172 -1.3337 -2.5714
 8618SOL     OW43845   7.638   1.134   5.948 -0.7795 -0.5951 -0.5037
 8618SOL    HW143846   7.564   1.074   5.942 -0.8265 -0.8922  1.9067
 8618SOL    HW243847   7.623   1.183   6.030  2.1173 -1.3709  0.6263
 8619SOL     OW43848   9.885   2.154  10.426  0.2431 -0.4059  0.4021
 8619SOL    HW143849   9.919   2.192  10.345 -0.0800 -2.1092 -0.5776
 8619SOL    HW243850   9.800   2.197  10.439 -0.5878 -1.4597 -1.2381
 8620SOL     OW43851  13.452   5.628   2.474 -0.2659 -0.2834 -0.1281
 8620SOL    HW143852  13.427   5.718   2.496  0.1230  0.1141 -1.2796
 8620SOL    HW243853  13.541   5.634   2.442 -0.7805 -0.8391 -1.7586
 8621SOL     OW43854   5.698  10.038   6.571  0.5079 -0.0750 -0.3647
 8621SOL    HW143855   5.637   9.993   6.512  0.7622 -0.1288 -0.5913
 8621SOL    HW243856   5.661  10.126   6.581  0.4761 -0.0583 -0.6234
 8622SOL     OW43857   1.546   9.364  13.294  0.4363  0.2124  0.1152
 8622SOL    HW143858   1.622   9.406  13.254  2.1813 -2.0191  0.8907
 8622SOL    HW243859   1.526   9.416  13.371  1.3539  0.6754  0.0388
 8623SOL     OW43860   5.614   7.457  10.227  0.1445  0.9255 -0.0077
 8623SOL    HW143861   5.683   7.424  10.285 -0.9173 -2.0452 -0.2747
 8623SOL    HW243862   5.537   7.465  10.283 -0.6704 -1.1529 -0.7514
 8624SOL     OW43863   9.224   3.860   7.468 -0.4696 -0.2838 -0.2991
 8624SOL    HW143864   9.295   3.870   7.532  0.5384 -0.8317 -1.2967
 8624SOL    HW243865   9.211   3.766   7.462  1.4404 -0.4768 -2.9576
 8625SOL     OW43866   6.195   3.540   2.593 -0.4983 -0.3652  0.6881
 8625SOL    HW143867   6.205   3.609   2.659 -1.2638  1.2767 -0.8247
 8625SOL    HW243868   6.267   3.479   2.610  0.3280  0.9097  1.9661
 8626SOL     OW43869   4.899   7.532  11.397 -0.4060 -0.2565 -0.2650
 8626SOL    HW143870   4.864   7.517  11.309 -0.3300  0.0482 -0.3474
 8626SOL    HW243871   4.861   7.462  11.450 -0.3332 -0.5312 -0.5720
 8627SOL     OW43872  12.973   0.615  13.912  0.2404 -0.2768  0.0885
 8627SOL    HW143873  13.029   0.550  13.870 -0.4723 -0.6428 -0.3215
 8627SOL    HW243874  13.016   0.699  13.894  0.3412 -0.4933 -0.7585
 8628SOL     OW43875  12.200   7.229   3.632 -0.1333  0.0863 -0.1291
 8628SOL    HW143876  12.234   7.212   3.544  1.4820 -0.3234  0.5381
 8628SOL    HW243877  12.105   7.235   3.620  0.1288  1.0696 -2.0508
 8629SOL     OW43878  11.383  12.449   2.793  0.2292 -0.5248 -0.0147
 8629SOL    HW143879  11.430  12.469   2.874  1.0305  0.8084 -0.7742
 8629SOL    HW243880  11.291  12.451   2.818  0.4881 -0.7144  0.9818
 8630SOL     OW43881   6.807  10.696  13.041  0.0360  0.3217 -0.2440
 8630SOL    HW143882   6.884  10.645  13.017 -0.4625 -0.6170  0.1240
 8630SOL    HW243883   6.733  10.646  13.007 -0.4994  0.5061  0.6217
 8631SOL     OW43884  13.648   4.626   6.796  0.2776 -0.4022  0.4168
 8631SOL    HW143885  13.633   4.597   6.706 -0.4564  2.0438 -0.3259
 8631SOL    HW243886  13.688   4.550   6.840 -1.3574 -2.4056 -1.3538
 8632SOL     OW43887   7.226  13.296   3.731 -0.2474 -0.1307 -0.4749
 8632SOL    HW143888   7.204  13.374   3.781  1.2297  0.0723 -0.0828
 8632SOL    HW243889   7.305  13.321   3.682 -0.5730 -0.9286 -1.4481
 8633SOL     OW43890   6.464  10.189   0.688  0.1762  0.0300 -0.5010
 8633SOL    HW143891   6.457  10.165   0.596 -0.9996 -1.5811 -0.0257
 8633SOL    HW243892   6.400  10.134   0.733  1.3761  0.0721  1.4074
 8634SOL     OW43893   3.956   6.257   9.697 -0.1953  0.3621 -0.2734
 8634SOL    HW143894   3.999   6.245   9.782 -1.3454  0.2473  0.3106
 8634SOL    HW243895   3.925   6.347   9.699  0.3215  0.5594 -0.8466
 8635SOL     OW43896   0.392   4.081  13.211  0.4003  0.0257  0.0637
 8635SOL    HW143897   0.349   4.135  13.277  1.0628 -1.0835  1.4372
 8635SOL    HW243898   0.358   3.993  13.226  0.5204 -0.2477 -1.1243
 8636SOL     OW43899  11.149  11.635   3.627 -0.1063 -0.2792 -0.1633
 8636SOL    HW143900  11.152  11.713   3.683  1.0190 -1.2516  1.2157
 8636SOL    HW243901  11.151  11.669   3.538 -0.0078  1.2738  0.4061
 8637SOL     OW43902  11.723   5.927   1.437 -0.1605  0.0881 -0.6151
 8637SOL    HW143903  11.739   5.846   1.485 -0.8034  0.8583  0.9929
 8637SOL    HW243904  11.650   5.908   1.379 -0.9335 -0.2482  0.4389
 8638SOL     OW43905   2.326   3.113   7.359  0.1382  0.4753  0.1414
 8638SOL    HW143906   2.408   3.111   7.409  0.7521 -0.1554 -0.8507
 8638SOL    HW243907   2.345   3.061   7.281 -0.9003  1.1670 -0.5902
 8639SOL     OW43908   1.301  10.549   5.632 -0.1429 -0.5208  0.0747
 8639SOL    HW143909   1.375  10.533   5.574  0.5907 -0.3875  0.9603
 8639SOL    HW243910   1.225  10.554   5.573  0.5958 -0.2935 -0.8804
 8640SOL     OW43911  12.866  12.125   5.701  0.2478  0.6593 -0.0384
 8640SOL    HW143912  12.832  12.207   5.664 -0.0098  0.8592  0.6317
 8640SOL    HW243913  12.956  12.146   5.726  0.3394  0.5958 -0.3094
 8641SOL     OW43914   1.285   6.778   1.510  0.0061  0.3610  0.3238
 8641SOL    HW143915   1.218   6.833   1.468  1.4467  1.6265 -0.4048
 8641SOL    HW243916   1.253   6.766   1.599 -1.3462  0.6583 -0.0936
 8642SOL     OW43917   2.400   0.475   7.690 -0.1952  0.5949 -0.2290
 8642SOL    HW143918   2.426   0.408   7.752 -1.0777 -0.2450 -0.7443
 8642SOL    HW243919   2.400   0.431   7.605  1.4081  1.8253 -0.9177
 8643SOL     OW43920  13.097  13.949   8.619  0.5292 -0.0762 -0.3399
 8643SOL    HW143921  13.022  13.987   8.574 -0.8456 -1.5305  0.5989
 8643SOL    HW243922  13.165  13.943   8.553 -0.7590 -0.2678 -1.6897
 8644SOL     OW43923  12.938   4.028   0.510 -0.3217 -0.3896  0.3338
 8644SOL    HW143924  12.971   4.017   0.420  2.6740  0.5483  1.2143
 8644SOL    HW243925  12.899   4.116   0.510 -1.8464 -1.0220 -0.4009
 8645SOL     OW43926   9.792   5.053   3.909 -0.9316 -0.6432 -0.3228
 8645SOL    HW143927   9.786   4.973   3.857  2.6935 -2.7219  2.0203
 8645SOL    HW243928   9.879   5.088   3.891  0.3902 -1.2772  3.7877
 8646SOL     OW43929   1.698   6.854   4.712 -0.3351 -0.0508 -0.0394
 8646SOL    HW143930   1.673   6.828   4.623 -1.5067 -0.9028  0.5063
 8646SOL    HW243931   1.628   6.913   4.740  0.5897  1.0878 -0.0514
 8647SOL     OW43932  11.110  12.675   8.182  0.2555  0.0201  0.1301
 8647SOL    HW143933  11.102  12.694   8.275 -0.1925  1.8908 -0.2399
 8647SOL    HW243934  11.177  12.607   8.177  0.4302  0.0197  1.7942
 8648SOL     OW43935   3.356   8.864  13.846  0.0594 -0.3377  0.3849
 8648SOL    HW143936   3.361   8.843  13.939 -1.1599  0.7845  0.7310
 8648SOL    HW243937   3.287   8.930  13.840 -0.4319 -0.9588 -1.4169
 8649SOL     OW43938   8.014  13.663   0.209  0.1017 -0.6170  0.1702
 8649SOL    HW143939   8.097  13.664   0.257 -0.7561 -0.7884  1.7212
 8649SOL    HW243940   7.988  13.755   0.204  0.4190 -0.5536 -0.4056
 8650SOL     OW43941  12.758   8.101   0.238  0.5295 -0.4543  0.2565
 8650SOL    HW143942  12.786   8.178   0.287  1.2871  0.3283 -1.3085
 8650SOL    HW243943  12.703   8.052   0.299 -0.3380  1.5408  1.1741
 8651SOL     OW43944  14.123   1.708   0.440  0.5971 -0.8034 -0.6741
 8651SOL    HW143945  14.133   1.650   0.364  1.8436 -2.2476  0.5350
 8651SOL    HW243946  14.092   1.651   0.510  0.8247  0.2154  0.2819
 8652SOL     OW43947   5.844  11.704   1.117 -0.3697 -0.1515  0.1826
 8652SOL    HW143948   5.933  11.739   1.122 -0.4091  0.0842 -0.6639
 8652SOL    HW243949   5.802  11.735   1.198  0.0272  0.5500  0.1320
 8653SOL     OW43950   6.684   2.293   2.199 -0.1527 -0.3089  0.0357
 8653SOL    HW143951   6.670   2.324   2.110 -0.1696 -0.6773 -0.0922
 8653SOL    HW243952   6.751   2.225   2.191  1.4120  1.0901  0.5731
 8654SOL     OW43953   4.986   5.115  12.911  0.5917 -0.6430  0.2551
 8654SOL    HW143954   5.023   5.125  12.999  1.3936 -0.4918 -0.0885
 8654SOL    HW243955   5.049   5.158  12.854  1.3554 -2.8664 -0.6742
 8655SOL     OW43956   3.041   8.149   8.245 -0.2217 -0.3349 -0.0795
 8655SOL    HW143957   3.080   8.069   8.211  1.9909  0.7774 -0.3730
 8655SOL    HW243958   3.116   8.208   8.260 -1.5697  0.9811  2.0133
 8656SOL     OW43959  11.513   2.280   1.182  0.5955 -0.2874  0.6257
 8656SOL    HW143960  11.517   2.185   1.174  1.9288 -0.2333  0.5055
 8656SOL    HW243961  11.583   2.302   1.244 -1.2345  0.4229  2.5838
 8657SOL     OW43962   2.369   6.914   9.682 -0.4411 -0.4019 -0.6499
 8657SOL    HW143963   2.305   6.843   9.681 -0.9477 -0.0512  1.6304
 8657SOL    HW243964   2.351   6.963   9.602 -1.8688 -1.2896 -0.9190
 8658SOL     OW43965  10.788   6.678  11.997  0.1651  0.1939 -0.1764
 8658SOL    HW143966  10.703   6.675  11.954  1.2550 -1.8627 -2.5018
 8658SOL    HW243967  10.803   6.587  12.025  1.9835  0.2642 -0.7870
 8659SOL     OW43968   2.397   0.955   2.569  0.3866  0.6861 -0.3875
 8659SOL    HW143969   2.410   0.863   2.547 -0.2488  0.8650 -1.6476
 8659SOL    HW243970   2.354   0.954   2.654  0.6327 -0.1717 -0.2672
 8660SOL     OW43971   0.591   1.138   3.425 -0.3460  0.5620  0.0179
 8660SOL    HW143972   0.524   1.093   3.477  1.1883 -1.1752  0.6123
 8660SOL    HW243973   0.581   1.102   3.337 -0.3900  0.5197  0.0402
 8661SOL     OW43974  10.672   6.921   1.615 -0.1389 -0.4548  0.3546
 8661SOL    HW143975  10.656   6.920   1.521 -0.2508  1.3267  0.3197
 8661SOL    HW243976  10.620   6.994   1.648  1.6624  0.4180  1.4407
 8662SOL     OW43977   4.089  12.567   2.612  0.0023 -0.0161  0.3476
 8662SOL    HW143978   4.125  12.509   2.545  0.5572 -1.1757  1.5745
 8662SOL    HW243979   4.002  12.530   2.632 -1.2432  1.7693 -1.4020
 8663SOL     OW43980  13.739   7.494   2.518  0.1404 -0.1598  0.1652
 8663SOL    HW143981  13.772   7.488   2.428 -1.5948  0.7429 -0.5800
 8663SOL    HW243982  13.770   7.414   2.560 -1.1479 -1.9206 -1.9823
 8664SOL     OW43983   1.645  12.971   8.636  0.2126  0.2761  0.5517
 8664SOL    HW143984   1.573  12.923   8.676  1.4830 -3.9045 -1.6385
 8664SOL    HW243985   1.712  12.977   8.705 -1.0141  1.5610  1.6888
 8665SOL     OW43986   6.198   8.046   7.782 -0.7063 -0.4857 -0.3198
 8665SOL    HW143987   6.194   8.106   7.856 -2.4767  1.3261 -1.7737
 8665SOL    HW243988   6.278   7.994   7.797 -0.2167  0.8165  2.0339
 8666SOL     OW43989   1.407   1.990   6.689 -0.6990 -0.7328  0.8020
 8666SOL    HW143990   1.444   2.003   6.601  0.5929 -2.0922  1.0871
 8666SOL    HW243991   1.399   2.077   6.725  1.2279 -0.2685  0.2672
 8667SOL     OW43992  11.124   0.676   4.435 -0.1717 -0.6662 -0.0770
 8667SOL    HW143993  11.071   0.723   4.499 -1.4664 -2.7987  0.4957
 8667SOL    HW243994  11.214   0.691   4.464 -0.5963  0.4656  0.7425
 8668SOL     OW43995  10.434   0.019   9.725  0.3637  0.3021  0.0880
 8668SOL    HW143996  10.343   0.041   9.747 -0.9244 -0.2604 -3.8857
 8668SOL    HW243997  10.474   0.103   9.704  0.1164  0.3495 -0.2026
 8669SOL     OW43998  13.689   0.382   8.290 -0.0974  0.3483 -0.4487
 8669SOL    HW143999  13.738   0.462   8.272  0.5924 -0.1159 -0.6831
 8669SOL    HW244000  13.624   0.377   8.219  0.1721  0.4510 -0.7056
 8670SOL     OW44001   4.384   7.812   7.826 -0.1106 -0.1678  0.3922
 8670SOL    HW144002   4.449   7.781   7.888  2.7107  0.8906 -1.7905
 8670SOL    HW244003   4.394   7.755   7.750 -2.1561 -0.2944  0.1477
 8671SOL     OW44004  10.190   6.722   6.498  0.0193  0.1306 -0.3496
 8671SOL    HW144005  10.202   6.809   6.460 -1.2556 -0.2031 -1.6180
 8671SOL    HW244006  10.234   6.663   6.436 -1.2674 -0.3322 -0.8610
 8672SOL     OW44007  13.770   9.425  10.211  0.2460 -0.3199  0.0229
 8672SOL    HW144008  13.694   9.388  10.256  0.0267  0.7901  0.5858
 8672SOL    HW244009  13.823   9.464  10.280  2.3395 -2.6894 -0.1037
 8673SOL     OW44010  12.206   7.734   2.779 -0.2184  0.2289  0.3255
 8673SOL    HW144011  12.150   7.660   2.757  0.1116 -0.7256  2.4189
 8673SOL    HW244012  12.244   7.711   2.864  1.1966  2.0729  0.2655
 8674SOL     OW44013  13.067   7.111  11.208  0.1398  0.6638  0.4036
 8674SOL    HW144014  13.158   7.083  11.220 -0.1542 -0.4275  0.1870
 8674SOL    HW244015  13.060   7.130  11.114 -0.2559 -0.7936  0.1182
 8675SOL     OW44016   2.914   2.609   5.290  0.1946  0.4259  0.2470
 8675SOL    HW144017   2.898   2.539   5.227  0.2273  1.7319 -1.2923
 8675SOL    HW244018   2.890   2.689   5.242  1.9772  1.6313  1.2622
 8676SOL     OW44019   8.894   3.129   8.496 -0.6500 -0.4244  0.1670
 8676SOL    HW144020   8.927   3.053   8.448 -0.4084  0.1284 -0.5555
 8676SOL    HW244021   8.973   3.176   8.522 -0.8148 -0.1073  0.0962
 8677SOL     OW44022   3.583   7.025  14.075  0.0828  0.8066 -0.2272
 8677SOL    HW144023   3.622   7.099  14.029  1.2324 -0.0513 -0.7016
 8677SOL    HW244024   3.491   7.049  14.086  0.0831  1.6542 -1.7418
 8678SOL     OW44025   0.437   2.315  13.484 -0.2345  0.1644  0.0361
 8678SOL    HW144026   0.421   2.221  13.480 -1.4443  0.3797 -0.6693
 8678SOL    HW244027   0.369   2.349  13.542 -0.0389  0.6526 -0.0087
 8679SOL     OW44028   8.506   8.611   0.474 -0.3986  0.0666  0.2000
 8679SOL    HW144029   8.463   8.675   0.531 -1.0941  0.2163 -0.4765
 8679SOL    HW244030   8.449   8.534   0.476 -1.1106  0.5170 -1.2640
 8680SOL     OW44031   0.620   7.002   3.156  0.3297 -0.3295 -0.0213
 8680SOL    HW144032   0.650   7.059   3.084  0.8233  0.1040  0.5138
 8680SOL    HW244033   0.608   7.062   3.230 -0.8740 -0.6587  0.0752
 8681SOL     OW44034  12.688   8.268  10.818 -0.0718 -0.0072  0.5013
 8681SOL    HW144035  12.663   8.291  10.907  1.1204 -2.5400  1.5683
 8681SOL    HW244036  12.607   8.234  10.779 -0.3037 -0.0631  1.0174
 8682SOL     OW44037  12.752   1.011   6.217 -0.2949 -0.5780  0.0265
 8682SOL    HW144038  12.722   0.995   6.306 -0.6890 -0.9620 -0.1719
 8682SOL    HW244039  12.808   0.936   6.196 -0.6995 -0.8022 -0.2655
 8683SOL     OW44040   5.751   9.590   9.225  0.0218  0.0500  0.0348
 8683SOL    HW144041   5.735   9.659   9.289  0.3108  0.6981 -0.5697
 8683SOL    HW244042   5.841   9.563   9.240 -0.7559 -1.8237  1.7685
 8684SOL     OW44043  13.900   2.365  10.473 -0.3790  0.1857 -0.1392
 8684SOL    HW144044  13.950   2.306  10.529  0.1555 -1.3971 -2.1801
 8684SOL    HW244045  13.960   2.437  10.454  0.2520 -0.4345 -0.5357
 8685SOL     OW44046   3.763   0.449  12.163  0.2635 -0.0363 -0.7151
 8685SOL    HW144047   3.749   0.431  12.256  0.5901  0.1502 -0.6262
 8685SOL    HW244048   3.792   0.365  12.127 -1.3824 -0.5282 -0.9814
 8686SOL     OW44049   2.680   9.529   9.632  0.3006  0.1865  0.4578
 8686SOL    HW144050   2.710   9.608   9.587 -0.8155 -0.1504 -0.9425
 8686SOL    HW244051   2.732   9.458   9.593 -0.5370 -0.0833 -0.1958
 8687SOL     OW44052   6.664  10.678   0.611 -0.4490  0.6993 -0.0526
 8687SOL    HW144053   6.730  10.620   0.650  1.9508  2.3831 -1.3083
 8687SOL    HW244054   6.657  10.648   0.521 -0.3844  1.3324 -0.2742
 8688SOL     OW44055   3.283   1.783   8.721 -0.3764  0.3318  0.1329
 8688SOL    HW144056   3.205   1.837   8.727 -0.3245  0.3948  0.2418
 8688SOL    HW244057   3.250   1.695   8.700 -0.5704  0.0899  1.3613
 8689SOL     OW44058   4.761   7.752   1.548 -0.4523 -0.6592  0.6457
 8689SOL    HW144059   4.825   7.748   1.619  2.2709  0.3224 -1.5743
 8689SOL    HW244060   4.720   7.838   1.558  1.1020  0.1798  0.1448
 8690SOL     OW44061  13.188   1.181   2.650  0.0803  0.0786 -0.5200
 8690SOL    HW144062  13.266   1.126   2.645 -0.4189 -0.9586  1.8564
 8690SOL    HW244063  13.138   1.159   2.571  0.9098 -1.2727 -0.6978
 8691SOL     OW44064   0.739   3.176   0.811  0.5370  0.4823 -0.0161
 8691SOL    HW144065   0.704   3.223   0.887 -2.6652 -0.0516 -1.0151
 8691SOL    HW244066   0.752   3.244   0.745  1.4548  0.6766  0.3453
 8692SOL     OW44067  10.446  12.429   2.948 -0.4929 -0.3302  0.0791
 8692SOL    HW144068  10.352  12.422   2.932 -0.5178  1.0492 -0.4780
 8692SOL    HW244069  10.458  12.402   3.039 -1.6057  0.7146  0.5561
 8693SOL     OW44070   2.593  10.632   1.279 -0.1727  0.2750 -0.0692
 8693SOL    HW144071   2.537  10.560   1.250 -0.1582  0.4510 -0.5331
 8693SOL    HW244072   2.606  10.615   1.373  2.0248 -1.8407 -0.6482
 8694SOL     OW44073   6.222   7.402   3.751  0.1250 -0.7893 -0.2738
 8694SOL    HW144074   6.198   7.494   3.741 -1.2993 -1.2259 -1.1575
 8694SOL    HW244075   6.177   7.374   3.831 -1.0351 -1.1694 -1.0219
 8695SOL     OW44076   7.753  10.010   7.768 -0.2741  0.2590  0.2480
 8695SOL    HW144077   7.710   9.948   7.709  0.9905  0.5855 -1.0697
 8695SOL    HW244078   7.755  10.092   7.718  0.4657  0.6425  0.9007
 8696SOL     OW44079   9.622  12.808   3.830 -0.0808 -0.9828  0.7680
 8696SOL    HW144080   9.585  12.894   3.813  0.5770 -0.9081 -0.4122
 8696SOL    HW244081   9.602  12.757   3.752  2.0065 -1.0172  0.1905
 8697SOL     OW44082  14.137  12.811  11.070 -0.1796  0.3481 -0.1909
 8697SOL    HW144083  14.187  12.783  10.993 -0.0609  0.9394 -0.3362
 8697SOL    HW244084  14.067  12.866  11.034 -1.3343 -0.9645 -0.0483
 8698SOL     OW44085  10.317   4.317   7.203 -0.4091 -0.4840  0.0324
 8698SOL    HW144086  10.270   4.284   7.126 -0.4446  0.8126 -0.5193
 8698SOL    HW244087  10.389   4.255   7.215 -1.4964 -1.7838  0.1310
 8699SOL     OW44088  12.905   0.323   5.631  0.0981 -0.7278 -0.1704
 8699SOL    HW144089  12.900   0.242   5.579 -0.5110 -1.4537  0.9744
 8699SOL    HW244090  12.900   0.293   5.722 -2.4483  0.7255  0.2528
 8700SOL     OW44091   2.543   5.071   4.067 -0.2303 -0.1082  0.2368
 8700SOL    HW144092   2.535   5.155   4.113 -0.6952  0.8345 -1.5036
 8700SOL    HW244093   2.606   5.087   3.997 -0.7730 -1.0453 -0.4888
 8701SOL     OW44094   8.563  11.672   1.936 -0.1048  0.8068  0.4658
 8701SOL    HW144095   8.643  11.663   1.988 -1.2146 -0.7169  2.0362
 8701SOL    HW244096   8.520  11.750   1.970 -1.3486 -0.7681  2.7102
 8702SOL     OW44097  10.805  14.131  11.537 -0.2148 -0.3124  0.0773
 8702SOL    HW144098  10.884  14.095  11.578  1.2516  1.0582 -1.4436
 8702SOL    HW244099  10.833  14.160  11.451 -2.3425  0.4600 -0.4164
 8703SOL     OW44100   1.193   2.549   6.949  0.0371 -0.4052  0.3821
 8703SOL    HW144101   1.122   2.485   6.950 -0.1933 -0.1521  2.0926
 8703SOL    HW244102   1.243   2.532   7.029  2.2690 -0.9223 -1.0130
 8704SOL     OW44103   4.289   3.782  10.438  0.2349  0.1088 -0.4242
 8704SOL    HW144104   4.284   3.875  10.415 -0.1027 -0.1924 -1.6537
 8704SOL    HW244105   4.283   3.737  10.354  1.2396 -1.0106  0.0815
 8705SOL     OW44106   0.179   7.924   8.280 -0.6130  0.8331 -0.2998
 8705SOL    HW144107   0.238   7.999   8.278 -0.8356  1.0596  1.1367
 8705SOL    HW244108   0.234   7.849   8.256 -0.7865  1.6309 -3.7083
 8706SOL     OW44109  13.728   4.202  10.725 -0.4392 -0.1488 -0.5241
 8706SOL    HW144110  13.681   4.208  10.642 -0.6258  0.6735 -0.3700
 8706SOL    HW244111  13.776   4.119  10.720 -0.8214 -0.3341 -1.2509
 8707SOL     OW44112   0.658  10.065   2.352  0.0152 -0.3091  0.3105
 8707SOL    HW144113   0.634  10.144   2.303  0.3681  0.2783  1.0748
 8707SOL    HW244114   0.630  10.083   2.442 -0.9158 -1.5068  0.2815
 8708SOL     OW44115  11.215   8.224  11.549  0.5287 -1.0806 -0.0099
 8708SOL    HW144116  11.275   8.213  11.475  1.0647  0.7799  0.0938
 8708SOL    HW244117  11.253   8.294  11.601 -0.8172 -1.0787  1.0467
 8709SOL     OW44118   1.637   3.480   3.965 -0.0647  0.0816 -0.0952
 8709SOL    HW144119   1.607   3.485   3.875  0.5804  1.4574 -0.2713
 8709SOL    HW244120   1.580   3.539   4.014  0.1748  0.0652  0.2165
 8710SOL     OW44121   3.162  11.058  13.395 -0.4047  0.3835 -0.5903
 8710SOL    HW144122   3.222  11.001  13.442  0.3272  0.3042 -1.5926
 8710SOL    HW244123   3.121  11.001  13.330 -0.1284  0.8517 -1.1856
 8711SOL     OW44124   8.552   7.173   4.123  0.3085  0.3563 -0.5000
 8711SOL    HW144125   8.583   7.086   4.099 -0.4274 -0.1321  0.2445
 8711SOL    HW244126   8.616   7.233   4.085 -0.6272 -0.3424 -3.3732
 8712SOL     OW44127   3.378  10.555   5.119 -0.0105  0.1519 -0.4233
 8712SOL    HW144128   3.381  10.466   5.155 -2.1257  0.1325 -0.1831
 8712SOL    HW244129   3.431  10.607   5.179 -0.6445 -0.5334  0.7695
 8713SOL     OW44130  12.279   6.491   4.471 -0.3306 -0.4782  0.0565
 8713SOL    HW144131  12.195   6.453   4.446 -0.1050 -0.2420 -1.1125
 8713SOL    HW244132  12.342   6.419   4.461 -0.2034 -0.3210 -0.2696
 8714SOL     OW44133   3.503  13.069   0.812  0.6239 -0.1788 -0.3100
 8714SOL    HW144134   3.580  13.030   0.771 -0.3523 -0.3497 -2.0782
 8714SOL    HW244135   3.481  13.009   0.884  1.6577 -0.5457 -0.2854
 8715SOL     OW44136  13.196   6.194   4.614  0.1894  0.6451 -0.4114
 8715SOL    HW144137  13.161   6.243   4.539 -0.8965 -0.8082 -0.9024
 8715SOL    HW244138  13.121   6.182   4.672 -0.4309 -2.9466 -1.7071
 8716SOL     OW44139   7.469   8.040   2.694  0.1402  0.4423  0.0049
 8716SOL    HW144140   7.487   8.007   2.606  0.8196  0.4935  0.1209
 8716SOL    HW244141   7.499   8.131   2.691  2.9224 -0.3226  1.1032
 8717SOL     OW44142   0.612   9.016   6.514  0.5960 -0.4238  0.2201
 8717SOL    HW144143   0.590   8.944   6.574 -0.5996  0.8377  1.3909
 8717SOL    HW244144   0.547   9.083   6.534  0.8572  0.4787 -1.7680
 8718SOL     OW44145   9.553   0.087   1.496  0.3646  0.8405 -0.1617
 8718SOL    HW144146   9.627   0.067   1.553  0.4537 -2.1711 -1.1664
 8718SOL    HW244147   9.480   0.103   1.557  1.5656  3.0088  0.8092
 8719SOL     OW44148   9.226   6.783  11.831 -0.0452 -0.7721 -0.2377
 8719SOL    HW144149   9.301   6.742  11.875 -1.5195 -2.5611  0.7623
 8719SOL    HW244150   9.164   6.802  11.902 -0.9417 -0.2336 -1.1346
 8720SOL     OW44151  11.551   8.593   0.567 -0.8338  0.4547  0.6999
 8720SOL    HW144152  11.484   8.555   0.511  0.2370 -1.0097  0.3558
 8720SOL    HW244153  11.513   8.592   0.655 -0.9151 -1.3162  0.6810
 8721SOL     OW44154  11.117   2.374   7.945  0.0575  0.3665  0.7643
 8721SOL    HW144155  11.146   2.287   7.975 -0.5485  0.4792  1.7164
 8721SOL    HW244156  11.022   2.368   7.940  0.0697  0.7119 -0.0524
 8722SOL     OW44157  10.996   8.519   6.419 -0.3622 -0.1140  0.4432
 8722SOL    HW144158  10.975   8.556   6.505 -1.0693 -0.8007  0.5798
 8722SOL    HW244159  11.070   8.460   6.435 -0.2139  0.0897  0.5031
 8723SOL     OW44160  13.206   8.731   4.979  0.1811  0.0408  0.1150
 8723SOL    HW144161  13.227   8.748   4.887 -1.3594  1.9103  0.0445
 8723SOL    HW244162  13.161   8.647   4.978  0.8197 -0.3093 -0.7238
 8724SOL     OW44163   1.859   7.534  11.665  0.1413  0.1410 -0.1422
 8724SOL    HW144164   1.814   7.453  11.642 -2.0949  1.0778  0.6066
 8724SOL    HW244165   1.927   7.507  11.726 -1.2229 -1.1005  0.9205
 8725SOL     OW44166   3.792   1.919   2.986  0.1768  0.4054 -0.5141
 8725SOL    HW144167   3.760   1.947   3.072 -0.1945  1.0330 -0.8469
 8725SOL    HW244168   3.863   1.858   3.006  1.6133  2.2360  0.2844
 8726SOL     OW44169   9.062  12.848   5.704  0.2454 -0.2678 -0.0653
 8726SOL    HW144170   8.978  12.893   5.709 -0.0549 -0.8965  0.6582
 8726SOL    HW244171   9.093  12.844   5.794  0.6541 -0.7689 -0.2212
 8727SOL     OW44172   2.233  10.376   3.388 -0.1432  0.3816 -0.2170
 8727SOL    HW144173   2.279  10.336   3.461 -0.3722 -0.1506 -0.3584
 8727SOL    HW244174   2.297  10.374   3.316 -0.6584 -1.1997 -0.6793
 8728SOL     OW44175   0.307   4.522   6.810 -0.0185  0.5406 -0.1958
 8728SOL    HW144176   0.290   4.615   6.804 -1.2651  0.3196 -0.2705
 8728SOL    HW244177   0.354   4.512   6.893  1.8255  1.4371 -1.0734
 8729SOL     OW44178   3.619   2.409  11.565  0.4287  0.3497  0.4405
 8729SOL    HW144179   3.529   2.389  11.591 -0.4170  1.4726 -1.4529
 8729SOL    HW244180   3.662   2.323  11.563 -0.6374 -0.2275  1.1642
 8730SOL     OW44181   1.949   9.410   8.573 -0.0614  0.2223  0.2654
 8730SOL    HW144182   1.987   9.394   8.487 -2.7843 -0.8030 -0.8556
 8730SOL    HW244183   1.927   9.503   8.574 -0.5606  0.1205 -0.4260
 8731SOL     OW44184   4.886   3.958   2.011 -0.1517 -0.1099 -0.1102
 8731SOL    HW144185   4.894   3.863   2.003 -2.7998 -0.5095  1.2675
 8731SOL    HW244186   4.976   3.990   2.000  0.6277 -2.6119 -2.0144
 8732SOL     OW44187   2.882   4.081  12.390 -0.2008 -0.1812 -0.3183
 8732SOL    HW144188   2.899   4.036  12.473  0.2488  0.1238 -0.2387
 8732SOL    HW244189   2.905   4.016  12.323  1.1648  0.1525 -0.2102
 8733SOL     OW44190   5.879  11.039   8.689 -0.5202  0.0946  0.5724
 8733SOL    HW144191   5.883  11.133   8.708  0.4436  0.2543 -0.3308
 8733SOL    HW244192   5.951  11.002   8.741  0.3365  0.1459 -0.5379
 8734SOL     OW44193   5.880   9.428  13.510  0.0749  0.5746 -0.3249
 8734SOL    HW144194   5.951   9.365  13.498 -0.3621  0.5042 -3.1246
 8734SOL    HW244195   5.800   9.375  13.508 -0.3011  1.0844 -2.7258
 8735SOL     OW44196  11.476   1.112   1.739  0.2639 -0.2870  0.3717
 8735SOL    HW144197  11.446   1.064   1.662 -1.3235 -0.9112  1.3245
 8735SOL    HW244198  11.557   1.069   1.765  0.1642 -0.8449 -0.2302
 8736SOL     OW44199   0.705  12.889   6.465  0.3107 -0.3138 -0.1271
 8736SOL    HW144200   0.663  12.803   6.471  0.0091 -0.1673 -0.0979
 8736SOL    HW244201   0.707  12.920   6.556  0.6307 -0.3901 -0.1080
 8737SOL     OW44202   1.769   9.686   5.897  0.1343  0.2511 -0.1758
 8737SOL    HW144203   1.692   9.643   5.859 -1.4372  0.8435  2.0814
 8737SOL    HW244204   1.757   9.779   5.877  1.2014  0.1597 -1.2941
 8738SOL     OW44205  10.630   5.010   0.419 -0.2499  0.2176  0.1689
 8738SOL    HW144206  10.685   4.969   0.353 -0.4606  1.1859 -0.6419
 8738SOL    HW244207  10.690   5.059   0.474 -0.3483  2.8692 -1.8652
 8739SOL     OW44208   8.814   6.169   2.915  0.2307 -0.0383 -0.2588
 8739SOL    HW144209   8.817   6.165   2.819 -0.8275 -2.3033 -0.2566
 8739SOL    HW244210   8.721   6.178   2.936  0.4770  0.6957  0.5647
 8740SOL     OW44211   1.676   8.564   8.211 -0.3604  0.2412 -0.3155
 8740SOL    HW144212   1.682   8.589   8.119  2.8328 -2.0972 -0.9275
 8740SOL    HW244213   1.643   8.474   8.209 -0.0329  0.0800  0.7900
 8741SOL     OW44214  12.375  10.255  14.113 -0.4343 -0.3418 -0.5394
 8741SOL    HW144215  12.383  10.346  14.084  2.4759  0.7195  2.7481
 8741SOL    HW244216  12.299  10.255  14.171 -1.0692 -0.2896 -1.3610
 8742SOL     OW44217   0.371   1.968   0.879  0.2841  0.0889  0.4049
 8742SOL    HW144218   0.403   1.973   0.789  0.2685  1.5195  0.4602
 8742SOL    HW244219   0.325   1.884   0.883 -1.8198  1.0223 -1.6502
 8743SOL     OW44220  11.209   3.496   5.420 -0.1001 -0.9067  0.0657
 8743SOL    HW144221  11.206   3.418   5.365  0.0276  0.0853 -1.4156
 8743SOL    HW244222  11.118   3.524   5.427  0.1223  1.6481 -3.8078
 8744SOL     OW44223  10.256   9.685   0.435  0.3865  0.0205 -0.3580
 8744SOL    HW144224  10.195   9.755   0.458 -2.4347 -2.2003 -0.5494
 8744SOL    HW244225  10.330   9.697   0.494 -0.4151  2.5585  0.2469
 8745SOL     OW44226   4.931   1.123   8.581  0.2413  0.0687  0.1653
 8745SOL    HW144227   4.853   1.075   8.611 -0.0849  0.4430 -0.0654
 8745SOL    HW244228   4.913   1.140   8.488  0.8860 -0.3895 -0.0500
 8746SOL     OW44229   0.547  12.365  11.170 -0.2324 -0.0225  0.4499
 8746SOL    HW144230   0.567  12.290  11.113 -1.3390  0.1706 -0.2089
 8746SOL    HW244231   0.568  12.442  11.117  1.7505  0.1794  1.4295
 8747SOL     OW44232  13.416   3.711  10.405 -0.1065  0.5259  0.0655
 8747SOL    HW144233  13.395   3.764  10.327  0.8290  0.3254 -0.3320
 8747SOL    HW244234  13.506   3.734  10.426  0.5411 -1.3748 -0.4918
 8748SOL     OW44235   1.539  13.715  12.066  0.1781 -0.3545 -0.1378
 8748SOL    HW144236   1.586  13.749  11.990 -0.3297  1.8291  0.4628
 8748SOL    HW244237   1.608  13.693  12.129  0.4869  1.2954  0.1296
 8749SOL     OW44238   8.770   9.816   4.048  0.0485 -0.3304 -1.0999
 8749SOL    HW144239   8.687   9.850   4.079 -0.2330 -1.1911 -0.8941
 8749SOL    HW244240   8.827   9.893   4.042 -0.5949  0.1788 -0.7217
 8750SOL     OW44241   5.538  11.093   4.806 -0.5277  0.2860  0.2935
 8750SOL    HW144242   5.485  11.141   4.742  1.7398  1.1900 -1.0127
 8750SOL    HW244243   5.582  11.025   4.755  1.0212  0.7684  0.9337
 8751SOL     OW44244  14.135   5.884  13.064 -0.7056 -0.6659 -0.1165
 8751SOL    HW144245  14.223   5.865  13.030 -0.0844  3.5390 -1.5209
 8751SOL    HW244246  14.149   5.908  13.156 -0.2460  0.2605 -0.4079
 8752SOL     OW44247   6.931  12.400   9.053  0.1084 -0.4227 -0.2788
 8752SOL    HW144248   6.975  12.318   9.074  0.0422 -0.3410  0.1703
 8752SOL    HW244249   6.989  12.468   9.088 -1.3064 -0.3474  2.1276
 8753SOL     OW44250   5.598  10.785  14.058  0.1349  0.4465 -0.4172
 8753SOL    HW144251   5.540  10.824  13.993 -0.1780 -1.7805 -1.6095
 8753SOL    HW244252   5.563  10.696  14.070  0.5936  0.5693  2.3194
 8754SOL     OW44253   6.594   2.965   9.222  0.2817  0.9596  0.2166
 8754SOL    HW144254   6.679   2.922   9.226 -0.5522 -0.6934  0.8373
 8754SOL    HW244255   6.549   2.923   9.148 -0.3516  1.1298  0.4974
 8755SOL     OW44256  12.516  12.819   2.909 -0.2761  0.2775  0.4663
 8755SOL    HW144257  12.557  12.757   2.969 -0.0787  0.3974  0.4587
 8755SOL    HW244258  12.570  12.813   2.829  0.6397  1.5044  0.9488
 8756SOL     OW44259   5.610  12.943  12.584  0.6768 -0.2612 -0.0154
 8756SOL    HW144260   5.574  13.007  12.523 -0.7053 -2.8326 -2.1060
 8756SOL    HW244261   5.664  12.885  12.529  2.6274 -0.4427  1.9368
 8757SOL     OW44262   4.903  12.144   5.776 -0.2480 -0.2220  0.3925
 8757SOL    HW144263   4.962  12.103   5.840  0.2293 -0.3918 -0.1514
 8757SOL    HW244264   4.937  12.117   5.691  0.4044  1.7328 -0.0206
 8758SOL     OW44265   4.014   7.047   5.850 -0.4240 -0.4960 -0.2188
 8758SOL    HW144266   3.952   7.045   5.923  1.2997 -2.5904  1.2838
 8758SOL    HW244267   4.089   6.996   5.880  1.4274  0.6785 -2.5395
 8759SOL     OW44268   9.631  11.372   0.581 -0.2857 -0.4158 -0.6280
 8759SOL    HW144269   9.570  11.327   0.640 -0.3067  0.5947  0.1506
 8759SOL    HW244270   9.703  11.399   0.638 -0.2048  0.3848 -1.1038
 8760SOL     OW44271  11.001   8.278   8.875  0.1815 -0.0275  0.4427
 8760SOL    HW144272  11.007   8.244   8.786  1.9431 -0.4485  0.6955
 8760SOL    HW244273  10.935   8.223   8.918  2.1800 -2.5316  0.5270
 8761SOL     OW44274   5.491   0.885   0.810  0.0850 -0.9678 -1.0037
 8761SOL    HW144275   5.513   0.977   0.825  0.8096 -1.4521  1.3546
 8761SOL    HW244276   5.532   0.864   0.726  0.4322  0.6927 -1.2854
 8762SOL     OW44277  14.113   4.406   4.661  0.0922 -0.5795 -0.8134
 8762SOL    HW144278  14.059   4.484   4.656 -2.5570 -2.1979  0.1020
 8762SOL    HW244279  14.051   4.333   4.650  2.2454 -2.5747 -0.6062
 8763SOL     OW44280  13.490  13.975   1.557  0.0523 -0.1748  0.1835
 8763SOL    HW144281  13.500  13.966   1.462 -0.1731  0.7688  0.0588
 8763SOL    HW244282  13.442  13.897   1.584  0.7357 -0.7959 -0.3716
 8764SOL     OW44283   1.405  11.096   6.359 -0.2622 -0.1552  0.2285
 8764SOL    HW144284   1.444  11.184   6.364 -0.6418  0.1171 -1.0523
 8764SOL    HW244285   1.476  11.037   6.384 -0.3222  0.5442  2.2408
 8765SOL     OW44286   0.435   0.778   6.401 -0.0427  0.4164  0.2382
 8765SOL    HW144287   0.374   0.774   6.474 -1.4812  0.1795 -0.9311
 8765SOL    HW244288   0.380   0.778   6.323  1.3691  2.4181 -0.8416
 8766SOL     OW44289  10.659   2.417  12.433 -0.7858 -0.3696  0.1461
 8766SOL    HW144290  10.696   2.359  12.365 -0.0094  0.6309 -0.3174
 8766SOL    HW244291  10.607   2.359  12.488  1.3796 -1.8509  0.7450
 8767SOL     OW44292  14.116   3.896   0.073  0.4339  0.0963 -0.0444
 8767SOL    HW144293  14.022   3.902   0.054  0.8486  3.3166 -1.7823
 8767SOL    HW244294  14.138   3.805   0.055 -1.8701 -0.1437 -2.1980
 8768SOL     OW44295   2.186   8.872  10.877 -0.0592  0.3895 -0.0847
 8768SOL    HW144296   2.183   8.861  10.782  1.1727  0.5448 -0.1605
 8768SOL    HW244297   2.122   8.941  10.895 -2.0136 -1.2231 -0.5064
 8769SOL     OW44298  11.233   7.478   3.100  0.3527 -0.4069 -0.0798
 8769SOL    HW144299  11.201   7.396   3.062 -1.3330  0.0712  0.2697
 8769SOL    HW244300  11.192   7.547   3.047 -0.2332  0.2425  1.1967
 8770SOL     OW44301   7.978  10.931   5.375 -0.4765  0.0765  0.7411
 8770SOL    HW144302   8.034  10.903   5.303 -1.7856  0.2941 -0.4036
 8770SOL    HW244303   8.006  10.878   5.449 -1.2642 -2.6113 -0.7330
 8771SOL     OW44304   4.108   3.470   1.473  0.1470 -0.5511 -0.5384
 8771SOL    HW144305   4.118   3.555   1.429  2.3874 -0.2286  0.4440
 8771SOL    HW244306   4.149   3.407   1.413  0.5921 -0.5556 -0.2365
 8772SOL     OW44307  13.085   0.371   4.013 -0.3785  0.0676 -0.1612
 8772SOL    HW144308  13.167   0.397   4.056  1.2643 -0.3270 -2.8529
 8772SOL    HW244309  13.069   0.282   4.044  0.2374  0.1247  0.3394
 8773SOL     OW44310   1.117   2.544   6.247  0.4357  0.2796  0.0134
 8773SOL    HW144311   1.211   2.564   6.244  0.3754  0.9737  1.5287
 8773SOL    HW244312   1.074   2.627   6.226  0.1770  0.2408  0.3753
 8774SOL     OW44313  13.188   0.809   4.365 -0.3138 -0.1821  0.0874
 8774SOL    HW144314  13.174   0.752   4.290 -0.7231  0.2661 -0.1807
 8774SOL    HW244315  13.124   0.879   4.355 -0.1871  0.0314  0.7067
 8775SOL     OW44316   0.288   9.638   2.091 -0.8795 -0.2893 -0.5827
 8775SOL    HW144317   0.354   9.653   2.023 -2.0253  1.2432 -1.4251
 8775SOL    HW244318   0.317   9.691   2.165 -0.6622 -0.4008 -0.5861
 8776SOL     OW44319  13.077   0.956  13.344 -0.9341 -0.0004 -0.3933
 8776SOL    HW144320  13.028   0.884  13.304 -0.7174 -0.6442  0.4790
 8776SOL    HW244321  13.037   1.036  13.308 -1.6839 -0.5404 -0.7694
 8777SOL     OW44322  13.624   1.393  12.001 -0.5125  0.1642  0.0938
 8777SOL    HW144323  13.621   1.357  11.912 -0.1044  0.7213 -0.1509
 8777SOL    HW244324  13.654   1.483  11.989  0.1947  0.0381  0.8559
 8778SOL     OW44325   3.183   0.661   9.430  0.1255  0.1704 -0.5724
 8778SOL    HW144326   3.223   0.657   9.517 -0.0699 -1.8957 -0.5227
 8778SOL    HW244327   3.089   0.653   9.446  0.1940 -3.3628 -0.9799
 8779SOL     OW44328   0.246  11.584  10.675 -0.7149 -0.2182  0.1209
 8779SOL    HW144329   0.224  11.506  10.725  0.7043 -0.0387  1.0927
 8779SOL    HW244330   0.227  11.657  10.734  0.2053  0.0392  0.1221
 8780SOL     OW44331   6.381  11.256   7.488  0.2331 -0.0374  0.1626
 8780SOL    HW144332   6.460  11.235   7.537  1.4826  1.2279 -1.2403
 8780SOL    HW244333   6.359  11.345   7.515 -0.2739 -0.0996 -0.0334
 8781SOL     OW44334  13.983  12.036   1.785 -0.1643 -0.0680 -0.4414
 8781SOL    HW144335  14.009  11.965   1.844 -1.1451 -1.0067 -1.0978
 8781SOL    HW244336  13.913  11.998   1.732 -1.8901  1.9000  0.2919
 8782SOL     OW44337  10.370  12.506   4.033  0.1686 -0.2521 -0.5020
 8782SOL    HW144338  10.395  12.415   4.020 -1.6785 -0.6117 -1.9518
 8782SOL    HW244339  10.367  12.516   4.129  3.3504 -0.7744 -0.2540
 8783SOL     OW44340   5.888   3.106   3.634 -0.7098  0.1751 -0.5267
 8783SOL    HW144341   5.819   3.153   3.587 -0.5619  0.5927 -0.3309
 8783SOL    HW244342   5.882   3.016   3.602 -1.2335  0.2490 -0.6348
 8784SOL     OW44343   1.584  14.111   2.888  0.0955  0.0400  0.0510
 8784SOL    HW144344   1.560  14.038   2.831  0.6018  0.1782 -0.3377
 8784SOL    HW244345   1.635  14.070   2.958 -0.4304 -0.1123  0.3541
 8785SOL     OW44346   2.908   9.752   4.538  0.4618 -0.0741 -0.5411
 8785SOL    HW144347   2.879   9.818   4.476 -2.0989  0.8143  1.4329
 8785SOL    HW244348   2.982   9.792   4.584 -0.0807  0.7985 -0.4222
 8786SOL     OW44349   9.776  12.259  12.843  0.0760 -0.0443  0.3576
 8786SOL    HW144350   9.687  12.294  12.855 -0.3811 -0.8678 -0.5059
 8786SOL    HW244351   9.829  12.307  12.907 -1.0404  0.2629  1.0929
 8787SOL     OW44352   8.206   0.883  11.492 -0.8549 -0.2830  0.0799
 8787SOL    HW144353   8.279   0.838  11.534  0.5447  0.7668 -1.1129
 8787SOL    HW244354   8.144   0.899  11.563  1.4798  1.6089  1.8703
 8788SOL     OW44355   9.444   9.893   6.929  0.1666  0.5612  0.3539
 8788SOL    HW144356   9.520   9.938   6.965 -0.0219  1.0462  0.1441
 8788SOL    HW244357   9.383   9.962   6.905  0.1171  0.2262 -0.5090
 8789SOL     OW44358  14.116   6.265  12.729  0.0170  0.1857  0.0827
 8789SOL    HW144359  14.060   6.219  12.791 -0.2339  1.4778  0.8542
 8789SOL    HW244360  14.075   6.250  12.644  0.5065 -1.8219  0.1363
 8790SOL     OW44361   9.415   5.676  11.403  0.6485  0.1258  0.0977
 8790SOL    HW144362   9.373   5.743  11.456  0.1825  0.2331 -0.3916
 8790SOL    HW244363   9.484   5.723  11.356 -1.9826  1.1975 -3.1074
 8791SOL     OW44364   2.795  11.486   5.920 -0.0795 -0.1049 -0.2816
 8791SOL    HW144365   2.727  11.487   5.988 -0.2011 -3.8259 -0.1237
 8791SOL    HW244366   2.876  11.508   5.966 -0.7568  2.1994 -0.0367
 8792SOL     OW44367  10.153   7.132   3.837 -0.0286  0.2585  0.1937
 8792SOL    HW144368  10.193   7.132   3.750 -0.1945  0.9871  0.1140
 8792SOL    HW244369  10.061   7.153   3.822  0.3191  2.3413  0.6868
 8793SOL     OW44370   3.201  12.412   7.013 -0.3544 -0.4395  0.1255
 8793SOL    HW144371   3.210  12.501   7.047  0.9154 -0.8657  0.9756
 8793SOL    HW244372   3.262  12.360   7.065  3.1563 -0.8934 -3.8779
 8794SOL     OW44373   5.351   4.444   0.400  0.0956 -0.4332 -0.1286
 8794SOL    HW144374   5.442   4.471   0.389  0.1919 -1.2131 -1.4303
 8794SOL    HW244375   5.301   4.526   0.400  0.7996  0.0114  0.7900
 8795SOL     OW44376   1.486   3.567   4.705  0.0694  0.8847  0.6040
 8795SOL    HW144377   1.409   3.511   4.693  1.0095 -0.3052 -0.1552
 8795SOL    HW244378   1.559   3.506   4.713  1.2520  1.9952 -1.1006
 8796SOL     OW44379  12.464  11.155   0.340 -0.6888  0.5326  0.3784
 8796SOL    HW144380  12.518  11.232   0.361 -1.2799  1.5172 -1.5433
 8796SOL    HW244381  12.374  11.185   0.355 -0.8487 -0.4696  1.5971
 8797SOL     OW44382   1.592   2.321  13.381  0.8201  0.0486 -0.4548
 8797SOL    HW144383   1.637   2.356  13.457 -1.1158 -0.4063  0.9821
 8797SOL    HW244384   1.499   2.338  13.398  0.2734 -0.5752 -2.4595
 8798SOL     OW44385  10.986   3.858   7.023 -0.0547 -0.2529 -0.4788
 8798SOL    HW144386  11.075   3.862   7.059  1.3201 -0.0918 -3.4841
 8798SOL    HW244387  10.959   3.767   7.037  1.5543 -0.9267 -1.4158
 8799SOL     OW44388   3.941   9.455   8.844  0.3100  0.2617 -0.8327
 8799SOL    HW144389   3.908   9.366   8.835 -0.7364  0.5403  0.0170
 8799SOL    HW244390   4.023   9.445   8.892  0.4523 -0.2705 -1.1718
 8800SOL     OW44391   3.861   7.394   1.452  0.2527  0.6006 -0.6604
 8800SOL    HW144392   3.947   7.368   1.417  0.0394 -0.5816 -0.3593
 8800SOL    HW244393   3.881   7.437   1.535  0.6165  1.3198 -1.1132
 8801SOL     OW44394  10.374   2.556  12.401  0.2709 -0.7589 -0.0858
 8801SOL    HW144395  10.307   2.610  12.358 -1.0993 -1.3673  1.1641
 8801SOL    HW244396  10.437   2.536  12.333  1.0261  2.6452 -0.5330
 8802SOL     OW44397   9.695   8.892  12.009  0.0564 -0.2312  0.0994
 8802SOL    HW144398   9.604   8.918  12.020 -0.4384 -1.8234 -0.0719
 8802SOL    HW244399   9.744   8.958  12.059 -1.2647 -0.0992  1.2803
 8803SOL     OW44400  10.375   0.732  14.139  0.5976  0.4915  0.4252
 8803SOL    HW144401  10.331   0.814  14.118  0.2045  0.0010 -0.7026
 8803SOL    HW244402  10.305   0.675  14.171  0.9734  0.7873  1.8688
 8804SOL     OW44403  12.070   1.489  10.016 -0.3797 -0.1243  0.3889
 8804SOL    HW144404  12.073   1.543  10.095 -1.8978  2.2167 -1.0055
 8804SOL    HW244405  11.980   1.455  10.014 -0.2885 -0.3409 -0.2108
 8805SOL     OW44406   8.557   3.999   9.939 -0.3649  0.5704  0.0449
 8805SOL    HW144407   8.618   3.984  10.011 -0.5444 -0.2481  0.0276
 8805SOL    HW244408   8.485   3.938   9.955  0.3624 -0.8403 -1.7210
 8806SOL     OW44409  13.487   7.964   9.032 -0.5210 -0.2882 -0.3583
 8806SOL    HW144410  13.393   7.946   9.031 -0.3786 -1.1495 -1.5782
 8806SOL    HW244411  13.494   8.059   9.024 -1.2857 -0.1874  0.1390
 8807SOL     OW44412  12.458   4.572   6.685  0.3996 -0.1712  0.0301
 8807SOL    HW144413  12.381   4.527   6.651 -0.2154 -0.6323  1.9564
 8807SOL    HW244414  12.528   4.547   6.625 -0.7573 -0.4058 -1.2828
 8808SOL     OW44415   4.165   2.079  13.448  0.5276  0.7592 -0.4141
 8808SOL    HW144416   4.239   2.029  13.482  2.2158  2.9300 -0.7321
 8808SOL    HW244417   4.088   2.038  13.489  1.9389 -0.9735  0.6521
 8809SOL     OW44418   1.893   1.638   4.777 -0.1241  0.1806 -0.6341
 8809SOL    HW144419   1.854   1.605   4.859  0.4940 -2.1684 -1.2090
 8809SOL    HW244420   1.974   1.588   4.769 -0.7544 -0.5460 -3.2713
 8810SOL     OW44421   8.641  11.770  11.089 -0.1608  0.4141  0.2461
 8810SOL    HW144422   8.567  11.710  11.094  0.2963 -0.0766  1.4260
 8810SOL    HW244423   8.678  11.755  11.002  0.2714 -1.4351  0.7043
 8811SOL     OW44424   2.988  10.435  13.496 -0.4254 -0.7314 -0.1296
 8811SOL    HW144425   3.067  10.489  13.493 -1.8889  1.5720 -0.2242
 8811SOL    HW244426   2.951  10.441  13.408 -0.3980 -2.2793 -0.2561
 8812SOL     OW44427   9.501   7.235   8.543  0.5947 -0.2310 -0.2764
 8812SOL    HW144428   9.593   7.253   8.559  0.4521  1.5901 -1.3135
 8812SOL    HW244429   9.455   7.314   8.572 -0.7735 -1.4929  1.1937
 8813SOL     OW44430  12.011  11.936   8.453  0.5061  0.3656 -0.3738
 8813SOL    HW144431  11.953  12.010   8.436  1.0846  0.7411 -0.7645
 8813SOL    HW244432  12.017  11.931   8.549 -0.1233  0.3546 -0.3338
 8814SOL     OW44433  10.909   4.837   8.818  0.1153 -0.0130  0.3138
 8814SOL    HW144434  10.974   4.806   8.881  0.4849 -0.7869 -0.4157
 8814SOL    HW244435  10.872   4.916   8.857  1.2457  0.2377  0.9039
 8815SOL     OW44436  12.224  10.072   1.116 -0.0382 -0.1495  0.1980
 8815SOL    HW144437  12.306  10.090   1.162 -0.1885  0.8956  0.0785
 8815SOL    HW244438  12.240   9.991   1.068  1.3916  0.7626 -0.9141
 8816SOL     OW44439  11.886  14.024   7.560  0.0253 -0.0734  0.2548
 8816SOL    HW144440  11.854  14.115   7.561  1.0153  0.2808  0.6420
 8816SOL    HW244441  11.973  14.029   7.599 -0.1483 -1.2971  0.8304
 8817SOL     OW44442   1.302  12.420   0.396  0.8728  0.1595 -0.0387
 8817SOL    HW144443   1.319  12.385   0.484 -0.4408 -0.0924  0.1319
 8817SOL    HW244444   1.327  12.350   0.337 -0.6635 -0.6699  0.2558
 8818SOL     OW44445  13.123   7.699  11.982  0.2087 -0.0940  0.1736
 8818SOL    HW144446  13.032   7.724  11.998 -0.3389 -2.7157  1.6952
 8818SOL    HW244447  13.142   7.731  11.893 -1.3116  2.7125  0.7497
 8819SOL     OW44448   1.100  12.404   5.446  0.0731  0.0809  0.2722
 8819SOL    HW144449   1.179  12.417   5.497  0.8682 -0.0247 -0.8922
 8819SOL    HW244450   1.112  12.318   5.404 -1.8291 -1.1811  2.0977
 8820SOL     OW44451  12.242   9.217   0.095  0.3353 -0.1681 -0.0509
 8820SOL    HW144452  12.261   9.252   0.182  0.9114  0.1308 -0.2949
 8820SOL    HW244453  12.327   9.194   0.059  0.2519  1.1136 -1.1300
 8821SOL     OW44454   3.969  10.303  11.344 -0.1148  0.4033 -0.3670
 8821SOL    HW144455   3.918  10.360  11.286 -0.4928  1.1832  0.6870
 8821SOL    HW244456   3.957  10.215  11.309 -0.9878  0.7620 -1.0036
 8822SOL     OW44457   2.617   1.629   0.230  0.0457 -0.2319 -0.3961
 8822SOL    HW144458   2.709   1.654   0.224 -0.2571  0.7079 -1.5912
 8822SOL    HW244459   2.569   1.703   0.193 -1.2033 -0.6889  0.2309
 8823SOL     OW44460  12.348   8.699   3.047  0.0410 -0.2409 -0.3342
 8823SOL    HW144461  12.329   8.762   2.977  0.5073 -0.5377 -0.7334
 8823SOL    HW244462  12.364   8.616   3.001 -0.9501 -0.7540  0.2037
 8824SOL     OW44463  13.756   9.334  12.101 -0.4683  0.2121 -0.4164
 8824SOL    HW144464  13.684   9.364  12.156 -0.5313  2.3520 -1.5664
 8824SOL    HW244465  13.716   9.313  12.017  0.2859  2.4266 -1.4094
 8825SOL     OW44466  12.293   2.223   4.834 -0.3001 -0.5556  0.1399
 8825SOL    HW144467  12.234   2.193   4.765 -0.9516 -0.3461  0.5996
 8825SOL    HW244468  12.364   2.159   4.835  1.1527  0.7980 -2.5301
 8826SOL     OW44469   2.917   2.147   7.231 -0.1001 -0.1871 -0.0932
 8826SOL    HW144470   3.003   2.173   7.200  0.0644  0.6667  1.0033
 8826SOL    HW244471   2.863   2.226   7.221 -0.0111  0.1692  1.7848
 8827SOL     OW44472   5.541   6.311   2.616 -0.1782  0.2734  0.1297
 8827SOL    HW144473   5.554   6.388   2.671  1.0497 -1.6323  2.6977
 8827SOL    HW244474   5.579   6.335   2.531 -0.5836  2.7277  0.5626
 8828SOL     OW44475   7.238   5.619  11.131 -0.1169 -0.2103 -0.4605
 8828SOL    HW144476   7.223   5.713  11.144 -0.5956 -0.3648  0.1108
 8828SOL    HW244477   7.155   5.578  11.154  0.6419 -0.9310  1.1029
 8829SOL     OW44478   6.913   4.758   2.464 -0.1955 -0.1592 -0.1122
 8829SOL    HW144479   6.831   4.792   2.429 -0.4417 -0.5564  0.0789
 8829SOL    HW244480   6.900   4.664   2.472  0.2592 -0.2194 -0.0295
 8830SOL     OW44481   8.453   6.404  13.851  0.2532  0.3189 -0.5205
 8830SOL    HW144482   8.479   6.339  13.916 -0.5523 -0.8838 -1.3524
 8830SOL    HW244483   8.402   6.468  13.899  1.0625  0.3575  0.3179
 8831SOL     OW44484  11.757   2.758  13.946 -0.1850 -1.0388  0.1982
 8831SOL    HW144485  11.680   2.749  13.889  0.7313 -1.0335 -1.1037
 8831SOL    HW244486  11.807   2.829  13.906  0.3824 -0.8858  1.1642
 8832SOL     OW44487  11.454  11.560   6.510 -0.4825  0.4508  0.3693
 8832SOL    HW144488  11.523  11.498   6.485 -0.5137 -0.4861  2.3942
 8832SOL    HW244489  11.398  11.511   6.570 -1.0068  2.1789  1.3616
 8833SOL     OW44490  11.944   3.292   2.141 -0.4587 -0.8598  0.5634
 8833SOL    HW144491  12.025   3.306   2.190  0.8796 -2.7975 -0.9201
 8833SOL    HW244492  11.928   3.376   2.097  1.0682 -0.5804  0.4829
 8834SOL     OW44493   0.524  12.504   8.591  0.2314 -0.4131  0.7301
 8834SOL    HW144494   0.501  12.412   8.604  0.4676 -0.3778  1.4911
 8834SOL    HW244495   0.529  12.540   8.680 -1.2692  0.6906  0.4152
 8835SOL     OW44496   1.381   9.524  12.873  0.0674  0.1300 -0.2632
 8835SOL    HW144497   1.320   9.457  12.844  0.4176 -0.3212  0.0252
 8835SOL    HW244498   1.431   9.547  12.795  1.3226 -1.4095  0.0215
 8836SOL     OW44499  13.181   8.515   1.779 -0.1971 -0.8934 -0.0357
 8836SOL    HW144500  13.125   8.578   1.733 -0.6623 -0.7691  0.6758
 8836SOL    HW244501  13.189   8.442   1.718  1.4156  0.3572 -1.4084
 8837SOL     OW44502   1.955  10.636   4.402  0.1185 -0.4324 -0.0062
 8837SOL    HW144503   1.925  10.724   4.425  0.6511  0.4594 -2.4571
 8837SOL    HW244504   1.940  10.584   4.481 -2.4019  1.2881  0.7680
 8838SOL     OW44505   0.396   4.802   0.284  0.4289 -0.1780  0.5839
 8838SOL    HW144506   0.479   4.828   0.244  1.2551  0.1074  2.3986
 8838SOL    HW244507   0.403   4.831   0.375 -2.2569  1.1253  0.4506
 8839SOL     OW44508   6.413   4.280  12.885 -0.0282 -0.3045 -0.6252
 8839SOL    HW144509   6.348   4.321  12.828  0.7007  1.0518 -0.5479
 8839SOL    HW244510   6.370   4.274  12.970 -0.7058 -1.2213 -1.0198
 8840SOL     OW44511   3.127  13.594  14.048  0.6281 -0.8554 -0.4163
 8840SOL    HW144512   3.105  13.596  14.141  3.5281  1.2400  0.3802
 8840SOL    HW244513   3.221  13.576  14.047  0.3653 -2.5098 -3.0822
 8841SOL     OW44514   1.247   1.837   9.603  0.3669 -0.1470 -0.0736
 8841SOL    HW144515   1.334   1.848   9.642 -0.0214 -0.6528  0.9450
 8841SOL    HW244516   1.192   1.901   9.647 -0.6238 -2.2445  1.9944
 8842SOL     OW44517   8.132  11.688  12.412 -0.1199  0.2683  0.2291
 8842SOL    HW144518   8.162  11.778  12.425 -0.1248  0.3658 -0.3970
 8842SOL    HW244519   8.211  11.635  12.424 -0.1796  0.3245  0.9138
 8843SOL     OW44520  13.227  14.145   2.913  0.0269  0.3335  0.6680
 8843SOL    HW144521  13.306  14.133   2.859 -0.6884 -0.0369 -0.3205
 8843SOL    HW244522  13.230  14.073   2.975 -0.2169 -0.4762 -0.2388
 8844SOL     OW44523  13.521   0.193   9.717  0.3228  0.3368  0.3698
 8844SOL    HW144524  13.587   0.128   9.741 -0.3175 -0.5688 -0.2378
 8844SOL    HW244525  13.517   0.190   9.621 -0.2504  0.7293  0.3715
 8845SOL     OW44526   4.997   4.855  13.424 -0.3094  0.4874 -0.4002
 8845SOL    HW144527   5.030   4.908  13.496  0.1604  0.0121 -0.2612
 8845SOL    HW244528   5.021   4.905  13.345  1.0413  0.0069 -0.3216
 8846SOL     OW44529   2.558   4.240   2.950 -0.2153  0.4313 -0.2278
 8846SOL    HW144530   2.568   4.234   3.045 -1.9709 -1.7092 -0.0860
 8846SOL    HW244531   2.521   4.327   2.935 -1.2612  0.2788  1.2323
 8847SOL     OW44532  11.277   5.831  13.914  0.5265  0.1267 -0.1398
 8847SOL    HW144533  11.285   5.927  13.912  0.3476  0.1358 -0.5469
 8847SOL    HW244534  11.313   5.803  13.830  1.3754 -0.2334  0.3233
 8848SOL     OW44535  10.900  12.900  10.744  0.2156  0.7631 -0.4902
 8848SOL    HW144536  10.968  12.885  10.678  1.6575 -1.6825  1.3697
 8848SOL    HW244537  10.820  12.866  10.704  0.8659  0.2000 -1.3420
 8849SOL     OW44538   2.163  11.350   3.931  0.0029 -0.2258 -0.0641
 8849SOL    HW144539   2.166  11.446   3.933 -1.5596 -0.1505  0.3066
 8849SOL    HW244540   2.145  11.325   4.021 -0.4940 -0.8142 -0.3207
 8850SOL     OW44541   8.149  12.602   9.576  0.9240 -0.3514  0.1464
 8850SOL    HW144542   8.174  12.690   9.547  0.0308  0.1192  0.7514
 8850SOL    HW244543   8.223  12.547   9.551  1.5855  0.6034 -0.0743
 8851SOL     OW44544  11.211  11.667   5.053  0.2272 -0.2303 -0.0060
 8851SOL    HW144545  11.298  11.652   5.090  0.6543  1.0647 -0.4339
 8851SOL    HW244546  11.225  11.734   4.986 -1.1371  0.1696  0.0858
 8852SOL     OW44547  13.045   9.370   5.604 -0.5007  0.2310 -0.0701
 8852SOL    HW144548  13.062   9.463   5.621 -0.0100 -0.1662  1.8112
 8852SOL    HW244549  13.014   9.335   5.688  1.9912 -1.9019  0.0976
 8853SOL     OW44550   5.646   6.091   0.588  0.0571 -0.4131  0.3869
 8853SOL    HW144551   5.729   6.061   0.627  0.0060 -1.1700 -0.0713
 8853SOL    HW244552   5.636   6.037   0.510 -0.7078 -0.0932  0.2647
 8854SOL     OW44553   6.391   6.425   9.042 -0.0300  0.3763 -0.3491
 8854SOL    HW144554   6.342   6.353   9.081  1.4154 -1.8220 -2.2486
 8854SOL    HW244555   6.479   6.389   9.029  0.5004  2.1584 -2.2611
 8855SOL     OW44556  13.693   2.067   6.451  0.0778  0.1011 -0.2692
 8855SOL    HW144557  13.701   1.983   6.406 -0.0915  0.8450 -1.7363
 8855SOL    HW244558  13.668   2.129   6.383  2.0398  1.7451  0.4039
 8856SOL     OW44559   0.345  14.011   5.836  0.4256  0.0987 -0.0327
 8856SOL    HW144560   0.423  14.004   5.891  1.8011  0.5127 -1.8349
 8856SOL    HW244561   0.326  13.921   5.810  0.3426  0.0056  0.3425
 8857SOL     OW44562   2.928   4.783  11.046 -0.4757  0.3445 -0.8220
 8857SOL    HW144563   2.974   4.710  11.088  2.5211  2.1531 -0.7054
 8857SOL    HW244564   2.930   4.761  10.952  0.1456  0.1215 -0.7617
 8858SOL     OW44565   6.599  10.708  13.687 -0.4271  0.1088  0.2628
 8858SOL    HW144566   6.547  10.669  13.617 -1.0036  2.3794 -0.6645
 8858SOL    HW244567   6.542  10.706  13.763 -1.1212  0.7488 -0.2298
 8859SOL     OW44568   7.461   1.274   1.357  0.6313  0.4833 -0.0438
 8859SOL    HW144569   7.451   1.184   1.325 -1.5111 -0.3110  2.5012
 8859SOL    HW244570   7.473   1.326   1.278 -2.5797 -1.5111 -2.0792
 8860SOL     OW44571   6.504   4.709   5.585 -0.1431 -0.2485 -0.1045
 8860SOL    HW144572   6.421   4.695   5.631 -0.4885 -1.4073 -1.0582
 8860SOL    HW244573   6.544   4.782   5.632 -0.8926 -0.8036  1.4821
 8861SOL     OW44574   1.749   7.171   2.705 -0.2016 -0.2780 -0.5456
 8861SOL    HW144575   1.839   7.197   2.688 -0.1931  0.5281  0.6060
 8861SOL    HW244576   1.751   7.127   2.790 -1.2301  2.1386  0.8384
 8862SOL     OW44577   4.946   0.669   2.712 -0.1437 -0.0692  0.1749
 8862SOL    HW144578   4.910   0.581   2.717  0.1379 -0.2881 -1.1257
 8862SOL    HW244579   4.895   0.711   2.642  0.8142  0.2591 -0.3358
 8863SOL     OW44580  12.678   2.183  13.688 -0.3856 -0.5283  0.2459
 8863SOL    HW144581  12.670   2.100  13.641  1.8945 -0.5784 -0.2098
 8863SOL    HW244582  12.725   2.240  13.627  2.3211 -0.4631  2.2013
 8864SOL     OW44583   8.642   8.211  11.316 -0.2742 -0.5118  0.1497
 8864SOL    HW144584   8.697   8.155  11.260 -0.4353  1.0148 -1.6409
 8864SOL    HW244585   8.560   8.163  11.324  0.0295 -1.1183 -0.2927
 8865SOL     OW44586   7.632  10.220   2.369 -0.5991  0.1083  0.2731
 8865SOL    HW144587   7.538  10.235   2.380 -0.4596  1.9770 -0.6692
 8865SOL    HW244588   7.640  10.186   2.280 -0.5401 -2.2659  1.1140
 8866SOL     OW44589   9.145  13.104   0.216  0.0708  0.2674 -0.5846
 8866SOL    HW144590   9.055  13.077   0.234  0.0215  0.4123 -0.6076
 8866SOL    HW244591   9.183  13.118   0.302  0.3691 -0.7431 -0.5446
 8867SOL     OW44592   9.907  10.206   1.795 -0.3292  0.0916  0.3725
 8867SOL    HW144593   9.812  10.195   1.789 -0.4632  1.7242 -1.5427
 8867SOL    HW244594   9.933  10.235   1.707  2.0619 -1.0302  0.6416
 8868SOL     OW44595   8.388   6.362   4.761  0.5227 -0.5212 -0.0317
 8868SOL    HW144596   8.404   6.384   4.853 -0.0028  0.7287 -0.2128
 8868SOL    HW244597   8.455   6.412   4.713  0.2574 -0.4979 -0.3767
 8869SOL     OW44598   7.932  12.318  10.190 -0.0638  0.4155 -0.9805
 8869SOL    HW144599   7.899  12.291  10.276  2.4822  0.7650  0.1982
 8869SOL    HW244600   7.944  12.235  10.142 -0.3139  0.1221 -0.5449
 8870SOL     OW44601   4.246  10.455  12.631  0.1118 -0.1434  0.0191
 8870SOL    HW144602   4.181  10.523  12.648 -0.4579  0.4070 -3.5124
 8870SOL    HW244603   4.195  10.374  12.622 -0.0563  0.1352 -1.8917
 8871SOL     OW44604   1.294  11.734   4.014 -0.3333  0.5830  0.1083
 8871SOL    HW144605   1.389  11.740   4.024 -0.2837  0.8100 -0.4760
 8871SOL    HW244606   1.281  11.719   3.920 -0.9312  1.7618 -0.0120
 8872SOL     OW44607   2.028  10.439   2.532  0.4194  0.4691 -0.8231
 8872SOL    HW144608   2.107  10.402   2.570  0.7141  0.2567 -1.6170
 8872SOL    HW244609   1.965  10.367   2.531  0.4403  0.4510 -0.8209
 8873SOL     OW44610   4.267   7.376   5.938 -0.3095  0.1192  0.4988
 8873SOL    HW144611   4.243   7.294   5.980 -0.4175 -0.1448 -0.0644
 8873SOL    HW244612   4.201   7.439   5.968 -0.3610 -0.0529  0.7482
 8874SOL     OW44613   7.766   8.304  13.171  0.2607 -0.0931  0.0533
 8874SOL    HW144614   7.854   8.286  13.138  0.3449  0.7190 -0.1992
 8874SOL    HW244615   7.711   8.311  13.092  0.6607  2.9195 -0.1005
 8875SOL     OW44616  14.140   8.871   7.469  0.4562  0.0405  0.0922
 8875SOL    HW144617  14.056   8.839   7.501  0.8869  0.2927  1.5257
 8875SOL    HW244618  14.117   8.942   7.409 -0.3291  1.5577  2.1054
 8876SOL     OW44619  13.425   9.162   9.561 -0.1941 -0.4263 -0.3461
 8876SOL    HW144620  13.373   9.241   9.574 -1.3994 -1.1175 -0.8289
 8876SOL    HW244621  13.444   9.130   9.649 -1.5500 -0.7764 -0.1704
 8877SOL     OW44622  13.875   3.083  10.151  0.0118  0.2014 -0.1228
 8877SOL    HW144623  13.819   3.019  10.105  1.2177 -0.2508 -1.0440
 8877SOL    HW244624  13.869   3.162  10.098 -0.1237  0.3010  0.0420
 8878SOL     OW44625   2.226  13.069  10.432 -0.3291 -0.9040 -0.2336
 8878SOL    HW144626   2.241  13.164  10.426 -0.5807 -0.8366  0.2084
 8878SOL    HW244627   2.150  13.053  10.376 -0.4020 -0.8165 -0.1609
 8879SOL     OW44628  12.493  10.383   0.534  0.3589 -0.1416 -0.4174
 8879SOL    HW144629  12.553  10.321   0.576  1.2245  0.8037 -0.2244
 8879SOL    HW244630  12.544  10.463   0.525 -0.1361 -0.0011 -2.3698
 8880SOL     OW44631   9.185  10.308   6.919 -0.1283 -0.4126  0.5575
 8880SOL    HW144632   9.253  10.348   6.974  0.5012  0.4519 -0.8176
 8880SOL    HW244633   9.215  10.218   6.906  0.5178 -0.1745  0.3607
 8881SOL     OW44634   5.209   1.673  13.823 -0.2954 -0.1238 -0.2607
 8881SOL    HW144635   5.292   1.682  13.777  0.0913  0.9765  0.5977
 8881SOL    HW244636   5.194   1.578  13.828  1.6288 -0.4131  0.7814
 8882SOL     OW44637   3.131  10.875   7.265 -0.0198 -0.0659  0.2641
 8882SOL    HW144638   3.188  10.879   7.342 -1.5241 -1.3609  1.5276
 8882SOL    HW244639   3.061  10.937   7.285 -0.1857 -0.0725 -0.2908
 8883SOL     OW44640   0.497  10.776  11.684  0.1191 -0.0426 -0.0686
 8883SOL    HW144641   0.579  10.822  11.668  1.5777 -1.7076  2.0288
 8883SOL    HW244642   0.488  10.774  11.779 -1.5336 -1.2921 -0.1955
 8884SOL     OW44643  12.135   1.555   3.961  0.3141 -0.5863  0.6431
 8884SOL    HW144644  12.077   1.628   3.984 -0.6833 -0.8022 -0.9755
 8884SOL    HW244645  12.090   1.477   3.995 -0.4933 -0.7739 -0.7855
 8885SOL     OW44646   0.294  10.333   0.241  0.3215  0.1557  0.5525
 8885SOL    HW144647   0.321  10.418   0.207  1.2558 -0.9951 -1.8439
 8885SOL    HW244648   0.210  10.350   0.284 -0.1423  2.0848 -0.9523
 8886SOL     OW44649   6.937   0.700   9.374  0.3102  0.3105 -0.2486
 8886SOL    HW144650   6.873   0.771   9.370  0.1065  0.0826 -2.2893
 8886SOL    HW244651   6.972   0.695   9.285  3.0235  0.2695  0.7294
 8887SOL     OW44652   4.959   5.672   0.133  0.3095 -0.1430  0.1171
 8887SOL    HW144653   5.009   5.666   0.051  1.0909 -1.7942  0.6659
 8887SOL    HW244654   4.872   5.639   0.110  1.0033 -2.2380  0.2633
 8888SOL     OW44655   6.126  10.051   0.182 -0.1233 -0.5596  0.0769
 8888SOL    HW144656   6.035  10.067   0.208 -0.2965 -0.5995 -0.4825
 8888SOL    HW244657   6.149  10.128   0.129  0.4091 -0.2068  0.8176
 8889SOL     OW44658  14.094   9.559  14.016 -0.0142 -0.3136  0.1996
 8889SOL    HW144659  14.183   9.528  14.001 -0.7105 -1.4902 -1.8849
 8889SOL    HW244660  14.098   9.602  14.102  2.6540  0.1630 -0.0780
 8890SOL     OW44661   0.909   9.694  11.168 -0.6721 -0.0423  0.1836
 8890SOL    HW144662   0.899   9.753  11.243 -1.3963 -0.0030  0.0580
 8890SOL    HW244663   0.912   9.607  11.207  0.4403  0.0572  0.3734
 8891SOL     OW44664   3.533   7.979  12.305 -0.5469  0.3739 -0.5403
 8891SOL    HW144665   3.595   8.007  12.237 -0.6482 -0.0352 -0.8075
 8891SOL    HW244666   3.505   8.060  12.347 -0.1710  0.5975 -0.7198
 8892SOL     OW44667  10.970   8.221   4.908  0.1549  0.4665 -0.7043
 8892SOL    HW144668  11.052   8.204   4.954 -0.2355 -1.2010 -0.5316
 8892SOL    HW244669  10.940   8.305   4.942  0.3302 -0.2654  1.4333
 8893SOL     OW44670   2.614  11.687   9.474 -0.2711 -0.5867  0.1983
 8893SOL    HW144671   2.638  11.660   9.562  1.3214  1.8968  0.6197
 8893SOL    HW244672   2.684  11.654   9.418  0.9385  1.2941  0.5187
 8894SOL     OW44673  10.381   6.941   4.252 -0.2044 -0.4571  0.8829
 8894SOL    HW144674  10.298   6.964   4.210  1.1006  0.9764 -1.0832
 8894SOL    HW244675  10.438   7.016   4.235  1.2516 -1.0145  2.9660
 8895SOL     OW44676   5.480   5.699   8.023 -0.4482  0.1966 -0.4462
 8895SOL    HW144677   5.530   5.727   7.947  0.4123 -0.2185 -0.0521
 8895SOL    HW244678   5.389   5.721   8.002 -0.0451  1.4871 -0.9461
 8896SOL     OW44679   9.730   3.134   0.111 -0.4441  0.1566  0.2865
 8896SOL    HW144680   9.790   3.174   0.048 -0.7154  2.1002  1.1891
 8896SOL    HW244681   9.648   3.122   0.063 -0.3586  0.7146  0.0033
 8897SOL     OW44682   4.937   1.252   8.269  0.4379  0.7558 -0.2271
 8897SOL    HW144683   4.951   1.167   8.226  1.2621  0.8326 -0.1195
 8897SOL    HW244684   4.843   1.253   8.288  0.1284  0.5371 -1.6363
 8898SOL     OW44685  12.204  10.808   2.659 -0.0427  0.2831 -0.3121
 8898SOL    HW144686  12.143  10.875   2.628 -0.8549  0.7364  2.0568
 8898SOL    HW244687  12.290  10.843   2.638 -0.4767  1.8094  0.3063
 8899SOL     OW44688  10.761   9.507   2.390  0.0477 -0.1448 -0.2329
 8899SOL    HW144689  10.716   9.438   2.341  1.0760 -0.2678 -1.0477
 8899SOL    HW244690  10.852   9.478   2.395  0.5826  1.3069 -0.9246
 8900SOL     OW44691   0.200  11.643   6.218 -0.5002  0.1903  0.1583
 8900SOL    HW144692   0.180  11.570   6.276  1.1026 -0.7857 -0.4577
 8900SOL    HW244693   0.260  11.607   6.154 -0.6741  1.7484 -0.9349
 8901SOL     OW44694  10.418   9.226   2.124  0.0753  0.0705 -0.0684
 8901SOL    HW144695  10.359   9.301   2.117 -0.6505 -0.2880  1.5492
 8901SOL    HW244696  10.361   9.154   2.151  0.8795 -0.8886 -0.8716
 8902SOL     OW44697  12.297  12.848   3.818 -0.5405 -0.2979  0.4399
 8902SOL    HW144698  12.281  12.808   3.733 -1.6461 -0.6752  0.7932
 8902SOL    HW244699  12.281  12.777   3.881 -1.2924  0.3592  1.0190
 8903SOL     OW44700   3.056  11.178  13.116  0.3477 -0.5099  0.1148
 8903SOL    HW144701   3.048  11.098  13.169 -0.5712  0.0181  0.8092
 8903SOL    HW244702   3.127  11.226  13.157 -0.1400 -0.2581  0.6940
 8904SOL     OW44703   9.975   0.364   7.686 -0.0368 -0.5556 -0.1569
 8904SOL    HW144704  10.058   0.406   7.711  0.0305 -0.6325 -0.2519
 8904SOL    HW244705   9.988   0.337   7.596 -0.2423 -0.3796 -0.2415
 8905SOL     OW44706   7.360   5.960   5.418  0.5699 -0.3737  0.0487
 8905SOL    HW144707   7.268   5.944   5.394  1.0460 -2.2632 -0.7575
 8905SOL    HW244708   7.360   5.963   5.513 -0.5559  1.4252  0.0334
 8906SOL     OW44709  12.010  12.277   6.004  0.2848 -0.1448 -0.5728
 8906SOL    HW144710  11.967  12.204   6.049  1.3411 -0.0507  0.6542
 8906SOL    HW244711  12.104  12.263   6.020  0.4765  1.7822  0.1732
 8907SOL     OW44712  11.660   7.279  10.330  0.1139 -0.3249  0.1669
 8907SOL    HW144713  11.651   7.206  10.390  0.1603 -2.2020 -1.9578
 8907SOL    HW244714  11.573   7.288  10.291  1.0397 -2.1948 -2.6522
 8908SOL     OW44715   3.814   9.092   0.584  0.4881 -0.2873 -0.2926
 8908SOL    HW144716   3.762   9.160   0.539  1.6422 -0.1736 -1.5341
 8908SOL    HW244717   3.900   9.096   0.541  0.6471 -2.4056 -0.2709
 8909SOL     OW44718  10.881   6.409   9.199  0.2466  0.3182 -0.5692
 8909SOL    HW144719  10.828   6.472   9.248 -0.6705 -0.5406 -0.4165
 8909SOL    HW244720  10.823   6.377   9.130  1.5345  1.5379 -2.2978
 8910SOL     OW44721   5.997   1.193  11.885 -0.7973 -0.4054  0.4219
 8910SOL    HW144722   6.042   1.269  11.849 -0.0722 -1.6317 -1.3957
 8910SOL    HW244723   5.911   1.194  11.843 -0.7637 -0.6321  0.3487
 8911SOL     OW44724   6.194   6.711   3.825  0.4116  0.2633  0.2205
 8911SOL    HW144725   6.277   6.756   3.809  0.9927 -1.6447 -2.9190
 8911SOL    HW244726   6.220   6.628   3.866  0.1716 -0.5331 -1.1760
 8912SOL     OW44727   5.342  10.717  13.421  0.5534  0.2010  0.5297
 8912SOL    HW144728   5.252  10.685  13.429  0.2554  0.7640 -0.4479
 8912SOL    HW244729   5.389  10.647  13.375 -0.2077  1.2740 -2.0398
 8913SOL     OW44730   0.592  12.969   3.264  0.3037  0.0619 -0.1788
 8913SOL    HW144731   0.600  12.921   3.346  0.0712 -2.4274 -1.5244
 8913SOL    HW244732   0.503  13.005   3.265  0.5143  0.6031  0.8839
 8914SOL     OW44733   5.230   2.302   1.205  0.2079 -0.6048  0.2661
 8914SOL    HW144734   5.195   2.237   1.143 -1.2054 -0.3612  0.7649
 8914SOL    HW244735   5.184   2.283   1.287 -1.3992  1.9323  0.0542
 8915SOL     OW44736  12.499   1.476  13.477  0.6057 -0.1750  0.3503
 8915SOL    HW144737  12.485   1.459  13.570  1.5728  2.5814  1.0740
 8915SOL    HW244738  12.588   1.445  13.460 -0.5539 -3.4923 -0.5245
 8916SOL     OW44739   9.005  12.999  10.420  0.8605 -0.0752  0.1257
 8916SOL    HW144740   8.975  12.916  10.458 -0.2284  0.6525  0.9440
 8916SOL    HW244741   8.970  12.999  10.331 -2.6218  1.1497  1.3278
 8917SOL     OW44742   1.660   8.686   5.607  0.0770  0.3690  0.6192
 8917SOL    HW144743   1.687   8.626   5.538 -1.5540 -0.5044  0.6583
 8917SOL    HW244744   1.737   8.739   5.626  1.0150 -0.4496 -0.7478
 8918SOL     OW44745  10.294   9.898   5.264  0.1555  0.0281  0.0022
 8918SOL    HW144746  10.223   9.932   5.210  0.0819 -0.0409  0.0563
 8918SOL    HW244747  10.253   9.879   5.349  0.5188  1.2974  0.4831
 8919SOL     OW44748  11.196   1.019   0.229  0.5696 -0.2101  0.1738
 8919SOL    HW144749  11.207   0.955   0.159 -1.0918 -1.2297  0.8014
 8919SOL    HW244750  11.133   1.082   0.194  0.0609 -0.4847  0.5936
 8920SOL     OW44751  10.644   0.975   2.032  0.7134  0.0729 -0.1470
 8920SOL    HW144752  10.659   0.923   2.111  0.5000  0.8581  0.4299
 8920SOL    HW244753  10.720   0.958   1.977  3.2854  2.8966  2.1306
 8921SOL     OW44754  12.082   0.999  10.066 -0.1341  0.2371 -0.0715
 8921SOL    HW144755  12.075   1.091  10.091  1.9370  0.2913  0.4723
 8921SOL    HW244756  12.142   0.961  10.130 -1.2948 -1.6170 -0.0163
 8922SOL     OW44757   9.930  12.427   7.531  0.7133  0.4782  0.8539
 8922SOL    HW144758   9.866  12.487   7.569 -0.1379  0.3309 -0.3127
 8922SOL    HW244759   9.958  12.469   7.450  0.1093 -0.6758  0.0214
 8923SOL     OW44760   0.435   6.898   5.808  0.2144  0.2522  0.1769
 8923SOL    HW144761   0.396   6.919   5.723 -0.7074 -1.1831  0.2281
 8923SOL    HW244762   0.456   6.805   5.803 -3.0033 -0.7976  2.6615
 8924SOL     OW44763  12.650  12.403  11.866  0.1477 -0.5632 -0.4536
 8924SOL    HW144764  12.587  12.332  11.871 -0.0840 -0.2795  1.3112
 8924SOL    HW244765  12.735  12.360  11.860  0.1765 -1.1238  2.3848
 8925SOL     OW44766  11.858   7.577  11.561  0.4033  0.0198 -0.1561
 8925SOL    HW144767  11.784   7.625  11.525 -2.1491 -1.4488  2.6870
 8925SOL    HW244768  11.896   7.636  11.625  1.4159  0.5418 -1.1904
 8926SOL     OW44769  13.042   1.867   3.679 -0.3584  0.0070  0.5845
 8926SOL    HW144770  13.061   1.786   3.632  0.4271 -0.1089  1.0783
 8926SOL    HW244771  12.957   1.895   3.646  0.2728  0.0775 -1.1364
 8927SOL     OW44772   6.890   8.671   8.363  0.0996  0.7606  0.3066
 8927SOL    HW144773   6.865   8.580   8.346  1.1899  0.4735  0.1527
 8927SOL    HW244774   6.893   8.712   8.276  2.2574  0.2042  0.0508
 8928SOL     OW44775   6.375   4.978   4.522  1.0262 -0.2905  0.7252
 8928SOL    HW144776   6.306   4.991   4.457  2.8603 -1.3473 -1.5394
 8928SOL    HW244777   6.395   5.067   4.553 -0.0964  0.2084  0.0752
 8929SOL     OW44778  10.306   0.169   2.545 -0.2026 -0.5082  0.9673
 8929SOL    HW144779  10.339   0.223   2.616 -1.8280  1.1595  0.5407
 8929SOL    HW244780  10.211   0.171   2.556 -0.3689 -2.4552  0.3012
 8930SOL     OW44781   5.745  12.936  11.620  0.0354  0.2319 -0.0438
 8930SOL    HW144782   5.779  13.026  11.625 -0.3233  0.3145  1.5215
 8930SOL    HW244783   5.650  12.948  11.617  0.0143 -0.0882 -0.9989
 8931SOL     OW44784  12.192  13.116   0.875 -0.0554 -0.4223 -0.1878
 8931SOL    HW144785  12.211  13.024   0.857  1.3741 -0.1956  0.0098
 8931SOL    HW244786  12.249  13.138   0.948 -1.3653  0.2838  0.6376
 8932SOL     OW44787   9.799   7.821  10.121  0.0361 -0.1633  0.3153
 8932SOL    HW144788   9.714   7.816  10.077 -0.0900 -0.8585  0.6196
 8932SOL    HW244789   9.783   7.784  10.208  0.4817  0.3907  0.6364
 8933SOL     OW44790   2.310   7.650   3.217 -0.5596 -0.2920 -0.0730
 8933SOL    HW144791   2.394   7.689   3.195  0.3369 -2.3587 -0.5081
 8933SOL    HW244792   2.265   7.640   3.134 -0.7336 -0.2873  0.0194
 8934SOL     OW44793   0.074   4.259  12.831  0.0054 -0.2129  0.0458
 8934SOL    HW144794   0.120   4.202  12.770  1.6751 -0.8466  1.7740
 8934SOL    HW244795   0.144   4.304  12.878 -1.2414  1.1788  0.6464
 8935SOL     OW44796  13.644   5.676   8.312 -0.0693  0.5287  0.1620
 8935SOL    HW144797  13.680   5.724   8.237 -0.3833  0.3682 -0.0963
 8935SOL    HW244798  13.632   5.742   8.380 -0.2088  0.7571 -0.0841
 8936SOL     OW44799  11.643   2.673   0.344  0.6903 -0.0512 -0.0383
 8936SOL    HW144800  11.652   2.659   0.249  0.3469 -0.4284 -0.0189
 8936SOL    HW244801  11.646   2.584   0.381 -1.5752 -0.1378  0.0947
 8937SOL     OW44802   2.931   0.489   2.203 -0.1500 -0.2707  0.0335
 8937SOL    HW144803   2.966   0.459   2.287  1.3352  1.4092  0.0820
 8937SOL    HW244804   2.942   0.584   2.206 -0.5162 -0.1397 -1.8650
 8938SOL     OW44805   5.710   4.138  13.644  0.4309 -0.4998 -0.0915
 8938SOL    HW144806   5.654   4.066  13.616 -0.7382  0.7103 -1.0506
 8938SOL    HW244807   5.797   4.117  13.609 -0.5251 -0.0544 -3.0272
 8939SOL     OW44808   4.571  13.533   5.473  0.5963 -0.1458  0.2148
 8939SOL    HW144809   4.489  13.576   5.451  0.5971  0.1431  0.7614
 8939SOL    HW244810   4.551  13.439   5.471  0.0767 -0.0612  1.0041
 8940SOL     OW44811   9.317   7.123   9.806  0.4730  0.9545 -0.2927
 8940SOL    HW144812   9.336   7.050   9.865 -0.2925  1.6688  0.8584
 8940SOL    HW244813   9.224   7.116   9.788  0.3805  1.6927 -0.1246
 8941SOL     OW44814   9.227   0.686   5.987  0.4041  0.1988 -0.3679
 8941SOL    HW144815   9.205   0.667   6.078  2.9561 -0.9170  0.0894
 8941SOL    HW244816   9.145   0.720   5.950 -0.3183  2.3062  2.7170
 8942SOL     OW44817   6.369  13.273   2.315  0.1021  0.0515 -0.4938
 8942SOL    HW144818   6.339  13.301   2.229  0.2081 -0.8060 -0.8199
 8942SOL    HW244819   6.297  13.222   2.351  0.7235 -1.0800 -0.8184
 8943SOL     OW44820   9.202   7.846  12.874  0.0978 -0.3218  0.4460
 8943SOL    HW144821   9.181   7.754  12.860  1.2527 -0.6438  0.6991
 8943SOL    HW244822   9.122   7.893  12.850 -0.7369 -1.4275  0.9816
 8944SOL     OW44823   6.501   2.622  13.664  0.4387  0.7206  0.5004
 8944SOL    HW144824   6.509   2.618  13.569 -0.8579  0.7849  0.3620
 8944SOL    HW244825   6.443   2.549  13.686 -0.1171  1.3284  1.1146
 8945SOL     OW44826   2.277  13.260   2.565  0.2146  0.2596  0.0204
 8945SOL    HW144827   2.333  13.207   2.621 -2.3166 -1.5831  1.0480
 8945SOL    HW244828   2.330  13.337   2.542  2.9699 -1.2022  1.0543
 8946SOL     OW44829  12.163   4.073  10.967 -0.0365 -1.0475  0.0232
 8946SOL    HW144830  12.099   4.059  11.037 -0.8005  1.2179 -0.1196
 8946SOL    HW244831  12.127   4.025  10.892 -0.8174 -1.0077  0.3616
 8947SOL     OW44832   4.170   0.234   4.058  0.9076  0.3095 -0.1439
 8947SOL    HW144833   4.143   0.295   4.127 -2.4044 -0.2190 -0.8139
 8947SOL    HW244834   4.130   0.150   4.084  0.9686 -0.2865 -1.8739
 8948SOL     OW44835   5.818   3.537   6.872 -0.0142 -0.2255 -0.1432
 8948SOL    HW144836   5.749   3.541   6.806 -0.2377  0.8394  0.1289
 8948SOL    HW244837   5.784   3.589   6.945 -0.2526 -2.2569  1.2811
 8949SOL     OW44838   4.973   1.457   0.027 -0.3303  0.1209  0.1213
 8949SOL    HW144839   5.036   1.529   0.013  0.1725 -0.2445  0.4551
 8949SOL    HW244840   4.968   1.413  -0.058  2.2305 -1.7053  0.7822
 8950SOL     OW44841   2.180   2.144   1.859  0.0932  0.5749  0.3072
 8950SOL    HW144842   2.155   2.198   1.934 -1.9779  0.3976 -0.1826
 8950SOL    HW244843   2.240   2.199   1.808 -0.7494  1.8325  0.6257
 8951SOL     OW44844   9.948  11.497   5.614 -0.2391  0.4748  0.5411
 8951SOL    HW144845  10.013  11.565   5.595  1.1214 -1.2622 -1.4307
 8951SOL    HW244846   9.976  11.460   5.698  2.2396 -1.1337 -0.8833
 8952SOL     OW44847   2.207   7.924   4.295  0.2418 -0.2817  0.7382
 8952SOL    HW144848   2.184   8.008   4.255 -1.5774 -1.2858 -0.4407
 8952SOL    HW244849   2.287   7.898   4.249 -0.4703 -0.2610 -0.5761
 8953SOL     OW44850   5.971   7.262   0.025 -0.3878  0.5633  0.4049
 8953SOL    HW144851   5.913   7.204   0.075 -0.9134  0.8080  0.0877
 8953SOL    HW244852   6.047   7.273   0.082 -0.8372  0.5848  1.0196
 8954SOL     OW44853   7.877  12.714   1.042  0.0002  0.5538  0.3844
 8954SOL    HW144854   7.940  12.678   0.980  0.3654  0.3401  0.8716
 8954SOL    HW244855   7.817  12.642   1.061 -1.0358  1.0427 -0.8682
 8955SOL     OW44856   9.000   8.619  11.400 -0.2522  0.7241  0.3165
 8955SOL    HW144857   8.987   8.672  11.321 -1.4473 -0.5823 -0.4044
 8955SOL    HW244858   8.943   8.659  11.465  0.3671  1.5162  0.3865
 8956SOL     OW44859  12.197   7.388  12.047 -0.2244  0.8235  0.1760
 8956SOL    HW144860  12.152   7.473  12.048 -0.2749  0.7975  1.7850
 8956SOL    HW244861  12.137   7.329  12.092  0.8924  0.5112  1.2914
 8957SOL     OW44862   4.545   0.324   0.454  0.1936  0.3180 -0.3680
 8957SOL    HW144863   4.534   0.365   0.540 -1.8285 -1.1762  0.1827
 8957SOL    HW244864   4.462   0.341   0.409  0.4629 -0.6192 -1.2600
 8958SOL     OW44865   3.645  12.433  10.061 -0.2174 -0.1117  0.0884
 8958SOL    HW144866   3.654  12.340  10.041 -2.8461 -0.3978 -0.1771
 8958SOL    HW244867   3.571  12.437  10.122 -0.5436  1.8622 -0.3800
 8959SOL     OW44868   6.549   3.710   7.958 -0.5725  0.0985  0.3000
 8959SOL    HW144869   6.609   3.678   7.891  0.8859  0.4714  1.3825
 8959SOL    HW244870   6.513   3.631   7.998  0.1201 -0.1516  0.4404
 8960SOL     OW44871   8.231   7.671  11.015 -0.7090  0.1981 -0.8499
 8960SOL    HW144872   8.161   7.640  11.073 -0.1358 -2.0488 -1.2377
 8960SOL    HW244873   8.186   7.693  10.933 -0.9852 -1.5097 -1.1979
 8961SOL     OW44874  12.436   9.906   7.053 -0.8262 -0.1356  0.0120
 8961SOL    HW144875  12.438   9.826   7.001 -2.4324 -0.5069  0.4780
 8961SOL    HW244876  12.380   9.966   7.004  1.8583  1.4692 -1.3094
 8962SOL     OW44877   6.859   0.012   8.422  0.0425 -0.0175  0.0066
 8962SOL    HW144878   6.778   0.055   8.393  0.1234  0.3297  0.2898
 8962SOL    HW244879   6.897   0.073   8.486 -0.0051 -0.6515  0.6497
 8963SOL     OW44880  11.762  10.431   3.781 -0.0978 -0.5882 -0.3679
 8963SOL    HW144881  11.695  10.450   3.715 -0.0219  0.9055 -0.0618
 8963SOL    HW244882  11.715  10.384   3.850 -0.8588  0.4142 -0.1676
 8964SOL     OW44883   3.457  11.654   3.756  0.1277  0.3416  0.1935
 8964SOL    HW144884   3.482  11.724   3.696  0.3558 -0.2375 -0.4074
 8964SOL    HW244885   3.518  11.661   3.829  0.2081  0.7082  0.0919
 8965SOL     OW44886   0.310   1.445  13.621 -0.7118 -1.2231 -0.2344
 8965SOL    HW144887   0.349   1.520  13.577 -0.3033 -0.2798  1.6551
 8965SOL    HW244888   0.216   1.462  13.619 -0.7766 -1.6221 -1.4487
 8966SOL     OW44889  13.330   9.028  10.747  0.5837 -0.5393  0.4921
 8966SOL    HW144890  13.295   8.944  10.716 -1.0010 -0.2990  1.4551
 8966SOL    HW244891  13.412   9.005  10.791  0.9073 -1.3725 -0.5018
 8967SOL     OW44892   1.497   5.871  11.068 -0.3817  0.6465  0.2134
 8967SOL    HW144893   1.557   5.906  11.133 -1.1373  0.8363  0.8179
 8967SOL    HW244894   1.513   5.924  10.990 -0.5310  1.4148  0.6982
 8968SOL     OW44895   8.268   1.933  14.070 -0.0119 -0.2894  0.0978
 8968SOL    HW144896   8.355   1.946  14.034 -0.4253 -0.2751 -0.9337
 8968SOL    HW244897   8.266   1.989  14.148  0.6671  0.2471 -0.2524
 8969SOL     OW44898   0.085   2.982   2.138 -0.4414 -0.2485  0.2170
 8969SOL    HW144899   0.159   3.003   2.081 -0.9727 -1.4067 -0.9474
 8969SOL    HW244900   0.106   3.025   2.221  2.7729 -2.5897  0.8109
 8970SOL     OW44901   7.998   6.752   5.434  0.2258  0.3312 -0.1797
 8970SOL    HW144902   7.947   6.699   5.495  1.4745 -1.2073 -0.4218
 8970SOL    HW244903   7.932   6.803   5.386 -0.9282 -0.1088  0.8819
 8971SOL     OW44904   1.512   2.893   9.616  0.7766 -0.2510  0.4440
 8971SOL    HW144905   1.461   2.822   9.654  0.1318  0.2092  0.4630
 8971SOL    HW244906   1.448   2.945   9.567  1.1702  0.4968  0.6958
 8972SOL     OW44907   3.951   6.329   9.335  0.7260  0.4247 -0.1123
 8972SOL    HW144908   4.022   6.300   9.278  1.1092  0.3458  0.3986
 8972SOL    HW244909   3.993   6.347   9.419 -0.0605 -0.9018  0.6017
 8973SOL     OW44910   5.952   6.598   7.967 -0.6408 -0.3819 -0.2026
 8973SOL    HW144911   5.999   6.600   7.884 -0.8639 -0.1216 -0.3230
 8973SOL    HW244912   5.887   6.668   7.960  0.3894  0.7228  0.8113
 8974SOL     OW44913  12.787   5.675   6.866  0.2308 -0.1476 -0.0616
 8974SOL    HW144914  12.786   5.610   6.936  1.4788 -0.4741 -0.3170
 8974SOL    HW244915  12.857   5.735   6.890 -0.2962  0.5728 -0.3030
 8975SOL     OW44916   5.554  11.332   0.314  0.2519 -0.0363  0.0865
 8975SOL    HW144917   5.460  11.344   0.297  0.2103  2.4981  1.5260
 8975SOL    HW244918   5.557  11.281   0.395  0.0168  1.1004  0.8423
 8976SOL     OW44919   3.370   6.636   5.358 -0.1428 -0.0602 -0.3503
 8976SOL    HW144920   3.292   6.613   5.307 -0.9518 -1.1450  1.2795
 8976SOL    HW244921   3.364   6.731   5.368 -1.1393 -0.0953 -0.4742
 8977SOL     OW44922   3.394   7.862  12.665 -0.1573 -0.5599 -0.3927
 8977SOL    HW144923   3.347   7.820  12.592  0.0541 -0.9915 -0.2860
 8977SOL    HW244924   3.475   7.894  12.625 -0.0945 -0.6918 -0.3695
 8978SOL     OW44925   1.639   9.512   5.731 -0.1138  0.1259 -0.3967
 8978SOL    HW144926   1.549   9.485   5.745  0.2655 -1.0411 -0.0640
 8978SOL    HW244927   1.658   9.489   5.640  0.2371 -0.8553 -0.0874
 8979SOL     OW44928   6.114   9.630   1.304 -0.2946 -0.5917  0.5104
 8979SOL    HW144929   6.079   9.714   1.277  0.7146 -0.2739  0.1337
 8979SOL    HW244930   6.042   9.587   1.350  0.2740  2.1691  4.5002
 8980SOL     OW44931   4.117   8.381  12.474  0.7361  0.6385 -0.5293
 8980SOL    HW144932   4.074   8.397  12.558 -0.4794 -1.0747 -0.7648
 8980SOL    HW244933   4.201   8.342  12.497  0.3782  0.1051 -0.0700
 8981SOL     OW44934   5.757  10.110   9.147 -0.7670  0.4351  0.2728
 8981SOL    HW144935   5.730  10.184   9.094 -0.3128  0.3450 -0.0909
 8981SOL    HW244936   5.791  10.150   9.228  2.9457  0.9447 -1.3330
 8982SOL     OW44937   7.997  13.711   1.525  0.3100 -0.4466  0.4460
 8982SOL    HW144938   8.025  13.791   1.568 -2.4744 -0.1844  1.9661
 8982SOL    HW244939   7.979  13.738   1.434  2.3427 -0.1173  0.0895
 8983SOL     OW44940   5.589   9.300   5.324  0.1639  0.0601 -0.3322
 8983SOL    HW144941   5.614   9.299   5.417 -3.3291  0.2289  0.7663
 8983SOL    HW244942   5.614   9.387   5.293  1.6504 -0.1048  0.3327
 8984SOL     OW44943   3.676  13.743   0.841  0.2785  0.1354 -0.0205
 8984SOL    HW144944   3.756  13.692   0.839  0.6402  0.6991 -0.5169
 8984SOL    HW244945   3.607  13.681   0.816  0.8449  0.1033 -1.6562
 8985SOL     OW44946   4.202   1.946   7.602 -0.0883 -0.5292 -0.1659
 8985SOL    HW144947   4.169   2.030   7.633  0.3102 -1.5950  3.6963
 8985SOL    HW244948   4.294   1.945   7.627  0.0333 -1.9398 -0.5527
 8986SOL     OW44949  11.530   7.893  12.613  0.2450  0.4018  0.3443
 8986SOL    HW144950  11.615   7.928  12.639 -0.0347  1.0752  0.3643
 8986SOL    HW244951  11.477   7.898  12.692 -0.4031  1.8175 -0.1538
 8987SOL     OW44952   5.301  12.144   0.456 -0.6700 -0.1745 -0.5275
 8987SOL    HW144953   5.381  12.091   0.449 -1.1178 -1.2566  1.7958
 8987SOL    HW244954   5.333  12.233   0.472  0.0666 -0.4892 -0.2021
 8988SOL     OW44955   0.344   1.844   7.610 -0.2606 -0.6446  0.4787
 8988SOL    HW144956   0.421   1.899   7.628  0.1725 -0.7471 -0.9629
 8988SOL    HW244957   0.269   1.901   7.632  0.1705  0.7052 -1.3576
 8989SOL     OW44958  12.354   8.690   0.708 -0.0386  0.5441  0.6318
 8989SOL    HW144959  12.401   8.661   0.629 -1.5667 -2.1742  0.5804
 8989SOL    HW244960  12.264   8.702   0.678  0.0883  3.3887  1.2074
 8990SOL     OW44961   0.894   5.380  11.431  0.1523  0.3820  0.4701
 8990SOL    HW144962   0.815   5.327  11.422 -0.3300  1.0923  0.5030
 8990SOL    HW244963   0.963   5.316  11.449 -0.9361 -0.0781  3.8580
 8991SOL     OW44964  11.230  10.916   9.089  0.0163 -0.2991  0.4826
 8991SOL    HW144965  11.219  10.907   8.994 -0.0050  2.0707  0.1850
 8991SOL    HW244966  11.143  10.939   9.121  0.2518  0.0425  0.8866
 8992SOL     OW44967   5.053   4.317  12.404  0.1937 -0.2788 -0.5528
 8992SOL    HW144968   5.121   4.275  12.352  0.6756 -2.2366  1.4816
 8992SOL    HW244969   5.098   4.391  12.446 -0.0828  1.0160 -2.4256
 8993SOL     OW44970  10.817   8.942   5.516  0.8248 -0.1252 -0.5557
 8993SOL    HW144971  10.867   8.978   5.589 -0.7319  1.0227  0.0258
 8993SOL    HW244972  10.729   8.930   5.552  0.8658 -3.0512 -1.2350
 8994SOL     OW44973   6.287  13.130   6.497 -0.0466 -0.3476  0.2489
 8994SOL    HW144974   6.318  13.156   6.583  1.7079 -2.5485  0.3945
 8994SOL    HW244975   6.366  13.112   6.447 -1.0288 -1.8594 -0.8815
 8995SOL     OW44976   4.361  10.591   0.324 -0.1118  0.0079  0.1683
 8995SOL    HW144977   4.276  10.620   0.290 -0.2669 -0.2340  0.3482
 8995SOL    HW244978   4.425  10.642   0.273 -0.3607  0.1627  0.0038
 8996SOL     OW44979   2.662   7.572   6.434 -0.4032 -0.4042  0.0917
 8996SOL    HW144980   2.718   7.505   6.393 -0.0517  0.0704 -0.2217
 8996SOL    HW244981   2.677   7.561   6.528  0.0390 -0.4381  0.0218
 8997SOL     OW44982  10.641   0.926   5.026  0.0686  0.4398  0.5077
 8997SOL    HW144983  10.598   0.971   5.098 -1.1042  0.5434 -0.2388
 8997SOL    HW244984  10.571   0.903   4.966  0.7878 -1.3527  0.2986
 8998SOL     OW44985  10.064  13.620   2.704  0.1904 -0.0467  0.1175
 8998SOL    HW144986  10.052  13.532   2.669 -2.3216  0.0970  0.4733
 8998SOL    HW244987  10.026  13.678   2.638  0.6612  0.6846  0.4658
 8999SOL     OW44988  13.220   8.930  13.607  0.4875 -0.4518  0.1626
 8999SOL    HW144989  13.262   8.885  13.534 -0.7438  0.1488 -0.9596
 8999SOL    HW244990  13.180   8.860  13.658  1.8534 -0.9276  0.6262
 9000SOL     OW44991   0.005  13.064  12.385 -0.1532  0.4205 -0.2376
 9000SOL    HW144992  -0.021  13.150  12.352 -2.6893 -0.2659 -0.2394
 9000SOL    HW244993   0.055  13.025  12.313 -0.0680  1.4005 -0.7253
 9001SOL     OW44994   9.641   4.588  13.101 -0.3199  0.4118  0.0675
 9001SOL    HW144995   9.547   4.574  13.112 -0.4687  1.1996 -0.1534
 9001SOL    HW244996   9.648   4.649  13.027  0.3904 -0.0737 -0.2779
 9002SOL     OW44997   0.157   4.478   4.049  0.5256 -0.1486  0.0617
 9002SOL    HW144998   0.064   4.473   4.074  0.3230  0.8518 -0.4251
 9002SOL    HW244999   0.155   4.510   3.959  1.3493 -0.1570  0.0405
 9003SOL     OW45000   4.803   8.609   8.080 -0.3803 -0.2892 -0.2017
 9003SOL    HW145001   4.869   8.545   8.108  0.5656  0.8406  0.2449
 9003SOL    HW245002   4.759   8.635   8.161  1.4882  2.0276  0.2010
 9004SOL     OW45003   7.616   6.866   9.254  0.7066  0.2106  0.1508
 9004SOL    HW145004   7.688   6.905   9.205  1.9754  0.3077  2.0090
 9004SOL    HW245005   7.600   6.782   9.210  2.6286 -0.2683  0.3002
 9005SOL     OW45006  11.917   0.692  10.219 -0.0038 -0.0486 -0.0573
 9005SOL    HW145007  11.987   0.755  10.237 -0.3020  0.0296  0.8944
 9005SOL    HW245008  11.919   0.633  10.294 -1.1969  0.1840  0.1731
 9006SOL     OW45009   3.712   7.371  13.392  0.5060  0.7711  0.4007
 9006SOL    HW145010   3.796   7.373  13.346  0.1675 -0.0713 -0.3043
 9006SOL    HW245011   3.648   7.353  13.322  0.1134 -1.9427  1.3343
 9007SOL     OW45012  12.808  13.324  11.856 -0.1524  0.2473 -0.7247
 9007SOL    HW145013  12.716  13.300  11.845 -0.6127  1.5280  0.1075
 9007SOL    HW245014  12.817  13.339  11.950  1.0777 -0.4585 -0.7057
 9008SOL     OW45015  10.124   1.956   7.041  0.0548 -0.0548 -0.7929
 9008SOL    HW145016  10.145   2.050   7.043 -4.1087  1.1126  2.5923
 9008SOL    HW245017  10.062   1.947   6.969  0.6982 -0.3512 -1.3243
 9009SOL     OW45018   8.899  11.422  14.050  0.2406 -0.2176  1.3314
 9009SOL    HW145019   8.873  11.450  13.962 -0.1871 -0.5785  1.3379
 9009SOL    HW245020   8.818  11.387  14.089  0.2070  0.7949  2.2132
 9010SOL     OW45021   6.295   6.757   8.488 -0.3304 -0.0349 -0.0377
 9010SOL    HW145022   6.376   6.713   8.462 -0.2288  0.0442  0.1425
 9010SOL    HW245023   6.323   6.822   8.552 -0.5066  0.1583 -0.1572
 9011SOL     OW45024  12.366  11.313   0.113  0.3729  0.3207 -0.2044
 9011SOL    HW145025  12.432  11.248   0.137 -0.0908 -0.2918 -0.5545
 9011SOL    HW245026  12.326  11.278   0.033 -0.7212  0.4221  0.2849
 9012SOL     OW45027   5.861   3.863   1.054 -0.3069 -0.5188  0.1228
 9012SOL    HW145028   5.916   3.898   1.125  1.5625  0.8664 -1.8796
 9012SOL    HW245029   5.801   3.935   1.033 -0.1045 -0.5043 -0.4151
 9013SOL     OW45030  10.024   1.794   0.892  0.0158  0.5157  0.4105
 9013SOL    HW145031  10.107   1.839   0.879  1.0592 -1.9779 -2.8660
 9013SOL    HW245032  10.049   1.704   0.916 -1.5658 -0.6546 -1.9450
 9014SOL     OW45033   0.980   0.837  13.319  0.3200 -0.0731 -0.1463
 9014SOL    HW145034   1.023   0.921  13.302 -0.4141  0.2501 -0.4613
 9014SOL    HW245035   1.042   0.771  13.289  1.3460  0.3054  1.0254
 9015SOL     OW45036   8.631   6.431  10.559  0.2440 -0.4682 -0.5746
 9015SOL    HW145037   8.656   6.342  10.535 -0.5163 -0.9743  0.4555
 9015SOL    HW245038   8.709   6.483  10.541  1.3417 -1.6520  0.5237
 9016SOL     OW45039  11.839  11.752   7.271  0.1734 -0.3033 -0.0366
 9016SOL    HW145040  11.863  11.840   7.300 -3.0026  0.7162 -0.2048
 9016SOL    HW245041  11.829  11.759   7.177 -1.9092 -0.2971  0.1436
 9017SOL     OW45042   8.604   7.585   4.181  0.7334 -0.1454 -0.4102
 9017SOL    HW145043   8.609   7.677   4.207 -0.2633  0.0659 -0.8960
 9017SOL    HW245044   8.624   7.536   4.261 -4.4293  0.4473  1.6281
 9018SOL     OW45045   7.118   9.789   5.594 -0.2733  0.0628  0.5655
 9018SOL    HW145046   7.199   9.840   5.595  0.6662 -1.2553 -1.3730
 9018SOL    HW245047   7.068   9.825   5.520 -0.2208 -0.8809  0.0570
 9019SOL     OW45048  11.068   5.395   7.772  0.6094  0.1679  0.1052
 9019SOL    HW145049  11.006   5.449   7.722  2.9468  1.6983 -1.3378
 9019SOL    HW245050  11.036   5.399   7.862 -0.6442  2.0310 -0.3505
 9020SOL     OW45051   4.546  13.137   9.295  0.0382 -0.0534  0.4920
 9020SOL    HW145052   4.597  13.058   9.279 -1.5812 -1.3103  1.2605
 9020SOL    HW245053   4.578  13.170   9.379  0.1628 -0.3516  0.5616
 9021SOL     OW45054   1.635   4.861   4.659 -0.2805  0.4581  0.5175
 9021SOL    HW145055   1.544   4.857   4.630 -0.2607 -0.7427  0.5473
 9021SOL    HW245056   1.663   4.769   4.660  0.3590  0.6468  2.3433
 9022SOL     OW45057   3.803   9.094  13.417  0.1602  0.4259 -0.0238
 9022SOL    HW145058   3.891   9.125  13.396 -0.0699  0.4526 -1.0073
 9022SOL    HW245059   3.802   9.003  13.386 -1.3058  1.4890 -3.7160
 9023SOL     OW45060   9.333  12.582   7.206 -0.1181  0.2954  0.3796
 9023SOL    HW145061   9.253  12.588   7.257 -0.5849 -2.0202  0.0165
 9023SOL    HW245062   9.303  12.570   7.116  0.6130 -0.4054  0.2150
 9024SOL     OW45063   0.620  12.936   5.269  0.3312  0.2581 -0.2039
 9024SOL    HW145064   0.711  12.915   5.289  0.7993  1.4328 -1.0307
 9024SOL    HW245065   0.588  12.980   5.348  1.0407  1.4711 -0.5691
 9025SOL     OW45066   8.253   4.853   7.665  0.1441 -0.1737 -0.1459
 9025SOL    HW145067   8.206   4.928   7.628  0.0328 -0.6264 -0.9537
 9025SOL    HW245068   8.266   4.875   7.757 -1.5667  0.0274  0.0863
 9026SOL     OW45069   2.460  12.229   3.028  0.1944 -0.1161 -0.2334
 9026SOL    HW145070   2.465  12.250   2.934  1.7918 -0.2321 -0.2017
 9026SOL    HW245071   2.548  12.198   3.050 -0.7181 -2.0706  0.8536
 9027SOL     OW45072   8.902   0.646  13.546  0.1237 -0.2629 -0.6919
 9027SOL    HW145073   8.809   0.665  13.553  0.4636  0.7681  1.8686
 9027SOL    HW245074   8.927   0.611  13.632  2.3057  0.4565 -0.9621
 9028SOL     OW45075  13.701   7.445   8.246  0.0318  0.2565  0.0767
 9028SOL    HW145076  13.715   7.538   8.263  0.4689 -0.0209  1.3552
 9028SOL    HW245077  13.644   7.443   8.169  3.0944  1.5425 -2.5012
 9029SOL     OW45078   9.189   6.245  10.005  0.3531  0.3611 -0.4318
 9029SOL    HW145079   9.098   6.248  10.037  0.2698 -0.1647 -0.6065
 9029SOL    HW245080   9.210   6.336   9.986  0.2757  0.6477  0.7480
 9030SOL     OW45081  11.293  13.312  12.674  0.8269 -0.1895 -0.0824
 9030SOL    HW145082  11.384  13.338  12.688  0.9042 -1.3667  1.9174
 9030SOL    HW245083  11.297  13.256  12.596  1.3723  1.7116 -1.5113
 9031SOL     OW45084  13.881   2.229  10.119 -0.2152  0.7140  0.4201
 9031SOL    HW145085  13.975   2.236  10.140 -0.9432  2.1629  3.9729
 9031SOL    HW245086  13.838   2.284  10.184 -3.6749 -1.0587 -0.1243
 9032SOL     OW45087   9.018   0.946  10.474 -0.0558  0.0212 -0.4803
 9032SOL    HW145088   9.006   1.038  10.497 -0.3982 -0.2982  0.6692
 9032SOL    HW245089   9.111   0.939  10.451  0.2102  0.4571  0.4133
 9033SOL     OW45090   1.289   1.259   1.821  0.0469  0.1241  0.4398
 9033SOL    HW145091   1.358   1.314   1.785 -1.5392  1.0056 -1.4816
 9033SOL    HW245092   1.208   1.309   1.806 -1.5015 -2.6932 -1.4981
 9034SOL     OW45093   4.621   1.351  10.381  0.1938  0.0160 -0.4297
 9034SOL    HW145094   4.632   1.402  10.461  0.7833 -2.3966  1.1163
 9034SOL    HW245095   4.693   1.379  10.325  1.6020 -0.3937  1.1082
 9035SOL     OW45096  12.366   3.730   7.697  0.8046 -0.3441  0.1477
 9035SOL    HW145097  12.424   3.706   7.625  0.3717 -1.6630  0.2127
 9035SOL    HW245098  12.423   3.772   7.761  1.5236 -0.8012 -0.1818
 9036SOL     OW45099  13.558   1.122   9.282 -0.3810 -0.0563  0.3992
 9036SOL    HW145100  13.612   1.181   9.334  0.9849 -1.2210  0.3585
 9036SOL    HW245101  13.471   1.161   9.284 -0.4562 -0.1715  3.7453
 9037SOL     OW45102  10.174   9.131  10.845  0.1987 -0.5816 -0.0772
 9037SOL    HW145103  10.085   9.152  10.873  0.1104 -0.7867 -0.1961
 9037SOL    HW245104  10.170   9.130  10.749  0.8660  1.6991 -0.1891
 9038SOL     OW45105  13.310   8.294   9.511  0.3982 -0.6649  0.2545
 9038SOL    HW145106  13.309   8.380   9.553  0.5074 -0.4343 -0.2131
 9038SOL    HW245107  13.329   8.233   9.582  0.1859 -0.3162  0.6120
 9039SOL     OW45108   3.942   5.390   8.673 -0.0819 -0.0162 -0.1350
 9039SOL    HW145109   3.889   5.424   8.600 -0.1211 -0.5156 -0.3422
 9039SOL    HW245110   3.900   5.425   8.751 -1.8587 -1.8665 -0.1695
 9040SOL     OW45111   7.453  11.996  10.130 -0.1722  0.1360  0.4122
 9040SOL    HW145112   7.434  12.008  10.223  0.4908  2.8376  0.2841
 9040SOL    HW245113   7.440  12.082  10.091 -2.8960 -1.4191 -2.5568
 9041SOL     OW45114   1.948  12.513   6.860  0.9358 -0.0312 -0.6882
 9041SOL    HW145115   1.920  12.422   6.862  3.4495 -0.9340 -1.7322
 9041SOL    HW245116   1.889  12.556   6.798  0.3816 -1.2169 -0.9998
 9042SOL     OW45117   2.650   0.989   1.231  0.3137  0.0230 -0.0890
 9042SOL    HW145118   2.686   0.924   1.292  1.2742  0.7508  0.1605
 9042SOL    HW245119   2.670   0.954   1.144  1.9988  0.5543  0.0419
 9043SOL     OW45120   1.822   2.043   4.604 -0.2229 -0.1476 -0.7258
 9043SOL    HW145121   1.727   2.036   4.615 -0.1790 -0.0239 -0.2225
 9043SOL    HW245122   1.858   1.980   4.667  0.0460  0.4168 -0.3021
 9044SOL     OW45123  10.505   9.668  13.538  0.0320  0.7505  0.3015
 9044SOL    HW145124  10.562   9.745  13.532  2.5414 -0.9536  0.6256
 9044SOL    HW245125  10.485   9.660  13.631 -0.2743  1.0336  0.2603
 9045SOL     OW45126  13.970   2.536   8.307 -0.0091  0.5403 -0.2186
 9045SOL    HW145127  13.970   2.515   8.401  1.5292 -0.2558 -0.3614
 9045SOL    HW245128  13.885   2.506   8.276 -0.9388  1.6900  1.0818
 9046SOL     OW45129   3.021  10.719   9.577 -0.4784 -0.3806  0.3179
 9046SOL    HW145130   2.965  10.695   9.503 -0.7277  0.0116  0.3759
 9046SOL    HW245131   2.959  10.740   9.648 -0.3179  1.3574 -0.0065
 9047SOL     OW45132  10.661  12.310  13.810 -0.2050  0.6550 -0.7266
 9047SOL    HW145133  10.745  12.354  13.800  0.3903 -0.7236 -2.4142
 9047SOL    HW245134  10.684  12.222  13.842 -1.1750  0.8447  0.5612
 9048SOL     OW45135   7.406   0.609  13.528  0.2201 -0.3489 -0.2201
 9048SOL    HW145136   7.442   0.599  13.440 -1.8558  2.6348 -1.5835
 9048SOL    HW245137   7.354   0.529  13.542  0.4043 -0.7786 -1.7959
 9049SOL     OW45138   6.080   8.997  12.751  0.1727  0.8672 -0.2125
 9049SOL    HW145139   6.055   9.033  12.666  1.4520  2.3740 -0.0042
 9049SOL    HW245140   6.012   9.029  12.811 -0.2446  0.5387 -0.5021
 9050SOL     OW45141   4.790   4.582   6.676 -0.4729  0.3965 -0.1547
 9050SOL    HW145142   4.786   4.664   6.628 -0.0881  1.6386  1.8284
 9050SOL    HW245143   4.874   4.543   6.649 -0.7304  0.5443 -1.2236
 9051SOL     OW45144   4.643   9.552  10.072 -0.1103  0.2586  0.0685
 9051SOL    HW145145   4.636   9.585   9.983 -2.7405 -0.6215 -0.1511
 9051SOL    HW245146   4.669   9.628  10.124  1.9956  0.6610 -1.4682
 9052SOL     OW45147  10.437   6.166   7.603 -0.6416  1.0142 -0.4588
 9052SOL    HW145148  10.344   6.144   7.603 -0.6037  0.6984  1.6371
 9052SOL    HW245149  10.456   6.191   7.693  1.3565  0.8674 -0.7932
 9053SOL     OW45150   9.466   2.292   6.086  0.2392 -0.5058 -0.0330
 9053SOL    HW145151   9.545   2.238   6.079  1.6775  1.5486 -0.3018
 9053SOL    HW245152   9.395   2.231   6.068  1.7669 -2.3283 -0.2552
 9054SOL     OW45153   4.006   8.915   8.174  0.0529 -0.7007 -0.3996
 9054SOL    HW145154   3.929   8.973   8.176  0.8065  0.3211 -0.0462
 9054SOL    HW245155   3.998   8.868   8.092 -2.0368 -2.1552  0.5450
 9055SOL     OW45156  10.014   5.498   5.857 -0.1308  0.2177  0.0664
 9055SOL    HW145157   9.919   5.492   5.853 -0.0823  0.0002 -1.6504
 9055SOL    HW245158  10.032   5.592   5.854 -0.2803  0.2431 -0.0354
 9056SOL     OW45159   1.699   0.094   6.243 -0.2601  0.0017 -0.5222
 9056SOL    HW145160   1.709   0.086   6.148  1.8046  0.5242 -0.4003
 9056SOL    HW245161   1.678   0.006   6.273 -1.1012 -0.1320 -1.4719
 9057SOL     OW45162  11.527   5.963   1.237  0.5188  0.0802  0.4072
 9057SOL    HW145163  11.507   6.050   1.270  0.5990  0.1872  0.1811
 9057SOL    HW245164  11.448   5.912   1.253  0.4013  0.2479  0.3618
 9058SOL     OW45165   9.131  11.322  11.542 -0.1945  0.3308 -0.2436
 9058SOL    HW145166   9.161  11.413  11.546  0.2497  0.1648  0.2423
 9058SOL    HW245167   9.066  11.322  11.472 -0.1468  1.0090 -0.2970
 9059SOL     OW45168   9.190  10.875  11.960  0.4367 -0.1751 -0.3949
 9059SOL    HW145169   9.158  10.909  11.876  0.2733  1.1595  0.1731
 9059SOL    HW245170   9.183  10.950  12.020 -0.7961 -1.4525  1.1751
 9060SOL     OW45171  14.118   0.063  13.779  0.8657 -0.0116  0.2822
 9060SOL    HW145172  14.133  -0.023  13.817  1.0303 -0.2421 -0.2925
 9060SOL    HW245173  14.181   0.120  13.823 -0.1797  0.1123  1.6548
 9061SOL     OW45174  13.039  12.956  13.853  0.3338 -0.0243  0.3265
 9061SOL    HW145175  12.961  12.966  13.908 -1.1565 -0.9865 -1.4993
 9061SOL    HW245176  13.006  12.919  13.771  2.6520  0.0898 -0.7345
 9062SOL     OW45177   8.008  11.378   0.950 -0.2803 -0.2647 -0.3044
 9062SOL    HW145178   8.028  11.359   1.042  0.5606 -0.8325 -0.5910
 9062SOL    HW245179   8.094  11.384   0.908 -0.6367 -3.0396 -1.6277
 9063SOL     OW45180  13.962   8.261   5.950  0.0581 -0.0626  0.0112
 9063SOL    HW145181  13.934   8.340   5.903 -0.6955 -0.0796  0.4182
 9063SOL    HW245182  14.025   8.293   6.015  1.0709 -0.0330 -0.9533
 9064SOL     OW45183  12.842   0.816   0.655  0.2059 -0.6952  0.0632
 9064SOL    HW145184  12.753   0.836   0.623 -0.1740  1.1975  2.0589
 9064SOL    HW245185  12.862   0.888   0.715  2.1411 -2.3680  1.5294
 9065SOL     OW45186   9.294   3.070   5.116  0.2366 -0.2569  0.2930
 9065SOL    HW145187   9.312   3.153   5.159  0.0631 -0.6925  1.2289
 9065SOL    HW245188   9.205   3.079   5.082 -0.1349 -0.3813  1.2016
 9066SOL     OW45189   6.239   1.362   2.404 -0.0102  0.1644  0.8752
 9066SOL    HW145190   6.321   1.385   2.360 -0.4848  0.4446  0.1216
 9066SOL    HW245191   6.234   1.422   2.479  0.2621  0.4353  0.6767
 9067SOL     OW45192   9.818   3.835  10.666 -0.0150 -0.0790 -0.1002
 9067SOL    HW145193   9.868   3.886  10.731 -0.7187  0.0247  0.3776
 9067SOL    HW245194   9.820   3.888  10.587 -0.6990  0.6975  0.3811
 9068SOL     OW45195  12.907   8.775   9.605  0.5039  0.4432  0.2510
 9068SOL    HW145196  12.946   8.687   9.602 -0.2740  0.0874 -2.2469
 9068SOL    HW245197  12.897   8.799   9.513 -3.1250  1.4190  0.7505
 9069SOL     OW45198  12.615   2.404   3.327 -0.3981 -0.4980  0.2693
 9069SOL    HW145199  12.702   2.367   3.320 -0.1337  0.1983 -0.3076
 9069SOL    HW245200  12.558   2.342   3.282 -0.3307 -1.3177  1.2777
 9070SOL     OW45201   2.587   4.597   6.867 -0.0055 -0.4971 -0.1521
 9070SOL    HW145202   2.601   4.684   6.828  1.7556 -1.0615 -0.8590
 9070SOL    HW245203   2.544   4.616   6.950 -2.5903  0.8320 -1.6740
 9071SOL     OW45204  13.753   1.041   1.900 -0.3307  0.0093  0.5330
 9071SOL    HW145205  13.807   1.018   1.975 -0.6605 -2.4243  0.1003
 9071SOL    HW245206  13.747   0.960   1.849 -3.7020  0.3538  0.1566
 9072SOL     OW45207  10.621   6.426   2.511  0.4269 -0.6109  0.1694
 9072SOL    HW145208  10.674   6.383   2.578  1.8070  0.7893  0.0384
 9072SOL    HW245209  10.530   6.410   2.538  0.9184  0.3594  2.7026
 9073SOL     OW45210   7.668   6.685   7.289 -0.5736 -0.2324 -0.4936
 9073SOL    HW145211   7.580   6.646   7.285 -0.8443  0.3103  0.0331
 9073SOL    HW245212   7.727   6.610   7.289 -1.1047 -0.6717  0.9216
 9074SOL     OW45213   2.429   6.764   1.044  0.2195  0.3274  0.1185
 9074SOL    HW145214   2.506   6.774   1.100 -0.7667 -1.2514  1.8177
 9074SOL    HW245215   2.371   6.706   1.092 -1.7545  0.8968 -1.4557
 9075SOL     OW45216   1.717   2.770   9.782  0.7196  0.2884  0.2722
 9075SOL    HW145217   1.785   2.837   9.774 -0.9991  1.9172 -2.3606
 9075SOL    HW245218   1.637   2.815   9.754 -1.2704 -1.8527  2.1579
 9076SOL     OW45219   1.799   7.634   5.463  0.1198 -0.3147  0.2210
 9076SOL    HW145220   1.783   7.555   5.513  2.4793 -1.4729 -0.6888
 9076SOL    HW245221   1.755   7.619   5.379 -0.9924  0.1865  0.6888
 9077SOL     OW45222   3.324   8.388   0.139  0.1138  0.3016  0.0857
 9077SOL    HW145223   3.259   8.318   0.148  0.7298 -0.6326 -2.0161
 9077SOL    HW245224   3.408   8.342   0.131  0.7931  1.3967  0.7083
 9078SOL     OW45225  11.247  11.236   5.970  0.1528 -0.4504 -0.5267
 9078SOL    HW145226  11.155  11.241   5.996  0.6090  1.0768  0.9302
 9078SOL    HW245227  11.249  11.274   5.882 -0.3192  1.7123  0.3448
 9079SOL     OW45228   0.986  14.094   9.891  0.4834 -0.1775  0.1786
 9079SOL    HW145229   1.062  14.121   9.839 -0.9029  0.0051 -1.8756
 9079SOL    HW245230   0.911  14.125   9.841 -0.9729  0.5154  2.6299
 9080SOL     OW45231  12.922   2.176   4.369 -0.1887 -0.5393 -0.5022
 9080SOL    HW145232  12.976   2.105   4.334  0.4913 -0.7981  0.9668
 9080SOL    HW245233  12.874   2.136   4.441  2.2747  0.9602  2.2458
 9081SOL     OW45234   5.290  13.931  13.786  0.6263  0.4977 -0.4452
 9081SOL    HW145235   5.322  13.882  13.710  1.7058  1.5218 -0.6708
 9081SOL    HW245236   5.315  13.877  13.861  1.3191  0.4309 -0.7197
 9082SOL     OW45237   7.962   7.874   6.514 -0.4898  0.1853  0.1000
 9082SOL    HW145238   7.925   7.945   6.462 -0.2392 -0.7614 -1.4407
 9082SOL    HW245239   8.046   7.908   6.544 -0.5646  0.7002 -0.2539
 9083SOL     OW45240   3.409  12.614   4.080 -0.0993 -0.3472 -0.1163
 9083SOL    HW145241   3.363  12.641   4.160 -1.8351  0.0469 -1.1928
 9083SOL    HW245242   3.501  12.629   4.100 -0.6047  1.5650  1.1595
 9084SOL     OW45243   0.689  10.406   5.393 -0.4038  0.3815 -0.2791
 9084SOL    HW145244   0.666  10.356   5.314  1.5695  1.3715 -1.5667
 9084SOL    HW245245   0.662  10.495   5.373 -1.4629  0.3590  0.9217
 9085SOL     OW45246  13.883   4.010   1.098  0.2540 -0.3782  0.1437
 9085SOL    HW145247  13.832   4.025   1.178  0.4532 -1.1636  0.4275
 9085SOL    HW245248  13.929   4.093   1.084  0.0349 -0.1497  0.7110
 9086SOL     OW45249   0.462   9.501  11.229 -0.2294  0.1095  0.0680
 9086SOL    HW145250   0.503   9.427  11.274 -0.8948  0.8724  2.0360
 9086SOL    HW245251   0.380   9.466  11.195  0.6979 -0.7074 -1.4233
 9087SOL     OW45252   8.819   6.647   4.846  0.0253  0.1938  0.0807
 9087SOL    HW145253   8.893   6.587   4.843  0.6903  0.7448  2.9498
 9087SOL    HW245254   8.764   6.613   4.917 -1.5629  0.8484 -0.7894
 9088SOL     OW45255  13.801   8.020   3.117 -0.2808 -0.2908 -0.1176
 9088SOL    HW145256  13.731   7.957   3.103  0.3775 -1.6965  2.3253
 9088SOL    HW245257  13.825   8.010   3.209  1.8666  1.4701 -0.3819
 9089SOL     OW45258  10.102   5.387   0.699 -0.1690  0.1469  0.1282
 9089SOL    HW145259  10.168   5.382   0.630 -0.3252 -1.1216  0.0628
 9089SOL    HW245260  10.018   5.389   0.653 -0.2252  2.9051  0.1518
 9090SOL     OW45261   8.492   4.109   2.849  0.5662 -0.0487  0.2678
 9090SOL    HW145262   8.534   4.038   2.898 -0.0844  0.1819  1.1888
 9090SOL    HW245263   8.400   4.106   2.877  0.8487  2.2624  1.7220
 9091SOL     OW45264   4.266   3.218   5.061 -0.4035 -0.1203  0.0909
 9091SOL    HW145265   4.203   3.253   5.124 -1.0941 -2.9115  1.0899
 9091SOL    HW245266   4.226   3.137   5.028  2.3015 -1.6526  0.2324
 9092SOL     OW45267   0.661   6.367   5.407 -0.0219 -0.5746 -0.2088
 9092SOL    HW145268   0.689   6.303   5.473  2.8832 -1.3027 -1.9404
 9092SOL    HW245269   0.613   6.315   5.343  1.3237 -0.8765 -1.0192
 9093SOL     OW45270   7.426   4.101  10.390  0.7445 -0.1412  0.5046
 9093SOL    HW145271   7.484   4.172  10.363  0.5547 -0.7058 -1.5403
 9093SOL    HW245272   7.481   4.046  10.446  1.5464  0.4457  0.3261
 9094SOL     OW45273   0.538   2.129   3.456 -1.0539  0.1882  0.7910
 9094SOL    HW145274   0.495   2.142   3.372 -0.9579  0.0494  0.7194
 9094SOL    HW245275   0.570   2.038   3.453 -0.5342  0.3681  0.7337
 9095SOL     OW45276   7.453   7.779   2.834 -0.0350  0.0976  0.5175
 9095SOL    HW145277   7.529   7.760   2.889  0.5846  1.1164  0.0535
 9095SOL    HW245278   7.483   7.849   2.776 -1.0535 -0.1145 -0.2907
 9096SOL     OW45279  10.783   6.487  13.183  0.2276  0.1614 -0.1148
 9096SOL    HW145280  10.773   6.420  13.250  1.0757  1.1419  1.0400
 9096SOL    HW245281  10.693   6.515  13.163 -0.0735 -0.6791  0.0260
 9097SOL     OW45282  11.477   6.598  11.671 -0.4743 -0.0884 -0.5617
 9097SOL    HW145283  11.387   6.610  11.702 -0.2905 -0.1119 -0.0039
 9097SOL    HW245284  11.478   6.636  11.584 -1.3270 -1.1447 -1.0468
 9098SOL     OW45285   3.483   6.206   7.361  0.1796  0.2362  0.4106
 9098SOL    HW145286   3.575   6.235   7.359 -0.3474  2.0055  0.0502
 9098SOL    HW245287   3.471   6.157   7.280  1.0888 -1.0382  1.0051
 9099SOL     OW45288  14.136  12.033   5.946 -0.1314  0.2702 -0.1021
 9099SOL    HW145289  14.214  12.050   6.000 -0.1926  0.2322 -0.0009
 9099SOL    HW245290  14.107  11.945   5.973  0.0213  0.1212 -0.4215
 9100SOL     OW45291   8.194   8.783   2.041 -0.4317 -0.0497 -0.1254
 9100SOL    HW145292   8.201   8.694   2.007 -0.7174 -1.3121  2.7972
 9100SOL    HW245293   8.149   8.773   2.125 -1.6058  3.0379 -0.2483
 9101SOL     OW45294  11.747  10.847   2.200  0.1406  0.3151 -0.3280
 9101SOL    HW145295  11.763  10.761   2.240  1.9647  0.3504 -0.8977
 9101SOL    HW245296  11.728  10.905   2.274  1.9681  0.0546  0.3964
 9102SOL     OW45297   8.850   7.337   9.658 -0.4190  0.3554  0.1724
 9102SOL    HW145298   8.917   7.362   9.594  0.6620 -0.0578  1.1037
 9102SOL    HW245299   8.853   7.241   9.659 -1.5785  0.3029 -0.3266
 9103SOL     OW45300   7.100   7.565  13.792  0.1598 -0.6289 -0.0885
 9103SOL    HW145301   7.047   7.641  13.814  2.1783  0.6496  0.5510
 9103SOL    HW245302   7.103   7.565  13.696 -1.6590 -1.2551 -0.1885
 9104SOL     OW45303  12.055   9.066   5.874 -0.5812 -0.2659 -0.0745
 9104SOL    HW145304  12.049   9.162   5.872 -0.9094 -0.2673  0.5530
 9104SOL    HW245305  12.138   9.046   5.830 -1.0617  0.2350 -1.2523
 9105SOL     OW45306   4.040   7.429   7.386  0.4140 -0.2402 -0.5814
 9105SOL    HW145307   4.024   7.349   7.436 -0.9330  0.0580 -0.4974
 9105SOL    HW245308   3.987   7.418   7.307  1.2183  0.0301 -1.1799
 9106SOL     OW45309  13.992  10.546   4.012  0.4892  0.6194 -0.2889
 9106SOL    HW145310  13.963  10.572   4.100 -0.2872 -0.0649 -0.3308
 9106SOL    HW245311  14.019  10.628   3.971  1.5630  0.8509  0.8304
 9107SOL     OW45312  13.877   9.244   2.884 -0.1858  0.2216 -0.4177
 9107SOL    HW145313  13.823   9.315   2.849 -0.5971 -0.0033 -0.2480
 9107SOL    HW245314  13.861   9.246   2.979 -1.0033 -0.7516 -0.5256
 9108SOL     OW45315   6.545   4.395  10.138 -0.1021  0.7156 -0.6785
 9108SOL    HW145316   6.452   4.392  10.118  0.3670 -3.3206 -3.6061
 9108SOL    HW245317   6.554   4.338  10.215  0.0134  0.2217 -1.0519
 9109SOL     OW45318   2.817   7.943  11.939 -0.4866  0.0699 -0.7570
 9109SOL    HW145319   2.838   8.002  12.011  2.2522 -1.5251 -0.1044
 9109SOL    HW245320   2.761   7.994  11.881  0.1029  2.5895  0.7692
 9110SOL     OW45321   2.571   0.940   4.168  0.3018 -0.0895 -0.0588
 9110SOL    HW145322   2.614   0.870   4.118 -0.2659 -0.0805 -0.5624
 9110SOL    HW245323   2.605   1.021   4.129  0.7714 -0.0806  0.3623
 9111SOL     OW45324   2.843  11.352   7.511 -0.2779  0.4249  0.0442
 9111SOL    HW145325   2.912  11.364   7.445  0.3922  1.2087  0.8601
 9111SOL    HW245326   2.864  11.268   7.552 -0.8948 -0.2334 -0.9468
 9112SOL     OW45327   4.205   5.840  13.684 -0.1763 -0.1135 -0.5995
 9112SOL    HW145328   4.137   5.837  13.752 -1.3101 -0.6861 -1.7112
 9112SOL    HW245329   4.184   5.767  13.626  0.7764  0.3423 -1.5489
 9113SOL     OW45330  10.788   5.949  12.881 -0.5758 -0.0267  0.0468
 9113SOL    HW145331  10.793   6.007  12.958 -1.0546  0.2665 -0.1373
 9113SOL    HW245332  10.879   5.924  12.864 -0.4933 -0.3016  0.8638
 9114SOL     OW45333   7.310   7.394   8.124  0.2336  0.6020  0.0251
 9114SOL    HW145334   7.308   7.462   8.057 -1.1331  0.2383 -0.3335
 9114SOL    HW245335   7.383   7.337   8.099  1.6924  2.1447  0.5826
 9115SOL     OW45336   4.158  12.130  12.852 -0.3513  0.3372 -0.0949
 9115SOL    HW145337   4.089  12.188  12.819  0.6499  2.2569  1.0054
 9115SOL    HW245338   4.115  12.075  12.917 -0.7606  2.0640  1.1695
 9116SOL     OW45339   7.898   1.297  10.643  0.2612  0.4385  0.4555
 9116SOL    HW145340   7.942   1.212  10.635  1.7948  1.1358  1.0984
 9116SOL    HW245341   7.826   1.281  10.704 -0.1692 -0.6383 -0.2974
 9117SOL     OW45342  11.105   4.225  12.453  0.1739  0.0590 -0.0950
 9117SOL    HW145343  11.059   4.211  12.536  1.4547  0.4566  0.7249
 9117SOL    HW245344  11.044   4.197  12.386 -0.4400 -1.4773  1.0527
 9118SOL     OW45345   4.713   9.453  11.695  0.4566  0.2178 -0.3197
 9118SOL    HW145346   4.647   9.444  11.626  0.7034 -1.6044 -0.3677
 9118SOL    HW245347   4.750   9.366  11.705  1.7749  0.8547  0.8101
 9119SOL     OW45348   3.022   7.963   9.654  0.2414  0.1981 -0.5931
 9119SOL    HW145349   2.962   7.978   9.727  0.0856  1.4326 -0.9433
 9119SOL    HW245350   3.025   7.868   9.644 -0.4560  0.0535  0.4179
 9120SOL     OW45351   9.427   2.110  14.039 -0.5137  0.5132  0.0757
 9120SOL    HW145352   9.397   2.041  14.097  0.3529  0.0179 -0.0485
 9120SOL    HW245353   9.366   2.183  14.054 -2.7820 -0.9825 -1.3694
 9121SOL     OW45354   3.499   5.651   2.074 -0.1067 -0.3190 -0.1781
 9121SOL    HW145355   3.554   5.696   2.011 -0.2245  0.5190  0.3032
 9121SOL    HW245356   3.430   5.611   2.021 -0.1829  0.3461 -0.5940
 9122SOL     OW45357   0.904   7.766  10.741 -0.1005  0.4296 -0.5297
 9122SOL    HW145358   0.993   7.734  10.757 -0.5491 -1.8729 -2.1122
 9122SOL    HW245359   0.881   7.814  10.821  0.8020 -3.0557  2.0876
 9123SOL     OW45360   8.492   6.882   9.460  0.1667  0.5436  0.1691
 9123SOL    HW145361   8.563   6.945   9.448 -0.0405  0.4715 -1.6199
 9123SOL    HW245362   8.420   6.918   9.409 -0.1779 -0.8119 -0.3211
 9124SOL     OW45363  13.035   2.675   0.087  0.7721  0.2590 -0.3535
 9124SOL    HW145364  13.055   2.719   0.005 -1.0839  0.3094 -0.8373
 9124SOL    HW245365  13.034   2.745   0.152  0.7719  0.4633 -0.5733
 9125SOL     OW45366   4.578   8.851   5.347  0.9882 -0.1298  0.0328
 9125SOL    HW145367   4.510   8.845   5.415 -2.6199 -0.0064 -3.2384
 9125SOL    HW245368   4.581   8.944   5.325  0.3382 -0.4441 -1.5056
 9126SOL     OW45369  13.156  10.738   9.867  0.0072 -0.3198 -0.6496
 9126SOL    HW145370  13.247  10.710   9.857 -0.0138 -0.0104 -1.8189
 9126SOL    HW245371  13.127  10.696   9.949  1.3578  0.0269  0.0355
 9127SOL     OW45372  13.908   7.887  10.446 -0.0153  0.4705  0.3047
 9127SOL    HW145373  13.855   7.928  10.515  1.1485  0.3682  1.2942
 9127SOL    HW245374  13.855   7.814  10.415 -1.3365  1.6004 -0.1981
 9128SOL     OW45375   6.267   8.131  11.982 -0.2710 -0.2177  0.1562
 9128SOL    HW145376   6.335   8.064  11.983 -1.0644 -1.0452  1.2695
 9128SOL    HW245377   6.253   8.153  12.074  1.6283  3.2745 -0.1967
 9129SOL     OW45378   5.440   8.286  12.419 -0.8654  0.0169  1.2006
 9129SOL    HW145379   5.394   8.252  12.496 -0.4515  0.7638  1.7843
 9129SOL    HW245380   5.466   8.375  12.443 -0.4522  0.1483  0.3137
 9130SOL     OW45381   3.258  11.423   5.995 -0.2701 -0.1704  0.5890
 9130SOL    HW145382   3.288  11.356   5.934 -0.2914  0.2785  0.0809
 9130SOL    HW245383   3.337  11.448   6.042  0.6670  2.3640 -2.0450
 9131SOL     OW45384  11.318   1.800   1.196  0.7402  0.0420  0.3687
 9131SOL    HW145385  11.242   1.765   1.242  0.8593 -2.4409 -1.1314
 9131SOL    HW245386  11.285   1.822   1.109  0.9772  2.7054  0.8446
 9132SOL     OW45387  13.233   6.479   8.238 -0.2072  0.0813  0.1241
 9132SOL    HW145388  13.166   6.438   8.182 -1.1639  0.3043  1.0771
 9132SOL    HW245389  13.184   6.537   8.295  0.7527 -0.1720  1.2364
 9133SOL     OW45390   8.094   7.419   7.369  0.3687 -0.0595  0.2100
 9133SOL    HW145391   8.157   7.457   7.308 -2.9553 -0.0069 -3.5797
 9133SOL    HW245392   8.050   7.495   7.408 -1.5482  0.1392 -2.0952
 9134SOL     OW45393   2.460  10.646   7.023  0.2539  0.0662  0.2730
 9134SOL    HW145394   2.524  10.623   6.956 -0.1657 -0.6523  0.0997
 9134SOL    HW245395   2.508  10.702   7.084  1.3139 -1.1533  0.6191
 9135SOL     OW45396   0.042   5.111   8.717 -0.3563  0.3093 -0.0515
 9135SOL    HW145397   0.131   5.115   8.681 -0.8436  2.1138 -1.1677
 9135SOL    HW245398  -0.015   5.105   8.640 -1.2463 -0.6398  0.6408
 9136SOL     OW45399   7.049   4.984   3.589  0.1372 -0.5624 -0.0417
 9136SOL    HW145400   7.085   4.900   3.617 -1.1897 -0.7371  1.2762
 9136SOL    HW245401   7.050   5.038   3.668  1.7414  0.9813 -1.0578
 9137SOL     OW45402  11.641   8.390   0.250 -0.0374 -0.2499  0.4268
 9137SOL    HW145403  11.647   8.298   0.274 -0.6973 -0.2703  0.5230
 9137SOL    HW245404  11.564   8.422   0.297 -0.0899  0.2374  0.0131
 9138SOL     OW45405   2.994   7.922  10.076 -0.6589  0.0187  0.2441
 9138SOL    HW145406   3.063   7.879  10.026 -1.3473 -0.7380 -0.0829
 9138SOL    HW245407   2.933   7.953  10.009 -1.3374 -0.5606  0.5815
 9139SOL     OW45408   4.520   8.203  12.226  1.0631 -0.0636  0.2044
 9139SOL    HW145409   4.502   8.290  12.262 -0.0972 -0.1224 -0.2127
 9139SOL    HW245410   4.534   8.148  12.303 -3.5974 -0.7000  0.8880
 9140SOL     OW45411   0.039   6.878  11.650 -0.6389  0.7367  0.2105
 9140SOL    HW145412   0.066   6.880  11.741 -0.0835  0.5717  0.0498
 9140SOL    HW245413   0.109   6.833  11.604 -0.8966  0.8466 -0.3071
 9141SOL     OW45414  10.540   7.205   9.352 -0.6031 -0.0506  0.3498
 9141SOL    HW145415  10.572   7.295   9.364 -0.0167 -0.3734  1.2998
 9141SOL    HW245416  10.460   7.215   9.301  0.2674  0.8922 -0.9002
 9142SOL     OW45417  13.471   3.585   8.498 -0.3951 -0.4951  0.2169
 9142SOL    HW145418  13.464   3.491   8.482  0.2892 -0.1661 -2.5272
 9142SOL    HW245419  13.411   3.625   8.435  1.5983  0.9787 -0.8820
 9143SOL     OW45420  12.804   4.006  10.393  0.4607 -0.2743  0.0418
 9143SOL    HW145421  12.752   4.073  10.437  1.1329 -0.0943  0.5658
 9143SOL    HW245422  12.794   4.026  10.300  0.3196  0.3056  0.1762
 9144SOL     OW45423   2.163   1.358   5.897  0.3616  0.5405  0.1785
 9144SOL    HW145424   2.112   1.289   5.854 -0.5203  0.2781  1.5746
 9144SOL    HW245425   2.200   1.315   5.974  1.9843  0.9742 -0.3171
 9145SOL     OW45426   7.784   6.460   5.710 -0.0676  0.0632  0.1817
 9145SOL    HW145427   7.824   6.384   5.668  1.4794  0.8209  0.2108
 9145SOL    HW245428   7.789   6.530   5.644 -4.4358 -0.5371 -1.1473
 9146SOL     OW45429  11.469   8.212  10.114 -0.8392  0.1635  0.0389
 9146SOL    HW145430  11.539   8.150  10.132 -0.3323  0.5251 -0.6392
 9146SOL    HW245431  11.434   8.185  10.029 -2.0536 -0.4842  0.7203
 9147SOL     OW45432  13.801  11.699   8.121  0.3218 -0.6460  0.0484
 9147SOL    HW145433  13.794  11.635   8.050  0.1054  0.8075 -1.2960
 9147SOL    HW245434  13.870  11.759   8.094 -1.4852  1.4558 -0.2573
 9148SOL     OW45435  10.018   6.189   0.229  0.0108  0.2359  0.1593
 9148SOL    HW145436  10.093   6.158   0.180  0.7452  0.9480  0.7994
 9148SOL    HW245437   9.965   6.237   0.165  1.6556  2.3651  0.3011
 9149SOL     OW45438   4.155   4.486   4.063 -0.3023  0.3835  0.9075
 9149SOL    HW145439   4.125   4.523   3.980 -1.1331 -0.2071  0.9336
 9149SOL    HW245440   4.247   4.463   4.048 -1.0150 -1.7871 -0.5946
 9150SOL     OW45441   3.171   6.333   5.853 -0.0823  0.0109 -0.7720
 9150SOL    HW145442   3.119   6.252   5.849 -0.1593 -0.0026  0.3271
 9150SOL    HW245443   3.246   6.315   5.797  0.2749 -1.1081  0.0213
 9151SOL     OW45444  12.253   9.774   6.398  0.1675  0.2862  0.1917
 9151SOL    HW145445  12.162   9.802   6.385  0.4743  0.8456 -0.8415
 9151SOL    HW245446  12.279   9.736   6.314  0.7466 -0.3037  0.6285
 9152SOL     OW45447  13.289   7.396   3.960 -0.5934 -0.1578  0.1572
 9152SOL    HW145448  13.369   7.394   3.907 -0.3865 -0.2432  0.4727
 9152SOL    HW245449  13.219   7.377   3.897 -0.3399 -0.3451 -0.0723
 9153SOL     OW45450   9.502   9.003   0.002 -0.2445  0.3296 -0.0918
 9153SOL    HW145451   9.486   9.085   0.048  0.2758 -0.3274  1.3035
 9153SOL    HW245452   9.439   8.942   0.040 -0.8687  0.1361 -1.3620
 9154SOL     OW45453   3.030   5.547   2.520  0.3077  0.7638 -0.3012
 9154SOL    HW145454   3.111   5.511   2.483 -0.6310 -1.2408 -0.5542
 9154SOL    HW245455   3.049   5.561   2.612  0.9820  0.4178 -0.3844
 9155SOL     OW45456   0.285   8.098  13.015  0.7982  0.3745  0.5869
 9155SOL    HW145457   0.252   8.183  12.987 -0.3071 -0.4421 -0.7061
 9155SOL    HW245458   0.352   8.119  13.080 -2.3019  2.1777  3.5283
 9156SOL     OW45459   4.410  11.195  12.455  0.1273  0.2334  0.4106
 9156SOL    HW145460   4.394  11.288  12.435 -1.0794  0.6942  2.9943
 9156SOL    HW245461   4.329  11.151  12.432 -0.0751  0.2168  1.1190
 9157SOL     OW45462   9.192   2.838  13.218  0.0463  0.6139 -0.0890
 9157SOL    HW145463   9.222   2.776  13.151  0.5267  0.3183  0.3853
 9157SOL    HW245464   9.102   2.857  13.194  0.2943  0.7340 -0.9841
 9158SOL     OW45465   4.852   0.681   8.554  0.6369 -0.6254  0.1495
 9158SOL    HW145466   4.791   0.755   8.548  0.0363 -1.1599 -0.4925
 9158SOL    HW245467   4.835   0.629   8.475  1.3300 -1.2381  0.3914
 9159SOL     OW45468   5.072   0.890   8.451 -0.3558  0.6203  0.7488
 9159SOL    HW145469   5.051   0.927   8.537  0.3186  0.1011  1.1509
 9159SOL    HW245470   5.076   0.795   8.466 -1.1337  0.4446 -0.0592
 9160SOL     OW45471  13.993   7.262   8.980  0.3099 -0.1515 -0.3953
 9160SOL    HW145472  13.925   7.241   8.917 -0.2884  0.1763  0.1372
 9160SOL    HW245473  14.051   7.186   8.980 -1.0179 -1.1934  0.4317
 9161SOL     OW45474   3.166   2.085   2.353  0.1336 -0.2903  0.2254
 9161SOL    HW145475   3.178   2.156   2.416  0.0426 -0.7413  0.7495
 9161SOL    HW245476   3.225   2.016   2.382 -0.0402 -0.5697 -0.0810
 9162SOL     OW45477   4.133   8.464   3.533 -0.5198 -0.5396 -0.1600
 9162SOL    HW145478   4.111   8.403   3.603  0.9210 -0.6769  0.2051
 9162SOL    HW245479   4.198   8.523   3.572 -0.9413  0.4375 -0.8856
 9163SOL     OW45480   3.463  13.085  12.348 -0.2131 -0.5965  0.1598
 9163SOL    HW145481   3.388  13.134  12.380  0.0056 -1.2706  1.8126
 9163SOL    HW245482   3.449  13.077  12.253 -0.9899  1.3207  0.0693
 9164SOL     OW45483   7.511  13.207   1.094  0.2977  0.1225 -0.1447
 9164SOL    HW145484   7.487  13.137   1.034 -0.5621  1.3984 -1.3683
 9164SOL    HW245485   7.430  13.226   1.142  0.8690 -0.6003  1.1654
 9165SOL     OW45486   9.814  11.108  11.302  0.3967  0.2908 -0.0097
 9165SOL    HW145487   9.817  11.044  11.373 -0.6560 -0.8508 -0.9528
 9165SOL    HW245488   9.784  11.189  11.345 -1.3763 -0.6751  0.7065
 9166SOL     OW45489  12.735   7.388   5.162  0.0034  0.2399 -0.0555
 9166SOL    HW145490  12.657   7.400   5.107 -0.4942 -0.5832  0.4577
 9166SOL    HW245491  12.706   7.409   5.250  0.5345  0.5562  0.0481
 9167SOL     OW45492   8.540   8.018  14.090  0.1686  0.3465  0.1403
 9167SOL    HW145493   8.510   8.052  14.006 -0.6683 -1.1275 -0.2016
 9167SOL    HW245494   8.634   8.037  14.091 -0.1249  1.9864 -0.3017
 9168SOL     OW45495  11.622   1.024   5.956 -0.1602 -0.1171  0.2872
 9168SOL    HW145496  11.686   0.953   5.948  3.2156  2.7685 -0.6173
 9168SOL    HW245497  11.554   1.002   5.891  0.4026 -2.7735  0.5017
 9169SOL     OW45498   9.746  10.945   4.189  0.5446  0.0210 -0.2228
 9169SOL    HW145499   9.713  11.023   4.233 -0.2532 -1.3039  1.6512
 9169SOL    HW245500   9.671  10.912   4.139  0.8293  0.3341 -0.8699
 9170SOL     OW45501   5.596   1.643   0.071  0.5625  0.4122 -0.3252
 9170SOL    HW145502   5.601   1.730   0.033  0.0878  0.6565  0.1611
 9170SOL    HW245503   5.525   1.648   0.135  2.5755  0.5347  2.0283
 9171SOL     OW45504  12.246   7.630  10.157  0.0207 -0.0677  0.4680
 9171SOL    HW145505  12.306   7.558  10.172  1.4756  0.9967 -0.0549
 9171SOL    HW245506  12.295   7.692  10.103 -1.4414  0.9746  0.2728
 9172SOL     OW45507  11.513   8.906  13.187  1.0638 -0.3072 -0.0273
 9172SOL    HW145508  11.562   8.966  13.244 -0.9409 -0.8079  2.3799
 9172SOL    HW245509  11.533   8.819  13.220 -0.2211 -0.6110 -0.0216
 9173SOL     OW45510   3.696  10.208   4.730  0.9840  0.1655  0.6963
 9173SOL    HW145511   3.697  10.118   4.699 -0.9255  0.1340  0.6042
 9173SOL    HW245512   3.687  10.201   4.825  1.2915  0.2523  0.7307
 9174SOL     OW45513   1.201   4.169  10.153  0.4029  0.3259 -0.0267
 9174SOL    HW145514   1.126   4.173  10.093  0.7105 -0.5187 -0.4903
 9174SOL    HW245515   1.230   4.078  10.149  0.5205  0.2855  1.3115
 9175SOL     OW45516   0.475  13.903  13.461 -0.0864  0.1166 -0.0189
 9175SOL    HW145517   0.543  13.860  13.513 -1.2608 -2.1094 -0.1966
 9175SOL    HW245518   0.491  13.875  13.371 -0.4372  0.6956 -0.2716
 9176SOL     OW45519  12.143   6.131   1.746  0.1143 -0.2475  0.1105
 9176SOL    HW145520  12.208   6.065   1.722  0.3709 -0.0092  0.1470
 9176SOL    HW245521  12.076   6.125   1.677  0.2319 -0.4160  0.0114
 9177SOL     OW45522   9.985   5.216  13.484  0.1622 -0.0637 -0.3666
 9177SOL    HW145523   9.968   5.289  13.544  0.9070 -1.1160  1.2196
 9177SOL    HW245524   9.976   5.253  13.397 -1.2565  1.4900  0.3784
 9178SOL     OW45525   7.870   8.731   0.654 -0.1099 -0.3008 -1.0053
 9178SOL    HW145526   7.941   8.769   0.602 -0.7652  0.0391 -1.6639
 9178SOL    HW245527   7.796   8.790   0.640 -0.8226 -1.2083 -1.1412
 9179SOL     OW45528   1.226  11.751   3.254 -0.6869 -0.4147 -0.4732
 9179SOL    HW145529   1.132  11.763   3.248 -0.7366 -0.6453 -0.1922
 9179SOL    HW245530   1.263  11.821   3.202 -1.0492 -1.3293 -2.0132
 9180SOL     OW45531  12.848  13.046   0.341  0.2130  0.5152  0.2654
 9180SOL    HW145532  12.814  13.080   0.425 -1.2465  1.2631 -0.5759
 9180SOL    HW245533  12.797  12.966   0.326  0.6697  0.2313  0.2171
 9181SOL     OW45534   5.465   3.008  10.459 -0.0530 -0.2107  0.1552
 9181SOL    HW145535   5.508   2.923  10.451 -0.9381 -0.5011 -1.9799
 9181SOL    HW245536   5.486   3.054  10.378 -0.4445  1.2335  0.8250
 9182SOL     OW45537  11.110  12.859   3.858  0.5976 -0.1320  0.0223
 9182SOL    HW145538  11.036  12.805   3.886  1.3286 -1.3003 -0.2150
 9182SOL    HW245539  11.087  12.889   3.770  0.0005  0.3085  0.3237
 9183SOL     OW45540   4.570   4.846   7.557  0.1647  0.2420 -0.0320
 9183SOL    HW145541   4.498   4.908   7.563  0.4728  0.8953 -2.2080
 9183SOL    HW245542   4.643   4.897   7.523  0.8459 -1.0109 -0.5063
 9184SOL     OW45543   5.235  10.803   3.915  0.7471  0.4146  0.3704
 9184SOL    HW145544   5.322  10.764   3.925  0.5290 -0.2001 -0.1143
 9184SOL    HW245545   5.253  10.895   3.895  1.2786  0.3664  0.6034
 9185SOL     OW45546   5.368  11.213   4.615  0.3808 -0.0147  0.1086
 9185SOL    HW145547   5.313  11.268   4.671 -1.9255 -0.4219 -1.6193
 9185SOL    HW245548   5.415  11.275   4.559 -1.2847  0.2908 -1.0079
 9186SOL     OW45549   0.825  12.322   3.073 -0.1580  0.2467 -0.5078
 9186SOL    HW145550   0.824  12.418   3.078  0.7517  0.1891  2.9605
 9186SOL    HW245551   0.916  12.301   3.053  0.0717  0.0977  0.6548
 9187SOL     OW45552   8.332   8.221   2.916 -0.0465 -0.4087  0.4862
 9187SOL    HW145553   8.331   8.139   2.865  0.0242  0.2038 -0.5260
 9187SOL    HW245554   8.364   8.195   3.002  0.7274 -1.3212 -0.0578
 9188SOL     OW45555   5.258   5.307  12.516  0.7206  0.4796 -0.2735
 9188SOL    HW145556   5.345   5.341  12.495  0.2916  0.8440 -1.5805
 9188SOL    HW245557   5.247   5.231  12.457  0.5852 -0.2423  0.6631
 9189SOL     OW45558   9.530  12.662   7.389  0.3369  0.0785 -0.2141
 9189SOL    HW145559   9.488  12.731   7.338 -0.1395 -0.1504 -0.1293
 9189SOL    HW245560   9.561  12.707   7.468  0.4387  0.2866 -0.3705
 9190SOL     OW45561   1.671  10.403   1.041  0.1499  0.7350 -0.2853
 9190SOL    HW145562   1.626  10.480   1.076  1.0510  1.1425  0.0294
 9190SOL    HW245563   1.642  10.397   0.950 -1.4831  0.2409  0.2453
 9191SOL     OW45564   4.302   9.311   0.080 -0.5350  0.1379 -0.1951
 9191SOL    HW145565   4.299   9.407   0.084 -2.7828  0.1143 -0.2948
 9191SOL    HW245566   4.342   9.286   0.164  0.3913  1.1349 -0.2988
 9192SOL     OW45567   0.369   2.931   4.059  0.7673  0.6692 -0.2226
 9192SOL    HW145568   0.287   2.916   4.105  0.6711  0.6790 -0.3921
 9192SOL    HW245569   0.421   2.852   4.076  0.3800  0.2757 -0.8603
 9193SOL     OW45570   6.599   1.323   6.959 -0.2532 -0.8000 -0.2357
 9193SOL    HW145571   6.671   1.281   7.006 -1.0333 -1.7542  0.1336
 9193SOL    HW245572   6.608   1.294   6.869 -0.4785 -1.3597 -0.0840
 9194SOL     OW45573   3.129   5.068   2.399  1.0136  0.0780 -0.6818
 9194SOL    HW145574   3.132   5.154   2.358 -0.2102  1.0688  1.1489
 9194SOL    HW245575   3.075   5.015   2.341 -0.3438  1.3059 -0.5769
 9195SOL     OW45576  10.629   5.383   9.585  0.2777 -0.4693 -0.2579
 9195SOL    HW145577  10.687   5.329   9.531  2.1109  0.5470  0.6245
 9195SOL    HW245578  10.685   5.415   9.656 -1.3574  0.6354  0.5825
 9196SOL     OW45579   1.184  10.797  12.821 -0.2436  0.3848 -0.2636
 9196SOL    HW145580   1.095  10.765  12.833  0.2455 -0.5797  0.9761
 9196SOL    HW245581   1.223  10.737  12.757 -0.4129  0.6894 -0.6574
 9197SOL     OW45582   6.362  11.403  12.292 -0.6699  0.0164  0.6141
 9197SOL    HW145583   6.438  11.351  12.319  0.8185  1.7661  0.0676
 9197SOL    HW245584   6.399  11.471  12.235 -2.6718  0.9202  0.2938
 9198SOL     OW45585  10.987   2.582  10.662  0.0284  0.4980  0.2515
 9198SOL    HW145586  10.928   2.618  10.595 -1.1924 -0.0855  0.9671
 9198SOL    HW245587  10.944   2.603  10.745  0.7141 -0.1602  0.7808
 9199SOL     OW45588  12.962   5.455  12.976  0.0885 -0.2084 -0.1626
 9199SOL    HW145589  12.930   5.428  12.891  2.1501 -2.0040 -0.4661
 9199SOL    HW245590  13.054   5.427  12.977  0.1982 -0.0343  2.5475
 9200SOL     OW45591   1.546  13.706   0.143 -0.2366  0.9827 -0.0108
 9200SOL    HW145592   1.624  13.758   0.163  1.4261 -1.6601  0.8064
 9200SOL    HW245593   1.554  13.686   0.050  0.8862 -0.4332  0.3502
 9201SOL     OW45594  13.677   2.275   8.259  0.7897 -0.4100 -0.4050
 9201SOL    HW145595  13.745   2.237   8.315  0.6507  0.1973  0.1951
 9201SOL    HW245596  13.595   2.236   8.291  0.8515 -1.2194 -1.1934
 9202SOL     OW45597   4.294  11.959   0.982 -0.8280  0.6011  0.0513
 9202SOL    HW145598   4.327  12.043   1.014 -1.2156  0.8215 -0.1184
 9202SOL    HW245599   4.264  11.914   1.061 -0.7866  0.6952  0.1208
 9203SOL     OW45600   0.552  13.873   5.369 -0.1140 -0.2760 -0.4352
 9203SOL    HW145601   0.533  13.820   5.292  0.9431 -1.5697  0.1378
 9203SOL    HW245602   0.620  13.934   5.341 -0.9768  0.4548 -0.9693
 9204SOL     OW45603   4.988  14.129   1.426 -0.3211  0.0261  0.2691
 9204SOL    HW145604   5.075  14.159   1.452  0.4825 -1.3642 -0.6485
 9204SOL    HW245605   5.003  14.082   1.344 -1.7820 -1.1154  0.6106
 9205SOL     OW45606   7.096   7.334   9.184 -0.0916 -0.0587  0.2090
 9205SOL    HW145607   7.126   7.424   9.173 -0.8756  0.1857  0.0039
 9205SOL    HW245608   7.157   7.282   9.131  0.0831  0.4029 -0.0470
 9206SOL     OW45609   4.008  13.655   9.065  0.1390  0.4613  0.1810
 9206SOL    HW145610   4.079  13.595   9.087 -1.3919 -2.2637 -1.6708
 9206SOL    HW245611   3.928  13.606   9.085 -1.2204  1.1654 -2.8667
 9207SOL     OW45612  12.721   8.987   6.914 -0.1765 -0.1049 -0.0259
 9207SOL    HW145613  12.642   8.990   6.860 -0.4755  1.6150  0.4402
 9207SOL    HW245614  12.692   8.951   6.998 -0.2709 -0.2877 -0.1360
 9208SOL     OW45615  12.410   4.893  10.759 -0.0190  0.2344 -0.0786
 9208SOL    HW145616  12.480   4.920  10.818 -0.2433  0.4325  0.1025
 9208SOL    HW245617  12.330   4.912  10.808 -0.1802 -1.4508  0.3550
 9209SOL     OW45618   8.906   1.221   7.197 -0.1237  0.2209 -0.3056
 9209SOL    HW145619   8.878   1.209   7.288 -0.9380  1.7963 -0.2995
 9209SOL    HW245620   8.998   1.197   7.197 -0.4024 -0.9571  0.6543
 9210SOL     OW45621   7.870   0.669   8.570  0.6123  0.1014 -0.2889
 9210SOL    HW145622   7.850   0.581   8.601  0.1770 -0.1095 -1.1274
 9210SOL    HW245623   7.937   0.656   8.503  0.8218  0.4425 -0.1449
 9211SOL     OW45624  11.211  11.057   1.403  0.1217  0.1844  0.3300
 9211SOL    HW145625  11.306  11.047   1.408  0.0546 -0.6215  0.1491
 9211SOL    HW245626  11.189  11.113   1.478  0.3663 -2.5093  2.5883
 9212SOL     OW45627  10.847  11.398   8.242 -0.0463  0.1138 -0.3871
 9212SOL    HW145628  10.939  11.401   8.270 -0.4289 -0.5988  1.0873
 9212SOL    HW245629  10.808  11.477   8.280  0.0439  0.6540 -1.3999
 9213SOL     OW45630  13.357   2.561   5.066 -0.0449  0.1022 -0.2860
 9213SOL    HW145631  13.368   2.466   5.066 -2.0727 -0.2281 -2.2593
 9213SOL    HW245632  13.434   2.594   5.020 -0.0437 -0.7273 -0.9112
 9214SOL     OW45633   7.442   9.166   3.834 -0.3721  0.0605  0.2151
 9214SOL    HW145634   7.511   9.143   3.771 -0.7177 -0.6143  0.0755
 9214SOL    HW245635   7.388   9.088   3.840 -0.8435  0.4175  0.7033
 9215SOL     OW45636   2.013  10.074   3.825  0.0397  0.5493 -0.3196
 9215SOL    HW145637   2.077  10.097   3.892 -0.7543 -0.3108  0.7787
 9215SOL    HW245638   1.932  10.058   3.873 -0.4459 -0.5329 -1.4173
 9216SOL     OW45639  10.967  13.765  13.022  0.5359 -0.0486 -0.0856
 9216SOL    HW145640  10.941  13.853  13.049 -0.5027 -0.6191  0.8222
 9216SOL    HW245641  10.891  13.732  12.974  0.2754 -1.0421  0.9823
 9217SOL     OW45642   0.445  12.430   9.484  1.2510 -0.0748 -0.1305
 9217SOL    HW145643   0.449  12.525   9.484  1.7205 -0.0857  0.5800
 9217SOL    HW245644   0.465  12.405   9.574 -0.4401 -0.7990  0.0823
 9218SOL     OW45645   5.308   3.740   9.172 -0.0569 -0.4842  0.2700
 9218SOL    HW145646   5.302   3.742   9.267  2.3293  1.4194  0.4603
 9218SOL    HW245647   5.355   3.659   9.152 -0.1906 -0.6775  0.7273
 9219SOL     OW45648  13.688   5.065   6.448 -0.0540 -0.4033  0.7993
 9219SOL    HW145649  13.657   5.114   6.372  1.1045  0.6915  0.9987
 9219SOL    HW245650  13.609   5.044   6.497 -0.8049 -0.9833 -0.6017
 9220SOL     OW45651   4.116   4.644   0.766 -0.7508  0.4275 -0.5860
 9220SOL    HW145652   4.079   4.572   0.817  1.0285 -1.8928 -2.3816
 9220SOL    HW245653   4.073   4.638   0.681  1.1075 -0.0767 -1.5365
 9221SOL     OW45654   9.668   9.545   8.467  0.2882 -0.0385  0.2351
 9221SOL    HW145655   9.748   9.495   8.482 -0.3224 -1.3745 -0.6600
 9221SOL    HW245656   9.637   9.568   8.554  2.8872  2.6839  0.5869
 9222SOL     OW45657  13.232  10.932  12.658  0.4354  0.5083  0.3763
 9222SOL    HW145658  13.304  10.971  12.608 -1.2823  2.1665 -0.9546
 9222SOL    HW245659  13.160  10.923  12.594 -0.3084 -1.9060  1.4345
 9223SOL     OW45660   4.442   0.425   1.131  0.1145 -0.1377 -0.5763
 9223SOL    HW145661   4.367   0.443   1.188  1.3849 -0.5317  1.3007
 9223SOL    HW245662   4.404   0.381   1.055 -1.5793 -0.1350  0.2106
 9224SOL     OW45663   4.601   7.149  11.907  0.2475 -0.0532 -0.3524
 9224SOL    HW145664   4.535   7.193  11.962  0.2662 -0.2847 -0.1450
 9224SOL    HW245665   4.620   7.068  11.953  0.0424 -0.3904 -0.8588
 9225SOL     OW45666   9.875   7.296  12.938 -0.2962 -0.0693  0.4174
 9225SOL    HW145667   9.810   7.343  12.991 -0.7827 -0.8988  0.5745
 9225SOL    HW245668   9.913   7.232  12.998 -0.6518 -0.8297 -0.1616
 9226SOL     OW45669   0.569   9.235   1.761 -0.2026 -0.2242 -0.8811
 9226SOL    HW145670   0.656   9.210   1.731  0.4879  1.4222 -0.3379
 9226SOL    HW245671   0.583   9.271   1.849 -1.7952 -2.2635  0.3143
 9227SOL     OW45672   1.788   7.345   7.465  0.0879 -0.3357  0.0810
 9227SOL    HW145673   1.874   7.320   7.432 -0.5534 -1.1083 -1.0603
 9227SOL    HW245674   1.775   7.289   7.541 -0.5790 -2.2894 -1.4090
 9228SOL     OW45675   2.589  13.440  13.372 -0.2856 -0.4221  0.4034
 9228SOL    HW145676   2.510  13.420  13.322  0.3622  0.1546 -0.9017
 9228SOL    HW245677   2.561  13.508  13.434 -1.0573 -1.0121  0.7223
 9229SOL     OW45678   1.184   3.505  11.315 -0.3186 -0.1211  0.3634
 9229SOL    HW145679   1.177   3.459  11.398  0.3098  0.0669  0.5251
 9229SOL    HW245680   1.274   3.488  11.286 -0.3124  0.3974  0.0726
 9230SOL     OW45681   2.144   2.170   1.533  0.2402 -0.1267 -0.5461
 9230SOL    HW145682   2.072   2.131   1.483 -0.3893  1.5154 -0.9845
 9230SOL    HW245683   2.199   2.095   1.558 -0.3160 -1.1777 -2.2749
 9231SOL     OW45684  12.854   8.789   0.408 -0.2321  0.2522  0.3179
 9231SOL    HW145685  12.945   8.802   0.436  0.2716  1.0947 -1.5464
 9231SOL    HW245686  12.844   8.693   0.404 -0.2480  0.0956  2.9130
 9232SOL     OW45687  11.756   4.330  13.430  0.1236 -0.2045 -0.3611
 9232SOL    HW145688  11.764   4.318  13.335 -1.1761 -0.7867 -0.4277
 9232SOL    HW245689  11.834   4.289  13.467 -0.0792 -1.3087 -1.1072
 9233SOL     OW45690   2.765  13.021  11.654  0.0188  0.0774 -0.1361
 9233SOL    HW145691   2.708  12.980  11.589  0.6855  0.6836 -1.1444
 9233SOL    HW245692   2.854  13.001  11.624  0.3408  0.7910  0.3029
 9234SOL     OW45693  10.342   0.818  12.496  0.1847  0.5073 -0.1038
 9234SOL    HW145694  10.264   0.808  12.552 -0.3982 -1.4192 -1.1639
 9234SOL    HW245695  10.407   0.760  12.535  1.1160  2.0163  0.7022
 9235SOL     OW45696   0.173  12.687   6.171 -0.4298 -0.6843  0.7823
 9235SOL    HW145697   0.100  12.749   6.166  0.6756  0.7386  1.4473
 9235SOL    HW245698   0.223  12.715   6.247  2.6311  0.4806 -1.4525
 9236SOL     OW45699   8.375   6.165   9.589  0.1835  0.2027 -0.1222
 9236SOL    HW145700   8.427   6.141   9.666 -0.4216  0.4396  0.3819
 9236SOL    HW245701   8.339   6.083   9.557 -1.2953  0.2942  1.1609
 9237SOL     OW45702   2.652  10.153  13.037 -0.2579  0.1880 -0.0984
 9237SOL    HW145703   2.601  10.225  12.999 -2.5585  0.5678  3.2439
 9237SOL    HW245704   2.587  10.085  13.056  0.9116 -0.4924  1.7722
 9238SOL     OW45705   7.134   4.186   9.106 -0.2457 -0.6335 -0.3544
 9238SOL    HW145706   7.210   4.130   9.121 -0.8438 -1.0151  1.5889
 9238SOL    HW245707   7.158   4.270   9.145 -0.7326 -0.6946  0.0909
 9239SOL     OW45708   8.786   9.446  10.325  0.3926  0.4143  0.0165
 9239SOL    HW145709   8.824   9.359  10.316 -2.0007 -0.6738 -0.2329
 9239SOL    HW245710   8.757   9.450  10.417 -1.7220 -0.1026 -0.5637
 9240SOL     OW45711   2.305   2.729  12.601  0.0349 -0.0379 -0.0712
 9240SOL    HW145712   2.256   2.778  12.666  0.1229  1.1302 -0.8567
 9240SOL    HW245713   2.248   2.725  12.525  1.3446  1.9916 -1.2690
 9241SOL     OW45714   7.297   8.777  11.461  0.5625  0.4123 -0.2953
 9241SOL    HW145715   7.272   8.733  11.380  0.4112  0.6439 -0.3775
 9241SOL    HW245716   7.230   8.750  11.525 -0.0590  1.2393 -0.5821
 9242SOL     OW45717   2.020  10.671   0.014  0.5622 -0.2585 -0.0525
 9242SOL    HW145718   2.067  10.754   0.017 -0.0127  0.0986 -0.7186
 9242SOL    HW245719   2.074  10.611   0.066  0.7113  0.6606  0.8864
 9243SOL     OW45720  13.565   0.885  13.067  0.3739 -0.1492  0.0740
 9243SOL    HW145721  13.610   0.959  13.108 -2.0514  1.4236  0.0538
 9243SOL    HW245722  13.504   0.925  13.006 -0.5751 -2.2205 -0.4015
 9244SOL     OW45723   7.792  13.650  10.347  0.8775 -0.2830  0.4474
 9244SOL    HW145724   7.789  13.555  10.337  1.1138 -0.5364  2.3603
 9244SOL    HW245725   7.719  13.670  10.405  0.3680  0.8178 -0.5342
 9245SOL     OW45726   0.757   0.938   4.167  0.6933  0.3094 -0.1831
 9245SOL    HW145727   0.818   1.007   4.194 -0.8504  1.8528 -0.4729
 9245SOL    HW245728   0.699   0.981   4.104 -1.3598 -0.7745  0.8681
 9246SOL     OW45729   4.857   4.971   0.586 -0.5068 -0.3082 -0.1353
 9246SOL    HW145730   4.891   5.054   0.619  1.0662 -1.3348  0.9528
 9246SOL    HW245731   4.777   4.956   0.637 -0.0233 -0.1447  0.6889
 9247SOL     OW45732   7.152  13.289   1.622 -0.0910  0.2748  0.1112
 9247SOL    HW145733   7.206  13.211   1.637  0.0513  0.3916  0.1999
 9247SOL    HW245734   7.152  13.335   1.706  1.1396  1.2119 -0.3760
 9248SOL     OW45735   0.855  13.332   8.767 -0.1466  0.2661 -0.0895
 9248SOL    HW145736   0.857  13.417   8.723  0.5646  0.2162 -0.1564
 9248SOL    HW245737   0.762  13.315   8.780 -0.3017  1.0059 -0.1696
 9249SOL     OW45738   7.763   1.097   7.715  0.1466 -0.3608  0.7937
 9249SOL    HW145739   7.840   1.071   7.764  0.4300 -1.2844 -0.1062
 9249SOL    HW245740   7.754   1.191   7.732  0.6897 -0.5062  1.9479
 9250SOL     OW45741   1.129   2.924   4.185  0.2076  0.3520  0.0795
 9250SOL    HW145742   1.178   2.940   4.104  1.8635  0.7133  1.1053
 9250SOL    HW245743   1.039   2.947   4.163  0.6330  0.5399 -1.6300
 9251SOL     OW45744   7.925   9.055  10.667 -0.0388  0.0926 -0.6626
 9251SOL    HW145745   7.995   9.117  10.684  1.3952 -1.7750  0.5912
 9251SOL    HW245746   7.861   9.104  10.615  1.1813  2.4664 -0.0295
 9252SOL     OW45747   7.374   7.813   8.421  0.0711  0.1807 -0.2475
 9252SOL    HW145748   7.397   7.744   8.359 -1.2162 -0.4616 -0.0504
 9252SOL    HW245749   7.451   7.821   8.477  0.0411 -1.5212  0.0977
 9253SOL     OW45750  13.447   9.834  13.892  0.4765 -0.1565  0.0570
 9253SOL    HW145751  13.492   9.751  13.876 -1.4608 -0.9278 -1.7235
 9253SOL    HW245752  13.362   9.809  13.928 -0.0609  1.0560 -0.3333
 9254SOL     OW45753   1.549   8.328  13.505  0.2030 -0.1873 -0.0743
 9254SOL    HW145754   1.478   8.343  13.568 -0.5101 -2.2488 -0.3082
 9254SOL    HW245755   1.589   8.246  13.534  0.9989 -0.2596 -1.3236
 9255SOL     OW45756  11.810   0.551   7.774  0.4369  0.6583 -0.6881
 9255SOL    HW145757  11.868   0.495   7.827  0.4713  0.6777 -0.7052
 9255SOL    HW245758  11.722   0.519   7.794  0.4351  0.8048 -0.4569
 9256SOL     OW45759  11.046   9.298   2.972  0.3384 -0.0730  0.5527
 9256SOL    HW145760  11.028   9.374   2.917  1.1036 -1.0000 -1.0337
 9256SOL    HW245761  10.974   9.298   3.036  0.3061  1.9330  0.5755
 9257SOL     OW45762   6.831   1.706   3.936  1.0462 -0.2449 -0.0872
 9257SOL    HW145763   6.812   1.764   4.010 -0.4023  1.1543 -1.4581
 9257SOL    HW245764   6.745   1.689   3.897  1.6559 -1.8570 -0.8246
 9258SOL     OW45765  10.255   4.645  13.807 -0.5153 -0.4025  0.5982
 9258SOL    HW145766  10.288   4.573  13.753 -1.1466 -1.0882  1.1010
 9258SOL    HW245767  10.208   4.701  13.747  0.7228  0.0812  0.0362
 9259SOL     OW45768   7.382  12.467  13.930 -0.5570  0.1328 -0.5861
 9259SOL    HW145769   7.449  12.512  13.983  0.1575  0.0983 -1.4329
 9259SOL    HW245770   7.301  12.481  13.978 -0.0348  0.6659  0.1812
 9260SOL     OW45771   4.857   1.481   8.734  0.5612 -0.4132  0.1707
 9260SOL    HW145772   4.926   1.505   8.672 -0.4472 -1.3100 -1.3535
 9260SOL    HW245773   4.806   1.414   8.689 -1.0339 -0.1176  1.4469
 9261SOL     OW45774  10.672   8.801   8.771  0.1029  0.1204 -0.2229
 9261SOL    HW145775  10.682   8.888   8.808  0.4397  0.5757 -1.3348
 9261SOL    HW245776  10.690   8.741   8.843  1.2511  0.9655  0.2163
 9262SOL     OW45777   1.683   2.563   2.108  0.2380  0.1135 -0.5677
 9262SOL    HW145778   1.616   2.517   2.058  0.2923 -0.3441 -0.2242
 9262SOL    HW245779   1.634   2.615   2.172  0.1993  0.0154 -0.5173
 9263SOL     OW45780  13.147   0.088   9.136 -0.2074  0.0818 -0.1060
 9263SOL    HW145781  13.098   0.048   9.208  1.1459 -0.5919  0.4752
 9263SOL    HW245782  13.105   0.173   9.123 -0.0010  0.5776  2.0350
 9264SOL     OW45783  13.835   8.470   6.302  0.1468 -0.2080 -0.3593
 9264SOL    HW145784  13.816   8.381   6.271  0.9693 -0.3622 -0.4575
 9264SOL    HW245785  13.874   8.514   6.227 -0.4492  0.3027 -0.3681
 9265SOL     OW45786   8.792  13.866   6.658  0.1437  0.1433 -0.5464
 9265SOL    HW145787   8.882  13.833   6.657  0.3524  0.5842  1.1105
 9265SOL    HW245788   8.799  13.954   6.695 -0.9352  0.2862 -0.6640
 9266SOL     OW45789   3.078   8.794   2.948  0.1829  0.0253  0.0820
 9266SOL    HW145790   3.047   8.825   3.033 -2.0585  0.6388 -0.8617
 9266SOL    HW245791   3.109   8.873   2.903  0.4917 -0.1375  0.0102
 9267SOL     OW45792   8.800   0.324  12.708 -0.4941  0.2399 -0.5176
 9267SOL    HW145793   8.847   0.394  12.754 -0.1147 -0.4061  0.0995
 9267SOL    HW245794   8.722   0.367  12.672  0.1902  1.1710 -0.9300
 9268SOL     OW45795   8.933   0.114  12.349  0.1293 -0.3270  0.5526
 9268SOL    HW145796   8.935   0.181  12.281 -2.2943  0.0716  0.7796
 9268SOL    HW245797   9.001   0.140  12.411  0.9861  0.4394 -0.6682
 9269SOL     OW45798   6.082   8.418   3.649  0.3787  0.0574 -0.4459
 9269SOL    HW145799   6.144   8.378   3.709 -0.3079  0.1742  0.3499
 9269SOL    HW245800   6.106   8.384   3.563  1.0928 -0.4441 -0.0522
 9270SOL     OW45801   0.585  11.018   7.748  0.2128 -0.1758  0.1853
 9270SOL    HW145802   0.655  11.001   7.686 -0.4852  1.4063 -1.0979
 9270SOL    HW245803   0.602  11.107   7.781 -1.3715  0.4334 -0.4905
 9271SOL     OW45804   6.783   9.859   8.699  0.2773 -0.0278  0.1189
 9271SOL    HW145805   6.698   9.858   8.743  1.0346 -1.2141  1.6436
 9271SOL    HW245806   6.795   9.770   8.666  1.2509 -0.0962  0.6045
 9272SOL     OW45807   1.659   3.810  14.080  0.0640  0.0055 -0.0797
 9272SOL    HW145808   1.722   3.747  14.046  1.0720 -0.0117  1.6789
 9272SOL    HW245809   1.623   3.768  14.158 -2.4132 -0.1153 -1.1921
 9273SOL     OW45810   9.358   4.664   8.003 -0.4822  0.2180 -0.0124
 9273SOL    HW145811   9.271   4.683   7.969  0.2694 -1.2553 -3.2078
 9273SOL    HW245812   9.365   4.568   7.999  0.9982  0.2498  0.9458
 9274SOL     OW45813   3.863   9.801   8.141  0.0853  1.1762  0.1243
 9274SOL    HW145814   3.930   9.809   8.073  0.0088 -1.2809 -0.3212
 9274SOL    HW245815   3.911   9.774   8.219 -0.2564  0.2508  0.0249
 9275SOL     OW45816   8.418  12.800   2.166 -0.2584  0.0504  0.1655
 9275SOL    HW145817   8.471  12.866   2.210 -0.8019 -0.8664  2.2976
 9275SOL    HW245818   8.349  12.850   2.122  0.2352  0.9961  0.4529
 9276SOL     OW45819   3.659  11.026  11.627  0.1823  0.2427  0.3164
 9276SOL    HW145820   3.739  10.984  11.598 -0.0715  0.6501 -1.0323
 9276SOL    HW245821   3.686  11.083  11.699  1.3146  1.2323 -0.8535
 9277SOL     OW45822   2.004   7.887  12.765 -0.1919 -0.4864 -0.2861
 9277SOL    HW145823   2.023   7.900  12.672 -0.3854 -2.3048 -0.6243
 9277SOL    HW245824   2.004   7.975  12.802  0.4117  0.2371 -1.8997
 9278SOL     OW45825   7.269   0.939   0.625 -0.7560  0.0623 -0.0251
 9278SOL    HW145826   7.180   0.955   0.656 -0.4418  0.7391  0.5433
 9278SOL    HW245827   7.312   1.024   0.629 -0.1104 -0.2376 -0.3977
 9279SOL     OW45828  12.715  11.281   2.176  0.1196 -0.3233  0.0524
 9279SOL    HW145829  12.804  11.297   2.144  0.1502 -2.0947 -0.8386
 9279SOL    HW245830  12.664  11.265   2.098 -0.7813 -0.3391  0.6304
 9280SOL     OW45831   2.486   4.443   9.833  0.2127  0.1136  0.4294
 9280SOL    HW145832   2.562   4.427   9.776  1.1611  0.4230  1.5706
 9280SOL    HW245833   2.511   4.405   9.917 -0.0572  2.0185  1.4193
 9281SOL     OW45834  13.753   7.073   2.697  0.3707 -0.3137  0.2499
 9281SOL    HW145835  13.699   7.069   2.618  0.9491  0.2608 -0.1888
 9281SOL    HW245836  13.698   7.113   2.763  0.2477  0.2433 -0.1855
 9282SOL     OW45837  11.120  11.048  10.313 -0.0551 -0.2584 -0.2987
 9282SOL    HW145838  11.164  11.084  10.390 -0.1987 -0.4873 -0.1083
 9282SOL    HW245839  11.027  11.048  10.336  0.0241 -1.7444  0.1383
 9283SOL     OW45840   0.611  13.020   1.998  0.1837 -0.1908  0.0927
 9283SOL    HW145841   0.663  13.010   1.918 -0.2465 -0.6491 -0.1386
 9283SOL    HW245842   0.636  12.945   2.051 -1.9748 -1.7918 -1.0247
 9284SOL     OW45843  13.466   8.417   7.959 -0.5109 -0.2730  0.3593
 9284SOL    HW145844  13.474   8.478   7.886 -0.4754 -0.9201 -0.1856
 9284SOL    HW245845  13.395   8.358   7.934 -0.3788 -0.6108  0.7668
 9285SOL     OW45846   3.201  13.733   0.565  0.0681 -0.0062  0.4738
 9285SOL    HW145847   3.225  13.751   0.655  1.8756 -0.2709  0.0905
 9285SOL    HW245848   3.285  13.722   0.520 -0.8019 -0.3555 -1.1343
 9286SOL     OW45849   5.151   1.461  10.969 -0.2041 -0.2368  0.1114
 9286SOL    HW145850   5.232   1.511  10.983  0.1234 -0.7958  0.2346
 9286SOL    HW245851   5.160   1.427  10.880 -1.5309  1.9315 -0.9336
 9287SOL     OW45852   1.858   8.756  10.806 -0.1117 -0.7670 -0.6416
 9287SOL    HW145853   1.895   8.840  10.833 -0.1401 -0.5191 -1.3646
 9287SOL    HW245854   1.846   8.708  10.888  0.1359 -0.1643 -0.2452
 9288SOL     OW45855  13.253  11.252   0.251 -0.1687 -0.0515 -0.2104
 9288SOL    HW145856  13.209  11.327   0.211  0.7383  0.8843  0.5112
 9288SOL    HW245857  13.204  11.176   0.218  0.8317  0.5920 -3.5144
 9289SOL     OW45858  10.484   9.761   5.957 -0.1449  0.6421  0.1114
 9289SOL    HW145859  10.528   9.705   5.893 -0.1488  0.1586  0.5246
 9289SOL    HW245860  10.467   9.843   5.910  1.5081  0.9744  0.0454
 9290SOL     OW45861   9.902  11.162  10.347 -0.1562  0.7475 -0.5544
 9290SOL    HW145862   9.964  11.169  10.275  1.7224  1.7604  1.0644
 9290SOL    HW245863   9.955  11.136  10.422 -1.8205  0.9385  0.7478
 9291SOL     OW45864   3.809  10.038   0.450 -0.6852  0.3388  0.6405
 9291SOL    HW145865   3.772  10.069   0.367  0.4445  0.1947  0.0682
 9291SOL    HW245866   3.870   9.969   0.425 -1.1347 -0.4820  1.6924
 9292SOL     OW45867   4.662   3.597   2.015  0.4621  0.2433  0.1558
 9292SOL    HW145868   4.650   3.609   1.921  0.4882 -0.1716  0.0944
 9292SOL    HW245869   4.577   3.565   2.046  0.8785 -1.0768  0.0072
 9293SOL     OW45870   5.969   3.083  11.613  0.3073  0.0375 -0.0826
 9293SOL    HW145871   5.962   2.996  11.654 -2.7497  1.3000  2.4708
 9293SOL    HW245872   5.902   3.084  11.546 -1.3153  1.0886  1.4699
 9294SOL     OW45873   7.890   9.365  10.781  0.6016 -0.4950  0.7422
 9294SOL    HW145874   7.875   9.452  10.743 -1.3178  0.0129  2.4889
 9294SOL    HW245875   7.969   9.333  10.736  0.0772  1.1741 -1.5727
 9295SOL     OW45876   4.249   6.971   6.589  0.0397 -0.2693  0.7632
 9295SOL    HW145877   4.288   6.884   6.600  0.8329  0.1404  1.3246
 9295SOL    HW245878   4.181   6.959   6.524  0.2854 -1.2732  0.6780
 9296SOL     OW45879   9.738   5.590   7.438 -0.5237 -0.8617  0.5777
 9296SOL    HW145880   9.646   5.589   7.410 -0.9197  0.0053  1.7718
 9296SOL    HW245881   9.786   5.619   7.360 -1.3776 -0.3499  0.2303
 9297SOL     OW45882   4.720   9.847   7.144 -0.1317 -0.1613  0.3252
 9297SOL    HW145883   4.759   9.916   7.091  0.3694 -1.2139 -0.7471
 9297SOL    HW245884   4.638   9.826   7.099  1.1993 -2.3828 -1.2451
 9298SOL     OW45885   5.601   1.382  13.583 -0.3971  0.7529 -0.3165
 9298SOL    HW145886   5.682   1.351  13.624  0.7842  2.7765 -1.0011
 9298SOL    HW245887   5.535   1.317  13.609  1.3755 -0.8447  0.4332
 9299SOL     OW45888   1.563  10.655   9.577  0.0975  0.5788  0.1945
 9299SOL    HW145889   1.479  10.684   9.544  0.3105  0.9448 -0.0323
 9299SOL    HW245890   1.613  10.735   9.591  0.2861  0.3855  0.6615
 9300SOL     OW45891   7.689   8.744   1.056 -0.2083 -0.5185 -0.4197
 9300SOL    HW145892   7.595   8.725   1.056 -0.3473  0.1466 -0.7989
 9300SOL    HW245893   7.706   8.782   1.142 -0.6146  0.8825 -0.9335
 9301SOL     OW45894  10.740   4.917  12.088 -0.0470 -0.5131  0.5426
 9301SOL    HW145895  10.773   4.927  11.998  0.1522 -0.5093  0.6145
 9301SOL    HW245896  10.801   4.968  12.141  0.6457 -1.6063  0.8370
 9302SOL     OW45897   4.230   0.609   3.793 -0.1344 -0.6552 -0.2082
 9302SOL    HW145898   4.291   0.560   3.849 -0.2162 -0.3007  0.1960
 9302SOL    HW245899   4.260   0.700   3.799 -0.6742 -0.4836 -0.0411
 9303SOL     OW45900  12.881   8.262   2.266  0.0950 -0.1421 -0.3997
 9303SOL    HW145901  12.851   8.292   2.352 -1.1390 -1.1975 -0.4378
 9303SOL    HW245902  12.930   8.182   2.284 -0.7217 -0.7311 -0.7055
 9304SOL     OW45903  12.511  11.382   8.493 -0.0084 -0.2529 -0.0744
 9304SOL    HW145904  12.490  11.289   8.497 -0.9432 -0.0222  0.7468
 9304SOL    HW245905  12.461  11.421   8.564  0.9745  0.7721  0.0874
 9305SOL     OW45906   0.025  10.696   7.316  0.3868 -0.1883  0.0559
 9305SOL    HW145907   0.025  10.603   7.337  0.4658 -0.3969 -0.8227
 9305SOL    HW245908   0.034  10.740   7.401 -1.4610 -0.9181  0.6886
 9306SOL     OW45909   9.002   0.837   2.689 -0.1330  0.3332 -0.2927
 9306SOL    HW145910   8.952   0.772   2.738  1.7019 -1.8184 -1.0694
 9306SOL    HW245911   8.945   0.861   2.616  0.0415 -2.3928 -1.4278
 9307SOL     OW45912   3.066   1.438  13.452  0.2020  0.3508 -0.0511
 9307SOL    HW145913   3.103   1.498  13.388 -0.4330 -1.3185 -2.0653
 9307SOL    HW245914   2.982   1.478  13.476  0.5768  1.1271  0.0049
 9308SOL     OW45915   0.375  10.976   8.503  0.3366  0.3209 -0.5191
 9308SOL    HW145916   0.380  10.904   8.441  0.3248  1.1079 -1.4592
 9308SOL    HW245917   0.390  11.054   8.450 -0.0596  1.0410  0.4063
 9309SOL     OW45918   3.059  11.686   3.563 -0.3790 -0.1029 -0.5729
 9309SOL    HW145919   3.094  11.642   3.485  1.6144 -1.7345  1.1398
 9309SOL    HW245920   3.000  11.622   3.602 -1.7935  0.9115 -0.9782
 9310SOL     OW45921  10.585   7.893   4.402  0.3656  0.3747  0.3503
 9310SOL    HW145922  10.645   7.940   4.345 -0.2931  0.3690 -0.3688
 9310SOL    HW245923  10.632   7.883   4.485  1.1632  0.7735 -0.0509
 9311SOL     OW45924  10.766  12.137   5.431 -0.7119 -0.4982  0.4938
 9311SOL    HW145925  10.836  12.150   5.495 -1.4687  1.1433  1.0481
 9311SOL    HW245926  10.689  12.177   5.471 -1.5172 -0.5770 -0.9054
 9312SOL     OW45927  13.562  10.112   8.884  0.6115 -0.1422 -0.7363
 9312SOL    HW145928  13.531  10.100   8.974 -0.0522  0.5809 -0.8546
 9312SOL    HW245929  13.482  10.116   8.832  1.0161 -1.7644 -1.5390
 9313SOL     OW45930   2.942   7.311   8.632 -0.0287 -0.4311  0.0509
 9313SOL    HW145931   3.000   7.314   8.709  1.1826 -1.0950 -0.8048
 9313SOL    HW245932   2.855   7.301   8.669  0.5010 -0.4774  1.3544
 9314SOL     OW45933  13.227   9.497   3.822  0.5611  0.0244  0.0506
 9314SOL    HW145934  13.138   9.463   3.818  0.9447 -1.0830  0.5547
 9314SOL    HW245935  13.221   9.573   3.881 -0.1185  0.2326 -0.2771
 9315SOL     OW45936   7.674  12.644  11.142 -0.7260 -0.6303 -0.0455
 9315SOL    HW145937   7.678  12.718  11.081 -1.2520 -0.7086 -0.1784
 9315SOL    HW245938   7.621  12.578  11.097  0.6828 -1.5637 -0.4283
 9316SOL     OW45939   9.767   5.989   3.925 -0.0430  0.2112  0.3230
 9316SOL    HW145940   9.823   5.912   3.932  1.2267  1.0531 -0.0812
 9316SOL    HW245941   9.783   6.022   3.836 -1.1875  0.4825  0.2060
 9317SOL     OW45942   0.939  11.946   2.207 -0.3053  0.2121  0.1861
 9317SOL    HW145943   0.949  11.878   2.273  2.4147 -1.0293 -1.3373
 9317SOL    HW245944   0.973  12.025   2.249 -0.0916 -0.1916  0.7847
 9318SOL     OW45945  12.579  12.347   5.958 -0.0838 -0.3290 -0.7572
 9318SOL    HW145946  12.509  12.346   5.893 -1.4076 -1.3891  0.5773
 9318SOL    HW245947  12.588  12.438   5.983  0.1640  0.0335 -2.1122
 9319SOL     OW45948  12.527  11.696  10.042 -0.5471 -0.0120 -0.3783
 9319SOL    HW145949  12.591  11.630  10.016 -1.6400 -1.6929  1.0178
 9319SOL    HW245950  12.446  11.668   9.999 -0.8321  0.9072 -0.4501
 9320SOL     OW45951   6.630  10.968   9.122 -0.3928 -0.2679  0.3147
 9320SOL    HW145952   6.566  10.917   9.172 -0.4152  1.3704  2.0819
 9320SOL    HW245953   6.578  11.033   9.074 -0.2378 -0.7716 -0.5596
 9321SOL     OW45954   3.033  12.541  12.381 -0.0404  0.0273 -0.6550
 9321SOL    HW145955   3.054  12.498  12.297  1.4117 -1.2006  0.2775
 9321SOL    HW245956   3.026  12.468  12.443  2.5930  1.0756  1.0151
 9322SOL     OW45957  13.414   4.589   8.518  0.1343 -0.1913 -0.2284
 9322SOL    HW145958  13.494   4.537   8.505  1.0328  1.2880 -0.9406
 9322SOL    HW245959  13.361   4.571   8.440  0.0212 -0.7469 -0.0253
 9323SOL     OW45960   0.871   8.595  10.051 -0.7489 -0.6356 -0.6107
 9323SOL    HW145961   0.901   8.593  10.142  2.0019 -0.3038 -1.4103
 9323SOL    HW245962   0.790   8.646  10.053 -0.8538 -0.7897  1.6467
 9324SOL     OW45963   0.227  11.311   0.517 -0.0759  0.1772  0.4602
 9324SOL    HW145964   0.284  11.386   0.502  1.9800 -1.2510  0.7818
 9324SOL    HW245965   0.225  11.264   0.433 -1.5903  0.7082  0.1722
 9325SOL     OW45966   9.024   9.037   4.940 -0.4818  0.7187  0.2606
 9325SOL    HW145967   9.076   8.987   5.002  0.6680  0.8748 -0.5365
 9325SOL    HW245968   9.008   9.121   4.984  1.0762  1.1686  0.0516
 9326SOL     OW45969   4.660   8.756   5.102  0.2164 -1.0140 -0.3537
 9326SOL    HW145970   4.601   8.759   5.178 -0.8400  0.3910 -1.1729
 9326SOL    HW245971   4.642   8.837   5.055  3.0493 -0.3612 -0.4975
 9327SOL     OW45972   8.305   4.839   5.394 -0.1322  0.0290  0.1684
 9327SOL    HW145973   8.216   4.805   5.397 -1.0452  2.2243  0.3306
 9327SOL    HW245974   8.360   4.765   5.419 -1.9413 -1.2277  0.6564
 9328SOL     OW45975   7.070  11.708   2.907 -0.3173 -0.5303  0.0246
 9328SOL    HW145976   7.122  11.629   2.920  1.9007  0.8516  0.1309
 9328SOL    HW245977   7.067  11.719   2.812 -0.4597 -0.6371  0.0167
 9329SOL     OW45978   3.616  11.417   9.263  0.2960  0.1639 -0.1956
 9329SOL    HW145979   3.679  11.471   9.311  0.1582 -1.0167  1.3659
 9329SOL    HW245980   3.671  11.358   9.211  0.5728 -1.2283  1.5677
 9330SOL     OW45981   4.256  10.622  11.527 -0.2842  0.2203 -0.6016
 9330SOL    HW145982   4.187  10.613  11.461 -1.0774 -0.8155  0.3311
 9330SOL    HW245983   4.323  10.560  11.500 -0.2857  0.3145 -0.8232
 9331SOL     OW45984   4.830   2.708   9.522  0.1575 -0.0363 -0.1146
 9331SOL    HW145985   4.868   2.640   9.579  0.6009  0.5540  0.3072
 9331SOL    HW245986   4.901   2.731   9.462 -0.0689 -0.1073 -0.4109
 9332SOL     OW45987   4.937   5.104   6.971 -0.0887  0.0191 -0.7472
 9332SOL    HW145988   4.969   5.015   6.961  0.1187 -0.0601  0.4620
 9332SOL    HW245989   4.970   5.150   6.894  0.7244 -0.6871 -0.8336
 9333SOL     OW45990   6.543   0.513   9.593 -0.3053 -0.2448 -0.2219
 9333SOL    HW145991   6.634   0.525   9.565 -0.5885  2.2188 -0.3520
 9333SOL    HW245992   6.523   0.422   9.572  2.4351 -1.1791  0.7867
 9334SOL     OW45993   6.942   0.716  13.191 -0.4853  0.0480 -0.6583
 9334SOL    HW145994   6.866   0.677  13.149 -0.1816 -0.2276 -0.9580
 9334SOL    HW245995   6.911   0.745  13.277 -0.9591  0.0617 -0.8358
 9335SOL     OW45996   5.516   5.646   3.147 -0.3059 -0.1663  0.0256
 9335SOL    HW145997   5.422   5.630   3.138 -0.2156 -1.0549  0.5853
 9335SOL    HW245998   5.527   5.670   3.238  0.0094 -0.0088 -0.0541
 9336SOL     OW45999  11.532   1.393   1.710 -0.4577 -0.5617  0.0480
 9336SOL    HW146000  11.474   1.368   1.781 -2.3452  1.1073 -0.8148
 9336SOL    HW246001  11.511   1.484   1.693  0.5807 -0.6600 -2.0611
 9337SOL     OW46002  11.083   1.983   6.300  0.1243 -0.2399 -0.0755
 9337SOL    HW146003  11.028   1.936   6.362 -2.0256  0.9397 -0.9639
 9337SOL    HW246004  11.135   1.915   6.257 -1.4554 -1.5691  0.0319
 9338SOL     OW46005   1.449   5.626   7.908 -0.4402 -0.0067 -0.3852
 9338SOL    HW146006   1.362   5.602   7.941 -1.1942  3.0307  0.1327
 9338SOL    HW246007   1.435   5.640   7.814 -0.4941  0.2876 -0.3359
 9339SOL     OW46008   8.076   8.989   3.366 -0.2419  0.3250 -0.0597
 9339SOL    HW146009   8.025   8.926   3.416  0.2274  0.6882  0.9097
 9339SOL    HW246010   8.126   9.037   3.432 -0.2392  1.3976 -0.8043
 9340SOL     OW46011   8.029   2.475  11.742 -0.2027 -0.2095 -0.2306
 9340SOL    HW146012   7.999   2.384  11.751 -1.0585  0.1303  0.5934
 9340SOL    HW246013   8.034   2.489  11.648 -1.9020 -0.5632 -0.4141
 9341SOL     OW46014   5.896   5.986   8.641 -0.0006 -0.4284 -0.0194
 9341SOL    HW146015   5.868   5.971   8.731 -0.5603  0.5954 -0.0077
 9341SOL    HW246016   5.860   6.072   8.619  0.4004 -0.5284 -1.1122
 9342SOL     OW46017   3.137   6.249  11.469 -0.5144  0.0198  0.1569
 9342SOL    HW146018   3.208   6.288  11.417  0.2479  0.6442  1.6198
 9342SOL    HW246019   3.133   6.159  11.438  0.0992  0.2903 -0.7926
 9343SOL     OW46020  12.751  12.032   7.194  0.6589 -0.4961 -0.0163
 9343SOL    HW146021  12.743  12.033   7.098 -0.0887 -0.4112  0.0413
 9343SOL    HW246022  12.687  12.096   7.224  0.8488 -0.5661  0.5490
 9344SOL     OW46023  13.685  11.925   1.014  0.5780 -0.1705 -0.0654
 9344SOL    HW146024  13.598  11.961   0.999 -0.4014 -2.0119  0.8808
 9344SOL    HW246025  13.704  11.874   0.935 -0.1856 -1.5418  0.5969
 9345SOL     OW46026  11.809   7.487   2.124 -0.4207 -0.2135  0.1199
 9345SOL    HW146027  11.728   7.529   2.098 -1.3012 -1.8394  0.0846
 9345SOL    HW246028  11.811   7.495   2.219 -0.8190 -0.4703  0.1537
 9346SOL     OW46029   0.923  11.941  10.779 -0.1634  0.4065  0.0718
 9346SOL    HW146030   0.832  11.958  10.805  0.1758  1.8316  0.3971
 9346SOL    HW246031   0.975  11.972  10.853  0.6038 -0.6522  0.0086
 9347SOL     OW46032   2.398  13.651   1.016 -0.3797  0.1364  0.1526
 9347SOL    HW146033   2.398  13.692   0.930 -0.9819  0.6288  0.3797
 9347SOL    HW246034   2.312  13.671   1.053  0.3788  1.2349  1.4683
 9348SOL     OW46035  13.391   6.015   4.567 -0.0188  0.0279  0.0318
 9348SOL    HW146036  13.315   6.073   4.579 -0.6106 -0.4835 -1.1162
 9348SOL    HW246037  13.377   5.944   4.630  0.3916  0.7857  1.0099
 9349SOL     OW46038   3.320   9.100   7.327  0.2318 -0.3897  0.0112
 9349SOL    HW146039   3.337   9.146   7.244  2.5294  0.6421  0.9667
 9349SOL    HW246040   3.399   9.048   7.341  0.3880  0.3421  2.0925
 9350SOL     OW46041  13.507   1.657   2.820 -0.2790 -0.4271  0.2810
 9350SOL    HW146042  13.441   1.707   2.772  0.0193  1.1656  1.4407
 9350SOL    HW246043  13.557   1.612   2.752 -2.4907 -1.6692 -0.6332
 9351SOL     OW46044   7.740   4.338   3.291 -0.0422 -0.5770  0.4567
 9351SOL    HW146045   7.784   4.423   3.285 -0.9268 -0.1777 -0.8791
 9351SOL    HW246046   7.670   4.342   3.226 -1.0726 -1.7770  1.4204
 9352SOL     OW46047   9.599  13.734  11.123  0.2801  0.7490  0.6446
 9352SOL    HW146048   9.693  13.741  11.103  1.0014 -1.2791  2.9080
 9352SOL    HW246049   9.556  13.768  11.044  2.8555 -1.4114 -1.9302
 9353SOL     OW46050   2.435   3.370   8.823 -0.0555 -0.3102  0.0997
 9353SOL    HW146051   2.419   3.286   8.781 -0.2814 -0.4235  0.4119
 9353SOL    HW246052   2.356   3.387   8.875 -0.0053  0.0855  0.0478
 9354SOL     OW46053   9.000   4.120   9.503 -0.1096  0.3362  0.5051
 9354SOL    HW146054   8.935   4.147   9.568  1.5331  1.7188  1.6547
 9354SOL    HW246055   8.994   4.024   9.502 -2.3190  0.4098  0.3336
 9355SOL     OW46056   6.865   0.793   4.361  0.4138  0.2211 -0.1832
 9355SOL    HW146057   6.875   0.742   4.281  0.4910  1.3360 -0.9121
 9355SOL    HW246058   6.771   0.793   4.379  0.3571  0.2488 -0.4756
 9356SOL     OW46059   4.506   4.583   7.671 -0.2337  0.3789  0.2008
 9356SOL    HW146060   4.543   4.636   7.741 -1.1624  0.8674  0.3339
 9356SOL    HW246061   4.517   4.636   7.592 -0.8038  0.5935  0.2681
 9357SOL     OW46062  10.298   6.587   5.475 -0.3226 -0.2574  0.3523
 9357SOL    HW146063  10.236   6.516   5.483 -2.3897  1.6472  3.6022
 9357SOL    HW246064  10.250   6.657   5.430 -1.1079  1.5288  3.6172
 9358SOL     OW46065  11.424   3.889   3.558  0.1859  0.3710  0.0281
 9358SOL    HW146066  11.404   3.803   3.522  0.5171  0.3050  0.0005
 9358SOL    HW246067  11.467   3.937   3.487  1.3343  0.0510  0.4954
 9359SOL     OW46068   6.132   1.301   5.566  0.1861 -0.2663 -0.1155
 9359SOL    HW146069   6.053   1.299   5.620  1.0687  0.4063  1.2457
 9359SOL    HW246070   6.204   1.292   5.628  1.2516  0.8145 -1.1450
 9360SOL     OW46071   0.044   2.902   7.856  0.7032 -0.2965  0.0288
 9360SOL    HW146072   0.134   2.909   7.888  1.8986  0.5720 -3.1874
 9360SOL    HW246073   0.042   2.822   7.805  0.9015  1.5338 -3.1248
 9361SOL     OW46074  14.081   1.317  10.526  0.4992 -0.1004  0.0292
 9361SOL    HW146075  14.015   1.264  10.572  0.2555 -0.4376 -0.6973
 9361SOL    HW246076  14.137   1.253  10.483  1.1245  0.1956  0.3811
 9362SOL     OW46077   3.353   6.838   0.756 -0.1011  0.3478 -0.2840
 9362SOL    HW146078   3.423   6.860   0.817 -0.3692  0.3916  0.0114
 9362SOL    HW246079   3.394   6.842   0.669  0.3222  0.1348 -0.0997
 9363SOL     OW46080   1.292   4.867   1.952  0.2960  0.2453  0.5538
 9363SOL    HW146081   1.313   4.876   1.859 -1.6503  0.6855  0.1222
 9363SOL    HW246082   1.199   4.889   1.959  0.0099 -1.2437  2.3870
 9364SOL     OW46083   3.167  13.391   3.515 -0.0213 -0.5266  0.4198
 9364SOL    HW146084   3.219  13.311   3.503  0.1976 -0.0575 -2.1013
 9364SOL    HW246085   3.232  13.459   3.533 -0.1683 -0.7643  1.9923
 9365SOL     OW46086  12.119   6.440   5.410  0.2315  0.0101  0.4486
 9365SOL    HW146087  12.191   6.437   5.474  0.0184 -0.2113  0.6784
 9365SOL    HW246088  12.040   6.429   5.462 -0.0495  1.2488  0.3228
 9366SOL     OW46089  14.150   5.733   2.990 -0.2735 -0.3624 -0.6634
 9366SOL    HW146090  14.189   5.663   3.043 -0.3049  0.5831  0.6351
 9366SOL    HW246091  14.157   5.700   2.900  3.9963 -0.0766 -0.6358
 9367SOL     OW46092   0.047   3.899   8.185 -0.1047  0.0386 -0.1819
 9367SOL    HW146093   0.018   3.849   8.261 -0.1164 -0.5856 -0.5859
 9367SOL    HW246094   0.055   3.988   8.217 -1.2313  0.0019  0.2738
 9368SOL     OW46095  10.693   2.384  13.838 -0.2773  0.1653 -0.2304
 9368SOL    HW146096  10.638   2.330  13.895  1.0861 -0.1243  0.8845
 9368SOL    HW246097  10.762   2.325  13.807 -0.7090  0.4494 -1.8030
 9369SOL     OW46098   5.840   2.417  12.680  0.3166  0.2146  0.7534
 9369SOL    HW146099   5.868   2.366  12.756  1.2852 -0.2834  0.0860
 9369SOL    HW246100   5.893   2.383  12.608 -1.5498 -0.2728 -0.4470
 9370SOL     OW46101   2.584   4.322   5.824  0.1768 -0.2071 -0.4438
 9370SOL    HW146102   2.659   4.341   5.769  1.2631 -2.3877  0.1628
 9370SOL    HW246103   2.591   4.228   5.843 -1.1771  0.0697  1.8506
 9371SOL     OW46104   0.958   2.783   2.653 -0.4398 -0.0015 -0.5015
 9371SOL    HW146105   0.872   2.794   2.612 -0.5638  0.5826 -0.1017
 9371SOL    HW246106   0.942   2.799   2.746  0.1962  0.6268 -0.4888
 9372SOL     OW46107   4.828   7.868   9.004 -0.2635  0.1301 -0.1264
 9372SOL    HW146108   4.780   7.894   9.082  0.8417  1.0896  0.2663
 9372SOL    HW246109   4.887   7.799   9.034  0.2603  0.5947 -0.0534
 9373SOL     OW46110  10.328   4.041   5.087 -0.4004  0.1557 -0.6433
 9373SOL    HW146111  10.294   4.122   5.049 -1.2485  0.9104  1.5664
 9373SOL    HW246112  10.368   4.068   5.170  0.6368 -1.5039 -0.5498
 9374SOL     OW46113   1.261  11.631   2.215 -0.4591 -0.4146 -0.0338
 9374SOL    HW146114   1.256  11.616   2.121 -1.5664 -0.5538  0.0379
 9374SOL    HW246115   1.251  11.726   2.225  0.8189 -0.2493 -0.1121
 9375SOL     OW46116   9.792   6.793   6.356 -0.2267  0.2496 -0.0961
 9375SOL    HW146117   9.771   6.778   6.448  0.7942  0.5977  0.2120
 9375SOL    HW246118   9.809   6.887   6.350  1.8144 -0.0780 -0.1502
 9376SOL     OW46119  13.430   2.739   9.809  0.2881  0.4968  0.1238
 9376SOL    HW146120  13.496   2.686   9.855 -1.0146 -0.6845  0.6870
 9376SOL    HW246121  13.445   2.721   9.716  0.2289 -0.4134  0.2840
 9377SOL     OW46122  11.181   9.766   0.272  0.2310 -0.0361 -0.0084
 9377SOL    HW146123  11.171   9.671   0.274 -0.1163 -0.0213 -0.7386
 9377SOL    HW246124  11.109   9.796   0.217  0.7495  0.5915 -0.3553
 9378SOL     OW46125   0.772   3.041   1.522 -0.1929 -0.5631  0.3329
 9378SOL    HW146126   0.688   3.052   1.478 -1.1982 -2.0165  1.7850
 9378SOL    HW246127   0.837   3.063   1.455 -1.6975  1.0555 -0.6917
 9379SOL     OW46128  13.703   5.335  11.774 -0.5024 -0.2809  1.0245
 9379SOL    HW146129  13.673   5.415  11.730 -1.4733  0.0322  2.2024
 9379SOL    HW246130  13.715   5.272  11.703 -0.3302  0.7204  0.1399
 9380SOL     OW46131  11.520   7.616   7.661 -0.0989 -0.0045 -0.1100
 9380SOL    HW146132  11.491   7.543   7.716 -0.9475  1.6060  1.7060
 9380SOL    HW246133  11.460   7.615   7.586 -0.0824 -1.1702 -0.1190
 9381SOL     OW46134   7.476   0.620   1.130  0.8825  0.0694 -0.0662
 9381SOL    HW146135   7.562   0.577   1.122  0.5616 -0.4279 -1.0338
 9381SOL    HW246136   7.483   0.697   1.073  0.6137 -0.1103 -0.3477
 9382SOL     OW46137   5.472   2.001   2.842 -0.3421 -0.0463  0.0671
 9382SOL    HW146138   5.548   1.947   2.863 -0.7041  0.4328  3.0444
 9382SOL    HW246139   5.397   1.942   2.851 -0.4754 -0.1317 -1.3355
 9383SOL     OW46140   2.166  12.156  11.358  0.6434 -0.3044 -0.2696
 9383SOL    HW146141   2.256  12.159  11.325  0.8262  0.2257  0.2295
 9383SOL    HW246142   2.162  12.230  11.419  0.4015 -1.3662  1.0508
 9384SOL     OW46143   7.384   3.311   9.851 -0.0770 -0.1914  0.3040
 9384SOL    HW146144   7.357   3.316   9.759  0.8237  1.9519  0.1125
 9384SOL    HW246145   7.436   3.231   9.857 -2.0470 -1.6261 -0.4708
 9385SOL     OW46146   8.985   2.642   6.717  0.1675 -0.1895  0.2307
 9385SOL    HW146147   9.072   2.681   6.705 -0.0739  0.8688  1.6365
 9385SOL    HW246148   9.002   2.548   6.727  0.9699 -0.2199 -1.1456
 9386SOL     OW46149   8.190   9.100   2.313 -0.3394  0.2774  0.4310
 9386SOL    HW146150   8.148   9.017   2.333  2.1238 -1.5141 -1.3112
 9386SOL    HW246151   8.270   9.100   2.366  0.6760  0.5710 -1.0471
 9387SOL     OW46152  12.094   5.492  12.840  0.6136  0.2341 -0.5289
 9387SOL    HW146153  12.008   5.459  12.868  0.2242 -0.0946 -2.0645
 9387SOL    HW246154  12.150   5.479  12.917 -0.4964 -0.3314  0.2173
 9388SOL     OW46155   3.826  10.428   9.607  0.3325 -0.3686  0.3747
 9388SOL    HW146156   3.899  10.368   9.625  1.8838  0.7894 -1.6750
 9388SOL    HW246157   3.796  10.404   9.519  0.7542  1.5643 -0.3413
 9389SOL     OW46158   5.194   3.435   4.126  0.5467 -0.1484  0.4839
 9389SOL    HW146159   5.155   3.487   4.057 -2.0201 -2.0067  0.3855
 9389SOL    HW246160   5.257   3.379   4.082  0.8016  0.4656  0.0664
 9390SOL     OW46161  12.931   4.426  12.245  0.1143 -0.3760  0.5549
 9390SOL    HW146162  12.911   4.358  12.309 -1.5727  0.9463  1.5185
 9390SOL    HW246163  13.026   4.440  12.253  0.2291 -1.5254  1.4213
 9391SOL     OW46164   3.970   7.603   8.353  0.1340  0.2238 -0.3507
 9391SOL    HW146165   3.937   7.524   8.395  1.2893 -0.6128 -0.9545
 9391SOL    HW246166   4.019   7.571   8.276 -0.3455  1.5929 -1.2635
 9392SOL     OW46167  12.146   0.802   8.624  0.8367 -0.0918 -0.2771
 9392SOL    HW146168  12.086   0.728   8.630  0.5496  0.0517 -1.1552
 9392SOL    HW246169  12.228   0.770   8.661  0.4593 -0.5554  0.1769
 9393SOL     OW46170   6.964   2.469   6.479 -0.3223 -0.2967 -0.0166
 9393SOL    HW146171   6.879   2.512   6.480 -0.5542 -0.7187 -0.8560
 9393SOL    HW246172   6.945   2.377   6.496 -0.2036 -0.6357 -1.5841
 9394SOL     OW46173   8.585  11.614   0.007 -0.4841  0.0804  0.2559
 9394SOL    HW146174   8.576  11.543   0.071 -1.5590  0.7585  0.9014
 9394SOL    HW246175   8.636  11.681   0.053 -2.2375  1.0586  0.9041
 9395SOL     OW46176   3.182   6.935   4.203 -0.1948 -0.3144 -0.4460
 9395SOL    HW146177   3.168   6.884   4.124  1.3631 -1.6143  0.0622
 9395SOL    HW246178   3.226   7.014   4.174  0.7752 -0.9868 -0.8645
 9396SOL     OW46179  13.766   7.427  10.110  0.4193  0.8352  0.4085
 9396SOL    HW146180  13.836   7.381  10.156 -0.0151  1.0475  1.3179
 9396SOL    HW246181  13.696   7.435  10.175 -1.3903 -1.3892 -1.1183
 9397SOL     OW46182  10.584   5.269   6.989 -0.0389  0.0009  0.0037
 9397SOL    HW146183  10.627   5.194   6.949  1.2930  1.0064 -0.4896
 9397SOL    HW246184  10.655   5.320   7.028 -1.0535  0.3235  1.5177
 9398SOL     OW46185   6.132   4.950  14.073 -0.1180 -0.0503  0.4500
 9398SOL    HW146186   6.117   5.039  14.104  0.3357  0.9736 -2.0393
 9398SOL    HW246187   6.225   4.934  14.089  0.1767  0.5757 -0.5234
 9399SOL     OW46188  13.764  12.910   0.883 -0.4685  0.1642 -0.1353
 9399SOL    HW146189  13.680  12.867   0.870 -0.6677  0.0948  1.2737
 9399SOL    HW246190  13.767  12.932   0.976  0.2416  1.9227 -0.5176
 9400SOL     OW46191   7.511  13.625   7.087 -0.3604  0.1180  0.1834
 9400SOL    HW146192   7.465  13.620   7.171 -2.5288 -0.0513 -0.9404
 9400SOL    HW246193   7.494  13.541   7.045 -1.2009  0.9875 -1.3133
 9401SOL     OW46194  13.200   3.453   6.240  0.0400  0.3871 -0.1155
 9401SOL    HW146195  13.204   3.485   6.331 -0.7157 -1.2492  0.5245
 9401SOL    HW246196  13.109   3.466   6.214  0.5578  2.2206 -1.2088
 9402SOL     OW46197   0.463   0.400   2.063 -0.3283 -0.1382  0.4459
 9402SOL    HW146198   0.422   0.314   2.053  0.2907 -0.7491  2.5360
 9402SOL    HW246199   0.444   0.445   1.981 -2.1408 -1.6408 -0.0492
 9403SOL     OW46200   7.020   9.450   3.963  0.4104 -0.2485  0.2151
 9403SOL    HW146201   7.097   9.394   3.978  1.6580  1.0751 -0.8845
 9403SOL    HW246202   7.023   9.514   4.034 -0.4970 -0.9983  0.9546
 9404SOL     OW46203  12.221  13.318  10.125  0.2654  0.3912  0.1310
 9404SOL    HW146204  12.189  13.406  10.142 -0.9554  0.0407 -0.2576
 9404SOL    HW246205  12.265  13.293  10.206 -0.1223  1.0383  0.5517
 9405SOL     OW46206  10.123   0.939   8.848  0.2808 -0.3552 -0.0025
 9405SOL    HW146207  10.115   0.853   8.807 -0.9359 -0.7806  1.0546
 9405SOL    HW246208  10.033   0.963   8.871  0.7231  0.7050  0.6915
 9406SOL     OW46209  11.783   6.602  10.075  0.1889 -0.2982 -0.1913
 9406SOL    HW146210  11.797   6.532  10.011 -0.2536  0.8452 -1.6096
 9406SOL    HW246211  11.866   6.648  10.080  0.1088 -0.1405 -0.2719
 9407SOL     OW46212   8.627   2.345   8.159 -0.3687  0.2283  0.5428
 9407SOL    HW146213   8.698   2.373   8.217 -0.3737  1.4853 -0.0266
 9407SOL    HW246214   8.665   2.272   8.109  0.4414  0.7125  0.4265
 9408SOL     OW46215   8.327   2.319  10.132 -0.1857 -0.2735 -0.3401
 9408SOL    HW146216   8.314   2.361  10.047  0.1765 -1.3594 -0.9435
 9408SOL    HW246217   8.390   2.249  10.116  0.3464 -0.1320  0.9439
 9409SOL     OW46218   7.739   4.366   2.598  0.3998 -0.3637 -0.0920
 9409SOL    HW146219   7.769   4.437   2.542 -0.6566  0.1775 -0.0046
 9409SOL    HW246220   7.674   4.319   2.545  0.1666 -0.4878  0.2963
 9410SOL     OW46221   8.053   4.705   5.382 -0.0626  0.5596  0.0460
 9410SOL    HW146222   8.067   4.611   5.366  0.4772  0.5678  0.4654
 9410SOL    HW246223   7.972   4.709   5.432 -0.4890  0.3713 -0.6136
 9411SOL     OW46224  11.650   2.810   4.712  0.2867  0.2389 -0.4794
 9411SOL    HW146225  11.555   2.807   4.718  0.3406  0.3400  0.7597
 9411SOL    HW246226  11.668   2.889   4.661 -0.2983 -0.3232 -1.5927
 9412SOL     OW46227   1.241   4.414   9.632  0.0705  0.1990  0.4770
 9412SOL    HW146228   1.238   4.360   9.712  1.2610 -3.2346 -1.5889
 9412SOL    HW246229   1.163   4.388   9.583  0.6821  0.3412 -0.5941
 9413SOL     OW46230   0.232   3.122   6.719 -0.1422 -0.2358  0.6461
 9413SOL    HW146231   0.285   3.104   6.797 -0.8045 -2.0769  0.7332
 9413SOL    HW246232   0.161   3.178   6.751  1.1064  1.3249  0.7533
 9414SOL     OW46233   6.410   7.847   0.319 -0.0939  0.9695 -0.0894
 9414SOL    HW146234   6.339   7.877   0.375  0.8951  0.1787  1.6818
 9414SOL    HW246235   6.484   7.904   0.340  0.0740  1.1937 -1.2216
 9415SOL     OW46236   3.710   1.085   1.675  0.2326  0.3186  0.2486
 9415SOL    HW146237   3.682   1.168   1.638  1.7133  1.1072  0.8196
 9415SOL    HW246238   3.802   1.076   1.648  0.2969 -0.7827  0.7760
 9416SOL     OW46239   2.603  11.281  12.410 -0.0518  0.3269  0.2010
 9416SOL    HW146240   2.577  11.199  12.452 -0.0275 -0.6152 -1.5608
 9416SOL    HW246241   2.540  11.294  12.339  0.5773  1.2989 -0.2066
 9417SOL     OW46242   6.698  11.156   8.503 -0.3671 -0.7057  0.1776
 9417SOL    HW146243   6.740  11.235   8.469  0.7474 -1.6973 -0.8656
 9417SOL    HW246244   6.771  11.099   8.527 -1.1275 -2.0080 -0.5181
 9418SOL     OW46245   7.981   8.963   4.684 -0.1562  0.4198  0.3550
 9418SOL    HW146246   7.949   8.947   4.595 -1.4190 -0.7650  0.9803
 9418SOL    HW246247   7.947   9.050   4.706 -0.9284  0.1860  0.1236
 9419SOL     OW46248   4.432   7.013  12.140 -0.2948 -0.3567  0.1629
 9419SOL    HW146249   4.433   7.048  12.230  2.5045 -0.1902  0.1739
 9419SOL    HW246250   4.487   6.935  12.145 -0.1799 -0.3912 -1.3863
 9420SOL     OW46251  13.245   4.969  11.566 -0.4963  0.2077  0.3084
 9420SOL    HW146252  13.277   5.001  11.481  1.5715 -2.0827  0.1014
 9420SOL    HW246253  13.216   4.880  11.548  1.2606 -0.8358  2.1801
 9421SOL     OW46254  14.067   2.940   1.336  0.1408 -0.6652  0.4448
 9421SOL    HW146255  14.021   2.878   1.279  0.4582 -1.0035  0.5530
 9421SOL    HW246256  14.150   2.955   1.293 -0.9958  1.9231 -1.1075
 9422SOL     OW46257   2.879   4.665  10.800  0.1281  0.0021 -0.2738
 9422SOL    HW146258   2.931   4.673  10.720 -1.6273 -2.1662 -1.7610
 9422SOL    HW246259   2.880   4.571  10.820 -1.5928  0.1655  0.7666
 9423SOL     OW46260  10.687   0.771   2.755  0.5956  0.3206  0.2765
 9423SOL    HW146261  10.675   0.713   2.680 -0.2865 -1.2899  1.5826
 9423SOL    HW246262  10.608   0.757   2.808  0.4805  2.5550  0.7810
 9424SOL     OW46263   2.785   4.711   5.913  0.0988 -0.5872 -0.0790
 9424SOL    HW146264   2.719   4.654   5.875 -0.2041  0.0356 -0.4923
 9424SOL    HW246265   2.737   4.765   5.975  0.3297 -0.5514  0.0708
 9425SOL     OW46266   9.810   6.666  13.809 -0.0889 -0.5895  0.3086
 9425SOL    HW146267   9.830   6.607  13.736 -0.2677 -0.7428  0.3809
 9425SOL    HW246268   9.748   6.617  13.863  1.7318 -1.4206  1.7784
 9426SOL     OW46269   6.978   0.307   3.863  0.1029 -0.6280  0.2199
 9426SOL    HW146270   7.057   0.294   3.811 -0.5615 -1.4432 -0.6065
 9426SOL    HW246271   6.964   0.224   3.908  0.7281  0.0956  1.8264
 9427SOL     OW46272  13.104   7.196   4.887 -0.0189 -0.1937 -0.0147
 9427SOL    HW146273  13.178   7.256   4.885  1.2310 -1.5021  2.1521
 9427SOL    HW246274  13.056   7.219   4.967 -2.2722  0.8947 -1.5838
 9428SOL     OW46275   9.275   3.587  13.051 -0.1039 -0.4227  0.6569
 9428SOL    HW146276   9.269   3.578  13.146 -1.9618 -1.9413  0.4539
 9428SOL    HW246277   9.263   3.498  13.017  1.5439 -0.0777 -0.9958
 9429SOL     OW46278  10.075   7.903  11.180 -0.7085  0.1900  0.3852
 9429SOL    HW146279  10.118   7.988  11.184 -1.4491  0.6094 -0.3559
 9429SOL    HW246280  10.139   7.847  11.136 -0.6842  0.6644 -0.1949
 9430SOL     OW46281   0.386   3.608   9.376 -0.1937 -0.4478  0.2334
 9430SOL    HW146282   0.339   3.525   9.389  1.0349 -0.9409  1.9297
 9430SOL    HW246283   0.318   3.672   9.356 -1.1760 -1.8396 -1.0967
 9431SOL     OW46284   7.081   6.995   1.865 -0.5495 -0.2485 -0.0815
 9431SOL    HW146285   6.995   7.031   1.841 -0.3409  0.7708  0.6106
 9431SOL    HW246286   7.090   7.016   1.958  0.8608  0.5379 -0.3651
 9432SOL     OW46287   9.124  11.632   4.632 -0.0513  0.3435 -0.2242
 9432SOL    HW146288   9.187  11.663   4.697 -0.3691 -0.5853  0.5472
 9432SOL    HW246289   9.169  11.561   4.587 -0.4812 -0.2384  0.2431
 9433SOL     OW46290   3.501  13.709   1.842  0.1949  0.5880  0.2714
 9433SOL    HW146291   3.556  13.669   1.910  0.4070 -0.8025 -0.6907
 9433SOL    HW246292   3.485  13.798   1.875  2.2657  0.7549  1.0159
 9434SOL     OW46293  11.613   3.569   9.148 -0.1152  0.8289 -0.2200
 9434SOL    HW146294  11.593   3.655   9.184 -1.6891  1.0350 -1.4917
 9434SOL    HW246295  11.570   3.568   9.062  1.8243 -0.3621 -1.2541
 9435SOL     OW46296   9.944   1.250   0.253  0.0638 -0.3055 -0.6714
 9435SOL    HW146297   9.915   1.242   0.344  0.7041 -0.3339 -0.4669
 9435SOL    HW246298   9.887   1.190   0.204 -0.1557 -0.4326 -0.2610
 9436SOL     OW46299   8.033   0.290   1.588  0.5504 -0.0322 -0.3515
 9436SOL    HW146300   7.951   0.245   1.570  1.3066 -0.9574 -1.6586
 9436SOL    HW246301   8.011   0.383   1.586 -0.2550 -0.2154 -2.0299
 9437SOL     OW46302   0.472   9.527   7.896 -0.0934 -0.0481  0.5909
 9437SOL    HW146303   0.465   9.594   7.965  0.8629 -1.0270  1.6790
 9437SOL    HW246304   0.552   9.480   7.917  0.9468  0.4358 -1.9612
 9438SOL     OW46305   6.501   6.212  10.184  0.7003  0.1310  0.0860
 9438SOL    HW146306   6.500   6.277  10.114  1.2381  0.1534  0.0886
 9438SOL    HW246307   6.423   6.158  10.169  1.2925 -0.4451 -1.1004
 9439SOL     OW46308   3.815   2.543   8.677 -0.2286  0.2176 -0.0255
 9439SOL    HW146309   3.838   2.552   8.769 -0.4853  1.5482 -0.0689
 9439SOL    HW246310   3.738   2.486   8.677  0.7984 -1.2293  0.4143
 9440SOL     OW46311   3.802  10.380   2.424  0.1320  0.5633 -0.6077
 9440SOL    HW146312   3.888  10.422   2.414  0.8967 -0.8802 -0.3879
 9440SOL    HW246313   3.798  10.317   2.352 -0.1350 -0.3443  0.1754
 9441SOL     OW46314  11.175   0.338   9.433  0.2184  0.2907  0.0204
 9441SOL    HW146315  11.095   0.366   9.476 -0.8253  0.2284 -1.7717
 9441SOL    HW246316  11.219   0.282   9.497 -1.3636  0.0029  0.9017
 9442SOL     OW46317   5.580  11.520  10.021  0.0515 -0.2628 -0.5307
 9442SOL    HW146318   5.506  11.469   9.988  0.1492 -1.2365  0.7181
 9442SOL    HW246319   5.612  11.471  10.097  0.5977  1.2914  0.2802
 9443SOL     OW46320   7.029   9.626   1.938  0.1166 -0.0720  0.1858
 9443SOL    HW146321   7.072   9.541   1.941  0.2405 -0.1478 -2.2341
 9443SOL    HW246322   6.958   9.616   1.876 -1.2541  1.0410  1.4914
 9444SOL     OW46323   0.126  11.627  10.197 -0.7210  0.0998  0.3086
 9444SOL    HW146324   0.173  11.702  10.233 -0.1858  1.0690 -2.2651
 9444SOL    HW246325   0.189  11.555  10.202 -0.3835  0.4090  0.5617
 9445SOL     OW46326   6.182   0.020  13.240 -0.0410  0.3350  0.3199
 9445SOL    HW146327   6.117  -0.000  13.172  0.0253  0.0477  0.3435
 9445SOL    HW246328   6.138  -0.001  13.322  0.8125 -1.9687  0.2618
 9446SOL     OW46329   4.908   1.552  12.647  0.2306 -0.2841 -0.6925
 9446SOL    HW146330   4.859   1.632  12.627 -0.7128 -0.2653  1.4409
 9446SOL    HW246331   4.981   1.582  12.702 -1.2402 -1.0173  1.8110
 9447SOL     OW46332   8.916  10.741   4.860 -0.1304 -0.3679 -0.3415
 9447SOL    HW146333   8.884  10.656   4.892  0.4959 -1.0688 -1.5063
 9447SOL    HW246334   9.011  10.731   4.857 -0.1944 -0.7698 -3.4343
 9448SOL     OW46335   8.239   7.867  12.928  0.1982 -0.4913  0.0168
 9448SOL    HW146336   8.326   7.907  12.925 -0.4040  1.0457  1.5968
 9448SOL    HW246337   8.211   7.865  12.837  0.4275  2.4406 -0.1993
 9449SOL     OW46338  11.642   9.913   7.781  0.2197 -0.0193 -0.1312
 9449SOL    HW146339  11.620   9.851   7.851 -0.4902 -0.6336 -0.8731
 9449SOL    HW246340  11.665   9.993   7.827  3.3483 -1.3885  0.9789
 9450SOL     OW46341   4.039  14.068   5.874  0.0783  0.0771  0.5594
 9450SOL    HW146342   4.055  13.979   5.843  1.7804  0.7081 -0.4822
 9450SOL    HW246343   3.989  14.056   5.955  1.0595 -1.8505  0.9353
 9451SOL     OW46344   7.588   4.962  12.487  0.5629  0.0097 -0.1996
 9451SOL    HW146345   7.511   5.019  12.479  0.0096 -0.7097 -0.0454
 9451SOL    HW246346   7.641   5.003  12.554  1.0135  1.3000 -1.2909
 9452SOL     OW46347  13.837   0.054  11.833  0.5246 -0.0389 -0.2639
 9452SOL    HW146348  13.754   0.102  11.837 -0.2874 -1.4119 -0.0774
 9452SOL    HW246349  13.867   0.065  11.742 -0.3018 -0.2522 -0.5689
 9453SOL     OW46350   1.640  13.847   6.259  0.5303  0.2511  0.1192
 9453SOL    HW146351   1.666  13.770   6.310 -1.4762  0.4830  1.6442
 9453SOL    HW246352   1.551  13.827   6.229  1.1040  0.7545 -2.1244
 9454SOL     OW46353  11.169   7.072   2.188 -0.0561  0.8572 -0.2392
 9454SOL    HW146354  11.138   7.158   2.160  0.8566  1.7612  1.4073
 9454SOL    HW246355  11.090   7.024   2.212 -0.5284  1.4313 -0.6273
 9455SOL     OW46356   7.438   6.161  12.732 -0.1162 -0.3244 -0.1565
 9455SOL    HW146357   7.453   6.185  12.823 -0.1782 -1.5469  0.1978
 9455SOL    HW246358   7.424   6.244  12.687 -0.0084  0.3019  0.9320
 9456SOL     OW46359  13.792   4.215   1.397  0.0769 -0.6495  0.1838
 9456SOL    HW146360  13.748   4.299   1.410  1.4016  0.1273 -0.1466
 9456SOL    HW246361  13.847   4.228   1.320 -0.6224 -2.2441 -0.6497
 9457SOL     OW46362   0.392   0.369   1.774 -0.4552 -0.0096 -0.2094
 9457SOL    HW146363   0.368   0.461   1.772  0.7298  0.3136 -2.4224
 9457SOL    HW246364   0.487   0.368   1.784 -0.3887 -0.9603 -0.7575
 9458SOL     OW46365   2.397  11.184   5.522 -0.0617 -0.0148  0.4074
 9458SOL    HW146366   2.330  11.182   5.590 -0.5643 -1.9842 -0.0783
 9458SOL    HW246367   2.350  11.205   5.442 -0.1396 -1.4320  0.0605
 9459SOL     OW46368   4.771   2.869  11.028 -0.4960 -0.1289 -0.7834
 9459SOL    HW146369   4.856   2.903  11.057 -0.7243 -0.2125  0.0103
 9459SOL    HW246370   4.755   2.912  10.944  0.0864  0.2934 -0.6826
 9460SOL     OW46371   1.386   4.631  13.999  0.5317  0.5261 -0.5651
 9460SOL    HW146372   1.370   4.725  13.992  0.3677  0.4474 -1.3199
 9460SOL    HW246373   1.453   4.613  13.933  1.3115  0.2845  0.2824
 9461SOL     OW46374   3.406  12.339   6.038 -0.4855 -0.0701  0.0135
 9461SOL    HW146375   3.367  12.295   5.963  1.4055  0.5825 -1.4513
 9461SOL    HW246376   3.394  12.433   6.020  0.1381  0.0948  0.4099
 9462SOL     OW46377  11.034  13.240  12.533 -0.2140  0.3577 -0.0320
 9462SOL    HW146378  11.128  13.221  12.541  0.5326  2.8921 -1.4905
 9462SOL    HW246379  11.013  13.219  12.442 -0.9570  0.1967  0.1729
 9463SOL     OW46380  13.721  13.046  12.461 -0.1316  0.3043  0.3667
 9463SOL    HW146381  13.717  13.013  12.371  1.6303 -0.0128  0.3702
 9463SOL    HW246382  13.647  13.004  12.505  0.6106 -1.7886 -0.2587
 9464SOL     OW46383   1.865  11.821   5.745 -0.3757 -0.3274 -0.2457
 9464SOL    HW146384   1.928  11.879   5.702  0.5027 -1.0439  0.0388
 9464SOL    HW246385   1.891  11.821   5.838 -0.3972 -1.1132 -0.2295
 9465SOL     OW46386   7.970  14.143   6.575  0.1632 -0.7117 -0.5810
 9465SOL    HW146387   7.999  14.140   6.484  0.9968 -2.1510 -0.3018
 9465SOL    HW246388   7.891  14.088   6.577  0.1406 -0.6748 -0.4420
 9466SOL     OW46389   7.955   5.730  13.558 -0.0112  0.8123  0.1529
 9466SOL    HW146390   7.881   5.676  13.585  0.5666  0.3861  0.9236
 9466SOL    HW246391   7.979   5.697  13.472 -0.7040  0.9474 -0.0965
 9467SOL     OW46392  12.439   9.815  13.395  0.3815  0.1854  0.1422
 9467SOL    HW146393  12.468   9.803  13.486 -0.6172 -0.4425  0.3927
 9467SOL    HW246394  12.400   9.902  13.394  0.4286  0.2094  0.3061
 9468SOL     OW46395   4.502   3.527  10.897 -0.1004  0.6907 -0.1330
 9468SOL    HW146396   4.411   3.546  10.873 -0.7812 -0.8970  0.9862
 9468SOL    HW246397   4.532   3.468  10.828 -0.0505  0.9109 -0.2997
 9469SOL     OW46398  11.218   6.552   6.989  0.5638 -0.4062  0.5700
 9469SOL    HW146399  11.228   6.502   7.069  0.2706 -0.1928  0.7419
 9469SOL    HW246400  11.301   6.541   6.943 -0.0814 -2.5211 -0.2456
 9470SOL     OW46401  12.207   3.792  11.158 -0.0397 -0.3736  0.8036
 9470SOL    HW146402  12.251   3.876  11.172 -0.0394 -0.4369  1.1957
 9470SOL    HW246403  12.132   3.795  11.218 -1.3666  0.3023 -0.7969
 9471SOL     OW46404   8.885   5.831   9.631  0.6350  0.4577  0.7166
 9471SOL    HW146405   8.801   5.867   9.604  1.1418  0.0083 -1.6897
 9471SOL    HW246406   8.898   5.865   9.720 -2.3350  0.0206  1.4241
 9472SOL     OW46407  13.699   9.090  12.686  0.2684 -0.0073  0.4316
 9472SOL    HW146408  13.742   9.169  12.717  1.1142 -1.0139  1.9373
 9472SOL    HW246409  13.713   9.091  12.591  2.9653  0.1385  0.7410
 9473SOL     OW46410   8.649   9.932   1.302  0.3264  0.1062  0.0021
 9473SOL    HW146411   8.703   9.996   1.349 -0.3200  1.3194 -0.8493
 9473SOL    HW246412   8.564   9.974   1.294 -0.0977 -0.8384 -0.6593
 9474SOL     OW46413   2.998  12.872   2.663  0.2163 -0.2547 -0.3206
 9474SOL    HW146414   2.934  12.819   2.614  1.1121 -0.9849 -0.7246
 9474SOL    HW246415   3.017  12.946   2.605 -1.1268  0.6239  0.2938
 9475SOL     OW46416  12.335  12.470   4.811  0.3672 -0.5997  0.2994
 9475SOL    HW146417  12.384  12.420   4.746  0.8846 -0.2057  0.3824
 9475SOL    HW246418  12.334  12.560   4.776 -1.1882 -0.7894 -0.2229
 9476SOL     OW46419  12.007   6.981   8.472  0.0268  0.1427  0.3268
 9476SOL    HW146420  12.058   7.055   8.439 -0.2953 -0.1561 -0.8961
 9476SOL    HW246421  11.933   7.022   8.518  0.6571  0.5702  0.9712
 9477SOL     OW46422   9.067  11.906  11.834 -0.2469  0.6534  0.3140
 9477SOL    HW146423   9.108  11.953  11.907  0.5654  3.8158 -1.9329
 9477SOL    HW246424   9.004  11.847  11.875  2.0808  0.1932  3.6310
 9478SOL     OW46425   1.590  12.257   7.146 -0.2444 -0.2714  0.5555
 9478SOL    HW146426   1.627  12.190   7.203  0.4586  0.5225  1.0492
 9478SOL    HW246427   1.664  12.313   7.123 -0.3971 -0.8061 -1.5152
 9479SOL     OW46428   6.763   4.503   0.362  0.1992  0.0723  0.2690
 9479SOL    HW146429   6.855   4.527   0.374 -0.0353  0.6437  1.0113
 9479SOL    HW246430   6.730   4.566   0.298  0.4069 -0.3660 -0.2810
 9480SOL     OW46431   4.189   9.952  11.114  0.0660 -0.0398  0.5827
 9480SOL    HW146432   4.123   9.993  11.171 -0.2148 -1.1257  1.0591
 9480SOL    HW246433   4.267   9.945  11.170  0.6098  1.2250  0.0265
 9481SOL     OW46434   4.854   3.081   5.086 -0.6555 -0.3861 -0.0569
 9481SOL    HW146435   4.798   3.158   5.091 -0.7137 -0.4619  0.6520
 9481SOL    HW246436   4.838   3.044   4.999 -1.1811 -0.0141 -0.1201
 9482SOL     OW46437   7.186   5.020   9.568  0.9415  0.1647  0.9153
 9482SOL    HW146438   7.202   5.102   9.523  1.5231  0.5224  1.7537
 9482SOL    HW246439   7.258   4.963   9.541 -0.2374 -0.5840 -0.8053
 9483SOL     OW46440   6.069   0.811   0.214 -0.2786  0.5466 -0.4930
 9483SOL    HW146441   6.072   0.864   0.134 -1.1955 -0.0537 -0.9397
 9483SOL    HW246442   6.154   0.768   0.217 -0.6766 -0.3835 -1.8223
 9484SOL     OW46443   2.597   0.477  13.082 -0.3273  0.1614  0.2889
 9484SOL    HW146444   2.528   0.534  13.049  0.2652  0.1048 -1.0957
 9484SOL    HW246445   2.611   0.413  13.013 -0.6309 -1.3909  1.5997
 9485SOL     OW46446   9.591   7.904   8.799 -0.2319 -0.3439 -0.3881
 9485SOL    HW146447   9.650   7.936   8.731 -0.8681 -0.5780 -1.0762
 9485SOL    HW246448   9.595   7.809   8.791  0.6550 -0.4292  0.7713
 9486SOL     OW46449   8.295   0.848   5.203  0.3978 -0.2385 -0.1227
 9486SOL    HW146450   8.334   0.761   5.216 -1.4097 -0.8624  1.5077
 9486SOL    HW246451   8.201   0.832   5.195 -0.1156  1.6398  1.3598
 9487SOL     OW46452   7.285   1.522   2.958 -0.2758  0.3387 -0.1111
 9487SOL    HW146453   7.347   1.536   2.886  0.0051 -0.5474 -0.0539
 9487SOL    HW246454   7.316   1.580   3.028  0.6361 -0.2645 -0.0006
 9488SOL     OW46455   8.206   5.423  13.186  0.0800  0.5131 -0.3018
 9488SOL    HW146456   8.144   5.483  13.145 -1.7248  0.2609  1.8189
 9488SOL    HW246457   8.275   5.411  13.122 -1.1929  2.2138 -2.0991
 9489SOL     OW46458  13.799  12.223  10.989  0.3121 -0.0687 -0.1433
 9489SOL    HW146459  13.751  12.141  10.992  0.5680 -0.2800 -1.2931
 9489SOL    HW246460  13.731  12.291  10.995  0.1328 -0.3467  1.1741
 9490SOL     OW46461  11.996   5.148   6.733 -0.3148 -0.4244 -0.1764
 9490SOL    HW146462  11.970   5.142   6.825 -0.4190 -0.3622 -0.2004
 9490SOL    HW246463  12.009   5.058   6.705 -1.5887 -0.5479 -0.4646
 9491SOL     OW46464   8.836   6.671   2.099 -0.0449 -0.2373 -0.4859
 9491SOL    HW146465   8.781   6.651   2.023 -2.2310  1.0478  0.6424
 9491SOL    HW246466   8.871   6.758   2.082 -0.7552  0.1672  0.0498
 9492SOL     OW46467   0.952   7.167   4.014 -0.2084  0.2646 -0.5282
 9492SOL    HW146468   0.917   7.213   4.091  1.1278  1.0125 -0.3362
 9492SOL    HW246469   1.046   7.163   4.030 -0.2840 -2.9678 -0.3409
 9493SOL     OW46470   4.463   2.089  10.573  0.3467  0.4847 -0.6667
 9493SOL    HW146471   4.558   2.087  10.561  0.3917  0.2396 -0.2748
 9493SOL    HW246472   4.437   1.997  10.575  0.1584  0.5469 -0.3043
 9494SOL     OW46473  10.167  11.842   7.178  0.2288 -0.3183  0.2062
 9494SOL    HW146474  10.087  11.874   7.219 -0.1052  0.0401 -0.7044
 9494SOL    HW246475  10.227  11.916   7.181 -0.7325  0.6938 -2.4119
 9495SOL     OW46476   9.770   1.980   1.080 -0.0511 -0.4855  0.3605
 9495SOL    HW146477   9.706   2.041   1.044  0.3392 -1.5656 -2.4114
 9495SOL    HW246478   9.806   2.025   1.156  0.0787  2.6781 -1.4252
 9496SOL     OW46479  13.349   4.536  14.120  0.4050 -0.1838  0.4963
 9496SOL    HW146480  13.382   4.462  14.170  0.5199 -0.1876  0.4145
 9496SOL    HW246481  13.283   4.498  14.062 -1.2642  0.1240  2.1013
 9497SOL     OW46482   5.265   8.745  11.954 -0.3012 -0.2307 -0.0910
 9497SOL    HW146483   5.275   8.824  12.007 -1.7498  0.2268 -0.4408
 9497SOL    HW246484   5.261   8.673  12.017  2.1445 -0.2157  0.1858
 9498SOL     OW46485  10.755   2.702   7.420  0.0923 -0.0554  0.1868
 9498SOL    HW146486  10.729   2.739   7.505  1.2253 -0.3212  0.6650
 9498SOL    HW246487  10.698   2.747   7.357  0.2566  1.2670  0.9278
 9499SOL     OW46488   4.456   3.929  10.125 -0.1880 -0.4655  0.1115
 9499SOL    HW146489   4.415   4.009  10.159  1.2333  0.4533 -0.2599
 9499SOL    HW246490   4.472   3.948  10.033 -1.7393 -1.9985 -0.5370
 9500SOL     OW46491   4.428  13.220   2.124 -0.4787 -0.3536  0.9892
 9500SOL    HW146492   4.462  13.137   2.156 -0.0319 -0.1483  1.0593
 9500SOL    HW246493   4.495  13.284   2.148 -0.2973 -0.1446 -0.0278
 9501SOL     OW46494   4.025   5.848  11.299  0.6013  0.7874  0.0556
 9501SOL    HW146495   4.023   5.755  11.278 -0.1999  0.7685  0.1812
 9501SOL    HW246496   4.102   5.882  11.253 -0.1091  0.3970 -1.4709
 9502SOL     OW46497  13.072   0.911   3.831 -0.0756 -0.3841  0.8325
 9502SOL    HW146498  13.031   0.852   3.894 -0.7447 -0.0475  0.7211
 9502SOL    HW246499  13.166   0.893   3.839 -0.2344 -1.1232  1.1356
 9503SOL     OW46500   2.599   2.410  12.964 -0.5056 -0.8798  0.0034
 9503SOL    HW146501   2.660   2.474  13.000 -0.5610 -0.3156 -0.8802
 9503SOL    HW246502   2.639   2.381  12.882 -1.8277  0.2000 -1.0763
 9504SOL     OW46503   9.665   3.057  12.597  0.3030 -0.0858  0.1184
 9504SOL    HW146504   9.695   3.058  12.507  2.0473  0.1888  0.6767
 9504SOL    HW246505   9.613   3.138  12.606  1.2546  0.5882 -0.2795
 9505SOL     OW46506  11.742  11.951   9.109  0.2100 -0.0307  0.2789
 9505SOL    HW146507  11.810  11.901   9.154  1.1562  1.4439  0.5861
 9505SOL    HW246508  11.789  11.998   9.040 -0.4824  1.0339  0.5133
 9506SOL     OW46509   8.458  14.026   3.220 -0.1823  0.0695  0.1195
 9506SOL    HW146510   8.406  14.071   3.153 -0.0911  0.2498  0.1709
 9506SOL    HW246511   8.417  14.051   3.302  0.6472  1.0925  0.2422
 9507SOL     OW46512   2.799  12.633   7.888  0.1813 -0.0032 -0.0344
 9507SOL    HW146513   2.872  12.658   7.830 -0.7863 -1.5589 -2.0541
 9507SOL    HW246514   2.757  12.716   7.909  0.2227  0.6189 -2.1324
 9508SOL     OW46515   3.918  10.552   0.471  0.9164 -0.0501 -0.5417
 9508SOL    HW146516   3.967  10.536   0.391 -0.5641  1.7774 -1.8922
 9508SOL    HW246517   3.888  10.465   0.498  1.2665 -0.6770 -2.0780
 9509SOL     OW46518   8.311   6.362  11.891  0.1977  0.3748 -0.0228
 9509SOL    HW146519   8.320   6.453  11.919  1.4617 -0.0790  1.1566
 9509SOL    HW246520   8.401   6.332  11.877 -0.1553 -0.8738  0.2488
 9510SOL     OW46521  12.572   3.024  10.847  0.1030  0.1117 -0.1722
 9510SOL    HW146522  12.493   2.993  10.803  0.3675 -0.9558  0.0826
 9510SOL    HW246523  12.634   2.952  10.839  0.8357  0.6905  0.1914
 9511SOL     OW46524   1.250   0.327  11.538 -0.5297  0.2329  0.7496
 9511SOL    HW146525   1.157   0.352  11.538 -0.0655  2.1228  1.4471
 9511SOL    HW246526   1.291   0.386  11.602  1.1388 -0.6202  0.5195
 9512SOL     OW46527   3.555   7.868  10.982  0.4044  0.4219  0.1918
 9512SOL    HW146528   3.631   7.925  10.992 -0.3461  1.1861  1.9384
 9512SOL    HW246529   3.486   7.926  10.949  0.2045  0.0344 -0.0831
 9513SOL     OW46530   3.280   3.709   0.714  0.1919 -0.3111 -0.1132
 9513SOL    HW146531   3.299   3.714   0.620 -0.0570 -1.5802 -0.2477
 9513SOL    HW246532   3.337   3.775   0.753  2.4631 -1.7124 -0.8428
 9514SOL     OW46533   9.502   9.760  13.064 -0.0007  0.1505 -0.3188
 9514SOL    HW146534   9.435   9.729  13.002 -1.0515  1.4298  0.1350
 9514SOL    HW246535   9.558   9.817  13.012  0.3062 -0.3472 -0.5367
 9515SOL     OW46536   5.056  12.719   3.913 -0.0595 -0.5316  0.4656
 9515SOL    HW146537   5.020  12.638   3.949 -1.1761  0.6747  2.1961
 9515SOL    HW246538   5.061  12.703   3.819 -3.9227 -1.3241  0.2115
 9516SOL     OW46539   3.346   7.590  13.242 -0.7124  0.1689  0.0053
 9516SOL    HW146540   3.259   7.619  13.212 -0.5597 -0.1911 -0.8156
 9516SOL    HW246541   3.329   7.544  13.324 -1.5685 -1.5856 -1.0864
 9517SOL     OW46542   8.186   2.575  13.992  0.5000  0.0376 -0.0652
 9517SOL    HW146543   8.212   2.586  13.901 -2.9869  1.5088 -1.0403
 9517SOL    HW246544   8.245   2.633  14.041  0.0701  2.1673 -1.9132
 9518SOL     OW46545  12.685   3.066   6.169 -0.2135  0.1354  0.4697
 9518SOL    HW146546  12.619   3.033   6.107 -0.3221 -0.5506  0.9339
 9518SOL    HW246547  12.692   2.997   6.235 -0.3195  0.9810  1.3917
 9519SOL     OW46548   3.166  10.891   2.083 -0.0098  0.3016  0.2361
 9519SOL    HW146549   3.242  10.858   2.131 -0.7750 -1.4345  0.3067
 9519SOL    HW246550   3.128  10.957   2.141  0.0503 -0.5711  1.2902
 9520SOL     OW46551   0.214   4.034   0.135  0.9480  0.1139 -0.2004
 9520SOL    HW146552   0.284   3.997   0.081  1.1422 -0.4734  0.4374
 9520SOL    HW246553   0.134   4.019   0.084  1.3241  1.3193 -1.2074
 9521SOL     OW46554   1.391  10.959   2.655  0.1525 -0.5199  0.3284
 9521SOL    HW146555   1.419  11.051   2.664  0.2431 -0.5939  0.8391
 9521SOL    HW246556   1.365  10.951   2.563 -1.6193  0.5204  0.6750
 9522SOL     OW46557  11.577   2.362   5.342  0.1458 -0.1743 -0.2890
 9522SOL    HW146558  11.653   2.411   5.374 -0.3448  0.1661  0.3845
 9522SOL    HW246559  11.504   2.424   5.350 -0.3169 -0.7147 -0.3044
 9523SOL     OW46560   0.946   5.698   5.691  0.1157 -0.5585 -0.0297
 9523SOL    HW146561   0.945   5.793   5.682  1.2551 -0.5127  0.1267
 9523SOL    HW246562   0.906   5.681   5.776  1.9718 -0.0349  1.0066
 9524SOL     OW46563   4.489   1.674   9.707  0.2618 -0.6626 -0.1460
 9524SOL    HW146564   4.445   1.620   9.772  0.1241  0.9445  1.1758
 9524SOL    HW246565   4.582   1.651   9.715  0.5365  0.8679  2.1126
 9525SOL     OW46566   3.869  11.211  10.832  0.3741 -0.6901  0.1720
 9525SOL    HW146567   3.945  11.257  10.797  0.6594 -2.1870 -1.2811
 9525SOL    HW246568   3.814  11.194  10.756 -0.0645 -2.0896  0.7780
 9526SOL     OW46569  12.686   1.566   8.482  0.3275 -0.1915  0.5104
 9526SOL    HW146570  12.680   1.524   8.569  2.5479 -0.3203  0.6540
 9526SOL    HW246571  12.703   1.493   8.422  1.4214  0.1733  0.3620
 9527SOL     OW46572   6.212   1.817  10.630  0.2384  0.0193 -0.0361
 9527SOL    HW146573   6.298   1.859  10.626  0.0880  0.4825 -5.2307
 9527SOL    HW246574   6.150   1.888  10.644  0.4725  0.1220  0.5107
 9528SOL     OW46575  12.487   3.922   0.582 -0.2071  0.4038  0.3827
 9528SOL    HW146576  12.464   3.842   0.535  1.5478 -0.2104  0.5008
 9528SOL    HW246577  12.502   3.987   0.514 -2.4970  0.9580  0.3028
 9529SOL     OW46578   3.789   8.049   6.837  0.3967 -0.1433 -0.2537
 9529SOL    HW146579   3.732   8.100   6.894 -2.3227 -0.2061 -2.7082
 9529SOL    HW246580   3.793   7.962   6.878 -0.0665  0.2754  0.7007
 9530SOL     OW46581   6.411   0.807   5.667  0.0980  0.2439 -0.3713
 9530SOL    HW146582   6.359   0.814   5.588 -1.6877 -1.4532  0.5644
 9530SOL    HW246583   6.408   0.894   5.706  0.9812  1.0936 -2.0988
 9531SOL     OW46584  10.272   3.090   7.180 -0.5475  0.2079  0.2403
 9531SOL    HW146585  10.271   3.185   7.181  0.1463  0.2373  2.0069
 9531SOL    HW246586  10.184   3.065   7.150 -0.1605  1.3571 -1.9932
 9532SOL     OW46587   1.006  11.377  12.525 -0.3324  0.6923 -0.5585
 9532SOL    HW146588   0.952  11.445  12.484  0.5823  0.6183 -1.9568
 9532SOL    HW246589   0.977  11.296  12.485 -1.9036  0.0880  1.6105
 9533SOL     OW46590  10.391   5.565   2.118 -0.0661  0.6337 -0.0690
 9533SOL    HW146591  10.298   5.558   2.137 -0.1498  1.2371 -0.2434
 9533SOL    HW246592  10.414   5.655   2.141  0.8102  0.0676  1.4262
 9534SOL     OW46593   7.773  13.265  12.186  0.2811  0.7206  0.2010
 9534SOL    HW146594   7.697  13.304  12.230 -0.0347  0.5573 -0.1931
 9534SOL    HW246595   7.744  13.177  12.161  1.0932  0.1015  1.3569
 9535SOL     OW46596   1.080  13.920  13.807  0.2338  0.6106  0.1265
 9535SOL    HW146597   1.100  13.877  13.890 -0.6990 -1.8057 -0.8041
 9535SOL    HW246598   1.161  13.916  13.757  0.8172  2.1326  0.8903
 9536SOL     OW46599   1.221  10.362   1.347  0.0127  0.2210  0.3899
 9536SOL    HW146600   1.230  10.384   1.254 -0.0068  0.3597  0.4209
 9536SOL    HW246601   1.129  10.380   1.366 -0.3971 -1.3229  0.0358
 9537SOL     OW46602   7.629   3.063  10.148 -0.6479  0.1793 -0.1459
 9537SOL    HW146603   7.578   2.995  10.104 -0.0967 -0.8239  0.7155
 9537SOL    HW246604   7.600   3.060  10.239  0.7384 -0.2580  0.3191
 9538SOL     OW46605   2.734   9.033   3.108 -0.1297 -0.9745 -0.2172
 9538SOL    HW146606   2.783   8.955   3.133 -0.8021 -0.9572  1.2865
 9538SOL    HW246607   2.685   9.007   3.030  0.4105 -1.7417 -0.3057
 9539SOL     OW46608   6.094  12.239   0.613  0.3469 -0.5919  0.3013
 9539SOL    HW146609   6.038  12.166   0.640 -0.3994  0.1661  0.8655
 9539SOL    HW246610   6.059  12.315   0.660 -0.3161  0.5895 -1.9106
 9540SOL     OW46611   3.529   5.113   5.499 -0.2278 -0.2014 -0.0726
 9540SOL    HW146612   3.617   5.095   5.533 -0.3936  0.7671  0.9179
 9540SOL    HW246613   3.544   5.130   5.406  0.4255 -1.4599 -0.2270
 9541SOL     OW46614  10.049  11.073  12.042  0.3104  0.6167 -0.5454
 9541SOL    HW146615  10.033  11.139  12.109  0.9442  1.5454 -1.2794
 9541SOL    HW246616   9.976  11.012  12.050 -0.7952  1.9015 -0.4429
 9542SOL     OW46617  12.213   3.162  11.563  0.2026 -0.8916 -0.4623
 9542SOL    HW146618  12.228   3.229  11.496 -0.5468  1.0089  1.1456
 9542SOL    HW246619  12.168   3.091  11.517 -0.0716  0.2393 -2.0235
 9543SOL     OW46620   1.155   0.517   0.079  0.0204  0.2792  0.2063
 9543SOL    HW146621   1.185   0.466   0.004  1.6930 -0.1370  1.1001
 9543SOL    HW246622   1.174   0.608   0.055  0.6157  0.1423  0.1375
 9544SOL     OW46623   9.399   2.630   5.716 -0.3338 -0.2148 -0.0618
 9544SOL    HW146624   9.386   2.559   5.779  0.2746 -1.7185 -1.5719
 9544SOL    HW246625   9.312   2.649   5.682 -0.2386 -1.8433 -1.3004
 9545SOL     OW46626   1.863  12.951   4.591  0.0373 -0.2493  0.6968
 9545SOL    HW146627   1.851  13.036   4.634 -0.5012  0.9754 -1.7050
 9545SOL    HW246628   1.917  12.901   4.652  2.1491  2.5564  1.3298
 9546SOL     OW46629  13.053   9.144   0.709 -0.2561  0.6171 -0.0405
 9546SOL    HW146630  12.972   9.189   0.733 -0.2016  0.0547  1.2616
 9546SOL    HW246631  13.121   9.188   0.759 -0.1058 -0.4315  0.7091
 9547SOL     OW46632  12.192  13.322   1.359  0.6105 -0.4367 -0.2489
 9547SOL    HW146633  12.167  13.267   1.433 -0.2391  0.5468  0.2330
 9547SOL    HW246634  12.213  13.407   1.399 -0.2806  0.2370 -1.1441
 9548SOL     OW46635   0.708  12.951   9.755  0.5232  0.2301 -0.0304
 9548SOL    HW146636   0.705  13.045   9.735 -1.6202  0.1096 -0.4941
 9548SOL    HW246637   0.670  12.909   9.679  1.5822 -1.0691  0.1231
 9549SOL     OW46638  11.078   6.773   7.802 -0.7591 -0.0167 -0.1637
 9549SOL    HW146639  11.150   6.788   7.862 -1.5576  1.1575  0.5429
 9549SOL    HW246640  11.106   6.814   7.720 -0.0936 -0.7288 -0.3049
 9550SOL     OW46641   2.239  13.715   5.636 -0.0242 -0.2141  0.3333
 9550SOL    HW146642   2.277  13.712   5.724 -0.5263 -1.1517  0.5278
 9550SOL    HW246643   2.250  13.627   5.602 -0.1551  0.0503 -0.4159
 9551SOL     OW46644  10.640   4.872  10.181  0.2405  0.3740  0.2983
 9551SOL    HW146645  10.718   4.875  10.125 -0.5157  0.6646 -0.7628
 9551SOL    HW246646  10.602   4.959  10.175 -0.7628 -0.0775 -0.0639
 9552SOL     OW46647   7.137   9.366   2.752 -0.0420 -0.7231  0.6902
 9552SOL    HW146648   7.103   9.449   2.784 -1.6059 -1.3381  0.7170
 9552SOL    HW246649   7.116   9.366   2.659  1.8765 -0.2008  0.2123
 9553SOL     OW46650   2.978  10.276   3.614  0.0088 -0.3741 -0.1977
 9553SOL    HW146651   3.056  10.306   3.567  0.2632 -0.7423 -0.0199
 9553SOL    HW246652   2.905  10.295   3.555  0.2905 -0.5190 -0.5952
 9554SOL     OW46653   8.275  12.943   4.022 -0.6271 -0.2906  0.1406
 9554SOL    HW146654   8.310  12.914   4.106 -0.7803  2.7265  1.3692
 9554SOL    HW246655   8.181  12.929   4.030 -0.5646 -0.7329  0.1401
 9555SOL     OW46656   9.163   1.667   4.784 -0.7103 -0.5952  0.1867
 9555SOL    HW146657   9.121   1.749   4.808 -1.7114 -1.1036  0.2280
 9555SOL    HW246658   9.257   1.684   4.794 -0.9603  0.0761  1.6615
 9556SOL     OW46659  13.864  12.752   8.309 -0.0988 -0.1504  0.1721
 9556SOL    HW146660  13.873  12.822   8.374  0.7007  0.1850 -0.2825
 9556SOL    HW246661  13.818  12.794   8.236 -3.0726 -1.1004  1.3430
 9557SOL     OW46662   3.051   5.247  10.527  0.3895 -0.0967 -0.2366
 9557SOL    HW146663   3.052   5.171  10.586 -0.4672 -0.1955 -0.3299
 9557SOL    HW246664   3.051   5.209  10.439 -1.2760 -0.0538 -0.2913
 9558SOL     OW46665   5.008  11.402  11.283  0.0066  0.2972  0.3983
 9558SOL    HW146666   5.009  11.312  11.316  0.2016  0.8701  2.0495
 9558SOL    HW246667   5.093  11.437  11.307 -0.3570  1.1605  0.4406
 9559SOL     OW46668  11.345   7.030  12.145  0.5325 -0.2918 -0.8362
 9559SOL    HW146669  11.292   7.108  12.131 -1.5490 -1.3403  0.6125
 9559SOL    HW246670  11.326   6.974  12.070  0.0391 -0.4034 -0.6355
 9560SOL     OW46671   6.301   9.849  12.695  0.3716  0.6646  0.3309
 9560SOL    HW146672   6.386   9.809  12.677  0.5412  1.2778 -0.2238
 9560SOL    HW246673   6.319   9.914  12.763  0.5076  1.3882 -0.3826
 9561SOL     OW46674   2.753   5.088   3.884 -0.4598 -0.3961  0.8345
 9561SOL    HW146675   2.761   5.002   3.844  0.8089  0.0876 -0.0389
 9561SOL    HW246676   2.833   5.134   3.858 -2.1091  1.8578 -0.7403
 9562SOL     OW46677  12.906  10.083   8.874 -0.3352 -0.7348 -0.6472
 9562SOL    HW146678  12.861  10.105   8.792 -2.0244 -1.2872  0.0760
 9562SOL    HW246679  12.899  10.162   8.927 -0.0392 -0.6700 -0.7057
 9563SOL     OW46680   7.314   3.553   9.135  0.0108 -0.1150 -0.0985
 9563SOL    HW146681   7.365   3.475   9.112  0.8284  0.2508  0.4282
 9563SOL    HW246682   7.225   3.531   9.109  0.3891 -0.8526 -0.8680
 9564SOL     OW46683   3.014   0.545  13.525  0.3586 -0.0110 -0.3722
 9564SOL    HW146684   3.086   0.593  13.484  0.8061  0.7111  1.1837
 9564SOL    HW246685   2.963   0.510  13.451  1.4622  0.7013 -1.5124
 9565SOL     OW46686  10.113   7.774   9.941 -0.2215 -0.2313  0.4724
 9565SOL    HW146687  10.106   7.744   9.851  2.1911  2.2407 -0.6622
 9565SOL    HW246688  10.146   7.698   9.989  3.2895 -0.3307 -1.7675
 9566SOL     OW46689  10.027  12.562   3.418  0.0337  0.3516  0.1705
 9566SOL    HW146690   9.973  12.485   3.401  1.0792 -0.4463  0.3761
 9566SOL    HW246691  10.116  12.528   3.427  0.5658  1.6168 -0.0366
 9567SOL     OW46692  13.022   9.712  10.084 -0.3785  0.4444 -0.0440
 9567SOL    HW146693  13.086   9.642  10.101 -0.6192  0.4595  0.9775
 9567SOL    HW246694  12.965   9.675  10.016  0.5259  0.3199 -0.7591
 9568SOL     OW46695   6.539   9.695  12.676  0.5687  0.1605 -0.3392
 9568SOL    HW146696   6.590   9.707  12.596  0.9342 -0.8728 -0.2691
 9568SOL    HW246697   6.600   9.655  12.738 -0.3892 -1.3989 -0.3555
 9569SOL     OW46698   6.815  11.576   7.003  0.2686 -0.1938  1.1003
 9569SOL    HW146699   6.792  11.504   7.062 -0.3671 -0.5078  0.4809
 9569SOL    HW246700   6.759  11.648   7.030 -0.7712 -0.6531  0.2367
 9570SOL     OW46701   8.531   9.402   6.843 -0.0436 -0.1912  0.9440
 9570SOL    HW146702   8.533   9.334   6.777  1.2464 -0.9172  1.6920
 9570SOL    HW246703   8.598   9.465   6.815 -0.6054  0.3320  0.7355
 9571SOL     OW46704   2.045  11.922   4.972 -0.4354 -0.1191 -0.3497
 9571SOL    HW146705   2.101  11.852   5.006 -2.2480 -0.8096  1.4512
 9571SOL    HW246706   2.089  12.002   4.999 -0.3905 -0.6451  1.2409
 9572SOL     OW46707  10.455   2.205   3.193  0.1598 -0.3404  0.3242
 9572SOL    HW146708  10.390   2.159   3.140 -0.6004 -0.1600  1.0747
 9572SOL    HW246709  10.502   2.136   3.238 -1.5044 -0.4142  2.0618
 9573SOL     OW46710  13.818   0.481  10.312  0.4787 -0.0091 -0.0742
 9573SOL    HW146711  13.851   0.516  10.229  2.8526 -0.4104  0.6204
 9573SOL    HW246712  13.855   0.393  10.317 -1.9952 -1.1261  0.1378
 9574SOL     OW46713   8.934   5.216  13.280  0.1231 -0.2720 -0.2630
 9574SOL    HW146714   8.900   5.131  13.253 -4.0858  0.5208  1.7327
 9574SOL    HW246715   8.872   5.279  13.242  0.4396  1.5263  1.9740
 9575SOL     OW46716   7.584  12.865   9.088 -0.1504 -0.0482 -0.0370
 9575SOL    HW146717   7.556  12.948   9.050  0.4583  0.1905  0.0174
 9575SOL    HW246718   7.639  12.825   9.021  1.1742  0.5133  0.6759
 9576SOL     OW46719   2.754   5.883   3.975 -0.5620  0.8732 -0.6342
 9576SOL    HW146720   2.822   5.851   3.916 -1.3657 -0.4749 -0.8653
 9576SOL    HW246721   2.752   5.978   3.960  2.0188  1.1387  0.2229
 9577SOL     OW46722   7.468   0.912  13.485 -0.6609 -0.2610 -0.1040
 9577SOL    HW146723   7.461   0.816  13.479  1.1783 -0.4608  0.3636
 9577SOL    HW246724   7.378   0.942  13.492 -1.3377 -1.9025 -1.0868
 9578SOL     OW46725  13.947   9.228   4.376 -0.4424 -0.0416 -0.0401
 9578SOL    HW146726  13.891   9.262   4.307 -0.7090  0.1211  0.2497
 9578SOL    HW246727  13.991   9.305   4.412 -0.5570 -0.0837  0.1902
 9579SOL     OW46728  11.933   3.998   9.791  0.1249  0.3267 -0.1365
 9579SOL    HW146729  12.025   3.986   9.814  0.4365 -0.0464 -1.4795
 9579SOL    HW246730  11.886   3.990   9.874  1.0587 -1.9987  0.2304
 9580SOL     OW46731   0.867  11.207  13.979 -0.0668 -0.2126 -0.1117
 9580SOL    HW146732   0.858  11.302  13.991 -0.2348 -0.4030  1.5474
 9580SOL    HW246733   0.827  11.190  13.894 -0.8395  1.0982 -0.0488
 9581SOL     OW46734  11.437  14.052   3.928  0.7295  0.4584  0.0142
 9581SOL    HW146735  11.462  13.970   3.884 -2.8886 -0.6235 -0.3964
 9581SOL    HW246736  11.486  14.051   4.010  0.3413 -2.5854  0.3565
 9582SOL     OW46737  12.492   6.328   3.996  0.4996 -0.8254  0.4841
 9582SOL    HW146738  12.564   6.304   3.938 -1.9493 -2.4596 -2.1742
 9582SOL    HW246739  12.471   6.248   4.043  0.7281 -0.2244  1.6332
 9583SOL     OW46740   2.448   1.797   9.484 -0.1050 -0.2861  0.7798
 9583SOL    HW146741   2.501   1.841   9.418 -0.2942 -0.9656  0.1588
 9583SOL    HW246742   2.465   1.845   9.565 -0.2397  0.8527  0.1470
 9584SOL     OW46743  12.183  13.630   6.479  0.4037 -0.3235 -0.2109
 9584SOL    HW146744  12.260  13.630   6.535 -0.2683 -0.3088  0.7407
 9584SOL    HW246745  12.195  13.554   6.422  0.5591 -1.0271  0.7318
 9585SOL     OW46746   1.066   7.266   7.077 -0.3194 -0.8001  0.4749
 9585SOL    HW146747   0.987   7.318   7.093 -0.1992 -0.7420  0.8778
 9585SOL    HW246748   1.033   7.179   7.055 -0.4786 -1.1222  1.8978
 9586SOL     OW46749   9.651   4.960   7.713 -0.5161 -0.0503  0.9022
 9586SOL    HW146750   9.675   4.880   7.665  0.5336  0.9664 -0.3248
 9586SOL    HW246751   9.683   4.945   7.802 -0.3124 -0.9758  0.6884
 9587SOL     OW46752   8.058  11.282   8.306  0.1301 -0.3907  0.3257
 9587SOL    HW146753   7.963  11.286   8.322  0.3077 -1.1922  1.6919
 9587SOL    HW246754   8.097  11.282   8.393  1.3863 -0.2630 -0.2288
 9588SOL     OW46755  10.196  11.379   2.138  0.2694  0.0599  0.0177
 9588SOL    HW146756  10.196  11.455   2.080  0.7044  0.9757  1.1606
 9588SOL    HW246757  10.111  11.338   2.124  0.6695 -0.2096 -1.8160
 9589SOL     OW46758  13.627   6.768  12.490 -0.1767 -0.1603 -0.3340
 9589SOL    HW146759  13.582   6.851  12.474 -0.2504  0.0104  0.6840
 9589SOL    HW246760  13.720   6.789  12.479 -0.0391  0.5524  1.7966
 9590SOL     OW46761  12.478   7.423  12.958 -0.2218  0.1405 -0.5486
 9590SOL    HW146762  12.562   7.392  12.925  1.1329  2.5111  0.4771
 9590SOL    HW246763  12.454   7.495  12.900  0.1009  1.5787  1.0262
 9591SOL     OW46764   5.106   3.614   0.792  0.3522  0.2758  0.8300
 9591SOL    HW146765   5.119   3.698   0.749  0.2682  1.2918  2.6742
 9591SOL    HW246766   5.039   3.631   0.859  1.8089 -0.7054  2.6286
 9592SOL     OW46767  12.466   9.946   4.385 -0.1904  0.0058  0.1479
 9592SOL    HW146768  12.536   9.894   4.345  0.6986 -0.3982  2.1053
 9592SOL    HW246769  12.512  10.015   4.432 -1.0744 -0.2660  1.4713
 9593SOL     OW46770   8.034  12.181  12.978  0.0562  0.2948 -0.3893
 9593SOL    HW146771   8.063  12.177  13.069  0.5018 -0.3065 -0.5487
 9593SOL    HW246772   8.052  12.093  12.943 -4.6767 -1.2711  0.3190
 9594SOL     OW46773   3.596   4.455   2.667 -0.4001 -0.0275  0.7922
 9594SOL    HW146774   3.645   4.377   2.641 -0.1133  0.6354 -0.8017
 9594SOL    HW246775   3.507   4.440   2.634  0.3221  1.4766 -2.2604
 9595SOL     OW46776   5.591   2.892   8.287  0.1219 -0.5455  0.3063
 9595SOL    HW146777   5.603   2.802   8.316 -0.2865 -0.2157  1.5435
 9595SOL    HW246778   5.568   2.940   8.366  1.4321  0.8704 -0.1254
 9596SOL     OW46779   1.588   0.799   0.122 -0.0228 -0.1531 -0.4192
 9596SOL    HW146780   1.675   0.820   0.156 -0.1698  0.4881 -0.4225
 9596SOL    HW246781   1.528   0.842   0.184 -0.3351 -0.6217 -0.3966
 9597SOL     OW46782   2.316  12.529   2.424 -0.3648  0.1545  0.2875
 9597SOL    HW146783   2.307  12.614   2.467  0.6858  0.5321 -0.2023
 9597SOL    HW246784   2.358  12.549   2.340 -0.3217 -0.8270  0.0633
 9598SOL     OW46785  13.240  13.150  11.648 -0.0906  0.1920  0.3017
 9598SOL    HW146786  13.234  13.059  11.618 -0.5050  0.7215 -1.3703
 9598SOL    HW246787  13.174  13.157  11.717 -0.4068 -0.6520  0.0975
 9599SOL     OW46788  10.409   9.914  10.901  0.1591  0.3935  0.3824
 9599SOL    HW146789  10.418  10.005  10.927  0.0777  0.2497  0.9342
 9599SOL    HW246790  10.322   9.888  10.934 -0.3490  0.4695 -0.8511
 9600SOL     OW46791   1.163  10.948   9.596  0.0857  0.1692 -0.0120
 9600SOL    HW146792   1.090  10.954   9.534  0.3080  0.5016 -0.2399
 9600SOL    HW246793   1.148  11.020   9.657 -1.1877 -1.2354  1.4750
 9601SOL     OW46794   7.300   7.818  13.743  0.4464 -0.0269 -0.2122
 9601SOL    HW146795   7.314   7.745  13.802  1.2260  0.6443  0.4577
 9601SOL    HW246796   7.244   7.879  13.792  2.6016  1.3839  0.6177
 9602SOL     OW46797  12.966   4.136   2.485 -0.1942  0.2071 -0.1758
 9602SOL    HW146798  13.027   4.118   2.414  0.1119 -1.0565  0.3739
 9602SOL    HW246799  12.926   4.220   2.462  1.5948  0.9787 -0.6354
 9603SOL     OW46800   3.138  13.943   8.076 -0.3808  0.3014 -0.5847
 9603SOL    HW146801   3.065  13.995   8.111  0.0381  0.1791  0.5188
 9603SOL    HW246802   3.132  13.860   8.122  1.1734  0.7234  0.4555
 9604SOL     OW46803   0.148   1.449   9.195  0.5631  0.5314  0.5166
 9604SOL    HW146804   0.103   1.432   9.111 -0.3816  0.7352  0.9658
 9604SOL    HW246805   0.142   1.544   9.206  0.1368  0.4405  1.1089
 9605SOL     OW46806   9.784  12.475   9.480 -0.8537  0.0370 -0.0410
 9605SOL    HW146807   9.751  12.516   9.559  0.7126  0.2451  0.5446
 9605SOL    HW246808   9.781  12.545   9.414 -0.6361  0.3453  0.2706
 9606SOL     OW46809   0.267   6.259   0.963 -0.0558  0.0923  0.1521
 9606SOL    HW146810   0.296   6.337   1.010 -1.3187  0.0072  1.1350
 9606SOL    HW246811   0.171   6.268   0.958 -0.3525 -1.8488  1.2254
 9607SOL     OW46812  10.529  12.747   3.922  0.5127  0.6419  0.0165
 9607SOL    HW146813  10.508  12.728   4.013 -1.3626  1.8310 -0.1149
 9607SOL    HW246814  10.535  12.660   3.880 -0.2103  0.1287  0.9423
 9608SOL     OW46815   8.191   5.177   3.361 -0.1565 -0.1494 -0.1350
 9608SOL    HW146816   8.251   5.172   3.287  0.7777  0.2708  0.5848
 9608SOL    HW246817   8.206   5.263   3.400 -0.4067 -0.4823  0.7322
 9609SOL     OW46818  14.125   2.637   5.702  0.0825 -0.3456 -0.1925
 9609SOL    HW146819  14.208   2.651   5.748  0.6492 -0.3942 -1.1643
 9609SOL    HW246820  14.148   2.641   5.609 -0.7938 -1.5382 -0.4957
 9610SOL     OW46821   4.220  11.513   6.684 -0.4559 -0.0604 -0.0050
 9610SOL    HW146822   4.260  11.600   6.676 -0.9474  0.2057  0.3544
 9610SOL    HW246823   4.140  11.519   6.632 -0.7092 -0.1578  0.3684
 9611SOL     OW46824  12.122  11.751  13.154  0.1398 -0.5106 -0.0913
 9611SOL    HW146825  12.199  11.731  13.208 -0.9905 -1.0605  1.3728
 9611SOL    HW246826  12.105  11.843  13.169  0.8005 -0.2499 -0.8416
 9612SOL     OW46827  12.570  10.818   1.334  0.0718  0.0053  0.1996
 9612SOL    HW146828  12.518  10.739   1.321  0.8414 -0.5769  0.5142
 9612SOL    HW246829  12.509  10.890   1.321 -1.2602 -0.6352  2.2670
 9613SOL     OW46830  10.699  11.863   2.155 -0.0812 -0.6978 -0.2774
 9613SOL    HW146831  10.656  11.778   2.164  1.0837 -1.5189 -1.8855
 9613SOL    HW246832  10.709  11.875   2.061  0.8989  0.6475 -0.0348
 9614SOL     OW46833   9.804   4.700   4.327 -0.1366 -0.2781 -0.6389
 9614SOL    HW146834   9.810   4.781   4.276  1.1759 -0.9857 -1.6684
 9614SOL    HW246835   9.710   4.687   4.339 -0.4113  0.8666 -1.3116
 9615SOL     OW46836  12.398   5.282   7.289  0.5956 -0.1881  0.5605
 9615SOL    HW146837  12.427   5.369   7.316 -1.1863  0.0616  1.8467
 9615SOL    HW246838  12.342   5.253   7.361 -0.5979 -1.4886 -0.8558
 9616SOL     OW46839  11.517  13.084   2.219 -0.2565 -0.2690 -0.1602
 9616SOL    HW146840  11.441  13.107   2.272 -2.2434  0.8798 -3.1664
 9616SOL    HW246841  11.526  12.989   2.228 -2.4100 -0.5029 -0.0851
 9617SOL     OW46842   7.539   1.007   0.242 -0.2683 -0.0743  0.2403
 9617SOL    HW146843   7.600   1.068   0.283  0.5945 -0.0165 -1.0636
 9617SOL    HW246844   7.500   0.959   0.314  1.6910 -0.4595  1.1013
 9618SOL     OW46845   2.454  10.065   4.140 -0.2995  0.3471 -0.6971
 9618SOL    HW146846   2.527  10.102   4.090 -0.1374 -0.4575 -1.0700
 9618SOL    HW246847   2.481   9.976   4.160 -1.0196  0.1629 -0.5138
 9619SOL     OW46848   0.487   8.166  13.183 -0.4639  0.0241 -0.0262
 9619SOL    HW146849   0.480   8.198  13.273  2.1412 -0.9223  0.6146
 9619SOL    HW246850   0.542   8.231  13.139 -0.3245 -0.3770 -0.4463
 9620SOL     OW46851   3.047  11.650   2.220  0.2850  0.0163 -0.0266
 9620SOL    HW146852   2.976  11.634   2.283  1.2508 -0.8253  0.8722
 9620SOL    HW246853   3.066  11.564   2.184  0.0604  0.4237 -1.1588
 9621SOL     OW46854   8.014   2.731  13.749  0.1301 -0.3758 -0.0483
 9621SOL    HW146855   7.994   2.752  13.841  1.2106  1.4311 -0.2015
 9621SOL    HW246856   7.953   2.784  13.698 -2.5146 -3.4714 -0.4849
 9622SOL     OW46857   1.673   4.261   9.283 -1.0219  0.3434 -0.3883
 9622SOL    HW146858   1.588   4.276   9.326 -0.8446 -1.6339  0.7513
 9622SOL    HW246859   1.679   4.166   9.275  1.9166  0.2489  1.3774
 9623SOL     OW46860   9.941  10.519   7.106 -0.4727  0.4582 -0.2059
 9623SOL    HW146861   9.958  10.425   7.104 -0.0032  0.5395 -2.3645
 9623SOL    HW246862  10.026  10.559   7.121 -0.6752  0.5607  0.7305
 9624SOL     OW46863   3.854   0.155   3.957  0.1202 -0.0448 -0.1037
 9624SOL    HW146864   3.856   0.224   4.024 -0.5548  0.7354 -0.8705
 9624SOL    HW246865   3.928   0.099   3.980 -0.5619 -0.2702  1.7846
 9625SOL     OW46866   9.130   1.683   2.194  0.0460 -0.1846 -0.3318
 9625SOL    HW146867   9.164   1.767   2.165  0.4412 -0.4617 -0.6868
 9625SOL    HW246868   9.140   1.626   2.118 -1.5658 -0.1800 -0.5906
 9626SOL     OW46869  10.227   8.539  13.232 -0.0517  0.4472  0.5448
 9626SOL    HW146870  10.280   8.483  13.288  0.7854  1.1090  0.4272
 9626SOL    HW246871  10.262   8.627  13.245  0.5941  0.5344 -1.4844
 9627SOL     OW46872  10.038  10.720  12.472  0.2427  0.1799  0.2803
 9627SOL    HW146873  10.067  10.680  12.554 -0.9137  0.4366  0.8335
 9627SOL    HW246874   9.974  10.786  12.499 -1.1645 -0.6460 -0.9084
 9628SOL     OW46875   3.101  14.152   3.071 -0.1925 -0.0491 -0.3782
 9628SOL    HW146876   3.096  14.057   3.067 -2.3343  0.0166 -0.1513
 9628SOL    HW246877   3.187  14.170   3.108  1.2615 -1.8050 -2.6073
 9629SOL     OW46878  12.175   3.786  12.518 -0.0637 -0.5277 -0.2702
 9629SOL    HW146879  12.104   3.845  12.493 -1.1192 -0.9879  1.4503
 9629SOL    HW246880  12.155   3.761  12.608  2.4014 -0.5434  0.3536
 9630SOL     OW46881   8.274  11.197   2.208 -0.9844 -0.2100 -0.0829
 9630SOL    HW146882   8.349  11.206   2.267  0.5846 -1.4516 -1.7560
 9630SOL    HW246883   8.202  11.239   2.254  0.7478  1.1313  1.5728
 9631SOL     OW46884   9.597   9.578   2.239  0.0503 -0.4524 -0.4776
 9631SOL    HW146885   9.631   9.609   2.156 -2.1142  1.5766 -0.6745
 9631SOL    HW246886   9.644   9.630   2.305 -0.6185  0.3363 -0.6125
 9632SOL     OW46887  12.318   7.749   0.349 -0.2817  0.5226  0.0714
 9632SOL    HW146888  12.355   7.729   0.263 -1.6562 -2.2007  0.0172
 9632SOL    HW246889  12.382   7.714   0.411  0.8177  2.6787  0.2878
 9633SOL     OW46890   0.239   9.516   6.024  1.0851  0.0652  0.3386
 9633SOL    HW146891   0.264   9.596   6.069 -1.3974  0.5748  0.9500
 9633SOL    HW246892   0.267   9.529   5.933 -0.0737  2.0769  0.2039
 9634SOL     OW46893   2.302   6.367   2.411 -0.1290 -1.0612  0.2616
 9634SOL    HW146894   2.223   6.419   2.397  1.0561  0.9036  0.4213
 9634SOL    HW246895   2.283   6.317   2.490 -0.7557  0.3826  1.0721
 9635SOL     OW46896   2.051  12.612   8.370  0.3451 -0.0734 -0.4913
 9635SOL    HW146897   2.033  12.667   8.446 -0.9030  0.2958 -1.0376
 9635SOL    HW246898   2.134  12.568   8.392 -0.5590 -0.8664  1.5904
 9636SOL     OW46899  10.867   0.405   9.967 -0.3206 -0.5668 -0.1132
 9636SOL    HW146900  10.921   0.454  10.029 -0.5042 -0.6679  0.1337
 9636SOL    HW246901  10.791   0.377  10.019 -0.2540 -1.0495 -0.2665
 9637SOL     OW46902   5.968   3.331   3.847 -0.3659  0.0468 -0.3071
 9637SOL    HW146903   6.004   3.275   3.778  2.1385  0.2941  0.6940
 9637SOL    HW246904   5.875   3.339   3.825 -0.4187 -2.8151 -1.6179
 9638SOL     OW46905   8.303  11.372  10.554  0.0211  0.0944  0.1598
 9638SOL    HW146906   8.274  11.431  10.623 -0.5344  0.1946 -0.1499
 9638SOL    HW246907   8.276  11.285  10.585 -1.0063  0.2318 -0.3171
 9639SOL     OW46908   3.415   7.715   5.492 -0.0670 -0.4220  0.4392
 9639SOL    HW146909   3.327   7.695   5.458  0.0233 -0.0937  0.0106
 9639SOL    HW246910   3.410   7.691   5.584 -0.3782 -1.1278  0.2508
 9640SOL     OW46911  10.099  10.794   4.943 -0.0642  0.3832 -0.4957
 9640SOL    HW146912  10.164  10.746   4.994 -0.3260  0.8417  0.2864
 9640SOL    HW246913  10.122  10.886   4.955  0.2575  0.4836 -1.7445
 9641SOL     OW46914  12.148  12.257   8.491 -0.1753 -0.5261 -0.0654
 9641SOL    HW146915  12.068  12.296   8.456 -1.2975 -2.4275  0.1979
 9641SOL    HW246916  12.154  12.290   8.580 -0.1841  0.3078 -0.3719
 9642SOL     OW46917  11.453  12.678   8.924 -0.0616  0.2239  0.0245
 9642SOL    HW146918  11.426  12.675   9.016 -2.6137 -0.1685 -0.6765
 9642SOL    HW246919  11.410  12.755   8.888  1.4856  0.7808 -0.7139
 9643SOL     OW46920   9.521   5.314   7.998  0.2651  0.2891  0.0285
 9643SOL    HW146921   9.549   5.401   8.026  0.6824 -0.0977  0.8297
 9643SOL    HW246922   9.568   5.254   8.055 -0.6239 -0.4460  0.0119
 9644SOL     OW46923   7.720   8.550   0.244 -0.1495  0.1347  0.1361
 9644SOL    HW146924   7.629   8.575   0.233 -0.1287 -0.2117 -0.9249
 9644SOL    HW246925   7.718   8.456   0.263 -0.0796  0.3979  1.6106
 9645SOL     OW46926   1.899  12.783   7.324  0.4744  0.3335 -0.6187
 9645SOL    HW146927   1.981  12.798   7.277  1.9974 -1.2491  1.2897
 9645SOL    HW246928   1.906  12.837   7.403 -0.1430 -0.0957 -0.2572
 9646SOL     OW46929   9.991   6.936   9.625 -0.2467  0.4033 -0.1339
 9646SOL    HW146930   9.911   6.954   9.575  0.4035  0.2294 -1.2784
 9646SOL    HW246931  10.004   7.015   9.678 -1.1337  0.4547  0.0278
 9647SOL     OW46932  11.673   1.038   3.090 -0.3249  0.5309 -0.1263
 9647SOL    HW146933  11.724   1.057   3.012 -0.0511 -1.8726 -0.6090
 9647SOL    HW246934  11.738   1.013   3.156 -0.7300 -1.0427 -0.2820
 9648SOL     OW46935  13.316   5.783   5.566  0.0266 -0.2814 -0.4611
 9648SOL    HW146936  13.405   5.807   5.543  0.3224  1.0297  1.7182
 9648SOL    HW246937  13.274   5.865   5.591 -1.2393 -1.0834  0.2112
 9649SOL     OW46938   9.187   2.380   2.482  0.2158  0.0914 -0.6954
 9649SOL    HW146939   9.203   2.351   2.393  2.9760  1.6233 -0.7922
 9649SOL    HW246940   9.109   2.436   2.475 -0.6297 -1.1453 -1.7711
 9650SOL     OW46941   7.068  14.004  13.980  0.0798  0.6093 -0.5018
 9650SOL    HW146942   6.990  13.963  14.017 -0.3693 -0.5717 -2.5497
 9650SOL    HW246943   7.064  14.095  14.009 -2.3194  0.6938 -0.9021
 9651SOL     OW46944   8.924   6.110   7.147 -0.1377  0.2285 -0.3789
 9651SOL    HW146945   8.977   6.054   7.090 -0.4792 -2.5322  1.8304
 9651SOL    HW246946   8.847   6.131   7.094  0.2632 -0.9509 -1.4939
 9652SOL     OW46947   2.862  10.745   1.226 -0.4302 -0.6274  0.2527
 9652SOL    HW146948   2.907  10.664   1.202 -0.4008 -0.1883 -1.2663
 9652SOL    HW246949   2.770  10.719   1.233 -0.2682 -1.0379  1.0609
 9653SOL     OW46950   9.852   4.085   6.599  0.3887 -0.2650 -0.5358
 9653SOL    HW146951   9.847   4.167   6.647 -0.5862 -0.3297 -0.5215
 9653SOL    HW246952   9.774   4.084   6.544  0.4590 -1.1183 -0.6305
 9654SOL     OW46953  10.990   4.402  11.794 -0.4140 -0.4845  1.0998
 9654SOL    HW146954  11.028   4.490  11.793  0.2921 -0.7654  1.7711
 9654SOL    HW246955  10.912   4.408  11.740  0.0498  0.3673  0.5146
 9655SOL     OW46956  10.015  11.043  13.445 -0.6776  0.3077 -0.3014
 9655SOL    HW146957  10.103  11.071  13.421 -0.6724  0.8632  0.3174
 9655SOL    HW246958   9.986  10.988  13.372  0.5900 -0.7791 -0.0337
 9656SOL     OW46959   8.307  11.960   9.410 -0.1306  0.3809 -0.1673
 9656SOL    HW146960   8.245  12.017   9.455 -0.5045  0.0152 -0.2187
 9656SOL    HW246961   8.386  11.965   9.464 -0.8766 -0.8146  1.1030
 9657SOL     OW46962   0.676   3.320  12.130 -0.1975 -0.2314  0.3492
 9657SOL    HW146963   0.685   3.379  12.205 -0.2330  0.2947 -0.0575
 9657SOL    HW246964   0.582   3.307  12.120 -0.1854 -0.4539  0.5084
 9658SOL     OW46965   8.489   2.708  10.449  0.3000 -0.1748 -0.3047
 9658SOL    HW146966   8.416   2.654  10.479  0.5799 -0.5259 -0.2476
 9658SOL    HW246967   8.461   2.741  10.364  0.4965 -1.1532 -0.7572
 9659SOL     OW46968   2.004   4.205   7.042 -0.1150 -0.2271  0.0415
 9659SOL    HW146969   2.008   4.228   7.135 -0.8873  1.8289 -0.3776
 9659SOL    HW246970   2.096   4.198   7.015  0.1418  0.8956  0.5837
 9660SOL     OW46971  11.449   4.941   9.426 -0.0815 -0.5653 -0.5578
 9660SOL    HW146972  11.425   4.926   9.334  0.2873 -0.3060 -0.6969
 9660SOL    HW246973  11.425   4.860   9.470 -0.6363 -0.5436 -0.8101
 9661SOL     OW46974  13.653   3.415  13.886 -0.1476 -0.1487  0.3862
 9661SOL    HW146975  13.601   3.357  13.942 -1.2056 -1.0501 -1.4184
 9661SOL    HW246976  13.703   3.355  13.830  0.6225  0.7138  0.1240
 9662SOL     OW46977   4.442   9.248   5.072  0.1913 -0.3658 -0.1044
 9662SOL    HW146978   4.457   9.339   5.046  0.2309 -0.6652 -1.2239
 9662SOL    HW246979   4.357   9.249   5.116  0.3284  0.2627  0.1510
 9663SOL     OW46980   3.128  11.400   7.042  0.0996  0.2896  0.4759
 9663SOL    HW146981   3.040  11.437   7.052  0.7090  1.5856  1.2421
 9663SOL    HW246982   3.138  11.390   6.947 -0.0925  2.1713  0.2085
 9664SOL     OW46983   6.383   2.797   2.859 -0.0792 -0.2420 -0.0978
 9664SOL    HW146984   6.316   2.821   2.923  1.2934  0.3823  1.1517
 9664SOL    HW246985   6.396   2.876   2.807 -0.8662 -0.6128 -0.8935
 9665SOL     OW46986  11.004   0.720   3.770 -0.0739  0.4341 -0.6910
 9665SOL    HW146987  11.063   0.654   3.806  0.5274  1.1247 -0.3730
 9665SOL    HW246988  10.936   0.730   3.836  1.0074  1.6717  0.2779
 9666SOL     OW46989   9.389   9.726  10.636 -0.0504 -0.3693 -0.2043
 9666SOL    HW146990   9.475   9.755  10.605 -0.6922 -0.2970 -2.0487
 9666SOL    HW246991   9.408   9.651  10.693  1.2742  0.1757  0.1086
 9667SOL     OW46992   0.912   8.169   4.455  0.0228 -0.1894  0.7155
 9667SOL    HW146993   0.968   8.242   4.431 -0.7407  0.0603 -0.3384
 9667SOL    HW246994   0.969   8.092   4.450 -0.0136 -0.1200 -1.6625
 9668SOL     OW46995  11.829   2.715   9.835 -0.0036 -0.0246  0.0903
 9668SOL    HW146996  11.888   2.655   9.791 -0.5361 -2.1947  2.1209
 9668SOL    HW246997  11.755   2.725   9.775  1.1221  0.4895 -1.2526
 9669SOL     OW46998   4.033   7.354  12.061  0.3013  0.6203 -0.1007
 9669SOL    HW146999   4.097   7.291  12.028  1.3732  0.8617  1.3873
 9669SOL    HW247000   3.949   7.307  12.056  0.8060 -0.2504 -0.7214
 9670SOL     OW47001   9.720   7.279   0.794  0.2898  0.0466 -0.0847
 9670SOL    HW147002   9.709   7.224   0.872 -0.1300 -1.2976 -1.0469
 9670SOL    HW247003   9.796   7.242   0.750  2.2494  2.4997  0.9999
 9671SOL     OW47004   6.388   4.485  10.424  0.3164 -0.1104  0.3842
 9671SOL    HW147005   6.437   4.422  10.477  1.0991 -0.8932 -1.2333
 9671SOL    HW247006   6.305   4.440  10.405  0.0997  0.1109  0.7810
 9672SOL     OW47007  12.387  11.633   8.072 -0.1891 -0.0732  0.3129
 9672SOL    HW147008  12.363  11.540   8.070 -0.6828  0.0550  0.0854
 9672SOL    HW247009  12.440  11.642   8.152 -0.7380 -0.4110  0.7255
 9673SOL     OW47010   1.796   8.222   8.265  0.5670  0.3720 -0.1884
 9673SOL    HW147011   1.876   8.245   8.313 -0.9545  1.8908  1.8007
 9673SOL    HW247012   1.801   8.275   8.185  1.2772  0.9321  0.2085
 9674SOL     OW47013   7.630  12.060  10.611 -0.3000  0.0068  0.2273
 9674SOL    HW147014   7.654  12.025  10.697  0.4609 -1.7241 -0.6555
 9674SOL    HW247015   7.559  12.122  10.630  0.4882  0.4058  2.1948
 9675SOL     OW47016  10.956   5.055   3.190  0.1865 -0.1793 -0.0142
 9675SOL    HW147017  11.050   5.040   3.181  0.4686  1.8481 -0.8102
 9675SOL    HW247018  10.931   5.101   3.110 -1.5861 -1.0625 -0.0199
 9676SOL     OW47019   0.715   2.714  10.361  0.0944  0.1755 -0.0993
 9676SOL    HW147020   0.732   2.762  10.280  0.8903 -0.1302 -0.1246
 9676SOL    HW247021   0.750   2.626  10.344  1.6182  0.5056  1.0557
 9677SOL     OW47022   3.390   9.346   8.362 -0.4340  0.1463 -0.3187
 9677SOL    HW147023   3.328   9.333   8.290  0.0665  1.0881 -0.9455
 9677SOL    HW247024   3.383   9.267   8.415 -1.3392 -0.2481 -1.0048
 9678SOL     OW47025   4.628  11.113   0.417  0.4079  0.4910  0.4614
 9678SOL    HW147026   4.542  11.100   0.379 -0.2569 -0.8916  2.2959
 9678SOL    HW247027   4.668  11.026   0.417  1.7156  1.0669 -0.1173
 9679SOL     OW47028  11.718   3.928   4.824 -0.2995 -0.1456 -0.7592
 9679SOL    HW147029  11.805   3.903   4.855 -1.8027 -2.2622  2.2092
 9679SOL    HW247030  11.694   3.859   4.762  0.1268  0.5061 -1.6751
 9680SOL     OW47031   3.769  10.246   8.024 -0.1859  0.0051  0.4876
 9680SOL    HW147032   3.696  10.306   8.011  0.1179  0.0936 -0.8809
 9680SOL    HW247033   3.736  10.181   8.086 -1.5733 -0.2103 -0.4506
 9681SOL     OW47034  14.028   7.391  12.156  0.2911  0.2821  0.2917
 9681SOL    HW147035  13.997   7.482  12.163  0.2985  0.2218  1.2834
 9681SOL    HW247036  14.067   7.373  12.242 -0.0547 -0.7861  0.2329
 9682SOL     OW47037   8.692  10.994   0.657  0.3425  0.7889  0.2256
 9682SOL    HW147038   8.709  11.061   0.723  1.9886  1.0975 -0.4584
 9682SOL    HW247039   8.735  11.026   0.578 -0.2884 -0.2829 -0.5922
 9683SOL     OW47040   0.168  13.009   7.517 -0.0529  0.8491 -0.5551
 9683SOL    HW147041   0.136  12.923   7.489  0.7301  0.4864 -0.3913
 9683SOL    HW247042   0.090  13.060   7.535 -0.5864  0.9009 -2.8054
 9684SOL     OW47043   4.239  11.846   3.730 -0.0761 -0.4401 -0.1364
 9684SOL    HW147044   4.212  11.756   3.751  1.5134 -0.6161  1.3538
 9684SOL    HW247045   4.157  11.896   3.734 -0.9396 -1.7427 -0.6583
 9685SOL     OW47046  11.257   5.585   1.750 -0.1336  0.3840 -0.0356
 9685SOL    HW147047  11.330   5.535   1.787 -1.5601 -1.2959  0.6863
 9685SOL    HW247048  11.210   5.619   1.827 -0.6095  0.6825 -0.4499
 9686SOL     OW47049  10.168  11.590   8.169  0.2018 -0.1835 -0.1621
 9686SOL    HW147050  10.255  11.562   8.199 -0.2345 -1.5015 -0.0716
 9686SOL    HW247051  10.141  11.522   8.107 -1.5168 -0.7709  1.1589
 9687SOL     OW47052   9.232   1.274   8.355 -0.6360  0.0604 -0.0691
 9687SOL    HW147053   9.150   1.296   8.311 -0.8419  0.5978  0.5700
 9687SOL    HW247054   9.243   1.181   8.339 -0.5279  0.3035 -1.5518
 9688SOL     OW47055   9.837   1.056   2.728 -0.3115  0.3175  0.0192
 9688SOL    HW147056   9.817   1.013   2.645  0.5500  0.1115 -0.0931
 9688SOL    HW247057   9.760   1.109   2.747 -0.8200 -0.2091 -0.5367
 9689SOL     OW47058   4.833  12.228   4.792  0.2101 -0.1568 -0.0045
 9689SOL    HW147059   4.849  12.181   4.874  3.0673  2.3129  1.0368
 9689SOL    HW247060   4.750  12.272   4.805  0.2157 -0.4816  1.2328
 9690SOL     OW47061  13.630   1.423   4.697 -0.2904 -0.1607 -0.3906
 9690SOL    HW147062  13.578   1.403   4.774  0.3747 -0.6518 -0.0660
 9690SOL    HW247063  13.578   1.388   4.624 -1.1730  0.7734 -0.2369
 9691SOL     OW47064  11.962   1.462  13.237 -0.5405 -0.2148 -0.6533
 9691SOL    HW147065  11.937   1.419  13.155 -1.9321 -0.2347 -0.2394
 9691SOL    HW247066  11.902   1.426  13.302 -0.1175  0.5560  0.1833
 9692SOL     OW47067   2.474   7.581   2.803  0.2497  0.7267  0.0037
 9692SOL    HW147068   2.457   7.494   2.839  0.6278 -0.1220 -1.7758
 9692SOL    HW247069   2.407   7.636   2.844 -0.7784 -0.6463  0.2712
 9693SOL     OW47070   2.614  10.447   7.302  0.1597 -0.2116 -0.4540
 9693SOL    HW147071   2.538  10.494   7.336  0.2382  1.5206 -2.4585
 9693SOL    HW247072   2.686  10.509   7.311  1.0444 -1.2719  0.0079
 9694SOL     OW47073  13.203  10.729   1.350 -0.1981 -0.5838 -0.5428
 9694SOL    HW147074  13.233  10.643   1.319 -0.1533 -0.6605 -0.2882
 9694SOL    HW247075  13.264  10.751   1.420  1.0508  0.5643 -1.9085
 9695SOL     OW47076   5.239   2.366   9.494 -0.1446 -0.3831 -0.3094
 9695SOL    HW147077   5.291   2.288   9.514  1.5762  0.7257 -0.2881
 9695SOL    HW247078   5.276   2.434   9.549 -1.7198  0.4491 -0.2215
 9696SOL     OW47079   1.145   5.394   8.875  0.2320  0.3595 -0.1876
 9696SOL    HW147080   1.207   5.467   8.867  1.2971 -0.6252 -1.5247
 9696SOL    HW247081   1.075   5.416   8.814  0.8459  0.0247 -1.0422
 9697SOL     OW47082   2.467   4.642   4.589 -0.2685 -0.2100  0.2722
 9697SOL    HW147083   2.465   4.733   4.561  0.1217 -0.6038 -1.1009
 9697SOL    HW247084   2.544   4.636   4.645  0.9783 -0.1484 -1.3661
 9698SOL     OW47085  10.185   7.990  11.871 -0.3563 -0.1062 -0.0539
 9698SOL    HW147086  10.202   7.918  11.810 -0.5095  1.0168 -1.4839
 9698SOL    HW247087  10.091   8.004  11.866 -0.0547  1.8547 -1.8487
 9699SOL     OW47088   7.462  13.984  13.629 -0.1853 -0.2899  0.4176
 9699SOL    HW147089   7.499  13.981  13.540 -0.6728 -0.2137  0.2087
 9699SOL    HW247090   7.374  13.946  13.619 -0.6056  0.6050  0.6918
 9700SOL     OW47091   2.186  13.430  13.812 -0.3084 -0.2563 -0.0182
 9700SOL    HW147092   2.267  13.474  13.839 -0.6393  0.0973  0.4256
 9700SOL    HW247093   2.174  13.457  13.721 -0.6384  0.7985  0.3207
 9701SOL     OW47094   0.936   9.275   2.559  0.0377  0.2000 -0.0861
 9701SOL    HW147095   0.917   9.348   2.501  1.4913 -0.0182 -0.8758
 9701SOL    HW247096   0.945   9.315   2.646 -0.8495  0.7029 -0.2129
 9702SOL     OW47097   8.076  13.385  10.593  0.1496  0.5037 -0.0956
 9702SOL    HW147098   8.107  13.471  10.565  0.8768  0.8271  1.5261
 9702SOL    HW247099   8.147  13.351  10.647  0.6689 -1.9545 -2.1569
 9703SOL     OW47100   4.471  11.682   1.867  0.0051  0.4923 -0.7277
 9703SOL    HW147101   4.473  11.666   1.773  1.6313  1.3231 -0.8768
 9703SOL    HW247102   4.526  11.613   1.904 -1.2264 -0.2862 -0.2695
 9704SOL     OW47103  10.648  10.292   6.567 -0.3277 -0.1700  0.0284
 9704SOL    HW147104  10.710  10.269   6.636  0.5375  0.5356 -0.4962
 9704SOL    HW247105  10.623  10.382   6.585 -1.0159 -0.3598  0.0785
 9705SOL     OW47106  11.603  12.341  13.800  0.2545  0.2957 -0.2189
 9705SOL    HW147107  11.512  12.315  13.816  0.6943 -1.9838 -1.0648
 9705SOL    HW247108  11.623  12.308  13.713  2.2177 -0.1886  0.3567
 9706SOL     OW47109  10.371   7.458   1.751 -0.1525 -0.0631  0.4012
 9706SOL    HW147110  10.356   7.363   1.746 -1.8052  0.1945 -0.2479
 9706SOL    HW247111  10.295   7.492   1.798  0.4113  0.9593  0.6039
 9707SOL     OW47112  12.570  10.428   2.864 -0.5223  1.0948  0.1302
 9707SOL    HW147113  12.530  10.491   2.924 -0.9226 -0.4742  1.5795
 9707SOL    HW247114  12.502  10.409   2.800 -1.4987 -0.0777  1.4419
 9708SOL     OW47115   1.473   4.243   0.670  0.4660 -0.2316  0.1824
 9708SOL    HW147116   1.387   4.281   0.651  1.0121  1.2336  0.4739
 9708SOL    HW247117   1.454   4.156   0.705 -0.8586 -0.1854 -0.3643
 9709SOL     OW47118   9.224  10.325   0.509  0.0034 -0.7583  0.0088
 9709SOL    HW147119   9.304  10.354   0.465  0.3322 -0.1602  0.9835
 9709SOL    HW247120   9.153  10.363   0.458  0.3489 -0.8628 -0.5561
 9710SOL     OW47121  10.624   0.514   0.269  0.0368 -0.0219  0.3888
 9710SOL    HW147122  10.686   0.544   0.335 -0.2857  0.2196  0.5863
 9710SOL    HW247123  10.603   0.592   0.218  1.5044 -0.5058 -1.0331
 9711SOL     OW47124   6.213   6.420   4.725  0.0375 -0.1164 -0.2223
 9711SOL    HW147125   6.239   6.512   4.728  1.9264 -0.6249  0.7431
 9711SOL    HW247126   6.156   6.414   4.649  0.7197  1.6563 -0.9410
 9712SOL     OW47127  11.642   3.812   0.088  0.1662 -0.1290 -0.1816
 9712SOL    HW147128  11.625   3.744   0.023  0.6487  0.1134 -0.5677
 9712SOL    HW247129  11.736   3.806   0.105 -0.2643 -1.6209  2.1114
 9713SOL     OW47130   3.113  12.779   8.689  0.3405  0.0080 -0.1736
 9713SOL    HW147131   3.089  12.687   8.679 -1.0369  0.3972 -0.8358
 9713SOL    HW247132   3.139  12.788   8.780 -0.7034 -0.7895  0.2193
 9714SOL     OW47133  13.501   6.292   7.430  0.0988 -0.2311 -0.1859
 9714SOL    HW147134  13.406   6.301   7.423  0.1558  0.3319 -0.3114
 9714SOL    HW247135  13.515   6.251   7.516 -0.1829  1.5120  0.7555
 9715SOL     OW47136   4.478   7.643   7.616  0.1224 -0.0439 -0.2107
 9715SOL    HW147137   4.542   7.679   7.554  0.1071 -1.4887 -1.1305
 9715SOL    HW247138   4.489   7.548   7.608 -2.6766 -0.3769 -0.9873
 9716SOL     OW47139   8.754   3.701   4.944  0.4270 -0.0806  0.0567
 9716SOL    HW147140   8.715   3.761   4.881 -0.5971 -0.7788 -0.0121
 9716SOL    HW247141   8.827   3.661   4.898  0.4413  0.3224 -0.2686
 9717SOL     OW47142  13.431   5.989   3.571 -0.2611  0.4440 -0.4733
 9717SOL    HW147143  13.368   6.050   3.534 -0.9564 -0.1852 -0.3485
 9717SOL    HW247144  13.486   6.043   3.629 -2.6962  0.5349  1.9677
 9718SOL     OW47145   5.497   9.254   4.375  0.3077 -0.7259 -0.2045
 9718SOL    HW147146   5.566   9.191   4.396  0.4222 -0.5806 -0.1453
 9718SOL    HW247147   5.540   9.339   4.380 -0.2211 -0.5122  1.4045
 9719SOL     OW47148   3.494   7.398   3.987  0.6057 -0.6118 -0.6023
 9719SOL    HW147149   3.481   7.456   4.062 -0.7034  0.4897 -1.6405
 9719SOL    HW247150   3.568   7.435   3.940  0.2315 -0.2055 -0.8715
 9720SOL     OW47151   6.557   1.447   8.818 -0.1936  0.4964  0.3852
 9720SOL    HW147152   6.649   1.470   8.832 -0.1414  0.4385  0.1485
 9720SOL    HW247153   6.520   1.440   8.906  0.6505 -1.9734  0.6222
 9721SOL     OW47154  11.900   3.799  14.145 -0.3211  0.3682  0.8829
 9721SOL    HW147155  11.923   3.710  14.118 -1.8888  0.5784 -1.3907
 9721SOL    HW247156  11.894   3.848  14.063  0.8268  2.6918  2.1102
 9722SOL     OW47157   4.751   3.162   0.284  0.2039  0.1441  0.5313
 9722SOL    HW147158   4.778   3.247   0.251 -1.1268  0.0273 -0.9672
 9722SOL    HW247159   4.665   3.178   0.325  0.0869 -0.4259  0.5167
 9723SOL     OW47160   5.218   1.261   8.258  0.1938  0.3694  0.2218
 9723SOL    HW147161   5.125   1.264   8.237  0.5826  3.8304 -1.7993
 9723SOL    HW247162   5.261   1.257   8.172  1.9225  0.3740  1.0532
 9724SOL     OW47163   6.034  12.450   8.017 -0.2168 -0.1987  0.3370
 9724SOL    HW147164   5.965  12.457   8.083  0.1840  1.1143  0.6453
 9724SOL    HW247165   6.026  12.531   7.966 -1.9265 -2.0516 -2.6769
 9725SOL     OW47166   0.882   7.068   2.543  0.5095 -0.4916 -0.0234
 9725SOL    HW147167   0.901   7.098   2.631  1.1996 -0.6437 -0.1150
 9725SOL    HW247168   0.966   7.039   2.508  0.5188  0.7966 -1.2009
 9726SOL     OW47169  13.258   5.540   1.736 -0.6113  0.0039 -0.4445
 9726SOL    HW147170  13.172   5.527   1.696 -1.4168  1.5861  0.6666
 9726SOL    HW247171  13.277   5.632   1.722 -0.1814  0.2197  1.3204
 9727SOL     OW47172  13.501  13.194   9.749 -0.0294 -0.1953 -0.1343
 9727SOL    HW147173  13.576  13.241   9.715 -0.7669 -0.2366 -1.9096
 9727SOL    HW247174  13.535  13.108   9.775  0.7248  0.1884  0.1628
 9728SOL     OW47175   6.299  12.704   4.776 -0.0570  0.4628  1.1393
 9728SOL    HW147176   6.220  12.675   4.822 -0.3092  0.9147  1.0001
 9728SOL    HW247177   6.351  12.624   4.765 -0.8275  0.0289  0.5859
 9729SOL     OW47178   7.488  13.419   8.827  1.0580  0.2251  0.2684
 9729SOL    HW147179   7.489  13.496   8.770 -3.1393  2.0515  2.2004
 9729SOL    HW247180   7.424  13.361   8.786  1.3571 -0.5057  0.8239
 9730SOL     OW47181   0.396   3.970   4.728  0.5720  0.6173  0.2445
 9730SOL    HW147182   0.429   3.888   4.693  3.7653  2.0147 -0.3081
 9730SOL    HW247183   0.423   3.969   4.820 -1.8598 -0.0783  1.0287
 9731SOL     OW47184  12.658   1.303   5.738 -0.0153 -0.3498  0.3494
 9731SOL    HW147185  12.598   1.264   5.801 -2.2572  1.4796 -0.4956
 9731SOL    HW247186  12.601   1.349   5.676  2.1613 -0.5993 -2.0160
 9732SOL     OW47187   8.954  13.251   9.832 -0.2301  0.4904 -0.3736
 9732SOL    HW147188   9.027  13.282   9.779 -0.2846  1.1714 -0.0560
 9732SOL    HW247189   8.984  13.260   9.922 -0.0522 -0.8717 -0.2707
 9733SOL     OW47190   7.521   8.262   8.058 -0.5459  0.3321  0.7225
 9733SOL    HW147191   7.441   8.296   8.098 -1.4078 -0.7128 -0.0275
 9733SOL    HW247192   7.548   8.191   8.116 -1.7144 -1.0873 -0.3971
 9734SOL     OW47193  11.164  10.872   2.737  0.7804  0.1851 -0.3699
 9734SOL    HW147194  11.241  10.835   2.781  1.0003  0.4341 -0.5352
 9734SOL    HW247195  11.127  10.932   2.801 -1.0425 -2.1034  0.8747
 9735SOL     OW47196   4.852   7.987  12.717  0.4854  0.4267 -0.4056
 9735SOL    HW147197   4.789   7.939  12.770  0.4838 -0.9072 -1.5640
 9735SOL    HW247198   4.834   8.079  12.736 -1.9169  0.0990 -0.8298
 9736SOL     OW47199  10.673   5.901   4.638 -0.5204 -0.6658 -0.1084
 9736SOL    HW147200  10.757   5.856   4.630 -1.4181 -2.6559  0.8581
 9736SOL    HW247201  10.641   5.876   4.725 -1.8955  0.4357 -0.2592
 9737SOL     OW47202  12.025   7.463   5.685  0.5802 -0.4169  0.1653
 9737SOL    HW147203  11.933   7.436   5.692  0.7679 -1.0771  0.1969
 9737SOL    HW247204  12.059   7.454   5.775  0.7421 -0.4511  0.1009
 9738SOL     OW47205  12.100   4.197   4.343 -0.0344 -0.4350  0.0510
 9738SOL    HW147206  12.005   4.205   4.341 -0.0020  0.0885  0.4841
 9738SOL    HW247207  12.120   4.126   4.282 -0.7236 -0.7454  0.1874
 9739SOL     OW47208   3.462   9.749  13.053 -0.0485  0.0757 -0.0632
 9739SOL    HW147209   3.552   9.741  13.021 -0.3311  0.8808 -1.1150
 9739SOL    HW247210   3.409   9.701  12.989 -0.5527  1.1470 -0.4823
 9740SOL     OW47211  12.840  13.226   8.941 -0.7875 -0.3222  0.1421
 9740SOL    HW147212  12.840  13.307   8.992  0.6261  0.5540 -1.1710
 9740SOL    HW247213  12.770  13.237   8.878 -1.5467 -0.7651  0.8898
 9741SOL     OW47214  10.419  10.440   5.006 -0.0514  0.1263 -0.4522
 9741SOL    HW147215  10.387  10.530   4.999 -0.5632 -0.1617 -2.1270
 9741SOL    HW247216  10.410  10.404   4.918  0.3059 -1.5232  0.1509
 9742SOL     OW47217   7.026   3.485   7.847 -0.6939 -0.1237  1.0042
 9742SOL    HW147218   7.103   3.487   7.790  0.0186  0.2397  1.9506
 9742SOL    HW247219   6.974   3.411   7.814 -0.3320  0.0996 -0.1256
 9743SOL     OW47220  12.627  10.465   5.528 -0.0287  0.0303 -0.2478
 9743SOL    HW147221  12.701  10.517   5.558 -0.3700 -0.3824  1.4381
 9743SOL    HW247222  12.553  10.497   5.580 -0.5407 -1.1117 -0.2472
 9744SOL     OW47223  12.020   7.894   0.208  0.3952 -0.3725  0.2226
 9744SOL    HW147224  12.065   7.913   0.291 -0.0550  4.1197 -0.3235
 9744SOL    HW247225  12.090   7.898   0.142  0.1622  0.1069  0.0041
 9745SOL     OW47226   4.074   0.319  12.737  0.2434 -0.0044 -0.2101
 9745SOL    HW147227   4.101   0.337  12.647 -1.4064 -0.8691 -0.9259
 9745SOL    HW247228   4.058   0.406  12.775  3.7785  0.5890  0.2918
 9746SOL     OW47229   2.890   9.165  11.585 -0.2643 -0.6620  0.0684
 9746SOL    HW147230   2.890   9.257  11.612  1.6144 -0.7504  0.5177
 9746SOL    HW247231   2.855   9.118  11.661 -0.8155 -0.3723  0.0017
 9747SOL     OW47232  12.474  13.120   4.921  0.2017 -0.3278 -0.0293
 9747SOL    HW147233  12.409  13.050   4.919 -0.9310  0.7009 -0.5792
 9747SOL    HW247234  12.554  13.079   4.954 -0.5442 -1.7755  0.0073
 9748SOL     OW47235  10.015   4.357   8.218  0.6370  0.9106  0.4171
 9748SOL    HW147236  10.089   4.418   8.218  0.2321  1.4412 -1.1015
 9748SOL    HW247237   9.952   4.394   8.279  0.9577  1.3026  0.5074
 9749SOL     OW47238   5.389  10.805  10.551  0.0045 -0.8037  0.1902
 9749SOL    HW147239   5.347  10.721  10.571 -0.2567 -0.4561  1.1443
 9749SOL    HW247240   5.416  10.797  10.460 -0.0303 -1.9216  0.2637
 9750SOL     OW47241  11.389   2.336   6.241 -0.3737 -0.1286 -0.4702
 9750SOL    HW147242  11.413   2.249   6.209  0.8318 -0.2441  0.6861
 9750SOL    HW247243  11.372   2.323   6.334  2.2045  1.2786  0.2650
 9751SOL     OW47244  13.538  11.386  12.714 -0.0717 -0.5670  0.0406
 9751SOL    HW147245  13.568  11.386  12.623 -1.0570  0.7409 -0.3352
 9751SOL    HW247246  13.514  11.478  12.731 -1.2726 -1.0428  1.1355
 9752SOL     OW47247   1.605  11.443   3.042 -0.5901 -0.4430  0.6386
 9752SOL    HW147248   1.669  11.397   2.988 -0.7238  1.4874 -1.3271
 9752SOL    HW247249   1.526  11.389   3.038  0.2383 -1.7683  1.3353
 9753SOL     OW47250  10.739   7.994   7.018 -0.0655  0.0095  0.0050
 9753SOL    HW147251  10.691   8.049   6.955  0.5038  0.5720  0.0556
 9753SOL    HW247252  10.749   8.049   7.095  0.7761 -0.0569 -0.0527
 9754SOL     OW47253   2.386   6.172   7.950  0.0914  0.3445  0.1869
 9754SOL    HW147254   2.316   6.182   7.885 -0.2037  1.0472  0.6041
 9754SOL    HW247255   2.340   6.156   8.032  0.3523  2.0419  0.7020
 9755SOL     OW47256   6.442   3.330   0.344  0.2473 -0.1605  0.0794
 9755SOL    HW147257   6.500   3.327   0.268 -2.3234 -2.2685 -2.0137
 9755SOL    HW247258   6.431   3.239   0.370 -1.4403  0.2244  0.8783
 9756SOL     OW47259   8.946  13.888   9.370 -0.7543 -0.9691  0.2997
 9756SOL    HW147260   8.988  13.881   9.456 -1.9706  1.6918  1.2074
 9756SOL    HW247261   8.852  13.879   9.388 -1.0394 -0.1949 -0.6910
 9757SOL     OW47262   3.250  12.696  10.028  0.3184 -0.0440  0.0660
 9757SOL    HW147263   3.339  12.732  10.020  1.2659 -1.7351  2.1350
 9757SOL    HW247264   3.245  12.630   9.959  0.8842 -0.2912  0.2495
 9758SOL     OW47265   0.393   8.529   6.220 -0.0784 -0.1296  0.0116
 9758SOL    HW147266   0.466   8.473   6.193 -0.5303 -1.0506  0.6720
 9758SOL    HW247267   0.379   8.587   6.145 -0.4250 -1.7317 -1.2052
 9759SOL     OW47268  10.958   7.560   6.941  0.1886  0.0873  0.3116
 9759SOL    HW147269  10.911   7.550   7.023  0.6802 -0.1269  0.5698
 9759SOL    HW247270  11.001   7.476   6.927 -1.1878 -0.4518 -0.9941
 9760SOL     OW47271   8.686  11.238   0.774 -0.1747 -0.2487  0.1433
 9760SOL    HW147272   8.605  11.289   0.774  0.5782  1.0089 -0.3889
 9760SOL    HW247273   8.749  11.293   0.727  1.2402 -0.7744  1.3376
 9761SOL     OW47274  12.976   1.874   6.710 -0.1147  0.3001 -0.4611
 9761SOL    HW147275  12.991   1.969   6.705  0.5351  0.2012 -0.5155
 9761SOL    HW247276  12.939   1.851   6.625  0.7244  0.3415 -0.8484
 9762SOL     OW47277   8.659   8.027   2.728 -0.0588  0.7430 -0.6677
 9762SOL    HW147278   8.632   7.952   2.675 -0.1986  0.1898  0.1630
 9762SOL    HW247279   8.626   8.103   2.681  0.2133  0.2939 -1.6024
 9763SOL     OW47280   2.147  12.018  10.794 -0.6421  0.8104 -0.3262
 9763SOL    HW147281   2.143  12.057  10.707  1.6869  2.5458  0.2369
 9763SOL    HW247282   2.198  12.081  10.846  1.2049 -1.8360  1.3271
 9764SOL     OW47283   3.836  10.349   2.690 -0.0217 -0.1403  0.3195
 9764SOL    HW147284   3.839  10.371   2.597 -2.5248  0.3714  0.2902
 9764SOL    HW247285   3.901  10.406   2.731  0.5467  0.1987 -1.0067
 9765SOL     OW47286   4.587   3.982   3.893  0.0884  0.4037  0.1287
 9765SOL    HW147287   4.564   4.070   3.863 -1.2546  0.0094 -0.0556
 9765SOL    HW247288   4.683   3.983   3.901  0.1434  1.6596 -0.5538
 9766SOL     OW47289   8.740   3.810  11.936  0.2126  0.0149  0.2807
 9766SOL    HW147290   8.749   3.800  11.842 -0.8739  0.9603  0.0610
 9766SOL    HW247291   8.712   3.724  11.967  0.6476 -0.3178 -0.2350
 9767SOL     OW47292   3.049   1.795   0.645  0.2007  0.0483  0.3052
 9767SOL    HW147293   3.026   1.782   0.738  1.1479 -1.7486  0.3445
 9767SOL    HW247294   3.144   1.806   0.646  0.6715 -2.9522 -0.6043
 9768SOL     OW47295   4.112   6.576  12.697  0.0695 -0.3916  0.3581
 9768SOL    HW147296   4.151   6.557  12.611 -3.3799  1.1709 -1.7565
 9768SOL    HW247297   4.093   6.669  12.694 -3.0622 -0.8737  1.4205
 9769SOL     OW47298  14.154   7.783   4.773 -0.1061  0.4612  0.0345
 9769SOL    HW147299  14.183   7.782   4.682  1.2498  2.8058  0.3499
 9769SOL    HW247300  14.161   7.875   4.799  0.2516 -0.2419  2.7348
 9770SOL     OW47301  11.244   7.894  13.997 -0.1783 -0.3206  0.3372
 9770SOL    HW147302  11.281   7.964  14.050 -0.4909 -0.4497  0.7264
 9770SOL    HW247303  11.151   7.915  13.990 -0.0467 -0.0195 -0.6018
 9771SOL     OW47304  11.087   2.990   5.675 -0.2455 -0.2307 -0.1197
 9771SOL    HW147305  10.993   3.004   5.667  0.1327  1.6962 -1.9422
 9771SOL    HW247306  11.115   3.052   5.741  0.0886  1.2436 -1.5754
 9772SOL     OW47307   7.616   6.856   0.692 -0.5139 -0.0572  0.3764
 9772SOL    HW147308   7.646   6.831   0.779  0.6486 -0.8553 -0.2319
 9772SOL    HW247309   7.521   6.843   0.695 -0.4519 -0.3321  1.4365
 9773SOL     OW47310   7.289   0.148   2.376  0.6511 -0.1121  0.3497
 9773SOL    HW147311   7.210   0.133   2.429 -0.0279  1.4658 -0.1341
 9773SOL    HW247312   7.281   0.086   2.304 -0.4264  0.3384  0.0475
 9774SOL     OW47313   2.738   4.206   0.325  0.3632  0.2516  0.2183
 9774SOL    HW147314   2.810   4.215   0.262  0.2352 -1.7222 -0.2853
 9774SOL    HW247315   2.681   4.139   0.287 -0.8763  0.5917  1.4052
 9775SOL     OW47316   8.227   1.488  12.064  0.1212 -0.6322  0.1724
 9775SOL    HW147317   8.322   1.497  12.066  0.4037 -3.0542  0.1125
 9775SOL    HW247318   8.204   1.493  11.971  0.1907 -0.1760  0.1769
 9776SOL     OW47319   5.075  13.428  13.192  0.2829 -0.2841  0.3540
 9776SOL    HW147320   5.031  13.369  13.131  2.0384 -0.9434 -0.3373
 9776SOL    HW247321   5.134  13.480  13.137 -0.0784  1.0321  1.1610
 9777SOL     OW47322   3.830   5.023   3.556  0.6502  0.2204  0.0342
 9777SOL    HW147323   3.800   5.025   3.647  0.6423 -2.3979  0.1860
 9777SOL    HW247324   3.751   5.003   3.506  0.8912  0.3050 -0.3801
 9778SOL     OW47325   9.758  10.342   0.612  0.2843 -0.0831 -0.0551
 9778SOL    HW147326   9.701  10.409   0.574  1.7657  1.6767  0.6508
 9778SOL    HW247327   9.700  10.269   0.631 -1.2217  0.5568 -1.8727
 9779SOL     OW47328  13.530   8.529   4.210  0.0272 -0.5688  0.1508
 9779SOL    HW147329  13.502   8.620   4.217 -1.8645 -1.0328 -0.7368
 9779SOL    HW247330  13.621   8.529   4.241  0.3329  1.7281 -0.5765
 9780SOL     OW47331  10.648   5.814   4.918  0.4129 -0.2754  0.0121
 9780SOL    HW147332  10.681   5.745   4.975 -0.5265  0.3562  1.3839
 9780SOL    HW247333  10.564   5.838   4.956 -1.2661 -1.2023 -2.8278
 9781SOL     OW47334  13.628  13.959  11.384  0.9431  0.2307  0.2076
 9781SOL    HW147335  13.593  13.992  11.466 -0.7728 -2.5200  0.6947
 9781SOL    HW247336  13.702  13.904  11.410  0.0549 -1.0955  0.0194
 9782SOL     OW47337   1.056   9.286  10.677 -0.2733  0.6594 -0.3552
 9782SOL    HW147338   1.018   9.224  10.740 -0.3216  1.7601  0.7291
 9782SOL    HW247339   1.003   9.275  10.598  0.1954 -1.2134 -0.4676
 9783SOL     OW47340   2.877   8.969  11.825  0.2206 -0.4406 -0.1638
 9783SOL    HW147341   2.889   8.875  11.837 -2.2633 -0.8712 -0.4822
 9783SOL    HW247342   2.788   8.986  11.854  1.1273  2.1667  1.4702
 9784SOL     OW47343   6.727   8.116  11.348 -0.0432  0.0498 -0.2120
 9784SOL    HW147344   6.637   8.112  11.380 -0.6692  0.6462 -1.8092
 9784SOL    HW247345   6.756   8.025  11.349  0.3076  0.0735  2.7685
 9785SOL     OW47346   3.032   6.385  13.212 -0.1388 -0.1658 -0.6061
 9785SOL    HW147347   3.037   6.436  13.131 -0.6035 -0.4595 -0.8233
 9785SOL    HW247348   3.036   6.293  13.183  1.6747 -0.2602 -0.1536
 9786SOL     OW47349   2.385   3.678   0.103 -0.2514 -0.2117 -0.6088
 9786SOL    HW147350   2.387   3.587   0.072 -0.9538 -0.3846 -0.1651
 9786SOL    HW247351   2.477   3.706   0.101 -0.0313 -0.9274 -0.7636
 9787SOL     OW47352   4.285   9.379   9.357  0.9793 -0.0813 -0.3092
 9787SOL    HW147353   4.287   9.290   9.322  1.5220  0.3140 -1.3344
 9787SOL    HW247354   4.323   9.433   9.288  2.6979  0.6707  1.1445
 9788SOL     OW47355   2.065   2.638   2.923 -0.5728  0.3179 -0.4336
 9788SOL    HW147356   2.019   2.557   2.942 -0.7994  0.5939  0.2295
 9788SOL    HW247357   2.151   2.611   2.893  0.0205 -0.1560  1.5487
 9789SOL     OW47358   0.533   2.406  10.080  0.4518 -0.2084  0.2303
 9789SOL    HW147359   0.440   2.397  10.059  0.6481  0.2847 -0.9018
 9789SOL    HW247360   0.535   2.459  10.159 -0.1760  1.8578 -1.0647
 9790SOL     OW47361  12.662  11.699  13.598  0.5918 -0.6418  0.1225
 9790SOL    HW147362  12.621  11.754  13.664  0.7822 -0.2048 -0.1198
 9790SOL    HW247363  12.674  11.757  13.523 -0.0571 -1.2534 -0.4690
 9791SOL     OW47364   7.508  12.943   3.305  0.0784  0.1053 -0.0581
 9791SOL    HW147365   7.492  12.860   3.261 -1.1055  0.3997 -0.2173
 9791SOL    HW247366   7.453  13.006   3.259 -0.6266  0.5647  1.3664
 9792SOL     OW47367   1.202   9.934   1.335 -0.6978 -0.3554 -0.0223
 9792SOL    HW147368   1.175   9.960   1.246 -0.4620  0.2624  0.0779
 9792SOL    HW247369   1.296   9.916   1.328 -0.4369  0.7686  0.3160
 9793SOL     OW47370   5.833   0.122  13.280  0.0847 -0.7699  0.7123
 9793SOL    HW147371   5.802   0.094  13.366 -0.8476  1.3974  1.1408
 9793SOL    HW247372   5.880   0.204  13.296  0.7775 -0.8556 -0.7257
 9794SOL     OW47373   4.000   7.470  10.330  0.7726  0.2470 -0.0972
 9794SOL    HW147374   3.993   7.563  10.307  0.6430  0.3374  0.3091
 9794SOL    HW247375   4.083   7.443  10.290  0.6751  0.4622 -0.4594
 9795SOL     OW47376  10.901   6.318   9.885 -0.4945  0.0573  0.2924
 9795SOL    HW147377  10.807   6.317   9.865 -0.3076 -1.2092 -0.6756
 9795SOL    HW247378  10.942   6.350   9.805  0.0438 -1.9470 -0.3087
 9796SOL     OW47379   8.022   3.473  13.756  0.7771 -0.6323 -0.3291
 9796SOL    HW147380   8.022   3.393  13.809  0.0588  0.0816  0.7817
 9796SOL    HW247381   7.953   3.459  13.691 -0.4712 -0.2755  0.8877
 9797SOL     OW47382   5.559  12.801  13.423 -0.2308 -0.3958 -0.4608
 9797SOL    HW147383   5.594  12.722  13.464 -0.7119 -0.9251 -1.0375
 9797SOL    HW247384   5.474  12.814  13.465  0.4439  0.6307  0.6245
 9798SOL     OW47385  14.142   3.407  12.228  0.4039 -0.5104  0.6255
 9798SOL    HW147386  14.123   3.435  12.139 -0.3158  0.0209  0.9386
 9798SOL    HW247387  14.073   3.343  12.248  0.2383 -0.2242  0.9852
 9799SOL     OW47388   5.513   1.297   5.732  0.1080  0.3099  0.2406
 9799SOL    HW147389   5.585   1.284   5.671  0.6937 -0.5595  1.1000
 9799SOL    HW247390   5.534   1.241   5.807  0.1643  2.3989  1.8900
 9800SOL     OW47391   2.100   2.361  11.204 -0.1864 -0.4518  0.4710
 9800SOL    HW147392   2.115   2.273  11.168  1.2262 -0.1990  0.3668
 9800SOL    HW247393   2.138   2.420  11.139 -0.0555  0.1667  1.0918
 9801SOL     OW47394   7.957   3.606   5.822  0.0136  0.2325 -0.3018
 9801SOL    HW147395   7.887   3.616   5.886  2.2119  0.0982  2.3325
 9801SOL    HW247396   7.985   3.696   5.803 -0.6523  0.2734 -1.1401
 9802SOL     OW47397   5.535   8.132  10.179 -0.2703  0.2086 -0.2769
 9802SOL    HW147398   5.484   8.212  10.181 -0.3920  0.1167  0.4160
 9802SOL    HW247399   5.509   8.084  10.257 -0.0159 -0.3946 -0.5510
 9803SOL     OW47400   6.413  10.143   1.582 -0.0385 -0.3482 -0.1606
 9803SOL    HW147401   6.482  10.202   1.612 -0.1129 -0.3428 -0.0027
 9803SOL    HW247402   6.437  10.122   1.491  1.7183 -2.5941  0.7306
 9804SOL     OW47403   4.205  12.509  11.535  0.5781 -0.3093  0.0194
 9804SOL    HW147404   4.119  12.532  11.569  1.0283  0.0928  0.9139
 9804SOL    HW247405   4.198  12.416  11.512 -0.2834 -0.1083 -0.5441
 9805SOL     OW47406  12.308   3.066   6.999  0.1368 -0.2950  0.1689
 9805SOL    HW147407  12.362   3.040   6.925  0.7473 -0.0152  0.5018
 9805SOL    HW247408  12.311   2.991   7.059  2.1161  0.5679  1.2501
 9806SOL     OW47409  12.404   3.920   2.183 -0.0568 -0.2167  0.3324
 9806SOL    HW147410  12.312   3.901   2.199 -0.0459 -0.3788  0.2076
 9806SOL    HW247411  12.445   3.834   2.174  0.0486 -0.1428  0.0725
 9807SOL     OW47412   5.894   9.609   1.710  0.1036 -0.3080  0.4400
 9807SOL    HW147413   5.887   9.675   1.779  1.6984 -1.4545  1.7596
 9807SOL    HW247414   5.957   9.545   1.743 -0.1956 -1.6867 -1.4640
 9808SOL     OW47415   3.795   0.226  10.136  0.0369 -0.4824 -0.1927
 9808SOL    HW147416   3.706   0.247  10.164 -1.3404 -2.8921 -2.3978
 9808SOL    HW247417   3.802   0.264  10.049  1.8791  1.1873  0.6086
 9809SOL     OW47418   4.183   1.540   5.018  0.3283  0.0696 -0.3064
 9809SOL    HW147419   4.128   1.592   5.076  1.1965  0.2296  0.4071
 9809SOL    HW247420   4.235   1.605   4.970 -1.6976  0.0565 -2.7278
 9810SOL     OW47421   5.173   9.601   4.647  0.5144  0.5446  0.2651
 9810SOL    HW147422   5.084   9.572   4.666  0.0389  1.2616 -0.7734
 9810SOL    HW247423   5.228   9.555   4.711 -0.1801 -2.5307 -1.1548
 9811SOL     OW47424  13.105  10.079   1.909  0.0267 -0.0224  0.2029
 9811SOL    HW147425  13.088  10.119   1.995  0.4580  0.6467 -0.0171
 9811SOL    HW247426  13.200  10.076   1.902  0.0047  0.4962 -0.5040
 9812SOL     OW47427   6.359  10.384   4.755  0.2967 -0.0302  0.8393
 9812SOL    HW147428   6.446  10.397   4.717  0.0188  1.8017  0.7474
 9812SOL    HW247429   6.372  10.316   4.821  2.1047  1.1376  1.7545
 9813SOL     OW47430   0.029   4.587  13.450  0.1482 -0.3948  0.2919
 9813SOL    HW147431   0.108   4.583  13.504 -0.4546 -0.7241  1.1600
 9813SOL    HW247432   0.030   4.676  13.413 -0.1516  0.3427  1.9654
 9814SOL     OW47433  10.654  12.468  13.503 -0.4247 -0.0206 -0.4274
 9814SOL    HW147434  10.639  12.374  13.509  1.2168 -0.3704 -1.1401
 9814SOL    HW247435  10.567  12.507  13.509 -0.9937 -1.4484  1.8054
 9815SOL     OW47436   8.199   9.571  10.729 -0.4000  0.3635 -0.2716
 9815SOL    HW147437   8.244   9.566  10.813 -0.1113 -1.3549 -0.4988
 9815SOL    HW247438   8.216   9.487  10.687 -0.2391  1.3158 -2.2243
 9816SOL     OW47439  13.381   4.999   8.448 -0.3563  0.9235 -0.0958
 9816SOL    HW147440  13.404   4.944   8.522  1.1007  2.2847  0.5106
 9816SOL    HW247441  13.394   4.943   8.371 -1.7358 -0.4437  0.6299
 9817SOL     OW47442  13.093   5.225  13.210 -0.0265 -0.5357 -0.3904
 9817SOL    HW147443  13.115   5.178  13.129  1.9190 -0.6606  0.1818
 9817SOL    HW247444  13.097   5.317  13.185 -0.1631 -0.5836 -0.5997
 9818SOL     OW47445   0.913   5.585  12.296  0.2303  0.1872 -0.0711
 9818SOL    HW147446   0.973   5.583  12.221 -0.3791 -0.4968 -0.5565
 9818SOL    HW247447   0.963   5.546  12.368  0.8067  0.8088 -0.1232
 9819SOL     OW47448   6.387  12.227  10.440  0.3537  0.0547 -0.0015
 9819SOL    HW147449   6.300  12.192  10.457  0.3002  0.5412  0.7514
 9819SOL    HW247450   6.379  12.320  10.458  1.1779  0.0071  0.6268
 9820SOL     OW47451  13.389   6.710   0.077  0.5425  0.1012  0.4983
 9820SOL    HW147452  13.358   6.796   0.050 -0.0650 -0.1036  0.5262
 9820SOL    HW247453  13.309   6.658   0.089  0.7351  0.2035  2.7633
 9821SOL     OW47454   9.638  12.474   8.179 -0.2091 -0.4321  0.1190
 9821SOL    HW147455   9.650  12.534   8.106  0.3274 -0.7605 -0.0654
 9821SOL    HW247456   9.708  12.494   8.240 -1.2816  0.5661  1.0601
 9822SOL     OW47457   8.170  12.492   1.084 -0.1357 -0.3250  0.1637
 9822SOL    HW147458   8.134  12.448   1.006 -0.1058  1.4122 -0.8806
 9822SOL    HW247459   8.101  12.486   1.149 -0.5069 -1.0505 -0.2771
 9823SOL     OW47460  12.127  12.247  13.014 -0.4147 -0.2014  0.2959
 9823SOL    HW147461  12.036  12.253  12.985  0.2123  1.0886 -1.6719
 9823SOL    HW247462  12.124  12.261  13.108 -2.1882  0.6228  0.1552
 9824SOL     OW47463   7.072   5.561   1.084  0.0511  0.3208  0.2378
 9824SOL    HW147464   6.999   5.578   1.025 -0.0103 -1.1835 -0.1537
 9824SOL    HW247465   7.136   5.629   1.063  0.7495 -1.1040 -2.8095
 9825SOL     OW47466   8.092   0.090   0.626 -0.6566 -0.1718 -0.4123
 9825SOL    HW147467   8.103   0.100   0.532 -1.9587 -0.2314 -0.5875
 9825SOL    HW247468   8.012   0.140   0.646  0.1579  0.6795  0.8224
 9826SOL     OW47469  12.490   3.117  14.147  0.4521  0.3337 -0.3289
 9826SOL    HW147470  12.533   3.109  14.062  0.3690 -2.0025 -0.2353
 9826SOL    HW247471  12.398   3.133  14.126  0.0282 -2.2985 -0.8281
 9827SOL     OW47472   2.144   5.573  10.972  0.0837 -0.7895  0.4952
 9827SOL    HW147473   2.143   5.568  11.067  1.2482 -0.1545  0.5456
 9827SOL    HW247474   2.236   5.569  10.948  0.0935  2.5161 -0.4128
 9828SOL     OW47475   2.314  10.484   2.677  0.7239  0.2643  0.0601
 9828SOL    HW147476   2.252  10.521   2.740 -0.2167  0.3643 -0.8826
 9828SOL    HW247477   2.346  10.559   2.627 -0.3244 -0.0291 -1.1059
 9829SOL     OW47478   7.642   6.229  10.841 -0.2243 -0.3133  0.4527
 9829SOL    HW147479   7.691   6.156  10.801  0.4343  0.2305  0.2533
 9829SOL    HW247480   7.705   6.300  10.847 -1.0273  0.4552  0.0689
 9830SOL     OW47481   8.906   4.077   2.147  0.9219  0.5126 -0.1280
 9830SOL    HW147482   8.925   4.147   2.209  0.9887  0.0608  0.3731
 9830SOL    HW247483   8.827   4.106   2.101  0.1125  0.2964  1.0555
 9831SOL     OW47484   9.436  13.868  13.736 -0.0550 -0.2213 -0.7442
 9831SOL    HW147485   9.461  13.777  13.748 -0.0377 -0.3205 -1.5065
 9831SOL    HW247486   9.454  13.909  13.821  2.7761 -0.2636 -1.2297
 9832SOL     OW47487   2.586   9.884  12.016 -0.1733 -0.0067  0.0674
 9832SOL    HW147488   2.632   9.815  11.968 -1.9540 -2.1808  1.2941
 9832SOL    HW247489   2.493   9.865  12.002 -0.8031  3.2552 -0.9823
 9833SOL     OW47490  13.964   9.237   7.878 -0.7071 -0.2870 -0.2478
 9833SOL    HW147491  13.955   9.313   7.821  2.1098 -0.1338 -0.5994
 9833SOL    HW247492  13.998   9.271   7.960 -1.3894 -0.9381  0.3233
 9834SOL     OW47493  12.080   4.705  12.398 -0.4705 -0.0132 -0.5253
 9834SOL    HW147494  12.076   4.750  12.483  0.0397  0.0672 -0.5373
 9834SOL    HW247495  11.989   4.685  12.377 -0.5658 -0.5329  0.3132
 9835SOL     OW47496  13.671  11.557   6.584  0.0241  0.2058  0.2093
 9835SOL    HW147497  13.588  11.513   6.569  0.6006 -1.7249  2.2346
 9835SOL    HW247498  13.728  11.491   6.623  1.8399  2.0336  0.8882
 9836SOL     OW47499   6.050   1.548   4.266 -0.1542  0.4682  0.6948
 9836SOL    HW147500   6.086   1.556   4.178  1.3097  1.2415  1.3364
 9836SOL    HW247501   6.113   1.591   4.322  1.2399 -3.6899  2.7239
 9837SOL     OW47502   0.184  10.917   3.992 -0.2033  0.3358  0.2166
 9837SOL    HW147503   0.183  11.010   4.014 -1.6887  0.1383  1.1103
 9837SOL    HW247504   0.270  10.886   4.022  0.7975  1.6252 -1.1841
 9838SOL     OW47505   6.080  12.218   8.395  0.3582  0.4208  0.1862
 9838SOL    HW147506   6.056  12.158   8.466  1.0899 -1.3661 -0.9906
 9838SOL    HW247507   6.009  12.209   8.331  1.0361 -0.1191 -0.5120
 9839SOL     OW47508   9.183   6.865   0.376 -0.3412 -0.3305  0.1867
 9839SOL    HW147509   9.218   6.954   0.371  1.7279 -1.0204  1.2034
 9839SOL    HW247510   9.229   6.818   0.306 -0.2847 -0.9346  0.6281
 9840SOL     OW47511  11.271   4.095  12.270 -0.0950  0.4761 -0.6677
 9840SOL    HW147512  11.340   4.044  12.313 -0.0587  2.1152  1.3683
 9840SOL    HW247513  11.212   4.119  12.340 -1.3901  1.2519 -1.9765
 9841SOL     OW47514   6.120   2.404  11.616  0.2935  0.6046 -0.1189
 9841SOL    HW147515   6.203   2.386  11.660 -0.2621 -1.6818  0.1327
 9841SOL    HW247516   6.071   2.457  11.679  0.2239 -1.0439  1.2839
 9842SOL     OW47517   1.836  13.073   6.440  0.5442  0.2086  0.2087
 9842SOL    HW147518   1.880  13.064   6.524 -0.3003 -2.0004  0.4883
 9842SOL    HW247519   1.743  13.062   6.460  0.4808 -2.8055 -1.2310
 9843SOL     OW47520  11.020   4.677   1.926  0.0296 -0.3230 -0.3505
 9843SOL    HW147521  11.061   4.631   1.999 -0.4178  0.6276  0.5188
 9843SOL    HW247522  10.942   4.624   1.905  0.0963 -0.5355 -0.0680
 9844SOL     OW47523   3.237   1.081  10.943 -0.2969 -0.1459 -0.4712
 9844SOL    HW147524   3.192   1.029  11.009 -0.7141  0.4912 -0.2486
 9844SOL    HW247525   3.318   1.109  10.986 -0.9004  0.8797  0.0535
 9845SOL     OW47526   9.298   1.381   5.036  0.4729  0.1126 -0.0831
 9845SOL    HW147527   9.355   1.363   5.110 -0.4639 -0.2457  0.5644
 9845SOL    HW247528   9.313   1.474   5.017 -0.9469  0.8521  2.0585
 9846SOL     OW47529  12.102  10.128   7.248  0.2677  0.6992  0.0958
 9846SOL    HW147530  12.016  10.163   7.269  0.7019  0.4088  2.7257
 9846SOL    HW247531  12.118  10.061   7.315  1.6136 -0.8983 -1.6925
 9847SOL     OW47532   2.150   1.248   8.207 -0.0377  0.0283  0.7588
 9847SOL    HW147533   2.216   1.179   8.216 -2.3756 -2.2662  2.0253
 9847SOL    HW247534   2.143   1.263   8.113  1.3098 -0.6746  0.5314
 9848SOL     OW47535   5.564  12.686   2.629 -0.4008 -0.3494 -0.2831
 9848SOL    HW147536   5.503  12.615   2.610 -1.4791  0.9879 -2.3222
 9848SOL    HW247537   5.644  12.643   2.658 -1.0435 -2.3853 -1.3498
 9849SOL     OW47538   4.287   0.773  10.025  0.8263 -0.0084 -0.3784
 9849SOL    HW147539   4.374   0.811  10.036  1.4081 -1.5878  0.8304
 9849SOL    HW247540   4.297   0.682  10.052 -0.9551 -0.5255 -1.3092
 9850SOL     OW47541   4.848  11.986   3.139  0.4574 -0.2029 -0.7326
 9850SOL    HW147542   4.855  11.899   3.179 -1.5445  0.7093  1.8869
 9850SOL    HW247543   4.935  12.002   3.102  2.4406 -1.4428  2.9092
 9851SOL     OW47544  13.895   7.148   5.683  0.1444 -0.6660 -0.0280
 9851SOL    HW147545  13.982   7.154   5.722  0.4779  1.7914 -0.9903
 9851SOL    HW247546  13.836   7.134   5.757  1.1244 -0.0370  0.8937
 9852SOL     OW47547   5.922   5.507   1.984  0.1969 -0.3356  0.6868
 9852SOL    HW147548   5.891   5.581   1.933  1.6865  1.2941  2.0125
 9852SOL    HW247549   5.976   5.546   2.053  2.2191 -2.7389  0.6082
 9853SOL     OW47550   7.463  10.896   0.443  0.1238 -0.4609  0.5491
 9853SOL    HW147551   7.386  10.873   0.496 -0.9178 -2.1221 -1.5333
 9853SOL    HW247552   7.449  10.987   0.418 -0.7533 -0.4909  0.9013
 9854SOL     OW47553   6.582   9.253   1.376 -0.3373 -0.3859  0.0306
 9854SOL    HW147554   6.630   9.332   1.400 -1.6813  0.1821  1.0047
 9854SOL    HW247555   6.639   9.181   1.401  1.2190  0.2356 -1.5090
 9855SOL     OW47556   4.177  12.472   3.351 -0.3051  0.3543 -0.7771
 9855SOL    HW147557   4.234  12.495   3.424 -2.4130 -0.0458  1.0828
 9855SOL    HW247558   4.128  12.553   3.333 -0.8058  0.0456 -0.8018
 9856SOL     OW47559  11.040   8.431   7.103  0.1154  0.0604  0.5297
 9856SOL    HW147560  11.103   8.497   7.075  0.8484 -0.8812 -0.1353
 9856SOL    HW247561  11.043   8.434   7.199  0.0694  1.0304  0.5092
 9857SOL     OW47562   4.138   5.912   3.260 -0.5023  0.0845 -0.2201
 9857SOL    HW147563   4.077   5.893   3.189 -2.6503  0.2605  1.4566
 9857SOL    HW247564   4.176   5.828   3.283 -0.3847 -0.0935 -1.0523
 9858SOL     OW47565   3.418  12.369   1.395  0.3516  0.1418  0.4901
 9858SOL    HW147566   3.434  12.293   1.451 -0.1802 -1.1397 -1.0425
 9858SOL    HW247567   3.457  12.346   1.311 -0.3369  1.3296 -0.1773
 9859SOL     OW47568  13.504  11.232   1.989 -0.1920 -0.0463 -0.6859
 9859SOL    HW147569  13.518  11.146   1.949  2.2012  0.5602 -1.2978
 9859SOL    HW247570  13.592  11.269   1.998 -0.9500  1.4325  1.6731
 9860SOL     OW47571  10.953  10.941  12.650  0.2776 -0.3630 -0.3370
 9860SOL    HW147572  11.048  10.944  12.648  0.3155  0.6323  1.2132
 9860SOL    HW247573  10.929  10.877  12.582  1.9957 -0.0942 -1.2435
 9861SOL     OW47574   0.920   9.271  13.307 -0.6177 -0.1211 -0.4570
 9861SOL    HW147575   0.832   9.244  13.280 -0.3682 -1.1777 -0.2294
 9861SOL    HW247576   0.935   9.354  13.261 -1.4787 -0.2548 -0.9862
 9862SOL     OW47577   3.122   7.938  12.255 -1.0219 -0.6239  0.2087
 9862SOL    HW147578   3.029   7.915  12.256 -1.2940  0.3201 -1.1622
 9862SOL    HW247579   3.142   7.955  12.163 -0.1503  1.6694  0.7479
 9863SOL     OW47580  11.447  13.383  14.067  0.3603  0.1844 -0.0276
 9863SOL    HW147581  11.488  13.450  14.120 -0.3275  0.3720  0.2745
 9863SOL    HW247582  11.440  13.307  14.125  3.9557 -1.2667 -1.2219
 9864SOL     OW47583  12.445  12.878   1.646 -0.2058 -0.0825 -0.1451
 9864SOL    HW147584  12.463  12.838   1.561  4.3266  1.2972 -0.1424
 9864SOL    HW247585  12.435  12.804   1.706 -0.7454 -1.0946 -1.4366
 9865SOL     OW47586  12.439   9.802   3.541 -0.0158  0.3417  0.1252
 9865SOL    HW147587  12.374   9.733   3.528  0.0579  0.0909  1.0207
 9865SOL    HW247588  12.406   9.853   3.614 -1.7199  3.2486 -2.4264
 9866SOL     OW47589  11.025   8.972   5.740  0.1761 -0.2043 -0.3852
 9866SOL    HW147590  11.089   8.901   5.737  1.1106  0.5867  0.1772
 9866SOL    HW247591  10.994   8.972   5.831  0.2319  0.1560 -0.3659
 9867SOL     OW47592  11.999   4.853   0.190  0.1424 -0.1104  0.0435
 9867SOL    HW147593  12.071   4.793   0.172 -0.0141  0.0735 -1.3502
 9867SOL    HW247594  12.013   4.881   0.280  1.7738 -0.1478 -0.1633
 9868SOL     OW47595   4.811   4.590   8.154  0.1587 -0.5250 -0.0176
 9868SOL    HW147596   4.875   4.599   8.083  2.0218 -2.7526  1.2175
 9868SOL    HW247597   4.746   4.529   8.119 -1.0660  1.3003 -1.0725
 9869SOL     OW47598   0.304   3.272   3.113  0.3409  0.4874  0.1153
 9869SOL    HW147599   0.343   3.349   3.154  0.1515 -0.5131  2.3390
 9869SOL    HW247600   0.281   3.215   3.186 -1.1809 -0.9147 -1.3513
 9870SOL     OW47601   7.459   8.657   9.028 -0.2870  0.1222  0.7987
 9870SOL    HW147602   7.474   8.664   9.123  1.5642  1.0574  0.4840
 9870SOL    HW247603   7.481   8.744   8.994 -1.3133 -0.0801 -0.4699
 9871SOL     OW47604  13.546  11.304  10.774 -0.1763  0.4643 -0.2417
 9871SOL    HW147605  13.557  11.353  10.856  0.4715 -1.2404  0.7537
 9871SOL    HW247606  13.542  11.371  10.706 -4.1649  2.2191  1.3922
 9872SOL     OW47607   1.224  13.465   2.745 -0.2049 -0.0923  0.6434
 9872SOL    HW147608   1.141  13.513   2.739 -0.1945 -0.2020 -0.8141
 9872SOL    HW247609   1.291  13.531   2.727 -0.0457 -0.1998  0.8436
 9873SOL     OW47610   3.854   5.602   3.389  0.1142  0.3031 -0.3956
 9873SOL    HW147611   3.815   5.519   3.362  0.9338  0.2356 -1.4193
 9873SOL    HW247612   3.801   5.669   3.347 -0.4546  0.3003  0.3067
 9874SOL     OW47613   6.934   7.599  14.061  0.3951 -0.0092  0.4979
 9874SOL    HW147614   6.894   7.569  13.979  0.2053 -0.1627  0.6464
 9874SOL    HW247615   6.899   7.540  14.127  0.2754  0.3364  0.7456
 9875SOL     OW47616   7.425   6.954   5.904  0.2221 -0.0531 -0.5032
 9875SOL    HW147617   7.463   7.009   5.972 -1.2023 -0.3012  0.5563
 9875SOL    HW247618   7.421   7.010   5.826  1.1245  0.4979 -0.1667
 9876SOL     OW47619  12.333   0.353   3.512 -0.3903  0.5424  0.2388
 9876SOL    HW147620  12.239   0.366   3.520 -0.3225  1.5320 -0.4438
 9876SOL    HW247621  12.371   0.402   3.585 -0.4570 -1.2365  1.5506
 9877SOL     OW47622   2.877   9.474   4.477  0.4844 -0.2128  0.2383
 9877SOL    HW147623   2.899   9.439   4.563  2.6216  1.6872  0.5790
 9877SOL    HW247624   2.887   9.569   4.486  2.0073 -0.0099 -2.3404
 9878SOL     OW47625   5.652  11.569   2.429  0.3152 -0.3913  0.5036
 9878SOL    HW147626   5.701  11.604   2.354  0.1448 -1.5578 -0.1708
 9878SOL    HW247627   5.690  11.483   2.445 -1.1667 -1.1093  0.2919
 9879SOL     OW47628  13.490   2.471   3.447  0.2986  0.0944  0.7301
 9879SOL    HW147629  13.543   2.419   3.387  1.7685 -0.5959  2.5205
 9879SOL    HW247630  13.418   2.413   3.472 -1.2367  0.9260 -1.4685
 9880SOL     OW47631  10.758  10.963  10.295 -0.0140  0.5044  0.1664
 9880SOL    HW147632  10.665  10.937  10.298 -0.0624  0.6590  3.0877
 9880SOL    HW247633  10.804  10.887  10.330  0.7931  1.0324  0.2524
 9881SOL     OW47634   3.456   8.482   9.321  0.7953  0.0012 -0.1217
 9881SOL    HW147635   3.469   8.444   9.408  0.1382  1.4795  0.6633
 9881SOL    HW247636   3.377   8.536   9.330  0.8369  0.3489 -1.5872
 9882SOL     OW47637   7.427   3.693   4.994  0.2199 -0.2580  0.3445
 9882SOL    HW147638   7.483   3.677   5.070  0.4947 -0.9218  0.0049
 9882SOL    HW247639   7.377   3.612   4.984 -0.7938  0.3199  0.6279
 9883SOL     OW47640   4.286   4.967   4.962  0.2483  0.1213 -0.2580
 9883SOL    HW147641   4.296   5.035   4.895  1.7844 -1.4059 -1.6647
 9883SOL    HW247642   4.223   4.905   4.925  0.0292 -0.0304  0.3494
 9884SOL     OW47643  13.940   3.240   9.050 -0.4447  0.2856 -0.0237
 9884SOL    HW147644  13.860   3.205   9.012  0.4614  0.6322 -2.4355
 9884SOL    HW247645  13.914   3.323   9.089 -1.3793  0.0178 -0.0434
 9885SOL     OW47646   0.709  11.617  12.961 -0.0485 -0.3399  0.0717
 9885SOL    HW147647   0.783  11.557  12.957 -0.4081 -0.7734 -0.2296
 9885SOL    HW247648   0.654  11.592  12.887 -1.3982 -1.2639  1.3172
 9886SOL     OW47649   5.638   3.571  10.581 -0.1254 -0.0680 -0.9614
 9886SOL    HW147650   5.667   3.641  10.639  1.7146  0.5536 -2.4891
 9886SOL    HW247651   5.694   3.496  10.603 -0.7566 -0.4566 -0.6439
 9887SOL     OW47652   3.557   0.252   2.730 -0.1979  0.1282  0.2095
 9887SOL    HW147653   3.512   0.317   2.676  0.3166 -0.6792 -1.2438
 9887SOL    HW247654   3.534   0.168   2.690 -0.3091 -0.5617  1.6542
 9888SOL     OW47655   1.731   3.751   1.227 -0.0720 -0.1954 -0.1076
 9888SOL    HW147656   1.736   3.810   1.302  1.3935 -1.3079  0.7149
 9888SOL    HW247657   1.776   3.798   1.156 -2.7878  1.5219 -0.8384
 9889SOL     OW47658  11.861   4.694  13.418  0.2134 -0.7852  0.1422
 9889SOL    HW147659  11.882   4.733  13.502 -1.7989 -0.4316  0.5242
 9889SOL    HW247660  11.791   4.631  13.436 -0.9537 -0.0032 -1.3659
 9890SOL     OW47661   2.874   8.016   6.725 -0.0904 -0.0325  0.0783
 9890SOL    HW147662   2.819   7.997   6.649 -1.4086  1.4730  0.5970
 9890SOL    HW247663   2.928   8.090   6.697 -0.2308  0.2025  0.4193
 9891SOL     OW47664   1.643   0.149   3.537  0.6000  0.2367 -0.4888
 9891SOL    HW147665   1.696   0.227   3.554 -1.4972  1.9191 -1.1939
 9891SOL    HW247666   1.684   0.107   3.462  1.4489  0.9637 -0.4410
 9892SOL     OW47667   7.758   7.196  10.649  0.1350 -0.1277  0.1599
 9892SOL    HW147668   7.830   7.256  10.668 -0.1931  0.4341 -0.3676
 9892SOL    HW247669   7.793   7.137  10.583  0.4653 -0.5437  0.6948
 9893SOL     OW47670   5.027  10.237  11.820 -0.0126 -0.3955  0.8036
 9893SOL    HW147671   5.094  10.171  11.799  0.4504  0.2113  0.3339
 9893SOL    HW247672   4.989  10.259  11.735  0.5463  0.6871  0.8222
 9894SOL     OW47673  12.970   4.305  13.545  0.0183 -0.5584 -0.1996
 9894SOL    HW147674  13.020   4.358  13.483 -0.4080 -0.9371 -0.8722
 9894SOL    HW247675  12.900   4.267  13.493 -0.3520 -0.8746  0.5207
 9895SOL     OW47676   1.670   4.738   2.595 -0.0177  0.2451  0.2771
 9895SOL    HW147677   1.669   4.833   2.598 -0.4769  0.3296 -1.4786
 9895SOL    HW247678   1.585   4.714   2.557  1.6344 -0.6055 -3.3234
 9896SOL     OW47679   1.314  13.168   3.046  0.2565  0.3555 -0.4496
 9896SOL    HW147680   1.273  13.244   3.004  0.7223  0.0906 -1.4034
 9896SOL    HW247681   1.243  13.104   3.053 -0.8568  1.7447  2.7594
 9897SOL     OW47682   8.289   2.516   0.173  0.2897 -0.1923  0.1321
 9897SOL    HW147683   8.376   2.492   0.141  1.0806  0.8574  1.4188
 9897SOL    HW247684   8.286   2.483   0.263 -0.3714  0.4219  0.3441
 9898SOL     OW47685   4.815  11.845   5.715  0.4965  0.2527  0.2050
 9898SOL    HW147686   4.880  11.787   5.676  0.8656 -0.2395  1.4857
 9898SOL    HW247687   4.864  11.897   5.779 -0.1117  0.9237  0.1498
 9899SOL     OW47688   0.548   7.866   1.266 -0.4233 -0.4538  0.1320
 9899SOL    HW147689   0.507   7.932   1.323 -0.9271 -1.2761  0.7570
 9899SOL    HW247690   0.478   7.839   1.207  0.3694  1.1391 -1.6243
 9900SOL     OW47691   3.816   2.893   7.654 -0.3874 -0.1352 -0.4867
 9900SOL    HW147692   3.840   2.905   7.562 -0.1786  1.5181 -0.2414
 9900SOL    HW247693   3.876   2.825   7.686  1.6243  1.3799 -0.8221
 9901SOL     OW47694   3.203   8.250  10.637  0.2757  0.0349  0.3120
 9901SOL    HW147695   3.229   8.313  10.569 -1.7288  0.0460 -0.5048
 9901SOL    HW247696   3.185   8.303  10.714 -1.2682  0.4953 -0.3337
 9902SOL     OW47697   6.534  11.423   1.863  0.3387 -0.1404 -0.3272
 9902SOL    HW147698   6.512  11.330   1.853 -0.8985 -0.3142  2.7077
 9902SOL    HW247699   6.626  11.423   1.889 -0.4368 -0.9701  2.9601
 9903SOL     OW47700  11.155   6.041   6.653 -0.8361  0.0795  0.0800
 9903SOL    HW147701  11.165   5.958   6.699 -2.1799 -0.6368 -0.8625
 9903SOL    HW247702  11.081   6.027   6.594 -0.4292  1.6116 -0.8427
 9904SOL     OW47703  12.074   5.886   4.444  0.5006  0.1213 -0.0511
 9904SOL    HW147704  12.040   5.930   4.522 -1.0258  0.1053 -0.6756
 9904SOL    HW247705  12.145   5.942   4.414  0.8475  0.3398  1.1055
 9905SOL     OW47706   9.089  12.917   4.701  0.0691 -0.6072 -0.1350
 9905SOL    HW147707   9.164  12.931   4.643  0.5240 -0.5737  0.4533
 9905SOL    HW247708   9.127  12.897   4.786 -0.5093  2.0226  0.8552
 9906SOL     OW47709   4.808   2.223   0.051  0.1828  0.0007  0.7330
 9906SOL    HW147710   4.873   2.203  -0.016 -0.3339 -2.1806  0.8107
 9906SOL    HW247711   4.773   2.308   0.026  2.1665  0.6609  0.0057
 9907SOL     OW47712   5.692  13.655   0.277 -0.0579  0.0885 -0.1788
 9907SOL    HW147713   5.703  13.748   0.256  2.4895 -0.2312 -0.6807
 9907SOL    HW247714   5.632  13.654   0.352 -0.9039  2.0429 -0.7569
 9908SOL     OW47715   2.161  10.121   2.725  0.4372 -0.2900  0.0863
 9908SOL    HW147716   2.101  10.188   2.759 -0.0851 -0.1118 -1.1183
 9908SOL    HW247717   2.123  10.038   2.753  0.3538 -0.1254  0.4579
 9909SOL     OW47718   7.042  12.632   6.876 -0.1163 -0.1633  0.0577
 9909SOL    HW147719   6.964  12.680   6.902 -0.7814 -0.3758 -1.4327
 9909SOL    HW247720   7.112  12.670   6.929 -0.8398  1.5535 -0.1342
 9910SOL     OW47721   8.908   9.509  13.668 -0.2544 -0.0575  0.4111
 9910SOL    HW147722   8.920   9.471  13.581 -0.3834 -2.3447  1.3270
 9910SOL    HW247723   8.987   9.485  13.716  0.5047  2.4464  0.5801
 9911SOL     OW47724  11.155   7.400   2.771  0.1765 -0.5475  0.4335
 9911SOL    HW147725  11.181   7.414   2.680  0.4269 -0.5371  0.5076
 9911SOL    HW247726  11.224   7.346   2.809 -0.0664 -0.7845  0.5449
 9912SOL     OW47727   2.307  10.853   5.434 -0.1236  0.5455  0.3017
 9912SOL    HW147728   2.267  10.887   5.514 -0.8334 -0.7585  0.5334
 9912SOL    HW247729   2.263  10.900   5.363  0.0337  1.2247  0.6469
 9913SOL     OW47730   1.135   3.563   6.557  0.0958 -0.5535  0.0124
 9913SOL    HW147731   1.212   3.620   6.555 -0.1869 -0.0882 -2.7364
 9913SOL    HW247732   1.086   3.591   6.634  0.0301  2.9707 -1.1142
 9914SOL     OW47733  10.451   0.231   1.816  0.3323 -0.0146  0.0864
 9914SOL    HW147734  10.421   0.318   1.840  2.0120  0.5714  0.1882
 9914SOL    HW247735  10.512   0.206   1.885  0.4349 -0.9489 -0.3209
 9915SOL     OW47736   3.561   5.645   6.832 -0.3887 -0.4569  0.4766
 9915SOL    HW147737   3.506   5.596   6.771 -0.4197  0.4044 -0.2045
 9915SOL    HW247738   3.513   5.641   6.915 -1.1291 -0.3437  0.0680
 9916SOL     OW47739   3.659  12.754   4.044 -0.6916 -0.0623  0.0679
 9916SOL    HW147740   3.669  12.771   4.138  0.6467  0.2465 -0.1212
 9916SOL    HW247741   3.708  12.824   4.001  1.4877 -2.0061 -0.8047
 9917SOL     OW47742   0.338   4.096   2.302  0.1551 -0.2264 -0.1356
 9917SOL    HW147743   0.378   4.058   2.224  1.4115 -0.4029  0.5631
 9917SOL    HW247744   0.274   4.159   2.268  1.6640  0.7500 -1.3265
 9918SOL     OW47745   4.507   2.581   4.737  0.1997 -0.8774  0.8469
 9918SOL    HW147746   4.587   2.604   4.689  0.1452 -0.6463  0.8654
 9918SOL    HW247747   4.457   2.528   4.675 -0.4812  0.5200  0.1351
 9919SOL     OW47748  11.243  10.657   3.119 -0.1444  0.1576 -0.0397
 9919SOL    HW147749  11.172  10.670   3.055  0.0061 -0.6315 -0.3780
 9919SOL    HW247750  11.204  10.601   3.186  0.4109 -1.0957 -0.7135
 9920SOL     OW47751  13.021   8.344   1.435  0.5866  0.3514 -0.4354
 9920SOL    HW147752  13.063   8.294   1.505 -1.5677 -1.2796 -0.1676
 9920SOL    HW247753  13.092   8.371   1.378  2.3325  0.9625  1.8710
 9921SOL     OW47754   5.808   5.206   7.858 -0.7985  0.4427  0.0699
 9921SOL    HW147755   5.848   5.138   7.914 -0.2997 -0.0199 -0.8283
 9921SOL    HW247756   5.866   5.281   7.868  0.2830 -0.1987 -1.1569
 9922SOL     OW47757   5.649   5.479   2.421 -0.2513 -0.0620  0.1592
 9922SOL    HW147758   5.580   5.541   2.443 -0.3527  0.4516 -1.4607
 9922SOL    HW247759   5.708   5.480   2.496  0.0672  2.4621 -0.0634
 9923SOL     OW47760   4.777   0.947  10.284 -0.0244  0.0385  0.1955
 9923SOL    HW147761   4.829   0.912  10.212 -0.9200 -0.4008 -0.2635
 9923SOL    HW247762   4.814   0.908  10.362  0.4778 -0.0832 -0.0994
 9924SOL     OW47763   3.760  13.838   4.306 -0.2678  0.0055  0.1011
 9924SOL    HW147764   3.789  13.747   4.302  0.4094  0.0700  2.0261
 9924SOL    HW247765   3.801  13.872   4.386 -0.6835  1.9418 -0.4489
 9925SOL     OW47766   6.946   8.802  10.895  0.8519  0.1769 -0.5930
 9925SOL    HW147767   6.856   8.819  10.923  0.5397 -0.7031 -1.0161
 9925SOL    HW247768   6.992   8.884  10.911 -0.0841  0.7186 -0.5948
 9926SOL     OW47769   5.532   7.031  13.586 -0.2994  0.5612 -0.0060
 9926SOL    HW147770   5.602   6.988  13.635 -0.4703  0.0844 -0.1714
 9926SOL    HW247771   5.506   6.967  13.520 -1.2628  0.5070  0.3992
 9927SOL     OW47772  13.501   0.108   1.979 -0.1880  0.2948  0.0198
 9927SOL    HW147773  13.456   0.192   1.983  0.3297  0.6070 -0.7026
 9927SOL    HW247774  13.594   0.130   1.984 -0.0675 -0.2884  0.5360
 9928SOL     OW47775   0.076  13.629  12.559 -0.1028  0.1728 -0.3246
 9928SOL    HW147776  -0.003  13.577  12.574 -0.1587  0.0378 -1.0315
 9928SOL    HW247777   0.045  13.707  12.514  0.2716 -0.3794 -1.6120
 9929SOL     OW47778  11.678   5.710   6.539  0.0403  0.3942 -0.4558
 9929SOL    HW147779  11.705   5.783   6.482  0.9708  1.6624  1.4996
 9929SOL    HW247780  11.592   5.735   6.571  0.3796  0.6889  0.2524
 9930SOL     OW47781   8.049   6.202   7.394  0.2034 -0.2547 -0.2150
 9930SOL    HW147782   7.953   6.207   7.403  0.1545  0.8197 -1.1399
 9930SOL    HW247783   8.073   6.125   7.445 -1.0819 -0.1677  0.5742
 9931SOL     OW47784   3.842  11.773   2.274  0.0419  0.5907  0.2026
 9931SOL    HW147785   3.761  11.802   2.232 -0.9282 -1.0035  0.9058
 9931SOL    HW247786   3.818  11.757   2.365  1.4896  1.4277  0.7606
 9932SOL     OW47787  11.339   3.023   5.523 -0.6140  0.7953  0.0639
 9932SOL    HW147788  11.384   2.939   5.516  0.6823  1.1747  2.4592
 9932SOL    HW247789  11.265   3.006   5.581 -0.1438  1.3172  0.8485
 9933SOL     OW47790  12.508   2.799   7.852  0.2787  0.1531 -0.4911
 9933SOL    HW147791  12.548   2.827   7.770 -1.8672 -1.4340 -2.2191
 9933SOL    HW247792  12.432   2.856   7.863 -0.1347 -0.4242 -0.2816
 9934SOL     OW47793  13.573   0.765  11.052 -0.0284 -0.0281  0.0589
 9934SOL    HW147794  13.506   0.818  11.010  0.1031 -0.1012 -0.2446
 9934SOL    HW247795  13.656   0.801  11.021  0.0883  0.3391  0.7693
 9935SOL     OW47796   9.689   8.462   1.005 -0.7911 -0.4496 -0.3398
 9935SOL    HW147797   9.719   8.451   0.915 -2.4779 -1.6495 -0.8020
 9935SOL    HW247798   9.740   8.399   1.055  0.8639  0.8920 -0.2161
 9936SOL     OW47799  13.471  13.550   7.442 -0.1636 -0.1609 -0.5707
 9936SOL    HW147800  13.557  13.512   7.461  0.2781 -0.3127 -2.6282
 9936SOL    HW247801  13.477  13.639   7.476  1.4083  0.3320 -1.9659
 9937SOL     OW47802   2.589   9.919   7.100 -0.2625 -0.3276  0.2169
 9937SOL    HW147803   2.517   9.977   7.073 -0.6114 -0.5906  0.5697
 9937SOL    HW247804   2.640   9.906   7.020 -0.5666 -0.0822 -0.0214
 9938SOL     OW47805   8.922   1.309  10.829 -0.3791 -0.0306  0.0687
 9938SOL    HW147806   8.985   1.365  10.874 -1.8198  1.1764  0.6890
 9938SOL    HW247807   8.839   1.357  10.836 -1.6654 -2.1926  0.5041
 9939SOL     OW47808   2.016   1.791   1.582 -0.3776  0.3232 -0.3252
 9939SOL    HW147809   2.090   1.730   1.586 -0.8436 -0.2229  0.5803
 9939SOL    HW247810   1.948   1.742   1.536 -0.4975  0.4590 -0.2927
 9940SOL     OW47811   1.434   7.323   8.387 -0.2341  0.1228  0.0764
 9940SOL    HW147812   1.493   7.248   8.395 -0.3304  0.0798  0.4020
 9940SOL    HW247813   1.468   7.372   8.313 -0.9699 -0.9673 -1.0307
 9941SOL     OW47814   5.552   2.196   2.255  0.6374 -0.1992  0.2378
 9941SOL    HW147815   5.473   2.202   2.309  0.6563 -0.4311  0.2918
 9941SOL    HW247816   5.559   2.282   2.213  1.2676  0.3936  1.4985
 9942SOL     OW47817   6.579  12.009   3.180 -0.3944 -0.5149  0.4894
 9942SOL    HW147818   6.598  11.946   3.111  0.3484 -0.4046  0.5793
 9942SOL    HW247819   6.653  12.001   3.241  0.2183  1.1179  0.0178
 9943SOL     OW47820  11.426   4.481   6.836 -0.0194 -0.5309 -0.3800
 9943SOL    HW147821  11.436   4.387   6.820  3.4165 -0.4360  0.4431
 9943SOL    HW247822  11.403   4.487   6.929 -1.0832 -0.5583 -0.6342
 9944SOL     OW47823   2.137  11.597   9.379 -0.2037  0.6627 -0.4621
 9944SOL    HW147824   2.129  11.602   9.474  3.0724 -0.7983  0.0382
 9944SOL    HW247825   2.162  11.685   9.352 -0.4580  0.9183  0.1383
 9945SOL     OW47826  14.105   6.328   9.954  1.0711 -0.2134  0.1795
 9945SOL    HW147827  14.137   6.383   9.882  1.0824 -1.1446 -0.5372
 9945SOL    HW247828  14.181   6.320  10.012  1.2098  0.1387  0.0540
 9946SOL     OW47829  12.892   6.042   4.363  0.4140 -0.3810  0.4954
 9946SOL    HW147830  12.949   5.979   4.319  2.0026 -0.0728  2.0279
 9946SOL    HW247831  12.815   5.990   4.388  0.4077 -1.0258 -0.7533
 9947SOL     OW47832   8.269   6.278  12.157 -0.4851 -0.1000 -0.1993
 9947SOL    HW147833   8.325   6.344  12.196 -0.5836  0.9965 -1.8060
 9947SOL    HW247834   8.260   6.305  12.066  0.3940 -2.9582 -1.2346
 9948SOL     OW47835   3.049  10.577   7.690  0.1505  0.3747  0.1319
 9948SOL    HW147836   3.050  10.554   7.597 -4.3884  2.6540 -0.7846
 9948SOL    HW247837   3.066  10.671   7.692  0.8995  0.2527  1.7775
 9949SOL     OW47838   9.554  10.244   7.183 -0.2689 -0.4227  0.3209
 9949SOL    HW147839   9.579  10.314   7.243  0.4998 -1.7005  1.5509
 9949SOL    HW247840   9.460  10.256   7.169  0.0486  1.5221 -0.4380
 9950SOL     OW47841  10.135   2.202  10.184 -0.0874 -0.3604  0.1554
 9950SOL    HW147842  10.105   2.291  10.166  0.1909 -0.0933  0.9444
 9950SOL    HW247843  10.212   2.191  10.128  0.6552  0.3817  0.9869
 9951SOL     OW47844   2.416   2.849   9.366 -0.3730  0.0555  0.4459
 9951SOL    HW147845   2.502   2.809   9.379 -0.0355  1.0377  1.2738
 9951SOL    HW247846   2.424   2.937   9.402 -1.4667  0.4678 -0.2697
 9952SOL     OW47847  12.985   1.099   9.566  0.2510 -0.1442  0.4033
 9952SOL    HW147848  12.912   1.040   9.584 -1.4734  1.8812  0.4798
 9952SOL    HW247849  13.028   1.110   9.650  0.8228 -1.5390  0.3131
 9953SOL     OW47850   0.402  13.133   7.099 -0.0947  0.3329  0.0942
 9953SOL    HW147851   0.377  13.083   7.176  0.6571  0.6091  0.5208
 9953SOL    HW247852   0.423  13.221   7.132  1.1513  0.1932 -0.2837
 9954SOL     OW47853   8.815   7.971   9.229  0.5410  0.0147  0.9949
 9954SOL    HW147854   8.891   7.914   9.215 -0.0907 -0.8438  0.9583
 9954SOL    HW247855   8.828   8.007   9.316  1.6595  0.9387  0.4666
 9955SOL     OW47856  13.916   7.276   0.105 -0.1534 -0.0464 -0.3120
 9955SOL    HW147857  14.010   7.283   0.091  0.0286  2.0516  1.5001
 9955SOL    HW247858  13.894   7.188   0.075  2.2241 -0.3131 -1.4921
 9956SOL     OW47859  10.840   6.129  11.196 -0.3352  0.3993 -0.3004
 9956SOL    HW147860  10.857   6.153  11.287 -0.2574  0.2644 -0.2791
 9956SOL    HW247861  10.775   6.193  11.166 -0.1906  0.5841 -0.2193
 9957SOL     OW47862  10.448  11.884   0.829 -0.3584 -0.5873 -0.0494
 9957SOL    HW147863  10.489  11.845   0.752  0.4306 -1.7280  0.9219
 9957SOL    HW247864  10.361  11.911   0.799  1.3390  2.9481 -2.4742
 9958SOL     OW47865  11.621   7.593   9.832 -0.5465  0.0731  0.2046
 9958SOL    HW147866  11.624   7.497   9.839 -0.8134  0.1618  2.0646
 9958SOL    HW247867  11.698   7.615   9.780 -0.9009 -1.1808 -0.9193
 9959SOL     OW47868   9.641   7.380   6.653 -0.1588 -0.2136  0.2041
 9959SOL    HW147869   9.625   7.474   6.648 -0.1785 -0.2846 -2.1590
 9959SOL    HW247870   9.701   7.369   6.726 -1.3845  1.4328  1.5409
 9960SOL     OW47871  13.798   3.084   8.495 -0.4195  0.6722  0.0569
 9960SOL    HW147872  13.736   3.152   8.467 -2.0961 -0.6702  0.3152
 9960SOL    HW247873  13.825   3.042   8.414  1.2682  2.1032 -0.1852
 9961SOL     OW47874   6.590   8.549   9.723 -0.0976 -0.2122 -0.5271
 9961SOL    HW147875   6.541   8.482   9.675 -0.5963  0.3046 -0.7488
 9961SOL    HW247876   6.668   8.503   9.754  0.3925 -0.4821 -2.0773
 9962SOL     OW47877   6.475   9.124  12.620  0.1326  0.2399  0.1257
 9962SOL    HW147878   6.513   9.052  12.569 -1.2560 -0.8898  0.6146
 9962SOL    HW247879   6.543   9.148  12.683  0.4750 -0.9438  0.2335
 9963SOL     OW47880   8.258  12.771  11.835  0.0063  0.4152  0.4044
 9963SOL    HW147881   8.232  12.822  11.757  1.4206  1.1806  0.3990
 9963SOL    HW247882   8.176  12.759  11.883 -0.4610  2.4677  0.2517
 9964SOL     OW47883   0.365  13.886   9.859  0.0561  0.6625  0.0597
 9964SOL    HW147884   0.414  13.947   9.805 -0.3754  1.0397  0.0837
 9964SOL    HW247885   0.409  13.802   9.848 -0.7698  0.4496 -1.8603
 9965SOL     OW47886   1.290   8.732   8.154  0.1490  0.1948  0.0620
 9965SOL    HW147887   1.305   8.777   8.071  0.0442  0.1984  0.0438
 9965SOL    HW247888   1.345   8.779   8.217  1.6055 -0.9313 -0.3428
 9966SOL     OW47889  10.282   6.145   5.639  0.2463 -0.4067  0.1862
 9966SOL    HW147890  10.264   6.083   5.569 -0.4904  0.5121 -0.4472
 9966SOL    HW247891  10.365   6.114   5.677 -0.0498 -1.7076 -0.1725
 9967SOL     OW47892  12.492   7.981  10.857  0.0391 -0.4290  0.0005
 9967SOL    HW147893  12.467   8.066  10.821 -2.3271 -0.8654  0.4276
 9967SOL    HW247894  12.529   8.001  10.943  1.5788  0.2788 -0.7763
 9968SOL     OW47895   3.434  11.607  12.804 -0.0388 -0.2295 -0.6261
 9968SOL    HW147896   3.457  11.560  12.885  0.2831  0.2325 -0.4451
 9968SOL    HW247897   3.508  11.666  12.789 -0.8038  0.8021 -0.4090
 9969SOL     OW47898  13.065   9.180  12.549  0.0379  0.1494 -0.6230
 9969SOL    HW147899  13.078   9.261  12.501  1.9654  1.3851  1.7649
 9969SOL    HW247900  12.979   9.189  12.591  0.6608  1.4687  0.4366
 9970SOL     OW47901  13.695  13.801   2.619  0.5402 -0.1944  0.2947
 9970SOL    HW147902  13.723  13.866   2.683 -0.0748  0.8250 -0.4313
 9970SOL    HW247903  13.631  13.747   2.665 -0.6337  1.1341  0.3140
 9971SOL     OW47904   9.227   9.279   2.404  0.0249 -0.3932 -0.4481
 9971SOL    HW147905   9.189   9.339   2.339  1.1170 -0.2809 -1.0188
 9971SOL    HW247906   9.319   9.306   2.409 -0.2096  0.1174  1.7597
 9972SOL     OW47907  12.678   9.694   3.762  0.0114  0.2114 -0.0440
 9972SOL    HW147908  12.599   9.640   3.766  0.5108 -0.7105 -1.5956
 9972SOL    HW247909  12.717   9.672   3.677  2.3643 -0.0036  1.0239
 9973SOL     OW47910   3.486  10.138   9.595 -0.3860 -0.0967 -0.2390
 9973SOL    HW147911   3.461  10.141   9.687 -2.4007 -0.3720 -0.7249
 9973SOL    HW247912   3.454  10.221   9.559  0.1977 -0.0772 -0.7239
 9974SOL     OW47913  10.019  10.459   8.163 -0.0127  0.0289  0.8701
 9974SOL    HW147914   9.988  10.546   8.138  0.5522 -0.1950 -0.7169
 9974SOL    HW247915  10.104  10.476   8.205  0.3676  0.2322  0.0547
 9975SOL     OW47916   4.865  12.378   7.466 -0.1843 -1.1943 -0.2425
 9975SOL    HW147917   4.814  12.458   7.474  0.0906 -0.8872 -1.3197
 9975SOL    HW247918   4.802  12.312   7.439 -0.2820 -1.1681 -0.0776
 9976SOL     OW47919   5.652  12.990   1.735  0.1237 -0.2041  0.0705
 9976SOL    HW147920   5.627  13.002   1.643  1.3163 -1.5211 -0.4559
 9976SOL    HW247921   5.747  12.994   1.735  0.1326 -0.1340  1.2754
 9977SOL     OW47922  12.782  13.024   6.164  0.0917  0.0550  0.3743
 9977SOL    HW147923  12.690  13.001   6.167 -0.2857  1.2046 -0.9455
 9977SOL    HW247924  12.800  13.064   6.249 -1.3342  2.1119 -0.1958
 9978SOL     OW47925   6.512   7.034   9.307 -0.0640 -0.1117 -0.4242
 9978SOL    HW147926   6.607   7.034   9.316 -0.1922  0.7476  1.2707
 9978SOL    HW247927   6.490   7.122   9.278 -0.5029  0.6904  2.0680
 9979SOL     OW47928   9.011   6.091   8.846  0.3838 -0.2048  0.1383
 9979SOL    HW147929   8.959   6.093   8.926  1.1550  0.9463  0.6510
 9979SOL    HW247930   9.071   6.018   8.858  0.0512 -0.4467  0.3217
 9980SOL     OW47931   7.736   7.621   2.764 -0.1995 -0.3680  0.0831
 9980SOL    HW147932   7.798   7.555   2.734  0.8504  1.0255 -0.9916
 9980SOL    HW247933   7.651   7.590   2.734 -0.1322 -2.4522  1.8011
 9981SOL     OW47934   4.029  10.942  13.209 -0.0900 -0.1929  0.2790
 9981SOL    HW147935   4.048  10.849  13.195 -0.3275 -0.1095 -0.6133
 9981SOL    HW247936   3.952  10.960  13.156 -0.7104  0.2629  1.2984
 9982SOL     OW47937   0.748   0.581   9.006  1.0212 -0.5894 -0.2320
 9982SOL    HW147938   0.716   0.660   8.963 -0.4498 -1.8252 -1.5238
 9982SOL    HW247939   0.754   0.516   8.937  2.4321 -1.5866  0.7536
 9983SOL     OW47940  13.557   8.053  12.048  0.1116 -0.0190  0.4537
 9983SOL    HW147941  13.566   8.058  12.143 -1.4516 -0.7611  0.6789
 9983SOL    HW247942  13.504   8.129  12.024 -1.6448 -1.1564  0.5447
 9984SOL     OW47943   9.928   3.053  13.637 -0.5312 -0.1837  0.4525
 9984SOL    HW147944   9.874   3.132  13.639  0.3994  0.5618 -1.6308
 9984SOL    HW247945   9.994   3.069  13.570  0.1973 -2.4277  0.5152
 9985SOL     OW47946  14.018   9.431   8.514  0.3050  0.4918 -0.0077
 9985SOL    HW147947  13.926   9.455   8.502  0.3349  1.4196  1.4002
 9985SOL    HW247948  14.062   9.471   8.439 -0.7906 -2.8679 -2.7234
 9986SOL     OW47949   0.642   5.173   6.286  0.4721  0.4570 -0.2364
 9986SOL    HW147950   0.736   5.166   6.301  0.0021 -1.8820  2.6939
 9986SOL    HW247951   0.620   5.263   6.310  1.8874  0.9751 -0.7693
 9987SOL     OW47952  13.922  12.517  11.602  0.4476  0.0357  0.1751
 9987SOL    HW147953  14.017  12.521  11.614  0.6385 -1.3017 -0.6735
 9987SOL    HW247954  13.903  12.424  11.597 -0.6578  0.3198 -1.5572
 9988SOL     OW47955   3.079   9.186   1.781  0.4700 -0.3217 -0.2686
 9988SOL    HW147956   3.157   9.149   1.822  0.5581 -0.1760 -0.3071
 9988SOL    HW247957   3.008   9.128   1.809  0.5068 -0.1320  0.2212
 9989SOL     OW47958   4.589   7.601  14.010 -0.0416 -0.5461 -0.1953
 9989SOL    HW147959   4.592   7.645  14.095  0.9065 -1.0497  0.0445
 9989SOL    HW247960   4.557   7.668  13.950  3.0797  1.1328 -0.1993
 9990SOL     OW47961  12.070  10.433   9.700  0.1229 -0.1726  0.6715
 9990SOL    HW147962  11.977  10.431   9.681  0.4149  0.3601 -0.9188
 9990SOL    HW247963  12.086  10.521   9.733 -0.2809 -0.9214  3.0424
 9991SOL     OW47964  12.045   2.777  13.158  0.6580 -0.2516  0.3376
 9991SOL    HW147965  12.122   2.724  13.176  0.4117 -0.0679  2.1297
 9991SOL    HW247966  12.070   2.832  13.084  2.1033 -0.4724  0.6366
 9992SOL     OW47967  12.042  12.767  13.979 -0.2978 -0.6786 -0.5455
 9992SOL    HW147968  12.002  12.837  14.032 -0.1341 -0.5408 -0.6029
 9992SOL    HW247969  12.084  12.710  14.043 -2.0983 -1.8265 -0.3298
 9993SOL     OW47970  10.909   1.868   2.506 -0.3297 -0.0279  0.7307
 9993SOL    HW147971  10.916   1.772   2.500  0.3308 -0.1005  2.1989
 9993SOL    HW247972  10.815   1.885   2.498 -0.8019 -1.0681  3.0393
 9994SOL     OW47973   7.786   5.560   1.932  0.0712  0.1841  0.5422
 9994SOL    HW147974   7.845   5.494   1.896 -0.0098 -0.4695  1.5767
 9994SOL    HW247975   7.814   5.642   1.890  1.0000 -0.2908  0.1959
 9995SOL     OW47976  12.720  11.819  13.168  0.0997  0.0429 -0.2276
 9995SOL    HW147977  12.686  11.731  13.185  1.7808 -0.2639  1.9309
 9995SOL    HW247978  12.797  11.805  13.113  0.9751  0.0363  0.9723
 9996SOL     OW47979  12.745   8.093   9.810  0.4818  0.0539 -0.4894
 9996SOL    HW147980  12.751   8.001   9.785 -0.8432 -0.3409  0.4947
 9996SOL    HW247981  12.659   8.100   9.853  0.5174  1.7735 -0.6408
 9997SOL     OW47982   5.055   0.723   1.021 -0.0090 -0.0274 -0.0201
 9997SOL    HW147983   5.111   0.744   0.947  0.0050 -0.1782 -0.0533
 9997SOL    HW247984   5.065   0.629   1.033 -0.1535 -0.0346  0.0556
 9998SOL     OW47985   7.546   7.924   5.161 -0.1603  0.2712  0.0952
 9998SOL    HW147986   7.507   7.984   5.224 -0.3745 -1.1491  1.3984
 9998SOL    HW247987   7.539   7.838   5.203  1.8851 -0.4100 -0.8130
 9999SOL     OW47988  11.119  10.535   6.369 -0.0515  0.0286  0.1928
 9999SOL    HW147989  11.172  10.487   6.432 -0.8963 -0.2861  0.6907
 9999SOL    HW247990  11.179  10.598   6.329  0.8003 -0.6572  0.3612
10000SOL     OW47991   4.075   6.088  11.955 -0.4527 -0.0655  0.0259
10000SOL    HW147992   4.140   6.072  11.888  0.7918  1.1945  0.8868
10000SOL    HW247993   4.077   6.010  12.010  1.4642  0.5714  0.9225
10001SOL     OW47994   4.507   0.490   6.386  0.0154  0.1687  0.2355
10001SOL    HW147995   4.564   0.505   6.311 -1.2176  0.3144 -0.7101
10001SOL    HW247996   4.468   0.576   6.404  0.1286  0.0855  0.9076
10002SOL     OW47997  13.852   1.110  11.815 -0.3845  0.4247 -0.2500
10002SOL    HW147998  13.947   1.117  11.807 -0.1594 -1.1862  0.8040
10002SOL    HW247999  13.837   1.078  11.904 -1.7766 -1.5521 -1.1315
10003SOL     OW48000   3.825   3.136   4.490  0.4845 -0.1531 -0.5373
10003SOL    HW148001   3.732   3.150   4.507  0.8518  0.2557  1.4231
10003SOL    HW248002   3.861   3.225   4.483  1.3107 -0.0908  2.7176
10004SOL     OW48003  13.413   4.748   5.621  0.5568 -0.4709  0.2249
10004SOL    HW148004  13.405   4.653   5.617 -1.7093 -0.3194 -0.0174
10004SOL    HW248005  13.342   4.776   5.679  0.9932  1.0956  0.0466
10005SOL     OW48006  11.740  12.043  12.899  0.2587 -0.2768  0.4246
10005SOL    HW148007  11.814  12.009  12.849  0.6162  0.3017  0.5554
10005SOL    HW248008  11.663  12.000  12.860  0.6604 -0.9100  0.3152
10006SOL     OW48009  10.516  13.490  12.708  1.2591 -0.4245 -0.2222
10006SOL    HW148010  10.528  13.584  12.704  1.3808 -0.4630 -2.9851
10006SOL    HW248011  10.544  13.459  12.621 -1.5077 -2.6381 -0.4674
10007SOL     OW48012   5.293   6.052   3.847  0.4267  0.2615 -0.5201
10007SOL    HW148013   5.264   5.996   3.919  1.9995  0.6451  0.4813
10007SOL    HW248014   5.236   6.129   3.852  0.1158  0.0073 -0.0731
10008SOL     OW48015  12.785  13.330   9.342 -0.1875 -0.1156  0.3772
10008SOL    HW148016  12.762  13.240   9.366 -2.4322  0.0947 -0.6554
10008SOL    HW248017  12.809  13.324   9.249  0.3539  0.2593  0.4892
10009SOL     OW48018  12.975   5.497   6.102 -0.1456  0.2409  0.1556
10009SOL    HW148019  12.918   5.528   6.172  0.0311  1.4947 -0.2469
10009SOL    HW248020  13.037   5.568   6.087  0.1160 -0.1976 -0.9459
10010SOL     OW48021   9.183   6.259   4.973 -0.8085 -0.1154 -0.2795
10010SOL    HW148022   9.265   6.306   4.987 -2.0088  2.5230 -1.2554
10010SOL    HW248023   9.203   6.195   4.905  0.4011  0.6032 -0.6302
10011SOL     OW48024  12.703   8.552   1.160 -0.0862  0.2612  0.0259
10011SOL    HW148025  12.652   8.515   1.087 -0.0364 -0.1347  0.1867
10011SOL    HW248026  12.639   8.599   1.213 -0.0411  0.9690 -0.5318
10012SOL     OW48027   8.014   3.527   2.163  0.7296 -0.1936  0.2386
10012SOL    HW148028   7.975   3.479   2.237  1.1815 -0.7419  0.1291
10012SOL    HW248029   8.108   3.519   2.176  0.8419  1.4867  0.7328
10013SOL     OW48030  12.964   3.785   2.662  0.2282  0.1889  0.1621
10013SOL    HW148031  12.916   3.859   2.626  0.4528  0.0445 -0.4353
10013SOL    HW248032  12.903   3.747   2.726  0.6170  1.6851  1.4893
10014SOL     OW48033  12.899  11.875  12.940  0.5073 -0.3271 -0.2026
10014SOL    HW148034  12.971  11.909  12.888 -0.1458 -1.0009 -1.5959
10014SOL    HW248035  12.873  11.794  12.896 -0.2918 -0.7487  0.9866
10015SOL     OW48036  12.362   0.561   0.747 -0.5630 -0.1316  0.2221
10015SOL    HW148037  12.303   0.527   0.679 -1.8606 -1.4855  1.9278
10015SOL    HW248038  12.374   0.487   0.807 -0.0820  1.2309  1.8821
10016SOL     OW48039  10.538   1.382  12.339  0.0632 -0.4204 -0.0336
10016SOL    HW148040  10.500   1.297  12.316 -1.4830 -0.0061  0.8584
10016SOL    HW248041  10.463   1.439  12.352  1.0675  0.9616 -0.0734
10017SOL     OW48042   2.016   3.751  13.493 -0.0692  0.9170 -0.3012
10017SOL    HW148043   1.930   3.755  13.452  0.5673  0.3471 -1.7759
10017SOL    HW248044   2.060   3.831  13.467 -0.1620  1.2433  0.5111
10018SOL     OW48045   5.548   9.214   6.261  0.0983  0.1297  0.0681
10018SOL    HW148046   5.558   9.263   6.179 -0.7044  0.5934  0.2353
10018SOL    HW248047   5.514   9.129   6.233  2.4877 -0.7832 -0.3226
10019SOL     OW48048   0.628   1.308   7.299 -0.0695  0.0538 -0.2187
10019SOL    HW148049   0.599   1.222   7.327  1.5436 -1.0697 -1.7912
10019SOL    HW248050   0.572   1.331   7.225  0.8879 -0.6560 -1.1870
10020SOL     OW48051   9.473   8.061   1.049  0.5344 -0.1284  0.3952
10020SOL    HW148052   9.419   7.984   1.072  2.0914 -1.1242  0.8435
10020SOL    HW248053   9.460   8.071   0.955 -0.2157 -0.5173  0.4429
10021SOL     OW48054   8.753  10.086   4.382 -0.0216 -0.2077 -0.2606
10021SOL    HW148055   8.790  10.155   4.438 -1.3928  1.7604 -1.6401
10021SOL    HW248056   8.816  10.014   4.388  1.0298  0.7927  1.9603
10022SOL     OW48057  14.077   0.836  12.297 -0.0246 -0.1626  0.5297
10022SOL    HW148058  14.095   0.917  12.249 -1.7501 -0.2036 -0.2460
10022SOL    HW248059  14.077   0.862  12.389  1.4308  0.2972  0.4161
10023SOL     OW48060  11.926   5.988   7.189  0.3971 -0.0450 -0.1638
10023SOL    HW148061  11.964   6.065   7.145 -0.1458  0.5494  0.3892
10023SOL    HW248062  11.992   5.920   7.178  0.0542 -0.1072 -2.4188
10024SOL     OW48063   6.230   8.778   3.163  0.3519  0.0181 -0.0890
10024SOL    HW148064   6.245   8.807   3.073  0.5416 -0.6130 -0.2683
10024SOL    HW248065   6.149   8.729   3.159  0.2300  0.1992  0.1376
10025SOL     OW48066  12.571   7.894   0.715  0.0022  0.2585  0.1297
10025SOL    HW148067  12.546   7.979   0.752 -0.9553 -0.4696  1.2247
10025SOL    HW248068  12.666   7.900   0.705 -0.0016  1.3185  0.5619
10026SOL     OW48069   3.802   1.433  13.070  0.2907 -0.4555 -0.1057
10026SOL    HW148070   3.881   1.379  13.081 -0.7157 -2.4897 -2.0631
10026SOL    HW248071   3.741   1.400  13.136 -0.0051 -1.1225 -0.7002
10027SOL     OW48072   3.356  13.338   6.989 -0.2216 -0.4649 -0.3263
10027SOL    HW148073   3.333  13.379   6.907 -0.4966 -0.5391 -0.2863
10027SOL    HW248074   3.395  13.408   7.041 -1.6711  0.0174  0.1521
10028SOL     OW48075   0.728   1.767   4.624  0.4268  0.8510  0.0652
10028SOL    HW148076   0.634   1.750   4.624  0.5696 -0.7562  3.5339
10028SOL    HW248077   0.760   1.724   4.545 -1.6309  0.7207 -0.7494
10029SOL     OW48078   6.626   5.491   2.370 -0.5857  0.1715 -1.0556
10029SOL    HW148079   6.559   5.423   2.371  0.6358 -1.0364 -0.3030
10029SOL    HW248080   6.643   5.505   2.277 -1.2201 -0.1569 -1.2300
10030SOL     OW48081   9.190  10.671   8.900 -0.7055 -0.3432  0.3481
10030SOL    HW148082   9.189  10.596   8.840 -0.3129  0.6108 -0.8902
10030SOL    HW248083   9.151  10.637   8.981  0.1436 -2.0863  0.0808
10031SOL     OW48084   6.877  11.232   3.601  0.0907 -0.3740 -0.0702
10031SOL    HW148085   6.822  11.181   3.542  1.6024 -2.5106  0.2811
10031SOL    HW248086   6.941  11.275   3.543 -0.4313  0.1837 -0.2486
10032SOL     OW48087   3.741  10.366   6.690 -0.1274 -0.1453  0.0289
10032SOL    HW148088   3.704  10.454   6.695  2.1470  0.9021 -0.4373
10032SOL    HW248089   3.828  10.378   6.651  0.4870 -2.5282  0.4858
10033SOL     OW48090   6.117   7.184  10.696  0.0347  0.4044 -0.9896
10033SOL    HW148091   6.151   7.097  10.717 -2.5464 -1.0880 -2.5037
10033SOL    HW248092   6.035   7.190  10.744  0.1163  2.0343 -0.9772
10034SOL     OW48093  11.090   8.102   3.310 -0.0043 -0.2989 -0.1276
10034SOL    HW148094  11.069   8.012   3.283  0.4119 -0.3629 -0.2493
10034SOL    HW248095  11.068   8.105   3.403  0.7392 -0.7738  0.0766
10035SOL     OW48096   6.836   0.870  10.138 -0.1369  0.1027  0.0583
10035SOL    HW148097   6.812   0.962  10.148 -0.3534  0.3732 -2.2867
10035SOL    HW248098   6.893   0.851  10.213 -0.2610  2.0733  0.6928
10036SOL     OW48099   4.370   9.011   1.752 -0.0399  0.1313  0.7737
10036SOL    HW148100   4.320   9.038   1.675 -0.3506 -1.3961  0.4027
10036SOL    HW248101   4.401   9.092   1.790 -3.3620  1.2620  1.4049
10037SOL     OW48102  11.454  10.239   0.615  0.0550 -0.3816 -0.0706
10037SOL    HW148103  11.516  10.174   0.648 -0.6733 -1.4716 -0.7688
10037SOL    HW248104  11.443  10.216   0.523 -1.2334 -0.1051 -0.0040
10038SOL     OW48105  14.036   2.476   7.837 -0.1950  0.1240 -0.3106
10038SOL    HW148106  14.003   2.402   7.888  1.0797 -0.3868 -0.2107
10038SOL    HW248107  13.961   2.503   7.783 -0.3297 -2.0571 -1.3072
10039SOL     OW48108  10.996   2.352   4.127  0.5057 -0.1139 -0.0701
10039SOL    HW148109  11.041   2.280   4.083  2.0497  1.1170 -0.5725
10039SOL    HW248110  10.987   2.420   4.061 -1.4007  0.0192  0.2517
10040SOL     OW48111   4.537   8.975  13.419 -0.3181 -0.8152 -0.0315
10040SOL    HW148112   4.544   9.013  13.507  0.3822  0.3936 -0.5898
10040SOL    HW248113   4.548   9.050  13.360 -0.5912 -1.6437 -1.1544
10041SOL     OW48114   7.437   8.178   1.686 -0.7420 -0.0985 -0.3154
10041SOL    HW148115   7.490   8.202   1.762 -2.0339  0.8441  0.3318
10041SOL    HW248116   7.406   8.090   1.705 -0.3762 -0.1956 -0.1574
10042SOL     OW48117   5.936   5.047   5.113  0.1146 -0.1093  0.1820
10042SOL    HW148118   5.923   5.001   5.196 -0.7900  1.4665  0.9693
10042SOL    HW248119   5.875   5.121   5.117 -1.4154 -1.0623 -2.7424
10043SOL     OW48120  11.184   2.851   2.742 -0.2799 -0.3335 -0.1070
10043SOL    HW148121  11.122   2.778   2.746 -0.0569 -0.6638 -1.9242
10043SOL    HW248122  11.242   2.837   2.817 -0.6341 -1.6637 -0.0603
10044SOL     OW48123  12.014  10.308  10.782 -0.1309  0.3070  0.3789
10044SOL    HW148124  12.082  10.374  10.768  0.3321 -0.4097 -1.0705
10044SOL    HW248125  11.966  10.306  10.699 -0.5371 -0.7158  0.6222
10045SOL     OW48126   9.070   3.545  10.459 -0.1853  0.1175  0.3909
10045SOL    HW148127   9.091   3.454  10.439  0.7612  0.3353  0.3848
10045SOL    HW248128   9.153   3.585  10.481  0.0352  1.8390 -2.8902
10046SOL     OW48129   8.246  10.974   3.545  0.6392 -0.0760 -0.2128
10046SOL    HW148130   8.155  10.978   3.574  0.8900  1.8211  0.4554
10046SOL    HW248131   8.270  10.881   3.555 -1.7349 -1.0194 -2.2330
10047SOL     OW48132   6.839   9.590   6.824  0.2764  0.3538  0.3215
10047SOL    HW148133   6.749   9.557   6.826  0.3965  0.0040 -0.0385
10047SOL    HW248134   6.835   9.664   6.762  0.3993 -0.1488 -0.2921
10048SOL     OW48135   2.877   4.375   7.611 -0.4161  0.0692  0.0961
10048SOL    HW148136   2.803   4.437   7.612 -1.3094 -0.9505 -0.4263
10048SOL    HW248137   2.906   4.373   7.520  0.1035  0.2844  0.2560
10049SOL     OW48138   9.690   7.850   4.510  0.1582  0.0225  0.1205
10049SOL    HW148139   9.717   7.799   4.433  0.9944  0.0559  0.3911
10049SOL    HW248140   9.765   7.847   4.569  0.1443  1.3974  0.2412
10050SOL     OW48141   3.848   6.400  12.659 -0.4559  0.8246  0.2432
10050SOL    HW148142   3.935   6.434  12.681  0.4607 -1.4145  0.3352
10050SOL    HW248143   3.808   6.380  12.743 -0.5925  0.7861  0.1693
10051SOL     OW48144   9.972   2.992   7.771 -0.6302  0.4933 -0.5489
10051SOL    HW148145   9.969   3.087   7.773  0.5576  0.5430  1.3757
10051SOL    HW248146  10.062   2.970   7.794 -0.8560 -1.1036 -1.0435
10052SOL     OW48147   8.166   1.132   7.144 -0.4583 -0.4640 -0.2412
10052SOL    HW148148   8.257   1.152   7.121 -0.0976  0.3024  1.7077
10052SOL    HW248149   8.169   1.047   7.187 -0.9064 -1.1324 -1.4706
10053SOL     OW48150  13.021   8.342   6.783  0.1271 -0.4971 -0.2550
10053SOL    HW148151  13.066   8.357   6.865 -0.5924 -0.9002  0.2245
10053SOL    HW248152  13.000   8.430   6.750 -0.1779 -0.3453  0.3317
10054SOL     OW48153   0.483  11.686  10.936  0.1268 -0.4094 -0.1048
10054SOL    HW148154   0.509  11.685  10.844 -2.2926  0.1437 -0.8880
10054SOL    HW248155   0.544  11.746  10.978  0.2644  0.6431 -1.7133
10055SOL     OW48156  14.089  10.448  12.648 -0.1550  0.3549  0.1952
10055SOL    HW148157  14.090  10.395  12.727  0.0265  1.0848  0.6941
10055SOL    HW248158  14.043  10.528  12.673  1.1637  1.2108 -0.0187
10056SOL     OW48159   1.194   8.195  11.373 -0.0700 -0.3997  0.4302
10056SOL    HW148160   1.246   8.265  11.411  0.6186 -0.5955 -0.1328
10056SOL    HW248161   1.200   8.209  11.278 -0.6855 -0.6763  0.3459
10057SOL     OW48162   8.501   2.900   7.907  0.3829 -0.1305 -0.1401
10057SOL    HW148163   8.569   2.863   7.963  0.1901 -0.5690 -0.1942
10057SOL    HW248164   8.419   2.870   7.946  0.2252  0.1494 -0.2497
10058SOL     OW48165   1.446   8.116   5.267  0.2676 -0.3058 -0.0572
10058SOL    HW148166   1.473   8.207   5.279  1.7449 -0.6245 -0.6828
10058SOL    HW248167   1.354   8.122   5.240  0.8722  1.1466 -2.0463
10059SOL     OW48168  11.356  12.080   2.310  0.1580 -0.2610 -0.0758
10059SOL    HW148169  11.432  12.103   2.256 -0.2600  0.7469 -0.2547
10059SOL    HW248170  11.281  12.091   2.252 -0.2882  0.7249  0.6536
10060SOL     OW48171   4.046   4.983  13.509  0.5703  0.2577  0.1770
10060SOL    HW148172   4.082   4.975  13.421  0.6545 -0.9871  0.3037
10060SOL    HW248173   3.955   4.953  13.500  0.9278 -1.0522  0.7251
10061SOL     OW48174  11.443  11.708   0.283  0.3413  0.2082  0.4851
10061SOL    HW148175  11.458  11.758   0.203  1.5399 -0.4659  0.2698
10061SOL    HW248176  11.372  11.754   0.327 -0.1831  0.7215 -0.8505
10062SOL     OW48177   6.832   2.170   3.608  0.0310 -0.5643  0.4350
10062SOL    HW148178   6.893   2.098   3.588 -0.3806 -1.3177  1.7698
10062SOL    HW248179   6.746   2.129   3.607 -0.2755  0.0751  0.5389
10063SOL     OW48180  12.753   8.933   1.731 -0.0958 -0.0583  0.0295
10063SOL    HW148181  12.798   8.899   1.653 -0.0581  3.0775 -1.4972
10063SOL    HW248182  12.694   9.001   1.696  0.3051  1.8368  2.7662
10064SOL     OW48183  13.878   2.328   0.289 -0.3480 -0.4980  0.0791
10064SOL    HW148184  13.946   2.385   0.252 -1.6324  1.3466  0.4123
10064SOL    HW248185  13.926   2.266   0.344  1.2272 -0.6385 -1.3411
10065SOL     OW48186   6.279   7.796   9.849  0.6195 -0.2803 -0.2583
10065SOL    HW148187   6.271   7.857   9.775 -0.9618 -1.1956 -0.8998
10065SOL    HW248188   6.209   7.822   9.909  1.1237 -0.2999  0.3398
10066SOL     OW48189   0.979  10.001   0.426 -0.0901  0.0942 -0.0932
10066SOL    HW148190   0.933   9.983   0.344  0.7582  1.2113 -0.8335
10066SOL    HW248191   1.035   9.925   0.440  1.2531  0.7671 -1.6212
10067SOL     OW48192   2.875   3.912   7.227 -0.2610  0.1750 -0.3644
10067SOL    HW148193   2.892   3.977   7.296 -1.9371 -0.0839  0.3563
10067SOL    HW248194   2.797   3.946   7.182 -0.9513 -1.1239 -0.2055
10068SOL     OW48195   8.912   7.517   9.859 -0.1535 -0.7558  0.0828
10068SOL    HW148196   8.959   7.585   9.811  0.8309 -1.8770 -0.5952
10068SOL    HW248197   8.872   7.462   9.791  0.8971 -2.1164  0.5186
10069SOL     OW48198   8.677   4.740   0.347 -0.6161  0.0411  0.8392
10069SOL    HW148199   8.659   4.755   0.254  2.4534  0.1015  0.1157
10069SOL    HW248200   8.692   4.646   0.353  2.5686  0.3889  0.3965
10070SOL     OW48201  13.850   8.892   1.619 -0.2348  0.0054 -0.3286
10070SOL    HW148202  13.914   8.868   1.552  0.2634 -1.2190  0.5625
10070SOL    HW248203  13.898   8.950   1.678 -0.4572  0.4695 -0.5934
10071SOL     OW48204   9.237  11.193  11.934 -0.7932 -0.3570  0.4872
10071SOL    HW148205   9.226  11.281  11.899 -2.0636 -1.1610 -1.2852
10071SOL    HW248206   9.223  11.203  12.029  0.4038  1.5187  0.4991
10072SOL     OW48207   7.355   0.750   7.150 -0.5854 -0.0999  0.0412
10072SOL    HW148208   7.445   0.720   7.139 -0.6321 -0.4464  0.5408
10072SOL    HW248209   7.360   0.815   7.221 -0.5815  0.6186 -0.6062
10073SOL     OW48210   2.676  13.982   1.239  0.5191 -0.2870  0.3146
10073SOL    HW148211   2.639  13.894   1.250 -1.1441  0.1914 -0.9752
10073SOL    HW248212   2.755  13.968   1.186  0.9260 -1.1013  1.1048
10074SOL     OW48213   1.203   0.957   0.590 -0.4544 -0.4841 -0.6782
10074SOL    HW148214   1.173   0.869   0.612  1.1197 -1.4691 -2.1702
10074SOL    HW248215   1.278   0.972   0.648  0.6215 -1.0493 -1.8869
10075SOL     OW48216   9.007   1.844   1.129 -1.1059  0.9649 -0.3064
10075SOL    HW148217   9.043   1.841   1.041  0.8262  1.0698  0.4428
10075SOL    HW248218   9.067   1.900   1.178 -0.7275 -1.0495  1.6864
10076SOL     OW48219   1.831   2.603  11.982  0.4093 -0.3159  0.2857
10076SOL    HW148220   1.887   2.550  11.925  1.2971 -0.0727  0.9139
10076SOL    HW248221   1.856   2.578  12.070 -0.7351 -0.4537  0.5899
10077SOL     OW48222   4.018  11.070   1.506 -0.0851 -0.1773  0.3508
10077SOL    HW148223   4.073  11.108   1.437 -0.2781  0.0240  0.3098
10077SOL    HW248224   3.968  11.002   1.461 -0.5504  0.2680  0.1979
10078SOL     OW48225   9.058  12.319  12.459  0.5551 -0.6618 -0.1456
10078SOL    HW148226   9.078  12.355  12.545 -0.0446  0.8950 -0.6115
10078SOL    HW248227   9.143  12.303  12.418  0.8623  0.4427  0.0224
10079SOL     OW48228   5.830   5.328   2.885 -0.3931  0.1274  0.0824
10079SOL    HW148229   5.806   5.236   2.891 -0.1681  0.1170  0.9856
10079SOL    HW248230   5.919   5.332   2.920  0.2248  0.4564 -1.4500
10080SOL     OW48231   3.003   8.199   2.043  0.2699 -0.1903  0.1784
10080SOL    HW148232   3.065   8.176   1.975 -1.1597  0.3489 -1.3974
10080SOL    HW248233   3.036   8.281   2.080  0.0921  0.5281 -1.2113
10081SOL     OW48234   4.990   9.338   1.523  0.0887  0.2739  0.0119
10081SOL    HW148235   4.926   9.401   1.556  0.2026 -0.5268  1.8922
10081SOL    HW248236   4.979   9.339   1.428 -0.5847  2.3825  0.0769
10082SOL     OW48237  11.508   6.684   1.182 -0.5038  0.2351  0.2685
10082SOL    HW148238  11.425   6.666   1.226 -0.8116  1.1703  0.0920
10082SOL    HW248239  11.572   6.628   1.226 -1.0697  0.1200  0.9531
10083SOL     OW48240   5.961  14.153   8.607 -0.1322 -0.3364  0.3343
10083SOL    HW148241   5.962  14.058   8.597  0.7484 -0.2710 -0.3335
10083SOL    HW248242   5.983  14.168   8.699 -0.0778 -0.7725  0.3963
10084SOL     OW48243   2.899   8.557   7.287 -0.2154  0.0767  0.3280
10084SOL    HW148244   2.937   8.474   7.313 -1.6676 -0.1164  2.0099
10084SOL    HW248245   2.900   8.610   7.367  0.1784  1.5076 -0.5736
10085SOL     OW48246   7.242   7.146   7.191  0.2615 -0.9465  0.4703
10085SOL    HW148247   7.234   7.202   7.114 -0.5906 -0.5606  0.8269
10085SOL    HW248248   7.306   7.080   7.166  1.4118  0.2756  0.1016
10086SOL     OW48249   0.759   8.966  13.616  0.1989  1.0829  0.1466
10086SOL    HW148250   0.841   9.004  13.646 -0.0794  2.3106 -0.5782
10086SOL    HW248251   0.697   8.981  13.687  0.0370  2.2013 -0.2240
10087SOL     OW48252  12.626   9.367   3.538 -0.0440 -0.1249  0.2230
10087SOL    HW148253  12.716   9.393   3.556  1.0732 -2.9727 -0.5958
10087SOL    HW248254  12.614   9.388   3.445 -0.7330  1.4556  0.6460
10088SOL     OW48255   5.316   5.366   0.942 -0.1313 -0.1368  0.2617
10088SOL    HW148256   5.349   5.444   0.897  3.3070 -0.1623  2.3743
10088SOL    HW248257   5.299   5.395   1.031  0.1062 -1.5419  0.7933
10089SOL     OW48258  12.686   5.957   1.900 -0.3807  0.5273  0.1629
10089SOL    HW148259  12.609   6.013   1.904 -1.2024 -0.6041  0.7981
10089SOL    HW248260  12.651   5.868   1.896  0.8858  0.0251 -0.4798
10090SOL     OW48261  13.837   4.416  10.928  0.1428  0.3429  0.3250
10090SOL    HW148262  13.821   4.370  11.011  1.8367 -1.8118 -0.4625
10090SOL    HW248263  13.805   4.356  10.861  0.6730  1.1570 -0.6815
10091SOL     OW48264   2.582   3.747   4.392 -0.0706  0.3016  0.3295
10091SOL    HW148265   2.630   3.692   4.331 -0.8577 -0.2628  0.2029
10091SOL    HW248266   2.649   3.802   4.433  0.5057  0.4525 -0.7842
10092SOL     OW48267   1.249  13.789  11.757 -0.5949  0.0000  0.0784
10092SOL    HW148268   1.192  13.841  11.813 -0.3852 -1.3816  1.6454
10092SOL    HW248269   1.313  13.853  11.723 -0.5352  0.8439  1.6656
10093SOL     OW48270  10.219  12.228   5.727 -0.2561  0.1322  0.2463
10093SOL    HW148271  10.197  12.135   5.732  0.0905  0.0580  0.4251
10093SOL    HW248272  10.279  12.243   5.800 -1.1130  0.7280  0.8402
10094SOL     OW48273  13.998   8.490   8.806 -0.1822 -0.3111 -0.3564
10094SOL    HW148274  14.054   8.567   8.797 -1.6414  0.8482  0.1255
10094SOL    HW248275  14.008   8.463   8.897 -0.9825  0.3933 -0.0432
10095SOL     OW48276   6.859   2.909   7.296  0.3282  0.0399  0.2734
10095SOL    HW148277   6.765   2.903   7.317  0.3345 -1.7990 -0.1102
10095SOL    HW248278   6.892   2.974   7.358 -0.9302 -0.3718  1.4343
10096SOL     OW48279   3.636   0.171   2.078  0.1540  0.5839 -0.1609
10096SOL    HW148280   3.684   0.090   2.060 -2.1863 -0.6526 -1.3859
10096SOL    HW248281   3.612   0.165   2.170 -0.7855 -0.6550 -0.4489
10097SOL     OW48282   5.017  11.925   8.483 -0.2817  0.1388 -0.1446
10097SOL    HW148283   5.037  11.895   8.572  1.4722  0.9057 -0.2434
10097SOL    HW248284   4.921  11.921   8.478 -0.4135 -0.0772  1.7259
10098SOL     OW48285   1.022  10.134  10.770  0.0123  0.8116  0.1485
10098SOL    HW148286   1.039  10.220  10.732  2.2197  0.9680  1.3452
10098SOL    HW248287   0.960  10.152  10.841 -0.2782  1.2510 -0.2094
10099SOL     OW48288  13.851   2.399   2.975 -0.3565 -0.2275 -0.2160
10099SOL    HW148289  13.869   2.486   3.010  0.5958 -0.5101  0.0421
10099SOL    HW248290  13.877   2.339   3.045 -0.6391 -0.7329 -0.5345
10100SOL     OW48291   2.748   1.264   2.124 -0.1385  0.5347  0.0419
10100SOL    HW148292   2.727   1.344   2.076  1.0130  0.1598 -1.1238
10100SOL    HW248293   2.790   1.295   2.204  1.2116  1.0964 -0.8547
10101SOL     OW48294   3.212  11.094  11.195  0.2544  0.5979  0.0147
10101SOL    HW148295   3.213  11.149  11.273  1.0656 -0.8419  1.0548
10101SOL    HW248296   3.301  11.062  11.186  0.4098  1.4584 -2.0758
10102SOL     OW48297  12.980   7.644   2.774 -0.2841  0.2557  0.2006
10102SOL    HW148298  13.037   7.675   2.703 -0.6232 -0.3292 -0.3328
10102SOL    HW248299  12.934   7.569   2.737  0.6550 -1.0330  1.5096
10103SOL     OW48300  10.512   1.107   9.058 -0.1929 -1.1642 -0.2047
10103SOL    HW148301  10.492   1.071   9.145 -0.7570 -0.4323 -0.0232
10103SOL    HW248302  10.456   1.184   9.051 -2.3263 -2.7841 -2.3810
10104SOL     OW48303   8.817   5.807   8.063  0.0562  0.0861 -0.3744
10104SOL    HW148304   8.814   5.877   8.128  0.7839  1.1624 -1.4672
10104SOL    HW248305   8.829   5.852   7.979  0.9498 -1.3651 -1.0644
10105SOL     OW48306  12.064   5.497   4.141 -0.1362  0.0024  0.3485
10105SOL    HW148307  11.973   5.469   4.154 -0.3722  0.5830 -0.0457
10105SOL    HW248308  12.064   5.541   4.057  0.0237  2.0423  1.3625
10106SOL     OW48309   6.272  12.591  13.019 -0.1676  0.1251 -0.3291
10106SOL    HW148310   6.366  12.599  13.002 -0.1228 -0.1472 -0.2125
10106SOL    HW248311   6.243  12.681  13.038  0.1015  0.1851 -0.2021
10107SOL     OW48312   9.649  12.740  14.156 -0.2860 -0.1879 -0.1880
10107SOL    HW148313   9.626  12.774  14.243 -0.7466 -1.2027  0.0952
10107SOL    HW248314   9.662  12.646  14.169  0.0523 -0.2864 -1.1433
10108SOL     OW48315  12.629  10.958   8.347 -0.0117  0.3644 -0.1106
10108SOL    HW148316  12.720  10.960   8.317 -0.6889  1.6640 -2.3342
10108SOL    HW248317  12.631  11.000   8.433  1.6789 -1.0797  0.6198
10109SOL     OW48318   2.309  10.827  13.920  0.0087 -0.3963 -0.0199
10109SOL    HW148319   2.373  10.792  13.858  0.5067  0.2770  0.1168
10109SOL    HW248320   2.343  10.912  13.945  0.0453 -0.8398  1.5269
10110SOL     OW48321  12.761  11.020   5.322 -0.6742  0.1580 -0.2353
10110SOL    HW148322  12.712  11.040   5.242  1.3993  0.0847 -1.5754
10110SOL    HW248323  12.777  10.925   5.316  0.4780  0.3513 -0.3385
10111SOL     OW48324  10.282  10.153   8.945  0.0479 -0.2174 -0.1386
10111SOL    HW148325  10.321  10.068   8.965 -0.8377 -0.5558  0.2248
10111SOL    HW248326  10.226  10.172   9.020  0.4747  0.8467 -0.0719
10112SOL     OW48327   8.291   9.927  13.868  0.1830 -0.6337  0.2686
10112SOL    HW148328   8.336   9.997  13.916  0.2799 -0.2930 -0.3036
10112SOL    HW248329   8.338   9.921  13.785 -0.1634 -1.0135  0.0972
10113SOL     OW48330   2.266  12.174   7.230  0.2585  0.3439 -0.0220
10113SOL    HW148331   2.201  12.107   7.251 -0.2445  0.1726 -1.9920
10113SOL    HW248332   2.228  12.223   7.158  2.0400  0.6497 -0.8084
10114SOL     OW48333   2.968   8.052   3.596  0.2063 -0.1673 -0.0690
10114SOL    HW148334   2.902   8.110   3.558 -0.0202 -1.1605 -1.2451
10114SOL    HW248335   2.938   8.036   3.686 -0.1984  0.8012 -0.0197
10115SOL     OW48336   2.676   4.051  13.671  0.0608 -0.1432 -0.0478
10115SOL    HW148337   2.601   4.001  13.701  1.0698 -1.0968  1.0013
10115SOL    HW248338   2.704   4.007  13.590  0.0032 -0.3078  0.0237
10116SOL     OW48339   2.670  13.289   3.789  0.6090 -0.0423  0.2453
10116SOL    HW148340   2.594  13.303   3.732  0.4980 -0.4044  0.3019
10116SOL    HW248341   2.659  13.352   3.860  1.1859  1.0011 -0.5649
10117SOL     OW48342   1.581  12.769   2.356  0.2410 -0.5784  0.5167
10117SOL    HW148343   1.622  12.782   2.441  1.4431 -0.4592 -0.0641
10117SOL    HW248344   1.493  12.805   2.366 -0.7082 -3.0769  2.5700
10118SOL     OW48345  13.152  12.369   9.022 -0.0594  0.6027  0.7451
10118SOL    HW148346  13.111  12.345   8.939  0.7821  1.4846  0.0545
10118SOL    HW248347  13.084  12.418   9.069 -1.9210 -3.0876  2.3059
10119SOL     OW48348  12.854   0.756  13.590  0.3665 -0.7417 -0.0902
10119SOL    HW148349  12.917   0.828  13.589 -0.5546  0.1557 -3.3612
10119SOL    HW248350  12.777   0.792  13.634  0.2003  0.0620 -1.0007
10120SOL     OW48351   9.568   8.377   6.036  0.1479  0.2647 -0.6951
10120SOL    HW148352   9.539   8.287   6.019  0.8931  0.0032 -0.6104
10120SOL    HW248353   9.619   8.371   6.117 -1.3838  1.1007  0.3820
10121SOL     OW48354  11.253   1.244  12.093 -0.1756  0.1888 -0.2432
10121SOL    HW148355  11.228   1.166  12.142  0.3896  0.4112  0.4095
10121SOL    HW248356  11.197   1.242  12.015 -0.6405 -0.5030  0.0974
10122SOL     OW48357   0.717  11.502  11.345 -0.0997 -0.5046  0.2775
10122SOL    HW148358   0.723  11.437  11.415 -1.9085 -1.2973 -0.2626
10122SOL    HW248359   0.689  11.453  11.268  0.9313  0.5221 -0.7873
10123SOL     OW48360   4.029  11.948   2.109 -0.7882 -0.3060  0.6177
10123SOL    HW148361   3.961  11.951   2.041 -1.0330 -3.3374  0.6130
10123SOL    HW248362   3.990  11.896   2.179  0.4803  0.4641  1.9342
10124SOL     OW48363   1.455   2.731  10.164 -0.2456  0.3199  0.2689
10124SOL    HW148364   1.418   2.644  10.147 -0.5879  0.5816 -0.3278
10124SOL    HW248365   1.416   2.757  10.247  1.3625 -0.9188  1.4875
10125SOL     OW48366  13.115  13.841   1.303  0.0950  0.3222  0.1628
10125SOL    HW148367  13.205  13.821   1.280  1.1232  0.8624  3.2482
10125SOL    HW248368  13.080  13.759   1.339 -1.1742 -0.2570 -2.1467
10126SOL     OW48369   3.128  11.706   7.494 -0.1747 -0.1327  0.0624
10126SOL    HW148370   3.105  11.756   7.573 -0.7133  1.0736 -0.8205
10126SOL    HW248371   3.043  11.684   7.455  0.0706 -1.4050  0.2146
10127SOL     OW48372   7.865  10.914   3.461 -0.0462  0.1424 -0.2228
10127SOL    HW148373   7.896  10.915   3.552 -2.4621 -0.3906  0.6872
10127SOL    HW248374   7.782  10.962   3.463 -2.2705 -3.2261 -1.2123
10128SOL     OW48375   7.295  12.447   8.307 -0.1963 -0.0480 -0.2065
10128SOL    HW148376   7.292  12.352   8.315  0.3302 -0.0779 -0.3250
10128SOL    HW248377   7.319  12.478   8.394 -0.8058  0.0076 -0.0525
10129SOL     OW48378   9.027   2.803  13.455  0.4781 -0.0299  0.4063
10129SOL    HW148379   9.016   2.856  13.534 -0.4725 -2.8202  2.3010
10129SOL    HW248380   8.939   2.772  13.435  0.7472  0.4611 -1.6904
10130SOL     OW48381   1.320   4.089   8.279  0.0511  0.3089 -0.2402
10130SOL    HW148382   1.383   4.121   8.344  0.2365  0.4900 -0.5050
10130SOL    HW248383   1.266   4.166   8.259  0.2381  0.3550 -0.5795
10131SOL     OW48384   7.821  12.568  11.386  0.4288 -0.5157 -0.3154
10131SOL    HW148385   7.799  12.570  11.293  1.3408  0.4469 -0.5323
10131SOL    HW248386   7.748  12.611  11.430 -0.1079 -1.1698 -0.5509
10132SOL     OW48387   2.238  10.119  13.342 -0.4375 -0.0067 -0.0286
10132SOL    HW148388   2.160  10.174  13.329 -0.6797 -0.0218  1.1719
10132SOL    HW248389   2.302  10.178  13.382  0.7531  0.4052 -2.3753
10133SOL     OW48390  10.276   6.541  12.126 -0.1484 -0.0832  0.1981
10133SOL    HW148391  10.240   6.565  12.040 -0.1878 -0.7331  0.0324
10133SOL    HW248392  10.229   6.597  12.187 -0.5923 -0.0810 -0.1376
10134SOL     OW48393  11.010   6.020   9.637  0.6856  0.5537 -0.0258
10134SOL    HW148394  10.962   6.092   9.596  0.3502  0.4747  0.2186
10134SOL    HW248395  11.014   5.952   9.570 -0.2835  0.2376  0.2297
10135SOL     OW48396  10.072  13.201  10.918  0.1560  0.2964 -0.0383
10135SOL    HW148397  10.010  13.142  10.961 -0.9189  1.2545 -0.2327
10135SOL    HW248398  10.141  13.214  10.983  0.7486 -1.6664 -0.2270
10136SOL     OW48399   0.035   8.734   5.117 -0.0654 -0.1934  0.1717
10136SOL    HW148400   0.038   8.639   5.126 -1.2585 -0.2857 -0.2030
10136SOL    HW248401   0.072   8.768   5.199 -2.2343 -0.9879  1.5641
10137SOL     OW48402   0.329  12.299   9.248 -0.0690  0.3156 -0.5239
10137SOL    HW148403   0.401  12.243   9.220 -1.1732 -1.2743 -0.3449
10137SOL    HW248404   0.363  12.345   9.325  1.3327  0.9938 -1.5070
10138SOL     OW48405  12.827   6.919   4.913 -0.2391  0.0972  0.3264
10138SOL    HW148406  12.920   6.943   4.904  0.3739 -1.5922  1.6372
10138SOL    HW248407  12.812   6.915   5.008 -1.5721  0.0026  0.1319
10139SOL     OW48408   0.292   5.428  13.697  0.1237 -0.1745 -0.0641
10139SOL    HW148409   0.353   5.488  13.741 -0.4461 -0.2999  0.9354
10139SOL    HW248410   0.270   5.471  13.615  0.3936  0.5787  0.2507
10140SOL     OW48411   3.067   2.739  10.771  0.4273  0.0583  0.0718
10140SOL    HW148412   3.085   2.768  10.682  0.2134  2.2340  0.6779
10140SOL    HW248413   3.134   2.782  10.824 -1.0615  1.0245  1.2558
10141SOL     OW48414  13.058  10.816  12.460  0.2575 -0.1362 -0.5205
10141SOL    HW148415  12.987  10.777  12.410  2.2897 -1.2003 -2.7677
10141SOL    HW248416  13.137  10.771  12.429  1.9123  0.7788  2.0536
10142SOL     OW48417   3.314   9.692   6.047 -0.2571 -0.1560  0.0460
10142SOL    HW148418   3.351   9.662   5.965 -0.5615  2.1954 -1.0340
10142SOL    HW248419   3.369   9.767   6.073 -1.7346  0.8085  0.5496
10143SOL     OW48420   7.767   5.782   8.014 -0.6824  0.2443  0.5986
10143SOL    HW148421   7.689   5.833   8.035 -1.4571 -0.6907  0.1217
10143SOL    HW248422   7.748   5.694   8.047  0.2796  0.0656  0.7022
10144SOL     OW48423   6.680   1.463   1.083 -0.3204  0.2250  0.7129
10144SOL    HW148424   6.592   1.425   1.085 -0.5091  0.6415  0.5601
10144SOL    HW248425   6.719   1.428   1.003 -1.3594  2.2024 -0.7386
10145SOL     OW48426  10.431  10.481   1.287  0.4659 -0.4132  0.1219
10145SOL    HW148427  10.504  10.543   1.290 -0.2286  0.4123  0.3308
10145SOL    HW248428  10.460  10.407   1.340  1.7553 -0.7919 -1.0459
10146SOL     OW48429  12.654  11.871   9.256  0.3960 -0.3610  0.4379
10146SOL    HW148430  12.572  11.909   9.287  0.0035 -1.0810  0.2968
10146SOL    HW248431  12.668  11.913   9.171  0.8557  0.7209  1.0222
10147SOL     OW48432   4.508   7.729   9.350 -0.3964  0.2888  0.1214
10147SOL    HW148433   4.423   7.769   9.369  0.0593  1.1605  0.3499
10147SOL    HW248434   4.551   7.722   9.435 -0.1905 -0.0535 -0.0086
10148SOL     OW48435   0.324   6.122  11.639  0.1208  0.3533  0.0304
10148SOL    HW148436   0.394   6.061  11.661  0.0868  0.3420  0.1072
10148SOL    HW248437   0.342   6.148  11.548  0.6295  0.8995  0.2821
10149SOL     OW48438  13.921   1.998   8.470  0.1148  0.0351  0.6695
10149SOL    HW148439  13.936   1.965   8.382  0.5470  0.4804  0.5685
10149SOL    HW248440  13.999   1.972   8.519 -0.0863 -0.1398  0.8983
10150SOL     OW48441  10.415   4.638   4.838  0.2503  0.1021  0.1970
10150SOL    HW148442  10.474   4.575   4.880  0.0640 -1.0763 -1.1985
10150SOL    HW248443  10.449   4.646   4.749 -1.3286 -0.1593 -0.4642
10151SOL     OW48444   7.855  11.556   6.372 -0.0071  0.8727 -0.1827
10151SOL    HW148445   7.910  11.597   6.305  1.2158  2.0808  1.4720
10151SOL    HW248446   7.859  11.617   6.445 -1.1411 -0.5014  1.0594
10152SOL     OW48447   4.480   6.041   7.882 -0.2359 -0.1446  0.2891
10152SOL    HW148448   4.531   6.114   7.916  0.7156 -0.3349 -0.6787
10152SOL    HW248449   4.427   6.079   7.811 -0.7559 -0.1360  0.6740
10153SOL     OW48450   6.168   3.514  11.893  0.5425  0.3664 -0.4562
10153SOL    HW148451   6.100   3.534  11.958  0.6462  2.2558 -0.8968
10153SOL    HW248452   6.210   3.434  11.927 -0.5816  0.2894  0.8479
10154SOL     OW48453   1.436   7.650   0.809  0.3824 -0.2122 -0.3547
10154SOL    HW148454   1.403   7.712   0.744 -0.1732  0.3156  0.4079
10154SOL    HW248455   1.408   7.687   0.893  1.4536 -0.6591  0.2116
10155SOL     OW48456  12.914   4.172   9.411  0.2867 -0.1274  0.0598
10155SOL    HW148457  12.919   4.253   9.463  1.7614  0.2640 -0.6269
10155SOL    HW248458  12.886   4.105   9.473  0.5176  0.6289  1.0054
10156SOL     OW48459   0.723   2.522  11.431 -0.1693 -0.3576 -0.4566
10156SOL    HW148460   0.678   2.561  11.357 -0.7142 -0.1187 -0.0103
10156SOL    HW248461   0.780   2.591  11.464  1.0131 -0.8510 -1.3961
10157SOL     OW48462   7.054  13.223  12.413 -0.2713 -0.0549  0.0714
10157SOL    HW148463   7.052  13.139  12.368  0.1314 -0.1147  0.1698
10157SOL    HW248464   6.964  13.235  12.444 -0.6502  0.1484 -1.0409
10158SOL     OW48465   0.254   8.631  11.675 -0.1748 -0.6442 -0.4428
10158SOL    HW148466   0.349   8.620  11.670 -0.2702 -1.5912 -0.3839
10158SOL    HW248467   0.242   8.716  11.717  0.6279  0.2698 -1.9991
10159SOL     OW48468   7.788  10.210  11.050  0.5195 -0.0421  0.6938
10159SOL    HW148469   7.739  10.288  11.025 -0.3455  0.0676  2.5377
10159SOL    HW248470   7.879  10.230  11.026 -0.0526  0.4094 -1.2760
10160SOL     OW48471   9.989   9.099   5.923 -0.5101 -0.0312 -0.1644
10160SOL    HW148472   9.940   9.018   5.907 -1.0781 -0.0229  1.3832
10160SOL    HW248473  10.069   9.089   5.870 -0.6098 -1.5640 -0.0868
10161SOL     OW48474   8.216   8.203   7.711  0.3355 -0.0038  0.4775
10161SOL    HW148475   8.136   8.152   7.729  0.5082 -1.0243 -1.3214
10161SOL    HW248476   8.287   8.145   7.738  0.5140 -0.5385 -1.0040
10162SOL     OW48477  10.283   9.318   6.824 -0.3561  0.3750  0.0317
10162SOL    HW148478  10.218   9.251   6.806  1.6373 -1.4020 -1.0362
10162SOL    HW248479  10.301   9.310   6.918 -2.7521  2.0465  0.7428
10163SOL     OW48480  12.134   2.164   5.718  0.3417 -0.0283  0.3931
10163SOL    HW148481  12.097   2.082   5.685 -1.8777  1.2822 -0.6393
10163SOL    HW248482  12.082   2.184   5.796 -0.1276  1.0984 -0.1894
10164SOL     OW48483   1.985  12.468   7.574  0.0218 -0.0476  0.6365
10164SOL    HW148484   1.975  12.550   7.622 -2.2129 -1.0351  2.0408
10164SOL    HW248485   2.077  12.466   7.547  0.7167  1.7737  2.6293
10165SOL     OW48486   7.279  13.896  10.180  0.1624  0.2346 -0.1045
10165SOL    HW148487   7.253  13.921  10.091  0.3545 -3.3701 -1.3422
10165SOL    HW248488   7.229  13.817  10.198 -0.9487  1.5738  3.6890
10166SOL     OW48489   4.754   2.762   0.850 -0.4852  0.1541 -1.0006
10166SOL    HW148490   4.792   2.676   0.832 -0.7918  0.1693 -1.7789
10166SOL    HW248491   4.705   2.750   0.931 -0.0553 -0.2547 -0.7987
10167SOL     OW48492   8.355   3.977   6.729  0.2306 -0.5543 -0.7658
10167SOL    HW148493   8.436   3.983   6.678 -0.4627  0.9839 -1.7365
10167SOL    HW248494   8.290   3.944   6.667  0.0085 -1.4487 -0.0799
10168SOL     OW48495   4.727  13.671  10.782 -0.2940  0.1431 -0.1293
10168SOL    HW148496   4.778  13.611  10.729  0.4594  0.8292 -0.2013
10168SOL    HW248497   4.734  13.636  10.871 -1.0887 -0.6884 -0.3828
10169SOL     OW48498  12.275  10.197   4.739 -0.3648  0.0612 -0.1517
10169SOL    HW148499  12.339  10.147   4.790 -0.6976  1.3329  1.5741
10169SOL    HW248500  12.235  10.257   4.801 -1.6077  0.9173 -1.6886
10170SOL     OW48501   5.219  11.354  11.738  0.3128  0.3914  0.1208
10170SOL    HW148502   5.241  11.433  11.688  0.2422 -0.2473 -0.9633
10170SOL    HW248503   5.140  11.377  11.787 -0.5632  0.5705 -1.3133
10171SOL     OW48504   3.843   3.483   1.463 -0.0058 -0.2301  0.2392
10171SOL    HW148505   3.821   3.472   1.370 -1.7005  0.6059  0.5176
10171SOL    HW248506   3.938   3.494   1.463 -0.0437  0.4109 -1.4633
10172SOL     OW48507   3.379   3.046  13.678 -0.4819  0.0585 -0.3340
10172SOL    HW148508   3.441   3.068  13.609  0.5022  0.5980  0.6749
10172SOL    HW248509   3.408   3.097  13.754 -1.2955 -0.7858  0.5918
10173SOL     OW48510   6.524   6.335   3.901  0.2670 -0.0224  0.2988
10173SOL    HW148511   6.533   6.275   3.976  2.1379 -1.5969 -1.0664
10173SOL    HW248512   6.570   6.290   3.830  1.0172  2.6968 -1.0497
10174SOL     OW48513  12.171  10.688   8.150  0.2625  0.1523 -0.1162
10174SOL    HW148514  12.182  10.597   8.178 -0.5421  0.5293  1.5928
10174SOL    HW248515  12.241  10.703   8.087 -0.0293 -1.8500 -0.9832
10175SOL     OW48516   7.062   4.605   6.693 -0.7991 -0.0270  0.0198
10175SOL    HW148517   7.033   4.563   6.775 -2.2072  0.5303 -0.1648
10175SOL    HW248518   7.138   4.657   6.719  0.6310 -2.1668  0.3680
10176SOL     OW48519   1.000   1.824   5.561  0.0260  0.7195  0.0459
10176SOL    HW148520   0.971   1.754   5.503 -0.2128  0.5312  0.3839
10176SOL    HW248521   0.989   1.788   5.649  1.2571  0.6557  0.1943
10177SOL     OW48522   8.593   4.121   5.559  0.2051  0.3632 -0.7481
10177SOL    HW148523   8.635   4.202   5.589  2.2530 -0.8131 -0.2774
10177SOL    HW248524   8.614   4.116   5.466 -1.2159  1.0834 -1.1420
10178SOL     OW48525   5.944   9.775   0.090 -0.6196 -0.1981 -0.0085
10178SOL    HW148526   5.950   9.730   0.006  0.9518 -0.7172  0.3309
10178SOL    HW248527   6.020   9.742   0.139 -0.3752  1.5763  0.8739
10179SOL     OW48528   9.234   0.684   2.204  0.0350 -0.1641 -0.1585
10179SOL    HW148529   9.296   0.734   2.152 -0.1915  0.7264  0.4119
10179SOL    HW248530   9.150   0.728   2.191 -0.0903 -0.1444  0.6606
10180SOL     OW48531   4.852   9.860   9.746  0.7053 -0.0279  0.0876
10180SOL    HW148532   4.806   9.777   9.754  1.4412 -0.7164 -2.0581
10180SOL    HW248533   4.914   9.846   9.674  1.3217  2.1767  0.1154
10181SOL     OW48534   7.473   5.159   3.306  0.2049 -0.3124  0.5662
10181SOL    HW148535   7.510   5.246   3.289  0.4812 -0.5215  0.0589
10181SOL    HW248536   7.412   5.146   3.234  0.9447 -0.9718  0.0431
10182SOL     OW48537   5.367   0.814   0.043  0.6428  0.2573  0.3527
10182SOL    HW148538   5.394   0.729   0.077  0.5795 -0.2272 -0.7811
10182SOL    HW248539   5.368   0.804  -0.052 -0.4130  1.2020  0.2238
10183SOL     OW48540  10.559  10.446   7.382  0.3860 -0.2229 -0.1715
10183SOL    HW148541  10.488  10.419   7.440  0.5793 -1.0644 -0.3111
10183SOL    HW248542  10.519  10.450   7.296  0.3672 -0.1207 -0.1578
10184SOL     OW48543   7.472   4.102  10.798 -0.4841  0.3483  0.5668
10184SOL    HW148544   7.506   4.029  10.851  1.3875  1.3757  0.8888
10184SOL    HW248545   7.516   4.092  10.713 -0.6817  0.7492  0.4177
10185SOL     OW48546   1.379   6.539   4.167 -0.1501 -0.5489 -0.3161
10185SOL    HW148547   1.352   6.495   4.086 -0.5827 -0.7775 -0.0506
10185SOL    HW248548   1.297   6.562   4.210  0.0797 -0.9766  0.3595
10186SOL     OW48549  13.919   5.183   6.580  0.2343 -0.2918 -0.2179
10186SOL    HW148550  13.844   5.162   6.524  0.4057  0.1141 -0.6076
10186SOL    HW248551  13.918   5.278   6.586  1.0559 -0.2450 -0.7093
10187SOL     OW48552   1.821   6.003  13.367  0.2774  0.9066  0.5782
10187SOL    HW148553   1.796   6.094  13.349  0.4440  0.7732 -0.3419
10187SOL    HW248554   1.899   5.989  13.315  1.2280  0.7386  2.0055
10188SOL     OW48555   5.228   1.667   5.959  0.3258  0.5875 -0.2631
10188SOL    HW148556   5.296   1.640   6.021 -1.3785  1.5252  2.1446
10188SOL    HW248557   5.254   1.626   5.877  1.2870 -3.0869  1.6428
10189SOL     OW48558   6.512  12.061   4.831  0.0894  0.3061  0.2793
10189SOL    HW148559   6.539  12.006   4.904 -0.5136 -0.7484 -0.2735
10189SOL    HW248560   6.594  12.084   4.787  0.2881 -0.9922 -0.0652
10190SOL     OW48561  12.084  10.016   0.183  0.1286  0.9548  0.6277
10190SOL    HW148562  12.121  10.054   0.263  0.3553  0.3377  0.8218
10190SOL    HW248563  12.014   9.959   0.214  1.4556 -0.7855  0.5626
10191SOL     OW48564  11.492  14.010   7.813 -0.5501  0.2441  0.1818
10191SOL    HW148565  11.433  14.003   7.888  0.7655  0.4822  1.2871
10191SOL    HW248566  11.469  14.093   7.771 -0.8347  0.4499  0.7394
10192SOL     OW48567   7.786   9.777  10.323  0.1059  0.2326 -0.0558
10192SOL    HW148568   7.803   9.845  10.258 -1.1559  0.1193 -0.5356
10192SOL    HW248569   7.820   9.812  10.405  2.6837 -0.0467 -0.9270
10193SOL     OW48570   3.197   0.510   7.384  0.1916  0.2283 -0.2411
10193SOL    HW148571   3.267   0.564   7.349 -0.3529  0.1731 -1.4561
10193SOL    HW248572   3.163   0.461   7.309 -0.2111 -0.8090  0.5846
10194SOL     OW48573   7.356   6.673   5.959 -0.5486 -0.1867  0.0552
10194SOL    HW148574   7.411   6.646   6.032 -0.4933 -0.6113 -0.1433
10194SOL    HW248575   7.372   6.767   5.950  1.9430 -0.6741 -1.5005
10195SOL     OW48576  11.748   8.512  12.334 -0.1945  0.2869 -0.2142
10195SOL    HW148577  11.658   8.490  12.354  0.1710  0.3124  1.6113
10195SOL    HW248578  11.792   8.517  12.419  1.6545 -0.2347 -1.0714
10196SOL     OW48579  13.639   3.930   4.913 -0.3511 -0.1345 -0.0598
10196SOL    HW148580  13.561   3.985   4.922  0.0912  0.1505  2.8241
10196SOL    HW248581  13.610   3.856   4.860 -2.4884  0.1572  0.6122
10197SOL     OW48582  10.132  14.128  11.637  0.4242  0.1000  0.2674
10197SOL    HW148583  10.183  14.198  11.676 -0.6306  1.6075 -0.9568
10197SOL    HW248584  10.196  14.058  11.620  1.9641  1.6323 -0.5487
10198SOL     OW48585   3.744   7.234   0.555 -0.1975 -0.2086  0.2649
10198SOL    HW148586   3.654   7.252   0.528 -0.4964 -0.2281  1.1788
10198SOL    HW248587   3.734   7.180   0.634  0.6363 -1.8735 -0.7179
10199SOL     OW48588   4.730   3.890   5.682 -0.0327  0.2985  0.3041
10199SOL    HW148589   4.703   3.981   5.687  0.2634  0.4655 -0.8981
10199SOL    HW248590   4.721   3.867   5.590  0.7284 -0.6277  0.4401
10200SOL     OW48591   5.284   9.332  10.400  0.4159 -0.0836  0.5448
10200SOL    HW148592   5.301   9.350  10.308 -1.5388 -0.0667  0.1429
10200SOL    HW248593   5.361   9.286  10.431  0.6171 -1.1308 -1.4110
10201SOL     OW48594   6.502  10.723  13.952  0.3154 -0.4971  0.0954
10201SOL    HW148595   6.507  10.769  14.036  0.8938 -0.1747 -0.1111
10201SOL    HW248596   6.453  10.643  13.971  0.7650 -0.6064  0.8213
10202SOL     OW48597  13.458   0.793   4.391 -0.0068  0.7333  0.3536
10202SOL    HW148598  13.364   0.807   4.403  0.0403  0.0544  1.7586
10202SOL    HW248599  13.472   0.798   4.297 -1.7642 -0.9952 -0.0498
10203SOL     OW48600   7.632  10.547  13.184  0.4036 -0.5969 -0.1280
10203SOL    HW148601   7.621  10.460  13.223  1.0415 -1.5995 -2.0607
10203SOL    HW248602   7.543  10.575  13.163  0.2197 -0.9795  0.1316
10204SOL     OW48603   5.090   2.613  10.657 -0.0444  0.5775 -0.2797
10204SOL    HW148604   5.170   2.664  10.647  0.8542 -0.3659  1.6206
10204SOL    HW248605   5.059   2.633  10.746 -0.7436 -0.6833 -0.2087
10205SOL     OW48606   6.133   0.470   0.276 -0.2586  0.2245  0.6176
10205SOL    HW148607   6.108   0.394   0.223 -0.8031  0.6232  0.2860
10205SOL    HW248608   6.221   0.450   0.307  0.6376  0.5409 -1.5536
10206SOL     OW48609   8.654   4.472   4.781  0.1022  0.4770 -0.4574
10206SOL    HW148610   8.670   4.517   4.698 -2.0349  1.2338 -0.5322
10206SOL    HW248611   8.585   4.524   4.824 -0.6136 -1.2796  0.6423
10207SOL     OW48612   5.316   2.881   5.271 -0.0203  0.0820 -0.3119
10207SOL    HW148613   5.386   2.928   5.225  0.4380  0.0154  0.3144
10207SOL    HW248614   5.238   2.897   5.218  0.1524  1.4369 -0.1852
10208SOL     OW48615  13.862   4.372   9.118 -0.2841  0.0961  0.1110
10208SOL    HW148616  13.805   4.306   9.157  0.6989 -0.4338  0.6749
10208SOL    HW248617  13.950   4.345   9.142  0.3655 -0.0642 -2.1715
10209SOL     OW48618   0.590  12.626  12.805 -0.5062 -0.3420 -0.0129
10209SOL    HW148619   0.516  12.685  12.822 -0.9834  0.3422 -3.5988
10209SOL    HW248620   0.554  12.539  12.822 -1.1081  0.1417  1.3436
10210SOL     OW48621   3.382  11.706   1.023  0.8387 -0.1175  0.0521
10210SOL    HW148622   3.421  11.775   0.971  0.1599  0.7921  0.7133
10210SOL    HW248623   3.410  11.625   0.981  0.1708  0.5743 -1.8250
10211SOL     OW48624   2.400  10.442   2.257  0.4958 -0.0433 -0.6948
10211SOL    HW148625   2.329  10.416   2.315  0.1176 -0.6508 -1.4074
10211SOL    HW248626   2.386  10.535   2.241  1.2353  0.4040  1.0339
10212SOL     OW48627   7.514   9.078   1.320  0.7002 -0.0481  0.0873
10212SOL    HW148628   7.454   9.063   1.247 -1.2311  2.2701  1.0487
10212SOL    HW248629   7.531   8.991   1.355  0.6506 -1.0946 -2.2901
10213SOL     OW48630   8.450   5.725  10.853  0.2279  0.3978 -0.0584
10213SOL    HW148631   8.499   5.672  10.917  1.0428 -0.0894 -1.0501
10213SOL    HW248632   8.358   5.706  10.872  0.4536  0.2265  0.9335
10214SOL     OW48633   0.151  12.896  12.623  0.6119  0.2857 -0.3701
10214SOL    HW148634   0.209  12.961  12.583  2.8099 -0.8630  0.7638
10214SOL    HW248635   0.200  12.814  12.619 -1.1567 -0.8635  0.2456
10215SOL     OW48636   7.480   2.278   9.153  0.3679 -0.3518  0.2546
10215SOL    HW148637   7.388   2.286   9.128  0.6291  0.6595 -0.4398
10215SOL    HW248638   7.502   2.186   9.138 -0.5770 -0.6408  0.6125
10216SOL     OW48639  11.504   2.104   3.771 -0.2230 -0.9994  0.1705
10216SOL    HW148640  11.559   2.165   3.722 -0.3609 -0.5573  0.5504
10216SOL    HW248641  11.507   2.137   3.861 -2.2468 -0.1139 -0.0338
10217SOL     OW48642  10.449   3.474   0.855  0.8530 -0.3246 -0.0020
10217SOL    HW148643  10.410   3.406   0.912  0.2360 -0.4588 -0.5716
10217SOL    HW248644  10.500   3.425   0.791  1.1132 -0.1971  0.1035
10218SOL     OW48645   7.958   6.063   7.041  0.2923 -0.4284  0.2695
10218SOL    HW148646   7.936   6.150   7.074 -1.8168 -0.7370 -0.1925
10218SOL    HW248647   8.053   6.066   7.026  0.3727  1.5377  0.9187
10219SOL     OW48648   8.098  14.023  10.032 -0.2755  0.0017  0.5898
10219SOL    HW148649   8.183  14.048  10.066  0.1613 -0.0965 -0.3940
10219SOL    HW248650   8.086  13.933  10.062 -0.5806  0.4155  1.7367
10220SOL     OW48651  11.560  11.219  10.663 -0.4736 -0.0213  0.4806
10220SOL    HW148652  11.587  11.282  10.596 -0.2896 -0.0841  0.4975
10220SOL    HW248653  11.472  11.248  10.689  0.1456  1.0351  1.4785
10221SOL     OW48654  10.035   8.249   2.638 -0.2850 -0.3318 -0.4112
10221SOL    HW148655   9.985   8.330   2.641  0.5017  0.3662 -3.2779
10221SOL    HW248656  10.113   8.270   2.586  0.3835 -2.6925 -0.5188
10222SOL     OW48657   1.939  10.094   3.072 -0.4294  0.2347  0.2812
10222SOL    HW148658   1.844  10.082   3.063 -0.0310 -3.6820 -0.2488
10222SOL    HW248659   1.960  10.059   3.158  0.6135  0.7464  0.2559
10223SOL     OW48660   7.950   5.137  13.227  0.1335 -0.1620  0.3222
10223SOL    HW148661   7.988   5.068  13.172 -0.0605 -0.1033  0.1153
10223SOL    HW248662   8.023   5.166  13.282  0.6981  0.7085 -0.8219
10224SOL     OW48663  13.584  11.689   7.825 -0.0169 -0.0266 -0.4818
10224SOL    HW148664  13.514  11.638   7.866  0.0143 -1.2121 -1.8407
10224SOL    HW248665  13.556  11.780   7.835  0.0545 -0.2136  2.2368
10225SOL     OW48666   0.072   1.760   6.089  0.0683 -0.2971  0.1821
10225SOL    HW148667   0.093   1.775   6.181 -0.6422 -1.3801  0.5383
10225SOL    HW248668   0.005   1.692   6.090 -1.2986  0.9568 -1.0384
10226SOL     OW48669   9.904   8.848   6.748 -0.0157 -0.2358 -0.0925
10226SOL    HW148670   9.840   8.816   6.811  1.5667 -0.2575  1.5995
10226SOL    HW248671   9.985   8.802   6.770  0.6745 -0.0196 -1.9788
10227SOL     OW48672   8.188  10.723  11.890  0.3037 -0.4368  0.1201
10227SOL    HW148673   8.194  10.679  11.805 -0.1707 -1.2471  0.4938
10227SOL    HW248674   8.253  10.793  11.886  0.0034 -0.2060 -1.0654
10228SOL     OW48675   8.498   1.814   9.253 -0.3533  0.0181 -0.6462
10228SOL    HW148676   8.561   1.765   9.306 -0.4313 -1.1946 -1.6339
10228SOL    HW248677   8.553   1.862   9.190 -0.3257  0.4582 -0.2899
10229SOL     OW48678  12.033   0.984   8.795  0.7224  0.0720  0.4146
10229SOL    HW148679  11.954   0.937   8.767  0.6405  0.2696  0.3121
10229SOL    HW248680  12.096   0.967   8.725  1.2479 -1.2766  1.1669
10230SOL     OW48681   7.508  12.158  13.287 -0.1062 -0.5598 -0.1581
10230SOL    HW148682   7.470  12.087  13.339 -1.8802  0.4375 -0.0051
10230SOL    HW248683   7.484  12.137  13.197 -1.6095  0.3567 -0.0073
10231SOL     OW48684  13.862   6.018   4.467 -0.2862  0.4578  0.4622
10231SOL    HW148685  13.769   6.002   4.454 -0.8544  1.1310  3.1275
10231SOL    HW248686  13.894   5.940   4.513 -0.0054  1.0657  1.3228
10232SOL     OW48687   0.171   3.791   0.968 -0.3681  0.0435  0.3026
10232SOL    HW148688   0.174   3.789   0.872 -0.4964 -0.6869  0.3047
10232SOL    HW248689   0.167   3.884   0.991 -1.6256  0.1880 -0.4446
10233SOL     OW48690   8.788  13.201  14.104  0.0701  0.1643  0.2068
10233SOL    HW148691   8.763  13.108  14.109  0.6747  0.0323  1.1024
10233SOL    HW248692   8.884  13.199  14.104  0.1160  0.8274  1.7269
10234SOL     OW48693   1.023  13.104   5.870 -0.2057 -0.2656  0.2338
10234SOL    HW148694   0.940  13.129   5.911 -0.1458  0.9841 -0.3620
10234SOL    HW248695   1.023  13.008   5.873 -1.5785 -0.2838  0.4093
10235SOL     OW48696   7.275  11.379  12.356 -0.3352  0.0753  0.1867
10235SOL    HW148697   7.279  11.326  12.436  0.8536 -1.0724 -0.5898
10235SOL    HW248698   7.351  11.350  12.305 -0.6105  1.3711 -1.0033
10236SOL     OW48699   3.113   7.679   0.169 -0.0448  0.0023  0.5491
10236SOL    HW148700   3.151   7.757   0.207 -0.3577  0.0727  0.7241
10236SOL    HW248701   3.152   7.672   0.082  0.0763  0.2808  0.5826
10237SOL     OW48702  10.275   3.425   3.011 -0.0900 -0.2439 -0.0545
10237SOL    HW148703  10.349   3.418   3.072 -0.9460  0.0288  1.0472
10237SOL    HW248704  10.314   3.414   2.925  1.0591 -1.3499  0.5729
10238SOL     OW48705   1.991  10.077  10.780  0.3812  0.1502  0.2142
10238SOL    HW148706   2.004  10.168  10.807 -0.2364 -0.2112  1.8452
10238SOL    HW248707   2.065  10.059  10.722  1.1843  1.3297  0.8217
10239SOL     OW48708  12.227   5.086   6.341  0.2080 -0.2196 -0.1699
10239SOL    HW148709  12.294   5.071   6.274  0.6999 -0.3273  0.3445
10239SOL    HW248710  12.240   5.016   6.405 -0.5302 -0.3651 -0.1627
10240SOL     OW48711   0.841  11.654   0.316  0.0029  0.3654  0.5447
10240SOL    HW148712   0.837  11.633   0.409  1.6095 -0.4965  0.4500
10240SOL    HW248713   0.751  11.674   0.292 -0.5409 -0.0528  2.1348
10241SOL     OW48714  10.962   9.457   5.216 -0.2069  0.1261 -0.2096
10241SOL    HW148715  10.907   9.517   5.166  0.6739  1.3253  0.2178
10241SOL    HW248716  10.916   9.373   5.212 -1.4054  0.7929 -0.9207
10242SOL     OW48717   4.572   1.820  11.920  0.4942 -0.2058 -0.1522
10242SOL    HW148718   4.601   1.747  11.864 -1.2837 -0.3632 -0.9218
10242SOL    HW248719   4.479   1.803  11.934 -0.1190  2.2367 -0.8601
10243SOL     OW48720   6.366  10.471   5.342  0.0890  0.0732  0.2205
10243SOL    HW148721   6.361  10.472   5.438 -0.6315  0.4167  0.1833
10243SOL    HW248722   6.421  10.396   5.322  1.0634  0.5617  0.9371
10244SOL     OW48723   7.764  10.033   8.259  0.4075 -0.0694  0.0131
10244SOL    HW148724   7.843  10.085   8.273  1.8903 -2.7439  2.9045
10244SOL    HW248725   7.795   9.943   8.256 -2.3181 -1.0634 -1.6252
10245SOL     OW48726   8.975   8.666   3.814  0.4337  0.1680  0.1117
10245SOL    HW148727   8.970   8.743   3.757  1.9189  0.5331  0.4225
10245SOL    HW248728   9.069   8.657   3.833  0.2476 -1.5396  0.3429
10246SOL     OW48729   3.092  13.220   6.717  0.4415  0.2110 -0.1746
10246SOL    HW148730   3.125  13.309   6.730  0.6884  0.5362 -2.6284
10246SOL    HW248731   3.116  13.198   6.627  1.0990 -2.6741  0.5866
10247SOL     OW48732  10.980   8.053  11.496  0.8798 -0.0046 -0.7183
10247SOL    HW148733  10.990   7.971  11.447  1.6276 -0.9025  0.8392
10247SOL    HW248734  11.069   8.079  11.519  0.5540  0.2035  0.4080
10248SOL     OW48735   0.527  13.016   2.728  0.3926  0.8759  0.1792
10248SOL    HW148736   0.518  13.015   2.823 -1.9621  0.8800  0.0208
10248SOL    HW248737   0.567  13.101   2.709 -0.7088  1.6234  1.0890
10249SOL     OW48738  11.857   4.859  13.157 -0.2996 -0.5891  0.2180
10249SOL    HW148739  11.819   4.839  13.072  1.1017 -0.1476 -0.5362
10249SOL    HW248740  11.841   4.780  13.209 -2.8655 -0.1649  0.2141
10250SOL     OW48741   0.389   2.511   1.397  0.3527 -0.4989 -0.4522
10250SOL    HW148742   0.383   2.441   1.462  1.1760  0.7412  1.0173
10250SOL    HW248743   0.298   2.528   1.372 -0.1627  0.0661  1.5989
10251SOL     OW48744  11.749  13.300   7.283 -0.1573 -0.2314 -0.4827
10251SOL    HW148745  11.655  13.300   7.264 -0.3330  1.3010  0.2147
10251SOL    HW248746  11.761  13.373   7.344  1.7949  0.9841 -2.1787
10252SOL     OW48747  11.658   6.540   3.684  0.0180  0.4014  1.0782
10252SOL    HW148748  11.616   6.535   3.770 -0.6821  0.4488  0.7502
10252SOL    HW248749  11.590   6.510   3.623 -0.0045  1.7808  0.3899
10253SOL     OW48750   9.683   6.282   5.130 -0.1715 -0.0783 -0.4584
10253SOL    HW148751   9.756   6.246   5.181  1.2975  0.0886 -2.3427
10253SOL    HW248752   9.706   6.264   5.039 -1.7720  1.3081 -1.1873
10254SOL     OW48753   1.244   4.532   3.293  0.4242 -0.1723 -0.2367
10254SOL    HW148754   1.266   4.554   3.384 -0.9934  0.4093 -0.0117
10254SOL    HW248755   1.238   4.617   3.249 -0.2141 -0.3785 -0.5546
10255SOL     OW48756   0.766  11.177   9.533  0.4538 -0.0830  0.6100
10255SOL    HW148757   0.734  11.266   9.519  2.3224  0.3973 -1.0405
10255SOL    HW248758   0.743  11.157   9.624 -0.8298  1.7116  0.7198
10256SOL     OW48759  13.359   9.030   2.232 -0.2805 -0.4417  0.3447
10256SOL    HW148760  13.323   9.052   2.146  0.1839  0.6359  0.4054
10256SOL    HW248761  13.284   9.037   2.291 -0.5415 -0.9117  0.0771
10257SOL     OW48762   0.302   9.950  12.638  0.1885 -0.5629 -0.2478
10257SOL    HW148763   0.207   9.963  12.645 -0.0944 -2.1242 -0.7939
10257SOL    HW248764   0.339  10.006  12.706 -1.2034 -0.8205  0.7736
10258SOL     OW48765  11.307   3.153  11.759 -0.7176  0.1203  0.2848
10258SOL    HW148766  11.301   3.058  11.770 -0.8661  0.0200 -0.5747
10258SOL    HW248767  11.250   3.172  11.684 -0.7188  0.8923  0.4750
10259SOL     OW48768  11.999   3.919  11.555 -0.0841  0.2993 -0.3724
10259SOL    HW148769  11.923   3.971  11.527  1.0806  2.9704  0.9892
10259SOL    HW248770  12.006   3.938  11.649  1.5141 -0.9131 -0.2189
10260SOL     OW48771   1.033   2.946  13.307 -0.0915  0.5081  0.3035
10260SOL    HW148772   1.043   3.040  13.298 -2.7147  0.7619 -1.0945
10260SOL    HW248773   0.939   2.931  13.294  0.3348 -2.3558 -0.0890
10261SOL     OW48774   8.278   7.865   5.441  0.1663 -0.1232  0.4912
10261SOL    HW148775   8.224   7.944   5.444 -0.8168 -0.7717  0.5986
10261SOL    HW248776   8.282   7.843   5.348 -0.9026 -0.8072  0.5842
10262SOL     OW48777   6.124   7.606   5.966  0.1145 -0.3029  0.4374
10262SOL    HW148778   6.123   7.616   5.871  1.2313 -0.8934  0.3397
10262SOL    HW248779   6.037   7.574   5.989 -0.3563  0.4378 -0.3175
10263SOL     OW48780   0.242   1.964   6.077  0.1102 -0.0653 -0.2122
10263SOL    HW148781   0.167   1.906   6.086  0.5061 -0.9069 -1.9070
10263SOL    HW248782   0.247   1.984   5.983  1.9844 -0.0585 -0.1663
10264SOL     OW48783   7.374  12.368  11.450  0.4723  0.2214  0.2438
10264SOL    HW148784   7.313  12.441  11.450  1.1244  0.7852  1.1055
10264SOL    HW248785   7.447  12.397  11.506  0.6972 -1.1153  0.6894
10265SOL     OW48786  10.842   7.618   7.162  0.6860  0.3698 -0.6128
10265SOL    HW148787  10.824   7.701   7.206  1.5381  0.5859 -0.6692
10265SOL    HW248788  10.792   7.553   7.213  0.5019  0.8242 -0.2109
10266SOL     OW48789   4.745   0.515   0.549 -0.9815  0.1007 -0.0056
10266SOL    HW148790   4.809   0.446   0.530 -0.5457  0.0939  1.3715
10266SOL    HW248791   4.762   0.582   0.482 -0.0117 -0.2169 -0.0929
10267SOL     OW48792   2.585   0.946   9.838 -0.0568 -0.4257  0.2726
10267SOL    HW148793   2.579   0.867   9.892 -2.0433 -0.2423  0.3836
10267SOL    HW248794   2.636   0.918   9.761 -1.5288 -2.1236 -0.1521
10268SOL     OW48795  10.438  11.792  12.876 -0.1105 -0.0268 -0.4383
10268SOL    HW148796  10.359  11.817  12.826 -0.8455  0.8786  1.1151
10268SOL    HW248797  10.511  11.816  12.818 -0.9389 -0.0152 -1.5241
10269SOL     OW48798   7.301   8.875  12.600 -0.2129 -0.7928  0.1778
10269SOL    HW148799   7.244   8.935  12.553  1.1256  0.5575  0.2013
10269SOL    HW248800   7.307   8.798  12.543  1.3369  0.7781 -1.9433
10270SOL     OW48801   4.215   2.337   7.014  0.2263  0.1562  0.2699
10270SOL    HW148802   4.165   2.372   6.941  0.6288 -1.2146 -0.7012
10270SOL    HW248803   4.158   2.272   7.054  0.8656 -0.8354 -0.3529
10271SOL     OW48804  12.538   6.853  12.880  0.5180 -0.0407  0.4108
10271SOL    HW148805  12.480   6.820  12.949  1.1193 -3.0938 -0.3937
10271SOL    HW248806  12.479   6.899  12.820 -1.0878 -2.4066 -0.0027
10272SOL     OW48807   6.707   1.960   0.037  0.1528  0.0806  0.3458
10272SOL    HW148808   6.648   2.035   0.038 -1.1286 -0.8851  1.9762
10272SOL    HW248809   6.669   1.898   0.099  2.2891 -1.0836  0.5917
10273SOL     OW48810   1.543  12.939  13.959  0.4079  0.7683  0.0411
10273SOL    HW148811   1.541  12.883  13.881 -0.2869 -0.0510  0.6298
10273SOL    HW248812   1.635  12.943  13.984  0.3726 -0.8495  0.5021
10274SOL     OW48813   0.027   6.447  13.848  0.5081  0.0169 -0.0906
10274SOL    HW148814   0.096   6.457  13.913 -0.3239 -0.1503  0.8468
10274SOL    HW248815  -0.042   6.398  13.893  0.1443 -0.6256 -1.2851
10275SOL     OW48816  11.260   8.009   4.251  0.1224  0.2719 -0.5208
10275SOL    HW148817  11.328   8.046   4.194 -1.2333  2.4398 -0.8302
10275SOL    HW248818  11.207   7.954   4.193  0.4320  0.1672 -0.7067
10276SOL     OW48819   4.609  11.660  13.229  0.8661  0.4546  0.2854
10276SOL    HW148820   4.657  11.626  13.154  0.8349  0.7396  0.1341
10276SOL    HW248821   4.551  11.727  13.193 -0.3338 -0.5250  0.3297
10277SOL     OW48822  13.076   8.009  10.404 -0.7736  0.1188  0.6203
10277SOL    HW148823  13.169   8.017  10.425 -0.6509 -0.7613  0.4682
10277SOL    HW248824  13.030   8.037  10.483 -0.4061  1.5232  0.3565
10278SOL     OW48825   3.344   2.775  10.420  0.2356  0.2125  0.0456
10278SOL    HW148826   3.309   2.852  10.463 -0.1769  0.4696 -0.7317
10278SOL    HW248827   3.312   2.701  10.472 -0.9948  0.4757 -0.3156
10279SOL     OW48828   7.281   2.324   1.225  0.3406 -0.4606 -0.4999
10279SOL    HW148829   7.245   2.391   1.167 -1.1080 -1.5817 -0.9694
10279SOL    HW248830   7.367   2.357   1.250  0.1865  0.9625 -1.7239
10280SOL     OW48831   9.260  13.647   6.778 -0.4156 -0.9321 -0.4607
10280SOL    HW148832   9.178  13.696   6.769 -0.0802 -0.1838  0.4014
10280SOL    HW248833   9.293  13.638   6.689  1.0342  3.0870 -0.5259
10281SOL     OW48834  13.356   3.406   2.319  0.6584  0.1912 -0.0189
10281SOL    HW148835  13.439   3.406   2.367  0.1346 -0.5768  0.9107
10281SOL    HW248836  13.309   3.481   2.353  0.3367 -0.2832  0.5993
10282SOL     OW48837   3.115   5.030   8.137 -0.1946  0.1178  0.3097
10282SOL    HW148838   3.035   4.980   8.153 -1.6693  2.3344  0.2953
10282SOL    HW248839   3.118   5.042   8.042 -0.8738  1.5542  0.4433
10283SOL     OW48840   5.879   3.656   6.564 -0.4517 -0.3464  0.1536
10283SOL    HW148841   5.817   3.600   6.609  0.9237 -0.9163  1.4488
10283SOL    HW248842   5.928   3.700   6.634  0.4026  0.3077 -0.8026
10284SOL     OW48843   0.122   7.284   1.363  0.1454 -0.3715 -0.0958
10284SOL    HW148844   0.142   7.354   1.300 -0.1834 -0.7565 -0.6395
10284SOL    HW248845   0.053   7.321   1.419  1.3087  0.4291  0.8547
10285SOL     OW48846   8.228   9.835   1.383  0.1914 -0.0816 -0.3458
10285SOL    HW148847   8.163   9.790   1.329  0.8260  0.0490 -1.2308
10285SOL    HW248848   8.311   9.793   1.361  0.8031  1.5210 -1.2008
10286SOL     OW48849  11.736   2.605   6.300 -0.1377  0.2738  0.0539
10286SOL    HW148850  11.706   2.560   6.379  2.1149 -0.8320  0.3551
10286SOL    HW248851  11.678   2.572   6.231 -1.4067  0.3855  1.0229
10287SOL     OW48852  11.388   2.180  13.920  0.2703 -0.3948  0.5477
10287SOL    HW148853  11.311   2.193  13.864 -0.1470  1.3139  1.4582
10287SOL    HW248854  11.424   2.267  13.932  1.3053 -0.9440  1.6139
10288SOL     OW48855   6.647  11.725   9.670  0.4199 -0.1145  0.6423
10288SOL    HW148856   6.602  11.717   9.586  0.0404 -1.6802  0.9757
10288SOL    HW248857   6.739  11.711   9.649  0.5109  0.8619  0.3065
10289SOL     OW48858   9.530   0.008   0.662 -0.0517  0.2883  0.0437
10289SOL    HW148859   9.461  -0.058   0.662 -0.6301  0.8892 -0.4755
10289SOL    HW248860   9.546   0.027   0.570 -0.4146  1.4124  0.1946
10290SOL     OW48861   2.506  12.325  11.359  1.0461 -0.3521 -0.1252
10290SOL    HW148862   2.580  12.308  11.417  1.3590 -1.2860 -0.7735
10290SOL    HW248863   2.486  12.239  11.320  0.5709  0.1719 -1.0668
10291SOL     OW48864   4.846   6.737  12.311 -0.2553 -0.0275  0.1551
10291SOL    HW148865   4.754   6.714  12.317 -0.3758  0.5742  0.7929
10291SOL    HW248866   4.893   6.663  12.350 -0.5021 -0.1107  0.2932
10292SOL     OW48867   4.571   8.430   2.465 -0.2144 -0.4192 -0.3021
10292SOL    HW148868   4.483   8.469   2.472 -0.0564 -0.0062 -0.5565
10292SOL    HW248869   4.555   8.336   2.460 -0.6714 -0.3268 -0.7455
10293SOL     OW48870   4.216   7.471  13.778  0.0750 -0.0425 -0.2083
10293SOL    HW148871   4.235   7.527  13.853  0.2825  0.8671 -0.9169
10293SOL    HW248872   4.197   7.385  13.816  1.9045 -0.0618  0.7849
10294SOL     OW48873  12.128   9.377   6.579 -0.6607  0.0857 -0.1099
10294SOL    HW148874  12.177   9.454   6.607 -0.9098 -0.1952  1.1744
10294SOL    HW248875  12.082   9.348   6.658 -1.5211 -0.6720 -0.8660
10295SOL     OW48876  12.203  11.778   7.818 -0.1476  0.1876 -0.7622
10295SOL    HW148877  12.126  11.808   7.770 -0.3716  0.5043 -0.2076
10295SOL    HW248878  12.198  11.682   7.814  0.7169  0.1584 -2.7862
10296SOL     OW48879   2.074   4.792  12.898  0.2882 -0.4931  0.6274
10296SOL    HW148880   2.100   4.857  12.832  3.0818  0.3126  2.3500
10296SOL    HW248881   1.989   4.821  12.928  0.0767  0.5440 -0.8513
10297SOL     OW48882   3.486   9.432   6.976 -0.2552 -0.3085 -0.3021
10297SOL    HW148883   3.432   9.412   6.900 -0.1563  1.2760 -0.8213
10297SOL    HW248884   3.570   9.391   6.958  0.2573  1.2909 -1.7825
10298SOL     OW48885   5.139   7.015   6.603  0.5021  0.1508 -0.0989
10298SOL    HW148886   5.229   7.046   6.600  0.8561 -0.6763  1.4388
10298SOL    HW248887   5.087   7.092   6.579  1.5432  0.9819  0.2239
10299SOL     OW48888   6.600  13.187   6.916  0.6609  0.4136 -0.7172
10299SOL    HW148889   6.677  13.217   6.867  0.8264  0.1364 -0.6288
10299SOL    HW248890   6.637  13.143   6.993  0.4019  0.8943 -0.3157
10300SOL     OW48891   7.500  14.078   6.498 -0.5681 -0.4265  0.4112
10300SOL    HW148892   7.531  14.161   6.535  1.7320 -0.5894 -0.9521
10300SOL    HW248893   7.543  14.011   6.551 -0.0394 -0.6923 -0.3422
10301SOL     OW48894   8.292   1.677   2.298  0.0031 -0.0507 -0.0747
10301SOL    HW148895   8.361   1.630   2.250  0.4432  1.0579 -0.5644
10301SOL    HW248896   8.251   1.610   2.353  2.4731 -0.4551  1.4140
10302SOL     OW48897   6.425  12.224  10.174  0.2343  0.4563 -0.1319
10302SOL    HW148898   6.397  12.224  10.266  1.9746 -0.8131  0.4457
10302SOL    HW248899   6.511  12.266  10.175 -0.0910  1.2107 -1.3436
10303SOL     OW48900  10.472  12.203  12.295 -0.5133  0.0407 -0.0682
10303SOL    HW148901  10.463  12.297  12.282 -0.8697  0.0591  0.3110
10303SOL    HW248902  10.485  12.192  12.390  0.3132 -0.2321 -0.1959
10304SOL     OW48903  10.785   7.639   9.057 -0.0886  0.2627  0.3185
10304SOL    HW148904  10.700   7.616   9.093 -1.9380  3.4150 -1.6198
10304SOL    HW248905  10.797   7.577   8.984 -1.7237  0.9909 -0.6234
10305SOL     OW48906  11.234  12.613   0.238 -0.2734 -0.9950  0.3373
10305SOL    HW148907  11.298  12.577   0.177 -0.5302  2.0423 -1.9538
10305SOL    HW248908  11.282  12.620   0.321  1.7200 -0.7052 -0.7757
10306SOL     OW48909  11.364   7.025   9.640 -0.2199  0.9714 -0.1668
10306SOL    HW148910  11.301   7.094   9.619  0.0811  0.7299 -2.0865
10306SOL    HW248911  11.325   6.946   9.604  0.0459  0.3725  0.8441
10307SOL     OW48912  10.514   8.420  12.472  0.2985 -0.0363  0.2062
10307SOL    HW148913  10.593   8.369  12.490  0.8527  1.0432  0.9183
10307SOL    HW248914  10.485   8.389  12.386  1.9441  0.1085 -0.4280
10308SOL     OW48915   4.491  12.634   4.657  0.0479 -0.0591  0.1275
10308SOL    HW148916   4.539  12.626   4.740  0.2560 -0.3996 -0.0224
10308SOL    HW248917   4.559  12.626   4.590 -0.0693  0.6258 -0.0721
10309SOL     OW48918   8.294   1.411   0.390 -0.3709 -0.3011  0.2414
10309SOL    HW148919   8.277   1.366   0.473 -0.9969 -0.1967  0.1773
10309SOL    HW248920   8.221   1.385   0.333 -0.3013  0.1442 -0.0613
10310SOL     OW48921  13.018   5.666   8.867  0.5768  0.0776 -0.2392
10310SOL    HW148922  12.945   5.668   8.805 -0.5786 -0.1135  1.0628
10310SOL    HW248923  13.096   5.655   8.812 -0.4450 -0.6160 -1.6125
10311SOL     OW48924   0.844   3.811  10.704 -0.3329 -0.7973 -0.1443
10311SOL    HW148925   0.798   3.798  10.787 -0.9700 -1.0727 -0.5275
10311SOL    HW248926   0.916   3.870  10.725 -1.2887  0.2219  0.3300
10312SOL     OW48927   5.861   5.278  12.658 -0.2120 -0.1823 -0.0837
10312SOL    HW148928   5.929   5.250  12.597 -0.6420 -0.4375 -0.4577
10312SOL    HW248929   5.823   5.197  12.692 -0.8336 -0.0572 -0.4576
10313SOL     OW48930  12.199   1.599   8.658  0.2369  0.2320  0.0563
10313SOL    HW148931  12.261   1.661   8.697 -1.6833  0.2587  3.4503
10313SOL    HW248932  12.133   1.654   8.616  0.2280  0.3739  0.2553
10314SOL     OW48933  10.845   5.986   7.269  0.6459  0.8883 -0.9470
10314SOL    HW148934  10.779   5.917   7.274  1.4034  0.2221  0.5119
10314SOL    HW248935  10.796   6.065   7.248 -0.2856 -0.0116 -2.2811
10315SOL     OW48936   9.126  12.907   6.858 -0.2941  0.2589  0.3641
10315SOL    HW148937   9.135  12.812   6.865 -0.6922  0.1251 -0.7322
10315SOL    HW248938   9.182  12.941   6.927 -0.0253 -0.7705  0.6785
10316SOL     OW48939   1.524  12.617   4.770 -0.3234  0.0964 -0.0130
10316SOL    HW148940   1.595  12.660   4.722  1.4299  0.1191  2.4272
10316SOL    HW248941   1.545  12.631   4.862 -2.3474 -1.8178  0.8333
10317SOL     OW48942  11.789  10.593   6.300 -0.2090 -0.2911 -0.3502
10317SOL    HW148943  11.808  10.509   6.341 -1.8920 -0.3961  0.2674
10317SOL    HW248944  11.714  10.627   6.348  0.3677  1.5279 -0.6691
10318SOL     OW48945   8.914   3.180   9.487 -0.0782  0.1256  0.2938
10318SOL    HW148946   8.871   3.106   9.529  1.8652 -0.4887  1.3352
10318SOL    HW248947   8.882   3.180   9.397 -0.4883 -1.6640  0.4185
10319SOL     OW48948   9.956   7.073   3.069 -0.4591  0.1944 -0.6122
10319SOL    HW148949   9.902   7.137   3.114  0.7823 -0.0146  1.3129
10319SOL    HW248950  10.043   7.113   3.066  0.0557 -0.8572 -0.4946
10320SOL     OW48951   7.052   8.838   1.266 -0.0877  0.0577  0.1279
10320SOL    HW148952   7.006   8.808   1.188 -2.0468  0.1042  1.2136
10320SOL    HW248953   7.099   8.917   1.237 -2.2315  1.1408 -0.6125
10321SOL     OW48954   1.335  11.270   4.746  0.1254  0.3705  0.3983
10321SOL    HW148955   1.278  11.302   4.676  0.6657  1.5307  0.4680
10321SOL    HW248956   1.421  11.308   4.727  0.6662 -0.5965  0.8168
10322SOL     OW48957  13.967   5.395  11.811 -0.2856  0.4002 -0.0223
10322SOL    HW148958  13.977   5.490  11.809 -0.5504  0.4818  1.3468
10322SOL    HW248959  13.887   5.380  11.862 -0.5514 -0.5503 -0.6713
10323SOL     OW48960   4.015  12.752   6.910 -0.6233 -0.4835  0.0728
10323SOL    HW148961   3.946  12.810   6.876 -0.7653 -1.6348 -1.7382
10323SOL    HW248962   4.095  12.784   6.867 -0.3506 -0.3845  0.6462
10324SOL     OW48963   8.891   9.015  13.221  0.2095 -0.3684  0.5032
10324SOL    HW148964   8.826   9.024  13.291 -1.1095 -0.6132 -0.6473
10324SOL    HW248965   8.843   9.038  13.141  1.9076  0.7840 -0.2402
10325SOL     OW48966   8.626   3.721   5.901 -0.1941  0.2336  0.3335
10325SOL    HW148967   8.583   3.754   5.823  0.8839  0.3702 -0.2267
10325SOL    HW248968   8.716   3.705   5.874  0.2678  0.5134  1.6110
10326SOL     OW48969   0.195  11.202   4.001  0.4480 -0.1701  0.0709
10326SOL    HW148970   0.198  11.185   3.907  2.7563  2.6834 -0.5125
10326SOL    HW248971   0.135  11.276   4.011  1.0934  0.2995  0.6537
10327SOL     OW48972   5.710   8.618  12.748 -0.1341 -0.4615 -0.2000
10327SOL    HW148973   5.755   8.539  12.777 -0.3675 -0.3129  0.5876
10327SOL    HW248974   5.780   8.675  12.715  0.5065  0.3360  2.2815
10328SOL     OW48975  11.574   8.539  11.964 -0.0738 -0.2166  0.2455
10328SOL    HW148976  11.603   8.496  11.883 -1.4197  1.4934 -1.2340
10328SOL    HW248977  11.651   8.587  11.994  0.5213 -1.0911  0.1362
10329SOL     OW48978   8.445  13.664  11.916  0.4154  0.0098 -0.2533
10329SOL    HW148979   8.424  13.745  11.869 -1.1421  0.7462  1.5842
10329SOL    HW248980   8.541  13.666  11.923  0.5268  0.8953 -1.5705
10330SOL     OW48981   8.103   8.412   0.590 -0.2062 -0.1593  0.5378
10330SOL    HW148982   8.170   8.344   0.589 -2.3305 -2.4064 -0.8521
10330SOL    HW248983   8.118   8.461   0.509 -0.2607 -0.6749  0.2110
10331SOL     OW48984  13.285   7.365   4.379  0.2098 -0.3448 -0.3286
10331SOL    HW148985  13.344   7.405   4.315  1.0066 -1.0059 -0.0337
10331SOL    HW248986  13.258   7.438   4.435  2.0770 -0.2413  0.5360
10332SOL     OW48987   2.586   5.548   8.985  0.3972  0.5123  0.0680
10332SOL    HW148988   2.578   5.634   8.943  1.6200  1.4737  1.6693
10332SOL    HW248989   2.658   5.506   8.938  1.8415  1.6296  1.1873
10333SOL     OW48990  13.275   0.041   6.550 -0.1551 -0.4341 -0.1728
10333SOL    HW148991  13.241   0.128   6.572 -1.3308 -0.6250 -1.1369
10333SOL    HW248992  13.267  -0.009   6.631  1.4171  0.5979  0.6579
10334SOL     OW48993  12.545   7.080  12.381 -0.8507  0.1721  0.1324
10334SOL    HW148994  12.574   7.077  12.289  0.0903  2.5521  0.2989
10334SOL    HW248995  12.450   7.075  12.376 -0.9084  1.8385 -1.1168
10335SOL     OW48996   1.686   7.792  13.447  0.2721 -0.0463 -0.5743
10335SOL    HW148997   1.608   7.844  13.468  0.1723 -1.2384  2.5494
10335SOL    HW248998   1.654   7.726  13.385 -1.0665 -0.0850  0.1066
10336SOL     OW48999   9.054   7.630   2.482 -0.3152 -0.3022  0.2594
10336SOL    HW149000   8.961   7.650   2.476 -0.1430  0.1782 -1.3818
10336SOL    HW249001   9.065   7.549   2.432  0.2799  0.1844 -0.4281
10337SOL     OW49002   4.009  10.685   1.464 -0.2782  0.5942  0.6532
10337SOL    HW149003   4.067  10.664   1.538  0.6350 -0.7866 -0.4097
10337SOL    HW249004   3.940  10.738   1.503 -0.2268 -0.6913  2.6624
10338SOL     OW49005   5.290  12.489   6.819  0.6760  0.4894 -0.3529
10338SOL    HW149006   5.285  12.395   6.801  1.3476  0.7563 -2.0813
10338SOL    HW249007   5.330  12.494   6.906  1.5046 -0.8018 -0.6279
10339SOL     OW49008   8.345   8.016   7.878  0.1553  0.4147 -0.0678
10339SOL    HW149009   8.327   7.990   7.968  1.6375  1.1561  0.4794
10339SOL    HW249010   8.386   7.939   7.838 -1.6400 -0.3501 -0.5219
10340SOL     OW49011   9.753   0.014   3.554  0.6374  0.2173 -0.3664
10340SOL    HW149012   9.687   0.066   3.510  1.5311  0.3583 -1.5828
10340SOL    HW249013   9.706  -0.028   3.626 -0.8377  0.0919 -1.3576
10341SOL     OW49014   8.628  13.921  10.829  0.2919  0.4357 -0.2652
10341SOL    HW149015   8.648  14.012  10.849 -1.4469  0.6851  0.5441
10341SOL    HW249016   8.543  13.924  10.786 -0.1384 -0.8388  0.4263
10342SOL     OW49017   7.251  12.274   2.904 -0.3768  0.0767 -0.0371
10342SOL    HW149018   7.221  12.306   2.989 -0.9010 -1.0186  0.2052
10342SOL    HW249019   7.319  12.211   2.924 -0.5935 -0.2894 -0.4206
10343SOL     OW49020  13.296  13.345  12.924 -0.3399  0.1205  0.4523
10343SOL    HW149021  13.385  13.318  12.950 -1.0975 -2.0764  0.9822
10343SOL    HW249022  13.304  13.367  12.831  0.3637 -2.4159 -0.1867
10344SOL     OW49023  10.552   6.036  13.431  0.4343  0.0915 -0.3063
10344SOL    HW149024  10.466   6.003  13.408  0.4622 -0.4441  0.3096
10344SOL    HW249025  10.554   6.032  13.527 -0.0209  3.0709 -0.0703
10345SOL     OW49026  10.530   7.452  11.526 -0.3587 -0.7490  0.3812
10345SOL    HW149027  10.610   7.399  11.529  0.5010  0.1838 -2.5966
10345SOL    HW249028  10.492   7.432  11.440 -1.1422  1.8131  0.0602
10346SOL     OW49029  13.085  10.225   8.299 -0.4072  0.0790 -0.2395
10346SOL    HW149030  12.995  10.234   8.267 -0.3804  1.0780 -0.0406
10346SOL    HW249031  13.090  10.284   8.375  0.8000  1.0567 -1.0490
10347SOL     OW49032  12.781   2.338   0.622 -0.4828  0.3076 -0.2156
10347SOL    HW149033  12.773   2.379   0.536 -1.1110  1.5351  0.3898
10347SOL    HW249034  12.711   2.273   0.625  0.5955 -0.9668 -1.2348
10348SOL     OW49035   6.494  10.891   0.281 -0.5079 -0.1746  0.9410
10348SOL    HW149036   6.567  10.830   0.279 -1.3481 -1.2151  1.2183
10348SOL    HW249037   6.530  10.972   0.318  1.4954  0.7266 -2.5336
10349SOL     OW49038   9.436   1.857   3.957  0.7319  0.4260 -0.2027
10349SOL    HW149039   9.528   1.864   3.931  0.3839  2.5450 -1.0886
10349SOL    HW249040   9.411   1.769   3.930  2.1433  0.2971 -1.2429
10350SOL     OW49041  13.021   2.370  10.592 -0.2473  0.1655 -0.6845
10350SOL    HW149042  13.048   2.442  10.648 -0.1936 -0.9742  0.8345
10350SOL    HW249043  12.933   2.394  10.561 -0.7885  0.3052  0.8813
10351SOL     OW49044  11.101   7.804   7.047  0.0430  0.0898  0.3045
10351SOL    HW149045  11.076   7.726   7.096 -1.0973  0.4295  0.3034
10351SOL    HW249046  11.083   7.877   7.106  2.0792  0.3265  0.6899
10352SOL     OW49047  12.659  10.291   0.227  0.4768  0.0325 -0.5705
10352SOL    HW149048  12.699  10.374   0.255 -0.5385  0.5016 -0.4619
10352SOL    HW249049  12.709  10.265   0.150  0.6439  0.8718 -0.7532
10353SOL     OW49050  11.023  13.021  10.956 -0.0002 -0.5240  0.0014
10353SOL    HW149051  11.103  13.047  10.910 -0.4857  1.7536  0.3433
10353SOL    HW249052  10.957  13.014  10.887 -0.1969  0.6428  0.0558
10354SOL     OW49053  11.240  11.897   5.471 -0.8234  0.5220  0.2626
10354SOL    HW149054  11.153  11.925   5.445 -0.6132 -0.0009 -1.0699
10354SOL    HW249055  11.245  11.805   5.446 -0.1011  0.3777  0.8945
10355SOL     OW49056  14.094   5.138   6.976 -0.3663  0.4329 -0.1601
10355SOL    HW149057  14.178   5.101   7.003 -1.0611 -0.6367  0.6122
10355SOL    HW249058  14.103   5.232   6.993  0.5186  0.2689  0.3436
10356SOL     OW49059  12.482   1.266   3.231  0.1634 -0.1867  0.6651
10356SOL    HW149060  12.479   1.317   3.312 -2.4125 -0.0445  0.5554
10356SOL    HW249061  12.406   1.296   3.180  2.4806  0.7921 -2.5123
10357SOL     OW49062  13.040  11.008  14.082  0.1483  0.2354  0.3321
10357SOL    HW149063  12.967  10.974  14.030 -0.0525 -0.8290  1.2458
10357SOL    HW249064  13.089  11.065  14.023 -1.2808  0.7734 -0.3782
10358SOL     OW49065   0.187   4.404   2.206  0.0274 -0.6908  0.3380
10358SOL    HW149066   0.139   4.486   2.189 -1.0469 -1.1226  1.1805
10358SOL    HW249067   0.193   4.362   2.120 -0.7412 -0.4181  0.1406
10359SOL     OW49068  11.171   9.491   0.157  0.1314 -0.7485 -0.1133
10359SOL    HW149069  11.179   9.534   0.071  1.8238 -1.7953 -0.5298
10359SOL    HW249070  11.082   9.455   0.157 -0.1658 -0.0646 -1.0985
10360SOL     OW49071   8.852   2.252   8.807  0.2255 -0.3986  0.3540
10360SOL    HW149072   8.895   2.254   8.893  1.2774  2.2674 -0.1565
10360SOL    HW249073   8.761   2.227   8.826  0.5488 -0.2943  2.1840
10361SOL     OW49074  13.818   8.588  12.286  0.3758 -0.0965 -0.5445
10361SOL    HW149075  13.856   8.507  12.252 -0.4069 -0.6349 -0.1909
10361SOL    HW249076  13.741   8.603  12.231 -0.2610 -0.3646  0.2515
10362SOL     OW49077   2.605  10.459   0.969  0.6228  0.3497  0.8658
10362SOL    HW149078   2.666  10.531   0.951  1.3312 -0.3225  0.4803
10362SOL    HW249079   2.533  10.499   1.017  0.8482  1.3771  0.3801
10363SOL     OW49080   0.004   7.029   9.001 -0.4789  0.1862  0.1154
10363SOL    HW149081  -0.005   6.937   8.974  1.1011 -0.4674  1.6302
10363SOL    HW249082   0.094   7.052   8.979 -0.5752  1.0797  0.6092
10364SOL     OW49083  13.734   5.191  12.877 -0.4793 -0.2725 -0.1486
10364SOL    HW149084  13.773   5.213  12.792  3.1934 -1.8965  0.8763
10364SOL    HW249085  13.786   5.242  12.940 -1.7273 -0.6712  1.2469
10365SOL     OW49086  11.080   4.974  10.700  0.2377 -0.6282  0.0690
10365SOL    HW149087  11.048   4.939  10.783  0.1693  0.4272  0.5114
10365SOL    HW249088  11.122   4.900  10.656 -0.4611 -1.3970  0.6699
10366SOL     OW49089  10.701  12.026   7.840 -0.2438 -0.3956  0.3634
10366SOL    HW149090  10.647  11.972   7.897  0.9592 -0.2869  1.6425
10366SOL    HW249091  10.703  12.112   7.882 -0.1506 -0.0195 -0.3822
10367SOL     OW49092  13.778   6.730   9.160  0.4704  0.3120 -0.2006
10367SOL    HW149093  13.868   6.725   9.192  0.9567 -1.0784 -1.6330
10367SOL    HW249094  13.786   6.760   9.070 -0.4592 -0.2651 -0.4844
10368SOL     OW49095   0.284   2.387  10.026 -0.3195  0.5122 -0.1225
10368SOL    HW149096   0.270   2.295  10.003  2.3292  0.2658 -1.0743
10368SOL    HW249097   0.221   2.434   9.972 -0.9902 -0.6686 -0.4187
10369SOL     OW49098  12.326  11.333   2.701 -0.3756 -0.3247  0.0203
10369SOL    HW149099  12.276  11.339   2.783 -2.7214  3.1827 -1.4468
10369SOL    HW249100  12.283  11.263   2.652 -0.6965 -0.6145  0.6991
10370SOL     OW49101   8.615   6.655  11.027  0.0838  0.0860  0.0812
10370SOL    HW149102   8.650   6.650  11.116  0.4252 -0.6459 -0.0836
10370SOL    HW249103   8.617   6.564  10.996  0.8670  0.4638 -1.0176
10371SOL     OW49104   4.203   9.856   3.873  0.2680  0.1047 -0.0236
10371SOL    HW149105   4.125   9.891   3.829  1.0802  1.7823 -0.1882
10371SOL    HW249106   4.192   9.883   3.965  1.1933  1.4076 -0.2668
10372SOL     OW49107   0.347   4.777   7.505 -0.0813  0.8379 -0.1847
10372SOL    HW149108   0.401   4.796   7.583 -2.3573  0.1090  1.6720
10372SOL    HW249109   0.294   4.856   7.494  0.0829  0.8520 -0.9245
10373SOL     OW49110   8.348   9.569  13.557 -0.0270  0.2552  0.6481
10373SOL    HW149111   8.334   9.480  13.523 -0.0572  0.8853 -1.1157
10373SOL    HW249112   8.437   9.568  13.592  0.1650 -0.3375  0.1581
10374SOL     OW49113   8.758  10.723   7.375  0.3210 -0.3516 -0.2141
10374SOL    HW149114   8.782  10.790   7.311  0.5640 -1.8862 -1.8207
10374SOL    HW249115   8.774  10.640   7.329  0.5447 -1.5230  1.8774
10375SOL     OW49116   2.754   5.066   6.461 -0.2202  0.0404 -0.3006
10375SOL    HW149117   2.673   5.040   6.416  0.8401  0.3743 -2.5397
10375SOL    HW249118   2.822   5.011   6.422  1.3644  2.9875 -1.9653
10376SOL     OW49119   2.678  13.333  10.585  0.0167 -0.0599 -0.1019
10376SOL    HW149120   2.706  13.333  10.493 -1.3021  0.6154 -0.5202
10376SOL    HW249121   2.613  13.263  10.591 -0.2452  0.2100  0.2147
10377SOL     OW49122   9.620  12.110   2.014  0.4862 -0.0090  0.0459
10377SOL    HW149123   9.590  12.088   2.102  3.9594 -1.1220  1.1212
10377SOL    HW249124   9.716  12.113   2.021  0.8628  0.8765 -3.4881
10378SOL     OW49125   2.724   8.415   8.094  0.3343  0.4820 -0.1701
10378SOL    HW149126   2.795   8.442   8.152  0.9062  1.7158 -1.3771
10378SOL    HW249127   2.700   8.327   8.123  1.0855  0.7865  1.4423
10379SOL     OW49128   2.337   1.045   8.342  0.3700  0.3877  0.4272
10379SOL    HW149129   2.343   0.962   8.295  0.8880  0.6505  0.0179
10379SOL    HW249130   2.346   1.021   8.434  0.2663 -0.0312  0.3312
10380SOL     OW49131  13.971  12.428   6.388 -0.1575  0.5141 -0.1731
10380SOL    HW149132  13.929  12.507   6.353 -0.2811 -0.1110 -1.4531
10380SOL    HW249133  13.899  12.375   6.421 -0.1528  0.5077 -0.1739
10381SOL     OW49134  12.286  12.976   9.083  0.1157  0.3419  0.8880
10381SOL    HW149135  12.218  13.044   9.089 -0.0136  0.4059 -0.8197
10381SOL    HW249136  12.354  13.015   9.029  0.4154 -0.5852  0.5833
10382SOL     OW49137   5.866  10.802   3.116  1.0645  0.3493  0.3295
10382SOL    HW149138   5.897  10.718   3.080  1.1183  0.7232 -0.5157
10382SOL    HW249139   5.894  10.801   3.207  1.0831 -0.5467  0.3232
10383SOL     OW49140   5.899   7.654  11.875  0.0481  0.0949  0.1023
10383SOL    HW149141   5.847   7.731  11.896 -1.4125 -1.0061  0.7139
10383SOL    HW249142   5.912   7.659  11.780  0.7741  1.5419  0.2590
10384SOL     OW49143   9.536   0.441   5.720 -0.5818 -0.1780 -0.1460
10384SOL    HW149144   9.499   0.354   5.735  1.1311 -0.8180  0.7271
10384SOL    HW249145   9.480   0.480   5.653 -0.6163 -2.4782 -1.5690
10385SOL     OW49146   0.610  11.689   1.423 -0.1156 -0.0939  0.3332
10385SOL    HW149147   0.617  11.621   1.490 -0.6032 -0.6333 -0.1613
10385SOL    HW249148   0.589  11.768   1.472 -1.3606 -0.6611  0.7407
10386SOL     OW49149   3.725   0.781   2.529  0.0150 -0.5167 -0.0336
10386SOL    HW149150   3.778   0.704   2.511 -0.9451 -1.5551  1.3270
10386SOL    HW249151   3.706   0.776   2.623 -0.0668  1.3937  0.0981
10387SOL     OW49152   8.175   5.087   0.334  0.5892  0.2259 -0.3493
10387SOL    HW149153   8.170   5.166   0.280  0.7386  0.6942  0.3110
10387SOL    HW249154   8.208   5.020   0.275  0.4487  0.6535 -0.9241
10388SOL     OW49155   7.044   5.619   7.334 -0.0992  0.4402  0.0598
10388SOL    HW149156   6.979   5.664   7.387 -0.2363  0.2271  0.0742
10388SOL    HW249157   7.107   5.584   7.397  0.9950  2.1301 -0.0471
10389SOL     OW49158  13.719  12.682  12.179 -0.4143 -0.0508 -0.0234
10389SOL    HW149159  13.760  12.664  12.095 -0.2275  2.1106 -0.4550
10389SOL    HW249160  13.626  12.663  12.165 -0.6032  1.5224 -1.1586
10390SOL     OW49161   4.717   9.580  13.506  0.2254 -0.3654  0.5021
10390SOL    HW149162   4.645   9.530  13.545  0.6696 -0.7099  0.8910
10390SOL    HW249163   4.686   9.601  13.418 -1.8244  2.5226  1.7804
10391SOL     OW49164  14.128  12.248   3.017  0.6152 -0.2981  0.3440
10391SOL    HW149165  14.090  12.238   3.105  0.2336  1.1286  0.3550
10391SOL    HW249166  14.101  12.168   2.971 -1.2761  0.0497  0.7755
10392SOL     OW49167   0.891   4.714  12.369 -0.3262  0.6405  0.7025
10392SOL    HW149168   0.797   4.693  12.365 -0.3875  1.0747 -0.7455
10392SOL    HW249169   0.903   4.780  12.301  0.7820  1.6559  1.8354
10393SOL     OW49170   9.344   7.848  11.858 -0.2994  0.4632 -0.0014
10393SOL    HW149171   9.284   7.868  11.930  0.0108  1.7308 -0.0665
10393SOL    HW249172   9.431   7.849  11.899 -0.2670 -0.7275 -0.0289
10394SOL     OW49173   0.711   0.078   0.720  0.4039 -0.1393 -0.2548
10394SOL    HW149174   0.742  -0.003   0.761  0.3540  0.3408  0.7531
10394SOL    HW249175   0.667   0.049   0.640  0.6095 -1.0845 -0.0332
10395SOL     OW49176   6.969  11.985   8.188  0.1930  0.4355 -0.3869
10395SOL    HW149177   7.022  11.921   8.237 -1.0348 -1.0492 -0.9185
10395SOL    HW249178   6.979  12.066   8.237 -0.0186 -0.6955  1.6761
10396SOL     OW49179  10.814  10.489   9.790 -0.0095 -0.2428 -0.0753
10396SOL    HW149180  10.891  10.438   9.766  1.1127  1.4716 -0.2410
10396SOL    HW249181  10.789  10.534   9.710 -1.8771 -1.5720 -0.3101
10397SOL     OW49182   5.191  13.271   8.960  0.3663 -0.4373  0.1771
10397SOL    HW149183   5.159  13.225   8.882  1.9870 -0.8985 -0.2578
10397SOL    HW249184   5.286  13.275   8.948  0.4140  1.8913  0.8410
10398SOL     OW49185   9.593   2.163   4.255  0.0874  0.1844 -0.0138
10398SOL    HW149186   9.629   2.190   4.170  0.8017  1.8973  0.7863
10398SOL    HW249187   9.535   2.090   4.234 -0.2959  1.0052 -2.0711
10399SOL     OW49188   3.271  10.775   0.472 -0.1065  0.9669  0.7993
10399SOL    HW149189   3.346  10.776   0.532  0.0624  1.5415  0.5806
10399SOL    HW249190   3.290  10.843   0.408 -0.2109  0.2414 -0.0151
10400SOL     OW49191   3.857  11.445  11.466  0.1909  0.6821 -0.5177
10400SOL    HW149192   3.906  11.402  11.395 -1.3044 -1.8040 -0.1835
10400SOL    HW249193   3.788  11.382  11.487 -0.4930  2.1660  1.9358
10401SOL     OW49194  11.801   6.728   3.222 -0.0960  0.0066  0.0244
10401SOL    HW149195  11.760   6.815   3.217 -1.4103 -0.4434  1.9222
10401SOL    HW249196  11.895   6.746   3.218 -0.3567  1.4149 -0.5794
10402SOL     OW49197  11.639   7.776  10.375 -0.2647  0.2322 -0.0593
10402SOL    HW149198  11.580   7.847  10.348  0.5654  1.1496  0.4788
10402SOL    HW249199  11.594   7.696  10.348 -2.1355  0.8584  1.0613
10403SOL     OW49200  11.800   4.624   5.505  0.2530 -0.3133  0.3704
10403SOL    HW149201  11.765   4.536   5.521  0.6101 -0.4935  0.1810
10403SOL    HW249202  11.826   4.622   5.413 -2.5761  0.9649 -0.5869
10404SOL     OW49203   0.084   1.025  10.513 -0.6801  0.0930 -0.2484
10404SOL    HW149204   0.007   1.016  10.456 -1.4752  3.9414 -0.0676
10404SOL    HW249205   0.158   0.999  10.457 -1.8586 -1.1603 -1.2932
10405SOL     OW49206   3.899   6.543  13.020  0.6722  0.1767 -0.5110
10405SOL    HW149207   3.906   6.630  12.981 -0.0897  0.2912 -0.4017
10405SOL    HW249208   3.989   6.511  13.023  1.1984  1.6657  1.1039
10406SOL     OW49209   2.079   6.334  12.366  0.5217 -0.4663  0.2878
10406SOL    HW149210   1.996   6.288  12.351  0.4941 -0.4972  0.5356
10406SOL    HW249211   2.139   6.266  12.395  0.3992 -0.2946  0.9500
10407SOL     OW49212   4.768   2.449   4.912  0.2561  0.6477 -0.0391
10407SOL    HW149213   4.813   2.528   4.880  0.1615  0.9959  0.6770
10407SOL    HW249214   4.738   2.406   4.832  1.4853  0.6259 -0.5251
10408SOL     OW49215   9.603   7.039   1.270  0.2352 -0.1374  0.0321
10408SOL    HW149216   9.690   7.073   1.248  0.5709 -1.5945 -1.0126
10408SOL    HW249217   9.594   7.055   1.364  2.6914 -2.1766  0.7164
10409SOL     OW49218   3.834  11.378   9.593 -0.3895  0.3982 -0.0245
10409SOL    HW149219   3.777  11.380   9.670 -1.1238  0.4455 -0.5558
10409SOL    HW249220   3.891  11.455   9.603  0.9897 -0.7647  1.5408
10410SOL     OW49221   4.988   1.779   4.485 -0.2539  0.5337  0.2930
10410SOL    HW149222   4.917   1.750   4.542  0.1892  0.3946  0.7745
10410SOL    HW249223   4.970   1.736   4.401 -1.1912  1.1403  0.1668
10411SOL     OW49224  11.148   0.842   1.579 -0.0472 -0.3843 -0.4061
10411SOL    HW149225  11.232   0.888   1.572  0.2685 -0.4533  1.9534
10411SOL    HW249226  11.169   0.751   1.559  0.5237 -0.4511  0.4475
10412SOL     OW49227  10.261   8.861   2.567  0.3760  0.0712  0.3190
10412SOL    HW149228  10.215   8.867   2.484 -0.5405  0.3152  0.8245
10412SOL    HW249229  10.271   8.952   2.596 -0.1958 -0.0504  0.9304
10413SOL     OW49230   9.382   7.398   1.740 -0.4824  0.2571  0.0384
10413SOL    HW149231   9.458   7.442   1.778 -1.4490  1.1397  1.0143
10413SOL    HW249232   9.382   7.427   1.648 -1.0839  2.3716  0.6450
10414SOL     OW49233   6.537   0.819   9.910  0.1482 -0.4919  0.1322
10414SOL    HW149234   6.465   0.863   9.865  1.4422 -0.0965 -1.6731
10414SOL    HW249235   6.510   0.815  10.002 -2.4144 -0.9030 -0.5637
10415SOL     OW49236   6.917   7.607  12.942 -0.1718  0.5899  0.1468
10415SOL    HW149237   6.980   7.671  12.976  0.9567  0.4164 -1.5207
10415SOL    HW249238   6.947   7.523  12.977  0.1166  0.6033 -0.0599
10416SOL     OW49239  10.435   2.490   7.589  1.0567 -0.4549  0.3863
10416SOL    HW149240  10.356   2.538   7.567  1.4230 -0.7816 -1.9138
10416SOL    HW249241  10.424   2.465   7.680 -1.9270 -1.3277 -0.1195
10417SOL     OW49242   4.249  13.443   6.410  0.9155 -0.0905 -0.1025
10417SOL    HW149243   4.319  13.502   6.383  0.8153  0.4118  0.6937
10417SOL    HW249244   4.197  13.430   6.331  1.6553 -0.1225 -0.5971
10418SOL     OW49245   1.352   9.712   8.775  0.0525  0.1936  0.6441
10418SOL    HW149246   1.425   9.760   8.735  1.5923 -2.8170 -0.4650
10418SOL    HW249247   1.391   9.632   8.808 -2.3368 -0.2624  2.6321
10419SOL     OW49248   3.121  11.855   6.499  0.1748 -0.1383 -0.4255
10419SOL    HW149249   3.125  11.871   6.405  0.7050 -1.1691 -0.5942
10419SOL    HW249250   3.029  11.832   6.516  0.3626 -1.3818 -0.9604
10420SOL     OW49251   0.379  12.823   5.123  0.5515 -0.4960  0.1254
10420SOL    HW149252   0.389  12.730   5.102  1.1320 -0.8605  1.8286
10420SOL    HW249253   0.440  12.838   5.195  0.2033  1.1280  0.1233
10421SOL     OW49254   6.279   6.088  12.167 -0.0610 -0.9129 -0.2427
10421SOL    HW149255   6.300   6.046  12.084 -1.8216 -1.2021 -0.5781
10421SOL    HW249256   6.255   6.016  12.225  0.0159 -0.6097  0.1728
10422SOL     OW49257   7.551   6.951  11.022 -0.6523  0.3442 -0.4140
10422SOL    HW149258   7.496   6.884  11.062 -0.1570 -0.1810 -0.6067
10422SOL    HW249259   7.572   7.011  11.094 -1.9391  0.8716 -0.4555
10423SOL     OW49260  12.850  12.224   4.982  0.0787  0.5318  0.0879
10423SOL    HW149261  12.772  12.173   5.005  0.9889 -1.1924 -0.4856
10423SOL    HW249262  12.822  12.315   4.989 -1.7327 -0.0332  0.7497
10424SOL     OW49263   3.595   4.017   8.283  0.1121  0.5594 -0.5169
10424SOL    HW149264   3.545   3.975   8.353  1.3663  0.8017  0.5663
10424SOL    HW249265   3.624   4.100   8.321  0.9514  0.6211 -1.2609
10425SOL     OW49266   7.449  10.878   3.580  0.2487 -0.4775  0.1338
10425SOL    HW149267   7.393  10.810   3.617 -0.8535  0.2319 -0.1699
10425SOL    HW249268   7.394  10.957   3.580  1.9906  0.8581  2.0140
10426SOL     OW49269  10.031  11.256   3.920  0.2592 -0.2413  0.7452
10426SOL    HW149270  10.051  11.334   3.868 -0.6678  0.4048  1.3375
10426SOL    HW249271  10.040  11.284   4.011 -1.4084 -0.4272  0.9996
10427SOL     OW49272  12.798  13.592   2.794 -0.4935 -0.3786 -0.2869
10427SOL    HW149273  12.860  13.519   2.797 -0.3816 -0.3829 -2.0274
10427SOL    HW249274  12.725  13.560   2.742 -0.7642  0.5089 -0.4762
10428SOL     OW49275   9.157   1.514  13.200 -0.1579  0.4288  0.2959
10428SOL    HW149276   9.117   1.554  13.277 -0.6320 -1.3763  1.0168
10428SOL    HW249277   9.089   1.457  13.164  1.3299 -1.8868  0.9313
10429SOL     OW49278  12.863   0.146   0.023 -0.3773 -0.0134  0.4858
10429SOL    HW149279  12.925   0.075   0.005  0.8048  1.0171  0.3433
10429SOL    HW249280  12.790   0.130  -0.036 -1.8397 -3.0775  2.8421
10430SOL     OW49281   0.339   5.891   0.380 -0.2217 -0.3495 -0.2019
10430SOL    HW149282   0.267   5.836   0.348 -0.5177 -0.7737  1.1641
10430SOL    HW249283   0.321   5.903   0.473 -0.5377  2.6379 -0.5387
10431SOL     OW49284   9.657  13.974   4.723  0.0947  0.2489  0.5353
10431SOL    HW149285   9.714  13.957   4.648 -1.0225  0.1940 -0.3379
10431SOL    HW249286   9.695  14.051   4.766  1.1475 -0.1438  0.3345
10432SOL     OW49287  10.351   1.656   6.835  0.2639 -0.0934  0.4369
10432SOL    HW149288  10.399   1.633   6.914  2.0567  0.7797 -0.3248
10432SOL    HW249289  10.331   1.571   6.794  1.4539 -0.4937  0.6349
10433SOL     OW49290   5.660  12.274   7.913  0.6233  0.2379  0.5482
10433SOL    HW149291   5.677  12.284   7.820  0.1803  0.4776  0.4891
10433SOL    HW249292   5.567  12.251   7.919  1.3806 -3.2960  0.7304
10434SOL     OW49293   6.561  13.812   8.173  0.6020  0.1695  0.2722
10434SOL    HW149294   6.579  13.778   8.260 -0.1045  0.4068  0.5213
10434SOL    HW249295   6.489  13.758   8.140  2.6883 -1.8488 -1.3656
10435SOL     OW49296   1.785   6.929  10.961 -0.5545  0.2839 -0.1241
10435SOL    HW149297   1.799   6.891  11.048 -1.3287  0.1048 -0.0705
10435SOL    HW249298   1.836   6.875  10.902 -0.5208  0.0248  0.1417
10436SOL     OW49299   3.369   5.925   2.668  0.0392 -0.4167 -0.4132
10436SOL    HW149300   3.379   5.859   2.599  0.2470 -2.1268  1.2073
10436SOL    HW249301   3.444   5.912   2.725  0.2265  1.4258 -0.1560
10437SOL     OW49302   4.704   3.928   6.694 -0.2486 -0.3189  0.8335
10437SOL    HW149303   4.749   3.908   6.612 -1.4411 -0.6202  0.2330
10437SOL    HW249304   4.775   3.944   6.756  0.7023  1.2668 -0.5488
10438SOL     OW49305   9.539  12.961  12.107  0.1338  0.2444 -0.2913
10438SOL    HW149306   9.526  13.039  12.161  1.7732  1.8146 -2.0038
10438SOL    HW249307   9.607  12.986  12.045  1.0854 -2.7460 -0.6123
10439SOL     OW49308   4.422  10.305  11.306  0.0600 -0.0886 -0.1256
10439SOL    HW149309   4.358  10.255  11.356  0.7360 -0.5093  0.3213
10439SOL    HW249310   4.388  10.304  11.216  0.0298 -1.3052 -0.1143
10440SOL     OW49311   9.324  12.932   8.305  0.0710 -0.3993 -0.3223
10440SOL    HW149312   9.287  13.019   8.291  2.1697  0.4204 -1.1845
10440SOL    HW249313   9.269  12.873   8.254  1.1574  1.0801 -3.4195
10441SOL     OW49314   6.688  11.130   1.328 -0.5541 -0.2096 -0.2277
10441SOL    HW149315   6.777  11.118   1.361 -0.5219  1.4897  0.3964
10441SOL    HW249316   6.641  11.051   1.354  0.4605 -0.5733  0.5322
10442SOL     OW49317  11.721  13.365  12.951  0.0286 -0.1179 -0.3643
10442SOL    HW149318  11.646  13.331  13.000 -0.3363 -0.0748 -0.8907
10442SOL    HW249319  11.750  13.441  13.002  0.8754 -1.1950  0.8478
10443SOL     OW49320  12.129   8.231  13.707  0.3699  1.0096  0.1131
10443SOL    HW149321  12.156   8.213  13.797 -2.3042  1.0504  1.0190
10443SOL    HW249322  12.157   8.321  13.691  0.5079  1.1507  1.0652
10444SOL     OW49323   4.729   8.548  11.988 -0.1989 -0.2208 -0.3825
10444SOL    HW149324   4.660   8.537  11.922  0.0308  1.0858 -0.8754
10444SOL    HW249325   4.760   8.459  12.006 -1.4266 -0.7524 -0.7762
10445SOL     OW49326  13.059   3.702  10.179  0.2982 -0.2153  0.3155
10445SOL    HW149327  13.120   3.736  10.114 -0.1018  0.8100  0.4653
10445SOL    HW249328  12.980   3.682  10.130  0.1357  0.1734  0.4165
10446SOL     OW49329   2.396   9.821   9.415  0.6091 -1.0589 -0.0086
10446SOL    HW149330   2.408   9.774   9.332 -0.1754  0.8093 -1.2537
10446SOL    HW249331   2.485   9.837   9.447  0.9827 -0.6855 -1.1773
10447SOL     OW49332   9.854   3.423   6.810  0.1822  0.1698  0.7211
10447SOL    HW149333   9.861   3.517   6.794  2.5175 -0.0754 -0.0530
10447SOL    HW249334   9.801   3.416   6.889 -0.1079  2.1210  0.7467
10448SOL     OW49335   5.325  10.962  10.760 -0.0541 -0.2283 -0.2956
10448SOL    HW149336   5.275  10.913  10.826 -1.3747 -0.1187 -1.1775
10448SOL    HW249337   5.340  10.899  10.690  0.7198 -0.1356 -0.2309
10449SOL     OW49338   4.633  13.989   2.335  0.7951  0.1609 -0.3010
10449SOL    HW149339   4.554  13.940   2.357 -0.5013  2.0663 -0.4737
10449SOL    HW249340   4.705  13.934   2.367 -0.6911 -0.4263  2.3236
10450SOL     OW49341   8.074   4.726   6.810  0.6181 -0.2690 -0.0762
10450SOL    HW149342   8.033   4.805   6.844  0.7867 -0.4292  0.5235
10450SOL    HW249343   8.118   4.754   6.730 -0.1721  0.0221 -0.4192
10451SOL     OW49344   9.033   0.004   5.667 -0.4882 -0.1301 -0.0745
10451SOL    HW149345   8.995  -0.084   5.660  1.4084 -0.9893 -0.4520
10451SOL    HW249346   9.038   0.035   5.577  0.6734 -0.5236 -0.1744
10452SOL     OW49347  13.202   1.487  12.558  0.1471  0.0352 -0.0296
10452SOL    HW149348  13.202   1.529  12.473 -1.5109  1.5277  0.6402
10452SOL    HW249349  13.169   1.398  12.542 -0.8124  0.5301 -0.8562
10453SOL     OW49350  12.520   0.332   1.131 -0.0772  0.1181 -0.3275
10453SOL    HW149351  12.515   0.428   1.128  0.9297  0.1844 -0.1614
10453SOL    HW249352  12.528   0.311   1.224 -1.9916 -0.2478 -0.2022
10454SOL     OW49353  11.656   1.878   9.322 -0.5987  0.1768 -0.2768
10454SOL    HW149354  11.683   1.786   9.323  0.6481  0.5193 -0.1411
10454SOL    HW249355  11.701   1.915   9.246 -3.3028  0.0909 -2.0467
10455SOL     OW49356   7.420   0.258   6.118 -0.2299 -0.0097 -0.2118
10455SOL    HW149357   7.448   0.173   6.153 -0.5271  0.4784  1.2847
10455SOL    HW249358   7.491   0.318   6.142  0.4456  0.0162 -2.1145
10456SOL     OW49359  11.759   0.944  13.166  0.4654  0.1191  0.0022
10456SOL    HW149360  11.790   0.957  13.076  1.2195 -1.3284  0.0200
10456SOL    HW249361  11.812   1.003  13.219 -0.7906  1.8639 -0.6005
10457SOL     OW49362  13.858  10.434   3.392  0.1087 -0.3454  0.5893
10457SOL    HW149363  13.903  10.505   3.346 -2.0079  0.9495  0.3526
10457SOL    HW249364  13.833  10.472   3.477 -0.0420 -1.2008  0.9432
10458SOL     OW49365   9.559   7.553  11.449 -0.3942  0.0877 -0.6031
10458SOL    HW149366   9.613   7.474  11.449 -0.1835  0.1081 -3.7432
10458SOL    HW249367   9.548   7.574  11.542  2.6028 -1.5186  0.2681
10459SOL     OW49368   0.228   5.560  10.842  0.2698 -0.1492 -0.3973
10459SOL    HW149369   0.177   5.629  10.886 -1.8671 -0.3950 -2.3354
10459SOL    HW249370   0.168   5.523  10.777  1.6676 -3.2002 -0.1193
10460SOL     OW49371   1.594   6.691   2.284 -0.1724 -0.4294 -0.0177
10460SOL    HW149372   1.506   6.656   2.291 -0.1918 -0.3554  0.1162
10460SOL    HW249373   1.618   6.713   2.374 -0.3583  0.3919 -0.1587
10461SOL     OW49374  11.000   3.847   2.801 -0.0398 -0.6121  0.2520
10461SOL    HW149375  10.905   3.834   2.799 -0.2595  0.8714 -0.8501
10461SOL    HW249376  11.018   3.878   2.889 -1.1118  2.3060 -0.4463
10462SOL     OW49377   1.014  12.439   0.500 -0.5803  0.7772 -0.1609
10462SOL    HW149378   1.003  12.521   0.549  0.3682 -0.1009  1.5868
10462SOL    HW249379   1.107  12.435   0.480 -0.8087  0.6650 -1.2873
10463SOL     OW49380   6.503   7.916   5.156 -0.4598 -0.1800 -0.4405
10463SOL    HW149381   6.508   7.823   5.180 -0.9380 -0.0196  0.3116
10463SOL    HW249382   6.410   7.936   5.158 -0.3374  0.3883 -0.3255
10464SOL     OW49383   0.182  12.770   5.731 -0.2409  0.2432 -0.0894
10464SOL    HW149384   0.228  12.814   5.804  0.8751 -0.9360 -0.0441
10464SOL    HW249385   0.140  12.695   5.772 -0.0652 -0.1206 -0.5783
10465SOL     OW49386   5.235  12.838  10.072 -0.3311 -0.4045  0.2097
10465SOL    HW149387   5.200  12.909  10.125 -0.1826 -0.0615 -0.1474
10465SOL    HW249388   5.217  12.865   9.982  1.0465 -0.1162  0.0001
10466SOL     OW49389   0.176   3.990  11.446  0.5314  0.4895 -0.7135
10466SOL    HW149390   0.111   3.988  11.375 -1.1552 -0.4612  0.7632
10466SOL    HW249391   0.215   3.902  11.446 -0.7386 -0.1298  0.5567
10467SOL     OW49392   1.971  12.198   7.192  0.5799  0.6075 -0.5979
10467SOL    HW149393   1.999  12.137   7.261  0.1355  0.6640 -0.3649
10467SOL    HW249394   1.934  12.143   7.124  0.6207  0.5823 -0.5994
10468SOL     OW49395  12.075   8.944   5.159  0.0554  0.1146  0.0360
10468SOL    HW149396  12.056   8.937   5.253 -0.8806 -0.9829 -0.2179
10468SOL    HW249397  12.144   8.880   5.144 -0.3852 -0.3156 -0.1725
10469SOL     OW49398   1.059   9.680   4.005  0.2465  0.2548 -0.1300
10469SOL    HW149399   1.107   9.715   4.081  1.7928 -1.8086 -0.0581
10469SOL    HW249400   1.127   9.665   3.939 -0.7366 -0.1817 -1.0686
10470SOL     OW49401   5.978   4.103   7.376  0.3217  0.3681 -0.0222
10470SOL    HW149402   6.031   4.179   7.400  0.9826  0.3312 -1.2457
10470SOL    HW249403   6.002   4.085   7.284  0.5289 -1.5754  0.3536
10471SOL     OW49404   4.297   5.260  10.295 -0.1298 -0.0168 -0.0408
10471SOL    HW149405   4.382   5.237  10.330  0.0221  1.6806  0.8225
10471SOL    HW249406   4.311   5.343  10.249 -1.1711 -0.0764 -0.5089
10472SOL     OW49407  12.888  14.143  11.354  0.1613 -0.1270  0.0524
10472SOL    HW149408  12.945  14.184  11.420  2.8517 -2.8056 -0.3591
10472SOL    HW249409  12.857  14.063  11.396 -1.6238  0.2221 -0.5269
10473SOL     OW49410   9.804   9.259   0.702  0.3370  0.3065  0.5584
10473SOL    HW149411   9.712   9.267   0.676  0.7208  0.7323 -0.7572
10473SOL    HW249412   9.804   9.274   0.797 -1.0938 -1.0065  0.8027
10474SOL     OW49413   8.411   8.560   6.431 -0.8311  0.0545 -0.2625
10474SOL    HW149414   8.353   8.495   6.472 -0.1688  0.8083  2.0081
10474SOL    HW249415   8.499   8.535   6.458 -0.2193  0.0154 -2.1387
10475SOL     OW49416  11.385   7.309   5.887  0.1258  0.2588  0.1466
10475SOL    HW149417  11.297   7.276   5.868 -0.1974  1.8459 -1.2684
10475SOL    HW249418  11.387   7.317   5.983 -0.6695 -1.3111  0.3306
10476SOL     OW49419   7.387   4.090  11.319  0.2871  0.2408 -0.4139
10476SOL    HW149420   7.413   4.175  11.354 -1.4986  0.2341  1.0621
10476SOL    HW249421   7.447   4.075  11.245  1.5946  2.0743  0.2111
10477SOL     OW49422   4.725  11.203   0.152  0.0439  0.3997 -0.3018
10477SOL    HW149423   4.675  11.186   0.232 -0.6797 -0.0815 -0.8412
10477SOL    HW249424   4.762  11.118   0.128  0.1841  0.5225 -0.5311
10478SOL     OW49425  10.753   4.675   6.799 -0.9011  0.1104  0.0483
10478SOL    HW149426  10.668   4.633   6.801 -0.0594 -1.6809  0.5558
10478SOL    HW249427  10.807   4.618   6.744 -0.2375  1.6928 -1.0444
10479SOL     OW49428   3.813   1.670   4.784 -0.0039 -0.4932  0.2934
10479SOL    HW149429   3.827   1.620   4.864  1.2789 -0.4802  0.1064
10479SOL    HW249430   3.767   1.610   4.726 -2.0029 -0.1173  1.4073
10480SOL     OW49431  12.514   8.435  10.586  0.4145  0.0153  0.3809
10480SOL    HW149432  12.473   8.358  10.625 -0.2281  1.2676  2.3455
10480SOL    HW249433  12.440   8.489  10.556  0.8815 -0.5390 -1.9086
10481SOL     OW49434   0.467  11.828   6.116  0.8601 -0.1539 -0.6182
10481SOL    HW149435   0.427  11.796   6.197  1.1259 -0.5947 -0.6582
10481SOL    HW249436   0.414  11.904   6.092  1.1370  0.3426  0.2834
10482SOL     OW49437  13.851  10.099   5.442 -0.8773  0.2155 -0.6035
10482SOL    HW149438  13.946  10.090   5.441 -0.6161  1.9661  1.1428
10482SOL    HW249439  13.818  10.010   5.439  0.6502 -0.4330 -4.5239
10483SOL     OW49440   2.043  13.599   9.363  0.5007  0.9723 -0.2191
10483SOL    HW149441   1.991  13.522   9.387 -1.9787  2.4915 -0.3934
10483SOL    HW249442   2.115  13.564   9.311  0.3882 -1.3777  1.0796
10484SOL     OW49443  10.241   2.742   9.120 -0.4452  0.3662  0.5428
10484SOL    HW149444  10.326   2.716   9.084 -0.4375  1.3006 -0.1508
10484SOL    HW249445  10.184   2.749   9.043 -1.1246 -0.1110  0.9872
10485SOL     OW49446   5.406   9.290   1.159 -0.0695  0.2275 -0.6706
10485SOL    HW149447   5.324   9.326   1.124 -0.3578 -0.5678 -0.8439
10485SOL    HW249448   5.455   9.366   1.189 -0.0453  0.9036 -2.2940
10486SOL     OW49449  10.622   9.257   2.312 -0.1779 -0.2494  0.1044
10486SOL    HW149450  10.541   9.252   2.262  0.0274 -1.2053 -0.1373
10486SOL    HW249451  10.607   9.203   2.389 -0.7548  1.7716  1.5188
10487SOL     OW49452   1.932  11.871  12.589 -0.5153 -0.5008  0.2523
10487SOL    HW149453   2.025  11.864  12.612 -0.4564  0.8295  0.4931
10487SOL    HW249454   1.892  11.917  12.662 -1.2042 -0.2964 -0.2365
10488SOL     OW49455   9.844   8.956   8.406 -0.0493 -0.1120 -0.3180
10488SOL    HW149456   9.882   8.945   8.494 -0.3779  2.1630  0.1797
10488SOL    HW249457   9.813   8.869   8.382  0.2480 -0.8404  1.7380
10489SOL     OW49458   9.770   5.659  11.462  0.1702  0.0048 -0.0872
10489SOL    HW149459   9.755   5.600  11.535 -1.3215  1.3641  0.7674
10489SOL    HW249460   9.714   5.735  11.480  0.3564  0.7261 -2.2483
10490SOL     OW49461  11.765   8.818   4.586  0.0114 -0.1128 -0.2556
10490SOL    HW149462  11.693   8.871   4.620 -0.6206  0.1051 -1.8526
10490SOL    HW249463  11.822   8.881   4.542  3.4964  0.4776  4.2450
10491SOL     OW49464   2.539  13.052  13.437  0.1687  0.2733 -0.0545
10491SOL    HW149465   2.528  12.968  13.482  1.8354 -0.0600 -0.1896
10491SOL    HW249466   2.467  13.106  13.468 -1.0878 -1.2786 -0.1522
10492SOL     OW49467   6.271   9.822  10.612  1.1052  0.2760 -0.0952
10492SOL    HW149468   6.212   9.894  10.591  0.8060 -0.0532 -0.3917
10492SOL    HW249469   6.265   9.763  10.537  1.2873 -0.0967  0.1764
10493SOL     OW49470   3.419  13.062  13.456  0.3515  0.2001  0.1306
10493SOL    HW149471   3.447  12.985  13.505 -1.4437  0.0689  1.0567
10493SOL    HW249472   3.499  13.097  13.417  1.0192 -3.0673 -1.7275
10494SOL     OW49473   9.850   9.597   2.473 -0.0306 -0.9585  0.1479
10494SOL    HW149474   9.797   9.671   2.444  1.4597 -0.2020 -0.7587
10494SOL    HW249475   9.920   9.591   2.409  0.7310 -2.2159  1.0513
10495SOL     OW49476   1.980   4.773   2.553 -0.4742 -0.3791 -0.3857
10495SOL    HW149477   1.894   4.739   2.528 -0.9315  1.1668 -1.0830
10495SOL    HW249478   2.040   4.736   2.488 -0.8737 -0.2485 -0.8346
10496SOL     OW49479   9.133  10.278   1.432  0.0232  0.1600 -0.2448
10496SOL    HW149480   9.185  10.332   1.491 -0.6934 -0.2251  0.7585
10496SOL    HW249481   9.106  10.338   1.363  2.7102  0.1459 -1.4482
10497SOL     OW49482   3.661  13.584  10.998 -0.5511  0.1530 -0.2344
10497SOL    HW149483   3.749  13.591  10.960 -0.6586 -0.2591 -0.5666
10497SOL    HW249484   3.602  13.588  10.922 -0.7808 -0.3701 -0.0884
10498SOL     OW49485   7.233   2.262   7.845 -0.0331 -0.1004  0.0375
10498SOL    HW149486   7.274   2.292   7.764 -1.8445 -0.8938 -1.2339
10498SOL    HW249487   7.184   2.184   7.819 -1.1456 -0.0236  1.7905
10499SOL     OW49488   6.805  13.330  13.685  0.2121 -0.8255  0.0379
10499SOL    HW149489   6.872  13.376  13.735 -0.9058  0.1621  0.6927
10499SOL    HW249490   6.736  13.396  13.671  0.1901 -1.2651 -2.2415
10500SOL     OW49491   7.888   7.582   7.540  0.1556  0.1995  0.0463
10500SOL    HW149492   7.850   7.624   7.617  0.5021 -0.4490  0.5848
10500SOL    HW249493   7.900   7.653   7.477 -0.2118  0.7232  0.5528
10501SOL     OW49494   9.207   5.226  10.496 -0.1245 -1.0714 -0.3278
10501SOL    HW149495   9.146   5.230  10.570 -0.2841  0.3234 -0.5142
10501SOL    HW249496   9.151   5.226  10.418  0.0910 -0.3319 -0.4887
10502SOL     OW49497  10.358   8.159   1.151 -0.3331 -0.0400 -0.8182
10502SOL    HW149498  10.343   8.113   1.233  1.7849 -1.0307 -0.9116
10502SOL    HW249499  10.325   8.248   1.166  0.0389 -0.1886  1.1157
10503SOL     OW49500   1.728   1.840   1.075 -0.3702  0.2416 -0.6276
10503SOL    HW149501   1.797   1.858   1.011 -0.5508 -0.4118 -1.0207
10503SOL    HW249502   1.670   1.778   1.031 -0.9286  0.3843 -0.1115
10504SOL     OW49503   6.831   1.032  10.717 -0.1822 -0.2922  0.3619
10504SOL    HW149504   6.916   1.009  10.678  0.0434  0.4631  0.3944
10504SOL    HW249505   6.772   0.962  10.689  0.1654 -0.1886 -0.6579
10505SOL     OW49506   2.897   9.980   1.681 -0.3723  0.3454  0.7914
10505SOL    HW149507   2.814   9.950   1.643 -0.5164  0.4590  1.0135
10505SOL    HW249508   2.964   9.944   1.623 -0.6134  1.1214  0.0093
10506SOL     OW49509   3.238  13.194  13.267  0.1860  0.1351 -0.3547
10506SOL    HW149510   3.224  13.120  13.208  0.0479 -0.3372  0.2714
10506SOL    HW249511   3.311  13.168  13.323  0.3168  0.5847 -0.3116
10507SOL     OW49512   1.996   7.671   7.729  0.2888 -0.2484 -0.0106
10507SOL    HW149513   1.987   7.747   7.671 -1.1208  0.8591  1.5740
10507SOL    HW249514   2.047   7.608   7.678 -0.3578  0.9109 -2.2039
10508SOL     OW49515   9.559  14.024   5.878 -0.3853 -0.1706  0.3331
10508SOL    HW149516   9.472  13.986   5.890 -1.2027  1.2515 -0.7958
10508SOL    HW249517   9.575  14.071   5.960 -1.6829  1.3915 -0.2495
10509SOL     OW49518   9.020   3.747   5.478 -0.0724  0.2513 -0.2286
10509SOL    HW149519   9.056   3.830   5.446 -0.6803  0.6610  0.1223
10509SOL    HW249520   8.934   3.742   5.436 -0.5198  0.3705  0.6459
10510SOL     OW49521   1.337   6.899   2.124 -0.0577 -0.1971  0.8550
10510SOL    HW149522   1.418   6.909   2.175  0.1271 -0.4562  0.6158
10510SOL    HW249523   1.316   6.806   2.130  0.6699 -0.4864 -0.5851
10511SOL     OW49524   4.586  10.928   1.708 -0.1115 -0.0571  0.0056
10511SOL    HW149525   4.546  11.014   1.713  1.0662  0.6171 -1.3655
10511SOL    HW249526   4.680  10.945   1.720  0.4092 -0.8073 -2.3962
10512SOL     OW49527  12.645   1.331   8.918  0.0736  0.5091 -0.3882
10512SOL    HW149528  12.664   1.397   8.852 -1.1892 -0.1510 -1.4816
10512SOL    HW249529  12.556   1.301   8.897  0.1553 -0.6840  0.7907
10513SOL     OW49530   4.551  13.731   9.445  0.2450 -0.1503 -0.0757
10513SOL    HW149531   4.559  13.826   9.433  2.7129 -0.3554 -0.6927
10513SOL    HW249532   4.461  13.718   9.476  0.4738  2.6163  2.2396
10514SOL     OW49533  12.934   8.574   6.691 -0.3555 -0.2824  0.1211
10514SOL    HW149534  12.963   8.661   6.662 -0.4998 -0.5153 -0.7314
10514SOL    HW249535  12.937   8.520   6.612 -0.7855 -0.9182  0.5342
10515SOL     OW49536   8.213  10.637   1.764  0.5044 -0.2665  0.0125
10515SOL    HW149537   8.288  10.691   1.790  1.5176 -1.6284  0.0554
10515SOL    HW249538   8.216  10.562   1.823 -0.6654 -0.5415 -0.2570
10516SOL     OW49539  13.083   4.332   9.970  0.1874 -0.2117 -0.5318
10516SOL    HW149540  13.025   4.377   9.909  0.4017 -0.4281 -0.9011
10516SOL    HW249541  13.062   4.369  10.055 -0.9560 -0.7524 -0.5607
10517SOL     OW49542  13.079   8.903   1.147  0.8013 -0.1820  0.2316
10517SOL    HW149543  13.002   8.897   1.091  0.9326 -0.5655  0.0832
10517SOL    HW249544  13.112   8.813   1.151  1.2152 -0.0291  0.3257
10518SOL     OW49545   3.791  10.117  10.489 -0.2820  0.0801  0.5017
10518SOL    HW149546   3.761  10.127  10.398  0.7140 -0.7007  0.0799
10518SOL    HW249547   3.878  10.156  10.490  0.1831 -0.9397  0.8425
10519SOL     OW49548   7.096   4.040  13.558  0.1200 -0.1744 -0.3571
10519SOL    HW149549   7.133   4.104  13.496 -2.9887  0.6675 -1.5148
10519SOL    HW249550   7.080   3.962  13.504 -0.1519 -0.3939  0.0414
10520SOL     OW49551   1.154   5.731  13.448 -0.5343  0.0696 -0.3977
10520SOL    HW149552   1.235   5.709  13.493 -0.6767 -0.9251 -0.6001
10520SOL    HW249553   1.169   5.702  13.357  0.2930  3.3030 -1.4247
10521SOL     OW49554  10.835  13.509  11.636  0.0446  0.0884 -0.1115
10521SOL    HW149555  10.890  13.466  11.571  0.1455 -1.8242  1.1389
10521SOL    HW249556  10.754  13.458  11.636 -0.0846  0.2732  0.9657
10522SOL     OW49557  11.651   9.198   2.632 -0.4186  0.2751 -0.2368
10522SOL    HW149558  11.570   9.207   2.682 -0.8523  0.1016 -0.9133
10522SOL    HW249559  11.628   9.147   2.555  0.1004  1.1173 -0.9730
10523SOL     OW49560   8.362  12.020   1.851 -0.5022 -0.2809 -0.3276
10523SOL    HW149561   8.458  12.017   1.856 -0.5636 -3.0634  0.8291
10523SOL    HW249562   8.342  12.114   1.844  2.3061  0.3314 -1.5851
10524SOL     OW49563   1.820   5.193  12.462 -0.0221 -0.4744  0.7709
10524SOL    HW149564   1.908   5.179  12.498  0.2484 -0.4735  0.1258
10524SOL    HW249565   1.771   5.232  12.535  1.4410  2.7463  0.2204
10525SOL     OW49566  12.969   2.224   3.975  0.4537  0.3076 -0.7509
10525SOL    HW149567  12.879   2.245   3.948  0.5043  0.9130 -0.4841
10525SOL    HW249568  12.994   2.298   4.032  0.5063 -0.6901  0.5665
10526SOL     OW49569  12.958  10.067   7.990  0.2796  0.4375 -0.0647
10526SOL    HW149570  12.970  10.060   7.895  0.5423  0.5946 -0.0434
10526SOL    HW249571  12.949   9.976   8.019 -0.7324  0.4361 -0.3550
10527SOL     OW49572   8.482  13.343   6.489 -0.2519 -0.0121  0.1127
10527SOL    HW149573   8.506  13.413   6.429  1.9757 -2.3176 -1.9110
10527SOL    HW249574   8.424  13.287   6.437 -1.4382 -0.0786  1.4590
10528SOL     OW49575  10.294   3.346   4.954  0.0942 -0.1627 -0.3660
10528SOL    HW149576  10.216   3.398   4.935  0.8942  0.4342 -2.1241
10528SOL    HW249577  10.260   3.257   4.969 -1.2438  0.6774  2.3471
10529SOL     OW49578  14.131   1.679  12.333  0.7795  0.1590 -0.2412
10529SOL    HW149579  14.078   1.734  12.276 -0.0416  0.4418  0.7549
10529SOL    HW249580  14.220   1.684  12.297  0.3797  0.7423 -1.1622
10530SOL     OW49581   2.393  10.434   6.326  0.4538  0.1344 -0.5157
10530SOL    HW149582   2.409  10.402   6.415 -0.0597 -0.6713 -0.6967
10530SOL    HW249583   2.303  10.465   6.328  0.5409  0.4028 -0.6825
10531SOL     OW49584   7.690   4.465   1.285 -0.2344 -0.1715 -0.4545
10531SOL    HW149585   7.781   4.464   1.314 -0.4083  1.5534  0.2938
10531SOL    HW249586   7.680   4.549   1.239 -1.0172 -1.0920 -2.0791
10532SOL     OW49587  10.724   6.361  11.882  0.2526 -0.2500 -0.4930
10532SOL    HW149588  10.802   6.337  11.831  0.3512  2.0976 -1.5961
10532SOL    HW249589  10.677   6.423  11.826 -0.1338  1.7505  1.8683
10533SOL     OW49590  13.852  10.708   8.175  0.4634  0.3550 -0.2092
10533SOL    HW149591  13.891  10.749   8.253 -0.9303  2.0164 -0.3272
10533SOL    HW249592  13.849  10.615   8.197  0.9313  0.6637  1.3480
10534SOL     OW49593   4.590  13.084   9.727  0.0571  0.3619 -0.5229
10534SOL    HW149594   4.631  13.010   9.682 -1.3652 -1.3724  0.8096
10534SOL    HW249595   4.651  13.106   9.797 -0.7252 -1.6005  0.8963
10535SOL     OW49596   1.131   2.706  13.568  0.3066 -0.2111  0.7039
10535SOL    HW149597   1.101   2.631  13.516  2.8854  0.0359 -1.3742
10535SOL    HW249598   1.197   2.668  13.627 -0.2699  0.0357  1.5160
10536SOL     OW49599   4.506  11.532  12.520 -0.1255  0.1373  0.5437
10536SOL    HW149600   4.521  11.626  12.515  0.0557  0.0665 -0.3609
10536SOL    HW249601   4.435  11.523  12.585  0.2326  0.8425  1.0480
10537SOL     OW49602   4.683   4.785  13.555 -0.6019 -0.0914 -0.0004
10537SOL    HW149603   4.618   4.812  13.491 -1.0726  1.8569  1.2150
10537SOL    HW249604   4.763   4.770  13.503 -1.2316  0.4098 -1.1529
10538SOL     OW49605  13.521   7.785   6.858 -0.3698  0.5863  0.5123
10538SOL    HW149606  13.503   7.728   6.933 -1.8191 -0.4446 -0.5727
10538SOL    HW249607  13.592   7.741   6.811  0.5351  1.2295  1.2109
10539SOL     OW49608   8.849   7.076   8.157  0.1932  0.0397 -0.3476
10539SOL    HW149609   8.945   7.075   8.154  0.3358  3.3577 -2.3377
10539SOL    HW249610   8.828   7.111   8.244  0.6017 -2.4675  0.8468
10540SOL     OW49611  11.628   2.137  13.227  0.3409  0.3406  0.1436
10540SOL    HW149612  11.640   2.168  13.138 -0.1314  0.5997  0.1689
10540SOL    HW249613  11.713   2.101  13.252  1.5654  3.3705  0.7996
10541SOL     OW49614   3.753  12.189   4.896 -0.3286  0.2044 -0.4208
10541SOL    HW149615   3.772  12.117   4.956 -0.2767 -0.2437 -0.9645
10541SOL    HW249616   3.838  12.232   4.883 -0.3500  0.3350 -0.1352
10542SOL     OW49617  13.724   6.677  13.401 -0.4159  0.4276 -0.2404
10542SOL    HW149618  13.713   6.703  13.310 -1.3668  0.7981 -0.0278
10542SOL    HW249619  13.636   6.654  13.431  0.2180 -2.1189 -0.1225
10543SOL     OW49620   6.999   6.690   2.918  0.2368  0.3911  0.2391
10543SOL    HW149621   6.908   6.718   2.925  0.2141  0.4449 -0.2225
10543SOL    HW249622   7.037   6.747   2.851  0.5078  0.1209  0.1599
10544SOL     OW49623  10.572  13.760  12.749  0.1318  0.5899 -0.4147
10544SOL    HW149624  10.516  13.786  12.676 -0.7669 -0.6588 -0.2021
10544SOL    HW249625  10.652  13.811  12.737 -0.2640  0.9114 -1.8815
10545SOL     OW49626  11.674   7.018   5.590 -0.4461 -0.3451  0.0601
10545SOL    HW149627  11.625   7.100   5.592 -0.4053 -0.3431  1.1327
10545SOL    HW249628  11.766   7.046   5.587 -0.4615 -0.3445 -2.2340
10546SOL     OW49629   5.947   5.714  13.952  0.2610  0.1998  0.2347
10546SOL    HW149630   5.962   5.660  14.030  1.3881  0.8404  0.4809
10546SOL    HW249631   6.002   5.792  13.966 -1.9053  1.8088  0.2627
10547SOL     OW49632  12.313   8.017   6.180  0.2109  0.9392  0.0244
10547SOL    HW149633  12.280   7.933   6.213  1.0862  0.7243  0.3530
10547SOL    HW249634  12.303   8.077   6.253  0.7511  0.8209  0.1968
10548SOL     OW49635   1.058   7.048   3.286 -0.4009 -0.3460 -0.5418
10548SOL    HW149636   1.021   7.045   3.374 -0.1298  0.3850 -0.3921
10548SOL    HW249637   1.114   7.127   3.286 -1.1787  0.2340 -1.6680
10549SOL     OW49638   8.743   0.405   8.644  0.2573 -0.2730  0.0568
10549SOL    HW149639   8.817   0.417   8.584  0.7680 -1.6897  0.3476
10549SOL    HW249640   8.735   0.309   8.652  1.2334 -0.2016  3.4596
10550SOL     OW49641   4.431  12.918   6.440  0.0989  0.4594 -0.1876
10550SOL    HW149642   4.446  13.012   6.454  0.6081  0.1687  1.4092
10550SOL    HW249643   4.347  12.901   6.482  1.4326 -0.3463  2.3660
10551SOL     OW49644   7.876  12.915   5.284 -0.3490  0.2497  0.0419
10551SOL    HW149645   7.811  12.967   5.236  0.5769  1.7140  0.2899
10551SOL    HW249646   7.938  12.980   5.317 -0.4959 -0.7763  2.5392
10552SOL     OW49647   0.749   0.289   8.897  0.0434 -0.5919 -0.2126
10552SOL    HW149648   0.705   0.270   8.980  1.1834  0.0378  0.5682
10552SOL    HW249649   0.680   0.324   8.840 -0.5331  0.0426  0.8501
10553SOL     OW49650   4.026   6.616   5.829  0.1059 -0.7720  0.5902
10553SOL    HW149651   4.050   6.644   5.917 -1.0101 -1.2993  1.0755
10553SOL    HW249652   3.931   6.603   5.832  0.1168 -1.2785 -0.5484
10554SOL     OW49653  13.786   2.430  11.881 -0.4740  0.6623 -0.0744
10554SOL    HW149654  13.758   2.400  11.794  1.5610 -2.1485  0.1234
10554SOL    HW249655  13.741   2.372  11.942 -1.5200  2.3167  0.7892
10555SOL     OW49656  12.980   1.094   5.800  0.3671  0.7027 -0.0259
10555SOL    HW149657  12.920   1.044   5.744  1.1721  0.6526 -0.8700
10555SOL    HW249658  12.929   1.114   5.878  0.0670 -1.6899  0.4880
10556SOL     OW49659   0.491   5.836   2.192 -0.6696  0.2565  0.1989
10556SOL    HW149660   0.557   5.774   2.160  0.0563  1.5587 -0.9238
10556SOL    HW249661   0.432   5.848   2.118 -1.8781 -0.4557  1.0088
10557SOL     OW49662  12.015  13.533   5.305  0.0389 -0.1760 -0.4073
10557SOL    HW149663  11.926  13.527   5.270  0.2119  1.7694 -1.3280
10557SOL    HW249664  12.071  13.537   5.228  0.8129 -0.1182  0.1442
10558SOL     OW49665  12.409  12.033  13.710  0.2674 -0.2728  0.3410
10558SOL    HW149666  12.427  12.064  13.798  1.2878 -2.8005  1.1280
10558SOL    HW249667  12.479  12.069  13.656  1.7753 -1.5580  1.3381
10559SOL     OW49668   1.037  12.497  13.657 -0.0597 -0.1528 -0.0364
10559SOL    HW149669   0.956  12.447  13.669 -0.8124  0.9470 -0.4519
10559SOL    HW249670   1.107  12.433  13.676 -1.0152 -0.8807  1.2090
10560SOL     OW49671   1.685   9.029  11.115 -0.5477  0.2452  0.6419
10560SOL    HW149672   1.746   9.090  11.156  0.4772 -1.0408  1.1331
10560SOL    HW249673   1.646   8.981  11.188 -0.5818 -0.3651  0.2301
10561SOL     OW49674   3.810  10.538   3.405 -0.1442 -0.3842  0.0278
10561SOL    HW149675   3.846  10.607   3.349 -1.9286  0.8960  0.3794
10561SOL    HW249676   3.731  10.509   3.360 -1.1680  0.0991  1.4530
10562SOL     OW49677   1.961  10.314   2.836  0.1838  0.1094  0.2097
10562SOL    HW149678   1.916  10.233   2.861 -1.6415  0.6298 -1.1537
10562SOL    HW249679   1.961  10.367   2.916  1.4393 -1.2042  1.1302
10563SOL     OW49680   6.513   8.113   9.267  0.3743 -0.4033  0.2104
10563SOL    HW149681   6.442   8.080   9.212  1.6439 -1.0583 -1.0905
10563SOL    HW249682   6.487   8.203   9.287 -1.0354 -0.7757  0.1419
10564SOL     OW49683   3.756  11.920   4.608 -0.2134 -0.4881 -0.1474
10564SOL    HW149684   3.830  11.925   4.547  0.1584 -0.2992  0.3091
10564SOL    HW249685   3.794  11.888   4.690 -0.9790 -2.2212 -0.4223
10565SOL     OW49686   4.565   6.065   8.296  0.5633  0.2443 -0.2153
10565SOL    HW149687   4.631   6.018   8.346  0.1361  0.7917  0.8832
10565SOL    HW249688   4.481   6.042   8.337  0.3675  2.2430  0.6441
10566SOL     OW49689   3.220   7.855   0.805 -0.5402 -0.2556  0.1883
10566SOL    HW149690   3.258   7.927   0.755  0.0845 -1.1258 -0.6158
10566SOL    HW249691   3.142   7.892   0.845  0.6078  1.3261  1.0930
10567SOL     OW49692   7.978  12.629   5.612  0.6309  0.2172  0.0314
10567SOL    HW149693   7.898  12.577   5.606  0.3297  0.7921 -1.4645
10567SOL    HW249694   7.951  12.718   5.587  1.4504  0.7521  0.9524
10568SOL     OW49695   1.407  13.226  11.613 -0.4957 -0.7375 -0.3491
10568SOL    HW149696   1.448  13.312  11.614 -0.0320 -0.9596  0.2251
10568SOL    HW249697   1.452  13.179  11.543 -1.4879 -0.1726 -1.3953
10569SOL     OW49698   5.510   2.061   9.456 -0.1495 -0.2532 -0.6596
10569SOL    HW149699   5.480   1.979   9.415 -2.7452  0.6750 -0.7938
10569SOL    HW249700   5.435   2.090   9.508  1.2400  1.3237  0.5565
10570SOL     OW49701   1.655   6.572  10.484 -0.2846 -0.0832  0.1634
10570SOL    HW149702   1.724   6.529  10.535 -1.7041 -2.5144  0.1579
10570SOL    HW249703   1.587   6.592  10.547 -0.3541  0.6688 -0.1349
10571SOL     OW49704  12.376  12.056  11.115 -0.2012  0.4873 -0.0686
10571SOL    HW149705  12.294  12.024  11.077 -0.3561  0.4880  0.2617
10571SOL    HW249706  12.426  12.088  11.040 -1.0894  1.8201 -0.1360
10572SOL     OW49707   9.106   4.305   9.313 -0.0072  0.3426  0.5977
10572SOL    HW149708   9.054   4.245   9.366  0.7295  0.6165  1.6548
10572SOL    HW249709   9.054   4.385   9.308 -0.3255  0.1241  0.4440
10573SOL     OW49710   4.649   8.522   5.472  0.4732 -0.0628  0.1061
10573SOL    HW149711   4.653   8.448   5.411 -0.3169  1.6264 -2.1351
10573SOL    HW249712   4.734   8.521   5.517  2.2796  0.1505 -3.0119
10574SOL     OW49713   9.702  13.924  13.257 -0.1915  0.2247 -0.3796
10574SOL    HW149714   9.719  13.879  13.174 -0.2447  0.6273 -0.6113
10574SOL    HW249715   9.630  13.984  13.237 -0.2749  0.2496 -0.0125
10575SOL     OW49716   7.458  11.401   3.052 -0.5333 -0.3009  0.3039
10575SOL    HW149717   7.456  11.396   3.147 -1.6293 -2.5128  0.2387
10575SOL    HW249718   7.548  11.426   3.031  0.2374 -1.5529  1.9023
10576SOL     OW49719   8.953  11.364   8.113 -0.1086 -0.6984 -0.3579
10576SOL    HW149720   9.040  11.404   8.113 -0.2084 -0.4496  0.4400
10576SOL    HW249721   8.893  11.438   8.113 -0.3019 -0.8453  0.4607
10577SOL     OW49722  10.377   4.931   9.227 -0.1064  0.1060  0.1522
10577SOL    HW149723  10.321   4.997   9.187  0.0401 -0.6204 -1.3310
10577SOL    HW249724  10.416   4.975   9.303 -0.5756  1.4727 -0.3653
10578SOL     OW49725   5.197   0.166   4.300 -0.0821  0.1330 -0.1760
10578SOL    HW149726   5.252   0.164   4.222  0.2008 -0.4104  0.0302
10578SOL    HW249727   5.223   0.088   4.350 -0.4580  0.3186  0.3214
10579SOL     OW49728   1.120   0.815   0.055 -0.0869  0.2628 -0.3335
10579SOL    HW149729   1.090   0.895   0.100  0.4407  0.2011  0.1434
10579SOL    HW249730   1.045   0.787   0.004 -0.0174  1.5449 -1.1886
10580SOL     OW49731  13.097   3.580   4.449  0.0472 -0.0810 -0.0295
10580SOL    HW149732  13.186   3.546   4.458  0.4501  0.6236 -1.0971
10580SOL    HW249733  13.078   3.621   4.534 -0.2942 -2.5073  1.1268
10581SOL     OW49734   4.590   9.448   7.855 -0.3107  0.2457  0.1132
10581SOL    HW149735   4.519   9.385   7.866 -0.5770  0.4049 -0.6664
10581SOL    HW249736   4.656   9.402   7.805  0.0073  0.1979  0.5752
10582SOL     OW49737   4.231  13.748   1.595  0.5343 -0.3220 -0.3957
10582SOL    HW149738   4.242  13.691   1.671 -0.9355 -0.1476 -0.0220
10582SOL    HW249739   4.306  13.728   1.539  0.0774 -2.6308 -0.2832
10583SOL     OW49740   6.248   0.506   9.136 -0.3721  0.4284 -0.2417
10583SOL    HW149741   6.156   0.515   9.159 -0.3545  1.7056 -0.5762
10583SOL    HW249742   6.278   0.596   9.123  1.2608  0.1534  1.2099
10584SOL     OW49743   3.721  11.335   3.342 -0.1097 -0.2590 -0.7802
10584SOL    HW149744   3.750  11.398   3.276 -0.2678 -1.1118 -1.6847
10584SOL    HW249745   3.664  11.386   3.400  2.0736  1.1387  0.2825
10585SOL     OW49746  12.610   4.734   9.764 -0.3017 -0.1709 -0.0687
10585SOL    HW149747  12.673   4.732   9.693 -0.5464 -0.4732 -0.2772
10585SOL    HW249748  12.608   4.645   9.798  0.4324  0.1539  0.8691
10586SOL     OW49749   2.348   0.386   2.822  0.4676 -0.5924  0.0991
10586SOL    HW149750   2.359   0.400   2.728  0.6879 -1.0727  0.0493
10586SOL    HW249751   2.438   0.384   2.856  0.5387 -2.8733 -0.0579
10587SOL     OW49752  12.751  11.169  11.907  0.1748 -0.4716  0.3881
10587SOL    HW149753  12.790  11.200  11.989 -0.3834 -0.6138  0.7152
10587SOL    HW249754  12.737  11.076  11.922  0.6254 -0.6200 -0.0993
10588SOL     OW49755   5.073   5.881  13.462 -0.3381 -0.0122  0.5291
10588SOL    HW149756   5.027   5.940  13.402 -0.2907 -0.0546  0.4517
10588SOL    HW249757   5.023   5.886  13.543  0.7795  1.7105  1.2019
10589SOL     OW49758   9.307  11.994   7.331  0.1384 -0.1142  0.3693
10589SOL    HW149759   9.228  11.952   7.298 -0.2992 -0.2009  1.4676
10589SOL    HW249760   9.277  12.045   7.407  0.8850  1.0449 -0.0795
10590SOL     OW49761   7.300   3.653   5.975 -0.0421 -0.1653  0.4752
10590SOL    HW149762   7.346   3.609   6.046  1.3435  0.1739 -0.1696
10590SOL    HW249763   7.245   3.585   5.935  0.4690 -0.7800  0.8029
10591SOL     OW49764   9.543  12.405   3.645 -0.0752 -0.3763 -0.0740
10591SOL    HW149765   9.516  12.412   3.736  1.1234 -0.9872  0.3479
10591SOL    HW249766   9.581  12.491   3.624 -0.0830 -0.3296  0.1034
10592SOL     OW49767   7.396   3.586   0.951  0.6682 -0.8559 -0.5689
10592SOL    HW149768   7.405   3.575   1.045  0.7583 -0.3522 -0.5210
10592SOL    HW249769   7.313   3.544   0.930 -0.1114  0.4034 -0.0389
10593SOL     OW49770   9.385   7.270   3.538  0.5849  0.2096 -0.2635
10593SOL    HW149771   9.305   7.237   3.578  1.6608  0.1964  1.9773
10593SOL    HW249772   9.428   7.193   3.501 -0.2327  0.1720 -1.1786
10594SOL     OW49773   0.083  11.684   8.448  0.4130 -0.0364  0.1697
10594SOL    HW149774   0.024  11.702   8.374  1.6727 -0.4958 -0.9794
10594SOL    HW249775   0.165  11.727   8.424 -0.1776  3.2042  3.0859
10595SOL     OW49776   8.589  10.249  11.527 -0.4506 -0.3321  0.4542
10595SOL    HW149777   8.529  10.210  11.591 -0.5454 -0.5844  0.2145
10595SOL    HW249778   8.561  10.341  11.521  1.0250  0.3270  2.5003
10596SOL     OW49779  12.009   3.648   4.826 -0.2343 -1.0672 -0.0844
10596SOL    HW149780  12.055   3.691   4.754 -1.0292  0.6849  0.4035
10596SOL    HW249781  12.030   3.555   4.816  1.8851 -0.5563 -0.9504
10597SOL     OW49782   0.081  10.072   6.174 -0.3014 -0.2197 -0.4980
10597SOL    HW149783   0.163  10.120   6.163 -0.6572  0.7734  0.8803
10597SOL    HW249784   0.065  10.033   6.089  1.1589  0.2797 -1.0425
10598SOL     OW49785   0.171   5.602   6.211 -0.4921 -0.4334 -0.0255
10598SOL    HW149786   0.234   5.535   6.239 -1.0678 -1.7212 -1.6642
10598SOL    HW249787   0.155   5.583   6.119 -3.6244 -0.4179  0.4249
10599SOL     OW49788  10.833   9.248   2.498  0.1377 -0.2265 -0.6190
10599SOL    HW149789  10.800   9.158   2.498  0.0516 -0.1970 -0.0150
10599SOL    HW249790  10.754   9.302   2.505  0.0928 -0.0568 -2.0934
10600SOL     OW49791   5.863   2.167  12.013  0.4282  0.6969  0.4839
10600SOL    HW149792   5.880   2.240  12.073  0.8836  0.3307  0.8086
10600SOL    HW249793   5.940   2.111  12.022  0.7404  0.8922 -0.8353
10601SOL     OW49794   9.776   3.211   1.294  0.4063 -0.5837  0.1807
10601SOL    HW149795   9.854   3.231   1.242 -0.0009 -0.4881 -0.3899
10601SOL    HW249796   9.717   3.284   1.279 -0.7452 -1.7508 -1.2642
10602SOL     OW49797  11.801  12.421  10.288 -0.6817 -0.0641 -0.2762
10602SOL    HW149798  11.837  12.474  10.359  2.1712  0.1390 -1.7333
10602SOL    HW249799  11.774  12.485  10.222  1.8205 -0.2446 -1.6050
10603SOL     OW49800   0.987   1.523  13.324 -0.2357  0.0918 -0.8467
10603SOL    HW149801   1.027   1.455  13.270  0.9740  0.8558 -0.9610
10603SOL    HW249802   0.931   1.572  13.264  0.8616  0.7453 -1.3632
10604SOL     OW49803   2.332  13.619  11.521 -0.4808 -0.6590 -0.1049
10604SOL    HW149804   2.305  13.546  11.464  0.6226  0.1604 -1.7631
10604SOL    HW249805   2.410  13.654  11.479 -1.0522  1.5837  0.5666
10605SOL     OW49806   0.243   9.155   4.410 -0.1565  0.0260  0.3549
10605SOL    HW149807   0.242   9.240   4.455 -0.6835  0.5545 -0.6240
10605SOL    HW249808   0.275   9.175   4.322 -0.8362 -0.6998 -0.0655
10606SOL     OW49809  11.955   2.325   4.989 -0.0401  0.0154  0.2271
10606SOL    HW149810  11.875   2.319   5.041 -0.0500 -1.0734  0.1185
10606SOL    HW249811  11.932   2.287   4.904  0.7208 -0.8516  0.3813
10607SOL     OW49812   8.197  10.086   2.247  0.0176 -0.4104 -0.4324
10607SOL    HW149813   8.168  10.007   2.292 -2.6627  0.9255  0.4131
10607SOL    HW249814   8.167  10.074   2.156 -2.5472  0.5029  0.2017
10608SOL     OW49815  10.908   1.792   0.412  0.3011 -0.6157  0.0006
10608SOL    HW149816  10.912   1.882   0.444 -1.2180 -0.7870  0.7362
10608SOL    HW249817  10.995   1.776   0.375  0.4139  1.3405 -0.6877
10609SOL     OW49818   7.329   9.591   8.854 -0.6910 -0.3633  0.1592
10609SOL    HW149819   7.370   9.537   8.922  0.2263  0.8756  0.6166
10609SOL    HW249820   7.281   9.528   8.800  0.3462 -1.6435  0.6670
10610SOL     OW49821   4.895   6.428   2.553  0.3618 -0.0382 -0.7666
10610SOL    HW149822   4.916   6.372   2.628 -0.2652  1.8995  0.9703
10610SOL    HW249823   4.801   6.442   2.559  0.3848  0.5840 -1.6283
10611SOL     OW49824   9.105   6.159  12.439 -0.0031  0.1547  0.2969
10611SOL    HW149825   9.102   6.245  12.481  0.6961  1.0702 -1.4318
10611SOL    HW249826   9.132   6.099  12.508  1.1397  1.6026  1.1577
10612SOL     OW49827   4.842   4.109  11.284  0.1082 -0.3140 -0.4770
10612SOL    HW149828   4.848   4.199  11.251 -0.1696  0.2630  0.9503
10612SOL    HW249829   4.748   4.089  11.282  0.2786 -1.0457 -1.9436
10613SOL     OW49830  10.559   9.226   0.846 -0.2584 -0.3585 -0.3531
10613SOL    HW149831  10.615   9.292   0.804 -1.8518  0.8366 -0.6955
10613SOL    HW249832  10.555   9.154   0.783  0.6164 -0.3307 -0.4530
10614SOL     OW49833  12.128   0.078  12.412 -0.0248 -0.1711  0.1118
10614SOL    HW149834  12.200   0.140  12.422 -1.2796  1.2556  0.5754
10614SOL    HW249835  12.143   0.012  12.480 -1.6202  2.6312  3.4811
10615SOL     OW49836  13.503   2.737   7.380 -0.2145 -0.1748  0.5843
10615SOL    HW149837  13.575   2.682   7.412  1.0462  1.5554  0.8774
10615SOL    HW249838  13.456   2.763   7.459 -0.3816 -0.2408  0.5072
10616SOL     OW49839   5.426   6.498   2.081 -0.4504 -0.0818  0.7990
10616SOL    HW149840   5.497   6.484   2.145  0.8881 -1.2848 -0.8740
10616SOL    HW249841   5.412   6.593   2.082  2.7655  0.5316 -0.3438
10617SOL     OW49842   0.904   9.517   5.390 -0.0406  0.2677 -0.4709
10617SOL    HW149843   0.861   9.453   5.447 -1.8397  0.9332 -0.9971
10617SOL    HW249844   0.903   9.476   5.304  0.6598  0.1755 -0.4390
10618SOL     OW49845   6.027   6.216  12.496 -0.6168 -0.2064 -0.1710
10618SOL    HW149846   5.940   6.180  12.482 -0.0080 -2.4065  1.2225
10618SOL    HW249847   6.047   6.195  12.587  1.2533  0.5640 -0.3558
10619SOL     OW49848  13.034   3.287   3.122  0.5150 -0.3871 -0.1987
10619SOL    HW149849  12.990   3.371   3.134 -1.2513 -1.3468  0.4786
10619SOL    HW249850  12.970   3.222   3.151  1.5552 -2.0162 -1.3420
10620SOL     OW49851   6.614  10.163   3.731 -0.1941 -0.3285  0.1266
10620SOL    HW149852   6.521  10.182   3.726 -0.0176  0.3560 -0.8947
10620SOL    HW249853   6.629  10.100   3.660  0.3702  0.7072 -0.7000
10621SOL     OW49854   0.857   4.088  10.990 -0.3444 -0.0096  0.1150
10621SOL    HW149855   0.897   4.002  10.997 -1.1280 -0.5076 -1.1618
10621SOL    HW249856   0.913   4.145  11.043  0.8084 -1.0863  0.0995
10622SOL     OW49857   3.825   9.302   5.474 -0.4423  0.2130  0.1507
10622SOL    HW149858   3.760   9.319   5.541  0.3395 -4.5559  2.5542
10622SOL    HW249859   3.789   9.228   5.424  1.3134  0.2175 -1.2371
10623SOL     OW49860   1.863   2.503   0.144  0.0915 -0.4513  0.6087
10623SOL    HW149861   1.875   2.597   0.132 -2.4061 -0.2424 -1.2056
10623SOL    HW249862   1.805   2.495   0.220 -0.2472 -0.4534  0.3545
10624SOL     OW49863   2.216  11.492   9.142  0.1275 -0.1778 -0.4405
10624SOL    HW149864   2.204  11.519   9.233  0.6909 -0.2765 -0.3332
10624SOL    HW249865   2.251  11.569   9.099 -0.9965  0.1553 -0.7863
10625SOL     OW49866  10.829  12.456  10.195 -0.1201 -0.4201 -0.0374
10625SOL    HW149867  10.740  12.477  10.223 -0.4404 -1.5574 -0.1589
10625SOL    HW249868  10.828  12.362  10.179  1.3604 -0.6312  0.8798
10626SOL     OW49869  10.242   0.550   3.503  0.8487 -0.1904  0.9300
10626SOL    HW149870  10.246   0.646   3.502  1.9326 -0.2300  0.5928
10626SOL    HW249871  10.193   0.529   3.582 -0.9369  0.6761  0.1259
10627SOL     OW49872  10.371   6.922   5.183  0.3447 -0.3499 -0.2280
10627SOL    HW149873  10.327   7.006   5.171  0.9222  0.0545  0.4559
10627SOL    HW249874  10.303   6.864   5.218  0.3726  0.3176  0.9891
10628SOL     OW49875  10.998   3.836   0.872  0.1121  0.0949  0.2925
10628SOL    HW149876  11.012   3.793   0.956  1.5112  0.1213  0.0944
10628SOL    HW249877  11.033   3.774   0.807  0.1079  0.5653 -0.1679
10629SOL     OW49878  11.943   1.720   0.686 -0.5047 -0.1766 -0.1374
10629SOL    HW149879  11.981   1.673   0.760 -1.6884 -1.2780 -0.1859
10629SOL    HW249880  11.876   1.777   0.726  1.0754  1.7220 -0.0521
10630SOL     OW49881   6.570  12.102  10.623  0.2193 -0.6375  0.2819
10630SOL    HW149882   6.653  12.080  10.580 -0.6411 -2.9748 -0.3185
10630SOL    HW249883   6.509  12.121  10.552 -0.2368 -0.7477  0.6365
10631SOL     OW49884  10.022   9.294   5.361  0.2194  0.1685 -0.2545
10631SOL    HW149885  10.061   9.256   5.440 -1.3058 -1.1627 -0.0755
10631SOL    HW249886  10.050   9.386   5.362  0.9416 -0.0304  1.3657
10632SOL     OW49887   8.725   9.308   3.862 -0.0491 -0.2967 -0.5741
10632SOL    HW149888   8.712   9.387   3.914 -0.7874 -1.6271  1.4228
10632SOL    HW249889   8.670   9.242   3.906  1.3808 -2.1770 -1.4790
10633SOL     OW49890   2.111   2.322   9.976  0.1752  0.3142  0.2137
10633SOL    HW149891   2.146   2.234   9.975  0.5998  0.4819  0.2028
10633SOL    HW249892   2.018   2.311   9.955  0.5931  0.0385 -1.6775
10634SOL     OW49893  10.751  11.502   2.897 -0.0652  0.3229  0.1721
10634SOL    HW149894  10.778  11.429   2.953  0.8408  1.3801  1.1547
10634SOL    HW249895  10.709  11.564   2.957  1.3071  1.6759 -0.1945
10635SOL     OW49896  12.570  13.837   5.274 -1.1892 -0.1757 -0.1779
10635SOL    HW149897  12.649  13.789   5.248  1.1833  2.9316  0.6162
10635SOL    HW249898  12.498  13.788   5.235  1.0613 -3.3833 -0.7227
10636SOL     OW49899  12.852   7.377  10.004  0.3582  0.0555  0.3782
10636SOL    HW149900  12.910   7.453   9.997  0.1727  0.0595 -2.7100
10636SOL    HW249901  12.764   7.414  10.009  0.4132  0.0270  1.8230
10637SOL     OW49902  11.042   8.495  12.500  0.3609  0.2400  1.0238
10637SOL    HW149903  11.056   8.422  12.439 -0.0591  1.7617 -1.0170
10637SOL    HW249904  11.115   8.490  12.561  0.5183 -1.6760  0.7249
10638SOL     OW49905   8.966  14.152   4.526 -0.1290  0.7483 -0.0488
10638SOL    HW149906   8.971  14.106   4.443  1.9844  1.9741 -0.6601
10638SOL    HW249907   8.921  14.234   4.506 -2.2875 -0.1976  0.6754
10639SOL     OW49908   6.231  12.446  10.071 -0.0748 -0.1788 -0.8162
10639SOL    HW149909   6.251  12.537  10.049 -0.7930 -0.1722 -1.5174
10639SOL    HW249910   6.313  12.409  10.102 -0.4399  1.6707  2.9765
10640SOL     OW49911   3.313  11.575  10.446  0.2792 -0.0654  0.0971
10640SOL    HW149912   3.293  11.536  10.531  1.1941 -1.5703 -0.3394
10640SOL    HW249913   3.353  11.504  10.396  2.0061  1.4286 -0.7574
10641SOL     OW49914  14.078   5.656  10.137 -0.2134 -0.2294 -0.2394
10641SOL    HW149915  14.025   5.713  10.082 -0.0036 -0.2978 -0.5129
10641SOL    HW249916  14.015   5.594  10.176 -0.3804 -0.0876 -0.2832
10642SOL     OW49917  13.767   8.391  12.546 -0.1669  0.2093 -0.0028
10642SOL    HW149918  13.835   8.405  12.481  0.7559  2.2046  1.2879
10642SOL    HW249919  13.686   8.420  12.505 -0.7158 -3.6230 -2.1308
10643SOL     OW49920  12.599   8.684   7.790 -0.3135 -0.2626 -0.2656
10643SOL    HW149921  12.512   8.653   7.766 -1.0867  0.9392  0.8451
10643SOL    HW249922  12.655   8.607   7.780 -1.3069 -0.8372 -1.8561
10644SOL     OW49923   4.761   1.606  11.969 -0.5040  0.4123 -0.4121
10644SOL    HW149924   4.810   1.688  11.980 -0.7838  0.3386  1.7612
10644SOL    HW249925   4.818   1.540  12.009 -0.5752 -0.3716 -1.5721
10645SOL     OW49926   0.520   9.679   1.943  0.3274  0.2692 -0.7285
10645SOL    HW149927   0.515   9.674   1.847  0.4973  2.7667 -0.9265
10645SOL    HW249928   0.570   9.602   1.968 -1.1584 -1.3711 -2.4786
10646SOL     OW49929  13.800   5.513   9.703  0.0710 -0.1645 -0.1370
10646SOL    HW149930  13.743   5.475   9.636  1.4129 -0.9883 -0.8452
10646SOL    HW249931  13.884   5.527   9.660  0.3534  1.3203  0.8054
10647SOL     OW49932   4.498  13.049  10.727 -0.1599 -0.6182  0.9061
10647SOL    HW149933   4.408  13.080  10.738  0.2798  0.1104  2.9477
10647SOL    HW249934   4.514  12.993  10.804  1.2005 -0.5452  0.7045
10648SOL     OW49935  11.952   3.691   9.931 -0.4550 -0.2179 -0.1786
10648SOL    HW149936  11.982   3.779   9.957  0.3850 -0.5275 -0.0695
10648SOL    HW249937  12.025   3.655   9.881 -0.5522 -1.0782  0.2798
10649SOL     OW49938   8.104   2.820   3.444  0.2070  0.6862  0.0542
10649SOL    HW149939   8.188   2.857   3.470  1.1298 -0.2186 -1.5379
10649SOL    HW249940   8.124   2.731   3.415 -1.3362  0.3769 -0.1581
10650SOL     OW49941   1.781   0.377   2.954  0.1265  0.3090 -0.0991
10650SOL    HW149942   1.708   0.316   2.943  1.3236 -1.4234  1.1125
10650SOL    HW249943   1.860   0.324   2.942  1.2242  1.6675  0.7263
10651SOL     OW49944   9.381  12.165  10.911  0.8363 -0.4469 -0.4537
10651SOL    HW149945   9.443  12.223  10.955 -0.0707 -0.6996  1.2479
10651SOL    HW249946   9.391  12.185  10.817  0.4188  2.6191  0.0563
10652SOL     OW49947   6.117  10.640   1.823  0.3583 -0.0381 -0.7718
10652SOL    HW149948   6.147  10.550   1.807 -0.5727 -0.6551  0.7186
10652SOL    HW249949   6.131  10.653   1.917 -2.6470  0.1023 -0.2356
10653SOL     OW49950   2.950   3.819   8.138  0.6376 -0.0462 -0.1864
10653SOL    HW149951   3.011   3.810   8.065  0.9542 -0.0166  0.0729
10653SOL    HW249952   2.930   3.728   8.163  0.1377 -0.0627 -0.6302
10654SOL     OW49953   6.804   5.154   6.447 -0.3074  0.2678 -0.4695
10654SOL    HW149954   6.774   5.242   6.470 -0.5724  0.0380  0.0864
10654SOL    HW249955   6.723   5.102   6.443 -0.0999 -0.0757 -0.2163
10655SOL     OW49956   8.384  11.567   4.789 -0.2632  0.4898 -0.3643
10655SOL    HW149957   8.307  11.512   4.773  0.2079 -0.1403 -0.4995
10655SOL    HW249958   8.378  11.589   4.882  0.8294 -1.8523  0.3451
10656SOL     OW49959   7.989   1.000  11.675 -0.3963  0.3112 -0.5660
10656SOL    HW149960   7.932   0.925  11.686 -1.2000  1.1160  1.1086
10656SOL    HW249961   7.930   1.076  11.676  0.5582  1.0743 -0.2450
10657SOL     OW49962   9.085   3.872  13.702  0.1838 -0.4450 -0.0450
10657SOL    HW149963   9.119   3.884  13.613 -0.3478 -1.5617 -0.4180
10657SOL    HW249964   9.163   3.875  13.758  0.7988 -1.8917 -0.7753
10658SOL     OW49965   3.661  10.990   7.645  0.6577  0.1686  0.2530
10658SOL    HW149966   3.594  11.051   7.615  0.1280 -1.6739 -2.6773
10658SOL    HW249967   3.730  11.046   7.681 -1.2512  2.2466  0.9100
10659SOL     OW49968   6.479  12.870  12.600  0.1114  0.1084  0.7144
10659SOL    HW149969   6.436  12.799  12.648  0.3436 -1.7583 -1.6485
10659SOL    HW249970   6.441  12.950  12.636 -0.8951 -1.2229  2.8003
10660SOL     OW49971   3.077   1.284  14.007 -0.1028  0.2950 -0.5133
10660SOL    HW149972   3.016   1.221  14.044  0.5353 -0.2134 -0.3078
10660SOL    HW249973   3.152   1.283  14.067 -0.1219  1.3161 -0.4519
10661SOL     OW49974   1.935  12.145   9.841 -0.3061 -0.1891  0.2528
10661SOL    HW149975   1.900  12.208   9.778 -0.0867  1.0080  1.2854
10661SOL    HW249976   1.903  12.061   9.810 -3.0230  0.6915  0.3979
10662SOL     OW49977   8.313  11.941  13.011  0.1454  0.3117  0.0818
10662SOL    HW149978   8.364  11.975  12.938  1.0542 -0.7571  0.1848
10662SOL    HW249979   8.377  11.895  13.066 -0.4514  1.4155  1.7693
10663SOL     OW49980  11.581  10.601  10.835 -0.2000  0.0893 -0.7718
10663SOL    HW149981  11.648  10.588  10.902 -0.5890 -0.2519 -0.4393
10663SOL    HW249982  11.611  10.549  10.760  0.1235  0.2884 -0.7801
10664SOL     OW49983  11.174   4.337   9.864  0.8152  0.0005  0.4642
10664SOL    HW149984  11.177   4.409   9.801  3.0169 -0.4322 -0.0215
10664SOL    HW249985  11.189   4.380   9.949  1.2100  0.2254  0.2855
10665SOL     OW49986  13.036   5.108   7.932 -0.1657 -0.3427  0.4986
10665SOL    HW149987  13.041   5.039   7.866  1.3156 -0.8805  1.1307
10665SOL    HW249988  13.096   5.175   7.900 -0.7445  0.1688  0.4609
10666SOL     OW49989   3.344  11.151   5.851  0.2095 -0.2900  0.1877
10666SOL    HW149990   3.319  11.080   5.910  1.1008 -0.4441  0.3976
10666SOL    HW249991   3.274  11.154   5.786 -0.0208 -1.1305  0.3798
10667SOL     OW49992  13.297  11.541   3.235  0.3308  0.4960  0.0371
10667SOL    HW149993  13.371  11.566   3.181  1.2707 -1.8925  0.1050
10667SOL    HW249994  13.240  11.490   3.176  1.3230 -2.0642  1.1186
10668SOL     OW49995  13.017   1.140   2.850  0.0867  0.0228 -0.6332
10668SOL    HW149996  12.988   1.226   2.880  1.8301 -0.1183  1.7878
10668SOL    HW249997  13.072   1.159   2.774  0.6016  1.1063 -0.0204
10669SOL     OW49998   1.956   7.498   2.720 -0.4305 -0.5183  0.5331
10669SOL    HW149999   2.050   7.504   2.738 -0.6184 -0.0424  1.4025
10669SOL    HW250000   1.951   7.455   2.634  0.5561 -1.0903  0.7423
10670SOL     OW50001   2.890  12.565  11.260  0.0449 -0.5685 -0.3022
10670SOL    HW150002   2.880  12.551  11.354  0.8381 -1.4974 -0.3491
10670SOL    HW250003   2.942  12.645  11.253 -2.5648  1.2846 -0.0150
10671SOL     OW50004   8.372   6.458   0.902 -0.5129 -0.2118  0.8068
10671SOL    HW150005   8.421   6.428   0.978 -0.7312 -0.2126  0.9474
10671SOL    HW250006   8.403   6.402   0.830 -0.4933 -0.3817  0.9475
10672SOL     OW50007  13.634   5.624   6.578  0.5798 -0.1418 -0.2030
10672SOL    HW150008  13.563   5.688   6.568 -0.6606 -1.4644 -0.2850
10672SOL    HW250009  13.699   5.669   6.632  0.2710  1.5623 -1.1870
10673SOL     OW50010   7.014   7.119  12.192  0.2350  0.1833 -0.0599
10673SOL    HW150011   7.011   7.033  12.149 -1.1502 -0.6080  1.5366
10673SOL    HW250012   6.922   7.144  12.202  0.5379  0.7007  1.7122
10674SOL     OW50013   5.934  12.242  11.770 -0.4403 -0.4055  0.1270
10674SOL    HW150014   5.960  12.299  11.697  1.4057 -0.4517  0.7144
10674SOL    HW250015   5.877  12.297  11.824  2.3060  1.4485  1.3774
10675SOL     OW50016   8.431   5.071   8.124 -0.0443  0.2911 -0.1873
10675SOL    HW150017   8.507   5.013   8.120 -0.7723 -0.8089  1.0743
10675SOL    HW250018   8.377   5.035   8.195 -0.1910  2.9261  1.1627
10676SOL     OW50019   7.309   1.874   0.143  0.3153  0.0202 -0.5548
10676SOL    HW150020   7.325   1.966   0.168  0.2900 -0.1070 -0.0664
10676SOL    HW250021   7.375   1.857   0.076 -0.1036  0.5961 -1.1277
10677SOL     OW50022  12.108  10.644  10.555  0.4822 -0.2131  0.2405
10677SOL    HW150023  12.203  10.634  10.553  0.5238  0.1234  0.5771
10677SOL    HW250024  12.091  10.726  10.508  0.2378 -1.0486 -1.2209
10678SOL     OW50025   4.923   0.387  11.720 -0.3513  0.6875 -0.0475
10678SOL    HW150026   4.983   0.319  11.750 -1.0215 -0.0410 -0.3038
10678SOL    HW250027   4.921   0.377  11.625 -1.1664  0.4391 -0.0129
10679SOL     OW50028   9.597   4.545  10.686 -0.0739  0.0406  0.6065
10679SOL    HW150029   9.633   4.625  10.647 -0.2052  0.4913  1.3943
10679SOL    HW250030   9.588   4.566  10.779  0.6354 -1.1565  0.9644
10680SOL     OW50031   2.067  10.668   9.332 -0.3294 -0.4364 -0.1794
10680SOL    HW150032   2.143  10.641   9.383  0.7404 -0.8213 -1.9065
10680SOL    HW250033   2.003  10.598   9.345  0.4832 -1.2600 -0.5124
10681SOL     OW50034  12.857   8.981   8.276 -0.5180  0.0629  0.0655
10681SOL    HW150035  12.863   9.056   8.335  0.5605 -0.8147  1.1010
10681SOL    HW250036  12.771   8.944   8.292 -1.6750  1.8622 -1.4848
10682SOL     OW50037   7.086   0.363   2.523  0.3436 -0.3914  0.0821
10682SOL    HW150038   7.071   0.293   2.460  1.5802 -0.3704 -0.2626
10682SOL    HW250039   6.999   0.384   2.557 -0.7691  1.0910 -3.2100
10683SOL     OW50040  11.390   1.154  11.763 -0.0680  0.0011 -0.0693
10683SOL    HW150041  11.435   1.236  11.786  0.0647  0.1592 -0.8750
10683SOL    HW250042  11.454   1.104  11.714 -0.3981 -0.2732 -0.2251
10684SOL     OW50043   1.876   2.265   4.469  0.6229  0.1745  0.2579
10684SOL    HW150044   1.958   2.268   4.421  0.8805  0.2231  0.6971
10684SOL    HW250045   1.874   2.178   4.508 -0.8375 -0.8984 -1.9921
10685SOL     OW50046   9.343   1.517   0.747 -0.0541 -0.6884  0.1337
10685SOL    HW150047   9.353   1.524   0.842 -1.3219  1.3950  0.1758
10685SOL    HW250048   9.419   1.562   0.711  0.4918 -1.5875  0.1353
10686SOL     OW50049  10.063  12.516  11.863 -0.4229 -0.2703  0.5526
10686SOL    HW150050   9.969  12.500  11.855 -1.2233  1.3398  4.5696
10686SOL    HW250051  10.083  12.574  11.789 -2.9429  0.5984  0.4366
10687SOL     OW50052   5.443   6.780   1.680 -0.4403  0.0350 -0.0793
10687SOL    HW150053   5.424   6.791   1.587 -1.8022  1.3996  0.3275
10687SOL    HW250054   5.384   6.710   1.709  0.8544 -1.2788 -0.4491
10688SOL     OW50055   7.545   8.119   4.955 -0.2186 -0.2732 -0.4963
10688SOL    HW150056   7.459   8.160   4.940 -0.6260 -1.0967 -0.4479
10688SOL    HW250057   7.525   8.036   4.998  0.7001  0.1500  0.7946
10689SOL     OW50058  10.470  12.610  14.071 -0.1791  0.4206  0.1544
10689SOL    HW150059  10.435  12.680  14.017 -0.0714  0.9381  0.7526
10689SOL    HW250060  10.564  12.627  14.075  0.0677 -0.5423 -0.8306
10690SOL     OW50061   3.911   4.944  11.415 -0.5430  0.4998  0.6076
10690SOL    HW150062   3.926   4.963  11.322 -0.1108 -0.4095  0.4836
10690SOL    HW250063   3.997   4.952  11.456 -0.3944 -0.8778  0.5971
10691SOL     OW50064  12.129   9.566   7.534 -0.2388 -0.2041  0.6539
10691SOL    HW150065  12.036   9.545   7.527 -0.1100 -0.5844 -0.0291
10691SOL    HW250066  12.161   9.562   7.444  0.0439  1.7744  0.6199
10692SOL     OW50067   2.629   2.224  10.979  0.5649  0.4395 -0.2322
10692SOL    HW150068   2.719   2.210  10.948 -0.1303 -0.4213 -2.0313
10692SOL    HW250069   2.593   2.287  10.917 -0.7450 -0.9649 -0.9700
10693SOL     OW50070   1.326   5.461   4.736 -0.5532  0.1063  0.0060
10693SOL    HW150071   1.418   5.453   4.711  0.0261  1.4825  1.5210
10693SOL    HW250072   1.323   5.538   4.792 -2.8104  0.6690 -0.7710
10694SOL     OW50073  11.807  10.914   7.806 -0.0083  0.0527 -0.4249
10694SOL    HW150074  11.749  10.977   7.849 -0.4358 -1.5555  1.4743
10694SOL    HW250075  11.748  10.851   7.764  0.4149  0.4554 -1.6810
10695SOL     OW50076   2.068   4.717  11.175  0.1436 -0.0006  0.3488
10695SOL    HW150077   2.005   4.752  11.238  1.2116  0.1460  1.3860
10695SOL    HW250078   2.054   4.623  11.177  1.3907 -0.2129  2.2710
10696SOL     OW50079   3.536   4.168   4.709  0.3561  0.0299  0.5595
10696SOL    HW150080   3.514   4.260   4.694 -0.8871 -0.1755  0.9694
10696SOL    HW250081   3.458   4.120   4.682  0.8178 -0.8735  0.7885
10697SOL     OW50082   7.334  14.058  13.367  0.3045 -0.5437 -0.2839
10697SOL    HW150083   7.260  14.108  13.402  0.9742 -0.1206  0.5679
10697SOL    HW250084   7.294  13.992  13.310 -0.7688 -0.7597  0.6890
10698SOL     OW50085  13.369   8.735   2.836 -0.4941 -0.5973  0.4614
10698SOL    HW150086  13.345   8.773   2.751  1.3824 -1.2701 -0.4260
10698SOL    HW250087  13.355   8.641   2.824 -0.2792 -0.6916  0.9411
10699SOL     OW50088   8.089   6.787   5.943  0.0207 -0.5167 -0.1312
10699SOL    HW150089   8.125   6.799   5.855 -0.0375  0.5239 -0.0308
10699SOL    HW250090   8.004   6.746   5.928  0.9680 -2.4675 -0.4006
10700SOL     OW50091   7.070   1.341  10.130 -0.9372 -0.3758 -0.2194
10700SOL    HW150092   6.976   1.325  10.141 -1.0428  1.3861  2.2612
10700SOL    HW250093   7.112   1.258  10.156 -1.7588 -0.9304 -0.6264
10701SOL     OW50094   1.308   7.349   6.956 -0.3889 -0.6336 -0.4297
10701SOL    HW150095   1.337   7.294   6.884 -0.6612 -0.4373 -0.6961
10701SOL    HW250096   1.229   7.305   6.989 -1.3657  0.2408 -1.4759
10702SOL     OW50097   0.902   2.477   9.585  0.1491  0.3076 -0.2963
10702SOL    HW150098   0.909   2.455   9.492  2.4092 -0.8758  0.0829
10702SOL    HW250099   0.844   2.409   9.621  0.6745 -0.2873 -0.5511
10703SOL     OW50100  12.789  11.845   3.830  0.0751 -0.1973 -0.4411
10703SOL    HW150101  12.783  11.864   3.736  1.3089  0.0053 -0.4867
10703SOL    HW250102  12.882  11.848   3.850 -0.1943  0.1783  0.8867
10704SOL     OW50103   1.954   7.496  11.927  0.4235  0.1611  0.1035
10704SOL    HW150104   1.964   7.513  12.020  0.4110 -1.4332  0.4236
10704SOL    HW250105   2.025   7.545  11.886 -0.6410  2.3615  0.7314
10705SOL     OW50106   2.448   1.414  13.131  0.3435  0.1274  0.1580
10705SOL    HW150107   2.539   1.440  13.147  0.3940  0.8688 -1.2088
10705SOL    HW250108   2.406   1.421  13.217  1.9186 -1.8003  1.1489
10706SOL     OW50109   5.280   6.207   9.631  0.0171 -0.4641 -0.5733
10706SOL    HW150110   5.283   6.133   9.569  0.5841 -0.4094 -0.6133
10706SOL    HW250111   5.361   6.200   9.680 -0.8294 -1.0313  0.7848
10707SOL     OW50112  12.684   2.736   1.493  1.4512  0.7054 -0.0239
10707SOL    HW150113  12.729   2.659   1.457  0.8315 -0.8429  2.2708
10707SOL    HW250114  12.750   2.804   1.495  3.1407 -0.8591  1.1914
10708SOL     OW50115  11.251   3.697  10.153 -0.2960  0.3568  0.4252
10708SOL    HW150116  11.240   3.774  10.097  1.2280  1.0220  0.9662
10708SOL    HW250117  11.162   3.667  10.171 -0.9638  2.2390  0.5259
10709SOL     OW50118   9.415  12.379   8.300  0.2221 -0.3784  0.8717
10709SOL    HW150119   9.442  12.378   8.393 -1.1651  3.0250  1.4254
10709SOL    HW250120   9.496  12.397   8.253  0.5726  0.1236  1.6366
10710SOL     OW50121   8.557   6.129   9.338  0.6156  0.1170 -0.2120
10710SOL    HW150122   8.465   6.135   9.311  0.2529 -1.1556  0.6924
10710SOL    HW250123   8.591   6.218   9.323 -0.4629  0.3460 -1.5428
10711SOL     OW50124   6.607  13.555  13.659  0.0823 -0.1019  0.0370
10711SOL    HW150125   6.528  13.519  13.698  0.2873  0.7067  1.2294
10711SOL    HW250126   6.614  13.511  13.574 -1.2458 -0.7026  0.2236
10712SOL     OW50127   2.692   1.167   5.010  0.1086 -0.1187  0.2865
10712SOL    HW150128   2.739   1.134   4.934  0.7809  1.5291 -0.0528
10712SOL    HW250129   2.687   1.262   4.996 -1.7078 -0.0427  1.2246
10713SOL     OW50130   4.414  11.588  10.238 -0.7360 -0.3025 -0.2173
10713SOL    HW150131   4.453  11.568  10.153 -0.0717  1.9881 -0.5130
10713SOL    HW250132   4.321  11.568  10.227 -1.0211  1.8004 -2.1737
10714SOL     OW50133   6.022  12.143   2.954  0.0294 -0.0125 -0.4067
10714SOL    HW150134   5.972  12.207   3.005  1.8880  1.5911 -0.4656
10714SOL    HW250135   5.982  12.059   2.976  0.5174  0.5980  3.5092
10715SOL     OW50136   8.420   1.262   9.324 -0.2342  0.1674  0.4677
10715SOL    HW150137   8.399   1.208   9.249 -0.8413 -1.4132  1.7174
10715SOL    HW250138   8.508   1.233   9.351 -0.1638  0.4791  0.5837
10716SOL     OW50139  10.169   3.681  11.049 -0.0054 -0.2444 -0.4322
10716SOL    HW150140  10.091   3.730  11.077 -1.4822 -1.0035 -2.8689
10716SOL    HW250141  10.229   3.748  11.016  0.5384  0.3683  1.6414
10717SOL     OW50142   5.954   3.979   9.750 -0.5110  0.6163  0.6596
10717SOL    HW150143   5.889   3.938   9.693  1.4274 -0.0004 -1.2078
10717SOL    HW250144   5.993   3.907   9.799 -0.0601  0.7738  0.5322
10718SOL     OW50145   9.357   6.641  13.308 -0.8606 -0.3381  0.5642
10718SOL    HW150146   9.397   6.694  13.376 -1.4749 -0.2928  0.8948
10718SOL    HW250147   9.277   6.688  13.284 -0.8892 -0.5926  0.1422
10719SOL     OW50148   0.052   5.875  13.353 -0.2132  0.0259 -0.1959
10719SOL    HW150149   0.118   5.936  13.320 -0.9342  0.3711 -1.0495
10719SOL    HW250150   0.075   5.792  13.311  0.9445 -0.3950  1.1966
10720SOL     OW50151   9.664   7.524   7.596 -0.0787 -0.0250 -0.1338
10720SOL    HW150152   9.612   7.506   7.517  0.0120  0.5883 -0.3368
10720SOL    HW250153   9.612   7.487   7.668  0.0836 -1.0590 -0.5234
10721SOL     OW50154  14.009   2.345  14.104 -0.0865 -0.6906 -0.2097
10721SOL    HW150155  13.950   2.285  14.059 -0.9703 -0.5702  0.7821
10721SOL    HW250156  13.954   2.420  14.129  0.4464 -0.6300  0.8314
10722SOL     OW50157   1.853   1.472  12.576  0.0806 -0.0028 -0.2030
10722SOL    HW150158   1.853   1.527  12.655 -0.3375  1.9856 -1.5151
10722SOL    HW250159   1.944   1.475  12.545  0.7114 -2.3726  1.1732
10723SOL     OW50160   9.795   9.714  12.946 -0.4614 -0.1522  0.5873
10723SOL    HW150161   9.758   9.802  12.951 -0.9488 -0.3539  0.5746
10723SOL    HW250162   9.811   9.689  13.037  0.8164  0.4198  0.5368
10724SOL     OW50163   1.153   9.149   5.192  0.1789  0.0725  0.1663
10724SOL    HW150164   1.116   9.090   5.258  1.1305  0.7820  1.3823
10724SOL    HW250165   1.221   9.097   5.149  0.8677  0.1722  1.0882
10725SOL     OW50166   8.692   2.537   7.453 -0.1614  0.7332  0.0330
10725SOL    HW150167   8.665   2.594   7.381 -1.4806  2.1645  1.5692
10725SOL    HW250168   8.611   2.495   7.481  0.5703 -0.8399 -0.1491
10726SOL     OW50169   6.543   9.052   5.017 -0.7502  0.5855  0.0109
10726SOL    HW150170   6.462   9.103   5.026 -0.7539  0.7958 -1.1016
10726SOL    HW250171   6.516   8.961   5.030 -1.0881  0.6888  0.0436
10727SOL     OW50172   0.014  10.668  12.200 -0.4150 -0.3559 -0.1434
10727SOL    HW150173   0.030  10.705  12.113 -2.3796  1.0645  0.0350
10727SOL    HW250174  -0.079  10.681  12.215 -0.9388 -3.9229  0.6894
10728SOL     OW50175   7.591   2.787   9.295  0.2276  0.6232 -0.3121
10728SOL    HW150176   7.600   2.881   9.279 -0.8654  1.0060  1.1385
10728SOL    HW250177   7.542   2.755   9.218 -0.6846  1.5196 -0.1292
10729SOL     OW50178  10.054   8.840   5.220  0.3934 -0.5464 -0.3260
10729SOL    HW150179  10.045   8.763   5.276  1.0084 -1.1039 -0.9700
10729SOL    HW250180   9.967   8.852   5.183  0.6401 -1.8916 -1.4212
10730SOL     OW50181   6.166   5.523   7.690 -0.4459 -0.2963  0.4921
10730SOL    HW150182   6.252   5.482   7.683 -0.5723 -0.4865 -0.0717
10730SOL    HW250183   6.181   5.606   7.735  0.2976  0.4458 -1.0600
10731SOL     OW50184   0.646   7.951   8.326  0.0533  0.0916 -0.3587
10731SOL    HW150185   0.611   8.034   8.294  0.2424  0.7319  1.0226
10731SOL    HW250186   0.697   7.974   8.404  0.0703 -1.3148  0.0873
10732SOL     OW50187   4.368   2.948  10.142 -0.3923  0.0682 -0.0585
10732SOL    HW150188   4.272   2.948  10.152 -0.4368  2.1970  0.0008
10732SOL    HW250189   4.401   2.931  10.230 -0.6451 -2.2058 -0.3273
10733SOL     OW50190  11.683   3.942  12.259 -0.0809 -0.1474 -0.4105
10733SOL    HW150191  11.634   4.017  12.224  0.6398  0.8873  0.7295
10733SOL    HW250192  11.759   3.980  12.301  2.0611 -1.7523 -2.5415
10734SOL     OW50193  10.370   6.671   4.698 -0.1689 -0.3062 -0.4369
10734SOL    HW150194  10.402   6.712   4.778 -1.9288 -0.3941  0.3585
10734SOL    HW250195  10.363   6.743   4.635 -0.0687  0.0082 -0.0917
10735SOL     OW50196   7.665   5.657  12.165  0.2679  0.5991 -0.0154
10735SOL    HW150197   7.655   5.752  12.168  0.8195  0.6476  0.7006
10735SOL    HW250198   7.639   5.632  12.076  1.3762  1.5778 -0.6408
10736SOL     OW50199   7.355  13.855   6.176  0.0995  0.5088  0.2220
10736SOL    HW150200   7.390  13.781   6.225 -0.1848  0.5197  0.4498
10736SOL    HW250201   7.428  13.915   6.167  0.6587 -0.3152 -1.0048
10737SOL     OW50202   0.277   2.475   0.815 -0.1351 -0.0305 -0.3544
10737SOL    HW150203   0.331   2.431   0.881 -1.3797 -3.6820 -1.4978
10737SOL    HW250204   0.188   2.471   0.850 -0.4476  0.5485 -1.0559
10738SOL     OW50205   3.984   1.606   8.219  0.2528  0.2894 -0.2521
10738SOL    HW150206   4.014   1.627   8.307 -1.5615  0.5346  0.3527
10738SOL    HW250207   3.890   1.591   8.229  0.3944 -2.0122 -1.7447
10739SOL     OW50208  11.450  11.766   0.010  0.0589  0.0548 -0.0257
10739SOL    HW150209  11.369  11.786  -0.038  0.3923 -2.8379 -2.0464
10739SOL    HW250210  11.472  11.677  -0.017  2.3785 -0.3422  2.7373
10740SOL     OW50211   7.278  12.764   3.830  0.0819 -0.0800  0.6293
10740SOL    HW150212   7.217  12.827   3.791  1.0262  0.9789  0.7896
10740SOL    HW250213   7.308  12.806   3.910 -1.4839 -2.0384  2.3248
10741SOL     OW50214   9.648  13.475   1.298 -0.1694  0.5197  0.4786
10741SOL    HW150215   9.605  13.557   1.319 -1.0353  0.6029 -1.3686
10741SOL    HW250216   9.738  13.486   1.328 -0.4352  1.8970  0.8251
10742SOL     OW50217  10.516  13.414   5.257  0.3177  0.3997 -0.2547
10742SOL    HW150218  10.431  13.401   5.300  0.5579 -1.2201 -0.2071
10742SOL    HW250219  10.579  13.372   5.316  1.2609  2.1257  0.0142
10743SOL     OW50220   0.463   4.572   5.714 -0.2332  0.0059 -0.1009
10743SOL    HW150221   0.414   4.562   5.796  1.1621  0.3482  0.8121
10743SOL    HW250222   0.470   4.666   5.702  3.5559  0.1821  1.9851
10744SOL     OW50223  11.946  12.460   0.431  0.0148 -0.3565 -0.2796
10744SOL    HW150224  12.019  12.499   0.382 -1.3358  0.8587 -1.4553
10744SOL    HW250225  11.955  12.494   0.520  0.3622  0.5644 -0.6550
10745SOL     OW50226   0.011   0.837   7.224  0.0068 -0.0194  0.4638
10745SOL    HW150227   0.035   0.868   7.311  3.6986  1.5864 -0.8776
10745SOL    HW250228  -0.003   0.743   7.234  2.0967 -0.1908  2.5362
10746SOL     OW50229   1.480  13.913   1.525 -0.4059 -0.2789 -0.0725
10746SOL    HW150230   1.554  13.897   1.467  0.6972  0.3449  1.1189
10746SOL    HW250231   1.423  13.973   1.476 -1.4865 -2.7467 -2.0510
10747SOL     OW50232   0.872   7.698   0.601  0.0726  0.7625 -0.2811
10747SOL    HW150233   0.949   7.716   0.547 -0.0702  0.5001 -0.5771
10747SOL    HW250234   0.877   7.761   0.673  1.0296  0.1870  0.1799
10748SOL     OW50235   8.525   8.061  12.732 -0.1154 -0.1972  0.1244
10748SOL    HW150236   8.442   8.060  12.685  0.9422  1.6223 -2.0111
10748SOL    HW250237   8.578   7.995  12.687  0.4798  0.6464 -0.4600
10749SOL     OW50238   6.592   8.583   8.647 -0.0592  0.1744 -0.1328
10749SOL    HW150239   6.594   8.585   8.742 -1.5871  0.0080 -0.0692
10749SOL    HW250240   6.514   8.634   8.623 -0.5921 -1.0896 -1.2141
10750SOL     OW50241   8.976   3.694   6.761  0.1505  0.1919  0.1130
10750SOL    HW150242   9.032   3.748   6.815 -0.6201  1.2534 -0.1228
10750SOL    HW250243   8.891   3.738   6.763 -0.5580 -1.1209  0.0885
10751SOL     OW50244  12.305   3.863   8.431  0.0691  0.1923  0.1810
10751SOL    HW150245  12.294   3.774   8.396 -2.1644  0.1546  0.8042
10751SOL    HW250246  12.369   3.904   8.373  1.0038 -1.7376 -0.2499
10752SOL     OW50247   9.233   7.980   6.070 -0.1545 -0.0123 -0.4120
10752SOL    HW150248   9.202   7.905   6.019  0.9759 -2.2613  1.9256
10752SOL    HW250249   9.160   8.003   6.126 -0.1819 -0.0407 -0.4362
10753SOL     OW50250   1.432   1.676   7.471 -0.2927 -0.8221 -0.2739
10753SOL    HW150251   1.486   1.666   7.392  1.2847  4.6837 -0.3298
10753SOL    HW250252   1.346   1.703   7.438  0.6101  2.3561 -0.3788
10754SOL     OW50253   0.052   6.499  10.165  0.4039  0.6961 -0.2594
10754SOL    HW150254   0.070   6.570  10.105  2.1226  0.1335 -0.4519
10754SOL    HW250255  -0.039   6.474  10.147 -0.8609  3.8799  0.9701
10755SOL     OW50256  11.585   6.432  12.120 -0.1414  0.2100  0.0249
10755SOL    HW150257  11.529   6.411  12.194  2.0459 -2.0220  1.1987
10755SOL    HW250258  11.653   6.490  12.158  1.7922 -2.0518  0.2515
10756SOL     OW50259   4.797   4.578   9.571  0.3869 -0.3950 -0.2376
10756SOL    HW150260   4.886   4.584   9.606  0.8645 -0.2682 -1.4235
10756SOL    HW250261   4.748   4.645   9.620  0.7718 -0.8825  0.8609
10757SOL     OW50262  13.134   9.495  10.196 -0.1834  0.1331 -0.1634
10757SOL    HW150263  13.123   9.473  10.289 -0.2338  0.8843  0.0156
10757SOL    HW250264  13.065   9.446  10.152  0.2220 -0.7090  0.1204
10758SOL     OW50265  11.679   0.220   1.938 -0.4001  0.0720  0.0770
10758SOL    HW150266  11.651   0.128   1.945  0.6901 -0.2036  0.9477
10758SOL    HW250267  11.659   0.258   2.023 -1.3458  0.8060 -0.4558
10759SOL     OW50268   9.059   2.369   1.752  0.3578  0.4796  0.2083
10759SOL    HW150269   9.099   2.355   1.837 -1.3080 -1.6727  0.7309
10759SOL    HW250270   9.099   2.304   1.694 -1.0462 -0.5548  0.3242
10760SOL     OW50271   8.139   5.042   6.649  0.0109  0.9014 -0.1659
10760SOL    HW150272   8.184   5.037   6.734  0.3204 -0.7634 -0.4041
10760SOL    HW250273   8.054   5.081   6.670 -0.7447 -1.3185  1.2999
10761SOL     OW50274  13.493  13.729  13.441 -0.0265  0.7487 -0.5842
10761SOL    HW150275  13.521  13.719  13.349  0.5450  0.7363 -0.4138
10761SOL    HW250276  13.456  13.644  13.463 -0.1109  0.7310 -0.7870
10762SOL     OW50277   5.015  11.543   6.033 -0.9852  0.1398 -0.1481
10762SOL    HW150278   5.107  11.561   6.052 -1.1437 -0.5618  1.4681
10762SOL    HW250279   4.968  11.569   6.113 -2.0495 -0.5409 -0.5232
10763SOL     OW50280   1.431   3.707   3.256 -0.1057  0.4137 -0.0321
10763SOL    HW150281   1.368   3.638   3.236  0.8753 -0.0846 -1.5802
10763SOL    HW250282   1.507   3.661   3.290 -0.0611  0.8814  0.5024
10764SOL     OW50283   7.594   6.980  12.549 -0.4860  0.1002  0.3280
10764SOL    HW150284   7.670   7.031  12.575  1.6224 -2.3878 -0.5116
10764SOL    HW250285   7.571   7.012  12.462 -0.4086  0.8497  0.5795
10765SOL     OW50286   1.308   2.676   2.413 -0.4502  0.4685  0.4386
10765SOL    HW150287   1.302   2.582   2.398  0.0420  0.7000 -1.3783
10765SOL    HW250288   1.261   2.716   2.340 -1.7977  1.6570  1.8543
10766SOL     OW50289   6.574  11.541  11.084 -0.2025 -0.4384  0.2654
10766SOL    HW150290   6.571  11.445  11.092 -1.5511 -0.6071 -1.6180
10766SOL    HW250291   6.666  11.563  11.098  0.0312 -1.9299  1.3595
10767SOL     OW50292   5.467   4.947   8.342 -0.9169  0.1531 -0.2219
10767SOL    HW150293   5.418   4.982   8.268 -0.6066 -1.1809 -1.0859
10767SOL    HW250294   5.474   4.853   8.325  3.3833  0.4037 -1.0992
10768SOL     OW50295   1.404   6.917   6.100  0.2267  1.1796  0.3120
10768SOL    HW150296   1.372   6.831   6.074  0.5984  0.1486  2.9838
10768SOL    HW250297   1.477   6.934   6.041 -0.4108  0.0926 -0.8419
10769SOL     OW50298  10.434   0.507   3.152 -0.5397 -0.2120  0.3773
10769SOL    HW150299  10.339   0.501   3.153 -0.6233  0.8710  0.1218
10769SOL    HW250300  10.457   0.541   3.238 -0.2121 -2.2696  1.1626
10770SOL     OW50301   1.799  11.298   2.920 -0.2432  0.5914 -0.3303
10770SOL    HW150302   1.879  11.348   2.905 -0.9086  1.5279 -0.8890
10770SOL    HW250303   1.793  11.238   2.846  0.8210 -0.7156  0.6015
10771SOL     OW50304   6.542   2.042   3.694  0.0176 -0.1684  0.0325
10771SOL    HW150305   6.500   2.127   3.687 -0.1521 -0.1829  0.8412
10771SOL    HW250306   6.576   2.038   3.784  0.1642 -0.8859 -0.0446
10772SOL     OW50307   8.890  14.045  13.569 -0.2499  0.2622  0.2677
10772SOL    HW150308   8.895  13.977  13.637 -0.8114  0.0907  0.1464
10772SOL    HW250309   8.977  14.084  13.567  0.1539 -0.6279  0.1645
10773SOL     OW50310   1.019   0.568  10.340 -0.0397  0.9509 -0.3546
10773SOL    HW150311   1.066   0.488  10.315 -1.1832  0.6344 -1.6117
10773SOL    HW250312   0.939   0.536  10.382 -0.1708  1.4461 -0.2277
10774SOL     OW50313   3.814   0.760  10.428 -0.1060 -0.4181 -0.8956
10774SOL    HW150314   3.820   0.818  10.503 -0.4126  0.3539 -1.4564
10774SOL    HW250315   3.835   0.815  10.352  0.8245 -1.3223 -1.3295
10775SOL     OW50316   2.067   3.192  10.491 -0.5872 -0.4005 -0.1894
10775SOL    HW150317   2.140   3.240  10.528 -1.9111  1.8383 -0.2891
10775SOL    HW250318   2.016   3.258  10.444 -2.1787 -2.0406 -0.9070
10776SOL     OW50319   5.453  11.204  13.406  0.5979 -0.0510 -0.3457
10776SOL    HW150320   5.459  11.120  13.361  2.1908 -0.4865  0.6090
10776SOL    HW250321   5.429  11.182  13.496 -0.4585  0.6512 -0.4331
10777SOL     OW50322   1.899  10.433   1.203  0.1200 -0.0844 -0.5206
10777SOL    HW150323   1.819  10.405   1.159  1.1280  0.3593 -2.7940
10777SOL    HW250324   1.881  10.523   1.230 -0.1884 -0.0056 -0.9708
10778SOL     OW50325   0.304  12.046   3.663  0.1453 -0.0410  0.6191
10778SOL    HW150326   0.350  11.963   3.678  1.7582  0.4827 -1.0164
10778SOL    HW250327   0.361  12.112   3.702 -0.7862  0.3867  1.2951
10779SOL     OW50328   5.238   5.599  10.811  0.2991 -0.1638 -0.0541
10779SOL    HW150329   5.200   5.607  10.898 -1.0395 -2.4585 -0.3314
10779SOL    HW250330   5.238   5.504  10.793  0.8138  0.2093 -2.4059
10780SOL     OW50331  11.260   9.290   0.879  0.1430  0.1716 -0.2206
10780SOL    HW150332  11.326   9.346   0.921 -0.7002 -1.1084  3.1392
10780SOL    HW250333  11.180   9.344   0.879  0.2205  0.2890 -0.5297
10781SOL     OW50334   1.890   9.660   3.404  0.1956  0.4030  0.0831
10781SOL    HW150335   1.983   9.676   3.420  0.5050 -0.3834 -0.8265
10781SOL    HW250336   1.871   9.708   3.323 -0.5644  1.7512  1.0250
10782SOL     OW50337   2.156  13.473   6.129  0.3575  0.7611 -0.4809
10782SOL    HW150338   2.217  13.401   6.142  1.3373  1.3283 -1.7577
10782SOL    HW250339   2.071  13.430   6.115  0.8781 -0.1256 -0.9754
10783SOL     OW50340   1.172  13.037  10.588  0.4945  0.0799 -0.4195
10783SOL    HW150341   1.108  13.104  10.563  0.0980 -0.4152 -0.7434
10783SOL    HW250342   1.126  12.954  10.576  0.3890 -0.2072  1.6091
10784SOL     OW50343   3.744   4.700  13.225  0.6335 -0.2430  0.4770
10784SOL    HW150344   3.816   4.644  13.255  0.3388 -1.0066 -0.2136
10784SOL    HW250345   3.673   4.682  13.287  0.2932 -1.2089 -0.1699
10785SOL     OW50346  10.248   3.350   6.193 -0.2273 -0.1791 -0.2678
10785SOL    HW150347  10.317   3.365   6.128  2.5283 -0.5483  2.3783
10785SOL    HW250348  10.271   3.266   6.233 -2.3541 -0.3910  0.6390
10786SOL     OW50349  11.437  12.820   9.477 -0.9782  0.1609 -0.0218
10786SOL    HW150350  11.442  12.914   9.458 -1.3807  0.0441 -0.7435
10786SOL    HW250351  11.426  12.815   9.572 -0.1604  0.8111  0.1185
10787SOL     OW50352   0.017   5.345   6.727  0.2634 -0.4116 -0.9183
10787SOL    HW150353  -0.054   5.377   6.782  1.5210 -1.5041  1.4764
10787SOL    HW250354  -0.017   5.353   6.638 -2.8857 -0.9412  0.0930
10788SOL     OW50355   4.457   9.557   5.400  0.2329  0.2111  0.3215
10788SOL    HW150356   4.532   9.511   5.362  1.5404  0.7963  2.0468
10788SOL    HW250357   4.486   9.648   5.408  0.1257  0.0948  2.8026
10789SOL     OW50358   1.715   1.130  10.684 -0.0086  0.3120  0.1835
10789SOL    HW150359   1.683   1.220  10.678  0.3308  0.4017 -0.3192
10789SOL    HW250360   1.775   1.121  10.610 -0.5009 -0.5202 -0.1242
10790SOL     OW50361  13.071  10.173   1.192  0.2229 -0.1033 -0.0783
10790SOL    HW150362  12.981  10.190   1.219 -0.3983 -1.3766 -1.2922
10790SOL    HW250363  13.065  10.137   1.104  1.8403 -1.3052  0.2444
10791SOL     OW50364   3.825  13.085  13.124 -0.5104  0.6746  0.4419
10791SOL    HW150365   3.896  13.119  13.178 -0.3247 -0.2926  0.8303
10791SOL    HW250366   3.826  12.990  13.139 -0.0715  0.2775 -1.7020
10792SOL     OW50367   3.709   2.151   4.147 -0.2058 -0.0189  0.4699
10792SOL    HW150368   3.677   2.162   4.058 -1.3384  1.6672  1.0437
10792SOL    HW250369   3.798   2.187   4.145 -0.6641  1.1253  0.2875
10793SOL     OW50370   5.511  12.012   4.948 -0.0730  0.3077  0.5440
10793SOL    HW150371   5.469  11.979   5.027  1.0507 -0.2176  0.9423
10793SOL    HW250372   5.457  11.979   4.876 -0.9286  0.5352  1.0637
10794SOL     OW50373  10.875  11.679  11.901  0.2147 -0.4804  0.1063
10794SOL    HW150374  10.883  11.754  11.961  0.0479 -1.9159  2.0249
10794SOL    HW250375  10.965  11.661  11.873  0.2671  0.3494 -0.2951
10795SOL     OW50376   1.795  11.391  12.693  0.1835 -0.5237  0.6363
10795SOL    HW150377   1.803  11.396  12.598 -2.7960 -0.8417  0.2722
10795SOL    HW250378   1.777  11.299  12.711  1.2934 -0.5710  1.5984
10796SOL     OW50379   9.776   4.672   9.399  0.2235 -0.0085 -0.3662
10796SOL    HW150380   9.773   4.600   9.462  1.4064  0.0952 -0.1715
10796SOL    HW250381   9.865   4.706   9.405  0.2786  0.1995 -1.8806
10797SOL     OW50382   3.199  10.237   8.634 -0.0482 -0.5069 -0.2732
10797SOL    HW150383   3.283  10.194   8.618 -0.0695 -1.0357  0.8937
10797SOL    HW250384   3.182  10.288   8.555  0.9294 -1.1094 -0.8868
10798SOL     OW50385   0.485  10.965   2.200 -0.4803  0.4861  0.2689
10798SOL    HW150386   0.476  10.962   2.105 -1.1619  2.1961  0.2398
10798SOL    HW250387   0.573  10.931   2.217 -0.4403 -0.0527 -0.9453
10799SOL     OW50388   2.394  11.722   1.502 -0.5077 -0.3954 -0.2010
10799SOL    HW150389   2.450  11.790   1.464  0.0032 -1.8457 -2.2261
10799SOL    HW250390   2.318  11.719   1.444 -0.4470 -1.6246 -0.2302
10800SOL     OW50391  14.083   0.114   6.459 -0.6360 -0.1745  0.3302
10800SOL    HW150392  14.054   0.150   6.543  0.1007  0.2007  0.4296
10800SOL    HW250393  14.137   0.183   6.420  0.7833 -1.1361  0.5198
10801SOL     OW50394   7.031  13.947  12.995  0.2086 -0.4059 -0.1756
10801SOL    HW150395   7.057  14.019  12.937 -0.1936  0.4384  0.6765
10801SOL    HW250396   7.110  13.893  13.002  0.6624  0.2066 -0.4431
10802SOL     OW50397   3.111  11.436  11.260 -0.3398  0.4073  0.1832
10802SOL    HW150398   3.158  11.517  11.277  1.2242 -0.0635 -1.5285
10802SOL    HW250399   3.168  11.368  11.296 -1.5088  0.0138  1.3670
10803SOL     OW50400  12.088   3.478   5.549  0.1050 -0.2181  0.2385
10803SOL    HW150401  12.126   3.521   5.626  1.3676 -0.3325 -0.3090
10803SOL    HW250402  12.139   3.398   5.537  0.2178  0.0102 -0.9721
10804SOL     OW50403   0.187  12.541   4.585  0.1277 -0.0928 -0.9626
10804SOL    HW150404   0.167  12.455   4.551 -0.0200  0.1310 -1.4480
10804SOL    HW250405   0.103  12.586   4.590  0.1262 -0.1716 -0.1583
10805SOL     OW50406  10.532   8.253   9.378  0.1826 -0.2473  0.0789
10805SOL    HW150407  10.539   8.296   9.464  1.4903 -1.7386  0.7744
10805SOL    HW250408  10.621   8.220   9.361 -0.5305 -1.7713 -0.8643
10806SOL     OW50409  12.671  12.495   7.061 -0.2466  0.1313 -1.0224
10806SOL    HW150410  12.733  12.565   7.040  0.9778 -0.7997 -0.6169
10806SOL    HW250411  12.700  12.462   7.146 -1.2431 -0.3995 -0.8725
10807SOL     OW50412   4.855  13.432   0.407 -0.4878  0.1034 -0.2712
10807SOL    HW150413   4.821  13.374   0.474 -0.5723  1.3798  0.8264
10807SOL    HW250414   4.941  13.396   0.385 -0.3187 -0.1446  0.7677
10808SOL     OW50415  12.398   8.899   4.264  0.1441 -0.6834  0.1495
10808SOL    HW150416  12.475   8.860   4.306  0.1812  0.0821  0.8073
10808SOL    HW250417  12.358   8.826   4.216  0.7170 -1.3202  0.6166
10809SOL     OW50418   4.603  12.524   2.120 -0.4623  0.5584  0.2068
10809SOL    HW150419   4.545  12.553   2.191 -2.5715  0.4179 -1.3731
10809SOL    HW250420   4.544  12.488   2.054  1.5229 -0.3543 -1.1550
10810SOL     OW50421  10.221   8.672   2.101  0.4102  0.0776  0.4684
10810SOL    HW150422  10.128   8.693   2.105  0.7763  1.8507  0.0936
10810SOL    HW250423  10.265   8.753   2.122  1.8950 -0.6827  0.4016
10811SOL     OW50424   6.696  11.709   5.879 -0.1266  0.0637  0.2575
10811SOL    HW150425   6.670  11.731   5.968 -2.4165 -1.0613 -0.0517
10811SOL    HW250426   6.717  11.792   5.838 -0.6378  0.7742  1.4057
10812SOL     OW50427   4.751   9.045   3.553 -0.0110  0.1052 -0.4225
10812SOL    HW150428   4.688   8.990   3.507 -0.6272 -0.6038  1.2036
10812SOL    HW250429   4.701   9.122   3.581  0.4704  0.7595 -1.3098
10813SOL     OW50430   5.250   3.438  12.825 -0.2367  0.2629 -0.5620
10813SOL    HW150431   5.316   3.423  12.893 -1.4226  0.2228  0.6019
10813SOL    HW250432   5.205   3.354  12.816 -0.7276  0.5380 -0.7042
10814SOL     OW50433   6.102   0.258   8.176 -0.1216 -0.3239 -0.4112
10814SOL    HW150434   6.111   0.165   8.158 -0.5573 -0.6571  0.9282
10814SOL    HW250435   6.022   0.264   8.229  1.8735  0.2807  2.8132
10815SOL     OW50436   0.633   8.693   2.311 -0.0527  0.4912 -0.9778
10815SOL    HW150437   0.603   8.619   2.258  2.1252  0.7375 -2.7192
10815SOL    HW250438   0.634   8.767   2.250 -1.8069  1.9264  0.6247
10816SOL     OW50439   7.069   7.754  13.557  0.2971 -0.4037 -0.4859
10816SOL    HW150440   7.159   7.787  13.561  0.8491 -1.9088  0.1647
10816SOL    HW250441   7.036   7.786  13.473  1.2580  0.5957 -0.5139
10817SOL     OW50442   9.699   9.271  12.602 -0.3646 -0.2740 -0.2088
10817SOL    HW150443   9.770   9.336  12.597 -0.8113  0.2593  0.2871
10817SOL    HW250444   9.704   9.224  12.519  0.2252  0.1246 -0.4056
10818SOL     OW50445   5.509   7.086   6.054  0.5636  0.4151 -0.3504
10818SOL    HW150446   5.425   7.044   6.069 -0.0443  0.7197 -2.5559
10818SOL    HW250447   5.562   7.019   6.011  1.0129  0.6160 -0.1152
10819SOL     OW50448   2.236  11.296   2.631 -0.4955 -0.0826 -0.3341
10819SOL    HW150449   2.145  11.318   2.615 -0.4095  0.9770  0.5674
10819SOL    HW250450   2.286  11.368   2.593 -0.0444 -0.4597 -0.4691
10820SOL     OW50451   5.326   0.262   1.934  0.5016  0.1651  0.0007
10820SOL    HW150452   5.396   0.203   1.908 -0.1629 -0.6724  0.0584
10820SOL    HW250453   5.294   0.299   1.852 -0.1741 -0.8384 -0.2092
10821SOL     OW50454   9.589   8.773   8.229 -0.2340 -0.0273 -0.0025
10821SOL    HW150455   9.523   8.752   8.163 -2.5515 -1.0745  2.4322
10821SOL    HW250456   9.556   8.852   8.271  1.1335  0.5522  0.0099
10822SOL     OW50457   2.601  13.388   5.560  0.1732 -0.5273 -0.2691
10822SOL    HW150458   2.657  13.372   5.485  1.2196 -0.2172  0.4216
10822SOL    HW250459   2.521  13.339   5.541  0.7516 -1.1520 -1.1850
10823SOL     OW50460  11.407   7.481  13.472  0.7256 -0.2309 -0.3142
10823SOL    HW150461  11.365   7.395  13.464  1.9907 -0.9206  0.1163
10823SOL    HW250462  11.343   7.535  13.517 -0.9261 -0.3145 -2.3713
10824SOL     OW50463  11.628  12.420   5.039 -0.1414  0.0197  0.3701
10824SOL    HW150464  11.694  12.388   5.101  0.6374  1.4467  0.3273
10824SOL    HW250465  11.678  12.462   4.969 -1.0660  0.3465 -0.1253
10825SOL     OW50466   2.503   2.140  10.515 -0.0776  0.3250  0.5928
10825SOL    HW150467   2.434   2.105  10.571 -0.0268 -1.4864 -0.4107
10825SOL    HW250468   2.467   2.137  10.427  0.7960  0.6590  0.2092
10826SOL     OW50469   6.735   8.243  13.920 -0.1279 -0.4382  0.5714
10826SOL    HW150470   6.777   8.300  13.986 -1.1184  0.9851  0.0305
10826SOL    HW250471   6.649   8.223  13.958 -2.0992  3.0766 -1.4978
10827SOL     OW50472  13.803  11.537   7.889 -0.0196  0.0374  0.6653
10827SOL    HW150473  13.721  11.580   7.865  0.5554  1.7356  1.5506
10827SOL    HW250474  13.857  11.542   7.811  0.1499  1.2735  0.8394
10828SOL     OW50475   1.684   0.788   3.655  0.0659  0.2969  0.1786
10828SOL    HW150476   1.661   0.739   3.576 -2.0900 -0.0839  0.9775
10828SOL    HW250477   1.684   0.723   3.725  5.8215 -0.2250  0.1636
10829SOL     OW50478   0.304   1.056   6.181  0.6135 -0.0395  0.8463
10829SOL    HW150479   0.257   1.131   6.145 -0.1886 -0.0568  1.8278
10829SOL    HW250480   0.290   1.061   6.275 -2.1506 -3.1619  0.7681
10830SOL     OW50481  13.663   0.374   0.585  0.6627 -0.7217  0.4744
10830SOL    HW150482  13.624   0.309   0.526  0.2910 -0.9756  0.9898
10830SOL    HW250483  13.748   0.394   0.546 -0.6119  1.0903 -1.6095
10831SOL     OW50484   7.962   0.889   8.030 -1.1041  0.5060 -0.4147
10831SOL    HW150485   8.044   0.913   8.074 -1.5167  1.2224 -0.0144
10831SOL    HW250486   7.941   0.803   8.066 -0.4895  0.2747 -0.5860
10832SOL     OW50487  11.871  13.487   7.069 -0.3453 -0.2002 -0.4648
10832SOL    HW150488  11.798  13.547   7.084 -0.5023 -0.6992  0.9167
10832SOL    HW250489  11.879  13.438   7.151  0.3109 -1.4862 -1.2631
10833SOL     OW50490   0.215   2.354   7.473 -0.3351  0.1999  0.0856
10833SOL    HW150491   0.272   2.280   7.453 -0.6632  0.0028 -0.1301
10833SOL    HW250492   0.188   2.339   7.564  0.8361  0.8871  0.5792
10834SOL     OW50493  11.785   8.664   9.583  0.1732 -0.1751 -0.6450
10834SOL    HW150494  11.865   8.657   9.636  0.8198  1.4180 -1.3463
10834SOL    HW250495  11.736   8.585   9.604  3.2647 -2.8283 -2.4602
10835SOL     OW50496   1.582   2.478   7.210  0.5984 -0.9827 -0.4513
10835SOL    HW150497   1.571   2.449   7.300 -0.8639  0.4706 -0.1076
10835SOL    HW250498   1.608   2.400   7.162 -1.8708 -2.5709  0.6303
10836SOL     OW50499   3.975   6.807   9.663  0.1813 -0.7749  0.4125
10836SOL    HW150500   3.894   6.856   9.681 -0.0284 -0.5627 -0.9490
10836SOL    HW250501   4.041   6.875   9.647  0.2865 -0.9426  0.1369
10837SOL     OW50502   3.330  13.524   1.449  0.2918  0.7872 -0.8659
10837SOL    HW150503   3.360  13.500   1.362  0.9199 -0.2898 -0.3761
10837SOL    HW250504   3.283  13.446   1.480 -1.7810  1.9161 -1.0470
10838SOL     OW50505   1.572   7.052  10.853 -0.1783  0.3293 -0.2435
10838SOL    HW150506   1.597   7.144  10.847  0.1700  0.2535  0.0060
10838SOL    HW250507   1.652   7.007  10.881 -0.6263  0.0989  0.7095
10839SOL     OW50508   0.896  13.499  11.863 -0.7430  0.0866  0.1033
10839SOL    HW150509   0.892  13.524  11.770  2.1233  1.5965  0.2630
10839SOL    HW250510   0.960  13.428  11.865 -0.9355 -0.0662  0.8953
10840SOL     OW50511  13.255   4.877   4.524 -0.3287 -0.1977  0.2920
10840SOL    HW150512  13.346   4.872   4.497  0.0940  0.5818  1.4944
10840SOL    HW250513  13.256   4.928   4.605 -1.7383 -0.8167  0.7468
10841SOL     OW50514   7.098  11.538   5.911  0.2629  0.3763  0.5965
10841SOL    HW150515   7.113  11.448   5.942 -0.5770 -0.4546 -1.2723
10841SOL    HW250516   7.154  11.547   5.834 -2.8577 -0.1734 -1.9427
10842SOL     OW50517   1.620  12.464   7.937  0.5247 -0.1270  0.2566
10842SOL    HW150518   1.714  12.447   7.942  0.4958 -0.4395 -0.1684
10842SOL    HW250519   1.594  12.427   7.853  0.0339  0.0194  0.3427
10843SOL     OW50520   7.963   7.371  10.788  0.0491 -0.2876 -0.2174
10843SOL    HW150521   7.995   7.295  10.739  0.1484 -0.5976  0.3207
10843SOL    HW250522   7.973   7.444  10.727  0.0376 -0.6882 -0.7098
10844SOL     OW50523   9.729   4.390   9.103  0.6649  0.4455  0.2232
10844SOL    HW150524   9.767   4.411   9.189  0.5961  0.9489  0.1320
10844SOL    HW250525   9.804   4.375   9.047  0.7100 -0.4052  0.4928
10845SOL     OW50526   2.456  13.930   8.512 -0.5060 -0.2693  0.1944
10845SOL    HW150527   2.383  13.903   8.567 -1.1494  0.1449 -0.4521
10845SOL    HW250528   2.451  14.026   8.510 -0.8903 -0.3105 -1.1223
10846SOL     OW50529  11.431   0.186  12.590  0.2956  0.5054 -0.2715
10846SOL    HW150530  11.405   0.098  12.616  1.5048  0.4115  0.7214
10846SOL    HW250531  11.353   0.224  12.550 -0.8576 -0.2913  1.1391
10847SOL     OW50532  12.768   1.991   7.866 -0.0746 -0.1139 -0.0013
10847SOL    HW150533  12.708   1.916   7.864  0.5438 -0.6335  0.4597
10847SOL    HW250534  12.814   1.982   7.949  1.7915 -0.6580 -1.0271
10848SOL     OW50535   3.396   6.369   1.359  0.1570  0.5023 -0.4114
10848SOL    HW150536   3.460   6.307   1.394 -0.0000  0.8506  0.5288
10848SOL    HW250537   3.312   6.327   1.374  0.0807  0.7155 -0.2321
10849SOL     OW50538  12.738   2.526   7.290  0.2066 -0.5838 -0.7403
10849SOL    HW150539  12.783   2.605   7.260  1.0166 -1.3399 -1.5839
10849SOL    HW250540  12.762   2.519   7.382 -2.0001  1.5534  0.1282
10850SOL     OW50541   7.977   3.042  10.186  0.1028  0.5672 -0.0194
10850SOL    HW150542   7.888   3.017  10.161  0.8184 -0.7611 -1.4063
10850SOL    HW250543   7.988   3.009  10.275 -0.9970  1.3250  0.4132
10851SOL     OW50544   6.245   6.276   7.801 -0.2549  0.2411 -0.3113
10851SOL    HW150545   6.273   6.217   7.732 -3.3598 -1.1201 -0.5643
10851SOL    HW250546   6.219   6.356   7.755  2.4113  1.3301 -0.1158
10852SOL     OW50547   5.535   5.743   7.757  0.0376  0.7881 -0.2282
10852SOL    HW150548   5.487   5.813   7.712 -0.8229  0.6146  0.3901
10852SOL    HW250549   5.503   5.662   7.716 -0.0613  0.6803  0.0626
10853SOL     OW50550   2.594   2.581   2.552 -0.1954 -0.3481  0.8543
10853SOL    HW150551   2.559   2.493   2.537  0.9662 -1.0281  1.9526
10853SOL    HW250552   2.688   2.571   2.546 -0.0699  1.1730 -0.6418
10854SOL     OW50553  11.895   6.048  11.551  0.1022  0.2965 -0.2997
10854SOL    HW150554  11.880   6.136  11.515  0.6154  0.4136 -0.2366
10854SOL    HW250555  11.819   5.997  11.521 -0.4616  0.8876  0.1013
10855SOL     OW50556  13.141   7.787   2.273 -0.3599 -0.1833  0.8954
10855SOL    HW150557  13.177   7.703   2.300 -2.1119 -1.6648 -1.0568
10855SOL    HW250558  13.111   7.773   2.184  0.4471  2.9401  0.0111
10856SOL     OW50559   1.388   9.010   7.696  0.0611 -0.2832  0.4076
10856SOL    HW150560   1.375   9.048   7.609 -1.4557 -0.3775  0.5753
10856SOL    HW250561   1.307   9.029   7.743  0.1198 -1.8518  1.1989
10857SOL     OW50562   3.365  11.576   2.328  0.0599 -0.0845  0.0430
10857SOL    HW150563   3.378  11.670   2.344  0.4560 -0.1541  0.1555
10857SOL    HW250564   3.314  11.573   2.247  0.5188  0.2237 -0.2714
10858SOL     OW50565   9.241   6.123  11.784  0.3977 -0.3089 -0.7333
10858SOL    HW150566   9.261   6.106  11.876 -0.2098  1.5300 -0.2170
10858SOL    HW250567   9.170   6.061  11.764  1.0355 -1.2363 -0.2063
10859SOL     OW50568   3.615  10.813   6.440 -0.3506 -0.3678  0.6517
10859SOL    HW150569   3.693  10.813   6.384 -0.5255 -1.1083  0.3948
10859SOL    HW250570   3.649  10.793   6.528  0.0351  1.6643  1.0038
10860SOL     OW50571   9.626   1.286   4.682 -0.3211 -0.1692  0.5606
10860SOL    HW150572   9.690   1.222   4.652 -1.0675 -0.3659 -0.6799
10860SOL    HW250573   9.678   1.362   4.706  0.3703 -0.0444 -1.1706
10861SOL     OW50574   4.818   7.776  14.108  0.5176 -0.0187 -0.0522
10861SOL    HW150575   4.898   7.764  14.159  1.2973 -0.8272 -1.4107
10861SOL    HW250576   4.747   7.758  14.170  1.3680  0.9020  1.2238
10862SOL     OW50577   0.651   1.908  10.311 -0.5459  0.6229 -0.1566
10862SOL    HW150578   0.643   1.817  10.284 -2.8074  0.3686  1.1021
10862SOL    HW250579   0.565   1.947  10.294  0.3636  2.5660 -0.6975
10863SOL     OW50580  12.398   9.732   1.159 -0.3731  0.4525 -0.4066
10863SOL    HW150581  12.316   9.701   1.198  1.2993 -1.2573  2.0533
10863SOL    HW250582  12.421   9.809   1.211  0.9710 -0.7917  0.9430
10864SOL     OW50583   9.101   7.191  10.495 -0.4626  0.0290  0.2673
10864SOL    HW150584   9.164   7.261  10.508  1.6768 -1.6048 -0.6143
10864SOL    HW250585   9.155   7.114  10.474 -2.7018 -1.7489  0.6245
10865SOL     OW50586   3.088   9.854   0.702 -0.1559 -0.3083 -0.2282
10865SOL    HW150587   3.046   9.798   0.767  2.0128 -1.4310  0.2890
10865SOL    HW250588   3.079   9.943   0.736  0.5037 -0.8322  1.3857
10866SOL     OW50589   8.016   3.955   1.249 -0.0914  0.1197 -0.1749
10866SOL    HW150590   7.970   3.873   1.268  0.6828 -0.1630  0.5082
10866SOL    HW250591   7.964   4.022   1.294  0.7149 -0.3261  1.5173
10867SOL     OW50592   2.804   9.159   5.574 -0.4193  0.9152 -0.6979
10867SOL    HW150593   2.732   9.200   5.525 -0.7353  0.5336 -0.5528
10867SOL    HW250594   2.879   9.167   5.515 -0.8574  0.2173 -1.3774
10868SOL     OW50595   3.696  12.172   0.211 -0.4138  0.2101  0.1153
10868SOL    HW150596   3.614  12.187   0.257 -0.5455 -0.4175  0.1016
10868SOL    HW250597   3.763  12.179   0.278 -0.5378  0.0998  0.2527
10869SOL     OW50598   8.291  12.931   3.729  0.1910  0.2559 -0.9584
10869SOL    HW150599   8.337  12.906   3.808 -0.1070 -1.5087 -1.2975
10869SOL    HW250600   8.206  12.963   3.760  0.6225  0.9705 -0.4961
10870SOL     OW50601  13.403  11.513   0.747  0.2567 -0.1184 -0.0420
10870SOL    HW150602  13.416  11.437   0.690  1.2891 -0.5065  0.6866
10870SOL    HW250603  13.370  11.581   0.689  0.2215 -0.8436 -0.8907
10871SOL     OW50604  14.068   3.650   5.879  0.2925 -0.0430  0.3765
10871SOL    HW150605  13.988   3.688   5.841 -0.5722 -0.7588  1.4033
10871SOL    HW250606  14.085   3.572   5.827  0.0042 -0.1790  0.4819
10872SOL     OW50607   5.550   9.682   7.322  0.8159  0.2369 -0.3668
10872SOL    HW150608   5.530   9.668   7.415 -0.2918 -1.1488 -0.7646
10872SOL    HW250609   5.495   9.618   7.277  1.0218  1.1797 -2.0115
10873SOL     OW50610   1.719   8.737   1.751  0.5402 -0.3700 -0.4855
10873SOL    HW150611   1.645   8.795   1.734  0.9923  0.3041 -0.2244
10873SOL    HW250612   1.680   8.660   1.791 -0.0231 -0.0276 -0.3508
10874SOL     OW50613   9.720   2.472   6.929 -0.0985 -0.2993  0.1304
10874SOL    HW150614   9.750   2.441   7.014  0.2995 -1.7262 -0.4955
10874SOL    HW250615   9.800   2.492   6.881 -0.3130  0.1958 -0.0387
10875SOL     OW50616   7.014   7.970   7.511 -0.9228  0.5072  0.1172
10875SOL    HW150617   6.924   7.994   7.490 -1.1159  2.0517  2.3011
10875SOL    HW250618   7.035   8.023   7.589  1.5472 -0.5090  0.2312
10876SOL     OW50619   8.948   6.436   8.536  0.0949 -0.6888 -0.2490
10876SOL    HW150620   9.014   6.441   8.466 -0.7647 -1.0619 -1.1106
10876SOL    HW250621   8.902   6.519   8.532 -0.4621 -1.0148 -0.6419
10877SOL     OW50622  12.048  10.652   5.348 -0.3846 -0.4687  0.2812
10877SOL    HW150623  11.954  10.665   5.337 -0.1643 -0.4954 -2.1224
10877SOL    HW250624  12.086  10.682   5.265  1.7796 -0.0379  1.3623
10878SOL     OW50625  12.314   0.555   5.970  0.1813  0.2999  0.0579
10878SOL    HW150626  12.279   0.605   6.043 -1.6615 -2.5005  1.2874
10878SOL    HW250627  12.295   0.607   5.892 -3.0382  0.8214  1.0822
10879SOL     OW50628  10.654   6.295   4.932 -0.2866  0.0363  0.2246
10879SOL    HW150629  10.613   6.300   4.846 -0.3201  1.9830  0.3131
10879SOL    HW250630  10.582   6.313   4.993 -0.2293 -1.1706  0.6887
10880SOL     OW50631  10.900  11.733  13.583  0.7566 -0.2279 -0.4201
10880SOL    HW150632  10.847  11.741  13.504 -2.1900  0.7117  1.4786
10880SOL    HW250633  10.915  11.823  13.611 -1.7049 -0.4579  2.0875
10881SOL     OW50634   8.197  12.788  13.011 -0.4987 -0.1770 -0.3237
10881SOL    HW150635   8.260  12.800  13.082 -3.4620  1.1348  2.3492
10881SOL    HW250636   8.251  12.771  12.934  2.9967 -0.7789  1.9970
10882SOL     OW50637   5.261   6.040  12.871 -0.1165  0.5235  0.2096
10882SOL    HW150638   5.301   6.119  12.908  0.0236  0.7250 -0.3568
10882SOL    HW250639   5.311   6.023  12.791 -1.0738  0.7193 -0.4522
10883SOL     OW50640   7.353   7.707   3.099 -0.5855 -0.0509  0.2693
10883SOL    HW150641   7.347   7.612   3.098  1.0753 -0.1907 -1.1147
10883SOL    HW250642   7.327   7.734   3.010 -0.2595  0.7135  0.3972
10884SOL     OW50643  12.046  12.655   5.172 -0.4339  1.1203  0.4059
10884SOL    HW150644  11.960  12.619   5.189  0.2083 -0.3568  0.6884
10884SOL    HW250645  12.059  12.644   5.077 -0.2091  0.4913  0.5027
10885SOL     OW50646  12.812  13.923   1.713 -0.0737  0.1089 -0.4919
10885SOL    HW150647  12.761  13.977   1.653 -1.1944 -0.8340 -0.4267
10885SOL    HW250648  12.891  13.899   1.664 -0.1671  0.7603 -0.9582
10886SOL     OW50649  12.759   2.119   1.549  0.2780  0.0962  0.3726
10886SOL    HW150650  12.842   2.124   1.598  1.8946 -1.0525 -2.0624
10886SOL    HW250651  12.758   2.030   1.514 -1.9316  0.1628  0.1615
10887SOL     OW50652   9.115   6.229   8.624  0.5301  0.1134 -0.0425
10887SOL    HW150653   9.049   6.280   8.577  1.0726  0.8200 -0.0712
10887SOL    HW250654   9.065   6.175   8.685 -0.2394 -1.3090 -1.8354
10888SOL     OW50655   1.474  12.615  10.275 -0.2022  0.2242  0.2220
10888SOL    HW150656   1.523  12.622  10.356  2.5736  2.1471 -1.4668
10888SOL    HW250657   1.494  12.527  10.242  0.7530  0.3640  0.4077
10889SOL     OW50658   0.304  13.727   0.882 -0.1743 -0.1456 -0.3951
10889SOL    HW150659   0.389  13.767   0.866 -1.3704  2.2800 -1.1498
10889SOL    HW250660   0.293  13.731   0.977  0.0626  0.6677 -0.3967
10890SOL     OW50661   0.070  10.018   8.804 -0.2152 -0.4056  0.6117
10890SOL    HW150662   0.129  10.094   8.798 -1.5087  0.5454 -0.8884
10890SOL    HW250663  -0.012  10.054   8.838 -2.0511 -0.2539 -3.4007
10891SOL     OW50664   8.201   7.519  10.067  0.1746 -0.0766  0.3099
10891SOL    HW150665   8.143   7.575  10.015  1.5804  1.3739  0.2526
10891SOL    HW250666   8.191   7.432  10.027 -1.6004  0.2056  0.0318
10892SOL     OW50667   5.039   4.328   8.173  0.0594  0.3799 -0.2651
10892SOL    HW150668   4.991   4.377   8.106 -0.5713  0.5806  0.3308
10892SOL    HW250669   5.122   4.375   8.181 -0.7798  1.7642  0.7454
10893SOL     OW50670   2.809   7.048   2.886 -0.2852  0.3273 -0.2526
10893SOL    HW150671   2.835   6.965   2.845  0.8634  0.8362 -0.5975
10893SOL    HW250672   2.779   7.023   2.974  0.2977 -0.4275 -0.2591
10894SOL     OW50673  11.648  10.193   2.679 -0.6417 -0.1395 -0.1708
10894SOL    HW150674  11.554  10.180   2.667 -0.5441 -0.0632 -1.1472
10894SOL    HW250675  11.669  10.145   2.759 -1.3559 -0.8768 -0.4097
10895SOL     OW50676   0.900   8.387   5.440 -0.3412 -0.7773 -0.3505
10895SOL    HW150677   0.941   8.420   5.360 -0.1169  0.6933  0.3373
10895SOL    HW250678   0.966   8.328   5.477  1.2060  1.4451  0.6705
10896SOL     OW50679   0.638   6.140   7.041  0.0694 -0.4667 -0.8646
10896SOL    HW150680   0.639   6.236   7.040 -0.5845 -0.4537 -0.6994
10896SOL    HW250681   0.549   6.117   7.068  0.6401 -1.1146  0.5467
10897SOL     OW50682   6.807   5.842   5.171  0.4641  0.0118  0.2097
10897SOL    HW150683   6.755   5.764   5.151  1.6695 -1.0094  0.9484
10897SOL    HW250684   6.750   5.915   5.147 -1.3940 -1.0519  1.1500
10898SOL     OW50685   9.068   0.001   3.711 -0.7745  0.1389 -0.0550
10898SOL    HW150686   9.047   0.091   3.738  1.0132  0.5172  0.2007
10898SOL    HW250687   9.061  -0.050   3.792 -1.8938  0.0089 -0.2203
10899SOL     OW50688   6.981  11.359  12.368 -0.2199  0.5189 -0.4465
10899SOL    HW150689   6.972  11.351  12.273  3.7359 -1.8503 -0.8575
10899SOL    HW250690   7.076  11.356  12.383 -0.7072  0.1370  3.6581
10900SOL     OW50691   9.958   4.440   0.379  0.0299 -0.5218 -0.6753
10900SOL    HW150692   9.948   4.478   0.291 -2.2040 -1.4618 -0.8743
10900SOL    HW250693   9.927   4.508   0.438  0.1297 -0.4438 -0.7110
10901SOL     OW50694   4.313   9.295  13.269  0.4049  0.1897 -0.3009
10901SOL    HW150695   4.235   9.322  13.220  0.4811  1.3444  0.1896
10901SOL    HW250696   4.281   9.226  13.328 -0.2110  0.5476 -0.2094
10902SOL     OW50697   0.390  11.453   8.461  0.0490 -0.1333  0.0243
10902SOL    HW150698   0.441  11.513   8.515 -1.3850 -0.4505  1.8290
10902SOL    HW250699   0.431  11.368   8.474  0.8158  0.0755 -0.8912
10903SOL     OW50700  10.558   2.237  14.035 -0.0092 -0.0726  0.7244
10903SOL    HW150701  10.601   2.176  14.095  2.5701 -0.1164 -1.0075
10903SOL    HW250702  10.536   2.184  13.959  0.7356  0.7930 -0.1187
10904SOL     OW50703   9.756   1.854   4.420 -0.3148  0.5650  0.1837
10904SOL    HW150704   9.701   1.807   4.358 -1.0397  1.3560  0.2067
10904SOL    HW250705   9.819   1.901   4.366  0.0022  0.0907  0.1314
10905SOL     OW50706   3.201   4.187   0.861  0.5979  0.3111  0.1030
10905SOL    HW150707   3.295   4.185   0.842  1.1854  1.0031  2.6210
10905SOL    HW250708   3.173   4.096   0.852  1.6464 -0.0176  0.0051
10906SOL     OW50709  13.031   9.643   4.656  0.5147  0.0141 -0.2861
10906SOL    HW150710  13.121   9.670   4.677 -0.2118 -0.0762  3.4798
10906SOL    HW250711  13.024   9.554   4.689 -1.4425  0.6397  1.1265
10907SOL     OW50712  10.679   1.505  13.153 -0.1421 -0.3195 -0.0742
10907SOL    HW150713  10.587   1.528  13.135  0.0658  0.5637 -0.0776
10907SOL    HW250714  10.695   1.427  13.101 -0.1573  0.9816 -2.1565
10908SOL     OW50715   8.314   8.563   5.201  0.1352 -0.3866 -0.0121
10908SOL    HW150716   8.322   8.478   5.158  0.9704  0.4611 -1.6243
10908SOL    HW250717   8.381   8.618   5.159 -0.5699  1.1455  0.7757
10909SOL     OW50718   7.729   6.577   8.842  0.1820  0.2858 -0.2820
10909SOL    HW150719   7.741   6.671   8.826 -0.4023 -0.0474 -3.0582
10909SOL    HW250720   7.810   6.537   8.810 -0.7573 -0.3684 -1.9595
10910SOL     OW50721   8.910  11.054   3.294  0.1676  0.3092 -0.3872
10910SOL    HW150722   8.868  11.011   3.369  0.7764  0.9596  0.3446
10910SOL    HW250723   8.869  11.013   3.217  1.3787 -2.2557  0.2208
10911SOL     OW50724   9.276  13.393   9.076  0.5213 -0.1162  0.4497
10911SOL    HW150725   9.276  13.348   8.992  0.4285 -1.3243  1.0703
10911SOL    HW250726   9.286  13.486   9.054  1.4217 -0.4916 -0.8368
10912SOL     OW50727  13.045  10.180   0.536 -0.8618 -0.4749  0.4405
10912SOL    HW150728  13.096  10.099   0.531 -0.1370 -0.0797  1.1936
10912SOL    HW250729  13.068  10.217   0.621 -0.8280  0.7539 -0.0875
10913SOL     OW50730   2.555   5.161   5.573 -0.2820  0.5297  0.1224
10913SOL    HW150731   2.497   5.087   5.592  0.7436 -0.5560 -0.8171
10913SOL    HW250732   2.589   5.187   5.659 -1.5568  0.7011  0.5974
10914SOL     OW50733   3.134   1.967  13.785 -0.4544  0.3745  0.7753
10914SOL    HW150734   3.177   2.051  13.769  0.8373 -0.5374 -0.8687
10914SOL    HW250735   3.043   1.990  13.806 -0.6275  2.1312 -1.4780
10915SOL     OW50736   3.579   6.592   7.158 -0.4792 -0.3649 -0.0740
10915SOL    HW150737   3.638   6.518   7.138  0.0600  0.1201 -0.3097
10915SOL    HW250738   3.634   6.670   7.146 -0.3523  0.0196  2.4454
10916SOL     OW50739   5.210   7.537   8.082 -0.4401 -0.1412  0.2783
10916SOL    HW150740   5.177   7.614   8.037  0.2561 -0.9576 -1.7437
10916SOL    HW250741   5.182   7.548   8.173 -0.3558  2.4537  0.0495
10917SOL     OW50742   1.052  13.153   2.829  0.2814 -0.3265 -0.2803
10917SOL    HW150743   1.079  13.232   2.877  0.0287 -0.3848 -0.0378
10917SOL    HW250744   0.979  13.182   2.774 -0.2180 -0.5246  0.2689
10918SOL     OW50745  11.506   9.765  11.832 -0.2438  0.1453 -0.1444
10918SOL    HW150746  11.427   9.716  11.857 -1.8693  3.0384  0.8314
10918SOL    HW250747  11.475   9.831  11.770  1.8095  0.1858 -1.2034
10919SOL     OW50748   2.485  13.460  10.340 -0.1843 -0.3894  0.4889
10919SOL    HW150749   2.573  13.458  10.377  0.3440 -0.0339 -0.7150
10919SOL    HW250750   2.448  13.544  10.370  1.2151  1.1840 -1.8977
10920SOL     OW50751   3.664   0.350  13.004  0.3560  0.3995 -0.2618
10920SOL    HW150752   3.639   0.418  13.067 -1.7597 -1.2688  0.8403
10920SOL    HW250753   3.644   0.389  12.918  0.0084  1.4766  0.2808
10921SOL     OW50754   6.673  13.171   5.076  0.2953  0.3474 -0.3704
10921SOL    HW150755   6.605  13.202   5.017  0.5925  1.7196 -0.0467
10921SOL    HW250756   6.753  13.168   5.022 -0.1145 -1.9841 -0.9433
10922SOL     OW50757   0.004   7.874   1.021  0.0013 -0.1588 -0.4226
10922SOL    HW150758  -0.002   7.779   1.027  1.5105 -0.3390 -1.2759
10922SOL    HW250759   0.002   7.892   0.927 -0.1227  0.6529 -0.2728
10923SOL     OW50760   9.512  12.544   1.139  0.5327 -0.2043  0.2757
10923SOL    HW150761   9.579  12.589   1.088  1.7337 -1.5482  0.5870
10923SOL    HW250762   9.534  12.564   1.230 -0.2553  0.3668  0.3450
10924SOL     OW50763   2.545   1.539  13.905  0.1333  0.3621 -0.4467
10924SOL    HW150764   2.492   1.481  13.959  0.4166  0.5953  0.0802
10924SOL    HW250765   2.607   1.481  13.861 -0.5199  0.0911 -1.0385
10925SOL     OW50766   4.495   4.345   1.158  0.0100 -0.0778 -0.4591
10925SOL    HW150767   4.582   4.332   1.195  1.0360 -1.0736 -3.0173
10925SOL    HW250768   4.441   4.278   1.202  0.4572  0.5985  1.2034
10926SOL     OW50769   4.717   4.233   6.572 -0.5944  0.0847  0.4546
10926SOL    HW150770   4.765   4.282   6.640 -1.7808  0.7249  0.8513
10926SOL    HW250771   4.775   4.237   6.495  0.2181  0.4090  1.0631
10927SOL     OW50772  10.139   7.987   1.687 -0.6340 -0.3950  0.0867
10927SOL    HW150773  10.233   8.000   1.669 -1.3929  2.6429 -2.7066
10927SOL    HW250774  10.105   7.944   1.608 -1.7821 -0.3322  0.5306
10928SOL     OW50775   8.249  13.076  11.429 -0.2841 -0.5496 -0.0605
10928SOL    HW150776   8.210  13.161  11.408 -0.2616  0.3418  2.9296
10928SOL    HW250777   8.343  13.088  11.413  0.3675  1.5291  3.9442
10929SOL     OW50778   2.475  10.169  12.450  0.1268  0.0916  0.0786
10929SOL    HW150779   2.537  10.122  12.507  0.5718  1.2365  0.5654
10929SOL    HW250780   2.465  10.255  12.491 -0.0353  0.7246 -1.2347
10930SOL     OW50781  11.042   6.105   9.096 -0.7408  0.2298  0.2488
10930SOL    HW150782  10.996   6.024   9.120 -2.4647  1.6278  2.0174
10930SOL    HW250783  11.132   6.090   9.125 -1.2685 -0.6966  1.5402
10931SOL     OW50784   8.279   3.247   7.406  0.4712 -0.1828 -0.0328
10931SOL    HW150785   8.356   3.224   7.458  0.9526  0.4487 -0.4614
10931SOL    HW250786   8.298   3.214   7.318  0.4074  0.2792 -0.2231
10932SOL     OW50787   5.584   5.265   8.454 -0.0233  0.3576  0.0181
10932SOL    HW150788   5.661   5.320   8.468  0.7387 -0.1601 -1.9407
10932SOL    HW250789   5.618   5.179   8.433 -1.1794 -0.3083  0.7489
10933SOL     OW50790   5.323  10.890   7.078  0.0292  0.3704 -0.3408
10933SOL    HW150791   5.310  10.808   7.030 -3.6680 -0.6037  1.9162
10933SOL    HW250792   5.315  10.865   7.170 -2.3374  3.3085  0.3933
10934SOL     OW50793   0.331   6.583   4.687  0.0139  0.0033  0.0186
10934SOL    HW150794   0.300   6.658   4.738  0.7830  0.1356  0.2995
10934SOL    HW250795   0.390   6.621   4.622  0.5916 -0.3820  0.3126
10935SOL     OW50796  10.357   3.241   6.844 -0.0700 -0.4019  0.1323
10935SOL    HW150797  10.390   3.328   6.825 -1.7123  0.3002  0.2867
10935SOL    HW250798  10.278   3.256   6.896  0.6267 -2.0413  1.7915
10936SOL     OW50799   8.893   8.234   7.940  0.0022 -0.7469  0.2385
10936SOL    HW150800   8.961   8.183   7.896  0.0041 -1.1899  0.7438
10936SOL    HW250801   8.923   8.325   7.933  0.4584 -0.9033  0.1305
10937SOL     OW50802   6.084   5.815   3.679  0.2696 -0.4755  0.6320
10937SOL    HW150803   6.008   5.764   3.707 -0.7245  0.0681 -0.9263
10937SOL    HW250804   6.122   5.764   3.608  1.0793 -0.4970  1.0681
10938SOL     OW50805   2.131   8.835   2.285  0.3938 -0.1857  0.2451
10938SOL    HW150806   2.201   8.820   2.221  2.2668 -0.8826  2.3248
10938SOL    HW250807   2.051   8.820   2.236  1.5744  1.8144 -2.5767
10939SOL     OW50808  10.995   6.679   6.289  0.3776 -0.1547  0.0732
10939SOL    HW150809  11.062   6.658   6.353  1.0101  1.4179 -0.0266
10939SOL    HW250810  10.915   6.641   6.324  1.3118 -2.1681  0.1263
10940SOL     OW50811   0.515  13.248   0.452  0.2975 -0.0224  0.2333
10940SOL    HW150812   0.445  13.306   0.420 -0.0403 -0.2713  0.5189
10940SOL    HW250813   0.571  13.306   0.503  0.2886  0.1744  0.0228
10941SOL     OW50814   0.658   2.959   2.337 -0.1694  0.2179 -0.0899
10941SOL    HW150815   0.571   2.920   2.334 -0.3315  0.4213  1.2025
10941SOL    HW250816   0.698   2.922   2.416  0.8833  0.1915 -0.6247
10942SOL     OW50817  13.352   0.830   3.885 -0.4255 -0.2302  0.0870
10942SOL    HW150818  13.394   0.900   3.835 -0.6789  0.6298  1.0563
10942SOL    HW250819  13.383   0.749   3.844  1.3141  0.3995  0.0867
10943SOL     OW50820   4.665   6.144   6.957  0.6202 -0.0309 -0.0779
10943SOL    HW150821   4.671   6.057   6.917  2.1283 -0.5941  1.2508
10943SOL    HW250822   4.670   6.127   7.051 -1.0476  1.3781  0.3179
10944SOL     OW50823   2.413   7.808   5.847  0.1760 -0.2192  0.4177
10944SOL    HW150824   2.419   7.809   5.751  2.7151  2.1999  0.4815
10944SOL    HW250825   2.503   7.790   5.876 -0.6954 -1.7426  2.4120
10945SOL     OW50826   0.835   3.400  10.687 -0.1143 -0.3303 -0.0146
10945SOL    HW150827   0.836   3.426  10.779  0.5091  0.6831 -0.3022
10945SOL    HW250828   0.872   3.311  10.686  0.6396 -0.0284  0.6163
10946SOL     OW50829  12.210   4.328  10.841 -0.1377 -0.6504 -0.4351
10946SOL    HW150830  12.176   4.253  10.890 -2.0504  0.3885 -0.0646
10946SOL    HW250831  12.134   4.361  10.793  0.1652  2.1450  0.8230
10947SOL     OW50832   8.358  13.681  12.292  0.0071 -0.0056 -0.3713
10947SOL    HW150833   8.391  13.600  12.254 -0.2654 -0.8861  1.1890
10947SOL    HW250834   8.316  13.654  12.374 -2.4543  1.3500 -1.0743
10948SOL     OW50835  10.696  10.237   2.153 -0.1585 -0.4811 -0.4327
10948SOL    HW150836  10.618  10.204   2.198  0.1618  0.4338  0.8745
10948SOL    HW250837  10.765  10.174   2.175 -0.1877 -0.4681 -0.3034
10949SOL     OW50838   2.606  12.817  12.877  0.0658  0.2750 -0.0408
10949SOL    HW150839   2.595  12.769  12.795  1.0844  0.9426 -0.5944
10949SOL    HW250840   2.673  12.768  12.924 -0.1800  0.1584  0.1918
10950SOL     OW50841  10.402  12.474   4.330 -0.0397  0.2455 -0.7788
10950SOL    HW150842  10.440  12.548   4.377 -1.6415  0.5751  0.0647
10950SOL    HW250843  10.417  12.399   4.387 -0.9072  0.4307 -0.2993
10951SOL     OW50844   4.293   8.048   8.578  0.6522 -0.0088 -0.1508
10951SOL    HW150845   4.283   8.090   8.663  0.2450  0.3948 -0.3927
10951SOL    HW250846   4.240   7.968   8.584 -1.7635  1.4258 -0.9543
10952SOL     OW50847   3.014   6.028  11.931 -0.2713 -0.6581  0.7517
10952SOL    HW150848   3.087   6.008  11.990  1.0586  1.4811 -0.0330
10952SOL    HW250849   3.029   5.972  11.855  1.4068  0.6730  0.0235
10953SOL     OW50850  11.514   6.810   9.358  0.0353 -0.3131 -0.6686
10953SOL    HW150851  11.608   6.819   9.371 -0.2367 -0.1592  1.8294
10953SOL    HW250852  11.476   6.884   9.406 -1.3845 -1.1976 -0.3584
10954SOL     OW50853  12.709   0.015  11.610  0.4216 -0.5879 -0.4555
10954SOL    HW150854  12.686  -0.047  11.541 -4.0242  0.4664 -0.2501
10954SOL    HW250855  12.650  -0.007  11.683  2.9495  0.1418  1.9817
10955SOL     OW50856   0.846   0.763   5.782 -0.0184  0.1509  0.6944
10955SOL    HW150857   0.875   0.675   5.758  0.5207 -0.4463  3.2417
10955SOL    HW250858   0.891   0.782   5.864 -3.0930  1.1782  2.3037
10956SOL     OW50859   1.302   2.017   2.052 -0.2223 -0.2043  0.1839
10956SOL    HW150860   1.272   2.104   2.025 -1.4698  0.2030  2.5970
10956SOL    HW250861   1.319   1.971   1.970 -1.2140  1.7487 -1.1990
10957SOL     OW50862   1.948   6.386  11.804 -0.2843 -0.2476  0.2670
10957SOL    HW150863   1.869   6.439  11.799  1.0616  1.7501 -3.0223
10957SOL    HW250864   2.002   6.429  11.870 -0.0435  1.3898 -0.9266
10958SOL     OW50865   5.973   6.135   8.189 -0.2908  0.4253  0.2466
10958SOL    HW150866   5.925   6.210   8.222 -0.3201  1.5379 -2.1366
10958SOL    HW250867   5.918   6.060   8.209 -2.2517  1.4885 -0.8938
10959SOL     OW50868   2.988   5.344  10.861  0.2163  0.5662  0.0425
10959SOL    HW150869   3.032   5.305  10.936  0.0366  0.6210  0.1773
10959SOL    HW250870   2.959   5.270  10.807 -0.5386  0.4923  0.5336
10960SOL     OW50871   1.448   5.215   7.299 -0.6050  0.3321 -0.5377
10960SOL    HW150872   1.481   5.273   7.369 -2.5827 -1.1437  1.7997
10960SOL    HW250873   1.498   5.135   7.309 -2.3041 -0.6403  0.6815
10961SOL     OW50874  12.249   1.620   3.066  0.0784 -0.3670  0.3144
10961SOL    HW150875  12.217   1.638   2.977  0.1010 -0.5835  0.2621
10961SOL    HW250876  12.318   1.556   3.054 -0.0332 -0.5249  0.5048
10962SOL     OW50877   8.882  13.497   5.832  0.4909 -0.1180  0.5769
10962SOL    HW150878   8.966  13.524   5.794  0.4467 -1.2555 -0.3709
10962SOL    HW250879   8.906  13.461   5.918  0.9964 -0.5306  0.2712
10963SOL     OW50880   2.366  12.903   6.308 -0.2616 -0.1034  0.5741
10963SOL    HW150881   2.359  12.894   6.403 -1.0686 -0.2660  0.5095
10963SOL    HW250882   2.302  12.841   6.274 -2.4377  2.2610  0.0023
10964SOL     OW50883   4.058   0.377  10.258 -0.3481 -0.2619 -0.0552
10964SOL    HW150884   3.980   0.406  10.307  0.8232  1.3572  0.9560
10964SOL    HW250885   4.053   0.282  10.260 -1.4640 -0.2183  1.4513
10965SOL     OW50886  10.633   3.896   7.611 -0.0638  0.0348 -0.3135
10965SOL    HW150887  10.586   3.979   7.620  0.6008  0.3126  0.6610
10965SOL    HW250888  10.693   3.910   7.538  1.4364  1.0963  1.0752
10966SOL     OW50889  12.451   4.924   3.904  0.5144  0.0692  0.1192
10966SOL    HW150890  12.519   4.857   3.908  1.1790  0.6659 -0.8835
10966SOL    HW250891  12.459   4.971   3.987  0.8527 -0.3048  0.3027
10967SOL     OW50892   9.482  10.887   5.681 -0.0397 -0.5271 -0.1748
10967SOL    HW150893   9.502  10.803   5.722 -0.2394 -0.0586  0.9382
10967SOL    HW250894   9.455  10.866   5.592  2.5926 -1.4480 -0.8702
10968SOL     OW50895   3.020   9.190  11.936  0.1132 -0.8618 -0.3580
10968SOL    HW150896   2.943   9.244  11.954  0.4507 -0.3543 -0.4094
10968SOL    HW250897   2.985   9.106  11.906 -0.5046 -1.6227  2.1874
10969SOL     OW50898   6.160   9.491   6.470  0.3028  0.6946  0.4959
10969SOL    HW150899   6.148   9.480   6.565  1.5520  0.3422  0.6237
10969SOL    HW250900   6.123   9.578   6.452 -1.7691 -0.0339  0.9388
10970SOL     OW50901   8.735   8.232   0.233 -0.0170 -0.7503  0.1140
10970SOL    HW150902   8.744   8.327   0.226 -0.1129 -0.8489 -2.1481
10970SOL    HW250903   8.653   8.219   0.281  1.4258  0.2273  3.0809
10971SOL     OW50904   7.620  11.996  12.716 -0.3554  0.0922 -0.1085
10971SOL    HW150905   7.683  12.058  12.753  1.5925  0.1364 -3.1655
10971SOL    HW250906   7.546  12.051  12.688  0.1206  0.6381 -0.3029
10972SOL     OW50907   0.096   0.849   5.087 -0.6714 -0.1075  0.1879
10972SOL    HW150908   0.099   0.837   4.992 -0.7157  0.6141  0.0931
10972SOL    HW250909   0.036   0.923   5.100 -0.6823 -0.2165  0.7787
10973SOL     OW50910   9.577   3.068  10.382  0.0737 -0.4624  0.1876
10973SOL    HW150911   9.525   3.005  10.332 -0.5562  0.0662  0.1606
10973SOL    HW250912   9.532   3.076  10.466 -0.9530  1.3302 -0.4699
10974SOL     OW50913   9.074   0.665   0.325  0.5222 -0.1408 -0.2433
10974SOL    HW150914   8.981   0.672   0.344  0.0523 -1.2689 -1.8700
10974SOL    HW250915   9.087   0.720   0.248  1.3575  0.5401  0.3659
10975SOL     OW50916   3.882  13.808  11.192 -0.1697 -0.1694 -0.2753
10975SOL    HW150917   3.856  13.840  11.105 -0.3043 -1.5360 -0.7564
10975SOL    HW250918   3.951  13.744  11.174  0.3216  0.0648  0.6953
10976SOL     OW50919   7.748   1.938   1.236  0.1225  0.0963 -0.1687
10976SOL    HW150920   7.748   1.901   1.148  1.6176  0.1779 -0.2369
10976SOL    HW250921   7.724   1.864   1.293 -1.0326  0.0912 -0.6416
10977SOL     OW50922  10.533   4.349  11.309 -0.2926  0.3999  0.1471
10977SOL    HW150923  10.513   4.386  11.223 -1.6930 -0.8738 -0.1122
10977SOL    HW250924  10.520   4.255  11.299 -0.0302  0.1682  1.6437
10978SOL     OW50925  12.530   6.141  13.932  0.3957  0.2113 -0.2524
10978SOL    HW150926  12.528   6.167  14.024  0.0125 -0.5871 -0.0232
10978SOL    HW250927  12.439   6.116  13.913  0.7599 -1.0650 -0.4087
10979SOL     OW50928   4.028   5.035   1.329  0.5437  0.0483  0.2635
10979SOL    HW150929   3.997   5.005   1.244  2.2209  1.2293 -0.8231
10979SOL    HW250930   3.960   5.095   1.359 -1.3008 -2.2519  1.0182
10980SOL     OW50931   7.338  13.259   7.574  0.5724 -0.0512 -0.1986
10980SOL    HW150932   7.272  13.191   7.567  2.0188 -1.4971 -0.5661
10980SOL    HW250933   7.390  13.250   7.494  1.3709  0.8636  0.1952
10981SOL     OW50934   8.277   5.168  13.645  0.0260 -0.2171 -0.0094
10981SOL    HW150935   8.364   5.193  13.677  0.2321 -3.0895  2.0339
10981SOL    HW250936   8.219   5.183  13.719 -0.7898 -0.6175 -0.5499
10982SOL     OW50937  13.949   9.656   4.249  0.2974 -0.3605 -0.1921
10982SOL    HW150938  13.984   9.686   4.333 -1.5585  0.8490  0.2188
10982SOL    HW250939  13.917   9.736   4.207 -1.8413 -1.3503 -0.5530
10983SOL     OW50940   8.835  11.487  13.801  0.3530  0.2658 -0.3371
10983SOL    HW150941   8.768  11.548  13.770  0.7395  0.7320 -0.2599
10983SOL    HW250942   8.821  11.408  13.749  0.4108  0.7217 -1.0681
10984SOL     OW50943   7.151  12.507   4.069 -0.1224 -0.0352  0.0982
10984SOL    HW150944   7.124  12.531   3.980  0.8046 -0.2122 -0.2345
10984SOL    HW250945   7.151  12.590   4.117 -1.3408 -0.0411  0.1341
10985SOL     OW50946  10.778  12.075  11.684  0.2011 -0.2707  0.7753
10985SOL    HW150947  10.707  12.048  11.742  0.0164  0.1148  0.7304
10985SOL    HW250948  10.734  12.114  11.608  0.4479 -0.5588  0.4803
10986SOL     OW50949  11.376   9.795  10.016 -0.5795  0.3695  0.7830
10986SOL    HW150950  11.405   9.807   9.926 -1.4572 -0.1033  0.4244
10986SOL    HW250951  11.407   9.708  10.040  1.1753  1.1604  1.5631
10987SOL     OW50952   4.359   3.184  12.885  0.2071  0.2394 -0.0796
10987SOL    HW150953   4.306   3.186  12.965 -1.6791  1.3329 -1.2749
10987SOL    HW250954   4.317   3.117  12.830  1.0139  0.0328 -0.4616
10988SOL     OW50955   8.957   6.117   1.861 -0.0435  0.1875 -0.4183
10988SOL    HW150956   8.955   6.212   1.854  1.1465  0.1679 -1.5077
10988SOL    HW250957   8.891   6.096   1.926  0.2292  1.8087  0.4289
10989SOL     OW50958   7.683  11.201   9.971 -0.6350 -0.1148  0.1864
10989SOL    HW150959   7.669  11.292   9.996 -1.7994 -0.0610 -0.5943
10989SOL    HW250960   7.637  11.192   9.887 -0.5099 -1.4075  0.2437
10990SOL     OW50961   7.877   2.241   8.711  0.0101 -0.8130 -0.3751
10990SOL    HW150962   7.830   2.222   8.791 -0.5759 -0.8646 -0.7308
10990SOL    HW250963   7.815   2.290   8.657  1.1291  1.2922  0.1140
10991SOL     OW50964   9.309   9.321   1.001 -0.6169  0.7071 -0.0831
10991SOL    HW150965   9.250   9.264   0.952 -1.1017  0.9840  0.1647
10991SOL    HW250966   9.392   9.315   0.955 -0.6944 -0.1045 -0.1309
10992SOL     OW50967  12.186   7.317   0.425 -0.0611 -0.1213 -0.1266
10992SOL    HW150968  12.113   7.285   0.373 -0.8905  1.1965  0.1779
10992SOL    HW250969  12.145   7.361   0.499  1.0698 -0.2051  0.5729
10993SOL     OW50970   5.470   8.592   8.029  0.0857  0.3741  0.3399
10993SOL    HW150971   5.479   8.503   8.063 -0.2375 -0.0327 -0.6247
10993SOL    HW250972   5.487   8.648   8.105 -0.7678 -0.5121  1.2062
10994SOL     OW50973  14.152   4.898  12.801  0.0650  0.1762  0.5404
10994SOL    HW150974  14.066   4.876  12.765  0.4585  0.6188 -0.7319
10994SOL    HW250975  14.186   4.814  12.833 -0.4782 -0.1679  0.2442
10995SOL     OW50976   3.768   5.227   8.316 -0.1482  0.1134 -0.2149
10995SOL    HW150977   3.792   5.296   8.378  1.8311  2.4701 -3.2788
10995SOL    HW250978   3.830   5.157   8.335  0.4463  0.7874  0.4383
10996SOL     OW50979   7.194   7.359   2.814 -0.5377  0.0395 -0.7243
10996SOL    HW150980   7.226   7.448   2.823 -2.3440  0.6341  0.3775
10996SOL    HW250981   7.099   7.368   2.807 -0.7381 -1.7825 -0.9072
10997SOL     OW50982   6.495  12.700   7.783 -0.2416 -0.1749 -0.2258
10997SOL    HW150983   6.479  12.731   7.872  0.4825  0.4508 -0.2946
10997SOL    HW250984   6.412  12.663   7.755 -0.5439 -0.1722  0.6291
10998SOL     OW50985   4.419  13.128   1.086 -0.2157 -0.3274 -0.5719
10998SOL    HW150986   4.498  13.075   1.078 -1.7451 -2.9417  0.4145
10998SOL    HW250987   4.427  13.169   1.173 -1.0016 -2.6304  0.6692
10999SOL     OW50988  10.291  14.076   0.619 -0.1663 -0.7236  0.6452
10999SOL    HW150989  10.314  13.991   0.656 -1.4188 -1.3151  0.0982
10999SOL    HW250990  10.202  14.092   0.649 -0.8173 -0.7206 -1.1785
11000SOL     OW50991   8.487   3.571   8.346  0.2173  0.4792 -0.4168
11000SOL    HW150992   8.398   3.536   8.352 -0.7972  2.8538 -0.4139
11000SOL    HW250993   8.536   3.522   8.412 -1.2854 -0.3654  0.1291
11001SOL     OW50994   8.332   0.802   9.828 -0.2293 -0.0764 -0.0660
11001SOL    HW150995   8.349   0.715   9.791  0.1054  0.5791 -1.5255
11001SOL    HW250996   8.252   0.831   9.785 -0.3470  0.3488  0.4258
11002SOL     OW50997   8.899  10.724   4.296  0.0610  0.3212 -0.5631
11002SOL    HW150998   8.921  10.805   4.250  0.5037 -0.3333 -1.5283
11002SOL    HW250999   8.961  10.659   4.262 -1.3237 -0.8210 -1.0329
11003SOL     OW51000   7.962  13.491   9.074  0.0269  0.3729  0.0457
11003SOL    HW151001   7.906  13.458   9.003  0.1976  1.4011 -0.5885
11003SOL    HW251002   7.901  13.513   9.144 -0.2964  0.6971 -0.3301
11004SOL     OW51003   0.370   1.462   0.175 -0.0085 -0.3408  0.0724
11004SOL    HW151004   0.362   1.555   0.196  0.3815 -0.1848 -0.4560
11004SOL    HW251005   0.281   1.435   0.152  0.1956  0.3618 -1.6415
11005SOL     OW51006   3.904   8.215   8.912 -0.2601  0.1155 -0.1911
11005SOL    HW151007   3.956   8.176   8.982 -1.6383 -0.6267  0.4537
11005SOL    HW251008   3.940   8.177   8.832  1.5548  1.2296  0.0200
11006SOL     OW51009   0.451   4.602  12.745  0.8796  1.0871  0.2377
11006SOL    HW151010   0.540   4.615  12.714  0.1733  3.3850 -1.0207
11006SOL    HW251011   0.423   4.688  12.777 -1.1810  0.6513 -0.2128
11007SOL     OW51012   8.774  13.310   1.936 -0.2792 -0.1089  0.1401
11007SOL    HW151013   8.808  13.357   2.012 -1.0715 -0.4807  0.7414
11007SOL    HW251014   8.852  13.274   1.893  0.1206 -0.8458  1.4225
11008SOL     OW51015   7.349   7.578  14.001  0.3605 -0.0368 -0.1419
11008SOL    HW151016   7.261   7.549  13.976 -0.2094 -0.3621  2.0521
11008SOL    HW251017   7.406   7.542  13.933 -0.9260 -1.7761 -0.3771
11009SOL     OW51018   0.135  11.721   2.936  0.2538  0.1810 -1.0812
11009SOL    HW151019   0.201  11.788   2.919  0.1576  0.4661 -0.3912
11009SOL    HW251020   0.174  11.640   2.904  1.0668  0.2960 -0.4227
11010SOL     OW51021   7.776   9.326   3.858  0.5959 -0.5418  0.1453
11010SOL    HW151022   7.845   9.387   3.829  0.4660 -1.3927 -2.2072
11010SOL    HW251023   7.712   9.382   3.902  2.1903  0.4422  1.3313
11011SOL     OW51024  12.619   1.947   8.985  0.2778  0.2980 -0.7686
11011SOL    HW151025  12.629   1.887   8.911 -1.8329  0.4372 -1.2345
11011SOL    HW251026  12.565   1.899   9.048  0.5770  0.8249 -0.1001
11012SOL     OW51027  10.337  12.388   1.704  0.0466 -0.2373  0.0338
11012SOL    HW151028  10.254  12.366   1.662 -0.1687  1.7907 -0.7061
11012SOL    HW251029  10.395  12.412   1.632  1.5290 -2.2111  0.4874
11013SOL     OW51030   0.539  11.039   5.745 -0.3118  0.1079  0.2210
11013SOL    HW151031   0.459  11.066   5.699  0.5153  0.5292 -1.0081
11013SOL    HW251032   0.602  11.021   5.675 -0.0832 -2.7961  1.0466
11014SOL     OW51033   3.898   9.674   7.745 -0.2366  0.7977 -0.1517
11014SOL    HW151034   3.961   9.662   7.816  0.4065  0.1307 -0.8250
11014SOL    HW251035   3.869   9.764   7.755 -0.0270  0.7756  0.8510
11015SOL     OW51036   2.215   7.717  13.174  0.2344 -0.0310 -0.3691
11015SOL    HW151037   2.184   7.644  13.227  0.9745  0.4679  0.7620
11015SOL    HW251038   2.135   7.767  13.154  0.0787  0.3827  1.2022
11016SOL     OW51039  13.904  10.421   5.805 -0.2518  0.0269  0.2553
11016SOL    HW151040  13.960  10.496   5.826  0.3259 -0.0193 -1.0268
11016SOL    HW251041  13.816  10.458   5.795 -0.2004  0.3289  0.8724
11017SOL     OW51042   2.870   0.058   4.528 -0.0445  0.3683 -0.6691
11017SOL    HW151043   2.865   0.111   4.608  1.0394  0.9913 -1.0041
11017SOL    HW251044   2.800  -0.007   4.539  0.0660  0.4488  0.7794
11018SOL     OW51045   4.620   7.211  13.533 -0.2706  0.2259 -0.7117
11018SOL    HW151046   4.579   7.291  13.566 -2.1822 -0.5122 -1.1885
11018SOL    HW251047   4.653   7.234  13.446  0.1069  0.7571 -0.4317
11019SOL     OW51048   5.712  12.571   4.482 -0.4796 -0.3723  0.0383
11019SOL    HW151049   5.635  12.530   4.520 -2.3047  0.1784 -2.7449
11019SOL    HW251050   5.694  12.665   4.488  1.2505 -0.0770  1.6678
11020SOL     OW51051  10.551  10.566   4.592  0.4880 -0.0559 -0.1286
11020SOL    HW151052  10.613  10.563   4.666  1.0926 -1.1956 -0.6458
11020SOL    HW251053  10.477  10.617   4.624 -0.1905 -2.2075  2.0105
11021SOL     OW51054   0.995   9.610  10.372  0.1928  0.5627 -1.1702
11021SOL    HW151055   0.907   9.646  10.365  0.0199  0.7027  0.9910
11021SOL    HW251056   1.036   9.659  10.444  2.0043  0.4250 -2.0343
11022SOL     OW51057  12.905   9.583  13.745 -0.6513  0.3930  0.3581
11022SOL    HW151058  12.822   9.629  13.738 -1.0974 -0.5849 -1.2588
11022SOL    HW251059  12.888   9.512  13.807 -1.2743 -0.3028 -0.5963
11023SOL     OW51060   3.755   0.634   6.233  0.2256 -0.2737  0.3791
11023SOL    HW151061   3.806   0.666   6.308  1.5475  1.0481 -1.0311
11023SOL    HW251062   3.776   0.541   6.229  2.6426  0.2436 -0.1898
11024SOL     OW51063   8.090   7.733   0.442 -0.3008 -0.5241  0.2640
11024SOL    HW151064   8.054   7.779   0.518 -1.2183 -0.5344 -0.1515
11024SOL    HW251065   8.097   7.642   0.471  2.4426 -0.0704  1.4289
11025SOL     OW51066  10.035   2.218   0.045 -0.4177 -0.5594 -0.8566
11025SOL    HW151067  10.062   2.294  -0.007  0.7139 -0.4150 -0.1128
11025SOL    HW251068   9.940   2.224   0.049 -0.3285  1.3648 -0.0654
11026SOL     OW51069  10.496  13.378   0.638  0.4190  0.1104  0.4055
11026SOL    HW151070  10.536  13.404   0.554  1.0226  1.6143  1.1177
11026SOL    HW251071  10.481  13.284   0.629  3.2820 -0.3708 -0.2540
11027SOL     OW51072   5.710   5.284   4.387  0.2812  0.2230  0.8949
11027SOL    HW151073   5.643   5.218   4.406  0.4520 -0.3985 -0.5231
11027SOL    HW251074   5.790   5.251   4.426  0.5247 -0.7950 -0.4007
11028SOL     OW51075  13.335  12.357   5.884  0.1032  0.1747 -0.0579
11028SOL    HW151076  13.279  12.419   5.837  1.2278  0.1409 -1.4798
11028SOL    HW251077  13.300  12.358   5.973 -0.7819  1.8042 -0.3682
11029SOL     OW51078   7.416   0.273  12.596  0.8272  0.4138 -0.1809
11029SOL    HW151079   7.379   0.359  12.574  0.4582 -0.5732 -4.2773
11029SOL    HW251080   7.509   0.282  12.575  0.7175 -0.2229 -1.0037
11030SOL     OW51081   8.506   8.615   6.891  0.4205 -0.4705 -0.1339
11030SOL    HW151082   8.485   8.656   6.975  1.5069  1.2686 -0.6663
11030SOL    HW251083   8.428   8.564   6.869 -0.2035 -0.2891  1.5086
11031SOL     OW51084  13.022   7.343   2.440 -0.1331  0.3601 -0.1496
11031SOL    HW151085  12.986   7.336   2.529 -0.2959 -3.5443 -0.3588
11031SOL    HW251086  12.963   7.290   2.386  2.1231 -0.6115 -1.8004
11032SOL     OW51087   3.273   3.184   9.054 -0.3445 -0.5293 -0.5348
11032SOL    HW151088   3.221   3.132   9.115 -0.0405 -0.2524 -0.0370
11032SOL    HW251089   3.362   3.180   9.088 -0.6862  2.5205  1.1166
11033SOL     OW51090   6.007  13.967   4.558 -0.5267 -0.3614 -0.2192
11033SOL    HW151091   5.918  13.961   4.523 -0.5123 -0.3508 -0.2567
11033SOL    HW251092   5.994  13.984   4.651 -0.6597 -3.5393  0.4876
11034SOL     OW51093   9.637   3.753   0.754  0.0333 -0.2154 -0.6819
11034SOL    HW151094   9.643   3.808   0.832 -1.1204  0.6130 -1.1543
11034SOL    HW251095   9.665   3.809   0.683  1.2439 -1.0199 -0.8814
11035SOL     OW51096   4.692   7.644  12.114 -0.4531  0.0454 -0.2119
11035SOL    HW151097   4.640   7.627  12.193 -0.9259  0.8703 -0.3313
11035SOL    HW251098   4.746   7.720  12.136  0.4626 -0.5859 -0.2147
11036SOL     OW51099  11.693   5.613   9.438 -0.3454  0.1898 -0.6582
11036SOL    HW151100  11.708   5.526   9.474 -4.4532  0.1542  1.4732
11036SOL    HW251101  11.738   5.672   9.499 -0.4358 -0.2601 -0.1553
11037SOL     OW51102   5.679   6.943  11.884  0.1287 -0.2693  0.4779
11037SOL    HW151103   5.591   6.929  11.917 -0.7026  0.2245 -1.4032
11037SOL    HW251104   5.714   7.015  11.937 -1.5083  1.1586 -0.3102
11038SOL     OW51105   4.178  10.255   9.855 -0.3606 -0.1287  0.3079
11038SOL    HW151106   4.236  10.179   9.859 -2.2918 -1.6680  0.8953
11038SOL    HW251107   4.146  10.257   9.765 -0.5054 -0.1707  0.3575
11039SOL     OW51108   0.091  12.547   5.527  0.1256 -0.1766 -0.2486
11039SOL    HW151109   0.071  12.534   5.619  1.6197  1.0427  0.2929
11039SOL    HW251110   0.186  12.532   5.520 -0.1992 -1.8133 -1.9058
11040SOL     OW51111   8.815  12.621   1.669  0.3271  0.6739 -0.0357
11040SOL    HW151112   8.826  12.566   1.591  0.0014  0.0579  0.3426
11040SOL    HW251113   8.899  12.617   1.714  0.4407  0.8399 -0.2315
11041SOL     OW51114   9.825   0.845   8.046  0.0662  0.0175  0.2392
11041SOL    HW151115   9.895   0.863   8.110  0.7830  1.0973 -0.8124
11041SOL    HW251116   9.871   0.823   7.965 -0.8254  0.3356 -0.3700
11042SOL     OW51117   6.296   0.132   0.515 -0.6248 -0.1780  0.0870
11042SOL    HW151118   6.333   0.145   0.428  0.9658 -0.3163  0.7053
11042SOL    HW251119   6.213   0.179   0.513  0.7643  2.4932 -0.5638
11043SOL     OW51120   4.922   8.103   5.020  0.0797 -0.5421 -0.0338
11043SOL    HW151121   4.945   8.029   4.964 -0.8098 -1.4541  0.7590
11043SOL    HW251122   4.985   8.171   4.997  2.0951 -2.1378  0.4671
11044SOL     OW51123  14.011   1.182   8.895  0.0987 -0.0076 -0.4882
11044SOL    HW151124  13.990   1.091   8.874 -0.0174 -0.3504  1.0117
11044SOL    HW251125  13.926   1.226   8.895  0.4085  1.1441 -5.3522
11045SOL     OW51126  12.894   7.372  12.703  0.0332  0.7831  0.7629
11045SOL    HW151127  12.861   7.297  12.655 -0.1914 -0.4161  2.6708
11045SOL    HW251128  12.910   7.439  12.637 -0.1563 -0.7980 -0.9381
11046SOL     OW51129   2.695  12.539   5.732  0.2567  0.1216  0.6145
11046SOL    HW151130   2.640  12.596   5.679 -1.0242 -1.1513  0.5168
11046SOL    HW251131   2.775  12.528   5.681  0.4330  1.6027  0.5255
11047SOL     OW51132   3.613  13.315   2.302  0.5803  0.1246  0.2223
11047SOL    HW151133   3.556  13.358   2.367 -0.2459  0.4259 -0.6816
11047SOL    HW251134   3.603  13.221   2.320  0.3480  0.2023  0.5132
11048SOL     OW51135  12.840   3.124   4.394 -0.2574 -0.0134 -0.2989
11048SOL    HW151136  12.751   3.135   4.428 -0.9043 -0.8231 -1.6305
11048SOL    HW251137  12.865   3.211   4.363 -0.2108  0.4188  0.9128
11049SOL     OW51138   5.278  12.559  13.427 -0.1862  0.1800 -0.0185
11049SOL    HW151139   5.249  12.469  13.443 -0.3778  0.3378  0.5476
11049SOL    HW251140   5.293  12.595  13.515 -0.1873  0.7251 -0.2410
11050SOL     OW51141  11.215  13.371   7.098  0.2430  0.1670 -0.1171
11050SOL    HW151142  11.222  13.453   7.050 -0.4420 -0.6804 -1.7345
11050SOL    HW251143  11.138  13.382   7.154  1.5741  1.4993  1.5651
11051SOL     OW51144   8.799   8.181   5.497 -0.0995  0.6307  0.2253
11051SOL    HW151145   8.838   8.105   5.540 -0.4102  0.3601  0.0301
11051SOL    HW251146   8.709   8.155   5.478  1.1454 -1.2098 -5.0195
11052SOL     OW51147  12.389   0.962   9.061  0.2068  0.6218  0.2368
11052SOL    HW151148  12.406   1.056   9.072 -0.8589  1.2046 -2.3336
11052SOL    HW251149  12.295   0.956   9.045  0.5423 -0.6253 -1.5747
11053SOL     OW51150   4.885  12.315   4.262 -0.0532 -0.1583 -0.4039
11053SOL    HW151151   4.976  12.305   4.289  0.0364 -0.6833 -0.8930
11053SOL    HW251152   4.852  12.226   4.253 -0.1993  0.0026 -1.6249
11054SOL     OW51153  11.293  13.898   0.465  0.0364  0.0325  0.3132
11054SOL    HW151154  11.254  13.824   0.511  1.6431 -0.6169  0.6848
11054SOL    HW251155  11.355  13.935   0.528 -0.2237  1.2659 -0.1291
11055SOL     OW51156   4.510  10.050   5.404  0.2278  0.4115  0.2753
11055SOL    HW151157   4.501  10.139   5.370  1.0204  0.4465  0.1463
11055SOL    HW251158   4.438  10.041   5.467  1.1703  1.7773  1.6127
11056SOL     OW51159   0.664   0.140   9.868 -0.2050 -0.1427 -0.5893
11056SOL    HW151160   0.666   0.190   9.787  0.3837 -0.8763 -1.0533
11056SOL    HW251161   0.640   0.051   9.841  1.7184 -0.8316 -0.2525
11057SOL     OW51162  10.223  13.927   5.011  0.1521  0.0373  0.4398
11057SOL    HW151163  10.207  13.948   4.919 -2.0561  2.5214  1.2637
11057SOL    HW251164  10.316  13.945   5.024  0.4993 -0.3918 -1.3016
11058SOL     OW51165   8.990   8.563  12.476 -0.2740 -0.3919 -0.0518
11058SOL    HW151166   8.946   8.525  12.552  1.7452  0.3019  1.5591
11058SOL    HW251167   9.082   8.541  12.488  0.1220 -0.2078 -2.3012
11059SOL     OW51168   8.017   0.163   2.719  0.0207 -0.1374  0.5060
11059SOL    HW151169   8.008   0.086   2.775 -1.5510  0.6093  1.3437
11059SOL    HW251170   7.950   0.224   2.750  0.7492  1.3025 -0.5903
11060SOL     OW51171   9.895   5.317   3.523 -0.0382 -0.4289 -0.0777
11060SOL    HW151172   9.944   5.377   3.580 -0.2512 -0.1044 -0.2368
11060SOL    HW251173   9.941   5.321   3.439 -0.8453  0.5311 -0.4805
11061SOL     OW51174   6.137   2.051   7.924 -0.1056 -0.0743 -0.5665
11061SOL    HW151175   6.226   2.026   7.899 -0.1477 -3.0414  1.6072
11061SOL    HW251176   6.145   2.076   8.016 -1.4898 -0.3841 -0.3443
11062SOL     OW51177   0.601  10.362   4.941 -0.3029  0.0774  0.0116
11062SOL    HW151178   0.519  10.312   4.943 -1.1874  1.4711  0.2591
11062SOL    HW251179   0.577  10.445   4.898  1.5650 -0.4463 -2.2198
11063SOL     OW51180   4.227   5.862   5.319 -0.2643  0.3566  0.0679
11063SOL    HW151181   4.134   5.852   5.297 -0.1545 -1.5370  0.2457
11063SOL    HW251182   4.271   5.872   5.235 -0.6426  1.5469 -0.0007
11064SOL     OW51183  12.302   1.896  10.546 -0.3719 -0.0718  0.5064
11064SOL    HW151184  12.252   1.964  10.502  0.1411  0.8038  1.2342
11064SOL    HW251185  12.250   1.875  10.624  0.0822  0.4166  0.9516
11065SOL     OW51186   6.770   9.898   2.315  0.0238  0.3829 -0.3776
11065SOL    HW151187   6.768   9.984   2.273 -0.0337  0.3637 -0.4143
11065SOL    HW251188   6.789   9.837   2.244  0.4083  0.4026 -0.2938
11066SOL     OW51189   2.648   2.603  13.357  0.4176  0.1157 -0.5638
11066SOL    HW151190   2.595   2.683  13.348 -0.6327 -0.2466  1.6509
11066SOL    HW251191   2.738   2.633  13.354  0.0636  1.1621 -1.3577
11067SOL     OW51192   7.479   5.744   9.902 -0.5478  0.5263 -0.5550
11067SOL    HW151193   7.510   5.696   9.824  0.2972  0.2857 -0.0894
11067SOL    HW251194   7.502   5.835   9.884  1.2079  0.2687  0.0891
11068SOL     OW51195   6.981   0.966  13.637 -0.2197  0.7251 -0.2893
11068SOL    HW151196   7.050   0.902  13.653 -0.9472 -0.3372 -1.2272
11068SOL    HW251197   6.961   1.003  13.722 -1.5600 -2.1603  0.7908
11069SOL     OW51198  10.504  10.972   5.888  0.1148 -0.4248 -0.3917
11069SOL    HW151199  10.462  10.959   5.973  1.6086 -3.4474  0.0312
11069SOL    HW251200  10.436  10.951   5.824  0.2703 -3.3756  0.2453
11070SOL     OW51201   4.303   7.872   4.663  0.5972 -0.1103 -0.3112
11070SOL    HW151202   4.298   7.832   4.576  0.4198  0.9368 -0.8012
11070SOL    HW251203   4.250   7.951   4.656 -2.5023 -1.7721  1.8027
11071SOL     OW51204   4.324   7.568   1.034  0.4352 -0.2785  0.0218
11071SOL    HW151205   4.318   7.632   0.963 -0.9783 -0.8650 -0.4111
11071SOL    HW251206   4.264   7.600   1.101 -1.1378 -1.6705 -0.6533
11072SOL     OW51207   4.098  12.331   6.336  0.3131  0.0738 -0.0957
11072SOL    HW151208   4.027  12.392   6.317  2.2383  2.6707  0.5010
11072SOL    HW251209   4.170  12.359   6.279  1.9672 -0.2101  1.7483
11073SOL     OW51210  10.296  12.669   9.631  0.6180 -0.1546  0.5986
11073SOL    HW151211  10.316  12.584   9.591  0.5699 -0.2714  0.8205
11073SOL    HW251212  10.201  12.677   9.622  0.4430 -0.7277  1.7543
11074SOL     OW51213   2.369  13.212  13.543 -0.5069 -0.0135 -0.0395
11074SOL    HW151214   2.320  13.269  13.483 -0.0280  2.4811  1.7669
11074SOL    HW251215   2.303  13.181  13.605 -0.4296  0.3137  0.2093
11075SOL     OW51216  10.419  13.552   4.279  0.6232 -0.1262 -0.0163
11075SOL    HW151217  10.423  13.578   4.188  2.5876  1.4380  0.4474
11075SOL    HW251218  10.446  13.630   4.328 -0.4671 -0.8828  1.9233
11076SOL     OW51219  11.573  10.188  12.506 -0.3902 -0.4538 -0.0379
11076SOL    HW151220  11.482  10.208  12.486 -0.0891 -0.1409 -1.1911
11076SOL    HW251221  11.605  10.141  12.429  0.8787  0.9180 -0.4025
11077SOL     OW51222   0.103  11.509   1.999  0.3848  0.0550 -0.3787
11077SOL    HW151223   0.134  11.420   2.017  1.5495  0.4054 -0.5723
11077SOL    HW251224   0.031  11.522   2.060 -0.2569 -1.2658 -0.8148
11078SOL     OW51225   9.476  10.750  11.871  0.6295  0.1046  0.0517
11078SOL    HW151226   9.416  10.825  11.880  0.0990 -0.1228 -1.3037
11078SOL    HW251227   9.550  10.784  11.820 -1.2120 -1.0033 -3.7871
11079SOL     OW51228   6.455   5.040   3.643 -0.0146 -0.0566 -0.5536
11079SOL    HW151229   6.492   5.027   3.555  0.9958  2.7767 -0.6236
11079SOL    HW251230   6.530   5.036   3.701 -0.5860 -1.1522  0.1375
11080SOL     OW51231   9.655   3.488   9.240  0.1280 -0.1458 -0.4409
11080SOL    HW151232   9.707   3.567   9.224  0.0893  0.7096  2.9026
11080SOL    HW251233   9.713   3.416   9.213  1.4525  0.9251 -0.5886
11081SOL     OW51234   8.434   1.196   4.943 -0.3775  0.1775  0.1360
11081SOL    HW151235   8.501   1.203   5.011 -0.5421 -0.9293  0.4369
11081SOL    HW251236   8.482   1.208   4.861  0.2329 -0.7501  0.3408
11082SOL     OW51237  12.766  13.356   3.142 -0.7284 -0.4308  0.0450
11082SOL    HW151238  12.687  13.408   3.132 -0.8094 -0.6839 -0.6986
11082SOL    HW251239  12.775  13.309   3.059  0.0043 -0.6794  0.2507
11083SOL     OW51240   5.939  13.052   5.968 -0.3307 -0.0421  0.0535
11083SOL    HW151241   5.857  13.043   6.017 -0.5877 -0.3432 -0.4353
11083SOL    HW251242   5.960  12.964   5.938 -1.0632  0.3966 -1.8281
11084SOL     OW51243   9.521   0.721   2.575 -0.1708 -0.4753  0.3634
11084SOL    HW151244   9.426   0.731   2.581 -0.4188 -2.6867  0.8241
11084SOL    HW251245   9.535   0.669   2.497  0.6529 -0.4527  0.4870
11085SOL     OW51246   8.423   9.441  11.393  0.0869  0.4679  0.4816
11085SOL    HW151247   8.365   9.470  11.463  0.2820  1.2228  0.3364
11085SOL    HW251248   8.421   9.345  11.399 -0.4074  0.5079  1.0966
11086SOL     OW51249   4.435   8.495  12.946 -0.0997 -0.2378  0.1529
11086SOL    HW151250   4.375   8.567  12.968  0.2006 -0.0193  0.2659
11086SOL    HW251251   4.379   8.417  12.943 -0.3234 -0.0974  0.6255
11087SOL     OW51252  13.335  14.037   4.074  0.3226  0.0781  0.4443
11087SOL    HW151253  13.388  14.066   4.000 -0.2577  1.6986  0.6246
11087SOL    HW251254  13.398  14.024   4.145  0.5829  1.3004  0.4573
11088SOL     OW51255   7.365  10.321   0.639 -0.2045 -0.6985  0.1402
11088SOL    HW151256   7.351  10.315   0.544 -1.2543 -0.2713  0.2479
11088SOL    HW251257   7.403  10.408   0.652  1.1551 -1.2568 -0.0037
11089SOL     OW51258   7.169   6.898  11.599  0.1532  0.1619 -0.1020
11089SOL    HW151259   7.115   6.825  11.625 -0.0810  0.4268  0.1547
11089SOL    HW251260   7.112   6.975  11.605  0.3341  0.3409 -0.5656
11090SOL     OW51261   8.732  14.092   3.907  0.4870 -0.1163 -0.3194
11090SOL    HW151262   8.659  14.135   3.952 -0.2333 -1.4479 -0.1552
11090SOL    HW251263   8.699  14.075   3.819  0.3757 -1.1907 -0.0903
11091SOL     OW51264  11.985   6.306  11.775 -0.0476  0.0579  0.2379
11091SOL    HW151265  11.957   6.328  11.686 -0.1969  1.9790  0.7037
11091SOL    HW251266  11.920   6.242  11.806 -1.9640  1.8148  0.0714
11092SOL     OW51267   7.402   5.144  10.218 -0.1756 -0.2301  0.0348
11092SOL    HW151268   7.400   5.066  10.273  0.3148  0.7211  1.4747
11092SOL    HW251269   7.371   5.214  10.276 -0.2561  0.7034 -1.1092
11093SOL     OW51270   8.213   8.202   0.374 -0.5559 -0.1351  0.5229
11093SOL    HW151271   8.119   8.183   0.366 -0.6531  0.7202 -0.6660
11093SOL    HW251272   8.251   8.163   0.295 -0.2345  1.3092 -0.0712
11094SOL     OW51273  13.264   1.378   0.496  0.3930  0.0028 -0.4737
11094SOL    HW151274  13.200   1.306   0.498  1.3303 -0.8563 -0.3504
11094SOL    HW251275  13.219   1.448   0.449 -0.6519 -0.5627 -0.3607
11095SOL     OW51276  12.783   1.126  10.210 -0.1768 -0.0207 -0.0279
11095SOL    HW151277  12.710   1.099  10.265  0.4869 -1.1387  0.3330
11095SOL    HW251278  12.828   1.045  10.187  1.8023  0.7125  0.9516
11096SOL     OW51279  10.487  11.747  13.266 -0.4430  0.2516 -0.4439
11096SOL    HW151280  10.433  11.817  13.302  0.6137  0.4904  0.7620
11096SOL    HW251281  10.427  11.674  13.253 -0.8945  0.1250  1.9617
11097SOL     OW51282  11.874  11.551   4.832  0.2659 -0.1098 -0.0412
11097SOL    HW151283  11.794  11.509   4.863 -0.0519 -0.3350 -1.1103
11097SOL    HW251284  11.902  11.497   4.758  1.0297  0.3592 -0.1064
11098SOL     OW51285  10.863   0.572   8.232 -0.2079  0.3337 -0.1819
11098SOL    HW151286  10.801   0.543   8.298  2.3750 -0.9866  1.8401
11098SOL    HW251287  10.810   0.620   8.168 -3.0636  0.3112  1.9967
11099SOL     OW51288   7.379  13.238  11.987  0.6594  0.3635 -1.0579
11099SOL    HW151289   7.375  13.154  12.034  1.0250 -0.1520 -1.9250
11099SOL    HW251290   7.448  13.287  12.032 -1.9472  1.7392  1.8294
11100SOL     OW51291   0.941  12.571   7.615  0.0085  0.6530  0.2309
11100SOL    HW151292   1.031  12.538   7.607 -0.7559 -1.3629 -0.6178
11100SOL    HW251293   0.897  12.508   7.672 -1.3284  0.5664 -0.8430
11101SOL     OW51294   6.567  13.102   6.383 -0.0829  0.1510 -0.1356
11101SOL    HW151295   6.640  13.152   6.419 -0.5682 -0.2973  1.5795
11101SOL    HW251296   6.559  13.026   6.442  0.7651 -2.1128 -2.7073
11102SOL     OW51297   8.808   8.078  14.150  0.5880  0.4568 -0.5715
11102SOL    HW151298   8.808   8.133  14.229  0.6905 -1.1319  0.5799
11102SOL    HW251299   8.889   8.102  14.104  1.3133  0.3268  0.5941
11103SOL     OW51300   6.828  11.993   9.913 -0.1675  0.3813 -0.5557
11103SOL    HW151301   6.918  11.965   9.898 -0.7805 -0.7563 -2.5050
11103SOL    HW251302   6.783  11.915   9.944 -0.7142  0.6404 -0.6756
11104SOL     OW51303   4.670   3.343  11.640  0.2518 -0.3238  0.2657
11104SOL    HW151304   4.609   3.374  11.573  0.7251 -3.4520 -1.7987
11104SOL    HW251305   4.615   3.297  11.704  0.0727  0.5478  0.7657
11105SOL     OW51306   8.737  11.213   1.213 -0.3174 -0.0142 -0.0071
11105SOL    HW151307   8.746  11.169   1.298 -0.3027  0.5331  0.2855
11105SOL    HW251308   8.803  11.283   1.216  0.5303 -0.7460 -0.9727
11106SOL     OW51309   2.136   0.583  12.950 -0.3775  0.2047 -0.1171
11106SOL    HW151310   2.125   0.530  12.871  0.0468 -0.0328 -0.0186
11106SOL    HW251311   2.082   0.540  13.016  0.4385 -0.4692  0.1325
11107SOL     OW51312  10.925   5.735  13.245  0.0187 -0.2681 -0.1105
11107SOL    HW151313  10.895   5.668  13.307  1.2069  1.0480  2.0301
11107SOL    HW251314  11.006   5.699  13.208  0.4212 -0.2239  0.7022
11108SOL     OW51315   2.097   9.479  11.898  0.5931 -0.0495 -0.3837
11108SOL    HW151316   2.065   9.540  11.965  1.3511 -0.6195  0.5173
11108SOL    HW251317   2.126   9.402  11.948 -0.6652 -1.3084 -1.5207
11109SOL     OW51318   1.152   0.586  10.591 -0.3204  0.5807  0.1682
11109SOL    HW151319   1.104   0.597  10.509  0.6282  0.9184 -0.3481
11109SOL    HW251320   1.121   0.657  10.647 -3.0168 -1.1943  1.1534
11110SOL     OW51321   5.279   8.044   9.606 -0.1117 -0.7030  0.4140
11110SOL    HW151322   5.256   8.137   9.613  1.0140 -0.1441 -2.1390
11110SOL    HW251323   5.239   8.016   9.524  0.2413 -2.2846  0.7543
11111SOL     OW51324  11.474   2.156   9.306 -0.1334  0.2356  0.3892
11111SOL    HW151325  11.544   2.095   9.327 -0.2131 -0.1961 -0.5302
11111SOL    HW251326  11.518   2.230   9.263 -0.1930  0.1805  0.2337
11112SOL     OW51327   7.954   8.938   5.657 -0.2549 -0.5223 -0.7583
11112SOL    HW151328   8.049   8.946   5.657 -0.2298 -0.7150  0.2325
11112SOL    HW251329   7.932   8.906   5.744 -1.5809  4.2428  0.9975
11113SOL     OW51330  10.409   8.614   9.435 -0.1682  0.0234  0.0512
11113SOL    HW151331  10.417   8.530   9.481 -1.4335 -1.0990 -1.6504
11113SOL    HW251332  10.493   8.626   9.392  0.2159 -0.0810  0.7667
11114SOL     OW51333   6.333  11.013  11.810 -0.1947  0.3348 -0.7620
11114SOL    HW151334   6.263  10.980  11.754 -2.2020  3.7104 -0.5037
11114SOL    HW251335   6.405  10.951  11.797 -2.0111 -1.4179 -3.7044
11115SOL     OW51336   5.960   3.346   2.098 -0.3052  0.0529  0.0124
11115SOL    HW151337   5.891   3.412   2.103  0.2125  0.6804 -0.8996
11115SOL    HW251338   6.029   3.377   2.157 -0.3362 -0.0168  0.0868
11116SOL     OW51339   4.890  10.205  11.573  0.0598  0.0619  0.1109
11116SOL    HW151340   4.894  10.246  11.487 -0.0668  1.7659  0.8797
11116SOL    HW251341   4.882  10.111  11.555  0.7338  0.3200 -1.7130
11117SOL     OW51342   1.644   6.362   9.497  0.5791 -0.5456  0.0979
11117SOL    HW151343   1.687   6.419   9.433  0.7025 -2.1044 -1.2787
11117SOL    HW251344   1.553   6.391   9.498  1.0336  0.9054  0.8690
11118SOL     OW51345  13.486   8.098  12.779 -0.2973 -0.1342 -0.0080
11118SOL    HW151346  13.450   8.099  12.691  1.7676 -0.4230 -0.9069
11118SOL    HW251347  13.576   8.130  12.769  0.0370 -0.3134  1.9717
11119SOL     OW51348   2.353   0.385   9.663  0.1111  0.8333 -0.1267
11119SOL    HW151349   2.430   0.337   9.632  0.2760  0.1923  1.2148
11119SOL    HW251350   2.370   0.399   9.756 -2.0657 -0.6569  0.5677
11120SOL     OW51351  10.212  12.971  10.076 -0.3194  0.4437 -0.6351
11120SOL    HW151352  10.225  12.893  10.131  2.2843  1.8468  0.9596
11120SOL    HW251353  10.228  12.940   9.987  0.2050 -0.9525 -0.0897
11121SOL     OW51354  10.138   2.151  10.893  0.3459 -0.2198  0.2836
11121SOL    HW151355  10.160   2.229  10.842 -0.4302 -0.5023 -0.5012
11121SOL    HW251356  10.150   2.078  10.832  2.2746 -0.8744  1.3531
11122SOL     OW51357   9.001   3.068  14.015 -0.0725  0.3187  0.1204
11122SOL    HW151358   8.913   3.044  13.988  0.6846 -1.6831 -0.8100
11122SOL    HW251359   9.037   3.117  13.941 -0.1226  0.3834  0.1393
11123SOL     OW51360   8.486  11.501   0.449 -0.1461 -0.2281 -0.1570
11123SOL    HW151361   8.523  11.564   0.387 -1.1321  0.3001 -0.2278
11123SOL    HW251362   8.396  11.487   0.418 -0.5255 -0.2451  0.9244
11124SOL     OW51363   0.029   0.299   2.369  0.2528 -0.0974 -0.0075
11124SOL    HW151364   0.009   0.216   2.325  1.2964  0.7091 -2.1223
11124SOL    HW251365   0.027   0.277   2.462  0.2043 -2.4357 -0.4892
11125SOL     OW51366  13.194  10.674   2.837 -0.3654  0.0167  0.8370
11125SOL    HW151367  13.235  10.627   2.910 -2.3271 -1.7630  0.9153
11125SOL    HW251368  13.100  10.673   2.859 -0.9181  0.0982 -1.3178
11126SOL     OW51369   1.852   1.647  12.769 -0.3510 -0.1323 -0.3259
11126SOL    HW151370   1.893   1.627  12.853 -0.8798 -0.9231 -0.2428
11126SOL    HW251371   1.873   1.739  12.753 -0.8991  0.2623  1.0530
11127SOL     OW51372  11.123  13.481   4.107 -0.0256  0.4196  0.6657
11127SOL    HW151373  11.033  13.514   4.115  0.1091  1.3156 -1.0419
11127SOL    HW251374  11.117  13.388   4.127 -1.5698  0.2115 -0.5509
11128SOL     OW51375   5.881   1.510   1.644  0.3480  0.3012 -0.3349
11128SOL    HW151376   5.829   1.537   1.568 -0.2317  1.4066  0.4294
11128SOL    HW251377   5.828   1.442   1.687 -0.8325  1.8762  0.8036
11129SOL     OW51378   4.960  12.252  13.689  0.2388 -0.1192 -0.4322
11129SOL    HW151379   5.032  12.260  13.627  0.3497 -1.4343 -0.5114
11129SOL    HW251380   4.999  12.213  13.767 -0.2463 -0.1695 -0.2071
11130SOL     OW51381   4.001   1.778  11.380  0.2916 -0.3160  0.3636
11130SOL    HW151382   4.088   1.745  11.357  0.3668 -0.6699  1.1420
11130SOL    HW251383   4.015   1.830  11.459  0.1503  1.4790 -0.7529
11131SOL     OW51384   9.652   0.966   2.961 -0.1908  0.5761  0.7644
11131SOL    HW151385   9.707   1.033   3.000  1.1647 -0.8409  1.4047
11131SOL    HW251386   9.636   0.904   3.032  0.1985 -0.7356 -0.2513
11132SOL     OW51387   2.586   4.601  10.671  0.3684 -0.0820 -0.3388
11132SOL    HW151388   2.644   4.674  10.694  0.0671 -0.3856  1.5340
11132SOL    HW251389   2.512   4.643  10.626 -0.0406  0.8596  1.1431
11133SOL     OW51390  11.350   1.408   5.185 -0.2107 -0.0479  0.1239
11133SOL    HW151391  11.275   1.410   5.125 -0.5271 -2.2224  0.3699
11133SOL    HW251392  11.426   1.424   5.129 -0.7332  0.9190 -0.3369
11134SOL     OW51393  10.404  12.743  12.855 -0.2480 -0.0812 -0.0332
11134SOL    HW151394  10.412  12.715  12.764 -0.2016  0.5270 -0.2228
11134SOL    HW251395  10.410  12.839  12.852 -1.5501  0.0489  0.4568
11135SOL     OW51396   9.596  11.104   1.661 -0.6344  0.6826  0.0506
11135SOL    HW151397   9.674  11.142   1.621 -0.0460 -0.9973 -0.4926
11135SOL    HW251398   9.546  11.069   1.587  0.1275 -1.8461  0.6180
11136SOL     OW51399   1.877  13.723   8.467  0.5386  0.2446  0.0460
11136SOL    HW151400   1.824  13.643   8.474 -1.1717  1.0741 -2.1540
11136SOL    HW251401   1.849  13.776   8.542  1.8557 -1.2028  1.6666
11137SOL     OW51402   1.499   4.046   6.368  0.2581  0.4078 -0.2488
11137SOL    HW151403   1.570   4.111   6.368 -0.3043  1.0507 -1.2422
11137SOL    HW251404   1.497   4.014   6.459  1.6368  0.5515 -0.1371
11138SOL     OW51405   6.286   9.754  10.206  0.7194 -0.7180  0.2976
11138SOL    HW151406   6.246   9.825  10.155 -0.1278 -1.0518  0.4756
11138SOL    HW251407   6.216   9.688  10.213  0.1352  0.0860  3.4919
11139SOL     OW51408  14.019   2.070   8.827  0.3659  0.3121  0.4063
11139SOL    HW151409  14.003   2.020   8.907 -0.4629  1.7483  1.1847
11139SOL    HW251410  14.050   2.006   8.764  1.0107 -0.8643  1.8724
11140SOL     OW51411  13.787  13.120   1.770 -0.2798 -0.4200  1.0766
11140SOL    HW151412  13.701  13.145   1.737 -0.2300 -1.4562  0.0905
11140SOL    HW251413  13.845  13.130   1.695  0.3102 -0.5045  1.5149
11141SOL     OW51414   2.090   0.891   8.138  0.1720 -0.4664 -0.0264
11141SOL    HW151415   2.167   0.841   8.166 -0.1847 -0.3161  1.2861
11141SOL    HW251416   2.060   0.847   8.059  2.4577  0.3457 -1.4656
11142SOL     OW51417  12.055  12.819   7.072  0.0441  0.2526 -0.2513
11142SOL    HW151418  11.985  12.782   7.018 -0.9569  1.4226  0.2118
11142SOL    HW251419  12.076  12.902   7.030  1.7333 -0.4215 -0.8361
11143SOL     OW51420   6.062   0.367  12.669  0.2410 -0.0627  0.4105
11143SOL    HW151421   6.120   0.297  12.698 -0.1965 -0.2871  0.7452
11143SOL    HW251422   5.977   0.326  12.659  0.5439 -0.1945 -2.0587
11144SOL     OW51423   4.067  13.893  10.395  0.0323  0.2317 -0.2564
11144SOL    HW151424   4.150  13.931  10.365  0.2847 -0.8766 -1.0343
11144SOL    HW251425   4.007  13.907  10.322 -0.5782  1.3479  0.4470
11145SOL     OW51426   7.884  13.957   5.183 -0.0695 -0.2668 -0.0929
11145SOL    HW151427   7.878  13.916   5.270 -0.3565  1.1349  0.5822
11145SOL    HW251428   7.976  13.981   5.174 -0.5169  2.3047  1.1940
11146SOL     OW51429  13.105   3.042  12.934 -0.5094  0.3201  0.3640
11146SOL    HW151430  13.161   3.055  13.011 -1.1480 -0.0116  0.8924
11146SOL    HW251431  13.108   3.125  12.888  1.6702 -0.1499 -0.4701
11147SOL     OW51432   8.595   0.860  12.200 -1.0858  0.3222 -0.7631
11147SOL    HW151433   8.562   0.950  12.194 -1.3324  0.2321 -0.7828
11147SOL    HW251434   8.516   0.806  12.200 -0.9651  0.1365 -0.0652
11148SOL     OW51435   0.479  12.848   9.562 -0.2257  0.2480 -0.4849
11148SOL    HW151436   0.445  12.814   9.645 -0.2969  0.5229 -0.3986
11148SOL    HW251437   0.536  12.779   9.529 -1.3160 -0.4750 -0.9282
11149SOL     OW51438  13.726   7.716  10.313  0.2019 -0.0008  0.0452
11149SOL    HW151439  13.769   7.752  10.235  2.1731 -2.1025  0.0467
11149SOL    HW251440  13.638   7.695  10.284  0.4903  0.4516 -1.2402
11150SOL     OW51441  13.995   3.053   7.750 -0.1080  0.4075  0.2323
11150SOL    HW151442  14.028   3.138   7.723  0.0905 -0.1608 -1.4365
11150SOL    HW251443  14.073   3.001   7.770 -0.2486  0.8368  2.1237
11151SOL     OW51444   0.562   3.784   0.720  0.2191 -0.0536 -0.6583
11151SOL    HW151445   0.565   3.713   0.784 -0.6831 -0.6263 -1.2205
11151SOL    HW251446   0.495   3.844   0.755  1.4798  0.9273  0.1860
11152SOL     OW51447  12.816   1.592   9.033  0.4544 -0.3596  0.3975
11152SOL    HW151448  12.900   1.562   9.067  0.4677 -1.0122 -0.1813
11152SOL    HW251449  12.825   1.585   8.938 -0.1827 -0.2469  0.3228
11153SOL     OW51450   5.237   2.907  12.197 -0.2711  0.1119  0.0715
11153SOL    HW151451   5.235   2.898  12.292  0.4997 -0.4647  0.0389
11153SOL    HW251452   5.251   3.001  12.183 -0.6785  0.2445  0.5174
11154SOL     OW51453  12.329   1.585   3.778  0.2925  0.3407 -0.5702
11154SOL    HW151454  12.264   1.577   3.847  0.7177  1.0687 -0.0630
11154SOL    HW251455  12.367   1.497   3.769 -0.3468  0.0529 -0.4695
11155SOL     OW51456  10.617   1.473   9.098  0.0810 -0.2130  0.3858
11155SOL    HW151457  10.576   1.429   9.173  1.3584  0.7328  1.6861
11155SOL    HW251458  10.593   1.419   9.023 -1.0288 -1.3347  1.4947
11156SOL     OW51459  11.407   5.674  11.135 -0.7838  0.1865 -0.3216
11156SOL    HW151460  11.429   5.695  11.226 -0.8297 -0.0690 -0.2525
11156SOL    HW251461  11.478   5.619  11.104 -0.1407  1.2666 -0.8233
11157SOL     OW51462   9.572  10.315   8.086 -0.2186 -0.2234 -0.3062
11157SOL    HW151463   9.526  10.374   8.146 -0.3286  1.4018 -1.8789
11157SOL    HW251464   9.612  10.249   8.142 -0.8293  0.8611  1.4818
11158SOL     OW51465   6.370  10.271   1.081 -0.2557  0.0668  0.2769
11158SOL    HW151466   6.346  10.320   1.002  0.0826 -0.0358  0.1070
11158SOL    HW251467   6.448  10.315   1.113 -1.1973  0.9973  1.3719
11159SOL     OW51468   8.652   4.532   9.274 -0.0682  0.7483  0.7806
11159SOL    HW151469   8.564   4.543   9.311 -1.2923  1.9479 -2.1752
11159SOL    HW251470   8.666   4.437   9.273 -2.5160  0.3031 -1.0255
11160SOL     OW51471  10.360  12.055   8.341  0.1192  0.4213  0.2159
11160SOL    HW151472  10.405  12.070   8.424 -0.6229  0.9235  0.5436
11160SOL    HW251473  10.279  12.010   8.366  1.2666 -2.2400 -0.5380
11161SOL     OW51474  11.441   6.746   8.151 -1.2418  0.6154 -0.2560
11161SOL    HW151475  11.345   6.742   8.155 -1.4728  2.8439 -1.4930
11161SOL    HW251476  11.469   6.757   8.241 -2.6001  4.7055 -0.1310
11162SOL     OW51477   9.808   3.640   9.054  0.0664 -0.0807  0.0561
11162SOL    HW151478   9.756   3.720   9.049 -0.6774 -0.6010 -0.9444
11162SOL    HW251479   9.883   3.656   8.997  0.7195  0.4421  1.0276
11163SOL     OW51480  11.494   2.292   3.992  0.2188 -0.0542  0.7467
11163SOL    HW151481  11.577   2.317   4.033  1.7722  0.3915 -2.3926
11163SOL    HW251482  11.436   2.366   4.010  0.8600  0.2056  1.8963
11164SOL     OW51483  11.742   7.778   7.100  0.3035  0.3875  0.3663
11164SOL    HW151484  11.763   7.857   7.151 -1.0905  0.9600  0.0970
11164SOL    HW251485  11.662   7.745   7.140 -0.4945  0.5166 -1.0791
11165SOL     OW51486  10.898   9.989   6.268 -0.1610 -0.2036 -0.9097
11165SOL    HW151487  10.954   9.935   6.213  0.2855 -0.6992 -0.0000
11165SOL    HW251488  10.920  10.079   6.244 -0.7202 -0.3992 -2.2539
11166SOL     OW51489   5.457   1.724   3.552  0.6953 -0.2311  0.5118
11166SOL    HW151490   5.552   1.730   3.543  0.9660 -2.3645  1.4623
11166SOL    HW251491   5.437   1.633   3.529 -1.4174  0.7303 -1.8580
11167SOL     OW51492   7.987   7.091   8.883 -0.2452  0.4842  0.3944
11167SOL    HW151493   7.992   6.996   8.871 -1.9949  0.5912 -1.8308
11167SOL    HW251494   8.055   7.110   8.947  3.2454 -1.7557 -2.2560
11168SOL     OW51495   1.416   1.175  13.963  0.3378  0.2114  0.2936
11168SOL    HW151496   1.504   1.175  13.926  0.1961 -0.5383 -0.0652
11168SOL    HW251497   1.430   1.169  14.058  0.6771 -0.1461  0.2256
11169SOL     OW51498   5.511   9.228   9.466 -0.0627  0.1786  0.3900
11169SOL    HW151499   5.511   9.322   9.450 -0.0554  0.1668  0.3175
11169SOL    HW251500   5.548   9.190   9.386  2.0186  0.2582  1.2521
11170SOL     OW51501   8.648   9.347  13.143  0.1455 -0.1809 -0.1233
11170SOL    HW151502   8.630   9.434  13.177 -3.1285 -1.2031  1.2349
11170SOL    HW251503   8.676   9.296  13.219 -1.5007 -1.1042 -0.0813
11171SOL     OW51504   0.433  11.524   6.088 -0.5408 -0.4676  0.1150
11171SOL    HW151505   0.452  11.431   6.103 -1.6455 -0.8937 -0.8826
11171SOL    HW251506   0.411  11.528   5.995  1.4150  1.1626 -0.3534
11172SOL     OW51507  10.584   6.098   3.830  0.1889 -0.4188 -0.0799
11172SOL    HW151508  10.618   6.186   3.843 -0.2768 -0.4109  1.3641
11172SOL    HW251509  10.490   6.111   3.814 -0.1514 -0.6899  1.5375
11173SOL     OW51510   0.274   7.222   8.479 -0.0818  0.2962 -0.0866
11173SOL    HW151511   0.199   7.175   8.515 -1.3564  1.3774 -1.1914
11173SOL    HW251512   0.258   7.224   8.385  2.2462 -0.9259 -0.5732
11174SOL     OW51513   3.397   3.156   8.599 -0.5118  0.1228  0.4334
11174SOL    HW151514   3.352   3.112   8.671 -3.6122  1.3600 -0.5493
11174SOL    HW251515   3.388   3.250   8.619  2.6391  0.4862  0.6236
11175SOL     OW51516   7.199  13.078   2.558  0.0161 -0.0615 -0.1110
11175SOL    HW151517   7.197  13.013   2.488  0.3372 -3.6269  2.9298
11175SOL    HW251518   7.291  13.079   2.587 -0.3932  0.1493  1.2435
11176SOL     OW51519  12.427   8.990   5.190  0.9010 -0.2830  0.0004
11176SOL    HW151520  12.368   8.920   5.160 -0.0254  0.1335  0.8100
11176SOL    HW251521  12.498   8.943   5.234 -0.0920 -0.7225  1.2129
11177SOL     OW51522   5.675  12.221   9.722 -0.0822  0.3141  0.0770
11177SOL    HW151523   5.712  12.155   9.663  1.8301  1.6179 -0.3027
11177SOL    HW251524   5.637  12.171   9.794  2.2063 -1.2251  0.3168
11178SOL     OW51525   2.561   3.837   2.692 -0.0991  0.1602  0.3909
11178SOL    HW151526   2.569   3.808   2.601  1.8605  2.2593 -0.2021
11178SOL    HW251527   2.641   3.805   2.734 -0.2414  0.5464  0.9695
11179SOL     OW51528   6.542   3.927  13.579 -0.1688  0.3268 -0.2781
11179SOL    HW151529   6.634   3.934  13.604 -0.4500  0.8980  0.6325
11179SOL    HW251530   6.509   3.851  13.626 -0.3190  0.5017 -0.0966
11180SOL     OW51531   9.407   4.937   8.559 -0.0309 -0.0476  0.0469
11180SOL    HW151532   9.333   4.904   8.509 -0.5797  1.6590 -0.3221
11180SOL    HW251533   9.465   4.861   8.569 -2.4223 -1.8135  1.5418
11181SOL     OW51534   2.722   2.264   6.196 -0.3523  0.5306  0.1534
11181SOL    HW151535   2.641   2.263   6.143 -0.7103 -1.7200  0.6485
11181SOL    HW251536   2.697   2.308   6.277 -0.3422  2.1858 -0.6982
11182SOL     OW51537   5.157  14.137   1.727 -0.0029  0.0517 -0.0846
11182SOL    HW151538   5.201  14.160   1.645 -3.1950  0.8714 -1.7535
11182SOL    HW251539   5.162  14.041   1.730  1.3051  0.0854 -0.4875
11183SOL     OW51540   4.587  13.967  11.472 -0.2438 -0.8056  0.0717
11183SOL    HW151541   4.614  14.058  11.456 -0.5091 -0.6346  0.5838
11183SOL    HW251542   4.496  13.974  11.501 -0.6498 -1.3279 -1.0077
11184SOL     OW51543   9.024   4.522  12.015  0.0895 -0.3038  0.3329
11184SOL    HW151544   9.082   4.459  11.973  1.8395  0.7223  1.1286
11184SOL    HW251545   9.046   4.606  11.975 -0.9259  0.1095  0.5905
11185SOL     OW51546   4.368   9.855   8.133  0.2729  0.5648 -0.9955
11185SOL    HW151547   4.409   9.880   8.050  1.9886 -0.8071 -0.6134
11185SOL    HW251548   4.306   9.926   8.151  0.6610  1.4499 -2.8765
11186SOL     OW51549   0.042  12.364   6.919 -0.9995 -0.0367 -0.0152
11186SOL    HW151550   0.070  12.455   6.904 -1.9487 -0.0472 -2.1917
11186SOL    HW251551   0.083  12.340   7.002 -0.3020  2.2098  0.3568
11187SOL     OW51552   4.172  10.295   7.151 -0.3629 -0.8272 -0.9998
11187SOL    HW151553   4.237  10.362   7.134 -1.3947  0.5384  0.1471
11187SOL    HW251554   4.126  10.284   7.068  0.0440 -0.3690 -1.2894
11188SOL     OW51555   8.825  10.159   1.397  0.1006 -0.0428 -0.7849
11188SOL    HW151556   8.897  10.222   1.390  1.8080 -1.8971 -0.7332
11188SOL    HW251557   8.842  10.113   1.479 -0.9218 -0.8230 -0.9957
11189SOL     OW51558  11.484   3.836   5.690 -0.2587 -0.0388  0.5910
11189SOL    HW151559  11.552   3.798   5.633 -0.5771  0.6256 -0.2694
11189SOL    HW251560  11.521   3.921   5.715 -1.6802  1.4344 -1.8481
11190SOL     OW51561  14.089   2.350   4.219 -0.4168 -0.0348  0.4713
11190SOL    HW151562  14.141   2.416   4.173 -1.7993  1.5012  1.0515
11190SOL    HW251563  14.140   2.331   4.298 -1.4088  2.7061  1.8936
11191SOL     OW51564   3.598   1.617  12.279 -0.3381  0.1813 -0.5021
11191SOL    HW151565   3.576   1.709  12.291  0.9040  0.5110 -0.5624
11191SOL    HW251566   3.676   1.618  12.223  1.7119 -0.6966  2.0927
11192SOL     OW51567   4.697   9.327   8.149 -0.0553  0.0149 -0.3553
11192SOL    HW151568   4.693   9.243   8.105 -1.0795 -0.0304 -0.2038
11192SOL    HW251569   4.791   9.348   8.154  0.1171 -0.1148 -2.2541
11193SOL     OW51570   5.960   7.163   0.742  0.0426 -0.2378 -0.0133
11193SOL    HW151571   5.895   7.139   0.676  1.3003 -2.2370 -0.6115
11193SOL    HW251572   6.038   7.113   0.718  0.4481 -1.3591  3.1792
11194SOL     OW51573   6.981  11.045   6.131  0.5030 -0.2177  0.0388
11194SOL    HW151574   6.982  11.025   6.224  1.8621  0.7314  0.2551
11194SOL    HW251575   6.918  11.117   6.123  0.4447 -0.2466  0.2326
11195SOL     OW51576   6.220   7.721   6.452  0.1590 -0.0093 -0.3702
11195SOL    HW151577   6.294   7.661   6.454 -0.1567 -0.3923  1.3400
11195SOL    HW251578   6.158   7.682   6.391  0.2218 -1.1378  0.2650
11196SOL     OW51579  14.070   6.938   3.511  0.3430 -0.1085 -0.0566
11196SOL    HW151580  13.989   6.987   3.495  0.7716 -0.1611 -2.9689
11196SOL    HW251581  14.122   6.996   3.567 -0.0796  1.8401 -1.5705
11197SOL     OW51582   6.215   3.241  12.026  0.2592  0.1692 -0.0688
11197SOL    HW151583   6.159   3.240  12.104  1.0947 -1.4374  0.5538
11197SOL    HW251584   6.154   3.228  11.953 -0.2243 -1.8663  0.6151
11198SOL     OW51585   5.328   0.434   3.846 -0.0970 -0.2786 -0.1173
11198SOL    HW151586   5.239   0.397   3.846 -0.1903 -0.1358  1.6543
11198SOL    HW251587   5.348   0.446   3.938  2.1361 -1.1595 -0.4342
11199SOL     OW51588   0.689  14.118  13.270 -0.1076  0.0100 -0.3326
11199SOL    HW151589   0.709  14.143  13.360 -2.0937 -2.2000  0.8324
11199SOL    HW251590   0.755  14.053  13.248 -1.2986 -1.5805  0.6453
11200SOL     OW51591  13.717   7.489  10.502  0.1927 -0.1201 -0.2136
11200SOL    HW151592  13.734   7.572  10.457  1.7035 -1.0364 -1.3922
11200SOL    HW251593  13.714   7.513  10.595 -1.7487  1.6046 -0.6409
11201SOL     OW51594  10.828   0.065  10.687  0.3484 -0.7162  0.0182
11201SOL    HW151595  10.822   0.089  10.779  0.9173  0.3789 -0.2188
11201SOL    HW251596  10.913   0.097  10.659 -1.1176  1.9988 -1.7241
11202SOL     OW51597   5.861   9.083  12.883 -0.3531 -0.4340 -0.7496
11202SOL    HW151598   5.857   9.097  12.978 -1.6799 -0.6451 -0.7477
11202SOL    HW251599   5.776   9.045  12.861 -0.6861  1.0372 -2.2492
11203SOL     OW51600   6.912  10.492  11.220  0.1782 -0.0768  0.3545
11203SOL    HW151601   6.886  10.482  11.312 -0.4416  0.2635  0.2227
11203SOL    HW251602   6.841  10.543  11.181  1.2186  1.1969  0.0663
11204SOL     OW51603  10.275  12.990  11.865 -0.0967 -0.0242 -0.7005
11204SOL    HW151604  10.308  12.938  11.791 -0.6248 -0.3665 -0.7020
11204SOL    HW251605  10.250  13.074  11.825 -4.7045 -1.6950 -1.8798
11205SOL     OW51606   6.027   8.574  11.715 -0.3045 -0.1046 -0.3456
11205SOL    HW151607   5.964   8.634  11.675 -0.5305  0.1125  0.3283
11205SOL    HW251608   6.005   8.575  11.808  0.9327  0.2736 -0.0442
11206SOL     OW51609   4.299  13.426   7.221 -0.3281  0.0514 -0.4542
11206SOL    HW151610   4.313  13.505   7.168  0.6780  1.2556  1.5114
11206SOL    HW251611   4.352  13.439   7.299 -2.9433 -0.9273  1.6399
11207SOL     OW51612   0.891   1.103  12.936 -0.1058  0.1773 -0.4009
11207SOL    HW151613   0.960   1.047  12.900 -0.0572 -0.7374  1.0108
11207SOL    HW251614   0.890   1.180  12.880  2.7461  0.6808  0.1219
11208SOL     OW51615   8.849   2.196   2.343  0.0878 -0.4662 -0.1735
11208SOL    HW151616   8.755   2.211   2.331 -0.0447  0.5529  1.8083
11208SOL    HW251617   8.889   2.229   2.263 -1.1385  0.3514 -0.4761
11209SOL     OW51618   5.760   0.664   2.680 -0.3892 -0.0203  0.0905
11209SOL    HW151619   5.690   0.600   2.691  0.3648 -0.8503  0.1457
11209SOL    HW251620   5.718   0.748   2.699 -1.5777 -0.4040 -0.7112
11210SOL     OW51621  12.186   6.775   1.283 -0.6502  0.5084 -0.2629
11210SOL    HW151622  12.221   6.689   1.305 -2.6625 -0.4010 -0.3518
11210SOL    HW251623  12.243   6.837   1.328 -0.7699 -0.9927  2.1127
11211SOL     OW51624   8.184   0.077   1.683  0.6006 -0.2006 -0.1793
11211SOL    HW151625   8.272   0.104   1.659  0.0220  0.7275 -1.3367
11211SOL    HW251626   8.132   0.158   1.681  0.1756 -0.2967  2.8032
11212SOL     OW51627  13.983   0.694   9.171 -0.1174  0.3474  0.7360
11212SOL    HW151628  14.054   0.642   9.134 -3.3223 -3.1886 -1.2948
11212SOL    HW251629  13.972   0.767   9.109 -1.1111 -1.7771 -1.8031
11213SOL     OW51630  11.671   0.513  10.392 -0.1510 -0.0871 -0.0313
11213SOL    HW151631  11.752   0.519  10.443 -0.3628 -0.7461  0.3856
11213SOL    HW251632  11.656   0.419  10.381 -1.5128 -0.0027  0.9315
11214SOL     OW51633  12.962   3.984   5.172  0.3156 -0.0015 -0.7150
11214SOL    HW151634  12.900   3.920   5.137 -0.2159 -0.9444  1.7690
11214SOL    HW251635  12.917   4.023   5.247  2.7426 -0.8397  1.2870
11215SOL     OW51636   7.242   3.873  10.881  0.0250  0.0458 -0.1714
11215SOL    HW151637   7.275   3.815  10.949  0.8919 -0.1403 -0.7181
11215SOL    HW251638   7.303   3.860  10.808 -0.4602  0.7684 -0.7201
11216SOL     OW51639   7.510   9.521   0.277 -0.0169  0.0585  0.0093
11216SOL    HW151640   7.567   9.598   0.287  1.4359 -0.9831  0.0784
11216SOL    HW251641   7.434   9.540   0.332  1.2386  0.6035  1.6321
11217SOL     OW51642   1.313   3.988   2.045  0.3143 -0.4589 -0.5691
11217SOL    HW151643   1.253   3.960   2.114  0.6163  0.8259  0.2329
11217SOL    HW251644   1.386   4.028   2.091  1.7531 -1.8354 -1.5433
11218SOL     OW51645   7.837  10.665   0.392 -0.1158  0.3529  0.3269
11218SOL    HW151646   7.873  10.754   0.394 -0.4442  0.5012  2.4471
11218SOL    HW251647   7.758  10.672   0.338  1.3439  0.6740 -1.8702
11219SOL     OW51648   7.126   8.166   4.282  0.0253  0.1142  1.2891
11219SOL    HW151649   7.205   8.165   4.228 -0.3306  0.9078  0.7272
11219SOL    HW251650   7.070   8.232   4.241 -0.9001 -0.3786  1.7185
11220SOL     OW51651   6.585   1.735  10.031  0.5941  0.0092  0.2191
11220SOL    HW151652   6.538   1.806  10.075  2.3493  1.1659  0.3272
11220SOL    HW251653   6.573   1.752   9.938  1.5716  0.8866  0.2342
11221SOL     OW51654   4.645   9.469   4.504 -0.3763 -0.1396  0.9331
11221SOL    HW151655   4.628   9.410   4.432 -0.2173  1.5231 -0.5308
11221SOL    HW251656   4.734   9.502   4.487  0.0450 -0.4269  2.4197
11222SOL     OW51657   8.971   7.713  10.389 -0.0786  0.2093 -0.5243
11222SOL    HW151658   9.019   7.766  10.325  0.4818  0.3140 -0.0334
11222SOL    HW251659   8.883   7.706  10.354 -0.0607  1.1566 -0.7852
11223SOL     OW51660   2.997   1.311   0.510  0.3764  0.2252 -0.3439
11223SOL    HW151661   2.984   1.405   0.497  0.5559  0.4329  0.8148
11223SOL    HW251662   2.925   1.285   0.568 -0.2305 -0.5597 -1.4219
11224SOL     OW51663   8.943   4.115   1.009  0.1438  0.3281 -0.1541
11224SOL    HW151664   8.959   4.026   0.979  1.4729  0.6334 -0.4246
11224SOL    HW251665   8.851   4.131   0.990  0.3153 -0.3990 -1.7269
11225SOL     OW51666  12.861  11.923  11.384  0.1572 -0.0131  0.2597
11225SOL    HW151667  12.871  11.892  11.474 -1.9873 -1.0420  0.2088
11225SOL    HW251668  12.897  11.853  11.330  1.8757  0.8053  0.2694
11226SOL     OW51669   6.846   0.275   6.700 -0.3646  0.3606  0.0112
11226SOL    HW151670   6.813   0.187   6.684  1.4693 -0.3813  0.1080
11226SOL    HW251671   6.911   0.265   6.770 -0.0196  1.7640 -0.0656
11227SOL     OW51672   2.782   7.455  13.129  0.1525 -0.4181 -0.2519
11227SOL    HW151673   2.811   7.363  13.126  1.5443 -0.0027 -0.4346
11227SOL    HW251674   2.710   7.455  13.191  1.3952 -1.3228  1.2693
11228SOL     OW51675   5.158   8.525   4.927 -0.1523  0.2348 -0.0988
11228SOL    HW151676   5.226   8.512   4.993 -0.3222  2.6365  0.6492
11228SOL    HW251677   5.166   8.618   4.903 -1.9285  0.0982 -1.4076
11229SOL     OW51678  13.929  12.502   7.674  0.0462  0.2005  0.1491
11229SOL    HW151679  13.987  12.567   7.634  1.4695 -0.8780  0.3720
11229SOL    HW251680  13.853  12.498   7.615 -0.1279  2.0968  0.1846
11230SOL     OW51681   5.287  11.336   8.794  0.0791  0.4076  0.0755
11230SOL    HW151682   5.277  11.307   8.703 -0.5143  0.5129  0.0990
11230SOL    HW251683   5.320  11.425   8.787  3.4084 -0.7174  0.0225
11231SOL     OW51684   7.549   5.846  13.102 -0.4731  0.4857 -0.7306
11231SOL    HW151685   7.631   5.896  13.111 -0.7102  1.0561 -1.6100
11231SOL    HW251686   7.558   5.800  13.019 -0.6508 -0.2176 -0.3644
11232SOL     OW51687   0.713   9.581  13.219  0.0971  0.0299 -0.6136
11232SOL    HW151688   0.714   9.644  13.292 -2.0504  0.2228 -0.6747
11232SOL    HW251689   0.805   9.560  13.204  0.6147 -0.1800  2.2926
11233SOL     OW51690   9.803  14.147   5.852 -0.4149  0.1896 -0.7404
11233SOL    HW151691   9.758  14.230   5.870  1.0550  0.4248  2.4617
11233SOL    HW251692   9.732  14.082   5.851 -1.4184  1.2538 -1.7227
11234SOL     OW51693   8.785   5.854   9.262 -0.0265  0.8298  0.6121
11234SOL    HW151694   8.767   5.888   9.349  0.4520 -0.7299  1.3703
11234SOL    HW251695   8.861   5.797   9.274 -1.1363 -0.9752 -0.3966
11235SOL     OW51696   0.376  12.111   2.221 -0.2126  0.0490  0.4137
11235SOL    HW151697   0.370  12.144   2.311  1.5376  0.8196  0.2877
11235SOL    HW251698   0.413  12.023   2.231 -0.5384 -0.0870  0.4625
11236SOL     OW51699   6.594   9.519   9.695  0.4396 -0.2225  0.0351
11236SOL    HW151700   6.673   9.521   9.640 -0.6859  1.3827 -1.6474
11236SOL    HW251701   6.522   9.506   9.633 -0.8216  0.7627  1.2246
11237SOL     OW51702  12.341  13.620   9.435  0.2731  0.3123  0.4981
11237SOL    HW151703  12.361  13.701   9.389  0.3814  0.8829  1.5206
11237SOL    HW251704  12.421  13.599   9.482  1.0068 -1.5989 -1.4411
11238SOL     OW51705  10.927   8.490   8.610  0.2440 -0.7138  0.0526
11238SOL    HW151706  10.923   8.394   8.605  0.0512 -0.7051  0.0412
11238SOL    HW251707  10.950   8.517   8.522  2.2289 -0.8520  0.4863
11239SOL     OW51708  13.830   6.244   1.546  0.0367 -0.2110 -0.2508
11239SOL    HW151709  13.743   6.259   1.583  0.5597  0.7625  0.6582
11239SOL    HW251710  13.820   6.166   1.491 -1.0521 -1.0749  1.0953
11240SOL     OW51711   6.379   8.720  12.922  0.0728  0.0569  0.2757
11240SOL    HW151712   6.374   8.810  12.891 -2.3096 -0.4579 -1.0976
11240SOL    HW251713   6.295   8.705  12.966  1.2087 -0.9364  2.2195
11241SOL     OW51714  13.845  13.224   1.315 -0.2013  0.2469  0.9339
11241SOL    HW151715  13.858  13.196   1.224 -0.9692 -1.8888  1.4259
11241SOL    HW251716  13.834  13.319   1.309  1.2407  0.3575 -1.0183
11242SOL     OW51717   5.704   9.921   7.383 -0.2395  0.0911 -0.4706
11242SOL    HW151718   5.662   9.994   7.337  2.5641  1.6831 -0.7237
11242SOL    HW251719   5.668   9.843   7.341 -3.5927  1.2121  0.0140
11243SOL     OW51720   3.660   5.420   6.605  0.7852 -0.0657 -0.6410
11243SOL    HW151721   3.630   5.506   6.576  0.5420 -0.1149 -0.5432
11243SOL    HW251722   3.743   5.437   6.650  1.3860 -0.0426 -1.7293
11244SOL     OW51723   5.794   5.386   0.962  0.7281  0.8204  0.0717
11244SOL    HW151724   5.749   5.435   0.893  0.5889  0.1540 -0.3253
11244SOL    HW251725   5.886   5.384   0.934  0.6809  0.5968 -0.0700
11245SOL     OW51726  13.462   7.371   8.115 -0.1982 -0.0955  0.3266
11245SOL    HW151727  13.509   7.296   8.152 -0.5586 -0.6110 -0.2501
11245SOL    HW251728  13.402   7.398   8.184 -0.8355 -1.0245  0.1482
11246SOL     OW51729   3.929   7.694  10.805 -0.1229 -0.5646  0.1300
11246SOL    HW151730   3.858   7.694  10.741 -0.1060 -2.8185  0.0363
11246SOL    HW251731   3.894   7.650  10.882  1.0220 -1.3542  0.2337
11247SOL     OW51732  11.739  10.994   0.777  0.0622  0.4951  0.2271
11247SOL    HW151733  11.691  11.013   0.857 -1.3860  0.1604 -0.5385
11247SOL    HW251734  11.770  10.905   0.788  1.7607  1.1644  1.3029
11248SOL     OW51735   4.836   7.942   5.684 -0.3004 -1.0482  0.2220
11248SOL    HW151736   4.828   8.013   5.620 -0.4307 -1.6940 -0.4852
11248SOL    HW251737   4.923   7.954   5.722 -0.5277 -0.1942  0.4964
11249SOL     OW51738  11.174   8.722   6.076 -0.2100 -0.5849 -0.1215
11249SOL    HW151739  11.210   8.768   6.000 -0.7279  0.1977  0.0869
11249SOL    HW251740  11.114   8.657   6.039  0.4514 -1.0233 -0.4220
11250SOL     OW51741  11.408   7.719   6.181  0.2832 -0.3959 -0.0098
11250SOL    HW151742  11.467   7.646   6.198  0.4673 -0.2878 -0.1743
11250SOL    HW251743  11.404   7.726   6.086 -0.6389 -0.9163 -0.0168
11251SOL     OW51744   5.098   6.519   2.025  0.1808 -0.2242 -0.0205
11251SOL    HW151745   5.080   6.425   2.018  1.0709 -0.6921  2.5761
11251SOL    HW251746   5.193   6.525   2.018  0.0610  0.6177 -1.0759
11252SOL     OW51747   5.495   3.825   6.527 -0.7910  0.0241 -0.3572
11252SOL    HW151748   5.490   3.914   6.492 -0.9387 -0.6069 -2.0603
11252SOL    HW251749   5.511   3.770   6.450 -1.0380 -1.4646  0.6089
11253SOL     OW51750  13.614   6.433  13.196  0.2119  0.2101  0.6635
11253SOL    HW151751  13.649   6.514  13.159  0.2156 -0.2768 -0.4313
11253SOL    HW251752  13.682   6.403  13.257  0.1725  1.0622  1.1438
11254SOL     OW51753  11.437   5.780   6.324  0.9952  0.2398 -0.4332
11254SOL    HW151754  11.521   5.819   6.300  0.1800  1.5619 -1.2728
11254SOL    HW251755  11.428   5.705   6.264  1.5460  0.1366 -0.3864
11255SOL     OW51756  12.909   9.514   1.485 -0.2089  0.2585 -0.2040
11255SOL    HW151757  12.879   9.425   1.498  0.7332 -0.1217 -0.5368
11255SOL    HW251758  12.915   9.525   1.390 -1.2169  0.9948 -0.1985
11256SOL     OW51759   6.729   2.482   7.500 -0.2211 -0.0266 -0.1164
11256SOL    HW151760   6.686   2.519   7.577  0.8312 -2.2159  1.6199
11256SOL    HW251761   6.658   2.472   7.436 -1.4018  0.5205  1.0525
11257SOL     OW51762   8.867   0.479  11.956 -0.0877 -0.6107 -0.4774
11257SOL    HW151763   8.797   0.530  11.915  0.7824  1.3944  0.3683
11257SOL    HW251764   8.947   0.513  11.917  0.4945 -1.9787 -0.5096
11258SOL     OW51765   6.902  10.832   5.646 -0.2684  0.2236 -0.2777
11258SOL    HW151766   6.947  10.751   5.668 -1.0754  0.0899  0.9212
11258SOL    HW251767   6.923  10.892   5.717  1.0071  1.3862 -1.5558
11259SOL     OW51768   5.960   4.993   6.761 -0.0133 -0.2770 -0.1626
11259SOL    HW151769   5.929   4.917   6.811  1.3376 -0.5560  0.3199
11259SOL    HW251770   5.996   4.956   6.681 -0.6544  0.0096 -0.5910
11260SOL     OW51771   6.016   4.324   6.454 -0.7159 -0.2764 -0.7071
11260SOL    HW151772   6.098   4.362   6.423 -0.5167 -0.9209 -0.9699
11260SOL    HW251773   5.989   4.264   6.385 -0.0491 -2.0445  0.4947
11261SOL     OW51774  10.033   1.089   1.046 -0.3076  0.3192  0.0290
11261SOL    HW151775   9.972   1.115   0.977  0.0443 -2.9851 -1.7707
11261SOL    HW251776   9.979   1.039   1.108 -0.3310  1.9481  1.3643
11262SOL     OW51777   6.004   9.468   8.824  0.2985 -0.1341  0.0082
11262SOL    HW151778   6.054   9.457   8.743 -0.2019 -2.1645 -0.0805
11262SOL    HW251779   5.923   9.510   8.796  0.8082  0.7102 -0.2540
11263SOL     OW51780  13.510   2.310  14.085 -0.1861  0.0767 -0.0822
11263SOL    HW151781  13.549   2.308  14.173  1.6952 -1.9059 -0.8700
11263SOL    HW251782  13.580   2.346  14.030 -1.1576  0.7860 -0.8827
11264SOL     OW51783  10.979   6.205  11.448 -0.0367  0.0986  0.2347
11264SOL    HW151784  11.066   6.167  11.450 -0.3541 -0.8328 -1.7104
11264SOL    HW251785  10.935   6.171  11.526  1.2239  0.3687  1.0836
11265SOL     OW51786   7.047   9.151   6.685 -0.2347  0.0451  0.0263
11265SOL    HW151787   7.081   9.175   6.771  0.7661 -1.7893  0.1954
11265SOL    HW251788   6.986   9.222   6.662 -0.1246  0.8335  1.9923
11266SOL     OW51789   7.098  11.473   6.538  0.0456  0.0913  0.2584
11266SOL    HW151790   7.044  11.504   6.466 -4.4134 -2.5046  2.0823
11266SOL    HW251791   7.097  11.545   6.601 -0.5197  0.4415 -0.1372
11267SOL     OW51792   7.581   1.947  13.879  0.3780  0.3757  0.0455
11267SOL    HW151793   7.630   1.867  13.860  0.7561  0.3921  0.8844
11267SOL    HW251794   7.646   2.017  13.875  0.3357  0.4586  0.6766
11268SOL     OW51795  11.598   9.163   6.940  0.0756 -0.9780  0.7276
11268SOL    HW151796  11.529   9.192   6.999  0.8113  0.4303  0.9335
11268SOL    HW251797  11.579   9.206   6.857  0.0179 -1.5802  0.4208
11269SOL     OW51798  13.989  12.115  12.684  0.3929  0.3866 -0.2885
11269SOL    HW151799  13.913  12.119  12.626  0.9428 -0.8095 -1.1334
11269SOL    HW251800  13.952  12.115  12.772 -0.4394  2.6759 -0.5747
11270SOL     OW51801   2.550  13.888   4.292 -0.3146 -0.0772 -0.4307
11270SOL    HW151802   2.472  13.892   4.347  0.0540 -0.3708  0.1264
11270SOL    HW251803   2.608  13.827   4.337  0.0924 -0.1423 -1.0272
11271SOL     OW51804   5.327  11.691  13.971 -0.0531  0.3604  0.5326
11271SOL    HW151805   5.232  11.689  13.955 -0.0273 -2.2400  0.1493
11271SOL    HW251806   5.336  11.658  14.060  0.4864  1.0371  0.7334
11272SOL     OW51807   9.439   3.166   1.857  0.2120  0.1160 -0.5040
11272SOL    HW151808   9.524   3.206   1.837  1.3681 -1.3316  1.1994
11272SOL    HW251809   9.422   3.190   1.948 -0.3869 -0.9912 -0.3066
11273SOL     OW51810   0.750  13.000   5.752  0.3242 -0.3960 -0.2350
11273SOL    HW151811   0.765  13.029   5.842 -2.8234  1.7489 -0.2216
11273SOL    HW251812   0.742  12.905   5.758  0.2876 -0.3038  1.7384
11274SOL     OW51813   1.338   1.405   0.867  0.2688 -0.9641  0.1956
11274SOL    HW151814   1.427   1.424   0.836 -0.2128 -0.2306 -0.7702
11274SOL    HW251815   1.301   1.490   0.888 -0.7223 -1.1163 -0.8539
11275SOL     OW51816   3.379  10.605   9.015 -1.0755 -1.1155  0.0878
11275SOL    HW151817   3.454  10.619   8.958 -0.0921 -1.3530  1.2672
11275SOL    HW251818   3.309  10.576   8.957 -0.3937 -0.4361 -1.1022
11276SOL     OW51819   9.385   2.319  13.357  0.1261 -0.1807  0.8735
11276SOL    HW151820   9.372   2.333  13.263  0.8499 -0.1566  0.7730
11276SOL    HW251821   9.300   2.290  13.389 -0.1538 -0.0803  0.2297
11277SOL     OW51822   6.496   9.393  12.947  0.3865  0.0281 -0.3602
11277SOL    HW151823   6.516   9.323  12.885 -0.4394  0.6679 -1.3665
11277SOL    HW251824   6.433   9.353  13.008  0.6960 -0.3976 -0.3120
11278SOL     OW51825   6.682   1.132   7.528  0.1156 -0.3383  0.1572
11278SOL    HW151826   6.611   1.142   7.464 -0.0771  1.4677  0.5934
11278SOL    HW251827   6.654   1.185   7.603  2.4874  1.5807 -0.1752
11279SOL     OW51828   7.342  12.571   8.004 -0.4366 -0.1981 -0.2860
11279SOL    HW151829   7.429  12.531   7.992 -0.0137  0.0592  1.6065
11279SOL    HW251830   7.300  12.518   8.071 -2.0705 -0.7586 -1.6951
11280SOL     OW51831   5.894   0.407  13.628  0.4551 -0.0139  0.6279
11280SOL    HW151832   5.877   0.451  13.545  0.1102 -0.1588  0.6194
11280SOL    HW251833   5.807   0.396  13.667  0.5358 -0.7303  0.6104
11281SOL     OW51834   1.790   8.780   9.840  0.0479  0.1166 -0.1617
11281SOL    HW151835   1.695   8.770   9.842  0.0800 -0.3303 -0.6643
11281SOL    HW251836   1.815   8.755   9.751  0.7136 -0.5885  0.2133
11282SOL     OW51837   0.260   4.282   5.040 -0.0721 -0.4633 -0.0194
11282SOL    HW151838   0.257   4.230   4.959 -0.6224 -1.0755  0.3804
11282SOL    HW251839   0.216   4.364   5.018 -2.4013 -1.5520  0.2780
11283SOL     OW51840   4.331   6.290   5.739 -0.5837 -0.2416  0.0524
11283SOL    HW151841   4.242   6.258   5.727 -0.2322 -1.7168  1.0699
11283SOL    HW251842   4.383   6.212   5.757  0.6813  0.7065  0.7593
11284SOL     OW51843   1.873  10.188   6.364  0.0782 -0.5627 -0.7775
11284SOL    HW151844   1.966  10.194   6.344 -0.2100  1.0923 -1.8150
11284SOL    HW251845   1.870  10.171   6.458  1.4620  2.9177  0.0252
11285SOL     OW51846   5.447   8.537   4.510 -0.2244 -0.1632  0.3387
11285SOL    HW151847   5.524   8.594   4.517 -0.4774  0.0784  1.2858
11285SOL    HW251848   5.403   8.567   4.430 -1.3930  2.3262  1.7961
11286SOL     OW51849   2.409  12.513  14.032  0.6688 -0.4508  0.6430
11286SOL    HW151850   2.445  12.597  14.060  0.9425 -0.0582 -0.7996
11286SOL    HW251851   2.486  12.460  14.013  0.4937 -1.0236  1.4704
11287SOL     OW51852   5.318   7.194   8.152  0.1533  0.2208 -0.0913
11287SOL    HW151853   5.247   7.204   8.088  0.3841 -1.5206 -0.6738
11287SOL    HW251854   5.292   7.120   8.206  1.4013 -0.3188 -0.1859
11288SOL     OW51855   8.902   8.654   2.003 -0.1342 -0.0068  0.4016
11288SOL    HW151856   8.887   8.598   2.079  1.1594 -1.3712 -0.3116
11288SOL    HW251857   8.968   8.717   2.032 -0.6751  0.3865  0.8156
11289SOL     OW51858  10.583  10.441  14.121 -0.4900 -0.0662 -0.2138
11289SOL    HW151859  10.561  10.491  14.200 -0.3440 -1.0064  0.4449
11289SOL    HW251860  10.547  10.354  14.137  2.1549 -1.1942  0.1986
11290SOL     OW51861  11.825  13.518   0.109  0.1107 -0.0719 -0.1339
11290SOL    HW151862  11.786  13.603   0.092  0.6608  0.5217  1.3637
11290SOL    HW251863  11.918  13.530   0.094  0.0311 -0.8472 -1.4070
11291SOL     OW51864   3.038   7.443   9.733 -0.5671  0.1333  0.1338
11291SOL    HW151865   3.095   7.434   9.809 -0.5724 -1.0038  0.0220
11291SOL    HW251866   3.019   7.353   9.706 -1.8667  0.4993 -0.2445
11292SOL     OW51867   9.478  11.556   8.196  0.1969 -0.1754  0.5279
11292SOL    HW151868   9.521  11.519   8.273  1.4246 -2.4933 -1.1395
11292SOL    HW251869   9.417  11.488   8.168 -0.6999  0.8908 -0.1994
11293SOL     OW51870   6.708   5.426   9.061 -0.2569 -0.1827  0.1160
11293SOL    HW151871   6.670   5.488   8.999  0.4677 -1.4288 -1.6386
11293SOL    HW251872   6.748   5.481   9.129 -1.0661  1.2176 -0.5124
11294SOL     OW51873   0.894  10.550   7.850 -0.0073  0.2373 -0.0723
11294SOL    HW151874   0.979  10.528   7.810 -0.2702 -0.1955 -0.4017
11294SOL    HW251875   0.832  10.544   7.777 -0.3842  0.1215  0.2583
11295SOL     OW51876   8.626  10.828  14.003  0.4609 -0.2517 -0.1008
11295SOL    HW151877   8.546  10.791  13.966 -0.0053 -2.3974  2.7513
11295SOL    HW251878   8.689  10.755  14.001  1.5955  0.6949 -0.0807
11296SOL     OW51879  12.557   1.624   7.692  0.4306  0.2295 -0.1786
11296SOL    HW151880  12.627   1.578   7.739  0.7348  0.2822 -0.5696
11296SOL    HW251881  12.523   1.687   7.755 -0.2063 -0.7399  0.4644
11297SOL     OW51882   5.629   7.000  11.585 -0.3452 -0.2271  0.3077
11297SOL    HW151883   5.662   6.971  11.670  0.1154  0.8922  0.5306
11297SOL    HW251884   5.623   7.096  11.592 -1.7346 -0.2220 -0.4172
11298SOL     OW51885   2.114  12.537   4.192 -0.1312  0.1762  0.0408
11298SOL    HW151886   2.187  12.571   4.140 -0.3506  1.1061  0.3282
11298SOL    HW251887   2.126  12.578   4.278 -1.2675  0.7231 -0.0495
11299SOL     OW51888   6.367   5.764   8.279  0.3370 -0.1378 -0.1107
11299SOL    HW151889   6.272   5.753   8.280  0.3221 -0.0038 -0.1429
11299SOL    HW251890   6.384   5.819   8.203  0.4917 -0.6628 -0.4663
11300SOL     OW51891   5.158   2.164   0.228 -0.4914  0.1778  0.3451
11300SOL    HW151892   5.124   2.178   0.316 -0.9733  1.5633 -0.0394
11300SOL    HW251893   5.222   2.234   0.215 -0.5128  0.0628 -0.4608
11301SOL     OW51894   2.176   8.151   9.151  0.5091  0.2592 -0.1520
11301SOL    HW151895   2.188   8.057   9.165  2.0714  0.5940  0.8943
11301SOL    HW251896   2.098   8.173   9.202  0.9093 -0.2288  0.6894
11302SOL     OW51897  13.306   9.869  10.124 -0.1551 -0.5882  0.0252
11302SOL    HW151898  13.346   9.791  10.162 -0.5972 -0.2633  1.1950
11302SOL    HW251899  13.219   9.840  10.096  0.6050 -1.1337 -1.9331
11303SOL     OW51900  13.516  12.381   8.335  0.1660  0.6319  0.4603
11303SOL    HW151901  13.519  12.368   8.430 -0.4257 -0.1929  0.3742
11303SOL    HW251902  13.556  12.301   8.299 -3.1157 -0.9015 -0.0788
11304SOL     OW51903   7.912  11.058   6.776 -0.1575  0.1461  0.1412
11304SOL    HW151904   7.885  11.147   6.753 -0.8355 -0.7899 -3.1306
11304SOL    HW251905   7.837  11.021   6.822 -1.8655 -0.1878 -2.7152
11305SOL     OW51906  13.513  10.717   5.253 -0.5216  1.3031  0.3623
11305SOL    HW151907  13.597  10.677   5.277 -1.3247 -0.3203  0.5960
11305SOL    HW251908  13.537  10.794   5.201  1.1030  0.8042  0.3190
11306SOL     OW51909   3.785   1.602   0.847 -0.1212  0.0029  0.2610
11306SOL    HW151910   3.720   1.548   0.802 -0.1525 -0.4384  0.8186
11306SOL    HW251911   3.825   1.655   0.778 -1.2680  0.4849 -0.0568
11307SOL     OW51912  12.773   5.439  10.281 -0.2926 -0.1407  0.5106
11307SOL    HW151913  12.678   5.453  10.288 -0.5170 -0.4587 -1.4584
11307SOL    HW251914  12.803   5.506  10.219  0.5863 -0.7354  0.2769
11308SOL     OW51915   0.971   5.563  10.839  0.8842 -0.4080  0.3814
11308SOL    HW151916   0.928   5.565  10.925  0.9801 -1.6950  0.4753
11308SOL    HW251917   0.914   5.507  10.785  1.4702 -0.6190 -0.0280
11309SOL     OW51918  10.049   0.928   6.853  0.5798  0.1443 -0.1158
11309SOL    HW151919  10.062   0.836   6.877 -0.5178 -0.0128 -0.0924
11309SOL    HW251920   9.954   0.938   6.845  0.7924  0.6331 -2.6948
11310SOL     OW51921   1.418   1.547   3.953 -0.1600 -0.6907  0.0112
11310SOL    HW151922   1.346   1.542   4.016 -0.8584  1.9428 -0.4529
11310SOL    HW251923   1.377   1.527   3.869 -0.3968  0.7833 -0.2494
11311SOL     OW51924  10.272   7.277   1.562  0.6729 -0.3282  0.7576
11311SOL    HW151925  10.182   7.307   1.562  1.1148  1.0598  0.9645
11311SOL    HW251926  10.323   7.352   1.532  1.9872 -0.2866  2.8763
11312SOL     OW51927  10.591   6.850  13.701  0.2185  0.2727 -0.6394
11312SOL    HW151928  10.638   6.772  13.669 -1.0522 -0.1217 -1.6638
11312SOL    HW251929  10.528   6.870  13.631 -1.1171  0.7809  0.6462
11313SOL     OW51930   8.806   5.462  13.170 -0.1621 -0.1762 -0.2177
11313SOL    HW151931   8.795   5.521  13.244 -0.8931  0.3310 -0.7162
11313SOL    HW251932   8.896   5.476  13.141 -0.0599  0.0514  0.2028
11314SOL     OW51933   1.571  13.336   8.261 -0.3564 -0.0435  0.5736
11314SOL    HW151934   1.622  13.309   8.185 -2.4256 -0.1486 -0.8538
11314SOL    HW251935   1.564  13.257   8.315 -0.1378 -0.3716  0.1227
11315SOL     OW51936   1.063  12.959   6.229  0.0364  0.7164  0.3446
11315SOL    HW151937   1.087  12.992   6.316 -0.6985 -1.6468  1.5424
11315SOL    HW251938   0.971  12.983   6.219 -0.1364  0.1931  0.6432
11316SOL     OW51939   9.553   9.143   9.194  0.5461  0.8232  0.1889
11316SOL    HW151940   9.642   9.172   9.214  1.6086  0.8105 -3.7360
11316SOL    HW251941   9.511   9.220   9.156 -0.2799  0.1550 -0.2799
11317SOL     OW51942   3.851   7.584   3.177  0.1125 -0.2282 -0.4865
11317SOL    HW151943   3.776   7.618   3.127 -1.1538  0.5689  1.8074
11317SOL    HW251944   3.831   7.491   3.189  1.2048 -0.8242 -2.6587
11318SOL     OW51945   2.691   7.750   2.772  0.3328  0.0931 -0.2242
11318SOL    HW151946   2.650   7.833   2.747 -1.0063 -0.4185  0.1427
11318SOL    HW251947   2.617   7.694   2.795  1.2785 -0.8367  0.6350
11319SOL     OW51948   4.747  10.693   1.455 -0.6582 -0.2061 -0.8381
11319SOL    HW151949   4.719  10.611   1.497  1.4309 -0.3270  0.4632
11319SOL    HW251950   4.670  10.748   1.456 -1.0593 -0.6494  2.1606
11320SOL     OW51951  12.793   6.914  13.779 -0.5607 -0.3964 -0.1497
11320SOL    HW151952  12.852   6.971  13.828  0.1555 -0.7453 -0.5968
11320SOL    HW251953  12.715   6.967  13.765  1.0808  1.4988 -2.9487
11321SOL     OW51954   5.480  11.120   3.476 -0.2848  0.1620 -0.3473
11321SOL    HW151955   5.510  11.132   3.386  0.6306 -0.2257 -0.1059
11321SOL    HW251956   5.556  11.086   3.522 -0.1874  2.0088  0.9772
11322SOL     OW51957  11.413   7.055   1.223  0.4234 -0.2030  0.2699
11322SOL    HW151958  11.504   7.041   1.197  0.9609  1.1236  1.2730
11322SOL    HW251959  11.368   7.079   1.143  1.1775  0.0547 -0.0847
11323SOL     OW51960   3.391  13.958  12.390  0.1974  0.6443 -0.2092
11323SOL    HW151961   3.389  14.026  12.457 -0.4839  0.4533 -0.0222
11323SOL    HW251962   3.435  13.998  12.315  1.6405  0.6237  0.5988
11324SOL     OW51963  11.802   6.835   7.320  0.2939 -0.5180 -0.0710
11324SOL    HW151964  11.769   6.842   7.231 -4.0383 -0.2322  1.3000
11324SOL    HW251965  11.788   6.922   7.357  3.5755 -0.1354  0.5743
11325SOL     OW51966   7.015   0.773  10.325 -0.0063 -0.0593 -0.2177
11325SOL    HW151967   7.010   0.699  10.386 -1.2143 -1.5592 -2.0127
11325SOL    HW251968   7.073   0.836  10.368 -1.5363 -0.5761  2.8933
11326SOL     OW51969   5.201   8.386   8.548 -0.4738 -0.3464 -0.0440
11326SOL    HW151970   5.149   8.417   8.622 -0.9663 -0.5096 -0.3169
11326SOL    HW251971   5.166   8.299   8.529  1.4323 -1.4808  1.2471
11327SOL     OW51972   8.139   6.727   8.558  0.6878 -0.5792  0.0475
11327SOL    HW151973   8.171   6.764   8.476  0.7227  1.9734  1.1096
11327SOL    HW251974   8.218   6.711   8.610  0.6951 -2.5631 -0.4877
11328SOL     OW51975   1.277   8.987  12.943  0.1701  0.4940  0.0175
11328SOL    HW151976   1.205   9.049  12.933  2.1552  2.7894 -0.9536
11328SOL    HW251977   1.313   9.006  13.030  1.4288  1.4949 -0.6950
11329SOL     OW51978   6.612  10.569   4.704  0.4825  0.4289 -0.6644
11329SOL    HW151979   6.587  10.591   4.614  1.4145  0.0267 -1.0377
11329SOL    HW251980   6.708  10.574   4.704  0.5230 -0.1257  0.1655
11330SOL     OW51981   7.330   2.695   7.847 -0.0128  0.2860  0.1666
11330SOL    HW151982   7.250   2.718   7.801  0.0890 -0.3095 -0.3054
11330SOL    HW251983   7.302   2.675   7.936 -0.4320 -0.2242 -0.0764
11331SOL     OW51984  10.446  13.876  12.984  0.3038  0.2421  0.1988
11331SOL    HW151985  10.510  13.840  12.923 -0.8545 -0.6191 -0.5534
11331SOL    HW251986  10.366  13.883  12.932 -0.9302 -1.2438  1.7975
11332SOL     OW51987  10.753  12.331  13.232 -0.0211 -0.2462 -0.2710
11332SOL    HW151988  10.756  12.408  13.289 -0.7122 -0.1986 -0.2834
11332SOL    HW251989  10.799  12.263  13.280  1.7560  0.5172 -0.8142
11333SOL     OW51990   4.340   2.950  11.568 -0.2205 -0.2483 -0.3780
11333SOL    HW151991   4.432   2.969  11.587 -0.2434  1.1838 -1.5178
11333SOL    HW251992   4.308   2.903  11.645  1.8245 -2.1189 -0.5701
11334SOL     OW51993   9.196   3.913   5.595  0.2987  0.5862 -0.1131
11334SOL    HW151994   9.114   3.867   5.576 -0.5421  2.0061 -0.0759
11334SOL    HW251995   9.239   3.859   5.661  0.4332 -1.3046 -1.6471
11335SOL     OW51996   4.033   9.577   7.506  0.4248  0.8400  0.0587
11335SOL    HW151997   4.081   9.497   7.528  0.0614  0.9409  1.3018
11335SOL    HW251998   3.983   9.597   7.585 -1.9066  0.5675 -1.2706
11336SOL     OW51999   0.090   0.808   4.805 -0.0211  0.2009  0.3380
11336SOL    HW152000   0.096   0.805   4.710  0.7013  1.5831  0.3200
11336SOL    HW252001  -0.000   0.783   4.824  0.3111 -1.8914 -0.5752
11337SOL     OW52002  12.691   0.001   2.657  0.2234  0.2318  0.2346
11337SOL    HW152003  12.598   0.016   2.646  0.4072  1.7112  0.4384
11337SOL    HW252004  12.725  -0.007   2.568  0.2601  2.3463  0.0047
11338SOL     OW52005   2.439   6.883   2.810  0.3758 -0.3881  0.1049
11338SOL    HW152006   2.478   6.810   2.857  1.5147  0.8628  1.1757
11338SOL    HW252007   2.512   6.928   2.769 -0.3727 -0.1485 -1.0331
11339SOL     OW52008   8.754  13.465  14.149 -0.4238  0.3368 -0.3268
11339SOL    HW152009   8.809  13.491  14.223  1.4490  0.9488 -1.8396
11339SOL    HW252010   8.776  13.373  14.133 -0.9789  0.1447 -0.0127
11340SOL     OW52011   3.026   9.007   6.657 -0.3255  0.2916 -0.0898
11340SOL    HW152012   2.985   9.003   6.743  0.8013  0.0820  0.4572
11340SOL    HW252013   3.047   9.100   6.646  1.8597  0.0028  1.0372
11341SOL     OW52014   4.321   2.535   2.820  0.3536 -0.5542  0.5673
11341SOL    HW152015   4.409   2.499   2.825  1.8065  2.4155 -1.0371
11341SOL    HW252016   4.278   2.484   2.751  1.5231 -0.7267 -0.0585
11342SOL     OW52017   8.174   4.353   4.853 -0.3178  0.1882 -0.4728
11342SOL    HW152018   8.180   4.445   4.827  0.4614  0.1537 -0.4319
11342SOL    HW252019   8.213   4.305   4.780  0.7802  0.0100  0.2028
11343SOL     OW52020  11.786   3.561   8.152  0.1880 -0.0127 -0.1053
11343SOL    HW152021  11.824   3.478   8.178 -0.4362 -0.2067  0.2210
11343SOL    HW252022  11.747   3.596   8.232  0.2843  0.5013 -0.2801
11344SOL     OW52023   4.072   1.292  13.613  0.2817  0.0422  0.3097
11344SOL    HW152024   3.991   1.270  13.659  0.1282 -0.2848 -0.1076
11344SOL    HW252025   4.140   1.241  13.657  0.2099  0.0765  0.4613
11345SOL     OW52026   0.620   4.478  10.850  0.0209 -0.1554  0.2682
11345SOL    HW152027   0.584   4.535  10.782  2.1415 -2.5132 -3.1808
11345SOL    HW252028   0.561   4.402  10.851  0.3805 -0.4347  0.5861
11346SOL     OW52029   8.100   1.192  11.067 -0.4232 -0.3552  0.4067
11346SOL    HW152030   8.126   1.106  11.032  0.8180  0.3284 -0.4452
11346SOL    HW252031   8.174   1.219  11.121 -1.4387 -0.4477  1.9007
11347SOL     OW52032   5.805   7.021   0.588  0.4231 -0.4364 -0.5461
11347SOL    HW152033   5.720   7.056   0.563 -0.0204 -1.5290 -0.6324
11347SOL    HW252034   5.840   6.982   0.508  1.2837  0.5176 -0.6583
11348SOL     OW52035   8.344   2.683   8.909  0.4953 -0.3944  0.2221
11348SOL    HW152036   8.425   2.670   8.859  2.0905 -0.0751  2.5751
11348SOL    HW252037   8.325   2.598   8.947 -1.0990 -0.8056 -1.3514
11349SOL     OW52038  12.116  13.898   1.769 -0.3755  0.1206 -0.0008
11349SOL    HW152039  12.033  13.850   1.771 -1.5306  1.8689 -1.6112
11349SOL    HW252040  12.163  13.868   1.847 -2.6211 -0.7712  1.1187
11350SOL     OW52041  12.960   2.137   0.576 -0.2956 -0.5945 -0.0106
11350SOL    HW152042  12.980   2.141   0.483 -0.1217 -1.0146  0.0074
11350SOL    HW252043  12.908   2.216   0.593 -0.4038 -0.5647 -0.4786
11351SOL     OW52044   0.779   1.297   6.999  0.1849  0.5342 -0.3405
11351SOL    HW152045   0.814   1.317   7.086 -0.3615 -2.4143  0.6546
11351SOL    HW252046   0.688   1.325   7.003  0.5653  1.9236 -0.6041
11352SOL     OW52047   6.299  12.402   9.717 -0.8530  0.5374 -0.2698
11352SOL    HW152048   6.364  12.471   9.706 -1.4885  1.4537  1.2583
11352SOL    HW252049   6.347  12.329   9.755 -0.1825  0.1192 -1.8532
11353SOL     OW52050   2.165   2.896   4.537 -0.4111  0.2312 -0.6652
11353SOL    HW152051   2.128   2.839   4.604 -0.0725  0.9414  0.1327
11353SOL    HW252052   2.175   2.981   4.579  0.5522  0.4938 -1.3742
11354SOL     OW52053   6.528  12.967   7.629 -0.0993 -0.0743 -0.6667
11354SOL    HW152054   6.514  12.879   7.664 -2.5278  0.7356  0.6718
11354SOL    HW252055   6.614  12.992   7.663 -0.1313 -1.2880  0.4005
11355SOL     OW52056   0.105   7.500  13.637 -0.5860  0.2754 -0.5897
11355SOL    HW152057   0.120   7.576  13.580 -0.8072 -0.1186 -1.1877
11355SOL    HW252058   0.012   7.503  13.657 -1.1933 -1.2438 -2.7395
11356SOL     OW52059  11.957   6.090  13.820 -0.0780  0.6197 -0.2573
11356SOL    HW152060  11.902   6.160  13.854 -0.5368 -0.3308  1.0997
11356SOL    HW252061  12.030   6.084  13.883  0.3126  0.3308 -0.7279
11357SOL     OW52062   9.245   9.135  10.215 -0.1668 -0.9083  0.0554
11357SOL    HW152063   9.316   9.075  10.239  1.1088  0.8014  0.7841
11357SOL    HW252064   9.254   9.146  10.121 -1.0974 -2.6263 -0.2829
11358SOL     OW52065   2.352   4.391  10.919  0.0444  0.0111 -0.3812
11358SOL    HW152066   2.376   4.298  10.914  1.3809  0.2642  0.7047
11358SOL    HW252067   2.305   4.400  11.002 -1.2051  0.1008 -1.0713
11359SOL     OW52068   8.726  12.198   2.243  0.4736 -0.0191 -0.4681
11359SOL    HW152069   8.633  12.176   2.236  0.4177 -0.0599  0.3260
11359SOL    HW252070   8.748  12.179   2.334  1.0098  0.9612 -0.3897
11360SOL     OW52071   5.187   7.616   2.728  0.0648 -0.1984  0.1242
11360SOL    HW152072   5.265   7.565   2.705 -0.5042 -0.7220 -0.7021
11360SOL    HW252073   5.176   7.677   2.655 -0.5670 -0.4443  0.0138
11361SOL     OW52074   3.391  11.438   8.510  0.4198  0.0946  0.4498
11361SOL    HW152075   3.397  11.509   8.446  3.0737 -0.5350 -0.1380
11361SOL    HW252076   3.307  11.452   8.554 -0.7030  1.5644 -1.9547
11362SOL     OW52077   9.789   5.289  12.712  0.1697  0.1887  0.4646
11362SOL    HW152078   9.697   5.275  12.690 -0.1792  1.9810  0.6795
11362SOL    HW252079   9.788   5.326  12.800  0.8593  2.8815 -0.5711
11363SOL     OW52080  10.247   6.624   1.853 -0.0507 -0.0635 -0.5105
11363SOL    HW152081  10.265   6.534   1.825 -1.1695  0.4614 -3.2089
11363SOL    HW252082  10.218   6.669   1.774 -3.0962  1.7373  1.4220
11364SOL     OW52083   0.186   6.122   9.313  0.4713 -0.2010  0.1961
11364SOL    HW152084   0.156   6.212   9.300 -0.5989 -0.4732  0.6889
11364SOL    HW252085   0.109   6.068   9.299  1.4733 -1.2135 -1.8573
11365SOL     OW52086   7.943  12.578  14.017  0.0705  0.1902  0.4343
11365SOL    HW152087   8.010  12.611  14.077 -0.3024 -0.7885  1.4334
11365SOL    HW252088   7.913  12.497  14.058  0.2705 -0.8783 -1.4254
11366SOL     OW52089  11.178   9.867   2.618 -0.3852 -0.0192  0.3361
11366SOL    HW152090  11.113   9.920   2.664  0.0577  0.3847  0.5014
11366SOL    HW252091  11.127   9.818   2.553 -0.4932  2.8005 -1.8879
11367SOL     OW52092   5.007  13.105  10.227 -0.0398  0.4769  0.1187
11367SOL    HW152093   5.081  13.108  10.288  1.3357 -1.1705 -1.3659
11367SOL    HW252094   4.932  13.080  10.281  0.5865  1.5651  1.5498
11368SOL     OW52095   7.384   2.576   9.238 -0.7157  0.1196 -0.2322
11368SOL    HW152096   7.447   2.509   9.212  0.0073  1.6305 -2.6603
11368SOL    HW252097   7.405   2.595   9.330  1.9221  0.0860 -0.7689
11369SOL     OW52098   4.156   0.720   1.815  0.1072  0.1209 -0.0951
11369SOL    HW152099   4.083   0.741   1.873  0.1136  0.3048 -0.1533
11369SOL    HW252100   4.155   0.624   1.809 -0.4610  0.1457 -0.5254
11370SOL     OW52101   6.713  12.387  11.611 -0.2207  0.2419 -0.1185
11370SOL    HW152102   6.624  12.354  11.601 -0.0066  0.0068 -1.4212
11370SOL    HW252103   6.702  12.479  11.635 -0.8656  0.8801 -2.5843
11371SOL     OW52104  13.500   8.553   1.118 -0.1417 -0.1184  0.1033
11371SOL    HW152105  13.536   8.487   1.060  2.6543  1.9604 -0.7709
11371SOL    HW252106  13.532   8.529   1.205 -0.9159 -1.0220  0.1481
11372SOL     OW52107  12.696   5.036   3.101  0.5234 -0.5246 -0.0536
11372SOL    HW152108  12.681   4.983   3.022  0.6762  0.0288 -0.4656
11372SOL    HW252109  12.677   5.126   3.073  0.9572 -0.2757  0.4312
11373SOL     OW52110   8.479   6.094   9.835 -0.3767 -0.6400  0.2471
11373SOL    HW152111   8.399   6.129   9.874 -0.9800 -0.5009 -1.0582
11373SOL    HW252112   8.467   5.999   9.836  1.2744 -0.9736  3.8223
11374SOL     OW52113   0.985   1.392   5.074  0.0644  0.5571 -0.0381
11374SOL    HW152114   0.985   1.379   4.979 -0.5311 -0.1817  0.0483
11374SOL    HW252115   0.949   1.310   5.109  0.2625  0.8288  0.8235
11375SOL     OW52116  14.007   4.981   7.740 -0.7123  0.1298 -0.1858
11375SOL    HW152117  14.005   4.886   7.752 -1.5839  0.1989  0.3510
11375SOL    HW252118  14.023   5.015   7.828  2.8896  0.4349 -0.8083
11376SOL     OW52119   2.992  12.322   0.754  0.2261  0.2017  0.6268
11376SOL    HW152120   2.912  12.272   0.735  0.9384 -0.6424 -0.2169
11376SOL    HW252121   2.961  12.396   0.807 -1.0928 -0.1875  0.4509
11377SOL     OW52122   1.940   1.553  11.128 -0.6245 -0.2310 -0.1406
11377SOL    HW152123   1.917   1.621  11.193  2.3452 -0.2567  1.0863
11377SOL    HW252124   1.961   1.602  11.049 -0.1511  0.1637  0.2221
11378SOL     OW52125  11.234   9.052  11.834  1.1076  0.4172  0.0164
11378SOL    HW152126  11.263   9.121  11.893  1.3304  2.0037 -1.8265
11378SOL    HW252127  11.315   9.014  11.799  0.9858  0.3045 -0.1498
11379SOL     OW52128   5.879  11.272   2.201  0.2677 -0.2142  0.0665
11379SOL    HW152129   5.864  11.215   2.276 -1.9377  1.1308  0.7631
11379SOL    HW252130   5.798  11.266   2.150  1.2527 -0.1659 -1.5607
11380SOL     OW52131  11.565   6.756   5.577 -0.1226 -0.0742  0.0527
11380SOL    HW152132  11.659   6.771   5.581 -0.3025  0.9101  0.7732
11380SOL    HW252133  11.534   6.813   5.507  0.0083 -1.5819 -1.3136
11381SOL     OW52134   3.722  11.600   8.742 -0.3504 -0.3371  0.0728
11381SOL    HW152135   3.660  11.530   8.721  0.6554 -1.0746 -0.5406
11381SOL    HW252136   3.731  11.597   8.837 -1.2661 -0.2008  0.1723
11382SOL     OW52137  12.014   9.514  12.603 -0.3230 -0.1451  0.3690
11382SOL    HW152138  11.990   9.548  12.516 -0.3129 -1.5080 -0.2012
11382SOL    HW252139  12.103   9.481  12.592 -0.9378 -1.9359  0.3619
11383SOL     OW52140  13.093  10.170   7.472  0.6581  0.0451  0.2022
11383SOL    HW152141  13.105  10.076   7.464 -2.9562 -0.7659  2.1018
11383SOL    HW252142  13.128  10.192   7.558  0.0422  0.0744  0.4549
11384SOL     OW52143   7.957  11.720   4.451 -0.0181 -0.4228  0.3832
11384SOL    HW152144   7.996  11.739   4.536 -0.8349 -0.2344  0.7179
11384SOL    HW252145   7.876  11.771   4.449  0.4903  0.3911 -0.9234
11385SOL     OW52146   9.889   9.849  13.998 -0.1579  0.1480 -0.2649
11385SOL    HW152147   9.906   9.761  14.030 -0.9689 -0.3065 -1.0364
11385SOL    HW252148   9.952   9.904  14.044  1.5044 -1.0501 -0.9927
11386SOL     OW52149   9.801   4.379  11.052  0.0407 -0.3995 -0.4931
11386SOL    HW152150   9.712   4.359  11.025  0.4593 -0.9129 -1.6040
11386SOL    HW252151   9.847   4.295  11.045  0.8305  0.0513 -0.9493
11387SOL     OW52152   5.517   9.766   0.767  0.1089 -0.0478 -0.5997
11387SOL    HW152153   5.430   9.802   0.786  0.2367 -0.1760  0.2909
11387SOL    HW252154   5.508   9.724   0.682 -1.0304 -1.1151  0.0172
11388SOL     OW52155   4.107   2.803   1.152  0.8115  0.3664  0.6222
11388SOL    HW152156   4.159   2.880   1.131 -0.4889  0.8803 -0.9280
11388SOL    HW252157   4.035   2.804   1.089  0.0397 -1.4198  1.3825
11389SOL     OW52158   2.193   4.695   1.555  0.0519  0.0489  0.1641
11389SOL    HW152159   2.154   4.637   1.489  0.9965  1.6915 -1.9768
11389SOL    HW252160   2.155   4.666   1.638 -2.2100 -1.3044 -1.2302
11390SOL     OW52161   8.072  10.991   7.288  0.0303  0.2577 -0.8006
11390SOL    HW152162   8.050  10.999   7.381  1.6548  1.2976 -0.4513
11390SOL    HW252163   7.988  10.991   7.244 -0.7991 -0.6499  0.6849
11391SOL     OW52164   4.619   2.332  10.700 -0.9991  0.0749  0.7659
11391SOL    HW152165   4.552   2.397  10.721 -0.1600  1.1593  0.1872
11391SOL    HW252166   4.606   2.314  10.606 -0.3915  0.4072  0.6130
11392SOL     OW52167   8.260   3.905   7.922 -0.7851  0.2765 -0.5701
11392SOL    HW152168   8.277   3.847   7.848 -0.5212 -0.0882 -0.2297
11392SOL    HW252169   8.302   3.862   7.996 -0.3254  1.0660 -0.3668
11393SOL     OW52170   1.857   9.993   4.609  0.4835 -0.3504  0.7036
11393SOL    HW152171   1.812   9.996   4.524  3.0333 -1.9692 -0.8598
11393SOL    HW252172   1.829   9.910   4.648 -1.3520  0.7830  1.9519
11394SOL     OW52173   1.235   0.434  13.449  0.6367 -0.5214  0.0553
11394SOL    HW152174   1.263   0.343  13.435 -0.2811 -1.1007  1.6623
11394SOL    HW252175   1.200   0.434  13.538 -2.0687  0.7227 -0.9039
11395SOL     OW52176  10.264   7.990   0.065 -0.2484 -0.0259  0.4768
11395SOL    HW152177  10.182   7.951   0.095  0.0929 -0.1492  1.2932
11395SOL    HW252178  10.325   7.976   0.138  1.0414 -1.5866 -0.8442
11396SOL     OW52179   3.449   1.762  11.473  0.9368  0.1075 -0.1864
11396SOL    HW152180   3.519   1.696  11.469  0.8716 -0.0601  1.1293
11396SOL    HW252181   3.370   1.712  11.493  1.1944  0.7199  2.7771
11397SOL     OW52182   5.032   0.852  11.654  0.3963 -0.7476  0.1210
11397SOL    HW152183   5.082   0.913  11.709  2.9386  0.1740 -2.9298
11397SOL    HW252184   4.944   0.889  11.651  0.1302 -0.8393  3.4083
11398SOL     OW52185   0.585   6.173   8.731 -0.1147  0.2571 -0.1079
11398SOL    HW152186   0.539   6.191   8.649  1.4949 -1.4179 -1.4508
11398SOL    HW252187   0.551   6.238   8.792 -0.4949  2.3539 -2.4084
11399SOL     OW52188   2.126   4.478   1.982  0.9515 -0.2685  0.0923
11399SOL    HW152189   2.134   4.390   1.946  0.4573 -0.6811  0.9575
11399SOL    HW252190   2.088   4.465   2.069  0.5124  0.8274  0.0802
11400SOL     OW52191  13.103   0.058  11.511 -0.2652  0.0388 -0.8111
11400SOL    HW152192  13.139   0.143  11.487 -0.4623  0.6587  0.9202
11400SOL    HW252193  13.125   0.048  11.604  0.8233 -2.3663 -1.2479
11401SOL     OW52194  12.993   1.353   6.424 -0.1250 -0.7541 -0.5586
11401SOL    HW152195  13.051   1.279   6.441  0.0604 -0.1981  1.4359
11401SOL    HW252196  13.030   1.425   6.475 -1.2035  0.2780 -1.1835
11402SOL     OW52197  10.147  10.281  14.127  0.7712  0.3107  0.2624
11402SOL    HW152198  10.135  10.337  14.050 -1.2104  0.1614  0.4133
11402SOL    HW252199  10.111  10.332  14.200  2.7143  0.4880  1.1552
11403SOL     OW52200  12.033   0.274   9.269 -0.0630 -0.6801  0.4613
11403SOL    HW152201  11.945   0.295   9.302 -0.6985  0.1272 -1.5970
11403SOL    HW252202  12.056   0.347   9.212  0.7796 -2.1346 -1.1906
11404SOL     OW52203   0.368   7.214   4.587  0.5208  0.5702 -0.0997
11404SOL    HW152204   0.429   7.275   4.628  0.9161  0.2603 -0.2196
11404SOL    HW252205   0.416   7.178   4.513  2.1365 -3.3345  2.4923
11405SOL     OW52206   6.651   0.402   4.624 -0.1594 -0.0116 -0.3086
11405SOL    HW152207   6.631   0.496   4.621 -0.3045 -0.0668 -2.0507
11405SOL    HW252208   6.590   0.362   4.561  0.0046 -1.2546  0.2945
11406SOL     OW52209  11.673   5.198   2.554  0.0316 -0.2457  0.5724
11406SOL    HW152210  11.716   5.187   2.639 -0.5299  1.0268  1.0457
11406SOL    HW252211  11.632   5.113   2.537  0.1945 -0.5334  1.5422
11407SOL     OW52212   2.008   3.662  12.867 -0.3202  0.6534  0.4748
11407SOL    HW152213   2.090   3.636  12.908 -1.1116 -0.4093  1.4572
11407SOL    HW252214   2.014   3.757  12.857  0.2775  0.8338  2.2566
11408SOL     OW52215   8.092  11.769   3.943  0.1424  0.4788 -0.8595
11408SOL    HW152216   8.054  11.856   3.943 -0.4814  0.2118 -0.8957
11408SOL    HW252217   8.122  11.756   4.034  0.0678  0.6568 -0.8102
11409SOL     OW52218  10.903  12.836   3.354 -0.5984 -0.5625  0.9365
11409SOL    HW152219  10.861  12.796   3.278 -0.5947 -0.2666  0.7777
11409SOL    HW252220  10.837  12.895   3.390 -0.5692 -0.6365  1.1099
11410SOL     OW52221   8.362   4.072   1.768 -0.3680  0.3330 -0.1259
11410SOL    HW152222   8.313   4.150   1.793 -1.6895 -0.5723  0.2056
11410SOL    HW252223   8.444   4.079   1.817 -0.7166  1.2074  0.3637
11411SOL     OW52224  10.633   6.814  11.647  0.3761  1.3394 -0.3972
11411SOL    HW152225  10.537   6.814  11.645  0.3658  2.2150 -0.2951
11411SOL    HW252226  10.658   6.905  11.628  1.1906  1.0920 -0.5640
11412SOL     OW52227   7.966   6.398   9.045  0.2762  0.0618  0.7704
11412SOL    HW152228   7.972   6.463   8.975  0.3537  0.1668  0.8737
11412SOL    HW252229   8.032   6.333   9.023 -0.7785 -0.7408 -0.1069
11413SOL     OW52230   9.803   5.227   2.489  0.7184  0.3470 -0.0803
11413SOL    HW152231   9.783   5.177   2.569  1.0741 -1.0142 -0.7980
11413SOL    HW252232   9.812   5.160   2.421 -0.9879  1.5517 -1.5886
11414SOL     OW52233  10.578   9.184   4.390 -0.1424  0.0879 -0.6626
11414SOL    HW152234  10.640   9.111   4.398 -2.2522 -1.9456 -1.7214
11414SOL    HW252235  10.612   9.236   4.317  0.9528 -0.2821 -0.4454
11415SOL     OW52236  13.434   1.261  11.488  0.2140 -0.1171  0.2418
11415SOL    HW152237  13.456   1.195  11.422  0.7232 -1.2498  1.4875
11415SOL    HW252238  13.396   1.210  11.560  0.8362  0.9284  1.3302
11416SOL     OW52239   3.973  10.648  10.632  0.0474 -0.0377  0.5318
11416SOL    HW152240   3.971  10.642  10.536  1.1973 -3.1101  0.5728
11416SOL    HW252241   3.892  10.604  10.660 -1.1713  2.3530  1.0609
11417SOL     OW52242  12.218   3.886   9.402 -0.1681 -0.4257  0.0768
11417SOL    HW152243  12.145   3.842   9.359 -1.3065  0.6270  0.8527
11417SOL    HW252244  12.288   3.886   9.337 -1.2232 -0.5116 -1.0975
11418SOL     OW52245   0.522   5.951   0.870  0.1846 -0.2350  0.2706
11418SOL    HW152246   0.555   5.964   0.781  1.0323 -0.7687  0.4862
11418SOL    HW252247   0.428   5.935   0.859 -0.0437  1.3524 -0.3715
11419SOL     OW52248   4.434   9.581  12.263  0.2783 -0.0138 -0.1713
11419SOL    HW152249   4.339   9.595  12.270  0.0176 -1.8996  0.6587
11419SOL    HW252250   4.449   9.565  12.170 -0.3111 -0.2654 -0.2252
11420SOL     OW52251   6.933  14.081   3.064  0.7598  0.0703  0.1542
11420SOL    HW152252   6.962  14.171   3.069  0.3233  0.1905  0.6347
11420SOL    HW252253   6.882  14.067   3.145  1.8565 -0.9760  0.6966
11421SOL     OW52254  10.494   5.904  10.809  0.1547  0.1857  0.4060
11421SOL    HW152255  10.404   5.875  10.824 -0.5884  2.1361  0.1280
11421SOL    HW252256  10.492   5.998  10.827  2.3852  0.1140  1.3303
11422SOL     OW52257   9.488   2.019   9.966  0.1334 -0.1060  0.3419
11422SOL    HW152258   9.572   2.033   9.922 -0.6026  0.9650 -0.7953
11422SOL    HW252259   9.477   2.097  10.022  0.2734 -0.6535  1.1576
11423SOL     OW52260   3.658   3.332   8.725  0.2367  0.2618 -0.0247
11423SOL    HW152261   3.572   3.371   8.742 -0.4431 -0.6374 -1.2710
11423SOL    HW252262   3.664   3.327   8.630  0.2748 -2.6622  0.0571
11424SOL     OW52263   2.659  11.422   1.259  0.5036 -0.0136 -0.3491
11424SOL    HW152264   2.735  11.454   1.210  0.5909 -1.6549 -1.3532
11424SOL    HW252265   2.589  11.416   1.194  0.5008 -1.8244 -0.2253
11425SOL     OW52266  10.475   6.653  12.529 -0.5300 -0.2986  0.0501
11425SOL    HW152267  10.415   6.705  12.475 -0.9696  0.3595  1.1359
11425SOL    HW252268  10.495   6.710  12.603  2.1247 -0.1432 -0.6648
11426SOL     OW52269   1.055   3.966  13.649  0.3309 -0.0365  0.1610
11426SOL    HW152270   1.105   3.910  13.590  0.4875 -0.1034  0.3571
11426SOL    HW252271   0.967   3.929  13.649  0.0479  0.5910 -0.8638
11427SOL     OW52272   4.016   8.918   7.595  0.5922 -0.1151 -0.2221
11427SOL    HW152273   3.990   8.980   7.663 -0.3180 -0.8860  0.1634
11427SOL    HW252274   4.074   8.856   7.640 -0.5172 -1.0024  0.0575
11428SOL     OW52275   0.054   0.084   8.199 -0.0237  0.2219  0.1689
11428SOL    HW152276   0.115   0.113   8.267  1.0443  0.6802 -0.9389
11428SOL    HW252277  -0.008   0.156   8.189  0.7484  0.8227 -0.3982
11429SOL     OW52278   0.162   4.949   4.509 -0.5985 -0.2390  0.4717
11429SOL    HW152279   0.254   4.971   4.520 -0.3959 -0.4088 -0.7529
11429SOL    HW252280   0.161   4.855   4.491 -0.9789 -0.1711  0.1190
11430SOL     OW52281  11.076   3.614  11.354  0.9350  0.1014  0.9028
11430SOL    HW152282  10.994   3.567  11.366  0.4717  0.7221  0.2404
11430SOL    HW252283  11.127   3.593  11.432  0.4141 -0.8178  1.0131
11431SOL     OW52284   6.643   5.438   6.477  0.2443  0.6970 -0.1746
11431SOL    HW152285   6.730   5.462   6.445 -0.1809  0.7112 -1.3771
11431SOL    HW252286   6.599   5.401   6.401 -0.8012  0.6791  0.4216
11432SOL     OW52287   1.292  13.962   1.718  0.4370  0.3860 -0.1515
11432SOL    HW152288   1.205  13.947   1.681  0.5110 -0.8099  0.0960
11432SOL    HW252289   1.352  13.935   1.648  0.5979  0.5612 -0.0800
11433SOL     OW52290  13.718   7.139   4.467  1.4704  0.4098  0.4009
11433SOL    HW152291  13.786   7.143   4.535  0.4176  0.5707  1.4674
11433SOL    HW252292  13.657   7.072   4.498  1.4382 -0.1775 -0.8534
11434SOL     OW52293   5.761   9.094   0.709  0.2533  0.2214  0.0324
11434SOL    HW152294   5.822   9.169   0.712  2.2437 -1.3171  0.1674
11434SOL    HW252295   5.715   9.104   0.626  1.9056  0.5731 -0.8963
11435SOL     OW52296   1.032  10.716   2.622 -0.1644  0.2072 -0.2903
11435SOL    HW152297   1.024  10.620   2.622  1.5610  0.0132  1.2874
11435SOL    HW252298   0.952  10.746   2.665 -0.5715 -0.5279 -0.4995
11436SOL     OW52299   0.056   4.105   5.181  0.3506  0.4151  0.0063
11436SOL    HW152300  -0.033   4.110   5.145  0.5338  0.3733 -0.4495
11436SOL    HW252301   0.110   4.153   5.119  0.6169  0.6182  0.3949
11437SOL     OW52302   8.659   9.240   2.093 -0.1937  0.2802  0.7334
11437SOL    HW152303   8.620   9.328   2.090 -1.8037 -0.4090 -0.5365
11437SOL    HW252304   8.734   9.245   2.034 -1.4231  0.3660 -0.9270
11438SOL     OW52305   7.329  13.493   7.278 -0.1188 -0.2685  0.0626
11438SOL    HW152306   7.393  13.425   7.295  0.6135  0.5789  0.7961
11438SOL    HW252307   7.249  13.446   7.254  0.6181 -1.3454 -0.3239
11439SOL     OW52308   2.100  10.410   9.872 -0.1359 -0.5248  0.1399
11439SOL    HW152309   2.042  10.458   9.931 -0.6994 -1.9665  0.8165
11439SOL    HW252310   2.128  10.334   9.924  4.3315  1.2476  0.7669
11440SOL     OW52311   5.092   4.730  12.818 -0.1007 -0.0680 -0.9691
11440SOL    HW152312   5.010   4.683  12.831 -0.1839  0.4769  0.7423
11440SOL    HW252313   5.075   4.787  12.743 -1.4817  0.3844 -0.3500
11441SOL     OW52314   4.895   8.156   5.495 -0.3330  0.1371 -0.2268
11441SOL    HW152315   4.930   8.234   5.539  0.0849  0.2021 -0.6672
11441SOL    HW252316   4.957   8.138   5.425  0.2339 -1.3005  0.5891
11442SOL     OW52317  11.589   7.722   4.609  0.4627 -0.1130  0.1490
11442SOL    HW152318  11.503   7.701   4.646  0.9298 -0.6869  0.9384
11442SOL    HW252319  11.632   7.637   4.599  0.8165  0.1403 -0.5711
11443SOL     OW52320   7.867  13.061   3.248 -0.1106 -0.1386 -0.7323
11443SOL    HW152321   7.829  12.998   3.308  0.8766 -1.3792 -1.3548
11443SOL    HW252322   7.946  13.018   3.215  1.2256  1.8694 -0.3289
11444SOL     OW52323  11.395   1.187   1.006 -0.0555 -0.1870 -0.0220
11444SOL    HW152324  11.318   1.242   0.989  0.6123  0.4192 -1.1627
11444SOL    HW252325  11.400   1.182   1.102 -1.8830 -0.7719  0.0868
11445SOL     OW52326   1.917  13.495   9.687 -0.0060  0.3250 -0.1239
11445SOL    HW152327   1.837  13.539   9.658 -1.0945 -0.9913  0.7669
11445SOL    HW252328   1.915  13.409   9.644  1.7049  0.7940 -1.2551
11446SOL     OW52329   2.048   6.666   8.109 -0.7913 -0.3888 -0.0383
11446SOL    HW152330   2.110   6.715   8.055  0.2850 -0.0266  1.4753
11446SOL    HW252331   2.088   6.664   8.196 -1.8745 -2.0459  0.4639
11447SOL     OW52332  10.972   8.858   5.084 -0.4900  0.0168 -0.6813
11447SOL    HW152333  10.907   8.868   5.153  0.9338  1.5743  0.5193
11447SOL    HW252334  10.974   8.943   5.039  0.4766 -0.0988 -0.8932
11448SOL     OW52335   5.909  12.418  10.815 -0.7041  0.5816 -0.1418
11448SOL    HW152336   5.978  12.436  10.879 -0.5084  2.2141 -0.7674
11448SOL    HW252337   5.831  12.402  10.868  0.1860 -1.7946  0.6030
11449SOL     OW52338  12.455   0.794   9.521  0.0237  0.1446 -0.2419
11449SOL    HW152339  12.476   0.710   9.482 -1.0147  0.0509 -0.6140
11449SOL    HW252340  12.376   0.823   9.476  0.9927  1.8688 -0.9419
11450SOL     OW52341   7.546   2.802  10.664  0.6678 -0.6167  0.4163
11450SOL    HW152342   7.455   2.771  10.671 -0.0505  0.9963 -0.9676
11450SOL    HW252343   7.584   2.785  10.750 -1.3079 -0.2712  1.4091
11451SOL     OW52344   2.566   0.471   6.216 -0.0011 -0.2579 -0.1623
11451SOL    HW152345   2.548   0.400   6.154 -0.4989  0.4324 -0.8347
11451SOL    HW252346   2.648   0.446   6.258  0.2089 -0.8776 -0.9057
11452SOL     OW52347   0.497  13.756   7.790 -0.3547  0.5253 -0.0458
11452SOL    HW152348   0.463  13.825   7.847 -3.0236  1.2219 -2.2947
11452SOL    HW252349   0.524  13.802   7.710 -2.2237 -0.9619 -1.6124
11453SOL     OW52350   1.992   4.180  11.115  0.3285 -0.1281 -0.0535
11453SOL    HW152351   1.998   4.109  11.051  1.1538 -1.4393  1.4210
11453SOL    HW252352   1.905   4.218  11.100  0.1528 -0.9836 -1.3428
11454SOL     OW52353   2.478   0.303   0.069  0.6955 -0.0730 -0.6424
11454SOL    HW152354   2.399   0.293   0.122  1.4917 -2.4337  0.2064
11454SOL    HW252355   2.446   0.310  -0.021 -0.4935 -1.5289 -0.3689
11455SOL     OW52356   0.666   5.223   0.545  0.0897 -0.3598 -0.4971
11455SOL    HW152357   0.657   5.226   0.450  1.1347  1.1903 -0.5838
11455SOL    HW252358   0.615   5.298   0.576  1.7381  0.6342 -0.0568
11456SOL     OW52359   6.550   9.302  10.232 -0.5636 -0.5944 -0.5033
11456SOL    HW152360   6.584   9.341  10.313 -0.4552  1.3821 -1.4640
11456SOL    HW252361   6.599   9.344  10.162 -2.3505 -0.4690 -1.7290
11457SOL     OW52362  12.856   9.195  12.719  0.4104 -0.4321 -0.6360
11457SOL    HW152363  12.776   9.248  12.721  1.0172  0.5203  1.9560
11457SOL    HW252364  12.868   9.167  12.809  1.3740 -3.1743 -1.5358
11458SOL     OW52365   9.150   9.171   6.834 -0.5724  0.2339 -0.4638
11458SOL    HW152366   9.126   9.091   6.880 -1.9485  0.5187 -0.6250
11458SOL    HW252367   9.104   9.164   6.749  1.5366 -0.0757 -1.6425
11459SOL     OW52368   0.090   6.471   9.752 -0.3414 -0.6920 -0.4336
11459SOL    HW152369   0.171   6.470   9.803 -1.6167  3.2582  2.1076
11459SOL    HW252370   0.110   6.525   9.676 -0.8007  1.6132  0.9774
11460SOL     OW52371   6.169   1.171   0.865 -0.0126  0.4396  0.0937
11460SOL    HW152372   6.238   1.232   0.838  1.8531 -1.7348 -0.4781
11460SOL    HW252373   6.210   1.084   0.855 -2.5713 -0.9199  0.6393
11461SOL     OW52374   4.932   0.382  11.453  0.4724 -0.2052 -0.2893
11461SOL    HW152375   4.926   0.441  11.378 -1.1130 -1.9883 -1.6739
11461SOL    HW252376   4.977   0.305  11.419  1.5223 -0.2743  1.1742
11462SOL     OW52377   2.584  13.623   5.228 -0.3850  0.0719 -0.0027
11462SOL    HW152378   2.662  13.581   5.263  0.0115  1.1936  0.5103
11462SOL    HW252379   2.511  13.577   5.270 -0.1308 -2.3775 -2.0475
11463SOL     OW52380   8.241   3.093   4.589  0.5370 -0.8148  0.8705
11463SOL    HW152381   8.275   3.140   4.665 -0.4329  1.2705  0.0828
11463SOL    HW252382   8.316   3.088   4.529  0.4333  0.5394  0.6089
11464SOL     OW52383  10.382   0.489   4.532 -0.0478 -0.4767 -0.2473
11464SOL    HW152384  10.449   0.479   4.600  0.6297 -2.2309 -1.1095
11464SOL    HW252385  10.306   0.522   4.579  0.5004 -1.3367  1.3197
11465SOL     OW52386  13.151   8.065   3.454 -0.0229 -0.1106  0.1645
11465SOL    HW152387  13.135   8.156   3.481 -0.1862 -0.3248  0.8050
11465SOL    HW252388  13.216   8.033   3.516 -0.1244 -0.4997  0.0690
11466SOL     OW52389   0.854  10.471   3.384 -0.2559  0.3450  0.1110
11466SOL    HW152390   0.822  10.482   3.474  0.0596 -0.3946  0.3261
11466SOL    HW252391   0.804  10.534   3.333 -1.6260 -0.3314  0.5521
11467SOL     OW52392  10.588  12.097  10.317  0.3660  0.2899  0.1606
11467SOL    HW152393  10.554  12.171  10.366  0.0639  0.3475 -0.1299
11467SOL    HW252394  10.581  12.023  10.378  2.2590  0.8004  1.0489
11468SOL     OW52395   6.877   7.202   2.750  0.3715  0.5897 -0.2206
11468SOL    HW152396   6.899   7.283   2.703  0.2338  1.3148  0.9237
11468SOL    HW252397   6.804   7.226   2.807  0.8964 -0.0975  0.7842
11469SOL     OW52398  12.607   7.907   5.544 -0.5068  0.2714 -0.1377
11469SOL    HW152399  12.696   7.875   5.532 -1.2229 -1.3743 -1.6187
11469SOL    HW252400  12.579   7.872   5.629 -0.0668 -0.0472 -0.1229
11470SOL     OW52401   3.668  13.747  11.738  0.1700  0.0387 -0.7654
11470SOL    HW152402   3.634  13.690  11.670  0.9239 -0.1514 -0.9819
11470SOL    HW252403   3.761  13.725  11.745  0.7410  1.9435 -1.5899
11471SOL     OW52404   5.829   4.073  10.741  0.7644 -0.1560 -0.2517
11471SOL    HW152405   5.923   4.060  10.756  0.5912  0.3135  1.5337
11471SOL    HW252406   5.799   4.119  10.819 -0.6405  1.2822 -1.5716
11472SOL     OW52407  12.676  12.357   9.016 -0.6132 -0.6957  0.1457
11472SOL    HW152408  12.621  12.279   9.005 -1.6846 -0.1422  1.2364
11472SOL    HW252409  12.620  12.430   8.989 -0.0980 -0.1920  0.4097
11473SOL     OW52410   0.531   6.065   9.711  0.3119 -0.5668 -0.3523
11473SOL    HW152411   0.534   6.083   9.617 -2.5883 -0.7166 -0.5807
11473SOL    HW252412   0.509   6.149   9.750 -0.1139 -0.8352 -0.0067
11474SOL     OW52413   3.911  14.007   6.104 -0.3762 -0.1497 -0.1889
11474SOL    HW152414   3.820  14.000   6.075 -0.5903 -3.6928  0.8021
11474SOL    HW252415   3.906  13.998   6.199  0.9683  0.8127 -0.0018
11475SOL     OW52416   6.096  11.788   0.883 -0.5279  0.0372  0.1453
11475SOL    HW152417   6.006  11.792   0.852 -0.9948 -2.1958  1.0014
11475SOL    HW252418   6.087  11.780   0.978  0.6278  0.4301  0.3010
11476SOL     OW52419  10.812   6.911   1.060 -0.4988 -0.6677  0.8514
11476SOL    HW152420  10.894   6.890   1.106 -0.5123 -1.1825  0.6440
11476SOL    HW252421  10.762   6.962   1.123 -0.6280 -1.5864  1.5050
11477SOL     OW52422   9.104   9.011  11.931  0.3829  0.2079  0.7096
11477SOL    HW152423   9.028   8.953  11.941  0.8123 -0.5332 -0.2204
11477SOL    HW252424   9.084   9.086  11.987 -1.0181  0.0035  0.5170
11478SOL     OW52425   5.928  11.302  10.115 -0.2419  0.3078 -0.1421
11478SOL    HW152426   5.998  11.276  10.056  0.5793  0.8292  0.5846
11478SOL    HW252427   5.969  11.361  10.178 -1.3423  0.6636  0.2732
11479SOL     OW52428   1.148   9.008  11.704 -0.5925  0.3292 -0.2000
11479SOL    HW152429   1.190   8.956  11.773 -0.1133 -0.4811 -1.0834
11479SOL    HW252430   1.203   9.087  11.697  1.0051 -0.8429 -1.5342
11480SOL     OW52431  13.629  11.465   2.506  0.4460  0.3431 -0.5809
11480SOL    HW152432  13.717  11.435   2.524  0.6192  0.4327 -1.2534
11480SOL    HW252433  13.616  11.539   2.565  0.5321 -0.1597  0.0720
11481SOL     OW52434   1.640   9.727  11.588  0.4868 -0.4058  0.0590
11481SOL    HW152435   1.644   9.651  11.646  1.9130  0.9541  1.8785
11481SOL    HW252436   1.607   9.798  11.644 -0.6329  0.3821 -1.5333
11482SOL     OW52437  10.358   1.264   5.094 -0.6190  0.6541  0.8053
11482SOL    HW152438  10.296   1.242   5.164 -2.8198  0.0062 -1.2242
11482SOL    HW252439  10.313   1.332   5.043 -0.0221 -0.3451 -1.1556
11483SOL     OW52440  10.925   6.335   0.132  0.4239  0.0078 -0.0386
11483SOL    HW152441  10.872   6.347   0.211 -2.3493 -0.6963 -1.6589
11483SOL    HW252442  10.918   6.418   0.085  1.0659  0.0171 -0.1329
11484SOL     OW52443  11.958   6.492  11.951 -0.9664 -0.3481 -0.3407
11484SOL    HW152444  11.983   6.416  11.899 -1.7561 -0.4624 -0.5659
11484SOL    HW252445  11.952   6.563  11.887 -0.8463 -0.2382 -0.2300
11485SOL     OW52446   8.534  11.903   9.997  0.3930 -0.0716  0.0360
11485SOL    HW152447   8.554  11.832   9.937 -0.8765 -0.3846 -0.0454
11485SOL    HW252448   8.442  11.924   9.980  0.4155  0.7981  0.8745
11486SOL     OW52449  12.749   6.816  12.152  0.2257 -0.3144 -0.2353
11486SOL    HW152450  12.672   6.759  12.146 -1.3896  1.6815  0.2548
11486SOL    HW252451  12.774   6.812  12.245  0.9839 -1.2338 -0.4598
11487SOL     OW52452  14.088   8.437   7.489  0.0689 -0.1606  0.1493
11487SOL    HW152453  14.078   8.391   7.572 -0.1007 -1.5306 -0.5938
11487SOL    HW252454  14.167   8.489   7.500 -0.0912 -0.1307  1.2533
11488SOL     OW52455   7.662  12.788   3.789 -0.2931 -0.0654 -0.1718
11488SOL    HW152456   7.746  12.803   3.745 -0.7414  0.7292 -0.7857
11488SOL    HW252457   7.683  12.792   3.882  0.3592  0.1224 -0.3202
11489SOL     OW52458  11.853  12.154   8.353  0.5662  0.3693 -0.0128
11489SOL    HW152459  11.773  12.198   8.325 -1.6114 -3.3627 -0.3434
11489SOL    HW252460  11.890  12.117   8.273 -0.2627 -2.1220  0.6690
11490SOL     OW52461  11.640   1.519   4.487 -0.0389  0.4281  0.0152
11490SOL    HW152462  11.652   1.601   4.440 -0.9389  1.0386  0.8130
11490SOL    HW252463  11.713   1.516   4.549  0.8682 -0.1406 -1.0551
11491SOL     OW52464   6.036   8.670   0.633  0.1320 -0.6112  0.6663
11491SOL    HW152465   6.007   8.595   0.581 -0.4556 -0.3766  0.6447
11491SOL    HW252466   5.985   8.744   0.599  0.2211 -0.3299  1.1339
11492SOL     OW52467   4.598   4.365  13.968  0.4280 -0.0507  0.2989
11492SOL    HW152468   4.545   4.386  14.044  0.5762  1.7802 -0.0553
11492SOL    HW252469   4.537   4.371  13.894  0.3618 -1.4736  0.2014
11493SOL     OW52470   1.011  11.722   5.590 -0.1146  0.2351 -0.6569
11493SOL    HW152471   0.926  11.688   5.616  0.3387 -0.7893 -0.4968
11493SOL    HW252472   1.073  11.684   5.652  0.6592 -0.3049 -1.7338
11494SOL     OW52473   8.205   1.225  12.103  0.6229  0.0233 -0.2161
11494SOL    HW152474   8.165   1.187  12.025 -1.3683 -0.7647  1.0953
11494SOL    HW252475   8.209   1.319  12.085 -2.4448  0.2401 -0.2837
11495SOL     OW52476   0.414   9.972   9.944 -0.2951 -0.0377  0.4469
11495SOL    HW152477   0.482  10.039   9.929  0.2676 -0.6343  0.2754
11495SOL    HW252478   0.348  10.016   9.997  0.8771  0.1797  1.7793
11496SOL     OW52479   3.536   5.721   1.722 -0.7370 -0.0946  0.2336
11496SOL    HW152480   3.557   5.749   1.633 -1.5561 -0.9331 -0.2335
11496SOL    HW252481   3.622   5.709   1.764 -0.3527  0.7793 -0.2816
11497SOL     OW52482   8.230   0.888   9.271  0.2067  0.0928 -0.7411
11497SOL    HW152483   8.199   0.977   9.261 -0.3364 -0.0935 -0.7466
11497SOL    HW252484   8.172   0.835   9.216 -0.0882 -0.3798  0.0041
11498SOL     OW52485  10.952   5.701   6.658 -0.5818  0.0137  0.5919
11498SOL    HW152486  11.042   5.688   6.689 -0.6015  0.4891  0.8595
11498SOL    HW252487  10.912   5.614   6.662 -0.5362  0.0382  1.7573
11499SOL     OW52488   8.359   5.154  12.877 -0.5342  0.2557  0.3793
11499SOL    HW152489   8.366   5.198  12.793  1.6965 -2.5991 -1.1254
11499SOL    HW252490   8.446   5.162  12.916 -0.8420 -0.5198  1.2754
11500SOL     OW52491   0.238   5.684   7.361  0.2390 -0.4132 -0.5683
11500SOL    HW152492   0.223   5.695   7.454  1.6013  0.2925 -0.3931
11500SOL    HW252493   0.174   5.619   7.333  0.6554 -1.6168  1.1193
11501SOL     OW52494  13.218  13.637   4.664  0.3525  0.3395 -0.9154
11501SOL    HW152495  13.189  13.620   4.753  0.0154 -0.4478 -1.1645
11501SOL    HW252496  13.146  13.608   4.609  1.4753 -1.4420 -1.5413
11502SOL     OW52497  10.493   3.472   6.744  0.3533 -0.6135  0.2138
11502SOL    HW152498  10.493   3.543   6.680  0.8806 -0.8363 -0.0361
11502SOL    HW252499  10.559   3.498   6.809  0.5474 -0.8750  0.1213
11503SOL     OW52500   7.705  11.321  13.383 -0.5796 -0.2722 -0.4483
11503SOL    HW152501   7.777  11.356  13.436  0.0806 -1.2413 -0.6639
11503SOL    HW252502   7.626  11.359  13.421  0.0826  1.3824 -0.6433
11504SOL     OW52503   8.040  12.998   5.903  0.0001 -0.2030  0.3463
11504SOL    HW152504   7.973  13.065   5.901 -1.3691 -1.5209 -1.8661
11504SOL    HW252505   8.089  13.010   5.822 -0.3189 -1.8809 -0.1275
11505SOL     OW52506   0.090   0.298   0.040 -0.0101 -0.2177 -0.0877
11505SOL    HW152507   0.062   0.238   0.109 -3.1054 -0.6881 -1.5808
11505SOL    HW252508   0.135   0.242  -0.024 -1.3066 -0.6672 -0.6297
11506SOL     OW52509   3.506  11.468   5.330 -0.2240  0.1880 -0.5043
11506SOL    HW152510   3.562  11.506   5.397 -0.6051  0.1109 -0.1351
11506SOL    HW252511   3.420  11.462   5.371 -0.8098  1.4732 -1.4594
11507SOL     OW52512  10.349   9.516  11.544  0.7056  0.4294 -0.1116
11507SOL    HW152513  10.426   9.483  11.498  0.3615  0.3651 -0.6452
11507SOL    HW252514  10.384   9.553  11.625  1.3177  0.5356 -0.4168
11508SOL     OW52515   3.444  13.787   2.521 -0.1527 -0.1095  0.5423
11508SOL    HW152516   3.527  13.793   2.474  0.3959 -1.3173  1.2983
11508SOL    HW252517   3.468  13.793   2.614 -0.6078 -2.4621  0.8995
11509SOL     OW52518   9.646   3.912   1.879  0.2724 -0.4255  0.4943
11509SOL    HW152519   9.614   3.850   1.944 -1.4297  1.4384  1.5925
11509SOL    HW252520   9.647   3.863   1.797 -0.8809 -1.9381  1.3212
11510SOL     OW52521  12.101  10.364   5.832  0.3084  0.3074  0.4311
11510SOL    HW152522  12.076  10.420   5.759 -1.9579 -0.0568  0.8441
11510SOL    HW252523  12.144  10.289   5.791  0.5604  0.8808 -0.3732
11511SOL     OW52524   4.939  12.850  13.233 -0.1414 -0.5452 -0.7863
11511SOL    HW152525   4.981  12.899  13.304 -0.9723  0.2482 -0.8286
11511SOL    HW252526   4.998  12.776  13.217  0.3200 -0.4478  0.3732
11512SOL     OW52527  12.912   4.816   6.791 -0.1959  0.2782 -0.4043
11512SOL    HW152528  12.905   4.887   6.727  2.7550  0.6935 -0.4135
11512SOL    HW252529  12.987   4.765   6.761 -0.6627 -1.3410  1.0555
11513SOL     OW52530  11.623  12.114   1.787 -0.7809  0.3615 -0.1218
11513SOL    HW152531  11.646  12.048   1.722  0.4250  0.9615 -0.3278
11513SOL    HW252532  11.690  12.108   1.854 -0.4442  1.5836 -0.3096
11514SOL     OW52533  13.022   7.222  10.965 -0.5088  0.2289  0.5093
11514SOL    HW152534  13.104   7.186  10.930 -0.9867  0.3255 -0.7522
11514SOL    HW252535  13.037   7.317  10.967 -1.1177  0.4050 -1.2569
11515SOL     OW52536   5.737  12.063   5.929 -0.2697 -0.0209 -0.5685
11515SOL    HW152537   5.674  12.047   6.000  0.9399  0.3333  0.6176
11515SOL    HW252538   5.696  12.131   5.877 -1.1764 -0.2668 -0.2022
11516SOL     OW52539  12.220  11.794   5.854 -0.2794 -0.0269  0.1341
11516SOL    HW152540  12.277  11.849   5.800  0.6045  1.1334  2.1385
11516SOL    HW252541  12.280  11.735   5.899 -0.9089 -0.4377  0.4505
11517SOL     OW52542  10.328   6.926   6.948 -0.5466 -0.4041  0.0189
11517SOL    HW152543  10.406   6.905   7.000 -0.6915 -0.4118  0.2329
11517SOL    HW252544  10.255   6.912   7.007 -0.6824  0.1066 -0.0254
11518SOL     OW52545   0.066   1.507  14.124  0.2714 -0.2098 -0.0647
11518SOL    HW152546   0.110   1.542  14.047  0.5622 -1.3730 -0.4394
11518SOL    HW252547  -0.025   1.537  14.115  0.1400 -0.9009 -1.2256
11519SOL     OW52548   5.411  14.129  13.316  0.2765  0.0727 -0.2865
11519SOL    HW152549   5.466  14.079  13.256  0.8158 -0.6625  0.7805
11519SOL    HW252550   5.330  14.078  13.324  1.3259 -1.4245  1.8150
11520SOL     OW52551   7.378   5.086   1.957  0.2806 -0.0532  0.1447
11520SOL    HW152552   7.345   5.056   2.042  0.0593  0.3581  0.2030
11520SOL    HW252553   7.322   5.042   1.893  1.4305 -1.5975  0.1507
11521SOL     OW52554  12.319   4.377   0.354  0.0558  0.3286 -0.5865
11521SOL    HW152555  12.224   4.393   0.358  0.1619  0.6909  1.7625
11521SOL    HW252556  12.329   4.314   0.283 -2.1974 -1.2204  0.3398
11522SOL     OW52557   9.663   4.026   9.807  0.2868 -0.0051 -0.0071
11522SOL    HW152558   9.659   3.978   9.890  2.1394  0.2118  0.2699
11522SOL    HW252559   9.619   3.970   9.744 -0.6722 -0.4292  1.0055
11523SOL     OW52560   2.058  11.149  12.149 -0.0568 -0.6864  0.4468
11523SOL    HW152561   2.023  11.078  12.203  1.0817 -0.3414  1.6556
11523SOL    HW252562   2.150  11.156  12.173 -0.0787  1.0377  0.1608
11524SOL     OW52563   6.373   0.330  13.276  0.4745  0.0573 -0.3588
11524SOL    HW152564   6.464   0.358  13.280  0.0356  1.6115 -0.6813
11524SOL    HW252565   6.374   0.251  13.223  1.6952 -0.2538  0.0996
11525SOL     OW52566   4.946   7.424   4.373  0.5585 -0.5042 -0.1531
11525SOL    HW152567   5.001   7.347   4.368  2.4057  0.5804  1.7786
11525SOL    HW252568   4.972   7.467   4.455 -1.7550  1.1580 -0.1718
11526SOL     OW52569   5.688   8.320   5.649  0.3980 -0.1400  0.1224
11526SOL    HW152570   5.723   8.394   5.699 -1.1946 -0.7864  2.3397
11526SOL    HW252571   5.643   8.361   5.575  1.9294  0.9075 -0.2869
11527SOL     OW52572   2.560   0.181  12.619 -0.6571 -0.6482  0.0190
11527SOL    HW152573   2.543   0.105  12.675  0.4091 -0.8631  0.0801
11527SOL    HW252574   2.601   0.245  12.678 -0.7735 -0.3568 -0.2170
11528SOL     OW52575   0.258   2.263   5.153  0.1924 -0.0570 -0.4642
11528SOL    HW152576   0.319   2.319   5.202  0.9848 -0.2278 -1.2364
11528SOL    HW252577   0.229   2.198   5.217  1.2387 -0.2939 -0.2101
11529SOL     OW52578   5.248   7.110   9.419  0.0211 -0.2471  0.2700
11529SOL    HW152579   5.331   7.070   9.446  0.6446  2.0160  1.9971
11529SOL    HW252580   5.185   7.084   9.486 -0.2769 -0.6294 -0.1521
11530SOL     OW52581   4.958   8.325  11.398  0.2035  0.4479  0.2513
11530SOL    HW152582   4.958   8.401  11.456 -0.1091  0.4483  0.2539
11530SOL    HW252583   4.900   8.350  11.326 -1.3248 -0.4414  1.1264
11531SOL     OW52584   1.501   5.441   0.202  0.0179  0.3020 -0.1823
11531SOL    HW152585   1.584   5.483   0.179  0.5733  0.5990  2.0766
11531SOL    HW252586   1.436   5.510   0.195  0.3519  0.6600  0.2009
11532SOL     OW52587  11.798   4.427   0.800  0.1521 -1.0330 -0.1835
11532SOL    HW152588  11.783   4.415   0.706 -1.8188  2.5405 -0.4989
11532SOL    HW252589  11.892   4.441   0.808  0.3981 -1.6909 -1.5446
11533SOL     OW52590   5.663  10.045   4.847  0.0773 -0.4134  0.8292
11533SOL    HW152591   5.625  10.062   4.760 -1.2160 -0.2791  1.3915
11533SOL    HW252592   5.743  10.097   4.848 -0.4737  0.5026  0.1185
11534SOL     OW52593  12.622   4.659   9.149  0.2108 -0.1533 -0.2846
11534SOL    HW152594  12.648   4.621   9.065  1.2553 -1.5654  0.6216
11534SOL    HW252595  12.685   4.623   9.212 -0.3618  1.0982  1.0579
11535SOL     OW52596   2.904   7.861  13.922  0.0821 -0.5301 -0.1954
11535SOL    HW152597   2.846   7.911  13.865  0.9542  0.1148 -0.5530
11535SOL    HW252598   2.935   7.924  13.987  0.2376 -0.9024  0.0999
11536SOL     OW52599   8.885  12.707   6.036 -0.0030  0.3986 -0.4542
11536SOL    HW152600   8.925  12.779   5.987 -0.7043  0.6265 -0.7031
11536SOL    HW252601   8.811  12.680   5.982 -0.2721  0.0737  0.0730
11537SOL     OW52602   5.907  12.291   7.733  0.0347  0.3889  0.2872
11537SOL    HW152603   5.927  12.207   7.693  3.0213  1.3926 -0.5792
11537SOL    HW252604   5.936  12.281   7.824  1.2675  0.7547 -0.0586
11538SOL     OW52605  10.410   5.024   5.611  0.6702  0.1060  0.2853
11538SOL    HW152606  10.479   4.964   5.639 -0.4057 -1.6260 -0.5788
11538SOL    HW252607  10.389   4.996   5.522 -2.4532 -0.7527  1.1618
11539SOL     OW52608   0.302  10.017  11.819  0.1354 -0.0647  0.3721
11539SOL    HW152609   0.252  10.093  11.791 -0.5465 -0.5651  0.1903
11539SOL    HW252610   0.373  10.053  11.871 -0.7476  0.6364  1.1291
11540SOL     OW52611   9.403  12.033  11.884  0.2371  0.0128  0.3724
11540SOL    HW152612   9.416  11.942  11.856 -3.7366 -0.5835 -0.2313
11540SOL    HW252613   9.401  12.028  11.980 -0.9201 -0.7938  0.3333
11541SOL     OW52614   8.515   1.373   9.031  0.3800  0.3630  0.8390
11541SOL    HW152615   8.592   1.319   9.044 -0.5691 -1.3649 -0.3264
11541SOL    HW252616   8.442   1.317   9.056 -0.5261  1.9463  1.8823
11542SOL     OW52617   2.441   0.342   9.916 -0.0675  0.3932 -0.2055
11542SOL    HW152618   2.450   0.247   9.920  1.5117  0.4962 -0.8847
11542SOL    HW252619   2.372   0.361   9.980 -2.0911 -1.3847 -1.6961
11543SOL     OW52620  11.373   5.493   6.295  0.2624  0.0946  0.0257
11543SOL    HW152621  11.396   5.461   6.208  0.3535 -2.1805  0.7997
11543SOL    HW252622  11.283   5.463   6.309  1.2814 -2.5765  1.8638
11544SOL     OW52623   9.936   9.169   8.644  0.1635 -0.5003 -0.4630
11544SOL    HW152624   9.943   9.149   8.737  0.8679 -0.9207 -0.5911
11544SOL    HW252625   9.844   9.156   8.623 -0.2744  0.9101  0.4530
11545SOL     OW52626   0.797   8.878   1.813  0.0784  0.1836  0.1248
11545SOL    HW152627   0.877   8.849   1.771 -0.3216 -0.8303  0.0403
11545SOL    HW252628   0.812   8.971   1.832  1.2607  0.0053  0.1196
11546SOL     OW52629  10.925   2.921   4.446  0.4566 -0.0397 -0.0536
11546SOL    HW152630  10.879   2.893   4.367 -0.4473  0.3287  0.3337
11546SOL    HW252631  10.866   2.982   4.488  1.3768  0.5782  0.3785
11547SOL     OW52632   0.198  14.150   7.740  0.1031 -0.3454  0.2713
11547SOL    HW152633   0.216  14.057   7.727  1.4364 -0.0768  0.1593
11547SOL    HW252634   0.251  14.194   7.675 -0.4509  0.5132  0.3900
11548SOL     OW52635   2.377   8.113   0.960 -0.2796 -0.2690  0.0066
11548SOL    HW152636   2.382   8.034   0.906 -0.1315 -0.6680  0.5905
11548SOL    HW252637   2.402   8.184   0.901 -0.7302 -0.6138 -0.6093
11549SOL     OW52638   4.147  12.890  11.189 -0.2706  0.2604 -0.1082
11549SOL    HW152639   4.098  12.964  11.227 -0.1359  0.0997  0.3844
11549SOL    HW252640   4.119  12.814  11.240  0.1502  0.0929 -0.1244
11550SOL     OW52641  13.524  13.655   9.007  0.6440  0.0268  1.2494
11550SOL    HW152642  13.465  13.704   8.950  0.0880 -2.0005 -0.0062
11550SOL    HW252643  13.509  13.692   9.094  1.1706  2.8915  0.2288
11551SOL     OW52644   1.358  10.003   6.855  0.3785 -0.1583 -0.2029
11551SOL    HW152645   1.316  10.026   6.938 -2.3459  0.6537 -1.6836
11551SOL    HW252646   1.372   9.908   6.860  0.3847 -0.0973  1.2122
11552SOL     OW52647   6.434   0.711  11.174  0.4200  0.1067 -0.4365
11552SOL    HW152648   6.495   0.667  11.115 -1.1629  0.5168 -2.4765
11552SOL    HW252649   6.383   0.769  11.118  1.0029  3.0825  1.8195
11553SOL     OW52650   9.501  12.327   6.682 -0.5632  0.7218 -0.3554
11553SOL    HW152651   9.527  12.382   6.608  2.5186  1.8374  1.3481
11553SOL    HW252652   9.578  12.273   6.700 -1.2916  0.2751  1.8333
11554SOL     OW52653   2.454   8.928   6.997  0.1454 -0.2519 -0.5847
11554SOL    HW152654   2.501   8.848   7.022  0.5892  0.2044  0.0501
11554SOL    HW252655   2.374   8.926   7.050  1.0359  0.6618  0.8208
11555SOL     OW52656   5.582   2.986   1.430 -0.1894  0.3786  0.0585
11555SOL    HW152657   5.526   3.001   1.354 -0.4189  1.1064  0.3663
11555SOL    HW252658   5.526   2.939   1.492  0.1173 -0.5696 -0.3673
11556SOL     OW52659   3.637   2.109  12.688  0.8604 -0.0665  0.2740
11556SOL    HW152660   3.695   2.034  12.677 -1.7315 -1.9785 -1.4572
11556SOL    HW252661   3.593   2.094  12.772  0.4821 -0.4148  0.0181
11557SOL     OW52662   1.715   5.140  11.900  0.1402  0.1739  0.1442
11557SOL    HW152663   1.774   5.087  11.953 -0.1288  0.2148  0.4856
11557SOL    HW252664   1.651   5.078  11.866 -1.2978  0.5254  2.0632
11558SOL     OW52665   3.829  12.440   0.587  0.2984 -0.4846 -0.5696
11558SOL    HW152666   3.787  12.504   0.528 -0.1865  0.2010  0.4839
11558SOL    HW252667   3.855  12.492   0.663 -1.6263 -1.7978  1.0723
11559SOL     OW52668   2.221   9.048   8.689 -0.0117 -0.0659 -0.5124
11559SOL    HW152669   2.129   9.067   8.670  0.0992 -1.0871 -2.2246
11559SOL    HW252670   2.270   9.102   8.627  0.5635  0.1979  0.1507
11560SOL     OW52671   3.169   4.303  12.324 -0.3079  0.5581  0.6703
11560SOL    HW152672   3.167   4.238  12.394  0.8480 -0.3143 -0.0704
11560SOL    HW252673   3.086   4.289  12.277  0.6256 -1.6040 -0.4989
11561SOL     OW52674  13.707   8.452   3.453  0.3562  0.0600 -0.0424
11561SOL    HW152675  13.624   8.496   3.438  0.5374  0.2714 -0.4425
11561SOL    HW252676  13.697   8.410   3.538 -0.2069 -0.0332 -0.1553
11562SOL     OW52677   7.901  11.559  11.993  0.1942 -0.0331 -0.2763
11562SOL    HW152678   7.858  11.612  11.926 -0.0845 -0.8613 -0.7669
11562SOL    HW252679   7.992  11.552  11.964 -0.2207 -1.5174 -1.3101
11563SOL     OW52680   9.433   9.134   6.839  0.3872 -0.1037  0.4059
11563SOL    HW152681   9.498   9.204   6.844  1.0001 -0.7316  1.6942
11563SOL    HW252682   9.349   9.179   6.834  0.9043  0.7288 -1.8457
11564SOL     OW52683   2.091   6.663  13.367  0.8080 -0.2883  0.1464
11564SOL    HW152684   2.018   6.687  13.310  0.7533 -0.1671  0.2675
11564SOL    HW252685   2.167   6.656  13.308  0.9964  0.9679  0.2236
11565SOL     OW52686   8.088  10.911   2.627  0.0333 -0.1041  0.6178
11565SOL    HW152687   8.104  10.834   2.573  1.0437 -0.2373  1.0882
11565SOL    HW252688   8.077  10.877   2.716 -0.0688  0.2439  0.7423
11566SOL     OW52689   8.018   3.636   6.558  0.0507 -0.2738 -0.3039
11566SOL    HW152690   8.048   3.660   6.646 -0.2790 -1.7254  0.2368
11566SOL    HW252691   7.924   3.622   6.568  0.2661 -2.1098 -0.4598
11567SOL     OW52692   6.130  10.549   9.474  0.0901 -0.3555  0.6068
11567SOL    HW152693   6.150  10.642   9.473  1.5968 -0.6532 -0.8938
11567SOL    HW252694   6.205  10.509   9.518  0.9435 -1.1121 -1.4338
11568SOL     OW52695  12.996   9.576   6.410 -0.1964 -0.3421 -0.2531
11568SOL    HW152696  12.966   9.510   6.349 -2.0909 -0.3080  0.5848
11568SOL    HW252697  12.995   9.658   6.360  1.2021 -0.7433 -0.9988
11569SOL     OW52698   2.733  10.774   0.774  0.1447 -0.3361  0.8855
11569SOL    HW152699   2.749  10.800   0.683 -2.8442 -0.5637  0.1688
11569SOL    HW252700   2.790  10.699   0.789  0.6609 -0.3142 -0.8116
11570SOL     OW52701  11.770  10.374   3.160 -0.6624 -0.0088  0.1832
11570SOL    HW152702  11.685  10.335   3.179 -0.5349  0.8406  2.9381
11570SOL    HW252703  11.754  10.468   3.160  0.1691  0.1399  0.1343
11571SOL     OW52704   4.735   9.047  12.012  0.1538 -0.0321  0.7017
11571SOL    HW152705   4.710   8.955  12.013  1.3729 -0.3756  1.3326
11571SOL    HW252706   4.707   9.080  12.098 -0.9779  0.3987  0.1837
11572SOL     OW52707   4.892   0.635  12.859  0.5853 -0.3451  0.0079
11572SOL    HW152708   4.832   0.565  12.835  0.6976  0.0307 -1.4830
11572SOL    HW252709   4.853   0.714  12.820  0.9650  0.2656  0.8254
11573SOL     OW52710   4.536   8.503  11.803  0.0113  0.4922  0.0484
11573SOL    HW152711   4.537   8.580  11.746  3.3268  0.2711 -0.4188
11573SOL    HW252712   4.505   8.432  11.746  0.7745  0.7712 -0.7415
11574SOL     OW52713  13.083   0.740   3.063  0.6116 -0.4231 -0.0048
11574SOL    HW152714  13.036   0.698   2.991  0.8311 -1.1778  0.2838
11574SOL    HW252715  13.123   0.818   3.024 -0.6195  0.0792 -0.3245
11575SOL     OW52716  12.092   2.010  12.737  0.4696 -0.3527  0.0930
11575SOL    HW152717  12.098   2.034  12.644 -3.3761  0.9084  0.0216
11575SOL    HW252718  12.113   1.916  12.738 -0.3293 -0.6342 -2.2368
11576SOL     OW52719  10.516  13.204   8.251 -0.5063 -0.4321  0.2644
11576SOL    HW152720  10.429  13.195   8.290 -0.4443 -2.3609  0.0680
11576SOL    HW252721  10.512  13.151   8.171  0.4247  0.6363 -0.5237
11577SOL     OW52722  14.050   2.209   7.365  0.5927  0.0967  0.2546
11577SOL    HW152723  14.021   2.291   7.406  1.8788  1.4249 -1.3416
11577SOL    HW252724  14.129   2.185   7.413  0.4090 -0.0298  0.4973
11578SOL     OW52725   1.855   6.134   8.919  0.6874 -0.2300 -0.2302
11578SOL    HW152726   1.936   6.105   8.877  0.7015  0.4524 -0.6833
11578SOL    HW252727   1.816   6.054   8.953  1.7845 -0.5195  0.4130
11579SOL     OW52728   5.284   9.268   4.553 -0.1700 -0.4453  0.1288
11579SOL    HW152729   5.354   9.250   4.490 -0.0917 -1.9375  0.6224
11579SOL    HW252730   5.217   9.204   4.533 -0.7035 -0.0844  0.7372
11580SOL     OW52731   4.933   4.105  10.958  0.0516 -0.0836  0.1425
11580SOL    HW152732   4.845   4.137  10.939  0.1872 -0.2162 -0.7476
11580SOL    HW252733   4.919   4.017  10.993 -0.1740 -0.1356 -0.0703
11581SOL     OW52734   6.526  13.192   6.126  0.0150 -0.6624  0.0566
11581SOL    HW152735   6.442  13.229   6.151  1.4964  0.6505  3.7095
11581SOL    HW252736   6.553  13.141   6.202  2.1862 -1.7028 -1.3300
11582SOL     OW52737  12.520   3.522   2.748 -0.6745 -0.1121  0.2056
11582SOL    HW152738  12.452   3.485   2.691  0.6922 -0.6849 -1.1043
11582SOL    HW252739  12.576   3.448   2.770  1.4848  0.9026 -1.5567
11583SOL     OW52740   0.488   5.787   7.286 -0.1249 -0.1601  0.4976
11583SOL    HW152741   0.473   5.857   7.222  0.3366  1.2892  1.8999
11583SOL    HW252742   0.401   5.765   7.318 -0.1577  1.8559  2.0776
11584SOL     OW52743   8.641  11.455   3.027  0.1088  0.5606 -0.3891
11584SOL    HW152744   8.658  11.365   2.999  2.1709  1.3049 -1.8261
11584SOL    HW252745   8.684  11.509   2.961  0.0784  2.5747  1.1308
11585SOL     OW52746  10.437   0.359  12.280 -0.1571  0.1173  0.6918
11585SOL    HW152747  10.384   0.438  12.269  0.1021  0.2749  0.5800
11585SOL    HW252748  10.527   0.388  12.269 -0.1761 -0.7464 -2.6827
11586SOL     OW52749   5.293  12.115   0.901 -0.0306 -0.8009  0.0252
11586SOL    HW152750   5.295  12.208   0.876 -1.5207 -0.3965  1.2341
11586SOL    HW252751   5.225  12.077   0.846 -1.8056 -0.3757  1.7990
11587SOL     OW52752   8.208  12.276  11.808  0.6466 -0.6180  0.0082
11587SOL    HW152753   8.135  12.276  11.870  0.1536  0.8814 -0.5107
11587SOL    HW252754   8.286  12.272  11.862  0.2189  0.3766  0.7337
11588SOL     OW52755   6.241   9.215   8.114  0.7804 -0.0837 -0.0147
11588SOL    HW152756   6.211   9.183   8.198  0.0466  0.7011  0.0415
11588SOL    HW252757   6.265   9.306   8.130 -1.0644  0.6385 -0.9849
11589SOL     OW52758   1.374  13.326   0.856 -0.5872 -0.4672  0.1804
11589SOL    HW152759   1.390  13.232   0.865 -1.1766 -0.7215 -1.2869
11589SOL    HW252760   1.461  13.365   0.866 -0.4654 -1.0617  1.7885
11590SOL     OW52761   5.014  13.400   1.152 -0.3363 -0.5464  0.3439
11590SOL    HW152762   5.076  13.330   1.133 -2.2354 -2.3158  0.3117
11590SOL    HW252763   4.982  13.380   1.240 -1.4322 -0.1594  0.0466
11591SOL     OW52764   7.911   9.027  13.639  0.4247  0.2679 -0.0871
11591SOL    HW152765   7.822   8.993  13.632  0.7407 -0.8338  0.9522
11591SOL    HW252766   7.966   8.962  13.596  0.6567  1.4326 -1.6309
11592SOL     OW52767  12.266   3.266   3.265 -0.4761  0.2869 -0.4038
11592SOL    HW152768  12.215   3.312   3.198 -1.6951  1.7868  1.4433
11592SOL    HW252769  12.351   3.250   3.223 -0.6392  2.5766 -1.8006
11593SOL     OW52770   1.712  13.479   8.477  0.2476 -0.4056 -0.3769
11593SOL    HW152771   1.622  13.511   8.480 -0.0028 -0.8476 -2.1383
11593SOL    HW252772   1.711  13.410   8.412  2.3871  1.3910 -2.5233
11594SOL     OW52773  13.041   3.904   8.957  0.3864  0.1985  0.3777
11594SOL    HW152774  13.042   3.810   8.976 -2.5503  0.0618  0.3330
11594SOL    HW252775  13.003   3.943   9.036  0.5562  1.2187 -0.0426
11595SOL     OW52776   7.655   1.408  10.230  0.5655 -0.1212  0.2073
11595SOL    HW152777   7.574   1.383  10.275 -1.1396 -0.2424 -2.6312
11595SOL    HW252778   7.690   1.325  10.196  0.8871  0.1234 -0.0686
11596SOL     OW52779   1.460   8.429  10.720  0.3327 -0.3828 -0.1658
11596SOL    HW152780   1.423   8.365  10.660 -0.1832 -0.7502  0.5344
11596SOL    HW252781   1.390   8.493  10.735  0.5808 -0.0868 -0.2450
11597SOL     OW52782   0.357   9.495   2.948  0.8769 -0.4099  0.1991
11597SOL    HW152783   0.337   9.465   2.859  1.7952 -0.9485  0.1586
11597SOL    HW252784   0.373   9.589   2.939  0.8712 -0.4471 -0.1895
11598SOL     OW52785   8.049  11.775   4.695 -0.4277 -0.2569 -0.4212
11598SOL    HW152786   7.969  11.822   4.719  0.7287  1.4639  0.2394
11598SOL    HW252787   8.118  11.816   4.748  1.2355 -0.3792 -2.3698
11599SOL     OW52788  11.359   7.034  13.952 -0.1398 -0.0510  0.7474
11599SOL    HW152789  11.370   6.939  13.953 -0.0869 -0.0434  0.8784
11599SOL    HW252790  11.270   7.048  13.920 -0.0788 -0.1396  0.5341
11600SOL     OW52791  11.714  13.728   3.264  0.8059  0.8308 -0.2693
11600SOL    HW152792  11.769  13.772   3.199  1.2982 -0.9950 -1.1569
11600SOL    HW252793  11.695  13.643   3.225  0.5269 -0.0562  1.6956
11601SOL     OW52794  13.380   3.952   6.881 -0.1947 -0.1509  0.0490
11601SOL    HW152795  13.339   4.021   6.933 -2.5628 -0.2583 -1.5315
11601SOL    HW252796  13.323   3.876   6.892  0.0512 -0.5907 -1.5484
11602SOL     OW52797   3.616  13.492   6.408 -0.1654  0.1900  0.2991
11602SOL    HW152798   3.670  13.566   6.435 -2.1075  1.6372  0.5009
11602SOL    HW252799   3.670  13.443   6.347  1.0777  1.9778 -0.1183
11603SOL     OW52800   4.563   5.577  12.931  0.0215  0.0791 -0.1349
11603SOL    HW152801   4.621   5.597  12.858 -0.2721 -2.4459 -1.1659
11603SOL    HW252802   4.500   5.514  12.895 -0.9485 -0.2353  1.9595
11604SOL     OW52803  11.878   6.352  13.837 -0.6264  0.0935 -0.1002
11604SOL    HW152804  11.823   6.430  13.848  0.7063  0.9365  0.8147
11604SOL    HW252805  11.852   6.317  13.752 -2.4926  0.5174  0.2378
11605SOL     OW52806  11.548   0.779   8.337  0.1291  0.2743  0.0924
11605SOL    HW152807  11.568   0.832   8.414  1.0761 -0.9517  0.7372
11605SOL    HW252808  11.603   0.816   8.267 -2.1998  2.6862 -0.6391
11606SOL     OW52809   0.676  10.713   2.226  0.3709 -0.0102  0.7558
11606SOL    HW152810   0.643  10.725   2.315  0.3152 -1.0457  0.8948
11606SOL    HW252811   0.611  10.655   2.185 -0.9079  2.3550 -0.7500
11607SOL     OW52812  12.803  11.310   9.425  0.1771 -0.3130  0.3745
11607SOL    HW152813  12.835  11.242   9.483 -1.6198  0.0585  1.8859
11607SOL    HW252814  12.828  11.393   9.467 -0.2843 -0.0396  0.1233
11608SOL     OW52815   8.701   4.045  13.242 -0.5866  0.2668 -0.0249
11608SOL    HW152816   8.676   4.132  13.212 -0.1928  0.5864  0.5606
11608SOL    HW252817   8.621   3.992  13.230 -1.5747  1.2577  1.7721
11609SOL     OW52818  13.833   2.630  13.575 -0.6576  0.4039  0.3433
11609SOL    HW152819  13.918   2.591  13.556 -1.2168  0.3041 -2.2984
11609SOL    HW252820  13.769   2.562  13.555 -1.4216  0.4699  2.3124
11610SOL     OW52821  13.482  12.713  10.402 -0.5514  0.1178  0.6359
11610SOL    HW152822  13.390  12.701  10.424 -0.0153 -2.0882  2.0560
11610SOL    HW252823  13.487  12.697  10.308 -1.4593 -1.1751  0.7822
11611SOL     OW52824   8.542   7.958  11.162  0.0344 -0.5223  0.1908
11611SOL    HW152825   8.451   7.944  11.134  0.0119 -0.6523  0.3282
11611SOL    HW252826   8.590   7.972  11.081  0.0498 -1.3354  0.0447
11612SOL     OW52827   4.816   3.373  12.943  0.0134  0.1801 -0.1587
11612SOL    HW152828   4.831   3.410  12.856  0.4233 -0.0133 -0.1738
11612SOL    HW252829   4.805   3.279  12.928 -1.8810  0.3655 -0.2229
11613SOL     OW52830   5.522   5.136  13.677 -0.6919  0.5141 -0.2571
11613SOL    HW152831   5.567   5.204  13.727 -0.4470  0.3554 -0.2588
11613SOL    HW252832   5.571   5.131  13.595 -1.6831  1.4620 -0.9371
11614SOL     OW52833   9.438   3.772   9.379  0.1372  0.5660  0.0576
11614SOL    HW152834   9.437   3.678   9.360  0.5706  0.7281 -0.7947
11614SOL    HW252835   9.497   3.809   9.314  1.1992  1.2325  1.3373
11615SOL     OW52836   1.402   9.053   6.304 -1.4059 -0.0740  0.4944
11615SOL    HW152837   1.412   8.986   6.236  1.6056  0.9791 -0.2801
11615SOL    HW252838   1.381   9.004   6.383 -1.7722 -1.6603 -0.5461
11616SOL     OW52839   8.939   1.676   0.899 -0.0202 -0.2570 -0.4274
11616SOL    HW152840   8.989   1.653   0.977  0.2630 -1.8406 -1.0553
11616SOL    HW252841   8.998   1.660   0.826 -0.1994  1.4450 -1.0091
11617SOL     OW52842  14.108   5.949  11.789 -0.0283 -0.5687  0.7725
11617SOL    HW152843  14.073   6.021  11.841  1.2122  1.1614 -0.6459
11617SOL    HW252844  14.203   5.957  11.798  0.2936  0.2795 -2.2037
11618SOL     OW52845   0.534   3.964   6.375 -0.0544  0.3768 -0.0129
11618SOL    HW152846   0.453   3.973   6.324 -0.9224  0.9618  1.4242
11618SOL    HW252847   0.508   3.912   6.451  1.3060 -0.7904 -0.3049
11619SOL     OW52848   4.310   3.550   7.138  0.1112  0.4244 -0.8137
11619SOL    HW152849   4.272   3.493   7.071 -2.3139 -0.9120  1.4792
11619SOL    HW252850   4.396   3.512   7.157 -0.9422 -1.8205 -0.2306
11620SOL     OW52851   7.138   3.263   8.980  0.3973 -0.0518 -0.1250
11620SOL    HW152852   7.178   3.200   9.040 -0.8207  0.5742  1.4018
11620SOL    HW252853   7.155   3.226   8.893  0.5146 -2.0088  0.6673
11621SOL     OW52854   7.983   0.753  12.840 -0.5277 -0.8942 -0.3356
11621SOL    HW152855   8.045   0.819  12.871 -2.8370  0.6441  1.3780
11621SOL    HW252856   7.957   0.784  12.753  1.1136 -1.6209 -1.1214
11622SOL     OW52857   5.095   7.947   7.321  0.3217 -0.2034 -0.4512
11622SOL    HW152858   5.009   7.990   7.327  0.0010 -0.6880 -1.3041
11622SOL    HW252859   5.137   7.988   7.245  2.0162  1.9916  1.5455
11623SOL     OW52860   8.590   8.635  11.348  0.2509  0.1201  0.1984
11623SOL    HW152861   8.666   8.604  11.397  0.6656  1.4817  0.4557
11623SOL    HW252862   8.541   8.688  11.411 -0.0147  0.6519 -0.4472
11624SOL     OW52863   9.497   6.516   0.086  0.4346 -0.8569 -0.0496
11624SOL    HW152864   9.418   6.465   0.108  1.0487 -0.8221  2.5170
11624SOL    HW252865   9.559   6.495   0.155  2.6577 -0.6895 -1.8744
11625SOL     OW52866  11.839  10.222   7.351  0.1511 -0.2060 -0.1169
11625SOL    HW152867  11.840  10.314   7.326 -0.4685 -0.0905  0.2555
11625SOL    HW252868  11.844  10.223   7.447 -2.7726 -0.4175  0.1228
11626SOL     OW52869   6.774   8.175   7.265 -0.1947  0.2752 -0.0952
11626SOL    HW152870   6.787   8.104   7.328 -1.3062  0.2023  0.0745
11626SOL    HW252871   6.862   8.208   7.247  0.2101 -0.2047  0.9180
11627SOL     OW52872  12.908   6.611  13.234  0.2467  0.0861  0.2509
11627SOL    HW152873  12.925   6.658  13.152 -0.1731  0.5956  0.4496
11627SOL    HW252874  12.956   6.529  13.225 -1.5991 -0.8811 -1.4570
11628SOL     OW52875  13.468   0.732  10.471  0.5435  0.1044 -0.5734
11628SOL    HW152876  13.391   0.769  10.515  0.9821  1.0950 -0.6248
11628SOL    HW252877  13.525   0.704  10.542 -0.9783 -3.2325 -0.4417
11629SOL     OW52878   2.453   9.765  13.563  0.2492  0.1265  0.8561
11629SOL    HW152879   2.530   9.820  13.572  2.0594 -1.8813 -1.0623
11629SOL    HW252880   2.487   9.675  13.561 -1.8534 -0.7893 -1.8288
11630SOL     OW52881   1.508   4.843   1.283  0.4979  0.0804 -0.0586
11630SOL    HW152882   1.511   4.748   1.271  1.1361 -0.0321  0.9032
11630SOL    HW252883   1.572   4.877   1.220  0.4070 -0.1385 -0.2711
11631SOL     OW52884   9.749   8.008   8.594 -0.1817  0.1435 -0.0070
11631SOL    HW152885   9.699   8.083   8.562  0.4494  0.6161  0.0901
11631SOL    HW252886   9.839   8.027   8.568 -0.3901 -2.0854 -2.8404
11632SOL     OW52887  12.308   3.824   1.886  0.3828 -0.0295 -0.1980
11632SOL    HW152888  12.299   3.754   1.950 -3.5964 -0.2777 -0.7843
11632SOL    HW252889  12.325   3.780   1.803 -0.1758 -0.1669 -0.2418
11633SOL     OW52890  13.726   1.295   5.480  0.0328 -0.5008  0.2814
11633SOL    HW152891  13.664   1.242   5.529  0.4024 -1.9376 -0.7355
11633SOL    HW252892  13.718   1.383   5.518 -2.1105 -0.7835  0.6208
11634SOL     OW52893   7.625   4.061  10.567  0.0016 -0.3550 -0.4718
11634SOL    HW152894   7.672   4.139  10.538  0.8255 -1.8280 -3.5210
11634SOL    HW252895   7.692   3.994  10.578 -0.7290 -0.7981  1.6968
11635SOL     OW52896   7.622   6.925   7.060 -0.7821 -0.1148 -0.1543
11635SOL    HW152897   7.705   6.923   7.013 -1.7196  0.2050 -1.9300
11635SOL    HW252898   7.583   7.009   7.036  0.1588  1.7545  4.0298
11636SOL     OW52899   5.897   9.730   3.731  0.1028  0.0020  0.2388
11636SOL    HW152900   5.916   9.814   3.773  1.0103  0.0187 -0.1754
11636SOL    HW252901   5.983   9.694   3.711 -0.2946 -0.1359 -1.3493
11637SOL     OW52902   9.699   8.746  13.842 -0.2688  0.1975 -0.2068
11637SOL    HW152903   9.675   8.656  13.820 -2.0313  0.5629  0.0613
11637SOL    HW252904   9.653   8.763  13.924 -0.6631  1.6069 -0.6943
11638SOL     OW52905   4.109  11.499   4.876 -0.1328  0.4596 -0.4556
11638SOL    HW152906   4.109  11.553   4.798 -0.6878  0.6624 -0.3214
11638SOL    HW252907   4.106  11.409   4.843 -1.7841  0.5661 -0.6807
11639SOL     OW52908   7.706   0.496  10.474 -0.1464  0.2114 -0.0648
11639SOL    HW152909   7.632   0.461  10.425  1.0881 -0.6054 -1.4207
11639SOL    HW252910   7.703   0.452  10.559 -1.2452  0.2494 -0.0800
11640SOL     OW52911  11.872   0.434   5.335 -0.1740  0.7998 -0.0515
11640SOL    HW152912  11.898   0.365   5.395 -1.4956  1.7399  1.6708
11640SOL    HW252913  11.813   0.391   5.273 -0.2630  0.1980  0.4426
11641SOL     OW52914  11.336   9.268   5.383  0.5936 -0.0075  0.6464
11641SOL    HW152915  11.390   9.197   5.347 -0.6305 -0.2748 -0.7571
11641SOL    HW252916  11.246   9.237   5.372 -0.0309  2.1412 -0.9014
11642SOL     OW52917   7.499  11.012  10.092 -0.2078  0.2004 -0.3024
11642SOL    HW152918   7.563  11.062  10.043  2.2815 -2.2003  0.2357
11642SOL    HW252919   7.448  11.078  10.140  1.5891  2.2497 -1.0682
11643SOL     OW52920  11.023  13.773   4.492 -0.4345 -0.7816 -0.7357
11643SOL    HW152921  11.008  13.831   4.417  2.0872 -0.4702 -1.0679
11643SOL    HW252922  11.076  13.701   4.458  0.2490 -0.9584  0.6215
11644SOL     OW52923  13.046   1.420   6.728  0.3938 -0.4342  0.2674
11644SOL    HW152924  12.970   1.475   6.712  1.0066  0.8222  1.4729
11644SOL    HW252925  13.011   1.331   6.733 -0.6016 -0.1901 -1.7293
11645SOL     OW52926   5.757   6.464   8.052 -0.2200 -0.7641 -0.1070
11645SOL    HW152927   5.779   6.421   8.134  1.1127 -1.1292 -0.6172
11645SOL    HW252928   5.838   6.510   8.027 -1.4983  1.9202  0.3041
11646SOL     OW52929   1.394  12.874   8.731  0.2522  0.1794  0.8901
11646SOL    HW152930   1.446  12.804   8.770 -1.8585 -1.0662  1.6543
11646SOL    HW252931   1.332  12.829   8.673  0.7902  1.6975 -0.9888
11647SOL     OW52932   3.368   9.482  13.394 -0.4565  0.2585 -0.5595
11647SOL    HW152933   3.416   9.448  13.469 -1.9216 -0.9163 -0.1267
11647SOL    HW252934   3.322   9.559  13.428 -1.0894 -0.2511 -0.2487
11648SOL     OW52935   4.532   8.769  11.314  0.2622 -0.2123 -0.3512
11648SOL    HW152936   4.556   8.802  11.401 -2.9798  0.7728  0.2922
11648SOL    HW252937   4.523   8.674  11.326  1.5997 -0.3371 -0.1369
11649SOL     OW52938   3.067   7.312   3.558 -0.5756 -0.9600  0.1854
11649SOL    HW152939   3.074   7.217   3.568 -2.1220 -1.0037  1.2591
11649SOL    HW252940   2.988   7.335   3.608 -0.8299  0.7500 -0.9373
11650SOL     OW52941   3.517  13.594  13.773  0.0988  0.1225 -0.1762
11650SOL    HW152942   3.587  13.534  13.746  0.4948  1.1652 -1.5759
11650SOL    HW252943   3.562  13.663  13.822 -0.3227 -0.5423  1.1976
11651SOL     OW52944   9.192   8.699   2.636 -0.6725  0.0783 -0.2950
11651SOL    HW152945   9.195   8.621   2.581  2.2389  0.3198 -0.6005
11651SOL    HW252946   9.264   8.753   2.606 -1.2825  1.9353  1.3408
11652SOL     OW52947   7.944   3.559  11.731  0.1520 -0.2005 -0.1529
11652SOL    HW152948   7.866   3.534  11.781 -0.1651 -1.0716 -1.0334
11652SOL    HW252949   8.015   3.507  11.770 -0.1612 -1.1494 -0.8016
11653SOL     OW52950   9.593  13.026   1.929  0.3004  0.0298  0.3798
11653SOL    HW152951   9.685  13.001   1.930 -0.1140 -2.2487 -2.5917
11653SOL    HW252952   9.588  13.098   1.866  0.1753  1.2586  1.7285
11654SOL     OW52953  11.687  12.751   8.332  0.0728 -0.4608  0.2777
11654SOL    HW152954  11.671  12.687   8.262 -1.9419  0.3088 -0.0030
11654SOL    HW252955  11.700  12.834   8.286  1.7709 -0.4530  0.6980
11655SOL     OW52956   9.659  10.508   5.180  0.6713 -0.1885 -0.0956
11655SOL    HW152957   9.732  10.521   5.120  1.8510  0.3937  1.4188
11655SOL    HW252958   9.700  10.496   5.266 -1.0227  0.7360  0.8958
11656SOL     OW52959  11.975   6.255   6.971 -0.0750  0.0467  0.3006
11656SOL    HW152960  11.942   6.345   6.981  1.8530  0.9447 -0.8065
11656SOL    HW252961  11.903   6.208   6.928 -1.1819  0.9785  1.0492
11657SOL     OW52962   0.834  12.089   6.782  0.2642  0.2334  0.6844
11657SOL    HW152963   0.774  12.019   6.757 -0.2423  0.1853  1.9814
11657SOL    HW252964   0.891  12.099   6.705  0.1125 -1.3295  0.3174
11658SOL     OW52965   1.565  12.275  11.163  0.1613 -0.6700 -0.1090
11658SOL    HW152966   1.633  12.272  11.095  0.3097  0.0260 -0.0081
11658SOL    HW252967   1.614  12.289  11.244 -0.1654  1.9257 -0.2606
11659SOL     OW52968   4.857   5.623   7.080 -0.4469 -0.0599 -0.5349
11659SOL    HW152969   4.858   5.668   6.995 -0.0419  1.1601  0.1042
11659SOL    HW252970   4.848   5.531   7.057  2.8959 -0.1575 -2.0778
11660SOL     OW52971   0.454   0.491   9.910 -0.6023  0.4022 -0.4699
11660SOL    HW152972   0.510   0.542   9.850 -0.8615  0.1607 -0.9235
11660SOL    HW252973   0.389   0.553   9.941  0.1446  0.7819  0.3586
11661SOL     OW52974  10.303   4.855   9.921  0.2016 -0.3434 -0.1087
11661SOL    HW152975  10.221   4.886   9.884 -0.2597 -0.2419  0.9564
11661SOL    HW252976  10.288   4.762   9.938  0.0366 -0.1721  0.7505
11662SOL     OW52977  12.761  12.354   1.749 -0.0696  0.1786  0.1709
11662SOL    HW152978  12.832  12.354   1.686  2.1223 -0.9442  2.4421
11662SOL    HW252979  12.740  12.447   1.762 -0.2260  0.4476 -1.7222
11663SOL     OW52980  12.289  10.452   1.078  0.1063 -0.6645  0.0655
11663SOL    HW152981  12.361  10.411   1.030 -1.1238 -2.4679 -0.3505
11663SOL    HW252982  12.267  10.529   1.027  1.0294 -0.6857 -0.3949
11664SOL     OW52983  13.622  13.872  13.632 -0.3729  0.0595 -0.0719
11664SOL    HW152984  13.661  13.817  13.700 -3.2443  0.8023  2.4216
11664SOL    HW252985  13.597  13.811  13.563 -1.7012 -1.5866  1.7431
11665SOL     OW52986   9.604  13.150   6.823 -0.4646  0.1289 -0.7822
11665SOL    HW152987   9.602  13.110   6.910  0.1770  0.2793 -0.6903
11665SOL    HW252988   9.697  13.161   6.804 -0.6125  1.1126 -1.0186
11666SOL     OW52989   5.446  10.367   1.116 -0.1109  0.0504 -0.1975
11666SOL    HW152990   5.533  10.339   1.089 -1.0826 -1.7222 -1.7243
11666SOL    HW252991   5.393  10.287   1.113 -1.7215  0.9963  1.0756
11667SOL     OW52992   5.069   8.454   7.800  0.9978  0.3946 -0.0010
11667SOL    HW152993   5.059   8.399   7.878  2.1349  0.0982 -0.0535
11667SOL    HW252994   5.116   8.531   7.831  0.6242  0.7110 -0.2126
11668SOL     OW52995   3.922   6.909  12.666 -0.3861  0.2358  0.0993
11668SOL    HW152996   4.014   6.883  12.678 -0.2380  1.0625  0.8440
11668SOL    HW252997   3.927   6.997  12.629 -0.8792  0.1875 -0.0824
11669SOL     OW52998   8.805  13.991   5.613 -0.0491  0.0292  0.0607
11669SOL    HW152999   8.777  13.914   5.663  0.8564 -0.0821  0.4127
11669SOL    HW253000   8.792  13.966   5.521 -0.4813 -0.2536  0.1950
11670SOL     OW53001   1.016   5.026   1.259 -0.4943 -0.2452 -0.3381
11670SOL    HW153002   0.989   4.942   1.295 -0.9239  0.2681  0.5765
11670SOL    HW253003   1.109   5.033   1.279 -0.4572 -0.5063 -0.4241
11671SOL     OW53004   4.194   9.544   8.638 -0.4195 -0.1481 -0.5410
11671SOL    HW153005   4.233   9.532   8.551 -2.5829  0.6298 -1.6961
11671SOL    HW253006   4.173   9.456   8.667  0.0550 -0.3962 -0.9238
11672SOL     OW53007   4.004   7.291  11.225 -0.0032  0.4789  0.9081
11672SOL    HW153008   4.026   7.200  11.242 -2.0195 -0.1175  0.5225
11672SOL    HW253009   3.913   7.300  11.251 -0.1586  2.1255 -0.0261
11673SOL     OW53010  11.695   3.278  13.390 -0.1710  0.1432  0.1184
11673SOL    HW153011  11.683   3.193  13.347 -0.2620 -0.5128  1.3707
11673SOL    HW253012  11.653   3.341  13.331  1.1124 -0.4588 -1.5184
11674SOL     OW53013  10.145   5.885   3.662  0.1824 -0.5227 -0.6765
11674SOL    HW153014  10.231   5.874   3.704  0.3605  2.3463 -0.0973
11674SOL    HW253015  10.084   5.844   3.724  0.9885 -1.3852 -0.4247
11675SOL     OW53016   2.675  13.430   8.867  0.1824  0.4317 -0.1518
11675SOL    HW153017   2.758  13.382   8.865 -0.2630 -0.3524 -0.5561
11675SOL    HW253018   2.700  13.522   8.862  1.0304  0.2062 -0.1781
11676SOL     OW53019  11.096  12.694   3.487  0.1451 -0.3040  0.0220
11676SOL    HW153020  11.033  12.766   3.490  1.4755  0.9254  0.0248
11676SOL    HW253021  11.175  12.730   3.529  1.6104 -0.9659 -2.0154
11677SOL     OW53022   5.588  13.545   1.373  0.4103  0.2281 -1.1360
11677SOL    HW153023   5.656  13.577   1.315  1.1589  0.8044  0.0292
11677SOL    HW253024   5.634  13.519   1.453 -0.3535 -2.3460 -1.4551
11678SOL     OW53025  11.806  12.829   2.307 -0.4244 -0.4455 -0.0341
11678SOL    HW153026  11.836  12.769   2.375 -1.5214  0.4060  1.2701
11678SOL    HW253027  11.886  12.854   2.260  0.2152 -1.8726  0.2506
11679SOL     OW53028   6.674   9.301   6.584  0.2443  0.3502  0.0994
11679SOL    HW153029   6.678   9.212   6.621 -0.2255  0.5555  0.6577
11679SOL    HW253030   6.621   9.350   6.646  1.6017  1.3756  0.4899
11680SOL     OW53031   0.727   9.523   6.737 -0.4679 -0.6136  0.2434
11680SOL    HW153032   0.785   9.520   6.813  1.3546  0.8827 -0.9818
11680SOL    HW253033   0.763   9.457   6.677  0.6590  0.9372 -0.8949
11681SOL     OW53034   3.664  10.018  13.569 -0.3330 -0.0173 -0.1264
11681SOL    HW153035   3.581  10.057  13.597 -0.0061  0.3291  0.3806
11681SOL    HW253036   3.640   9.934  13.530 -0.9597  0.2729 -0.3775
11682SOL     OW53037   3.548   9.654   5.433  0.3784 -0.2502 -0.1161
11682SOL    HW153038   3.477   9.591   5.416 -0.0874  0.2318  0.0290
11682SOL    HW253039   3.517   9.705   5.508  0.5552  0.4510 -0.5156
11683SOL     OW53040  10.339  13.259  11.447 -0.3410  0.4912  0.1799
11683SOL    HW153041  10.314  13.335  11.498 -2.5929  0.5432 -0.8542
11683SOL    HW253042  10.256  13.226  11.411  0.5931 -2.2175  0.2687
11684SOL     OW53043   2.028  13.035   5.594 -0.7526  0.8354  0.3053
11684SOL    HW153044   1.956  13.000   5.541  0.6374  1.1878 -1.9551
11684SOL    HW253045   2.017  13.130   5.589 -0.9368  0.8672  1.1756
11685SOL     OW53046   8.819   5.321  11.398  0.2235  0.0747 -0.2611
11685SOL    HW153047   8.792   5.286  11.313 -0.9347  1.3611 -0.4660
11685SOL    HW253048   8.758   5.283  11.460 -0.1059  0.5627 -0.2792
11686SOL     OW53049   9.449  10.448   7.585  0.3441 -0.4717  0.2410
11686SOL    HW153050   9.529  10.452   7.534  0.6959  0.0162  0.8202
11686SOL    HW253051   9.436  10.355   7.602  0.6381 -0.5742 -0.0819
11687SOL     OW53052   1.647   9.017   2.984  0.0652  0.5804  0.8094
11687SOL    HW153053   1.664   8.961   3.060 -3.2980 -1.2597  0.3555
11687SOL    HW253054   1.682   8.968   2.910 -0.0971  0.5726  0.7396
11688SOL     OW53055  11.919  13.810  13.726  0.6255  0.2499 -0.0298
11688SOL    HW153056  11.908  13.781  13.817 -1.1101  0.3189 -0.1978
11688SOL    HW253057  11.894  13.903  13.727 -0.1699  0.0518 -0.7143
11689SOL     OW53058   2.351   0.102  10.742 -0.5918  0.0070 -0.7443
11689SOL    HW153059   2.398   0.058  10.813 -1.1156 -0.0864 -0.4490
11689SOL    HW253060   2.380   0.193  10.747 -0.3902 -0.0622 -0.6109
11690SOL     OW53061  11.684   9.672   1.146 -0.0045  0.3199  0.6519
11690SOL    HW153062  11.653   9.666   1.237  1.5661 -0.1672  1.1898
11690SOL    HW253063  11.772   9.708   1.154  0.4449 -0.4700 -0.6241
11691SOL     OW53064  13.644  12.631   9.473 -0.1101 -0.1265  0.0347
11691SOL    HW153065  13.641  12.614   9.379  0.1127 -0.8201  0.1537
11691SOL    HW253066  13.579  12.701   9.486  0.4849  0.5983 -0.7625
11692SOL     OW53067   9.142   8.098   2.173  0.1957 -0.3204  0.9264
11692SOL    HW153068   9.230   8.063   2.158 -0.2206 -0.4073 -1.7036
11692SOL    HW253069   9.088   8.021   2.189  0.5279 -0.2721  2.4697
11693SOL     OW53070  13.619   6.315  13.511  0.1090  0.3020  0.0252
11693SOL    HW153071  13.617   6.292  13.604  0.1239 -0.2762 -0.1170
11693SOL    HW253072  13.556   6.256  13.470 -0.5394  1.1423 -0.2117
11694SOL     OW53073   0.339   4.608   7.874 -0.1267  0.0132 -0.1220
11694SOL    HW153074   0.396   4.610   7.951  0.4904  0.1008 -0.5633
11694SOL    HW253075   0.262   4.559   7.901  0.1242 -0.0267  0.5253
11695SOL     OW53076  14.007  11.258   4.487  0.1491 -0.4451  0.1434
11695SOL    HW153077  13.960  11.325   4.437  0.7292 -0.2110 -0.0911
11695SOL    HW253078  14.052  11.205   4.421 -0.9578 -1.5889  0.2625
11696SOL     OW53079  11.650  10.555  11.538  0.6892  0.5094  0.0679
11696SOL    HW153080  11.717  10.605  11.585  1.3706 -0.9119  0.6730
11696SOL    HW253081  11.686  10.543  11.450  0.3023  1.4753 -0.2333
11697SOL     OW53082   8.363  13.149   0.066  0.2324 -0.0450  0.5277
11697SOL    HW153083   8.304  13.156   0.141  0.1113 -0.0680  0.4348
11697SOL    HW253084   8.417  13.228   0.071 -0.6262  0.6055 -0.0875
11698SOL     OW53085   7.735   9.191  11.229  0.7289 -0.3585  0.2033
11698SOL    HW153086   7.807   9.174  11.168 -0.0424  0.5538 -0.9988
11698SOL    HW253087   7.752   9.279  11.262 -0.4180  0.3221 -0.9597
11699SOL     OW53088   3.934   0.071   9.462  0.4404 -0.5772 -0.2147
11699SOL    HW153089   4.016   0.022   9.461  0.7874 -0.1622  2.1228
11699SOL    HW253090   3.956   0.153   9.505 -1.3325 -0.7474  1.1188
11700SOL     OW53091   5.765   2.339   9.435  0.2381 -0.2954 -0.1719
11700SOL    HW153092   5.838   2.296   9.390  0.4829 -0.5405  0.4486
11700SOL    HW253093   5.775   2.312   9.526 -0.0168  0.5177  0.0980
11701SOL     OW53094   6.562  12.635   8.374 -0.2854 -0.1826  0.4614
11701SOL    HW153095   6.573  12.668   8.463 -5.3481  0.0137  1.2822
11701SOL    HW253096   6.556  12.714   8.320  0.5632 -0.2407  0.2686
11702SOL     OW53097   6.931   3.598   9.757  0.2404 -0.2401  0.3471
11702SOL    HW153098   7.027   3.601   9.760  0.2756 -1.6890  1.5088
11702SOL    HW253099   6.906   3.678   9.710  2.0406 -0.1910 -0.6088
11703SOL     OW53100   8.194   6.828   2.035 -0.1602 -0.0814  0.0745
11703SOL    HW153101   8.208   6.748   1.983 -0.3675 -1.0517  1.4599
11703SOL    HW253102   8.110   6.862   2.005 -1.2311 -1.6987  1.0435
11704SOL     OW53103   8.729  13.292   8.571  0.6266 -0.0206 -0.0970
11704SOL    HW153104   8.722  13.350   8.646 -0.0157  0.9198 -0.8592
11704SOL    HW253105   8.700  13.206   8.603 -0.8217  0.6437  0.4239
11705SOL     OW53106   5.626   4.745   9.647  0.4489  0.4296 -0.3837
11705SOL    HW153107   5.633   4.823   9.592  2.3680  0.8548  0.3641
11705SOL    HW253108   5.608   4.778   9.735  1.2719  0.0492 -0.0607
11706SOL     OW53109   8.677  13.862   8.801  0.2449 -0.4383  0.2610
11706SOL    HW153110   8.637  13.894   8.882 -1.0619 -1.2171 -0.0446
11706SOL    HW253111   8.642  13.919   8.733 -0.3200 -1.0935 -0.0073
11707SOL     OW53112  13.724   3.872   6.700  0.1370 -0.0459  0.0698
11707SOL    HW153113  13.767   3.802   6.651 -1.8557 -0.4625 -1.1836
11707SOL    HW253114  13.714   3.835   6.788 -0.6887 -1.2860 -0.5161
11708SOL     OW53115   3.555   8.306   9.535 -0.0415 -0.2044 -0.0071
11708SOL    HW153116   3.603   8.346   9.608 -0.1139 -0.4714  0.1869
11708SOL    HW253117   3.480   8.263   9.576 -0.2554 -0.0904 -0.2744
11709SOL     OW53118  14.145   8.548   2.030 -0.3050 -0.2838  0.2230
11709SOL    HW153119  14.125   8.587   1.946  0.0134  2.4468  1.3271
11709SOL    HW253120  14.059   8.528   2.068 -0.4758 -0.5704 -0.3010
11710SOL     OW53121   9.937   9.450  12.634 -0.0584 -0.1951 -0.1179
11710SOL    HW153122   9.955   9.543  12.620 -0.8317  0.1581  1.1290
11710SOL    HW253123   9.996   9.424  12.704  2.0645 -1.3532 -2.2010
11711SOL     OW53124   2.976  10.666  13.835 -0.2889  0.6171  0.5045
11711SOL    HW153125   2.906  10.605  13.860 -0.2022  0.3494  0.1127
11711SOL    HW253126   2.940  10.716  13.762  0.2807 -0.2360 -0.3861
11712SOL     OW53127   0.217   7.550   9.462 -0.5021  0.1806 -1.0929
11712SOL    HW153128   0.161   7.625   9.440  0.8202  1.2328 -0.9651
11712SOL    HW253129   0.265   7.531   9.382  0.4662  0.6298 -0.6305
11713SOL     OW53130   9.890  12.452  13.008  0.0558 -0.3162 -0.2247
11713SOL    HW153131   9.960  12.517  13.001  0.1209 -0.4018 -0.3637
11713SOL    HW253132   9.881  12.437  13.102  0.5683 -0.6755 -0.2284
11714SOL     OW53133  11.244   4.616  14.146  0.0514  0.1288  0.8272
11714SOL    HW153134  11.279   4.687  14.091  0.2068 -0.3921  0.2433
11714SOL    HW253135  11.149   4.629  14.143  0.1393  1.3999  2.2223
11715SOL     OW53136   0.305   8.397  11.531  0.3687 -0.3721  0.4223
11715SOL    HW153137   0.292   8.439  11.616  1.7787  1.4358 -0.1932
11715SOL    HW253138   0.312   8.469  11.469  1.2358 -1.5864 -0.9513
11716SOL     OW53139   6.072   0.216   2.281  0.7595  0.1463 -0.3141
11716SOL    HW153140   6.030   0.230   2.196 -1.5408 -1.0564  0.5236
11716SOL    HW253141   6.166   0.216   2.262  0.3564  1.1844 -2.6218
11717SOL     OW53142   9.236  12.267   8.093 -0.0165  0.1099 -0.1626
11717SOL    HW153143   9.246  12.340   8.032  0.1169 -0.3184 -0.6510
11717SOL    HW253144   9.304  12.282   8.159  2.6305 -1.6377 -2.3085
11718SOL     OW53145   5.088   9.423  10.570 -0.4899 -0.6092 -0.3257
11718SOL    HW153146   5.157   9.375  10.523 -0.3106  1.6059 -2.5139
11718SOL    HW253147   5.023   9.444  10.503 -1.7369  0.1193  1.0533
11719SOL     OW53148  10.438   8.556  11.270  0.4264 -0.5107 -0.4789
11719SOL    HW153149  10.389   8.626  11.314 -0.1064 -0.0002 -1.8060
11719SOL    HW253150  10.494   8.602  11.207  0.5630 -1.2391 -0.9033
11720SOL     OW53151   9.642   0.054   0.425  0.0981 -0.4413  0.0628
11720SOL    HW153152   9.694   0.106   0.486 -0.8761 -0.8045  1.2464
11720SOL    HW253153   9.706   0.020   0.363  1.2655 -0.7713  1.3879
11721SOL     OW53154  11.949   8.196   8.379  0.1239  0.6219 -0.0505
11721SOL    HW153155  11.978   8.146   8.455 -0.9700 -0.8529 -0.5533
11721SOL    HW253156  12.029   8.237   8.346  0.8833  0.0617  1.0158
11722SOL     OW53157  11.388   4.427   6.420  0.0108  0.1929 -0.3503
11722SOL    HW153158  11.368   4.456   6.509 -0.9390  0.5630 -0.6623
11722SOL    HW253159  11.302   4.405   6.383  0.0903  2.2951 -1.9468
11723SOL     OW53160  12.113   2.234   1.079 -0.2908  0.0674  0.3677
11723SOL    HW153161  12.088   2.165   1.018  0.8957  0.6883 -0.8605
11723SOL    HW253162  12.172   2.291   1.030 -0.7179  1.6192  1.5333
11724SOL     OW53163   6.654   7.648   9.490 -0.1871 -0.0665 -0.5716
11724SOL    HW153164   6.675   7.638   9.397 -1.0030  4.9226 -1.5397
11724SOL    HW253165   6.559   7.660   9.492 -0.0737  0.8028  0.8010
11725SOL     OW53166  10.922   4.044   2.586  0.3844  0.1755 -0.3876
11725SOL    HW153167  10.914   3.976   2.519  0.5461 -0.8368  0.5972
11725SOL    HW253168  10.926   3.996   2.669 -2.2961  1.4453  0.6000
11726SOL     OW53169   5.511   7.199   2.002  0.2102  0.1034  0.1509
11726SOL    HW153170   5.582   7.143   1.969  1.3542  0.6265  1.6129
11726SOL    HW253171   5.431   7.149   1.985  0.9379 -0.6430 -1.2621
11727SOL     OW53172   2.330   6.103   3.906  0.3547 -0.2219 -0.0283
11727SOL    HW153173   2.255   6.101   3.846 -0.1087  1.4874  0.4423
11727SOL    HW253174   2.308   6.038   3.973 -2.0410  1.9984  1.5391
11728SOL     OW53175   4.820   9.717   8.686  0.4999 -0.2810 -0.0285
11728SOL    HW153176   4.792   9.661   8.758  1.2221 -0.8244 -0.1591
11728SOL    HW253177   4.741   9.733   8.635  0.4090 -1.7644 -0.3797
11729SOL     OW53178   9.734   8.963   4.439 -0.2830 -0.5635 -0.3252
11729SOL    HW153179   9.778   8.878   4.427 -0.5656 -0.7415 -0.0919
11729SOL    HW253180   9.799   9.027   4.409 -0.3614 -0.9058 -1.2666
11730SOL     OW53181   3.547   3.247  12.194 -0.1739 -0.1739 -0.1975
11730SOL    HW153182   3.601   3.321  12.223 -0.8056 -0.1745  1.0719
11730SOL    HW253183   3.470   3.287  12.154 -0.6019 -0.1260  0.6544
11731SOL     OW53184   7.959   1.219   3.252  0.0623 -0.6449 -0.3653
11731SOL    HW153185   8.024   1.217   3.323  0.6415  0.1167 -0.8658
11731SOL    HW253186   7.876   1.204   3.296  0.4398 -0.4009  0.4546
11732SOL     OW53187   6.133  11.309  11.678 -0.0303 -0.0791 -0.0461
11732SOL    HW153188   6.117  11.400  11.655 -0.4443 -0.4435 -1.2839
11732SOL    HW253189   6.146  11.310  11.772 -0.6744  1.1700  0.0489
11733SOL     OW53190   6.253   1.524   9.072  0.3118  0.7667  0.0842
11733SOL    HW153191   6.303   1.603   9.095 -0.0427  0.9646  0.1854
11733SOL    HW253192   6.164   1.544   9.099  0.3820 -0.0149  0.9203
11734SOL     OW53193   6.456   7.791  10.401 -0.4557 -0.4400 -0.5960
11734SOL    HW153194   6.447   7.879  10.438  0.0456  0.2736 -2.0749
11734SOL    HW253195   6.442   7.804  10.307 -1.8716 -2.1958 -0.6730
11735SOL     OW53196   6.652   9.840   7.920  0.3066  0.4503  0.2173
11735SOL    HW153197   6.712   9.914   7.910  1.2514 -0.5196 -2.5049
11735SOL    HW253198   6.676   9.781   7.848 -1.1969 -1.9472  1.5468
11736SOL     OW53199  13.322  12.084   6.527  0.2636  0.6838  0.0564
11736SOL    HW153200  13.269  12.152   6.567 -1.4452 -0.7436  0.3618
11736SOL    HW253201  13.331  12.017   6.595  3.6109  1.3850  0.4592
11737SOL     OW53202   1.426   7.843   4.888  0.2611  0.0680 -0.2033
11737SOL    HW153203   1.434   7.920   4.832 -1.2612 -1.0041 -2.0497
11737SOL    HW253204   1.461   7.870   4.972  0.3961  2.5536 -0.9791
11738SOL     OW53205   3.625   2.547   3.077  0.0513 -0.4649  0.0968
11738SOL    HW153206   3.535   2.515   3.067 -0.3459  0.3294  0.9306
11738SOL    HW253207   3.626   2.631   3.030 -0.0823  0.2384  1.2919
11739SOL     OW53208   9.164   4.427  12.716  0.2266 -0.0609  0.4073
11739SOL    HW153209   9.094   4.492  12.707 -0.6026 -1.1162 -1.1235
11739SOL    HW253210   9.231   4.472  12.768 -1.0690  1.3842  0.9172
11740SOL     OW53211   1.874   1.301   3.048 -0.5210  0.4138  0.7531
11740SOL    HW153212   1.842   1.220   3.087 -0.1029  0.3237  0.9201
11740SOL    HW253213   1.808   1.325   2.984 -0.5132 -0.2133  0.5000
11741SOL     OW53214  10.760   3.394  12.577  0.6312  0.0934  0.2520
11741SOL    HW153215  10.696   3.462  12.599  0.4248  0.4864 -1.4737
11741SOL    HW253216  10.710   3.313  12.574  0.1803  0.4098 -1.1534
11742SOL     OW53217   4.645  11.489   7.546 -0.2185  0.0004  0.1402
11742SOL    HW153218   4.647  11.416   7.607  0.3701 -0.0003  0.1339
11742SOL    HW253219   4.564  11.536   7.565  0.1105  0.1779  1.1335
11743SOL     OW53220  10.469   9.841   2.852  0.0096  0.2277 -0.2355
11743SOL    HW153221  10.438   9.932   2.856 -1.5100 -0.1886 -1.3140
11743SOL    HW253222  10.564   9.848   2.852 -0.0772  1.8184 -0.1014
11744SOL     OW53223   3.928   6.056   5.331 -0.3811  0.4255  0.2166
11744SOL    HW153224   3.887   6.062   5.417 -0.1227  1.2372  0.2915
11744SOL    HW253225   3.989   6.130   5.328  2.1152 -1.4627  0.6378
11745SOL     OW53226  10.261   9.120  11.216  0.0987  0.0960  0.4644
11745SOL    HW153227  10.247   9.075  11.133  1.8865 -0.0805  0.2259
11745SOL    HW253228  10.232   9.210  11.200 -0.6430 -0.2083  0.0241
11746SOL     OW53229   5.031  13.984   0.743  0.0872 -0.2499 -0.7121
11746SOL    HW153230   5.024  13.890   0.730  1.3801 -0.2290 -1.7278
11746SOL    HW253231   5.124  14.001   0.752 -0.2583  0.6876  1.7488
11747SOL     OW53232   6.624  11.894   2.918  0.3321  0.1287  0.2837
11747SOL    HW153233   6.642  11.855   2.832  0.1092 -2.9939  1.5413
11747SOL    HW253234   6.698  11.868   2.972 -0.5187  0.2566  1.5577
11748SOL     OW53235  12.415  10.419  13.752 -0.0129 -0.1979 -0.0859
11748SOL    HW153236  12.329  10.409  13.710  0.4641 -1.8500 -0.7351
11748SOL    HW253237  12.399  10.400  13.844 -0.5643  0.7983  0.0442
11749SOL     OW53238   4.932   0.976   6.464  0.3514 -0.0183 -0.4943
11749SOL    HW153239   4.867   0.932   6.408 -1.2709  1.4658  0.1175
11749SOL    HW253240   5.010   0.983   6.408 -0.3155 -0.9754 -1.6106
11750SOL     OW53241  13.712   3.338  11.374 -0.3248  0.7114 -0.4049
11750SOL    HW153242  13.751   3.294  11.450 -2.9692 -1.2672 -0.0349
11750SOL    HW253243  13.738   3.283  11.299 -0.3451  0.8221 -0.4931
11751SOL     OW53244  11.586  14.002  12.580  0.8313 -0.1624 -0.0414
11751SOL    HW153245  11.671  14.030  12.614  1.0239 -0.4635 -0.2712
11751SOL    HW253246  11.607  13.954  12.500  0.3125  1.2965 -1.0817
11752SOL     OW53247   6.022  11.487   4.151  0.0459  0.4781  0.2503
11752SOL    HW153248   5.985  11.447   4.230  0.9291 -0.3182  0.2783
11752SOL    HW253249   6.063  11.568   4.182 -1.1810  1.1013  0.3001
11753SOL     OW53250   0.040  10.151   0.725 -0.7022  0.6373 -0.1077
11753SOL    HW153251  -0.021  10.080   0.709 -1.1197  1.0689 -0.4595
11753SOL    HW253252   0.084  10.127   0.806  0.6224 -1.0147 -1.2542
11754SOL     OW53253  10.718   0.275   8.359  0.3672 -0.2616 -0.0528
11754SOL    HW153254  10.784   0.274   8.428  1.3334 -0.8495 -0.9591
11754SOL    HW253255  10.636   0.299   8.404  0.9192 -0.8694  1.3248
11755SOL     OW53256   0.119   5.301  14.103  0.0146 -0.1463 -0.5129
11755SOL    HW153257   0.097   5.390  14.075  0.1266  0.5228  1.3691
11755SOL    HW253258   0.164   5.263  14.027  0.6547  1.6707 -1.1125
11756SOL     OW53259   7.246   4.148   2.607  0.7343 -0.0213 -0.7337
11756SOL    HW153260   7.201   4.106   2.534  2.2449 -0.3975 -1.4890
11756SOL    HW253261   7.309   4.208   2.566  2.5484 -1.2081  0.1675
11757SOL     OW53262   8.561   3.477  12.460  0.2052 -0.3575 -0.4630
11757SOL    HW153263   8.619   3.534  12.409  2.5347 -3.2020 -1.2359
11757SOL    HW253264   8.474   3.492  12.424  0.2085  4.0762  0.7111
11758SOL     OW53265   1.558   9.937  11.131  0.4168 -0.2049  0.1291
11758SOL    HW153266   1.569   9.965  11.040  0.5670 -0.5177  0.0476
11758SOL    HW253267   1.463   9.938  11.145  0.0602 -3.3819 -1.1168
11759SOL     OW53268  14.133   6.549  11.024 -0.4043 -0.7521  0.8246
11759SOL    HW153269  14.042   6.580  11.018 -0.6306 -1.5940 -0.5697
11759SOL    HW253270  14.131   6.461  10.986  1.2478 -0.2409 -0.5821
11760SOL     OW53271   6.852  10.644  13.765 -0.3797 -0.3524  0.1685
11760SOL    HW153272   6.862  10.550  13.774  2.6543 -0.2536 -0.8814
11760SOL    HW253273   6.760  10.658  13.742 -1.2894 -2.8562  1.9244
11761SOL     OW53274   0.335   9.804   2.300  0.0319  0.1580  0.0944
11761SOL    HW153275   0.430   9.813   2.291  0.2902 -0.6715  1.6489
11761SOL    HW253276   0.311   9.870   2.366 -0.1356 -0.9657  1.1994
11762SOL     OW53277   1.003   4.740   9.906 -0.2733  0.3663 -1.0478
11762SOL    HW153278   0.961   4.675   9.850  0.3866 -1.5712  0.5713
11762SOL    HW253279   0.944   4.747   9.982 -0.2030  1.4985 -1.0863
11763SOL     OW53280  10.310  13.387  12.184  0.9224  0.0459 -0.2793
11763SOL    HW153281  10.327  13.459  12.246 -0.9290  1.0551 -0.8721
11763SOL    HW253282  10.230  13.346  12.217  0.9783 -0.6146 -0.9630
11764SOL     OW53283  13.775   3.167   7.375  0.4584 -0.3534  0.2215
11764SOL    HW153284  13.720   3.216   7.314  0.5598  1.2787  1.3832
11764SOL    HW253285  13.834   3.117   7.319 -2.3005 -2.4342 -1.1104
11765SOL     OW53286  12.262   0.426   0.493  0.2938 -0.9271  0.1263
11765SOL    HW153287  12.244   0.468   0.409 -3.1968 -2.6525 -0.1669
11765SOL    HW253288  12.269   0.333   0.473 -1.0801 -1.4372  1.7412
11766SOL     OW53289   4.429  14.042   8.288 -0.6483  0.2575  0.6366
11766SOL    HW153290   4.366  14.010   8.352 -0.8694 -0.0062  0.2964
11766SOL    HW253291   4.469  14.119   8.329 -1.1092  0.3598  0.9039
11767SOL     OW53292   3.931   2.238   1.204  0.2733  0.0274  0.2336
11767SOL    HW153293   4.014   2.229   1.158 -0.9263  0.9894 -2.2661
11767SOL    HW253294   3.885   2.156   1.188  0.6869 -0.4974  1.5992
11768SOL     OW53295   8.248   7.908   4.448 -0.3435 -0.4448 -0.0369
11768SOL    HW153296   8.274   7.878   4.535  0.7448  0.5181 -0.0061
11768SOL    HW253297   8.326   7.895   4.394 -0.1180  1.3950 -0.2271
11769SOL     OW53298  12.432  12.168   6.274 -0.3291  0.0978  0.7749
11769SOL    HW153299  12.488  12.245   6.268  1.3052 -1.0653  0.6094
11769SOL    HW253300  12.481  12.106   6.327 -1.2452 -1.1310  0.2356
11770SOL     OW53301  10.660   7.624   8.032 -0.1989 -0.9037 -0.4173
11770SOL    HW153302  10.719   7.578   8.092 -0.7517 -0.5105  0.4476
11770SOL    HW253303  10.615   7.553   7.984  0.8809 -1.2039 -1.0172
11771SOL     OW53304   9.191  10.998   2.425 -0.0058  0.1212  0.3506
11771SOL    HW153305   9.271  11.000   2.478  0.2845  0.6962 -0.0989
11771SOL    HW253306   9.202  10.921   2.369  0.8239  0.8806 -0.5813
11772SOL     OW53307   4.740   1.801  13.279 -0.0984 -0.5578 -0.4199
11772SOL    HW153308   4.709   1.740  13.212  1.0380 -0.0441 -1.4842
11772SOL    HW253309   4.729   1.888  13.239 -0.4873 -0.1509  0.5419
11773SOL     OW53310  12.319   9.434   6.264 -0.1717 -0.1200  0.0823
11773SOL    HW153311  12.326   9.429   6.168 -2.5478  0.6769 -0.1971
11773SOL    HW253312  12.240   9.486   6.279  0.4854  0.2742  2.5042
11774SOL     OW53313   1.965   2.819   7.521  0.5988 -0.2871 -0.2635
11774SOL    HW153314   1.878   2.817   7.482  0.8227 -0.4546 -0.7656
11774SOL    HW253315   1.952   2.792   7.612  0.1649 -0.5375 -0.3983
11775SOL     OW53316   9.191  13.294   9.702  0.0355  0.4826 -0.3207
11775SOL    HW153317   9.249  13.285   9.627  0.7113  0.5984  0.1749
11775SOL    HW253318   9.250  13.313   9.775 -0.7320  1.9272 -0.0413
11776SOL     OW53319   5.340  12.000   4.696 -0.0950 -0.3239 -0.0407
11776SOL    HW153320   5.251  12.031   4.679 -0.2523 -1.3775 -1.3166
11776SOL    HW253321   5.338  11.907   4.674  1.3988 -0.3037 -0.4104
11777SOL     OW53322  11.408  12.586  13.491 -0.3567  0.1806  0.0181
11777SOL    HW153323  11.327  12.558  13.447  0.1510  0.0328 -0.8319
11777SOL    HW253324  11.380  12.606  13.581 -1.5157  0.9508 -0.4792
11778SOL     OW53325  12.067   1.849  11.357  0.4951 -0.1503 -0.5682
11778SOL    HW153326  12.159   1.866  11.377  0.5155  0.0045 -0.8047
11778SOL    HW253327  12.066   1.759  11.325  0.6090 -0.0420 -0.8758
11779SOL     OW53328  12.122   5.573   8.975  0.1634  0.0225  0.3910
11779SOL    HW153329  12.212   5.584   9.005  0.6463 -0.6875 -0.7264
11779SOL    HW253330  12.129   5.517   8.897 -1.1440  0.7429 -0.2825
11780SOL     OW53331   7.774   2.884   8.756  0.7543 -0.2247  0.5073
11780SOL    HW153332   7.786   2.830   8.834 -1.8085 -2.2428 -0.3716
11780SOL    HW253333   7.847   2.947   8.759  0.9205 -0.3738  4.3284
11781SOL     OW53334   9.771  11.340   5.195  0.9627 -1.0653  0.0448
11781SOL    HW153335   9.717  11.265   5.169  0.6439 -0.8538  0.0869
11781SOL    HW253336   9.817  11.312   5.273  1.6123 -1.5681 -0.5129
11782SOL     OW53337   6.671  13.450  13.413  0.6258 -0.5316  0.2090
11782SOL    HW153338   6.689  13.535  13.372  1.0933 -0.0637  1.3267
11782SOL    HW253339   6.753  13.402  13.403  0.7506 -0.4048  0.5971
11783SOL     OW53340  11.353   3.331   3.282 -0.0335 -0.5669 -0.0155
11783SOL    HW153341  11.384   3.244   3.307 -2.2877 -0.9301  1.8624
11783SOL    HW253342  11.337   3.376   3.365 -0.5414  1.0345 -0.9408
11784SOL     OW53343   4.288   8.118   4.102 -0.2379 -0.5735 -0.0648
11784SOL    HW153344   4.291   8.148   4.192  1.7075 -2.0082  0.4146
11784SOL    HW253345   4.277   8.023   4.108  3.0139 -1.1354 -1.1444
11785SOL     OW53346  11.612   3.132   4.706 -0.1615  0.0132 -0.2880
11785SOL    HW153347  11.639   3.186   4.632  0.3992  0.5735  0.3127
11785SOL    HW253348  11.538   3.179   4.744  1.3615  1.3116  1.2510
11786SOL     OW53349   0.530   5.217   5.867 -0.0278  0.2637 -0.2167
11786SOL    HW153350   0.445   5.258   5.850 -0.6358 -0.5916  0.6731
11786SOL    HW253351   0.592   5.290   5.873 -0.1895  0.8183 -3.3965
11787SOL     OW53352   7.666  11.858   3.187 -0.2417  0.4349 -0.7302
11787SOL    HW153353   7.608  11.793   3.228  0.2570  0.4599  0.0475
11787SOL    HW253354   7.744  11.808   3.164  0.3917  0.8521  0.4244
11788SOL     OW53355   7.537  13.633   2.308 -0.3809 -0.3717  0.1177
11788SOL    HW153356   7.448  13.663   2.328 -0.7127 -1.6168  0.6271
11788SOL    HW253357   7.541  13.631   2.213 -0.1266  1.8329  0.0362
11789SOL     OW53358   3.420   1.141   7.240  0.1879 -0.2524  0.2544
11789SOL    HW153359   3.483   1.075   7.212 -1.4221 -1.8990  0.3274
11789SOL    HW253360   3.335   1.099   7.229 -1.0464  2.3864 -1.2513
11790SOL     OW53361  13.459   9.239  13.251 -0.1370 -0.3357  0.7459
11790SOL    HW153362  13.453   9.319  13.198 -1.0696  1.0297  2.7924
11790SOL    HW253363  13.435   9.267  13.339  0.1104 -2.7818  1.6562
11791SOL     OW53364  11.479   5.059  10.984 -0.3336  0.4047  0.0173
11791SOL    HW153365  11.524   5.126  10.932 -0.5284 -0.6908 -1.6389
11791SOL    HW253366  11.526   4.978  10.964 -2.0919 -0.5160 -0.6207
11792SOL     OW53367   5.347   1.204  12.817  0.1461  0.0778  0.5960
11792SOL    HW153368   5.431   1.185  12.859  1.0482 -0.7315 -1.4141
11792SOL    HW253369   5.319   1.121  12.779 -0.6943  0.7050 -0.2310
11793SOL     OW53370   5.447   4.269   0.202  0.4077 -0.1219 -0.0189
11793SOL    HW153371   5.475   4.344   0.150 -3.3779  1.0199 -0.7088
11793SOL    HW253372   5.393   4.306   0.271  0.7333 -2.0825  1.3822
11794SOL     OW53373  11.342   6.627  12.438 -0.1637  0.0464  0.1888
11794SOL    HW153374  11.278   6.615  12.508  1.3273 -1.1888  1.3924
11794SOL    HW253375  11.389   6.707  12.462  0.0542 -0.1339  0.3641
11795SOL     OW53376  12.826   6.190   3.403  0.5659 -0.0955  0.0395
11795SOL    HW153377  12.753   6.130   3.399 -0.0094  0.5367  0.7011
11795SOL    HW253378  12.902   6.139   3.374  0.0916 -1.1243  0.5819
11796SOL     OW53379   6.453   0.287   6.256 -0.1244 -0.3803  0.4417
11796SOL    HW153380   6.462   0.199   6.220  0.2614 -0.3810  0.5418
11796SOL    HW253381   6.362   0.292   6.285 -0.2663 -0.5972  0.0380
11797SOL     OW53382  11.975   8.793  13.807  0.5143  0.1455 -0.0310
11797SOL    HW153383  11.881   8.811  13.809  0.2821 -0.2017 -2.8098
11797SOL    HW253384  11.982   8.698  13.808  0.6355  0.0919 -1.9436
11798SOL     OW53385   1.756   7.447   6.760 -0.1943  0.4240 -0.2720
11798SOL    HW153386   1.784   7.462   6.850  1.1570 -0.7154 -0.4747
11798SOL    HW253387   1.723   7.532   6.731 -1.6387  0.5956  1.5992
11799SOL     OW53388   1.930   1.773   1.281  0.8719  0.2528 -0.2317
11799SOL    HW153389   1.935   1.681   1.255  3.6939  0.4213 -0.6139
11799SOL    HW253390   1.843   1.801   1.255  1.2224 -1.3463 -3.5601
11800SOL     OW53391   3.532   9.942   4.784 -0.0821  0.1447 -0.5416
11800SOL    HW153392   3.474   9.901   4.720 -0.5864  0.0036 -0.0041
11800SOL    HW253393   3.483  10.018   4.816 -0.2919 -0.3971  0.4544
11801SOL     OW53394   3.165   3.664   8.757  0.0489 -0.0692 -0.0977
11801SOL    HW153395   3.090   3.605   8.771 -0.6802  1.2013  1.8861
11801SOL    HW253396   3.237   3.606   8.732 -1.0169 -1.6191  0.2815
11802SOL     OW53397   7.152   2.742  12.161  0.1313 -0.6508  0.2727
11802SOL    HW153398   7.190   2.770  12.078  1.9346  1.9627  1.8173
11802SOL    HW253399   7.227   2.715  12.214 -0.3854  1.6495  2.3581
11803SOL     OW53400   8.187  10.433  11.166  0.2597 -0.2197 -0.2287
11803SOL    HW153401   8.205  10.521  11.134  1.6630 -0.4061  0.0158
11803SOL    HW253402   8.273  10.395  11.185 -0.2504 -2.0036 -1.2646
11804SOL     OW53403  10.401   5.800  11.716 -0.2022  0.9215 -0.3714
11804SOL    HW153404  10.352   5.862  11.662 -0.9688  1.3237  0.7402
11804SOL    HW253405  10.334   5.739  11.749  0.3881  0.1240 -0.6137
11805SOL     OW53406   5.383   9.168  13.205  0.4024  0.3954 -0.1238
11805SOL    HW153407   5.326   9.096  13.231 -0.2694  0.4833 -1.3254
11805SOL    HW253408   5.360   9.186  13.114  1.0972  1.6232 -0.0770
11806SOL     OW53409  14.112   3.983  11.212 -0.4069 -0.0148  0.6673
11806SOL    HW153410  14.171   3.908  11.220 -1.5059 -1.1699 -1.3994
11806SOL    HW253411  14.087   3.984  11.120  0.1598  3.3926  0.4346
11807SOL     OW53412  13.818   6.971   9.907  0.4932 -0.2564  0.4663
11807SOL    HW153413  13.895   6.963   9.963  0.3405 -0.8303  0.6032
11807SOL    HW253414  13.849   7.019   9.830  1.4629 -2.0817 -0.3424
11808SOL     OW53415  11.853   0.091  10.566  0.6950  0.0214  0.4129
11808SOL    HW153416  11.865   0.169  10.619  0.3624  0.8388 -0.6658
11808SOL    HW253417  11.934   0.041  10.578  0.1436 -0.4133  2.5834
11809SOL     OW53418   6.456  10.762   4.564  0.4645 -1.0583 -0.1866
11809SOL    HW153419   6.404  10.807   4.631 -1.3289 -0.7556 -1.7135
11809SOL    HW253420   6.503  10.832   4.518 -0.3962 -0.9696 -0.9552
11810SOL     OW53421   0.457  13.420   5.657  0.1074 -0.4948  0.4542
11810SOL    HW153422   0.426  13.384   5.574 -1.0891 -0.3229  0.8057
11810SOL    HW253423   0.468  13.513   5.640 -0.0814 -0.4692  0.4634
11811SOL     OW53424   6.949   3.790   1.454  0.0540  0.1675 -0.0812
11811SOL    HW153425   6.905   3.869   1.486  0.5758 -0.2039  1.6469
11811SOL    HW253426   7.034   3.821   1.423  0.3952  0.2726  0.9053
11812SOL     OW53427   3.513   0.683   5.644  0.2752  0.1913  0.6266
11812SOL    HW153428   3.467   0.721   5.720  0.3476 -0.0296  0.7818
11812SOL    HW253429   3.581   0.628   5.683 -0.0838 -0.4134  0.4054
11813SOL     OW53430  10.145   6.163  13.311 -0.0222 -0.1419 -0.4479
11813SOL    HW153431  10.097   6.137  13.389  0.7641  0.9277  0.4332
11813SOL    HW253432  10.077   6.184  13.247 -0.7671  1.2425  0.7370
11814SOL     OW53433   4.397   5.058   1.011 -0.1553  0.2141 -0.0512
11814SOL    HW153434   4.463   5.000   0.973 -3.1556 -2.2851 -1.9888
11814SOL    HW253435   4.366   5.012   1.089  0.1828  1.2518  0.7208
11815SOL     OW53436   7.009   4.890  10.284 -0.3086  0.0473 -0.2050
11815SOL    HW153437   7.004   4.849  10.371 -0.9418  0.5288 -0.0022
11815SOL    HW253438   6.961   4.972  10.295 -0.5599  0.0166 -1.0696
11816SOL     OW53439  13.156   1.180   3.864  1.1887 -0.0321 -0.6990
11816SOL    HW153440  13.132   1.096   3.823  0.9265  0.1365 -0.8929
11816SOL    HW253441  13.075   1.231   3.862  0.2263 -1.1458  2.9424
11817SOL     OW53442  14.151   0.064  12.036 -0.1481 -0.0787 -0.0713
11817SOL    HW153443  14.131   0.145  12.082  0.4016 -0.0220  0.0669
11817SOL    HW253444  14.240   0.042  12.062 -0.2829 -0.7162 -0.1258
11818SOL     OW53445   3.988   2.231   3.022  0.7900  0.1043 -0.0540
11818SOL    HW153446   3.956   2.321   3.027 -1.7720 -0.7441  0.6229
11818SOL    HW253447   4.013   2.220   2.930  1.2666  1.5358 -0.1103
11819SOL     OW53448   1.924   7.426   7.853  0.0752 -0.0554  0.0199
11819SOL    HW153449   1.936   7.521   7.861 -0.6045 -0.0153  0.6984
11819SOL    HW253450   2.003   7.395   7.810  0.4597  0.7803  0.1104
11820SOL     OW53451   6.224  11.985   9.050 -0.2775 -0.2355 -0.1831
11820SOL    HW153452   6.309  11.992   9.095 -1.1642  0.3556  1.4744
11820SOL    HW253453   6.236  12.034   8.969  1.1461 -0.6857 -0.2821
11821SOL     OW53454   2.668   2.307   4.000  0.1209  0.0913  0.0725
11821SOL    HW153455   2.603   2.315   4.070 -0.8095 -0.2452 -0.7162
11821SOL    HW253456   2.650   2.382   3.943 -1.1785 -1.2692 -1.3983
11822SOL     OW53457   7.165   8.940   4.195  0.3093 -0.2575  0.2796
11822SOL    HW153458   7.258   8.962   4.187  0.1301  0.4865  0.1045
11822SOL    HW253459   7.130   9.004   4.257 -0.2885  0.1600 -0.4532
11823SOL     OW53460   3.394   0.492   0.550  0.6560  0.4243 -0.1286
11823SOL    HW153461   3.337   0.567   0.566  2.4060  2.3470 -2.2263
11823SOL    HW253462   3.453   0.490   0.626  0.5519  1.1320 -0.0226
11824SOL     OW53463   9.520   0.082   9.472 -0.0094 -0.0803  0.3197
11824SOL    HW153464   9.579   0.012   9.442  0.8320  1.1523 -1.0341
11824SOL    HW253465   9.438   0.064   9.427  0.0013 -0.5672  0.4867
11825SOL     OW53466   9.813   1.200  13.232  0.4475 -0.1815 -0.1542
11825SOL    HW153467   9.750   1.268  13.255 -2.3349 -2.1662 -1.3309
11825SOL    HW253468   9.855   1.233  13.153  1.3530  1.4030  0.9323
11826SOL     OW53469  10.936   6.387   6.850 -0.5532 -0.4723 -0.5846
11826SOL    HW153470  10.934   6.464   6.907 -0.4180 -1.5273  0.9224
11826SOL    HW253471  11.022   6.390   6.808  0.0691 -0.5830  0.6344
11827SOL     OW53472  10.004  13.541   5.342  0.4868 -0.2948  0.4781
11827SOL    HW153473   9.987  13.467   5.400  0.8972  1.0315  2.3644
11827SOL    HW253474  10.007  13.617   5.400  3.3322  0.8055 -0.9432
11828SOL     OW53475   9.069  13.763   5.340 -0.3796  0.5343  0.5120
11828SOL    HW153476   9.027  13.680   5.363  3.8618 -2.1774 -0.3722
11828SOL    HW253477   9.075  13.811   5.423 -2.5190 -0.2136  1.1457
11829SOL     OW53478   8.648   0.593   9.596 -1.0459  0.0653  0.0910
11829SOL    HW153479   8.678   0.673   9.640 -1.1262  0.8877 -1.3029
11829SOL    HW253480   8.554   0.590   9.614 -0.8095 -0.4713  1.2969
11830SOL     OW53481  12.214   7.550  12.827  0.1310 -0.4432  0.2554
11830SOL    HW153482  12.199   7.456  12.817 -0.2891 -0.1733 -2.5102
11830SOL    HW253483  12.128   7.586  12.849  0.2422 -0.6463  1.0645
11831SOL     OW53484  10.587   9.350  12.245 -0.5103  0.3953 -0.3404
11831SOL    HW153485  10.517   9.297  12.206 -0.5940  0.1015  0.2127
11831SOL    HW253486  10.653   9.355  12.175 -0.7402  0.0256 -0.5935
11832SOL     OW53487   6.137   2.101   8.189 -0.3163  0.0858 -0.0400
11832SOL    HW153488   6.166   2.092   8.280 -0.3230 -0.6302 -0.1042
11832SOL    HW253489   6.057   2.154   8.195 -0.0449  0.4583  0.3229
11833SOL     OW53490   2.176   1.501  10.367  0.0374 -0.3633  0.6293
11833SOL    HW153491   2.122   1.488  10.289  0.1225  2.3396  0.0264
11833SOL    HW253492   2.256   1.542  10.334 -0.1109  1.2597  2.1430
11834SOL     OW53493   0.677   5.780   1.252 -0.6043 -0.0009  0.3946
11834SOL    HW153494   0.586   5.812   1.254 -0.6078 -0.0500  0.9668
11834SOL    HW253495   0.672   5.690   1.285 -0.6352 -0.7301 -1.4733
11835SOL     OW53496   2.175   1.606   9.173  0.2277  0.5612 -0.2596
11835SOL    HW153497   2.199   1.616   9.265  0.0911  0.7144 -0.2421
11835SOL    HW253498   2.100   1.664   9.161 -0.3600 -0.1766 -0.2340
11836SOL     OW53499  10.620  12.671   5.044 -0.4423  0.2710 -0.3238
11836SOL    HW153500  10.702  12.706   5.081  0.4158 -1.8154 -0.0816
11836SOL    HW253501  10.633  12.676   4.949 -0.8758  1.7279 -0.3277
11837SOL     OW53502   9.277  10.772   1.919 -0.4000  0.1693  0.0499
11837SOL    HW153503   9.361  10.728   1.936 -0.1364 -0.3178 -2.1448
11837SOL    HW253504   9.293  10.825   1.841 -2.0905  0.1979 -0.3153
11838SOL     OW53505   0.908   0.788   5.283  0.6166 -0.2585  0.3442
11838SOL    HW153506   0.878   0.697   5.274  1.1759 -0.4217  0.1002
11838SOL    HW253507   0.831   0.835   5.316 -0.8465 -0.1171 -2.8698
11839SOL     OW53508   4.306   3.991   0.840 -0.2972  0.1672  0.1474
11839SOL    HW153509   4.223   3.947   0.855 -0.7822  0.8687 -0.4028
11839SOL    HW253510   4.325   4.037   0.922 -0.0690 -0.5876  0.5271
11840SOL     OW53511   3.007   2.905   9.937  0.1137 -0.3709  0.5991
11840SOL    HW153512   3.069   2.915  10.010 -0.1701 -0.3692  0.8413
11840SOL    HW253513   2.921   2.920   9.976  0.1252  3.0582 -0.3775
11841SOL     OW53514   9.398   2.644   7.281 -0.4608  0.3180  0.1277
11841SOL    HW153515   9.320   2.590   7.293  0.6696 -1.3207  0.5491
11841SOL    HW253516   9.379   2.725   7.327 -2.2359  0.3213 -0.5312
11842SOL     OW53517   9.597   8.874  12.423  0.0573  0.2105  0.2535
11842SOL    HW153518   9.529   8.813  12.449 -0.2745 -1.0821 -3.0760
11842SOL    HW253519   9.679   8.831  12.447 -0.2109  0.3507  1.4826
11843SOL     OW53520   3.290   7.938  11.680  0.0545  0.5573 -0.4380
11843SOL    HW153521   3.377   7.929  11.642  0.7631 -0.8491  1.3655
11843SOL    HW253522   3.288   8.026  11.717  1.1716  0.2048  0.5128
11844SOL     OW53523   7.554   1.893  11.521 -0.4977 -0.2346  0.5170
11844SOL    HW153524   7.581   1.801  11.524  1.3155  0.2482  0.0499
11844SOL    HW253525   7.471   1.895  11.570 -0.8733 -2.1985  0.0498
11845SOL     OW53526   7.012  10.019   6.576 -0.1015  0.3187  0.1416
11845SOL    HW153527   6.930  10.050   6.615  0.7571 -0.0135  2.3665
11845SOL    HW253528   7.074  10.017   6.649  1.8244  0.2514 -1.4101
11846SOL     OW53529  14.065   5.424   0.128 -0.3569  0.5924  0.0035
11846SOL    HW153530  14.145   5.403   0.177  0.1332 -0.4841 -1.1834
11846SOL    HW253531  14.082   5.511   0.091  0.4606  0.1994 -0.5808
11847SOL     OW53532  10.735   4.131   0.531 -0.0081  0.6214  0.1561
11847SOL    HW153533  10.695   4.210   0.493  1.6000  2.0784  1.3170
11847SOL    HW253534  10.680   4.059   0.500 -1.3518  2.1526 -1.2292
11848SOL     OW53535  11.369   4.988   4.985  0.3715  0.2659 -0.2234
11848SOL    HW153536  11.361   4.948   4.899 -2.4735  2.1037 -0.9454
11848SOL    HW253537  11.377   5.082   4.968 -1.4726  0.8033  1.4147
11849SOL     OW53538   7.312   5.585  11.852 -0.2152 -0.1029 -0.1552
11849SOL    HW153539   7.272   5.672  11.864 -0.8707 -0.3296 -0.6463
11849SOL    HW253540   7.397   5.592  11.896 -0.8812  0.3225  1.1273
11850SOL     OW53541   7.657   6.752   0.941  0.5794 -0.5275  0.0827
11850SOL    HW153542   7.583   6.747   1.002  3.0145 -0.0560  3.3667
11850SOL    HW253543   7.717   6.684   0.971  2.1216  0.0343 -1.5610
11851SOL     OW53544   7.712  12.128   0.308 -0.0137  0.1052  0.0796
11851SOL    HW153545   7.689  12.058   0.370  1.5681  0.7493  1.4878
11851SOL    HW253546   7.780  12.178   0.353 -0.5416  2.1036 -1.2106
11852SOL     OW53547   8.328   4.733   3.649 -0.4814 -0.5061 -0.4372
11852SOL    HW153548   8.298   4.804   3.592 -0.3358 -0.6850 -0.7395
11852SOL    HW253549   8.257   4.669   3.647 -1.2859  0.2900  1.0324
11853SOL     OW53550  13.788   1.820   6.337 -0.1655  0.0080  0.5153
11853SOL    HW153551  13.765   1.737   6.379 -0.4168 -0.6786 -0.8919
11853SOL    HW253552  13.778   1.802   6.243  0.7654  1.3427  0.1338
11854SOL     OW53553   8.524  12.005   9.593  0.2610  0.0798  0.2836
11854SOL    HW153554   8.480  11.956   9.663  2.0750 -2.6143 -0.3284
11854SOL    HW253555   8.600  11.951   9.570  2.0724  2.9423 -0.9222
11855SOL     OW53556   8.076  13.487   1.363  0.6279  0.0195 -0.3419
11855SOL    HW153557   8.035  13.539   1.433 -1.3764 -2.6575  0.6306
11855SOL    HW253558   8.162  13.528   1.351 -0.2084  2.5619  1.3957
11856SOL     OW53559   1.720  10.643   2.696  0.0389 -0.1328  0.7561
11856SOL    HW153560   1.711  10.617   2.604 -0.6682 -0.6127  0.9604
11856SOL    HW253561   1.638  10.688   2.716 -0.3207 -1.1215  1.5109
11857SOL     OW53562   3.576   8.872  11.800  0.1856 -0.0530  0.0524
11857SOL    HW153563   3.504   8.933  11.783  1.4486  0.8565 -2.5852
11857SOL    HW253564   3.562   8.842  11.890 -3.1020  0.5349 -0.1704
11858SOL     OW53565   5.266   7.296   4.804  0.3410 -0.2361  0.3065
11858SOL    HW153566   5.210   7.305   4.882  3.2402 -0.5442  2.5963
11858SOL    HW253567   5.278   7.386   4.773  0.3270  0.0731  1.1558
11859SOL     OW53568  12.543   3.560   8.323 -0.0662 -0.0510 -0.0725
11859SOL    HW153569  12.607   3.527   8.259  1.3026  1.2395  0.5762
11859SOL    HW253570  12.514   3.644   8.287  1.0399  0.8910  1.1818
11860SOL     OW53571  10.390  13.239  12.572 -0.2264 -0.0329  0.3190
11860SOL    HW153572  10.460  13.221  12.635  0.2453 -0.3865 -0.2983
11860SOL    HW253573  10.391  13.334  12.562  1.2480 -0.1373 -0.8890
11861SOL     OW53574  11.261  13.248  11.876 -0.3078  0.1352  0.3331
11861SOL    HW153575  11.251  13.343  11.882 -0.2894  0.1416  0.2637
11861SOL    HW253576  11.344  13.235  11.831 -1.5862  0.1254 -2.2452
11862SOL     OW53577   2.146  12.740  10.588 -0.5891  0.3910  0.2768
11862SOL    HW153578   2.223  12.775  10.634 -0.4118  0.6797 -0.2376
11862SOL    HW253579   2.183  12.684  10.520 -0.8264  0.6811 -0.0939
11863SOL     OW53580   8.520  12.956   9.823 -0.4676  0.2060  0.0341
11863SOL    HW153581   8.609  12.929   9.799 -0.2335 -0.8303  1.8670
11863SOL    HW253582   8.531  12.998   9.909 -1.8858 -1.1038  0.9026
11864SOL     OW53583  12.982  10.530   7.726 -0.0701  0.5493 -0.2700
11864SOL    HW153584  12.915  10.563   7.665 -1.1092 -1.5519 -0.3964
11864SOL    HW253585  13.065  10.559   7.689 -0.7286  0.1475 -2.2029
11865SOL     OW53586   1.548   3.649   5.260  0.1696 -0.6781 -0.0601
11865SOL    HW153587   1.508   3.598   5.190  0.1019  0.9099 -1.2396
11865SOL    HW253588   1.642   3.629   5.253  0.0778 -1.0921 -0.1264
11866SOL     OW53589  13.567   9.775   9.002  0.1256 -0.0464  0.3652
11866SOL    HW153590  13.587   9.848   8.943  0.3698  0.1438  0.6832
11866SOL    HW253591  13.471   9.772   9.004  0.0678 -1.2604 -1.5402
11867SOL     OW53592   5.223  11.969  11.620  0.1942 -0.6119 -0.4859
11867SOL    HW153593   5.302  11.930  11.657 -0.3572 -1.6540 -0.3580
11867SOL    HW253594   5.224  12.060  11.651  1.3756 -0.5900 -0.5636
11868SOL     OW53595  13.439   4.065   5.089 -0.2034  0.1087  0.3853
11868SOL    HW153596  13.369   4.055   5.153  0.0916 -1.2893  0.5232
11868SOL    HW253597  13.394   4.067   5.004 -0.3840 -4.5424  0.1101
11869SOL     OW53598   9.562   3.550   4.036  0.2723  0.2357 -0.1279
11869SOL    HW153599   9.643   3.498   4.038  0.2760  0.2669  1.0977
11869SOL    HW253600   9.503   3.499   3.980  1.2598  0.4227 -1.3902
11870SOL     OW53601   8.460   1.911  11.819 -0.4311  0.0879  0.0619
11870SOL    HW153602   8.401   1.848  11.860 -1.4784  1.3009  0.4526
11870SOL    HW253603   8.404   1.982  11.789  0.6646  0.6092 -0.8430
11871SOL     OW53604   5.507   0.775   2.181  0.0378  0.2754 -0.1972
11871SOL    HW153605   5.483   0.729   2.101 -4.2277 -0.8873  1.4331
11871SOL    HW253606   5.475   0.865   2.168 -0.1492  0.2354 -0.0294
11872SOL     OW53607   1.965   5.639   4.810 -0.2942  0.1617  0.3813
11872SOL    HW153608   1.915   5.719   4.794 -1.0033 -0.2385  0.5104
11872SOL    HW253609   2.046   5.668   4.850 -1.1073  0.7288  1.6752
11873SOL     OW53610   4.401  10.446  12.194 -0.2418  0.2497 -0.2770
11873SOL    HW153611   4.316  10.430  12.235  0.5601  1.6155  2.1029
11873SOL    HW253612   4.454  10.370  12.218 -0.5000 -0.1449 -0.9424
11874SOL     OW53613   7.020   9.693   4.489  0.4285  0.4041  0.1469
11874SOL    HW153614   7.093   9.715   4.547 -0.1865  3.4728 -0.0804
11874SOL    HW253615   6.966   9.633   4.540  1.6136  0.3899  1.4451
11875SOL     OW53616   6.328   3.087   5.159  0.4606 -0.6398  0.0061
11875SOL    HW153617   6.234   3.100   5.169  0.5860  0.9845 -0.6042
11875SOL    HW253618   6.336   3.007   5.106 -0.4937 -1.7056  1.3976
11876SOL     OW53619   3.940   4.722  11.172  0.0142 -0.2306  1.0012
11876SOL    HW153620   3.912   4.683  11.089 -0.0874 -0.9504  1.3642
11876SOL    HW253621   3.925   4.816  11.160 -2.1475 -0.5279  0.9969
11877SOL     OW53622   3.946   4.239   0.661  0.4992 -0.2536  0.0316
11877SOL    HW153623   3.868   4.259   0.608  1.1951 -1.2874 -1.4556
11877SOL    HW253624   4.011   4.211   0.597  1.9601  0.1295  1.3040
11878SOL     OW53625   7.398  10.540   9.987  0.4248  0.3251 -0.1210
11878SOL    HW153626   7.413  10.493  10.069  2.1498  0.0591 -0.5357
11878SOL    HW253627   7.486  10.557   9.953 -0.2328  1.1976 -1.4880
11879SOL     OW53628   5.362   8.576  13.256  0.1093 -0.8026  0.0799
11879SOL    HW153629   5.453   8.573  13.228  0.0776  0.6908 -0.2385
11879SOL    HW253630   5.354   8.503  13.318  1.3700 -1.2733 -0.2844
11880SOL     OW53631   5.857   1.177   8.482  0.0807  0.1484 -0.5707
11880SOL    HW153632   5.829   1.119   8.554  0.8624 -0.7721 -0.9886
11880SOL    HW253633   5.947   1.199   8.503 -0.1124  0.9688 -0.5876
11881SOL     OW53634   9.442   2.833  10.277 -0.2877 -0.2675 -0.2502
11881SOL    HW153635   9.382   2.784  10.333 -0.1209  0.2898  0.4192
11881SOL    HW253636   9.502   2.767  10.243 -0.0932 -0.5309  0.6024
11882SOL     OW53637   7.576   4.529  12.396  0.0853  0.0551  0.3840
11882SOL    HW153638   7.629   4.459  12.434 -1.0834 -1.1800 -0.1938
11882SOL    HW253639   7.561   4.502  12.306 -0.4188  1.0420  0.1530
11883SOL     OW53640  12.465   1.297   4.352 -0.4373  0.3181  0.3396
11883SOL    HW153641  12.392   1.249   4.390 -0.8590  2.1182  1.9225
11883SOL    HW253642  12.484   1.250   4.270 -0.7898 -2.5208  1.7543
11884SOL     OW53643   1.303   6.270  10.142 -0.1098 -0.2731 -0.0162
11884SOL    HW153644   1.377   6.331  10.130 -1.1412  1.0949  0.3726
11884SOL    HW253645   1.274   6.251  10.053 -1.7883  2.4118 -0.1693
11885SOL     OW53646   4.354   0.619  12.350  0.1232  0.4371  0.1374
11885SOL    HW153647   4.309   0.653  12.427  1.5448 -0.0737  1.2381
11885SOL    HW253648   4.429   0.678  12.337 -0.5636  1.0349 -1.4058
11886SOL     OW53649  10.139   3.096   2.007 -0.0577  0.2972  0.0194
11886SOL    HW153650  10.126   3.013   1.961 -0.3678  1.2540 -1.6985
11886SOL    HW253651  10.139   3.162   1.937  1.2752  1.6413  1.2277
11887SOL     OW53652   1.297  10.581   4.308  0.3871 -0.8712  0.0641
11887SOL    HW153653   1.247  10.560   4.230  0.3512 -2.0663  0.3942
11887SOL    HW253654   1.276  10.673   4.326  0.6533 -0.4823 -1.4959
11888SOL     OW53655   9.045   3.028  12.936  0.6762  0.1224  0.0989
11888SOL    HW153656   9.000   3.090  12.879  0.5219 -0.7218 -0.7111
11888SOL    HW253657   9.048   3.072  13.021 -0.6576  0.6699 -0.1145
11889SOL     OW53658   5.782   5.713  12.462 -0.4159  0.6090  0.2854
11889SOL    HW153659   5.796   5.626  12.425 -0.5630  0.9130 -0.4908
11889SOL    HW253660   5.860   5.762  12.439  0.5490  0.1686  2.3409
11890SOL     OW53661   2.296   0.605   0.292  0.4210 -0.6114 -0.2660
11890SOL    HW153662   2.355   0.608   0.367 -2.8522  0.3960  2.5235
11890SOL    HW253663   2.271   0.513   0.286  1.2263 -0.8180 -0.6397
11891SOL     OW53664   7.746   9.799   5.320  0.1186  0.0101  0.4713
11891SOL    HW153665   7.756   9.867   5.254  0.1128  0.5429  1.0082
11891SOL    HW253666   7.762   9.844   5.403  1.5203 -0.9343  0.7505
11892SOL     OW53667  13.022  12.112   2.713  0.3702  0.1155  0.3734
11892SOL    HW153668  12.983  12.190   2.753 -0.6875 -0.4079  0.3834
11892SOL    HW253669  13.003  12.042   2.775  1.2889 -0.1696  0.3463
11893SOL     OW53670  13.563   0.791  13.862  0.6571  0.0641 -0.4330
11893SOL    HW153671  13.490   0.814  13.806  0.3918  0.0121 -0.1116
11893SOL    HW253672  13.641   0.803  13.807  0.3740 -0.3948 -0.9415
11894SOL     OW53673   7.043   4.278  10.418  0.0497  0.4722  0.5709
11894SOL    HW153674   6.987   4.354  10.402 -1.4455 -1.0076 -1.8020
11894SOL    HW253675   6.985   4.213  10.459  0.8281 -0.0421  0.8866
11895SOL     OW53676  10.752  10.700  11.573  0.4059 -0.1252  0.2011
11895SOL    HW153677  10.729  10.610  11.549 -0.8373  0.8344 -2.5640
11895SOL    HW253678  10.845  10.696  11.592  0.6385 -1.7894 -1.0569
11896SOL     OW53679   1.284   7.667   5.878  0.4702 -0.4759  0.2763
11896SOL    HW153680   1.294   7.758   5.848  1.1064 -1.2138 -1.9778
11896SOL    HW253681   1.359   7.653   5.935  1.7423 -0.2357 -1.2560
11897SOL     OW53682   2.763  13.117  11.017 -0.5518 -0.8054  0.3668
11897SOL    HW153683   2.707  13.090  11.090  0.0390  0.2465  1.2344
11897SOL    HW253684   2.798  13.035  10.983 -1.6789 -1.3932  0.5578
11898SOL     OW53685  13.080   6.902   0.063 -0.4873  0.3967  0.1672
11898SOL    HW153686  13.065   6.935  -0.026 -0.8437 -1.0225 -0.3301
11898SOL    HW253687  13.165   6.938   0.088  0.2100 -0.2048 -1.2487
11899SOL     OW53688   4.985   1.402   5.316 -0.1649 -0.1583 -0.4658
11899SOL    HW153689   4.966   1.485   5.359 -0.2322  1.4496 -3.3595
11899SOL    HW253690   5.080   1.402   5.304 -0.3320  0.3458 -1.9644
11900SOL     OW53691  11.588   8.201  11.818 -0.3113 -0.3661  0.1039
11900SOL    HW153692  11.574   8.291  11.848 -1.5620 -0.9133  1.2995
11900SOL    HW253693  11.538   8.195  11.737 -0.0388  0.0873 -0.0959
11901SOL     OW53694   2.276   9.509   9.416 -0.0149  0.1649  0.1281
11901SOL    HW153695   2.334   9.569   9.369 -1.1386  2.5526  1.5887
11901SOL    HW253696   2.335   9.460   9.474  0.8006  0.9385 -0.0106
11902SOL     OW53697   6.792  11.404  12.531 -0.0848  0.3111  0.3260
11902SOL    HW153698   6.863  11.385  12.470 -2.3203 -2.1515 -1.7221
11902SOL    HW253699   6.786  11.500  12.532  2.4324  0.5341 -0.3455
11903SOL     OW53700  12.304  10.894  10.455  0.1828 -0.4435  0.6299
11903SOL    HW153701  12.261  10.851  10.381 -0.1840 -0.2234  0.7152
11903SOL    HW253702  12.387  10.926  10.418 -0.8432  1.3657 -0.1940
11904SOL     OW53703  11.585   3.098   6.239 -0.3326  0.3494 -0.4793
11904SOL    HW153704  11.674   3.067   6.257 -0.0255  1.5704  0.2034
11904SOL    HW253705  11.573   3.172   6.299 -2.2336 -0.5060  0.2746
11905SOL     OW53706   4.474   7.310  10.843 -0.5099 -0.0738  0.0332
11905SOL    HW153707   4.393   7.343  10.804  0.2239  1.0654 -0.6105
11905SOL    HW253708   4.451   7.286  10.932 -1.7225 -0.5369 -0.3920
11906SOL     OW53709  11.929   4.063   5.566 -1.0939 -0.7993 -0.4604
11906SOL    HW153710  11.976   4.098   5.642 -2.0026 -1.4836  0.4506
11906SOL    HW253711  11.849   4.116   5.561  0.8108  2.2305 -3.6404
11907SOL     OW53712  12.702  11.563   5.241 -0.3634 -0.1408 -0.1286
11907SOL    HW153713  12.696  11.533   5.332 -0.1645  0.6768  0.1689
11907SOL    HW253714  12.768  11.632   5.243 -0.7000  0.2130 -0.8053
11908SOL     OW53715   9.403   2.981   8.922 -0.1635  0.5742  0.1468
11908SOL    HW153716   9.330   2.920   8.929  0.0950  0.2525  0.0614
11908SOL    HW253717   9.420   2.989   8.828 -0.6779  1.3635  0.1056
11909SOL     OW53718  10.684   4.725   2.807  0.0657 -0.6525 -0.5009
11909SOL    HW153719  10.752   4.660   2.787  1.3173  0.4370  0.0713
11909SOL    HW253720  10.726   4.785   2.868 -0.9125  0.9607 -1.3659
11910SOL     OW53721   1.801   3.070   6.795 -0.4767 -0.1616 -0.2188
11910SOL    HW153722   1.889   3.075   6.758 -0.1142  1.3789  0.7556
11910SOL    HW253723   1.806   3.003   6.863  0.7530  1.7584  1.7240
11911SOL     OW53724   9.532   7.397   6.128 -0.3689  0.4158  0.1373
11911SOL    HW153725   9.592   7.448   6.073  0.8075 -0.9099  0.1318
11911SOL    HW253726   9.590   7.349   6.188 -1.2747 -2.1637 -0.9435
11912SOL     OW53727   9.202   5.822   2.696 -0.1918  0.2730  0.8669
11912SOL    HW153728   9.112   5.800   2.672 -0.2124  0.3790  0.8474
11912SOL    HW253729   9.225   5.894   2.638 -0.2455  0.5423  1.1792
11913SOL     OW53730  13.847  10.323  10.849 -0.5057 -0.3878 -0.5390
11913SOL    HW153731  13.943  10.327  10.855 -0.5662  0.4236  0.1876
11913SOL    HW253732  13.823  10.246  10.900 -0.3154  0.2789  0.5981
11914SOL     OW53733   1.394  11.325  12.763 -0.3940  0.1823  0.4950
11914SOL    HW153734   1.316  11.335  12.709 -0.6268  2.7552  1.1474
11914SOL    HW253735   1.446  11.258  12.719 -1.9294  0.0302 -1.2062
11915SOL     OW53736   1.235   0.830   9.918 -0.3275  0.4588 -0.7044
11915SOL    HW153737   1.316   0.881   9.921  0.2319 -0.4318  0.9317
11915SOL    HW253738   1.170   0.885   9.962 -0.1479  0.4550 -0.4297
11916SOL     OW53739   7.560   2.207  14.036 -0.5646  0.1773  0.0334
11916SOL    HW153740   7.645   2.203  13.993  0.0789  1.1135  1.1459
11916SOL    HW253741   7.531   2.298  14.023 -0.4448  0.4270  1.3602
11917SOL     OW53742   6.379   7.555   8.811 -0.0056  0.3911 -0.3991
11917SOL    HW153743   6.443   7.485   8.820  0.6677  1.2397  2.2210
11917SOL    HW253744   6.430   7.635   8.821 -1.2243  1.1423 -0.0293
11918SOL     OW53745  11.382   7.689   8.568  0.1316 -0.4298  0.0012
11918SOL    HW153746  11.325   7.766   8.574 -1.8456 -1.8876  1.2538
11918SOL    HW253747  11.400   7.679   8.475 -0.6970  0.7501 -0.3080
11919SOL     OW53748   8.567   0.644   3.204  0.7527 -0.2572 -0.0344
11919SOL    HW153749   8.582   0.560   3.246  1.6857  0.7204  1.6976
11919SOL    HW253750   8.547   0.622   3.113 -1.6023 -2.5097  0.8864
11920SOL     OW53751   6.669   8.878   2.767  0.1976 -0.3635 -0.2585
11920SOL    HW153752   6.728   8.949   2.793  2.3368 -1.1787 -2.5037
11920SOL    HW253753   6.629   8.909   2.685 -1.3779 -0.4833  0.4207
11921SOL     OW53754  10.543   7.217   9.661  0.2392  0.1886  0.4446
11921SOL    HW153755  10.496   7.179   9.587  0.6956  0.2745  0.1030
11921SOL    HW253756  10.548   7.147   9.725 -3.2003  1.0742  1.8802
11922SOL     OW53757  10.070  10.235  10.586 -0.2724  0.1992 -0.4840
11922SOL    HW153758  10.137  10.219  10.652  1.1257  1.6974 -1.4717
11922SOL    HW253759   9.988  10.242  10.635  0.6043  0.4645  0.9745
11923SOL     OW53760   6.955  11.849  13.355 -0.4178 -0.1844  0.4328
11923SOL    HW153761   6.958  11.921  13.417 -0.6442 -0.5001  0.8190
11923SOL    HW253762   6.862  11.825  13.351 -0.6474  0.8864 -1.2619
11924SOL     OW53763   4.542   7.037  10.974 -0.5992 -0.1621  0.3604
11924SOL    HW153764   4.632   7.060  10.947 -1.0021 -0.4245 -1.3299
11924SOL    HW253765   4.522   7.098  11.045 -0.8139  3.3502 -2.4680
11925SOL     OW53766   5.514  12.326  13.540 -0.3368  0.1943 -0.0425
11925SOL    HW153767   5.587  12.289  13.591 -0.3377 -1.1593 -0.9768
11925SOL    HW253768   5.538  12.310  13.449 -2.6205 -2.0218 -0.3698
11926SOL     OW53769   8.060   9.776   0.702 -0.2467 -0.0655 -0.3886
11926SOL    HW153770   7.979   9.741   0.739  0.8757 -2.6405 -0.1490
11926SOL    HW253771   8.074   9.726   0.622  1.4244 -0.1426 -0.0975
11927SOL     OW53772   0.397   4.239  10.854 -0.2797  0.2183 -0.0914
11927SOL    HW153773   0.488   4.211  10.847 -0.7029 -1.1278 -0.3467
11927SOL    HW253774   0.354   4.203  10.776 -1.5532 -1.2389  1.2237
11928SOL     OW53775   2.196   9.017  11.239 -0.2092  0.0641  0.0082
11928SOL    HW153776   2.192   8.970  11.155  0.1716 -0.4138  0.2492
11928SOL    HW253777   2.143   9.095  11.226 -0.0288  0.0674 -0.7287
11929SOL     OW53778   7.226   8.037   4.935 -0.0188  0.1920 -0.4993
11929SOL    HW153779   7.179   8.026   4.853  1.3150 -0.0371 -1.2709
11929SOL    HW253780   7.180   8.107   4.981 -0.6873  0.4314 -1.5081
11930SOL     OW53781   7.612   9.433   3.395 -0.1884  0.1817  0.1216
11930SOL    HW153782   7.620   9.339   3.382 -1.3450  0.1226 -0.3162
11930SOL    HW253783   7.596   9.442   3.489 -1.7832 -0.2219 -0.0814
11931SOL     OW53784  13.140   7.235   8.374 -0.5944  0.0015 -0.3560
11931SOL    HW153785  13.177   7.192   8.297  1.3548  0.7145  0.1436
11931SOL    HW253786  13.054   7.193   8.385  0.5647 -2.7220 -0.7525
11932SOL     OW53787   8.210  10.881   3.029 -0.6708  0.6365  0.1758
11932SOL    HW153788   8.136  10.859   2.972 -1.0570  2.4784 -0.0904
11932SOL    HW253789   8.179  10.863   3.117 -0.7684 -0.3230 -0.0342
11933SOL     OW53790   2.875  13.309   6.446 -0.2818 -0.4979  0.4019
11933SOL    HW153791   2.800  13.282   6.499  0.0153 -1.1459  0.4973
11933SOL    HW253792   2.881  13.404   6.459 -1.4607 -0.3428 -0.1034
11934SOL     OW53793   7.238   2.101   3.858 -0.7375  0.1700  0.1505
11934SOL    HW153794   7.253   2.165   3.789  1.9485  0.5721  0.9619
11934SOL    HW253795   7.156   2.058   3.835  0.5912 -0.5867 -4.0031
11935SOL     OW53796   5.212   6.598  12.905 -0.2740 -0.2738  0.4680
11935SOL    HW153797   5.190   6.600  12.998  0.2487  0.0308  0.5902
11935SOL    HW253798   5.307   6.587  12.904 -0.3454 -0.8932 -0.0354
11936SOL     OW53799  11.673  12.061   4.978  0.0820 -0.0260 -0.0042
11936SOL    HW153800  11.753  12.101   4.943  1.9552 -2.6531  0.9189
11936SOL    HW253801  11.674  11.972   4.942 -1.8436 -0.4682  0.9352
11937SOL     OW53802   8.582   2.661   5.746 -0.1118  0.1419 -0.3709
11937SOL    HW153803   8.568   2.697   5.833 -1.5079  0.2383 -0.6070
11937SOL    HW253804   8.537   2.722   5.688  1.1733  0.3201 -1.2220
11938SOL     OW53805   2.926   6.495   5.025  0.1531 -0.0180  0.1378
11938SOL    HW153806   2.903   6.403   5.007  0.5042 -0.3658  1.3534
11938SOL    HW253807   2.933   6.535   4.939  2.1235 -1.6625 -0.5405
11939SOL     OW53808   1.776  13.828   1.505 -0.0957 -0.4322 -0.0013
11939SOL    HW153809   1.810  13.892   1.443 -0.9990 -0.8205 -0.9241
11939SOL    HW253810   1.853  13.802   1.557  0.2343  1.5950  0.6134
11940SOL     OW53811  11.478   1.432   7.299 -0.0136 -0.5269  0.3126
11940SOL    HW153812  11.518   1.420   7.385 -1.7651  1.2967  1.4801
11940SOL    HW253813  11.384   1.421   7.315 -0.4890  1.1521 -1.0530
11941SOL     OW53814   9.576   3.342   0.594  0.0425 -0.0981  0.7852
11941SOL    HW153815   9.571   3.247   0.605 -0.6849 -0.1958 -0.2227
11941SOL    HW253816   9.567   3.356   0.499  0.4459  0.9556  0.8879
11942SOL     OW53817  13.315   6.115   2.574  0.1033  0.2871 -0.6173
11942SOL    HW153818  13.226   6.087   2.593  0.0584  1.5015  1.2242
11942SOL    HW253819  13.366   6.034   2.570 -0.9547 -0.3764 -1.1172
11943SOL     OW53820  14.131   9.129   4.552 -0.0275  0.4505  0.1623
11943SOL    HW153821  14.213   9.131   4.502  0.0600  1.7568  0.3432
11943SOL    HW253822  14.062   9.139   4.486  0.0772  1.9100  0.2526
11944SOL     OW53823   1.341   0.684   1.999  0.5371 -0.7358  0.6361
11944SOL    HW153824   1.384   0.665   1.915 -1.4222 -1.3126 -0.3050
11944SOL    HW253825   1.262   0.629   1.998 -1.7758  2.2846  0.9608
11945SOL     OW53826   0.056  12.734  13.465 -0.6167  0.0498  0.7929
11945SOL    HW153827   0.034  12.780  13.546  0.3100  1.7965  0.1048
11945SOL    HW253828   0.003  12.777  13.398 -0.0851 -0.1907  0.2050
11946SOL     OW53829   2.928   8.786  10.927  0.5559 -0.2288  0.0375
11946SOL    HW153830   2.951   8.703  10.969  2.1268  0.6086  0.9520
11946SOL    HW253831   2.997   8.800  10.862  0.0347  0.1237 -0.4456
11947SOL     OW53832   7.462  13.396  13.391 -0.4381  0.4336  0.4139
11947SOL    HW153833   7.435  13.410  13.300 -0.3794 -1.6905  0.0240
11947SOL    HW253834   7.556  13.412  13.391 -0.5212  0.9419  0.2242
11948SOL     OW53835   3.218  11.549   4.702  0.5355 -0.1479 -0.0106
11948SOL    HW153836   3.304  11.589   4.715  0.1651  0.5190  0.4674
11948SOL    HW253837   3.205  11.494   4.779  0.3584  0.0862  0.1295
11949SOL     OW53838   6.569   3.594   3.972  0.1349 -0.1296 -0.1852
11949SOL    HW153839   6.509   3.556   3.907 -0.2189 -0.2696  0.2175
11949SOL    HW253840   6.545   3.550   4.054  1.0935 -0.5243 -0.1038
11950SOL     OW53841   2.586  13.341  10.966  0.0900 -0.4273 -0.4615
11950SOL    HW153842   2.510  13.291  10.994 -0.4581  0.6905  0.0629
11950SOL    HW253843   2.659  13.278  10.972 -0.5391 -1.0979  0.4033
11951SOL     OW53844   5.015  10.367  12.260 -0.3599  0.1127  0.7134
11951SOL    HW153845   5.092  10.318  12.230 -1.5030 -0.9376 -0.6377
11951SOL    HW253846   4.986  10.416  12.183 -0.8494  0.8014  1.3121
11952SOL     OW53847  13.608  12.678  13.032  0.2204  0.0755 -0.3804
11952SOL    HW153848  13.677  12.617  13.007  0.4078  0.2247 -0.2306
11952SOL    HW253849  13.530  12.623  13.043  0.3721 -0.1279 -0.3106
11953SOL     OW53850  11.684   6.329   1.205 -0.0784  0.0957 -0.2996
11953SOL    HW153851  11.596   6.311   1.238  0.0101 -0.3335 -0.2860
11953SOL    HW253852  11.703   6.418   1.234 -0.5838  0.2636 -0.4739
11954SOL     OW53853   9.281   7.411   6.045  0.1175 -0.2572 -0.1873
11954SOL    HW153854   9.374   7.402   6.066  0.2139 -3.9397 -1.5211
11954SOL    HW253855   9.277   7.409   5.949 -1.2781  1.9193 -0.2617
11955SOL     OW53856  11.394   5.957   7.096  0.7100  0.4044  0.0209
11955SOL    HW153857  11.302   5.977   7.082  0.4437 -0.2081  0.8373
11955SOL    HW253858  11.431   5.949   7.008  0.1852  1.5238 -0.3042
11956SOL     OW53859   3.953   6.705  11.021  0.0365 -0.5138  0.2623
11956SOL    HW153860   4.045   6.712  10.996 -0.0696 -3.3491 -1.2857
11956SOL    HW253861   3.905   6.747  10.949  0.0726  0.4746  0.8026
11957SOL     OW53862  12.065  12.109   3.454  0.2205 -0.1755 -0.3044
11957SOL    HW153863  12.115  12.027   3.461  2.5323  1.2628  1.8191
11957SOL    HW253864  12.063  12.143   3.544 -2.0363  1.3861 -0.8641
11958SOL     OW53865  11.897  13.672  11.491 -0.6769  0.6651 -0.2594
11958SOL    HW153866  11.802  13.671  11.507 -0.7974 -1.1985 -0.8769
11958SOL    HW253867  11.918  13.583  11.465  1.1119  1.2833 -1.0879
11959SOL     OW53868  14.094   6.827   5.088  0.0964 -0.1877  0.3622
11959SOL    HW153869  14.036   6.783   5.149  0.1697  0.3640  0.8426
11959SOL    HW253870  14.135   6.896   5.140 -1.9344  2.1665 -0.9345
11960SOL     OW53871   7.006  10.276  11.909 -0.4783  0.0042 -0.3940
11960SOL    HW153872   7.043  10.360  11.884 -0.9049  1.0963  2.2874
11960SOL    HW253873   7.077  10.213  11.897  0.4833  1.1078 -0.5364
11961SOL     OW53874   6.426   9.402   7.742 -0.1214 -0.0590  0.5141
11961SOL    HW153875   6.515   9.428   7.719  0.3488 -1.4149  0.6952
11961SOL    HW253876   6.428   9.306   7.739 -1.5110 -0.1134  0.7655
11962SOL     OW53877   6.261  11.789   2.744 -0.1525 -0.1974  0.1229
11962SOL    HW153878   6.232  11.879   2.758 -0.0689 -0.3862  1.6441
11962SOL    HW253879   6.313  11.793   2.663 -3.3706  0.3527 -2.0961
11963SOL     OW53880   9.068   9.547   5.120  0.2255 -0.0724  0.3256
11963SOL    HW153881   9.158   9.518   5.138 -0.3932 -1.6058  1.1334
11963SOL    HW253882   9.044   9.600   5.196  0.1191 -0.4527  0.5568
11964SOL     OW53883   7.325   1.663   2.095 -0.1409  0.7682 -0.2806
11964SOL    HW153884   7.396   1.643   2.035 -2.3374  1.7453 -3.4918
11964SOL    HW253885   7.304   1.755   2.078 -1.4921  0.8172  1.3314
11965SOL     OW53886   5.242  13.972   9.638 -0.2478 -0.0406  0.2161
11965SOL    HW153887   5.262  13.888   9.679  1.0430  0.5120  0.7760
11965SOL    HW253888   5.324  13.998   9.596 -0.3903  1.3058  0.7281
11966SOL     OW53889   8.488   0.003   4.017 -0.0686  0.1944 -0.2597
11966SOL    HW153890   8.509  -0.069   4.077  1.2911  0.2466 -0.6244
11966SOL    HW253891   8.420  -0.033   3.960  0.6870 -0.8780 -0.5307
11967SOL     OW53892   7.030   3.650   5.017  0.8311 -0.0158 -0.3956
11967SOL    HW153893   7.038   3.745   5.014  2.5042 -0.0293  1.2209
11967SOL    HW253894   6.936   3.633   5.015  0.5190  1.6270 -1.1754
11968SOL     OW53895  12.789  10.541   4.530 -0.2120 -0.0363  0.5797
11968SOL    HW153896  12.771  10.476   4.462  1.1839 -0.8092  0.9142
11968SOL    HW253897  12.778  10.494   4.612 -0.4713  0.5104  0.8673
11969SOL     OW53898  10.097   5.535   9.133  0.1174  0.0783  0.4502
11969SOL    HW153899  10.105   5.630   9.145  2.2076  0.5597 -3.4015
11969SOL    HW253900  10.004   5.521   9.117 -0.1961  1.4616  0.8895
11970SOL     OW53901  12.788   3.418  12.097  0.8809 -0.4096 -0.5020
11970SOL    HW153902  12.747   3.399  12.013  2.4573 -0.6599 -1.2565
11970SOL    HW253903  12.715   3.426  12.159 -0.3146 -0.1331 -1.9016
11971SOL     OW53904   4.340   2.470   8.397 -0.1337  0.1815 -0.0622
11971SOL    HW153905   4.290   2.517   8.331  0.0146  0.1299 -0.2119
11971SOL    HW253906   4.377   2.540   8.452  1.4727  0.3481 -1.2774
11972SOL     OW53907   9.581  11.253  12.152 -0.0089 -0.1964 -0.4044
11972SOL    HW153908   9.608  11.326  12.208 -2.0825  0.4863 -0.2208
11972SOL    HW253909   9.580  11.289  12.064 -1.8631  0.2930 -0.2153
11973SOL     OW53910   1.982  12.697   7.755 -0.0884 -0.5594  0.5269
11973SOL    HW153911   2.027  12.781   7.760 -0.9891 -0.1237  1.8625
11973SOL    HW253912   1.989  12.660   7.843  0.0723 -1.7777  0.0260
11974SOL     OW53913   5.272  13.700  12.683  0.3843  0.2994  0.3276
11974SOL    HW153914   5.199  13.638  12.693 -1.5014  2.3456  0.2423
11974SOL    HW253915   5.252  13.747  12.603 -0.0285  3.0888  1.9417
11975SOL     OW53916   9.552  13.970   6.376  0.6071  0.1297 -0.6897
11975SOL    HW153917   9.599  13.960   6.293  1.9979 -0.7635  0.1492
11975SOL    HW253918   9.498  14.048   6.364  1.5377  0.6063 -2.0835
11976SOL     OW53919   3.277  10.598   0.080 -0.0005 -0.0453  0.0048
11976SOL    HW153920   3.312  10.638  -0.000 -0.7487  0.9443  0.1500
11976SOL    HW253921   3.355  10.577   0.132  0.4298  1.2896 -0.0628
11977SOL     OW53922   5.992   3.086   4.944 -0.1490  0.5987 -0.6357
11977SOL    HW153923   5.956   2.998   4.950 -0.7945  0.9327  0.6841
11977SOL    HW253924   5.943   3.126   4.872 -1.4822  0.5859  0.2151
11978SOL     OW53925   0.808  11.041   1.469  0.2092 -0.2328  0.2390
11978SOL    HW153926   0.877  11.075   1.411 -0.9410 -0.9213 -1.6466
11978SOL    HW253927   0.835  10.951   1.487 -0.6926 -0.8944 -1.4634
11979SOL     OW53928   5.979   3.481   8.964 -0.1465  0.0350  0.0829
11979SOL    HW153929   6.059   3.447   8.922 -0.9849 -1.5244 -0.3390
11979SOL    HW253930   6.009   3.516   9.048  1.1676  0.6943 -0.6351
11980SOL     OW53931   3.270  10.668   3.553  0.3942 -0.5104 -0.3694
11980SOL    HW153932   3.245  10.707   3.469 -3.4879 -1.5553  0.1325
11980SOL    HW253933   3.254  10.736   3.618 -0.3865 -0.9296 -0.1128
11981SOL     OW53934   0.620  12.534   4.323 -0.1665  0.4075 -0.3747
11981SOL    HW153935   0.587  12.623   4.336  1.3904  1.0390 -0.5138
11981SOL    HW253936   0.584  12.507   4.239 -1.5859  0.4430  0.2056
11982SOL     OW53937   9.782  11.687   9.092 -0.4704  0.1651  0.0614
11982SOL    HW153938   9.850  11.753   9.079  0.4057 -0.1946  2.2955
11982SOL    HW253939   9.829  11.610   9.125 -1.5384 -1.4056 -1.8648
11983SOL     OW53940   9.538  13.861   3.051 -0.0135  0.2218  0.8017
11983SOL    HW153941   9.540  13.766   3.058  0.9030  0.2035  0.3664
11983SOL    HW253942   9.576  13.880   2.965 -2.2454  0.8782 -0.1383
11984SOL     OW53943   1.935   0.903   6.498  0.3972 -0.6360  0.0650
11984SOL    HW153944   1.917   0.985   6.545 -0.9572 -0.3524 -0.8941
11984SOL    HW253945   2.013   0.922   6.446  0.3795 -0.1206  0.2198
11985SOL     OW53946   4.299   7.675   4.448 -0.0134 -0.1126  0.3974
11985SOL    HW153947   4.297   7.697   4.355  1.0148  0.6995  0.5520
11985SOL    HW253948   4.207   7.667   4.474 -0.3034 -0.3115 -0.6748
11986SOL     OW53949   8.830   5.407  13.652 -0.0875  0.0075 -0.0878
11986SOL    HW153950   8.765   5.448  13.595 -1.1311 -0.3425  0.8161
11986SOL    HW253951   8.914   5.434  13.615 -0.7050 -0.5043 -2.0075
11987SOL     OW53952   5.432   0.157  12.179  0.2120 -0.3625  0.4083
11987SOL    HW153953   5.523   0.139  12.203  0.2748  0.6557  0.9881
11987SOL    HW253954   5.416   0.246  12.211 -0.6015 -0.0546 -0.7944
11988SOL     OW53955   7.721   3.817  12.221  0.2479  0.2589 -0.2248
11988SOL    HW153956   7.792   3.837  12.160 -0.0825 -0.4751 -0.8565
11988SOL    HW253957   7.665   3.756  12.174 -0.9160  0.9696  0.1849
11989SOL     OW53958   0.212   4.211   3.729 -0.6178  0.0089  0.5058
11989SOL    HW153959   0.170   4.222   3.814 -0.9600 -1.0122  0.4897
11989SOL    HW253960   0.255   4.126   3.734  0.4767  0.5233  0.1082
11990SOL     OW53961   0.860  12.816   5.327  0.1801 -0.3502  0.0896
11990SOL    HW153962   0.900  12.732   5.304  0.3604 -0.2073 -0.1231
11990SOL    HW253963   0.888  12.832   5.417 -0.1951 -0.7161  0.2766
11991SOL     OW53964   6.700   9.588   0.033 -0.2299 -0.3845 -0.1663
11991SOL    HW153965   6.737   9.519   0.088  1.1529  0.4268 -0.0376
11991SOL    HW253966   6.606   9.580   0.045 -0.0486 -1.6746  0.5416
11992SOL     OW53967   4.962   4.484  13.091  0.0940  0.0352 -0.2175
11992SOL    HW153968   4.889   4.422  13.082 -0.2012  0.5561 -1.6642
11992SOL    HW253969   4.920   4.570  13.084  0.7954  0.3451 -0.6996
11993SOL     OW53970   1.006   2.818   6.058 -0.8397  0.5053 -0.4146
11993SOL    HW153971   0.912   2.808   6.073 -0.6192  0.4127  1.0642
11993SOL    HW253972   1.016   2.907   6.024 -1.4659  0.4996 -0.6121
11994SOL     OW53973   5.295   9.862   2.820  0.0538  0.0128  0.1214
11994SOL    HW153974   5.341   9.920   2.759  1.2068 -1.8020 -0.8186
11994SOL    HW253975   5.215   9.838   2.773 -0.3843  0.7443  0.4770
11995SOL     OW53976   4.002   1.476   9.028  0.2231  0.5822 -0.2669
11995SOL    HW153977   4.007   1.391   8.984  0.7340  1.0938 -1.2428
11995SOL    HW253978   4.032   1.459   9.117 -1.3478 -0.5917  0.0659
11996SOL     OW53979   8.480  10.657  10.235 -0.6567  0.0380  0.4915
11996SOL    HW153980   8.420  10.585  10.255 -0.3716 -0.8140 -1.4683
11996SOL    HW253981   8.567  10.619  10.247 -0.5099  0.3340  0.3750
11997SOL     OW53982  13.778   2.493   2.532 -0.1142  0.0801 -0.4137
11997SOL    HW153983  13.839   2.451   2.594  0.4041 -0.0149 -0.9781
11997SOL    HW253984  13.701   2.513   2.585 -0.4449 -1.7103 -0.1590
11998SOL     OW53985   7.468  10.744   2.794 -0.1691  0.2868  0.1792
11998SOL    HW153986   7.449  10.682   2.864 -0.1222  1.5199  1.3181
11998SOL    HW253987   7.563  10.755   2.796 -0.1819  0.4357  0.0085
11999SOL     OW53988   0.096   8.744   2.376  0.2173  0.4906 -0.0786
11999SOL    HW153989   0.036   8.805   2.417  1.7896  1.4913  0.8544
11999SOL    HW253990   0.126   8.687   2.447 -0.9658 -1.2178 -0.8719
12000SOL     OW53991   7.007   9.460   9.102 -0.2077 -0.1143  0.3149
12000SOL    HW153992   7.101   9.445   9.110 -0.0393  1.7813  3.0378
12000SOL    HW253993   6.969   9.418   9.178 -1.7817 -1.7328 -1.2709
12001SOL     OW53994   5.572  10.788   9.940  0.0170 -0.0664  0.0994
12001SOL    HW153995   5.547  10.878   9.921 -1.3706 -0.6300 -0.8280
12001SOL    HW253996   5.631  10.764   9.869  1.2461  0.4181  0.9118
12002SOL     OW53997   9.775   2.371  13.691 -0.0113  0.2939  0.0153
12002SOL    HW153998   9.694   2.348  13.644 -0.3154  0.6601  0.3532
12002SOL    HW253999   9.753   2.361  13.783  0.1603  0.9349  0.1295
12003SOL     OW54000   8.354  10.680  14.087  0.3564 -0.3298  0.1318
12003SOL    HW154001   8.433  10.626  14.094  0.4829  0.0727  2.5417
12003SOL    HW254002   8.285  10.627  14.125 -0.5532 -0.5959 -1.7895
12004SOL     OW54003   5.623   3.316   9.715  0.3680 -0.0700  0.3691
12004SOL    HW154004   5.713   3.294   9.692  0.8519  2.9738 -1.0838
12004SOL    HW254005   5.630   3.357   9.801  0.1263 -1.0388  0.8713
12005SOL     OW54006   7.617   6.311  12.176  0.3226 -0.2108  0.2968
12005SOL    HW154007   7.678   6.239  12.166  2.0491  1.2986 -0.6924
12005SOL    HW254008   7.603   6.318  12.271  2.6489  0.1151  0.6693
12006SOL     OW54009   7.076   4.687   0.833  0.3793 -0.9193 -0.1038
12006SOL    HW154010   7.166   4.716   0.848 -0.1826  0.6026  0.5743
12006SOL    HW254011   7.076   4.595   0.859  1.8084 -1.0392 -0.4411
12007SOL     OW54012   9.345   4.327   3.604  0.0791  0.4053  0.1752
12007SOL    HW154013   9.279   4.380   3.559  0.3870  0.1405 -0.6204
12007SOL    HW254014   9.346   4.360   3.693 -1.0878  0.4493  0.1847
12008SOL     OW54015   2.222   1.933   7.723 -0.7377 -0.3626  0.2842
12008SOL    HW154016   2.262   1.875   7.658  0.1070  0.3796  0.1132
12008SOL    HW254017   2.149   1.883   7.758 -0.5005 -1.2283 -0.4064
12009SOL     OW54018   7.307   6.442   6.640  0.3282  0.0772 -0.5039
12009SOL    HW154019   7.306   6.466   6.547 -0.4957 -3.3293 -1.5120
12009SOL    HW254020   7.360   6.510   6.682 -1.2623  3.1126 -2.9907
12010SOL     OW54021   9.303  11.339   8.426  0.4709  0.6295 -0.1949
12010SOL    HW154022   9.395  11.317   8.437  0.4652 -0.1713 -1.4913
12010SOL    HW254023   9.262  11.257   8.396 -0.7440  0.8630  0.7642
12011SOL     OW54024  12.909   4.392  11.906  0.1544  0.1214 -0.2823
12011SOL    HW154025  12.891   4.472  11.954  1.7629  1.3579 -1.6308
12011SOL    HW254026  12.823   4.362  11.875 -0.4698  1.2751  0.2809
12012SOL     OW54027   5.041  11.281   8.887 -0.4481 -0.1778 -0.9555
12012SOL    HW154028   5.042  11.185   8.886 -0.4415 -0.1897 -0.2780
12012SOL    HW254029   5.122  11.306   8.843 -0.7878 -0.4706 -1.7640
12013SOL     OW54030   5.055  11.005   8.882 -0.6429 -0.5918  0.0203
12013SOL    HW154031   4.997  10.968   8.815 -0.2677 -0.6864 -0.2575
12013SOL    HW254032   5.035  10.955   8.961 -0.3282 -1.2157 -0.2860
12014SOL     OW54033   0.808   7.869  10.489 -0.1993  0.7515  0.2803
12014SOL    HW154034   0.810   7.965  10.486  0.2891  0.7635  0.8209
12014SOL    HW254035   0.854   7.847  10.570  0.4847  0.0276 -0.2914
12015SOL     OW54036   6.831   8.607   4.118  0.3619  0.3390  0.1160
12015SOL    HW154037   6.925   8.625   4.116  0.8071 -1.6347  0.5420
12015SOL    HW254038   6.818   8.562   4.202 -1.0339  0.9010  0.2180
12016SOL     OW54039   8.161   2.813   0.979 -0.0659  0.5176  1.0132
12016SOL    HW154040   8.117   2.791   1.062  1.5522  0.2373  1.8390
12016SOL    HW254041   8.110   2.886   0.944 -1.2077  0.1858  1.8990
12017SOL     OW54042   2.546   6.839  12.510 -0.4464 -0.4994 -0.5258
12017SOL    HW154043   2.574   6.886  12.589  0.8369  0.8228 -1.6994
12017SOL    HW254044   2.476   6.781  12.540  0.4840 -0.5828  1.7150
12018SOL     OW54045   9.616   4.561   4.040 -0.1218  0.0784 -1.1186
12018SOL    HW154046   9.580   4.576   4.127  0.8174 -0.5762 -0.6009
12018SOL    HW254047   9.559   4.611   3.981  1.0488  3.1860  0.1604
12019SOL     OW54048   1.724   0.706  14.041  0.3509  0.3443  0.1097
12019SOL    HW154049   1.658   0.740  13.980 -0.3383 -0.2737  0.5018
12019SOL    HW254050   1.679   0.703  14.126  0.8383 -0.2167  0.3539
12020SOL     OW54051  10.968  10.420  12.986  0.0192  0.3989  0.3478
12020SOL    HW154052  10.915  10.399  13.063  0.5987 -0.6914  0.4681
12020SOL    HW254053  11.057  10.432  13.020  0.1210  0.8139 -0.0420
12021SOL     OW54054   6.515   0.612   8.863  0.1435 -0.3154 -0.1232
12021SOL    HW154055   6.424   0.633   8.884  0.8254  0.7595  2.0475
12021SOL    HW254056   6.554   0.695   8.838  0.7202 -0.6196 -0.2540
12022SOL     OW54057   7.609   9.922   3.127 -0.5044  0.0929 -0.7782
12022SOL    HW154058   7.600   9.846   3.070 -2.3517 -0.1777 -0.1736
12022SOL    HW254059   7.579   9.996   3.074 -1.1586  0.0085 -0.5271
12023SOL     OW54060  10.332  13.204   9.682 -0.6242 -0.1928  0.5080
12023SOL    HW154061  10.407  13.148   9.663 -0.5232 -0.4143  1.4725
12023SOL    HW254062  10.345  13.231   9.773 -3.4222 -3.0502  1.9405
12024SOL     OW54063   5.346  13.641   8.100 -0.0177 -0.1793  0.3539
12024SOL    HW154064   5.252  13.654   8.085  0.4279  2.9409 -0.4320
12024SOL    HW254065   5.369  13.568   8.042 -1.6130  0.3413 -1.0258
12025SOL     OW54066   2.267   8.655   8.528  0.1997  0.5637 -0.7131
12025SOL    HW154067   2.252   8.580   8.472  1.6244  1.0484 -1.7936
12025SOL    HW254068   2.225   8.728   8.483 -2.9316  0.1856  1.2838
12026SOL     OW54069   1.902   2.224  10.914  0.1609  0.5694 -0.2452
12026SOL    HW154070   1.962   2.188  10.980  0.1532  1.0029  0.0070
12026SOL    HW254071   1.869   2.304  10.954 -2.4792 -0.8597  0.6691
12027SOL     OW54072   1.372   1.914  13.368 -0.3867 -0.1581  0.5386
12027SOL    HW154073   1.459   1.953  13.378 -0.4658 -0.1062  1.0430
12027SOL    HW254074   1.311   1.985  13.385 -0.5305 -0.5215  1.6039
12028SOL     OW54075   4.889  13.737   7.497 -0.6632  0.6081 -0.7168
12028SOL    HW154076   4.869  13.821   7.537 -2.1222  0.4031 -0.9364
12028SOL    HW254077   4.865  13.748   7.405 -2.1459 -0.3977 -0.4973
12029SOL     OW54078   8.880  10.073   1.665  0.5791  0.8635  0.1432
12029SOL    HW154079   8.841  10.082   1.752  2.6750  2.0201  1.0472
12029SOL    HW254080   8.973  10.060   1.682  0.8963  0.0391 -1.9283
12030SOL     OW54081   9.954   9.300   2.630  0.6585  0.0661 -0.0240
12030SOL    HW154082  10.009   9.284   2.706  1.6208  3.1018  0.0638
12030SOL    HW254083   9.877   9.344   2.665  0.6106  0.5165 -0.6768
12031SOL     OW54084   2.904   5.817   6.016  0.8447 -0.1456  0.1072
12031SOL    HW154085   2.837   5.752   5.992  0.9968 -0.3981  0.3576
12031SOL    HW254086   2.896   5.885   5.950  1.4034 -0.9326 -0.8032
12032SOL     OW54087   5.470   9.973   1.139 -0.2082  0.0407 -0.0959
12032SOL    HW154088   5.483   9.954   1.232 -2.5163 -0.4437  0.1845
12032SOL    HW254089   5.380  10.004   1.133 -0.2737 -0.4015 -2.2370
12033SOL     OW54090  12.844  10.901   8.101  0.5264  0.4999 -0.4090
12033SOL    HW154091  12.868  10.841   8.031  0.5114 -0.4492  0.3812
12033SOL    HW254092  12.889  10.867   8.178 -1.3983  0.0737  0.5852
12034SOL     OW54093   3.770  11.980   2.618 -0.2882  0.1757  0.1854
12034SOL    HW154094   3.838  11.968   2.552  0.2341 -0.4243  0.8174
12034SOL    HW254095   3.701  11.918   2.594 -0.7378  0.9691 -0.6044
12035SOL     OW54096   9.821   4.894   8.502 -0.1407 -0.0899  0.5623
12035SOL    HW154097   9.795   4.833   8.571  2.2635 -1.3901  0.4184
12035SOL    HW254098   9.802   4.849   8.420  0.1296  0.0433  0.4242
12036SOL     OW54099   1.015  12.139   7.852 -0.1162 -0.2196 -0.0631
12036SOL    HW154100   0.963  12.144   7.932 -0.1750  0.7974 -0.1521
12036SOL    HW254101   0.956  12.103   7.786 -0.0542 -1.1016  0.3469
12037SOL     OW54102  10.319  14.111  13.817 -0.1101 -0.2461  0.0048
12037SOL    HW154103  10.336  14.050  13.746 -1.3407  0.6123 -1.0733
12037SOL    HW254104  10.233  14.085  13.850 -0.7636  1.0158 -0.6316
12038SOL     OW54105  11.493  10.714   2.206 -0.0018 -0.4734  0.3302
12038SOL    HW154106  11.441  10.764   2.269  0.2981 -1.3851  1.3391
12038SOL    HW254107  11.563  10.773   2.179  0.4432 -0.3770  1.6277
12039SOL     OW54108  10.953   2.717   2.771 -0.4758  0.4151  0.0509
12039SOL    HW154109  10.986   2.641   2.819  1.2832  1.2213  0.1990
12039SOL    HW254110  10.952   2.787   2.836 -0.3727  0.9359 -0.5084
12040SOL     OW54111   7.387   2.452  10.000  0.4168  0.5238  0.1917
12040SOL    HW154112   7.482   2.459  10.010  0.4887  0.7977 -0.6682
12040SOL    HW254113   7.357   2.543   9.998  0.1043  0.4373  0.6588
12041SOL     OW54114   4.460   9.051   0.942 -0.3026  0.5596  0.5667
12041SOL    HW154115   4.400   9.067   1.014  0.0253  0.8776  0.7737
12041SOL    HW254116   4.431   8.967   0.905 -1.2361  0.9921  0.2862
12042SOL     OW54117  11.753   7.891   9.117  0.1712 -0.1675  0.0402
12042SOL    HW154118  11.730   7.981   9.097  0.7440  0.2670  1.1914
12042SOL    HW254119  11.741   7.843   9.035 -1.1776  0.7362 -0.3111
12043SOL     OW54120   9.338   8.641  13.392 -0.4845 -0.4021 -0.3547
12043SOL    HW154121   9.348   8.735  13.382 -2.4404 -0.0645  0.4619
12043SOL    HW254122   9.359   8.605  13.306  1.3044  0.6450 -0.4069
12044SOL     OW54123   1.317   0.337  12.487 -0.8691 -0.1075 -0.5084
12044SOL    HW154124   1.353   0.422  12.463  0.1469  0.2470  2.0063
12044SOL    HW254125   1.222   0.348  12.478 -0.8991  1.9095  1.3732
12045SOL     OW54126  10.963  12.129   7.285 -0.5253  0.2303 -0.2593
12045SOL    HW154127  11.024  12.057   7.302 -0.0780  1.0206  1.8585
12045SOL    HW254128  11.016  12.197   7.243  0.1622  0.9266  1.5997
12046SOL     OW54129   6.455   5.467   9.265  0.4784 -0.6756  0.0832
12046SOL    HW154130   6.544   5.480   9.231 -0.1317  3.0561 -0.5324
12046SOL    HW254131   6.466   5.462   9.360  1.4189 -2.0039 -0.0583
12047SOL     OW54132   1.786   0.406   0.866  0.3508  0.6289 -0.2752
12047SOL    HW154133   1.754   0.355   0.791  0.7138 -1.4675  0.9183
12047SOL    HW254134   1.706   0.442   0.906  0.0236  0.4960 -0.7974
12048SOL     OW54135   2.101   3.827   5.836 -0.3717  0.8740 -0.1791
12048SOL    HW154136   2.156   3.804   5.761  0.5378  1.1275  0.3999
12048SOL    HW254137   2.027   3.874   5.797 -0.8528 -0.5690 -1.0864
12049SOL     OW54138   1.402   0.157   7.739 -0.2507 -0.1329 -0.3870
12049SOL    HW154139   1.475   0.194   7.689 -0.9400 -0.2020 -1.4859
12049SOL    HW254140   1.412   0.193   7.827  0.6811  0.4443 -0.7161
12050SOL     OW54141   7.389   7.039  12.732 -0.6285 -0.0473 -0.0950
12050SOL    HW154142   7.423   6.981  12.800  0.4709  1.4994  0.7255
12050SOL    HW254143   7.454   7.033  12.662 -0.4012  0.3680  0.0823
12051SOL     OW54144   3.155   7.907   2.059  0.4438 -0.1607  0.3508
12051SOL    HW154145   3.153   7.969   1.986 -0.3370  0.1433  0.6223
12051SOL    HW254146   3.092   7.839   2.033  0.7112 -0.4307  0.4111
12052SOL     OW54147  13.491   4.066  13.390 -0.1172  0.5404 -0.1109
12052SOL    HW154148  13.428   4.107  13.450  0.2532 -0.8233  1.2958
12052SOL    HW254149  13.536   4.139  13.349 -0.7656  1.5362  0.8839
12053SOL     OW54150   9.201  12.183   8.402  0.1680 -0.6302 -0.6239
12053SOL    HW154151   9.249  12.263   8.382  0.0879 -0.2678  0.5343
12053SOL    HW254152   9.240  12.152   8.484 -0.8485 -0.9256 -0.2424
12054SOL     OW54153   7.631   1.542   2.747  0.0777  0.2382  0.1908
12054SOL    HW154154   7.596   1.597   2.677 -0.9798 -0.0652  0.4694
12054SOL    HW254155   7.565   1.474   2.761 -0.2084  0.8474  2.1424
12055SOL     OW54156   1.454  12.407   6.784 -0.0043 -0.5530  0.0970
12055SOL    HW154157   1.423  12.446   6.866  2.1718  1.0859  0.2310
12055SOL    HW254158   1.423  12.466   6.716  2.5960  1.1171  0.2343
12056SOL     OW54159  10.566   6.479   9.311  0.1318  0.0339  0.3227
12056SOL    HW154160  10.574   6.520   9.225  1.2336  1.1201  0.9116
12056SOL    HW254161  10.541   6.388   9.292  0.5401  0.2003 -1.1433
12057SOL     OW54162  13.238   8.266   1.629 -0.4085  0.5068  0.2677
12057SOL    HW154163  13.223   8.188   1.683 -1.3131  0.7153  0.3426
12057SOL    HW254164  13.314   8.244   1.576 -0.6160 -0.4118  0.3236
12058SOL     OW54165  10.316  12.922   8.587  0.3980  0.2818  0.0291
12058SOL    HW154166  10.369  12.945   8.664 -0.8511  1.3465  0.6046
12058SOL    HW254167  10.304  12.827   8.594  2.4744 -0.0534 -0.3110
12059SOL     OW54168  12.967  12.911   3.639 -0.1390  0.5917  0.0058
12059SOL    HW154169  12.939  13.002   3.651 -0.5294  0.5321 -0.4397
12059SOL    HW254170  12.961  12.897   3.545 -0.0397  0.1130  0.0712
12060SOL     OW54171   5.818  11.806   4.325 -0.2300  0.3823  0.3759
12060SOL    HW154172   5.742  11.794   4.382  0.2610 -0.4367  0.8716
12060SOL    HW254173   5.780  11.821   4.238 -0.9857 -1.3949  0.3369
12061SOL     OW54174  11.728   5.303   1.962  0.3713 -0.0544 -0.0777
12061SOL    HW154175  11.727   5.344   2.049 -1.6438 -0.6009  0.2087
12061SOL    HW254176  11.800   5.346   1.916  0.8383  0.9735  1.5115
12062SOL     OW54177  11.759   3.964  11.152  0.1565  0.0056  0.0293
12062SOL    HW154178  11.759   3.910  11.231 -0.7606  0.2469  0.2068
12062SOL    HW254179  11.849   3.997  11.145  0.4452 -0.6593  0.5226
12063SOL     OW54180  11.692   4.507   6.666  0.3067 -0.4472 -0.0550
12063SOL    HW154181  11.741   4.557   6.731 -0.2915  0.5353 -0.3466
12063SOL    HW254182  11.704   4.416   6.693 -2.1765 -0.0254  3.1256
12064SOL     OW54183   1.231  11.857  12.118  0.1863  0.2251 -0.4170
12064SOL    HW154184   1.231  11.794  12.045 -0.0075 -0.3127  0.0399
12064SOL    HW254185   1.157  11.914  12.100  0.1820  0.1418 -0.6769
12065SOL     OW54186   4.766  13.273  12.294  0.2634  0.4606  0.0247
12065SOL    HW154187   4.842  13.266  12.237  1.2922  0.4829  1.3602
12065SOL    HW254188   4.692  13.282  12.234  1.2163 -0.3205 -1.3153
12066SOL     OW54189   0.358   1.403   3.788 -0.0708 -0.3098 -0.2445
12066SOL    HW154190   0.434   1.408   3.730  0.2497  0.2429  0.2176
12066SOL    HW254191   0.392   1.363   3.868 -0.6139 -1.5100 -0.5884
12067SOL     OW54192   5.811  11.044   2.363  0.2259 -0.6055  0.6486
12067SOL    HW154193   5.866  10.997   2.300  0.2788  1.9231 -1.3786
12067SOL    HW254194   5.727  10.999   2.359  0.2760 -0.6272 -1.1706
12068SOL     OW54195   0.771   6.440   9.560 -0.5152 -0.2217 -0.1007
12068SOL    HW154196   0.799   6.366   9.505  1.1696  1.3849 -1.5081
12068SOL    HW254197   0.851   6.470   9.602 -1.0334  1.3214 -0.1797
12069SOL     OW54198   1.257  13.324   8.665 -0.3451  0.0532 -0.0374
12069SOL    HW154199   1.257  13.412   8.629  0.1515  0.1199  0.1201
12069SOL    HW254200   1.297  13.270   8.597 -0.9036 -0.1019 -0.2473
12070SOL     OW54201   4.602  12.635   1.632  0.6071 -0.2708  0.2091
12070SOL    HW154202   4.530  12.666   1.687  1.3603  0.0415  1.0440
12070SOL    HW254203   4.661  12.589   1.692  1.1912 -0.3810 -0.4289
12071SOL     OW54204   7.225   6.318   9.163 -0.1118  0.0085  0.5385
12071SOL    HW154205   7.243   6.380   9.233 -2.5969  0.4014  0.9189
12071SOL    HW254206   7.304   6.265   9.157  1.0427  1.4489  2.0404
12072SOL     OW54207  12.227   8.675   6.859 -0.4019  0.1546  0.1866
12072SOL    HW154208  12.245   8.759   6.902  0.4432  0.1348 -0.1214
12072SOL    HW254209  12.311   8.648   6.822  0.1047 -2.3418  2.8585
12073SOL     OW54210  13.032  10.616  12.936  0.2762  0.0295  0.0361
12073SOL    HW154211  13.043  10.586  13.026  1.7645  0.7744  0.1439
12073SOL    HW254212  13.109  10.583  12.890 -0.5621 -0.5085 -1.0213
12074SOL     OW54213  12.545   0.965  12.218  0.1812  0.1286 -0.2153
12074SOL    HW154214  12.622   0.972  12.162  1.6133  0.2331  1.6804
12074SOL    HW254215  12.503   0.883  12.191  1.8219 -0.7294 -0.2607
12075SOL     OW54216   7.004  13.063   2.131 -0.9215 -0.0082 -0.3198
12075SOL    HW154217   7.032  13.145   2.170  0.0572 -0.4529 -0.0551
12075SOL    HW254218   6.964  13.014   2.202 -0.0074 -0.4247 -0.0770
12076SOL     OW54219   7.224   7.637   2.803 -0.3266  0.0063  0.4575
12076SOL    HW154220   7.198   7.633   2.710 -0.2852 -0.2122  0.4560
12076SOL    HW254221   7.290   7.706   2.806 -0.9504  0.6167  0.4689
12077SOL     OW54222  13.261   6.374   3.009  0.2263 -0.4658  0.4888
12077SOL    HW154223  13.212   6.446   2.969 -3.0439 -1.8289  1.6992
12077SOL    HW254224  13.337   6.362   2.952  0.5488  3.3739 -0.1709
12078SOL     OW54225   1.636  12.475  12.199 -0.3206  0.3482 -0.3358
12078SOL    HW154226   1.588  12.393  12.189  0.7481 -0.0182 -3.0887
12078SOL    HW254227   1.626  12.519  12.115 -0.1781  2.7159  0.7956
12079SOL     OW54228   4.049   9.359   5.841  0.0642 -0.2571  0.5302
12079SOL    HW154229   4.012   9.411   5.912 -0.2408  1.7729 -0.9982
12079SOL    HW254230   4.056   9.421   5.768  1.3189 -1.9799 -0.8993
12080SOL     OW54231  12.727  10.344  13.166 -0.1620  0.1691  0.1433
12080SOL    HW154232  12.704  10.299  13.248 -0.5186  0.0790 -0.0037
12080SOL    HW254233  12.810  10.304  13.139  0.2535  0.5902  0.7487
12081SOL     OW54234  10.565   0.393   8.020  0.0558  0.3360  0.8141
12081SOL    HW154235  10.483   0.354   8.049  0.7564  0.9848  4.0787
12081SOL    HW254236  10.560   0.484   8.049  1.4836  0.6601  0.1215
12082SOL     OW54237   9.837   7.882  13.579  0.0916 -0.4015  0.1765
12082SOL    HW154238   9.923   7.918  13.556  0.3726 -0.5396  0.9962
12082SOL    HW254239   9.806   7.937  13.651 -0.2554 -0.7116  0.2648
12083SOL     OW54240   4.107   1.053   4.971 -0.1530  0.6369  0.3335
12083SOL    HW154241   4.146   1.138   4.993 -1.3563  2.1667 -2.8518
12083SOL    HW254242   4.014   1.072   4.959 -0.4576 -1.1454 -0.3480
12084SOL     OW54243   8.602   6.191  12.827  0.6905 -0.5888  0.6526
12084SOL    HW154244   8.665   6.130  12.866  1.8196 -0.2300 -0.5062
12084SOL    HW254245   8.591   6.159  12.738  1.7137  1.1502 -0.1449
12085SOL     OW54246   7.715  10.643   2.166 -0.5850  0.1291 -0.7831
12085SOL    HW154247   7.742  10.577   2.230 -0.7712  1.1409  0.3754
12085SOL    HW254248   7.794  10.658   2.113 -1.0519 -2.3635 -2.3334
12086SOL     OW54249   6.612   7.199  11.872  0.2610 -0.0477  0.0971
12086SOL    HW154250   6.592   7.291  11.890 -0.7934 -0.1142 -0.6131
12086SOL    HW254251   6.532   7.165  11.832  0.9882 -1.0175 -0.5750
12087SOL     OW54252   5.311   2.103  10.937  0.1230  0.1989 -0.3939
12087SOL    HW154253   5.217   2.094  10.919 -0.0514  1.1505 -0.0222
12087SOL    HW254254   5.342   2.162  10.868  0.1661  0.9753  0.2732
12088SOL     OW54255   2.809   5.019   5.550  0.2787  0.2449 -0.7273
12088SOL    HW154256   2.735   5.080   5.544 -0.9702 -1.0275  0.7800
12088SOL    HW254257   2.786   4.947   5.491  0.6590  0.1661 -0.7831
12089SOL     OW54258   4.386   0.813   5.369 -0.2271 -0.8761  0.1113
12089SOL    HW154259   4.332   0.788   5.444 -0.4142 -2.2845 -0.4604
12089SOL    HW254260   4.325   0.852   5.307 -0.3507 -1.1878  0.0364
12090SOL     OW54261  10.248  10.008  10.573 -0.1323  0.4670 -0.6130
12090SOL    HW154262  10.222  10.095  10.604  0.4508  1.4133 -2.6056
12090SOL    HW254263  10.165   9.962  10.559 -0.4844  1.0734 -0.5566
12091SOL     OW54264   8.350  14.092   2.022 -0.8434  0.1377  0.1565
12091SOL    HW154265   8.363  14.074   2.115 -1.9412 -1.0977  0.1012
12091SOL    HW254266   8.432  14.132   1.994 -0.3147  0.0898  1.5490
12092SOL     OW54267  12.540  14.117  13.860  0.1369  0.2577  0.2989
12092SOL    HW154268  12.474  14.048  13.855  1.1174 -0.6550 -0.2060
12092SOL    HW254269  12.562  14.122  13.953 -1.5423  1.4729  0.6903
12093SOL     OW54270  10.343   9.597   9.423 -0.0795  0.4730 -0.1610
12093SOL    HW154271  10.410   9.533   9.447  0.2409 -0.0846 -2.2623
12093SOL    HW254272  10.261   9.548   9.428  0.1449 -0.1088 -1.5618
12094SOL     OW54273  11.206  13.916  12.049  0.1313 -0.2189 -0.1883
12094SOL    HW154274  11.236  13.885  12.134 -2.3080  0.4674  1.0280
12094SOL    HW254275  11.264  13.874  11.985  2.6701  0.0310  1.8212
12095SOL     OW54276   4.208   8.653   7.642 -0.0931 -0.0395 -0.9759
12095SOL    HW154277   4.196   8.668   7.736 -0.5604  0.3270 -1.0930
12095SOL    HW254278   4.260   8.572   7.637  0.3488  0.2007 -0.3950
12096SOL     OW54279   4.811   4.844   7.861 -0.0404 -0.7837 -0.3478
12096SOL    HW154280   4.850   4.866   7.946 -1.2420 -0.0695  0.0522
12096SOL    HW254281   4.881   4.856   7.798 -0.0632  2.4454  0.0785
12097SOL     OW54282  11.207  10.150  11.098  0.4106 -0.1799  0.0659
12097SOL    HW154283  11.143  10.165  11.030  1.2441  0.2472 -0.6469
12097SOL    HW254284  11.180  10.068  11.139  0.6155 -1.1629 -1.6562
12098SOL     OW54285   5.436  11.457   6.443 -0.1282  0.4555 -0.4429
12098SOL    HW154286   5.369  11.395   6.412 -0.8849  1.7186 -1.4242
12098SOL    HW254287   5.469  11.417   6.524 -2.8668  0.3027  0.7340
12099SOL     OW54288   7.651   9.787  10.860 -0.0699  0.2777 -0.0578
12099SOL    HW154289   7.623   9.706  10.904  1.0343  0.5588  1.2375
12099SOL    HW254290   7.609   9.857  10.909 -0.6205  0.5159 -0.8629
12100SOL     OW54291   1.076  12.315   4.415  0.6748 -0.1711 -0.0188
12100SOL    HW154292   0.992  12.291   4.377  0.5189 -0.7441  0.6565
12100SOL    HW254293   1.113  12.379   4.354 -1.5021  2.2936  1.0528
12101SOL     OW54294   5.528   2.771   3.164 -0.2240 -0.2151 -0.5193
12101SOL    HW154295   5.546   2.762   3.257  1.2609  0.6799 -0.6943
12101SOL    HW254296   5.614   2.781   3.123 -0.8318 -0.7740 -2.0180
12102SOL     OW54297   2.201   8.734  13.700 -0.1031  0.0503  0.3625
12102SOL    HW154298   2.113   8.716  13.732  1.1258 -1.8464  3.1484
12102SOL    HW254299   2.212   8.829  13.711 -2.0449  0.4719 -0.9507
12103SOL     OW54300  11.300  13.452   2.532  0.5556  0.3586 -0.3253
12103SOL    HW154301  11.351  13.371   2.530 -1.1169 -0.7403 -1.2407
12103SOL    HW254302  11.294  13.474   2.625  1.6776 -0.1322 -0.1194
12104SOL     OW54303  10.526   7.172   6.706  0.5330 -0.1034  0.0827
12104SOL    HW154304  10.574   7.114   6.764 -0.7052 -1.5555 -0.2882
12104SOL    HW254305  10.588   7.242   6.684  1.5551 -0.4410  1.7687
12105SOL     OW54306  10.229   0.516   7.795 -0.0393  0.4415 -0.1224
12105SOL    HW154307  10.213   0.610   7.793 -2.9906  0.0213 -1.9159
12105SOL    HW254308  10.259   0.494   7.707 -0.0091 -0.3885  0.0829
12106SOL     OW54309   0.505  10.928   0.626 -0.2771  0.2773 -0.0126
12106SOL    HW154310   0.437  10.932   0.559  0.0754  0.5387 -0.3608
12106SOL    HW254311   0.584  10.899   0.580  0.1113  1.0186  0.1556
12107SOL     OW54312  13.017   2.984   3.338  0.5367  0.1403 -0.2437
12107SOL    HW154313  13.075   3.060   3.332 -0.9084  1.4169  1.0261
12107SOL    HW254314  13.073   2.915   3.374  1.4713  1.0946  0.1990
12108SOL     OW54315  13.667  11.749   7.347  0.6652  0.1430 -0.1590
12108SOL    HW154316  13.654  11.826   7.292  2.4419  0.2018 -0.5430
12108SOL    HW254317  13.693  11.784   7.432  0.6474 -0.0199 -0.0856
12109SOL     OW54318  11.032  10.380  11.531 -0.0493  0.0880  0.0267
12109SOL    HW154319  11.077  10.406  11.451 -1.4580  1.5783 -0.3432
12109SOL    HW254320  11.073  10.432  11.601  0.2976 -0.2172  0.0461
12110SOL     OW54321   1.675   2.713  13.275 -0.4223 -0.8438  0.4090
12110SOL    HW154322   1.710   2.641  13.222  0.2664 -0.6243  0.5517
12110SOL    HW254323   1.740   2.725  13.344 -0.1652  0.3672 -0.0135
12111SOL     OW54324  10.709   6.185  12.615  0.2262 -0.0391  0.1665
12111SOL    HW154325  10.779   6.164  12.552 -1.3519  0.1771 -1.7600
12111SOL    HW254326  10.656   6.251  12.570 -0.6803  0.5074  1.9694
12112SOL     OW54327   1.773  13.494   8.766 -0.6979  0.5917 -0.0474
12112SOL    HW154328   1.775  13.493   8.670  4.0406 -1.9406 -0.2229
12112SOL    HW254329   1.703  13.432   8.789 -1.0733  0.2698 -1.8995
12113SOL     OW54330  10.309  13.342   8.041 -0.1213  0.3824  0.0331
12113SOL    HW154331  10.320  13.407   8.110 -0.0487  1.7644 -1.2093
12113SOL    HW254332  10.293  13.260   8.087  1.6422  0.9009  1.7139
12114SOL     OW54333  11.570   7.672   2.087  0.0076  0.1215 -0.4854
12114SOL    HW154334  11.633   7.734   2.051 -0.1883  0.5960 -0.0130
12114SOL    HW254335  11.502   7.726   2.128 -1.5389 -0.3277 -2.3189
12115SOL     OW54336  13.687   0.714   0.976  0.1078  0.1406  0.3627
12115SOL    HW154337  13.618   0.713   1.042 -0.2689 -1.3507 -0.0303
12115SOL    HW254338  13.672   0.636   0.923  1.1991  0.5957 -0.6731
12116SOL     OW54339  13.163   3.190   5.259 -0.5715 -0.2568 -0.0255
12116SOL    HW154340  13.213   3.227   5.332  1.2668 -3.2106  0.3695
12116SOL    HW254341  13.174   3.254   5.188  0.1358  1.2239  1.3468
12117SOL     OW54342   2.887   5.954   8.576  0.3701 -0.1592 -0.6888
12117SOL    HW154343   2.819   6.001   8.527 -0.3606  0.1207  0.5489
12117SOL    HW254344   2.914   6.015   8.644 -0.3080 -1.3453  0.7025
12118SOL     OW54345   6.020   9.374   1.780  0.4267  0.0365  0.6737
12118SOL    HW154346   6.079   9.298   1.771  0.3918  0.2016 -1.4496
12118SOL    HW254347   5.945   9.339   1.827 -0.4363 -1.8507 -1.8415
12119SOL     OW54348   1.171  13.682  10.644  0.7119 -0.0039  0.1243
12119SOL    HW154349   1.237  13.750  10.654  0.6882  0.1657 -0.7828
12119SOL    HW254350   1.214  13.614  10.593  0.6644 -0.5763  0.8374
12120SOL     OW54351  12.945   9.841   1.932 -0.1647 -0.1906  0.3302
12120SOL    HW154352  12.997   9.786   1.874  0.2539 -0.4843  0.9697
12120SOL    HW254353  12.991   9.926   1.931  0.0936 -0.3269  0.5754
12121SOL     OW54354  13.642   5.066   0.209  0.2674  0.0390  0.2931
12121SOL    HW154355  13.704   5.122   0.161  1.5016 -1.9760 -0.6062
12121SOL    HW254356  13.676   4.977   0.196 -2.5682 -1.1198  0.1775
12122SOL     OW54357   2.586   2.708  13.028  0.3729 -0.5911  0.6433
12122SOL    HW154358   2.607   2.720  12.936  1.3689 -1.1621  0.7748
12122SOL    HW254359   2.547   2.791  13.056 -0.9686 -0.7871 -0.5480
12123SOL     OW54360   2.155   0.343   6.050 -0.0979 -0.4677  0.4078
12123SOL    HW154361   2.239   0.339   6.004 -0.5294  0.5325 -0.5064
12123SOL    HW254362   2.130   0.252   6.062  1.0304 -0.7791  0.5465
12124SOL     OW54363   0.152   2.644   9.731  0.1904  0.5931 -0.1005
12124SOL    HW154364   0.206   2.701   9.785  1.6528 -1.3640  0.6254
12124SOL    HW254365   0.115   2.581   9.792  0.8834 -0.9176 -1.1748
12125SOL     OW54366   2.357   5.578   8.751  0.0771  0.3853 -0.3203
12125SOL    HW154367   2.408   5.657   8.768 -0.2219  0.7448 -1.0398
12125SOL    HW254368   2.419   5.518   8.709  0.0780  0.5766 -0.5954
12126SOL     OW54369   1.964   7.974   6.535  0.2787 -0.2345  0.0118
12126SOL    HW154370   1.992   7.978   6.627 -0.9544 -0.1674  0.4086
12126SOL    HW254371   1.873   8.005   6.537  0.0567 -0.7734 -1.1541
12127SOL     OW54372   3.582  11.014  10.811 -0.1011 -0.7058  0.2269
12127SOL    HW154373   3.588  11.050  10.899 -1.3125 -0.4545  0.2233
12127SOL    HW254374   3.593  11.090  10.753 -0.7990 -0.6201  0.1951
12128SOL     OW54375   4.678   9.727   0.144 -0.1547 -0.3130 -0.2487
12128SOL    HW154376   4.639   9.696   0.062  0.6372 -1.2407 -0.2897
12128SOL    HW254377   4.671   9.822   0.139 -2.4804 -0.4154 -0.2001
12129SOL     OW54378  11.736   9.687  13.229  0.5754 -0.0458  0.8675
12129SOL    HW154379  11.722   9.594  13.211 -2.3209 -0.1099  2.7616
12129SOL    HW254380  11.706   9.732  13.150  1.2804 -0.6721  0.2327
12130SOL     OW54381   6.566   7.759   8.746 -0.0564 -0.5193  0.6258
12130SOL    HW154382   6.645   7.705   8.746 -0.4061 -1.1408 -1.6363
12130SOL    HW254383   6.572   7.809   8.665 -0.8571  1.1903  1.5892
12131SOL     OW54384   3.321   2.193  13.821  0.0824 -0.2120 -0.8250
12131SOL    HW154385   3.408   2.154  13.810  1.0736  2.1104 -1.8323
12131SOL    HW254386   3.314   2.210  13.915  0.7173 -0.4261 -0.7357
12132SOL     OW54387  10.242   6.030   8.462  0.1603 -0.1449  0.4517
12132SOL    HW154388  10.264   6.017   8.554  2.6654 -0.7100 -0.1628
12132SOL    HW254389  10.164   5.976   8.448  0.9421 -1.6776  1.7825
12133SOL     OW54390  14.066   6.477  13.150 -0.2707  0.5269 -0.1771
12133SOL    HW154391  13.994   6.533  13.123  0.9026  2.0895 -0.2654
12133SOL    HW254392  14.135   6.494  13.085  0.9014  0.6922  1.0625
12134SOL     OW54393   3.259  12.091  10.457  0.0381 -0.0173 -0.8367
12134SOL    HW154394   3.249  11.995  10.459 -1.4421  0.1187  0.8163
12134SOL    HW254395   3.201  12.119  10.386 -1.4113 -0.2259  0.2100
12135SOL     OW54396   0.277  11.622  12.699 -0.0537 -0.6572 -0.2779
12135SOL    HW154397   0.289  11.689  12.766 -1.2529  0.0690 -0.7447
12135SOL    HW254398   0.363  11.581  12.689  0.1296 -0.8941  1.7972
12136SOL     OW54399   5.723   9.145  11.114 -0.0739  0.4984  0.0485
12136SOL    HW154400   5.646   9.089  11.120  1.8826 -2.3561  0.4448
12136SOL    HW254401   5.766   9.118  11.032  2.3795 -0.7458  1.6227
12137SOL     OW54402   9.244   9.506   7.220  0.3735  0.3139 -0.7286
12137SOL    HW154403   9.262   9.412   7.228  1.7256  0.7436  3.2752
12137SOL    HW254404   9.330   9.547   7.214 -0.1668  1.3760 -1.5327
12138SOL     OW54405  12.339  10.225   5.149  0.3694  0.2514  0.5006
12138SOL    HW154406  12.271  10.263   5.093  1.0491  0.9475  0.1432
12138SOL    HW254407  12.415  10.282   5.138  1.2470 -0.9007  0.3639
12139SOL     OW54408   3.208   1.659  14.064 -0.0813  0.0890  0.3072
12139SOL    HW154409   3.242   1.709  13.990 -0.5066 -0.7535 -0.4798
12139SOL    HW254410   3.267   1.584  14.071 -0.6536 -0.3804  0.1597
12140SOL     OW54411   3.540  10.291  10.071  0.8346  0.7561  0.2499
12140SOL    HW154412   3.587  10.220  10.114 -0.1631 -0.1961 -0.1536
12140SOL    HW254413   3.448  10.274  10.092  0.5987  2.0812  0.3363
12141SOL     OW54414   8.787   7.483  12.956 -0.4034 -0.2088 -0.6012
12141SOL    HW154415   8.831   7.523  13.030  1.1563 -2.2905 -0.2827
12141SOL    HW254416   8.760   7.556  12.900 -2.3587  1.4773  2.3125
12142SOL     OW54417  14.112   3.088  13.384 -0.0309 -0.0825  0.1418
12142SOL    HW154418  14.042   3.104  13.447 -0.5785  3.3303 -1.0785
12142SOL    HW254419  14.067   3.048  13.309 -0.0197 -0.9718  0.6012
12143SOL     OW54420   7.755  10.559  12.300  0.0918  0.2657  0.0211
12143SOL    HW154421   7.660  10.547  12.307  0.3407 -2.5760 -0.1528
12143SOL    HW254422   7.766  10.647  12.265 -2.4703  0.6563 -0.0049
12144SOL     OW54423   9.411   6.542   2.473 -0.2426  0.5121  0.5222
12144SOL    HW154424   9.497   6.584   2.472 -0.0745  0.2115  1.2227
12144SOL    HW254425   9.423   6.466   2.530 -0.7484 -0.0349 -0.0914
12145SOL     OW54426   5.704   0.227   5.833  0.3113 -0.0583 -0.3490
12145SOL    HW154427   5.788   0.204   5.794  0.8360 -0.5193  0.9670
12145SOL    HW254428   5.722   0.306   5.884  0.2367 -0.7588  0.8021
12146SOL     OW54429  12.786   5.055   8.599  0.2825 -0.1504  0.0677
12146SOL    HW154430  12.752   5.053   8.689 -0.2381 -0.4528 -0.1305
12146SOL    HW254431  12.858   4.992   8.599 -0.0586 -0.5465  0.1428
12147SOL     OW54432  13.826  11.225   3.080 -0.1301  0.3881 -0.1076
12147SOL    HW154433  13.888  11.154   3.064 -0.5473 -0.0915  0.3539
12147SOL    HW254434  13.746  11.181   3.110 -0.7870  0.9731 -0.9544
12148SOL     OW54435   4.724   3.440  10.391  0.4091  0.1916 -0.1170
12148SOL    HW154436   4.668   3.363  10.400  0.7889 -0.3715 -2.1509
12148SOL    HW254437   4.782   3.419  10.318  2.3516  1.3341  1.0173
12149SOL     OW54438   4.072  12.789   4.094 -1.0159 -0.2161  0.2486
12149SOL    HW154439   4.138  12.802   4.163  0.1471  1.3018 -1.0712
12149SOL    HW254440   4.100  12.710   4.048  0.7662  1.1587 -1.1638
12150SOL     OW54441  13.962   0.796   0.330  0.0432  0.0985  0.0686
12150SOL    HW154442  13.973   0.815   0.237 -1.0951 -1.2585 -0.3848
12150SOL    HW254443  13.868   0.801   0.344  0.1828  0.0047  1.0879
12151SOL     OW54444   9.469   2.462  12.398  0.0181 -0.1393  0.1389
12151SOL    HW154445   9.408   2.390  12.383 -0.1569 -0.5922  2.5857
12151SOL    HW254446   9.454   2.521  12.325 -1.9675 -1.1769 -0.3775
12152SOL     OW54447   9.897   2.345   4.076 -0.3722 -0.3058 -0.3088
12152SOL    HW154448   9.848   2.370   3.998  0.9414 -0.8798 -1.3520
12152SOL    HW254449   9.967   2.410   4.082 -1.3204  0.6219  1.2742
12153SOL     OW54450   9.762  12.072   7.854  0.0812 -0.6602 -0.4318
12153SOL    HW154451   9.828  12.121   7.903 -0.0694 -0.4612 -0.4278
12153SOL    HW254452   9.747  11.993   7.907 -2.2427  0.8971  1.4358
12154SOL     OW54453   4.257  13.123   5.689 -0.5475 -0.2219  0.8396
12154SOL    HW154454   4.296  13.209   5.677 -2.6382  0.6123 -0.5973
12154SOL    HW254455   4.245  13.090   5.600 -0.8066 -1.5245  1.3337
12155SOL     OW54456  11.017  10.192  10.859  0.1233 -0.1570 -0.0332
12155SOL    HW154457  11.028  10.287  10.867  0.8580 -0.1990 -0.4659
12155SOL    HW254458  11.059  10.170  10.776  1.6956 -1.1334  0.9816
12156SOL     OW54459   0.384   5.932  10.138  0.9286 -0.3494 -0.1805
12156SOL    HW154460   0.306   5.878  10.148  0.6776  0.0573  0.0716
12156SOL    HW254461   0.424   5.901  10.056 -1.2679  1.6376 -2.1213
12157SOL     OW54462  12.711   1.588  13.277  0.4470 -0.0912  0.2006
12157SOL    HW154463  12.728   1.494  13.278 -0.1906 -0.2415 -1.1301
12157SOL    HW254464  12.759   1.620  13.201  1.0003  0.7453  0.8765
12158SOL     OW54465  13.232   9.282   8.291  0.0866  0.4148 -0.4201
12158SOL    HW154466  13.171   9.240   8.230  0.3442  1.1207 -1.1773
12158SOL    HW254467  13.176   9.323   8.357 -0.1996 -0.2007 -0.2749
12159SOL     OW54468   8.406   4.302  12.752  0.3353 -0.9026  0.2168
12159SOL    HW154469   8.455   4.242  12.697  0.2304 -0.8110  0.0220
12159SOL    HW254470   8.314   4.289  12.726  0.3027 -0.7331  0.2451
12160SOL     OW54471  10.533   0.306   0.700  0.5769 -0.2475 -0.4771
12160SOL    HW154472  10.438   0.306   0.712  0.3507  1.8003 -1.8842
12160SOL    HW254473  10.568   0.347   0.779  0.3918 -1.6863  0.3865
12161SOL     OW54474   9.269  10.486  14.041 -0.0931  0.0238  0.0231
12161SOL    HW154475   9.178  10.500  14.068 -0.1790  2.0471 -1.1388
12161SOL    HW254476   9.264  10.411  13.981 -1.0917  0.3772 -0.3746
12162SOL     OW54477   5.530   4.100   6.133 -0.2642 -0.5746  0.7982
12162SOL    HW154478   5.447   4.089   6.085  0.9428 -1.3195 -1.2368
12162SOL    HW254479   5.503   4.128   6.220 -2.5723  4.0202 -1.0382
12163SOL     OW54480   3.339   2.452   1.931 -0.0742  0.1829  0.2286
12163SOL    HW154481   3.272   2.384   1.927 -1.2032  1.2757 -0.3142
12163SOL    HW254482   3.330   2.489   2.019  1.6877 -1.4256  1.1601
12164SOL     OW54483  10.293   8.489   3.902  0.0817  0.1733 -0.4959
12164SOL    HW154484  10.271   8.547   3.830  1.9047  0.9953 -0.4719
12164SOL    HW254485  10.381   8.517   3.929  0.0680 -1.0915  1.0530
12165SOL     OW54486   7.105   9.544  10.497 -0.3408 -0.1615 -0.6141
12165SOL    HW154487   7.180   9.544  10.438 -0.2749 -0.4714 -0.5302
12165SOL    HW254488   7.112   9.628  10.544  0.2843 -0.4396 -0.1878
12166SOL     OW54489  11.547  13.325   4.027 -0.0163 -0.4119  0.0165
12166SOL    HW154490  11.601  13.364   4.096 -1.7593  0.7474  0.7752
12166SOL    HW254491  11.553  13.231   4.044  0.8124 -0.2442  0.7870
12167SOL     OW54492   6.710   0.205   5.255  0.7278  0.2595 -0.0324
12167SOL    HW154493   6.660   0.187   5.175  0.4059  0.8873  0.0199
12167SOL    HW254494   6.691   0.297   5.275  1.7076  0.4390  0.1329
12168SOL     OW54495   3.107   0.953   0.102 -0.1821  0.0321  0.3330
12168SOL    HW154496   3.017   0.939   0.074 -0.3203  0.1931  0.6880
12168SOL    HW254497   3.129   0.874   0.152 -0.2744  0.1771  0.6087
12169SOL     OW54498   4.516   9.829  13.021  0.5988 -0.0341 -0.6210
12169SOL    HW154499   4.491   9.739  13.042  0.8176  0.2226  0.8647
12169SOL    HW254500   4.560   9.823  12.937  1.1968 -1.4326 -0.2319
12170SOL     OW54501   5.086  12.967  12.321  0.5101 -0.0716 -0.3483
12170SOL    HW154502   5.102  13.047  12.272 -0.3011  0.7639  0.6970
12170SOL    HW254503   5.001  12.935  12.289 -0.6953  1.2030  1.3288
12171SOL     OW54504   4.830   9.673   4.833  0.8136 -0.3527  0.1917
12171SOL    HW154505   4.764   9.635   4.890  0.4912 -0.8700 -0.5115
12171SOL    HW254506   4.880   9.598   4.800  0.7655 -0.0971 -0.4811
12172SOL     OW54507  10.453  11.624  10.825 -0.1954  0.5004  0.4501
12172SOL    HW154508  10.390  11.555  10.847  0.7667 -0.2475  0.9409
12172SOL    HW254509  10.414  11.669  10.751 -0.7107 -0.7783 -0.0884
12173SOL     OW54510   9.584   9.127   9.823  0.2012  0.5856 -0.0153
12173SOL    HW154511   9.666   9.082   9.842 -0.3679  0.2376  1.8264
12173SOL    HW254512   9.566   9.106   9.731  0.8586 -1.4845  0.2723
12174SOL     OW54513   7.869  11.988  11.926  0.2955 -0.0829  0.7085
12174SOL    HW154514   7.837  11.921  11.866  2.1131  0.0298 -0.4859
12174SOL    HW254515   7.887  11.940  12.007 -1.1724 -0.4510  0.8425
12175SOL     OW54516   7.000   6.662   0.994 -0.4009 -0.2131 -0.3528
12175SOL    HW154517   7.029   6.571   1.001  1.4594  0.3151 -0.6310
12175SOL    HW254518   6.908   6.660   1.020 -0.7594 -2.3547 -1.5784
12176SOL     OW54519   2.827  11.187   2.623 -0.0282 -0.4483  0.4865
12176SOL    HW154520   2.881  11.152   2.695  0.8272  1.5684  0.9015
12176SOL    HW254521   2.740  11.199   2.662 -0.4835 -2.4627  0.1957
12177SOL     OW54522   6.502   8.918   1.103  0.2509  0.0796 -0.2217
12177SOL    HW154523   6.595   8.938   1.115 -0.0529  0.6116  1.5589
12177SOL    HW254524   6.484   8.847   1.165 -0.7310  0.6491  0.1736
12178SOL     OW54525   1.687  12.813   9.629 -0.1728 -0.5503  0.7599
12178SOL    HW154526   1.696  12.807   9.534 -1.3982  4.1872  0.1142
12178SOL    HW254527   1.777  12.821   9.662  0.2435 -1.9935  0.0693
12179SOL     OW54528   2.738   3.305   8.199  0.2048  0.7333  0.6057
12179SOL    HW154529   2.762   3.221   8.238 -1.9288  0.8694  2.4484
12179SOL    HW254530   2.644   3.313   8.216 -0.0002  2.7438 -1.0275
12180SOL     OW54531   4.603   7.680   8.248  0.6683 -0.0879 -0.3771
12180SOL    HW154532   4.590   7.597   8.296  1.1328  0.8260  1.4257
12180SOL    HW254533   4.568   7.662   8.161 -0.8266 -1.6654  0.4636
12181SOL     OW54534  10.446  10.933  11.802 -0.2978 -0.2071 -0.1400
12181SOL    HW154535  10.379  10.999  11.820  1.7174  2.3180 -1.2194
12181SOL    HW254536  10.512  10.945  11.870  0.2079 -0.9685 -0.4710
12182SOL     OW54537  12.667  11.521   6.710 -0.7312  0.3354 -0.3739
12182SOL    HW154538  12.711  11.524   6.795 -0.0284 -0.1442 -0.7141
12182SOL    HW254539  12.591  11.577   6.721 -0.3356  0.7381  0.3981
12183SOL     OW54540   2.126   3.173   3.884  0.2662 -0.7266  0.0784
12183SOL    HW154541   2.136   3.219   3.967  2.4468 -0.6852 -0.1417
12183SOL    HW254542   2.044   3.124   3.893 -1.0793  1.5252  1.1044
12184SOL     OW54543   4.539   7.816  12.485  0.5475  0.3108  0.1836
12184SOL    HW154544   4.511   7.847  12.399  1.1120  0.1206 -0.0749
12184SOL    HW254545   4.630   7.789  12.472  0.4385 -0.3226  0.6853
12185SOL     OW54546   3.224   2.544  13.999  0.3085  0.4123  0.3218
12185SOL    HW154547   3.258   2.463  14.037 -1.4775 -0.4249  0.2526
12185SOL    HW254548   3.299   2.603  13.996  1.7058 -1.2919  0.2216
12186SOL     OW54549   5.696   0.650   4.769  0.2290 -0.5713 -0.1260
12186SOL    HW154550   5.610   0.644   4.727 -0.1499 -1.6481  0.7716
12186SOL    HW254551   5.740   0.720   4.721 -0.1157 -1.8220 -2.4285
12187SOL     OW54552   0.252  12.647  12.666 -0.0597  0.2377  0.0652
12187SOL    HW154553   0.245  12.559  12.629  2.4423  0.0659 -0.1910
12187SOL    HW254554   0.229  12.635  12.759 -0.7437 -0.4612 -0.1817
12188SOL     OW54555   5.735  12.445  11.293  0.7557 -0.5197 -0.2267
12188SOL    HW154556   5.689  12.379  11.241  1.1708 -0.6018 -0.4996
12188SOL    HW254557   5.790  12.394  11.352 -0.1299 -0.4329  0.6886
12189SOL     OW54558  11.878  13.167   2.024  0.2735 -0.6364  0.2025
12189SOL    HW154559  11.849  13.085   1.983 -0.7899 -1.0034  1.6371
12189SOL    HW254560  11.967  13.179   1.991  0.3784 -2.2491 -0.2028
12190SOL     OW54561  13.591   0.224   3.108 -0.0637  0.1231 -0.1988
12190SOL    HW154562  13.502   0.190   3.107  0.2087 -0.6042 -0.9956
12190SOL    HW254563  13.616   0.222   3.201 -0.7739  0.0775 -0.0014
12191SOL     OW54564   4.462   1.485   5.620 -0.1290 -0.1730  0.3135
12191SOL    HW154565   4.519   1.550   5.579 -0.4249 -0.0018  0.1681
12191SOL    HW254566   4.522   1.419   5.655  0.3492  1.3698  2.5938
12192SOL     OW54567   8.925   6.657   1.243  0.4855  0.1585  0.4775
12192SOL    HW154568   8.868   6.671   1.168  1.7988 -1.9515 -1.0067
12192SOL    HW254569   8.866   6.663   1.319 -1.5704 -1.1622 -0.9222
12193SOL     OW54570   1.126   1.065  13.366  0.1519  0.2836 -0.2559
12193SOL    HW154571   1.197   1.003  13.385  0.4454  0.2240 -1.4603
12193SOL    HW254572   1.147   1.142  13.420 -0.0705 -0.5414  1.0460
12194SOL     OW54573  10.632   0.540   7.270  0.4265 -0.4562  0.4378
12194SOL    HW154574  10.616   0.502   7.356  0.7944 -0.9731  0.2836
12194SOL    HW254575  10.629   0.466   7.210  0.4896 -0.1448  0.0491
12195SOL     OW54576  10.127  13.608   6.283  0.0728  0.2137  0.2723
12195SOL    HW154577  10.032  13.606   6.271  0.0415  1.2847  0.3001
12195SOL    HW254578  10.153  13.516   6.280 -0.8837 -0.0525 -0.3629
12196SOL     OW54579  11.531   3.173   3.806 -0.2021  0.0778  0.0805
12196SOL    HW154580  11.510   3.194   3.898  0.7036  0.7935  0.1312
12196SOL    HW254581  11.474   3.099   3.786 -0.5110 -0.0114  1.1857
12197SOL     OW54582  13.580   0.328   2.838 -1.2217 -0.7184 -0.2159
12197SOL    HW154583  13.567   0.338   2.933 -1.0676  0.3181 -0.2942
12197SOL    HW254584  13.645   0.257   2.831 -0.3746 -0.0535  0.5146
12198SOL     OW54585   5.210  10.040  11.750 -0.7561  0.7797 -0.1757
12198SOL    HW154586   5.200   9.999  11.664  2.8640 -0.2900 -0.2825
12198SOL    HW254587   5.284   9.994  11.789 -0.9549  2.6616  2.6620
12199SOL     OW54588   2.771   7.506   2.606  0.7651 -0.0790 -0.1985
12199SOL    HW154589   2.764   7.437   2.672  0.0257 -0.0542 -0.2410
12199SOL    HW254590   2.761   7.588   2.656  0.4357 -0.0502 -0.3124
12200SOL     OW54591  13.900   6.482  12.489  0.2918 -0.5556  0.0182
12200SOL    HW154592  13.911   6.567  12.445 -1.7121 -0.1665  0.1373
12200SOL    HW254593  13.912   6.501  12.582  1.2225 -0.7030 -0.0634
12201SOL     OW54594  11.761   3.320   9.096  0.1757 -0.0966  0.2004
12201SOL    HW154595  11.746   3.405   9.136 -1.6365 -0.5620  0.6362
12201SOL    HW254596  11.690   3.311   9.032  1.0229 -0.8001 -0.6664
12202SOL     OW54597   4.200  12.750  12.476 -0.1997  0.0566 -0.1157
12202SOL    HW154598   4.294  12.754  12.492 -0.3907 -1.3948  1.7850
12202SOL    HW254599   4.166  12.828  12.521  0.0866  0.7390 -1.0473
12203SOL     OW54600   3.996   6.769   1.683  1.4582  0.5546 -0.2897
12203SOL    HW154601   3.924   6.708   1.701  1.1112  0.4068 -1.9843
12203SOL    HW254602   4.075   6.719   1.704  1.1080  0.2580  0.3397
12204SOL     OW54603   7.173   4.337   7.451  0.0689 -0.0391 -0.0862
12204SOL    HW154604   7.234   4.271   7.420  0.6262  1.0797 -1.4818
12204SOL    HW254605   7.088   4.292   7.453  0.5821 -1.0345 -0.1102
12205SOL     OW54606   6.818   7.631   2.136 -0.6100 -0.3176  0.1142
12205SOL    HW154607   6.856   7.710   2.174 -0.7344 -0.5310  0.7009
12205SOL    HW254608   6.778   7.585   2.211 -2.4068  0.1183 -0.5311
12206SOL     OW54609  10.642  12.564   5.779 -0.5200  0.2567  0.3727
12206SOL    HW154610  10.660  12.483   5.733  0.7328  1.4114 -1.3039
12206SOL    HW254611  10.704  12.564   5.852  1.0111  0.6205 -0.8580
12207SOL     OW54612   6.887   5.520   6.363 -0.0977  0.2292  0.1338
12207SOL    HW154613   6.909   5.566   6.444 -0.0095  0.2854  0.0776
12207SOL    HW254614   6.957   5.456   6.352 -1.0416 -1.0438  1.0766
12208SOL     OW54615   1.329   8.651   3.934 -0.0876 -0.3222 -0.2944
12208SOL    HW154616   1.253   8.689   3.890 -1.2045 -0.5861  1.3541
12208SOL    HW254617   1.357   8.717   3.997  2.1221  0.4659 -1.9402
12209SOL     OW54618   7.052  10.933  13.260  0.7734  0.6108 -0.0126
12209SOL    HW154619   6.995  10.972  13.194  0.2652 -1.0536 -0.6226
12209SOL    HW254620   6.994  10.912  13.333  0.7597 -0.2374 -0.2558
12210SOL     OW54621   0.068   7.922   3.819  0.5401  0.4618 -0.4128
12210SOL    HW154622  -0.016   7.967   3.827  0.2516 -0.2001  0.5008
12210SOL    HW254623   0.088   7.925   3.726 -1.1820 -0.5810 -0.8615
12211SOL     OW54624   8.522   9.404  12.723  0.1524 -0.0873 -0.3132
12211SOL    HW154625   8.555   9.490  12.749 -0.0366  0.2617 -1.1934
12211SOL    HW254626   8.580   9.376  12.652  0.8847 -1.1908  0.6958
12212SOL     OW54627   0.940  12.849  12.460 -0.3611  0.2828  0.1809
12212SOL    HW154628   0.900  12.813  12.539 -1.4655  1.7505  0.3232
12212SOL    HW254629   1.032  12.822  12.465 -0.7171 -0.8005  1.2532
12213SOL     OW54630   0.202  13.945   6.840  0.1905 -0.5884  0.2603
12213SOL    HW154631   0.263  13.875   6.862  1.1623 -1.4689 -4.1555
12213SOL    HW254632   0.256  14.010   6.794 -1.5833  0.3372 -0.6265
12214SOL     OW54633   5.194  11.915  13.681  0.4474  0.0978 -0.0540
12214SOL    HW154634   5.257  11.935  13.751  1.1797  0.0447 -0.6931
12214SOL    HW254635   5.229  11.959  13.604  0.8289 -1.6557 -0.9224
12215SOL     OW54636  10.404   9.199   1.209 -0.7025  0.1290 -0.3326
12215SOL    HW154637  10.432   9.267   1.147 -0.4258  2.6183  2.3038
12215SOL    HW254638  10.480   9.185   1.265 -1.8236  0.2997  1.3261
12216SOL     OW54639   1.312  11.198   7.870 -0.2438 -0.6081 -0.5316
12216SOL    HW154640   1.383  11.178   7.810 -0.4044  0.3423 -1.0627
12216SOL    HW254641   1.353  11.199   7.957  0.1874 -1.0021 -0.7265
12217SOL     OW54642   8.254   7.371  13.187 -0.1542  0.5371  0.6973
12217SOL    HW154643   8.164   7.338  13.182  0.5304 -1.3440  0.2046
12217SOL    HW254644   8.274   7.400  13.099  0.2363 -0.5363  0.4164
12218SOL     OW54645   6.798  13.974  10.549  0.3953 -0.6906 -0.0625
12218SOL    HW154646   6.741  13.990  10.624  0.1286  2.2611 -0.7356
12218SOL    HW254647   6.777  13.885  10.521 -0.5102 -1.3645  2.4673
12219SOL     OW54648   7.667  12.813   7.707  0.3192  0.4599 -0.5361
12219SOL    HW154649   7.677  12.759   7.785 -1.9365 -0.5869 -0.8955
12219SOL    HW254650   7.631  12.896   7.740  0.7339  0.5682 -0.3400
12220SOL     OW54651   0.806   7.829  11.415  0.1216 -0.9285  0.1676
12220SOL    HW154652   0.745   7.844  11.343  0.6086 -1.2572 -0.3217
12220SOL    HW254653   0.822   7.917  11.451  0.8684 -0.5845 -0.9507
12221SOL     OW54654  10.216   0.859   4.994  0.1260  0.0878 -0.4471
12221SOL    HW154655  10.305   0.824   4.992 -0.9295 -2.8959  0.2882
12221SOL    HW254656  10.210   0.902   5.079  1.1401  1.2903 -0.9423
12222SOL     OW54657   2.873   8.649  11.777  0.0799 -0.5627 -0.5099
12222SOL    HW154658   2.888   8.590  11.703 -0.1096 -2.4484  0.8730
12222SOL    HW254659   2.782   8.677  11.768  0.2530 -0.2429 -1.3320
12223SOL     OW54660   7.070   3.861  10.494 -0.6525  0.4338  0.2280
12223SOL    HW154661   7.044   3.770  10.480  2.6942 -1.0409  2.2233
12223SOL    HW254662   7.128   3.881  10.421 -2.1856  1.3976 -0.7647
12224SOL     OW54663   8.509  12.213  13.694 -0.0896  0.8203  0.0432
12224SOL    HW154664   8.585  12.250  13.737  1.0046  0.2818 -1.3341
12224SOL    HW254665   8.497  12.127  13.735  0.5288  0.5922 -0.2406
12225SOL     OW54666   9.023   3.790   7.283  0.6450  0.6923  0.1621
12225SOL    HW154667   9.106   3.805   7.328  1.4459 -1.8387 -0.2904
12225SOL    HW254668   9.048   3.768   7.194 -0.5221  0.0958 -0.0350
12226SOL     OW54669   3.734  11.540   0.582 -0.1521 -0.0688 -0.1443
12226SOL    HW154670   3.724  11.537   0.677 -0.1058 -1.8401 -0.1651
12226SOL    HW254671   3.657  11.588   0.550  0.2264  1.2230  0.8105
12227SOL     OW54672   1.017  10.569   8.130 -0.2687  0.7213 -0.1558
12227SOL    HW154673   0.998  10.553   8.038  0.2676  2.6534 -0.6352
12227SOL    HW254674   0.964  10.504   8.177 -0.5168 -0.3129 -1.8033
12228SOL     OW54675   1.490   4.454   8.753  0.3089 -0.1232 -0.4986
12228SOL    HW154676   1.403   4.414   8.749  1.0363 -1.8739  0.3528
12228SOL    HW254677   1.535   4.407   8.823  2.1834  0.2742 -1.3872
12229SOL     OW54678   0.460   4.361   9.463 -0.0228 -0.8494  0.5021
12229SOL    HW154679   0.537   4.363   9.520 -0.2143  0.6659  0.7619
12229SOL    HW254680   0.484   4.303   9.391  2.7228  2.0990 -1.2225
12230SOL     OW54681   3.201  13.577   9.485  0.1393  0.2493  0.2052
12230SOL    HW154682   3.226  13.663   9.451  0.8488  0.0225  0.1274
12230SOL    HW254683   3.232  13.577   9.575 -1.4879  0.7447  0.7862
12231SOL     OW54684   4.004  13.742   2.145 -0.4259 -0.0167  0.0573
12231SOL    HW154685   3.962  13.827   2.135 -0.7635 -0.0636  0.9752
12231SOL    HW254686   3.970  13.689   2.073 -1.9541 -0.0576  0.7760
12232SOL     OW54687  10.477   6.869  10.248 -0.0304 -0.3457 -0.2859
12232SOL    HW154688  10.570   6.851  10.232 -0.2408 -1.9665  0.1917
12232SOL    HW254689  10.473   6.893  10.341 -0.0755 -0.1517 -0.3382
12233SOL     OW54690   2.274   3.492   1.653  0.2459 -0.2737  0.6653
12233SOL    HW154691   2.184   3.523   1.661 -0.1545 -1.0231 -0.6698
12233SOL    HW254692   2.272   3.428   1.582  1.3099 -2.2710  2.2886
12234SOL     OW54693   1.894   4.127   1.040 -0.1123  0.1449 -0.1551
12234SOL    HW154694   1.963   4.176   1.084  0.7310  0.2277 -1.5149
12234SOL    HW254695   1.833   4.194   1.009  0.2904  0.2394 -0.7580
12235SOL     OW54696   6.011  13.034  12.126  0.2735 -0.7312 -0.0448
12235SOL    HW154697   6.097  13.057  12.161 -1.2447  1.0110  2.8641
12235SOL    HW254698   6.006  12.939  12.134  1.9480 -0.8846 -0.4515
12236SOL     OW54699   9.231  11.380   8.689 -0.3684 -0.4413  0.4707
12236SOL    HW154700   9.242  11.379   8.594  0.4314  2.5331  0.4449
12236SOL    HW254701   9.278  11.303   8.719  0.5770 -0.6663 -1.4399
12237SOL     OW54702   1.350   9.453   4.162  0.3806 -0.7556  0.4123
12237SOL    HW154703   1.265   9.433   4.202  0.0810 -0.0434  0.1660
12237SOL    HW254704   1.373   9.374   4.114 -0.3026 -0.8499  0.2224
12238SOL     OW54705   7.246   5.498   9.850 -0.1652  0.4880 -0.4076
12238SOL    HW154706   7.297   5.579   9.851 -0.5224  0.7236  0.7844
12238SOL    HW254707   7.307   5.431   9.819  0.8975  0.7673  0.9513
12239SOL     OW54708  11.732   4.781  11.828 -0.4530 -0.4644 -0.1836
12239SOL    HW154709  11.642   4.801  11.802  0.2040  0.7942 -1.7308
12239SOL    HW254710  11.743   4.823  11.913 -1.7103 -1.8135  0.6795
12240SOL     OW54711   7.507  10.015  12.687 -0.3992  0.1684  0.0803
12240SOL    HW154712   7.443   9.968  12.741  0.7572  0.6049  1.9395
12240SOL    HW254713   7.592   9.984  12.719  0.3488  0.5753 -1.4193
12241SOL     OW54714   4.749  11.970   9.562  0.1262 -1.1128 -0.8088
12241SOL    HW154715   4.821  12.032   9.547 -0.1013 -0.0244  1.9982
12241SOL    HW254716   4.709  11.960   9.476  0.5735  2.2026 -1.5654
12242SOL     OW54717   2.526   2.912   0.708 -0.3937  0.1378  0.1150
12242SOL    HW154718   2.465   2.900   0.780  0.4860 -0.5497  0.7726
12242SOL    HW254719   2.559   3.002   0.719 -1.5722  0.6628 -0.4979
12243SOL     OW54720   6.691   4.899   8.313 -0.4381 -0.1044 -0.5808
12243SOL    HW154721   6.607   4.860   8.290 -0.9317  0.8433 -0.4212
12243SOL    HW254722   6.745   4.887   8.234 -0.7543 -0.5961 -0.7283
12244SOL     OW54723   6.339   7.686  11.279 -0.1208 -0.3391  0.2221
12244SOL    HW154724   6.264   7.740  11.303 -0.1177  0.4753 -1.4520
12244SOL    HW254725   6.411   7.748  11.267  0.3065 -0.8819 -0.1209
12245SOL     OW54726   0.714  10.931  11.564  0.1273  0.5551 -0.0957
12245SOL    HW154727   0.779  10.862  11.579  0.3956  0.5526 -1.2041
12245SOL    HW254728   0.726  10.991  11.638 -0.1956 -0.6247  0.9524
12246SOL     OW54729  13.845  10.658   9.165 -0.0662  0.1988 -0.3815
12246SOL    HW154730  13.848  10.567   9.194  0.1784  0.8435  1.7841
12246SOL    HW254731  13.873  10.655   9.073  0.6318 -1.8156 -0.1479
12247SOL     OW54732  10.202   8.993   4.394 -0.3700  0.2400 -0.3587
12247SOL    HW154733  10.240   9.069   4.438 -1.6967  0.0697  1.1988
12247SOL    HW254734  10.131   9.030   4.340  0.2623  0.2914 -1.1666
12248SOL     OW54735   4.696  10.277   6.660 -0.3937 -1.1099  0.1278
12248SOL    HW154736   4.646  10.353   6.692  1.5879  0.2895  0.0864
12248SOL    HW254737   4.685  10.279   6.565 -0.7266 -1.1823  0.1613
12249SOL     OW54738  12.565  10.733   3.867  0.1599 -0.4312  0.3062
12249SOL    HW154739  12.523  10.647   3.869 -0.4665 -0.1615  2.7163
12249SOL    HW254740  12.509  10.787   3.922  1.4310  1.0884  0.1614
12250SOL     OW54741  10.022   9.771  10.361 -0.1252 -0.0270 -0.4483
12250SOL    HW154742   9.960   9.706  10.328 -1.7690  1.5290 -0.5948
12250SOL    HW254743  10.106   9.726  10.363 -0.9195 -1.6768 -1.9816
12251SOL     OW54744   2.222   6.919  10.236 -0.3906  0.7222 -0.2058
12251SOL    HW154745   2.160   6.866  10.287 -0.9853  2.3594  0.8711
12251SOL    HW254746   2.182   6.926  10.150 -1.3808  1.1495  0.2636
12252SOL     OW54747   2.118   3.433   5.819  0.1362  0.3842  0.7156
12252SOL    HW154748   2.112   3.480   5.736  0.9640 -0.6259  0.0489
12252SOL    HW254749   2.028   3.410   5.840 -0.0206  0.0047 -0.3053
12253SOL     OW54750   3.121  13.652   2.385  0.2353  0.3113 -0.0172
12253SOL    HW154751   3.139  13.619   2.473  0.7799 -0.2612 -0.3370
12253SOL    HW254752   3.059  13.724   2.399  0.1569  0.0960  0.8141
12254SOL     OW54753   5.368   5.109   7.028  0.5425  0.0335  0.0592
12254SOL    HW154754   5.456   5.114   7.065 -0.4312 -0.2241  2.6717
12254SOL    HW254755   5.344   5.017   7.036  0.5705 -0.2139 -2.1345
12255SOL     OW54756  12.803   8.343   4.293  0.1132  0.1770  0.3317
12255SOL    HW154757  12.813   8.248   4.281 -0.3934  0.1851 -0.2252
12255SOL    HW254758  12.863   8.365   4.364  2.4141 -0.1161 -1.3686
12256SOL     OW54759  13.109   1.942  11.247  0.1472 -0.0062  0.7256
12256SOL    HW154760  13.132   1.934  11.155  1.8110 -0.6260  1.1566
12256SOL    HW254761  13.055   1.865  11.265 -0.4044  0.2553  0.2257
12257SOL     OW54762   6.155  12.622   4.242 -0.5212 -0.2703  0.1335
12257SOL    HW154763   6.099  12.626   4.165  1.7477 -1.4946 -1.7367
12257SOL    HW254764   6.117  12.553   4.296 -1.2390 -0.5530 -0.7122
12258SOL     OW54765  11.722   2.789   4.969  0.1939  0.2515 -0.1740
12258SOL    HW154766  11.722   2.778   4.874  1.1477 -0.9932 -0.0551
12258SOL    HW254767  11.667   2.718   5.002  2.1666 -1.1333  0.3241
12259SOL     OW54768   2.581  10.595   6.750 -0.1258  0.0812 -0.3473
12259SOL    HW154769   2.562  10.610   6.657 -2.0488 -0.1365 -0.0361
12259SOL    HW254770   2.676  10.607   6.758  0.0540  0.2377 -2.3042
12260SOL     OW54771   9.076   7.253   3.400 -0.5399  0.0640  0.0661
12260SOL    HW154772   9.051   7.172   3.356 -0.8054 -0.2872  0.8535
12260SOL    HW254773   8.998   7.280   3.448 -0.2021  0.3455  0.4688
12261SOL     OW54774   0.472   9.857  12.436  0.6055 -0.5572  0.1447
12261SOL    HW154775   0.448   9.880  12.346  1.4637  0.5044  0.1613
12261SOL    HW254776   0.420   9.917  12.490  1.6752  0.3133  0.2518
12262SOL     OW54777   2.802   6.154   0.855  0.1876 -0.0353  0.3689
12262SOL    HW154778   2.813   6.240   0.816  0.4408 -0.2746 -0.0909
12262SOL    HW254779   2.732   6.113   0.805  1.0891 -0.6679 -0.4131
12263SOL     OW54780   4.349  10.549   9.187  0.0599 -0.2474  0.3825
12263SOL    HW154781   4.442  10.528   9.199 -0.2513 -1.7678  0.3581
12263SOL    HW254782   4.347  10.607   9.111  1.0186  0.1601  0.6550
12264SOL     OW54783   2.332  11.488   7.239 -0.5659 -0.7841 -0.4089
12264SOL    HW154784   2.426  11.474   7.252 -0.3250  1.3407  0.7256
12264SOL    HW254785   2.321  11.583   7.247 -2.7530 -0.9333 -0.9998
12265SOL     OW54786  13.063   3.678   1.513  0.1722  0.1273 -0.6952
12265SOL    HW154787  13.079   3.689   1.607  0.7499  2.1707 -0.9610
12265SOL    HW254788  13.128   3.736   1.472 -0.8772  0.2242 -2.2947
12266SOL     OW54789  10.097   2.047  13.498 -0.1901 -0.4657  0.2017
12266SOL    HW154790  10.130   2.137  13.494  0.9946 -0.9376 -1.6778
12266SOL    HW254791  10.017   2.053  13.551 -0.1267  1.6789  0.1344
12267SOL     OW54792   5.683  12.065   8.654 -0.3733  0.2369 -0.1700
12267SOL    HW154793   5.618  12.060   8.584 -1.3613  0.1465  0.7213
12267SOL    HW254794   5.667  12.149   8.695 -1.3635 -0.6526  1.3734
12268SOL     OW54795   4.714   4.175   0.387  0.0711  0.3487 -0.0034
12268SOL    HW154796   4.691   4.109   0.322  0.6758 -0.0125  0.1471
12268SOL    HW254797   4.685   4.258   0.348  0.5033  0.1488 -0.7719
12269SOL     OW54798   1.412  12.105   0.809  0.4339  0.0814  0.7129
12269SOL    HW154799   1.420  12.199   0.822 -0.3858  0.3572 -0.6345
12269SOL    HW254800   1.319  12.086   0.819  0.3450 -0.3024 -0.6995
12270SOL     OW54801   7.675   3.990  13.215  0.8065 -0.1832  0.7197
12270SOL    HW154802   7.642   3.928  13.150  1.6467 -1.5126  1.5018
12270SOL    HW254803   7.696   4.069  13.165 -0.8127 -0.3097 -0.2117
12271SOL     OW54804   0.185  11.507   2.620  0.1959 -0.6065  0.1501
12271SOL    HW154805   0.215  11.484   2.533  0.8703  0.1845  0.1598
12271SOL    HW254806   0.191  11.603   2.624  2.0227 -0.7180  1.6799
12272SOL     OW54807   1.160   5.410   4.527 -0.0238 -0.5130 -0.2962
12272SOL    HW154808   1.124   5.337   4.577  2.4822 -3.3884 -2.3855
12272SOL    HW254809   1.236   5.439   4.578  0.6737 -1.3371 -0.8460
12273SOL     OW54810   9.451  13.106   1.309  0.0654  0.3582 -0.1513
12273SOL    HW154811   9.403  13.126   1.389  0.3418 -1.0446  0.3899
12273SOL    HW254812   9.445  13.011   1.300  0.4053  0.4472 -1.5738
12274SOL     OW54813   1.049   9.587   3.005  0.5026 -0.4984 -0.1892
12274SOL    HW154814   0.959   9.579   3.038  0.4080 -1.1222 -0.5826
12274SOL    HW254815   1.066   9.681   3.005  0.5591 -0.4551  1.7786
12275SOL     OW54816   2.847   3.175   7.457  0.4760  0.5286  0.7079
12275SOL    HW154817   2.755   3.185   7.433  0.5325  0.3384  0.4117
12275SOL    HW254818   2.895   3.218   7.387  0.6995 -1.3505 -0.3396
12276SOL     OW54819   1.500   4.657   8.536 -0.0642  0.6890 -0.8288
12276SOL    HW154820   1.447   4.730   8.568 -1.9513 -0.7459 -0.4624
12276SOL    HW254821   1.510   4.599   8.611  1.5401  0.6012 -1.0687
12277SOL     OW54822  10.417   6.989  12.310  0.2996  0.5175  0.9477
12277SOL    HW154823  10.499   6.954  12.277  0.7847  1.7223  0.8115
12277SOL    HW254824  10.381   7.041  12.238 -0.9045 -0.4722  0.7916
12278SOL     OW54825   0.110  10.376  12.430 -0.2334  0.2322 -0.2606
12278SOL    HW154826   0.189  10.359  12.481 -0.6450  0.4922  0.4687
12278SOL    HW254827   0.040  10.380  12.495 -1.1178 -1.6372 -1.0258
12279SOL     OW54828   0.319   7.586   8.027 -0.8238  0.0867 -0.1427
12279SOL    HW154829   0.326   7.653   7.959  1.0545  1.6308  1.4237
12279SOL    HW254830   0.408   7.553   8.036 -1.4923 -1.7680 -0.0046
12280SOL     OW54831  14.007   4.996  11.177 -0.9930  0.3852 -0.2396
12280SOL    HW154832  14.032   4.923  11.121  3.8334  1.4751 -0.0071
12280SOL    HW254833  13.936   4.963  11.231  0.0695 -3.6990 -1.0257
12281SOL     OW54834   0.936   7.752  12.753  0.9812 -0.2295  0.2562
12281SOL    HW154835   0.866   7.690  12.770  1.0801 -0.3269  0.3115
12281SOL    HW254836   0.892   7.834  12.732  0.8346 -0.5414 -0.7064
12282SOL     OW54837   3.821  10.184   7.016 -0.4063  0.6459 -0.7974
12282SOL    HW154838   3.905  10.198   6.973 -0.0156  3.1898  0.5907
12282SOL    HW254839   3.817  10.253   7.083 -2.5296 -0.9124  0.8113
12283SOL     OW54840   3.742   5.505   1.095 -0.3191 -0.2466 -0.4109
12283SOL    HW154841   3.766   5.575   1.035 -1.2267 -0.4513 -1.0200
12283SOL    HW254842   3.669   5.460   1.053 -0.7223 -0.6325  0.6605
12284SOL     OW54843  10.493   6.440   7.561  0.4042  0.0269 -0.2208
12284SOL    HW154844  10.484   6.345   7.555 -2.9596  0.0495  1.7262
12284SOL    HW254845  10.556   6.454   7.632 -2.6165 -1.0236  2.9462
12285SOL     OW54846  13.013  10.261  11.226 -0.3276  0.1323 -0.5666
12285SOL    HW154847  13.075  10.200  11.266  0.5952  1.8906  0.7956
12285SOL    HW254848  13.062  10.304  11.156 -0.4944  0.4212 -0.5088
12286SOL     OW54849  12.260   0.443   0.041 -0.2837  0.4529 -0.6455
12286SOL    HW154850  12.215   0.477   0.119  0.2597  0.1848 -0.2137
12286SOL    HW254851  12.280   0.521  -0.011  2.0901  0.9805  0.9354
12287SOL     OW54852   9.895   7.992   7.492 -0.4592 -1.1250  0.1231
12287SOL    HW154853   9.930   8.035   7.414 -1.5027 -1.2640 -0.4293
12287SOL    HW254854   9.821   8.046   7.519  1.9046  0.9496  3.1174
12288SOL     OW54855   1.436   6.374  13.458 -0.1225  0.2898 -0.1258
12288SOL    HW154856   1.507   6.424  13.498 -0.9733  0.1007  1.7353
12288SOL    HW254857   1.444   6.392  13.365  2.1548  0.5217  0.0511
12289SOL     OW54858   1.360   5.920   6.575 -0.1324  0.0443 -0.2563
12289SOL    HW154859   1.287   5.940   6.633 -1.0791  1.5732 -1.8635
12289SOL    HW254860   1.329   5.845   6.524  0.3340 -0.7148  0.5515
12290SOL     OW54861   3.869  12.232   9.054  0.2626 -0.2948  0.1654
12290SOL    HW154862   3.788  12.182   9.043  0.4155 -0.2531 -1.3779
12290SOL    HW254863   3.894  12.257   8.965  1.7193  0.1025  0.6571
12291SOL     OW54864  13.961  14.025  11.988 -0.3549  0.0234 -0.2693
12291SOL    HW154865  13.904  14.073  11.928  1.7171  1.6429 -1.0826
12291SOL    HW254866  14.032  14.086  12.008  0.1394 -1.2165  2.2011
12292SOL     OW54867   3.664  13.666  13.376 -0.1389  0.3938 -0.0628
12292SOL    HW154868   3.591  13.672  13.437 -0.3586  1.0293 -0.3819
12292SOL    HW254869   3.638  13.719  13.301  0.0790 -0.4611 -0.7686
12293SOL     OW54870   8.891   2.074   1.399 -0.0640  0.5393  0.1269
12293SOL    HW154871   8.805   2.096   1.435  0.5008  0.3120  1.7032
12293SOL    HW254872   8.933   2.159   1.384  0.2632  0.6563  1.5299
12294SOL     OW54873  10.380  12.174   0.032 -0.2463 -0.4282 -0.3178
12294SOL    HW154874  10.332  12.253   0.055 -0.5563 -1.1385  1.5933
12294SOL    HW254875  10.471  12.204   0.024 -0.4830  0.2755 -0.5050
12295SOL     OW54876   4.954  13.254  12.965 -0.5514  0.6943 -0.2435
12295SOL    HW154877   4.976  13.210  13.047 -0.7681  0.3279 -0.3806
12295SOL    HW254878   5.003  13.208  12.898 -0.2039  1.1336 -0.2965
12296SOL     OW54879   8.006   1.402   1.619 -0.0463  1.0694  0.1016
12296SOL    HW154880   7.932   1.394   1.559 -0.0613  0.1322  0.2282
12296SOL    HW254881   7.983   1.347   1.693  0.3277  1.5947  0.6128
12297SOL     OW54882   1.175  10.107   8.453  0.3020 -0.4293  0.3165
12297SOL    HW154883   1.147  10.195   8.477  1.1030 -0.2238  0.5013
12297SOL    HW254884   1.117  10.083   8.380  1.2869  0.9954 -0.9922
12298SOL     OW54885   9.202   8.270  10.948 -0.4794 -0.1085 -0.1564
12298SOL    HW154886   9.295   8.290  10.951 -0.3201 -0.9369  2.2200
12298SOL    HW254887   9.165   8.334  10.886  1.5332  0.6535 -0.6279
12299SOL     OW54888   1.374  10.826  13.363 -0.2627  0.5037  0.3379
12299SOL    HW154889   1.341  10.839  13.274  0.4695 -1.5777 -0.2963
12299SOL    HW254890   1.295  10.817  13.417 -0.7115  1.3629 -0.1625
12300SOL     OW54891  12.334   9.057   2.637  0.1268  0.2923  0.3483
12300SOL    HW154892  12.335   9.030   2.546 -0.8936 -1.6366  0.8512
12300SOL    HW254893  12.254   9.109   2.646  0.8355  1.4940 -0.0842
12301SOL     OW54894  10.455  13.348   3.469  0.1178 -0.3687 -0.2958
12301SOL    HW154895  10.528  13.393   3.512  0.1145 -0.8851  0.2606
12301SOL    HW254896  10.493  13.266   3.437  0.2003  0.1401 -1.5867
12302SOL     OW54897   2.831   2.942  13.701 -0.0152  0.1726  0.1655
12302SOL    HW154898   2.861   3.033  13.700  0.2027  0.1032 -0.3098
12302SOL    HW254899   2.911   2.890  13.711 -0.1214  0.0285  0.2780
12303SOL     OW54900   5.432   4.692   3.166 -0.2513 -0.3514 -0.0254
12303SOL    HW154901   5.508   4.735   3.206 -0.4875 -0.3048  0.3772
12303SOL    HW254902   5.457   4.600   3.160 -0.4189 -0.4584  0.7456
12304SOL     OW54903   2.790   0.456   0.383  0.0334 -0.3175  0.5661
12304SOL    HW154904   2.788   0.538   0.335 -1.6931  0.4756  1.9209
12304SOL    HW254905   2.816   0.391   0.317  0.2474  1.0980 -0.8062
12305SOL     OW54906   4.830   3.797   8.499 -0.0415 -0.1441  0.1533
12305SOL    HW154907   4.813   3.879   8.453  0.6976  0.9039  1.6395
12305SOL    HW254908   4.834   3.730   8.431 -2.3060  0.7662 -0.9485
12306SOL     OW54909   5.177  13.225   5.126  0.1653  0.5483  0.0269
12306SOL    HW154910   5.262  13.209   5.167  0.2633  1.1747  0.0821
12306SOL    HW254911   5.147  13.307   5.166  0.7193  1.7197 -1.8702
12307SOL     OW54912  10.669  11.293  10.624 -0.0862 -0.3140 -0.3735
12307SOL    HW154913  10.667  11.301  10.529 -1.6276  0.4397 -0.3014
12307SOL    HW254914  10.586  11.253  10.647 -0.5263  1.1769  0.7766
12308SOL     OW54915  10.217   7.767  11.714 -0.1272 -0.0330  0.7762
12308SOL    HW154916  10.175   7.752  11.629  0.3504  0.1029  0.5166
12308SOL    HW254917  10.300   7.720  11.709 -0.6404 -1.1022  1.6328
12309SOL     OW54918   2.031  10.790   0.906 -0.3784  0.1133  0.0789
12309SOL    HW154919   1.974  10.791   0.982 -0.3839  0.3217  0.0735
12309SOL    HW254920   2.022  10.701   0.870 -1.0600  0.2812 -0.1891
12310SOL     OW54921  11.577   4.163  12.138 -0.2297 -0.5003 -0.0249
12310SOL    HW154922  11.514   4.234  12.128  0.1212 -0.3400 -1.2661
12310SOL    HW254923  11.602   4.140  12.048  2.2020  0.1067  0.4090
12311SOL     OW54924  12.817   6.952   8.997  0.1609  0.0442  0.1681
12311SOL    HW154925  12.870   6.895   9.053  1.4237  0.5701 -0.4411
12311SOL    HW254926  12.782   7.018   9.057 -2.8517 -2.3084  1.2296
12312SOL     OW54927   4.217   8.799   0.133  0.3732  0.1209 -0.3795
12312SOL    HW154928   4.272   8.850   0.073  1.4658  1.0302  1.3336
12312SOL    HW254929   4.130   8.801   0.092  0.5271  2.7617 -0.7669
12313SOL     OW54930   7.472   4.185   3.081  0.3613 -0.4866  0.3797
12313SOL    HW154931   7.399   4.189   3.142  0.1897 -2.1728  0.3280
12313SOL    HW254932   7.501   4.276   3.072 -3.0837  0.5912 -1.2779
12314SOL     OW54933   1.698   7.710   2.868 -0.0421 -0.0975  0.1074
12314SOL    HW154934   1.615   7.664   2.880  0.6100 -1.6805 -1.1147
12314SOL    HW254935   1.708   7.718   2.773  0.2114  2.0089  0.2666
12315SOL     OW54936   6.670   5.819  13.811 -0.2782 -0.9564 -0.0097
12315SOL    HW154937   6.606   5.750  13.828  0.9057 -1.6324  2.1479
12315SOL    HW254938   6.707   5.797  13.726  1.0807 -3.9635  1.1907
12316SOL     OW54939  11.594   1.864   7.233 -0.2250 -0.1141  0.6594
12316SOL    HW154940  11.640   1.780   7.232 -0.7072 -0.4240  2.0109
12316SOL    HW254941  11.542   1.865   7.152 -0.7180 -1.4070  0.9488
12317SOL     OW54942   0.835   3.008   8.631 -0.2507  0.2709 -0.3779
12317SOL    HW154943   0.826   2.918   8.599 -0.4500 -0.2401  1.0342
12317SOL    HW254944   0.923   3.011   8.669 -0.4104  0.5309 -0.0233
12318SOL     OW54945   5.968   0.350  13.290 -0.2727 -0.1661  0.3688
12318SOL    HW154946   6.033   0.346  13.360  0.4712 -0.2591 -0.3115
12318SOL    HW254947   5.927   0.435  13.300 -0.7030 -0.4690  1.3704
12319SOL     OW54948   3.059   2.576  13.228 -0.5132  0.1693  0.2171
12319SOL    HW154949   3.149   2.544  13.236 -1.0596 -2.0042 -1.2968
12319SOL    HW254950   3.062   2.641  13.158 -0.1476 -0.0966 -0.0171
12320SOL     OW54951   3.182  14.134   8.385 -0.1539  0.0354  0.6441
12320SOL    HW154952   3.146  14.157   8.471  2.3980  2.3789  1.2490
12320SOL    HW254953   3.111  14.152   8.324 -1.4660  0.0283  2.0972
12321SOL     OW54954  11.137   8.718   7.575 -0.0983  0.1287 -0.4378
12321SOL    HW154955  11.042   8.708   7.569 -0.5037  0.6814  3.0499
12321SOL    HW254956  11.152   8.810   7.553 -0.7418  0.6908  1.2802
12322SOL     OW54957  13.409   5.123  12.433 -0.0607 -0.4049 -0.0942
12322SOL    HW154958  13.422   5.052  12.370 -1.6465 -0.6818 -0.1493
12322SOL    HW254959  13.404   5.078  12.518 -2.2831 -0.5417 -0.2503
12323SOL     OW54960  11.200   6.262   4.351 -0.5125 -0.0256 -0.7522
12323SOL    HW154961  11.204   6.357   4.337 -1.2789  0.2300  0.5851
12323SOL    HW254962  11.254   6.247   4.429 -0.6489 -0.6526 -0.7747
12324SOL     OW54963   8.249   2.025   6.481  0.1995  0.0970 -0.0703
12324SOL    HW154964   8.218   2.069   6.561 -0.9891 -0.8376  0.0013
12324SOL    HW254965   8.341   2.052   6.474 -0.1147  1.5113  0.7024
12325SOL     OW54966  10.071  12.198  12.064 -0.5187 -0.2238  0.0424
12325SOL    HW154967  10.118  12.182  11.982  0.9083 -0.0629  0.7976
12325SOL    HW254968  10.022  12.118  12.080  1.1240 -1.2227  0.2695
12326SOL     OW54969   7.757   9.196   4.308 -0.0557  0.3495 -0.1623
12326SOL    HW154970   7.771   9.106   4.279 -0.5274  0.0306  0.5582
12326SOL    HW254971   7.825   9.212   4.373 -1.7376 -0.5442  1.9208
12327SOL     OW54972   0.381  13.452   8.302  0.6532  0.4256 -0.2831
12327SOL    HW154973   0.355  13.527   8.248 -0.9868  0.9803  1.1909
12327SOL    HW254974   0.381  13.378   8.242  1.8493  1.4876 -1.6780
12328SOL     OW54975   5.460   7.415  11.817  0.0307  0.3950 -0.3659
12328SOL    HW154976   5.377   7.462  11.824  0.6218  1.3404  0.6982
12328SOL    HW254977   5.524   7.473  11.858  1.2708 -0.2127 -1.3639
12329SOL     OW54978   9.516   8.076   2.612 -0.0101 -0.3376 -0.2731
12329SOL    HW154979   9.493   8.152   2.665  1.0665  1.4758 -2.2498
12329SOL    HW254980   9.436   8.056   2.562  0.4042  1.1935 -1.6331
12330SOL     OW54981   6.330   8.979   5.283 -0.0426 -0.3309 -0.3821
12330SOL    HW154982   6.393   8.978   5.355  0.5095  0.0207 -0.8524
12330SOL    HW254983   6.321   8.887   5.258  1.7455 -0.2170 -1.5602
12331SOL     OW54984   3.680   4.759   1.296  0.2811  0.1194 -0.0487
12331SOL    HW154985   3.771   4.735   1.282  0.6637  0.3662  1.7020
12331SOL    HW254986   3.645   4.690   1.352 -1.2120 -1.0194 -2.2714
12332SOL     OW54987   5.833   8.113  10.552  0.2646 -0.2488  0.2101
12332SOL    HW154988   5.775   8.045  10.517 -0.1034  0.6066 -0.8966
12332SOL    HW254989   5.778   8.190  10.560  0.6839 -0.0499  1.4427
12333SOL     OW54990   0.968   9.670  11.655 -0.4709 -0.2734  0.4390
12333SOL    HW154991   1.005   9.584  11.636  0.0334  0.1335 -0.4684
12333SOL    HW254992   0.888   9.652  11.706 -0.6808 -1.2906 -0.2405
12334SOL     OW54993   9.020   3.236  10.781 -0.1955  0.1078  0.2728
12334SOL    HW154994   9.057   3.166  10.835  0.6330  0.4249  0.1363
12334SOL    HW254995   8.950   3.194  10.731 -2.4092  0.1967  3.0415
12335SOL     OW54996   6.030   2.847   0.803  0.1523  0.6746  0.2740
12335SOL    HW154997   5.953   2.892   0.837 -0.6398  1.0581 -1.8470
12335SOL    HW254998   6.054   2.896   0.724  1.8924 -0.1023  0.2734
12336SOL     OW54999   8.927  12.073  12.377  0.1710  0.2404 -0.7215
12336SOL    HW155000   8.946  12.160  12.411  0.6173 -0.1221 -0.0073
12336SOL    HW255001   8.854  12.086  12.316 -0.9078  0.8717  0.6572
12337SOL     OW55002   6.684  11.771  13.312  0.1752 -0.2537 -0.0250
12337SOL    HW155003   6.661  11.802  13.399  0.0447  0.9972 -0.4754
12337SOL    HW255004   6.709  11.680  13.324  0.4830 -0.0005  1.3646
12338SOL     OW55005  10.847   8.787   1.202  0.5624 -0.7852  0.0950
12338SOL    HW155006  10.853   8.857   1.266  0.5558 -0.2612 -0.4751
12338SOL    HW255007  10.777   8.814   1.142  0.2609 -1.4802  0.1235
12339SOL     OW55008  14.061  13.126   8.366 -0.3040  0.1738 -0.1179
12339SOL    HW155009  14.031  13.189   8.300 -1.4515 -0.5576 -0.3230
12339SOL    HW255010  14.009  13.147   8.444 -1.9255 -1.5200 -0.6703
12340SOL     OW55011   9.587  12.898   5.952  0.4894  0.2338 -0.3691
12340SOL    HW155012   9.682  12.889   5.944  0.4680 -0.5565  0.1428
12340SOL    HW255013   9.573  12.931   6.041  0.2522 -0.2811 -0.2133
12341SOL     OW55014   2.994   0.019   7.029  0.2202 -0.4598 -0.1681
12341SOL    HW155015   2.987  -0.045   6.958  0.6424 -1.5280  0.7153
12341SOL    HW255016   3.054   0.086   6.995 -0.0752 -0.6340 -1.0415
12342SOL     OW55017   6.680  13.445   2.471  0.3795  0.2352  0.0081
12342SOL    HW155018   6.624  13.368   2.472  2.0709 -1.0531  0.6430
12342SOL    HW255019   6.711  13.452   2.381  0.0835  0.2910 -0.0899
12343SOL     OW55020   8.156  13.274   3.420 -0.3715 -0.1580  0.0325
12343SOL    HW155021   8.191  13.185   3.412  0.5990  0.0251  1.7287
12343SOL    HW255022   8.063  13.261   3.442 -0.2745 -0.7378  0.1161
12344SOL     OW55023  10.323   4.507   1.716 -0.6080 -0.6927 -0.4613
12344SOL    HW155024  10.340   4.419   1.683 -2.9398 -1.0159 -0.9381
12344SOL    HW255025  10.345   4.565   1.643  0.1433 -0.9295 -0.4258
12345SOL     OW55026   3.896   2.493   3.023  0.1208  0.4838 -0.0201
12345SOL    HW155027   3.810   2.513   3.060  0.1678 -0.4804  0.6387
12345SOL    HW255028   3.895   2.533   2.936 -1.9356 -1.5987 -1.0383
12346SOL     OW55029  13.758   4.347  13.570 -0.1719  0.0638 -0.2383
12346SOL    HW155030  13.799   4.416  13.621  0.3736 -0.8988  0.6721
12346SOL    HW255031  13.664   4.361  13.581 -0.0973 -0.8628  2.1488
12347SOL     OW55032  10.675   6.149  10.172 -0.5735 -0.2966 -0.2719
12347SOL    HW155033  10.763   6.150  10.132 -1.0755 -0.2204 -1.4176
12347SOL    HW255034  10.680   6.080  10.238 -0.1347 -1.5199 -1.5233
12348SOL     OW55035  14.133   1.977   8.030 -0.0726  0.1700 -0.2863
12348SOL    HW155036  14.218   1.934   8.040  0.3349  0.9181 -0.4666
12348SOL    HW255037  14.144   2.062   8.074 -0.7936  0.1807 -0.1194
12349SOL     OW55038  12.079   8.912   4.078  0.3638  0.8433  0.2580
12349SOL    HW155039  12.143   8.880   4.014  1.6531 -0.3970  2.0714
12349SOL    HW255040  12.062   9.002   4.052  1.2974  0.5691 -1.4647
12350SOL     OW55041   7.339   1.396   4.190  0.6208 -0.2744 -0.4621
12350SOL    HW155042   7.355   1.490   4.204 -0.7411 -0.0470 -0.3180
12350SOL    HW255043   7.297   1.391   4.105  0.1639 -0.6927 -0.2173
12351SOL     OW55044   1.920   8.677  11.601 -0.1502 -0.0201 -0.1451
12351SOL    HW155045   1.951   8.745  11.542  1.2241  0.1688  0.7494
12351SOL    HW255046   1.998   8.648  11.648 -1.0144 -0.9270  0.7971
12352SOL     OW55047   1.448   6.024  12.997  0.4768 -0.5580 -0.2874
12352SOL    HW155048   1.425   6.056  13.085 -0.3296 -0.3694 -0.5568
12352SOL    HW255049   1.363   6.008  12.955  0.8469  0.1251 -1.3161
12353SOL     OW55050   4.751   0.851  11.689 -0.3004  0.3127 -0.6015
12353SOL    HW155051   4.768   0.758  11.675 -0.2102 -0.2058  2.3645
12353SOL    HW255052   4.771   0.866  11.781  0.7353  3.5535 -1.2095
12354SOL     OW55053   8.037   3.730  10.447 -0.3013 -0.1183  0.0595
12354SOL    HW155054   8.034   3.731  10.351 -1.7809 -1.0892  0.0650
12354SOL    HW255055   7.974   3.797  10.473 -0.9094 -0.7900  0.3397
12355SOL     OW55056   1.428   1.432   8.596  0.4481 -0.2304 -0.2166
12355SOL    HW155057   1.436   1.389   8.681  0.1877 -0.4460 -0.3006
12355SOL    HW255058   1.423   1.525   8.617  1.1671 -0.2222 -0.0454
12356SOL     OW55059  11.336   7.188  13.617  0.1614 -0.1284 -0.3632
12356SOL    HW155060  11.253   7.180  13.664 -0.3179  1.7696 -0.7858
12356SOL    HW255061  11.349   7.103  13.576  0.1810 -1.5880  2.4613
12357SOL     OW55062   6.750   2.431   3.978  0.4740  0.4793  0.5484
12357SOL    HW155063   6.767   2.338   3.994  2.3258  0.8879  1.2418
12357SOL    HW255064   6.831   2.475   4.004  0.4009  2.1059 -1.7291
12358SOL     OW55065  13.622   6.829   3.454 -0.2163  0.8434 -0.1766
12358SOL    HW155066  13.569   6.847   3.377  0.7772  3.0599 -0.4111
12358SOL    HW255067  13.689   6.768   3.423 -1.2641 -0.2270 -0.4116
12359SOL     OW55068   8.542  10.895   4.472  0.5729 -0.2615  0.2021
12359SOL    HW155069   8.571  10.978   4.511  0.8189 -0.4830  0.4958
12359SOL    HW255070   8.622  10.857   4.435  0.6293 -0.7816  0.8419
12360SOL     OW55071   7.276  12.187   3.331 -0.3115 -0.5901  0.5895
12360SOL    HW155072   7.267  12.242   3.253  0.5247 -0.5704  0.4974
12360SOL    HW255073   7.278  12.098   3.296  0.8539 -0.5441  0.5046
12361SOL     OW55074   8.877  10.812   8.251 -0.1200  0.3795  0.0925
12361SOL    HW155075   8.889  10.732   8.198 -0.0020  0.6744 -0.3360
12361SOL    HW255076   8.786  10.836   8.236 -0.1098  0.4153  0.0878
12362SOL     OW55077  11.158  11.778   6.680  0.2850 -0.3877  0.1090
12362SOL    HW155078  11.219  11.736   6.741  0.6294 -2.1437 -1.3456
12362SOL    HW255079  11.213  11.814   6.611 -0.0856  1.7930  0.8957
12363SOL     OW55080   3.211  10.296   5.299 -0.3830 -0.5385 -0.1735
12363SOL    HW155081   3.305  10.294   5.284 -0.3590  0.7513 -0.2276
12363SOL    HW255082   3.175  10.337   5.220 -1.0310 -1.2653 -0.2736
12364SOL     OW55083   2.663   9.838   9.495 -0.4742  0.1603  0.1102
12364SOL    HW155084   2.724   9.844   9.421 -0.5771  0.4406  0.0480
12364SOL    HW255085   2.718   9.826   9.572 -0.3981 -1.4879 -0.1488
12365SOL     OW55086  13.112  10.902   4.809 -0.1779  0.4948  0.5074
12365SOL    HW155087  13.078  10.825   4.764  1.4020  0.5669 -0.9060
12365SOL    HW255088  13.143  10.870   4.893 -0.9491 -0.0959  0.5794
12366SOL     OW55089   7.367   3.921  13.900  0.0227 -0.6335  0.3527
12366SOL    HW155090   7.406   3.935  13.813 -3.3176 -0.4792 -1.2819
12366SOL    HW255091   7.326   4.005  13.921 -0.4385 -1.1002  1.3943
12367SOL     OW55092   5.218  10.823  12.807 -0.3333  0.2744  0.0839
12367SOL    HW155093   5.243  10.881  12.879 -0.9401 -2.0593  2.3043
12367SOL    HW255094   5.276  10.747  12.817 -0.3479 -0.0768 -2.0294
12368SOL     OW55095  13.653   3.015  13.316 -0.3939  0.5185  0.3501
12368SOL    HW155096  13.685   2.968  13.392  0.0507  0.0606 -0.1184
12368SOL    HW255097  13.720   3.081  13.298 -0.8488  1.1200  0.7921
12369SOL     OW55098   3.098  11.139   7.606  0.5653  0.1602  0.7119
12369SOL    HW155099   3.057  11.162   7.523 -0.2603 -1.3942  0.6413
12369SOL    HW255100   3.171  11.082   7.581 -0.3748 -1.2396  1.0785
12370SOL     OW55101  11.426  10.473   8.187 -0.4185  0.3421  0.0155
12370SOL    HW155102  11.422  10.517   8.273 -1.3027  1.0644 -0.3753
12370SOL    HW255103  11.350  10.414   8.187 -0.4509  0.3827 -0.2903
12371SOL     OW55104   3.874  13.455   6.982  0.6037  0.8519  0.1010
12371SOL    HW155105   3.785  13.427   6.959 -0.1508  1.5792  1.9687
12371SOL    HW255106   3.865  13.547   7.005  1.6717  0.7134  1.1501
12372SOL     OW55107  10.270   4.158   1.935  0.1291 -0.1133 -0.0728
12372SOL    HW155108  10.242   4.249   1.943  0.5309 -0.0269  0.4221
12372SOL    HW255109  10.211   4.110   1.992 -0.1315 -0.1775 -0.3920
12373SOL     OW55110   0.542   8.081  10.611 -0.1785 -0.0581  0.3235
12373SOL    HW155111   0.491   8.044  10.683 -3.2690  1.2459 -1.0257
12373SOL    HW255112   0.513   8.034  10.534 -1.3528  2.4091 -0.8524
12374SOL     OW55113   9.677   5.245  10.251  0.0728 -0.0475 -0.1509
12374SOL    HW155114   9.622   5.219  10.325 -0.3509 -2.0787 -1.1192
12374SOL    HW255115   9.616   5.252  10.177  0.6949  0.5915 -0.6206
12375SOL     OW55116   5.197   3.013   8.744  0.0978 -0.3063  0.2116
12375SOL    HW155117   5.278   2.967   8.766  0.7920  1.8867  2.7039
12375SOL    HW255118   5.128   2.958   8.783  0.2147 -2.3645 -2.2217
12376SOL     OW55119  11.176   4.829   7.801  0.0341 -0.6754  0.0341
12376SOL    HW155120  11.197   4.885   7.876  0.1415 -0.5316 -0.1037
12376SOL    HW255121  11.117   4.882   7.748 -0.4000 -0.9437  0.2395
12377SOL     OW55122   2.116   6.272   4.225  0.2796  0.5528  0.7892
12377SOL    HW155123   2.200   6.308   4.195  1.1757 -0.9338  1.4010
12377SOL    HW255124   2.087   6.215   4.154 -0.6219  1.6383  0.2564
12378SOL     OW55125   3.315  10.775  12.489 -0.2060 -0.3276 -0.4351
12378SOL    HW155126   3.269  10.833  12.550  0.8729  0.3670 -0.2632
12378SOL    HW255127   3.251  10.758  12.419 -1.0404 -0.1590  0.2711
12379SOL     OW55128   1.078   9.596   9.819 -0.5962  0.2030 -0.3090
12379SOL    HW155129   1.127   9.542   9.881 -1.6263  0.3107  0.6259
12379SOL    HW255130   1.051   9.534   9.751 -1.8860 -0.5412  0.8231
12380SOL     OW55131   9.890   7.020  13.080 -0.3343  0.2952  0.2922
12380SOL    HW155132   9.848   6.935  13.091  0.0805  0.2587  2.0023
12380SOL    HW255133   9.839   7.079  13.135 -1.1954  1.3967 -1.6113
12381SOL     OW55134   7.750   9.678  12.096 -0.2083  0.7161  0.2381
12381SOL    HW155135   7.671   9.732  12.102 -0.4149  0.4514 -0.0336
12381SOL    HW255136   7.718   9.594  12.061 -0.1179 -0.0186  1.8012
12382SOL     OW55137  13.116   5.174   3.852 -0.2338 -0.2894  0.2706
12382SOL    HW155138  13.112   5.126   3.769  2.8559  0.3986 -0.3840
12382SOL    HW255139  13.027   5.209   3.863 -0.5547  0.3602 -3.2310
12383SOL     OW55140   3.549  13.231   2.939  0.0464 -0.3017 -0.2350
12383SOL    HW155141   3.637  13.210   2.909  1.0149  2.5213  0.3092
12383SOL    HW255142   3.554  13.227   3.034  0.0522  1.3021 -0.1412
12384SOL     OW55143  10.855   8.171   2.333  0.5735 -0.4668  0.1643
12384SOL    HW155144  10.812   8.104   2.279  2.3263 -0.9227 -0.7226
12384SOL    HW255145  10.810   8.164   2.418 -0.7317 -1.2670 -0.5522
12385SOL     OW55146   5.123  12.669   1.494  0.6070  0.5669 -0.3943
12385SOL    HW155147   5.187  12.671   1.565 -0.0053 -0.1140  0.1937
12385SOL    HW255148   5.093  12.760   1.485  1.2937  0.7974 -0.3470
12386SOL     OW55149  11.228   3.855   4.131 -0.3682 -0.3071 -0.4197
12386SOL    HW155150  11.138   3.840   4.160 -0.5656  0.6276 -0.5105
12386SOL    HW255151  11.236   3.951   4.128  0.7171 -0.3825 -0.1406
12387SOL     OW55152   5.920   4.605   9.102 -0.1285  0.3478 -0.4556
12387SOL    HW155153   6.001   4.554   9.095 -1.3016 -2.0583  1.7315
12387SOL    HW255154   5.949   4.696   9.109  2.3179 -0.3648 -0.4600
12388SOL     OW55155   0.078  13.640   4.982  0.5719 -0.5228  0.4690
12388SOL    HW155156   0.065  13.734   4.992  0.8483 -0.5106  0.7510
12388SOL    HW255157  -0.004  13.600   5.012  0.2261 -0.3494 -0.2358
12389SOL     OW55158   6.462   1.701   0.423  0.4587 -0.1600 -0.3127
12389SOL    HW155159   6.426   1.698   0.335 -3.2211  1.3495  0.9734
12389SOL    HW255160   6.471   1.794   0.443  0.0465 -0.4345  1.3126
12390SOL     OW55161  12.311   6.080   8.045  0.3459 -0.0466 -0.3544
12390SOL    HW155162  12.340   6.022   7.974 -2.6303 -1.7865 -0.3269
12390SOL    HW255163  12.282   6.021   8.114 -0.0665  1.5586  0.9103
12391SOL     OW55164   9.769   4.719  14.111 -0.8538 -0.2089  0.8401
12391SOL    HW155165   9.833   4.767  14.059 -1.6114  0.7461  0.7602
12391SOL    HW255166   9.718   4.787  14.155 -2.5079 -0.8988  0.0521
12392SOL     OW55167  13.754  11.496  13.849 -0.2852 -0.2297 -0.5054
12392SOL    HW155168  13.682  11.449  13.807 -0.0879 -1.0041  0.0021
12392SOL    HW255169  13.807  11.528  13.777 -1.3102  0.6476 -0.8974
12393SOL     OW55170   5.784  10.011   1.626 -0.4545  0.0946  0.0210
12393SOL    HW155171   5.837  10.091   1.633  0.8861 -0.7003 -0.7028
12393SOL    HW255172   5.808   9.974   1.541 -0.6830 -1.3463  0.5701
12394SOL     OW55173   5.718  10.528   6.153  0.5365  0.4073 -0.4526
12394SOL    HW155174   5.703  10.454   6.212  0.7764 -0.0540 -0.9652
12394SOL    HW255175   5.774  10.493   6.084 -0.4999  0.7019 -1.4613
12395SOL     OW55176  12.867  11.518   4.937 -0.1945  0.2505 -0.4533
12395SOL    HW155177  12.872  11.600   4.986  0.6734  0.1580 -0.3664
12395SOL    HW255178  12.775  11.492   4.943 -0.4783  1.2150 -0.4846
12396SOL     OW55179  10.939  13.368   3.778  0.2411  0.1468  0.0635
12396SOL    HW155180  10.955  13.455   3.742  0.6243 -0.1208 -0.4141
12396SOL    HW255181  11.025  13.328   3.785  0.0370 -0.3172 -0.0314
12397SOL     OW55182   0.784  13.173  13.255  0.0818 -0.3787 -0.8773
12397SOL    HW155183   0.861  13.132  13.217  1.0775 -1.1643  1.8207
12397SOL    HW255184   0.816  13.217  13.334 -1.4252  3.3263 -2.0934
12398SOL     OW55185   4.379   5.667   4.795  0.3802  0.6096  0.1979
12398SOL    HW155186   4.386   5.639   4.704 -1.3250  1.1057 -0.1105
12398SOL    HW255187   4.286   5.658   4.816  0.7833  0.1922  2.0062
12399SOL     OW55188   9.732   7.702  10.594  0.7911  0.2128  0.1027
12399SOL    HW155189   9.715   7.638  10.525  1.5329 -0.9893  0.9984
12399SOL    HW255190   9.786   7.655  10.658  0.1282  1.2820  1.5066
12400SOL     OW55191   7.939   1.844  11.140  0.3710  0.6996  0.0621
12400SOL    HW155192   7.913   1.830  11.049  1.0475 -1.7518  0.1914
12400SOL    HW255193   7.858   1.866  11.185 -0.4603 -0.8458 -0.6342
12401SOL     OW55194  11.957   4.097   3.350  0.3371  0.0709  0.2923
12401SOL    HW155195  12.038   4.093   3.401 -0.0784  0.4252  0.9943
12401SOL    HW255196  11.956   4.014   3.301  1.0784  0.0264  0.3358
12402SOL     OW55197   0.313  12.355  11.618  0.1492 -0.6489 -0.0431
12402SOL    HW155198   0.354  12.426  11.667  1.2585 -0.3327 -1.3522
12402SOL    HW255199   0.357  12.356  11.533 -1.6378 -1.2088 -1.0426
12403SOL     OW55200   9.699  10.795   3.911 -0.4266  0.5205 -0.0313
12403SOL    HW155201   9.756  10.724   3.939 -0.9220 -0.4974 -1.5072
12403SOL    HW255202   9.759  10.867   3.889  0.2711 -0.2717 -0.8177
12404SOL     OW55203   0.681   2.949   8.876  0.7279 -0.1243 -0.0200
12404SOL    HW155204   0.650   2.913   8.793  0.2951  0.9773 -0.3610
12404SOL    HW255205   0.742   3.018   8.851  0.4598  0.3363  0.5642
12405SOL     OW55206   4.146   7.951   8.287  0.3257  0.4281  0.4824
12405SOL    HW155207   4.102   7.962   8.202  0.6785 -2.1638 -0.1076
12405SOL    HW255208   4.189   8.035   8.302 -1.7117  1.7916 -0.6958
12406SOL     OW55209  11.253   9.486   8.643  0.0759 -0.0420 -0.2067
12406SOL    HW155210  11.274   9.453   8.730 -2.7940  1.0055  0.9889
12406SOL    HW255211  11.252   9.581   8.652  1.0834  0.1627 -1.7767
12407SOL     OW55212  13.966   1.335   6.124  0.3827 -0.2110  0.0068
12407SOL    HW155213  13.977   1.259   6.181  1.6332 -0.0360  0.0116
12407SOL    HW255214  14.048   1.341   6.075 -0.8556 -0.7001 -2.2685
12408SOL     OW55215  12.450   9.184   5.012  0.3304 -0.6778 -0.5502
12408SOL    HW155216  12.440   9.096   5.049 -1.7716 -0.4796 -0.5285
12408SOL    HW255217  12.438   9.243   5.086  0.3002 -0.3600 -0.8041
12409SOL     OW55218   6.508  14.041  11.651 -0.6095 -0.2874  0.3511
12409SOL    HW155219   6.450  14.003  11.585  0.2142 -0.2552 -0.4223
12409SOL    HW255220   6.460  14.115  11.686 -0.9829 -0.1690 -0.3886
12410SOL     OW55221   9.314   4.796   2.166  0.1805  0.1014 -0.1623
12410SOL    HW155222   9.272   4.740   2.231  1.4044  0.9706  1.4841
12410SOL    HW255223   9.295   4.755   2.082 -0.0439 -2.0597  0.8657
12411SOL     OW55224  11.442   5.921  13.231 -0.3136  0.4865 -0.3867
12411SOL    HW155225  11.509   5.985  13.208 -0.1145 -0.6766 -3.5344
12411SOL    HW255226  11.491   5.848  13.270  0.1297  0.1920 -1.4598
12412SOL     OW55227   6.524   8.913   2.504  0.0286 -0.0874  0.0971
12412SOL    HW155228   6.535   8.993   2.453 -1.6350  0.2981  0.2919
12412SOL    HW255229   6.568   8.845   2.453  0.0012  0.6334 -0.9095
12413SOL     OW55230   2.092   4.626   4.112 -0.0923 -0.1499  0.1377
12413SOL    HW155231   2.071   4.535   4.131  0.8141 -0.2099  0.9387
12413SOL    HW255232   2.187   4.632   4.123 -0.3598  1.3475  2.2997
12414SOL     OW55233   3.864   4.106   5.997  0.0062 -0.3574  0.0339
12414SOL    HW155234   3.789   4.165   5.990  0.9670  1.0384  0.9486
12414SOL    HW255235   3.923   4.151   6.057  1.2601 -1.7654 -0.1155
12415SOL     OW55236   6.407   8.727   4.437  0.6382  0.2199  0.1909
12415SOL    HW155237   6.374   8.684   4.516 -2.6295  0.4229 -0.8966
12415SOL    HW255238   6.427   8.655   4.377  0.3276  0.1058  0.2224
12416SOL     OW55239   2.460   9.394   9.584  0.4441  0.1701  0.1212
12416SOL    HW155240   2.540   9.434   9.616 -0.4771  0.8230  1.7181
12416SOL    HW255241   2.426   9.345   9.659  0.6004 -2.1682 -1.2399
12417SOL     OW55242   3.637   8.787  13.274 -0.5503 -0.4663  0.4184
12417SOL    HW155243   3.678   8.705  13.248 -1.3260 -0.5192 -0.7142
12417SOL    HW255244   3.564   8.761  13.331 -1.0033 -0.6023 -0.2116
12418SOL     OW55245   5.592   0.687   4.357  0.1461  0.1138  0.0311
12418SOL    HW155246   5.644   0.743   4.414  0.4337 -1.5128  1.4450
12418SOL    HW255247   5.585   0.605   4.404 -2.6004 -0.1771 -0.7144
12419SOL     OW55248   6.518  10.125  12.021  0.4155 -0.0397 -0.5719
12419SOL    HW155249   6.522  10.209  12.067 -1.2366  0.0224 -0.4976
12419SOL    HW255250   6.519  10.148  11.928  0.7784  0.0026 -0.5595
12420SOL     OW55251   6.995  13.165   0.087  0.1659  0.3863  0.6205
12420SOL    HW155252   6.926  13.190   0.149 -1.3717 -1.7036 -0.1479
12420SOL    HW255253   7.031  13.083   0.122 -0.3561 -0.5388 -0.9239
12421SOL     OW55254   8.131   3.604   9.188 -0.0614 -0.1557  0.4132
12421SOL    HW155255   8.217   3.609   9.147  0.0912 -0.6381  0.6756
12421SOL    HW255256   8.147   3.616   9.282 -0.2626 -0.4159  0.4817
12422SOL     OW55257   5.318   4.039   6.961  0.0681  0.1415 -0.2733
12422SOL    HW155258   5.328   4.002   7.049  0.8414  0.8260 -0.0619
12422SOL    HW255259   5.358   3.974   6.904  0.5386  0.1891 -0.0035
12423SOL     OW55260  11.935   9.325  11.321 -0.1219  0.2238  0.1964
12423SOL    HW155261  11.878   9.269  11.270 -0.8573  1.4785 -0.4168
12423SOL    HW255262  11.972   9.386  11.257 -0.1098  1.0439  0.9603
12424SOL     OW55263   2.711   5.671  13.792  0.3139 -0.0552  0.5343
12424SOL    HW155264   2.753   5.585  13.804  2.2090  0.7945  0.2963
12424SOL    HW255265   2.725   5.692  13.699  1.4421  1.2721  0.9743
12425SOL     OW55266   1.733   1.476   7.502 -0.1384  0.0107  0.8938
12425SOL    HW155267   1.712   1.524   7.422  0.5650  0.2223  0.8262
12425SOL    HW255268   1.662   1.412   7.512 -1.1321  1.1018  1.0209
12426SOL     OW55269  13.662   0.280   3.789 -0.0704 -0.1111 -0.0759
12426SOL    HW155270  13.757   0.286   3.783 -0.1611  0.2595 -1.4237
12426SOL    HW255271  13.640   0.199   3.743 -0.7203  2.2879 -4.6047
12427SOL     OW55272  13.216  11.390   7.400 -0.2966 -0.8463 -0.1561
12427SOL    HW155273  13.262  11.323   7.350  0.7254  0.5710 -1.2071
12427SOL    HW255274  13.182  11.344   7.477  0.2997 -2.5587 -0.8679
12428SOL     OW55275  10.931   9.824   0.149  0.0491 -0.0430 -0.2424
12428SOL    HW155276  10.853   9.771   0.131 -1.3042  1.8860 -0.3454
12428SOL    HW255277  10.912   9.865   0.234  0.5667  1.1240 -0.6853
12429SOL     OW55278  11.723   3.132   5.735 -0.5605  0.2459  0.3548
12429SOL    HW155279  11.652   3.110   5.795 -1.1960  1.4829  0.0963
12429SOL    HW255280  11.695   3.098   5.650 -0.0650 -0.7305  0.5717
12430SOL     OW55281  12.601   0.218  12.861 -0.2380 -0.1401 -0.4841
12430SOL    HW155282  12.577   0.205  12.769  0.6345 -0.4019 -0.6837
12430SOL    HW255283  12.677   0.276  12.858 -1.2870  1.3280  0.1767
12431SOL     OW55284  11.662   8.291   8.549 -0.2221  0.4588  0.3668
12431SOL    HW155285  11.722   8.296   8.475 -0.6152 -0.4146 -0.0290
12431SOL    HW255286  11.590   8.349   8.525  0.1990  1.0843  0.5975
12432SOL     OW55287  12.293   1.786  12.642 -0.3365 -0.3139 -0.1748
12432SOL    HW155288  12.354   1.855  12.667  0.8878 -1.9410  1.5973
12432SOL    HW255289  12.253   1.758  12.724  0.2781 -2.6648 -0.5863
12433SOL     OW55290   9.269   6.108   3.013 -0.3736  0.0976  0.2167
12433SOL    HW155291   9.188   6.156   2.992 -0.7740 -1.1695 -1.4115
12433SOL    HW255292   9.239   6.028   3.055  0.1356  0.2132  0.8106
12434SOL     OW55293   9.007   9.468   4.526 -0.7148 -0.1512 -0.0799
12434SOL    HW155294   8.955   9.435   4.599 -0.7997 -0.7125 -0.3883
12434SOL    HW255295   9.052   9.545   4.561  0.0461 -1.0023  0.8760
12435SOL     OW55296   6.363   9.641   3.201 -0.0572 -0.0147  0.2030
12435SOL    HW155297   6.328   9.611   3.117 -1.5099  1.5220  0.2029
12435SOL    HW255298   6.453   9.666   3.182 -0.0516 -0.6287 -0.6550
12436SOL     OW55299  12.305   9.222   4.399 -0.6272  0.4378 -0.5561
12436SOL    HW155300  12.332   9.130   4.401 -2.2482 -0.0996 -1.6765
12436SOL    HW255301  12.249   9.232   4.476  1.3618  1.1486  0.8842
12437SOL     OW55302   3.329   2.938   9.853  0.2887  0.4682 -0.0951
12437SOL    HW155303   3.361   2.936   9.943 -1.2621 -0.0801  0.4696
12437SOL    HW255304   3.380   2.870   9.808 -1.4346 -1.8913  1.2904
12438SOL     OW55305   4.645   2.758   1.515 -0.2212 -0.0677 -0.4367
12438SOL    HW155306   4.568   2.744   1.459 -0.0594  0.1126 -0.7084
12438SOL    HW255307   4.616   2.733   1.603 -0.4283 -0.5084 -0.6305
12439SOL     OW55308   7.192   6.295  11.092  0.0034 -0.2509  0.4532
12439SOL    HW155309   7.267   6.242  11.066 -0.5987 -0.9686  0.1204
12439SOL    HW255310   7.132   6.290  11.018  0.7624  2.5949 -0.4686
12440SOL     OW55311  11.143  13.445   8.006 -0.1804 -0.0199 -0.3925
12440SOL    HW155312  11.082  13.510   8.041  0.6501  0.4404  0.2302
12440SOL    HW255313  11.227  13.490   8.003  0.1242 -0.6162 -1.3385
12441SOL     OW55314  13.232  12.576   4.889  0.4178  0.0149 -0.5831
12441SOL    HW155315  13.166  12.614   4.831  0.7868 -0.3846 -1.2803
12441SOL    HW255316  13.198  12.591   4.977 -0.3551  0.2648 -0.9121
12442SOL     OW55317   3.638  10.291  10.622  0.1212 -0.0471 -0.7558
12442SOL    HW155318   3.552  10.301  10.582 -0.4733 -2.8472 -0.3507
12442SOL    HW255319   3.690  10.245  10.557  1.0937  0.8472 -0.6517
12443SOL     OW55320   1.276   6.728  12.727 -0.6914  0.2781 -0.0062
12443SOL    HW155321   1.209   6.795  12.720 -0.3170  1.1148  3.1299
12443SOL    HW255322   1.234   6.648  12.694 -0.6618  2.0589 -5.3651
12444SOL     OW55323   0.961   7.157   7.695 -0.5185 -0.5864  0.3938
12444SOL    HW155324   0.885   7.211   7.718 -0.2483 -0.8158  1.8966
12444SOL    HW255325   0.925   7.070   7.679 -0.7864 -0.2857 -0.7490
12445SOL     OW55326   1.254   3.337   8.356 -0.2212  0.2301  0.1055
12445SOL    HW155327   1.216   3.259   8.315  0.0300  0.2765 -0.2184
12445SOL    HW255328   1.269   3.397   8.283  0.8909  0.0416  0.1668
12446SOL     OW55329  12.408   1.917  11.602  0.5238 -0.0896  0.0432
12446SOL    HW155330  12.464   1.993  11.588  0.8564 -0.0654  1.3176
12446SOL    HW255331  12.468   1.843  11.603  0.3316 -0.2498 -0.1696
12447SOL     OW55332   7.971  12.944   9.684 -0.1485  0.1344  0.5683
12447SOL    HW155333   7.899  13.008   9.692  0.2668  0.4642  2.0044
12447SOL    HW255334   7.927  12.863   9.658 -0.9184  0.5864  0.4066
12448SOL     OW55335   7.256  10.721   3.682  0.1622  0.7761 -0.1458
12448SOL    HW155336   7.202  10.664   3.628  1.4430 -0.1399 -0.4966
12448SOL    HW255337   7.196  10.754   3.749 -0.5778 -1.2158  0.2518
12449SOL     OW55338  10.667   7.580   1.088 -0.3913  0.1622  0.3057
12449SOL    HW155339  10.755   7.590   1.123 -0.3082 -1.2894  0.5916
12449SOL    HW255340  10.625   7.518   1.148 -0.0259 -3.0123 -2.4428
12450SOL     OW55341   8.507  12.430   8.125 -0.1165 -0.4657  0.3630
12450SOL    HW155342   8.425  12.386   8.104 -1.1197  1.0830  0.7787
12450SOL    HW255343   8.493  12.465   8.214  0.6665  0.5058  0.1298
12451SOL     OW55344  10.343   1.820  10.390  0.5453  0.2882  1.0839
12451SOL    HW155345  10.426   1.832  10.436  0.5334  0.7229  0.9960
12451SOL    HW255346  10.298   1.905  10.398  0.6321  0.4330  0.1029
12452SOL     OW55347  10.784   6.071  14.007  0.6375  0.0872 -0.8639
12452SOL    HW155348  10.700   6.086  13.964  0.1206 -3.2963 -1.2983
12452SOL    HW255349  10.837   6.027  13.940  1.5975 -0.6980  0.3683
12453SOL     OW55350  11.792  12.220   4.753  0.7549  0.3343 -0.2712
12453SOL    HW155351  11.733  12.293   4.737  0.8846  0.7285  0.9667
12453SOL    HW255352  11.878  12.253   4.728  0.7724  0.5218  0.0284
12454SOL     OW55353  12.410  10.785   4.302 -0.3909  0.5169 -0.7592
12454SOL    HW155354  12.469  10.843   4.349  0.2148 -0.7138  0.0245
12454SOL    HW255355  12.333  10.777   4.359  0.0494 -0.4202 -0.2846
12455SOL     OW55356   4.868  10.388   5.226 -0.1460 -0.2297 -0.5246
12455SOL    HW155357   4.855  10.336   5.147  0.6267 -1.8176  0.3357
12455SOL    HW255358   4.788  10.375   5.277 -0.7449  0.9849 -1.1107
12456SOL     OW55359   1.257   4.968  11.319  0.3127 -0.5219  0.0841
12456SOL    HW155360   1.250   4.873  11.313  0.4966 -0.5103 -0.3421
12456SOL    HW255361   1.283   4.996  11.231  0.3362 -0.0856  0.2261
12457SOL     OW55362   0.061   1.642   2.346  0.2910 -0.1645 -0.2272
12457SOL    HW155363  -0.006   1.702   2.313  1.7587  1.0735 -1.0818
12457SOL    HW255364   0.143   1.691   2.340  1.4186 -1.9185  0.0032
12458SOL     OW55365  11.912   3.603   1.118 -0.3950  0.2354  0.1979
12458SOL    HW155366  11.827   3.630   1.086 -1.3133  0.5279  2.6494
12458SOL    HW255367  11.967   3.599   1.040 -2.2731  1.3601 -1.2759
12459SOL     OW55368  12.288   4.065   5.030 -0.3219 -0.2671 -0.6758
12459SOL    HW155369  12.276   4.159   5.045 -1.2716 -0.5242  0.2530
12459SOL    HW255370  12.210   4.025   5.066  1.1448 -1.6266  1.1564
12460SOL     OW55371   2.834  11.874   6.590  0.3316 -0.3023 -0.4057
12460SOL    HW155372   2.799  11.939   6.529  1.4134  0.7641  0.0641
12460SOL    HW255373   2.780  11.796   6.576 -0.4352  0.4155 -1.6053
12461SOL     OW55374  10.139   7.810   2.599  0.3205 -0.2128 -0.0168
12461SOL    HW155375  10.129   7.733   2.655  2.0915  0.1213  0.8480
12461SOL    HW255376  10.051   7.845   2.589 -0.6562 -2.7782 -1.1026
12462SOL     OW55377  11.567   9.601   6.484  0.0736  0.4846  0.2267
12462SOL    HW155378  11.528   9.618   6.399 -0.4021  1.7604  0.6658
12462SOL    HW255379  11.510   9.647   6.546 -1.4724 -2.9918  1.6471
12463SOL     OW55380   9.947   9.529   2.047  0.1245  0.3459 -0.4393
12463SOL    HW155381  10.025   9.560   2.002  1.2432 -1.9033 -0.2089
12463SOL    HW255382   9.915   9.457   1.994 -0.5585 -0.1285  0.5710
12464SOL     OW55383   2.943   3.157   9.553  0.2091 -0.4655  0.2656
12464SOL    HW155384   2.985   3.085   9.599 -0.1233 -0.4967  0.5263
12464SOL    HW255385   2.874   3.186   9.612 -2.5182 -2.6952 -1.5079
12465SOL     OW55386   0.165  10.503   1.147  0.1297  0.0196  0.1902
12465SOL    HW155387   0.086  10.521   1.197 -0.0803  0.3996 -0.2686
12465SOL    HW255388   0.175  10.408   1.150 -0.1678 -0.0005  0.5110
12466SOL     OW55389   9.043   1.190   5.997  0.1724  0.0811 -0.4201
12466SOL    HW155390   9.006   1.145   5.921  0.1314  1.4170 -1.2251
12466SOL    HW255391   9.082   1.270   5.962  0.9283  0.3133  0.8588
12467SOL     OW55392   5.822   8.657   3.405 -0.1312  0.7169  0.1363
12467SOL    HW155393   5.819   8.636   3.499 -0.7308 -1.6747 -0.3556
12467SOL    HW255394   5.748   8.717   3.392 -1.6721 -0.9401  0.8053
12468SOL     OW55395   1.170   3.368   0.026 -0.6698 -0.0138  0.1065
12468SOL    HW155396   1.202   3.402   0.110  0.2309 -0.5984  0.0196
12468SOL    HW255397   1.077   3.391   0.025 -0.5325  0.6532  0.9324
12469SOL     OW55398   7.599  13.217   1.387 -0.4099  0.5506  0.5122
12469SOL    HW155399   7.592  13.199   1.294 -0.1190  0.4877  0.5007
12469SOL    HW255400   7.677  13.272   1.395  0.9930 -1.3929  0.9795
12470SOL     OW55401   0.773   8.124  10.457  0.0355  0.2945  0.2463
12470SOL    HW155402   0.688   8.119  10.500  1.1465 -0.5009  2.4869
12470SOL    HW255403   0.776   8.213  10.422 -1.8819  0.1957 -0.3256
12471SOL     OW55404   9.456   7.151   7.957  0.2967 -0.2029  0.0913
12471SOL    HW155405   9.420   7.136   7.870  1.0631 -1.0380 -0.0980
12471SOL    HW255406   9.475   7.063   7.990  0.9228  0.1552  0.7081
12472SOL     OW55407   1.510  13.330  12.163 -0.3224  0.6833  0.0130
12472SOL    HW155408   1.482  13.346  12.073 -0.4433 -0.8055 -0.2356
12472SOL    HW255409   1.576  13.398  12.180 -0.9553  1.5501 -0.8630
12473SOL     OW55410   4.502  13.480  12.036  0.3871 -0.7554 -0.0170
12473SOL    HW155411   4.535  13.520  11.956  1.7411  2.0952  1.8046
12473SOL    HW255412   4.522  13.387  12.027  2.1718 -0.2375 -2.1896
12474SOL     OW55413   0.416  10.002   3.369 -0.2794 -0.3376  0.1999
12474SOL    HW155414   0.472  10.066   3.414  0.9624 -0.7492 -0.7122
12474SOL    HW255415   0.389   9.942   3.439 -1.3606  1.0548  1.0485
12475SOL     OW55416   3.216  10.582  13.479  0.0800 -0.2664  0.2803
12475SOL    HW155417   3.296  10.551  13.436 -0.0796  2.4878 -2.3213
12475SOL    HW255418   3.239  10.669  13.511 -1.7809  0.4803 -0.3056
12476SOL     OW55419   4.602   9.987   9.440 -0.4189  0.0959 -0.0270
12476SOL    HW155420   4.622   9.893   9.442  1.3474  0.4336  0.0952
12476SOL    HW255421   4.511   9.991   9.412 -0.8123 -1.6793  0.8258
12477SOL     OW55422   2.507   7.250  13.758  0.1727  0.6677 -0.0471
12477SOL    HW155423   2.586   7.199  13.742 -0.4242 -0.3216  0.0469
12477SOL    HW255424   2.536   7.325  13.809  1.1468  0.6585 -0.5742
12478SOL     OW55425   6.466  12.743   3.606  0.2754  0.3251 -0.6409
12478SOL    HW155426   6.518  12.682   3.658 -1.7747 -0.0284  1.1322
12478SOL    HW255427   6.491  12.830   3.638  1.5933  0.3372 -1.6235
12479SOL     OW55428   1.308  10.808  13.860  0.2640 -0.4068 -0.1405
12479SOL    HW155429   1.376  10.746  13.834  0.2245  0.3473 -2.2833
12479SOL    HW255430   1.356  10.883  13.894  0.5007 -0.1673 -0.9739
12480SOL     OW55431   0.802  10.250   0.411  0.2505  0.2136 -0.2658
12480SOL    HW155432   0.835  10.266   0.322 -0.9282 -0.8394 -0.9316
12480SOL    HW255433   0.878  10.224   0.461  1.0845  1.5877 -0.7517
12481SOL     OW55434   0.392   8.915   1.596 -0.4962  0.4298  0.0014
12481SOL    HW155435   0.315   8.884   1.548 -2.3705  1.3025  2.2638
12481SOL    HW255436   0.372   9.005   1.620 -0.2786 -0.2864  3.4191
12482SOL     OW55437   2.858   3.864  10.529 -0.3656  0.3378 -0.1317
12482SOL    HW155438   2.843   3.772  10.551 -1.7403  0.0339 -2.0730
12482SOL    HW255439   2.783   3.910  10.567 -0.1860  0.5098  0.0132
12483SOL     OW55440   2.632  10.132  11.582 -0.2103 -0.3470 -0.3370
12483SOL    HW155441   2.636  10.220  11.544 -0.5223 -0.6696 -1.1245
12483SOL    HW255442   2.654  10.074  11.510 -1.8831 -1.0387 -0.3172
12484SOL     OW55443   5.178  11.233  14.084 -0.0580 -0.3009  0.9249
12484SOL    HW155444   5.198  11.280  14.003  0.2664 -0.9187  0.6324
12484SOL    HW255445   5.100  11.276  14.119  0.0380  0.2297  0.4927
12485SOL     OW55446  12.337   4.690  10.019 -0.4620 -0.0794  0.0360
12485SOL    HW155447  12.277   4.706  10.092 -0.8288  2.2400 -0.6779
12485SOL    HW255448  12.423   4.680  10.061 -0.9812 -1.0344  0.9098
12486SOL     OW55449  12.365   7.859   4.757 -0.1550  0.6009 -0.5715
12486SOL    HW155450  12.373   7.764   4.758 -0.8220  0.5440 -0.6981
12486SOL    HW255451  12.292   7.879   4.815  0.3976  1.0851 -0.0166
12487SOL     OW55452   4.197   3.425  12.008 -1.1212  0.7078 -0.2792
12487SOL    HW155453   4.156   3.343  12.034  0.5424  0.2428  1.0423
12487SOL    HW255454   4.213   3.472  12.090  0.1080  1.2678 -0.8099
12488SOL     OW55455   5.257   9.663  11.371  0.7090 -0.1162 -0.2159
12488SOL    HW155456   5.320   9.603  11.330  1.4142 -1.3847  2.5144
12488SOL    HW255457   5.190   9.606  11.408 -0.7950  1.0931 -0.9555
12489SOL     OW55458   1.105   3.066   7.062  0.7929 -0.4815 -0.5869
12489SOL    HW155459   1.078   2.975   7.071  2.0000 -0.6667  2.7794
12489SOL    HW255460   1.023   3.114   7.052 -0.0449 -1.7743 -0.2227
12490SOL     OW55461   0.109   1.072  12.649  0.8621 -0.2592  0.1189
12490SOL    HW155462   0.179   1.067  12.584  0.7332 -1.7349  0.0588
12490SOL    HW255463   0.044   1.008  12.619 -0.5544  1.1012  0.1434
12491SOL     OW55464  13.567  12.727   0.832  0.2171  0.1658  0.3386
12491SOL    HW155465  13.570  12.710   0.738  3.9437  0.0800  0.3308
12491SOL    HW255466  13.546  12.642   0.871 -0.1958 -0.0641 -0.3682
12492SOL     OW55467   3.310  11.651  11.753  0.3675 -0.0240 -0.1697
12492SOL    HW155468   3.342  11.719  11.812  0.4678  0.0297 -0.2870
12492SOL    HW255469   3.296  11.696  11.670  1.2540 -0.3207 -0.4926
12493SOL     OW55470   6.465   6.187   2.006 -0.1791  0.0179 -0.0680
12493SOL    HW155471   6.431   6.272   2.035 -0.3122  0.2808 -0.9715
12493SOL    HW255472   6.451   6.129   2.081  1.5755  1.2040  1.2430
12494SOL     OW55473  11.266   6.181   6.041  0.2109 -0.1720  0.0899
12494SOL    HW155474  11.347   6.134   6.061  0.2408 -0.1815 -0.0497
12494SOL    HW255475  11.289   6.235   5.965 -0.1862 -0.8983 -0.5542
12495SOL     OW55476   6.060   2.507  10.457 -0.3487  0.0660  0.9050
12495SOL    HW155477   6.150   2.474  10.461  0.0815  1.0554 -0.2193
12495SOL    HW255478   6.019   2.455  10.388 -0.2025  0.6124  0.4010
12496SOL     OW55479   5.903   8.915  11.384  0.4117  0.0961 -0.0735
12496SOL    HW155480   5.914   8.910  11.289 -0.8325 -0.2251 -0.2185
12496SOL    HW255481   5.876   9.006  11.400 -1.1880 -0.3179 -0.2589
12497SOL     OW55482   4.277   7.026  10.583 -0.1615  0.3087  0.5606
12497SOL    HW155483   4.364   7.044  10.546  0.0393  3.9037  2.3541
12497SOL    HW255484   4.216   7.071  10.524 -0.6743 -0.7837  0.2346
12498SOL     OW55485   8.469   6.576  13.459 -0.2246  0.3813  0.2816
12498SOL    HW155486   8.444   6.529  13.380  0.4678  1.7728 -0.8209
12498SOL    HW255487   8.388   6.617  13.489 -0.6560 -0.8036  0.7726
12499SOL     OW55488  12.070   4.941   9.993  0.1943  0.6150  0.6364
12499SOL    HW155489  12.124   4.873   9.952  0.5957  0.7213  0.9870
12499SOL    HW255490  12.131   4.990  10.048 -0.5042 -0.0854  2.0903
12500SOL     OW55491  12.572   3.160   7.832 -0.1724  0.0257  0.4085
12500SOL    HW155492  12.608   3.138   7.746  1.1810  2.9315  0.1049
12500SOL    HW255493  12.509   3.090   7.851 -0.6362 -0.6491 -3.0217
12501SOL     OW55494   5.649   6.694   1.828 -0.1738 -0.3357  0.0962
12501SOL    HW155495   5.567   6.739   1.806 -0.4355 -0.2349  1.2120
12501SOL    HW255496   5.712   6.727   1.765 -0.8134  0.1756 -0.2890
12502SOL     OW55497  11.173  12.119  11.120 -0.1959  0.6648  0.3265
12502SOL    HW155498  11.201  12.209  11.103  0.4025  0.3553 -0.3625
12502SOL    HW255499  11.163  12.080  11.033  1.4680 -0.5021  0.6030
12503SOL     OW55500  10.586   1.695   7.517  0.1075  0.0377 -0.2808
12503SOL    HW155501  10.528   1.707   7.592  1.4183  0.4551  0.6966
12503SOL    HW255502  10.559   1.611   7.479 -2.6404  1.2608 -1.2651
12504SOL     OW55503  11.457  13.603  12.993  0.0172  0.5099  0.8360
12504SOL    HW155504  11.381  13.640  13.038 -0.7539  1.7545 -1.3505
12504SOL    HW255505  11.483  13.670  12.930  1.7041 -0.7171  0.1385
12505SOL     OW55506  11.204   5.768   9.347  0.3768  0.4063  0.3471
12505SOL    HW155507  11.259   5.704   9.392 -0.4085 -0.3387  0.2760
12505SOL    HW255508  11.249   5.785   9.265  0.6600  0.0341  0.4249
12506SOL     OW55509   3.420   5.581   7.056 -0.4159  0.1087  0.0197
12506SOL    HW155510   3.332   5.602   7.023  0.3035  1.4903 -1.1529
12506SOL    HW255511   3.414   5.490   7.085 -1.0331 -1.5045 -4.4214
12507SOL     OW55512   5.803   5.758   5.290 -0.4026 -0.5179  0.3172
12507SOL    HW155513   5.789   5.664   5.287  1.2938 -0.7853 -1.8863
12507SOL    HW255514   5.885   5.772   5.243 -0.1251  1.9990  1.3609
12508SOL     OW55515   9.552   7.680   5.792 -0.2199  0.4373  0.2368
12508SOL    HW155516   9.645   7.701   5.802 -0.0692 -0.0518 -0.1170
12508SOL    HW255517   9.548   7.585   5.802 -0.3414  0.1355 -2.0351
12509SOL     OW55518  11.314   7.746  11.836  0.2189 -0.7128  0.1894
12509SOL    HW155519  11.315   7.798  11.916 -1.4246 -2.3510  1.3656
12509SOL    HW255520  11.226   7.757  11.801  0.4134 -1.2961 -0.5075
12510SOL     OW55521   6.186  12.565   6.933 -0.2658  0.3209 -0.2994
12510SOL    HW155522   6.103  12.549   6.978  0.1937 -1.3287  0.0279
12510SOL    HW255523   6.230  12.631   6.987 -0.6983  0.0355  0.4275
12511SOL     OW55524   1.499   5.731   8.773 -0.7320 -0.3485 -0.0842
12511SOL    HW155525   1.515   5.692   8.687  0.8737 -1.1217  0.5226
12511SOL    HW255526   1.404   5.728   8.783 -0.8564 -1.3921 -1.3206
12512SOL     OW55527   8.535  10.808   5.580  0.0069 -0.4983  0.1642
12512SOL    HW155528   8.449  10.845   5.559 -0.1801  0.2662  2.0827
12512SOL    HW255529   8.552  10.745   5.510 -1.1917  0.7968 -1.3703
12513SOL     OW55530   5.722   3.676  12.683 -0.0936  0.6202 -0.5757
12513SOL    HW155531   5.755   3.603  12.736  0.8334 -0.2123 -2.2004
12513SOL    HW255532   5.658   3.720  12.739  0.0717 -0.8262  0.8207
12514SOL     OW55533   7.913  13.820  10.736 -1.2756  0.1389  0.2157
12514SOL    HW155534   7.888  13.877  10.809 -2.9255 -0.2123 -0.0350
12514SOL    HW255535   7.830  13.794  10.697 -0.6101 -2.6686  0.4755
12515SOL     OW55536   7.236   1.581   1.535 -0.4046  0.3674  0.1853
12515SOL    HW155537   7.235   1.487   1.517  1.7086  0.1815  0.7500
12515SOL    HW255538   7.257   1.621   1.451  1.0324  0.1260  0.4036
12516SOL     OW55539   7.473   9.205   5.134 -0.4841  0.2849 -0.1803
12516SOL    HW155540   7.458   9.199   5.229  0.2579 -4.0242 -0.1405
12516SOL    HW255541   7.385   9.204   5.096 -0.7636  0.7326  0.4282
12517SOL     OW55542  11.404  12.871   1.920 -0.4610  0.5873 -0.1094
12517SOL    HW155543  11.370  12.893   2.007  1.4425  0.8855  0.6131
12517SOL    HW255544  11.420  12.776   1.924  1.5785  0.9109  0.6599
12518SOL     OW55545   3.345   5.071   3.387 -0.5476  0.0718 -0.4273
12518SOL    HW155546   3.314   5.009   3.320 -2.4905  0.3682  0.1393
12518SOL    HW255547   3.273   5.133   3.397 -0.1322  0.2866  1.6389
12519SOL     OW55548  13.297   2.445  10.769  0.0557 -0.0975 -0.2491
12519SOL    HW155549  13.323   2.493  10.847  0.2787 -1.1375  0.3256
12519SOL    HW255550  13.307   2.508  10.698  0.3325  0.7038  0.4886
12520SOL     OW55551   6.615  13.990   5.418  0.4931 -0.5990 -0.1829
12520SOL    HW155552   6.556  13.954   5.484 -1.7222 -0.8709 -2.2207
12520SOL    HW255553   6.618  14.084   5.438  1.1077 -0.8917  1.2112
12521SOL     OW55554   4.593  13.234   2.527 -0.3204 -0.1228 -0.1221
12521SOL    HW155555   4.534  13.170   2.489  0.5343 -0.0698 -1.6344
12521SOL    HW255556   4.659  13.182   2.572  0.1715 -0.3243 -1.0437
12522SOL     OW55557   6.756   7.100   9.730 -0.1516 -0.7567 -0.4233
12522SOL    HW155558   6.816   7.156   9.680  1.2256 -1.1293  0.7403
12522SOL    HW255559   6.778   7.011   9.703  0.2482 -0.9285  0.4378
12523SOL     OW55560   1.509   4.936  11.884  0.5747  0.2283 -0.1287
12523SOL    HW155561   1.429   4.972  11.845  0.8815 -0.2553 -1.2405
12523SOL    HW255562   1.477   4.868  11.944  0.1540 -0.5581 -1.1960
12524SOL     OW55563  12.332  11.602   6.016  0.2127  0.1169  0.3903
12524SOL    HW155564  12.409  11.567   5.971 -0.6127 -0.7179 -0.4236
12524SOL    HW255565  12.337  11.567   6.105  1.1703  0.6986  0.5712
12525SOL     OW55566  13.870   6.969  12.718 -0.0108  0.3973 -0.3331
12525SOL    HW155567  13.901   6.970  12.627 -1.1581  0.1191 -0.7459
12525SOL    HW255568  13.928   6.907  12.762  0.4365  0.3799 -0.9214
12526SOL     OW55569   6.708   3.978  13.249 -0.0948 -0.2893 -0.4174
12526SOL    HW155570   6.617   3.972  13.276 -0.6027 -0.2304 -2.0215
12526SOL    HW255571   6.721   3.904  13.189  1.7838 -2.0899  2.0048
12527SOL     OW55572   6.058   4.248   2.746  0.2381  0.0868  0.3615
12527SOL    HW155573   6.010   4.297   2.813 -2.4731  1.0299 -2.0535
12527SOL    HW255574   6.118   4.312   2.708  0.5424  0.0190  0.7180
12528SOL     OW55575   0.479   1.348   4.043 -0.2623  0.4002  0.5262
12528SOL    HW155576   0.414   1.383   4.104 -0.4033  1.0197  0.0326
12528SOL    HW255577   0.543   1.418   4.033 -0.8525  0.7574 -0.9226
12529SOL     OW55578   8.001   6.700  13.061  0.2399 -0.2402  0.0004
12529SOL    HW155579   7.992   6.785  13.018 -0.1391 -0.7156 -0.8795
12529SOL    HW255580   8.089   6.702  13.100 -0.3919  1.2048  1.4874
12530SOL     OW55581   6.479   3.860  14.080 -0.3462 -0.0970 -0.0378
12530SOL    HW155582   6.390   3.828  14.068 -0.0649 -0.6174 -0.8431
12530SOL    HW255583   6.469   3.949  14.114 -1.1759  0.0386 -0.6190
12531SOL     OW55584   9.273   5.950  10.496 -0.0932  0.0402 -0.1238
12531SOL    HW155585   9.260   6.044  10.502  0.8308  0.2033 -0.5918
12531SOL    HW255586   9.186   5.915  10.477 -1.2087  0.4236  3.4328
12532SOL     OW55587   0.407   3.547   0.796 -0.2235 -0.3522 -0.2759
12532SOL    HW155588   0.323   3.592   0.791 -0.0589  0.0059  0.1371
12532SOL    HW255589   0.430   3.530   0.704 -0.2784  0.4169 -0.4416
12533SOL     OW55590  10.781   8.806   4.086  0.0822 -0.2537  0.2367
12533SOL    HW155591  10.798   8.839   3.998  0.4359 -0.0377  0.3828
12533SOL    HW255592  10.850   8.741   4.101  0.1425 -0.1493  0.4258
12534SOL     OW55593  10.209  12.335   2.190 -0.4081 -0.2172 -0.3350
12534SOL    HW155594  10.297  12.330   2.153  0.1893  0.1640  0.9544
12534SOL    HW255595  10.174  12.246   2.184  1.3766 -1.1995  2.1010
12535SOL     OW55596   1.204  11.185   5.484 -0.0949 -0.1598  0.1795
12535SOL    HW155597   1.144  11.259   5.483 -0.7676 -0.6856 -1.1381
12535SOL    HW255598   1.291  11.224   5.474 -0.2364  0.5789  1.7203
12536SOL     OW55599   9.901   4.327  13.319  0.0799  0.2594  0.0187
12536SOL    HW155600   9.943   4.262  13.263 -0.1705 -0.3479  0.5295
12536SOL    HW255601   9.835   4.278  13.368  0.6935  0.6512  1.2943
12537SOL     OW55602   0.975   8.533  13.217 -0.0709 -0.4849 -0.2129
12537SOL    HW155603   0.970   8.616  13.169  1.5905 -1.7270 -2.7675
12537SOL    HW255604   1.000   8.558  13.306  0.6531  1.7513 -0.9745
12538SOL     OW55605  12.026   6.376   2.379 -0.4485  0.0361  0.1844
12538SOL    HW155606  12.110   6.382   2.335 -0.1016 -2.1309  0.4692
12538SOL    HW255607  11.966   6.342   2.312 -0.8710  0.6190  0.2599
12539SOL     OW55608   2.324   3.402   5.976  0.6770 -0.4949  0.4832
12539SOL    HW155609   2.261   3.433   5.911  0.7998 -0.3681  0.4245
12539SOL    HW255610   2.316   3.306   5.973  1.8892 -0.5942 -0.9512
12540SOL     OW55611  14.010  13.696  11.138  0.3842  0.5373 -0.0260
12540SOL    HW155612  13.982  13.632  11.204 -0.9919  0.7136 -0.4031
12540SOL    HW255613  14.008  13.780  11.185  2.2864  0.3268  0.4966
12541SOL     OW55614   9.578   3.011   9.244  0.0749 -0.0448 -0.2284
12541SOL    HW155615   9.505   2.949   9.245 -0.0273  0.0045 -2.2735
12541SOL    HW255616   9.536   3.097   9.249  0.2394  0.0242  3.6501
12542SOL     OW55617   8.845  10.975  10.178  0.0769 -0.5348 -0.2319
12542SOL    HW155618   8.866  11.068  10.168 -0.2202 -0.6105 -1.8771
12542SOL    HW255619   8.777  10.959  10.113 -1.0018 -1.5733  1.0849
12543SOL     OW55620   4.511   1.091   0.385 -0.2828 -0.3523  0.2794
12543SOL    HW155621   4.451   1.018   0.370  0.6898 -1.0998 -0.0519
12543SOL    HW255622   4.540   1.080   0.475 -1.3900  0.5942  0.7795
12544SOL     OW55623   7.889  10.417   3.749  0.2344 -0.3476  0.0515
12544SOL    HW155624   7.810  10.389   3.702  0.5551  0.7691 -1.2178
12544SOL    HW255625   7.860  10.426   3.840 -0.8912 -0.7657 -0.2471
12545SOL     OW55626   0.924   9.394   2.800 -0.5693 -0.1942  0.1852
12545SOL    HW155627   0.993   9.371   2.862  1.5924  2.8869 -0.8564
12545SOL    HW255628   0.870   9.458   2.846 -1.6027 -1.1498  0.3280
12546SOL     OW55629   6.025  12.602  13.851  0.2576  0.4358 -0.2439
12546SOL    HW155630   6.112  12.580  13.816  0.3005  0.5103 -0.1835
12546SOL    HW255631   6.042  12.644  13.935  0.3296  2.9555 -1.4171
12547SOL     OW55632  12.863  13.261   3.916 -0.0731  0.5003 -0.5211
12547SOL    HW155633  12.915  13.195   3.962  3.6514  2.7020 -1.1641
12547SOL    HW255634  12.824  13.214   3.842  1.1182 -1.2939 -0.0539
12548SOL     OW55635  10.671   1.253  13.054 -0.0415 -0.0928  0.3616
12548SOL    HW155636  10.695   1.236  12.962 -0.9308  0.3867  0.0276
12548SOL    HW255637  10.733   1.202  13.105  1.0295  0.3249 -0.4887
12549SOL     OW55638  13.382   8.639  11.301 -0.6600 -0.1868  0.0278
12549SOL    HW155639  13.458   8.583  11.284 -0.7295 -0.0662 -0.7255
12549SOL    HW255640  13.324   8.623  11.226 -0.8910  0.5368  0.0510
12550SOL     OW55641   4.598   2.761   6.838  0.5212 -0.5026  0.1656
12550SOL    HW155642   4.616   2.789   6.928  0.0944 -1.7449  0.6622
12550SOL    HW255643   4.683   2.767   6.794  0.5121  1.2267  0.3082
12551SOL     OW55644   4.073   5.038  12.165 -0.2834  0.3631 -0.0850
12551SOL    HW155645   4.097   4.979  12.237 -1.0252 -2.0783 -1.7424
12551SOL    HW255646   4.156   5.056  12.120 -0.2930 -1.0250 -0.6970
12552SOL     OW55647  13.609  13.013  10.710 -0.2968  0.1482  0.1556
12552SOL    HW155648  13.539  13.077  10.701 -0.4668  0.1440  1.3675
12552SOL    HW255649  13.690  13.063  10.695 -0.4951  0.3801 -0.1433
12553SOL     OW55650   3.302   9.342   6.768 -0.2310 -0.4333  0.3067
12553SOL    HW155651   3.317   9.419   6.714  2.5392 -0.4753  0.8815
12553SOL    HW255652   3.230   9.296   6.725  0.0119  0.9628 -1.7214
12554SOL     OW55653   6.501  10.263   5.002  0.7356  0.1702  0.2671
12554SOL    HW155654   6.558  10.186   5.009  0.5318  0.0616  0.7824
12554SOL    HW255655   6.437  10.252   5.072  0.9512  1.0159  0.6130
12555SOL     OW55656  10.353  10.096   8.670 -0.0756 -0.2285 -0.3088
12555SOL    HW155657  10.299  10.018   8.657  1.5252 -1.9005  2.3188
12555SOL    HW255658  10.332  10.125   8.759  1.7544  0.3363 -0.0209
12556SOL     OW55659   5.468   2.984   5.085  0.0298  0.3672 -0.3740
12556SOL    HW155660   5.468   3.073   5.048 -0.6201  0.4570 -0.1541
12556SOL    HW255661   5.544   2.942   5.044  0.7268  1.2248  0.0023
12557SOL     OW55662   6.860   2.337   0.610 -0.5394 -0.6471 -0.5705
12557SOL    HW155663   6.923   2.409   0.611 -1.0322 -0.1412 -2.0418
12557SOL    HW255664   6.903   2.269   0.557 -0.4092 -1.1216  0.1328
12558SOL     OW55665   9.663  10.962  10.333  0.5208 -0.8183  0.6171
12558SOL    HW155666   9.744  11.003  10.303  0.2100  0.1911  1.1237
12558SOL    HW255667   9.658  10.881  10.283  1.4113 -0.4914 -0.0366
12559SOL     OW55668  11.183   2.552   3.887  0.0041 -0.0476 -0.0601
12559SOL    HW155669  11.146   2.471   3.852 -3.0609  1.2255 -0.0668
12559SOL    HW255670  11.233   2.525   3.964 -0.4715 -1.9792 -0.3834
12560SOL     OW55671   2.667   4.526   3.259 -0.3543  1.1743  0.1229
12560SOL    HW155672   2.694   4.445   3.303 -0.5519  1.2896  0.4603
12560SOL    HW255673   2.629   4.498   3.176  2.7501  1.0876 -1.4140
12561SOL     OW55674   2.201   5.480  12.255  0.3729  0.0348  0.3928
12561SOL    HW155675   2.265   5.515  12.193  0.1939  0.6698  0.5622
12561SOL    HW255676   2.202   5.386  12.240 -0.6674  0.2859 -1.5498
12562SOL     OW55677   0.781  10.653   6.412 -0.5290  0.1550 -0.1746
12562SOL    HW155678   0.858  10.710   6.406  0.6112 -1.2885 -0.1111
12562SOL    HW255679   0.712  10.699   6.366  0.2631  1.7014  0.1387
12563SOL     OW55680  11.744  13.720  13.353  0.0423 -0.0770  0.2241
12563SOL    HW155681  11.653  13.698  13.335  0.4121 -0.2361 -1.6441
12563SOL    HW255682  11.769  13.661  13.425 -1.3148 -0.0089  0.7710
12564SOL     OW55683   2.935  13.358   6.931 -0.0456  0.7609 -0.0364
12564SOL    HW155684   3.016  13.408   6.936  1.2741 -1.3777  2.2608
12564SOL    HW255685   2.954  13.288   6.868 -0.4747  0.7976 -0.2134
12565SOL     OW55686  10.025   7.877   1.471 -0.2018  0.8606 -0.4652
12565SOL    HW155687   9.936   7.912   1.463  0.3754  2.1100 -1.9765
12565SOL    HW255688  10.016   7.783   1.454 -1.2477  0.9356 -0.3849
12566SOL     OW55689   7.668   8.133  10.171 -0.0238 -0.4394  0.4379
12566SOL    HW155690   7.694   8.128  10.263  0.0031 -2.5747  0.3775
12566SOL    HW255691   7.744   8.168  10.126  0.5504 -0.8794  1.0471
12567SOL     OW55692   4.461  10.854   7.091 -0.4758  0.2194  0.4140
12567SOL    HW155693   4.514  10.917   7.042 -2.0192  2.0152  0.9106
12567SOL    HW255694   4.444  10.897   7.174 -1.5706 -0.8806  0.7860
12568SOL     OW55695   5.457   4.993   2.998  0.1798  0.2750  0.2145
12568SOL    HW155696   5.385   5.055   2.989  0.8304  0.8132 -1.5853
12568SOL    HW255697   5.459   4.946   2.915  0.9191 -0.8544  0.8384
12569SOL     OW55698   8.242   3.868   2.336 -0.8237 -0.0229  0.3400
12569SOL    HW155699   8.221   3.791   2.388 -1.5681 -1.0285 -1.3498
12569SOL    HW255700   8.290   3.833   2.260  0.0853  1.3554  0.2319
12570SOL     OW55701   1.128   5.141   9.401  0.3301  0.7435 -0.2713
12570SOL    HW155702   1.109   5.226   9.441  0.3849 -0.8784  3.6773
12570SOL    HW255703   1.214   5.117   9.436 -0.1207 -1.3313 -0.4443
12571SOL     OW55704   7.938  10.589  12.635 -0.2660 -0.0216  0.2611
12571SOL    HW155705   7.943  10.550  12.547 -0.5624  0.7985 -0.1258
12571SOL    HW255706   7.885  10.668  12.623  0.6481  0.7092  0.9591
12572SOL     OW55707   6.751  11.490   2.512  0.5092  0.1275  0.1909
12572SOL    HW155708   6.681  11.496   2.447  1.5470 -0.2249 -1.0233
12572SOL    HW255709   6.712  11.520   2.593 -1.3829 -1.1931 -0.1692
12573SOL     OW55710  12.863   4.904   1.749 -0.0406 -0.5190  0.4908
12573SOL    HW155711  12.789   4.963   1.763 -1.0893 -1.7452  0.4106
12573SOL    HW255712  12.907   4.900   1.834  0.3448  0.7478  0.3573
12574SOL     OW55713   0.204   3.731   5.780  0.3295 -0.1101  0.4926
12574SOL    HW155714   0.238   3.820   5.779  0.2146  0.0088 -2.7022
12574SOL    HW255715   0.111   3.741   5.759  0.2683 -0.9689  0.3261
12575SOL     OW55716   1.770   0.670   6.758 -0.2724 -0.1179 -0.8013
12575SOL    HW155717   1.750   0.759   6.729 -0.5351 -0.5566 -2.0621
12575SOL    HW255718   1.820   0.632   6.685 -0.9113 -1.2639 -0.6697
12576SOL     OW55719  11.512   3.787   9.276  0.4448  0.0050 -0.3743
12576SOL    HW155720  11.476   3.794   9.365 -1.0716 -1.2146 -0.8547
12576SOL    HW255721  11.450   3.834   9.221  1.5366  1.0139 -0.7695
12577SOL     OW55722  12.018  11.549   3.619  0.3767  0.2413  0.7561
12577SOL    HW155723  11.946  11.609   3.598 -0.4013 -0.7234  0.5837
12577SOL    HW255724  11.987  11.502   3.697  1.5485  0.9866  1.7095
12578SOL     OW55725   5.930   8.671   1.414  0.2486 -0.4638 -0.0801
12578SOL    HW155726   5.863   8.610   1.385 -0.3370 -0.2256  0.7358
12578SOL    HW255727   5.881   8.744   1.451  0.9602 -0.1239  0.1998
12579SOL     OW55728  12.983   7.524   4.038 -0.3601 -0.2531  0.1064
12579SOL    HW155729  12.950   7.545   4.126  3.2560 -0.9875  1.8130
12579SOL    HW255730  13.066   7.571   4.032  0.4360 -1.7905 -2.1557
12580SOL     OW55731   3.525   0.190   9.118 -0.0340 -0.2205  0.0925
12580SOL    HW155732   3.538   0.267   9.063  3.0165  0.5543  1.6370
12580SOL    HW255733   3.611   0.148   9.120 -1.0488 -2.4315  1.1344
12581SOL     OW55734   1.819  10.897   7.610 -0.0981  0.1184  0.6337
12581SOL    HW155735   1.739  10.860   7.571 -0.3530  0.8327  0.4688
12581SOL    HW255736   1.800  10.990   7.619  0.3898  0.1440  1.4211
12582SOL     OW55737   7.384   9.117   3.461 -0.3319 -0.0198 -0.6821
12582SOL    HW155738   7.304   9.155   3.499 -0.2612  0.3727 -0.9228
12582SOL    HW255739   7.389   9.029   3.498  0.1302  0.6060  0.8178
12583SOL     OW55740  12.673  13.906  10.225 -0.2579 -0.1558  0.1863
12583SOL    HW155741  12.719  13.826  10.251  1.1081  0.4993 -0.1323
12583SOL    HW255742  12.687  13.967  10.297 -0.2131  0.2085 -0.1258
12584SOL     OW55743   9.315   2.154   0.550 -0.0770 -0.4230 -0.4218
12584SOL    HW155744   9.312   2.059   0.561 -1.0148 -0.4881 -1.0553
12584SOL    HW255745   9.365   2.168   0.470  2.0332 -0.2388  0.8703
12585SOL     OW55746  10.154   6.942   1.884  0.4748 -0.5977 -0.4490
12585SOL    HW155747  10.093   7.006   1.846 -0.7864 -0.0375  2.2641
12585SOL    HW255748  10.120   6.857   1.855  0.3899 -0.1834 -1.6421
12586SOL     OW55749  10.283  13.983   4.513  0.5585  0.0605  0.0643
12586SOL    HW155750  10.263  13.891   4.497  0.1856  0.5139 -2.5852
12586SOL    HW255751  10.224  14.031   4.455 -0.0760  2.0743  2.2154
12587SOL     OW55752   5.436   1.043  13.774  0.2548 -0.0880 -0.6716
12587SOL    HW155753   5.465   1.009  13.690 -1.1279  1.7580 -1.9635
12587SOL    HW255754   5.408   1.133  13.756  0.0750  0.4219  1.7944
12588SOL     OW55755   0.310   6.485  11.225  0.0695 -0.5103  0.0298
12588SOL    HW155756   0.295   6.396  11.193 -1.4819 -0.1200 -0.3980
12588SOL    HW255757   0.380   6.518  11.169 -1.9403 -0.1593 -2.4989
12589SOL     OW55758   6.213   4.450  13.526  0.2291  0.3707 -0.4589
12589SOL    HW155759   6.211   4.395  13.447 -0.3850  0.6995 -0.6772
12589SOL    HW255760   6.234   4.537  13.493  2.7630  0.0304  0.0446
12590SOL     OW55761   4.587   7.847   8.852  0.3003 -0.3697  0.1758
12590SOL    HW155762   4.508   7.863   8.904  0.7255 -0.0217  0.7238
12590SOL    HW255763   4.659   7.859   8.914  0.8236  0.2413 -0.5428
12591SOL     OW55764  13.647   4.202   1.717  0.3610  0.0045 -0.1266
12591SOL    HW155765  13.727   4.255   1.717  0.0128  0.5935 -2.0718
12591SOL    HW255766  13.668   4.126   1.664  0.1755 -0.7664  0.8728
12592SOL     OW55767   2.214   5.417  12.647  0.0055  0.3223 -0.3275
12592SOL    HW155768   2.212   5.513  12.647 -0.5942  0.4067  2.5226
12592SOL    HW255769   2.288   5.395  12.704 -1.9388 -0.7655  1.9559
12593SOL     OW55770   7.075  10.220   3.911  0.1422 -0.5334 -0.3984
12593SOL    HW155771   7.053  10.197   3.821 -2.1730 -0.8644  0.1963
12593SOL    HW255772   7.020  10.163   3.965  0.6636  0.4221  1.2220
12594SOL     OW55773  13.105   0.343   5.367 -0.5161  0.1448 -0.6464
12594SOL    HW155774  13.165   0.320   5.296 -0.2343 -1.4464  0.0701
12594SOL    HW255775  13.161   0.352   5.444 -0.9423  0.8228 -0.4105
12595SOL     OW55776   5.684  13.167  11.064 -0.2921  0.0089 -0.0534
12595SOL    HW155777   5.681  13.186  11.158 -0.5397 -1.8839  0.3592
12595SOL    HW255778   5.776  13.177  11.040  0.2080 -1.7389  0.9481
12596SOL     OW55779  10.828   8.269  10.434  0.3427 -0.7100  0.0882
12596SOL    HW155780  10.803   8.288  10.524 -2.1948  0.0025 -0.6686
12596SOL    HW255781  10.797   8.179  10.419  1.2669 -1.0333  0.0793
12597SOL     OW55782   7.997   9.849  12.771 -0.7711 -0.1748  0.2302
12597SOL    HW155783   8.078   9.801  12.785 -0.7478 -0.1820  0.0675
12597SOL    HW255784   7.971   9.878  12.858  0.3700  1.3907  0.0821
12598SOL     OW55785   1.490   7.936   8.184  0.1004 -0.1970  0.6156
12598SOL    HW155786   1.477   8.020   8.139  0.1769 -1.5690 -2.2264
12598SOL    HW255787   1.571   7.948   8.232 -0.1157  1.4908  0.6461
12599SOL     OW55788   9.255   8.657   1.464 -0.2203  0.4583  0.0355
12599SOL    HW155789   9.338   8.665   1.512  0.0703  0.6081 -0.4913
12599SOL    HW255790   9.190   8.696   1.523  0.3043  1.6134 -0.1220
12600SOL     OW55791  13.709   3.833   7.436  0.1000 -0.0167  0.4693
12600SOL    HW155792  13.638   3.862   7.494 -1.2433  0.7411 -1.4376
12600SOL    HW255793  13.740   3.914   7.395  0.0617 -0.6529 -0.8631
12601SOL     OW55794   3.363  10.194   2.353 -0.0969  0.2991  0.3797
12601SOL    HW155795   3.325  10.205   2.266  1.3250  0.9086 -0.1938
12601SOL    HW255796   3.320  10.116   2.389  0.6004 -1.0653 -1.6028
12602SOL     OW55797   2.194   6.822  13.095  0.4576  0.7295 -0.0421
12602SOL    HW155798   2.192   6.910  13.132  0.9100  0.5847  0.3401
12602SOL    HW255799   2.285   6.809  13.069  0.2531  0.6198 -0.7019
12603SOL     OW55800   0.993  12.772   1.651  0.3014  0.1380  0.3194
12603SOL    HW155801   0.924  12.831   1.622  0.0341 -1.0111 -1.5193
12603SOL    HW255802   1.040  12.749   1.571  0.4165 -2.0974  0.9811
12604SOL     OW55803   4.403   0.833   3.728 -0.0156  0.7256  0.5006
12604SOL    HW155804   4.430   0.862   3.641  0.2084 -1.6941 -0.3151
12604SOL    HW255805   4.483   0.795   3.767 -0.5794 -0.0834  0.9079
12605SOL     OW55806  13.930  10.756   5.966  0.5473 -0.1216 -0.2232
12605SOL    HW155807  13.962  10.704   6.040 -1.0920 -0.0950  0.5374
12605SOL    HW255808  13.837  10.771   5.984  0.4578  1.2137 -1.5203
12606SOL     OW55809   3.877   6.993   5.615  0.0215  0.2287 -0.2069
12606SOL    HW155810   3.907   7.030   5.698 -1.1093  3.1472 -1.0035
12606SOL    HW255811   3.951   7.006   5.555 -0.2371  0.8617 -0.3912
12607SOL     OW55812   0.888   2.129  12.350 -0.1234 -0.1567  0.3658
12607SOL    HW155813   0.879   2.221  12.325 -1.0708 -0.4221 -0.3145
12607SOL    HW255814   0.805   2.107  12.392  0.2668 -0.5861  0.9247
12608SOL     OW55815   7.444   8.015  13.647  0.0110 -0.6537 -0.0278
12608SOL    HW155816   7.384   8.086  13.625 -0.9850 -1.1628  0.9739
12608SOL    HW255817   7.398   7.963  13.713  1.7957 -0.6990  1.2715
12609SOL     OW55818   5.490   4.946   9.326  0.0508 -0.4610  0.2656
12609SOL    HW155819   5.553   4.875   9.316 -0.4073 -1.0931  1.5853
12609SOL    HW255820   5.495   4.969   9.419  0.7689  1.8047 -0.2808
12610SOL     OW55821  13.654   6.521  11.780  0.2323 -0.0047 -0.1977
12610SOL    HW155822  13.618   6.537  11.693 -0.9447 -0.7976  0.1319
12610SOL    HW255823  13.592   6.563  11.840  1.7797  1.8189  0.2298
12611SOL     OW55824  11.062   9.439   2.139 -0.2160  0.0312  0.3283
12611SOL    HW155825  10.968   9.420   2.143 -0.3185  0.6684  0.9993
12611SOL    HW255826  11.104   9.361   2.175 -0.3953 -0.8581 -1.2597
12612SOL     OW55827   0.054   3.859  10.309 -0.0133 -0.2434 -0.4767
12612SOL    HW155828   0.127   3.865  10.247 -0.3126 -0.5658 -0.8570
12612SOL    HW255829   0.092   3.818  10.387  0.3337  0.0599 -0.4798
12613SOL     OW55830   7.761   4.654   0.086  0.3571  0.0705  0.0201
12613SOL    HW155831   7.828   4.670   0.020 -0.7306  2.5668 -0.5874
12613SOL    HW255832   7.807   4.666   0.169  1.0576 -0.0827 -0.3377
12614SOL     OW55833   2.557   3.533  11.850  0.2318  0.0425  0.0536
12614SOL    HW155834   2.573   3.514  11.758  1.0356 -1.1477  0.4164
12614SOL    HW255835   2.627   3.486  11.897 -0.4979  0.1527  1.2964
12615SOL     OW55836   7.595  14.002   2.722  0.2938 -0.3678  0.0399
12615SOL    HW155837   7.541  14.003   2.802  1.8946 -2.8331  1.2695
12615SOL    HW255838   7.603  13.909   2.699 -0.3451  0.2617 -3.2390
12616SOL     OW55839   7.988   0.467  10.164 -0.2462 -0.2202 -0.2087
12616SOL    HW155840   8.024   0.555  10.174 -0.2614 -0.0904 -1.2262
12616SOL    HW255841   7.974   0.437  10.254  0.3826  0.5539  0.1609
12617SOL     OW55842   6.474   0.705   3.900  0.2185  0.2134 -0.1483
12617SOL    HW155843   6.548   0.660   3.859  0.3686  0.1039  0.2341
12617SOL    HW255844   6.398   0.679   3.849  0.2674 -0.6730  0.2075
12618SOL     OW55845  13.838   9.453   3.649  0.2633  0.1320  0.2254
12618SOL    HW155846  13.874   9.539   3.628 -1.6560  0.5353 -1.7753
12618SOL    HW255847  13.876   9.394   3.584 -0.6193  0.0674 -0.2497
12619SOL     OW55848  10.626  12.649   4.414  0.8614 -0.4489  0.2792
12619SOL    HW155849  10.715  12.670   4.387  0.9862 -0.8316  0.3816
12619SOL    HW255850  10.613  12.698   4.496  0.6287  0.3805 -0.2446
12620SOL     OW55851   5.158  13.860  10.378  0.6226  0.4358  0.0295
12620SOL    HW155852   5.076  13.897  10.411  1.5044  0.9414  1.7869
12620SOL    HW255853   5.154  13.874  10.283 -0.7052  1.7155  0.2332
12621SOL     OW55854   6.074   0.960  12.820  0.0579 -0.1724 -0.6022
12621SOL    HW155855   6.053   1.011  12.898 -0.8426 -1.4699  0.0626
12621SOL    HW255856   6.032   1.007  12.748 -2.2935 -0.8374  0.2336
12622SOL     OW55857   4.238   7.268   2.158  0.0652 -0.0031 -0.2102
12622SOL    HW155858   4.232   7.340   2.096 -0.6195  0.3087  0.2094
12622SOL    HW255859   4.330   7.264   2.182 -0.0768  1.4952  0.6537
12623SOL     OW55860   2.241   8.031   7.536 -0.0245 -0.2293  0.1228
12623SOL    HW155861   2.165   7.990   7.494 -1.3487 -0.1389  2.2729
12623SOL    HW255862   2.208   8.061   7.621  2.0073  1.3658  0.4309
12624SOL     OW55863   2.016  13.372   0.329 -0.0777  0.2381 -0.0765
12624SOL    HW155864   2.061  13.359   0.245  1.1257  1.1725  0.3911
12624SOL    HW255865   1.952  13.441   0.312  0.3159  0.5804 -0.1882
12625SOL     OW55866   2.671   8.625   6.016  0.0302 -0.0401  0.6126
12625SOL    HW155867   2.590   8.575   6.024  0.2745 -0.3970  0.8998
12625SOL    HW255868   2.651   8.695   5.954 -0.6248  0.1355  1.0193
12626SOL     OW55869   3.217   9.576  13.882 -0.2990  0.4738 -0.2748
12626SOL    HW155870   3.199   9.506  13.819 -2.1585  0.0257  0.6793
12626SOL    HW255871   3.248   9.531  13.960  0.4060  0.8940 -0.3045
12627SOL     OW55872  14.086   7.771   6.471 -0.0125  0.0737  0.9105
12627SOL    HW155873  14.031   7.813   6.405 -1.2580 -0.8946  1.2777
12627SOL    HW255874  14.173   7.768   6.432 -0.2800  1.3347  0.1623
12628SOL     OW55875   5.377  11.081   0.624 -0.0689  0.3099 -0.0531
12628SOL    HW155876   5.471  11.076   0.636 -0.0460 -0.0523 -0.4143
12628SOL    HW255877   5.347  11.138   0.696  0.2674 -0.6026  0.8367
12629SOL     OW55878   8.275   8.837  10.103  0.0750 -0.5102  0.3854
12629SOL    HW155879   8.291   8.884  10.185  0.3346 -1.3458  0.8200
12629SOL    HW255880   8.188   8.799  10.113  0.4274 -1.2709  0.5973
12630SOL     OW55881   1.179  11.573  10.518 -0.2175  0.0512 -0.2416
12630SOL    HW155882   1.199  11.562  10.425 -0.1173  0.0389 -0.2191
12630SOL    HW255883   1.169  11.668  10.529 -0.0728  0.0659 -0.2335
12631SOL     OW55884  12.164   2.076   3.915 -0.6454 -0.1353 -0.3549
12631SOL    HW155885  12.168   2.057   3.821  0.2517 -2.3095  0.0700
12631SOL    HW255886  12.071   2.085   3.934 -1.2284 -3.7416 -0.7998
12632SOL     OW55887   4.692  11.355   4.572  0.5644  0.2402  0.3661
12632SOL    HW155888   4.744  11.336   4.650  0.1277 -1.5521  0.2667
12632SOL    HW255889   4.754  11.394   4.510  1.6434 -1.2414  0.4795
12633SOL     OW55890   3.094   8.994  10.733 -0.1010  0.5442 -0.5401
12633SOL    HW155891   3.008   9.035  10.724 -1.1071 -1.2131  0.5965
12633SOL    HW255892   3.145   9.057  10.784 -1.1825  0.9592  0.0553
12634SOL     OW55893   5.393   3.242   0.880  0.5302 -0.7260 -0.3687
12634SOL    HW155894   5.381   3.334   0.856  0.5668 -0.4647  0.5580
12634SOL    HW255895   5.331   3.227   0.951 -1.1836 -2.0963 -2.0331
12635SOL     OW55896   8.614  12.208  10.998  0.0795 -0.1331  0.2364
12635SOL    HW155897   8.703  12.235  11.020  0.1018 -1.4624  1.9211
12635SOL    HW255898   8.563  12.289  11.002  0.8704  0.3350  1.1734
12636SOL     OW55899  12.518   7.358   4.982 -0.7580 -0.1764  0.2488
12636SOL    HW155900  12.471   7.299   5.042 -0.7902 -1.6366 -1.1480
12636SOL    HW255901  12.560   7.300   4.919 -0.3655  1.2969 -0.9055
12637SOL     OW55902   5.742   8.906   2.115  0.2582  0.0973 -0.1579
12637SOL    HW155903   5.755   8.839   2.048  1.3488  0.4569 -0.3276
12637SOL    HW255904   5.653   8.891   2.147  0.4789 -1.4352 -0.1789
12638SOL     OW55905  10.786   9.250   6.165 -0.1575 -0.5604 -0.5226
12638SOL    HW155906  10.709   9.264   6.110  0.5428  0.0478 -1.3757
12638SOL    HW255907  10.754   9.195   6.237 -1.8062  1.1048  0.0989
12639SOL     OW55908   8.879  13.372   6.847  0.1051 -0.6436 -0.4113
12639SOL    HW155909   8.930  13.294   6.868  1.1065  0.2882  0.7445
12639SOL    HW255910   8.829  13.390   6.927  1.8602  1.3595  0.3299
12640SOL     OW55911   5.316   4.572  12.756 -0.1764 -0.2044 -0.3486
12640SOL    HW155912   5.244   4.620  12.796 -0.6623 -1.9526  1.0303
12640SOL    HW255913   5.283   4.543  12.672 -0.2074  1.0093 -0.7731
12641SOL     OW55914  10.431   3.747   6.577 -0.0789  0.3081  0.0104
12641SOL    HW155915  10.512   3.765   6.530 -0.4648 -0.8511 -1.1607
12641SOL    HW255916  10.363   3.787   6.522 -0.3230  1.1565  0.9146
12642SOL     OW55917   9.309  12.103   9.649 -0.3555  0.6103 -1.0411
12642SOL    HW155918   9.375  12.168   9.672 -0.1871  0.3740 -0.8430
12642SOL    HW255919   9.310  12.041   9.722 -0.6920  0.5245 -1.1060
12643SOL     OW55920   0.206   6.053   3.277  0.1373 -0.5833 -0.1747
12643SOL    HW155921   0.215   6.148   3.271 -1.0940 -0.4657 -0.4869
12643SOL    HW255922   0.112   6.037   3.266  0.2596 -1.8025  0.3859
12644SOL     OW55923  11.487   9.551  12.520 -0.5928  0.2011 -0.1836
12644SOL    HW155924  11.421   9.587  12.579  0.5364  1.4077  0.3955
12644SOL    HW255925  11.534   9.628  12.487  2.1307 -0.6867  1.3516
12645SOL     OW55926   4.896   1.226   5.611 -0.1924 -0.1210  0.3242
12645SOL    HW155927   4.854   1.252   5.529 -0.5918 -1.5666  0.0405
12645SOL    HW255928   4.827   1.234   5.677 -0.1713  0.0063  0.3315
12646SOL     OW55929   7.218  10.728  12.043 -0.4141 -0.1487  0.2327
12646SOL    HW155930   7.153  10.665  12.074 -1.9625  1.7741  1.1157
12646SOL    HW255931   7.231  10.787  12.117  0.8675  0.6837 -0.6105
12647SOL     OW55932   1.319  11.574   4.258  0.1081  0.1812  0.4879
12647SOL    HW155933   1.341  11.485   4.286 -1.5442 -0.1989  0.6423
12647SOL    HW255934   1.326  11.571   4.162  3.2089  0.7997  0.5746
12648SOL     OW55935   9.539  13.474  12.934  0.1188  0.1450 -0.5920
12648SOL    HW155936   9.550  13.381  12.954  1.6111  0.4414  0.1354
12648SOL    HW255937   9.526  13.477  12.839  3.0169 -0.6620 -1.1200
12649SOL     OW55938   7.379   5.723  10.704 -0.0925 -0.0339  0.3052
12649SOL    HW155939   7.345   5.745  10.617  1.5925 -1.6096 -0.8060
12649SOL    HW255940   7.410   5.807  10.740  0.8427  0.3804 -1.3764
12650SOL     OW55941   8.610   4.537   9.945 -0.0810  0.2002 -0.5505
12650SOL    HW155942   8.551   4.474   9.905 -1.4410  2.0713 -1.6705
12650SOL    HW255943   8.629   4.600   9.875  1.8942  0.6135  0.2744
12651SOL     OW55944   1.045   1.569  12.723 -0.0807  0.0570 -0.1016
12651SOL    HW155945   1.091   1.528  12.797  1.4825  0.5492 -0.7574
12651SOL    HW255946   1.058   1.508  12.650  1.0869  1.0279 -0.7347
12652SOL     OW55947  10.999   5.441   4.330 -0.1323 -0.4830 -0.0139
12652SOL    HW155948  10.912   5.481   4.343  0.2404 -0.0413  1.3021
12652SOL    HW255949  11.021   5.406   4.416  1.2626 -0.0356 -0.1719
12653SOL     OW55950   4.246   8.486   2.746 -0.8119  0.1333  0.0942
12653SOL    HW155951   4.228   8.573   2.711 -0.8886  0.0268 -0.1301
12653SOL    HW255952   4.265   8.433   2.669  1.2226  0.4198  0.3417
12654SOL     OW55953   7.122   7.066   4.392 -0.2630  0.2895 -0.3504
12654SOL    HW155954   7.111   7.128   4.465  0.6261 -1.0287  0.9687
12654SOL    HW255955   7.033   7.042   4.367 -0.6346  2.0400 -0.8823
12655SOL     OW55956  11.976  13.407  13.638  0.2176  0.4217  0.6387
12655SOL    HW155957  12.026  13.471  13.688  1.2439  1.6808 -1.8144
12655SOL    HW255958  11.968  13.331  13.696  2.1052  1.4171  2.3175
12656SOL     OW55959  11.471   2.129  10.985 -0.0272  0.2203  0.3489
12656SOL    HW155960  11.481   2.141  10.890 -1.8997  0.7337  0.1634
12656SOL    HW255961  11.488   2.036  10.999  1.3773  0.3585 -0.3082
12657SOL     OW55962  11.675   3.136  12.481  0.3142 -0.2577 -0.7942
12657SOL    HW155963  11.635   3.056  12.446  0.4999 -1.6236  1.8703
12657SOL    HW255964  11.625   3.155  12.561  0.0847  2.5286 -1.4832
12658SOL     OW55965   7.478   9.475  11.391  0.6620 -0.5691  0.6821
12658SOL    HW155966   7.392   9.512  11.413  0.2644 -1.6393  0.9952
12658SOL    HW255967   7.458   9.405  11.329  1.2248 -1.3629  1.3813
12659SOL     OW55968  13.591   8.329   2.530  0.2837  0.1026  0.7574
12659SOL    HW155969  13.497   8.317   2.538  0.1146  1.9449  1.9722
12659SOL    HW255970  13.602   8.422   2.510  1.8560 -0.1106  0.4679
12660SOL     OW55971   5.321   9.499   0.858 -0.1098  0.2883 -0.5877
12660SOL    HW155972   5.344   9.478   0.767 -0.7737 -1.9514 -0.2875
12660SOL    HW255973   5.404   9.522   0.899  0.3918  0.0728 -1.4467
12661SOL     OW55974   8.589   7.748   0.364  0.0149  0.3716 -0.2513
12661SOL    HW155975   8.646   7.812   0.322 -0.7825 -0.3871 -2.6588
12661SOL    HW255976   8.507   7.752   0.314 -1.0479 -0.5515  1.3146
12662SOL     OW55977   9.446   6.235   9.394 -0.0391  0.1402 -0.3006
12662SOL    HW155978   9.410   6.306   9.447  2.2419  1.0294  0.1576
12662SOL    HW255979   9.371   6.201   9.346 -1.1659  3.1106 -0.8526
12663SOL     OW55980   1.891   3.194  11.103  0.5433  0.1872 -0.2819
12663SOL    HW155981   1.888   3.192  11.008  1.9359  0.1105 -0.3449
12663SOL    HW255982   1.957   3.260  11.124 -1.0632  1.5838  0.6866
12664SOL     OW55983  10.941   4.069   8.538  0.3184 -0.0343 -0.3395
12664SOL    HW155984  11.007   4.016   8.584  0.3299  1.3281  1.2902
12664SOL    HW255985  10.991   4.116   8.472  0.5143 -1.0390 -0.9325
12665SOL     OW55986   7.351  10.607   7.577  0.4492  0.1265  0.5917
12665SOL    HW155987   7.383  10.696   7.594 -0.1532  1.3089 -3.3012
12665SOL    HW255988   7.427  10.561   7.542  0.0639  0.1260 -0.2737
12666SOL     OW55989   5.996   2.351   9.003  0.0038  0.5115 -0.0833
12666SOL    HW155990   6.017   2.444   9.005 -0.5550  0.7615 -2.6159
12666SOL    HW255991   6.079   2.308   8.982  0.7601  0.1310  3.1514
12667SOL     OW55992   7.465   1.336   7.193  0.3345  0.2187 -0.2340
12667SOL    HW155993   7.518   1.409   7.162  0.1820  1.2263  1.6833
12667SOL    HW255994   7.475   1.338   7.289 -0.3517 -1.7547 -0.0633
12668SOL     OW55995   0.782  12.731   7.483 -0.6998 -0.4539 -0.1449
12668SOL    HW155996   0.842  12.674   7.531  1.2279  1.3500 -0.2761
12668SOL    HW255997   0.708  12.743   7.543 -0.2173 -1.4599  0.6928
12669SOL     OW55998  13.399   2.075  10.787 -0.2187  0.2703  0.0532
12669SOL    HW155999  13.422   2.145  10.847 -1.2092 -0.8188  1.8209
12669SOL    HW256000  13.367   2.119  10.709  1.8591  1.7391 -0.0336
12670SOL     OW56001   1.369  11.433  10.224 -0.1677 -0.2058 -0.4677
12670SOL    HW156002   1.308  11.373  10.182  1.7900 -2.2147 -0.6027
12670SOL    HW256003   1.399  11.386  10.302  0.7484  0.9959 -0.0661
12671SOL     OW56004  11.341  13.592   0.673 -0.1065 -0.3163  0.0596
12671SOL    HW156005  11.414  13.605   0.612  1.7066  1.7911  2.4316
12671SOL    HW256006  11.302  13.679   0.682 -0.1140 -0.4826  2.0826
12672SOL     OW56007   5.878   3.524  13.241  0.0005 -0.7695  0.7017
12672SOL    HW156008   5.816   3.467  13.194  0.8208 -0.5162 -0.7297
12672SOL    HW256009   5.957   3.471  13.249  1.4613  0.6796 -2.3412
12673SOL     OW56010   0.745   5.769   8.061  0.0063 -0.1770  0.0540
12673SOL    HW156011   0.680   5.742   7.996 -0.0556 -2.9868  1.1350
12673SOL    HW256012   0.697   5.824   8.122 -0.3141  1.1643 -1.3480
12674SOL     OW56013  12.808   8.400   0.170 -0.0502 -0.1828 -0.2285
12674SOL    HW156014  12.817   8.417   0.264  2.0084  0.8091 -0.5530
12674SOL    HW256015  12.879   8.450   0.130 -0.1422 -1.5458 -2.2126
12675SOL     OW56016  14.127   9.332   2.651 -0.0555  0.1615  0.1773
12675SOL    HW156017  14.179   9.394   2.600 -0.1911  0.6109  0.5828
12675SOL    HW256018  14.136   9.362   2.742 -0.9298  0.1776  0.2678
12676SOL     OW56019  11.688  13.492   8.117  0.3062  0.4121 -0.1948
12676SOL    HW156020  11.637  13.415   8.140  1.4458  0.3904  2.6387
12676SOL    HW256021  11.667  13.508   8.025  0.0568 -3.2668 -0.9137
12677SOL     OW56022   7.342   8.574   1.281 -0.4160  0.7677 -0.3687
12677SOL    HW156023   7.399   8.512   1.236  0.8373  1.8781 -0.3945
12677SOL    HW256024   7.287   8.520   1.337 -0.1975 -0.4394 -1.2628
12678SOL     OW56025   6.516   6.315   4.803  0.0852 -0.0881 -0.4561
12678SOL    HW156026   6.439   6.324   4.859 -0.4215 -1.7276 -0.8466
12678SOL    HW256027   6.482   6.277   4.722  1.1328  0.2907 -1.0898
12679SOL     OW56028   8.442   8.781  12.872 -0.1877 -0.7357 -0.3122
12679SOL    HW156029   8.488   8.806  12.792  0.9221 -0.8666  0.2618
12679SOL    HW256030   8.422   8.688  12.861 -2.1535 -0.2498 -1.4117
12680SOL     OW56031   4.739   1.910  10.205  0.1974 -1.0425  0.3987
12680SOL    HW156032   4.828   1.917  10.169  0.4559 -0.8831  1.0657
12680SOL    HW256033   4.746   1.944  10.294 -0.6210 -0.6465  0.3197
12681SOL     OW56034   5.785   7.200   5.531 -0.2220  0.7105 -1.1123
12681SOL    HW156035   5.766   7.280   5.482 -0.8222  0.4534 -1.3119
12681SOL    HW256036   5.699   7.160   5.545  0.1173 -0.1739 -1.4886
12682SOL     OW56037   6.886   1.462   1.283 -0.3384  0.1473 -0.6117
12682SOL    HW156038   6.848   1.391   1.230 -1.6689  1.4523 -1.4873
12682SOL    HW256039   6.967   1.484   1.238  0.7891 -1.6660  0.4238
12683SOL     OW56040  13.474  12.048   5.877  0.1961 -0.2933 -0.7274
12683SOL    HW156041  13.429  12.087   5.952  0.9791 -0.6634 -0.0598
12683SOL    HW256042  13.441  12.097   5.802 -0.3532  0.2995 -0.1130
12684SOL     OW56043   0.183   0.382  10.365  0.5800  0.3394 -0.1932
12684SOL    HW156044   0.217   0.468  10.387 -1.8657  1.1518  0.6947
12684SOL    HW256045   0.089   0.396  10.352  0.1611 -2.1456 -0.2793
12685SOL     OW56046   1.603   9.183   4.157  0.2254  0.1706 -0.0668
12685SOL    HW156047   1.534   9.167   4.222  0.8676  0.8984  0.8136
12685SOL    HW256048   1.556   9.218   4.081 -0.4965 -0.3900  0.1035
12686SOL     OW56049   2.810   8.773   1.731 -0.1714 -0.2223 -0.5026
12686SOL    HW156050   2.800   8.678   1.729  1.1755 -0.4020 -2.9524
12686SOL    HW256051   2.755   8.804   1.658 -0.0550  0.8028 -0.1738
12687SOL     OW56052   8.177   9.735   3.569 -0.2352 -0.0425 -0.3610
12687SOL    HW156053   8.266   9.766   3.550 -0.0350  0.5513  1.3848
12687SOL    HW256054   8.130   9.813   3.597 -1.3190 -0.3654 -1.1964
12688SOL     OW56055   1.953   4.238   5.968 -0.0900 -0.0263  0.5746
12688SOL    HW156056   1.975   4.202   6.054  1.7090  0.4351  0.3495
12688SOL    HW256057   2.031   4.287   5.942 -0.5176 -0.3205 -1.4124
12689SOL     OW56058   4.234   1.609   3.838 -0.1091  0.1002  0.2377
12689SOL    HW156059   4.304   1.596   3.775 -0.3812  1.0847 -0.2925
12689SOL    HW256060   4.172   1.538   3.821 -0.4974  0.7190 -1.0645
12690SOL     OW56061   9.046   5.741   6.881 -0.2991  0.5258  0.0617
12690SOL    HW156062   9.058   5.835   6.886 -1.3219  0.6524  0.2660
12690SOL    HW256063   9.050   5.712   6.972  0.5531  0.2908 -0.0399
12691SOL     OW56064  13.686   9.971   7.087 -0.5146  0.2995  0.0395
12691SOL    HW156065  13.611   9.929   7.045  0.3460 -0.6736 -0.5460
12691SOL    HW256066  13.665  10.065   7.085 -1.5323  0.0761 -0.4646
12692SOL     OW56067   8.339  12.630   0.374  0.1204 -0.4309  0.2840
12692SOL    HW156068   8.429  12.602   0.357  0.3694  0.9812 -0.9158
12692SOL    HW256069   8.301  12.646   0.287  0.0152  2.8151  0.8108
12693SOL     OW56070   6.838  10.305   4.937 -0.1940  0.1195 -0.0338
12693SOL    HW156071   6.751  10.267   4.928  0.2707 -0.8116 -0.7380
12693SOL    HW256072   6.884  10.278   4.858  0.7490  0.5800  0.3459
12694SOL     OW56073  12.764   5.828   2.943  0.2324 -0.1052  0.1382
12694SOL    HW156074  12.721   5.880   3.011 -0.9236  0.4131 -0.9331
12694SOL    HW256075  12.716   5.850   2.863  2.3006  0.2476 -1.0849
12695SOL     OW56076   0.682  12.001   1.899  0.2608 -0.6436  0.0975
12695SOL    HW156077   0.699  11.922   1.950 -2.2763 -0.8061  0.8606
12695SOL    HW256078   0.656  11.968   1.813 -0.2987 -0.6371  0.2592
12696SOL     OW56079   7.436  10.175  12.975  0.7608 -0.0697  0.1863
12696SOL    HW156080   7.407  10.085  12.960  0.3430 -0.0707  0.9314
12696SOL    HW256081   7.378  10.227  12.919  1.6550 -0.3185 -1.0094
12697SOL     OW56082   9.699   6.424  10.733  0.1269  0.2132  0.3873
12697SOL    HW156083   9.755   6.447  10.659  0.3672  0.0135  0.5042
12697SOL    HW256084   9.616   6.470  10.716 -0.1802 -0.6279 -0.5392
12698SOL     OW56085   3.866  13.896  13.040 -0.1699 -0.2247 -0.3489
12698SOL    HW156086   3.888  13.978  13.084  0.0433  0.2882 -1.3758
12698SOL    HW256087   3.900  13.828  13.097  0.7306  0.4423 -0.0724
12699SOL     OW56088   0.565   9.134   1.361 -0.1482  0.5274 -0.3699
12699SOL    HW156089   0.485   9.170   1.398  1.0053  3.3449 -0.3594
12699SOL    HW256090   0.544   9.117   1.269 -1.2395 -0.4804  0.0571
12700SOL     OW56091   6.093  10.927   1.340  0.4234 -0.4074 -0.6084
12700SOL    HW156092   6.092  10.905   1.433  2.5143  0.4796 -0.3263
12700SOL    HW256093   6.102  10.843   1.295 -0.5324 -0.8320 -0.0259
12701SOL     OW56094   1.883   6.790  11.643 -0.3556  0.2393 -0.5299
12701SOL    HW156095   1.863   6.719  11.582  0.5679  0.3338 -0.9738
12701SOL    HW256096   1.972   6.817  11.618 -0.1410  0.5797  0.5692
12702SOL     OW56097  12.084   4.440   9.308 -0.0043 -0.2838 -0.0055
12702SOL    HW156098  12.053   4.527   9.334 -0.2260 -0.0661 -0.9910
12702SOL    HW256099  12.146   4.416   9.377  0.9076  1.1276 -0.2990
12703SOL     OW56100   8.777   5.148  11.185  0.2877 -0.2223  0.0874
12703SOL    HW156101   8.853   5.118  11.235  0.6308 -0.9242 -0.8352
12703SOL    HW256102   8.815   5.194  11.110 -0.2005  2.3940  1.2995
12704SOL     OW56103  12.821  11.427   5.741 -0.3247  0.4096  0.3227
12704SOL    HW156104  12.899  11.381   5.711 -0.7629  0.1665 -0.4547
12704SOL    HW256105  12.832  11.433   5.836  0.4447  0.0165  0.2624
12705SOL     OW56106   1.082   7.315   9.361  0.5559 -0.0008 -0.3583
12705SOL    HW156107   1.158   7.275   9.403  0.4711 -0.3742 -0.5543
12705SOL    HW256108   1.096   7.300   9.267 -0.2153 -0.9073 -0.3453
12706SOL     OW56109   8.249   2.462   7.292  0.5733 -0.1733  0.1556
12706SOL    HW156110   8.206   2.546   7.306 -0.9004 -0.0030 -4.0039
12706SOL    HW256111   8.178   2.398   7.295  1.1101 -0.7896 -0.1193
12707SOL     OW56112   5.863   8.676   4.700 -0.3193 -0.2105 -0.2857
12707SOL    HW156113   5.877   8.751   4.759 -0.2017 -1.1697  0.9577
12707SOL    HW256114   5.950   8.655   4.667 -0.1712 -0.5282  0.2978
12708SOL     OW56115   3.937   2.749   5.191  0.0474  0.3301  0.3139
12708SOL    HW156116   4.008   2.738   5.128 -0.2476  1.1565 -0.1838
12708SOL    HW256117   3.868   2.690   5.160  0.3258 -0.1199  0.5303
12709SOL     OW56118  12.282   4.372   7.334 -0.5467 -0.1393 -0.0206
12709SOL    HW156119  12.226   4.350   7.408 -1.8349  1.1390 -0.5576
12709SOL    HW256120  12.221   4.399   7.265  0.6955  0.3719 -0.9541
12710SOL     OW56121   5.018   7.064   8.715  0.1932  0.0610  0.0166
12710SOL    HW156122   4.968   7.141   8.742 -0.0590  0.1485 -0.6731
12710SOL    HW256123   4.961   6.990   8.732 -0.5985  0.2338 -1.6908
12711SOL     OW56124   1.210   8.021   1.171 -0.3287 -0.0075  0.7221
12711SOL    HW156125   1.239   8.112   1.167 -0.5653  0.0602  0.5010
12711SOL    HW256126   1.217   7.997   1.264  3.0865 -0.8705  0.3643
12712SOL     OW56127  10.250  10.193   5.632  0.1480 -0.2945  0.2116
12712SOL    HW156128  10.159  10.217   5.647  0.3065 -0.3080  1.3057
12712SOL    HW256129  10.277  10.243   5.556 -1.1646 -1.3125 -0.9666
12713SOL     OW56130  10.222   0.166   6.200 -0.1745  0.6289  0.1232
12713SOL    HW156131  10.187   0.133   6.283  1.2566 -1.5440 -0.0769
12713SOL    HW256132  10.147   0.210   6.159 -1.0953  1.1286  2.2293
12714SOL     OW56133  13.040  13.924  10.530 -0.2206 -0.2207  0.2105
12714SOL    HW156134  13.118  13.973  10.505 -1.1673  0.7460 -1.0084
12714SOL    HW256135  13.044  13.920  10.626  0.8747  0.5719  0.2190
12715SOL     OW56136   1.036  13.857   1.669 -0.0257 -0.3898  0.6693
12715SOL    HW156137   0.962  13.917   1.675 -0.1723 -0.3485 -1.1212
12715SOL    HW256138   1.028  13.802   1.747 -2.2795 -0.7806  0.2342
12716SOL     OW56139   5.694   0.012  12.836 -0.1416  0.0490  0.0081
12716SOL    HW156140   5.732  -0.001  12.923 -0.2801 -1.4155 -0.1323
12716SOL    HW256141   5.769   0.010  12.777  0.4446  4.4059  0.2608
12717SOL     OW56142   3.344  11.254  13.522 -0.1596 -0.1749 -0.0976
12717SOL    HW156143   3.306  11.183  13.470  1.4681 -1.3774  0.2775
12717SOL    HW256144   3.423  11.216  13.560  0.3412  1.6234  0.7557
12718SOL     OW56145   0.759   4.952   2.520 -0.3497 -0.4853  0.2062
12718SOL    HW156146   0.692   5.020   2.520 -0.4080 -0.4453  2.9500
12718SOL    HW256147   0.837   4.994   2.486 -0.8034  0.4673  0.3235
12719SOL     OW56148   8.165   5.174  13.381  0.3897  0.3297  0.3674
12719SOL    HW156149   8.213   5.119  13.319  0.3055  0.3336  0.2986
12719SOL    HW256150   8.213   5.165  13.463  0.3541  0.1200  0.3667
12720SOL     OW56151   8.689   4.651   5.229  0.9057  0.1465  0.4060
12720SOL    HW156152   8.610   4.641   5.281  1.0422 -1.0850  0.4164
12720SOL    HW256153   8.744   4.712   5.278  0.5689 -0.1358  1.1409
12721SOL     OW56154   2.992  11.238  13.483 -0.6312  0.2837  0.2330
12721SOL    HW156155   3.068  11.215  13.430 -2.6657 -2.4047 -1.8033
12721SOL    HW256156   2.990  11.173  13.553 -0.4745  1.0271  0.9407
12722SOL     OW56157   2.758   5.316   7.696 -1.2098  0.7732  0.4374
12722SOL    HW156158   2.824   5.325   7.627  0.1381 -0.3573  1.5443
12722SOL    HW256159   2.785   5.379   7.763 -1.1879  0.2121  0.9538
12723SOL     OW56160   7.501  12.846   9.600  0.2632  0.2357 -0.2116
12723SOL    HW156161   7.550  12.858   9.518 -2.3771  2.6675 -1.6321
12723SOL    HW256162   7.525  12.921   9.654  0.1037 -0.0046  0.1976
12724SOL     OW56163  13.528   5.525  11.404 -0.0650  0.1658  0.0915
12724SOL    HW156164  13.481   5.606  11.385  0.5726  0.7203  0.8136
12724SOL    HW256165  13.460   5.466  11.438 -0.6572  0.1494 -1.0739
12725SOL     OW56166   4.335   4.191   1.763  0.4481 -0.2338 -0.4407
12725SOL    HW156167   4.365   4.100   1.760  1.3443  0.0021  0.7120
12725SOL    HW256168   4.389   4.232   1.830 -1.5307  0.5763  0.7496
12726SOL     OW56169  10.996   9.249  13.347  0.1493 -0.3287 -0.0774
12726SOL    HW156170  11.055   9.223  13.277 -2.1213 -2.4866 -1.3705
12726SOL    HW256171  11.009   9.343  13.357  1.2664 -0.1207 -2.7114
12727SOL     OW56172   0.343  10.287   4.897  0.1006 -0.3006 -0.1445
12727SOL    HW156173   0.303  10.310   4.981  0.5857 -0.4826  0.1343
12727SOL    HW256174   0.274  10.239   4.851 -0.2569  0.0287  0.0414
12728SOL     OW56175   4.443   9.998  13.423 -0.1320 -0.3676  0.2029
12728SOL    HW156176   4.449   9.909  13.459 -1.3756 -0.4326  0.2776
12728SOL    HW256177   4.389  10.045  13.486 -0.6583  0.0590 -0.5564
12729SOL     OW56178   9.060   7.516   6.707  0.4847 -0.1071  0.5406
12729SOL    HW156179   9.063   7.604   6.745 -0.2460  0.7378 -1.2158
12729SOL    HW256180   9.106   7.525   6.624 -1.9497 -0.6348 -0.9719
12730SOL     OW56181  12.313   3.488   4.978  0.4777  0.3694 -0.0138
12730SOL    HW156182  12.245   3.523   5.035  1.8092  1.1265  1.1635
12730SOL    HW256183  12.309   3.542   4.899 -0.8832 -0.2147 -0.3781
12731SOL     OW56184   2.302   2.258   5.668  0.0119 -0.7768 -0.1990
12731SOL    HW156185   2.317   2.166   5.648  1.3341 -1.4194  3.1190
12731SOL    HW256186   2.232   2.285   5.608  0.9692 -3.3119 -2.6551
12732SOL     OW56187   2.355   8.599   2.836 -0.3841 -0.2630  0.1977
12732SOL    HW156188   2.302   8.678   2.825 -0.6865 -0.3979  0.6411
12732SOL    HW256189   2.308   8.547   2.902 -0.5870 -1.1572 -0.6357
12733SOL     OW56190   5.489   8.126   8.628 -0.0365  0.0818  0.0689
12733SOL    HW156191   5.490   8.214   8.666 -1.3777  0.5734 -0.9424
12733SOL    HW256192   5.562   8.126   8.566  1.9911 -0.6347  2.2900
12734SOL     OW56193   6.072  10.962  10.361 -0.0639  0.1394 -0.1129
12734SOL    HW156194   6.141  10.896  10.373 -0.0429  0.3439  1.0307
12734SOL    HW256195   5.993  10.911  10.340  0.4448 -0.0877 -1.5756
12735SOL     OW56196   8.057  10.103   6.491 -0.1605 -0.3476 -0.1347
12735SOL    HW156197   8.008  10.102   6.574 -2.3057 -0.2685 -1.3310
12735SOL    HW256198   8.117  10.177   6.500  0.9926 -1.4512  2.0260
12736SOL     OW56199   1.837   8.808   0.283  0.5212 -0.0403  0.1976
12736SOL    HW156200   1.922   8.845   0.258  0.0519  0.7046 -0.3123
12736SOL    HW256201   1.850   8.713   0.278  0.8240  0.0704 -1.6561
12737SOL     OW56202   0.480   4.203   0.505  0.0806  0.0150  0.4897
12737SOL    HW156203   0.462   4.223   0.597 -0.2172 -1.4480  0.7672
12737SOL    HW256204   0.538   4.127   0.508  0.7881  0.4814 -0.5376
12738SOL     OW56205   3.786   9.264   8.427 -0.0856  0.1255 -0.1291
12738SOL    HW156206   3.725   9.305   8.488  1.6117  1.6624  0.6481
12738SOL    HW256207   3.741   9.266   8.342 -1.2301  0.8809  0.4741
12739SOL     OW56208   5.460   7.014  14.018  0.0915  0.4508  0.1650
12739SOL    HW156209   5.440   7.107  14.003 -0.9487  0.3918  1.1447
12739SOL    HW256210   5.531   7.015  14.082 -0.0366  0.5569  0.3044
12740SOL     OW56211   2.757   2.054   7.591 -0.0991  0.5313  0.1772
12740SOL    HW156212   2.735   1.961   7.595 -1.7633  0.9229  1.2666
12740SOL    HW256213   2.804   2.072   7.672 -0.1719  0.7146  0.1813
12741SOL     OW56214   5.135  11.109  12.292 -0.9285 -0.0514  0.2006
12741SOL    HW156215   5.158  11.021  12.323 -0.8689  0.0624  0.4768
12741SOL    HW256216   5.077  11.093  12.218 -2.0625 -0.3102  1.1263
12742SOL     OW56217  13.403   6.175   1.895 -0.6548  0.7342 -0.5194
12742SOL    HW156218  13.440   6.248   1.944 -2.1753  1.0501  0.2270
12742SOL    HW256219  13.434   6.097   1.942  0.9728  0.8567 -1.3202
12743SOL     OW56220   4.747   8.490   4.565  0.7456 -0.5145 -0.6241
12743SOL    HW156221   4.717   8.550   4.633 -0.5889 -1.0143 -0.7429
12743SOL    HW256222   4.832   8.459   4.596  1.2122  0.9966 -0.3072
12744SOL     OW56223  11.200   9.081  12.477 -0.3352 -0.1456 -0.3177
12744SOL    HW156224  11.295   9.074  12.473 -0.3551 -0.4605 -4.4023
12744SOL    HW256225  11.183   9.175  12.480  0.0290 -0.0958  0.9460
12745SOL     OW56226   9.478   6.421   3.574  0.5977  0.1017  0.2873
12745SOL    HW156227   9.428   6.446   3.652  1.4166 -0.1755  0.9153
12745SOL    HW256228   9.496   6.328   3.586  1.5214  0.2676  0.2125
12746SOL     OW56229   4.763   2.064   1.223 -0.7290  0.0316 -0.0637
12746SOL    HW156230   4.735   2.126   1.156 -0.4326  2.9090  2.2561
12746SOL    HW256231   4.857   2.081   1.234 -0.5400 -1.1656  0.3467
12747SOL     OW56232  11.268   5.182   5.603  0.1931  0.1158  0.1223
12747SOL    HW156233  11.336   5.164   5.538 -0.2661  1.2876 -0.7119
12747SOL    HW256234  11.186   5.177   5.554 -0.3623 -1.2465  1.1062
12748SOL     OW56235   4.116  13.112  11.356  0.2993 -0.0024 -0.7438
12748SOL    HW156236   4.162  13.183  11.312 -0.6050  0.3505 -1.1567
12748SOL    HW256237   4.025  13.142  11.361 -0.2985 -1.4986 -1.7578
12749SOL     OW56238   6.541   3.469   4.884 -1.0506  0.1827 -0.2777
12749SOL    HW156239   6.631   3.488   4.855 -0.6461  1.2958  1.5382
12749SOL    HW256240   6.546   3.378   4.916  0.2111  1.0633  2.3372
12750SOL     OW56241   2.098  12.407   5.801 -0.2672 -0.1191 -0.5393
12750SOL    HW156242   2.135  12.319   5.794  0.9294  0.3587 -0.4378
12750SOL    HW256243   2.044  12.417   5.723 -1.1739 -1.2717 -0.0954
12751SOL     OW56244  10.202   7.516   0.925 -0.0592 -0.3855 -0.2034
12751SOL    HW156245  10.245   7.565   0.995  0.1592  0.8309 -1.1683
12751SOL    HW256246  10.208   7.425   0.953  1.0865 -0.0320  0.7900
12752SOL     OW56247  12.755   9.539   8.059 -0.3083  0.0937 -0.5582
12752SOL    HW156248  12.808   9.601   8.109 -1.7331  0.2891  0.7759
12752SOL    HW256249  12.734   9.585   7.978  0.1502  0.6536 -0.3657
12753SOL     OW56250   5.199   0.045   8.200 -0.3545  0.0359  0.4830
12753SOL    HW156251   5.205  -0.047   8.227 -0.5025 -0.0225  0.3185
12753SOL    HW256252   5.128   0.081   8.254 -0.6276 -0.0732  0.2032
12754SOL     OW56253   8.380   1.295   5.337  0.3915 -0.0725 -0.2762
12754SOL    HW156254   8.458   1.273   5.388  0.6371  0.4674 -0.4079
12754SOL    HW256255   8.390   1.246   5.256  0.9543  0.5358 -0.5855
12755SOL     OW56256   9.401  12.682  11.405 -0.6182 -0.6676 -0.2873
12755SOL    HW156257   9.358  12.668  11.489 -0.4876  0.0099 -0.0990
12755SOL    HW256258   9.343  12.641  11.341 -1.3830 -0.0677  0.0006
12756SOL     OW56259   0.744   4.807   9.027  0.2076  0.8451 -0.3252
12756SOL    HW156260   0.706   4.809   9.114  1.4854  0.6989  0.2589
12756SOL    HW256261   0.697   4.737   8.981  0.0129  0.4397  0.4769
12757SOL     OW56262   4.739   9.489   6.997 -0.1251  0.2277  0.2862
12757SOL    HW156263   4.731   9.492   6.902  1.7017 -1.1846  0.0292
12757SOL    HW256264   4.777   9.574   7.021 -1.0849  0.7956 -0.1546
12758SOL     OW56265   0.155   8.741   0.431 -0.0241  0.2342  0.2399
12758SOL    HW156266   0.092   8.670   0.420  0.7266 -0.3744 -0.2746
12758SOL    HW256267   0.226   8.719   0.370  0.2693  1.3716  0.1504
12759SOL     OW56268  10.083  11.303   1.203  0.2844 -0.0819  0.1824
12759SOL    HW156269  10.060  11.296   1.296  0.6960 -0.7007  0.2385
12759SOL    HW256270  10.052  11.390   1.178 -0.0012  0.0170  0.8509
12760SOL     OW56271  13.577   2.345   1.114  0.0153 -0.1553  0.0446
12760SOL    HW156272  13.525   2.291   1.055  1.0612  0.9979 -2.0735
12760SOL    HW256273  13.665   2.307   1.110  0.3040  0.4869  0.1046
12761SOL     OW56274  13.713  13.716   5.180 -0.8110  0.9358 -0.3254
12761SOL    HW156275  13.675  13.743   5.096 -0.2345 -0.1584 -0.9619
12761SOL    HW256276  13.802  13.689   5.158 -1.0412 -0.5441  0.3998
12762SOL     OW56277   7.746   5.232   6.128  0.2664 -0.1108 -0.4361
12762SOL    HW156278   7.682   5.297   6.101  0.1372 -0.3668 -0.7492
12762SOL    HW256279   7.810   5.281   6.180  0.4318  0.3595 -1.0653
12763SOL     OW56280  11.880  10.866   0.274  0.5867 -0.1021 -0.9203
12763SOL    HW156281  11.850  10.834   0.359 -1.0949  1.2258 -0.9588
12763SOL    HW256282  11.889  10.960   0.285  1.2979 -0.0392 -1.9498
12764SOL     OW56283   4.756   9.717   6.347  0.2527 -0.3725  0.1504
12764SOL    HW156284   4.715   9.699   6.431 -2.0948  1.5119 -0.4802
12764SOL    HW256285   4.690   9.693   6.281  1.0209  0.6108 -1.0324
12765SOL     OW56286   5.772   8.068   5.748  0.5479  0.1349  0.1374
12765SOL    HW156287   5.778   7.992   5.691  0.3795  0.5899 -0.4892
12765SOL    HW256288   5.735   8.137   5.694 -0.8171  0.2321  1.1408
12766SOL     OW56289   6.984  12.754   5.080 -0.2345 -0.4727 -0.0747
12766SOL    HW156290   6.957  12.812   5.008  0.3483 -0.9356 -0.6720
12766SOL    HW256291   7.007  12.814   5.151  0.1637  0.0223 -0.6128
12767SOL     OW56292   9.614   7.110   0.992 -0.6044  0.5580  0.0399
12767SOL    HW156293   9.631   7.016   0.992 -0.0071  0.5759 -2.5568
12767SOL    HW256294   9.635   7.138   1.081  0.3670 -1.5634  0.5540
12768SOL     OW56295   9.658   4.071  10.417  0.1515 -0.0250 -0.6199
12768SOL    HW156296   9.687   4.154  10.455  1.7275 -1.0142  0.4749
12768SOL    HW256297   9.572   4.054  10.456 -1.1523  1.9834 -2.3698
12769SOL     OW56298   4.978   0.639  10.855  0.5716  0.5401  0.3777
12769SOL    HW156299   5.052   0.597  10.809  0.0946 -0.5498  0.5830
12769SOL    HW256300   4.943   0.570  10.912 -1.9419  0.3320 -1.2673
12770SOL     OW56301  10.804  12.562  11.180 -0.0622 -0.1068 -0.2033
12770SOL    HW156302  10.860  12.533  11.108 -1.4605  0.3200 -1.4953
12770SOL    HW256303  10.789  12.482  11.231  0.7266 -0.4669 -0.5128
12771SOL     OW56304   5.965   6.147   4.488  0.2837 -0.1297  0.2213
12771SOL    HW156305   5.895   6.147   4.422  1.4157  0.7976 -1.0330
12771SOL    HW256306   6.008   6.062   4.477  0.6966  0.1688 -0.4911
12772SOL     OW56307   2.629   7.091   4.622 -0.6948  0.1144 -0.1587
12772SOL    HW156308   2.581   7.086   4.540  1.5393 -0.4874 -1.5223
12772SOL    HW256309   2.697   7.157   4.607  0.2233 -0.5377  0.9024
12773SOL     OW56310   0.490  10.167   8.288  0.5114 -0.0375  0.7038
12773SOL    HW156311   0.441  10.249   8.297 -0.1279 -0.4763  1.4462
12773SOL    HW256312   0.495  10.152   8.194 -2.0438 -0.6758  0.6005
12774SOL     OW56313   7.045   6.264  10.177 -0.3181 -1.0144  0.6979
12774SOL    HW156314   7.086   6.347  10.153 -0.5636 -1.0774  0.0523
12774SOL    HW256315   7.067   6.252  10.270 -0.5739 -0.0630  0.8883
12775SOL     OW56316  10.024   2.627   1.580 -0.1825  0.5016 -0.6169
12775SOL    HW156317  10.040   2.630   1.486  2.0144  0.0031 -0.3134
12775SOL    HW256318  10.099   2.674   1.618 -0.3774 -0.3897  0.9246
12776SOL     OW56319  11.185  12.817  13.052 -0.1073  0.4315 -0.5230
12776SOL    HW156320  11.152  12.907  13.056 -0.9083  0.1130  0.5080
12776SOL    HW256321  11.124  12.772  12.993 -0.3630  0.3081 -0.1676
12777SOL     OW56322   5.945   4.191  10.297 -0.5580  0.1056  0.2129
12777SOL    HW156323   5.999   4.139  10.238 -1.1212  0.9078 -1.0568
12777SOL    HW256324   5.915   4.129  10.363  0.3547 -0.7446 -0.1489
12778SOL     OW56325  10.441   4.883   5.858 -0.1347 -0.7342 -0.1072
12778SOL    HW156326  10.526   4.888   5.813 -0.0633 -3.4621 -0.4354
12778SOL    HW256327  10.379   4.861   5.789 -1.1080  0.8426  0.2063
12779SOL     OW56328   3.688  12.204   4.285 -0.4548  0.1658 -0.0736
12779SOL    HW156329   3.605  12.185   4.242 -0.7981  1.3076  0.0462
12779SOL    HW256330   3.727  12.274   4.233 -0.7701  1.4158  1.2828
12780SOL     OW56331  10.564   1.450  14.151  0.1980 -0.2020 -0.5301
12780SOL    HW156332  10.585   1.515  14.085 -0.0745 -0.9504 -1.3684
12780SOL    HW256333  10.625   1.378  14.135  0.6717 -0.0666  0.5494
12781SOL     OW56334   7.604  14.094   9.469 -0.3148  0.4243  0.5412
12781SOL    HW156335   7.695  14.087   9.440 -0.7179  0.8396 -0.8922
12781SOL    HW256336   7.610  14.133   9.556  0.9477 -0.9783  1.1397
12782SOL     OW56337   1.457  11.726   9.729 -0.2322 -0.1677 -0.2104
12782SOL    HW156338   1.372  11.761   9.758  0.1527 -0.5694  1.5112
12782SOL    HW256339   1.510  11.804   9.711 -0.9762  0.0872 -1.4260
12783SOL     OW56340  12.460  10.207   7.026  0.0749  0.7654  0.4727
12783SOL    HW156341  12.499  10.167   7.104 -0.7434  0.0045  0.5137
12783SOL    HW256342  12.387  10.149   7.004 -1.2160  2.2744  0.5857
12784SOL     OW56343   4.970  11.029  10.702 -0.2205 -0.0070 -0.0703
12784SOL    HW156344   4.974  11.000  10.793  0.2411 -0.9922 -0.3915
12784SOL    HW256345   4.994  10.952  10.651  2.2157  1.1768 -0.9282
12785SOL     OW56346   9.029  10.085   6.421 -0.0525  0.6527 -0.5012
12785SOL    HW156347   8.964  10.124   6.363 -1.0328 -0.4422 -0.1751
12785SOL    HW256348   8.986  10.083   6.507 -0.0283 -1.1028 -0.5085
12786SOL     OW56349  12.832  14.082   7.076 -1.0773  0.0035 -0.1887
12786SOL    HW156350  12.760  14.133   7.114 -0.2808 -0.0849  1.4728
12786SOL    HW256351  12.877  14.144   7.018 -2.2981  0.1310 -1.0482
12787SOL     OW56352   0.127   6.039   6.743  0.0587  0.4423 -0.2675
12787SOL    HW156353   0.205   5.998   6.780 -0.1493 -0.3107 -0.6443
12787SOL    HW256354   0.066   6.045   6.817 -1.3932 -3.5567 -0.9041
12788SOL     OW56355   7.490   0.600   8.812  0.3371  0.3033 -0.4983
12788SOL    HW156356   7.540   0.635   8.739  1.4235 -2.7633 -1.3795
12788SOL    HW256357   7.405   0.575   8.774 -0.2849  1.5469  0.0274
12789SOL     OW56358   6.679   7.238   8.600  0.2342 -0.2593  0.4628
12789SOL    HW156359   6.747   7.174   8.621 -0.0023 -0.6940 -0.1048
12789SOL    HW256360   6.715   7.289   8.528  0.1814 -0.1347  0.5239
12790SOL     OW56361  12.141   1.288   3.876  0.6068  0.1299  0.6017
12790SOL    HW156362  12.120   1.203   3.837  0.9458  0.3196 -0.0174
12790SOL    HW256363  12.069   1.306   3.936  0.4758 -0.5423  0.6506
12791SOL     OW56364   4.282   4.751  12.035 -0.2333  0.0677 -0.9084
12791SOL    HW156365   4.339   4.685  11.995  0.4329  0.9368 -1.4165
12791SOL    HW256366   4.294   4.740  12.129  0.9153  0.3510 -1.0112
12792SOL     OW56367  12.948   8.236  11.506  0.0938 -0.0691 -0.6400
12792SOL    HW156368  12.968   8.144  11.488 -1.2721 -0.2649 -1.2807
12792SOL    HW256369  12.870   8.233  11.561  1.2415  0.6812  1.0844
12793SOL     OW56370   2.323  13.341   8.447  0.4011 -0.4276  0.2066
12793SOL    HW156371   2.271  13.319   8.524 -1.4278 -0.3675 -0.9578
12793SOL    HW256372   2.351  13.256   8.413  2.3861 -0.4225  1.6250
12794SOL     OW56373  10.876   4.373   9.844 -0.0136 -0.4607  0.4112
12794SOL    HW156374  10.855   4.307   9.778 -0.7424 -1.1285  1.2844
12794SOL    HW256375  10.837   4.339   9.925  1.1438  0.1726  1.2572
12795SOL     OW56376   9.836   7.602   9.304  0.0645 -0.1234 -0.3120
12795SOL    HW156377   9.760   7.660   9.311 -1.1904 -1.7887  0.7449
12795SOL    HW256378   9.840   7.579   9.211 -0.9159 -0.2264 -0.3419
12796SOL     OW56379   7.530  11.831   2.436 -0.5107  0.2387 -0.4546
12796SOL    HW156380   7.624  11.848   2.438 -0.3122 -0.6640 -1.3732
12796SOL    HW256381   7.490  11.918   2.447  0.4361  0.7756 -1.0859
12797SOL     OW56382   7.373   8.305   4.509  0.3987 -0.3003 -0.6653
12797SOL    HW156383   7.347   8.363   4.438  2.9218  1.4376 -0.2759
12797SOL    HW256384   7.464   8.283   4.490  1.1925  0.3067  2.0489
12798SOL     OW56385   8.613   1.515   6.943  0.4996  0.3486 -0.0068
12798SOL    HW156386   8.677   1.444   6.947 -0.8306 -0.8567  0.8613
12798SOL    HW256387   8.624   1.562   7.026 -0.5200 -0.6066  0.6983
12799SOL     OW56388  11.293   8.883   5.890 -0.6038 -0.3653 -0.3893
12799SOL    HW156389  11.332   8.878   5.803  1.3636  0.5598  0.3701
12799SOL    HW256390  11.260   8.973   5.896  0.0966 -0.1375  0.1339
12800SOL     OW56391   8.657   5.311   8.047  0.6730 -0.4733 -0.0678
12800SOL    HW156392   8.713   5.374   8.091  1.8799 -0.7790 -1.0864
12800SOL    HW256393   8.698   5.226   8.064  0.6566 -0.6814 -1.0104
12801SOL     OW56394  13.014   6.219  10.473 -0.4653  0.6068  0.3580
12801SOL    HW156395  13.054   6.301  10.445 -1.5225  1.5077  1.4226
12801SOL    HW256396  12.960   6.242  10.548  1.1359 -1.4661  2.3058
12802SOL     OW56397  13.864   8.029   7.148  0.1015 -0.0056 -0.4151
12802SOL    HW156398  13.916   8.026   7.229 -0.1870  0.0861 -0.2262
12802SOL    HW256399  13.834   8.120   7.142 -1.4427 -0.4363  0.3676
12803SOL     OW56400   1.502  10.550   1.722  0.3472  0.1609  0.2387
12803SOL    HW156401   1.486  10.622   1.782  1.4488  0.5626  0.0748
12803SOL    HW256402   1.526  10.592   1.639 -0.5863 -0.3847 -0.3325
12804SOL     OW56403   3.997  11.619   1.688 -0.1079  0.1036 -0.1878
12804SOL    HW156404   4.043  11.540   1.661  0.5560  0.0687  0.9426
12804SOL    HW256405   4.049  11.652   1.762 -0.2894  1.6708 -0.7227
12805SOL     OW56406  12.020   0.066  13.641 -0.2155 -0.8835 -1.0560
12805SOL    HW156407  12.094   0.038  13.695 -0.2645  1.1045  0.1296
12805SOL    HW256408  11.943   0.026  13.682 -0.0605 -0.8966 -0.7760
12806SOL     OW56409   7.157  11.810  13.746 -0.1867  0.5759 -0.2201
12806SOL    HW156410   7.190  11.792  13.834 -0.1336 -0.0473 -0.3681
12806SOL    HW256411   7.089  11.744  13.731  1.0280 -0.4686 -1.3295
12807SOL     OW56412   0.524   1.999   0.646  0.2036 -0.1641  0.0954
12807SOL    HW156413   0.571   1.951   0.578  0.7942 -0.9616  1.0516
12807SOL    HW256414   0.552   2.090   0.634 -0.1169 -0.1873 -1.0476
12808SOL     OW56415  11.090  12.479   7.397  0.1853  0.4526  0.2936
12808SOL    HW156416  11.095  12.565   7.357  0.0227  0.1708 -0.3308
12808SOL    HW256417  11.116  12.418   7.328 -0.4637 -0.0679  0.4975
12809SOL     OW56418   4.644  10.748   7.439 -0.5746 -0.2325 -0.4774
12809SOL    HW156419   4.611  10.793   7.517 -1.3329  1.2113 -1.5740
12809SOL    HW256420   4.666  10.660   7.469  1.6884  1.0393  1.9264
12810SOL     OW56421   9.211  10.716   1.518  1.0419 -0.1516 -0.3768
12810SOL    HW156422   9.150  10.653   1.480 -0.0315  1.0012 -0.6127
12810SOL    HW256423   9.167  10.801   1.510  2.3905  0.6223  0.0613
12811SOL     OW56424   7.572   1.288  11.559  0.0904 -0.4694 -0.8924
12811SOL    HW156425   7.491   1.241  11.575  0.4433 -1.5927 -2.1540
12811SOL    HW256426   7.569   1.310  11.465 -0.4899  2.9363 -0.2141
12812SOL     OW56427   8.480   9.742   5.253 -0.2222  0.1301 -0.8384
12812SOL    HW156428   8.514   9.707   5.335  0.3681  0.8669 -0.7639
12812SOL    HW256429   8.384   9.739   5.264 -0.2208 -1.7532 -0.9771
12813SOL     OW56430   5.666   6.603   6.088 -0.5111  0.0708  0.0492
12813SOL    HW156431   5.717   6.526   6.113 -0.7327 -0.1437 -0.1561
12813SOL    HW256432   5.699   6.672   6.145  0.5882  0.1378 -0.6226
12814SOL     OW56433   1.071   6.048   0.491 -0.3162 -0.2909  0.1919
12814SOL    HW156434   0.989   6.084   0.525 -1.0120 -0.7407 -0.9760
12814SOL    HW256435   1.116   6.122   0.451  0.2012  0.1043  1.4466
12815SOL     OW56436   9.642   8.430   5.130 -0.1003 -0.3055  0.4626
12815SOL    HW156437   9.733   8.417   5.158 -0.6346 -1.7021  1.7113
12815SOL    HW256438   9.593   8.441   5.212 -1.1692 -0.4210 -0.1347
12816SOL     OW56439   9.165   6.476  12.048  0.1205  0.4413 -0.6353
12816SOL    HW156440   9.208   6.398  12.085 -0.2858  0.7915  0.6453
12816SOL    HW256441   9.223   6.548  12.071 -0.4688  0.7496 -0.0548
12817SOL     OW56442   6.286   9.437  10.020 -0.1242  0.0963 -0.4774
12817SOL    HW156443   6.381   9.439  10.021 -0.1163  0.1473  1.0791
12817SOL    HW256444   6.263   9.347   9.997  0.2018  0.8428 -4.4179
12818SOL     OW56445   5.731   9.660  10.210  0.4290  0.0333  0.4905
12818SOL    HW156446   5.665   9.712  10.255  0.2509  0.7675 -0.5985
12818SOL    HW256447   5.806   9.719  10.200  0.1479  0.1692 -0.9411
12819SOL     OW56448   8.428  10.288   8.918 -0.3953 -0.1797 -0.0417
12819SOL    HW156449   8.458  10.332   8.839 -0.7367 -1.0126 -0.6484
12819SOL    HW256450   8.342  10.325   8.936  0.4239  1.3455  1.0177
12820SOL     OW56451   5.127   9.191   0.328 -0.2153 -0.6430  0.4339
12820SOL    HW156452   5.148   9.148   0.245 -0.6785  0.9905 -0.5768
12820SOL    HW256453   5.206   9.238   0.352 -1.0834  1.6774 -0.9289
12821SOL     OW56454  11.959  13.165  12.192 -0.0025  0.2154 -0.4323
12821SOL    HW156455  12.006  13.245  12.217  0.6024 -0.2301 -0.1267
12821SOL    HW256456  12.021  13.117  12.136 -1.3273  1.2062 -2.9003
12822SOL     OW56457   3.883  13.141  10.282  0.2403  0.1482  0.0765
12822SOL    HW156458   3.859  13.071  10.222 -0.1680 -0.8666  1.3783
12822SOL    HW256459   3.950  13.102  10.339 -0.0643  0.7750  0.8854
12823SOL     OW56460   7.748   0.999  13.993 -0.5994 -0.0792  0.0590
12823SOL    HW156461   7.723   0.951  13.914 -1.4976 -0.2299  0.4242
12823SOL    HW256462   7.665   1.024  14.034 -0.1639  1.4268  0.1111
12824SOL     OW56463   0.270   9.096   3.312  0.0358  0.1946  0.1397
12824SOL    HW156464   0.276   9.062   3.401 -0.3580  0.3406  0.2263
12824SOL    HW256465   0.341   9.053   3.265 -0.2191 -0.4545  0.3373
12825SOL     OW56466   7.451   8.307  13.004 -0.4200 -0.1185  0.3466
12825SOL    HW156467   7.456   8.211  13.001 -0.3994 -0.1088  0.0772
12825SOL    HW256468   7.421   8.326  13.093  1.8471 -0.2940  1.2186
12826SOL     OW56469  11.682   5.717   9.893  0.1213  0.3349 -0.0790
12826SOL    HW156470  11.600   5.764   9.911 -0.5026 -1.4851  2.4271
12826SOL    HW256471  11.654   5.639   9.845  0.5922  0.3755 -0.4284
12827SOL     OW56472   4.416   4.463   5.601  0.1783 -0.1413 -0.0432
12827SOL    HW156473   4.343   4.406   5.624 -0.3144  0.8824  1.0362
12827SOL    HW256474   4.400   4.485   5.509 -2.5156  2.2738  0.8461
12828SOL     OW56475   7.069   8.224   7.973 -0.2339  0.2785  0.3797
12828SOL    HW156476   7.138   8.273   8.017  2.2747 -1.2536 -1.5048
12828SOL    HW256477   7.094   8.227   7.880 -2.2062 -1.1430 -0.2559
12829SOL     OW56478   2.813   5.026   7.331 -0.1534  0.1681 -0.4426
12829SOL    HW156479   2.833   4.934   7.316 -1.7534 -0.2428 -0.1544
12829SOL    HW256480   2.847   5.071   7.254  0.5957 -0.6461 -0.6056
12830SOL     OW56481   6.561   6.592  10.958 -0.1360 -0.3648  0.1677
12830SOL    HW156482   6.477   6.619  10.920 -0.9953 -0.7274  1.7534
12830SOL    HW256483   6.626   6.637  10.904 -1.2852 -0.8263 -1.7027
12831SOL     OW56484   4.136  10.428  10.695 -0.5139 -0.1212 -0.0503
12831SOL    HW156485   4.216  10.469  10.662 -0.9588  0.5114 -0.3710
12831SOL    HW256486   4.070  10.498  10.693  0.0762  0.9253  5.0972
12832SOL     OW56487   9.198   8.663   0.279  0.2232  0.0214  0.0433
12832SOL    HW156488   9.140   8.624   0.213  2.2851 -1.8152 -0.8124
12832SOL    HW256489   9.185   8.757   0.270 -1.0735 -0.2580 -1.5289
12833SOL     OW56490   9.727  11.758   8.355 -0.4542  0.2965 -0.2951
12833SOL    HW156491   9.683  11.702   8.418 -1.3123 -0.4865 -1.5420
12833SOL    HW256492   9.668  11.833   8.344 -0.0834  0.6589  0.1728
12834SOL     OW56493   0.866   6.251   1.822  0.3158 -1.1103 -0.0557
12834SOL    HW156494   0.897   6.339   1.801 -0.3588 -0.9760 -0.5190
12834SOL    HW256495   0.789   6.239   1.766 -0.5305 -1.3976  1.1332
12835SOL     OW56496   9.707   4.804   3.139  0.1997  1.0049  0.2519
12835SOL    HW156497   9.751   4.720   3.151 -0.3097  0.3870 -1.7326
12835SOL    HW256498   9.698   4.812   3.044 -0.5072  2.9320  0.4409
12836SOL     OW56499  14.137   4.279  11.076  0.0694 -0.2321 -0.7127
12836SOL    HW156500  14.062   4.237  11.034  0.2993 -0.9174 -0.4415
12836SOL    HW256501  14.206   4.214  11.073  0.0777 -0.3235  0.7816
12837SOL     OW56502  10.735  12.285   8.691 -0.6087 -0.1321 -0.3126
12837SOL    HW156503  10.772  12.252   8.609 -0.9736  1.5726 -1.2128
12837SOL    HW256504  10.658  12.335   8.664 -3.0237 -2.6421  1.3972
12838SOL     OW56505   0.424   9.711   9.202 -0.0113 -0.1872 -0.3147
12838SOL    HW156506   0.469   9.666   9.275  0.9880  0.4476 -0.5183
12838SOL    HW256507   0.491   9.716   9.133 -0.8676 -0.5489 -1.1883
12839SOL     OW56508   2.305  11.413  10.445 -0.0368 -0.0585  0.6770
12839SOL    HW156509   2.226  11.460  10.472  0.0198 -0.5526  1.7736
12839SOL    HW256510   2.316  11.345  10.512 -0.2815 -1.8500 -1.0043
12840SOL     OW56511  11.300   0.309   0.704 -0.3288  0.2789  0.3670
12840SOL    HW156512  11.287   0.222   0.667  0.7928  0.1851  0.1349
12840SOL    HW256513  11.371   0.297   0.768 -0.4082  0.9505  0.5862
12841SOL     OW56514   9.660  13.884  11.585  0.2317 -0.5981 -0.2192
12841SOL    HW156515   9.569  13.874  11.556  0.3388 -1.5926 -0.2149
12841SOL    HW256516   9.662  13.841  11.671  0.1798  1.3472  0.8187
12842SOL     OW56517   3.524   5.133   2.765  0.1405  0.1484 -0.0524
12842SOL    HW156518   3.541   5.218   2.725 -0.8922  0.3558 -0.0924
12842SOL    HW256519   3.585   5.073   2.722  2.0038  1.1409  1.1139
12843SOL     OW56520   8.143   8.161   4.439 -0.3182  0.2990 -0.1801
12843SOL    HW156521   8.191   8.079   4.446  1.3944  1.2317 -0.4704
12843SOL    HW256522   8.065   8.140   4.389  0.0269 -1.1703 -0.1258
12844SOL     OW56523  13.190   5.448   5.196  0.1645  0.0465 -0.4604
12844SOL    HW156524  13.147   5.408   5.121 -1.3431  0.4344  0.1535
12844SOL    HW256525  13.182   5.542   5.181  1.7197  0.1440 -0.8193
12845SOL     OW56526  11.440   8.069   8.648  0.5169  0.4153 -0.3661
12845SOL    HW156527  11.449   8.156   8.611  1.5485  0.6799  0.4599
12845SOL    HW256528  11.486   8.012   8.587  2.1119  0.8327  0.3963
12846SOL     OW56529  13.058   4.294   0.671  0.4330 -0.2320  0.3243
12846SOL    HW156530  13.056   4.326   0.581  0.0199 -2.6600 -0.5857
12846SOL    HW256531  12.973   4.319   0.707  0.7893  1.1999  0.2664
12847SOL     OW56532   9.731   6.992   6.921  0.3094  0.2764 -0.2299
12847SOL    HW156533   9.689   6.907   6.905  2.8585 -0.7696 -1.9871
12847SOL    HW256534   9.660   7.056   6.915 -1.4718 -1.6008 -0.0822
12848SOL     OW56535   4.272   6.097   4.133  0.0731  0.9749 -0.5208
12848SOL    HW156536   4.270   6.052   4.049  0.1466  0.1363 -0.0844
12848SOL    HW256537   4.204   6.055   4.185 -1.0919  2.5630 -0.6668
12849SOL     OW56538   3.966   6.134   1.695  0.2618  0.2614  0.4194
12849SOL    HW156539   3.933   6.201   1.635 -2.5431 -1.6924 -0.4473
12849SOL    HW256540   4.059   6.127   1.673  0.2353  2.4975 -0.7647
12850SOL     OW56541  13.158   5.646   9.394  0.0877 -0.6504  0.6140
12850SOL    HW156542  13.154   5.556   9.427 -1.8821 -1.1771 -0.9124
12850SOL    HW256543  13.171   5.637   9.300 -1.1948  0.6234  0.2786
12851SOL     OW56544   6.107   2.777   9.666  0.5576  0.7377  0.3558
12851SOL    HW156545   6.109   2.749   9.575  2.6231  1.6031  0.0851
12851SOL    HW256546   6.149   2.706   9.714  0.3052  0.6972  0.5224
12852SOL     OW56547   8.838  12.918  14.127 -0.1502 -0.1881  0.2277
12852SOL    HW156548   8.930  12.894  14.113  0.1867  0.9440  0.3633
12852SOL    HW256549   8.794  12.892  14.046  0.2439 -0.9463  0.2489
12853SOL     OW56550   0.211   2.022   8.741 -0.3191  0.5768 -0.8093
12853SOL    HW156551   0.177   1.957   8.802 -1.2424  0.8815 -0.9784
12853SOL    HW256552   0.274   1.974   8.686  0.2544  0.2206  0.1355
12854SOL     OW56553   1.801  14.064  10.965 -0.1656  0.2879  0.7801
12854SOL    HW156554   1.712  14.096  10.974 -0.2071  0.9461 -1.5413
12854SOL    HW256555   1.846  14.096  11.043 -1.7647  0.4985  1.6577
12855SOL     OW56556  12.660   0.208   8.171 -0.2001 -0.0054  0.1683
12855SOL    HW156557  12.646   0.234   8.080  0.9324 -1.7986 -0.5823
12855SOL    HW256558  12.601   0.134   8.185  1.3506 -1.3218  0.0604
12856SOL     OW56559  10.586   5.621   5.106 -0.1518  0.6010 -0.3085
12856SOL    HW156560  10.650   5.575   5.160 -1.3734  0.6627  1.3031
12856SOL    HW256561  10.509   5.630   5.163 -1.3433  1.1531 -1.9101
12857SOL     OW56562   6.918  13.879   0.944  0.5051 -0.1735  0.4127
12857SOL    HW156563   6.859  13.950   0.967 -1.2525 -1.4365  0.0048
12857SOL    HW256564   6.995  13.892   1.000 -1.3164 -0.0758  3.0666
12858SOL     OW56565   9.175   5.030   9.596 -0.5559  0.4064 -0.6966
12858SOL    HW156566   9.101   5.025   9.656 -0.8413  0.7377 -1.0174
12858SOL    HW256567   9.178   5.122   9.568  1.6118  1.0484  1.3499
12859SOL     OW56568   5.375   1.560  12.630  0.0802 -0.3049 -0.3453
12859SOL    HW156569   5.442   1.526  12.688 -0.8512  1.0215  1.5966
12859SOL    HW256570   5.418   1.631  12.582  0.6902 -1.0450 -0.9390
12860SOL     OW56571   0.644  11.078  14.127  0.0943  0.1931 -0.2857
12860SOL    HW156572   0.642  11.002  14.069 -1.3655  0.5637 -0.7601
12860SOL    HW256573   0.719  11.130  14.096 -1.0584  0.7359 -2.3616
12861SOL     OW56574  12.481   6.826   0.614  0.2442 -0.7075 -0.0895
12861SOL    HW156575  12.548   6.856   0.675  0.3522 -0.3463 -0.3885
12861SOL    HW256576  12.399   6.834   0.664  0.3817 -0.8411  0.1621
12862SOL     OW56577   1.253   6.952   8.508  0.1150  0.0314  0.3914
12862SOL    HW156578   1.218   7.034   8.543 -1.9370 -0.9370  0.7957
12862SOL    HW256579   1.193   6.929   8.437 -0.7155 -2.1606  1.6848
12863SOL     OW56580  13.720  10.437   8.931 -0.7617 -0.3267  0.2682
12863SOL    HW156581  13.772  10.366   8.969 -0.9465 -0.5034  0.1934
12863SOL    HW256582  13.778  10.513   8.932  0.0184 -0.8650 -1.1787
12864SOL     OW56583  12.660   6.528   6.751 -0.5252  0.2623  0.0615
12864SOL    HW156584  12.599   6.549   6.681 -0.7338 -1.0275 -0.1734
12864SOL    HW256585  12.744   6.562   6.720 -0.3034 -1.5705 -1.5357
12865SOL     OW56586  10.069   1.240   9.660 -0.3195  0.5808 -0.1664
12865SOL    HW156587  10.097   1.265   9.748 -0.0143  0.1420 -0.1375
12865SOL    HW256588  10.010   1.310   9.633 -0.4767  0.6807  0.4202
12866SOL     OW56589   6.062   1.814   0.946  0.0970 -0.1243  0.1861
12866SOL    HW156590   5.977   1.857   0.952  0.9972  1.4712  3.0904
12866SOL    HW256591   6.110   1.865   0.881 -0.4820  0.2309  0.0343
12867SOL     OW56592   6.542   0.220   0.619 -0.0751  0.2062  0.0535
12867SOL    HW156593   6.616   0.195   0.564 -0.0474  0.8674 -0.2073
12867SOL    HW256594   6.465   0.187   0.572 -0.0376  0.6001 -0.2817
12868SOL     OW56595   5.056   7.113   4.863 -0.1614  0.6601  0.0876
12868SOL    HW156596   5.083   7.176   4.931  1.2006 -0.0434  0.2387
12868SOL    HW256597   5.049   7.165   4.783  1.4160  0.9581  0.1143
12869SOL     OW56598   4.260  12.556   4.555  0.8481  0.1446  0.2888
12869SOL    HW156599   4.269  12.556   4.460  0.0464 -0.0309  0.2076
12869SOL    HW256600   4.344  12.589   4.587  2.5753 -3.1705 -0.3489
12870SOL     OW56601   9.000  11.997   1.245  0.6928 -0.0158  0.1827
12870SOL    HW156602   8.937  12.063   1.218 -0.3867 -1.3870 -0.8015
12870SOL    HW256603   9.083  12.044   1.253  0.0493  1.3613 -0.9217
12871SOL     OW56604   0.329  13.798  12.145 -0.3115  0.6321 -0.4243
12871SOL    HW156605   0.312  13.720  12.198  0.6950  0.3612 -0.4713
12871SOL    HW256606   0.269  13.792  12.071  1.3150 -1.3260 -1.6740
12872SOL     OW56607   6.822  11.732   4.011  0.3221 -0.8590 -0.6882
12872SOL    HW156608   6.805  11.737   3.917  0.6637 -0.0271 -0.7202
12872SOL    HW256609   6.867  11.814   4.031 -1.3053 -0.2185  0.5315
12873SOL     OW56610   7.813   9.119   7.441  0.5760 -0.3018  0.7034
12873SOL    HW156611   7.872   9.044   7.441  0.4328 -0.4180  0.9968
12873SOL    HW256612   7.858   9.185   7.388  0.7408 -0.5632  0.5105
12874SOL     OW56613  10.534   4.696   1.839 -0.2361 -0.0724  0.5924
12874SOL    HW156614  10.516   4.774   1.787  0.7768  0.3471  0.8512
12874SOL    HW256615  10.449   4.654   1.850 -0.5104 -0.0158 -1.1538
12875SOL     OW56616   6.528  12.869   9.864 -0.5250  0.3747  0.2112
12875SOL    HW156617   6.506  12.852   9.772 -0.7825 -0.0347  0.3449
12875SOL    HW256618   6.619  12.898   9.862 -0.2471 -0.5087 -0.0804
12876SOL     OW56619   0.984   5.999   7.894 -0.1728  0.1794 -0.4132
12876SOL    HW156620   0.955   6.060   7.827 -0.5264 -1.2789 -1.6366
12876SOL    HW256621   1.079   5.995   7.884 -0.0940  0.8825  0.0014
12877SOL     OW56622  12.090   9.521   9.469 -0.1321  0.5392  0.0060
12877SOL    HW156623  12.095   9.614   9.492  1.1881  0.2769  0.8869
12877SOL    HW256624  12.150   9.478   9.530  0.1052 -0.7633 -1.1011
12878SOL     OW56625   4.760  10.382  13.595  0.4410 -0.2864  0.0689
12878SOL    HW156626   4.772  10.458  13.538 -0.2553  0.2391  0.6078
12878SOL    HW256627   4.772  10.307  13.537  1.2831  0.2213 -0.4404
12879SOL     OW56628   5.457  12.832   3.317  0.7855  0.2774 -0.6771
12879SOL    HW156629   5.448  12.827   3.222 -1.7860 -0.8421 -0.4451
12879SOL    HW256630   5.512  12.758   3.340 -1.5419 -1.6725 -1.0578
12880SOL     OW56631   4.094   9.333   9.550  0.1455 -0.1847  0.3410
12880SOL    HW156632   4.070   9.241   9.535 -1.0190  0.1590 -0.0029
12880SOL    HW256633   4.167   9.349   9.491  0.4555 -0.9268  0.5134
12881SOL     OW56634   4.167   6.295   2.366  0.1773  0.1553  0.6259
12881SOL    HW156635   4.219   6.219   2.340  0.4889 -0.2478  2.3182
12881SOL    HW256636   4.225   6.346   2.422 -0.4661  0.9502  0.5865
12882SOL     OW56637   4.517   8.063   8.425  0.2987  0.0829 -0.0789
12882SOL    HW156638   4.496   8.032   8.337  1.8393  1.9655 -1.1824
12882SOL    HW256639   4.439   8.041   8.477 -0.0924 -2.3596 -1.5037
12883SOL     OW56640   9.266  12.893  10.188  0.0355 -0.2958 -0.1916
12883SOL    HW156641   9.172  12.907  10.177 -0.1311  0.7442  1.9769
12883SOL    HW256642   9.302  12.899  10.100 -2.0557 -1.9605 -1.2207
12884SOL     OW56643   6.288   9.532  11.031  0.4402  0.0699  0.4401
12884SOL    HW156644   6.356   9.531  11.099  0.6968  0.5888  0.1980
12884SOL    HW256645   6.228   9.462  11.056  1.4625 -0.8944  0.2459
12885SOL     OW56646  11.572   8.654  11.567 -0.2773  0.1432 -0.3268
12885SOL    HW156647  11.635   8.714  11.606 -0.0525  0.6381 -1.3943
12885SOL    HW256648  11.609   8.633  11.481 -1.7281  0.7220 -1.1356
12886SOL     OW56649   6.842  12.690   6.011  0.2329 -0.3094 -0.1574
12886SOL    HW156650   6.917  12.741   5.982  1.6113 -1.3557  1.3405
12886SOL    HW256651   6.819  12.727   6.096  1.0103 -1.8313  0.7746
12887SOL     OW56652  10.929   6.801   3.853 -0.0802  0.0986 -0.5054
12887SOL    HW156653  10.980   6.862   3.906  1.1362  1.6518 -3.2697
12887SOL    HW256654  10.846   6.793   3.900  0.9419  1.2484  1.6711
12888SOL     OW56655   8.890   2.515  12.739 -0.4972 -0.4104 -0.0454
12888SOL    HW156656   8.903   2.609  12.741  0.3686 -0.5242 -0.2574
12888SOL    HW256657   8.826   2.499  12.809  0.9263  0.0909  1.4399
12889SOL     OW56658  13.119  12.610   5.179  0.5280 -0.4078  0.3199
12889SOL    HW156659  13.078  12.692   5.204  0.2723 -0.5580  0.3969
12889SOL    HW256660  13.190  12.598   5.242  0.4023 -0.3745  0.4689
12890SOL     OW56661  10.896   8.067   4.682 -0.5725 -0.1165 -0.5184
12890SOL    HW156662  10.970   8.106   4.636 -1.0005 -1.4954 -2.5334
12890SOL    HW256663  10.894   8.112   4.767  0.8031  1.9483 -1.4873
12891SOL     OW56664   7.107  10.594   9.513 -0.5846 -0.3385 -0.5483
12891SOL    HW156665   7.021  10.579   9.476 -1.3675  0.5035  0.8038
12891SOL    HW256666   7.090  10.651   9.589  1.1082 -0.5057 -0.0051
12892SOL     OW56667   0.139   6.159  12.265  0.1123 -0.0922  0.6787
12892SOL    HW156668   0.131   6.170  12.170  1.7131  1.0917  0.6414
12892SOL    HW256669   0.150   6.248  12.299 -1.1870 -0.4268  2.0853
12893SOL     OW56670  13.452  10.814   6.360  0.5385  0.1417  0.3441
12893SOL    HW156671  13.528  10.794   6.415 -0.8102 -0.5096  2.0401
12893SOL    HW256672  13.409  10.730   6.345 -1.5305  0.8196  2.0078
12894SOL     OW56673  12.030   5.465  13.143  0.5548 -0.2982  0.5391
12894SOL    HW156674  12.020   5.385  13.194  0.9637 -2.0672 -1.9728
12894SOL    HW256675  12.125   5.473  13.131  0.5156  0.6032  0.8003
12895SOL     OW56676  12.989   0.951   9.826  0.1689 -0.0211 -0.2794
12895SOL    HW156677  12.904   0.928   9.864  0.3536  1.5586  1.2198
12895SOL    HW256678  12.995   1.046   9.837  1.6144  0.0532 -1.4614
12896SOL     OW56679   9.077   5.860   3.952  0.1794  0.2120 -0.1657
12896SOL    HW156680   9.085   5.953   3.930  1.0449 -0.1299 -1.4414
12896SOL    HW256681   9.070   5.816   3.867  3.7825 -1.2062  0.1059
12897SOL     OW56682  12.267   8.394   0.774  0.3364 -0.4137  0.3721
12897SOL    HW156683  12.220   8.339   0.711  2.0041 -0.8929 -0.4975
12897SOL    HW256684  12.210   8.470   0.786 -0.9784 -1.2891 -0.0934
12898SOL     OW56685   2.768   8.880   3.541 -0.2597 -0.3493  0.3320
12898SOL    HW156686   2.819   8.931   3.602  0.0206 -0.3836  0.1268
12898SOL    HW256687   2.813   8.796   3.535  0.2177 -0.0473 -0.5853
12899SOL     OW56688   8.471   8.058  11.699 -0.3358 -0.3584 -0.2057
12899SOL    HW156689   8.395   8.016  11.739 -0.0876  0.9214  1.7798
12899SOL    HW256690   8.546   8.010  11.735 -0.1391 -0.6607 -0.9883
12900SOL     OW56691  10.900  13.889   9.000 -0.4052  0.4060 -0.4117
12900SOL    HW156692  10.935  13.817   8.947  0.4139  0.9395 -0.6082
12900SOL    HW256693  10.899  13.855   9.089 -2.0510 -0.6040 -0.7539
12901SOL     OW56694   8.429   6.966  13.602  0.6055 -0.5854 -0.2011
12901SOL    HW156695   8.467   7.053  13.615  1.1409 -0.9980  1.1462
12901SOL    HW256696   8.497   6.906  13.632 -0.1545 -1.4359 -0.1509
12902SOL     OW56697   9.925  13.456   1.357  0.6669 -0.2982 -0.1334
12902SOL    HW156698   9.949  13.505   1.279  2.2877 -0.9763 -0.0952
12902SOL    HW256699   9.989  13.483   1.423 -1.8356  1.8313  1.6924
12903SOL     OW56700  13.065   3.609   7.029  0.0468  0.2463  0.1684
12903SOL    HW156701  13.146   3.610   6.979  2.6436 -1.5734  3.8330
12903SOL    HW256702  13.076   3.679   7.094 -0.9337 -0.5791  1.2622
12904SOL     OW56703  11.278   0.073   9.284  0.1584  0.0025 -0.4963
12904SOL    HW156704  11.276   0.151   9.229 -0.0512  0.8102  0.6323
12904SOL    HW256705  11.358   0.082   9.336  0.4273 -0.8262 -0.7385
12905SOL     OW56706   0.081   8.738   4.505  0.1682 -0.0740  0.3862
12905SOL    HW156707  -0.009   8.762   4.525 -0.1685  0.1887 -1.3196
12905SOL    HW256708   0.073   8.655   4.457  0.9404 -0.7493  1.3901
12906SOL     OW56709   4.933   9.868  12.461 -0.5268  0.3863 -0.3523
12906SOL    HW156710   4.845   9.830  12.456 -0.3480 -0.1348  0.2798
12906SOL    HW256711   4.917   9.962  12.472 -0.9708  0.5547 -2.1153
12907SOL     OW56712   2.783   0.441   9.664 -0.0401  0.0738 -0.3373
12907SOL    HW156713   2.771   0.440   9.759 -0.9695 -1.4321 -0.4232
12907SOL    HW256714   2.835   0.519   9.646 -0.6788  0.9123  1.3049
12908SOL     OW56715  12.393   5.506  12.175  0.4009  0.2354  0.1286
12908SOL    HW156716  12.355   5.432  12.129 -2.0295  1.8230 -0.5981
12908SOL    HW256717  12.444   5.553  12.109 -0.1201  0.5599 -0.0443
12909SOL     OW56718  13.981   1.239   4.003 -0.1302 -0.0766  0.0768
12909SOL    HW156719  13.951   1.329   4.017 -1.0700 -0.3280 -0.1981
12909SOL    HW256720  13.905   1.185   4.026 -0.4397 -0.6683 -2.1038
12910SOL     OW56721  13.873   8.663   6.832  0.2903  0.1064 -0.6278
12910SOL    HW156722  13.798   8.696   6.881  0.8398  0.4876 -0.0152
12910SOL    HW256723  13.942   8.727   6.850  0.7209 -0.1678 -1.2881
12911SOL     OW56724   8.880  11.085   1.808 -0.2053 -0.2019  0.4078
12911SOL    HW156725   8.890  10.995   1.839 -0.2317 -0.8557 -1.3483
12911SOL    HW256726   8.880  11.077   1.712 -1.1118  1.5756  0.2217
12912SOL     OW56727   0.339  13.607   7.133 -0.0990  0.0840 -0.1205
12912SOL    HW156728   0.370  13.529   7.179  2.2237  0.7421 -0.4649
12912SOL    HW256729   0.246  13.614   7.158  0.5666 -0.6171  2.9494
12913SOL     OW56730   2.419   7.849   7.741 -0.3256 -0.2123  0.2387
12913SOL    HW156731   2.461   7.875   7.824 -2.0203  1.0571  0.7494
12913SOL    HW256732   2.331   7.822   7.766 -0.4089 -1.1712 -1.0171
12914SOL     OW56733  10.502   3.230  12.843 -0.5919  0.3398 -0.0203
12914SOL    HW156734  10.440   3.176  12.793 -0.6929 -0.4113  0.8804
12914SOL    HW256735  10.554   3.166  12.892  0.0200  1.0271  0.2329
12915SOL     OW56736   3.259   1.565   9.416 -0.1252 -0.1642  0.4232
12915SOL    HW156737   3.285   1.476   9.439 -1.5638 -1.2929 -2.0173
12915SOL    HW256738   3.207   1.595   9.491 -0.3181 -1.6864  0.9235
12916SOL     OW56739   1.170  10.789   5.048 -0.1951 -0.5558 -0.1903
12916SOL    HW156740   1.099  10.743   5.003  0.3434 -2.5688  0.9306
12916SOL    HW256741   1.131  10.819   5.130  0.4009 -2.3733  0.7997
12917SOL     OW56742   5.642   3.882   4.585  0.2828 -0.5374 -0.6096
12917SOL    HW156743   5.573   3.948   4.595 -0.1030 -0.8399 -1.2149
12917SOL    HW256744   5.690   3.885   4.667  2.4980  3.0051 -1.8299
12918SOL     OW56745  13.260   1.574   5.972 -0.3691  0.0064 -0.4277
12918SOL    HW156746  13.307   1.600   5.893  0.6275 -0.7235 -0.1058
12918SOL    HW256747  13.227   1.486   5.953  2.1672 -1.3536  0.8141
12919SOL     OW56748   1.842   9.409  13.201 -0.1019  0.2484 -0.5964
12919SOL    HW156749   1.912   9.422  13.137 -0.4125 -0.6908 -1.1517
12919SOL    HW256750   1.841   9.314  13.217 -0.1355  0.4453  0.6899
12920SOL     OW56751   5.771  13.605  10.948 -0.8341 -0.3664  0.4715
12920SOL    HW156752   5.832  13.539  10.982 -1.5272 -0.7413  0.9975
12920SOL    HW256753   5.711  13.622  11.020  0.4294  2.2357  1.0069
12921SOL     OW56754  11.143  13.790   6.973 -0.2700  0.4469  0.0537
12921SOL    HW156755  11.170  13.852   6.905 -0.6864 -0.0034 -0.5320
12921SOL    HW256756  11.077  13.837   7.024 -0.3436  0.6063 -0.1865
12922SOL     OW56757   8.424  11.822  13.471  0.3334  0.3450 -0.0671
12922SOL    HW156758   8.391  11.744  13.517  0.6349 -0.8454 -1.7516
12922SOL    HW256759   8.345  11.870  13.447 -0.1935 -1.4363 -2.2762
12923SOL     OW56760   8.349   4.828   9.250  0.1197  0.3057 -0.1139
12923SOL    HW156761   8.369   4.775   9.173  0.6792  0.5632 -0.1593
12923SOL    HW256762   8.412   4.799   9.316  0.5013  0.9759 -0.1745
12924SOL     OW56763   4.775   0.667  13.111  0.3099 -0.0460 -0.5169
12924SOL    HW156764   4.828   0.641  13.036  1.1466  0.3470 -0.0798
12924SOL    HW256765   4.709   0.599  13.119  0.4520 -0.2964 -1.3695
12925SOL     OW56766   4.973  10.690   7.167 -0.7433  0.2320 -0.9089
12925SOL    HW156767   4.947  10.604   7.136 -0.2496 -0.0329 -0.6041
12925SOL    HW256768   4.996  10.738   7.088 -0.7270 -0.0181 -1.0560
12926SOL     OW56769   0.582   3.459  10.558 -0.6925 -0.3216 -0.1211
12926SOL    HW156770   0.671   3.434  10.530 -0.5364  0.3459 -0.2329
12926SOL    HW256771   0.569   3.412  10.640 -0.4954 -0.9526 -0.4419
12927SOL     OW56772   7.810  11.125   1.320  0.1034 -0.0102 -0.3657
12927SOL    HW156773   7.733  11.181   1.323  0.8138  0.9799  0.3641
12927SOL    HW256774   7.779  11.039   1.347 -0.6503  0.5110  0.5190
12928SOL     OW56775   1.929   8.757   3.432 -0.0072  0.6254  0.2758
12928SOL    HW156776   1.867   8.690   3.402 -0.6064  1.6446 -0.8466
12928SOL    HW256777   2.015   8.723   3.406 -0.3869  0.7250 -1.1683
12929SOL     OW56778   8.991   5.433  10.349  0.0217  0.1107  0.3383
12929SOL    HW156779   8.903   5.403  10.324 -0.0019 -1.9039  2.4494
12929SOL    HW256780   8.975   5.496  10.419  0.2420  1.0457 -0.4394
12930SOL     OW56781   4.458  10.391   7.098 -0.1965  0.0342  0.0181
12930SOL    HW156782   4.460  10.302   7.064 -0.0250 -0.2369  0.7215
12930SOL    HW256783   4.496  10.384   7.186 -2.3756  0.3693  1.0525
12931SOL     OW56784   7.673   0.346  12.503 -0.2935  0.3927 -0.4079
12931SOL    HW156785   7.633   0.413  12.447  0.3051  1.3945  0.3382
12931SOL    HW256786   7.739   0.393  12.554  0.4870 -0.8646 -0.2146
12932SOL     OW56787   3.296   6.131  11.879  0.0632  0.6486  0.4637
12932SOL    HW156788   3.369   6.076  11.851  0.2737  0.5864  1.1099
12932SOL    HW256789   3.282   6.106  11.970 -1.7160 -0.3719 -0.0525
12933SOL     OW56790   2.311   8.654   4.146  0.6286 -0.1296  0.2065
12933SOL    HW156791   2.375   8.627   4.080  1.3660  0.0562  0.8267
12933SOL    HW256792   2.363   8.700   4.211  0.3268 -2.3751  2.1620
12934SOL     OW56793   1.790   4.579   8.825 -0.6269  0.3167 -1.0143
12934SOL    HW156794   1.741   4.519   8.770 -0.3403 -0.8610 -0.0301
12934SOL    HW256795   1.724   4.635   8.865 -0.8223  1.2617 -2.6163
12935SOL     OW56796  12.910   7.378   2.707  0.0364 -0.4662 -0.3475
12935SOL    HW156797  12.834   7.323   2.692 -0.9871  0.8347 -0.1123
12935SOL    HW256798  12.941   7.352   2.794 -1.3268  0.3162  0.3966
12936SOL     OW56799  11.020   9.102   1.834  0.0079  0.2428 -0.0858
12936SOL    HW156800  10.957   9.076   1.765  0.1666  1.0717 -0.5544
12936SOL    HW256801  11.058   9.184   1.802  1.0455 -0.0403  0.3844
12937SOL     OW56802  10.692  11.027   2.284 -0.0609 -0.1970 -0.4464
12937SOL    HW156803  10.631  11.038   2.211  0.0856 -2.6922 -1.0370
12937SOL    HW256804  10.685  11.108   2.333 -2.4528  0.3607 -1.5410
12938SOL     OW56805  12.559   0.959  12.803  0.6222 -0.5472  0.4869
12938SOL    HW156806  12.597   1.034  12.849  0.0215 -0.1063  0.2841
12938SOL    HW256807  12.581   0.974  12.711  2.9014 -2.0710  0.7267
12939SOL     OW56808   3.570   7.392   7.859  0.3742 -0.2636 -0.7966
12939SOL    HW156809   3.588   7.431   7.945 -0.9016  0.1962 -0.7155
12939SOL    HW256810   3.478   7.365   7.864  1.1886 -3.4086 -0.8310
12940SOL     OW56811   4.663   7.070   8.671  0.7459 -0.2061  0.0263
12940SOL    HW156812   4.609   7.141   8.707 -0.9836 -2.0227  1.2275
12940SOL    HW256813   4.621   7.048   8.588  1.4345  0.3085 -0.4705
12941SOL     OW56814   2.384   7.482  11.546 -0.0520  0.3372 -0.2340
12941SOL    HW156815   2.461   7.509  11.597 -0.8641 -0.1395  1.3191
12941SOL    HW256816   2.394   7.388  11.536 -1.1815  0.0092  1.3693
12942SOL     OW56817   5.934  13.887   0.428  0.2911 -0.0079  0.2882
12942SOL    HW156818   5.883  13.884   0.347 -0.7549 -0.0762  0.9254
12942SOL    HW256819   6.004  13.950   0.411  1.0595 -1.2034 -1.2078
12943SOL     OW56820   6.168  10.117  12.011  0.0151 -0.1697 -0.3101
12943SOL    HW156821   6.216  10.039  12.039 -1.1430 -1.2153 -1.0862
12943SOL    HW256822   6.154  10.167  12.091  2.7337  0.4133 -0.1241
12944SOL     OW56823   1.963   4.510   0.780 -0.3994 -0.2976  0.5078
12944SOL    HW156824   1.934   4.523   0.870  1.4757  0.3538  1.0706
12944SOL    HW256825   2.029   4.442   0.785 -0.2274 -0.2093 -0.3620
12945SOL     OW56826  11.793   4.248  10.156  0.5673  0.7177  0.3055
12945SOL    HW156827  11.703   4.226  10.182  0.4691  1.2914  0.4624
12945SOL    HW256828  11.795   4.228  10.062 -0.3716  2.6421 -0.1847
12946SOL     OW56829   0.540   6.510   6.680  0.2834 -0.2924 -0.1894
12946SOL    HW156830   0.627   6.470   6.679 -0.2449 -1.4971 -0.9061
12946SOL    HW256831   0.552   6.595   6.721  1.6169 -0.8651  0.6540
12947SOL     OW56832   7.671   4.920   7.158 -0.3577 -0.2726 -0.7656
12947SOL    HW156833   7.659   4.829   7.133 -2.0997  0.2450 -2.0264
12947SOL    HW256834   7.732   4.956   7.094  0.8548 -0.6859  0.1302
12948SOL     OW56835   5.605   1.640   5.243  0.2305  0.3987 -0.7696
12948SOL    HW156836   5.664   1.662   5.315 -2.0809  0.3730  1.2608
12948SOL    HW256837   5.574   1.725   5.212  1.6455  0.4396 -2.2000
12949SOL     OW56838   7.087  11.453  11.990 -0.1020 -0.4309 -0.3631
12949SOL    HW156839   7.085  11.426  11.898 -0.7215 -0.0271 -0.4729
12949SOL    HW256840   7.179  11.477  12.006 -0.1571  0.3506 -1.1281
12950SOL     OW56841  11.905   2.636   5.712 -0.0493 -0.3690 -0.5377
12950SOL    HW156842  11.977   2.658   5.654  1.5763 -1.0844  1.0943
12950SOL    HW256843  11.918   2.692   5.789 -1.5499 -0.1491 -0.3946
12951SOL     OW56844  11.411   0.094  10.025 -1.4389 -0.1913  0.3210
12951SOL    HW156845  11.345   0.149   9.983 -0.3979  1.3136  0.5858
12951SOL    HW256846  11.431   0.138  10.107  0.1503 -0.3908  0.0874
12952SOL     OW56847   0.130   0.590   0.363 -0.7443 -0.0092  0.2691
12952SOL    HW156848   0.207   0.647   0.353 -0.6474 -0.2083 -0.1203
12952SOL    HW256849   0.084   0.597   0.280 -0.5699 -0.7354  0.1053
12953SOL     OW56850  12.306   1.963  13.563  0.0651 -0.2294  0.0585
12953SOL    HW156851  12.351   1.884  13.532  1.1422 -0.2646  1.6098
12953SOL    HW256852  12.223   1.932  13.598  0.8193 -0.8027  1.3828
12954SOL     OW56853   6.996   0.938  10.958  0.4745  0.4781 -0.1607
12954SOL    HW156854   6.972   0.847  10.980 -0.0838  0.5592 -0.4106
12954SOL    HW256855   7.083   0.931  10.920 -0.4606 -0.2626 -2.3209
12955SOL     OW56856  13.554  11.528   3.102  0.2690  0.0143  0.1149
12955SOL    HW156857  13.582  11.439   3.079 -0.3867  0.0343 -0.8046
12955SOL    HW256858  13.608  11.585   3.046 -0.0701  0.1476 -0.0754
12956SOL     OW56859   7.439   9.304   1.076 -0.2155 -0.5521  0.3084
12956SOL    HW156860   7.479   9.332   0.993 -1.8384  0.3763 -0.2169
12956SOL    HW256861   7.452   9.210   1.079  1.3182 -0.3911 -0.1767
12957SOL     OW56862  12.313   7.956  12.529 -0.0439 -0.4310 -0.2874
12957SOL    HW156863  12.365   8.025  12.570 -0.1683 -0.0998 -0.6700
12957SOL    HW256864  12.278   7.997  12.450  0.1648 -1.0415 -0.7052
12958SOL     OW56865  13.154   9.936  11.526  0.3342  0.0815 -0.5271
12958SOL    HW156866  13.173   9.865  11.587  0.2882 -0.9164 -1.6399
12958SOL    HW256867  13.061   9.925  11.504 -0.0294  1.3029  0.3005
12959SOL     OW56868   9.059  13.944  13.127 -0.4020 -0.1353  0.1621
12959SOL    HW156869   9.012  13.928  13.209  1.4740 -0.9723  1.1470
12959SOL    HW256870   9.030  14.031  13.100  0.1191  0.8946  2.6014
12960SOL     OW56871   0.799   5.887   0.058  0.1735  0.5532  0.0863
12960SOL    HW156872   0.746   5.950   0.107  0.2861 -1.5389  3.1137
12960SOL    HW256873   0.884   5.888   0.101 -0.1969 -2.4999  1.1536
12961SOL     OW56874   2.688  10.051   6.395 -0.1608 -0.0829  0.0619
12961SOL    HW156875   2.689  10.071   6.301  0.3885  1.4795  0.3734
12961SOL    HW256876   2.734   9.968   6.402 -0.9887 -0.6726 -1.1348
12962SOL     OW56877   6.959  13.466   9.570  0.4144 -0.5842 -0.3558
12962SOL    HW156878   6.887  13.484   9.509 -0.4521  2.0919  1.2955
12962SOL    HW256879   6.935  13.383   9.611 -1.4916 -0.0065 -0.2090
12963SOL     OW56880  12.900  12.612   6.639  0.0372 -0.3072 -0.4887
12963SOL    HW156881  12.838  12.685   6.636 -0.2025 -0.5285 -0.9402
12963SOL    HW256882  12.937  12.607   6.551  0.2705 -0.5484 -0.3826
12964SOL     OW56883  11.985  12.501   5.862  0.0405 -0.5213 -0.5244
12964SOL    HW156884  11.988  12.462   5.775  1.0620 -2.7643  0.4285
12964SOL    HW256885  11.983  12.426   5.922  1.5070  0.8873  1.4262
12965SOL     OW56886   9.940   5.564  13.779  0.3655 -0.2317  0.1860
12965SOL    HW156887   9.933   5.536  13.688  2.0824 -2.0883  0.5649
12965SOL    HW256888  10.006   5.507  13.817 -0.2532  0.5364  2.6070
12966SOL     OW56889   1.717   7.311  14.119 -0.1932  0.1425  0.4157
12966SOL    HW156890   1.678   7.226  14.099  1.5919 -0.6709  0.1371
12966SOL    HW256891   1.654   7.354  14.176 -0.6936 -1.8094  1.4329
12967SOL     OW56892  12.756   5.295   8.439 -0.0106 -0.1580  0.0912
12967SOL    HW156893  12.770   5.207   8.474 -2.5326 -0.5066  0.4082
12967SOL    HW256894  12.705   5.339   8.507  1.3668  1.6556  0.0221
12968SOL     OW56895   1.598   6.762   4.483 -0.1622  0.2509 -0.1353
12968SOL    HW156896   1.626   6.688   4.429 -0.4007  0.4269 -0.5043
12968SOL    HW256897   1.533   6.807   4.430  0.1362  0.8488 -0.0018
12969SOL     OW56898   0.474   3.734   1.387  0.5107 -0.6685  0.0637
12969SOL    HW156899   0.380   3.750   1.400  0.6584 -0.3262  0.7481
12969SOL    HW256900   0.478   3.646   1.348 -0.0675 -0.8978  0.4982
12970SOL     OW56901   3.598   7.760  10.641 -0.0124  0.8894  0.1435
12970SOL    HW156902   3.548   7.724  10.714 -0.3281 -0.3164 -0.6433
12970SOL    HW256903   3.547   7.738  10.563  2.1293 -1.2209 -0.7978
12971SOL     OW56904   9.414   6.872   9.900 -0.1332  0.0666 -0.2436
12971SOL    HW156905   9.377   6.829   9.823 -1.3419 -0.9450  0.8487
12971SOL    HW256906   9.345   6.866   9.967  2.1914 -2.6380  2.1886
12972SOL     OW56907   1.344   7.817   0.609  0.3010 -0.1350  0.1059
12972SOL    HW156908   1.271   7.777   0.561 -0.0846 -0.3850  0.8800
12972SOL    HW256909   1.308   7.899   0.643  0.9325  0.6365 -1.0252
12973SOL     OW56910   6.694   5.295  11.381  0.3344 -1.1250  0.3271
12973SOL    HW156911   6.777   5.286  11.333 -0.3753  0.6550 -1.3613
12973SOL    HW256912   6.629   5.313  11.313 -0.7836  1.2443  1.8852
12974SOL     OW56913   3.596   0.431  10.451  0.4746  1.0159 -0.3580
12974SOL    HW156914   3.505   0.401  10.452  0.8722 -0.2290  0.1663
12974SOL    HW256915   3.613   0.458  10.541  0.4070  1.9481 -0.6216
12975SOL     OW56916   2.793   0.970  11.737 -0.2249  0.1621 -0.0392
12975SOL    HW156917   2.720   1.005  11.788  1.6829  3.4432  0.7948
12975SOL    HW256918   2.778   1.002  11.648  0.1362  0.8745  0.1410
12976SOL     OW56919   1.010  13.390   1.738 -0.5482  1.0506  0.7468
12976SOL    HW156920   0.948  13.426   1.675  0.4106  0.2655 -0.7107
12976SOL    HW256921   0.956  13.363   1.812 -1.7243  1.9227  0.2345
12977SOL     OW56922  13.599   8.769   1.507 -0.0396 -0.4528  0.1217
12977SOL    HW156923  13.592   8.743   1.599  1.8353 -1.1818  0.0968
12977SOL    HW256924  13.648   8.850   1.508  3.1487 -2.2097 -0.3368
12978SOL     OW56925   8.362   9.445   1.030 -0.1601 -0.4049 -0.3283
12978SOL    HW156926   8.346   9.489   1.114 -0.9990 -1.2521 -0.0326
12978SOL    HW256927   8.397   9.514   0.974  1.6114 -0.0780  1.0720
12979SOL     OW56928   2.466   5.130  11.714 -0.8894  0.4899  0.4818
12979SOL    HW156929   2.457   5.103  11.805  0.9497 -1.4116  0.1854
12979SOL    HW256930   2.524   5.206  11.718  0.1854 -0.3243  0.8506
12980SOL     OW56931   0.853   8.285   6.549  0.1443  0.0496 -0.7213
12980SOL    HW156932   0.839   8.257   6.639 -0.1911 -1.8398 -1.3199
12980SOL    HW256933   0.939   8.251   6.526 -0.2561 -0.5185 -1.4538
12981SOL     OW56934   0.545   3.236   3.509 -0.4238  0.0161 -0.1458
12981SOL    HW156935   0.507   3.284   3.436 -0.6494  0.1371  0.0489
12981SOL    HW256936   0.589   3.303   3.561 -0.2325 -0.0749 -0.1896
12982SOL     OW56937   3.576   5.535  11.393  0.1407 -0.1367 -0.5551
12982SOL    HW156938   3.596   5.627  11.374 -0.4942  0.1612  0.2071
12982SOL    HW256939   3.658   5.500  11.428  0.2057  0.3077 -0.2474
12983SOL     OW56940   3.628   3.857  14.116 -0.5648 -0.3993 -1.2779
12983SOL    HW156941   3.658   3.942  14.146 -2.2883 -0.6984  1.6208
12983SOL    HW256942   3.707   3.802  14.116 -0.2345 -0.1040  2.0227
12984SOL     OW56943   7.634   9.656   7.114 -0.2421  0.2645  0.2416
12984SOL    HW156944   7.580   9.609   7.051 -0.0727 -1.4394  1.2878
12984SOL    HW256945   7.582   9.732   7.139 -0.9139  0.1901 -0.8867
12985SOL     OW56946   6.903  11.228   3.143 -0.3373 -0.1215  0.0544
12985SOL    HW156947   6.853  11.271   3.073  1.3263 -1.1785 -1.8908
12985SOL    HW256948   6.990  11.270   3.139 -0.4478  0.4201  2.1411
12986SOL     OW56949  10.191  10.526   5.879  0.6412 -0.1433 -0.1508
12986SOL    HW156950  10.098  10.519   5.859  0.9990 -1.8956 -1.4786
12986SOL    HW256951  10.194  10.566   5.966 -1.3031  0.7249 -0.4340
12987SOL     OW56952  10.878   5.566  12.332 -0.2684 -0.4745 -0.3145
12987SOL    HW156953  10.892   5.629  12.403  1.2649  1.1357 -1.9148
12987SOL    HW256954  10.814   5.504  12.367  0.1635  0.4156  2.3240
12988SOL     OW56955   2.533   3.771   0.347 -0.0638  0.0996 -0.2209
12988SOL    HW156956   2.593   3.710   0.389  1.2400 -0.0199 -2.1379
12988SOL    HW256957   2.448   3.727   0.349  1.1824 -2.8589 -3.3893
12989SOL     OW56958   8.934   7.616   7.717  0.1503 -0.2301 -0.3313
12989SOL    HW156959   8.880   7.639   7.642  1.4118  0.5802 -1.0193
12989SOL    HW256960   8.920   7.522   7.729 -0.2894 -0.3099 -1.4019
12990SOL     OW56961  12.669   7.409   4.129 -0.5733  0.5944  0.1709
12990SOL    HW156962  12.727   7.474   4.169 -0.5747  0.6857  0.0255
12990SOL    HW256963  12.600   7.395   4.193  0.9939 -1.4862  1.5297
12991SOL     OW56964   1.275   7.806  10.106 -0.8883  0.1206 -0.0686
12991SOL    HW156965   1.349   7.847  10.061 -0.2822 -1.0147 -0.1357
12991SOL    HW256966   1.315   7.749  10.171 -1.7285  0.1302  0.4601
12992SOL     OW56967   9.872  12.775   3.892  0.0873  0.0559  0.0920
12992SOL    HW156968   9.782  12.806   3.880 -0.7471 -2.2250 -0.0387
12992SOL    HW256969   9.916  12.846   3.938 -1.9053  1.0586  0.5549
12993SOL     OW56970   0.806   8.678   0.765  0.1892  0.0598 -0.0734
12993SOL    HW156971   0.870   8.611   0.742 -0.2349 -0.6594  0.8192
12993SOL    HW256972   0.837   8.715   0.847  0.3037  0.8367 -0.4474
12994SOL     OW56973   6.419   0.033   9.733 -0.0153 -0.0366  0.2770
12994SOL    HW156974   6.488   0.041   9.799  0.6988 -0.4760 -0.4019
12994SOL    HW256975   6.375   0.118   9.734 -0.2642 -0.1555  1.5803
12995SOL     OW56976   3.933   6.329   1.390  0.6188  0.0727 -0.2475
12995SOL    HW156977   3.860   6.287   1.434  0.6623  1.4586  1.2398
12995SOL    HW256978   3.946   6.278   1.310 -3.1132  0.8037 -1.5197
12996SOL     OW56979  12.318  10.604   5.929  0.7106 -0.2247  0.4823
12996SOL    HW156980  12.280  10.668   5.989 -0.4048 -1.5722  1.2828
12996SOL    HW256981  12.298  10.519   5.969 -0.2295 -1.1923 -1.8348
12997SOL     OW56982  12.868  13.069   6.872 -0.1863  0.4484  0.0387
12997SOL    HW156983  12.928  13.083   6.799 -0.6653 -0.3646 -0.5174
12997SOL    HW256984  12.920  13.020   6.936  0.1386  0.8970  0.1278
12998SOL     OW56985   6.061  12.810  12.347 -0.2833 -0.2113  0.4809
12998SOL    HW156986   6.127  12.741  12.346 -0.6705 -0.5890  0.7895
12998SOL    HW256987   5.979  12.764  12.363 -0.9128  0.0171 -1.8026
12999SOL     OW56988   7.359   1.424   6.688  0.7270  0.0924 -0.4507
12999SOL    HW156989   7.355   1.487   6.760  1.8857 -0.1202 -0.1789
12999SOL    HW256990   7.399   1.346   6.726  1.1297 -0.1075 -1.2672
13000SOL     OW56991   3.085   9.237   9.657 -0.6400  0.0125  0.6232
13000SOL    HW156992   3.067   9.147   9.629 -0.4166  0.0918  0.2084
13000SOL    HW256993   3.172   9.256   9.622 -1.2948  0.8979 -0.5998
13001SOL     OW56994   7.188   1.223  10.631 -0.3435  0.4084 -0.7230
13001SOL    HW156995   7.137   1.218  10.550  0.3667 -0.7083 -1.1120
13001SOL    HW256996   7.138   1.283  10.686 -1.8031 -0.2449 -1.2902
13002SOL     OW56997  10.647   1.825   3.138  0.5136 -0.3633  0.4853
13002SOL    HW156998  10.648   1.888   3.209  1.8441  0.2620 -0.0391
13002SOL    HW256999  10.662   1.740   3.180 -1.2366 -0.3546  1.1869
13003SOL     OW57000   2.988   9.726   8.633 -0.3230 -0.0756  0.0462
13003SOL    HW157001   3.035   9.791   8.582  0.5196 -0.2005  0.6371
13003SOL    HW257002   3.046   9.650   8.635 -0.7770 -0.4224  0.3471
13004SOL     OW57003  10.519   9.464   2.902  0.0181 -0.7958  0.1970
13004SOL    HW157004  10.553   9.377   2.881 -0.2212 -0.7126 -0.5550
13004SOL    HW257005  10.508   9.507   2.817  0.1755 -0.0114  0.5611
13005SOL     OW57006  11.056  11.029   6.984 -0.7915  0.1018 -0.0374
13005SOL    HW157007  10.995  11.087   7.029 -1.6000 -1.8222  1.5169
13005SOL    HW257008  11.136  11.080   6.974 -2.0473  2.0873 -0.4990
13006SOL     OW57009   7.937   2.254   2.327  1.0743 -0.2166 -0.2205
13006SOL    HW157010   7.879   2.276   2.254  0.0051  0.9268  0.9092
13006SOL    HW257011   8.025   2.260   2.291  0.5974 -3.8593 -2.5195
13007SOL     OW57012   9.308  13.085   5.924  0.0851 -0.1467  0.7900
13007SOL    HW157013   9.380  13.043   5.878 -0.5225  2.1543 -2.6290
13007SOL    HW257014   9.313  13.177   5.898 -2.5997  0.5891  2.4623
13008SOL     OW57015   9.844   6.333   3.323  0.3509  0.2065 -0.0944
13008SOL    HW157016   9.758   6.328   3.365 -1.1293  4.0365 -2.1628
13008SOL    HW257017   9.901   6.368   3.391 -0.2030 -0.3734  0.6932
13009SOL     OW57018   8.030  10.725   5.561  0.1135 -0.0456  0.1040
13009SOL    HW157019   8.000  10.654   5.504 -0.7972  0.7237 -0.3938
13009SOL    HW257020   7.989  10.707   5.645 -0.6343  0.2228 -0.1930
13010SOL     OW57021  11.036  11.508   5.238 -0.2480  0.0461 -0.3963
13010SOL    HW157022  11.103  11.550   5.184 -0.2780 -1.7830 -1.9589
13010SOL    HW257023  10.991  11.580   5.280  2.2805  1.3815  0.2331
13011SOL     OW57024   9.336   8.745  12.685  0.3196  0.3771 -0.5787
13011SOL    HW157025   9.277   8.776  12.753  0.1959 -0.3830 -0.3331
13011SOL    HW257026   9.422   8.779  12.710  0.6935 -1.6429  1.1571
13012SOL     OW57027   9.307   7.138   0.627 -0.4667 -0.4076  0.3241
13012SOL    HW157028   9.325   7.124   0.719  1.5064  2.9601  0.6100
13012SOL    HW257029   9.377   7.195   0.597 -1.6353 -0.5084 -3.0215
13013SOL     OW57030   8.550   4.356   4.107 -0.4372 -0.3358 -0.3947
13013SOL    HW157031   8.585   4.412   4.176 -0.9599 -1.2927  0.6842
13013SOL    HW257032   8.483   4.410   4.064 -1.6535 -0.4274  1.2950
13014SOL     OW57033  10.635   4.191   1.271  0.3562  1.1139 -0.3979
13014SOL    HW157034  10.647   4.155   1.183 -3.2110  2.2449 -1.5367
13014SOL    HW257035  10.560   4.249   1.262 -0.3261  1.0603  3.5047
13015SOL     OW57036   6.291   2.643   0.313 -0.2853  0.7165  0.3053
13015SOL    HW157037   6.387   2.645   0.323 -0.1146  3.2759 -1.0936
13015SOL    HW257038   6.265   2.559   0.351  2.4980 -0.0283  0.7872
13016SOL     OW57039  10.766   0.134   2.407 -0.3825 -0.6014 -0.2780
13016SOL    HW157040  10.819   0.055   2.394  1.0272  0.0152  1.2946
13016SOL    HW257041  10.754   0.139   2.502 -1.3964  0.4885 -0.4452
13017SOL     OW57042  10.206   5.425   9.789 -0.1613  0.4577  0.2475
13017SOL    HW157043  10.285   5.471   9.816  0.9610 -0.5063 -1.2421
13017SOL    HW257044  10.148   5.429   9.866  1.6637  0.4208  1.6997
13018SOL     OW57045   9.653   7.549   9.849 -0.1170 -0.1201  0.4628
13018SOL    HW157046   9.647   7.458   9.878  1.0419 -0.2516  0.3314
13018SOL    HW257047   9.565   7.570   9.819 -0.6800 -0.8339  1.5597
13019SOL     OW57048   0.065  10.189   2.777 -0.2802  0.0750 -0.1535
13019SOL    HW157049   0.052  10.141   2.695 -2.6738  1.8096 -0.9013
13019SOL    HW257050   0.044  10.126   2.845 -1.9022 -0.3907 -1.0415
13020SOL     OW57051   8.678  13.892  14.091  0.0918 -0.4079  0.7761
13020SOL    HW157052   8.631  13.948  14.029  1.8109  0.4213  0.1668
13020SOL    HW257053   8.636  13.806  14.082 -1.3527  0.3151  0.3482
13021SOL     OW57054  13.291   7.511  13.413 -0.1768 -0.4070  0.0948
13021SOL    HW157055  13.380   7.481  13.398  0.7655  1.0167  2.3126
13021SOL    HW257056  13.269   7.563  13.336  2.0364  1.5725  0.6828
13022SOL     OW57057  10.271  13.880  11.613  0.8198 -0.4461 -0.1818
13022SOL    HW157058  10.200  13.837  11.566  0.3063 -0.6154  0.7255
13022SOL    HW257059  10.324  13.808  11.647  2.4271 -0.3287 -2.2811
13023SOL     OW57060   8.436   3.843  12.975 -0.2831  0.6218  0.3810
13023SOL    HW157061   8.493   3.800  12.911  0.1376  0.1607  1.0647
13023SOL    HW257062   8.461   3.936  12.970  0.7937  0.3699  0.9492
13024SOL     OW57063   9.591   9.622   4.655  0.0300 -0.1147 -0.1134
13024SOL    HW157064   9.507   9.638   4.614 -0.6310 -1.2186  0.7760
13024SOL    HW257065   9.595   9.686   4.727 -1.3538 -1.9136  1.6479
13025SOL     OW57066   9.373   9.856   9.984  0.0489 -0.0063  0.3471
13025SOL    HW157067   9.348   9.768   9.956  1.1332  0.4392 -2.2635
13025SOL    HW257068   9.465   9.848  10.009 -0.2968  0.0887  1.7455
13026SOL     OW57069   1.730  11.867   2.094  0.5335 -0.2554  0.1056
13026SOL    HW157070   1.710  11.774   2.103 -0.9915  0.0506  0.1558
13026SOL    HW257071   1.768  11.892   2.178 -0.8932 -0.4290  0.8388
13027SOL     OW57072   4.573  11.198   3.830 -0.1538 -0.1402  0.0987
13027SOL    HW157073   4.625  11.118   3.825 -1.7167 -1.2567  0.7344
13027SOL    HW257074   4.501  11.183   3.769 -0.2054  1.0017 -0.1421
13028SOL     OW57075   1.059  10.941   0.292  0.2944  0.9756  0.4230
13028SOL    HW157076   1.050  11.034   0.270 -2.1658  1.2932  2.3016
13028SOL    HW257077   1.055  10.895   0.209 -2.9335  2.3590 -0.3281
13029SOL     OW57078  10.881   2.764   6.090  0.0925  0.1861 -0.0452
13029SOL    HW157079  10.833   2.696   6.044 -1.1894  1.3750 -0.5389
13029SOL    HW257080  10.966   2.768   6.045  0.7915 -2.0375  0.9416
13030SOL     OW57081  11.345   6.584   6.344 -0.3349 -0.4780  0.5675
13030SOL    HW157082  11.276   6.541   6.395 -1.2620  1.3005  0.9047
13030SOL    HW257083  11.322   6.677   6.347  1.2397 -0.0110 -0.6364
13031SOL     OW57084   0.080  11.591  10.958  0.5390  0.1422  0.2202
13031SOL    HW157085   0.121  11.514  10.918  1.8677  0.0804  1.6070
13031SOL    HW257086   0.104  11.663  10.899  1.1405 -0.1812  0.0622
13032SOL     OW57087   3.322   1.946  13.205  0.2033 -0.0787 -0.0069
13032SOL    HW157088   3.325   1.860  13.163 -0.6259 -0.6279  0.9846
13032SOL    HW257089   3.277   2.002  13.142  0.5923 -0.4123 -0.5897
13033SOL     OW57090   4.306  13.387  11.658  0.3324  0.5100 -0.3981
13033SOL    HW157091   4.268  13.387  11.746  1.2166  0.5000  0.0005
13033SOL    HW257092   4.294  13.476  11.626  0.0540  0.5263 -0.2464
13034SOL     OW57093  13.888   2.771   1.197 -0.2162  0.3378 -0.1227
13034SOL    HW157094  13.851   2.833   1.133 -0.7015  0.1736 -0.0083
13034SOL    HW257095  13.817   2.709   1.213  0.5546 -0.8135 -0.9461
13035SOL     OW57096   2.715   2.333   7.243 -0.4261  0.0479 -0.7669
13035SOL    HW157097   2.698   2.339   7.149  0.4550  0.3271 -0.9176
13035SOL    HW257098   2.667   2.406   7.281  1.1630  1.4168 -1.2974
13036SOL     OW57099  13.487   3.194   0.952 -0.6570  0.1622 -0.9914
13036SOL    HW157100  13.561   3.249   0.977 -0.4675  0.1376 -1.4812
13036SOL    HW257101  13.410   3.242   0.981 -0.4157 -0.7839  1.4795
13037SOL     OW57102   3.288   3.168  10.253  0.1214 -0.3846 -0.8957
13037SOL    HW157103   3.373   3.189  10.214 -0.6507  0.8384 -1.9934
13037SOL    HW257104   3.295   3.076  10.278  1.8500 -0.2305 -0.7176
13038SOL     OW57105  10.741   6.055   0.311 -0.3499 -0.5472  0.3172
13038SOL    HW157106  10.806   6.125   0.311 -1.5338  0.6142 -0.7674
13038SOL    HW257107  10.662   6.096   0.346 -1.5872 -0.7548 -2.0283
13039SOL     OW57108   0.957   8.614   7.002 -0.2029  0.2099  0.1238
13039SOL    HW157109   0.967   8.519   6.997 -1.2973  0.0842  0.2706
13039SOL    HW257110   0.949   8.642   6.911 -0.7323  0.0677  0.1263
13040SOL     OW57111   4.269  12.180   8.187 -0.5545 -0.3277 -0.2928
13040SOL    HW157112   4.269  12.257   8.244  0.6031  0.5092 -1.3699
13040SOL    HW257113   4.340  12.196   8.125 -1.3529 -1.5076 -1.5716
13041SOL     OW57114  11.662   4.634  13.958  0.0633 -0.1320  0.0532
13041SOL    HW157115  11.730   4.589  13.908 -0.1955  0.3943 -0.7981
13041SOL    HW257116  11.710   4.695  14.014  0.3774 -0.9896  0.7370
13042SOL     OW57117   9.526   6.393  12.734  0.0111  0.5399 -0.0015
13042SOL    HW157118   9.494   6.399  12.824  0.7815  0.3435  0.2898
13042SOL    HW257119   9.553   6.302  12.724  0.7190  0.7612 -0.1518
13043SOL     OW57120  13.734   0.749  12.780  0.1921 -0.6992 -0.1606
13043SOL    HW157121  13.700   0.711  12.862 -0.0418  0.4233  0.2742
13043SOL    HW257122  13.672   0.818  12.758 -0.4261 -1.7599 -1.9632
13044SOL     OW57123  13.358   0.200   0.365 -0.1126 -0.1697 -0.3802
13044SOL    HW157124  13.309   0.163   0.438 -2.8016  0.4558 -1.7231
13044SOL    HW257125  13.300   0.267   0.328  0.8015 -0.9088 -3.4903
13045SOL     OW57126   6.264  11.910   9.656  0.0188  0.1295 -0.1542
13045SOL    HW157127   6.312  11.841   9.703 -0.5344  0.7090  1.3439
13045SOL    HW257128   6.298  11.907   9.567  1.9598 -0.2802  0.5448
13046SOL     OW57129   2.176   0.511   5.745 -0.5619  0.5436 -0.5936
13046SOL    HW157130   2.189   0.418   5.725  0.4628  0.8517 -1.4767
13046SOL    HW257131   2.184   0.555   5.660 -1.0896  1.4422 -0.1958
13047SOL     OW57132   5.826   7.574   6.804  0.1744 -0.5297 -0.2077
13047SOL    HW157133   5.882   7.647   6.778 -1.8973  0.7166 -1.4883
13047SOL    HW257134   5.873   7.496   6.774  0.9053  0.5087 -1.9134
13048SOL     OW57135  14.149  13.775   1.628 -0.1096  0.1522  0.6432
13048SOL    HW157136  14.224  13.812   1.676 -0.1409  0.3513  0.5410
13048SOL    HW257137  14.177  13.775   1.536  0.5402 -1.6370  0.7993
13049SOL     OW57138   9.778   1.013   1.684  0.0382  0.2287  0.1716
13049SOL    HW157139   9.727   1.081   1.640 -0.4235 -0.2465 -0.0300
13049SOL    HW257140   9.869   1.031   1.659 -0.3627 -1.4493 -2.9991
13050SOL     OW57141  13.832   0.487   5.680 -0.2791  0.1394  0.0956
13050SOL    HW157142  13.784   0.462   5.601 -0.1162 -0.5191  0.1980
13050SOL    HW257143  13.782   0.450   5.752 -0.3378  0.5980  0.2975
13051SOL     OW57144  12.047   0.864   4.132 -0.5853  0.5536 -0.5071
13051SOL    HW157145  12.003   0.798   4.186 -0.9283  2.7430  2.0877
13051SOL    HW257146  11.980   0.930   4.116  0.7021  2.1348  0.3363
13052SOL     OW57147   7.964   1.181   1.764 -0.2411  0.6247 -0.6096
13052SOL    HW157148   8.042   1.127   1.753 -0.6237 -0.0352 -0.1727
13052SOL    HW257149   7.894   1.132   1.721 -1.3218 -0.9987  2.6306
13053SOL     OW57150   1.543   9.034   5.600 -0.1087 -0.3921  0.4393
13053SOL    HW157151   1.551   8.968   5.668  1.2461 -1.1707 -0.4124
13053SOL    HW257152   1.622   9.023   5.546 -0.8747  0.5225 -0.9557
13054SOL     OW57153   4.753  12.899   3.527  0.1068 -0.6899  0.6856
13054SOL    HW157154   4.773  12.808   3.505  0.9268 -0.4025  0.1447
13054SOL    HW257155   4.727  12.938   3.443  0.3191 -0.2983  0.7971
13055SOL     OW57156  13.695  11.769   4.532  0.0107  0.3432 -0.0482
13055SOL    HW157157  13.658  11.810   4.611 -1.9219  2.0125 -1.7008
13055SOL    HW257158  13.778  11.815   4.518  0.9289 -0.7166  1.5342
13056SOL     OW57159   4.652   7.298   5.348  0.3421  0.4361 -0.0572
13056SOL    HW157160   4.562   7.309   5.318  0.4903 -0.0593 -0.6956
13056SOL    HW257161   4.656   7.208   5.380  0.4525  0.6486  0.5399
13057SOL     OW57162  12.343  11.721  13.330  0.5905 -0.1171  0.2419
13057SOL    HW157163  12.388  11.799  13.363 -2.1170  0.9586  1.7031
13057SOL    HW257164  12.408  11.651  13.337  2.8190  1.7725 -0.2685
13058SOL     OW57165   5.001   1.218  13.922 -0.0694 -0.1865 -0.1936
13058SOL    HW157166   5.017   1.159  13.996 -0.3354 -0.0456 -0.0221
13058SOL    HW257167   4.909   1.243  13.931 -1.0595 -2.5921 -2.3023
13059SOL     OW57168   3.943   3.340   6.422  0.7039 -0.0824 -0.5617
13059SOL    HW157169   4.016   3.400   6.405  0.5474 -0.0294 -1.0414
13059SOL    HW257170   3.964   3.261   6.372  0.5032 -0.1238 -0.5797
13060SOL     OW57171   2.309   5.371   5.080  0.2017  0.1911  0.1475
13060SOL    HW157172   2.262   5.287   5.075  0.0203  0.2878  0.2137
13060SOL    HW257173   2.266   5.418   5.151  2.1087 -0.7584  2.0637
13061SOL     OW57174   9.611   3.347   5.585 -0.0974 -0.5313 -0.4070
13061SOL    HW157175   9.698   3.352   5.544 -0.8981 -0.3435 -2.1356
13061SOL    HW257176   9.601   3.254   5.606  0.3830 -0.6159 -0.5183
13062SOL     OW57177  11.820  11.219   4.797  0.7101 -0.0669  0.1785
13062SOL    HW157178  11.872  11.162   4.853  0.8934  0.1821  0.2636
13062SOL    HW257179  11.880  11.247   4.728  1.2085  1.6617  1.2759
13063SOL     OW57180   3.936   4.544   3.446  0.6720 -0.2446  0.3403
13063SOL    HW157181   3.910   4.629   3.480 -0.7413 -0.2823 -0.5223
13063SOL    HW257182   3.881   4.532   3.368  0.4768 -2.1578  0.7224
13064SOL     OW57183   6.635  10.181   4.691  0.1518  0.1894 -0.0266
13064SOL    HW157184   6.589  10.175   4.774  0.0232 -1.5795 -0.1943
13064SOL    HW257185   6.571  10.154   4.626  0.5490  0.6001 -0.6037
13065SOL     OW57186  11.040   1.159   6.075  0.0538  0.4089 -0.1670
13065SOL    HW157187  10.992   1.236   6.044  0.2421  0.6464  0.1304
13065SOL    HW257188  10.983   1.085   6.054 -0.0664  0.6149 -0.5825
13066SOL     OW57189  13.600   2.705  10.454  0.0822  0.0617  0.0132
13066SOL    HW157190  13.645   2.707  10.539  0.7424  0.3801 -0.3375
13066SOL    HW257191  13.671   2.711  10.389 -0.2219 -2.1872 -0.6177
13067SOL     OW57192   5.982   2.439   1.286  0.2812  0.3054 -0.1778
13067SOL    HW157193   5.992   2.490   1.206  1.2512  1.5795  0.7092
13067SOL    HW257194   5.907   2.478   1.330  0.7471  0.6956  0.2875
13068SOL     OW57195   7.470   3.831   9.565 -0.3594 -0.7295 -0.1835
13068SOL    HW157196   7.410   3.851   9.637 -1.2038  0.5227 -1.1911
13068SOL    HW257197   7.426   3.864   9.487  1.2212 -0.6646 -1.0875
13069SOL     OW57198   6.192   5.738   6.521  0.4012  0.0151 -0.6233
13069SOL    HW157199   6.225   5.654   6.488  2.7871  0.7519 -0.2979
13069SOL    HW257200   6.122   5.762   6.460  1.2433 -1.1049 -2.0852
13070SOL     OW57201   7.219   1.083  10.152  0.5516 -0.0206 -0.0012
13070SOL    HW157202   7.188   1.018  10.088  1.6136  0.1293 -0.6964
13070SOL    HW257203   7.208   1.041  10.237 -0.3430 -0.4534 -0.3249
13071SOL     OW57204   5.085   9.342   9.674 -0.1606 -0.5986 -0.3941
13071SOL    HW157205   5.104   9.375   9.586 -1.3943  0.7086 -0.1950
13071SOL    HW257206   4.998   9.303   9.667 -0.4373 -0.1307  0.3225
13072SOL     OW57207  13.907   2.314   1.846  0.3285  0.0264  0.0313
13072SOL    HW157208  13.933   2.286   1.759 -1.9409 -1.9371 -0.1292
13072SOL    HW257209  13.822   2.270   1.861 -0.1782  1.6493  2.5379
13073SOL     OW57210   4.601   1.378  11.928  0.1222 -0.2452  0.0702
13073SOL    HW157211   4.584   1.317  12.000  0.1416 -3.1068 -2.1564
13073SOL    HW257212   4.690   1.410  11.945 -0.0841 -0.3701  1.5898
13074SOL     OW57213   8.979   9.605   2.766  0.0246 -0.3249 -0.2408
13074SOL    HW157214   9.054   9.548   2.778  0.9022  0.4972 -1.5884
13074SOL    HW257215   8.910   9.547   2.731  0.4056 -0.8508 -0.1309
13075SOL     OW57216   6.772   7.835   7.751  0.3709  0.5702  0.4139
13075SOL    HW157217   6.769   7.930   7.739  1.5391  0.6962  1.0215
13075SOL    HW257218   6.860   7.817   7.784 -0.7722 -0.3616  3.2577
13076SOL     OW57219   3.617  14.121  13.802  0.0788 -0.5884  0.1872
13076SOL    HW157220   3.576  14.073  13.874 -1.1242 -2.2392 -1.5308
13076SOL    HW257221   3.544  14.145  13.744  0.8858  1.6713  0.0065
13077SOL     OW57222   6.324   3.774   7.137  0.0060  0.4292 -0.0828
13077SOL    HW157223   6.298   3.821   7.216  0.3443  0.3808  0.0580
13077SOL    HW257224   6.386   3.832   7.093  1.7497 -0.5738  0.9494
13078SOL     OW57225   7.456   7.451   3.003  0.1090 -0.3243  0.0304
13078SOL    HW157226   7.488   7.381   2.946  0.2339 -0.8583  0.7406
13078SOL    HW257227   7.536   7.493   3.035  0.0757 -0.6720  0.5911
13079SOL     OW57228   9.800   0.344   1.414  0.0571 -0.0335  0.2373
13079SOL    HW157229   9.753   0.351   1.497  0.8319 -1.3395  0.7989
13079SOL    HW257230   9.866   0.277   1.428  1.0789  0.6489 -1.0350
13080SOL     OW57231  12.910  11.296   6.486 -0.2813 -0.1398  0.5202
13080SOL    HW157232  12.881  11.384   6.464 -1.4924  0.1744  3.0363
13080SOL    HW257233  13.006  11.301   6.485 -0.3067  0.5755 -1.4922
13081SOL     OW57234   5.387   9.187   8.015  0.0024 -0.2879 -0.1253
13081SOL    HW157235   5.349   9.143   8.091  1.8708 -0.1768  0.9260
13081SOL    HW257236   5.375   9.281   8.034  0.0174 -0.2654 -0.2251
13082SOL     OW57237   4.761   0.750   6.590 -0.3403  0.0553  0.0467
13082SOL    HW157238   4.714   0.807   6.528  0.3135  1.0176  0.4109
13082SOL    HW257239   4.720   0.768   6.675 -2.0512 -2.1433 -0.2189
13083SOL     OW57240   5.929  13.957  11.063  0.0812 -0.5954 -0.0342
13083SOL    HW157241   6.019  13.928  11.079 -0.5019 -1.7546  1.2709
13083SOL    HW257242   5.898  13.902  10.991  0.5353  0.1168 -0.7993
13084SOL     OW57243  10.568   4.130   0.166  0.1651  0.1240 -0.2984
13084SOL    HW157244  10.484   4.121   0.121 -0.2421 -2.0911  0.7718
13084SOL    HW257245  10.633   4.108   0.099 -0.3390 -1.4942 -0.2927
13085SOL     OW57246  10.063   5.736   1.789 -0.5629 -0.9902 -0.4603
13085SOL    HW157247  10.098   5.757   1.702 -1.2988  0.5336 -0.4222
13085SOL    HW257248  10.141   5.721   1.843 -0.0867 -1.5228 -1.2665
13086SOL     OW57249   4.967   4.908   4.472  0.2404  0.0483 -0.3148
13086SOL    HW157250   4.923   4.823   4.468 -1.6838  1.0095 -0.5962
13086SOL    HW257251   4.918   4.957   4.538  1.4641  0.8741  0.0053
13087SOL     OW57252   7.463  10.205  11.270 -0.3536  0.3378  0.4020
13087SOL    HW157253   7.417  10.205  11.186  0.4546  0.9060 -0.0457
13087SOL    HW257254   7.392  10.201  11.335 -1.0015  0.2551 -0.2910
13088SOL     OW57255   1.421   9.109   4.589  0.2982  0.2948 -0.2953
13088SOL    HW157256   1.481   9.037   4.574  0.2378  0.4062 -1.1154
13088SOL    HW257257   1.335   9.067   4.598  0.3926  0.1949  0.1443
13089SOL     OW57258  13.604  12.409  13.302 -0.3382  0.1213  0.3995
13089SOL    HW157259  13.541  12.380  13.367 -1.5865 -0.2605 -0.9124
13089SOL    HW257260  13.565  12.488  13.264  0.5310  0.5415  0.3474
13090SOL     OW57261   8.490  14.101   0.369  0.0198 -0.2770 -0.4678
13090SOL    HW157262   8.558  14.131   0.429 -2.3608 -0.3862  2.5030
13090SOL    HW257263   8.537  14.049   0.304  2.7670 -0.2950  1.3583
13091SOL     OW57264  11.994   6.131  12.531  0.3190  0.3457 -0.3438
13091SOL    HW157265  11.943   6.054  12.507 -1.8401  1.6534 -0.3498
13091SOL    HW257266  12.009   6.122  12.625 -1.4191  0.6535  0.0044
13092SOL     OW57267   8.876   4.945   9.318  0.3655  0.0658 -0.2800
13092SOL    HW157268   8.949   4.889   9.293  1.6280  1.0889  0.9340
13092SOL    HW257269   8.913   5.034   9.317 -1.1973  0.7411 -0.8030
13093SOL     OW57270   4.553   4.914   0.698  0.0839  0.1104 -0.6744
13093SOL    HW157271   4.566   4.915   0.793  1.0007  0.2950 -0.7857
13093SOL    HW257272   4.479   4.856   0.684 -1.4102  1.6667  0.3026
13094SOL     OW57273   3.269  11.498   7.421  0.1410 -0.2314 -0.3285
13094SOL    HW157274   3.302  11.454   7.499 -2.1099 -1.8152 -0.1484
13094SOL    HW257275   3.206  11.562   7.454  0.2962  0.1725 -0.7954
13095SOL     OW57276   7.594  11.848   0.101  0.2632 -0.3897  0.0245
13095SOL    HW157277   7.676  11.801   0.119 -0.1114 -0.6968  0.9988
13095SOL    HW257278   7.590  11.853   0.006  0.8724 -1.3454 -0.0681
13096SOL     OW57279   6.167   9.163   6.133  0.1432  0.2688  0.3424
13096SOL    HW157280   6.252   9.203   6.151  0.0919  0.1261  0.9132
13096SOL    HW257281   6.106   9.209   6.190 -0.2489  0.6775 -0.3883
13097SOL     OW57282   3.847  13.205   2.872 -0.7233 -0.6072  0.0146
13097SOL    HW157283   3.886  13.241   2.952  0.4976 -0.3390 -0.6690
13097SOL    HW257284   3.911  13.140   2.842 -0.9511 -0.3989 -0.9663
13098SOL     OW57285  10.841   7.983  11.181  0.2665  0.0150 -0.2317
13098SOL    HW157286  10.858   8.068  11.139 -0.0684 -0.1778 -0.7708
13098SOL    HW257287  10.917   7.968  11.237 -0.1556  1.1567  0.6815
13099SOL     OW57288   9.287   6.237   1.080 -0.4223 -0.0754  0.3403
13099SOL    HW157289   9.249   6.176   1.016  1.1857  1.5163 -2.3030
13099SOL    HW257290   9.217   6.300   1.099 -0.8364 -0.4250 -0.0196
13100SOL     OW57291   0.700   4.150  13.551 -0.1423  0.3230 -0.0468
13100SOL    HW157292   0.652   4.107  13.622 -0.2128 -0.2523 -0.4346
13100SOL    HW257293   0.698   4.243  13.573 -0.8569  0.2324  0.2884
13101SOL     OW57294   0.611   1.904   5.666  0.4974 -0.1486  0.1135
13101SOL    HW157295   0.577   1.841   5.603  2.8639  0.8235 -2.3682
13101SOL    HW257296   0.672   1.854   5.720 -0.9624 -0.8227  1.2156
13102SOL     OW57297   1.081  13.010  13.878  0.4824  0.2631 -0.1423
13102SOL    HW157298   1.064  12.977  13.967 -1.8421  0.7862 -0.3221
13102SOL    HW257299   1.108  12.933  13.829 -0.1716 -0.4368  0.5654
13103SOL     OW57300   2.947   8.289   7.410 -0.5862 -0.2740  0.5517
13103SOL    HW157301   3.021   8.279   7.471 -0.7216  1.8198  1.1698
13103SOL    HW257302   2.870   8.269   7.463 -0.6581  0.9105  0.9299
13104SOL     OW57303  12.526   3.224   8.300 -0.2718  0.2626 -0.6197
13104SOL    HW157304  12.567   3.152   8.250 -0.6741  0.5746 -1.4168
13104SOL    HW257305  12.577   3.301   8.276  0.7254  0.1242  0.9258
13105SOL     OW57306   2.088   7.709   0.722  0.4144 -0.6357  0.1277
13105SOL    HW157307   2.038   7.741   0.797  0.9938 -0.2800  0.3667
13105SOL    HW257308   2.024   7.708   0.650 -0.2457 -1.3671  0.7071
13106SOL     OW57309   0.219  12.179   7.854  1.1886  0.0690  0.4981
13106SOL    HW157310   0.199  12.271   7.874  1.2402  0.1792  0.0628
13106SOL    HW257311   0.275  12.184   7.777 -0.7160 -0.3925 -1.0187
13107SOL     OW57312   7.465  11.957   4.310 -0.1498 -0.2739 -0.4720
13107SOL    HW157313   7.486  11.924   4.222 -1.4473 -1.8532 -0.2334
13107SOL    HW257314   7.474  12.052   4.302  1.1052 -0.4668 -1.9369
13108SOL     OW57315  12.135   7.442   4.734 -0.3158  0.1156 -0.4645
13108SOL    HW157316  12.098   7.365   4.691  0.8192 -0.3952 -0.5689
13108SOL    HW257317  12.163   7.498   4.663 -0.3835  0.2480 -0.3867
13109SOL     OW57318  12.303  11.164  14.004  0.1133 -0.2664  0.2576
13109SOL    HW157319  12.371  11.200  13.947 -2.3958  2.9196 -1.0529
13109SOL    HW257320  12.248  11.113  13.945 -1.6170  1.7690 -0.0328
13110SOL     OW57321   2.083   7.039   5.302  0.3092  0.1992 -0.3298
13110SOL    HW157322   2.011   6.994   5.347 -0.3727 -0.1097 -1.6833
13110SOL    HW257323   2.040   7.093   5.236  1.2295  1.4630  0.0527
13111SOL     OW57324   9.669   8.681   6.733 -0.2811  0.3292  0.1326
13111SOL    HW157325   9.593   8.734   6.756 -0.8405 -0.2222 -0.3976
13111SOL    HW257326   9.632   8.600   6.698  0.4863 -1.2202  2.5955
13112SOL     OW57327   4.485   9.316   6.059  0.4285  0.1161  0.1666
13112SOL    HW157328   4.449   9.396   6.021  2.2390  0.3680 -1.1957
13112SOL    HW257329   4.529   9.273   5.985  0.2596 -1.6797  1.0740
13113SOL     OW57330   4.396   3.369   7.629  0.0682 -0.7430  0.2435
13113SOL    HW157331   4.330   3.434   7.606 -1.3144 -2.0432  0.3627
13113SOL    HW257332   4.375   3.345   7.719  0.7149 -1.1709  0.2827
13114SOL     OW57333  12.090  12.028   2.101  0.8430  0.8736  0.4730
13114SOL    HW157334  12.075  12.045   2.009 -1.3558 -0.6734  0.4706
13114SOL    HW257335  12.106  11.934   2.106  1.1737  0.9692  1.6390
13115SOL     OW57336   6.212   8.753   1.941  0.4165 -0.0208 -0.3785
13115SOL    HW157337   6.226   8.774   1.849 -2.0381  1.9643 -0.3835
13115SOL    HW257338   6.152   8.679   1.940  1.1079 -0.5952 -0.3396
13116SOL     OW57339   1.789  10.193  11.024  0.0511 -0.1870  0.4043
13116SOL    HW157340   1.876  10.222  10.997  0.0766 -0.0500  0.6370
13116SOL    HW257341   1.777  10.108  10.980  1.2207 -1.3242  2.1556
13117SOL     OW57342   1.228   6.686  11.214  0.1141 -0.2377  0.2593
13117SOL    HW157343   1.147   6.647  11.247 -2.9980  2.8706 -2.8892
13117SOL    HW257344   1.242   6.763  11.270 -0.0629  0.1305 -0.1992
13118SOL     OW57345  13.909  13.118  13.278 -0.9752  0.3455 -0.0720
13118SOL    HW157346  13.952  13.113  13.363  0.9805  1.8838 -0.8899
13118SOL    HW257347  13.964  13.066  13.220 -1.2475  0.8349 -0.7816
13119SOL     OW57348   5.376   3.638   2.123 -0.9563  0.3279  1.0425
13119SOL    HW157349   5.392   3.584   2.045 -1.0513  2.1394 -0.2999
13119SOL    HW257350   5.409   3.586   2.196  0.1851 -0.9679 -0.3454
13120SOL     OW57351   9.867   8.145  13.253  0.3545  0.0250 -0.5600
13120SOL    HW157352   9.893   8.232  13.283  1.0818 -0.0261 -1.0288
13120SOL    HW257353   9.949   8.100  13.234  0.0517 -1.2388  0.9400
13121SOL     OW57354   4.898   8.795   5.305  0.2678  0.3798 -0.5524
13121SOL    HW157355   4.803   8.790   5.315  0.5096 -1.7553  1.7466
13121SOL    HW257356   4.923   8.710   5.267  1.4769 -0.6338  2.2232
13122SOL     OW57357  13.088   7.242  10.627 -0.1197  0.1338  0.4137
13122SOL    HW157358  12.994   7.236  10.641 -0.3979 -2.3653 -1.8403
13122SOL    HW257359  13.126   7.236  10.715 -2.0065  0.1887  1.2754
13123SOL     OW57360   7.195   1.301   7.155  0.1601 -0.3020  0.2923
13123SOL    HW157361   7.287   1.294   7.180  0.2023 -1.3657 -0.1153
13123SOL    HW257362   7.155   1.221   7.188 -0.8247  0.5292  1.2298
13124SOL     OW57363   7.928   4.767  10.284 -0.3091 -0.2913  0.3289
13124SOL    HW157364   7.961   4.691  10.237 -1.7280 -0.4083 -0.5152
13124SOL    HW257365   7.997   4.833  10.273  0.2456 -0.9446 -0.2324
13125SOL     OW57366   4.086  13.543   5.543  0.1954  0.2435 -0.3712
13125SOL    HW157367   4.161  13.569   5.490 -0.6993  1.1772 -1.2072
13125SOL    HW257368   4.011  13.582   5.499 -0.6222  0.6621  1.3242
13126SOL     OW57369  10.451   6.087   8.162  0.2871 -0.2319  0.2861
13126SOL    HW157370  10.384   6.136   8.211  0.3271  0.5573 -0.4165
13126SOL    HW257371  10.529   6.092   8.216  0.2162  0.2640  0.3465
13127SOL     OW57372  12.944   4.707   3.576 -0.3030 -0.2198  0.3524
13127SOL    HW157373  12.935   4.660   3.494 -1.5095  0.2374  0.2072
13127SOL    HW257374  13.039   4.717   3.588 -0.0270 -2.2818  0.1937
13128SOL     OW57375   3.189   0.661   9.016  0.2433 -0.7347 -0.6941
13128SOL    HW157376   3.180   0.715   9.095  1.1519 -0.0564 -1.0405
13128SOL    HW257377   3.182   0.571   9.048 -0.9238 -0.4417 -0.0587
13129SOL     OW57378   6.044   9.971  11.540 -0.1832 -0.1694 -0.2439
13129SOL    HW157379   6.106  10.028  11.585 -2.5952  1.8577  0.7027
13129SOL    HW257380   6.093   9.889  11.527  3.9335  2.3433 -2.8780
13130SOL     OW57381  11.185   0.869   2.216 -0.1532  0.2665  0.3002
13130SOL    HW157382  11.134   0.820   2.151 -0.8055  0.2929  0.7731
13130SOL    HW257383  11.120   0.894   2.282  0.2318  1.5272  0.2112
13131SOL     OW57384  11.041  10.727   4.679 -0.2062 -0.0884  0.1084
13131SOL    HW157385  11.040  10.652   4.739 -0.3958  1.4444  2.1513
13131SOL    HW257386  11.033  10.803   4.736  0.5240  1.5455 -1.8358
13132SOL     OW57387   8.133   0.678   8.747  0.1488  0.0744 -0.2899
13132SOL    HW157388   8.132   0.582   8.737 -0.1314 -0.0169  0.5197
13132SOL    HW257389   8.209   0.694   8.803 -1.0225  0.1083  1.3858
13133SOL     OW57390   6.359  14.046   3.507 -0.1001  0.4427  0.5287
13133SOL    HW157391   6.401  13.989   3.443 -0.7781 -0.6859  1.0519
13133SOL    HW257392   6.399  14.022   3.591 -2.1791 -1.1706  1.1557
13134SOL     OW57393   5.501   1.754  12.459  0.1965 -0.3326  0.0276
13134SOL    HW157394   5.523   1.754  12.366  0.3458 -1.8842  0.0433
13134SOL    HW257395   5.580   1.785  12.503  0.1091  0.4564 -0.3493
13135SOL     OW57396  11.395   7.992   9.661  0.2238 -0.5138 -0.0676
13135SOL    HW157397  11.424   7.919   9.607  0.9672 -0.5656  0.3804
13135SOL    HW257398  11.300   7.995   9.649  0.3002 -0.9256 -0.8630
13136SOL     OW57399   8.251   6.802   6.821 -0.0844  0.2321 -0.0167
13136SOL    HW157400   8.245   6.787   6.915 -0.1705 -1.8057 -0.2842
13136SOL    HW257401   8.161   6.790   6.789  0.2248 -0.8581 -0.5380
13137SOL     OW57402   9.659   8.073  12.796  0.9209  0.1666 -0.8940
13137SOL    HW157403   9.655   7.978  12.783 -0.0906  0.2076 -0.9239
13137SOL    HW257404   9.736   8.086  12.851  1.3943 -0.6173 -1.3434
13138SOL     OW57405  12.467  13.471  13.627  0.2070  0.1190  0.3613
13138SOL    HW157406  12.373  13.482  13.633 -0.0927 -1.9383  0.2400
13138SOL    HW257407  12.490  13.505  13.541 -0.7500 -1.1244 -0.4157
13139SOL     OW57408   4.832  11.483  12.545  0.3763 -0.1591 -0.1922
13139SOL    HW157409   4.747  11.443  12.567  0.4238 -0.6320 -0.8557
13139SOL    HW257410   4.861  11.437  12.466  1.6254 -0.5561  0.4678
13140SOL     OW57411   8.083   6.557   8.847 -0.3177 -0.2506  1.0662
13140SOL    HW157412   8.177   6.547   8.861 -0.2469  0.0488  0.8085
13140SOL    HW257413   8.065   6.512   8.765  0.1021  2.1186 -0.4064
13141SOL     OW57414   3.658   1.616  12.698  0.5439 -0.1433 -0.1690
13141SOL    HW157415   3.737   1.563  12.705  1.9505  1.8847  0.3847
13141SOL    HW257416   3.589   1.561  12.733  1.8591 -1.6860  0.1370
13142SOL     OW57417   5.702  10.891  12.239 -0.1009 -0.0550 -0.3533
13142SOL    HW157418   5.743  10.901  12.153 -0.2320 -0.0363 -0.4142
13142SOL    HW257419   5.644  10.815  12.228 -0.9159  0.5901 -0.5880
13143SOL     OW57420  13.772   6.581   5.483  0.2097  0.0562  0.2213
13143SOL    HW157421  13.679   6.604   5.475  0.3185  1.3078  2.0277
13143SOL    HW257422  13.773   6.500   5.534  0.1439  0.8311  1.4786
13144SOL     OW57423   8.033   7.396   6.858  0.1548 -0.3194  0.1205
13144SOL    HW157424   8.060   7.419   6.769 -1.5501  0.5519 -0.2046
13144SOL    HW257425   7.974   7.322   6.847  0.5178 -0.6921  0.6128
13145SOL     OW57426  10.526   9.297   9.230 -0.2699 -0.2981  0.1455
13145SOL    HW157427  10.509   9.351   9.307 -1.3446 -0.0166 -0.2658
13145SOL    HW257428  10.439   9.271   9.199  0.1210 -0.1615 -1.1357
13146SOL     OW57429  12.327  14.002   6.394  0.1687 -0.0821  0.1526
13146SOL    HW157430  12.232  13.997   6.387  0.0889  1.9801 -1.1747
13146SOL    HW257431  12.342  14.062   6.467  0.4079  0.2397 -0.1562
13147SOL     OW57432   7.082   6.883   2.747  0.2210 -0.2041 -0.0525
13147SOL    HW157433   7.165   6.920   2.716 -0.3586 -0.1876 -1.6750
13147SOL    HW257434   7.020   6.901   2.676 -0.5001 -2.7672 -0.1484
13148SOL     OW57435   4.067   7.633  12.216 -0.8387  0.2625 -0.7367
13148SOL    HW157436   4.069   7.559  12.155 -0.3632  1.0517 -1.7059
13148SOL    HW257437   3.986   7.620  12.266 -0.5098 -1.1756 -0.5302
13149SOL     OW57438   1.124   3.329   9.104  0.1954 -0.2533 -0.1445
13149SOL    HW157439   1.106   3.307   9.195  2.0390  0.0591  0.3438
13149SOL    HW257440   1.170   3.414   9.109  2.1183 -1.1670 -1.1585
13150SOL     OW57441   3.581   8.792  11.483  0.6258  0.8495  0.2959
13150SOL    HW157442   3.635   8.802  11.561  2.3168 -1.5091 -0.4522
13150SOL    HW257443   3.563   8.698  11.478 -1.7047  1.2607 -0.7515
13151SOL     OW57444   2.403  11.899   1.026  0.3928 -0.2079 -0.5344
13151SOL    HW157445   2.473  11.959   1.000 -0.2907  0.7724 -0.1970
13151SOL    HW257446   2.353  11.949   1.091  0.8321 -1.8014  1.1151
13152SOL     OW57447   0.594  13.722   6.774  0.1096  0.2054  0.6565
13152SOL    HW157448   0.593  13.627   6.765 -1.4479  0.3733 -1.6655
13152SOL    HW257449   0.529  13.741   6.842  0.0017 -0.3314  0.7067
13153SOL     OW57450   9.798   7.822   5.232  0.0374  0.1320 -0.2119
13153SOL    HW157451   9.763   7.907   5.205  0.1125  0.2626  0.0942
13153SOL    HW257452   9.767   7.761   5.166  0.8248  0.5677 -1.0053
13154SOL     OW57453  11.375   2.901  11.964 -0.5016  0.3420 -0.1791
13154SOL    HW157454  11.410   2.886  11.876  1.2902  0.6872  0.4405
13154SOL    HW257455  11.309   2.833  11.975  0.9075 -1.2130 -0.9101
13155SOL     OW57456   6.708  10.083   9.935 -0.5780 -0.6299  0.3180
13155SOL    HW157457   6.623  10.127   9.932 -0.5768 -0.6325  0.2429
13155SOL    HW257458   6.755  10.117   9.859 -0.4134 -0.4283  0.5104
13156SOL     OW57459   7.042   1.660   2.165  0.0438  0.5724 -0.0058
13156SOL    HW157460   7.116   1.654   2.105  0.3288 -0.6191  0.4272
13156SOL    HW257461   6.995   1.578   2.154 -1.6134  1.5757 -0.7453
13157SOL     OW57462  10.557  12.293   6.152  0.5090  0.3871  0.4465
13157SOL    HW157463  10.553  12.372   6.205 -0.4962 -0.3123  1.4623
13157SOL    HW257464  10.640  12.300   6.105  1.6708  0.8232  2.4331
13158SOL     OW57465   0.349   9.787  11.257  0.2119  0.4715 -0.1130
13158SOL    HW157466   0.407   9.711  11.248 -0.4650 -0.0830  0.1849
13158SOL    HW257467   0.271   9.764  11.207  1.1558  2.2031 -2.5856
13159SOL     OW57468  10.488   8.193   2.117 -0.2694  0.0106  0.0832
13159SOL    HW157469  10.416   8.135   2.092 -2.7371  2.3288  1.2069
13159SOL    HW257470  10.537   8.144   2.182  1.0716 -2.7613 -2.7432
13160SOL     OW57471  11.793   3.208  10.996  0.3722  0.0257  0.1111
13160SOL    HW157472  11.790   3.297  10.963  0.9453  0.2464  0.6178
13160SOL    HW257473  11.885   3.195  11.020  0.1634 -0.4653  0.6721
13161SOL     OW57474  11.092   9.905   3.600 -0.6043  0.2536  0.7167
13161SOL    HW157475  11.186   9.922   3.606 -0.1219 -1.3500 -1.1623
13161SOL    HW257476  11.058   9.979   3.549 -0.3001  0.6393  1.0650
13162SOL     OW57477   7.943   5.940  13.708  0.4186 -0.0140  0.1615
13162SOL    HW157478   7.988   5.936  13.792  0.1669 -1.1939  0.2576
13162SOL    HW257479   7.946   5.851  13.674 -1.4765 -0.0659 -0.0052
13163SOL     OW57480   5.976   2.746  10.808 -0.0853 -0.1525  0.9697
13163SOL    HW157481   5.934   2.732  10.893 -2.5631  1.0050  0.0388
13163SOL    HW257482   5.975   2.841  10.796  1.3472 -0.2109  0.1533
13164SOL     OW57483   8.295   1.715  10.623 -0.4798  0.0391  0.5478
13164SOL    HW157484   8.277   1.777  10.553 -0.6424 -0.3031  0.2810
13164SOL    HW257485   8.263   1.631  10.589  0.3377 -0.3159  0.6253
13165SOL     OW57486   3.817   1.698  12.123 -0.7385  0.4823  0.8730
13165SOL    HW157487   3.893   1.694  12.181  0.4303 -1.1592 -0.6606
13165SOL    HW257488   3.836   1.771  12.064  1.7849 -2.2004 -2.0589
13166SOL     OW57489   4.458   0.231  11.189  0.0429  0.1872 -0.1689
13166SOL    HW157490   4.433   0.161  11.128 -3.2955  1.7815 -0.8693
13166SOL    HW257491   4.389   0.230  11.256  1.2640  1.2770  1.1719
13167SOL     OW57492   6.902  11.148   5.240 -0.9615  0.4651 -0.2146
13167SOL    HW157493   6.886  11.142   5.146  0.2996  0.8059 -0.4640
13167SOL    HW257494   6.814  11.153   5.279 -1.4882  0.7461 -1.3968
13168SOL     OW57495   8.936   5.256  11.750  0.1685  0.5867 -0.2021
13168SOL    HW157496   8.851   5.297  11.768 -0.9034 -1.3708 -0.5190
13168SOL    HW257497   8.979   5.316  11.689 -1.3301  1.2179 -0.6928
13169SOL     OW57498   7.630   9.341   8.572 -0.4047 -0.2225 -0.7148
13169SOL    HW157499   7.667   9.289   8.644 -0.0518 -1.0707 -1.5031
13169SOL    HW257500   7.694   9.333   8.501 -1.0543  0.0920 -1.3478
13170SOL     OW57501  13.530  11.667   5.069  0.7241 -0.0192 -0.3625
13170SOL    HW157502  13.515  11.601   5.136  1.0923 -0.3219 -0.5760
13170SOL    HW257503  13.528  11.619   4.987  0.3600  0.3377 -0.5608
13171SOL     OW57504   0.559  11.672  12.393 -0.4902  0.2697 -0.2159
13171SOL    HW157505   0.530  11.585  12.419  1.8277 -0.7345 -0.7025
13171SOL    HW257506   0.599  11.659  12.306  1.9733  1.2764  0.6591
13172SOL     OW57507   6.323   9.546   6.230  0.3889 -0.5160  0.1359
13172SOL    HW157508   6.241   9.532   6.278  0.7927  0.0188  0.9993
13172SOL    HW257509   6.305   9.624   6.176 -0.0675 -1.1239 -0.6139
13173SOL     OW57510   7.881   4.938   9.574  0.2179 -0.5728 -0.2027
13173SOL    HW157511   7.958   4.927   9.629  0.1933 -0.5749 -0.1689
13173SOL    HW257512   7.866   4.852   9.535  0.8036 -0.3479 -0.9606
13174SOL     OW57513  11.595  13.646  11.235 -0.2245 -0.7099 -0.7355
13174SOL    HW157514  11.600  13.671  11.327  0.1436 -1.5640 -0.5171
13174SOL    HW257515  11.511  13.601  11.227 -1.9723  2.4017 -1.6113
13175SOL     OW57516   5.410   5.651   4.456  0.2496  0.1574 -0.2742
13175SOL    HW157517   5.394   5.734   4.412  0.9250  0.0854 -0.6665
13175SOL    HW257518   5.459   5.598   4.393  0.6528 -0.1890  0.3099
13176SOL     OW57519   2.491   8.689   8.677  0.1161 -0.3570  0.5029
13176SOL    HW157520   2.564   8.685   8.616  0.7141  1.0419  1.0838
13176SOL    HW257521   2.413   8.683   8.622  0.6323 -2.9282 -0.0338
13177SOL     OW57522   6.662  10.213   0.884  0.6036 -0.0674 -0.1060
13177SOL    HW157523   6.644  10.136   0.938  0.6653  0.6338  0.9250
13177SOL    HW257524   6.591  10.215   0.820  0.0015 -0.3570  0.5512
13178SOL     OW57525   2.011  10.656   3.130 -0.5051 -0.0409  0.5264
13178SOL    HW157526   1.941  10.636   3.068 -0.1154 -0.1281  0.1089
13178SOL    HW257527   2.088  10.672   3.076  0.1302 -1.2720  1.0193
13179SOL     OW57528   7.422   1.342   9.591  0.4845 -0.2344  1.1255
13179SOL    HW157529   7.420   1.436   9.608  0.4368 -0.1154  0.4964
13179SOL    HW257530   7.463   1.334   9.505 -0.5771 -0.7111  0.6386
13180SOL     OW57531   8.772   2.147  12.506 -0.2781 -0.4600  0.2960
13180SOL    HW157532   8.842   2.088  12.479  0.3618  0.7056 -0.6679
13180SOL    HW257533   8.691   2.103  12.479  0.0818 -1.6332  1.0622
13181SOL     OW57534  10.242  10.520   3.289 -0.3380 -0.2929  0.0179
13181SOL    HW157535  10.305  10.591   3.275  0.9958 -1.2477  0.9126
13181SOL    HW257536  10.280  10.445   3.243 -1.3268 -0.6407 -0.2482
13182SOL     OW57537   0.039  12.736   1.190  0.6363 -0.5046  0.2414
13182SOL    HW157538   0.024  12.830   1.180 -1.3242 -0.6549  1.2863
13182SOL    HW257539   0.079  12.727   1.276 -0.3858 -0.6953  0.7149
13183SOL     OW57540   3.129   0.690   7.635 -0.1569 -0.1328  0.1279
13183SOL    HW157541   3.212   0.693   7.683 -0.1250  0.6874  0.0466
13183SOL    HW257542   3.141   0.620   7.572  0.3233 -0.3024  0.3974
13184SOL     OW57543  12.532   3.366  10.966 -0.3728 -0.2729 -0.2617
13184SOL    HW157544  12.614   3.399  10.929 -0.3107  0.5785  0.6132
13184SOL    HW257545  12.482   3.444  10.987 -1.4541 -0.7896 -0.8531
13185SOL     OW57546   5.437  10.225  13.575 -0.1845 -0.1099 -0.6966
13185SOL    HW157547   5.375  10.290  13.608  1.5109  0.7713  0.9695
13185SOL    HW257548   5.461  10.173  13.652 -0.6956 -2.0556 -1.7907
13186SOL     OW57549   0.645  13.870  14.138 -0.0839 -0.3765  0.0234
13186SOL    HW157550   0.561  13.873  14.091 -0.1608 -1.2419  0.0794
13186SOL    HW257551   0.683  13.956  14.125 -0.9712  0.0254 -0.0327
13187SOL     OW57552  13.418   9.206   9.864 -0.2797  0.2120  0.5262
13187SOL    HW157553  13.428   9.118   9.898 -1.2077 -0.8785 -1.7898
13187SOL    HW257554  13.357   9.249   9.924 -0.7627 -1.1316  1.0216
13188SOL     OW57555  10.920   1.028  12.629  0.1864 -0.3002 -0.1527
13188SOL    HW157556  10.871   1.060  12.553 -0.4837  1.1459  0.8311
13188SOL    HW257557  11.010   1.054  12.611  0.3239 -1.3934 -1.1625
13189SOL     OW57558   5.854  11.766   4.837  0.0479 -0.5342 -0.2464
13189SOL    HW157559   5.900  11.716   4.905  1.0330 -0.7341 -1.0248
13189SOL    HW257560   5.852  11.856   4.869  2.1277 -0.2630 -0.7041
13190SOL     OW57561   7.904   6.957   7.874  0.3227 -0.0908  0.7990
13190SOL    HW157562   7.859   7.040   7.889 -0.3343 -0.3798  0.4546
13190SOL    HW257563   7.949   6.968   7.791  0.4474  0.0076  0.8789
13191SOL     OW57564  11.473   1.016   0.695 -0.3406  0.3865 -0.2047
13191SOL    HW157565  11.535   0.968   0.639  0.1436 -0.7809  1.2918
13191SOL    HW257566  11.525   1.090   0.727  0.9859 -1.5520  2.4937
13192SOL     OW57567  13.587   4.781  13.560 -0.0018 -0.1094  0.1416
13192SOL    HW157568  13.665   4.734  13.533  0.3317  0.6719 -0.2791
13192SOL    HW257569  13.613   4.873  13.560 -0.5303  0.0667  1.3043
13193SOL     OW57570   5.139  14.073   4.801 -0.0521 -0.1943  0.6403
13193SOL    HW157571   5.157  13.984   4.772  1.7577 -0.7134  3.0477
13193SOL    HW257572   5.060  14.066   4.853 -1.5136  0.1920 -1.3947
13194SOL     OW57573   9.456  12.077   0.953 -0.1183  0.0226 -0.0667
13194SOL    HW157574   9.530  12.037   0.907 -0.6425 -2.1030  0.7830
13194SOL    HW257575   9.466  12.171   0.938  3.5824  0.0087  1.1541
13195SOL     OW57576   0.777  11.990   9.004 -0.2718 -0.1532 -0.3230
13195SOL    HW157577   0.843  12.005   9.072  0.0401 -0.6840 -0.4985
13195SOL    HW257578   0.826  11.991   8.922 -0.3600 -1.1960 -0.4100
13196SOL     OW57579   9.331   5.690   9.903  0.3737 -0.0897 -0.2496
13196SOL    HW157580   9.344   5.733   9.988  0.0098 -1.8205  0.7199
13196SOL    HW257581   9.237   5.670   9.901  1.0007 -4.0719  1.0432
13197SOL     OW57582  11.616   0.488   4.086 -0.3061 -0.0395 -0.0192
13197SOL    HW157583  11.563   0.471   4.008 -0.1137 -0.3682 -0.0829
13197SOL    HW257584  11.560   0.464   4.159 -0.2114 -0.4884 -0.0906
13198SOL     OW57585   0.282  10.756   6.926  0.3241  0.2426  0.2096
13198SOL    HW157586   0.252  10.666   6.926 -3.0062  1.2163  1.0457
13198SOL    HW257587   0.259  10.790   7.012  1.6073  1.8779 -0.0302
13199SOL     OW57588  13.236  12.853  10.343 -0.1156 -0.8110  0.5985
13199SOL    HW157589  13.201  12.930  10.298  2.5702 -0.1152 -0.4996
13199SOL    HW257590  13.167  12.787  10.334 -0.9336  0.2413 -1.9503
13200SOL     OW57591   4.122  13.717   8.287  0.0696  0.0891  0.1071
13200SOL    HW157592   4.153  13.806   8.273  1.1146 -0.5167 -1.7736
13200SOL    HW257593   4.053  13.705   8.222  0.1777 -0.5964  0.1112
13201SOL     OW57594   3.157   0.291   8.699 -0.0408 -0.7320  0.1176
13201SOL    HW157595   3.071   0.326   8.724  0.8701 -0.5455  3.5295
13201SOL    HW257596   3.201   0.364   8.656 -1.3472 -0.6666 -1.2022
13202SOL     OW57597  10.823   1.341   3.328 -0.0281 -0.0072  0.6151
13202SOL    HW157598  10.796   1.264   3.278  1.4145  0.3236 -0.7635
13202SOL    HW257599  10.917   1.328   3.344  0.4192  1.7586 -0.2791
13203SOL     OW57600  10.575   1.003   2.939  0.3680 -0.2426  0.4253
13203SOL    HW157601  10.537   0.944   3.005  0.7878  0.9424  1.7728
13203SOL    HW257602  10.501   1.056   2.909  0.3843  0.0129  0.8246
13204SOL     OW57603  11.894   0.277   8.866  0.3694 -0.1787  0.3904
13204SOL    HW157604  11.961   0.214   8.894  2.3166  0.6724 -1.9641
13204SOL    HW257605  11.835   0.226   8.811  1.3138 -0.2202 -0.6222
13205SOL     OW57606  10.148  10.188   0.309 -0.5528  0.0975  0.2302
13205SOL    HW157607  10.087  10.124   0.344  1.0689 -0.8531  1.4169
13205SOL    HW257608  10.093  10.247   0.256 -1.8096 -3.8188 -3.3885
13206SOL     OW57609   5.874   0.958  10.686 -0.9690  0.6646 -0.2792
13206SOL    HW157610   5.814   1.030  10.669 -0.6207  1.4349  1.5269
13206SOL    HW257611   5.891   0.962  10.780  1.2851 -0.0234 -0.5955
13207SOL     OW57612  10.629   9.835   3.549  0.4734 -0.0529  0.3833
13207SOL    HW157613  10.669   9.835   3.462  0.7233  2.0270  0.4433
13207SOL    HW257614  10.568   9.762   3.547  0.4083 -0.0067 -1.5895
13208SOL     OW57615   5.429   7.511   2.754  0.8100  0.1147 -0.0866
13208SOL    HW157616   5.445   7.500   2.660 -0.5792 -1.0982 -0.2106
13208SOL    HW257617   5.516   7.513   2.793  1.4449  1.4248 -1.4558
13209SOL     OW57618   6.139  13.202  12.535  0.5805 -0.2556 -0.3781
13209SOL    HW157619   6.198  13.128  12.546  0.9585  0.1486  0.3788
13209SOL    HW257620   6.061  13.164  12.495  0.7075 -1.0931  0.1412
13210SOL     OW57621  10.218   0.985   5.238 -0.5894  0.2370 -0.9407
13210SOL    HW157622  10.179   0.935   5.309  1.2721  1.3998  1.0187
13210SOL    HW257623  10.197   1.076   5.258  0.9804  0.6804 -1.1585
13211SOL     OW57624   4.303   3.839   9.888 -0.3810  0.0812 -0.0826
13211SOL    HW157625   4.370   3.901   9.861 -0.3367 -0.2358 -0.7241
13211SOL    HW257626   4.351   3.762   9.917 -0.4500  0.1377  0.1844
13212SOL     OW57627   6.775  13.005  11.654 -0.6334  0.0392 -0.0234
13212SOL    HW157628   6.823  13.051  11.723 -0.6680 -0.1111  0.1020
13212SOL    HW257629   6.806  13.044  11.573 -1.1819  0.7876  0.1078
13213SOL     OW57630  11.633   3.435   1.126 -0.4428 -0.1616 -0.4833
13213SOL    HW157631  11.662   3.407   1.039 -0.7168 -1.5599 -0.1357
13213SOL    HW257632  11.714   3.449   1.175 -0.2610 -3.1417  0.1986
13214SOL     OW57633  11.113  11.430   6.803  0.3897  0.1881 -0.3148
13214SOL    HW157634  11.089  11.505   6.857  1.5143  1.9507 -2.1430
13214SOL    HW257635  11.110  11.355   6.863 -0.1731  1.7646  1.7205
13215SOL     OW57636   8.728   0.626   3.547  0.4495  0.0857  0.1048
13215SOL    HW157637   8.640   0.662   3.552 -0.1129 -1.0518 -1.0702
13215SOL    HW257638   8.716   0.532   3.551  1.4685 -0.1433 -1.4869
13216SOL     OW57639  13.589   7.201   3.109  0.1544 -0.3607 -0.2206
13216SOL    HW157640  13.536   7.148   3.049 -0.6141 -0.9513  0.9480
13216SOL    HW257641  13.633   7.264   3.052 -1.3176 -0.2536 -1.3023
13217SOL     OW57642   6.346   7.466   4.932  0.4111  0.3887 -0.2065
13217SOL    HW157643   6.290   7.535   4.969  0.9098  0.6404  0.0813
13217SOL    HW257644   6.321   7.463   4.839  1.4191  2.0015 -0.5661
13218SOL     OW57645   1.254  12.330   3.965  0.1013 -0.1199 -0.4376
13218SOL    HW157646   1.208  12.309   3.884  0.7963 -0.8231 -0.6517
13218SOL    HW257647   1.185  12.364   4.023 -0.3262  0.8069 -1.4547
13219SOL     OW57648  11.364  13.581   3.169 -0.2861  0.1081 -0.0371
13219SOL    HW157649  11.428  13.565   3.100  0.4269 -0.6806  0.7915
13219SOL    HW257650  11.413  13.571   3.251 -1.1613  0.8178  0.5946
13220SOL     OW57651  13.135   1.482   9.407  0.1046 -0.3251  0.1112
13220SOL    HW157652  13.083   1.402   9.403 -0.4755  0.0871 -1.3058
13220SOL    HW257653  13.076   1.551   9.376  1.0397  0.4043 -0.1071
13221SOL     OW57654   9.523   1.848   1.229 -0.8875  0.5794 -0.5958
13221SOL    HW157655   9.589   1.798   1.182 -1.2051  0.1174 -0.5502
13221SOL    HW257656   9.535   1.938   1.199 -0.0976  0.5374 -0.4290
13222SOL     OW57657  11.720  11.586  12.199  0.2414 -0.3396  0.5980
13222SOL    HW157658  11.670  11.666  12.214  0.2000 -0.3573  0.5520
13222SOL    HW257659  11.672  11.519  12.247  0.9200 -0.1161  1.6105
13223SOL     OW57660  13.862  12.910   8.526  0.3297 -0.8761 -0.0109
13223SOL    HW157661  13.850  13.000   8.555  0.4734 -0.1286 -2.0999
13223SOL    HW257662  13.797  12.860   8.576 -0.1251  0.4608  0.7869
13224SOL     OW57663  10.692  12.033   1.157 -0.4802  0.4303 -0.2674
13224SOL    HW157664  10.763  12.096   1.170 -0.6049  0.4600  0.2803
13224SOL    HW257665  10.716  11.959   1.212 -0.3924  0.0392 -0.8196
13225SOL     OW57666   8.416   8.455  10.173 -0.0674  0.0096  0.5630
13225SOL    HW157667   8.426   8.515  10.098  0.6141 -0.9873 -0.1707
13225SOL    HW257668   8.463   8.499  10.244  1.1575 -0.0084 -0.1912
13226SOL     OW57669  11.248   8.696   9.561 -0.4170  0.4570  0.2861
13226SOL    HW157670  11.196   8.710   9.482 -1.2523  1.6769  1.0284
13226SOL    HW257671  11.286   8.608   9.549 -1.4695  0.1342 -0.9202
13227SOL     OW57672   0.832   5.624   9.035  0.2080 -0.0649 -0.2856
13227SOL    HW157673   0.907   5.582   9.078  1.5281 -0.7787 -3.0847
13227SOL    HW257674   0.759   5.565   9.053  0.3833  0.3299  1.9902
13228SOL     OW57675   6.045   7.831  13.366 -0.2857  0.1982 -0.3781
13228SOL    HW157676   5.986   7.755  13.367  1.0927 -0.9244 -1.2281
13228SOL    HW257677   6.130   7.796  13.392 -0.1250  1.9669  1.7713
13229SOL     OW57678   9.989  12.778  13.207 -1.0648  0.0327 -0.3134
13229SOL    HW157679   9.913  12.818  13.166 -1.7720 -0.6485  0.3194
13229SOL    HW257680   9.979  12.796  13.300 -1.8698 -2.2875  0.1252
13230SOL     OW57681   0.979   5.079   1.598  1.0272  0.0472  0.4967
13230SOL    HW157682   0.949   5.009   1.656  0.2404  0.1868  0.2671
13230SOL    HW257683   1.055   5.042   1.553  0.0595 -1.0240 -0.3248
13231SOL     OW57684  10.749  11.527   9.781 -0.1611 -0.0789 -0.2050
13231SOL    HW157685  10.654  11.516   9.774 -0.1839 -0.7641  0.9726
13231SOL    HW257686  10.763  11.563   9.868  0.7237 -0.9032  0.0123
13232SOL     OW57687  12.076   8.065   9.904  0.0135  0.2094  0.1794
13232SOL    HW157688  11.990   8.027   9.889  0.3630 -0.6228  0.2041
13232SOL    HW257689  12.120   8.003   9.962  0.9618  0.1133 -0.5979
13233SOL     OW57690   0.523   4.021   0.049 -0.5796  0.0968  0.4448
13233SOL    HW157691   0.559   3.943   0.091 -1.3880 -0.0834  0.8322
13233SOL    HW257692   0.454   3.987  -0.009 -0.6737  0.4925  0.3207
13234SOL     OW57693  12.734   3.969   4.838 -0.2444 -0.1327  0.2458
13234SOL    HW157694  12.774   4.052   4.813 -1.3259 -0.1569 -1.7011
13234SOL    HW257695  12.642   3.977   4.812 -0.3976 -1.9005  0.1044
13235SOL     OW57696   8.840  11.933   0.443  0.1975  0.6815  0.0055
13235SOL    HW157697   8.857  12.020   0.407 -1.3996  1.0426  0.0443
13235SOL    HW257698   8.911  11.918   0.504  1.9147  0.8626 -1.8533
13236SOL     OW57699   8.720  12.353   0.872 -0.3422  0.0122  0.4701
13236SOL    HW157700   8.751  12.394   0.952  1.4529  0.5957 -0.4635
13236SOL    HW257701   8.693  12.266   0.898  1.3540 -0.2407  1.5480
13237SOL     OW57702   4.534   2.391   0.347 -0.4439 -0.1744 -0.3290
13237SOL    HW157703   4.447   2.409   0.381  0.2316  0.1032  1.3317
13237SOL    HW257704   4.573   2.477   0.333 -0.5071 -0.2912 -1.3348
13238SOL     OW57705   4.429   4.762   1.797 -0.7212  0.1126 -0.5758
13238SOL    HW157706   4.521   4.752   1.773 -0.1975  1.9607  0.4655
13238SOL    HW257707   4.391   4.812   1.725 -0.1951  1.8070  0.2647
13239SOL     OW57708  14.101  10.793   1.696  0.4879 -0.1733  0.4416
13239SOL    HW157709  14.112  10.701   1.723  1.0530  0.2703  1.7976
13239SOL    HW257710  14.166  10.841   1.747 -0.3047  1.0987  0.3030
13240SOL     OW57711   9.085   2.009   2.214  0.0523  0.7333  0.1395
13240SOL    HW157712   9.174   1.977   2.235 -0.2595 -0.0622  0.2939
13240SOL    HW257713   9.070   2.080   2.277 -0.6651 -1.2814  2.3882
13241SOL     OW57714   7.232   3.648  13.466 -0.2208 -0.8611  0.3475
13241SOL    HW157715   7.290   3.724  13.471 -1.0577 -0.2701  1.9761
13241SOL    HW257716   7.284   3.581  13.421  0.4669  0.6949 -1.2970
13242SOL     OW57717   7.743   5.456   7.811  0.4015  0.1899  0.0514
13242SOL    HW157718   7.729   5.395   7.739  0.1755  0.3835 -0.0702
13242SOL    HW257719   7.754   5.541   7.769 -1.9255  0.6885  0.3215
13243SOL     OW57720  13.287  10.561   3.086  0.3232 -0.2362 -0.2472
13243SOL    HW157721  13.301  10.570   3.180 -1.4352 -2.1664  0.2953
13243SOL    HW257722  13.252  10.472   3.076 -3.1538  1.1712 -2.2187
13244SOL     OW57723  13.783   2.743   3.553 -0.2339  0.0365  0.2013
13244SOL    HW157724  13.729   2.676   3.596 -0.9768  0.4883 -0.0021
13244SOL    HW257725  13.765   2.732   3.460 -0.2626  0.4289  0.1570
13245SOL     OW57726   1.012  13.285  10.537 -0.0970 -0.1736  0.0969
13245SOL    HW157727   0.922  13.282  10.504  0.0343 -0.5994 -0.2312
13245SOL    HW257728   1.063  13.317  10.463  0.0882 -0.3941  0.1295
13246SOL     OW57729  12.327   6.453   0.148 -0.1271  0.3385 -0.2003
13246SOL    HW157730  12.389   6.490   0.211 -0.6110 -1.1106  1.1858
13246SOL    HW257731  12.297   6.529   0.097 -0.7773  1.8409  2.2294
13247SOL     OW57732   7.129   3.731  12.236  0.4203 -0.1000 -0.1164
13247SOL    HW157733   7.147   3.660  12.297  0.4783  0.2262  0.2496
13247SOL    HW257734   7.188   3.715  12.162 -1.2176 -1.7762 -1.1477
13248SOL     OW57735   6.737   1.462  12.995 -0.5948 -0.5570  0.2598
13248SOL    HW157736   6.770   1.433  13.081  0.2230  0.8805  0.4739
13248SOL    HW257737   6.766   1.553  12.989 -0.0030 -0.8421 -1.8612
13249SOL     OW57738   4.017   3.566  12.324  0.0442 -0.0805 -0.3747
13249SOL    HW157739   4.043   3.633  12.387  0.0516 -1.5937  1.2976
13249SOL    HW257740   4.097   3.515  12.309 -0.1854 -0.2857 -0.9163
13250SOL     OW57741   0.307   0.746   2.703 -0.1368  0.4720  0.3391
13250SOL    HW157742   0.392   0.724   2.740  0.4667  0.8328 -0.7962
13250SOL    HW257743   0.266   0.802   2.769 -0.2472 -1.1136  1.6826
13251SOL     OW57744   4.641  12.138   5.764 -0.5392 -0.2869  0.1303
13251SOL    HW157745   4.736  12.150   5.763 -0.5688 -0.0173 -0.7079
13251SOL    HW257746   4.628  12.048   5.733 -0.6032  0.2777 -1.6105
13252SOL     OW57747   2.425  11.852  13.245  0.2745  0.2457 -0.4532
13252SOL    HW157748   2.450  11.789  13.178  2.1856  2.9283 -2.4631
13252SOL    HW257749   2.399  11.799  13.320 -0.3769 -2.8814 -2.7374
13253SOL     OW57750   9.969   1.396   2.079 -0.4375 -0.3822 -0.2411
13253SOL    HW157751   9.966   1.480   2.033  0.4190 -0.6190 -0.7460
13253SOL    HW257752   9.877   1.370   2.088 -0.6793 -1.5924 -4.1677
13254SOL     OW57753   0.022  13.879   9.212 -0.8533  0.4170 -0.3664
13254SOL    HW157754   0.085  13.947   9.233  0.9468 -1.3272  0.1559
13254SOL    HW257755   0.012  13.884   9.117  0.3926  0.4830 -0.5137
13255SOL     OW57756   9.104  10.605   3.428 -0.0201 -0.3474  0.2617
13255SOL    HW157757   9.094  10.676   3.492 -2.1640  1.7436 -2.1621
13255SOL    HW257758   9.198  10.589   3.425  0.4664  1.8568  1.4844
13256SOL     OW57759   9.710  14.067   9.362 -0.0466 -0.2608  0.2279
13256SOL    HW157760   9.740  13.994   9.308  0.9807  0.1710  0.1917
13256SOL    HW257761   9.739  14.145   9.314 -1.0777  0.1805  0.2935
13257SOL     OW57762   0.838   2.818   4.883 -0.3199  0.3559  0.7039
13257SOL    HW157763   0.912   2.803   4.942  0.8531  1.3523 -0.4422
13257SOL    HW257764   0.799   2.900   4.913  0.7972  1.3206 -0.3302
13258SOL     OW57765   2.812  13.402   2.213  0.0375  0.3848  0.1788
13258SOL    HW157766   2.738  13.341   2.209 -0.2314  0.6869  0.4104
13258SOL    HW257767   2.884  13.356   2.170 -0.4044  0.2595 -0.4397
13259SOL     OW57768   8.436  10.833  10.000  0.0443  0.1886  0.3496
13259SOL    HW157769   8.460  10.754  10.048 -0.2787  0.2592  0.6338
13259SOL    HW257770   8.340  10.827   9.992  0.1063  0.1153 -0.3938
13260SOL     OW57771  12.232  13.604  12.007  0.5418  0.0744  0.3081
13260SOL    HW157772  12.237  13.688  12.052  4.0181  0.4360 -0.5167
13260SOL    HW257773  12.201  13.625  11.919 -0.5076  0.1523  0.6739
13261SOL     OW57774   7.704  10.251  12.844  0.2988 -0.5584 -0.4210
13261SOL    HW157775   7.619  10.270  12.882  0.9586  3.0711 -0.3735
13261SOL    HW257776   7.692  10.265  12.750  0.8051 -0.0065 -0.4108
13262SOL     OW57777   2.049   1.421   9.023  0.3036 -0.7402  0.1053
13262SOL    HW157778   1.997   1.361   9.078  1.5631 -0.6414  1.4610
13262SOL    HW257779   2.113   1.459   9.083  1.0373  0.2087 -1.2332
13263SOL     OW57780  13.134   3.586   2.086  0.6110 -0.1118 -0.1521
13263SOL    HW157781  13.203   3.534   2.127  0.5902  0.8305  1.1775
13263SOL    HW257782  13.175   3.624   2.008  0.7968 -1.5972 -0.8057
13264SOL     OW57783   8.453   9.439   0.119 -0.0668 -0.5183 -0.1689
13264SOL    HW157784   8.530   9.462   0.171  0.6770 -1.1842 -0.9248
13264SOL    HW257785   8.472   9.350   0.087 -0.9866 -0.5492 -0.6647
13265SOL     OW57786   0.903   2.097   9.608  0.1086 -0.3259  0.7887
13265SOL    HW157787   0.852   2.171   9.640 -0.7963 -1.1323  1.2552
13265SOL    HW257788   0.900   2.105   9.513  0.4236  0.4910  0.8391
13266SOL     OW57789   1.087   3.855   9.331 -0.0214 -0.2019 -0.2485
13266SOL    HW157790   1.170   3.812   9.354 -0.5217  0.4533  3.4982
13266SOL    HW257791   1.110   3.948   9.324 -0.2865 -0.1247 -0.0919
13267SOL     OW57792   7.712   4.006   8.242  0.2093 -0.6554  0.3217
13267SOL    HW157793   7.748   3.968   8.323 -0.4484 -0.5369  0.6795
13267SOL    HW257794   7.722   3.937   8.177 -0.7779 -1.3908  0.9143
13268SOL     OW57795   0.676   1.889   3.475  0.6036 -0.1177  0.6171
13268SOL    HW157796   0.726   1.810   3.454 -0.4890 -0.5230 -0.6822
13268SOL    HW257797   0.594   1.856   3.512 -0.9683  0.1776 -2.2830
13269SOL     OW57798   0.886  13.681   8.783  0.0347 -0.4169 -0.5105
13269SOL    HW157799   0.801  13.681   8.829  0.1620  1.3375 -0.2106
13269SOL    HW257800   0.877  13.613   8.716 -1.2763 -0.8932  0.1097
13270SOL     OW57801   0.898  12.826   3.357 -0.0907 -0.2406 -0.0113
13270SOL    HW157802   0.811  12.818   3.395 -1.1698  1.7807 -1.8250
13270SOL    HW257803   0.952  12.862   3.428 -1.6063  1.7363  0.2395
13271SOL     OW57804   9.867  14.125   2.178 -0.5498 -0.1801  0.4710
13271SOL    HW157805   9.934  14.178   2.135  1.0271 -1.8637  0.7031
13271SOL    HW257806   9.914  14.081   2.249 -1.2096 -3.3698 -0.8838
13272SOL     OW57807  12.548   7.611   7.796  0.5469 -0.2200 -1.0077
13272SOL    HW157808  12.544   7.517   7.777  0.6166 -0.7414  1.3540
13272SOL    HW257809  12.608   7.646   7.729  0.7419 -1.8870 -1.7580
13273SOL     OW57810   8.543   8.755   7.241  0.7336 -0.0304 -0.0390
13273SOL    HW157811   8.478   8.769   7.172  1.1296 -0.8714 -0.6072
13273SOL    HW257812   8.500   8.694   7.302  1.3153 -1.3904 -0.9366
13274SOL     OW57813   1.658   1.292  12.404  0.1285  0.2983 -0.3195
13274SOL    HW157814   1.710   1.353  12.455  1.6412 -2.3767  1.6020
13274SOL    HW257815   1.567   1.310  12.429  0.7038  0.2691  1.9917
13275SOL     OW57816   2.748   0.164   2.112  0.0557 -0.3277 -0.3451
13275SOL    HW157817   2.746   0.084   2.060  0.9573  0.3033 -1.4010
13275SOL    HW257818   2.679   0.219   2.075  0.9230  0.2574 -1.1306
13276SOL     OW57819  12.814  10.460   0.716  0.2301  0.5975 -0.3413
13276SOL    HW157820  12.825  10.393   0.648  0.2065  0.0432  0.1882
13276SOL    HW257821  12.874  10.530   0.691 -0.9637  1.1557 -1.8291
13277SOL     OW57822   0.501   3.725   7.952 -0.5307  0.0026  0.0643
13277SOL    HW157823   0.530   3.805   7.995  1.0973  0.2854 -1.4144
13277SOL    HW257824   0.444   3.755   7.881 -0.6822 -0.2224  0.0879
13278SOL     OW57825  11.730   4.066   4.540  0.7793  0.4661 -0.4915
13278SOL    HW157826  11.809   4.014   4.526  0.9733  0.2020  1.3644
13278SOL    HW257827  11.747   4.114   4.621 -1.1190  0.0998  0.1599
13279SOL     OW57828   3.412   5.142   9.753 -0.4132 -0.0756  0.2109
13279SOL    HW157829   3.409   5.158   9.848  1.0980  0.2195  0.2319
13279SOL    HW257830   3.491   5.090   9.740 -0.6246 -0.1372 -0.8989
13280SOL     OW57831  11.295  13.326   0.762 -0.6414  0.2202 -0.4951
13280SOL    HW157832  11.337  13.402   0.722 -0.0559  0.0002 -0.3129
13280SOL    HW257833  11.334  13.251   0.717  0.3366 -0.0517  0.7460
13281SOL     OW57834  13.971   4.852  10.664  0.6142 -0.4989 -0.6357
13281SOL    HW157835  13.985   4.870  10.571 -0.2742  1.2339 -0.4696
13281SOL    HW257836  13.959   4.757  10.668 -0.1829 -0.5115 -2.4293
13282SOL     OW57837  13.061   0.863   4.849  0.1244  0.0157  0.6839
13282SOL    HW157838  13.103   0.836   4.768  0.3075  1.1331  0.3840
13282SOL    HW257839  13.113   0.937   4.880 -0.9502  0.7118  0.8908
13283SOL     OW57840  12.084   4.985   2.800  0.1193 -0.7474  0.1277
13283SOL    HW157841  12.125   4.900   2.783 -0.8688 -1.0434 -0.8045
13283SOL    HW257842  12.124   5.013   2.882  0.1380 -2.3269  0.7076
13284SOL     OW57843   1.204   4.582   8.541 -0.3198 -0.0399  0.8415
13284SOL    HW157844   1.157   4.627   8.471  0.2587 -0.0921  0.4103
13284SOL    HW257845   1.173   4.622   8.621 -0.2435  0.7232  0.4957
13285SOL     OW57846   3.945   0.427   9.977  0.0764 -0.4270  0.0768
13285SOL    HW157847   3.919   0.499  10.034 -0.9869 -0.2897 -0.5725
13285SOL    HW257848   4.007   0.376  10.030  1.5201  1.4054  0.2559
13286SOL     OW57849   8.031   3.673   2.434 -0.0371 -0.0942 -0.4360
13286SOL    HW157850   7.975   3.728   2.379 -2.2391  0.2674  1.9894
13286SOL    HW257851   8.010   3.583   2.407  1.5732  0.1010 -2.5509
13287SOL     OW57852   9.844   9.184   9.544  0.5743 -0.6733 -0.3905
13287SOL    HW157853   9.921   9.178   9.599 -0.7658  2.7157  2.2491
13287SOL    HW257854   9.777   9.134   9.590 -0.3207  1.4792  0.8320
13288SOL     OW57855  10.553   3.960   9.092 -0.4421  0.8059  0.5374
13288SOL    HW157856  10.474   3.974   9.039 -0.5336  0.8307  0.6789
13288SOL    HW257857  10.623   4.000   9.040 -0.6515  1.5069  0.7828
13289SOL     OW57858   1.786   7.401   2.918  0.4645 -0.3864  0.0189
13289SOL    HW157859   1.770   7.331   2.854  1.0974  0.1317 -0.7292
13289SOL    HW257860   1.804   7.479   2.864 -2.6466  1.0110  0.7531
13290SOL     OW57861  11.151   7.321  13.297 -0.2101  0.4060 -0.1266
13290SOL    HW157862  11.242   7.345  13.278 -0.0674  0.7580  0.9379
13290SOL    HW257863  11.139   7.237  13.253  0.1207  1.1127 -1.6309
13291SOL     OW57864  11.559   7.112   6.778  0.8798 -0.2447 -0.0539
13291SOL    HW157865  11.633   7.071   6.824 -0.1935  0.1972  2.2551
13291SOL    HW257866  11.486   7.104   6.840 -0.7455  0.2969 -1.8136
13292SOL     OW57867  10.111   4.815  13.040  0.0870 -0.0969  0.3263
13292SOL    HW157868  10.088   4.722  13.040 -1.1591  0.1784 -0.9176
13292SOL    HW257869  10.069   4.850  13.119  1.6306 -0.7921  1.5101
13293SOL     OW57870   3.361   7.883   7.952  0.5059 -0.0570  0.0805
13293SOL    HW157871   3.302   7.911   8.022 -0.0383 -0.6761 -0.1070
13293SOL    HW257872   3.437   7.846   7.997  1.8170  2.7642  0.3362
13294SOL     OW57873  10.417  11.920   1.114 -0.0339 -0.0422 -0.3244
13294SOL    HW157874  10.441  11.904   1.023  1.7001  1.6726 -0.2451
13294SOL    HW257875  10.493  11.966   1.151 -0.1136 -1.8515  2.3737
13295SOL     OW57876  13.383   1.257   1.068 -0.0924  0.8538  0.2382
13295SOL    HW157877  13.326   1.267   0.992 -0.4696 -0.8843  0.2490
13295SOL    HW257878  13.328   1.281   1.142 -1.3567 -2.0331  0.3843
13296SOL     OW57879  12.895   8.711  11.936 -0.2865  0.2485  0.4540
13296SOL    HW157880  12.969   8.663  11.976  0.3427  0.1063 -0.8383
13296SOL    HW257881  12.921   8.803  11.941 -0.3752  0.2640  0.6785
13297SOL     OW57882   2.226   0.586   9.495 -0.5923  0.3667  0.5008
13297SOL    HW157883   2.253   0.528   9.566 -1.6953  2.1462  2.4870
13297SOL    HW257884   2.130   0.581   9.496 -0.6330 -0.5936 -1.8273
13298SOL     OW57885   2.512   3.530   8.333 -0.2973 -0.5031  0.2757
13298SOL    HW157886   2.479   3.619   8.334 -1.9321 -1.0802  0.5819
13298SOL    HW257887   2.547   3.516   8.421 -0.4573 -0.3089  0.3705
13299SOL     OW57888   9.265  10.533  11.650  0.1298 -0.1932 -0.1840
13299SOL    HW157889   9.253  10.628  11.648  0.9318 -0.0944 -1.3744
13299SOL    HW257890   9.184  10.498  11.615  0.6080  0.1706 -1.7480
13300SOL     OW57891  10.317  12.671  12.135  0.4595 -0.1505 -0.6294
13300SOL    HW157892  10.377  12.655  12.208 -0.9430  0.1102  0.6462
13300SOL    HW257893  10.279  12.585  12.117 -0.1911  0.0195 -0.1120
13301SOL     OW57894   9.971   6.403  11.920 -0.0676  0.3535 -0.4648
13301SOL    HW157895   9.920   6.445  11.990 -0.6312  1.1191 -1.3141
13301SOL    HW257896   9.937   6.441  11.839 -0.6521 -1.7873 -1.3018
13302SOL     OW57897   7.881  12.867   3.617 -0.1817  0.6651 -0.6309
13302SOL    HW157898   7.871  12.860   3.522 -0.8248 -0.0636 -0.5193
13302SOL    HW257899   7.957  12.811   3.637  0.6324  1.6682 -0.8230
13303SOL     OW57900   4.185   2.501   1.528  0.2957 -0.3914 -0.4468
13303SOL    HW157901   4.186   2.515   1.434  1.9151 -1.6194 -0.6486
13303SOL    HW257902   4.142   2.416   1.540 -0.6292  0.1194  0.0072
13304SOL     OW57903   2.144   4.112   3.802 -0.3999 -0.6408 -0.8346
13304SOL    HW157904   2.169   4.084   3.890 -0.5369 -0.4449 -0.7299
13304SOL    HW257905   2.193   4.055   3.743 -1.5450 -1.8914 -0.6355
13305SOL     OW57906   5.564   4.191  14.101 -0.0079  0.0978  0.0792
13305SOL    HW157907   5.546   4.281  14.077 -1.1057 -0.3529 -0.8590
13305SOL    HW257908   5.566   4.191  14.197 -1.5041  0.8365  0.1232
13306SOL     OW57909  10.705   8.392  13.358 -0.2596  0.0905 -0.3856
13306SOL    HW157910  10.719   8.300  13.380  0.0511 -0.1188 -1.4110
13306SOL    HW257911  10.768   8.439  13.413 -0.6039 -0.2769  0.3441
13307SOL     OW57912  13.096   5.214   3.019  0.6912 -0.9504  0.4438
13307SOL    HW157913  13.059   5.126   3.009  1.6416 -1.4172  0.8840
13307SOL    HW257914  13.154   5.207   3.096  1.2261 -0.1040  0.1318
13308SOL     OW57915   0.962   6.295  11.928 -0.3708 -0.0712  0.3160
13308SOL    HW157916   0.943   6.348  11.850  0.1921  1.0705  0.9370
13308SOL    HW257917   0.990   6.211  11.893  0.9070  0.7590 -0.7678
13309SOL     OW57918   9.484   7.913   2.888  0.3045 -0.0526  0.1042
13309SOL    HW157919   9.523   7.965   2.958  0.4509  0.2254 -0.1820
13309SOL    HW257920   9.543   7.925   2.813  0.9716 -1.5364  0.3500
13310SOL     OW57921  10.003   7.739   6.234 -0.0677  0.0500 -0.4113
13310SOL    HW157922   9.969   7.664   6.185 -1.4206  0.0049  0.5343
13310SOL    HW257923  10.083   7.706   6.275 -0.2845 -0.6724 -0.5525
13311SOL     OW57924  13.659   4.817   8.886 -0.5698  0.5108 -0.3089
13311SOL    HW157925  13.627   4.873   8.957  0.9869  0.7205  0.2570
13311SOL    HW257926  13.748   4.795   8.911  0.4599  1.5690 -2.7489
13312SOL     OW57927  13.468   3.115   1.702 -0.1885  0.2881 -0.2548
13312SOL    HW157928  13.509   3.054   1.763  0.7102  1.2614  0.1576
13312SOL    HW257929  13.541   3.151   1.652 -0.6656  1.1468 -0.3547
13313SOL     OW57930   8.604   2.398  10.963 -0.2589 -0.2201 -0.7309
13313SOL    HW157931   8.648   2.432  10.885 -0.3465  1.4616 -0.0839
13313SOL    HW257932   8.605   2.303  10.951  0.2568 -0.0339 -2.4862
13314SOL     OW57933   6.317   1.384   0.204 -0.2775 -0.7633  0.1141
13314SOL    HW157934   6.291   1.294   0.185  0.4302 -1.1979  1.1310
13314SOL    HW257935   6.380   1.377   0.276  0.0533  0.5190 -0.0156
13315SOL     OW57936   5.529   2.507  10.069  0.0746  0.5384 -0.3660
13315SOL    HW157937   5.611   2.556  10.080  0.1272  0.5857 -0.9810
13315SOL    HW257938   5.549   2.442  10.002 -0.6435  1.0938 -1.1280
13316SOL     OW57939   4.181   2.420  11.679  0.3384  0.7017  0.2581
13316SOL    HW157940   4.119   2.457  11.742  0.5605  0.9646  0.3205
13316SOL    HW257941   4.135   2.423  11.595 -1.4247 -2.9296  0.8896
13317SOL     OW57942  11.124   6.746  12.681 -0.4964  0.2049 -0.4973
13317SOL    HW157943  11.191   6.813  12.689  1.4704 -1.4888 -1.8158
13317SOL    HW257944  11.111   6.715  12.771  2.3283 -1.0355 -0.3983
13318SOL     OW57945  11.083   5.508   9.197 -0.4929 -0.1254  0.1001
13318SOL    HW157946  11.117   5.594   9.173  1.0071 -0.6694  0.1809
13318SOL    HW257947  11.068   5.514   9.292  0.5144 -0.2326  0.2774
13319SOL     OW57948   1.524  13.852   3.621  0.5380  0.4067  0.1415
13319SOL    HW157949   1.487  13.923   3.568  0.4917 -0.2731 -0.7796
13319SOL    HW257950   1.553  13.787   3.556  0.1104 -0.6425  0.9668
13320SOL     OW57951   7.359   1.820   3.665 -0.1562  0.2042 -0.0914
13320SOL    HW157952   7.319   1.757   3.726  0.3135  2.1013  2.3501
13320SOL    HW257953   7.292   1.835   3.599 -2.2635  0.7438  1.9999
13321SOL     OW57954   8.005  13.588  10.918  0.0402  0.1728 -0.0295
13321SOL    HW157955   7.923  13.539  10.914  0.3510 -0.2805 -2.4553
13321SOL    HW257956   7.995  13.656  10.851  1.7555 -0.1476 -0.6666
13322SOL     OW57957   9.966  13.887   7.541 -0.2327  0.3591  0.8167
13322SOL    HW157958   9.932  13.828   7.609  0.1107 -1.6249 -0.6463
13322SOL    HW257959  10.060  13.871   7.541 -0.3200 -0.2996 -0.6492
13323SOL     OW57960   5.702   4.539   5.324 -0.0574  0.3036  0.5352
13323SOL    HW157961   5.779   4.571   5.277 -0.1356  1.6529  1.2954
13323SOL    HW257962   5.636   4.527   5.256 -0.5254  3.2990  0.3474
13324SOL     OW57963   3.117   0.371   3.314 -0.0963  0.0503  0.3748
13324SOL    HW157964   3.039   0.396   3.265  1.1708  1.2050 -1.1588
13324SOL    HW257965   3.127   0.439   3.381  1.6674  2.2112 -1.8908
13325SOL     OW57966   1.766  10.668  14.035 -0.3231  0.0453 -0.5366
13325SOL    HW157967   1.741  10.733  14.101 -0.3096 -0.9235  0.4494
13325SOL    HW257968   1.848  10.631  14.068  0.3626  0.4301 -1.7526
13326SOL     OW57969   1.614   2.029  11.435  0.1330 -0.0101 -0.5100
13326SOL    HW157970   1.532   2.015  11.482 -0.2423 -2.0872 -1.6380
13326SOL    HW257971   1.675   1.968  11.476  0.7742  0.6549 -0.4727
13327SOL     OW57972   5.173   7.474   4.019 -0.5483 -0.9223 -0.0366
13327SOL    HW157973   5.119   7.461   3.941 -1.0488 -2.0865  0.4837
13327SOL    HW257974   5.254   7.427   4.001 -0.6967 -1.2623  0.1681
13328SOL     OW57975   0.858  10.241   1.721 -0.3902 -0.1593  0.2158
13328SOL    HW157976   0.790  10.236   1.788  0.9433 -0.8139  1.5832
13328SOL    HW257977   0.911  10.316   1.746 -1.6960  1.6095 -1.9846
13329SOL     OW57978  13.380   4.879  13.289  0.0657  0.1246  0.3169
13329SOL    HW157979  13.465   4.847  13.258  0.1103  0.0382  0.5270
13329SOL    HW257980  13.400   4.928  13.368 -0.0715  0.1721  0.3223
13330SOL     OW57981   1.803  13.567  13.266 -0.1802 -0.2122 -0.4917
13330SOL    HW157982   1.738  13.612  13.321 -0.9576  0.4682 -1.8920
13330SOL    HW257983   1.870  13.634  13.250  0.1742 -0.4886 -0.1749
13331SOL     OW57984   3.086   9.489   4.669  0.3346 -0.1614  0.0150
13331SOL    HW157985   3.127   9.575   4.675  2.1560 -0.9791  0.1592
13331SOL    HW257986   3.053   9.471   4.756  2.0920 -0.5533  0.6507
13332SOL     OW57987   1.567   8.645   6.005 -0.7243 -0.2274  0.6737
13332SOL    HW157988   1.600   8.712   5.945  0.5684 -1.4280  0.0034
13332SOL    HW257989   1.512   8.694   6.067  0.1953  1.4468  0.2317
13333SOL     OW57990   2.238   6.621   9.130 -0.2456 -0.5699 -0.3699
13333SOL    HW157991   2.200   6.614   9.043  1.2102 -1.5892 -0.9683
13333SOL    HW257992   2.295   6.544   9.138 -0.6042 -0.6962  1.6233
13334SOL     OW57993  12.896  10.112   8.588 -0.4636 -0.2666 -0.3170
13334SOL    HW157994  12.903  10.203   8.559 -0.0297 -0.8017 -2.0186
13334SOL    HW257995  12.854  10.066   8.515 -0.0078 -1.5647  0.2025
13335SOL     OW57996  12.543   8.792   3.608  0.0798  0.1491 -0.2492
13335SOL    HW157997  12.577   8.864   3.661 -0.1559 -0.3257  0.5626
13335SOL    HW257998  12.452   8.784   3.635  0.2023 -0.6825 -0.0760
13336SOL     OW57999   0.728   8.236   9.216 -0.3136  0.1410  1.0333
13336SOL    HW158000   0.690   8.149   9.204 -0.4943  0.4113 -0.5265
13336SOL    HW258001   0.713   8.256   9.309 -2.5995 -0.4123  0.8344
13337SOL     OW58002  12.994   2.140   1.719 -0.0958  0.1436  0.2068
13337SOL    HW158003  13.026   2.217   1.672  1.6624 -0.5498  0.2105
13337SOL    HW258004  12.962   2.175   1.802  3.0386  0.6580  1.3232
13338SOL     OW58005   8.686   8.842   9.963 -0.2088 -0.4594  0.0708
13338SOL    HW158006   8.669   8.896  10.041 -1.0216 -0.1832 -0.2873
13338SOL    HW258007   8.770   8.801   9.981 -0.2025 -0.1029  0.9348
13339SOL     OW58008  14.019   3.874   7.977  0.0324 -0.6599  0.3325
13339SOL    HW158009  14.102   3.889   8.023 -0.5855  0.7635  1.0739
13339SOL    HW258010  13.986   3.792   8.013  0.4064 -0.4579  1.1706
13340SOL     OW58011   9.298  11.698  11.091  0.0066  0.4257 -0.3143
13340SOL    HW158012   9.236  11.749  11.039  0.1386  1.3010  0.3792
13340SOL    HW258013   9.353  11.763  11.134 -1.6081 -0.0977  2.8728
13341SOL     OW58014  13.942   2.577   6.519  0.2122  0.1809 -0.8138
13341SOL    HW158015  13.988   2.630   6.584 -1.1862  1.1195 -0.5378
13341SOL    HW258016  13.920   2.496   6.565  1.6190 -0.3251 -0.9812
13342SOL     OW58017  10.907  10.327  13.751  0.0163  0.0739 -0.2411
13342SOL    HW158018  10.874  10.384  13.821  0.2240  1.6030 -1.3210
13342SOL    HW258019  10.835  10.322  13.688  0.4263  0.1526 -0.7255
13343SOL     OW58020   8.586   3.145   5.434  0.2082  0.1174 -0.0738
13343SOL    HW158021   8.651   3.076   5.419  0.9859  0.7515  0.3377
13343SOL    HW258022   8.635   3.217   5.473 -0.6144  0.8720 -0.3900
13344SOL     OW58023  12.900   8.995  11.959  0.4267 -0.2288 -0.5087
13344SOL    HW158024  12.955   9.046  11.899 -2.2191  2.7724 -0.6505
13344SOL    HW258025  12.899   9.046  12.040 -0.2876 -1.4387  0.2850
13345SOL     OW58026   7.626   1.818   6.177  0.3616  0.2637  0.1274
13345SOL    HW158027   7.558   1.757   6.206 -0.6775  1.3430  0.0232
13345SOL    HW258028   7.653   1.784   6.092  0.2588 -0.4179  0.3619
13346SOL     OW58029   1.151  11.989   3.719  0.3662 -0.2237  0.2373
13346SOL    HW158030   1.060  11.994   3.750 -0.0400  0.9807 -1.0698
13346SOL    HW258031   1.150  11.920   3.653 -0.0425  0.9938 -1.0827
13347SOL     OW58032   1.140  10.533   1.024 -0.4582  0.0974 -0.2905
13347SOL    HW158033   1.215  10.475   1.009 -0.2691  0.4636 -0.8173
13347SOL    HW258034   1.093  10.494   1.097  1.3745  0.9548  1.4260
13348SOL     OW58035  10.595   3.389  10.105  0.3865 -0.3554 -0.5741
13348SOL    HW158036  10.653   3.443  10.159 -0.0339 -0.6193  0.1444
13348SOL    HW258037  10.635   3.302  10.108 -0.2782 -0.6434  0.2925
13349SOL     OW58038  11.725   1.694  11.283  0.1248  0.3754  0.4457
13349SOL    HW158039  11.768   1.705  11.198 -1.1706  0.5934 -0.2198
13349SOL    HW258040  11.776   1.628  11.328  0.1377 -0.6570 -1.0108
13350SOL     OW58041   3.046   4.006   3.994  0.7721  0.6858 -0.4095
13350SOL    HW158042   3.128   3.988   4.039  0.6137 -0.2655 -0.4878
13350SOL    HW258043   2.990   3.931   4.014  0.3021  0.7958 -1.2450
13351SOL     OW58044   0.470   7.624  12.178 -0.3073  0.0850 -0.2781
13351SOL    HW158045   0.391   7.595  12.224 -0.3177 -0.0450 -0.3750
13351SOL    HW258046   0.502   7.698  12.228  1.3011 -1.7733  1.6552
13352SOL     OW58047   1.432   9.836   1.740  0.0399 -0.2345 -0.1377
13352SOL    HW158048   1.496   9.838   1.668  0.7044  0.5309  0.4507
13352SOL    HW258049   1.407   9.928   1.752  1.5914  0.0062  2.0104
13353SOL     OW58050   8.065  12.533  10.072  0.4985  0.6144  0.4617
13353SOL    HW158051   8.060  12.493   9.985  0.3326  0.1879  0.6606
13353SOL    HW258052   8.034  12.464  10.131  2.9390 -0.0195  1.1315
13354SOL     OW58053  13.665   5.525   8.609  0.5422 -0.0387 -0.4126
13354SOL    HW158054  13.650   5.579   8.532  0.2156 -0.9345 -0.9926
13354SOL    HW258055  13.737   5.567   8.655 -0.0976  1.2167 -0.5332
13355SOL     OW58056  10.273   2.951   9.855  0.5124 -0.3795 -0.2485
13355SOL    HW158057  10.331   3.018   9.892  0.5152  0.2212 -1.3147
13355SOL    HW258058  10.190   2.964   9.901  0.6192  0.1151 -0.1931
13356SOL     OW58059   3.207   7.545   4.702  0.1061  0.2534  0.1187
13356SOL    HW158060   3.162   7.546   4.618  1.2193  1.9993 -0.5219
13356SOL    HW258061   3.170   7.619   4.751 -0.5759 -0.7790  1.2226
13357SOL     OW58062   6.318   5.439   0.640 -0.4827 -0.1356  0.7388
13357SOL    HW158063   6.410   5.414   0.639 -0.2221  0.6020 -2.1263
13357SOL    HW258064   6.272   5.365   0.601 -1.3530 -0.9934  3.1910
13358SOL     OW58065   4.313   2.683  11.503 -0.3801 -0.4112 -0.0878
13358SOL    HW158066   4.284   2.769  11.534  0.5027 -0.2327  0.2716
13358SOL    HW258067   4.232   2.635  11.488 -0.8842  0.4498 -0.2036
13359SOL     OW58068  13.168  14.007  11.933  0.0176  0.1352  0.1702
13359SOL    HW158069  13.111  13.940  11.972 -0.1512  0.2413  0.1071
13359SOL    HW258070  13.252  13.995  11.977 -0.3867  0.7777  1.1618
13360SOL     OW58071   8.256  12.183  12.665  0.0181 -0.3447 -0.3728
13360SOL    HW158072   8.184  12.209  12.608  0.6112 -0.9870 -1.4494
13360SOL    HW258073   8.222  12.193  12.753 -0.5222  1.8520 -0.7841
13361SOL     OW58074   7.801   9.988  13.093  0.0033  0.3298 -0.2482
13361SOL    HW158075   7.853  10.032  13.026  0.0461 -1.1863 -1.2456
13361SOL    HW258076   7.753   9.920  13.047 -0.1170 -0.6462  1.2330
13362SOL     OW58077  12.037   2.061   9.605 -0.2381 -0.3527 -0.1570
13362SOL    HW158078  11.942   2.077   9.610 -0.0308  1.1657 -0.4895
13362SOL    HW258079  12.060   2.026   9.691 -0.7710  1.4062  0.7631
13363SOL     OW58080  13.093   0.986   8.203 -0.5862  0.0744  0.7063
13363SOL    HW158081  13.148   0.912   8.176 -0.9102 -0.1170  0.5762
13363SOL    HW258082  13.007   0.948   8.218 -0.2329  0.0080  2.8330
13364SOL     OW58083   2.403   4.880   1.911  0.0439  0.1897  0.0720
13364SOL    HW158084   2.380   4.892   1.819 -0.2970  1.1869  0.2803
13364SOL    HW258085   2.332   4.827   1.947  1.0808 -1.7927 -0.6319
13365SOL     OW58086   0.702   4.163   4.232 -0.0112 -0.8111  0.5481
13365SOL    HW158087   0.639   4.149   4.161 -0.3736  1.0847  0.4213
13365SOL    HW258088   0.753   4.083   4.236 -2.6829 -2.6187  0.9322
13366SOL     OW58089   5.680   1.091  11.536 -0.2603  0.4404  0.0511
13366SOL    HW158090   5.615   1.107  11.467 -1.1440 -0.4019  0.6518
13366SOL    HW258091   5.764   1.089  11.490 -0.8044  0.1855 -0.9622
13367SOL     OW58092   8.696   7.131   0.050 -0.2838  0.0448  0.3032
13367SOL    HW158093   8.712   7.043   0.016 -0.0522  0.4243 -0.6107
13367SOL    HW258094   8.641   7.172  -0.017 -2.0838 -0.0495  1.6782
13368SOL     OW58095   7.739  12.617  10.706 -0.3067 -0.3231  0.4850
13368SOL    HW158096   7.704  12.552  10.767 -0.7373 -2.4539 -1.8482
13368SOL    HW258097   7.826  12.585  10.683 -0.2404  0.2926 -0.1836
13369SOL     OW58098  11.812   4.147   3.847  0.1507 -0.2957  0.1197
13369SOL    HW158099  11.815   4.098   3.764 -0.9090  1.4888 -1.0224
13369SOL    HW258100  11.721   4.138   3.876  0.1502  0.3220  0.3104
13370SOL     OW58101   8.833   7.303   9.235 -0.3599 -0.8141 -0.1196
13370SOL    HW158102   8.815   7.298   9.141 -0.5979 -0.8010 -0.0754
13370SOL    HW258103   8.795   7.222   9.271 -0.2063 -0.8532 -0.0455
13371SOL     OW58104   2.484   9.378  12.058  0.0424 -0.8133 -0.1638
13371SOL    HW158105   2.407   9.327  12.085 -0.6001  0.0335 -0.3514
13371SOL    HW258106   2.498   9.355  11.967  0.1272 -1.1145 -0.0744
13372SOL     OW58107   3.187   7.275  13.868  0.1243 -0.0082  0.2213
13372SOL    HW158108   3.227   7.356  13.900 -1.2374  0.5564  0.5800
13372SOL    HW258109   3.240   7.251  13.792  0.9658  0.8454  0.5035
13373SOL     OW58110   9.364  13.865  11.517 -0.3390  0.3685  0.1377
13373SOL    HW158111   9.350  13.955  11.547 -0.5437 -0.0692  1.4223
13373SOL    HW258112   9.276  13.828  11.512 -0.1565 -0.3360  1.5585
13374SOL     OW58113   5.057   7.486   1.230  0.3238 -0.4378  0.7150
13374SOL    HW158114   5.109   7.409   1.254  1.7293  0.8617  2.0175
13374SOL    HW258115   5.027   7.521   1.313  0.0219  0.6437  0.1619
13375SOL     OW58116   4.870   3.822   7.892  0.5018 -0.2906 -0.1532
13375SOL    HW158117   4.897   3.912   7.912  0.6599 -0.8870  2.8750
13375SOL    HW258118   4.915   3.769   7.958 -2.1244 -2.1862  0.2711
13376SOL     OW58119   9.096  11.834   2.551 -0.2040 -0.0614 -0.6564
13376SOL    HW158120   9.179  11.796   2.521  0.8889  0.9580  0.9091
13376SOL    HW258121   9.072  11.896   2.483 -0.2643 -1.1241 -1.6347
13377SOL     OW58122   6.071   4.864  10.303  1.0958  0.4666  0.4093
13377SOL    HW158123   6.153   4.909  10.321  1.3546 -0.3517  1.3943
13377SOL    HW258124   6.096   4.792  10.245  0.6831  1.5519 -1.1713
13378SOL     OW58125   9.455   7.953   6.289 -0.0828 -0.2647 -0.3878
13378SOL    HW158126   9.415   7.963   6.202 -0.8084 -0.7240 -0.1150
13378SOL    HW258127   9.469   8.043   6.319  2.6357 -0.0139 -2.0551
13379SOL     OW58128   6.175   2.530   5.377  0.0135  0.1403 -0.7261
13379SOL    HW158129   6.243   2.486   5.428  0.2025  3.2236  1.9974
13379SOL    HW258130   6.221   2.599   5.330 -0.8551  0.4100 -1.2017
13380SOL     OW58131  11.284   5.530  13.559  0.1851  0.0681 -0.0757
13380SOL    HW158132  11.229   5.452  13.558 -1.0442  0.6912 -4.8666
13380SOL    HW258133  11.373   5.497  13.545  0.2382 -0.5730  1.5388
13381SOL     OW58134  11.468  11.315   9.210 -0.7714  0.6798 -0.2992
13381SOL    HW158135  11.458  11.313   9.305  0.4401 -0.5672 -0.1612
13381SOL    HW258136  11.555  11.353   9.196 -0.7621  0.4536 -0.8863
13382SOL     OW58137   4.281   3.146  13.164  0.3348  0.4924  0.4564
13382SOL    HW158138   4.194   3.171  13.197  0.1038 -1.0093  1.0815
13382SOL    HW258139   4.341   3.206  13.206 -0.4058  1.6643 -0.1101
13383SOL     OW58140   5.869  10.843   7.673  0.4352  0.3107 -0.2437
13383SOL    HW158141   5.815  10.770   7.645 -0.4459  0.5558  0.7248
13383SOL    HW258142   5.925  10.807   7.742 -1.2520  0.9024  1.5069
13384SOL     OW58143   6.098  14.052  12.983 -0.5401 -0.1509  0.4104
13384SOL    HW158144   6.084  14.103  12.903  2.1204 -0.4021 -0.3045
13384SOL    HW258145   6.066  13.965  12.962 -1.0129  0.0908  0.0954
13385SOL     OW58146  12.132  10.259   0.105 -0.4312 -0.1817  0.5703
13385SOL    HW158147  12.098  10.173   0.126 -0.6593  0.1786  1.7097
13385SOL    HW258148  12.168  10.293   0.187  1.3240  0.0744 -0.2458
13386SOL     OW58149  12.778   8.505   5.038 -0.2492  0.6054  1.0365
13386SOL    HW158150  12.778   8.600   5.033  0.4348  0.6402  1.5307
13386SOL    HW258151  12.805   8.485   5.128 -0.3205 -0.0513  0.9202
13387SOL     OW58152   7.825   8.134   1.620  0.3657  0.2594 -0.2534
13387SOL    HW158153   7.814   8.224   1.589  0.0632 -0.3775 -2.1434
13387SOL    HW258154   7.820   8.140   1.715  1.3789  2.3698 -0.2793
13388SOL     OW58155   7.839   3.834   6.746 -0.1622  0.2872 -0.1767
13388SOL    HW158156   7.779   3.857   6.817 -2.5132  0.1616 -2.0201
13388SOL    HW258157   7.842   3.912   6.691  0.4849 -0.1001 -0.7048
13389SOL     OW58158  11.237  12.652   5.181  0.4820 -0.0633  0.1574
13389SOL    HW158159  11.287  12.578   5.146  1.0251 -0.7380  2.2204
13389SOL    HW258160  11.303  12.710   5.218 -0.0735  0.5938  0.1218
13390SOL     OW58161   9.174  11.669   2.176 -0.5906 -0.0013 -0.0375
13390SOL    HW158162   9.261  11.688   2.141 -1.1070 -0.1152 -1.4607
13390SOL    HW258163   9.135  11.608   2.113 -1.2645 -0.8921  1.2033
13391SOL     OW58164  11.362  11.690   4.579 -0.5620 -0.0211  0.1617
13391SOL    HW158165  11.445  11.720   4.617 -1.2092  1.0444  0.8006
13391SOL    HW258166  11.384  11.607   4.536  1.0166  0.6620 -0.4449
13392SOL     OW58167   9.399   2.040   6.455  0.3371 -0.6277 -0.1503
13392SOL    HW158168   9.386   2.088   6.537  1.0853  0.2575 -0.5244
13392SOL    HW258169   9.456   1.967   6.480  0.2441 -0.5866  0.1971
13393SOL     OW58170   2.655   3.546   9.713  0.0597  0.3543 -0.3457
13393SOL    HW158171   2.671   3.598   9.792 -0.3952  1.6548 -1.0660
13393SOL    HW258172   2.565   3.568   9.688  0.2186  0.0311 -1.2595
13394SOL     OW58173   3.928   1.230  10.731  0.3641  0.5166 -0.7191
13394SOL    HW158174   4.013   1.194  10.756 -0.5363 -1.2758 -0.0479
13394SOL    HW258175   3.944   1.278  10.650  1.9497 -0.0349 -0.7482
13395SOL     OW58176  11.618  11.212  11.669  0.3084 -0.3547  0.3657
13395SOL    HW158177  11.693  11.266  11.693 -0.5502  0.5227  1.1158
13395SOL    HW258178  11.653  11.152  11.602  1.1546  1.4925 -0.9435
13396SOL     OW58179   4.789   0.470   1.404  0.9579 -0.4767  0.4987
13396SOL    HW158180   4.814   0.461   1.496  0.0928  0.1164  0.8152
13396SOL    HW258181   4.812   0.561   1.382 -1.4928  0.3612  1.0421
13397SOL     OW58182  10.980  12.578   1.248  0.6984 -0.3943 -0.4823
13397SOL    HW158183  10.986  12.596   1.154  1.6599 -1.1336 -0.5832
13397SOL    HW258184  11.033  12.646   1.289  0.2504 -0.0504 -0.4682
13398SOL     OW58185   1.125   9.203   1.783 -0.1090  0.5085 -0.2203
13398SOL    HW158186   1.125   9.206   1.879 -0.5129  2.1874 -0.2531
13398SOL    HW258187   1.201   9.254   1.757 -0.8895  1.4067 -0.8053
13399SOL     OW58188  12.267   6.660   8.494  0.3514 -0.1813 -0.1622
13399SOL    HW158189  12.339   6.701   8.542 -0.7520  0.4902  0.9815
13399SOL    HW258190  12.295   6.569   8.482  2.1595  0.4868 -1.3784
13400SOL     OW58191   1.652  12.733   6.433 -0.5179  0.2546 -0.3703
13400SOL    HW158192   1.710  12.661   6.410 -1.7356 -1.1267  0.6708
13400SOL    HW258193   1.709  12.799   6.473  0.4214 -0.7882  0.0484
13401SOL     OW58194   8.477  13.990   4.255 -0.5814 -0.3435 -0.7558
13401SOL    HW158195   8.489  13.996   4.350  1.2539  0.3667 -0.9890
13401SOL    HW258196   8.477  13.896   4.237  3.1353 -0.5442 -0.4104
13402SOL     OW58197   0.692   7.498   1.942  0.1016 -0.5045  0.2760
13402SOL    HW158198   0.760   7.558   1.972 -1.1264  0.2932  1.6337
13402SOL    HW258199   0.649   7.543   1.870 -0.9379  0.3933  1.4129
13403SOL     OW58200   9.605  13.223   3.476 -0.0953  0.2051  0.0022
13403SOL    HW158201   9.560  13.155   3.426 -0.7170  0.9947 -0.5489
13403SOL    HW258202   9.685  13.240   3.427  0.1118 -0.1849  0.1959
13404SOL     OW58203   0.256   7.652  11.359  0.3728 -0.1241  0.7443
13404SOL    HW158204   0.232   7.560  11.364 -1.3630  0.0838 -1.6544
13404SOL    HW258205   0.351   7.653  11.348  0.4496 -1.6010  1.1581
13405SOL     OW58206   2.130   7.711  12.457 -0.1659  0.0460  0.2713
13405SOL    HW158207   2.129   7.618  12.436 -2.3129  0.0618  0.1255
13405SOL    HW258208   2.088   7.753  12.382 -1.2481  0.8733  1.3081
13406SOL     OW58209  11.182   4.604   6.732  0.1157 -0.3584 -0.3725
13406SOL    HW158210  11.232   4.530   6.766  1.0101  0.4761  0.1727
13406SOL    HW258211  11.157   4.653   6.810  0.2093  0.3403 -0.7734
13407SOL     OW58212   1.821  13.785   1.059 -0.2397 -0.5309 -0.3566
13407SOL    HW158213   1.843  13.747   1.144 -0.7077  0.6013  0.2928
13407SOL    HW258214   1.762  13.857   1.080  0.8951  0.7876 -1.4994
13408SOL     OW58215  11.152  12.500   5.949  0.3532  0.6403 -0.4611
13408SOL    HW158216  11.186  12.433   5.890 -1.0099 -1.3992  0.9198
13408SOL    HW258217  11.191  12.479   6.034  0.1667  1.8156 -0.0725
13409SOL     OW58218  12.726  10.220  11.722 -0.3026  0.4372 -0.4883
13409SOL    HW158219  12.678  10.137  11.720  0.7983 -0.2276 -0.6791
13409SOL    HW258220  12.664  10.285  11.690 -1.1268 -0.3477 -0.5268
13410SOL     OW58221  13.400   2.320   3.111 -0.2705  0.1471 -0.0958
13410SOL    HW158222  13.347   2.301   3.189  0.1520 -0.1598  0.1195
13410SOL    HW258223  13.394   2.241   3.059  0.6234 -0.1970  0.3029
13411SOL     OW58224   1.155  11.568  12.672  0.1134  0.1948  0.1691
13411SOL    HW158225   1.122  11.486  12.635  2.8907 -2.3222  2.6492
13411SOL    HW258226   1.171  11.547  12.764  1.8139  3.2598  0.6960
13412SOL     OW58227   1.771   0.491  10.150 -0.0699  0.4759 -0.3091
13412SOL    HW158228   1.730   0.576  10.135 -0.3221  0.2117 -1.1955
13412SOL    HW258229   1.775   0.451  10.063  1.3562  0.1662 -0.1318
13413SOL     OW58230   6.967  12.570   6.618 -0.0733  0.5999  0.0346
13413SOL    HW158231   7.047  12.521   6.637  0.1757  1.9227  2.7968
13413SOL    HW258232   6.944  12.612   6.700 -3.2123  0.9189 -0.8691
13414SOL     OW58233  11.765   0.112   2.613  0.3742 -0.0996  0.4588
13414SOL    HW158234  11.730   0.103   2.524  0.4090 -0.8258  0.5143
13414SOL    HW258235  11.692   0.144   2.665  0.0162 -0.8206  0.4057
13415SOL     OW58236   4.483   8.809   8.607 -0.6620  0.1064 -0.1137
13415SOL    HW158237   4.404   8.857   8.585 -0.8084  0.7326  1.5790
13415SOL    HW258238   4.545   8.876   8.636  0.2958 -0.4327 -0.8510
13416SOL     OW58239   9.161   2.177   9.951 -0.9870  0.4790  0.2864
13416SOL    HW158240   9.145   2.269   9.972 -0.0459  0.2822  1.9626
13416SOL    HW258241   9.084   2.151   9.899 -0.6996  2.5026 -1.2943
13417SOL     OW58242  10.069   1.247   5.840 -0.3771 -0.0340  0.1375
13417SOL    HW158243  10.072   1.312   5.910 -2.3315 -0.5875  0.8018
13417SOL    HW258244   9.989   1.269   5.791  1.2605  0.7455 -2.3729
13418SOL     OW58245  10.345   0.069  11.769 -0.1239  0.4777 -0.5078
13418SOL    HW158246  10.375   0.137  11.709 -0.1300  0.4126 -0.5856
13418SOL    HW258247  10.411  -0.000  11.761 -0.6497  0.0416 -1.1943
13419SOL     OW58248  11.419  11.695   6.808  0.4007 -0.5671  0.4686
13419SOL    HW158249  11.435  11.726   6.898 -1.6029  1.6740  0.1435
13419SOL    HW258250  11.484  11.742   6.755  0.6692 -0.8285  0.5604
13420SOL     OW58251   2.193  11.678   1.791  0.0724 -0.4175 -0.6101
13420SOL    HW158252   2.250  11.696   1.865  1.6002 -0.5471 -1.6982
13420SOL    HW258253   2.151  11.763   1.773 -0.3826 -0.4075  0.4265
13421SOL     OW58254  12.782   6.814   2.950 -0.3312  0.1061  0.0801
13421SOL    HW158255  12.803   6.789   3.040  2.1844  0.8237 -0.2327
13421SOL    HW258256  12.782   6.731   2.901  0.0239 -0.1075  0.4385
13422SOL     OW58257  13.752   1.067   8.434  0.3859 -0.7161  0.2319
13422SOL    HW158258  13.738   0.976   8.459 -0.3500 -0.4944  0.6498
13422SOL    HW258259  13.783   1.109   8.514 -0.7255 -0.2816  0.4482
13423SOL     OW58260  11.061  13.618   1.504  0.7399 -0.4183 -0.7271
13423SOL    HW158261  11.006  13.695   1.516  1.5077  0.2156 -1.2208
13423SOL    HW258262  11.149  13.647   1.528  1.1288 -0.9929 -1.4101
13424SOL     OW58263   2.605  11.651  10.044  0.0195  0.3958 -0.1191
13424SOL    HW158264   2.610  11.605   9.960 -1.6259  1.5758 -0.9150
13424SOL    HW258265   2.696  11.663  10.070  0.6026  0.6985 -2.1314
13425SOL     OW58266  12.171  11.195   8.623 -0.4088  0.0199  0.1685
13425SOL    HW158267  12.143  11.264   8.563  0.0601 -0.0152 -0.0943
13425SOL    HW258268  12.098  11.186   8.684 -1.3780 -0.6982 -1.0388
13426SOL     OW58269  12.590   4.433   9.788 -0.3583  0.2249  0.0213
13426SOL    HW158270  12.512   4.399   9.833 -0.7624  0.4175 -0.5251
13426SOL    HW258271  12.608   4.367   9.721 -2.1534  1.8329 -2.1777
13427SOL     OW58272   0.616  12.810   0.785 -0.7562 -0.7775 -0.1141
13427SOL    HW158273   0.561  12.828   0.861 -0.9192  1.4513 -0.6832
13427SOL    HW258274   0.587  12.873   0.719  0.1342 -1.9054 -1.6489
13428SOL     OW58275   6.402   8.337   3.383  0.9094 -0.0276 -0.4578
13428SOL    HW158276   6.361   8.391   3.316 -0.5645 -0.2632  0.2199
13428SOL    HW258277   6.452   8.398   3.436 -0.6570  0.6941  0.2433
13429SOL     OW58278   5.003  10.012   5.813  0.3187 -0.3952 -0.5687
13429SOL    HW158279   5.007  10.001   5.908  0.9768 -0.3304 -0.5828
13429SOL    HW258280   4.995  10.107   5.801 -0.4107 -0.4457 -0.5712
13430SOL     OW58281   9.464   3.161   8.011 -0.1237  0.4548  0.1622
13430SOL    HW158282   9.510   3.113   7.943 -0.6917  0.5869 -0.3277
13430SOL    HW258283   9.372   3.160   7.983 -0.2789  1.0126  0.6237
13431SOL     OW58284   1.231   1.464  13.759 -0.3944  0.8558  0.0038
13431SOL    HW158285   1.151   1.416  13.738 -0.5054 -0.0897  2.3339
13431SOL    HW258286   1.227   1.542  13.703 -2.3718  0.2844 -0.7366
13432SOL     OW58287   1.930  10.931   9.344  0.4478  0.6494  0.0895
13432SOL    HW158288   1.957  10.840   9.331  0.2096  0.5639  0.1866
13432SOL    HW258289   1.924  10.967   9.256 -0.9415  0.1355 -0.0597
13433SOL     OW58290   8.500   8.645   0.100  0.1103  0.1324  0.0440
13433SOL    HW158291   8.448   8.580   0.052 -0.6847  1.2238 -0.6152
13433SOL    HW258292   8.435   8.701   0.143  0.7883  0.3093  0.8553
13434SOL     OW58293   5.738  13.440  11.651 -0.2504 -0.1168 -0.1151
13434SOL    HW158294   5.657  13.389  11.656  0.0143 -0.5326 -0.0199
13434SOL    HW258295   5.711  13.529  11.674 -0.7890 -0.1282 -0.6608
13435SOL     OW58296   1.421   7.811  11.049 -0.4295 -0.3285  0.0647
13435SOL    HW158297   1.513   7.787  11.052 -0.6112 -0.9081  1.2694
13435SOL    HW258298   1.409   7.848  10.961  0.9116 -0.3504 -0.1420
13436SOL     OW58299   9.522   1.668  10.539 -0.4018  0.1777 -0.4476
13436SOL    HW158300   9.616   1.678  10.553 -0.4712 -0.7258  0.8325
13436SOL    HW258301   9.515   1.628  10.452  0.4479 -0.5000 -0.2191
13437SOL     OW58302   5.337   2.868  11.593 -0.5468  0.0932 -0.1336
13437SOL    HW158303   5.364   2.790  11.545  0.0799  0.2835 -0.1014
13437SOL    HW258304   5.247   2.849  11.622 -0.8152 -0.1577 -1.0956
13438SOL     OW58305   3.424   4.725  13.971 -0.1035  0.1909 -0.0784
13438SOL    HW158306   3.398   4.771  14.051  0.9873  0.4125  0.1701
13438SOL    HW258307   3.353   4.741  13.909 -0.2334  1.3361  0.3471
13439SOL     OW58308   5.038   1.245   9.463 -0.3342 -0.1289  0.3244
13439SOL    HW158309   5.054   1.268   9.554  2.5534  0.8226 -0.2981
13439SOL    HW258310   5.121   1.205   9.434 -1.4267 -1.0692 -1.6923
13440SOL     OW58311   9.656   5.640   1.515 -0.0151 -0.5867  0.4379
13440SOL    HW158312   9.690   5.631   1.426 -1.5887 -0.4037 -0.2293
13440SOL    HW258313   9.691   5.565   1.562  0.8439 -0.6885 -0.3384
13441SOL     OW58314   3.319   9.384  12.720  0.3427 -0.3324  0.2044
13441SOL    HW158315   3.316   9.477  12.696 -1.2494 -0.6041 -0.8361
13441SOL    HW258316   3.238   9.348  12.684  1.1981 -2.2564  0.0742
13442SOL     OW58317   4.639  10.536   9.219  0.1446  0.6742 -0.4494
13442SOL    HW158318   4.692  10.563   9.294 -1.0227 -0.3755  0.8057
13442SOL    HW258319   4.690  10.563   9.142  0.7453  2.9742  0.6927
13443SOL     OW58320   3.285  10.132   6.007  0.5071 -0.2246 -0.4656
13443SOL    HW158321   3.334  10.208   6.036 -0.0475  0.0209 -0.1475
13443SOL    HW258322   3.197  10.166   5.990  0.8429 -0.3043 -2.6330
13444SOL     OW58323   4.932   4.683   6.226 -0.7552  0.3001 -0.0868
13444SOL    HW158324   4.911   4.598   6.264  0.7485 -0.4308 -0.8238
13444SOL    HW258325   4.848   4.715   6.191 -0.9508 -1.9052 -1.8078
13445SOL     OW58326   9.434   9.698   6.754  0.1847 -0.4427  0.1574
13445SOL    HW158327   9.381   9.752   6.696  3.4458  2.0771 -0.7952
13445SOL    HW258328   9.447   9.753   6.832 -0.2504 -1.8593  1.2763
13446SOL     OW58329   7.793   9.319   9.676  0.3455 -0.2249  0.5887
13446SOL    HW158330   7.768   9.270   9.598 -1.3461  1.4009  0.0579
13446SOL    HW258331   7.832   9.253   9.734 -1.6391 -2.1578 -0.1712
13447SOL     OW58332   1.982   1.531  11.583 -0.7685 -0.1911  0.0764
13447SOL    HW158333   2.056   1.590  11.567 -0.4137 -0.6507 -0.0104
13447SOL    HW258334   1.985   1.468  11.510 -0.9641 -0.4884  0.3213
13448SOL     OW58335   0.849   4.388   4.215 -0.2715  0.2609  0.0184
13448SOL    HW158336   0.807   4.304   4.198  1.1818 -0.5568  0.3168
13448SOL    HW258337   0.777   4.445   4.243 -1.1755 -1.0788  0.5585
13449SOL     OW58338   4.881  13.371  10.452 -0.4935 -0.2179 -0.2640
13449SOL    HW158339   4.890  13.276  10.463 -0.1836 -0.3282 -1.3359
13449SOL    HW258340   4.906  13.408  10.537 -0.6476 -1.0973  0.1690
13450SOL     OW58341   8.443   1.690  12.822 -0.2318 -0.5423 -0.5340
13450SOL    HW158342   8.473   1.725  12.738  0.0003 -1.2937 -0.7725
13450SOL    HW258343   8.493   1.610  12.834 -1.1398 -1.0788 -0.2527
13451SOL     OW58344   7.409  10.621   0.955 -0.3866 -0.0937  0.0624
13451SOL    HW158345   7.324  10.579   0.966 -0.1475 -0.7154 -0.4070
13451SOL    HW258346   7.389  10.704   0.911 -0.8770  0.3736  1.1435
13452SOL     OW58347   1.846   1.412   8.527  0.3103  0.3306 -0.5222
13452SOL    HW158348   1.841   1.347   8.597 -0.3599  0.3417 -0.5556
13452SOL    HW258349   1.936   1.443   8.530  0.3995  0.0276  0.0635
13453SOL     OW58350  12.643  11.810  10.262  0.5198  0.2493  0.0057
13453SOL    HW158351  12.735  11.822  10.238  0.3604  1.6948  0.0206
13453SOL    HW258352  12.600  11.788  10.179  0.8803 -0.5331  0.0170
13454SOL     OW58353  13.167   5.241   4.512 -0.0361 -0.1243  0.6232
13454SOL    HW158354  13.104   5.312   4.527 -0.4219 -0.6449  1.5569
13454SOL    HW258355  13.199   5.219   4.600  1.8587  0.4783  0.1322
13455SOL     OW58356   6.833   1.227   7.868 -0.4213  0.3616 -0.5859
13455SOL    HW158357   6.908   1.261   7.917 -0.6519 -0.4881  0.4009
13455SOL    HW258358   6.774   1.302   7.859  0.2474  0.8748 -0.8133
13456SOL     OW58359  10.434   7.797   2.457 -0.6130 -0.2502 -0.0476
13456SOL    HW158360  10.349   7.761   2.430  0.4065 -2.6312 -0.2991
13456SOL    HW258361  10.499   7.738   2.419  1.1590  0.9905  0.8957
13457SOL     OW58362  11.640  12.824   1.411 -0.2911  0.5402 -0.4309
13457SOL    HW158363  11.645  12.820   1.507 -0.3480 -0.9092 -0.4637
13457SOL    HW258364  11.591  12.746   1.387 -0.6593  1.1232 -1.6344
13458SOL     OW58365  10.145  12.572  12.862  0.0333 -0.0770 -0.4850
13458SOL    HW158366  10.240  12.568  12.877 -0.0829  0.0811  0.3481
13458SOL    HW258367  10.122  12.663  12.882 -0.7565 -0.8072  2.4130
13459SOL     OW58368   1.718   5.801   8.354  0.3002 -0.3166 -0.8863
13459SOL    HW158369   1.636   5.770   8.316  1.1338 -1.4693 -1.7900
13459SOL    HW258370   1.777   5.812   8.280  1.8554 -2.2842 -0.0427
13460SOL     OW58371   5.765   7.312   2.924  0.4880  0.3497 -0.0903
13460SOL    HW158372   5.712   7.325   3.002 -0.9284 -0.0335 -0.9405
13460SOL    HW258373   5.855   7.321   2.954 -0.0541  2.4270  1.1690
13461SOL     OW58374   3.978  13.203   8.452 -0.1510 -0.0299 -0.1620
13461SOL    HW158375   4.071  13.207   8.429 -0.2647  2.3617 -0.4507
13461SOL    HW258376   3.969  13.263   8.526 -1.7255  1.0607 -1.1809
13462SOL     OW58377   3.019  11.340  12.536 -0.3048  0.5207 -0.3812
13462SOL    HW158378   3.081  11.325  12.465  0.9123  1.2599  0.4796
13462SOL    HW258379   3.073  11.341  12.615 -1.7324 -1.4663  0.7436
13463SOL     OW58380   9.290  10.607   7.758 -0.4415 -0.3580 -0.0523
13463SOL    HW158381   9.359  10.543   7.741 -0.9562 -0.8389 -0.3699
13463SOL    HW258382   9.218  10.556   7.795 -0.8654  0.0318 -0.3180
13464SOL     OW58383   2.567   7.566   8.760  0.2991  0.0595 -1.0851
13464SOL    HW158384   2.496   7.503   8.749 -1.0791  1.1745  0.7470
13464SOL    HW258385   2.597   7.585   8.672 -2.8237  0.7679 -2.1135
13465SOL     OW58386   8.643  13.824   0.616  0.1701 -0.0588 -0.0220
13465SOL    HW158387   8.723  13.875   0.631  0.4063 -0.3211 -0.3812
13465SOL    HW258388   8.575  13.875   0.659  0.4856  0.3133  0.0508
13466SOL     OW58389   7.467   6.920  11.553  0.4848 -0.1152  0.9578
13466SOL    HW158390   7.382   6.927  11.597  0.0240  1.0076 -0.0739
13466SOL    HW258391   7.463   6.837  11.505 -1.7034  1.7026 -2.3842
13467SOL     OW58392  14.096   9.520   7.240  0.4358 -0.1643 -0.5180
13467SOL    HW158393  14.048   9.460   7.183  0.2065  0.7628 -1.3422
13467SOL    HW258394  14.166   9.555   7.185  1.9685 -1.3308  0.6090
13468SOL     OW58395  10.696   5.101   7.826  0.2125  0.2803 -0.4514
13468SOL    HW158396  10.635   5.029   7.841  1.1213 -0.3864  0.1894
13468SOL    HW258397  10.643   5.171   7.788 -0.8888 -0.3575 -0.1185
13469SOL     OW58398   1.567   4.512   9.124 -0.1629 -0.0470  0.3834
13469SOL    HW158399   1.490   4.558   9.156  1.0331  0.9624  1.9552
13469SOL    HW258400   1.536   4.423   9.105 -1.6361  0.2484  1.2845
13470SOL     OW58401   3.450   6.568   5.077 -0.0364  0.0948  0.0844
13470SOL    HW158402   3.442   6.590   5.170  0.6597  1.2451 -0.1142
13470SOL    HW258403   3.377   6.509   5.060 -0.3063  0.0574  1.3087
13471SOL     OW58404   0.437   2.079   2.293  0.4183 -0.1747  0.2128
13471SOL    HW158405   0.455   2.065   2.386 -0.2509 -0.2413  0.3424
13471SOL    HW258406   0.387   2.161   2.291  1.8104  0.6803 -0.2536
13472SOL     OW58407  11.657  12.040   6.504  0.3036  0.2695  0.1503
13472SOL    HW158408  11.656  11.987   6.424  1.7481  1.9737 -1.1037
13472SOL    HW258409  11.576  12.091   6.501  0.2005  0.0933 -0.0606
13473SOL     OW58410   0.976   8.101  10.235  0.5774 -0.1099  0.5005
13473SOL    HW158411   0.980   8.197  10.239  1.2341 -0.1678  1.5014
13473SOL    HW258412   0.920   8.076  10.308  0.0513 -0.4797 -0.0224
13474SOL     OW58413  13.935   6.453   3.690  0.0894  0.4368  0.7223
13474SOL    HW158414  13.913   6.504   3.612  1.8266  0.2631  0.0796
13474SOL    HW258415  13.859   6.398   3.705 -0.7015  1.2304 -0.2120
13475SOL     OW58416  11.024   3.245   0.162  0.4386  0.6435  0.0913
13475SOL    HW158417  11.102   3.210   0.119 -0.0426  0.2246 -0.4641
13475SOL    HW258418  11.039   3.232   0.255  0.1418 -1.3445 -0.1088
13476SOL     OW58419   3.091   4.591   6.981  0.0968  0.4599 -0.3579
13476SOL    HW158420   3.025   4.523   6.995 -0.2896  1.1129  1.2043
13476SOL    HW258421   3.046   4.673   7.001  1.3304  0.9285  0.6580
13477SOL     OW58422   8.182   0.169  13.220  0.1914 -0.8521  0.2959
13477SOL    HW158423   8.221   0.256  13.210  1.5994 -1.4360  0.5412
13477SOL    HW258424   8.105   0.184  13.275 -0.5502  0.4737 -1.0142
13478SOL     OW58425  11.814   3.555   6.201  0.4822 -0.1684  0.7654
13478SOL    HW158426  11.810   3.480   6.260 -0.8147 -0.6323  0.1231
13478SOL    HW258427  11.883   3.534   6.139 -1.2534 -1.8592 -0.7094
13479SOL     OW58428   8.801   6.076  10.751 -0.1113  0.2424 -0.6617
13479SOL    HW158429   8.742   6.138  10.794  0.1291  1.0272 -1.4218
13479SOL    HW258430   8.784   6.087  10.658 -0.9266 -1.7436 -0.7944
13480SOL     OW58431  10.894   5.194   4.571  0.2660  0.5462 -0.6271
13480SOL    HW158432  10.856   5.137   4.505 -1.4589 -0.0297  0.8070
13480SOL    HW258433  10.823   5.253   4.596  0.7484  0.4889  0.9896
13481SOL     OW58434   6.603  11.975  10.312  0.0118  0.3143  0.4748
13481SOL    HW158435   6.565  11.934  10.390  1.7223  0.2792  1.3317
13481SOL    HW258436   6.529  11.986  10.252 -0.8478 -2.2662  0.9654
13482SOL     OW58437   1.557   2.249   3.284  0.4510 -0.2499  0.6273
13482SOL    HW158438   1.590   2.194   3.213 -0.3316 -0.5361  0.4833
13482SOL    HW258439   1.462   2.243   3.278  0.2237  2.9633 -0.8739
13483SOL     OW58440  13.598  11.987   0.624 -0.3722  0.3037  0.2895
13483SOL    HW158441  13.504  12.003   0.627 -0.3874  0.2592  0.0764
13483SOL    HW258442  13.609  11.900   0.662 -0.3063  0.7440  1.3063
13484SOL     OW58443  13.958  12.847  12.331 -0.3988  0.1529  0.3876
13484SOL    HW158444  13.903  12.924  12.316 -1.3750 -0.5979  0.0858
13484SOL    HW258445  14.005  12.835  12.249 -1.3201 -0.4179 -0.0709
13485SOL     OW58446   2.696  13.356   1.304  0.5004  0.1303 -0.2419
13485SOL    HW158447   2.761  13.421   1.331 -0.7819  1.6560 -0.7195
13485SOL    HW258448   2.621  13.370   1.362  0.9531 -2.4260  1.1474
13486SOL     OW58449  12.591  10.378  12.659 -0.2833  0.2292 -0.4020
13486SOL    HW158450  12.556  10.411  12.742 -1.1532  1.9747 -1.4241
13486SOL    HW258451  12.683  10.357  12.679 -0.5719  0.2679  1.0724
13487SOL     OW58452   2.592  10.927  10.967 -0.4981 -0.2063 -0.3946
13487SOL    HW158453   2.564  10.878  10.889 -1.2007 -0.2310 -0.1384
13487SOL    HW258454   2.662  10.874  11.005 -1.0640 -0.8850 -0.2753
13488SOL     OW58455   3.351  12.736   2.544 -0.3149  0.2809  0.3645
13488SOL    HW158456   3.342  12.662   2.604 -1.0053  0.1942  0.1678
13488SOL    HW258457   3.308  12.809   2.589 -1.5984  0.0084 -0.3548
13489SOL     OW58458  11.306  10.494   0.177 -0.0106  0.1124  0.0463
13489SOL    HW158459  11.339  10.473   0.265 -0.8596 -0.1047  0.3199
13489SOL    HW258460  11.257  10.416   0.151  1.0809 -0.2361 -1.0551
13490SOL     OW58461   5.685   8.003   5.487 -0.0241  0.6709  0.0696
13490SOL    HW158462   5.604   8.055   5.487 -1.0217 -0.8224  0.4537
13490SOL    HW258463   5.708   7.996   5.394 -0.8603  0.3724 -0.1315
13491SOL     OW58464  11.262  10.166   4.354 -0.1958 -0.3408 -0.2852
13491SOL    HW158465  11.258  10.143   4.262 -0.0144 -1.4049 -0.0355
13491SOL    HW258466  11.294  10.256   4.355 -1.2643  0.0675 -1.2969
13492SOL     OW58467  10.483   0.725   5.587 -0.3380  0.2206  0.1172
13492SOL    HW158468  10.525   0.705   5.671  0.3996 -2.0457 -0.7034
13492SOL    HW258469  10.393   0.695   5.598 -0.2745  0.0378  0.1466
13493SOL     OW58470   2.585   6.523  13.914 -0.7185 -0.2402  0.2343
13493SOL    HW158471   2.518   6.562  13.970  0.1694 -0.6196  1.6298
13493SOL    HW258472   2.541   6.454  13.866 -1.2752 -0.6568  1.3253
13494SOL     OW58473   3.983  12.077   3.362  0.0026  0.0672 -0.3499
13494SOL    HW158474   4.057  12.137   3.352 -0.3833  0.4862 -0.7356
13494SOL    HW258475   3.915  12.130   3.406 -0.3085 -0.1053 -0.6190
13495SOL     OW58476   5.557  12.307   0.537  0.3483 -0.2582 -0.0297
13495SOL    HW158477   5.631  12.366   0.518  0.4019 -0.9149 -2.0574
13495SOL    HW258478   5.598  12.222   0.551  0.0965 -0.2656  0.6878
13496SOL     OW58479   6.568   9.217   6.310  0.5600 -0.0203  0.0902
13496SOL    HW158480   6.635   9.176   6.256  0.9090 -0.0295  0.5273
13496SOL    HW258481   6.613   9.242   6.390  0.3831  1.3362 -0.2047
13497SOL     OW58482   2.944   8.538  13.949 -0.2971  0.0407 -0.0776
13497SOL    HW158483   2.881   8.551  14.020 -0.2332  3.0301 -0.4467
13497SOL    HW258484   3.018   8.595  13.972  0.7863 -0.7816 -1.3777
13498SOL     OW58485   0.702  11.138  12.185 -0.4350  0.1451 -0.2130
13498SOL    HW158486   0.677  11.047  12.174 -3.0298  0.9504 -1.7801
13498SOL    HW258487   0.777  11.150  12.126  1.5183 -1.4417  1.7791
13499SOL     OW58488   1.469   2.909  11.046 -0.5138  0.0611  0.0181
13499SOL    HW158489   1.506   2.995  11.026 -1.4363  0.2992 -0.7383
13499SOL    HW258490   1.543   2.848  11.040 -0.0649  0.6484 -0.5248
13500SOL     OW58491   7.469   5.883  12.679  0.4983 -0.1592  0.1538
13500SOL    HW158492   7.461   5.967  12.725  0.1655 -1.4863  2.7181
13500SOL    HW258493   7.532   5.900  12.609  2.6216  1.5759  2.3023
13501SOL     OW58494   0.133  14.046  11.260 -0.5690  0.2464 -0.5880
13501SOL    HW158495   0.116  14.139  11.270 -0.3850  0.2261 -0.1009
13501SOL    HW258496   0.049  14.004  11.282  0.2213  0.0985  2.5620
13502SOL     OW58497  12.385   8.943   6.077 -0.2681 -0.2946 -0.2649
13502SOL    HW158498  12.389   9.019   6.135 -0.3940  0.1971 -0.8902
13502SOL    HW258499  12.431   8.971   5.997 -0.3617 -0.8530 -0.5219
13503SOL     OW58500  11.031  12.377   0.405  0.2910 -0.0848  0.2274
13503SOL    HW158501  11.118  12.407   0.376 -0.3544  0.8764 -0.8068
13503SOL    HW258502  11.042  12.283   0.420  1.7364  0.1762  1.0255
13504SOL     OW58503  11.724  11.217  11.056  0.5694 -0.2060  0.2818
13504SOL    HW158504  11.746  11.184  11.143 -1.1842  0.8246  1.1752
13504SOL    HW258505  11.647  11.167  11.030  0.4260  0.2529 -0.1940
13505SOL     OW58506  13.343  13.254   4.842  0.7022  0.0982  0.2514
13505SOL    HW158507  13.335  13.317   4.913  0.4589  0.9436 -0.5110
13505SOL    HW258508  13.356  13.307   4.764 -1.9063 -0.6787 -0.7912
13506SOL     OW58509   0.500   2.956   6.311  0.0721  0.3292 -0.1464
13506SOL    HW158510   0.595   2.970   6.314  0.0666  0.2993  0.2309
13506SOL    HW258511   0.489   2.862   6.322 -0.0418  0.4488  0.8593
13507SOL     OW58512   8.417   4.177   2.161  0.1608 -0.5913 -0.1324
13507SOL    HW158513   8.419   4.114   2.233 -0.9830  0.1601  0.5997
13507SOL    HW258514   8.488   4.149   2.103  1.9439 -0.5391  1.8576
13508SOL     OW58515   7.558   8.111   3.989 -0.2098  0.5572  0.0596
13508SOL    HW158516   7.636   8.098   4.043 -1.2016 -0.9603  1.2028
13508SOL    HW258517   7.569   8.050   3.916 -0.3636  0.2374  0.2972
13509SOL     OW58518   6.472  13.921   5.900  0.0270  0.1337  0.4665
13509SOL    HW158519   6.394  13.974   5.914  1.1511  2.0262 -0.1242
13509SOL    HW258520   6.526  13.938   5.977 -0.0483 -1.0174  0.7849
13510SOL     OW58521  12.827   6.817   8.083 -0.0891 -0.4859  0.3185
13510SOL    HW158522  12.765   6.832   8.154  0.3960  0.5881  0.5283
13510SOL    HW258523  12.819   6.895   8.028 -1.0331 -1.6204 -1.2686
13511SOL     OW58524   8.013   3.450   5.197 -0.6951 -0.0831  0.1132
13511SOL    HW158525   7.944   3.392   5.164 -1.4818  0.0049  1.5137
13511SOL    HW258526   8.094   3.408   5.170 -1.2882 -0.3406 -1.3299
13512SOL     OW58527   1.050   3.391   1.112 -0.1079  0.0307 -0.4026
13512SOL    HW158528   1.001   3.424   1.037  1.2715 -0.1213 -1.4179
13512SOL    HW258529   0.988   3.393   1.185 -1.8105 -0.8401 -1.7770
13513SOL     OW58530  11.858   0.731  12.809 -0.1847 -0.2741  0.3389
13513SOL    HW158531  11.861   0.642  12.773  2.7104  0.3714 -1.4133
13513SOL    HW258532  11.882   0.721  12.901 -0.2890 -1.3545  0.2607
13514SOL     OW58533  10.285   2.483   7.206  0.0680  0.1694 -0.0395
13514SOL    HW158534  10.226   2.559   7.204 -0.0648  0.0681  0.0314
13514SOL    HW258535  10.373   2.521   7.198  0.2404  0.6179  2.7077
13515SOL     OW58536   2.795   0.330   0.121 -0.3016  0.0051  0.6106
13515SOL    HW158537   2.810   0.240   0.152  0.0472 -0.2333 -0.2044
13515SOL    HW258538   2.715   0.324   0.070 -0.5509  0.2672  0.9688
13516SOL     OW58539   7.947  11.523   7.964  0.2698  0.1598  0.7598
13516SOL    HW158540   8.003  11.491   8.035 -0.5343  1.8092  2.2478
13516SOL    HW258541   8.000  11.590   7.921  0.4559 -0.2658  0.3186
13517SOL     OW58542  11.744   9.792   4.886  0.7302 -0.4106 -0.2914
13517SOL    HW158543  11.699   9.757   4.963  0.5019 -0.1441 -0.3007
13517SOL    HW258544  11.832   9.754   4.890 -0.1706 -2.7848 -1.5301
13518SOL     OW58545  11.380   6.219   1.785 -0.3174  0.1601 -0.0253
13518SOL    HW158546  11.448   6.215   1.851  0.3344  0.7523 -0.6404
13518SOL    HW258547  11.342   6.131   1.784  0.0600 -0.0180  0.7109
13519SOL     OW58548   1.171   3.396   5.433  0.2151 -0.6995 -0.2062
13519SOL    HW158549   1.142   3.460   5.367 -1.5138 -0.0958  1.0485
13519SOL    HW258550   1.236   3.342   5.388 -0.7808 -0.2162 -2.3512
13520SOL     OW58551   1.410  11.443   0.399  0.0284  0.0288 -0.4410
13520SOL    HW158552   1.395  11.494   0.479 -0.2027  0.5008 -0.7808
13520SOL    HW258553   1.497  11.405   0.411 -0.4898 -0.9072  0.5683
13521SOL     OW58554   8.515   4.388   5.219  0.5944 -0.1142  0.0264
13521SOL    HW158555   8.471   4.466   5.186 -0.4925 -0.0255  1.5449
13521SOL    HW258556   8.479   4.377   5.308  2.2988 -1.1246  0.6273
13522SOL     OW58557   2.856   5.987   5.823 -0.0764 -0.1725  0.5922
13522SOL    HW158558   2.919   6.043   5.777  0.7761 -0.3798  1.4815
13522SOL    HW258559   2.773   6.034   5.817 -0.0260 -0.2222 -1.2169
13523SOL     OW58560  13.090  11.870   0.443 -0.3942  0.1282 -0.7633
13523SOL    HW158561  13.168  11.906   0.486 -0.5431 -0.9825  0.4800
13523SOL    HW258562  13.124  11.797   0.390 -0.5192 -0.0023 -0.6637
13524SOL     OW58563   1.240   7.362   9.796  0.0627 -0.1897  0.0826
13524SOL    HW158564   1.225   7.455   9.778 -0.0074 -0.2904 -0.4089
13524SOL    HW258565   1.174   7.317   9.743  0.8213 -0.5565 -0.5763
13525SOL     OW58566   1.167   7.778   9.435  0.1356 -0.2490  0.3654
13525SOL    HW158567   1.077   7.766   9.406  0.1660 -3.6165  1.2568
13525SOL    HW258568   1.220   7.729   9.372  1.2168  0.5549  0.6147
13526SOL     OW58569   3.268   9.830   7.142  0.0965 -0.2109  0.0360
13526SOL    HW158570   3.350   9.854   7.098 -0.3240  3.5931  0.9658
13526SOL    HW258571   3.199   9.861   7.083 -0.5212  1.3056  1.4630
13527SOL     OW58572  10.096   6.821  10.340 -0.3432  0.3270  0.2716
13527SOL    HW158573  10.140   6.779  10.413  2.7598  1.6925 -0.6637
13527SOL    HW258574  10.063   6.749  10.287 -0.6918 -0.7059  1.8237
13528SOL     OW58575   4.312   1.353  10.976  0.7809  0.2609  0.5133
13528SOL    HW158576   4.277   1.396  10.898  2.6373  1.8936  0.5026
13528SOL    HW258577   4.235   1.335  11.030 -0.6713 -1.7692 -2.0279
13529SOL     OW58578  13.198   5.721   5.179  0.3298  0.6994  0.1743
13529SOL    HW158579  13.163   5.775   5.108  0.1537  0.3580  0.0005
13529SOL    HW258580  13.282   5.762   5.201  0.2320  1.0002 -0.0028
13530SOL     OW58581   7.921   4.173   1.398 -0.5349 -0.7329  0.0761
13530SOL    HW158582   7.841   4.206   1.356 -0.9687  2.4125  2.9481
13530SOL    HW258583   7.893   4.150   1.487  1.5987 -0.1535  0.9484
13531SOL     OW58584   3.800   8.623   2.287  0.3399 -0.5115 -0.2596
13531SOL    HW158585   3.814   8.654   2.197 -2.6952  0.5319 -0.5028
13531SOL    HW258586   3.887   8.624   2.327  1.6581 -0.1442 -2.8991
13532SOL     OW58587   7.465  12.360   2.493 -0.5248 -0.2574  0.1075
13532SOL    HW158588   7.456  12.442   2.445  1.7985 -1.0317 -1.8701
13532SOL    HW258589   7.396  12.364   2.560 -1.3538  2.6651 -0.7419
13533SOL     OW58590  12.319   1.141   7.785  0.0415  0.1792 -0.2023
13533SOL    HW158591  12.313   1.049   7.758 -2.8146  0.0178  0.5858
13533SOL    HW258592  12.272   1.189   7.716  0.6866  0.9378 -0.1321
13534SOL     OW58593  13.157   9.357   3.065 -0.3299  0.1153  0.0329
13534SOL    HW158594  13.204   9.372   3.147 -0.5080  2.4624 -0.2359
13534SOL    HW258595  13.155   9.262   3.056  1.4338 -0.1426  1.7249
13535SOL     OW58596  13.846   1.065   5.190 -0.7363 -0.1720 -0.3300
13535SOL    HW158597  13.773   1.116   5.156 -2.3765  0.4024  3.4593
13535SOL    HW258598  13.812   0.975   5.196 -0.4586 -0.2785 -0.3323
13536SOL     OW58599  13.955   4.841   5.076 -0.3166  0.0644 -0.1146
13536SOL    HW158600  14.049   4.845   5.094 -0.3662 -0.4675  0.2714
13536SOL    HW258601  13.915   4.886   5.151 -0.3407  0.8901 -0.6097
13537SOL     OW58602   0.754  13.432  10.729 -0.6845  0.4849  0.8397
13537SOL    HW158603   0.814  13.369  10.690 -0.1826  1.5614 -0.2205
13537SOL    HW258604   0.667  13.407  10.696 -0.7925 -0.8516  2.0775
13538SOL     OW58605  10.246   0.649   1.148  0.5355  0.1697 -0.1398
13538SOL    HW158606  10.275   0.692   1.229 -1.1410  0.6703  0.2489
13538SOL    HW258607  10.252   0.556   1.167  2.4553  0.2158 -0.3278
13539SOL     OW58608  11.009   2.401   3.178  0.3888  0.9623 -0.1112
13539SOL    HW158609  10.975   2.480   3.220 -0.5458  0.0654  0.8963
13539SOL    HW258610  10.962   2.330   3.221  2.5214 -0.2709  0.3157
13540SOL     OW58611   8.783  13.219   6.388 -0.2064  0.1973  0.3995
13540SOL    HW158612   8.710  13.265   6.429  1.0840  0.2685  2.8271
13540SOL    HW258613   8.743  13.143   6.346 -1.6460 -0.2236  2.3609
13541SOL     OW58614  13.135  11.194  13.899  0.2040 -0.1837 -0.0715
13541SOL    HW158615  13.134  11.176  13.805  1.1858  0.5967 -0.2498
13541SOL    HW258616  13.222  11.229  13.916  0.2866 -0.9621  1.2673
13542SOL     OW58617   8.574  10.075  10.610  0.1176 -0.2897  0.1320
13542SOL    HW158618   8.644  10.105  10.668  0.7344 -1.5032  0.0686
13542SOL    HW258619   8.495  10.116  10.643  0.8500  1.1261  0.2116
13543SOL     OW58620   1.883  12.025   8.957 -0.4436 -0.0644 -0.3950
13543SOL    HW158621   1.865  11.940   8.998  1.2853 -0.0940  0.3649
13543SOL    HW258622   1.925  12.077   9.025 -0.5247  1.0553 -1.1598
13544SOL     OW58623  13.348  11.681  10.711 -0.1252  0.1561 -0.0969
13544SOL    HW158624  13.431  11.644  10.682 -0.4091  0.3023 -1.1296
13544SOL    HW258625  13.284  11.648  10.648 -0.6247  1.1172 -0.1068
13545SOL     OW58626   9.607   7.371  11.146  0.0279  0.3993 -0.1328
13545SOL    HW158627   9.656   7.443  11.105  0.1205  0.2586 -0.2675
13545SOL    HW258628   9.537   7.351  11.084 -0.1006  0.4858 -0.0163
13546SOL     OW58629   0.990   3.877   9.080  0.1406  0.5697  0.0249
13546SOL    HW158630   0.941   3.795   9.079 -0.4620  0.9258 -0.8983
13546SOL    HW258631   1.017   3.888   9.171 -1.0409  0.0838  0.4521
13547SOL     OW58632   9.483  10.891   4.040 -0.3751 -0.5396  0.4900
13547SOL    HW158633   9.446  10.963   3.990  0.5555  0.1716  0.8038
13547SOL    HW258634   9.551  10.854   3.983 -1.0983 -1.4226  0.1771
13548SOL     OW58635  11.419  11.911   1.677 -0.2817  0.0849  0.5348
13548SOL    HW158636  11.435  11.910   1.582  1.9503  1.0896  0.8425
13548SOL    HW258637  11.365  11.988   1.691 -0.4724  0.0347  0.1174
13549SOL     OW58638   9.443   9.842  13.923 -0.8081 -0.3200 -0.0365
13549SOL    HW158639   9.532   9.806  13.917 -1.0979 -0.9424 -0.6717
13549SOL    HW258640   9.433   9.865  14.015  0.6566  1.4453 -0.2703
13550SOL     OW58641   9.610   5.793  11.112  0.9044  0.2321 -0.1257
13550SOL    HW158642   9.694   5.753  11.132  0.7408  0.0744  0.2651
13550SOL    HW258643   9.613   5.879  11.153  0.9108  0.2635 -0.1921
13551SOL     OW58644   4.837   0.996   1.831  0.1859  0.3387 -0.1946
13551SOL    HW158645   4.776   1.018   1.760 -0.2448  0.0486  0.0801
13551SOL    HW258646   4.921   0.984   1.788  0.1081  1.0162 -0.5450
13552SOL     OW58647  10.566  13.171   8.988  0.1291  0.1697  0.0034
13552SOL    HW158648  10.584  13.214   9.072 -0.9846  1.7779 -0.5211
13552SOL    HW258649  10.641  13.114   8.973  1.3696  1.4375  1.0884
13553SOL     OW58650   8.004   5.205   7.127  0.0491 -0.0265 -0.1783
13553SOL    HW158651   7.960   5.128   7.090 -0.2572 -0.4526  1.0015
13553SOL    HW258652   8.016   5.182   7.220  2.8820  0.0242 -0.4631
13554SOL     OW58653   3.143  12.555   1.093  0.2087  0.1010  0.5807
13554SOL    HW158654   3.202  12.504   1.037 -0.4023 -1.3095  1.1643
13554SOL    HW258655   3.057  12.546   1.051  0.5411  3.3083 -1.0565
13555SOL     OW58656   3.558   2.596  10.330  0.5942 -0.5090  0.1534
13555SOL    HW158657   3.515   2.514  10.351 -0.0059 -0.1272  0.4489
13555SOL    HW258658   3.495   2.664  10.355  0.3153 -0.0019 -1.7791
13556SOL     OW58659   5.413   3.490   9.225 -0.0734 -0.4689  0.0634
13556SOL    HW158660   5.358   3.447   9.290 -0.4391 -1.3187 -0.7745
13556SOL    HW258661   5.375   3.465   9.141  0.7362  0.1128 -0.4985
13557SOL     OW58662   3.714   0.465   0.764  0.0376 -0.1357 -0.2377
13557SOL    HW158663   3.787   0.445   0.705 -0.4750 -1.2067 -0.5546
13557SOL    HW258664   3.753   0.463   0.851  0.9078  1.9523 -0.5308
13558SOL     OW58665   4.495   9.697  11.716  0.1821 -0.4149 -0.1102
13558SOL    HW158666   4.572   9.649  11.685  0.2883 -0.2437 -0.1103
13558SOL    HW258667   4.506   9.786  11.682  1.3307  0.3500  2.0610
13559SOL     OW58668  11.965   2.185  13.707  0.0029 -0.1816 -0.5224
13559SOL    HW158669  11.969   2.272  13.667 -1.1252  0.2349  0.2384
13559SOL    HW258670  11.872   2.166  13.716  0.2018 -0.3390  1.7032
13560SOL     OW58671   4.246   6.071   1.589  0.0293 -0.6216  0.1560
13560SOL    HW158672   4.316   6.020   1.629 -0.4757 -2.5793 -1.2921
13560SOL    HW258673   4.280   6.093   1.502 -0.1563  0.6924  0.4016
13561SOL     OW58674  12.190   0.151   8.645  0.5104 -0.0375 -0.0529
13561SOL    HW158675  12.126   0.081   8.657  2.0893 -1.4886  0.3083
13561SOL    HW258676  12.232   0.131   8.561  0.6399  0.7792 -0.1937
13562SOL     OW58677   2.012   0.136  12.952  0.2951  0.3820 -0.2459
13562SOL    HW158678   1.982   0.109  13.039  1.6989 -1.2006 -0.2056
13562SOL    HW258679   1.932   0.155  12.904 -0.7563 -2.1223  0.3532
13563SOL     OW58680   6.281   6.667   3.086 -0.0397  0.1796  0.5339
13563SOL    HW158681   6.335   6.656   3.165  1.6219 -0.5894 -0.6501
13563SOL    HW258682   6.339   6.644   3.014 -2.3484 -2.0869 -0.7715
13564SOL     OW58683   1.977   3.248  12.099 -0.2051  0.0405  0.7387
13564SOL    HW158684   2.021   3.324  12.061  1.0024 -0.3254  1.3656
13564SOL    HW258685   1.990   3.179  12.034  1.2445 -0.3930  1.4434
13565SOL     OW58686   0.432   2.097  11.393  0.0445 -0.4364  0.5166
13565SOL    HW158687   0.413   2.174  11.446 -1.4035  0.3895 -1.0990
13565SOL    HW258688   0.353   2.043  11.399 -0.2786 -0.1844 -0.9857
13566SOL     OW58689   0.212  10.157   7.643  0.3480  0.3675 -0.3260
13566SOL    HW158690   0.117  10.150   7.634  0.2215  0.4573  0.8055
13566SOL    HW258691   0.246  10.073   7.612 -0.0250  0.6083 -1.4629
13567SOL     OW58692   1.592   7.329   0.403  0.3467  0.3924 -0.6152
13567SOL    HW158693   1.678   7.292   0.420  0.8326 -0.6187 -4.3310
13567SOL    HW258694   1.574   7.385   0.479  3.7549 -0.1499  0.7734
13568SOL     OW58695   8.385   0.675  10.215 -0.1757  0.5420  0.2605
13568SOL    HW158696   8.373   0.643  10.305 -0.0643  0.3704  0.2142
13568SOL    HW258697   8.334   0.756  10.212 -0.1323  0.5788  0.4953
13569SOL     OW58698   1.239   9.919   0.973 -0.7110 -0.4674 -0.1799
13569SOL    HW158699   1.240   9.844   1.033 -2.9324 -0.1388  0.3310
13569SOL    HW258700   1.217   9.881   0.888  1.9412 -0.8608 -0.7868
13570SOL     OW58701   6.302   2.844   3.784 -0.1743 -0.1287 -0.2934
13570SOL    HW158702   6.259   2.853   3.699  1.5468 -1.4326 -1.3553
13570SOL    HW258703   6.231   2.823   3.845 -1.4711  1.0679 -1.3196
13571SOL     OW58704   3.497   9.604   4.840 -0.1340 -0.8505 -0.3501
13571SOL    HW158705   3.433   9.572   4.903 -0.6967 -0.6612 -0.8143
13571SOL    HW258706   3.490   9.700   4.846  1.3065 -0.7832  0.8016
13572SOL     OW58707   3.693   3.843  12.280  0.1142  0.4081 -0.1328
13572SOL    HW158708   3.746   3.882  12.350 -0.7038 -0.3584  0.9580
13572SOL    HW258709   3.648   3.770  12.323  0.0106 -0.4374 -1.6108
13573SOL     OW58710   6.633   4.025  11.889 -0.2848  1.1559  0.1501
13573SOL    HW158711   6.692   3.987  11.824 -1.1807 -0.3239  0.1521
13573SOL    HW258712   6.689   4.045  11.964  0.1719 -0.6936  0.3507
13574SOL     OW58713   0.627  10.499  10.956  0.2952  0.0221  0.5806
13574SOL    HW158714   0.700  10.453  10.997  0.2485 -0.1052  0.5228
13574SOL    HW258715   0.658  10.589  10.944  1.9256 -0.8326 -3.0146
13575SOL     OW58716   9.021   5.826  10.205 -0.1825  0.0532 -0.1553
13575SOL    HW158717   9.063   5.783  10.281 -1.4060 -1.4412 -0.2714
13575SOL    HW258718   8.933   5.846  10.235 -0.7031 -0.6075 -1.1694
13576SOL     OW58719   2.835   4.813   7.012 -0.4493 -0.5149  0.3330
13576SOL    HW158720   2.790   4.753   7.073 -1.1699  0.2974  0.6308
13576SOL    HW258721   2.772   4.826   6.941 -0.0990 -0.4938  0.0256
13577SOL     OW58722   5.971  10.583   5.086  0.0628  0.3432  0.4590
13577SOL    HW158723   6.059  10.619   5.073  0.2288 -0.3568 -0.4605
13577SOL    HW258724   5.914  10.659   5.086  0.5654  0.7314  0.0028
13578SOL     OW58725  13.754  13.598   2.966  0.2450 -0.4894 -0.0315
13578SOL    HW158726  13.800  13.522   2.932 -0.4300 -1.0679  0.3396
13578SOL    HW258727  13.670  13.565   2.996 -0.1577  0.4456 -0.0920
13579SOL     OW58728   2.535  12.471  13.598 -0.3766 -0.3632  0.5433
13579SOL    HW158729   2.578  12.441  13.677 -1.2447  1.0246  1.6015
13579SOL    HW258730   2.442  12.479  13.622 -0.8746 -1.0987 -0.9855
13580SOL     OW58731   1.486   5.731   6.114 -0.2033  0.5580 -0.0340
13580SOL    HW158732   1.578   5.704   6.118 -0.3652  0.0949  0.7482
13580SOL    HW258733   1.441   5.671   6.173 -1.5954 -1.6038 -3.0333
13581SOL     OW58734  11.155  12.086   6.402 -0.0987  0.2614  0.2855
13581SOL    HW158735  11.235  12.049   6.364 -0.1029 -0.3222  0.8203
13581SOL    HW258736  11.184  12.167   6.445 -0.2166  1.3137 -1.5344
13582SOL     OW58737  10.364   0.945  11.680 -0.2305 -0.1120 -0.6554
13582SOL    HW158738  10.293   1.009  11.677 -0.2063 -0.1341 -1.9692
13582SOL    HW258739  10.343   0.891  11.757 -0.2706  1.4124  0.4575
13583SOL     OW58740  14.102   4.715  11.997  0.0590  0.0462  0.1160
13583SOL    HW158741  14.126   4.626  12.022  0.8183  0.1250 -0.2930
13583SOL    HW258742  14.064   4.706  11.909  1.5204  0.2869 -0.5653
13584SOL     OW58743  12.866   6.348   4.589 -0.7514  0.3189 -0.1425
13584SOL    HW158744  12.835   6.265   4.626 -0.9934  0.7697  0.6894
13584SOL    HW258745  12.791   6.407   4.598 -1.1514  0.1956 -2.2465
13585SOL     OW58746  14.138   1.067   1.912 -0.1878 -0.2171  0.1890
13585SOL    HW158747  14.143   1.070   2.007  1.6313 -2.1163  0.2235
13585SOL    HW258748  14.190   0.990   1.887 -2.1851 -0.9374 -2.2355
13586SOL     OW58749   6.687   2.786  11.947  0.1425 -0.0179 -0.2209
13586SOL    HW158750   6.679   2.701  11.902 -1.0355 -0.2546  0.3654
13586SOL    HW258751   6.765   2.777  12.002  0.3563 -0.5158 -0.5967
13587SOL     OW58752   9.514   6.605   1.369  0.3392 -0.0052 -0.3862
13587SOL    HW158753   9.470   6.527   1.404 -0.7906  0.6249 -0.3570
13587SOL    HW258754   9.459   6.678   1.397  1.0871  0.7638 -0.8844
13588SOL     OW58755   8.511  13.288   3.634  0.2207 -0.0408 -0.8491
13588SOL    HW158756   8.576  13.224   3.663  1.1475  0.8466 -0.8998
13588SOL    HW258757   8.458  13.241   3.569  1.0581 -0.6715 -1.0934
13589SOL     OW58758   3.126   4.124   3.268 -0.4518 -0.5394 -0.1917
13589SOL    HW158759   3.106   4.162   3.354 -0.7215  1.1381 -0.9539
13589SOL    HW258760   3.042   4.092   3.235 -0.5468 -0.2280 -0.2595
13590SOL     OW58761   8.958  13.090  11.760  0.5925 -0.3706  0.1099
13590SOL    HW158762   8.883  13.036  11.784  1.3729 -1.8036 -0.6020
13590SOL    HW258763   9.008  13.100  11.841  0.2532 -0.3914  0.3227
13591SOL     OW58764  12.741   3.909   3.192  0.5106  0.5233  0.6107
13591SOL    HW158765  12.794   3.945   3.121 -1.1968 -0.0070 -1.0003
13591SOL    HW258766  12.675   3.976   3.210 -1.2697 -0.7589 -0.8280
13592SOL     OW58767   7.520  13.245  10.650 -0.0471  0.1216  0.1256
13592SOL    HW158768   7.478  13.313  10.598  0.9092  0.4259 -0.2590
13592SOL    HW258769   7.612  13.271  10.656  0.5787 -1.6457 -0.9271
13593SOL     OW58770   1.655   6.632   0.150  0.1187  0.2522 -0.1481
13593SOL    HW158771   1.679   6.723   0.132  3.0372 -0.3888 -0.0532
13593SOL    HW258772   1.571   6.638   0.195  0.0067  2.8609 -0.5307
13594SOL     OW58773   3.438   1.555   0.928  0.6613  0.4588 -0.7833
13594SOL    HW158774   3.387   1.619   0.878 -0.0071  0.0613 -0.6204
13594SOL    HW258775   3.396   1.552   1.013  1.4814  0.7486 -0.3594
13595SOL     OW58776   2.605  12.184  11.057 -0.4057 -0.7011  0.0873
13595SOL    HW158777   2.681  12.242  11.068 -1.3945  0.7769 -0.5360
13595SOL    HW258778   2.615  12.148  10.969 -0.0965 -1.0473  0.2580
13596SOL     OW58779  12.508   8.989   6.753 -0.2553 -0.4460  0.3859
13596SOL    HW158780  12.498   9.082   6.733  2.2533 -0.5522 -2.0753
13596SOL    HW258781  12.477   8.944   6.674  0.1486 -1.5780  0.8542
13597SOL     OW58782   3.283  11.514   0.757 -0.0414 -0.0941  0.0343
13597SOL    HW158783   3.364  11.504   0.807 -0.2304  0.2990  0.4202
13597SOL    HW258784   3.273  11.430   0.711 -0.0783 -0.6112  0.9631
13598SOL     OW58785   8.877  12.286  11.045 -0.3596  0.6223 -0.2308
13598SOL    HW158786   8.868  12.353  10.977  0.9957  1.1794  0.1025
13598SOL    HW258787   8.960  12.244  11.026 -0.0365  0.6745  0.9715
13599SOL     OW58788   5.439  11.005  12.313 -0.1188  0.1063 -0.0042
13599SOL    HW158789   5.515  10.947  12.326 -1.1056 -1.4717 -0.9655
13599SOL    HW258790   5.407  10.983  12.226 -0.5197  2.1943 -0.4536
13600SOL     OW58791   7.551  11.833   7.377 -0.0767  0.3987  0.2119
13600SOL    HW158792   7.527  11.744   7.404 -0.7541  0.6263  0.3581
13600SOL    HW258793   7.591  11.822   7.291 -1.1424  0.0654 -0.2542
13601SOL     OW58794  12.239   5.484   8.478 -0.0368  0.6273  0.1680
13601SOL    HW158795  12.314   5.544   8.475 -0.3299  0.9901  0.0646
13601SOL    HW258796  12.235   5.446   8.391  1.4170 -1.1224  0.7950
13602SOL     OW58797   0.692  13.207  10.528  0.8997 -0.0364  0.2894
13602SOL    HW158798   0.623  13.251  10.577  1.6175 -1.0125  2.2957
13602SOL    HW258799   0.680  13.236  10.437 -1.8228  0.1689  0.6471
13603SOL     OW58800   0.502   9.317  13.682 -0.7268 -0.0259  0.0688
13603SOL    HW158801   0.431   9.377  13.658 -1.3154 -0.5834  0.3598
13603SOL    HW258802   0.486   9.297  13.774 -0.1610 -0.1196  0.1468
13604SOL     OW58803  11.234  11.179  11.056  0.5048  0.0059  0.5409
13604SOL    HW158804  11.232  11.203  10.963  1.8709 -0.9303  0.2429
13604SOL    HW258805  11.184  11.098  11.061 -0.4040  0.5731  0.8041
13605SOL     OW58806   2.488   1.321   1.656 -0.1182 -0.6818 -0.1867
13605SOL    HW158807   2.528   1.361   1.734 -0.2365  0.0514 -0.4912
13605SOL    HW258808   2.442   1.244   1.689 -0.0800 -0.4377  0.4557
13606SOL     OW58809   3.307  10.678   1.488  0.7731  0.2337 -0.0696
13606SOL    HW158810   3.266  10.654   1.571 -0.7066 -0.2688 -0.9009
13606SOL    HW258811   3.253  10.634   1.421  0.5763  2.3672 -1.4222
13607SOL     OW58812  10.405   0.487   5.393 -0.5823 -0.0275  0.4050
13607SOL    HW158813  10.346   0.498   5.468 -2.5564  0.3395 -1.0904
13607SOL    HW258814  10.452   0.570   5.386 -0.3633 -0.0773  1.2355
13608SOL     OW58815  12.727   8.393   5.632  0.1083 -0.1393  0.0530
13608SOL    HW158816  12.636   8.365   5.617 -0.5537  1.5589  0.5979
13608SOL    HW258817  12.752   8.351   5.714 -0.6228  0.2875  0.5129
13609SOL     OW58818   7.568   0.321   3.156  0.3762  0.3928 -0.6232
13609SOL    HW158819   7.578   0.278   3.071  0.3571 -0.1409 -0.3603
13609SOL    HW258820   7.516   0.260   3.208 -1.0963  1.4704 -0.7692
13610SOL     OW58821  10.887   4.162   9.276 -0.3213  0.4049  0.0004
13610SOL    HW158822  10.895   4.114   9.194 -3.1754  0.3704 -0.3421
13610SOL    HW258823  10.858   4.097   9.340  0.0026  0.8289  0.5973
13611SOL     OW58824   4.749   1.946  13.016  0.3184  0.7970  0.1922
13611SOL    HW158825   4.734   2.035  13.048  0.6060  0.5340  1.0832
13611SOL    HW258826   4.810   1.957  12.942  0.9016  1.2904  0.7292
13612SOL     OW58827   2.669   2.224   4.834 -0.0483 -0.1058  0.0138
13612SOL    HW158828   2.675   2.268   4.749  0.5250 -1.1121 -0.4748
13612SOL    HW258829   2.700   2.135   4.817 -1.0900 -0.6741  1.0114
13613SOL     OW58830  13.803  11.172   3.761 -0.2439  0.3236 -0.1320
13613SOL    HW158831  13.823  11.227   3.836  0.8877  0.4521 -0.4999
13613SOL    HW258832  13.838  11.221   3.686  2.4433 -1.6070 -0.3037
13614SOL     OW58833   6.992   4.680   8.208 -0.1112 -0.2337 -0.3392
13614SOL    HW158834   7.049   4.699   8.133 -0.2528  0.0720 -0.3725
13614SOL    HW258835   6.912   4.729   8.190  0.1266  0.4391  0.3687
13615SOL     OW58836   6.537  10.715   2.426 -0.2881  0.5489  0.0419
13615SOL    HW158837   6.481  10.670   2.489 -0.6337  0.3441 -0.4045
13615SOL    HW258838   6.505  10.686   2.341  0.8465 -0.0046 -0.2227
13616SOL     OW58839   1.451   4.665   7.313 -0.1285 -0.0006  0.0817
13616SOL    HW158840   1.409   4.748   7.335 -1.3803 -0.3507 -0.8990
13616SOL    HW258841   1.424   4.606   7.383 -0.8373 -0.0839 -0.2602
13617SOL     OW58842  11.439   6.426   0.161 -0.2245  0.1971  0.0400
13617SOL    HW158843  11.497   6.478   0.105  2.3415  0.1873  2.4539
13617SOL    HW258844  11.396   6.490   0.218  1.4238 -0.0498  1.6702
13618SOL     OW58845   7.139   7.295  13.484 -0.6504  0.0709 -0.5038
13618SOL    HW158846   7.177   7.290  13.396 -2.1510  0.2001 -1.1936
13618SOL    HW258847   7.071   7.361  13.476 -0.3627  0.5737  0.9539
13619SOL     OW58848   7.835   7.613   1.118 -0.2002  0.9170  0.1856
13619SOL    HW158849   7.917   7.663   1.120 -0.0470  0.6615  1.8023
13619SOL    HW258850   7.808   7.608   1.210 -1.1014 -0.5322 -0.1250
13620SOL     OW58851   6.201  13.456   1.676 -0.5954  0.1500  0.6870
13620SOL    HW158852   6.253  13.490   1.604  0.0221  0.2881  1.1908
13620SOL    HW258853   6.248  13.377   1.704 -0.0721  0.8340  1.8097
13621SOL     OW58854  13.932   9.157   6.786  0.5804 -0.4111  0.0136
13621SOL    HW158855  13.952   9.107   6.865  1.0169 -0.4577 -0.1221
13621SOL    HW258856  13.839   9.179   6.794 -0.5622 -3.9868 -1.4340
13622SOL     OW58857   3.104   1.549   1.297 -0.2082 -0.1009  0.6319
13622SOL    HW158858   3.140   1.638   1.304 -0.7947  0.0971  1.3466
13622SOL    HW258859   3.168   1.494   1.342 -0.0772  0.0297  0.6078
13623SOL     OW58860  13.722  11.063   9.486  0.5982  0.6003  0.1185
13623SOL    HW158861  13.659  11.014   9.539  0.4093  0.9830  0.2491
13623SOL    HW258862  13.785  10.997   9.457  1.0775  0.4809  1.3671
13624SOL     OW58863   2.396  11.527   3.542 -0.4758 -0.1130  0.2337
13624SOL    HW158864   2.489  11.544   3.533 -0.3535 -1.2039 -0.7446
13624SOL    HW258865   2.354  11.604   3.502 -0.0693  1.3661  2.4784
13625SOL     OW58866   8.601  13.457   4.859 -0.4728 -0.0455  0.3140
13625SOL    HW158867   8.655  13.532   4.836 -2.0367  1.0206 -0.0479
13625SOL    HW258868   8.663  13.385   4.872  1.0875  1.3877  1.0320
13626SOL     OW58869  14.151  10.679   6.617 -0.2171  0.2440  0.2301
13626SOL    HW158870  14.196  10.659   6.535 -1.7813  0.0950 -0.6398
13626SOL    HW258871  14.186  10.616   6.680 -2.1132 -2.6697 -1.4416
13627SOL     OW58872  12.891   9.261  11.330  0.2992  0.5164 -0.6308
13627SOL    HW158873  12.811   9.228  11.289  0.3385 -0.3695 -0.0068
13627SOL    HW258874  12.959   9.201  11.302  0.0699 -1.1133  1.9409
13628SOL     OW58875  10.013  13.539  11.685 -0.2428 -0.3108 -0.5041
13628SOL    HW158876   9.979  13.455  11.655  0.3152 -0.3661 -0.9866
13628SOL    HW258877  10.016  13.594  11.607 -2.7481  0.9231  0.1887
13629SOL     OW58878   1.767  10.359   3.974 -0.0071  0.4786  0.3834
13629SOL    HW158879   1.785  10.404   4.056 -0.1445  1.6332 -0.1955
13629SOL    HW258880   1.770  10.428   3.908  0.5267 -0.4935 -0.6455
13630SOL     OW58881   4.793   6.752   5.727  0.7492 -0.0419  0.1512
13630SOL    HW158882   4.879   6.717   5.751  1.3346  1.9368  1.1946
13630SOL    HW258883   4.813   6.832   5.679 -0.5258 -0.2108 -0.6879
13631SOL     OW58884  10.580   4.417   4.541  0.0817  0.3417  0.3817
13631SOL    HW158885  10.672   4.402   4.561 -0.2926 -0.1974  1.8283
13631SOL    HW258886  10.578   4.432   4.447  1.6324  0.2981  0.3182
13632SOL     OW58887   4.913  13.165  10.937  0.4040 -0.7660  0.2532
13632SOL    HW158888   4.907  13.078  10.899 -3.0217  0.1759 -1.8149
13632SOL    HW258889   4.965  13.153  11.017  3.1204 -3.9356 -1.7426
13633SOL     OW58890   4.199   2.398   7.437  0.6916 -0.3524 -0.0890
13633SOL    HW158891   4.242   2.480   7.459  0.7091 -0.4292  0.1673
13633SOL    HW258892   4.180   2.405   7.344  3.5940 -1.3666 -0.8679
13634SOL     OW58893   7.830   1.325   3.028 -0.1306 -0.0653 -0.3761
13634SOL    HW158894   7.884   1.310   3.106 -1.2796 -1.4594  0.2086
13634SOL    HW258895   7.885   1.376   2.970  1.0236  0.4019  1.0673
13635SOL     OW58896   9.646   4.914   6.594  0.0286 -0.1368 -0.4247
13635SOL    HW158897   9.553   4.903   6.575  0.1412  0.0422 -1.1252
13635SOL    HW258898   9.651   4.988   6.654 -0.1857  0.7158 -1.4361
13636SOL     OW58899   9.991   1.962   6.805 -0.2446 -0.1304  0.2734
13636SOL    HW158900  10.043   2.016   6.745 -0.4310 -0.5295 -0.2631
13636SOL    HW258901   9.922   1.925   6.750  1.6745 -3.5100 -0.2032
13637SOL     OW58902  10.980   4.976  13.652  0.3673  0.3570 -0.7257
13637SOL    HW158903  11.027   5.030  13.716  0.8127  0.0101 -0.7537
13637SOL    HW258904  10.895   4.960  13.692  0.2456  1.0363 -0.6948
13638SOL     OW58905  12.480  10.102   4.900 -0.1305  0.2838 -0.1096
13638SOL    HW158906  12.539  10.029   4.888 -0.2167  0.4949 -2.0778
13638SOL    HW258907  12.458  10.100   4.994  1.8004 -0.6670  0.3652
13639SOL     OW58908   5.850  13.241   3.917  0.0545  0.3805  0.2397
13639SOL    HW158909   5.763  13.204   3.935 -0.5918  0.5654 -2.1159
13639SOL    HW258910   5.833  13.334   3.901  0.9775  0.7856  1.5352
13640SOL     OW58911   6.584  13.757  11.647 -0.5051  0.3236  0.7250
13640SOL    HW158912   6.654  13.737  11.584 -2.1982  0.5535 -1.3256
13640SOL    HW258913   6.564  13.849  11.632  0.3411  0.9560  3.0207
13641SOL     OW58914   9.633   2.330  11.850 -0.1662 -0.2708 -0.1194
13641SOL    HW158915   9.675   2.244  11.855 -0.9787 -0.7202 -0.7568
13641SOL    HW258916   9.552   2.321  11.901 -1.1104 -0.4228 -1.5910
13642SOL     OW58917   7.362  12.590   0.866  0.3459 -0.2593  0.1750
13642SOL    HW158918   7.373  12.651   0.939  2.2542 -2.1390  1.5977
13642SOL    HW258919   7.410  12.630   0.794  0.9750  0.2763  0.8668
13643SOL     OW58920   1.069   8.590   4.931 -0.1826 -0.2307 -0.0777
13643SOL    HW158921   0.982   8.571   4.965 -0.2618 -0.2453 -0.2888
13643SOL    HW258922   1.115   8.630   5.005 -0.7330  0.8581 -0.2944
13644SOL     OW58923   3.350   0.336   4.641  0.2950 -0.2005  0.7277
13644SOL    HW158924   3.301   0.262   4.607  0.0652  0.3437 -0.1597
13644SOL    HW258925   3.440   0.320   4.613  0.0081  0.5495 -0.7382
13645SOL     OW58926   9.855   4.149  10.777 -0.6312  0.3007  0.1873
13645SOL    HW158927   9.949   4.150  10.756 -0.3816  2.1138  1.1342
13645SOL    HW258928   9.816   4.211  10.715 -1.0966  0.0595  0.2355
13646SOL     OW58929   0.314  10.095   4.424 -0.2607  0.8603  0.3777
13646SOL    HW158930   0.279  10.154   4.357 -2.2328 -1.8200 -1.1793
13646SOL    HW258931   0.244  10.089   4.490  0.5873  1.4702  1.3526
13647SOL     OW58932   9.206   6.966  10.053  0.7118 -0.2523  0.4787
13647SOL    HW158933   9.141   7.025  10.015  2.2316  2.0367  1.1393
13647SOL    HW258934   9.161   6.923  10.126 -0.4226  0.2212  0.0733
13648SOL     OW58935  13.094  13.352  11.218 -0.1079 -0.0381 -0.0349
13648SOL    HW158936  13.167  13.293  11.236  0.0807  0.0604 -0.4765
13648SOL    HW258937  13.132  13.440  11.221 -0.3601  0.0567  0.4759
13649SOL     OW58938   4.289   1.079   3.088  0.0691 -0.2502  0.2033
13649SOL    HW158939   4.335   1.089   3.172 -2.2655 -1.0080  1.6612
13649SOL    HW258940   4.356   1.045   3.029  1.4500 -1.1710  2.1562
13650SOL     OW58941   5.140   9.581  12.408 -0.3782 -0.2652  0.1539
13650SOL    HW158942   5.217   9.606  12.459 -1.4391 -0.6091  2.0320
13650SOL    HW258943   5.093   9.520  12.465 -1.5640 -0.7911 -1.3314
13651SOL     OW58944  11.162   5.115   8.783  0.5298  0.8239 -1.3855
13651SOL    HW158945  11.122   5.172   8.848  0.0218  0.4285 -1.3462
13651SOL    HW258946  11.238   5.164   8.752  0.9904  0.8644 -0.2304
13652SOL     OW58947   0.602   2.374   9.161 -0.1520  0.4039  0.1546
13652SOL    HW158948   0.581   2.321   9.238 -0.1927  1.2425  0.7257
13652SOL    HW258949   0.698   2.378   9.161 -0.1708  1.1690  0.7056
13653SOL     OW58950   9.850   7.094   6.678 -0.3823 -0.3543 -0.0011
13653SOL    HW158951   9.853   7.023   6.742 -0.1725 -0.7488 -0.4462
13653SOL    HW258952   9.830   7.172   6.730  3.8226  0.1237  1.2747
13654SOL     OW58953   4.600  11.378  12.877  0.5110 -0.2298 -0.5115
13654SOL    HW158954   4.552  11.311  12.924  0.9129  0.9026  1.6221
13654SOL    HW258955   4.534  11.421  12.822 -0.0796 -1.2084 -0.5996
13655SOL     OW58956  11.791   9.016   6.876  0.1665 -0.5113  0.3733
13655SOL    HW158957  11.713   9.068   6.895  0.9633  1.4023 -1.1895
13655SOL    HW258958  11.828   8.996   6.962 -0.3631  1.2667  1.0629
13656SOL     OW58959  12.695   8.178   3.243  0.0645 -0.5084 -0.0059
13656SOL    HW158960  12.771   8.224   3.278 -0.0628 -0.3983  0.1269
13656SOL    HW258961  12.628   8.245   3.233 -0.4849 -0.8507  1.2251
13657SOL     OW58962   9.698  12.999   0.566  0.2216 -0.1036 -0.0029
13657SOL    HW158963   9.777  12.963   0.605  0.0766 -1.7838 -1.1665
13657SOL    HW258964   9.730  13.060   0.500  0.4904  0.7370  0.8745
13658SOL     OW58965   3.808  12.382   5.296  0.1537 -0.0930 -0.6153
13658SOL    HW158966   3.811  12.359   5.388 -0.7817 -1.5386 -0.9093
13658SOL    HW258967   3.897  12.411   5.275 -0.0536  2.1091  1.1469
13659SOL     OW58968   7.640   1.367   7.386 -0.1866  0.2372  0.2385
13659SOL    HW158969   7.670   1.418   7.311  0.1604  1.6281  1.2862
13659SOL    HW258970   7.706   1.298   7.397 -0.1837  0.0943 -0.6479
13660SOL     OW58971   8.852   6.709   8.540  0.1049  0.1831  0.0012
13660SOL    HW158972   8.807   6.761   8.475  1.2371 -0.4413 -1.3330
13660SOL    HW258973   8.915   6.770   8.580  0.2444  0.2640 -0.3403
13661SOL     OW58974   8.229   3.460  10.435  0.1024 -0.0762  0.0900
13661SOL    HW158975   8.176   3.537  10.455 -0.6958 -0.5194 -0.2787
13661SOL    HW258976   8.247   3.420  10.520 -2.3271 -1.3304  0.0887
13662SOL     OW58977  13.742   1.218  10.374 -0.2203 -0.0771  0.2815
13662SOL    HW158978  13.807   1.152  10.349  1.2599  1.2393  0.5081
13662SOL    HW258979  13.697   1.239  10.292  0.5803 -0.0312 -0.1562
13663SOL     OW58980  13.451   8.646   3.169  0.1522  0.4633 -0.1612
13663SOL    HW158981  13.403   8.726   3.148 -1.1032  0.0152  0.8856
13663SOL    HW258982  13.534   8.655   3.122  1.2861  3.7217  2.0899
13664SOL     OW58983   8.296   1.154  12.867  0.0197 -0.0279  0.4072
13664SOL    HW158984   8.222   1.094  12.874 -0.1484 -0.7108 -4.4328
13664SOL    HW258985   8.258   1.241  12.881 -1.0621 -0.5605  0.8516
13665SOL     OW58986  12.931   2.461   9.281 -0.2780  0.3090  0.1570
13665SOL    HW158987  12.866   2.404   9.322  0.1230 -0.5993 -0.4295
13665SOL    HW258988  12.881   2.535   9.248 -0.7047  0.7141  1.6332
13666SOL     OW58989  13.140   8.481  13.831  0.3030  0.4208 -0.1062
13666SOL    HW158990  13.087   8.547  13.875  0.6257 -0.1150  1.1179
13666SOL    HW258991  13.082   8.407  13.819  0.1161  0.6870 -0.9328
13667SOL     OW58992   4.625   8.828   0.084 -0.6352 -0.1603 -0.2344
13667SOL    HW158993   4.625   8.850  -0.009 -0.6698 -1.4510 -0.5687
13667SOL    HW258994   4.534   8.837   0.111 -0.4390  1.3602 -0.0144
13668SOL     OW58995  11.616  11.805   1.829 -0.6369  0.6450 -0.1283
13668SOL    HW158996  11.697  11.806   1.777 -1.3005  1.7058 -1.1954
13668SOL    HW258997  11.549  11.841   1.770 -2.1182 -1.0983  0.3930
13669SOL     OW58998   4.131  13.991   7.719 -1.1922  0.1756  0.0997
13669SOL    HW158999   4.146  14.081   7.749 -1.3716  0.5228 -0.8323
13669SOL    HW259000   4.125  13.998   7.624  3.2932 -1.3990 -0.5371
13670SOL     OW59001   6.298   5.362  11.750 -0.4131  0.8370 -0.2648
13670SOL    HW159002   6.261   5.417  11.681  1.0560  1.5742 -0.4963
13670SOL    HW259003   6.368   5.415  11.788  1.5072 -1.0905 -0.9300
13671SOL     OW59004   7.758  10.623   2.581 -0.2324  0.3631 -0.5549
13671SOL    HW159005   7.663  10.618   2.576 -0.2673 -0.0591  0.3427
13671SOL    HW259006   7.776  10.709   2.621 -0.3579 -0.5658  1.6413
13672SOL     OW59007   1.145  12.484   8.443 -0.3509 -0.3780  0.1794
13672SOL    HW159008   1.062  12.451   8.480 -0.2732 -1.6070 -0.6786
13672SOL    HW259009   1.124  12.505   8.352  0.2114 -0.4486  0.0303
13673SOL     OW59010   7.743  12.542  10.214 -0.1780 -0.2488 -0.7593
13673SOL    HW159011   7.806  12.472  10.228 -0.2898 -0.5436 -1.6688
13673SOL    HW259012   7.695  12.549  10.296  1.3113  0.2718  0.1065
13674SOL     OW59013   8.592   0.688   5.831  0.0143 -0.2046 -0.1836
13674SOL    HW159014   8.520   0.661   5.774 -1.7334  1.4840  1.1045
13674SOL    HW259015   8.579   0.638   5.911  1.4617 -1.3075 -0.5911
13675SOL     OW59016   9.941   5.735   7.639  0.0959  0.0923  0.5331
13675SOL    HW159017   9.971   5.667   7.580 -1.2520 -2.7719  2.8830
13675SOL    HW259018   9.885   5.791   7.585 -0.8619 -2.2195 -1.0260
13676SOL     OW59019   6.158   5.559   3.925  0.0077  0.1330  0.6906
13676SOL    HW159020   6.175   5.497   3.855  0.3760 -0.0729  0.9574
13676SOL    HW259021   6.223   5.628   3.914 -1.3646  1.3126 -0.5480
13677SOL     OW59022   2.700   2.126   1.233 -0.5152  0.0498 -0.5020
13677SOL    HW159023   2.750   2.175   1.299 -1.3484 -0.4455  0.5237
13677SOL    HW259024   2.752   2.047   1.217 -0.1139  0.3603 -0.7324
13678SOL     OW59025   5.616   4.501   0.476  0.1082  0.4416  0.3282
13678SOL    HW159026   5.690   4.461   0.522 -0.8626  0.9121  2.4318
13678SOL    HW259027   5.656   4.560   0.413  1.5718  1.1425  1.8340
13679SOL     OW59028  10.447   6.147   6.668 -0.5116  0.3366 -0.2307
13679SOL    HW159029  10.389   6.118   6.597 -1.4287 -1.5314  1.1772
13679SOL    HW259030  10.421   6.237   6.685 -1.1025  0.4231 -1.4686
13680SOL     OW59031  10.407   6.406   6.585  0.0401 -0.3941  0.3972
13680SOL    HW159032  10.469   6.479   6.594 -0.6791  0.4005 -0.6981
13680SOL    HW259033  10.388   6.404   6.491  1.4981 -3.2491  0.0830
13681SOL     OW59034   4.316   6.621   1.216 -0.4615  0.2908  0.4039
13681SOL    HW159035   4.221   6.626   1.214 -0.4478  4.8685 -0.2628
13681SOL    HW259036   4.341   6.591   1.128 -1.4072  2.8195 -0.8371
13682SOL     OW59037   8.706  14.037   3.644 -0.1933 -0.3552 -0.4758
13682SOL    HW159038   8.789  14.006   3.608  0.2464 -1.0871  1.1050
13682SOL    HW259039   8.640  13.999   3.587  0.4866 -1.2490 -0.6969
13683SOL     OW59040  11.395   9.139   2.071  0.6102  0.7294 -0.2111
13683SOL    HW159041  11.301   9.149   2.055 -0.0727 -0.5194  2.5430
13683SOL    HW259042  11.425   9.081   2.001 -1.1855 -0.7732  0.1739
13684SOL     OW59043   2.927   0.995  12.493 -0.3112 -0.0934 -0.0194
13684SOL    HW159044   2.979   0.974  12.416 -0.1420 -0.6773  0.2503
13684SOL    HW259045   2.942   1.088  12.508 -0.0823 -0.0550 -0.4928
13685SOL     OW59046   8.896   5.686   3.387  0.0358  0.6830 -0.1694
13685SOL    HW159047   8.987   5.684   3.416 -0.1901  1.4428  0.6412
13685SOL    HW259048   8.876   5.595   3.364  0.4200  0.1253  1.5275
13686SOL     OW59049   5.704   8.672   9.067 -0.0092  0.3197 -0.2633
13686SOL    HW159050   5.616   8.709   9.079 -0.0305 -0.0589  0.8666
13686SOL    HW259051   5.755   8.744   9.029 -0.5576  0.8592 -0.0056
13687SOL     OW59052   5.599  11.789  11.606  0.3479 -0.1101  0.1344
13687SOL    HW159053   5.628  11.701  11.580  0.3397 -0.3157  0.8130
13687SOL    HW259054   5.681  11.838  11.620  0.4568 -0.8492  2.6027
13688SOL     OW59055   0.748   9.541  13.641 -0.1050  0.0402 -0.1363
13688SOL    HW159056   0.724   9.480  13.570 -1.8452  1.3721 -0.7647
13688SOL    HW259057   0.699   9.510  13.717  0.1617 -0.1940 -0.0585
13689SOL     OW59058  10.742   4.647  10.603  0.1972 -0.7820 -0.9002
13689SOL    HW159059  10.728   4.675  10.513  2.1675  0.7218 -0.8232
13689SOL    HW259060  10.821   4.593  10.600  0.5084 -0.4012 -0.0468
13690SOL     OW59061   2.567  13.466   3.977 -0.3605  0.3387 -0.6900
13690SOL    HW159062   2.596  13.495   4.064 -1.5372 -0.7354  0.1100
13690SOL    HW259063   2.483  13.422   3.994 -0.6484  0.1695 -2.3928
13691SOL     OW59064  13.811   5.184   6.068 -0.7968 -0.8037  0.3562
13691SOL    HW159065  13.797   5.126   5.994  0.0688 -0.2043 -0.3073
13691SOL    HW259066  13.865   5.133   6.129 -0.8188 -1.0185  0.1956
13692SOL     OW59067   5.294  10.487   0.765  0.2676 -0.1866  0.3170
13692SOL    HW159068   5.260  10.535   0.840 -1.7974  0.1400 -0.7567
13692SOL    HW259069   5.323  10.554   0.703  0.8678 -0.4272  0.3260
13693SOL     OW59070  13.851  11.626   5.935  0.5189 -0.7705  0.3903
13693SOL    HW159071  13.829  11.544   5.979  2.4619 -1.9771 -0.7352
13693SOL    HW259072  13.788  11.632   5.863  0.5580 -1.4580  0.2900
13694SOL     OW59073   0.967  10.585  12.290  0.5243  0.0026  0.2531
13694SOL    HW159074   1.047  10.636  12.281  1.5336 -1.7240 -1.0786
13694SOL    HW259075   0.975  10.542  12.375 -0.6394  2.4071  1.7081
13695SOL     OW59076   6.494  13.708   1.280  0.4713  0.0311  0.0715
13695SOL    HW159077   6.455  13.748   1.203 -0.8722  0.2064  0.8159
13695SOL    HW259078   6.578  13.754   1.291  0.6260  0.0803 -1.1934
13696SOL     OW59079   8.305  12.937   5.185 -0.3551 -0.3595 -0.4368
13696SOL    HW159080   8.291  12.870   5.118 -0.0173  0.8441 -1.7435
13696SOL    HW259081   8.295  13.020   5.139  0.3567  0.5027  0.9018
13697SOL     OW59082  10.465   8.744  13.051 -0.2711 -0.1419  0.1026
13697SOL    HW159083  10.425   8.769  13.134  0.3649  0.4922  0.2277
13697SOL    HW259084  10.464   8.824  12.998  1.7029  0.1751  0.4729
13698SOL     OW59085  10.402   3.599   0.491  0.1071  0.5046  0.1237
13698SOL    HW159086  10.452   3.543   0.550  0.4225 -1.1703 -1.6222
13698SOL    HW259087  10.338   3.540   0.451 -0.7175  1.7824 -0.5056
13699SOL     OW59088  10.818   0.740   0.985  0.3079  0.2472 -0.1444
13699SOL    HW159089  10.883   0.686   1.030  0.8199 -0.2396 -1.4270
13699SOL    HW259090  10.842   0.830   1.006  0.3322  0.0256  0.8075
13700SOL     OW59091   7.094   7.413   9.692 -0.1163  0.1951 -0.3798
13700SOL    HW159092   7.129   7.333   9.732  0.7334  0.1853 -1.1121
13700SOL    HW259093   7.012   7.385   9.651 -1.5170  0.4117  2.1279
13701SOL     OW59094   6.400   5.742   4.895 -0.3273 -0.1169 -0.1759
13701SOL    HW159095   6.334   5.790   4.846 -0.3162 -0.2756 -0.3481
13701SOL    HW259096   6.398   5.654   4.858 -1.1937 -0.5982  0.9459
13702SOL     OW59097   2.672   0.984   2.481  0.1187  0.0560 -0.4757
13702SOL    HW159098   2.706   0.901   2.516  0.5888  1.2594  2.1219
13702SOL    HW259099   2.577   0.975   2.487  0.0739 -1.0055 -2.0961
13703SOL     OW59100   2.461   7.443   7.863 -0.5802 -0.0783  0.1876
13703SOL    HW159101   2.538   7.472   7.814 -1.4948  0.1318 -1.2089
13703SOL    HW259102   2.451   7.350   7.839 -0.7907 -0.0893  0.3131
13704SOL     OW59103   3.633   2.926  13.930 -0.1367  0.5062  0.6630
13704SOL    HW159104   3.557   2.983  13.921 -0.2149  0.3977  0.6393
13704SOL    HW259105   3.707   2.981  13.904 -0.4064  0.0390 -1.2018
13705SOL     OW59106   6.908  10.938  12.308 -0.8081  0.0226 -0.3312
13705SOL    HW159107   6.985  10.882  12.301  0.2445  1.4765 -1.0097
13705SOL    HW259108   6.928  11.014  12.253 -2.4586  0.7532 -0.0061
13706SOL     OW59109   5.794  13.109   4.902 -0.7316 -0.1722  0.2249
13706SOL    HW159110   5.855  13.036   4.909 -0.4437  0.0221 -0.2432
13706SOL    HW259111   5.838  13.172   4.845  0.6814  2.0436  3.4457
13707SOL     OW59112   9.816   8.685  11.169  0.2539 -0.5439 -0.0179
13707SOL    HW159113   9.870   8.737  11.109 -1.4461  0.5693 -0.6538
13707SOL    HW259114   9.778   8.750  11.228  0.7794 -1.4808  1.4100
13708SOL     OW59115   3.490   0.931  10.779 -0.0679 -0.3780  0.2151
13708SOL    HW159116   3.473   0.999  10.844 -1.0284 -0.6308  0.2314
13708SOL    HW259117   3.579   0.949  10.749  0.3524 -0.2031  1.5210
13709SOL     OW59118   8.073  12.674  12.024  0.4974  0.1338  0.1128
13709SOL    HW159119   8.024  12.695  12.103  0.2319 -1.1137  0.3094
13709SOL    HW259120   8.144  12.617  12.054  0.7394  0.1249 -0.4618
13710SOL     OW59121  13.261  13.325  13.928  0.5105 -0.6270  0.3199
13710SOL    HW159122  13.185  13.368  13.967  0.7447  0.5986 -0.5053
13710SOL    HW259123  13.288  13.384  13.857  1.3209 -1.7750 -0.3629
13711SOL     OW59124   2.442  13.128   8.272  0.3139  0.0587 -0.0940
13711SOL    HW159125   2.529  13.094   8.293 -1.2291 -3.7749  0.9586
13711SOL    HW259126   2.437  13.124   8.177  1.1198 -0.0857 -0.1371
13712SOL     OW59127  11.882   6.498   3.113 -0.1506  0.1310 -0.3748
13712SOL    HW159128  11.921   6.519   3.028 -0.0028  1.1828 -0.0616
13712SOL    HW259129  11.847   6.582   3.145  0.8612  0.0215  1.1411
13713SOL     OW59130   3.921   4.412   1.944  0.6700 -0.3380 -0.0711
13713SOL    HW159131   3.964   4.435   2.026  1.5247 -0.3230 -0.5181
13713SOL    HW259132   3.975   4.343   1.907  0.5016 -0.0792 -0.8088
13714SOL     OW59133  13.462   2.999   3.474  0.5286  0.6929  0.0373
13714SOL    HW159134  13.448   2.911   3.507  1.1520  0.5323 -0.1202
13714SOL    HW259135  13.509   2.987   3.391 -0.9384  1.0875 -0.8964
13715SOL     OW59136  13.211  13.716   0.213  0.1519 -0.0712  0.3953
13715SOL    HW159137  13.260  13.725   0.295 -0.4894  1.4990  0.6396
13715SOL    HW259138  13.153  13.641   0.229  0.5281 -0.2237  1.1135
13716SOL     OW59139   0.746   5.440   8.228 -0.5587 -0.2365  0.6381
13716SOL    HW159140   0.761   5.455   8.135 -1.3205  0.2387  0.5800
13716SOL    HW259141   0.711   5.351   8.233 -1.0598 -0.0553  0.4040
13717SOL     OW59142   6.649  10.963   5.854  0.2840  0.6403 -0.1959
13717SOL    HW159143   6.728  10.926   5.896 -0.7692 -2.3348 -0.5619
13717SOL    HW259144   6.577  10.925   5.904 -0.9356  0.6133 -1.9259
13718SOL     OW59145   9.789   9.380   4.334 -0.4014 -0.2567 -0.5535
13718SOL    HW159146   9.777   9.475   4.334  0.2753 -0.1553 -1.6838
13718SOL    HW259147   9.711   9.346   4.290 -0.9720 -0.2851  0.4592
13719SOL     OW59148  11.683   6.637  12.433  0.0968 -0.1175 -0.2443
13719SOL    HW159149  11.746   6.666  12.499  1.0550 -0.8296 -0.8100
13719SOL    HW259150  11.731   6.642  12.351 -0.9689  0.4119 -0.8544
13720SOL     OW59151   2.121  13.813   2.058 -0.2745 -0.5362 -0.1189
13720SOL    HW159152   2.092  13.757   2.131 -1.6358  0.6475  0.3109
13720SOL    HW259153   2.216  13.818   2.068 -0.3914 -0.7250  1.3554
13721SOL     OW59154   5.685   5.675  11.545  0.3160 -0.2149  0.4227
13721SOL    HW159155   5.656   5.760  11.512  0.4451 -0.3378 -0.0208
13721SOL    HW259156   5.769   5.660  11.502 -0.0815 -0.9272 -0.1396
13722SOL     OW59157  10.099  12.267   1.017  0.3278  0.2849  0.5966
13722SOL    HW159158  10.038  12.323   1.065 -0.8407  0.4969 -1.0508
13722SOL    HW259159  10.141  12.325   0.954 -0.9926 -0.6237 -1.2196
13723SOL     OW59160  10.213   6.353   7.732  0.0684  0.3550  0.2935
13723SOL    HW159161  10.284   6.380   7.790 -0.5563  1.0675  0.7539
13723SOL    HW259162  10.193   6.263   7.758  0.0409  0.5430  0.9453
13724SOL     OW59163  12.071   2.267   9.307 -0.8752 -0.0565 -0.3724
13724SOL    HW159164  12.048   2.332   9.372  1.0199 -0.0655  0.3788
13724SOL    HW259165  12.107   2.318   9.234  4.4401 -0.0985  1.7438
13725SOL     OW59166   9.232  10.646   8.609  0.1397  0.5700 -0.0133
13725SOL    HW159167   9.265  10.728   8.572 -0.7963  1.1692  0.4478
13725SOL    HW259168   9.253  10.653   8.702 -2.9233  1.8740  0.6984
13726SOL     OW59169   6.790  10.800   8.959 -0.3482  0.3073  0.7671
13726SOL    HW159170   6.747  10.871   9.007 -0.8664  0.4718  0.0835
13726SOL    HW259171   6.883  10.825   8.957 -0.7160  1.7567 -0.7355
13727SOL     OW59172   4.091   1.112   6.798 -0.1119 -0.0001 -0.2907
13727SOL    HW159173   4.040   1.036   6.823  0.3547 -0.1000  0.3741
13727SOL    HW259174   4.157   1.121   6.866 -0.3993  1.2407 -0.1514
13728SOL     OW59175   3.284   8.303  13.651  0.4659  0.3106 -0.1550
13728SOL    HW159176   3.210   8.313  13.712  1.3940  0.0325  1.0533
13728SOL    HW259177   3.324   8.390  13.647  1.0371  0.0850  0.4827
13729SOL     OW59178  13.214   9.318   2.518 -0.5200  0.0600  0.1380
13729SOL    HW159179  13.166   9.250   2.472 -0.7307  1.6893 -2.2487
13729SOL    HW259180  13.245   9.276   2.598 -2.1253 -2.2845 -0.3723
13730SOL     OW59181  11.205  13.132  13.246 -0.2066 -0.1206  1.1285
13730SOL    HW159182  11.170  13.220  13.261  1.7788  0.9484 -0.2009
13730SOL    HW259183  11.182  13.085  13.326 -1.7703  1.4275  1.6739
13731SOL     OW59184   0.937   8.015   9.264 -0.1139 -0.0058  0.0835
13731SOL    HW159185   0.973   8.104   9.266  0.5178 -0.1740 -1.8751
13731SOL    HW259186   0.895   8.008   9.179 -1.5960 -1.0779  0.8434
13732SOL     OW59187  11.877  12.187  13.193  0.2335 -0.8350  0.6878
13732SOL    HW159188  11.851  12.097  13.173  1.7737 -1.3510  0.8317
13732SOL    HW259189  11.915  12.182  13.281  0.1705 -0.0077  0.7708
13733SOL     OW59190   9.520  12.379   3.911 -0.5471  0.2492 -0.2721
13733SOL    HW159191   9.503  12.460   3.960 -1.2908 -0.9457  1.5357
13733SOL    HW259192   9.586  12.333   3.963  0.0614 -0.2114 -1.4178
13734SOL     OW59193   1.704   6.308  13.036  0.9855 -0.0851 -0.4455
13734SOL    HW159194   1.690   6.397  13.071  1.0805 -0.3573  0.3131
13734SOL    HW259195   1.725   6.256  13.114  2.5995 -0.4280 -1.0864
13735SOL     OW59196   5.739   4.130   1.020 -0.3460 -0.6575 -0.1701
13735SOL    HW159197   5.822   4.168   0.990 -0.7858 -0.6109 -1.4055
13735SOL    HW259198   5.672   4.189   0.986 -0.8848 -0.5102  1.1034
13736SOL     OW59199   6.633   9.389  10.479  0.3715  0.4989  0.5750
13736SOL    HW159200   6.596   9.349  10.558 -1.5811  0.3019 -0.3914
13736SOL    HW259201   6.573   9.461  10.459  0.8244  0.5232 -0.7593
13737SOL     OW59202  12.250   8.922   9.669 -0.1716 -0.4399  0.0401
13737SOL    HW159203  12.198   8.847   9.696  3.2810 -1.8983  3.4042
13737SOL    HW259204  12.286   8.897   9.584 -2.0935 -0.8277 -0.7076
13738SOL     OW59205   3.511   0.083  11.895  0.1805  0.6511 -0.3352
13738SOL    HW159206   3.554   0.125  11.821 -1.0969  0.7149 -1.0787
13738SOL    HW259207   3.501  -0.008  11.869 -2.4804  1.1498 -1.3672
13739SOL     OW59208   0.672  13.748   1.890 -0.0509  0.0146 -0.0101
13739SOL    HW159209   0.597  13.804   1.907  1.0029  1.9275 -1.2905
13739SOL    HW259210   0.645  13.690   1.819 -0.5980  0.0493  0.1696
13740SOL     OW59211   0.865  10.099   6.095 -0.1450 -0.7317  0.2340
13740SOL    HW159212   0.939  10.134   6.144  0.1687 -1.9377  0.6650
13740SOL    HW259213   0.904  10.042   6.029 -0.6634 -0.7282 -0.0870
13741SOL     OW59214   3.354  13.024   3.651  0.3458 -0.0197  0.0426
13741SOL    HW159215   3.283  13.056   3.595 -0.6391  0.4091  1.5027
13741SOL    HW259216   3.312  13.003   3.734  1.4696 -2.3373  0.1128
13742SOL     OW59217  12.113   2.315   4.167  0.3604 -0.1901 -0.7357
13742SOL    HW159218  12.105   2.221   4.177  0.1721  0.0865  3.2997
13742SOL    HW259219  12.205   2.334   4.184 -0.2674  0.5164  2.6568
13743SOL     OW59220  11.079  12.945  12.249  0.1550 -0.4219 -0.4242
13743SOL    HW159221  11.036  12.862  12.267  0.1647  0.1172  2.5661
13743SOL    HW259222  11.055  13.001  12.323  1.8922  1.5338 -1.2517
13744SOL     OW59223   1.908   5.585   7.776 -0.2840  0.3923  0.4344
13744SOL    HW159224   1.902   5.540   7.692  0.3547  1.0323  0.0300
13744SOL    HW259225   1.851   5.661   7.766  0.1586  0.7231  0.4075
13745SOL     OW59226   8.742   7.858  11.344  0.4786  0.6888  0.3413
13745SOL    HW159227   8.776   7.792  11.283  1.7395  1.1933  0.4775
13745SOL    HW259228   8.689   7.916  11.289 -0.1912 -0.1026  0.1262
13746SOL     OW59229   4.057  10.466   8.387 -0.2152  0.0378 -0.1000
13746SOL    HW159230   4.029  10.508   8.468 -0.2257 -0.2322  0.0364
13746SOL    HW259231   3.995  10.394   8.374  0.2814 -0.4325  0.0919
13747SOL     OW59232   7.658   0.138  10.087  0.5535 -0.2460  0.6656
13747SOL    HW159233   7.610   0.186  10.153  2.6136  0.0061  2.0574
13747SOL    HW259234   7.602   0.142  10.009 -2.1354 -0.9065  2.4402
13748SOL     OW59235   1.146   1.987   4.655 -0.1530 -0.3436  0.2916
13748SOL    HW159236   1.087   2.003   4.582 -1.9331  0.7867  1.8898
13748SOL    HW259237   1.096   1.931   4.714  0.7395 -0.1302  1.2709
13749SOL     OW59238  12.864   7.054   7.869 -0.3719 -0.1395  0.0688
13749SOL    HW159239  12.795   7.053   7.803 -0.3160 -0.2063  0.0111
13749SOL    HW259240  12.942   7.024   7.823  0.2359  2.0695 -0.4627
13750SOL     OW59241   8.588  12.610  13.633 -0.0813 -0.1324  0.0001
13750SOL    HW159242   8.656  12.608  13.567 -0.2960 -0.4563 -0.2147
13750SOL    HW259243   8.635  12.612  13.717  0.1913  0.8053 -0.1660
13751SOL     OW59244   4.006   8.135   0.815  0.0131 -0.0794 -0.0585
13751SOL    HW159245   4.041   8.106   0.731 -0.2445 -1.0253  0.1438
13751SOL    HW259246   4.024   8.229   0.818  0.7765 -0.1941 -0.7989
13752SOL     OW59247   3.289  12.826   3.910  0.3209  0.0895 -0.0084
13752SOL    HW159248   3.344  12.750   3.927  0.3830 -0.5375 -2.6557
13752SOL    HW259249   3.336  12.899   3.952  1.7332 -0.8621  0.1326
13753SOL     OW59250  13.511  13.035   6.075 -0.2257  0.1530  0.3831
13753SOL    HW159251  13.558  13.118   6.063 -0.6772  0.2824 -0.5784
13753SOL    HW259252  13.561  12.989   6.142  0.6014  0.7834  0.2162
13754SOL     OW59253   3.265   5.858   3.494  0.1070 -0.2690 -0.2215
13754SOL    HW159254   3.336   5.795   3.480  0.4213  0.1834 -0.6947
13754SOL    HW259255   3.218   5.825   3.571  1.2910 -0.1668  0.5778
13755SOL     OW59256   9.658   3.228   8.767 -0.3292  0.0433 -0.1800
13755SOL    HW159257   9.687   3.295   8.829 -0.3794 -1.4193  1.4977
13755SOL    HW259258   9.563   3.232   8.769 -0.3342 -0.1494  0.0076
13756SOL     OW59259   1.620   7.887   7.671 -0.2275 -0.2044  0.6815
13756SOL    HW159260   1.585   7.880   7.583  1.3528  0.8791 -0.0719
13756SOL    HW259261   1.668   7.805   7.684  0.9515  0.3267 -0.1480
13757SOL     OW59262   5.858  13.859   1.220  0.1327  0.0843  0.1897
13757SOL    HW159263   5.951  13.839   1.208 -0.0316 -0.9633  0.5769
13757SOL    HW259264   5.834  13.817   1.302 -0.9858 -0.7913 -0.5443
13758SOL     OW59265   8.477  13.695   3.434 -0.2008 -0.1493  0.2875
13758SOL    HW159266   8.455  13.724   3.346  0.8305 -0.2732 -0.0204
13758SOL    HW259267   8.401  13.642   3.461 -1.5074  1.6561  0.3452
13759SOL     OW59268  13.953   1.611   9.953  0.2431  0.7724  0.0350
13759SOL    HW159269  13.860   1.589   9.948  0.3779  0.1422  0.1155
13759SOL    HW259270  13.991   1.572   9.874  0.2082  2.2925 -0.7577
13760SOL     OW59271  10.674   6.116   0.681 -0.6131  0.0190  0.1170
13760SOL    HW159272  10.630   6.034   0.657 -0.3499 -0.3781  0.9653
13760SOL    HW259273  10.765   6.104   0.653 -0.6136  0.0974  0.0799
13761SOL     OW59274  13.074  11.502   0.792 -0.0325  0.1576 -0.1642
13761SOL    HW159275  13.096  11.476   0.703  0.9727  1.5899 -0.3610
13761SOL    HW259276  13.139  11.568   0.815 -1.7397  1.6330  0.7191
13762SOL     OW59277  11.594  13.374   5.356 -0.0285  0.2771  0.0245
13762SOL    HW159278  11.573  13.287   5.388  1.1884 -0.3925 -0.8968
13762SOL    HW259279  11.566  13.433   5.425 -0.5909 -0.8651  0.7965
13763SOL     OW59280   0.651  11.543   3.621 -0.3150  0.4482  0.5099
13763SOL    HW159281   0.636  11.552   3.715 -1.1683 -1.2183  0.5709
13763SOL    HW259282   0.746  11.547   3.611 -0.2441  1.2341  1.3541
13764SOL     OW59283   0.733  11.513  10.173 -0.0670  0.0108 -0.0901
13764SOL    HW159284   0.719  11.420  10.192  0.8844  0.2213  1.8003
13764SOL    HW259285   0.646  11.547  10.154 -0.5303 -1.0782 -0.0059
13765SOL     OW59286  13.062   5.686  12.157  0.7127  0.4609  0.0079
13765SOL    HW159287  12.998   5.623  12.191 -0.1967  0.7351 -1.1328
13765SOL    HW259288  13.012   5.766  12.145  0.6183  0.0221 -3.1952
13766SOL     OW59289   9.528   9.459   1.892  0.4433 -0.0402 -0.3962
13766SOL    HW159290   9.580   9.385   1.924  2.2984  1.4970  0.3558
13766SOL    HW259291   9.578   9.493   1.818 -0.7727  0.0228 -1.2025
13767SOL     OW59292   5.256   1.481   1.804  0.4757  0.0400  0.3733
13767SOL    HW159293   5.200   1.445   1.735 -0.0070 -1.4522  1.5151
13767SOL    HW259294   5.344   1.481   1.766  0.5829 -2.8247  0.4534
13768SOL     OW59295   0.348  13.140   7.737  0.4579 -0.0236 -0.7688
13768SOL    HW159296   0.280  13.090   7.692  0.8537 -0.6920 -0.6538
13768SOL    HW259297   0.393  13.074   7.791 -0.6429  0.9020  1.4092
13769SOL     OW59298   0.571   4.657  11.403  0.4994 -0.5982 -0.5307
13769SOL    HW159299   0.666   4.669  11.402  0.4233  0.0508 -0.5022
13769SOL    HW259300   0.545   4.667  11.311  0.2173  1.4751 -0.2936
13770SOL     OW59301   6.970   3.124  10.001  0.1856 -0.2884 -0.1977
13770SOL    HW159302   6.943   3.076  10.079  1.8067  0.4455  0.8547
13770SOL    HW259303   7.053   3.164  10.024  0.6204  0.1189 -2.2541
13771SOL     OW59304   7.210  13.811   4.724  0.0908 -0.1998  0.1157
13771SOL    HW159305   7.196  13.727   4.768  0.6318  0.6283  1.9395
13771SOL    HW259306   7.228  13.787   4.633  0.1675 -2.0521  0.5761
13772SOL     OW59307   8.843  12.772   4.760  0.1698 -0.0988 -0.2397
13772SOL    HW159308   8.918  12.819   4.724 -0.2634 -0.6391 -1.9580
13772SOL    HW259309   8.830  12.810   4.847  1.2880  1.2749 -0.6328
13773SOL     OW59310   4.138  11.645   0.732 -0.0919  0.0657  0.0963
13773SOL    HW159311   4.101  11.624   0.646  0.0888 -1.5973  0.3984
13773SOL    HW259312   4.064  11.678   0.782 -1.3546 -3.4008  0.7558
13774SOL     OW59313   8.887   1.471  11.514 -0.2384 -0.0746  0.3320
13774SOL    HW159314   8.888   1.549  11.569  2.2318  0.4674 -0.3454
13774SOL    HW259315   8.897   1.504  11.424  1.2104 -1.1109  0.0614
13775SOL     OW59316   6.845   2.901  10.825 -0.0383 -0.6857  0.3787
13775SOL    HW159317   6.863   2.866  10.912 -0.1473 -1.1643  0.2120
13775SOL    HW259318   6.761   2.862  10.800 -1.0445  1.0031  0.8782
13776SOL     OW59319   6.924   4.515  10.729  0.1822  0.0231  0.3344
13776SOL    HW159320   6.846   4.460  10.737 -0.5397  0.7147 -1.5493
13776SOL    HW259321   6.995   4.460  10.760 -0.6824 -1.5522 -0.3813
13777SOL     OW59322   5.883  11.118   9.889  0.1321 -0.4270  0.1876
13777SOL    HW159323   5.894  11.057   9.963 -1.1088 -0.2694  0.5193
13777SOL    HW259324   5.972  11.150   9.872  0.5246 -0.8999  1.2397
13778SOL     OW59325   6.119   9.397   4.854 -0.5634 -0.2438 -0.1628
13778SOL    HW159326   6.061   9.356   4.918  0.1772  0.1598  0.7946
13778SOL    HW259327   6.113   9.491   4.871 -0.0482 -0.1589 -0.4212
13779SOL     OW59328   8.462   4.136  12.991 -0.0179 -0.4474  0.2068
13779SOL    HW159329   8.506   4.204  13.042 -1.2320  0.0987  0.5612
13779SOL    HW259330   8.462   4.171  12.901  2.0254 -1.3627 -0.2044
13780SOL     OW59331   2.652  10.142   9.961 -0.5926  0.1459 -0.2698
13780SOL    HW159332   2.725  10.086   9.936 -0.2844 -0.4720  1.8232
13780SOL    HW259333   2.686  10.194  10.034 -1.8317  0.8678 -0.1753
13781SOL     OW59334   7.442   2.646   2.462  0.1357  0.5391 -0.0454
13781SOL    HW159335   7.511   2.582   2.443  1.8536  1.6201  2.0754
13781SOL    HW259336   7.388   2.604   2.529  0.2471  0.6631  0.1222
13782SOL     OW59337  11.313   5.072  11.934 -0.1004 -0.3197 -0.1382
13782SOL    HW159338  11.385   5.134  11.923  0.1979 -0.6076  0.1643
13782SOL    HW259339  11.256   5.113  11.999 -0.4682  0.1341 -0.7391
13783SOL     OW59340   2.033  11.060   0.784  0.3994  0.4311  0.3306
13783SOL    HW159341   1.982  10.988   0.822 -1.3047  1.5815  0.3152
13783SOL    HW259342   2.124  11.032   0.795 -0.1385 -0.8607  2.0700
13784SOL     OW59343   9.057  13.179   6.384 -0.0758  0.1551 -0.2564
13784SOL    HW159344   8.963  13.199   6.383  0.0155  0.8893  1.7601
13784SOL    HW259345   9.075  13.151   6.474  1.6602  0.1377 -0.5779
13785SOL     OW59346   4.206   7.299   6.385 -0.2119 -0.4930  0.1460
13785SOL    HW159347   4.153   7.379   6.385 -0.8248 -0.8691  1.3964
13785SOL    HW259348   4.195   7.262   6.297  1.7829  1.8503 -1.2072
13786SOL     OW59349  11.626   9.634   9.021  0.0879  0.2038  0.5064
13786SOL    HW159350  11.677   9.627   8.940  0.9753  0.0059  1.0787
13786SOL    HW259351  11.662   9.710   9.066  0.2546 -0.2654  1.1732
13787SOL     OW59352  12.516  10.341   0.901  0.1323  0.1855 -1.6033
13787SOL    HW159353  12.611  10.329   0.911 -0.0979 -0.1575  0.9524
13787SOL    HW259354  12.486  10.259   0.862  0.6543 -0.6590 -0.3105
13788SOL     OW59355  10.382  11.729   6.362 -0.1253 -0.0706  0.1792
13788SOL    HW159356  10.438  11.697   6.432  0.7267  1.8070  0.4230
13788SOL    HW259357  10.443  11.769   6.299 -1.0830  0.9572 -0.1382
13789SOL     OW59358  11.344   4.974   0.984  0.4639  1.1406 -0.3365
13789SOL    HW159359  11.366   4.926   1.063  0.2803  0.9950 -0.3719
13789SOL    HW259360  11.311   4.907   0.924  0.9690  1.1931 -0.6760
13790SOL     OW59361  12.134  13.578  10.279 -0.2493 -0.0712 -0.0073
13790SOL    HW159362  12.055  13.632  10.272  0.1366  0.5567  0.4364
13790SOL    HW259363  12.161  13.586  10.371  1.3116  1.1282 -0.5321
13791SOL     OW59364   8.433  13.020   8.594  0.2363 -0.4122 -0.3591
13791SOL    HW159365   8.363  13.066   8.639  1.0358  1.1361 -0.6211
13791SOL    HW259366   8.429  13.053   8.504  0.0717 -1.7765 -0.8691
13792SOL     OW59367  11.644  13.343   2.712  0.3628  0.0519 -0.3411
13792SOL    HW159368  11.675  13.423   2.670  1.0153  0.1093  0.2337
13792SOL    HW259369  11.612  13.289   2.640  2.2804 -0.2120 -1.0604
13793SOL     OW59370   3.655   6.484   2.180 -0.0186  0.6211 -0.0149
13793SOL    HW159371   3.720   6.417   2.163 -0.4989  0.0442  0.3872
13793SOL    HW259372   3.575   6.436   2.201 -0.2550  1.3080  0.7341
13794SOL     OW59373   9.240   4.075   7.286 -0.1191  0.2474 -0.3998
13794SOL    HW159374   9.177   4.121   7.342 -1.8362 -1.0578 -1.1568
13794SOL    HW259375   9.238   3.985   7.318  0.2570 -0.1163 -1.3767
13795SOL     OW59376  13.601   4.850  11.122  0.7468 -0.0089 -0.4463
13795SOL    HW159377  13.533   4.885  11.064  0.2958  0.2312  0.2137
13795SOL    HW259378  13.633   4.772  11.077 -1.8896 -1.7514  0.4605
13796SOL     OW59379   3.397  11.348  10.640  0.0501  0.2983  0.0752
13796SOL    HW159380   3.398  11.340  10.735 -1.7467  0.0300  0.1190
13796SOL    HW259381   3.370  11.262  10.609  0.5302  0.4107 -0.6786
13797SOL     OW59382   8.157   4.945   2.004  0.1674  0.3253 -0.6696
13797SOL    HW159383   8.082   5.002   2.017 -0.2172 -0.2115 -0.4903
13797SOL    HW259384   8.150   4.916   1.913 -1.2010 -1.5950 -0.0142
13798SOL     OW59385   5.953   8.887   6.532 -0.0402 -0.5618 -0.0342
13798SOL    HW159386   5.929   8.870   6.441 -0.0875  0.8650 -0.3142
13798SOL    HW259387   5.966   8.800   6.570 -1.8070 -1.2545 -0.8982
13799SOL     OW59388   2.246  12.964   0.963 -0.3869 -0.0524 -0.6338
13799SOL    HW159389   2.283  12.926   0.884  2.0579  0.9459 -0.0683
13799SOL    HW259390   2.199  13.042   0.933 -1.3269 -0.8528 -1.2866
13800SOL     OW59391  13.897  10.294   2.312 -0.9836 -0.4870  0.4133
13800SOL    HW159392  13.923  10.223   2.370  1.4002  0.1473  0.2313
13800SOL    HW259393  13.931  10.268   2.226 -0.5689  0.5774  0.2381
13801SOL     OW59394   6.249   1.852   6.097 -0.2701 -0.1527  0.5188
13801SOL    HW159395   6.323   1.912   6.102 -1.8076  1.7885  1.0157
13801SOL    HW259396   6.287   1.771   6.063  2.1489  0.6098  1.1969
13802SOL     OW59397  13.987   6.288   7.289 -0.1847  0.0604  0.1086
13802SOL    HW159398  13.972   6.196   7.264  0.9935 -0.5985  1.7015
13802SOL    HW259399  13.900   6.321   7.311 -0.5362 -0.8581  0.1417
13803SOL     OW59400   8.595  12.713   2.670 -0.1750 -0.4930 -0.3539
13803SOL    HW159401   8.517  12.685   2.719 -0.4027 -0.5727 -0.7543
13803SOL    HW259402   8.562  12.776   2.606  0.4927  1.5129  1.2123
13804SOL     OW59403   6.122   1.511  13.729  0.9259 -0.2789 -0.2847
13804SOL    HW159404   6.072   1.505  13.810  1.9981  0.0327  0.4241
13804SOL    HW259405   6.155   1.422  13.715  2.0733  0.0010  0.5166
13805SOL     OW59406   0.483  12.632  13.373  0.2192 -0.4941  0.4503
13805SOL    HW159407   0.545  12.577  13.421  1.5775  0.4573 -0.1643
13805SOL    HW259408   0.487  12.599  13.283 -0.7933 -0.9462  0.5567
13806SOL     OW59409   2.927   2.486   7.028 -0.2163 -0.3586 -0.6259
13806SOL    HW159410   2.987   2.449   7.093 -0.7874 -2.7327 -1.3693
13806SOL    HW259411   2.898   2.569   7.066  0.1333 -1.2672  1.7346
13807SOL     OW59412  11.590  10.547   4.555 -0.6140  0.0887 -0.4549
13807SOL    HW159413  11.594  10.642   4.568  0.4098 -0.3130  3.6453
13807SOL    HW259414  11.529  10.516   4.622  0.2024 -2.2359 -0.7004
13808SOL     OW59415  10.010  11.546   5.112 -0.2500 -0.5620 -0.2844
13808SOL    HW159416   9.974  11.558   5.025 -0.6725  2.9402  0.2505
13808SOL    HW259417   9.944  11.582   5.171  0.1017 -2.6806  1.5681
13809SOL     OW59418   7.876   6.185   3.859  0.1104  0.2595 -0.2198
13809SOL    HW159419   7.852   6.190   3.767 -0.8941 -2.9767 -0.2713
13809SOL    HW259420   7.935   6.110   3.864 -0.8710 -0.4614  1.8938
13810SOL     OW59421  11.528   8.538   2.347  0.0543  0.9554 -0.8651
13810SOL    HW159422  11.445   8.541   2.393  0.0675  0.6349 -0.8188
13810SOL    HW259423  11.589   8.500   2.410  0.1736  0.9287 -0.9966
13811SOL     OW59424  11.136  10.583   1.157 -0.0001 -0.2722  0.1105
13811SOL    HW159425  11.199  10.632   1.105 -0.8251  1.3713  0.6212
13811SOL    HW259426  11.086  10.533   1.092 -0.2364  0.8347 -0.5886
13812SOL     OW59427  14.040  13.559   0.891 -0.4011  0.3238 -0.1971
13812SOL    HW159428  13.961  13.547   0.839 -0.0592  2.4775 -1.3723
13812SOL    HW259429  14.025  13.640   0.940 -0.4702 -1.3217  2.7488
13813SOL     OW59430   3.465   0.870   8.484  0.0587  0.1946  0.3499
13813SOL    HW159431   3.489   0.937   8.419  0.6652  0.5805  0.9582
13813SOL    HW259432   3.417   0.919   8.551 -1.1869 -0.3264 -0.1443
13814SOL     OW59433   2.723  13.994   0.136 -0.3024  0.3185 -0.1365
13814SOL    HW159434   2.809  14.027   0.164 -0.7510  1.7605 -0.3813
13814SOL    HW259435   2.662  14.063   0.163 -1.2169 -0.0722 -1.1805
13815SOL     OW59436  11.129   3.201  13.601 -0.2393 -0.2914 -0.2143
13815SOL    HW159437  11.208   3.242  13.565 -0.3601  0.5108  0.4047
13815SOL    HW259438  11.154   3.110  13.617  0.2972 -0.2566 -0.8226
13816SOL     OW59439  13.469  13.060  13.589  0.4594  0.0999  0.1340
13816SOL    HW159440  13.432  13.053  13.677 -0.1965 -0.1707 -0.1552
13816SOL    HW259441  13.394  13.081  13.533  1.1956  2.3793 -0.0746
13817SOL     OW59442   8.087   7.670  13.877 -0.3020  0.5331 -0.5833
13817SOL    HW159443   7.994   7.657  13.862 -0.2714 -0.5836  0.0287
13817SOL    HW259444   8.110   7.746  13.824 -0.9629 -0.8391 -2.9877
13818SOL     OW59445  11.508  12.436   6.221 -0.2400 -0.2084 -0.5999
13818SOL    HW159446  11.417  12.449   6.197 -0.0708  1.4434 -0.4154
13818SOL    HW259447  11.545  12.387   6.147 -0.6867  1.3154 -1.8916
13819SOL     OW59448   3.996   6.345   5.960 -0.2354 -0.1174 -0.2462
13819SOL    HW159449   4.000   6.329   5.865  2.5085  0.0442 -0.2318
13819SOL    HW259450   4.085   6.373   5.983 -1.4019  2.0837  2.0181
13820SOL     OW59451  10.830  13.764  11.510  0.4217  0.4103  0.0540
13820SOL    HW159452  10.895  13.737  11.446  0.0518  1.2979 -0.7190
13820SOL    HW259453  10.831  13.695  11.576  1.6215  0.0514 -0.3151
13821SOL     OW59454   6.349  11.187  12.009 -0.1187 -0.2445  0.1777
13821SOL    HW159455   6.340  11.137  12.090  0.4581  0.2903  0.5868
13821SOL    HW259456   6.326  11.126  11.940 -0.8377 -0.6456  0.7616
13822SOL     OW59457   4.355  11.755  11.456  0.3140  0.3992  0.1918
13822SOL    HW159458   4.303  11.683  11.491  1.3647 -0.1660  0.5984
13822SOL    HW259459   4.297  11.795  11.391 -0.1934 -0.9732 -0.2454
13823SOL     OW59460  13.760   2.614  11.574  0.3113 -0.4480  1.0109
13823SOL    HW159461  13.849   2.584  11.592  0.7801  0.3441  0.0660
13823SOL    HW259462  13.756   2.702  11.610 -0.4886 -0.8966  2.1051
13824SOL     OW59463  11.617   0.631   3.427 -0.3788 -0.2546  0.3102
13824SOL    HW159464  11.694   0.573   3.432  0.1098  0.4570  1.3723
13824SOL    HW259465  11.646   0.713   3.467 -1.3334  0.4438 -0.3818
13825SOL     OW59466  12.188   1.195   5.907 -0.6307  0.7857  0.3673
13825SOL    HW159467  12.159   1.130   5.971  1.3459  0.0879  0.6033
13825SOL    HW259468  12.163   1.279   5.945 -0.1392  0.3356  1.7274
13826SOL     OW59469   5.484  13.466   9.413 -0.1537  0.4104 -0.0254
13826SOL    HW159470   5.491  13.555   9.378 -0.0991  1.4751  2.4522
13826SOL    HW259471   5.562  13.456   9.468 -0.7594 -0.7392  0.6580
13827SOL     OW59472   0.708   7.710   7.888 -0.0510 -0.6920  0.0494
13827SOL    HW159473   0.756   7.663   7.820  0.5971 -1.5130  1.0440
13827SOL    HW259474   0.775   7.761   7.934 -0.5618  0.2709 -0.2328
13828SOL     OW59475  13.640   8.733   7.014 -0.4715 -0.5483  0.3361
13828SOL    HW159476  13.572   8.795   7.042 -1.5729 -2.0514  1.1543
13828SOL    HW259477  13.706   8.737   7.083  0.7546  1.4886 -0.8356
13829SOL     OW59478   6.236   2.151   5.600 -0.8381 -0.0931 -0.0875
13829SOL    HW159479   6.209   2.079   5.658  0.8501 -0.1223  0.7203
13829SOL    HW259480   6.162   2.211   5.600 -1.9448 -1.4145 -0.0790
13830SOL     OW59481   9.744   8.218   8.325 -0.1235 -0.4078 -0.6647
13830SOL    HW159482   9.823   8.271   8.312 -0.6280  0.3562 -0.7052
13830SOL    HW259483   9.753   8.145   8.264 -0.0758  0.4076 -1.6613
13831SOL     OW59484   2.204  11.467  13.054  0.3378 -0.0041  0.8255
13831SOL    HW159485   2.182  11.490  12.964 -1.9703 -1.3132  0.9790
13831SOL    HW259486   2.142  11.517  13.107 -0.1621 -1.3127  1.5082
13832SOL     OW59487  11.444   1.106   7.318  0.4102  0.5979  0.2685
13832SOL    HW159488  11.368   1.158   7.344  0.2441 -0.4574  2.0851
13832SOL    HW259489  11.491   1.091   7.399  1.5809 -0.3214 -0.5480
13833SOL     OW59490   5.506   2.237   4.654  0.4401  0.3891  0.2951
13833SOL    HW159491   5.478   2.279   4.573  3.4377  1.7353 -0.1789
13833SOL    HW259492   5.554   2.159   4.626  1.4340  0.8228  0.7068
13834SOL     OW59493   9.215   8.289  13.087 -0.2921 -0.6221  0.1794
13834SOL    HW159494   9.174   8.305  13.173  1.4971 -0.4958  1.0429
13834SOL    HW259495   9.144   8.302  13.024 -1.3155  0.7026  1.5438
13835SOL     OW59496  10.835   7.249   2.654 -0.2800  0.3924 -0.1090
13835SOL    HW159497  10.788   7.219   2.577  0.4178 -0.3322 -0.2603
13835SOL    HW259498  10.927   7.249   2.628 -0.1730  1.8134  0.1773
13836SOL     OW59499   5.331   4.938   8.062 -0.3274 -0.0984 -0.2032
13836SOL    HW159500   5.255   4.901   8.107  0.8876 -0.6440  1.5235
13836SOL    HW259501   5.395   4.867   8.060  0.6414  0.7488 -0.3667
13837SOL     OW59502   9.999   0.071   0.251  0.3816  0.2848  0.0671
13837SOL    HW159503  10.035  -0.017   0.237 -0.7175 -0.4021  1.3828
13837SOL    HW259504   9.925   0.076   0.191  0.1199  0.1058  0.3727
13838SOL     OW59505   1.385   7.744  12.835 -0.7924  0.5600 -0.6142
13838SOL    HW159506   1.449   7.715  12.771 -0.0773 -0.0826  0.3751
13838SOL    HW259507   1.307   7.765  12.783 -0.7484 -1.4183 -1.5641
13839SOL     OW59508   2.670  13.256   6.644  0.2721  0.0741  0.2407
13839SOL    HW159509   2.702  13.188   6.703 -1.9542 -3.3734 -2.0954
13839SOL    HW259510   2.592  13.291   6.687  0.4008 -0.1761  0.6870
13840SOL     OW59511  13.695   7.659  11.096 -0.2982  0.0510  0.3078
13840SOL    HW159512  13.621   7.601  11.114  0.2715 -1.0624 -0.8240
13840SOL    HW259513  13.655   7.742  11.070 -1.1357 -0.3947  0.1590
13841SOL     OW59514  12.735   8.097   6.112  0.3031 -0.1227  0.2383
13841SOL    HW159515  12.800   8.102   6.042  0.3343 -1.3906  0.1397
13841SOL    HW259516  12.758   8.017   6.160 -1.9941 -1.4595 -0.6865
13842SOL     OW59517   1.038   1.916   8.491 -0.0472 -0.0990  0.2733
13842SOL    HW159518   1.116   1.861   8.478 -0.9428 -1.3238 -0.1019
13842SOL    HW259519   1.033   1.969   8.411  0.5063  0.1419  0.3898
13843SOL     OW59520  10.361   8.645   3.406 -0.5517 -0.0187 -0.0358
13843SOL    HW159521  10.441   8.695   3.423 -0.7378  0.8751 -1.5863
13843SOL    HW259522  10.387   8.554   3.418  0.8535  0.2256 -1.0054
13844SOL     OW59523   3.284   2.991   1.761  0.2554 -0.4783 -0.2542
13844SOL    HW159524   3.260   2.926   1.826 -1.1331 -0.3059 -0.5587
13844SOL    HW259525   3.277   2.945   1.677 -0.4447 -0.0417 -0.4473
13845SOL     OW59526  10.478   2.181  13.597  0.1107 -0.0643  0.1494
13845SOL    HW159527  10.456   2.089  13.581  3.9940 -0.8255 -2.1242
13845SOL    HW259528  10.538   2.178  13.672  1.3597  0.3558 -0.7980
13846SOL     OW59529   0.657  11.740   2.223 -0.1155 -0.6169  0.3379
13846SOL    HW159530   0.636  11.720   2.132 -0.8739 -1.4877  0.6894
13846SOL    HW259531   0.664  11.835   2.226 -1.7109 -0.4537 -0.2894
13847SOL     OW59532   2.825  10.148   2.610 -0.1380 -0.2242 -0.3099
13847SOL    HW159533   2.775  10.226   2.587  0.2889  0.3711  0.7141
13847SOL    HW259534   2.762  10.076   2.603 -0.7165  0.2990 -0.5898
13848SOL     OW59535  13.580  12.905  13.205  0.0906  0.0137 -0.1199
13848SOL    HW159536  13.641  12.898  13.279  1.4304 -0.6473 -1.2429
13848SOL    HW259537  13.605  12.834  13.147 -1.4883  0.0120 -0.8354
13849SOL     OW59538   7.513  10.011  11.794  0.1790 -0.7375 -0.2151
13849SOL    HW159539   7.536   9.918  11.783  1.1661 -0.4233 -0.8993
13849SOL    HW259540   7.597  10.057  11.795 -0.3168  0.1957 -0.2762
13850SOL     OW59541   4.692   8.644   2.632  0.5205  0.4435 -0.1259
13850SOL    HW159542   4.671   8.568   2.579 -1.3273  1.4946 -0.9885
13850SOL    HW259543   4.611   8.666   2.677  1.4855  0.8752  1.5105
13851SOL     OW59544   3.871   4.494   5.959 -0.5903 -0.0290  0.1691
13851SOL    HW159545   3.964   4.510   5.974 -0.3870 -0.2221 -0.7851
13851SOL    HW259546   3.868   4.450   5.874 -1.2635 -3.6329  1.8849
13852SOL     OW59547   9.054   8.329   4.222 -0.2556  0.5373 -0.4783
13852SOL    HW159548   9.142   8.349   4.254 -0.5736  1.0526  0.1049
13852SOL    HW259549   9.064   8.319   4.128  0.3343  1.1379 -0.4871
13853SOL     OW59550   8.763   5.128   2.089  0.3685 -0.3107  0.6318
13853SOL    HW159551   8.681   5.175   2.098 -0.2353 -1.2687  0.3238
13853SOL    HW259552   8.787   5.104   2.179  1.5829  2.0039  0.9931
13854SOL     OW59553   9.661  10.789   1.137  0.2449  0.1045 -0.3206
13854SOL    HW159554   9.693  10.785   1.227  0.5164 -2.3136 -0.4552
13854SOL    HW259555   9.576  10.745   1.141  1.4028 -2.4583 -1.6207
13855SOL     OW59556   5.127   0.608   8.385  0.0325  0.0707 -0.3371
13855SOL    HW159557   5.199   0.548   8.368  0.2457 -0.1241  1.1130
13855SOL    HW259558   5.055   0.575   8.332  0.4321 -0.9010 -0.2914
13856SOL     OW59559   6.902   2.486  12.450  0.2673  0.2454 -0.1889
13856SOL    HW159560   6.948   2.411  12.413 -1.4476 -1.7587  1.4894
13856SOL    HW259561   6.924   2.485  12.543 -0.0928  1.6168 -0.0588
13857SOL     OW59562   8.171  13.231   1.456 -0.2889 -0.0638 -0.1043
13857SOL    HW159563   8.242  13.211   1.396  1.1831 -1.3552  1.9352
13857SOL    HW259564   8.139  13.317   1.428  1.8131  0.3749 -1.3290
13858SOL     OW59565   1.373   0.009   6.877 -0.3378 -0.5072 -0.3478
13858SOL    HW159566   1.365   0.052   6.962 -1.1683  0.1334 -0.7369
13858SOL    HW259567   1.295  -0.046   6.870 -0.4703 -0.2624 -0.8545
13859SOL     OW59568  14.097   2.231  11.701 -0.4719 -0.0733  0.1941
13859SOL    HW159569  14.187   2.238  11.732 -0.3188 -0.9609 -0.0358
13859SOL    HW259570  14.057   2.163  11.756 -0.7897 -0.2041 -0.1941
13860SOL     OW59571   6.404   9.302   5.549  0.1422 -0.0769  0.0678
13860SOL    HW159572   6.352   9.371   5.507 -0.5937 -0.2471  0.6614
13860SOL    HW259573   6.340   9.253   5.600  0.9933  0.1086  1.3541
13861SOL     OW59574   8.171   9.881  10.280 -0.4097  0.4361  0.4993
13861SOL    HW159575   8.165   9.848  10.370  0.1796  1.7296  1.0481
13861SOL    HW259576   8.093   9.936  10.270 -1.4956 -1.1882 -0.4740
13862SOL     OW59577   7.510   7.522   6.049 -0.2913 -0.3668  0.1063
13862SOL    HW159578   7.500   7.429   6.070 -0.5011 -0.1046  1.2694
13862SOL    HW259579   7.435   7.542   5.993  0.0065 -0.9943 -0.5298
13863SOL     OW59580   1.143  14.005   6.806 -0.2367 -0.4026 -0.1781
13863SOL    HW159581   1.152  13.910   6.814 -0.0739 -0.2409  2.2528
13863SOL    HW259582   1.049  14.020   6.801 -0.2391 -0.7087 -1.2405
13864SOL     OW59583  10.144   0.338   5.789  0.2212  0.0929  0.6203
13864SOL    HW159584  10.060   0.363   5.827  0.4551 -0.9530  1.8916
13864SOL    HW259585  10.150   0.244   5.803  1.2153  0.0074 -0.2465
13865SOL     OW59586  13.799   9.996   6.748 -0.7568 -0.2412  0.0904
13865SOL    HW159587  13.755  10.062   6.802 -0.8789  0.6508 -1.0610
13865SOL    HW259588  13.753  10.000   6.664  0.1966 -0.7597 -0.4645
13866SOL     OW59589   6.751   5.394   0.369  0.3387 -0.1184  0.0408
13866SOL    HW159590   6.757   5.487   0.346 -3.6833  1.2466  3.3045
13866SOL    HW259591   6.811   5.384   0.442  0.5347  0.0086 -0.1011
13867SOL     OW59592   2.618  11.944  13.680 -0.6948 -0.4081  0.1636
13867SOL    HW159593   2.571  11.881  13.734 -1.7478 -0.1523 -0.4284
13867SOL    HW259594   2.557  12.017  13.670 -0.2468 -0.1483 -0.7729
13868SOL     OW59595   1.976   9.355   7.786  0.7627 -0.1271  0.3706
13868SOL    HW159596   2.038   9.347   7.713  2.2429 -0.2614  1.5735
13868SOL    HW259597   1.929   9.271   7.787 -1.8649  1.1154 -2.5357
13869SOL     OW59598   1.190   7.807   6.778  0.2193 -0.4988 -0.2394
13869SOL    HW159599   1.151   7.761   6.704 -0.3693  0.0054 -0.2477
13869SOL    HW259600   1.176   7.749   6.853 -1.6095  0.1957 -0.0167
13870SOL     OW59601   2.891  12.889   2.297 -0.4896  0.5305 -0.6966
13870SOL    HW159602   2.981  12.922   2.297 -0.3447  0.1450 -0.5810
13870SOL    HW259603   2.856  12.916   2.382 -0.0381 -0.4795 -0.1686
13871SOL     OW59604   6.400   3.297   8.694 -0.2490 -0.0840  0.2938
13871SOL    HW159605   6.400   3.289   8.599 -0.8983  0.1506  0.2660
13871SOL    HW259606   6.464   3.232   8.724 -0.2934 -0.3982 -0.2845
13872SOL     OW59607  12.584  10.030  11.242  0.1409  0.7381  0.6047
13872SOL    HW159608  12.677  10.013  11.225 -0.2367 -0.8833  0.0497
13872SOL    HW259609  12.538   9.991  11.168 -1.0540  0.6632  1.3574
13873SOL     OW59610   3.182   8.831   1.829  0.3202  0.1122 -0.5353
13873SOL    HW159611   3.129   8.847   1.750 -0.0874  0.8370 -0.1242
13873SOL    HW259612   3.237   8.909   1.836  1.4320 -0.6061 -0.9259
13874SOL     OW59613   7.943   7.735   2.383 -0.9825  0.3583  0.2205
13874SOL    HW159614   7.847   7.728   2.383 -0.9410 -0.3345  0.5530
13874SOL    HW259615   7.968   7.722   2.474 -0.5127 -0.4336 -0.0125
13875SOL     OW59616   5.218   7.335   8.469  0.3982 -0.0701  0.2669
13875SOL    HW159617   5.215   7.356   8.562 -0.0947  0.1060  0.2134
13875SOL    HW259618   5.287   7.269   8.461 -0.5389 -1.1647  0.9646
13876SOL     OW59619   5.471  10.772   4.284 -0.8166  0.3504 -0.1934
13876SOL    HW159620   5.430  10.737   4.363 -1.8491 -0.7469 -1.1724
13876SOL    HW259621   5.468  10.867   4.295 -0.9860  0.2087  1.0580
13877SOL     OW59622  13.586   5.065   3.256  0.1527  0.1011 -0.1025
13877SOL    HW159623  13.671   5.034   3.285  0.6008  1.2202 -0.1374
13877SOL    HW259624  13.538   4.986   3.230  0.4929 -0.7285  1.6463
13878SOL     OW59625   0.302   1.632   4.803  0.1293 -0.4030 -0.4372
13878SOL    HW159626   0.274   1.722   4.821  1.0049 -0.4427  1.3694
13878SOL    HW259627   0.377   1.618   4.861  0.8848 -1.8633 -1.6722
13879SOL     OW59628   0.115   5.637  13.219  0.1480  0.0869  0.2962
13879SOL    HW159629   0.075   5.637  13.132  1.0717  0.9650 -0.1531
13879SOL    HW259630   0.209   5.641  13.202  0.3131  1.1465  1.3311
13880SOL     OW59631   3.583   5.528   1.318 -0.8682 -0.0484 -0.0766
13880SOL    HW159632   3.611   5.498   1.231  0.9391  0.3173  0.3261
13880SOL    HW259633   3.495   5.563   1.305 -0.6721 -0.1016 -1.7389
13881SOL     OW59634   4.354   0.371   5.589  0.1985 -0.4784 -0.3364
13881SOL    HW159635   4.264   0.390   5.563  0.6518  1.1380 -0.8832
13881SOL    HW259636   4.353   0.377   5.685 -0.5327 -1.8553 -0.2358
13882SOL     OW59637   1.752   4.484  11.664  0.1507  0.3331  0.4331
13882SOL    HW159638   1.844   4.484  11.688 -0.3965 -0.3013  2.8030
13882SOL    HW259639   1.712   4.418  11.721 -1.4635 -0.8830 -1.9316
13883SOL     OW59640   5.023   0.738   6.934 -0.0896 -0.0745  0.3192
13883SOL    HW159641   5.014   0.650   6.968  0.0486  0.3190  1.4035
13883SOL    HW259642   5.100   0.774   6.978 -0.8061  0.9746  0.7615
13884SOL     OW59643   7.790  10.708  13.029  0.3352 -0.3765 -0.0665
13884SOL    HW159644   7.844  10.653  12.974  1.0872 -0.0190  0.2947
13884SOL    HW259645   7.726  10.648  13.068 -0.0016 -0.6746 -1.0719
13885SOL     OW59646  12.610  13.337   7.328  0.0936  0.6950  0.6612
13885SOL    HW159647  12.668  13.275   7.283 -0.4189  0.7605 -0.1125
13885SOL    HW259648  12.538  13.283   7.361  0.1599  0.7374  0.8790
13886SOL     OW59649   3.909  13.130   0.588  0.0543 -0.7097  0.0549
13886SOL    HW159650   3.996  13.092   0.574 -0.7654 -2.0456 -1.8486
13886SOL    HW259651   3.888  13.171   0.504 -1.7027 -1.5963  0.0371
13887SOL     OW59652  10.388  11.329   4.240  0.2319  0.5156  0.7758
13887SOL    HW159653  10.311  11.322   4.296 -0.5494  1.1421 -0.1853
13887SOL    HW259654  10.430  11.243   4.245  0.4454  0.6976  2.6626
13888SOL     OW59655   3.810   9.957   4.669  0.4834  0.0868  0.1491
13888SOL    HW159656   3.737   9.942   4.729 -0.7502  0.6300 -1.1531
13888SOL    HW259657   3.883   9.911   4.709 -0.2070  0.6483  2.1917
13889SOL     OW59658   4.801   3.239  11.340 -0.2313  1.0088 -0.2497
13889SOL    HW159659   4.783   3.325  11.379 -0.3959  1.0006 -0.3072
13889SOL    HW259660   4.737   3.231  11.270 -2.7705 -0.7526  2.0836
13890SOL     OW59661   2.502   9.103  12.755  0.4966  0.2579 -0.9227
13890SOL    HW159662   2.490   9.063  12.669  0.4263 -0.6908 -0.4839
13890SOL    HW259663   2.592   9.082  12.780  0.7761  1.2019 -1.0943
13891SOL     OW59664   3.700  12.663   0.740 -0.6093 -0.1729 -0.4781
13891SOL    HW159665   3.605  12.651   0.739 -0.7993  0.7650  1.2868
13891SOL    HW259666   3.727  12.627   0.825  0.2682  1.6177  0.0478
13892SOL     OW59667   8.018  12.573   3.357  0.6631 -0.0818  0.3799
13892SOL    HW159668   7.977  12.486   3.357 -0.2868  0.3072 -1.3559
13892SOL    HW259669   8.105  12.558   3.321  0.5183 -0.3257  0.1256
13893SOL     OW59670  13.799  11.373   6.710  0.1469 -0.5721 -0.1732
13893SOL    HW159671  13.739  11.396   6.781  0.5922  0.0170  0.0202
13893SOL    HW259672  13.783  11.281   6.694  0.9748 -1.0828  1.6200
13894SOL     OW59673   1.752   0.051   8.405  0.0155  0.4574 -0.1506
13894SOL    HW159674   1.754   0.129   8.349 -0.3122  1.3738  1.0708
13894SOL    HW259675   1.700  -0.013   8.355  0.4807  0.9255 -1.2697
13895SOL     OW59676   0.832   3.858  11.520 -0.4821  0.1330 -0.0789
13895SOL    HW159677   0.896   3.895  11.460 -1.3161  0.4398 -0.7934
13895SOL    HW259678   0.884   3.803  11.579  0.6525  1.6064  0.3554
13896SOL     OW59679  13.076   1.548   1.952 -0.2649  0.3970 -0.1192
13896SOL    HW159680  13.085   1.568   1.859 -2.5629  1.4098 -0.1937
13896SOL    HW259681  13.159   1.505   1.976  0.7689  1.0015 -2.3703
13897SOL     OW59682  10.020  12.233  11.645 -0.8454  0.0827  0.2056
13897SOL    HW159683  10.049  12.142  11.654 -1.2846 -0.3916 -2.3078
13897SOL    HW259684  10.067  12.281  11.714  2.6121 -1.3297 -0.9506
13898SOL     OW59685   4.438   2.902  10.851 -0.3299  0.1354 -0.2902
13898SOL    HW159686   4.501   2.845  10.808 -2.1058  0.8718 -4.2515
13898SOL    HW259687   4.377   2.841  10.894  0.2469 -0.7317 -0.6763
13899SOL     OW59688   9.951   8.707   1.777 -0.5083 -0.1980 -0.0825
13899SOL    HW159689   9.893   8.783   1.780 -1.1352 -0.5196 -2.2731
13899SOL    HW259690   9.919   8.650   1.847 -3.0712 -0.4746 -1.3778
13900SOL     OW59691  10.414   2.846  10.546  0.4402  0.5186  0.3891
13900SOL    HW159692  10.452   2.800  10.621 -1.3272 -3.0264 -0.6660
13900SOL    HW259693  10.464   2.814  10.471 -0.8712  0.2495 -0.4031
13901SOL     OW59694   7.410   5.932  13.597 -0.0071  0.6810  0.2609
13901SOL    HW159695   7.436   5.879  13.672  1.7016  1.9041  0.5808
13901SOL    HW259696   7.444   5.885  13.521  0.6295  0.8026  0.4681
13902SOL     OW59697   3.420  10.970   9.679 -0.6287 -0.3091 -0.1037
13902SOL    HW159698   3.464  10.887   9.701 -0.1730 -0.2721 -0.8503
13902SOL    HW259699   3.350  10.945   9.619 -0.6229 -0.1783 -0.1655
13903SOL     OW59700  12.312   6.341  10.290 -0.1850  0.0057  0.1473
13903SOL    HW159701  12.270   6.331  10.375  0.8496 -0.4257  0.6256
13903SOL    HW259702  12.284   6.427  10.260  0.1185  0.5454  1.3299
13904SOL     OW59703   9.335   3.582  11.937 -0.2380  0.1548  0.3891
13904SOL    HW159704   9.366   3.491  11.936 -2.3278 -0.6141 -0.9194
13904SOL    HW259705   9.413   3.633  11.918  1.1530 -1.2590  1.8727
13905SOL     OW59706   8.954   5.764   2.140 -0.2746 -0.4240 -0.7482
13905SOL    HW159707   9.020   5.740   2.075  0.3250  0.7227 -0.5890
13905SOL    HW259708   9.004   5.797   2.215 -0.9893 -0.8492 -0.0716
13906SOL     OW59709   8.801   9.022   5.752 -0.0424  0.2512 -0.4189
13906SOL    HW159710   8.846   9.090   5.702 -0.2219 -0.2700 -1.3103
13906SOL    HW259711   8.709   9.030   5.727 -0.7229  2.0049  2.1832
13907SOL     OW59712   1.026   7.063   0.994  0.3802 -0.0773  0.3099
13907SOL    HW159713   0.977   7.056   1.076  2.0168  0.2519  1.3568
13907SOL    HW259714   1.023   7.157   0.972  2.1531  0.2943  1.4574
13908SOL     OW59715  11.323   8.437   2.491  0.3484  0.1670  0.9423
13908SOL    HW159716  11.262   8.414   2.561  0.8146 -0.8788  1.0145
13908SOL    HW259717  11.347   8.354   2.451 -1.3825  0.8144 -1.7625
13909SOL     OW59718   3.343  11.876   8.686 -0.7955  0.4757  0.7445
13909SOL    HW159719   3.403  11.843   8.619 -1.7665  0.1916 -0.0122
13909SOL    HW259720   3.348  11.971   8.678  0.3501  0.4988  1.4314
13910SOL     OW59721   4.078  10.237   6.903 -0.5712  0.1704  0.2476
13910SOL    HW159722   4.148  10.172   6.894  1.0964  1.7484  1.2919
13910SOL    HW259723   4.055  10.259   6.812  1.8998  1.2282 -0.2099
13911SOL     OW59724   1.859   9.596  12.557 -0.3895 -0.1068  0.9925
13911SOL    HW159725   1.887   9.508  12.529 -0.0368  0.3475 -0.1621
13911SOL    HW259726   1.790   9.619  12.495 -0.1983  0.5916  1.0358
13912SOL     OW59727   9.145   1.774   4.047 -0.0356 -0.0379  0.4244
13912SOL    HW159728   9.120   1.837   3.980  0.9577  1.1703  1.1315
13912SOL    HW259729   9.205   1.714   4.003 -2.0384 -1.3784 -0.6035
13913SOL     OW59730  12.913  12.913  13.612  0.7524 -0.4415 -0.3820
13913SOL    HW159731  12.968  12.949  13.542  0.4389 -1.0678 -0.9666
13913SOL    HW259732  12.829  12.896  13.571 -0.3262  1.6888  0.8129
13914SOL     OW59733   4.384   3.793   7.030 -0.1012  0.0879 -0.3714
13914SOL    HW159734   4.442   3.783   6.954  0.1514  0.4165 -0.2260
13914SOL    HW259735   4.363   3.704   7.056 -1.4867 -0.0496 -1.8044
13915SOL     OW59736  13.525   7.785  11.358  0.3548 -0.1201  0.0595
13915SOL    HW159737  13.434   7.791  11.386 -0.2643 -1.3982 -1.5386
13915SOL    HW259738  13.522   7.794  11.263  1.8797 -0.3824 -0.0421
13916SOL     OW59739   9.736   6.963   8.800  0.0498 -0.5919 -0.6017
13916SOL    HW159740   9.747   6.898   8.731 -0.2724 -0.0314 -1.1898
13916SOL    HW259741   9.705   6.912   8.876 -0.7897 -1.0502 -1.2311
13917SOL     OW59742  11.303  12.904   2.644 -0.2453 -0.0559 -0.4699
13917SOL    HW159743  11.287  12.814   2.617  0.4367  0.1663 -1.6531
13917SOL    HW259744  11.250  12.914   2.724  1.1178 -2.0605  0.7912
13918SOL     OW59745   6.528   2.131  11.839 -0.4550  0.0924 -0.3084
13918SOL    HW159746   6.589   2.116  11.766  0.7377 -1.1046  0.8830
13918SOL    HW259747   6.557   2.213  11.878  0.3707 -0.4338  0.2058
13919SOL     OW59748   0.668   1.962   7.164  0.2731 -0.4978  0.2970
13919SOL    HW159749   0.628   1.906   7.097 -0.1619  0.5467 -0.3456
13919SOL    HW259750   0.659   2.051   7.129  1.9823 -0.1146  0.7634
13920SOL     OW59751  12.887   8.601   7.480 -0.4630  0.1841  0.2224
13920SOL    HW159752  12.812   8.626   7.426 -1.4302 -2.2628  0.3258
13920SOL    HW259753  12.850   8.582   7.566  0.0639 -2.0265  0.0092
13921SOL     OW59754   0.474   3.140   2.931 -0.5413 -0.5116 -0.2181
13921SOL    HW159755   0.407   3.158   2.997  1.4609 -0.0766  1.7929
13921SOL    HW259756   0.446   3.191   2.855 -2.0893  0.2325  0.7885
13922SOL     OW59757   6.433  11.888  12.737  0.1445  0.1751 -0.3881
13922SOL    HW159758   6.341  11.916  12.739 -0.0116  0.1569  4.2455
13922SOL    HW259759   6.482  11.963  12.770  0.9307 -1.5279  2.7109
13923SOL     OW59760   1.870   0.371  11.240 -0.1212  0.4071  0.0316
13923SOL    HW159761   1.851   0.425  11.163  1.0512 -0.0287 -0.5847
13923SOL    HW259762   1.798   0.391  11.301 -1.2136  0.5723 -1.2536
13924SOL     OW59763   2.481  10.560   8.771 -0.3301  0.3332 -0.5636
13924SOL    HW159764   2.402  10.507   8.781  0.0784 -0.3729 -1.0079
13924SOL    HW259765   2.514  10.570   8.861 -0.3355 -0.2836 -0.4875
13925SOL     OW59766   6.443   3.502   4.206  0.1086 -0.5476  0.4998
13925SOL    HW159767   6.470   3.566   4.272  0.6918 -1.9556  1.6775
13925SOL    HW259768   6.353   3.527   4.184  0.7286  1.4182 -0.0505
13926SOL     OW59769  13.831   8.509   0.653  0.1989  0.1304 -0.2484
13926SOL    HW159770  13.854   8.417   0.637  1.2613  0.3201  0.0558
13926SOL    HW259771  13.736   8.510   0.656  0.0754 -0.6442 -2.1494
13927SOL     OW59772   4.998  13.167   5.648  0.4622  0.0458 -0.4504
13927SOL    HW159773   4.954  13.118   5.718  0.3752 -1.4243 -1.4833
13927SOL    HW259774   4.996  13.258   5.677  0.8851 -0.5678  1.7102
13928SOL     OW59775   4.733   8.957   7.500 -0.0398 -0.2632  1.2587
13928SOL    HW159776   4.772   9.032   7.544  0.1138 -0.1355  0.9056
13928SOL    HW259777   4.645   8.951   7.536  0.2539 -0.4751  1.9723
13929SOL     OW59778  10.414   2.525   3.506 -0.5376 -0.2880  0.7336
13929SOL    HW159779  10.421   2.435   3.476 -1.2401  0.1893 -0.9870
13929SOL    HW259780  10.456   2.577   3.437 -1.5395  0.8051  0.9086
13930SOL     OW59781  14.117   1.807  10.714  0.6643 -0.1716  0.4286
13930SOL    HW159782  14.094   1.766  10.798 -1.9518  0.9997  0.3777
13930SOL    HW259783  14.163   1.738  10.666  1.7636 -1.0474  2.5935
13931SOL     OW59784   3.867  11.430   6.793  0.1693 -0.0991 -0.1984
13931SOL    HW159785   3.890  11.523   6.799  2.8126 -0.8099  2.9657
13931SOL    HW259786   3.931  11.393   6.732  1.8793 -0.5035  1.7656
13932SOL     OW59787  12.921   7.076   3.545  0.2682  0.0131 -0.2448
13932SOL    HW159788  12.871   7.009   3.592  0.1223  0.2471 -0.0703
13932SOL    HW259789  13.007   7.035   3.531  0.0341 -0.3854 -0.5409
13933SOL     OW59790   6.550  11.356   3.626 -0.6740 -0.5350  0.1656
13933SOL    HW159791   6.542  11.307   3.708  2.1617  0.4034  1.1005
13933SOL    HW259792   6.493  11.432   3.638 -0.7464 -0.7101  1.0021
13934SOL     OW59793   3.252   0.808  11.876  0.0133  0.3236  0.2492
13934SOL    HW159794   3.298   0.725  11.889  1.0872  0.8273 -0.1523
13934SOL    HW259795   3.319   0.867  11.841 -0.5463  1.5739  1.2143
13935SOL     OW59796  13.970  13.145   3.015  0.7048  0.2405 -0.2032
13935SOL    HW159797  13.879  13.134   3.041  1.0880 -0.4918  0.8852
13935SOL    HW259798  13.985  13.239   3.020  0.4847  0.2167  1.3200
13936SOL     OW59799   5.781  11.295  12.584  0.1621  0.1241  0.6334
13936SOL    HW159800   5.859  11.343  12.615  0.4487 -0.8375  1.4432
13936SOL    HW259801   5.814  11.238  12.515 -0.0106  0.4272  0.2995
13937SOL     OW59802   7.084  13.469   0.316  0.3017 -0.1518 -0.5353
13937SOL    HW159803   7.166  13.480   0.268  0.1534  0.3568 -0.6736
13937SOL    HW259804   7.059  13.379   0.299  1.1904 -0.5339  0.0671
13938SOL     OW59805  12.315  11.278  12.011  0.0524  0.0750 -0.3647
13938SOL    HW159806  12.340  11.225  11.935  2.0116 -1.5985  1.3408
13938SOL    HW259807  12.364  11.241  12.084 -2.2634  1.1866  1.9127
13939SOL     OW59808  12.587   5.376   7.059 -0.2246 -0.0161 -0.8545
13939SOL    HW159809  12.555   5.359   7.147  0.0377 -0.7136 -0.8816
13939SOL    HW259810  12.515   5.352   7.001  0.3924 -1.8860 -0.9313
13940SOL     OW59811   0.198   6.588   6.289 -0.4669  0.2163  0.0229
13940SOL    HW159812   0.256   6.544   6.351  0.9139  0.8309 -0.8091
13940SOL    HW259813   0.169   6.667   6.336  0.0169  0.3263  0.1404
13941SOL     OW59814   6.930   7.686   9.139 -0.8929  0.0499 -0.4997
13941SOL    HW159815   7.016   7.723   9.159 -0.6724 -1.8828  2.8392
13941SOL    HW259816   6.946   7.624   9.068  0.1700  0.7165 -0.8604
13942SOL     OW59817   0.857   9.741   1.534  0.4382 -0.2536  0.3316
13942SOL    HW159818   0.885   9.661   1.579 -0.2813 -0.0977  1.0617
13942SOL    HW259819   0.866   9.720   1.441  1.7411 -0.6450  0.5183
13943SOL     OW59820   7.859   3.172   4.281  0.3198  0.5869  0.1160
13943SOL    HW159821   7.875   3.265   4.268  2.0313  0.2945 -0.1474
13943SOL    HW259822   7.939   3.140   4.323 -0.6782 -0.5742  1.2330
13944SOL     OW59823  12.253   7.053   1.720 -0.2394  1.0632 -0.1136
13944SOL    HW159824  12.244   7.143   1.753  1.4607  0.8927  0.9220
13944SOL    HW259825  12.326   7.016   1.771  0.4647 -0.2344 -1.9804
13945SOL     OW59826   2.370   7.582  10.434 -0.2348 -0.3231 -0.2864
13945SOL    HW159827   2.376   7.579  10.530  4.0353  0.5830 -0.2987
13945SOL    HW259828   2.387   7.492  10.406 -1.6664 -0.6249 -0.2344
13946SOL     OW59829   2.584  12.058   5.919  0.6468 -0.3675 -0.4616
13946SOL    HW159830   2.522  12.100   5.977  1.3862 -0.6202  0.5333
13946SOL    HW259831   2.601  12.123   5.851  1.8621  1.0539  1.1108
13947SOL     OW59832   5.948   6.981   8.234 -0.2294  0.5444  0.0643
13947SOL    HW159833   5.856   7.003   8.243 -0.5275 -0.4039 -0.4857
13947SOL    HW259834   5.981   6.976   8.324 -0.4227  1.9936  0.2293
13948SOL     OW59835   9.009   1.840  11.977  0.6562  0.3400 -0.0459
13948SOL    HW159836   8.948   1.882  12.038  0.1558  1.1939 -1.1169
13948SOL    HW259837   8.960   1.764  11.943  0.6304  0.3449 -0.0198
13949SOL     OW59838   6.038   1.156  10.000  0.1293 -0.3333  0.3288
13949SOL    HW159839   5.950   1.162  10.036 -1.3177 -0.4454 -2.8880
13949SOL    HW259840   6.087   1.105  10.064 -2.1504 -0.3928  2.1401
13950SOL     OW59841   0.930   4.351   9.895 -0.4373  0.6134 -0.0626
13950SOL    HW159842   0.960   4.363   9.985 -0.5024  0.9154 -0.0794
13950SOL    HW259843   0.864   4.419   9.882 -2.2406 -0.9608  0.4564
13951SOL     OW59844   0.678  11.898   6.645  0.1948  0.3603  0.3318
13951SOL    HW159845   0.734  11.826   6.615 -0.4857  0.3259 -0.9233
13951SOL    HW259846   0.615  11.856   6.704  0.0325 -0.0286 -0.1044
13952SOL     OW59847   0.204   3.836   8.726 -0.0646 -0.1965 -0.5908
13952SOL    HW159848   0.162   3.868   8.806  1.5506 -0.1566  0.2818
13952SOL    HW259849   0.253   3.759   8.754  0.8951  0.0797 -1.4541
13953SOL     OW59850  12.041   6.673   4.603  0.5800  0.0688 -0.1753
13953SOL    HW159851  12.094   6.603   4.640  0.1334  0.2233  0.7962
13953SOL    HW259852  11.962   6.630   4.572  0.2003  0.1521  0.6381
13954SOL     OW59853   4.358   9.563   1.153  0.8389 -0.7007 -0.2226
13954SOL    HW159854   4.452   9.570   1.135  1.0048  0.3970  0.8835
13954SOL    HW259855   4.326   9.653   1.149  0.4319 -0.6542  2.2264
13955SOL     OW59856   4.738  12.451   8.048 -0.3427 -0.6246  0.2508
13955SOL    HW159857   4.747  12.493   8.133 -0.8219  2.5091 -1.0769
13955SOL    HW259858   4.654  12.483   8.014  0.4471 -0.6619 -1.9149
13956SOL     OW59859   8.672   5.593   9.582  0.2388  0.4883 -0.0257
13956SOL    HW159860   8.745   5.654   9.579 -0.5919  1.4711 -1.1433
13956SOL    HW259861   8.713   5.508   9.598  1.7793  0.8087 -1.8704
13957SOL     OW59862  13.170   2.578   9.323 -0.5956 -0.2450  0.3414
13957SOL    HW159863  13.087   2.538   9.350  0.2138 -1.9818  0.3899
13957SOL    HW259864  13.227   2.569   9.399  0.3264 -1.1807 -0.4164
13958SOL     OW59865   7.439   8.833  10.479  0.4270  0.4524  0.1318
13958SOL    HW159866   7.433   8.872  10.392 -0.4259 -0.4137 -0.2143
13958SOL    HW259867   7.387   8.890  10.535  0.5023  0.6893 -0.0387
13959SOL     OW59868   8.479   9.377  10.356 -0.0692  0.1070 -0.4397
13959SOL    HW159869   8.539   9.427  10.411 -0.0182  1.4993 -1.6802
13959SOL    HW259870   8.397   9.426  10.358 -1.1150 -1.5705  0.9215
13960SOL     OW59871  11.484   3.667   2.051  0.0805  0.4415 -0.1501
13960SOL    HW159872  11.411   3.614   2.084  0.2584 -0.0275 -0.5132
13960SOL    HW259873  11.526   3.613   1.984 -0.2640  1.3668 -1.1516
13961SOL     OW59874   5.182  11.640   3.009 -0.0857 -0.1848 -0.5866
13961SOL    HW159875   5.158  11.724   2.971 -0.2102  0.7198  1.3703
13961SOL    HW259876   5.277  11.642   3.014 -0.1581  0.9995  1.7651
13962SOL     OW59877   7.720   2.178   0.139 -0.2800 -0.2057  0.0518
13962SOL    HW159878   7.697   2.228   0.060  0.0644 -0.2374 -0.0681
13962SOL    HW259879   7.640   2.180   0.192 -0.2487  0.5166  0.0720
13963SOL     OW59880   6.133   9.982  10.129 -0.1818  0.0224  0.1710
13963SOL    HW159881   6.174  10.067  10.145 -0.5481  0.0331  1.1725
13963SOL    HW259882   6.117   9.980  10.035  0.1948  0.8926  0.0758
13964SOL     OW59883   0.357   0.111   2.080  0.0224  0.2525 -0.0310
13964SOL    HW159884   0.448   0.099   2.050  0.2660  0.6555  0.5289
13964SOL    HW259885   0.363   0.113   2.175 -0.7496 -1.0117  0.0684
13965SOL     OW59886   7.172   6.568  11.399 -0.4680  0.2912 -0.0399
13965SOL    HW159887   7.214   6.486  11.424 -0.2646  0.0327 -1.1966
13965SOL    HW259888   7.123   6.594  11.477  1.4682  0.3773  1.2016
13966SOL     OW59889   8.807   6.354   9.068 -0.2381  1.0403  0.5815
13966SOL    HW159890   8.818   6.423   9.003 -1.7994  1.5323  0.8060
13966SOL    HW259891   8.853   6.386   9.145  0.0112  1.2972  0.3290
13967SOL     OW59892   9.895  10.957   3.250 -0.2702  0.2663 -0.2140
13967SOL    HW159893   9.970  11.014   3.268 -1.9526  2.8750 -0.9077
13967SOL    HW259894   9.866  10.928   3.336  0.1524  1.1400  0.2445
13968SOL     OW59895  11.958   8.167  10.771  0.4837  0.0875 -0.2552
13968SOL    HW159896  12.015   8.235  10.735 -1.6261  1.6989 -0.7268
13968SOL    HW259897  11.931   8.202  10.856  1.7302 -1.5808  0.8890
13969SOL     OW59898   1.970   3.896  11.322  0.4047 -0.2409 -0.2088
13969SOL    HW159899   1.936   3.981  11.347  0.6227 -0.1574 -0.1889
13969SOL    HW259900   2.062   3.913  11.299  0.3767 -0.4227 -0.4606
13970SOL     OW59901   2.435  12.830   8.055  0.2703  0.4706 -0.3976
13970SOL    HW159902   2.398  12.830   8.144 -2.7953 -0.5389 -1.5476
13970SOL    HW259903   2.410  12.746   8.018  0.2968  1.3950 -2.6717
13971SOL     OW59904  12.421   7.253   0.277  0.2019  0.3852  0.1712
13971SOL    HW159905  12.469   7.176   0.307 -0.3209  0.4454  1.2236
13971SOL    HW259906  12.342   7.254   0.331  1.2463  2.9436  1.8401
13972SOL     OW59907  10.612  13.538   0.839  0.0799 -0.0070  0.9988
13972SOL    HW159908  10.594  13.472   0.772 -0.7863  0.9663  0.2551
13972SOL    HW259909  10.614  13.488   0.921  2.2329 -1.3986  0.2000
13973SOL     OW59910   2.114   0.930   4.501 -0.0305 -0.1614 -0.2733
13973SOL    HW159911   2.187   0.880   4.463  0.8066 -0.6753  1.8822
13973SOL    HW259912   2.141   0.947   4.591 -2.3131  0.1776  0.4044
13974SOL     OW59913   0.837  11.963  11.603 -0.7582 -0.1752  0.0086
13974SOL    HW159914   0.913  11.909  11.620  0.0547  1.1448  0.7687
13974SOL    HW259915   0.774  11.937  11.671 -2.4432 -3.6850 -2.6076
13975SOL     OW59916   3.633   1.621  14.112 -0.2266 -0.5290 -0.1611
13975SOL    HW159917   3.612   1.676  14.037 -2.3171  0.6340  1.1869
13975SOL    HW259918   3.653   1.682  14.182  2.4673 -1.6010  0.1163
13976SOL     OW59919  12.251   2.597   1.101  0.5674 -0.4620 -0.3652
13976SOL    HW159920  12.183   2.547   1.146 -0.0343 -2.3821 -3.1578
13976SOL    HW259921  12.203   2.665   1.053  1.1142  0.9344  0.9629
13977SOL     OW59922  11.942   7.788   2.261 -0.1276 -0.2901  0.0040
13977SOL    HW159923  11.900   7.838   2.191 -1.1434  0.1615  0.9216
13977SOL    HW259924  12.006   7.733   2.215 -0.5367  0.2319 -1.2412
13978SOL     OW59925   0.170   7.320   3.830  0.4981  0.0097  0.2944
13978SOL    HW159926   0.176   7.410   3.798 -1.1446  0.2540  0.5797
13978SOL    HW259927   0.160   7.329   3.925  1.0680 -0.5249  0.4113
13979SOL     OW59928   1.404   0.106  13.751  0.5804 -0.0377  0.0827
13979SOL    HW159929   1.376   0.052  13.677  0.4701 -0.1311  0.1917
13979SOL    HW259930   1.323   0.121  13.801  0.7512 -0.4083  0.4662
13980SOL     OW59931   0.367   0.921   8.713 -0.0338 -0.4197 -0.2675
13980SOL    HW159932   0.454   0.885   8.727 -0.5470 -1.2481  0.9188
13980SOL    HW259933   0.319   0.851   8.668 -1.3564 -1.7860  2.9954
13981SOL     OW59934   4.532  12.181   7.147 -0.2897  0.1086  0.0490
13981SOL    HW159935   4.501  12.260   7.103 -1.5162 -0.9354 -1.0581
13981SOL    HW259936   4.622  12.171   7.119 -0.3152  0.7822 -0.2837
13982SOL     OW59937  11.494   9.694   9.526 -0.5877 -0.8463  0.2648
13982SOL    HW159938  11.487   9.601   9.547 -0.6883 -1.3589 -1.7906
13982SOL    HW259939  11.493   9.697   9.430  0.3376  1.2082  0.2653
13983SOL     OW59940  12.288   7.717   9.136 -0.5215  0.4524  0.0688
13983SOL    HW159941  12.354   7.784   9.118 -0.5007  0.0974 -1.3050
13983SOL    HW259942  12.334   7.652   9.188 -0.2501  0.9875  0.5135
13984SOL     OW59943   9.626   9.061   4.989 -0.1156  0.2752 -0.2680
13984SOL    HW159944   9.639   9.051   4.895 -1.7512 -0.6340 -0.4102
13984SOL    HW259945   9.670   9.144   5.009  1.0142  0.0647 -1.6458
13985SOL     OW59946   5.599   1.806   8.205 -0.1402  0.1042  0.5159
13985SOL    HW159947   5.514   1.838   8.237  0.0791  0.8673  0.3610
13985SOL    HW259948   5.607   1.719   8.242 -1.3803 -0.3241 -0.1559
13986SOL     OW59949   7.427   9.666   3.766  0.0148 -0.5730 -0.3229
13986SOL    HW159950   7.385   9.622   3.840 -1.1933 -0.0756 -0.6870
13986SOL    HW259951   7.415   9.760   3.784  0.7068 -0.4253 -0.5936
13987SOL     OW59952   6.422  12.953   4.740 -0.5786 -0.1646 -0.0680
13987SOL    HW159953   6.377  12.884   4.788 -1.4454  0.1436 -0.4201
13987SOL    HW259954   6.513  12.923   4.734 -0.8198 -0.9876  0.3011
13988SOL     OW59955   4.333  13.038  11.719  0.2745 -0.3908  0.1795
13988SOL    HW159956   4.383  13.070  11.643 -1.9331  0.8266 -0.8732
13988SOL    HW259957   4.275  12.972  11.682 -1.2627  0.6565  0.6602
13989SOL     OW59958   7.090  11.292  13.695 -0.1349 -0.3594 -0.6332
13989SOL    HW159959   7.040  11.237  13.633 -1.7249  0.5686 -0.2375
13989SOL    HW259960   7.070  11.255  13.781  0.0631 -0.1247 -0.4845
13990SOL     OW59961  12.080   4.152   6.649  0.2546  0.4290  0.2858
13990SOL    HW159962  12.047   4.113   6.730  1.7233 -0.6811  0.3947
13990SOL    HW259963  12.031   4.108   6.580 -0.6473  1.0198  0.5232
13991SOL     OW59964   4.798   7.885   8.259  0.5812  1.2905 -0.3977
13991SOL    HW159965   4.712   7.846   8.248  1.2152 -0.5706  0.8284
13991SOL    HW259966   4.804   7.906   8.352  2.2129 -0.6630  0.0112
13992SOL     OW59967  11.290  13.521  10.350 -0.3216  0.2009  0.4154
13992SOL    HW159968  11.232  13.562  10.414 -0.6629 -0.6126  0.6351
13992SOL    HW259969  11.293  13.583  10.277  1.8772  2.2758  2.1029
13993SOL     OW59970   2.830   3.703  13.683 -0.5415  0.3846 -0.8541
13993SOL    HW159971   2.792   3.616  13.670 -0.2591  0.2110 -0.5329
13993SOL    HW259972   2.785   3.738  13.760  0.1816  0.0317 -0.2468
13994SOL     OW59973   9.615   6.176  13.731 -0.0175 -0.0252  0.0327
13994SOL    HW159974   9.610   6.246  13.666 -1.4409  0.1561  0.3180
13994SOL    HW259975   9.572   6.212  13.808  0.7775 -0.6038  0.7643
13995SOL     OW59976   8.278  12.232   3.265 -0.0840 -0.3999  0.6139
13995SOL    HW159977   8.238  12.212   3.349 -1.5652 -0.1741 -0.0024
13995SOL    HW259978   8.241  12.167   3.205 -0.8367  0.8248 -0.3088
13996SOL     OW59979  11.294   5.461  12.301  0.0329  0.3701  0.0905
13996SOL    HW159980  11.284   5.520  12.376 -2.0489 -1.2714  1.2214
13996SOL    HW259981  11.374   5.412  12.319  0.4759  1.1712  0.3450
13997SOL     OW59982   4.427   1.031   0.819  0.2728 -0.3361  0.3008
13997SOL    HW159983   4.498   1.019   0.755  0.5908 -1.1289  0.7916
13997SOL    HW259984   4.397   0.942   0.838  1.1355 -0.2361  2.3212
13998SOL     OW59985   6.155  13.696   6.397  0.0834  1.0813 -0.3105
13998SOL    HW159986   6.162  13.612   6.353 -0.5202  0.9557 -0.1706
13998SOL    HW259987   6.160  13.761   6.327 -0.7254  0.8855 -0.5505
13999SOL     OW59988   6.225   2.421  12.568  0.1897 -0.5664 -0.3243
13999SOL    HW159989   6.132   2.410  12.548  0.3434 -2.8449 -0.0970
13999SOL    HW259990   6.269   2.353  12.516  1.6719  0.0678  0.0359
14000SOL     OW59991  13.357   6.870  10.582  0.6150 -0.1192  0.1270
14000SOL    HW159992  13.398   6.929  10.519  1.2303 -1.0377 -0.3659
14000SOL    HW259993  13.319   6.927  10.648 -1.7595  0.9891 -2.0562
14001SOL     OW59994   7.460   3.048   0.331  0.0688  0.3827 -0.5596
14001SOL    HW159995   7.547   3.021   0.363  1.0035 -0.6039 -3.5551
14001SOL    HW259996   7.467   3.143   0.322 -0.2411  0.7089  1.9270
14002SOL     OW59997   1.731   4.914   8.783  0.3438 -0.7698  0.4568
14002SOL    HW159998   1.643   4.950   8.796  0.4939 -0.3853  0.4193
14002SOL    HW259999   1.742   4.852   8.854  1.3357  1.6156  2.5331
14003SOL     OW60000   8.153   2.592  13.032  0.1393  0.2807  0.6088
14003SOL    HW160001   8.245   2.615  13.039  0.0932  0.0928  2.2626
14003SOL    HW260002   8.107   2.661  13.080 -0.7163  0.9660 -1.0829
14004SOL     OW60003   0.951  13.637   5.509  0.0964  0.0018 -0.0408
14004SOL    HW160004   0.923  13.729   5.505  0.0056  0.1003  1.9208
14004SOL    HW260005   0.884  13.589   5.461 -0.1167  0.9022 -0.6679
14005SOL     OW60006  12.445   7.647  12.035  0.0329  0.4646 -0.2073
14005SOL    HW160007  12.387   7.579  12.002  0.1290  1.1349 -1.8318
14005SOL    HW260008  12.442   7.716  11.969  1.2582  1.3016  0.5630
14006SOL     OW60009   2.185   3.323   0.298  0.1766 -0.7559  0.4779
14006SOL    HW160010   2.095   3.304   0.326  0.1635  0.6827  1.5137
14006SOL    HW260011   2.194   3.276   0.215 -1.6675 -0.6463  0.1648
14007SOL     OW60012   4.601   7.383   1.612 -1.1026  0.1901  0.2415
14007SOL    HW160013   4.671   7.340   1.562 -0.9444  0.0220  0.6060
14007SOL    HW260014   4.647   7.430   1.682 -0.9788  3.2702 -1.7091
14008SOL     OW60015  10.582   9.143   3.881 -0.4782 -0.2748 -0.3406
14008SOL    HW160016  10.667   9.102   3.897 -0.3757  0.2070  0.3878
14008SOL    HW260017  10.591   9.187   3.796  0.2410  0.3964  0.0774
14009SOL     OW60018  10.767   9.747  11.265 -0.1322 -0.5049 -0.1117
14009SOL    HW160019  10.723   9.803  11.202 -0.2406  1.0218  1.2617
14009SOL    HW260020  10.755   9.791  11.349 -0.7262 -2.8753  1.1521
14010SOL     OW60021  10.801   2.915   8.564  0.0313  0.2044  0.1536
14010SOL    HW160022  10.808   3.010   8.574 -1.2819  0.2773  0.5755
14010SOL    HW260023  10.729   2.902   8.502  1.9110 -0.4913 -2.0492
14011SOL     OW60024   3.539   9.860   8.494  0.4253 -0.7962  0.5837
14011SOL    HW160025   3.603   9.886   8.561 -0.5028 -0.6890  1.4598
14011SOL    HW260026   3.460   9.907   8.518  0.5210  0.5909 -1.6250
14012SOL     OW60027  10.095  10.197  13.398 -0.3958 -0.2821  0.0405
14012SOL    HW160028  10.020  10.226  13.346 -1.3458  0.2858  1.6572
14012SOL    HW260029  10.150  10.275  13.408  0.1369 -0.5559 -0.6500
14013SOL     OW60030   7.854  10.980   5.000  0.4551 -0.1885 -0.4569
14013SOL    HW160031   7.847  10.902   5.056  0.4704 -0.2873 -0.5929
14013SOL    HW260032   7.763  11.005   4.984  0.4560  0.1192  0.0021
14014SOL     OW60033   0.680   3.537  12.354 -0.4531 -0.2187  0.6683
14014SOL    HW160034   0.617   3.596  12.313  2.1183  2.0667 -0.3663
14014SOL    HW260035   0.765   3.575  12.332  1.2872 -2.6847  2.5897
14015SOL     OW60036   4.609   6.332   1.327  0.2798  0.0046 -0.2233
14015SOL    HW160037   4.526   6.367   1.360  0.9491 -1.0453  2.9165
14015SOL    HW260038   4.645   6.403   1.274 -1.7600  1.1757 -0.1678
14016SOL     OW60039   5.661   2.672   8.439 -0.4410  0.1933 -0.9051
14016SOL    HW160040   5.706   2.723   8.507 -1.7204 -1.3138  1.1963
14016SOL    HW260041   5.720   2.600   8.420 -0.7631 -0.2868 -0.1416
14017SOL     OW60042  10.874   8.136   8.266  0.2892 -0.1608 -0.5468
14017SOL    HW160043  10.794   8.188   8.257  1.1521  1.0038 -2.0650
14017SOL    HW260044  10.843   8.046   8.274 -1.2748  0.5075  2.3061
14018SOL     OW60045   5.135   1.624   6.754 -0.6171 -0.5082 -0.3717
14018SOL    HW160046   5.154   1.584   6.669 -0.7827 -0.6109 -0.3623
14018SOL    HW260047   5.157   1.556   6.818  0.2370 -0.1625 -0.2873
14019SOL     OW60048   8.791  13.811  10.556 -0.0305 -0.1446 -0.0859
14019SOL    HW160049   8.798  13.716  10.545  0.1637 -0.1519  0.0873
14019SOL    HW260050   8.725  13.823  10.624  0.1308 -0.1644  0.0744
14020SOL     OW60051   5.558   4.414   5.893  0.1803  0.1932  0.4630
14020SOL    HW160052   5.544   4.404   5.987  1.5239 -0.6860  0.6026
14020SOL    HW260053   5.633   4.472   5.886  0.3599 -0.0872 -0.0433
14021SOL     OW60054  12.322   3.793  12.078  0.0857 -0.1332 -0.0047
14021SOL    HW160055  12.357   3.783  11.989  0.8463  1.9671  0.0155
14021SOL    HW260056  12.246   3.850  12.068 -0.6364 -0.9522  0.5730
14022SOL     OW60057   5.950   2.509  11.042  0.3803  0.5278  0.0456
14022SOL    HW160058   5.864   2.490  11.002 -0.0200 -0.3636  1.2575
14022SOL    HW260059   5.935   2.587  11.094  0.4184  0.6147 -0.0735
14023SOL     OW60060   9.965   1.060  11.093 -0.7157  0.5025 -0.0312
14023SOL    HW160061  10.042   1.048  11.149  0.4108  2.9647 -0.9013
14023SOL    HW260062   9.920   1.136  11.130 -1.8398  0.0911 -0.5054
14024SOL     OW60063   7.319   3.640  11.362 -0.0112  0.6564 -0.1686
14024SOL    HW160064   7.259   3.700  11.318  0.2468  0.9868 -0.0747
14024SOL    HW260065   7.401   3.688  11.368  0.0022  0.5597  0.5336
14025SOL     OW60066  11.822   2.155   6.193  0.1156  0.3015  0.5446
14025SOL    HW160067  11.740   2.199   6.170 -0.3247 -0.2010  1.1040
14025SOL    HW260068  11.794   2.074   6.236  0.9087  0.0007  0.5142
14026SOL     OW60069  13.341   0.270  11.028 -0.3912 -0.2925  0.0524
14026SOL    HW160070  13.333   0.365  11.020 -0.2952 -0.2106  0.8685
14026SOL    HW260071  13.412   0.246  10.969  1.1516  0.4430  1.5410
14027SOL     OW60072  11.433   2.071   7.279  0.4986  0.0940 -0.5874
14027SOL    HW160073  11.492   2.000   7.255 -1.2824 -2.1882  1.3359
14027SOL    HW260074  11.464   2.100   7.365 -1.6771 -1.9761  1.0458
14028SOL     OW60075   5.558   2.604   3.717  0.2419  0.0562 -0.2989
14028SOL    HW160076   5.638   2.573   3.673 -0.2601  1.2444 -2.1507
14028SOL    HW260077   5.568   2.699   3.721 -0.5219  0.1142  0.6475
14029SOL     OW60078   8.860   9.174  12.177 -0.3181  0.1610  0.2995
14029SOL    HW160079   8.785   9.217  12.136 -0.5323  1.0462  1.5874
14029SOL    HW260080   8.936   9.218  12.138 -0.5226  2.7571  2.5265
14030SOL     OW60081   1.389   6.491   3.895 -0.2384  0.3604  0.3952
14030SOL    HW160082   1.471   6.478   3.847 -0.1344  0.1855  0.6215
14030SOL    HW260083   1.356   6.403   3.912 -0.0481  0.4125  1.0404
14031SOL     OW60084   7.542   6.407  14.149 -0.5878 -0.3408 -0.1986
14031SOL    HW160085   7.570   6.329  14.198  0.3787  0.0290 -0.1248
14031SOL    HW260086   7.619   6.464  14.151 -0.7162 -0.0871 -1.6968
14032SOL     OW60087   8.222   8.526  11.668 -0.0944  0.4308  0.2726
14032SOL    HW160088   8.222   8.616  11.635 -1.4966 -0.5489 -2.7416
14032SOL    HW260089   8.150   8.523  11.731  0.1866  1.4726  0.6612
14033SOL     OW60090   9.426   4.057  10.960  0.0563 -0.0226 -0.3973
14033SOL    HW160091   9.335   4.037  10.981  0.0370  1.4365  1.1352
14033SOL    HW260092   9.463   3.974  10.929 -1.7486 -0.6524 -0.9518
14034SOL     OW60093  11.929  10.285   8.571 -0.2832 -0.3126  0.0097
14034SOL    HW160094  11.970  10.362   8.532  0.5452 -0.3403  0.7862
14034SOL    HW260095  11.893  10.316   8.654 -1.8885 -0.2833 -0.6613
14035SOL     OW60096  11.743   9.351   6.024  0.1540 -0.0405  0.3405
14035SOL    HW160097  11.670   9.336   6.084 -0.6673 -1.9259 -1.0301
14035SOL    HW260098  11.703   9.396   5.949  0.8261  0.7163  0.4188
14036SOL     OW60099   4.274  13.884   6.193  0.2431  0.0829 -0.1338
14036SOL    HW160100   4.314  13.805   6.155 -0.0608  0.3911 -1.1056
14036SOL    HW260101   4.183  13.860   6.207  0.1337  0.2811 -0.4971
14037SOL     OW60102   8.893  11.371  12.586 -0.4188  0.0565 -0.1546
14037SOL    HW160103   8.807  11.400  12.616  0.6135  0.3778  2.7129
14037SOL    HW260104   8.949  11.448  12.593  0.2802 -0.2924 -1.4666
14038SOL     OW60105  10.554   4.850   6.282  0.6097 -0.1447 -0.4770
14038SOL    HW160106  10.624   4.804   6.327  1.1672  2.0641  1.1043
14038SOL    HW260107  10.483   4.854   6.346  0.7101  1.3844 -0.4089
14039SOL     OW60108   9.002   0.992  12.050 -0.0044 -0.4419  0.0865
14039SOL    HW160109   8.949   0.913  12.040 -3.0991  1.3037  1.3577
14039SOL    HW260110   9.010   1.026  11.961  0.4122 -1.5620 -0.3258
14040SOL     OW60111   0.400   1.673   0.503 -0.3209  0.0503 -0.0588
14040SOL    HW160112   0.388   1.697   0.411 -0.1223 -0.0971 -0.1246
14040SOL    HW260113   0.495   1.665   0.513 -0.3911 -0.8886 -0.0867
14041SOL     OW60114   6.862   7.849  12.516 -0.0481 -0.6221  0.5800
14041SOL    HW160115   6.854   7.785  12.587 -1.3552 -0.4250  0.6312
14041SOL    HW260116   6.849   7.934  12.559  2.2234 -0.2259  0.6133
14042SOL     OW60117  12.389  13.402   0.825  0.7941 -0.2231 -0.3246
14042SOL    HW160118  12.457  13.465   0.801  0.6740  0.4342  0.9498
14042SOL    HW260119  12.331  13.451   0.883  0.8999 -1.5977  1.0119
14043SOL     OW60120   3.190  13.196   6.459  0.1048 -0.0328  0.3018
14043SOL    HW160121   3.136  13.140   6.405  1.0017 -0.1521 -0.5019
14043SOL    HW260122   3.188  13.281   6.415  2.0771 -0.5125 -0.8577
14044SOL     OW60123   5.608  10.099  10.577  0.4036 -0.1387 -0.1534
14044SOL    HW160124   5.623  10.137  10.663  1.4859  1.3941 -0.9760
14044SOL    HW260125   5.623  10.005  10.589 -1.0430 -0.1847  1.6465
14045SOL     OW60126   4.773  10.516   4.375 -0.0123 -0.0202  0.2833
14045SOL    HW160127   4.803  10.601   4.408  0.9396 -0.0524 -0.4694
14045SOL    HW260128   4.774  10.459   4.451  0.6746  0.2952  0.5144
14046SOL     OW60129   9.327  13.919  13.241 -0.2458  0.3618  0.3450
14046SOL    HW160130   9.312  13.947  13.331  0.3942 -1.0395  0.9175
14046SOL    HW260131   9.239  13.898  13.208 -0.3843 -0.1810  1.0277
14047SOL     OW60132   3.715   4.517   8.451 -0.2355  0.8465  0.0997
14047SOL    HW160133   3.786   4.562   8.406 -0.2000  2.0269  1.2875
14047SOL    HW260134   3.728   4.537   8.543 -0.7120 -0.9416  0.6081
14048SOL     OW60135   9.264   9.623  12.459  0.1142 -0.0761  0.9304
14048SOL    HW160136   9.218   9.625  12.376  0.3415  1.0532  0.8090
14048SOL    HW260137   9.296   9.713  12.471 -0.4514 -0.0567  2.5348
14049SOL     OW60138   8.981   0.878  11.082  0.3872  0.2190  0.3542
14049SOL    HW160139   8.912   0.812  11.091  0.3179  0.3759  1.0074
14049SOL    HW260140   9.002   0.877  10.989 -0.0623 -0.2706  0.2489
14050SOL     OW60141   4.151   6.289   3.583 -0.3468 -0.0453  0.2438
14050SOL    HW160142   4.194   6.211   3.547 -0.6069  0.3588 -1.0084
14050SOL    HW260143   4.064   6.258   3.609 -0.5135 -0.1552 -0.4131
14051SOL     OW60144   7.083  10.855   9.697 -0.1978 -0.1536  0.0309
14051SOL    HW160145   7.002  10.872   9.746 -0.8789 -1.3228 -0.6416
14051SOL    HW260146   7.138  10.807   9.759 -0.5661 -0.5489  0.0563
14052SOL     OW60147   2.377  12.475  12.397  0.4444  0.2282  0.3109
14052SOL    HW160148   2.421  12.411  12.452  0.2886 -1.2675 -1.2359
14052SOL    HW260149   2.288  12.481  12.431  0.0655 -1.4115 -0.3328
14053SOL     OW60150   6.349   7.385  12.524 -0.2634  0.2987 -0.7198
14053SOL    HW160151   6.344   7.308  12.467 -2.0202 -0.1537 -0.0141
14053SOL    HW260152   6.265   7.429  12.513 -0.3840  0.5700  0.9865
14054SOL     OW60153   1.257   8.219  11.870 -0.0491  0.6918  0.4615
14054SOL    HW160154   1.335   8.264  11.901 -1.4710  2.6073  1.5401
14054SOL    HW260155   1.285   8.129  11.853  2.1721  1.1104  1.5935
14055SOL     OW60156  12.537  11.272   8.854 -0.0383 -0.0327 -0.1039
14055SOL    HW160157  12.460  11.300   8.805 -0.8596 -0.1596  1.0777
14055SOL    HW260158  12.539  11.328   8.931  1.0290 -0.0726 -0.0844
14056SOL     OW60159  12.507   8.690   6.117  0.3628 -0.3819  0.2367
14056SOL    HW160160  12.500   8.785   6.103  0.0819 -0.2713  1.0784
14056SOL    HW260161  12.559   8.659   6.043 -0.9689  0.1687 -0.9892
14057SOL     OW60162  13.312  12.326   6.879 -0.0334  0.1175  0.1234
14057SOL    HW160163  13.292  12.331   6.972 -0.7301  0.0259 -0.0150
14057SOL    HW260164  13.401  12.361   6.871 -0.2911  0.9290  0.7071
14058SOL     OW60165   4.248   6.693   6.830 -0.3361  0.4408 -0.5764
14058SOL    HW160166   4.286   6.610   6.857 -1.2137  0.6329  1.3627
14058SOL    HW260167   4.168   6.669   6.784 -0.8879  0.2019  0.4804
14059SOL     OW60168  12.412  12.659  10.275 -0.3873 -0.5384 -0.1695
14059SOL    HW160169  12.406  12.721  10.203 -1.8484 -1.3011 -0.7458
14059SOL    HW260170  12.345  12.593  10.256 -0.7522 -0.8106  1.8234
14060SOL     OW60171   3.118  12.258   8.023  0.0932  0.0631  0.1622
14060SOL    HW160172   3.030  12.229   7.997  0.9031 -1.0887 -1.4549
14060SOL    HW260173   3.109  12.353   8.034 -1.5817 -0.1571  1.1187
14061SOL     OW60174  10.832   3.495   3.301  0.4453  0.1547 -0.6364
14061SOL    HW160175  10.835   3.399   3.298  1.4245  0.1949 -1.3032
14061SOL    HW260176  10.898   3.519   3.365 -1.3549  0.3410  1.2759
14062SOL     OW60177  13.481   0.627  12.416  0.4647 -0.0041  0.3915
14062SOL    HW160178  13.482   0.617  12.321 -2.0448  0.3564  0.2518
14062SOL    HW260179  13.415   0.564  12.446 -0.7187  1.7147  1.5874
14063SOL     OW60180   8.580  13.666  10.262 -0.1575 -0.2065  0.8746
14063SOL    HW160181   8.633  13.729  10.214  0.3017 -1.3381 -0.1720
14063SOL    HW260182   8.533  13.718  10.327  0.0812  1.2313 -0.0508
14064SOL     OW60183   3.676  11.200   3.983 -0.2454  0.1561 -0.1808
14064SOL    HW160184   3.706  11.193   3.892 -0.4983 -1.3750 -0.1622
14064SOL    HW260185   3.581  11.195   3.977 -0.3583  1.5941  0.0603
14065SOL     OW60186  12.999   6.516   3.954 -0.3955 -0.0620 -0.0671
14065SOL    HW160187  13.061   6.463   3.904  0.5311  0.7742  0.1797
14065SOL    HW260188  12.954   6.568   3.889 -1.7918 -1.5801 -0.3917
14066SOL     OW60189   2.077   6.972  11.289  0.6054 -0.0082 -0.5494
14066SOL    HW160190   2.051   6.894  11.241 -2.1125 -0.0874  0.8072
14066SOL    HW260191   2.156   7.004  11.245  0.5546 -2.2871 -2.4490
14067SOL     OW60192   9.875  11.532   1.779  0.1992  0.1392 -0.0705
14067SOL    HW160193   9.831  11.617   1.778 -0.9295 -0.3144  2.2940
14067SOL    HW260194   9.958  11.549   1.823  0.1577  0.1076  0.0215
14068SOL     OW60195  10.213  13.485   2.117 -0.2529 -0.1834 -0.3853
14068SOL    HW160196  10.236  13.568   2.075 -0.5349  0.6600  1.0298
14068SOL    HW260197  10.272  13.480   2.193 -2.1928  0.2391  1.2433
14069SOL     OW60198  10.885  13.186   5.300  0.3398 -0.8765 -0.2479
14069SOL    HW160199  10.818  13.232   5.351 -0.2813 -2.6304  0.5864
14069SOL    HW260200  10.837  13.143   5.230  0.6366 -1.7611  0.0782
14070SOL     OW60201   2.772   1.620  12.847  0.2128  0.3819 -0.5958
14070SOL    HW160202   2.753   1.603  12.940 -2.1130 -0.8977 -1.2332
14070SOL    HW260203   2.762   1.715  12.838 -1.6261  0.2967  0.0885
14071SOL     OW60204   1.462   8.163   4.020  0.1572  0.5134  0.7215
14071SOL    HW160205   1.449   8.173   4.115  1.5420  0.9906  0.8799
14071SOL    HW260206   1.415   8.237   3.981 -0.2261  0.4448  1.0474
14072SOL     OW60207   3.103  11.273   0.732 -0.4039 -0.3775 -0.1828
14072SOL    HW160208   3.184  11.248   0.688 -0.6282  0.3528 -1.0654
14072SOL    HW260209   3.079  11.198   0.785  2.0943  0.2422  2.0082
14073SOL     OW60210   9.610  10.489  13.699  0.4655  0.0781 -0.2300
14073SOL    HW160211   9.661  10.513  13.777 -1.5524  0.5495  1.0070
14073SOL    HW260212   9.660  10.526  13.626  0.8995  2.2836  1.0795
14074SOL     OW60213   8.136   4.234   1.869  0.2605  0.5438 -0.4266
14074SOL    HW160214   8.045   4.246   1.842  0.4522 -0.3370 -1.5578
14074SOL    HW260215   8.131   4.197   1.957 -0.4283  1.8644  0.1058
14075SOL     OW60216   1.093   9.055   3.533  0.5954  0.4032  0.2182
14075SOL    HW160217   1.117   9.147   3.543  1.4645  0.3285 -0.9484
14075SOL    HW260218   1.104   9.017   3.620  0.9852  1.2389  0.5398
14076SOL     OW60219   8.041   4.435   5.323 -0.1362  0.2957 -0.0953
14076SOL    HW160220   8.037   4.360   5.383  0.9105  0.8249  0.6607
14076SOL    HW260221   8.041   4.396   5.236 -0.3569 -0.5486  0.2718
14077SOL     OW60222  10.648   0.985   4.414 -0.0383  0.3472 -0.1290
14077SOL    HW160223  10.578   0.998   4.479  0.1911  2.0112 -0.1696
14077SOL    HW260224  10.698   1.066   4.417 -0.1458  0.5651 -2.5437
14078SOL     OW60225   0.962   0.318   1.781 -0.6587 -0.5139 -0.0389
14078SOL    HW160226   1.025   0.299   1.851  0.0579 -0.5670 -0.6865
14078SOL    HW260227   0.974   0.411   1.763  0.4145 -0.8563 -1.2713
14079SOL     OW60228   1.228   5.515  11.462 -0.1010  0.0984 -0.0967
14079SOL    HW160229   1.154   5.558  11.420  0.1853  0.6987  0.0045
14079SOL    HW260230   1.305   5.551  11.418  0.1114 -1.2406 -0.8845
14080SOL     OW60231   5.660   6.094   2.327  0.4960 -0.1017 -0.0429
14080SOL    HW160232   5.683   6.186   2.319 -0.1943 -0.0177 -1.1906
14080SOL    HW260233   5.586   6.082   2.268 -0.2572 -1.1084  1.0601
14081SOL     OW60234  13.757   1.812  11.755 -0.9183 -0.3875 -0.4287
14081SOL    HW160235  13.758   1.814  11.659 -0.2659 -1.2135 -0.4520
14081SOL    HW260236  13.693   1.745  11.778 -0.3308 -0.9250 -0.3195
14082SOL     OW60237   0.198  12.139  11.814  0.5208 -0.4663 -0.4462
14082SOL    HW160238   0.219  12.213  11.757  0.6818 -0.2610 -0.1196
14082SOL    HW260239   0.197  12.063  11.756  0.0232 -0.1579 -0.8430
14083SOL     OW60240   0.378   6.779  12.955 -0.4353  0.5911  0.2066
14083SOL    HW160241   0.451   6.815  12.906 -0.8681  0.1866 -0.7571
14083SOL    HW260242   0.396   6.685  12.960 -0.8983  0.4888 -0.0434
14084SOL     OW60243   5.439   7.637   7.905 -0.1171  0.4370  0.6478
14084SOL    HW160244   5.373   7.581   7.946 -1.3358 -0.0276 -1.7255
14084SOL    HW260245   5.441   7.716   7.958 -0.3422 -0.7564  2.5228
14085SOL     OW60246   2.488   9.134   1.244 -0.3271 -0.0478  0.2418
14085SOL    HW160247   2.525   9.157   1.329  0.0391 -0.7835  0.2896
14085SOL    HW260248   2.469   9.218   1.202  1.9300  0.3805 -0.0327
14086SOL     OW60249  13.229   9.816   1.185 -0.1880 -0.0852 -0.1130
14086SOL    HW160250  13.152   9.794   1.237  1.0402  0.5572  2.1676
14086SOL    HW260251  13.278   9.734   1.178 -0.9328 -0.4342 -1.3302
14087SOL     OW60252   8.730   9.216   8.507 -0.4896  0.1930 -0.0722
14087SOL    HW160253   8.689   9.298   8.481 -2.0709 -0.7534 -0.7443
14087SOL    HW260254   8.755   9.229   8.598  0.3699  1.7971 -0.5044
14088SOL     OW60255   1.147   2.378  12.944 -0.1779 -0.2405 -0.1694
14088SOL    HW160256   1.099   2.319  12.886  1.1529 -1.0940 -0.4546
14088SOL    HW260257   1.234   2.383  12.905  0.2657  0.4478  0.8891
14089SOL     OW60258  12.631  10.212   7.849 -0.0778 -0.0245 -0.2785
14089SOL    HW160259  12.627  10.174   7.937  1.1051 -0.1565 -0.2601
14089SOL    HW260260  12.567  10.163   7.798 -2.5071  1.5947  1.0513
14090SOL     OW60261   6.102   6.446  13.673  0.2640 -0.8433  0.1599
14090SOL    HW160262   6.020   6.402  13.692 -0.7390  1.3013  1.0870
14090SOL    HW260263   6.090   6.535  13.705  2.4016 -0.0257 -1.0929
14091SOL     OW60264   7.984   0.144  11.637  0.4650  0.2497  0.4849
14091SOL    HW160265   7.987   0.072  11.700 -0.7992 -1.2579 -1.0912
14091SOL    HW260266   8.071   0.146  11.598 -0.0002 -1.7734 -0.8089
14092SOL     OW60267   7.498   4.154  12.990  0.0090  0.0152  0.2772
14092SOL    HW160268   7.543   4.198  12.917  1.1100 -0.6449  0.5310
14092SOL    HW260269   7.441   4.221  13.027 -0.0107  0.5747 -0.7291
14093SOL     OW60270  10.598   9.268   5.232  0.8219 -0.1772 -0.8180
14093SOL    HW160271  10.670   9.232   5.284 -0.1039  1.0793  1.4766
14093SOL    HW260272  10.615   9.237   5.143  0.7445 -5.3650  0.5976
14094SOL     OW60273   9.739   8.515   2.722  0.8079  0.4149  0.5406
14094SOL    HW160274   9.719   8.593   2.670  2.5199 -0.7852 -2.1403
14094SOL    HW260275   9.814   8.540   2.775  2.0260  0.3802 -1.0816
14095SOL     OW60276  11.676  12.077  11.663  0.4119 -0.3050  0.6913
14095SOL    HW160277  11.628  12.080  11.745  1.0104  1.0085  1.0127
14095SOL    HW260278  11.704  11.985  11.654 -0.0642 -0.5540  1.7013
14096SOL     OW60279  10.908  10.043  13.788 -0.0473  0.1984  0.8513
14096SOL    HW160280  10.819  10.064  13.816 -0.9279 -1.1116 -0.7555
14096SOL    HW260281  10.931  10.113  13.728 -0.1200  0.3743  1.0274
14097SOL     OW60282   2.318  10.919  13.416 -0.0121 -0.2000  0.0618
14097SOL    HW160283   2.401  10.874  13.434  1.0611  1.0601 -1.4163
14097SOL    HW260284   2.274  10.864  13.352  0.5090 -0.0023 -0.4710
14098SOL     OW60285   1.322  14.104   7.581  0.3390 -1.1099  0.2512
14098SOL    HW160286   1.278  14.145   7.507 -0.5753 -1.3581  0.6406
14098SOL    HW260287   1.355  14.178   7.633 -0.1716 -0.8891  0.2755
14099SOL     OW60288  12.523   9.789   1.982  0.5509  0.0574  0.5811
14099SOL    HW160289  12.598   9.734   2.005  0.1204 -0.0589  1.7672
14099SOL    HW260290  12.551   9.837   1.904  1.9217  0.1299  1.0928
14100SOL     OW60291   9.201  11.007   7.307  0.1917 -0.2862 -0.3534
14100SOL    HW160292   9.130  10.972   7.254 -0.4179 -0.4268  0.5269
14100SOL    HW260293   9.231  10.931   7.359 -0.6610  0.2893  1.0514
14101SOL     OW60294  10.111  10.095   1.942 -0.5155  0.2424  0.3681
14101SOL    HW160295  10.061  10.146   1.878 -0.0081  0.7151  0.3425
14101SOL    HW260296  10.047  10.034   1.978 -1.2861  1.2563  0.7947
14102SOL     OW60297   2.373  11.065  11.846 -0.1551  0.0693  0.3306
14102SOL    HW160298   2.331  10.979  11.841 -0.2245  0.1403 -0.3215
14102SOL    HW260299   2.301  11.126  11.862  0.0532 -0.1448  2.4142
14103SOL     OW60300   6.845  11.546   8.014  0.2244  0.6549 -0.0974
14103SOL    HW160301   6.874  11.474   7.957  1.2639  0.4118  0.7173
14103SOL    HW260302   6.774  11.508   8.066  2.5612 -0.7635  2.3394
14104SOL     OW60303  13.922  11.924  12.324  0.2754 -0.4818  0.2684
14104SOL    HW160304  13.847  11.898  12.270  0.4744 -1.4012  0.4109
14104SOL    HW260305  13.894  12.005  12.367 -0.3570 -0.4208 -0.2401
14105SOL     OW60306   6.491   7.989   7.519 -0.2475  0.5182 -0.5929
14105SOL    HW160307   6.431   8.053   7.557 -1.2413 -0.8609  0.2409
14105SOL    HW260308   6.438   7.942   7.454  0.1789 -0.1279 -0.4840
14106SOL     OW60309   7.928   8.747   6.584  0.0053  0.1065 -0.0012
14106SOL    HW160310   7.880   8.677   6.629  0.7995 -0.2448  0.3055
14106SOL    HW260311   8.009   8.757   6.633 -0.2191  1.4539  0.1296
14107SOL     OW60312   3.848   1.737  13.332 -0.3435  0.4851 -0.3471
14107SOL    HW160313   3.938   1.769  13.342 -0.7547  1.5599  0.0297
14107SOL    HW260314   3.842   1.711  13.240  0.8645 -1.2599  0.0188
14108SOL     OW60315  11.477   9.912  12.735  0.1060  0.3688  0.5432
14108SOL    HW160316  11.543   9.849  12.763 -0.5428 -0.9689 -0.8412
14108SOL    HW260317  11.475   9.905  12.639  0.8937  3.4047  0.1687
14109SOL     OW60318   7.004   9.060  11.158 -0.3239  0.5118  0.0700
14109SOL    HW160319   7.003   9.067  11.063 -0.2978  2.8908  0.1910
14109SOL    HW260320   6.969   8.973  11.176  2.5370 -1.2767 -2.1544
14110SOL     OW60321   4.145   9.264   2.635  0.3509 -0.1451  0.0868
14110SOL    HW160322   4.052   9.263   2.611  0.0471  1.9053  0.9683
14110SOL    HW260323   4.147   9.231   2.725  0.6399 -1.2906 -0.3269
14111SOL     OW60324   1.690   4.769   8.996 -0.9895  0.4482  0.0078
14111SOL    HW160325   1.719   4.785   9.086  0.9458 -0.3968 -0.4093
14111SOL    HW260326   1.618   4.707   9.005  0.8576 -1.7257  0.9219
14112SOL     OW60327   2.461   2.438  11.885  0.3281 -0.3195 -0.1127
14112SOL    HW160328   2.470   2.344  11.899  1.4640  0.0005  1.6334
14112SOL    HW260329   2.513   2.477  11.955 -2.4128  1.6612  0.9972
14113SOL     OW60330  11.260   8.972   7.114 -0.0572 -0.1240 -0.0980
14113SOL    HW160331  11.253   8.956   7.019 -1.2487  1.1075 -0.2520
14113SOL    HW260332  11.189   9.034   7.133 -0.4901 -1.1334  1.7943
14114SOL     OW60333   5.875   3.724   5.394 -0.2585 -0.1353  0.6187
14114SOL    HW160334   5.847   3.812   5.369  0.5081 -0.5037 -1.7813
14114SOL    HW260335   5.964   3.735   5.428  0.5461 -0.1308 -1.3624
14115SOL     OW60336   0.208   4.915   6.260 -0.0920  0.5475 -0.2272
14115SOL    HW160337   0.146   4.978   6.225  0.6354  1.6964  0.4723
14115SOL    HW260338   0.256   4.884   6.184 -0.2240  1.1090 -0.5468
14116SOL     OW60339   9.680  12.840   8.474  0.3739  0.4428 -0.0921
14116SOL    HW160340   9.610  12.787   8.513  0.5947  1.5742  1.9936
14116SOL    HW260341   9.660  12.841   8.381 -1.1852 -0.9935  0.1632
14117SOL     OW60342   0.278   2.212  12.978 -0.0096 -0.5026  0.1275
14117SOL    HW160343   0.219   2.286  12.996  0.6216 -0.2008  1.0321
14117SOL    HW260344   0.335   2.208  13.055 -1.0561 -2.9598  0.8440
14118SOL     OW60345   8.329   3.977   7.236 -0.4443  0.1093 -0.1757
14118SOL    HW160346   8.363   3.915   7.171 -0.3628  0.8316 -0.8447
14118SOL    HW260347   8.245   4.006   7.200 -0.9861 -0.3982  0.6493
14119SOL     OW60348   0.556   3.370  13.870  0.1998  0.1111 -0.2660
14119SOL    HW160349   0.630   3.431  13.866  2.1224 -2.0691  0.0293
14119SOL    HW260350   0.573   3.317  13.948 -1.6092 -0.5768 -0.2890
14120SOL     OW60351   8.558   7.720   5.990 -0.5792  0.2694 -0.0319
14120SOL    HW160352   8.619   7.657   6.029 -0.8863  0.1468  0.2552
14120SOL    HW260353   8.569   7.709   5.896  0.0343  0.4359  0.0155
14121SOL     OW60354  10.490  13.767   1.052  0.2203  0.0282 -0.1790
14121SOL    HW160355  10.561  13.767   1.116  1.3198  0.9123 -1.3512
14121SOL    HW260356  10.533  13.782   0.968 -1.4373  1.8362 -0.7881
14122SOL     OW60357   9.340   1.276   4.771 -0.4074  0.5283 -0.5101
14122SOL    HW160358   9.420   1.324   4.747  2.3300 -3.5859 -0.7452
14122SOL    HW260359   9.330   1.291   4.865  0.3886  1.4607 -0.5611
14123SOL     OW60360   6.506   4.843   8.571 -0.6519 -0.5144 -0.2807
14123SOL    HW160361   6.561   4.920   8.557  0.7202 -1.2206  0.8950
14123SOL    HW260362   6.479   4.850   8.663 -2.1846 -0.4232 -0.7121
14124SOL     OW60363   0.886   4.797  12.635 -0.0765 -0.1794 -0.1989
14124SOL    HW160364   0.976   4.808  12.664 -0.2226  2.5097 -0.5238
14124SOL    HW260365   0.893   4.776  12.542  0.2136 -0.0438 -0.2078
14125SOL     OW60366   0.838  11.608   7.055 -0.1209 -0.4204 -0.1503
14125SOL    HW160367   0.810  11.608   6.964  1.4057  0.1023 -0.6485
14125SOL    HW260368   0.929  11.638   7.053 -0.3237  0.4598  1.6274
14126SOL     OW60369   5.882  12.371   6.967  0.0662 -0.6306 -0.5995
14126SOL    HW160370   5.892  12.451   7.018 -1.0630 -0.7364 -0.1722
14126SOL    HW260371   5.796  12.380   6.925  0.0100 -1.5367 -0.6969
14127SOL     OW60372  11.481   8.205   9.820  0.3694 -0.1158 -0.2115
14127SOL    HW160373  11.565   8.228   9.782 -0.0111  0.3954 -0.7504
14127SOL    HW260374  11.444   8.139   9.761  0.1658  0.0340 -0.2537
14128SOL     OW60375   5.179   5.148  11.866  0.7114  0.1691  0.3157
14128SOL    HW160376   5.226   5.087  11.809 -2.7257 -0.5879 -2.0574
14128SOL    HW260377   5.179   5.231  11.819  0.5890  0.4621  0.8170
14129SOL     OW60378   9.327   4.387   8.050 -0.5855  0.2248  0.2351
14129SOL    HW160379   9.334   4.311   8.109 -0.1825  0.1995  0.1608
14129SOL    HW260380   9.252   4.368   7.995 -0.2546 -0.3082 -0.0450
14130SOL     OW60381   3.945   5.226   3.438 -0.2779 -0.0217 -0.1227
14130SOL    HW160382   3.905   5.141   3.452  1.8272 -1.0442  0.1889
14130SOL    HW260383   3.993   5.244   3.519 -0.2241  1.1995 -0.4013
14131SOL     OW60384  10.900   9.197  11.228  0.1755 -0.3370 -0.3071
14131SOL    HW160385  10.881   9.260  11.297 -0.9897 -0.2891 -0.6373
14131SOL    HW260386  10.995   9.201  11.217  0.2237  0.6915  0.3001
14132SOL     OW60387  11.352   4.814   4.524  0.6404 -0.0603 -0.7258
14132SOL    HW160388  11.299   4.821   4.444  0.5686 -1.8884 -0.8845
14132SOL    HW260389  11.434   4.774   4.495  0.0379 -2.2024  0.2749
14133SOL     OW60390   6.902  10.591  10.094 -0.8757 -0.5664  0.5327
14133SOL    HW160391   6.893  10.496  10.107 -1.2900 -0.6901 -0.5759
14133SOL    HW260392   6.963  10.599  10.021 -0.6074  0.0304  0.8221
14134SOL     OW60393   8.446   3.220  12.882 -0.0000 -0.0319 -0.1599
14134SOL    HW160394   8.371   3.166  12.857 -0.6461  0.9625 -0.4240
14134SOL    HW260395   8.470   3.190  12.969 -1.3423  0.2989  0.3367
14135SOL     OW60396   9.065  10.243   1.974  0.4123  0.0098  0.7969
14135SOL    HW160397   8.982  10.201   2.000 -0.2150  0.9205  0.3225
14135SOL    HW260398   9.073  10.317   2.034  1.2236 -0.4343  1.2523
14136SOL     OW60399   9.681   5.176   8.204  0.4802  0.6982  0.3366
14136SOL    HW160400   9.751   5.239   8.222  1.0603  0.5632 -1.2819
14136SOL    HW260401   9.633   5.169   8.286  2.1944  1.0141  1.3998
14137SOL     OW60402   8.014  11.794   6.159 -0.0722  0.1228  0.2970
14137SOL    HW160403   8.030  11.703   6.134 -0.7791 -0.5070  2.0126
14137SOL    HW260404   7.933  11.817   6.114  1.8088  1.1340 -2.9647
14138SOL     OW60405   2.985   6.879  10.373  0.0290  0.1178  0.4153
14138SOL    HW160406   2.938   6.895  10.291  3.1852  1.3384 -1.2908
14138SOL    HW260407   3.030   6.796  10.359  0.4533  0.2460  0.9836
14139SOL     OW60408  11.101  11.301  12.561 -0.0654  0.3769 -0.4961
14139SOL    HW160409  11.194  11.288  12.579 -0.2227  0.2706  0.3272
14139SOL    HW260410  11.065  11.334  12.644 -0.9902 -0.8582 -0.3659
14140SOL     OW60411   6.559  12.642  13.875 -0.3289 -0.0811 -0.5512
14140SOL    HW160412   6.543  12.725  13.831 -1.4944  0.2024  0.3639
14140SOL    HW260413   6.536  12.658  13.967  0.7868 -1.0182 -0.0729
14141SOL     OW60414   7.455   2.713  13.090  0.0761 -0.2769 -0.3220
14141SOL    HW160415   7.432   2.622  13.070 -0.9986  0.2107 -1.4513
14141SOL    HW260416   7.451   2.719  13.185  1.5844 -1.7461 -0.1266
14142SOL     OW60417   5.739   9.585   0.209 -0.1083 -0.3097  0.6420
14142SOL    HW160418   5.794   9.648   0.163 -0.7216 -0.8024 -0.8074
14142SOL    HW260419   5.781   9.576   0.295  2.3331 -0.9670 -0.5225
14143SOL     OW60420  13.288   2.419   6.817 -0.6335 -0.1185 -0.5633
14143SOL    HW160421  13.260   2.335   6.851 -0.5184 -0.1308 -0.4958
14143SOL    HW260422  13.228   2.483   6.855 -0.0837 -0.0502  0.2305
14144SOL     OW60423   2.472   1.520   4.337 -0.4389  0.5081 -0.0146
14144SOL    HW160424   2.463   1.459   4.410  1.6697 -0.5862 -0.6039
14144SOL    HW260425   2.538   1.583   4.366  0.8427 -0.2683 -1.1422
14145SOL     OW60426   3.270   5.773   3.184  0.0621  0.1531 -0.2891
14145SOL    HW160427   3.353   5.733   3.212 -0.5946  0.2913  1.9620
14145SOL    HW260428   3.297   5.858   3.147  0.9397  0.2670  0.5486
14146SOL     OW60429   6.790  12.365  13.471 -0.1754 -0.1687  0.1674
14146SOL    HW160430   6.708  12.326  13.501 -0.2924  1.0862  1.5701
14146SOL    HW260431   6.793  12.451  13.513  3.3516 -1.3367  2.8482
14147SOL     OW60432   6.447   4.718  10.309 -0.1431 -0.0134 -0.1391
14147SOL    HW160433   6.462   4.698  10.217  0.8335 -1.7099  0.3556
14147SOL    HW260434   6.418   4.635  10.348 -1.1099  0.8087  0.9872
14148SOL     OW60435   0.127   1.280   1.215 -0.1969  0.4224  0.6365
14148SOL    HW160436   0.089   1.360   1.252 -1.5255  0.6079 -1.0246
14148SOL    HW260437   0.115   1.214   1.283 -0.3976  1.2977  1.4696
14149SOL     OW60438   7.602   7.105   8.523  0.0526 -0.0038 -0.1096
14149SOL    HW160439   7.615   7.100   8.618 -1.0277 -1.6871 -0.0199
14149SOL    HW260440   7.519   7.151   8.512  1.5397  2.8728 -0.4108
14150SOL     OW60441   4.306   8.848  10.715  0.5803 -0.2030 -0.3333
14150SOL    HW160442   4.401   8.854  10.718  0.5044  1.0509  2.5903
14150SOL    HW260443   4.282   8.800  10.795 -1.2616 -0.7839 -1.1617
14151SOL     OW60444  10.826   0.661   7.563  0.1469  0.2329  0.3041
14151SOL    HW160445  10.771   0.584   7.579  0.0148 -0.3837 -2.5529
14151SOL    HW260446  10.764   0.733   7.556 -0.1622 -0.1387 -1.0360
14152SOL     OW60447   6.001   6.777   1.041 -0.8613 -0.4224  0.5936
14152SOL    HW160448   5.954   6.798   0.961  0.6806 -1.0323 -0.5016
14152SOL    HW260449   6.064   6.849   1.052 -0.7743 -0.5612  1.0298
14153SOL     OW60450  11.795  11.722   1.319  0.2651  0.7587 -0.5870
14153SOL    HW160451  11.864  11.743   1.383  0.9362 -0.2874 -0.9314
14153SOL    HW260452  11.760  11.807   1.292  0.7858  1.2668  0.2909
14154SOL     OW60453   7.880   2.074   9.769 -0.3131 -0.4523  0.4607
14154SOL    HW160454   7.915   2.090   9.856  0.5799  1.6340 -0.2192
14154SOL    HW260455   7.796   2.120   9.769  0.7741  1.6782 -0.4712
14155SOL     OW60456   5.832   4.202   0.513 -0.0119 -0.0247 -0.3532
14155SOL    HW160457   5.909   4.203   0.568  0.1649 -1.2155 -0.5611
14155SOL    HW260458   5.860   4.158   0.432 -0.1960  1.8639 -1.5212
14156SOL     OW60459  10.646   9.893   9.707 -0.0465 -0.5600 -0.5173
14156SOL    HW160460  10.556   9.873   9.682 -0.3386 -0.6590  0.5663
14156SOL    HW260461  10.673   9.818   9.761  0.0371  0.3333  0.7075
14157SOL     OW60462   5.294   1.927   3.625  0.5747 -0.3712  0.2167
14157SOL    HW160463   5.328   1.855   3.572 -0.4658 -0.7641  0.0421
14157SOL    HW260464   5.349   2.002   3.604 -1.7816  0.4834 -4.1947
14158SOL     OW60465   7.622  12.581   9.310  0.3413 -0.5167 -0.2545
14158SOL    HW160466   7.675  12.552   9.236  1.2341 -0.3535  0.2987
14158SOL    HW260467   7.533  12.585   9.276  0.6771 -0.8175 -1.2055
14159SOL     OW60468   7.012   8.343   7.556 -0.5316 -0.4587  0.2281
14159SOL    HW160469   7.057   8.273   7.508 -0.2437 -0.9346  1.1863
14159SOL    HW260470   7.072   8.367   7.626 -0.9716  0.2107  0.3826
14160SOL     OW60471  10.139   9.336  11.616 -0.1839 -0.6299  0.1918
14160SOL    HW160472  10.126   9.355  11.709 -0.2211  0.3482 -0.0075
14160SOL    HW260473  10.199   9.404  11.586 -1.4372  0.0411 -0.8694
14161SOL     OW60474   5.628   7.870   4.911 -0.3492 -0.3996  0.3011
14161SOL    HW160475   5.618   7.930   4.837  1.0621 -0.0875  0.3443
14161SOL    HW260476   5.538   7.849   4.936 -0.8584  0.2255 -0.9005
14162SOL     OW60477   6.892   7.208   0.677 -0.9368  0.1226  0.0493
14162SOL    HW160478   6.980   7.186   0.645 -1.3833  0.1165 -1.2263
14162SOL    HW260479   6.853   7.123   0.698 -0.2335  0.1875  1.8357
14163SOL     OW60480   0.070   0.132   3.824  0.5448 -0.6470  0.0775
14163SOL    HW160481   0.107   0.054   3.866 -0.6345 -0.6565  1.1327
14163SOL    HW260482   0.128   0.147   3.748  1.9061 -1.4308  0.9133
14164SOL     OW60483   7.775   6.953  11.252 -0.4785  0.8083  0.2686
14164SOL    HW160484   7.693   6.989  11.285 -0.7139  1.1897 -0.6881
14164SOL    HW260485   7.817   6.914  11.329 -2.6106 -1.4844  0.4265
14165SOL     OW60486   2.580   7.652   2.463  0.1164  0.3334  0.3119
14165SOL    HW160487   2.565   7.621   2.374  0.4943  2.2069 -0.4639
14165SOL    HW260488   2.643   7.591   2.499 -0.9154 -1.1361 -0.2799
14166SOL     OW60489   0.451   7.955   8.094  0.6507 -0.1675 -0.5692
14166SOL    HW160490   0.433   8.031   8.039 -0.0992 -0.6750 -1.0513
14166SOL    HW260491   0.532   7.977   8.140 -0.3969  1.6583  0.5942
14167SOL     OW60492   8.901   2.670  10.018  0.0036  0.8201  0.2711
14167SOL    HW160493   8.966   2.724   9.973  1.1046 -0.4499  0.2514
14167SOL    HW260494   8.818   2.714  10.003  1.0507  3.6322  2.0198
14168SOL     OW60495   7.686   5.467   1.540  0.0976  0.0169  0.3506
14168SOL    HW160496   7.655   5.393   1.487  0.3848 -0.5520  0.9587
14168SOL    HW260497   7.696   5.538   1.478  0.2155 -0.5716 -0.3221
14169SOL     OW60498   3.912  12.066   0.837  0.0628 -0.2911 -0.7251
14169SOL    HW160499   3.850  12.075   0.765 -0.0952 -0.2200 -0.5825
14169SOL    HW260500   3.983  12.126   0.816 -0.7702  0.9925 -0.0029
14170SOL     OW60501   3.638   6.405   3.555 -0.5181 -0.4938  0.1858
14170SOL    HW160502   3.711   6.378   3.610 -1.4093 -1.8351  0.7622
14170SOL    HW260503   3.663   6.491   3.522  1.1580 -0.7707  0.6440
14171SOL     OW60504   6.622   0.044   3.490 -0.5227 -0.1628 -0.3040
14171SOL    HW160505   6.576   0.013   3.568 -1.4662  0.8730 -0.4106
14171SOL    HW260506   6.554   0.088   3.439  0.1397 -0.5878 -1.5841
14172SOL     OW60507  11.090  11.519   8.631  0.0128  0.5968 -0.3567
14172SOL    HW160508  11.141  11.540   8.552  0.2638  1.8826  0.1217
14172SOL    HW260509  11.154  11.522   8.702 -0.3622  0.2576 -0.0049
14173SOL     OW60510  13.388   1.078   3.487 -0.3727  0.2167 -0.2376
14173SOL    HW160511  13.379   1.077   3.392  2.7026 -0.1755 -0.6372
14173SOL    HW260512  13.415   1.168   3.508  0.0337  0.0216  0.0995
14174SOL     OW60513   0.808  10.016   8.513 -0.3707  0.1244  0.0151
14174SOL    HW160514   0.862   9.955   8.462 -1.7848 -0.5472 -0.7110
14174SOL    HW260515   0.746   9.961   8.560  0.1942  0.8195  1.6469
14175SOL     OW60516  14.139   1.343  13.008 -0.1677  0.2670 -0.4424
14175SOL    HW160517  14.235   1.340  13.000 -0.0681  0.6206  0.4804
14175SOL    HW260518  14.120   1.433  13.034 -0.7718  0.2430 -0.7779
14176SOL     OW60519   5.816   7.741  10.500  0.1060  0.5565 -0.1145
14176SOL    HW160520   5.735   7.749  10.448 -0.3042  0.3643  0.4862
14176SOL    HW260521   5.886   7.746  10.435 -0.3918  0.6114 -0.6603
14177SOL     OW60522   6.824  10.863   6.885  0.0895 -0.1090  0.6615
14177SOL    HW160523   6.893  10.797   6.887  0.7959  0.5648 -0.6752
14177SOL    HW260524   6.812  10.883   6.792  0.0517  1.7952  1.0396
14178SOL     OW60525   1.896   9.724  10.158  0.3484 -0.4390 -0.3728
14178SOL    HW160526   1.948   9.719  10.239 -1.8575  1.8772  1.3345
14178SOL    HW260527   1.945   9.783  10.101  0.4651  0.3452  0.5227
14179SOL     OW60528   5.351   5.640   6.338  0.0769 -0.3578 -0.5172
14179SOL    HW160529   5.283   5.635   6.270  0.7858 -0.4502 -1.2384
14179SOL    HW260530   5.415   5.574   6.312  0.9142  0.3915 -0.3924
14180SOL     OW60531   0.022   3.714   4.967  0.0401 -0.3647 -0.2223
14180SOL    HW160532  -0.069   3.723   4.995  0.2636  0.8409  0.1761
14180SOL    HW260533   0.017   3.665   4.885 -0.9316 -0.6643  0.0045
14181SOL     OW60534  11.884   5.189   7.377 -0.3093  0.1473  0.3425
14181SOL    HW160535  11.940   5.266   7.376 -0.0978  0.0199  1.4845
14181SOL    HW260536  11.795   5.223   7.386 -0.1568  0.2388  1.5844
14182SOL     OW60537   5.725   6.949   6.945 -0.2379 -0.3980  0.2905
14182SOL    HW160538   5.766   7.004   7.012  0.8261 -0.8714  0.0488
14182SOL    HW260539   5.798   6.923   6.888 -1.0749 -0.2281 -0.8907
14183SOL     OW60540   7.105  11.927   5.727 -0.1191 -0.1325 -0.5156
14183SOL    HW160541   7.017  11.907   5.697 -0.3764  3.3279 -2.7671
14183SOL    HW260542   7.161  11.909   5.651  0.6870  0.1438 -0.0084
14184SOL     OW60543   4.039   7.090   3.373  0.8252 -0.4053 -0.0677
14184SOL    HW160544   3.980   7.099   3.298 -0.7966  0.5720  1.2570
14184SOL    HW260545   4.127   7.092   3.335  0.0359 -1.5330 -2.0745
14185SOL     OW60546   9.132  12.283   4.250  0.4160  0.5789  0.3244
14185SOL    HW160547   9.111  12.277   4.157 -2.7901  0.2232  0.9279
14185SOL    HW260548   9.172  12.369   4.261 -0.7327  1.3451 -1.1622
14186SOL     OW60549  12.575   3.067  12.244 -0.1762  0.6799  0.1931
14186SOL    HW160550  12.492   3.081  12.198  0.7307  0.5798 -1.5733
14186SOL    HW260551  12.632   3.027  12.178  1.9211  2.6443  0.6784
14187SOL     OW60552   7.493   5.866  11.318 -0.6476  0.6824  0.3756
14187SOL    HW160553   7.517   5.824  11.236  1.3046  0.8236  0.8228
14187SOL    HW260554   7.577   5.881  11.363 -1.4984  2.3369  1.5370
14188SOL     OW60555   4.930  12.464  10.514  0.6625 -0.4366  0.0650
14188SOL    HW160556   4.951  12.537  10.572 -0.2267  0.9692 -1.3323
14188SOL    HW260557   4.989  12.473  10.440 -0.0830 -0.5675 -0.5599
14189SOL     OW60558   4.380  11.659   2.566 -0.5588 -0.2230 -0.3856
14189SOL    HW160559   4.418  11.707   2.639 -0.1013  1.2237 -1.5358
14189SOL    HW260560   4.329  11.589   2.608  0.7935 -0.2968  1.2649
14190SOL     OW60561   1.304  12.635   5.695 -0.1701 -0.2173  0.1297
14190SOL    HW160562   1.287  12.606   5.784 -2.3437  0.8339  0.1360
14190SOL    HW260563   1.269  12.565   5.640 -0.1215 -0.2294  0.1148
14191SOL     OW60564   7.134   9.793  13.561 -0.3936  0.2894 -0.4960
14191SOL    HW160565   7.083   9.786  13.480  0.5190  0.0151 -1.0601
14191SOL    HW260566   7.224   9.808  13.532 -0.1833  1.0798  0.4872
14192SOL     OW60567   9.970   9.730  12.311 -0.2340 -0.1554 -0.7645
14192SOL    HW160568  10.001   9.694  12.393 -3.0039 -0.8308  0.1032
14192SOL    HW260569  10.041   9.788  12.281  1.6168 -1.3416  1.0872
14193SOL     OW60570   6.834   0.762   8.889  0.7745 -0.2116 -0.0584
14193SOL    HW160571   6.769   0.785   8.823  0.3159 -1.8752 -0.2401
14193SOL    HW260572   6.817   0.822   8.962 -0.1236  0.2159 -0.6068
14194SOL     OW60573  12.690   9.175   7.946 -0.6250  0.2310  0.4137
14194SOL    HW160574  12.687   9.238   7.874 -1.9732 -0.3342 -0.0559
14194SOL    HW260575  12.598   9.160   7.969 -0.2773 -0.7076  1.2816
14195SOL     OW60576   0.398   6.981  13.722 -0.5693 -0.0365  0.1894
14195SOL    HW160577   0.492   6.964  13.732 -0.5386  0.5668  1.0502
14195SOL    HW260578   0.375   7.033  13.799 -1.5529  0.0738 -0.1659
14196SOL     OW60579   3.890   2.819   8.108  0.5910  0.1454 -0.6279
14196SOL    HW160580   3.976   2.829   8.068 -0.0210  0.2984 -1.9496
14196SOL    HW260581   3.878   2.725   8.117  0.6509  0.1002 -1.0091
14197SOL     OW60582   8.767   8.745   9.657 -0.4379 -0.6568  0.6596
14197SOL    HW160583   8.746   8.673   9.717 -0.9898 -1.5140 -0.5182
14197SOL    HW260584   8.862   8.752   9.662 -0.1670 -2.6632 -0.4574
14198SOL     OW60585  13.703  11.981   8.387 -0.0787  0.3601  0.2230
14198SOL    HW160586  13.766  11.962   8.457 -0.2853  0.4283  0.4301
14198SOL    HW260587  13.690  11.896   8.344 -1.3044 -0.0892  1.3980
14199SOL     OW60588   7.289   2.331   0.546 -0.7633  0.2719 -0.1722
14199SOL    HW160589   7.287   2.237   0.563  0.4193  0.0559 -1.1444
14199SOL    HW260590   7.256   2.340   0.456 -1.4399  0.8511  0.1224
14200SOL     OW60591   8.618   9.679   6.661 -0.1394 -0.2431 -0.5668
14200SOL    HW160592   8.652   9.706   6.575 -1.1302  0.1121 -0.8552
14200SOL    HW260593   8.595   9.761   6.705  1.3589 -0.3487  0.4849
14201SOL     OW60594   6.195   8.724   5.249 -0.3476  0.7805 -0.3023
14201SOL    HW160595   6.110   8.766   5.267 -1.5204 -1.3015 -0.6189
14201SOL    HW260596   6.191   8.642   5.298  1.6864  0.8154 -0.0170
14202SOL     OW60597   8.032   7.235  12.615  0.3260  0.2124 -0.1968
14202SOL    HW160598   8.123   7.215  12.591  0.1402  0.2723 -0.9652
14202SOL    HW260599   8.036   7.322  12.654  1.1862 -1.2361  3.3884
14203SOL     OW60600  12.927   1.600   4.714 -0.0114  0.0464 -0.0777
14203SOL    HW160601  12.918   1.585   4.620 -1.3565 -0.0543  0.0528
14203SOL    HW260602  12.970   1.685   4.720 -2.4765  1.4488 -0.8162
14204SOL     OW60603  11.778  11.427  11.693  0.1723  0.0923 -0.2034
14204SOL    HW160604  11.731  11.485  11.634  0.4815 -0.1862 -0.7309
14204SOL    HW260605  11.862  11.471  11.708 -0.3457  0.7182  0.9470
14205SOL     OW60606  10.946   8.816   2.777 -0.0440  0.2772 -0.4570
14205SOL    HW160607  10.944   8.897   2.827 -0.0087 -0.3758  0.6263
14205SOL    HW260608  11.035   8.782   2.791 -0.3218 -0.3607 -0.2327
14206SOL     OW60609   9.901  12.814   9.848 -0.2837  0.0494 -0.2256
14206SOL    HW160610   9.945  12.758   9.785 -0.8968 -0.3840 -0.2722
14206SOL    HW260611   9.810  12.782   9.850 -0.8763  1.5771 -0.9120
14207SOL     OW60612   0.032  12.242   9.614  0.0333  0.2993  0.4595
14207SOL    HW160613   0.058  12.174   9.676  1.0952  0.4494  0.1915
14207SOL    HW260614  -0.021  12.197   9.549  0.6259 -0.2550  0.3526
14208SOL     OW60615   5.526   8.414   4.068 -0.2036 -0.0910 -0.6504
14208SOL    HW160616   5.606   8.456   4.101  0.2882 -0.9748 -0.6882
14208SOL    HW260617   5.457   8.445   4.126  0.4618 -0.6974  0.4876
14209SOL     OW60618   4.364   8.607   7.990 -0.6244 -0.2722  0.4499
14209SOL    HW160619   4.314   8.565   8.060 -0.9008 -1.4723 -0.4312
14209SOL    HW260620   4.308   8.679   7.960 -1.8138 -1.5353 -0.4596
14210SOL     OW60621   5.987  13.185   1.383 -0.0122  0.4373  0.1933
14210SOL    HW160622   5.899  13.158   1.409  0.2613 -0.7502 -0.0896
14210SOL    HW260623   6.042  13.167   1.460  0.3305 -0.6706 -0.2957
14211SOL     OW60624   7.653   7.135   6.604 -0.0189 -0.0530 -0.0720
14211SOL    HW160625   7.627   7.043   6.609  1.0726 -0.3651  0.1644
14211SOL    HW260626   7.688   7.154   6.691  0.7236  0.2780 -0.4346
14212SOL     OW60627   6.219   9.686   9.875 -0.1866  0.5649 -0.5254
14212SOL    HW160628   6.215   9.598   9.911 -1.3710  1.0351  0.5455
14212SOL    HW260629   6.311   9.698   9.851  0.9927  0.6345  3.4274
14213SOL     OW60630   4.864  13.469   4.532 -0.9252  0.4556  0.7185
14213SOL    HW160631   4.903  13.420   4.459 -0.4032  1.6133  0.1783
14213SOL    HW260632   4.866  13.409   4.606 -1.3746 -0.7225 -0.1903
14214SOL     OW60633  10.805  10.627   9.003  0.1502 -0.0701 -0.2331
14214SOL    HW160634  10.738  10.682   9.045 -0.2742 -1.8390  1.6127
14214SOL    HW260635  10.795  10.644   8.910 -0.1812  2.6672  0.2187
14215SOL     OW60636   5.856   0.751  12.364 -0.4865  0.1523 -0.1097
14215SOL    HW160637   5.787   0.762  12.300  0.6750  2.5952 -1.1028
14215SOL    HW260638   5.907   0.676  12.333 -1.3025 -0.1652 -0.7012
14216SOL     OW60639   9.745  12.067   5.387  0.5264 -0.1173 -0.4362
14216SOL    HW160640   9.709  12.036   5.470  0.7740  2.6322  0.8209
14216SOL    HW260641   9.670  12.105   5.341  0.5433 -0.8653 -1.0883
14217SOL     OW60642   2.999   9.840   0.443  0.0880 -0.0742 -0.7817
14217SOL    HW160643   3.047   9.920   0.420  1.1303 -0.7205 -0.9047
14217SOL    HW260644   3.036   9.813   0.527  0.3674 -0.8993 -1.1606
14218SOL     OW60645   6.684   0.662   8.189 -0.3511  0.1193  0.6444
14218SOL    HW160646   6.773   0.671   8.156  0.2836  0.2450  2.3132
14218SOL    HW260647   6.671   0.567   8.199 -0.1170  0.1386  1.1409
14219SOL     OW60648   6.647   1.306   5.758 -0.0208  0.2943 -0.4384
14219SOL    HW160649   6.573   1.318   5.698  0.8687  1.1537 -1.4005
14219SOL    HW260650   6.664   1.394   5.792  0.0889 -0.0278  0.3627
14220SOL     OW60651   4.014   9.589  13.681 -0.1083  0.5405  0.4897
14220SOL    HW160652   3.929   9.611  13.720 -0.6646  0.9200 -0.8792
14220SOL    HW260653   4.040   9.668  13.634  0.2203 -0.1043 -0.4433
14221SOL     OW60654   5.190  14.067  13.172  0.1636 -0.1869  0.6516
14221SOL    HW160655   5.145  14.151  13.171 -1.1036 -0.8476  0.1118
14221SOL    HW260656   5.168  14.027  13.088  0.6853 -1.0844  0.9287
14222SOL     OW60657   5.944   2.800  11.647  0.4390 -0.3394 -0.0525
14222SOL    HW160658   5.980   2.718  11.678 -0.7141 -0.9958 -0.3685
14222SOL    HW260659   5.854   2.801  11.681  0.4443  0.8041 -0.0291
14223SOL     OW60660   0.538   1.256   0.168  0.2375  0.3092 -0.0188
14223SOL    HW160661   0.553   1.254   0.263  2.7392 -1.4998 -0.3211
14223SOL    HW260662   0.475   1.326   0.155  0.5643  1.3004  2.8867
14224SOL     OW60663   8.036   9.447  11.812 -0.0355 -0.5057 -0.0225
14224SOL    HW160664   8.115   9.422  11.861 -0.9761 -1.1737  1.2486
14224SOL    HW260665   8.052   9.537  11.784  1.2364 -0.6840  0.0620
14225SOL     OW60666  13.252   9.186   6.433 -0.2783 -0.1279 -0.0662
14225SOL    HW160667  13.177   9.165   6.377 -0.5418  2.7787 -0.9393
14225SOL    HW260668  13.302   9.252   6.384  2.6837 -1.6190  0.6735
14226SOL     OW60669  11.505   9.744   5.333  0.1813 -0.3073  0.4015
14226SOL    HW160670  11.474   9.677   5.393  0.1083 -0.1553  0.5332
14226SOL    HW260671  11.441   9.814   5.340 -1.5772 -1.5136 -2.1123
14227SOL     OW60672   9.390   9.253   1.664  0.0574 -0.2100 -0.2568
14227SOL    HW160673   9.378   9.244   1.569 -4.4552 -1.9649  0.2450
14227SOL    HW260674   9.376   9.347   1.681 -0.9230 -0.1706 -1.1908
14228SOL     OW60675  14.143   0.358   1.289  0.1059  0.3189 -0.1267
14228SOL    HW160676  14.070   0.405   1.248  0.3753  0.4556 -0.4547
14228SOL    HW260677  14.115   0.267   1.292 -0.1701  0.4055 -0.0499
14229SOL     OW60678   1.230   0.616   6.861  0.1233 -0.5031  0.2533
14229SOL    HW160679   1.282   0.686   6.900 -0.8726  0.2515  0.2819
14229SOL    HW260680   1.139   0.643   6.877 -0.2892 -0.9950 -1.1349
14230SOL     OW60681  11.526  14.009   6.084 -0.3559 -0.5809 -0.3471
14230SOL    HW160682  11.526  13.918   6.115 -0.0704 -0.2269  0.7477
14230SOL    HW260683  11.614  14.023   6.051 -0.1882 -0.5077  0.1195
14231SOL     OW60684  13.109   9.446  12.316 -0.0394  0.1072  0.0866
14231SOL    HW160685  13.115   9.496  12.398 -1.7325 -0.2703  0.4755
14231SOL    HW260686  13.016   9.429  12.305  0.2180 -0.3567 -1.6407
14232SOL     OW60687   2.356   9.428  12.822 -0.1243 -0.0240 -0.0132
14232SOL    HW160688   2.418   9.426  12.749 -0.4124 -0.5442 -0.2531
14232SOL    HW260689   2.318   9.340  12.823 -1.3816  0.4887 -0.3257
14233SOL     OW60690   8.211   3.288   9.147  0.2432  0.1591 -0.0486
14233SOL    HW160691   8.267   3.351   9.192  1.2893 -2.0583  1.9217
14233SOL    HW260692   8.144   3.265   9.211  0.4910 -1.4997 -0.3539
14234SOL     OW60693  12.476   6.964   4.496  0.2253  0.1676  0.1361
14234SOL    HW160694  12.403   6.907   4.522 -0.1369 -0.2150 -1.5829
14234SOL    HW260695  12.551   6.904   4.490 -0.1176 -0.1748 -1.4964
14235SOL     OW60696   4.221  13.053  10.858  0.5806 -0.1101  0.2951
14235SOL    HW160697   4.260  13.067  10.944 -1.4613  1.6459  1.0287
14235SOL    HW260698   4.222  12.958  10.846 -0.8191 -0.5908  3.1740
14236SOL     OW60699  11.164  10.536   4.922  0.1480  0.2583 -0.0542
14236SOL    HW160700  11.227  10.476   4.963 -0.2872  0.0631  0.3378
14236SOL    HW260701  11.091  10.540   4.984 -0.7446 -0.4195 -1.0222
14237SOL     OW60702   1.808   6.351   1.721  0.4077 -0.3324 -0.6655
14237SOL    HW160703   1.780   6.424   1.667 -0.3496  0.2315  0.4461
14237SOL    HW260704   1.769   6.274   1.680 -0.1896  0.0886 -0.8968
14238SOL     OW60705   0.989   0.063   5.091  0.9168 -0.2240  0.0346
14238SOL    HW160706   0.990   0.148   5.048 -1.4993  0.4659  1.1623
14238SOL    HW260707   0.978   0.084   5.184 -0.5382 -1.7376  0.2543
14239SOL     OW60708   1.856  12.293  11.316  0.1409  0.1517 -0.5512
14239SOL    HW160709   1.891  12.366  11.264  2.7281 -0.4975  0.1355
14239SOL    HW260710   1.863  12.322  11.407 -4.7229  1.4369 -0.3299
14240SOL     OW60711   0.827   7.999   8.940  0.2800 -0.8272  0.0339
14240SOL    HW160712   0.913   7.958   8.949  1.4215  1.5499  0.5763
14240SOL    HW260713   0.795   7.970   8.855  1.2662 -2.3338  0.1418
14241SOL     OW60714   5.057  12.663   7.309 -0.3870 -0.2494  0.3815
14241SOL    HW160715   5.120  12.733   7.291  1.5500 -2.1034 -0.5621
14241SOL    HW260716   5.051  12.660   7.404  1.2972 -0.2585  0.5235
14242SOL     OW60717  10.376  10.715   0.822 -0.4321  0.2250  0.2212
14242SOL    HW160718  10.326  10.796   0.832 -0.5133  0.0661  1.2072
14242SOL    HW260719  10.410  10.719   0.733 -1.4762  0.7522 -0.1766
14243SOL     OW60720   7.523   9.706   4.147  0.1653  0.1147 -0.5486
14243SOL    HW160721   7.468   9.765   4.199 -1.6165 -1.5577 -0.4401
14243SOL    HW260722   7.584   9.668   4.210 -1.2414 -1.0439  0.1835
14244SOL     OW60723  14.029   7.797   8.602  0.3275 -0.3971  0.3383
14244SOL    HW160724  13.982   7.724   8.642 -0.3950 -0.1900 -0.1071
14244SOL    HW260725  14.113   7.759   8.575 -0.3604 -1.3042 -0.6467
14245SOL     OW60726   4.004  11.555   0.507  0.1368  0.0428  0.1512
14245SOL    HW160727   3.998  11.573   0.414 -1.2791 -1.0962 -0.0126
14245SOL    HW260728   3.914  11.536   0.534  0.7472 -1.3193  1.3734
14246SOL     OW60729   7.375   4.749   9.959 -1.1693 -0.2641  0.4133
14246SOL    HW160730   7.351   4.835   9.925 -0.2196  1.0168  2.6960
14246SOL    HW260731   7.358   4.756  10.053  0.0895 -2.1558  0.8367
14247SOL     OW60732  12.955   8.514   9.641  0.2303  0.2089  0.1093
14247SOL    HW160733  12.868   8.478   9.658 -0.2675  1.4452  0.3113
14247SOL    HW260734  12.998   8.447   9.588 -1.8238  0.6957 -2.4133
14248SOL     OW60735   2.611   4.357  13.743 -0.3236  0.0026  0.0525
14248SOL    HW160736   2.648   4.409  13.671  2.5401 -1.3251  0.4255
14248SOL    HW260737   2.635   4.267  13.721 -1.1614 -0.6385  1.6856
14249SOL     OW60738  12.495   1.303   0.262  0.1320 -0.3314 -0.2630
14249SOL    HW160739  12.461   1.315   0.351  0.6957 -5.0292  0.8607
14249SOL    HW260740  12.439   1.234   0.224  0.1163  1.2764 -3.5428
14250SOL     OW60741   0.271   0.485   1.296 -0.0435 -0.1668  0.6095
14250SOL    HW160742   0.344   0.548   1.299 -0.3311  0.2008 -0.0045
14250SOL    HW260743   0.193   0.539   1.302 -0.3007 -0.4487 -0.1227
14251SOL     OW60744   6.298  11.009   3.668  0.0268 -0.1728 -0.4551
14251SOL    HW160745   6.235  11.061   3.717  1.7786  1.8422 -0.1615
14251SOL    HW260746   6.340  10.953   3.734 -0.3182 -0.3274 -0.3668
14252SOL     OW60747   2.269   9.155   6.120 -0.2089  0.4581 -0.2495
14252SOL    HW160748   2.302   9.235   6.161 -0.6788  1.1295 -1.1241
14252SOL    HW260749   2.181   9.144   6.157  0.4918 -0.6605  1.1830
14253SOL     OW60750   8.201   0.865   1.911  0.5019 -0.1903  0.6472
14253SOL    HW160751   8.256   0.938   1.941 -1.5279  1.1583  1.2366
14253SOL    HW260752   8.181   0.887   1.819 -1.5097  0.9752  1.3026
14254SOL     OW60753   2.787   5.673   2.375 -0.1484  0.5290  0.2006
14254SOL    HW160754   2.710   5.651   2.428 -1.7112  3.5569 -0.5961
14254SOL    HW260755   2.862   5.648   2.430 -1.6415 -1.2786  1.5625
14255SOL     OW60756  13.513   0.120   5.131  0.1389 -0.2310  0.1150
14255SOL    HW160757  13.525   0.026   5.122  0.7460 -0.0522 -1.1834
14255SOL    HW260758  13.580   0.147   5.195  0.9366 -0.4925 -0.5863
14256SOL     OW60759  12.511   9.585   9.814 -0.3914 -0.2824  0.0688
14256SOL    HW160760  12.524   9.555   9.723  0.2841 -1.9419  0.6593
14256SOL    HW260761  12.417   9.596   9.822 -0.3162  2.3931 -1.5336
14257SOL     OW60762  12.155   4.716   5.761 -0.0836 -0.3634  0.1251
14257SOL    HW160763  12.149   4.735   5.855 -0.6871 -1.4636  0.3323
14257SOL    HW260764  12.228   4.655   5.754  0.4170  0.2802 -0.2168
14258SOL     OW60765   5.672   9.564   5.255  0.2562  0.0900  0.5756
14258SOL    HW160766   5.723   9.611   5.189 -0.8652 -1.0239 -1.1473
14258SOL    HW260767   5.738   9.522   5.310  1.2881  2.7320  1.5722
14259SOL     OW60768   8.221  10.575  11.634 -0.1106 -0.4023 -0.0987
14259SOL    HW160769   8.145  10.623  11.602 -0.9031 -0.9773  0.8314
14259SOL    HW260770   8.233  10.505  11.570 -1.2507 -1.1362  0.4375
14260SOL     OW60771   0.067   1.211   6.298 -0.1737 -0.0266  0.2989
14260SOL    HW160772   0.139   1.196   6.359 -1.9606 -2.3352  2.0319
14260SOL    HW260773   0.027   1.293   6.328  0.0604 -0.2044  1.1218
14261SOL     OW60774   6.567   4.647   0.588  0.2382  0.1263  0.1326
14261SOL    HW160775   6.522   4.715   0.539 -1.7145 -0.3254  1.2211
14261SOL    HW260776   6.619   4.601   0.522  0.3181  1.6143 -0.8929
14262SOL     OW60777   1.582  13.027   5.238 -0.0376  0.4726  0.2758
14262SOL    HW160778   1.623  12.941   5.230 -0.0901  0.4364  0.3880
14262SOL    HW260779   1.518  13.016   5.309  0.6093  0.8500  0.9279
14263SOL     OW60780  10.738   5.682   2.059 -0.0525 -0.0430  0.2153
14263SOL    HW160781  10.684   5.741   2.007 -2.8487 -1.6759  1.0273
14263SOL    HW260782  10.809   5.657   2.000  0.0488  2.4201 -0.8279
14264SOL     OW60783   1.131   6.758  10.203 -0.3428  0.0525 -0.3329
14264SOL    HW160784   1.130   6.669  10.236 -1.9422  0.6665  1.4458
14264SOL    HW260785   1.210   6.798  10.241 -1.7559  0.5236  2.2661
14265SOL     OW60786   5.493   1.153  11.335 -0.1841  0.2193 -0.3145
14265SOL    HW160787   5.410   1.106  11.342 -0.5606  0.9729  0.4716
14265SOL    HW260788   5.472   1.233  11.286 -0.5254  1.6531  1.9961
14266SOL     OW60789   7.524  10.591  10.509 -0.4483 -0.1937  0.4845
14266SOL    HW160790   7.450  10.624  10.560 -0.1145  0.3185  0.6548
14266SOL    HW260791   7.540  10.660  10.444  1.2801  0.7926  1.8605
14267SOL     OW60792  11.151   7.264  12.790  0.4367 -0.5396 -0.3746
14267SOL    HW160793  11.073   7.209  12.792  0.3839 -0.4432  1.1175
14267SOL    HW260794  11.146   7.310  12.706 -1.5917  0.1633  0.0690
14268SOL     OW60795  13.994   8.569  12.048  0.6952 -0.2067 -0.3300
14268SOL    HW160796  14.033   8.483  12.065 -0.4297 -0.4878  0.9867
14268SOL    HW260797  13.939   8.586  12.124 -2.6033 -0.3145 -2.5051
14269SOL     OW60798   4.594   8.545   6.538 -0.2918  0.2009 -0.1695
14269SOL    HW160799   4.578   8.464   6.490  0.1924  1.3545 -2.3926
14269SOL    HW260800   4.533   8.608   6.500  1.4605  1.6568 -0.6942
14270SOL     OW60801   8.929   1.808  13.296 -0.1090 -0.3972  0.4102
14270SOL    HW160802   8.910   1.901  13.295 -1.4029 -0.6421  0.6477
14270SOL    HW260803   8.930   1.782  13.204  2.0037  0.1504  0.2219
14271SOL     OW60804   2.160  11.481  11.670 -0.2455  0.5032  0.4810
14271SOL    HW160805   2.149  11.573  11.691 -0.8973  0.7640 -0.8842
14271SOL    HW260806   2.156  11.477  11.574 -1.7800 -1.1099  0.5464
14272SOL     OW60807  13.132   7.702  11.429 -0.2913  0.0764  0.1919
14272SOL    HW160808  13.172   7.782  11.461  0.7041 -0.5428  0.5442
14272SOL    HW260809  13.201   7.636  11.437 -1.1235 -0.8351  0.0028
14273SOL     OW60810   7.616  13.833  12.394  0.5727 -0.7638  0.7805
14273SOL    HW160811   7.664  13.751  12.380 -0.9820 -1.6733  0.5275
14273SOL    HW260812   7.660  13.897  12.338 -0.3765 -2.3215 -1.9600
14274SOL     OW60813  12.431   0.055   0.767  0.1001 -0.7149  0.3402
14274SOL    HW160814  12.397   0.033   0.680  1.4634  0.1117 -0.4433
14274SOL    HW260815  12.387  -0.006   0.826  0.4829 -2.5294 -1.1492
14275SOL     OW60816   0.074  12.269   9.120 -0.0667 -0.3157 -0.0444
14275SOL    HW160817   0.067  12.179   9.087 -1.1049 -0.6069  0.9086
14275SOL    HW260818   0.168  12.280   9.139 -0.0129 -1.4185  0.4147
14276SOL     OW60819   0.602  11.299   2.819  0.1997 -0.2367  0.8887
14276SOL    HW160820   0.560  11.334   2.740  1.5622 -0.9919 -0.2056
14276SOL    HW260821   0.529  11.276   2.877 -0.8062  2.0750  0.6774
14277SOL     OW60822   6.597   3.811   6.892 -0.2485  0.2409  0.4148
14277SOL    HW160823   6.617   3.737   6.948 -0.2808 -1.3970 -1.6200
14277SOL    HW260824   6.517   3.786   6.846  0.1514  1.1806 -0.8759
14278SOL     OW60825  10.485   5.514  12.740  0.2567  0.4430 -0.2049
14278SOL    HW160826  10.463   5.421  12.737 -1.7359  0.8918 -1.1474
14278SOL    HW260827  10.449   5.545  12.823 -2.8073  1.1260 -1.6405
14279SOL     OW60828   5.217   2.169  12.076 -0.7638 -0.0606 -0.1162
14279SOL    HW160829   5.172   2.112  12.139 -0.6656 -0.8842 -0.7748
14279SOL    HW260830   5.193   2.258  12.103  0.2851 -0.3057  1.8809
14280SOL     OW60831   1.479  11.508   4.003  0.4304 -0.1141  0.1087
14280SOL    HW160832   1.398  11.468   3.971  1.4472 -1.5523 -0.8401
14280SOL    HW260833   1.523  11.539   3.924  0.5938  1.1139  0.6640
14281SOL     OW60834   2.870   3.257  11.026  0.3431 -0.6234  0.7016
14281SOL    HW160835   2.776   3.271  11.038  0.1632 -1.0992 -0.0716
14281SOL    HW260836   2.890   3.181  11.080  0.3200 -0.4387  0.9758
14282SOL     OW60837  13.081   8.517  12.590 -0.1710  0.1350 -0.2171
14282SOL    HW160838  13.095   8.496  12.498  0.6963 -0.1159 -0.0350
14282SOL    HW260839  13.023   8.448  12.622 -0.1752  0.0151 -0.4837
14283SOL     OW60840   1.366   4.245   5.055 -0.2835 -0.0934 -0.2963
14283SOL    HW160841   1.409   4.276   5.135  0.3305 -1.3630 -0.1009
14283SOL    HW260842   1.438   4.223   4.996 -0.7343  1.0138 -1.2927
14284SOL     OW60843   9.539   7.278  10.468 -0.0730 -0.5325 -0.2123
14284SOL    HW160844   9.546   7.236  10.553 -0.2117  0.6057  0.3834
14284SOL    HW260845   9.592   7.225  10.409 -0.1461 -1.4442  0.5397
14285SOL     OW60846   7.264   9.575   5.842  0.0913  0.3265 -0.1830
14285SOL    HW160847   7.221   9.651   5.803 -0.4320  0.9474  1.5128
14285SOL    HW260848   7.214   9.557   5.921  1.1273 -0.8503  0.2398
14286SOL     OW60849  12.964   4.277   1.746 -0.3526 -0.2710  0.3474
14286SOL    HW160850  12.895   4.317   1.799 -0.7519 -0.5036  0.0050
14286SOL    HW260851  12.921   4.206   1.699  0.1395 -0.4779  0.1973
14287SOL     OW60852   8.556   0.063  11.637  0.4965  0.3093  0.4373
14287SOL    HW160853   8.575   0.112  11.717  2.5355  2.1733 -1.0723
14287SOL    HW260854   8.588  -0.025  11.655 -1.8792 -0.2257  2.6757
14288SOL     OW60855  13.336   2.975   4.819  0.2820  0.1554 -0.4186
14288SOL    HW160856  13.246   2.981   4.853 -0.1451 -3.2571 -0.5512
14288SOL    HW260857  13.325   2.960   4.725  1.0358  0.2552 -0.5272
14289SOL     OW60858   2.552   9.410   4.017  0.1378  0.1310  0.7264
14289SOL    HW160859   2.645   9.416   4.036  0.0295  1.8624  0.9237
14289SOL    HW260860   2.536   9.481   3.955 -1.4130  1.3026  2.3553
14290SOL     OW60861   1.050  13.168   8.725 -0.5445 -0.4848  0.4241
14290SOL    HW160862   1.126  13.226   8.713 -1.1607  0.0779 -0.9267
14290SOL    HW260863   0.983  13.224   8.764 -0.6401 -0.6993  0.5708
14291SOL     OW60864  12.610   5.187   2.289  0.0083  0.2396 -0.3104
14291SOL    HW160865  12.612   5.093   2.270 -1.1289  0.3771 -1.1981
14291SOL    HW260866  12.653   5.195   2.374 -0.4313 -1.1570  0.0583
14292SOL     OW60867   3.001   5.581   8.789  1.0834  0.2273 -0.3148
14292SOL    HW160868   2.999   5.488   8.811  0.9487  0.5057  0.8988
14292SOL    HW260869   3.077   5.615   8.835  0.3186  0.9841  0.4153
14293SOL     OW60870   1.194   4.911   0.119  0.1500  0.1370 -0.5112
14293SOL    HW160871   1.099   4.907   0.119  0.0357  1.2403  1.8669
14293SOL    HW260872   1.217   4.929   0.028 -1.9364  0.3618 -1.0433
14294SOL     OW60873  11.527   7.876   3.337  0.1832  0.5346  0.0831
14294SOL    HW160874  11.548   7.965   3.366 -1.7667  1.0699 -0.0434
14294SOL    HW260875  11.590   7.859   3.267  0.2968  2.0093 -0.2143
14295SOL     OW60876  13.706   9.893   8.334  0.4002  0.6546 -0.4245
14295SOL    HW160877  13.649   9.940   8.394  0.9241 -0.7153  1.2153
14295SOL    HW260878  13.672   9.803   8.333  2.4359 -0.2058  0.6010
14296SOL     OW60879  11.250   3.685   6.523 -0.4577 -0.4929  0.0514
14296SOL    HW160880  11.207   3.684   6.608  0.8884  0.8429  0.8077
14296SOL    HW260881  11.320   3.620   6.531 -0.3859 -0.4288 -0.0556
14297SOL     OW60882  12.282   1.042  13.681  0.9299 -0.3074  0.5953
14297SOL    HW160883  12.198   1.065  13.721 -0.6060 -2.7966 -0.9340
14297SOL    HW260884  12.298   0.951  13.708  1.6778 -0.8259 -1.3616
14298SOL     OW60885   2.278   6.047   3.379  0.8808  0.2472 -0.0498
14298SOL    HW160886   2.233   6.126   3.350  1.4928  0.7882  0.4401
14298SOL    HW260887   2.249   5.979   3.318 -0.2170  0.6798 -0.0317
14299SOL     OW60888   7.974   4.589   1.079  0.4474 -0.1472  0.1308
14299SOL    HW160889   7.988   4.613   1.171  0.7256  0.9934 -0.1954
14299SOL    HW260890   8.009   4.501   1.072  0.9609 -0.0264  0.9885
14300SOL     OW60891   6.541   0.692  10.869  0.6444 -0.4392  0.1071
14300SOL    HW160892   6.586   0.622  10.917  1.0435  0.0010  0.3773
14300SOL    HW260893   6.610   0.736  10.820  0.3889 -0.2535 -0.0901
14301SOL     OW60894   1.940   1.908   4.805  0.1907 -0.0972 -0.2011
14301SOL    HW160895   1.958   1.814   4.795 -0.5267 -0.1225 -1.3923
14301SOL    HW260896   2.023   1.950   4.782  1.5452 -0.4639  3.3248
14302SOL     OW60897  11.694   9.429   4.965 -0.1093  0.7948  0.1689
14302SOL    HW160898  11.617   9.382   4.934  1.3388 -0.4170 -1.8343
14302SOL    HW260899  11.725   9.378   5.040  1.2915 -1.4655 -1.8166
14303SOL     OW60900   9.354   0.800  13.399  0.1602  0.1906  0.1159
14303SOL    HW160901   9.421   0.756  13.347  0.4557 -1.2519  1.6592
14303SOL    HW260902   9.271   0.774  13.359  0.3900 -0.7042  0.2083
14304SOL     OW60903   0.317  12.109   0.827  0.2523 -0.2516  0.9760
14304SOL    HW160904   0.284  12.193   0.795  0.0876 -1.1044 -1.3130
14304SOL    HW260905   0.392  12.090   0.770 -0.6003 -2.3086  0.4493
14305SOL     OW60906   0.474   4.015   9.363 -0.2380  0.0550  0.1800
14305SOL    HW160907   0.533   4.084   9.331 -1.3050  1.4396  1.0626
14305SOL    HW260908   0.515   3.933   9.335  1.2134  1.0307 -0.6855
14306SOL     OW60909   6.542  11.925   9.920  0.1124 -0.0321 -0.2763
14306SOL    HW160910   6.571  11.983   9.850  2.8293  0.5563  1.2062
14306SOL    HW260911   6.486  11.981   9.975  1.0119  0.6141  0.0091
14307SOL     OW60912   1.446  11.417  13.141  0.3210 -0.2317  0.1613
14307SOL    HW160913   1.475  11.446  13.228 -0.2863  0.7827  0.0335
14307SOL    HW260914   1.519  11.438  13.083  0.3738 -0.0904  0.2782
14308SOL     OW60915   5.266   1.207  10.961 -0.1547 -0.0788  0.0222
14308SOL    HW160916   5.235   1.120  10.985 -0.3721 -0.4485 -1.5160
14308SOL    HW260917   5.208   1.267  11.007 -1.4194 -0.7617 -0.6239
14309SOL     OW60918   4.564   9.679   8.278  0.2861  0.4873 -0.0990
14309SOL    HW160919   4.514   9.742   8.226 -1.0387  0.9483  1.6133
14309SOL    HW260920   4.640   9.658   8.225  0.4066  3.0075 -1.0308
14310SOL     OW60921   1.410   6.404   2.270  0.7954  0.2116  0.4580
14310SOL    HW160922   1.489   6.391   2.217  0.4224  0.4845 -0.1769
14310SOL    HW260923   1.352   6.333   2.243  1.0675 -0.3899  1.4108
14311SOL     OW60924   0.501  12.264  12.484 -0.4488  0.3144 -0.3484
14311SOL    HW160925   0.504  12.173  12.454 -1.0440 -0.0482  0.6357
14311SOL    HW260926   0.559  12.266  12.560 -0.6062  0.6979 -0.2359
14312SOL     OW60927   9.719   3.630   9.566  0.5959 -0.2597 -0.1738
14312SOL    HW160928   9.806   3.671   9.560  0.8073 -0.8682 -1.5055
14312SOL    HW260929   9.658   3.703   9.554  0.9717 -0.2522 -2.5781
14313SOL     OW60930   3.617  13.871   0.369 -0.1683  0.0266 -0.6393
14313SOL    HW160931   3.573  13.935   0.314 -0.0470 -0.3039 -1.1226
14313SOL    HW260932   3.667  13.924   0.432 -1.7036  0.4186  0.3182
14314SOL     OW60933   2.107   9.768   4.224 -0.6502 -0.3691  0.0147
14314SOL    HW160934   2.055   9.803   4.152 -0.7821 -1.2381 -0.3221
14314SOL    HW260935   2.043   9.728   4.283 -0.3376 -2.3129 -0.8824
14315SOL     OW60936  13.358   8.407   5.691 -0.4876 -0.0306  0.3048
14315SOL    HW160937  13.450   8.386   5.678 -1.0229 -0.9365 -3.0743
14315SOL    HW260938  13.320   8.328   5.729 -0.0922 -0.1735  0.4005
14316SOL     OW60939   1.764  10.463   1.783  0.5523  0.8379  0.4856
14316SOL    HW160940   1.671  10.484   1.776  0.1523 -0.8636  0.4042
14316SOL    HW260941   1.781  10.455   1.877  0.3063 -0.1362  0.4510
14317SOL     OW60942   4.688   3.745   5.958 -0.0488 -0.3913  0.2111
14317SOL    HW160943   4.709   3.767   5.867 -1.8059  0.1280 -0.1122
14317SOL    HW260944   4.657   3.654   5.953  1.7888 -1.0869  0.6522
14318SOL     OW60945   2.180  12.327  13.168  0.0641 -0.4485 -0.4558
14318SOL    HW160946   2.203  12.330  13.261 -2.1052  1.2714  0.1199
14318SOL    HW260947   2.211  12.242  13.138  0.6816 -1.1100  1.8611
14319SOL     OW60948   8.063   3.296   5.666  0.5595  0.7956  0.2153
14319SOL    HW160949   8.025   3.373   5.623 -1.3326  0.0700  0.4879
14319SOL    HW260950   8.139   3.330   5.712  0.1527  2.3878 -0.2011
14320SOL     OW60951   8.740   6.631   3.997 -0.4846 -0.1231 -0.1020
14320SOL    HW160952   8.765   6.597   3.911  0.7210 -1.3735  0.6886
14320SOL    HW260953   8.707   6.555   4.045 -0.3824  0.3792  0.7960
14321SOL     OW60954   0.234  11.996  12.341 -0.3864  0.3798  0.6660
14321SOL    HW160955   0.166  11.928  12.337  1.9463 -2.0744 -1.1656
14321SOL    HW260956   0.291  11.977  12.267  3.8575  0.4887  3.5380
14322SOL     OW60957  13.146   5.773  11.893 -0.1003 -0.0819  0.2549
14322SOL    HW160958  13.098   5.786  11.975 -0.2467  1.2480 -0.0130
14322SOL    HW260959  13.101   5.830  11.830 -1.1789 -2.4157 -1.2760
14323SOL     OW60960   5.873   6.783   2.761  0.0697  0.1133  0.4196
14323SOL    HW160961   5.879   6.873   2.729 -1.4593  0.0668 -0.0789
14323SOL    HW260962   5.839   6.733   2.687 -0.4162 -0.6092  1.1103
14324SOL     OW60963  11.092   6.630  10.839  0.5935  0.2079 -0.2000
14324SOL    HW160964  11.015   6.677  10.805 -0.5708 -1.5677 -0.1356
14324SOL    HW260965  11.105   6.666  10.927 -0.5317  0.1459  0.0067
14325SOL     OW60966  13.517  10.547   4.960  0.1802 -0.0583  0.0004
14325SOL    HW160967  13.576  10.516   4.891  0.5856 -2.5747  1.3845
14325SOL    HW260968  13.574  10.562   5.035 -0.6323 -0.2094  0.6511
14326SOL     OW60969   2.131   0.281  10.023 -0.2404 -0.3250  0.1701
14326SOL    HW160970   2.149   0.187  10.015  1.5004 -0.0012  0.0617
14326SOL    HW260971   2.111   0.309   9.934  0.1917 -0.4093  0.0455
14327SOL     OW60972  11.752   0.368   4.355 -0.7209  0.2742  0.0571
14327SOL    HW160973  11.719   0.425   4.287  1.7410  1.5752 -0.1543
14327SOL    HW260974  11.826   0.415   4.393  0.7012 -2.2563  0.6779
14328SOL     OW60975   8.626   0.619  12.818  0.1621 -0.2687 -0.4560
14328SOL    HW160976   8.719   0.599  12.818  0.1037 -0.5404 -0.4126
14328SOL    HW260977   8.621   0.712  12.841  0.2980 -0.7982  1.9933
14329SOL     OW60978   5.437   6.150   1.558 -0.4708 -0.1874 -0.0907
14329SOL    HW160979   5.523   6.181   1.584  0.1635  0.1912 -2.4066
14329SOL    HW260980   5.445   6.054   1.558  1.1972 -0.1984 -3.7000
14330SOL     OW60981  14.017   3.765   1.091  0.1342 -0.5648 -0.0817
14330SOL    HW160982  13.955   3.837   1.078  0.5769 -0.2916 -0.7144
14330SOL    HW260983  14.099   3.807   1.115 -0.1236 -0.9676  1.6237
14331SOL     OW60984   5.438   9.460   2.850  0.6233  0.0304  0.3112
14331SOL    HW160985   5.526   9.497   2.841  0.5317  0.0805 -0.5522
14331SOL    HW260986   5.452   9.372   2.883  1.0036  0.0158  0.1248
14332SOL     OW60987   5.454   0.676  11.189 -0.6985 -0.4240  0.1055
14332SOL    HW160988   5.373   0.682  11.240 -0.2324  3.8241  0.6701
14332SOL    HW260989   5.479   0.766  11.172  2.9670 -1.5791 -1.6977
14333SOL     OW60990  10.002  11.511  10.941  0.5090 -0.1962 -0.0540
14333SOL    HW160991   9.941  11.560  10.997  0.4373 -0.5917  0.2109
14333SOL    HW260992  10.003  11.561  10.859 -1.6543 -1.1996 -0.7660
14334SOL     OW60993   5.367  11.439   0.054  0.5541  0.4827  0.5084
14334SOL    HW160994   5.320  11.452   0.136  0.4198  1.0239  0.3442
14334SOL    HW260995   5.337  11.353   0.023 -0.3547  0.8416  0.3840
14335SOL     OW60996   0.702   2.378   7.991  0.0920 -0.0678 -0.0501
14335SOL    HW160997   0.738   2.412   8.073  0.7135 -1.2522  0.1990
14335SOL    HW260998   0.779   2.365   7.936 -0.1244 -0.9588 -0.1589
14336SOL     OW60999  13.154   4.423   5.820  0.0813 -0.0427 -0.2878
14336SOL    HW161000  13.103   4.486   5.769  0.6315  0.6090 -0.0422
14336SOL    HW261001  13.136   4.339   5.779 -1.1752  0.1783 -0.2304
14337SOL     OW61002   5.279  12.388   1.914  0.4093  0.2573  0.5762
14337SOL    HW161003   5.268  12.352   1.826  0.3634 -0.9796  1.0660
14337SOL    HW261004   5.339  12.462   1.903  0.6537 -0.0808 -0.4530
14338SOL     OW61005   5.538   2.801   6.683 -0.1752  0.2098 -1.1468
14338SOL    HW161006   5.492   2.845   6.755  0.3072  0.4717 -0.9976
14338SOL    HW261007   5.625   2.784   6.717 -0.4304 -1.1242 -1.1023
14339SOL     OW61008   7.718   7.236   6.883 -0.2191 -0.1303  0.0010
14339SOL    HW161009   7.670   7.245   6.965 -0.1490  1.3650 -0.1018
14339SOL    HW261010   7.734   7.325   6.855  2.5344 -0.5543 -0.0302
14340SOL     OW61011  11.402   5.538   4.967 -0.4736  0.4329  0.7019
14340SOL    HW161012  11.392   5.627   5.000  2.9307  0.7129  1.3595
14340SOL    HW261013  11.431   5.488   5.044 -1.9611 -1.1852  0.2590
14341SOL     OW61014   3.434   4.109  13.370  0.2597  0.4692 -0.2251
14341SOL    HW161015   3.504   4.054  13.404  0.4789  0.4065 -0.7850
14341SOL    HW261016   3.405   4.066  13.290 -0.2020  0.6698 -0.1725
14342SOL     OW61017  13.777   0.731   2.356  0.4403 -0.6211 -0.2870
14342SOL    HW161018  13.774   0.635   2.362  1.7429 -0.7049 -0.6535
14342SOL    HW261019  13.801   0.749   2.265 -1.9838  0.1435 -0.8212
14343SOL     OW61020   3.952   0.673   8.578 -0.0215 -0.5132 -0.3651
14343SOL    HW161021   4.041   0.708   8.584 -0.5536  0.6784  1.2230
14343SOL    HW261022   3.945   0.643   8.487  1.0195  2.1844 -1.4700
14344SOL     OW61023  13.793   3.268   3.188 -0.0226 -0.7766 -0.9388
14344SOL    HW161024  13.868   3.209   3.190  1.4018  0.9536 -1.0900
14344SOL    HW261025  13.743   3.244   3.267  0.6145 -2.0077 -0.8713
14345SOL     OW61026   2.326   7.392   8.650 -0.2932 -0.0701 -0.2559
14345SOL    HW161027   2.319   7.366   8.558 -1.3545 -1.9226  0.3157
14345SOL    HW261028   2.307   7.313   8.699 -3.5802  1.6800  1.6255
14346SOL     OW61029   2.275  12.752   0.720 -0.0835  0.0534 -0.2017
14346SOL    HW161030   2.282  12.730   0.627 -0.1890  0.3441 -0.2799
14346SOL    HW261031   2.312  12.677   0.766 -1.7413 -0.9368 -0.4067
14347SOL     OW61032   9.713  10.784   5.303 -0.2531 -0.2586  0.2011
14347SOL    HW161033   9.782  10.816   5.362  1.4250 -1.2730 -1.1006
14347SOL    HW261034   9.680  10.705   5.344 -0.1649 -0.1284  0.5243
14348SOL     OW61035  10.505   6.683  12.827  0.3366  0.1791 -0.0816
14348SOL    HW161036  10.594   6.709  12.801  0.9641 -1.3050  0.4335
14348SOL    HW261037  10.474   6.754  12.883  1.4035  0.5133  0.1071
14349SOL     OW61038   4.164  10.036   8.226 -0.3711 -0.4559 -0.4260
14349SOL    HW161039   4.141  10.124   8.198  0.2945 -0.3004 -0.4979
14349SOL    HW261040   4.084  10.001   8.265 -0.4228  0.4408  0.2769
14350SOL     OW61041  11.511   4.427  12.147 -0.2923  0.2377 -0.2750
14350SOL    HW161042  11.556   4.466  12.072  0.8395 -1.0675 -0.3084
14350SOL    HW261043  11.490   4.501  12.204 -0.5213  1.1628 -1.5335
14351SOL     OW61044  13.891  10.009   9.504  0.6081 -0.1446 -0.3828
14351SOL    HW161045  13.915   9.927   9.548  0.5181  0.4671  0.8416
14351SOL    HW261046  13.965  10.067   9.519 -0.7534  1.1509  1.8381
14352SOL     OW61047   9.964   7.693  12.389  0.0398  0.9124  0.3347
14352SOL    HW161048   9.935   7.731  12.472  0.1543  0.2234  0.6934
14352SOL    HW261049   9.896   7.718  12.327 -1.2051 -0.4372  1.1032
14353SOL     OW61050   9.536   9.919  12.081 -0.1179  0.2520  0.0236
14353SOL    HW161051   9.517   9.939  11.989 -1.0878 -0.7032 -0.0064
14353SOL    HW261052   9.610   9.975  12.103 -0.5358  1.2639 -1.0377
14354SOL     OW61053  11.899   1.062  12.920 -0.1794 -0.2242 -0.1872
14354SOL    HW161054  11.983   1.036  12.958  0.0286  0.3275 -0.2535
14354SOL    HW261055  11.898   1.021  12.834 -0.5041 -1.2045  0.2643
14355SOL     OW61056  12.644  13.911   9.959 -0.1416  0.1029  1.1283
14355SOL    HW161057  12.642  13.912  10.055 -1.4091  0.2002  1.1217
14355SOL    HW261058  12.710  13.845   9.938  1.3949  1.2857  2.0416
14356SOL     OW61059   1.410  13.225   3.749 -0.8505 -0.3521  0.0101
14356SOL    HW161060   1.354  13.186   3.682  0.3446 -0.0234 -1.2422
14356SOL    HW261061   1.399  13.170   3.826 -1.5291 -1.3249 -0.7722
14357SOL     OW61062  12.848   6.925   4.270 -0.4742  0.1064 -0.8012
14357SOL    HW161063  12.866   7.007   4.224  0.1836 -0.6395 -1.9248
14357SOL    HW261064  12.913   6.864   4.236  0.5486 -0.3299  1.6641
14358SOL     OW61065  14.154   8.484   5.012 -0.5325  0.3529  0.2009
14358SOL    HW161066  14.218   8.418   5.039  0.6717  0.8809 -1.2077
14358SOL    HW261067  14.069   8.446   5.034  0.2362 -0.3100  2.2950
14359SOL     OW61068   8.003   3.816   7.189 -0.3760  0.2763 -0.5632
14359SOL    HW161069   8.029   3.908   7.189 -0.2222  0.2435 -1.5962
14359SOL    HW261070   8.055   3.776   7.120 -0.2360 -0.6550  0.0597
14360SOL     OW61071  11.886   6.042  13.526  0.3831  0.4099 -0.2021
14360SOL    HW161072  11.919   6.046  13.616 -0.4185 -1.2015  0.2060
14360SOL    HW261073  11.887   5.949  13.504 -1.0676  0.5954 -1.2150
14361SOL     OW61074   3.814   5.444   4.838 -0.5141  0.2449  0.0576
14361SOL    HW161075   3.776   5.406   4.759 -0.7682  0.4607  0.0764
14361SOL    HW261076   3.908   5.445   4.821 -0.4367 -0.9330  0.2877
14362SOL     OW61077   9.495   8.412   4.519  0.0843 -0.5615 -0.2217
14362SOL    HW161078   9.470   8.503   4.534 -0.3185 -0.3949 -1.7314
14362SOL    HW261079   9.574   8.399   4.572 -0.8754  0.0964  1.4559
14363SOL     OW61080  11.236   2.395   2.443  0.1819 -0.6595 -0.5432
14363SOL    HW161081  11.166   2.363   2.386  0.7498 -0.0955 -1.5683
14363SOL    HW261082  11.252   2.323   2.504 -1.2490 -0.8191 -0.3198
14364SOL     OW61083  12.696  13.947  11.405  0.4532 -0.0544  0.2097
14364SOL    HW161084  12.669  13.873  11.458 -0.6753 -0.8178 -1.3525
14364SOL    HW261085  12.723  13.909  11.321  2.5617  1.0661  0.2900
14365SOL     OW61086   3.425   0.540   9.323  0.3852 -0.1540 -0.5670
14365SOL    HW161087   3.349   0.562   9.377 -0.3783 -0.3516 -1.5322
14365SOL    HW261088   3.494   0.520   9.386 -0.3052  0.2129  0.3297
14366SOL     OW61089   7.576   5.263   0.124 -0.2554 -0.1866  0.1267
14366SOL    HW161090   7.612   5.174   0.127 -0.9336 -0.4546  0.7602
14366SOL    HW261091   7.483   5.251   0.144 -0.4648  0.6112 -0.3252
14367SOL     OW61092  14.145  11.928  13.606  0.5822 -0.1796 -0.0222
14367SOL    HW161093  14.088  11.949  13.532 -2.6256 -2.0917  1.6586
14367SOL    HW261094  14.187  11.845  13.582 -1.2965 -1.3758  0.6080
14368SOL     OW61095   4.307   2.330   3.200  0.3369 -0.0234 -0.1217
14368SOL    HW161096   4.220   2.371   3.196  0.0105 -0.7194 -0.4590
14368SOL    HW261097   4.303   2.273   3.276  0.1084 -0.8742 -0.7471
14369SOL     OW61098   5.539   7.337   9.283  0.1968  0.1016 -0.4507
14369SOL    HW161099   5.476   7.406   9.304 -2.4435 -1.5176 -2.3905
14369SOL    HW261100   5.599   7.377   9.220  0.0056  1.1752  0.0315
14370SOL     OW61101   5.886   2.989  12.340 -0.1611 -0.0561 -0.1760
14370SOL    HW161102   5.921   2.910  12.381 -0.3778  0.3383  0.7840
14370SOL    HW261103   5.933   3.061  12.382 -2.2982  0.5124  1.3881
14371SOL     OW61104  13.554  12.597   0.558 -0.1243  0.2677 -0.5214
14371SOL    HW161105  13.475  12.545   0.547 -0.3352 -0.1464  2.3584
14371SOL    HW261106  13.625  12.533   0.562  0.2134  0.5477 -1.6071
14372SOL     OW61107   0.307   8.644   9.705 -0.1979 -0.1224  0.0304
14372SOL    HW161108   0.321   8.649   9.800  0.3817  0.2387 -0.0675
14372SOL    HW261109   0.335   8.555   9.681  1.5499  0.4160 -0.0811
14373SOL     OW61110   0.081   9.960   7.371 -0.3293  0.0998 -0.5836
14373SOL    HW161111   0.127   9.923   7.447 -1.4049 -1.3014 -0.5681
14373SOL    HW261112   0.148   9.965   7.303  0.7241  1.6613  0.5042
14374SOL     OW61113   6.760   2.526  10.858 -0.3177 -0.1428 -0.2138
14374SOL    HW161114   6.702   2.453  10.836 -0.6697  0.4670 -1.4030
14374SOL    HW261115   6.847   2.495  10.832 -0.3370 -0.4629  0.0942
14375SOL     OW61116  12.727  13.717   4.417  0.2741 -0.2326 -0.3165
14375SOL    HW161117  12.796  13.748   4.475 -0.4866  2.4313 -0.7213
14375SOL    HW261118  12.743  13.760   4.333 -1.1135 -0.6045 -0.8044
14376SOL     OW61119   0.273   7.573  12.369 -0.3388  0.4853 -0.8231
14376SOL    HW161120   0.185   7.591  12.337 -0.4383 -0.5695 -1.1786
14376SOL    HW261121   0.276   7.612  12.456 -0.7901  1.4686 -1.2360
14377SOL     OW61122  13.767   7.387   3.490 -0.0940 -0.0350  0.1660
14377SOL    HW161123  13.758   7.482   3.500  0.1432 -0.0694  0.7370
14377SOL    HW261124  13.693   7.361   3.436 -1.2076  0.2321  1.5022
14378SOL     OW61125   7.544  11.130   7.019 -0.2626 -0.1546  0.2107
14378SOL    HW161126   7.450  11.143   7.002  0.0142  1.0680 -0.5664
14378SOL    HW261127   7.560  11.177   7.102  0.3724  3.3265 -1.6706
14379SOL     OW61128   7.398   8.725   4.484  0.5465  0.0341 -0.1590
14379SOL    HW161129   7.414   8.653   4.422  1.4748 -0.1027  0.2167
14379SOL    HW261130   7.399   8.804   4.430  3.0069  0.0766 -0.1563
14380SOL     OW61131   5.098   5.108  10.986 -0.2282  0.1018 -0.0285
14380SOL    HW161132   5.101   5.038  11.051  0.5114 -0.8980 -1.0933
14380SOL    HW261133   5.054   5.069  10.911 -1.0927  1.2414 -0.1386
14381SOL     OW61134   1.832   1.917   8.939  0.0364 -0.3204  0.2914
14381SOL    HW161135   1.760   1.864   8.972  0.3840 -0.1541  1.3643
14381SOL    HW261136   1.792   2.001   8.915 -0.3549 -0.7284 -0.5074
14382SOL     OW61137   6.773   7.197  11.600 -0.2959 -0.2147 -0.2758
14382SOL    HW161138   6.695   7.253  11.598  0.4138  0.7875 -1.6361
14382SOL    HW261139   6.762   7.142  11.678 -2.5792 -0.4209 -0.6878
14383SOL     OW61140   4.799   3.495   1.685  0.1364 -0.1092  0.5318
14383SOL    HW161141   4.812   3.442   1.764  0.7805 -2.0601 -0.7987
14383SOL    HW261142   4.790   3.431   1.615 -1.0719  1.5620 -0.9080
14384SOL     OW61143   5.761   3.635   9.500 -0.2354  0.2018 -0.5095
14384SOL    HW161144   5.671   3.637   9.534 -0.8489  1.3511 -2.0784
14384SOL    HW261145   5.816   3.645   9.577 -1.3828 -1.8046  0.6443
14385SOL     OW61146   5.380  11.044   0.110 -0.0554 -0.2009 -0.3924
14385SOL    HW161147   5.355  11.076   0.197 -0.3714  0.7860 -0.8324
14385SOL    HW261148   5.329  10.964   0.099 -0.3830 -0.0760  0.1349
14386SOL     OW61149   8.661  12.197   6.956  0.3497 -0.2178 -0.6496
14386SOL    HW161150   8.754  12.218   6.967  0.4308 -0.9947  0.3105
14386SOL    HW261151   8.660  12.104   6.933 -0.2055 -0.3284 -0.1901
14387SOL     OW61152  11.124  12.482   9.196  0.0762 -0.8964  0.0319
14387SOL    HW161153  11.047  12.502   9.142 -0.0491 -1.5966 -0.0581
14387SOL    HW261154  11.129  12.554   9.259 -0.4353 -0.6548 -0.2026
14388SOL     OW61155   3.026   4.446   5.378 -0.7133 -0.1369 -0.3724
14388SOL    HW161156   3.012   4.356   5.407 -0.0565  0.1084  0.8063
14388SOL    HW261157   3.083   4.483   5.445 -1.6934  1.4214 -0.3479
14389SOL     OW61158  13.410   8.928   8.025  0.5439  0.3239  0.0522
14389SOL    HW161159  13.337   8.888   8.073  0.9997  0.8768  1.2443
14389SOL    HW261160  13.409   9.020   8.053  0.9282  0.6271 -0.8853
14390SOL     OW61161   2.280   9.864   1.236  0.5858  0.1316  0.1433
14390SOL    HW161162   2.260   9.824   1.152  0.4896  0.1193  0.1717
14390SOL    HW261163   2.358   9.817   1.267  0.8075  0.3507 -0.0821
14391SOL     OW61164  10.046   6.582   2.039 -0.1520  0.2817  0.6257
14391SOL    HW161165  10.001   6.523   1.979  0.5734  1.0698 -0.7635
14391SOL    HW261166  10.128   6.604   1.993  1.0973 -0.1679  2.5219
14392SOL     OW61167   1.983   9.874   1.842 -0.2383  0.0029  0.7408
14392SOL    HW161168   1.952   9.888   1.752 -0.8028 -0.8114  0.8028
14392SOL    HW261169   1.918   9.918   1.896  0.0512  0.4110  0.7618
14393SOL     OW61170  10.981   5.434   0.654 -0.1895  0.6097  0.6008
14393SOL    HW161171  10.896   5.391   0.652  0.7855 -1.4446 -1.1460
14393SOL    HW261172  11.031   5.387   0.720 -0.2916  1.6244  1.4217
14394SOL     OW61173   3.615   8.085   9.922 -0.6653  0.3644  0.1665
14394SOL    HW161174   3.542   8.140   9.948 -0.9782 -0.0867  0.2551
14394SOL    HW261175   3.587   8.046   9.839 -0.3755  0.4736  0.0169
14395SOL     OW61176   2.476  12.086  13.362 -0.0601  0.2653 -0.2988
14395SOL    HW161177   2.425  12.022  13.311 -1.5434  1.7502 -0.7701
14395SOL    HW261178   2.469  12.054  13.453  1.4117 -1.6125 -0.7753
14396SOL     OW61179   2.569  13.547   5.854  0.0957 -0.6687 -0.2412
14396SOL    HW161180   2.611  13.501   5.781 -0.1973 -0.5445 -0.4886
14396SOL    HW261181   2.562  13.481   5.923 -0.5401 -1.0695 -0.6758
14397SOL     OW61182  11.899  10.340  11.884 -0.4451  0.4912 -0.2216
14397SOL    HW161183  11.845  10.411  11.920 -2.1944 -0.8040 -0.1804
14397SOL    HW261184  11.836  10.277  11.849  1.0606 -0.9333 -0.4834
14398SOL     OW61185   8.646  13.055   3.914  0.1936 -0.5508  0.3073
14398SOL    HW161186   8.642  13.060   3.819 -0.7292 -1.1259  0.3076
14398SOL    HW261187   8.735  13.084   3.935  0.2819 -0.0428 -0.6944
14399SOL     OW61188   3.526  12.126  11.438 -0.0106 -0.1397 -0.2821
14399SOL    HW161189   3.529  12.087  11.526  1.0060  0.1890 -0.1559
14399SOL    HW261190   3.577  12.065  11.384  0.7021  0.4624 -0.3018
14400SOL     OW61191  12.974   0.493   3.801 -0.4912  0.0314  0.2933
14400SOL    HW161192  13.036   0.493   3.728 -0.7188  1.1101  0.0830
14400SOL    HW261193  13.015   0.437   3.867 -0.5335 -1.3864 -0.8492
14401SOL     OW61194   9.300   0.763  10.167  0.0255 -0.1549 -0.0941
14401SOL    HW161195   9.301   0.709  10.246  1.7297  1.3743  1.0118
14401SOL    HW261196   9.329   0.704  10.097 -2.9338 -1.9409  0.0302
14402SOL     OW61197   0.327  12.249   7.410  0.1677 -0.0892  0.1064
14402SOL    HW161198   0.417  12.280   7.420  0.1445 -0.3555  1.2642
14402SOL    HW261199   0.287  12.263   7.496 -0.7229 -0.5258 -0.2257
14403SOL     OW61200   3.808  13.300   2.594 -0.0301  0.1367  0.0843
14403SOL    HW161201   3.821  13.252   2.676  0.0355  0.3676  0.2105
14403SOL    HW261202   3.755  13.376   2.619 -0.7830 -0.2708 -0.2527
14404SOL     OW61203   3.010   8.419   4.955  0.0547 -0.2377 -0.0517
14404SOL    HW161204   2.971   8.392   4.872 -3.1494  3.6000 -0.0744
14404SOL    HW261205   2.968   8.363   5.021 -3.1982  1.4484 -0.4667
14405SOL     OW61206   6.425   1.059   5.823  0.1006  0.3040 -0.8100
14405SOL    HW161207   6.357   1.123   5.841  0.3343 -0.0655  1.6554
14405SOL    HW261208   6.506   1.110   5.818  0.0985  0.3749 -0.2070
14406SOL     OW61209   9.178  10.803  12.432  0.1645  0.1766  0.4282
14406SOL    HW161210   9.219  10.716  12.426 -0.1507  0.0872 -0.8150
14406SOL    HW261211   9.250  10.864  12.415  0.2639  0.1277  0.6798
14407SOL     OW61212   0.820   5.690   9.354  0.2827  0.0589 -0.5818
14407SOL    HW161213   0.788   5.729   9.272 -0.0550  1.4905  0.1937
14407SOL    HW261214   0.752   5.713   9.419  0.1686 -1.6968 -0.0461
14408SOL     OW61215  12.465   1.453   7.483 -0.4505  0.0677 -0.9447
14408SOL    HW161216  12.488   1.507   7.559  2.0888 -1.0078 -0.8388
14408SOL    HW261217  12.476   1.512   7.408  3.2559 -0.3414 -0.9188
14409SOL     OW61218  14.053   3.338   4.726 -0.6440  0.3917  0.7554
14409SOL    HW161219  14.009   3.259   4.696 -1.5923  0.3446  2.1892
14409SOL    HW261220  14.137   3.308   4.760 -0.3049  0.2325 -0.1906
14410SOL     OW61221  11.196   9.977   3.130  0.3719 -0.1766  0.3590
14410SOL    HW161222  11.127   9.926   3.173  0.0711 -0.9813 -1.0402
14410SOL    HW261223  11.278   9.944   3.169  0.1355 -1.2476 -0.0255
14411SOL     OW61224   4.594  13.639  11.752 -0.3349 -0.1293  0.2891
14411SOL    HW161225   4.514  13.692  11.757 -0.7790 -0.8396  1.2453
14411SOL    HW261226   4.652  13.678  11.818 -0.0810  0.0863 -0.0619
14412SOL     OW61227  10.300   8.929   3.562 -0.6258 -0.4023 -0.1396
14412SOL    HW161228  10.341   9.012   3.538 -0.3845 -0.1633  1.0818
14412SOL    HW261229  10.211   8.952   3.589 -0.7529 -0.6227 -0.3558
14413SOL     OW61230  10.713  13.096  13.564 -0.4795  0.1632 -0.3042
14413SOL    HW161231  10.682  13.062  13.648 -0.5035  0.2051 -0.2955
14413SOL    HW261232  10.760  13.023  13.524  0.4763  0.4803  0.2225
14414SOL     OW61233  13.222  10.323   0.346 -0.4732 -0.2773 -0.8401
14414SOL    HW161234  13.151  10.279   0.393 -0.7133  0.4660 -0.4976
14414SOL    HW261235  13.191  10.331   0.257 -0.5983 -0.4281 -0.8104
14415SOL     OW61236   6.329   5.446   1.314  0.1394  0.1679  0.2172
14415SOL    HW161237   6.344   5.437   1.220 -0.7990  1.3707 -0.0722
14415SOL    HW261238   6.243   5.407   1.329 -0.3523  1.2375  0.3072
14416SOL     OW61239   8.319  12.537   9.176 -0.2679 -0.0792  0.3068
14416SOL    HW161240   8.291  12.622   9.140 -2.6432 -1.0734 -0.4169
14416SOL    HW261241   8.360  12.492   9.103 -0.4189 -0.1308  0.2530
14417SOL     OW61242  13.606   8.676  13.301 -0.6623  0.5639 -0.2922
14417SOL    HW161243  13.575   8.650  13.215  0.0294 -0.5503 -0.2240
14417SOL    HW261244  13.539   8.645  13.362 -0.6414  0.4100 -0.3466
14418SOL     OW61245  13.462   8.607  10.126 -0.2690 -0.2928  0.5303
14418SOL    HW161246  13.393   8.541  10.139 -0.8383  0.2281  0.2049
14418SOL    HW261247  13.490   8.595  10.036  0.3992 -0.8096  0.8018
14419SOL     OW61248  10.089  13.170  11.394  0.1412  0.0336  0.0542
14419SOL    HW161249  10.044  13.219  11.326  1.8134  0.8576 -0.5321
14419SOL    HW261250  10.113  13.087  11.353 -0.1850 -0.0919  0.1203
14420SOL     OW61251  13.136   9.096   9.017  0.3344  0.4661  0.2040
14420SOL    HW161252  13.073   9.161   8.988 -1.0416 -0.3798  1.1802
14420SOL    HW261253  13.114   9.081   9.109  0.4000 -1.5897 -0.0703
14421SOL     OW61254   7.215  11.269   1.529  0.2191  0.4152 -0.2967
14421SOL    HW161255   7.164  11.215   1.590 -2.6831  0.4335 -2.4936
14421SOL    HW261256   7.218  11.218   1.448  1.8185  1.4367 -0.9195
14422SOL     OW61257   4.398   5.115   6.266 -0.0805  0.8978  0.3206
14422SOL    HW161258   4.323   5.058   6.248  0.3789  0.5267 -0.4993
14422SOL    HW261259   4.440   5.125   6.181  1.6270 -0.0671  1.0097
14423SOL     OW61260   5.349   6.351  13.160  0.1844 -0.2618  0.1578
14423SOL    HW161261   5.304   6.270  13.184 -0.8895  0.1580 -0.4269
14423SOL    HW261262   5.366   6.343  13.066 -0.1791  0.3165  0.0416
14424SOL     OW61263   9.730  10.662   4.801 -0.4600  0.1749  0.3753
14424SOL    HW161264   9.654  10.604   4.798 -0.7627  0.5842 -0.3565
14424SOL    HW261265   9.775  10.639   4.882 -1.3339 -0.1128  0.7932
14425SOL     OW61266  10.269  11.265   7.639  0.6341  0.5735 -0.2198
14425SOL    HW161267  10.226  11.285   7.556 -2.3349 -1.1841  0.7432
14425SOL    HW261268  10.278  11.349   7.683 -0.8156  1.1600 -0.9945
14426SOL     OW61269   6.821  12.048  13.716 -0.3472  0.2634 -0.1699
14426SOL    HW161270   6.791  12.126  13.762  0.0579  0.2067  0.1909
14426SOL    HW261271   6.750  12.028  13.655 -0.9632  0.2379  0.5447
14427SOL     OW61272  13.852   1.223  12.711 -0.1750  0.4948  0.0294
14427SOL    HW161273  13.853   1.131  12.684  0.6076  0.9129 -1.5050
14427SOL    HW261274  13.853   1.221  12.806 -0.3074 -1.0842  0.0202
14428SOL     OW61275   6.322   9.894   2.307 -0.4434  0.5160  0.0978
14428SOL    HW161276   6.281   9.905   2.221 -0.6928 -1.6955 -0.1294
14428SOL    HW261277   6.373   9.814   2.298  0.3789  0.8307  1.7240
14429SOL     OW61278   7.582   9.309  11.015 -0.2312  0.3056 -0.2940
14429SOL    HW161279   7.626   9.293  10.932 -1.2565  0.9351 -0.9761
14429SOL    HW261280   7.641   9.272  11.081  0.6303 -0.1298 -1.2863
14430SOL     OW61281   2.922   6.649  12.162 -0.0836  0.1728 -0.0496
14430SOL    HW161282   2.890   6.576  12.108  0.1887  0.3308 -0.4237
14430SOL    HW261283   3.017   6.642  12.159 -0.0572  0.5075 -0.0346
14431SOL     OW61284   9.848   7.784   6.495  0.3624  0.3255 -0.6223
14431SOL    HW161285   9.756   7.777   6.470  0.2032 -1.1309  0.2683
14431SOL    HW261286   9.895   7.748   6.420  0.0825 -0.7555 -0.2955
14432SOL     OW61287   9.766   4.560   8.896 -0.0483 -1.2661 -0.1381
14432SOL    HW161288   9.824   4.628   8.931 -2.2761  0.7105  0.0011
14432SOL    HW261289   9.723   4.524   8.973 -0.9090 -0.8271 -0.3986
14433SOL     OW61290   6.386   5.410  13.898 -0.2232  0.1488 -0.6438
14433SOL    HW161291   6.302   5.395  13.856 -0.5157 -1.1706  0.3640
14433SOL    HW261292   6.441   5.337  13.870 -1.3110 -2.5337  3.4126
14434SOL     OW61293   5.140  13.487   8.627 -0.2400 -0.3978 -0.0773
14434SOL    HW161294   5.144  13.411   8.685 -0.4416  0.6864  1.3982
14434SOL    HW261295   5.188  13.460   8.548  1.1552 -1.4680  1.0891
14435SOL     OW61296   2.451  13.097   4.991  0.6039 -0.0629 -0.0886
14435SOL    HW161297   2.522  13.035   5.005  0.6408  0.3152  1.6241
14435SOL    HW261298   2.485  13.181   5.022 -0.5491  0.1205  0.7899
14436SOL     OW61299   4.952   4.981  11.874 -0.1635  0.3607 -0.4603
14436SOL    HW161300   5.023   5.024  11.825  0.4412 -1.1828 -1.0166
14436SOL    HW261301   4.912   4.922  11.810 -0.6750 -0.2266  0.3915
14437SOL     OW61302   1.878  12.354   5.025 -0.5180 -0.0202 -0.0864
14437SOL    HW161303   1.885  12.286   4.959  1.1569 -1.5129  1.5150
14437SOL    HW261304   1.810  12.324   5.085  3.0821 -2.8282  3.1243
14438SOL     OW61305  12.864   3.398  12.851  0.1272 -0.8300  0.0560
14438SOL    HW161306  12.795   3.331  12.844 -1.1683  0.5001 -0.4478
14438SOL    HW261307  12.825   3.476  12.812  1.5173  0.2929  0.8372
14439SOL     OW61308   7.573   5.894   4.509 -0.0689 -0.3480  0.4685
14439SOL    HW161309   7.548   5.866   4.597 -1.5493  0.5360  0.3642
14439SOL    HW261310   7.503   5.954   4.482  1.4183  1.0528 -0.4823
14440SOL     OW61311  12.913   7.249   8.077  0.1514  0.0852  0.0886
14440SOL    HW161312  12.916   7.191   8.001 -1.2598 -1.3699  1.0717
14440SOL    HW261313  12.905   7.190   8.152  0.1840  1.5202  1.2709
14441SOL     OW61314   1.615   6.481  12.382 -0.1679 -0.2115  0.2918
14441SOL    HW161315   1.704   6.483  12.417  0.8609  0.5508 -2.1227
14441SOL    HW261316   1.563   6.533  12.443  0.8840 -1.1796  2.0737
14442SOL     OW61317   8.432   4.282   7.303 -0.5231  0.1769 -0.5783
14442SOL    HW161318   8.382   4.341   7.247  0.1252 -0.4464 -1.8551
14442SOL    HW261319   8.367   4.220   7.336 -0.8212  0.1843 -1.1320
14443SOL     OW61320   1.928  11.137  10.099  0.4247 -0.2429  0.2090
14443SOL    HW161321   1.932  11.152  10.193 -1.0162  0.4959  0.1746
14443SOL    HW261322   1.891  11.218  10.063  1.5103 -0.2837 -1.0649
14444SOL     OW61323  10.361   7.124  12.101  0.6596  0.5474 -0.4787
14444SOL    HW161324  10.280   7.101  12.055  0.2481  0.1046  0.4388
14444SOL    HW261325  10.348   7.213  12.131  0.2526  0.2666  0.1974
14445SOL     OW61326  12.521   6.421   7.727  0.0180  0.2374 -0.2801
14445SOL    HW161327  12.610   6.388   7.739  0.2179  0.5155 -0.9254
14445SOL    HW261328  12.499   6.397   7.637 -0.9058 -0.6211  0.1553
14446SOL     OW61329   8.057   9.135   7.794  0.4541 -0.1052  0.6236
14446SOL    HW161330   8.147   9.152   7.763 -0.2361 -0.6451 -1.9449
14446SOL    HW261331   8.028   9.061   7.741 -1.5766  0.1490  1.3162
14447SOL     OW61332  13.193   4.731   7.530 -0.2046 -0.1262  0.8485
14447SOL    HW161333  13.240   4.713   7.612 -1.3195 -0.2595  1.4841
14447SOL    HW261334  13.104   4.697   7.546  0.2756 -2.8881 -1.4631
14448SOL     OW61335   6.241   5.141   5.881  0.2683 -0.0653 -0.7448
14448SOL    HW161336   6.311   5.086   5.844 -0.5785 -0.7502 -1.3570
14448SOL    HW261337   6.183   5.079   5.925 -0.8235  0.3021 -1.6271
14449SOL     OW61338   4.542  12.376  10.313 -0.5770 -0.1732  0.2839
14449SOL    HW161339   4.632  12.353  10.334 -1.2373 -1.3844  1.9864
14449SOL    HW261340   4.548  12.418  10.227  1.6968  0.6168  0.7581
14450SOL     OW61341   6.645  12.236   0.320  0.2194 -0.4931  0.6375
14450SOL    HW161342   6.617  12.145   0.331 -1.3902 -0.1942 -0.6920
14450SOL    HW261343   6.643  12.272   0.408 -2.0212 -0.9797  0.8497
14451SOL     OW61344   2.007  11.326   9.389 -0.8655 -0.1162  0.6887
14451SOL    HW161345   2.073  11.359   9.327 -1.5295 -0.5458 -0.2642
14451SOL    HW261346   2.057  11.270   9.449 -0.2522  0.1081  0.3963
14452SOL     OW61347   3.077   7.358   6.071 -0.4473 -0.1109 -0.3318
14452SOL    HW161348   3.113   7.436   6.029 -0.8335 -0.4421 -1.2998
14452SOL    HW261349   3.060   7.297   5.999 -1.3510 -0.6083  0.2845
14453SOL     OW61350  12.127   1.076   5.194  0.0063  0.9578  0.4051
14453SOL    HW161351  12.182   0.998   5.201 -0.4437  0.5948 -0.0102
14453SOL    HW261352  12.171   1.131   5.129  0.3595  1.0834  0.7473
14454SOL     OW61353  13.356   5.246  13.964  0.8012 -0.6122  0.1252
14454SOL    HW161354  13.305   5.304  13.907  1.9658  0.2647 -0.0820
14454SOL    HW261355  13.362   5.293  14.047 -0.0259 -1.4239  0.6601
14455SOL     OW61356   6.391   7.837   3.902 -0.1970  0.5677 -0.2581
14455SOL    HW161357   6.390   7.772   3.972 -0.0938 -0.0367 -0.7977
14455SOL    HW261358   6.422   7.917   3.943  1.9098 -0.2927 -0.0208
14456SOL     OW61359   0.066   4.667   0.465 -0.1718 -0.0062 -0.3055
14456SOL    HW161360  -0.015   4.617   0.480 -1.2882  1.3250 -1.6384
14456SOL    HW261361   0.091   4.645   0.375  1.1635 -0.6356  0.1852
14457SOL     OW61362   8.001   9.428   8.682 -0.3755  0.3848 -0.5275
14457SOL    HW161363   7.917   9.435   8.729  0.6756  0.1371  1.5327
14457SOL    HW261364   7.996   9.344   8.637 -0.2960 -0.9386  1.7479
14458SOL     OW61365   3.149  12.530  13.759 -0.3168  0.4358  0.0235
14458SOL    HW161366   3.103  12.526  13.675 -0.6995  1.5913  0.1681
14458SOL    HW261367   3.241  12.546  13.736 -0.1560 -0.7177 -0.2158
14459SOL     OW61368   0.153   2.388  10.328  0.1137  0.2275  0.4993
14459SOL    HW161369   0.167   2.452  10.258  0.0302  0.5892  0.8108
14459SOL    HW261370   0.186   2.431  10.407  1.2102 -0.5987  0.5034
14460SOL     OW61371   5.519   4.624   3.964  0.5352  0.3542  0.1013
14460SOL    HW161372   5.498   4.536   3.931  0.8001  0.2707  0.1515
14460SOL    HW261373   5.438   4.655   4.005 -0.2511  1.0168 -1.8315
14461SOL     OW61374   7.522   7.415  12.077  0.1994 -0.0570 -0.0072
14461SOL    HW161375   7.481   7.499  12.095  2.6295  1.4072 -0.8004
14461SOL    HW261376   7.476   7.381  12.000 -0.2272  0.9858 -0.2246
14462SOL     OW61377   8.740   9.052  13.007 -0.5608 -0.3793 -0.0992
14462SOL    HW161378   8.682   9.121  12.974 -0.9690 -1.1486 -1.0434
14462SOL    HW261379   8.742   8.988  12.937  1.2580 -0.4917  0.0251
14463SOL     OW61380   1.943   4.225  10.112 -0.1939 -0.1173  0.6448
14463SOL    HW161381   1.989   4.209  10.030  0.0331  0.0166  0.7452
14463SOL    HW261382   1.876   4.291  10.090 -1.8111 -1.8766 -0.0049
14464SOL     OW61383   7.349   1.176   3.859  0.1216  0.0118 -0.8278
14464SOL    HW161384   7.309   1.149   3.777 -0.6811 -0.6865 -0.2252
14464SOL    HW261385   7.279   1.222   3.906  0.4049 -0.0906 -0.2992
14465SOL     OW61386  10.482   0.062   8.533 -0.4047 -0.3451  0.3094
14465SOL    HW161387  10.497   0.156   8.541 -0.5404 -0.4335  2.1367
14465SOL    HW261388  10.556   0.022   8.578  0.6310 -1.2160 -2.0244
14466SOL     OW61389  12.003   2.241   0.621  0.1525 -0.4244 -0.2221
14466SOL    HW161390  12.085   2.290   0.625  0.7252 -1.2128 -1.7050
14466SOL    HW261391  12.025   2.155   0.656 -0.2914 -0.3557  0.2483
14467SOL     OW61392   5.509  12.400   3.123  0.3219  0.1397  0.2411
14467SOL    HW161393   5.536  12.489   3.100  0.6298 -0.4104 -1.7149
14467SOL    HW261394   5.422  12.410   3.162 -0.2675  1.1954 -1.2510
14468SOL     OW61395  13.662  14.157  12.793  0.5592  0.4229 -0.2521
14468SOL    HW161396  13.676  14.129  12.884 -1.8512  0.2495  0.1072
14468SOL    HW261397  13.745  14.136  12.749  1.2476 -0.8811  1.5480
14469SOL     OW61398   0.458  12.985   7.958  0.1086 -0.5888  0.1168
14469SOL    HW161399   0.363  12.969   7.957  0.1172 -0.6205 -0.1520
14469SOL    HW261400   0.496  12.902   7.985  0.0846 -0.6906 -0.1633
14470SOL     OW61401   4.999   2.684  10.895  0.4040  0.1678 -0.0352
14470SOL    HW161402   4.934   2.754  10.903  2.5496  2.3857 -0.7694
14470SOL    HW261403   4.948   2.603  10.891 -2.1720  1.5913  1.5694
14471SOL     OW61404   3.868  10.274   8.345  0.2577 -0.4982  0.0450
14471SOL    HW161405   3.786  10.247   8.304  0.1533 -0.0806 -0.0254
14471SOL    HW261406   3.859  10.247   8.436  0.3011 -1.0142 -0.0969
14472SOL     OW61407   6.035  10.988  11.388  0.3172  0.1780  0.2891
14472SOL    HW161408   6.027  10.999  11.293  2.0522 -1.6055 -0.1266
14472SOL    HW261409   6.111  11.039  11.412  0.2451  0.1297  0.6221
14473SOL     OW61410  13.199  11.275   2.782 -0.0313 -0.2356  0.2050
14473SOL    HW161411  13.259  11.228   2.725 -0.2483  1.0272 -1.1313
14473SOL    HW261412  13.114  11.268   2.739 -0.5881 -0.8365  1.3618
14474SOL     OW61413   2.468   3.486   5.753  0.8032  0.1954 -0.2223
14474SOL    HW161414   2.442   3.428   5.825  0.7639  0.0330 -0.3663
14474SOL    HW261415   2.475   3.573   5.793 -0.6668  0.3824 -0.3192
14475SOL     OW61416   7.329  13.537   5.354  0.3494  0.0754 -0.6189
14475SOL    HW161417   7.292  13.499   5.434 -1.1227 -1.0716 -1.7906
14475SOL    HW261418   7.253  13.554   5.299  1.0972  3.1079 -0.9032
14476SOL     OW61419   2.197   0.278  13.690 -0.3980  0.3781  0.5067
14476SOL    HW161420   2.292   0.286  13.699 -0.1831 -0.2692 -0.9006
14476SOL    HW261421   2.173   0.204  13.746 -0.2655  1.3084  1.8212
14477SOL     OW61422   6.067   8.752   0.304  0.1981 -0.1225  0.7007
14477SOL    HW161423   6.117   8.812   0.358 -0.9385 -0.0039  1.6578
14477SOL    HW261424   6.010   8.808   0.252 -0.1889 -0.3219  0.9024
14478SOL     OW61425   9.565   4.450  11.617  0.1876 -0.0525 -0.5512
14478SOL    HW161426   9.532   4.533  11.650 -0.6001 -0.7002  0.3585
14478SOL    HW261427   9.650   4.440  11.660 -0.4764 -0.5065  0.7098
14479SOL     OW61428   3.317   5.828  12.455 -0.0707  0.0987 -0.0132
14479SOL    HW161429   3.399   5.787  12.426  0.5136  0.6323  0.8351
14479SOL    HW261430   3.249   5.764  12.433  0.6907 -0.8107  0.2249
14480SOL     OW61431   3.092   6.550   4.291  0.5018  0.4257 -0.0930
14480SOL    HW161432   3.184   6.575   4.301  0.6004  0.0318  0.0162
14480SOL    HW261433   3.089   6.459   4.321  0.2519  0.1455 -0.9332
14481SOL     OW61434   6.790  10.001  12.822 -0.1218  0.4312  0.2044
14481SOL    HW161435   6.746   9.925  12.859 -0.9519  1.1277  0.6830
14481SOL    HW261436   6.772   9.997  12.728  0.4521 -0.3487  0.1205
14482SOL     OW61437  11.045   5.380   8.385  0.2645 -0.2568  0.5092
14482SOL    HW161438  11.001   5.297   8.403 -1.3607  0.4738  0.0722
14482SOL    HW261439  11.070   5.375   8.293  1.7393 -0.9208  0.9073
14483SOL     OW61440   8.079  10.678   3.196  0.1723 -0.1769 -0.4647
14483SOL    HW161441   8.087  10.765   3.235  2.4575 -1.0487  1.2307
14483SOL    HW261442   7.986  10.656   3.204  0.1094  0.7162  2.3890
14484SOL     OW61443  10.584   3.630  13.170  0.6565  0.0872 -0.5572
14484SOL    HW161444  10.670   3.672  13.178  0.8201 -0.3902  0.3083
14484SOL    HW261445  10.591   3.551  13.224 -0.2701 -0.0508 -0.6294
14485SOL     OW61446   0.660   8.912   2.164 -0.0138  0.4833 -0.2209
14485SOL    HW161447   0.747   8.925   2.202 -0.7043  1.5982  1.0626
14485SOL    HW261448   0.627   9.000   2.147 -1.2473  0.1220  0.1712
14486SOL     OW61449   0.036   4.934   5.146 -0.1471  0.1054  0.0682
14486SOL    HW161450   0.092   5.009   5.126  0.0125 -0.1480 -0.4410
14486SOL    HW261451   0.061   4.909   5.235  0.6509 -0.0876 -0.2008
14487SOL     OW61452  12.324   0.828   8.366  0.4441 -0.4288  0.2431
14487SOL    HW161453  12.311   0.922   8.380 -2.0544 -0.7160  0.3174
14487SOL    HW261454  12.272   0.786   8.435  1.3429 -1.8685  0.0712
14488SOL     OW61455   9.993   3.719   7.191  0.0943 -0.8837  0.2868
14488SOL    HW161456  10.000   3.814   7.175  1.2336 -1.0559 -0.3228
14488SOL    HW261457  10.030   3.707   7.278 -1.7021 -0.5649  1.1433
14489SOL     OW61458   5.382   3.995  12.825 -0.2456 -0.5832  0.2288
14489SOL    HW161459   5.300   3.949  12.844 -0.3994 -1.0663 -1.4442
14489SOL    HW261460   5.368   4.084  12.859 -1.7494 -0.4589 -0.6288
14490SOL     OW61461   6.578   9.426   9.945 -0.1008 -0.0818  0.2908
14490SOL    HW161462   6.601   9.447   9.855 -0.1961  0.2349  0.3397
14490SOL    HW261463   6.566   9.331   9.945 -3.1439  0.2010 -0.7390
14491SOL     OW61464  14.122   9.628  13.279 -0.2011  0.3153 -0.0841
14491SOL    HW161465  14.163   9.667  13.357  0.7659 -1.6021  0.4352
14491SOL    HW261466  14.194   9.618  13.217 -0.2466 -1.2432  0.0706
14492SOL     OW61467   3.299   1.251   8.379 -0.5906  0.7118  0.4224
14492SOL    HW161468   3.215   1.261   8.335 -0.1238  1.7454 -0.2618
14492SOL    HW261469   3.307   1.157   8.394 -2.4459  0.6808  1.6673
14493SOL     OW61470  12.793   7.875  10.976  0.3751 -0.4279  0.1479
14493SOL    HW161471  12.737   7.867  10.899  0.4767  1.9094 -0.2361
14493SOL    HW261472  12.741   7.839  11.048 -0.7917 -0.1795 -0.5555
14494SOL     OW61473  12.837   5.086  10.078  0.1777  0.3110 -0.1837
14494SOL    HW161474  12.790   5.065  10.159  2.5702  0.3400  1.2974
14494SOL    HW261475  12.900   5.153  10.103  1.1251  0.1777 -2.0386
14495SOL     OW61476   6.780  14.025   7.844 -0.2289 -0.6045  0.9761
14495SOL    HW161477   6.860  13.992   7.803 -0.0810 -1.4122  1.8672
14495SOL    HW261478   6.803  14.033   7.937 -0.6284  0.9313  0.9626
14496SOL     OW61479   6.725  13.813   2.151 -0.0012 -0.3383 -0.5635
14496SOL    HW161480   6.806  13.808   2.202  1.0750  0.6718 -2.0961
14496SOL    HW261481   6.661  13.851   2.211  0.8730 -0.3669  0.4079
14497SOL     OW61482   4.195   7.184   6.146  0.0335 -0.1339 -0.4307
14497SOL    HW161483   4.262   7.117   6.155 -0.9922 -0.9467  1.9320
14497SOL    HW261484   4.113   7.136   6.136 -0.6115  0.7491  0.3309
14498SOL     OW61485   6.564   2.842   3.736  0.1556  0.3038  0.5610
14498SOL    HW161486   6.608   2.759   3.750  1.0566  1.0910  2.8498
14498SOL    HW261487   6.474   2.827   3.763  0.2487  0.0064  0.7109
14499SOL     OW61488   2.251  13.617  13.046 -0.6557  0.3272 -0.6116
14499SOL    HW161489   2.272  13.707  13.023 -1.9196  0.9714  0.6422
14499SOL    HW261490   2.258  13.569  12.963  1.9761  1.1384 -0.9495
14500SOL     OW61491   7.562  11.031   6.370  0.1728 -0.2569 -0.0794
14500SOL    HW161492   7.588  11.049   6.461  0.4266 -0.9089 -0.0181
14500SOL    HW261493   7.635  11.064   6.318  0.9827 -1.7331  0.0732
14501SOL     OW61494  11.014   8.260   0.263  0.1190  0.1683  0.1438
14501SOL    HW161495  11.062   8.293   0.339  0.3753  1.1121 -0.3970
14501SOL    HW261496  10.980   8.175   0.290  0.2744  0.4511  1.2790
14502SOL     OW61497  10.882   7.709   7.566 -0.2880 -0.1887 -0.4829
14502SOL    HW161498  10.830   7.748   7.636  2.3011 -0.7932  1.9830
14502SOL    HW261499  10.837   7.627   7.545  1.0716 -2.3802  3.9269
14503SOL     OW61500  11.655  10.607  13.045 -0.4935 -0.1152 -0.2321
14503SOL    HW161501  11.739  10.563  13.040 -0.1463  0.4211  0.7667
14503SOL    HW261502  11.599  10.559  12.983  0.1822 -1.2410  0.0062
14504SOL     OW61503   0.539   8.784   6.263 -0.1022  0.7656  0.3755
14504SOL    HW161504   0.618   8.752   6.306  0.1025 -1.0303 -1.2178
14504SOL    HW261505   0.479   8.710   6.265 -0.8458  1.3224 -0.5743
14505SOL     OW61506   2.520  10.146  12.775 -0.3254  0.1223  0.2611
14505SOL    HW161507   2.561  10.061  12.757 -2.2114 -0.8782  0.3984
14505SOL    HW261508   2.457  10.128  12.844 -0.8626  1.6276  0.2051
14506SOL     OW61509   4.021   0.085   5.174  0.3751 -0.3096  0.3292
14506SOL    HW161510   4.067   0.016   5.126  2.3324  0.2971  1.2349
14506SOL    HW261511   4.012   0.051   5.263  0.5991  0.2483  0.5725
14507SOL     OW61512   6.350   9.837   6.786 -0.1931 -0.2550 -0.0125
14507SOL    HW161513   6.292   9.867   6.857  1.7454  1.3514  0.9785
14507SOL    HW261514   6.319   9.884   6.709 -0.8770 -0.2560  0.2502
14508SOL     OW61515   3.540  13.855   3.464  0.5295 -0.0232  0.5090
14508SOL    HW161516   3.480  13.832   3.535  3.2424 -0.3703  2.8729
14508SOL    HW261517   3.614  13.796   3.475  1.9971  1.3541 -1.3029
14509SOL     OW61518  11.762   9.567   7.037  0.1232  0.3767 -0.6062
14509SOL    HW161519  11.774   9.472   7.026  1.2447  0.2615  1.1086
14509SOL    HW261520  11.784   9.582   7.129 -2.7322  1.9192 -0.0684
14510SOL     OW61521   8.255   9.964  13.363  0.4104 -0.1726 -0.4093
14510SOL    HW161522   8.293   9.877  13.356  0.4833 -0.0926 -1.1066
14510SOL    HW261523   8.325  10.018  13.399  0.7465 -0.1658 -1.0618
14511SOL     OW61524  11.489  13.422   0.280  0.5003  0.2828 -0.0646
14511SOL    HW161525  11.465  13.357   0.346  0.6628  0.3154  0.0240
14511SOL    HW261526  11.579  13.401   0.256  0.8204  0.9654  0.5339
14512SOL     OW61527   9.644   6.258  11.473 -0.0431  0.0466  0.3786
14512SOL    HW161528   9.590   6.294  11.543  0.5521  3.0376 -0.5466
14512SOL    HW261529   9.734   6.269  11.504  0.2398  1.5855 -0.8464
14513SOL     OW61530   9.326   6.772   0.113  0.4287  0.2064 -0.0436
14513SOL    HW161531   9.297   6.812   0.030 -0.1394 -1.1933 -0.5452
14513SOL    HW261532   9.400   6.717   0.087 -0.4672 -1.1273  0.1722
14514SOL     OW61533  10.704   9.832   2.024  0.0114 -0.0125 -0.7240
14514SOL    HW161534  10.654   9.769   1.971 -2.6730  0.6817  0.7847
14514SOL    HW261535  10.648   9.909   2.028  0.7803  0.4936  1.8545
14515SOL     OW61536   0.986  12.947   6.601  0.1913  0.0654 -0.1880
14515SOL    HW161537   0.904  12.950   6.649  0.9811 -1.1281  1.3516
14515SOL    HW261538   0.991  12.857   6.567 -0.6991  1.0646 -3.2780
14516SOL     OW61539   9.556   6.026   8.807  0.5946  0.0311 -0.0316
14516SOL    HW161540   9.551   5.931   8.801  0.9538  0.0917 -1.6473
14516SOL    HW261541   9.639   6.049   8.764 -0.3116  1.1817 -1.2317
14517SOL     OW61542  12.863   0.407   0.126 -0.4284 -0.1518 -0.0446
14517SOL    HW161543  12.880   0.316   0.099 -1.7527 -0.1396 -0.9868
14517SOL    HW261544  12.775   0.426   0.093 -0.2840  1.3878  0.3945
14518SOL     OW61545  13.115   5.965   2.041  0.3483  0.3449 -0.5040
14518SOL    HW161546  13.136   5.873   2.060 -2.8758 -0.5174 -0.4071
14518SOL    HW261547  13.173   6.015   2.097 -0.2669 -1.7893  2.2801
14519SOL     OW61548   5.496   9.482   1.422 -0.0637  0.2330  0.7610
14519SOL    HW161549   5.559   9.511   1.488  3.3189 -1.3399 -1.4989
14519SOL    HW261550   5.513   9.537   1.346 -5.0706  3.2273  1.3493
14520SOL     OW61551  14.092   6.650   2.631  0.4146  0.0137 -0.2919
14520SOL    HW161552  14.161   6.710   2.603 -0.3155  0.4788 -1.1299
14520SOL    HW261553  14.075   6.674   2.722  0.1426  1.0643 -0.6122
14521SOL     OW61554  13.775   8.216   6.156  0.1538  0.0727  0.3873
14521SOL    HW161555  13.825   8.210   6.075 -0.3441 -0.2001  0.0910
14521SOL    HW261556  13.686   8.237   6.127 -0.1309 -0.4985  0.8275
14522SOL     OW61557  13.436   9.684  11.718  0.1968 -0.0710  0.6166
14522SOL    HW161558  13.497   9.755  11.698  2.4291 -1.6664  1.4556
14522SOL    HW261559  13.353   9.729  11.737  1.0688  2.1751 -0.5278
14523SOL     OW61560   9.814   8.257  11.047 -0.4115 -0.3966  0.0777
14523SOL    HW161561   9.769   8.173  11.045 -0.9650 -0.0900 -1.1272
14523SOL    HW261562   9.878   8.248  11.118 -2.3215 -0.8595  1.8577
14524SOL     OW61563  10.387   4.069   6.991  0.1375 -0.5994  0.8766
14524SOL    HW161564  10.292   4.075   6.999  0.2483  2.4854  1.0522
14524SOL    HW261565  10.402   4.066   6.896 -0.1125 -1.7537  0.8561
14525SOL     OW61566   8.090   3.973  13.326 -0.1812  0.9641 -0.2134
14525SOL    HW161567   8.084   4.047  13.387  0.0545  1.2649 -0.5466
14525SOL    HW261568   8.129   4.011  13.247  0.6757  0.3182 -0.1170
14526SOL     OW61569   9.044   9.790   9.393 -0.4256 -0.3215  0.3160
14526SOL    HW161570   9.115   9.766   9.333 -1.6485 -1.3721 -0.7923
14526SOL    HW261571   8.993   9.855   9.344 -1.4429 -1.1922  0.1888
14527SOL     OW61572  10.382   4.270   8.530 -0.2357 -0.2485  0.4709
14527SOL    HW161573  10.449   4.247   8.466 -0.2693  0.4728  0.1676
14527SOL    HW261574  10.310   4.211   8.511  0.1299 -0.7053  0.4877
14528SOL     OW61575   0.702   8.350   1.647 -0.0980  0.1344 -0.3686
14528SOL    HW161576   0.667   8.338   1.735  0.1752  1.6589 -0.0181
14528SOL    HW261577   0.748   8.269   1.627 -0.3885 -0.3255  0.7788
14529SOL     OW61578   3.981   1.895   4.308 -0.0647 -0.0873 -0.1430
14529SOL    HW161579   3.992   1.977   4.259  1.0590 -0.2404 -0.1759
14529SOL    HW261580   3.956   1.923   4.396  1.9421  0.3969  0.3136
14530SOL     OW61581   3.755   8.803   5.040 -0.7688 -0.7399 -0.7070
14530SOL    HW161582   3.742   8.727   4.984  1.0253 -0.8790 -0.9895
14530SOL    HW261583   3.790   8.870   4.982  1.5781 -1.0393  0.2531
14531SOL     OW61584   7.282   5.430   9.507 -0.0567  0.8613 -0.0892
14531SOL    HW161585   7.331   5.407   9.586  0.2733  0.3189 -0.4364
14531SOL    HW261586   7.275   5.525   9.509 -0.2608  0.8307  0.7098
14532SOL     OW61587   2.832  13.102   9.410 -0.1184  0.3573  0.1915
14532SOL    HW161588   2.744  13.140   9.421 -0.1168  0.2177  0.7039
14532SOL    HW261589   2.866  13.144   9.332 -1.1359 -0.5285 -0.7635
14533SOL     OW61590   6.920  14.049   7.063 -0.1281 -0.2998  0.2146
14533SOL    HW161591   6.892  13.997   6.989  0.2521  0.4843 -0.4935
14533SOL    HW261592   6.838  14.085   7.099 -0.3940 -1.4119  0.7465
14534SOL     OW61593   0.775   9.733  14.046  0.5445  0.3738 -0.0298
14534SOL    HW161594   0.849   9.773  14.001  0.4158  1.7879  0.9423
14534SOL    HW261595   0.733   9.806  14.092 -1.1764 -0.4683 -0.1823
14535SOL     OW61596   1.227   1.157   7.405  0.2514  0.3400 -0.8050
14535SOL    HW161597   1.216   1.222   7.475 -1.0530  0.0672 -0.7356
14535SOL    HW261598   1.263   1.080   7.450 -1.3571 -0.1236 -0.2421
14536SOL     OW61599   0.756   7.341   5.510  0.3216  0.0446  0.3256
14536SOL    HW161600   0.761   7.409   5.443  1.7243 -1.1821 -0.8947
14536SOL    HW261601   0.753   7.259   5.460  0.3254 -0.8588  1.7584
14537SOL     OW61602  10.690  11.605   1.349 -0.5037  0.6080 -0.1000
14537SOL    HW161603  10.598  11.588   1.328 -0.4776  1.7470 -1.3304
14537SOL    HW261604  10.688  11.657   1.429 -1.1072  2.3386 -1.1664
14538SOL     OW61605   4.834   5.868   3.126 -0.2417 -0.5639  0.0649
14538SOL    HW161606   4.788   5.842   3.206 -2.0091 -1.3270 -1.1349
14538SOL    HW261607   4.921   5.828   3.135 -0.6067 -1.1270  1.3443
14539SOL     OW61608   8.015   0.760   5.146 -0.5524 -0.1194 -0.6842
14539SOL    HW161609   8.039   0.668   5.157 -0.9419 -0.2123 -0.6208
14539SOL    HW261610   7.939   0.772   5.202 -0.0505  0.4323 -0.1053
14540SOL     OW61611   7.319  11.047   4.393  0.0323  1.0376 -0.6765
14540SOL    HW161612   7.364  10.965   4.417 -0.1747  0.5880 -1.7414
14540SOL    HW261613   7.383  11.094   4.340 -0.1632  1.1491 -0.8150
14541SOL     OW61614   3.392   8.528   8.273 -0.2122  0.3337 -0.0275
14541SOL    HW161615   3.413   8.622   8.277 -1.9147  0.7142  2.2109
14541SOL    HW261616   3.320   8.522   8.211 -1.5769  0.9041  1.4350
14542SOL     OW61617  12.220  11.125   7.673 -0.0572  0.1319  0.0284
14542SOL    HW161618  12.311  11.117   7.702  0.2044 -0.2163 -0.8552
14542SOL    HW261619  12.180  11.042   7.697 -0.0980  0.2163  0.2544
14543SOL     OW61620   9.541   5.102   1.823  0.5669  0.4689  0.4298
14543SOL    HW161621   9.477   5.129   1.889  0.0910 -0.3776  0.3322
14543SOL    HW261622   9.592   5.034   1.866  0.2925 -0.0477 -0.0430
14544SOL     OW61623  11.527   9.128   7.797  0.3324  0.2958  0.3233
14544SOL    HW161624  11.469   9.064   7.757 -1.5437 -0.3768  3.7363
14544SOL    HW261625  11.598   9.075   7.834  0.7999  0.6425 -0.0685
14545SOL     OW61626   6.166  14.119   6.982 -0.1662  0.7891 -0.3592
14545SOL    HW161627   6.193  14.027   6.973 -1.0686  0.4261  0.5247
14545SOL    HW261628   6.140  14.128   7.074  0.0417  1.9704 -0.4003
14546SOL     OW61629   2.678   3.929   8.170 -0.1071 -1.0428 -0.3240
14546SOL    HW161630   2.651   3.919   8.262  0.0905  0.8842 -0.0276
14546SOL    HW261631   2.769   3.901   8.169  0.4677  0.6968  0.4864
14547SOL     OW61632   3.362   1.865   1.528  0.4045 -0.1220  0.5123
14547SOL    HW161633   3.388   1.957   1.529  0.3599 -0.0637 -1.2098
14547SOL    HW261634   3.444   1.817   1.516  0.1399 -0.0985 -1.8363
14548SOL     OW61635  10.443   4.377   7.680 -0.4721 -0.2773  0.5650
14548SOL    HW161636  10.432   4.471   7.698  2.7494  0.4892 -0.8463
14548SOL    HW261637  10.372   4.356   7.620 -1.7252  1.0282  1.5092
14549SOL     OW61638  10.421  10.026   3.181  0.3197  0.0408  0.4410
14549SOL    HW161639  10.427  10.092   3.249  1.6010  1.5079 -1.0002
14549SOL    HW261640  10.462   9.948   3.218  0.6094  0.6769  1.4775
14550SOL     OW61641   1.289   4.179  13.950  0.1863 -0.6831  0.9554
14550SOL    HW161642   1.234   4.255  13.930 -0.0558 -1.3186 -0.9232
14550SOL    HW261643   1.377   4.216  13.962 -0.4354  0.2622  3.3808
14551SOL     OW61644   3.772   4.521   8.705 -0.0311  0.2499 -0.2479
14551SOL    HW161645   3.741   4.431   8.705 -1.1917  0.6157  1.3299
14551SOL    HW261646   3.867   4.514   8.697  0.0737 -1.2060  1.6568
14552SOL     OW61647  14.108  14.051   8.057  0.5091 -0.1327 -0.3667
14552SOL    HW161648  14.143  14.115   8.119  0.3321 -1.7019  1.4368
14552SOL    HW261649  14.094  14.101   7.977  1.6884  1.7599  0.5300
14553SOL     OW61650   0.997  10.524   1.539  0.1545  0.1088 -0.1365
14553SOL    HW161651   0.903  10.526   1.558 -0.0633  1.3853 -1.1795
14553SOL    HW261652   1.038  10.523   1.625 -0.8182 -0.3528  0.3407
14554SOL     OW61653   8.981   2.318   0.424 -0.1221  0.4477 -0.5459
14554SOL    HW161654   9.072   2.332   0.449 -0.1687  1.7524 -1.0230
14554SOL    HW261655   8.937   2.399   0.451 -0.6116  0.9766 -2.7752
14555SOL     OW61656  13.247   9.824   7.801  0.0436 -0.0472 -0.7857
14555SOL    HW161657  13.274   9.873   7.723  0.2768 -0.5337 -1.0137
14555SOL    HW261658  13.231   9.735   7.769 -2.3642  0.3214 -0.7731
14556SOL     OW61659   2.910   7.947   4.900 -0.1533  0.0782  0.2289
14556SOL    HW161660   2.859   8.004   4.843 -1.9706  0.3118  1.9671
14556SOL    HW261661   2.908   7.991   4.985 -0.5045 -1.9098  1.3144
14557SOL     OW61662   3.713   1.067   5.199  0.5412  0.0689  0.9330
14557SOL    HW161663   3.634   1.015   5.183  0.9848 -0.0384 -1.1854
14557SOL    HW261664   3.745   1.090   5.112  4.4992 -2.3607  1.4946
14558SOL     OW61665   2.613  10.124   1.203  0.1264  0.2903  0.1948
14558SOL    HW161666   2.518  10.123   1.206  0.1421 -0.1663  0.5274
14558SOL    HW261667   2.639  10.170   1.283  0.1842  0.6711 -0.0362
14559SOL     OW61668   1.725   2.926  11.607 -0.3075 -0.7727  0.1476
14559SOL    HW161669   1.767   3.012  11.619  0.5376 -1.1653  0.0524
14559SOL    HW261670   1.793   2.872  11.568 -0.4970 -1.8096  1.2296
14560SOL     OW61671   6.451   3.231   5.374  0.4418 -0.8422  0.4167
14560SOL    HW161672   6.539   3.199   5.352  0.1428 -1.6098  0.3076
14560SOL    HW261673   6.393   3.184   5.314 -0.0681 -0.5249  0.6543
14561SOL     OW61674  13.817   6.409  10.203  0.4830  0.4912  0.8028
14561SOL    HW161675  13.834   6.485  10.259  2.8380  0.8147 -0.2142
14561SOL    HW261676  13.722   6.401  10.200  0.1049  3.9355  0.2673
14562SOL     OW61677   6.974  12.910   4.865  0.0689 -0.1022 -0.3217
14562SOL    HW161678   7.016  12.994   4.881  3.2123 -1.6967  0.4727
14562SOL    HW261679   6.966  12.905   4.770  2.4538 -0.0085 -0.5749
14563SOL     OW61680   1.432   3.005   7.761  0.1747  0.2790 -0.6726
14563SOL    HW161681   1.489   2.984   7.835 -0.3176  2.6705  0.4843
14563SOL    HW261682   1.355   3.046   7.801 -1.0619 -0.2545 -2.3956
14564SOL     OW61683   7.076   2.717   1.328 -0.1246  0.8663 -0.4242
14564SOL    HW161684   7.163   2.719   1.288 -0.3402  0.0153 -0.9537
14564SOL    HW261685   7.019   2.756   1.263 -0.0371  2.0983  0.2189
14565SOL     OW61686   1.707  13.664   6.449  0.1893  0.2947  0.0680
14565SOL    HW161687   1.654  13.585   6.441  0.9548 -0.0887 -1.6451
14565SOL    HW261688   1.790  13.642   6.407  1.1146  1.4234  1.2121
14566SOL     OW61689   4.492  10.453  12.967 -0.0307 -0.0313  0.2176
14566SOL    HW161690   4.496  10.430  12.874  1.2811 -1.6396  0.6346
14566SOL    HW261691   4.551  10.528  12.976  0.6018 -0.4830 -0.0935
14567SOL     OW61692  11.286   3.353   5.990 -0.0131  0.2203 -0.0957
14567SOL    HW161693  11.369   3.379   6.028 -0.7345  0.4702  1.3728
14567SOL    HW261694  11.227   3.426   6.008 -1.0797 -0.8075  0.7154
14568SOL     OW61695  10.404  13.612   5.096  0.4115  0.2833 -0.0232
14568SOL    HW161696  10.321  13.571   5.073 -0.7866  1.6827  1.5406
14568SOL    HW261697  10.449  13.546   5.149 -0.9536  0.4644  1.4465
14569SOL     OW61698   3.532  11.669  10.299  0.1513  0.0812 -0.4317
14569SOL    HW161699   3.537  11.762  10.277 -3.2324 -0.2188 -3.3808
14569SOL    HW261700   3.456  11.662  10.356  1.0003 -0.7922  0.6213
14570SOL     OW61701   9.472   5.773   2.118 -0.8053  0.0708 -0.0858
14570SOL    HW161702   9.551   5.754   2.169 -1.1329  2.2944  1.3950
14570SOL    HW261703   9.469   5.704   2.052  3.0556  0.5470 -1.0301
14571SOL     OW61704   6.125   2.023  11.095 -0.2993  0.0544  0.1184
14571SOL    HW161705   6.049   1.984  11.053  1.7068 -2.3516 -1.5674
14571SOL    HW261706   6.137   1.972  11.175  0.9746 -1.3947 -0.9325
14572SOL     OW61707   0.043  12.286  10.311 -0.2064  0.4538 -0.2486
14572SOL    HW161708   0.026  12.310  10.220  0.4821  0.3426 -0.4151
14572SOL    HW261709   0.120  12.339  10.335 -0.4490  0.5646  0.3031
14573SOL     OW61710   4.113  12.432   2.385 -0.4560 -0.8766 -0.1676
14573SOL    HW161711   4.145  12.502   2.329  1.5082 -1.5999 -0.0162
14573SOL    HW261712   4.056  12.380   2.328  0.0920 -0.5970 -0.9784
14574SOL     OW61713   4.214   8.951   2.091 -0.7184 -0.0002 -0.3963
14574SOL    HW161714   4.194   8.858   2.101 -0.4353  0.0504  0.6880
14574SOL    HW261715   4.310   8.955   2.089 -0.7113  0.3484  0.4409
14575SOL     OW61716   0.032  10.552  11.045 -0.4824  0.5816 -0.5269
14575SOL    HW161717  -0.044  10.610  11.046 -0.9864 -0.0761  0.7600
14575SOL    HW261718   0.105  10.610  11.067 -1.0866  0.6330  1.5259
14576SOL     OW61719  11.432  12.488   9.625 -0.1318  0.4664  0.0731
14576SOL    HW161720  11.515  12.534   9.631  0.4600 -0.6245  0.6689
14576SOL    HW261721  11.380  12.521   9.698  0.6242 -0.4193  1.0428
14577SOL     OW61722  12.033   7.658   7.208  0.6120 -0.2582  0.0432
14577SOL    HW161723  11.954   7.662   7.262  0.8418 -0.9173  0.4422
14577SOL    HW261724  12.053   7.565   7.202  1.2192 -0.1125 -0.2599
14578SOL     OW61725   1.026   6.506   7.467  0.0435  0.1905  0.0252
14578SOL    HW161726   1.023   6.552   7.383 -1.4142  0.9773  0.4737
14578SOL    HW261727   1.098   6.549   7.514 -0.8442  1.6077  0.1683
14579SOL     OW61728  10.632  13.364   5.982  0.0622  0.0825 -1.0273
14579SOL    HW161729  10.583  13.335   5.904 -1.9650  0.0434  0.2018
14579SOL    HW261730  10.570  13.416   6.032  1.1537 -0.3240  0.8524
14580SOL     OW61731   3.883   9.435  12.066 -0.2492  0.2627  0.2777
14580SOL    HW161732   3.955   9.373  12.057 -0.5269 -0.1219  0.6442
14580SOL    HW261733   3.912   9.514  12.019 -0.0586 -0.2819 -0.5336
14581SOL     OW61734   5.057  10.650  13.394  0.9875 -0.2506  0.7972
14581SOL    HW161735   5.004  10.642  13.473 -0.3916 -0.2114 -0.0827
14581SOL    HW261736   5.009  10.711  13.339  1.9947 -0.1643 -0.0228
14582SOL     OW61737   8.556   3.620   2.638  0.6926  0.2402  0.4679
14582SOL    HW161738   8.579   3.713   2.642  3.0937 -0.1838 -1.3813
14582SOL    HW261739   8.478   3.618   2.583  1.8947  1.0594 -1.3839
14583SOL     OW61740  12.288   6.092  12.927  0.5672  0.0403  0.3433
14583SOL    HW161741  12.335   6.056  12.852  0.3700  0.3939  0.0502
14583SOL    HW261742  12.196   6.093  12.900  0.4506 -0.1675  0.7245
14584SOL     OW61743  10.067   0.731   3.956 -0.1701  0.0295  0.2882
14584SOL    HW161744  10.022   0.748   4.039 -0.1264  1.4974  0.0303
14584SOL    HW261745  10.130   0.803   3.948 -0.0422 -0.2024 -0.9335
14585SOL     OW61746  10.835  12.491   7.021  0.0551  0.0126 -0.4973
14585SOL    HW161747  10.902  12.540   6.974 -0.4319  2.1628  0.9320
14585SOL    HW261748  10.769  12.556   7.044 -0.5682 -1.2691  1.6205
14586SOL     OW61749  13.988   1.321  13.528  0.0916 -0.3008  0.2333
14586SOL    HW161750  14.043   1.270  13.469 -0.5488 -1.0062  0.2308
14586SOL    HW261751  13.922   1.259  13.560  0.4218  0.0594  1.6995
14587SOL     OW61752   0.996  12.597   5.268 -0.1373  0.7078 -0.1054
14587SOL    HW161753   0.956  12.563   5.188 -0.4142 -0.1411  0.3738
14587SOL    HW261754   1.035  12.520   5.309 -1.9949  0.6554  1.7280
14588SOL     OW61755   9.524  12.127   1.500  0.3509  0.3873 -0.0426
14588SOL    HW161756   9.575  12.102   1.577 -0.1230  1.0687  0.5001
14588SOL    HW261757   9.579  12.100   1.426  0.7007 -0.5005  0.5208
14589SOL     OW61758  13.285  12.245   8.584 -0.3687 -0.4775  0.3759
14589SOL    HW161759  13.363  12.295   8.562  0.0633 -1.4689 -0.4659
14589SOL    HW261760  13.303  12.157   8.550 -0.9149 -1.3404  2.1951
14590SOL     OW61761   1.725   4.061  14.046 -0.3889  0.2666  0.1589
14590SOL    HW161762   1.807   4.093  14.083  1.3935  0.3337 -3.3537
14590SOL    HW261763   1.715   3.973  14.082  1.0324  0.3980  0.9397
14591SOL     OW61764   0.390   5.377   0.963  0.3012 -0.7014 -0.1198
14591SOL    HW161765   0.473   5.421   0.984  0.7693 -1.9252  0.7164
14591SOL    HW261766   0.367   5.409   0.876  0.8758  0.7934  0.2493
14592SOL     OW61767   6.662   5.221   0.184  0.1994 -0.7998  0.6235
14592SOL    HW161768   6.725   5.210   0.113 -0.6560  0.6117 -0.4151
14592SOL    HW261769   6.700   5.289   0.240 -0.7793  0.8421 -0.5805
14593SOL     OW61770   9.165   6.056   0.925 -0.5523 -0.1240 -0.2161
14593SOL    HW161771   9.085   6.004   0.928 -1.2887  0.9970  0.0530
14593SOL    HW261772   9.230   5.998   0.885 -1.3501 -1.2314  0.0455
14594SOL     OW61773  12.520   1.361  10.545  0.3228  0.1780  0.1317
14594SOL    HW161774  12.595   1.400  10.501 -0.0387  1.3219  0.4950
14594SOL    HW261775  12.502   1.281  10.496 -0.5984  1.7936 -2.4136
14595SOL     OW61776   9.564   3.679   7.411 -0.2222 -0.4148  0.2189
14595SOL    HW161777   9.528   3.732   7.482  1.9639  3.7560 -1.4187
14595SOL    HW261778   9.655   3.662   7.436 -0.0774 -0.9149 -0.5817
14596SOL     OW61779  11.972   9.905   0.693  0.1633  0.5248 -0.4482
14596SOL    HW161780  11.989   9.824   0.644 -1.9267  0.2656 -0.8467
14596SOL    HW261781  11.990   9.883   0.784 -0.8986 -0.5782 -0.4829
14597SOL     OW61782   2.102   0.996   3.464  0.7234  0.0834  1.6747
14597SOL    HW161783   2.040   1.067   3.452 -0.0149 -0.3060  2.9930
14597SOL    HW261784   2.052   0.917   3.445  1.6269 -0.1113 -0.1187
14598SOL     OW61785   3.177   7.467   3.877 -0.4025  0.1874 -0.6260
14598SOL    HW161786   3.141   7.382   3.853  1.2402 -0.3800 -1.2218
14598SOL    HW261787   3.209   7.455   3.967  1.0056 -0.2580 -1.1594
14599SOL     OW61788   5.349  12.487   6.102  0.2477 -0.1668 -0.1952
14599SOL    HW161789   5.376  12.574   6.073  0.3349 -1.2149 -3.8460
14599SOL    HW261790   5.430  12.443   6.124  0.2283  0.5398  1.3972
14600SOL     OW61791  12.355   3.987   6.779 -0.1974  0.1811  0.2373
14600SOL    HW161792  12.278   3.932   6.794 -1.1160  0.6677 -2.2786
14600SOL    HW261793  12.353   4.050   6.851 -3.6116  1.6736 -0.9404
14601SOL     OW61794  11.697   6.887  11.551  0.0343 -0.1762  0.0115
14601SOL    HW161795  11.774   6.840  11.517  0.3767 -1.0371  1.8400
14601SOL    HW261796  11.623   6.847  11.506  0.5389 -0.4583 -0.5908
14602SOL     OW61797  13.435  13.084   3.583 -0.3452  0.4973 -0.5805
14602SOL    HW161798  13.446  13.160   3.526  0.4453  0.9906  0.1968
14602SOL    HW261799  13.518  13.037   3.578 -0.9912 -0.6211 -1.4392
14603SOL     OW61800  10.623   7.815   8.311 -0.5761 -0.4489 -0.0921
14603SOL    HW161801  10.715   7.802   8.287 -0.3975 -0.8042  0.7606
14603SOL    HW261802  10.576   7.808   8.228 -0.0763 -2.5711 -0.2659
14604SOL     OW61803   1.007   5.909  12.397  0.2184  0.1302 -0.3463
14604SOL    HW161804   1.013   5.940  12.307 -1.8202  0.3056 -0.4708
14604SOL    HW261805   0.961   5.978  12.443  2.7054  0.8246  1.3020
14605SOL     OW61806   7.046  11.283  10.818 -0.2505 -0.1102 -0.3403
14605SOL    HW161807   7.046  11.370  10.778 -1.6514 -0.1316 -0.4384
14605SOL    HW261808   7.026  11.223  10.746 -1.2082 -0.3060  0.0688
14606SOL     OW61809   0.463   7.425  11.626 -0.4506  0.1560  0.4913
14606SOL    HW161810   0.412   7.361  11.677  2.2726 -1.7889  0.9540
14606SOL    HW261811   0.407   7.445  11.551 -1.8119 -2.0844  0.7977
14607SOL     OW61812   9.417   6.163   3.890 -0.3798 -0.0506  0.5911
14607SOL    HW161813   9.510   6.160   3.913 -0.1704  3.3481  0.7605
14607SOL    HW261814   9.413   6.131   3.800  1.4790  2.1875 -0.3873
14608SOL     OW61815   1.649  11.761   9.051  0.0797 -0.3264 -0.3318
14608SOL    HW161816   1.736  11.730   9.076 -0.4424 -0.4564  1.4457
14608SOL    HW261817   1.589  11.691   9.077 -0.4624 -1.0862 -3.2511
14609SOL     OW61818   4.885   1.434   6.906  0.5101  0.1086 -0.1408
14609SOL    HW161819   4.857   1.369   6.970  2.5565 -0.6711  0.0463
14609SOL    HW261820   4.857   1.398   6.822  1.0345 -0.6995  0.0213
14610SOL     OW61821   9.814   0.824   0.293 -0.7857  0.0234 -0.4795
14610SOL    HW161822   9.892   0.865   0.330 -0.8356  0.9837 -1.3977
14610SOL    HW261823   9.747   0.891   0.298 -1.6627 -0.8975  0.5846
14611SOL     OW61824   2.390   7.474   9.141 -0.2284 -0.0740  0.2782
14611SOL    HW161825   2.351   7.407   9.197  1.0113  0.4034  1.7989
14611SOL    HW261826   2.351   7.459   9.055 -1.6477 -1.3232  1.0763
14612SOL     OW61827   7.684   3.013   5.780 -0.0318  0.1184 -0.3933
14612SOL    HW161828   7.613   2.950   5.768 -0.1472 -0.0872  1.1730
14612SOL    HW261829   7.649   3.095   5.746 -0.0032 -0.5455 -2.1377
14613SOL     OW61830   9.463   2.091   9.081 -0.3119  0.1378 -0.1478
14613SOL    HW161831   9.488   2.138   9.160  1.9736 -0.2903 -0.5473
14613SOL    HW261832   9.510   2.136   9.010 -1.3881 -0.2052 -1.1055
14614SOL     OW61833   3.860   8.844  13.695  0.0434 -0.2584 -0.1017
14614SOL    HW161834   3.880   8.827  13.603 -1.3071  0.7717 -0.6085
14614SOL    HW261835   3.831   8.935  13.697 -0.4460 -0.4234  1.2603
14615SOL     OW61836   7.413   1.971  11.315 -0.4791  0.0983 -0.1763
14615SOL    HW161837   7.334   1.943  11.361 -1.1732  0.4260 -1.1344
14615SOL    HW261838   7.484   1.954  11.376 -1.1242 -1.5485  0.1499
14616SOL     OW61839   9.978   6.093  13.732 -0.3186 -0.3155 -0.8170
14616SOL    HW161840   9.961   6.023  13.794 -2.6790  1.2275  0.3986
14616SOL    HW261841  10.040   6.151  13.777 -0.9268  0.0638 -0.4566
14617SOL     OW61842   1.087   8.445   4.033  0.3781 -0.4215 -0.7238
14617SOL    HW161843   1.006   8.453   3.984 -0.0703  1.0078  0.1935
14617SOL    HW261844   1.093   8.526   4.084  2.4600 -0.3984 -0.8892
14618SOL     OW61845   4.809   0.780   1.549  0.3122  0.8550 -0.2634
14618SOL    HW161846   4.780   0.869   1.530 -0.4772  0.5943 -0.3312
14618SOL    HW261847   4.729   0.734   1.575  0.4365 -0.2223 -1.6449
14619SOL     OW61848   2.696   2.072  10.682  0.2471  0.4266  0.1610
14619SOL    HW161849   2.652   2.107  10.604 -0.9090  0.7221  0.9253
14619SOL    HW261850   2.715   2.149  10.735  0.7174  0.1897  0.3413
14620SOL     OW61851   5.261   4.078  11.291  0.6817 -0.0007 -0.2268
14620SOL    HW161852   5.186   4.138  11.282 -0.4180 -0.8983  2.1570
14620SOL    HW261853   5.331   4.133  11.326  0.3880  0.3490 -0.1791
14621SOL     OW61854   6.392  11.673   4.426 -0.0803  0.4010 -0.2949
14621SOL    HW161855   6.423  11.751   4.473  1.1383  0.8013 -1.6468
14621SOL    HW261856   6.472  11.624   4.407 -0.7321 -0.6471 -0.3686
14622SOL     OW61857  10.889   5.055  11.292  0.2043  0.0430  0.2359
14622SOL    HW161858  10.812   5.039  11.238  0.6863 -2.5589  0.2154
14622SOL    HW261859  10.928   5.134  11.255 -0.5989 -0.5172 -1.9324
14623SOL     OW61860  12.950  13.066   4.772  0.2684 -0.2880  0.1586
14623SOL    HW161861  13.023  13.028   4.819  0.6525 -0.3662 -0.4871
14623SOL    HW261862  12.918  13.136   4.829  0.4889 -0.6146  0.6896
14624SOL     OW61863   3.449   1.480  12.069  0.2648  0.5284 -0.1912
14624SOL    HW161864   3.525   1.432  12.102 -0.8820 -0.0257  1.8012
14624SOL    HW261865   3.454   1.565  12.113  0.4470  1.0040 -1.1131
14625SOL     OW61866   7.433   1.002   5.354 -0.2722 -0.0606  0.0106
14625SOL    HW161867   7.466   1.039   5.272  3.0335 -1.3484  0.6188
14625SOL    HW261868   7.451   1.069   5.420 -0.4246 -0.1144  0.1079
14626SOL     OW61869  12.198   7.888   3.926  0.0727 -0.2927 -0.2944
14626SOL    HW161870  12.182   7.844   3.842  0.8394 -0.6993 -0.2400
14626SOL    HW261871  12.113   7.924   3.951 -0.7889 -2.3753  0.0259
14627SOL     OW61872   7.385   2.426  13.133 -0.0592 -0.2706 -0.6466
14627SOL    HW161873   7.407   2.392  13.220 -2.2592 -2.3311 -0.7986
14627SOL    HW261874   7.443   2.380  13.074  1.3301  1.0154 -0.3469
14628SOL     OW61875   7.430   1.949   8.230 -0.2331 -0.0400 -0.5118
14628SOL    HW161876   7.408   2.026   8.178 -1.0868  0.5405  0.6486
14628SOL    HW261877   7.525   1.943   8.225 -0.1007  1.4296 -0.1830
14629SOL     OW61878   2.333  13.177   0.073  0.3601 -0.3231 -0.3863
14629SOL    HW161879   2.265  13.111   0.081  0.5930 -0.6714 -1.2173
14629SOL    HW261880   2.291  13.258   0.102 -0.0391 -0.7541  0.2620
14630SOL     OW61881   5.312   2.004   5.047 -0.5270 -0.3473  0.3684
14630SOL    HW161882   5.221   2.032   5.038 -0.1120  0.8648 -0.3211
14630SOL    HW261883   5.335   1.969   4.961 -0.3600 -0.7323  0.5659
14631SOL     OW61884  12.096   9.205   8.369  0.0364 -0.5544 -0.5671
14631SOL    HW161885  12.177   9.155   8.381  0.1872 -0.1389  0.2315
14631SOL    HW261886  12.104   9.243   8.282  1.7040  1.2501  0.2988
14632SOL     OW61887   0.028  12.718   9.522  0.7829 -0.7027 -0.2855
14632SOL    HW161888  -0.065  12.696   9.526  0.2497  1.4243  1.1195
14632SOL    HW261889   0.074  12.636   9.543 -0.9020 -1.1705  1.8994
14633SOL     OW61890   9.944  12.739   5.006  0.1218 -0.0483  0.3308
14633SOL    HW161891   9.955  12.654   5.049  0.4234 -1.2650 -1.9632
14633SOL    HW261892  10.022  12.788   5.030 -0.8065  0.2869  3.0164
14634SOL     OW61893  13.464   2.177   7.062 -0.3074 -0.7813 -0.2961
14634SOL    HW161894  13.530   2.108   7.059 -0.4511 -1.0158  1.3311
14634SOL    HW261895  13.381   2.131   7.072 -0.7686 -0.4848 -2.3257
14635SOL     OW61896   7.713  11.815   8.786 -0.2297  0.0500 -0.0067
14635SOL    HW161897   7.730  11.754   8.858  1.4344  1.1975  0.6483
14635SOL    HW261898   7.757  11.896   8.813 -0.1991  0.7457 -1.9966
14636SOL     OW61899  10.290   6.516   4.266 -0.1883 -0.1686  0.0675
14636SOL    HW161900  10.331   6.492   4.183  1.5053  0.4422  0.6822
14636SOL    HW261901  10.196   6.520   4.246  0.1343 -0.4754 -1.6934
14637SOL     OW61902   8.664   3.308   1.406 -0.1430  0.2629 -0.4627
14637SOL    HW161903   8.688   3.289   1.315 -0.6383 -1.0388 -0.3474
14637SOL    HW261904   8.677   3.225   1.452  0.3053  0.9553  0.7155
14638SOL     OW61905   7.933  12.756  13.064 -0.1615  0.0540 -0.4704
14638SOL    HW161906   7.940  12.699  13.140  0.0812  0.7542  0.0428
14638SOL    HW261907   8.024  12.770  13.036 -0.1466  0.9426 -0.0151
14639SOL     OW61908   0.635   7.552  11.005 -0.2057  0.5826  0.1226
14639SOL    HW161909   0.540   7.537  11.005  0.1045 -1.6898 -0.4752
14639SOL    HW261910   0.654   7.585  10.917 -0.3492  0.2577 -0.0331
14640SOL     OW61911  13.717   7.444   5.174 -0.0211 -0.2033 -0.5395
14640SOL    HW161912  13.780   7.413   5.239 -0.8864  0.6171  0.7318
14640SOL    HW261913  13.765   7.507   5.121  0.6523 -0.7701 -0.6121
14641SOL     OW61914   6.395   7.379  13.949  0.1321  0.1952 -0.0550
14641SOL    HW161915   6.411   7.297  13.995 -1.5390  0.0178  0.2698
14641SOL    HW261916   6.443   7.444  14.000 -0.1630 -0.2886  0.8611
14642SOL     OW61917   7.051   3.545   9.091 -0.1246 -0.5289  0.3260
14642SOL    HW161918   6.962   3.580   9.094 -0.0332  0.3333 -2.6844
14642SOL    HW261919   7.047   3.474   9.027  1.4465  0.0320 -0.4629
14643SOL     OW61920  10.948  13.948  13.764 -0.3160 -0.1255 -0.4079
14643SOL    HW161921  11.030  13.991  13.739  0.8008 -2.8924 -1.9752
14643SOL    HW261922  10.964  13.913  13.851 -0.8932  1.6013  0.4577
14644SOL     OW61923   3.831  10.915  10.532  0.1091 -0.3263  0.0124
14644SOL    HW161924   3.891  10.959  10.593 -0.3850 -1.1248  1.0946
14644SOL    HW261925   3.745  10.952  10.553 -0.2124 -1.3165  0.4891
14645SOL     OW61926  11.365   0.431   9.689 -0.1832  0.2721 -0.3226
14645SOL    HW161927  11.308   0.468   9.757 -0.4187 -0.3847 -0.1575
14645SOL    HW261928  11.344   0.338   9.688  0.1885  0.1895 -0.9470
14646SOL     OW61929   1.344   4.532  11.904 -0.1271 -0.2876 -0.2081
14646SOL    HW161930   1.431   4.495  11.921  0.7217  1.0988 -1.3587
14646SOL    HW261931   1.317   4.493  11.821  0.3457  0.9038 -0.9327
14647SOL     OW61932   7.946   7.186   1.646  0.1455 -0.0306 -0.2491
14647SOL    HW161933   8.003   7.111   1.662 -0.3675 -0.7033 -1.4429
14647SOL    HW261934   7.900   7.199   1.729 -1.4642 -2.5445 -0.6464
14648SOL     OW61935   3.410  10.431   0.915 -0.0469  0.4382  0.0898
14648SOL    HW161936   3.470  10.500   0.945  0.6977 -0.8555  1.7072
14648SOL    HW261937   3.466  10.367   0.872 -0.5313  0.1067 -0.0566
14649SOL     OW61938   0.926   6.663   1.424 -0.2985 -0.9364  0.1862
14649SOL    HW161939   0.915   6.571   1.446 -2.7531 -1.1602 -1.5131
14649SOL    HW261940   0.925   6.708   1.508 -2.3002 -2.2382  0.9241
14650SOL     OW61941   4.333  11.924   9.762 -0.4659  0.1180 -0.2584
14650SOL    HW161942   4.368  11.850   9.712 -0.0739 -0.6350  1.0740
14650SOL    HW261943   4.290  11.883   9.837 -0.8952  1.2199  0.1060
14651SOL     OW61944   3.826   3.694  14.055  0.1296  0.0019  0.0658
14651SOL    HW161945   3.903   3.736  14.016  0.8177 -1.4686 -0.2376
14651SOL    HW261946   3.794   3.636  13.986 -1.9321  1.3685 -0.2002
14652SOL     OW61947  12.391   5.755   7.607  0.0319 -0.4747 -0.3424
14652SOL    HW161948  12.375   5.802   7.525  0.0363  2.1678  1.0440
14652SOL    HW261949  12.305   5.740   7.644  0.0922  0.6853  0.3296
14653SOL     OW61950   8.184   9.950  10.710  0.3547  0.3017 -0.1097
14653SOL    HW161951   8.094   9.927  10.736 -0.2801  0.5355 -1.9725
14653SOL    HW261952   8.203   9.892  10.637  1.2596  1.1140 -0.5298
14654SOL     OW61953   6.289   9.158   4.981 -0.4636  0.0343  0.1360
14654SOL    HW161954   6.273   9.194   5.068  1.7463 -1.8994  1.4593
14654SOL    HW261955   6.207   9.116   4.956 -0.4232 -1.5866  2.4679
14655SOL     OW61956  11.308   2.999  11.359 -0.3452  0.2368 -0.5487
14655SOL    HW161957  11.291   3.046  11.278 -0.5041  0.4298 -0.4040
14655SOL    HW261958  11.263   2.915  11.348 -1.0405  0.5785 -0.3363
14656SOL     OW61959   9.698   5.385  12.408 -0.1144  0.0588 -0.0949
14656SOL    HW161960   9.647   5.319  12.456  0.6731 -0.1462  0.4845
14656SOL    HW261961   9.783   5.386  12.453 -0.2609  1.8004  0.2158
14657SOL     OW61962  12.367  13.276   5.222 -0.0120  0.2370  0.0080
14657SOL    HW161963  12.407  13.194   5.248  1.5494  1.3560  1.3409
14657SOL    HW261964  12.274  13.255   5.212  0.3759 -1.7133  0.0941
14658SOL     OW61965   9.475   1.742   1.772 -0.1192  0.8460  0.1188
14658SOL    HW161966   9.461   1.836   1.773 -3.4458  0.5084 -0.8212
14658SOL    HW261967   9.516   1.725   1.687  2.8627  1.5877  1.3176
14659SOL     OW61968  11.657   3.652  10.732 -0.4724  0.3770  0.7352
14659SOL    HW161969  11.575   3.603  10.730  0.4951 -1.5095  3.1177
14659SOL    HW261970  11.635   3.736  10.773 -1.1853 -0.2582  1.6836
14660SOL     OW61971   1.049   1.438  12.215  0.1748 -0.7976 -0.1095
14660SOL    HW161972   1.024   1.497  12.286  0.6707  1.3934 -1.6417
14660SOL    HW261973   1.137   1.465  12.192 -1.2775  1.3879 -4.0793
14661SOL     OW61974   6.732   3.832   5.134  0.8691 -0.2527  0.1708
14661SOL    HW161975   6.766   3.883   5.060  1.4286 -1.0916 -0.1832
14661SOL    HW261976   6.717   3.745   5.097 -1.6091  0.0336  0.3569
14662SOL     OW61977   0.384  13.433   4.708 -0.2607 -0.2058  0.2860
14662SOL    HW161978   0.410  13.525   4.702 -1.7848  0.1613 -1.0468
14662SOL    HW261979   0.467  13.386   4.718  0.5721  1.2630  0.6274
14663SOL     OW61980   7.275   8.813   1.408 -0.2352 -0.1569 -0.1313
14663SOL    HW161981   7.321   8.765   1.340 -1.5713 -1.0982 -0.4075
14663SOL    HW261982   7.182   8.808   1.383 -0.5682  1.2250  0.6776
14664SOL     OW61983   5.082  13.277   0.376 -0.3395 -0.6713 -0.7195
14664SOL    HW161984   5.075  13.186   0.406  1.9543 -0.0649  2.0036
14664SOL    HW261985   5.159  13.278   0.320 -0.5404 -0.4241 -0.9972
14665SOL     OW61986   0.360   4.541   6.504  0.3913 -0.1321  0.4517
14665SOL    HW161987   0.316   4.625   6.505  2.3146  0.9372  0.3732
14665SOL    HW261988   0.350   4.507   6.593  1.0283  0.9862  0.9706
14666SOL     OW61989  10.109   3.724  13.085  0.1795 -0.5244  0.3080
14666SOL    HW161990  10.125   3.735  12.991 -0.3295 -2.0481  0.0064
14666SOL    HW261991  10.192   3.693  13.120  0.4402  0.2852  0.4070
14667SOL     OW61992  10.675   3.419  13.350  0.3167  0.4542  0.0918
14667SOL    HW161993  10.730   3.425  13.428  2.8546 -0.4131 -1.5378
14667SOL    HW261994  10.658   3.325  13.340 -2.1266  0.7302  0.9096
14668SOL     OW61995   2.450   9.925   0.441 -0.4902  0.4815  0.2318
14668SOL    HW161996   2.485   9.917   0.352  0.3847 -0.9737  0.6641
14668SOL    HW261997   2.496   9.857   0.491 -0.4664  1.6830  1.9641
14669SOL     OW61998   3.679   1.123   6.876 -0.3040  0.1282  0.1536
14669SOL    HW161999   3.735   1.088   6.807  0.2928  0.0701  0.6649
14669SOL    HW262000   3.631   1.047   6.909  0.9378 -0.2268  1.2142
14670SOL     OW62001   3.446   2.096  13.422 -0.4678 -0.0054 -0.6687
14670SOL    HW162002   3.516   2.122  13.362 -1.5036  1.6920 -1.2122
14670SOL    HW262003   3.407   2.019  13.381 -0.6120  0.6256 -1.7902
14671SOL     OW62004   0.341   8.635   5.195  0.0863  0.6839  0.1224
14671SOL    HW162005   0.336   8.560   5.136  1.7138 -0.1049  0.9384
14671SOL    HW262006   0.252   8.645   5.230 -0.1133 -0.9463  0.1195
14672SOL     OW62007  12.527   9.414  12.481  0.3607 -0.6369 -0.8160
14672SOL    HW162008  12.569   9.498  12.462 -0.2798  0.5953  2.4137
14672SOL    HW262009  12.434   9.431  12.466 -0.0570  0.1067  1.9928
14673SOL     OW62010  13.162   0.587   7.497  0.0939 -0.5360 -0.1660
14673SOL    HW162011  13.246   0.605   7.540  0.5821 -0.5291 -1.1000
14673SOL    HW262012  13.140   0.669   7.452  0.1457 -0.8867 -0.8369
14674SOL     OW62013   0.378   1.755  13.830  0.4177 -0.2437  0.3674
14674SOL    HW162014   0.355   1.848  13.830  1.5302  0.0492 -0.7047
14674SOL    HW262015   0.294   1.710  13.842 -0.3861  0.8517 -0.8768
14675SOL     OW62016   1.695   9.256  11.308  0.2118  0.6741  0.2804
14675SOL    HW162017   1.747   9.327  11.269 -0.6441  1.0732 -0.1617
14675SOL    HW262018   1.607   9.268  11.272 -0.5212  0.7923  2.0182
14676SOL     OW62019   2.343   1.659   0.460  0.2650  0.2550 -0.2368
14676SOL    HW162020   2.387   1.703   0.387  0.6164 -0.1613 -0.2822
14676SOL    HW262021   2.283   1.597   0.418  0.0902  0.3768 -0.1704
14677SOL     OW62022   8.870  10.556   5.277 -0.0088 -0.6118  0.0665
14677SOL    HW162023   8.839  10.632   5.325  2.1581  0.2889  0.1241
14677SOL    HW262024   8.826  10.482   5.319 -1.0397  0.4671  0.9593
14678SOL     OW62025   1.785  12.079   7.450  0.2665  0.1776  0.0843
14678SOL    HW162026   1.850  12.096   7.518 -0.7745  0.0331  1.1513
14678SOL    HW262027   1.720  12.149   7.460 -0.0425  0.0003 -0.5873
14679SOL     OW62028   8.072   2.350   8.871 -0.1604 -0.3243 -0.3537
14679SOL    HW162029   8.034   2.315   8.952 -1.8363  1.7924 -0.1256
14679SOL    HW262030   8.011   2.323   8.803  1.4373 -2.4133 -1.0571
14680SOL     OW62031   1.319   7.059   7.788 -0.2686 -0.2014 -0.0553
14680SOL    HW162032   1.239   7.012   7.811 -2.0622  1.7702 -1.8000
14680SOL    HW262033   1.330   7.124   7.857  0.2112 -0.8593  0.5032
14681SOL     OW62034   7.569   1.111   5.133  0.2200  0.1532 -0.0098
14681SOL    HW162035   7.651   1.078   5.169 -0.2330  0.3801  1.2671
14681SOL    HW262036   7.566   1.203   5.160  0.0124  0.4265 -0.9190
14682SOL     OW62037   3.256  13.158   7.594 -0.1839 -0.0712  0.5384
14682SOL    HW162038   3.340  13.203   7.584 -0.5019  0.1301 -2.0511
14682SOL    HW262039   3.225  13.184   7.681  2.0512  0.4572  1.2474
14683SOL     OW62040   9.664   8.449  11.213  0.6300  0.0365  0.3782
14683SOL    HW162041   9.681   8.536  11.177 -0.1088  0.2610  0.5421
14683SOL    HW262042   9.745   8.401  11.199  0.5904  0.3204 -0.9594
14684SOL     OW62043  10.665   2.100  13.802 -0.0402 -0.4834 -0.8205
14684SOL    HW162044  10.660   2.007  13.782  0.3907 -1.0825  1.5163
14684SOL    HW262045  10.742   2.109  13.858 -0.7064  1.0635 -0.0663
14685SOL     OW62046  10.493  10.933   8.661  0.0562  0.2471  0.0933
14685SOL    HW162047  10.577  10.912   8.702 -0.0033 -0.8197 -0.2938
14685SOL    HW262048  10.446  10.984   8.727  1.4204  1.8367 -0.0962
14686SOL     OW62049   9.456   8.932   8.499  0.9833 -0.3060  0.0741
14686SOL    HW162050   9.378   8.973   8.537  1.2941  0.7652 -0.4025
14686SOL    HW262051   9.462   8.970   8.412 -0.2819 -3.4553 -1.5193
14687SOL     OW62052  13.566  11.028  10.227  0.2686  0.0674  0.0143
14687SOL    HW162053  13.569  11.048  10.133 -0.7056 -0.2335 -0.1051
14687SOL    HW262054  13.479  11.058  10.254 -0.0012 -1.0929  0.5038
14688SOL     OW62055   9.799   7.687   0.047  0.4147  0.7845  0.1076
14688SOL    HW162056   9.758   7.691   0.134  0.6375 -1.8240  0.4077
14688SOL    HW262057   9.886   7.726   0.060  0.7858 -0.3791  1.3061
14689SOL     OW62058  13.978   1.052  10.817 -0.3495  0.1140  0.0768
14689SOL    HW162059  14.070   1.027  10.806 -0.8244 -1.4401 -0.7231
14689SOL    HW262060  13.961   1.113  10.745  0.3124  1.2381  0.8507
14690SOL     OW62061   1.886   3.593   9.501 -0.5029  0.4030  0.2186
14690SOL    HW162062   1.833   3.522   9.537 -1.1128  0.5579 -0.3523
14690SOL    HW262063   1.967   3.591   9.551 -0.3127 -1.0065 -0.1134
14691SOL     OW62064   9.504   2.233   7.949  0.2785 -0.0752 -0.4408
14691SOL    HW162065   9.485   2.200   8.036  2.5365 -0.0713  0.1026
14691SOL    HW262066   9.540   2.321   7.963 -1.2218  0.7734 -1.5475
14692SOL     OW62067   8.276  10.927   9.192  0.1901 -0.1389  0.3416
14692SOL    HW162068   8.332  10.853   9.216  0.0353 -1.4861 -2.9456
14692SOL    HW262069   8.189  10.904   9.225  0.1704 -1.4091 -0.5482
14693SOL     OW62070   2.779   7.060   3.578  0.2193  0.2504 -0.5980
14693SOL    HW162071   2.706   7.008   3.543  0.8404 -0.3781 -0.9917
14693SOL    HW262072   2.738   7.141   3.608 -1.0368 -0.9909  1.3323
14694SOL     OW62073  13.772   8.587  11.573  0.2118  0.3082  0.0267
14694SOL    HW162074  13.747   8.628  11.656  0.7157  1.0206 -0.1647
14694SOL    HW262075  13.786   8.494  11.595 -0.8026  0.2564  0.4916
14695SOL     OW62076   8.140   7.942  13.751  0.0147  0.1877 -0.8115
14695SOL    HW162077   8.114   7.914  13.663 -3.2405 -2.5183  0.7954
14695SOL    HW262078   8.058   7.963  13.795  1.5911  2.0997  1.4712
14696SOL     OW62079   5.359   7.230   3.702  0.1011  0.4688  0.3232
14696SOL    HW162080   5.400   7.243   3.787  1.2349  1.0718 -0.2930
14696SOL    HW262081   5.432   7.227   3.640 -0.5905 -1.4253 -0.4717
14697SOL     OW62082  10.776  13.087   5.087 -0.1441 -0.0321 -0.6799
14697SOL    HW162083  10.742  13.151   5.024  1.4370  1.3028 -0.2622
14697SOL    HW262084  10.807  13.014   5.033  1.3887  1.1868 -1.5278
14698SOL     OW62085   8.686   8.834   1.365  0.3004  0.4271 -0.2113
14698SOL    HW162086   8.608   8.866   1.411  0.5194  2.3453 -1.1054
14698SOL    HW262087   8.740   8.912   1.351  3.4396 -1.0665  2.1751
14699SOL     OW62088   4.481  11.766   2.798 -0.0346  0.6183  0.4170
14699SOL    HW162089   4.565  11.729   2.827  0.5523 -0.4396 -2.3127
14699SOL    HW262090   4.489  11.860   2.815  1.8642  0.5899 -0.0814
14700SOL     OW62091  12.061  11.542   7.058  0.1549  0.2847  0.2832
14700SOL    HW162092  12.065  11.476   6.990  2.0378 -0.1807  0.8041
14700SOL    HW262093  12.015  11.616   7.018  0.6276 -0.2298 -1.2437
14701SOL     OW62094  10.339   1.971  13.069 -0.7019  0.5100 -0.6102
14701SOL    HW162095  10.355   2.047  13.013  0.8078  0.5336 -0.1921
14701SOL    HW262096  10.421   1.921  13.066 -0.8452  0.1292  0.9749
14702SOL     OW62097  11.757  11.362  10.835  0.0000  0.0489 -0.0033
14702SOL    HW162098  11.674  11.364  10.788 -0.8312 -1.8840  1.2807
14702SOL    HW262099  11.735  11.333  10.923  1.7698  1.7327  1.0876
14703SOL     OW62100   3.172   6.050   4.229 -0.1917  0.0931  0.0989
14703SOL    HW162101   3.135   6.000   4.157 -1.3677 -0.2625  0.9176
14703SOL    HW262102   3.260   6.076   4.199 -0.7991  0.2855 -1.5889
14704SOL     OW62103  11.999   7.006  11.380  0.0181 -0.6220 -0.0588
14704SOL    HW162104  11.915   7.006  11.425 -0.4401  2.0610 -0.6930
14704SOL    HW262105  12.058   7.052  11.440  0.0171  0.7967 -1.0757
14705SOL     OW62106   0.013  14.086  13.531 -0.3445 -0.0474  0.3970
14705SOL    HW162107  -0.024  14.111  13.615 -0.1013  2.8636 -0.2577
14705SOL    HW262108   0.101  14.053  13.552  0.2940  2.0505  1.2178
14706SOL     OW62109   8.578   9.002   2.131 -0.0059 -0.1733  0.4242
14706SOL    HW162110   8.486   9.015   2.107  0.1891  0.3950 -0.0536
14706SOL    HW262111   8.618   9.089   2.120  0.8078 -0.6345 -0.3871
14707SOL     OW62112   2.551   4.380  11.298 -0.8876 -0.1512 -0.3044
14707SOL    HW162113   2.473   4.421  11.334  0.1257 -0.7231  2.7952
14707SOL    HW262114   2.612   4.375  11.371  1.3123 -1.6196 -2.0970
14708SOL     OW62115   4.563   6.241   0.338 -0.0525 -0.3869  0.3416
14708SOL    HW162116   4.481   6.192   0.352 -0.1749 -0.5587 -0.8919
14708SOL    HW262117   4.631   6.183   0.372 -0.3739 -0.5406  0.7365
14709SOL     OW62118  12.057   5.741  12.698 -0.2338 -0.1266 -0.4234
14709SOL    HW162119  12.145   5.769  12.673 -0.0428 -0.2000  0.1617
14709SOL    HW262120  12.069   5.652  12.731 -0.3177  0.3198  0.8680
14710SOL     OW62121   4.220   0.666   3.518  0.2083  0.4066 -0.0197
14710SOL    HW162122   4.178   0.635   3.598  1.1582 -1.2106 -0.1005
14710SOL    HW262123   4.248   0.755   3.538  1.3011 -0.3021  1.8406
14711SOL     OW62124   9.050   8.303   6.366  0.2011 -0.5236 -0.5402
14711SOL    HW162125   9.002   8.243   6.309 -0.4240  0.4924 -1.1130
14711SOL    HW262126   9.046   8.388   6.321  0.6705  0.0534  0.4642
14712SOL     OW62127   2.375  13.175   5.799 -0.1857  0.1934 -0.0945
14712SOL    HW162128   2.440  13.201   5.864  0.7948 -0.0935 -0.9265
14712SOL    HW262129   2.323  13.107   5.842 -1.0650  1.6248  1.1724
14713SOL     OW62130  12.331  13.982  11.910 -0.1848 -0.0221 -0.0253
14713SOL    HW162131  12.317  13.955  12.001  0.9445  1.3496  0.5914
14713SOL    HW262132  12.283  14.064  11.901  1.2045  0.8206 -0.0829
14714SOL     OW62133  10.049  10.702  11.585  0.5663  0.3617 -0.2537
14714SOL    HW162134  10.142  10.701  11.609  0.9427 -0.4623 -1.5954
14714SOL    HW262135  10.017  10.615  11.609  0.3115  0.4248 -0.3613
14715SOL     OW62136   2.589   3.965   1.087  0.1502 -0.2186 -0.1827
14715SOL    HW162137   2.654   4.027   1.054  0.1750  0.0335  0.3231
14715SOL    HW262138   2.539   4.015   1.152  1.4496 -1.2391  1.7112
14716SOL     OW62139   5.301  11.054   7.786 -0.1159 -0.2939  0.0741
14716SOL    HW162140   5.274  11.059   7.694 -0.2688  0.0118  0.1369
14716SOL    HW262141   5.386  11.010   7.783 -0.6408 -1.3388 -0.1148
14717SOL     OW62142  13.009  13.366   6.308 -0.0101  0.6684  0.7773
14717SOL    HW162143  13.060  13.306   6.363  0.1442 -1.5132 -1.5388
14717SOL    HW262144  12.921  13.328   6.307 -0.8032  2.3689  1.8289
14718SOL     OW62145   5.413   5.640   3.838  0.3057 -0.2560 -0.1270
14718SOL    HW162146   5.399   5.547   3.858  0.5263 -0.2614 -0.0001
14718SOL    HW262147   5.328   5.669   3.805 -0.1322 -0.2180  0.9635
14719SOL     OW62148   6.920   3.779   2.871  0.1087 -0.1614 -0.1059
14719SOL    HW162149   6.940   3.765   2.779 -1.3849  0.0988 -0.5016
14719SOL    HW262150   6.979   3.850   2.898 -0.8444  1.2198 -1.4549
14720SOL     OW62151   4.042  11.959   5.692 -0.6530 -0.2084 -0.2247
14720SOL    HW162152   4.056  11.866   5.713 -1.9993 -0.3586  0.1334
14720SOL    HW262153   4.127  11.990   5.663  0.1892 -1.1800  1.0961
14721SOL     OW62154   7.273  11.150   7.285  1.2923 -0.2525 -0.3780
14721SOL    HW162155   7.181  11.176   7.274  0.9734 -0.7101  0.9697
14721SOL    HW262156   7.285  11.145   7.380  2.5845 -0.6754 -0.5455
14722SOL     OW62157   8.965   3.657   1.383  0.5452 -0.0952  0.5007
14722SOL    HW162158   8.917   3.640   1.302 -1.3546  2.4537  0.9724
14722SOL    HW262159   8.923   3.600   1.448  1.1119 -1.0729  0.0363
14723SOL     OW62160  12.833  12.597   3.257 -0.0990 -0.2439 -0.0522
14723SOL    HW162161  12.815  12.506   3.236  0.4168 -0.0345 -1.5413
14723SOL    HW262162  12.887  12.628   3.185 -0.9351  1.4682  0.0058
14724SOL     OW62163  14.031   3.865  10.008  0.5597 -0.1708  0.4400
14724SOL    HW162164  14.061   3.814  10.083 -0.6952 -1.5429  0.0653
14724SOL    HW262165  13.942   3.893  10.032 -0.3495 -1.6598 -0.9436
14725SOL     OW62166   1.906  12.028  11.679  0.1590 -0.4951 -0.2724
14725SOL    HW162167   1.819  12.068  11.670  0.4778  0.3711  0.3257
14725SOL    HW262168   1.930  12.002  11.590 -0.9265 -1.2110 -0.3676
14726SOL     OW62169  10.311   8.400   4.824 -0.3901 -0.4921  0.3987
14726SOL    HW162170  10.233   8.450   4.800  0.0637  0.2484  0.4305
14726SOL    HW262171  10.367   8.463   4.869 -0.3284 -1.3453  1.5552
14727SOL     OW62172   0.288   2.821   9.920  0.1527  0.5496 -0.3962
14727SOL    HW162173   0.375   2.861   9.925  0.1388  0.8907 -2.3679
14727SOL    HW262174   0.227   2.894   9.924 -0.0983  0.3052  1.0744
14728SOL     OW62175   1.744  13.907   9.140  0.0929 -0.2628  0.3578
14728SOL    HW162176   1.733  13.981   9.081 -3.3530  0.5467  1.7549
14728SOL    HW262177   1.803  13.938   9.208  1.1950  0.0433 -0.7138
14729SOL     OW62178   7.587   2.501   8.618  0.4760 -0.5663  0.4512
14729SOL    HW162179   7.654   2.568   8.629 -0.2899 -0.0350  2.3570
14729SOL    HW262180   7.587   2.481   8.524  1.5943  1.1811  0.0445
14730SOL     OW62181   3.112   4.722   8.199 -0.2789 -0.0217 -0.6187
14730SOL    HW162182   3.044   4.780   8.167  0.0950 -0.6521 -2.7139
14730SOL    HW262183   3.136   4.758   8.284 -2.6985  0.6223 -0.1312
14731SOL     OW62184  12.069  11.202   6.428  0.3076  0.0459 -0.6965
14731SOL    HW162185  12.162  11.216   6.442  0.2925 -1.3824  1.3053
14731SOL    HW262186  12.064  11.153   6.345  1.3941 -0.3718 -0.5292
14732SOL     OW62187  13.163   9.928   0.921 -0.6225  0.0669 -0.4262
14732SOL    HW162188  13.177   9.889   1.007  0.5095  1.8303  0.2468
14732SOL    HW262189  13.129  10.015   0.940 -0.1570  0.5650 -1.7562
14733SOL     OW62190  12.502   4.567   0.268 -0.3037  0.3776 -0.3586
14733SOL    HW162191  12.522   4.541   0.178 -1.1248  0.7120 -0.6442
14733SOL    HW262192  12.431   4.508   0.294 -0.8523  1.0453 -0.3361
14734SOL     OW62193  12.047   7.350  11.797 -0.1440  0.6582 -0.2415
14734SOL    HW162194  12.142   7.341  11.801  0.1401  3.1032 -0.1203
14734SOL    HW262195  12.020   7.368  11.887 -0.6841  0.2893 -0.3254
14735SOL     OW62196   9.729   7.414   5.193  0.2668 -0.2576 -0.0768
14735SOL    HW162197   9.675   7.343   5.158 -1.6674  1.3704 -0.6038
14735SOL    HW262198   9.711   7.414   5.287  1.1564 -1.1362  0.1114
14736SOL     OW62199   7.157   1.825   2.548 -0.0344 -0.7221  0.1628
14736SOL    HW162200   7.205   1.780   2.479 -1.8211  1.0150 -2.4290
14736SOL    HW262201   7.222   1.882   2.590  0.7150 -0.2478 -1.5603
14737SOL     OW62202   8.093  11.504   9.351  0.1578  0.1475 -0.8959
14737SOL    HW162203   8.022  11.495   9.287 -0.6683  2.7259 -0.4709
14737SOL    HW262204   8.160  11.554   9.304  0.0905  0.9246 -0.1938
14738SOL     OW62205  10.288  13.295   9.343 -0.3402 -0.3755  0.1103
14738SOL    HW162206  10.251  13.354   9.278  0.4930  0.2956  0.2314
14738SOL    HW262207  10.232  13.305   9.420 -1.7355 -1.6632 -0.6739
14739SOL     OW62208   8.488  13.828  11.450  0.1095 -0.3412 -0.6379
14739SOL    HW162209   8.571  13.845  11.406  1.5449 -0.8919  1.6698
14739SOL    HW262210   8.491  13.735  11.474 -1.1126 -0.3422 -0.3810
14740SOL     OW62211  11.400   0.890   5.578 -0.5249 -0.5220 -0.3321
14740SOL    HW162212  11.321   0.944   5.583 -0.8873 -0.9764 -1.0465
14740SOL    HW262213  11.463   0.935   5.636  0.0412  2.0995 -2.7239
14741SOL     OW62214   9.171  11.738   1.369 -0.0729 -0.0001 -0.1086
14741SOL    HW162215   9.098  11.783   1.412 -0.2671  0.2743 -0.7194
14741SOL    HW262216   9.140  11.649   1.356  0.1789 -0.2281  0.7810
14742SOL     OW62217   4.490  13.817   4.624  0.3441  0.4649 -0.3890
14742SOL    HW162218   4.513  13.808   4.532 -0.2606  0.1960 -0.5159
14742SOL    HW262219   4.513  13.733   4.663 -1.4711 -0.2562 -0.7551
14743SOL     OW62220   4.861   6.414  13.383  0.6979 -0.5564  0.2244
14743SOL    HW162221   4.793   6.435  13.448 -0.0562 -1.2062 -0.3318
14743SOL    HW262222   4.814   6.365  13.315  1.7227 -0.9702 -0.1947
14744SOL     OW62223   2.497   9.189   1.917 -0.4151 -0.0836 -0.7216
14744SOL    HW162224   2.427   9.125   1.907 -0.0304 -0.5860 -0.2592
14744SOL    HW262225   2.453   9.273   1.922 -0.8760 -0.1820 -2.4539
14745SOL     OW62226   6.560  11.926  13.111  0.8394  0.0562  0.2454
14745SOL    HW162227   6.494  11.873  13.066  2.1729 -0.9625 -0.5927
14745SOL    HW262228   6.599  11.868  13.176  0.0278  1.0540  1.6986
14746SOL     OW62229   0.775   2.723   3.159 -0.0932 -0.4330  0.0349
14746SOL    HW162230   0.723   2.653   3.198  0.2628 -0.1975  0.9435
14746SOL    HW262231   0.713   2.795   3.145 -0.0167 -0.1309  1.1712
14747SOL     OW62232   9.251   2.269   2.191  0.4171 -0.4831  0.0691
14747SOL    HW162233   9.219   2.199   2.134  1.7574 -1.5854  0.6162
14747SOL    HW262234   9.296   2.329   2.131 -0.9143  0.0715 -0.4302
14748SOL     OW62235   1.619   0.869   5.863 -0.5921 -0.2408  0.2398
14748SOL    HW162236   1.526   0.878   5.841 -1.2483 -0.6953  2.5343
14748SOL    HW262237   1.642   0.782   5.830 -1.5978 -1.0116  1.4531
14749SOL     OW62238   5.057   3.505  10.182 -0.0074  0.2585 -0.4820
14749SOL    HW162239   5.056   3.506  10.277 -2.0729  0.6314 -0.4599
14749SOL    HW262240   5.150   3.502  10.159  0.5159 -1.6920  1.5294
14750SOL     OW62241   2.459   6.696  10.504 -0.3826 -0.1901  0.1358
14750SOL    HW162242   2.548   6.662  10.503  0.1179  1.0582 -1.2632
14750SOL    HW262243   2.407   6.630  10.459  0.3448  0.2760 -1.4471
14751SOL     OW62244  12.847   1.571   4.365  0.1859  0.4937 -0.2339
14751SOL    HW162245  12.777   1.559   4.429  1.8573  3.3247  2.3694
14751SOL    HW262246  12.815   1.641   4.307 -0.0854  0.0721 -0.6019
14752SOL     OW62247  13.543  13.605  10.703 -0.2696 -0.3609  0.4800
14752SOL    HW162248  13.617  13.591  10.762  0.6993  0.8561 -0.3926
14752SOL    HW262249  13.535  13.522  10.655 -0.3932 -0.9915  1.5623
14753SOL     OW62250   8.309   3.246   4.803  0.3505  0.1403 -0.3020
14753SOL    HW162251   8.237   3.228   4.864 -0.6848  0.5598 -1.3513
14753SOL    HW262252   8.388   3.242   4.857 -0.4671 -0.1546  0.9261
14754SOL     OW62253   0.090   0.052  10.929 -0.6114 -0.4824 -0.2010
14754SOL    HW162254   0.163   0.035  10.870  1.2745  0.7651  1.6207
14754SOL    HW262255   0.088   0.148  10.937 -2.4078 -0.4964 -0.1045
14755SOL     OW62256   9.709   0.741   6.121 -0.2336  0.0743 -0.2312
14755SOL    HW162257   9.779   0.765   6.060  1.2433 -0.0469  1.3471
14755SOL    HW262258   9.666   0.666   6.080  1.4549 -0.7266 -0.6222
14756SOL     OW62259   0.224   4.142   6.287 -0.4526 -0.4340 -0.1412
14756SOL    HW162260   0.259   4.178   6.369  1.6995  1.2916 -1.7046
14756SOL    HW262261   0.130   4.134   6.303 -0.0169 -0.8537  2.7110
14757SOL     OW62262   2.980  12.717   6.793  0.2680 -0.1410 -0.2536
14757SOL    HW162263   3.071  12.707   6.821  0.3130  0.9744  0.0421
14757SOL    HW262264   2.972  12.809   6.769 -0.6279 -0.3622 -0.8710
14758SOL     OW62265   4.228  12.135   2.429  0.4453  0.8124 -0.1266
14758SOL    HW162266   4.230  12.228   2.452 -1.2775  0.7632  0.3712
14758SOL    HW262267   4.231  12.133   2.333 -0.7089  1.4767 -0.2018
14759SOL     OW62268   2.659  11.033  11.866  0.2800  0.1455 -0.5735
14759SOL    HW162269   2.632  10.991  11.947  0.1074  1.8350  0.2753
14759SOL    HW262270   2.577  11.058  11.823  0.3947  1.0275 -0.2950
14760SOL     OW62271   7.312  10.344  12.151 -0.2568  0.2495 -0.0638
14760SOL    HW162272   7.302  10.274  12.086 -1.5085  0.5532 -0.2304
14760SOL    HW262273   7.249  10.321  12.219  0.4041  0.4200  0.6215
14761SOL     OW62274   0.817  13.478   4.280 -0.3324  0.3719 -0.7143
14761SOL    HW162275   0.735  13.527   4.284 -0.0125  0.8636  1.5494
14761SOL    HW262276   0.794  13.395   4.238 -2.0252  0.4536 -0.0293
14762SOL     OW62277  10.057   5.942   9.992  0.4324 -0.0391 -0.0043
14762SOL    HW162278  10.074   5.849  10.005  0.6982  0.2056  1.5933
14762SOL    HW262279   9.962   5.947   9.979  0.2889 -0.4658  0.7907
14763SOL     OW62280   3.649  12.790  12.605 -0.1274  0.0661  0.5100
14763SOL    HW162281   3.669  12.872  12.559 -1.3654 -0.1304 -0.4304
14763SOL    HW262282   3.560  12.802  12.637  0.1227 -0.4588  1.4180
14764SOL     OW62283   6.981  12.199   2.833  0.0509  0.5263 -0.0966
14764SOL    HW162284   7.061  12.238   2.870 -2.1326  2.5941  2.9496
14764SOL    HW262285   6.983  12.108   2.864  0.0758  1.2427  2.2169
14765SOL     OW62286   1.624   1.813   2.043  0.3210 -0.3558 -0.8677
14765SOL    HW162287   1.696   1.865   2.006  0.1352  0.6236  0.0888
14765SOL    HW262288   1.548   1.837   1.991  0.0248  1.1431  0.2071
14766SOL     OW62289  11.550   4.066   3.367 -0.2899  0.3561  0.1748
14766SOL    HW162290  11.521   4.147   3.409  0.0289 -0.4236  1.9952
14766SOL    HW262291  11.510   4.068   3.280  0.0893  2.6735 -0.0158
14767SOL     OW62292   5.060  11.624   8.388 -0.1289 -0.2951  0.2293
14767SOL    HW162293   4.983  11.645   8.335  0.7616  0.5744 -0.7755
14767SOL    HW262294   5.081  11.706   8.433 -0.3671 -0.8023  1.2848
14768SOL     OW62295   3.374  13.045  10.543  0.1590  0.3179 -0.5892
14768SOL    HW162296   3.454  13.034  10.596  0.1617 -1.4013 -0.8734
14768SOL    HW262297   3.303  13.045  10.607  0.2711 -0.0168 -0.4626
14769SOL     OW62298  13.332  12.568   5.327 -0.0470  0.4095 -0.2381
14769SOL    HW162299  13.392  12.580   5.253 -0.1594  0.1015 -0.3795
14769SOL    HW262300  13.381  12.600   5.402  1.2077 -1.9439  0.0235
14770SOL     OW62301  13.615   7.133   4.806 -0.0658 -0.1031  0.0031
14770SOL    HW162302  13.696   7.088   4.829  0.3801  0.0043 -1.3034
14770SOL    HW262303  13.577   7.081   4.735 -1.6352 -0.6734  1.1838
14771SOL     OW62304   4.161  13.320  10.695 -0.1145 -0.3312  0.7651
14771SOL    HW162305   4.175  13.323  10.601 -1.6711 -0.7320  0.4979
14771SOL    HW262306   4.248  13.303  10.732  0.1767 -2.4519 -0.7292
14772SOL     OW62307   9.232   2.895   5.450 -0.1235 -0.6581 -0.1682
14772SOL    HW162308   9.180   2.814   5.451 -0.5704 -0.4093  2.2547
14772SOL    HW262309   9.168   2.965   5.456  0.3743 -0.3171  2.0160
14773SOL     OW62310  13.636   5.449  13.246  0.2861  0.2507 -0.2888
14773SOL    HW162311  13.590   5.407  13.173  1.0459  1.0483 -1.2747
14773SOL    HW262312  13.713   5.489  13.205  1.6072 -0.6153  1.2118
14774SOL     OW62313  13.182   2.279   3.287 -0.4509  0.1790 -0.0983
14774SOL    HW162314  13.178   2.367   3.324  0.0910 -0.0735  0.5825
14774SOL    HW262315  13.229   2.228   3.353  2.6648  0.2161 -2.0661
14775SOL     OW62316   1.417   4.893  12.955 -0.1106  0.4326  0.5385
14775SOL    HW162317   1.339   4.861  13.000 -0.7391  1.4924  0.2413
14775SOL    HW262318   1.420   4.987  12.974 -0.4331  0.9474 -1.6105
14776SOL     OW62319   0.273  12.866   6.368 -0.0725  0.3584  0.0849
14776SOL    HW162320   0.195  12.922   6.376  0.2077  0.5238  2.3639
14776SOL    HW262321   0.343  12.926   6.344  0.0238  0.8782  1.5364
14777SOL     OW62322   1.766   4.307   0.613 -0.3468 -0.8881 -0.0274
14777SOL    HW162323   1.677   4.276   0.599 -0.6945 -0.2883  0.8233
14777SOL    HW262324   1.767   4.339   0.703  0.2080  0.8633 -0.6200
14778SOL     OW62325  10.017   1.652   1.929 -0.1301 -0.7369 -0.1243
14778SOL    HW162326  10.112   1.659   1.925  0.0076 -2.5043 -1.5615
14778SOL    HW262327   9.995   1.670   2.021  1.3916  1.2371 -0.0873
14779SOL     OW62328   8.196   0.471   0.803  0.6151  0.5380 -0.3853
14779SOL    HW162329   8.152   0.427   0.875  0.3854  1.8191  0.2878
14779SOL    HW262330   8.189   0.564   0.824  1.8682  0.8652 -1.2935
14780SOL     OW62331   2.569   9.414  11.759  0.7020  0.3461  0.2355
14780SOL    HW162332   2.535   9.329  11.733  1.7167  0.1215 -0.4022
14780SOL    HW262333   2.560   9.468  11.680 -1.0039  1.1975  0.9563
14781SOL     OW62334  11.567   0.911  12.827 -0.0263  0.4108  0.0178
14781SOL    HW162335  11.542   0.820  12.842  0.4649  0.3819  0.6883
14781SOL    HW262336  11.590   0.944  12.913  1.7789  0.5689 -0.4834
14782SOL     OW62337   0.903   8.910   1.500  0.3805 -0.3909 -0.4287
14782SOL    HW162338   0.815   8.872   1.507  0.5711 -1.1882 -1.8334
14782SOL    HW262339   0.896   8.972   1.427  0.5245  0.9768  0.6953
14783SOL     OW62340  12.954  10.753   9.656  0.0219 -0.4025  0.3303
14783SOL    HW162341  12.994  10.698   9.589  0.5088  0.5864 -0.2237
14783SOL    HW262342  13.021  10.764   9.723 -0.1972 -0.7668  0.6106
14784SOL     OW62343  13.390  13.847  11.284 -0.3246  0.1693 -0.3091
14784SOL    HW162344  13.468  13.856  11.338  0.0019  0.8386 -0.8755
14784SOL    HW262345  13.338  13.925  11.304 -0.9315 -0.3560  0.1898
14785SOL     OW62346   1.381  11.189   7.575 -0.1028  0.2777 -0.2048
14785SOL    HW162347   1.430  11.189   7.493 -0.8049 -1.8040 -0.6671
14785SOL    HW262348   1.417  11.264   7.623  2.2834 -0.0879 -1.2420
14786SOL     OW62349   1.593   8.601  11.450  0.4108  0.0098  0.2458
14786SOL    HW162350   1.605   8.515  11.491  1.0925  0.6717  1.4877
14786SOL    HW262351   1.500   8.620  11.460  0.6258  0.3280  1.8842
14787SOL     OW62352   1.573   9.804   7.171 -0.2394  0.0672  0.4766
14787SOL    HW162353   1.514   9.862   7.220  0.1352  0.5627  0.3480
14787SOL    HW262354   1.594   9.734   7.234 -1.1794 -0.2755  0.4314
14788SOL     OW62355  13.554   3.492  12.879  0.1914 -0.0443 -0.4385
14788SOL    HW162356  13.465   3.525  12.881 -0.1323 -0.8994  0.4946
14788SOL    HW262357  13.562   3.447  12.794  0.2309  1.2645 -1.1515
14789SOL     OW62358   4.702   1.340   3.530 -0.4490  0.3280  0.5187
14789SOL    HW162359   4.716   1.366   3.439 -1.6495 -0.4283  0.0907
14789SOL    HW262360   4.744   1.254   3.537  1.2963  1.1990  1.2261
14790SOL     OW62361  12.854   0.125   1.760 -0.3895  0.2556 -0.1016
14790SOL    HW162362  12.919   0.148   1.826  1.1934 -2.1603 -0.6589
14790SOL    HW262363  12.795   0.065   1.804 -1.5536  1.4760  0.0547
14791SOL     OW62364  10.411   4.481  12.145 -0.7604 -0.7177  0.5458
14791SOL    HW162365  10.355   4.407  12.124 -0.9835 -0.5359  0.5000
14791SOL    HW262366  10.463   4.451  12.220 -0.9740 -0.8563  0.6376
14792SOL     OW62367   3.672  11.514   7.903  0.4759  0.2340 -0.1153
14792SOL    HW162368   3.632  11.510   7.816  0.6390 -0.2749 -0.1710
14792SOL    HW262369   3.756  11.470   7.893 -0.7164 -2.4843  0.9404
14793SOL     OW62370   8.570   6.207   8.979 -0.0569 -0.0431  0.1262
14793SOL    HW162371   8.644   6.201   8.918  0.8514  0.1419  1.1882
14793SOL    HW262372   8.594   6.277   9.040 -0.7421 -0.5252  0.9716
14794SOL     OW62373  11.581  13.023   6.690 -0.1639  0.6135  0.4375
14794SOL    HW162374  11.617  12.970   6.761 -0.5101  0.8951  0.8226
14794SOL    HW262375  11.520  12.963   6.645 -4.6504  1.9763  3.9711
14795SOL     OW62376  11.533   2.322   8.340 -0.0748 -0.2746 -0.5810
14795SOL    HW162377  11.606   2.261   8.344  0.5949  0.5415 -0.1785
14795SOL    HW262378  11.489   2.301   8.258  0.3531 -1.0524 -0.6226
14796SOL     OW62379   5.985   6.993   4.594  0.2444  0.7310 -0.2982
14796SOL    HW162380   6.011   7.030   4.510  1.0458 -0.7796 -0.7497
14796SOL    HW262381   5.927   6.920   4.571 -0.1357  0.7683  0.4999
14797SOL     OW62382  10.020   9.839   8.058 -0.2461  0.0864 -0.0944
14797SOL    HW162383   9.985   9.852   7.970 -0.7345  0.9391  0.2059
14797SOL    HW262384   9.962   9.890   8.114  1.1193  1.0626  0.4929
14798SOL     OW62385  13.577   8.490   8.204 -0.4007  0.3300  0.4178
14798SOL    HW162386  13.667   8.466   8.185 -0.4747  0.9453 -0.8213
14798SOL    HW262387  13.530   8.470   8.123 -0.6622  3.5897 -0.3490
14799SOL     OW62388  12.449  12.363  10.239  0.0094  0.3600  0.3502
14799SOL    HW162389  12.374  12.376  10.181  0.4519  0.4827 -0.2103
14799SOL    HW262390  12.417  12.385  10.326 -0.9779 -0.8862  0.3266
14800SOL     OW62391   6.507   4.206   9.073 -0.2525 -0.2630  0.6083
14800SOL    HW162392   6.522   4.148   8.999 -0.0508  0.3756  0.1436
14800SOL    HW262393   6.427   4.172   9.113 -0.6869 -0.2837 -0.2401
14801SOL     OW62394   5.356   8.510   5.124 -0.6494 -0.6349  0.1795
14801SOL    HW162395   5.449   8.521   5.104 -0.7918  1.9524  0.6212
14801SOL    HW262396   5.350   8.520   5.219 -1.3793 -0.9987  0.1872
14802SOL     OW62397   6.051   5.178   6.528  0.3304  0.0446  0.3513
14802SOL    HW162398   5.991   5.246   6.560 -0.4704  0.2936 -1.5311
14802SOL    HW262399   5.999   5.098   6.525  0.1880  0.1579 -0.8400
14803SOL     OW62400  11.192   8.730   8.991 -0.2395 -0.0233  0.0976
14803SOL    HW162401  11.122   8.789   9.020 -1.0988  0.8253 -3.2085
14803SOL    HW262402  11.263   8.788   8.964  0.2588 -0.6993 -0.0781
14804SOL     OW62403   2.544  12.665   8.997  0.2553 -0.1648  0.6446
14804SOL    HW162404   2.568  12.572   8.996 -0.8918 -0.4908 -1.3903
14804SOL    HW262405   2.593  12.703   8.924  1.2124  1.0259  1.8479
14805SOL     OW62406   7.415   5.298   9.801 -0.2042 -0.0066 -0.1137
14805SOL    HW162407   7.375   5.213   9.817  1.0493 -0.4106  1.1009
14805SOL    HW262408   7.508   5.285   9.820  0.1622  1.4195 -0.7602
14806SOL     OW62409  10.113  13.893   7.065 -0.1884  0.0687  0.0078
14806SOL    HW162410  10.161  13.861   6.989  0.6719  1.9685 -0.3248
14806SOL    HW262411  10.035  13.837   7.071  2.1600 -3.4555  0.8341
14807SOL     OW62412   5.269   9.988   3.835 -0.1101  0.4269 -0.6846
14807SOL    HW162413   5.238   9.999   3.924 -1.4491  0.6110 -1.1477
14807SOL    HW262414   5.328   9.913   3.838 -2.7835 -1.8216 -0.2233
14808SOL     OW62415  11.733   1.595   8.642 -0.1161 -1.0444 -0.3033
14808SOL    HW162416  11.663   1.554   8.591 -1.3073  0.1955  0.2620
14808SOL    HW262417  11.765   1.525   8.699 -0.1028 -1.9309 -1.3515
14809SOL     OW62418  12.647  10.241   4.091 -0.3183 -0.1918 -0.1525
14809SOL    HW162419  12.665  10.154   4.055 -0.7863  0.0018 -0.8852
14809SOL    HW262420  12.553  10.253   4.079 -0.0835  0.8839 -1.1725
14810SOL     OW62421  13.896   4.111   9.766 -0.4780  0.4811  0.3100
14810SOL    HW162422  13.907   4.172   9.839 -1.6518  1.1487 -0.0432
14810SOL    HW262423  13.983   4.074   9.753  0.0283  1.2817  1.2308
14811SOL     OW62424   0.389   5.782   9.025 -0.3490  0.1856 -0.0549
14811SOL    HW162425   0.359   5.705   9.073 -0.4063  1.1110  1.4740
14811SOL    HW262426   0.317   5.844   9.032 -0.1233  0.5586 -0.8841
14812SOL     OW62427  12.765   0.278   2.441 -0.5672  0.1080 -0.1847
14812SOL    HW162428  12.675   0.297   2.469  0.1020  1.3546  1.2423
14812SOL    HW262429  12.818   0.293   2.519  0.9136 -0.4444 -1.0533
14813SOL     OW62430  10.542   5.255   8.848  0.4660  0.1004 -0.1359
14813SOL    HW162431  10.539   5.198   8.772  0.0747  0.7429 -0.6115
14813SOL    HW262432  10.598   5.209   8.911  1.2213 -0.1802 -1.0068
14814SOL     OW62433   9.581   6.527  13.164 -0.3422 -0.0767 -0.1066
14814SOL    HW162434   9.670   6.560  13.178 -0.3604  0.2225 -0.6699
14814SOL    HW262435   9.524   6.594  13.203 -0.2986 -1.0498  1.7641
14815SOL     OW62436   7.246  14.140   0.143  0.1518 -0.2454 -0.7725
14815SOL    HW162437   7.157  14.162   0.116 -0.3104 -0.3193  0.5710
14815SOL    HW262438   7.243  14.046   0.160  0.5466 -0.2897 -0.9505
14816SOL     OW62439  12.005   6.992   6.981  0.9173  0.1271  0.1678
14816SOL    HW162440  12.031   6.904   7.011  0.9314 -0.2036 -0.7706
14816SOL    HW262441  12.087   7.034   6.956  0.7923 -0.1052 -0.6822
14817SOL     OW62442   7.300   5.287   5.115 -0.6988 -0.2314  0.2720
14817SOL    HW162443   7.355   5.295   5.193  1.8925 -0.3088 -1.4271
14817SOL    HW262444   7.270   5.376   5.098  0.4774  0.1726  0.2076
14818SOL     OW62445   0.628   1.453  13.182 -0.2742 -0.0762  0.3230
14818SOL    HW162446   0.535   1.439  13.199 -0.8650  0.8403 -1.7435
14818SOL    HW262447   0.666   1.366  13.185 -1.1801 -0.4554  1.2945
14819SOL     OW62448   7.317   1.125   7.388  0.3295  0.6750  0.1530
14819SOL    HW162449   7.320   1.032   7.365  0.0609  0.7832 -0.3221
14819SOL    HW262450   7.389   1.136   7.451  1.3929  0.4756 -0.9962
14820SOL     OW62451   9.103   6.808   7.074 -0.4080  0.7482 -0.3108
14820SOL    HW162452   9.065   6.732   7.119  1.8800 -0.3354 -0.0964
14820SOL    HW262453   9.122   6.870   7.145 -0.0921  0.5330 -0.2067
14821SOL     OW62454   3.036   8.145  11.141  0.4866  0.0772  0.2046
14821SOL    HW162455   2.971   8.079  11.167  0.6753 -0.8500 -1.5279
14821SOL    HW262456   3.114   8.122  11.191  0.6146 -1.1807 -0.5342
14822SOL     OW62457  12.641   3.246  12.782  0.4362  0.6155  0.7150
14822SOL    HW162458  12.598   3.161  12.786  0.8692  0.3171 -0.5684
14822SOL    HW262459  12.628   3.276  12.692  1.3689  1.3245  0.7985
14823SOL     OW62460  12.665  12.385   4.493  0.0256  0.2607 -0.4558
14823SOL    HW162461  12.698  12.298   4.473  1.0827  0.3722  0.7045
14823SOL    HW262462  12.721  12.444   4.443 -0.8752  0.2881 -1.4734
14824SOL     OW62463   1.636   7.954   1.499  0.5392  0.0216  0.8651
14824SOL    HW162464   1.565   7.890   1.492  0.8301 -0.2895  0.6937
14824SOL    HW262465   1.654   7.959   1.593 -0.2320  0.6906  0.9858
14825SOL     OW62466  13.014   5.929  11.318 -0.2659  0.5454  0.0612
14825SOL    HW162467  12.984   6.008  11.364 -0.4119  0.3835  0.2442
14825SOL    HW262468  13.098   5.954  11.279  0.7966  0.1355  1.9600
14826SOL     OW62469   7.218   7.303   5.473  0.1212 -0.0715 -0.0665
14826SOL    HW162470   7.189   7.329   5.560  0.4353  1.0527 -0.2870
14826SOL    HW262471   7.244   7.385   5.430  0.9297 -0.7244 -0.8632
14827SOL     OW62472   5.335  13.075  12.209 -0.2297 -0.5095 -0.1917
14827SOL    HW162473   5.312  13.121  12.128 -1.9659 -0.7166  0.1546
14827SOL    HW262474   5.346  12.984  12.182 -0.9185 -0.5979 -0.1889
14828SOL     OW62475   3.819   3.403   5.680 -0.0962 -0.8683  0.0535
14828SOL    HW162476   3.859   3.490   5.673  0.0632 -1.0555 -3.8230
14828SOL    HW262477   3.741   3.416   5.732  0.7459  1.2562  0.9022
14829SOL     OW62478   6.688  13.535  13.086 -0.2218 -0.1933  0.3251
14829SOL    HW162479   6.722  13.445  13.090 -0.4079 -0.3296 -0.7578
14829SOL    HW262480   6.766  13.590  13.090  0.1528 -0.4961 -1.6872
14830SOL     OW62481  11.092   3.231  11.995  0.2930  0.1512 -0.0071
14830SOL    HW162482  11.071   3.142  11.969  0.7716 -0.2601  0.9670
14830SOL    HW262483  11.142   3.267  11.922 -1.1302  0.1244 -1.0362
14831SOL     OW62484   1.038   5.345   3.134 -0.0868 -0.7763  0.1553
14831SOL    HW162485   0.998   5.269   3.178 -0.3693 -0.9340 -0.3654
14831SOL    HW262486   1.118   5.310   3.096  0.1812 -0.6291  0.5785
14832SOL     OW62487  12.133  10.159   2.855  0.1799 -0.3526  0.2410
14832SOL    HW162488  12.038  10.172   2.861  0.1235 -0.8977  0.5840
14832SOL    HW262489  12.155  10.108   2.932  1.1035  1.6284  1.3566
14833SOL     OW62490  11.357  13.408   5.853  0.1813  0.1505 -0.5229
14833SOL    HW162491  11.422  13.359   5.803  0.8079  1.2570 -0.8141
14833SOL    HW262492  11.273  13.377   5.819  0.5046 -1.7220  0.2676
14834SOL     OW62493  13.459   5.890   2.605  0.0852  0.1810 -0.0116
14834SOL    HW162494  13.550   5.866   2.588  0.3449  0.6553  0.6785
14834SOL    HW262495  13.429   5.826   2.669  0.2730  0.6592  0.5718
14835SOL     OW62496   6.438   4.805   4.880  0.1881 -0.4212 -0.3744
14835SOL    HW162497   6.366   4.799   4.944 -0.9382 -0.2555 -1.5954
14835SOL    HW262498   6.396   4.836   4.800  1.5205 -0.9497 -1.3000
14836SOL     OW62499   9.558   2.634   8.858  0.0053 -0.0036  1.1287
14836SOL    HW162500   9.476   2.610   8.901 -0.2054  0.9275  1.2840
14836SOL    HW262501   9.531   2.674   8.776  0.2915  0.3627  1.2077
14837SOL     OW62502   1.508  14.080  12.886  0.2001  0.7470  0.3250
14837SOL    HW162503   1.493  14.165  12.843  2.4359  0.7609 -0.5727
14837SOL    HW262504   1.571  14.099  12.955  1.9991 -0.4052 -0.9408
14838SOL     OW62505   0.096   1.761   8.882 -0.2461  0.3587  0.3550
14838SOL    HW162506   0.117   1.782   8.973 -0.5825  0.1042  0.4931
14838SOL    HW262507   0.019   1.705   8.888 -0.1271  0.1466 -0.0755
14839SOL     OW62508  13.371   8.170   4.607  0.1767 -0.0948  0.0092
14839SOL    HW162509  13.399   8.195   4.695  0.7810  0.6274 -0.3806
14839SOL    HW262510  13.398   8.242   4.552  0.1512 -0.7235 -0.8414
14840SOL     OW62511  11.269   1.132   8.783  0.7806  0.3992  0.0497
14840SOL    HW162512  11.194   1.087   8.744  0.0458  1.6429 -0.0223
14840SOL    HW262513  11.344   1.080   8.756 -0.0737 -1.1324  0.4946
14841SOL     OW62514   6.730   2.528  11.812 -0.0624 -0.3536  0.1014
14841SOL    HW162515   6.803   2.542  11.872 -0.2784  0.1039  0.2643
14841SOL    HW262516   6.771   2.506  11.729  0.2467 -3.4885  0.9363
14842SOL     OW62517   1.680   1.301   1.689 -0.4692  0.3583  0.2587
14842SOL    HW162518   1.593   1.293   1.649 -0.1873  0.3271 -0.3502
14842SOL    HW262519   1.702   1.211   1.714  0.0341  0.1241 -0.9698
14843SOL     OW62520   2.578  10.082   2.965  0.6811 -0.2960  0.0713
14843SOL    HW162521   2.517  10.109   2.896 -0.7085 -2.4894  0.3446
14843SOL    HW262522   2.646  10.149   2.964 -0.6086  1.1001 -1.7094
14844SOL     OW62523   9.747   3.675   6.324 -0.0524 -0.9366 -0.0684
14844SOL    HW162524   9.747   3.587   6.287  3.1030 -0.4308 -1.6583
14844SOL    HW262525   9.752   3.733   6.247 -0.8558  0.5961  0.9821
14845SOL     OW62526  13.205   5.209   1.935 -0.1828 -0.3304  0.3833
14845SOL    HW162527  13.288   5.166   1.915  0.5543  0.7210  1.0509
14845SOL    HW262528  13.161   5.219   1.850  1.4623  1.2337 -0.3575
14846SOL     OW62529  10.791  11.076   8.026 -0.0142  0.3651 -0.5690
14846SOL    HW162530  10.731  11.139   7.985  0.5110  1.7273  0.6531
14846SOL    HW262531  10.789  11.098   8.119  1.1946 -0.5836 -0.2899
14847SOL     OW62532  10.734   8.619   6.318 -0.1552 -0.2478 -0.5276
14847SOL    HW162533  10.682   8.553   6.363 -0.3633 -1.1495 -2.0133
14847SOL    HW262534  10.823   8.585   6.319  0.1640  0.5925  0.7400
14848SOL     OW62535   9.198  10.473   2.889  0.5414 -0.4114  0.1896
14848SOL    HW162536   9.282  10.508   2.916  0.2967  1.9106 -1.8182
14848SOL    HW262537   9.150  10.461   2.971  1.0771  3.0084  1.1594
14849SOL     OW62538  11.554   7.339   4.172 -0.0672  0.1586 -0.4085
14849SOL    HW162539  11.637   7.307   4.135 -0.8183  0.7916 -2.8542
14849SOL    HW262540  11.577   7.425   4.209  0.8332 -0.7505  1.2707
14850SOL     OW62541   0.082   9.432   7.727 -0.9675 -0.2600 -0.5841
14850SOL    HW162542   0.091   9.512   7.676 -1.2282  1.5896  2.0287
14850SOL    HW262543  -0.007   9.436   7.762 -1.0227 -1.7651 -0.4868
14851SOL     OW62544   1.836   2.232   0.673  0.0732  0.6327  0.5295
14851SOL    HW162545   1.742   2.220   0.661  0.1506  1.6537 -1.4534
14851SOL    HW262546   1.872   2.143   0.672 -0.7207  0.3113 -0.2949
14852SOL     OW62547   0.772   2.986   6.320  0.0210  0.1316  0.4297
14852SOL    HW162548   0.824   3.058   6.285  0.9877 -0.6039  0.2777
14852SOL    HW262549   0.833   2.912   6.322 -1.3102 -1.0437 -0.7216
14853SOL     OW62550   5.037   3.624   8.060  0.2893 -0.2414 -0.1815
14853SOL    HW162551   5.042   3.529   8.046  0.0323 -0.5596  1.5977
14853SOL    HW262552   5.098   3.661   7.997  0.6022 -1.6148 -0.7185
14854SOL     OW62553   7.041   9.795  10.915 -0.1835  0.4443  0.0661
14854SOL    HW162554   6.986   9.868  10.945 -0.1393  0.4658  0.0951
14854SOL    HW262555   6.981   9.720  10.911 -0.2252  0.4785  0.0524
14855SOL     OW62556   2.887   1.768  13.375  0.1124  0.0349 -0.6444
14855SOL    HW162557   2.960   1.798  13.430  0.2705 -2.4548  0.6658
14855SOL    HW262558   2.916   1.784  13.286  1.0573  1.6378 -0.0905
14856SOL     OW62559  13.790   2.772  10.269 -0.6223  0.0511  0.3923
14856SOL    HW162560  13.853   2.701  10.259 -1.1436 -0.7240  2.2272
14856SOL    HW262561  13.742   2.772  10.186 -0.1417 -1.2803  0.0797
14857SOL     OW62562   9.931   8.531   9.121 -0.3207  0.2624 -0.3071
14857SOL    HW162563  10.016   8.575   9.127 -0.2809  0.1409  0.0617
14857SOL    HW262564   9.948   8.452   9.071 -0.1634  0.1151 -0.0240
14858SOL     OW62565   9.385   4.067   3.574 -0.2724  0.1260  0.2475
14858SOL    HW162566   9.480   4.064   3.566  0.1447  0.9331  3.5844
14858SOL    HW262567   9.363   4.160   3.562 -0.4249  0.1901  0.9673
14859SOL     OW62568   9.757   0.066  10.155 -0.2010 -0.1142 -0.1051
14859SOL    HW162569   9.742  -0.020  10.114 -2.6185  0.7501 -1.2303
14859SOL    HW262570   9.670   0.096  10.180  0.6629  1.7956  0.7752
14860SOL     OW62571   0.301  11.913   1.733 -0.0155  0.1926 -0.6413
14860SOL    HW162572   0.343  11.930   1.817 -0.1340  0.8540 -0.7067
14860SOL    HW262573   0.247  11.991   1.717  0.1940  0.1849 -1.4406
14861SOL     OW62574   6.321   4.490   4.604 -0.4662  0.5501  0.3773
14861SOL    HW162575   6.248   4.519   4.549 -0.6989  0.5036  0.6581
14861SOL    HW262576   6.290   4.409   4.644 -0.1589  0.3913  0.2906
14862SOL     OW62577   9.359   4.851  13.302  0.2977  0.2003 -0.0835
14862SOL    HW162578   9.452   4.831  13.306 -0.0255 -1.5516 -0.3380
14862SOL    HW262579   9.329   4.844  13.393  0.2026 -0.4000 -0.1601
14863SOL     OW62580   8.019  13.487   5.548 -0.1043 -0.6501 -0.0439
14863SOL    HW162581   8.070  13.556   5.592 -0.0202 -1.3531  1.0062
14863SOL    HW262582   7.970  13.533   5.480  1.4338  0.1532 -0.6615
14864SOL     OW62583   8.794   9.802   9.575 -0.3198 -0.0621 -0.0042
14864SOL    HW162584   8.796   9.739   9.646  2.2262  0.3849  0.4247
14864SOL    HW262585   8.886   9.815   9.552 -0.7300  3.1306 -0.3576
14865SOL     OW62586   9.007   7.305   1.626  0.0660  0.1521  0.1129
14865SOL    HW162587   8.953   7.364   1.574  1.7209  0.8263 -0.9177
14865SOL    HW262588   8.995   7.335   1.717  0.3541  1.6728 -0.3160
14866SOL     OW62589  11.345  11.684  13.738 -0.0841  0.7127 -0.2822
14866SOL    HW162590  11.273  11.746  13.749 -1.5374 -1.2477  2.6909
14866SOL    HW262591  11.309  11.613  13.686  0.4435  0.7285 -0.6808
14867SOL     OW62592   7.840   3.402  11.129 -0.0668 -0.0355  0.1292
14867SOL    HW162593   7.822   3.489  11.165 -1.8933 -0.7041  0.8959
14867SOL    HW262594   7.923   3.376  11.169  0.3128  1.1813  0.1708
14868SOL     OW62595   3.026   6.004  11.342 -0.3294  0.0539  0.0750
14868SOL    HW162596   3.114   5.979  11.370  0.0565  0.8661 -0.3711
14868SOL    HW262597   3.034   6.021  11.249 -0.8915  0.4327  0.0889
14869SOL     OW62598  13.052   9.819  12.581 -0.0928  0.6274 -0.5069
14869SOL    HW162599  13.124   9.854  12.633  0.0894  2.2922 -1.7928
14869SOL    HW262600  12.973   9.846  12.627  0.0747  1.5142 -0.7309
14870SOL     OW62601   1.086   9.170   7.222 -0.5798  0.5467  0.2982
14870SOL    HW162602   1.028   9.228   7.271 -0.7498  0.3574  0.3233
14870SOL    HW262603   1.044   9.084   7.227  0.3165  0.1532  1.3177
14871SOL     OW62604  11.086   9.173  13.601 -0.8071 -0.8168 -0.3783
14871SOL    HW162605  11.057   9.166  13.510  0.3567 -0.2120 -0.8096
14871SOL    HW262606  11.009   9.206  13.648 -0.7703  1.0565 -1.5414
14872SOL     OW62607   8.873   7.590   1.012  0.0306  0.2017 -0.2545
14872SOL    HW162608   8.820   7.611   1.089 -0.9044  0.1120 -0.8489
14872SOL    HW262609   8.814   7.539   0.956  0.2553  1.3342 -1.5871
14873SOL     OW62610  10.742  13.548   4.889  0.1722 -0.1118  0.1522
14873SOL    HW162611  10.778  13.633   4.913 -0.8010  0.0088  1.2798
14873SOL    HW262612  10.727  13.554   4.794 -1.0910  1.4732  0.3947
14874SOL     OW62613   4.148  10.202   2.677  0.1484 -0.8669  0.1289
14874SOL    HW162614   4.075  10.234   2.731  0.1838  0.1212 -0.3903
14874SOL    HW262615   4.168  10.116   2.713 -0.7802 -0.8330  0.7662
14875SOL     OW62616   6.615   1.214   0.034  0.7208  0.3384  0.3222
14875SOL    HW162617   6.657   1.161  -0.034  3.5355 -0.2842  2.3583
14875SOL    HW262618   6.557   1.153   0.078  2.5769 -0.6999  1.4840
14876SOL     OW62619   4.715  13.118   2.854 -0.3152  0.5205  0.0246
14876SOL    HW162620   4.682  13.083   2.937  1.7601 -2.5898 -0.2858
14876SOL    HW262621   4.656  13.083   2.788  0.0072  0.0840 -0.0413
14877SOL     OW62622  11.698   9.111  10.307 -0.4474  0.6287 -0.1861
14877SOL    HW162623  11.709   9.047  10.379 -1.2115  2.0729  1.2727
14877SOL    HW262624  11.652   9.062  10.239 -0.9323 -0.4253  0.8507
14878SOL     OW62625   9.913  13.613   7.692  0.4173 -0.2347 -0.2455
14878SOL    HW162626   9.980  13.545   7.685  0.3507 -0.2918 -0.3379
14878SOL    HW262627   9.870  13.613   7.607 -0.0285 -0.5453 -0.0306
14879SOL     OW62628   2.217   4.302   7.769 -0.2527  0.0203  0.7562
14879SOL    HW162629   2.252   4.221   7.806 -0.6390 -0.4262  0.1487
14879SOL    HW262630   2.148   4.274   7.710  0.0670  0.7532  0.0213
14880SOL     OW62631   7.972   6.725   6.830 -0.0039 -0.0799 -0.3768
14880SOL    HW162632   7.902   6.747   6.769 -0.4108 -0.8204 -0.1988
14880SOL    HW262633   7.927   6.715   6.915  0.5612  0.9998  0.0593
14881SOL     OW62634   5.307   8.043  11.056  0.5064  0.3422 -0.2093
14881SOL    HW162635   5.394   8.005  11.065  0.6101  0.2314 -1.5413
14881SOL    HW262636   5.248   7.968  11.048  0.1348  0.3854  1.6681
14882SOL     OW62637   5.520   8.608   6.339 -0.1085 -0.5725  0.2407
14882SOL    HW162638   5.493   8.580   6.426 -0.5994 -1.1914 -0.1039
14882SOL    HW262639   5.589   8.546   6.314 -0.5129 -0.8784 -0.1244
14883SOL     OW62640   6.868   4.179  11.475 -0.2298  0.3743 -0.7295
14883SOL    HW162641   6.919   4.242  11.525  0.4826  1.4186 -2.6467
14883SOL    HW262642   6.910   4.095  11.490 -0.2075  0.6061  0.5952
14884SOL     OW62643  13.974   6.126   1.016 -0.0529  0.1562 -0.0365
14884SOL    HW162644  13.956   6.189   0.947  1.3013  0.5837 -0.0325
14884SOL    HW262645  14.043   6.070   0.980 -0.0330 -0.2461  0.6016
14885SOL     OW62646   2.031   6.941   2.456  0.2210 -0.3050 -0.7958
14885SOL    HW162647   2.009   6.997   2.531  0.3643  0.3853 -1.2596
14885SOL    HW262648   2.118   6.971   2.430  0.9385 -1.7307 -0.1551
14886SOL     OW62649   2.048  13.942   1.825 -0.5289 -0.2221 -0.2198
14886SOL    HW162650   2.091  13.903   1.902 -0.1133 -1.5945 -1.1008
14886SOL    HW262651   2.025  13.866   1.771 -0.4723  0.7413 -1.6208
14887SOL     OW62652   7.481   8.742   2.521 -0.4618  0.0124  0.0960
14887SOL    HW162653   7.551   8.678   2.508 -0.3383  0.0766  0.4526
14887SOL    HW262654   7.526   8.825   2.536 -0.6104  0.4912 -1.8147
14888SOL     OW62655  13.831  11.745   6.776 -0.0159 -0.1061  0.5018
14888SOL    HW162656  13.796  11.693   6.704 -0.0865  0.8828 -0.1830
14888SOL    HW262657  13.755  11.763   6.832 -0.2364  0.3675  0.0521
14889SOL     OW62658   3.354  10.880   7.066  0.3729 -0.0251 -0.3618
14889SOL    HW162659   3.285  10.888   7.132  1.2557  0.0964  0.5781
14889SOL    HW262660   3.395  10.966   7.065  0.4519 -0.0696 -0.9827
14890SOL     OW62661   5.750   2.869   5.613  0.2424 -0.3173 -0.2187
14890SOL    HW162662   5.707   2.934   5.668  0.9811  0.1281 -0.1587
14890SOL    HW262663   5.691   2.794   5.614 -1.2028  0.7334 -1.2036
14891SOL     OW62664   5.997  12.000   0.668 -0.3362 -0.3986 -0.5745
14891SOL    HW162665   5.985  11.961   0.755  0.8502  0.6683  0.1182
14891SOL    HW262666   5.933  11.957   0.612  0.0395 -2.3688  0.4315
14892SOL     OW62667   5.233   8.280   7.119  0.0628 -0.2519  0.3941
14892SOL    HW162668   5.264   8.194   7.148 -0.1563 -0.3717  0.2757
14892SOL    HW262669   5.295   8.342   7.157  1.4680 -0.5738 -1.2484
14893SOL     OW62670   6.254   5.736   4.328 -0.2976 -0.2923  0.5936
14893SOL    HW162671   6.255   5.831   4.312  0.0003 -0.4545 -0.4195
14893SOL    HW262672   6.343   5.708   4.307 -0.7590 -1.0030 -0.4848
14894SOL     OW62673   9.996   1.304   0.794  0.3957  0.1436 -0.3185
14894SOL    HW162674  10.084   1.298   0.831  0.5398  0.2841 -0.6349
14894SOL    HW262675   9.949   1.363   0.853  0.9073  1.1429 -0.8840
14895SOL     OW62676   9.506   7.370  14.027 -0.3451  0.8507  0.5717
14895SOL    HW162677   9.429   7.320  13.999  0.3817  1.6232 -3.3753
14895SOL    HW262678   9.558   7.307  14.078 -1.4644 -1.1059 -0.5907
14896SOL     OW62679   2.762  13.946   4.554 -0.3658 -0.4002 -0.5674
14896SOL    HW162680   2.776  13.872   4.495  1.8305 -0.4434 -0.0824
14896SOL    HW262681   2.775  13.911   4.641 -1.2489  0.1731 -0.1851
14897SOL     OW62682   2.089  13.507  10.406  0.0169  0.2613 -0.0460
14897SOL    HW162683   2.124  13.467  10.327  0.4813 -0.3937  0.4812
14897SOL    HW262684   2.003  13.539  10.380  0.4496  0.6791 -0.9945
14898SOL     OW62685  12.383  11.968   8.680  0.2480 -0.7542  0.2943
14898SOL    HW162686  12.412  11.877   8.684 -0.0767 -0.8436  0.7245
14898SOL    HW262687  12.334  11.981   8.761  1.0083  0.0530  0.6364
14899SOL     OW62688   1.101   0.141   6.859 -0.3739 -0.6732  0.1969
14899SOL    HW162689   1.155   0.075   6.815  0.3004 -0.1489  0.2247
14899SOL    HW262690   1.164   0.204   6.894 -1.0552  0.6063 -0.8218
14900SOL     OW62691   7.422   4.990   2.847 -0.0151 -0.3522  0.2248
14900SOL    HW162692   7.475   4.924   2.802  0.9096 -0.6155  1.6438
14900SOL    HW262693   7.341   4.945   2.868  0.9657 -1.3710  2.0024
14901SOL     OW62694  13.638   0.315   6.388  0.0898  0.6067 -0.5542
14901SOL    HW162695  13.622   0.296   6.480  2.9654  3.1695  0.6927
14901SOL    HW262696  13.703   0.250   6.361 -0.1963  0.3170 -0.5492
14902SOL     OW62697  11.001   9.784  10.905 -0.2867  0.1788  0.9895
14902SOL    HW162698  10.932   9.720  10.922  0.6046 -0.6908  1.4187
14902SOL    HW262699  11.018   9.823  10.991  1.0186 -0.9283  1.2603
14903SOL     OW62700  12.371   3.033   6.409 -0.4979  0.4993 -0.2248
14903SOL    HW162701  12.371   2.939   6.391  0.4942  0.5118 -0.3597
14903SOL    HW262702  12.287   3.049   6.451 -0.9267 -0.3462 -0.7171
14904SOL     OW62703  10.897   9.562   1.225 -0.1744  0.3023  0.5488
14904SOL    HW162704  10.801   9.568   1.228 -0.2061  0.5712 -0.5386
14904SOL    HW262705  10.925   9.650   1.199  0.2811 -0.1103 -0.4012
14905SOL     OW62706  10.329   2.613  12.880 -0.0233 -0.2880 -0.1235
14905SOL    HW162707  10.402   2.561  12.845 -0.5655 -0.7385 -0.6123
14905SOL    HW262708  10.280   2.639  12.802 -1.0320 -0.9645  0.2700
14906SOL     OW62709   4.690   8.795   1.792 -0.3076 -0.3991  0.0987
14906SOL    HW162710   4.655   8.709   1.767  0.1789 -0.0488 -1.9416
14906SOL    HW262711   4.780   8.777   1.817 -0.3737 -0.5509  0.2371
14907SOL     OW62712   9.325  11.999   3.046 -0.5926  0.5148  0.1329
14907SOL    HW162713   9.276  12.082   3.043  1.8975  2.0804  0.2887
14907SOL    HW262714   9.338  11.976   2.954  0.2932  1.3083  0.0519
14908SOL     OW62715  14.051  13.928  11.337 -0.0105 -0.4327 -0.0033
14908SOL    HW162716  14.056  13.950  11.431  1.2890 -0.8173  0.0370
14908SOL    HW262717  13.990  13.992  11.301 -0.4453 -0.2083  1.0883
14909SOL     OW62718   2.819   7.305   2.797  0.3072 -0.4563 -0.0336
14909SOL    HW162719   2.886   7.350   2.849 -0.0122 -1.6469  1.5038
14909SOL    HW262720   2.810   7.220   2.839 -1.5073 -0.6725 -0.7656
14910SOL     OW62721  11.413   0.370   0.456 -0.8665 -0.5457  0.5567
14910SOL    HW162722  11.503   0.383   0.486 -0.8866 -0.9778  0.8142
14910SOL    HW262723  11.360   0.372   0.535 -1.0341 -0.7083  0.4501
14911SOL     OW62724  10.017  11.360   8.404 -0.0681 -0.1781  0.1726
14911SOL    HW162725  10.067  11.387   8.482  2.1296 -2.3932 -0.3379
14911SOL    HW262726  10.063  11.400   8.331 -1.5304  1.0591 -0.1277
14912SOL     OW62727  13.617  14.051   6.954  0.0299  0.2954 -0.5052
14912SOL    HW162728  13.540  14.095   6.917  0.4723  2.1354  0.6263
14912SOL    HW262729  13.604  14.057   7.049  0.7478 -0.9182 -0.3166
14913SOL     OW62730   9.676   6.468   0.308  0.2786  0.6371 -0.5960
14913SOL    HW162731   9.723   6.489   0.388  2.3723  1.1465 -1.8800
14913SOL    HW262732   9.596   6.425   0.337  0.6200  1.4725  1.7683
14914SOL     OW62733   2.204   1.121   8.770 -0.9185 -0.2842  0.3905
14914SOL    HW162734   2.240   1.053   8.828  0.1598  0.2368  0.3642
14914SOL    HW262735   2.122   1.084   8.738 -1.0035 -1.0220  1.4126
14915SOL     OW62736  14.012   6.022   0.369  0.0336 -0.2195 -0.5310
14915SOL    HW162737  13.992   6.025   0.275  1.2572 -1.1372 -0.8531
14915SOL    HW262738  14.099   5.982   0.373 -0.8116 -2.0273  1.1017
14916SOL     OW62739   8.163  11.325   5.412 -0.1193  0.1594  0.1163
14916SOL    HW162740   8.127  11.401   5.366 -0.6838  0.6571  1.3441
14916SOL    HW262741   8.257  11.331   5.399 -0.2307  0.5733 -0.5312
14917SOL     OW62742   0.644   4.236  10.620  0.2694  0.0869  0.3628
14917SOL    HW162743   0.646   4.188  10.702  0.5737 -1.3755 -0.4725
14917SOL    HW262744   0.650   4.169  10.552 -2.1901  1.0402 -0.9494
14918SOL     OW62745   6.282   6.204   3.868  0.4435 -0.1783 -1.3119
14918SOL    HW162746   6.297   6.188   3.962 -0.0114  0.0336 -1.2023
14918SOL    HW262747   6.298   6.297   3.857 -2.6924  0.5474 -0.7818
14919SOL     OW62748   0.363  11.530  10.449  0.0281  0.7207 -0.7007
14919SOL    HW162749   0.377  11.621  10.423  0.5155  1.0981  0.7508
14919SOL    HW262750   0.325  11.536  10.537  1.2506 -0.4627 -0.0468
14920SOL     OW62751   9.791   4.153   4.254 -0.5099  0.5724 -0.6746
14920SOL    HW162752   9.714   4.155   4.310 -0.3541  0.2753 -0.4484
14920SOL    HW262753   9.821   4.244   4.252 -0.2663  0.5169  0.0802
14921SOL     OW62754   6.623   7.954   8.556  0.4252 -0.4429  0.0790
14921SOL    HW162755   6.691   7.973   8.492  0.4250  0.3205  0.2972
14921SOL    HW262756   6.620   8.032   8.612 -0.2408 -0.7002  0.4137
14922SOL     OW62757  11.883   3.797   7.422  0.6291 -0.2654 -0.0774
14922SOL    HW162758  11.807   3.767   7.471 -0.3838  1.5587 -0.4395
14922SOL    HW262759  11.958   3.768   7.474 -0.3260 -1.2038  0.8230
14923SOL     OW62760   3.912  12.824   0.389  0.0234  0.1664  0.2306
14923SOL    HW162761   4.006  12.833   0.371 -0.1092 -1.3956 -1.4552
14923SOL    HW262762   3.909  12.782   0.475  0.8787 -0.3121  0.0384
14924SOL     OW62763   6.904   8.272   3.152 -0.0181  0.4923 -0.1310
14924SOL    HW162764   6.835   8.243   3.212  0.1240 -2.1823 -1.1613
14924SOL    HW262765   6.981   8.223   3.179  0.0512 -0.8099 -2.4357
14925SOL     OW62766  13.378   1.826   4.430 -0.1167 -0.4152 -0.3574
14925SOL    HW162767  13.341   1.741   4.407  0.7982 -0.8057 -0.4671
14925SOL    HW262768  13.369   1.878   4.350  0.3754 -0.8073 -0.6830
14926SOL     OW62769  11.396   4.556   3.333  0.0566  0.1773 -0.3364
14926SOL    HW162770  11.457   4.488   3.305  1.1215  0.4405  1.2098
14926SOL    HW262771  11.321   4.508   3.370 -0.8558 -0.1495 -2.4849
14927SOL     OW62772   6.082  12.674   2.402  0.0678  0.2589 -0.4961
14927SOL    HW162773   6.104  12.739   2.336  2.0192  0.7706  0.5822
14927SOL    HW262774   6.081  12.723   2.484  0.9004 -0.9347  0.2558
14928SOL     OW62775   0.600   1.107   6.535  0.4865 -0.5247 -0.0001
14928SOL    HW162776   0.584   1.099   6.629 -1.5935 -0.6428 -0.3043
14928SOL    HW262777   0.661   1.036   6.515 -1.5228 -2.5937  0.7671
14929SOL     OW62778  11.499   0.067   4.681 -0.4222 -0.4879 -0.1421
14929SOL    HW162779  11.567   0.127   4.651  0.6334 -1.7573 -0.4000
14929SOL    HW262780  11.503  -0.006   4.619 -0.4942 -1.6159  1.1427
14930SOL     OW62781   6.999  12.751   5.580 -0.0981  0.1804 -0.5733
14930SOL    HW162782   7.080  12.713   5.548  0.2683 -0.7363  1.3184
14930SOL    HW262783   6.938  12.678   5.585 -0.9912  0.8074 -1.6976
14931SOL     OW62784   3.372  11.449  12.000  0.7595  0.0475  0.7909
14931SOL    HW162785   3.366  11.530  12.050  0.8826  1.4004 -1.2576
14931SOL    HW262786   3.282  11.432  11.972  0.8105 -0.2558  0.8097
14932SOL     OW62787   9.460   5.286   2.331  0.1787 -0.3296 -0.1489
14932SOL    HW162788   9.458   5.262   2.423 -1.8111  1.7212  0.4176
14932SOL    HW262789   9.431   5.207   2.285  0.1901 -1.0588  1.0545
14933SOL     OW62790  11.922  12.510   9.959  0.2706 -0.2896  0.0166
14933SOL    HW162791  11.990  12.527   9.894 -1.2635  0.4448 -1.4524
14933SOL    HW262792  11.910  12.415   9.957  0.6230 -0.3290 -0.3302
14934SOL     OW62793   0.455   2.100  13.193 -0.2284  0.1124 -0.1444
14934SOL    HW162794   0.541   2.067  13.166 -1.8363 -1.8873 -3.6133
14934SOL    HW262795   0.464   2.195  13.191  1.9052 -0.0351 -0.3358
14935SOL     OW62796   0.825   6.739   7.905 -0.4725 -0.3576  0.4531
14935SOL    HW162797   0.890   6.672   7.926 -1.7248 -0.9233  2.9103
14935SOL    HW262798   0.753   6.690   7.864 -1.2134 -0.5169  1.8769
14936SOL     OW62799   0.309   4.929  11.549  0.0588 -0.1271 -0.5764
14936SOL    HW162800   0.339   4.839  11.559 -2.1006 -0.9546 -1.0969
14936SOL    HW262801   0.279   4.954  11.636 -2.3689 -1.1133 -1.0691
14937SOL     OW62802   2.948   4.517  11.106  0.3392 -0.1656  0.2632
14937SOL    HW162803   3.001   4.441  11.132 -0.0159 -0.9734 -1.2283
14937SOL    HW262804   2.932   4.503  11.013 -1.6337  0.5874  0.4568
14938SOL     OW62805   7.993   9.061   6.763 -0.2618  0.6041 -0.0409
14938SOL    HW162806   7.919   9.019   6.807  0.6013 -0.0457  0.8459
14938SOL    HW262807   8.070   9.029   6.810  0.7431 -0.1918 -2.0957
14939SOL     OW62808  12.656  11.060  12.964 -0.2251  0.5442  0.2149
14939SOL    HW162809  12.732  11.037  13.017 -0.5425 -0.4498  0.2575
14939SOL    HW262810  12.581  11.048  13.022 -0.5706 -0.4679 -0.4109
14940SOL     OW62811   4.500   7.044  10.407  0.8773  0.5331  0.0925
14940SOL    HW162812   4.538   7.099  10.338  0.0155  0.4002 -0.5062
14940SOL    HW262813   4.573   6.992  10.439  1.0313 -0.4823 -1.7774
14941SOL     OW62814   4.900   6.453  10.153  0.2335 -0.3950  0.1134
14941SOL    HW162815   4.851   6.528  10.119  0.6752 -0.6478 -1.1458
14941SOL    HW262816   4.917   6.474  10.244 -1.8924 -0.1318  0.4910
14942SOL     OW62817   0.516   2.753   5.928 -0.3457  0.1173  0.0793
14942SOL    HW162818   0.470   2.821   5.977 -0.0952 -0.2775  0.8834
14942SOL    HW262819   0.446   2.699   5.889 -0.6112 -0.8497  1.8051
14943SOL     OW62820  13.745   9.650   2.551  0.2593 -0.2691  0.3169
14943SOL    HW162821  13.679   9.686   2.610 -0.2556 -0.5028 -0.0981
14943SOL    HW262822  13.826   9.652   2.600  0.0265  0.4568  0.6757
14944SOL     OW62823  10.672  13.295   1.678  0.3252  1.0218  0.4366
14944SOL    HW162824  10.740  13.355   1.650 -0.1056  1.3063 -0.0144
14944SOL    HW262825  10.710  13.208   1.667  0.4419  1.1577 -0.3072
14945SOL     OW62826   0.685   6.092  11.965  0.1028  0.2948 -0.2554
14945SOL    HW162827   0.698   6.174  12.012  0.2303  0.8325 -1.2038
14945SOL    HW262828   0.675   6.026  12.034  1.1780  0.9122  0.5292
14946SOL     OW62829   4.162   8.089   4.571  0.3330 -0.8067  0.4864
14946SOL    HW162830   4.199   8.116   4.487 -0.9481  1.2314  0.5389
14946SOL    HW262831   4.076   8.054   4.550  0.1246 -0.5667  0.9283
14947SOL     OW62832   7.356  13.554   3.912 -0.3081 -0.0587 -0.2228
14947SOL    HW162833   7.387  13.468   3.941 -0.9147  0.3634  1.8530
14947SOL    HW262834   7.267  13.559   3.946 -1.0396  0.5902 -2.1196
14948SOL     OW62835   9.533   0.182  13.843  0.3900  0.1603  0.0718
14948SOL    HW162836   9.559   0.215  13.757  2.8207  0.9618  1.0402
14948SOL    HW262837   9.576   0.098  13.851  1.8859  0.9940  1.2650
14949SOL     OW62838   1.268   9.340  12.262  0.2948  0.4567  0.2495
14949SOL    HW162839   1.261   9.248  12.238  1.3023  0.3784  0.2412
14949SOL    HW262840   1.345   9.345  12.318 -1.3728  0.8121  2.6435
14950SOL     OW62841   3.180   9.640   2.939 -0.0276  0.0938  0.0855
14950SOL    HW162842   3.212   9.662   3.027 -1.1649  2.8137 -0.0671
14950SOL    HW262843   3.247   9.674   2.880  0.1032 -0.5420 -0.1427
14951SOL     OW62844   7.368   2.642  12.693  0.0769  0.1731 -0.3040
14951SOL    HW162845   7.328   2.698  12.759  0.5922  0.6372 -0.3752
14951SOL    HW262846   7.330   2.556  12.708  1.3991 -0.1224  1.6841
14952SOL     OW62847   4.985   5.370  12.455  0.0734 -0.6455 -0.2185
14952SOL    HW162848   4.905   5.367  12.508 -0.8417  1.7118 -1.3341
14952SOL    HW262849   5.056   5.368  12.519 -0.9856  1.6925  1.1757
14953SOL     OW62850  13.486   4.415   6.070 -0.2326  0.3198  0.3678
14953SOL    HW162851  13.532   4.468   6.136 -0.9962  0.7926  0.5337
14953SOL    HW262852  13.489   4.326   6.105 -0.5574  0.5539  1.0156
14954SOL     OW62853   5.059   0.337   1.387 -0.1264  0.1470  0.3278
14954SOL    HW162854   4.988   0.349   1.324  0.5863  1.4263 -0.2533
14954SOL    HW262855   5.078   0.424   1.420 -0.6168 -0.5119  2.5147
14955SOL     OW62856   0.347   4.666   1.417 -0.1769  0.0472 -0.2824
14955SOL    HW162857   0.364   4.575   1.440 -0.7935 -0.0877 -0.3570
14955SOL    HW262858   0.259   4.683   1.451  1.3201  1.7757  3.2859
14956SOL     OW62859   6.690   0.766  11.520 -0.0413  0.0684  0.1424
14956SOL    HW162860   6.595   0.775  11.514  0.1499  1.8769 -0.8794
14956SOL    HW262861   6.724   0.820  11.449  1.7643 -0.3341  0.6499
14957SOL     OW62862   1.635   0.998   1.084 -0.3660  0.3091 -0.0037
14957SOL    HW162863   1.621   1.089   1.058 -1.8739 -0.4346 -2.0187
14957SOL    HW262864   1.731   0.988   1.085 -0.1956  1.4368 -1.5561
14958SOL     OW62865   2.601   7.286   3.631 -0.1293  0.1452  0.1901
14958SOL    HW162866   2.646   7.363   3.665 -2.1916  3.1543 -3.1367
14958SOL    HW262867   2.528   7.272   3.691  0.6131  0.3552  1.1631
14959SOL     OW62868  10.206   0.606   4.830  0.8250  0.0300  0.2368
14959SOL    HW162869  10.259   0.666   4.883 -1.6613  1.5025  1.2314
14959SOL    HW262870  10.125   0.654   4.813 -0.9395 -2.7177  0.3111
14960SOL     OW62871   7.349  13.564   7.572  0.4499 -0.3572  0.3947
14960SOL    HW162872   7.337  13.539   7.480 -1.4568 -0.4258  0.6205
14960SOL    HW262873   7.371  13.482   7.616 -0.7894 -0.7304  0.3357
14961SOL     OW62874  13.200  14.024   7.087 -0.1701  0.4696  0.3776
14961SOL    HW162875  13.149  13.999   7.010  0.2429 -0.7684  0.4785
14961SOL    HW262876  13.202  14.120   7.085 -1.4577  0.5037 -0.2948
14962SOL     OW62877  13.319   1.241   9.245  0.1919  0.1798 -0.3960
14962SOL    HW162878  13.310   1.194   9.162 -0.3212  1.1662 -0.9167
14962SOL    HW262879  13.245   1.210   9.298 -1.3391  1.8181 -1.4660
14963SOL     OW62880   1.937   4.163   0.035 -0.1092 -0.4299  0.2083
14963SOL    HW162881   1.903   4.154   0.124 -2.0346  0.2711 -0.3852
14963SOL    HW262882   1.974   4.251   0.033  1.4501 -1.0495  0.7485
14964SOL     OW62883   6.680   5.368  13.624  0.5202  0.5296  0.4385
14964SOL    HW162884   6.729   5.291  13.651  0.5640  0.3948 -0.0217
14964SOL    HW262885   6.592   5.354  13.661  0.8926  0.9010  1.4858
14965SOL     OW62886   8.098   1.822   0.173 -0.2217  0.6523 -0.0815
14965SOL    HW162887   8.119   1.789   0.260  0.7343  1.3956 -0.0191
14965SOL    HW262888   8.021   1.877   0.187 -1.1219 -0.5761 -0.0026
14966SOL     OW62889   5.949  11.641   3.938 -0.1343 -0.1366  0.1102
14966SOL    HW162890   5.974  11.723   3.982 -1.3293 -0.5428  1.6152
14966SOL    HW262891   5.969  11.573   4.002 -0.1033 -0.9428 -0.7460
14967SOL     OW62892   0.690  13.640   7.307 -0.4318 -0.1964  0.4295
14967SOL    HW162893   0.766  13.677   7.352 -1.3480  0.0096  1.8908
14967SOL    HW262894   0.646  13.589   7.375 -0.3171 -2.3217 -1.0043
14968SOL     OW62895   1.859   4.721  10.042  0.0367  0.5268 -0.6639
14968SOL    HW162896   1.870   4.814  10.020  0.5788  0.9472  1.1706
14968SOL    HW262897   1.766   4.712  10.062 -0.3016  0.3171 -2.2163
14969SOL     OW62898   1.582  13.511  12.840 -0.2649  0.3020 -0.2582
14969SOL    HW162899   1.613  13.601  12.827 -0.7346  0.7938  1.7147
14969SOL    HW262900   1.527  13.494  12.764 -1.0316  2.0912 -0.1641
14970SOL     OW62901   6.639  13.816   3.054  0.3160 -0.1985  0.0421
14970SOL    HW162902   6.664  13.895   3.007 -1.1648 -1.3347 -2.8784
14970SOL    HW262903   6.707  13.752   3.032 -0.8965 -1.0219 -1.4599
14971SOL     OW62904   1.724  11.676   3.471 -0.8788 -0.4291 -0.1282
14971SOL    HW162905   1.775  11.638   3.399 -3.5028  0.3674 -2.6114
14971SOL    HW262906   1.635  11.644   3.457 -1.6459  0.3190  2.4315
14972SOL     OW62907   2.499   9.226  11.167 -0.1295 -0.0113  0.6264
14972SOL    HW162908   2.457   9.196  11.086 -1.0602 -3.7077  2.2934
14972SOL    HW262909   2.591   9.236  11.143 -0.0430 -2.7957 -0.6032
14973SOL     OW62910   6.360   4.295  11.681  0.0554  0.2547  0.1282
14973SOL    HW162911   6.440   4.247  11.701  0.4541  0.9452  0.2049
14973SOL    HW262912   6.289   4.238  11.712  0.4536 -0.8742 -0.9440
14974SOL     OW62913   9.317  11.812   3.230  0.3336 -0.0186  0.0997
14974SOL    HW162914   9.314  11.872   3.156 -3.0509 -0.1638 -0.0560
14974SOL    HW262915   9.344  11.866   3.305 -0.9380  1.3227 -0.3637
14975SOL     OW62916   8.286   3.453   2.250  0.5223 -0.1814  0.1780
14975SOL    HW162917   8.377   3.480   2.234  0.8444 -1.8979 -1.1653
14975SOL    HW262918   8.293   3.373   2.302 -0.1395 -1.0136 -0.9608
14976SOL     OW62919  13.231   8.355   3.455 -0.0138 -0.1544  0.3309
14976SOL    HW162920  13.205   8.419   3.388 -1.0967 -0.7190  0.1826
14976SOL    HW262921  13.325   8.347   3.444  0.1251  1.2486  0.2007
14977SOL     OW62922  12.531  11.984   2.583 -0.1783  0.2732  0.1868
14977SOL    HW162923  12.566  11.940   2.661  0.9786 -0.6211 -0.7861
14977SOL    HW262924  12.521  12.075   2.609 -0.6443 -0.1634  1.6376
14978SOL     OW62925   3.335   4.543  12.266  0.4545  0.2501 -0.3010
14978SOL    HW162926   3.272   4.610  12.242  0.1309  0.7756  1.8058
14978SOL    HW262927   3.285   4.478  12.316  0.9927 -0.9675 -1.2927
14979SOL     OW62928  13.529   4.281   1.309  0.2305 -0.2453 -0.1651
14979SOL    HW162929  13.595   4.261   1.375  0.0443 -0.9783 -0.1945
14979SOL    HW262930  13.577   4.277   1.226  0.2215 -0.4533 -0.1609
14980SOL     OW62931   2.447  12.800   9.548  0.5074 -0.4943  0.0673
14980SOL    HW162932   2.428  12.722   9.497  0.0893 -0.9292  0.8639
14980SOL    HW262933   2.497  12.856   9.489 -0.7301 -0.5846 -1.1222
14981SOL     OW62934   0.305   7.642   2.694 -0.7012 -0.1601  0.1408
14981SOL    HW162935   0.393   7.645   2.655 -0.8182 -0.4755 -0.1483
14981SOL    HW262936   0.275   7.553   2.678 -0.6694 -0.3598  1.1529
14982SOL     OW62937   5.776  13.224   2.254 -0.1398  0.8031 -0.5748
14982SOL    HW162938   5.840  13.286   2.221 -0.0587  0.2498 -1.4980
14982SOL    HW262939   5.747  13.176   2.177  0.6642 -1.1034  0.2366
14983SOL     OW62940   3.472   3.580  11.192 -0.2087 -0.5384 -0.0807
14983SOL    HW162941   3.497   3.538  11.273  0.6053 -1.4307 -0.7760
14983SOL    HW262942   3.551   3.625  11.162 -1.1500  1.9332  0.8568
14984SOL     OW62943   9.904   7.821   3.583  0.2008 -0.0225 -0.2331
14984SOL    HW162944   9.999   7.816   3.594  0.2693  0.6166 -0.4986
14984SOL    HW262945   9.883   7.913   3.600 -0.5681 -0.4561  1.3369
14985SOL     OW62946   3.766  12.637   3.049  0.2605  0.5408  0.1708
14985SOL    HW162947   3.796  12.546   3.056  1.4648  0.7763 -1.3691
14985SOL    HW262948   3.692  12.643   3.110 -0.5363 -1.7598 -0.4585
14986SOL     OW62949  13.632  12.770   3.360  0.4511  0.1934 -0.3685
14986SOL    HW162950  13.605  12.803   3.445 -0.3395  1.5121 -1.0919
14986SOL    HW262951  13.724  12.796   3.351  0.3123  0.7502 -0.2291
14987SOL     OW62952   7.401   6.184   2.136 -0.2034  0.8082 -0.7817
14987SOL    HW162953   7.390   6.091   2.153  0.1681  0.8003 -0.5654
14987SOL    HW262954   7.363   6.227   2.213 -1.5302  0.8816 -1.4564
14988SOL     OW62955   9.668   6.550  14.013  0.0873 -0.3378 -0.1937
14988SOL    HW162956   9.618   6.550  14.095 -0.1142 -2.8434 -0.2443
14988SOL    HW262957   9.751   6.508  14.035  0.2781 -0.4772 -1.1365
14989SOL     OW62958   0.604   0.620   9.682  0.2459  0.6266  0.3494
14989SOL    HW162959   0.696   0.617   9.657  0.3089 -0.1459  0.6636
14989SOL    HW262960   0.557   0.637   9.600  0.5731 -0.2687 -0.0387
14990SOL     OW62961  11.309   0.342   9.206  0.3250 -0.6608  0.1526
14990SOL    HW162962  11.257   0.359   9.284 -0.3199 -3.8608  0.5445
14990SOL    HW262963  11.399   0.363   9.232 -0.1760  0.6386  0.9163
14991SOL     OW62964   9.970  13.629   3.484  0.0199  0.1519  0.1295
14991SOL    HW162965  10.040  13.569   3.511  0.2076 -0.1857 -1.0505
14991SOL    HW262966  10.010  13.716   3.491  1.1496 -0.1016 -1.9846
14992SOL     OW62967   2.698   4.367  11.532  0.3962  0.5662 -0.2879
14992SOL    HW162968   2.641   4.422  11.586  0.0046  0.0076 -0.1211
14992SOL    HW262969   2.781   4.364  11.579  0.4270  1.0371 -0.3115
14993SOL     OW62970  10.867   8.644  11.376 -0.2862 -0.2485  0.5142
14993SOL    HW162971  10.794   8.669  11.431  0.5505 -1.7122  2.4287
14993SOL    HW262972  10.905   8.726  11.347 -2.2470  0.5377  0.0205
14994SOL     OW62973   6.195   5.939  12.529 -0.6427 -0.0245  0.5318
14994SOL    HW162974   6.180   5.845  12.518 -1.6271  0.0146  1.3801
14994SOL    HW262975   6.216   5.949  12.622 -1.1834  0.6651  0.5867
14995SOL     OW62976   9.773   3.130  11.844 -0.0544  0.5785 -0.1227
14995SOL    HW162977   9.753   3.037  11.834  0.2876  0.6001 -1.0973
14995SOL    HW262978   9.793   3.160  11.755 -0.2949  1.6143  0.1580
14996SOL     OW62979   2.369   6.807   8.827 -0.2120  0.0378  0.2424
14996SOL    HW162980   2.338   6.879   8.882 -1.1351  1.0420 -1.5067
14996SOL    HW262981   2.433   6.847   8.768 -1.2188 -0.3722 -1.1902
14997SOL     OW62982   7.278   0.474   7.203 -0.1032 -0.4105  0.4408
14997SOL    HW162983   7.186   0.459   7.227 -0.4477 -0.1114 -0.6380
14997SOL    HW262984   7.287   0.569   7.202 -0.1758 -0.3989 -0.8199
14998SOL     OW62985  11.710   9.428   5.766 -0.4673 -0.4353  0.2000
14998SOL    HW162986  11.786   9.374   5.747  0.1661  0.9561 -1.5159
14998SOL    HW262987  11.651   9.415   5.691 -0.5246  0.8230  0.0010
14999SOL     OW62988   2.681  10.290   4.627  0.1862 -0.3542  0.2085
14999SOL    HW162989   2.650  10.260   4.712 -2.2366  0.2913 -0.3721
14999SOL    HW262990   2.681  10.212   4.571 -2.3557 -0.0923 -0.2688
15000SOL     OW62991   5.859   7.672  14.056  0.1683  0.2220 -0.3191
15000SOL    HW162992   5.947   7.636  14.066 -0.0245 -0.9408 -2.3995
15000SOL    HW262993   5.869   7.766  14.072  1.5762 -0.0486  0.4820
15001SOL     OW62994   2.932  13.923   2.713  0.9928  0.1434 -0.2910
15001SOL    HW162995   2.955  14.013   2.737  0.7617 -0.3751  2.1668
15001SOL    HW262996   2.850  13.907   2.759  0.4855 -1.0121 -1.5445
15002SOL     OW62997   3.474   3.061   7.491  0.0666 -0.1239 -0.3012
15002SOL    HW162998   3.402   3.025   7.543  1.3028 -2.8628 -0.3188
15002SOL    HW262999   3.484   3.151   7.524 -2.9394  0.2043  0.0545
15003SOL     OW63000   0.553   8.921   0.694 -0.3622 -0.0978 -0.8752
15003SOL    HW163001   0.460   8.931   0.674 -0.7878 -1.0737  0.4933
15003SOL    HW263002   0.555   8.879   0.780  1.3550  2.6648  0.6042
15004SOL     OW63003  13.450   9.101   0.807 -0.2493 -0.2179  0.2303
15004SOL    HW163004  13.396   9.178   0.787 -1.4256 -0.7218  1.3520
15004SOL    HW263005  13.405   9.058   0.879  1.4886 -0.8732  0.9710
15005SOL     OW63006   8.139  13.716   3.041  0.0913  0.2719 -0.0064
15005SOL    HW163007   8.131  13.632   3.086 -0.8371 -0.0253 -0.6923
15005SOL    HW263008   8.096  13.703   2.957 -0.5680  1.5950  0.0909
15006SOL     OW63009   5.903   9.441  12.162  0.0237 -0.3583  0.7144
15006SOL    HW163010   5.932   9.377  12.227  2.9019 -1.0684 -1.0789
15006SOL    HW263011   5.909   9.394  12.079 -0.2335  1.5112 -0.4058
15007SOL     OW63012   9.121   0.957  13.003 -0.0065 -0.9328 -0.6146
15007SOL    HW163013   9.212   0.934  12.983 -0.2082 -1.5003 -0.9199
15007SOL    HW263014   9.121   0.974  13.097  0.3790 -1.1131 -0.5759
15008SOL     OW63015   4.335   8.619   2.394  0.1402  0.0512 -0.0133
15008SOL    HW163016   4.292   8.658   2.470 -1.7300 -2.0116  0.0597
15008SOL    HW263017   4.414   8.673   2.381 -1.4867  2.8825  0.9550
15009SOL     OW63018   0.883  12.534  10.341  0.2415 -0.4910 -0.6125
15009SOL    HW163019   0.950  12.599  10.361  1.6377 -1.5691 -1.5331
15009SOL    HW263020   0.917  12.452  10.377 -1.7373 -0.6767  1.0338
15010SOL     OW63021   9.769   0.160   8.370  0.4233 -0.4432  0.6184
15010SOL    HW163022   9.823   0.087   8.401  2.7566  0.8129 -0.1820
15010SOL    HW263023   9.764   0.148   8.275 -0.1385 -0.1845  0.6109
15011SOL     OW63024   9.108   0.790   7.663  0.4364  0.3095 -0.1055
15011SOL    HW163025   9.155   0.861   7.620  0.6834 -0.1274 -0.5637
15011SOL    HW263026   9.156   0.711   7.639 -1.0942 -0.2632 -1.4071
15012SOL     OW63027  12.344  14.138   2.432 -0.7411 -0.0069 -0.0002
15012SOL    HW163028  12.385  14.102   2.354  0.0784  0.5046  0.1791
15012SOL    HW263029  12.372  14.080   2.503  1.3215  1.4111  0.4348
15013SOL     OW63030   5.732   4.654  11.818 -0.3412  0.2092  0.4253
15013SOL    HW163031   5.736   4.706  11.898  0.3104  0.2772  0.3484
15013SOL    HW263032   5.693   4.571  11.846 -0.7838  0.4930  0.6714
15014SOL     OW63033   2.991   9.634   2.454  0.5331 -0.0374 -0.2448
15014SOL    HW163034   2.934   9.618   2.530 -2.2297  2.1795 -1.6569
15014SOL    HW263035   3.025   9.723   2.468  1.6058 -0.3630 -0.6832
15015SOL     OW63036  10.310  10.964  11.288  0.4012 -0.5332 -0.9662
15015SOL    HW163037  10.389  10.983  11.239  0.2538  0.7204 -0.7561
15015SOL    HW263038  10.296  11.042  11.342 -0.1237 -1.3643  0.1353
15016SOL     OW63039   1.885   2.768  11.439  0.1098 -0.4003 -0.3143
15016SOL    HW163040   1.922   2.808  11.361 -1.4757 -1.2015 -1.5214
15016SOL    HW263041   1.935   2.687  11.450 -0.2564 -0.7214 -1.0219
15017SOL     OW63042   0.631   9.464   1.611 -0.0984 -0.0958  0.2505
15017SOL    HW163043   0.722   9.481   1.635 -0.3098  0.1282  0.9445
15017SOL    HW263044   0.604   9.392   1.668  0.0394 -1.0797 -0.9036
15018SOL     OW63045   2.844   8.977   1.396  0.2150 -0.0092  0.1363
15018SOL    HW163046   2.851   9.049   1.459  0.7384  0.4454 -0.4255
15018SOL    HW263047   2.913   8.995   1.331 -0.7243 -0.1012 -0.9225
15019SOL     OW63048  11.313   8.232   2.774 -0.2605  0.0232 -0.5826
15019SOL    HW163049  11.227   8.216   2.813 -0.6164  0.4438 -1.1850
15019SOL    HW263050  11.302   8.209   2.682  0.0783  0.7345 -0.8022
15020SOL     OW63051  13.832  13.287  11.055  0.2311 -0.1309  0.0738
15020SOL    HW163052  13.864  13.199  11.076  0.8516  0.3349  1.1294
15020SOL    HW263053  13.752  13.296  11.107  0.5527  0.1934  0.5120
15021SOL     OW63054   9.527   2.632   3.546  0.3510  0.2084  0.3412
15021SOL    HW163055   9.606   2.661   3.592  1.4000 -0.6794 -0.8332
15021SOL    HW263056   9.554   2.553   3.500 -1.6129 -0.9663  1.0540
15022SOL     OW63057   2.270   8.079  12.675  0.0784  0.3628 -0.3769
15022SOL    HW163058   2.260   8.014  12.745 -1.4618 -0.6218 -1.4295
15022SOL    HW263059   2.231   8.159  12.710  3.2208  1.2621  1.4580
15023SOL     OW63060   9.901   5.647   6.465  0.8786 -0.4432 -0.0870
15023SOL    HW163061   9.832   5.687   6.517  0.8604 -0.4197 -0.1289
15023SOL    HW263062   9.982   5.682   6.502  0.8702 -0.5148 -0.0017
15024SOL     OW63063  12.632   9.106   7.189 -0.0345  0.1668 -0.3387
15024SOL    HW163064  12.687   9.120   7.265  0.3341 -0.3898 -0.4964
15024SOL    HW263065  12.583   9.026   7.209  0.3996 -0.2398 -0.8699
15025SOL     OW63066   3.274  11.379   9.738  0.2585 -0.3666  0.0472
15025SOL    HW163067   3.342  11.349   9.678 -1.8223 -0.8767 -2.2416
15025SOL    HW263068   3.219  11.302   9.753 -1.1562  0.5743 -0.1254
15026SOL     OW63069   2.245   0.696  13.282  0.0826 -0.1664 -0.0871
15026SOL    HW163070   2.254   0.640  13.359  0.4784  0.2991  0.2089
15026SOL    HW263071   2.333   0.698  13.243 -0.2782 -1.0015 -0.9810
15027SOL     OW63072  10.547  10.202   8.487 -0.9803  0.1382  0.2163
15027SOL    HW163073  10.471  10.180   8.540 -0.3121 -1.7856  0.4515
15027SOL    HW263074  10.607  10.128   8.498  0.5438  1.1719 -0.6815
15028SOL     OW63075  13.227   2.765   9.990 -0.1322 -0.0622 -1.0021
15028SOL    HW163076  13.269   2.742  10.072 -0.6681 -1.1962 -1.0389
15028SOL    HW263077  13.298   2.769   9.926  0.4654  1.9915 -0.2941
15029SOL     OW63078  13.033   2.686   8.739 -0.2151 -0.5260  0.1037
15029SOL    HW163079  13.049   2.664   8.647 -0.8848 -1.9805  0.3095
15029SOL    HW263080  12.973   2.760   8.736 -2.7150 -2.4616 -0.6895
15030SOL     OW63081   9.714   2.253  13.334 -0.0666 -0.4211 -0.1215
15030SOL    HW163082   9.739   2.195  13.405  0.0640  0.1268  0.2850
15030SOL    HW263083   9.623   2.278  13.353  0.8119  1.9439  1.4170
15031SOL     OW63084   9.228   4.402  11.854  0.0295 -0.2806  0.3800
15031SOL    HW163085   9.206   4.473  11.793 -2.3419 -1.3264 -0.0748
15031SOL    HW263086   9.192   4.323  11.814  0.8845 -1.4621  1.8237
15032SOL     OW63087  10.706  11.433   0.434 -0.3104  0.3637 -0.0543
15032SOL    HW163088  10.770  11.403   0.370 -0.3925  2.6547 -1.2967
15032SOL    HW263089  10.716  11.373   0.508  1.0900 -1.2092 -1.4444
15033SOL     OW63090  11.032   3.614  13.582  0.4594  0.6666  0.4185
15033SOL    HW163091  10.984   3.680  13.631  0.7089  0.1454  1.3761
15033SOL    HW263092  11.026   3.534  13.635  0.6323  0.0560 -0.4458
15034SOL     OW63093  12.519   8.599   9.456 -0.3576 -0.0018  0.5072
15034SOL    HW163094  12.474   8.683   9.468 -1.8078 -0.8968  1.6261
15034SOL    HW263095  12.489   8.567   9.372  0.1820  0.5696  0.0858
15035SOL     OW63096   1.122   1.434   8.762  0.0881 -0.0023  0.1850
15035SOL    HW163097   1.045   1.400   8.715 -2.1995  2.0846  2.1320
15035SOL    HW263098   1.146   1.513   8.714  0.5103 -0.1870  0.0859
15036SOL     OW63099  13.323   4.075  11.455  0.2379 -0.2661  0.2462
15036SOL    HW163100  13.278   4.157  11.437  0.5390 -0.1892 -0.1662
15036SOL    HW263101  13.396   4.073  11.393  0.8002 -0.3901  0.8921
15037SOL     OW63102   9.886   9.984   7.218 -0.4505  0.4452  0.8336
15037SOL    HW163103   9.969   9.970   7.264 -0.2663  1.2952  0.7862
15037SOL    HW263104   9.821   9.935   7.269  0.2147 -0.9697  0.3682
15038SOL     OW63105   1.845   6.198   1.375  0.6848 -0.1366 -0.8861
15038SOL    HW163106   1.758   6.220   1.342  0.4540 -1.3030 -1.0910
15038SOL    HW263107   1.900   6.273   1.351 -0.8633  2.1024  1.9131
15039SOL     OW63108   6.779  12.922   9.931 -0.1557  0.5895  0.2474
15039SOL    HW163109   6.848  12.892   9.872 -0.5637 -1.4121  0.7335
15039SOL    HW263110   6.799  13.014   9.947  2.0329  0.2142 -0.1251
15040SOL     OW63111   3.649   7.494   9.548  0.7326 -0.4339 -0.1467
15040SOL    HW163112   3.634   7.558   9.479  0.6943 -0.9673 -0.6339
15040SOL    HW263113   3.744   7.485   9.553  0.7099 -1.3725 -1.0464
15041SOL     OW63114   2.958   8.948   6.223  0.0518  0.3816  0.5482
15041SOL    HW163115   2.967   8.897   6.304  0.0034  2.1632  1.7183
15041SOL    HW263116   2.867   8.934   6.196 -0.2554  0.6192  1.4151
15042SOL     OW63117  14.070   6.762   2.889 -0.1615  0.6307 -0.3982
15042SOL    HW163118  14.091   6.852   2.911 -1.6775  1.2003 -1.1790
15042SOL    HW263119  13.975   6.756   2.899 -0.0321 -1.0241  0.1377
15043SOL     OW63120   6.025   0.421  14.011  0.4132 -0.3615 -0.4984
15043SOL    HW163121   6.109   0.378  13.999  1.1021  0.8569 -0.1720
15043SOL    HW263122   6.011   0.470  13.930 -0.6839 -1.6494 -1.1495
15044SOL     OW63123   7.371  11.442  11.122  0.3820 -0.0117 -0.0777
15044SOL    HW163124   7.304  11.375  11.111 -0.2127  0.5506  0.0737
15044SOL    HW263125   7.454  11.395  11.113 -0.0246 -0.5011 -1.5466
15045SOL     OW63126  10.249   5.384  11.632  0.5285  0.2787  0.4947
15045SOL    HW163127  10.290   5.361  11.716  0.1316  0.9727  0.8832
15045SOL    HW263128  10.157   5.396  11.652  0.2458 -0.5153 -0.2396
15046SOL     OW63129   7.187   8.941  12.841 -0.1281 -0.3835 -0.4728
15046SOL    HW163130   7.237   8.904  12.769 -1.6716  0.9573 -2.3139
15046SOL    HW263131   7.111   8.884  12.850  0.0722 -0.5664  0.1601
15047SOL     OW63132   9.891   0.061   8.770 -0.3171  0.3932  0.3233
15047SOL    HW163133   9.923   0.150   8.753 -0.3344  0.4709  0.6878
15047SOL    HW263134   9.933   0.007   8.703  1.1369  0.3770  1.1989
15048SOL     OW63135   2.925   4.791   8.624 -0.3263 -0.2392  0.1295
15048SOL    HW163136   2.983   4.822   8.694  1.4620 -2.3496 -0.3100
15048SOL    HW263137   2.972   4.812   8.543 -1.7082  0.8816 -0.4187
15049SOL     OW63138  12.718   2.669   9.566  0.2542 -0.0627 -0.0578
15049SOL    HW163139  12.739   2.688   9.475  1.1082 -0.5557  0.0289
15049SOL    HW263140  12.800   2.680   9.613 -0.2137  0.3471  0.6872
15050SOL     OW63141   9.279   8.924   4.092 -0.0980  0.1941 -0.1859
15050SOL    HW163142   9.310   8.931   4.182  0.5116 -0.0972 -0.3687
15050SOL    HW263143   9.352   8.956   4.039 -0.0483 -0.6084 -0.6257
15051SOL     OW63144   8.998   1.415   8.270  0.7833 -0.0277 -0.0277
15051SOL    HW163145   8.921   1.433   8.216  0.5509  0.4242  0.4408
15051SOL    HW263146   8.973   1.444   8.358  0.7547 -1.7668  0.5746
15052SOL     OW63147  12.127  10.779  12.430 -0.7145 -0.0788  0.5495
15052SOL    HW163148  12.159  10.689  12.441 -1.3923 -0.5024 -0.6885
15052SOL    HW263149  12.149  10.801  12.340 -3.3218 -0.2084 -0.1989
15053SOL     OW63150   8.940   5.502   3.661  0.4702  0.3032 -0.1300
15053SOL    HW163151   8.903   5.507   3.749  1.3283  0.3751  0.2376
15053SOL    HW263152   9.000   5.577   3.655  1.4878 -0.4939 -0.2503
15054SOL     OW63153   1.078   8.906   1.723 -0.3407  0.3194  0.1971
15054SOL    HW163154   1.061   8.896   1.629  0.1518 -0.7330  0.2039
15054SOL    HW263155   1.093   9.000   1.734 -1.6549  0.6451 -0.5448
15055SOL     OW63156   6.828  11.770   3.030  0.0611  0.1857  0.8978
15055SOL    HW163157   6.910  11.765   2.981  0.2554  1.4952  1.0558
15055SOL    HW263158   6.832  11.695   3.090  0.0867 -1.0832 -0.6370
15056SOL     OW63159   0.243  14.139   2.878  0.1578  0.1737  0.2843
15056SOL    HW163160   0.229  14.075   2.809  0.1459  1.1301 -0.6307
15056SOL    HW263161   0.191  14.107   2.952  1.3538 -1.6579  0.3966
15057SOL     OW63162   1.181  13.354   4.901 -0.1848 -0.5505 -0.2691
15057SOL    HW163163   1.112  13.290   4.919  0.6071 -1.1221  0.9327
15057SOL    HW263164   1.182  13.410   4.978  0.8690 -0.7454 -0.1176
15058SOL     OW63165   6.423  11.722  11.517 -0.0538  0.1888  0.0252
15058SOL    HW163166   6.405  11.664  11.443 -0.5746  0.8258 -0.3609
15058SOL    HW263167   6.376  11.682  11.590  2.9485 -2.1830  0.8685
15059SOL     OW63168  10.738   7.188   0.992  0.1636  0.3784  0.6078
15059SOL    HW163169  10.770   7.121   1.052 -0.4293  0.3436  0.8853
15059SOL    HW263170  10.809   7.198   0.928  1.1657  1.0394  1.7998
15060SOL     OW63171  13.752   6.915   8.920 -0.1328  0.0553 -0.2202
15060SOL    HW163172  13.813   6.986   8.941  0.0478  0.0503 -0.7224
15060SOL    HW263173  13.674   6.935   8.972 -0.5502  1.3024 -1.2612
15061SOL     OW63174   5.206  11.353  13.309 -0.1655  0.6840 -0.3172
15061SOL    HW163175   5.160  11.280  13.268 -0.6147  0.9514 -0.3043
15061SOL    HW263176   5.285  11.315  13.346 -0.2385  0.2636 -0.5891
15062SOL     OW63177   8.312   2.070   7.613  0.2137 -0.3661 -0.2218
15062SOL    HW163178   8.366   2.112   7.679 -0.6243 -0.5613  0.6157
15062SOL    HW263179   8.229   2.119   7.615  0.1120 -0.5006 -0.9799
15063SOL     OW63180  13.820   8.234   8.686  0.5914  0.1020  0.3529
15063SOL    HW163181  13.915   8.248   8.690  0.9166 -2.0659  2.0893
15063SOL    HW263182  13.783   8.307   8.736  1.4222  0.3289  0.6561
15064SOL     OW63183   1.518   3.642   1.953 -0.3613  0.0942  0.0576
15064SOL    HW163184   1.550   3.706   2.017 -1.1792 -0.0075  0.5881
15064SOL    HW263185   1.486   3.570   2.006 -1.0687  0.0121 -0.4670
15065SOL     OW63186   7.190  12.056  13.285 -0.0168 -0.0677 -0.2745
15065SOL    HW163187   7.164  12.036  13.375 -2.4286 -1.3396 -1.1501
15065SOL    HW263188   7.172  11.976  13.236  0.8158  0.7227 -1.9780
15066SOL     OW63189   6.820  12.975   0.349 -0.0710 -0.2060  0.3045
15066SOL    HW163190   6.745  12.974   0.409 -0.7875 -0.1985 -0.5617
15066SOL    HW263191   6.862  12.890   0.362 -1.1299 -0.8428 -0.2625
15067SOL     OW63192  13.796  10.159  10.314 -0.3870 -0.4815 -0.0829
15067SOL    HW163193  13.729  10.169  10.246  1.0799 -2.2860 -1.9459
15067SOL    HW263194  13.758  10.096  10.376 -1.1809  0.0612 -0.0070
15068SOL     OW63195   2.826   9.646   3.668 -0.1777  0.7810  0.2804
15068SOL    HW163196   2.840   9.696   3.587  1.9563  1.8734  1.2532
15068SOL    HW263197   2.743   9.678   3.701  0.4303  2.6815  0.1112
15069SOL     OW63198   7.858   3.921   7.400 -0.4930  0.4591  0.7108
15069SOL    HW163199   7.925   3.887   7.341 -1.2776 -0.5361  0.3783
15069SOL    HW263200   7.787   3.858   7.395 -0.6686  0.4422  2.5641
15070SOL     OW63201   6.794  10.987  11.901  0.4738  0.1724 -0.4689
15070SOL    HW163202   6.799  10.930  11.824 -0.3922 -0.5495 -0.0073
15070SOL    HW263203   6.881  11.027  11.907  1.5342 -2.0306 -0.1086
15071SOL     OW63204   8.181   3.196   3.007 -0.2383  0.1128 -0.6594
15071SOL    HW163205   8.221   3.175   2.922  0.0416 -0.3032 -0.4290
15071SOL    HW263206   8.248   3.246   3.053 -0.9776  1.7566 -1.2860
15072SOL     OW63207   6.585  13.432   1.351 -0.0587 -0.4358 -0.3124
15072SOL    HW163208   6.514  13.383   1.308  0.4478 -1.0749 -0.4347
15072SOL    HW263209   6.558  13.524   1.344 -0.5885 -0.6253 -0.8892
15073SOL     OW63210   9.126   5.836   8.852 -0.0428 -0.3407 -0.1194
15073SOL    HW163211   9.121   5.780   8.774 -3.1154 -1.4470  0.7206
15073SOL    HW263212   9.188   5.791   8.910 -0.4206 -1.4518 -0.5469
15074SOL     OW63213   8.219   4.681   4.398 -0.0460 -0.1691  0.3746
15074SOL    HW163214   8.209   4.618   4.327  1.2181 -0.9672  0.8667
15074SOL    HW263215   8.152   4.656   4.462 -1.0462  0.4228 -0.4118
15075SOL     OW63216  11.212   2.905  12.764 -0.4071 -0.3677  0.1221
15075SOL    HW163217  11.132   2.910  12.817 -1.0188 -0.4237 -0.7610
15075SOL    HW263218  11.235   2.997  12.748 -0.1355 -0.3494  0.5961
15076SOL     OW63219   2.626   0.779   3.150 -0.2703 -0.1404 -0.3129
15076SOL    HW163220   2.639   0.829   3.069  0.2874 -1.1534 -0.8638
15076SOL    HW263221   2.654   0.839   3.220  0.7437  0.2066 -0.9859
15077SOL     OW63222  13.391   6.249   6.755  0.4216  0.6771  0.3852
15077SOL    HW163223  13.334   6.306   6.703 -1.0727  1.5702  2.8776
15077SOL    HW263224  13.452   6.309   6.799  2.2273 -0.1371 -0.8585
15078SOL     OW63225   7.145   5.247  13.061  0.2493  0.4202  0.1210
15078SOL    HW163226   7.127   5.154  13.049 -1.8402  0.6561  1.0407
15078SOL    HW263227   7.231   5.260  13.021  0.5574 -1.8755 -0.0871
15079SOL     OW63228  11.017   2.496  13.236  0.0532  0.5702 -0.7388
15079SOL    HW163229  10.963   2.465  13.164 -1.0487  0.5831  0.0637
15079SOL    HW263230  10.956   2.512  13.308  1.2149 -0.3459  0.5238
15080SOL     OW63231  10.839   2.300  12.674 -0.6539  0.1772  0.3867
15080SOL    HW163232  10.747   2.317  12.693 -0.6405  0.0756  0.5415
15080SOL    HW263233  10.887   2.364  12.727 -0.6132 -0.1862  0.7861
15081SOL     OW63234   2.411  11.060   3.145 -0.3186  0.1658  0.2161
15081SOL    HW163235   2.490  11.091   3.099 -0.1799  0.1696  0.4549
15081SOL    HW263236   2.432  11.071   3.238 -0.4686 -0.1566  0.2898
15082SOL     OW63237   7.749   6.957   3.452  0.0180  0.4117  0.0278
15082SOL    HW163238   7.683   6.987   3.389 -0.6533  1.2551  1.0994
15082SOL    HW263239   7.824   7.014   3.438  0.1487  0.1211 -0.4916
15083SOL     OW63240   8.958   4.321  10.622  0.5439 -0.3698  0.8519
15083SOL    HW163241   9.014   4.269  10.680  1.8004  2.4045  2.3783
15083SOL    HW263242   8.870   4.285  10.635  1.4158 -2.5560  1.1765
15084SOL     OW63243   8.279   7.518   6.839 -0.1744 -0.0491 -0.3327
15084SOL    HW163244   8.276   7.586   6.772 -2.0225  0.3223  0.0687
15084SOL    HW263245   8.188   7.509   6.868  0.3005 -1.4884  0.8360
15085SOL     OW63246   9.473   2.267  11.363  0.3026  0.0872  0.1653
15085SOL    HW163247   9.522   2.324  11.423  0.7911 -0.3279  0.1704
15085SOL    HW263248   9.537   2.244  11.295 -0.2263  0.4970 -0.4796
15086SOL     OW63249   7.258   3.874  11.242  0.0872 -0.1891 -0.8352
15086SOL    HW163250   7.316   3.942  11.276  0.3414 -1.0328  0.4754
15086SOL    HW263251   7.177   3.921  11.220 -0.2574  0.3392  1.3811
15087SOL     OW63252   1.592   5.127   5.513  0.2504 -0.5420 -0.0852
15087SOL    HW163253   1.504   5.092   5.501 -0.4660  0.3890  1.9635
15087SOL    HW263254   1.592   5.209   5.464 -0.2819 -0.1739  0.5259
15088SOL     OW63255   2.446   0.966   8.618 -0.0717 -0.0669  0.8247
15088SOL    HW163256   2.356   0.941   8.595  0.1683  1.4212 -2.2117
15088SOL    HW263257   2.437   1.052   8.658 -0.0813 -0.5798  1.9606
15089SOL     OW63258   0.990   1.542   7.889  0.5115  0.3174 -0.3519
15089SOL    HW163259   1.077   1.508   7.872  0.4548  0.2264 -0.4580
15089SOL    HW263260   0.993   1.572   7.981  0.7986  0.7598 -0.5001
15090SOL     OW63261  10.949  13.745   9.233  0.0402 -0.0663 -0.3643
15090SOL    HW163262  11.035  13.733   9.274  0.3792 -0.7971 -1.2573
15090SOL    HW263263  10.917  13.656   9.220 -0.6759  0.1977 -0.4183
15091SOL     OW63264   5.221   8.640   7.892  0.1377  0.4301 -0.1615
15091SOL    HW163265   5.311   8.619   7.917  0.4704  1.2955 -0.6042
15091SOL    HW263266   5.194   8.709   7.952 -0.4766 -0.2930  0.4083
15092SOL     OW63267   4.649   3.745  10.191  0.1461 -0.3089 -0.0722
15092SOL    HW163268   4.584   3.814  10.176 -0.5880 -0.7820  0.8058
15092SOL    HW263269   4.728   3.793  10.218 -0.2420  0.2092  0.1753
15093SOL     OW63270  10.132  10.745  10.306  0.6805 -0.0331 -0.1420
15093SOL    HW163271  10.042  10.770  10.326  0.5589  0.5433 -1.3191
15093SOL    HW263272  10.169  10.822  10.263  1.2791 -0.7713 -0.9807
15094SOL     OW63273   4.180  13.972   0.220  0.4257  0.3708 -0.2164
15094SOL    HW163274   4.098  13.949   0.262  1.5054 -0.5253  1.5217
15094SOL    HW263275   4.157  13.988   0.129 -1.5379 -0.5974  0.0599
15095SOL     OW63276   2.544   1.130   3.841  0.2411  0.3152 -0.1468
15095SOL    HW163277   2.520   1.198   3.777 -0.0925  1.2181  0.9182
15095SOL    HW263278   2.481   1.060   3.825 -0.5296  0.9842 -0.0946
15096SOL     OW63279  10.808  13.143  13.173 -0.1280  0.1191 -0.0274
15096SOL    HW163280  10.759  13.094  13.239 -0.1395 -0.3621 -0.3876
15096SOL    HW263281  10.797  13.235  13.198 -1.1167  0.0125 -0.0263
15097SOL     OW63282   0.779  13.596   6.422 -0.5081 -0.0476  0.2575
15097SOL    HW163283   0.742  13.670   6.469  0.4612  0.9233 -0.4568
15097SOL    HW263284   0.722  13.586   6.345 -0.8019 -0.2445  0.4939
15098SOL     OW63285   8.506   5.302   8.281 -0.5529  0.4440  0.5765
15098SOL    HW163286   8.596   5.285   8.308  0.2110  2.7671 -0.2919
15098SOL    HW263287   8.496   5.254   8.198 -0.6105 -0.9508  1.3661
15099SOL     OW63288   2.125   8.459   8.173 -0.2112 -0.7088  0.2051
15099SOL    HW163289   2.190   8.500   8.116  0.5346 -1.6939  0.3237
15099SOL    HW263290   2.092   8.531   8.227 -0.6917  0.1753 -1.2134
15100SOL     OW63291   4.921   0.422   6.241 -0.4882  0.4183  0.3617
15100SOL    HW163292   4.967   0.370   6.307  0.3188  0.7700  0.0978
15100SOL    HW263293   4.944   0.512   6.262  2.7244  0.4414 -2.4105
15101SOL     OW63294   3.015   5.190   0.608  0.5625  0.0216 -0.3437
15101SOL    HW163295   2.960   5.215   0.533  0.8441  0.7224 -0.3300
15101SOL    HW263296   2.973   5.232   0.683 -0.1919 -1.3663  0.0378
15102SOL     OW63297   1.823   2.708   2.573 -0.8655  0.0978 -0.2420
15102SOL    HW163298   1.731   2.734   2.567 -1.4253 -1.3756  1.2823
15102SOL    HW263299   1.839   2.658   2.493 -1.6634 -0.4344 -0.0774
15103SOL     OW63300   2.075   2.445   7.034 -0.0387  0.5083 -0.7173
15103SOL    HW163301   2.080   2.424   6.940  2.1781  1.9343 -0.9857
15103SOL    HW263302   2.073   2.540   7.037 -0.0085  0.4779  0.6987
15104SOL     OW63303   2.636  10.545   9.007 -0.9432 -0.4004  0.8079
15104SOL    HW163304   2.729  10.536   9.031 -1.0115  0.3670  1.4108
15104SOL    HW263305   2.597  10.461   9.033 -0.7513 -0.0756  2.2192
15105SOL     OW63306  13.617  14.141   0.673 -0.5441 -0.8665  0.0927
15105SOL    HW163307  13.629  14.206   0.743 -0.4412  0.4383 -1.0982
15105SOL    HW263308  13.522  14.142   0.657 -0.5871 -1.2808  0.3020
15106SOL     OW63309  10.061  13.280  10.652  0.4355 -0.1209  0.0219
15106SOL    HW163310   9.968  13.261  10.647 -0.2346  2.6679  0.0637
15106SOL    HW263311  10.091  13.238  10.732 -1.3534  0.9085  1.2881
15107SOL     OW63312   4.412   6.229  13.318  0.2615 -0.2017  0.0031
15107SOL    HW163313   4.464   6.296  13.362 -0.9172  0.5433  0.3063
15107SOL    HW263314   4.476   6.176  13.270  1.3060  0.5510  0.5363
15108SOL     OW63315   3.212   0.786  12.155  0.4050  0.7803 -0.0654
15108SOL    HW163316   3.204   0.805  12.061  1.1970  2.8057  0.2237
15108SOL    HW263317   3.257   0.702  12.159  0.5776  0.7794 -1.5091
15109SOL     OW63318   0.431   3.650   5.585  0.2520  0.1238  0.2978
15109SOL    HW163319   0.385   3.690   5.512 -1.7802 -1.7222  0.4628
15109SOL    HW263320   0.363   3.631   5.649  1.7105 -0.0027  1.8984
15110SOL     OW63321  10.668   0.882   7.596  0.0566 -0.1738  0.3682
15110SOL    HW163322  10.576   0.856   7.590 -0.3501  0.5640  2.3815
15110SOL    HW263323  10.669   0.949   7.665  2.1853 -0.5449  0.7669
15111SOL     OW63324   6.769   1.194   1.205  0.1255 -0.1802 -0.5222
15111SOL    HW163325   6.782   1.232   1.118  0.2832 -0.6118 -0.6938
15111SOL    HW263326   6.787   1.101   1.193  1.2378 -0.0806  0.1972
15112SOL     OW63327   2.689   9.882   8.438  0.6552 -0.1011  0.1047
15112SOL    HW163328   2.757   9.817   8.420  1.0385 -0.2394  1.8512
15112SOL    HW263329   2.649   9.899   8.353  0.5902 -2.5563 -0.4282
15113SOL     OW63330   3.937   1.732   5.701 -0.2338  0.3510 -0.2362
15113SOL    HW163331   4.011   1.729   5.641  0.1582 -0.5239  0.2764
15113SOL    HW263332   3.876   1.666   5.668 -0.2099  0.1707  0.0774
15114SOL     OW63333   6.258   9.329   3.074  0.6835  0.0748 -0.9693
15114SOL    HW163334   6.292   9.374   2.997  0.8161 -0.5172 -1.2625
15114SOL    HW263335   6.324   9.343   3.141 -0.0077  1.6589 -0.5692
15115SOL     OW63336   0.309   5.358  11.477  0.2670  0.2605 -0.3793
15115SOL    HW163337   0.253   5.335  11.551  0.5380  2.1381  0.4901
15115SOL    HW263338   0.347   5.275  11.448 -2.6982 -1.0624 -0.8594
15116SOL     OW63339  12.009   0.778   8.069  0.0467 -0.1169 -0.7294
15116SOL    HW163340  11.999   0.866   8.106  0.4195 -0.0557 -0.7761
15116SOL    HW263341  12.014   0.721   8.145 -0.8644 -0.1733 -0.7025
15117SOL     OW63342   4.461   2.986  10.407  0.4064 -0.3689 -0.4636
15117SOL    HW163343   4.532   2.954  10.463 -0.6072 -0.8220  0.6183
15117SOL    HW263344   4.431   3.066  10.450  0.1133 -0.3035 -0.7868
15118SOL     OW63345  13.476  12.732  10.135 -0.1524  0.0673 -0.0042
15118SOL    HW163346  13.383  12.722  10.118 -0.3097  1.7279 -0.2199
15118SOL    HW263347  13.518  12.673  10.073 -0.9226  2.0694 -2.5644
15119SOL     OW63348   8.559   7.857   6.659 -0.4200  0.1868 -0.7775
15119SOL    HW163349   8.496   7.922   6.692 -0.4527  0.0177 -0.5063
15119SOL    HW263350   8.560   7.872   6.564 -0.1888  0.7955 -0.6842
15120SOL     OW63351   6.669   5.541   7.175  0.3778 -0.5129  0.0240
15120SOL    HW163352   6.596   5.560   7.234  1.4774 -0.2901  1.3538
15120SOL    HW263353   6.628   5.496   7.101 -1.6386  2.6443 -0.9659
15121SOL     OW63354   6.612   7.437  11.255  0.5214 -0.0799  0.0050
15121SOL    HW163355   6.538   7.384  11.225  1.7872 -3.1073  1.8081
15121SOL    HW263356   6.686   7.407  11.202  1.3850 -0.6150  1.4618
15122SOL     OW63357   5.675   8.947  12.360 -0.2961  0.7002  0.5106
15122SOL    HW163358   5.755   8.896  12.375  0.1806  1.4875  0.7202
15122SOL    HW263359   5.605   8.882  12.355  0.3291  0.0160  0.5474
15123SOL     OW63360  13.496   8.598   0.691 -0.1736 -0.1444 -0.0192
15123SOL    HW163361  13.519   8.514   0.730  1.4031 -0.0905 -0.7361
15123SOL    HW263362  13.517   8.588   0.598 -2.5501  0.1773 -0.6575
15124SOL     OW63363  11.557  12.826   2.203  0.3303 -0.6646 -0.0538
15124SOL    HW163364  11.644  12.818   2.242  0.6524 -3.0299 -1.0536
15124SOL    HW263365  11.567  12.790   2.115 -1.5290 -0.4116 -0.4159
15125SOL     OW63366   6.541  11.734  10.875 -0.0211 -0.1973  0.2213
15125SOL    HW163367   6.618  11.791  10.877 -0.0187 -0.1547 -0.7198
15125SOL    HW263368   6.552  11.676  10.950  1.2932 -0.6572 -0.3029
15126SOL     OW63369  10.302   9.597  11.993 -0.0226  0.6849 -0.5393
15126SOL    HW163370  10.235   9.638  11.939 -1.7245  0.9015  1.5810
15126SOL    HW263371  10.253   9.534  12.047  1.5170  0.6607  0.8996
15127SOL     OW63372  12.514  14.083   9.337 -0.0605  0.2313  0.3291
15127SOL    HW163373  12.428  14.106   9.374  0.2642 -0.0004  1.2425
15127SOL    HW263374  12.577  14.117   9.400  0.5059 -0.2651  0.0343
15128SOL     OW63375  11.718   9.196  11.222 -0.4281  0.0135 -0.2980
15128SOL    HW163376  11.679   9.273  11.181 -0.1008  0.3016 -0.0726
15128SOL    HW263377  11.653   9.127  11.210  0.2644 -0.3357 -2.6411
15129SOL     OW63378   2.980   0.054   2.629 -0.3326  0.2178  0.3176
15129SOL    HW163379   2.954   0.048   2.537 -0.8935  2.0881  0.3139
15129SOL    HW263380   2.997   0.147   2.643 -0.6118  0.0251  2.1906
15130SOL     OW63381  13.504   8.869   2.600  0.5099 -0.3985  0.5079
15130SOL    HW163382  13.530   8.949   2.555 -1.2301  0.0267  0.1619
15130SOL    HW263383  13.564   8.861   2.674  1.2626  0.7405  0.0350
15131SOL     OW63384  13.393   3.550  14.024 -0.1649 -0.3726 -0.3871
15131SOL    HW163385  13.345   3.629  13.999  0.8041  0.6259  0.7462
15131SOL    HW263386  13.328   3.495  14.067 -1.4592 -1.3847 -3.3849
15132SOL     OW63387  13.003   0.395   2.962  0.6902  0.4985 -0.1231
15132SOL    HW163388  12.935   0.461   2.967  0.4981  0.2467  0.8623
15132SOL    HW263389  13.011   0.361   3.051  0.4194 -1.1632 -0.6839
15133SOL     OW63390  14.146   1.632   2.829 -0.5689  0.4638 -0.3640
15133SOL    HW163391  14.175   1.723   2.817 -0.0170  0.1967 -1.1309
15133SOL    HW263392  14.215   1.580   2.788 -2.1227 -0.1949 -2.2891
15134SOL     OW63393   3.953  12.272   3.707 -0.0117  0.2056 -0.1475
15134SOL    HW163394   4.033  12.230   3.676 -0.9886 -0.3925 -2.0332
15134SOL    HW263395   3.977  12.364   3.718  1.3989 -0.2813  1.2230
15135SOL     OW63396   5.415   0.086  10.800  0.0957  0.0918 -0.1233
15135SOL    HW163397   5.348   0.059  10.863 -1.3710  0.8087 -1.3455
15135SOL    HW263398   5.477   0.012  10.799 -0.8963 -0.7846  0.6884
15136SOL     OW63399   1.040  10.750  13.375  0.0015 -0.1282  0.0327
15136SOL    HW163400   0.989  10.811  13.320  1.4383  0.0496 -1.1664
15136SOL    HW263401   1.075  10.805  13.445  0.4335  0.2363 -0.4577
15137SOL     OW63402   7.694   3.531   4.212  0.1393 -0.1201 -0.0744
15137SOL    HW163403   7.746   3.556   4.136 -0.5792  3.0445  0.3369
15137SOL    HW263404   7.758   3.500   4.276  1.5581  3.0079  0.1727
15138SOL     OW63405   1.614   1.458   9.894 -0.0512  0.1285 -0.3271
15138SOL    HW163406   1.586   1.531   9.839 -0.1435  0.2942 -0.0613
15138SOL    HW263407   1.691   1.422   9.849  1.0072  1.4254  0.3716
15139SOL     OW63408   4.438   5.957   2.549  0.2066 -0.2944  0.4506
15139SOL    HW163409   4.390   6.017   2.492 -0.5908 -0.0895  1.3260
15139SOL    HW263410   4.465   6.011   2.623  1.8637 -0.3860 -0.0373
15140SOL     OW63411  13.509  13.197   3.166 -0.0965 -0.6755  0.5364
15140SOL    HW163412  13.449  13.131   3.133  0.4317 -1.7034  1.5665
15140SOL    HW263413  13.595  13.170   3.133  0.1883 -0.7825  1.3402
15141SOL     OW63414  11.913   1.623   0.425  0.1194  0.9803 -0.2124
15141SOL    HW163415  11.931   1.672   0.506  2.8058  1.3300 -0.9199
15141SOL    HW263416  12.000   1.599   0.392 -0.9604 -0.2919 -2.3180
15142SOL     OW63417  12.815   4.164   5.040  1.1274 -0.3885 -0.5190
15142SOL    HW163418  12.742   4.103   5.029 -0.8940  1.4817  1.3495
15142SOL    HW263419  12.884   4.113   5.081 -0.3782 -1.5604  0.6953
15143SOL     OW63420  12.530   6.013   6.779 -0.0746 -0.4223  0.2457
15143SOL    HW163421  12.525   6.076   6.706  0.8715  0.8942  1.2531
15143SOL    HW263422  12.558   6.066   6.853  0.4371 -2.0101  1.2244
15144SOL     OW63423  11.043   0.695   9.144 -0.0847  0.3997 -0.2973
15144SOL    HW163424  11.122   0.735   9.180  0.4297  1.8848 -2.8561
15144SOL    HW263425  11.074   0.618   9.096  0.0546  1.7202 -2.4198
15145SOL     OW63426   8.241  11.550   1.817 -0.3743  0.2500  0.5795
15145SOL    HW163427   8.329  11.516   1.798 -0.4490  0.6391 -0.5027
15145SOL    HW263428   8.197  11.478   1.861  0.2265 -0.2384  0.4017
15146SOL     OW63429   2.768   9.237   4.859  0.1252 -0.3173  0.3396
15146SOL    HW163430   2.755   9.207   4.949 -1.9202 -0.4533  0.0414
15146SOL    HW263431   2.706   9.185   4.807 -0.2453  1.2469 -0.8438
15147SOL     OW63432   5.898   1.280   5.718 -0.2654  0.2357 -0.6085
15147SOL    HW163433   5.844   1.270   5.639 -0.4455 -0.7435 -0.3800
15147SOL    HW263434   5.893   1.195   5.761  1.4122  0.1507 -0.5327
15148SOL     OW63435  12.969   5.095   7.040 -0.4486 -0.2914 -0.1294
15148SOL    HW163436  13.008   5.076   7.126  1.2519  1.8364 -0.3511
15148SOL    HW263437  13.029   5.053   6.978  0.5988  1.5287 -0.4010
15149SOL     OW63438  13.676   8.347   7.692 -0.5695 -0.0894  0.2416
15149SOL    HW163439  13.633   8.424   7.730 -0.4783  1.0855 -1.9041
15149SOL    HW263440  13.731   8.313   7.763 -2.0047  0.6934  1.8092
15150SOL     OW63441  13.966   7.807   0.096 -0.9463 -0.2961 -0.1915
15150SOL    HW163442  13.989   7.864   0.022  0.7830  1.3927  1.5151
15150SOL    HW263443  14.039   7.818   0.158 -1.7611 -2.5372  1.2733
15151SOL     OW63444  12.017  12.911   1.318 -0.0111 -0.3893 -0.2527
15151SOL    HW163445  11.987  12.832   1.272  1.3649  0.4928 -2.9178
15151SOL    HW263446  11.958  12.980   1.287  0.6061  0.1395 -0.2645
15152SOL     OW63447   5.273  13.471   0.809 -0.0840  0.2036  0.5973
15152SOL    HW163448   5.278  13.467   0.904 -1.9482  1.1661  0.7799
15152SOL    HW263449   5.273  13.379   0.781  0.6338 -0.0811  1.5103
15153SOL     OW63450  13.414   1.226   7.502 -0.0686  0.0746  0.0836
15153SOL    HW163451  13.492   1.239   7.556 -0.8597 -0.3430  1.3472
15153SOL    HW263452  13.428   1.140   7.461  0.1029 -0.0277  0.3533
15154SOL     OW63453  13.543   4.702   7.853 -0.0313 -0.5260  0.3901
15154SOL    HW163454  13.569   4.623   7.901  2.3695 -0.1070 -0.1060
15154SOL    HW263455  13.500   4.670   7.774  2.2646 -1.4614 -0.5648
15155SOL     OW63456   0.485   5.830   2.725  0.1750 -0.4980 -0.6255
15155SOL    HW163457   0.532   5.764   2.776 -1.3050 -1.7499 -0.8354
15155SOL    HW263458   0.474   5.790   2.639  1.4476  1.0543 -1.5822
15156SOL     OW63459   7.938  13.844   0.462 -0.1519  0.4940  0.1605
15156SOL    HW163460   7.972  13.864   0.375  0.9038  1.2390  0.7150
15156SOL    HW263461   7.845  13.869   0.458 -0.5953 -1.2108 -1.2729
15157SOL     OW63462  12.241  13.765   7.552 -0.3405  0.3928 -0.3958
15157SOL    HW163463  12.220  13.855   7.531 -0.3344  0.3687 -0.5015
15157SOL    HW263464  12.327  13.769   7.594 -1.0038  0.6223  1.0191
15158SOL     OW63465  10.279  13.407   5.926 -0.1698  0.1143  0.1829
15158SOL    HW163466  10.307  13.331   5.875 -0.6642  0.0472  0.0037
15158SOL    HW263467  10.193  13.382   5.961 -0.0264  0.3277  0.6894
15159SOL     OW63468   5.672   7.669  12.654  0.2339  0.7506  0.1626
15159SOL    HW163469   5.675   7.749  12.602 -0.6125  0.4715 -0.3281
15159SOL    HW263470   5.581   7.660  12.680  0.2151 -0.3242 -0.2162
15160SOL     OW63471  13.959  10.076   2.507 -0.1677 -0.3171  0.1362
15160SOL    HW163472  13.906  10.054   2.584  0.9598  1.6105  1.5889
15160SOL    HW263473  14.048  10.052   2.532 -0.1831 -3.1664 -2.1152
15161SOL     OW63474   4.024   3.863  11.488 -0.7910  0.4542 -0.3645
15161SOL    HW163475   4.032   3.890  11.579 -0.1558  1.4691 -0.7066
15161SOL    HW263476   4.109   3.824  11.467 -1.1148 -0.2636 -0.3827
15162SOL     OW63477   3.212   3.696  13.910 -0.4928  0.3316  0.1925
15162SOL    HW163478   3.190   3.788  13.899 -1.8925  0.0270  0.2350
15162SOL    HW263479   3.305   3.696  13.934 -1.1199  1.9195  3.0485
15163SOL     OW63480  13.018   8.300   9.456  0.3900 -0.7562 -0.8405
15163SOL    HW163481  12.970   8.236   9.403  0.3959 -0.2080 -1.5292
15163SOL    HW263482  13.108   8.293   9.424  0.2840 -0.0077 -1.3322
15164SOL     OW63483  10.419   0.675   9.749  0.0846  0.0117 -0.0642
15164SOL    HW163484  10.491   0.736   9.734 -1.5861  1.8220 -1.2394
15164SOL    HW263485  10.460   0.599   9.789  2.7128  0.7370 -1.1725
15165SOL     OW63486  10.546  10.121  11.217 -0.3266  0.3820  0.4515
15165SOL    HW163487  10.560  10.057  11.148  0.5732  0.6643  0.3490
15165SOL    HW263488  10.590  10.200  11.185 -0.9126  0.8677  0.8294
15166SOL     OW63489   2.072   7.237   3.067 -0.0140 -0.1614  0.8403
15166SOL    HW163490   2.127   7.174   3.113  1.1313  1.4819  1.8159
15166SOL    HW263491   2.092   7.224   2.974 -0.3488 -1.6795  0.9561
15167SOL     OW63492   4.265   3.406  12.258  0.5698  0.2393 -1.0880
15167SOL    HW163493   4.350   3.406  12.302  0.3697  0.7036 -0.6989
15167SOL    HW263494   4.254   3.315  12.229  0.8002 -0.0294 -0.3659
15168SOL     OW63495   1.753   2.793   0.581  0.1143  0.0856  0.5725
15168SOL    HW163496   1.726   2.778   0.490  1.3608  1.5312 -0.0924
15168SOL    HW263497   1.750   2.707   0.622  0.0565 -0.6916 -0.9971
15169SOL     OW63498   7.016  13.260   1.366 -0.1020 -0.2700  0.0291
15169SOL    HW163499   7.060  13.255   1.450 -0.1519  0.7321  0.1260
15169SOL    HW263500   6.997  13.353   1.354 -2.0835 -0.6260 -0.0481
15170SOL     OW63501   1.684   5.170   1.458  0.2546 -0.1486 -0.0380
15170SOL    HW163502   1.729   5.150   1.376  1.2602  2.6518 -0.2628
15170SOL    HW263503   1.752   5.202   1.516 -1.0256  1.8116  0.4696
15171SOL     OW63504  11.118  12.226  10.169 -0.1654 -0.3405 -0.3765
15171SOL    HW163505  11.208  12.220  10.135 -0.1664  3.0715 -1.3776
15171SOL    HW263506  11.116  12.311  10.214 -2.6722 -0.7721  0.4529
15172SOL     OW63507   0.173   2.339   9.657 -0.1941 -0.5781 -0.2599
15172SOL    HW163508   0.102   2.393   9.622 -0.9891 -1.0738  0.5439
15172SOL    HW263509   0.129   2.261   9.691  0.6167 -0.4888  1.0815
15173SOL     OW63510   2.420   1.394   1.265 -0.1122  0.1783 -0.0021
15173SOL    HW163511   2.415   1.456   1.192  2.1134 -1.4406 -1.6624
15173SOL    HW263512   2.508   1.404   1.299 -0.1485 -1.1447  0.5398
15174SOL     OW63513   2.062  10.249  10.297 -1.0706  0.5592 -0.2196
15174SOL    HW163514   1.986  10.307  10.290 -1.2806  0.5897  1.6798
15174SOL    HW263515   2.106  10.277  10.377  0.3499 -0.1547 -0.7217
15175SOL     OW63516   8.690   2.793   9.535 -0.3383  0.0467  0.6482
15175SOL    HW163517   8.716   2.752   9.452 -2.0439  1.2867 -0.5741
15175SOL    HW263518   8.670   2.883   9.512 -0.5488  0.5030  2.4937
15176SOL     OW63519   3.204   5.162   4.214  0.5941  0.2285 -0.1949
15176SOL    HW163520   3.284   5.212   4.195 -0.3503  1.6052 -0.6977
15176SOL    HW263521   3.188   5.110   4.136  0.1695  1.1118 -0.7023
15177SOL     OW63522  12.610   7.255   5.690 -0.0129  0.7671  0.4038
15177SOL    HW163523  12.644   7.343   5.709  0.2621  0.4307  1.5111
15177SOL    HW263524  12.665   7.197   5.742  0.9091 -0.2397 -1.5789
15178SOL     OW63525   7.273   0.849  10.346  0.0455 -0.4651  0.0466
15178SOL    HW163526   7.295   0.800  10.267 -1.1796  0.2281 -0.7580
15178SOL    HW263527   7.339   0.822  10.410  0.8335 -1.3284 -1.0862
15179SOL     OW63528  13.847   4.684   2.916 -0.1638 -0.8236  0.0707
15179SOL    HW163529  13.879   4.608   2.868 -0.1757 -1.0690  0.4491
15179SOL    HW263530  13.754   4.666   2.931 -0.8814  0.4953 -2.2129
15180SOL     OW63531   7.525   8.274   5.819 -0.1383  0.4893 -0.1096
15180SOL    HW163532   7.607   8.309   5.783  0.4513 -0.0205  0.6912
15180SOL    HW263533   7.543   8.262   5.912 -1.2562  0.7118  0.1502
15181SOL     OW63534   0.113   2.484   3.398 -0.1865  0.5947 -0.8798
15181SOL    HW163535   0.115   2.527   3.312  1.4268 -2.0518 -2.3087
15181SOL    HW263536   0.181   2.527   3.448 -1.4428  2.4815 -0.6736
15182SOL     OW63537  13.801   9.504   7.066  0.0933 -0.0978  0.4590
15182SOL    HW163538  13.752   9.473   7.142 -2.3726 -1.4603 -1.5483
15182SOL    HW263539  13.864   9.434   7.047  0.9422  0.3883  1.3570
15183SOL     OW63540   4.187  13.770  12.698 -0.6338  0.0472 -0.2016
15183SOL    HW163541   4.152  13.709  12.632  0.8193  1.5228 -2.4530
15183SOL    HW263542   4.114  13.829  12.717 -1.2823 -0.8277  0.1074
15184SOL     OW63543   0.437   6.198   9.442 -0.4010 -0.4597  0.4027
15184SOL    HW163544   0.373   6.169   9.378 -0.7096 -1.0817  0.9817
15184SOL    HW263545   0.513   6.142   9.428  1.1120  1.9695 -2.0607
15185SOL     OW63546   1.647  11.993   0.470 -0.0808  0.1879  0.6617
15185SOL    HW163547   1.728  11.948   0.495  0.1775  1.0455  1.4394
15185SOL    HW263548   1.664  12.024   0.381 -0.2860 -1.2616  0.0934
15186SOL     OW63549  12.249   7.953   3.461 -0.1475 -0.0632 -0.5896
15186SOL    HW163550  12.336   7.972   3.426  0.0136  0.7200  0.1765
15186SOL    HW263551  12.198   8.031   3.440 -1.3380 -1.3818 -2.9927
15187SOL     OW63552   8.744   0.493   4.183  0.0889  0.1484 -0.6461
15187SOL    HW163553   8.773   0.443   4.107 -1.5433  1.1501 -1.9817
15187SOL    HW263554   8.751   0.585   4.156  0.1777  0.5648  0.6935
15188SOL     OW63555   4.979  10.477   5.453 -0.2681  0.0914 -0.5879
15188SOL    HW163556   4.962  10.484   5.359 -1.0251 -0.5565 -0.5098
15188SOL    HW263557   4.909  10.529   5.493 -0.4170 -0.2796 -0.3584
15189SOL     OW63558   9.517   7.773  12.343 -0.0863  0.3181  0.0594
15189SOL    HW163559   9.456   7.845  12.323 -1.1355 -0.6916 -0.4695
15189SOL    HW263560   9.464   7.694  12.336  0.2237 -0.3809  3.7271
15190SOL     OW63561  13.910  12.942   1.965  0.5110  0.2611  0.2163
15190SOL    HW163562  13.841  12.931   1.900 -1.0077 -1.6803  1.9980
15190SOL    HW263563  13.904  12.863   2.020  2.3599  1.3170  2.0973
15191SOL     OW63564  10.125   1.650  10.290 -0.5579  0.2012 -0.2588
15191SOL    HW163565  10.193   1.698  10.337 -0.0681  0.2504 -1.0217
15191SOL    HW263566  10.068   1.718  10.254 -0.0736  0.2041 -1.0250
15192SOL     OW63567   1.607   2.935   4.498 -0.0793 -0.1000 -0.9072
15192SOL    HW163568   1.668   3.009   4.497 -0.1638 -0.0216 -0.5057
15192SOL    HW263569   1.648   2.872   4.558 -1.2975  0.7306  0.8766
15193SOL     OW63570   2.331   9.051  11.498  0.2668 -0.4246  0.2210
15193SOL    HW163571   2.320   9.055  11.403  2.6851 -1.1929 -0.1661
15193SOL    HW263572   2.246   9.075  11.533 -0.6928 -0.1074 -2.1376
15194SOL     OW63573   5.212   7.591   0.409  0.1447  0.2738 -0.9415
15194SOL    HW163574   5.148   7.648   0.365 -1.5215 -2.4098 -2.2346
15194SOL    HW263575   5.280   7.577   0.344 -0.7462 -1.1927 -1.5995
15195SOL     OW63576   3.167   2.122  11.231 -0.0559  0.3715  0.1468
15195SOL    HW163577   3.098   2.184  11.205 -1.0597 -1.3653 -1.5584
15195SOL    HW263578   3.125   2.064  11.294  0.3975  0.3804  0.4648
15196SOL     OW63579  11.835   3.927  10.060  0.0701 -0.5567 -0.7392
15196SOL    HW163580  11.815   3.942  10.152 -1.4760 -1.6465 -0.8642
15196SOL    HW263581  11.807   3.837  10.043 -1.0876  0.1023 -2.6287
15197SOL     OW63582   5.076   1.380   5.729  0.1431 -0.3826 -0.5030
15197SOL    HW163583   5.028   1.322   5.670 -1.0027 -1.1770  1.1238
15197SOL    HW263584   5.051   1.468   5.702 -0.5317 -0.7359 -1.0510
15198SOL     OW63585   8.267  12.004  10.428 -0.2898 -0.2130 -0.2910
15198SOL    HW163586   8.296  12.031  10.515 -0.8524  0.5243 -0.3253
15198SOL    HW263587   8.213  11.926  10.444  0.4067 -0.6628 -0.0821
15199SOL     OW63588   8.970   7.379   2.323 -0.2036 -0.0921  0.0154
15199SOL    HW163589   8.883   7.396   2.286  0.9500  0.2682 -2.8293
15199SOL    HW263590   8.996   7.295   2.285  0.9373  0.1104  0.3223
15200SOL     OW63591   0.861   9.496   7.792 -0.2424 -0.1458  0.1658
15200SOL    HW163592   0.946   9.455   7.773 -0.3708  0.3200 -1.6897
15200SOL    HW263593   0.883   9.585   7.819 -0.0754 -0.6788  1.9265
15201SOL     OW63594   6.375  13.947   0.822 -0.3298 -0.2689 -0.6215
15201SOL    HW163595   6.331  14.002   0.757  0.2205  1.7953  0.6527
15201SOL    HW263596   6.459  13.989   0.837  0.9241 -2.5257 -0.8821
15202SOL     OW63597  10.821   7.330   0.276  0.0132  0.1128  0.8680
15202SOL    HW163598  10.765   7.253   0.289  0.4884 -0.3935  0.0528
15202SOL    HW263599  10.760   7.403   0.268 -0.4851 -0.2884  0.9294
15203SOL     OW63600   3.284   2.421   0.507  0.1223 -0.5203 -0.3717
15203SOL    HW163601   3.299   2.358   0.578 -1.7188 -0.7527 -0.1176
15203SOL    HW263602   3.252   2.368   0.435 -0.1341 -0.0305 -0.6218
15204SOL     OW63603   7.632  13.068   6.371 -0.3453  0.3195  0.1670
15204SOL    HW163604   7.604  13.106   6.454 -2.5171 -0.2246 -0.2659
15204SOL    HW263605   7.700  13.128   6.339  0.7078  0.4257  2.3880
15205SOL     OW63606  12.285   2.833   7.639 -0.0052  0.0640 -0.2264
15205SOL    HW163607  12.334   2.882   7.573  0.0561 -1.2913 -1.2072
15205SOL    HW263608  12.197   2.870   7.635 -0.2070 -0.5266 -1.6337
15206SOL     OW63609  13.574   8.953   6.738  0.0810  0.6129  0.0494
15206SOL    HW163610  13.598   8.865   6.768 -0.6671  0.6144  0.6777
15206SOL    HW263611  13.599   8.954   6.646 -1.8554 -1.0351 -0.5676
15207SOL     OW63612   2.063  11.497   6.124 -0.1471  0.5231 -0.1734
15207SOL    HW163613   2.153  11.528   6.125 -0.6958  2.2260  1.0592
15207SOL    HW263614   2.040  11.486   6.216 -0.6789 -1.6408 -0.5027
15208SOL     OW63615   6.456   7.112   0.640  0.2082  0.1969 -0.4100
15208SOL    HW163616   6.420   7.172   0.575  0.2512 -0.6338 -1.2248
15208SOL    HW263617   6.437   7.025   0.606  0.7860 -0.2617  0.3874
15209SOL     OW63618  11.181   1.513   2.744  0.1925  0.3614 -0.0645
15209SOL    HW163619  11.133   1.513   2.662  1.5891 -0.0030 -0.9139
15209SOL    HW263620  11.264   1.469   2.724  0.7593  0.6786  1.4188
15210SOL     OW63621   0.602   8.098  14.087 -0.0517 -0.0263 -0.8007
15210SOL    HW163622   0.682   8.046  14.086 -0.1698 -0.2106 -0.8366
15210SOL    HW263623   0.541   8.049  14.031 -0.2851 -0.0466 -0.5329
15211SOL     OW63624   0.093   1.888   4.539 -0.0970  0.7491 -0.5484
15211SOL    HW163625   0.045   1.901   4.457 -0.4651 -1.9689 -0.8782
15211SOL    HW263626   0.031   1.913   4.607 -0.6622  0.7746 -1.0641
15212SOL     OW63627   5.160   8.135  10.733 -0.2595 -0.2390 -0.2254
15212SOL    HW163628   5.096   8.064  10.729  0.5512 -0.9608 -0.6762
15212SOL    HW263629   5.176   8.157  10.641 -1.0683  1.0673 -0.0781
15213SOL     OW63630  12.580   0.300  13.140 -0.0052 -0.0882 -0.4363
15213SOL    HW163631  12.592   0.290  13.046  1.3231  0.4637 -0.3507
15213SOL    HW263632  12.586   0.394  13.155  0.8050 -0.2412  0.3096
15214SOL     OW63633   5.009   7.573   1.487 -0.1187  0.5472 -0.5823
15214SOL    HW163634   4.936   7.628   1.517  0.5883  1.6696 -0.8555
15214SOL    HW263635   5.087   7.619   1.518  0.5056 -0.1125 -1.1640
15215SOL     OW63636   9.565  11.176   9.245  0.0456  0.3081  0.6758
15215SOL    HW163637   9.570  11.242   9.176  0.0255  0.4570  0.8148
15215SOL    HW263638   9.605  11.097   9.207  0.1021  0.4117  0.5214
15216SOL     OW63639  10.778   1.288   4.488 -0.4476 -0.1987 -0.4202
15216SOL    HW163640  10.704   1.293   4.427 -1.2100  1.3935  0.5786
15216SOL    HW263641  10.834   1.361   4.463 -1.3355  1.1896  1.4359
15217SOL     OW63642   3.529   2.364   6.666 -0.1341  0.7751 -0.1465
15217SOL    HW163643   3.481   2.423   6.724  1.5236  1.5713  0.4887
15217SOL    HW263644   3.621   2.387   6.679  0.4426 -0.6842 -1.3085
15218SOL     OW63645   6.058   1.351   0.365 -0.1138  0.2827  0.3945
15218SOL    HW163646   6.027   1.267   0.332 -0.0469 -0.4788  2.1197
15218SOL    HW263647   6.103   1.391   0.291  0.1596 -1.3545 -0.3768
15219SOL     OW63648  13.867   8.473   7.297 -0.0403 -0.3000 -0.2123
15219SOL    HW163649  13.828   8.407   7.355 -0.8891  0.6761  0.3494
15219SOL    HW263650  13.960   8.475   7.322 -0.7714  1.6958  2.7302
15220SOL     OW63651  12.902   1.906   4.869  0.1665 -0.5404 -0.3570
15220SOL    HW163652  12.871   1.991   4.902  0.6527 -0.9243  1.1330
15220SOL    HW263653  12.966   1.929   4.801 -0.8111  0.2615 -1.0496
15221SOL     OW63654   4.367   2.405  13.261  0.1554 -0.2361  0.0527
15221SOL    HW163655   4.285   2.383  13.216  0.4585 -1.1108 -0.0878
15221SOL    HW263656   4.358   2.498  13.282 -0.3663 -0.0268 -1.0237
15222SOL     OW63657  12.670  12.560  11.636 -0.0723 -0.0938 -0.1222
15222SOL    HW163658  12.667  12.465  11.624 -2.2454 -0.0965  0.0297
15222SOL    HW263659  12.587  12.581  11.679  0.4483  1.8595  0.0054
15223SOL     OW63660   0.633   2.530   4.362 -0.1116 -0.2108  0.5573
15223SOL    HW163661   0.587   2.479   4.296  2.2271 -1.7509 -0.0380
15223SOL    HW263662   0.701   2.577   4.313  0.9157 -0.4584  1.6934
15224SOL     OW63663   9.159   7.438   7.182 -0.3378 -0.3989 -0.1626
15224SOL    HW163664   9.245   7.412   7.216 -0.4136  0.0743  0.4002
15224SOL    HW263665   9.146   7.382   7.105  0.5720 -0.3264 -0.3860
15225SOL     OW63666  13.897   7.962   4.830  0.5000 -0.2837  0.1802
15225SOL    HW163667  13.906   7.867   4.830 -0.7153 -0.4207  0.5901
15225SOL    HW263668  13.925   7.989   4.743  3.6505 -0.6869  0.9748
15226SOL     OW63669   8.552   9.617   7.071 -0.0749  0.3009  0.1470
15226SOL    HW163670   8.604   9.549   7.029 -1.8219 -0.9302 -0.0899
15226SOL    HW263671   8.549   9.591   7.163  2.1362  1.9791  0.8078
15227SOL     OW63672   7.845   9.208   4.793  0.2326  0.0983 -0.5417
15227SOL    HW163673   7.795   9.179   4.869 -0.6939 -0.0053 -1.1637
15227SOL    HW263674   7.825   9.301   4.785  0.5879  0.1824 -0.4714
15228SOL     OW63675  11.572   1.586   5.058 -0.0376  0.5009  0.1192
15228SOL    HW163676  11.625   1.656   5.021  0.2235  2.0384  3.1128
15228SOL    HW263677  11.635   1.519   5.083  0.0342  0.5235  0.0009
15229SOL     OW63678   5.533   9.370   1.824 -0.3859 -0.1278 -0.1889
15229SOL    HW163679   5.557   9.443   1.768  0.6604 -0.7080 -0.5413
15229SOL    HW263680   5.573   9.293   1.782  1.7796 -0.3948  2.0758
15230SOL     OW63681   2.043  10.269   1.846  0.7784  0.2084  0.1583
15230SOL    HW163682   2.131  10.253   1.882  0.8193  0.3096  0.1061
15230SOL    HW263683   2.039  10.365   1.837  0.6089  0.2150  0.2962
15231SOL     OW63684  10.820   2.203   1.490  0.4370 -0.3053  0.0201
15231SOL    HW163685  10.750   2.152   1.530  0.1560  0.9821  1.2510
15231SOL    HW263686  10.781   2.289   1.475  1.5529  0.2266  0.0587
15232SOL     OW63687   6.416   6.797   9.162 -0.1931 -0.2116  0.0641
15232SOL    HW163688   6.437   6.852   9.238 -2.8151 -1.5015  1.9023
15232SOL    HW263689   6.329   6.826   9.135 -0.5795 -1.8040 -0.4944
15233SOL     OW63690   1.645  13.102  10.635 -0.8957 -0.0439  0.0799
15233SOL    HW163691   1.639  13.009  10.653  1.8008 -0.3383 -0.0895
15233SOL    HW263692   1.574  13.119  10.573 -0.8767 -2.2044 -0.6292
15234SOL     OW63693  11.857  13.089   6.694  0.6340  1.0661 -0.3368
15234SOL    HW163694  11.778  13.053   6.654  0.1501  0.4561  1.1169
15234SOL    HW263695  11.825  13.143   6.767  1.5604  0.6764  0.3719
15235SOL     OW63696   4.865   1.154   0.682 -0.3740  0.1891 -0.4275
15235SOL    HW163697   4.799   1.223   0.691  0.1961  0.8559 -1.2708
15235SOL    HW263698   4.869   1.137   0.588  2.0571  1.5610 -0.6358
15236SOL     OW63699   4.106  11.939   8.256 -0.0446  0.6137 -0.1280
15236SOL    HW163700   4.177  11.998   8.230 -0.8686  1.5049 -0.4003
15236SOL    HW263701   4.104  11.945   8.352  0.9965 -0.3274 -0.0224
15237SOL     OW63702  10.792  11.798   5.986 -0.7025 -0.3928 -0.0132
15237SOL    HW163703  10.796  11.734   5.915  0.0938 -1.5040  1.0012
15237SOL    HW263704  10.863  11.773   6.046 -0.4700  1.3422  0.5068
15238SOL     OW63705   2.552   7.063  13.072  0.4511 -0.4263  0.0882
15238SOL    HW163706   2.560   7.131  13.139 -0.5134  0.0646 -0.2761
15238SOL    HW263707   2.503   7.105  13.001  2.6927 -0.4577 -1.5788
15239SOL     OW63708   9.644  10.842   2.027  0.1157  0.0797 -0.6560
15239SOL    HW163709   9.583  10.781   2.068 -0.1176  1.2973  0.8838
15239SOL    HW263710   9.593  10.922   2.016  1.3641  1.0682  0.5182
15240SOL     OW63711   1.540   2.676  11.893  0.0746  0.0660 -0.0850
15240SOL    HW163712   1.632   2.694  11.912 -0.0091  0.6055 -0.1871
15240SOL    HW263713   1.520   2.729  11.816 -0.2932 -0.1324 -0.1268
15241SOL     OW63714   4.209   5.014   8.128 -0.1820 -0.1902 -0.0142
15241SOL    HW163715   4.190   5.108   8.121 -0.2227 -0.2886 -1.6387
15241SOL    HW263716   4.290   5.010   8.178 -0.5556  0.6614  0.7005
15242SOL     OW63717   0.398  11.881   7.876 -0.0539  0.0035 -0.0243
15242SOL    HW163718   0.313  11.918   7.904 -0.4625 -0.5191 -0.5539
15242SOL    HW263719   0.389  11.787   7.892  0.2527 -0.1138 -0.5290
15243SOL     OW63720   6.473  13.485   6.404  0.5533 -0.2149 -0.3849
15243SOL    HW163721   6.565  13.510   6.413  0.7200 -0.9976  0.1165
15243SOL    HW263722   6.452  13.440   6.486 -0.3234  0.0919 -0.4304
15244SOL     OW63723   5.398  12.286  10.640 -0.1842 -0.1016  0.2383
15244SOL    HW163724   5.401  12.262  10.547 -1.2444  1.1927 -0.1611
15244SOL    HW263725   5.447  12.368  10.646  1.4474 -1.0955  1.1774
15245SOL     OW63726   2.058   3.804   1.663  0.1575  0.0867  0.0218
15245SOL    HW163727   2.113   3.826   1.587  1.0464  0.4875  0.7615
15245SOL    HW263728   2.023   3.717   1.642 -0.4020  0.5990 -1.2726
15246SOL     OW63729   7.728  10.007   6.525 -0.2457 -0.1118 -0.2633
15246SOL    HW163730   7.684   9.986   6.442 -3.3888 -0.7276  1.4353
15246SOL    HW263731   7.713  10.100   6.537 -0.5363 -0.1930  0.0097
15247SOL     OW63732   7.601   9.543  10.311  0.3631 -0.0681  0.5075
15247SOL    HW163733   7.585   9.589  10.229  1.5667  0.3889  0.5058
15247SOL    HW263734   7.639   9.610  10.369  0.4887 -0.6357  1.0926
15248SOL     OW63735   8.169   0.615   1.997  0.0583 -0.2492 -0.0356
15248SOL    HW163736   8.158   0.710   1.991  0.3055 -0.2318 -0.2292
15248SOL    HW263737   8.097   0.586   2.053  1.0450  0.2635  1.5440
15249SOL     OW63738   9.674  11.198   5.459  0.0076 -0.0725 -0.3657
15249SOL    HW163739   9.611  11.134   5.426 -0.9197  0.2372  0.7216
15249SOL    HW263740   9.708  11.157   5.539 -0.4484  0.6994  0.2319
15250SOL     OW63741  10.571   7.649   5.964 -0.1500  0.0637 -0.2603
15250SOL    HW163742  10.622   7.725   5.936  0.2629 -0.3667 -0.7004
15250SOL    HW263743  10.633   7.596   6.015 -0.1175 -0.5146 -0.8816
15251SOL     OW63744   5.177   7.410   8.739  0.3815  0.3152 -0.0784
15251SOL    HW163745   5.139   7.364   8.814  1.0266  0.1183  0.1335
15251SOL    HW263746   5.271   7.392   8.745  0.2667 -1.1873 -1.9241
15252SOL     OW63747   1.202  12.622   9.501 -0.0688 -0.3447 -0.0308
15252SOL    HW163748   1.138  12.594   9.435  0.4193  0.2987 -0.7908
15252SOL    HW263749   1.171  12.582   9.582 -1.4276 -0.0606 -0.3867
15253SOL     OW63750   4.533  10.796   0.199 -0.4334  0.2791  0.0704
15253SOL    HW163751   4.568  10.877   0.161  0.0737  0.6258  1.2074
15253SOL    HW263752   4.505  10.822   0.287  0.4266 -0.9247  0.7309
15254SOL     OW63753   3.174   7.914  11.977 -0.2077  0.1396 -0.2108
15254SOL    HW163754   3.251   7.865  12.006 -0.1943  0.2341 -0.0895
15254SOL    HW263755   3.125   7.851  11.923 -0.2329 -0.0350  0.0113
15255SOL     OW63756   3.992   4.294  11.955  0.0967 -0.1736 -0.1589
15255SOL    HW163757   3.923   4.320  12.016  0.1399 -0.7786  0.1570
15255SOL    HW263758   4.024   4.211  11.990 -0.1906 -0.7665 -1.2575
15256SOL     OW63759  10.501  13.416   9.837 -0.1751  0.1324  0.2297
15256SOL    HW163760  10.561  13.373   9.776 -0.8190  1.8647 -1.7431
15256SOL    HW263761  10.516  13.510   9.823 -0.9798  0.5890  2.1341
15257SOL     OW63762   0.300   0.671   5.554  0.1549 -0.4228  0.4248
15257SOL    HW163763   0.308   0.707   5.643 -0.0616 -0.6182  0.5237
15257SOL    HW263764   0.208   0.645   5.547 -0.1216  0.6753 -0.2785
15258SOL     OW63765  11.844  12.518   8.825 -0.2264  0.5645 -0.2050
15258SOL    HW163766  11.913  12.485   8.882 -1.2390 -0.4952  0.4750
15258SOL    HW263767  11.830  12.447   8.762 -1.5740  0.1637  0.4942
15259SOL     OW63768  10.657   0.736   5.264  0.3318  0.3385 -0.2898
15259SOL    HW163769  10.588   0.801   5.263 -0.6408 -0.6154  1.0761
15259SOL    HW263770  10.737   0.785   5.245 -0.7330  1.3702 -2.5162
15260SOL     OW63771   8.939   9.669   0.502 -0.1970  0.6543  0.0868
15260SOL    HW163772   9.027   9.657   0.538 -0.2535  1.4799  0.5106
15260SOL    HW263773   8.881   9.649   0.575 -0.3980 -0.4357 -0.3399
15261SOL     OW63774   9.071  12.919   5.170  0.2094 -0.4451  0.1523
15261SOL    HW163775   9.149  12.950   5.215 -0.8645  3.2097 -0.1772
15261SOL    HW263776   9.104  12.865   5.098  2.1571 -2.0718  2.1380
15262SOL     OW63777   6.466  13.242   3.362  0.1908 -0.0956 -0.5393
15262SOL    HW163778   6.516  13.256   3.282 -1.0711  2.2111 -1.0153
15262SOL    HW263779   6.381  13.209   3.332  0.5530 -1.6516  0.0710
15263SOL     OW63780  13.301   0.182   3.096  0.4156 -0.7244 -0.0962
15263SOL    HW163781  13.237   0.185   3.167 -1.5733  1.4184 -1.7897
15263SOL    HW263782  13.279   0.103   3.047 -1.0006 -0.0327 -0.6349
15264SOL     OW63783  12.964  12.702   9.250  0.5495 -0.3216  0.1981
15264SOL    HW163784  13.058  12.701   9.267  0.4662  1.3278  0.9383
15264SOL    HW263785  12.956  12.676   9.158  1.5798 -2.1344  0.5798
15265SOL     OW63786   3.156   9.730   5.617 -0.3749  0.5565 -0.0011
15265SOL    HW163787   3.150   9.808   5.672 -2.1243  0.5541 -0.1346
15265SOL    HW263788   3.113   9.662   5.669  0.4701 -0.1619 -0.2087
15266SOL     OW63789   2.220   9.269   1.325 -0.2484  0.3550 -0.7022
15266SOL    HW163790   2.200   9.312   1.407 -1.3994  1.4828 -1.5383
15266SOL    HW263791   2.295   9.317   1.290  0.6857 -0.5581 -0.0312
15267SOL     OW63792   9.189   9.131   5.791 -0.4718  0.4309  0.4331
15267SOL    HW163793   9.134   9.091   5.723 -1.4993  0.0034  1.4823
15267SOL    HW263794   9.261   9.068   5.804 -1.2417 -0.3583  0.9824
15268SOL     OW63795  13.277   9.254  11.158 -0.7914  0.1740  0.0711
15268SOL    HW163796  13.234   9.334  11.127 -2.0163  0.1584  1.5759
15268SOL    HW263797  13.208   9.188  11.160 -0.0539 -0.6243 -0.0602
15269SOL     OW63798   2.300  13.019   5.591 -0.6819  0.4858 -0.1633
15269SOL    HW163799   2.205  13.008   5.588 -0.7894  0.4032  2.2393
15269SOL    HW263800   2.315  13.084   5.659  1.0228 -0.3051  0.2667
15270SOL     OW63801  11.245   5.629   9.696 -0.2312 -0.3093 -0.0244
15270SOL    HW163802  11.291   5.574   9.759 -0.2642  0.4502  0.6874
15270SOL    HW263803  11.308   5.643   9.626 -0.2601 -1.3226 -0.2675
15271SOL     OW63804   1.334   4.383  12.424 -0.3356  0.1274 -0.5728
15271SOL    HW163805   1.358   4.330  12.348  0.6551  1.9821 -1.6115
15271SOL    HW263806   1.269   4.445  12.391 -0.6256  0.3355  0.3402
15272SOL     OW63807  13.753   2.911   4.579 -0.3342  0.3976 -0.1268
15272SOL    HW163808  13.745   2.817   4.593  1.7224 -0.0938 -1.6666
15272SOL    HW263809  13.718   2.926   4.492  1.6681  0.5578 -0.9636
15273SOL     OW63810  12.446   0.915   4.481 -0.2175  0.2483  1.1185
15273SOL    HW163811  12.486   0.904   4.568  0.7742  2.7681  1.0639
15273SOL    HW263812  12.401   0.999   4.486 -1.6780 -0.4161 -0.2939
15274SOL     OW63813   0.009  12.053   7.482 -0.6808  0.4325 -0.0395
15274SOL    HW163814   0.072  12.111   7.525  1.0458  0.1849 -2.0848
15274SOL    HW263815   0.046  11.965   7.495 -0.5070  0.2996 -1.3572
15275SOL     OW63816  11.560  13.829   2.972  0.6656  0.3416  0.0092
15275SOL    HW163817  11.642  13.870   2.943  0.2040  0.8122 -0.6884
15275SOL    HW263818  11.549  13.754   2.913  1.6595 -1.0189  1.4739
15276SOL     OW63819   1.111   1.727   3.668 -0.5876 -0.0337  0.5922
15276SOL    HW163820   1.161   1.655   3.630 -1.6421  0.5828 -2.1890
15276SOL    HW263821   1.164   1.805   3.650 -0.4728  0.1598  1.6699
15277SOL     OW63822   6.204   0.518  13.390 -0.2379  0.0118  0.0297
15277SOL    HW163823   6.270   0.471  13.339  0.3904  1.0146 -0.1067
15277SOL    HW263824   6.146   0.557  13.324 -0.7072 -0.4825  0.1411
15278SOL     OW63825   8.724   7.942   3.710 -0.0761 -0.1049  0.2092
15278SOL    HW163826   8.728   7.991   3.629  1.3080 -0.0135  0.3136
15278SOL    HW263827   8.685   8.002   3.773  0.8158  0.5758  0.1245
15279SOL     OW63828  12.081   6.060  10.020 -0.0656 -0.0168  0.2269
15279SOL    HW163829  12.164   6.014  10.034  0.1537  0.5117  0.6832
15279SOL    HW263830  12.020   5.991   9.993  0.5132 -0.4103 -0.0957
15280SOL     OW63831  10.124  11.764   9.230  0.2072  0.2504 -0.4051
15280SOL    HW163832  10.049  11.819   9.250  1.4996  2.1739 -0.5587
15280SOL    HW263833  10.087  11.677   9.215 -1.6836  0.4347  2.3573
15281SOL     OW63834  13.505  13.596   7.940  0.2675  0.4046  0.7335
15281SOL    HW163835  13.427  13.631   7.897  0.5314  1.1606  0.8600
15281SOL    HW263836  13.568  13.668   7.938  1.1859 -0.3877  0.0766
15282SOL     OW63837   2.331   1.294  12.653  0.0562 -0.4689  0.3713
15282SOL    HW163838   2.400   1.281  12.588 -0.5661  1.1143 -0.6784
15282SOL    HW263839   2.366   1.361  12.712 -0.3994  0.0406  0.0772
15283SOL     OW63840  13.176   7.352   1.490 -0.5484  0.1871  0.2869
15283SOL    HW163841  13.172   7.265   1.451 -3.9244  0.4744 -0.3099
15283SOL    HW263842  13.170   7.412   1.416  2.1779  1.0463  0.6516
15284SOL     OW63843   3.545  12.618  11.550 -0.3075 -0.6349  0.5350
15284SOL    HW163844   3.498  12.653  11.475 -0.4573  0.4346  1.1006
15284SOL    HW263845   3.525  12.679  11.622 -0.2300 -1.6678  1.4626
15285SOL     OW63846   1.007   5.486   6.699  0.2418  0.0602 -0.4878
15285SOL    HW163847   1.016   5.451   6.787 -1.2867  0.5558 -0.0921
15285SOL    HW263848   1.060   5.428   6.644  1.0362 -0.3823  0.7191
15286SOL     OW63849   5.728   1.463   8.053 -0.2114  0.7522  0.6429
15286SOL    HW163850   5.703   1.522   8.125 -1.8248  1.5697 -0.5397
15286SOL    HW263851   5.668   1.389   8.060 -0.4905  0.9162  0.0456
15287SOL     OW63852  11.278   7.030   8.199 -0.4493  0.0362  0.8124
15287SOL    HW163853  11.265   6.944   8.238  0.6333 -0.7626 -0.5279
15287SOL    HW263854  11.368   7.030   8.167 -0.6754  1.3679  0.0646
15288SOL     OW63855   4.296   7.682   9.604 -0.3123  0.0917  0.4264
15288SOL    HW163856   4.305   7.721   9.692  1.4118  1.2327 -0.1928
15288SOL    HW263857   4.386   7.666   9.576 -0.8525 -0.6423 -0.9793
15289SOL     OW63858  11.412   3.943  12.464  0.2502  0.2140 -0.0304
15289SOL    HW163859  11.366   3.971  12.544  0.7669  1.8243 -0.2754
15289SOL    HW263860  11.463   3.867  12.492 -2.4036 -1.5931  0.2772
15290SOL     OW63861  12.544   9.076   7.561 -0.0760 -0.2878 -0.5620
15290SOL    HW163862  12.571   9.032   7.642  1.0225 -0.5029 -1.0342
15290SOL    HW263863  12.505   9.159   7.591 -0.5010 -0.7617  0.2298
15291SOL     OW63864  11.712   4.518   6.407  0.3377  0.1551 -0.3318
15291SOL    HW163865  11.697   4.482   6.495 -0.2805  1.0948 -0.0384
15291SOL    HW263866  11.802   4.494   6.386 -0.0878 -1.6765 -0.2115
15292SOL     OW63867   4.373   4.567   3.496  0.1592  0.0577 -0.4610
15292SOL    HW163868   4.281   4.545   3.477  0.2387  0.2456 -1.0899
15292SOL    HW263869   4.379   4.564   3.591 -0.2847 -0.8316 -0.4480
15293SOL     OW63870   5.323   9.428   4.059 -0.1109  0.7448  0.7413
15293SOL    HW163871   5.234   9.442   4.028 -0.5450  0.8097  1.9702
15293SOL    HW263872   5.328   9.333   4.075  0.2294  0.6570  0.1611
15294SOL     OW63873  10.581   8.071  13.285 -0.4112  0.2152  0.0556
15294SOL    HW163874  10.629   8.019  13.351 -0.2289 -1.7028 -1.5075
15294SOL    HW263875  10.499   8.094  13.328 -0.4098 -1.2136  0.8840
15295SOL     OW63876   0.757   3.677   8.069 -0.5625 -0.0919  0.1620
15295SOL    HW163877   0.719   3.735   8.003 -1.7553  1.3323  2.0117
15295SOL    HW263878   0.683   3.653   8.125  0.3043 -1.7729  0.6391
15296SOL     OW63879   5.182   5.528   6.075  0.0099  0.0851 -0.0321
15296SOL    HW163880   5.172   5.620   6.048 -0.7917 -0.0028 -0.0572
15296SOL    HW263881   5.248   5.493   6.015  0.1003  0.5628 -0.2200
15297SOL     OW63882   5.442   2.748   7.789 -0.0604  0.6253  0.3554
15297SOL    HW163883   5.484   2.810   7.729  0.2784 -1.1888 -1.3855
15297SOL    HW263884   5.455   2.663   7.748 -1.8559 -0.4563  1.8881
15298SOL     OW63885  13.661   0.104  11.251  0.4700  0.3441 -0.1895
15298SOL    HW163886  13.608   0.127  11.328 -0.0327  1.0741 -0.7320
15298SOL    HW263887  13.621   0.024  11.217  0.7604 -0.0379  0.3684
15299SOL     OW63888  13.383  11.237   7.233 -0.0780  0.1706 -0.8801
15299SOL    HW163889  13.419  11.152   7.258  1.0502 -0.3833 -3.9278
15299SOL    HW263890  13.314  11.217   7.170 -0.6958  1.5002 -0.6644
15300SOL     OW63891  11.419  10.999   6.013 -0.0433  0.1767  0.2825
15300SOL    HW163892  11.345  10.942   5.992  1.6415 -1.3696 -1.9617
15300SOL    HW263893  11.398  11.082   5.970 -1.8321  0.8817  2.3334
15301SOL     OW63894   4.642   4.332  12.446 -0.2364  0.2041  0.1009
15301SOL    HW163895   4.609   4.251  12.485  0.8502 -0.1729  0.2633
15301SOL    HW263896   4.706   4.303  12.381 -1.5474  0.8497 -1.5361
15302SOL     OW63897   4.669   6.755  10.452  0.0949  0.2176  0.2379
15302SOL    HW163898   4.680   6.830  10.510  0.8023 -0.8049  1.5083
15302SOL    HW263899   4.748   6.703  10.467 -1.0679 -1.5372  0.5808
15303SOL     OW63900  12.983   2.793  12.415  0.2643 -0.3430  0.1784
15303SOL    HW163901  12.900   2.748  12.399  0.0506  0.6773 -2.0262
15303SOL    HW263902  12.957   2.883  12.436  0.7525  0.4540 -2.2827
15304SOL     OW63903  10.138   0.288   4.160  0.1568 -0.2415 -0.7106
15304SOL    HW163904  10.210   0.270   4.221 -0.3710  0.8288  0.2545
15304SOL    HW263905  10.076   0.341   4.210 -0.6125  0.1083 -1.9854
15305SOL     OW63906   2.679   2.929  11.576  0.1478 -0.5328  0.2321
15305SOL    HW163907   2.697   3.020  11.598  0.5601 -0.7008  0.6003
15305SOL    HW263908   2.732   2.878  11.638  0.0477 -1.0216 -0.0780
15306SOL     OW63909   1.229   2.768   2.173 -0.3550 -0.6735  0.2740
15306SOL    HW163910   1.134   2.763   2.171 -0.5167  1.2701 -2.0400
15306SOL    HW263911   1.255   2.756   2.081  1.5105  0.2108  0.6407
15307SOL     OW63912   8.963  13.473  11.557  0.0924  0.7772  0.7756
15307SOL    HW163913   8.928  13.494  11.471 -0.1688  0.8498  0.8983
15307SOL    HW263914   9.056  13.457  11.542  0.0647  0.8774  0.4955
15308SOL     OW63915   6.154  13.575   9.116  0.1345 -0.1292 -0.6964
15308SOL    HW163916   6.168  13.670   9.123 -0.4302 -0.0719 -0.2991
15308SOL    HW263917   6.240  13.540   9.092  1.5354  0.0327  3.3176
15309SOL     OW63918   5.457   2.816   8.734  0.6169 -0.2792  0.1319
15309SOL    HW163919   5.507   2.735   8.725  1.5103  0.2250  0.4456
15309SOL    HW263920   5.390   2.796   8.799  0.4099 -0.9694 -0.2980
15310SOL     OW63921   3.927  11.723   9.823 -0.0956  0.8113  0.7106
15310SOL    HW163922   3.895  11.754   9.908  2.1993  1.0591  1.5489
15310SOL    HW263923   4.007  11.675   9.844 -0.1429 -0.1813 -1.2228
15311SOL     OW63924  13.819   7.441   1.434  0.4615  0.3649  0.3913
15311SOL    HW163925  13.824   7.465   1.341  1.0783  2.6799  0.9784
15311SOL    HW263926  13.884   7.371   1.444  0.5026  0.1988 -0.8717
15312SOL     OW63927   6.132  11.309   7.084  0.2099  0.3752  0.0508
15312SOL    HW163928   6.040  11.310   7.058  0.2348 -0.3212 -0.0744
15312SOL    HW263929   6.173  11.248   7.023  0.5323 -0.1963  0.8301
15313SOL     OW63930   1.936  10.681   8.346  0.1555  0.5161  0.8377
15313SOL    HW163931   2.020  10.651   8.313 -0.3817 -0.5010  0.3541
15313SOL    HW263932   1.914  10.757   8.292 -0.1953 -0.4628 -0.4508
15314SOL     OW63933   8.144   7.577  11.421  0.5508  0.1546 -0.5319
15314SOL    HW163934   8.061   7.558  11.464  1.3948  0.8838  1.5510
15314SOL    HW263935   8.187   7.492  11.412  0.6437  0.0588  0.7303
15315SOL     OW63936  13.604   5.785   8.815 -0.6166  0.2218 -0.4437
15315SOL    HW163937  13.524   5.751   8.854 -0.3169  2.5874  2.6327
15315SOL    HW263938  13.603   5.878   8.836  2.9680  0.3275 -0.1536
15316SOL     OW63939   1.241   7.983   9.053 -0.7592 -0.4004 -0.4636
15316SOL    HW163940   1.177   7.920   9.019 -1.9936  1.2969 -1.4212
15316SOL    HW263941   1.202   8.016   9.134 -1.1772  0.7110 -1.1015
15317SOL     OW63942   7.528   4.737  12.825  0.5306 -0.2371  0.0454
15317SOL    HW163943   7.572   4.724  12.741  0.6390  2.1238 -0.3234
15317SOL    HW263944   7.436   4.753  12.803  0.3598 -0.6164  0.4590
15318SOL     OW63945   7.609  13.583   2.986 -0.3402  0.3428 -0.5487
15318SOL    HW163946   7.577  13.502   2.945 -2.4834  2.1488 -2.7352
15318SOL    HW263947   7.573  13.580   3.075 -1.1266 -0.6915 -0.8763
15319SOL     OW63948   3.099   9.992   8.450 -0.1379  0.2592  0.5925
15319SOL    HW163949   3.140   9.929   8.390 -0.0609 -1.2290  2.1331
15319SOL    HW263950   3.169  10.051   8.475  0.2555 -0.1963  0.5809
15320SOL     OW63951   8.369  11.379   7.100  0.0434  0.0149  0.3639
15320SOL    HW163952   8.449  11.355   7.147 -0.5193 -0.0544  1.3056
15320SOL    HW263953   8.299  11.363   7.162 -0.8342 -1.1121 -0.8729
15321SOL     OW63954   1.830   5.079   3.153 -0.3068  0.1066 -0.2783
15321SOL    HW163955   1.882   5.115   3.081  0.7017 -1.5922 -0.4740
15321SOL    HW263956   1.745   5.058   3.114 -0.0440 -0.0349 -0.7812
15322SOL     OW63957   4.625  13.859  10.483 -0.0149  0.3997  0.2474
15322SOL    HW163958   4.603  13.951  10.497  1.0471  0.3680  2.6444
15322SOL    HW263959   4.639  13.824  10.571  0.5613 -1.8215 -0.6581
15323SOL     OW63960   3.574  10.287   1.745  0.2622 -0.8043 -0.1425
15323SOL    HW163961   3.643  10.321   1.802 -1.4388 -1.5216  2.5342
15323SOL    HW263962   3.606  10.202   1.716  0.5863 -1.0894  0.9895
15324SOL     OW63963   9.120   2.579   2.191  0.0112 -0.0319  0.0674
15324SOL    HW163964   9.204   2.594   2.234  0.7189  1.2284 -1.6600
15324SOL    HW263965   9.142   2.526   2.115 -0.6442  0.8671 -0.7665
15325SOL     OW63966   9.781   5.258   6.343  0.2694 -0.6440  0.1529
15325SOL    HW163967   9.793   5.253   6.249 -0.7312  1.7297 -0.1909
15325SOL    HW263968   9.760   5.350   6.359 -0.3551 -1.1359  2.5967
15326SOL     OW63969  13.237   6.232  10.773 -0.1727  0.1093 -0.2119
15326SOL    HW163970  13.287   6.218  10.854 -0.8122  0.9655  0.3452
15326SOL    HW263971  13.290   6.294  10.723 -0.3426  0.4863  0.0735
15327SOL     OW63972   8.659   6.498   5.035  0.5001 -0.3771  0.1714
15327SOL    HW163973   8.567   6.483   5.016  0.8685  0.7340 -3.1319
15327SOL    HW263974   8.699   6.410   5.035 -0.1688 -0.7018 -1.0226
15328SOL     OW63975   3.308   1.096   4.558 -0.0070 -0.1600  0.1563
15328SOL    HW163976   3.384   1.130   4.511  0.5738 -1.1826  0.3121
15328SOL    HW263977   3.283   1.166   4.618  1.1937 -0.0192  0.5324
15329SOL     OW63978  13.202   3.340   7.032 -0.1145 -0.1380  0.6791
15329SOL    HW163979  13.157   3.422   7.054  0.3957  0.3238  0.0142
15329SOL    HW263980  13.221   3.347   6.938  0.5912 -0.6965  0.7719
15330SOL     OW63981   7.914  10.693  10.797  0.2086 -0.4706  0.1708
15330SOL    HW163982   7.870  10.675  10.715  3.1955  0.7797 -1.8720
15330SOL    HW263983   7.859  10.759  10.840 -1.3409 -1.0552 -0.8506
15331SOL     OW63984  14.116   0.044   3.094  0.0926  0.2893 -0.0398
15331SOL    HW163985  14.103   0.034   3.188 -2.7075 -1.2274 -0.4883
15331SOL    HW263986  14.030   0.071   3.061  0.9118  0.4175 -2.2304
15332SOL     OW63987  12.900   7.724   4.785 -0.3223  0.4476 -0.6172
15332SOL    HW163988  12.810   7.750   4.804 -1.2077 -0.0684 -3.5362
15332SOL    HW263989  12.892   7.667   4.708  2.3074 -1.5252  0.4284
15333SOL     OW63990   5.522   5.367   2.865  0.6073 -0.8084  0.0969
15333SOL    HW163991   5.576   5.446   2.856  0.1354 -0.5197 -0.2319
15333SOL    HW263992   5.572   5.311   2.925  1.6915 -0.9120 -0.8667
15334SOL     OW63993  11.490   3.380   2.247 -0.6357 -0.3056  0.2318
15334SOL    HW163994  11.409   3.408   2.205 -0.2001 -2.4432 -2.2818
15334SOL    HW263995  11.500   3.288   2.222  2.9203  0.0530 -0.1777
15335SOL     OW63996   8.585  11.384   7.517 -0.5833  0.6998  0.1202
15335SOL    HW163997   8.675  11.410   7.497 -0.6493  0.6896 -0.1854
15335SOL    HW263998   8.592  11.338   7.601 -0.2306  0.2611 -0.1416
15336SOL     OW63999   1.185   6.011   7.409 -0.4649  0.3437  0.3626
15336SOL    HW164000   1.151   6.097   7.385  0.0191  0.5033  0.2363
15336SOL    HW264001   1.111   5.951   7.395 -0.4469  0.5608 -0.7319
15337SOL     OW64002  14.000  14.128  11.058  0.2576 -0.1076  0.7624
15337SOL    HW164003  14.072  14.175  11.017 -0.7333  4.5238  3.6240
15337SOL    HW264004  13.929  14.131  10.993  1.2431 -0.7507 -0.3745
15338SOL     OW64005  11.774  11.192  12.041 -0.6177 -0.8293  0.1560
15338SOL    HW164006  11.716  11.231  11.975  0.3544 -1.8001 -1.3154
15338SOL    HW264007  11.849  11.160  11.991  1.7967  1.3781  2.1211
15339SOL     OW64008   8.725   9.483   1.305 -0.4972 -0.1670 -0.0226
15339SOL    HW164009   8.771   9.563   1.329  1.6638 -1.6725  1.1880
15339SOL    HW264010   8.668   9.464   1.380  0.2473 -0.6393  0.4272
15340SOL     OW64011   8.194   5.575   4.171 -0.0862 -0.8220  0.2390
15340SOL    HW164012   8.230   5.558   4.084  0.0631 -0.9760  0.3290
15340SOL    HW264013   8.251   5.525   4.230 -1.1456 -2.0220  0.2772
15341SOL     OW64014   0.185   7.185   0.230 -0.2328  0.2841 -0.0883
15341SOL    HW164015   0.127   7.238   0.175 -0.1363 -0.4978 -0.9622
15341SOL    HW264016   0.259   7.165   0.174  1.0503  1.4975  1.1031
15342SOL     OW64017  10.098   5.111   8.578 -0.0328  0.4165  0.3068
15342SOL    HW164018  10.172   5.070   8.622  1.6370  2.0063 -0.8847
15342SOL    HW264019  10.023   5.055   8.600  1.9299 -2.8965 -0.7170
15343SOL     OW64020   9.850   6.340   2.257  0.3063 -0.2996 -0.2544
15343SOL    HW164021   9.883   6.292   2.181 -0.2655 -1.2739  0.0917
15343SOL    HW264022   9.769   6.294   2.282 -0.7968  1.4442 -0.4835
15344SOL     OW64023   7.619   2.824   2.331  0.7661  0.2056  0.0422
15344SOL    HW164024   7.555   2.769   2.374  2.0360 -0.9325  0.5374
15344SOL    HW264025   7.703   2.783   2.349  1.7648  2.2316  0.3083
15345SOL     OW64026  12.282  13.293   4.056 -0.4018 -0.4568  0.2703
15345SOL    HW164027  12.215  13.234   4.090 -0.8294  0.3319  0.8077
15345SOL    HW264028  12.358  13.237   4.042 -1.2111 -1.3920 -0.4974
15346SOL     OW64029   0.787   1.074   8.789 -0.3602  0.2720 -0.7000
15346SOL    HW164030   0.739   0.991   8.793 -1.2091  0.7907  0.7745
15346SOL    HW264031   0.719   1.141   8.779  0.1385  0.9388  0.2450
15347SOL     OW64032   3.428  10.454   3.589  0.6120 -0.0152  0.2460
15347SOL    HW164033   3.371  10.525   3.561 -1.6121 -1.6270  0.4324
15347SOL    HW264034   3.455  10.478   3.678  0.7817  1.0774 -0.0923
15348SOL     OW64035   7.462   6.806  13.524  0.5009  0.0482  0.1304
15348SOL    HW164036   7.456   6.891  13.480  3.9633  1.3109  1.7150
15348SOL    HW264037   7.464   6.828  13.617  2.3578 -1.6610  0.5461
15349SOL     OW64038  11.066   9.104  11.603 -0.0224  0.5507 -0.2090
15349SOL    HW164039  11.112   9.074  11.681 -1.2649  0.2485  0.4454
15349SOL    HW264040  11.002   9.034  11.585  0.9258  0.1163 -2.1266
15350SOL     OW64041   4.526   5.485   0.360  0.3341 -0.1944  0.2001
15350SOL    HW164042   4.471   5.517   0.288 -1.5101 -0.1300  1.5689
15350SOL    HW264043   4.476   5.412   0.398  0.5889  0.6115  2.2147
15351SOL     OW64044   7.187   5.552   7.546  0.0994  0.0314  0.7848
15351SOL    HW164045   7.208   5.628   7.601 -1.5273  0.3428  1.0337
15351SOL    HW264046   7.193   5.477   7.605 -1.0048  0.2973  1.2688
15352SOL     OW64047   2.869   8.327  13.537  0.1353 -0.2174  0.0925
15352SOL    HW164048   2.816   8.364  13.607  0.3688 -0.8757  0.6341
15352SOL    HW264049   2.934   8.273  13.583  0.1294 -0.8607 -0.6429
15353SOL     OW64050   8.398   9.072   2.485 -0.3057  0.1179 -0.7041
15353SOL    HW164051   8.490   9.077   2.511 -0.5276 -0.7082  0.2819
15353SOL    HW264052   8.357   9.018   2.552 -1.3921 -0.0388 -1.4725
15354SOL     OW64053  10.698   9.032   1.007  0.8683  0.0859 -0.1062
15354SOL    HW164054  10.647   9.103   0.968  1.1074  0.3292  0.0196
15354SOL    HW264055  10.684   8.958   0.948 -1.6095 -0.6055  1.1969
15355SOL     OW64056   3.225   1.583  11.508 -0.6644  0.1333 -0.2582
15355SOL    HW164057   3.133   1.577  11.535 -1.5766  2.4064 -2.5225
15355SOL    HW264058   3.227   1.541  11.422  0.3611  0.4595 -0.3977
15356SOL     OW64059   0.024  10.494  14.062 -0.0613  0.1255  0.1538
15356SOL    HW164060   0.086  10.511  14.133  0.8736 -1.0331 -0.3374
15356SOL    HW264061  -0.062  10.509  14.101  0.4922  1.2736  1.0001
15357SOL     OW64062   1.461   3.305   8.535  0.3921 -0.0622 -0.4435
15357SOL    HW164063   1.437   3.378   8.593  0.0553 -1.1131  0.7770
15357SOL    HW264064   1.394   3.306   8.466  0.0595  0.4202 -0.1221
15358SOL     OW64065   8.755   0.842   6.351  0.2659 -0.1649 -0.7016
15358SOL    HW164066   8.844   0.866   6.375 -0.4396  1.2332  0.6750
15358SOL    HW264067   8.757   0.833   6.256  1.9764 -0.6943 -0.6409
15359SOL     OW64068   8.088  11.336   1.599 -0.1672 -0.2152  0.4868
15359SOL    HW164069   8.057  11.395   1.531  1.0215 -2.1670 -1.8704
15359SOL    HW264070   8.175  11.370   1.622 -0.7022  0.6368  1.3568
15360SOL     OW64071   5.506   1.205   4.882  0.5669  0.3607  0.5886
15360SOL    HW164072   5.593   1.224   4.917  0.9258  0.1161 -0.1434
15360SOL    HW264073   5.457   1.286   4.895  0.9510  0.5529  0.8743
15361SOL     OW64074   0.597   5.801   6.819 -0.0558  0.0295 -0.0315
15361SOL    HW164075   0.571   5.710   6.813 -0.7137  0.1858  0.3513
15361SOL    HW264076   0.668   5.811   6.756 -1.1059 -0.3411 -1.2899
15362SOL     OW64077   6.051   4.319   9.491  0.3436  0.1178  0.0774
15362SOL    HW164078   6.044   4.246   9.429  1.1539 -0.0465  0.1678
15362SOL    HW264079   5.963   4.356   9.495 -0.4320 -1.6931  1.0569
15363SOL     OW64080   8.154   5.559   9.019  0.1001 -0.4530  0.5096
15363SOL    HW164081   8.098   5.575   8.943  3.8156 -0.8793 -2.6472
15363SOL    HW264082   8.108   5.492   9.069 -3.2853  0.9872 -0.3756
15364SOL     OW64083   1.208  13.638   7.942 -0.2194 -0.3456 -0.1591
15364SOL    HW164084   1.262  13.679   7.874  1.8996 -0.9197  1.0830
15364SOL    HW264085   1.230  13.545   7.937 -1.3787 -0.6523  0.1735
15365SOL     OW64086  10.915   9.905  12.205 -0.3056  0.1673  0.5618
15365SOL    HW164087  10.954   9.954  12.133 -0.4493 -0.1452  0.2707
15365SOL    HW264088  10.855   9.967  12.246 -1.1899 -0.0354 -0.3805
15366SOL     OW64089   7.439   1.951   7.864  0.5307  0.2248 -0.3719
15366SOL    HW164090   7.499   1.877   7.876 -0.5679 -0.9959 -1.8417
15366SOL    HW264091   7.445   2.001   7.945 -1.3031 -3.4289  2.3121
15367SOL     OW64092  12.092   8.279   0.616 -0.6159 -0.0462  0.1989
15367SOL    HW164093  12.107   8.191   0.651  0.1967 -0.4727 -1.1274
15367SOL    HW264094  12.067   8.264   0.525 -0.6803  1.0972  0.0134
15368SOL     OW64095  10.255   6.643  10.040 -0.2253  0.0245  0.3157
15368SOL    HW164096  10.308   6.617  10.115  0.6919  0.2401 -0.2394
15368SOL    HW264097  10.165   6.641  10.072  0.1332 -0.1129  1.3479
15369SOL     OW64098  13.591  12.530  11.218  0.1320 -0.5170  0.3018
15369SOL    HW164099  13.609  12.615  11.177  1.2643 -2.2683 -3.2503
15369SOL    HW264100  13.507  12.503  11.180 -0.0321 -1.1536  1.1001
15370SOL     OW64101   5.247  13.381   9.292  0.2328 -0.3517  0.1494
15370SOL    HW164102   5.192  13.330   9.352 -1.6352  0.5118 -0.7469
15370SOL    HW264103   5.291  13.444   9.348 -2.5217  1.3629  0.5846
15371SOL     OW64104  12.676   3.233  11.253  0.1842  0.7325  0.2859
15371SOL    HW164105  12.693   3.157  11.197  0.7205  0.1526  1.1992
15371SOL    HW264106  12.653   3.195  11.338 -1.2379  1.5797  0.3120
15372SOL     OW64107  13.849   5.319   4.328 -0.4007 -0.4211 -0.0802
15372SOL    HW164108  13.881   5.261   4.397 -0.0605 -0.1650 -0.0219
15372SOL    HW264109  13.762   5.346   4.358 -0.8805 -1.4838 -0.4551
15373SOL     OW64110  11.664   9.946   1.912  0.0320  0.3784  0.6991
15373SOL    HW164111  11.754   9.970   1.889  0.7702 -2.1613  0.6737
15373SOL    HW264112  11.662   9.949   2.007 -0.1370  1.2574  0.6796
15374SOL     OW64113   6.811   8.194  10.853  0.1938  0.7597 -0.4004
15374SOL    HW164114   6.851   8.258  10.911 -1.7119  0.4999  1.3232
15374SOL    HW264115   6.782   8.124  10.911 -1.1641  0.1484 -1.7471
15375SOL     OW64116  12.194  11.050   9.615 -0.0021  0.2045 -0.2648
15375SOL    HW164117  12.280  11.067   9.655 -0.8756 -0.6582  2.2069
15375SOL    HW264118  12.210  11.055   9.521  2.7657  0.0047  0.0947
15376SOL     OW64119   3.916   3.393   9.577 -0.0562  0.2733 -0.0448
15376SOL    HW164120   3.863   3.351   9.510  0.7333 -0.1512 -0.4200
15376SOL    HW264121   4.005   3.394   9.540  0.2905  0.5113  0.7697
15377SOL     OW64122   9.184  10.308   0.779 -0.2683  0.2414  0.7447
15377SOL    HW164123   9.171  10.403   0.785  1.0646  0.5182 -0.1470
15377SOL    HW264124   9.217  10.294   0.690 -1.4330 -1.2054  0.5039
15378SOL     OW64125   3.896   6.808  13.278  0.5251 -0.2312 -0.0234
15378SOL    HW164126   3.981   6.796  13.321  1.1465  1.3932 -0.7422
15378SOL    HW264127   3.917   6.807  13.184 -0.0581  1.2886 -0.1957
15379SOL     OW64128   4.606   1.769  10.427  0.5609 -0.1977 -0.1354
15379SOL    HW164129   4.652   1.846  10.461  1.5203 -0.7489 -0.1792
15379SOL    HW264130   4.553   1.739  10.500  1.2043 -0.2845  0.3014
15380SOL     OW64131   7.800   1.860   0.422  0.3872  0.0921 -0.2696
15380SOL    HW164132   7.842   1.922   0.363 -0.2363  0.8430  0.0513
15380SOL    HW264133   7.854   1.860   0.501 -0.3443  1.2650  0.2494
15381SOL     OW64134  11.574   9.319   6.239 -0.4049  0.5791 -0.0190
15381SOL    HW164135  11.634   9.379   6.284  0.4733 -0.1734 -0.1496
15381SOL    HW264136  11.496   9.317   6.293  0.6519 -0.3732  1.5528
15382SOL     OW64137  12.350   9.563   4.709  0.2146  0.3255 -0.0702
15382SOL    HW164138  12.371   9.645   4.663  0.6239  0.1341 -0.2326
15382SOL    HW264139  12.409   9.499   4.670  0.7390  0.2070  0.8992
15383SOL     OW64140   2.850  12.559   8.449 -0.1462  0.0186 -0.8780
15383SOL    HW164141   2.764  12.584   8.415 -0.8564 -0.3027  0.6138
15383SOL    HW264142   2.885  12.500   8.382 -2.1553 -1.8107 -0.4347
15384SOL     OW64143   8.816  13.240   9.256  0.0262 -0.5045 -0.0191
15384SOL    HW164144   8.847  13.159   9.297 -0.5776 -0.3951  0.6726
15384SOL    HW264145   8.896  13.285   9.229  0.4922 -0.3425  1.5027
15385SOL     OW64146   9.344  10.078   9.352 -0.2547 -0.5294 -0.2130
15385SOL    HW164147   9.280  10.063   9.421  1.1163 -1.7665  0.8474
15385SOL    HW264148   9.312  10.025   9.278 -0.0479 -1.8240  0.5945
15386SOL     OW64149   7.703   3.527  11.969  0.1423  0.1385 -0.0554
15386SOL    HW164150   7.714   3.621  11.952 -1.9312  0.3480 -0.4844
15386SOL    HW264151   7.769   3.507  12.036  1.3288  1.6467 -0.7130
15387SOL     OW64152  12.448  10.774  10.650  0.4889 -0.2191  0.0604
15387SOL    HW164153  12.385  10.802  10.583 -1.5459 -1.9613  1.1264
15387SOL    HW264154  12.503  10.851  10.664  1.5492  0.0283 -4.0700
15388SOL     OW64155  12.434   9.034   6.363  0.3086 -0.6933 -0.9911
15388SOL    HW164156  12.501   8.971   6.390  1.1519  0.6504  0.1542
15388SOL    HW264157  12.354   8.981   6.353  0.7281 -1.7900  0.9821
15389SOL     OW64158   3.242   2.057   7.012  0.7710  0.1393 -0.4435
15389SOL    HW164159   3.169   2.014   7.056  0.2722  1.2124 -0.1777
15389SOL    HW264160   3.231   2.034   6.920  1.7031 -1.9468 -0.0859
15390SOL     OW64161  11.767   3.084   9.236  0.0115 -0.5502  0.1989
15390SOL    HW164162  11.862   3.089   9.238  0.0382 -0.7193 -0.5475
15390SOL    HW264163  11.740   3.160   9.184 -0.2143 -0.9596 -0.2928
15391SOL     OW64164   1.838   3.300   8.745 -0.1405 -0.3206  0.5044
15391SOL    HW164165   1.786   3.221   8.728 -0.0065 -0.1801 -0.6793
15391SOL    HW264166   1.924   3.268   8.771  0.6331 -0.6688 -2.1325
15392SOL     OW64167   5.149   4.461  14.041 -0.4300  0.6660 -0.1541
15392SOL    HW164168   5.206   4.461  13.965  0.5347  0.3342  0.5433
15392SOL    HW264169   5.060   4.462  14.005  0.0052  1.0915 -1.2611
15393SOL     OW64170   4.926   7.615   8.688 -0.1223 -0.0204  0.0501
15393SOL    HW164171   4.995   7.676   8.712 -0.0460 -0.4049  0.8179
15393SOL    HW264172   4.954   7.531   8.723  0.2603 -0.7347 -1.8579
15394SOL     OW64173   3.307   7.293   1.563 -0.4462 -0.2823 -0.3199
15394SOL    HW164174   3.236   7.330   1.511  0.3402  0.9683 -0.5404
15394SOL    HW264175   3.274   7.208   1.593 -1.4381 -0.3910 -1.6767
15395SOL     OW64176   5.401   8.534   3.442 -0.5893 -0.8523  0.4883
15395SOL    HW164177   5.437   8.455   3.480  0.7243  0.5780  2.3742
15395SOL    HW264178   5.341   8.568   3.508  0.3175  0.7126  0.5612
15396SOL     OW64179  10.917   3.908   5.584 -0.7444 -0.1032 -0.1253
15396SOL    HW164180  10.894   3.976   5.520  2.3160  0.8240 -0.4421
15396SOL    HW264181  10.868   3.831   5.556  0.0244  0.4124 -3.3566
15397SOL     OW64182   6.760   6.384  12.820 -0.4496  0.0093 -0.4439
15397SOL    HW164183   6.712   6.339  12.891 -0.1107  0.0846 -0.1662
15397SOL    HW264184   6.852   6.379  12.847 -0.4350  1.1683 -0.2427
15398SOL     OW64185  10.305  11.255  11.069 -0.0677 -0.3169 -0.3556
15398SOL    HW164186  10.373  11.189  11.084  1.4143  0.9552 -1.2443
15398SOL    HW264187  10.232  11.226  11.125  1.1428 -1.7749  0.5686
15399SOL     OW64188   9.400   6.691   1.128 -0.2483 -0.6269  0.6270
15399SOL    HW164189   9.484   6.728   1.099  0.3152 -3.3085 -1.5306
15399SOL    HW264190   9.420   6.651   1.213  0.3292 -0.1899  0.7048
15400SOL     OW64191   7.043   1.205  11.886  0.5274 -0.1399 -0.4419
15400SOL    HW164192   6.948   1.199  11.885  0.3271  2.0004  0.2918
15400SOL    HW264193   7.073   1.116  11.866 -1.5953 -0.7016 -1.4216
15401SOL     OW64194  11.264   3.170  12.723 -0.1358 -1.0489 -0.5700
15401SOL    HW164195  11.199   3.181  12.792  0.0739 -0.6887 -0.4289
15401SOL    HW264196  11.213   3.167  12.642 -0.1653  2.5165 -0.8077
15402SOL     OW64197   5.346   6.774   2.059  0.1132 -0.2462  0.0672
15402SOL    HW164198   5.373   6.861   2.030  1.3229 -0.7740 -0.4540
15402SOL    HW264199   5.268   6.754   2.007  0.8643 -0.1949 -1.1110
15403SOL     OW64200  13.222  12.675   7.962  1.0135  0.4190 -0.2841
15403SOL    HW164201  13.217  12.648   8.054  0.3873 -0.3910 -0.5477
15403SOL    HW264202  13.234  12.770   7.966  0.2215  0.4960  0.6265
15404SOL     OW64203  12.756   5.155  12.641 -0.4737 -0.3493  0.4264
15404SOL    HW164204  12.831   5.125  12.590  0.4681  2.5081 -0.0541
15404SOL    HW264205  12.682   5.149  12.580  0.0998  0.3283 -0.3629
15405SOL     OW64206  10.719   5.107   4.800  0.3727  0.0553  0.4567
15405SOL    HW164207  10.798   5.088   4.750 -0.9212  0.8444 -2.0322
15405SOL    HW264208  10.666   5.027   4.792  0.4767 -0.1119  1.3015
15406SOL     OW64209  11.160   2.842   7.402  0.3056 -0.1573  0.2159
15406SOL    HW164210  11.142   2.934   7.422 -1.8187 -0.5872  0.4808
15406SOL    HW264211  11.233   2.845   7.340  0.1367  1.7031  0.0478
15407SOL     OW64212   1.943   3.521   2.011 -0.7716  0.2095  0.0784
15407SOL    HW164213   1.862   3.477   2.036  0.2834 -2.2851 -0.5817
15407SOL    HW264214   1.918   3.580   1.940 -2.1711  0.4346  0.7258
15408SOL     OW64215   9.883  10.814  10.059  0.0543  0.0624 -0.5729
15408SOL    HW164216   9.797  10.830  10.019 -0.2434  1.0939  0.4405
15408SOL    HW264217   9.876  10.727  10.097 -0.2271 -0.2350 -1.2745
15409SOL     OW64218   3.994   8.679  11.364 -0.0127  0.2857 -0.4618
15409SOL    HW164219   4.073   8.641  11.327  0.0077 -0.7781  0.5962
15409SOL    HW264220   3.953   8.607  11.412 -0.1530  1.5251  1.3631
15410SOL     OW64221   1.311   9.909   9.943 -0.4307  0.4739  0.2976
15410SOL    HW164222   1.337   9.990   9.899  0.9608 -0.0912  0.0298
15410SOL    HW264223   1.216   9.908   9.938 -0.3996  1.4985 -0.7630
15411SOL     OW64224  13.126   0.718   8.357  0.0898  0.2214 -0.0096
15411SOL    HW164225  13.033   0.735   8.344 -0.2645 -1.0505  0.6885
15411SOL    HW264226  13.159   0.696   8.269 -0.1863  0.9772 -0.3093
15412SOL     OW64227   6.930  13.147  12.684 -1.1262 -0.2031  0.8168
15412SOL    HW164228   6.855  13.121  12.737 -0.2623 -1.4919  1.4584
15412SOL    HW264229   6.967  13.065  12.653 -0.1497  0.4283  0.2570
15413SOL     OW64230   8.600  12.566   0.330  0.0806  0.1950 -0.1390
15413SOL    HW164231   8.676  12.600   0.377 -0.6951  2.7412 -0.5921
15413SOL    HW264232   8.623  12.574   0.237 -0.3898  0.1396 -0.2642
15414SOL     OW64233   1.455  10.562  12.783 -0.0279  0.5737 -0.4344
15414SOL    HW164234   1.452  10.626  12.854 -0.1080 -0.0148  0.1016
15414SOL    HW264235   1.395  10.596  12.717  2.1958  2.6499 -1.5405
15415SOL     OW64236  13.851   8.631   8.120  0.2462  0.6364 -0.2894
15415SOL    HW164237  13.792   8.706   8.117  0.0334  0.4500 -1.1830
15415SOL    HW264238  13.912   8.650   8.191 -0.1886  1.3631 -0.1103
15416SOL     OW64239   1.201   7.428  12.788  0.1697 -0.3445  0.0294
15416SOL    HW164240   1.164   7.340  12.776 -0.8654  0.1058 -0.1781
15416SOL    HW264241   1.160   7.461  12.867  1.3579 -0.4284  0.7098
15417SOL     OW64242   0.625   4.445  13.473 -0.2742  0.4447  0.2375
15417SOL    HW164243   0.621   4.390  13.395 -0.0567  1.7656 -0.7518
15417SOL    HW264244   0.549   4.420  13.526  0.4135 -1.5284  0.3562
15418SOL     OW64245   7.896  14.135   2.385 -0.2869  0.6516  0.2876
15418SOL    HW164246   7.865  14.131   2.295  0.7729 -1.2023 -0.0533
15418SOL    HW264247   7.846  14.206   2.425 -1.8495  0.5294 -1.3411
15419SOL     OW64248   7.963   4.755  13.593  0.1111 -0.3370  0.1689
15419SOL    HW164249   7.988   4.745  13.501  0.3107 -0.9931  0.2899
15419SOL    HW264250   7.871   4.783  13.589  0.4802  0.9020 -0.2455
15420SOL     OW64251   1.110   1.354   3.253 -0.3298  0.1593 -0.0410
15420SOL    HW164252   1.038   1.294   3.272 -0.5467  0.7806  1.1947
15420SOL    HW264253   1.180   1.298   3.218 -0.4623 -0.8450  1.2436
15421SOL     OW64254  13.390  13.445   3.671  0.2611  0.0716  0.5019
15421SOL    HW164255  13.374  13.396   3.591  0.2181 -0.6754  0.9582
15421SOL    HW264256  13.482  13.427   3.692  0.4080  0.6401  0.3776
15422SOL     OW64257   1.161   4.583   2.304  0.1709 -0.0181  0.0063
15422SOL    HW164258   1.169   4.488   2.312 -2.1635 -0.1970  1.0479
15422SOL    HW264259   1.140   4.613   2.393  0.5587  1.4556 -0.3582
15423SOL     OW64260   8.545   8.548   9.466 -0.0873  0.0166 -0.3555
15423SOL    HW164261   8.466   8.504   9.436  0.0051  0.2829 -1.0039
15423SOL    HW264262   8.526   8.572   9.557 -0.7446  0.0626 -0.4992
15424SOL     OW64263   0.203  13.373   9.952  0.2100 -0.5082 -0.5324
15424SOL    HW164264   0.233  13.463   9.938 -0.3777 -0.0466  0.9144
15424SOL    HW264265   0.112  13.383   9.981 -0.0384 -1.6113 -0.8913
15425SOL     OW64266   1.540   0.400   2.622 -0.4449  0.4712 -0.3331
15425SOL    HW164267   1.633   0.422   2.614 -0.0779  0.1101  2.2606
15425SOL    HW264268   1.497   0.483   2.643 -0.5289  0.4099 -0.2618
15426SOL     OW64269  10.211   3.193  10.309 -0.2411  0.0967  0.0654
15426SOL    HW164270  10.131   3.221  10.264 -1.2661 -1.9904  0.4737
15426SOL    HW264271  10.195   3.212  10.401  0.6226  1.5802 -0.0606
15427SOL     OW64272   0.681   9.056  10.627 -0.0594 -0.3575  0.0326
15427SOL    HW164273   0.598   9.082  10.588 -1.7360 -1.3017  2.7373
15427SOL    HW264274   0.747   9.109  10.581 -1.7311 -1.5115 -4.1158
15428SOL     OW64275  11.426  11.117   1.684  0.6118 -0.3260 -0.5379
15428SOL    HW164276  11.357  11.059   1.715  1.0850 -0.1371  0.9605
15428SOL    HW264277  11.445  11.174   1.759  0.0756  1.8896 -1.9890
15429SOL     OW64278   6.875   4.642  12.424  0.2738  0.0615  0.0410
15429SOL    HW164279   6.932   4.692  12.366 -0.4694 -1.2156 -1.8809
15429SOL    HW264280   6.935   4.593  12.480  1.0178  0.9681  0.0508
15430SOL     OW64281   0.825   2.605   6.775  0.5723  0.0162  0.0400
15430SOL    HW164282   0.827   2.549   6.853 -1.4646 -2.4934 -1.5406
15430SOL    HW264283   0.733   2.633   6.768  0.5808 -0.2475 -1.6913
15431SOL     OW64284  11.749   4.638   3.981 -0.7519  0.0920 -0.6921
15431SOL    HW164285  11.816   4.607   3.919 -0.7821 -1.0330 -0.2021
15431SOL    HW264286  11.798   4.689   4.045 -0.7031  1.1629 -1.5458
15432SOL     OW64287   3.364   2.961   6.733 -0.2689  0.3098 -0.0330
15432SOL    HW164288   3.430   2.909   6.687  0.4457  0.3732  0.8879
15432SOL    HW264289   3.409   3.043   6.755 -0.6078  0.2848  0.7634
15433SOL     OW64290   0.311   7.061   4.306 -0.4726  0.0027 -0.5127
15433SOL    HW164291   0.224   7.098   4.321 -0.7945  0.1930 -2.5418
15433SOL    HW264292   0.302   7.011   4.225  1.2539 -0.2267 -0.6018
15434SOL     OW64293  10.754   2.113   5.609  0.0251  0.4264 -0.2426
15434SOL    HW164294  10.786   2.165   5.535 -0.3220  0.1186 -0.6115
15434SOL    HW264295  10.660   2.107   5.596  0.0516 -0.2592 -0.1813
15435SOL     OW64296   5.024  10.159  10.734 -0.4095  0.8663  0.0514
15435SOL    HW164297   5.003  10.212  10.811 -0.6400 -0.7698  1.1542
15435SOL    HW264298   5.119  10.155  10.732 -0.3912  1.2376 -0.0051
15436SOL     OW64299   3.647   4.285   8.727 -0.4883  0.3375 -0.1330
15436SOL    HW164300   3.611   4.214   8.675  3.9421 -1.2268 -1.4916
15436SOL    HW264301   3.682   4.243   8.805  1.3616  1.0931 -0.5020
15437SOL     OW64302   9.462  13.089  10.557  0.7100  0.3550  0.2932
15437SOL    HW164303   9.419  13.121  10.637  1.4341  0.4221  0.6715
15437SOL    HW264304   9.417  13.134  10.486 -1.6816 -1.6031  0.4366
15438SOL     OW64305  12.540   9.111   1.605  0.4141  0.0974 -0.4320
15438SOL    HW164306  12.451   9.115   1.571  0.6078  0.0925 -0.9515
15438SOL    HW264307  12.531   9.125   1.699  0.0558  2.2336 -0.7251
15439SOL     OW64308  10.854   7.920  12.152  0.2882 -0.7603  0.0748
15439SOL    HW164309  10.944   7.890  12.144  0.1618 -1.1984  0.2623
15439SOL    HW264310  10.826   7.887  12.238  0.4625  0.7371  0.7321
15440SOL     OW64311   5.860   2.097  12.472 -0.1873  0.0628 -0.0825
15440SOL    HW164312   5.905   2.079  12.554 -1.1614 -0.6013  0.3135
15440SOL    HW264313   5.845   2.011  12.433  0.7036  0.3877 -1.2117
15441SOL     OW64314  10.385   6.138   3.553 -0.2122 -0.0304 -0.0949
15441SOL    HW164315  10.419   6.064   3.503 -0.0338 -0.7176  1.0139
15441SOL    HW264316  10.438   6.212   3.525 -0.3516 -0.3170 -1.1755
15442SOL     OW64317   1.939   5.694   0.502  0.1055  0.0620 -0.3194
15442SOL    HW164318   1.862   5.646   0.471  0.8113 -0.1568 -1.8335
15442SOL    HW264319   1.925   5.783   0.471 -1.1020  0.8946  2.3123
15443SOL     OW64320   9.714   9.971   4.528 -0.3124 -0.3313  0.0258
15443SOL    HW164321   9.790   9.968   4.469 -0.0535 -1.4250  0.4081
15443SOL    HW264322   9.729   9.901   4.591 -1.0076  0.2835  0.8961
15444SOL     OW64323  12.804   9.655   9.831  0.2130  0.2722 -0.1561
15444SOL    HW164324  12.845   9.651   9.745  0.1794 -0.3344 -0.1437
15444SOL    HW264325  12.713   9.678   9.814  0.2688  0.4188 -0.2611
15445SOL     OW64326  10.235   4.820   6.907 -0.1519 -0.3181  0.4771
15445SOL    HW164327  10.277   4.740   6.874  0.3011 -0.4457  1.3241
15445SOL    HW264328  10.251   4.885   6.839 -1.1302 -1.1113 -0.5480
15446SOL     OW64329   3.066   8.398   0.859 -0.0654 -0.2604  0.3211
15446SOL    HW164330   2.984   8.447   0.857  0.6557  1.2310 -4.5110
15446SOL    HW264331   3.040   8.308   0.838 -0.5832 -0.0480  0.0297
15447SOL     OW64332  12.408   1.971   8.134 -0.0066  0.4162  0.0870
15447SOL    HW164333  12.395   2.006   8.222 -0.9407 -1.6614  0.8440
15447SOL    HW264334  12.438   1.881   8.148  0.3563  0.1980 -1.7365
15448SOL     OW64335   7.823   4.224  13.042 -0.4758 -0.8360  0.0079
15448SOL    HW164336   7.736   4.264  13.038  0.4736  1.2738 -1.5427
15448SOL    HW264337   7.856   4.247  13.129 -0.7098  0.0995 -0.1445
15449SOL     OW64338   7.385   8.865   3.580  0.2316 -0.3324 -0.0352
15449SOL    HW164339   7.450   8.841   3.646  0.1069 -0.0381  0.1987
15449SOL    HW264340   7.426   8.844   3.497  0.5529 -0.3191  0.1196
15450SOL     OW64341   7.063  10.199   2.698 -0.1434 -0.0323  0.1217
15450SOL    HW164342   7.011  10.146   2.637 -0.0922  0.8197 -0.6735
15450SOL    HW264343   7.148  10.210   2.654 -1.0166  2.9620 -1.0146
15451SOL     OW64344  13.294  12.774  12.917 -0.2266  0.2741  0.5942
15451SOL    HW164345  13.383  12.785  12.948  0.6319 -0.1232 -1.5462
15451SOL    HW264346  13.298  12.797  12.824 -2.0657 -0.9661  0.1536
15452SOL     OW64347   3.779   5.436   8.880  0.2815  0.1155  0.3934
15452SOL    HW164348   3.696   5.389   8.869 -0.2843  0.8364  1.3848
15452SOL    HW264349   3.757   5.527   8.860  0.8712  0.2872  0.5365
15453SOL     OW64350  13.653   7.526  10.807  0.3991  0.9913 -0.2304
15453SOL    HW164351  13.578   7.485  10.849  0.2263  2.0952  0.5890
15453SOL    HW264352  13.729   7.478  10.841  0.0376 -1.1735 -2.2709
15454SOL     OW64353  11.524   7.347   5.248 -0.7352  0.6505 -0.3150
15454SOL    HW164354  11.478   7.425   5.216 -1.1374  0.3482 -0.4806
15454SOL    HW264355  11.562   7.307   5.169  0.0009  1.0119 -0.1563
15455SOL     OW64356   8.176   7.375   9.435  0.7429 -0.9945 -0.1096
15455SOL    HW164357   8.255   7.339   9.396 -1.3385 -2.8774 -2.9672
15455SOL    HW264358   8.154   7.450   9.380  1.7871  1.1670  2.2131
15456SOL     OW64359   9.717  12.669  11.605 -0.1666  0.0648 -0.6461
15456SOL    HW164360   9.716  12.594  11.546  1.5678  1.0273 -1.9924
15456SOL    HW264361   9.661  12.734  11.563  0.1352  0.3231 -0.6623
15457SOL     OW64362   1.987   3.069   4.832 -0.8709  0.1462 -0.3913
15457SOL    HW164363   1.898   3.076   4.796 -0.7241 -2.4560 -1.4931
15457SOL    HW264364   2.044   3.081   4.756 -0.3101  0.7093  0.1161
15458SOL     OW64365   4.919  12.907  10.867  0.3920  0.3943  0.2072
15458SOL    HW164366   4.889  12.868  10.949  1.6245 -2.0676 -0.4068
15458SOL    HW264367   4.847  12.894  10.805  0.1366  0.6492  0.4539
15459SOL     OW64368   0.058   2.879   0.081 -0.5918  0.1665  0.2481
15459SOL    HW164369   0.079   2.795   0.121  0.8219 -0.3027 -1.3365
15459SOL    HW264370   0.070   2.943   0.150  1.8783 -0.5840  0.5880
15460SOL     OW64371   6.423   7.027   7.362 -0.2877 -0.5671  0.4689
15460SOL    HW164372   6.517   7.012   7.373 -0.5595 -0.7675  2.8774
15460SOL    HW264373   6.416   7.076   7.280  2.0164  0.5779  0.8988
15461SOL     OW64374   2.743   2.957  10.058  0.0818 -0.2180  0.3070
15461SOL    HW164375   2.743   3.053  10.059 -0.2797 -0.2115 -0.0837
15461SOL    HW264376   2.775   2.933  10.145 -1.9101  0.2500  1.2320
15462SOL     OW64377  13.106  12.054  13.415 -0.0330 -0.2418  0.7967
15462SOL    HW164378  13.010  12.054  13.416 -0.0489 -0.1529  0.0454
15462SOL    HW264379  13.129  12.113  13.344  0.6118  0.6666  1.7357
15463SOL     OW64380   3.805   2.595   3.355  0.5428 -0.0500  0.2831
15463SOL    HW164381   3.805   2.633   3.443  0.7921  2.5639 -0.7780
15463SOL    HW264382   3.748   2.652   3.304  0.9965 -1.0866 -1.4643
15464SOL     OW64383   7.810   8.033   9.918  0.7238 -0.1998  0.0390
15464SOL    HW164384   7.821   8.128   9.929  0.0931 -0.2345  1.1328
15464SOL    HW264385   7.882   7.995   9.968  1.0038 -0.3033 -0.4383
15465SOL     OW64386   6.163   8.872  13.237  0.3042  0.5254 -0.3626
15465SOL    HW164387   6.178   8.878  13.331  0.4292  0.8243 -0.3991
15465SOL    HW264388   6.210   8.947  13.200 -0.9042  1.2282 -0.5230
15466SOL     OW64389   6.382   8.479  13.758 -0.5704  0.3160  0.2190
15466SOL    HW164390   6.425   8.450  13.678 -2.2045 -0.8543 -0.2876
15466SOL    HW264391   6.297   8.436  13.757 -1.3278  1.6489  1.7357
15467SOL     OW64392  11.568   7.789  13.027  0.1101  0.4269 -0.3932
15467SOL    HW164393  11.641   7.843  13.058  0.5442  0.6605 -1.7503
15467SOL    HW264394  11.527   7.756  13.107  1.2760  0.8525  0.4134
15468SOL     OW64395   6.473   4.215   5.384  0.1597 -0.1259  0.9620
15468SOL    HW164396   6.482   4.310   5.394 -0.5508  0.0910 -0.2480
15468SOL    HW264397   6.492   4.199   5.292 -2.3486 -0.7912  0.4872
15469SOL     OW64398  13.069  12.973  10.879 -0.2458 -0.1984 -0.2161
15469SOL    HW164399  13.147  13.005  10.925 -1.4228  1.5838  0.6392
15469SOL    HW264400  13.101  12.949  10.792  1.4277 -0.4459  0.4309
15470SOL     OW64401   1.709   2.352  11.685 -0.2121 -0.1431 -0.1509
15470SOL    HW164402   1.669   2.341  11.771 -0.6469 -2.7202 -0.6071
15470SOL    HW264403   1.756   2.270  11.670  2.1460  1.2883 -1.2666
15471SOL     OW64404   0.409  12.033   7.018 -0.0934  0.0160  0.4598
15471SOL    HW164405   0.328  12.059   7.061 -1.2130  0.2725 -1.6705
15471SOL    HW264406   0.406  12.075   6.932  1.1118 -1.9559 -0.6372
15472SOL     OW64407   5.943  10.753   9.209  0.4596 -0.3556  0.0159
15472SOL    HW164408   5.901  10.683   9.160 -0.9639  2.0338 -2.4470
15472SOL    HW264409   6.035  10.727   9.214  0.1537 -1.9460 -1.6529
15473SOL     OW64410   8.619   7.845  12.068  0.5763 -0.2914 -0.1102
15473SOL    HW164411   8.602   7.929  12.110 -2.4818 -0.5945 -0.5266
15473SOL    HW264412   8.644   7.867  11.978 -1.6121  0.1979 -0.6346
15474SOL     OW64413   2.259   9.029   5.224  0.1182  0.0833 -0.2284
15474SOL    HW164414   2.239   8.962   5.159  0.5921  0.2418 -0.5392
15474SOL    HW264415   2.224   9.110   5.187 -1.1990 -0.1087  0.5167
15475SOL     OW64416   6.212   4.706  11.454 -0.1510  0.1141 -0.0093
15475SOL    HW164417   6.276   4.638  11.477  0.6121  0.4708 -1.0260
15475SOL    HW264418   6.134   4.657  11.428  0.1980 -0.3656 -0.1735
15476SOL     OW64419  12.627   4.501   8.918  0.2421  0.2324  0.1669
15476SOL    HW164420  12.634   4.423   8.972  0.6852  0.5039  0.5122
15476SOL    HW264421  12.705   4.501   8.864  0.7687  0.9569  0.8903
15477SOL     OW64422   3.022   9.525   3.378 -0.5734  0.1293 -0.0064
15477SOL    HW164423   2.965   9.600   3.395  1.0350  0.9847  2.1646
15477SOL    HW264424   2.972   9.469   3.319 -2.9102  1.6352  0.4236
15478SOL     OW64425  13.689  11.386   6.956  0.0485 -0.0390 -0.0798
15478SOL    HW164426  13.634  11.419   7.026 -1.1983  0.7394 -1.3751
15478SOL    HW264427  13.637  11.317   6.914  1.1103 -1.0783  0.2405
15479SOL     OW64428  12.612   6.269   2.087  0.1184 -0.7278 -0.5124
15479SOL    HW164429  12.685   6.207   2.097  0.0343 -0.6517  0.7336
15479SOL    HW264430  12.646   6.352   2.121 -0.4578 -0.6182 -0.1994
15480SOL     OW64431  10.067   0.231   5.103  0.3557 -0.4082 -0.3132
15480SOL    HW164432  10.041   0.151   5.149  1.6876 -0.4648  0.4012
15480SOL    HW264433  10.154   0.211   5.067 -0.6890 -0.4242 -3.0617
15481SOL     OW64434   1.502   2.235   0.261  0.3574 -0.0858  0.4407
15481SOL    HW164435   1.437   2.297   0.228  1.6824  0.5050 -1.1794
15481SOL    HW264436   1.570   2.291   0.300  0.9928 -0.5711  0.0391
15482SOL     OW64437   3.446   6.048  13.101 -0.8486 -0.1803 -0.5261
15482SOL    HW164438   3.517   6.110  13.118 -1.7500  0.8953 -0.5914
15482SOL    HW264439   3.388   6.056  13.176 -0.7054 -1.3752 -0.2612
15483SOL     OW64440   0.292   5.642   3.651  0.1670  0.0839 -0.4026
15483SOL    HW164441   0.249   5.600   3.725  1.4905 -1.1293 -0.2899
15483SOL    HW264442   0.221   5.666   3.592 -0.9909  1.7617  1.5540
15484SOL     OW64443  11.518   3.826   7.650 -0.4183  0.2526 -0.3305
15484SOL    HW164444  11.538   3.834   7.743  0.9722 -0.1659 -0.5862
15484SOL    HW264445  11.496   3.916   7.623  0.0293  0.5242  0.1972
15485SOL     OW64446   0.464   3.817  13.824 -0.6236  0.7404 -0.2009
15485SOL    HW164447   0.463   3.768  13.743 -0.4121  3.0011 -1.6600
15485SOL    HW264448   0.496   3.755  13.890  1.4962 -0.5369 -2.2784
15486SOL     OW64449   0.131   1.522  13.335  0.3462  0.1564 -0.5752
15486SOL    HW164450   0.073   1.446  13.345  0.2150  0.5065  2.2019
15486SOL    HW264451   0.074   1.598  13.349  0.4921  0.8552 -3.2352
15487SOL     OW64452   5.544   7.689   9.399 -0.1471 -0.3738 -0.1542
15487SOL    HW164453   5.574   7.780   9.390  1.0718 -0.6346  0.9201
15487SOL    HW264454   5.462   7.695   9.448 -1.5408  0.2988 -2.3979
15488SOL     OW64455   0.277   5.010  12.498 -0.0913 -0.1905  0.3289
15488SOL    HW164456   0.183   4.997  12.510  0.2726 -1.4108  2.6166
15488SOL    HW264457   0.298   5.084  12.555  0.2841  0.3076 -0.4532
15489SOL     OW64458  11.047  12.919   2.432 -1.0631 -0.1371  0.5165
15489SOL    HW164459  11.049  12.925   2.336 -2.3794  0.8069  0.5163
15489SOL    HW264460  10.977  12.856   2.450  1.3889 -2.9497  0.8549
15490SOL     OW64461  13.934  12.124   9.772  0.4226  0.0383 -0.0548
15490SOL    HW164462  13.965  12.114   9.682  1.4139  2.5287 -0.0884
15490SOL    HW264463  14.013  12.112   9.825  0.5900  1.9615  0.1919
15491SOL     OW64464  13.009  12.306   4.651 -0.3868 -0.6704 -0.5606
15491SOL    HW164465  12.972  12.271   4.571  0.0576  1.6783 -1.8917
15491SOL    HW264466  12.934  12.320   4.709 -0.7638 -1.9172 -0.7245
15492SOL     OW64467   2.805  12.260  13.477 -0.0795  0.3012 -0.4305
15492SOL    HW164468   2.878  12.221  13.429  0.6116 -1.4208  1.8225
15492SOL    HW264469   2.729  12.245  13.422  0.9164  0.0631 -1.7962
15493SOL     OW64470   0.672   3.772   9.711  0.1169 -0.0218  0.2572
15493SOL    HW164471   0.613   3.842   9.738 -0.4967 -0.3830 -0.1243
15493SOL    HW264472   0.615   3.697   9.694  0.6136 -0.1815 -0.7919
15494SOL     OW64473   5.943  13.701   6.724  0.3109 -0.2684 -0.3242
15494SOL    HW164474   5.990  13.666   6.800  0.7754 -0.4003 -0.6679
15494SOL    HW264475   5.931  13.794   6.745 -1.0682 -0.6375  0.6571
15495SOL     OW64476   4.370   7.643  12.148  0.1650 -0.5445  0.1019
15495SOL    HW164477   4.279   7.639  12.178  0.5656 -1.4721  1.2874
15495SOL    HW264478   4.419   7.595  12.215  1.7262  1.1940  0.2755
15496SOL     OW64479   3.573   3.662   8.554 -0.0880  0.9272 -0.0194
15496SOL    HW164480   3.556   3.581   8.602 -0.8609  0.5077 -0.9671
15496SOL    HW264481   3.652   3.697   8.593 -0.2004  0.1345  0.9563
15497SOL     OW64482   3.566   3.795   5.362  0.5456  0.3130  0.0091
15497SOL    HW164483   3.661   3.788   5.371  0.2433 -1.7424  2.8603
15497SOL    HW264484   3.541   3.715   5.315  0.1942  0.7835 -0.6118
15498SOL     OW64485  11.925   8.592   8.431 -0.1087  0.7081  0.4330
15498SOL    HW164486  11.831   8.586   8.413 -0.4078 -1.3908  2.3569
15498SOL    HW264487  11.944   8.686   8.429 -1.8213  1.0832 -1.8093
15499SOL     OW64488   1.306  13.655   3.084  0.1314  0.0750 -0.0828
15499SOL    HW164489   1.220  13.626   3.114  0.6514 -1.2389  0.2109
15499SOL    HW264490   1.356  13.574   3.073  1.9407  0.8632  1.5950
15500SOL     OW64491  10.867   3.654   5.836 -0.5165  0.0580  0.4849
15500SOL    HW164492  10.882   3.731   5.781 -1.0624  0.9002  1.4762
15500SOL    HW264493  10.952   3.609   5.837  0.2246  1.3979  0.9838
15501SOL     OW64494   6.213  11.642  10.475 -0.4989  0.1909 -0.1205
15501SOL    HW164495   6.155  11.630  10.550  0.3385  1.9720  0.8946
15501SOL    HW264496   6.301  11.644  10.513 -0.0706  1.2748 -1.0921
15502SOL     OW64497   7.693   9.173   6.933  0.3796 -0.2329 -0.5591
15502SOL    HW164498   7.634   9.099   6.921 -1.3523  0.6258  1.8274
15502SOL    HW264499   7.666   9.237   6.867 -2.1573  0.5374  1.0994
15503SOL     OW64500   2.956   0.661  12.514 -0.2889  0.0153  0.0381
15503SOL    HW164501   2.892   0.722  12.553 -0.0794  0.4819 -0.3377
15503SOL    HW264502   2.970   0.695  12.426  1.9544  1.1024  0.7392
15504SOL     OW64503   2.498   9.855  10.349 -0.1125  0.3635 -0.2650
15504SOL    HW164504   2.456   9.789  10.294  1.2717 -1.1435  0.3993
15504SOL    HW264505   2.582   9.871  10.307  0.4936  0.0083  0.7634
15505SOL     OW64506   1.083   3.919   2.593 -0.1931  0.1302 -0.4613
15505SOL    HW164507   1.008   3.870   2.558  0.5618 -0.7329 -0.8817
15505SOL    HW264508   1.116   3.969   2.518 -0.0819  0.1817 -0.3786
15506SOL     OW64509  12.345   2.291  11.846 -0.4110  0.0457 -0.2331
15506SOL    HW164510  12.384   2.348  11.912 -0.0765 -0.9030  0.4087
15506SOL    HW264511  12.385   2.206  11.861 -1.9252 -0.7147 -0.2454
15507SOL     OW64512   9.707   7.451   3.524 -0.1987 -0.6376 -0.2274
15507SOL    HW164513   9.615   7.445   3.552 -0.0814 -0.5144  0.1886
15507SOL    HW264514   9.710   7.533   3.474 -0.0909 -0.1034  0.6390
15508SOL     OW64515   9.787  11.743   7.844 -0.0768  0.0726 -0.6239
15508SOL    HW164516   9.737  11.706   7.771 -0.2056  0.4008 -0.7094
15508SOL    HW264517   9.862  11.786   7.803 -0.4998  0.8327 -0.6346
15509SOL     OW64518   2.033   2.015   7.240 -0.0894  0.3478 -0.2585
15509SOL    HW164519   2.102   1.953   7.215 -1.3184 -0.4719 -1.7498
15509SOL    HW264520   2.072   2.066   7.312  1.5460 -1.0266 -0.1058
15510SOL     OW64521   8.201   0.390   2.254 -0.2619 -0.2479 -0.1062
15510SOL    HW164522   8.287   0.352   2.235  0.9083  1.4050  1.4887
15510SOL    HW264523   8.168   0.340   2.328 -1.4225 -1.8574 -1.6402
15511SOL     OW64524   1.149   5.475   0.249 -0.0085  0.3420  0.0183
15511SOL    HW164525   1.198   5.478   0.331  0.6598 -2.0690 -0.2208
15511SOL    HW264526   1.140   5.381   0.229 -1.7400  0.7981 -1.7365
15512SOL     OW64527  11.923   3.084   4.593 -0.3860 -0.4726  0.3170
15512SOL    HW164528  11.829   3.097   4.607 -0.4237 -1.8411  1.5550
15512SOL    HW264529  11.961   3.171   4.602 -1.2361 -0.2630  2.4531
15513SOL     OW64530   3.968   2.635   8.435 -0.0918  0.8002  0.0986
15513SOL    HW164531   3.928   2.595   8.512 -0.4587 -0.3328 -0.6520
15513SOL    HW264532   3.997   2.722   8.465  0.5637  0.0612  1.7318
15514SOL     OW64533  10.501   8.863   4.101 -0.6885  0.1414  0.4466
15514SOL    HW164534  10.510   8.958   4.113 -1.2110  0.2012  0.4077
15514SOL    HW264535  10.590   8.831   4.098 -0.5010  0.6669  0.2185
15515SOL     OW64536   7.989   9.581  10.284 -0.5847 -0.6727 -0.5664
15515SOL    HW164537   7.914   9.625  10.325  0.4001 -1.0189  1.7571
15515SOL    HW264538   8.002   9.628  10.201 -2.6688  0.0889 -0.5268
15516SOL     OW64539   2.724   0.398  10.861 -0.2109  0.7038  0.0400
15516SOL    HW164540   2.817   0.408  10.879  0.3552 -1.1306 -1.5687
15516SOL    HW264541   2.686   0.373  10.945  0.4945  2.6413  0.9934
15517SOL     OW64542   2.893   5.778   2.653 -0.2332  0.4347 -0.0499
15517SOL    HW164543   2.970   5.817   2.613  0.3663  0.8542  1.4241
15517SOL    HW264544   2.927   5.707   2.707 -0.5943  1.8073  2.1322
15518SOL     OW64545   4.242   1.970   3.163  0.0038  0.8121  0.1814
15518SOL    HW164546   4.254   1.998   3.254  0.0696  2.5085 -0.3229
15518SOL    HW264547   4.149   1.949   3.156 -0.1589  1.4464  0.4309
15519SOL     OW64548  12.661  11.008  13.361 -0.4229 -0.1305 -0.5705
15519SOL    HW164549  12.726  11.050  13.305 -0.5807 -0.7646 -1.2333
15519SOL    HW264550  12.581  11.059  13.348 -0.5321 -0.4379 -1.1423
15520SOL     OW64551   5.992  11.329   3.184 -0.5924  0.0613 -0.1939
15520SOL    HW164552   5.926  11.378   3.233  0.4953  0.8427  0.5362
15520SOL    HW264553   5.967  11.237   3.197 -0.7197  0.2693  1.3079
15521SOL     OW64554   2.333   8.013  10.272  0.6669  0.0178 -0.4804
15521SOL    HW164555   2.402   8.070  10.306 -0.4601  1.9311 -1.2188
15521SOL    HW264556   2.367   7.924  10.284  2.9420  0.8563 -0.1900
15522SOL     OW64557  13.104   2.095  11.497 -0.2452  0.1733  0.0291
15522SOL    HW164558  13.168   2.156  11.460 -1.3390  1.1394 -0.3231
15522SOL    HW264559  13.080   2.038  11.424 -0.1572  0.1384  0.0270
15523SOL     OW64560  13.534   9.055   1.636 -0.8182  0.4031 -0.3063
15523SOL    HW164561  13.524   9.126   1.700  0.7218  1.7781 -1.4836
15523SOL    HW264562  13.448   9.048   1.595 -1.4363  0.4673  0.9202
15524SOL     OW64563   5.835   9.852   2.882 -0.1396 -0.9688 -0.5907
15524SOL    HW164564   5.769   9.827   2.947  1.7120 -3.4377  0.5170
15524SOL    HW264565   5.820   9.791   2.809  1.2506 -2.0183 -0.0434
15525SOL     OW64566   8.963   5.831   8.351 -0.4470 -0.0921  0.1688
15525SOL    HW164567   9.045   5.831   8.401 -1.0600 -1.1393  1.2454
15525SOL    HW264568   8.985   5.786   8.270  0.3895  0.9437 -0.2034
15526SOL     OW64569  11.058  12.927   8.956 -0.3097 -0.5386 -0.8371
15526SOL    HW164570  11.138  12.965   8.920 -0.7713  1.1464 -0.1890
15526SOL    HW264571  11.067  12.937   9.051 -1.8106  0.8715 -0.7999
15527SOL     OW64572   7.530   9.504   6.305 -0.1395  0.7390  0.0982
15527SOL    HW164573   7.466   9.433   6.305  0.0948  0.5238 -0.2557
15527SOL    HW264574   7.587   9.486   6.380 -0.0948  0.5650  0.0226
15528SOL     OW64575   9.321  13.249   1.771  0.4148 -0.0806 -0.1858
15528SOL    HW164576   9.405  13.213   1.741 -0.2021 -3.1843  1.3972
15528SOL    HW264577   9.343  13.297   1.851  1.3578  4.2202 -2.6907
15529SOL     OW64578   0.502   6.492   0.807  0.5132 -0.1125  0.2957
15529SOL    HW164579   0.597   6.485   0.803  0.5713 -1.3281  2.3597
15529SOL    HW264580   0.482   6.495   0.900 -1.5211 -0.7236 -0.0746
15530SOL     OW64581   2.862   0.076   8.548 -0.2237  0.7539  0.2007
15530SOL    HW164582   2.955   0.055   8.555 -0.6474 -1.0994  0.5785
15530SOL    HW264583   2.822   0.036   8.625 -1.4421  0.9123 -0.3314
15531SOL     OW64584  10.317  13.960   3.783 -0.5718  0.2009 -0.5436
15531SOL    HW164585  10.387  13.973   3.847  0.1468 -1.2531 -0.9971
15531SOL    HW264586  10.246  13.920   3.833 -0.3242 -0.1633 -0.4778
15532SOL     OW64587   4.800  13.159   4.282  0.0589  0.2799 -0.4954
15532SOL    HW164588   4.804  13.141   4.376 -0.1147  1.9465 -0.1324
15532SOL    HW264589   4.851  13.089   4.242 -0.1961 -0.6834  0.8021
15533SOL     OW64590   8.432   6.764   3.531  0.2530  0.3191 -0.0991
15533SOL    HW164591   8.464   6.766   3.621 -0.9330 -0.9339  0.3860
15533SOL    HW264592   8.374   6.840   3.524  0.8239  0.7672 -0.0041
15534SOL     OW64593   3.105  11.893   0.075  0.6429  0.4585  0.3785
15534SOL    HW164594   3.149  11.891  -0.010  0.2517  0.5873  0.1683
15534SOL    HW264595   3.117  11.805   0.111 -0.5883 -0.1120 -0.5353
15535SOL     OW64596   1.292   2.719  13.078 -0.9112  0.6680 -0.0307
15535SOL    HW164597   1.289   2.674  13.162 -1.7922 -0.2758 -0.5466
15535SOL    HW264598   1.386   2.732  13.061 -0.7257  0.7776  1.0326
15536SOL     OW64599   7.777   8.518   3.203 -0.3700  0.1747 -0.4281
15536SOL    HW164600   7.872   8.508   3.194 -0.0976  1.4508  0.6592
15536SOL    HW264601   7.749   8.440   3.251 -0.3772 -1.7000 -3.2430
15537SOL     OW64602   2.146   9.566   5.451 -0.1213  0.4999  0.4161
15537SOL    HW164603   2.226   9.615   5.432 -1.2479  1.1141 -3.9639
15537SOL    HW264604   2.096   9.622   5.510  2.4318  0.1638  3.1395
15538SOL     OW64605  12.313   5.482  13.677 -0.2587  0.2796  0.1537
15538SOL    HW164606  12.349   5.489  13.766 -0.1290 -1.0700  0.2310
15538SOL    HW264607  12.354   5.555  13.629  0.6058  0.3045  0.8967
15539SOL     OW64608  13.291  10.774  11.775 -0.8966  0.2085 -0.0847
15539SOL    HW164609  13.269  10.687  11.809 -1.1181  0.4671  0.4404
15539SOL    HW264610  13.369  10.760  11.722 -1.7733 -0.5822 -1.2339
15540SOL     OW64611   6.899   2.153   3.870 -0.2192 -0.1596 -0.2245
15540SOL    HW164612   6.875   2.175   3.780 -0.8897  0.4291  0.0852
15540SOL    HW264613   6.840   2.081   3.894 -0.3597 -0.0082 -0.1089
15541SOL     OW64614   9.983   4.982   8.944 -0.1735  0.5333  0.0937
15541SOL    HW164615  10.012   4.995   8.854 -0.0528  0.8446  0.1761
15541SOL    HW264616   9.897   4.942   8.937  0.4169 -0.7341 -0.1576
15542SOL     OW64617   3.694   5.729  13.919  0.3556 -0.2451  0.8730
15542SOL    HW164618   3.708   5.811  13.965  0.8996 -0.1898  0.6175
15542SOL    HW264619   3.615   5.744  13.867  1.5282  0.8279 -0.7134
15543SOL     OW64620   5.426   4.740  12.171 -0.3386  0.2400 -0.3112
15543SOL    HW164621   5.407   4.654  12.132 -1.7130  0.4899 -0.2328
15543SOL    HW264622   5.487   4.781  12.110  0.1702 -0.7104 -0.4566
15544SOL     OW64623   5.679  10.849   6.947 -0.2337  0.1790 -0.1189
15544SOL    HW164624   5.752  10.788   6.943 -1.8699 -1.8566 -0.4515
15544SOL    HW264625   5.696  10.901   7.026  1.1310 -0.7855  0.2572
15545SOL     OW64626   4.804   3.324   1.475  0.4071 -0.3934  0.2853
15545SOL    HW164627   4.891   3.296   1.502  1.4231  1.2082 -1.1136
15545SOL    HW264628   4.769   3.250   1.425 -0.1555 -2.0583  2.9105
15546SOL     OW64629  13.174   1.152   4.377 -0.4289  0.2009  0.4678
15546SOL    HW164630  13.177   1.135   4.283  1.2765  1.0100  0.3335
15546SOL    HW264631  13.120   1.230   4.387  0.1016  0.6344  0.0438
15547SOL     OW64632  12.454  14.083  11.362  0.0989 -0.1565 -0.1959
15547SOL    HW164633  12.403  14.030  11.301  0.0621 -0.7127  0.3153
15547SOL    HW264634  12.546  14.063  11.341  0.0977  0.0698 -0.4296
15548SOL     OW64635   2.650   9.987  11.336  0.0275  0.1201  0.6466
15548SOL    HW164636   2.613   9.920  11.279 -0.3929  1.7797 -1.1309
15548SOL    HW264637   2.744   9.974  11.331 -0.0220  0.0287 -0.1500
15549SOL     OW64638   7.042   0.923  13.054 -0.9975 -0.0657 -0.0484
15549SOL    HW164639   7.132   0.900  13.031 -1.1840 -0.1299 -0.7350
15549SOL    HW264640   7.007   0.843  13.095 -0.9181 -0.2320 -0.3022
15550SOL     OW64641   8.034   1.865   6.603 -0.4693  0.1885  0.1540
15550SOL    HW164642   8.074   1.778   6.596  0.4315  0.5150  1.0119
15550SOL    HW264643   8.104   1.925   6.580 -1.2029  0.6869 -0.8333
15551SOL     OW64644  13.811   2.260   3.977 -0.4311  0.5210  0.1709
15551SOL    HW164645  13.730   2.228   4.016  0.5495 -1.3121  0.8291
15551SOL    HW264646  13.837   2.192   3.915 -1.0538  2.5917 -2.5545
15552SOL     OW64647  12.321   8.753   2.504  0.5979 -0.6464  0.1870
15552SOL    HW164648  12.269   8.740   2.583 -1.1782 -2.1509 -1.1362
15552SOL    HW264649  12.285   8.831   2.463  1.8195  0.4009  1.0383
15553SOL     OW64650   7.920   8.104   1.065  0.7133  0.0016 -0.3424
15553SOL    HW164651   7.965   8.162   1.003 -2.3852  1.0480 -1.7852
15553SOL    HW264652   7.930   8.147   1.150 -1.3138  2.7171 -1.3383
15554SOL     OW64653   0.808   9.004   8.895 -0.1416 -0.0750 -0.1459
15554SOL    HW164654   0.782   8.993   8.803  2.5641 -1.5719 -0.8506
15554SOL    HW264655   0.796   8.917   8.933  0.2633  0.1425  0.4888
15555SOL     OW64656   5.751   2.395  13.506 -0.3769 -0.0395  0.0398
15555SOL    HW164657   5.705   2.358  13.581  0.4547  0.8228  1.0114
15555SOL    HW264658   5.834   2.426  13.543  0.7266 -0.9751 -1.5183
15556SOL     OW64659   9.577   4.140   6.474 -0.1270 -0.3320 -0.4297
15556SOL    HW164660   9.487   4.142   6.506  0.1000  0.0421  0.2263
15556SOL    HW264661   9.588   4.224   6.428  0.6405  0.8727  1.7584
15557SOL     OW64662   9.444  11.652   0.720 -0.1496  0.4558 -0.0136
15557SOL    HW164663   9.497  11.678   0.644  0.0863  1.0622  0.3531
15557SOL    HW264664   9.500  11.591   0.768  0.4363  1.4916  0.6486
15558SOL     OW64665   9.690  11.132   3.510 -0.5951  0.6132 -0.3256
15558SOL    HW164666   9.716  11.053   3.462 -1.7844 -0.1185  0.1855
15558SOL    HW264667   9.614  11.165   3.461 -1.3880  0.2497  0.6367
15559SOL     OW64668   6.356   6.479   3.683 -0.0154 -0.1983  0.5672
15559SOL    HW164669   6.435   6.477   3.737  0.5283  0.0361 -0.2029
15559SOL    HW264670   6.388   6.496   3.594 -0.9234 -0.2082  0.2284
15560SOL     OW64671  12.717  11.932   7.973  0.1299 -0.2714 -0.3946
15560SOL    HW164672  12.714  11.840   7.945  0.0245 -0.6098  0.6761
15560SOL    HW264673  12.650  11.938   8.041  0.6172  0.4258  0.0305
15561SOL     OW64674  12.186  11.122   1.516  0.0964 -0.0025 -0.5982
15561SOL    HW164675  12.129  11.047   1.535  0.6450 -0.3610 -0.3595
15561SOL    HW264676  12.177  11.135   1.421 -0.4792  0.0303 -0.5450
15562SOL     OW64677  11.172  11.468   9.143  0.0719  0.4804  0.1161
15562SOL    HW164678  11.141  11.378   9.129 -1.0421  0.8410  0.1907
15562SOL    HW264679  11.204  11.468   9.234  2.1515 -0.3945 -0.5520
15563SOL     OW64680   2.466  12.874  10.105  0.5848  0.0805  0.3799
15563SOL    HW164681   2.522  12.930  10.159  0.4944 -0.6000  1.1880
15563SOL    HW264682   2.527  12.822  10.053  0.7393 -1.0825  1.6851
15564SOL     OW64683   4.765   0.719   2.530  0.4555 -0.1704  0.2549
15564SOL    HW164684   4.752   0.713   2.435 -0.8388 -0.5373  0.4330
15564SOL    HW264685   4.711   0.648   2.566  1.8806 -0.8066  1.2039
15565SOL     OW64686  11.525   4.766   6.993 -0.3902  0.2963 -0.3669
15565SOL    HW164687  11.505   4.699   6.928 -0.3836  0.1527 -0.2202
15565SOL    HW264688  11.569   4.719   7.063  0.2568  0.5717 -0.5797
15566SOL     OW64689  12.640   6.106  13.149  0.7304  0.4842 -0.0294
15566SOL    HW164690  12.689   6.186  13.131  3.3500 -0.8555  0.7358
15566SOL    HW264691  12.626   6.107  13.243  0.7009  0.0824 -0.0277
15567SOL     OW64692   6.301   3.981  12.080  0.2157  0.4714  0.5759
15567SOL    HW164693   6.364   3.920  12.041  0.7016 -0.1518  2.2705
15567SOL    HW264694   6.218   3.933  12.079  0.8017 -0.6990  2.8542
15568SOL     OW64695   7.963  11.211  11.237 -0.3023  0.1896  0.0395
15568SOL    HW164696   7.947  11.305  11.224 -0.8391  0.6058  2.8985
15568SOL    HW264697   8.057  11.205  11.250  0.0682 -0.0684 -2.3929
15569SOL     OW64698   7.461   9.886   8.168 -0.6785 -0.1771 -0.0475
15569SOL    HW164699   7.391   9.875   8.104 -0.5203 -0.1219 -0.2314
15569SOL    HW264700   7.539   9.851   8.125 -0.7784 -1.1618  0.5286
15570SOL     OW64701  13.394   0.260   1.601  0.6138  0.3585 -0.1671
15570SOL    HW164702  13.454   0.207   1.653  0.8211  0.6483 -0.1097
15570SOL    HW264703  13.384   0.211   1.519  1.0837  0.4077 -0.2552
15571SOL     OW64704   7.854   7.094   9.198 -0.1232  0.3799  0.1096
15571SOL    HW164705   7.843   7.071   9.106  0.6982 -2.2133  0.5466
15571SOL    HW264706   7.927   7.039   9.227 -0.3322  1.1589  2.2876
15572SOL     OW64707   0.146   2.351   7.730 -0.2130 -0.2814 -0.3747
15572SOL    HW164708   0.134   2.312   7.816  0.1266  0.8423  0.1993
15572SOL    HW264709   0.199   2.429   7.746 -1.0544  0.5448 -1.4434
15573SOL     OW64710  12.807   6.553   3.714  0.1127 -0.3758 -0.0336
15573SOL    HW164711  12.780   6.500   3.639  0.0752 -1.6384  0.8497
15573SOL    HW264712  12.732   6.551   3.773  0.5871 -0.3938  0.5747
15574SOL     OW64713   3.448   5.411  11.053  0.1148 -0.3545  0.1519
15574SOL    HW164714   3.386   5.477  11.022 -0.9492 -2.2204 -1.9638
15574SOL    HW264715   3.397   5.353  11.109  1.3428  1.1992  3.1327
15575SOL     OW64716   2.701   7.515   8.112 -0.2005 -0.5074  0.0756
15575SOL    HW164717   2.618   7.546   8.075 -0.0522 -0.1233  0.0608
15575SOL    HW264718   2.732   7.588   8.165  1.3003  0.2943 -1.7693
15576SOL     OW64719   1.615   6.534   1.154 -0.1242  0.4662 -0.6318
15576SOL    HW164720   1.630   6.547   1.060 -2.3068  0.6303 -1.0042
15576SOL    HW264721   1.531   6.576   1.171 -1.3770 -2.3450  0.7233
15577SOL     OW64722   5.916   0.712   1.941 -0.0063 -0.0088  0.6092
15577SOL    HW164723   5.902   0.620   1.961  1.3761 -0.2420  0.6228
15577SOL    HW264724   5.876   0.760   2.014 -0.3985 -0.6092  0.7891
15578SOL     OW64725   4.224  11.651  13.670 -0.2167  0.1246 -0.3335
15578SOL    HW164726   4.130  11.658  13.683 -0.5410  0.6671 -2.5912
15578SOL    HW264727   4.246  11.562  13.698 -1.9240 -1.0277 -2.3442
15579SOL     OW64728   8.213   1.406  12.912 -1.1251 -0.4111 -0.1931
15579SOL    HW164729   8.131   1.450  12.892 -0.3215  0.9462 -0.6321
15579SOL    HW264730   8.223   1.416  13.007 -1.5588 -0.7515 -0.1103
15580SOL     OW64731  11.703   6.642  10.370  0.1001  0.0315  0.1758
15580SOL    HW164732  11.710   6.651  10.275  0.3113 -0.0430  0.1842
15580SOL    HW264733  11.692   6.732  10.401  1.5759  0.2234  0.2048
15581SOL     OW64734  12.558   8.180  13.873 -1.0824 -0.3366  0.0135
15581SOL    HW164735  12.476   8.177  13.921 -0.1420  1.3261  1.8786
15581SOL    HW264736  12.608   8.250  13.915  0.8938 -0.6126 -1.7037
15582SOL     OW64737   8.237   7.935  13.996 -0.7340 -0.2948  0.0115
15582SOL    HW164738   8.241   8.025  14.030 -2.3122  0.3187 -1.3280
15582SOL    HW264739   8.206   7.944  13.907  0.2026 -2.1269 -0.5493
15583SOL     OW64740  13.076  11.996   8.489 -0.0193 -0.0308 -0.5046
15583SOL    HW164741  13.110  12.056   8.423  0.4448 -0.6503 -0.8333
15583SOL    HW264742  13.069  12.049   8.568  0.1424  0.5214 -0.8557
15584SOL     OW64743   0.684   8.261  10.826 -0.0913 -0.1725 -0.2834
15584SOL    HW164744   0.639   8.229  10.748 -0.5757 -0.0413 -0.0574
15584SOL    HW264745   0.617   8.261  10.894  0.5833 -1.3375  0.4185
15585SOL     OW64746   1.356  12.094  13.838  0.6224 -0.1473  0.2154
15585SOL    HW164747   1.398  12.062  13.918 -1.0556  0.3970  1.3650
15585SOL    HW264748   1.276  12.137  13.868  0.1346  0.4157 -1.7377
15586SOL     OW64749  11.926   9.738  11.191 -0.8284  0.4331  0.4297
15586SOL    HW164750  11.875   9.818  11.183  1.3962  1.7880 -1.3884
15586SOL    HW264751  11.951   9.717  11.101  3.5636  1.1373  1.2654
15587SOL     OW64752  12.025   8.423   2.230  0.2890  0.5961  0.1006
15587SOL    HW164753  11.993   8.340   2.194  0.6179  0.7643 -0.6066
15587SOL    HW264754  12.104   8.443   2.179  2.3952 -0.5013  2.6636
15588SOL     OW64755   7.118   2.034   3.461 -0.6637  0.1100  0.1676
15588SOL    HW164756   7.075   2.004   3.380 -1.5315  1.4612  0.0961
15588SOL    HW264757   7.098   1.966   3.525  0.0253 -0.9774 -0.7366
15589SOL     OW64758   0.779   2.612   0.632 -0.1828 -0.1480 -0.5301
15589SOL    HW164759   0.833   2.556   0.577  1.0479 -0.0605  0.5275
15589SOL    HW264760   0.832   2.691   0.645 -0.7023  0.0870  0.2682
15590SOL     OW64761  13.339   9.355   3.573  0.1542  0.2391 -0.0563
15590SOL    HW164762  13.428   9.328   3.596 -0.2159 -1.0735 -0.0312
15590SOL    HW264763  13.285   9.319   3.643 -0.5027  0.0897 -0.6282
15591SOL     OW64764   1.282   3.300   2.157 -0.2873 -0.1976 -0.1892
15591SOL    HW164765   1.347   3.256   2.102  1.6508 -1.1523  2.6112
15591SOL    HW264766   1.245   3.230   2.210 -0.7255  0.8807  0.9746
15592SOL     OW64767   8.341  11.981   3.514 -0.0854 -0.1880  0.5120
15592SOL    HW164768   8.393  12.046   3.561  0.8092 -0.3428 -0.2182
15592SOL    HW264769   8.368  11.897   3.551 -0.0507 -0.2492  0.3475
15593SOL     OW64770   4.088   4.402   0.259 -0.3424 -0.0711  1.1612
15593SOL    HW164771   4.054   4.473   0.204  0.2355 -2.4124 -2.6118
15593SOL    HW264772   4.013   4.343   0.271  0.0824 -0.6676  0.9355
15594SOL     OW64773   6.595   5.196  13.892  0.4301 -0.2635 -0.3468
15594SOL    HW164774   6.551   5.188  13.977 -1.0949 -1.4432 -1.1901
15594SOL    HW264775   6.683   5.163  13.907  0.8331  1.3595  1.2043
15595SOL     OW64776  10.564  12.436   2.698 -0.0543 -0.5287  0.8453
15595SOL    HW164777  10.486  12.483   2.666 -0.4652 -2.2400 -0.8128
15595SOL    HW264778  10.547  12.422   2.791 -0.6433  1.1287  1.0325
15596SOL     OW64779  14.021   0.398   1.025 -0.0278 -0.0854  0.1519
15596SOL    HW164780  13.997   0.365   0.938  0.2743  5.2481 -2.4104
15596SOL    HW264781  14.116   0.401   1.024 -0.0111 -0.2884  0.8061
15597SOL     OW64782  12.912   4.697   4.374  0.7635  0.2449  0.2540
15597SOL    HW164783  12.822   4.698   4.342  0.6524 -0.5141  0.5340
15597SOL    HW264784  12.944   4.785   4.357  0.1726  0.3372 -0.4339
15598SOL     OW64785  13.472   2.209  12.428 -0.2221 -0.4911  0.0222
15598SOL    HW164786  13.484   2.233  12.520  2.5458  1.2721 -0.6900
15598SOL    HW264787  13.518   2.276  12.379 -1.9799 -1.1428 -2.7423
15599SOL     OW64788   0.931   5.132   7.737  0.7196 -0.6291  0.0662
15599SOL    HW164789   0.857   5.153   7.680  0.7461 -0.9721 -0.0990
15599SOL    HW264790   0.995   5.091   7.678  2.6254  2.9367 -0.6066
15600SOL     OW64791   3.887  12.189  10.786  0.0624 -0.3936 -0.6661
15600SOL    HW164792   3.924  12.111  10.828  1.6202 -0.0165 -1.2678
15600SOL    HW264793   3.844  12.155  10.707 -2.1761 -1.0035  0.7240
15601SOL     OW64794  12.983   0.080   8.607 -0.1461  0.2763 -0.8236
15601SOL    HW164795  12.908   0.035   8.647  0.4547  0.3489  0.4474
15601SOL    HW264796  12.954   0.102   8.519 -2.1523  1.5961  0.0994
15602SOL     OW64797   8.507   2.037   6.140  0.3803 -0.4329  0.2788
15602SOL    HW164798   8.593   2.000   6.121  0.7376 -1.7126  3.7593
15602SOL    HW264799   8.446   1.964   6.129  0.1893 -0.3803  0.9620
15603SOL     OW64800   8.379   4.745  11.334 -0.4762 -0.3083 -1.3473
15603SOL    HW164801   8.329   4.765  11.414  1.0398 -0.6734 -0.2567
15603SOL    HW264802   8.323   4.685  11.285 -0.0924 -2.9001  1.1179
15604SOL     OW64803   8.023   3.495   5.490  0.2142 -0.3447 -0.4330
15604SOL    HW164804   8.049   3.481   5.399  0.4886 -0.2204 -0.3748
15604SOL    HW264805   8.006   3.589   5.496  0.4599 -0.3090 -0.2888
15605SOL     OW64806  13.690   6.198  12.166 -0.2083  0.1643 -0.3606
15605SOL    HW164807  13.637   6.206  12.246  3.4249 -2.8130  2.8001
15605SOL    HW264808  13.711   6.288  12.142 -0.7056  1.2458  2.7082
15606SOL     OW64809  13.607  10.515   5.751  0.1326  0.3062  0.0935
15606SOL    HW164810  13.587  10.606   5.730 -0.8021 -0.1369 -1.0085
15606SOL    HW264811  13.522  10.471   5.751  0.6784 -0.7734 -0.4403
15607SOL     OW64812   2.496   9.722   1.318  0.2323 -0.7102 -1.2341
15607SOL    HW164813   2.578   9.698   1.360 -0.0515  0.7231  0.1895
15607SOL    HW264814   2.514   9.712   1.224  1.2108 -2.8914 -0.8769
15608SOL     OW64815  12.263   3.543  10.020 -0.3218 -0.0628  0.4477
15608SOL    HW164816  12.232   3.543   9.929  2.2434  1.8752 -0.5405
15608SOL    HW264817  12.209   3.609  10.063  0.6197  1.4297 -0.5784
15609SOL     OW64818   3.361  13.106   4.540 -0.0364  0.6875  0.5130
15609SOL    HW164819   3.277  13.127   4.500 -0.0899  1.1492  0.8687
15609SOL    HW264820   3.362  13.154   4.623  0.5529  0.6428  0.5379
15610SOL     OW64821  13.527   0.104   0.919  0.2240  0.5100 -0.3465
15610SOL    HW164822  13.472   0.041   0.966  1.0870  1.1143  1.5634
15610SOL    HW264823  13.470   0.179   0.903 -0.5957 -0.3942 -1.9810
15611SOL     OW64824  11.751   3.751   9.424 -0.3954  0.1096 -0.0845
15611SOL    HW164825  11.750   3.672   9.478  0.4416  0.7033  0.8079
15611SOL    HW264826  11.658   3.772   9.410 -0.6353 -1.2092 -0.6219
15612SOL     OW64827   1.140  12.789   7.110 -0.9427  0.4859  0.4099
15612SOL    HW164828   1.104  12.702   7.092  0.8497 -0.0377 -1.0497
15612SOL    HW264829   1.218  12.772   7.162 -1.2471  1.3383  1.1519
15613SOL     OW64830   3.564   4.954   3.502  0.1125  0.5150  0.2342
15613SOL    HW164831   3.476   4.976   3.471  0.2538 -0.4802 -0.9513
15613SOL    HW264832   3.574   4.861   3.480  1.5043  0.6494  0.2537
15614SOL     OW64833   4.418   4.240   9.048  0.4055 -0.0237  0.5567
15614SOL    HW164834   4.501   4.223   9.003  0.2061 -2.7860  1.0691
15614SOL    HW264835   4.357   4.261   8.978  1.2189  0.7045  0.0440
15615SOL     OW64836   9.439  11.550   0.363  1.0371  0.5005 -0.1781
15615SOL    HW164837   9.497  11.617   0.400  0.3628  1.7953 -1.3903
15615SOL    HW264838   9.414  11.584   0.277 -0.9194 -0.3675 -0.0063
15616SOL     OW64839   9.429   2.265   8.675  0.8510 -0.3981  0.6514
15616SOL    HW164840   9.377   2.330   8.723 -1.1892 -1.1182 -0.4266
15616SOL    HW264841   9.447   2.306   8.591  2.0318 -0.1815  0.9931
15617SOL     OW64842  12.861   1.555   8.767  0.1062 -0.1956 -0.2319
15617SOL    HW164843  12.896   1.466   8.773 -0.3590 -0.3409  0.4673
15617SOL    HW264844  12.937   1.611   8.781  0.3215 -0.4865 -0.2097
15618SOL     OW64845   6.220  11.411   9.982  0.0947  0.0345 -0.4963
15618SOL    HW164846   6.202  11.463  10.060  0.4523  1.2588 -1.2142
15618SOL    HW264847   6.310  11.379   9.995 -0.3407 -0.9458  0.2280
15619SOL     OW64848   1.977   6.763   0.292 -0.5500 -0.1941 -0.2464
15619SOL    HW164849   1.914   6.773   0.220 -3.7768 -0.7997  2.2134
15619SOL    HW264850   1.963   6.673   0.322  1.2814 -0.2092  0.6467
15620SOL     OW64851   7.768   8.853   3.888  0.1961  0.3163  0.7559
15620SOL    HW164852   7.708   8.789   3.850  0.4230  0.1455  0.6808
15620SOL    HW264853   7.742   8.936   3.850  1.4403 -0.0552 -1.0759
15621SOL     OW64854   4.752   1.179   9.411  0.6458 -0.0585  0.4012
15621SOL    HW164855   4.723   1.205   9.324 -1.9678  0.0487  1.2291
15621SOL    HW264856   4.843   1.210   9.416  0.7778  0.1504 -2.1554
15622SOL     OW64857   6.310   6.702  13.046 -0.0905  0.5403  0.1507
15622SOL    HW164858   6.329   6.633  12.983 -0.2185 -0.4140  1.1362
15622SOL    HW264859   6.391   6.752  13.052 -0.0980  0.6794 -0.8107
15623SOL     OW64860   5.067   0.349   4.467 -0.2995 -0.2421 -0.2670
15623SOL    HW164861   5.073   0.283   4.536  0.0487  0.8072  0.7348
15623SOL    HW264862   5.117   0.312   4.394  0.8651 -0.6047  0.6769
15624SOL     OW64863   2.251   4.483   0.652 -0.4081 -0.6533 -0.2376
15624SOL    HW164864   2.322   4.434   0.611 -1.1483 -1.4454 -0.5933
15624SOL    HW264865   2.221   4.427   0.723  0.7547  0.6394  1.3586
15625SOL     OW64866  12.628  12.854   8.608  0.3930 -0.0941  0.1864
15625SOL    HW164867  12.551  12.864   8.664  1.2437 -0.0203  1.3773
15625SOL    HW264868  12.636  12.760   8.594 -0.5484 -0.0383 -0.8920
15626SOL     OW64869  11.026   6.614   1.111 -0.1265  0.0710 -0.3356
15626SOL    HW164870  11.075   6.665   1.175 -0.6570 -0.3396  0.4051
15626SOL    HW264871  10.971   6.556   1.163 -0.6895 -0.1508 -1.1619
15627SOL     OW64872   2.095   0.407  12.757 -0.3439 -0.0851 -0.3849
15627SOL    HW164873   2.131   0.331  12.803  0.6160  0.7041  0.2085
15627SOL    HW264874   2.026   0.371  12.702 -1.0397 -1.1664  1.1206
15628SOL     OW64875   5.435   4.108   6.431 -0.0053  0.6020 -0.1842
15628SOL    HW164876   5.433   4.125   6.525 -0.8737 -0.2857 -0.0248
15628SOL    HW264877   5.343   4.116   6.404 -0.0938 -1.2485 -0.5497
15629SOL     OW64878  11.012   8.495   4.668  0.4120  0.1274  0.2763
15629SOL    HW164879  11.032   8.523   4.579 -0.0408 -1.2480 -0.2838
15629SOL    HW264880  11.023   8.574   4.721  1.4284  0.7927 -0.8735
15630SOL     OW64881   6.186   7.288  10.191  0.5492 -0.0175 -0.0041
15630SOL    HW164882   6.196   7.345  10.267 -0.0206 -0.3176  0.3083
15630SOL    HW264883   6.241   7.327  10.124 -0.1501  1.1461  0.0678
15631SOL     OW64884   9.056   9.279  12.009 -0.0675  0.0635  0.6543
15631SOL    HW164885   8.992   9.320  11.950  1.3556 -0.0857 -1.0872
15631SOL    HW264886   9.131   9.339  12.008  0.3397 -0.4108  1.6053
15632SOL     OW64887   8.290  10.563   4.317  0.3444 -0.0343 -0.3732
15632SOL    HW164888   8.310  10.616   4.240  0.7791  0.5308  0.1232
15632SOL    HW264889   8.226  10.499   4.286 -0.3125  0.8819 -0.9341
15633SOL     OW64890  12.174  12.584   3.011 -0.1351  0.1471  0.0654
15633SOL    HW164891  12.128  12.665   3.032  0.5867  0.9915 -1.4528
15633SOL    HW264892  12.208  12.553   3.096  1.5626  2.6807  0.4105
15634SOL     OW64893   7.013   2.853  12.891 -0.1066  0.0567  1.2948
15634SOL    HW164894   6.925   2.817  12.877 -0.5894  0.8779  2.1177
15634SOL    HW264895   7.000   2.948  12.890  0.8662  0.1886  0.8773
15635SOL     OW64896   9.112  10.664   5.473 -0.2585 -0.0386 -0.3343
15635SOL    HW164897   9.068  10.602   5.415 -0.7349 -1.1181  1.1094
15635SOL    HW264898   9.132  10.614   5.552  0.1908  1.4061  0.5240
15636SOL     OW64899   3.097  13.233   5.160  0.1932 -0.2385  0.0124
15636SOL    HW164900   3.034  13.270   5.099 -0.9581  0.8638  1.7625
15636SOL    HW264901   3.067  13.143   5.175  1.2646 -0.9972 -1.9688
15637SOL     OW64902   4.235   3.807   2.919  0.1596  0.2265 -0.3122
15637SOL    HW164903   4.223   3.741   2.987  2.9289  0.9287  0.9819
15637SOL    HW264904   4.274   3.882   2.964  1.8402  0.8416 -2.5767
15638SOL     OW64905  11.198   2.123   1.708  0.9780 -0.0089  0.0214
15638SOL    HW164906  11.205   2.207   1.753  2.1186  0.0949 -0.3101
15638SOL    HW264907  11.205   2.144   1.615 -4.1085  0.1045 -0.6213
15639SOL     OW64908  10.774   7.345  11.226  0.1299 -0.0689  0.2482
15639SOL    HW164909  10.849   7.353  11.168 -1.5401 -0.3746 -2.0866
15639SOL    HW264910  10.723   7.425  11.212 -1.9563 -1.5385 -1.3363
15640SOL     OW64911   0.479  13.249   3.177  0.2626 -0.8019  0.3698
15640SOL    HW164912   0.420  13.197   3.233 -2.1075  1.9248  0.6422
15640SOL    HW264913   0.497  13.328   3.228  0.7282  0.2949 -1.4243
15641SOL     OW64914   1.327  12.406   4.309  0.3040  0.5287  0.5533
15641SOL    HW164915   1.341  12.460   4.387 -0.0812  0.0117  0.9814
15641SOL    HW264916   1.284  12.464   4.246  0.2953  0.8439  0.8524
15642SOL     OW64917   8.797   2.996   8.204  0.7570 -0.4394 -0.1395
15642SOL    HW164918   8.755   2.934   8.144 -1.9596  2.1031 -1.0694
15642SOL    HW264919   8.862   2.943   8.250 -0.8205 -3.7736 -1.4068
15643SOL     OW64920  11.129   4.679   3.578 -0.0521 -0.0497 -0.0744
15643SOL    HW164921  11.125   4.590   3.545 -1.1650 -0.2053  0.4463
15643SOL    HW264922  11.120   4.734   3.500  0.0519 -0.3911 -0.3265
15644SOL     OW64923  11.592  10.915   0.515 -0.4291 -0.0837  0.3521
15644SOL    HW164924  11.597  10.983   0.582 -0.0048  1.7756 -1.4531
15644SOL    HW264925  11.675  10.868   0.521 -0.0856  0.5533  0.6335
15645SOL     OW64926   5.449  12.886   2.469 -0.3534 -0.4634 -0.1277
15645SOL    HW164927   5.528  12.855   2.513  1.3736 -0.2805 -2.8386
15645SOL    HW264928   5.442  12.978   2.493 -0.0582 -0.6155  0.5498
15646SOL     OW64929   8.732   2.020   1.143 -0.1346 -0.2204  0.1122
15646SOL    HW164930   8.709   1.974   1.223  0.3619 -1.4341 -0.4152
15646SOL    HW264931   8.828   2.023   1.143 -0.0845 -1.1744 -0.9186
15647SOL     OW64932  11.888  10.666  11.383  0.3254  0.2740 -0.4047
15647SOL    HW164933  11.909  10.632  11.469  2.5752  0.6845 -0.7251
15647SOL    HW264934  11.851  10.753  11.399  0.7347  0.3458  0.1667
15648SOL     OW64935   9.712   8.596   5.642 -0.5948  0.1343  0.2128
15648SOL    HW164936   9.616   8.597   5.644 -0.6145  2.0925  0.9836
15648SOL    HW264937   9.737   8.591   5.735  0.0325  0.2830  0.0543
15649SOL     OW64938   6.303  13.588  10.614  0.4687  0.8185  0.0733
15649SOL    HW164939   6.390  13.550  10.619  0.9900  1.7314 -1.5089
15649SOL    HW264940   6.313  13.664  10.557 -1.8616 -0.6035 -2.5017
15650SOL     OW64941   2.060  14.108  13.642  0.1578 -0.5427  0.0477
15650SOL    HW164942   2.133  14.055  13.610  0.4191  0.2622 -0.7354
15650SOL    HW264943   2.099  14.166  13.707  0.7886  1.5695 -2.0638
15651SOL     OW64944   2.817   5.909   6.417 -0.1179  0.5910 -0.5135
15651SOL    HW164945   2.745   5.968   6.436 -1.0627 -0.7735  0.3413
15651SOL    HW264946   2.851   5.884   6.503  0.4030  0.0633 -0.8641
15652SOL     OW64947   3.663   4.234   1.003 -0.5246  0.6123 -0.1975
15652SOL    HW164948   3.610   4.235   0.923 -0.8794 -1.2347 -0.0456
15652SOL    HW264949   3.656   4.143   1.034  1.6442  0.6559  0.5687
15653SOL     OW64950  13.921  12.056   7.356 -0.5227 -0.0567 -0.7526
15653SOL    HW164951  13.995  12.088   7.407 -0.4137  2.9968 -2.5805
15653SOL    HW264952  13.844  12.073   7.410 -0.1241 -1.1390  0.2048
15654SOL     OW64953   2.194   4.047  12.986  0.1665 -0.3084  0.0596
15654SOL    HW164954   2.125   4.077  12.927  1.1345  1.8667 -0.0747
15654SOL    HW264955   2.183   3.952  12.990 -3.7662  0.0273  1.2676
15655SOL     OW64956   7.552   3.557   9.351 -0.1910 -0.2557  0.4788
15655SOL    HW164957   7.472   3.573   9.401 -1.3685  0.9870 -1.6459
15655SOL    HW264958   7.525   3.500   9.279  0.5573  0.9683 -0.8289
15656SOL     OW64959   8.967   9.352  14.102  0.3357  0.2724  0.0163
15656SOL    HW164960   8.930   9.286  14.161 -0.7571  1.5272  0.7940
15656SOL    HW264961   8.903   9.361  14.032  0.9171 -0.1400 -0.5727
15657SOL     OW64962  11.018   5.648  10.340 -0.7317  0.2278 -0.4738
15657SOL    HW164963  10.975   5.573  10.381  0.9051 -0.6290 -0.2174
15657SOL    HW264964  11.073   5.685  10.409 -0.4266  0.7736 -1.0006
15658SOL     OW64965  11.533  14.059  11.007  0.1438  0.0781  0.8011
15658SOL    HW164966  11.460  14.115  11.035  0.1927  1.3977 -1.4692
15658SOL    HW264967  11.571  14.105  10.932  0.2872 -2.9081 -1.1177
15659SOL     OW64968   4.069   8.439   8.442  0.3824  0.0676  0.3965
15659SOL    HW164969   4.053   8.497   8.517  1.2239  1.6903 -0.6048
15659SOL    HW264970   4.013   8.363   8.457 -0.5825  1.0254  1.9094
15660SOL     OW64971   4.702   0.262   6.806  0.0495 -0.2414 -0.2115
15660SOL    HW164972   4.764   0.265   6.879 -0.6985 -0.8219  0.4702
15660SOL    HW264973   4.735   0.327   6.744  1.7943 -1.1172 -0.2463
15661SOL     OW64974   5.301   6.239   2.505 -0.2836  0.5637 -0.1385
15661SOL    HW164975   5.297   6.281   2.420  0.8408  2.2280  0.5719
15661SOL    HW264976   5.391   6.255   2.536 -0.0255 -1.7102  0.5379
15662SOL     OW64977   9.384   7.094   4.454  0.5751 -0.3203  0.0664
15662SOL    HW164978   9.403   7.004   4.426  0.1830 -0.5672  0.5571
15662SOL    HW264979   9.373   7.143   4.373 -0.0270 -0.9019 -0.2208
15663SOL     OW64980  11.501   0.043   1.235  0.1499  0.3466 -0.4684
15663SOL    HW164981  11.574   0.053   1.174 -0.2367  0.2488 -0.9528
15663SOL    HW264982  11.423   0.044   1.179 -0.3269  2.0712  0.1668
15664SOL     OW64983   7.981   1.130  13.791  0.1431  0.6151 -0.1370
15664SOL    HW164984   8.029   1.170  13.863 -0.7231  0.8611  0.3258
15664SOL    HW264985   7.911   1.192  13.771 -0.1849  0.1182 -0.5703
15665SOL     OW64986  10.274  11.415  13.522 -0.0624  0.1607 -0.5208
15665SOL    HW164987  10.325  11.395  13.601  0.2279  1.8841 -0.2211
15665SOL    HW264988  10.190  11.371  13.536  0.6001 -1.0082 -0.0658
15666SOL     OW64989  12.814   2.594   5.127 -0.2332 -0.0372 -0.3784
15666SOL    HW164990  12.852   2.606   5.214 -0.6353 -0.2249 -0.1734
15666SOL    HW264991  12.858   2.516   5.093  0.6958  0.6476 -0.7774
15667SOL     OW64992  10.754  12.273   0.172  0.7631  1.3494  0.1570
15667SOL    HW164993  10.759  12.311   0.260  1.6932  0.9646  0.2815
15667SOL    HW264994  10.778  12.182   0.184  0.5237  1.2021 -0.4450
15668SOL     OW64995  13.496   0.816   4.131 -0.1131  0.4681  0.1193
15668SOL    HW164996  13.441   0.804   4.053 -0.6844  0.1516  0.5571
15668SOL    HW264997  13.575   0.765   4.113 -1.1417 -1.4237  0.6064
15669SOL     OW64998   6.936   1.906   1.125  0.0495  0.3567 -0.1124
15669SOL    HW164999   7.028   1.918   1.100 -0.2253  1.0385 -0.8415
15669SOL    HW265000   6.913   1.819   1.092  0.6881 -0.2178  0.9081
15670SOL     OW65001   3.949  11.658   3.996 -0.0760  0.0511 -0.8177
15670SOL    HW165002   4.017  11.680   4.059 -0.9547  0.2388  0.0860
15670SOL    HW265003   3.996  11.620   3.922  0.8370 -1.9610  0.7259
15671SOL     OW65004   4.058   4.008  13.373  0.1884  0.4909  0.7429
15671SOL    HW165005   4.046   3.933  13.431 -1.2955 -1.7330 -2.1260
15671SOL    HW265006   3.988   4.068  13.397  0.5695  0.3722  2.2296
15672SOL     OW65007  10.276   5.067   8.796 -0.0280  0.0911  0.0106
15672SOL    HW165008  10.332   5.129   8.841 -0.7239  0.1515  0.8324
15672SOL    HW265009  10.301   4.982   8.831 -1.8722  0.2943  2.0580
15673SOL     OW65010   5.565  11.396   5.307  0.4478  0.3351  0.2745
15673SOL    HW165011   5.500  11.397   5.237  1.6164  0.3814 -0.8516
15673SOL    HW265012   5.539  11.323   5.363 -1.4901  1.3470  0.7910
15674SOL     OW65013   2.399   1.041   0.060 -0.1311 -0.0716  0.6091
15674SOL    HW165014   2.492   1.025   0.080 -0.3534 -1.6812  0.4133
15674SOL    HW265015   2.353   1.019   0.141 -0.6215 -2.4144 -0.2366
15675SOL     OW65016   6.736   9.957   9.056  0.3277 -0.0895 -0.0223
15675SOL    HW165017   6.687   9.925   8.980  0.9403  0.1724 -0.5365
15675SOL    HW265018   6.807   9.894   9.067  0.5556  0.1673 -0.0019
15676SOL     OW65019   4.762   9.396  12.519  0.2712 -0.2069  0.6252
15676SOL    HW165020   4.853   9.419  12.532  0.5660 -0.6161 -0.5623
15676SOL    HW265021   4.760   9.300  12.524 -0.1008 -0.1972  0.7096
15677SOL     OW65022  10.865   8.503   4.096 -0.0111 -0.1722  0.0727
15677SOL    HW165023  10.782   8.515   4.141  0.1822  0.9332  0.1571
15677SOL    HW265024  10.842   8.457   4.015 -0.6765  0.0013  0.1596
15678SOL     OW65025  11.287   3.710   5.842 -0.0084  0.1175  0.0085
15678SOL    HW165026  11.354   3.736   5.779  0.5651 -0.3009  0.4332
15678SOL    HW265027  11.218   3.777   5.834  0.0314  0.0326 -1.0904
15679SOL     OW65028   6.459   5.689  13.085  0.0401  0.0944 -0.2593
15679SOL    HW165029   6.546   5.649  13.089 -0.0055  0.0761  0.7794
15679SOL    HW265030   6.399   5.614  13.080  0.0972  0.1156 -1.8928
15680SOL     OW65031  13.645   3.398   1.643 -0.1887  0.6294 -0.6431
15680SOL    HW165032  13.682   3.313   1.619  0.2517  0.3593  0.8550
15680SOL    HW265033  13.656   3.403   1.738  0.2953  2.5937 -0.7420
15681SOL     OW65034  10.863   1.437   7.868  0.4658 -0.3539  0.3783
15681SOL    HW165035  10.834   1.359   7.915 -1.1024  0.6887  1.2366
15681SOL    HW265036  10.828   1.426   7.779 -1.6107  0.2837  1.0509
15682SOL     OW65037  11.424  12.263   8.356  0.1954 -0.1617  0.4078
15682SOL    HW165038  11.504  12.315   8.347 -0.3383  0.7329  0.7127
15682SOL    HW265039  11.454  12.173   8.359  1.0732  0.0554 -1.1052
15683SOL     OW65040  10.577  10.923  10.908  0.1775 -0.0251  0.1639
15683SOL    HW165041  10.667  10.895  10.925  0.2464  0.0877 -0.0081
15683SOL    HW265042  10.581  10.966  10.823  0.2036  1.0648  0.6970
15684SOL     OW65043  12.750  11.816   3.225 -0.0909  0.2224  0.2477
15684SOL    HW165044  12.761  11.789   3.316  1.8805 -0.4169 -0.1257
15684SOL    HW265045  12.757  11.735   3.175  0.4449  0.7459 -0.5568
15685SOL     OW65046   1.559   5.991   2.893 -0.0173  0.1591  0.2783
15685SOL    HW165047   1.478   5.940   2.901  0.3167 -0.1785  1.9762
15685SOL    HW265048   1.624   5.939   2.941  0.8135  1.2227  0.3270
15686SOL     OW65049  13.824   5.908   3.871 -0.2655 -0.0210  0.4842
15686SOL    HW165050  13.787   5.885   3.957  1.2349  0.5075  1.3061
15686SOL    HW265051  13.819   5.827   3.821 -1.1607 -0.3425  1.0646
15687SOL     OW65052  12.863   8.269   7.075 -0.3971 -0.0341 -0.1175
15687SOL    HW165053  12.866   8.204   7.145 -0.8088 -1.2738 -1.2072
15687SOL    HW265054  12.877   8.353   7.119 -1.6022 -0.6663  1.5739
15688SOL     OW65055   5.044  12.843   6.316 -0.0993 -0.9902 -0.7802
15688SOL    HW165056   5.065  12.877   6.403 -1.6630 -0.1293 -0.7019
15688SOL    HW265057   5.013  12.754   6.331 -1.4408 -0.4716 -0.2834
15689SOL     OW65058   1.541  13.938   7.578 -0.1902  0.2681 -0.2862
15689SOL    HW165059   1.481  14.012   7.590 -1.1618 -0.1330 -2.3278
15689SOL    HW265060   1.484  13.863   7.563  0.8259 -0.5162 -0.3216
15690SOL     OW65061   7.782  10.529   8.190 -0.1584 -0.3297  0.1494
15690SOL    HW165062   7.861  10.530   8.244 -0.6073  0.7673  0.8180
15690SOL    HW265063   7.710  10.523   8.253 -0.6999  1.2181 -0.2777
15691SOL     OW65064   0.597   9.172   2.196 -0.4336 -0.2594 -0.0857
15691SOL    HW165065   0.521   9.226   2.177  0.1951  0.3050 -1.1543
15691SOL    HW265066   0.656   9.230   2.245 -0.0015 -0.1324 -0.7329
15692SOL     OW65067   0.057   3.708   4.439  0.0729 -0.3654  0.5905
15692SOL    HW165068   0.048   3.706   4.344 -2.0730  0.5594  0.6964
15692SOL    HW265069   0.111   3.785   4.456 -1.9632  1.2588  0.1483
15693SOL     OW65070   1.925  10.181   0.750  0.5500  0.0642  0.8663
15693SOL    HW165071   1.834  10.205   0.766  0.6186 -0.0638  1.4472
15693SOL    HW265072   1.933  10.091   0.782  0.6818 -0.2102  0.0923
15694SOL     OW65073   5.621   4.555  11.317  0.2180 -0.1271  0.0011
15694SOL    HW165074   5.643   4.489  11.250 -0.9474 -1.8152  1.2032
15694SOL    HW265075   5.651   4.516  11.399 -3.8487 -1.0183  1.2778
15695SOL     OW65076   4.769   2.835   5.222 -0.5370 -0.4017 -0.0625
15695SOL    HW165077   4.697   2.798   5.171 -1.5111  0.4436  0.6563
15695SOL    HW265078   4.783   2.921   5.182  0.7471 -0.9321 -0.8152
15696SOL     OW65079   6.060   5.057  12.196  0.5537  0.3487 -0.7143
15696SOL    HW165080   6.149   5.028  12.175  0.1639 -0.3609 -1.4258
15696SOL    HW265081   6.061   5.151  12.177  1.7790  0.8699  1.4651
15697SOL     OW65082  10.076   6.484   7.966  0.2876  0.7057 -0.0335
15697SOL    HW165083  10.072   6.443   8.053  1.6511 -0.8303 -0.6454
15697SOL    HW265084  10.070   6.410   7.905 -1.1938  1.8117 -1.2766
15698SOL     OW65085   7.892   1.481   2.828  0.5668  0.6070 -0.2201
15698SOL    HW165086   7.921   1.569   2.852 -0.2967  0.7425  0.4036
15698SOL    HW265087   7.800   1.493   2.803  0.4879 -0.1011 -0.2815
15699SOL     OW65088   9.380  13.236   4.841 -0.1667  0.3376 -0.2600
15699SOL    HW165089   9.288  13.233   4.818 -0.4334  0.4129  0.7542
15699SOL    HW265090   9.415  13.309   4.790 -1.0411  1.3916  0.6033
15700SOL     OW65091   6.503   3.539   0.686 -0.4570  0.1376 -0.1580
15700SOL    HW165092   6.428   3.503   0.733  0.5174 -0.6351  0.8427
15700SOL    HW265093   6.574   3.477   0.700  0.2996  0.6694 -1.3840
15701SOL     OW65094   8.705   1.322   0.817  0.0294  0.2458 -0.3801
15701SOL    HW165095   8.753   1.359   0.891  1.5038  1.2115 -1.7911
15701SOL    HW265096   8.634   1.384   0.801 -1.1298 -0.6211  0.9753
15702SOL     OW65097  11.862   0.499   3.410 -0.7594  1.1482 -0.4101
15702SOL    HW165098  11.842   0.500   3.317 -0.3111  2.5719 -0.5196
15702SOL    HW265099  11.945   0.452   3.416 -2.3080 -1.8304 -0.3139
15703SOL     OW65100  11.431  11.957   6.020  0.1627  0.3065 -0.4454
15703SOL    HW165101  11.474  11.886   6.068  1.7949  0.0766 -2.1653
15703SOL    HW265102  11.381  11.913   5.952  0.6024  0.7570 -1.0707
15704SOL     OW65103   2.628   7.470  13.934 -0.3837  0.1048 -0.1515
15704SOL    HW165104   2.699   7.470  13.870  0.2380  1.2980  0.5181
15704SOL    HW265105   2.671   7.474  14.019 -1.2311  1.5955  0.2520
15705SOL     OW65106   3.821  14.011   1.471  0.2888  0.3137 -0.1692
15705SOL    HW165107   3.895  13.951   1.469  1.7399  1.9572  1.2694
15705SOL    HW265108   3.752  13.965   1.423  1.1219 -2.6892  1.2823
15706SOL     OW65109   6.431  10.042   9.387 -0.5235 -0.3051  0.2537
15706SOL    HW165110   6.375   9.989   9.330 -1.5351  0.9308  0.0631
15706SOL    HW265111   6.370  10.098   9.435  0.5647  1.7693 -0.6565
15707SOL     OW65112   7.537   3.550   3.711 -0.2774 -0.1202 -0.7060
15707SOL    HW165113   7.616   3.497   3.719 -2.0236 -2.5438  2.7946
15707SOL    HW265114   7.513   3.543   3.618  2.6642 -0.6306 -1.5106
15708SOL     OW65115   1.606   0.735  11.425 -0.1256 -0.2968 -0.2333
15708SOL    HW165116   1.640   0.650  11.455 -0.0578 -0.3318 -0.4094
15708SOL    HW265117   1.575   0.718  11.336  0.7946  0.0885 -0.6449
15709SOL     OW65118   3.119  12.288  11.819 -0.0184 -0.2002 -0.1129
15709SOL    HW165119   3.035  12.247  11.798 -0.1308 -0.1770  0.2929
15709SOL    HW265120   3.173  12.272  11.741 -0.5443  0.1946 -0.5719
15710SOL     OW65121   8.302   3.497  12.365  0.0759  0.0321  0.2967
15710SOL    HW165122   8.252   3.419  12.339 -0.5325  0.4867  0.0697
15710SOL    HW265123   8.254   3.531  12.440  0.9065 -0.3585  1.0184
15711SOL     OW65124  12.861  10.296  12.742  0.4772  0.2928  0.8743
15711SOL    HW165125  12.929  10.358  12.716  0.1646  0.5286  0.6161
15711SOL    HW265126  12.876  10.219  12.687  1.7627 -0.4374  2.2050
15712SOL     OW65127   6.867   8.229   2.139 -0.1942 -0.3528 -0.3727
15712SOL    HW165128   6.773   8.217   2.154 -0.5642  0.9471 -1.4431
15712SOL    HW265129   6.877   8.222   2.044  0.5505  0.9912 -0.4173
15713SOL     OW65130  10.765  11.191  11.189  0.0387  1.1491 -0.1567
15713SOL    HW165131  10.815  11.207  11.108  2.2469  1.3786  1.1562
15713SOL    HW265132  10.831  11.193  11.258 -1.3595 -1.5269  1.4354
15714SOL     OW65133   4.642   6.598   9.291  0.1939 -0.2258 -0.0772
15714SOL    HW165134   4.586   6.668   9.257 -1.2034 -0.4075  1.6994
15714SOL    HW265135   4.709   6.644   9.341 -1.7461 -0.0837  2.5928
15715SOL     OW65136   9.604  12.718   0.336 -0.1465  0.0401  0.0763
15715SOL    HW165137   9.566  12.779   0.399  1.0294  0.2442  0.6287
15715SOL    HW265138   9.689  12.696   0.374  0.0955 -0.7395 -0.8856
15716SOL     OW65139   6.942   5.274   2.731 -0.4435 -0.2271  0.6527
15716SOL    HW165140   6.895   5.357   2.723  0.0390 -0.0173 -0.0711
15716SOL    HW265141   7.015   5.292   2.789 -0.0590 -0.0100  0.1122
15717SOL     OW65142   7.989   1.746   5.292  0.6555 -0.5389 -0.3639
15717SOL    HW165143   7.953   1.661   5.265 -1.1296  0.4740 -1.3884
15717SOL    HW265144   7.912   1.796   5.322  1.9780 -0.1048  2.6742
15718SOL     OW65145   7.591   3.642   5.841  0.4443  0.3822  0.0215
15718SOL    HW165146   7.601   3.718   5.783 -0.6895  0.0593 -0.6435
15718SOL    HW265147   7.508   3.658   5.886  0.3724 -0.2881  0.1367
15719SOL     OW65148   6.635   8.347  11.806 -0.0474 -0.2928  0.4834
15719SOL    HW165149   6.724   8.345  11.841  1.2065 -0.6884 -2.4722
15719SOL    HW265150   6.622   8.260  11.768 -1.1721  0.2255 -0.3621
15720SOL     OW65151   2.444   3.498   7.105 -0.0502 -0.1769  0.3654
15720SOL    HW165152   2.479   3.519   7.191 -1.7707 -1.0005  1.3158
15720SOL    HW265153   2.369   3.556   7.094  0.1427 -0.0904 -0.5777
15721SOL     OW65154   0.416  13.635  11.774  0.2054 -0.0332 -0.3782
15721SOL    HW165155   0.335  13.683  11.759 -1.5189 -2.4361  0.5669
15721SOL    HW265156   0.429  13.583  11.696  0.5425 -0.0863 -0.2917
15722SOL     OW65157   7.491   0.817  10.530  0.5766 -0.4776 -0.1023
15722SOL    HW165158   7.561   0.825  10.595 -2.0492  1.7722  2.7361
15722SOL    HW265159   7.449   0.733  10.550  0.3187 -0.1957  0.5673
15723SOL     OW65160   9.800   1.679  12.964 -0.0488  0.1498  0.2178
15723SOL    HW165161   9.810   1.614  12.894  0.2223 -0.6330  0.9623
15723SOL    HW265162   9.878   1.669  13.017 -0.8201 -0.1369  1.3368
15724SOL     OW65163   6.220  10.625   0.052 -0.0124  0.4270 -0.2441
15724SOL    HW165164   6.140  10.641   0.002 -0.4147  2.0685  0.8609
15724SOL    HW265165   6.276  10.575  -0.008 -1.3253  0.4104 -1.5098
15725SOL     OW65166   8.487   4.821   2.908  0.3147 -0.1467 -0.0908
15725SOL    HW165167   8.570   4.798   2.866  0.5633 -0.1065  0.3690
15725SOL    HW265168   8.501   4.801   3.001 -0.0051  0.3634  0.0736
15726SOL     OW65169   4.541  10.775   7.993  0.8307  0.3385 -0.0801
15726SOL    HW165170   4.628  10.775   7.952  1.2346  3.3349  0.5647
15726SOL    HW265171   4.481  10.796   7.921  0.2044 -3.7059 -0.9878
15727SOL     OW65172   4.562   5.227   0.865 -0.4013  0.6494 -0.7264
15727SOL    HW165173   4.611   5.146   0.851 -1.8795 -0.0675 -1.9451
15727SOL    HW265174   4.491   5.201   0.923  0.3148  1.5751  0.6129
15728SOL     OW65175   9.423  12.132  10.235  0.4892 -0.0285  0.3755
15728SOL    HW165176   9.406  12.165  10.147 -1.0041 -0.2367  0.5498
15728SOL    HW265177   9.423  12.209  10.291  0.5820  0.0264  0.2967
15729SOL     OW65178  12.147  11.975   0.197 -0.1580 -0.2342  0.0023
15729SOL    HW165179  12.120  11.928   0.276 -0.4846  0.1768  0.1401
15729SOL    HW265180  12.242  11.978   0.202 -0.2095  0.3710  0.7235
15730SOL     OW65181  12.668   6.145  10.881 -0.3491  0.2097 -0.3112
15730SOL    HW165182  12.645   6.226  10.836 -0.6214  0.1388 -0.2997
15730SOL    HW265183  12.602   6.081  10.853 -2.3097  0.8648  2.2945
15731SOL     OW65184   0.171   9.685   8.050  0.1020  0.2125 -0.5758
15731SOL    HW165185   0.195   9.599   8.084 -1.1660 -1.5090 -3.5918
15731SOL    HW265186   0.125   9.727   8.122  2.1708 -0.9062  1.5377
15732SOL     OW65187   7.927   8.672  11.196  0.8483 -0.5706  0.5609
15732SOL    HW165188   7.875   8.736  11.146 -1.2366 -2.4984  0.1123
15732SOL    HW265189   8.007   8.662  11.145 -0.7876 -1.7372 -1.9992
15733SOL     OW65190   2.009   9.892   5.315  0.4485 -0.4137  0.2776
15733SOL    HW165191   1.971   9.902   5.228  3.1095  1.4535 -0.7916
15733SOL    HW265192   1.935   9.905   5.375 -0.9895  0.8309 -1.6673
15734SOL     OW65193   0.068  10.410  11.518 -0.3667 -0.1143 -0.4505
15734SOL    HW165194   0.059  10.433  11.425  0.0320 -0.8296 -0.6786
15734SOL    HW265195   0.008  10.336  11.529 -1.0561  0.5069  0.0798
15735SOL     OW65196   0.625  11.397  10.516  0.3339 -0.0294  0.2981
15735SOL    HW165197   0.547  11.445  10.489 -0.6628 -0.6765  1.8905
15735SOL    HW265198   0.591  11.313  10.548  1.6152 -0.0888  1.5775
15736SOL     OW65199   9.004   4.350   7.237 -0.1381 -0.0125 -0.3281
15736SOL    HW165200   8.909   4.342   7.241 -0.2744  0.1265 -2.3328
15736SOL    HW265201   9.036   4.286   7.300 -1.5610 -1.2617 -0.8111
15737SOL     OW65202   1.885   0.083  11.161  0.1634 -0.3312  0.2288
15737SOL    HW165203   1.930   0.054  11.240  2.5859  1.6620 -0.3050
15737SOL    HW265204   1.855   0.171  11.181 -1.4287 -0.7152 -0.2867
15738SOL     OW65205   2.595   6.395   7.579  0.0003 -0.3090  0.1133
15738SOL    HW165206   2.562   6.398   7.489 -0.4218 -0.1747  0.2720
15738SOL    HW265207   2.595   6.302   7.601  0.6026 -0.3941 -0.2029
15739SOL     OW65208  11.733   3.136   4.127 -0.4147 -0.2224 -0.2732
15739SOL    HW165209  11.664   3.130   4.060  0.1306  0.0546 -0.8724
15739SOL    HW265210  11.777   3.219   4.109 -0.9515  0.3941  1.1350
15740SOL     OW65211  10.706  10.652  12.123 -0.3753  0.0672 -0.1432
15740SOL    HW165212  10.639  10.672  12.058 -1.2642 -0.2424  0.6451
15740SOL    HW265213  10.658  10.611  12.195  0.7575 -0.7847  0.1674
15741SOL     OW65214   3.248   1.129   7.924 -0.6701  0.2528  0.0770
15741SOL    HW165215   3.166   1.129   7.873 -0.3561  3.5126 -0.6580
15741SOL    HW265216   3.229   1.185   7.999  0.7196  0.6675  0.1478
15742SOL     OW65217  10.572   1.863   8.509  0.2421  0.2458 -0.0522
15742SOL    HW165218  10.527   1.883   8.592 -1.9227  0.7280 -1.2613
15742SOL    HW265219  10.557   1.770   8.496  1.5637 -0.0876  0.5994
15743SOL     OW65220   2.209   5.450   2.651 -0.4090 -0.2636 -0.0997
15743SOL    HW165221   2.247   5.491   2.573 -0.2193  1.5661  0.9086
15743SOL    HW265222   2.116   5.438   2.629 -0.7973  2.0648  0.0550
15744SOL     OW65223   1.200   3.057   2.241 -0.5440 -0.0610 -0.0161
15744SOL    HW165224   1.228   2.997   2.173  0.7871  0.9111 -0.3693
15744SOL    HW265225   1.119   3.019   2.276 -1.2267 -0.6182 -2.0736
15745SOL     OW65226   4.220   9.598   9.102  0.0598 -0.1864  0.1360
15745SOL    HW165227   4.153   9.628   9.164 -0.8994 -0.2541 -0.8305
15745SOL    HW265228   4.296   9.653   9.121 -0.3965  0.1816  0.9820
15746SOL     OW65229   9.217  12.020  12.578  0.4529  0.1574  0.0627
15746SOL    HW165230   9.253  11.961  12.511  0.2556  0.0533  0.0455
15746SOL    HW265231   9.123  12.019  12.562  0.4285  0.3091  0.1996
15747SOL     OW65232   3.871   6.145  10.649 -0.0758  0.1455 -0.1233
15747SOL    HW165233   3.931   6.215  10.674  1.4159 -0.9891 -0.4119
15747SOL    HW265234   3.807   6.188  10.593 -0.3700  1.6527  1.2893
15748SOL     OW65235  13.955   8.150   4.084  1.1300 -0.3928 -0.3414
15748SOL    HW165236  13.901   8.147   4.163  0.6792 -0.0247 -0.6291
15748SOL    HW265237  14.043   8.167   4.116  0.8284  0.5419  0.0425
15749SOL     OW65238   0.553  10.176   9.462  0.3470 -0.6301 -0.2484
15749SOL    HW165239   0.511  10.092   9.443 -2.1286 -0.7165  4.1722
15749SOL    HW265240   0.617  10.156   9.530 -1.3424  1.0712  2.0016
15750SOL     OW65241   7.055   5.548  13.326 -0.3875  0.1494  0.0760
15750SOL    HW165242   7.129   5.560  13.386  0.8127  1.0262 -1.5017
15750SOL    HW265243   7.006   5.474  13.362  1.0104 -0.1674  1.4137
15751SOL     OW65244   9.472  12.118  13.065 -0.2256  0.5074  0.2296
15751SOL    HW165245   9.519  12.061  13.005  1.1813  1.3671  0.4883
15751SOL    HW265246   9.495  12.207  13.038 -2.5376  1.0087 -0.2901
15752SOL     OW65247  14.108   8.621   9.831  0.1610 -0.0002  0.3088
15752SOL    HW165248  14.141   8.597   9.918  2.4056  0.5096 -0.3394
15752SOL    HW265249  14.124   8.543   9.778  0.9155  0.4539 -0.1505
15753SOL     OW65250  12.213  11.759   0.577 -0.3943  0.2007  0.5117
15753SOL    HW165251  12.164  11.804   0.508 -0.6994 -1.4154 -0.3705
15753SOL    HW265252  12.301  11.749   0.541 -0.8181 -1.5802 -0.1500
15754SOL     OW65253   1.303   8.915   2.020  0.1363 -0.1435  0.1897
15754SOL    HW165254   1.242   8.886   2.089  0.8513 -2.2087  0.0298
15754SOL    HW265255   1.272   8.871   1.941  0.1816  1.0548 -0.5071
15755SOL     OW65256   1.138  13.800   9.621  0.0360  0.3106 -0.2480
15755SOL    HW165257   1.095  13.716   9.606 -1.6751  0.5380  2.6118
15755SOL    HW265258   1.100  13.858   9.555  0.9984 -1.0102 -2.0489
15756SOL     OW65259   2.640  11.735   2.783  0.2301  0.2074 -0.2635
15756SOL    HW165260   2.614  11.744   2.691 -0.0897  0.2880 -0.1669
15756SOL    HW265261   2.643  11.640   2.798  1.8652  0.1379 -0.7938
15757SOL     OW65262  10.551   1.151   4.173 -0.1103 -0.2574  0.1948
15757SOL    HW165263  10.568   1.227   4.119 -1.6219 -0.6169 -0.8521
15757SOL    HW265264  10.600   1.080   4.132  0.3807 -0.0907  0.4950
15758SOL     OW65265  10.595  13.304  11.343  0.0451 -0.3097  0.1087
15758SOL    HW165266  10.509  13.285  11.380  0.3514 -0.4579  0.7566
15758SOL    HW265267  10.590  13.396  11.317  0.2334  0.2046  1.7358
15759SOL     OW65268  11.392  11.130   7.770 -0.4944  0.4355 -0.4203
15759SOL    HW165269  11.317  11.158   7.717  0.8281  2.0773 -1.5084
15759SOL    HW265270  11.361  11.050   7.813 -2.5640  0.5628 -1.5060
15760SOL     OW65271   8.610  12.489   5.539 -0.2641  0.9077  0.8959
15760SOL    HW165272   8.533  12.523   5.493 -0.6971 -0.8007  0.2651
15760SOL    HW265273   8.670  12.463   5.470  0.7333  1.8480  1.3832
15761SOL     OW65274   5.574   7.033  10.810  0.0701  0.5392 -0.3288
15761SOL    HW165275   5.603   7.018  10.900  1.6421 -2.6004 -1.2097
15761SOL    HW265276   5.479   7.019  10.812 -0.5419  3.9220  1.3243
15762SOL     OW65277   3.910   4.280   5.322  0.4049 -0.0874  0.2100
15762SOL    HW165278   3.913   4.367   5.364 -0.0119  0.4228 -0.7885
15762SOL    HW265279   4.001   4.254   5.315  0.5094  0.0392  0.9798
15763SOL     OW65280  12.584   8.813   6.464  0.0373  0.2618 -0.0698
15763SOL    HW165281  12.572   8.718   6.469 -1.1156  0.2710 -1.8818
15763SOL    HW265282  12.679   8.825   6.469  0.2992 -1.1109 -1.1124
15764SOL     OW65283  11.091   1.863   4.526 -0.1542 -0.0719 -0.0780
15764SOL    HW165284  11.142   1.791   4.564 -0.6479 -0.4769 -0.1769
15764SOL    HW265285  11.130   1.876   4.439 -0.6749 -0.8632 -0.4384
15765SOL     OW65286  10.981   8.926   8.890 -0.0193 -0.3332 -0.3322
15765SOL    HW165287  10.904   8.980   8.871 -1.6818 -1.8656  1.5345
15765SOL    HW265288  10.978   8.857   8.824  0.0605 -0.1061 -0.5765
15766SOL     OW65289   9.792   0.643  10.146 -0.2493 -0.1063  0.5716
15766SOL    HW165290   9.746   0.559  10.150 -2.5549  0.9070 -1.8327
15766SOL    HW265291   9.878   0.622  10.110 -0.5469 -1.4910  0.6098
15767SOL     OW65292   3.956   4.069  13.742  0.2806 -0.2061 -0.1124
15767SOL    HW165293   3.865   4.064  13.771 -0.3582 -1.6047 -2.1317
15767SOL    HW265294   3.955   4.036  13.652  2.4814  1.5656 -0.9106
15768SOL     OW65295  10.683   3.560   6.959 -0.2364 -0.5007 -0.2693
15768SOL    HW165296  10.630   3.577   7.038  0.4136 -0.8885  0.2529
15768SOL    HW265297  10.754   3.504   6.989  1.1664  0.9537 -0.7052
15769SOL     OW65298   1.597   7.922   4.447  0.1322  0.7208 -0.1690
15769SOL    HW165299   1.617   7.933   4.540 -1.1880  1.8747  0.0155
15769SOL    HW265300   1.683   7.919   4.405  0.7664  2.0111  0.9089
15770SOL     OW65301   9.324   1.415   8.901 -0.6128  0.4992  0.2133
15770SOL    HW165302   9.405   1.426   8.951 -0.9731  0.9892  0.7020
15770SOL    HW265303   9.301   1.322   8.913 -1.2312  0.8255  1.8164
15771SOL     OW65304  11.571   2.272   2.839 -0.3475  0.2221  0.0014
15771SOL    HW165305  11.572   2.180   2.867  1.0297  0.9086  2.4730
15771SOL    HW265306  11.582   2.268   2.744  2.0276 -2.1543  0.2563
15772SOL     OW65307   8.153   1.719   0.875  0.4065  0.1316  0.1958
15772SOL    HW165308   8.143   1.726   0.780  1.3785  1.2297  0.1569
15772SOL    HW265309   8.189   1.631   0.888 -0.0800 -0.1704 -0.4088
15773SOL     OW65310  11.568  13.405  10.198  0.2452  0.3710  0.1543
15773SOL    HW165311  11.580  13.310  10.203 -1.9824 -0.0475 -1.2830
15773SOL    HW265312  11.653  13.438  10.170  0.7602 -1.3037 -0.3736
15774SOL     OW65313   4.584   6.271  10.278  0.1850 -0.2015  0.1427
15774SOL    HW165314   4.633   6.236  10.352  2.8294 -0.3467 -1.5581
15774SOL    HW265315   4.569   6.363  10.301 -0.5499 -0.6541  1.5590
15775SOL     OW65316   5.804  10.456  13.489  0.6976 -0.2449 -0.3890
15775SOL    HW165317   5.797  10.496  13.402 -1.3030 -0.9662 -0.6238
15775SOL    HW265318   5.816  10.362  13.470 -0.5409 -0.5101  0.0925
15776SOL     OW65319  13.659   7.124   1.091  0.4392 -0.2053  0.1327
15776SOL    HW165320  13.750   7.142   1.068  0.0116  0.9941 -0.7242
15776SOL    HW265321  13.624   7.079   1.014  0.2935 -0.6279  0.4452
15777SOL     OW65322   1.456   1.783   2.927  0.1111  0.0935 -0.1004
15777SOL    HW165323   1.411   1.786   3.012 -0.0278  0.4790 -0.1844
15777SOL    HW265324   1.385   1.786   2.863  0.1930 -0.6754 -0.2340
15778SOL     OW65325   7.477   9.097   8.328 -0.9273 -0.3064 -0.3352
15778SOL    HW165326   7.522   9.140   8.255  0.2412  2.5983  1.8501
15778SOL    HW265327   7.384   9.105   8.307 -0.6182  0.2134 -1.6199
15779SOL     OW65328  13.122  10.500  13.988 -0.9091  0.2702  0.2752
15779SOL    HW165329  13.160  10.421  13.950  1.5533  2.2125 -1.6643
15779SOL    HW265330  13.035  10.506  13.948 -0.6823 -0.8418 -0.4514
15780SOL     OW65331   5.561   2.668  13.615 -0.1375 -0.0574 -0.1507
15780SOL    HW165332   5.605   2.599  13.666  1.4807  0.2761 -1.0320
15780SOL    HW265333   5.558   2.743  13.674  0.1229 -0.1985  0.0454
15781SOL     OW65334   0.350   2.379   6.632  0.2260 -0.1747  0.1860
15781SOL    HW165335   0.365   2.322   6.707 -2.7213  0.3526  1.3331
15781SOL    HW265336   0.376   2.466   6.663 -1.7030  0.1819  1.0134
15782SOL     OW65337   3.703  10.938  13.464 -0.3726  0.0573 -0.0403
15782SOL    HW165338   3.785  10.900  13.496  0.2067  1.1018 -0.2623
15782SOL    HW265339   3.693  10.902  13.375 -0.1832 -0.1041  0.0026
15783SOL     OW65340   0.594   9.325   4.377 -0.2756 -0.6670 -0.4472
15783SOL    HW165341   0.528   9.373   4.326 -0.9715 -0.5762  0.4945
15783SOL    HW265342   0.614   9.248   4.324 -1.5788 -0.9890 -0.5062
15784SOL     OW65343   3.043   7.104   8.115  0.8724  0.0893  0.1309
15784SOL    HW165344   2.983   7.061   8.176 -0.7420  0.6746 -0.9675
15784SOL    HW265345   3.089   7.169   8.168 -0.3383  0.4514  0.7751
15785SOL     OW65346   8.500  13.195   0.564 -0.3506  0.1245 -0.2829
15785SOL    HW165347   8.513  13.142   0.486 -2.1256 -0.3300 -0.3186
15785SOL    HW265348   8.579  13.183   0.615  0.3349 -0.5211 -1.4620
15786SOL     OW65349   8.211   2.997  13.964  0.3072 -0.3826 -0.2346
15786SOL    HW165350   8.237   2.919  14.012  1.5929  0.5255  0.6151
15786SOL    HW265351   8.197   2.967  13.874  1.0068 -1.5398  0.0257
15787SOL     OW65352  11.795   7.513   5.328  0.5758  1.0634 -0.7920
15787SOL    HW165353  11.705   7.480   5.322  1.1169 -1.0742  1.2878
15787SOL    HW265354  11.849   7.436   5.310  1.9416  1.3902  1.6157
15788SOL     OW65355   7.487   9.910  12.216  0.1600  0.3812 -0.2759
15788SOL    HW165356   7.411   9.968  12.212 -0.4823 -0.4257  0.0433
15788SOL    HW265357   7.541   9.946  12.286 -2.3127 -1.8106  3.0079
15789SOL     OW65358   9.183  13.539   1.437 -0.0513  0.8275  0.1442
15789SOL    HW165359   9.193  13.548   1.532 -1.6601  0.9888  0.3223
15789SOL    HW265360   9.089  13.549   1.421 -0.8933 -5.1303 -0.8103
15790SOL     OW65361   4.097   6.146   8.677 -0.3367 -0.0128 -0.4997
15790SOL    HW165362   4.061   6.229   8.708  0.2600  0.9587 -2.2205
15790SOL    HW265363   4.174   6.131   8.732 -1.5401 -0.4801  1.1166
15791SOL     OW65364  13.086  10.386   8.515 -0.4277 -0.4194 -0.5110
15791SOL    HW165365  13.132  10.427   8.588 -0.9106  1.8929 -1.4220
15791SOL    HW265366  12.995  10.380   8.545 -0.2678 -1.4153 -0.1751
15792SOL     OW65367   7.886   7.630   4.958 -0.1422 -0.2797 -0.2391
15792SOL    HW165368   7.871   7.724   4.952 -0.4267 -0.2921  0.2107
15792SOL    HW265369   7.886   7.611   5.052  4.0603 -0.0842  0.0142
15793SOL     OW65370  13.923   1.595   9.620 -0.7546  0.4920  0.2718
15793SOL    HW165371  13.998   1.538   9.638 -1.7218 -0.9569 -0.1354
15793SOL    HW265372  13.856   1.567   9.682 -0.8390  2.1116  0.9682
15794SOL     OW65373  12.861  14.127   9.633 -0.0853 -0.3250 -0.4142
15794SOL    HW165374  12.806  14.051   9.617 -0.6079 -0.1253  0.3591
15794SOL    HW265375  12.800  14.201   9.634  0.1128 -0.1475  0.9078
15795SOL     OW65376   5.379   4.576   4.242  0.6527 -0.0213  0.3587
15795SOL    HW165377   5.351   4.560   4.333 -1.1811  1.4418  0.1173
15795SOL    HW265378   5.326   4.516   4.190 -0.3313  1.0441  0.0834
15796SOL     OW65379   8.701   6.524   2.286 -0.0612  0.3154 -0.2155
15796SOL    HW165380   8.660   6.582   2.350 -0.6985  0.1609 -0.4761
15796SOL    HW265381   8.740   6.584   2.222  0.3281  0.4662  0.1563
15797SOL     OW65382   8.711   3.542  11.951  0.5758  0.0229  0.0610
15797SOL    HW165383   8.705   3.469  12.012  1.8776  1.0322  1.5005
15797SOL    HW265384   8.785   3.520  11.894  1.4698  0.5055  0.9892
15798SOL     OW65385   2.405   4.121   5.460  0.0537  0.0177  0.4233
15798SOL    HW165386   2.499   4.103   5.457 -0.1027 -1.0096  1.1990
15798SOL    HW265387   2.391   4.161   5.546  0.0950  2.2519 -0.5373
15799SOL     OW65388   6.696   1.240   1.895  0.2555 -0.3639 -0.0356
15799SOL    HW165389   6.778   1.208   1.856  0.7051  0.5560  0.1305
15799SOL    HW265390   6.629   1.215   1.832  0.8160 -0.0551 -0.7765
15800SOL     OW65391  10.660  11.439  10.379  0.2439  0.7419 -0.3240
15800SOL    HW165392  10.660  11.411  10.288  1.9804  0.9152 -0.4203
15800SOL    HW265393  10.594  11.508  10.384  0.8562  1.4542 -1.6985
15801SOL     OW65394   6.281   1.839   5.251  0.8139  0.0821  0.3873
15801SOL    HW165395   6.281   1.922   5.204  2.9670 -0.3409 -0.4430
15801SOL    HW265396   6.306   1.862   5.340 -2.5243  0.7780  1.3101
15802SOL     OW65397   2.378   7.322  10.324 -0.3198  0.5067  0.0345
15802SOL    HW165398   2.469   7.301  10.303 -0.5859 -0.7360  0.0488
15802SOL    HW265399   2.330   7.302  10.244 -0.7630 -0.1512  0.4575
15803SOL     OW65400  10.226  13.067   0.576 -0.6680  0.2010  0.0275
15803SOL    HW165401  10.295  13.090   0.638  0.0474  1.4209 -1.1777
15803SOL    HW265402  10.252  12.982   0.541  0.5901  0.9247 -0.8746
15804SOL     OW65403   5.543   6.583  11.685 -0.3027  0.2966 -0.1509
15804SOL    HW165404   5.591   6.528  11.747  0.5757  1.7789  0.5392
15804SOL    HW265405   5.469   6.617  11.735 -0.3763  0.4084 -0.3350
15805SOL     OW65406  12.085  10.491   8.431 -0.5325  0.0142 -0.1109
15805SOL    HW165407  12.134  10.469   8.352 -1.0427 -0.9161 -0.1925
15805SOL    HW265408  12.147  10.538   8.486  0.3959 -0.9769 -0.2821
15806SOL     OW65409   5.115   3.747   8.927 -0.4342 -0.1112  0.0070
15806SOL    HW165410   5.050   3.799   8.974 -0.8042 -1.1708  0.6975
15806SOL    HW265411   5.182   3.727   8.993 -0.3134 -0.5273 -0.2386
15807SOL     OW65412   0.623   9.037   7.205  0.0510  0.0510 -0.1175
15807SOL    HW165413   0.550   9.065   7.149 -0.4833  0.3306  0.7020
15807SOL    HW265414   0.620   8.941   7.202 -0.6994  0.0547  0.3497
15808SOL     OW65415   4.632   6.307   0.060  0.4069 -0.0829 -0.2311
15808SOL    HW165416   4.692   6.245   0.019  1.6570  1.7326 -1.2873
15808SOL    HW265417   4.614   6.270   0.146  1.3067 -1.7564 -0.7200
15809SOL     OW65418   4.725   5.043   4.579  0.0664  0.3393 -0.2697
15809SOL    HW165419   4.688   4.956   4.598  0.7061 -0.0378 -0.7110
15809SOL    HW265420   4.713   5.053   4.485 -1.4536  1.4288 -0.0048
15810SOL     OW65421   8.590   7.248  11.028  0.0155  0.4567 -0.1642
15810SOL    HW165422   8.533   7.252  10.952 -0.4002  1.0225  0.1708
15810SOL    HW265423   8.532   7.262  11.103  0.3224 -0.6842  0.3090
15811SOL     OW65424  10.405   3.742   9.980 -0.3119 -0.3333  0.1269
15811SOL    HW165425  10.334   3.700  10.029 -1.0174 -1.2562 -1.5969
15811SOL    HW265426  10.472   3.674   9.971 -0.1575 -0.1526 -0.1066
15812SOL     OW65427   2.817   6.505   2.227  0.4662  0.1566 -0.3739
15812SOL    HW165428   2.817   6.475   2.318  1.1153  1.8789  0.2437
15812SOL    HW265429   2.901   6.475   2.192  1.2695  1.4551  0.3466
15813SOL     OW65430  10.996  10.959  11.544 -0.2133  0.1739  0.1444
15813SOL    HW165431  11.067  10.918  11.595  0.4130  2.3450  1.1222
15813SOL    HW265432  10.923  10.966  11.606 -0.1673  0.8945  0.1268
15814SOL     OW65433   7.893  12.439   7.250  0.5032  0.5585 -0.1042
15814SOL    HW165434   7.842  12.359   7.265  0.0536  1.2516  2.6714
15814SOL    HW265435   7.830  12.502   7.217 -0.0146  0.8007  1.2910
15815SOL     OW65436   5.737   1.214   3.285 -0.5002  0.5794 -0.2680
15815SOL    HW165437   5.822   1.247   3.315 -0.5574  1.1240 -0.6821
15815SOL    HW265438   5.699   1.173   3.362 -0.1379  0.9045  0.0921
15816SOL     OW65439  13.155  13.691   2.330 -0.1119 -0.0038  0.1602
15816SOL    HW165440  13.169  13.624   2.397  0.2975 -1.4447 -1.3163
15816SOL    HW265441  13.195  13.655   2.251 -1.4968  1.1749 -1.1420
15817SOL     OW65442   8.246  13.899   6.947 -0.1906 -0.4210 -0.7568
15817SOL    HW165443   8.210  13.961   6.883 -1.0975 -1.4101 -1.2329
15817SOL    HW265444   8.271  13.822   6.895 -0.5420 -1.0738  0.0211
15818SOL     OW65445   1.795  10.627   7.048  0.0877 -0.3144  0.3232
15818SOL    HW165446   1.717  10.658   7.095  0.8519 -1.9703  2.8572
15818SOL    HW265447   1.770  10.540   7.016  0.3487 -0.1486 -0.3366
15819SOL     OW65448  11.754   3.060   4.933  0.1033 -0.4965  0.6801
15819SOL    HW165449  11.760   2.965   4.939  0.1885 -0.4877  0.7337
15819SOL    HW265450  11.709   3.076   4.850  0.4554 -0.5746  0.4702
15820SOL     OW65451   3.363  11.229  12.590 -0.1285 -0.0600  0.2095
15820SOL    HW165452   3.308  11.292  12.637  0.9326  0.7399  0.4129
15820SOL    HW265453   3.304  11.188  12.527 -0.6410  1.8536 -0.6164
15821SOL     OW65454   3.079   2.132   2.628  0.0012  0.1149 -0.1366
15821SOL    HW165455   3.141   2.196   2.593  0.8748 -1.3404 -1.4052
15821SOL    HW265456   3.133   2.074   2.682 -0.6331  0.0101  0.3918
15822SOL     OW65457   8.035   9.954   0.381 -0.0551  0.7244  0.0446
15822SOL    HW165458   8.119   9.939   0.337  0.3251  1.1064  0.6175
15822SOL    HW265459   8.027  10.050   0.382  1.7690  1.0351  4.0391
15823SOL     OW65460  11.199  13.428   0.485 -0.4846  0.5148  0.0774
15823SOL    HW165461  11.253  13.357   0.518 -0.6675  1.2484  2.0848
15823SOL    HW265462  11.244  13.508   0.513 -1.0510  1.1878 -0.8385
15824SOL     OW65463   5.288  13.300   6.677 -0.1061 -0.6125 -0.1490
15824SOL    HW165464   5.368  13.334   6.638  0.6922 -1.7217  0.4766
15824SOL    HW265465   5.253  13.374   6.727 -0.6134  0.5175 -2.0623
15825SOL     OW65466   2.837   9.485   4.873  0.2825 -0.5896  0.1047
15825SOL    HW165467   2.794   9.546   4.813  2.1542 -0.6056 -1.3390
15825SOL    HW265468   2.807   9.399   4.844  0.5890 -0.5519 -0.3437
15826SOL     OW65469   0.447  11.411   1.423 -0.3201 -0.2239  0.0017
15826SOL    HW165470   0.472  11.335   1.369  1.1125  0.5025 -0.4154
15826SOL    HW265471   0.507  11.481   1.395  0.1166  0.3391  2.1775
15827SOL     OW65472   1.507   9.134   1.514 -0.1357  0.0391 -0.4637
15827SOL    HW165473   1.546   9.203   1.461  0.5461 -0.1412 -0.2093
15827SOL    HW265474   1.469   9.180   1.588 -0.6447  0.2421 -0.8470
15828SOL     OW65475   1.349   1.436   3.443 -0.2003  0.1166  0.7600
15828SOL    HW165476   1.268   1.441   3.394 -0.0952 -1.6716  0.3436
15828SOL    HW265477   1.404   1.375   3.394  1.5251  1.4849  0.8758
15829SOL     OW65478  13.548   7.121   5.567  0.2949 -0.0544 -0.6935
15829SOL    HW165479  13.584   7.092   5.651 -0.4435  0.2135 -0.2804
15829SOL    HW265480  13.556   7.045   5.510 -3.0900 -1.7400  0.8046
15830SOL     OW65481   9.476  12.002  14.041 -0.1658  0.4782  0.0895
15830SOL    HW165482   9.405  11.987  14.103  0.2126 -0.6460  0.2709
15830SOL    HW265483   9.440  11.977  13.956  0.0965 -0.3869  0.2253
15831SOL     OW65484   8.816   8.960   6.090 -0.0029  0.1760  0.2015
15831SOL    HW165485   8.786   9.000   6.008  2.2228  0.5439 -0.5047
15831SOL    HW265486   8.818   9.032   6.152  3.1896  1.1531 -0.8473
15832SOL     OW65487  13.276   6.866  13.825 -0.1572  0.2095 -0.4119
15832SOL    HW165488  13.364   6.828  13.827 -0.1069  0.2359 -1.4039
15832SOL    HW265489  13.279   6.929  13.752 -0.3421  1.8841  0.9538
15833SOL     OW65490  13.368   2.423   4.031  0.0426 -0.2024 -0.0661
15833SOL    HW165491  13.438   2.378   3.985  0.6153 -1.0175  1.5199
15833SOL    HW265492  13.413   2.481   4.093 -0.5442 -2.1344  2.3449
15834SOL     OW65493  10.412   8.793  13.644  0.0293 -0.4035  0.0469
15834SOL    HW165494  10.328   8.762  13.612 -0.1006  1.1419 -1.2404
15834SOL    HW265495  10.406   8.785  13.740 -0.8125 -2.0935 -0.1047
15835SOL     OW65496  13.206   4.515   6.075  0.1744  1.0460  0.0585
15835SOL    HW165497  13.182   4.489   5.987  1.0530 -1.5486  0.5009
15835SOL    HW265498  13.300   4.496   6.082 -0.1371 -0.1408  1.9328
15836SOL     OW65499   8.323   6.818   9.118  0.0592  0.8494  0.1558
15836SOL    HW165500   8.322   6.730   9.156  2.8658  0.0153 -1.3908
15836SOL    HW265501   8.414   6.847   9.127 -0.2078  2.4988 -1.6626
15837SOL     OW65502  10.684   9.614   4.112 -0.3773  0.2216  0.7004
15837SOL    HW165503  10.677   9.703   4.147  0.5634  0.0401  1.3813
15837SOL    HW265504  10.718   9.627   4.023 -0.1411  0.5464  0.8327
15838SOL     OW65505   5.162  13.559   2.331  0.0085 -0.5744  0.1438
15838SOL    HW165506   5.126  13.497   2.394 -0.4425 -1.0924 -0.6127
15838SOL    HW265507   5.114  13.543   2.251  0.7374 -0.0828 -0.4063
15839SOL     OW65508   3.976   6.136  13.732  0.0970 -0.1773  0.1502
15839SOL    HW165509   4.061   6.171  13.760  1.0471 -1.2105 -1.2995
15839SOL    HW265510   3.939   6.205  13.676 -0.0898  0.3309  0.8943
15840SOL     OW65511  11.693   0.934  11.077  0.7491 -0.3563 -0.1833
15840SOL    HW165512  11.760   1.002  11.070 -0.4895  0.8418 -0.8206
15840SOL    HW265513  11.700   0.884  10.996  0.1520  0.4664 -0.7524
15841SOL     OW65514   1.303  11.315   2.231 -0.2440  0.1478 -0.2277
15841SOL    HW165515   1.240  11.342   2.164 -1.0820  0.8654  0.8183
15841SOL    HW265516   1.346  11.395   2.258 -0.7563  0.0650  0.9084
15842SOL     OW65517   2.388   7.253   3.829  0.3776 -0.0714 -0.6683
15842SOL    HW165518   2.398   7.337   3.875  0.3506 -0.2771 -0.2874
15842SOL    HW265519   2.382   7.188   3.898 -0.3364 -0.3126 -0.9518
15843SOL     OW65520   6.284  14.119   9.262  0.0150 -0.9421  0.1797
15843SOL    HW165521   6.224  14.193   9.250  0.5575 -0.5250 -0.0325
15843SOL    HW265522   6.292  14.109   9.357 -0.2521 -0.8900  0.2082
15844SOL     OW65523  10.799   9.839   9.363  0.6298  0.5948  0.2623
15844SOL    HW165524  10.726   9.901   9.360  1.4453  1.5477 -0.7599
15844SOL    HW265525  10.851   9.867   9.438  0.9891  1.1720 -0.1880
15845SOL     OW65526   6.363  12.504  10.545 -0.0966 -0.1520 -0.2617
15845SOL    HW165527   6.272  12.515  10.572 -0.2606  0.0698 -0.8827
15845SOL    HW265528   6.377  12.573  10.479  0.9247  0.7069  0.7975
15846SOL     OW65529  10.063   7.533   9.414 -0.2876 -0.0499  0.0833
15846SOL    HW165530  10.096   7.488   9.336  0.1609 -0.9957  0.8040
15846SOL    HW265531   9.992   7.589   9.381 -0.3766 -0.7435 -0.9382
15847SOL     OW65532   7.319   7.274  13.743  0.0110 -0.0389  0.2168
15847SOL    HW165533   7.414   7.271  13.729  0.0560  0.9906  0.1909
15847SOL    HW265534   7.310   7.297  13.836 -0.1614  1.7510 -0.2010
15848SOL     OW65535  11.747   9.920   8.545 -0.2144  0.2436  0.5336
15848SOL    HW165536  11.829   9.919   8.496 -0.3690  1.9316  0.1545
15848SOL    HW265537  11.687   9.970   8.490 -1.2669 -0.3078  1.1509
15849SOL     OW65538   8.773   2.258   4.294  0.1441 -0.2289 -0.1669
15849SOL    HW165539   8.694   2.205   4.301 -0.6641  0.7684 -1.4134
15849SOL    HW265540   8.791   2.286   4.383 -2.6357  1.9506 -0.1530
15850SOL     OW65541   4.348  10.126   1.261 -0.4134 -0.4475 -0.8557
15850SOL    HW165542   4.351  10.123   1.357  0.6548  1.3031 -0.7886
15850SOL    HW265543   4.271  10.181   1.241  0.0692  0.2127 -0.9404
15851SOL     OW65544   5.546  13.826   7.833  0.2712  0.0704  0.3298
15851SOL    HW165545   5.542  13.911   7.789  0.2307  0.0192  0.2342
15851SOL    HW265546   5.494  13.767   7.778  1.1314 -0.2590 -0.1395
15852SOL     OW65547   9.586  11.742   5.200  0.4454  0.0069 -0.5383
15852SOL    HW165548   9.601  11.667   5.142 -1.5209 -1.3403  0.5779
15852SOL    HW265549   9.592  11.819   5.143  1.0281 -1.0774 -2.0017
15853SOL     OW65550  12.307   0.928   4.953 -0.5654 -0.3644  0.3432
15853SOL    HW165551  12.354   0.877   4.886  2.2004  3.9071 -1.3919
15853SOL    HW265552  12.365   0.924   5.030  1.1684  2.1339 -0.7016
15854SOL     OW65553   4.033   2.626   5.436 -0.0333  0.0671 -0.1303
15854SOL    HW165554   3.940   2.608   5.453  0.3344 -0.9325  0.9511
15854SOL    HW265555   4.035   2.660   5.346 -1.2653 -1.4793 -0.7884
15855SOL     OW65556   8.780   2.446   4.091 -0.0408  0.1525  0.1823
15855SOL    HW165557   8.791   2.400   4.174  3.0638  1.6718  0.7221
15855SOL    HW265558   8.738   2.529   4.114  1.0345  0.6747  0.2852
15856SOL     OW65559  11.151   3.313   3.596 -0.0901 -0.2136  0.3272
15856SOL    HW165560  11.171   3.250   3.666 -1.6257 -0.1745  0.8433
15856SOL    HW265561  11.058   3.301   3.580 -0.7056  2.6655  1.2189
15857SOL     OW65562   5.324   6.069   3.383  0.3707 -0.0279 -0.3654
15857SOL    HW165563   5.283   6.007   3.322  0.0224 -0.2299  0.0692
15857SOL    HW265564   5.291   6.043   3.469  1.7261 -0.4595  0.0469
15858SOL     OW65565   6.394   5.260  13.629  0.0934  0.0608 -0.3613
15858SOL    HW165566   6.316   5.226  13.585  0.1789 -1.0262  0.3143
15858SOL    HW265567   6.377   5.354  13.636 -1.8686 -0.3319  1.1414
15859SOL     OW65568  12.210  10.933   8.927 -0.5359 -0.1680 -0.0809
15859SOL    HW165569  12.258  10.860   8.967 -0.9555 -0.7570 -0.6211
15859SOL    HW265570  12.244  11.011   8.970 -0.2020 -0.6991  0.6359
15860SOL     OW65571   7.609   2.416   8.239 -0.4247  0.5780 -0.0573
15860SOL    HW165572   7.692   2.368   8.243 -0.9675 -0.7571 -2.6835
15860SOL    HW265573   7.632   2.505   8.262  1.8758  0.3294 -1.1287
15861SOL     OW65574  13.592  10.793   5.704  0.6945  0.5773 -0.6487
15861SOL    HW165575  13.538  10.836   5.770  2.0307  1.2899  0.0143
15861SOL    HW265576  13.549  10.814   5.621 -1.9548 -1.6597 -0.0137
15862SOL     OW65577   7.592   4.323  13.331 -0.2143  0.1876 -0.2894
15862SOL    HW165578   7.681   4.354  13.319  0.3680 -0.4059  2.1033
15862SOL    HW265579   7.537   4.400  13.314  0.8607  1.0622  0.1115
15863SOL     OW65580   2.131   4.796   0.276 -0.4252  0.2193  0.5611
15863SOL    HW165581   2.093   4.708   0.278  0.3322 -0.1240  0.0357
15863SOL    HW265582   2.114   4.831   0.364  1.5259 -1.4228  1.6632
15864SOL     OW65583  10.606   9.388  10.554  0.3003 -0.1259 -0.0137
15864SOL    HW165584  10.621   9.310  10.607 -1.5501  0.2813  1.2168
15864SOL    HW265585  10.685   9.441  10.566  0.6447 -0.8317  0.9617
15865SOL     OW65586   9.373  13.339   0.865  0.2760 -0.4597  0.4124
15865SOL    HW165587   9.463  13.313   0.843  0.7797  1.2370  0.3038
15865SOL    HW265588   9.359  13.305   0.953  0.6841 -1.5519  0.0686
15866SOL     OW65589  11.532  11.750  11.884  0.1763 -0.2225 -0.2497
15866SOL    HW165590  11.494  11.663  11.868  1.1658 -1.0251  1.4102
15866SOL    HW265591  11.621  11.731  11.915  0.3931  1.4020  0.1992
15867SOL     OW65592   1.419  13.342  11.908  0.1936  0.8066 -0.2140
15867SOL    HW165593   1.350  13.398  11.872 -2.2462  0.2086  3.0786
15867SOL    HW265594   1.398  13.254  11.877  0.6429  0.8783 -0.7410
15868SOL     OW65595  13.988   8.076   9.154 -0.0186  0.9271 -0.0508
15868SOL    HW165596  13.895   8.092   9.136 -0.6184 -0.6984  1.3727
15868SOL    HW265597  14.018   8.156   9.196 -1.0697  1.0744  0.4532
15869SOL     OW65598   7.224   8.725   3.204 -0.3499  0.3679  0.0043
15869SOL    HW165599   7.170   8.775   3.265 -0.8384 -0.8051  0.5723
15869SOL    HW265600   7.248   8.787   3.136  0.1017  1.7031  1.3143
15870SOL     OW65601  14.069  11.317   8.775 -0.4118 -0.0525 -0.7818
15870SOL    HW165602  14.082  11.368   8.695 -1.6497 -1.6069 -2.0281
15870SOL    HW265603  14.043  11.230   8.745 -1.3622 -0.5643  1.3099
15871SOL     OW65604   7.667  12.471   5.924 -0.0972  0.4891  0.2852
15871SOL    HW165605   7.760  12.458   5.906 -0.4309 -0.7900 -0.6550
15871SOL    HW265606   7.664  12.499   6.016  1.2128  0.7266  0.2773
15872SOL     OW65607   4.728   7.414   8.224 -0.1041 -0.1329 -0.3426
15872SOL    HW165608   4.755   7.416   8.315 -1.5912  0.4339  0.1079
15872SOL    HW265609   4.778   7.484   8.182  0.3174 -0.1586  0.1102
15873SOL     OW65610  13.377   2.151   8.654  0.2261 -0.5787 -0.6520
15873SOL    HW165611  13.414   2.153   8.742  1.2929  1.9654 -1.0817
15873SOL    HW265612  13.318   2.075   8.655 -0.7660  0.0554  2.6413
15874SOL     OW65613   8.702   8.816   0.322 -0.4987 -0.0149  0.0930
15874SOL    HW165614   8.650   8.838   0.400 -0.7358  1.5777 -0.4667
15874SOL    HW265615   8.651   8.748   0.278 -1.6137  0.7951  0.0924
15875SOL     OW65616  13.999   9.307  11.402  0.5052  0.0411 -0.1517
15875SOL    HW165617  13.974   9.330  11.492 -0.1738  2.3660 -0.8525
15875SOL    HW265618  13.918   9.279  11.361  0.6329 -0.1213 -0.2945
15876SOL     OW65619   7.954  12.617  13.755 -0.4183  0.3553  0.5223
15876SOL    HW165620   7.925  12.594  13.843  0.5120 -0.9187  0.5232
15876SOL    HW265621   7.962  12.534  13.709  1.5047  0.7705  0.0119
15877SOL     OW65622  10.801  11.607   4.333 -0.5040 -0.0357 -0.2951
15877SOL    HW165623  10.812  11.583   4.426  1.1642 -1.4911 -0.8142
15877SOL    HW265624  10.710  11.584   4.313 -0.7430 -0.1591  0.8493
15878SOL     OW65625  11.143   3.922   8.671  0.1356 -0.9485 -0.7365
15878SOL    HW165626  11.219   3.977   8.691  0.0600 -1.1130  0.0346
15878SOL    HW265627  11.173   3.867   8.598 -0.0900  0.6998 -2.1463
15879SOL     OW65628  11.097   9.149   7.190  0.0930 -0.1999  0.5575
15879SOL    HW165629  11.145   9.218   7.235  0.1341  0.6385 -0.7263
15879SOL    HW265630  11.016   9.139   7.240  1.1310 -0.9911  2.2104
15880SOL     OW65631  11.224  11.382   4.720  0.0055 -0.2242  0.2723
15880SOL    HW165632  11.163  11.441   4.765 -0.1578 -0.0987 -0.1124
15880SOL    HW265633  11.200  11.295   4.751  0.0926 -0.1129  0.6616
15881SOL     OW65634   1.514   0.510   6.017 -0.5105  0.4477 -0.0540
15881SOL    HW165635   1.580   0.572   5.989 -0.7235  1.0252  0.6823
15881SOL    HW265636   1.532   0.430   5.967  0.6564  0.6336  0.0449
15882SOL     OW65637  11.763   3.951   2.014 -0.1551 -0.2353 -0.1171
15882SOL    HW165638  11.723   3.897   2.083 -0.9402  0.4823  0.0076
15882SOL    HW265639  11.817   4.014   2.061 -0.2132 -0.1311 -0.1885
15883SOL     OW65640  11.915  13.597   1.399  0.0367  0.1204  0.3152
15883SOL    HW165641  11.900  13.519   1.452  0.5403 -0.0995  0.1330
15883SOL    HW265642  11.871  13.667   1.448  0.9376  0.0228  1.3148
15884SOL     OW65643  13.211   2.020   0.328 -0.3555  0.3118  0.6247
15884SOL    HW165644  13.264   2.098   0.345 -2.6348  1.5273  2.7487
15884SOL    HW265645  13.132   2.053   0.284 -0.4494 -1.1334 -0.3769
15885SOL     OW65646   5.377  11.847   9.764 -0.5958 -0.5526  0.0047
15885SOL    HW165647   5.393  11.824   9.855 -0.8995 -0.6280  0.0387
15885SOL    HW265648   5.290  11.887   9.764  0.5023  2.0281  0.2108
15886SOL     OW65649  13.932   4.134  11.553  0.3020  0.1290  0.0499
15886SOL    HW165650  14.013   4.108  11.509  0.6682  1.6264 -0.2385
15886SOL    HW265651  13.910   4.218  11.513 -1.9311 -0.6805 -0.5548
15887SOL     OW65652   1.512  10.512   0.006 -0.4966  0.3236 -0.5568
15887SOL    HW165653   1.594  10.543   0.044  0.3580 -0.1974 -1.9286
15887SOL    HW265654   1.452  10.586   0.018 -0.6329 -0.1696  2.7109
15888SOL     OW65655   9.202   6.019   4.231  0.0182 -0.1374 -0.2466
15888SOL    HW165656   9.212   6.063   4.316  2.0499  0.0912 -0.5556
15888SOL    HW265657   9.164   6.085   4.174 -2.6975 -0.7051  0.7626
15889SOL     OW65658   9.075   6.993   1.057 -0.2193 -0.0826  0.4767
15889SOL    HW165659   8.996   7.042   1.081 -1.5326 -1.4407 -0.8121
15889SOL    HW265660   9.100   6.948   1.137 -0.7910  0.3199  0.8919
15890SOL     OW65661   6.731   7.865   0.028  0.2970 -0.1490  0.3612
15890SOL    HW165662   6.729   7.788   0.085  0.8079  0.6958  1.5606
15890SOL    HW265663   6.706   7.938   0.084  0.4119  0.6579 -0.5969
15891SOL     OW65664   8.597   5.531   7.884  0.7717 -0.4265  0.3525
15891SOL    HW165665   8.531   5.590   7.923  0.9177 -0.5949  0.8653
15891SOL    HW265666   8.604   5.459   7.947  0.6432 -0.9587 -0.2450
15892SOL     OW65667   4.037   9.496  13.000 -0.0281  0.5051 -0.6335
15892SOL    HW165668   4.085   9.418  13.029  3.2535  2.6132  0.0901
15892SOL    HW265669   3.956   9.495  13.050 -0.1565 -2.4407 -0.7361
15893SOL     OW65670   6.669   9.484  12.452 -0.1709 -0.2614  0.4152
15893SOL    HW165671   6.709   9.484  12.365 -0.1684  1.9223  0.3778
15893SOL    HW265672   6.605   9.555  12.450 -1.4502 -1.3031  1.6625
15894SOL     OW65673   3.079   6.842   0.843  0.5470  0.0336  0.7425
15894SOL    HW165674   3.174   6.837   0.836  0.3802 -1.2875 -1.6747
15894SOL    HW265675   3.058   6.933   0.820  1.1663  0.0807  0.3545
15895SOL     OW65676  10.870   1.754  12.576 -0.9535 -0.0993 -0.7349
15895SOL    HW165677  10.862   1.670  12.532 -0.6074  0.5857 -2.1417
15895SOL    HW265678  10.965   1.769  12.583 -1.0071  0.6564 -1.4674
15896SOL     OW65679   6.306  13.232   1.811  0.0576  0.1596  0.4791
15896SOL    HW165680   6.321  13.139   1.799  0.8167  0.5979 -3.2754
15896SOL    HW265681   6.388  13.266   1.845  0.8365 -0.1928 -0.9845
15897SOL     OW65682  13.549   9.443   2.622 -0.2121  0.2018  0.6274
15897SOL    HW165683  13.538   9.440   2.527 -0.3229  0.2975  0.6374
15897SOL    HW265684  13.508   9.363   2.653  1.1526 -0.5921  0.4658
15898SOL     OW65685   1.217   2.551   1.978  0.0752  0.4093  0.7015
15898SOL    HW165686   1.149   2.595   1.927 -0.6455 -1.5077 -0.0581
15898SOL    HW265687   1.179   2.542   2.066 -0.5253 -0.3154  0.3780
15899SOL     OW65688   5.620   9.262   0.243 -0.2901  0.0695 -0.0308
15899SOL    HW165689   5.620   9.208   0.163 -3.3949 -0.9166  0.4974
15899SOL    HW265690   5.691   9.325   0.229 -0.9285  0.2151 -3.7579
15900SOL     OW65691  12.042  13.724   4.870  0.3420  0.4979 -0.2791
15900SOL    HW165692  12.131  13.741   4.840  1.0081 -1.3821  0.5422
15900SOL    HW265693  11.987  13.745   4.794  1.7771 -1.8181 -2.0776
15901SOL     OW65694   1.824   0.042   7.596 -0.1795 -0.0259 -0.0436
15901SOL    HW165695   1.894  -0.022   7.604  0.0289  0.2704  0.6169
15901SOL    HW265696   1.788   0.049   7.685  0.7904  1.8644  0.2478
15902SOL     OW65697   6.854  12.359   3.231 -0.4833  0.3541  0.2030
15902SOL    HW165698   6.870  12.373   3.324 -1.2136 -0.7896  0.5200
15902SOL    HW265699   6.760  12.343   3.224 -0.1941 -1.3619 -0.4465
15903SOL     OW65700  14.064   7.719   0.769 -0.0987 -0.4155 -0.1482
15903SOL    HW165701  14.124   7.685   0.835 -0.9681 -1.9673 -0.1355
15903SOL    HW265702  13.988   7.661   0.771 -0.8316  0.4304 -1.4211
15904SOL     OW65703   1.138   1.743  11.978  0.5121  0.2037  0.0528
15904SOL    HW165704   1.078   1.809  12.012  0.2418  0.1532 -0.3179
15904SOL    HW265705   1.206   1.736  12.044  0.3360  0.5733  0.2749
15905SOL     OW65706   3.650   3.279  11.279 -0.0504 -0.0470  0.0791
15905SOL    HW165707   3.728   3.335  11.279 -0.4872  0.6053 -1.2617
15905SOL    HW265708   3.676   3.202  11.329  1.3080  0.3532  0.0346
15906SOL     OW65709   7.426  12.020   1.774  0.1902 -0.5815 -0.6633
15906SOL    HW165710   7.360  11.992   1.837  0.2473 -0.3524 -0.5014
15906SOL    HW265711   7.510  12.001   1.816  0.3757  3.1526  1.1069
15907SOL     OW65712  10.499   5.569  12.127 -0.5898  0.4565 -0.1460
15907SOL    HW165713  10.588   5.572  12.094 -0.5855 -1.4675 -0.4546
15907SOL    HW265714  10.464   5.657  12.113  0.4014  0.5464 -2.4958
15908SOL     OW65715  10.881  10.292   5.906  0.2704 -0.2533  0.0085
15908SOL    HW165716  10.947  10.264   5.843 -0.4275 -0.9071 -0.4396
15908SOL    HW265717  10.824  10.351   5.856 -1.2543 -2.0461 -0.4638
15909SOL     OW65718   6.770   7.982   8.312 -0.3162 -1.0123 -0.3742
15909SOL    HW165719   6.704   8.024   8.257  0.3282 -0.4988 -0.7836
15909SOL    HW265720   6.845   8.042   8.308  0.0176 -1.3574  0.4377
15910SOL     OW65721   4.303   7.478  13.127  0.0231  0.0729  0.4464
15910SOL    HW165722   4.277   7.388  13.109  0.9371 -0.1845  0.3694
15910SOL    HW265723   4.244   7.531  13.072  0.9793 -0.5847 -1.2937
15911SOL     OW65724   8.947   2.698   7.337  0.2331 -0.1511  0.1359
15911SOL    HW165725   8.920   2.698   7.428 -0.1993  1.4048  0.0244
15911SOL    HW265726   9.036   2.734   7.338  0.0486  0.3088 -0.1080
15912SOL     OW65727   3.043   5.143  12.970  0.2066 -0.0613 -0.7504
15912SOL    HW165728   3.090   5.225  12.958 -0.0409  0.1113 -0.5572
15912SOL    HW265729   2.950   5.167  12.963  0.0196  0.0685  1.3756
15913SOL     OW65730   7.357  13.330   5.848  0.0208  0.1315 -0.4577
15913SOL    HW165731   7.418  13.322   5.921  2.1544  0.6983 -2.0826
15913SOL    HW265732   7.318  13.243   5.839 -1.4334  0.4125  2.2225
15914SOL     OW65733   9.312  11.745  11.553  0.2862  0.2002  0.5837
15914SOL    HW165734   9.349  11.830  11.574  0.6343 -0.0439  0.9743
15914SOL    HW265735   9.270  11.716  11.634  3.3683 -1.6543  1.7309
15915SOL     OW65736  13.828  13.041   7.487  0.6312 -0.4362 -0.1523
15915SOL    HW165737  13.798  12.966   7.537  1.7212 -2.2200 -2.0001
15915SOL    HW265738  13.758  13.057   7.423  1.0799 -0.9567 -0.7948
15916SOL     OW65739  13.438   7.728  12.649  0.5167 -0.2145  0.0454
15916SOL    HW165740  13.515   7.752  12.700  0.5142 -1.4407  0.6755
15916SOL    HW265741  13.441   7.632  12.644 -1.7852 -0.4379  1.4565
15917SOL     OW65742  11.295  13.093   3.304  0.4549 -0.5140 -0.7725
15917SOL    HW165743  11.229  13.132   3.362  0.2483  0.8835 -1.9134
15917SOL    HW265744  11.368  13.154   3.305 -0.1824  0.4070 -3.1895
15918SOL     OW65745   4.338   8.582   3.658 -0.3725  0.2786  0.0549
15918SOL    HW165746   4.341   8.506   3.716 -1.3815 -1.2372 -1.7562
15918SOL    HW265747   4.429   8.612   3.653 -0.0780 -0.3276  1.3908
15919SOL     OW65748   4.337  11.997   6.269 -0.2848 -0.5926 -0.4481
15919SOL    HW165749   4.252  11.976   6.232  0.8607 -2.4990 -2.2372
15919SOL    HW265750   4.393  11.922   6.245  1.2216 -0.7688  3.0647
15920SOL     OW65751   8.074   1.116  12.684  0.1130  0.5372  0.4891
15920SOL    HW165752   8.156   1.105  12.635 -0.2362  1.3911 -0.3158
15920SOL    HW265753   8.020   1.041  12.658  0.7580 -0.2275  1.3011
15921SOL     OW65754   7.686   8.241   0.356  0.2488 -0.3472  0.7311
15921SOL    HW165755   7.651   8.233   0.444 -0.3065  1.4537  0.7168
15921SOL    HW265756   7.628   8.187   0.302  1.0617 -2.1153  1.5186
15922SOL     OW65757   5.437  13.623   4.971  0.1659 -0.4163 -0.3208
15922SOL    HW165758   5.374  13.639   4.902 -0.2040 -0.3276  0.0350
15922SOL    HW265759   5.521  13.649   4.934 -0.3917  2.4617  0.2597
15923SOL     OW65760  11.119  12.244  14.082 -0.3955  0.7174 -0.2623
15923SOL    HW165761  11.181  12.300  14.036  0.6385  1.5144  1.9858
15923SOL    HW265762  11.041  12.299  14.094 -0.1743  0.9523  0.0934
15924SOL     OW65763   4.142   7.883   4.147 -0.4543  0.2103 -0.4484
15924SOL    HW165764   4.084   7.929   4.086 -1.4171 -1.3580 -0.7609
15924SOL    HW265765   4.088   7.812   4.182  1.1954 -1.1475 -0.5611
15925SOL     OW65766   1.017  11.286   8.074  0.2257  0.2617  0.1816
15925SOL    HW165767   1.092  11.343   8.092 -0.7772  1.8334 -0.4033
15925SOL    HW265768   0.965  11.289   8.154  0.0635  0.3716  0.0747
15926SOL     OW65769   2.221  13.922   6.844 -0.5739 -0.4034 -0.0421
15926SOL    HW165770   2.212  13.998   6.786 -2.9825 -0.2972  0.3719
15926SOL    HW265771   2.136  13.915   6.887 -0.1261 -2.8273  0.5674
15927SOL     OW65772   3.760  13.881  10.919 -0.2532 -0.4691  0.4305
15927SOL    HW165773   3.668  13.864  10.899  0.3111 -1.2701 -1.8612
15927SOL    HW265774   3.807  13.810  10.875  1.5761  1.1174 -0.3236
15928SOL     OW65775  13.280   5.514   2.244  0.2249 -0.0906  0.2354
15928SOL    HW165776  13.288   5.422   2.220  0.6937 -0.0628  0.2840
15928SOL    HW265777  13.314   5.519   2.333 -0.8080 -0.0595  0.6517
15929SOL     OW65778   6.379   2.262   3.723 -0.2481 -0.5792 -0.2414
15929SOL    HW165779   6.389   2.332   3.787 -1.1466 -1.5605  1.0447
15929SOL    HW265780   6.305   2.290   3.668 -0.9150 -0.7053  0.5657
15930SOL     OW65781   3.887   1.270  10.199 -0.4601 -0.4576  0.3749
15930SOL    HW165782   3.794   1.260  10.218 -0.7944  0.9199 -0.3488
15930SOL    HW265783   3.905   1.363  10.216  0.3797 -0.3191 -1.0672
15931SOL     OW65784   6.395  13.966  12.007 -0.4322  0.2027 -0.0009
15931SOL    HW165785   6.429  14.049  11.972  0.6431 -0.3552 -0.3079
15931SOL    HW265786   6.468  13.930  12.058  0.4661 -2.2753 -2.7747
15932SOL     OW65787   2.111   1.796   0.476  0.2135  0.1718  0.6824
15932SOL    HW165788   2.195   1.751   0.482 -0.1124 -0.6486 -0.5033
15932SOL    HW265789   2.057   1.756   0.544  0.4787 -0.0113  0.7861
15933SOL     OW65790  10.819   7.222   3.780 -0.4004  0.1326 -0.1528
15933SOL    HW165791  10.890   7.232   3.716 -0.3041 -1.0208 -0.2587
15933SOL    HW265792  10.816   7.305   3.827  1.2242  0.1028  0.0555
15934SOL     OW65793   7.834   1.430   6.933 -0.2652  0.6349 -0.0387
15934SOL    HW165794   7.831   1.525   6.942  0.4043  0.7513 -0.9533
15934SOL    HW265795   7.927   1.410   6.921 -0.4428 -0.0925 -0.2581
15935SOL     OW65796   4.180  11.219   4.061 -0.1042 -0.2493  0.3995
15935SOL    HW165797   4.264  11.229   4.104 -1.2635  2.9167  2.2057
15935SOL    HW265798   4.117  11.214   4.132 -1.8131  1.9340 -0.8258
15936SOL     OW65799   5.030  11.708   9.755  0.3894 -0.0018  0.1601
15936SOL    HW165800   5.059  11.683   9.668 -0.8381 -2.0303  0.2760
15936SOL    HW265801   4.943  11.668   9.764 -0.3172  1.7235  1.6239
15937SOL     OW65802  10.277   2.776   2.131  0.1111 -0.0485 -0.6298
15937SOL    HW165803  10.321   2.861   2.132  0.3588 -0.1741 -0.8580
15937SOL    HW265804  10.228   2.773   2.214  0.0219  0.3564 -0.6652
15938SOL     OW65805   3.256   8.847   9.435  0.1853  0.0354  0.0815
15938SOL    HW165806   3.228   8.928   9.392  1.5369  0.1229 -0.6595
15938SOL    HW265807   3.352   8.849   9.431  0.2351 -1.9664 -0.6287
15939SOL     OW65808   6.408  13.741   6.458 -0.0844 -0.0826 -0.4058
15939SOL    HW165809   6.442  13.651   6.458  0.2400  0.0398 -0.3729
15939SOL    HW265810   6.314  13.730   6.443  0.0991 -0.3680 -1.4521
15940SOL     OW65811  10.414   3.644  11.680 -0.3296 -0.1894 -0.3570
15940SOL    HW165812  10.322   3.628  11.659  0.0469 -2.3468 -0.5202
15940SOL    HW265813  10.424   3.614  11.770 -0.0123  1.0821  0.0526
15941SOL     OW65814   6.705   9.100  12.069  0.7360 -0.0425  0.4679
15941SOL    HW165815   6.670   9.178  12.025 -0.5941 -0.2212  1.1770
15941SOL    HW265816   6.696   9.030  12.005 -0.2778 -0.0962  0.6610
15942SOL     OW65817  13.203  13.737   1.964  0.0851 -0.0765  0.5544
15942SOL    HW165818  13.212  13.807   2.028  0.6874  2.2468 -1.9197
15942SOL    HW265819  13.239  13.660   2.008  3.1447  2.0038  2.0545
15943SOL     OW65820   3.697   5.365  12.913  0.3866 -0.1902 -0.5181
15943SOL    HW165821   3.744   5.399  12.837  0.8303 -1.3518 -0.7819
15943SOL    HW265822   3.609   5.403  12.906  0.7470  0.5760 -1.0025
15944SOL     OW65823   4.290   8.489   1.113 -0.1556  0.3543 -0.0661
15944SOL    HW165824   4.292   8.495   1.017 -1.6291 -0.3722 -0.1716
15944SOL    HW265825   4.380   8.506   1.140  0.5389 -0.5877 -1.6590
15945SOL     OW65826  11.308   4.217   0.177 -0.4424  0.4135 -0.2273
15945SOL    HW165827  11.366   4.159   0.129 -1.3090  1.3149 -2.4931
15945SOL    HW265828  11.225   4.170   0.183  0.1175 -0.4347  2.0847
15946SOL     OW65829  13.853   9.426  13.945  0.4391 -0.0922  0.4298
15946SOL    HW165830  13.937   9.473  13.948  0.3476  0.2394 -1.2228
15946SOL    HW265831  13.870   9.350  13.889 -0.8287  1.0518 -1.6241
15947SOL     OW65832   0.976   2.450  13.164  0.2992 -0.3835  0.7682
15947SOL    HW165833   1.022   2.406  13.093  1.6154  1.2396  0.5508
15947SOL    HW265834   0.950   2.535  13.127  0.7083  0.3543  2.0885
15948SOL     OW65835   5.979   8.685   3.190  0.2751  0.1227  0.1794
15948SOL    HW165836   5.903   8.693   3.132 -0.0239 -0.0921  0.5352
15948SOL    HW265837   5.941   8.677   3.278  0.6618 -1.3395  0.2406
15949SOL     OW65838  12.747   7.479   3.018  0.3470 -0.3420  0.4673
15949SOL    HW165839  12.787   7.392   3.006  1.9675  0.5185 -0.7505
15949SOL    HW265840  12.820   7.540   3.010 -1.2610  1.3915 -2.6747
15950SOL     OW65841   7.290  11.348   5.619 -0.4676  0.4113  0.5676
15950SOL    HW165842   7.314  11.299   5.698  0.5693 -0.7724 -0.4198
15950SOL    HW265843   7.372  11.354   5.570 -1.4221 -0.5096 -1.2504
15951SOL     OW65844   1.227  11.274  10.065 -0.2059  0.0457 -0.0759
15951SOL    HW165845   1.222  11.186  10.029 -0.2240  0.2530 -0.5859
15951SOL    HW265846   1.211  11.332   9.990 -0.1673  0.4826  0.2472
15952SOL     OW65847   9.439   8.077  11.298  0.0119 -0.4590  0.7279
15952SOL    HW165848   9.484   8.160  11.317  0.2523 -0.4696  0.2196
15952SOL    HW265849   9.509   8.013  11.291 -0.1292 -0.5888  0.5076
15953SOL     OW65850  12.984   2.169   0.312  0.1228 -0.1841 -0.4935
15953SOL    HW165851  12.912   2.123   0.269  2.1757 -2.5493 -1.7234
15953SOL    HW265852  12.978   2.259   0.281 -1.9710 -0.4293 -0.9259
15954SOL     OW65853   8.648   4.796   7.581 -0.1046  0.3334 -0.1776
15954SOL    HW165854   8.621   4.873   7.530  1.9981  1.1076 -0.1962
15954SOL    HW265855   8.655   4.828   7.671  1.3270  0.3236 -0.2748
15955SOL     OW65856   1.326   8.019   6.714 -0.2373  0.1508  0.1517
15955SOL    HW165857   1.307   8.073   6.791 -0.9890  1.1192 -0.6824
15955SOL    HW265858   1.269   7.943   6.723 -1.0929  0.7624  0.0566
15956SOL     OW65859   3.196   2.850  14.102  0.0964 -0.0969 -0.5481
15956SOL    HW165860   3.219   2.884  14.188  0.5272 -0.8174 -0.3791
15956SOL    HW265861   3.276   2.809  14.070 -0.6089 -1.6144 -0.4354
15957SOL     OW65862  11.435   8.764  11.107  0.5275  0.1712 -0.1471
15957SOL    HW165863  11.356   8.731  11.148  0.5005  2.0969  1.5121
15957SOL    HW265864  11.491   8.687  11.097 -0.4815 -0.7853  1.2018
15958SOL     OW65865  10.553  10.815   0.989 -0.1282 -0.2664  0.4862
15958SOL    HW165866  10.598  10.733   1.011  0.7019  0.0191 -0.1153
15958SOL    HW265867  10.467  10.788   0.960  0.4875 -1.0237 -0.6954
15959SOL     OW65868   8.541   2.676  13.551 -0.4470 -0.0125 -0.0164
15959SOL    HW165869   8.568   2.768  13.546 -0.4481  0.0089  0.4140
15959SOL    HW265870   8.465   2.671  13.493 -1.2391  0.5431  0.9542
15960SOL     OW65871   1.588   3.625   1.526  0.0457  0.2629  0.3362
15960SOL    HW165872   1.518   3.674   1.482 -0.4401 -1.5340 -0.9939
15960SOL    HW265873   1.546   3.591   1.605 -0.2422  0.2097  0.1633
15961SOL     OW65874   7.608   2.174  12.050  0.5268 -0.0264 -0.3715
15961SOL    HW165875   7.602   2.090  12.095  0.0661  0.9171  1.4342
15961SOL    HW265876   7.613   2.151  11.957 -0.7094 -2.0051 -0.0123
15962SOL     OW65877   3.078   6.109   3.752  0.1586  0.0470 -0.8214
15962SOL    HW165878   3.105   6.044   3.817 -0.5927 -0.3458 -0.8997
15962SOL    HW265879   3.000   6.072   3.711  0.6840  0.2404 -2.0326
15963SOL     OW65880  10.987  14.110   2.026 -0.0630  0.0457  0.2893
15963SOL    HW165881  11.000  14.158   2.108 -1.4710  0.3876  0.3313
15963SOL    HW265882  10.944  14.029   2.052 -0.1667 -0.0167 -0.0776
15964SOL     OW65883  13.674   1.554   8.934 -0.3752 -0.0466 -0.6575
15964SOL    HW165884  13.667   1.603   9.015  1.2396 -1.4203  0.3788
15964SOL    HW265885  13.678   1.621   8.865 -0.1669  1.2006  0.5328
15965SOL     OW65886  11.596   7.152  13.842  0.3471 -0.2394 -0.1112
15965SOL    HW165887  11.644   7.089  13.896 -1.4687 -1.7768 -0.1706
15965SOL    HW265888  11.503   7.133  13.860 -0.3152  2.7387  0.1741
15966SOL     OW65889   7.860  10.547   8.686 -0.0559  0.6551 -0.2857
15966SOL    HW165890   7.775  10.592   8.684 -1.9320 -2.3518  2.0228
15966SOL    HW265891   7.839  10.459   8.718  3.6261 -1.1451 -2.2443
15967SOL     OW65892  11.934   0.270   1.091 -0.0949 -0.2672  0.9241
15967SOL    HW165893  12.022   0.237   1.075 -0.8985 -2.6087  0.9318
15967SOL    HW265894  11.923   0.264   1.186 -0.8662 -1.7912  0.7686
15968SOL     OW65895   1.200   6.011  11.577  0.0951 -0.1589  0.1149
15968SOL    HW165896   1.154   5.934  11.611  0.2060  0.1969  1.1081
15968SOL    HW265897   1.292   5.985  11.575  0.3324  0.3952  1.8531
15969SOL     OW65898   1.994   1.843  13.645 -0.8068 -0.0237  0.1542
15969SOL    HW165899   2.075   1.890  13.664 -1.0297  0.5772 -0.3376
15969SOL    HW265900   1.974   1.865  13.554 -0.4905 -1.7540 -0.3708
15970SOL     OW65901  10.572  10.105   7.890  0.3411 -0.4064  0.0951
15970SOL    HW165902  10.653  10.139   7.929  0.4357  0.2244 -0.6195
15970SOL    HW265903  10.537  10.178   7.839 -1.1616 -0.3894  1.1024
15971SOL     OW65904  13.638   2.750   1.526  0.7583 -0.1209  0.5858
15971SOL    HW165905  13.712   2.789   1.478  0.6245  0.3401  0.7458
15971SOL    HW265906  13.573   2.731   1.459  0.8741 -0.1791  0.4894
15972SOL     OW65907  10.196  12.471   0.301  0.1588  0.1572  0.4061
15972SOL    HW165908  10.234  12.443   0.218 -0.3648  0.5336  0.0299
15972SOL    HW265909  10.154  12.555   0.280  0.5451  0.5555  1.1905
15973SOL     OW65910  11.388  13.222   9.231  0.0870 -0.1778 -0.1415
15973SOL    HW165911  11.452  13.214   9.302 -1.8834 -0.4999  1.6897
15973SOL    HW265912  11.384  13.134   9.193 -0.2617 -0.5089  0.6429
15974SOL     OW65913   8.027   6.887  12.287 -0.3226  0.3780 -0.4651
15974SOL    HW165914   7.996   6.854  12.371  0.7143  0.1398 -0.1587
15974SOL    HW265915   7.949   6.888  12.231 -0.4937 -2.3328 -0.4076
15975SOL     OW65916   1.676   1.458  11.318 -0.0561  0.1201 -0.2583
15975SOL    HW165917   1.589   1.472  11.355  0.3191 -0.4597  0.9078
15975SOL    HW265918   1.708   1.380  11.363  1.2211  0.5524 -0.3918
15976SOL     OW65919   4.668  10.809   9.125  0.0212  0.2264  0.0151
15976SOL    HW165920   4.594  10.773   9.077  0.0378  1.0074 -0.6261
15976SOL    HW265921   4.635  10.824   9.214 -1.3076  2.6256 -0.7973
15977SOL     OW65922  14.054   5.735   7.833  0.2906  0.1400  0.2153
15977SOL    HW165923  14.082   5.747   7.742 -2.0616 -1.5237 -0.8055
15977SOL    HW265924  14.096   5.807   7.880  1.6566  0.9975 -2.1502
15978SOL     OW65925   0.695  12.691   9.487 -0.7730  0.0797  0.3151
15978SOL    HW165926   0.769  12.748   9.465 -1.3572  0.8746  0.3644
15978SOL    HW265927   0.692  12.627   9.416  0.0227 -0.0315  0.3676
15979SOL     OW65928   8.414   9.852  13.636 -0.2320  0.2610 -0.4171
15979SOL    HW165929   8.448   9.780  13.584 -1.5883 -0.0356 -0.9055
15979SOL    HW265930   8.438   9.931  13.587  0.8308  0.1389 -0.1199
15980SOL     OW65931   2.566  10.987  12.406 -0.1430 -0.3824 -0.1058
15980SOL    HW165932   2.519  11.028  12.478  2.0318 -0.0650  1.2204
15980SOL    HW265933   2.498  10.943  12.355 -1.7497 -0.6859  2.1514
15981SOL     OW65934   9.778  13.394   0.164 -0.4666  0.1060  0.3709
15981SOL    HW165935   9.791  13.450   0.088 -1.7700  0.5442  0.4412
15981SOL    HW265936   9.777  13.455   0.238 -0.0004 -0.2269  0.6550
15982SOL     OW65937   7.125   5.838   0.609  0.2375  0.4291  0.2249
15982SOL    HW165938   7.169   5.921   0.592 -1.9560  1.2346 -2.1220
15982SOL    HW265939   7.158   5.780   0.541 -0.5110  0.3088 -0.0364
15983SOL     OW65940   9.193   1.690   7.416 -0.4562  0.2698 -0.5527
15983SOL    HW165941   9.288   1.696   7.423 -0.3148  0.5847 -2.2719
15983SOL    HW265942   9.167   1.631   7.487  1.2584 -1.6924 -1.4608
15984SOL     OW65943   8.285   9.560   2.697  0.4671  0.1223  0.4646
15984SOL    HW165944   8.255   9.581   2.786 -1.1998 -0.3020  0.0426
15984SOL    HW265945   8.341   9.634   2.673 -0.9506  1.4499  1.0124
15985SOL     OW65946   6.145   4.319   8.435  1.3644  0.5045 -0.0366
15985SOL    HW165947   6.065   4.363   8.407 -1.4658 -3.5971  0.7087
15985SOL    HW265948   6.180   4.278   8.356  1.8854  1.0628 -0.0998
15986SOL     OW65949  13.250   6.090   1.663  0.1203 -0.3769  0.7246
15986SOL    HW165950  13.312   6.096   1.736  0.7682 -0.2133  0.1673
15986SOL    HW265951  13.164   6.093   1.705  0.4701 -1.7534  1.5960
15987SOL     OW65952   5.216   3.261   7.093 -0.0536 -0.4054 -0.3298
15987SOL    HW165953   5.267   3.261   7.012 -0.8086 -1.2242 -0.8229
15987SOL    HW265954   5.274   3.300   7.158  0.5776  0.2335 -1.2542
15988SOL     OW65955   7.825  10.256   5.443 -0.0299 -0.1491 -0.1009
15988SOL    HW165956   7.784  10.239   5.529 -1.5810 -1.2099 -0.9968
15988SOL    HW265957   7.758  10.231   5.380  1.6039 -0.7375 -1.6631
15989SOL     OW65958   0.489   6.047   4.435 -0.8630 -0.2109  0.0017
15989SOL    HW165959   0.402   6.086   4.446 -0.2298  1.6114 -1.0013
15989SOL    HW265960   0.545   6.101   4.490 -0.4825 -2.0844  1.5705
15990SOL     OW65961   5.818   1.703   8.546  0.5597 -0.0342 -0.1241
15990SOL    HW165962   5.768   1.651   8.609  1.0695 -2.0228 -1.2905
15990SOL    HW265963   5.845   1.641   8.479  1.9162  1.5984 -1.1792
15991SOL     OW65964  13.225  11.843  13.029 -0.3556  0.3389  0.0354
15991SOL    HW165965  13.190  11.831  13.117 -0.1991 -0.4941 -0.0073
15991SOL    HW265966  13.271  11.927  13.032  0.7264 -0.2581  1.1149
15992SOL     OW65967  12.519   5.663   4.469 -0.1309  0.8070 -0.0940
15992SOL    HW165968  12.427   5.658   4.496 -0.2401  1.6355 -0.2789
15992SOL    HW265969  12.549   5.572   4.468 -1.5305  0.2915 -1.9495
15993SOL     OW65970  12.844   5.704   8.645  0.2090 -0.5229  0.3350
15993SOL    HW165971  12.824   5.789   8.606  1.3475 -0.6229 -0.5018
15993SOL    HW265972  12.794   5.642   8.593 -1.8193 -0.2932  1.8622
15994SOL     OW65973   9.679  13.115   8.328 -0.1941  0.3476  0.7268
15994SOL    HW165974   9.682  13.196   8.278 -2.3642  0.3151  0.4515
15994SOL    HW265975   9.628  13.055   8.274 -0.7111 -0.4117  1.9968
15995SOL     OW65976   5.882   1.801  11.682  0.3214 -0.4691  0.5145
15995SOL    HW165977   5.976   1.800  11.659  0.1103  0.3922 -0.4868
15995SOL    HW265978   5.859   1.709  11.691  0.5426 -0.9230 -2.5328
15996SOL     OW65979   0.765   0.014  13.538 -0.4931  0.7289 -0.7247
15996SOL    HW165980   0.857  -0.002  13.560 -0.7473  2.0896  1.6630
15996SOL    HW265981   0.716  -0.025  13.610 -2.0251 -1.7989 -2.9326
15997SOL     OW65982   9.205   5.253   0.722 -0.4404  0.5714 -0.1302
15997SOL    HW165983   9.184   5.329   0.668  0.3246 -1.2803 -3.2501
15997SOL    HW265984   9.298   5.236   0.704  0.1918  0.4767  2.7105
15998SOL     OW65985   1.308   0.065  10.180  0.2423  0.6667  0.2145
15998SOL    HW165986   1.293   0.023  10.265 -0.7977  1.3305  0.3803
15998SOL    HW265987   1.376   0.012  10.139 -1.9917 -2.1674 -0.2083
15999SOL     OW65988  10.061   1.955   0.032 -0.5435  0.2809 -0.1673
15999SOL    HW165989   9.991   2.014   0.061  0.4217  0.6372  1.5994
15999SOL    HW265990  10.038   1.870   0.071 -0.4235  0.1898 -0.2935
16000SOL     OW65991  13.727  10.664   0.875 -0.1306 -0.3169 -0.1677
16000SOL    HW165992  13.810  10.616   0.874 -0.2960 -0.7687  1.9672
16000SOL    HW265993  13.682  10.636   0.796  0.5384 -2.3374  0.0924
16001SOL     OW65994  11.193   2.713  12.288  0.2754  0.0669 -0.2508
16001SOL    HW165995  11.139   2.717  12.367  0.5879  0.6588 -0.0604
16001SOL    HW265996  11.261   2.779  12.302  0.1948  0.3438 -1.1147
16002SOL     OW65997  13.880  12.438  12.317 -0.0505  0.0228 -0.1077
16002SOL    HW165998  13.853  12.495  12.389 -0.8575 -0.5562  0.0701
16002SOL    HW265999  13.915  12.497  12.251  1.7120  0.4931  1.1602
16003SOL     OW66000   7.984   1.618  13.472 -0.2928 -0.0050  0.1389
16003SOL    HW166001   8.037   1.666  13.409 -1.8565  1.0266 -0.4555
16003SOL    HW266002   8.008   1.526  13.460  1.8097  0.4757  0.3796
16004SOL     OW66003   6.487  13.735   0.054 -0.9232 -0.3290 -0.3007
16004SOL    HW166004   6.441  13.660   0.016 -1.7420 -1.1582  2.1205
16004SOL    HW266005   6.435  13.811   0.026 -2.2587 -1.0200  0.2230
16005SOL     OW66006   5.559   8.204  14.040 -0.3492  0.3623  0.0648
16005SOL    HW166007   5.555   8.163  13.953 -0.4844  1.3156 -0.3865
16005SOL    HW266008   5.562   8.130  14.101  1.5482 -0.3579 -0.8161
16006SOL     OW66009  10.590   5.878   7.559 -0.1214  0.0507  0.0477
16006SOL    HW166010  10.650   5.853   7.629  1.1230  0.1928 -0.9389
16006SOL    HW266011  10.503   5.861   7.595  0.3567  1.9270  2.3534
16007SOL     OW66012   1.782   1.507   8.963 -0.4091 -0.1850  0.0734
16007SOL    HW166013   1.790   1.559   8.884  0.9023 -1.2211 -0.5199
16007SOL    HW266014   1.870   1.473   8.979 -0.6421  0.0089  1.9939
16008SOL     OW66015   2.348   8.315  11.858 -0.1369 -0.1354  0.4883
16008SOL    HW166016   2.328   8.405  11.830 -2.7783 -0.2084  1.7958
16008SOL    HW266017   2.430   8.323  11.905  0.0567  1.4687 -0.0353
16009SOL     OW66018  11.901   4.346   8.042 -0.7299  0.3621 -0.0993
16009SOL    HW166019  11.857   4.358   8.126  0.7494 -0.1873  0.7985
16009SOL    HW266020  11.928   4.254   8.042 -0.8181  0.3207 -1.2525
16010SOL     OW66021   1.492  14.129   9.570  0.2963 -0.5094  0.0675
16010SOL    HW166022   1.462  14.042   9.596 -0.9998 -0.0199  0.2770
16010SOL    HW266023   1.481  14.183   9.649  1.8506 -0.3190  0.1839
16011SOL     OW66024  13.057  10.841   3.061  0.0011  0.6124 -0.6550
16011SOL    HW166025  12.998  10.774   3.027 -2.0044 -0.9688  4.7888
16011SOL    HW266026  13.002  10.919   3.067  0.5619  1.0934 -1.5961
16012SOL     OW66027   0.526   7.724  10.499 -0.8908 -0.0737 -0.4925
16012SOL    HW166028   0.467   7.751  10.569  0.3166 -0.5255  0.7593
16012SOL    HW266029   0.486   7.757  10.419 -0.9932  2.9099  0.6418
16013SOL     OW66030   5.437   7.042   8.816 -0.3783 -0.1831  0.3522
16013SOL    HW166031   5.375   7.072   8.883 -2.1165 -0.5576 -0.9978
16013SOL    HW266032   5.474   6.961   8.852 -0.9136 -0.1155  1.0674
16014SOL     OW66033   9.756   1.736   3.036 -0.3454  0.5298 -0.0328
16014SOL    HW166034   9.819   1.665   3.050 -0.7117 -0.1106 -1.4459
16014SOL    HW266035   9.807   1.807   2.998 -0.1635  0.6900  0.4906
16015SOL     OW66036   5.730   6.870   6.603 -0.2296 -0.0005 -0.2050
16015SOL    HW166037   5.689   6.814   6.669 -2.3401  0.6980 -0.8321
16015SOL    HW266038   5.700   6.834   6.520  0.9488  0.2046 -0.7333
16016SOL     OW66039   2.211   4.533   6.971 -0.1631 -0.0740  0.0213
16016SOL    HW166040   2.126   4.520   7.014 -0.7570  0.4744 -0.9434
16016SOL    HW266041   2.268   4.567   7.039 -0.5468 -1.0045  0.8303
16017SOL     OW66042  13.002   6.674   8.325 -0.0137 -0.5515 -0.1022
16017SOL    HW166043  12.934   6.723   8.369  0.6384  0.9142 -0.6640
16017SOL    HW266044  12.969   6.662   8.236  0.5613  0.4450 -0.4697
16018SOL     OW66045   2.969  12.135   6.577  0.5488 -0.5755 -0.1557
16018SOL    HW166046   2.952  12.041   6.569 -1.4623 -0.2109 -0.8429
16018SOL    HW266047   2.931  12.159   6.662 -0.6818 -0.0737 -0.8274
16019SOL     OW66048   7.636  10.252   9.496 -0.0991  0.1085 -0.0323
16019SOL    HW166049   7.686  10.308   9.437 -0.6232 -0.1638 -0.7451
16019SOL    HW266050   7.607  10.311   9.566 -1.2005  0.8885 -1.1153
16020SOL     OW66051   6.119  12.795   6.707 -0.0470  0.1330 -0.0391
16020SOL    HW166052   6.086  12.847   6.780 -1.5015  0.9506 -1.2248
16020SOL    HW266053   6.056  12.723   6.698  0.7204 -0.5869  0.1626
16021SOL     OW66054  11.654   7.730  11.442 -0.0601 -0.7421 -0.0089
16021SOL    HW166055  11.585   7.785  11.403 -0.1026 -0.2561  0.7343
16021SOL    HW266056  11.723   7.729  11.376 -0.0265  0.2742 -0.0063
16022SOL     OW66057  12.193   0.169   2.260 -0.1256 -0.0685  0.6924
16022SOL    HW166058  12.273   0.182   2.209  0.1441 -0.9091  0.8736
16022SOL    HW266059  12.210   0.089   2.310 -0.9650 -0.0866  0.9605
16023SOL     OW66060  10.485   3.052   7.804  0.0080  0.5241 -0.1611
16023SOL    HW166061  10.561   3.103   7.775  0.2176  0.3867  0.1426
16023SOL    HW266062  10.505   3.030   7.895  0.1413 -0.5072 -0.4245
16024SOL     OW66063  13.460   4.523   3.442  0.4614 -0.1180  0.0195
16024SOL    HW166064  13.438   4.538   3.533  0.4231 -0.7372  0.1175
16024SOL    HW266065  13.389   4.468   3.409 -0.3929  1.4333 -0.8286
16025SOL     OW66066   3.441   1.553   1.675 -0.1150  0.3579 -0.0721
16025SOL    HW166067   3.503   1.520   1.741  0.5649  0.2497 -0.7490
16025SOL    HW266068   3.492   1.617   1.625 -1.2150  1.9778  0.7894
16026SOL     OW66069   2.755   0.811   7.027  0.1368 -0.2495  0.3231
16026SOL    HW166070   2.688   0.757   6.985 -0.6283  0.2570  0.8626
16026SOL    HW266071   2.818   0.830   6.958 -0.5070 -0.3778 -0.3098
16027SOL     OW66072  10.618  11.230   0.130  0.5692  0.0494 -0.2846
16027SOL    HW166073  10.630  11.320   0.100 -0.9252  0.3046 -0.2027
16027SOL    HW266074  10.581  11.239   0.218  0.0877 -0.6249 -0.4070
16028SOL     OW66075   2.504   9.643  13.910  0.6567  0.0455  0.2798
16028SOL    HW166076   2.449   9.620  13.836  0.4087  0.5292  0.3073
16028SOL    HW266077   2.573   9.698  13.872  1.5351 -1.1251  0.1303
16029SOL     OW66078  11.380  10.415   8.708 -0.2024  0.7376  0.1010
16029SOL    HW166079  11.411  10.388   8.794 -1.9718 -0.4471  0.4157
16029SOL    HW266080  11.451  10.392   8.648  0.0576 -0.7671  0.9363
16030SOL     OW66081   1.413   9.403   8.063  1.0013  0.1866 -0.2020
16030SOL    HW166082   1.338   9.456   8.035  0.4384  0.3862  1.5880
16030SOL    HW266083   1.459   9.383   7.981 -0.8737  0.2222 -1.3271
16031SOL     OW66084  12.356  10.812  13.696 -0.3114 -0.4146 -0.0946
16031SOL    HW166085  12.305  10.757  13.755 -0.0118 -1.1881 -0.5481
16031SOL    HW266086  12.353  10.899  13.736  0.0471 -0.9620  1.1630
16032SOL     OW66087   4.665   6.525  11.142  0.1784 -0.7438 -0.0413
16032SOL    HW166088   4.655   6.466  11.067  0.1012 -0.6913 -0.0721
16032SOL    HW266089   4.758   6.548  11.142  0.1941 -0.8053 -0.0738
16033SOL     OW66090   5.021   8.973   9.706  0.1795 -0.0068  0.0990
16033SOL    HW166091   4.981   8.948   9.790 -0.8365  3.4089  0.7967
16033SOL    HW266092   5.096   9.027   9.730  1.1290 -0.6803 -1.2428
16034SOL     OW66093   4.064  12.239   4.369  0.3704  0.1197  0.1956
16034SOL    HW166094   4.153  12.218   4.341  1.5960  0.3737  3.4726
16034SOL    HW266095   4.017  12.156   4.363  0.4383  0.1736 -2.4732
16035SOL     OW66096   3.783   6.159   4.163 -0.1314  0.1755 -0.1791
16035SOL    HW166097   3.835   6.112   4.097  0.7490 -0.5981  1.0340
16035SOL    HW266098   3.848   6.206   4.216 -0.7625  0.1285  0.6494
16036SOL     OW66099   6.467   8.705  11.194 -0.1575  0.1575  0.3040
16036SOL    HW166100   6.536   8.674  11.253 -0.1978 -1.0497 -0.2651
16036SOL    HW266101   6.393   8.647  11.210  0.1712 -0.8847 -1.6547
16037SOL     OW66102   2.576  12.589   0.403 -0.9608 -0.4123 -0.0443
16037SOL    HW166103   2.546  12.541   0.325 -2.5612 -0.3923  0.5308
16037SOL    HW266104   2.497  12.603   0.455 -0.3128  1.6125  0.5026
16038SOL     OW66105   4.770   2.255  13.831 -0.1775  0.0933  0.4715
16038SOL    HW166106   4.731   2.215  13.908 -0.2701  0.9931  0.9087
16038SOL    HW266107   4.853   2.208  13.818  1.0666  1.5131  2.6277
16039SOL     OW66108   6.553   3.966   7.801 -0.4951 -0.2102 -0.2121
16039SOL    HW166109   6.472   4.017   7.802  0.0666  0.7110  1.2966
16039SOL    HW266110   6.529   3.882   7.839 -1.0502 -0.4766 -1.1249
16040SOL     OW66111   0.992  10.826   6.376  0.4743  0.2369 -0.2189
16040SOL    HW166112   1.051  10.779   6.317  0.4609 -1.5183  1.0721
16040SOL    HW266113   1.049  10.880   6.429  0.7770 -0.2885 -0.0018
16041SOL     OW66114   6.543   9.377  13.323  0.4412  0.0824 -0.4966
16041SOL    HW166115   6.494   9.324  13.260  0.0291 -0.0997 -0.0229
16041SOL    HW266116   6.507   9.466  13.313 -1.7019 -0.4621  1.5044
16042SOL     OW66117   7.636   1.423  13.615  0.0145  0.7807 -0.3654
16042SOL    HW166118   7.607   1.398  13.703  3.2227 -2.8575 -0.0793
16042SOL    HW266119   7.648   1.518  13.619 -0.2296  0.7763  3.0339
16043SOL     OW66120  11.928   1.356   8.420  0.0412 -0.1115 -0.1301
16043SOL    HW166121  11.894   1.433   8.376  0.2502 -0.3693 -0.7463
16043SOL    HW266122  11.851   1.315   8.460 -0.1891 -0.0383 -0.5004
16044SOL     OW66123   0.438   0.694   8.153 -0.2099  0.1380 -0.4055
16044SOL    HW166124   0.449   0.745   8.233 -0.2659 -0.2948 -0.1228
16044SOL    HW266125   0.355   0.648   8.164 -0.8151  0.9935 -1.2241
16045SOL     OW66126   7.368   4.696   7.787 -0.2471 -0.5936 -0.2194
16045SOL    HW166127   7.324   4.646   7.718  0.1847 -0.4090 -0.6297
16045SOL    HW266128   7.411   4.767   7.741 -0.9485  0.2311  0.3709
16046SOL     OW66129   4.008  13.455  12.180  0.3029  0.2236  0.2608
16046SOL    HW166130   4.049  13.418  12.258 -1.2606 -3.9049 -0.5781
16046SOL    HW266131   4.052  13.411  12.107 -1.2728  0.5324 -0.9267
16047SOL     OW66132  13.745  13.711  11.450 -0.0008  0.2892  0.2319
16047SOL    HW166133  13.672  13.674  11.501  0.7100 -1.7976 -0.1761
16047SOL    HW266134  13.821  13.704  11.508  0.0466  1.7881  0.3855
16048SOL     OW66135   2.314  13.434   9.224 -0.3122  0.1624  0.1829
16048SOL    HW166136   2.360  13.387   9.154  0.2308  0.1896  0.5154
16048SOL    HW266137   2.239  13.378   9.244 -0.3838  0.0737 -0.3065
16049SOL     OW66138   5.344  10.348  10.900 -0.1022 -0.0372 -0.0907
16049SOL    HW166139   5.335  10.253  10.904  0.5160 -0.1235 -0.6647
16049SOL    HW266140   5.425  10.363  10.852  0.2744  0.7722  0.7721
16050SOL     OW66141   2.291  13.701   6.210  0.2440 -0.1592 -0.4941
16050SOL    HW166142   2.370  13.651   6.233  0.3584  0.1719 -0.1648
16050SOL    HW266143   2.233  13.636   6.170 -0.2745 -0.9425  1.4263
16051SOL     OW66144   7.154   8.509  10.161  0.3354 -0.6821 -0.1178
16051SOL    HW166145   7.240   8.542  10.134  0.7200 -0.0156  1.7592
16051SOL    HW266146   7.156   8.511  10.257 -1.3981 -1.6683 -0.0116
16052SOL     OW66147  12.509  13.937   1.294 -0.2563 -0.3100 -0.0184
16052SOL    HW166148  12.497  14.019   1.342 -1.2221 -0.3415 -0.1807
16052SOL    HW266149  12.596  13.944   1.256 -0.3869  0.7104 -0.1585
16053SOL     OW66150   4.878   3.709   9.493 -0.1277 -0.3134  0.1554
16053SOL    HW166151   4.846   3.667   9.413  1.6690 -0.5991 -0.4551
16053SOL    HW266152   4.876   3.639   9.558  1.3433 -0.9502 -0.4542
16054SOL     OW66153  11.380   4.335   6.060  0.4000  0.2963 -0.5228
16054SOL    HW166154  11.368   4.429   6.045 -1.3864  0.0632 -0.7261
16054SOL    HW266155  11.315   4.293   6.003  1.5074 -1.1047 -0.8260
16055SOL     OW66156   9.955  13.080   2.822 -0.3862 -0.3131 -0.0749
16055SOL    HW166157   9.884  13.143   2.821 -1.2007 -1.1740  0.6948
16055SOL    HW266158  10.019  13.116   2.883 -0.9175 -0.2917  0.4791
16056SOL     OW66159   3.670   0.335  14.053  0.1266  0.3374  0.2293
16056SOL    HW166160   3.608   0.405  14.074  1.8019  1.6514  0.9659
16056SOL    HW266161   3.756   0.377  14.053  1.0146 -1.3340 -1.2391
16057SOL     OW66162  10.308  13.915   3.168  0.4195  0.6888  0.0002
16057SOL    HW166163  10.265  13.998   3.184 -0.2837  0.2672  0.3418
16057SOL    HW266164  10.240  13.860   3.128  1.4172  0.9239 -2.1795
16058SOL     OW66165   2.779   4.722   2.182  0.5827 -0.6302 -0.1851
16058SOL    HW166166   2.731   4.804   2.176  2.0975  0.2355 -0.8962
16058SOL    HW266167   2.724   4.666   2.238 -1.3338  0.2076 -1.1639
16059SOL     OW66168  10.025   4.629   6.576  0.0759 -0.0242 -0.2826
16059SOL    HW166169  10.077   4.709   6.584 -0.1479 -0.0230  1.4790
16059SOL    HW266170  10.075   4.574   6.516  1.8884  0.1666  0.9889
16060SOL     OW66171   4.866   7.643   8.406  0.2464  0.3691  0.5836
16060SOL    HW166172   4.865   7.619   8.499 -0.5849 -0.3194  0.4144
16060SOL    HW266173   4.789   7.699   8.395  0.6938  0.9669  0.4267
16061SOL     OW66174   6.140  12.891   6.442 -0.3154  0.4366 -0.5488
16061SOL    HW166175   6.135  12.832   6.517  2.5171 -1.3776 -1.6025
16061SOL    HW266176   6.185  12.968   6.476  1.9543 -0.8188 -0.4881
16062SOL     OW66177   9.654   4.460   0.976  0.2429  0.1438 -0.3954
16062SOL    HW166178   9.644   4.427   1.066 -0.0450 -1.7115 -1.0570
16062SOL    HW266179   9.702   4.542   0.986  1.7689 -0.8674  1.3404
16063SOL     OW66180   0.704   5.023   5.893 -0.6150 -0.0871 -0.6999
16063SOL    HW166181   0.763   5.035   5.968 -0.2999 -1.8700 -0.6354
16063SOL    HW266182   0.652   5.104   5.891 -0.1603  0.2904  1.0076
16064SOL     OW66183   8.680   5.308   2.392 -0.7477 -0.6485  0.6393
16064SOL    HW166184   8.594   5.338   2.423 -0.8594  0.9592 -1.0481
16064SOL    HW266185   8.714   5.381   2.341  1.2845 -1.5695  0.5712
16065SOL     OW66186   5.822   8.252  10.900 -0.3890 -0.1822 -0.0796
16065SOL    HW166187   5.804   8.237  10.993 -0.1566 -1.7784 -0.2680
16065SOL    HW266188   5.736   8.246  10.858 -0.2644 -1.5051 -0.1960
16066SOL     OW66189   8.408   4.413   8.384  0.7446  0.0736  0.2519
16066SOL    HW166190   8.478   4.382   8.327  0.4545  0.1728 -0.1632
16066SOL    HW266191   8.452   4.457   8.456  1.1773 -1.2183  0.8196
16067SOL     OW66192   7.555   1.419  12.958  0.7560 -0.5084 -0.3755
16067SOL    HW166193   7.485   1.376  13.008  1.5827  0.1535  1.4224
16067SOL    HW266194   7.515   1.436  12.873 -0.5467 -2.1352 -0.1546
16068SOL     OW66195   3.935  12.221  12.741 -0.4220  0.0685  0.0737
16068SOL    HW166196   3.897  12.243  12.656 -3.1459  0.4925  1.2656
16068SOL    HW266197   3.865  12.173  12.786  0.5973  0.6020  2.3640
16069SOL     OW66198   7.483   6.111   6.069  0.7719 -0.0610  0.1530
16069SOL    HW166199   7.443   6.081   6.150 -1.1653  0.6039 -0.4903
16069SOL    HW266200   7.561   6.159   6.096  0.8572 -0.9237  1.5137
16070SOL     OW66201  13.952  12.385   8.876 -0.5781  0.0688  0.5990
16070SOL    HW166202  13.947  12.472   8.915 -0.6159  1.1289 -1.6145
16070SOL    HW266203  14.045  12.365   8.872 -0.4228  0.9429 -0.7298
16071SOL     OW66204   8.955  14.054  11.484 -0.1221  0.1431  0.2620
16071SOL    HW166205   9.026  14.009  11.529  0.6772  1.3764  0.2906
16071SOL    HW266206   8.900  14.090  11.554 -0.0059  0.3474  0.2495
16072SOL     OW66207   7.241   5.944   6.966 -0.0188  0.4604 -0.2818
16072SOL    HW166208   7.324   5.899   6.984 -1.2621 -1.5074  0.8042
16072SOL    HW266209   7.175   5.894   7.013 -1.6873  2.8041  0.0561
16073SOL     OW66210   4.145   5.074   5.836 -0.3101  0.1412  0.1575
16073SOL    HW166211   4.099   5.113   5.911 -0.4154 -0.5920  0.4863
16073SOL    HW266212   4.075   5.049   5.776 -0.2778  0.0125  0.1720
16074SOL     OW66213  13.969   8.713   0.532 -0.4255  0.5545 -0.0022
16074SOL    HW166214  13.932   8.641   0.582  0.8801 -0.5941 -0.6202
16074SOL    HW266215  13.976   8.679   0.443  3.4740  0.0613  0.3125
16075SOL     OW66216   0.980   7.564   7.467  0.1286  0.0691  0.6206
16075SOL    HW166217   1.037   7.489   7.448 -0.1549  0.1133 -0.4737
16075SOL    HW266218   0.907   7.554   7.405 -1.4558 -0.4006  2.4483
16076SOL     OW66219   3.329   3.820   3.843 -0.0216  0.6679 -0.7714
16076SOL    HW166220   3.307   3.737   3.886 -1.1573  1.0638 -0.5588
16076SOL    HW266221   3.249   3.844   3.796  0.5377  1.2866 -1.4180
16077SOL     OW66222  12.409  11.807   2.903 -0.4436  0.1408  0.2740
16077SOL    HW166223  12.326  11.853   2.895 -1.0385 -1.1125 -1.1545
16077SOL    HW266224  12.444  11.835   2.988 -2.2204  0.8357  0.8131
16078SOL     OW66225   8.925   9.309   5.016  0.0542 -0.7853  0.2515
16078SOL    HW166226   8.957   9.390   5.056 -2.9152  0.5140  0.2782
16078SOL    HW266227   8.865   9.273   5.082  1.0322 -2.8768  0.0784
16079SOL     OW66228  10.933   0.946  12.903  0.1869  0.0087 -0.4811
16079SOL    HW166229  10.956   1.017  12.962  0.6126 -0.2787 -0.2947
16079SOL    HW266230  10.890   0.989  12.829  0.6654  0.4825 -0.4876
16080SOL     OW66231  10.586   0.870   0.401  0.9295  0.5137 -0.3654
16080SOL    HW166232  10.650   0.937   0.423  0.7309  1.3209 -2.1365
16080SOL    HW266233  10.611   0.840   0.314 -0.7881  0.4852 -0.8762
16081SOL     OW66234   7.776   0.371   7.373  0.0846  0.0728  0.2839
16081SOL    HW166235   7.834   0.382   7.449 -0.2790  1.4804  0.3759
16081SOL    HW266236   7.688   0.367   7.410  0.0096 -0.6729  0.0374
16082SOL     OW66237  13.031   5.255  12.287 -0.4686  0.7981  0.6209
16082SOL    HW166238  12.996   5.322  12.228 -1.0473 -0.1538 -0.1486
16082SOL    HW266239  13.120   5.284  12.307 -0.4778  1.4546 -0.2304
16083SOL     OW66240  13.705  13.278   7.217 -0.0056 -0.8464  0.5829
16083SOL    HW166241  13.786  13.309   7.177 -0.3445 -1.4337 -0.5961
16083SOL    HW266242  13.636  13.301   7.154 -0.8892  0.3659  1.9186
16084SOL     OW66243  12.902   2.697  13.514 -0.0746  0.2670 -0.1182
16084SOL    HW166244  12.976   2.754  13.534 -0.3967  1.0309 -1.0056
16084SOL    HW266245  12.825   2.751  13.531 -0.3830  0.2205 -1.2617
16085SOL     OW66246   0.631  13.417  12.684 -0.1411  0.2192  0.2014
16085SOL    HW166247   0.651  13.469  12.762 -1.5095  1.2829 -0.1036
16085SOL    HW266248   0.559  13.359  12.712 -0.4845  0.4454 -0.2033
16086SOL     OW66249  12.629   2.808  13.600  0.0723 -0.5783  0.0770
16086SOL    HW166250  12.597   2.839  13.685 -1.2958 -1.0476 -0.2483
16086SOL    HW266251  12.580   2.727  13.584  0.1843 -0.4013 -1.2429
16087SOL     OW66252   8.655   8.965  10.225  0.1271 -0.2013 -0.1621
16087SOL    HW166253   8.611   9.035  10.273  1.2789  0.8532 -0.5982
16087SOL    HW266254   8.640   8.887  10.278  0.4073  0.7249  1.3531
16088SOL     OW66255  11.079   1.026  10.154  0.2035  0.0152  0.1820
16088SOL    HW166256  11.118   0.968  10.219  1.7094 -0.0522 -0.7409
16088SOL    HW266257  10.997   0.983  10.130  1.0384 -1.4760 -0.1052
16089SOL     OW66258   8.848  12.428   3.724  0.1308 -0.0626 -0.1684
16089SOL    HW166259   8.770  12.372   3.720  0.2527 -0.1775 -1.6449
16089SOL    HW266260   8.838  12.478   3.805 -0.2844 -1.7687  0.8627
16090SOL     OW66261  12.178   9.669   6.141 -0.3358  0.0047 -0.0285
16090SOL    HW166262  12.190   9.732   6.070 -2.5295 -0.5128 -0.9356
16090SOL    HW266263  12.133   9.595   6.101 -2.9935  0.3054  2.1467
16091SOL     OW66264   8.904   8.933   8.123  0.4185 -0.5158 -0.5813
16091SOL    HW166265   8.996   8.921   8.099  1.1005  1.3744  0.7971
16091SOL    HW266266   8.898   9.026   8.147 -1.0884 -1.2684  2.3647
16092SOL     OW66267   5.685   9.419  10.351  0.5675 -0.5956  0.1244
16092SOL    HW166268   5.723   9.492  10.302  0.2879 -1.4252 -1.4006
16092SOL    HW266269   5.617   9.460  10.405 -0.0662  0.2241 -1.2210
16093SOL     OW66270  13.312   4.200   0.539  0.0440  0.0530 -0.9235
16093SOL    HW166271  13.342   4.110   0.527 -0.0852 -0.1511  0.1409
16093SOL    HW266272  13.217   4.195   0.527  0.1778  0.3084 -2.1971
16094SOL     OW66273   5.975  10.549   8.146  0.1164  0.5394  0.3911
16094SOL    HW166274   6.067  10.526   8.158  0.3195  0.0247 -1.7666
16094SOL    HW266275   5.932  10.468   8.121 -0.5720  1.1053 -0.3297
16095SOL     OW66276  10.256  10.412   6.178 -0.4419  0.6195  0.1877
16095SOL    HW166277  10.251  10.342   6.113  0.9342  1.8958 -1.4049
16095SOL    HW266278  10.173  10.408   6.225 -2.1991  0.6301 -2.7285
16096SOL     OW66279   3.099  11.565   2.933  0.7102  0.2882 -0.0585
16096SOL    HW166280   3.126  11.651   2.963  0.3241  0.1797  0.6131
16096SOL    HW266281   3.004  11.564   2.943  0.5707  0.2243 -1.2376
16097SOL     OW66282   4.031  12.050   0.279 -0.4617  0.3136  0.1689
16097SOL    HW166283   4.027  12.126   0.337  1.6798  1.9648 -1.6475
16097SOL    HW266284   3.991  12.080   0.197  1.1062 -0.2090 -0.8283
16098SOL     OW66285   2.466  13.034  11.561 -0.9869 -0.5417 -0.1144
16098SOL    HW166286   2.447  13.007  11.651  0.2983 -0.8139  0.0934
16098SOL    HW266287   2.416  13.115  11.549 -0.3079  0.1004  1.2170
16099SOL     OW66288   6.196  13.866  11.080  0.2872  0.5783 -0.0356
16099SOL    HW166289   6.211  13.828  10.993 -1.2419 -0.2973  0.0412
16099SOL    HW266290   6.255  13.941  11.084  1.2520 -0.0581 -1.3586
16100SOL     OW66291  11.361  11.069   0.634  0.6629  0.0978  0.7622
16100SOL    HW166292  11.336  10.982   0.664  1.5694 -0.0600  1.0803
16100SOL    HW266293  11.314  11.129   0.692 -0.9468 -0.1263 -0.2254
16101SOL     OW66294   1.503   2.193   0.543 -0.1938 -0.5707  0.4250
16101SOL    HW166295   1.547   2.180   0.459 -0.6193  0.7200 -0.0307
16101SOL    HW266296   1.469   2.282   0.538  0.7930 -0.0233  2.4450
16102SOL     OW66297   7.319   1.291  13.722 -0.7337  0.3740  0.7994
16102SOL    HW166298   7.318   1.220  13.657  0.1827  2.1331 -1.2800
16102SOL    HW266299   7.407   1.287  13.761 -0.7292  0.2823  0.7806
16103SOL     OW66300   1.058   9.468   5.861 -0.1523  0.2491  0.0627
16103SOL    HW166301   1.069   9.563   5.864  0.5583  0.2010 -0.6665
16103SOL    HW266302   1.093   9.443   5.776 -0.3244 -0.6716  0.2583
16104SOL     OW66303   7.562   8.007   4.459  0.3013 -0.2334 -0.2097
16104SOL    HW166304   7.572   7.999   4.554  0.3378 -1.0665 -0.2759
16104SOL    HW266305   7.589   8.096   4.439 -0.8149  0.3318  0.7087
16105SOL     OW66306   9.760  10.758   8.368 -0.0262 -0.5816 -0.3355
16105SOL    HW166307   9.682  10.712   8.400  1.1883 -4.0043 -1.8390
16105SOL    HW266308   9.737  10.783   8.278  0.6483 -1.8237 -0.8684
16106SOL     OW66309   3.347   9.059   1.883  0.3008 -0.3268  0.0910
16106SOL    HW166310   3.434   9.021   1.879 -0.2336 -1.5030 -2.8650
16106SOL    HW266311   3.362   9.154   1.889  1.8809 -0.3642 -2.1931
16107SOL     OW66312  13.099   3.468   1.343  0.0880  0.4925 -0.1504
16107SOL    HW166313  13.098   3.516   1.260 -1.1476 -0.5301 -0.7597
16107SOL    HW266314  13.087   3.535   1.410  0.0664  1.2121 -0.8633
16108SOL     OW66315   5.906  12.620  11.168 -0.3599 -0.5317  0.1181
16108SOL    HW166316   5.840  12.552  11.177  0.0699 -0.7536  1.7809
16108SOL    HW266317   5.982  12.575  11.133 -1.4375 -0.0153 -3.2670
16109SOL     OW66318   8.157   1.016   1.690 -0.5590 -0.4109  0.1122
16109SOL    HW166319   8.116   0.980   1.612 -2.1108  1.6807 -0.1102
16109SOL    HW266320   8.235   1.061   1.659 -1.4622  0.8834 -0.3656
16110SOL     OW66321   3.338   5.605   6.518  0.3934 -0.0732  0.3372
16110SOL    HW166322   3.337   5.556   6.600  0.5760 -1.1440 -0.2725
16110SOL    HW266323   3.421   5.580   6.476  0.2168  0.3119 -0.2565
16111SOL     OW66324   9.078  12.862  13.272 -0.0061 -0.1840 -0.2157
16111SOL    HW166325   9.167  12.897  13.269 -0.0162 -0.0552  0.6449
16111SOL    HW266326   9.058  12.854  13.366 -1.8670  2.2814 -0.2722
16112SOL     OW66327   1.337  13.027  10.836  0.5058 -0.1869 -0.4871
16112SOL    HW166328   1.289  13.022  10.753  0.1221 -1.8648 -0.1998
16112SOL    HW266329   1.334  13.120  10.860 -3.5673 -0.2347  0.0375
16113SOL     OW66330   6.712   3.469   1.652 -1.1709 -0.1225  0.5853
16113SOL    HW166331   6.783   3.526   1.624 -0.9396 -0.7285 -0.0969
16113SOL    HW266332   6.636   3.500   1.603 -1.0265 -0.4399  0.1491
16114SOL     OW66333   2.304   7.663   8.563 -0.3400  0.4056  0.4826
16114SOL    HW166334   2.361   7.666   8.487  1.8659 -0.1915  2.0179
16114SOL    HW266335   2.297   7.569   8.584  0.2612  0.6316  1.8093
16115SOL     OW66336   1.369   7.977  11.850 -0.0795 -0.2499 -0.8244
16115SOL    HW166337   1.430   8.032  11.899 -1.4192  1.7524 -1.2863
16115SOL    HW266338   1.417   7.952  11.772  0.5229  0.3968 -0.6705
16116SOL     OW66339  11.987   0.361  10.334 -0.2580 -0.0713  0.2095
16116SOL    HW166340  11.931   0.320  10.269 -1.4525 -0.8003  1.6492
16116SOL    HW266341  12.037   0.289  10.372  0.1418  0.2976  0.4055
16117SOL     OW66342  13.354   3.081   9.931  0.4308 -0.2977 -0.0718
16117SOL    HW166343  13.271   3.032   9.933 -0.3650  0.9260 -1.2861
16117SOL    HW266344  13.393   3.058   9.846 -0.2032  1.5008 -0.8993
16118SOL     OW66345  13.492   3.576  10.065 -0.5267  0.1132 -0.0295
16118SOL    HW166346  13.440   3.656  10.058 -2.1369 -0.7271  1.4072
16118SOL    HW266347  13.435   3.508  10.028 -0.8442 -0.9637  2.2991
16119SOL     OW66348   0.750   3.379  10.261  0.1263  0.6739  0.1262
16119SOL    HW166349   0.821   3.442  10.277  0.4770  0.1899  0.4801
16119SOL    HW266350   0.783   3.296  10.295  0.3872 -0.1238 -1.9233
16120SOL     OW66351   6.491   9.073   8.881  0.3804  0.2370 -0.6184
16120SOL    HW166352   6.569   9.049   8.931 -0.0524 -0.1044 -0.0914
16120SOL    HW266353   6.475   9.165   8.906 -0.9474 -0.4763  1.4415
16121SOL     OW66354  13.522   2.862   4.115 -0.7903  0.0330  0.1135
16121SOL    HW166355  13.555   2.946   4.085 -1.1288 -0.3138 -1.2917
16121SOL    HW266356  13.522   2.807   4.037  1.1071 -1.8315  1.3183
16122SOL     OW66357   4.220  11.672  10.902  0.0438  0.3524 -0.2640
16122SOL    HW166358   4.237  11.766  10.891 -2.1380  0.9360  0.9002
16122SOL    HW266359   4.136  11.668  10.946  0.7890 -2.1467  1.1041
16123SOL     OW66360   4.671   5.917   2.905 -0.2249 -0.1098  0.0749
16123SOL    HW166361   4.662   6.006   2.937  0.8795  0.2026 -0.4176
16123SOL    HW266362   4.722   5.872   2.973  0.2935 -0.0139 -0.2402
16124SOL     OW66363  13.339   1.485   7.572 -0.1138 -0.5780 -0.1754
16124SOL    HW166364  13.373   1.494   7.661 -0.2062  1.1688 -0.2761
16124SOL    HW266365  13.344   1.391   7.553 -1.1110 -1.1334  2.0471
16125SOL     OW66366  10.732   7.379  12.465 -0.1278  0.1638  0.1894
16125SOL    HW166367  10.647   7.374  12.423 -0.1164 -0.4423  0.2377
16125SOL    HW266368  10.764   7.289  12.467  0.6006  0.4108 -0.0052
16126SOL     OW66369  10.259   9.624   1.043  0.4282  0.3112 -0.3682
16126SOL    HW166370  10.314   9.658   0.972 -0.7368  1.2085 -0.8749
16126SOL    HW266371  10.170   9.648   1.017 -0.1934 -0.9867  0.5004
16127SOL     OW66372   3.175  10.950   8.216 -0.0020 -0.1854  0.2155
16127SOL    HW166373   3.185  10.879   8.279 -1.1744 -0.5730 -0.0241
16127SOL    HW266374   3.214  11.026   8.260 -0.3598 -0.5596  1.2125
16128SOL     OW66375   6.117   9.378  11.729 -0.8142 -0.0349 -0.3308
16128SOL    HW166376   6.161   9.452  11.772 -2.1067  0.1334  0.7630
16128SOL    HW266377   6.070   9.418  11.656  1.7284 -0.3780 -2.2857
16129SOL     OW66378  13.546   4.965  14.132  0.0698 -0.3833 -0.7932
16129SOL    HW166379  13.633   4.986  14.096 -0.6318  1.0730 -1.7608
16129SOL    HW266380  13.541   5.013  14.214  0.2597 -0.6278 -0.6393
16130SOL     OW66381  10.901  13.060   6.126  0.3094  0.0623  0.4363
16130SOL    HW166382  10.946  12.985   6.087 -1.1655 -0.5464 -0.1615
16130SOL    HW266383  10.877  13.031   6.214 -0.2919 -0.1916  0.1924
16131SOL     OW66384  10.123  13.197  12.259  0.3543 -0.1650  0.6901
16131SOL    HW166385  10.045  13.169  12.211  0.9769  0.3587 -0.6576
16131SOL    HW266386  10.179  13.119  12.260  0.5032 -0.0666  0.2222
16132SOL     OW66387   6.183   8.629   7.234  0.4325 -0.2704 -0.1125
16132SOL    HW166388   6.225   8.614   7.149  0.0919 -0.9697 -0.1611
16132SOL    HW266389   6.250   8.602   7.297  0.8210  0.5945 -0.1454
16133SOL     OW66390  13.491  12.489   9.654  0.2810  0.2285 -0.0007
16133SOL    HW166391  13.528  12.418   9.707 -0.2294  0.5284  0.7785
16133SOL    HW266392  13.553  12.500   9.582 -1.0900 -3.1020 -1.9656
16134SOL     OW66393  10.035   7.820   2.992 -0.1532 -0.2147 -0.1331
16134SOL    HW166394  10.105   7.826   3.056 -0.0870 -1.3010 -0.0815
16134SOL    HW266395  10.049   7.895   2.934 -1.7193  2.3369  2.5254
16135SOL     OW66396  11.226   8.878   8.609  0.1605 -0.0333  0.4939
16135SOL    HW166397  11.168   8.842   8.676  0.3152  0.1626  0.7372
16135SOL    HW266398  11.204   8.971   8.605 -1.0008 -0.3268 -0.9151
16136SOL     OW66399  13.066   6.427   5.132  0.6952  0.6615 -0.3375
16136SOL    HW166400  13.150   6.473   5.136  1.2972 -0.4699  1.1397
16136SOL    HW266401  13.001   6.496   5.121  1.5526  1.9074  1.7868
16137SOL     OW66402   0.933  11.427   2.085 -0.1020  0.0222  0.1541
16137SOL    HW166403   0.898  11.497   2.029  0.8850  0.1938 -0.2779
16137SOL    HW266404   1.012  11.398   2.039  0.2008 -0.4934  0.9847
16138SOL     OW66405  11.928   9.776   1.205 -0.2314  0.5129  0.1106
16138SOL    HW166406  11.942   9.845   1.270  0.2961  1.7197 -1.2371
16138SOL    HW266407  12.016   9.752   1.176 -0.4900  0.7842 -0.9396
16139SOL     OW66408  10.677   1.693   1.377  0.4705 -0.4328 -0.1754
16139SOL    HW166409  10.694   1.747   1.300 -0.2821 -1.0723 -0.8021
16139SOL    HW266410  10.641   1.754   1.442  0.7402  0.0326 -0.4604
16140SOL     OW66411   8.971  10.515   1.025  0.2419  0.3400  0.1003
16140SOL    HW166412   9.059  10.529   0.989  1.1404 -0.9592  1.6323
16140SOL    HW266413   8.914  10.569   0.970  1.6940 -0.3176 -2.2055
16141SOL     OW66414   8.906   5.297  10.988  0.0271  0.3396  0.4329
16141SOL    HW166415   8.876   5.335  10.906 -0.0798  1.1429  0.8383
16141SOL    HW266416   8.910   5.370  11.050  0.9424 -0.0874  0.9157
16142SOL     OW66417  13.609   4.598  11.603 -0.4993 -0.1170  0.5249
16142SOL    HW166418  13.568   4.582  11.688  0.1783 -2.6910  0.4313
16142SOL    HW266419  13.563   4.541  11.542  0.0657  0.5376 -0.5561
16143SOL     OW66420  10.937  10.266   6.205  0.3621  0.1355  0.2005
16143SOL    HW166421  10.926  10.300   6.117  3.0174  3.7547  0.9989
16143SOL    HW266422  11.029  10.237   6.208  0.0804 -0.7024  1.5476
16144SOL     OW66423  13.200   9.173   3.746 -0.1757  0.5545  0.0898
16144SOL    HW166424  13.105   9.171   3.760 -0.4157 -0.8460 -1.4024
16144SOL    HW266425  13.237   9.149   3.831 -1.0929  1.9095  0.9165
16145SOL     OW66426   9.594   8.075   5.527 -0.3742  0.1801  0.5944
16145SOL    HW166427   9.541   8.029   5.462  1.5270 -0.0591 -0.8820
16145SOL    HW266428   9.568   8.167   5.519 -0.6683  0.0455 -0.0281
16146SOL     OW66429   0.249   9.805  10.913 -0.4143  0.0067  0.3368
16146SOL    HW166430   0.206   9.775  10.993  0.4431 -0.1974  0.7347
16146SOL    HW266431   0.343   9.793  10.931 -0.1183  1.5578 -0.0372
16147SOL     OW66432  10.226  13.593  11.901  0.0099 -0.1931  0.3935
16147SOL    HW166433  10.199  13.677  11.937  0.0305  1.7619 -3.6168
16147SOL    HW266434  10.145  13.543  11.893 -0.7061  1.0991 -0.8707
16148SOL     OW66435   8.621   6.677   1.097 -0.2979 -0.5031 -0.0970
16148SOL    HW166436   8.555   6.695   1.030 -1.0343 -2.3648  0.0633
16148SOL    HW266437   8.655   6.590   1.074  0.9082 -0.2903  0.7838
16149SOL     OW66438   5.598   4.867  11.993  0.3592  0.0816 -0.3507
16149SOL    HW166439   5.603   4.961  11.973 -1.1121  0.5677  1.2818
16149SOL    HW266440   5.669   4.853  12.056 -0.4813  0.5322  0.7398
16150SOL     OW66441  12.759   5.736   0.855  0.4366  0.0213  0.3749
16150SOL    HW166442  12.849   5.726   0.827  0.5562  1.2753  0.2633
16150SOL    HW266443  12.709   5.742   0.774  0.4152  0.6450  0.4327
16151SOL     OW66444   9.276   6.252   7.102  0.1875  0.2247  0.3577
16151SOL    HW166445   9.274   6.231   7.009 -0.3592  0.6394  0.2697
16151SOL    HW266446   9.280   6.348   7.105 -0.8339  0.2686  0.7571
16152SOL     OW66447   5.415   1.191   2.938  0.5493  0.3326 -0.6168
16152SOL    HW166448   5.426   1.223   3.028  0.0451  1.6118 -0.9870
16152SOL    HW266449   5.351   1.121   2.945  2.1869 -1.1658  0.3188
16153SOL     OW66450  12.945   0.299   3.235 -0.1775 -0.5010  0.0070
16153SOL    HW166451  12.875   0.334   3.290 -0.6940 -0.3307 -0.7476
16153SOL    HW266452  12.956   0.208   3.265 -0.3167 -0.3523  0.5170
16154SOL     OW66453   2.756  12.736   3.503  0.5757  0.6023  0.1983
16154SOL    HW166454   2.696  12.690   3.444  2.6133  0.3940 -1.8385
16154SOL    HW266455   2.736  12.699   3.590 -0.2779 -1.5598 -0.8302
16155SOL     OW66456   2.774   0.027   2.886 -0.4242  0.8336  0.8071
16155SOL    HW166457   2.806  -0.025   2.960 -0.5126  2.9532  2.4546
16155SOL    HW266458   2.820   0.111   2.894 -0.0474  0.9777 -1.8981
16156SOL     OW66459  10.121   3.332  13.767 -0.2919 -0.1883 -0.2591
16156SOL    HW166460  10.158   3.300  13.684  1.5532 -0.4585  0.6201
16156SOL    HW266461  10.169   3.412  13.785 -0.2481 -0.4605  0.8621
16157SOL     OW66462  12.730  12.237  12.113 -0.2892  0.2849 -0.1344
16157SOL    HW166463  12.679  12.265  12.189  1.4021  2.3170  0.3166
16157SOL    HW266464  12.790  12.309  12.096  0.4618 -0.7939 -2.4542
16158SOL     OW66465   3.093  10.163   0.724 -0.4033 -0.5024 -0.4201
16158SOL    HW166466   3.020  10.205   0.679 -0.3002 -1.2499 -1.3096
16158SOL    HW266467   3.138  10.235   0.769 -0.6422  0.2314 -1.3205
16159SOL     OW66468   5.431   2.328   1.592  0.1949 -0.1885  0.7440
16159SOL    HW166469   5.345   2.367   1.577  0.5070  0.6472  1.0535
16159SOL    HW266470   5.462   2.303   1.505 -1.5249 -3.1344  0.8565
16160SOL     OW66471  11.779   3.125   1.654 -0.1530 -0.2452  0.0055
16160SOL    HW166472  11.727   3.166   1.724  1.0377  1.4206 -0.0096
16160SOL    HW266473  11.779   3.190   1.583  2.3763  0.1272  0.2339
16161SOL     OW66474  13.264  13.212   9.619  0.1995  0.1273  0.0423
16161SOL    HW166475  13.338  13.191   9.676  1.3776  0.9313 -1.1299
16161SOL    HW266476  13.201  13.255   9.677  0.0754 -1.6409  1.3194
16162SOL     OW66477  13.802   2.844   2.208 -0.0148  0.2801 -0.2476
16162SOL    HW166478  13.829   2.811   2.123 -1.5462 -1.0354 -0.2644
16162SOL    HW266479  13.824   2.937   2.206 -1.5727  0.6687 -2.7658
16163SOL     OW66480   4.470   0.643   2.865  0.1279  0.2363 -0.4075
16163SOL    HW166481   4.502   0.723   2.907  0.0829 -0.6347  1.3848
16163SOL    HW266482   4.375   0.655   2.859  0.2205  0.7216 -1.1065
16164SOL     OW66483  11.314   9.442   1.150 -0.2205 -0.0620  0.5655
16164SOL    HW166484  11.250   9.456   1.220 -1.1664 -2.6447  0.3278
16164SOL    HW266485  11.323   9.346   1.144 -0.3749  0.0136 -3.0018
16165SOL     OW66486  10.336  10.525  13.097  0.3395  0.0011 -0.0637
16165SOL    HW166487  10.283  10.525  13.017  0.4390 -0.0012 -0.1287
16165SOL    HW266488  10.424  10.501  13.068 -0.1697 -2.8634  0.4103
16166SOL     OW66489  13.488   8.583   9.844 -0.1641  0.3528  0.3874
16166SOL    HW166490  13.572   8.569   9.800  0.3488 -1.2678  1.7409
16166SOL    HW266491  13.473   8.677   9.839  2.7130  1.0012  1.7105
16167SOL     OW66492   4.181   6.363  13.500  0.0636  0.4436  0.0330
16167SOL    HW166493   4.250   6.408  13.452  0.2884  0.6377  0.5374
16167SOL    HW266494   4.151   6.295  13.439  0.8219  0.2333 -0.1182
16168SOL     OW66495   3.824  11.823   1.195 -0.2445 -0.2182  0.3309
16168SOL    HW166496   3.763  11.818   1.269 -0.6071 -1.2708 -0.0205
16168SOL    HW266497   3.891  11.885   1.224 -3.3067  3.9519 -0.6499
16169SOL     OW66498  12.094   8.336  12.249  0.1916 -0.3329 -0.1791
16169SOL    HW166499  12.010   8.331  12.204 -0.2410  0.2853  0.5571
16169SOL    HW266500  12.077   8.387  12.328  1.5619  1.0562 -0.7307
16170SOL     OW66501  10.102   7.869   0.767  0.1480 -0.3800 -0.6996
16170SOL    HW166502  10.077   7.824   0.847 -0.8633  0.4449 -0.5385
16170SOL    HW266503  10.171   7.930   0.795 -1.4926  1.2651 -0.0383
16171SOL     OW66504   8.268   3.880  13.967 -0.2787 -0.3875  0.4314
16171SOL    HW166505   8.249   3.804  13.912 -1.0794  2.9810 -4.5874
16171SOL    HW266506   8.363   3.887  13.968 -0.2417 -0.3776 -0.9592
16172SOL     OW66507  12.002  13.163  10.999  0.2023 -0.1658 -0.5360
16172SOL    HW166508  11.992  13.149  11.093  3.3498  0.1527 -0.0293
16172SOL    HW266509  11.961  13.247  10.982  3.4864  2.1263  1.6177
16173SOL     OW66510   5.476  13.950   4.704  0.1231  0.3511 -0.2315
16173SOL    HW166511   5.406  13.885   4.699 -1.3675  1.8348  0.5328
16173SOL    HW266512   5.463  13.993   4.788  1.4181  1.2802 -0.4724
16174SOL     OW66513   6.470   6.019  12.463  0.6010  0.5875  0.2086
16174SOL    HW166514   6.383   6.000  12.499  0.7946 -0.5590  0.1121
16174SOL    HW266515   6.469   6.113  12.446 -1.0483  0.4141 -0.9153
16175SOL     OW66516   7.409   7.830   9.653 -0.0698 -0.7718 -0.2569
16175SOL    HW166517   7.465   7.895   9.696 -0.8035  0.0700 -0.5537
16175SOL    HW266518   7.466   7.753   9.642  0.8281 -0.1688  0.0503
16176SOL     OW66519   3.093  10.395  14.151  0.0546 -0.1100 -0.2965
16176SOL    HW166520   3.006  10.426  14.176  0.3887  0.9450 -0.3763
16176SOL    HW266521   3.151  10.469  14.171  0.6912 -0.1567 -1.8064
16177SOL     OW66522   3.368  13.550   8.824  0.3866 -0.8317  0.3404
16177SOL    HW166523   3.276  13.524   8.823  0.4839 -1.2149  0.7638
16177SOL    HW266524   3.367  13.644   8.807  0.0132 -1.0632 -1.0496
16178SOL     OW66525   0.849  12.627  13.510  0.1596  0.2834  0.6059
16178SOL    HW166526   0.933  12.607  13.551 -0.0049  2.1762  1.9776
16178SOL    HW266527   0.801  12.544  13.512  1.4488 -0.4791  1.1184
16179SOL     OW66528  12.398  13.594   3.298  0.0742  0.0271 -0.0569
16179SOL    HW166529  12.344  13.584   3.376 -0.4007  2.9127  0.1096
16179SOL    HW266530  12.341  13.636   3.234  0.5332 -2.0264 -1.9422
16180SOL     OW66531  14.059   2.492  11.634 -0.5776 -0.6449  0.2437
16180SOL    HW166532  14.053   2.401  11.665  1.1040 -0.3650  1.5412
16180SOL    HW266533  14.149   2.499  11.601 -0.5381  0.6744  0.6117
16181SOL     OW66534  10.625   5.730   5.692 -0.0727  0.0142  0.2799
16181SOL    HW166535  10.707   5.774   5.672  0.7571 -1.9813 -0.9181
16181SOL    HW266536  10.570   5.747   5.615  0.7629 -2.1164 -0.8686
16182SOL     OW66537   4.236  12.979   1.556  0.1186  0.1963  0.1533
16182SOL    HW166538   4.272  12.913   1.614  0.0713  1.9363  2.3042
16182SOL    HW266539   4.164  13.018   1.606 -1.2825  0.4448 -1.8980
16183SOL     OW66540   2.811  11.254   8.908  0.0710  0.0589  0.1823
16183SOL    HW166541   2.900  11.244   8.942 -0.1552  1.7176  1.3439
16183SOL    HW266542   2.756  11.205   8.969 -0.0387  0.8719  0.7545
16184SOL     OW66543   9.752   1.453   2.682  0.5325  0.1412 -0.0283
16184SOL    HW166544   9.756   1.447   2.587 -0.7897  0.5261 -0.1345
16184SOL    HW266545   9.838   1.424   2.712  0.6452 -0.9401 -1.2926
16185SOL     OW66546  10.856   6.250  12.840 -0.6695  0.0705 -0.4847
16185SOL    HW166547  10.782   6.312  12.840 -0.6001  0.1612 -0.9234
16185SOL    HW266548  10.818   6.168  12.808 -1.1433 -0.6140  1.6867
16186SOL     OW66549   8.118   6.484  10.922  0.1712  0.4760  0.5714
16186SOL    HW166550   8.169   6.565  10.914 -0.1681  0.6405  0.0698
16186SOL    HW266551   8.040   6.509  10.971  0.6218  0.1909  1.4729
16187SOL     OW66552   6.626   3.409   0.136 -0.4647  0.5728 -0.3612
16187SOL    HW166553   6.648   3.346   0.067  1.3923  0.7790 -0.0148
16187SOL    HW266554   6.614   3.492   0.089  2.7163  1.1525 -0.3680
16188SOL     OW66555   1.850  12.922   1.581  0.1729  0.2362  0.0515
16188SOL    HW166556   1.934  12.889   1.548 -0.2754 -0.1153 -0.7707
16188SOL    HW266557   1.788  12.852   1.559 -0.3113  0.4480  0.7544
16189SOL     OW66558   5.295  12.404   0.104  0.4521  0.7079  0.2946
16189SOL    HW166559   5.335  12.340   0.045 -0.1867 -0.2839  0.9026
16189SOL    HW266560   5.367  12.462   0.130  0.9076  0.6375 -0.7727
16190SOL     OW66561  11.000  12.826  12.586 -0.3990 -0.5084  0.0129
16190SOL    HW166562  11.092  12.841  12.606 -0.4499 -1.0530  0.6777
16190SOL    HW266563  10.956  12.908  12.612 -0.1889 -0.4839  0.2958
16191SOL     OW66564   4.395  13.528  13.232 -0.5403 -0.0596 -0.4680
16191SOL    HW166565   4.477  13.542  13.279 -1.1335 -2.1294  1.3880
16191SOL    HW266566   4.328  13.570  13.287 -0.7806  1.7487 -2.0409
16192SOL     OW66567   9.462   7.758   6.613  0.1909  0.2125 -0.6430
16192SOL    HW166568   9.502   7.751   6.527 -0.1181  1.1363 -0.8731
16192SOL    HW266569   9.409   7.837   6.608 -0.4491 -0.1608  0.1476
16193SOL     OW66570  10.078   0.371   1.814  0.2080  0.4645 -0.1513
16193SOL    HW166571  10.148   0.415   1.860 -1.1604  2.5901  0.0450
16193SOL    HW266572  10.119   0.333   1.736  2.0144 -0.7707  1.3304
16194SOL     OW66573  13.578   3.509   7.423 -0.2961 -0.2596  0.7683
16194SOL    HW166574  13.659   3.520   7.473 -0.2296  0.6257  0.4770
16194SOL    HW266575  13.570   3.590   7.372 -0.8802 -0.7313  0.0960
16195SOL     OW66576   9.730   9.472   2.704 -0.1740 -0.2469  0.0238
16195SOL    HW166577   9.738   9.536   2.775  1.2244 -0.2836 -0.0750
16195SOL    HW266578   9.728   9.524   2.624 -0.0159 -0.2741  0.0008
16196SOL     OW66579   7.714   6.582   8.022 -0.0323 -0.4065  0.2607
16196SOL    HW166580   7.787   6.620   8.071 -0.4583 -0.1227  0.6965
16196SOL    HW266581   7.709   6.634   7.942  0.8153 -1.0219 -0.2025
16197SOL     OW66582   0.137   6.744   7.121 -0.2876 -0.0315 -0.3462
16197SOL    HW166583   0.143   6.819   7.062 -1.3573  0.5825  0.2796
16197SOL    HW266584   0.043   6.732   7.135 -0.0861 -0.7248  0.5234
16198SOL     OW66585   1.740   0.183  12.816  0.3355 -0.4706 -0.1062
16198SOL    HW166586   1.689   0.228  12.883  0.0173 -0.4145 -0.3865
16198SOL    HW266587   1.710   0.219  12.733  0.7421 -0.5272 -0.2828
16199SOL     OW66588   5.578   2.550  10.642 -0.7167 -0.0604  0.6121
16199SOL    HW166589   5.671   2.530  10.627 -0.5912 -0.4544  1.7864
16199SOL    HW266590   5.542   2.469  10.678 -1.3548  0.3181  0.8344
16200SOL     OW66591  10.868   4.557   4.734  0.2666  0.3264  0.1675
16200SOL    HW166592  10.963   4.567   4.725  0.0851  0.0249 -2.9642
16200SOL    HW266593  10.836   4.544   4.645 -2.7866  0.6938  1.0920
16201SOL     OW66594  12.215   0.734  12.244 -0.1357 -0.1769 -0.1033
16201SOL    HW166595  12.230   0.826  12.267 -2.0170 -0.4313  2.5900
16201SOL    HW266596  12.303   0.696  12.240  0.6191  1.4579  0.0545
16202SOL     OW66597  12.940   1.926   3.340  0.4762  0.4039 -0.2596
16202SOL    HW166598  13.013   1.944   3.280  0.3354  1.4465 -0.1422
16202SOL    HW266599  12.941   1.831   3.351  2.2307  0.4405  0.2538
16203SOL     OW66600  12.410   8.461   2.888  0.5424 -0.1045 -0.0261
16203SOL    HW166601  12.423   8.391   2.951 -0.8483  0.8857  1.4354
16203SOL    HW266602  12.336   8.431   2.834  1.3034 -0.6609 -0.7769
16204SOL     OW66603  11.483   9.400   9.160 -0.0736  0.3178  0.1043
16204SOL    HW166604  11.559   9.379   9.106  0.3468  1.1411  0.3586
16204SOL    HW266605  11.502   9.359   9.244  0.7771  1.7010  0.6225
16205SOL     OW66606   2.775   3.726  11.651  0.3017 -0.0387  0.1302
16205SOL    HW166607   2.753   3.819  11.662  0.8294  0.2131 -0.8982
16205SOL    HW266608   2.722   3.697  11.577 -0.5058 -0.8007  0.9629
16206SOL     OW66609   2.600  10.321   7.816  0.5866  0.0099  0.4204
16206SOL    HW166610   2.574  10.328   7.907  0.9718 -0.4546  0.5674
16206SOL    HW266611   2.674  10.382   7.807  0.3942  0.2362  0.3570
16207SOL     OW66612   8.466  10.170   7.030 -0.3727  0.0450  0.7706
16207SOL    HW166613   8.379  10.205   7.011  0.6527  1.2679 -2.2576
16207SOL    HW266614   8.463  10.080   6.998 -0.3981  0.2422  0.2050
16208SOL     OW66615   3.519  13.605   9.316 -0.0112 -0.2157 -0.1197
16208SOL    HW166616   3.504  13.559   9.234 -1.8679 -1.7147  0.9817
16208SOL    HW266617   3.433  13.610   9.357  0.6879  1.4588  1.2620
16209SOL     OW66618  12.727  13.284  12.316 -0.0861 -0.3036 -0.0163
16209SOL    HW166619  12.680  13.205  12.339  0.1107 -0.1021  1.1410
16209SOL    HW266620  12.708  13.345  12.387  1.3883  0.0001  0.1540
16210SOL     OW66621   4.093   4.906   3.765 -0.3081  0.0326  0.1955
16210SOL    HW166622   4.019   4.930   3.710 -0.6143 -0.3604  0.4312
16210SOL    HW266623   4.096   4.973   3.833 -0.0059  0.4473 -0.2231
16211SOL     OW66624  10.358   5.531   0.917  0.0284  0.1946  0.0391
16211SOL    HW166625  10.415   5.454   0.914 -1.1461 -0.7047 -0.4095
16211SOL    HW266626  10.346   5.555   0.825 -2.1120 -1.0728 -0.0888
16212SOL     OW66627   1.731   5.110   9.803 -0.1336 -0.5237 -0.1520
16212SOL    HW166628   1.767   5.183   9.752 -0.9092  0.0673  0.1178
16212SOL    HW266629   1.682   5.058   9.740  0.6523 -0.9785 -0.4000
16213SOL     OW66630  11.883   2.412   7.128 -0.2411 -0.2771  0.4137
16213SOL    HW166631  11.857   2.489   7.179  0.8234 -0.1738  0.8397
16213SOL    HW266632  11.952   2.371   7.181  1.2573  0.1106 -1.1559
16214SOL     OW66633   0.395   6.101   3.784 -0.0014  0.0487 -0.1233
16214SOL    HW166634   0.318   6.118   3.729  0.2672  0.2737 -0.4309
16214SOL    HW266635   0.469   6.107   3.724  0.5314  2.8457  0.6735
16215SOL     OW66636   6.392   9.203   0.096  0.3285  0.2763  0.2349
16215SOL    HW166637   6.463   9.231   0.153  0.2348  0.1286  0.4223
16215SOL    HW266638   6.313   9.242   0.134  0.1983 -0.2222  0.4859
16216SOL     OW66639   3.703   4.971  14.099  0.5247  0.2064  0.5553
16216SOL    HW166640   3.757   4.893  14.088 -0.8244 -0.8399  0.9854
16216SOL    HW266641   3.758   5.033  14.145  1.9389 -0.1310 -0.6055
16217SOL     OW66642  12.874  12.598   2.684  0.1631 -0.4708 -0.5249
16217SOL    HW166643  12.800  12.580   2.627 -2.0726 -0.4865  2.1546
16217SOL    HW266644  12.926  12.517   2.683 -0.9353 -1.1945 -0.9644
16218SOL     OW66645   7.745   6.001  14.109  0.0195  0.3972 -0.3379
16218SOL    HW166646   7.665   6.029  14.064 -0.1076  0.3003 -0.1712
16218SOL    HW266647   7.716   5.936  14.172 -0.4812  3.4318  2.9077
16219SOL     OW66648  14.115   0.030   8.569  0.0741  0.0998 -0.6384
16219SOL    HW166649  14.061   0.107   8.554 -0.6118 -0.1149  0.5372
16219SOL    HW266650  14.072  -0.040   8.521  1.2510  0.6148 -2.5330
16220SOL     OW66651  10.604  12.274   5.803  0.9146  0.1575 -0.4872
16220SOL    HW166652  10.577  12.263   5.712  2.0423  0.3897 -0.8676
16220SOL    HW266653  10.639  12.189   5.827  0.0840 -0.0774 -0.0668
16221SOL     OW66654   7.200   1.539   5.177 -0.2305 -0.5726 -0.1786
16221SOL    HW166655   7.227   1.620   5.221  0.5392 -0.0365 -1.5614
16221SOL    HW266656   7.109   1.553   5.153 -0.0109  0.0186 -0.6837
16222SOL     OW66657   6.727   8.869   4.827 -0.2231 -0.3471 -0.0145
16222SOL    HW166658   6.697   8.957   4.852 -1.9701 -0.5047 -1.3190
16222SOL    HW266659   6.734   8.821   4.909  3.2503  1.6298  1.0479
16223SOL     OW66660   1.876   1.019  13.844  0.3077 -0.0776 -0.0963
16223SOL    HW166661   1.968   1.044  13.843 -0.6215  4.3094  0.6133
16223SOL    HW266662   1.858   0.988  13.755  2.3626 -0.7640 -0.3134
16224SOL     OW66663  14.029   1.410   2.180 -0.2926  0.1734 -0.3940
16224SOL    HW166664  13.937   1.387   2.194 -0.2510  0.6901  0.9075
16224SOL    HW266665  14.063   1.427   2.268  0.0260  3.7497 -1.0401
16225SOL     OW66666   2.640   8.963   6.632  0.0351  0.2914 -0.0527
16225SOL    HW166667   2.612   9.045   6.589  0.0477 -0.9435 -2.6216
16225SOL    HW266668   2.712   8.990   6.689 -1.4588  2.3976  1.0107
16226SOL     OW66669   6.101   8.634   8.243  0.3682 -0.4777 -0.0956
16226SOL    HW166670   6.148   8.643   8.160 -0.8079 -1.4199 -0.8915
16226SOL    HW266671   6.060   8.719   8.256  2.5192  0.5151  0.8250
16227SOL     OW66672   6.346   9.660   8.419 -0.0193 -0.4886 -0.6448
16227SOL    HW166673   6.340   9.664   8.323  1.6582  0.1518 -0.7517
16227SOL    HW266674   6.440   9.664   8.437 -0.2948 -1.0950  1.0175
16228SOL     OW66675   2.145   1.645  13.939  0.7011  0.0989 -0.1647
16228SOL    HW166676   2.063   1.691  13.953  0.4094 -0.8774  1.6031
16228SOL    HW266677   2.119   1.560  13.903  1.0846  0.4761 -1.3758
16229SOL     OW66678   8.077   4.816   6.496 -0.0512  0.1283  0.4327
16229SOL    HW166679   8.101   4.885   6.558 -0.3546 -0.1253  0.8400
16229SOL    HW266680   8.032   4.862   6.426  0.1982  0.4071  0.4539
16230SOL     OW66681   1.399   9.338   8.686  0.1035 -0.0056  0.1065
16230SOL    HW166682   1.398   9.255   8.734 -0.6198  0.3672  0.7519
16230SOL    HW266683   1.471   9.388   8.725 -0.9112  0.5698  1.3127
16231SOL     OW66684  14.001  14.147   9.848  0.8626 -0.1801 -0.0002
16231SOL    HW166685  13.992  14.239   9.872 -0.7015 -0.6793  1.5693
16231SOL    HW266686  14.079  14.118   9.895  1.1560  0.2574 -0.2100
16232SOL     OW66687   7.184   0.565  11.203 -0.1101  0.5165  0.2486
16232SOL    HW166688   7.145   0.653  11.200  0.8882  0.9338 -1.1254
16232SOL    HW266689   7.217   0.549  11.115  1.1991 -0.5616  0.8829
16233SOL     OW66690   3.203  11.689  11.249  0.1106 -0.3248 -0.4152
16233SOL    HW166691   3.216  11.781  11.272 -1.1842 -0.3494  0.4892
16233SOL    HW266692   3.175  11.691  11.158  1.6859  0.0413 -0.9171
16234SOL     OW66693  14.097   0.720  13.869  0.6177 -0.1347 -0.6852
16234SOL    HW166694  14.028   0.661  13.899  0.7402  0.9362  2.0048
16234SOL    HW266695  14.062   0.759  13.789 -1.3284 -0.6272 -0.1355
16235SOL     OW66696   7.573   4.033   6.799  0.5045  0.4460  0.1704
16235SOL    HW166697   7.523   3.984   6.734 -0.2302  1.2061  0.1496
16235SOL    HW266698   7.515   4.038   6.875  0.9928  0.3718  0.5560
16236SOL     OW66699  10.144   9.505   6.194  0.7476 -0.5008 -0.0096
16236SOL    HW166700  10.165   9.486   6.102 -0.6618  1.4403 -0.7883
16236SOL    HW266701  10.211   9.569   6.221 -0.5374  1.1637 -0.6411
16237SOL     OW66702   3.209   4.159   9.961 -0.3352 -0.2239 -0.2962
16237SOL    HW166703   3.284   4.158  10.020  1.4436  0.5499 -2.4147
16237SOL    HW266704   3.133   4.166  10.020  1.4022  2.7804  1.8948
16238SOL     OW66705   6.565  11.182   3.857 -0.5641  0.2240  0.3344
16238SOL    HW166706   6.655  11.151   3.871  0.4966  3.3076  1.1478
16238SOL    HW266707   6.512  11.102   3.860  2.1235 -1.7369 -0.3168
16239SOL     OW66708   5.543  13.433   9.141 -0.4329 -0.0963  0.2331
16239SOL    HW166709   5.538  13.525   9.114  4.0945  0.8682  1.9073
16239SOL    HW266710   5.487  13.428   9.218 -1.1067  1.1265 -0.1443
16240SOL     OW66711   9.776   2.480   4.874  0.0790 -0.2135  0.9039
16240SOL    HW166712   9.698   2.430   4.852  0.6580 -0.9905  0.5889
16240SOL    HW266713   9.742   2.563   4.909 -0.8770 -0.3826  0.4068
16241SOL     OW66714  12.167   1.663   4.571 -0.0393 -0.1982  0.4707
16241SOL    HW166715  12.173   1.599   4.501  0.9411 -2.0242  2.1214
16241SOL    HW266716  12.081   1.647   4.610 -0.3200  0.3797  0.1003
16242SOL     OW66717   7.485   1.775  11.955  0.6221  0.1435 -0.3742
16242SOL    HW166718   7.554   1.787  11.890  0.4170  0.0503 -0.6153
16242SOL    HW266719   7.405   1.799  11.909  0.5801  1.0376  0.1539
16243SOL     OW66720   0.809   1.471   5.896  0.0113 -0.7033  0.1745
16243SOL    HW166721   0.832   1.379   5.900  0.4282 -0.5492  2.1718
16243SOL    HW266722   0.763   1.489   5.978 -1.3931  0.5405 -0.8242
16244SOL     OW66723   4.139   1.404   7.664 -0.1936 -0.3519 -0.2512
16244SOL    HW166724   4.086   1.392   7.585  0.9667  0.3136 -1.1723
16244SOL    HW266725   4.086   1.462   7.719  0.5502  2.4855 -2.2658
16245SOL     OW66726   4.482   4.258  11.378 -0.6658  0.1061  0.2956
16245SOL    HW166727   4.439   4.173  11.386  0.8728 -0.7813 -0.3527
16245SOL    HW266728   4.545   4.259  11.450 -2.2798  1.7595  1.7883
16246SOL     OW66729   0.376   7.890   4.574  0.4085 -0.2571  0.1290
16246SOL    HW166730   0.367   7.963   4.513  1.6690 -0.4645 -0.3335
16246SOL    HW266731   0.307   7.828   4.548 -0.8851  0.8742  0.7356
16247SOL     OW66732   3.225   3.893   8.643 -0.4954 -0.4604  0.7649
16247SOL    HW166733   3.149   3.922   8.592 -0.0182 -0.1428  0.2120
16247SOL    HW266734   3.196   3.812   8.685 -0.7783 -0.9718 -0.3670
16248SOL     OW66735   3.548   8.499  13.691 -0.1928 -0.1684  0.0456
16248SOL    HW166736   3.529   8.540  13.606 -0.7021  1.0176  0.7081
16248SOL    HW266737   3.640   8.472  13.684 -0.5586 -1.1422 -1.2892
16249SOL     OW66738   8.801  12.418   1.473  0.3728 -0.2532 -0.1204
16249SOL    HW166739   8.848  12.335   1.484  0.4875 -0.1381  0.3168
16249SOL    HW266740   8.709  12.395   1.484  0.2241 -0.6422 -1.9320
16250SOL     OW66741  13.370   9.279  11.825  0.5379  0.4689  0.3495
16250SOL    HW166742  13.325   9.204  11.786 -1.4741  1.3062  0.9380
16250SOL    HW266743  13.401   9.247  11.910  1.6645 -0.2901 -0.3174
16251SOL     OW66744   9.353  11.778   2.679 -0.8655 -0.1204 -0.1199
16251SOL    HW166745   9.290  11.708   2.698 -0.1085 -1.3901 -1.9096
16251SOL    HW266746   9.357  11.780   2.583  1.0011  0.6478 -0.0603
16252SOL     OW66747  12.108  11.267   5.665 -0.0000 -0.0913 -0.0633
16252SOL    HW166748  12.150  11.295   5.747 -0.2964  1.2174 -0.3245
16252SOL    HW266749  12.037  11.209   5.693 -0.8454  1.2573  0.7328
16253SOL     OW66750   5.497  10.347   4.655 -0.2966 -0.1752  0.6738
16253SOL    HW166751   5.408  10.317   4.673 -0.9698  1.0372 -0.4465
16253SOL    HW266752   5.539  10.272   4.612 -1.6732  0.0866 -1.3002
16254SOL     OW66753  13.123  14.042   5.211  0.0867  0.4799  0.8582
16254SOL    HW166754  13.121  13.978   5.140 -0.6366  2.3562 -0.9129
16254SOL    HW266755  13.042  14.025   5.260 -1.6187  1.7750 -1.3193
16255SOL     OW66756   2.112   3.137  13.577 -0.0793 -0.6702 -0.0584
16255SOL    HW166757   2.080   3.083  13.504 -0.1018  1.8696 -2.0764
16255SOL    HW266758   2.204   3.112  13.586 -0.1281 -1.1668 -0.7989
16256SOL     OW66759   9.010   8.960   6.894 -0.9648  0.2492 -0.0115
16256SOL    HW166760   8.929   9.011   6.895 -2.1212 -1.4042 -1.5479
16256SOL    HW266761   8.984   8.874   6.929  0.6638  0.3133  1.4865
16257SOL     OW66762   8.976  10.521   8.618 -1.0165 -0.0521  0.2614
16257SOL    HW166763   9.052  10.578   8.621 -1.3797  0.4254  0.5217
16257SOL    HW266764   8.965  10.492   8.708 -1.2584  0.0357  0.2606
16258SOL     OW66765   3.466   9.496   9.200 -0.1712  0.2486 -0.1979
16258SOL    HW166766   3.380   9.495   9.159 -1.1192 -2.1830  1.6049
16258SOL    HW266767   3.505   9.412   9.176  1.5571  1.1440 -0.6433
16259SOL     OW66768  12.082   1.799   8.307 -0.4977  0.2578 -0.2689
16259SOL    HW166769  12.071   1.894   8.312  1.3110  0.4885  0.1532
16259SOL    HW266770  12.037   1.765   8.384  0.0645  0.9270  0.3676
16260SOL     OW66771   4.983  11.446   3.963 -0.2455  0.4898  1.0162
16260SOL    HW166772   4.930  11.384   3.914  0.5788  0.3095  0.3400
16260SOL    HW266773   5.012  11.510   3.898  0.4110  0.5510  1.3533
16261SOL     OW66774   0.150   2.088   3.577 -0.6207  0.5842 -0.0727
16261SOL    HW166775   0.241   2.072   3.604 -1.1240 -0.9269  0.8431
16261SOL    HW266776   0.118   2.154   3.639 -0.8067 -0.5513  1.0789
16262SOL     OW66777   7.598   9.858  13.812 -0.5358 -0.4360  0.1921
16262SOL    HW166778   7.629   9.832  13.899  1.1725  0.1211 -0.2221
16262SOL    HW266779   7.655   9.931  13.787 -2.2047  0.6418 -0.6376
16263SOL     OW66780   0.976   5.875  10.478  0.0780  0.4678  0.2540
16263SOL    HW166781   1.010   5.876  10.567  0.1589 -1.3513  0.2800
16263SOL    HW266782   1.041   5.825  10.428 -0.6455  0.2684 -0.5248
16264SOL     OW66783   7.965  11.308  12.988  0.2008 -0.0253  0.1989
16264SOL    HW166784   7.990  11.324  12.897 -0.6557  1.3763  0.1876
16264SOL    HW266785   7.889  11.251  12.982 -0.1926  0.5122  0.0043
16265SOL     OW66786   5.813   1.204   3.013  0.2412  0.1169 -0.1921
16265SOL    HW166787   5.909   1.207   3.009  0.1724  0.8623 -1.8544
16265SOL    HW266788   5.792   1.231   3.103  1.5393  1.0079 -0.1352
16266SOL     OW66789   1.274   5.185  10.329  0.2626 -0.3827 -0.1520
16266SOL    HW166790   1.343   5.229  10.379 -0.9451  0.3449  0.9366
16266SOL    HW266791   1.278   5.094  10.358  1.9811 -0.7861 -1.5197
16267SOL     OW66792  12.532   5.778   7.273  0.1095  0.5409  0.4723
16267SOL    HW166793  12.557   5.834   7.200  1.4174 -1.0676 -0.3931
16267SOL    HW266794  12.451   5.816   7.306  1.1626  3.1525  0.2435
16268SOL     OW66795   1.269   4.420   0.608  0.6994 -0.3990 -0.1248
16268SOL    HW166796   1.333   4.449   0.544  0.6732 -1.3837 -0.6062
16268SOL    HW266797   1.275   4.484   0.679  1.3716  0.1779 -0.6974
16269SOL     OW66798   2.381  11.135   2.782  0.7782 -0.4314  0.2762
16269SOL    HW166799   2.324  11.198   2.738 -0.3842 -1.2688  0.5362
16269SOL    HW266800   2.322  11.066   2.812  1.9523 -1.3879  0.4661
16270SOL     OW66801   7.510   6.940   1.273 -0.2936  0.3470  0.6054
16270SOL    HW166802   7.589   6.986   1.242  0.4220 -0.7696  0.6973
16270SOL    HW266803   7.442   6.966   1.211  0.6483 -0.2822 -0.7603
16271SOL     OW66804   3.107   1.026  13.154  0.3420  0.2950 -0.1769
16271SOL    HW166805   3.092   0.996  13.244  2.4682 -2.4107 -0.5910
16271SOL    HW266806   3.059   0.963  13.099  1.2282  0.2900 -0.9740
16272SOL     OW66807   0.178   5.724   7.656 -0.4191  0.2234  0.3119
16272SOL    HW166808   0.184   5.819   7.666 -1.2186  0.4045 -0.6747
16272SOL    HW266809   0.228   5.688   7.729 -0.9317  1.4024  1.2809
16273SOL     OW66810   0.504   0.355  12.851 -0.2548 -0.0097 -0.0785
16273SOL    HW166811   0.441   0.323  12.916 -0.2690 -1.5111 -0.7966
16273SOL    HW266812   0.449   0.381  12.777 -0.1688  0.7738  0.1262
16274SOL     OW66813   5.136   5.016   4.286  0.0256 -0.1541 -0.7185
16274SOL    HW166814   5.216   5.036   4.335 -0.3617  1.7097 -0.7793
16274SOL    HW266815   5.075   4.984   4.352  0.7288 -1.4262 -0.6444
16275SOL     OW66816   6.085   8.904   8.397  0.7380  0.4312  0.3291
16275SOL    HW166817   6.034   8.882   8.475  2.1286 -1.5091  0.7859
16275SOL    HW266818   6.028   8.879   8.324 -0.2686  1.5366  0.7012
16276SOL     OW66819   8.680  12.280   8.404 -0.3136 -0.1012  0.0692
16276SOL    HW166820   8.598  12.246   8.368  0.7423 -1.0204 -1.6173
16276SOL    HW266821   8.672  12.375   8.393 -1.2753 -0.1462  0.2381
16277SOL     OW66822   9.689   3.074   1.925  0.5425  0.5235  0.3920
16277SOL    HW166823   9.744   3.152   1.913  0.0812  0.5951 -1.5110
16277SOL    HW266824   9.703   3.023   1.845  0.2873 -1.0184  1.3059
16278SOL     OW66825   6.557   5.613   9.826  0.5336 -0.5255 -0.0372
16278SOL    HW166826   6.578   5.570   9.909  0.8741  0.8517  0.6125
16278SOL    HW266827   6.642   5.639   9.790  0.2579  1.6056  0.7122
16279SOL     OW66828   3.813   1.159   9.708  0.0655 -0.1010 -0.0506
16279SOL    HW166829   3.860   1.187   9.786 -0.1396 -0.7494  0.3144
16279SOL    HW266830   3.806   1.064   9.717 -0.7700 -0.0848 -0.3973
16280SOL     OW66831  12.485   6.207   2.787  0.0097 -0.1368  0.1922
16280SOL    HW166832  12.550   6.228   2.853  0.5901 -1.7565  0.1854
16280SOL    HW266833  12.507   6.263   2.712  0.2765  0.6074  0.8213
16281SOL     OW66834   4.114   7.055  10.042 -0.7949  0.2010  0.5202
16281SOL    HW166835   4.096   6.967  10.076 -1.8380  0.7627  1.5202
16281SOL    HW266836   4.158   7.041   9.959 -0.6039 -1.2648  0.8477
16282SOL     OW66837   9.240  10.917   6.618 -0.2001  0.0437 -0.0290
16282SOL    HW166838   9.209  10.856   6.551  0.8224 -0.6768  0.1250
16282SOL    HW266839   9.333  10.929   6.598 -0.4839  1.9720 -0.3573
16283SOL     OW66840  13.427   4.018   0.823 -0.0908  0.5128  0.2077
16283SOL    HW166841  13.431   3.964   0.744  1.4002  1.0070 -0.0800
16283SOL    HW266842  13.340   4.002   0.858  0.1991 -1.9501  0.0188
16284SOL     OW66843   2.540   5.450   1.107  0.3084  0.4042  0.2202
16284SOL    HW166844   2.546   5.538   1.144 -2.3918  2.0751 -2.7923
16284SOL    HW266845   2.449   5.423   1.123  0.2691 -0.5627 -1.3918
16285SOL     OW66846   6.346   2.500  13.205  0.0461 -0.4033  0.4144
16285SOL    HW166847   6.309   2.441  13.139 -0.7743 -0.0447  0.5390
16285SOL    HW266848   6.393   2.566  13.155  1.6556 -1.5891  0.3001
16286SOL     OW66849  13.156  12.227   7.534 -0.2646  0.2770  0.0222
16286SOL    HW166850  13.063  12.241   7.514 -0.4384 -1.2362 -0.3813
16286SOL    HW266851  13.155  12.166   7.608  0.4223  0.6678  0.3692
16287SOL     OW66852   3.583   9.759  13.502  0.4076  0.3395 -0.2322
16287SOL    HW166853   3.516   9.726  13.563 -0.0087  1.8942  0.2116
16287SOL    HW266854   3.624   9.680  13.466  0.2537 -0.6441  1.6139
16288SOL     OW66855  12.179  12.103   3.735 -0.2784  0.1298 -0.3096
16288SOL    HW166856  12.267  12.070   3.752  0.1654  0.6370 -1.5152
16288SOL    HW266857  12.149  12.138   3.819 -0.0689 -1.6702  0.5698
16289SOL     OW66858  11.682   1.763   5.381 -0.0307 -0.8317 -0.0501
16289SOL    HW166859  11.635   1.767   5.297 -1.5850 -0.1271  0.8000
16289SOL    HW266860  11.621   1.717   5.440  0.6974 -0.6001  0.9031
16290SOL     OW66861   2.363  13.437   5.306 -0.5974 -0.3625  0.7980
16290SOL    HW166862   2.268  13.442   5.295 -0.5328 -0.0477  0.3472
16290SOL    HW266863   2.377  13.355   5.354 -1.0253 -0.9728 -0.0806
16291SOL     OW66864   3.240   4.237  13.900  0.5125 -0.2582  0.1607
16291SOL    HW166865   3.307   4.191  13.950  0.2555 -1.1378 -0.2638
16291SOL    HW266866   3.249   4.203  13.811 -1.1742 -1.2242  0.3131
16292SOL     OW66867   7.076  13.508   9.141 -0.1669 -0.2638 -0.2567
16292SOL    HW166868   7.061  13.423   9.183 -1.9365  0.6008  0.9526
16292SOL    HW266869   7.171  13.521   9.147 -0.0123 -1.5963  0.6080
16293SOL     OW66870   9.947  12.333   0.326 -0.6248 -0.5163  0.5557
16293SOL    HW166871  10.029  12.382   0.327 -0.1887 -1.2203  1.5468
16293SOL    HW266872   9.949  12.283   0.244 -0.6250  0.3621  0.0132
16294SOL     OW66873   5.838   4.179  12.499 -0.4301 -0.0776  0.5034
16294SOL    HW166874   5.882   4.127  12.566 -0.1358  0.6523  0.8919
16294SOL    HW266875   5.747   4.151  12.502 -0.1452 -1.0538  0.2266
16295SOL     OW66876   0.333   9.201   0.900  0.8191 -0.4402  0.5133
16295SOL    HW166877   0.323   9.251   0.981  2.1267  1.0543 -0.1819
16295SOL    HW266878   0.423   9.169   0.903  0.7534 -0.6966 -0.1693
16296SOL     OW66879   8.901   2.348  12.107 -0.5482  0.3351  0.4266
16296SOL    HW166880   8.912   2.357  12.202 -0.3774  0.3513  0.4041
16296SOL    HW266881   8.882   2.255  12.094 -0.6925  0.3558  0.4892
16297SOL     OW66882   6.558   5.057   6.087  0.4273 -0.2115  0.7855
16297SOL    HW166883   6.649   5.031   6.103  0.6103 -0.6029 -0.7493
16297SOL    HW266884   6.541   5.031   5.996 -1.1213  0.1460  0.9446
16298SOL     OW66885   8.868   5.682   5.486 -0.2064  0.5706  0.1703
16298SOL    HW166886   8.929   5.657   5.416  0.3512  1.5169  0.3000
16298SOL    HW266887   8.923   5.695   5.562 -0.8291 -0.5659  0.8419
16299SOL     OW66888   0.264   0.628  11.733  0.4630 -0.2201  0.2755
16299SOL    HW166889   0.235   0.668  11.652 -1.5348 -0.6514  0.7304
16299SOL    HW266890   0.268   0.700  11.796 -0.9027 -0.3356  0.5182
16300SOL     OW66891  13.778   0.700  10.537 -0.2358 -0.1105 -0.1116
16300SOL    HW166892  13.807   0.679  10.448 -1.9238  1.1886 -1.0167
16300SOL    HW266893  13.796   0.621  10.587  1.9222 -0.4435 -1.2860
16301SOL     OW66894   9.438   2.843   0.231  0.2684  0.1011  0.1320
16301SOL    HW166895   9.410   2.935   0.226  1.5579  0.4423 -1.7606
16301SOL    HW266896   9.534   2.848   0.234  0.4329 -1.1941 -1.7046
16302SOL     OW66897  10.512   5.838   8.504 -0.5698  0.1051  0.6370
16302SOL    HW166898  10.499   5.932   8.513 -0.9436 -0.0839  2.5111
16302SOL    HW266899  10.446   5.810   8.441 -0.7347  1.0201  0.3893
16303SOL     OW66900   2.679   0.937   5.129 -0.5277  0.6711 -0.1012
16303SOL    HW166901   2.702   1.017   5.082 -0.8697  1.2346  0.6724
16303SOL    HW266902   2.584   0.943   5.142 -0.9560 -0.9942 -2.0963
16304SOL     OW66903   6.670   0.037   5.903  0.0036 -0.5555  0.6784
16304SOL    HW166904   6.755   0.061   5.940 -0.4286  1.6895  0.3794
16304SOL    HW266905   6.638  -0.034   5.959  2.0174 -1.4217  0.8242
16305SOL     OW66906  11.323  13.710   7.193 -0.0855  0.3021 -0.0580
16305SOL    HW166907  11.395  13.773   7.191  1.1157 -1.0156 -0.5095
16305SOL    HW266908  11.264  13.738   7.123  0.9146  0.3935 -0.8852
16306SOL     OW66909  13.407   6.813   1.713 -0.5987 -0.6057  0.7195
16306SOL    HW166910  13.378   6.862   1.790 -1.7314 -0.3578  0.1524
16306SOL    HW266911  13.389   6.871   1.640 -1.7147 -1.7416  0.0539
16307SOL     OW66912   1.046  12.017   6.234  0.3482 -0.1024  0.3916
16307SOL    HW166913   1.054  12.101   6.279 -0.0359  0.4354 -0.5047
16307SOL    HW266914   0.969  12.028   6.178  2.1978  0.2117 -2.2908
16308SOL     OW66915   0.420  10.473   2.356 -0.4228  0.3141 -0.3636
16308SOL    HW166916   0.358  10.542   2.377 -1.4003 -0.6179 -0.1154
16308SOL    HW266917   0.439  10.485   2.263  2.6776  3.4610  0.4584
16309SOL     OW66918  10.453  13.241  10.948 -0.3999 -0.2999  0.3394
16309SOL    HW166919  10.526  13.200  10.995 -0.6667 -1.4803 -0.2255
16309SOL    HW266920  10.478  13.236  10.856 -0.8428 -0.0057  0.2020
16310SOL     OW66921   6.834   0.033  10.836  0.3125  0.0136  0.0732
16310SOL    HW166922   6.749  -0.008  10.822  0.9422 -1.3821  0.0772
16310SOL    HW266923   6.815   0.121  10.866 -1.1449  0.9913 -3.2596
16311SOL     OW66924  11.962   8.360   4.542  0.1996  0.0423 -0.8333
16311SOL    HW166925  12.041   8.378   4.592 -0.0569  1.0615 -0.7809
16311SOL    HW266926  11.890   8.376   4.603 -0.1022  0.8993 -1.4003
16312SOL     OW66927  13.044  10.361   5.537  0.1735  0.1958 -0.5477
16312SOL    HW166928  13.080  10.439   5.580  0.2702  0.7879 -1.6755
16312SOL    HW266929  13.082  10.288   5.585  1.8061  0.8277 -0.8226
16313SOL     OW66930   4.472   8.341  11.599 -0.1472  0.0075  0.3956
16313SOL    HW166931   4.495   8.364  11.509  0.6222 -0.0888  0.5682
16313SOL    HW266932   4.457   8.247  11.596 -1.4206  0.1962  0.0987
16314SOL     OW66933   8.010   5.761   7.516  0.5652 -0.7827  0.1422
16314SOL    HW166934   8.090   5.790   7.471 -0.1054 -1.3251 -1.4760
16314SOL    HW266935   7.940   5.779   7.454 -0.6167 -0.2129  1.5881
16315SOL     OW66936   0.005  13.635   1.903 -0.5892 -0.5970 -0.1389
16315SOL    HW166937   0.063  13.702   1.940  1.1317 -1.3448 -1.3728
16315SOL    HW266938  -0.029  13.589   1.980 -1.0238  1.0248  0.6854
16316SOL     OW66939  13.841   6.266  11.453 -0.4056 -0.6723 -0.5925
16316SOL    HW166940  13.902   6.337  11.436  0.2590 -1.3531 -1.1104
16316SOL    HW266941  13.758   6.295  11.413  0.1710 -0.6899 -1.8473
16317SOL     OW66942   6.397  11.212  12.665  0.4538 -0.0305 -0.5890
16317SOL    HW166943   6.373  11.140  12.606 -0.9008 -1.8898  1.9874
16317SOL    HW266944   6.488  11.194  12.690  0.0747 -1.0160  0.1594
16318SOL     OW66945  13.927   8.831   6.004 -0.0083 -0.5326 -0.1883
16318SOL    HW166946  13.896   8.830   5.913  1.1997 -0.5352 -0.6162
16318SOL    HW266947  14.014   8.870   5.999  0.3979 -1.2781  0.8593
16319SOL     OW66948   4.716   0.004   1.384  0.1382 -0.2547 -0.0170
16319SOL    HW166949   4.812   0.002   1.380  0.0946 -0.3532 -1.1733
16319SOL    HW266950   4.696  -0.020   1.474  1.1997 -0.2414  0.2411
16320SOL     OW66951   9.052  13.935   2.059 -0.2083  0.0733 -0.1955
16320SOL    HW166952   9.145  13.913   2.070 -0.1728  0.6822  0.8835
16320SOL    HW266953   9.006  13.867   2.109 -0.1675  1.4298  1.8301
16321SOL     OW66954   3.127   9.162   5.554  0.0380  0.5587 -0.4093
16321SOL    HW166955   3.102   9.071   5.536 -1.2201  0.9425 -0.6569
16321SOL    HW266956   3.127   9.168   5.649 -0.2897  0.4078 -0.3967
16322SOL     OW66957   1.729   7.652  10.287  0.9110 -0.2647  0.2136
16322SOL    HW166958   1.784   7.725  10.259  1.2181  0.2447  2.0527
16322SOL    HW266959   1.785   7.599  10.343 -0.4412  0.3058  2.1960
16323SOL     OW66960   8.603  14.148   1.922 -0.2686  0.3225  0.7528
16323SOL    HW166961   8.639  14.234   1.945  0.6524 -0.3441  1.9149
16323SOL    HW266962   8.680  14.091   1.914 -0.9181 -0.5764  0.7570
16324SOL     OW66963   2.442   4.833   1.124  0.2279  0.3768 -0.0204
16324SOL    HW166964   2.414   4.825   1.215 -1.1076  0.8518 -0.3675
16324SOL    HW266965   2.382   4.896   1.085  1.0708  0.5412 -1.1263
16325SOL     OW66966   4.600   5.979   2.208  0.3557 -0.7749 -0.0417
16325SOL    HW166967   4.562   5.921   2.141  0.7441 -3.1179  1.6139
16325SOL    HW266968   4.691   5.952   2.212  0.8939  0.9510 -0.1213
16326SOL     OW66969   4.564   5.231  10.386 -0.0976 -0.1741  0.2661
16326SOL    HW166970   4.581   5.146  10.426 -1.9135 -0.7423 -0.0732
16326SOL    HW266971   4.607   5.227  10.300  0.5835 -0.3901  0.6113
16327SOL     OW66972   8.440   3.727   9.373  0.4643 -0.1175  0.6753
16327SOL    HW166973   8.401   3.679   9.446  0.0347 -0.8794 -0.0442
16327SOL    HW266974   8.373   3.789   9.346 -0.3215 -1.4699 -0.6029
16328SOL     OW66975   0.937   0.827   9.291  0.4855 -0.1817 -0.6012
16328SOL    HW166976   0.971   0.908   9.251 -0.5426  0.3771 -0.3736
16328SOL    HW266977   0.885   0.786   9.222 -0.5847  0.3506 -0.1402
16329SOL     OW66978   1.578   4.257   8.980  1.0326  0.2697  0.0941
16329SOL    HW166979   1.654   4.202   8.997  0.4069 -0.6731 -0.0467
16329SOL    HW266980   1.506   4.195   8.967  0.0267  1.1286  1.1989
16330SOL     OW66981  13.764   0.597  12.202 -0.6034 -0.1186  0.2482
16330SOL    HW166982  13.768   0.514  12.251 -1.0431 -0.3740 -0.1389
16330SOL    HW266983  13.849   0.601  12.156 -0.3047 -0.0147  0.7987
16331SOL     OW66984   5.248   3.814   9.804 -0.0048 -0.0423 -0.0014
16331SOL    HW166985   5.223   3.786   9.892  0.3017 -0.3925 -0.0256
16331SOL    HW266986   5.332   3.771   9.788  0.7846  1.3704  0.1972
16332SOL     OW66987  12.210   8.279   8.982 -0.1657  0.0864  0.0057
16332SOL    HW166988  12.145   8.340   9.016 -0.4464 -0.9370  1.3816
16332SOL    HW266989  12.277   8.275   9.050 -0.4767 -1.6123  0.2521
16333SOL     OW66990   0.199   1.635   1.498  0.3439  0.6590 -0.2857
16333SOL    HW166991   0.238   1.548   1.507 -1.1382  0.1380  1.8275
16333SOL    HW266992   0.109   1.619   1.470 -0.1623  1.4245  0.7921
16334SOL     OW66993  10.446   1.587  11.842  0.1129 -0.4491  0.4487
16334SOL    HW166994  10.428   1.559  11.752 -0.9809  1.5501 -0.0007
16334SOL    HW266995  10.449   1.683  11.837 -3.3157 -0.0305  3.0827
16335SOL     OW66996   3.387  11.876  12.987 -0.2615  0.2266 -0.3021
16335SOL    HW166997   3.458  11.817  12.964  0.7411  1.4796 -0.5067
16335SOL    HW266998   3.323  11.866  12.916 -0.6665 -1.4301  0.2436
16336SOL     OW66999   5.609   8.485   5.996  0.2865 -0.4085  0.1161
16336SOL    HW167000   5.632   8.518   6.082  2.0069  0.7106 -0.7212
16336SOL    HW267001   5.517   8.512   5.984  0.6172  1.1523  0.8386
16337SOL     OW67002   5.759   3.232  10.246  0.5320 -0.0296 -0.2461
16337SOL    HW167003   5.836   3.176  10.236  0.7755  0.2566 -0.0018
16337SOL    HW267004   5.687   3.180  10.213  0.8624 -0.2240 -0.6729
16338SOL     OW67005  10.799  13.224   7.198 -0.1731  0.2577  0.6680
16338SOL    HW167006  10.761  13.171   7.127 -0.6347  2.0553 -0.4965
16338SOL    HW267007  10.724  13.245   7.254 -0.5143  1.8130 -0.3188
16339SOL     OW67008   0.400  12.503  12.382  0.1301  0.3794  0.5354
16339SOL    HW167009   0.330  12.478  12.443 -0.4335  1.1139  0.2076
16339SOL    HW267010   0.473  12.445  12.405 -0.4808 -0.2015  1.0847
16340SOL     OW67011  12.827   7.334   1.252 -0.0002 -0.0091 -0.2671
16340SOL    HW167012  12.878   7.407   1.218 -1.2546  1.6213  1.1829
16340SOL    HW267013  12.756   7.375   1.302  0.1047 -2.1859  1.8848
16341SOL     OW67014   1.653   5.625   9.401  0.0233 -0.3563 -0.0407
16341SOL    HW167015   1.662   5.589   9.489 -1.6501  1.5798  0.9845
16341SOL    HW267016   1.728   5.684   9.392 -0.9656  1.1028  0.9755
16342SOL     OW67017   8.229   4.787   2.817  0.1971 -0.2846  0.5658
16342SOL    HW167018   8.188   4.867   2.785 -0.5815 -1.1897 -0.7779
16342SOL    HW267019   8.322   4.810   2.828 -0.3648  1.4032  2.3489
16343SOL     OW67020  11.338   7.987  10.506 -0.1190 -0.0822  0.2909
16343SOL    HW167021  11.272   7.925  10.537  0.3660 -0.2258  1.0825
16343SOL    HW267022  11.308   8.072  10.538 -0.2481 -0.0567  0.1025
16344SOL     OW67023   3.128  11.724  12.325 -0.1121  0.5895  0.2023
16344SOL    HW167024   3.124  11.804  12.378  0.8581  0.7536  0.0527
16344SOL    HW267025   3.038  11.693  12.320 -0.6640  2.2190 -0.5547
16345SOL     OW67026   0.537  10.030   5.327 -0.2659 -0.2012 -0.9353
16345SOL    HW167027   0.601  10.088   5.285  0.6781  0.3999  1.1632
16345SOL    HW267028   0.529  10.065   5.416 -1.0961 -2.1863 -0.1784
16346SOL     OW67029   7.122   6.600   5.641 -0.3443  0.5667  0.3710
16346SOL    HW167030   7.040   6.593   5.688 -0.7734  2.4038 -0.0332
16346SOL    HW267031   7.190   6.590   5.708 -0.9036  0.4612  0.9275
16347SOL     OW67032  10.739   0.102  14.066 -0.0555  0.3172  0.2664
16347SOL    HW167033  10.663   0.060  14.107  1.4175 -0.4183  2.4703
16347SOL    HW267034  10.789   0.030  14.028  0.1847  0.6362 -0.0313
16348SOL     OW67035   2.374  12.021  14.087 -0.1608  0.2318  0.2098
16348SOL    HW167036   2.286  12.012  14.124 -0.5517  1.9004 -0.2428
16348SOL    HW267037   2.404  11.931  14.075 -2.2920 -0.4165 -0.7347
16349SOL     OW67038  13.662  11.845   3.328  0.4614  0.7432  0.7301
16349SOL    HW167039  13.679  11.905   3.255 -1.0713  0.5905  0.2241
16349SOL    HW267040  13.592  11.886   3.378  0.9089  0.4235  1.6354
16350SOL     OW67041  13.043   9.116  11.167  0.3091  0.1724  0.1943
16350SOL    HW167042  13.007   9.123  11.078 -0.6970  1.8635  0.6855
16350SOL    HW267043  13.017   9.029  11.197 -0.6184  0.1471 -0.6413
16351SOL     OW67044  12.113   3.033   4.947  0.1108  0.5502 -0.0680
16351SOL    HW167045  12.029   3.010   4.909 -1.0051 -0.5773  2.7746
16351SOL    HW267046  12.100   3.122   4.981  1.0413  1.4842 -2.0007
16352SOL     OW67047  14.009   8.767   2.607  0.5521  0.0956  0.2372
16352SOL    HW167048  13.980   8.781   2.698 -0.6169 -1.0038  0.0656
16352SOL    HW267049  14.040   8.677   2.605 -1.3025 -0.5757 -0.8683
16353SOL     OW67050   5.605   7.809   5.867  0.7032 -0.2341 -0.5562
16353SOL    HW167051   5.628   7.894   5.829  1.2338 -0.5537 -0.9624
16353SOL    HW267052   5.510   7.802   5.857  0.3565  1.1288  1.1751
16354SOL     OW67053  14.048   7.308   3.792 -0.0766  0.6100  0.6445
16354SOL    HW167054  14.144   7.307   3.800  0.1074 -1.6649 -0.9760
16354SOL    HW267055  14.032   7.300   3.698 -1.8365 -0.9834  1.0307
16355SOL     OW67056   7.533   9.588   6.834  0.3061  0.1748  0.4910
16355SOL    HW167057   7.491   9.634   6.762  0.8352  2.2932  1.4620
16355SOL    HW267058   7.623   9.575   6.806  0.3943  0.5787  0.5921
16356SOL     OW67059   1.696   9.403   7.458 -0.2511 -0.0936  0.1239
16356SOL    HW167060   1.748   9.448   7.524 -0.4067  0.5078 -0.1604
16356SOL    HW267061   1.722   9.311   7.465  1.6851  0.3341 -0.7755
16357SOL     OW67062   6.040   0.596   0.820  0.4348  0.0139 -0.5450
16357SOL    HW167063   6.113   0.535   0.815  0.4157  0.0159 -0.9051
16357SOL    HW267064   6.013   0.609   0.729 -0.5939 -0.6865 -0.3572
16358SOL     OW67065   7.115   6.344  10.465 -0.0672 -0.2157 -0.3561
16358SOL    HW167066   7.184   6.322  10.528 -0.1681  3.2536  1.2237
16358SOL    HW267067   7.038   6.298  10.497  0.6518 -1.0905  0.1474
16359SOL     OW67068  13.928   6.274   2.158  0.3040 -0.4876 -0.4150
16359SOL    HW167069  13.903   6.332   2.086  1.5062  0.5207 -0.0393
16359SOL    HW267070  14.016   6.245   2.136  1.6048  1.5477  1.6330
16360SOL     OW67071   3.101   1.915  10.055  0.3924 -0.2108  0.7087
16360SOL    HW167072   3.190   1.902  10.086  0.5027 -0.8966  0.1276
16360SOL    HW267073   3.064   1.827  10.048 -0.4473  0.0858  1.2783
16361SOL     OW67074   8.363   5.110   8.956 -0.0840 -0.1570  0.0069
16361SOL    HW167075   8.320   5.098   9.041 -0.2567  0.3068 -0.0117
16361SOL    HW267076   8.360   5.024   8.915  0.2646 -0.4557  0.5968
16362SOL     OW67077   7.655   9.042   9.481 -0.2488 -0.2201  0.2432
16362SOL    HW167078   7.616   9.088   9.406 -1.4473 -2.4290 -0.5892
16362SOL    HW267079   7.581   9.006   9.528  0.5829 -0.0273  1.7480
16363SOL     OW67080   3.395   6.203   9.990  0.2691  0.1658 -0.2799
16363SOL    HW167081   3.348   6.153  10.057 -0.7924 -1.0023 -1.8199
16363SOL    HW267082   3.342   6.281   9.976  0.5918  0.5050  0.3502
16364SOL     OW67083  11.641   5.818  12.677 -0.6734 -0.6681  0.0088
16364SOL    HW167084  11.628   5.876  12.752 -0.8494 -1.0385  0.2678
16364SOL    HW267085  11.558   5.822  12.630 -0.2156  0.3815 -0.7575
16365SOL     OW67086   4.820   4.245  13.028 -0.4034 -0.3914 -0.0656
16365SOL    HW167087   4.754   4.217  13.091 -0.6231  2.2116  0.9813
16365SOL    HW267088   4.769   4.285  12.957 -0.0151  0.4015  0.0969
16366SOL     OW67089   9.428   9.418   4.008  0.5238  0.3473 -0.1578
16366SOL    HW167090   9.345   9.390   3.969  1.3823 -1.2258 -0.9521
16366SOL    HW267091   9.431   9.375   4.094  0.6429  0.1526 -0.2579
16367SOL     OW67092  10.444   6.772   9.538  0.5039 -0.1066 -0.8997
16367SOL    HW167093  10.504   6.815   9.600  0.1350 -0.1348 -0.5172
16367SOL    HW267094  10.461   6.816   9.455 -0.6321  1.5943 -0.3044
16368SOL     OW67095   4.299   0.684  13.167 -0.1900 -0.3134 -0.1700
16368SOL    HW167096   4.311   0.760  13.110 -0.1078 -0.8469 -0.8759
16368SOL    HW267097   4.365   0.694  13.235 -0.4624  0.4689 -0.0072
16369SOL     OW67098  12.206   7.666  12.170  0.0248 -0.7758  0.2372
16369SOL    HW167099  12.179   7.747  12.212 -0.5963  0.0311 -1.6279
16369SOL    HW267100  12.285   7.689  12.120  0.1387 -1.4396  0.0917
16370SOL     OW67101   6.716   1.888  10.344 -0.1526  0.3789 -0.6724
16370SOL    HW167102   6.795   1.870  10.395  0.4656  0.9973 -1.4066
16370SOL    HW267103   6.708   1.814  10.285  1.8119  1.8689 -2.9694
16371SOL     OW67104  10.051   6.727  12.776  0.1769  0.1939  0.4320
16371SOL    HW167105  10.110   6.654  12.792 -0.7017 -1.0288 -1.5850
16371SOL    HW267106   9.964   6.690  12.783 -0.2884  1.0194 -0.6484
16372SOL     OW67107   6.989   7.500   3.949 -0.0157 -0.5460  0.2642
16372SOL    HW167108   6.897   7.525   3.937  0.1184 -0.5743 -0.9802
16372SOL    HW267109   7.034   7.583   3.967 -0.0909 -0.3471 -0.4430
16373SOL     OW67110  11.006   6.615   3.451 -0.3353  0.1598  0.3580
16373SOL    HW167111  10.982   6.528   3.484  1.0082 -0.3561  0.0550
16373SOL    HW267112  11.037   6.662   3.528 -0.4770  0.1500  0.4210
16374SOL     OW67113  11.012   2.270   5.717 -0.1098 -0.2049 -0.1379
16374SOL    HW167114  11.079   2.246   5.654 -0.5651  1.0110 -1.1239
16374SOL    HW267115  10.946   2.317   5.666 -1.5691 -1.0967  0.8531
16375SOL     OW67116  10.818   1.268  11.031  0.7818  0.2064 -0.1939
16375SOL    HW167117  10.729   1.294  11.052  0.3699  0.4213 -1.9923
16375SOL    HW267118  10.873   1.323  11.087 -0.1957  0.5085  0.4933
16376SOL     OW67119   7.713   6.157  11.473 -0.1154  0.1290  0.2687
16376SOL    HW167120   7.763   6.228  11.514 -0.1844 -0.5199  1.5332
16376SOL    HW267121   7.661   6.121  11.545 -0.3474 -0.9641 -0.4389
16377SOL     OW67122   1.973  12.753   6.381 -0.3724  0.0561 -0.0215
16377SOL    HW167123   2.016  12.782   6.461  1.4764 -0.7048 -0.6595
16377SOL    HW267124   1.946  12.833   6.337  1.4988  0.6687 -0.1293
16378SOL     OW67125   0.191  13.485  10.558  0.1894  0.3963  0.4237
16378SOL    HW167126   0.105  13.523  10.575 -0.0909  0.1390 -0.3305
16378SOL    HW267127   0.238  13.493  10.640 -0.1016  1.7206  0.4864
16379SOL     OW67128   1.373   7.692   1.940 -0.2144  0.0555  0.4494
16379SOL    HW167129   1.392   7.754   1.870 -0.5472  0.6704  0.8930
16379SOL    HW267130   1.289   7.721   1.975 -0.7934 -1.1481  0.1143
16380SOL     OW67131   4.660  13.435   5.736  0.0217  0.2660  0.4994
16380SOL    HW167132   4.581  13.488   5.751 -3.2824 -3.2412 -2.4685
16380SOL    HW267133   4.645  13.355   5.786  1.7798 -0.4856 -0.0991
16381SOL     OW67134   5.186   4.779   8.222  0.0371  0.2571 -0.3232
16381SOL    HW167135   5.262   4.733   8.260 -0.7223 -0.9108 -0.1634
16381SOL    HW267136   5.111   4.730   8.254 -0.7361  0.6671 -1.4627
16382SOL     OW67137  13.155  13.789   5.705 -0.5209  0.0251 -0.3357
16382SOL    HW167138  13.168  13.742   5.788 -0.7018  0.7029  0.0872
16382SOL    HW267139  13.232  13.768   5.653  0.2331  0.6316  0.5142
16383SOL     OW67140   9.384   1.931  10.369 -0.3388  0.3611  0.7925
16383SOL    HW167141   9.469   1.892  10.349 -0.1875  1.2492 -0.3991
16383SOL    HW267142   9.320   1.867  10.337 -0.1304 -0.2201  1.5135
16384SOL     OW67143   0.350   7.786   6.629  0.3246  0.2017 -0.4887
16384SOL    HW167144   0.378   7.875   6.610 -0.9986  0.3129 -2.1355
16384SOL    HW267145   0.254   7.791   6.633  0.2608 -1.0366  0.0223
16385SOL     OW67146  11.221   3.917  10.919 -0.2566  0.2452  0.1169
16385SOL    HW167147  11.204   3.833  10.876 -0.5418  0.6221 -0.5068
16385SOL    HW267148  11.173   3.910  11.002  1.1941 -0.9157  0.9118
16386SOL     OW67149  12.062   7.026   4.024 -0.1036 -0.5470 -0.1288
16386SOL    HW167150  12.130   6.985   3.970 -0.1621  0.5965 -1.1059
16386SOL    HW267151  12.075   7.120   4.011 -1.4350 -0.3051  0.2192
16387SOL     OW67152   1.945   0.705  11.459 -0.6112  0.0240  0.5405
16387SOL    HW167153   1.911   0.740  11.542  0.7629 -2.1249  2.1082
16387SOL    HW267154   1.968   0.615  11.479  1.1256 -0.1376 -1.8303
16388SOL     OW67155   0.277  12.407  10.280  0.1050 -0.0948 -0.0591
16388SOL    HW167156   0.303  12.338  10.219  3.2303  2.7689 -2.3576
16388SOL    HW267157   0.350  12.413  10.342 -0.8688  0.1778  1.1187
16389SOL     OW67158   8.280   6.101  10.777  0.1296 -0.4734  0.0539
16389SOL    HW167159   8.335   6.159  10.725  0.2393 -0.6766 -0.0565
16389SOL    HW267160   8.191   6.120  10.747  0.0550  0.4573  0.8277
16390SOL     OW67161   9.766   5.840   5.971  0.1993  0.0362 -0.4664
16390SOL    HW167162   9.697   5.773   5.970 -0.3485  0.5839 -1.6440
16390SOL    HW267163   9.755   5.886   5.887  3.2532 -1.1303 -1.6506
16391SOL     OW67164  11.294   5.757   4.363 -0.2202 -0.1535  0.0656
16391SOL    HW167165  11.328   5.842   4.335  0.8859  0.0412  1.8767
16391SOL    HW267166  11.199   5.765   4.354 -0.0484  0.5819 -1.5631
16392SOL     OW67167   8.164  12.720   0.911  0.1448 -0.2404 -0.5025
16392SOL    HW167168   8.215  12.735   0.832  1.6141 -0.9169  0.2837
16392SOL    HW267169   8.164  12.625   0.923 -1.5569 -0.2830 -0.6296
16393SOL     OW67170   1.586  11.951   5.815  0.2166 -0.1219  0.0763
16393SOL    HW167171   1.504  11.961   5.767 -0.5130 -2.7007  0.6068
16393SOL    HW267172   1.646  11.909   5.753  1.4582  2.4229 -0.5479
16394SOL     OW67173   5.926   9.184  11.743 -0.3463  0.1704 -0.1314
16394SOL    HW167174   6.000   9.244  11.753 -0.3900  0.2081 -0.0410
16394SOL    HW267175   5.873   9.223  11.673 -1.1135  0.9879  0.8648
16395SOL     OW67176   1.100   2.569  11.251  1.0216 -0.2376 -0.2453
16395SOL    HW167177   1.097   2.662  11.273 -0.6919 -0.4487  0.5714
16395SOL    HW267178   1.193   2.546  11.259  1.7806  1.7765 -2.3236
16396SOL     OW67179   8.105  11.079   5.999  0.4079 -0.0778  0.4458
16396SOL    HW167180   8.072  11.088   5.910 -1.1023  1.7261  1.1114
16396SOL    HW267181   8.084  10.990   6.025 -2.8935  0.5618  0.3471
16397SOL     OW67182   3.943   2.991   4.293  0.0687 -0.6534  0.2977
16397SOL    HW167183   3.893   3.035   4.362  1.1515 -0.6506  1.1133
16397SOL    HW267184   4.023   2.961   4.337  0.4917 -1.2143 -0.8194
16398SOL     OW67185   5.093   0.454   0.987 -0.4588 -0.1733  0.5030
16398SOL    HW167186   5.135   0.475   0.904 -0.9915  1.9639  0.7305
16398SOL    HW267187   5.040   0.376   0.969 -1.5734  0.9903 -1.5086
16399SOL     OW67188   0.623   4.350  13.801 -0.5163  0.4414 -0.0080
16399SOL    HW167189   0.594   4.371  13.889 -0.0249 -0.2832  0.3348
16399SOL    HW267190   0.615   4.255  13.795 -2.2964  0.6082 -1.3693
16400SOL     OW67191   7.768   9.513   2.282 -0.2631 -0.1818  0.1126
16400SOL    HW167192   7.814   9.581   2.233 -2.1720  0.1717 -1.3419
16400SOL    HW267193   7.833   9.444   2.295  2.0301  2.2141  2.5130
16401SOL     OW67194  13.323  12.420  10.942 -0.3351  0.6922  0.6392
16401SOL    HW167195  13.335  12.407  11.036  0.5970 -1.4649  0.2946
16401SOL    HW267196  13.411  12.439  10.909 -0.5974  1.0731  0.1556
16402SOL     OW67197   7.817   9.949   4.307  0.5262 -0.3781  0.5517
16402SOL    HW167198   7.892   9.976   4.254 -0.5532  1.5434 -0.0955
16402SOL    HW267199   7.831   9.991   4.392  0.1206  0.1256  0.3754
16403SOL     OW67200   8.011  10.213  13.177  0.0467  0.4549 -1.0507
16403SOL    HW167201   7.963  10.133  13.197  1.5232 -0.2539 -0.1339
16403SOL    HW267202   7.982  10.237  13.089 -0.2737 -1.2049 -1.4359
16404SOL     OW67203   3.262  12.295   6.763  0.5302 -0.7122  0.6430
16404SOL    HW167204   3.253  12.210   6.806  2.9138 -0.3675  2.0039
16404SOL    HW267205   3.207  12.354   6.814 -1.6857 -1.4705 -0.7157
16405SOL     OW67206   4.132   4.975   2.503  0.2599 -0.5542 -0.6075
16405SOL    HW167207   4.158   4.988   2.594  0.3998 -0.7158 -0.6240
16405SOL    HW267208   4.041   5.006   2.499 -0.0059 -1.2716 -0.2398
16406SOL     OW67209   4.547   7.322  11.621  0.2778 -0.7858  0.2566
16406SOL    HW167210   4.515   7.332  11.711 -0.8688 -0.5738 -0.1685
16406SOL    HW267211   4.473   7.345  11.566  0.5471 -2.2754 -0.7668
16407SOL     OW67212   7.650   0.605   0.291  0.4095 -0.3071 -0.0112
16407SOL    HW167213   7.618   0.586   0.379  0.9065 -0.3396  0.1699
16407SOL    HW267214   7.737   0.565   0.288  1.5515  1.9365  0.4116
16408SOL     OW67215  13.977   1.616   4.768 -0.2516 -0.8605  0.3227
16408SOL    HW167216  13.929   1.551   4.820 -1.2450 -0.3212  0.1079
16408SOL    HW267217  14.034   1.659   4.831 -1.5944 -0.0721  1.0419
16409SOL     OW67218  10.323  10.781   1.231 -0.1559  0.9303 -0.4350
16409SOL    HW167219  10.322  10.872   1.199 -2.2424  1.1765  0.1950
16409SOL    HW267220  10.416  10.763   1.248  0.5928  2.0774 -2.9044
16410SOL     OW67221   5.133   8.339  13.139  0.0803 -0.2806  0.3814
16410SOL    HW167222   5.190   8.268  13.108 -2.2516 -2.4903  0.8278
16410SOL    HW267223   5.188   8.388  13.200  1.8360 -1.6383  0.0016
16411SOL     OW67224  13.075   6.384   7.767  0.5165 -0.2591 -0.1418
16411SOL    HW167225  13.152   6.406   7.819  0.6058  0.2564 -0.4828
16411SOL    HW267226  13.006   6.441   7.801  0.4248 -0.3357 -0.1983
16412SOL     OW67227  13.680   6.098   4.689 -0.1774  0.7102 -0.6072
16412SOL    HW167228  13.767   6.109   4.650 -0.1801  0.1640 -0.7674
16412SOL    HW267229  13.683   6.012   4.729 -1.1768 -0.0155 -2.0133
16413SOL     OW67230   8.718   9.777   6.435 -0.0732 -0.2956  0.1209
16413SOL    HW167231   8.759   9.762   6.349  0.4571  1.7383 -0.0264
16413SOL    HW267232   8.642   9.831   6.416 -0.9023 -1.2025  0.7829
16414SOL     OW67233   2.289   2.376   9.791  0.5292 -0.2773 -0.2108
16414SOL    HW167234   2.265   2.465   9.764  0.8981  0.0112  0.3782
16414SOL    HW267235   2.235   2.360   9.869  1.2557 -0.1405  0.3285
16415SOL     OW67236   1.815   6.978   8.197  0.0631 -0.6215 -0.0135
16415SOL    HW167237   1.784   7.054   8.246  0.1870  1.0339 -2.3348
16415SOL    HW267238   1.907   6.997   8.178  0.0903 -1.3372 -0.6672
16416SOL     OW67239  12.454   7.078   8.677 -0.3133  0.0253 -0.4462
16416SOL    HW167240  12.436   7.128   8.597  0.2791  0.2374 -0.4457
16416SOL    HW267241  12.519   7.129   8.724 -1.2582  0.3244  0.5821
16417SOL     OW67242   9.500   0.893   8.976  0.0716 -0.2506 -0.5860
16417SOL    HW167243   9.501   0.825   9.044 -0.3237 -0.4549 -0.7818
16417SOL    HW267244   9.525   0.846   8.896  0.1945 -0.0797 -0.6483
16418SOL     OW67245  10.944   2.579  12.123  0.4190 -0.1015  0.0728
16418SOL    HW167246  10.915   2.607  12.036  0.7576 -2.0374 -0.7282
16418SOL    HW267247  11.037   2.602  12.126 -0.2679  2.9770  1.2940
16419SOL     OW67248   2.251  13.709   9.533  0.3514 -0.0643  0.4585
16419SOL    HW167249   2.224  13.787   9.581  0.2460  0.8124 -0.9762
16419SOL    HW267250   2.174  13.684   9.483  0.8169 -0.2575 -0.1687
16420SOL     OW67251  11.842   4.291   1.322  0.1061  0.5537 -0.5608
16420SOL    HW167252  11.864   4.198   1.311  1.5139  0.6487  1.0214
16420SOL    HW267253  11.747   4.295   1.313  0.0434 -1.0057 -0.8592
16421SOL     OW67254   9.508   1.424   9.390 -0.2244  0.2017  0.5362
16421SOL    HW167255   9.574   1.404   9.324 -1.8855  1.9666 -1.7952
16421SOL    HW267256   9.457   1.344   9.399 -0.9168  0.3659 -1.5321
16422SOL     OW67257  12.286   0.637  11.077  0.0260  0.2976  0.1561
16422SOL    HW167258  12.354   0.588  11.032 -0.0057  0.0281  0.4062
16422SOL    HW267259  12.262   0.583  11.152  0.6789  1.1397  0.9963
16423SOL     OW67260   2.776   2.081   0.176 -0.1483 -0.0305  0.0294
16423SOL    HW167261   2.758   2.144   0.246  0.1502  0.0977 -0.0122
16423SOL    HW267262   2.858   2.040   0.201  0.0252  0.1044 -0.3119
16424SOL     OW67263  13.230   1.590   1.134 -0.2935 -0.0030 -0.1725
16424SOL    HW167264  13.211   1.587   1.041 -0.5135 -1.0170 -0.1047
16424SOL    HW267265  13.321   1.619   1.139 -0.8364  1.9062 -0.6104
16425SOL     OW67266   8.059  10.088   0.043  0.6059 -0.3024  0.2351
16425SOL    HW167267   8.067  10.127   0.131  0.0977  1.5135 -0.4694
16425SOL    HW267268   8.147  10.094   0.006  0.8822 -1.3195  0.6928
16426SOL     OW67269   6.435   4.991   6.314  0.0121 -0.1931 -0.2922
16426SOL    HW167270   6.471   5.024   6.231 -0.4197 -0.5188 -0.6173
16426SOL    HW267271   6.367   5.053   6.337  0.7395  0.3976  0.2980
16427SOL     OW67272   4.408   0.592   0.678 -0.1761 -0.1338 -0.6842
16427SOL    HW167273   4.355   0.575   0.600 -0.5493  0.2067 -0.5142
16427SOL    HW267274   4.369   0.671   0.716  2.0108  1.6698 -1.9163
16428SOL     OW67275   5.437   2.615   1.098  0.2972  0.3714 -0.2646
16428SOL    HW167276   5.466   2.607   1.189 -1.1048 -0.2444  0.1605
16428SOL    HW267277   5.408   2.707   1.091  0.3820  0.4132 -0.0816
16429SOL     OW67278   9.927   7.852   7.939  0.5578 -0.2358  0.3438
16429SOL    HW167279  10.002   7.854   7.880  1.2128 -2.3184  1.0155
16429SOL    HW267280   9.851   7.846   7.882  1.0567 -0.4084 -0.3133
16430SOL     OW67281  11.755  11.820  11.668  0.4099  0.6563  0.4369
16430SOL    HW167282  11.791  11.769  11.741 -0.7389  0.7048  1.0701
16430SOL    HW267283  11.671  11.778  11.649  1.3529 -0.3260 -1.9370
16431SOL     OW67284  11.633  12.321   0.899  0.4930 -0.5772  0.3019
16431SOL    HW167285  11.552  12.276   0.875  0.3355 -0.5321  0.7220
16431SOL    HW267286  11.688  12.317   0.821 -0.3332  0.3267 -0.3610
16432SOL     OW67287   0.520  10.927   6.189 -0.3739  0.2088 -0.3391
16432SOL    HW167288   0.596  10.896   6.139  1.8416 -0.1066  2.8992
16432SOL    HW267289   0.531  10.887   6.275 -1.5843  3.9575  1.7364
16433SOL     OW67290  11.274   9.189   5.884 -0.5168  0.1413 -0.1671
16433SOL    HW167291  11.284   9.268   5.937  0.0754  1.9287 -2.7246
16433SOL    HW267292  11.182   9.189   5.858 -0.9150 -0.9762  1.1388
16434SOL     OW67293   0.855   8.676  13.742  0.8860  0.5286 -0.2464
16434SOL    HW167294   0.777   8.669  13.687 -0.1872 -1.5531  1.3802
16434SOL    HW267295   0.825   8.723  13.820  0.7799 -1.5150  1.0246
16435SOL     OW67296   0.902   2.264   6.930  0.4151  0.5669  0.0884
16435SOL    HW167297   0.889   2.263   6.835  0.0657 -0.0042  0.1370
16435SOL    HW267298   0.820   2.229   6.966  0.7558  0.2459  0.5690
16436SOL     OW67299   9.428   7.047  10.207  0.1536 -0.0611 -0.2655
16436SOL    HW167300   9.369   7.017  10.138  0.2222 -0.7581 -0.0265
16436SOL    HW267301   9.412   7.142  10.213  0.1144 -0.0070 -1.1950
16437SOL     OW67302  10.998   7.070   0.281  0.3974 -0.3547 -0.0345
16437SOL    HW167303  11.029   7.157   0.257  0.9780  0.0335  1.9987
16437SOL    HW267304  10.911   7.064   0.241 -0.1620  1.6316  0.7702
16438SOL     OW67305   8.016  11.149   2.567 -0.1168  0.7464  0.2393
16438SOL    HW167306   8.018  11.054   2.556  1.1126  0.7673  0.1651
16438SOL    HW267307   7.978  11.182   2.486 -0.4048  0.3335  0.2043
16439SOL     OW67308  13.770   4.453  12.868  0.4167 -0.4900 -0.1448
16439SOL    HW167309  13.722   4.512  12.811  0.4121 -0.6762 -0.3362
16439SOL    HW267310  13.703   4.411  12.922  0.5943  1.8560  2.1363
16440SOL     OW67311  10.866   2.311   6.572  0.0143  0.4371  0.0165
16440SOL    HW167312  10.951   2.340   6.539  0.7515 -2.2997 -0.7948
16440SOL    HW267313  10.814   2.297   6.493  0.3021 -1.9483  0.1899
16441SOL     OW67314   0.813   2.581   5.675 -0.2381 -0.0903  0.0228
16441SOL    HW167315   0.878   2.582   5.746  1.8334 -1.6274 -1.6973
16441SOL    HW267316   0.736   2.540   5.715 -0.0265  1.3071  2.0066
16442SOL     OW67317   1.496  11.671   6.739 -0.5851 -0.1672 -0.0016
16442SOL    HW167318   1.519  11.748   6.792  0.8907  0.1642 -1.0648
16442SOL    HW267319   1.581  11.636   6.710 -1.3034 -1.2567 -0.8486
16443SOL     OW67320   5.423   7.595  12.875  0.1253 -0.4516  0.2622
16443SOL    HW167321   5.351   7.557  12.826 -0.1591  0.3445  0.0432
16443SOL    HW267322   5.413   7.690  12.863  0.3870 -0.2707  1.3894
16444SOL     OW67323   4.084  11.546  12.256  0.2865 -0.3223  0.0017
16444SOL    HW167324   4.020  11.478  12.231  0.5197  0.5748 -3.5544
16444SOL    HW267325   4.168  11.500  12.259  0.5324 -0.2523 -2.9363
16445SOL     OW67326   2.881   1.500  14.001  0.4190  0.3126 -0.8830
16445SOL    HW167327   2.826   1.452  13.939 -1.4335  0.4196  0.6054
16445SOL    HW267328   2.927   1.431  14.049  1.4177  0.2168 -1.9172
16446SOL     OW67329  10.847   8.493  11.139  0.2036  0.0632  0.4574
16446SOL    HW167330  10.885   8.529  11.059  1.5670  1.0667  1.5024
16446SOL    HW267331  10.861   8.561  11.205 -2.0006 -0.2144  1.2984
16447SOL     OW67332   9.221  11.012  11.476  0.1187  0.4337 -0.7588
16447SOL    HW167333   9.258  11.013  11.564 -1.7588  3.6570  0.1457
16447SOL    HW267334   9.274  11.073  11.426  0.0731 -0.0221 -1.3779
16448SOL     OW67335  10.620   7.046   5.930  0.6197  0.1477  0.1303
16448SOL    HW167336  10.605   6.999   5.848 -0.0737  0.1539  0.2514
16448SOL    HW267337  10.585   6.988   5.998  1.9988 -0.2675  0.5229
16449SOL     OW67338   0.485  10.722   4.734  0.6148 -0.6921 -0.6346
16449SOL    HW167339   0.567  10.708   4.782  0.5352 -0.8471 -0.5428
16449SOL    HW267340   0.513  10.735   4.643  0.9118  1.2999 -0.3080
16450SOL     OW67341   7.157   7.727   7.181  0.6553  0.2676 -0.1821
16450SOL    HW167342   7.171   7.795   7.246 -0.5364  1.0735 -0.7314
16450SOL    HW267343   7.153   7.646   7.232  2.0948  0.5779  0.4787
16451SOL     OW67344   0.288   7.537   3.509  0.0464  0.7953 -0.6324
16451SOL    HW167345   0.273   7.472   3.440  0.7199  1.0662 -1.0488
16451SOL    HW267346   0.200   7.566   3.535 -0.6754 -3.4620  2.7547
16452SOL     OW67347   9.897   5.314   0.487 -0.3490  0.2768 -0.2345
16452SOL    HW167348   9.931   5.315   0.398 -0.4565  2.0906 -0.2926
16452SOL    HW267349   9.938   5.237   0.527 -1.8055 -1.7198 -2.3676
16453SOL     OW67350   3.904  12.036   4.323  0.2042 -0.1870  0.0453
16453SOL    HW167351   3.894  11.941   4.312 -0.0910 -0.0005 -1.5109
16453SOL    HW267352   3.824  12.073   4.286  1.1850  0.7576 -1.2010
16454SOL     OW67353   1.095   9.254   2.098  0.0393  0.1284  0.1848
16454SOL    HW167354   1.013   9.298   2.078  0.6992  1.3581  0.0453
16454SOL    HW267355   1.094   9.241   2.193 -0.5097 -0.2986  0.1243
16455SOL     OW67356   2.740   6.803   9.609  0.3616  0.1495  0.3242
16455SOL    HW167357   2.665   6.759   9.569  1.2567  0.3490 -1.6898
16455SOL    HW267358   2.746   6.887   9.563  0.5282  1.0873  1.9870
16456SOL     OW67359   3.519   3.573   1.209  0.0485  0.1494 -0.0453
16456SOL    HW167360   3.517   3.478   1.220  0.1039  0.0561 -0.8002
16456SOL    HW267361   3.565   3.587   1.126 -1.8552  0.7391 -1.0567
16457SOL     OW67362   5.498   9.022   9.656  0.3123 -0.5999  0.4342
16457SOL    HW167363   5.549   9.042   9.734 -0.7157 -0.1188  1.0075
16457SOL    HW267364   5.512   9.096   9.598  0.1577 -0.4027  0.6482
16458SOL     OW67365   5.302  11.306   9.273  0.1663 -0.4509  0.1221
16458SOL    HW167366   5.313  11.385   9.220 -0.5476 -0.3118  0.1785
16458SOL    HW267367   5.351  11.239   9.226 -1.5075 -0.6562 -1.4509
16459SOL     OW67368  14.149   9.700   8.420 -0.1522 -0.6232 -0.1973
16459SOL    HW167369  14.105   9.778   8.453 -1.6269 -1.8716  1.0088
16459SOL    HW267370  14.237   9.705   8.456 -0.0530  0.7146 -0.5747
16460SOL     OW67371   1.037  11.770  11.627  0.1660  0.0611  0.2719
16460SOL    HW167372   0.959  11.717  11.613  0.7757 -0.6097 -0.7021
16460SOL    HW267373   1.104  11.731  11.571  1.2583  0.5235  1.1982
16461SOL     OW67374   1.809   0.217   7.215 -0.4273  0.0500 -0.5068
16461SOL    HW167375   1.856   0.241   7.135 -1.2739 -0.2598 -1.1033
16461SOL    HW267376   1.875   0.170   7.267 -0.1038 -0.5211 -1.3974
16462SOL     OW67377   8.581  12.250   9.249 -0.1364 -0.0193 -0.1710
16462SOL    HW167378   8.648  12.285   9.191  0.6631 -0.4376  0.4783
16462SOL    HW267379   8.571  12.316   9.317 -1.1317  0.5093 -0.8018
16463SOL     OW67380   8.240   4.234   8.834 -0.3367 -0.5480 -0.5487
16463SOL    HW167381   8.227   4.321   8.798  0.1402 -0.0391  0.4562
16463SOL    HW267382   8.335   4.220   8.830 -0.2683 -0.4811  0.4537
16464SOL     OW67383   8.371   9.655   0.293  0.5212 -0.0407  0.2994
16464SOL    HW167384   8.391   9.591   0.361 -0.7786 -0.7057  0.0833
16464SOL    HW267385   8.337   9.604   0.220  0.9414  0.7593 -0.4819
16465SOL     OW67386   0.242  12.390   6.005  0.0775 -0.6461 -0.9124
16465SOL    HW167387   0.290  12.309   6.016  1.8141  0.2193 -1.7847
16465SOL    HW267388   0.167  12.367   5.950 -0.2489 -1.8931  0.0000
16466SOL     OW67389   8.338   8.206   9.883  0.5461 -0.4106  0.4854
16466SOL    HW167390   8.371   8.166   9.964 -0.2277  0.6032  1.3351
16466SOL    HW267391   8.257   8.158   9.864  1.6336 -1.8581 -0.7331
16467SOL     OW67392   0.170   2.150   2.848  0.4512 -0.4262  0.0097
16467SOL    HW167393   0.169   2.220   2.913  0.1991  0.0150 -0.4688
16467SOL    HW267394   0.114   2.181   2.777 -0.5207 -1.5576  0.2499
16468SOL     OW67395   7.771   5.544  13.721 -0.2555 -0.1979 -0.0852
16468SOL    HW167396   7.827   5.594  13.780 -1.2022  0.3800  0.3534
16468SOL    HW267397   7.823   5.468  13.696  0.7285  0.3499  0.2674
16469SOL     OW67398   3.043   3.022   8.648  0.2040 -0.0375 -0.1690
16469SOL    HW167399   3.109   3.046   8.713  1.5641 -1.7559 -0.8327
16469SOL    HW267400   2.962   3.017   8.698  0.9046  0.3236  1.0622
16470SOL     OW67401   6.367   2.422  10.345 -0.1518  0.7160  0.1288
16470SOL    HW167402   6.329   2.360  10.282 -2.0817  0.1247  1.7645
16470SOL    HW267403   6.426   2.369  10.398 -0.5885  0.6082  0.5139
16471SOL     OW67404   8.030   7.491   1.753  0.1125 -0.4284 -0.5518
16471SOL    HW167405   7.989   7.421   1.703  0.5165 -0.6376 -0.5927
16471SOL    HW267406   7.957   7.537   1.795 -0.3454  0.5126 -2.2992
16472SOL     OW67407   8.635  11.242   7.783  0.2489  0.0406 -0.3115
16472SOL    HW167408   8.645  11.296   7.861 -2.5247  0.2469 -0.0300
16472SOL    HW267409   8.698  11.170   7.796 -0.5834 -0.2969  2.4612
16473SOL     OW67410   8.212   3.170   8.515  0.1841 -0.3628 -0.4782
16473SOL    HW167411   8.239   3.262   8.514 -0.9537  0.0263  0.9567
16473SOL    HW267412   8.219   3.142   8.424  0.4100  1.1925 -0.9719
16474SOL     OW67413   0.374   8.990  10.734  0.2217  0.6865  0.0183
16474SOL    HW167414   0.292   9.039  10.748  0.5671  0.7144  2.3832
16474SOL    HW267415   0.425   9.046  10.676 -1.2076  0.9115 -1.0963
16475SOL     OW67416  10.391  12.269   1.974 -0.1925  0.5443 -0.2552
16475SOL    HW167417  10.447  12.344   1.997 -0.5055  1.0506 -1.0917
16475SOL    HW267418  10.354  12.293   1.889 -1.2918 -0.0090  0.0586
16476SOL     OW67419   6.547  10.306   9.959 -0.0390 -0.5806 -0.2302
16476SOL    HW167420   6.455  10.288   9.935 -0.5681 -0.1914  1.3910
16476SOL    HW267421   6.550  10.401   9.971  0.6920 -0.5459 -0.6598
16477SOL     OW67422   9.166   2.843   0.814  0.0355  0.1465  0.2169
16477SOL    HW167423   9.151   2.807   0.901  0.8318  1.0094  0.7251
16477SOL    HW267424   9.195   2.768   0.762 -0.1212 -0.3050  0.7721
16478SOL     OW67425   8.945   5.504   3.939  0.2046 -0.2280  0.5529
16478SOL    HW167426   9.039   5.513   3.925  0.5802 -1.4276  2.0027
16478SOL    HW267427   8.935   5.423   3.989 -1.3737  0.9228  2.2942
16479SOL     OW67428  10.096  10.065  12.423 -0.2016  0.3735 -0.4013
16479SOL    HW167429  10.136  10.018  12.496 -0.9646  1.5192  0.8120
16479SOL    HW267430  10.103  10.006  12.349  2.4215 -0.0310  0.0834
16480SOL     OW67431   9.897   4.393  12.239  0.4015 -0.2059  0.3623
16480SOL    HW167432   9.826   4.452  12.264  0.9454  1.1308 -1.1197
16480SOL    HW267433   9.921   4.350  12.321  0.0500  1.6969  1.5350
16481SOL     OW67434  11.398   6.193   4.021  0.5033 -0.1250  0.2266
16481SOL    HW167435  11.446   6.261   3.973 -0.8232  0.9962  0.4310
16481SOL    HW267436  11.419   6.112   3.974 -0.8459  0.9328 -2.3967
16482SOL     OW67437  11.275   0.974  11.987 -0.0343 -0.1787  0.1246
16482SOL    HW167438  11.359   1.019  11.997  0.9233 -1.6311 -1.0366
16482SOL    HW267439  11.237   0.974  12.075  1.9278 -0.9183  1.0173
16483SOL     OW67440  12.331   1.647   5.271  0.4664  0.3955  0.6210
16483SOL    HW167441  12.372   1.699   5.203  1.6090  1.1872  1.8785
16483SOL    HW267442  12.364   1.558   5.255  0.4397  0.4978 -0.0572
16484SOL     OW67443   1.263  10.104   9.550  0.0342  0.2689 -0.5103
16484SOL    HW167444   1.215  10.186   9.537  0.9562  0.6608 -1.7043
16484SOL    HW267445   1.355  10.127   9.533  0.1529 -1.2895 -2.3491
16485SOL     OW67446   5.920  11.175   5.250  0.4422 -0.2790  0.4388
16485SOL    HW167447   6.003  11.192   5.205 -0.5437  0.8524 -1.0625
16485SOL    HW267448   5.890  11.092   5.214  0.1860  0.0870 -0.2206
16486SOL     OW67449   1.565  13.607   4.705  0.0902 -0.1943 -0.7989
16486SOL    HW167450   1.517  13.689   4.690 -0.7519 -0.5169  0.0231
16486SOL    HW267451   1.650  13.635   4.738 -0.3966  0.3567  0.0315
16487SOL     OW67452   5.496  10.491  13.368  0.1112  0.1299  0.4186
16487SOL    HW167453   5.585  10.526  13.368  0.1086  0.2063 -1.2550
16487SOL    HW267454   5.503  10.408  13.416  1.4172 -0.6274 -1.0135
16488SOL     OW67455   7.703   8.690   3.609 -0.4810 -0.3781 -0.2624
16488SOL    HW167456   7.671   8.711   3.521  0.9909  1.3743 -0.4366
16488SOL    HW267457   7.623   8.677   3.661 -1.4149  0.2948 -1.4626
16489SOL     OW67458   1.299   8.649   2.339  0.4143  0.4582 -0.1207
16489SOL    HW167459   1.234   8.696   2.390 -1.0694 -0.3888 -1.1529
16489SOL    HW267460   1.345   8.718   2.290 -1.1059  0.9422 -0.9242
16490SOL     OW67461   8.360  12.427   2.378  0.4571 -0.5085  0.4563
16490SOL    HW167462   8.415  12.359   2.416  0.9762 -1.1191 -1.2583
16490SOL    HW267463   8.419  12.500   2.359 -0.3471  1.1249  3.6463
16491SOL     OW67464   8.669   0.018   5.763  0.0776 -0.2199 -0.2952
16491SOL    HW167465   8.746   0.059   5.803  0.3464  0.7578 -1.7340
16491SOL    HW267466   8.704  -0.034   5.691 -0.4168 -1.8071  0.5706
16492SOL     OW67467   0.728   4.623   7.836 -0.7813 -0.2667  0.2466
16492SOL    HW167468   0.791   4.695   7.838 -0.0180 -0.9020 -0.1316
16492SOL    HW267469   0.741   4.578   7.920 -0.4114 -0.6558 -0.0152
16493SOL     OW67470  13.813   8.123   2.529  0.1593  0.4085 -0.1925
16493SOL    HW167471  13.722   8.124   2.501  0.5061 -1.1726 -1.5454
16493SOL    HW267472  13.829   8.032   2.556  0.9952  0.9518  1.2978
16494SOL     OW67473   9.120   7.379   4.736 -0.6226 -0.0653 -0.3839
16494SOL    HW167474   9.195   7.362   4.793 -0.9192 -2.0182 -0.5101
16494SOL    HW267475   9.144   7.457   4.686  0.9848 -0.1977  0.1458
16495SOL     OW67476  13.848  13.971   4.915 -0.2708  0.2608  0.0540
16495SOL    HW167477  13.866  14.056   4.874  0.9751  1.7097  3.3034
16495SOL    HW267478  13.897  13.909   4.861 -0.3564  1.6932 -1.7957
16496SOL     OW67479  12.903  13.031  11.261 -0.2931 -0.7682 -0.3453
16496SOL    HW167480  12.915  13.088  11.337 -1.5261 -3.3018  1.9289
16496SOL    HW267481  12.992  13.011  11.233  0.1816  0.9761 -0.2286
16497SOL     OW67482   0.778   7.440  14.085 -0.1418  0.6215 -0.0653
16497SOL    HW167483   0.844   7.403  14.026  0.4841  2.7565 -0.7944
16497SOL    HW267484   0.746   7.517  14.038  1.3417  3.2335  2.9149
16498SOL     OW67485   1.382  11.275   8.873  0.1649  0.2888  0.3373
16498SOL    HW167486   1.371  11.218   8.797  0.5179  0.8412 -0.1414
16498SOL    HW267487   1.295  11.313   8.886  0.3680  1.1406 -0.5846
16499SOL     OW67488  11.775  10.589   2.368  0.1810 -0.8040  0.2776
16499SOL    HW167489  11.683  10.584   2.394 -0.0283 -2.1008 -0.6079
16499SOL    HW267490  11.823  10.583   2.451 -0.5165  0.4129  0.7920
16500SOL     OW67491   5.609   2.168  11.575  0.8270 -0.1611 -0.6928
16500SOL    HW167492   5.584   2.207  11.659 -0.4286 -1.2071 -0.5400
16500SOL    HW267493   5.607   2.241  11.513 -1.0138  0.1603 -0.3324
16501SOL     OW67494   9.612  12.013   5.627  0.2745  0.4458  1.0283
16501SOL    HW167495   9.687  12.006   5.685  0.3887  1.6584  1.0662
16501SOL    HW267496   9.570  11.927   5.630  0.7550  0.2432  2.2398
16502SOL     OW67497   5.297   3.896   4.346  0.2926 -0.1865  0.3112
16502SOL    HW167498   5.224   3.950   4.376  1.1380  0.9398  0.3886
16502SOL    HW267499   5.279   3.809   4.384 -0.9298  0.0930  0.4202
16503SOL     OW67500   4.721   1.085   7.374 -0.4213 -0.1041  0.5828
16503SOL    HW167501   4.734   1.049   7.286  0.4815 -2.4655  1.5957
16503SOL    HW267502   4.732   1.179   7.363 -0.6594 -0.2854 -1.8683
16504SOL     OW67503   5.085   2.116   9.365  0.1612  0.7929 -0.0797
16504SOL    HW167504   5.019   2.175   9.329  0.4512  0.6171 -0.9205
16504SOL    HW267505   5.150   2.107   9.295  0.0048 -0.7022 -0.0699
16505SOL     OW67506   9.469  13.389  13.221  0.7682  0.2357 -0.3406
16505SOL    HW167507   9.509  13.425  13.142  0.9607  0.4486 -0.1472
16505SOL    HW267508   9.516  13.432  13.294  0.7398 -0.1165 -0.1123
16506SOL     OW67509   4.768   6.687  10.124 -0.2663 -0.2787 -0.1506
16506SOL    HW167510   4.751   6.719  10.213  3.0203 -0.7704  0.7845
16506SOL    HW267511   4.751   6.763  10.068  1.2998  1.3052  1.3628
16507SOL     OW67512   1.308   3.634   2.506  0.2978 -0.2686 -0.0698
16507SOL    HW167513   1.364   3.562   2.477 -0.5456 -1.1753  0.4711
16507SOL    HW267514   1.219   3.599   2.500 -0.1702  0.8868 -0.2099
16508SOL     OW67515   4.409   3.241   0.904  0.2394 -0.1437 -0.3711
16508SOL    HW167516   4.321   3.207   0.923 -0.0059  0.3919 -0.5571
16508SOL    HW267517   4.464   3.162   0.899 -0.3920 -0.5432 -1.1391
16509SOL     OW67518  10.476   3.432  10.659  0.2101  0.2075 -0.0646
16509SOL    HW167519  10.553   3.387  10.693 -0.2422  0.1730  0.9498
16509SOL    HW267520  10.407   3.412  10.722 -0.8521 -0.4333 -1.3724
16510SOL     OW67521  10.910  10.859  10.091 -0.3443 -0.1678 -0.0726
16510SOL    HW167522  10.871  10.774  10.069  0.0689 -0.9061  1.8148
16510SOL    HW267523  10.842  10.903  10.142 -0.2337  0.2961 -0.3229
16511SOL     OW67524  10.955  11.782   9.759  0.0567  0.3672 -0.0627
16511SOL    HW167525  10.885  11.727   9.794 -2.0068  3.2459  0.7486
16511SOL    HW267526  11.025  11.776   9.823 -0.2269 -0.9935  0.1599
16512SOL     OW67527  12.895   7.705   6.403 -0.4217  0.2127  0.1280
16512SOL    HW167528  12.870   7.780   6.457  0.8386  0.4616  0.4035
16512SOL    HW267529  12.937   7.744   6.326 -0.3298 -0.1933 -0.0295
16513SOL     OW67530  11.380   9.488   5.871 -0.1510 -0.2515  0.2632
16513SOL    HW167531  11.305   9.517   5.820  1.1026 -1.0611 -2.1657
16513SOL    HW267532  11.343   9.466   5.957 -2.7513 -1.0395 -0.9684
16514SOL     OW67533   9.116   0.888   0.120  0.0611 -0.5435 -0.2661
16514SOL    HW167534   9.111   0.821   0.052  0.9555  0.9723 -1.9079
16514SOL    HW267535   9.026   0.905   0.145 -0.2051 -1.9659 -0.1995
16515SOL     OW67536   1.007  12.826  11.876 -0.6725  0.2646  0.6558
16515SOL    HW167537   1.068  12.780  11.818 -1.2135  0.3570 -0.0002
16515SOL    HW267538   1.062  12.887  11.925 -0.0409 -0.6187  1.0740
16516SOL     OW67539   6.550   1.673  10.586  0.5216 -0.5729  0.6386
16516SOL    HW167540   6.635   1.717  10.592  1.2344 -1.8287  0.1803
16516SOL    HW267541   6.564   1.603  10.522 -1.8366  1.3474 -2.2215
16517SOL     OW67542   8.536   7.220   1.089 -0.1813  0.3018  0.1792
16517SOL    HW167543   8.575   7.132   1.096 -1.3267 -0.3256 -0.8380
16517SOL    HW267544   8.494   7.235   1.173 -0.8921 -0.6107  0.0062
16518SOL     OW67545   7.886  10.941   7.479  0.4475 -0.1181 -0.6493
16518SOL    HW167546   7.920  10.866   7.528 -0.7978 -0.4680 -0.2801
16518SOL    HW267547   7.873  11.009   7.545 -0.2881 -0.2534 -0.6450
16519SOL     OW67548   2.630   0.071   9.202 -0.1490  0.1002  0.1115
16519SOL    HW167549   2.570   0.060   9.129 -0.4097 -0.5556  0.4239
16519SOL    HW267550   2.585   0.032   9.277  0.1117  0.7700  0.6287
16520SOL     OW67551   5.084   3.567  13.643 -0.0651  0.4899 -0.7092
16520SOL    HW167552   5.076   3.619  13.562 -1.2908  1.5411  0.0524
16520SOL    HW267553   5.056   3.626  13.712  3.0118  0.3259  0.8109
16521SOL     OW67554   7.904   8.410   5.470  0.0510 -0.1292 -0.0399
16521SOL    HW167555   7.942   8.460   5.542 -0.8234  0.2740  0.1537
16521SOL    HW267556   7.913   8.467   5.394 -1.3642  0.5457  0.2709
16522SOL     OW67557  13.397  11.610   3.776  0.4093 -0.6527  0.9372
16522SOL    HW167558  13.438  11.653   3.700  2.3077 -1.1014  1.6381
16522SOL    HW267559  13.413  11.671   3.848  2.0390 -1.8884  1.6970
16523SOL     OW67560   9.696  11.495  13.785 -0.3974 -0.8005 -0.1833
16523SOL    HW167561   9.648  11.574  13.811 -0.2940 -0.8722  0.2384
16523SOL    HW267562   9.728  11.514  13.697 -0.4855 -0.4241 -0.1365
16524SOL     OW67563   8.352  13.972   5.766  0.0187  0.2117  0.4066
16524SOL    HW167564   8.349  13.975   5.861 -2.8493 -1.0754  0.4570
16524SOL    HW267565   8.284  14.032   5.737  1.1306  0.9198 -0.9044
16525SOL     OW67566   1.125  11.861   5.140  0.4039 -0.0308  0.2363
16525SOL    HW167567   1.056  11.852   5.206 -1.3571  1.6642 -1.2785
16525SOL    HW267568   1.106  11.792   5.076  1.1731 -0.6612  0.6673
16526SOL     OW67569  13.854   2.720   0.238  0.5587  0.0125 -0.1506
16526SOL    HW167570  13.758   2.718   0.241  0.5523  0.9291  1.4268
16526SOL    HW267571  13.881   2.688   0.325  1.5993  2.3697  0.4568
16527SOL     OW67572   9.519   9.125  13.434  0.3271 -0.4041 -0.3538
16527SOL    HW167573   9.590   9.062  13.421  1.5393  1.3669 -3.0422
16527SOL    HW267574   9.555   9.188  13.497  0.3676 -0.6188 -0.1600
16528SOL     OW67575   9.445  13.696   4.309 -0.0376 -0.0779 -0.4590
16528SOL    HW167576   9.524  13.668   4.355  0.6303  1.2237 -0.7879
16528SOL    HW267577   9.425  13.624   4.249 -0.4104 -1.4115  1.1692
16529SOL     OW67578  10.898   9.140  10.545  0.2493 -0.4440  0.3990
16529SOL    HW167579  10.975   9.139  10.602  0.1066  1.7766  0.7295
16529SOL    HW267580  10.913   9.214  10.485 -1.8862  0.4809  0.9030
16530SOL     OW67581   2.633   7.831   1.829 -0.1450  0.2775 -0.4969
16530SOL    HW167582   2.720   7.862   1.802  0.7728  0.2652  2.1508
16530SOL    HW267583   2.650   7.745   1.867 -1.5172 -0.2102 -0.9411
16531SOL     OW67584   3.225   9.929   2.161  0.8394 -0.0695  0.3683
16531SOL    HW167585   3.279   9.994   2.116  1.7835 -0.5230  0.8209
16531SOL    HW267586   3.136   9.964   2.155  1.0684  0.3700 -0.9704
16532SOL     OW67587   0.066   7.643   8.542  0.1002 -0.0642  0.1955
16532SOL    HW167588   0.111   7.561   8.562 -0.0736  0.3121  2.4009
16532SOL    HW267589   0.136   7.707   8.530  0.2665 -0.6329 -2.3396
16533SOL     OW67590  13.228   5.660   6.307 -0.2434 -0.0808  0.1269
16533SOL    HW167591  13.170   5.726   6.269  0.7759  0.6089 -0.2589
16533SOL    HW267592  13.236   5.684   6.399 -0.6689 -0.2536  0.2102
16534SOL     OW67593  12.885   2.826   8.122  0.3439  0.2975  0.1784
16534SOL    HW167594  12.902   2.826   8.028  1.8230 -2.5586  0.3511
16534SOL    HW267595  12.811   2.767   8.133  0.0562  0.7652  0.8061
16535SOL     OW67596   3.243   0.767   8.170  0.4124  0.3616 -0.4622
16535SOL    HW167597   3.248   0.677   8.136  0.1601  0.4883 -0.8276
16535SOL    HW267598   3.335   0.795   8.175  0.7509 -0.8100  2.0677
16536SOL     OW67599   1.236   0.952   2.810  0.8878 -0.2837 -0.4598
16536SOL    HW167600   1.208   0.895   2.881 -0.4996  1.8625  0.8432
16536SOL    HW267601   1.256   0.893   2.738  0.5148 -2.4297  1.1047
16537SOL     OW67602  13.548  12.399  12.437 -0.1192 -0.0811 -0.3425
16537SOL    HW167603  13.605  12.424  12.364  0.9377  0.5415  0.6635
16537SOL    HW267604  13.462  12.434  12.414  0.5356  1.4262 -0.6076
16538SOL     OW67605   1.768   2.121  13.930  0.4132 -0.5035 -0.0452
16538SOL    HW167606   1.792   2.030  13.908 -1.6273 -1.3033  0.7798
16538SOL    HW267607   1.824   2.143  14.005  1.6824 -0.6499 -0.9054
16539SOL     OW67608   1.187  10.218   3.461 -0.0310 -0.0212 -0.0113
16539SOL    HW167609   1.174  10.309   3.434 -1.0524  1.2918  4.1777
16539SOL    HW267610   1.115  10.171   3.421 -0.5404  1.3751 -0.8173
16540SOL     OW67611   7.451  11.231   7.932  0.1450 -0.1559 -0.3437
16540SOL    HW167612   7.467  11.325   7.940 -1.6679  0.2069 -0.5014
16540SOL    HW267613   7.509  11.191   7.997 -0.4241  1.2389  1.0952
16541SOL     OW67614   3.624   4.153  13.041  0.1409 -0.0142 -0.3808
16541SOL    HW167615   3.642   4.242  13.013 -1.6463  0.3462 -0.4841
16541SOL    HW267616   3.535   4.136  13.012  0.3117 -1.7064 -0.0156
16542SOL     OW67617  13.846   1.006  12.532 -0.2575 -0.5566  0.6123
16542SOL    HW167618  13.759   0.967  12.521 -0.1514 -0.8300  0.7259
16542SOL    HW267619  13.866   1.045  12.448 -1.0895  0.7467  0.9917
16543SOL     OW67620   6.546  13.512   7.062  0.2449  0.0739  0.3119
16543SOL    HW167621   6.604  13.481   6.992 -0.0252 -0.2216  0.2157
16543SOL    HW267622   6.577  13.468   7.141 -0.1938 -0.5258  0.1589
16544SOL     OW67623   8.673  12.853  10.683  0.4849 -0.1694 -0.1177
16544SOL    HW167624   8.606  12.790  10.656  2.2648 -1.8958 -0.7758
16544SOL    HW267625   8.752  12.825  10.637  1.5147  2.2477  0.0231
16545SOL     OW67626   1.060   1.804  13.425  0.6381 -0.0067  0.2359
16545SOL    HW167627   1.038   1.711  13.427  1.7560 -0.2798  1.2929
16545SOL    HW267628   1.126   1.811  13.355 -1.1132  0.4360 -1.4510
16546SOL     OW67629   0.452   7.064   8.725 -0.1207 -0.3296 -0.1747
16546SOL    HW167630   0.481   7.151   8.698 -1.1104  0.0450 -0.0758
16546SOL    HW267631   0.526   7.028   8.774  0.1716  0.5968  0.0936
16547SOL     OW67632   6.630   8.190   3.647 -0.9352  0.1456  0.9838
16547SOL    HW167633   6.613   8.236   3.565 -0.8147  0.9659  1.4100
16547SOL    HW267634   6.716   8.222   3.675 -0.7023 -0.5836  1.1287
16548SOL     OW67635  13.833   5.116   0.437 -0.3201 -0.4901 -0.0002
16548SOL    HW167636  13.830   5.173   0.360 -0.3379  0.3557  0.6125
16548SOL    HW267637  13.743   5.085   0.447 -0.5831  0.3493  0.3597
16549SOL     OW67638   0.352  11.172   4.806  0.4606 -0.0823 -0.6012
16549SOL    HW167639   0.405  11.237   4.759 -0.9059  0.6922 -1.1065
16549SOL    HW267640   0.366  11.193   4.898 -0.2469  1.1896 -0.7575
16550SOL     OW67641   3.594  10.510  12.773  0.1512  0.1926 -0.3679
16550SOL    HW167642   3.582  10.419  12.800 -0.9217  0.1251 -0.9906
16550SOL    HW267643   3.638  10.552  12.846 -0.7594 -0.4685  0.5893
16551SOL     OW67644   3.086   1.187   1.397 -0.1487 -0.3565  0.8389
16551SOL    HW167645   3.110   1.163   1.308  0.1807 -1.6140  1.2407
16551SOL    HW267646   3.155   1.248   1.424 -0.8670  0.9235 -0.1272
16552SOL     OW67647   4.634   6.464   1.966  0.2893  1.0987 -0.6792
16552SOL    HW167648   4.689   6.423   2.033  0.8854  2.5554 -0.2336
16552SOL    HW267649   4.604   6.391   1.912  0.1427 -0.0732  0.9120
16553SOL     OW67650  13.524  11.645  12.774 -0.0919  0.0345 -0.3237
16553SOL    HW167651  13.467  11.718  12.796 -0.8795 -1.1035  1.6418
16553SOL    HW267652  13.581  11.679  12.705 -0.9128  2.2494  0.0138
16554SOL     OW67653  10.245   3.988   2.423  0.5454  0.0182  0.3594
16554SOL    HW167654  10.313   3.928   2.394 -0.3577 -1.1971  0.7011
16554SOL    HW267655  10.286   4.075   2.417  1.9627 -0.6365  0.1382
16555SOL     OW67656  13.088   9.340  10.845 -0.2360  0.0966  0.2948
16555SOL    HW167657  13.091   9.244  10.846  0.0635  0.0848 -0.6413
16555SOL    HW267658  13.133   9.366  10.925  1.3024 -0.5312 -0.3166
16556SOL     OW67659   0.051  12.536   0.023  0.3898 -0.0510  0.4491
16556SOL    HW167660   0.125  12.523  -0.037  1.3610  3.2863  0.7337
16556SOL    HW267661   0.090  12.547   0.109 -0.5413  0.3615  0.8416
16557SOL     OW67662   3.069  12.441   2.090  0.3522 -0.1179  0.2961
16557SOL    HW167663   2.995  12.410   2.142  0.8985  0.5775  1.5211
16557SOL    HW267664   3.063  12.536   2.094  0.3759 -0.0353 -0.9923
16558SOL     OW67665   4.268   1.615   6.063  0.0857 -0.4491  0.0632
16558SOL    HW167666   4.298   1.532   6.025 -0.4921 -1.8539  2.4783
16558SOL    HW267667   4.319   1.624   6.144 -2.7798 -0.7175  2.0504
16559SOL     OW67668  12.590   9.776  12.197  0.0585 -0.4886  0.5152
16559SOL    HW167669  12.609   9.723  12.274  0.7112 -0.2027  0.5578
16559SOL    HW267670  12.544   9.853  12.232 -0.8914 -1.0175  0.4511
16560SOL     OW67671   6.545   7.808   2.050  0.5068  0.4824  0.1671
16560SOL    HW167672   6.608   7.867   2.093  2.1459 -0.6988 -0.4926
16560SOL    HW267673   6.599   7.753   1.994 -0.9723 -1.5828  0.6696
16561SOL     OW67674  13.275  13.558  12.724 -0.0622 -0.1266  0.3104
16561SOL    HW167675  13.293  13.638  12.773 -0.0386  0.7855 -1.1120
16561SOL    HW267676  13.330  13.565  12.645  1.9234 -2.7705  1.2870
16562SOL     OW67677   1.019   9.120   1.090 -0.2261  0.1760  0.3363
16562SOL    HW167678   1.089   9.185   1.093  0.2101 -0.2692 -0.0604
16562SOL    HW267679   1.061   9.038   1.116 -0.7979  0.0663  0.9464
16563SOL     OW67680  11.917   7.316  11.527  0.1189  0.2521  0.0152
16563SOL    HW167681  11.860   7.392  11.536  0.8713  0.8024  0.1762
16563SOL    HW267682  11.952   7.301  11.614 -0.6336 -0.7809  0.1626
16564SOL     OW67683   8.009  10.943   9.974  0.2556 -0.2648 -0.3330
16564SOL    HW167684   7.975  11.028  10.003  0.6311 -0.0945 -0.3892
16564SOL    HW267685   7.965  10.879  10.031  1.3206  0.0952  0.9473
16565SOL     OW67686   9.866   2.316   3.379 -0.1283  0.1275 -0.4453
16565SOL    HW167687   9.913   2.234   3.396 -0.0287  0.5019  1.3474
16565SOL    HW267688   9.933   2.384   3.390 -0.7149  0.5713  0.5378
16566SOL     OW67689   9.158  13.026  10.855 -0.9898 -0.0246 -0.2511
16566SOL    HW167690   9.190  12.951  10.905 -0.7988 -0.8109 -1.5007
16566SOL    HW267691   9.167  12.999  10.764  1.5796  2.4789 -0.8809
16567SOL     OW67692   6.649  11.398   5.089  0.1154 -0.0202 -0.2771
16567SOL    HW167693   6.669  11.464   5.024 -0.8501 -0.0693 -0.6382
16567SOL    HW267694   6.671  11.315   5.047  0.6085  0.0118 -0.0964
16568SOL     OW67695   2.243   4.473  12.276 -0.0312 -0.5515  0.3132
16568SOL    HW167696   2.216   4.447  12.364  0.9501 -0.1627  0.7437
16568SOL    HW267697   2.269   4.390  12.234 -2.5683 -1.0632 -0.4051
16569SOL     OW67698  10.500   4.014   4.396 -0.1015 -0.7051  0.5539
16569SOL    HW167699  10.455   4.097   4.380  0.6155 -0.3714  0.2159
16569SOL    HW267700  10.484   3.963   4.317 -0.2526 -0.7607  0.6190
16570SOL     OW67701  10.707  10.884  12.383  0.2904 -0.7569  0.1207
16570SOL    HW167702  10.798  10.856  12.396 -0.5392 -3.5080  0.6814
16570SOL    HW267703  10.660  10.803  12.365 -1.9094  0.7183 -1.2422
16571SOL     OW67704  11.743  10.427  12.720 -0.0084 -0.0114  0.2197
16571SOL    HW167705  11.709  10.338  12.706 -1.9642  0.6111  0.6660
16571SOL    HW267706  11.667  10.477  12.750  1.0253  1.8522 -0.1272
16572SOL     OW67707   5.221  12.408  12.253  0.5322  0.1361  0.2300
16572SOL    HW167708   5.302  12.458  12.267  1.1930 -0.9670  0.4372
16572SOL    HW267709   5.163  12.438  12.322  1.0372  0.3863  0.5564
16573SOL     OW67710  11.536  11.257  14.043  0.4008  0.1393 -0.3594
16573SOL    HW167711  11.608  11.233  14.102 -1.2815  1.5538  2.5091
16573SOL    HW267712  11.466  11.197  14.066 -0.9074  1.9102  0.5697
16574SOL     OW67713   2.444  10.601  14.153 -0.3760  0.3097  0.0342
16574SOL    HW167714   2.435  10.604  14.248 -1.8590 -0.0343 -0.0727
16574SOL    HW267715   2.366  10.554  14.123  1.5089 -2.4037 -1.1292
16575SOL     OW67716   8.236   2.074  13.165  0.7616  0.4780 -0.1035
16575SOL    HW167717   8.271   2.017  13.096  2.9525  1.3106  0.2605
16575SOL    HW267718   8.209   2.153  13.118  0.5760  0.3457 -0.2226
16576SOL     OW67719   9.628   0.745   7.048  0.0065 -0.3982 -0.0953
16576SOL    HW167720   9.642   0.687   7.123  1.4165  0.7390  0.5507
16576SOL    HW267721   9.716   0.768   7.018 -0.4142  2.6932  0.6919
16577SOL     OW67722   8.693   7.489   6.047  0.1849  0.1025  0.0409
16577SOL    HW167723   8.748   7.426   6.000 -0.6681 -0.4018 -0.3075
16577SOL    HW267724   8.630   7.435   6.094  0.3825  0.6523  0.9617
16578SOL     OW67725   9.729   2.066   8.713 -0.5382  0.5563  0.4950
16578SOL    HW167726   9.765   2.144   8.670 -0.0042 -0.8551 -1.8148
16578SOL    HW267727   9.803   2.029   8.761  0.1508 -0.2477 -1.1011
16579SOL     OW67728   7.187   9.381   1.443 -0.1552 -0.2395  0.3680
16579SOL    HW167729   7.214   9.457   1.392 -2.1108  1.6337  1.9415
16579SOL    HW267730   7.108   9.349   1.399 -1.1298  0.6151  1.4437
16580SOL     OW67731   3.682   9.062  14.062 -0.0095  0.0542  0.4565
16580SOL    HW167732   3.654   9.009  14.136  0.0482 -0.2803  0.2386
16580SOL    HW267733   3.733   9.003  14.007  0.8558  0.5659  0.6811
16581SOL     OW67734   8.335  10.200   8.168  0.4382 -0.0170 -0.6582
16581SOL    HW167735   8.383  10.281   8.185  1.7789 -0.3911 -2.3657
16581SOL    HW267736   8.247  10.218   8.200  0.9732  1.7139  0.0012
16582SOL     OW67737   0.983  12.204   5.862  0.0803  0.1240 -0.4969
16582SOL    HW167738   0.956  12.187   5.772  1.0667 -0.8563 -0.6401
16582SOL    HW267739   0.984  12.299   5.870 -0.1559  0.2177 -1.4762
16583SOL     OW67740  12.156  10.836   8.420  0.0573  0.0781  0.7306
16583SOL    HW167741  12.145  10.770   8.351  1.3009  1.2070 -0.6123
16583SOL    HW267742  12.215  10.795   8.483  1.3296  0.0805 -0.4097
16584SOL     OW67743   9.513   0.252   8.093 -0.5684  0.0204 -0.1552
16584SOL    HW167744   9.489   0.286   8.007  0.3630 -0.6118 -0.6789
16584SOL    HW267745   9.581   0.187   8.075  2.7469  2.7180  1.2818
16585SOL     OW67746   2.339   7.591   0.809  0.0603  0.2154  0.2985
16585SOL    HW167747   2.250   7.615   0.784  0.2705 -0.9263 -1.7493
16585SOL    HW267748   2.393   7.621   0.736  0.9041 -2.0133 -0.0690
16586SOL     OW67749  11.272   0.575   7.796  0.2389 -0.6640  0.2333
16586SOL    HW167750  11.327   0.646   7.761  2.8839 -2.8619 -0.4601
16586SOL    HW267751  11.187   0.589   7.755  0.7278  1.8978 -0.1138
16587SOL     OW67752   3.850   2.640  10.808 -0.6871 -0.7262  0.1786
16587SOL    HW167753   3.845   2.611  10.899  0.7555  0.3696  0.6540
16587SOL    HW267754   3.766   2.684  10.792 -2.3223 -3.7116 -0.1114
16588SOL     OW67755   9.293   9.759   2.338  0.1463 -0.8719  0.1049
16588SOL    HW167756   9.389   9.754   2.338  0.3259  1.5628  0.0321
16588SOL    HW267757   9.273   9.847   2.371 -2.1454 -1.9430  1.9484
16589SOL     OW67758  13.723   3.887   5.538 -0.4605 -0.5499 -0.0837
16589SOL    HW167759  13.654   3.950   5.515 -0.4052  0.0030  1.1764
16589SOL    HW267760  13.804   3.931   5.513 -0.3991  0.0585  1.1164
16590SOL     OW67761   9.645   6.580   5.040 -0.0641 -0.1442  0.2847
16590SOL    HW167762   9.636   6.643   5.111  1.2550  0.6078 -0.1861
16590SOL    HW267763   9.682   6.502   5.081 -1.6011 -0.6133  0.8475
16591SOL     OW67764  10.432  11.352   8.832 -0.2260 -0.3609 -0.2842
16591SOL    HW167765  10.394  11.388   8.912 -3.7076  0.6968 -2.1576
16591SOL    HW267766  10.509  11.406   8.815 -1.2538  1.5282  0.7309
16592SOL     OW67767   9.490   2.143   3.927  0.0466 -0.3948 -0.1612
16592SOL    HW167768   9.457   2.057   3.955 -0.1151  0.0918  1.2456
16592SOL    HW267769   9.537   2.125   3.845 -1.3895 -1.5447 -0.7884
16593SOL     OW67770   9.756  10.441   8.409 -0.0704 -0.4668 -0.6098
16593SOL    HW167771   9.744  10.349   8.432 -1.8242 -0.1786 -0.1808
16593SOL    HW267772   9.836  10.443   8.357  0.6223 -2.0566  0.3220
16594SOL     OW67773   3.837  13.916   0.653 -0.0811 -0.3039 -0.0301
16594SOL    HW167774   3.909  13.925   0.716  0.3708 -0.9767 -0.4379
16594SOL    HW267775   3.794  13.834   0.679  0.5021 -0.9240 -0.9814
16595SOL     OW67776  10.204   6.062   6.597  0.4964  0.2380 -0.0326
16595SOL    HW167777  10.200   5.972   6.630  2.3722 -0.2701 -1.0252
16595SOL    HW267778  10.144   6.063   6.522  1.9277 -0.8116 -1.2582
16596SOL     OW67779  13.413  13.645   3.370 -0.0847  0.1043 -0.2271
16596SOL    HW167780  13.368  13.633   3.286 -0.6273  0.6268 -0.0123
16596SOL    HW267781  13.490  13.589   3.363 -1.5108 -1.9951 -0.0302
16597SOL     OW67782  10.782   7.280   8.009  0.2566  0.4659 -0.1503
16597SOL    HW167783  10.848   7.224   7.968  1.7431  2.0886 -0.1106
16597SOL    HW267784  10.711   7.285   7.946  0.6779 -0.3951 -0.7073
16598SOL     OW67785   2.842  10.384   5.294  0.0126  0.1321  0.0703
16598SOL    HW167786   2.766  10.443   5.291  1.0202  1.5491 -3.3015
16598SOL    HW267787   2.891  10.411   5.371 -0.4314  2.6665 -0.4346
16599SOL     OW67788   2.577  10.193   7.386  0.2006  0.5495  0.2527
16599SOL    HW167789   2.534  10.219   7.468 -2.2564  1.6637 -1.2662
16599SOL    HW267790   2.583  10.274   7.336  2.9094  0.1351 -0.2098
16600SOL     OW67791   5.026   5.094  12.375  0.2448  0.5772 -0.3971
16600SOL    HW167792   5.011   5.188  12.365 -1.5841  0.3411 -0.0719
16600SOL    HW267793   5.062   5.067  12.291 -2.6957  0.9464 -1.9052
16601SOL     OW67794  12.793  13.850   1.277 -0.3941  0.1767 -0.0724
16601SOL    HW167795  12.802  13.938   1.241  0.6252  0.2196  0.2495
16601SOL    HW267796  12.883  13.818   1.286 -0.5979  0.0052  2.0199
16602SOL     OW67797   5.619   5.133  11.963  0.2693  0.3766  0.4592
16602SOL    HW167798   5.663   5.184  12.031  0.9147  0.0840  0.2705
16602SOL    HW267799   5.615   5.192  11.887  0.5458  0.3225  0.4034
16603SOL     OW67800  12.383  13.869  13.062  0.4977 -0.4643  0.0858
16603SOL    HW167801  12.342  13.955  13.068  2.2944  0.3516  1.8435
16603SOL    HW267802  12.341  13.816  13.130 -0.4924 -0.9605 -0.8854
16604SOL     OW67803   9.712   9.205   5.685  0.8687 -0.0951  0.2858
16604SOL    HW167804   9.742   9.120   5.653 -1.4484 -0.7682 -0.2411
16604SOL    HW267805   9.675   9.187   5.771  1.1366  0.5639  0.5524
16605SOL     OW67806  14.145   9.067   0.041  0.5566 -0.0142  0.3224
16605SOL    HW167807  14.231   9.037   0.011  0.3925 -0.1331 -0.0358
16605SOL    HW267808  14.110   9.116  -0.033 -0.1799 -0.9698  0.0215
16606SOL     OW67809   5.620  12.146   3.428 -0.3211 -0.1318  0.7590
16606SOL    HW167810   5.716  12.142   3.424 -0.2801  1.3953 -1.6659
16606SOL    HW267811   5.600  12.137   3.521  2.0788 -1.7096  1.2298
16607SOL     OW67812   1.148  11.807   3.531 -0.1893 -0.0144  0.5059
16607SOL    HW167813   1.054  11.792   3.516 -0.1759 -0.9174  1.2638
16607SOL    HW267814   1.187  11.806   3.444 -0.8921  0.4857  0.1716
16608SOL     OW67815  13.237   9.839   5.353 -0.0630 -0.5487 -0.2296
16608SOL    HW167816  13.285   9.822   5.271  1.7671 -1.3684  0.9305
16608SOL    HW267817  13.229   9.934   5.356 -1.8722 -0.5538 -2.2263
16609SOL     OW67818   9.168   5.242  11.126  0.3374 -0.0859  0.2861
16609SOL    HW167819   9.246   5.294  11.110 -0.0615 -0.1676 -2.5603
16609SOL    HW267820   9.096   5.297  11.095 -0.2829 -1.4859 -0.9141
16610SOL     OW67821   5.720   4.266   1.302  0.7203 -0.1450 -0.3785
16610SOL    HW167822   5.801   4.216   1.311  1.0148  0.3847 -0.0918
16610SOL    HW267823   5.683   4.235   1.219  0.2426 -1.7762  0.3886
16611SOL     OW67824   6.198  10.095  11.738 -0.0548 -0.2860 -0.2367
16611SOL    HW167825   6.203  10.186  11.708  0.3626 -0.2117  0.0473
16611SOL    HW267826   6.213  10.100  11.833 -1.9681 -0.4523  0.1165
16612SOL     OW67827   3.509   0.406  13.447 -0.1820  0.3912 -0.5973
16612SOL    HW167828   3.566   0.475  13.414 -0.9621  0.4458 -1.8823
16612SOL    HW267829   3.465   0.446  13.522  1.7374  0.2052  0.7214
16613SOL     OW67830  10.165  12.355  13.404 -0.1565  0.2009 -0.2611
16613SOL    HW167831  10.245  12.304  13.421 -1.8107 -1.4779  3.7269
16613SOL    HW267832  10.116  12.303  13.341 -0.0605 -1.1585  0.7454
16614SOL     OW67833   0.523   2.865   9.339  0.3684  0.2721 -0.2640
16614SOL    HW167834   0.441   2.819   9.322 -0.6873  1.7042  0.6138
16614SOL    HW267835   0.586   2.796   9.362 -1.3729 -0.7309  1.9157
16615SOL     OW67836   6.998   7.187   6.072 -0.5293 -0.4959  0.5933
16615SOL    HW167837   7.050   7.262   6.042  0.7566 -1.0616  1.3204
16615SOL    HW267838   7.046   7.111   6.040 -0.8118 -1.0437  1.4636
16616SOL     OW67839   1.327   8.230   4.273  0.3976  0.1150  0.2545
16616SOL    HW167840   1.347   8.304   4.329 -0.0554  0.6935 -0.3322
16616SOL    HW267841   1.233   8.237   4.256  0.3454 -0.6027  0.2052
16617SOL     OW67842  13.466   4.073  10.814 -0.0170  0.2794 -0.1206
16617SOL    HW167843  13.438   4.015  10.743  0.0077 -0.0076  0.1027
16617SOL    HW267844  13.481   4.157  10.771 -0.5215  0.2481 -0.3653
16618SOL     OW67845   9.302   6.261   6.576 -0.0139 -0.0150 -0.3412
16618SOL    HW167846   9.295   6.262   6.481  0.0863  0.8400 -0.3540
16618SOL    HW267847   9.329   6.351   6.598 -1.5367  0.2379  0.5943
16619SOL     OW67848   2.657   1.504   7.292 -0.1463 -0.0355 -0.2391
16619SOL    HW167849   2.623   1.557   7.364  0.2602 -1.4196  1.0348
16619SOL    HW267850   2.589   1.507   7.225 -1.8948 -1.0556  1.3864
16620SOL     OW67851   2.825  11.273   0.492  0.0797  1.0063  0.0798
16620SOL    HW167852   2.908  11.305   0.528 -0.4580  0.8208  1.5874
16620SOL    HW267853   2.848  11.193   0.446  0.6576  0.5882  1.0649
16621SOL     OW67854   6.056  11.306   1.655 -0.2291  0.6157  0.1554
16621SOL    HW167855   5.991  11.256   1.705  0.3499  1.0244  1.3730
16621SOL    HW267856   6.137  11.297   1.706  0.3957  1.0290 -0.7424
16622SOL     OW67857  14.031   6.052  10.721 -0.0168 -0.1562  0.3690
16622SOL    HW167858  14.122   6.079  10.714 -0.0983  0.1720  0.5348
16622SOL    HW267859  13.986   6.101  10.652 -0.0448 -0.4368  0.1835
16623SOL     OW67860  12.661   1.946  13.561 -0.0759  0.6830 -0.2658
16623SOL    HW167861  12.585   1.888  13.555  0.4320  0.0744 -1.0313
16623SOL    HW267862  12.727   1.895  13.607  0.0778  0.9745 -0.1600
16624SOL     OW67863  13.902  10.582   0.088 -0.2022 -0.6185  0.5675
16624SOL    HW167864  13.932  10.668   0.118  1.3348 -1.2162  0.8468
16624SOL    HW267865  13.846  10.601   0.013  1.3816  0.5872 -0.3834
16625SOL     OW67866   0.633   4.939  10.077 -0.5331 -0.0160  0.5749
16625SOL    HW167867   0.714   4.950  10.127  0.8734  1.2500 -1.7905
16625SOL    HW267868   0.563   4.961  10.139  1.0971  1.6980  1.9310
16626SOL     OW67869  10.994  11.172  11.375  0.0282  0.4226  0.0252
16626SOL    HW167870  11.032  11.106  11.433 -1.3732  0.6981  1.3219
16626SOL    HW267871  11.066  11.233  11.358  0.4362  0.4247  1.6181
16627SOL     OW67872   9.957   3.263  10.177  0.0851 -0.1217 -0.4200
16627SOL    HW167873   9.892   3.333  10.182  0.8844  0.5743  0.8065
16627SOL    HW267874   9.909   3.184  10.204 -0.4025  0.2757 -0.1077
16628SOL     OW67875   4.523  10.085   7.047  0.4001 -0.2291  0.2098
16628SOL    HW167876   4.462  10.084   6.973 -0.1923  0.5285  0.6745
16628SOL    HW267877   4.497  10.010   7.101 -0.6832  0.5796  0.8401
16629SOL     OW67878   9.649  12.132   0.484  0.2981  0.4524  0.0239
16629SOL    HW167879   9.660  12.037   0.478 -0.5734  0.4186 -4.0827
16629SOL    HW267880   9.736  12.165   0.507  0.7873 -1.2435  0.8189
16630SOL     OW67881   0.172   6.974   1.075 -0.3253 -0.1840  0.6010
16630SOL    HW167882   0.096   7.030   1.089  0.1041  0.7194 -0.5102
16630SOL    HW267883   0.237   7.031   1.033  0.6690 -1.1375  0.7935
16631SOL     OW67884   2.629   5.895  13.914  0.4201 -0.6371  0.3474
16631SOL    HW167885   2.679   5.972  13.888 -1.3055  0.1064 -1.0245
16631SOL    HW267886   2.670   5.823  13.867 -0.0214  0.0337 -1.1330
16632SOL     OW67887   9.458   2.344  10.744 -0.4857 -0.0932  0.0221
16632SOL    HW167888   9.539   2.386  10.775 -0.9057 -0.4123  1.6537
16632SOL    HW267889   9.453   2.263  10.795 -1.1602 -0.7198 -1.0269
16633SOL     OW67890  10.965   8.753   9.869 -0.3528  0.2522  0.5831
16633SOL    HW167891  10.987   8.823   9.806 -0.2399 -1.1233 -0.9781
16633SOL    HW267892  11.045   8.702   9.876 -0.0103  0.9975  2.7702
16634SOL     OW67893   3.099   6.019  13.052 -0.3462  0.4430  0.3422
16634SOL    HW167894   3.047   6.038  13.129  0.4121  2.1742  0.4832
16634SOL    HW267895   3.119   6.105  13.015  0.2086 -0.2955 -1.1821
16635SOL     OW67896  13.993   3.615   2.046 -0.4291  0.1728 -1.1553
16635SOL    HW167897  14.013   3.708   2.037 -1.3225  0.4457 -0.4168
16635SOL    HW267898  13.975   3.586   1.956 -2.0450  1.1786 -1.1996
16636SOL     OW67899  13.578   0.404   8.893  0.4032 -0.4842  0.5740
16636SOL    HW167900  13.491   0.440   8.910  0.3162 -0.0648 -0.6916
16636SOL    HW267901  13.618   0.465   8.831  0.0314 -2.7929 -2.1061
16637SOL     OW67902  12.168  11.638   1.570 -0.0922  0.1946  0.6007
16637SOL    HW167903  12.252  11.620   1.528 -0.2768 -0.7717  0.6211
16637SOL    HW267904  12.136  11.552   1.597 -1.4988  0.4414 -0.1801
16638SOL     OW67905   9.081  11.182   8.296  0.1136  0.0093  0.1750
16638SOL    HW167906   9.043  11.253   8.244  0.2881  1.4036  1.8325
16638SOL    HW267907   9.155  11.151   8.245 -0.9882 -0.1560 -1.3639
16639SOL     OW67908   2.974   7.112   8.419 -0.5072 -0.9318  0.2637
16639SOL    HW167909   2.897   7.068   8.456 -1.9202  1.3494  0.2474
16639SOL    HW267910   2.985   7.190   8.474 -0.5196  0.7262 -1.9347
16640SOL     OW67911   2.163   7.710   6.922 -0.4328  0.0128  0.1679
16640SOL    HW167912   2.172   7.682   6.831 -1.2667  0.3604 -0.0287
16640SOL    HW267913   2.078   7.755   6.925 -0.0182  0.7653  0.9216
16641SOL     OW67914  13.346   2.740   5.274 -0.7402 -0.6035 -0.5581
16641SOL    HW167915  13.321   2.679   5.204 -2.5405  0.3431 -0.8071
16641SOL    HW267916  13.408   2.800   5.232  2.6564 -3.2524  0.1802
16642SOL     OW67917  12.096  13.489  10.796 -0.1915 -0.0140  0.3930
16642SOL    HW167918  12.080  13.536  10.878  1.4717  1.7058 -0.2155
16642SOL    HW267919  12.161  13.423  10.818  0.5993  0.7503  0.3748
16643SOL     OW67920   1.533   6.952   2.667 -0.3167  0.6816  0.0321
16643SOL    HW167921   1.472   6.926   2.736  0.0662  1.2352  0.5943
16643SOL    HW267922   1.579   7.028   2.703  0.8491  0.1539 -0.2852
16644SOL     OW67923   9.452   8.355  12.599 -0.1522 -0.4062 -0.1731
16644SOL    HW167924   9.403   8.424  12.555  0.4016 -0.8679 -1.5564
16644SOL    HW267925   9.437   8.277  12.546 -0.5763 -1.3166  1.2432
16645SOL     OW67926  11.065   4.435   9.034 -0.2174 -0.3745 -0.5123
16645SOL    HW167927  10.982   4.418   9.079  0.2000 -1.0146  0.0345
16645SOL    HW267928  11.061   4.381   8.956  0.6303 -2.2469  0.6617
16646SOL     OW67929   7.819  13.952   9.055 -0.3091  0.3466 -0.1056
16646SOL    HW167930   7.759  14.011   9.009 -0.7505  0.0643  0.1132
16646SOL    HW267931   7.860  14.008   9.122 -2.5674 -0.1426  1.7853
16647SOL     OW67932   9.486  12.280   5.596  0.1804  0.0477 -0.0076
16647SOL    HW167933   9.525  12.193   5.591  0.4536  0.2491 -1.6828
16647SOL    HW267934   9.492  12.303   5.689  0.4574 -1.5454  0.3983
16648SOL     OW67935   7.236   3.751   6.770  0.2780  0.4634  0.1275
16648SOL    HW167936   7.158   3.730   6.718  0.6546  1.5980 -0.9445
16648SOL    HW267937   7.275   3.666   6.790 -1.8921 -0.2446  1.8110
16649SOL     OW67938  12.513  11.652   8.661  0.3555 -0.6749 -0.2750
16649SOL    HW167939  12.511  11.647   8.756 -1.3204 -1.3896 -0.3155
16649SOL    HW267940  12.594  11.700   8.641 -0.1040  1.0096  1.5668
16650SOL     OW67941   4.773  10.749   2.872  0.3020 -0.3903 -0.4336
16650SOL    HW167942   4.827  10.691   2.926 -0.2134  0.7718  1.4422
16650SOL    HW267943   4.826  10.828   2.860 -0.2289  0.0122 -0.1864
16651SOL     OW67944   8.582  10.354   4.249 -0.1045  0.0624 -0.0852
16651SOL    HW167945   8.655  10.369   4.309  0.6707 -2.2931 -0.3464
16651SOL    HW267946   8.568  10.439   4.207 -0.5387  1.7444  3.1933
16652SOL     OW67947   4.220   3.666   6.516 -0.0238 -0.1297 -0.5445
16652SOL    HW167948   4.251   3.755   6.501  1.7995 -0.4753  0.8784
16652SOL    HW267949   4.215   3.658   6.611  1.3980 -1.9942 -0.5699
16653SOL     OW67950  12.066  10.476   2.814  0.3659  0.1844 -0.0226
16653SOL    HW167951  12.094  10.512   2.898  0.6969  1.2817 -0.5878
16653SOL    HW267952  12.045  10.384   2.833  0.2801  0.4579  1.2815
16654SOL     OW67953   4.019  11.694   3.194  0.9255 -0.8644  0.1787
16654SOL    HW167954   4.108  11.721   3.174 -0.1418  2.6063 -0.7181
16654SOL    HW267955   3.964  11.758   3.149 -1.9945 -2.1027  1.6810
16655SOL     OW67956   4.606   7.026   9.145 -0.8997 -0.1587 -0.1409
16655SOL    HW167957   4.626   7.068   9.229 -2.1081 -0.7927  0.4816
16655SOL    HW267958   4.651   7.080   9.080 -2.0009  1.8546  0.6798
16656SOL     OW67959   1.618   0.840   3.248 -0.1383 -0.2418 -0.5812
16656SOL    HW167960   1.644   0.764   3.301 -0.3357 -0.5658 -0.9445
16656SOL    HW267961   1.535   0.869   3.287 -1.2760 -1.6417 -1.8551
16657SOL     OW67962   0.425   9.192   3.625  0.3678  0.6043 -0.1571
16657SOL    HW167963   0.369   9.267   3.644  1.6219  1.4032  0.4596
16657SOL    HW267964   0.509   9.213   3.665  1.2934 -0.3178 -1.5207
16658SOL     OW67965  13.944   1.151  10.131  0.4347 -0.1870  0.1480
16658SOL    HW167966  14.038   1.169  10.127  0.7405 -1.8242 -0.6513
16658SOL    HW267967  13.904   1.221  10.079  1.2898  0.0320 -0.2260
16659SOL     OW67968   3.831  13.751   0.241 -0.8948 -0.2842 -0.3158
16659SOL    HW167969   3.763  13.800   0.288 -2.1398 -3.4696  1.5486
16659SOL    HW267970   3.902  13.743   0.304 -1.7860 -2.9482  0.4676
16660SOL     OW67971  12.203   1.568  13.866 -0.0044  0.1816  0.0580
16660SOL    HW167972  12.184   1.571  13.960 -1.7277 -2.8138 -0.0593
16660SOL    HW267973  12.119   1.549  13.825  0.7421  1.2122 -2.1158
16661SOL     OW67974   6.410   0.926   4.727  0.1243  0.0438  0.5464
16661SOL    HW167975   6.358   0.846   4.731 -1.1245  0.3667 -3.9600
16661SOL    HW267976   6.345   0.997   4.730  0.5039  0.5692 -1.8574
16662SOL     OW67977   7.937  13.818   1.256 -0.0788  0.5216  0.2325
16662SOL    HW167978   8.013  13.800   1.200 -0.0338  0.7233  0.2308
16662SOL    HW267979   7.869  13.847   1.197 -0.0448  0.6931  0.2769
16663SOL     OW67980   9.920   1.775   0.190 -0.6647 -0.2485  0.0681
16663SOL    HW167981   9.891   1.790   0.280  1.1668  2.6900  0.3258
16663SOL    HW267982   9.933   1.681   0.184 -1.4850 -0.6040  2.6486
16664SOL     OW67983  10.804   9.418   4.578 -0.0541  0.1764  0.7978
16664SOL    HW167984  10.842   9.501   4.604  0.6706 -0.6143  2.3824
16664SOL    HW267985  10.825   9.410   4.485 -0.1536  1.7544  0.6232
16665SOL     OW67986   8.681   8.777  11.153  0.2717 -0.4628 -0.1403
16665SOL    HW167987   8.637   8.714  11.210 -0.1612 -0.4959 -0.5023
16665SOL    HW267988   8.615   8.845  11.138  1.3665  1.1904  1.9450
16666SOL     OW67989   7.946   1.889   9.606 -0.2237 -0.2078  0.2285
16666SOL    HW167990   7.883   1.874   9.536 -0.2434  0.2623  0.1367
16666SOL    HW267991   7.904   1.955   9.662 -0.3244 -0.7667  0.8334
16667SOL     OW67992   7.176   0.090   1.214 -0.4596 -0.4090 -0.3669
16667SOL    HW167993   7.132   0.165   1.254 -0.0719 -0.5210  0.2678
16667SOL    HW267994   7.267   0.116   1.206 -0.5751 -0.2605 -1.4982
16668SOL     OW67995   7.996  13.583   4.447  0.1255  0.2114 -0.2286
16668SOL    HW167996   7.943  13.544   4.377 -1.0531 -2.0727  1.7862
16668SOL    HW267997   8.074  13.527   4.451  0.7158  1.0039 -0.3893
16669SOL     OW67998   2.686  12.901  11.957  0.5308 -0.0039  0.3317
16669SOL    HW167999   2.659  12.811  11.972 -1.3327  0.2882 -0.9335
16669SOL    HW268000   2.729  12.899  11.871 -0.0575  0.3886  0.0202
16670SOL     OW68001   1.626   5.222   4.573 -0.1604 -0.3341  0.0236
16670SOL    HW168002   1.548   5.173   4.547  0.1908 -1.1036  0.3856
16670SOL    HW268003   1.664   5.170   4.644  1.1909 -0.4818 -0.7770
16671SOL     OW68004   1.104   0.235   5.377  0.4250  0.2048 -0.0874
16671SOL    HW168005   1.023   0.185   5.369 -0.6525  2.0823 -1.7279
16671SOL    HW268006   1.076   0.322   5.407  1.6646  1.2246 -1.7188
16672SOL     OW68007   0.213   9.737   4.209 -0.1733 -0.0291  0.1180
16672SOL    HW168008   0.222   9.822   4.166  3.3951 -0.8214 -1.0985
16672SOL    HW268009   0.143   9.693   4.162  0.6372  0.8089 -2.0043
16673SOL     OW68010   6.485   8.977  14.093 -0.2426  0.0770  0.2576
16673SOL    HW168011   6.460   8.905  14.152 -0.8813 -0.2357 -0.3767
16673SOL    HW268012   6.466   9.056  14.143  2.8345 -0.1195  1.9723
16674SOL     OW68013   1.774   8.123   0.924  0.1050  0.4828  0.2837
16674SOL    HW168014   1.865   8.105   0.948 -0.0016 -0.7900 -0.2055
16674SOL    HW268015   1.774   8.129   0.828 -0.3897  0.0702  0.2508
16675SOL     OW68016   4.820   8.259  12.709 -0.2539  0.0312 -0.8867
16675SOL    HW168017   4.871   8.322  12.760  0.8728  0.0284 -1.9494
16675SOL    HW268018   4.743   8.308  12.680 -0.1911  0.4394 -0.3700
16676SOL     OW68019   0.465   8.776   2.532 -0.2404  0.3728  0.4531
16676SOL    HW168020   0.388   8.729   2.501  0.6762 -1.1329  0.3538
16676SOL    HW268021   0.525   8.776   2.458 -0.2378  1.7922  0.4321
16677SOL     OW68022   4.048   0.835  10.091  0.3589 -0.0866 -0.2256
16677SOL    HW168023   3.996   0.860  10.014 -0.1624 -0.2310  0.0764
16677SOL    HW268024   4.137   0.828  10.058  0.1974  0.2193 -0.7407
16678SOL     OW68025  11.838   1.880  11.534 -0.1717 -0.4427  0.0342
16678SOL    HW168026  11.905   1.882  11.465 -1.8338 -0.8123 -1.6826
16678SOL    HW268027  11.835   1.788  11.561  0.9916 -0.1722  1.1843
16679SOL     OW68028   2.509   6.753   0.777 -0.0830  0.2365 -0.1102
16679SOL    HW168029   2.477   6.746   0.867 -0.9662 -0.4162 -0.4549
16679SOL    HW268030   2.487   6.842   0.750  0.7866  0.6533  0.5312
16680SOL     OW68031   5.120   6.650   1.539  0.3305 -0.4390 -0.1578
16680SOL    HW168032   5.050   6.715   1.538 -0.6828 -1.4677  0.9614
16680SOL    HW268033   5.191   6.691   1.489 -0.0037  1.7995  1.0598
16681SOL     OW68034   9.308   9.272   1.932  0.1686 -0.5732  0.4333
16681SOL    HW168035   9.362   9.345   1.962 -1.0782 -0.0185  1.3893
16681SOL    HW268036   9.321   9.271   1.837 -0.3061  1.3386  0.3013
16682SOL     OW68037  10.144   9.231   2.831  0.0515  0.0309  0.5321
16682SOL    HW168038  10.091   9.154   2.854  0.9194 -0.8031 -0.1851
16682SOL    HW268039  10.202   9.244   2.907  1.0798 -1.0962 -0.0253
16683SOL     OW68040   7.189   3.346   8.069  0.0426  0.9232  0.1330
16683SOL    HW168041   7.100   3.340   8.035 -0.0856 -1.1363  0.7255
16683SOL    HW268042   7.209   3.440   8.067 -1.9087  1.3665 -0.5414
16684SOL     OW68043   1.177   5.820   5.260  0.7400  0.0121 -0.0444
16684SOL    HW168044   1.190   5.741   5.313 -1.5302 -1.5788 -1.6574
16684SOL    HW268045   1.187   5.892   5.322  2.2775 -1.5289  1.6347
16685SOL     OW68046   3.304  10.454   2.445  0.2552 -0.0847  0.2940
16685SOL    HW168047   3.360  10.492   2.512  0.2401  0.1787  0.1596
16685SOL    HW268048   3.348  10.374   2.419  1.1279  0.6592 -0.5781
16686SOL     OW68049  12.707   1.490   7.886  0.1757 -0.0517 -0.3334
16686SOL    HW168050  12.765   1.414   7.896 -0.4051 -0.1830  3.4067
16686SOL    HW268051  12.621   1.452   7.867  0.4842 -0.0639 -1.8579
16687SOL     OW68052  13.930  13.095  11.258 -0.1431  0.5053  0.2606
16687SOL    HW168053  13.851  13.043  11.242  0.5089 -0.3941 -0.1219
16687SOL    HW268054  13.958  13.070  11.346 -0.8079  1.5488  0.7890
16688SOL     OW68055   0.078   3.638   7.939  0.0483 -0.3727  0.1034
16688SOL    HW168056  -0.014   3.621   7.960 -0.1626 -0.2961 -0.7299
16688SOL    HW268057   0.125   3.614   8.019 -0.7556  0.3274  0.8112
16689SOL     OW68058   9.561   2.244   9.341 -0.6195 -0.0598 -0.1367
16689SOL    HW168059   9.647   2.281   9.322  0.7439 -3.0123 -0.4266
16689SOL    HW268060   9.499   2.308   9.308  1.5118  1.0640 -2.2913
16690SOL     OW68061  12.078  13.160   9.625  0.6316 -0.0886  0.1710
16690SOL    HW168062  12.111  13.230   9.682 -0.5647 -0.7451  1.7441
16690SOL    HW268063  12.155  13.134   9.574  1.2639  1.9333 -0.0419
16691SOL     OW68064   1.204   7.567  12.391 -0.7562 -0.1162  0.2033
16691SOL    HW168065   1.166   7.655  12.387 -1.7981 -0.5807 -1.4825
16691SOL    HW268066   1.132   7.510  12.362  0.2545 -1.3934  0.1563
16692SOL     OW68067   9.903  10.241   8.019  0.1564 -0.1028 -0.5418
16692SOL    HW168068   9.914  10.325   8.063 -1.8191  0.5988 -1.3336
16692SOL    HW268069   9.839  10.194   8.073 -0.1121 -0.3901 -1.1107
16693SOL     OW68070   7.776   4.353   8.215 -0.4709  0.4570  0.4594
16693SOL    HW168071   7.712   4.319   8.278 -1.7099  0.0586 -0.9874
16693SOL    HW268072   7.859   4.311   8.242 -0.9075  0.4772  1.9493
16694SOL     OW68073   1.608   8.472   7.143  0.5436  0.0410 -0.3450
16694SOL    HW168074   1.644   8.392   7.104 -0.0058 -0.5801  0.3775
16694SOL    HW268075   1.558   8.441   7.219  1.3642  1.1900  0.6938
16695SOL     OW68076  11.520   8.524   6.824  0.4170 -0.0017  0.5509
16695SOL    HW168077  11.470   8.536   6.743  1.2346 -0.0137  0.0393
16695SOL    HW268078  11.568   8.606   6.835 -0.4312  0.3858  1.5607
16696SOL     OW68079   7.444  11.667   9.781 -0.3296 -0.0333  0.0399
16696SOL    HW168080   7.454  11.687   9.874 -0.4860 -1.2220  0.3328
16696SOL    HW268081   7.409  11.747   9.743 -2.7047 -0.3177  1.4473
16697SOL     OW68082   7.482  11.502   6.990 -0.3641  0.8425 -0.3608
16697SOL    HW168083   7.491  11.442   7.064  0.3731  0.9990 -0.3126
16697SOL    HW268084   7.401  11.475   6.946 -0.6785  0.5979  0.3623
16698SOL     OW68085   3.187   2.244   1.149  0.7484 -0.4050  0.2509
16698SOL    HW168086   3.281   2.234   1.158  0.8435 -0.0460 -0.2555
16698SOL    HW268087   3.163   2.308   1.216  0.8866 -0.3999  0.2951
16699SOL     OW68088  11.316  11.021  10.115  0.6385 -0.1001 -0.7761
16699SOL    HW168089  11.380  11.060  10.175 -0.6193  1.4984 -0.4039
16699SOL    HW268090  11.238  11.007  10.168  0.3681 -1.2094 -1.4281
16700SOL     OW68091   7.906   9.498   0.293 -0.2218 -0.7389 -0.0126
16700SOL    HW168092   7.919   9.572   0.351 -2.8642 -0.3036  0.1611
16700SOL    HW268093   7.878   9.537   0.210 -0.5599 -1.4983 -0.2653
16701SOL     OW68094   0.379  12.274   4.703 -0.2332  0.0037 -0.1664
16701SOL    HW168095   0.424  12.358   4.692 -0.0245 -0.1826 -0.7290
16701SOL    HW268096   0.316  12.291   4.773  2.0778 -0.2607  2.1503
16702SOL     OW68097   7.506   7.357  10.514 -0.3948 -0.2080 -0.3408
16702SOL    HW168098   7.501   7.361  10.418 -1.2202  0.1016 -0.2924
16702SOL    HW268099   7.505   7.263  10.534  0.5931 -0.2959 -0.6658
16703SOL     OW68100  10.744  13.590  13.387 -0.5716  0.2954 -0.1830
16703SOL    HW168101  10.806  13.622  13.452  0.1876  0.0527 -0.7793
16703SOL    HW268102  10.712  13.669  13.343  1.9542  0.2751 -2.2598
16704SOL     OW68103   1.267  13.971   4.784  0.1796  0.3036  0.1298
16704SOL    HW168104   1.246  13.992   4.875  0.9499  0.4668  0.2744
16704SOL    HW268105   1.285  13.877   4.785  1.3700  0.5161  0.3896
16705SOL     OW68106  11.040   6.394  11.806  0.2735  0.5541 -0.7916
16705SOL    HW168107  11.107   6.326  11.796  1.9344  2.1079 -0.7499
16705SOL    HW268108  11.025   6.400  11.900  0.6844  0.7556 -0.7375
16706SOL     OW68109   4.018   2.292   3.691  0.0456 -0.1113  0.0111
16706SOL    HW168110   3.925   2.296   3.712  0.3600  0.2576  1.3979
16706SOL    HW268111   4.023   2.232   3.616 -1.0755 -1.9792  1.3367
16707SOL     OW68112   8.077   8.918  10.325  1.1689 -0.5959 -0.6585
16707SOL    HW168113   8.084   9.013  10.323  0.4038 -0.5364 -2.4966
16707SOL    HW268114   8.136   8.891  10.395  2.8298  1.1153 -1.3041
16708SOL     OW68115   8.642   7.152   3.344 -0.0062  0.2792  0.1709
16708SOL    HW168116   8.671   7.243   3.358  0.2009  0.0396  1.4609
16708SOL    HW268117   8.629   7.145   3.250  1.5595  1.1878 -0.1555
16709SOL     OW68118   0.538   6.753   1.233 -0.1318 -0.6687 -0.2897
16709SOL    HW168119   0.543   6.848   1.236 -0.2655 -0.6643 -0.1651
16709SOL    HW268120   0.622   6.725   1.196 -0.0050 -0.5128 -0.1193
16710SOL     OW68121   4.765   5.405   4.843 -0.5790  0.0761  0.6085
16710SOL    HW168122   4.670   5.398   4.835 -0.4719 -2.1412  0.6036
16710SOL    HW268123   4.799   5.342   4.779  0.8360 -0.4291  1.7899
16711SOL     OW68124   4.342   3.196   4.638  0.1972 -0.1765 -0.2371
16711SOL    HW168125   4.413   3.259   4.628 -0.4620  0.5065 -0.7776
16711SOL    HW268126   4.313   3.178   4.549 -0.3027 -0.4415 -0.0265
16712SOL     OW68127  10.684   4.163   1.542  0.0198 -0.0948  0.3078
16712SOL    HW168128  10.673   4.068   1.544 -2.4112  0.1195  1.7734
16712SOL    HW268129  10.669   4.187   1.450 -0.2015 -1.0579  0.0790
16713SOL     OW68130   7.854   9.080   5.189 -0.6539 -0.3387 -0.4350
16713SOL    HW168131   7.857   9.023   5.112 -0.8118 -1.5852  0.4526
16713SOL    HW268132   7.780   9.047   5.240  0.7653 -0.9545  1.3064
16714SOL     OW68133   7.678  11.827   0.440  0.4222  0.1180 -0.1048
16714SOL    HW168134   7.610  11.762   0.454  0.1662  0.8401  2.5536
16714SOL    HW268135   7.760  11.778   0.443  0.2566 -0.1016  2.3246
16715SOL     OW68136   6.125  12.066  13.208 -0.0035 -0.3188  0.1177
16715SOL    HW168137   6.110  12.061  13.302  1.4894  0.5642  0.4395
16715SOL    HW268138   6.174  12.148  13.196  0.0413 -0.5349 -1.3911
16716SOL     OW68139   6.334   7.196  12.343  0.2611 -0.3878 -0.5065
16716SOL    HW168140   6.243   7.167  12.333 -0.7140  1.8623  0.9865
16716SOL    HW268141   6.380   7.120  12.377 -1.1774 -1.4323 -0.8041
16717SOL     OW68142   2.838  13.042  13.013  0.0950 -0.3457  0.1059
16717SOL    HW168143   2.893  13.059  13.089 -0.2114  1.5153 -0.0557
16717SOL    HW268144   2.896  13.054  12.938 -0.7854  3.5023 -0.1695
16718SOL     OW68145   6.064   3.571  10.068  0.3531  0.3868 -0.1863
16718SOL    HW168146   6.093   3.487  10.102  2.4160  1.1439  0.0365
16718SOL    HW268147   6.081   3.633  10.139 -0.6037  1.0976 -0.5572
16719SOL     OW68148   3.638   8.885   0.658  0.2142 -0.2264 -0.0223
16719SOL    HW168149   3.703   8.951   0.634  0.1133 -0.0767  0.1133
16719SOL    HW268150   3.599   8.858   0.574  0.7619 -0.6478 -0.1516
16720SOL     OW68151  11.002   2.829   4.119 -0.2612 -0.3133  0.5752
16720SOL    HW168152  11.056   2.805   4.044 -0.8136 -0.2245  0.1419
16720SOL    HW268153  11.038   2.779   4.192  2.0333  1.6088  0.8876
16721SOL     OW68154  11.684   8.643   2.770 -0.1141 -0.2078  0.2776
16721SOL    HW168155  11.645   8.569   2.817 -1.3672 -0.1737 -0.6338
16721SOL    HW268156  11.610   8.684   2.725  0.6529  1.2500  0.2867
16722SOL     OW68157  12.797   9.515   4.238  0.3812  0.5941 -0.1608
16722SOL    HW168158  12.776   9.429   4.274  0.2520  0.9627  0.6535
16722SOL    HW268159  12.840   9.561   4.310  0.5864  1.1623 -0.6407
16723SOL     OW68160   3.280   8.028   1.262 -0.5583 -0.0355 -0.1889
16723SOL    HW168161   3.256   8.047   1.172 -0.2509  3.1593  0.2879
16723SOL    HW268162   3.200   8.044   1.313  0.4816  3.5284  0.5890
16724SOL     OW68163   1.303  12.064   4.288 -0.1982  0.0986  0.0725
16724SOL    HW168164   1.260  12.040   4.206 -0.7643 -0.2795  0.4778
16724SOL    HW268165   1.297  11.986   4.343 -2.8687  1.3449  1.7436
16725SOL     OW68166   3.592   9.146   2.952 -0.1543  0.2941 -0.6544
16725SOL    HW168167   3.519   9.189   2.906 -0.5921  0.7732  0.4413
16725SOL    HW268168   3.631   9.089   2.886 -1.8872 -0.4325 -1.1217
16726SOL     OW68169  12.642  13.709  11.552 -0.0615  0.2170  0.2755
16726SOL    HW168170  12.558  13.717  11.598  0.5732  0.0114  1.5035
16726SOL    HW268171  12.655  13.615  11.542 -0.3389  0.2658 -0.6175
16727SOL     OW68172   7.726   1.178   6.927 -0.2297 -0.3790  0.3645
16727SOL    HW168173   7.778   1.247   6.967  0.6126 -0.4529 -0.5622
16727SOL    HW268174   7.790   1.116   6.892 -0.9137 -0.4314 -0.8853
16728SOL     OW68175   9.586  10.381  13.010  0.6432 -0.1651 -0.2798
16728SOL    HW168176   9.563  10.405  12.920  0.5016 -1.1002 -0.5098
16728SOL    HW268177   9.655  10.443  13.034 -0.0509  0.7752 -0.6417
16729SOL     OW68178  13.980  10.013   4.584  0.7788 -0.0630 -0.0230
16729SOL    HW168179  13.973  10.005   4.679 -0.0073  3.7798  0.4181
16729SOL    HW268180  14.057  10.069   4.570 -0.0927  0.8697 -1.4692
16730SOL     OW68181  13.663   7.381  13.454 -0.2354  0.1914  0.1731
16730SOL    HW168182  13.746   7.375  13.408  0.1142  2.0195  0.4909
16730SOL    HW268183  13.615   7.303  13.427  1.7944 -1.2450  0.4687
16731SOL     OW68184   1.033  10.859   8.490  0.0175 -0.1923 -0.2270
16731SOL    HW168185   1.023  10.801   8.566 -0.0299  0.2566  0.1143
16731SOL    HW268186   0.968  10.928   8.504 -0.0227 -0.1270 -0.7010
16732SOL     OW68187   8.588   6.331  10.903  0.4219  0.2411 -0.8261
16732SOL    HW168188   8.596   6.272  10.978  0.5925  0.6198 -0.5433
16732SOL    HW268189   8.678   6.357  10.882  0.3188  0.7590 -0.6567
16733SOL     OW68190   6.113   9.569   0.829 -0.0613  0.0608 -0.2715
16733SOL    HW168191   6.101   9.613   0.744  0.8794 -0.4660 -0.6883
16733SOL    HW268192   6.148   9.637   0.886 -1.5901  0.6721 -0.0247
16734SOL     OW68193   3.250  12.848   4.987  0.0742  0.0599 -0.1394
16734SOL    HW168194   3.256  12.810   4.899  0.4985 -1.4272  0.4956
16734SOL    HW268195   3.327  12.815   5.033 -0.7549 -0.1710  1.1434
16735SOL     OW68196   5.078   6.126   2.323  0.0325 -0.0028 -0.6535
16735SOL    HW168197   5.134   6.203   2.329  0.2855 -0.2375  0.1165
16735SOL    HW268198   5.060   6.101   2.413  0.1264 -0.9669 -0.8813
16736SOL     OW68199  10.605  10.659   1.966 -0.1703  0.0784  0.4617
16736SOL    HW168200  10.572  10.736   2.013  1.6563  1.6436 -0.6763
16736SOL    HW268201  10.684  10.634   2.014 -0.9612 -1.3901  1.0596
16737SOL     OW68202   6.364  12.216   1.401  0.4210  0.2909 -0.0013
16737SOL    HW168203   6.301  12.156   1.440  1.2386 -2.2669 -2.2415
16737SOL    HW268204   6.318  12.254   1.326  1.4160 -1.7276 -1.7587
16738SOL     OW68205   6.110   3.658   6.972  0.3126 -0.2715 -0.4059
16738SOL    HW168206   6.039   3.602   7.003 -0.5262  1.1945  0.4769
16738SOL    HW268207   6.154   3.686   7.052  2.0186 -1.2649 -0.9487
16739SOL     OW68208   6.167   4.301   3.249  0.1989 -0.0944 -0.5778
16739SOL    HW168209   6.075   4.326   3.261 -0.0703 -0.0994 -2.3559
16739SOL    HW268210   6.217   4.377   3.280 -0.3241 -0.5788  1.5874
16740SOL     OW68211  10.272  12.872   2.603 -0.0796 -0.5175  0.1606
16740SOL    HW168212  10.329  12.911   2.669  0.0983  0.0632 -0.3350
16740SOL    HW268213  10.294  12.779   2.605 -0.9503 -0.7226  1.7864
16741SOL     OW68214   1.380   0.988   7.606 -0.2554  0.3615 -0.1456
16741SOL    HW168215   1.355   1.031   7.688 -1.0044 -0.2940 -0.0148
16741SOL    HW268216   1.465   0.947   7.625 -0.4350  0.1937  0.3119
16742SOL     OW68217  10.435  12.426  13.758  0.1203  0.2972 -0.1044
16742SOL    HW168218  10.490  12.381  13.822  0.9320  0.0660 -0.9361
16742SOL    HW268219  10.476  12.406  13.673 -1.6522 -0.4691 -0.8310
16743SOL     OW68220   1.271   1.705  10.474  0.5975  0.5583 -0.7528
16743SOL    HW168221   1.219   1.775  10.513  0.2342 -0.0293 -0.1660
16743SOL    HW268222   1.293   1.648  10.548  0.8448  0.0292 -1.2345
16744SOL     OW68223   0.384   2.253  12.688 -0.3484  0.3539 -0.0201
16744SOL    HW168224   0.388   2.312  12.613 -1.0444  2.1041  1.2670
16744SOL    HW268225   0.404   2.308  12.763 -1.0755 -1.0502  1.2546
16745SOL     OW68226   7.514   3.669   8.973  0.5214  0.2864  0.5671
16745SOL    HW168227   7.549   3.746   9.019  1.7260 -1.6972  3.2033
16745SOL    HW268228   7.438   3.642   9.024  0.1938 -0.3837 -0.2504
16746SOL     OW68229  13.847  13.629   0.408 -0.3902  0.2229 -0.2699
16746SOL    HW168230  13.846  13.638   0.504  1.2766  1.2508 -0.3011
16746SOL    HW268231  13.886  13.543   0.392 -0.5543  0.1027 -0.0246
16747SOL     OW68232  12.908   5.130  12.943 -0.2907 -0.4244  0.6844
16747SOL    HW168233  12.884   5.206  12.889  1.4903 -0.7650 -0.7251
16747SOL    HW268234  12.826   5.086  12.961 -0.9964 -0.5792 -2.3166
16748SOL     OW68235   7.471   3.584   7.734  0.0318 -0.2513 -0.6005
16748SOL    HW168236   7.459   3.626   7.820 -0.0809  1.7047 -1.5309
16748SOL    HW268237   7.564   3.561   7.732  0.7816  2.4880 -1.1040
16749SOL     OW68238   5.096  13.475  11.058  0.5114  0.2662 -0.0401
16749SOL    HW168239   5.183  13.486  11.020  0.1820  0.0333 -0.8685
16749SOL    HW268240   5.061  13.564  11.065  0.1276  0.2419 -1.3685
16750SOL     OW68241   3.543   7.795   4.285  0.1486  0.4472 -0.1842
16750SOL    HW168242   3.534   7.830   4.374  1.1569 -0.4613  0.2895
16750SOL    HW268243   3.630   7.824   4.257 -0.2585  0.9324 -0.9827
16751SOL     OW68244   4.800   8.768  12.320 -0.8035  0.4830 -0.3805
16751SOL    HW168245   4.742   8.793  12.248 -0.7580  1.6848 -0.0157
16751SOL    HW268246   4.787   8.836  12.386  0.4553  0.3470  0.0266
16752SOL     OW68247   0.443  12.291  13.593 -0.1255  0.4159 -0.6939
16752SOL    HW168248   0.379  12.226  13.621  0.7359 -0.3103 -0.3755
16752SOL    HW268249   0.391  12.369  13.575 -1.0273  0.0253  0.1354
16753SOL     OW68250   4.373   2.526  10.051 -0.5011 -0.4821  0.5402
16753SOL    HW168251   4.281   2.498  10.059 -1.0510  1.1514  0.2693
16753SOL    HW268252   4.397   2.553  10.140 -1.2693  1.8901  0.0857
16754SOL     OW68253  11.668   9.680   0.636  0.0937  0.3175 -0.0690
16754SOL    HW168254  11.716   9.628   0.572 -0.5861 -1.4350  0.7920
16754SOL    HW268255  11.702   9.653   0.721 -1.8225 -0.4294  0.5232
16755SOL     OW68256   3.943  10.229   9.955 -0.0689  0.1176 -0.0907
16755SOL    HW168257   4.028  10.241   9.913  1.0448  0.7868  2.2411
16755SOL    HW268258   3.903  10.316   9.953 -0.7290 -0.1934 -1.1718
16756SOL     OW68259   1.934   4.593   3.896  0.0256  0.0568  0.0420
16756SOL    HW168260   1.992   4.528   3.858  0.5190 -0.0641  0.9624
16756SOL    HW268261   1.988   4.638   3.961 -0.6118  0.6674  0.1598
16757SOL     OW68262   1.863   1.646  10.118 -0.3096 -0.4350 -0.1735
16757SOL    HW168263   1.816   1.626  10.037 -0.4285  0.7648 -0.4178
16757SOL    HW268264   1.889   1.738  10.108  1.5775 -0.8937  0.2090
16758SOL     OW68265   9.439  11.686   1.703 -0.1806 -0.9095 -0.0870
16758SOL    HW168266   9.356  11.668   1.747  0.4527  0.0157  1.5510
16758SOL    HW268267   9.414  11.734   1.624 -1.1563  0.3501  0.9393
16759SOL     OW68268   8.410   9.836   0.610  0.1135 -0.3695 -0.0651
16759SOL    HW168269   8.481   9.880   0.563  0.7034  0.6549  1.6768
16759SOL    HW268270   8.382   9.899   0.676 -1.4985 -1.2848  0.1802
16760SOL     OW68271  13.901   8.228   0.577 -0.1726  0.1511 -0.0252
16760SOL    HW168272  13.884   8.136   0.597 -0.2636  0.4221  1.2173
16760SOL    HW268273  13.899   8.232   0.481 -1.2574 -0.9287 -0.0760
16761SOL     OW68274   4.584  10.120   6.209  0.1398  0.0580 -0.3423
16761SOL    HW168275   4.565  10.033   6.176  1.8698 -1.4610  2.2661
16761SOL    HW268276   4.671  10.140   6.174 -0.6919  1.2913 -1.8205
16762SOL     OW68277   1.021   0.268   3.567  0.0539  0.2732  0.7456
16762SOL    HW168278   0.943   0.306   3.527 -0.3497 -0.0980  1.1630
16762SOL    HW268279   1.092   0.286   3.505 -0.3615  0.6163  0.3661
16763SOL     OW68280  12.933   4.907   9.534 -0.5484  0.1890 -0.1370
16763SOL    HW168281  12.925   4.975   9.601 -3.2912 -1.5876  1.4844
16763SOL    HW268282  13.028   4.891   9.528  0.1792  3.6407 -0.2047
16764SOL     OW68283  12.361   8.551  11.332 -0.5677  0.0877 -0.8000
16764SOL    HW168284  12.351   8.556  11.427 -0.5593  2.0786 -0.8696
16764SOL    HW268285  12.437   8.494  11.319 -0.4604 -0.0637  0.3914
16765SOL     OW68286  12.744   7.933   4.977 -0.0684 -0.6694 -0.0886
16765SOL    HW168287  12.820   7.894   5.021 -0.4875 -0.7354  0.5962
16765SOL    HW268288  12.669   7.892   5.020 -0.5428  1.1368  0.8969
16766SOL     OW68289   4.381   2.141   8.591  0.2290  0.0980 -0.0450
16766SOL    HW168290   4.416   2.133   8.503 -1.3904 -1.2077 -0.6287
16766SOL    HW268291   4.358   2.051   8.616  0.1666  0.5106  1.5000
16767SOL     OW68292  12.168   2.554   6.024  0.5592  0.3161  0.9237
16767SOL    HW168293  12.235   2.615   6.055  0.3891  1.3880 -0.6856
16767SOL    HW268294  12.209   2.510   5.949 -0.3110  0.5831  0.2680
16768SOL     OW68295   0.112  13.178   3.606  0.3228  0.2962 -0.9590
16768SOL    HW168296   0.077  13.190   3.694  0.3237 -1.0921 -0.7513
16768SOL    HW268297   0.172  13.253   3.595  1.4019 -0.2250  0.7744
16769SOL     OW68298  10.382  10.272   6.955 -0.3078 -0.2485 -0.6310
16769SOL    HW168299  10.303  10.303   6.912 -1.8226 -1.5999  1.0387
16769SOL    HW268300  10.399  10.186   6.917 -1.9270 -1.6630  1.6076
16770SOL     OW68301   0.770   0.083   7.843 -0.1847  0.0692 -0.0082
16770SOL    HW168302   0.819   0.166   7.849 -1.0182  0.5699  0.0169
16770SOL    HW268303   0.838   0.017   7.828  0.3493  1.0070 -2.1387
16771SOL     OW68304   6.941  11.150   5.709  0.1536  0.1119 -0.2080
16771SOL    HW168305   6.846  11.154   5.715  0.0291 -2.4695  0.7764
16771SOL    HW268306   6.963  11.202   5.632 -2.1443 -0.1049 -1.0653
16772SOL     OW68307   9.669  10.932   8.729  0.6463  0.2358 -0.4892
16772SOL    HW168308   9.665  10.940   8.634 -1.4308  1.4025 -0.3715
16772SOL    HW268309   9.734  10.996   8.757  1.0453  0.0965 -1.0846
16773SOL     OW68310  12.017   5.064   0.712  0.1375  0.5511  0.4644
16773SOL    HW168311  12.078   5.075   0.785  0.7886  0.6635 -0.0743
16773SOL    HW268312  12.031   5.141   0.657  1.6124 -0.7425 -1.1315
16774SOL     OW68313   6.703   4.527   8.054 -0.7049 -1.0118 -0.5318
16774SOL    HW168314   6.698   4.600   7.993  0.5968 -0.9125 -0.5355
16774SOL    HW268315   6.791   4.491   8.041 -0.3663 -0.9399  1.3372
16775SOL     OW68316  10.832   2.981   4.981 -0.3676  0.4799 -0.3656
16775SOL    HW168317  10.792   2.916   4.922 -0.2882 -0.3626  0.4847
16775SOL    HW268318  10.788   2.967   5.065 -0.1262  1.3278 -0.0931
16776SOL     OW68319   9.825  12.530   2.126  0.0896 -0.0118 -0.2163
16776SOL    HW168320   9.882  12.479   2.184  0.8106 -0.4992 -1.3101
16776SOL    HW268321   9.740  12.528   2.168  0.3159 -1.3692  0.2353
16777SOL     OW68322   8.304   7.689   6.044  0.2687 -0.2471  0.4681
16777SOL    HW168323   8.277   7.725   6.128  1.4285 -0.7482  1.0772
16777SOL    HW268324   8.396   7.716   6.035  0.7045 -1.7054  0.2271
16778SOL     OW68325  13.284   6.113   5.906 -0.0683  0.4768 -0.3212
16778SOL    HW168326  13.236   6.185   5.947  0.7869  0.7420  0.2570
16778SOL    HW268327  13.359   6.098   5.964  1.2099  0.9016 -1.7813
16779SOL     OW68328   5.552   7.674   4.017  0.5866  0.0207  0.0172
16779SOL    HW168329   5.644   7.683   3.992  0.8568  0.5741  1.1064
16779SOL    HW268330   5.532   7.582   4.004  0.9250  0.1178 -1.3854
16780SOL     OW68331   9.150  10.883   8.438 -0.2126  0.2186  0.1520
16780SOL    HW168332   9.122  10.974   8.431  0.2056  0.3683  0.3838
16780SOL    HW268333   9.227  10.877   8.382  0.6338  0.3792  1.2577
16781SOL     OW68334   2.410   6.557   9.761  0.0280 -0.2356  0.5860
16781SOL    HW168335   2.408   6.604   9.845 -1.0758  0.0322  0.4205
16781SOL    HW268336   2.503   6.539   9.746  0.4975  1.9031  0.6505
16782SOL     OW68337   9.379   7.620   4.254  0.4244 -0.6203  0.0500
16782SOL    HW168338   9.302   7.565   4.236  0.5717 -0.5580 -0.8383
16782SOL    HW268339   9.442   7.560   4.293 -0.2178 -0.5813  1.1856
16783SOL     OW68340   2.718   6.541  10.487  0.4478  0.3368 -0.7659
16783SOL    HW168341   2.779   6.598  10.535  0.7575 -1.1529  0.7114
16783SOL    HW268342   2.709   6.464  10.543 -0.2770 -0.8930 -2.5133
16784SOL     OW68343  11.449  13.617   4.320  0.1394  0.1270  0.3951
16784SOL    HW168344  11.513  13.610   4.391 -0.0975  1.5522  0.7795
16784SOL    HW268345  11.452  13.710   4.295 -0.4909 -0.1623 -0.7883
16785SOL     OW68346   8.322   1.822  11.405  0.3138 -0.0822 -0.2767
16785SOL    HW168347   8.318   1.881  11.330 -2.2688 -0.6568 -0.7082
16785SOL    HW268348   8.375   1.748  11.375 -1.2960 -0.6695 -1.9143
16786SOL     OW68349  13.465  12.144   7.320  0.4884  0.6712 -0.0076
16786SOL    HW168350  13.522  12.218   7.296  0.5137  0.3210 -1.0735
16786SOL    HW268351  13.501  12.070   7.272 -0.0650  0.1494  0.3736
16787SOL     OW68352   8.708  11.598   3.415 -0.0399 -0.1148  0.1236
16787SOL    HW168353   8.711  11.531   3.348  2.0284 -0.5173  0.5630
16787SOL    HW268354   8.632  11.575   3.469 -0.7369 -0.7199 -1.0849
16788SOL     OW68355   7.220   8.845   0.814  0.3111  0.6320 -0.2552
16788SOL    HW168356   7.174   8.907   0.756  1.0294  0.2816 -1.2385
16788SOL    HW268357   7.154   8.816   0.876 -0.4778  1.0824 -0.8614
16789SOL     OW68358   2.846  13.726   0.972  0.3362  0.4720  0.1584
16789SOL    HW168359   2.794  13.678   1.037  1.0028  0.0895  0.4130
16789SOL    HW268360   2.781  13.776   0.922 -0.3653 -0.6165 -0.0548
16790SOL     OW68361   6.994   2.032   2.958  0.3822 -0.6230 -0.5690
16790SOL    HW168362   7.066   2.060   2.902 -0.8917 -1.6407 -2.8474
16790SOL    HW268363   6.921   2.089   2.935  0.6706  1.3314  2.7020
16791SOL     OW68364  13.140  13.536   5.314 -0.4825 -0.1106 -0.1927
16791SOL    HW168365  13.048  13.522   5.334 -0.2182 -1.8284 -0.0579
16791SOL    HW268366  13.186  13.516   5.396  0.1162 -0.6930 -0.6627
16792SOL     OW68367   6.701   7.532  11.668 -0.0418 -0.2975  0.1366
16792SOL    HW168368   6.649   7.454  11.646 -0.2073  0.0312 -0.6812
16792SOL    HW268369   6.743   7.510  11.752  0.7721 -1.6931 -0.5928
16793SOL     OW68370   0.359   1.372  13.312  0.5915  0.1795 -0.3951
16793SOL    HW168371   0.279   1.421  13.331  0.8140  0.5171 -0.3098
16793SOL    HW268372   0.385   1.335  13.397 -0.1913 -1.0372 -0.6690
16794SOL     OW68373  10.309   2.880   0.564  0.0504 -0.9235  0.5439
16794SOL    HW168374  10.304   2.974   0.547  1.8462 -1.2725 -2.9435
16794SOL    HW268375  10.398   2.866   0.598 -0.0320 -1.4047  0.5741
16795SOL     OW68376  13.041  12.404   2.542  0.3452 -0.0178 -0.1282
16795SOL    HW168377  12.966  12.362   2.499  0.4893 -1.1115  0.6433
16795SOL    HW268378  13.117  12.355   2.512  1.0611  2.3503 -2.5113
16796SOL     OW68379  11.974   2.900  12.840  0.4015  0.3783  0.3161
16796SOL    HW168380  11.892   2.852  12.835 -0.2197  1.4590 -0.4681
16796SOL    HW268381  12.040   2.840  12.806 -0.1712 -0.2823  0.3550
16797SOL     OW68382  11.209   2.916   8.031  0.2465 -0.0465  0.4432
16797SOL    HW168383  11.228   2.841   8.087 -0.4049 -0.0652  0.6424
16797SOL    HW268384  11.238   2.889   7.943  0.5991 -0.2844  0.6295
16798SOL     OW68385   5.706   2.646   5.129  0.6523  0.6901  0.2958
16798SOL    HW168386   5.624   2.612   5.093 -0.1859 -0.1993  2.7797
16798SOL    HW268387   5.721   2.728   5.082 -0.7412  0.0323 -1.3879
16799SOL     OW68388   8.792   1.817   7.481 -0.3554 -0.0385 -0.2134
16799SOL    HW168389   8.882   1.798   7.455 -0.1203  0.6008  0.1105
16799SOL    HW268390   8.798   1.836   7.575 -0.8717 -0.2377 -0.1354
16800SOL     OW68391   4.628   6.296  13.717  0.1912 -0.0246  0.0028
16800SOL    HW168392   4.575   6.297  13.797 -0.6760 -0.6322 -0.5441
16800SOL    HW268393   4.718   6.282  13.748  0.4480  3.2093  1.1183
16801SOL     OW68394   7.762   4.200  12.004 -0.6339 -0.1663 -0.1520
16801SOL    HW168395   7.850   4.227  11.975  0.1909 -0.8249  1.5531
16801SOL    HW268396   7.714   4.182  11.924  0.9586 -0.2704 -1.1279
16802SOL     OW68397   7.406   6.139   1.656 -0.0332 -0.3242 -0.1126
16802SOL    HW168398   7.356   6.068   1.694 -1.2128 -0.3870 -1.7140
16802SOL    HW268399   7.421   6.200   1.729  0.0330 -1.6530  1.0074
16803SOL     OW68400  11.514  10.319  14.123 -0.0052 -0.0492 -0.0497
16803SOL    HW168401  11.541  10.366  14.202  1.0468 -1.4645  0.4685
16803SOL    HW268402  11.591  10.267  14.098 -0.4501  0.0564 -1.7869
16804SOL     OW68403  13.696   1.697   4.722 -0.7834  0.3679 -0.5272
16804SOL    HW168404  13.786   1.664   4.730 -0.6583  1.0003  1.1163
16804SOL    HW268405  13.645   1.622   4.693  0.2708 -0.0016 -1.4609
16805SOL     OW68406   2.825  10.467   7.779  0.4320 -0.2520 -0.1541
16805SOL    HW168407   2.800  10.559   7.781  0.6725 -0.1999  1.0365
16805SOL    HW268408   2.919  10.468   7.761  0.7979 -0.1629  1.5915
16806SOL     OW68409   4.554   3.006  11.728  0.1067 -0.7551  0.0995
16806SOL    HW168410   4.587   3.021  11.816  1.4721 -0.1558 -0.4803
16806SOL    HW268411   4.632   2.988  11.675 -0.6750 -1.0963 -0.9896
16807SOL     OW68412   6.421  13.197   8.448  0.2470  0.3630 -0.3684
16807SOL    HW168413   6.410  13.119   8.502 -1.1615  0.5485 -0.3604
16807SOL    HW268414   6.475  13.255   8.502  0.5463 -0.2443 -0.0014
16808SOL     OW68415   2.632   2.713   9.446  0.0198  0.5303  0.3179
16808SOL    HW168416   2.716   2.753   9.423 -0.0509  0.8691  0.6437
16808SOL    HW268417   2.639   2.624   9.414  0.1965  0.7894 -0.3830
16809SOL     OW68418   5.962  13.899   6.327 -0.6995  0.0558 -0.2603
16809SOL    HW168419   5.885  13.884   6.382  0.7013 -0.2861  1.6880
16809SOL    HW268420   5.957  13.831   6.260  0.2895 -3.0838  2.5819
16810SOL     OW68421  12.473   2.496  11.284 -0.6369 -0.4137  0.2694
16810SOL    HW168422  12.507   2.414  11.250 -1.1897 -0.4344 -0.2441
16810SOL    HW268423  12.390   2.472  11.326 -0.9471 -0.0754 -0.1418
16811SOL     OW68424  11.482   6.769   8.415  0.8016  0.4382 -0.2825
16811SOL    HW168425  11.511   6.731   8.498 -0.7123 -0.7954 -0.2929
16811SOL    HW268426  11.467   6.861   8.435  2.2058  0.5650  0.3346
16812SOL     OW68427   2.707  12.431   7.341  0.5917  0.0148  0.1728
16812SOL    HW168428   2.791  12.410   7.299  0.1826  1.8419 -1.7256
16812SOL    HW268429   2.652  12.464   7.269 -2.2109 -2.1962  1.0875
16813SOL     OW68430   4.494   2.982   0.922  0.1117 -0.3986 -0.0461
16813SOL    HW168431   4.576   2.935   0.936  0.3791 -0.1167 -0.5861
16813SOL    HW268432   4.450   2.982   1.007  1.5677  1.1172  0.7748
16814SOL     OW68433   7.425   8.531  10.134  0.2075 -0.4673  0.1232
16814SOL    HW168434   7.519   8.537  10.119  0.4017 -1.8651  0.6655
16814SOL    HW268435   7.415   8.522  10.228 -0.4891 -0.2021  0.0861
16815SOL     OW68436   9.336  14.030   5.208 -0.8482  0.0150 -0.0992
16815SOL    HW168437   9.243  14.006   5.198 -0.9179  0.3279 -0.2244
16815SOL    HW268438   9.345  14.109   5.155 -0.4530 -0.1498 -0.2766
16816SOL     OW68439   2.517   9.380   3.419 -0.6819 -0.3026 -0.3760
16816SOL    HW168440   2.512   9.474   3.398 -1.5634 -0.7273 -2.2588
16816SOL    HW268441   2.522   9.336   3.334 -3.3397 -2.0993  0.2517
16817SOL     OW68442   9.026  10.841   7.661 -0.0364  0.2273  0.1878
16817SOL    HW168443   9.082  10.849   7.738  1.1178 -0.9064 -0.4869
16817SOL    HW268444   9.085  10.858   7.587 -1.0988  1.1879 -0.4643
16818SOL     OW68445   7.095   8.846   0.515 -0.0376  0.1088  0.5353
16818SOL    HW168446   7.106   8.781   0.584 -1.5721  0.0274  0.7348
16818SOL    HW268447   7.128   8.803   0.436  0.6599 -0.2173  0.9935
16819SOL     OW68448   5.357  13.522  12.162 -0.4541 -0.3225 -0.2288
16819SOL    HW168449   5.354  13.581  12.238 -0.9574 -0.1700 -0.3625
16819SOL    HW268450   5.309  13.444  12.191 -2.5121  0.5638 -1.0766
16820SOL     OW68451  10.201   5.574   0.270  0.1319  0.1448  0.3118
16820SOL    HW168452  10.208   5.553   0.177  1.4643 -0.2397  0.4749
16820SOL    HW268453  10.120   5.624   0.278  0.6070  1.2357 -1.2638
16821SOL     OW68454   6.397   8.818   1.713  0.0882  0.2504 -0.8464
16821SOL    HW168455   6.381   8.903   1.671  1.1643  1.0338  0.2585
16821SOL    HW268456   6.480   8.788   1.676  0.3060  0.2520 -0.3668
16822SOL     OW68457   1.370  11.231   3.909  0.3385  0.1178 -0.5881
16822SOL    HW168458   1.441  11.186   3.955 -0.5167 -3.2148 -2.2365
16822SOL    HW268459   1.332  11.165   3.852 -2.4292  2.4777 -1.7566
16823SOL     OW68460   5.156   0.476  10.724  0.7014  0.3139  0.6925
16823SOL    HW168461   5.239   0.433  10.705  1.3480  1.9515 -0.5476
16823SOL    HW268462   5.089   0.410  10.705  1.6829 -0.6843  0.6171
16824SOL     OW68463   2.104   8.755   5.192 -0.0029  0.0872  1.2039
16824SOL    HW168464   2.149   8.840   5.185 -0.0074 -0.0091 -0.3087
16824SOL    HW268465   2.055   8.761   5.274  0.1325  1.4776  1.2134
16825SOL     OW68466  11.127   3.645   5.076 -0.5651  0.6288 -0.1312
16825SOL    HW168467  11.212   3.648   5.118 -1.2825 -1.6760  1.6928
16825SOL    HW268468  11.089   3.731   5.093  1.3912  1.7355 -1.0902
16826SOL     OW68469   0.291   9.053  12.571  0.0327  0.1743 -0.6014
16826SOL    HW168470   0.319   8.969  12.535 -1.0377 -0.3665 -0.2328
16826SOL    HW268471   0.232   9.089  12.505 -2.7225 -1.2719  0.8950
16827SOL     OW68472   7.398   8.549   3.313 -0.8375  0.0767  0.3764
16827SOL    HW168473   7.357   8.507   3.389 -1.2516  0.8686  0.6028
16827SOL    HW268474   7.330   8.604   3.276 -0.3754  0.3732 -0.0460
16828SOL     OW68475   3.548   8.299   0.191  0.4026  0.0097  0.7235
16828SOL    HW168476   3.642   8.297   0.173  0.3115 -0.8862  0.2830
16828SOL    HW268477   3.542   8.295   0.286  0.8175  1.0211  0.8082
16829SOL     OW68478   0.392   8.593   9.981  0.0114 -0.3341  0.0739
16829SOL    HW168479   0.450   8.564   9.910 -0.6551 -2.1028  0.2173
16829SOL    HW268480   0.407   8.531  10.052 -1.6784 -0.5225  0.3096
16830SOL     OW68481   6.363  13.480  12.263 -0.0993 -0.6399 -0.6184
16830SOL    HW168482   6.403  13.497  12.348  0.9667  0.4178 -1.2988
16830SOL    HW268483   6.336  13.566  12.232  1.5209 -0.6800 -2.2952
16831SOL     OW68484   1.754   9.896   7.568  0.7756 -0.1296 -0.2812
16831SOL    HW168485   1.791   9.845   7.641  1.3537  0.1840 -0.3495
16831SOL    HW268486   1.695   9.958   7.610 -0.5681 -1.3776 -0.2578
16832SOL     OW68487   8.287   4.058   3.857 -0.2247  0.4366  0.4045
16832SOL    HW168488   8.268   3.974   3.899  0.8564 -0.9712 -1.7173
16832SOL    HW268489   8.383   4.066   3.860 -0.1057  0.3228 -1.5856
16833SOL     OW68490  14.153   7.047   0.367 -0.1197 -0.2965 -0.6790
16833SOL    HW168491  14.228   7.091   0.327  0.9909 -0.9379  0.6489
16833SOL    HW268492  14.077   7.096   0.334  1.0259  2.7358  0.8130
16834SOL     OW68493   1.638   6.582   4.280  0.2102 -0.6132  0.2500
16834SOL    HW168494   1.683   6.502   4.256 -0.3741 -0.6726 -0.7309
16834SOL    HW268495   1.556   6.579   4.231  0.3572  0.7689 -0.1373
16835SOL     OW68496   3.471   4.252  11.749  0.3173 -0.9000 -0.1231
16835SOL    HW168497   3.551   4.299  11.773  0.3632 -0.8670 -0.3394
16835SOL    HW268498   3.409   4.272  11.820  0.7165 -1.4869  0.4064
16836SOL     OW68499  10.372  10.653   5.702 -0.1825  0.3203  0.1296
16836SOL    HW168500  10.331  10.615   5.780  0.5673  0.5173  0.6207
16836SOL    HW268501  10.337  10.742   5.698 -2.0367 -0.3757 -1.0881
16837SOL     OW68502   9.699   0.994   0.568  0.3215  0.3379  0.1049
16837SOL    HW168503   9.686   0.957   0.480 -0.1567  1.9994 -0.5515
16837SOL    HW268504   9.611   1.007   0.602  0.4914  0.7589  0.3816
16838SOL     OW68505   2.030   3.733  10.108 -0.4080  0.2606  0.1351
16838SOL    HW168506   2.059   3.741  10.016 -1.0311 -0.3744 -0.1193
16838SOL    HW268507   2.109   3.709  10.156 -0.5957 -2.2641 -0.6737
16839SOL     OW68508   6.061   6.066   1.481 -0.0035 -0.7834 -0.5551
16839SOL    HW168509   6.110   6.030   1.407  1.7682  1.4523 -0.5678
16839SOL    HW268510   6.058   6.160   1.465  0.8739 -0.1424  2.3836
16840SOL     OW68511   8.580  13.753   1.926  0.4624 -0.2561  0.2052
16840SOL    HW168512   8.486  13.734   1.932  0.2248  0.7297 -0.2813
16840SOL    HW268513   8.602  13.734   1.835  1.5558 -3.9755  1.0786
16841SOL     OW68514  12.487  11.009   6.049 -0.0807 -0.2648 -0.3621
16841SOL    HW168515  12.504  11.096   6.014  0.9160  0.0528  0.8551
16841SOL    HW268516  12.554  10.954   6.008  1.2501  0.1561  1.1608
16842SOL     OW68517  10.642   9.041   0.376 -1.1347  0.3705 -0.0395
16842SOL    HW168518  10.691   9.121   0.397 -0.7650 -0.0560  0.7316
16842SOL    HW268519  10.553   9.073   0.357 -0.8331  1.0297 -0.3797
16843SOL     OW68520  13.579   3.872   5.241  0.2897  0.6927  0.0888
16843SOL    HW168521  13.538   3.931   5.178  1.1290 -0.7743 -1.9798
16843SOL    HW268522  13.644   3.926   5.285 -0.7031  1.9089  0.1271
16844SOL     OW68523   5.650  12.400   7.426  0.3752 -0.0641  0.2210
16844SOL    HW168524   5.602  12.365   7.352  1.1076  0.2224 -0.3996
16844SOL    HW268525   5.740  12.373   7.412  0.5350  0.0458  0.9756
16845SOL     OW68526   1.371  13.924   7.963 -0.1531  0.5157  0.0737
16845SOL    HW168527   1.378  13.899   8.055 -0.0032 -1.4736 -0.4454
16845SOL    HW268528   1.457  13.905   7.926 -0.3754  0.7828 -0.6017
16846SOL     OW68529   7.340   0.267   1.779 -0.5724 -0.4260 -0.4867
16846SOL    HW168530   7.384   0.254   1.863 -0.4620  0.1043 -0.4616
16846SOL    HW268531   7.257   0.221   1.789  0.1363 -1.7913 -0.6859
16847SOL     OW68532   1.461   9.917   9.163  0.4682 -0.1274  0.3449
16847SOL    HW168533   1.503   9.970   9.231 -0.7149  0.6525  0.4991
16847SOL    HW268534   1.425   9.842   9.209  2.0798 -1.0836  0.1380
16848SOL     OW68535   0.246   0.132  10.552 -0.1491  0.3876  0.1523
16848SOL    HW168536   0.251   0.213  10.502 -0.0522 -0.7383 -1.7604
16848SOL    HW268537   0.152   0.120  10.569 -0.1132  1.1847  0.9826
16849SOL     OW68538   8.595   1.169   8.315  0.8263  0.1343  0.0621
16849SOL    HW168539   8.626   1.160   8.225  0.6006 -0.0243 -0.0029
16849SOL    HW268540   8.664   1.131   8.369  0.7275 -0.2611 -0.0847
16850SOL     OW68541  11.023   8.368   9.768  0.6417 -0.2284 -0.3413
16850SOL    HW168542  10.979   8.283   9.759 -1.6112  1.1024 -4.0336
16850SOL    HW268543  10.971   8.416   9.832  1.5063 -1.2649  1.2150
16851SOL     OW68544  13.769   1.612  10.995 -0.4223  0.1875 -1.1515
16851SOL    HW168545  13.789   1.692  11.043  0.0887 -0.4665 -0.2467
16851SOL    HW268546  13.679   1.625  10.964 -0.8278  0.5688  0.1144
16852SOL     OW68547   8.913   0.376  12.207  0.3382 -0.5060  0.4338
16852SOL    HW168548   8.879   0.395  12.120 -1.1421 -0.6609  0.9531
16852SOL    HW268549   9.008   0.378  12.196  0.2351  2.0103 -0.6321
16853SOL     OW68550   6.838  13.229   9.698 -0.7369  0.3836 -0.3683
16853SOL    HW168551   6.771  13.296   9.682  0.4629  1.7462  0.2010
16853SOL    HW268552   6.831  13.210   9.791 -0.8509 -0.0559 -0.4644
16854SOL     OW68553   8.895  10.108  12.272  0.0052 -0.2152  0.1795
16854SOL    HW168554   8.909  10.059  12.353 -1.3634 -1.9292 -0.5463
16854SOL    HW268555   8.972  10.088  12.219 -1.1926 -3.0098 -0.7029
16855SOL     OW68556   8.096   9.945  11.108  0.0118 -0.5265  0.1975
16855SOL    HW168557   8.135  10.004  11.044 -1.0588  0.2070  0.1992
16855SOL    HW268558   8.163   9.878  11.123  0.9894  0.3223 -0.2897
16856SOL     OW68559   1.047   0.963   8.739  0.1618 -0.3732  0.1061
16856SOL    HW168560   0.962   1.003   8.757  0.1068 -0.6794  0.5530
16856SOL    HW268561   1.111   1.030   8.763  0.0498 -0.2345  0.0148
16857SOL     OW68562   4.472  11.975   5.455  0.5642  0.1069 -0.2235
16857SOL    HW168563   4.494  11.945   5.543 -0.7545  0.9886  0.4298
16857SOL    HW268564   4.475  11.895   5.402 -0.2297 -0.7396  0.9480
16858SOL     OW68565   5.220   8.095  11.396 -0.3254 -0.3646 -0.3707
16858SOL    HW168566   5.259   8.173  11.357 -0.1172  1.0373  2.3525
16858SOL    HW268567   5.128   8.099  11.370 -0.4018  1.0676  0.0166
16859SOL     OW68568   3.526   8.848   9.480 -0.2023  0.3790  0.2142
16859SOL    HW168569   3.528   8.915   9.547 -1.5351  0.3134  0.3529
16859SOL    HW268570   3.587   8.878   9.413 -0.7600  1.7328  0.2823
16860SOL     OW68571  11.177   3.045   7.045  0.0766 -0.5523  0.0783
16860SOL    HW168572  11.174   2.953   7.069  0.3211 -0.7222 -0.5124
16860SOL    HW268573  11.239   3.085   7.107  1.1712 -1.0965 -0.6332
16861SOL     OW68574  13.461   7.516   2.958  0.2376 -0.1869  0.0930
16861SOL    HW168575  13.547   7.520   3.000  0.7493 -0.7856 -0.8756
16861SOL    HW268576  13.478   7.530   2.865 -0.5387 -1.6886 -0.3083
16862SOL     OW68577   7.941   2.971   1.424  0.5070  0.9845  0.2992
16862SOL    HW168578   8.004   2.908   1.388  0.3619  0.3886  1.0677
16862SOL    HW268579   7.993   3.049   1.442  1.1714  0.2909  1.5034
16863SOL     OW68580   9.889   7.238   3.520 -0.2652 -0.2203 -0.4458
16863SOL    HW168581   9.822   7.306   3.522  0.1919  0.2223 -0.1093
16863SOL    HW268582   9.850   7.165   3.567 -0.4248  0.1180 -0.0539
16864SOL     OW68583   9.524   9.505  11.073  0.3070  0.3998 -0.1863
16864SOL    HW168584   9.444   9.455  11.055  0.8692 -0.8602  0.6436
16864SOL    HW268585   9.574   9.449  11.133  1.6386  1.3306 -0.3824
16865SOL     OW68586   2.992  13.000  10.503  0.0102  0.8463 -0.6144
16865SOL    HW168587   2.963  12.912  10.527  0.4095  0.7449 -0.4915
16865SOL    HW268588   3.048  13.028  10.576 -1.7789  2.0534  0.3728
16866SOL     OW68589   4.604   2.275  13.260  0.2785 -0.0081 -0.3382
16866SOL    HW168590   4.524   2.324  13.243  0.1269 -0.8994 -2.5490
16866SOL    HW268591   4.597   2.249  13.352 -1.5859  0.6262 -0.2596
16867SOL     OW68592  11.617  10.733   8.485  0.0274 -0.3732  0.2888
16867SOL    HW168593  11.655  10.702   8.567 -0.1115 -3.3027 -0.6328
16867SOL    HW268594  11.535  10.685   8.476 -1.0708  1.5617 -0.5248
16868SOL     OW68595  12.694  12.962   2.308  0.6059 -0.1546  0.1262
16868SOL    HW168596  12.612  13.011   2.314  0.5017 -0.2056 -0.7335
16868SOL    HW268597  12.667  12.871   2.298  0.8050 -0.5538  2.6536
16869SOL     OW68598  14.042   8.622  12.447  0.0374 -0.5648  0.0035
16869SOL    HW168599  14.068   8.533  12.470 -0.4345 -0.3403  1.4703
16869SOL    HW268600  13.959   8.611  12.401 -0.4096 -0.8317  0.8667
16870SOL     OW68601   3.245   3.297   6.502  0.0566  0.0832 -1.2591
16870SOL    HW168602   3.153   3.313   6.482 -0.2894 -2.1174 -1.7398
16870SOL    HW268603   3.249   3.304   6.598 -1.1011 -1.7231 -1.0172
16871SOL     OW68604   6.198  14.121   1.732  0.0650 -0.0689  0.2720
16871SOL    HW168605   6.233  14.046   1.780  0.3976  0.7908  1.4175
16871SOL    HW268606   6.267  14.187   1.738 -0.1041  0.2346 -0.9809
16872SOL     OW68607  10.868  13.433  11.910 -0.0118  0.1878  0.4645
16872SOL    HW168608  10.897  13.439  11.819 -1.9482 -0.6665 -0.2438
16872SOL    HW268609  10.773  13.430  11.906 -0.1116 -1.3979  2.4176
16873SOL     OW68610  13.847   8.439   5.389 -0.9582 -0.5582 -0.3882
16873SOL    HW168611  13.876   8.385   5.316 -1.1474 -1.8185  0.4349
16873SOL    HW268612  13.909   8.512   5.391 -0.9207 -0.5382 -1.7458
16874SOL     OW68613   4.406   9.985  11.289 -0.2056 -0.6712 -0.4934
16874SOL    HW168614   4.485  10.039  11.291  0.4710 -1.5473  2.8363
16874SOL    HW268615   4.337  10.044  11.319 -0.7965 -0.0780 -2.8168
16875SOL     OW68616   8.028   0.057  10.820  0.4739 -0.5213  0.3419
16875SOL    HW168617   8.061  -0.022  10.862  1.7069 -0.5138 -0.5671
16875SOL    HW268618   7.959   0.088  10.879 -0.7416 -2.7944  0.2506
16876SOL     OW68619  13.301   4.451   0.700 -0.2940  0.0916  0.2634
16876SOL    HW168620  13.230   4.449   0.765  1.0520  2.4997  1.9830
16876SOL    HW268621  13.315   4.360   0.677 -0.7432 -0.9421  3.5567
16877SOL     OW68622   1.997   2.223   9.156  0.3208  0.3349 -0.1188
16877SOL    HW168623   1.905   2.206   9.136  0.6359 -0.8090 -0.6782
16877SOL    HW268624   2.030   2.274   9.082  0.3809 -0.1171 -0.4065
16878SOL     OW68625   4.239   3.096   9.606 -0.0809 -0.3442  0.7708
16878SOL    HW168626   4.283   3.030   9.659 -0.0030 -1.7888 -1.0070
16878SOL    HW268627   4.173   3.047   9.557 -0.4437  1.0161 -0.1470
16879SOL     OW68628  14.051  10.171  11.565  0.1651 -0.4417  0.5549
16879SOL    HW168629  14.088  10.138  11.483  0.1839 -1.8657  1.0954
16879SOL    HW268630  14.063  10.099  11.627 -0.6221  0.2825  1.5887
16880SOL     OW68631   0.975   5.527  13.631 -0.2182 -0.1702 -0.3674
16880SOL    HW168632   1.044   5.486  13.682 -0.1251  0.0441 -0.3211
16880SOL    HW268633   1.020   5.594  13.579 -0.3314 -0.2970 -0.6313
16881SOL     OW68634   4.505   9.715   7.810 -0.0781  0.0703 -0.0237
16881SOL    HW168635   4.467   9.644   7.861  0.4096  0.5425  1.0308
16881SOL    HW268636   4.592   9.683   7.786  0.0665  0.2256  0.2846
16882SOL     OW68637   1.794  12.308   9.645  0.4521  0.0558  0.4057
16882SOL    HW168638   1.783  12.268   9.559 -0.6010 -1.1922  1.0830
16882SOL    HW268639   1.833  12.393   9.627 -0.0238 -0.0517 -1.3287
16883SOL     OW68640   9.296   2.875  13.578 -0.7165  0.3625  0.1710
16883SOL    HW168641   9.347   2.956  13.569  1.6443 -1.1825 -1.4355
16883SOL    HW268642   9.264   2.877  13.668 -1.6742  3.5436 -0.1000
16884SOL     OW68643   7.939   9.602   5.420  0.6299  0.1228  0.4754
16884SOL    HW168644   7.908   9.692   5.409 -0.8510 -0.5879 -1.8043
16884SOL    HW268645   7.865   9.555   5.458  0.5265 -0.6014 -0.5730
16885SOL     OW68646   4.867   8.742  11.477  0.0010 -0.2321  0.8991
16885SOL    HW168647   4.936   8.682  11.508 -0.3495 -0.6750  0.8370
16885SOL    HW268648   4.914   8.813  11.434  0.4070 -0.7199  0.5287
16886SOL     OW68649   4.154  13.523  13.398 -0.1774 -0.2204  0.0828
16886SOL    HW168650   4.122  13.434  13.409 -3.1479  0.6307 -0.7435
16886SOL    HW268651   4.081  13.578  13.427  1.4446  1.9463  0.2488
16887SOL     OW68652   4.269   6.700  10.289  0.2560 -0.6267 -0.0985
16887SOL    HW168653   4.199   6.634  10.286  0.8820 -1.3575  0.6951
16887SOL    HW268654   4.278   6.722  10.382 -0.5565  1.2968 -0.4292
16888SOL     OW68655  12.637   3.339   5.386  0.3826  0.3447 -0.0127
16888SOL    HW168656  12.580   3.277   5.432  0.8903  0.7643  1.2308
16888SOL    HW268657  12.635   3.311   5.295 -0.2231 -0.8621  0.3565
16889SOL     OW68658  13.187   8.683   9.001 -0.2899 -0.2305  0.1205
16889SOL    HW168659  13.166   8.655   9.091 -1.4031 -0.6104 -0.2381
16889SOL    HW268660  13.101   8.696   8.960  0.1895 -1.0952 -1.2172
16890SOL     OW68661   2.274   7.287  12.614 -0.0551 -0.1404 -0.2669
16890SOL    HW168662   2.367   7.272  12.630  0.0860 -0.4401 -1.2793
16890SOL    HW268663   2.241   7.201  12.587 -0.1979  0.3777 -1.8137
16891SOL     OW68664   6.508  12.758   0.721  0.0247 -0.0002 -0.5036
16891SOL    HW168665   6.422  12.794   0.700 -0.1003 -1.0422 -1.9318
16891SOL    HW268666   6.492  12.666   0.740  0.9406 -0.5535 -2.1632
16892SOL     OW68667   4.627   8.413   0.279 -0.2667 -0.1815 -0.0381
16892SOL    HW168668   4.653   8.501   0.305  0.9138  0.0133 -1.7352
16892SOL    HW268669   4.532   8.418   0.271 -0.2059  0.9972 -0.2693
16893SOL     OW68670   5.100   8.009  12.191 -0.0991  0.0891 -0.0717
16893SOL    HW168671   5.076   8.101  12.180  0.9815  0.3711 -0.1831
16893SOL    HW268672   5.148   7.987  12.111  0.3248 -0.3437  0.2923
16894SOL     OW68673   8.625   6.458   9.914  0.0533 -0.5339  0.2565
16894SOL    HW168674   8.609   6.427   9.824  0.1247 -2.5671  0.8930
16894SOL    HW268675   8.624   6.378   9.967 -0.1919  0.6529  2.1113
16895SOL     OW68676   4.989   5.510  12.884  0.1852  0.1289  0.0488
16895SOL    HW168677   4.984   5.448  12.811 -1.6290  1.0147 -0.6559
16895SOL    HW268678   4.977   5.596  12.842 -1.4797  0.6219  1.4117
16896SOL     OW68679   9.980   8.872   3.714 -0.1694  0.5723 -0.3413
16896SOL    HW168680   9.946   8.952   3.754 -1.3597  0.9964 -2.0489
16896SOL    HW268681   9.923   8.802   3.745 -1.8371  1.0758 -2.1198
16897SOL     OW68682   3.980   9.499   9.730  0.4365  0.8138  0.2755
16897SOL    HW168683   4.030   9.451   9.665  3.0731  1.7620  1.4676
16897SOL    HW268684   3.998   9.454   9.813 -0.9299  1.0306  0.7175
16898SOL     OW68685   3.212   0.467   4.179  0.5768  0.2786  0.6022
16898SOL    HW168686   3.253   0.381   4.187  0.1418  0.0206  0.1019
16898SOL    HW268687   3.118   0.449   4.174  0.5592  0.6630 -1.0241
16899SOL     OW68688  10.751   6.220  12.181  0.1593  0.3481 -0.0960
16899SOL    HW168689  10.824   6.203  12.121  1.4765 -1.8218  1.9280
16899SOL    HW268690  10.674   6.226  12.125  1.5589  0.1809 -2.1191
16900SOL     OW68691  13.992   9.318   7.039 -0.2317 -0.7864 -0.2774
16900SOL    HW168692  14.014   9.341   6.949  1.0630  0.8975  0.4059
16900SOL    HW268693  13.976   9.224   7.037 -0.8084 -0.6830 -2.3567
16901SOL     OW68694  13.100   0.740   5.856 -0.0230 -0.5945  0.0742
16901SOL    HW168695  13.160   0.743   5.781 -2.0000  0.5903 -1.5307
16901SOL    HW268696  13.081   0.831   5.876 -1.5556 -0.9573  0.3481
16902SOL     OW68697  11.361   9.696   1.712 -0.2572  0.0760 -0.1049
16902SOL    HW168698  11.372   9.765   1.647  1.4020 -1.5017 -1.6314
16902SOL    HW268699  11.378   9.738   1.796  0.2672  1.6080 -0.9502
16903SOL     OW68700  12.112   8.916   4.334  0.6873 -0.6076  0.1273
16903SOL    HW168701  12.090   8.927   4.241 -0.0146 -0.3289  0.3233
16903SOL    HW268702  12.207   8.899   4.334  0.9735  0.8186 -0.5410
16904SOL     OW68703  10.598   8.074  11.938 -0.4638 -0.1987  0.2009
16904SOL    HW168704  10.523   8.132  11.935  1.6867  2.7559 -0.3191
16904SOL    HW268705  10.591   8.022  11.858 -1.7738  0.2197  0.0223
16905SOL     OW68706   8.947   2.513   2.431 -0.0649  0.3344  0.0226
16905SOL    HW168707   9.010   2.552   2.369  0.1135  0.0965  0.0512
16905SOL    HW268708   8.923   2.585   2.489 -1.4129  0.9502 -1.2628
16906SOL     OW68709   1.854  13.705   3.734 -0.0072 -0.0830  0.0289
16906SOL    HW168710   1.935  13.706   3.684 -0.1473 -0.0378 -0.2041
16906SOL    HW268711   1.829  13.798   3.740 -1.5965 -0.2131 -2.5136
16907SOL     OW68712  13.273   2.018   1.887 -0.2536  0.4212 -0.5595
16907SOL    HW168713  13.323   1.939   1.906  1.7939  1.9792  0.8981
16907SOL    HW268714  13.182   1.995   1.907  0.5747 -0.9103  2.1166
16908SOL     OW68715  13.864  12.160   6.707 -0.3135  0.4919 -0.0168
16908SOL    HW168716  13.808  12.198   6.639  0.1285  0.3766 -0.4503
16908SOL    HW268717  13.932  12.114   6.658 -0.2241  0.0693  0.5097
16909SOL     OW68718   5.279  10.772   8.207 -0.1156 -0.0859 -0.2088
16909SOL    HW168719   5.189  10.802   8.196  0.1624  1.6124  1.6626
16909SOL    HW268720   5.288  10.754   8.301  0.9885 -2.1000 -0.6259
16910SOL     OW68721   7.054  13.935  10.428 -0.1161  0.3788 -0.4272
16910SOL    HW168722   6.978  13.951  10.485 -0.2435 -0.1306 -0.4486
16910SOL    HW268723   7.032  13.855  10.381  0.7528 -0.1946  0.1092
16911SOL     OW68724   7.697   0.769  10.712 -0.6349 -0.0456 -0.2445
16911SOL    HW168725   7.734   0.856  10.719  1.5426 -0.4530 -4.0095
16911SOL    HW268726   7.760   0.712  10.756  0.8578 -0.1773 -2.3858
16912SOL     OW68727  13.664   7.992   0.506  0.7816 -0.0501 -0.6224
16912SOL    HW168728  13.592   7.937   0.538  1.1132  0.4396  1.0569
16912SOL    HW268729  13.738   7.970   0.562  1.8156 -0.1702 -2.0031
16913SOL     OW68730   9.240  13.269  11.456 -0.0664  0.0555  0.1791
16913SOL    HW168731   9.229  13.183  11.495 -1.4182  0.4198  0.6579
16913SOL    HW268732   9.248  13.252  11.362  1.5488 -0.6962  0.4146
16914SOL     OW68733   7.529   9.588  11.019  0.0949 -0.5243 -0.3275
16914SOL    HW168734   7.437   9.594  11.047  1.4682  0.5289  4.9712
16914SOL    HW268735   7.557   9.501  11.048  1.0739 -0.3501 -0.7340
16915SOL     OW68736  11.538  10.920  12.349  0.0821 -0.4449  0.7136
16915SOL    HW168737  11.541  10.854  12.280 -0.4621  2.5362 -2.4181
16915SOL    HW268738  11.444  10.934  12.365  0.2001 -0.9374  1.9662
16916SOL     OW68739  10.666   9.804  13.924 -0.0498  0.2718  0.2453
16916SOL    HW168740  10.758   9.780  13.916 -0.6331 -1.6953 -1.2800
16916SOL    HW268741  10.667   9.900  13.926  2.0219  0.2963  0.3327
16917SOL     OW68742  11.685   0.461   7.412 -0.2000 -0.1876  0.0259
16917SOL    HW168743  11.672   0.548   7.450  0.5516 -0.2354  0.3961
16917SOL    HW268744  11.716   0.478   7.323 -2.6976 -0.0650 -0.9204
16918SOL     OW68745   7.112  10.941   0.379  0.4116  0.5011 -0.1057
16918SOL    HW168746   7.152  10.857   0.403 -1.2470 -0.4820 -0.5873
16918SOL    HW268747   7.142  10.957   0.289  0.4026  0.1907 -0.1662
16919SOL     OW68748  11.709   5.864   2.913  0.1444 -0.3097  0.4899
16919SOL    HW168749  11.686   5.949   2.875  0.7555  0.0400  0.8792
16919SOL    HW268750  11.769   5.886   2.985  0.6530 -1.0935  0.3144
16920SOL     OW68751   0.476  12.784  12.544 -0.2120 -0.2058  0.3422
16920SOL    HW168752   0.398  12.729  12.537  0.4213 -1.1140  0.1907
16920SOL    HW268753   0.481  12.807  12.637  1.5571 -3.5892  1.2669
16921SOL     OW68754   5.942  11.510   1.861  0.2494 -0.3112  0.2930
16921SOL    HW168755   6.013  11.532   1.801  1.1465 -1.0916  1.0465
16921SOL    HW268756   5.971  11.544   1.946 -0.0336 -1.0936  0.7088
16922SOL     OW68757   4.460  12.084  10.771  0.4324  0.5902 -0.0582
16922SOL    HW168758   4.511  12.107  10.693  1.0571 -0.1628  0.1082
16922SOL    HW268759   4.516  12.021  10.818  0.5223  1.7744  1.5117
16923SOL     OW68760   1.519   3.727  11.193 -0.3211  0.3377 -0.8896
16923SOL    HW168761   1.536   3.818  11.220  0.2018  0.2819 -1.0223
16923SOL    HW268762   1.602   3.682  11.206 -1.1169 -0.6463  1.1924
16924SOL     OW68763   6.288  10.664  12.965  0.3213 -0.3264 -0.0865
16924SOL    HW168764   6.238  10.629  12.891 -0.9346  1.6623 -0.2621
16924SOL    HW268765   6.377  10.670  12.932  0.1086 -1.0275 -0.8538
16925SOL     OW68766  12.076   2.737   1.873  0.5255  0.2613 -0.1698
16925SOL    HW168767  12.152   2.690   1.837  0.3517  0.4363 -0.7799
16925SOL    HW268768  12.085   2.826   1.839  0.3148  0.4096  0.1627
16926SOL     OW68769   7.362   9.877   5.632 -0.1045  0.5551 -0.0174
16926SOL    HW168770   7.408   9.812   5.578 -0.4017  0.9662 -0.7919
16926SOL    HW268771   7.409   9.877   5.715 -0.7250 -1.3868  0.3817
16927SOL     OW68772   0.496   3.577  11.928  0.0493 -0.0865 -0.6423
16927SOL    HW168773   0.484   3.482  11.937 -0.3123  0.0727  0.7674
16927SOL    HW268774   0.496   3.609  12.018  1.7443  1.0726 -1.0216
16928SOL     OW68775  11.470   3.393   7.343  0.2555  0.2563  0.1981
16928SOL    HW168776  11.444   3.450   7.416 -0.2862  3.2083 -2.1047
16928SOL    HW268777  11.566   3.394   7.346  0.2437  0.3263  0.8619
16929SOL     OW68778   5.401   0.754   5.375  0.4298 -0.0261  0.2138
16929SOL    HW168779   5.386   0.847   5.391  2.5455  0.2933  0.6472
16929SOL    HW268780   5.402   0.747   5.279 -1.7932 -0.0425  0.1234
16930SOL     OW68781  13.198   7.099   7.731 -0.9589 -0.3072  0.2722
16930SOL    HW168782  13.241   7.151   7.798 -0.0853  0.4054 -0.8004
16930SOL    HW268783  13.229   7.136   7.648 -1.4422 -1.6140 -0.5272
16931SOL     OW68784   2.593   3.932   3.021 -0.4803 -0.2641  0.1261
16931SOL    HW168785   2.659   3.974   3.076 -1.6301 -0.0278  1.3761
16931SOL    HW268786   2.550   3.868   3.079  0.0141 -1.9098 -1.2354
16932SOL     OW68787  12.579   1.055   4.861  0.2733  0.0711  0.1496
16932SOL    HW168788  12.671   1.058   4.835  0.4463  0.5066  0.7982
16932SOL    HW268789  12.554   0.964   4.848  0.7086  0.0166 -0.3345
16933SOL     OW68790  13.864  11.476   3.149 -0.2604  0.2147 -0.3988
16933SOL    HW168791  13.937  11.506   3.095  0.7714  2.4815  2.0107
16933SOL    HW268792  13.850  11.385   3.124  2.9780 -0.1136 -1.4320
16934SOL     OW68793  13.652   1.868  13.807 -0.0539 -0.2290  0.7520
16934SOL    HW168794  13.721   1.894  13.747 -1.9647 -0.1650 -1.5422
16934SOL    HW268795  13.637   1.775  13.789 -1.2258 -0.0074  0.4884
16935SOL     OW68796  12.852   6.337   6.811 -0.0313 -0.2879 -0.1043
16935SOL    HW168797  12.761   6.363   6.799  0.1697  0.5455  0.1385
16935SOL    HW268798  12.867   6.341   6.905  0.6940  1.1628 -0.2510
16936SOL     OW68799   9.720   8.955  13.422  0.2111 -0.2078 -0.6428
16936SOL    HW168800   9.801   8.938  13.469  1.6825  2.9520 -1.7837
16936SOL    HW268801   9.739   8.932  13.332 -0.7167 -0.9589 -0.6568
16937SOL     OW68802   4.217   4.322   5.094 -0.3385 -0.0509 -0.7800
16937SOL    HW168803   4.293   4.269   5.066  0.9964  1.4566 -0.1584
16937SOL    HW268804   4.191   4.283   5.178 -0.9436 -1.2333 -1.4975
16938SOL     OW68805   0.122  12.731   0.514 -0.2195 -0.1743  0.4837
16938SOL    HW168806   0.216  12.725   0.527 -0.1742  0.2486  0.3452
16938SOL    HW268807   0.105  12.679   0.435  0.2387  1.8080 -0.9802
16939SOL     OW68808   6.032   5.412  11.071  0.0531  0.3724  0.0651
16939SOL    HW168809   6.063   5.323  11.089  1.7056  1.3055  2.3539
16939SOL    HW268810   6.036   5.420  10.976 -2.9810 -2.8741 -0.5412
16940SOL     OW68811   0.531   7.060   4.794 -0.3703 -0.1534 -0.4189
16940SOL    HW168812   0.451   7.104   4.765  0.7105  0.8148 -2.0713
16940SOL    HW268813   0.581   7.129   4.839  0.3168 -0.2796 -0.9787
16941SOL     OW68814   1.572  12.335   1.676 -0.6103 -0.1645 -0.1088
16941SOL    HW168815   1.629  12.333   1.599 -1.3897  0.1934 -0.7058
16941SOL    HW268816   1.632  12.349   1.749  0.4384 -2.8714 -0.3238
16942SOL     OW68817  13.370   8.051   4.204 -0.0217  0.3681  0.9969
16942SOL    HW168818  13.321   8.096   4.135  0.7887 -0.3172 -0.0678
16942SOL    HW268819  13.386   8.117   4.270  0.5120  1.4555 -0.1864
16943SOL     OW68820   0.257   6.429  11.510 -0.2252  0.3502 -0.1421
16943SOL    HW168821   0.268   6.440  11.415  1.7545 -1.2305 -0.1633
16943SOL    HW268822   0.319   6.490  11.549  0.9180 -0.8671  0.0244
16944SOL     OW68823   5.153  10.642  12.377  0.6788 -0.6518  0.3173
16944SOL    HW168824   5.201  10.564  12.405  0.2399 -0.9904  0.1327
16944SOL    HW268825   5.204  10.676  12.304  0.3034 -1.3708 -0.2899
16945SOL     OW68826   7.093  12.198   4.726  0.4241  0.5266  0.2742
16945SOL    HW168827   7.158  12.252   4.681  1.1333 -1.0577 -0.6726
16945SOL    HW268828   7.013  12.208   4.674  0.4029  1.0463  0.3992
16946SOL     OW68829   9.366   3.921   0.769 -0.2105  0.0677 -0.5346
16946SOL    HW168830   9.377   3.989   0.703  0.4007  1.1786  0.6620
16946SOL    HW268831   9.389   3.963   0.851 -0.0255 -1.5363  0.2875
16947SOL     OW68832  13.911   4.290   5.613 -0.2796 -0.2369  0.4935
16947SOL    HW168833  13.926   4.383   5.626  1.4095 -0.3714 -0.1694
16947SOL    HW268834  13.873   4.259   5.695 -0.4866  0.9543  0.8573
16948SOL     OW68835   2.213  13.472   8.253 -0.0314  0.3042 -0.3078
16948SOL    HW168836   2.231  13.413   8.327  1.6881  0.7723 -0.3173
16948SOL    HW268837   2.209  13.414   8.177 -0.3635 -0.0161 -0.0525
16949SOL     OW68838   7.621   8.947  11.127 -0.3137  0.4970 -0.0939
16949SOL    HW168839   7.690   8.915  11.069 -1.2540  0.2870 -1.1415
16949SOL    HW268840   7.652   9.031  11.159  0.6144  0.1966 -0.1825
16950SOL     OW68841   0.418   4.708  10.382 -0.7201  0.2471  0.2023
16950SOL    HW168842   0.497   4.664  10.349 -1.2605 -0.6585  0.0878
16950SOL    HW268843   0.432   4.800  10.360  1.4775  0.5718  2.4515
16951SOL     OW68844   5.880  13.204  11.548  0.1891 -0.0684 -0.2143
16951SOL    HW168845   5.863  13.289  11.588  2.2105  1.0673 -1.5977
16951SOL    HW268846   5.957  13.171  11.594 -1.3861 -1.8887  1.2780
16952SOL     OW68847   2.147   8.784   6.791  0.4044 -0.1773 -0.1029
16952SOL    HW168848   2.132   8.858   6.732  0.1366  0.3983  0.6567
16952SOL    HW268849   2.241   8.788   6.811  0.3317  0.1651  0.1881
16953SOL     OW68850  12.463   5.908   2.510  0.4763 -0.4563  0.6301
16953SOL    HW168851  12.456   6.000   2.486  0.3727 -0.1292  1.8453
16953SOL    HW268852  12.537   5.875   2.459  0.9081  0.4644  0.6414
16954SOL     OW68853  12.414  12.832  12.333  0.2939  0.0372 -0.3753
16954SOL    HW168854  12.391  12.829  12.240  1.6138  0.5546 -0.7418
16954SOL    HW268855  12.332  12.855  12.377 -0.5791 -1.1340 -1.2977
16955SOL     OW68856  11.458   2.750  10.581 -0.0838 -0.2416  0.3738
16955SOL    HW168857  11.484   2.772  10.491 -1.3950  1.7275  0.4053
16955SOL    HW268858  11.527   2.693  10.613  0.2961 -1.2121 -1.9740
16956SOL     OW68859   0.089   0.314   6.362 -0.4252 -0.9532  0.3733
16956SOL    HW168860   0.146   0.357   6.425  1.2553 -3.0871  0.4021
16956SOL    HW268861   0.069   0.382   6.298  0.1544  0.4903  1.6608
16957SOL     OW68862   6.618   0.637   0.278  0.0004 -0.2885  1.0864
16957SOL    HW168863   6.620   0.730   0.299  0.0592  0.6774 -2.4739
16957SOL    HW268864   6.707   0.606   0.294  0.0408  0.3184  2.0836
16958SOL     OW68865   5.768  12.037   9.524  0.3196 -0.6394 -0.4358
16958SOL    HW168866   5.740  11.954   9.564 -0.9783 -0.7487 -1.5106
16958SOL    HW268867   5.863  12.039   9.540  0.2782 -1.9987  0.2019
16959SOL     OW68868   8.756   9.353  13.928  0.1588  0.0178 -0.3117
16959SOL    HW168869   8.675   9.402  13.946 -0.3594 -0.7022 -0.6312
16959SOL    HW268870   8.726   9.273  13.884  1.0756 -0.0717 -0.8001
16960SOL     OW68871   6.761  12.238   8.105 -0.5555 -0.6835  0.0112
16960SOL    HW168872   6.832  12.230   8.041 -0.8415 -1.0222 -0.2715
16960SOL    HW268873   6.779  12.168   8.168 -0.7564 -0.9145 -0.1838
16961SOL     OW68874   7.885   6.986   1.373  0.0894 -0.0695  0.0302
16961SOL    HW168875   7.830   6.963   1.299  0.3623 -0.4063 -0.0737
16961SOL    HW268876   7.848   7.067   1.408  2.5919  2.8090 -3.2459
16962SOL     OW68877  12.899   7.850   3.865  0.1994 -0.0026  0.3056
16962SOL    HW168878  12.853   7.816   3.942 -3.7513  1.2150 -1.2858
16962SOL    HW268879  12.870   7.941   3.858  0.6268  0.0038 -2.4718
16963SOL     OW68880   0.754   3.705   8.656  0.4789  0.2172 -0.0415
16963SOL    HW168881   0.808   3.747   8.723 -0.2735  0.2494  0.5518
16963SOL    HW268882   0.751   3.768   8.585 -1.7517  1.8152  1.3713
16964SOL     OW68883   8.898  13.122  11.498  0.3805 -0.2597  0.2941
16964SOL    HW168884   8.920  13.045  11.447  0.1016  0.0781 -0.3493
16964SOL    HW268885   8.939  13.107  11.583 -1.0084 -1.8779  0.7497
16965SOL     OW68886   5.480   4.945  12.757 -0.1077 -0.3409  0.2935
16965SOL    HW168887   5.464   4.945  12.851 -2.8954 -1.6090 -0.0987
16965SOL    HW268888   5.506   4.855  12.737 -2.5085 -0.9505 -0.4750
16966SOL     OW68889  12.013   8.308  12.906 -0.4141 -0.3121  0.0483
16966SOL    HW168890  12.040   8.390  12.950 -1.6518  0.4285 -0.5309
16966SOL    HW268891  11.927   8.327  12.870 -0.9663 -2.0720  0.3555
16967SOL     OW68892  12.790   5.885  10.961  0.4030 -0.4081 -0.0897
16967SOL    HW168893  12.773   5.878  11.055 -1.2956  0.5770 -0.2736
16967SOL    HW268894  12.737   5.960  10.933  0.2970 -1.1248 -1.9666
16968SOL     OW68895   5.245   9.746   7.287 -0.2430  0.0264  0.4751
16968SOL    HW168896   5.177   9.744   7.219  1.1796  1.3000 -1.0771
16968SOL    HW268897   5.280   9.657   7.288 -0.3280 -0.0280 -0.4398
16969SOL     OW68898   8.081  10.854   6.171  0.6980 -0.6336 -0.1410
16969SOL    HW168899   8.062  10.775   6.222  1.5622 -0.7968 -0.0454
16969SOL    HW268900   8.121  10.914   6.234  1.6194 -0.7729 -0.5800
16970SOL     OW68901   0.287  13.418   0.440  0.6920  0.1138  0.4954
16970SOL    HW168902   0.249  13.339   0.403 -0.7625  0.5219  1.0645
16970SOL    HW268903   0.265  13.414   0.533  0.3611  1.3195  0.4833
16971SOL     OW68904   6.183  10.751  11.716  0.2948  0.6523 -0.4861
16971SOL    HW168905   6.270  10.715  11.730 -0.0951 -0.0116  0.2755
16971SOL    HW268906   6.136  10.682  11.668  0.3954  1.2994 -1.5579
16972SOL     OW68907   1.420  10.100   1.999 -0.8442  0.4831 -0.6479
16972SOL    HW168908   1.364  10.032   2.036 -0.4088 -0.0525 -0.9621
16972SOL    HW268909   1.463  10.140   2.075 -1.9658  1.1967 -0.3684
16973SOL     OW68910  13.089   9.436   8.505  0.0794 -0.6002  0.0899
16973SOL    HW168911  13.018   9.454   8.567 -0.7584 -0.3330 -0.9151
16973SOL    HW268912  13.149   9.378   8.553  0.1788  0.7020  1.6252
16974SOL     OW68913   6.494   2.955   9.472 -0.0900  0.1098 -0.2726
16974SOL    HW168914   6.532   2.970   9.385 -0.0679 -0.6310 -0.3970
16974SOL    HW268915   6.400   2.946   9.457 -0.1738  0.6943 -0.1237
16975SOL     OW68916   5.605  13.002   5.877  0.4341 -0.0200  0.0677
16975SOL    HW168917   5.511  13.012   5.892  0.4425 -0.0321  0.1272
16975SOL    HW268918   5.635  12.945   5.948  0.2520 -1.0940 -0.6996
16976SOL     OW68919  10.695   5.241  12.667 -0.6050 -0.5235  0.2802
16976SOL    HW168920  10.730   5.173  12.725 -0.6682 -1.4238 -0.7144
16976SOL    HW268921  10.737   5.322  12.698  1.1211 -1.3163  0.1550
16977SOL     OW68922  10.891   8.002   5.297 -0.0672 -0.0129 -0.1562
16977SOL    HW168923  10.804   7.961   5.289  0.2736 -0.9852  0.8441
16977SOL    HW268924  10.880   8.089   5.258 -1.8343  0.3867  1.1110
16978SOL     OW68925   5.926  14.134  13.904 -0.5025  0.0234  0.7213
16978SOL    HW168926   5.936  14.192  13.829  0.5470  0.6373  1.3100
16978SOL    HW268927   5.938  14.046  13.868  0.0648  0.3159  0.1722
16979SOL     OW68928   3.550   1.385   8.385 -0.3323 -0.2440  0.9095
16979SOL    HW168929   3.465   1.339   8.387  0.4721 -2.0717 -1.5740
16979SOL    HW268930   3.614   1.315   8.374  1.4607  1.1752  1.9168
16980SOL     OW68931  10.726   5.758  13.918 -0.0281 -0.5919  0.2190
16980SOL    HW168932  10.820   5.775  13.925 -0.3699  1.3036  0.7424
16980SOL    HW268933  10.704   5.778  13.827  0.1253 -1.4167 -0.0076
16981SOL     OW68934   3.710  13.655  11.386  0.9546 -0.4969  0.0261
16981SOL    HW168935   3.632  13.617  11.345 -0.5260  1.0135  1.2714
16981SOL    HW268936   3.757  13.697  11.313  0.2457 -0.8445 -0.6436
16982SOL     OW68937   9.101  12.360   5.751  0.1179 -0.2010  0.0884
16982SOL    HW168938   9.035  12.408   5.700  1.1239  1.3571  0.2054
16982SOL    HW268939   9.146  12.427   5.802  0.3241 -1.5126  1.7208
16983SOL     OW68940   9.923   6.235   0.759  0.3164 -0.0090  0.4218
16983SOL    HW168941   9.957   6.146   0.746 -1.3435 -0.7878  1.0473
16983SOL    HW268942   9.831   6.221   0.783  0.5581  1.7899  2.6334
16984SOL     OW68943  11.270   5.504   0.863  0.7896  0.3998  0.4025
16984SOL    HW168944  11.294   5.412   0.872  2.6503  0.7610 -0.4829
16984SOL    HW268945  11.315   5.548   0.935 -0.5160  0.5785  1.1403
16985SOL     OW68946   9.866   6.315  14.153 -0.3858 -0.3324 -0.1899
16985SOL    HW168947   9.879   6.343  14.062 -0.1255 -0.7692 -0.2851
16985SOL    HW268948   9.783   6.267  14.152 -0.9402  0.5954  0.0144
16986SOL     OW68949  11.079   6.162   4.994 -0.1214 -0.3123 -0.5882
16986SOL    HW168950  11.127   6.245   4.992  1.0733 -0.9786 -1.1743
16986SOL    HW268951  11.042   6.157   5.082  1.0528  0.1710 -0.0466
16987SOL     OW68952   2.340  14.000  13.642  0.2642  0.2193 -0.5689
16987SOL    HW168953   2.294  13.916  13.638 -0.4736  0.4881  1.2711
16987SOL    HW268954   2.399  13.991  13.717  0.6031  1.1490 -0.7064
16988SOL     OW68955  13.697   9.946   0.814 -0.1042 -0.6566 -0.0819
16988SOL    HW168956  13.719   9.854   0.828  1.5817 -0.0910  1.3727
16988SOL    HW268957  13.634   9.967   0.883  1.9320  0.0123  1.7108
16989SOL     OW68958   2.624   3.205  11.305 -0.1542  0.5566 -0.0128
16989SOL    HW168959   2.699   3.260  11.325 -0.3575  0.3862  1.3518
16989SOL    HW268960   2.596   3.232  11.218  2.2280 -0.2164 -1.1004
16990SOL     OW68961   1.770  11.847   3.812 -0.1277 -0.2514  0.5911
16990SOL    HW168962   1.849  11.873   3.859 -0.7673  0.4824  1.3076
16990SOL    HW268963   1.799  11.834   3.722  0.7605  0.2585  0.7841
16991SOL     OW68964  11.944   4.187   8.773  0.0632  0.0870  0.0727
16991SOL    HW168965  11.964   4.280   8.772 -3.2235  0.9356 -1.3141
16991SOL    HW268966  11.979   4.154   8.690 -3.6185  1.5279 -2.3217
16992SOL     OW68967   8.071   5.826  11.214 -0.2274 -0.5319 -0.6866
16992SOL    HW168968   8.166   5.830  11.202 -0.5167 -0.1239 -3.2280
16992SOL    HW268969   8.056   5.868  11.299  1.8822 -1.2911  0.1372
16993SOL     OW68970  13.150  11.681   9.295  0.1126  0.3135  0.3249
16993SOL    HW168971  13.237  11.682   9.254 -0.0459 -0.7201 -0.0670
16993SOL    HW268972  13.100  11.746   9.246  0.8789  1.5362  1.0910
16994SOL     OW68973   6.337  11.344   8.195 -0.2175 -0.1926 -0.4481
16994SOL    HW168974   6.242  11.335   8.189 -0.3620  0.8371  0.0922
16994SOL    HW268975   6.357  11.325   8.287  0.1888 -1.0723 -0.7085
16995SOL     OW68976   5.274  11.325   9.994 -0.1325  0.4662 -0.4424
16995SOL    HW168977   5.304  11.299   9.907  3.3741  0.3273  0.6470
16995SOL    HW268978   5.246  11.416   9.984  2.0149  1.0771 -1.4396
16996SOL     OW68979   9.933  10.752  13.342  0.6615  0.3092  0.0387
16996SOL    HW168980   9.903  10.822  13.285  0.3787  1.1097  1.1470
16996SOL    HW268981  10.025  10.739  13.318  0.8851  1.4703  0.2223
16997SOL     OW68982   9.654   9.744  10.974 -0.9443  0.2499 -0.5318
16997SOL    HW168983   9.596   9.670  10.994  0.0544 -0.2617  0.5618
16997SOL    HW268984   9.632   9.810  11.039  0.3647 -0.3318  0.5341
16998SOL     OW68985   9.621   4.414   6.399 -0.0341  0.0734  0.3157
16998SOL    HW168986   9.645   4.493   6.448  1.0391  1.0978 -1.7362
16998SOL    HW268987   9.683   4.411   6.326 -1.2353 -1.6395 -0.7141
16999SOL     OW68988  11.526   2.412  13.948 -0.1600  0.5172  0.0268
16999SOL    HW168989  11.488   2.428  14.034 -1.8570  1.0512 -0.7907
16999SOL    HW268990  11.467   2.455  13.887  2.4012  2.4643 -1.2554
17000SOL     OW68991   2.624  11.612   4.339 -0.0362  0.6515 -0.2361
17000SOL    HW168992   2.622  11.633   4.246 -0.6613 -1.4366 -0.7408
17000SOL    HW268993   2.580  11.527   4.346  0.1160  0.6903  1.9463
17001SOL     OW68994  12.557   8.446   3.258 -0.2466 -0.0992  0.1162
17001SOL    HW168995  12.466   8.417   3.258 -1.0935  2.3625 -0.3927
17001SOL    HW268996  12.555   8.535   3.292  2.1769 -0.4362  1.3956
17002SOL     OW68997  12.890  13.071   1.715 -0.2096  0.2119  0.1498
17002SOL    HW168998  12.901  13.153   1.763 -0.5641  1.7924 -2.2757
17002SOL    HW268999  12.969  13.021   1.735 -1.1366 -0.1030  3.7547
17003SOL     OW69000   4.856   9.816   7.942 -0.0263 -0.1895  0.4906
17003SOL    HW169001   4.814   9.883   7.887  2.2502  1.7177  0.8675
17003SOL    HW269002   4.847   9.850   8.031 -0.6593 -1.4846  0.9290
17004SOL     OW69003   8.632  13.072  10.058 -0.0930  0.2639  0.1073
17004SOL    HW169004   8.705  13.023  10.096 -1.0533 -0.6160  0.8750
17004SOL    HW269005   8.560  13.061  10.121 -1.0140  0.7516 -0.8265
17005SOL     OW69006  10.051   0.289  12.518  0.1734  0.5144 -0.3005
17005SOL    HW169007   9.997   0.314  12.593  0.0664  0.9639 -0.5227
17005SOL    HW269008  10.116   0.359  12.511  1.7990 -0.7884  0.9214
17006SOL     OW69009   2.218   3.706   2.386 -0.7286  0.0038  0.1397
17006SOL    HW169010   2.272   3.693   2.308 -1.8748 -0.0757 -0.6757
17006SOL    HW269011   2.210   3.801   2.394  0.6013  0.0696  1.0597
17007SOL     OW69012   1.866   5.939   2.765  0.2213  0.2161 -0.2451
17007SOL    HW169013   1.946   5.966   2.810  2.1170 -2.0623 -1.9578
17007SOL    HW269014   1.804   5.920   2.836  2.3612 -1.2045  1.3786
17008SOL     OW69015  12.497   3.904   7.452  0.1011 -0.0692  0.4862
17008SOL    HW169016  12.404   3.925   7.459 -0.3531 -1.5022 -0.7570
17008SOL    HW269017  12.501   3.809   7.464  1.4744  0.0469  1.0838
17009SOL     OW69018   4.444   0.710   9.767 -0.0974  0.8646  0.2693
17009SOL    HW169019   4.538   0.696   9.773 -0.0682 -0.1578 -1.5711
17009SOL    HW269020   4.410   0.686   9.853  1.2135  0.1875  0.6232
17010SOL     OW69021   9.004  11.027   6.682 -0.7203  0.2859  0.5999
17010SOL    HW169022   9.032  11.118   6.678  1.2706 -0.3110 -1.9683
17010SOL    HW269023   9.083  10.977   6.663 -2.0010 -1.9434  0.7673
17011SOL     OW69024  13.334  13.393   9.016  0.2034 -0.1153  0.8371
17011SOL    HW169025  13.385  13.467   9.048  1.5253 -0.3649 -0.5414
17011SOL    HW269026  13.283  13.429   8.944  0.6675 -0.4604  0.3222
17012SOL     OW69027   6.994   1.623  12.275 -0.2401  0.0290 -0.0359
17012SOL    HW169028   7.050   1.568  12.221  0.1449  0.8718 -0.5194
17012SOL    HW269029   7.054   1.676  12.326 -0.5444  1.4021 -1.0288
17013SOL     OW69030   9.176   0.697   9.062 -0.1551  0.2660 -0.0385
17013SOL    HW169031   9.200   0.736   8.979 -1.4765  0.7380 -0.2330
17013SOL    HW269032   9.203   0.761   9.128 -0.7938  0.7560 -0.2439
17014SOL     OW69033   4.745   7.228   9.006  0.0236 -0.1564  0.7019
17014SOL    HW169034   4.748   7.300   9.070  1.6839 -0.5035  1.0832
17014SOL    HW269035   4.789   7.264   8.928 -0.2027 -0.3751  0.4730
17015SOL     OW69036  12.484   3.703   5.378 -0.4437 -0.4260 -0.3989
17015SOL    HW169037  12.579   3.693   5.387 -0.3106  0.1393 -1.0905
17015SOL    HW269038  12.457   3.629   5.325 -0.5371 -1.1138  0.5822
17016SOL     OW69039   0.171  12.978  11.221 -0.0308 -0.1820 -0.4377
17016SOL    HW169040   0.111  12.922  11.171  0.6583 -0.1380 -1.3228
17016SOL    HW269041   0.192  13.050  11.162  0.0320  0.4000  0.2696
17017SOL     OW69042  12.655   1.149  10.683 -0.1124 -0.1048 -0.8602
17017SOL    HW169043  12.614   1.233  10.664  0.4295  0.4421  0.3072
17017SOL    HW269044  12.729   1.145  10.623 -0.2481  0.1546 -1.0496
17018SOL     OW69045   4.015   8.955   9.355  0.1478 -0.5983  0.2833
17018SOL    HW169046   4.081   8.885   9.359 -0.4600 -1.1324  1.4843
17018SOL    HW269047   4.018   8.996   9.441 -0.5029 -0.0758  0.0645
17019SOL     OW69048   4.335   1.836  12.377  0.2917  0.1428 -0.9489
17019SOL    HW169049   4.379   1.888  12.310  0.3926  2.1315  0.5698
17019SOL    HW269050   4.380   1.859  12.459  0.4485 -2.5087 -0.1911
17020SOL     OW69051  11.141   1.900   3.828  0.0841  0.2087  0.6663
17020SOL    HW169052  11.209   1.833   3.819  0.9556  1.0505  0.7463
17020SOL    HW269053  11.137   1.941   3.742 -1.3910 -0.7821  0.2186
17021SOL     OW69054   3.946   9.057   4.924 -0.4799 -0.7212  0.4926
17021SOL    HW169055   3.873   9.106   4.963 -1.7851 -1.4562 -0.9308
17021SOL    HW269056   3.991   9.018   4.999 -0.7400  0.8251  1.4981
17022SOL     OW69057  11.376   4.539   8.581 -0.4549  0.0671 -0.3795
17022SOL    HW169058  11.344   4.560   8.669 -1.7305  0.4286 -0.9163
17022SOL    HW269059  11.453   4.596   8.571  1.4204 -1.9212  1.5062
17023SOL     OW69060   8.407  13.475  10.574  0.2651  0.2473  0.0275
17023SOL    HW169061   8.501  13.462  10.591  0.5120  0.6285 -0.9535
17023SOL    HW269062   8.367  13.391  10.593  0.6281  0.3936  1.5754
17024SOL     OW69063   5.919   1.037  10.945 -0.8120  0.3036 -0.4620
17024SOL    HW169064   5.849   1.089  10.985 -1.5491 -0.4843 -0.6950
17024SOL    HW269065   5.988   1.101  10.925 -0.0774  0.6702  2.6919
17025SOL     OW69066   2.814   9.011   1.052  0.0278  0.0799  0.1132
17025SOL    HW169067   2.861   9.055   1.123  0.5029  1.9848 -1.2816
17025SOL    HW269068   2.875   8.946   1.019 -0.3678 -1.1319  1.6972
17026SOL     OW69069  13.389   6.484   3.694 -0.2301  0.3522  0.1902
17026SOL    HW169070  13.369   6.441   3.611  0.5484 -0.4655  0.4091
17026SOL    HW269071  13.384   6.577   3.676  1.4902  0.2215 -1.1857
17027SOL     OW69072   4.115   4.982   0.467  0.8317  0.1420 -0.1169
17027SOL    HW169073   4.119   4.974   0.372 -0.8175 -0.9328 -0.1293
17027SOL    HW269074   4.175   5.054   0.487  1.3771  0.2483 -1.9388
17028SOL     OW69075   6.947  13.307   3.160 -0.6905  0.1092 -0.5455
17028SOL    HW169076   6.931  13.397   3.131 -0.8233 -0.2176 -1.5103
17028SOL    HW269077   6.955  13.256   3.080 -2.0669 -0.9972 -0.0266
17029SOL     OW69078   2.381   9.500  10.976 -0.3492 -0.0939 -0.4411
17029SOL    HW169079   2.370   9.441  11.051  1.6529  0.0786  0.0383
17029SOL    HW269080   2.456   9.554  10.999 -0.6824  1.0552 -1.9134
17030SOL     OW69081  13.086   0.851  13.839 -0.4437 -0.3977  0.4949
17030SOL    HW169082  13.173   0.835  13.802 -0.2384 -0.6471  1.0746
17030SOL    HW269083  13.038   0.896  13.769  1.2279  2.9506  1.3018
17031SOL     OW69084   3.726   0.020  12.405  0.2831 -0.5213 -0.4919
17031SOL    HW169085   3.675   0.100  12.416 -0.2223 -1.1613  2.7957
17031SOL    HW269086   3.663  -0.046  12.378 -0.4040 -0.9084  1.8590
17032SOL     OW69087   8.852   8.512   4.528  0.8304 -0.3491 -0.6460
17032SOL    HW169088   8.774   8.566   4.541  1.4989  0.4943 -0.0482
17032SOL    HW269089   8.827   8.426   4.560  0.1357 -0.0899 -0.4750
17033SOL     OW69090   6.535   7.390  10.930  0.2822  0.2380 -0.1384
17033SOL    HW169091   6.527   7.295  10.930  0.2343  0.2231 -1.5591
17033SOL    HW269092   6.629   7.406  10.928  0.3719  0.2760  1.8288
17034SOL     OW69093   8.560   1.954  10.665  0.3936  0.0492 -0.5499
17034SOL    HW169094   8.540   1.885  10.602 -0.8444  0.2606 -0.4229
17034SOL    HW269095   8.591   1.908  10.742 -1.4865 -0.4833 -0.0653
17035SOL     OW69096  13.397   7.707   6.463  0.4494  0.5973  0.1222
17035SOL    HW169097  13.368   7.669   6.546  1.4138 -0.2005  0.1060
17035SOL    HW269098  13.382   7.801   6.473 -0.0070  0.4438  0.9605
17036SOL     OW69099   5.710   3.777   4.358  1.3147  0.9276  0.8883
17036SOL    HW169100   5.692   3.842   4.290 -1.1395  0.1000  0.6536
17036SOL    HW269101   5.685   3.820   4.440 -1.5467 -0.0265  0.6170
17037SOL     OW69102   0.324   7.159  11.447 -0.0327 -0.3428 -0.3003
17037SOL    HW169103   0.239   7.132  11.481  0.2966  0.1085  0.9375
17037SOL    HW269104   0.370   7.195  11.523  0.8324  0.4819 -1.1827
17038SOL     OW69105   5.948  13.144   2.447 -0.8034  0.2908 -0.3345
17038SOL    HW169106   5.886  13.183   2.384 -1.2853 -0.4643 -0.3572
17038SOL    HW269107   5.895  13.080   2.494 -0.1407 -0.0241 -0.0123
17039SOL     OW69108  11.483   3.107   2.180 -0.1769 -0.2808  0.4155
17039SOL    HW169109  11.511   3.061   2.259 -1.4009 -0.6717  0.6376
17039SOL    HW269110  11.389   3.089   2.173 -0.0332 -0.5162 -1.3135
17040SOL     OW69111  13.059   2.995   4.917 -0.0048 -0.1306  0.1204
17040SOL    HW169112  13.013   3.063   4.965  1.0728 -0.7345  2.1330
17040SOL    HW269113  13.015   2.991   4.832 -1.2129  1.8297  0.5983
17041SOL     OW69114   0.571   0.527  11.893  0.4529 -0.1788  0.1926
17041SOL    HW169115   0.649   0.566  11.934 -0.8397  0.9171  1.7322
17041SOL    HW269116   0.582   0.546  11.800  1.4686  1.0332  0.5209
17042SOL     OW69117   4.652  12.897  12.492  0.1355  0.1586  0.6532
17042SOL    HW169118   4.648  12.899  12.397  0.2897  0.5848  0.6539
17042SOL    HW269119   4.742  12.922  12.512  0.3846 -0.8725  0.8812
17043SOL     OW69120   3.930  13.544   9.460  0.7591  0.2491  0.1399
17043SOL    HW169121   4.010  13.526   9.411 -0.1525  1.3588 -1.8388
17043SOL    HW269122   3.882  13.607   9.407 -1.1473  0.1257  1.6010
17044SOL     OW69123  10.037  13.376   2.606  0.3061 -0.3115 -0.8901
17044SOL    HW169124   9.952  13.372   2.562  0.6274 -1.1593 -1.4841
17044SOL    HW269125  10.035  13.304   2.669  0.0381  0.5895  0.1435
17045SOL     OW69126   1.143   8.965   7.842 -0.0897 -0.5210 -0.4026
17045SOL    HW169127   1.053   8.941   7.821 -0.3061  0.2377 -0.3666
17045SOL    HW269128   1.142   8.986   7.935  0.2350 -1.0049 -0.2886
17046SOL     OW69129  13.404   7.737  13.778 -0.0266  0.2182 -0.0885
17046SOL    HW169130  13.382   7.731  13.871  0.0086  0.4093 -0.0661
17046SOL    HW269131  13.497   7.714  13.773  0.1904  1.0372  0.0369
17047SOL     OW69132  10.992   0.207   9.255  0.2900  0.2195 -0.0643
17047SOL    HW169133  11.034   0.275   9.306 -0.0176 -0.3838  1.0253
17047SOL    HW269134  11.040   0.127   9.277  0.0699 -0.0734 -0.6234
17048SOL     OW69135   7.235   8.616  12.979 -0.8407 -0.3484  0.1431
17048SOL    HW169136   7.310   8.589  12.926 -1.6834  2.0028 -2.4801
17048SOL    HW269137   7.165   8.558  12.953 -0.9054 -0.0499 -0.3671
17049SOL     OW69138  10.045   2.507   4.859  0.0697  0.2755  0.1856
17049SOL    HW169139   9.966   2.508   4.806  0.4639 -2.2915 -0.5731
17049SOL    HW269140  10.022   2.454   4.935  1.4209 -1.8337 -0.7871
17050SOL     OW69141   8.053   7.175   0.234 -0.3279  0.2287  0.8038
17050SOL    HW169142   8.121   7.214   0.180 -0.7081 -0.7102 -0.3760
17050SOL    HW269143   8.083   7.190   0.324  1.5225 -0.3031  0.3145
17051SOL     OW69144   7.317  10.862  13.755 -0.3589  0.0202 -0.3024
17051SOL    HW169145   7.234  10.834  13.716 -0.5385 -0.4361  0.4018
17051SOL    HW269146   7.369  10.894  13.680 -0.8393 -0.4905 -0.8610
17052SOL     OW69147  10.466   0.911   4.825 -0.2631 -0.0363 -0.3691
17052SOL    HW169148  10.470   0.889   4.732  0.1863  0.5888 -0.5015
17052SOL    HW269149  10.409   0.844   4.862 -0.5995 -0.1832 -1.1244
17053SOL     OW69150   1.275  11.092   8.682 -0.6414 -0.2063  0.1583
17053SOL    HW169151   1.256  11.166   8.625  0.4475  0.9161  1.2001
17053SOL    HW269152   1.199  11.086   8.740 -2.3485 -2.1241 -2.0550
17054SOL     OW69153  14.138   9.041  11.397 -0.2367  0.1700  0.0940
17054SOL    HW169154  14.096   9.126  11.381 -1.7424 -0.3351  1.0723
17054SOL    HW269155  14.161   9.044  11.490  1.1415  0.0927 -0.2339
17055SOL     OW69156   3.118   3.422   3.460 -0.3571  0.3449 -0.4141
17055SOL    HW169157   3.089   3.498   3.510 -0.8925 -0.5988  0.7533
17055SOL    HW269158   3.184   3.380   3.515 -1.2771 -0.9594 -0.2437
17056SOL     OW69159   8.187   9.744  10.523 -1.0790  0.0509  0.7171
17056SOL    HW169160   8.204   9.676  10.459  0.5949 -0.5506  1.7407
17056SOL    HW269161   8.180   9.698  10.607 -0.0108  1.0923  1.4167
17057SOL     OW69162   9.437  11.439   5.946  0.1679  0.3199 -0.3692
17057SOL    HW169163   9.433  11.531   5.971 -0.0674 -0.3827  2.5913
17057SOL    HW269164   9.509  11.403   5.999  0.7117 -1.0883 -1.9695
17058SOL     OW69165  10.005  10.252   5.762  0.2333 -0.3417  0.4428
17058SOL    HW169166   9.975  10.343   5.763 -0.0095 -0.3817 -1.1580
17058SOL    HW269167   9.970  10.215   5.843 -1.5703  0.4218  0.0773
17059SOL     OW69168   7.918   3.679   1.275  0.0157  0.4432 -0.2667
17059SOL    HW169169   7.835   3.641   1.247 -0.0457  0.7876 -0.5570
17059SOL    HW269170   7.976   3.669   1.200  0.0680  0.7109 -0.2617
17060SOL     OW69171   0.171   8.694   0.075  0.8447  0.4424  0.2086
17060SOL    HW169172   0.238   8.689   0.143  1.3759  2.6805 -0.0946
17060SOL    HW269173   0.219   8.700  -0.007  0.2078 -1.8127 -0.4131
17061SOL     OW69174  11.331   3.347  14.114  0.6303 -0.0966 -0.3388
17061SOL    HW169175  11.318   3.382  14.026 -1.3070 -1.2035 -0.5424
17061SOL    HW269176  11.301   3.257  14.109 -0.2081  0.0275  1.6182
17062SOL     OW69177   8.609  13.487   0.670  0.7439  0.2511 -0.3757
17062SOL    HW169178   8.653  13.566   0.638 -0.9116  0.7410 -1.5627
17062SOL    HW269179   8.597  13.433   0.592 -0.5743  0.0479 -0.0490
17063SOL     OW69180   3.573   8.719   5.383  0.4911 -0.2558  0.2431
17063SOL    HW169181   3.628   8.797   5.384  0.0076  0.0930  0.3023
17063SOL    HW269182   3.507   8.736   5.451  0.1117 -0.5119 -0.0551
17064SOL     OW69183   9.184   8.005   4.629 -0.3878  0.3988  0.3782
17064SOL    HW169184   9.237   7.943   4.578 -0.9200 -1.1102  1.5926
17064SOL    HW269185   9.208   8.090   4.594  2.7229 -0.2108  0.7223
17065SOL     OW69186   1.885   7.403   2.317 -0.3159 -0.1446 -0.0415
17065SOL    HW169187   1.941   7.480   2.302  0.3726 -0.5477  0.4259
17065SOL    HW269188   1.845   7.419   2.403 -0.9018  0.1291 -0.3625
17066SOL     OW69189   6.473   3.039   0.173  0.3163  0.0866  0.2915
17066SOL    HW169190   6.526   2.960   0.163  0.5254  0.1815  0.6258
17066SOL    HW269191   6.494   3.071   0.261  0.8422  0.9579 -0.1398
17067SOL     OW69192   5.497   4.557   1.684 -0.2119  0.4992 -0.2418
17067SOL    HW169193   5.572   4.554   1.743  1.0387  3.0822 -1.5104
17067SOL    HW269194   5.530   4.522   1.601 -1.1214 -0.4909 -0.2104
17068SOL     OW69195   4.916   3.116   1.068 -0.0092 -0.3852 -0.3854
17068SOL    HW169196   5.003   3.076   1.068  0.8051  1.1110  2.5238
17068SOL    HW269197   4.858   3.047   1.101  0.8524 -0.1868  1.6743
17069SOL     OW69198  12.747   9.834  12.733  0.3305 -0.1342 -0.8147
17069SOL    HW169199  12.754   9.739  12.742  1.3105 -0.0617 -0.6468
17069SOL    HW269200  12.762   9.867  12.822  0.5312  0.1986 -0.9738
17070SOL     OW69201  11.002   1.439   1.150  0.1724 -0.0603 -0.0254
17070SOL    HW169202  10.912   1.413   1.127  0.9935 -2.1081 -1.1441
17070SOL    HW269203  11.012   1.411   1.241 -0.5673  0.9332  0.3777
17071SOL     OW69204  13.543   0.745   2.578 -0.2974  0.3381  0.3940
17071SOL    HW169205  13.495   0.671   2.616  2.1790 -0.9337  1.3284
17071SOL    HW269206  13.627   0.708   2.552 -0.3385  2.0731 -2.7237
17072SOL     OW69207   9.611   4.997   2.524  0.0908  0.4903  0.3084
17072SOL    HW169208   9.645   5.044   2.447  0.0127 -1.6612 -1.1253
17072SOL    HW269209   9.539   5.052   2.555 -2.5970 -0.3272 -3.6408
17073SOL     OW69210   9.033   6.964   6.223  0.0188  0.4667  0.0004
17073SOL    HW169211   8.973   6.982   6.151  1.5677 -1.0916 -1.8119
17073SOL    HW269212   9.061   7.050   6.253  0.3962  1.2122 -2.2826
17074SOL     OW69213   2.365  12.261  10.835 -0.0068  0.1785 -0.0666
17074SOL    HW169214   2.298  12.316  10.795 -0.7683 -0.2123  0.6367
17074SOL    HW269215   2.424  12.323  10.879 -0.4485  0.4710  0.1126
17075SOL     OW69216  10.687   0.288   9.597 -0.4051 -0.6505  0.6121
17075SOL    HW169217  10.734   0.209   9.622  0.1169 -0.3509  0.6155
17075SOL    HW269218  10.655   0.271   9.508  0.5279 -0.5204  0.2364
17076SOL     OW69219   2.220   6.036   6.617  0.0424 -0.0885 -0.4535
17076SOL    HW169220   2.252   6.126   6.619 -0.6337  0.1491  0.8280
17076SOL    HW269221   2.300   5.982   6.611  0.4627  0.5773 -0.9764
17077SOL     OW69222  11.693   9.742  12.776 -0.2590  0.0263  0.6492
17077SOL    HW169223  11.699   9.648  12.792 -3.1049 -0.5235 -0.9657
17077SOL    HW269224  11.762   9.759  12.711 -0.6804 -1.2681 -0.1891
17078SOL     OW69225   7.173   3.778  12.821 -0.0669  0.4352 -0.4962
17078SOL    HW169226   7.162   3.741  12.908  0.5024 -1.5865 -1.2142
17078SOL    HW269227   7.088   3.766  12.779  0.8518 -3.0398 -1.7101
17079SOL     OW69228  13.111   1.802  14.000  0.0991 -0.0119  0.8980
17079SOL    HW169229  13.131   1.891  14.029 -2.0419  0.3410  1.4772
17079SOL    HW269230  13.109   1.751  14.081 -1.8680  0.1330  0.9918
17080SOL     OW69231   2.923  12.674  10.016  0.6171  0.0294  0.1724
17080SOL    HW169232   2.936  12.612   9.945  0.9558  0.0710  0.1979
17080SOL    HW269233   3.011  12.696  10.046  0.5394  1.0903 -0.3180
17081SOL     OW69234  10.181   9.775   3.320 -0.2336  0.5192  0.1126
17081SOL    HW169235  10.125   9.766   3.398 -2.5344  0.4004 -1.4340
17081SOL    HW269236  10.146   9.852   3.275  0.0883 -0.2560 -1.5147
17082SOL     OW69237   7.610   3.907   6.020 -0.4782  0.5417 -0.0536
17082SOL    HW169238   7.682   3.969   6.019 -1.6918  2.1281  1.8515
17082SOL    HW269239   7.562   3.925   5.939  0.5989  0.2770 -0.7647
17083SOL     OW69240  11.570   8.706   7.852 -0.0678 -0.0469 -0.1385
17083SOL    HW169241  11.568   8.633   7.913  0.2774 -0.2701 -0.3862
17083SOL    HW269242  11.478   8.723   7.831 -0.1402 -0.5710 -0.2636
17084SOL     OW69243   0.788   6.154  12.387  0.0168  0.3829 -0.1494
17084SOL    HW169244   0.877   6.166  12.421 -0.5228 -0.0113  1.5200
17084SOL    HW269245   0.734   6.211  12.442 -0.8793 -0.0721 -0.5459
17085SOL     OW69246  13.295  11.830   1.756  0.3732  0.3178  0.2715
17085SOL    HW169247  13.283  11.735   1.756 -0.1946  0.3886  0.7108
17085SOL    HW269248  13.214  11.865   1.792  0.8475  0.9341  0.7779
17086SOL     OW69249   9.887   2.524   2.875 -0.1556  0.7522  0.1438
17086SOL    HW169250   9.938   2.523   2.794  1.2764 -1.1432  1.0055
17086SOL    HW269251   9.933   2.585   2.932 -0.3154  0.9727  0.0361
17087SOL     OW69252   4.727  11.921   6.864 -0.5631  0.7129 -0.2057
17087SOL    HW169253   4.658  11.901   6.928  0.1610  0.9132  0.6586
17087SOL    HW269254   4.750  11.837   6.826  0.4787  0.2468  1.3513
17088SOL     OW69255  11.147   2.225  13.785  0.1432  0.6727 -0.1565
17088SOL    HW169256  11.082   2.262  13.726 -1.2216 -1.1371  0.1139
17088SOL    HW269257  11.103   2.219  13.870  0.5178 -0.8411 -0.0343
17089SOL     OW69258   9.472   0.250   6.653  0.4464  0.0500  0.2847
17089SOL    HW169259   9.404   0.295   6.703 -0.5630 -0.0032 -0.9902
17089SOL    HW269260   9.539   0.228   6.718 -0.1787  1.1890  1.3553
17090SOL     OW69261  11.556  12.872   6.109  0.2375  0.3894 -0.1580
17090SOL    HW169262  11.626  12.920   6.153  0.4872  0.9600 -1.1307
17090SOL    HW269263  11.598  12.836   6.030 -0.9833  2.5789 -1.9361
17091SOL     OW69264   0.619   3.597   4.089 -0.1196  0.5342  0.2952
17091SOL    HW169265   0.661   3.512   4.072 -2.8249 -1.1202  1.2342
17091SOL    HW269266   0.623   3.642   4.004  0.1660 -1.1190 -0.6235
17092SOL     OW69267  13.212   0.109   3.429 -0.1540  0.1571 -0.3550
17092SOL    HW169268  13.225   0.168   3.503 -0.0474 -0.1609 -0.1125
17092SOL    HW269269  13.297   0.107   3.385  0.2567 -0.8658  0.4357
17093SOL     OW69270   3.508   0.867  13.565  0.1041  0.0715  0.3856
17093SOL    HW169271   3.448   0.856  13.638  0.7209 -1.7963  0.6635
17093SOL    HW269272   3.452   0.891  13.491 -0.6444  0.9304  1.2023
17094SOL     OW69273   6.083   1.080  12.389  0.2755 -0.0927  0.6080
17094SOL    HW169274   6.033   1.107  12.312 -2.2397 -1.3214  1.6918
17094SOL    HW269275   6.123   0.996  12.364 -0.7936 -0.6457  0.7143
17095SOL     OW69276  13.050  13.396   0.887  0.4802 -0.1890  0.1770
17095SOL    HW169277  12.958  13.418   0.875  0.8101  0.3939 -1.5840
17095SOL    HW269278  13.050  13.327   0.952 -1.1948 -0.0988  0.3100
17096SOL     OW69279  12.358  11.096   9.126  0.0083  0.0897 -0.4507
17096SOL    HW169280  12.420  11.169   9.121 -0.3827  0.4698  0.1576
17096SOL    HW269281  12.407  11.027   9.171  0.3246  0.0280 -0.8792
17097SOL     OW69282   9.640   0.700   4.830 -0.1326  0.0925 -0.0633
17097SOL    HW169283   9.679   0.612   4.832 -0.4255 -0.0652 -0.9218
17097SOL    HW269284   9.558   0.690   4.879 -0.2846 -0.1752 -0.3676
17098SOL     OW69285   4.582   6.359   2.792 -0.0680  0.4822 -0.4979
17098SOL    HW169286   4.631   6.440   2.777 -0.9019  1.0270 -0.3387
17098SOL    HW269287   4.620   6.323   2.872 -0.9996  1.7591  0.5642
17099SOL     OW69288   4.983  12.339   4.593 -1.0599 -0.3249 -0.5092
17099SOL    HW169289   4.923  12.295   4.654  0.6551 -0.3048  1.2702
17099SOL    HW269290   5.066  12.344   4.640 -0.0856  1.1370 -2.2632
17100SOL     OW69291   9.634  10.760   4.376 -0.2743 -0.5007 -0.5109
17100SOL    HW169292   9.584  10.834   4.411 -1.7854 -1.1006 -1.2823
17100SOL    HW269293   9.699  10.799   4.319 -1.4682  0.2274 -1.4041
17101SOL     OW69294   7.501   4.196   3.586  0.1110  0.0757  0.1453
17101SOL    HW169295   7.579   4.216   3.535  0.0878 -1.9913 -0.8181
17101SOL    HW269296   7.535   4.176   3.674  0.8991 -2.0029 -0.5557
17102SOL     OW69297  11.471   5.287  13.969 -0.0231  1.4498  0.1550
17102SOL    HW169298  11.495   5.279  13.877 -1.9747 -0.1231 -0.2774
17102SOL    HW269299  11.445   5.199  13.995 -0.0122  1.9703  2.0821
17103SOL     OW69300   8.115   9.871   6.162  0.0849 -0.4869 -0.3764
17103SOL    HW169301   8.162   9.941   6.116 -0.9329 -0.1758 -0.9700
17103SOL    HW269302   8.054   9.917   6.219 -0.6867 -0.8751 -0.8719
17104SOL     OW69303  10.937  13.177   1.752  0.2457  0.0445  0.6861
17104SOL    HW169304  10.930  13.261   1.707 -0.4421  0.1378  0.9453
17104SOL    HW269305  10.999  13.126   1.700  0.9284  0.8316  0.7130
17105SOL     OW69306   1.720   4.330   5.866 -0.3423 -0.0352  0.1028
17105SOL    HW169307   1.646   4.280   5.899  0.2237 -1.5999 -0.8904
17105SOL    HW269308   1.797   4.289   5.907  0.0793  0.5211 -0.1172
17106SOL     OW69309   2.349   8.405   7.133 -0.3705 -0.0025 -0.4282
17106SOL    HW169310   2.290   8.368   7.199 -2.2799 -0.4954 -2.2881
17106SOL    HW269311   2.362   8.495   7.161 -0.2801 -0.4693  1.1486
17107SOL     OW69312   1.555  12.347   4.712 -0.0536  0.3200 -0.0549
17107SOL    HW169313   1.533  12.440   4.711  0.3481  0.4552 -2.3365
17107SOL    HW269314   1.515  12.314   4.792 -1.1480  2.2309  0.2566
17108SOL     OW69315   0.635  13.229   2.651  0.3316 -0.7126 -0.2473
17108SOL    HW169316   0.617  13.310   2.602 -0.1795  0.2007  1.3544
17108SOL    HW269317   0.726  13.209   2.631  0.7986  0.8652  0.1210
17109SOL     OW69318   8.736   2.202  11.550 -0.4513  0.1014  0.2449
17109SOL    HW169319   8.800   2.186  11.480 -1.7000 -0.9133 -0.7046
17109SOL    HW269320   8.730   2.298  11.555  0.6232  0.2072 -0.1103
17110SOL     OW69321  13.053   2.913  13.630  0.5489 -0.2427 -0.0806
17110SOL    HW169322  13.094   2.966  13.562  0.1115  0.3523  0.1140
17110SOL    HW269323  13.123   2.854  13.660  0.3783 -1.5661 -2.0633
17111SOL     OW69324   7.849  10.291   8.779 -0.4073  0.4466  0.3184
17111SOL    HW169325   7.941  10.278   8.755 -0.0476  0.7171  1.4989
17111SOL    HW269326   7.805  10.212   8.747  0.6892 -0.9079  1.9632
17112SOL     OW69327   0.153   0.357   0.670  0.1448 -0.0434 -0.2051
17112SOL    HW169328   0.135   0.362   0.764  0.8951  1.2267 -0.1177
17112SOL    HW269329   0.076   0.396   0.629 -0.1604 -0.5510 -0.1251
17113SOL     OW69330   3.485   8.881  10.315  0.3120  0.5039 -0.0300
17113SOL    HW169331   3.450   8.949  10.373  1.0766  1.7152 -0.9383
17113SOL    HW269332   3.580   8.885  10.327  0.3311 -1.3428  0.8745
17114SOL     OW69333   4.047   2.951   2.956  0.1132  0.5890  0.3448
17114SOL    HW169334   4.068   2.858   2.962  3.3944  1.0637 -1.3149
17114SOL    HW269335   3.964   2.954   2.910 -0.3185 -1.4944  0.8581
17115SOL     OW69336   4.763   0.696  13.490  0.2827 -0.9963  0.2467
17115SOL    HW169337   4.761   0.675  13.583  0.3846 -0.8117  0.2905
17115SOL    HW269338   4.671   0.695  13.463  0.2463 -0.9469  0.3703
17116SOL     OW69339  12.798   3.741   6.350  0.8315  0.0091  0.0517
17116SOL    HW169340  12.766   3.797   6.422  0.2517 -0.4697  0.1798
17116SOL    HW269341  12.886   3.715   6.377  1.8656  2.2974 -0.8389
17117SOL     OW69342  10.202  10.468   0.712 -0.6713  0.6333 -0.3570
17117SOL    HW169343  10.162  10.529   0.650  0.8348  1.3227 -0.6796
17117SOL    HW269344  10.252  10.408   0.657 -0.1103  0.6561  0.1269
17118SOL     OW69345   3.943   9.936   3.296 -0.0363  0.6754  0.2255
17118SOL    HW169346   3.937   9.934   3.391 -1.6599 -0.0065  0.1567
17118SOL    HW269347   3.954   9.844   3.271 -0.3934  0.7605 -0.2621
17119SOL     OW69348  10.253  10.624   9.341 -0.0402 -0.0558  0.5125
17119SOL    HW169349  10.306  10.599   9.265 -0.1477 -0.9095  0.7086
17119SOL    HW269350  10.172  10.658   9.303  0.7265  1.5229  0.2048
17120SOL     OW69351  12.866   0.895  10.128  0.1970 -0.4841 -0.4717
17120SOL    HW169352  12.854   0.811  10.171 -0.4985 -0.0653  0.1910
17120SOL    HW269353  12.810   0.891  10.050  1.2713 -1.1556 -1.2228
17121SOL     OW69354   0.197   2.338   7.221  0.0864 -0.3525  0.1024
17121SOL    HW169355   0.253   2.263   7.203 -0.1950 -0.6682  0.5209
17121SOL    HW269356   0.200   2.348   7.316 -2.6123 -1.9892  0.4447
17122SOL     OW69357  12.757   1.355   8.325 -0.2482  0.1971 -0.2211
17122SOL    HW169358  12.685   1.303   8.291  0.5009  0.3173 -2.1170
17122SOL    HW269359  12.835   1.317   8.285  0.7674  0.2041  1.5986
17123SOL     OW69360   4.543  11.425  14.095  0.0783 -0.0495 -0.3254
17123SOL    HW169361   4.629  11.456  14.124  0.9565 -2.4682 -0.1149
17123SOL    HW269362   4.496  11.405  14.176  0.0934 -0.7040 -0.4798
17124SOL     OW69363   6.837   8.153   6.228  0.0733 -0.2556  0.1613
17124SOL    HW169364   6.769   8.202   6.182 -1.6226 -1.7340  0.9240
17124SOL    HW269365   6.815   8.061   6.213  2.4486 -0.8296 -0.2554
17125SOL     OW69366   9.246   5.556   5.960 -0.2117 -0.1891  0.1576
17125SOL    HW169367   9.256   5.496   5.887 -2.0707  0.8877 -1.0538
17125SOL    HW269368   9.324   5.611   5.957  0.5615 -1.2583  0.0907
17126SOL     OW69369   7.186   1.905  11.479 -0.2913 -0.1096 -0.8504
17126SOL    HW169370   7.123   1.977  11.473  0.7924  1.0939  1.0250
17126SOL    HW269371   7.133   1.826  11.484 -1.6327  0.8027 -0.1730
17127SOL     OW69372  11.376   1.325   7.826  0.5035  0.1926  0.2675
17127SOL    HW169373  11.302   1.295   7.773  2.4816 -0.5754 -2.2262
17127SOL    HW269374  11.357   1.417   7.843 -2.1221 -0.5364  1.7549
17128SOL     OW69375   3.450   4.104  13.984  0.1328 -0.1813  0.3032
17128SOL    HW169376   3.531   4.075  13.942 -1.3528 -0.5789 -2.5201
17128SOL    HW269377   3.436   4.042  14.055 -0.6105 -3.8401 -2.7436
17129SOL     OW69378  10.451   5.170   4.603 -0.0922 -0.4516  0.0791
17129SOL    HW169379  10.363   5.133   4.611 -0.6813  1.1481  1.6758
17129SOL    HW269380  10.500   5.105   4.553 -2.3819 -1.0112 -1.6178
17130SOL     OW69381   9.901  12.058  13.031 -0.2841  0.5683 -0.3591
17130SOL    HW169382   9.843  12.088  12.961  1.4382  0.1180 -2.0617
17130SOL    HW269383   9.862  11.975  13.060 -1.3428  1.0545 -0.3470
17131SOL     OW69384   4.931   1.398   4.339  0.7385 -0.6279  0.5300
17131SOL    HW169385   4.985   1.397   4.418  0.6670 -0.5418  0.5816
17131SOL    HW269386   4.993   1.385   4.267  1.3127  2.3651  0.3245
17132SOL     OW69387   7.679   0.719   5.922  0.1463  0.2217  0.4790
17132SOL    HW169388   7.685   0.709   5.827 -0.6245  1.0493  0.3269
17132SOL    HW269389   7.602   0.774   5.935 -0.3980 -0.7697  1.6383
17133SOL     OW69390   4.536   8.395  11.344 -0.0494  0.1827  0.0285
17133SOL    HW169391   4.602   8.461  11.320 -0.9827  0.6334 -1.4889
17133SOL    HW269392   4.512   8.355  11.260  1.0139 -2.6653  0.9775
17134SOL     OW69393  10.929   9.395   0.069  0.4566  0.0322 -0.4587
17134SOL    HW169394  10.856   9.334   0.065  0.0616  0.5363 -1.2661
17134SOL    HW269395  10.892   9.475   0.107  1.0133 -0.2658  0.7775
17135SOL     OW69396  10.235   8.647  10.810  0.1778  0.2613 -0.0696
17135SOL    HW169397  10.221   8.710  10.880 -0.8085  0.3912 -0.3731
17135SOL    HW269398  10.285   8.576  10.851 -0.8575  0.0738  0.9066
17136SOL     OW69399  12.715   9.324  11.973  0.2330  0.8583  0.7008
17136SOL    HW169400  12.691   9.415  11.988  2.6434  1.4027  1.7297
17136SOL    HW269401  12.690   9.279  12.055 -1.6538  0.3595 -0.0828
17137SOL     OW69402   9.724   9.005   2.085 -0.7167 -0.0774  0.2883
17137SOL    HW169403   9.703   8.919   2.049  2.8345 -0.7012 -0.6569
17137SOL    HW269404   9.689   9.002   2.174 -2.6852 -1.5581 -0.4418
17138SOL     OW69405   4.679   4.360   9.449 -0.4345  0.3183 -0.3941
17138SOL    HW169406   4.746   4.412   9.494 -1.6413  1.9192 -0.3712
17138SOL    HW269407   4.600   4.372   9.501 -0.8770 -1.1059 -0.7131
17139SOL     OW69408   8.859   4.869   8.056 -0.4216 -0.6323  0.1180
17139SOL    HW169409   8.803   4.823   8.117  0.1453  0.6785  1.7076
17139SOL    HW269410   8.948   4.858   8.091  0.0389 -0.6940 -1.0243
17140SOL     OW69411   4.094   2.008  10.085  0.1611  0.2796  0.2449
17140SOL    HW169412   4.081   1.945  10.156 -0.2137  0.7555  0.6029
17140SOL    HW269413   4.013   2.058  10.081 -0.3586 -0.5993 -1.4113
17141SOL     OW69414  11.371  10.843   7.518 -0.1232  0.0722  0.3844
17141SOL    HW169415  11.337  10.827   7.606  1.1389  2.5343  1.3997
17141SOL    HW269416  11.316  10.913   7.483 -1.5852 -1.8652 -1.4878
17142SOL     OW69417  10.163  11.173   1.764 -0.2113  0.6276  0.5034
17142SOL    HW169418  10.090  11.220   1.724 -0.4429 -1.4591 -1.7171
17142SOL    HW269419  10.126  11.091   1.796  1.1634 -0.7116 -1.1331
17143SOL     OW69420   6.149  13.607   2.005 -0.0506  0.3255  0.0049
17143SOL    HW169421   6.137  13.629   2.098 -0.0966 -0.5675  0.2272
17143SOL    HW269422   6.241  13.581   1.998 -0.6075 -1.9661  0.3560
17144SOL     OW69423   7.156   4.636   8.412  0.3430  0.7062  0.1747
17144SOL    HW169424   7.237   4.608   8.370 -0.5647 -0.7969 -0.6707
17144SOL    HW269425   7.096   4.652   8.339 -0.1038  1.9401  0.7819
17145SOL     OW69426  12.585   4.122   5.742 -0.0998  0.2943 -0.3162
17145SOL    HW169427  12.529   4.105   5.667  0.9111  1.4385 -1.3785
17145SOL    HW269428  12.669   4.081   5.720 -0.7259 -2.4489  1.7613
17146SOL     OW69429   4.112   6.726   6.106  0.4696 -0.5082  0.0093
17146SOL    HW169430   4.058   6.799   6.138 -2.5740 -1.2499 -2.9520
17146SOL    HW269431   4.178   6.768   6.052  0.7664  0.2103  0.8936
17147SOL     OW69432   3.887   9.381   2.578 -0.0494  0.2120 -0.4284
17147SOL    HW169433   3.893   9.397   2.484 -1.3181  1.4937 -0.3275
17147SOL    HW269434   3.912   9.464   2.618  2.1830 -0.8103  0.4632
17148SOL     OW69435   6.443  13.738  10.147  0.5530 -0.1718  0.2739
17148SOL    HW169436   6.439  13.724  10.052  1.3469  1.1475  0.0281
17148SOL    HW269437   6.523  13.789  10.160 -1.1651  2.4429  1.2918
17149SOL     OW69438   8.378   6.615   9.425  0.1018 -0.5404  0.2320
17149SOL    HW169439   8.402   6.708   9.423  0.1069 -0.5505 -0.5228
17149SOL    HW269440   8.374   6.593   9.518  0.9159  0.0089  0.4087
17150SOL     OW69441   4.927   3.417  11.568  0.0794 -0.2166  0.3734
17150SOL    HW169442   4.835   3.438  11.580  0.1279  0.5006 -0.3419
17150SOL    HW269443   4.961   3.402  11.656 -0.6606 -0.2117  0.6607
17151SOL     OW69444   3.979   6.220   2.178  0.5273 -0.2942  0.3453
17151SOL    HW169445   4.026   6.235   2.096  0.9413 -2.1110  0.1919
17151SOL    HW269446   4.040   6.245   2.246 -0.1548  2.1301  0.1462
17152SOL     OW69447  10.568   9.893   4.874  0.1513  0.1296 -0.2545
17152SOL    HW169448  10.656   9.895   4.910 -0.2902 -1.4597  1.0146
17152SOL    HW269449  10.535   9.805   4.894 -1.1517  0.1287 -2.0954
17153SOL     OW69450   8.164  12.039   6.610  0.5639 -0.2160 -0.1815
17153SOL    HW169451   8.121  12.040   6.525 -2.1075 -1.5587  1.0282
17153SOL    HW269452   8.133  12.118   6.654  1.2526  0.0244 -0.1041
17154SOL     OW69453   3.747   1.337   3.000  0.0616  0.2620  0.6824
17154SOL    HW169454   3.843   1.340   3.001  0.1138 -0.4811 -0.4588
17154SOL    HW269455   3.726   1.244   3.005 -0.5653  0.3510 -0.1221
17155SOL     OW69456  13.180   8.940   4.046  0.0383 -0.0345 -0.4840
17155SOL    HW169457  13.220   8.892   3.973  1.1887  0.3760 -0.1534
17155SOL    HW269458  13.227   9.023   4.048 -1.0710  0.6002 -0.2593
17156SOL     OW69459   9.462  12.821   3.393 -0.0071 -0.3384 -0.4274
17156SOL    HW169460   9.503  12.867   3.320 -0.8900  0.4655 -0.4218
17156SOL    HW269461   9.375  12.799   3.361 -0.4695  0.1897  0.4478
17157SOL     OW69462   4.663   2.895   4.947  0.0944  0.2151  0.0432
17157SOL    HW169463   4.605   2.844   5.003 -0.1328  0.4427  0.0175
17157SOL    HW269464   4.605   2.957   4.902  0.2193 -0.2340 -0.7463
17158SOL     OW69465   2.239  13.876   7.213  0.6087 -0.6027  0.2741
17158SOL    HW169466   2.193  13.912   7.136 -2.0648  0.2999  2.1403
17158SOL    HW269467   2.276  13.952   7.257 -0.4778 -0.7202  1.4362
17159SOL     OW69468  12.824   4.229   0.196 -0.0263  0.9759  0.3146
17159SOL    HW169469  12.861   4.141   0.195 -1.6966  0.1140 -3.2741
17159SOL    HW269470  12.881   4.281   0.139 -1.4160  0.9584 -1.1707
17160SOL     OW69471   8.815   9.615  10.104 -0.2092 -0.2303 -0.7461
17160SOL    HW169472   8.819   9.699  10.150  1.9165 -0.6491 -0.0142
17160SOL    HW269473   8.838   9.550  10.171  3.0395 -0.8652 -2.2726
17161SOL     OW69474   6.016   9.193  13.438  0.0088  0.4272  0.2552
17161SOL    HW169475   5.980   9.184  13.526  0.3160 -1.7690  0.2203
17161SOL    HW269476   6.110   9.179  13.448 -0.0452 -0.6308 -0.4844
17162SOL     OW69477   3.572   0.667   8.616 -0.2658  0.3335 -0.4320
17162SOL    HW169478   3.547   0.732   8.551 -0.3440  1.6362  0.8710
17162SOL    HW269479   3.530   0.695   8.697  0.0125 -1.1301  0.2644
17163SOL     OW69480   0.318   1.976   4.864 -0.1200  0.2370 -0.7959
17163SOL    HW169481   0.261   2.039   4.820 -0.7890  0.2308  0.0345
17163SOL    HW269482   0.401   1.981   4.817 -0.0816  1.9149 -0.5931
17164SOL     OW69483  14.099   6.493   5.709 -0.4167 -0.1559 -0.7570
17164SOL    HW169484  14.102   6.587   5.728 -1.4902 -0.2777  0.1654
17164SOL    HW269485  14.089   6.452   5.795  0.8778 -1.1891 -1.0690
17165SOL     OW69486  14.109   6.130   6.061 -0.0531  0.2216 -0.1466
17165SOL    HW169487  14.059   6.130   6.142 -0.4264 -0.7645 -0.3608
17165SOL    HW269488  14.068   6.062   6.008 -0.1099  1.1662 -1.3518
17166SOL     OW69489  13.637   0.558  11.254  0.0468 -0.2317  0.4132
17166SOL    HW169490  13.695   0.498  11.208  0.8806  0.4788  0.5091
17166SOL    HW269491  13.610   0.620  11.186 -0.3760 -0.3928  0.4329
17167SOL     OW69492   3.289  13.896  11.687  0.2001  0.2260  0.0897
17167SOL    HW169493   3.282  13.838  11.611  0.0945 -1.2291  1.1770
17167SOL    HW269494   3.212  13.952  11.682 -0.9754 -1.3271  0.3086
17168SOL     OW69495   2.496   2.647  11.477  0.1344  0.5678  0.2034
17168SOL    HW169496   2.538   2.594  11.544  0.8670 -0.1633 -0.7897
17168SOL    HW269497   2.476   2.730  11.520 -0.6012 -0.3203  1.6624
17169SOL     OW69498   3.677  13.600   9.548  0.6428 -0.2521  0.3033
17169SOL    HW169499   3.640  13.581   9.461  2.8893 -1.2867 -0.5049
17169SOL    HW269500   3.757  13.548   9.551  1.5036  1.0958  2.3492
17170SOL     OW69501  13.397   5.826   5.959  0.8254 -0.2851 -0.2016
17170SOL    HW169502  13.367   5.790   5.876  0.7165  0.8557 -0.6811
17170SOL    HW269503  13.317   5.841   6.009  0.8836 -0.8729  0.0714
17171SOL     OW69504   6.775   8.533   4.379 -0.0707  0.3710 -0.7817
17171SOL    HW169505   6.767   8.605   4.442 -1.1012  1.4280 -2.0579
17171SOL    HW269506   6.817   8.463   4.428  0.6664  1.7267  0.5995
17172SOL     OW69507   3.972   0.451  13.510 -0.6899 -0.0789 -0.1430
17172SOL    HW169508   3.913   0.461  13.584 -0.6084  2.9848 -0.3479
17172SOL    HW269509   3.982   0.540  13.475  0.7883 -1.1114 -2.6529
17173SOL     OW69510   8.570  11.795  13.106  0.2030  0.4215  0.0114
17173SOL    HW169511   8.646  11.740  13.127 -0.5213 -0.0795  1.4410
17173SOL    HW269512   8.523  11.746  13.038  1.1952  0.8038 -0.9960
17174SOL     OW69513   8.426   7.118   4.718  0.1363  0.1213 -0.5677
17174SOL    HW169514   8.437   7.161   4.803 -1.2443 -1.1281  0.3124
17174SOL    HW269515   8.333   7.092   4.716 -0.1382  1.0432 -2.9352
17175SOL     OW69516  11.640   5.648   0.512  0.3679  0.0518  0.4603
17175SOL    HW169517  11.578   5.708   0.471  0.1365 -0.3587  0.2087
17175SOL    HW269518  11.725   5.672   0.474 -0.1424 -1.9331 -2.1928
17176SOL     OW69519  13.403  10.771   1.525 -0.7065  0.7372 -0.4952
17176SOL    HW169520  13.412  10.737   1.614 -0.9357 -0.5947 -0.9536
17176SOL    HW269521  13.478  10.733   1.477 -2.2135 -1.0703 -1.5717
17177SOL     OW69522   6.294   7.219  13.325 -0.0213 -0.1915  1.0391
17177SOL    HW169523   6.370   7.180  13.368 -0.2228 -1.6725  0.1216
17177SOL    HW269524   6.281   7.166  13.247 -3.7589 -1.8968  2.5958
17178SOL     OW69525   8.047   8.442   1.356 -0.8538  0.0948  0.4817
17178SOL    HW169526   8.108   8.370   1.342  2.2196  2.0733  2.5501
17178SOL    HW269527   8.048   8.490   1.273  0.3177  0.0360  0.4543
17179SOL     OW69528  10.613   1.051   8.120  0.1036  0.2433 -0.3455
17179SOL    HW169529  10.677   0.981   8.124  0.3204  0.4797  0.3372
17179SOL    HW269530  10.620   1.084   8.030  0.5857 -0.0521 -0.4209
17180SOL     OW69531  12.847   5.284   3.401  0.0681  0.2602  0.2387
17180SOL    HW169532  12.918   5.343   3.377 -0.5113  0.4460 -1.1237
17180SOL    HW269533  12.796   5.332   3.467  0.7783  0.4141  0.6843
17181SOL     OW69534  11.831  12.264   9.395  0.3643 -0.4799 -0.2803
17181SOL    HW169535  11.883  12.236   9.470 -0.8483  0.2691  0.8720
17181SOL    HW269536  11.813  12.357   9.412 -0.1624 -0.3692 -1.3605
17182SOL     OW69537   1.080  10.898  11.388 -0.2800 -0.0843  0.5784
17182SOL    HW169538   1.154  10.904  11.328 -0.9741  0.7570 -0.2257
17182SOL    HW269539   1.007  10.871  11.333 -0.3458 -2.1670  1.5847
17183SOL     OW69540  13.860   1.759   4.303 -0.0416 -0.2717  0.2636
17183SOL    HW169541  13.839   1.784   4.213 -0.5379  1.5906  0.8603
17183SOL    HW269542  13.781   1.779   4.353  0.5247 -0.4598  1.2531
17184SOL     OW69543  11.864  10.336  13.667  0.6811  0.4204  0.0445
17184SOL    HW169544  11.779  10.378  13.674 -0.0098 -0.9701  0.3117
17184SOL    HW269545  11.873  10.316  13.574  0.1148 -0.6060  0.2009
17185SOL     OW69546   1.707   7.953   1.941 -0.1779 -0.4602 -0.0775
17185SOL    HW169547   1.771   7.908   1.996 -0.5369 -0.9980 -0.0934
17185SOL    HW269548   1.707   8.043   1.972  0.1822 -0.5859  0.2901
17186SOL     OW69549  13.902   1.361   0.809 -0.1931  0.5572 -0.0332
17186SOL    HW169550  13.876   1.283   0.761  0.3703  0.6951 -0.5790
17186SOL    HW269551  13.932   1.422   0.742 -0.8683  1.3528  0.3525
17187SOL     OW69552   8.261  13.610   3.885 -0.5108 -0.1372  0.3753
17187SOL    HW169553   8.330  13.570   3.938 -0.3086  0.0805  0.2793
17187SOL    HW269554   8.308  13.667   3.824 -0.7080 -0.8729 -0.4671
17188SOL     OW69555   3.877   4.096   6.633 -0.2963  0.1008  0.0491
17188SOL    HW169556   3.896   4.144   6.552 -0.2603 -0.9081 -0.5647
17188SOL    HW269557   3.799   4.140   6.669 -1.8122 -0.8790 -1.8121
17189SOL     OW69558  10.258   2.629   8.718  0.1317 -0.2708  0.2367
17189SOL    HW169559  10.197   2.673   8.777  1.5366  0.6370  1.0677
17189SOL    HW269560  10.215   2.630   8.633 -0.0571  2.4582  0.2816
17190SOL     OW69561   7.760  13.320  11.527  0.1278  0.2019  0.1972
17190SOL    HW169562   7.806  13.404  11.535  1.1599 -0.4332  1.5249
17190SOL    HW269563   7.819  13.258  11.570 -1.0739 -1.0235  0.1078
17191SOL     OW69564  14.118   7.446   7.936  0.0498  0.2247 -0.0541
17191SOL    HW169565  14.043   7.504   7.920  1.4818  2.0925 -0.4888
17191SOL    HW269566  14.154   7.477   8.019 -0.3129 -1.4435  0.7589
17192SOL     OW69567   3.654  13.836   3.011 -0.1928  0.3247  0.0906
17192SOL    HW169568   3.688  13.759   3.057 -2.1916 -0.1071  0.9612
17192SOL    HW269569   3.646  13.903   3.078  0.2669  0.8612 -0.3864
17193SOL     OW69570   3.001   3.045   7.656 -0.2445 -0.3459  0.7543
17193SOL    HW169571   3.089   3.049   7.619  0.4328  2.3756  2.3719
17193SOL    HW269572   2.945   3.088   7.591  0.3860  1.5925  1.4465
17194SOL     OW69573   7.614   3.664   0.395 -0.6158  0.3265  0.0293
17194SOL    HW169574   7.588   3.730   0.460  0.3943  0.8817 -0.1046
17194SOL    HW269575   7.611   3.711   0.312 -0.4204  0.0477 -0.1328
17195SOL     OW69576   0.607   8.524   6.945  0.4074 -0.6560 -0.4502
17195SOL    HW169577   0.674   8.592   6.948 -0.2080 -0.0674  1.4758
17195SOL    HW269578   0.633   8.461   7.012 -1.0101 -0.3140  0.4834
17196SOL     OW69579  12.044   3.812   0.605 -0.0390 -0.7403  0.2979
17196SOL    HW169580  12.114   3.761   0.645 -0.1352 -0.1610  1.2306
17196SOL    HW269581  12.087   3.859   0.533 -0.0642 -2.5192 -0.9351
17197SOL     OW69582  11.092   4.437   3.467  0.1329 -0.3855 -0.3740
17197SOL    HW169583  11.062   4.445   3.377  0.9305  0.1237 -0.6066
17197SOL    HW269584  11.042   4.364   3.503 -1.1108  0.1998 -0.8387
17198SOL     OW69585   4.328   4.982   7.605 -0.2040 -0.1618  0.6374
17198SOL    HW169586   4.327   4.961   7.698  1.9071  1.2931  1.0546
17198SOL    HW269587   4.295   5.071   7.599 -1.2208 -0.5688 -0.1414
17199SOL     OW69588  12.159   9.131  13.551 -0.6111 -0.4966  0.3228
17199SOL    HW169589  12.139   9.157  13.641 -1.1395 -0.3205  0.1548
17199SOL    HW269590  12.094   9.176  13.498 -0.7871 -1.1977 -0.0781
17200SOL     OW69591   4.925  12.273   6.117 -0.0311  0.0334 -0.0409
17200SOL    HW169592   5.016  12.247   6.132 -0.3361 -2.4978 -1.8082
17200SOL    HW269593   4.930  12.335   6.044  0.2665 -0.4877 -0.4751
17201SOL     OW69594  12.881   9.780  12.375  0.3508  0.7136 -0.0304
17201SOL    HW169595  12.955   9.796  12.433  0.5319 -0.5002  0.1057
17201SOL    HW269596  12.921   9.753  12.292  0.1288 -2.3290  0.7429
17202SOL     OW69597  10.426   5.880   6.246 -0.0633  0.3370 -0.5311
17202SOL    HW169598  10.484   5.862   6.320  2.5304  4.1275 -1.3200
17202SOL    HW269599  10.421   5.798   6.198  0.8371 -1.3533  2.0567
17203SOL     OW69600   6.132   0.620   6.554  0.3325 -0.2177  0.3595
17203SOL    HW169601   6.172   0.533   6.561  1.4550  0.1296 -1.1990
17203SOL    HW269602   6.122   0.649   6.645 -0.6290 -2.1979  0.9377
17204SOL     OW69603   7.063  13.511   4.717 -0.4648  0.5502 -0.1973
17204SOL    HW169604   7.028  13.526   4.629  1.2509  0.9715 -0.8541
17204SOL    HW269605   7.148  13.470   4.702  0.1936  1.3118  1.2407
17205SOL     OW69606  12.232   3.678   4.039 -0.1469 -0.3581  0.1318
17205SOL    HW169607  12.239   3.585   4.019 -1.7227 -0.5500  0.3048
17205SOL    HW269608  12.146   3.703   4.005 -0.0889  0.8425  0.8088
17206SOL     OW69609   4.602  12.207   2.017  0.1935 -0.1598  0.1478
17206SOL    HW169610   4.536  12.274   2.003  0.5250 -0.1493 -1.6392
17206SOL    HW269611   4.570  12.131   1.969  0.8561 -0.5732  0.3443
17207SOL     OW69612   6.658  12.000   7.467  0.3705  0.1872 -1.1215
17207SOL    HW169613   6.728  11.937   7.449 -1.1147 -1.8458 -0.3058
17207SOL    HW269614   6.580  11.960   7.427 -1.1430  0.1699  1.6232
17208SOL     OW69615  12.779  12.314   2.774  0.4035 -0.0975 -0.7267
17208SOL    HW169616  12.710  12.286   2.714 -0.1237 -1.2234  0.3428
17208SOL    HW269617  12.760  12.267   2.856  1.1183  1.3392  0.3087
17209SOL     OW69618  13.983  12.217   8.447 -0.1891  0.1315 -0.0504
17209SOL    HW169619  14.059  12.249   8.495  0.3878  1.0461 -1.4849
17209SOL    HW269620  13.933  12.296   8.427 -0.8790 -0.3276 -0.1532
17210SOL     OW69621   1.306  12.964  12.333 -0.1766 -0.6546  0.0620
17210SOL    HW169622   1.251  12.911  12.390 -0.9151  0.3576  0.3264
17210SOL    HW269623   1.395  12.945  12.360 -0.4923 -0.7094  1.0866
17211SOL     OW69624   5.438   2.386   5.380  0.5677 -0.1038  0.1017
17211SOL    HW169625   5.379   2.310   5.387  1.4870 -0.7678  0.9060
17211SOL    HW269626   5.520   2.349   5.349  0.9921  0.5959  0.3829
17212SOL     OW69627   5.846   9.996   2.310 -0.3832 -0.2971 -0.0699
17212SOL    HW169628   5.841   9.981   2.216  1.1029  0.1911 -0.2565
17212SOL    HW269629   5.898  10.075   2.319 -0.1947 -0.5398  1.1754
17213SOL     OW69630  11.668  10.682  12.238 -0.5381 -0.7107 -0.2287
17213SOL    HW169631  11.622  10.659  12.319  0.5965 -1.5638  0.2134
17213SOL    HW269632  11.761  10.672  12.260 -0.0403  1.9227 -0.7807
17214SOL     OW69633  13.687   5.852  13.060  0.2475 -0.0497 -0.2537
17214SOL    HW169634  13.708   5.891  12.975  1.4930 -0.8671 -0.3514
17214SOL    HW269635  13.631   5.917  13.103  1.5361  1.4644 -0.7484
17215SOL     OW69636  10.609  11.671   7.118 -0.2799  0.2679  0.5985
17215SOL    HW169637  10.687  11.656   7.065 -0.1637  0.8641  0.5895
17215SOL    HW269638  10.540  11.693   7.054 -0.2055  0.7216  0.6691
17216SOL     OW69639   4.767  10.985   7.657 -0.2563  0.2189 -0.3289
17216SOL    HW169640   4.831  11.009   7.591  0.2247  1.0386  0.4065
17216SOL    HW269641   4.696  11.049   7.647 -1.3727 -1.1637 -1.6642
17217SOL     OW69642  13.904   2.282   6.235  0.3486  0.5246  0.2691
17217SOL    HW169643  13.977   2.335   6.266  0.7150  0.1278  0.1050
17217SOL    HW269644  13.932   2.191   6.250  0.9447  0.2572 -2.0044
17218SOL     OW69645  13.423   6.289   6.231 -0.1489 -0.4974 -0.0367
17218SOL    HW169646  13.473   6.357   6.277  0.6175 -0.4195 -0.9533
17218SOL    HW269647  13.489   6.230   6.196 -0.7376 -0.8166 -0.6322
17219SOL     OW69648  10.132   5.481   1.444  0.0763 -0.2518 -0.3350
17219SOL    HW169649  10.054   5.513   1.398 -0.7635 -0.1727  1.0797
17219SOL    HW269650  10.178   5.561   1.471 -0.9334 -0.2084  1.3917
17220SOL     OW69651  13.874   7.029   4.116 -0.7233 -0.0617 -0.1736
17220SOL    HW169652  13.869   6.940   4.152  0.0318 -0.4621 -0.9893
17220SOL    HW269653  13.959   7.031   4.072 -0.0741  1.5591  1.0748
17221SOL     OW69654   0.125   0.968   9.685  0.7282  0.6987  0.0146
17221SOL    HW169655   0.080   0.885   9.703 -1.3732  1.3220 -1.9274
17221SOL    HW269656   0.218   0.948   9.698  0.0976 -1.0914  2.5766
17222SOL     OW69657   6.115  10.398  11.039  0.4825 -0.4859 -0.2967
17222SOL    HW169658   6.095  10.365  11.127  0.2994 -0.0586 -0.1800
17222SOL    HW269659   6.141  10.489  11.052 -1.9716  0.3956 -0.9351
17223SOL     OW69660   6.660   1.208   2.847  0.0743  0.9519  0.1261
17223SOL    HW169661   6.669   1.117   2.874  0.1092  0.3436 -1.7850
17223SOL    HW269662   6.717   1.257   2.907  1.1910 -0.4671  0.2595
17224SOL     OW69663   7.419   6.116   9.181  0.8512  0.0027 -0.0478
17224SOL    HW169664   7.487   6.068   9.134 -0.0640 -0.6186 -0.7737
17224SOL    HW269665   7.392   6.057   9.252 -1.4467 -1.3887 -1.9251
17225SOL     OW69666   5.287  12.347   6.416 -0.2499 -1.1064 -0.4098
17225SOL    HW169667   5.355  12.409   6.441 -0.9998 -0.4186 -0.0137
17225SOL    HW269668   5.228  12.398   6.361 -1.7371 -0.9987  1.2016
17226SOL     OW69669   4.488  11.856   8.776 -0.2344 -0.6330 -0.5835
17226SOL    HW169670   4.526  11.883   8.693  0.3673  1.8472  0.4007
17226SOL    HW269671   4.419  11.920   8.794 -0.0783 -0.8449  0.9826
17227SOL     OW69672   1.097   0.317   8.501  0.0394 -0.2292  0.4057
17227SOL    HW169673   1.079   0.309   8.407 -0.4858 -1.6731  0.6158
17227SOL    HW269674   1.016   0.290   8.544 -0.7177  3.0208  1.3081
17228SOL     OW69675   4.646   4.897   9.728  0.0952  0.1558  0.0946
17228SOL    HW169676   4.723   4.874   9.780 -0.1015 -0.2525  0.2041
17228SOL    HW269677   4.588   4.822   9.736 -0.0914  0.2385 -0.4233
17229SOL     OW69678  13.839  12.872   5.062  0.0101 -0.7266  0.0140
17229SOL    HW169679  13.754  12.877   5.019 -0.4155 -1.6073  0.7225
17229SOL    HW269680  13.903  12.882   4.992 -0.6705  0.4996 -0.4544
17230SOL     OW69681   9.777   0.624   1.420  0.3460  0.2177 -0.3087
17230SOL    HW169682   9.715   0.664   1.358 -1.6261  0.5692  1.7437
17230SOL    HW269683   9.765   0.530   1.407 -1.2995  0.2590  0.5916
17231SOL     OW69684   8.055   0.279   3.817  0.0927 -0.1428  0.1570
17231SOL    HW169685   8.140   0.274   3.859  0.5374  1.0360 -0.5633
17231SOL    HW269686   8.001   0.216   3.865  0.9464  0.1820  1.5974
17232SOL     OW69687   5.030  12.266  10.059  0.0813  0.2116 -0.0665
17232SOL    HW169688   5.093  12.249   9.989 -0.1423 -0.9585  0.0007
17232SOL    HW269689   4.945  12.245  10.021 -0.1275  0.4335  0.2779
17233SOL     OW69690  11.938   8.702   2.748 -0.1543  0.5784  0.1876
17233SOL    HW169691  11.939   8.750   2.665 -1.4170  0.1094 -0.1194
17233SOL    HW269692  11.847   8.673   2.757 -0.0403  0.6790  1.7721
17234SOL     OW69693   4.056  12.448  14.001  0.3071 -0.5509 -0.3890
17234SOL    HW169694   4.043  12.498  14.082 -0.4022 -2.4029  0.7105
17234SOL    HW269695   4.147  12.464  13.977  0.8569 -0.7787  1.3881
17235SOL     OW69696   4.573   0.559  12.884  0.4384 -0.2996  0.1116
17235SOL    HW169697   4.637   0.491  12.864  0.1778 -0.1380 -1.4569
17235SOL    HW269698   4.489   0.521  12.859  0.2351  0.4191 -0.3331
17236SOL     OW69699   9.541   0.706   3.560  0.1672  0.3102 -0.1417
17236SOL    HW169700   9.503   0.788   3.590  0.2497  0.1197  0.4883
17236SOL    HW269701   9.569   0.724   3.470 -1.2391  0.5039 -0.5691
17237SOL     OW69702   0.661   8.006   3.535 -0.1809  0.0535 -0.8507
17237SOL    HW169703   0.723   8.077   3.550 -0.9000  0.4870  0.1960
17237SOL    HW269704   0.577   8.041   3.564 -0.1038 -2.1857  2.7133
17238SOL     OW69705   4.336   3.653   2.654  0.1722 -0.0670  0.3944
17238SOL    HW169706   4.430   3.671   2.647 -0.1792  1.3799 -1.6017
17238SOL    HW269707   4.304   3.722   2.713  0.0924  0.7146 -0.5362
17239SOL     OW69708   8.388   3.022  12.551  0.2512 -0.2482  0.5425
17239SOL    HW169709   8.362   2.995  12.639  0.6071 -1.8027  0.2068
17239SOL    HW269710   8.446   3.097  12.565 -0.0341 -0.2119  1.6038
17240SOL     OW69711  10.736   3.717   8.227 -0.0601 -0.6382 -0.0274
17240SOL    HW169712  10.756   3.811   8.223  0.6488 -0.7808  0.0832
17240SOL    HW269713  10.682   3.708   8.306  0.3448 -0.4021  0.2840
17241SOL     OW69714   6.377   1.698   7.844 -0.5457 -0.0909 -0.2135
17241SOL    HW169715   6.289   1.730   7.826 -0.9872 -0.8245  0.5287
17241SOL    HW269716   6.364   1.605   7.866  0.4824 -0.3486 -0.6506
17242SOL     OW69717   3.815   8.640  12.530  0.1950 -0.0185 -0.2880
17242SOL    HW169718   3.762   8.666  12.454 -1.0517  0.0423  0.5808
17242SOL    HW269719   3.757   8.584  12.582  0.1261  1.8849  1.8605
17243SOL     OW69720  12.842   8.172   5.823 -0.3191  0.3814 -0.0609
17243SOL    HW169721  12.830   8.080   5.800 -0.5375  0.4979 -0.4231
17243SOL    HW269722  12.935   8.189   5.810 -0.0341 -0.1039  1.1843
17244SOL     OW69723   2.956   8.799  12.561 -0.2470 -0.2995 -0.0047
17244SOL    HW169724   2.953   8.894  12.561 -2.4297 -0.2961 -1.5906
17244SOL    HW269725   3.048   8.778  12.541 -0.2550  1.5436 -2.4628
17245SOL     OW69726   5.078   6.562  11.864  0.4984 -0.9272 -0.0029
17245SOL    HW169727   5.020   6.487  11.876  0.3453 -0.9666 -0.8759
17245SOL    HW269728   5.166   6.527  11.881  0.5197 -1.5511 -1.2445
17246SOL     OW69729  12.495  10.471   3.591  0.0957  0.7805 -0.1306
17246SOL    HW169730  12.536  10.428   3.667 -0.7162  0.9614  0.4206
17246SOL    HW269731  12.427  10.410   3.564 -1.1597  1.7523  0.7436
17247SOL     OW69732   5.586   6.913   9.649 -0.9640 -0.7718  0.0165
17247SOL    HW169733   5.677   6.888   9.664 -0.2614  2.1994  1.3577
17247SOL    HW269734   5.588   6.965   9.569 -1.4286 -0.4765  0.1924
17248SOL     OW69735  11.189  13.284   3.766  0.3560  0.6727 -0.0669
17248SOL    HW169736  11.262  13.333   3.803  0.9721 -0.6959  0.5969
17248SOL    HW269737  11.219  13.260   3.678  1.3779 -1.1713  0.7316
17249SOL     OW69738   1.630   2.985   5.839  0.3663  0.8055 -0.4571
17249SOL    HW169739   1.720   2.967   5.869 -0.3003  1.2916  2.0745
17249SOL    HW269740   1.581   2.906   5.862 -0.1213  1.0524 -0.6360
17250SOL     OW69741  13.619   4.974   9.516 -0.5628 -0.2970  0.2640
17250SOL    HW169742  13.696   5.029   9.503  1.5566 -3.4460 -2.4244
17250SOL    HW269743  13.550   5.016   9.465  0.4466  0.7412 -0.2825
17251SOL     OW69744   3.767   3.901  13.131  0.6128  0.1300  0.2086
17251SOL    HW169745   3.771   3.996  13.125 -2.9267  0.5974  2.5377
17251SOL    HW269746   3.721   3.873  13.051  0.3676  0.5503  0.2019
17252SOL     OW69747   6.828   0.311   4.236 -0.0733 -0.1006 -0.2276
17252SOL    HW169748   6.785   0.395   4.247 -1.8052 -0.6943 -1.7660
17252SOL    HW269749   6.770   0.263   4.176  0.7740 -2.4314  0.7183
17253SOL     OW69750   5.565  13.724   9.326  0.2581  0.0217  0.1483
17253SOL    HW169751   5.566  13.771   9.409  0.7265  1.3551 -0.5720
17253SOL    HW269752   5.510  13.778   9.269  0.4234 -0.5635 -0.5800
17254SOL     OW69753  10.465   9.656  11.190 -0.1545  0.3545  0.4589
17254SOL    HW169754  10.546   9.672  11.237  0.2220 -0.9972  0.2988
17254SOL    HW269755  10.489   9.599  11.117 -1.0926  0.6789 -0.1299
17255SOL     OW69756  13.408   3.269   4.310  0.7413  0.2809  0.0652
17255SOL    HW169757  13.321   3.232   4.323  1.2670 -1.1214 -0.3203
17255SOL    HW269758  13.402   3.316   4.227  0.3429  0.2452  0.0692
17256SOL     OW69759   9.417   6.842   4.312 -0.2671 -0.8021  0.8137
17256SOL    HW169760   9.500   6.816   4.352 -0.3323 -1.6596  0.4144
17256SOL    HW269761   9.383   6.761   4.274 -0.8461 -0.2700  0.1882
17257SOL     OW69762   6.478   7.918   8.937  0.1377 -0.6793  0.2572
17257SOL    HW169763   6.504   8.007   8.911  3.2361 -1.2045  1.0566
17257SOL    HW269764   6.491   7.866   8.858 -1.4083 -0.5173 -0.1325
17258SOL     OW69765  13.327   8.346   9.057 -0.3805 -0.0075 -0.5613
17258SOL    HW169766  13.320   8.438   9.083 -1.8124 -0.3114  0.2412
17258SOL    HW269767  13.322   8.348   8.962 -0.0219  0.7610 -0.5758
17259SOL     OW69768   9.918   7.520   6.594  0.9002  0.1689 -0.0099
17259SOL    HW169769   9.979   7.593   6.608  0.1357  1.3593 -2.3446
17259SOL    HW269770   9.833   7.553   6.622  0.4388  0.4541 -1.6539
17260SOL     OW69771  10.195   7.444   7.228  0.5811 -0.2020 -0.1597
17260SOL    HW169772  10.137   7.377   7.191  0.1108 -0.0658  0.3198
17260SOL    HW269773  10.152   7.470   7.309  1.7713 -0.7451  0.6731
17261SOL     OW69774  10.640   8.440   3.824 -0.4774  0.2897 -0.7469
17261SOL    HW169775  10.575   8.496   3.781  0.2543  1.9452  0.1950
17261SOL    HW269776  10.617   8.444   3.917 -0.0200 -0.4776 -0.5964
17262SOL     OW69777  13.036  12.016   4.984 -0.0608 -0.7011 -0.2530
17262SOL    HW169778  12.975  12.088   4.968  1.0726  0.0821 -1.2839
17262SOL    HW269779  13.116  12.059   5.017  0.3119 -1.5816  0.0145
17263SOL     OW69780  13.399   6.662   9.125 -0.0677  0.5104 -0.4807
17263SOL    HW169781  13.357   6.584   9.163  0.4893  1.0972  1.4484
17263SOL    HW269782  13.462   6.627   9.062  1.3433 -0.7274  1.5154
17264SOL     OW69783  13.014   9.630   2.125 -0.4283  0.5902 -0.1067
17264SOL    HW169784  13.031   9.720   2.096 -0.6800  0.2674 -1.3019
17264SOL    HW269785  13.100   9.595   2.146 -0.0992  0.5012 -1.5155
17265SOL     OW69786   8.381  12.076   1.471  0.4807 -0.4690  0.2305
17265SOL    HW169787   8.310  12.028   1.429  2.7276 -1.8704 -2.2931
17265SOL    HW269788   8.427  12.010   1.523 -0.4386  0.6029  2.5319
17266SOL     OW69789   7.721   6.943   5.627 -0.0090  0.0497 -0.4012
17266SOL    HW169790   7.630   6.973   5.622  0.3946  1.4916  0.4114
17266SOL    HW269791   7.768   6.999   5.565  0.7437  1.0539  1.0386
17267SOL     OW69792   6.661   6.273   5.308 -0.6881  0.8671 -0.1050
17267SOL    HW169793   6.724   6.331   5.265 -1.7100  2.8261  0.9066
17267SOL    HW269794   6.715   6.215   5.362  0.5341 -0.7867 -2.8806
17268SOL     OW69795   3.666  10.907   0.248 -0.1292  0.2887  0.1655
17268SOL    HW169796   3.633  10.938   0.163 -0.2522  2.3104  0.8837
17268SOL    HW269797   3.759  10.892   0.234 -0.0496  1.0982 -0.2087
17269SOL     OW69798   0.240   9.206   2.695  0.4752  0.1279 -0.1090
17269SOL    HW169799   0.254   9.256   2.776  1.8641 -1.1398  0.4863
17269SOL    HW269800   0.261   9.268   2.625 -0.8456  1.2745  0.4717
17270SOL     OW69801  10.288   5.958   5.406 -0.0851 -0.3853 -0.0141
17270SOL    HW169802  10.328   5.986   5.324 -1.7999 -0.7665 -1.0152
17270SOL    HW269803  10.194   5.959   5.389 -0.4531 -1.1122  1.7445
17271SOL     OW69804   6.119   9.351   2.486 -0.3135  0.0581 -0.3225
17271SOL    HW169805   6.057   9.319   2.421 -0.2882 -1.2862  0.2751
17271SOL    HW269806   6.169   9.273   2.511  0.6311  0.8320  0.2622
17272SOL     OW69807  11.069   7.711   3.736  0.5026 -0.9015 -0.7094
17272SOL    HW169808  11.032   7.666   3.660  0.9403 -0.7390 -1.0177
17272SOL    HW269809  11.133   7.648   3.772  0.6692 -0.7732 -0.7801
17273SOL     OW69810   3.286   2.281   9.326 -0.0009  0.2299  0.2846
17273SOL    HW169811   3.222   2.223   9.367 -0.5243  0.8379  0.3467
17273SOL    HW269812   3.257   2.289   9.236 -1.3416  2.2773  0.8343
17274SOL     OW69813   7.563   9.690   4.869  0.1148 -0.1574 -0.3745
17274SOL    HW169814   7.540   9.603   4.903  1.3572 -1.0577 -1.6862
17274SOL    HW269815   7.550   9.749   4.942 -0.5050 -1.5010  0.6394
17275SOL     OW69816  10.598   1.485  12.062  0.0210 -0.0221  0.1880
17275SOL    HW169817  10.572   1.492  12.154 -0.7897 -1.3149  0.0828
17275SOL    HW269818  10.528   1.528  12.013 -0.3305 -0.7091  0.0852
17276SOL     OW69819  10.662  13.856   2.216 -0.1932 -0.3684 -0.0855
17276SOL    HW169820  10.656  13.763   2.195  1.5002 -0.9983  1.8933
17276SOL    HW269821  10.745  13.884   2.177 -1.7924  1.0443 -2.8224
17277SOL     OW69822  13.661   7.633  14.045  0.1932 -0.2738 -0.3505
17277SOL    HW169823  13.684   7.580  14.121 -1.2095  0.4250  0.5948
17277SOL    HW269824  13.569   7.653  14.056  0.4915  1.7390 -1.0568
17278SOL     OW69825   1.339   7.830   7.064 -0.2505 -0.2992 -0.7000
17278SOL    HW169826   1.290   7.805   6.986  1.6552 -3.1058 -1.1379
17278SOL    HW269827   1.359   7.747   7.107  2.0836  0.8788  0.6630
17279SOL     OW69828   0.150   4.060  12.553  0.3415  0.3315 -0.3767
17279SOL    HW169829   0.058   4.073  12.533  0.4534  0.6283 -0.7085
17279SOL    HW269830   0.188   4.026  12.472  0.5808  0.4941 -0.3350
17280SOL     OW69831   1.907   8.446  12.370  0.1234  0.4779 -0.4474
17280SOL    HW169832   1.823   8.488  12.351 -0.0696 -0.0210 -0.7235
17280SOL    HW269833   1.883   8.361  12.407  0.5068  1.1487  1.4004
17281SOL     OW69834   9.425   4.905  11.413  0.2900 -0.5066 -0.0791
17281SOL    HW169835   9.369   4.981  11.398 -0.1076 -0.8111 -0.1656
17281SOL    HW269836   9.504   4.924  11.363 -1.2771 -1.8081 -3.3741
17282SOL     OW69837  13.482  10.520  11.485 -0.2022 -0.0895  0.3515
17282SOL    HW169838  13.512  10.447  11.431 -0.9342  0.0785 -0.2878
17282SOL    HW269839  13.388  10.507  11.492 -0.1557  0.0383  1.3810
17283SOL     OW69840   9.429  12.297   7.165  0.7269  0.0794 -0.0009
17283SOL    HW169841   9.377  12.271   7.089  0.0105 -0.7692  0.7450
17283SOL    HW269842   9.514  12.254   7.152  0.6935  0.1337 -0.4279
17284SOL     OW69843   1.334   5.813   9.092  0.5785 -0.2433 -0.5735
17284SOL    HW169844   1.384   5.894   9.089  0.2058  0.0688  0.8494
17284SOL    HW269845   1.397   5.745   9.116  0.6098 -0.1053 -0.2621
17285SOL     OW69846   3.658   9.344   1.690 -0.2364  0.1140 -0.3932
17285SOL    HW169847   3.583   9.302   1.732 -0.5324 -0.5198 -1.5167
17285SOL    HW269848   3.690   9.278   1.628  2.4428 -0.4458  1.3504
17286SOL     OW69849  12.234   2.396   0.603  0.5505  0.6736  0.4509
17286SOL    HW169850  12.283   2.371   0.524  1.1171 -0.5269  1.1656
17286SOL    HW269851  12.234   2.492   0.601  0.1247  0.6660 -1.2684
17287SOL     OW69852   9.973   7.072  14.012 -0.2520 -0.6167 -0.1048
17287SOL    HW169853   9.897   7.106  13.965 -0.1440 -2.2228 -1.5757
17287SOL    HW269854   9.944   6.988  14.047  0.5674 -0.8209  0.1221
17288SOL     OW69855   7.470  10.616  13.593 -0.0909  0.4761  0.4383
17288SOL    HW169856   7.441  10.702  13.564 -0.0931  1.4935  3.2156
17288SOL    HW269857   7.413  10.594  13.666  0.2346 -1.7047  0.1135
17289SOL     OW69858   5.898   3.370  12.538  0.4035 -0.1487  0.2719
17289SOL    HW169859   5.903   3.383  12.633  0.6751 -0.9118  0.3735
17289SOL    HW269860   5.807   3.386  12.516  0.3180 -0.0597  0.6823
17290SOL     OW69861   1.540  10.263   2.197 -0.0813  0.6733 -0.5790
17290SOL    HW169862   1.583  10.278   2.281 -1.0884  1.2175 -0.1446
17290SOL    HW269863   1.502  10.348   2.174 -0.3382  0.3745 -1.2801
17291SOL     OW69864   5.943   6.679   0.011 -0.0332  0.0359  0.4508
17291SOL    HW169865   5.964   6.621  -0.062 -1.8491 -0.5819  0.3755
17291SOL    HW269866   5.959   6.767  -0.022 -1.9785 -0.1544 -1.1465
17292SOL     OW69867   9.503   4.170   7.961 -0.2946  0.1301 -0.5495
17292SOL    HW169868   9.472   4.255   7.930  0.6633  0.6919 -0.0099
17292SOL    HW269869   9.436   4.108   7.931  0.4248  0.6256 -3.5399
17293SOL     OW69870   5.462  13.717   6.358 -0.3511  0.5520 -0.1622
17293SOL    HW169871   5.446  13.623   6.359 -0.7376  0.6105  1.3622
17293SOL    HW269872   5.390  13.755   6.408  0.6373  1.5130  0.5904
17294SOL     OW69873  10.300   4.990  12.652  0.5537  0.5760 -0.0747
17294SOL    HW169874  10.367   4.963  12.589  1.7768 -0.1746  1.4735
17294SOL    HW269875  10.217   4.965  12.612  1.3617 -0.9124 -0.8929
17295SOL     OW69876   3.701   4.823   7.538  0.6353 -0.1637 -0.5863
17295SOL    HW169877   3.670   4.871   7.616  1.2402 -1.0295  0.2012
17295SOL    HW269878   3.671   4.877   7.465 -0.3633  0.4365  0.2197
17296SOL     OW69879   4.006  11.071   8.968 -0.4489  0.4359 -0.6354
17296SOL    HW169880   3.913  11.085   8.989 -0.1163  0.4392  0.9561
17296SOL    HW269881   4.050  11.147   9.005  0.6934 -1.6593  2.7961
17297SOL     OW69882   8.621  11.087   8.094 -0.2361 -0.0648  0.5789
17297SOL    HW169883   8.673  11.111   8.171 -1.6592 -1.5547  2.1111
17297SOL    HW269884   8.633  10.993   8.085 -0.9732 -0.0828 -0.3530
17298SOL     OW69885   4.712   2.556   7.245  0.0160 -0.2240  0.3270
17298SOL    HW169886   4.694   2.484   7.306 -1.6987 -0.5446 -0.4956
17298SOL    HW269887   4.626   2.594   7.226  0.7594  1.3173 -0.1576
17299SOL     OW69888   5.170   7.890   9.401 -0.4998  0.1738  0.1135
17299SOL    HW169889   5.212   7.805   9.403  1.9298  1.3064  1.2395
17299SOL    HW269890   5.106   7.887   9.473  0.6339 -0.2290  1.1339
17300SOL     OW69891  10.598  10.700   1.296 -0.0190  0.7847 -0.1679
17300SOL    HW169892  10.639  10.664   1.217  0.7699  0.3960  0.4045
17300SOL    HW269893  10.669  10.747   1.340 -0.3732  0.7384  0.4586
17301SOL     OW69894   5.725   5.021   8.413 -0.2062  0.1570  0.2854
17301SOL    HW169895   5.642   4.973   8.411  0.7777 -1.7439 -2.6935
17301SOL    HW269896   5.787   4.959   8.451  0.8168 -0.6197 -2.4270
17302SOL     OW69897   9.513   5.621   8.308 -0.6714  0.3755  0.1003
17302SOL    HW169898   9.566   5.620   8.228 -1.3666 -0.2170 -0.3625
17302SOL    HW269899   9.561   5.566   8.370 -0.7552 -0.1704 -0.3206
17303SOL     OW69900   3.579   2.814   5.363 -0.1835 -0.3198  0.2719
17303SOL    HW169901   3.627   2.738   5.396  0.3170  0.2955  0.9842
17303SOL    HW269902   3.580   2.803   5.268 -1.0188 -1.7395  0.3947
17304SOL     OW69903   9.491   2.961   5.369  0.3532  0.3467 -0.0340
17304SOL    HW169904   9.401   2.954   5.401 -0.5388  1.4130 -2.0714
17304SOL    HW269905   9.502   3.054   5.351  1.5906  0.1107 -0.5753
17305SOL     OW69906   5.326   2.570   3.123  0.0556 -0.0251  0.4029
17305SOL    HW169907   5.279   2.554   3.205 -0.1390 -1.2976  0.0689
17305SOL    HW269908   5.383   2.644   3.142 -0.7706  0.3948  1.3597
17306SOL     OW69909   3.905  10.823  13.811 -0.2491  0.0053 -0.0052
17306SOL    HW169910   3.886  10.756  13.746 -0.1722  0.4752 -0.5232
17306SOL    HW269911   3.990  10.859  13.784 -0.4619  0.5598  0.0541
17307SOL     OW69912   4.505   5.771  11.393  0.2731 -0.1778  0.1152
17307SOL    HW169913   4.429   5.715  11.375  0.7120 -1.3105  1.5864
17307SOL    HW269914   4.561   5.762  11.316 -1.2731  1.0830 -1.2309
17308SOL     OW69915  10.967  11.934   3.153  0.2606 -0.3001 -0.2029
17308SOL    HW169916  11.011  11.911   3.235 -1.5198 -2.0293  0.3405
17308SOL    HW269917  10.945  12.026   3.163  0.8760 -0.2538  0.8806
17309SOL     OW69918   6.922   8.055  13.832 -0.6996  0.0281  0.2444
17309SOL    HW169919   6.840   8.103  13.842 -0.4629  0.3668  0.5720
17309SOL    HW269920   6.962   8.091  13.753 -0.4498  0.4869  0.5738
17310SOL     OW69921   6.456  12.838  10.610 -0.3479 -0.1148  0.0746
17310SOL    HW169922   6.465  12.915  10.554  0.0517 -0.8510 -0.9224
17310SOL    HW269923   6.535  12.787  10.593 -1.1704 -1.3394 -0.2646
17311SOL     OW69924   6.174  13.209   7.878  0.5804 -0.3051 -0.2650
17311SOL    HW169925   6.221  13.126   7.871  0.6316 -0.4689  1.6296
17311SOL    HW269926   6.082  13.185   7.877  0.5914 -0.3529 -0.1702
17312SOL     OW69927   1.307  10.639   8.970  0.0512  0.5642 -0.0729
17312SOL    HW169928   1.312  10.711   8.908  1.7998 -0.0536 -0.6982
17312SOL    HW269929   1.395  10.602   8.972 -0.4408 -0.6379  1.3354
17313SOL     OW69930   5.343  12.814   9.062  0.0602  0.1462  0.0724
17313SOL    HW169931   5.365  12.730   9.021 -0.0367 -0.2093  0.7409
17313SOL    HW269932   5.416  12.831   9.122  0.2687  0.7350 -0.3321
17314SOL     OW69933   9.914   1.720   3.568  0.4367  0.3989 -0.3970
17314SOL    HW169934   9.972   1.784   3.609 -0.4516  1.0378 -0.1223
17314SOL    HW269935   9.963   1.689   3.491  1.7563 -0.1785  0.6446
17315SOL     OW69936  12.401  12.427   7.115  0.2074  0.1415 -0.5427
17315SOL    HW169937  12.422  12.518   7.094 -0.7799  1.1892  2.5625
17315SOL    HW269938  12.479  12.378   7.088  1.2388  2.0365 -1.2086
17316SOL     OW69939   8.719   7.295   8.021  0.0268  0.0262 -0.6325
17316SOL    HW169940   8.751   7.207   8.039  0.7343  0.1801 -1.0865
17316SOL    HW269941   8.792   7.353   8.046 -0.3877  0.4704 -0.4370
17317SOL     OW69942   1.059  13.336   7.296 -0.3231  0.2536  0.7775
17317SOL    HW169943   1.043  13.242   7.300  1.0983 -0.2728 -2.5783
17317SOL    HW269944   1.146  13.348   7.334  0.0365  0.0022  0.0456
17318SOL     OW69945   0.013   3.086  10.207 -0.1183  0.0686  0.1812
17318SOL    HW169946  -0.082   3.089  10.192  0.0729  0.3092 -1.1229
17318SOL    HW269947   0.047   3.163  10.161  0.6462  0.4264  1.3008
17319SOL     OW69948   7.702  10.431  13.627  0.1303  0.2395 -0.6078
17319SOL    HW169949   7.637  10.500  13.616 -0.4293 -0.0217  0.8791
17319SOL    HW269950   7.675  10.384  13.706  1.1295 -0.9864 -0.9558
17320SOL     OW69951  10.391  10.711   8.505  0.1504  0.5744  0.5683
17320SOL    HW169952  10.423  10.792   8.545  0.1697 -0.1119  1.9853
17320SOL    HW269953  10.370  10.654   8.579 -3.3640  0.5753 -0.2488
17321SOL     OW69954  12.273   7.570   1.949 -0.4658  0.0857 -0.3982
17321SOL    HW169955  12.338   7.522   1.999 -0.7156  1.2481  1.0962
17321SOL    HW269956  12.320   7.599   1.871 -0.5095 -3.1853 -1.8086
17322SOL     OW69957   4.858  11.281  11.034 -0.1770  0.1722  0.3028
17322SOL    HW169958   4.812  11.361  11.012 -1.1606 -0.7367 -1.1779
17322SOL    HW269959   4.870  11.284  11.129  0.4957  2.3861  0.1952
17323SOL     OW69960   5.715   2.350   5.260 -0.3640 -0.0135 -0.4249
17323SOL    HW169961   5.716   2.286   5.189 -0.3687 -1.1992  0.6032
17323SOL    HW269962   5.760   2.426   5.225  2.2850 -1.5990 -0.7805
17324SOL     OW69963  10.699  10.305   3.844  0.0212 -0.1295 -1.0699
17324SOL    HW169964  10.776  10.288   3.788  0.1118  0.6338 -1.2004
17324SOL    HW269965  10.632  10.245   3.812  2.0006 -4.7046  2.3920
17325SOL     OW69966   7.668   0.496   9.145 -0.2406 -0.3403 -0.7430
17325SOL    HW169967   7.715   0.540   9.215 -1.1774 -0.6007  0.0834
17325SOL    HW269968   7.611   0.433   9.190 -1.3507 -0.0571 -1.6845
17326SOL     OW69969  12.723   9.538   6.510 -0.9227 -0.6913  0.3338
17326SOL    HW169970  12.813   9.554   6.536 -1.5039  1.3516  1.3333
17326SOL    HW269971  12.705   9.448   6.537  0.9190 -1.2852 -0.3056
17327SOL     OW69972   0.987   5.890  11.197 -1.0013  0.3771 -0.3765
17327SOL    HW169973   0.961   5.943  11.273 -2.1440 -1.1556  0.3345
17327SOL    HW269974   0.966   5.945  11.121  0.0030  1.8631  0.3634
17328SOL     OW69975   6.972   0.840  12.005  0.2984 -0.0192  0.0660
17328SOL    HW169976   6.940   0.855  11.916  0.8753  0.4806 -0.0615
17328SOL    HW269977   7.055   0.792  11.993  1.0643  1.2133  0.2638
17329SOL     OW69978  13.425   7.480   4.207 -0.6101  0.0806 -0.3991
17329SOL    HW169979  13.519   7.473   4.186 -0.2392  0.0901  1.1548
17329SOL    HW269980  13.381   7.473   4.122  0.8083  0.2911 -1.1811
17330SOL     OW69981   6.383   1.269   6.480 -0.1259 -0.2526 -0.0128
17330SOL    HW169982   6.367   1.179   6.452  0.2027 -0.2982 -0.0615
17330SOL    HW269983   6.352   1.271   6.571 -1.7484  0.0609 -0.5559
17331SOL     OW69984  13.574   5.605  10.368 -0.6135  0.1240  0.1599
17331SOL    HW169985  13.501   5.658  10.334 -0.1806  1.7500  1.6859
17331SOL    HW269986  13.651   5.639  10.324 -0.4521  0.0901  0.4163
17332SOL     OW69987   5.291  11.774   5.666  0.9314  0.3213 -0.7153
17332SOL    HW169988   5.333  11.717   5.602  0.0769  2.0450 -2.9288
17332SOL    HW269989   5.200  11.743   5.670  0.4095  1.5750 -2.0843
17333SOL     OW69990  12.456  12.083   9.292 -0.1409  0.0896 -0.2922
17333SOL    HW169991  12.481  12.131   9.371  0.2782  0.0047 -0.3732
17333SOL    HW269992  12.413  12.149   9.237 -0.2512  0.1953 -0.0839
17334SOL     OW69993  10.615   0.491   4.701 -0.3730 -0.2258  0.6316
17334SOL    HW169994  10.649   0.556   4.763 -0.3232 -1.2700  1.7186
17334SOL    HW269995  10.693   0.460   4.655  0.0410 -1.6543  2.2001
17335SOL     OW69996  12.184   1.276  13.180  0.2055  0.5508  0.2974
17335SOL    HW169997  12.135   1.203  13.142  0.3329  0.8042 -0.3557
17335SOL    HW269998  12.122   1.319  13.238  0.0026  0.1803  0.3580
17336SOL     OW69999   9.231   3.313  12.963  0.2295 -0.0858 -0.1823
17336SOL    HW170000   9.136   3.304  12.971  0.1544  1.7592  1.8498
17336SOL    HW270001   9.266   3.259  13.033  0.6238  0.1417 -0.2030
17337SOL     OW70002  11.744  12.972   8.887 -0.5050 -0.2802  0.7222
17337SOL    HW170003  11.669  12.987   8.945 -0.8980 -0.5564  0.2890
17337SOL    HW270004  11.726  12.889   8.845  1.5936 -2.0592  2.9903
17338SOL     OW70005   4.357  11.703   0.149 -0.6555 -0.0365  0.6155
17338SOL    HW170006   4.271  11.743   0.140 -1.1658 -1.2489 -0.1096
17338SOL    HW270007   4.345  11.613   0.119  0.0405 -1.3278  3.8815
17339SOL     OW70008   3.782   6.549   9.139 -0.2614  0.4290 -0.8192
17339SOL    HW170009   3.691   6.553   9.167  0.4853 -3.1517  3.0320
17339SOL    HW270010   3.830   6.600   9.205  0.7341  0.4544 -1.5311
17340SOL     OW70011   0.382  13.646   0.007  0.9649 -0.3516  0.3864
17340SOL    HW170012   0.473  13.672  -0.008  1.0793  0.4563  2.1859
17340SOL    HW270013   0.385  13.591   0.086 -0.1152 -0.1867  0.5615
17341SOL     OW70014  12.904   7.148   4.691 -0.0472 -0.1029  0.0217
17341SOL    HW170015  12.943   7.098   4.619 -0.7406 -1.6546  0.6690
17341SOL    HW270016  12.977   7.165   4.751 -0.2222 -2.9829  1.2291
17342SOL     OW70017   7.295  11.646   1.277  0.0054  0.5313  0.9092
17342SOL    HW170018   7.274  11.600   1.358 -0.1678  0.2854  0.7278
17342SOL    HW270019   7.290  11.578   1.209 -0.2403  0.8150  0.6384
17343SOL     OW70020   5.080  11.755   6.270 -0.5149  1.0023 -0.3259
17343SOL    HW170021   5.008  11.804   6.309 -0.7335  0.8836 -0.5863
17343SOL    HW270022   5.044  11.668   6.253 -0.3689  1.0013 -0.6368
17344SOL     OW70023   6.658   1.025  13.523 -0.5441  0.6065  0.1485
17344SOL    HW170024   6.675   1.105  13.572  3.1605  0.1678 -0.1707
17344SOL    HW270025   6.628   1.055  13.437  0.6284  1.6639  0.0934
17345SOL     OW70026   2.394   8.470  12.913 -0.0667 -0.3952  0.6955
17345SOL    HW170027   2.360   8.498  12.998 -0.1771 -1.0881  0.8877
17345SOL    HW270028   2.417   8.551  12.868 -0.4111 -0.0033  1.2185
17346SOL     OW70029   6.249  12.266   2.062  0.7365  0.1047  0.3405
17346SOL    HW170030   6.289  12.183   2.035 -1.1377 -0.5996 -0.4204
17346SOL    HW270031   6.195  12.244   2.137 -0.6586  0.3743 -0.5441
17347SOL     OW70032  13.023   8.838   8.092 -0.2785 -0.2946 -0.1219
17347SOL    HW170033  12.973   8.900   8.145 -0.3055  0.8127 -1.3948
17347SOL    HW270034  13.110   8.836   8.132 -0.2104  0.7535 -0.1964
17348SOL     OW70035   4.187   9.248   6.546  0.0983  0.3784  0.1582
17348SOL    HW170036   4.176   9.258   6.452 -1.7173  0.4911  0.3551
17348SOL    HW270037   4.204   9.336   6.578  0.2612  0.4080 -0.0106
17349SOL     OW70038  10.669   2.415   4.206 -0.3261  0.0338  0.0002
17349SOL    HW170039  10.728   2.402   4.280 -1.3520 -2.2778  0.5137
17349SOL    HW270040  10.721   2.389   4.130  0.0465  0.3133  0.1517
17350SOL     OW70041   7.129   5.400   6.268  0.1901 -0.0539  0.3551
17350SOL    HW170042   7.140   5.443   6.183  1.0199 -1.4616 -0.2703
17350SOL    HW270043   7.212   5.414   6.313 -0.3424  0.9289  1.0817
17351SOL     OW70044   1.151   4.828  12.644 -0.5525  0.0232  0.1616
17351SOL    HW170045   1.185   4.912  12.614  1.1451  0.1771  2.3265
17351SOL    HW270046   1.225   4.768  12.638 -1.3054 -0.9343  0.1576
17352SOL     OW70047  10.290  10.048   0.999  0.0915 -0.9479  0.1474
17352SOL    HW170048  10.335  10.078   0.920 -0.6872 -0.3287 -0.0702
17352SOL    HW270049  10.211  10.101   1.003  0.3202 -0.6857  1.5719
17353SOL     OW70050   2.915   4.580  13.543 -0.4505  0.0990  0.2153
17353SOL    HW170051   2.947   4.635  13.471 -2.9469  1.2084 -0.1496
17353SOL    HW270052   2.901   4.641  13.615 -1.2024 -0.4054  0.5116
17354SOL     OW70053   6.234  13.093   2.469 -0.2308 -0.0854 -0.3173
17354SOL    HW170054   6.150  13.129   2.497  0.1716  0.4693  0.2009
17354SOL    HW270055   6.236  13.005   2.507  1.0367  1.2287  3.0349
17355SOL     OW70056   0.849   1.354   0.363 -0.1934  0.5397  0.0384
17355SOL    HW170057   0.757   1.337   0.384  0.2683 -0.1902  1.6298
17355SOL    HW270058   0.891   1.268   0.369  0.7083  0.9609 -0.0943
17356SOL     OW70059  10.880  13.815   1.482 -0.3550  0.4107 -0.2877
17356SOL    HW170060  10.790  13.833   1.455 -1.1956 -1.0910  1.2797
17356SOL    HW270061  10.875  13.809   1.578  0.8107 -2.4324 -0.3033
17357SOL     OW70062   8.881   9.263   6.195  0.3794  0.0457 -0.4452
17357SOL    HW170063   8.952   9.311   6.237  1.0599 -0.8492 -0.5513
17357SOL    HW270064   8.913   9.246   6.107 -0.2320  0.1813 -0.6976
17358SOL     OW70065  10.847   0.091  13.538  0.7737 -0.3031  0.5515
17358SOL    HW170066  10.757   0.118  13.559  0.5013 -1.7961  1.5178
17358SOL    HW270067  10.900   0.169  13.552 -0.2133  0.2639  1.2902
17359SOL     OW70068   4.279   5.814   6.013  0.4005  0.0715  0.0702
17359SOL    HW170069   4.359   5.805   6.065  1.0198 -1.6720 -1.0880
17359SOL    HW270070   4.263   5.908   6.009  1.1457  0.3527  2.1500
17360SOL     OW70071   3.611   4.133   7.026 -0.0436  0.2416 -0.0700
17360SOL    HW170072   3.585   4.042   7.016  0.5134  0.0516  0.1815
17360SOL    HW270073   3.553   4.181   6.967  0.2162 -0.3631 -0.8358
17361SOL     OW70074   9.341  11.059   3.889  0.6535 -0.2860 -0.1769
17361SOL    HW170075   9.307  11.111   3.961 -0.5483  0.6433 -1.3584
17361SOL    HW270076   9.408  11.114   3.848  0.7157 -0.4446 -0.2923
17362SOL     OW70077   0.309  13.056   3.302  0.0247 -0.3519 -0.2742
17362SOL    HW170078   0.233  13.113   3.316  0.7351  0.4090  0.6573
17362SOL    HW270079   0.275  12.982   3.251 -0.9198  0.9228 -1.5850
17363SOL     OW70080   3.144   7.147  10.519  0.6273  0.9197 -0.0549
17363SOL    HW170081   3.197   7.126  10.596 -0.1622  0.3030  0.3292
17363SOL    HW270082   3.162   7.077  10.457  0.4274  0.8270 -0.0083
17364SOL     OW70083  11.639  12.671   1.991  0.0217  0.4237  0.0483
17364SOL    HW170084  11.610  12.586   2.023  0.0569  0.9757  1.5920
17364SOL    HW270085  11.734  12.670   2.004  0.2956  0.0265 -1.6430
17365SOL     OW70086   7.333   3.249  12.691  0.1156 -0.2672 -0.1151
17365SOL    HW170087   7.380   3.223  12.612 -0.5163  0.5889 -0.7891
17365SOL    HW270088   7.373   3.331  12.717 -0.3381 -0.0363 -0.1293
17366SOL     OW70089   8.897   1.534   8.878  0.1284  0.3250  0.5444
17366SOL    HW170090   8.975   1.510   8.928  0.6844  0.2762 -0.3114
17366SOL    HW270091   8.902   1.629   8.869  0.2405  0.2924  0.2518
17367SOL     OW70092   1.655   6.155   0.751  0.2776 -0.0936  0.1367
17367SOL    HW170093   1.608   6.215   0.693 -1.6052 -1.9314 -0.3346
17367SOL    HW270094   1.747   6.163   0.724 -0.4105 -0.2117 -2.5228
17368SOL     OW70095   9.867   7.077   6.408  0.7731  0.4898 -0.1410
17368SOL    HW170096   9.962   7.083   6.400  0.9924 -0.3828  1.2869
17368SOL    HW270097   9.849   7.108   6.497 -0.0455 -1.1256  0.2935
17369SOL     OW70098   1.046   4.633  10.376 -0.5969 -0.0220  0.2837
17369SOL    HW170099   1.010   4.650  10.463  0.2120 -0.2947  0.6883
17369SOL    HW270100   1.060   4.538  10.374 -1.0551 -0.0803 -0.3239
17370SOL     OW70101   6.526  10.601   3.522  0.4369  0.3541 -0.1522
17370SOL    HW170102   6.471  10.629   3.449  0.0709 -0.1280 -0.0657
17370SOL    HW270103   6.593  10.669   3.529  1.0043 -0.0228 -1.5065
17371SOL     OW70104   7.602   7.184   0.937  0.5178  0.2561  0.5891
17371SOL    HW170105   7.602   7.256   1.001  0.0987 -0.4906  1.4478
17371SOL    HW270106   7.605   7.228   0.852  0.7417  1.2802  1.1107
17372SOL     OW70107   2.347  10.081   9.298  0.3552  0.1966  0.7862
17372SOL    HW170108   2.320  10.132   9.375 -0.7457 -1.2566  1.4077
17372SOL    HW270109   2.356   9.992   9.330 -0.5521 -0.5287 -0.8501
17373SOL     OW70110   4.851   2.689   4.816  0.4506 -0.0067 -0.5483
17373SOL    HW170111   4.871   2.731   4.732  1.1818  1.9769  0.5621
17373SOL    HW270112   4.810   2.758   4.868 -1.5121 -1.6379  0.2173
17374SOL     OW70113   7.114   1.342  12.492  0.2886 -0.0033  0.3981
17374SOL    HW170114   7.195   1.386  12.468  0.5712 -0.3437  0.7305
17374SOL    HW270115   7.114   1.342  12.588 -0.2567  0.2749  0.4066
17375SOL     OW70116   3.294  10.499  10.232  0.3257 -0.1251  0.0972
17375SOL    HW170117   3.251  10.433  10.286 -0.6883  0.7393  0.3797
17375SOL    HW270118   3.262  10.481  10.143 -0.2360  0.2094  0.2303
17376SOL     OW70119   7.313  13.362  13.625 -0.6126  0.0477  0.2015
17376SOL    HW170120   7.305  13.275  13.663 -1.8834 -0.2549 -0.6926
17376SOL    HW270121   7.385  13.355  13.563  0.2975  0.0647  1.2404
17377SOL     OW70122   1.002   4.278  11.115 -0.9490  0.1181 -0.0157
17377SOL    HW170123   1.092   4.308  11.101 -0.0785 -1.7725  1.1189
17377SOL    HW270124   0.962   4.348  11.167 -0.1018  0.9257 -0.4222
17378SOL     OW70125   2.622   0.036   1.412  0.2082 -0.2987 -0.2041
17378SOL    HW170126   2.665  -0.036   1.365  2.3527  0.2731  0.7947
17378SOL    HW270127   2.566  -0.008   1.476  0.9056 -1.0900 -0.1202
17379SOL     OW70128   2.976   6.639  11.634  0.1824 -0.6845 -0.1283
17379SOL    HW170129   2.920   6.574  11.590  0.5807 -1.6624  0.7579
17379SOL    HW270130   3.064   6.602  11.629  0.5914  0.3302 -0.5652
17380SOL     OW70131   0.398   5.986   3.062  0.2484 -0.3876  0.1092
17380SOL    HW170132   0.330   6.023   3.118 -0.3873  0.6264 -1.2850
17380SOL    HW270133   0.454   6.060   3.040  0.8169 -0.8853 -0.1574
17381SOL     OW70134  10.118   8.435   8.456  0.6092  0.0255 -0.5476
17381SOL    HW170135  10.165   8.409   8.535 -0.2222  2.2683  0.7584
17381SOL    HW270136  10.108   8.530   8.463  0.1561  0.2531 -3.1776
17382SOL     OW70137   0.886   7.541   5.699 -0.0421 -0.4007 -0.2236
17382SOL    HW170138   0.829   7.477   5.741 -0.7367  0.2955 -0.0783
17382SOL    HW270139   0.963   7.547   5.756 -0.8924  0.4018  0.8698
17383SOL     OW70140   8.214   9.595   4.336  0.1029  1.0732  0.5579
17383SOL    HW170141   8.282   9.574   4.400  0.8869  1.1568 -0.2380
17383SOL    HW270142   8.132   9.571   4.380  0.8129 -2.3018  0.3189
17384SOL     OW70143   5.548  12.819   4.589 -0.0208 -0.4709  0.2975
17384SOL    HW170144   5.570  12.824   4.682 -2.4080  1.2970  0.8694
17384SOL    HW270145   5.460  12.782   4.587 -1.2877  2.2967 -0.9250
17385SOL     OW70146   6.107   0.879   0.530  0.2634 -0.0256  0.3801
17385SOL    HW170147   6.079   0.789   0.514 -1.1914  0.4499  0.0473
17385SOL    HW270148   6.057   0.907   0.607  0.7686  0.4657  0.5402
17386SOL     OW70149   1.322   6.221   7.866 -0.4508 -0.0894 -0.1323
17386SOL    HW170150   1.346   6.237   7.774 -0.9777  2.0920  0.0527
17386SOL    HW270151   1.405   6.230   7.914 -0.0831 -1.7264 -0.4064
17387SOL     OW70152   0.876  12.525  10.995  0.1832 -0.3846  0.3655
17387SOL    HW170153   0.835  12.609  10.976 -0.6358 -0.4209  1.8439
17387SOL    HW270154   0.967  12.546  11.013  0.1488  0.0883  0.0106
17388SOL     OW70155  10.015   5.117   9.417  0.6400  0.5842  0.3654
17388SOL    HW170156  10.047   5.206   9.404  1.6756  0.2387  0.4591
17388SOL    HW270157   9.966   5.121   9.499 -0.6560  1.3910 -0.3958
17389SOL     OW70158  11.871  10.271   2.924  0.0303  0.5186 -0.4916
17389SOL    HW170159  11.851  10.335   2.991  0.5959  0.0979  0.0978
17389SOL    HW270160  11.806  10.202   2.936  0.2527  0.3492 -0.2336
17390SOL     OW70161   9.830  12.134   6.889  0.5058 -0.0577 -0.8077
17390SOL    HW170162   9.766  12.121   6.819 -0.3742 -0.9423  0.1362
17390SOL    HW270163   9.889  12.059   6.881 -1.1982 -1.6981  1.0482
17391SOL     OW70164  13.318   8.753  14.123  0.6832 -0.1108  0.6155
17391SOL    HW170165  13.311   8.667  14.081 -1.1317  0.5166 -0.4346
17391SOL    HW270166  13.397   8.791  14.086  0.3839 -0.5160 -0.4667
17392SOL     OW70167  12.114   3.522   9.794 -0.4476  0.0608  0.3959
17392SOL    HW170168  12.148   3.433   9.781 -0.2261  0.1575  0.3036
17392SOL    HW270169  12.090   3.551   9.706 -2.1562 -0.5454  0.6192
17393SOL     OW70170   7.157   0.564   8.304  0.1005 -0.1839 -0.1405
17393SOL    HW170171   7.181   0.492   8.245  0.5664  0.2645 -0.5089
17393SOL    HW270172   7.241   0.602   8.330 -0.1524  0.4159 -0.1910
17394SOL     OW70173  10.070  11.850   1.801  0.0853  0.0545  0.5830
17394SOL    HW170174   9.993  11.846   1.858 -0.6679  0.3927 -0.3685
17394SOL    HW270175  10.116  11.768   1.817 -0.9646 -0.5646  0.5177
17395SOL     OW70176   6.377   4.117  11.008  0.6722  0.6875 -0.0471
17395SOL    HW170177   6.359   4.211  11.001 -2.0424  0.1832 -0.7338
17395SOL    HW270178   6.463   4.113  11.052 -1.1004  3.4360  4.4168
17396SOL     OW70179   4.023   1.655   5.199  0.1115  0.8335 -0.5323
17396SOL    HW170180   4.066   1.703   5.270 -0.5612 -0.8030  1.0296
17396SOL    HW270181   3.933   1.643   5.228  0.1998 -1.1781 -0.9611
17397SOL     OW70182   7.589  10.722   1.516 -0.0664 -0.3484  0.1239
17397SOL    HW170183   7.666  10.718   1.459 -0.5767 -2.4441 -0.5036
17397SOL    HW270184   7.612  10.787   1.583  1.9569 -0.4146 -0.4490
17398SOL     OW70185   8.380  13.025  11.756 -0.0989 -0.0688 -0.8236
17398SOL    HW170186   8.297  13.040  11.710 -0.5001 -0.7315 -0.3295
17398SOL    HW270187   8.443  13.081  11.710 -0.7073  0.0603 -1.5237
17399SOL     OW70188  10.339   2.932   4.539 -0.1028 -0.7885  0.0178
17399SOL    HW170189  10.338   2.976   4.454  1.1140 -2.4162 -0.9123
17399SOL    HW270190  10.251   2.896   4.548  0.8365 -4.4803 -2.8455
17400SOL     OW70191  12.043  11.520  11.335 -0.2317  0.6336 -0.3688
17400SOL    HW170192  12.041  11.572  11.416  2.5182 -1.0928  0.9655
17400SOL    HW270193  12.117  11.554  11.286  0.1588 -0.4576 -0.5720
17401SOL     OW70194   4.523  13.628   7.187  0.3491 -0.0816  0.6509
17401SOL    HW170195   4.600  13.614   7.131  0.5851 -0.5944  1.0996
17401SOL    HW270196   4.544  13.584   7.269  0.1139  0.8819  1.2501
17402SOL     OW70197   3.575  12.089   9.726  0.2229  0.1403  0.2650
17402SOL    HW170198   3.564  12.178   9.691  1.6682  0.2016 -0.0968
17402SOL    HW270199   3.537  12.033   9.658  2.1164  0.3246 -1.0421
17403SOL     OW70200   0.777   1.271   1.392  0.2222  0.0781 -0.5632
17403SOL    HW170201   0.790   1.276   1.487  1.2728  2.2667 -0.7624
17403SOL    HW270202   0.692   1.228   1.381  0.3474 -0.7347  1.3270
17404SOL     OW70203   4.289  11.490   0.406  0.4053 -0.1092  0.4084
17404SOL    HW170204   4.263  11.448   0.324  1.5567  0.2345 -0.1459
17404SOL    HW270205   4.207  11.499   0.455 -0.3393 -0.0538 -0.8167
17405SOL     OW70206   1.135  13.059   2.333  0.2671  0.3519 -0.2524
17405SOL    HW170207   1.099  13.145   2.354 -0.1799 -0.1167  0.9959
17405SOL    HW270208   1.066  13.016   2.281  0.0054  0.3291  0.1098
17406SOL     OW70209   0.825  13.878  11.160 -0.4381 -0.2309 -0.0645
17406SOL    HW170210   0.762  13.860  11.090 -2.5164 -0.9564  1.9011
17406SOL    HW270211   0.867  13.794  11.178  0.6316  0.1038 -0.8751
17407SOL     OW70212   8.968   8.038   6.141  0.1801 -0.5034  0.0275
17407SOL    HW170213   8.877   8.021   6.116 -0.8365  1.0012  2.3116
17407SOL    HW270214   8.975   8.003   6.230  1.7053 -0.2229  0.0418
17408SOL     OW70215   2.972   6.650  12.769 -0.1103  0.2794  0.4850
17408SOL    HW170216   2.892   6.663  12.718 -1.2287 -1.2251  1.7730
17408SOL    HW270217   3.043   6.671  12.708 -1.4165 -0.4354 -1.3619
17409SOL     OW70218  12.778  11.548   3.098 -0.0547 -1.0101 -0.2459
17409SOL    HW170219  12.845  11.506   3.151  0.6383 -0.1280 -0.3940
17409SOL    HW270220  12.821  11.570   3.016 -0.3187  0.1268 -0.1092
17410SOL     OW70221   2.044   9.749   3.900  0.3456  0.0750  0.2653
17410SOL    HW170222   2.087   9.824   3.860 -1.7843 -0.3964 -3.3592
17410SOL    HW270223   1.977   9.787   3.957  0.3648  0.9304 -0.2623
17411SOL     OW70224   0.376  10.478   4.523 -0.8733 -0.3644  0.0046
17411SOL    HW170225   0.418  10.393   4.516 -0.3930 -0.1923  0.7798
17411SOL    HW270226   0.415  10.530   4.452  0.3884 -0.1439  0.8384
17412SOL     OW70227   8.558   7.698  11.503 -0.0692 -0.1743  0.3757
17412SOL    HW170228   8.476   7.747  11.504 -1.1632 -1.7650 -2.1471
17412SOL    HW270229   8.612   7.743  11.437 -0.1725 -0.9603 -0.2536
17413SOL     OW70230  12.490   5.187   6.701 -0.2407  0.3159  0.4302
17413SOL    HW170231  12.453   5.217   6.618 -1.1020 -0.0562  0.6718
17413SOL    HW270232  12.444   5.238   6.767 -0.2392 -0.0722  0.7335
17414SOL     OW70233   5.039   3.597   1.473  0.9125  0.2100  0.0091
17414SOL    HW170234   5.060   3.599   1.566 -1.9341  0.5988  0.7463
17414SOL    HW270235   5.022   3.688   1.450 -3.5973 -0.2537  0.6158
17415SOL     OW70236   3.762  13.330  10.031 -0.2581  0.0496  0.0361
17415SOL    HW170237   3.701  13.261  10.005 -1.9791  0.8827  1.6502
17415SOL    HW270238   3.720  13.411  10.001  1.0130  0.5379 -0.5079
17416SOL     OW70239   7.291  10.664  11.752  0.6019 -0.4861 -0.4025
17416SOL    HW170240   7.282  10.699  11.841 -1.1955  0.1555 -0.8016
17416SOL    HW270241   7.371  10.611  11.755  0.2856 -0.9239  1.7430
17417SOL     OW70242  13.473   7.770   4.043 -0.1588 -0.3261 -0.3049
17417SOL    HW170243  13.537   7.714   3.999 -0.1767 -0.3638 -0.2836
17417SOL    HW270244  13.514   7.857   4.043 -0.4470 -0.1794 -1.0063
17418SOL     OW70245  11.354   8.511   8.042 -0.0142  0.0083 -0.0298
17418SOL    HW170246  11.418   8.499   8.112 -0.1084 -1.4561 -0.1622
17418SOL    HW270247  11.299   8.584   8.071 -0.2664 -0.7908  1.5916
17419SOL     OW70248   2.983  13.005   6.558 -0.4940  0.0277 -0.0096
17419SOL    HW170249   3.063  12.960   6.531 -1.3546 -0.9512 -1.0504
17419SOL    HW270250   3.001  13.035   6.647  1.9311  2.0516 -1.0724
17420SOL     OW70251   7.468  11.809  10.621 -0.1735 -0.2511  0.3548
17420SOL    HW170252   7.466  11.899  10.587  2.3526 -0.3365 -0.2180
17420SOL    HW270253   7.550  11.773  10.588  0.0526 -1.9809  2.6166
17421SOL     OW70254   6.720   0.855   0.779 -0.0652  0.6526  0.1601
17421SOL    HW170255   6.661   0.779   0.785  0.2533  0.4558  0.9683
17421SOL    HW270256   6.679   0.913   0.715 -0.8302  0.2509  0.2796
17422SOL     OW70257   9.620   0.492   7.846  0.0784 -0.0352  0.0634
17422SOL    HW170258   9.585   0.403   7.838 -0.0734  0.0985 -0.9682
17422SOL    HW270259   9.548   0.543   7.883 -0.5470  0.0565 -1.2337
17423SOL     OW70260   8.701   8.469   8.332  0.4915 -0.0068 -0.1365
17423SOL    HW170261   8.649   8.482   8.412 -0.6912  0.8229 -1.0032
17423SOL    HW270262   8.662   8.530   8.269  2.2249  0.2766 -0.9768
17424SOL     OW70263  12.907   0.233  11.690  0.4717 -0.0204  0.0478
17424SOL    HW170264  12.981   0.178  11.714  0.7504 -0.0323 -0.8034
17424SOL    HW270265  12.843   0.171  11.654 -0.2995 -0.1214  1.5199
17425SOL     OW70266   1.294   9.521  12.523  0.5286  0.1690  0.0393
17425SOL    HW170267   1.244   9.603  12.520  1.3839  0.7474  0.8721
17425SOL    HW270268   1.378   9.542  12.481  0.6835 -0.3243  0.0892
17426SOL     OW70269   3.230  11.807   3.023 -0.0633  0.3417 -0.0763
17426SOL    HW170270   3.227  11.883   3.081 -1.0200  0.9558 -0.8847
17426SOL    HW270271   3.316  11.813   2.980  0.9119 -0.4733  1.6951
17427SOL     OW70272   3.229   9.725   1.358 -0.0686 -0.1569  0.2401
17427SOL    HW170273   3.197   9.642   1.320 -0.5501 -0.7957  1.9469
17427SOL    HW270274   3.324   9.721   1.346 -0.1828 -0.4080 -0.7226
17428SOL     OW70275   4.262  12.030   6.541 -0.3524 -0.2405  0.1891
17428SOL    HW170276   4.276  12.032   6.446 -0.4020  1.0981  0.1973
17428SOL    HW270277   4.348  12.045   6.578 -0.5109  0.3051  0.3398
17429SOL     OW70278  12.401   7.436   9.123 -0.3295 -0.3322  0.0727
17429SOL    HW170279  12.348   7.358   9.101  0.3083 -1.0451  1.0115
17429SOL    HW270280  12.450   7.454   9.043 -1.1421 -0.3437 -0.4448
17430SOL     OW70281   9.795   5.802   5.558 -0.5232 -0.2055 -0.1451
17430SOL    HW170282   9.780   5.865   5.629  0.5160  0.6945 -0.6981
17430SOL    HW270283   9.752   5.722   5.588 -0.9741  0.4536  1.0444
17431SOL     OW70284   0.624  12.244   7.878  0.0085 -0.3349 -0.3019
17431SOL    HW170285   0.697  12.195   7.915 -0.1810  0.7891  1.7385
17431SOL    HW270286   0.579  12.182   7.822  1.4824 -1.5783 -0.1659
17432SOL     OW70287  12.932   5.460  12.533 -0.5274 -0.1738  0.6717
17432SOL    HW170288  12.896   5.478  12.620  0.0281 -1.9124  1.2950
17432SOL    HW270289  13.023   5.434  12.550 -0.1751  0.2308 -0.5136
17433SOL     OW70290   7.617   6.148   8.262 -0.3577  0.1217  0.8116
17433SOL    HW170291   7.685   6.082   8.278 -0.2516  0.3963  1.5420
17433SOL    HW270292   7.551   6.130   8.329 -1.3464 -0.5722 -0.3154
17434SOL     OW70293   1.986   1.827   9.139  0.0556  0.1516  0.3593
17434SOL    HW170294   1.936   1.854   9.062  0.1184  0.0671  0.2894
17434SOL    HW270295   2.029   1.907   9.170 -2.3125  0.8738  2.0681
17435SOL     OW70296   3.213   9.891  12.556 -0.3305 -0.4857 -0.3141
17435SOL    HW170297   3.307   9.879  12.571 -0.7898 -1.6317  2.0998
17435SOL    HW270298   3.193   9.829  12.485  0.7476 -0.0307 -1.0550
17436SOL     OW70299  13.609   9.771  13.585  0.0213 -0.1246  0.1280
17436SOL    HW170300  13.568   9.828  13.520 -2.3133  0.3475  1.8825
17436SOL    HW270301  13.630   9.830  13.658  0.8409 -0.9507  0.5801
17437SOL     OW70302   7.355  13.659   9.141  0.5794 -0.4189 -0.1201
17437SOL    HW170303   7.350  13.617   9.056 -0.0470  2.4125 -1.6119
17437SOL    HW270304   7.446  13.646   9.169  0.8822 -1.1247 -1.3548
17438SOL     OW70305   5.358   6.633   6.425 -0.1539 -0.5827 -0.1134
17438SOL    HW170306   5.369   6.538   6.430 -0.3157 -0.6133 -0.3051
17438SOL    HW270307   5.434   6.663   6.375  1.0232 -0.3665  1.7086
17439SOL     OW70308   6.097   2.415   4.599 -0.4390  0.2761  0.3854
17439SOL    HW170309   6.056   2.329   4.586  0.5472 -0.0449 -0.7455
17439SOL    HW270310   6.158   2.402   4.672 -0.4567  0.0810  0.3652
17440SOL     OW70311   2.521  11.091   3.386  0.5097 -0.4174  0.5948
17440SOL    HW170312   2.458  11.161   3.404 -0.7048 -1.3387  0.0279
17440SOL    HW270313   2.606  11.132   3.399 -0.1933  0.9311  1.1273
17441SOL     OW70314   7.150  11.116   6.881 -0.3910 -0.0266  0.1758
17441SOL    HW170315   7.061  11.117   6.916 -1.2805  0.2579 -1.9357
17441SOL    HW270316   7.142  11.158   6.795  2.0406  1.1760  0.4801
17442SOL     OW70317  11.350   0.503  13.801 -0.5107  0.4235 -1.0060
17442SOL    HW170318  11.303   0.491  13.719  1.5349  0.6909 -2.2878
17442SOL    HW270319  11.393   0.589  13.792 -1.5716  1.2438  1.0580
17443SOL     OW70320  13.900   5.420  12.194  0.2228  0.4825  0.1011
17443SOL    HW170321  13.870   5.501  12.154 -0.7755  1.0706  1.9273
17443SOL    HW270322  13.843   5.352  12.158 -0.8585  1.0398  0.7214
17444SOL     OW70323   5.479  13.451  13.482  0.1019  0.8576  0.0162
17444SOL    HW170324   5.559  13.409  13.513 -0.1932  0.6976  0.5774
17444SOL    HW270325   5.444  13.495  13.559 -1.1029 -0.2787  0.1570
17445SOL     OW70326   0.788   4.707   0.691  0.9725  0.2155 -0.7332
17445SOL    HW170327   0.730   4.671   0.624 -0.3169 -1.1506  1.0081
17445SOL    HW270328   0.822   4.630   0.737  1.0606  1.1086  0.7683
17446SOL     OW70329   9.342  13.698   5.622  0.1416 -0.6364  0.0916
17446SOL    HW170330   9.377  13.755   5.553  0.0036 -0.2279  0.3598
17446SOL    HW270331   9.397  13.716   5.698 -0.7618  0.1499  0.5741
17447SOL     OW70332   6.751   0.127   6.384  0.5659 -0.1496 -0.0357
17447SOL    HW170333   6.821   0.188   6.364 -0.2903  0.6227 -0.7726
17447SOL    HW270334   6.730   0.085   6.301 -0.3390  0.1744  0.0141
17448SOL     OW70335   1.580  11.161   2.371 -0.3920 -0.1072 -0.7013
17448SOL    HW170336   1.653  11.223   2.371 -0.0489 -0.4468  0.7682
17448SOL    HW270337   1.513  11.201   2.317  0.4979  0.7069 -1.2257
17449SOL     OW70338   9.078   8.137  12.293 -0.2106 -0.0360 -0.2392
17449SOL    HW170339   9.046   8.145  12.383  2.6628  2.9129  0.7266
17449SOL    HW270340   9.073   8.226  12.258  1.7607 -0.4703 -1.7990
17450SOL     OW70341   7.850   5.900  11.815 -0.4251 -0.4019  0.1604
17450SOL    HW170342   7.779   5.888  11.878  1.0682 -0.0323  1.9958
17450SOL    HW270343   7.876   5.811  11.791  1.2407 -0.7067  2.7809
17451SOL     OW70344   7.080  10.400  10.589 -0.5170  0.0488 -0.2444
17451SOL    HW170345   7.015  10.452  10.637  0.0725 -0.7010  1.4491
17451SOL    HW270346   7.030  10.328  10.551 -1.3351  1.7404 -2.5794
17452SOL     OW70347   4.317   3.498   3.681  0.3223  0.2487 -0.3421
17452SOL    HW170348   4.385   3.467   3.741  0.9754 -1.1479 -1.7170
17452SOL    HW270349   4.235   3.486   3.729  0.8565 -0.3912  0.4384
17453SOL     OW70350   1.749  12.902   7.072  0.8337  0.5215  0.4845
17453SOL    HW170351   1.749  12.813   7.039 -0.3061  1.2865 -1.7374
17453SOL    HW270352   1.742  12.892   7.167  1.8964 -1.7343  0.3909
17454SOL     OW70353  10.555   7.608   6.902  0.1195 -0.1997 -0.2203
17454SOL    HW170354  10.492   7.540   6.925 -0.0994  0.4168  1.0759
17454SOL    HW270355  10.563   7.661   6.981  2.8394 -0.6899 -0.0704
17455SOL     OW70356   9.727   7.994   1.406  0.5803  0.1865  0.3571
17455SOL    HW170357   9.633   7.985   1.419  0.4832 -1.0394 -0.9066
17455SOL    HW270358   9.736   8.070   1.349  0.4476  0.9514  1.3416
17456SOL     OW70359   1.362  12.345   8.742 -0.4294  0.1944  0.0607
17456SOL    HW170360   1.417  12.270   8.762  0.8072  0.4515 -2.1184
17456SOL    HW270361   1.383  12.368   8.652  0.0995  3.8516  0.9400
17457SOL     OW70362   6.086  12.342  12.733 -0.7514 -0.4610 -0.2902
17457SOL    HW170363   6.153  12.274  12.739  0.0136  0.0927 -1.9518
17457SOL    HW270364   6.054  12.351  12.822 -0.0841 -2.1971  0.1768
17458SOL     OW70365  10.113   4.893   4.139 -0.3330 -0.1024 -0.1909
17458SOL    HW170366  10.105   4.891   4.044  0.2890  1.6757 -0.3198
17458SOL    HW270367  10.142   4.805   4.163  2.2066  0.1537 -1.9438
17459SOL     OW70368   6.264   8.550   1.264  0.0070 -0.0414 -0.2477
17459SOL    HW170369   6.207   8.477   1.240 -1.2402  0.9221 -0.2902
17459SOL    HW270370   6.206   8.624   1.273  1.4824  1.5666 -2.6047
17460SOL     OW70371   8.477   8.021   1.682  0.7033  0.4957 -0.3476
17460SOL    HW170372   8.399   8.031   1.736  0.7045  2.6545 -0.6457
17460SOL    HW270373   8.498   8.111   1.654  2.9245 -0.1093 -0.7806
17461SOL     OW70374   0.973   8.673  11.420 -0.4083 -0.6576  0.0190
17461SOL    HW170375   0.886   8.644  11.392 -0.0815 -0.4826 -1.2634
17461SOL    HW270376   0.957   8.758  11.461 -0.7503 -0.1890 -1.0448
17462SOL     OW70377  12.500   8.054   3.353  0.5746  0.1938 -0.8957
17462SOL    HW170378  12.588   8.088   3.340 -0.0279  2.0488 -0.4057
17462SOL    HW270379  12.442   8.124   3.324 -0.7379  0.1229  1.3024
17463SOL     OW70380   2.616   2.692   0.910  0.7581  0.0018 -0.3162
17463SOL    HW170381   2.668   2.634   0.854  1.5203  0.3094  0.0648
17463SOL    HW270382   2.621   2.778   0.867  0.1921 -0.0601 -0.5159
17464SOL     OW70383   9.073   0.180  13.302 -0.1312 -0.7629  0.0012
17464SOL    HW170384   9.138   0.203  13.237  0.3850 -2.7916 -0.2578
17464SOL    HW270385   9.112   0.207  13.385 -0.3715  0.9341 -0.4050
17465SOL     OW70386   3.215   7.920   0.237 -0.5937  0.2875 -0.1432
17465SOL    HW170387   3.293   7.943   0.186 -0.8023 -1.1433 -1.1853
17465SOL    HW270388   3.165   8.001   0.242  1.6662  1.7071  1.9525
17466SOL     OW70389  13.786  12.515   8.678  0.2769 -0.0260 -0.2057
17466SOL    HW170390  13.837  12.475   8.748  2.7904 -0.1361 -1.9758
17466SOL    HW270391  13.784  12.449   8.608 -1.8575  0.2119 -0.4464
17467SOL     OW70392   3.664  10.112   6.676 -0.2895 -0.0672 -0.4148
17467SOL    HW170393   3.677  10.205   6.694 -1.1805  0.1445 -0.8485
17467SOL    HW270394   3.699  10.067   6.753  0.6685  0.5926 -0.4479
17468SOL     OW70395   4.133   7.723  13.616  0.1246  0.0341  0.2444
17468SOL    HW170396   4.168   7.642  13.653  0.0956 -0.9804 -1.8375
17468SOL    HW270397   4.079   7.695  13.542 -0.1824  1.9389 -0.3193
17469SOL     OW70398   6.473   5.999   8.790  0.5280  0.1110 -0.1081
17469SOL    HW170399   6.389   6.014   8.832  0.0198 -0.9524 -0.7089
17469SOL    HW270400   6.452   5.990   8.697  1.5869  2.1811 -0.6118
17470SOL     OW70401   9.814  10.733   1.409 -0.1106  0.5700 -0.1130
17470SOL    HW170402   9.858  10.650   1.391  0.3046 -0.0470  3.0547
17470SOL    HW270403   9.726  10.707   1.437 -0.5779  1.3678 -0.8116
17471SOL     OW70404  10.339   3.154   2.206  0.4148 -0.4177  0.2550
17471SOL    HW170405  10.278   3.119   2.141  0.3517 -2.4511  1.3244
17471SOL    HW270406  10.295   3.140   2.290  1.8632 -0.9103  0.9596
17472SOL     OW70407   3.119  13.544   7.247  0.0044 -0.2699 -0.2731
17472SOL    HW170408   3.159  13.459   7.263 -0.1313 -0.3911 -0.5618
17472SOL    HW270409   3.170  13.605   7.300  1.8923 -0.0988 -2.1418
17473SOL     OW70410   0.287  12.212  10.089  0.1741 -0.4595  0.1406
17473SOL    HW170411   0.267  12.120  10.071 -1.1505  0.0608 -1.2809
17473SOL    HW270412   0.378  12.223  10.061  0.1501 -1.2110 -0.2632
17474SOL     OW70413  13.627   2.376  11.630  0.3930 -0.3996  0.0069
17474SOL    HW170414  13.560   2.373  11.561 -2.7303  3.0066  2.4958
17474SOL    HW270415  13.682   2.450  11.606  0.4595 -0.3629  0.2768
17475SOL     OW70416   1.633   5.137  10.609  0.2144 -0.9159  0.4814
17475SOL    HW170417   1.580   5.217  10.607 -0.7921 -1.5381 -2.2755
17475SOL    HW270418   1.713   5.162  10.655 -0.6579  1.2759  0.9145
17476SOL     OW70419   6.480   8.541   5.058  0.2788 -0.0755 -0.3230
17476SOL    HW170420   6.557   8.495   5.092  0.0093 -1.6518 -1.7104
17476SOL    HW270421   6.408   8.479   5.067 -0.8950  1.4048  1.0065
17477SOL     OW70422   2.924   9.905  13.669  0.3349  0.3919  0.2301
17477SOL    HW170423   2.986   9.938  13.735  1.3503  0.6184 -0.8012
17477SOL    HW270424   2.900   9.982  13.618 -1.1704  0.3844  0.8773
17478SOL     OW70425  11.405   9.032   0.838  0.1035 -0.6150 -0.8107
17478SOL    HW170426  11.359   9.113   0.814 -0.4742 -0.6707  0.0331
17478SOL    HW270427  11.434   8.995   0.755  0.8002  0.7004 -1.1846
17479SOL     OW70428   5.035  10.706   2.387 -0.3182 -0.5017 -0.0602
17479SOL    HW170429   5.115  10.711   2.438 -0.5744  0.9490  0.2304
17479SOL    HW270430   5.064  10.713   2.296  0.1175 -2.8938 -0.1683
17480SOL     OW70431   7.486   0.581   3.225 -0.2282 -0.4035 -0.2943
17480SOL    HW170432   7.415   0.545   3.279 -0.4968 -0.3776 -0.6304
17480SOL    HW270433   7.521   0.504   3.179 -1.0808 -0.1849 -1.3390
17481SOL     OW70434  10.589   0.412  11.939 -0.0819 -0.8555 -0.3228
17481SOL    HW170435  10.682   0.417  11.916  0.2412 -3.0407  0.2781
17481SOL    HW270436  10.543   0.422  11.855  0.7353 -0.7701 -0.7699
17482SOL     OW70437   2.975   3.986  10.079  0.1526 -0.0294  0.5132
17482SOL    HW170438   2.929   4.068  10.096  2.1244  1.7358 -1.9060
17482SOL    HW270439   2.951   3.963   9.989 -0.4660 -2.2687  1.1697
17483SOL     OW70440   5.320   9.858  12.158  0.2646  0.2999  0.2439
17483SOL    HW170441   5.228   9.837  12.176  0.0069  1.6644  0.6156
17483SOL    HW270442   5.369   9.786  12.195 -0.5267  0.7570  2.2889
17484SOL     OW70443   7.372  12.612  12.823  0.3290 -0.3477  0.3942
17484SOL    HW170444   7.325  12.603  12.906  0.3496  2.9541  0.8935
17484SOL    HW270445   7.309  12.653  12.765  0.8720 -1.0703 -0.7393
17485SOL     OW70446  12.012   8.930   1.459  0.1250  0.4281 -0.1357
17485SOL    HW170447  12.018   8.871   1.383  1.6087  0.6562 -0.2324
17485SOL    HW270448  11.933   8.982   1.443 -0.8028 -1.0115 -0.4197
17486SOL     OW70449  10.319   2.320   9.678 -0.4396 -0.7986  0.0781
17486SOL    HW170450  10.364   2.328   9.594 -1.5074  0.5413 -0.3927
17486SOL    HW270451  10.377   2.364   9.740 -0.6737  0.1645 -0.3689
17487SOL     OW70452   1.025   9.076  13.640 -0.0124  0.0184 -0.1585
17487SOL    HW170453   1.023   9.172  13.648 -2.6445 -0.0307  0.4975
17487SOL    HW270454   1.110   9.058  13.599  0.3103  2.6587 -0.8663
17488SOL     OW70455   7.867  12.713   0.222 -0.3617  0.1825  0.2768
17488SOL    HW170456   7.781  12.671   0.212  0.2473 -1.0269 -0.0475
17488SOL    HW270457   7.929  12.641   0.226  0.9405  1.0460 -2.1283
17489SOL     OW70458   4.007   3.996   8.760  0.2136 -0.7579  0.0941
17489SOL    HW170459   4.061   4.074   8.772  1.3008 -1.5983  0.7812
17489SOL    HW270460   3.945   4.020   8.691  0.7137  0.6060  0.0965
17490SOL     OW70461  13.969   8.834   5.246 -0.1041  0.6962 -0.4908
17490SOL    HW170462  14.048   8.850   5.195  1.4834 -0.0615  1.5804
17490SOL    HW270463  13.969   8.739   5.261  0.2302  1.0145  1.9336
17491SOL     OW70464   4.881  10.286   4.780 -0.3453  0.1267  0.0952
17491SOL    HW170465   4.837  10.301   4.696  0.1686  1.1971 -0.0083
17491SOL    HW270466   4.970  10.320   4.766  0.5469 -2.0293  0.2823
17492SOL     OW70467   3.588   6.549   4.847  0.2114 -0.3075  0.3856
17492SOL    HW170468   3.564   6.581   4.934  0.4664 -0.0992  0.3823
17492SOL    HW270469   3.553   6.460   4.843 -0.0045 -0.2334  0.6123
17493SOL     OW70470   5.481   5.573  10.686 -0.0569  0.1138 -0.2155
17493SOL    HW170471   5.399   5.612  10.715 -1.5870 -2.1693 -1.1867
17493SOL    HW270472   5.488   5.491  10.737  1.1509 -0.1822 -0.8092
17494SOL     OW70473   9.682  11.220   4.293 -0.2261  0.4833  0.5483
17494SOL    HW170474   9.715  11.206   4.205 -0.0487 -0.6124  0.7676
17494SOL    HW270475   9.727  11.298   4.324  0.2078  0.4944 -0.0920
17495SOL     OW70476   1.948  11.055   1.110  0.4656 -0.3004 -0.4869
17495SOL    HW170477   1.886  11.058   1.037 -2.1477  2.4737  1.6191
17495SOL    HW270478   2.018  11.115   1.085 -1.3689  2.1414 -0.0538
17496SOL     OW70479  13.290   3.441  11.657  1.0541 -0.1835  0.8841
17496SOL    HW170480  13.357   3.469  11.595 -0.7636  0.3152 -0.9491
17496SOL    HW270481  13.304   3.347  11.667  0.7448 -0.4876 -1.1574
17497SOL     OW70482  10.035  12.750  11.703 -0.4604 -0.5131  0.6948
17497SOL    HW170483  10.007  12.819  11.762  2.8320  1.4413  0.2203
17497SOL    HW270484   9.994  12.772  11.619 -1.1651 -0.4243  1.0557
17498SOL     OW70485  12.334   9.575  11.388 -0.1479 -0.3578 -0.5762
17498SOL    HW170486  12.367   9.488  11.412  0.7006  0.4715  1.4758
17498SOL    HW270487  12.249   9.581  11.432  0.7940  0.6442  1.2288
17499SOL     OW70488   9.516   9.726   5.184  0.3698  0.4479 -0.5131
17499SOL    HW170489   9.458   9.757   5.114  0.9133 -0.8082 -1.5469
17499SOL    HW270490   9.488   9.776   5.261 -4.3331 -2.1817 -0.0709
17500SOL     OW70491  10.786  10.567   7.525  0.7996 -1.1132 -0.3055
17500SOL    HW170492  10.810  10.499   7.588 -1.3572  0.1034  2.0403
17500SOL    HW270493  10.708  10.532   7.481  1.9441 -1.7031 -1.9244
17501SOL     OW70494   9.060   5.588  11.534 -0.0660 -0.0026  0.7213
17501SOL    HW170495   9.077   5.550  11.620  1.1706  0.5023  0.7195
17501SOL    HW270496   8.971   5.621  11.539 -0.4298 -1.0530  1.4076
17502SOL     OW70497   0.443   8.407   8.168 -0.4985 -0.1300 -0.2630
17502SOL    HW170498   0.467   8.473   8.102  1.6508 -1.5221 -0.9700
17502SOL    HW270499   0.456   8.451   8.252 -0.5518  0.8078 -0.7334
17503SOL     OW70500   2.541  13.266   0.235 -0.2254 -0.0590 -0.7460
17503SOL    HW170501   2.614  13.206   0.225 -1.7233 -2.2269  0.4172
17503SOL    HW270502   2.475  13.234   0.173 -1.1581  0.1509  0.0993
17504SOL     OW70503   4.647  10.823   2.007 -0.3128 -0.3246 -0.9727
17504SOL    HW170504   4.609  10.832   1.920  1.5590  0.5315 -1.7470
17504SOL    HW270505   4.695  10.741   2.004  0.4959  0.1464 -1.0517
17505SOL     OW70506   3.861   8.657   4.569  0.5561  0.6027 -0.3011
17505SOL    HW170507   3.830   8.568   4.558  1.0138  0.1820  1.5012
17505SOL    HW270508   3.855   8.673   4.663 -0.9509  3.0130 -0.7042
17506SOL     OW70509   8.749  13.412  13.764 -0.7750  0.1865  0.1927
17506SOL    HW170510   8.843  13.396  13.770 -0.8794 -0.7305 -0.4036
17506SOL    HW270511   8.710  13.325  13.771 -1.5780  0.5632  0.4402
17507SOL     OW70512   7.124   9.075   3.261 -0.8424 -0.6905 -0.9049
17507SOL    HW170513   7.193   9.094   3.325 -2.1995 -0.1043  0.4508
17507SOL    HW270514   7.083   9.160   3.244 -0.6436 -0.8780 -2.4263
17508SOL     OW70515   2.425   5.714  10.418 -0.3660  0.3203  0.1658
17508SOL    HW170516   2.355   5.653  10.391 -1.9704  1.9563  0.4644
17508SOL    HW270517   2.457   5.677  10.500 -0.2016 -0.9632 -0.4364
17509SOL     OW70518   5.660  11.095  10.141 -0.0722  0.2192 -0.1028
17509SOL    HW170519   5.755  11.090  10.132 -0.0176 -1.4036  1.0655
17509SOL    HW270520   5.633  11.007  10.165 -1.9216  0.5990 -0.6291
17510SOL     OW70521   9.185  13.911   3.960 -0.2624 -0.2423 -0.2320
17510SOL    HW170522   9.093  13.905   3.983  0.5311 -0.3698  3.4025
17510SOL    HW270523   9.215  13.820   3.956 -0.0223 -0.1635 -0.2732
17511SOL     OW70524   8.997   8.914   3.706  0.4396  0.4175 -0.1322
17511SOL    HW170525   9.019   8.913   3.613  1.3754  1.5578  0.0583
17511SOL    HW270526   9.014   9.003   3.734 -1.8440  0.6546  0.7034
17512SOL     OW70527   4.953   4.020  12.180 -0.5603 -0.0262  0.3782
17512SOL    HW170528   4.868   4.002  12.221 -0.7033 -2.4218 -0.8522
17512SOL    HW270529   5.012   3.953  12.215  0.7724  1.3518  0.9023
17513SOL     OW70530  12.388   2.374   7.112 -0.2702 -0.3507  0.3293
17513SOL    HW170531  12.369   2.302   7.171 -0.0231 -0.4550  0.2819
17513SOL    HW270532  12.302   2.401   7.078 -0.2592 -1.4719 -0.6629
17514SOL     OW70533  12.636  11.578   2.244 -0.0877  0.0898 -0.0414
17514SOL    HW170534  12.667  11.660   2.280  0.0467 -0.3645  0.9154
17514SOL    HW270535  12.698  11.512   2.275 -0.7404 -0.5090  0.0297
17515SOL     OW70536   3.588   0.851   4.157  0.4420  0.3774 -0.6334
17515SOL    HW170537   3.592   0.763   4.120  0.0039  0.4148 -0.7823
17515SOL    HW270538   3.674   0.865   4.197  0.7201  0.1170 -1.1387
17516SOL     OW70539   0.823   0.235  10.077 -0.2901 -0.2391 -0.1395
17516SOL    HW170540   0.807   0.170  10.145 -1.2681  0.6107  0.4836
17516SOL    HW270541   0.764   0.211  10.006  2.1398 -2.3146 -1.6160
17517SOL     OW70542   1.770   6.429  14.112 -0.5339  0.0205 -0.8198
17517SOL    HW170543   1.854   6.396  14.145  0.1800  1.1647 -1.4101
17517SOL    HW270544   1.752   6.507  14.164 -1.5720 -0.5669 -0.2702
17518SOL     OW70545  12.395   9.639  13.666  0.0391 -1.0859 -0.0725
17518SOL    HW170546  12.307   9.634  13.628  0.0490 -2.0723 -0.0098
17518SOL    HW270547  12.382   9.613  13.758  0.4757 -1.7764 -0.2037
17519SOL     OW70548   4.983   2.331  10.944 -0.3633  0.6613 -0.0885
17519SOL    HW170549   4.931   2.385  10.884 -1.3779 -1.1003 -0.8705
17519SOL    HW270550   4.919   2.278  10.990  0.6212 -0.2309  0.2961
17520SOL     OW70551   3.847  10.125   8.604 -0.2591 -0.4684 -0.7966
17520SOL    HW170552   3.798  10.059   8.652  1.3532 -2.4431 -1.7220
17520SOL    HW270553   3.881  10.184   8.672  0.2024 -1.9436  0.3058
17521SOL     OW70554   4.728  11.146  12.743  0.8122 -0.6082 -0.1529
17521SOL    HW170555   4.654  11.092  12.717 -0.7697  1.4631 -0.2276
17521SOL    HW270556   4.691  11.210  12.803  2.7471 -0.0687  0.5472
17522SOL     OW70557  10.481   7.940   9.569 -0.3295  0.2371  0.3980
17522SOL    HW170558  10.448   8.004   9.506  1.3253  1.0551  0.3166
17522SOL    HW270559  10.420   7.866   9.562 -0.2888  0.3529 -2.0731
17523SOL     OW70560   1.423   0.113  12.726  0.0243  0.0290 -0.4497
17523SOL    HW170561   1.432   0.176  12.654  1.8071 -0.2993 -0.5708
17523SOL    HW270562   1.347   0.143  12.775  0.0392  1.4944 -1.2580
17524SOL     OW70563   1.703   7.816   3.750  0.3653 -0.1423  0.1862
17524SOL    HW170564   1.689   7.910   3.741 -1.3502 -0.1995  1.7630
17524SOL    HW270565   1.655   7.778   3.676  1.7359  0.2083 -0.9335
17525SOL     OW70566   2.094   5.422  10.488  0.4590 -0.3629  0.3236
17525SOL    HW170567   2.182   5.408  10.451 -0.3455 -1.5702 -1.2503
17525SOL    HW270568   2.076   5.515  10.472  1.1593 -0.2676  0.0277
17526SOL     OW70569   8.608  13.361   7.766  0.2504  0.0960 -0.0131
17526SOL    HW170570   8.604  13.266   7.770  2.2130 -0.1731 -2.0931
17526SOL    HW270571   8.653  13.387   7.847  2.1014 -1.0272 -0.6326
17527SOL     OW70572  12.835   9.042   6.650  0.0287  0.6337  0.3178
17527SOL    HW170573  12.829   8.965   6.592  1.3425 -0.2563  1.3025
17527SOL    HW270574  12.794   9.014   6.732 -0.1212  1.2377  0.4544
17528SOL     OW70575   4.608   7.708   9.601  0.0840 -0.2791 -0.0628
17528SOL    HW170576   4.639   7.783   9.651 -0.4395 -0.9652  1.3395
17528SOL    HW270577   4.676   7.641   9.614  0.2058 -0.2919 -0.7236
17529SOL     OW70578   1.160   0.456   1.550  0.1675  0.2083  0.3163
17529SOL    HW170579   1.246   0.482   1.519  0.4426 -0.8339  0.1746
17529SOL    HW270580   1.134   0.525   1.611  1.7540 -0.1934  1.5071
17530SOL     OW70581   1.537   1.636   7.997 -0.0936 -0.3126  0.6582
17530SOL    HW170582   1.546   1.541   8.001 -0.5519 -0.3836  0.1007
17530SOL    HW270583   1.623   1.670   8.020  1.1210 -0.9203 -2.4847
17531SOL     OW70584  12.943   4.795   8.269  0.4951  0.3585  0.4168
17531SOL    HW170585  13.025   4.843   8.271  0.4072  0.4879  1.3434
17531SOL    HW270586  12.969   4.702   8.268  0.6627  0.4054 -1.3501
17532SOL     OW70587  11.396  12.832   8.420  0.4984  0.0249  0.2819
17532SOL    HW170588  11.426  12.877   8.340  1.2236  1.8372  1.5191
17532SOL    HW270589  11.472  12.832   8.477 -0.5732  0.6125  1.7579
17533SOL     OW70590   3.377  11.183   0.953  0.1291  0.2069 -0.2582
17533SOL    HW170591   3.391  11.240   1.029 -0.1326  0.5839 -0.4886
17533SOL    HW270592   3.461  11.140   0.940  0.2271  0.2696  0.1417
17534SOL     OW70593  12.779   8.503   2.104  0.3320 -0.4673 -0.7286
17534SOL    HW170594  12.858   8.555   2.109 -0.2595  0.4623 -0.8355
17534SOL    HW270595  12.808   8.413   2.120  1.1485  0.0729  0.9897
17535SOL     OW70596  11.799   5.797  10.868 -0.2752 -0.2362  0.7430
17535SOL    HW170597  11.865   5.731  10.889 -2.0401 -2.5627 -0.4011
17535SOL    HW270598  11.787   5.789  10.774  0.0562  2.4367  0.4171
17536SOL     OW70599  12.781   7.934  10.084 -0.3918  0.9307 -0.0758
17536SOL    HW170600  12.775   8.027  10.059 -1.4433  0.5699 -1.2800
17536SOL    HW270601  12.743   7.887  10.010  1.9401 -0.6318 -0.3661
17537SOL     OW70602   7.461   3.285   7.892 -0.2009 -0.3502  0.1351
17537SOL    HW170603   7.429   3.199   7.864  1.6034  0.0316 -3.8892
17537SOL    HW270604   7.386   3.343   7.880 -0.4250 -0.8144 -0.8603
17538SOL     OW70605   9.157   0.476  13.909 -0.1854 -0.2028 -0.3525
17538SOL    HW170606   9.218   0.539  13.947 -0.8165  3.2086 -4.2841
17538SOL    HW270607   9.211   0.422  13.851 -0.2787 -0.1580 -0.4820
17539SOL     OW70608   5.154  11.947   6.010 -0.0081  0.0005  0.0754
17539SOL    HW170609   5.195  12.008   5.948  0.3670 -0.8630 -0.5431
17539SOL    HW270610   5.168  11.988   6.096  0.6165  0.5770 -0.2870
17540SOL     OW70611  10.476  10.720   7.303  0.4637  0.5759  0.4218
17540SOL    HW170612  10.497  10.778   7.230 -1.4394  1.5534  0.5964
17540SOL    HW270613  10.530  10.642   7.288 -0.4582  0.3817 -2.5138
17541SOL     OW70614   4.808   5.508   8.599 -0.0799 -0.1929  0.3537
17541SOL    HW170615   4.859   5.533   8.523  1.9785  0.4156  1.8456
17541SOL    HW270616   4.852   5.430   8.633 -1.0417 -0.5378  0.8442
17542SOL     OW70617   1.957  10.671   7.269 -0.4858 -0.6792 -0.5613
17542SOL    HW170618   1.908  10.649   7.190 -1.6679  0.0583 -0.0646
17542SOL    HW270619   1.904  10.739   7.312 -0.0601 -1.2962  1.0314
17543SOL     OW70620  10.797   1.099   3.959  0.4341  0.1208  0.0283
17543SOL    HW170621  10.855   1.065   3.890  0.0998  0.6073 -0.5007
17543SOL    HW270622  10.724   1.037   3.961 -0.7544  1.3790 -1.7383
17544SOL     OW70623   3.352   6.643   9.891  0.3470  0.2511  0.1490
17544SOL    HW170624   3.310   6.724   9.862  1.3262  0.7661  0.1241
17544SOL    HW270625   3.383   6.603   9.810  1.5852  0.8421  0.3126
17545SOL     OW70626   9.531   4.726  11.655  0.6787 -0.0253  0.7243
17545SOL    HW170627   9.625   4.730  11.670  1.0072 -0.3242 -1.0076
17545SOL    HW270628   9.522   4.719  11.559 -1.0572 -1.1389  0.9183
17546SOL     OW70629   3.285   8.223   5.131  0.0655 -0.0481  0.2459
17546SOL    HW170630   3.378   8.236   5.149  0.0712  1.3925 -0.7188
17546SOL    HW270631   3.242   8.301   5.165 -1.0738 -1.4739  2.3408
17547SOL     OW70632   4.814  13.328   4.743  0.1626 -0.3804  0.1084
17547SOL    HW170633   4.896  13.297   4.781  1.0327  1.0808 -0.5117
17547SOL    HW270634   4.747  13.306   4.808  0.9023 -2.2696  0.2914
17548SOL     OW70635  10.203   3.144   0.494 -0.0820  0.1642 -0.2207
17548SOL    HW170636  10.294   3.160   0.467  0.1694 -0.1757  0.4111
17548SOL    HW270637  10.153   3.153   0.413  0.5671 -0.0890 -0.6663
17549SOL     OW70638   4.849   8.136  13.320 -0.1784  0.5473  0.1425
17549SOL    HW170639   4.890   8.215  13.356  0.9212  1.8939 -3.6043
17549SOL    HW270640   4.920   8.073  13.313  0.1856  1.0835 -1.5421
17550SOL     OW70641  13.513  13.336   1.437 -0.0277  0.2558 -0.2844
17550SOL    HW170642  13.523  13.258   1.491  0.2083 -0.0340 -0.7379
17550SOL    HW270643  13.597  13.381   1.446  0.7617 -0.7984 -1.9516
17551SOL     OW70644   3.297  13.569   5.298 -0.1568  0.2228  0.2456
17551SOL    HW170645   3.252  13.653   5.309 -2.1446 -0.7181 -0.2398
17551SOL    HW270646   3.263  13.534   5.216  1.4130 -0.6264 -0.0746
17552SOL     OW70647   4.663   7.678   6.537 -0.0730  0.1575  0.1655
17552SOL    HW170648   4.686   7.753   6.482  1.3693 -0.6505 -0.3857
17552SOL    HW270649   4.703   7.603   6.493 -0.5847 -0.7997  1.2705
17553SOL     OW70650   3.389   0.628   4.057 -0.5910 -1.1597  0.4483
17553SOL    HW170651   3.344   0.572   4.120 -0.4192 -0.9329  0.7749
17553SOL    HW270652   3.323   0.649   3.992 -0.9912 -0.7452  0.9774
17554SOL     OW70653   0.613   1.825   8.203 -0.2981  0.0952  0.1633
17554SOL    HW170654   0.559   1.902   8.184 -0.1640  0.4085  0.9896
17554SOL    HW270655   0.631   1.786   8.117 -1.5014  0.2018 -0.1516
17555SOL     OW70656   8.881   6.072   1.485  0.4981 -0.1695  0.1967
17555SOL    HW170657   8.911   6.048   1.572  2.0074  0.7857 -0.0250
17555SOL    HW270658   8.961   6.080   1.433 -0.1848  1.6117 -0.6679
17556SOL     OW70659  10.947   1.207   7.009  0.2718 -0.0507 -0.3624
17556SOL    HW170660  11.027   1.247   7.042 -0.6659  0.9115  0.8220
17556SOL    HW270661  10.887   1.207   7.084  0.0416 -3.2928 -0.3925
17557SOL     OW70662  11.531  12.029  11.926  0.2204 -0.1642 -0.6482
17557SOL    HW170663  11.526  11.935  11.908 -1.5629 -0.5510  1.4034
17557SOL    HW270664  11.441  12.054  11.948  1.0465  1.5150  1.1070
17558SOL     OW70665   9.152  10.991   0.663  0.0914  0.3380  0.0854
17558SOL    HW170666   9.070  10.964   0.705  0.5099  1.5969  1.8156
17558SOL    HW270667   9.188  11.057   0.721  2.5244 -0.3990 -0.4705
17559SOL     OW70668   6.399   4.661   1.770  0.2415 -0.0860  0.0220
17559SOL    HW170669   6.351   4.646   1.851  0.9719  2.1302  0.9584
17559SOL    HW270670   6.491   4.651   1.795  0.4103 -1.8481 -1.1609
17560SOL     OW70671   7.156   3.858   8.699  0.8364 -0.6306 -0.4486
17560SOL    HW170672   7.090   3.871   8.631  0.7180 -0.7716 -0.3597
17560SOL    HW270673   7.239   3.876   8.655  0.7584 -0.7107 -0.6264
17561SOL     OW70674   8.683   6.978  10.790 -0.1191 -0.1415  0.5239
17561SOL    HW170675   8.773   6.962  10.816 -0.0084 -2.8595 -1.1758
17561SOL    HW270676   8.630   6.933  10.856 -0.2458  0.7255  1.0368
17562SOL     OW70677  13.380  12.011   5.364 -0.2163  0.4373  0.0098
17562SOL    HW170678  13.401  12.104   5.364 -0.9418  0.6175 -0.7863
17562SOL    HW270679  13.455  11.969   5.322 -1.1614  1.0321 -2.4793
17563SOL     OW70680   5.050   7.719   5.829  0.3618  0.3912 -0.3143
17563SOL    HW170681   5.119   7.786   5.830 -0.1188  0.9450 -1.7404
17563SOL    HW270682   5.054   7.683   5.741  0.3816 -1.2495  0.3318
17564SOL     OW70683   6.361   1.464   1.272 -0.9290 -0.5398  0.1749
17564SOL    HW170684   6.277   1.440   1.232 -0.5671 -1.2164 -0.1949
17564SOL    HW270685   6.352   1.440   1.364 -1.0907 -0.7618  0.1029
17565SOL     OW70686   1.243   8.892   6.742  0.8978 -0.1856  0.4454
17565SOL    HW170687   1.243   8.850   6.656  0.1622  1.1165 -0.2195
17565SOL    HW270688   1.305   8.964   6.734 -0.3812  0.9526  0.4684
17566SOL     OW70689   7.154   6.272   3.455  0.2337  0.3012 -0.0446
17566SOL    HW170690   7.213   6.198   3.469 -1.7166 -1.1166  1.1585
17566SOL    HW270691   7.067   6.239   3.480 -1.4007  1.7999 -3.1336
17567SOL     OW70692   5.212   6.534   6.657 -0.5518  0.1693  0.3863
17567SOL    HW170693   5.248   6.579   6.580 -1.4657  1.6374  0.7772
17567SOL    HW270694   5.251   6.447   6.654 -0.6833  0.1335 -1.8189
17568SOL     OW70695   6.637   8.278  12.616 -0.0598 -0.1196  0.5340
17568SOL    HW170696   6.715   8.236  12.579  0.4799  1.2692  0.0326
17568SOL    HW270697   6.646   8.370  12.592  0.6327  1.0701  4.6097
17569SOL     OW70698  10.359  11.865   2.918  0.4690 -0.2845  0.1354
17569SOL    HW170699  10.304  11.867   2.996 -0.9283  1.0685 -0.8161
17569SOL    HW270700  10.301  11.835   2.848  1.5062 -0.7999 -0.5296
17570SOL     OW70701   7.158   8.314  11.181 -0.4181  0.0145 -0.5777
17570SOL    HW170702   7.065   8.337  11.186 -0.7116 -1.0726 -0.9158
17570SOL    HW270703   7.159   8.219  11.172  0.7778 -0.1945  1.2079
17571SOL     OW70704   9.727   0.689  13.522 -0.2350 -0.1713 -0.2356
17571SOL    HW170705   9.655   0.626  13.530 -1.0815  0.8930  0.8793
17571SOL    HW270706   9.692   0.771  13.558  1.6819  0.2769  0.7590
17572SOL     OW70707   4.496  11.512  11.672  0.8110 -0.1481  0.7238
17572SOL    HW170708   4.406  11.507  11.640  0.6508 -2.1758  1.4102
17572SOL    HW270709   4.490  11.563  11.753  0.5477  1.0652 -0.0311
17573SOL     OW70710   2.809  11.168   3.404  0.5557  0.5298 -0.2061
17573SOL    HW170711   2.901  11.191   3.392  0.6998 -0.1644 -0.4731
17573SOL    HW270712   2.775  11.235   3.463  1.8546 -0.6248  1.9954
17574SOL     OW70713   6.032   2.103   5.284 -0.0026  0.1621 -0.4896
17574SOL    HW170714   6.109   2.065   5.243  1.6594  2.0679  0.6857
17574SOL    HW270715   6.022   2.055   5.366  1.4961  1.4690  0.5217
17575SOL     OW70716  11.273   1.158   3.611  0.6068  0.3492 -0.0623
17575SOL    HW170717  11.254   1.111   3.692 -1.6588 -1.3007 -1.4440
17575SOL    HW270718  11.339   1.104   3.567  0.5874  0.3325 -0.0706
17576SOL     OW70719  13.531   6.576  10.863 -0.4009  0.3207  0.7068
17576SOL    HW170720  13.506   6.644  10.924  2.1033  0.9312  1.1555
17576SOL    HW270721  13.553   6.622  10.783 -0.4053 -0.1530  0.4278
17577SOL     OW70722  10.932   0.673   3.523 -0.2082  0.5815 -0.0245
17577SOL    HW170723  10.892   0.588   3.543 -1.0155  0.9691  0.0368
17577SOL    HW270724  10.963   0.705   3.608 -3.1116  1.9582  0.6561
17578SOL     OW70725  14.145   0.585   2.068  0.4358  0.4577  0.3574
17578SOL    HW170726  14.083   0.534   2.120 -0.2146 -0.5885 -1.3588
17578SOL    HW270727  14.173   0.526   1.998  1.8358  1.5716 -0.0744
17579SOL     OW70728   0.395   2.303   3.607 -0.0587 -0.5795 -0.9264
17579SOL    HW170729   0.444   2.384   3.600  0.4771 -0.7244  0.7081
17579SOL    HW270730   0.435   2.244   3.543  2.2631 -0.8410  0.6443
17580SOL     OW70731  12.923  13.793   2.649  0.0403  0.1829  0.0119
17580SOL    HW170732  12.955  13.875   2.688  1.2592  0.0434 -0.6277
17580SOL    HW270733  12.897  13.739   2.723  0.8081  0.5213  0.5408
17581SOL     OW70734  12.428  14.136   5.216 -0.0089  0.4667 -0.5790
17581SOL    HW170735  12.409  14.062   5.273 -0.9607  0.8922 -0.3156
17581SOL    HW270736  12.484  14.100   5.148 -0.5092 -0.5217 -0.4911
17582SOL     OW70737  13.061   8.947   8.736  0.0483  0.2748  0.0260
17582SOL    HW170738  13.146   8.957   8.780 -0.2572  0.4110  0.5984
17582SOL    HW270739  13.027   9.037   8.730  0.0141  0.2378 -0.3420
17583SOL     OW70740   2.155   6.129   3.702 -0.2612 -0.0893 -0.0095
17583SOL    HW170741   2.083   6.191   3.710 -1.0677 -1.0635  0.3457
17583SOL    HW270742   2.186   6.140   3.612  1.7739  3.1570  0.9162
17584SOL     OW70743  11.989   8.249   9.347  0.2488 -0.0491  0.1141
17584SOL    HW170744  11.929   8.277   9.416 -2.5515 -2.3415 -1.2048
17584SOL    HW270745  12.041   8.179   9.387  0.0123 -0.0391  0.4396
17585SOL     OW70746   1.563  13.464   6.355  0.0811 -0.6334 -0.0617
17585SOL    HW170747   1.474  13.466   6.318  0.3791 -1.6893 -0.8589
17585SOL    HW270748   1.603  13.386   6.317  0.7222 -1.2515  1.7900
17586SOL     OW70749   3.074  13.027   1.052 -0.1613 -0.5967  0.7794
17586SOL    HW170750   3.009  13.028   1.122 -0.4307 -1.3887  0.5461
17586SOL    HW270751   3.132  12.954   1.074  1.1859  0.6014  1.4524
17587SOL     OW70752   4.025   1.479   7.955 -0.5325  0.4013 -0.2125
17587SOL    HW170753   3.993   1.389   7.954  1.6232 -0.4384 -0.3884
17587SOL    HW270754   4.006   1.511   8.043  0.4734 -0.9696  0.5364
17588SOL     OW70755   5.601   4.758   8.572  0.3576  0.0779  0.6502
17588SOL    HW170756   5.695   4.749   8.556 -0.0553 -1.5970 -1.2996
17588SOL    HW270757   5.561   4.746   8.486 -1.6337  1.4829  1.3001
17589SOL     OW70758   3.414   1.730  13.864 -0.1556 -0.1560  0.0281
17589SOL    HW170759   3.508   1.723  13.876 -0.3156 -1.7942  0.5803
17589SOL    HW270760   3.403   1.756  13.772  0.8266 -0.3800 -0.1592
17590SOL     OW70761   1.026   7.055  12.231 -0.3340  0.0081  0.7661
17590SOL    HW170762   1.093   7.064  12.163 -0.5645  0.5082  0.5959
17590SOL    HW270763   1.045   6.972  12.274  0.1534 -0.0406  0.4565
17591SOL     OW70764  10.367  10.497  10.937  0.9584 -0.2881 -0.3856
17591SOL    HW170765  10.359  10.558  10.864  0.1520 -0.6802 -0.6355
17591SOL    HW270766  10.337  10.547  11.013 -1.2305 -0.8116 -0.8347
17592SOL     OW70767   5.344  10.023   1.714 -0.1547  0.0362 -0.3691
17592SOL    HW170768   5.260   9.979   1.699  0.1022 -0.5086 -0.2383
17592SOL    HW270769   5.322  10.116   1.715 -0.8867 -0.1271  0.4292
17593SOL     OW70770  11.851   5.086  12.282  0.3679 -0.2712 -0.1456
17593SOL    HW170771  11.777   5.145  12.266  0.4387 -0.1800 -0.1394
17593SOL    HW270772  11.898   5.126  12.355 -0.5980 -1.2938  1.0947
17594SOL     OW70773   8.754   6.435  13.071  0.4912 -0.3373 -0.0403
17594SOL    HW170774   8.802   6.360  13.037  2.3771 -0.2185  2.1247
17594SOL    HW270775   8.706   6.469  12.996  0.9662 -2.6279 -1.4855
17595SOL     OW70776   8.771   3.369   5.543  0.2929  0.6957  0.2852
17595SOL    HW170777   8.737   3.458   5.528 -0.0686  0.4423 -0.4642
17595SOL    HW270778   8.866   3.378   5.535  0.3077  1.1276  0.8529
17596SOL     OW70779   6.303  10.775   2.976  0.7269 -0.1180 -0.1692
17596SOL    HW170780   6.243  10.836   2.933 -0.5428 -1.1233  0.0950
17596SOL    HW270781   6.249  10.698   2.994  1.7288 -0.4730  1.4768
17597SOL     OW70782  12.985   6.315   0.433  0.2028 -0.3469 -0.1181
17597SOL    HW170783  12.984   6.224   0.404  1.3790 -0.5145  0.3319
17597SOL    HW270784  13.077   6.341   0.430  0.0493  0.4078  1.0455
17598SOL     OW70785   9.885   2.566   9.572 -0.2645 -0.0303 -0.3068
17598SOL    HW170786   9.955   2.596   9.513 -0.0384 -1.0520 -0.5841
17598SOL    HW270787   9.929   2.550   9.655 -0.4732  0.8469 -0.0212
17599SOL     OW70788   7.126  12.304   9.375 -0.1494  0.4016 -0.0410
17599SOL    HW170789   7.073  12.377   9.405 -0.2308  1.1113 -1.7853
17599SOL    HW270790   7.076  12.266   9.303  0.4562 -0.6288  0.0562
17600SOL     OW70791   4.588   8.230   9.976  0.1355  0.3156 -0.4818
17600SOL    HW170792   4.614   8.149   9.933 -0.4563  0.0233 -0.2974
17600SOL    HW270793   4.509   8.257   9.931 -0.0864  0.3935 -0.0556
17601SOL     OW70794  12.874   9.303   0.838  0.5051  0.2039  0.1651
17601SOL    HW170795  12.839   9.230   0.888  0.0817  0.2566 -0.0495
17601SOL    HW270796  12.920   9.356   0.902  0.6755 -0.1659  0.3511
17602SOL     OW70797   6.438   7.514  13.701  0.1782 -0.3038  0.0624
17602SOL    HW170798   6.449   7.470  13.786 -0.7769  0.6905  0.7300
17602SOL    HW270799   6.366   7.467  13.659  1.1349 -1.2804 -0.5639
17603SOL     OW70800   5.212  10.763  10.959  0.0925  0.2778  0.2573
17603SOL    HW170801   5.138  10.731  10.907  0.0653  2.7482 -1.3807
17603SOL    HW270802   5.184  10.751  11.050 -1.8266  0.0721 -0.3143
17604SOL     OW70803  12.130   6.737   6.421  0.5136 -0.0613 -0.2519
17604SOL    HW170804  12.057   6.687   6.387  0.9158 -0.6085 -0.3279
17604SOL    HW270805  12.202   6.718   6.360  0.9721 -0.2768  0.3508
17605SOL     OW70806  12.502   6.933   3.357 -0.1498 -0.0146  0.4022
17605SOL    HW170807  12.446   7.009   3.368  1.3165  0.9376  1.5876
17605SOL    HW270808  12.475   6.873   3.427 -0.9210 -0.3679 -0.1832
17606SOL     OW70809   5.349  13.789   0.888 -0.2497 -0.6018  0.4090
17606SOL    HW170810   5.414  13.814   0.823 -0.1782 -1.2018  0.2453
17606SOL    HW270811   5.268  13.777   0.838 -0.5820  0.4501  0.6536
17607SOL     OW70812   1.502  13.988   9.308  0.2520  0.1514  0.6869
17607SOL    HW170813   1.519  14.080   9.288 -1.2456  0.3334  0.0866
17607SOL    HW270814   1.500  13.985   9.404 -2.2711  1.3274  0.7452
17608SOL     OW70815   6.487   4.970  12.528 -0.1369 -0.0668 -0.0966
17608SOL    HW170816   6.519   4.892  12.482 -0.0290  0.2024 -0.4846
17608SOL    HW270817   6.549   5.039  12.505  0.5374 -0.1683  1.3352
17609SOL     OW70818   3.057  12.335  12.204  0.1665 -0.3295  0.3473
17609SOL    HW170819   3.053  12.239  12.205  0.2855 -0.3365  1.3986
17609SOL    HW270820   3.148  12.355  12.183 -0.0960 -0.4266 -0.9264
17610SOL     OW70821   6.874   4.452   3.456  0.5968 -0.0925 -0.2106
17610SOL    HW170822   6.834   4.538   3.443  3.7741  1.5181 -0.4553
17610SOL    HW270823   6.914   4.457   3.543 -1.1390 -2.2941  0.8153
17611SOL     OW70824  12.089   7.874   1.883  0.3817  0.1526 -0.1071
17611SOL    HW170825  12.134   7.816   1.822 -0.3705 -1.4945  0.8431
17611SOL    HW270826  12.153   7.892   1.951 -0.0207 -1.3313  0.6959
17612SOL     OW70827   0.305  10.488   2.980 -0.1332  0.3637 -0.0011
17612SOL    HW170828   0.212  10.468   2.992 -0.0677 -0.6888 -1.0490
17612SOL    HW270829   0.332  10.431   2.908  1.1676  1.1461 -0.1514
17613SOL     OW70830  12.895   2.908   6.668  0.4993 -0.2004  0.1767
17613SOL    HW170831  12.931   2.834   6.620  0.0143 -0.6107  0.4341
17613SOL    HW270832  12.850   2.869   6.743  0.9979  0.4114  0.8136
17614SOL     OW70833   4.690  12.148   2.482 -0.3012  0.2086 -0.0573
17614SOL    HW170834   4.741  12.198   2.547 -1.1500  0.5607  0.3514
17614SOL    HW270835   4.687  12.059   2.518 -1.1706  0.5094  0.6365
17615SOL     OW70836   2.855  10.644   2.282  0.9722  0.2276  0.2237
17615SOL    HW170837   2.910  10.600   2.346  0.9820  0.3405  0.2929
17615SOL    HW270838   2.782  10.679   2.333  1.5340  1.2462  0.3385
17616SOL     OW70839   7.869   6.846  11.759 -0.3434  0.5127 -0.3160
17616SOL    HW170840   7.922   6.902  11.816  0.2814  0.0977 -0.4787
17616SOL    HW270841   7.778   6.872  11.777 -0.1405  0.5642  0.6799
17617SOL     OW70842  14.074  13.845   7.111  0.4510 -0.1352  0.4598
17617SOL    HW170843  14.085  13.843   7.016  0.9405  1.5666  0.4406
17617SOL    HW270844  14.102  13.933   7.136 -0.5160 -0.2525  2.0783
17618SOL     OW70845   1.207   1.195   8.068 -0.0039 -0.0605 -0.1192
17618SOL    HW170846   1.173   1.119   8.117 -0.0607 -1.3668 -2.0663
17618SOL    HW270847   1.147   1.266   8.090 -0.0099 -0.5698  1.6852
17619SOL     OW70848   5.896  12.725   3.497  0.4132 -0.3195  0.3877
17619SOL    HW170849   5.842  12.682   3.563  1.0819 -0.9962  0.5004
17619SOL    HW270850   5.971  12.759   3.546  0.7318 -0.5097  0.0367
17620SOL     OW70851   6.203   8.230   3.946 -0.3280 -0.1215  0.0115
17620SOL    HW170852   6.288   8.262   3.976 -0.8388 -0.2067  1.6255
17620SOL    HW270853   6.224   8.162   3.882  0.8508 -1.0003  1.2884
17621SOL     OW70854  10.408   3.556   9.183 -0.2953 -0.1413  0.4518
17621SOL    HW170855  10.342   3.626   9.191  0.7173  1.1428 -1.5700
17621SOL    HW270856  10.400   3.507   9.265 -2.9576  0.6448  0.7858
17622SOL     OW70857   5.990   1.458  10.186 -0.0807  0.5138 -0.7502
17622SOL    HW170858   6.016   1.513  10.112  1.0511 -0.6560 -1.2708
17622SOL    HW270859   6.007   1.512  10.263  0.2899  1.1633 -1.2758
17623SOL     OW70860  10.203   5.735  10.257 -0.7083  0.0209 -0.7552
17623SOL    HW170861  10.163   5.720  10.171  1.6333  1.0432 -2.1246
17623SOL    HW270862  10.248   5.653  10.277 -1.0192 -0.1218 -0.6362
17624SOL     OW70863   0.132   1.857   1.190  0.9194 -0.4701 -0.1612
17624SOL    HW170864   0.101   1.848   1.280  1.3844 -1.2519 -0.0699
17624SOL    HW270865   0.226   1.842   1.195  1.6998  3.4783 -0.1930
17625SOL     OW70866   8.304  12.462  11.400 -0.4781  0.1153  0.5226
17625SOL    HW170867   8.266  12.543  11.367 -0.5913  0.1551  0.7492
17625SOL    HW270868   8.398  12.481  11.407 -0.1757 -0.4303 -1.3836
17626SOL     OW70869   0.833   0.700   3.698  0.2199 -0.1963  0.5928
17626SOL    HW170870   0.889   0.664   3.766  2.0635 -0.5401 -1.0207
17626SOL    HW270871   0.826   0.631   3.632 -1.8256 -0.0203  0.5497
17627SOL     OW70872   1.103  12.215  13.957 -0.0482 -0.3872  0.0794
17627SOL    HW170873   1.014  12.227  13.991  0.2972  3.0274  0.0886
17627SOL    HW270874   1.160  12.233  14.031  0.6418  0.9836 -0.7468
17628SOL     OW70875   7.430   0.884   5.693  0.0506  0.4216  0.1353
17628SOL    HW170876   7.421   0.876   5.788 -0.0006  1.5794  0.2434
17628SOL    HW270877   7.473   0.969   5.680  0.9590 -0.1712 -0.8416
17629SOL     OW70878   3.356   8.025  10.927 -0.1980  0.0870  0.2146
17629SOL    HW170879   3.338   8.112  10.963 -1.6916 -0.1621  0.1360
17629SOL    HW270880   3.392   8.042  10.840  1.1476  0.6458  0.8594
17630SOL     OW70881   4.193   1.573   0.496 -0.3388 -0.4163 -0.2614
17630SOL    HW170882   4.175   1.496   0.549 -2.1632 -0.8601 -1.4322
17630SOL    HW270883   4.112   1.589   0.448 -0.1234  2.3814  0.0975
17631SOL     OW70884   3.106  13.977   9.359  0.1089  0.0239 -0.2925
17631SOL    HW170885   3.016  13.966   9.329 -0.6606 -0.3796  1.9985
17631SOL    HW270886   3.121  14.072   9.356 -0.3964  0.0941 -0.6307
17632SOL     OW70887   9.062   2.267  11.631  0.1521 -0.1927 -0.3913
17632SOL    HW170888   9.149   2.289  11.597  0.4200 -1.5984 -0.7012
17632SOL    HW270889   9.074   2.181  11.673 -0.9773 -0.1630  0.0335
17633SOL     OW70890   2.727  12.789   6.997  0.6171 -0.0147  0.1691
17633SOL    HW170891   2.730  12.736   6.918  1.3006 -1.1301  0.9212
17633SOL    HW270892   2.811  12.833   7.001  0.2642  0.7072 -0.1551
17634SOL     OW70893  10.383   1.797   6.068  0.1844  0.1289 -0.3381
17634SOL    HW170894  10.290   1.780   6.083 -0.0606  1.7137  0.2362
17634SOL    HW270895  10.411   1.844   6.147  0.9044  1.5852 -1.4100
17635SOL     OW70896   8.256  14.005  10.348 -0.9531  0.0533  0.1545
17635SOL    HW170897   8.246  14.074  10.413 -0.5704  1.5718 -1.3515
17635SOL    HW270898   8.277  14.050  10.267 -1.7841 -1.7493 -1.1417
17636SOL     OW70899  11.753  12.986  12.921 -0.0579  0.3654  0.5825
17636SOL    HW170900  11.823  13.010  12.981 -1.4706  3.2978  1.2277
17636SOL    HW270901  11.702  12.919  12.968  1.8478 -1.3851  0.3261
17637SOL     OW70902   8.180  13.037   6.137 -0.3162 -0.4069  0.1783
17637SOL    HW170903   8.141  13.013   6.053 -0.8781  0.4482  0.1883
17637SOL    HW270904   8.197  12.953   6.180 -0.7940 -0.8308 -0.4427
17638SOL     OW70905  12.510  13.895   5.949  0.4329  0.6383 -0.4781
17638SOL    HW170906  12.433  13.846   5.976  0.5258  0.5140 -0.4392
17638SOL    HW270907  12.554  13.919   6.031  0.8308  0.0740 -0.5228
17639SOL     OW70908   0.284   2.695   6.549  0.1499 -0.1696 -0.0881
17639SOL    HW170909   0.230   2.711   6.471  0.6354  0.7678 -0.2409
17639SOL    HW270910   0.224   2.708   6.623  0.0775  0.5119 -0.2654
17640SOL     OW70911   6.482   1.575   0.898  0.1813  0.5498 -0.3216
17640SOL    HW170912   6.561   1.559   0.845 -0.1659 -2.3473 -0.1118
17640SOL    HW270913   6.513   1.626   0.973  1.4852  1.0440 -1.1638
17641SOL     OW70914   3.381   9.441   1.096  0.4471  0.3128  0.1155
17641SOL    HW170915   3.366   9.483   1.011 -0.7521  1.2939  0.7889
17641SOL    HW270916   3.468   9.472   1.122  1.2788 -0.7967 -1.1758
17642SOL     OW70917   9.001   4.269   2.303  0.1638 -0.5509 -0.3569
17642SOL    HW170918   9.092   4.291   2.283  0.8844 -0.8233  2.3141
17642SOL    HW270919   8.960   4.353   2.323 -0.0889 -0.4776 -1.1401
17643SOL     OW70920   4.741  13.715  13.655  0.7205 -0.0131  0.4439
17643SOL    HW170921   4.828  13.724  13.615  0.2149 -1.1562 -1.0196
17643SOL    HW270922   4.713  13.805  13.671  0.8091  0.5661 -2.2107
17644SOL     OW70923  13.867   2.052   9.754 -0.7927  0.4860 -0.0817
17644SOL    HW170924  13.931   2.112   9.715  4.0515 -2.1291  2.8372
17644SOL    HW270925  13.846   2.091   9.839  2.7758 -1.7283  2.0547
17645SOL     OW70926   5.729  12.713   9.721 -0.0760 -0.2698 -0.1978
17645SOL    HW170927   5.727  12.631   9.671  1.6177 -0.2500 -0.3762
17645SOL    HW270928   5.650  12.712   9.774 -0.4512 -1.6711 -0.7565
17646SOL     OW70929   4.206   0.820   8.519 -0.2076  0.0112  0.1502
17646SOL    HW170930   4.249   0.857   8.595 -0.0653  2.7945 -1.1467
17646SOL    HW270931   4.277   0.797   8.459 -0.3773 -0.6787  0.1964
17647SOL     OW70932   8.910   6.380   0.548 -0.0420 -0.1166 -0.5686
17647SOL    HW170933   8.997   6.346   0.565 -0.3129 -1.0593 -0.9877
17647SOL    HW270934   8.913   6.472   0.576  0.5985 -0.5882  0.9747
17648SOL     OW70935   1.423  10.490   5.197  0.9034  0.2288 -0.3754
17648SOL    HW170936   1.330  10.498   5.179  0.6550  0.8919  1.0999
17648SOL    HW270937   1.441  10.396   5.188  0.0803  0.0806 -0.5731
17649SOL     OW70938   7.712  11.602  11.662 -0.1361  0.2822 -0.0468
17649SOL    HW170939   7.771  11.530  11.640 -0.5393 -0.3368  0.8506
17649SOL    HW270940   7.768  11.680  11.662  0.7400 -0.3140  0.9359
17650SOL     OW70941   1.098   9.991   3.843  0.3934  0.1508  0.0149
17650SOL    HW170942   1.164   9.943   3.792 -1.0470 -0.9313 -0.8988
17650SOL    HW270943   1.059  10.052   3.781 -1.4913 -1.2921 -0.2975
17651SOL     OW70944   1.984   9.088   5.866 -0.0464 -0.4669 -0.2986
17651SOL    HW170945   1.911   9.098   5.805 -0.3822  0.0122  0.1643
17651SOL    HW270946   1.975   9.163   5.925  1.0539 -0.1858 -0.4725
17652SOL     OW70947  12.097   4.924   5.119  0.3900  0.2962  0.0635
17652SOL    HW170948  12.176   4.976   5.103  0.4001  0.5994  1.0714
17652SOL    HW270949  12.112   4.844   5.068  1.9719 -0.2504  1.3000
17653SOL     OW70950  13.518  12.232   0.799 -0.0026 -0.7137 -0.0631
17653SOL    HW170951  13.550  12.179   0.726  2.2588 -1.1551  1.1624
17653SOL    HW270952  13.581  12.304   0.805 -0.9257  0.0586  0.6264
17654SOL     OW70953   4.952   9.420  10.813  0.1848  0.2034  0.1510
17654SOL    HW170954   4.866   9.418  10.772  0.6138  0.3354 -0.7782
17654SOL    HW270955   5.010   9.457  10.746  0.9261  0.3148  0.8361
17655SOL     OW70956   5.210   5.064   4.004  0.6267 -0.1774  0.7632
17655SOL    HW170957   5.217   5.061   4.099 -0.3081  0.2259  0.8568
17655SOL    HW270958   5.300   5.075   3.974  1.2099 -2.5680  1.4772
17656SOL     OW70959   4.352   6.925  13.770  0.2304  0.3218  0.4322
17656SOL    HW170960   4.420   6.859  13.755  0.3291  0.1751  1.4485
17656SOL    HW270961   4.282   6.877  13.816 -1.7460 -0.1787 -2.7357
17657SOL     OW70962   8.322   8.588   5.495 -0.4801 -1.1356 -0.7079
17657SOL    HW170963   8.344   8.599   5.403  0.6627 -0.3602 -0.3540
17657SOL    HW270964   8.228   8.603   5.499 -0.0576  2.5173 -1.2401
17658SOL     OW70965   1.784  10.089   7.952  0.5768  0.0420 -0.3764
17658SOL    HW170966   1.752  10.036   8.025 -0.7921  0.1816 -0.8473
17658SOL    HW270967   1.865  10.127   7.984 -0.6909  1.2593  1.6354
17659SOL     OW70968  13.280  12.165   0.922  0.4375  0.0104  0.5406
17659SOL    HW170969  13.220  12.122   0.861 -0.1600 -1.2693  1.9614
17659SOL    HW270970  13.365  12.164   0.878 -0.6109  2.4594 -1.8065
17660SOL     OW70971   2.264   9.694   3.641  0.5435  1.2298  0.6681
17660SOL    HW170972   2.292   9.743   3.718 -0.2258  1.6660  0.6714
17660SOL    HW270973   2.200   9.749   3.598 -1.1815 -0.2025  1.2739
17661SOL     OW70974   7.477  10.776   1.966 -0.0646  0.4035  0.6857
17661SOL    HW170975   7.530  10.811   1.895  1.0597 -0.7235  0.9132
17661SOL    HW270976   7.453  10.852   2.019 -0.6365  1.2067 -0.7036
17662SOL     OW70977   6.498   4.504   5.406  0.6807  0.0702 -0.8923
17662SOL    HW170978   6.549   4.524   5.328 -1.0007  1.6297 -1.6758
17662SOL    HW270979   6.492   4.588   5.453  0.4310 -0.5170  0.1565
17663SOL     OW70980   0.353   5.301   8.183  0.4248  0.5548  0.7072
17663SOL    HW170981   0.386   5.294   8.272  2.3765  0.1445 -0.0126
17663SOL    HW270982   0.366   5.215   8.145  0.0616  0.8577 -0.1379
17664SOL     OW70983  13.209   9.173  12.137  0.3605  0.0890 -0.0178
17664SOL    HW170984  13.164   9.107  12.190  0.6072  0.9536  1.3240
17664SOL    HW270985  13.156   9.252  12.147 -0.2431 -0.0194 -2.0704
17665SOL     OW70986   3.187  11.795   4.872  0.1967  0.1755 -0.2696
17665SOL    HW170987   3.238  11.714   4.866 -0.9928 -0.6607  0.6011
17665SOL    HW270988   3.189  11.819   4.965  0.0305  0.8346 -0.4260
17666SOL     OW70989   6.512   4.477  11.266 -0.4927 -0.8512 -1.1364
17666SOL    HW170990   6.439   4.470  11.327  0.2011 -1.6998 -0.3834
17666SOL    HW270991   6.569   4.404  11.287  3.1015  2.3161  1.6845
17667SOL     OW70992   8.078  12.967   2.646 -0.9623 -0.0637 -0.1719
17667SOL    HW170993   7.997  12.950   2.597 -1.6562 -0.2267  1.0024
17667SOL    HW270994   8.071  12.912   2.724 -0.4673  1.1112  0.7253
17668SOL     OW70995  10.155   5.175   2.909 -0.0556 -0.1663  0.7299
17668SOL    HW170996  10.125   5.265   2.905 -0.7222 -0.3994  0.3224
17668SOL    HW270997  10.219   5.174   2.981  0.6901  0.8298  0.1016
17669SOL     OW70998   0.308  11.499  13.691 -0.2271  0.0781  0.1083
17669SOL    HW170999   0.354  11.579  13.666  0.5795 -0.8242 -1.4535
17669SOL    HW271000   0.370  11.453  13.749 -0.5045  0.3465  0.6299
17670SOL     OW71001   1.353   6.821   8.884  0.6060 -0.0201 -0.0867
17670SOL    HW171002   1.307   6.841   8.966 -3.0591  1.4370 -2.2309
17670SOL    HW271003   1.408   6.897   8.868  1.9374 -0.6377  1.2728
17671SOL     OW71004   9.638   1.342   3.856 -0.8884  0.1290  0.6619
17671SOL    HW171005   9.657   1.354   3.950  0.3870 -1.9952  0.7293
17671SOL    HW271006   9.687   1.413   3.814 -0.6833  0.5224  1.5205
17672SOL     OW71007   7.491   7.266   6.442 -0.2299 -0.4524 -0.5481
17672SOL    HW171008   7.550   7.329   6.400  1.2123 -0.4420  1.3664
17672SOL    HW271009   7.549   7.207   6.490 -1.7289 -0.9649  0.7231
17673SOL     OW71010   4.736   5.714  11.789  0.3532 -0.1512 -0.4467
17673SOL    HW171011   4.691   5.798  11.794 -0.2464 -0.5353  1.5384
17673SOL    HW271012   4.755   5.702  11.695 -0.8084  1.5074 -0.9356
17674SOL     OW71013   8.263   7.521   2.636  0.2221  0.1713  0.3130
17674SOL    HW171014   8.353   7.518   2.667 -0.1753 -0.6775  1.4364
17674SOL    HW271015   8.268   7.571   2.554  1.7514 -0.1526  0.1702
17675SOL     OW71016   2.191   6.701   6.473  0.1005 -0.8640 -0.0078
17675SOL    HW171017   2.249   6.746   6.534  2.4761 -0.7634 -2.1755
17675SOL    HW271018   2.108   6.749   6.478  1.1490  0.9285  1.0139
17676SOL     OW71019  11.372   1.497   3.135 -0.0303 -0.3773 -0.5507
17676SOL    HW171020  11.301   1.547   3.094 -0.3308 -0.5113 -0.1920
17676SOL    HW271021  11.342   1.480   3.224 -0.3457 -2.0394 -0.9449
17677SOL     OW71022   9.062  12.020   2.880  0.0123 -0.9556  0.2196
17677SOL    HW171023   8.979  12.059   2.908 -0.3974  0.0102 -2.1677
17677SOL    HW271024   9.128  12.085   2.902 -0.2061 -0.5652 -0.2588
17678SOL     OW71025  13.190   5.364  11.301 -0.2566  0.3637 -0.6411
17678SOL    HW171026  13.258   5.357  11.234  0.0942 -1.9827 -0.1212
17678SOL    HW271027  13.108   5.359  11.252 -0.0226  0.4239 -1.0461
17679SOL     OW71028  13.662   5.129   8.669  0.4629  0.1366  0.0593
17679SOL    HW171029  13.663   5.042   8.631 -1.7954 -0.7190  1.6716
17679SOL    HW271030  13.593   5.176   8.621 -1.6363 -0.6008  2.1368
17680SOL     OW71031  11.017   1.902   8.706 -0.1730  0.0486  0.0139
17680SOL    HW171032  11.028   1.842   8.779  1.1162  0.1222 -0.0957
17680SOL    HW271033  11.106   1.928   8.682 -0.4878 -0.5757 -2.0945
17681SOL     OW71034  13.360   3.438   1.622  0.1204 -0.1347  0.5752
17681SOL    HW171035  13.375   3.524   1.581  1.1195 -0.5202  0.0987
17681SOL    HW271036  13.441   3.420   1.669  0.2210 -1.1573  0.0370
17682SOL     OW71037  10.513   4.641   9.585  0.0280  0.2181 -0.4392
17682SOL    HW171038  10.530   4.561   9.534  1.0871 -0.4465  0.9064
17682SOL    HW271039  10.570   4.707   9.545 -0.8937  0.3566 -1.5954
17683SOL     OW71040  13.847  10.027   8.554 -0.0913 -0.5060  0.1164
17683SOL    HW171041  13.937  10.055   8.542 -0.3891  0.6678  0.5318
17683SOL    HW271042  13.821   9.992   8.469  0.9233 -1.3885  0.1472
17684SOL     OW71043  11.709   3.681   0.936  0.4141 -0.1391 -0.4591
17684SOL    HW171044  11.717   3.702   0.843  1.2775  1.0060 -0.1442
17684SOL    HW271045  11.616   3.669   0.951  0.2722 -0.3296 -1.4672
17685SOL     OW71046   0.885  11.293   4.514  0.7803 -0.0059  0.3971
17685SOL    HW171047   0.925  11.377   4.535 -1.5952  1.4257 -0.3903
17685SOL    HW271048   0.836  11.309   4.433 -2.0286 -1.2990  1.7015
17686SOL     OW71049  12.937  12.092  13.112  0.3801 -0.2126  0.3464
17686SOL    HW171050  12.847  12.123  13.115  0.1484 -0.8325 -0.0854
17686SOL    HW271051  12.931  12.003  13.078  1.1245 -0.3874  0.6575
17687SOL     OW71052   1.210  10.083   4.103 -0.1892 -0.3118  0.3092
17687SOL    HW171053   1.304  10.065   4.097  0.9168  4.5224 -1.2599
17687SOL    HW271054   1.177  10.064   4.015 -0.9564 -2.5072  0.9917
17688SOL     OW71055  13.481   9.803   6.172  1.3872  0.4304 -0.0934
17688SOL    HW171056  13.441   9.814   6.086  0.8955 -1.0427 -0.0781
17688SOL    HW271057  13.445   9.721   6.205  3.1126 -0.0748  0.6531
17689SOL     OW71058  10.716   7.400   6.788 -0.4461 -0.9238  0.4965
17689SOL    HW171059  10.677   7.476   6.829 -0.1132 -0.3189 -0.2847
17689SOL    HW271060  10.766   7.358   6.859  0.8715  0.6057  0.5348
17690SOL     OW71061  11.141   3.578   4.463  0.9211  0.1834  0.1579
17690SOL    HW171062  11.115   3.540   4.547 -2.7925  0.5044 -0.6454
17690SOL    HW271063  11.180   3.506   4.414  0.9778 -0.6116  1.3383
17691SOL     OW71064  11.079  12.018  10.858  0.0096  0.0600 -0.1096
17691SOL    HW171065  11.109  12.073  10.786 -1.6579  0.2028 -0.7573
17691SOL    HW271066  11.038  11.942  10.816 -0.6047 -0.0746  0.6902
17692SOL     OW71067   6.438   2.075   1.174 -0.1685  0.3526 -0.7216
17692SOL    HW171068   6.455   2.162   1.139  0.8257  0.7456  0.6099
17692SOL    HW271069   6.508   2.062   1.239  0.8030 -2.1717 -2.1436
17693SOL     OW71070  11.802  12.769   0.263  0.3578  0.2592 -0.4613
17693SOL    HW171071  11.768  12.688   0.224 -0.6244  1.1392 -1.5053
17693SOL    HW271072  11.812  12.748   0.356 -2.4669 -0.3091 -0.1889
17694SOL     OW71073  13.376  13.743   1.222 -0.3440  0.1352 -0.7099
17694SOL    HW171074  13.420  13.779   1.145  0.2572  1.3042  0.1320
17694SOL    HW271075  13.361  13.651   1.202 -1.1959  0.6642 -2.6500
17695SOL     OW71076   8.608   2.708   4.612 -0.3845 -0.2762 -0.1437
17695SOL    HW171077   8.531   2.754   4.580 -1.3076  0.0585  2.3400
17695SOL    HW271078   8.673   2.777   4.628 -0.7008 -0.1498  0.6843
17696SOL     OW71079   0.152   8.181  13.297 -0.0848  0.8276 -0.2127
17696SOL    HW171080   0.098   8.116  13.252 -1.6834  2.0446 -0.1806
17696SOL    HW271081   0.207   8.219  13.229  0.0669  0.2114 -0.4362
17697SOL     OW71082  10.975   4.672   2.594 -0.3120  0.2251  0.1171
17697SOL    HW171083  11.002   4.709   2.678  0.3291 -1.4056  0.6677
17697SOL    HW271084  10.935   4.588   2.616  0.6051 -0.6094 -1.2428
17698SOL     OW71085  12.563  11.625  12.309  0.8030  0.2120  0.1145
17698SOL    HW171086  12.597  11.536  12.314  1.4194  0.3007 -1.8444
17698SOL    HW271087  12.467  11.615  12.315  0.9190 -0.2099  3.4906
17699SOL     OW71088   5.144   7.668  12.047 -0.9074  0.5260 -0.2569
17699SOL    HW171089   5.093   7.729  11.994 -0.4507  0.0480 -1.2779
17699SOL    HW271090   5.084   7.639  12.115 -1.7684  0.5206 -1.0078
17700SOL     OW71091  11.503   1.657   0.622 -0.1196 -0.1042 -0.3738
17700SOL    HW171092  11.409   1.651   0.608 -0.1248  0.0881 -0.4324
17700SOL    HW271093  11.520   1.751   0.633  0.1865 -0.0432 -1.2684
17701SOL     OW71094   1.703  12.682   3.389  0.0746 -0.1829 -0.2861
17701SOL    HW171095   1.780  12.669   3.446 -1.0749  0.6383  1.5513
17701SOL    HW271096   1.738  12.728   3.313  1.5890 -0.7885 -0.0027
17702SOL     OW71097   4.353   8.953  12.808  1.1009 -0.2338  0.4866
17702SOL    HW171098   4.426   8.986  12.861 -0.3417  3.1790  0.6143
17702SOL    HW271099   4.275   8.972  12.861 -0.1255 -0.1846 -1.2528
17703SOL     OW71100   8.751   7.342   7.555  0.2125 -0.2549 -0.5592
17703SOL    HW171101   8.733   7.391   7.475  1.1237 -0.0925 -0.6719
17703SOL    HW271102   8.664   7.315   7.586 -0.1451 -0.3348 -1.5972
17704SOL     OW71103   0.963   8.231  12.475  0.6672  0.4299 -0.1816
17704SOL    HW171104   1.010   8.312  12.495  0.7663  0.1844  0.6249
17704SOL    HW271105   0.968   8.224  12.379  0.0286  1.7370 -0.3346
17705SOL     OW71106   7.218   4.172   9.507  0.7890 -0.1558  0.6805
17705SOL    HW171107   7.264   4.250   9.476  0.7431 -0.7903 -1.0859
17705SOL    HW271108   7.212   4.184   9.602  1.4545  1.6143  0.5380
17706SOL     OW71109   2.470   2.010   3.274  0.2262 -0.3129  0.0242
17706SOL    HW171110   2.387   2.055   3.291 -0.0720 -0.1944 -1.6283
17706SOL    HW271111   2.536   2.078   3.284  0.0625 -0.2182  0.5254
17707SOL     OW71112   3.386   6.192   1.047 -0.2103 -0.1167  0.4300
17707SOL    HW171113   3.458   6.243   1.083 -1.0405  1.0678  0.4743
17707SOL    HW271114   3.374   6.227   0.959 -0.4786 -0.5789  0.2788
17708SOL     OW71115   0.135   6.856   6.364 -0.1487  0.0596  0.5092
17708SOL    HW171116   0.080   6.927   6.331  1.7602  1.4563  0.1844
17708SOL    HW271117   0.155   6.881   6.454 -1.0073 -1.0524  1.0232
17709SOL     OW71118   0.648  14.056   1.193  0.2425 -0.1988  0.4981
17709SOL    HW171119   0.687  14.134   1.154  2.0329 -0.9114  0.7872
17709SOL    HW271120   0.553  14.071   1.187  0.5231  1.3112 -0.8048
17710SOL     OW71121   8.995   7.598  11.576  0.1319 -0.1405 -0.3824
17710SOL    HW171122   8.939   7.559  11.509  0.0080 -1.0648  0.2343
17710SOL    HW271123   9.080   7.558  11.564 -0.3040 -1.6080  1.0402
17711SOL     OW71124   3.449  14.081   1.099 -0.3405 -0.3935 -0.0979
17711SOL    HW171125   3.489  14.078   1.012  0.4834 -1.4128  0.2993
17711SOL    HW271126   3.384  14.152   1.093  1.0932  0.9078 -0.9445
17712SOL     OW71127   4.885  10.341   6.312 -0.6904  0.4157  0.1043
17712SOL    HW171128   4.798  10.356   6.349 -0.7076  0.6112 -0.0163
17712SOL    HW271129   4.941  10.321   6.387 -0.2474  2.8772  0.4990
17713SOL     OW71130  11.197   8.315   4.249  0.1638  0.0737  0.5252
17713SOL    HW171131  11.240   8.308   4.164 -2.5798  0.7893 -1.0480
17713SOL    HW271132  11.151   8.232   4.259  0.4851 -0.0157  1.3463
17714SOL     OW71133  13.508   6.743  13.770  0.2119 -0.0754 -0.2611
17714SOL    HW171134  13.589   6.787  13.745  0.3876 -0.2528 -0.0226
17714SOL    HW271135  13.485   6.689  13.694 -0.8816  1.6226 -1.1812
17715SOL     OW71136   2.859   5.085  13.515 -0.1708 -0.0658  0.5122
17715SOL    HW171137   2.854   5.141  13.437 -2.1160  0.6705  1.0968
17715SOL    HW271138   2.938   5.114  13.560 -0.1359  0.9479 -0.1547
17716SOL     OW71139  11.910   1.328  12.977 -0.2735 -0.0549 -0.0016
17716SOL    HW171140  11.877   1.245  12.941 -2.2205  0.8445 -0.4264
17716SOL    HW271141  11.842   1.392  12.956  0.7097  1.4665  1.2255
17717SOL     OW71142   7.894   9.062   7.086  0.0125  0.0115 -0.0714
17717SOL    HW171143   7.839   9.112   7.025  0.8066  0.6345 -0.2886
17717SOL    HW271144   7.883   9.107   7.170  1.3839  1.1015 -0.4435
17718SOL     OW71145  13.782   9.548   8.415 -0.0559  0.3951  0.2207
17718SOL    HW171146  13.792   9.595   8.498 -0.9271  0.4758  0.2925
17718SOL    HW271147  13.702   9.584   8.377 -0.8130 -1.1002  0.3307
17719SOL     OW71148   6.596  11.448   6.683  0.0101  0.1115 -0.1772
17719SOL    HW171149   6.636  11.535   6.684  1.0068 -0.2986 -1.3863
17719SOL    HW271150   6.502  11.465   6.673  0.1887  1.0609 -0.3331
17720SOL     OW71151  11.709   7.497   8.800 -0.0602 -0.5598  0.4461
17720SOL    HW171152  11.699   7.581   8.846  0.0698  0.5564 -1.4479
17720SOL    HW271153  11.619   7.469   8.784 -0.1824  0.7247 -1.4271
17721SOL     OW71154   5.730   4.664   3.025  0.0764  0.5033  0.2268
17721SOL    HW171155   5.716   4.702   3.112  2.0000 -0.8577  1.2108
17721SOL    HW271156   5.677   4.585   3.024  1.5852 -0.5783  1.0210
17722SOL     OW71157   8.648  14.019   6.025 -0.7603 -0.4816 -0.0503
17722SOL    HW171158   8.642  14.042   5.933 -1.2952 -0.1483  0.0604
17722SOL    HW271159   8.561  13.984   6.047 -0.6171 -0.6260  0.3090
17723SOL     OW71160   7.680   9.261   1.951  0.7497 -0.5539 -0.0541
17723SOL    HW171161   7.595   9.218   1.961  0.8705 -0.8343 -0.2323
17723SOL    HW271162   7.664   9.352   1.976  0.2236 -0.4356 -0.8204
17724SOL     OW71163   0.532   6.867  11.038  0.6776  0.1068 -0.1541
17724SOL    HW171164   0.596   6.934  11.014  0.6195  0.5241  0.8267
17724SOL    HW271165   0.549   6.849  11.130 -1.0717  0.7505  0.3432
17725SOL     OW71166  11.088   1.523   3.004 -0.2926 -0.5750  0.2077
17725SOL    HW171167  11.094   1.535   2.909 -0.9693 -0.6980  0.1498
17725SOL    HW271168  11.034   1.446   3.016 -2.0479  0.6818  0.7251
17726SOL     OW71169   2.010   4.225   1.533  0.1740 -0.5334 -0.3849
17726SOL    HW171170   2.073   4.178   1.587  0.1663  0.9991  1.0091
17726SOL    HW271171   1.975   4.293   1.590 -1.0629  0.0993 -1.8320
17727SOL     OW71172   3.156  13.071  13.539  0.0274  0.1354 -0.3122
17727SOL    HW171173   3.135  13.140  13.477 -0.0833  2.1992  1.8637
17727SOL    HW271174   3.248  13.050  13.522  0.3369  1.4880 -0.4437
17728SOL     OW71175  13.870   2.307   5.610 -0.0081  0.5865  0.3914
17728SOL    HW171176  13.827   2.372   5.666 -0.7590  2.5998 -2.3346
17728SOL    HW271177  13.880   2.351   5.525  0.1697 -2.6083 -1.3902
17729SOL     OW71178   4.288   1.049  12.206  0.1677  0.5261  0.7436
17729SOL    HW171179   4.244   0.973  12.168  1.4323 -0.3464  0.9727
17729SOL    HW271180   4.226   1.084  12.269 -0.7607  0.1903  0.0402
17730SOL     OW71181   3.966   3.141   0.688  0.2080  0.0399 -0.1637
17730SOL    HW171182   3.894   3.200   0.706  1.1383  0.4720  2.5965
17730SOL    HW271183   3.925   3.060   0.658 -1.5165  0.0479  1.9550
17731SOL     OW71184   2.724  11.126   1.082  0.0866  0.0868  0.0161
17731SOL    HW171185   2.707  11.085   1.167 -0.7640  0.4190  0.0102
17731SOL    HW271186   2.656  11.192   1.073  0.5545  0.4923 -0.6450
17732SOL     OW71187   5.883   9.384   5.726 -0.4401 -0.2541 -0.6321
17732SOL    HW171188   5.955   9.321   5.727 -0.0405  0.1942 -0.7140
17732SOL    HW271189   5.926   9.468   5.710 -0.9528  0.0548 -0.3974
17733SOL     OW71190  10.140   9.994   3.112 -0.4730  0.1517 -0.1075
17733SOL    HW171191  10.232  10.020   3.120 -1.0194  1.5688  2.6698
17733SOL    HW271192  10.100  10.062   3.059 -0.3452  0.8106  0.6212
17734SOL     OW71193   6.656  12.584   5.829 -0.0515 -0.4916  0.2353
17734SOL    HW171194   6.691  12.612   5.913  1.6352 -0.1229 -0.5409
17734SOL    HW271195   6.684  12.652   5.767 -0.7377 -1.0510 -0.7281
17735SOL     OW71196  10.604   6.418  12.555  0.4859 -0.6886 -0.5705
17735SOL    HW171197  10.668   6.435  12.624 -1.7008  0.3790  1.3543
17735SOL    HW271198  10.566   6.504  12.536 -0.8289 -1.3636 -1.1652
17736SOL     OW71199   5.566  12.863   5.396  0.2853 -0.0453 -0.6149
17736SOL    HW171200   5.640  12.895   5.344  0.3967 -0.6558 -0.8451
17736SOL    HW271201   5.602  12.847   5.483  0.3150  0.1015 -0.6000
17737SOL     OW71202   6.325   1.201   8.661 -0.4062 -0.1245 -0.0505
17737SOL    HW171203   6.259   1.212   8.593 -0.6487 -2.3508 -0.2659
17737SOL    HW271204   6.298   1.261   8.731 -1.6284  0.3164 -0.8730
17738SOL     OW71205   4.565   4.577  11.574 -0.6463  0.2866 -0.3132
17738SOL    HW171206   4.508   4.504  11.596 -0.8867  0.3437 -0.7349
17738SOL    HW271207   4.513   4.631  11.514 -0.6771  1.0886  0.4067
17739SOL     OW71208   3.391   0.910   4.748  0.2551  0.2691 -0.0242
17739SOL    HW171209   3.347   0.966   4.684 -0.0155 -0.2093 -0.2587
17739SOL    HW271210   3.458   0.863   4.699 -0.1712 -0.3442 -0.0290
17740SOL     OW71211   0.659  12.251   8.232  0.1436 -0.3223  0.1163
17740SOL    HW171212   0.597  12.287   8.295  0.7301  0.3314  0.3273
17740SOL    HW271213   0.604  12.199   8.172 -0.9082  1.6938 -0.7910
17741SOL     OW71214   4.876  12.479   0.201 -0.2305  0.0820  0.0539
17741SOL    HW171215   4.847  12.493   0.292 -1.6981 -2.3221  0.0472
17741SOL    HW271216   4.811  12.419   0.165  1.3717 -0.4948 -2.0343
17742SOL     OW71217   3.165   2.746   2.309  0.1137 -0.6535  0.0325
17742SOL    HW171218   3.109   2.799   2.252  1.0312 -0.4122 -0.6729
17742SOL    HW271219   3.120   2.745   2.393  1.4721  3.9410  1.1240
17743SOL     OW71220   6.983   9.063  10.894 -0.4790  0.5972 -0.3682
17743SOL    HW171221   7.026   9.149  10.888 -0.1705  0.5040  0.3919
17743SOL    HW271222   6.916   9.066  10.826  0.1567  1.0754 -0.9991
17744SOL     OW71223  13.776   2.992  12.764  0.0603 -0.2762  0.5728
17744SOL    HW171224  13.868   2.968  12.752 -0.6017 -2.8570  0.0144
17744SOL    HW271225  13.779   3.068  12.822  2.5408 -0.1283  0.3855
17745SOL     OW71226  10.886   1.114   7.664  0.0375  0.0805 -0.1920
17745SOL    HW171227  10.916   1.079   7.580  0.1048  3.1828 -1.6160
17745SOL    HW271228  10.834   1.191   7.641  0.0014  1.0277  2.6169
17746SOL     OW71229  10.432   5.045   9.446  0.0112  0.0431 -0.1924
17746SOL    HW171230  10.377   5.122   9.459  0.9912  0.5391  1.2525
17746SOL    HW271231  10.432   5.001   9.530  0.2461 -1.0303 -0.7361
17747SOL     OW71232   8.416   1.050   1.158  0.2683  0.5145 -0.0377
17747SOL    HW171233   8.484   1.114   1.137 -0.0661  0.6295 -0.8092
17747SOL    HW271234   8.373   1.084   1.236  0.3700  1.0236 -0.2015
17748SOL     OW71235   7.720   8.164   7.449 -0.1753 -0.1563  0.7906
17748SOL    HW171236   7.731   8.074   7.420  0.4899  0.2705 -0.3635
17748SOL    HW271237   7.715   8.159   7.544 -1.7803 -1.5578  0.6800
17749SOL     OW71238   9.341   3.247   9.389  0.1060  0.7774 -0.0526
17749SOL    HW171239   9.317   3.157   9.413  2.8704  0.1492  0.6867
17749SOL    HW271240   9.355   3.244   9.294  1.8056 -0.0396  0.1938
17750SOL     OW71241   6.803   9.889   0.853  0.1333 -0.4829  0.0420
17750SOL    HW171242   6.807   9.850   0.766  1.0642 -2.6245  0.9818
17750SOL    HW271243   6.885   9.938   0.861  0.2968 -0.7267 -0.1076
17751SOL     OW71244   3.949  13.424  13.173 -0.2579 -0.1603 -0.5810
17751SOL    HW171245   4.039  13.422  13.139  1.6718  4.0168  3.1890
17751SOL    HW271246   3.943  13.347  13.230  1.9029  0.5916  0.8061
17752SOL     OW71247   1.265   8.465   0.611  0.4680  0.0210 -0.2889
17752SOL    HW171248   1.356   8.492   0.596 -0.0871  1.7792 -0.7258
17752SOL    HW271249   1.253   8.390   0.553  1.3424  0.4261 -1.0205
17753SOL     OW71250   7.379   5.829   0.460  0.2722 -0.4482 -0.0405
17753SOL    HW171251   7.343   5.767   0.397  1.2108 -0.4640 -0.5832
17753SOL    HW271252   7.454   5.868   0.415  0.4088  0.2137  0.7325
17754SOL     OW71253   0.884   3.694   2.970  0.1143 -0.7286 -0.3783
17754SOL    HW171254   0.818   3.625   2.978  1.1182 -1.8085 -1.0266
17754SOL    HW271255   0.916   3.686   2.880  0.4139  0.4421 -0.3884
17755SOL     OW71256   5.418   9.163   2.345 -0.1891 -0.2711 -0.3461
17755SOL    HW171257   5.371   9.168   2.429 -1.7931 -1.5812 -1.1100
17755SOL    HW271258   5.473   9.085   2.353  2.5248  1.5939  0.7811
17756SOL     OW71259   0.555   8.101   1.478 -0.4500 -0.6184 -0.3129
17756SOL    HW171260   0.548   8.173   1.416 -1.7836  1.1682  1.7936
17756SOL    HW271261   0.468   8.062   1.479 -0.6706 -0.1396  0.9461
17757SOL     OW71262   2.481  11.289   5.017 -0.0255 -0.4588 -0.6020
17757SOL    HW171263   2.503  11.379   4.992  0.8773 -1.0133 -1.9517
17757SOL    HW271264   2.505  11.283   5.110  4.0100 -0.4425 -1.4597
17758SOL     OW71265   1.907  10.662   0.544 -0.6129 -0.4236  0.1718
17758SOL    HW171266   1.910  10.704   0.458 -0.7282 -0.6328  0.0640
17758SOL    HW271267   1.932  10.571   0.527 -1.5095 -0.6883  0.2146
17759SOL     OW71268   6.020   7.572  10.660 -0.2805 -0.8084 -0.0436
17759SOL    HW171269   5.963   7.608  10.728  0.8575 -1.8139  1.4988
17759SOL    HW271270   5.969   7.581  10.580 -0.2281  3.9544  0.1475
17760SOL     OW71271   9.122   1.948   7.126 -0.5164  0.5143  0.3154
17760SOL    HW171272   9.047   1.888   7.124 -1.7821  2.0204  0.7756
17760SOL    HW271273   9.095   2.018   7.185  1.6570  0.6249  1.2637
17761SOL     OW71274  13.567   9.579  10.033  0.1915 -0.0490  0.1875
17761SOL    HW171275  13.564   9.643  10.104 -1.6956 -1.5506  1.5906
17761SOL    HW271276  13.624   9.510  10.065  1.3527  0.3920 -0.8617
17762SOL     OW71277  11.473  12.656  12.867 -0.4166 -0.3824 -0.4804
17762SOL    HW171278  11.398  12.655  12.807  0.5558  0.6994 -1.7888
17762SOL    HW271279  11.468  12.573  12.913 -1.8940 -0.7274 -1.1864
17763SOL     OW71280   1.282   9.455   1.815 -0.5762  0.6204  0.3578
17763SOL    HW171281   1.243   9.523   1.760  0.0082  0.8336  0.2073
17763SOL    HW271282   1.315   9.503   1.892  0.7200  0.6508 -0.2046
17764SOL     OW71283   7.263   8.451   8.053 -0.0992 -0.4692  0.5554
17764SOL    HW171284   7.283   8.436   8.145 -0.7361 -0.0271  0.7716
17764SOL    HW271285   7.226   8.540   8.050 -0.0915 -0.4785 -0.1229
17765SOL     OW71286  12.649  11.239   5.939  0.2818  0.3097  0.1842
17765SOL    HW171287  12.663  11.333   5.949  0.1419  0.1068  3.4537
17765SOL    HW271288  12.733  11.199   5.961 -0.1395 -0.3436  0.6713
17766SOL     OW71289   9.745   6.121  10.582 -0.6318  0.5846 -0.3264
17766SOL    HW171290   9.729   6.035  10.543  2.4855 -0.2587  0.0033
17766SOL    HW271291   9.781   6.174  10.512  1.0916  0.3494  0.3276
17767SOL     OW71292   2.554   8.377   2.177 -0.0237 -0.6191  0.1432
17767SOL    HW171293   2.473   8.360   2.224 -1.0339  0.8988 -0.9568
17767SOL    HW271294   2.541   8.463   2.136  2.1829 -0.2891  0.0221
17768SOL     OW71295   6.985   6.068   4.986 -0.5358 -1.0185  0.3488
17768SOL    HW171296   6.892   6.087   4.994 -0.4965 -0.8890  0.4937
17768SOL    HW271297   7.018   6.130   4.921 -0.6599 -1.4251 -0.1010
17769SOL     OW71298   7.596   9.360  10.501  0.1335 -0.0398  0.2028
17769SOL    HW171299   7.550   9.408  10.570 -0.0596 -1.2918  0.9775
17769SOL    HW271300   7.595   9.419  10.426 -1.5642  0.5126  0.6109
17770SOL     OW71301   7.269   1.301  14.010  0.2357 -0.5816  0.1257
17770SOL    HW171302   7.273   1.394  14.031  1.7559 -1.0201  2.2170
17770SOL    HW271303   7.319   1.292  13.929  0.1896  0.4103 -0.0207
17771SOL     OW71304  11.014  13.972   4.270 -0.0057  0.0234 -1.0183
17771SOL    HW171305  11.071  13.991   4.345 -1.1667 -1.1747  0.2260
17771SOL    HW271306  10.930  14.014   4.294 -1.4189 -3.0922 -0.0200
17772SOL     OW71307   3.198   1.701   5.405  0.3760 -0.1527 -0.4035
17772SOL    HW171308   3.231   1.780   5.448 -1.0468  0.4809 -0.4182
17772SOL    HW271309   3.109   1.692   5.438  0.6191 -1.9429 -0.1684
17773SOL     OW71310   3.980   4.267   4.135 -0.0902  0.3195  0.2096
17773SOL    HW171311   4.029   4.185   4.140  1.4044  1.1828  0.3232
17773SOL    HW271312   4.044   4.331   4.105 -1.1052  1.5425  0.5711
17774SOL     OW71313  12.112   3.252  13.612  0.0706  0.1497 -0.1474
17774SOL    HW171314  12.200   3.287  13.627  0.4422 -1.1049  0.7689
17774SOL    HW271315  12.083   3.223  13.699 -0.2300 -1.7294 -0.8452
17775SOL     OW71316   3.656  12.930   8.964 -0.1221 -0.4155  0.3361
17775SOL    HW171317   3.638  12.903   9.054  1.1069  0.7678  0.9712
17775SOL    HW271318   3.690  13.019   8.972 -0.8132  0.0356 -1.3883
17776SOL     OW71319  11.362   5.313   7.551 -0.2047 -0.3146 -0.0283
17776SOL    HW171320  11.358   5.332   7.458 -0.3200 -1.0205 -0.1684
17776SOL    HW271321  11.361   5.400   7.593  2.8505  0.1693 -0.7440
17777SOL     OW71322   3.473   8.968   2.612 -0.4364  0.2052  0.4400
17777SOL    HW171323   3.514   8.973   2.525  0.3768  0.0325  0.8109
17777SOL    HW271324   3.426   9.051   2.620  0.4595  0.7413  0.3103
17778SOL     OW71325   6.041   7.026   5.650 -0.0541  0.2968  0.1006
17778SOL    HW171326   6.033   6.934   5.674 -0.9505  0.1759 -0.6129
17778SOL    HW271327   5.976   7.039   5.581 -0.1306  1.5351  0.3794
17779SOL     OW71328  10.675   2.673   0.124  0.0452  0.3113  0.2974
17779SOL    HW171329  10.669   2.742   0.190 -1.6492  0.1747  0.3250
17779SOL    HW271330  10.604   2.692   0.063  1.5456  0.4374 -1.5317
17780SOL     OW71331   7.936   8.414   3.488  0.4655 -0.3448  0.2141
17780SOL    HW171332   7.993   8.369   3.425  0.0270  1.0413 -1.2472
17780SOL    HW271333   7.972   8.502   3.494 -1.6562  0.6837 -1.0326
17781SOL     OW71334   9.892  12.085   2.545 -0.4594  0.6299 -0.0258
17781SOL    HW171335   9.924  12.149   2.609  1.1623 -0.2269  0.0918
17781SOL    HW271336   9.972  12.049   2.505 -1.3747 -0.1727 -1.2279
17782SOL     OW71337   3.407   9.499   3.222  0.5530  0.3968  0.1652
17782SOL    HW171338   3.347   9.567   3.191  2.6615  2.2900 -0.0233
17782SOL    HW271339   3.462   9.543   3.286  1.6736 -1.2947  0.4297
17783SOL     OW71340  12.935   0.564   1.843  0.2109  0.3349 -0.0107
17783SOL    HW171341  12.984   0.521   1.774  0.1981 -2.8002  1.7451
17783SOL    HW271342  12.942   0.658   1.824  2.1797 -0.2869 -2.8441
17784SOL     OW71343   7.405   6.721  11.396  0.1943  0.2352  0.4740
17784SOL    HW171344   7.319   6.680  11.389  0.5332 -0.6378  1.1206
17784SOL    HW271345   7.443   6.714  11.309 -0.3119  0.4750  0.2265
17785SOL     OW71346   1.189  13.434   0.296  0.4446 -0.3025  0.1151
17785SOL    HW171347   1.180  13.340   0.311  0.8271 -0.4741 -0.6926
17785SOL    HW271348   1.268  13.442   0.242 -0.0618  0.4120 -0.5349
17786SOL     OW71349   4.458  10.893   6.316 -0.1063  0.2553 -0.1106
17786SOL    HW171350   4.373  10.896   6.358  0.1438  2.9850  0.3538
17786SOL    HW271351   4.439  10.893   6.222 -0.6879  2.5013 -0.0464
17787SOL     OW71352   9.970   6.345   1.920 -0.3053 -0.5504  0.1585
17787SOL    HW171353   9.938   6.265   1.961  1.6176 -0.5036  1.8824
17787SOL    HW271354  10.018   6.315   1.842 -0.4910 -0.9712  0.2023
17788SOL     OW71355   6.361   9.956  13.363  0.1593 -0.4982 -0.1464
17788SOL    HW171356   6.350   9.900  13.285 -0.3287  0.3988 -0.7419
17788SOL    HW271357   6.272   9.964  13.399 -0.1185  1.3799 -1.1443
17789SOL     OW71358   3.260   9.535  10.309  0.4348 -0.2543  0.3281
17789SOL    HW171359   3.237   9.444  10.331 -1.1672 -0.2483 -1.1000
17789SOL    HW271360   3.213   9.588  10.374 -0.3654 -0.3967 -0.1195
17790SOL     OW71361   1.576   5.627  13.380  0.1765  0.2374 -0.1610
17790SOL    HW171362   1.563   5.554  13.440  0.8872 -0.0071 -0.2956
17790SOL    HW271363   1.539   5.703  13.425 -3.1678 -0.6086 -1.1221
17791SOL     OW71364   5.601  12.245  10.214 -0.2660 -0.1657  0.0324
17791SOL    HW171365   5.649  12.314  10.169  0.6586 -0.6311  0.2723
17791SOL    HW271366   5.669  12.195  10.260 -0.6349 -2.4504 -1.7256
17792SOL     OW71367   8.915   2.342  14.113  0.0421  0.6793  0.4846
17792SOL    HW171368   8.889   2.361  14.203  0.8167  3.0120  0.2846
17792SOL    HW271369   9.002   2.301  14.122 -1.4898 -2.8841  0.9006
17793SOL     OW71370  12.038   5.454   2.171  0.4773 -0.2869  0.4639
17793SOL    HW171371  12.054   5.509   2.094 -0.3732  2.6253  2.1969
17793SOL    HW271372  12.098   5.488   2.237  0.6341 -2.2000  1.3578
17794SOL     OW71373   5.859  13.601  10.237 -0.2021 -0.1920  0.8874
17794SOL    HW171374   5.925  13.668  10.252 -2.3772  1.8695  1.8508
17794SOL    HW271375   5.844  13.563  10.324 -0.6898 -0.2356  0.7855
17795SOL     OW71376   5.867  13.621   2.388 -0.8500  0.7914 -0.3398
17795SOL    HW171377   5.807  13.638   2.461 -0.4638  0.6925  0.0024
17795SOL    HW271378   5.889  13.529   2.396  0.9751  1.2683  0.7948
17796SOL     OW71379   8.506   8.157   0.398 -0.2186 -0.2416  0.0414
17796SOL    HW171380   8.457   8.191   0.473  0.4962  0.8540  0.0235
17796SOL    HW271381   8.440   8.149   0.328 -0.7122 -0.4578  0.5222
17797SOL     OW71382   1.109  13.401   9.771 -0.2933 -0.2096 -0.9061
17797SOL    HW171383   1.067  13.318   9.794  0.3826 -0.2953  0.0786
17797SOL    HW271384   1.070  13.425   9.687 -2.0931 -0.4405 -0.1906
17798SOL     OW71385   6.826   9.875  13.298  0.4534 -0.1951  0.0332
17798SOL    HW171386   6.737   9.850  13.272 -0.1600  0.5678  1.3000
17798SOL    HW271387   6.858   9.927  13.224 -0.6408  0.5919  0.0775
17799SOL     OW71388   7.207  12.890   2.351 -0.5797  0.5520 -0.1036
17799SOL    HW171389   7.261  12.862   2.277 -1.8334 -0.7523 -0.5866
17799SOL    HW271390   7.118  12.897   2.314 -1.1559  0.2811  1.1851
17800SOL     OW71391   2.674   3.051   2.683  0.3635  0.1428 -0.4744
17800SOL    HW171392   2.585   3.041   2.717  0.9263  1.2021  1.4413
17800SOL    HW271393   2.730   3.020   2.753  1.5310 -0.4919 -1.6544
17801SOL     OW71394  11.731  13.368   3.476 -0.9996  0.0954  0.1876
17801SOL    HW171395  11.808  13.312   3.467  0.4617  1.8988  0.7853
17801SOL    HW271396  11.683  13.332   3.550  0.2649  0.0144  0.9909
17802SOL     OW71397   3.943   0.958   0.220 -0.1999 -0.0216  0.4574
17802SOL    HW171398   3.876   0.982   0.284 -1.2257 -0.4980 -0.3971
17802SOL    HW271399   3.996   0.892   0.264 -0.2685  0.3689  1.1498
17803SOL     OW71400   8.287   3.637  13.057 -0.6301 -0.1794  0.1167
17803SOL    HW171401   8.250   3.665  13.141  0.4023  1.7436 -0.0078
17803SOL    HW271402   8.337   3.713  13.026  0.1235 -1.3028 -1.6010
17804SOL     OW71403  12.860   0.010   2.913 -0.2623  0.3601 -0.0013
17804SOL    HW171404  12.875  -0.066   2.969  1.8806  1.3328  0.8427
17804SOL    HW271405  12.877  -0.022   2.825  1.9312  0.0972  0.4564
17805SOL     OW71406  12.523   1.229   1.950 -0.0677 -0.0342 -0.4730
17805SOL    HW171407  12.477   1.306   1.984  1.4846  0.3317  0.9231
17805SOL    HW271408  12.462   1.190   1.888 -2.6769 -0.0957  1.9202
17806SOL     OW71409  10.720   6.881   8.191 -0.0073 -0.3868 -0.0107
17806SOL    HW171410  10.676   6.877   8.106  0.4808  1.4627 -0.4038
17806SOL    HW271411  10.786   6.812   8.188 -0.8673 -1.2046 -0.5919
17807SOL     OW71412   1.139   9.504   1.202  0.5241  0.4057  0.0741
17807SOL    HW171413   1.136   9.411   1.226  0.3762  0.6366  0.9518
17807SOL    HW271414   1.051   9.523   1.168  0.2020  0.5076  0.9555
17808SOL     OW71415  11.187   4.773   5.754 -0.0980  0.0791 -0.0574
17808SOL    HW171416  11.218   4.862   5.739 -1.4409  0.4053 -1.0814
17808SOL    HW271417  11.184   4.734   5.667 -1.3081 -0.3328  0.1521
17809SOL     OW71418  10.515   2.756  10.798 -0.2542  0.1426 -0.1209
17809SOL    HW171419  10.457   2.797  10.862  0.5809  0.1817  0.6367
17809SOL    HW271420  10.602   2.763  10.837  0.2336 -0.1153 -1.1274
17810SOL     OW71421  12.756   8.143   4.015  0.2311  0.1695  0.0532
17810SOL    HW171422  12.731   8.235   4.022  0.1026  0.1575 -0.2088
17810SOL    HW271423  12.691   8.106   3.955 -1.4043 -0.7117  2.2278
17811SOL     OW71424   7.545   5.789   7.598  0.2616  0.1929 -0.1929
17811SOL    HW171425   7.528   5.702   7.562 -1.0810 -0.1601  1.2141
17811SOL    HW271426   7.461   5.817   7.634  1.4105  0.7041  2.2497
17812SOL     OW71427   1.987   9.859   0.004 -0.1687 -0.3635 -0.0148
17812SOL    HW171428   1.917   9.914  -0.031 -0.4144 -0.7349 -0.1085
17812SOL    HW271429   1.999   9.790  -0.061  0.5137 -0.1212 -0.1618
17813SOL     OW71430   5.450  12.322   8.810  0.5408  1.2685 -0.3373
17813SOL    HW171431   5.442  12.414   8.833 -2.4886  1.1443 -0.4412
17813SOL    HW271432   5.362  12.297   8.779  0.8581 -1.9371  0.9033
17814SOL     OW71433  11.392   8.884   8.395  0.1568 -0.0137  0.1910
17814SOL    HW171434  11.393   8.975   8.367  1.5670  0.2930  1.1079
17814SOL    HW271435  11.310   8.875   8.444 -0.1680  0.6520 -0.2102
17815SOL     OW71436   3.234  13.277  10.276  0.9871 -0.1511  0.3697
17815SOL    HW171437   3.274  13.300  10.360  0.2235  1.2171  0.3732
17815SOL    HW271438   3.144  13.253  10.298  1.7554 -3.6271  0.4176
17816SOL     OW71439  13.753  10.417  10.609 -0.5131 -0.4103  0.1418
17816SOL    HW171440  13.798  10.378  10.684  1.7550  1.3537 -0.1993
17816SOL    HW271441  13.801  10.385  10.533  1.1950  2.6056 -0.1600
17817SOL     OW71442   5.656  10.535   7.878  0.4502  0.4547 -0.0795
17817SOL    HW171443   5.631  10.594   7.949 -2.7695  0.4014 -1.0231
17817SOL    HW271444   5.624  10.449   7.905 -0.5586  0.3800 -1.3900
17818SOL     OW71445   0.520   0.211  10.573 -0.4956  0.0008 -0.2832
17818SOL    HW171446   0.550   0.184  10.486  0.7432 -1.0641  0.4338
17818SOL    HW271447   0.429   0.181  10.578 -0.3594 -0.5558 -0.9726
17819SOL     OW71448  10.236  12.134  10.246  0.2930 -0.2642 -0.2721
17819SOL    HW171449  10.151  12.119  10.288  0.3134 -1.8285 -0.7303
17819SOL    HW271450  10.289  12.176  10.313 -0.5744 -0.0955  0.3145
17820SOL     OW71451   9.350   3.742   8.327 -0.5451 -0.5640 -0.8270
17820SOL    HW171452   9.292   3.760   8.401 -0.2524  0.4607 -0.8332
17820SOL    HW271453   9.401   3.822   8.316  1.1197 -1.5378 -0.6115
17821SOL     OW71454   5.685   0.552  13.151  1.0105 -0.6192 -0.4680
17821SOL    HW171455   5.597   0.516  13.164  1.0100 -0.4307  0.0926
17821SOL    HW271456   5.730   0.487  13.097  0.0972 -0.0570 -1.9537
17822SOL     OW71457   3.196   9.800  12.881  0.4679 -0.5299 -0.0127
17822SOL    HW171458   3.249   9.732  12.923  0.1516 -1.2517 -0.7566
17822SOL    HW271459   3.239   9.816  12.797 -0.0263 -0.5310 -0.2700
17823SOL     OW71460   0.617  13.558   8.425 -0.0214 -0.0407  0.3671
17823SOL    HW171461   0.535  13.515   8.400  0.4858 -0.6395 -0.3089
17823SOL    HW271462   0.631  13.624   8.356  1.9252 -2.3989 -1.7155
17824SOL     OW71463   4.655   6.937  10.038 -0.0591  0.3000  0.4768
17824SOL    HW171464   4.595   7.006  10.067  1.4818  0.4547  3.6444
17824SOL    HW271465   4.729   6.984  10.000  0.0305  0.2825  0.6323
17825SOL     OW71466   5.963  13.820   0.002  0.5425  0.3450  0.2363
17825SOL    HW171467   5.985  13.830  -0.090  0.7653 -1.2944  0.0809
17825SOL    HW271468   5.916  13.737   0.007 -0.1621  0.7955  1.4885
17826SOL     OW71469   8.198   8.574  12.669 -0.2686  0.1854 -0.1268
17826SOL    HW171470   8.148   8.617  12.599  0.7722 -0.6407 -1.4347
17826SOL    HW271471   8.276   8.540  12.625 -0.3864 -1.8314  1.0919
17827SOL     OW71472  10.214   7.232   2.036  0.2175 -0.5263 -0.5362
17827SOL    HW171473  10.283   7.172   2.008  0.9301  0.2744 -0.5363
17827SOL    HW271474  10.254   7.282   2.108  0.7054  1.9595 -2.3881
17828SOL     OW71475   7.470   2.572  11.871 -0.2772  0.3018  0.1530
17828SOL    HW171476   7.527   2.507  11.912  0.2440  0.0232 -0.9850
17828SOL    HW271477   7.524   2.613  11.805 -1.0405  0.8930 -0.1141
17829SOL     OW71478   5.248   9.949  10.600  0.2556  0.5095  0.0025
17829SOL    HW171479   5.331   9.961  10.645  0.2838 -1.5480  0.6387
17829SOL    HW271480   5.263   9.876  10.540 -1.0848  0.0558  0.1720
17830SOL     OW71481  10.688   8.584   4.483 -0.0829  0.2006  0.3150
17830SOL    HW171482  10.674   8.618   4.572  1.6461  2.9641 -0.3350
17830SOL    HW271483  10.779   8.607   4.463 -0.4077 -0.4139 -2.1572
17831SOL     OW71484   2.963   3.838   4.763 -0.3737 -0.2000 -0.3290
17831SOL    HW171485   2.932   3.890   4.689 -1.5360 -1.6030 -0.8985
17831SOL    HW271486   2.901   3.859   4.834  0.6102  0.9802  0.2151
17832SOL     OW71487   2.329  13.000   0.660  0.0431  0.5500  0.2872
17832SOL    HW171488   2.317  12.905   0.669 -0.1530  0.5836  0.3656
17832SOL    HW271489   2.279  13.024   0.583  0.2236  0.5647  0.1737
17833SOL     OW71490   6.175   5.594  10.655 -0.4090  0.1701  0.0395
17833SOL    HW171491   6.089   5.632  10.669 -0.0262  0.4893  1.7925
17833SOL    HW271492   6.201   5.560  10.741  0.8886 -0.5897 -0.6189
17834SOL     OW71493   5.568   3.569   8.498  0.6611  0.2650  0.0833
17834SOL    HW171494   5.611   3.590   8.582  2.3614  1.0739 -0.9315
17834SOL    HW271495   5.506   3.641   8.485 -0.0013 -0.1380  0.8632
17835SOL     OW71496  12.063   0.568  12.878 -0.1169 -0.6913  0.2700
17835SOL    HW171497  12.061   0.474  12.864 -0.4595 -1.0972  2.6354
17835SOL    HW271498  12.132   0.582  12.943  1.4231  0.9960 -1.5644
17836SOL     OW71499  12.526   6.178   3.185 -0.0544  0.5833 -0.6215
17836SOL    HW171500  12.575   6.234   3.125  1.0558  0.8673  0.4884
17836SOL    HW271501  12.559   6.201   3.272 -1.1853 -0.2192  0.0610
17837SOL     OW71502  12.070   2.508   8.929 -0.5729 -0.6992 -0.3393
17837SOL    HW171503  11.993   2.468   8.970 -0.1908 -1.7753 -0.6197
17837SOL    HW271504  12.141   2.490   8.990 -0.8378  2.0275  0.8988
17838SOL     OW71505   7.768   1.442   6.127 -0.1681  0.3910 -0.0765
17838SOL    HW171506   7.850   1.394   6.125 -0.2758  0.1980 -2.0680
17838SOL    HW271507   7.792   1.531   6.152  0.2515 -0.2254  1.9327
17839SOL     OW71508   8.418   8.176  12.090 -0.3122 -0.0987  0.4758
17839SOL    HW171509   8.415   8.244  12.023 -0.9046 -0.4174  0.1670
17839SOL    HW271510   8.353   8.111  12.061 -0.2018 -0.4899  1.0860
17840SOL     OW71511  11.763   6.088   4.978 -0.3454 -0.3520 -0.3844
17840SOL    HW171512  11.834   6.125   4.925 -1.0816  0.2067 -1.0103
17840SOL    HW271513  11.781   5.994   4.980  0.2379 -0.2538 -0.8069
17841SOL     OW71514   5.797  12.300   2.069  0.6930 -0.0195 -0.7346
17841SOL    HW171515   5.780  12.360   2.141 -0.0842 -0.0813 -0.8538
17841SOL    HW271516   5.826  12.219   2.111 -1.4828 -0.6527 -0.3488
17842SOL     OW71517  10.681   4.591   3.090  0.4596 -1.1180  0.4272
17842SOL    HW171518  10.732   4.517   3.058 -0.1883 -1.5674  0.4284
17842SOL    HW271519  10.657   4.640   3.011  0.1353 -1.3964  0.3545
17843SOL     OW71520   8.823   8.128   0.490  0.5250 -0.0442 -0.0387
17843SOL    HW171521   8.748   8.161   0.441  0.5297  0.0817  0.0391
17843SOL    HW271522   8.864   8.064   0.432  1.2634  1.0038 -0.7114
17844SOL     OW71523   1.369   8.977  13.231  0.0055  0.0220  0.8010
17844SOL    HW171524   1.436   8.978  13.299 -1.2059 -0.7367  2.0567
17844SOL    HW271525   1.343   8.885  13.224 -0.7478  0.2728  0.1974
17845SOL     OW71526   0.928  12.157  13.148 -0.1373  0.4843  0.2193
17845SOL    HW171527   0.845  12.114  13.170 -0.0531  0.8233  1.2383
17845SOL    HW271528   0.904  12.247  13.128 -0.1699  0.2597 -0.7807
17846SOL     OW71529   0.459   7.083   5.250  0.2427 -0.6495 -0.2398
17846SOL    HW171530   0.426   7.111   5.336  1.2041  0.1648 -0.1144
17846SOL    HW271531   0.554   7.093   5.257  0.3770 -1.2220 -1.1837
17847SOL     OW71532   6.767   3.875  13.693 -0.3092  0.2924 -0.1370
17847SOL    HW171533   6.772   3.842  13.782 -2.6360 -0.3928 -0.1954
17847SOL    HW271534   6.788   3.800  13.638 -0.0647  0.3914 -0.1780
17848SOL     OW71535   6.420   4.158  11.947 -1.1279  0.3031  0.0776
17848SOL    HW171536   6.483   4.097  11.910 -0.8356  1.4519 -1.4407
17848SOL    HW271537   6.371   4.107  12.012  0.2787 -1.0272  0.1316
17849SOL     OW71538   9.696   3.771   8.384  0.5797 -0.2318 -0.6069
17849SOL    HW171539   9.655   3.735   8.462 -0.5484  1.1150 -0.5322
17849SOL    HW271540   9.726   3.694   8.335 -1.4418 -1.2845 -0.3276
17850SOL     OW71541   6.005  12.535   0.234  0.2658 -0.5118 -0.2263
17850SOL    HW171542   6.007  12.606   0.169 -0.2875 -0.5785 -0.3172
17850SOL    HW271543   6.041  12.574   0.313  1.1896 -0.4997 -0.6372
17851SOL     OW71544   5.129   2.420   4.655  0.0239  0.7417 -0.5716
17851SOL    HW171545   5.091   2.447   4.739 -1.2766 -1.1803 -0.4831
17851SOL    HW271546   5.182   2.495   4.628 -1.7983  2.5606  0.5758
17852SOL     OW71547   5.985  12.555  10.009 -0.4363  0.9309  0.2655
17852SOL    HW171548   6.055  12.493  10.031 -0.7120  1.5851  3.4080
17852SOL    HW271549   6.018  12.602   9.933  0.3000 -2.1678 -1.5205
17853SOL     OW71550   4.033  11.897  13.439 -0.3189  0.0576  0.6346
17853SOL    HW171551   4.071  11.903  13.527 -3.0640 -0.2057  1.9444
17853SOL    HW271552   3.993  11.983  13.424 -0.1576 -0.0091 -0.2291
17854SOL     OW71553   6.471   5.700  12.157 -0.0334  0.4798 -0.3099
17854SOL    HW171554   6.378   5.714  12.142 -0.0157  1.1234  0.1814
17854SOL    HW271555   6.481   5.699  12.252  0.2378 -1.0952 -0.3237
17855SOL     OW71556   7.200   5.325   7.706  0.3866  0.1310  0.3881
17855SOL    HW171557   7.189   5.231   7.722 -2.1782  0.2160 -0.4169
17855SOL    HW271558   7.139   5.367   7.767 -2.2254  0.9164 -2.4628
17856SOL     OW71559   7.514  13.549  10.771 -0.2335 -0.2859 -0.1550
17856SOL    HW171560   7.443  13.497  10.810 -0.3447 -0.2817 -0.3505
17856SOL    HW271561   7.487  13.561  10.680  0.9367 -1.9298 -0.7577
17857SOL     OW71562   9.504   9.061   8.267  0.1077  0.0597 -0.5315
17857SOL    HW171563   9.569   9.131   8.259 -0.3652  0.6891  0.9091
17857SOL    HW271564   9.425   9.096   8.227 -0.5423  0.9452  1.4076
17858SOL     OW71565   9.763   5.433   1.666  0.1778  0.1882 -0.0212
17858SOL    HW171566   9.716   5.352   1.648 -0.0100  0.6420 -1.7386
17858SOL    HW271567   9.855   5.408   1.662  0.1203  0.0311 -0.5187
17859SOL     OW71568   3.332   5.011   9.232  0.1953 -0.2963  0.6204
17859SOL    HW171569   3.345   4.999   9.326  0.6603 -0.4000  0.5471
17859SOL    HW271570   3.421   5.019   9.197  0.0677 -1.1577  0.0753
17860SOL     OW71571   8.361   2.646   4.777  0.0941 -0.1989  0.1981
17860SOL    HW171572   8.351   2.695   4.695  0.7717  0.0603  0.2648
17860SOL    HW271573   8.367   2.714   4.844  1.7696 -0.3261  0.2188
17861SOL     OW71574   4.020   0.349   2.317 -0.3671 -0.1582  0.0428
17861SOL    HW171575   4.000   0.278   2.256 -1.2541  0.0307  0.0987
17861SOL    HW271576   4.102   0.323   2.359 -0.6670 -1.1374  0.0412
17862SOL     OW71577   9.493   7.583   0.823  0.3807  0.6824  0.1899
17862SOL    HW171578   9.411   7.561   0.780  0.1608  0.5278  0.6875
17862SOL    HW271579   9.512   7.509   0.879  0.3801  1.1242  0.7842
17863SOL     OW71580   7.392  10.946   5.114  0.3291  0.0039  1.0776
17863SOL    HW171581   7.453  10.966   5.043 -0.4071 -0.0924  0.3964
17863SOL    HW271582   7.406  10.853   5.133 -0.1722 -0.2325  0.3470
17864SOL     OW71583   5.374   2.765   5.513 -0.3214  0.3611 -0.1837
17864SOL    HW171584   5.289   2.725   5.528 -0.1957  0.1864  0.0518
17864SOL    HW271585   5.362   2.816   5.432 -0.1534 -1.0777 -1.1394
17865SOL     OW71586   3.244   3.446   5.999 -0.7703  0.0079  0.1150
17865SOL    HW171587   3.214   3.520   5.946 -1.0251  1.1540  1.7865
17865SOL    HW271588   3.334   3.431   5.970 -0.8459  0.7092 -0.5196
17866SOL     OW71589  12.224   9.983   3.057  0.3990 -0.4036  0.2871
17866SOL    HW171590  12.250  10.047   3.124 -0.4277  0.8069 -0.5166
17866SOL    HW271591  12.305   9.968   3.008  0.7108 -0.3305  0.7601
17867SOL     OW71592   1.971   0.939   8.368  0.2479  0.0859 -0.0498
17867SOL    HW171593   2.026   0.914   8.294  0.0875  0.3328 -0.2566
17867SOL    HW271594   1.882   0.942   8.332  0.4973  3.5734 -0.7787
17868SOL     OW71595   7.269   8.621   4.968 -0.0363  0.1517 -0.4847
17868SOL    HW171596   7.353   8.581   4.989 -0.4869 -0.9853 -0.7493
17868SOL    HW271597   7.251   8.680   5.041  0.4936 -0.3985  0.0982
17869SOL     OW71598   4.546   3.064   7.778 -0.1139  0.4048  0.2574
17869SOL    HW171599   4.503   2.979   7.776 -1.1224  0.8707  0.8515
17869SOL    HW271600   4.480   3.123   7.815 -0.8113  2.2289 -3.4529
17870SOL     OW71601  12.336   0.202   1.781 -0.1263  0.2253 -0.0413
17870SOL    HW171602  12.402   0.212   1.713  0.6406  0.4992  0.7244
17870SOL    HW271603  12.258   0.244   1.745  0.3639  0.6689 -0.6143
17871SOL     OW71604  11.689  11.191  13.795 -0.1182  0.2033 -0.2534
17871SOL    HW171605  11.693  11.217  13.886  0.7064 -3.2658  0.8685
17871SOL    HW271606  11.779  11.202  13.762 -0.3818  1.3054 -0.6312
17872SOL     OW71607   6.419  11.699  10.076 -0.2994  0.3549  0.2371
17872SOL    HW171608   6.327  11.672  10.077 -0.0191 -0.9101 -1.4514
17872SOL    HW271609   6.417  11.793  10.058 -1.2713  0.1960 -0.5997
17873SOL     OW71610   0.035  13.726  10.367 -0.4684 -0.0209  0.5281
17873SOL    HW171611  -0.008  13.678  10.438 -1.3106  1.2478  0.9201
17873SOL    HW271612   0.061  13.659  10.304 -0.0403 -1.1292  1.8617
17874SOL     OW71613   0.478   4.340   9.005  0.1024  0.1604  0.1851
17874SOL    HW171614   0.562   4.296   9.012 -0.6120 -1.1013  1.4997
17874SOL    HW271615   0.429   4.310   9.082 -2.7541 -1.8148 -2.2094
17875SOL     OW71616   1.560   4.231  13.946  0.4105  0.5932 -0.2093
17875SOL    HW171617   1.584   4.310  13.994  0.2106  0.1109  0.7039
17875SOL    HW271618   1.609   4.161  13.990 -3.1365 -0.6021  2.3227
17876SOL     OW71619  11.992   8.855   7.773  0.0892  0.4889  0.0101
17876SOL    HW171620  12.018   8.941   7.740  0.2847  1.0590  1.5795
17876SOL    HW271621  12.048   8.841   7.850  0.0616 -1.0509 -0.2321
17877SOL     OW71622   8.092   8.746  12.469 -0.7151 -0.1107  0.5178
17877SOL    HW171623   8.051   8.787  12.393 -1.4557  0.2726  1.1147
17877SOL    HW271624   8.027   8.753  12.539 -0.3898 -1.2489  0.9559
17878SOL     OW71625   3.618   4.515   6.594 -0.1675 -0.5596  0.3653
17878SOL    HW171626   3.695   4.570   6.611  0.0561 -1.1912  1.5649
17878SOL    HW271627   3.547   4.576   6.579  0.1946  0.0614  1.1028
17879SOL     OW71628   3.278   6.376  12.813  0.0702  0.1131  0.7766
17879SOL    HW171629   3.371   6.359  12.796  0.2287  2.3804 -1.3791
17879SOL    HW271630   3.278   6.448  12.876 -0.1859  0.5620  0.2716
17880SOL     OW71631  13.405  12.374   4.997 -0.3369 -0.0211  0.1052
17880SOL    HW171632  13.437  12.422   5.074 -0.2877 -0.6012  0.4560
17880SOL    HW271633  13.343  12.434   4.956  0.9490  0.9928 -0.4062
17881SOL     OW71634  11.813  14.063   6.580  0.3815  0.2905 -0.2528
17881SOL    HW171635  11.814  13.980   6.533  1.0244 -0.2035  0.5921
17881SOL    HW271636  11.767  14.044   6.662  3.8471 -0.3533  1.7635
17882SOL     OW71637   6.824   4.452  12.145 -0.0475  0.5624 -0.1593
17882SOL    HW171638   6.883   4.471  12.217  0.2597 -0.6154 -0.0836
17882SOL    HW271639   6.831   4.528  12.088  0.6157  0.9759  0.4560
17883SOL     OW71640  11.693   2.588   0.084 -0.1890  0.0613  0.2278
17883SOL    HW171641  11.768   2.558   0.136 -1.5264 -0.5944  1.8674
17883SOL    HW271642  11.720   2.575  -0.006  1.9581  0.5527  0.7312
17884SOL     OW71643  13.420  13.619   5.537 -0.4033  0.0596 -0.5062
17884SOL    HW171644  13.491  13.563   5.568 -0.3629  0.4156  0.0553
17884SOL    HW271645  13.443  13.706   5.568 -0.4082  0.4164 -1.4722
17885SOL     OW71646   2.178   8.415   2.961 -0.3093 -0.2452 -0.2122
17885SOL    HW171647   2.154   8.376   2.877 -0.6922 -0.0471 -0.1950
17885SOL    HW271648   2.094   8.438   3.001 -0.0956  0.3585 -0.1077
17886SOL     OW71649  11.574   4.079   1.776  0.3847  0.4378 -0.2423
17886SOL    HW171650  11.570   4.172   1.799 -0.9717  0.3312  0.0660
17886SOL    HW271651  11.600   4.036   1.857  0.5173  0.5036 -0.2495
17887SOL     OW71652   8.538   1.471   9.949  0.0236  0.1139 -0.7094
17887SOL    HW171653   8.520   1.396   9.893 -1.3659 -0.5612  0.5663
17887SOL    HW271654   8.630   1.460   9.974 -0.1481 -1.1929 -0.5488
17888SOL     OW71655   7.073  10.402   1.333 -0.5644 -0.2009  1.0382
17888SOL    HW171656   7.164  10.430   1.321 -0.8555  0.9584  1.4173
17888SOL    HW271657   7.070  10.315   1.295  0.5441  0.0193  0.3949
17889SOL     OW71658   8.380   0.088  11.927 -0.0363  0.5816 -0.4303
17889SOL    HW171659   8.420   0.083  12.013  0.4572  0.3683 -0.6686
17889SOL    HW271660   8.297   0.041  11.936  0.3260 -0.0382 -0.2440
17890SOL     OW71661   1.647  12.084   2.372 -0.1738 -0.4580 -0.2885
17890SOL    HW171662   1.724  12.136   2.348  0.2451 -0.7481  0.4080
17890SOL    HW271663   1.673  11.994   2.352 -0.6403 -0.4825 -0.8220
17891SOL     OW71664   5.924   7.337   0.416  0.5186  0.1569  0.2019
17891SOL    HW171665   5.880   7.256   0.391  0.2523  0.5388 -0.6241
17891SOL    HW271666   5.854   7.394   0.448  0.3727  0.7545 -1.0886
17892SOL     OW71667   8.148   2.842   9.033 -0.3365  1.0193 -0.1342
17892SOL    HW171668   8.068   2.798   9.062  1.1590 -0.6870  1.7652
17892SOL    HW271669   8.190   2.780   8.974 -1.0379  2.5230 -2.3452
17893SOL     OW71670   2.877   4.401   1.399 -0.3992  0.0525 -0.5341
17893SOL    HW171671   2.825   4.369   1.325 -0.4729  0.1805 -0.5390
17893SOL    HW271672   2.830   4.480   1.428 -1.0755 -0.6738  0.4315
17894SOL     OW71673   5.738  13.906   0.205 -0.1411 -0.0488 -0.4047
17894SOL    HW171674   5.693  13.989   0.220 -1.6458 -0.8906  0.0063
17894SOL    HW271675   5.782  13.916   0.121 -0.2168  1.1889 -0.3081
17895SOL     OW71676   0.906   7.872   8.026 -0.6841  0.0400 -0.4405
17895SOL    HW171677   0.964   7.848   7.954 -0.7570 -0.9754 -0.1803
17895SOL    HW271678   0.905   7.968   8.026  0.6183  0.0746 -0.7569
17896SOL     OW71679  10.654  11.598  11.611  0.2123 -0.1102 -0.5674
17896SOL    HW171680  10.696  11.661  11.553 -1.5434 -0.4472 -2.2884
17896SOL    HW271681  10.670  11.513  11.570 -1.9412 -0.2639 -1.2001
17897SOL     OW71682   5.078   5.522   3.798  0.1596  0.3379  0.4181
17897SOL    HW171683   5.100   5.448   3.854  0.6103 -0.0897 -0.3057
17897SOL    HW271684   4.983   5.527   3.798  0.1588  1.2692  2.4022
17898SOL     OW71685   7.286   8.259  10.406 -0.4741 -0.1704 -0.7929
17898SOL    HW171686   7.220   8.192  10.388 -0.6519  0.2024 -1.5860
17898SOL    HW271687   7.341   8.260  10.327  1.9905 -2.1453  0.7522
17899SOL     OW71688   2.033   3.575   4.969  0.3209  0.1979  0.1328
17899SOL    HW171689   1.972   3.599   5.039  0.1350  0.9083 -0.2634
17899SOL    HW271690   2.117   3.564   5.013 -0.0280 -0.5582  0.6481
17900SOL     OW71691   0.367   1.174  13.504 -0.4758  0.2763 -0.0055
17900SOL    HW171692   0.292   1.116  13.514 -0.2626  0.0171  0.1175
17900SOL    HW271693   0.402   1.184  13.593 -0.9182  1.1450  0.0751
17901SOL     OW71694   9.175   9.238  11.109  0.0523  0.7293  0.3678
17901SOL    HW171695   9.205   9.175  11.044 -1.4367  0.4622 -0.1108
17901SOL    HW271696   9.139   9.185  11.180 -1.0130  1.0114  0.0581
17902SOL     OW71697   3.496   8.152   9.273  0.0510 -0.2105 -0.5713
17902SOL    HW171698   3.489   8.211   9.348  0.7319  0.9557 -1.3937
17902SOL    HW271699   3.583   8.170   9.237 -0.3217 -0.6679 -1.7268
17903SOL     OW71700  13.314   1.806   2.711  0.2446 -0.0911  0.1207
17903SOL    HW171701  13.274   1.891   2.729 -1.6080 -1.1890  1.5981
17903SOL    HW271702  13.336   1.809   2.618  1.3142  2.3770  0.3689
17904SOL     OW71703   6.902   9.228   5.526  0.2526  0.2840 -0.2377
17904SOL    HW171704   6.979   9.278   5.552  0.0679  0.1425  0.6028
17904SOL    HW271705   6.850   9.219   5.606  0.4427 -1.5234 -0.2747
17905SOL     OW71706   2.147   1.529  13.521  0.6519  0.0648  0.3695
17905SOL    HW171707   2.128   1.594  13.454 -2.5478  1.6091  2.5201
17905SOL    HW271708   2.210   1.572  13.580 -0.5914  0.8811  1.1614
17906SOL     OW71709   8.067   6.376   1.428 -0.6235  0.8931 -0.0061
17906SOL    HW171710   7.981   6.411   1.403  0.4545  2.7538 -1.2962
17906SOL    HW271711   8.100   6.335   1.348  1.3401  3.7350 -0.7911
17907SOL     OW71712   1.280  13.045   8.913 -0.5210  0.2466  0.1898
17907SOL    HW171713   1.316  12.983   8.850  0.7423  1.0688  0.0537
17907SOL    HW271714   1.215  13.095   8.864  0.2961  0.7309 -0.4065
17908SOL     OW71715   9.078  10.422   3.124 -0.0256  0.6598  0.1715
17908SOL    HW171716   9.074  10.326   3.121 -0.4643  0.6984 -1.1495
17908SOL    HW271717   9.030  10.445   3.203  1.1972 -0.2486  1.2311
17909SOL     OW71718   2.027   6.713  10.336  0.1954  0.1906 -0.2879
17909SOL    HW171719   2.077   6.697  10.416 -1.4570  0.9038  0.9403
17909SOL    HW271720   2.014   6.626  10.298 -1.9273 -0.6876  2.1109
17910SOL     OW71721   6.063   9.493   8.513  0.2343  0.3308  0.3776
17910SOL    HW171722   6.096   9.570   8.466 -0.3949 -0.6170 -1.6992
17910SOL    HW271723   5.969   9.507   8.519  0.0392 -0.5267 -0.5237
17911SOL     OW71724   3.822   1.620  10.607  0.0534 -0.2597 -0.2806
17911SOL    HW171725   3.899   1.676  10.606  0.2556 -0.5290 -1.3121
17911SOL    HW271726   3.789   1.626  10.697  2.3005 -1.5276  0.7433
17912SOL     OW71727   9.342   8.146   9.806 -0.3347  0.8545  0.0793
17912SOL    HW171728   9.423   8.095   9.798  0.3864  1.9298  0.3263
17912SOL    HW271729   9.281   8.087   9.848  0.6033  0.3149  0.7249
17913SOL     OW71730   4.160  14.136   9.074  0.1991  0.0901 -0.1325
17913SOL    HW171731   4.249  14.170   9.065  0.6035 -1.2721 -2.0445
17913SOL    HW271732   4.105  14.213   9.087  1.6237  0.9710  0.9149
17914SOL     OW71733   1.969  12.454   0.236 -0.0289  0.0527 -0.1839
17914SOL    HW171734   2.048  12.508   0.245  0.3564 -0.5067 -0.1314
17914SOL    HW271735   1.915  12.478   0.312  0.8416 -0.7696  0.7319
17915SOL     OW71736   7.268   4.075   1.095 -0.0856 -0.1027 -0.1630
17915SOL    HW171737   7.363   4.083   1.088 -0.0541 -1.4261 -2.1322
17915SOL    HW271738   7.254   4.014   1.168  0.6715 -1.1499 -0.8709
17916SOL     OW71739  11.066   8.349   6.807  0.1498  0.6176 -0.7546
17916SOL    HW171740  11.081   8.433   6.763 -0.7836  0.9106 -0.5422
17916SOL    HW271741  11.040   8.373   6.896 -1.4395  0.1889 -1.0583
17917SOL     OW71742   1.629  12.364   0.032 -0.2164  0.0603  0.1264
17917SOL    HW171743   1.652  12.450  -0.002  1.1099  0.0294  0.8717
17917SOL    HW271744   1.534  12.359   0.023 -0.3556  1.7297  0.3752
17918SOL     OW71745   1.475  12.280  11.627 -0.3388 -0.3630 -0.0382
17918SOL    HW171746   1.511  12.212  11.684  3.0579  0.9303 -0.4089
17918SOL    HW271747   1.491  12.362  11.674  1.1783  0.6221 -2.1140
17919SOL     OW71748  13.742   2.476   0.494  0.2300 -0.1480 -0.0883
17919SOL    HW171749  13.797   2.434   0.428 -0.0659 -2.0533  0.8197
17919SOL    HW271750  13.788   2.462   0.577 -1.7595 -2.1986  0.7579
17920SOL     OW71751   8.138   9.977  11.891 -0.6149  0.1240 -0.2325
17920SOL    HW171752   8.073  10.023  11.838 -0.1120 -0.7265 -1.6276
17920SOL    HW271753   8.215  10.034  11.888 -1.1082  0.8993  1.0285
17921SOL     OW71754   6.160   0.277  12.281 -0.0412 -0.1418 -0.4019
17921SOL    HW171755   6.101   0.277  12.205  0.1176 -1.4187 -0.5518
17921SOL    HW271756   6.223   0.208  12.261 -0.1255 -0.6359  0.9876
17922SOL     OW71757   4.367   5.031   4.383 -0.7215 -0.0455  0.2930
17922SOL    HW171758   4.272   5.037   4.374 -0.8087 -1.3612  0.1250
17922SOL    HW271759   4.380   4.969   4.455  0.0147 -0.0370  0.1721
17923SOL     OW71760  13.141   7.901   0.739  0.9758  0.2584 -0.0073
17923SOL    HW171761  13.091   7.924   0.817  1.1061 -1.1318  0.5045
17923SOL    HW271762  13.119   7.970   0.676 -0.4604  0.4671  0.6740
17924SOL     OW71763  12.419   3.492  11.993  0.0290  0.0282 -0.4571
17924SOL    HW171764  12.488   3.457  12.050 -0.1965  1.0848  0.4818
17924SOL    HW271765  12.339   3.484  12.044  0.0412  2.3972  0.0456
17925SOL     OW71766   6.236  12.011   7.584 -0.0646 -0.1862 -0.0928
17925SOL    HW171767   6.237  11.928   7.536  0.6399  0.0774 -0.5470
17925SOL    HW271768   6.143  12.025   7.605 -0.0507 -1.7487  1.1802
17926SOL     OW71769  10.620  10.848   4.250 -0.6568  0.0877  0.3087
17926SOL    HW171770  10.666  10.764   4.241 -2.0675 -0.7478  0.6405
17926SOL    HW271771  10.544  10.828   4.304  0.4003  2.1621  2.7616
17927SOL     OW71772   0.067   0.399  12.544  0.0606  0.1809  0.3950
17927SOL    HW171773   0.024   0.418  12.628 -2.0382 -1.0955 -0.3030
17927SOL    HW271774   0.049   0.476  12.490  1.7486  1.1786  1.1627
17928SOL     OW71775  12.705   9.726   8.778 -0.3477 -0.1571 -0.0085
17928SOL    HW171776  12.728   9.787   8.848 -0.1641 -0.6056  0.3297
17928SOL    HW271777  12.610   9.733   8.769 -0.3044  0.2991 -0.0849
17929SOL     OW71778   5.067  10.206   2.738 -0.1382  0.2992 -0.5812
17929SOL    HW171779   4.984  10.212   2.690 -1.1500 -0.1233  1.0587
17929SOL    HW271780   5.047  10.153   2.815  1.7695 -0.1670 -0.3520
17930SOL     OW71781  12.713   6.179   7.442 -0.8597 -0.2003  0.0322
17930SOL    HW171782  12.679   6.229   7.368 -1.9571  1.2476  1.4299
17930SOL    HW271783  12.726   6.090   7.408 -1.6676  0.3377 -1.7749
17931SOL     OW71784   5.115   1.998  12.271  0.0930 -0.3263  0.3076
17931SOL    HW171785   5.051   2.036  12.332  0.0941 -0.1249  0.1860
17931SOL    HW271786   5.063   1.962  12.200  0.1630  1.0278 -0.4624
17932SOL     OW71787   8.820  12.875   9.830  0.7061 -0.0479 -0.5040
17932SOL    HW171788   8.860  12.904   9.912 -0.6233 -0.4644  0.3199
17932SOL    HW271789   8.783  12.789   9.850 -1.3488  0.6832 -0.9431
17933SOL     OW71790   9.015   5.612   5.223 -0.4587 -0.2034 -0.2205
17933SOL    HW171791   8.966   5.650   5.150 -1.1533 -2.4829 -1.0511
17933SOL    HW271792   9.107   5.626   5.200 -0.6763  1.2233 -0.2985
17934SOL     OW71793  10.374  12.015   7.128 -0.0660 -0.2192 -0.1970
17934SOL    HW171794  10.409  12.087   7.182 -0.4613 -0.5080  0.4658
17934SOL    HW271795  10.447  11.989   7.073  0.3425  0.1191  0.1676
17935SOL     OW71796   0.059   6.555   2.940 -0.0969 -0.1114 -0.0503
17935SOL    HW171797   0.036   6.527   3.029  0.2252  1.5981  0.6179
17935SOL    HW271798  -0.004   6.624   2.919  0.6768  0.4518 -0.5827
17936SOL     OW71799   4.319  12.656   5.036 -0.2933  0.2957 -0.1087
17936SOL    HW171800   4.311  12.646   5.130  0.5779  0.0903 -0.0524
17936SOL    HW271801   4.253  12.597   5.000 -1.8897  1.7001  0.3804
17937SOL     OW71802   1.146  13.657   0.456 -0.1857 -0.2483 -0.5643
17937SOL    HW171803   1.210  13.701   0.400  0.3521  1.6301  1.4015
17937SOL    HW271804   1.140  13.569   0.419  2.2820  0.0132 -1.8508
17938SOL     OW71805   1.444  10.557  11.313  0.5211  0.2993  0.4895
17938SOL    HW171806   1.414  10.468  11.334 -1.6580  0.9214  0.2473
17938SOL    HW271807   1.374  10.594  11.260  1.3654  2.1927  0.6237
17939SOL     OW71808   7.902  12.821  13.530  0.6720 -0.0056 -0.0339
17939SOL    HW171809   7.818  12.866  13.540  1.1672  0.7003  1.1503
17939SOL    HW271810   7.887  12.733  13.563  0.1969 -0.1420 -0.5912
17940SOL     OW71811   0.145  10.479   6.737 -0.4290 -0.4995  0.1723
17940SOL    HW171812   0.233  10.475   6.700 -0.8876  0.7730 -1.1479
17940SOL    HW271813   0.089  10.437   6.672 -1.1415  1.0839 -0.3032
17941SOL     OW71814   1.548   7.026   0.593 -0.6807  0.0339  0.2749
17941SOL    HW171815   1.635   7.007   0.556 -0.5814  1.2771 -0.2005
17941SOL    HW271816   1.486   6.994   0.528 -0.5326  0.4952 -0.1060
17942SOL     OW71817   0.497   5.686  14.145  0.0956  0.1462 -0.3992
17942SOL    HW171818   0.552   5.718  14.216 -0.5607 -0.0488  0.2131
17942SOL    HW271819   0.437   5.625  14.188 -1.7187  1.6216 -0.7361
17943SOL     OW71820  12.218   8.082  12.302  0.3640  0.0469  0.5070
17943SOL    HW171821  12.180   8.166  12.277  1.2911  0.4023  0.2386
17943SOL    HW271822  12.154   8.017  12.275 -0.5888  0.6936  1.1532
17944SOL     OW71823   7.677  12.390   5.256  0.4399  0.3920 -0.1593
17944SOL    HW171824   7.682  12.427   5.344  0.5435 -1.1556  0.5113
17944SOL    HW271825   7.590  12.349   5.252  0.9349 -0.6775 -0.2922
17945SOL     OW71826   5.600   4.039  11.384  0.0458 -0.1376  0.0284
17945SOL    HW171827   5.619   3.945  11.378 -1.1755 -0.3373 -1.0027
17945SOL    HW271828   5.610   4.071  11.295  0.5446  0.7548  0.3909
17946SOL     OW71829   3.122  13.486   8.690  0.1727  0.2870  0.1550
17946SOL    HW171830   3.170  13.428   8.630 -1.2049 -1.9692  1.0656
17946SOL    HW271831   3.077  13.548   8.633  1.8384  0.5968 -0.8719
17947SOL     OW71832   5.604   5.647   2.810 -0.1968 -0.3748 -0.6991
17947SOL    HW171833   5.522   5.683   2.775 -0.3146  0.9911  0.8630
17947SOL    HW271834   5.669   5.716   2.792  0.1562 -0.5338 -0.0391
17948SOL     OW71835   6.143   4.682  12.034 -0.3091  0.0315  0.4380
17948SOL    HW171836   6.187   4.766  12.043  0.0069 -0.1705  0.8028
17948SOL    HW271837   6.160   4.655  11.944 -1.4089  0.9071 -0.0545
17949SOL     OW71838   4.227  12.832   6.799 -0.0029  0.6291  0.2614
17949SOL    HW171839   4.195  12.825   6.709  0.8216  1.3770 -0.1041
17949SOL    HW271840   4.311  12.878   6.791  0.3921  0.1259  1.3476
17950SOL     OW71841  13.659  12.586  14.109  0.0777  0.7938 -0.8230
17950SOL    HW171842  13.614  12.664  14.076 -0.5494  0.8126  0.0457
17950SOL    HW271843  13.588  12.526  14.133  0.5200  0.5794 -0.0165
17951SOL     OW71844   5.499   9.118   8.791  0.0148  0.4081  0.0776
17951SOL    HW171845   5.576   9.164   8.758  0.9627  0.0592  1.6944
17951SOL    HW271846   5.437   9.187   8.812 -0.1553  0.6917 -1.2728
17952SOL     OW71847  13.505  12.796   7.290  0.5801  0.3336 -0.7555
17952SOL    HW171848  13.565  12.732   7.329 -0.3678 -0.3166 -0.3205
17952SOL    HW271849  13.558  12.874   7.277  1.9386 -0.7286 -1.8632
17953SOL     OW71850   7.747   6.762   6.336 -0.3209 -0.3334 -0.6182
17953SOL    HW171851   7.688   6.699   6.295 -1.2680  0.6600 -0.8423
17953SOL    HW271852   7.689   6.830   6.370  0.4728 -0.8203  1.8811
17954SOL     OW71853  11.534   1.080   5.721 -0.0378  0.0415 -0.6656
17954SOL    HW171854  11.617   1.092   5.767 -1.4709 -0.6877  2.2914
17954SOL    HW271855  11.520   1.163   5.675  1.7765  0.5759 -0.3319
17955SOL     OW71856   9.273   2.640   3.687  0.4262 -0.5155  0.2896
17955SOL    HW171857   9.364   2.630   3.662  0.2302 -1.3131 -0.1337
17955SOL    HW271858   9.224   2.631   3.605 -0.0537 -0.5409  0.5744
17956SOL     OW71859  10.097   2.453   7.990 -0.1177 -0.4318 -0.1762
17956SOL    HW171860  10.105   2.511   7.915 -0.7221  3.9619  2.7929
17956SOL    HW271861  10.003   2.436   7.998 -0.1688 -0.0298  0.1207
17957SOL     OW71862  10.087   0.897  12.683 -0.3166  0.5999 -0.4581
17957SOL    HW171863  10.077   0.967  12.747  0.4624  0.2252  0.0946
17957SOL    HW271864  10.079   0.940  12.598 -0.8763  1.1820 -0.1208
17958SOL     OW71865   6.231   0.091   0.138 -0.0426  0.7368 -0.1604
17958SOL    HW171866   6.158   0.152   0.150  0.4844  1.3148  0.1687
17958SOL    HW271867   6.213   0.048   0.055 -2.0840 -0.9829  1.0658
17959SOL     OW71868   4.714  13.606  12.223 -0.3937  0.1829  0.0759
17959SOL    HW171869   4.636  13.555  12.202 -1.0273  0.8832  0.6929
17959SOL    HW271870   4.691  13.696  12.200 -0.7646  0.8348  2.7184
17960SOL     OW71871   0.811   6.965   9.240 -0.1541 -0.2489 -0.3258
17960SOL    HW171872   0.882   6.961   9.175 -0.2559  0.6166 -0.5109
17960SOL    HW271873   0.733   6.983   9.188 -0.4307 -0.7218 -0.0746
17961SOL     OW71874   9.167   6.166  14.151 -0.6230  0.0943  0.3943
17961SOL    HW171875   9.097   6.230  14.162  1.3231  2.0383  2.7841
17961SOL    HW271876   9.172   6.120  14.235  2.5372  1.8870  1.3451
17962SOL     OW71877  13.364   7.474  13.947 -0.0043 -0.1072 -0.1396
17962SOL    HW171878  13.280   7.505  13.914 -0.2388  0.4889  0.9609
17962SOL    HW271879  13.425   7.486  13.874 -1.2132 -2.3865 -1.6512
17963SOL     OW71880   3.032   6.725   3.518  0.0291 -0.0746  0.1110
17963SOL    HW171881   3.049   6.648   3.464  0.3837 -0.1775  0.3642
17963SOL    HW271882   2.994   6.689   3.598 -0.9831  0.1165 -0.2681
17964SOL     OW71883   2.684  10.377   8.073  0.4540 -0.2929  0.2852
17964SOL    HW171884   2.620  10.378   8.143 -1.7044 -1.1628 -1.5586
17964SOL    HW271885   2.723  10.290   8.075 -0.8676 -0.9324 -0.6132
17965SOL     OW71886   6.341   4.403   2.936 -0.3058 -0.6872  0.2192
17965SOL    HW171887   6.308   4.390   2.848  2.0888  0.2554 -0.9230
17965SOL    HW271888   6.372   4.317   2.964  0.6669 -0.6524 -0.6798
17966SOL     OW71889   8.784   3.465   7.994 -0.6096 -0.1891 -0.2213
17966SOL    HW171890   8.779   3.473   8.089  0.4405 -0.3151 -0.1456
17966SOL    HW271891   8.723   3.395   7.972 -0.2649 -0.7009  0.4416
17967SOL     OW71892   6.326   1.196  10.909  0.3621  0.5356 -0.3144
17967SOL    HW171893   6.331   1.104  10.933  1.0578  1.0083  1.5019
17967SOL    HW271894   6.240   1.206  10.867 -0.6586 -0.5096  1.4214
17968SOL     OW71895   0.808  10.188   7.429 -0.3841 -0.3752 -0.0919
17968SOL    HW171896   0.829  10.158   7.517 -1.8574  2.1091  1.2255
17968SOL    HW271897   0.861  10.267   7.417  1.0663 -1.5791 -2.1632
17969SOL     OW71898   0.355   5.719  13.099 -0.0285 -0.0958  0.3035
17969SOL    HW171899   0.411   5.717  13.176  0.0124  1.1379  0.3265
17969SOL    HW271900   0.354   5.811  13.072  1.7339 -0.7721 -2.4801
17970SOL     OW71901   0.491  10.986   1.346  0.3605  0.1737  0.1900
17970SOL    HW171902   0.531  10.938   1.274  0.1987  0.5844 -0.1780
17970SOL    HW271903   0.543  10.961   1.423  0.0701 -0.8419  0.0704
17971SOL     OW71904  13.776  11.147  10.373  0.2365 -0.0452 -0.6829
17971SOL    HW171905  13.702  11.158  10.432  0.0454 -0.5699 -0.8177
17971SOL    HW271906  13.738  11.103  10.296  0.4354  0.7847 -1.2812
17972SOL     OW71907   5.354   4.953  12.328  0.5566 -0.2586 -0.4640
17972SOL    HW171908   5.369   4.881  12.268  1.2992 -0.1271 -0.4485
17972SOL    HW271909   5.364   5.032  12.274 -1.7255 -0.1476 -0.8248
17973SOL     OW71910  11.914   0.080  12.936  0.1509 -0.1302 -0.6840
17973SOL    HW171911  11.869   0.160  12.963  0.2150 -0.2476 -0.2210
17973SOL    HW271912  11.965   0.055  13.013  1.2773  0.1886 -1.3073
17974SOL     OW71913   2.071  12.410   2.725  0.1457  0.5129  0.5681
17974SOL    HW171914   2.080  12.371   2.638 -1.6665 -0.4911  0.7814
17974SOL    HW271915   2.003  12.476   2.714  0.5483  1.0093  1.0403
17975SOL     OW71916   5.455   3.735   7.032  0.1436 -0.3839  0.2333
17975SOL    HW171917   5.501   3.657   7.062  1.1567 -0.8962 -2.3493
17975SOL    HW271918   5.522   3.803   7.028 -0.4323  0.2614  1.1248
17976SOL     OW71919  13.806   8.533   4.285 -0.3141 -0.5008  0.2750
17976SOL    HW171920  13.864   8.502   4.354  0.4924 -0.1719 -0.2366
17976SOL    HW271921  13.842   8.495   4.204  0.2954  1.1622 -0.2767
17977SOL     OW71922  11.622   6.576   8.904 -0.2852 -0.1359 -0.3322
17977SOL    HW171923  11.671   6.627   8.968 -0.1898  0.9580 -1.2426
17977SOL    HW271924  11.534   6.568   8.942 -0.2356  0.5202 -0.0727
17978SOL     OW71925   7.866  12.640   9.140 -0.2018  0.0302  0.0304
17978SOL    HW171926   7.928  12.641   9.067 -0.7269 -1.1156 -0.4542
17978SOL    HW271927   7.861  12.731   9.169  0.3275  0.4315 -1.1049
17979SOL     OW71928  11.335   0.036   5.178 -0.0721 -0.2588  0.2794
17979SOL    HW171929  11.417   0.073   5.145  0.0417 -1.3754 -0.7617
17979SOL    HW271930  11.357   0.005   5.266  0.2054  0.7908  0.5987
17980SOL     OW71931  11.664   1.085  12.604  0.1393  0.1715 -0.4642
17980SOL    HW171932  11.747   1.043  12.628  1.1077  2.9051  1.3746
17980SOL    HW271933  11.597   1.033  12.649  0.7307 -2.1174 -2.0211
17981SOL     OW71934  10.726  12.662  14.039  0.2549 -0.0968 -0.2907
17981SOL    HW171935  10.784  12.717  14.091  1.4998 -1.2830 -0.3973
17981SOL    HW271936  10.774  12.646  13.957 -0.7230 -0.1213 -0.8837
17982SOL     OW71937  10.960   5.399  11.532 -0.0487 -0.2172 -0.0144
17982SOL    HW171938  10.875   5.369  11.499  0.2541 -1.6643  0.4525
17982SOL    HW271939  10.983   5.472  11.475 -1.3418 -0.1620 -0.5021
17983SOL     OW71940   1.978   0.623   9.236  0.6217 -0.0705  0.5892
17983SOL    HW171941   1.960   0.699   9.292 -0.2372 -0.2238  0.5432
17983SOL    HW271942   1.891   0.592   9.210  0.9712 -0.9516  0.4431
17984SOL     OW71943   5.054   6.525   4.523  0.2624  0.3356 -0.4054
17984SOL    HW171944   5.147   6.505   4.513  0.4538  0.8588  0.1896
17984SOL    HW271945   5.049   6.621   4.515 -0.0624  0.4212  0.6263
17985SOL     OW71946  11.696   7.281  12.224  0.3022  0.2714  0.5346
17985SOL    HW171947  11.710   7.237  12.140 -1.9454  1.6510 -0.6510
17985SOL    HW271948  11.601   7.287  12.233  0.4490 -0.5152  3.6028
17986SOL     OW71949   0.405   9.998   0.661 -0.0162 -0.2341  0.1108
17986SOL    HW171950   0.337  10.024   0.723 -0.6386  1.4892 -1.2131
17986SOL    HW271951   0.456  10.078   0.646  1.1012 -1.0130 -0.4049
17987SOL     OW71952   2.095  11.641  12.557 -0.4163  0.3909  0.5646
17987SOL    HW171953   2.094  11.552  12.593 -0.5109  0.3962  0.5763
17987SOL    HW271954   2.003  11.660  12.538 -0.3597  0.3617  0.2548
17988SOL     OW71955  11.282   0.155   2.853  0.2920 -0.2163 -0.3219
17988SOL    HW171956  11.216   0.115   2.797  0.7095 -1.3897 -0.0104
17988SOL    HW271957  11.245   0.240   2.877 -1.1975 -0.9248  0.0065
17989SOL     OW71958  14.116   7.231   2.393  0.6557  0.4196 -0.1244
17989SOL    HW171959  14.140   7.139   2.379  0.8940  0.1887  1.5591
17989SOL    HW271960  14.021   7.230   2.404  0.4937  0.5740 -1.3774
17990SOL     OW71961  12.679   7.632   9.026 -0.4544 -0.3819  0.5658
17990SOL    HW171962  12.620   7.590   8.964 -0.0177 -0.1169 -0.0471
17990SOL    HW271963  12.763   7.589   9.012  0.7276  2.3731 -2.0165
17991SOL     OW71964  14.040   1.671   8.279 -0.3517 -0.1998  0.0911
17991SOL    HW171965  14.127   1.647   8.312 -0.3843 -0.2868  0.1140
17991SOL    HW271966  14.038   1.639   8.189 -0.5701 -0.7060  0.2732
17992SOL     OW71967   0.061   9.387  11.599  0.2436  0.8690  0.0247
17992SOL    HW171968  -0.007   9.454  11.599 -0.7272 -0.0616 -1.1634
17992SOL    HW271969   0.044   9.335  11.678  1.4315  2.3746  1.3357
17993SOL     OW71970  10.646   6.135   7.434 -0.6881 -0.1418  0.0666
17993SOL    HW171971  10.665   6.049   7.471 -1.3632  0.9330  3.3269
17993SOL    HW271972  10.562   6.159   7.474 -1.0398  1.5894 -1.5942
17994SOL     OW71973   6.718   0.290   0.152 -0.1589 -0.0635 -0.2481
17994SOL    HW171974   6.683   0.307   0.239 -0.6296  1.5967 -0.7313
17994SOL    HW271975   6.794   0.347   0.145 -1.8945  2.2554 -1.9876
17995SOL     OW71976   3.880   6.818   2.000 -0.3632 -0.2473  0.0536
17995SOL    HW171977   3.911   6.759   2.069  1.6669 -0.1441 -0.7231
17995SOL    HW271978   3.839   6.760   1.936  0.1438 -0.6371  0.0797
17996SOL     OW71979   1.028   2.473   2.153  0.1421  0.1996 -0.1995
17996SOL    HW171980   0.959   2.491   2.216 -1.3231  2.9523 -2.3275
17996SOL    HW271981   0.987   2.418   2.086  0.9335 -0.6324 -0.0201
17997SOL     OW71982   1.576   7.129   7.472 -0.3502  0.8505  0.7454
17997SOL    HW171983   1.524   7.049   7.471 -1.8328  1.7711  0.6416
17997SOL    HW271984   1.624   7.126   7.555  0.9368 -0.9103 -0.0022
17998SOL     OW71985  11.986  10.405  10.505 -0.2779 -0.1549  1.0029
17998SOL    HW171986  12.013  10.492  10.536  0.2198  0.2760 -0.5439
17998SOL    HW271987  12.057  10.378  10.447 -0.6261 -1.4355  1.1503
17999SOL     OW71988   4.559   4.190   7.996 -0.3518  0.3207  0.4855
17999SOL    HW171989   4.488   4.136   7.961 -0.2049 -0.0694  0.7862
17999SOL    HW271990   4.588   4.242   7.921 -0.4967 -0.0173  0.1936
18000SOL     OW71991   5.926  13.207   5.759  0.0829 -0.4984  0.2221
18000SOL    HW171992   5.903  13.153   5.834 -0.8400 -1.2550 -0.5765
18000SOL    HW271993   6.017  13.182   5.738  0.1331 -0.7288  0.7038
18001SOL     OW71994  11.317   8.567   4.637 -0.0563  0.3158 -0.4561
18001SOL    HW171995  11.357   8.487   4.603  0.7771  0.0445  1.0592
18001SOL    HW271996  11.247   8.536   4.695 -0.1369  0.6925 -0.3511
18002SOL     OW71997  11.094   4.266   1.125  0.1190  0.5132  0.6006
18002SOL    HW171998  11.078   4.173   1.143 -1.0200  0.8185  1.2656
18002SOL    HW271999  11.154   4.266   1.050  0.7705 -0.7551  1.0949
18003SOL     OW72000  14.011   2.354  12.723  0.1615  0.3017 -0.1184
18003SOL    HW172001  13.922   2.356  12.688  1.0437  1.0334 -2.5670
18003SOL    HW272002  14.004   2.304  12.804 -2.5703  0.8928  0.1087
18004SOL     OW72003  10.338   2.845   0.935  0.3987 -0.5513 -0.0520
18004SOL    HW172004  10.255   2.836   0.890  0.5801  0.3493 -0.5873
18004SOL    HW272005  10.321   2.908   1.005  0.9146  0.6091 -0.9402
18005SOL     OW72006   5.584   1.971  13.427  0.1637  0.1372  0.6255
18005SOL    HW172007   5.600   2.060  13.398  0.3119 -0.1949 -0.3402
18005SOL    HW272008   5.638   1.961  13.505 -0.5486  1.1674  1.2743
18006SOL     OW72009  12.213   7.557  13.608 -0.4344 -0.2367 -0.4543
18006SOL    HW172010  12.284   7.497  13.630 -0.3848 -0.2647 -0.6909
18006SOL    HW272011  12.257   7.632  13.568 -0.4709  0.0715  0.0790
18007SOL     OW72012   1.580  13.524   0.446 -0.3122 -0.1898 -0.0683
18007SOL    HW172013   1.527  13.534   0.368 -1.4384  2.0739  0.8886
18007SOL    HW272014   1.544  13.448   0.491 -2.6768  1.1366  0.4257
18008SOL     OW72015  13.474   7.793  12.015 -0.0336 -0.5019  0.3454
18008SOL    HW172016  13.508   7.881  12.031  2.1822 -1.4224  0.9933
18008SOL    HW272017  13.437   7.799  11.927 -0.1671  1.1287  0.4670
18009SOL     OW72018  10.264   8.102  11.259 -0.0296 -0.0888  0.0372
18009SOL    HW172019  10.231   8.116  11.347  1.1796 -1.5446  0.7687
18009SOL    HW272020  10.359   8.100  11.269  0.1927  0.9044 -1.5049
18010SOL     OW72021  10.963   0.653  10.661  0.1180 -0.4986 -0.6657
18010SOL    HW172022  10.946   0.562  10.686 -0.7422 -0.6590 -1.7510
18010SOL    HW272023  10.876   0.691  10.650  0.4731  0.4670 -0.2172
18011SOL     OW72024   5.743   4.970   4.316 -0.0131  0.0280  0.6223
18011SOL    HW172025   5.713   4.952   4.227  0.5829 -3.1415  0.9213
18011SOL    HW272026   5.663   4.979   4.367 -0.3821 -0.1740  0.0895
18012SOL     OW72027   2.189   5.726   7.118  0.3198  0.4504  0.1607
18012SOL    HW172028   2.228   5.799   7.072 -0.2598  1.1653  0.7679
18012SOL    HW272029   2.129   5.767   7.181 -0.7264 -0.5712 -0.1452
18013SOL     OW72030   3.643  11.699   8.110  0.0361 -0.3967 -0.1219
18013SOL    HW172031   3.636  11.660   8.022 -0.2572  0.7172 -0.6130
18013SOL    HW272032   3.736  11.693   8.131 -0.0204 -1.4915 -0.1034
18014SOL     OW72033   8.556   7.511  13.390  0.0755 -0.1638  0.8343
18014SOL    HW172034   8.562   7.596  13.434 -1.0479  0.3325  0.0740
18014SOL    HW272035   8.590   7.526  13.302 -2.7725  0.3108 -0.3064
18015SOL     OW72036   8.066  10.562   0.576 -0.2189 -0.3027 -0.6714
18015SOL    HW172037   8.004  10.602   0.637 -0.8225 -1.2341 -0.6563
18015SOL    HW272038   8.030  10.578   0.489 -1.1307 -1.8486 -0.6135
18016SOL     OW72039   9.999   3.644   1.711 -0.5219  0.0898  0.8804
18016SOL    HW172040   9.995   3.549   1.714  0.9548 -0.0199  0.5139
18016SOL    HW272041  10.066   3.663   1.645 -2.2426  1.4355 -0.5862
18017SOL     OW72042   4.413  10.013   6.643  0.1260 -0.3738  0.0994
18017SOL    HW172043   4.494  10.056   6.668  0.1528 -1.0441  1.2517
18017SOL    HW272044   4.391  10.049   6.557  1.4393  0.0838 -0.0569
18018SOL     OW72045   4.546  10.420   1.869  0.5928  0.3538 -0.1104
18018SOL    HW172046   4.528  10.513   1.853  1.4621  0.3918 -0.9674
18018SOL    HW272047   4.483  10.374   1.813  0.2803  0.4252  0.1795
18019SOL     OW72048   3.048   7.059  12.978  0.0672  0.0465  0.1700
18019SOL    HW172049   2.996   7.082  13.055  1.1057  1.4277  0.5017
18019SOL    HW272050   3.049   7.138  12.924  1.6358  0.0187  0.0954
18020SOL     OW72051   2.668   0.419   6.492  0.4132  0.0609 -0.1141
18020SOL    HW172052   2.584   0.459   6.513  1.3394  2.7164 -1.0027
18020SOL    HW272053   2.653   0.325   6.502 -2.3006  0.5006  0.8819
18021SOL     OW72054   9.467  10.485  11.853  0.1425 -0.3404 -0.6627
18021SOL    HW172055   9.407  10.454  11.786  0.6363 -0.1985 -1.1775
18021SOL    HW272056   9.444  10.577  11.866 -1.0685 -0.7773  0.5935
18022SOL     OW72057   4.468   1.941  10.869 -0.4664  0.1050  0.2096
18022SOL    HW172058   4.555   1.963  10.901 -0.0124 -0.3265 -0.7065
18022SOL    HW272059   4.482   1.909  10.780 -1.4148 -1.1501  0.4770
18023SOL     OW72060  13.631   4.819   1.648  0.3942  0.7501  0.0188
18023SOL    HW172061  13.594   4.731   1.638 -0.4253  0.9713  1.0007
18023SOL    HW272062  13.698   4.809   1.715  0.9133  0.7056 -0.5014
18024SOL     OW72063   6.668   6.931   1.574 -0.7302  0.1031  0.2739
18024SOL    HW172064   6.745   6.974   1.538 -1.3325 -1.0227 -2.6210
18024SOL    HW272065   6.702   6.853   1.618 -0.1659 -0.4293 -1.0595
18025SOL     OW72066   5.004  10.544   6.133 -0.0410 -0.4648 -0.2659
18025SOL    HW172067   4.970  10.476   6.191 -2.7230 -0.6292 -1.8480
18025SOL    HW272068   5.035  10.497   6.055  0.2573 -0.0418 -0.4054
18026SOL     OW72069   4.114  12.555   0.429  0.2097 -0.0428 -0.1735
18026SOL    HW172070   4.149  12.477   0.473  1.8215  0.4794 -0.4706
18026SOL    HW272071   4.060  12.597   0.496  2.3203  0.5476  1.2850
18027SOL     OW72072  14.014   7.380  10.500  0.1433  0.0960 -0.3638
18027SOL    HW172073  14.044   7.448  10.439  1.1776  0.0018  0.0107
18027SOL    HW272074  13.976   7.429  10.574  0.1423  0.2461 -0.4634
18028SOL     OW72075  13.885   0.161   4.561  0.1925  0.7310  0.3921
18028SOL    HW172076  13.933   0.235   4.522  2.0548 -1.0752 -0.9531
18028SOL    HW272077  13.897   0.090   4.498 -1.4807 -0.7603  1.6885
18029SOL     OW72078   2.084  12.555   1.968 -0.2441 -0.3431 -0.5689
18029SOL    HW172079   2.110  12.583   1.880 -0.5193  2.1376  0.0558
18029SOL    HW272080   2.012  12.614   1.992 -1.1504 -1.8988  0.7884
18030SOL     OW72081   7.879   4.093   9.283 -0.0211  0.0568 -0.6285
18030SOL    HW172082   7.919   4.079   9.197 -1.2012 -1.0106 -1.0467
18030SOL    HW272083   7.952   4.114   9.341  1.0866 -1.3048 -1.4663
18031SOL     OW72084   2.204   7.446  14.008 -0.1869  0.1362 -0.3837
18031SOL    HW172085   2.268   7.375  14.013  0.5490  0.8437  0.5842
18031SOL    HW272086   2.125   7.404  13.973  0.5266 -0.9349 -0.7761
18032SOL     OW72087  13.344   3.932   4.302  0.1205  0.1111 -0.3042
18032SOL    HW172088  13.376   4.005   4.249  2.3505  0.0796  0.8732
18032SOL    HW272089  13.316   3.973   4.384  1.2178 -0.3283  0.2953
18033SOL     OW72090  12.607  10.652  10.445  0.1724  0.4036  0.0979
18033SOL    HW172091  12.686  10.598  10.442  0.4469  0.6933  1.5392
18033SOL    HW272092  12.588  10.662  10.538 -2.6409 -1.1859 -0.1724
18034SOL     OW72093   2.451   1.262  10.557  0.1016  0.4182  0.1513
18034SOL    HW172094   2.377   1.319  10.537  1.1027  1.3259 -1.1972
18034SOL    HW272095   2.528   1.311  10.526  1.1177 -1.1152  0.1380
18035SOL     OW72096   7.677   8.599   2.378 -0.0581 -0.4447  0.4707
18035SOL    HW172097   7.744   8.651   2.423  0.3199  0.3596 -0.9382
18035SOL    HW272098   7.714   8.511   2.374  1.0242  0.0125 -0.3844
18036SOL     OW72099   4.626   7.946   2.590 -0.3940 -0.0536 -0.4135
18036SOL    HW172100   4.639   7.891   2.513 -1.8600 -2.7677  1.1124
18036SOL    HW272101   4.532   7.965   2.591 -0.5269 -0.6490  1.0196
18037SOL     OW72102  12.073  11.994   4.162  0.7967  0.4619  0.4763
18037SOL    HW172103  11.981  12.017   4.176  0.6891  0.8576 -0.7374
18037SOL    HW272104  12.072  11.931   4.090  1.4544  0.3286  0.5767
18038SOL     OW72105  13.147  12.338   6.648  0.2187  0.4411  0.1188
18038SOL    HW172106  13.195  12.341   6.731 -0.7110 -0.5440  0.7055
18038SOL    HW272107  13.055  12.333   6.672 -0.0353 -0.7109 -0.9357
18039SOL     OW72108   1.137   1.309   9.163  0.4382  0.2723  0.0216
18039SOL    HW172109   1.177   1.309   9.076 -0.1526 -2.7841 -0.3669
18039SOL    HW272110   1.043   1.304   9.146  0.3187 -0.3534  0.8155
18040SOL     OW72111  10.808  11.585  13.180  0.4246  0.6027  0.1588
18040SOL    HW172112  10.870  11.561  13.111  0.3644 -1.2061  0.6827
18040SOL    HW272113  10.728  11.610  13.132  1.1192  1.6965 -0.4702
18041SOL     OW72114  11.767   4.235   6.639  0.4116 -0.2323  0.2916
18041SOL    HW172115  11.679   4.210   6.613  0.6656 -1.0493  0.1751
18041SOL    HW272116  11.806   4.272   6.559  0.6506 -1.2355 -0.0811
18042SOL     OW72117   6.611   8.584  11.388  0.6510 -0.2841  0.2186
18042SOL    HW172118   6.700   8.605  11.416  0.8679  1.3057 -1.4943
18042SOL    HW272119   6.558   8.591  11.468  1.8038  0.3391  0.9515
18043SOL     OW72120  14.067   5.323   6.108  0.0604  0.1893 -0.1587
18043SOL    HW172121  14.061   5.380   6.185 -0.9023 -0.1134 -0.0062
18043SOL    HW272122  13.977   5.302   6.086  0.3511 -0.1887 -1.0370
18044SOL     OW72123   5.219   2.510   3.363 -0.3399 -0.9342  0.2616
18044SOL    HW172124   5.262   2.590   3.393 -0.3535 -0.4751 -0.8822
18044SOL    HW272125   5.158   2.487   3.434 -0.0841 -0.1350  0.7525
18045SOL     OW72126   9.134   5.697   1.936  0.3408  0.3360  0.0839
18045SOL    HW172127   9.197   5.735   1.875 -0.0345 -0.1017 -0.5915
18045SOL    HW272128   9.077   5.643   1.881  0.7268 -1.0230  0.9778
18046SOL     OW72129   6.747   5.674   4.361  0.4383  0.1169 -0.0944
18046SOL    HW172130   6.736   5.648   4.453  2.0493 -1.1863 -0.2163
18046SOL    HW272131   6.805   5.750   4.365  0.9167 -0.2428 -0.0338
18047SOL     OW72132   5.513   0.775   7.182  0.0163 -0.1062 -0.1810
18047SOL    HW172133   5.594   0.750   7.227  0.6571  2.7714  0.4217
18047SOL    HW272134   5.524   0.741   7.093  0.4257 -2.5246  0.7216
18048SOL     OW72135  12.623  13.729   0.795  0.4471 -0.4246 -0.2073
18048SOL    HW172136  12.673  13.764   0.870  3.5159  1.8788 -3.0333
18048SOL    HW272137  12.648  13.637   0.791  1.9475 -0.0889  0.4307
18049SOL     OW72138   3.772  13.315  12.439  0.4103 -0.0010  0.0707
18049SOL    HW172139   3.737  13.390  12.391  1.5358 -0.3386 -1.3701
18049SOL    HW272140   3.784  13.347  12.529 -0.7296  0.9939 -0.1118
18050SOL     OW72141   8.510   3.680   6.676 -0.2600  0.3572 -0.2329
18050SOL    HW172142   8.542   3.682   6.585 -1.9069  0.7072 -0.8362
18050SOL    HW272143   8.518   3.589   6.702 -3.0472 -0.5157 -2.0169
18051SOL     OW72144   8.715   8.081   8.260 -0.1069 -1.0527 -0.0336
18051SOL    HW172145   8.726   8.005   8.204  1.1559 -1.5383  0.8265
18051SOL    HW272146   8.706   8.045   8.348  1.5722 -0.2133  0.5362
18052SOL     OW72147   6.106   7.023   1.031  0.0920 -0.2128 -0.4736
18052SOL    HW172148   6.136   7.041   0.942  2.1681 -2.0637 -0.2285
18052SOL    HW272149   6.159   7.080   1.086  0.8694 -1.1197 -0.2609
18053SOL     OW72150   9.803   5.761  13.892 -0.1235  0.2112 -0.1909
18053SOL    HW172151   9.847   5.681  13.863 -1.6943  0.0358 -2.3323
18053SOL    HW272152   9.710   5.738  13.893 -0.5441  1.8083 -0.1589
18054SOL     OW72153   2.916  10.515   5.034  0.1212 -0.2671  0.6762
18054SOL    HW172154   2.947  10.479   4.951  0.4818  0.0493  0.6684
18054SOL    HW272155   2.923  10.442   5.096 -2.5203 -1.2629 -0.0862
18055SOL     OW72156   6.198   6.605   4.248 -0.1092 -0.0933  0.2852
18055SOL    HW172157   6.180   6.650   4.330  0.0895 -0.1723  0.3728
18055SOL    HW272158   6.228   6.517   4.274  3.4130  0.9674  0.3171
18056SOL     OW72159   2.486   6.523   0.364  0.2456 -0.2286  0.0318
18056SOL    HW172160   2.422   6.567   0.420 -0.1593 -0.0229 -0.5795
18056SOL    HW272161   2.511   6.444   0.412  0.1354  0.0993  0.6341
18057SOL     OW72162   5.455   4.611   7.705  0.3033  0.0296 -0.4863
18057SOL    HW172163   5.385   4.665   7.668  0.9574  0.0701 -1.7308
18057SOL    HW272164   5.488   4.662   7.778  0.5294  1.0749 -1.2907
18058SOL     OW72165  14.076   9.803   5.696  0.5234  0.3086  0.0098
18058SOL    HW172166  14.077   9.711   5.724  2.0053  0.0015 -0.8995
18058SOL    HW272167  14.011   9.806   5.626 -0.2149  0.1831  0.6707
18059SOL     OW72168  10.108  12.652  11.082 -0.2526 -0.0781 -0.4468
18059SOL    HW172169  10.191  12.698  11.080 -1.9997  3.3751 -1.2901
18059SOL    HW272170  10.105  12.603  11.000  2.0236 -2.7027  0.8678
18060SOL     OW72171   3.391   2.388  10.391  0.4616 -0.1645 -0.0282
18060SOL    HW172172   3.308   2.351  10.421  0.9578  0.1354  1.8446
18060SOL    HW272173   3.426   2.323  10.331 -1.2496 -0.1615 -1.1009
18061SOL     OW72174  10.521   9.428   5.637 -0.4154  0.1752 -0.5434
18061SOL    HW172175  10.477   9.405   5.719  1.8923 -1.3702  0.3940
18061SOL    HW272176  10.534   9.523   5.643  0.1930  0.0257  1.1967
18062SOL     OW72177   8.642   8.640   4.260 -0.1994  0.4510 -0.3224
18062SOL    HW172178   8.609   8.622   4.172 -0.3427  2.6171 -0.7844
18062SOL    HW272179   8.726   8.595   4.264 -1.5909 -2.3711 -0.3449
18063SOL     OW72180  12.102  14.086   7.705 -0.2799 -0.0144  0.1120
18063SOL    HW172181  12.124  14.138   7.781  1.1288 -0.4648  0.0276
18063SOL    HW272182  12.158  14.119   7.635 -1.2333  0.0921 -0.6383
18064SOL     OW72183   9.473   9.279  11.724 -0.7449 -0.7163  0.5160
18064SOL    HW172184   9.456   9.324  11.641  0.3283  0.7634  1.0607
18064SOL    HW272185   9.421   9.327  11.788 -0.6607 -1.1299  0.8984
18065SOL     OW72186  12.261  11.619   2.059 -0.2076  0.8729 -0.0577
18065SOL    HW172187  12.255  11.559   1.985 -0.2475  0.3010  0.3986
18065SOL    HW272188  12.293  11.564   2.131 -0.6289  1.3118  0.4709
18066SOL     OW72189   4.174   1.735   1.443  0.2552  0.2090  0.1860
18066SOL    HW172190   4.186   1.679   1.367 -1.3624  0.9438 -0.6663
18066SOL    HW272191   4.213   1.819   1.417 -1.4695  0.8750 -0.4145
18067SOL     OW72192   0.613   9.825   2.254  0.1115  0.5772 -0.5013
18067SOL    HW172193   0.617   9.898   2.316 -0.8336 -0.2302  0.5585
18067SOL    HW272194   0.679   9.846   2.188  1.7959  1.0281  1.2498
18068SOL     OW72195  14.043   4.120  12.449  0.2095 -0.2407 -0.1004
18068SOL    HW172196  13.991   4.161  12.518  0.2959 -0.6102  0.1872
18068SOL    HW272197  14.003   4.150  12.368  0.1964  0.3144  0.1084
18069SOL     OW72198   0.456  13.737   3.177  0.7998  0.4404 -0.2550
18069SOL    HW172199   0.484  13.677   3.246 -1.8066  2.0440  2.4624
18069SOL    HW272200   0.504  13.818   3.195 -0.0627  0.9379 -0.1129
18070SOL     OW72201   7.807  11.482   3.233 -0.5094 -0.1818  0.3811
18070SOL    HW172202   7.868  11.551   3.260  1.6665 -1.1887 -1.6024
18070SOL    HW272203   7.721  11.515   3.260  0.3850  3.3149 -0.4594
18071SOL     OW72204  13.766   0.223  10.793 -0.2648 -0.2462  0.5438
18071SOL    HW172205  13.732   0.201  10.706  0.4146  0.3571  0.1106
18071SOL    HW272206  13.762   0.141  10.842 -1.9523 -0.2833  0.4001
18072SOL     OW72207  12.893   5.061   9.729  0.4320 -0.1315  0.0870
18072SOL    HW172208  12.943   5.129   9.773 -0.4469  0.2411  0.5318
18072SOL    HW272209  12.865   5.002   9.800 -0.4914  0.1475 -0.0358
18073SOL     OW72210   3.450  12.830   4.619 -0.1317  0.1462  0.0355
18073SOL    HW172211   3.512  12.825   4.691 -0.4741  0.0944  0.3332
18073SOL    HW272212   3.401  12.912   4.635 -0.5692 -0.1361  0.1670
18074SOL     OW72213  11.102   0.179   8.993  0.6892  0.9481  0.6690
18074SOL    HW172214  11.048   0.191   9.072 -1.7772  0.7298 -0.8775
18074SOL    HW272215  11.044   0.136   8.931  2.5816  1.0549 -1.2832
18075SOL     OW72216   4.975   3.399  12.350  0.6060 -0.0261 -0.0844
18075SOL    HW172217   4.964   3.493  12.368 -0.5766 -0.2199  0.3492
18075SOL    HW272218   5.006   3.395  12.259  3.4635  0.8616  0.7641
18076SOL     OW72219  14.134   1.236   8.094  0.5208  0.3094  0.8374
18076SOL    HW172220  14.149   1.243   8.188  1.7859 -0.7794  0.7481
18076SOL    HW272221  14.220   1.217   8.057 -0.1115 -0.1955 -0.4478
18077SOL     OW72222  12.857   7.035   1.116  0.5430 -0.1701  0.2577
18077SOL    HW172223  12.849   7.073   1.204 -0.8561  0.0162  0.0810
18077SOL    HW272224  12.858   7.110   1.057  0.5338 -0.3205  0.0664
18078SOL     OW72225   7.731  14.075  13.986  0.2642 -0.1567  0.3292
18078SOL    HW172226   7.782  14.133  13.928  1.1021 -0.2316  0.9732
18078SOL    HW272227   7.797  14.031  14.039 -0.2156 -2.8107 -1.0914
18079SOL     OW72228   7.671   3.647   9.636 -0.3394  0.2992  0.0950
18079SOL    HW172229   7.752   3.634   9.588  0.0174 -0.9546  0.9970
18079SOL    HW272230   7.609   3.681   9.571  0.3683 -0.5386 -1.0460
18080SOL     OW72231   5.861   4.737   8.536  0.3836  0.4704  0.0516
18080SOL    HW172232   5.927   4.677   8.571  2.1304  1.9092 -0.6609
18080SOL    HW272233   5.884   4.747   8.444 -1.6185  0.0326 -0.5569
18081SOL     OW72234   1.202   7.343   0.294 -0.1447 -0.5439 -0.1484
18081SOL    HW172235   1.232   7.261   0.334 -1.3155 -1.0112 -0.2024
18081SOL    HW272236   1.205   7.326   0.200  1.0652  0.0165 -0.2440
18082SOL     OW72237   0.202  12.007   0.466  0.0628  0.2062  0.2127
18082SOL    HW172238   0.215  11.943   0.396  1.0782 -0.0657  0.6141
18082SOL    HW272239   0.269  12.074   0.450  0.3640  0.0970  0.9499
18083SOL     OW72240  10.559   3.321   9.164 -0.7715 -0.0872 -0.5798
18083SOL    HW172241  10.473   3.284   9.182 -0.9490  1.0839  1.3522
18083SOL    HW272242  10.549   3.365   9.080 -1.6780 -1.0327 -0.9886
18084SOL     OW72243   8.113  10.347   0.978  0.7829  0.1327  0.3612
18084SOL    HW172244   8.186  10.376   0.924 -0.2417  2.5555  0.1664
18084SOL    HW272245   8.039  10.343   0.918  0.0199  1.1039  1.2018
18085SOL     OW72246   2.718   1.253   1.284 -0.3835 -0.2992  0.0730
18085SOL    HW172247   2.755   1.253   1.373 -0.3059  0.4510  0.0439
18085SOL    HW272248   2.697   1.161   1.267  1.2620 -0.7274  0.1879
18086SOL     OW72249   0.631   5.521   1.033 -0.3216 -0.2231 -0.2105
18086SOL    HW172250   0.705   5.471   1.067 -0.1004 -0.1292 -0.5532
18086SOL    HW272251   0.668   5.605   1.006 -0.5045 -0.2760 -0.6365
18087SOL     OW72252  13.849   3.633   3.428  0.3963 -0.7196  0.0247
18087SOL    HW172253  13.874   3.597   3.343 -0.0528  0.3119 -0.5570
18087SOL    HW272254  13.757   3.609   3.438 -0.4396  1.6746 -1.1786
18088SOL     OW72255   9.488   8.703   4.582  0.1545  0.3761  0.3113
18088SOL    HW172256   9.574   8.693   4.624  0.3190  2.7116  0.6289
18088SOL    HW272257   9.461   8.792   4.604 -1.8865  0.0460 -0.6850
18089SOL     OW72258   1.702  13.804  11.858  0.3808  0.3352 -0.2991
18089SOL    HW172259   1.789  13.771  11.837  0.4063 -0.2155  0.6233
18089SOL    HW272260   1.711  13.899  11.859  1.0688  0.2708  0.1777
18090SOL     OW72261   3.464  13.340   3.670  0.2788 -0.2790 -0.1588
18090SOL    HW172262   3.423  13.281   3.734  0.6663  0.2034  0.5433
18090SOL    HW272263   3.492  13.416   3.721  3.4169 -1.2073 -0.3051
18091SOL     OW72264  13.751  12.611   5.654  0.2092  0.3990 -0.5084
18091SOL    HW172265  13.783  12.539   5.600 -0.0470 -0.6984  0.7600
18091SOL    HW272266  13.709  12.569   5.729 -0.4564  1.8615 -0.0083
18092SOL     OW72267   4.876   0.659  12.088  0.6661  0.1799  0.0473
18092SOL    HW172268   4.840   0.585  12.041 -2.0992  1.9252 -0.8237
18092SOL    HW272269   4.810   0.682  12.153  1.6820  1.5462  0.6698
18093SOL     OW72270  11.201  12.980   0.659 -0.1247 -0.1432 -0.2565
18093SOL    HW172271  11.190  12.900   0.606 -1.4820  0.0501 -0.3028
18093SOL    HW272272  11.241  13.043   0.599  0.9053 -0.7588 -0.2373
18094SOL     OW72273   3.452  12.766  13.899 -0.2474  0.5024 -0.4872
18094SOL    HW172274   3.368  12.782  13.942 -0.5183 -0.5673 -0.5946
18094SOL    HW272275   3.517  12.806  13.957 -0.9047  2.4737 -1.0387
18095SOL     OW72276   0.342   0.451   9.196  0.3230  0.6358 -0.2596
18095SOL    HW172277   0.427   0.493   9.185  0.3981  0.6308  0.2705
18095SOL    HW272278   0.343   0.418   9.286  0.8365 -1.7942 -1.0910
18096SOL     OW72279   7.561  13.860   0.163 -0.8031 -1.1082 -0.0836
18096SOL    HW172280   7.584  13.876   0.254  0.8224 -0.7388 -0.5255
18096SOL    HW272281   7.628  13.799   0.132 -1.5981 -1.5767 -0.9100
18097SOL     OW72282  11.381  10.146  10.390 -0.2807 -0.6304 -0.5944
18097SOL    HW172283  11.465  10.104  10.405 -0.4518 -0.6443  0.3905
18097SOL    HW272284  11.403  10.236  10.367 -0.0170 -0.0043  1.8106
18098SOL     OW72285  11.740   6.479   8.628  0.1247  0.5400  0.1028
18098SOL    HW172286  11.778   6.465   8.541  0.5875 -1.6338  0.5944
18098SOL    HW272287  11.646   6.479   8.612  0.1665 -0.8692 -0.3173
18099SOL     OW72288   5.191  10.144   6.797  0.5097  0.0029 -0.3324
18099SOL    HW172289   5.097  10.160   6.794  0.3012 -0.7593  1.1381
18099SOL    HW272290   5.203  10.063   6.748  0.2389 -0.4623  0.3522
18100SOL     OW72291  13.870   0.908   6.905 -0.2217  0.3559 -0.3772
18100SOL    HW172292  13.786   0.929   6.865 -1.1561 -1.4241  0.5177
18100SOL    HW272293  13.859   0.820   6.940  2.0129  0.0861 -0.1695
18101SOL     OW72294  11.239   7.803   7.361 -0.1973  0.0207  0.0825
18101SOL    HW172295  11.174   7.734   7.360  0.2544 -0.4177 -1.1799
18101SOL    HW272296  11.189   7.884   7.348 -0.4817 -0.3300 -1.1089
18102SOL     OW72297   7.797  10.237   9.028  0.1270 -0.0696  0.4890
18102SOL    HW172298   7.831  10.254   8.941  0.6848  0.4152  0.7908
18102SOL    HW272299   7.805  10.321   9.074 -0.0548 -0.3446  1.0380
18103SOL     OW72300   4.355   4.509   5.328  0.2811  0.1016 -0.1135
18103SOL    HW172301   4.397   4.586   5.291 -1.3599  2.3870  2.4266
18103SOL    HW272302   4.297   4.478   5.259 -0.4104  2.3232 -0.6181
18104SOL     OW72303   9.241   6.142  12.697  0.7344  0.3093 -0.3386
18104SOL    HW172304   9.302   6.200  12.652 -0.0486  1.9358  0.6289
18104SOL    HW272305   9.262   6.152  12.790  1.1481 -1.6367 -0.1776
18105SOL     OW72306  11.492   4.991   2.168  0.8011  0.4991  0.0805
18105SOL    HW172307  11.439   5.002   2.247  0.3950 -1.6287  0.1562
18105SOL    HW272308  11.579   5.021   2.193  0.2447  1.6449  0.7338
18106SOL     OW72309  12.575   0.017   7.735 -0.7133 -0.1469  0.3669
18106SOL    HW172310  12.596   0.036   7.826  1.1791  2.3347 -0.4967
18106SOL    HW272311  12.502   0.075   7.714 -0.9405 -0.4866  0.1979
18107SOL     OW72312   3.558   6.351   4.276 -0.5481  0.6606 -0.4003
18107SOL    HW172313   3.507   6.275   4.248  0.7318 -1.1823  1.8534
18107SOL    HW272314   3.625   6.361   4.210 -1.8866  1.1251 -1.7458
18108SOL     OW72315   8.404   8.846   4.665  0.1541  0.1303 -0.0078
18108SOL    HW172316   8.392   8.934   4.629 -0.4182  0.0214 -0.0937
18108SOL    HW272317   8.436   8.861   4.754  0.8423  0.4135 -0.2992
18109SOL     OW72318   3.094   1.353   2.229 -0.2607  0.0149  0.1436
18109SOL    HW172319   3.056   1.431   2.189  0.0126  0.7856  1.3196
18109SOL    HW272320   3.065   1.281   2.173 -2.2841  0.7192  0.1746
18110SOL     OW72321   5.409  12.894   1.919  0.2768  0.0028  0.1257
18110SOL    HW172322   5.457  12.903   2.001  0.5200  0.7315 -0.0873
18110SOL    HW272323   5.477  12.902   1.851  0.1012 -0.7482 -0.1516
18111SOL     OW72324   0.537   1.157  12.562  0.8745 -0.4203  0.3099
18111SOL    HW172325   0.503   1.133  12.648  1.5233  0.8990  0.9581
18111SOL    HW272326   0.632   1.151  12.572  0.9495 -0.3553 -0.3538
18112SOL     OW72327  12.708   3.968   2.447  0.0263  0.2955 -0.3895
18112SOL    HW172328  12.748   3.881   2.448  1.8833  1.0716  1.9731
18112SOL    HW272329  12.774   4.025   2.487 -1.8501  2.4568 -0.1867
18113SOL     OW72330   0.240   9.235   0.305  0.3550  0.0141  0.2147
18113SOL    HW172331   0.293   9.305   0.344  0.3183 -0.6718  1.5508
18113SOL    HW272332   0.153   9.274   0.296  0.1496 -0.0517  1.6417
18114SOL     OW72333   0.339  13.685  12.629  0.9105 -0.2012  0.2803
18114SOL    HW172334   0.364  13.776  12.613  1.7847 -0.0527  2.1667
18114SOL    HW272335   0.245  13.682  12.611  0.5808  1.4367  1.4711
18115SOL     OW72336  12.725  10.773  10.752  0.4203  0.5052 -0.2010
18115SOL    HW172337  12.811  10.746  10.721 -1.1374 -1.6579 -3.1044
18115SOL    HW272338  12.724  10.868  10.741  2.9848  0.8532  1.6976
18116SOL     OW72339   6.778  11.797   0.690  0.3841  0.1010  0.1693
18116SOL    HW172340   6.832  11.742   0.634 -3.5214 -0.2551 -3.7861
18116SOL    HW272341   6.715  11.736   0.730 -0.4011  1.0187  0.3770
18117SOL     OW72342   9.750   0.650  11.445 -0.4499 -0.7663 -0.2670
18117SOL    HW172343   9.769   0.653  11.538 -2.0585 -1.6429  0.1215
18117SOL    HW272344   9.709   0.735  11.426  0.7513 -0.1990 -0.4101
18118SOL     OW72345   7.046   1.409   9.846 -0.2526  0.2006 -0.5313
18118SOL    HW172346   7.042   1.377   9.936 -1.7251  1.3298 -0.1523
18118SOL    HW272347   7.112   1.479   9.848  1.1308 -1.0549 -0.8007
18119SOL     OW72348   8.892  10.160  13.782 -0.0061 -0.1232 -0.0058
18119SOL    HW172349   8.811  10.116  13.758 -0.4916  1.7611 -2.0434
18119SOL    HW272350   8.884  10.176  13.876 -0.8432 -2.1444  0.3222
18120SOL     OW72351  12.121  11.829   8.724 -0.3126 -0.4527 -0.0967
18120SOL    HW172352  12.124  11.924   8.734 -0.2465 -0.5992  1.5724
18120SOL    HW272353  12.090  11.797   8.809 -0.1656 -1.9331 -0.5725
18121SOL     OW72354   4.100   7.926   2.994  0.4121 -0.3742  0.1120
18121SOL    HW172355   4.106   7.980   2.915  1.3439  1.5845  1.4291
18121SOL    HW272356   4.019   7.876   2.983 -0.3644  1.0916 -1.3259
18122SOL     OW72357   0.362   1.006  13.041  0.1515 -0.6191  0.2498
18122SOL    HW172358   0.374   0.921  12.998  0.3849 -0.7216  0.5118
18122SOL    HW272359   0.312   0.985  13.120  0.9193 -0.6352  0.7403
18123SOL     OW72360  14.004  12.283   4.724 -0.3423 -0.5311  0.1204
18123SOL    HW172361  14.003  12.376   4.746  2.2615 -0.2090 -0.7648
18123SOL    HW272362  13.950  12.276   4.645 -0.7255  0.1640  0.3159
18124SOL     OW72363   9.746   2.494  12.042 -0.3190  0.2690 -0.1975
18124SOL    HW172364   9.678   2.547  12.084 -0.8704  0.2821 -1.0876
18124SOL    HW272365   9.700   2.445  11.974  0.3672 -0.5890 -0.0611
18125SOL     OW72366  11.104  12.983  13.474 -0.5065 -0.5659  0.4413
18125SOL    HW172367  11.162  13.029  13.536 -1.8211 -0.4617  1.6419
18125SOL    HW272368  11.099  12.894  13.509 -0.8222 -0.6590  0.1556
18126SOL     OW72369   1.739   2.534   5.171 -0.0066  0.0692 -0.2726
18126SOL    HW172370   1.755   2.613   5.118 -1.1121 -0.2274 -1.0812
18126SOL    HW272371   1.658   2.553   5.218  0.8644  0.2476  1.2014
18127SOL     OW72372  12.035   6.566   5.869  0.0843  0.2045 -0.5812
18127SOL    HW172373  11.958   6.602   5.912 -0.0470  0.2171 -0.8210
18127SOL    HW272374  12.097   6.550   5.940 -1.4086 -3.1715  0.1690
18128SOL     OW72375  11.085   0.222   0.085  0.0903 -0.1034  0.7996
18128SOL    HW172376  11.130   0.291   0.134 -1.1839  2.2506 -1.1326
18128SOL    HW272377  10.995   0.225   0.117 -0.2491  0.0123 -0.1262
18129SOL     OW72378   3.579   8.984   6.926  0.0503  0.3167  0.0893
18129SOL    HW172379   3.618   8.918   6.869  1.6626  0.2228  1.2544
18129SOL    HW272380   3.486   8.961   6.929  0.5532 -1.9115  0.4728
18130SOL     OW72381   1.978  12.160  12.424 -0.7868 -0.3937  0.0206
18130SOL    HW172382   1.909  12.150  12.359  1.0382  0.8231 -2.2661
18130SOL    HW272383   1.933  12.158  12.508 -3.6603  0.9348 -1.3563
18131SOL     OW72384   9.513   2.242   2.291 -0.4002 -0.7118 -0.0459
18131SOL    HW172385   9.557   2.273   2.212 -0.6322 -0.2290  0.0119
18131SOL    HW272386   9.420   2.260   2.276 -0.3732  0.0454  0.6252
18132SOL     OW72387   0.576   6.639   6.166 -0.0689 -0.0022  0.0522
18132SOL    HW172388   0.625   6.593   6.235 -0.4725  0.0390  0.3710
18132SOL    HW272389   0.497   6.587   6.154  0.3398 -0.4276 -0.9204
18133SOL     OW72390   0.033   6.532   1.963 -0.0941  0.1485  0.4377
18133SOL    HW172391   0.059   6.479   2.039 -2.5185 -1.1786  0.4349
18133SOL    HW272392  -0.043   6.581   1.993 -1.3797 -0.7508 -1.2389
18134SOL     OW72393   0.961   9.777   9.542  0.2224  0.0868 -0.1100
18134SOL    HW172394   0.875   9.818   9.552  0.8962  1.2717  1.0846
18134SOL    HW272395   0.956   9.697   9.595 -0.3296 -0.2046 -0.5761
18135SOL     OW72396   7.042   5.914   9.455  0.0438 -0.0045 -0.3790
18135SOL    HW172397   7.032   5.946   9.365  1.6175  1.0114 -0.2427
18135SOL    HW272398   6.953   5.911   9.490 -0.4090  1.6443 -1.2998
18136SOL     OW72399   9.894   4.272   7.984 -0.4383  0.1205  0.5708
18136SOL    HW172400   9.941   4.315   8.056 -0.2011  0.8838 -0.0210
18136SOL    HW272401   9.937   4.187   7.975 -0.1213  0.2336  0.9804
18137SOL     OW72402   4.243  13.238   8.411 -0.3036  0.5051  0.2402
18137SOL    HW172403   4.240  13.212   8.503  0.0590  0.7281  0.3182
18137SOL    HW272404   4.235  13.333   8.413  1.3539  0.6808  0.1606
18138SOL     OW72405  13.453   7.502   9.076  0.0689  0.3218  0.0813
18138SOL    HW172406  13.492   7.584   9.047 -0.6109 -0.1645 -2.5330
18138SOL    HW272407  13.511   7.434   9.040  0.1770 -0.3624  1.4944
18139SOL     OW72408   3.866  13.609   1.524 -0.2008 -0.0095  0.5451
18139SOL    HW172409   3.814  13.584   1.447 -1.1801  1.0540  0.8360
18139SOL    HW272410   3.937  13.545   1.526  1.4672  1.4653 -2.8365
18140SOL     OW72411   9.465  10.557   5.412 -0.0735  0.4931  0.1291
18140SOL    HW172412   9.449  10.510   5.493 -1.0513  1.5773  0.5748
18140SOL    HW272413   9.553  10.528   5.385 -0.1965 -0.7278  0.9540
18141SOL     OW72414  14.069   0.406   2.763  1.0037 -0.3962  0.3003
18141SOL    HW172415  14.059   0.317   2.731 -0.9709  0.5067 -1.8584
18141SOL    HW272416  14.155   0.434   2.731  0.9971 -1.0328 -0.2874
18142SOL     OW72417   9.865  12.645   8.220  0.0137  0.0507  0.0476
18142SOL    HW172418   9.860  12.620   8.128  2.0155  1.1292 -0.4256
18142SOL    HW272419   9.936  12.710   8.223  0.8260 -0.8371  2.5338
18143SOL     OW72420   2.377   6.135  10.248 -0.3408 -0.1498  0.2806
18143SOL    HW172421   2.294   6.090  10.232  0.6816 -1.6383 -1.2587
18143SOL    HW272422   2.436   6.066  10.279  0.4319  0.7977  0.9692
18144SOL     OW72423  10.958   5.573   5.056  0.5888  0.1883  0.1303
18144SOL    HW172424  10.931   5.539   4.970  0.8963  0.4299 -0.0644
18144SOL    HW272425  11.020   5.643   5.035 -1.0517  1.8385  0.4473
18145SOL     OW72426   7.971   8.658   6.939  0.2898  0.1078  0.0925
18145SOL    HW172427   7.894   8.681   6.887  1.4809  0.1863 -1.7350
18145SOL    HW272428   8.019   8.740   6.948  0.0391  0.1317  1.5274
18146SOL     OW72429   7.874  12.278  10.673 -0.5634  0.5282 -0.3373
18146SOL    HW172430   7.821  12.267  10.752 -0.2963  1.2484 -0.0521
18146SOL    HW272431   7.912  12.366  10.680  2.2644 -0.6270  0.4432
18147SOL     OW72432   6.157   3.677   7.573 -0.1432  0.3361 -0.2339
18147SOL    HW172433   6.199   3.691   7.658  1.1365 -0.2331 -0.7362
18147SOL    HW272434   6.063   3.685   7.590  0.0467 -0.4587  1.3821
18148SOL     OW72435   7.404   2.187   6.417 -0.2132  0.1632 -0.2368
18148SOL    HW172436   7.499   2.176   6.411 -0.1302  0.4907  0.4125
18148SOL    HW272437   7.391   2.281   6.428 -0.5681  0.0565  0.3250
18149SOL     OW72438   7.092   8.994  14.000  0.0716  0.1974 -0.3386
18149SOL    HW172439   7.182   8.984  13.968  1.4237  3.6836  1.8962
18149SOL    HW272440   7.087   8.935  14.075  1.6708  2.2531  1.4869
18150SOL     OW72441   4.600   2.298   3.481 -0.1477 -0.5967  0.0705
18150SOL    HW172442   4.517   2.251   3.468  0.0702 -0.5035 -1.9097
18150SOL    HW272443   4.647   2.287   3.399  1.9990 -0.9578  1.2916
18151SOL     OW72444   9.310  10.994   1.758  0.0184 -0.1854  0.1868
18151SOL    HW172445   9.239  11.006   1.695  0.0075  0.3542  0.2984
18151SOL    HW272446   9.390  11.000   1.705  0.0692  1.6958  0.4031
18152SOL     OW72447   4.515   8.276   8.223  0.9835 -0.2523  0.3928
18152SOL    HW172448   4.487   8.368   8.228  0.5484 -0.2212 -1.7260
18152SOL    HW272449   4.511   8.245   8.314  1.2787  1.8453  1.1829
18153SOL     OW72450   7.068  11.798  12.609 -0.0614 -0.0561  0.0751
18153SOL    HW172451   7.072  11.892  12.626 -0.8113  0.2395 -1.2014
18153SOL    HW272452   7.129  11.759  12.671 -2.4376  0.8753  3.2973
18154SOL     OW72453   6.371  11.550   1.483 -0.3353 -0.0540  0.3881
18154SOL    HW172454   6.366  11.593   1.569 -0.8320 -2.4090  1.6201
18154SOL    HW272455   6.463  11.525   1.474 -0.5709 -1.1753  0.9765
18155SOL     OW72456  11.216  13.471   6.822  0.6865 -0.0703 -0.1115
18155SOL    HW172457  11.290  13.521   6.790  0.5270  1.1316  1.2961
18155SOL    HW272458  11.163  13.453   6.745  1.7561  0.2083 -0.9264
18156SOL     OW72459  11.201   1.870   9.640  0.5127 -0.1475 -0.0380
18156SOL    HW172460  11.131   1.872   9.705  0.3435 -0.8448 -0.1896
18156SOL    HW272461  11.236   1.960   9.639  1.0687 -0.3129  1.6025
18157SOL     OW72462  14.015  12.361  14.085  0.1316  0.1654 -0.0158
18157SOL    HW172463  14.067  12.438  14.108  0.7727 -0.2820  0.0566
18157SOL    HW272464  14.004  12.314  14.167  1.5239 -0.8855 -0.3788
18158SOL     OW72465  13.718   9.378   5.664  0.1026 -0.3598 -0.5571
18158SOL    HW172466  13.694   9.369   5.572  0.3269  0.2022 -0.6759
18158SOL    HW272467  13.752   9.292   5.688 -3.6365 -1.8153  0.1399
18159SOL     OW72468   4.926  10.581  12.092 -0.2888  0.3847  0.1265
18159SOL    HW172469   4.943  10.615  12.004 -0.1822 -1.0093 -0.4137
18159SOL    HW272470   4.889  10.656  12.140  0.9758  1.5572 -0.6640
18160SOL     OW72471   1.485   9.308   1.703  0.3629  0.0625 -0.0581
18160SOL    HW172472   1.414   9.365   1.733 -0.0417 -0.5063  0.0897
18160SOL    HW272473   1.510   9.258   1.782 -0.7200 -1.4653 -0.6297
18161SOL     OW72474  13.208   7.249  11.626  0.1058 -0.5790 -0.1526
18161SOL    HW172475  13.295   7.279  11.654 -0.5715 -1.3118  3.1966
18161SOL    HW272476  13.206   7.156  11.651 -0.1660 -1.9048 -4.3233
18162SOL     OW72477   3.945   7.419  10.983  0.0450 -0.2440 -0.0482
18162SOL    HW172478   3.966   7.362  11.057  0.9797 -0.0142 -0.1316
18162SOL    HW272479   4.003   7.494  10.994 -0.8995  0.5159 -0.1585
18163SOL     OW72480   5.536   5.898   1.041 -0.3846  0.3881  0.0239
18163SOL    HW172481   5.595   5.963   1.078  0.2549 -0.7399  1.0180
18163SOL    HW272482   5.478   5.874   1.113 -0.4098 -0.3847 -0.2472
18164SOL     OW72483   2.911   5.320   1.817 -0.2500 -0.0489 -0.4417
18164SOL    HW172484   2.821   5.353   1.819  0.2184  1.3145 -0.7561
18164SOL    HW272485   2.963   5.391   1.856  0.9588  0.1658 -2.3185
18165SOL     OW72486   3.399  10.094  13.623 -0.5932 -0.5592 -0.3266
18165SOL    HW172487   3.319  10.115  13.574  0.6903 -0.5085 -2.5705
18165SOL    HW272488   3.416  10.172  13.676 -0.4986  0.6666 -2.0569
18166SOL     OW72489  10.537  11.564   0.988  0.2161  0.1522 -0.1635
18166SOL    HW172490  10.540  11.471   0.964  2.8076  0.0057  0.4750
18166SOL    HW272491  10.475  11.568   1.060  0.1516 -1.0984 -0.1230
18167SOL     OW72492   5.427  10.678   5.254  0.3834  0.3048 -0.2863
18167SOL    HW172493   5.460  10.588   5.258  0.4662  0.3815  0.8988
18167SOL    HW272494   5.377  10.681   5.172 -0.1707 -1.0057 -0.0248
18168SOL     OW72495   4.071  13.415   3.055 -0.4092  0.4411 -0.1633
18168SOL    HW172496   4.031  13.431   3.140  0.7108  0.9819  0.2771
18168SOL    HW272497   3.999  13.429   2.992 -0.9955  1.0601  0.6238
18169SOL     OW72498   6.840  10.453   5.320 -0.6379 -0.2419  0.2445
18169SOL    HW172499   6.900  10.488   5.387 -0.6292 -1.0830  0.6784
18169SOL    HW272500   6.754  10.484   5.346 -0.4520  0.7035 -0.2034
18170SOL     OW72501   3.430   9.157   5.532 -0.3730 -0.1912 -0.0560
18170SOL    HW172502   3.343   9.131   5.504 -0.7771  0.9472  0.1022
18170SOL    HW272503   3.444   9.108   5.614 -1.4936  0.7550  0.7334
18171SOL     OW72504   4.145  12.779   5.272 -0.2069  0.4289  0.6105
18171SOL    HW172505   4.126  12.806   5.182 -2.3693 -1.1482  0.5221
18171SOL    HW272506   4.240  12.787   5.279 -0.0392  1.2152 -1.5912
18172SOL     OW72507  13.206   8.055  10.891  0.7629  0.1006 -0.2079
18172SOL    HW172508  13.197   7.966  10.926  0.2713 -0.3997 -1.5487
18172SOL    HW272509  13.133   8.103  10.929  0.7109 -0.2154  0.0971
18173SOL     OW72510   9.963   8.592  12.198 -0.6642 -0.3980  0.3145
18173SOL    HW172511   9.977   8.534  12.273 -1.8680  0.1089  0.9511
18173SOL    HW272512  10.030   8.660  12.207 -0.1997 -0.8557  0.3885
18174SOL     OW72513   1.690  11.302   3.338  0.5921  0.7121  0.1392
18174SOL    HW172514   1.681  11.333   3.428  1.8125  0.1946  0.4508
18174SOL    HW272515   1.751  11.363   3.297  0.9591  0.2589  0.0040
18175SOL     OW72516   4.759   4.166   5.430  0.1336  0.0775  0.7835
18175SOL    HW172517   4.795   4.089   5.386 -1.5353  0.0855 -0.7178
18175SOL    HW272518   4.733   4.224   5.358 -1.2822  0.7694  1.8059
18176SOL     OW72519   3.222   3.442  14.033  0.6816 -0.5293 -0.6655
18176SOL    HW172520   3.218   3.527  13.988  1.8696 -0.0616  0.0670
18176SOL    HW272521   3.163   3.386  13.983 -1.0962  1.0464 -0.4711
18177SOL     OW72522  13.652   8.046   3.582  0.3187 -0.5508 -0.3320
18177SOL    HW172523  13.586   7.981   3.559 -0.1300 -0.0834 -0.4165
18177SOL    HW272524  13.688   8.016   3.665  0.3991 -1.1107 -0.5706
18178SOL     OW72525   3.236   9.716   3.639  0.3841  0.5421  0.2382
18178SOL    HW172526   3.304   9.745   3.579  1.6285  0.0136  1.3375
18178SOL    HW272527   3.229   9.621   3.624  0.3461  0.4911  0.5623
18179SOL     OW72528   7.208   6.268   2.953  0.5751 -0.2992  0.0225
18179SOL    HW172529   7.293   6.311   2.957 -0.0433  1.0251 -0.4162
18179SOL    HW272530   7.168   6.284   3.038  0.5066 -0.3399 -0.0014
18180SOL     OW72531   0.918  11.295   0.689 -0.2761  0.0646  0.1545
18180SOL    HW172532   0.929  11.200   0.680  1.0208  0.1012  0.9808
18180SOL    HW272533   0.840  11.305   0.744  1.0486 -0.6510  2.2792
18181SOL     OW72534  13.373   2.294   2.642  0.0993  0.0358  0.1225
18181SOL    HW172535  13.363   2.201   2.619 -0.5518 -0.0165  0.5969
18181SOL    HW272536  13.285   2.330   2.637  0.4439  0.7976 -0.7240
18182SOL     OW72537   5.806  12.597   2.763 -0.1552  0.1922 -0.3726
18182SOL    HW172538   5.807  12.666   2.829 -0.1252 -0.3882  0.2457
18182SOL    HW272539   5.898  12.576   2.748 -0.1786 -0.0807 -0.1574
18183SOL     OW72540   0.049   2.122   7.595 -0.4020  0.3033 -0.1710
18183SOL    HW172541   0.069   2.193   7.656  4.1644  0.5988 -1.6582
18183SOL    HW272542   0.053   2.042   7.648  0.7745  0.7688  0.4799
18184SOL     OW72543   9.872  10.701   9.509  0.6643  0.2026 -0.6593
18184SOL    HW172544   9.782  10.671   9.494  0.2515  0.6270  0.7594
18184SOL    HW272545   9.922  10.621   9.526  0.4468  0.0054 -0.9389
18185SOL     OW72546   1.825   3.964  11.747  0.5200 -0.3449  0.2499
18185SOL    HW172547   1.793   3.920  11.668  0.5016  0.8086 -0.4066
18185SOL    HW272548   1.771   3.928  11.818 -0.6478 -0.1391 -0.5119
18186SOL     OW72549   9.463   7.553  12.177 -0.1649  0.7512 -0.2383
18186SOL    HW172550   9.524   7.479  12.185  0.7313  1.5941  1.1332
18186SOL    HW272551   9.378   7.517  12.202  0.2553  0.1885  0.4077
18187SOL     OW72552   7.587  10.131   5.339  0.1204  0.4531 -0.3177
18187SOL    HW172553   7.524  10.198   5.364  2.8432  2.4728  1.8836
18187SOL    HW272554   7.596  10.076   5.417  1.8240  0.9087 -0.1492
18188SOL     OW72555  10.255  14.090  12.997  0.0752  0.5304 -0.2831
18188SOL    HW172556  10.299  14.145  12.932 -1.0095  1.7313 -0.0221
18188SOL    HW272557  10.325  14.059  13.054  0.7730  1.1485 -0.7960
18189SOL     OW72558   2.490   4.587  12.320  0.1827 -0.3507 -0.6983
18189SOL    HW172559   2.409   4.539  12.305  0.3823 -0.7453 -0.5516
18189SOL    HW272560   2.551   4.521  12.354  0.2777  0.1427  0.1179
18190SOL     OW72561   9.736   0.227   8.955  0.0128  1.1622  0.2840
18190SOL    HW172562   9.785   0.308   8.943  0.6876  0.7411  0.1757
18190SOL    HW272563   9.784   0.161   8.905  0.4643  0.3130  1.7424
18191SOL     OW72564   4.370  10.744  13.150 -0.2329 -0.0931 -0.0419
18191SOL    HW172565   4.424  10.672  13.184  1.5433  1.0967 -0.2339
18191SOL    HW272566   4.394  10.750  13.057 -0.4451  0.6776 -0.0497
18192SOL     OW72567   8.405   1.034  13.201  0.0338  0.0869  0.0596
18192SOL    HW172568   8.325   1.043  13.252  0.3513  0.3589  0.5219
18192SOL    HW272569   8.462   0.980  13.256  0.9750  1.6839  0.7442
18193SOL     OW72570   5.251   9.212   1.753  0.0778  0.3074 -0.3088
18193SOL    HW172571   5.185   9.146   1.731  1.1769 -0.5978 -0.9774
18193SOL    HW272572   5.257   9.268   1.676 -0.9797  1.3307  0.3233
18194SOL     OW72573   0.232  10.707   2.064  0.0482  0.0465 -0.2865
18194SOL    HW172574   0.165  10.663   2.012  0.0515 -0.4841  0.1415
18194SOL    HW272575   0.224  10.799   2.041 -0.4564 -0.0860 -0.6569
18195SOL     OW72576   9.961  10.363  13.664 -0.0183  0.3707 -0.1577
18195SOL    HW172577   9.935  10.455  13.657 -1.3493  0.1007  0.6768
18195SOL    HW272578   9.880  10.317  13.688  1.0180 -0.7153  1.5327
18196SOL     OW72579  14.126   6.491   5.206 -0.4118 -0.4155 -0.0220
18196SOL    HW172580  14.200   6.439   5.237  0.5454  0.5570 -0.6225
18196SOL    HW272581  14.148   6.513   5.115 -1.6582 -0.5017 -0.3620
18197SOL     OW72582   4.629   4.384   9.839  0.8256  0.1875  0.1454
18197SOL    HW172583   4.575   4.345   9.770  0.9071 -1.3573  0.8999
18197SOL    HW272584   4.719   4.376   9.808  0.7648  0.8726 -0.2159
18198SOL     OW72585   9.803  12.509   0.109  0.1429 -0.1998  0.5265
18198SOL    HW172586   9.819  12.437   0.048  1.2125 -0.2536  0.8547
18198SOL    HW272587   9.725  12.481   0.157  0.1523 -0.8328  0.1924
18199SOL     OW72588   8.082  10.661   2.479  0.1260 -0.5538  0.3265
18199SOL    HW172589   7.996  10.632   2.510 -0.5359  1.6367  0.6818
18199SOL    HW272590   8.144  10.609   2.531 -0.9777 -0.8022  1.4657
18200SOL     OW72591   6.591   0.596  13.110 -0.0026 -0.1568  0.3135
18200SOL    HW172592   6.506   0.571  13.072 -0.1898  0.6860  0.1460
18200SOL    HW272593   6.647   0.614  13.035  0.1628 -0.1947  0.4270
18201SOL     OW72594   6.967   5.895   5.852  0.2987  0.2821 -0.5375
18201SOL    HW172595   6.970   5.812   5.900  0.0107  0.1384 -0.7667
18201SOL    HW272596   6.912   5.952   5.905 -1.7794 -0.5313 -1.6980
18202SOL     OW72597   1.329   1.441   8.936 -0.0478  0.0132 -0.0613
18202SOL    HW172598   1.324   1.528   8.977  0.4238  0.1943 -0.3796
18202SOL    HW272599   1.258   1.441   8.873 -0.1725  0.0960  0.0777
18203SOL     OW72600   2.891   8.874  10.382  0.6074  0.5667 -0.8083
18203SOL    HW172601   2.856   8.894  10.469  2.2223 -0.4053  0.1118
18203SOL    HW272602   2.825   8.907  10.322 -1.4134 -0.2734  0.8052
18204SOL     OW72603   4.296   3.703  10.167  0.1449 -0.3693  0.2363
18204SOL    HW172604   4.371   3.670  10.117  0.6496  0.3095  0.5449
18204SOL    HW272605   4.308   3.797  10.171  0.0260 -0.3838  1.4921
18205SOL     OW72606   8.019   5.207   3.840  0.0319  0.2655  0.5342
18205SOL    HW172607   7.997   5.301   3.833  0.1740  0.2385 -0.4887
18205SOL    HW272608   8.100   5.198   3.790 -1.2013 -0.7919 -1.3948
18206SOL     OW72609  13.016  10.486   2.081 -0.0036 -0.2164 -0.5061
18206SOL    HW172610  12.981  10.460   2.166  1.0890  1.9810  0.6923
18206SOL    HW272611  12.957  10.555   2.051  0.0805 -0.4182 -1.1438
18207SOL     OW72612   3.653   2.967  11.826  0.7763  0.3470  0.2548
18207SOL    HW172613   3.699   3.012  11.897  1.2055  0.4632 -0.0939
18207SOL    HW272614   3.578   3.023  11.806  0.3643  0.0584  0.9598
18208SOL     OW72615  13.804   0.022   0.977 -0.4165  0.3280  0.2572
18208SOL    HW172616  13.802  -0.051   0.915  0.4672  0.5212 -0.0207
18208SOL    HW272617  13.716   0.059   0.974  0.0496  1.3823 -2.1597
18209SOL     OW72618  12.819   5.623  10.111 -0.1307 -0.4537 -0.8522
18209SOL    HW172619  12.901   5.669  10.128  0.2187 -1.3512  0.0037
18209SOL    HW272620  12.803   5.636  10.017  0.6294  0.3025 -0.8839
18210SOL     OW72621  13.476  12.383  13.539  0.5789 -0.4543  0.4069
18210SOL    HW172622  13.503  12.418  13.624  2.6626  0.9036 -0.7420
18210SOL    HW272623  13.470  12.288  13.553  2.4709 -0.4468  1.6927
18211SOL     OW72624  14.032   0.352   4.434 -0.3971 -0.5526  0.2210
18211SOL    HW172625  14.020   0.440   4.471  1.0533  0.0406 -0.6212
18211SOL    HW272626  14.115   0.322   4.471 -0.9467 -1.6320  0.5970
18212SOL     OW72627  11.728   5.084  12.855 -0.4849  0.0476 -0.2521
18212SOL    HW172628  11.683   5.153  12.903 -0.8083 -0.7686  0.6639
18212SOL    HW272629  11.680   5.077  12.773  0.6630  2.1140 -1.1635
18213SOL     OW72630   0.737  13.947   8.913  0.3075 -0.3348 -0.7687
18213SOL    HW172631   0.687  13.866   8.921  1.1475 -0.8498 -0.6245
18213SOL    HW272632   0.788  13.952   8.993 -2.0238  1.9782  0.7361
18214SOL     OW72633   3.420   0.240   7.448  0.0392 -0.1021  0.2455
18214SOL    HW172634   3.413   0.321   7.500 -0.0514  1.3695 -1.9050
18214SOL    HW272635   3.419   0.271   7.357 -0.0414 -2.5635 -0.6472
18215SOL     OW72636  10.893   7.115   9.626 -0.1560 -0.2661  0.1609
18215SOL    HW172637  10.861   7.077   9.545 -0.8704  0.4986  0.0767
18215SOL    HW272638  10.882   7.209   9.615  1.7263  0.0145  0.2997
18216SOL     OW72639   2.100   4.353   4.159 -0.1360  0.3863  0.4250
18216SOL    HW172640   2.136   4.267   4.180 -0.1011 -0.0609 -1.3107
18216SOL    HW272641   2.011   4.350   4.194 -0.4623 -0.7313 -0.4232
18217SOL     OW72642   9.154   4.894   2.717 -0.2407  0.5135  0.1332
18217SOL    HW172643   9.233   4.886   2.771 -0.8011  0.8953  1.0467
18217SOL    HW272644   9.148   4.811   2.670  0.6650  0.4545  0.1114
18218SOL     OW72645   6.688   9.545  12.836 -0.0861 -0.3067 -0.1123
18218SOL    HW172646   6.753   9.592  12.889  0.9617 -0.0417 -1.5737
18218SOL    HW272647   6.636   9.497  12.900  1.3726 -0.2945  1.1467
18219SOL     OW72648  10.207   9.590  10.008 -0.2953  0.6549 -0.0130
18219SOL    HW172649  10.177   9.679  10.027  0.6517  0.8323  0.7093
18219SOL    HW272650  10.302   9.595  10.017 -0.0658 -0.0054 -1.7842
18220SOL     OW72651   7.919   4.480   8.649 -0.4099  0.0683  0.1238
18220SOL    HW172652   7.936   4.395   8.608 -0.7898  0.1144 -0.1374
18220SOL    HW272653   8.001   4.503   8.694  0.1030  0.1410 -0.8338
18221SOL     OW72654   8.013  13.928   3.161 -0.0182 -0.5311  0.3249
18221SOL    HW172655   8.045  13.841   3.136 -1.9725 -0.9648 -0.8545
18221SOL    HW272656   7.958  13.913   3.238 -0.1478 -0.2991  0.2804
18222SOL     OW72657  10.213   6.921   2.527  0.6947 -0.5391 -0.0965
18222SOL    HW172658  10.194   6.936   2.434  1.4258 -0.9506 -0.3183
18222SOL    HW272659  10.150   6.855   2.554  0.9276 -0.9281 -0.4858
18223SOL     OW72660   3.148   1.582   3.804  0.4263 -0.1846  0.3853
18223SOL    HW172661   3.097   1.500   3.805 -0.4301  0.3357  0.2425
18223SOL    HW272662   3.086   1.648   3.773  1.6777  0.1513 -1.5035
18224SOL     OW72663   7.038   7.645   9.796  0.3918 -0.9228  0.5726
18224SOL    HW172664   7.065   7.568   9.746  1.2882  0.4869 -1.2738
18224SOL    HW272665   6.963   7.680   9.747  0.8306  0.1056  0.6127
18225SOL     OW72666  12.352   6.882   5.601  1.2006  0.1320  0.1752
18225SOL    HW172667  12.354   6.950   5.668 -2.3376  0.9748 -0.3787
18225SOL    HW272668  12.368   6.928   5.519  1.1460 -0.1324  0.0144
18226SOL     OW72669   7.454   1.058   9.546  0.0974 -0.3026  0.2055
18226SOL    HW172670   7.399   1.070   9.469  0.6452  1.4780  0.0296
18226SOL    HW272671   7.452   1.144   9.590  3.2899  0.1172 -0.2211
18227SOL     OW72672  11.264   1.733   5.887 -0.3562 -0.6866 -0.5138
18227SOL    HW172673  11.175   1.705   5.865 -0.0218 -2.2501  0.0011
18227SOL    HW272674  11.317   1.654   5.879  0.5818 -0.3272  1.4207
18228SOL     OW72675   4.303   0.448   2.583  0.2727  0.3451 -0.5754
18228SOL    HW172676   4.332   0.478   2.497  2.9475  1.0857  0.4895
18228SOL    HW272677   4.254   0.522   2.619 -0.8567  0.0310 -1.4291
18229SOL     OW72678   2.152   3.280   8.552 -0.1205 -0.3741  0.5132
18229SOL    HW172679   2.095   3.277   8.629  0.6506  0.3794  1.1244
18229SOL    HW272680   2.234   3.241   8.581  0.4087  0.5504  0.2908
18230SOL     OW72681   3.282  11.095   0.456 -0.4202  0.2457  0.0758
18230SOL    HW172682   3.307  11.129   0.543 -0.1909  1.0566 -0.2926
18230SOL    HW272683   3.356  11.041   0.430 -0.8653 -0.7126  0.7491
18231SOL     OW72684   5.909   5.259   3.264 -0.5655 -0.3025  0.0386
18231SOL    HW172685   5.878   5.172   3.239 -1.8737 -0.4604  1.9109
18231SOL    HW272686   5.862   5.277   3.346  1.1877  1.3273  0.7449
18232SOL     OW72687  13.319   4.623   9.879 -0.5356  0.2600 -0.2910
18232SOL    HW172688  13.328   4.544   9.931  0.8495 -0.1256 -1.0637
18232SOL    HW272689  13.255   4.676   9.926 -0.8504 -0.9480  0.6829
18233SOL     OW72690  10.240  14.110  10.875  1.0060 -0.3569 -0.0527
18233SOL    HW172691  10.236  14.162  10.955  1.5378  0.6082 -0.6204
18233SOL    HW272692  10.260  14.174  10.806  1.1544 -1.2461 -0.8656
18234SOL     OW72693   3.892   8.302   6.498  0.7635 -0.3244  0.3895
18234SOL    HW172694   3.903   8.218   6.543 -0.8228 -0.2805  0.9440
18234SOL    HW272695   3.810   8.293   6.450  0.9918  0.6334 -0.2073
18235SOL     OW72696  11.674   8.820   8.628  0.2663 -0.5492  0.1537
18235SOL    HW172697  11.589   8.827   8.672  0.4900 -1.5093  0.7634
18235SOL    HW272698  11.738   8.826   8.698  0.6800 -0.5906 -0.2145
18236SOL     OW72699  11.908   1.670  10.522 -0.2885  0.2742  0.1682
18236SOL    HW172700  11.881   1.755  10.558  1.4484  0.2129  1.7380
18236SOL    HW272701  11.894   1.608  10.593  1.2690 -0.2322  0.0625
18237SOL     OW72702   9.463   8.335  11.026  0.2504 -0.7664  0.1825
18237SOL    HW172703   9.406   8.406  11.054  0.6602  0.7610 -2.5659
18237SOL    HW272704   9.543   8.348  11.077  0.5323  1.1434 -0.6570
18238SOL     OW72705  12.812   7.227  10.696 -0.0690  0.0864 -0.8011
18238SOL    HW172706  12.782   7.139  10.718 -0.0045 -0.0762 -1.3434
18238SOL    HW272707  12.809   7.275  10.778 -1.0496 -0.1441 -0.6893
18239SOL     OW72708  12.257  11.856  13.602  0.3044 -0.1701 -0.4985
18239SOL    HW172709  12.314  11.917  13.648  0.5387 -0.6682 -0.1070
18239SOL    HW272710  12.235  11.899  13.520  0.4222  0.4546 -0.2082
18240SOL     OW72711   8.395   2.782   6.857 -0.5482  0.6205  0.0896
18240SOL    HW172712   8.382   2.876   6.844  0.4769  0.7669  0.0261
18240SOL    HW272713   8.315   2.752   6.900  0.7332  2.3197  4.1088
18241SOL     OW72714  12.532   9.054   3.715 -0.3659 -0.0563 -0.1054
18241SOL    HW172715  12.465   9.095   3.660  0.4065  2.1322  0.5079
18241SOL    HW272716  12.492   9.048   3.802  0.2522  1.4466  0.3119
18242SOL     OW72717   5.851  12.258   1.803  0.6655 -0.6174 -0.3384
18242SOL    HW172718   5.814  12.258   1.892  0.4883 -0.4703 -0.4108
18242SOL    HW272719   5.935  12.302   1.812 -0.1092  0.9787 -0.5454
18243SOL     OW72720  13.672   5.277  11.468 -0.5713 -0.0430 -0.3542
18243SOL    HW172721  13.766   5.283  11.449 -0.7171  1.6159 -0.6885
18243SOL    HW272722  13.638   5.364  11.449 -2.1668 -0.5706 -0.0787
18244SOL     OW72723   9.993   0.657  11.271  0.0337 -0.0793  0.0934
18244SOL    HW172724   9.941   0.643  11.192 -0.7157  2.5698  0.0437
18244SOL    HW272725   9.930   0.652  11.343 -0.0110  1.3652  0.1794
18245SOL     OW72726   7.715   4.049  12.377  0.3271 -0.0200  0.6279
18245SOL    HW172727   7.689   3.975  12.322 -1.7590 -0.0651  1.5561
18245SOL    HW272728   7.789   4.016  12.428  1.1124 -0.5740 -0.8090
18246SOL     OW72729  13.245   7.300  12.135 -0.2864  0.0619  0.1789
18246SOL    HW172730  13.272   7.253  12.214  0.6679 -0.6459 -0.5429
18246SOL    HW272731  13.224   7.231  12.072  0.1070  0.6040 -0.5644
18247SOL     OW72732  13.102   5.030   8.213  0.2055  0.0149  0.3354
18247SOL    HW172733  13.126   5.123   8.224  0.1829 -0.0195  0.6785
18247SOL    HW272734  13.070   5.025   8.123 -1.2919  0.6690  0.7999
18248SOL     OW72735   6.352   2.689  11.870 -0.6754 -0.0269  0.0522
18248SOL    HW172736   6.370   2.782  11.887 -0.1963 -0.1371  0.1463
18248SOL    HW272737   6.324   2.687  11.778 -0.7311  0.2153  0.0626
18249SOL     OW72738   1.048   0.353  10.702 -0.0113  0.4945 -0.2117
18249SOL    HW172739   1.051   0.386  10.792 -1.3622  1.2728 -0.4200
18249SOL    HW272740   1.093   0.419  10.650 -1.1092  1.1497 -0.3740
18250SOL     OW72741   6.164   9.999   4.027  0.2265 -0.2358  0.2141
18250SOL    HW172742   6.197   9.938   3.961  0.5472  0.2043 -0.0338
18250SOL    HW272743   6.113   9.944   4.086  1.0662 -0.8639  0.3761
18251SOL     OW72744   6.146  11.908   1.763 -0.4008 -0.3807  0.1232
18251SOL    HW172745   6.129  11.924   1.856 -1.6813 -0.5879 -0.0534
18251SOL    HW272746   6.234  11.943   1.748  0.1165 -0.9815  1.5644
18252SOL     OW72747   8.740   2.452   5.841  0.2981 -0.1305  0.5637
18252SOL    HW172748   8.688   2.530   5.826  1.8533  1.1527  1.4747
18252SOL    HW272749   8.704   2.387   5.781  0.7107  2.0935 -2.3054
18253SOL     OW72750  13.288  13.718   3.911  0.2318  0.4503  0.4279
18253SOL    HW172751  13.266  13.810   3.897  0.5177  0.4906  0.2248
18253SOL    HW272752  13.309  13.712   4.004  1.0652  0.7824  0.2763
18254SOL     OW72753   6.673   2.715   2.688  0.0723  0.2764  0.1125
18254SOL    HW172754   6.612   2.650   2.654 -1.1576  2.1436 -1.4253
18254SOL    HW272755   6.661   2.711   2.783 -1.4335 -0.3679 -0.0765
18255SOL     OW72756  12.003   1.150   0.315 -0.5332  0.0215  0.2327
18255SOL    HW172757  12.006   1.239   0.278 -0.6727  1.4851  3.4288
18255SOL    HW272758  11.915   1.118   0.293 -1.3398  1.6258  0.9629
18256SOL     OW72759   2.646  13.343   2.918  0.1918 -0.1773 -0.0541
18256SOL    HW172760   2.729  13.300   2.937  0.7780  1.3076  0.9865
18256SOL    HW272761   2.579  13.285   2.955  0.8731 -0.7430  0.3043
18257SOL     OW72762  12.234  11.619  12.739 -0.0060  0.1050 -0.2021
18257SOL    HW172763  12.245  11.674  12.661 -0.7560 -2.6409 -2.4329
18257SOL    HW272764  12.155  11.653  12.781  0.5905  1.8459 -0.4302
18258SOL     OW72765  13.478  13.629  12.095 -0.0371 -0.2228  0.4045
18258SOL    HW172766  13.444  13.715  12.070  1.1877  1.0732  2.8331
18258SOL    HW272767  13.528  13.645  12.175  0.0290 -3.2560  1.1107
18259SOL     OW72768   3.290   0.484  13.069  0.4808  0.0685 -0.6716
18259SOL    HW172769   3.339   0.439  13.001  0.1332  1.2719 -1.7611
18259SOL    HW272770   3.304   0.577  13.052 -0.0489  0.4123  0.5929
18260SOL     OW72771   7.040   6.593  10.476 -0.6631  0.0398  0.1722
18260SOL    HW172772   7.062   6.623  10.565  2.0889  1.3497 -0.8415
18260SOL    HW272773   7.083   6.508  10.468  2.7394  1.7288 -1.1537
18261SOL     OW72774  10.529   6.504  10.010 -0.4284  0.2185 -0.2520
18261SOL    HW172775  10.593   6.433  10.008 -0.1388  0.4647  0.2524
18261SOL    HW272776  10.581   6.583  10.027 -0.7880  0.5050 -0.4770
18262SOL     OW72777   9.908  12.177   0.545 -0.3349  0.9280  0.4158
18262SOL    HW172778   9.935  12.117   0.476  3.4564  0.2374  2.2213
18262SOL    HW272779   9.910  12.263   0.503 -0.5407  0.3282 -0.8962
18263SOL     OW72780   2.559  13.869   2.626 -0.2382  0.0008  1.0085
18263SOL    HW172781   2.624  13.925   2.583 -1.6243  0.7492 -0.2169
18263SOL    HW272782   2.585  13.780   2.603 -0.3436  0.3397 -0.5805
18264SOL     OW72783   3.642   9.536   1.134  0.5075  0.0641 -0.7019
18264SOL    HW172784   3.617   9.563   1.046  1.0487 -0.6741 -1.0854
18264SOL    HW272785   3.738   9.539   1.135  0.5362 -0.6210 -0.3718
18265SOL     OW72786   1.615  12.023  13.454  0.3495 -0.0174 -0.0222
18265SOL    HW172787   1.579  12.058  13.535  2.0185  2.1776 -0.1684
18265SOL    HW272788   1.592  12.088  13.387 -0.4307 -1.4670 -1.2362
18266SOL     OW72789   8.478   3.583   0.650 -0.2006  0.6266  0.3973
18266SOL    HW172790   8.435   3.616   0.572  0.3464  0.0995 -0.1417
18266SOL    HW272791   8.532   3.655   0.681 -0.8397  1.0236  0.6233
18267SOL     OW72792   5.324   2.392   0.197 -0.1403  0.3779  0.1482
18267SOL    HW172793   5.381   2.454   0.242  0.3432  0.4897 -0.6031
18267SOL    HW272794   5.247   2.443   0.172 -1.5179 -0.2040  2.8727
18268SOL     OW72795  13.873  13.369  13.159 -0.1341  0.4472  0.0675
18268SOL    HW172796  13.842  13.293  13.208 -0.3552  1.1738  1.0802
18268SOL    HW272797  13.937  13.333  13.097 -0.8831 -0.6775 -0.0903
18269SOL     OW72798   8.555   3.559   1.344 -0.4194  0.5328  0.9657
18269SOL    HW172799   8.614   3.542   1.271 -0.6575  0.6781  0.7377
18269SOL    HW272800   8.566   3.484   1.402 -0.8899 -0.0132  0.3514
18270SOL     OW72801   5.764   9.157   8.995  0.2305  0.5789  0.4207
18270SOL    HW172802   5.735   9.076   8.951 -1.6927  1.7738 -0.6428
18270SOL    HW272803   5.838   9.129   9.049  0.6179 -1.5988 -1.0905
18271SOL     OW72804   2.236  13.758   8.264  0.5000  0.5787 -0.2047
18271SOL    HW172805   2.177  13.762   8.339  0.7835  1.3873 -0.0185
18271SOL    HW272806   2.239  13.665   8.241 -0.6556  0.4928 -0.0797
18272SOL     OW72807  10.032   7.718   9.697  0.1148  0.5232  0.4932
18272SOL    HW172808  10.008   7.626   9.692 -0.0283  0.6233 -1.8266
18272SOL    HW272809   9.949   7.763   9.714  0.2619  0.2229  2.1184
18273SOL     OW72810   7.259  10.461   1.854  0.9970  0.1577 -0.5158
18273SOL    HW172811   7.174  10.424   1.830  0.1328  0.3979  1.9030
18273SOL    HW272812   7.318  10.435   1.783 -1.4256  1.4736 -3.2139
18274SOL     OW72813   5.583   5.499  10.442 -0.3895  0.1900 -0.2323
18274SOL    HW172814   5.633   5.574  10.411 -0.7886  0.8848  0.7244
18274SOL    HW272815   5.541   5.531  10.522 -0.4984 -1.0884  0.2353
18275SOL     OW72816   9.041   9.763   1.689  0.4223  0.0888 -0.7223
18275SOL    HW172817   9.113   9.818   1.718  1.2363 -0.0021 -2.4166
18275SOL    HW272818   9.022   9.794   1.600 -1.7681  0.2308 -0.2431
18276SOL     OW72819   5.743   4.946   6.534 -0.2447 -0.1270  0.4186
18276SOL    HW172820   5.746   5.039   6.510 -1.2710  0.0526  0.9295
18276SOL    HW272821   5.834   4.917   6.529  0.2948  1.2417  1.4992
18277SOL     OW72822  11.456   0.598   1.892 -0.1754  0.1660  0.1178
18277SOL    HW172823  11.372   0.645   1.885 -0.4469 -0.0114  1.6870
18277SOL    HW272824  11.431   0.509   1.918  0.4166 -0.4600 -1.3681
18278SOL     OW72825  13.347   0.724  12.737  0.9502 -0.6706  0.2540
18278SOL    HW172826  13.408   0.651  12.750 -0.1652 -1.4231  1.6000
18278SOL    HW272827  13.374   0.789  12.802  0.6857 -0.7715  0.4695
18279SOL     OW72828   1.572  12.557  13.521  0.2297  0.5146  0.5607
18279SOL    HW172829   1.619  12.632  13.485  0.6985  0.0765  0.2419
18279SOL    HW272830   1.626  12.481  13.498 -0.2174  0.0813  0.9067
18280SOL     OW72831   9.474   8.899   2.817  0.7675  0.5639 -0.1258
18280SOL    HW172832   9.461   8.886   2.723  0.4672  1.0969 -0.1648
18280SOL    HW272833   9.432   8.824   2.858 -0.1462  0.9249 -0.3743
18281SOL     OW72834   4.524  12.040   2.787  0.1131 -0.0126 -0.4810
18281SOL    HW172835   4.475  12.013   2.710 -0.7501  1.7965 -0.6143
18281SOL    HW272836   4.473  12.112   2.825  1.4572  0.3628  0.7303
18282SOL     OW72837   5.907   2.432   0.874  0.2329  0.0827  0.3980
18282SOL    HW172838   5.814   2.443   0.893 -0.4380  0.3816 -2.5186
18282SOL    HW272839   5.926   2.342   0.901 -0.5308  0.4109  2.1788
18283SOL     OW72840   0.396   0.871  10.358  0.3693  0.1125  0.5082
18283SOL    HW172841   0.484   0.854  10.390  0.8396 -0.3570 -0.9853
18283SOL    HW272842   0.396   0.964  10.336  1.2102 -0.3102 -1.5104
18284SOL     OW72843   8.634   0.720   8.882 -0.0237 -0.4374  0.1884
18284SOL    HW172844   8.704   0.656   8.871  0.4033  0.0844 -0.2225
18284SOL    HW272845   8.553   0.670   8.872  0.3100 -0.6443 -1.9844
18285SOL     OW72846   1.906   5.204   9.144  0.2881 -0.9411 -0.1638
18285SOL    HW172847   1.943   5.140   9.205  0.2644 -1.6008 -0.8330
18285SOL    HW272848   1.814   5.211   9.170  0.1893 -1.4996 -0.3571
18286SOL     OW72849   6.860  13.701  12.974 -0.1641 -0.1052 -0.1297
18286SOL    HW172850   6.807  13.724  12.898  1.8619 -0.3513 -1.7006
18286SOL    HW272851   6.906  13.781  12.998 -1.1767  0.1138  1.2324
18287SOL     OW72852   8.703   9.234   7.559  0.2793 -0.1433  0.0916
18287SOL    HW172853   8.785   9.209   7.604  1.2475 -0.9822 -2.0270
18287SOL    HW272854   8.634   9.192   7.611  1.4058 -1.7673  0.3529
18288SOL     OW72855   0.890   8.002  12.004 -0.4881 -0.3472  0.8117
18288SOL    HW172856   0.963   7.950  12.038  0.8266  1.3597  0.7808
18288SOL    HW272857   0.900   7.998  11.909 -0.5157 -0.2229  0.8037
18289SOL     OW72858  11.011   2.292  10.339 -0.1125 -0.1882  0.4469
18289SOL    HW172859  11.101   2.296  10.308  0.1648 -0.3924  1.1930
18289SOL    HW272860  10.972   2.375  10.312  0.0910 -0.3899 -0.4883
18290SOL     OW72861   3.507   7.493   1.622 -0.8513 -0.1880  0.2013
18290SOL    HW172862   3.491   7.578   1.580  0.9585 -0.5109 -1.2563
18290SOL    HW272863   3.434   7.438   1.593 -1.7207  0.6814  0.6801
18291SOL     OW72864   2.760   0.952   7.602  0.3333  0.4704  0.0985
18291SOL    HW172865   2.833   0.905   7.642  0.2120 -1.0348 -1.3254
18291SOL    HW272866   2.725   0.890   7.537 -1.9383  1.3080  0.4500
18292SOL     OW72867   7.283   0.997  13.967 -0.2168 -0.4488  0.2180
18292SOL    HW172868   7.359   1.019  14.021  1.2192  0.9904 -2.1729
18292SOL    HW272869   7.242   1.082  13.949 -0.9760 -0.9552 -0.4836
18293SOL     OW72870   0.754   1.238  11.842 -0.1316 -0.1181  0.0668
18293SOL    HW172871   0.795   1.175  11.900 -1.1728 -0.5988  0.3127
18293SOL    HW272872   0.733   1.188  11.763  1.4553  0.5764 -0.8403
18294SOL     OW72873   8.678   4.821   7.074 -0.2090 -0.2493 -0.8064
18294SOL    HW172874   8.587   4.801   7.096 -0.9017  0.9883 -2.3699
18294SOL    HW272875   8.708   4.747   7.022 -0.5315 -0.3592 -0.8326
18295SOL     OW72876   8.368   5.933   5.495 -0.6505 -0.4492  0.0029
18295SOL    HW172877   8.413   6.000   5.547  1.9772 -1.6933 -0.4822
18295SOL    HW272878   8.382   5.959   5.404 -0.0454 -1.3445 -0.1773
18296SOL     OW72879  10.341   1.337   5.724  0.3403  0.0845 -0.3121
18296SOL    HW172880  10.268   1.284   5.757  1.5468 -2.1335 -0.9610
18296SOL    HW272881  10.417   1.279   5.731  1.1293  0.2927 -4.4940
18297SOL     OW72882   8.380   6.686   8.663 -0.7274  0.1807 -0.2887
18297SOL    HW172883   8.426   6.758   8.620 -0.6690  0.7473  0.6824
18297SOL    HW272884   8.450   6.636   8.707 -0.5652 -1.4104 -2.2105
18298SOL     OW72885   1.797   9.807   7.844  0.0405  0.1132  0.3657
18298SOL    HW172886   1.795   9.893   7.885  0.2025  0.5252 -0.4643
18298SOL    HW272887   1.714   9.766   7.869 -0.8505  1.2129 -0.6921
18299SOL     OW72888   2.397   8.553   0.419 -0.1536  0.0315  0.2662
18299SOL    HW172889   2.395   8.460   0.397  0.8267 -0.1547  0.9037
18299SOL    HW272890   2.343   8.595   0.353  1.1871 -0.7329 -1.3878
18300SOL     OW72891   8.678   0.741  11.575 -0.0799 -0.2622  0.1996
18300SOL    HW172892   8.708   0.762  11.487 -1.9706  1.2660 -0.1362
18300SOL    HW272893   8.731   0.796  11.633  0.6480 -0.7269 -0.0058
18301SOL     OW72894   5.721  10.767   5.041  0.3346 -0.7795  0.2117
18301SOL    HW172895   5.749  10.845   4.993 -0.1819 -1.2052 -0.8288
18301SOL    HW272896   5.625  10.775   5.045  0.3310 -1.0406  0.6612
18302SOL     OW72897   5.566   7.866   6.844  0.3471  0.1623 -0.1829
18302SOL    HW172898   5.533   7.784   6.881  2.5891 -1.2994 -1.2289
18302SOL    HW272899   5.657   7.848   6.822  0.3569  2.3117 -2.3210
18303SOL     OW72900  11.639  12.771   8.016 -0.1369  0.2208 -0.8554
18303SOL    HW172901  11.610  12.760   7.925  1.2382 -2.7636 -1.0536
18303SOL    HW272902  11.581  12.713   8.066  1.1981 -0.7550 -0.3715
18304SOL     OW72903   8.496   3.344  11.332  0.3130  0.1659 -0.0698
18304SOL    HW172904   8.483   3.399  11.255  0.9781 -0.1578 -0.4150
18304SOL    HW272905   8.591   3.336  11.341  0.2399  0.1491  0.7476
18305SOL     OW72906   3.830   7.265  11.604 -0.2527  0.1903 -0.1287
18305SOL    HW172907   3.738   7.281  11.625 -0.1161 -0.0920  0.7290
18305SOL    HW272908   3.851   7.184  11.650  0.1603 -0.2892 -1.1316
18306SOL     OW72909   3.201   8.786   4.753  0.5077  0.4997  0.0058
18306SOL    HW172910   3.144   8.832   4.692  0.5222  0.5252  0.0120
18306SOL    HW272911   3.142   8.731   4.804  0.5163  0.3227 -0.1688
18307SOL     OW72912  11.982   3.157  10.352  0.0710  0.2887  0.3377
18307SOL    HW172913  12.049   3.170  10.419  0.1879 -1.5625  0.6592
18307SOL    HW272914  12.014   3.206  10.276  0.9163  0.8389  1.0231
18308SOL     OW72915   0.947  11.015   9.433 -0.0804  0.3455  0.3090
18308SOL    HW172916   0.885  11.066   9.485 -1.3743  0.6373 -1.4233
18308SOL    HW272917   0.953  11.062   9.350  0.4841 -1.0725 -0.4922
18309SOL     OW72918   4.325   9.413   4.251  0.0463 -0.1914  0.5475
18309SOL    HW172919   4.289   9.329   4.278 -0.2255 -0.7337 -1.3593
18309SOL    HW272920   4.261   9.477   4.281 -2.0513 -1.0474 -1.7263
18310SOL     OW72921   7.330   5.218   1.139  0.1119  0.1663 -0.6171
18310SOL    HW172922   7.352   5.309   1.118  1.5073 -0.0036  0.0376
18310SOL    HW272923   7.307   5.179   1.054  3.1248  0.1664 -1.5598
18311SOL     OW72924   8.359   8.415  11.423  0.3242  0.3002 -0.2925
18311SOL    HW172925   8.340   8.486  11.361 -0.5596 -0.2321 -0.6585
18311SOL    HW272926   8.319   8.443  11.505 -0.8026 -0.1518 -0.6707
18312SOL     OW72927  11.056   4.298   8.785  0.3669 -0.6568  0.2338
18312SOL    HW172928  11.047   4.340   8.699  1.1582 -0.6604  0.1396
18312SOL    HW272929  11.049   4.204   8.766 -0.2232 -0.6266  0.2837
18313SOL     OW72930   3.056   9.140  10.415  0.1235 -0.2843 -0.2302
18313SOL    HW172931   2.984   9.194  10.382 -0.4305 -0.8290  0.0506
18313SOL    HW272932   3.014   9.057  10.437  0.8906 -0.6853 -0.2774
18314SOL     OW72933   2.509   6.034   7.674  0.3018  0.3433  0.1346
18314SOL    HW172934   2.428   5.984   7.677  0.1786  0.5505  0.3089
18314SOL    HW272935   2.552   6.015   7.758  0.6876 -0.1820 -0.1730
18315SOL     OW72936   4.804  10.612   5.613 -0.1987  0.4958 -0.4922
18315SOL    HW172937   4.829  10.604   5.704  1.5220  2.0016 -0.7843
18315SOL    HW272938   4.751  10.692   5.609  2.4337  2.3253 -1.2450
18316SOL     OW72939   1.253   2.142  13.462 -0.1946  0.3419  0.3387
18316SOL    HW172940   1.306   2.214  13.496  0.3024  0.0079  0.2962
18316SOL    HW272941   1.215   2.101  13.539  1.4498 -0.8159  0.6014
18317SOL     OW72942   2.682  13.909   0.824  0.1431 -0.1406 -0.1093
18317SOL    HW172943   2.629  13.946   0.895  0.4406  0.3741 -0.1472
18317SOL    HW272944   2.684  13.978   0.758  1.2964  0.0549  0.1143
18318SOL     OW72945   0.399   2.309  14.153 -0.6398  0.1312 -0.0444
18318SOL    HW172946   0.389   2.286  14.245  1.9193 -0.2467  0.2055
18318SOL    HW272947   0.472   2.371  14.151 -0.2059 -0.3782 -1.8904
18319SOL     OW72948  13.185   6.451   1.371  0.3053  0.6221 -0.3336
18319SOL    HW172949  13.091   6.439   1.360  0.4915 -0.8731 -0.4167
18319SOL    HW272950  13.221   6.363   1.373  1.8091  1.1814 -1.0812
18320SOL     OW72951  12.470   0.832   7.465  0.5465  0.7414  0.4038
18320SOL    HW172952  12.521   0.884   7.403 -2.5902  0.6470 -2.5617
18320SOL    HW272953  12.533   0.771   7.503  2.9444  1.8518 -1.5351
18321SOL     OW72954   1.475   3.967   3.688  0.2536 -0.2667  0.3120
18321SOL    HW172955   1.406   4.012   3.738 -0.2741 -1.8600  1.0959
18321SOL    HW272956   1.530   4.037   3.655 -0.0447  0.9393  2.1950
18322SOL     OW72957  10.287   2.272   8.034  0.3025 -0.3636  0.0286
18322SOL    HW172958  10.221   2.341   8.022  1.9320  1.0027 -1.8287
18322SOL    HW272959  10.309   2.276   8.127 -2.9072 -1.6154  0.9748
18323SOL     OW72960   9.877  12.313   5.384 -0.2780 -0.1722  0.2277
18323SOL    HW172961   9.881  12.282   5.475  1.2880 -0.3219  0.1332
18323SOL    HW272962   9.856  12.235   5.333 -0.0996 -0.3073  0.3604
18324SOL     OW72963   2.975   0.023   4.284 -0.4364  0.4406 -0.0847
18324SOL    HW172964   2.948   0.051   4.372 -0.4902 -1.1705  0.4667
18324SOL    HW272965   2.895  -0.013   4.245 -0.3185  0.7765 -0.6451
18325SOL     OW72966   5.075   9.790   3.698  0.0898  0.3410  0.3798
18325SOL    HW172967   5.151   9.792   3.640  0.6835  0.2010  1.1509
18325SOL    HW272968   5.083   9.869   3.751 -1.2010  1.2210 -0.6412
18326SOL     OW72969  11.512  11.651   6.184 -0.3347 -0.1592 -0.3808
18326SOL    HW172970  11.545  11.607   6.106 -0.1746 -0.7262  0.0008
18326SOL    HW272971  11.545  11.599   6.257  0.1241  0.7773  0.0962
18327SOL     OW72972   7.283   3.649  11.990  0.1306  0.0608 -0.2131
18327SOL    HW172973   7.315   3.560  11.980 -1.8752 -0.9181  1.4270
18327SOL    HW272974   7.343   3.702  11.937  0.6291 -2.3743 -2.2776
18328SOL     OW72975   6.712   4.246  13.237  0.4214  0.1729 -0.4779
18328SOL    HW172976   6.728   4.152  13.243 -1.8392 -0.2942 -0.7031
18328SOL    HW272977   6.743   4.271  13.150 -0.6872 -0.7896 -1.1791
18329SOL     OW72978  11.614   6.397  10.471 -0.0107 -0.6777  0.0103
18329SOL    HW172979  11.548   6.388  10.403  0.9508 -0.4016 -0.9861
18329SOL    HW272980  11.655   6.481  10.453 -0.5149 -0.0397  1.6520
18330SOL     OW72981   9.261  10.539   5.679 -0.3160 -0.6808 -0.3286
18330SOL    HW172982   9.340  10.587   5.704  0.3323 -1.6692 -0.4223
18330SOL    HW272983   9.290  10.447   5.674 -1.9132 -1.3769  1.6925
18331SOL     OW72984   9.713   8.194   1.175  0.1264 -0.4357  0.3173
18331SOL    HW172985   9.746   8.117   1.129 -0.5941 -2.4426  2.8918
18331SOL    HW272986   9.618   8.191   1.161  0.0726 -0.1625  0.6216
18332SOL     OW72987  13.820  10.139   3.617  0.1314 -0.0119  0.0275
18332SOL    HW172988  13.891  10.198   3.641  0.4204 -0.3595  0.0216
18332SOL    HW272989  13.817  10.075   3.689  0.0991 -0.2432 -0.1798
18333SOL     OW72990  10.488   4.367   3.293  0.1284 -0.1170  0.7186
18333SOL    HW172991  10.438   4.346   3.371 -1.0448  2.7377  0.8336
18333SOL    HW272992  10.561   4.421   3.324 -0.0430  0.5940 -0.0919
18334SOL     OW72993   2.761   9.215   0.667 -0.5674  0.2227  0.4041
18334SOL    HW172994   2.699   9.261   0.725 -1.3658 -0.2089 -0.0949
18334SOL    HW272995   2.732   9.237   0.579  0.2556  0.3514  0.1581
18335SOL     OW72996  12.612  12.600   0.381  0.2355  0.5071 -0.2069
18335SOL    HW172997  12.613  12.692   0.407 -0.0917  0.5193 -0.2250
18335SOL    HW272998  12.658  12.554   0.452 -0.5876  0.5508  0.3726
18336SOL     OW72999   2.902   2.090  12.777  0.3414 -0.7465 -0.3514
18336SOL    HW173000   2.855   2.082  12.860  1.5296 -1.9119  0.2293
18336SOL    HW273001   2.987   2.127  12.800  0.6004 -0.8729 -1.0694
18337SOL     OW73002   4.684   0.130  12.782 -0.4298  0.3345  0.1152
18337SOL    HW173003   4.660   0.084  12.702 -1.0212 -1.6531  1.3563
18337SOL    HW273004   4.778   0.116  12.790 -0.2113  1.2712 -0.6404
18338SOL     OW73005   6.415  13.731   8.724  0.4514  0.1295  0.0839
18338SOL    HW173006   6.441  13.747   8.815 -0.7087  0.7540  0.3132
18338SOL    HW273007   6.384  13.641   8.724  0.7229  0.0331  0.2378
18339SOL     OW73008   3.294   8.871   7.680 -0.1343  0.1788  0.0800
18339SOL    HW173009   3.306   8.823   7.598 -0.7898 -0.3086  0.2591
18339SOL    HW273010   3.208   8.842   7.712  1.0282 -1.3089  2.0531
18340SOL     OW73011  10.888  12.721   9.636 -0.0334  0.5205  0.5766
18340SOL    HW173012  10.977  12.690   9.647  0.3046  1.4274  0.4625
18340SOL    HW273013  10.866  12.701   9.545  0.0242  0.2226  0.6292
18341SOL     OW73014  12.045   5.059  12.071  0.4303 -0.5037 -0.1256
18341SOL    HW173015  12.112   5.107  12.120 -0.7762  1.3172 -0.1392
18341SOL    HW273016  11.976   5.041  12.135 -1.1074  1.7922 -0.9993
18342SOL     OW73017   5.483   9.050   1.406 -0.6678 -0.1366  0.3926
18342SOL    HW173018   5.405   9.098   1.377  1.0398  3.5084  1.2886
18342SOL    HW273019   5.537   9.042   1.327 -0.4560  0.4488  0.4796
18343SOL     OW73020   3.341   5.095   0.054  0.0475  0.3297  0.2128
18343SOL    HW173021   3.348   5.159  -0.017 -0.9184 -0.2840 -0.4527
18343SOL    HW273022   3.430   5.088   0.088  0.3034  1.5098 -0.1514
18344SOL     OW73023   5.101  13.859   1.677 -0.2536 -0.3467  0.5795
18344SOL    HW173024   5.019  13.852   1.628  1.1121 -0.7374 -1.8033
18344SOL    HW273025   5.139  13.771   1.675  1.2941  0.2993 -0.4052
18345SOL     OW73026   0.011  13.261  11.140 -0.2829 -0.1386  0.4279
18345SOL    HW173027  -0.041  13.182  11.152  1.0008 -1.1932 -0.6200
18345SOL    HW273028  -0.006  13.286  11.049  1.0892 -0.5703  0.0322
18346SOL     OW73029  12.748   9.968   1.209  0.1961  0.3127  0.5234
18346SOL    HW173030  12.730  10.031   1.138 -0.3200  1.0452  1.2768
18346SOL    HW273031  12.785  10.022   1.279  1.5881 -0.5565  0.4873
18347SOL     OW73032   7.681   6.348   1.655  0.3593 -0.0647 -0.0549
18347SOL    HW173033   7.630   6.400   1.593 -1.3120 -2.3754 -0.7192
18347SOL    HW273034   7.643   6.369   1.740 -0.4122 -0.3077 -0.3335
18348SOL     OW73035  10.897  12.045   9.208  0.8771  0.0153  0.2112
18348SOL    HW173036  10.824  12.058   9.269  1.3658 -0.9746  1.0538
18348SOL    HW273037  10.856  12.042   9.122  0.0849  0.7818  0.5463
18349SOL     OW73038  11.737   4.137   9.486  0.1289 -0.0537  0.0433
18349SOL    HW173039  11.744   4.231   9.471 -1.1359  0.5328  2.6509
18349SOL    HW273040  11.827   4.109   9.505  0.5699  0.5110 -1.1323
18350SOL     OW73041   8.479  11.087   5.246 -0.3930  0.5332 -0.5756
18350SOL    HW173042   8.469  11.061   5.338  0.8285 -0.8713 -0.7941
18350SOL    HW273043   8.470  11.005   5.197 -2.8764  1.5034 -1.9249
18351SOL     OW73044   0.081   5.411  13.429 -0.3737 -0.3950  0.5005
18351SOL    HW173045   0.121   5.498  13.435  1.1692 -1.0893  0.8867
18351SOL    HW273046   0.002   5.424  13.377  1.2721  0.7705 -1.8877
18352SOL     OW73047   9.907   3.386   2.452  0.0093 -0.3791 -0.1975
18352SOL    HW173048   9.918   3.480   2.439 -1.4633  0.0644  1.4183
18352SOL    HW273049   9.851   3.358   2.380  0.7118 -0.1056 -0.8638
18353SOL     OW73050   4.602   3.770   0.518 -0.3545 -0.5850  0.5328
18353SOL    HW173051   4.537   3.713   0.558  0.5981 -1.1899  1.2666
18353SOL    HW273052   4.661   3.793   0.590  0.3896 -0.2624 -0.1639
18354SOL     OW73053   2.869   1.508   8.774 -0.9735  0.4234  0.0603
18354SOL    HW173054   2.866   1.434   8.835 -0.7135  0.9615  0.7328
18354SOL    HW273055   2.817   1.479   8.699 -2.7784  0.4046  1.2638
18355SOL     OW73056  12.537   7.199   6.808  0.5133  0.4472  0.5825
18355SOL    HW173057  12.508   7.108   6.806 -0.2103  0.6772  0.4314
18355SOL    HW273058  12.511   7.234   6.723  0.5980  0.8566  0.7254
18356SOL     OW73059  10.376   4.636   7.771 -0.3612  0.2294  0.2261
18356SOL    HW173060  10.328   4.630   7.854  1.0789  0.9556  1.1407
18356SOL    HW273061  10.355   4.724   7.738  0.2322  0.5069  0.5741
18357SOL     OW73062  13.121  12.934   9.575 -0.0821 -0.4276  0.3616
18357SOL    HW173063  13.149  12.944   9.666 -1.0856  1.7099  0.4858
18357SOL    HW273064  13.047  12.994   9.565  1.2860  0.9970 -2.3947
18358SOL     OW73065   9.026   9.923   6.753 -0.0189 -0.4044  0.6577
18358SOL    HW173066   8.966   9.994   6.733 -2.3494 -1.8466  2.0581
18358SOL    HW273067   9.023   9.867   6.675 -0.6290 -0.5358  0.7695
18359SOL     OW73068   7.670   7.177   9.636 -0.0528 -0.0247  0.4333
18359SOL    HW173069   7.608   7.131   9.579 -0.7852  1.2054  0.1929
18359SOL    HW273070   7.728   7.109   9.668 -1.0655 -1.1068  0.0530
18360SOL     OW73071   8.230   1.472  13.704  0.4055  0.2413  0.6308
18360SOL    HW173072   8.201   1.408  13.640  0.8243  0.7006 -0.0442
18360SOL    HW273073   8.153   1.491  13.758 -0.0865  0.2052 -0.0521
18361SOL     OW73074   8.207  11.166   4.027 -0.0110 -0.4950  0.2752
18361SOL    HW173075   8.275  11.146   3.964 -0.0444 -1.8237  0.6329
18361SOL    HW273076   8.246  11.233   4.084 -0.1743  1.1281 -1.4260
18362SOL     OW73077  12.235   6.795   2.355  0.5450  0.5205 -0.6053
18362SOL    HW173078  12.199   6.784   2.267 -1.6178 -1.7698  0.4397
18362SOL    HW273079  12.162   6.773   2.413  2.1144  1.2600  1.7773
18363SOL     OW73080  12.085   0.733   2.156  0.8542 -0.3844 -0.2471
18363SOL    HW173081  12.156   0.786   2.192  1.9643 -1.7634 -0.3406
18363SOL    HW273082  12.116   0.643   2.163 -0.5663 -0.9654 -1.0167
18364SOL     OW73083   1.302   0.376   5.227 -0.3019  0.4226  0.1404
18364SOL    HW173084   1.331   0.290   5.195 -1.8483 -0.2362  0.4268
18364SOL    HW273085   1.211   0.362   5.254 -0.4291  2.0471  0.6401
18365SOL     OW73086   5.056   9.035  10.409 -0.1237 -0.1981  0.3250
18365SOL    HW173087   5.031   9.063  10.321  0.9833 -1.5392 -0.4479
18365SOL    HW273088   5.026   9.107  10.466 -1.7439  0.2523 -0.9956
18366SOL     OW73089   3.315   6.864   5.195 -0.2977 -0.0951 -0.3105
18366SOL    HW173090   3.392   6.904   5.153  0.1086 -0.4145  0.1185
18366SOL    HW273091   3.244   6.925   5.178  0.0100  0.1098 -0.8893
18367SOL     OW73092   6.554  13.416   9.639  0.6719  0.1037  0.0643
18367SOL    HW173093   6.530  13.377   9.724 -0.7532 -0.1255 -0.4101
18367SOL    HW273094   6.507  13.362   9.575 -0.1308  1.6692 -0.7124
18368SOL     OW73095  10.515   1.856  12.084 -0.0905 -0.2760  0.7657
18368SOL    HW173096  10.599   1.853  12.038 -0.8052 -0.7944 -0.5694
18368SOL    HW273097  10.538   1.860  12.176  1.4405  1.9049  0.3633
18369SOL     OW73098   7.843  11.893   4.190 -0.0014  0.6334  0.1929
18369SOL    HW173099   7.787  11.942   4.129 -0.9927 -0.0443  0.5213
18369SOL    HW273100   7.899  11.960   4.230 -0.3546  1.2967 -0.3867
18370SOL     OW73101   8.249  13.302   9.102  0.2387  0.3187  0.3002
18370SOL    HW173102   8.164  13.343   9.087  0.5117  0.9624  0.4708
18370SOL    HW273103   8.260  13.242   9.029 -0.3279  0.2863  0.2357
18371SOL     OW73104   9.344   7.714   6.949  0.1301  0.0150 -0.4893
18371SOL    HW173105   9.339   7.671   6.864 -2.2539  1.4601 -1.1548
18371SOL    HW273106   9.290   7.659   7.007 -1.7002  1.2162 -0.9833
18372SOL     OW73107  10.890  10.202   7.106 -0.5726 -0.3949 -0.0029
18372SOL    HW173108  10.961  10.212   7.169  2.2358  0.3680 -3.0063
18372SOL    HW273109  10.862  10.291   7.087  0.7200 -0.3206 -1.8822
18373SOL     OW73110   8.674   7.274   2.881  0.0262 -0.3381 -0.2671
18373SOL    HW173111   8.680   7.204   2.816  2.1937 -0.2345 -0.2538
18373SOL    HW273112   8.753   7.265   2.933 -0.2938  1.3248  0.5732
18374SOL     OW73113   9.058   4.741   7.232  0.9574 -0.1222  0.3152
18374SOL    HW173114   9.055   4.650   7.263  0.2338  0.0707  0.8197
18374SOL    HW273115   9.019   4.792   7.303  0.1865  0.4411 -0.5004
18375SOL     OW73116   9.185   2.464   6.147 -0.3174  0.7190  0.6334
18375SOL    HW173117   9.168   2.372   6.169  0.4665  0.7300  1.3439
18375SOL    HW273118   9.106   2.492   6.100 -0.8487 -0.1254  0.9820
18376SOL     OW73119   6.398   6.633   2.826 -0.5718  0.1135  0.1899
18376SOL    HW173120   6.442   6.692   2.765  0.3888 -0.9748 -0.2134
18376SOL    HW273121   6.305   6.642   2.806 -0.2683 -0.4199 -1.6231
18377SOL     OW73122   6.211   7.818   3.704  0.8151 -0.0096  0.3780
18377SOL    HW173123   6.180   7.908   3.705 -1.8680 -0.8162 -0.5368
18377SOL    HW273124   6.260   7.809   3.785  1.2598  2.2871  0.4259
18378SOL     OW73125   2.144   5.554  14.012 -0.7282 -0.3788  0.7836
18378SOL    HW173126   2.075   5.570  13.947 -0.3924  1.5106  0.8299
18378SOL    HW273127   2.147   5.459  14.020  2.0775 -1.2491 -5.0741
18379SOL     OW73128   1.242   8.958   2.837 -0.4913 -0.4527  0.3703
18379SOL    HW173129   1.303   9.020   2.797 -0.8227 -0.8034 -0.7286
18379SOL    HW273130   1.229   8.990   2.926  0.9721 -0.1412  0.4952
18380SOL     OW73131   2.571  12.610  10.461  0.0564 -0.4796 -0.1371
18380SOL    HW173132   2.516  12.688  10.460 -1.3962 -1.4675 -0.6677
18380SOL    HW273133   2.610  12.607  10.374 -1.1756 -1.1915 -0.6884
18381SOL     OW73134   2.030   8.184   8.415  0.1000 -0.3181 -0.2391
18381SOL    HW173135   2.100   8.162   8.476 -1.2544 -3.8906  0.2676
18381SOL    HW273136   2.069   8.172   8.328  0.8953  0.7610 -0.0577
18382SOL     OW73137   8.098   7.081   6.479  0.0680  0.6852  0.7392
18382SOL    HW173138   8.055   7.005   6.438  0.7969 -0.0068  1.2435
18382SOL    HW273139   8.036   7.152   6.466 -0.5575  0.0469  0.0992
18383SOL     OW73140  13.990  11.075   9.864  0.4739  0.2710  0.5796
18383SOL    HW173141  14.083  11.057   9.872  0.6813  0.9139 -0.2636
18383SOL    HW273142  13.981  11.120   9.780 -1.0700 -3.0982 -1.2687
18384SOL     OW73143   9.259  13.275   1.479 -0.0691 -0.3639  0.4330
18384SOL    HW173144   9.220  13.360   1.459 -0.9219 -0.5345  1.3083
18384SOL    HW273145   9.353  13.292   1.481 -0.1775  0.3940 -0.1324
18385SOL     OW73146  12.380   1.477   6.354 -0.4127  0.8183  0.3509
18385SOL    HW173147  12.369   1.559   6.306 -0.3482 -0.1797 -1.4526
18385SOL    HW273148  12.387   1.410   6.286  0.2206 -0.6124  1.7613
18386SOL     OW73149   6.534   8.017  13.725  0.0849 -0.3682  0.3325
18386SOL    HW173150   6.500   8.077  13.791 -2.5633 -0.1360 -1.1456
18386SOL    HW273151   6.581   7.951  13.776 -1.4990  0.0316  2.4516
18387SOL     OW73152   9.153   4.607   0.285  0.1507  0.1316 -0.6227
18387SOL    HW173153   9.239   4.596   0.245  0.3436  0.0572 -0.1960
18387SOL    HW273154   9.172   4.643   0.372 -0.1926 -0.7464 -0.1693
18388SOL     OW73155   1.831   6.896  12.949  0.1677 -0.1462 -0.0331
18388SOL    HW173156   1.840   6.978  12.998 -0.8643  0.6556 -1.1236
18388SOL    HW273157   1.753   6.909  12.895  0.2004 -1.7201 -0.4983
18389SOL     OW73158   7.715  13.026   5.099 -0.8465  0.1749  0.6311
18389SOL    HW173159   7.648  13.050   5.163 -0.7756 -2.5010  1.8508
18389SOL    HW273160   7.675  12.955   5.049  0.0902  0.4346 -0.5319
18390SOL     OW73161   1.694   3.522   6.494 -0.2385 -0.7172 -0.2792
18390SOL    HW173162   1.693   3.613   6.523 -0.7311 -0.7181 -0.2914
18390SOL    HW273163   1.627   3.517   6.426  0.3085 -0.9157 -0.8091
18391SOL     OW73164   1.218  12.980   1.827  0.0523 -0.1919 -0.1713
18391SOL    HW173165   1.229  12.932   1.745 -1.5589  2.1305 -1.9064
18391SOL    HW273166   1.124  12.996   1.833  0.2465  0.5471  1.6416
18392SOL     OW73167  10.155   4.436   1.959  0.1028 -0.0096 -0.5248
18392SOL    HW173168  10.074   4.388   1.942  0.2336  0.0965 -1.5129
18392SOL    HW273169  10.143   4.519   1.914  0.0240  0.7691  0.8631
18393SOL     OW73170   7.993  11.474  11.200  0.3798 -0.4774  0.0311
18393SOL    HW173171   8.022  11.535  11.267  0.2994 -0.3004 -0.0923
18393SOL    HW273172   8.021  11.514  11.117  1.3482 -1.1795  0.0098
18394SOL     OW73173  12.513   7.230   4.629  0.4891  0.0877  0.4814
18394SOL    HW173174  12.484   7.165   4.564  1.4480 -0.4966  0.6147
18394SOL    HW273175  12.570   7.180   4.688 -0.2995  0.6236  1.7384
18395SOL     OW73176   7.660   7.712   2.409  0.2250 -0.3914 -0.4714
18395SOL    HW173177   7.639   7.719   2.316  0.7069  0.7542 -0.5117
18395SOL    HW273178   7.588   7.660   2.446  0.5798 -1.7678 -1.6522
18396SOL     OW73179   5.263  11.228   5.694  0.7630 -0.2102  0.5143
18396SOL    HW173180   5.274  11.253   5.786  0.6890 -0.4166  0.5812
18396SOL    HW273181   5.227  11.306   5.652  1.3906  0.0895  0.5315
18397SOL     OW73182   4.066   6.198   5.733  0.0162 -0.7374  0.5971
18397SOL    HW173183   3.987   6.187   5.679  1.2288 -1.5821 -1.1145
18397SOL    HW273184   4.114   6.116   5.722  2.1357  0.5110 -0.1442
18398SOL     OW73185  14.085  10.181   7.550 -0.0656  0.1612  0.1235
18398SOL    HW173186  14.086  10.276   7.545  1.8638  0.2345  1.0269
18398SOL    HW273187  14.038  10.160   7.631 -2.6721  0.1852 -1.2746
18399SOL     OW73188   5.765   7.078   7.970  0.5286  0.1927 -0.1264
18399SOL    HW173189   5.775   6.984   7.955 -0.2378  0.0732  0.0332
18399SOL    HW273190   5.718   7.083   8.053  1.9674  0.7628  0.6731
18400SOL     OW73191  12.989  13.514   5.674  0.0391 -0.1840 -0.1967
18400SOL    HW173192  12.986  13.555   5.761 -1.4297  1.1630 -0.8267
18400SOL    HW273193  12.998  13.421   5.692  2.9544  0.2738  1.3068
18401SOL     OW73194   6.195   3.525  12.810 -0.5832  0.1616 -0.1347
18401SOL    HW173195   6.163   3.547  12.722 -1.0738  0.0123  0.0037
18401SOL    HW273196   6.154   3.591  12.867 -1.2357 -0.4776  0.1442
18402SOL     OW73197   6.085  13.832  11.448  0.0539 -0.0319  0.3133
18402SOL    HW173198   6.021  13.903  11.435  1.0021  0.8426  0.2918
18402SOL    HW273199   6.161  13.875  11.485  0.7935 -0.9904 -0.0551
18403SOL     OW73200   1.700   7.519   5.925  0.5314 -0.7404 -0.0733
18403SOL    HW173201   1.767   7.480   5.982 -1.3857 -2.0132  1.4307
18403SOL    HW273202   1.679   7.603   5.966 -0.7288 -1.5821  1.0542
18404SOL     OW73203  13.373  11.069  12.470 -0.6410 -0.5575 -0.1603
18404SOL    HW173204  13.329  11.129  12.410  0.8496  1.5829  0.7699
18404SOL    HW273205  13.428  11.014  12.413  0.0161  0.7852 -0.8737
18405SOL     OW73206   8.728  11.087   8.366  0.2578  0.0777  0.0277
18405SOL    HW173207   8.769  11.168   8.397 -0.6004  0.1299  1.0759
18405SOL    HW273208   8.758  11.020   8.427  2.4504 -0.8129 -1.8915
18406SOL     OW73209  12.921   7.271   3.725 -0.0689 -0.1936 -0.4559
18406SOL    HW173210  12.920   7.210   3.651  0.9951  0.7239 -1.2599
18406SOL    HW273211  12.830   7.298   3.735 -0.2752 -0.5731 -1.2131
18407SOL     OW73212  13.990   9.561   2.016 -0.3882 -0.6151 -0.3193
18407SOL    HW173213  13.894   9.569   2.019 -0.5266 -1.7869 -0.7657
18407SOL    HW273214  14.023   9.648   2.039 -1.5137 -0.8306  2.5251
18408SOL     OW73215   2.821  14.098   4.078  0.4315  0.1708  0.0550
18408SOL    HW173216   2.740  14.139   4.105  0.5577  0.7526 -0.4456
18408SOL    HW273217   2.795  14.033   4.013  0.1413 -1.1401  1.4009
18409SOL     OW73218   1.285  12.789   2.944 -0.1128 -0.1232  0.2794
18409SOL    HW173219   1.215  12.854   2.946 -0.6178 -0.6087 -0.6045
18409SOL    HW273220   1.310  12.783   2.851  2.4696  1.4295  0.7853
18410SOL     OW73221   6.064   8.820  10.225  0.3597  0.3128 -0.0213
18410SOL    HW173222   6.059   8.744  10.168  0.5073  0.1795  0.1417
18410SOL    HW273223   6.097   8.785  10.308 -0.2825  0.4264  0.2858
18411SOL     OW73224  12.389  11.128   7.205 -0.4274 -0.1781  0.1598
18411SOL    HW173225  12.399  11.045   7.251  0.9496  0.5510  1.2455
18411SOL    HW273226  12.467  11.178   7.227 -1.1427  1.3622 -0.5971
18412SOL     OW73227  11.088   6.531   8.797  0.1696  0.5326  0.2094
18412SOL    HW173228  11.069   6.532   8.891 -0.2880 -1.9911  0.2168
18412SOL    HW273229  11.163   6.473   8.789 -0.2225  0.1814 -1.0517
18413SOL     OW73230  13.545   5.461  12.212  0.4431 -0.1584  0.2432
18413SOL    HW173231  13.597   5.423  12.142  1.1235  0.4167  0.4275
18413SOL    HW273232  13.587   5.545  12.231 -0.2668  0.1033  0.7209
18414SOL     OW73233  13.453   6.969   7.487 -0.7326 -0.4728  0.0493
18414SOL    HW173234  13.485   7.001   7.572 -1.9097  1.8797 -0.3349
18414SOL    HW273235  13.532   6.963   7.433 -0.0239 -1.6184  1.1524
18415SOL     OW73236  11.752  10.118   7.944  0.3851  0.1022  0.1076
18415SOL    HW173237  11.724  10.191   8.000 -1.2480 -0.6700  0.3623
18415SOL    HW273238  11.847  10.116   7.954  0.2613  0.7820  1.8819
18416SOL     OW73239   1.090   9.302   0.335 -0.2698  0.2532 -0.0985
18416SOL    HW173240   1.095   9.320   0.241 -0.5038 -2.0976 -0.6385
18416SOL    HW273241   0.996   9.294   0.353 -0.2442  1.0762  0.4287
18417SOL     OW73242   4.558   2.232   1.982  0.1522 -0.3547  0.7618
18417SOL    HW173243   4.546   2.256   1.890 -0.2062 -2.2422  0.2753
18417SOL    HW273244   4.605   2.149   1.979 -0.6868 -0.9125  2.2520
18418SOL     OW73245   9.426  13.273  10.219 -0.0321 -0.1966 -0.0479
18418SOL    HW173246   9.371  13.197  10.232 -0.1706 -0.1580 -0.3862
18418SOL    HW273247   9.511  13.249  10.256  0.1278 -0.7723 -0.7638
18419SOL     OW73248   5.209   8.211   1.365 -0.3962  0.5495 -0.1340
18419SOL    HW173249   5.266   8.282   1.394 -0.3140  0.5156 -0.2137
18419SOL    HW273250   5.126   8.227   1.411 -0.3518  0.6496 -0.0884
18420SOL     OW73251  11.139   1.508  13.791 -0.4786 -0.0489 -0.2335
18420SOL    HW173252  11.113   1.476  13.705 -2.1320  1.1042 -0.2054
18420SOL    HW273253  11.059   1.506  13.843 -0.1008  1.6730  0.4969
18421SOL     OW73254  13.705  10.052  11.078 -0.0740  0.5123 -0.4752
18421SOL    HW173255  13.668   9.992  11.013  1.5872  0.8765 -1.8271
18421SOL    HW273256  13.646  10.046  11.153 -0.7943 -1.6490 -1.1514
18422SOL     OW73257   2.970  13.476  11.227  0.5567 -0.2882 -0.1126
18422SOL    HW173258   2.948  13.500  11.137  2.7372  0.7673 -0.4247
18422SOL    HW273259   2.943  13.551  11.279  0.0331 -0.5707  0.0374
18423SOL     OW73260  11.799  12.149   2.013 -0.2331 -0.1039  0.2383
18423SOL    HW173261  11.748  12.142   2.093 -0.1098  2.7216  0.6605
18423SOL    HW273262  11.867  12.214   2.032 -0.8727  1.5276 -2.3963
18424SOL     OW73263   0.945   5.265   2.717  0.3442  0.2770  0.4709
18424SOL    HW173264   0.944   5.205   2.643  0.4628  2.6781 -1.6070
18424SOL    HW273265   0.856   5.300   2.723  0.2516 -0.1083  1.6866
18425SOL     OW73266   8.781  14.080   9.970 -0.1524 -0.4128 -0.0853
18425SOL    HW173267   8.811  14.170   9.984 -0.4770 -0.1068 -1.2717
18425SOL    HW273268   8.721  14.063  10.042 -0.1151  0.3259  0.1282
18426SOL     OW73269  12.694   7.688   0.201  0.0721  0.0649 -0.1260
18426SOL    HW173270  12.664   7.737   0.277 -2.0345 -0.7838 -0.3238
18426SOL    HW273271  12.666   7.597   0.218 -1.2332 -0.0095 -2.2059
18427SOL     OW73272   0.497   4.780  12.513  0.5282  0.3950  0.6583
18427SOL    HW173273   0.535   4.723  12.447  1.5607 -0.0683  1.6227
18427SOL    HW273274   0.407   4.794  12.484  0.6375 -0.6906 -0.2499
18428SOL     OW73275   1.421   7.103   6.309  0.1413  0.1232  0.3619
18428SOL    HW173276   1.436   7.191   6.275  1.6304 -0.3967 -0.4387
18428SOL    HW273277   1.428   7.046   6.231 -1.4764 -0.6488  0.7430
18429SOL     OW73278   7.894  10.171   2.462 -0.2963 -0.1757  0.0973
18429SOL    HW173279   7.901  10.248   2.519 -0.0470 -0.3452  0.2964
18429SOL    HW273280   7.801  10.167   2.438 -0.3697 -0.0068  0.3524
18430SOL     OW73281   7.190   9.827   8.937 -0.5812 -0.0216 -0.0691
18430SOL    HW173282   7.238   9.751   8.903 -0.2099  0.2287 -0.1111
18430SOL    HW273283   7.186   9.887   8.863 -1.3146 -0.2084 -0.1837
18431SOL     OW73284  10.502   3.113  10.632  0.3194  0.1577  0.7750
18431SOL    HW173285  10.475   3.160  10.553  2.2543 -0.0739 -0.0626
18431SOL    HW273286  10.491   3.020  10.610 -0.6396  0.1109  1.3708
18432SOL     OW73287   9.453   2.111   3.432 -0.4363  0.1958  0.7240
18432SOL    HW173288   9.400   2.191   3.439  0.3481  0.6479  1.7105
18432SOL    HW273289   9.516   2.117   3.503  1.6540  0.1868 -1.0061
18433SOL     OW73290  12.551  12.522   0.055 -0.6318 -0.3765  0.0557
18433SOL    HW173291  12.573  12.522   0.148  0.8938  4.2014 -0.0824
18433SOL    HW273292  12.630  12.554   0.012 -1.7119 -1.1932 -2.7254
18434SOL     OW73293  14.045   8.863   8.793 -0.6776 -0.3818 -0.6908
18434SOL    HW173294  14.113   8.803   8.821  0.4560  0.2693 -1.9107
18434SOL    HW273295  14.087   8.950   8.794 -1.3948 -0.0019 -1.7021
18435SOL     OW73296  12.389   8.816  13.779  0.7799 -0.5077 -0.4084
18435SOL    HW173297  12.340   8.756  13.835  0.2957 -0.5259 -0.8496
18435SOL    HW273298  12.324   8.852  13.718  1.0652  0.4665 -0.1542
18436SOL     OW73299   9.982   4.145  11.240  0.5313 -0.5630  0.0926
18436SOL    HW173300   9.913   4.104  11.188 -0.4308  0.1052  0.8047
18436SOL    HW273301  10.030   4.071  11.279  0.3336 -1.0375 -0.5496
18437SOL     OW73302   9.992   4.458  13.990 -0.4724  0.3114  0.1570
18437SOL    HW173303  10.047   4.524  13.949 -0.7363  0.1174 -0.5389
18437SOL    HW273304   9.980   4.488  14.080 -1.9274  2.0789 -0.5677
18438SOL     OW73305   3.705   4.282  10.043 -0.1033  0.4287 -0.2852
18438SOL    HW173306   3.789   4.267   9.999 -1.5844 -1.6502 -2.7321
18438SOL    HW273307   3.728   4.294  10.135  2.8824  0.2398 -0.8958
18439SOL     OW73308   6.454   1.304  11.280  0.0149 -0.3223 -0.4014
18439SOL    HW173309   6.484   1.352  11.203 -0.0036 -1.0557 -0.8740
18439SOL    HW273310   6.534   1.289  11.331  0.1130 -0.2939 -0.5437
18440SOL     OW73311  13.052  12.663  10.273  0.2992  0.2665 -0.0657
18440SOL    HW173312  13.014  12.691  10.190  1.2095 -0.3631 -0.7018
18440SOL    HW273313  13.118  12.599  10.250  0.9543  0.4862  1.1092
18441SOL     OW73314  12.505   3.086   3.306 -0.1245 -0.1629  0.0426
18441SOL    HW173315  12.475   3.158   3.362 -1.0133 -0.1295 -0.4541
18441SOL    HW273316  12.453   3.011   3.334 -1.1875  0.0442 -1.2523
18442SOL     OW73317   2.398   3.927  13.631  0.2012  0.0666  0.0789
18442SOL    HW173318   2.398   3.876  13.712  0.4442 -0.4742 -0.2559
18442SOL    HW273319   2.307   3.952  13.619 -0.1490 -1.3794 -0.4192
18443SOL     OW73320   4.193   9.521   5.358  0.2304 -0.2738 -0.1576
18443SOL    HW173321   4.188   9.529   5.262  0.5442  0.6223 -0.1066
18443SOL    HW273322   4.280   9.555   5.380 -0.3591  0.8166  0.5667
18444SOL     OW73323  12.938   3.890   6.996  0.2074 -0.5401 -0.2630
18444SOL    HW173324  12.860   3.879   7.050  0.8786 -2.0867  0.4333
18444SOL    HW273325  13.010   3.895   7.058  0.8054 -0.4341 -0.9492
18445SOL     OW73326   8.610   2.151   7.118 -0.3882 -0.6433  0.6574
18445SOL    HW173327   8.593   2.241   7.092 -0.0300 -0.1458  2.0297
18445SOL    HW273328   8.526   2.106   7.108 -0.9339  0.2026  1.2923
18446SOL     OW73329   6.081  11.559  12.964 -0.2970 -0.4178  0.4510
18446SOL    HW173330   6.092  11.516  13.048  0.1339 -1.3604 -0.0713
18446SOL    HW273331   6.169  11.565  12.927 -0.7236 -2.3706 -1.0410
18447SOL     OW73332   0.223  13.912  13.219 -0.7982  0.0681  0.1844
18447SOL    HW173333   0.192  13.823  13.237 -0.5428  0.1426  1.0215
18447SOL    HW273334   0.210  13.959  13.301  2.6467 -0.2272  1.0644
18448SOL     OW73335   6.509   2.979  11.622  0.4588 -0.0939  0.0271
18448SOL    HW173336   6.420   2.947  11.608  0.7137 -0.2744 -1.2603
18448SOL    HW273337   6.498   3.071  11.645 -0.0726 -0.2250  0.3279
18449SOL     OW73338   1.577   3.120  12.998  0.1268  0.3509  0.5456
18449SOL    HW173339   1.557   3.032  13.029  0.8066  0.6660  1.9640
18449SOL    HW273340   1.515   3.176  13.045  0.0386  0.6717  0.0440
18450SOL     OW73341  12.732   7.403   6.246  0.7074 -0.2188  0.2901
18450SOL    HW173342  12.641   7.414   6.273  0.8790  2.8530 -0.0774
18450SOL    HW273343  12.727   7.381   6.153  0.3598 -2.8328  0.8383
18451SOL     OW73344   2.325   6.966   0.474 -0.2121  0.3042  0.5833
18451SOL    HW173345   2.329   6.871   0.474 -1.0362  0.2470  1.6332
18451SOL    HW273346   2.232   6.987   0.465  0.1020  1.0621 -1.3293
18452SOL     OW73347  13.387   9.575   8.476  0.1655  0.3685 -0.1715
18452SOL    HW173348  13.403   9.568   8.570  1.7707 -0.1094 -0.4570
18452SOL    HW273349  13.298   9.611   8.470  0.3618  1.2457  1.5172
18453SOL     OW73350   0.481   6.394   2.674 -0.2092 -0.3483 -0.3355
18453SOL    HW173351   0.421   6.323   2.695  1.1401 -2.2454 -2.4767
18453SOL    HW273352   0.463   6.415   2.583  0.6201  0.8495 -0.2434
18454SOL     OW73353   3.042  11.031  13.722 -0.2924 -0.4698  0.4552
18454SOL    HW173354   3.133  11.007  13.705  0.0202  0.7467  0.2572
18454SOL    HW273355   3.039  11.054  13.815 -0.4257 -0.6290  0.4906
18455SOL     OW73356   3.562   0.393  11.757 -0.0270  0.0883  0.2889
18455SOL    HW173357   3.573   0.318  11.700 -0.7037  0.7510 -0.7471
18455SOL    HW273358   3.634   0.452  11.733  0.1238  0.0529  0.6455
18456SOL     OW73359   8.011  10.068   9.453 -0.0984 -0.2607 -0.2001
18456SOL    HW173360   8.027  10.000   9.388  0.9015 -0.1528 -0.0748
18456SOL    HW273361   7.975  10.021   9.528  3.5057 -1.2264  1.1225
18457SOL     OW73362   4.586  13.221   8.599  0.1984  0.2557  0.2966
18457SOL    HW173363   4.538  13.295   8.562 -1.5214 -1.3453 -0.8723
18457SOL    HW273364   4.533  13.192   8.673  1.6639  1.1004  1.7179
18458SOL     OW73365   5.160   4.527  11.590  0.1565 -0.1396 -0.3844
18458SOL    HW173366   5.166   4.605  11.536 -0.9868 -0.0766 -0.4587
18458SOL    HW273367   5.082   4.481  11.557 -0.2736 -0.3524  0.8732
18459SOL     OW73368   5.502   0.416  11.920  0.0689  0.3099  0.1796
18459SOL    HW173369   5.536   0.407  11.831  2.7245  2.2785  0.8582
18459SOL    HW273370   5.434   0.483  11.913  0.1768  0.3682 -0.3878
18460SOL     OW73371   3.296  11.203   8.341 -0.2559  0.5775 -0.1991
18460SOL    HW173372   3.229  11.273   8.342  0.4753  1.4617 -2.8564
18460SOL    HW273373   3.333  11.208   8.253  2.0824 -1.0933  0.6045
18461SOL     OW73374   7.612   3.454  12.740 -0.6163 -0.5065  0.3729
18461SOL    HW173375   7.574   3.541  12.731  1.7529  0.5141 -0.7678
18461SOL    HW273376   7.646   3.452  12.830  2.2028  1.1476 -0.5189
18462SOL     OW73377   6.864   1.228  10.902 -0.3496 -0.3598  0.4196
18462SOL    HW173378   6.863   1.145  10.853  0.0492  0.1139 -0.4277
18462SOL    HW273379   6.820   1.208  10.984  1.2893 -1.8867  0.9959
18463SOL     OW73380  11.300   8.388   9.874  0.0735  0.4928 -0.5308
18463SOL    HW173381  11.212   8.389   9.839  0.4989 -2.1991 -1.9567
18463SOL    HW273382  11.333   8.300   9.854  3.1750  1.4750 -0.3273
18464SOL     OW73383  10.760  12.909   9.305 -0.1729 -0.3607 -0.0049
18464SOL    HW173384  10.791  12.819   9.318 -0.1892 -0.5884 -1.3921
18464SOL    HW273385  10.666  12.900   9.291 -0.7876  0.2214  3.0420
18465SOL     OW73386   1.750  12.265   8.123  0.2017  0.0182  0.4297
18465SOL    HW173387   1.811  12.296   8.057  0.9030  0.0631  1.0834
18465SOL    HW273388   1.677  12.227   8.073  0.4905  0.4760 -0.3583
18466SOL     OW73389   1.537   1.538  14.116  0.2313 -0.2686  0.2679
18466SOL    HW173390   1.475   1.480  14.160  0.5078 -2.9291 -2.5234
18466SOL    HW273391   1.489   1.574  14.042  0.8510  1.0130  0.4546
18467SOL     OW73392   4.240   8.931   4.459  0.0790 -0.0373  0.1288
18467SOL    HW173393   4.250   8.965   4.548 -0.8458 -1.3312  0.7556
18467SOL    HW273394   4.314   8.872   4.448  0.4351  0.4519 -0.1305
18468SOL     OW73395   8.362   7.155   3.057  0.2207 -0.0362  0.0284
18468SOL    HW173396   8.280   7.134   3.101 -0.4213 -2.0841 -1.9387
18468SOL    HW273397   8.391   7.237   3.097 -1.8700 -0.1695  1.9843
18469SOL     OW73398   7.581  12.709   7.470 -0.0493  0.4465 -0.1606
18469SOL    HW173399   7.559  12.616   7.484 -4.0723  1.3255  0.6782
18469SOL    HW273400   7.605  12.741   7.556 -0.0549  0.4759 -0.1700
18470SOL     OW73401   5.012  12.021   7.203 -0.3393 -0.4082 -0.2475
18470SOL    HW173402   5.047  12.078   7.271  1.6265  1.0071 -2.3021
18470SOL    HW273403   4.968  11.950   7.251  2.8618 -0.7331  2.5666
18471SOL     OW73404   1.030  13.136   5.384  0.1383  0.3181 -0.0098
18471SOL    HW173405   1.016  13.216   5.333  2.2385 -0.3335 -1.7562
18471SOL    HW273406   1.110  13.152   5.434 -0.6884  0.1135  1.4638
18472SOL     OW73407   2.830   8.698   7.863 -0.4965 -0.3742 -0.0719
18472SOL    HW173408   2.883   8.620   7.873 -0.7151 -0.5750 -0.4750
18472SOL    HW273409   2.858   8.736   7.780  1.2669  1.2580  1.1758
18473SOL     OW73410  13.878   7.275   7.060  0.4086  0.3165  0.2101
18473SOL    HW173411  13.827   7.214   7.113 -0.7231  0.7327 -0.3606
18473SOL    HW273412  13.826   7.287   6.981 -0.9077  4.0897  1.3800
18474SOL     OW73413   2.230   1.376   3.701 -0.0811  0.3089 -0.0638
18474SOL    HW173414   2.306   1.433   3.686 -1.0790  1.6648 -0.1020
18474SOL    HW273415   2.262   1.289   3.679  1.4187  0.8665 -0.2651
18475SOL     OW73416  10.379   7.246  11.650  0.0200 -0.2105 -0.4286
18475SOL    HW173417  10.375   7.273  11.742 -3.5764 -1.3629 -0.1090
18475SOL    HW273418  10.395   7.327  11.602 -0.5734  0.8289  1.0633
18476SOL     OW73419  10.365  10.800   0.108 -0.2401  0.5427  0.7435
18476SOL    HW173420  10.370  10.777   0.201  0.7084  1.0482  0.8377
18476SOL    HW273421  10.447  10.847   0.091 -1.2375  2.1279  0.1007
18477SOL     OW73422   8.384  10.112   6.368  0.1230 -0.0655 -0.0067
18477SOL    HW173423   8.369  10.177   6.299 -1.4096 -1.4236 -1.0133
18477SOL    HW273424   8.430  10.041   6.324  1.9271  0.3269  1.1275
18478SOL     OW73425  10.321   8.447   0.901 -0.3304 -0.1187  0.2492
18478SOL    HW173426  10.338   8.450   0.995  1.1639  1.2061 -0.0309
18478SOL    HW273427  10.255   8.378   0.891 -2.0109  1.0536  2.4667
18479SOL     OW73428   6.674   0.564   9.086  0.0901 -0.0044  0.6183
18479SOL    HW173429   6.621   0.605   9.019  0.1228  1.4809  1.4594
18479SOL    HW273430   6.657   0.615   9.165  1.5814 -0.4483  1.2655
18480SOL     OW73431   8.488   0.078   3.679 -0.7193  0.2135 -0.1515
18480SOL    HW173432   8.505   0.167   3.649  0.3229 -0.1840 -0.8193
18480SOL    HW273433   8.566   0.029   3.653 -1.2811 -0.9020  0.1886
18481SOL     OW73434  10.085   8.056   4.494  0.2973  0.0822 -0.3339
18481SOL    HW173435  10.043   8.024   4.573 -0.1550  0.8413 -0.2522
18481SOL    HW273436  10.177   8.031   4.503  0.1532 -0.2699  0.1902
18482SOL     OW73437  12.660  12.109   1.730  0.2831  0.3153  0.2528
18482SOL    HW173438  12.723  12.180   1.716  0.8842  0.1423  1.7889
18482SOL    HW273439  12.713  12.030   1.732 -0.2544 -0.0712 -0.4267
18483SOL     OW73440  11.037   4.613   2.305 -0.2334 -0.1736  0.5063
18483SOL    HW173441  11.049   4.639   2.397  0.2439  0.7888  0.1870
18483SOL    HW273442  11.126   4.603   2.271 -0.2144 -5.0428  1.2889
18484SOL     OW73443  11.035  12.636   4.138  0.1599  0.3065  0.3517
18484SOL    HW173444  11.109  12.589   4.100  0.0418  0.0033  0.4931
18484SOL    HW273445  10.981  12.660   4.063 -0.6649 -1.2905  0.3936
18485SOL     OW73446  12.320   1.303   2.267 -0.0331 -0.1690  0.1712
18485SOL    HW173447  12.370   1.266   2.339 -1.8459 -0.7223  1.2185
18485SOL    HW273448  12.376   1.372   2.231  2.4277 -2.2585 -0.2689
18486SOL     OW73449  10.517   4.378   6.874  0.0621  0.2048  0.3117
18486SOL    HW173450  10.504   4.285   6.890 -1.0158  0.4728  1.0320
18486SOL    HW273451  10.606   4.384   6.838  0.1880 -1.0753  0.3920
18487SOL     OW73452   8.521   0.242   9.865 -0.0420  0.1464  0.3629
18487SOL    HW173453   8.539   0.251   9.959 -2.1210 -1.5319  1.0090
18487SOL    HW273454   8.586   0.298   9.823  1.1361  0.7495  2.7763
18488SOL     OW73455   2.581  11.866   0.626  0.2485 -0.8420  0.4572
18488SOL    HW173456   2.629  11.907   0.698 -2.7737  0.1117  2.1622
18488SOL    HW273457   2.560  11.779   0.658 -1.3720 -0.3085  0.9648
18489SOL     OW73458  13.992   6.820   1.932 -0.1002 -0.1738  0.5822
18489SOL    HW173459  13.935   6.812   1.854 -0.4370 -3.9712  1.0000
18489SOL    HW273460  14.078   6.843   1.896 -0.5433 -0.5210 -0.7907
18490SOL     OW73461   9.323   7.929   9.338 -0.4724 -0.3099 -0.8604
18490SOL    HW173462   9.278   8.010   9.314 -2.9201 -1.1396  0.5428
18490SOL    HW273463   9.416   7.950   9.330 -1.0492  2.0600 -2.2711
18491SOL     OW73464  11.548   3.495  13.263  0.6647  0.0275  0.3910
18491SOL    HW173465  11.566   3.576  13.311  0.1881  0.3548  0.0357
18491SOL    HW273466  11.452   3.494  13.253  0.6214 -0.8258  0.8143
18492SOL     OW73467   0.353  10.455   4.086  0.3021 -0.2777  0.2511
18492SOL    HW173468   0.258  10.446   4.094  0.3998 -1.2324  0.4031
18492SOL    HW273469   0.366  10.508   4.008 -0.3662  0.2234  0.4717
18493SOL     OW73470  11.750  10.996   2.430 -0.4497 -0.0741 -0.2794
18493SOL    HW173471  11.814  11.050   2.477 -1.7853  1.1157  0.2455
18493SOL    HW273472  11.712  10.940   2.498 -0.6494 -0.0924 -0.4065
18494SOL     OW73473  12.020   2.478   9.466  0.0664 -0.2181  0.0857
18494SOL    HW173474  11.937   2.432   9.482  0.5241 -0.6435  1.3687
18494SOL    HW273475  12.069   2.468   9.548  1.1405  0.5565 -0.4385
18495SOL     OW73476  10.111   1.705  12.506 -0.4441  0.5666 -0.6719
18495SOL    HW173477  10.117   1.674  12.596  1.5205  0.1529 -0.8939
18495SOL    HW273478  10.037   1.657  12.469 -0.3819 -0.3237  0.3139
18496SOL     OW73479   1.434   9.748   7.601 -0.6116 -0.4928  0.3314
18496SOL    HW173480   1.435   9.666   7.652 -2.3363 -0.2292  0.8470
18496SOL    HW273481   1.342   9.774   7.599 -0.0640  1.6223  0.4614
18497SOL     OW73482   3.251   9.733   2.001  0.5865  0.1156  0.3213
18497SOL    HW173483   3.294   9.775   1.926 -2.7529  0.7600 -1.4626
18497SOL    HW273484   3.220   9.807   2.054 -0.0941 -0.2320  0.4181
18498SOL     OW73485   2.685  12.892   7.944 -0.2011 -0.1151 -0.5629
18498SOL    HW173486   2.612  12.867   8.000  1.3072 -0.4530  1.3327
18498SOL    HW273487   2.643  12.929   7.866 -2.3793 -0.7197  0.2470
18499SOL     OW73488  12.021  10.899  12.085  0.0267  0.5650 -0.0288
18499SOL    HW173489  12.036  10.988  12.055 -1.1553  1.4523  1.8546
18499SOL    HW273490  12.108  10.860  12.090  0.5287  1.4925 -1.1540
18500SOL     OW73491   3.639   5.014   9.736 -0.5575  0.2974  0.0238
18500SOL    HW173492   3.717   4.989   9.686 -1.1210 -3.3714  0.6628
18500SOL    HW273493   3.661   4.991   9.826 -2.5057 -1.4099  0.1418
18501SOL     OW73494   5.512  11.908   3.283  0.3982 -0.6416 -0.0010
18501SOL    HW173495   5.547  11.990   3.318 -1.5698 -0.0394  0.6514
18501SOL    HW273496   5.495  11.928   3.191  0.6234 -0.5523 -0.0245
18502SOL     OW73497  12.371   5.253  13.365  0.0159 -0.5221  0.0803
18502SOL    HW173498  12.410   5.329  13.323  0.1914  0.1467  1.4206
18502SOL    HW273499  12.445   5.206  13.404 -0.4779  1.1315  3.2453
18503SOL     OW73500   1.409   8.766  11.707  0.2749 -0.2694  0.4718
18503SOL    HW173501   1.427   8.835  11.771 -0.4490  0.0101  0.3837
18503SOL    HW273502   1.478   8.702  11.721  0.9271  0.4446  0.5976
18504SOL     OW73503   1.727   3.209   3.704 -0.0190 -0.1304  0.1416
18504SOL    HW173504   1.661   3.140   3.699 -0.6408  0.3000  1.7184
18504SOL    HW273505   1.676   3.290   3.702  0.3654  0.2047  2.0754
18505SOL     OW73506   6.137   3.267   8.291 -0.0705 -0.7449 -0.2939
18505SOL    HW173507   6.212   3.279   8.233 -0.3741  1.3547 -0.3338
18505SOL    HW273508   6.063   3.251   8.232 -0.4689  1.8610 -0.6110
18506SOL     OW73509  12.063   9.413   2.941  0.3145  0.3705  0.1738
18506SOL    HW173510  11.986   9.420   2.885  0.6645 -0.8355 -0.5221
18506SOL    HW273511  12.137   9.430   2.882  0.5615  3.9908  1.3378
18507SOL     OW73512   4.794   0.168   4.721 -0.3648 -0.3040 -0.8334
18507SOL    HW173513   4.775   0.137   4.632  0.3583 -1.7378 -0.5233
18507SOL    HW273514   4.759   0.099   4.778 -0.6221  0.4919 -0.0052
18508SOL     OW73515   3.584   1.861   2.251  0.2260  0.2564  0.1360
18508SOL    HW173516   3.525   1.842   2.178  1.6998  1.6871 -1.5371
18508SOL    HW273517   3.606   1.775   2.287  0.0674 -0.5787 -1.6394
18509SOL     OW73518  11.066   4.534  12.062  0.3060 -0.2496  0.0716
18509SOL    HW173519  11.119   4.462  12.098 -0.6247 -0.7004  0.5910
18509SOL    HW273520  11.110   4.613  12.092 -0.4021 -0.6133  2.1943
18510SOL     OW73521   6.689   0.802  13.973  0.7104 -0.4978 -0.1127
18510SOL    HW173522   6.781   0.777  13.961  0.4463 -1.8121  0.4494
18510SOL    HW273523   6.650   0.728  14.018 -0.6645 -0.0020 -0.4453
18511SOL     OW73524   9.817  13.683  13.402  0.4107 -0.5294 -0.0968
18511SOL    HW173525   9.786  13.767  13.368 -0.5214 -0.5911  0.5661
18511SOL    HW273526   9.912  13.688  13.395  0.3103  0.0551 -1.2872
18512SOL     OW73527   3.074  12.999  12.834  0.3291 -0.0347  0.5115
18512SOL    HW173528   3.096  13.087  12.802  1.6960 -0.3541  0.4921
18512SOL    HW273529   3.138  12.942  12.792  0.1699 -0.8891  1.3951
18513SOL     OW73530   5.275   2.028   0.003  0.1065  0.0231  0.4408
18513SOL    HW173531   5.207   2.005  -0.060  0.9638  1.7986 -1.2135
18513SOL    HW273532   5.235   2.097   0.057  0.0765 -0.0481  0.5109
18514SOL     OW73533  10.434   4.410   5.888 -0.6476  0.0249  0.2705
18514SOL    HW173534  10.340   4.407   5.876 -0.5435  0.6629 -0.8131
18514SOL    HW273535  10.466   4.471   5.821  0.4050  0.7878  1.4121
18515SOL     OW73536  10.708   6.436   1.814 -0.2395 -0.1033  0.3703
18515SOL    HW173537  10.658   6.500   1.765 -0.1660 -1.4385 -1.5509
18515SOL    HW273538  10.799   6.451   1.788  0.0917  0.5669  1.7956
18516SOL     OW73539  10.780  13.985  11.983  0.2865  0.2063 -0.8153
18516SOL    HW173540  10.828  13.904  11.998 -0.3371 -0.7230 -3.4491
18516SOL    HW273541  10.848  14.052  11.977  0.9311 -0.3928 -0.3656
18517SOL     OW73542   8.126   6.050  12.128  0.0367  0.1896 -0.1521
18517SOL    HW173543   8.158   6.140  12.133 -0.1510  0.3529 -1.4487
18517SOL    HW273544   8.189   6.006  12.071 -0.8332 -0.0380 -0.9650
18518SOL     OW73545   0.379   9.478   4.252  0.0829  0.2771  0.2655
18518SOL    HW173546   0.331   9.442   4.177  1.0941  0.9175 -0.7401
18518SOL    HW273547   0.362   9.572   4.248  1.6879  0.5731 -0.3570
18519SOL     OW73548   8.353   4.452  13.006  0.5254  0.1316 -0.5375
18519SOL    HW173549   8.387   4.505  12.933 -0.2960 -0.0724 -1.0732
18519SOL    HW273550   8.330   4.368  12.967  0.7159 -0.2243  0.0958
18520SOL     OW73551   1.590  10.810  12.500 -0.0554 -0.7067 -0.0116
18520SOL    HW173552   1.646  10.737  12.477 -1.1689 -0.8840 -2.4204
18520SOL    HW273553   1.506  10.791  12.458 -0.4091  1.8847 -0.6499
18521SOL     OW73554  10.865   7.315  12.943  0.2992 -0.2090 -0.3551
18521SOL    HW173555  10.931   7.359  12.889  2.0207 -1.6029  0.5125
18521SOL    HW273556  10.848   7.232  12.897 -0.0340 -0.3335 -0.0097
18522SOL     OW73557   3.216  11.224  11.430 -0.0318 -0.2111 -0.9892
18522SOL    HW173558   3.283  11.172  11.473 -0.1131  0.8304  0.4796
18522SOL    HW273559   3.146  11.231  11.495 -0.1841  1.3781 -1.2772
18523SOL     OW73560   2.918   4.237   3.889 -0.0563 -0.1605 -0.0300
18523SOL    HW173561   2.954   4.149   3.904  0.7781  0.0214 -0.8985
18523SOL    HW273562   2.826   4.222   3.867 -0.1128 -0.7579  0.5686
18524SOL     OW73563   9.091   5.351   8.856 -0.0137 -0.5607 -0.7184
18524SOL    HW173564   9.053   5.376   8.941  0.0596 -1.2619 -0.4653
18524SOL    HW273565   9.154   5.282   8.878  0.4145 -0.3537 -1.2896
18525SOL     OW73566   5.174  12.667  10.890  0.5694 -0.3642  0.1332
18525SOL    HW173567   5.079  12.657  10.900  0.8131 -1.3291  2.2259
18525SOL    HW273568   5.189  12.669  10.796 -1.5431 -0.0093 -0.2392
18526SOL     OW73569  13.895   5.598   1.355 -0.6250  0.1042 -0.1598
18526SOL    HW173570  13.906   5.684   1.314  0.6122  0.0600  0.0484
18526SOL    HW273571  13.980   5.579   1.395 -1.1081 -0.8925  0.4295
18527SOL     OW73572  13.424   2.392   5.375  0.1796 -0.4648 -0.0372
18527SOL    HW173573  13.461   2.351   5.453 -1.7769 -1.0683  0.6252
18527SOL    HW273574  13.487   2.460   5.352  0.5472  0.1249  2.4308
18528SOL     OW73575  13.101   4.890   0.274  0.0181 -0.2292  0.4815
18528SOL    HW173576  13.081   4.881   0.181  0.4841  1.8201  0.1392
18528SOL    HW273577  13.195   4.908   0.277 -0.1333  0.5171  1.2718
18529SOL     OW73578   2.858   6.731  13.306  1.1568 -0.7921 -0.2414
18529SOL    HW173579   2.805   6.734  13.227 -0.2689  1.0628  0.7100
18529SOL    HW273580   2.907   6.814  13.306  1.6543 -1.0710  0.4741
18530SOL     OW73581   8.098   9.200  13.569  0.6574  0.6520  0.6128
18530SOL    HW173582   8.054   9.122  13.602  4.3300 -1.0692  1.9743
18530SOL    HW273583   8.093   9.263  13.641  0.3389  0.5562  0.6768
18531SOL     OW73584   7.992   1.416   0.851 -0.5307  0.0228  0.1969
18531SOL    HW173585   8.079   1.388   0.880  0.7549  3.2260 -0.1961
18531SOL    HW273586   8.003   1.433   0.757 -0.9192  2.4231  0.5290
18532SOL     OW73587   5.015  13.490  10.697 -0.0910  0.1113 -0.6816
18532SOL    HW173588   5.040  13.405  10.733 -2.5643 -0.2838  0.2645
18532SOL    HW273589   5.072  13.552  10.743  1.9358 -0.9872 -1.5770
18533SOL     OW73590   3.476  11.154   3.553  0.3562 -0.2541  0.4086
18533SOL    HW173591   3.531  11.183   3.479  1.5025 -1.7918  0.6206
18533SOL    HW273592   3.495  11.217   3.622  2.2566 -1.0118  0.6322
18534SOL     OW73593   9.067  13.938   1.572 -0.1495  0.1206 -0.1381
18534SOL    HW173594   9.131  13.975   1.632  0.0533 -0.7999  0.2249
18534SOL    HW273595   9.090  13.975   1.487  0.8994 -0.2289 -0.0190
18535SOL     OW73596  12.302  12.947   4.112  0.1600 -0.4032  0.2296
18535SOL    HW173597  12.357  12.953   4.034  1.9774  0.4298  1.5054
18535SOL    HW273598  12.364  12.933   4.184 -1.2447  0.9883  1.7924
18536SOL     OW73599   9.977   6.499   5.103  0.0972 -0.0740 -0.0033
18536SOL    HW173600   9.971   6.575   5.044 -0.1771 -1.2670 -1.6042
18536SOL    HW273601   9.929   6.526   5.181 -1.2199  0.9166 -1.0960
18537SOL     OW73602  13.821   2.018   1.968  0.2159 -0.2831  0.4251
18537SOL    HW173603  13.916   2.022   1.982  0.5578  2.9180 -1.7947
18537SOL    HW273604  13.785   2.085   2.025 -0.3417  0.5047 -0.8162
18538SOL     OW73605   8.201   5.225   8.802  0.4772  0.4274 -0.2392
18538SOL    HW173606   8.277   5.204   8.856  0.6417  0.3273 -0.5087
18538SOL    HW273607   8.231   5.295   8.745  0.1946  0.7857  0.0473
18539SOL     OW73608   9.668   3.539   1.030 -0.2234  0.4592  0.6381
18539SOL    HW173609   9.647   3.625   1.067 -1.3096  1.4931 -2.1701
18539SOL    HW273610   9.588   3.511   0.986  0.8004 -0.9595 -0.4092
18540SOL     OW73611   9.750  13.029  11.404  0.2133  0.4053  0.2110
18540SOL    HW173612   9.696  13.074  11.469 -1.1473  0.6266 -1.0155
18540SOL    HW273613   9.690  12.970  11.359  0.6150  1.6483 -2.1343
18541SOL     OW73614  13.578   1.443   6.054  0.3912  0.5640 -0.5329
18541SOL    HW173615  13.629   1.386   5.997 -1.0807 -1.5541  0.1152
18541SOL    HW273616  13.574   1.396   6.138 -0.6258  1.7808  0.1375
18542SOL     OW73617   9.003   8.162  12.551  0.0864  0.0281 -0.2892
18542SOL    HW173618   8.918   8.205  12.555 -0.3657 -0.7523 -1.2073
18542SOL    HW273619   9.009   8.114  12.633 -0.7848 -0.6763 -0.6231
18543SOL     OW73620   2.236   2.895   6.873  0.1726 -0.2046 -0.3145
18543SOL    HW173621   2.176   2.942   6.815 -0.8044 -1.4422 -0.3484
18543SOL    HW273622   2.318   2.888   6.823  0.0104  0.5467 -0.7026
18544SOL     OW73623   2.067  12.097  12.909  0.7230 -0.1858  0.0493
18544SOL    HW173624   2.020  12.176  12.884  1.2848  0.0454 -0.2910
18544SOL    HW273625   2.150  12.127  12.944  0.1385 -0.5318  1.8259
18545SOL     OW73626   6.577   0.326   2.797 -0.4250  0.2351  0.8783
18545SOL    HW173627   6.530   0.386   2.740 -0.2676 -1.6980 -1.4646
18545SOL    HW273628   6.534   0.241   2.784  1.9307 -1.0293  0.7437
18546SOL     OW73629   6.451   4.912   2.593  0.2600 -0.1248 -0.4057
18546SOL    HW173630   6.516   4.938   2.658 -0.3181  0.0887  0.0904
18546SOL    HW273631   6.414   4.994   2.561  0.2834 -0.2431 -0.7418
18547SOL     OW73632   3.694  11.222   4.675 -0.3142  0.0960 -0.1883
18547SOL    HW173633   3.771  11.185   4.632  0.2428  3.0924 -2.0619
18547SOL    HW273634   3.620  11.177   4.634  0.3335  0.0257 -1.3155
18548SOL     OW73635   4.283  10.216   3.740 -0.1346 -0.4572  0.3032
18548SOL    HW173636   4.295  10.175   3.826 -0.5822 -1.0467  0.0839
18548SOL    HW273637   4.357  10.276   3.733  1.9647 -2.9438 -0.3942
18549SOL     OW73638   9.950   7.430   3.728  0.5998  0.2194  0.5736
18549SOL    HW173639  10.037   7.408   3.696  0.9443 -0.0479  1.6448
18549SOL    HW273640   9.891   7.369   3.684  1.0703 -0.1971  0.5272
18550SOL     OW73641  10.617  11.841  10.746 -0.8229  0.0472  0.3767
18550SOL    HW173642  10.606  11.847  10.651 -1.6628  0.6333  0.5053
18550SOL    HW273643  10.570  11.761  10.771 -2.9517  1.2995  0.6179
18551SOL     OW73644   3.565   4.556   7.462  0.6028 -0.3207  0.1029
18551SOL    HW173645   3.553   4.633   7.517  0.9756 -1.4813  1.9036
18551SOL    HW273646   3.659   4.538   7.464  1.1846  1.3385 -3.5160
18552SOL     OW73647   3.854  10.102  13.787 -0.0037  0.6150 -0.4407
18552SOL    HW173648   3.941  10.075  13.759  0.1008  1.4252 -0.9337
18552SOL    HW273649   3.795  10.066  13.722 -0.3722 -2.3001  1.3438
18553SOL     OW73650  10.012  10.263  11.332  0.5473 -0.2342  0.0588
18553SOL    HW173651   9.938  10.279  11.273  0.9539  2.2704  0.0829
18553SOL    HW273652  10.089  10.286  11.279  0.9906  1.0061  1.1965
18554SOL     OW73653   6.841  13.350   6.478 -0.1385 -0.0075 -0.1729
18554SOL    HW173654   6.842  13.292   6.554 -2.0270 -0.6584 -0.5925
18554SOL    HW273655   6.843  13.291   6.403 -1.3292  0.4837 -0.6110
18555SOL     OW73656   9.225  11.694  12.168 -0.7377 -0.2799 -0.0093
18555SOL    HW173657   9.282  11.761  12.204 -1.0796  0.5557 -0.9809
18555SOL    HW273658   9.219  11.628  12.237  1.5621 -0.5212  0.0553
18556SOL     OW73659   6.667   0.622   3.518 -0.3888 -0.4807 -0.0313
18556SOL    HW173660   6.623   0.672   3.450  0.1104  0.2165  0.1534
18556SOL    HW273661   6.759   0.626   3.495  0.0047  1.3228  1.6671
18557SOL     OW73662  13.103   0.926  12.159 -0.0481  0.3280  0.3856
18557SOL    HW173663  13.198   0.935  12.170 -0.1352  1.3121  0.4032
18557SOL    HW273664  13.080   0.848  12.209  0.6928  0.3396  0.7492
18558SOL     OW73665  11.757  10.321   8.806 -0.0511 -0.4658  0.3069
18558SOL    HW173666  11.686  10.287   8.752  0.2245  1.7703 -1.6550
18558SOL    HW273667  11.715  10.352   8.885 -1.3642  1.0219 -0.9126
18559SOL     OW73668   2.364   1.166   1.956  0.0758  0.1142  0.1825
18559SOL    HW173669   2.374   1.094   2.018 -0.9237  1.0252  1.4694
18559SOL    HW273670   2.442   1.161   1.901  0.2986 -1.5949  0.5875
18560SOL     OW73671   5.561  10.639  12.193 -0.3118 -0.3870 -0.5607
18560SOL    HW173672   5.600  10.554  12.214 -0.3060 -0.6512 -1.5507
18560SOL    HW273673   5.562  10.642  12.097 -2.5940 -0.3359 -0.6223
18561SOL     OW73674   3.071   9.613  10.954  0.1302 -1.1181  0.1216
18561SOL    HW173675   3.008   9.674  10.916  1.6827  1.2511  1.1252
18561SOL    HW273676   3.025   9.529  10.957 -2.6602  0.3217  0.1016
18562SOL     OW73677   1.739  12.272  10.939  0.6160  0.2940  0.0453
18562SOL    HW173678   1.800  12.207  10.974  1.4485  0.7412 -0.5433
18562SOL    HW273679   1.776  12.298  10.855  0.2134  1.3962  0.1823
18563SOL     OW73680  10.693   6.163   4.212  0.3012 -0.8581  0.2453
18563SOL    HW173681  10.784   6.159   4.241  0.0221 -0.2315  1.2432
18563SOL    HW273682  10.675   6.076   4.177  0.8804 -1.4125  1.2784
18564SOL     OW73683   7.185   7.572   7.644 -0.0091 -0.3307 -0.0717
18564SOL    HW173684   7.110   7.628   7.622  0.1531  0.1922  0.6614
18564SOL    HW273685   7.215   7.538   7.560 -0.6690 -0.0315 -0.4410
18565SOL     OW73686  11.487   9.749   8.681 -0.0995  0.6935 -0.9555
18565SOL    HW173687  11.495   9.836   8.720  0.0832 -0.2804  1.3372
18565SOL    HW273688  11.577   9.719   8.670 -0.1450 -0.0688  0.4588
18566SOL     OW73689   4.881   5.102   6.135  0.3516  0.0637  0.0386
18566SOL    HW173690   4.950   5.087   6.071  0.1641  1.3249 -0.4812
18566SOL    HW273691   4.847   5.189   6.115 -0.9491 -0.2527  0.6961
18567SOL     OW73692   3.813   5.201  11.019  0.3898  0.1512 -0.5378
18567SOL    HW173693   3.774   5.266  10.960  0.4143 -0.6548 -1.4745
18567SOL    HW273694   3.772   5.218  11.104  1.5780  2.4278 -0.3522
18568SOL     OW73695   6.461   5.130   5.453  0.0011 -0.1964  0.1651
18568SOL    HW173696   6.535   5.071   5.463 -1.1889 -1.9093 -0.6607
18568SOL    HW273697   6.394   5.095   5.512 -0.3838  0.9704  0.4480
18569SOL     OW73698   7.970   3.478   7.995  0.6139  0.2818  0.1179
18569SOL    HW173699   7.907   3.405   7.991  0.0135  0.6723  1.7435
18569SOL    HW273700   7.980   3.496   8.088  2.4223  0.8828 -0.1501
18570SOL     OW73701   9.861   5.793   4.963  0.2503  0.2323 -0.7419
18570SOL    HW173702   9.846   5.699   4.978 -2.2355  0.5866 -0.6403
18570SOL    HW273703   9.919   5.795   4.886 -0.1957 -1.3775 -1.1737
18571SOL     OW73704   8.076   0.891  11.240  0.1172  0.1955 -0.0932
18571SOL    HW173705   8.013   0.820  11.254 -1.8845  1.9192  0.0161
18571SOL    HW273706   8.106   0.913  11.328 -0.4341  0.4897  0.0268
18572SOL     OW73707  12.011   6.618  11.700 -0.1946  0.3981 -0.4073
18572SOL    HW173708  12.106   6.612  11.697 -0.1654  0.9566 -1.0901
18572SOL    HW273709  11.990   6.692  11.642 -1.1019 -0.3620 -1.0771
18573SOL     OW73710   1.921   0.704  12.660  0.2330 -0.2641  0.0092
18573SOL    HW173711   1.831   0.702  12.693  0.1415 -0.1734 -0.2360
18573SOL    HW273712   1.962   0.778  12.706  0.1679 -0.2707  0.0789
18574SOL     OW73713   5.340   4.043   3.378  0.6853  0.0587 -0.6108
18574SOL    HW173714   5.395   3.975   3.337 -2.9078 -3.4008 -0.3334
18574SOL    HW273715   5.262   4.046   3.323 -1.6464 -0.1982  2.4563
18575SOL     OW73716   4.341  10.617   6.993  0.4045 -0.0547  0.7124
18575SOL    HW173717   4.390  10.555   7.046  0.3490 -0.6983  0.0249
18575SOL    HW273718   4.370  10.703   7.024  0.9481 -0.4193  1.2419
18576SOL     OW73719   2.429   4.284   3.776  0.2096  0.5769  0.5224
18576SOL    HW173720   2.414   4.344   3.703  0.3953  0.3008  0.2569
18576SOL    HW273721   2.370   4.315   3.845 -1.7854 -0.5755 -0.5583
18577SOL     OW73722   9.059   6.924   2.607  0.0601 -0.0554  0.1896
18577SOL    HW173723   9.135   6.866   2.602  1.5738  1.7809  0.7080
18577SOL    HW273724   9.057   6.953   2.698 -1.8406 -0.7510  0.4121
18578SOL     OW73725  13.479   4.004   1.499 -0.0906  0.6456  0.0863
18578SOL    HW173726  13.413   4.027   1.434  1.3013  0.1644 -1.5602
18578SOL    HW273727  13.534   3.939   1.456  2.5343  2.2965  0.7171
18579SOL     OW73728  12.148   3.779  13.567 -0.1587  0.5016 -0.3030
18579SOL    HW173729  12.146   3.853  13.628  0.2685  0.6744 -0.4931
18579SOL    HW273730  12.098   3.710  13.611  0.3142  0.5548  0.3314
18580SOL     OW73731   6.750  10.021  12.569 -0.3143  0.1823 -0.1832
18580SOL    HW173732   6.716  10.109  12.550 -0.7512  0.0240 -0.1613
18580SOL    HW273733   6.684   9.962  12.532 -1.4993 -0.1541  2.2672
18581SOL     OW73734   9.447   5.472   9.803  0.2220 -0.1430  0.0831
18581SOL    HW173735   9.505   5.503   9.733  0.9606  1.0148  1.1668
18581SOL    HW273736   9.407   5.552   9.838 -1.7391 -0.8731 -0.3471
18582SOL     OW73737  12.648   1.760   4.889 -0.8626  0.9606  0.0340
18582SOL    HW173738  12.738   1.788   4.900 -0.0079 -1.5692  0.1561
18582SOL    HW273739  12.640   1.742   4.795 -0.6176 -0.5861  0.2817
18583SOL     OW73740  11.100   5.746  10.587  0.0985  0.3670  0.0590
18583SOL    HW173741  11.170   5.729  10.649  1.5453 -1.3015 -1.8812
18583SOL    HW273742  11.023   5.766  10.641  1.6210  0.4700  2.2840
18584SOL     OW73743   9.544  10.359   8.922 -0.2503 -0.0607  0.0117
18584SOL    HW173744   9.529  10.285   8.980 -2.1215  0.1396 -0.1514
18584SOL    HW273745   9.625  10.337   8.875 -0.2626 -1.5468  0.6348
18585SOL     OW73746  12.883   2.425   5.379  0.3245 -0.1065 -0.9793
18585SOL    HW173747  12.947   2.390   5.441  0.1848 -0.5526 -1.0852
18585SOL    HW273748  12.934   2.483   5.323  0.2601  1.2116  0.2511
18586SOL     OW73749  11.624   4.538   1.983  0.1784 -0.1135 -0.2033
18586SOL    HW173750  11.529   4.545   1.994  0.1421  0.0654 -0.5892
18586SOL    HW273751  11.653   4.486   2.058 -0.2733 -0.5226 -0.3051
18587SOL     OW73752   2.062   6.125  12.031 -0.3839  0.3868 -0.1729
18587SOL    HW173753   1.969   6.148  12.024 -0.5246 -0.5082 -2.0661
18587SOL    HW273754   2.066   6.063  12.103 -1.0007  1.5414  0.8879
18588SOL     OW73755  10.856   4.687   1.571 -0.0345  0.3630 -0.1288
18588SOL    HW173756  10.896   4.757   1.623  1.6259 -0.5729 -0.0552
18588SOL    HW273757  10.816   4.629   1.635  0.3097  0.2254 -0.0359
18589SOL     OW73758   4.245   7.318   9.194  0.4791 -0.3955 -0.4358
18589SOL    HW173759   4.298   7.249   9.153  0.0322  0.4842 -2.6528
18589SOL    HW273760   4.154   7.295   9.171  0.2606  0.4044 -0.4040
18590SOL     OW73761  12.518   9.705  11.176  0.6097  0.3222 -0.3425
18590SOL    HW173762  12.434   9.725  11.219 -0.0731  2.9249 -2.6128
18590SOL    HW273763  12.518   9.610  11.167 -0.6071 -0.0719  2.4601
18591SOL     OW73764   6.825   5.092  13.940  0.1640  0.0255  0.2342
18591SOL    HW173765   6.916   5.106  13.915  0.0644  1.9543  0.7961
18591SOL    HW273766   6.810   4.999  13.924  1.5976  0.0827 -1.8952
18592SOL     OW73767   7.486  13.655   6.331 -0.1053  0.2996 -0.3226
18592SOL    HW173768   7.449  13.574   6.296  1.1645  0.6219 -2.5720
18592SOL    HW273769   7.420  13.686   6.393 -2.0442 -0.8702 -1.6946
18593SOL     OW73770  10.669  11.492   3.258 -0.2821  0.2391 -0.2053
18593SOL    HW173771  10.708  11.568   3.214 -0.7362 -0.3660 -1.7373
18593SOL    HW273772  10.741  11.454   3.309 -0.0554  1.6767  0.5817
18594SOL     OW73773  10.582   2.714  10.301 -0.6472  0.1935  0.8180
18594SOL    HW173774  10.500   2.668  10.289 -0.8274  0.5827  0.5520
18594SOL    HW273775  10.613   2.732  10.212 -2.0796  3.2489  0.8443
18595SOL     OW73776   4.868   8.578  12.735 -0.3367 -0.2435 -0.4259
18595SOL    HW173777   4.795   8.554  12.792  0.4245 -1.2970  0.1524
18595SOL    HW273778   4.833   8.646  12.678 -0.7603  1.8685  2.1623
18596SOL     OW73779   8.030  11.547   6.078  0.1189 -0.4733 -0.1855
18596SOL    HW173780   8.015  11.506   5.993  1.3119 -1.9771  0.2847
18596SOL    HW273781   8.026  11.475   6.140  1.4179  0.2533  0.7820
18597SOL     OW73782  10.657  11.209   9.271 -0.0566  0.1627 -0.1509
18597SOL    HW173783  10.665  11.261   9.191  2.8248  2.5580  1.4902
18597SOL    HW273784  10.614  11.268   9.333 -1.4262 -1.3385  0.3888
18598SOL     OW73785   3.058   8.550   2.823  0.0052  0.8146 -0.0165
18598SOL    HW173786   3.082   8.613   2.892 -2.2033  0.9367  0.7136
18598SOL    HW273787   2.986   8.591   2.776 -0.5171 -0.5362 -0.4640
18599SOL     OW73788  13.734  10.423  11.804 -0.1741 -0.5213 -0.0449
18599SOL    HW173789  13.739  10.489  11.734  1.8016 -0.5789 -0.0338
18599SOL    HW273790  13.644  10.426  11.834 -0.3137  1.7244 -0.5075
18600SOL     OW73791   6.176   0.954   8.735 -0.7430 -0.0599 -0.1661
18600SOL    HW173792   6.192   1.009   8.811  0.7653 -1.5371  0.6526
18600SOL    HW273793   6.227   0.994   8.665  0.7777 -0.6534  0.5605
18601SOL     OW73794  11.536   7.919   1.301 -0.3474 -0.3449  0.0301
18601SOL    HW173795  11.482   7.956   1.370 -1.4287 -3.3266  0.9247
18601SOL    HW273796  11.498   7.953   1.220  0.7830  3.0083  0.7237
18602SOL     OW73797   3.323   4.952   7.524 -0.1013  0.3663  0.2629
18602SOL    HW173798   3.309   4.995   7.439 -0.1463  0.0148  0.0887
18602SOL    HW273799   3.361   5.020   7.579  0.5659  0.4209 -0.2411
18603SOL     OW73800   3.346   7.125   6.013 -0.4555 -0.8932 -0.1611
18603SOL    HW173801   3.426   7.129   6.065  0.1123  0.6265 -1.0667
18603SOL    HW273802   3.297   7.052   6.049  2.1107 -3.0483 -0.6778
18604SOL     OW73803  11.858   4.626   2.722  0.4818  0.3431 -0.5336
18604SOL    HW173804  11.904   4.684   2.661  2.6934 -1.8036 -1.0391
18604SOL    HW273805  11.919   4.617   2.795 -1.2279  1.1555  1.0650
18605SOL     OW73806  12.942   2.971   3.026 -0.0110  0.0065  0.5642
18605SOL    HW173807  12.864   3.020   3.054 -0.2167  0.8807 -1.3384
18605SOL    HW273808  12.913   2.880   3.024 -1.4319  0.4208 -1.2179
18606SOL     OW73809   7.061   1.623   0.491  0.2457  0.5851 -0.6583
18606SOL    HW173810   7.078   1.661   0.405  1.7766  2.5776  0.4462
18606SOL    HW273811   6.967   1.638   0.506 -0.2261 -0.5332 -2.2780
18607SOL     OW73812  11.124   7.883   4.047 -0.5914  0.0446 -0.4748
18607SOL    HW173813  11.045   7.911   4.002 -0.9111 -0.4404 -0.2197
18607SOL    HW273814  11.190   7.875   3.978 -1.0480 -0.5792 -0.8432
18608SOL     OW73815  12.134  12.686   2.726 -0.5811 -0.0062  0.1383
18608SOL    HW173816  12.141  12.649   2.814  0.1004 -0.8793 -0.2620
18608SOL    HW273817  12.138  12.781   2.739  2.4533 -0.1192  0.8885
18609SOL     OW73818   0.857   2.019   4.928  0.5320 -0.0410 -0.1933
18609SOL    HW173819   0.834   2.064   5.009 -0.5190 -0.0568 -0.4699
18609SOL    HW273820   0.824   2.075   4.858  1.6824  0.1119 -0.6303
18610SOL     OW73821  11.166  12.985   1.094 -0.0546  0.0525 -0.0569
18610SOL    HW173822  11.118  13.042   1.035 -1.6439  0.0717  1.1990
18610SOL    HW273823  11.257  12.991   1.064 -0.4460  1.8900 -1.0139
18611SOL     OW73824  10.262   2.151   4.370 -0.2692  0.1225  0.2146
18611SOL    HW173825  10.177   2.195   4.360  1.0060  2.7207  0.0538
18611SOL    HW273826  10.316   2.187   4.300  0.9855 -1.5405  0.2770
18612SOL     OW73827   0.870   5.790  12.601  0.2739  0.1600 -0.5312
18612SOL    HW173828   0.794   5.735  12.581  0.0499  0.6398 -1.0082
18612SOL    HW273829   0.909   5.810  12.515  1.1063 -0.3138 -0.2771
18613SOL     OW73830   1.687   4.692   3.909  0.1067  0.3534  0.0539
18613SOL    HW173831   1.764   4.650   3.870 -0.1990 -0.9045  0.7602
18613SOL    HW273832   1.688   4.664   4.000 -0.0382  2.0289  0.6169
18614SOL     OW73833   8.743   5.572  12.141 -0.3672  0.1822 -0.1389
18614SOL    HW173834   8.748   5.604  12.051  2.3698  1.0638  0.2110
18614SOL    HW273835   8.774   5.482  12.136 -1.0182 -0.0446 -0.1694
18615SOL     OW73836   8.097   9.209   8.486  0.0529  0.2008 -0.2129
18615SOL    HW173837   8.106   9.151   8.411 -1.5352 -0.1833 -0.1305
18615SOL    HW273838   8.073   9.152   8.559 -1.0481  0.8686 -0.0205
18616SOL     OW73839   9.072   1.483   1.067  0.0332 -0.4296  0.1956
18616SOL    HW173840   9.061   1.416   1.135 -1.5671  0.3899  0.8126
18616SOL    HW273841   9.161   1.516   1.080  0.3978 -1.5724  0.6832
18617SOL     OW73842  10.113   4.284   2.461  0.2142  0.0588  0.2985
18617SOL    HW173843  10.069   4.348   2.404 -0.8630 -0.6713  0.2735
18617SOL    HW273844  10.198   4.271   2.421 -0.2480  0.1053 -0.7398
18618SOL     OW73845   4.344   9.057  12.552 -0.2000  0.0067 -0.0824
18618SOL    HW173846   4.333   9.052  12.647  1.2931  3.1595  0.3963
18618SOL    HW273847   4.429   9.015  12.536 -1.1512 -1.9487 -0.3346
18619SOL     OW73848   5.648  11.486   3.479  0.3870 -0.5214 -0.0694
18619SOL    HW173849   5.554  11.504   3.493  0.5140  0.0286  0.1092
18619SOL    HW273850   5.669  11.420   3.545 -0.2229 -1.8069 -1.1146
18620SOL     OW73851   3.650   0.654  13.411 -0.6483  0.7632 -0.0589
18620SOL    HW173852   3.631   0.728  13.468 -0.8246  0.4272  0.3287
18620SOL    HW273853   3.745   0.652  13.403 -0.6868  1.6288 -0.8856
18621SOL     OW73854   7.838   2.711  11.494  0.2897 -0.3349  0.4486
18621SOL    HW173855   7.826   2.730  11.401  2.0470 -0.5768  0.1327
18621SOL    HW273856   7.930   2.686  11.502 -0.2131 -1.8946  2.0102
18622SOL     OW73857   6.326   0.082  12.197  0.6897 -0.7244 -0.2011
18622SOL    HW173858   6.319   0.098  12.103  0.2544  0.5353  0.0303
18622SOL    HW273859   6.420   0.083  12.214  0.7798 -1.1134 -0.6378
18623SOL     OW73860  14.157  11.822  11.502  0.5269  0.0214  0.3615
18623SOL    HW173861  14.120  11.738  11.527  0.9252 -1.2151 -2.7028
18623SOL    HW273862  14.211  11.803  11.425  1.9762  2.8401  0.5278
18624SOL     OW73863   9.551   3.812   5.632  0.0977 -0.3638 -0.0559
18624SOL    HW173864   9.468   3.819   5.680 -0.4434 -0.5356 -0.9511
18624SOL    HW273865   9.532   3.752   5.560  0.7870  0.2222 -0.7342
18625SOL     OW73866  10.093  10.326  12.524  0.2706  0.1562  0.2644
18625SOL    HW173867  10.099  10.248  12.469 -1.5667  0.3620 -0.3133
18625SOL    HW273868  10.150  10.308  12.598  0.2991 -1.5087 -0.1252
18626SOL     OW73869   5.971   8.408   9.936  0.7324 -0.4521  0.5664
18626SOL    HW173870   5.918   8.331   9.955 -1.5476  0.6180 -1.0729
18626SOL    HW273871   5.908   8.477   9.916  2.6644  0.5669 -2.8331
18627SOL     OW73872  12.591  11.465   9.855 -0.1593 -0.0487  0.4791
18627SOL    HW173873  12.645  11.527   9.806  2.0686  1.4652  4.3496
18627SOL    HW273874  12.638  11.382   9.848  0.4010  0.2656  0.4189
18628SOL     OW73875   0.137   8.084   5.779 -0.2474 -0.1654 -0.9145
18628SOL    HW173876   0.155   8.132   5.699  0.8428  0.7659 -0.1469
18628SOL    HW273877   0.223   8.055   5.810 -0.3182  1.5625  1.1488
18629SOL     OW73878   4.756   5.349   2.788  0.1203 -0.3896  0.2745
18629SOL    HW173879   4.801   5.276   2.831  1.8499  1.4092  1.7222
18629SOL    HW273880   4.813   5.372   2.715 -0.9385 -1.0951 -0.7969
18630SOL     OW73881   6.912   5.936   0.272 -0.3992 -0.1445  0.3775
18630SOL    HW173882   6.911   5.984   0.355 -0.8714 -1.2810  1.0434
18630SOL    HW273883   6.996   5.960   0.232  0.0943 -0.0262  1.4428
18631SOL     OW73884  11.106  11.337   3.030  0.1660 -0.3622  0.3681
18631SOL    HW173885  11.192  11.340   3.073  0.4135  1.0385 -0.1539
18631SOL    HW273886  11.119  11.383   2.947 -1.5248  1.7072  1.1424
18632SOL     OW73887   5.673  12.007   8.016  0.1793  0.0323 -0.0099
18632SOL    HW173888   5.650  12.090   7.976 -0.9421 -0.5253 -0.5649
18632SOL    HW273889   5.744  12.028   8.077 -1.0972  1.6554  1.0051
18633SOL     OW73890   0.822   1.545   8.290  0.1575 -0.0992 -0.5467
18633SOL    HW173891   0.821   1.630   8.246 -0.4765  0.6962  0.9276
18633SOL    HW273892   0.833   1.566   8.382  1.7534 -1.7254 -0.3036
18634SOL     OW73893   1.880   8.121   7.365  0.2168 -0.3461  0.5240
18634SOL    HW173894   1.821   8.141   7.292 -1.9776  1.4779  2.6420
18634SOL    HW273895   1.955   8.178   7.351  0.1004 -0.4495 -0.6133
18635SOL     OW73896  13.981  11.298   0.592 -0.0655 -0.4659  0.8417
18635SOL    HW173897  13.985  11.231   0.660  0.6302 -0.4818  0.7872
18635SOL    HW273898  13.998  11.380   0.638 -1.8737 -0.1915  1.0807
18636SOL     OW73899   4.473   8.068  12.977 -0.4279 -0.1929 -0.4561
18636SOL    HW173900   4.561   8.098  12.953 -0.8092  0.3415 -1.2310
18636SOL    HW273901   4.487   7.984  13.021  0.7586  1.4371  2.5265
18637SOL     OW73902  12.748   1.008   1.150  0.0246  0.3364 -0.1798
18637SOL    HW173903  12.806   0.989   1.224 -0.4086  2.0961  0.6727
18637SOL    HW273904  12.737   0.924   1.105 -0.5164 -1.0461  2.3459
18638SOL     OW73905  10.727   6.450   3.003 -0.0198 -0.4341 -0.3829
18638SOL    HW173906  10.736   6.488   3.090 -1.4838 -1.3431  0.2090
18638SOL    HW273907  10.795   6.492   2.951  2.0864 -1.1472  1.6310
18639SOL     OW73908  10.555  13.030  10.066 -0.0313  0.4431  0.7299
18639SOL    HW173909  10.495  12.988  10.127 -0.3316  0.9682  0.8029
18639SOL    HW273910  10.540  13.124  10.079 -0.9923  0.5655 -1.0155
18640SOL     OW73911   6.803  11.225   6.058  0.3052  0.5392 -0.3603
18640SOL    HW173912   6.712  11.206   6.035  0.6821 -1.9313 -0.0601
18640SOL    HW273913   6.823  11.306   6.011 -1.7900  0.7104 -1.0703
18641SOL     OW73914   6.660  10.566   9.464 -0.2794 -0.2523 -0.1426
18641SOL    HW173915   6.604  10.615   9.404 -1.2465 -0.9414  0.1663
18641SOL    HW273916   6.654  10.613   9.547 -0.1824 -0.1633 -0.1872
18642SOL     OW73917   7.903   1.803  11.578 -0.3640  0.0933 -0.3238
18642SOL    HW173918   7.924   1.893  11.601  0.4938 -0.0952 -0.3452
18642SOL    HW273919   7.956   1.785  11.500  2.3775 -1.5759  1.7323
18643SOL     OW73920   8.704   2.119   2.037  0.8649 -0.1705 -0.1829
18643SOL    HW173921   8.781   2.167   2.007  0.7217 -0.2381 -0.6710
18643SOL    HW273922   8.734   2.030   2.053  0.9517 -0.1217 -0.0716
18644SOL     OW73923   7.376  11.028  10.724  0.3826 -0.4501  0.0523
18644SOL    HW173924   7.368  11.075  10.807  0.3649  0.6391 -0.5436
18644SOL    HW273925   7.465  10.992  10.727  0.6055  0.0947  0.2931
18645SOL     OW73926  11.209   4.880   8.676 -0.4625 -0.4693 -0.6025
18645SOL    HW173927  11.279   4.910   8.618 -0.0179  0.1598  0.2430
18645SOL    HW273928  11.178   4.959   8.720 -0.3080 -1.0281  0.5482
18646SOL     OW73929   0.463  13.255  12.191 -0.0048 -0.1673  0.3840
18646SOL    HW173930   0.544  13.296  12.221 -0.5202 -0.1286  1.8268
18646SOL    HW273931   0.432  13.311  12.120 -1.0256  2.4243  2.7061
18647SOL     OW73932   7.273   9.053   0.239 -0.1099  0.2718  0.2718
18647SOL    HW173933   7.179   9.039   0.231 -0.0394 -0.0823  0.0813
18647SOL    HW273934   7.283   9.149   0.240 -0.4844  0.3068  0.4647
18648SOL     OW73935   1.077  10.939   8.861  0.3754  0.0254 -0.5915
18648SOL    HW173936   1.079  10.884   8.783  0.1500  0.0710 -0.6319
18648SOL    HW273937   1.022  10.890   8.923 -1.2756  0.9869 -1.2383
18649SOL     OW73938  10.582   0.705  13.648  0.3032 -0.1243 -0.0184
18649SOL    HW173939  10.489   0.726  13.649  0.4524  0.6171  1.6963
18649SOL    HW273940  10.620   0.765  13.583  0.0437  1.9571  1.6486
18650SOL     OW73941   0.468   9.359   8.281  0.1674  0.0434 -0.3988
18650SOL    HW173942   0.545   9.379   8.334  0.9732 -0.2710 -1.4172
18650SOL    HW273943   0.486   9.273   8.244 -1.4223 -0.7892  0.6502
18651SOL     OW73944   6.481  10.005   4.015  0.0769  0.4731  0.0999
18651SOL    HW173945   6.521   9.976   4.097 -0.3777  1.8318  0.8367
18651SOL    HW273946   6.463   9.924   3.967  2.3053 -0.2552  0.3796
18652SOL     OW73947   4.813   4.104   7.940  0.2452  0.4373  0.6787
18652SOL    HW173948   4.858   4.189   7.935 -0.0783  0.6081  0.6443
18652SOL    HW273949   4.727   4.125   7.978  0.5669 -0.0243  1.7107
18653SOL     OW73950  11.653   5.608  11.013  0.1412 -0.3143 -0.3336
18653SOL    HW173951  11.692   5.692  10.989  1.1292 -0.0268  1.9861
18653SOL    HW273952  11.631   5.566  10.929 -0.7139  2.3666 -1.5564
18654SOL     OW73953   3.753  13.392   1.856  0.1467 -0.1259 -0.5710
18654SOL    HW173954   3.691  13.445   1.907 -0.5837 -0.4015 -1.1403
18654SOL    HW273955   3.702  13.364   1.780  1.1830  0.1914 -1.4023
18655SOL     OW73956   6.348   3.562   0.473  0.0970 -0.6999 -0.1157
18655SOL    HW173957   6.382   3.484   0.431  0.3724 -1.4899  1.4908
18655SOL    HW273958   6.395   3.567   0.557  0.4031  1.4271 -0.3531
18656SOL     OW73959   7.831   3.329   4.007  0.0925  0.1761  0.0171
18656SOL    HW173960   7.908   3.384   3.997  0.4438  0.0024  1.4791
18656SOL    HW273961   7.769   3.382   4.057 -0.0184 -0.3183  0.4249
18657SOL     OW73962   2.943   8.657   7.552 -0.4958  0.3900  0.8537
18657SOL    HW173963   2.995   8.716   7.607  0.6268 -0.4009  0.6896
18657SOL    HW273964   2.939   8.575   7.602 -0.6443  0.1003  0.3737
18658SOL     OW73965   1.394   4.363   1.907 -0.2644  0.0968  0.0928
18658SOL    HW173966   1.445   4.284   1.891  0.2074  0.1733  1.1156
18658SOL    HW273967   1.339   4.341   1.983 -2.4014 -0.2673 -1.4653
18659SOL     OW73968   1.305   3.175  13.099 -0.4059 -0.1405 -0.0638
18659SOL    HW173969   1.257   3.237  13.045 -0.4065 -0.1413 -0.0639
18659SOL    HW273970   1.290   3.090  13.057  0.5179  0.0054 -0.6980
18660SOL     OW73971   2.969   0.997   6.394  0.0193  0.3272 -0.1761
18660SOL    HW173972   2.936   1.074   6.348 -1.4847  0.1162  0.4952
18660SOL    HW273973   2.891   0.944   6.411  1.1940 -2.6814 -2.9497
18661SOL     OW73974   2.031  13.967   7.053  0.1767 -0.5739  0.1860
18661SOL    HW173975   1.950  13.950   7.004  0.3814  1.8712 -1.1803
18661SOL    HW273976   2.016  13.926   7.138 -0.4643 -4.4478 -1.5940
18662SOL     OW73977   9.983  11.514   3.078 -0.7831 -0.5780 -0.4296
18662SOL    HW173978   9.929  11.591   3.096 -2.2796 -1.2417 -1.8123
18662SOL    HW273979   9.950  11.448   3.139 -0.6628 -0.6130 -0.4039
18663SOL     OW73980  14.058   0.516  13.234 -0.2412 -0.4002  0.7843
18663SOL    HW173981  14.004   0.508  13.313 -1.3032  0.5068  0.1865
18663SOL    HW273982  14.131   0.571  13.261 -2.3379  2.8399  0.3903
18664SOL     OW73983   0.725   2.857   1.897 -0.2315  0.8873 -0.4625
18664SOL    HW173984   0.636   2.856   1.862 -0.2684 -2.1755 -0.5590
18664SOL    HW273985   0.777   2.811   1.831  0.9841  0.6791  0.6002
18665SOL     OW73986   9.941   8.965  10.375  0.2674 -0.6691 -0.0012
18665SOL    HW173987   9.930   8.938  10.466 -2.3163 -0.5158 -0.1943
18665SOL    HW273988   9.874   9.031  10.361  0.9768 -0.2661 -1.8877
18666SOL     OW73989   1.195   2.254   4.204  0.1144 -0.3399  0.1484
18666SOL    HW173990   1.143   2.222   4.130 -1.6845  0.2324  1.1099
18666SOL    HW273991   1.215   2.176   4.255  0.9691 -0.6739 -0.6514
18667SOL     OW73992  13.938   5.012   2.395  0.2479  0.3739  0.7013
18667SOL    HW173993  13.863   4.968   2.435  1.7807 -0.9695  2.2725
18667SOL    HW273994  13.964   5.077   2.460  2.6492 -1.6943  1.9914
18668SOL     OW73995   5.036  12.166  11.731 -0.2478  0.4085  0.4733
18668SOL    HW173996   5.110  12.151  11.789  0.8261 -0.1476 -0.9869
18668SOL    HW273997   4.975  12.094  11.751 -0.2655  0.6727  1.4351
18669SOL     OW73998  13.942  12.888   5.943  0.1079  0.2278  0.2088
18669SOL    HW173999  13.978  12.869   5.857  0.7876 -0.0226  0.5441
18669SOL    HW274000  13.856  12.926   5.925 -0.3884 -1.1682 -0.5373
18670SOL     OW74001  10.583   4.666   8.318 -0.3499  0.3663  0.0519
18670SOL    HW174002  10.605   4.718   8.241  0.2251  0.0729  0.0099
18670SOL    HW274003  10.522   4.720   8.368  0.5014  1.2294  0.1864
18671SOL     OW74004  13.080   2.267   7.171 -0.1211 -0.1889 -0.1792
18671SOL    HW174005  13.046   2.270   7.260  3.4746  1.9763  1.3422
18671SOL    HW274006  13.132   2.187   7.168 -0.4762 -0.4139 -0.4788
18672SOL     OW74007  12.020   9.458   5.322  0.7663  0.5323  0.6574
18672SOL    HW174008  12.104   9.437   5.281  0.6008  0.7616  0.1863
18672SOL    HW274009  11.966   9.490   5.249  1.0619  2.7507  1.3391
18673SOL     OW74010   1.712  10.244   6.148  0.0406  0.3571  0.1223
18673SOL    HW174011   1.660  10.167   6.125 -1.0037  0.5425  1.6892
18673SOL    HW274012   1.779  10.211   6.208 -1.6557  0.8792  2.4587
18674SOL     OW74013   5.889   1.860  11.977 -0.3357  0.8762  0.4564
18674SOL    HW174014   5.885   1.865  11.882 -0.3568  0.0585  0.3996
18674SOL    HW274015   5.808   1.815  12.002  0.5936 -0.7960  0.6696
18675SOL     OW74016   5.430   3.404  12.086  0.2091  0.7753  0.3578
18675SOL    HW174017   5.465   3.483  12.127 -3.2467  2.8395 -0.2565
18675SOL    HW274018   5.446   3.417  11.992  1.8335 -0.5563  0.3994
18676SOL     OW74019   4.159  11.505   7.593 -0.3856 -0.3862  0.5179
18676SOL    HW174020   4.141  11.567   7.523  0.4672  0.5216  1.0890
18676SOL    HW274021   4.244  11.530   7.627  1.2949 -3.4810 -0.9699
18677SOL     OW74022   6.297  12.375   6.334 -0.0287  0.1377 -0.4245
18677SOL    HW174023   6.265  12.451   6.287 -0.8846 -0.5170 -0.9157
18677SOL    HW274024   6.390  12.370   6.311  0.8018  2.6363  1.8026
18678SOL     OW74025   4.730   5.697   2.463 -0.1601  0.4687  0.1717
18678SOL    HW174026   4.776   5.704   2.547  0.9079 -4.0998  0.2561
18678SOL    HW274027   4.798   5.712   2.397 -0.2653  0.9554  0.1736
18679SOL     OW74028   0.849  12.102   8.083 -0.1846 -0.2109 -0.2399
18679SOL    HW174029   0.804  12.152   8.150 -1.1956  0.1217 -1.1376
18679SOL    HW274030   0.834  12.011   8.106  1.0478 -0.1273  0.9958
18680SOL     OW74031   6.848  13.014   4.614 -0.2057 -0.1821  0.1864
18680SOL    HW174032   6.813  13.103   4.625  0.4107  0.0384  0.3604
18680SOL    HW274033   6.853  13.002   4.519  1.1997  0.5643  0.1490
18681SOL     OW74034  11.676  10.845   1.219 -0.0933 -0.5032  0.0695
18681SOL    HW174035  11.647  10.795   1.295  0.6702  0.2227  0.8503
18681SOL    HW274036  11.740  10.907   1.253  0.0696  0.0179 -1.1227
18682SOL     OW74037   2.368  11.240  10.668 -0.2463 -0.4855 -0.3554
18682SOL    HW174038   2.298  11.174  10.662 -0.2094 -0.5701  0.0497
18682SOL    HW274039   2.429  11.203  10.732 -1.2019  0.8080  1.3957
18683SOL     OW74040  11.453  12.217   0.210 -0.2379 -0.3773  0.0682
18683SOL    HW174041  11.421  12.181   0.293 -0.5205 -0.4506 -0.0712
18683SOL    HW274042  11.376  12.218   0.153 -1.1153  3.4730  1.0195
18684SOL     OW74043   2.399   2.856  11.628 -0.1335 -0.1809 -0.9297
18684SOL    HW174044   2.457   2.855  11.704 -1.9653 -2.1466  0.5422
18684SOL    HW274045   2.370   2.947  11.621  2.1845  0.6269 -1.0529
18685SOL     OW74046  12.175  12.322  12.247 -0.6867  0.0335 -0.2571
18685SOL    HW174047  12.240  12.252  12.242  1.3645  1.8492 -0.4126
18685SOL    HW274048  12.146  12.334  12.156  0.9923  1.1443 -0.6893
18686SOL     OW74049   4.470   6.429   9.174  0.4398  0.2416 -0.3316
18686SOL    HW174050   4.485   6.418   9.080 -0.9679 -1.1499 -0.4312
18686SOL    HW274051   4.519   6.508   9.197 -0.5912  1.6524 -2.6062
18687SOL     OW74052  11.911  12.322  12.742  0.4464  0.9443 -0.0905
18687SOL    HW174053  11.828  12.335  12.788  0.7414  1.3115  0.3418
18687SOL    HW274054  11.905  12.233  12.707  0.8809  0.0217  2.0290
18688SOL     OW74055  12.084   0.125   8.201 -0.2674 -0.3110 -1.0732
18688SOL    HW174056  12.047   0.186   8.138 -0.6890  0.4834 -0.0822
18688SOL    HW274057  12.065   0.038   8.165  0.1034  0.1147 -2.3649
18689SOL     OW74058  10.299   1.120   2.986 -0.5776  0.1794 -0.0974
18689SOL    HW174059  10.234   1.049   2.986  0.2274 -0.5851  0.9505
18689SOL    HW274060  10.284   1.166   2.903 -3.0407  0.5864  0.4920
18690SOL     OW74061  11.007   5.286   8.949 -0.4748 -0.0866 -0.5615
18690SOL    HW174062  11.042   5.359   8.999 -0.3420  0.5368 -1.5499
18690SOL    HW274063  10.937   5.250   9.005  0.0671  0.2101  0.3264
18691SOL     OW74064  11.049  12.693   7.271 -0.5485 -0.1445 -0.6416
18691SOL    HW174065  11.067  12.679   7.178 -0.3168 -0.3251 -0.5712
18691SOL    HW274066  10.971  12.748   7.273  0.9461  2.1691 -1.0203
18692SOL     OW74067   9.830   1.782   5.662  0.1826 -0.6026  0.0641
18692SOL    HW174068   9.804   1.700   5.620  1.8949 -1.4568  0.6245
18692SOL    HW274069   9.922   1.770   5.685  0.2894  1.2349  0.7554
18693SOL     OW74070   4.091  12.811   8.651 -0.2276  0.0240  0.1862
18693SOL    HW174071   4.039  12.762   8.587  0.2449 -1.5441  0.9562
18693SOL    HW274072   4.045  12.798   8.734  0.1373  0.5613  0.4792
18694SOL     OW74073   8.189   2.124  11.418  0.1850 -0.8104 -0.1622
18694SOL    HW174074   8.183   2.075  11.336  1.9474 -0.6576 -0.4270
18694SOL    HW274075   8.273   2.098  11.456  0.1625  0.3565  0.7698
18695SOL     OW74076   3.211   2.224   0.713  0.5758  0.4592 -0.2000
18695SOL    HW174077   3.290   2.239   0.764  0.6510 -0.0815 -0.1540
18695SOL    HW274078   3.150   2.183   0.775 -0.0082  1.5194 -0.0273
18696SOL     OW74079  12.594   8.886   1.957 -0.0090  0.6932  0.2400
18696SOL    HW174080  12.656   8.875   1.884 -0.1011  1.7703 -0.0067
18696SOL    HW274081  12.531   8.951   1.925 -1.3586 -0.4673  0.4337
18697SOL     OW74082   1.448  11.682   8.149  0.1147 -0.2050  0.2609
18697SOL    HW174083   1.511  11.752   8.132  1.6232 -1.8786 -1.6656
18697SOL    HW274084   1.383  11.690   8.079  0.5727 -0.9531 -0.2781
18698SOL     OW74085  11.953  13.995   4.097  0.4683 -0.2997 -0.2775
18698SOL    HW174086  11.904  13.925   4.053 -0.3776  0.4399 -0.5511
18698SOL    HW274087  11.925  13.989   4.189  2.2270 -1.8377  0.2149
18699SOL     OW74088   0.347  12.562  11.809  0.1839 -0.5969  0.1073
18699SOL    HW174089   0.350  12.544  11.903 -1.2576  0.1874  0.3254
18699SOL    HW274090   0.342  12.657  11.802 -0.9468 -0.6915 -0.6975
18700SOL     OW74091  14.064   0.533   4.205  0.0580 -0.0150 -0.0955
18700SOL    HW174092  14.160   0.540   4.207  0.0094  0.6366  0.2635
18700SOL    HW274093  14.042   0.485   4.285  0.0570  0.2187  0.0452
18701SOL     OW74094   7.112   2.677   8.897  0.0958  0.6061  0.1693
18701SOL    HW174095   7.122   2.609   8.964  1.1108  1.6684  1.1372
18701SOL    HW274096   7.150   2.755   8.937  1.1760  1.1605 -1.8240
18702SOL     OW74097   2.558  13.987  13.824 -0.1322 -0.3435  0.1052
18702SOL    HW174098   2.600  13.910  13.862  1.7352  0.2255 -0.7001
18702SOL    HW274099   2.625  14.026  13.768 -1.7701  0.5925 -1.3016
18703SOL     OW74100  13.930   7.644  12.232 -0.5257 -0.4402 -0.4095
18703SOL    HW174101  13.937   7.737  12.253 -1.9035 -0.6005  0.9428
18703SOL    HW274102  13.865   7.639  12.162  0.5400 -0.3181 -1.4569
18704SOL     OW74103  13.859   6.833   8.683  0.4606 -0.3059  0.1448
18704SOL    HW174104  13.827   6.865   8.767  1.3854  0.4589  0.2195
18704SOL    HW274105  13.790   6.857   8.621  0.7286  1.0597  0.3427
18705SOL     OW74106   6.499   8.502   2.492  0.5147 -0.2159 -0.6984
18705SOL    HW174107   6.558   8.578   2.486  1.8044 -0.9499  1.5361
18705SOL    HW274108   6.557   8.426   2.486 -0.5700 -1.0184 -1.3340
18706SOL     OW74109  12.042  11.984   5.977  0.1125  0.1294  0.1742
18706SOL    HW174110  12.000  12.017   5.898  0.6722  2.0520  0.6132
18706SOL    HW274111  12.114  11.931   5.946  0.5677  1.1846 -0.6394
18707SOL     OW74112   3.856   6.033   7.617 -0.0645  0.4199 -0.2463
18707SOL    HW174113   3.841   5.973   7.691  1.8495  1.0998  0.7616
18707SOL    HW274114   3.927   5.993   7.568 -1.0665  0.1770 -1.5475
18708SOL     OW74115  13.220   7.825   5.857 -0.0988 -0.3575 -0.5602
18708SOL    HW174116  13.281   7.831   5.783  0.4399  1.3230 -0.0302
18708SOL    HW274117  13.199   7.916   5.878 -0.0145 -0.7679  1.5369
18709SOL     OW74118   7.906   1.454  13.791 -0.5069 -0.3459  0.3377
18709SOL    HW174119   7.848   1.528  13.806 -1.1639 -0.9641  0.9322
18709SOL    HW274120   7.932   1.462  13.699 -0.2212  0.8488  0.5137
18710SOL     OW74121   3.547   2.728   1.688  0.0203  0.8291 -0.2940
18710SOL    HW174122   3.546   2.642   1.730  0.3384  2.2178  2.8183
18710SOL    HW274123   3.457   2.742   1.659 -0.2008 -0.2536 -0.1805
18711SOL     OW74124   8.230   2.277  13.494 -0.1362 -0.1607  0.1326
18711SOL    HW174125   8.150   2.258  13.445 -0.0369 -0.2956  0.0216
18711SOL    HW274126   8.209   2.354  13.546 -0.8626 -1.1502  1.3369
18712SOL     OW74127  13.913  11.661   8.496  0.0347 -0.0490  0.1892
18712SOL    HW174128  13.902  11.750   8.531 -0.8217  0.6655 -1.7804
18712SOL    HW274129  13.846  11.610   8.540 -0.8906  0.7819 -0.2259
18713SOL     OW74130   6.179  13.705   3.312  0.4200  0.0749  0.3376
18713SOL    HW174131   6.243  13.636   3.294 -2.2137 -1.9282 -2.2998
18713SOL    HW274132   6.210  13.781   3.262  1.1246 -0.5750 -0.2329
18714SOL     OW74133   9.304   7.026  10.446 -0.4555  0.4613  0.1842
18714SOL    HW174134   9.345   7.017  10.361 -0.8344 -0.7212  0.1157
18714SOL    HW274135   9.373   7.007  10.509 -0.0697  1.7381  0.1706
18715SOL     OW74136   0.053   1.197  10.041  0.2995 -0.3031  0.3279
18715SOL    HW174137   0.048   1.288  10.013 -1.1851 -0.2594  0.6617
18715SOL    HW274138   0.141   1.169  10.016  0.7828  1.2126  0.2261
18716SOL     OW74139   8.406  12.055   9.157  0.6070 -0.0112 -0.1575
18716SOL    HW174140   8.475  12.113   9.188 -0.3477  1.4272 -0.5966
18716SOL    HW274141   8.364  12.023   9.237  1.2982 -0.3168  0.0930
18717SOL     OW74142  12.703  10.460  12.929 -0.2646 -0.2755  0.2941
18717SOL    HW174143  12.696  10.412  13.011  0.6952 -0.9405  0.0061
18717SOL    HW274144  12.767  10.411  12.878  1.1036  1.5420  0.1616
18718SOL     OW74145   8.747  12.676   0.078  0.5443 -0.4404  0.1180
18718SOL    HW174146   8.828  12.630   0.101 -0.4627 -1.2647  2.3734
18718SOL    HW274147   8.775  12.753   0.030  2.5616 -1.4346 -0.3970
18719SOL     OW74148   9.552   0.674  13.266 -0.2533  0.0524 -0.1404
18719SOL    HW174149   9.593   0.744  13.216 -1.6225  0.4034 -0.8286
18719SOL    HW274150   9.611   0.599  13.256  0.1337  0.4854 -1.2173
18720SOL     OW74151   2.207   6.321  11.375 -0.1465  1.0863 -0.0748
18720SOL    HW174152   2.273   6.341  11.442 -0.1587  1.5579 -0.2035
18720SOL    HW274153   2.256   6.315  11.294  0.1923 -1.5158  0.2431
18721SOL     OW74154  11.473  11.778   9.364 -0.4278  0.2417 -0.1433
18721SOL    HW174155  11.482  11.760   9.271  2.8107 -0.4848  0.2111
18721SOL    HW274156  11.475  11.692   9.406 -2.3173  0.5197  0.6488
18722SOL     OW74157  10.975  12.854   5.952 -0.5606 -0.3502  0.0621
18722SOL    HW174158  10.899  12.798   5.964 -0.0749 -1.0835 -0.1901
18722SOL    HW274159  10.952  12.910   5.877 -0.7907 -0.6703 -0.1082
18723SOL     OW74160  13.749   0.199   7.018  0.1863  0.1724  0.2252
18723SOL    HW174161  13.675   0.228   6.964 -1.2306 -1.0643  1.4242
18723SOL    HW274162  13.793   0.134   6.963 -0.0151  0.4083 -0.2307
18724SOL     OW74163   6.307   2.215   0.848  0.6943 -0.2889 -0.3596
18724SOL    HW174164   6.223   2.169   0.841  0.9396 -1.2376  2.0308
18724SOL    HW274165   6.302   2.284   0.783 -2.1197 -0.0777 -0.0365
18725SOL     OW74166   8.874   1.729  13.027  0.3994  0.3630  0.6989
18725SOL    HW174167   8.808   1.755  12.963  0.4517 -2.1543 -0.5292
18725SOL    HW274168   8.957   1.748  12.984  0.4296 -0.9745  0.0811
18726SOL     OW74169  11.466   4.484   7.470 -0.3123 -0.4509  0.2596
18726SOL    HW174170  11.396   4.427   7.440 -0.9912  0.3462  0.2908
18726SOL    HW274171  11.545   4.452   7.426 -0.8288 -0.8854 -0.3544
18727SOL     OW74172   4.797  13.500   3.043  0.7901 -0.4757  0.0562
18727SOL    HW174173   4.824  13.530   2.956  1.4175  0.0986  0.4438
18727SOL    HW274174   4.740  13.425   3.025  2.9797 -2.0319 -0.7912
18728SOL     OW74175   1.493   0.074  10.828 -0.0699 -0.0397 -0.4224
18728SOL    HW174176   1.529   0.161  10.849  1.0418 -0.8798  1.3669
18728SOL    HW274177   1.398   0.088  10.826  0.1350  1.4751 -1.5610
18729SOL     OW74178   1.141   5.185   2.907 -0.3666  0.4110  0.3752
18729SOL    HW174179   1.073   5.208   2.844  0.6157  0.4830 -0.6948
18729SOL    HW274180   1.198   5.262   2.911  0.0106  0.1213  0.7566
18730SOL     OW74181   9.907   8.275   6.081 -0.6542 -0.5232 -0.1787
18730SOL    HW174182   9.882   8.348   6.137 -0.3780 -1.2515  0.9232
18730SOL    HW274183   9.914   8.200   6.140  4.2944 -0.4370 -0.2506
18731SOL     OW74184   6.617  12.435   4.058 -0.8929  0.6513 -0.0559
18731SOL    HW174185   6.577  12.421   4.143 -0.8396  0.3273 -0.0850
18731SOL    HW274186   6.660  12.353   4.037 -1.3254  0.5597 -0.6240
18732SOL     OW74187   5.356   0.551   1.761 -0.0328  0.1370 -0.4019
18732SOL    HW174188   5.312   0.483   1.710  2.3114 -2.6055  0.9204
18732SOL    HW274189   5.418   0.590   1.700  0.5773 -0.9702 -0.5340
18733SOL     OW74190   3.356   5.819   4.103 -0.0156 -0.6373  0.5320
18733SOL    HW174191   3.431   5.831   4.045 -0.0919  0.0739  0.5604
18733SOL    HW274192   3.283   5.859   4.056  0.0849  0.6865  1.4336
18734SOL     OW74193   8.823   4.260  11.917 -0.7994  0.3360  0.2714
18734SOL    HW174194   8.779   4.336  11.956 -0.2796  0.8485 -0.1341
18734SOL    HW274195   8.881   4.229  11.986 -1.2770  0.0760  0.5663
18735SOL     OW74196   9.679   2.617   4.440  0.0678 -0.1472 -0.1318
18735SOL    HW174197   9.652   2.549   4.502  0.2809 -0.4286 -0.3479
18735SOL    HW274198   9.774   2.608   4.434 -0.1268 -1.5296 -2.0933
18736SOL     OW74199   2.387  12.508   0.826  0.9148  0.8165  0.1876
18736SOL    HW174200   2.302  12.500   0.870  1.3861 -0.3235  0.9409
18736SOL    HW274201   2.394  12.427   0.775  2.7352 -0.4620  2.3037
18737SOL     OW74202   5.694   4.979   9.518  0.0867 -0.2153  0.7507
18737SOL    HW174203   5.770   5.006   9.568 -0.4178 -3.0252  3.3035
18737SOL    HW274204   5.729   4.921   9.451  0.2965 -0.6140  1.2029
18738SOL     OW74205  11.655   0.373   6.788  0.0504  0.4208  0.0950
18738SOL    HW174206  11.734   0.348   6.835  0.5276 -0.2046 -0.9994
18738SOL    HW274207  11.668   0.465   6.765  1.4630 -0.2243 -1.9446
18739SOL     OW74208   7.203   6.017   0.230  0.6384  0.3673 -0.2027
18739SOL    HW174209   7.287   6.030   0.186  0.8376  1.7390  0.5142
18739SOL    HW274210   7.206   5.926   0.260  1.3829  0.0512 -1.1643
18740SOL     OW74211   4.513   5.572   5.449 -0.1352 -0.0593 -0.0648
18740SOL    HW174212   4.522   5.594   5.542 -0.0742  1.0846 -0.3315
18740SOL    HW274213   4.580   5.505   5.434 -0.5051 -0.6505  0.8304
18741SOL     OW74214   8.596   2.387   5.363  0.3829 -0.5595 -0.3651
18741SOL    HW174215   8.582   2.441   5.285  1.8017 -1.2707 -1.1456
18741SOL    HW274216   8.568   2.299   5.337  1.4245 -0.9246 -0.2759
18742SOL     OW74217   3.800  12.102   6.898  0.0509 -0.3796 -0.3765
18742SOL    HW174218   3.831  12.077   6.811  2.5295 -1.1038  0.6343
18742SOL    HW274219   3.862  12.060   6.958 -1.0055  0.9116  1.6985
18743SOL     OW74220   0.632   6.971  13.116  0.0607  0.0177 -0.1293
18743SOL    HW174221   0.542   6.938  13.107  0.1901 -0.4037  0.0854
18743SOL    HW274222   0.625   7.045  13.176 -0.0415 -0.4521  0.4409
18744SOL     OW74223  11.248  11.848  10.494  0.0572 -0.1225 -0.1348
18744SOL    HW174224  11.252  11.849  10.590 -1.0213 -0.3383 -0.0674
18744SOL    HW274225  11.338  11.837  10.466  0.3115 -0.8487  0.8851
18745SOL     OW74226   4.035   4.157   0.125 -0.2701 -0.2987 -0.5896
18745SOL    HW174227   4.046   4.227   0.060 -1.2224  1.3551  0.9392
18745SOL    HW274228   3.957   4.182   0.175  0.9469 -0.9449  1.8007
18746SOL     OW74229   8.799   8.298   9.240 -0.7228 -0.4753 -0.3764
18746SOL    HW174230   8.822   8.206   9.256 -0.5680 -0.5611 -1.0436
18746SOL    HW274231   8.775   8.300   9.147  3.2119  0.8987 -1.5750
18747SOL     OW74232  10.718   2.984  14.067  0.3001 -0.3716 -0.0395
18747SOL    HW174233  10.694   3.020  13.982 -0.0864 -1.1723 -0.2901
18747SOL    HW274234  10.739   3.060  14.121 -0.2157  0.1974 -0.6208
18748SOL     OW74235   1.288  13.254   5.345 -0.6465  0.0626  0.0534
18748SOL    HW174236   1.350  13.306   5.295 -0.3750 -0.8806 -0.6281
18748SOL    HW274237   1.272  13.305   5.424  2.5945 -0.5660  1.2694
18749SOL     OW74238   6.301  11.005  12.512  0.7970  0.2264  0.1696
18749SOL    HW174239   6.318  11.002  12.418  2.2427  0.9444  0.3888
18749SOL    HW274240   6.281  10.914  12.535  1.6050 -0.1658 -0.6263
18750SOL     OW74241   0.585   7.624   2.453 -0.3412  0.6593  0.2242
18750SOL    HW174242   0.635   7.566   2.511  0.4236 -0.7560 -1.7265
18750SOL    HW274243   0.647   7.693   2.430 -0.6210  1.1796  1.0109
18751SOL     OW74244  10.593   4.164   7.708 -0.1253  0.2378  0.0273
18751SOL    HW174245  10.674   4.194   7.749  0.1190 -1.4039  0.8038
18751SOL    HW274246  10.542   4.244   7.695  1.5935  1.3050 -0.4678
18752SOL     OW74247   7.443   1.937  13.065 -0.1090  0.3832  0.0101
18752SOL    HW174248   7.382   1.895  13.126 -0.9619  1.2099 -0.2422
18752SOL    HW274249   7.478   1.866  13.012  0.4174 -0.3139  1.2605
18753SOL     OW74250  11.818   7.781   2.975 -0.1421  0.0513  0.5212
18753SOL    HW174251  11.794   7.751   2.888  0.3258  0.1832  0.3443
18753SOL    HW274252  11.910   7.758   2.984 -0.3411 -0.5352  1.2247
18754SOL     OW74253  13.911  10.693  12.288 -0.1704  0.3842 -0.1141
18754SOL    HW174254  13.858  10.736  12.355 -0.3703  0.3913 -0.2771
18754SOL    HW274255  13.943  10.614  12.330  0.0777  0.6144  0.1375
18755SOL     OW74256   8.433   4.407  10.824 -0.6060  0.9331 -0.1444
18755SOL    HW174257   8.455   4.348  10.896  1.1642 -0.5101 -1.7751
18755SOL    HW274258   8.516   4.449  10.801 -1.4532  2.6007 -0.3396
18756SOL     OW74259   4.231   9.865   3.044  0.0684 -0.7544  0.4525
18756SOL    HW174260   4.213   9.780   3.084  0.7128 -0.4298  1.4765
18756SOL    HW274261   4.320   9.886   3.072  0.5064 -0.4590 -1.1003
18757SOL     OW74262  11.071   5.075  10.427 -0.3052  0.0563  0.4141
18757SOL    HW174263  11.007   5.143  10.406  0.8555  1.4633  1.3121
18757SOL    HW274264  11.043   5.041  10.512  0.1203  0.6368  0.7841
18758SOL     OW74265   1.284  10.299   9.990 -0.0709  0.3686  0.3336
18758SOL    HW174266   1.331  10.242   9.929 -1.7390  0.3671 -1.0096
18758SOL    HW274267   1.266  10.378   9.940 -0.9859  0.5964  1.0084
18759SOL     OW74268  12.607   6.550   9.239  0.3210 -0.5838 -0.0532
18759SOL    HW174269  12.605   6.645   9.239  3.0124 -0.3406 -2.9360
18759SOL    HW274270  12.698   6.527   9.262  0.4991 -2.2137 -1.9887
18760SOL     OW74271   2.950   6.122   2.655 -0.0625 -0.2345  0.1977
18760SOL    HW174272   2.894   6.081   2.720 -0.8041 -0.3082 -0.4806
18760SOL    HW274273   2.970   6.053   2.593  1.5367 -0.4565  0.8937
18761SOL     OW74274   0.057   2.197  11.439 -0.6894  0.1751  0.3667
18761SOL    HW174275   0.003   2.204  11.519 -1.1193 -0.2428  0.1228
18761SOL    HW274276   0.116   2.124  11.458 -1.9779 -1.1112 -0.3505
18762SOL     OW74277   4.003   6.235  10.371  0.7633  0.2048  0.2262
18762SOL    HW174278   3.912   6.233  10.340  0.5957 -3.2206  0.5791
18762SOL    HW274279   4.017   6.326  10.396 -3.2720  0.5471  2.1288
18763SOL     OW74280   1.860  12.631  10.201  0.1738  0.2588  0.0155
18763SOL    HW174281   1.799  12.565  10.168 -0.3695  0.7316  0.0503
18763SOL    HW274282   1.930  12.581  10.242  0.0199 -0.3019 -0.3949
18764SOL     OW74283   8.069   6.804  11.256 -0.2900  0.6251 -0.0327
18764SOL    HW174284   8.043   6.801  11.348  1.8861  4.8595  0.9834
18764SOL    HW274285   7.995   6.844  11.211 -1.3584 -1.4494 -0.2000
18765SOL     OW74286   2.486  11.354  10.091  0.3739  0.0752  0.1595
18765SOL    HW174287   2.551  11.321  10.154  3.2228  1.2573 -1.9623
18765SOL    HW274288   2.503  11.448  10.087 -0.1255  0.1068 -1.9302
18766SOL     OW74289   7.708   5.525   7.296  0.1333 -0.5635  0.2062
18766SOL    HW174290   7.803   5.530   7.283  0.3460 -2.5358  0.5674
18766SOL    HW274291   7.685   5.438   7.263 -1.2636 -0.7881  1.6652
18767SOL     OW74292   4.229   6.469   4.021  0.5857 -0.3404 -0.1176
18767SOL    HW174293   4.281   6.396   3.989 -0.8326 -2.6429  2.3849
18767SOL    HW274294   4.257   6.481   4.112 -0.8950  0.5925  0.2623
18768SOL     OW74295   2.123   5.731   4.075 -0.0161 -0.5024  0.1412
18768SOL    HW174296   2.028   5.738   4.079  0.0103 -0.7146  1.4709
18768SOL    HW274297   2.147   5.680   4.152  1.0552 -1.8449 -1.0136
18769SOL     OW74298   4.764   0.745   5.546 -0.0131 -0.0441  0.0517
18769SOL    HW174299   4.689   0.689   5.563 -0.1661 -0.0254 -0.5247
18769SOL    HW274300   4.730   0.834   5.555  0.8987  0.0677  3.9712
18770SOL     OW74301   1.577   2.160   5.933  0.0775 -0.3498  0.0242
18770SOL    HW174302   1.485   2.139   5.922  0.2616 -0.7450 -0.8660
18770SOL    HW274303   1.604   2.196   5.849  0.8641 -0.7823  0.0769
18771SOL     OW74304   2.568   6.588   8.386  0.0575  0.0965  0.7768
18771SOL    HW174305   2.591   6.661   8.328  1.0997 -1.3830 -0.7363
18771SOL    HW274306   2.538   6.519   8.328  0.0264 -1.0458  2.1093
18772SOL     OW74307   1.197  11.024   8.037 -0.1802  0.4513  0.1738
18772SOL    HW174308   1.218  11.068   7.954 -0.7531 -1.1665 -0.8879
18772SOL    HW274309   1.229  10.935   8.025 -0.9676 -0.0240  1.4199
18773SOL     OW74310   3.471  11.491   6.542 -0.1792  0.6150  0.2229
18773SOL    HW174311   3.454  11.556   6.610 -0.4224 -0.1971  0.9651
18773SOL    HW274312   3.402  11.503   6.478  0.4512  1.8534 -0.2548
18774SOL     OW74313   1.135   7.716   0.464  0.0467 -0.0420 -0.2235
18774SOL    HW174314   1.128   7.744   0.372  1.0344 -0.9283 -0.5939
18774SOL    HW274315   1.107   7.624   0.463 -0.1125 -0.0041  0.4026
18775SOL     OW74316   6.421   5.823  10.857 -0.0271 -0.5068  0.0244
18775SOL    HW174317   6.467   5.782  10.783  0.1257 -1.1597  0.4764
18775SOL    HW274318   6.479   5.809  10.932 -0.4047 -0.2677  0.3644
18776SOL     OW74319   0.175   7.546  13.016 -0.0807  0.2556  0.3885
18776SOL    HW174320   0.190   7.633  12.980 -0.6517  0.4993  0.7306
18776SOL    HW274321   0.200   7.553  13.108 -1.6098  0.5007  0.8124
18777SOL     OW74322   5.691   6.610  12.332  0.0330  0.1386 -0.1183
18777SOL    HW174323   5.698   6.676  12.401 -0.7331  0.2521 -0.1453
18777SOL    HW274324   5.664   6.530  12.377 -0.2159  0.1471 -0.2525
18778SOL     OW74325   8.115  13.074  13.017 -0.9249  0.6907 -0.2074
18778SOL    HW174326   8.123  12.980  13.031 -2.2162  0.5944 -0.0283
18778SOL    HW274327   8.144  13.113  13.100  0.4773  0.5150 -0.5850
18779SOL     OW74328   9.284   1.118   2.324  0.7340  0.3339 -0.3306
18779SOL    HW174329   9.380   1.115   2.318  0.7390  0.3785 -0.2651
18779SOL    HW274330   9.259   1.187   2.262  0.7013 -0.1036 -0.8127
18780SOL     OW74331  13.921   8.703  10.852 -0.7153 -0.6473 -0.3651
18780SOL    HW174332  13.925   8.611  10.825  0.0549 -1.0718  1.0631
18780SOL    HW274333  13.839   8.735  10.815 -2.2966 -2.6349  1.1742
18781SOL     OW74334  13.742   7.613   5.831 -0.2656 -0.3084  0.0498
18781SOL    HW174335  13.678   7.622   5.902 -0.6980 -2.3163 -0.0235
18781SOL    HW274336  13.827   7.612   5.875 -0.3397  0.9130  0.2766
18782SOL     OW74337  11.209   8.675   2.370 -0.7564 -0.4594  0.4475
18782SOL    HW174338  11.260   8.665   2.289 -0.0626 -1.4571  0.9845
18782SOL    HW274339  11.230   8.596   2.421 -2.8295 -0.8756  0.7134
18783SOL     OW74340   5.806  12.748   2.973  0.6711 -0.4019 -0.0371
18783SOL    HW174341   5.887  12.795   2.988  0.7651 -1.0688  1.8154
18783SOL    HW274342   5.787  12.705   3.057 -2.1553  0.5943 -0.0434
18784SOL     OW74343   0.007   1.355   5.875 -0.1517 -0.6585 -1.0571
18784SOL    HW174344  -0.078   1.344   5.833 -0.1703 -0.9236 -0.9547
18784SOL    HW274345   0.064   1.388   5.805 -0.5748  0.4774 -0.8769
18785SOL     OW74346  12.506   1.513   6.836 -0.1994 -0.0040  0.2850
18785SOL    HW174347  12.438   1.455   6.868  0.1295 -0.1910  0.6533
18785SOL    HW274348  12.542   1.469   6.759 -1.6963  0.9311 -1.0067
18786SOL     OW74349   8.430   8.957   3.737 -0.2230 -0.0451 -0.0549
18786SOL    HW174350   8.506   8.994   3.782 -0.7432  0.3134  0.5451
18786SOL    HW274351   8.355   9.003   3.774 -0.8916 -1.6370  0.6935
18787SOL     OW74352   5.996  10.509   4.049 -0.0243  0.1889  0.5099
18787SOL    HW174353   5.965  10.598   4.035  1.4306  0.6536  0.0477
18787SOL    HW274354   6.085  10.520   4.082 -0.0141 -1.0931  0.9777
18788SOL     OW74355   7.093   9.913  10.237  0.1097 -0.0270 -0.0181
18788SOL    HW174356   7.130   9.832  10.202 -0.1270 -0.2089  0.1512
18788SOL    HW274357   7.038   9.885  10.310 -0.0424  0.2780 -0.0144
18789SOL     OW74358  10.144  12.191   2.498 -0.4222  0.1157 -0.2453
18789SOL    HW174359  10.107  12.279   2.510 -1.5823 -0.3050 -0.5938
18789SOL    HW274360  10.215  12.204   2.436  1.0969  1.1939  1.6112
18790SOL     OW74361   4.733   6.206   3.004 -0.3482  0.4627  0.0354
18790SOL    HW174362   4.805   6.238   2.949 -0.9349 -1.1325 -1.8103
18790SOL    HW274363   4.774   6.181   3.086  1.1311  0.1244 -0.7707
18791SOL     OW74364   1.609   4.077  10.207 -0.1692  0.3298 -0.0852
18791SOL    HW174365   1.695   4.073  10.250 -1.4157 -0.1931  2.5354
18791SOL    HW274366   1.563   4.147  10.253 -1.1142  0.7527 -1.6140
18792SOL     OW74367   2.026   4.760   8.765  0.0963  0.4822 -0.2986
18792SOL    HW174368   2.060   4.716   8.843 -0.6840 -0.8397 -0.6757
18792SOL    HW274369   1.932   4.742   8.767 -0.1256  1.5141 -0.8788
18793SOL     OW74370   1.203   3.476   9.566 -0.1693  0.1807 -0.2796
18793SOL    HW174371   1.153   3.397   9.585 -0.1817  0.1809 -0.3106
18793SOL    HW274372   1.289   3.444   9.539 -0.2382  0.1715 -0.4851
18794SOL     OW74373   7.913   7.325  14.037 -0.5622  0.2194 -0.7101
18794SOL    HW174374   7.824   7.350  14.011 -0.5103  0.9180 -0.2302
18794SOL    HW274375   7.902   7.273  14.116 -0.6052 -0.5441 -1.2065
18795SOL     OW74376  11.238   8.693  11.268  0.0100  0.2183 -0.3265
18795SOL    HW174377  11.191   8.613  11.294 -0.4913  0.1135 -1.4946
18795SOL    HW274378  11.253   8.740  11.351 -2.2269  0.2793  0.1168
18796SOL     OW74379   8.325  13.956   2.269  0.2909  0.0779  0.3500
18796SOL    HW174380   8.236  13.944   2.303 -0.3825  1.0737 -0.9714
18796SOL    HW274381   8.356  13.868   2.251 -0.9347 -0.2228 -0.3976
18797SOL     OW74382   4.822   0.666   0.324 -0.3118 -0.0612 -0.1022
18797SOL    HW174383   4.772   0.595   0.284 -2.3188  0.6638  0.9923
18797SOL    HW274384   4.833   0.730   0.254  0.6285 -0.9691 -0.8164
18798SOL     OW74385   6.348  12.501   0.543  0.1387 -0.2658 -0.4171
18798SOL    HW174386   6.317  12.412   0.530 -0.8352 -0.0039  0.0212
18798SOL    HW274387   6.403  12.497   0.621 -3.1401  0.1773  2.1422
18799SOL     OW74388   3.979   7.643   3.698 -0.2260 -0.5381 -0.0333
18799SOL    HW174389   3.933   7.597   3.627  1.5513  1.2311 -2.5104
18799SOL    HW274390   3.910   7.692   3.742 -1.2262 -0.4780 -1.5644
18800SOL     OW74391   8.385   0.891  12.531  0.1030  0.0899  0.4256
18800SOL    HW174392   8.320   0.873  12.463  1.5607  0.1451 -1.0482
18800SOL    HW274393   8.337   0.880  12.614 -1.9416  0.8140 -0.5855
18801SOL     OW74394  10.399   9.284   5.432  0.0002  0.3599  0.1866
18801SOL    HW174395  10.458   9.302   5.359 -0.8844  4.4075  0.2129
18801SOL    HW274396  10.441   9.325   5.508 -1.1183  0.0865  0.9821
18802SOL     OW74397   4.754  13.577  13.078  0.1492  0.1493 -0.2360
18802SOL    HW174398   4.733  13.618  13.162 -1.2996 -0.2660 -0.3628
18802SOL    HW274399   4.669  13.558  13.039  0.7862 -1.2019 -1.0479
18803SOL     OW74400   9.534   4.675  11.185 -0.6932 -0.2935 -0.1063
18803SOL    HW174401   9.530   4.770  11.188  1.6440 -0.1579  1.8529
18803SOL    HW274402   9.493   4.646  11.266  0.7886 -0.7865  0.4967
18804SOL     OW74403   5.443  10.564   4.825  0.2820  0.5397  0.1487
18804SOL    HW174404   5.432  10.478   4.785 -1.4237  1.6198 -1.9018
18804SOL    HW274405   5.443  10.546   4.919 -0.9883 -1.6272 -0.1874
18805SOL     OW74406   0.646  12.165   3.238  0.2474  0.0819  0.1586
18805SOL    HW174407   0.662  12.217   3.317  0.1245  1.1058 -0.4754
18805SOL    HW274408   0.713  12.195   3.176  1.9188 -2.4063  0.6103
18806SOL     OW74409  11.738   4.177   0.298 -0.1187  0.3947 -0.2072
18806SOL    HW174410  11.790   4.200   0.375 -0.6367 -0.5088  0.4350
18806SOL    HW274411  11.666   4.240   0.299 -2.3620 -1.9012  2.3907
18807SOL     OW74412   9.468  11.803   8.438 -0.4199  0.2384  0.1017
18807SOL    HW174413   9.413  11.725   8.445 -1.3247  1.0105  2.3631
18807SOL    HW274414   9.462  11.829   8.346  0.8601 -2.9581 -1.0339
18808SOL     OW74415   5.344  12.492   2.600  0.0482  0.6414 -0.3741
18808SOL    HW174416   5.336  12.446   2.516 -1.0097 -2.5078  1.2723
18808SOL    HW274417   5.256  12.486   2.639 -0.0910  4.0220  0.1145
18809SOL     OW74418   1.068   2.237  10.898 -0.1314 -0.0054  0.5153
18809SOL    HW174419   0.997   2.211  10.957 -0.0212  2.2446  1.7535
18809SOL    HW274420   1.027   2.241  10.811 -0.9412 -0.8940  0.8361
18810SOL     OW74421   8.161   0.956  13.015 -0.2884 -0.0984  0.1770
18810SOL    HW174422   8.231   0.970  13.078  1.3539  2.3227 -1.9877
18810SOL    HW274423   8.088   1.008  13.049  0.3891  0.7298  0.4235
18811SOL     OW74424   9.775  12.833   7.217 -0.1944  0.0805  0.0833
18811SOL    HW174425   9.715  12.904   7.241 -3.8644 -2.5421 -0.5535
18811SOL    HW274426   9.782  12.840   7.121 -3.6760 -2.4409 -0.5035
18812SOL     OW74427   0.337   0.007  10.798 -0.0856 -0.1237  0.3375
18812SOL    HW174428   0.429   0.026  10.781 -0.2639  0.3380 -0.1323
18812SOL    HW274429   0.292   0.036  10.719 -0.2736 -3.4357 -0.8980
18813SOL     OW74430  13.480   9.156  10.360  0.6444  0.4168 -0.1639
18813SOL    HW174431  13.569   9.190  10.374  0.4235  0.8541  0.2121
18813SOL    HW274432  13.493   9.073  10.315  1.2151  0.8624 -0.8490
18814SOL     OW74433   8.773  13.136  13.217  0.1288 -0.4404  0.1173
18814SOL    HW174434   8.820  13.099  13.143 -0.6736 -0.2264 -0.5188
18814SOL    HW274435   8.840  13.180  13.269  0.8103 -1.2015 -0.0978
18815SOL     OW74436  13.686  11.062   6.925 -0.4147 -0.5755 -0.5750
18815SOL    HW174437  13.597  11.083   6.894 -1.2192 -2.5942  0.2444
18815SOL    HW274438  13.736  11.049   6.845 -0.5394  1.6045 -1.0732
18816SOL     OW74439   9.380   4.752  13.686 -0.2497  0.0391  0.2584
18816SOL    HW174440   9.367   4.841  13.653 -0.0106  0.2851  0.8276
18816SOL    HW274441   9.362   4.758  13.779  1.8453 -0.0494  0.7111
18817SOL     OW74442  10.037  11.324  13.607 -0.5417  0.4081 -0.6195
18817SOL    HW174443  10.013  11.412  13.576  0.5159  1.2939  0.9035
18817SOL    HW274444   9.954  11.282  13.627 -1.0307  1.8583  0.6201
18818SOL     OW74445   4.097  10.633   1.712  0.1464  0.1911  0.3149
18818SOL    HW174446   4.143  10.606   1.791 -1.2146 -0.6257  0.8725
18818SOL    HW274447   4.039  10.559   1.692  0.6413  0.2759 -1.5956
18819SOL     OW74448  12.018   1.366   2.438  0.1120  0.3152  0.1516
18819SOL    HW174449  11.964   1.444   2.452 -0.9144  0.0257 -1.8802
18819SOL    HW274450  12.108   1.398   2.439 -0.2210  1.2681  0.7511
18820SOL     OW74451  10.638   2.043  10.418  0.0233  0.1888  0.5080
18820SOL    HW174452  10.676   1.966  10.461  1.3655  0.6160  0.1314
18820SOL    HW274453  10.676   2.043  10.331 -2.2956 -0.3923 -0.5766
18821SOL     OW74454   6.782  11.970  11.722 -0.1585  0.4452 -0.0952
18821SOL    HW174455   6.873  12.001  11.716 -0.1899  0.4678 -0.4713
18821SOL    HW274456   6.789  11.877  11.742 -0.0595  0.6159  0.7053
18822SOL     OW74457   4.878   9.405   3.497  0.7420 -0.6826 -0.2760
18822SOL    HW174458   4.851   9.397   3.589  0.4357  1.4691 -0.1297
18822SOL    HW274459   4.974   9.403   3.501  0.7262 -1.1917  0.0037
18823SOL     OW74460   3.567   7.303  11.730 -0.3846  0.0395 -0.3116
18823SOL    HW174461   3.551   7.297  11.635 -1.3856 -1.1796 -0.0812
18823SOL    HW274462   3.480   7.300  11.769  0.0607 -0.0410  0.6880
18824SOL     OW74463   6.424   8.151   0.449 -0.0726  0.1323 -0.3139
18824SOL    HW174464   6.355   8.146   0.383  0.0712 -1.1136 -0.3926
18824SOL    HW274465   6.504   8.124   0.402  0.2799  0.5504  0.0353
18825SOL     OW74466  13.230   4.333   1.615 -0.1897 -0.0315  0.0818
18825SOL    HW174467  13.157   4.329   1.677 -0.5502  0.3492 -0.3071
18825SOL    HW274468  13.268   4.420   1.629  0.4890 -0.4132  0.6135
18826SOL     OW74469  10.585   3.452   8.549  0.1473  0.3519  0.0734
18826SOL    HW174470  10.532   3.378   8.581 -1.6454  1.2757 -0.6091
18826SOL    HW274471  10.658   3.457   8.610 -0.5091 -1.0474  1.0318
18827SOL     OW74472   4.297   6.265   6.702 -0.2622 -0.3226  0.0737
18827SOL    HW174473   4.309   6.350   6.742 -0.4047 -0.2675 -0.0001
18827SOL    HW274474   4.205   6.263   6.674 -0.1795 -0.3755 -0.2084
18828SOL     OW74475  10.901   5.208  10.735  0.1432  0.1714  0.2019
18828SOL    HW174476  10.991   5.196  10.764 -0.1396 -0.8960  0.6740
18828SOL    HW274477  10.877   5.126  10.692 -0.5430  0.5100 -0.0813
18829SOL     OW74478   6.084   9.655   7.386  0.3234 -0.3034  0.2284
18829SOL    HW174479   6.053   9.742   7.361  1.2158 -0.3716 -1.1961
18829SOL    HW274480   6.026   9.594   7.340 -0.9710 -0.5296  2.0358
18830SOL     OW74481   4.015   6.406  11.578 -0.6170  0.3851  0.2858
18830SOL    HW174482   4.107   6.402  11.604  0.2155  0.9151 -2.2801
18830SOL    HW274483   4.003   6.496  11.547 -1.4941 -0.1584 -1.0232
18831SOL     OW74484   2.985  13.542   0.647 -1.0564  0.0172 -0.0906
18831SOL    HW174485   3.053  13.591   0.601 -0.7043 -1.0347 -0.7224
18831SOL    HW274486   2.983  13.581   0.735 -0.1479  0.5493 -0.2907
18832SOL     OW74487  12.100   6.660   3.453 -0.1975 -0.2726 -0.2526
18832SOL    HW174488  12.129   6.634   3.365 -1.8354  0.5678 -1.0983
18832SOL    HW274489  12.179   6.695   3.495  0.2308  1.1769 -2.1324
18833SOL     OW74490   4.976   1.731   0.821 -0.1403  0.2821  0.1912
18833SOL    HW174491   4.926   1.749   0.742 -0.3382  2.1130  0.6986
18833SOL    HW274492   4.988   1.816   0.863  1.7612 -0.3563  1.0715
18834SOL     OW74493   5.910   8.674   7.031 -0.0112  0.1725  0.0428
18834SOL    HW174494   5.932   8.730   6.957  1.5730 -2.1242 -1.3825
18834SOL    HW274495   5.972   8.699   7.099  0.4637  0.3936 -0.4602
18835SOL     OW74496   9.130  12.814   2.168  0.0173  0.5070 -0.2110
18835SOL    HW174497   9.150  12.722   2.151 -0.1195  0.6079 -0.9831
18835SOL    HW274498   9.035  12.819   2.169  0.0162  0.4100  1.2170
18836SOL     OW74499   9.456   3.813  11.293 -0.0761  0.3083 -0.1287
18836SOL    HW174500   9.505   3.843  11.370  1.4575 -2.0911 -0.0407
18836SOL    HW274501   9.520   3.760  11.244 -1.7060 -0.2335 -1.7705
18837SOL     OW74502   6.207   7.967  12.873  0.2993  0.0384 -0.1805
18837SOL    HW174503   6.207   8.001  12.783 -1.3699  0.9704  0.1319
18837SOL    HW274504   6.273   7.898  12.872  0.1180 -0.1754 -2.2060
18838SOL     OW74505   8.040   5.048   6.304 -0.0939 -0.1002 -0.1838
18838SOL    HW174506   7.958   5.097   6.308 -1.0398 -1.5827 -0.4174
18838SOL    HW274507   8.099   5.103   6.254 -0.5456  1.5404  1.0104
18839SOL     OW74508   0.355   1.872   0.007  0.5584 -0.2062  0.3182
18839SOL    HW174509   0.447   1.898  -0.000  0.9230 -1.0486  1.6130
18839SOL    HW274510   0.319   1.888  -0.081  2.1217 -0.5750 -0.4268
18840SOL     OW74511  12.545   7.705   0.516  0.3515  0.2747  0.5888
18840SOL    HW174512  12.561   7.759   0.593 -0.6849  0.2386  0.8385
18840SOL    HW274513  12.549   7.615   0.548  1.4455  0.2038  0.2943
18841SOL     OW74514   6.500  10.558   6.697 -0.3235 -0.2033 -0.3967
18841SOL    HW174515   6.495  10.597   6.784 -1.0410 -1.4072  0.1381
18841SOL    HW274516   6.574  10.600   6.655 -1.1843  1.8620  0.0583
18842SOL     OW74517   4.938  13.608  13.414  0.5010 -0.1639 -0.0754
18842SOL    HW174518   5.025  13.618  13.454  0.1422  2.2005  0.2803
18842SOL    HW274519   4.956  13.587  13.322  1.5842  2.5890 -0.5920
18843SOL     OW74520   8.030  10.702   8.536  0.4949  0.1037  0.3677
18843SOL    HW174521   8.008  10.674   8.448  1.2070 -1.5418  0.6640
18843SOL    HW274522   7.957  10.672   8.590  1.8722 -2.6902  0.9000
18844SOL     OW74523  13.677   4.052  11.018  0.5924  0.1795  0.4315
18844SOL    HW174524  13.649   4.072  10.929 -1.0364  0.9701  1.0660
18844SOL    HW274525  13.596   4.057  11.070  1.4070 -0.7863  1.8637
18845SOL     OW74526  11.070  12.941  11.323  0.4211  0.2201  0.1002
18845SOL    HW174527  11.049  13.023  11.278  0.2554  0.8840  1.3397
18845SOL    HW274528  11.115  12.888  11.257  0.3803  1.2383 -0.7695
18846SOL     OW74529  10.209   7.172   3.074  0.2641 -0.4148  0.6306
18846SOL    HW174530  10.292   7.190   3.118 -0.9052  1.3083  2.3132
18846SOL    HW274531  10.221   7.207   2.985  1.5749 -0.9361  0.5819
18847SOL     OW74532   6.575   9.591   2.058 -0.4036  0.2637  0.1295
18847SOL    HW174533   6.611   9.618   1.974 -0.2519  1.2339  0.4920
18847SOL    HW274534   6.526   9.511   2.039  0.7346 -0.2758 -0.6299
18848SOL     OW74535   7.864  11.457  13.570 -0.2693 -0.4794 -0.1965
18848SOL    HW174536   7.836  11.538  13.613  0.2734 -0.6045  0.4063
18848SOL    HW274537   7.890  11.399  13.642 -0.8656 -1.2767 -0.6043
18849SOL     OW74538   1.314   5.331   5.017  0.3538 -0.4076 -0.8035
18849SOL    HW174539   1.381   5.281   4.971  0.4532  0.0424 -1.1521
18849SOL    HW274540   1.360   5.407   5.052  0.3376 -0.8733  0.2720
18850SOL     OW74541   5.039   4.902   7.221 -0.1633 -0.0275 -0.2126
18850SOL    HW174542   4.988   4.982   7.237 -0.1318 -0.1350  0.4517
18850SOL    HW274543   5.012   4.843   7.291 -1.3649 -1.1816 -1.6057
18851SOL     OW74544   4.856   3.626   8.256  0.4115  0.1304 -0.0625
18851SOL    HW174545   4.917   3.602   8.187 -0.1531 -1.6494  0.0017
18851SOL    HW274546   4.785   3.562   8.248  0.6509 -0.5803  2.5786
18852SOL     OW74547   0.699   1.558  13.420 -0.1044  0.4034  0.6326
18852SOL    HW174548   0.677   1.526  13.332 -0.1169  1.7893  0.1149
18852SOL    HW274549   0.617   1.591  13.455  0.0053  0.3262  0.9670
18853SOL     OW74550  12.023   1.695   2.911 -0.2281  0.4597 -0.3377
18853SOL    HW174551  11.941   1.665   2.949  0.2749 -0.2164  0.2459
18853SOL    HW274552  12.003   1.781   2.876 -1.6544 -0.4064 -1.8103
18854SOL     OW74553   2.130   8.635   4.726 -0.9215  0.2025  0.7977
18854SOL    HW174554   2.110   8.608   4.816 -0.8139 -1.8005  0.2793
18854SOL    HW274555   2.225   8.623   4.718 -1.2288 -2.0688 -0.2507
18855SOL     OW74556   5.568   2.348  12.206  0.0127  0.4969  0.0678
18855SOL    HW174557   5.550   2.306  12.290 -3.2863  0.9882 -0.2659
18855SOL    HW274558   5.521   2.431  12.210 -0.6757  0.3088 -2.4205
18856SOL     OW74559   0.813   1.331   5.269  0.3799 -0.4794  0.0141
18856SOL    HW174560   0.822   1.403   5.332 -1.1084 -1.1799  1.1008
18856SOL    HW274561   0.724   1.340   5.236  0.1290 -1.8805  0.2652
18857SOL     OW74562   6.610  11.660   3.653 -0.3125 -0.1202  0.5002
18857SOL    HW174563   6.527  11.627   3.688 -1.4156  1.6444 -0.3563
18857SOL    HW274564   6.601  11.651   3.558 -0.3328  1.8103  0.2831
18858SOL     OW74565   7.276   6.264   5.576 -0.1229  0.4039  0.5833
18858SOL    HW174566   7.318   6.187   5.616 -1.7198  0.8055  3.3073
18858SOL    HW274567   7.282   6.332   5.643 -0.5759  2.0397 -0.9674
18859SOL     OW74568   9.759  10.067  12.118  0.6827  0.0747 -0.2422
18859SOL    HW174569   9.810   9.992  12.089 -1.3357 -1.7214  0.5070
18859SOL    HW274570   9.768  10.067  12.213 -0.7025 -0.3601 -0.0804
18860SOL     OW74571   1.546   8.858   9.359  0.0243  0.1190 -0.4358
18860SOL    HW174572   1.536   8.892   9.271  0.7513 -0.6519 -0.8366
18860SOL    HW274573   1.499   8.774   9.358 -0.1976  0.2352 -0.0088
18861SOL     OW74574   3.418  10.671  14.019 -0.1348  0.8202  0.4997
18861SOL    HW174575   3.482  10.601  14.003  1.4678  2.3544 -0.0808
18861SOL    HW274576   3.436  10.736  13.951 -2.2647  1.3735  0.3893
18862SOL     OW74577   2.939   4.188  13.750  0.2725  0.4177 -0.1410
18862SOL    HW174578   2.892   4.153  13.675  0.9366 -0.2899 -0.2383
18862SOL    HW274579   3.031   4.167  13.733  0.3798 -0.2472  1.1284
18863SOL     OW74580   5.843   2.929  10.016  0.0026  0.5456 -0.2736
18863SOL    HW174581   5.751   2.955  10.027 -0.3516 -1.0140  0.7405
18863SOL    HW274582   5.887   2.963  10.093  0.2581  1.1571 -0.6835
18864SOL     OW74583   8.737   2.790   8.040 -0.1032 -0.3810 -0.0612
18864SOL    HW174584   8.692   2.706   8.052  0.8035 -0.5606  2.6031
18864SOL    HW274585   8.814   2.768   7.986  1.1393 -1.7233  2.0978
18865SOL     OW74586   1.239   6.511  11.705 -0.3508  0.1026 -0.0446
18865SOL    HW174587   1.144   6.497  11.707 -0.5255  1.1577 -0.3492
18865SOL    HW274588   1.275   6.426  11.681 -1.0713 -0.8772  2.1182
18866SOL     OW74589   2.738   1.895  12.261  0.3338 -0.2266 -0.0951
18866SOL    HW174590   2.734   1.802  12.236 -0.8608 -0.4154  0.6858
18866SOL    HW274591   2.783   1.937  12.188 -0.0063 -1.2729 -0.9502
18867SOL     OW74592  12.933   3.040   0.725  0.8062 -0.2269 -0.5489
18867SOL    HW174593  13.028   3.036   0.735  1.1128  5.0442  2.2668
18867SOL    HW274594  12.919   3.104   0.655 -0.6230 -0.0688 -0.1345
18868SOL     OW74595   4.146   3.692   1.344  0.0618 -0.5466  0.2834
18868SOL    HW174596   4.234   3.710   1.309  0.4183 -0.8445  0.9992
18868SOL    HW274597   4.101   3.776   1.342  0.3713 -0.3870 -0.0694
18869SOL     OW74598   0.001   9.130   1.539 -0.4388 -0.0503 -0.5689
18869SOL    HW174599  -0.089   9.162   1.546 -0.1943  0.6850 -0.7324
18869SOL    HW274600   0.055   9.201   1.574  0.0859 -0.4371 -0.5814
18870SOL     OW74601   3.341  11.614   5.072 -0.5115  0.3487 -0.0444
18870SOL    HW174602   3.341  11.675   5.145 -2.4190  0.5144 -0.1405
18870SOL    HW274603   3.434  11.593   5.058  0.0876  2.3215  0.7139
18871SOL     OW74604   5.458   7.920   4.111  0.2314 -0.2301 -0.4005
18871SOL    HW174605   5.496   7.851   4.057  2.4669  1.1684 -0.7204
18871SOL    HW274606   5.380   7.879   4.151  0.1628 -2.1781 -2.3602
18872SOL     OW74607   3.471  13.285   1.052  0.0912 -0.1529 -0.3770
18872SOL    HW174608   3.445  13.293   0.961 -1.6166  1.3894  0.1835
18872SOL    HW274609   3.471  13.375   1.085 -1.5257 -0.8360  1.6826
18873SOL     OW74610   9.086   2.835   6.986 -0.3841  0.1243 -0.0633
18873SOL    HW174611   9.143   2.781   6.932  0.7847  0.2457  1.0089
18873SOL    HW274612   8.999   2.824   6.947 -0.1214 -2.1864 -0.1475
18874SOL     OW74613   1.257   4.220  13.606  0.2970  0.0867  0.2123
18874SOL    HW174614   1.229   4.308  13.582  0.0633 -0.2001 -0.5785
18874SOL    HW274615   1.177   4.167  13.602  0.7200 -0.4946 -0.9002
18875SOL     OW74616  10.495   3.047   0.839  0.4844  0.3532 -0.4697
18875SOL    HW174617  10.467   2.955   0.844 -0.7325  0.5973 -1.8676
18875SOL    HW274618  10.576   3.051   0.890 -0.6669 -0.9885  1.5939
18876SOL     OW74619   7.582   9.033  13.674 -0.0254  0.0971  0.2535
18876SOL    HW174620   7.553   8.948  13.708  2.6441 -0.8395  0.4291
18876SOL    HW274621   7.543   9.097  13.734 -2.9297 -0.8211 -0.4664
18877SOL     OW74622   1.475   8.827   2.230  0.0789 -0.1037  0.0906
18877SOL    HW174623   1.568   8.807   2.214  0.2118  1.4438 -1.2923
18877SOL    HW274624   1.436   8.830   2.143 -1.6689 -2.2254  0.6888
18878SOL     OW74625   7.658   0.072   8.360 -0.2540  0.4766  0.3782
18878SOL    HW174626   7.618   0.006   8.416 -2.4832 -0.9410 -2.5578
18878SOL    HW274627   7.584   0.116   8.318  1.2480  2.2589 -0.5529
18879SOL     OW74628   6.890   8.357   8.387  0.2862 -0.8590 -0.6239
18879SOL    HW174629   6.912   8.274   8.345 -2.0573 -2.5837  1.2555
18879SOL    HW274630   6.799   8.372   8.365  0.9016  1.8268 -1.7053
18880SOL     OW74631   4.978   1.093   0.913  0.5130 -0.3314  0.5686
18880SOL    HW174632   4.928   1.012   0.920  0.5073 -0.2855  1.0944
18880SOL    HW274633   4.972   1.117   0.821  1.8225 -1.7574  0.0749
18881SOL     OW74634   4.761  13.508   6.755  0.0219  0.5806 -0.1475
18881SOL    HW174635   4.753  13.469   6.668  1.1789 -0.0356 -0.0018
18881SOL    HW274636   4.848  13.481   6.785 -0.4415  0.5989  1.2827
18882SOL     OW74637   9.268   6.292  12.239  0.7789 -0.0352 -0.1470
18882SOL    HW174638   9.225   6.258  12.318 -0.1203 -0.8483 -0.9653
18882SOL    HW274639   9.358   6.259  12.246  0.9178  0.4894  0.8656
18883SOL     OW74640  13.894   6.826   7.207  0.2438  0.1107  0.3046
18883SOL    HW174641  13.933   6.858   7.126  0.2440 -2.4109 -0.7813
18883SOL    HW274642  13.948   6.750   7.231 -1.2155 -0.6507  1.3200
18884SOL     OW74643   2.023   4.336   2.521 -0.0276 -0.4017 -0.0507
18884SOL    HW174644   1.955   4.392   2.561  0.1497  0.6368 -1.1505
18884SOL    HW274645   2.041   4.270   2.588 -2.7408 -1.2520 -0.0371
18885SOL     OW74646   2.508   2.266  13.951  0.1102  0.5542 -0.1981
18885SOL    HW174647   2.488   2.336  14.014  0.4393  0.0975  0.4289
18885SOL    HW274648   2.456   2.288  13.874 -1.2632  0.4767  0.6635
18886SOL     OW74649  10.305   8.120   5.644 -0.2109  0.1951 -0.5106
18886SOL    HW174650  10.291   8.163   5.560  0.0873 -0.0662 -0.6986
18886SOL    HW274651  10.244   8.047   5.644  1.2822 -1.1315 -1.4650
18887SOL     OW74652  12.243   3.231   5.629 -0.3618  0.1537 -0.1725
18887SOL    HW174653  12.339   3.228   5.632 -0.3979 -0.4174  1.2794
18887SOL    HW274654  12.220   3.178   5.552  0.5010  1.3490 -1.2966
18888SOL     OW74655   5.029   6.421   3.130 -0.0839 -0.3075 -0.2144
18888SOL    HW174656   5.006   6.491   3.191  1.3532 -0.3912  0.4583
18888SOL    HW274657   5.045   6.345   3.186 -1.5786 -1.2027 -0.9351
18889SOL     OW74658   9.943  11.751   6.394  0.2024  0.1502 -0.0805
18889SOL    HW174659   9.882  11.824   6.392 -1.2317 -0.9996 -0.7801
18889SOL    HW274660  10.003  11.771   6.466 -0.5762  1.6580  0.1816
18890SOL     OW74661   2.609   7.886   9.031  0.1263  0.1808  0.2447
18890SOL    HW174662   2.632   7.839   9.111 -0.0909 -0.9924 -0.3753
18890SOL    HW274663   2.623   7.978   9.054  0.3119 -0.1452  1.5522
18891SOL     OW74664   8.447  13.969   9.941  0.0889 -0.7338 -0.4849
18891SOL    HW174665   8.515  13.904   9.925  1.0421  0.0799  0.0901
18891SOL    HW274666   8.380  13.923   9.991 -0.1585 -1.7470 -1.6934
18892SOL     OW74667  12.290   0.372  11.216  0.0250 -0.1026  0.1553
18892SOL    HW174668  12.368   0.338  11.259 -0.3062 -0.2817  0.6171
18892SOL    HW274669  12.278   0.317  11.139  0.8435  0.4611 -0.3899
18893SOL     OW74670  12.609   3.530  11.295  0.4994  0.1408  0.3742
18893SOL    HW174671  12.662   3.452  11.277  1.0262  1.1283 -3.0711
18893SOL    HW274672  12.526   3.513  11.251  0.4819  1.3288 -0.0887
18894SOL     OW74673  12.927   9.305  10.609 -0.4205 -0.3831 -0.1794
18894SOL    HW174674  12.985   9.286  10.683 -1.7043 -0.1410  0.9370
18894SOL    HW274675  12.965   9.383  10.568  0.8643 -1.1014 -0.4140
18895SOL     OW74676   1.863   0.619   2.370 -0.5785 -0.1980  0.2533
18895SOL    HW174677   1.841   0.540   2.321 -0.6733 -0.1997  0.2989
18895SOL    HW274678   1.921   0.667   2.312  0.5648 -0.9285  0.7471
18896SOL     OW74679   7.115  12.509   3.501 -0.1538  0.3938 -0.1090
18896SOL    HW174680   7.082  12.419   3.505  0.3597  0.2314  0.6574
18896SOL    HW274681   7.142  12.520   3.410 -0.6356 -0.0773 -0.3153
18897SOL     OW74682   6.097   8.025  11.806  0.5603  0.0304 -1.0650
18897SOL    HW174683   6.170   8.064  11.855  0.7995  0.2786 -1.6083
18897SOL    HW274684   6.023   8.083  11.822  0.3782 -0.4138 -0.2215
18898SOL     OW74685   7.054   4.892   9.188 -0.1597  0.0060 -0.2675
18898SOL    HW174686   7.006   4.811   9.169  1.0512 -0.3976 -1.7491
18898SOL    HW274687   7.126   4.864   9.245 -0.9062  0.4195  0.9380
18899SOL     OW74688  12.118   5.129   8.163 -0.0091  0.1695 -0.2741
18899SOL    HW174689  12.093   5.107   8.253  0.6920  0.1782 -0.0706
18899SOL    HW274690  12.040   5.171   8.126 -0.7216 -0.9406 -0.0698
18900SOL     OW74691  13.052   3.623   5.061  0.5933  0.4100 -0.4904
18900SOL    HW174692  13.103   3.705   5.058  2.3109 -0.4650  1.5142
18900SOL    HW274693  12.986   3.639   5.128 -0.3688  0.7910 -1.5093
18901SOL     OW74694   0.955  10.420   3.710 -0.4339  0.1655  0.0015
18901SOL    HW174695   0.971  10.515   3.710  1.4686 -0.1122  1.0386
18901SOL    HW274696   1.042  10.381   3.706 -1.2251 -1.5772 -1.3191
18902SOL     OW74697   5.275   1.733   9.076 -0.3738 -0.3946  0.3436
18902SOL    HW174698   5.235   1.651   9.105 -0.4720 -0.1169  0.9955
18902SOL    HW274699   5.276   1.789   9.153 -0.9872  0.4951 -0.2682
18903SOL     OW74700  12.652   2.851   1.896  0.4724  0.7617 -0.7478
18903SOL    HW174701  12.622   2.900   1.820  0.2279  1.0908 -0.4379
18903SOL    HW274702  12.748   2.858   1.892  0.4046  2.5298  0.1228
18904SOL     OW74703   1.727   4.931   6.054  0.2224  0.4092 -0.0865
18904SOL    HW174704   1.792   5.001   6.062  1.4671 -0.7673  0.6319
18904SOL    HW274705   1.773   4.861   6.007 -0.5717 -0.3985  0.2995
18905SOL     OW74706  10.554   9.003  10.131 -0.3239  0.0973  0.1808
18905SOL    HW174707  10.571   8.927  10.186 -1.6933 -1.1013 -0.9841
18905SOL    HW274708  10.639   9.023  10.091  0.4983  0.4580  1.9784
18906SOL     OW74709   0.885  13.542   7.519  0.1237  0.6547  0.5113
18906SOL    HW174710   0.900  13.636   7.529  0.6695  0.5318  0.8693
18906SOL    HW274711   0.811  13.524   7.577 -0.8631  1.0919 -0.5613
18907SOL     OW74712   9.577   3.119   8.420  0.0828  0.7695  0.1868
18907SOL    HW174713   9.639   3.057   8.457 -1.5405 -0.3536  1.1006
18907SOL    HW274714   9.629   3.198   8.405  1.8621 -0.3217  0.3227
18908SOL     OW74715   8.311   2.879   9.239  1.5077  0.1285  0.1104
18908SOL    HW174716   8.367   2.944   9.197  1.9906  0.3926  1.1361
18908SOL    HW274717   8.235   2.873   9.182  2.0127  0.6899 -0.6430
18909SOL     OW74718  11.840  12.535   9.447  0.1525  0.0839  0.0185
18909SOL    HW174719  11.839  12.561   9.539  2.0684  0.2947  0.0208
18909SOL    HW274720  11.766  12.583   9.408 -0.0458  0.8126  1.2324
18910SOL     OW74721   4.957   2.890   5.641 -0.4261  0.1553 -0.8947
18910SOL    HW174722   4.957   2.808   5.692 -0.4802  0.3536 -0.5732
18910SOL    HW274723   4.948   2.861   5.550  0.1278 -0.2298 -0.8344
18911SOL     OW74724   5.870   6.958   5.420 -0.0581  0.0097  0.3723
18911SOL    HW174725   5.835   7.044   5.443  0.0874 -0.2636  1.6837
18911SOL    HW274726   5.793   6.906   5.397 -0.4811 -0.3030  2.3001
18912SOL     OW74727  10.029  13.590  12.516  0.4291 -0.1372  0.3128
18912SOL    HW174728  10.038  13.623  12.427  0.9001  0.7338  0.6713
18912SOL    HW274729  10.080  13.509  12.518  0.5084 -0.0988 -0.1797
18913SOL     OW74730  10.864   3.944  11.278 -0.3350 -0.1779 -0.5619
18913SOL    HW174731  10.879   3.938  11.373  0.9556 -1.3158 -0.8165
18913SOL    HW274732  10.775   3.911  11.267 -0.7792  0.6533  0.3160
18914SOL     OW74733   5.550   6.799   0.876 -0.2249  0.4084  0.2303
18914SOL    HW174734   5.502   6.768   0.953  0.3162 -0.9483  0.0498
18914SOL    HW274735   5.502   6.876   0.847 -0.9445  0.4266  1.4043
18915SOL     OW74736   9.203   9.236   6.164 -0.0788 -0.0359  0.2965
18915SOL    HW174737   9.164   9.278   6.241  1.3506  0.4563  0.7793
18915SOL    HW274738   9.169   9.146   6.167 -0.1678  0.0130  1.4302
18916SOL     OW74739   3.675   1.840   0.949  0.1407 -0.7990 -0.1578
18916SOL    HW174740   3.686   1.746   0.959 -1.6772 -1.0240  0.0372
18916SOL    HW274741   3.750   1.868   0.896  1.6346 -2.0601  1.1886
18917SOL     OW74742  10.278   8.408   8.698 -0.3250  0.0834  0.1833
18917SOL    HW174743  10.363   8.452   8.693 -0.6701  0.6457 -1.7475
18917SOL    HW274744  10.299   8.316   8.686 -0.0110  0.2805 -0.9219
18918SOL     OW74745   0.294  12.877   5.982  0.1875 -0.0707 -0.5227
18918SOL    HW174746   0.272  12.803   6.038 -0.2938 -0.0619 -0.6934
18918SOL    HW274747   0.390  12.882   5.985  0.1396  1.9659  2.8986
18919SOL     OW74748   9.127   7.437   2.932 -0.4462 -0.4412 -0.0637
18919SOL    HW174749   9.162   7.449   3.020 -1.5573 -0.0496  0.3452
18919SOL    HW274750   9.204   7.427   2.876  0.2670 -0.6990  0.9522
18920SOL     OW74751  11.924   1.612   2.464  0.0923  0.1558 -0.5953
18920SOL    HW174752  11.963   1.672   2.527  1.8852 -0.6346 -0.8916
18920SOL    HW274753  11.888   1.669   2.396  1.0917  0.9339 -0.4975
18921SOL     OW74754   3.366   9.556   6.625  0.0101  0.1863  0.1501
18921SOL    HW174755   3.379   9.640   6.668 -2.5621  1.5998 -1.5559
18921SOL    HW274756   3.439   9.548   6.564  1.3221  0.2120  1.6702
18922SOL     OW74757   3.963   1.389   9.325 -0.2646  0.3898  0.1985
18922SOL    HW174758   3.897   1.390   9.256 -1.2407  2.6426  1.0696
18922SOL    HW274759   3.948   1.307   9.372 -2.6085  0.9287  0.4879
18923SOL     OW74760   2.201  13.878   7.842  0.0861  0.6970 -0.3586
18923SOL    HW174761   2.187  13.783   7.833  1.2120  0.4231  0.5472
18923SOL    HW274762   2.217  13.891   7.936  0.1819  1.7522 -0.5119
18924SOL     OW74763  10.385   6.892   8.768 -0.2318 -0.2468 -0.1921
18924SOL    HW174764  10.443   6.886   8.693  1.6770 -1.9673  1.2870
18924SOL    HW274765  10.351   6.982   8.766 -0.4831 -0.3176 -3.1719
18925SOL     OW74766  12.250   9.296   5.659 -0.3342 -0.0031 -0.0414
18925SOL    HW174767  12.282   9.266   5.574  0.7537  1.8134 -0.3130
18925SOL    HW274768  12.256   9.218   5.715  3.1319 -0.2138 -0.4990
18926SOL     OW74769   9.366   5.891   9.696 -0.0269  0.2180 -0.0673
18926SOL    HW174770   9.368   5.971   9.748 -0.3067 -0.8900  1.7396
18926SOL    HW274771   9.372   5.820   9.760  0.7312 -1.2199 -1.6387
18927SOL     OW74772  11.953   2.888   9.619 -0.2381 -0.6218  0.0638
18927SOL    HW174773  12.001   2.889   9.702  0.3448 -1.4714 -0.2594
18927SOL    HW274774  11.861   2.899   9.645  0.0003 -0.1963  0.7675
18928SOL     OW74775  10.100   4.223  10.664 -0.1802  0.1480  0.0830
18928SOL    HW174776  10.116   4.228  10.570 -0.4823 -0.9947 -0.0350
18928SOL    HW274777  10.095   4.315  10.692 -0.2883  0.4986 -1.0404
18929SOL     OW74778  11.833  11.724   8.696  0.0069 -0.3582 -0.1204
18929SOL    HW174779  11.920  11.691   8.721  0.0617 -0.7593 -0.8276
18929SOL    HW274780  11.832  11.814   8.727  0.8137 -0.2360 -0.4297
18930SOL     OW74781   6.416  10.074   5.846  0.3788  0.3214  0.0181
18930SOL    HW174782   6.379  10.057   5.932 -0.7103 -3.3324 -0.9908
18930SOL    HW274783   6.348  10.047   5.784  1.5291  1.7906 -2.0447
18931SOL     OW74784  13.441   9.263   0.069 -0.3822  0.2481  0.0265
18931SOL    HW174785  13.485   9.188   0.028 -0.0876 -0.3816  1.4363
18931SOL    HW274786  13.348   9.240   0.068 -0.2902 -0.1590  0.4820
18932SOL     OW74787  12.717   0.194   0.738 -0.0864 -0.4328 -0.7188
18932SOL    HW174788  12.641   0.167   0.686 -1.2048 -0.1231  0.6754
18932SOL    HW274789  12.721   0.289   0.725 -1.4785 -0.0719  1.0783
18933SOL     OW74790  12.811   3.644   5.793 -0.4279 -0.7115 -0.3950
18933SOL    HW174791  12.801   3.551   5.815  1.3577 -1.0920 -1.0430
18933SOL    HW274792  12.796   3.689   5.876 -0.0945 -1.6747  0.2110
18934SOL     OW74793   5.397   3.048   1.234 -0.0655 -0.0528 -0.1515
18934SOL    HW174794   5.427   3.139   1.239 -0.1146  0.0492 -1.4438
18934SOL    HW274795   5.311   3.054   1.193  0.2155 -0.7328 -0.8581
18935SOL     OW74796  11.736   5.549   0.902 -0.9700  0.6678  0.2754
18935SOL    HW174797  11.713   5.475   0.958  2.6701 -0.8845 -0.0069
18935SOL    HW274798  11.694   5.529   0.818 -1.6720  0.0006  0.7658
18936SOL     OW74799   9.251  11.932  10.355  0.8854 -0.3470  0.2955
18936SOL    HW174800   9.327  11.971  10.311 -0.1963  2.8514  0.9906
18936SOL    HW274801   9.192  11.908  10.284  0.5234  1.7314 -0.1495
18937SOL     OW74802   5.989   5.305   2.302 -0.1656  0.1088 -0.2952
18937SOL    HW174803   6.001   5.270   2.390  0.8613 -1.2724 -0.9374
18937SOL    HW274804   6.058   5.369   2.291  1.1840 -1.3748 -0.8555
18938SOL     OW74805  10.437   8.910   4.924 -0.2757  0.0073 -0.0002
18938SOL    HW174806  10.427   8.815   4.916  0.3404 -0.0660  0.0163
18938SOL    HW274807  10.413   8.944   4.838 -0.4506 -0.1688 -0.0210
18939SOL     OW74808  14.028   9.501   8.867 -0.7630 -0.3323  0.4901
18939SOL    HW174809  14.047   9.418   8.822 -0.7321  0.1711 -0.4410
18939SOL    HW274810  14.113   9.545   8.873 -0.9662  0.1342 -0.0422
18940SOL     OW74811   2.109   2.457   8.419 -0.1256 -0.2188 -0.3195
18940SOL    HW174812   2.166   2.388   8.382 -1.3718 -2.0039  0.9309
18940SOL    HW274813   2.024   2.415   8.428 -0.5371  0.9646  2.0394
18941SOL     OW74814   3.993  10.360   7.657 -0.0005  1.0632 -0.6128
18941SOL    HW174815   4.010  10.387   7.567 -0.8569 -0.9445 -1.4275
18941SOL    HW274816   3.899  10.376   7.669 -0.1870  0.0135 -0.5772
18942SOL     OW74817  11.577   2.536   6.888  0.1621 -0.3127  0.3808
18942SOL    HW174818  11.532   2.477   6.827  1.2276 -2.1527  1.2860
18942SOL    HW274819  11.512   2.556   6.955 -0.5765  0.5759 -0.5626
18943SOL     OW74820  13.007   1.666  13.509 -0.1302 -0.4618  0.3094
18943SOL    HW174821  13.006   1.575  13.477  0.7055 -0.8061  1.2106
18943SOL    HW274822  12.930   1.673  13.565 -1.6044  0.1438 -1.6840
18944SOL     OW74823  11.276   2.105   0.322 -0.4754 -0.1123 -0.9046
18944SOL    HW174824  11.194   2.121   0.274 -0.9904 -1.0355 -0.3587
18944SOL    HW274825  11.270   2.164   0.397 -1.8005 -1.8378  0.4395
18945SOL     OW74826   8.939   7.421  10.382 -0.8229 -0.0270  0.5070
18945SOL    HW174827   8.997   7.490  10.414  2.0073 -1.3740 -1.3242
18945SOL    HW274828   8.933   7.437  10.288 -2.7038 -0.5268  0.4993
18946SOL     OW74829   5.213   9.963   8.592  0.1448  0.1271 -0.7094
18946SOL    HW174830   5.238   9.925   8.677 -0.0464  0.4851 -0.4920
18946SOL    HW274831   5.120   9.944   8.584  0.0395  0.5787 -0.5833
18947SOL     OW74832  13.428  10.335   2.533 -0.3711  0.2318 -0.1310
18947SOL    HW174833  13.395  10.302   2.617 -2.3791  0.8757 -0.6186
18947SOL    HW274834  13.421  10.430   2.539 -2.1649  0.2462 -1.6017
18948SOL     OW74835   2.263  10.149   1.938 -0.2868  0.1545 -0.3102
18948SOL    HW174836   2.254  10.074   1.879 -0.4671 -0.5162  0.5552
18948SOL    HW274837   2.352  10.182   1.922 -0.5511  0.3841 -1.4032
18949SOL     OW74838   6.833  12.406  13.221  0.1052 -0.6848 -0.4609
18949SOL    HW174839   6.805  12.366  13.303 -2.1242 -1.9695 -1.7711
18949SOL    HW274840   6.837  12.500  13.241 -0.3062 -0.9650  1.1089
18950SOL     OW74841   7.907   0.978   6.886  0.3151  0.0316  0.0914
18950SOL    HW174842   7.927   0.904   6.942  0.7066 -0.8306 -1.1612
18950SOL    HW274843   7.983   0.987   6.829 -0.5321  0.1715 -1.0502
18951SOL     OW74844   8.905   3.087   7.396 -0.8365 -0.2362  0.4894
18951SOL    HW174845   8.899   3.066   7.489  1.1888 -0.0769  0.6969
18951SOL    HW274846   8.877   3.178   7.390 -0.0534  0.0579  1.1125
18952SOL     OW74847  11.504   4.663  10.122 -0.1385 -0.1089  0.7083
18952SOL    HW174848  11.442   4.730  10.093 -1.8174 -0.6862  2.6456
18952SOL    HW274849  11.537   4.695  10.206  2.0163  0.0214 -0.1299
18953SOL     OW74850  12.302  13.115   3.714 -0.0329  0.0831  0.4431
18953SOL    HW174851  12.306  13.027   3.751 -2.5093 -0.1726  0.2889
18953SOL    HW274852  12.354  13.110   3.633  0.7914 -0.8943  1.0201
18954SOL     OW74853   3.162  11.106   2.280 -0.9065 -0.1048 -0.6856
18954SOL    HW174854   3.075  11.135   2.309 -1.1389 -0.8722 -0.5979
18954SOL    HW274855   3.222  11.173   2.314 -1.3050 -0.3657  0.5830
18955SOL     OW74856   3.838   9.572  12.594 -0.1224  0.7543  0.3150
18955SOL    HW174857   3.883   9.554  12.512  0.2726 -0.9344  0.8561
18955SOL    HW274858   3.909   9.587  12.657 -0.2562 -1.3436  1.0493
18956SOL     OW74859  12.301  11.779   4.778 -0.2259  0.0690  0.3048
18956SOL    HW174860  12.206  11.766   4.770  0.0074 -2.9013  1.0536
18956SOL    HW274861  12.310  11.840   4.851 -1.5667  1.0710 -0.3300
18957SOL     OW74862   5.183   2.725   0.214 -0.2425  0.3411 -0.0214
18957SOL    HW174863   5.215   2.748   0.127  1.0494 -3.8205 -0.8591
18957SOL    HW274864   5.092   2.699   0.199  0.4648 -2.0240 -0.5819
18958SOL     OW74865   5.099   7.240   1.901 -0.3359 -0.2059  0.2630
18958SOL    HW174866   5.042   7.302   1.947 -0.3700  1.4631 -1.8364
18958SOL    HW274867   5.074   7.249   1.809  2.3292 -0.4516 -0.5704
18959SOL     OW74868  13.992  13.197   4.542  0.1408  0.5838 -0.1523
18959SOL    HW174869  13.985  13.284   4.504  1.5091  0.0152 -1.8572
18959SOL    HW274870  13.984  13.137   4.468  2.0378 -0.6120  0.5127
18960SOL     OW74871   9.553  12.200  13.580 -0.3917  0.7799 -0.3152
18960SOL    HW174872   9.466  12.163  13.563  0.0616 -0.4959 -0.0058
18960SOL    HW274873   9.597  12.199  13.496 -0.1347 -0.0983 -0.1810
18961SOL     OW74874   4.481  13.252   0.044 -0.2727 -0.4554 -0.1019
18961SOL    HW174875   4.551  13.312   0.018 -0.3416 -0.5679 -0.5617
18961SOL    HW274876   4.525  13.185   0.096 -0.0549 -0.4687 -0.2990
18962SOL     OW74877   6.493   1.445   7.605 -0.3237  0.4429 -0.0408
18962SOL    HW174878   6.419   1.485   7.652 -0.1127  0.7884 -0.0061
18962SOL    HW274879   6.571   1.483   7.645 -0.1065 -0.2953  0.2633
18963SOL     OW74880   0.808   7.499   9.013  0.1755  0.2574 -0.1708
18963SOL    HW174881   0.796   7.440   8.939  2.2341  1.0025 -1.1669
18963SOL    HW274882   0.742   7.567   9.000  0.4320  0.3093 -1.2632
18964SOL     OW74883   0.976  10.480   0.452 -0.0953 -0.5784 -0.1858
18964SOL    HW174884   0.977  10.525   0.536 -0.9314 -0.3236 -0.3000
18964SOL    HW274885   0.894  10.429   0.453 -0.5402  0.0944 -1.1763
18965SOL     OW74886   1.293   8.846   4.380 -0.3995 -0.4081  0.2895
18965SOL    HW174887   1.382   8.838   4.413 -0.3756  1.2069  0.6966
18965SOL    HW274888   1.238   8.852   4.458 -0.5590  1.3126  0.0870
18966SOL     OW74889   1.716   4.083   7.682 -0.3082 -0.6745  0.2303
18966SOL    HW174890   1.706   4.033   7.763  0.3129  1.4610  1.7101
18966SOL    HW274891   1.810   4.079   7.663 -0.4657 -1.2583 -0.4878
18967SOL     OW74892   4.852   7.430  11.142 -0.7975 -0.2621 -0.1269
18967SOL    HW174893   4.885   7.361  11.085  0.5261  0.7211 -0.6253
18967SOL    HW274894   4.779   7.469  11.094  0.5375  0.8007 -1.3938
18968SOL     OW74895   1.524   9.989   4.560  0.7723 -0.3586 -0.0321
18968SOL    HW174896   1.565   9.984   4.473  0.6707  1.4298 -0.2388
18968SOL    HW274897   1.556  10.072   4.596 -0.4097 -0.3198  0.9893
18969SOL     OW74898   1.519   1.150   5.825 -0.1376  0.0401 -0.0592
18969SOL    HW174899   1.431   1.159   5.862 -0.4777 -0.3054 -0.7546
18969SOL    HW274900   1.509   1.085   5.755  0.6277  0.1591 -0.2915
18970SOL     OW74901   0.107  11.472   7.041  0.3325  0.0942  0.5025
18970SOL    HW174902   0.025  11.517   7.021 -0.2675 -1.2891 -0.2679
18970SOL    HW274903   0.091  11.381   7.019  1.1430 -0.7615  3.0617
18971SOL     OW74904   8.944   3.928   3.181  0.0290  0.3475  0.4713
18971SOL    HW174905   8.975   4.016   3.203  0.4258  0.5040 -0.6838
18971SOL    HW274906   9.017   3.871   3.203 -0.1717  0.3125  1.0751
18972SOL     OW74907   2.930   7.989  13.415  0.0994 -0.2822  0.4149
18972SOL    HW174908   2.857   7.929  13.422  0.4120 -0.7827 -0.4998
18972SOL    HW274909   2.922   8.046  13.492 -0.4566 -1.1953  1.0425
18973SOL     OW74910  13.416   8.279   4.321 -0.3243  0.1884  0.2020
18973SOL    HW174911  13.345   8.300   4.381  0.3080  1.2243  0.6075
18973SOL    HW274912  13.457   8.363   4.300  2.1598 -0.5230  1.6963
18974SOL     OW74913  14.075  13.218   9.248 -0.6570 -0.1529 -0.0393
18974SOL    HW174914  14.140  13.239   9.182 -1.7736  1.9624 -0.5461
18974SOL    HW274915  13.992  13.250   9.212 -1.3612  0.7386  2.1893
18975SOL     OW74916   1.608   8.069   0.103  0.0721 -0.3656 -0.0107
18975SOL    HW174917   1.583   8.073   0.195  0.7481  0.1239  0.1556
18975SOL    HW274918   1.555   8.137   0.061 -1.1519 -1.3896 -0.2290
18976SOL     OW74919   9.101  13.290  13.087 -0.2271 -0.3621 -0.2274
18976SOL    HW174920   9.047  13.263  13.013  1.0358  0.9066 -1.6808
18976SOL    HW274921   9.113  13.210  13.139 -1.4349 -1.1959 -1.1863
18977SOL     OW74922  13.405  11.614   8.051 -0.5297  0.1270  0.5047
18977SOL    HW174923  13.316  11.581   8.037 -0.1687 -0.9711  0.6597
18977SOL    HW274924  13.396  11.709   8.047 -1.2171  0.0386 -2.5534
18978SOL     OW74925   1.426   3.459   6.834 -0.3679  0.2630 -0.1140
18978SOL    HW174926   1.467   3.540   6.865  4.3534 -2.1695  0.8773
18978SOL    HW274927   1.387   3.420   6.912  0.1486  0.1078  0.0657
18979SOL     OW74928   7.452  10.312   7.114  0.1081 -0.3943  0.0048
18979SOL    HW174929   7.434  10.293   7.022 -1.0942  1.8230 -0.3076
18979SOL    HW274930   7.547  10.306   7.121  0.1557 -1.4751 -1.1502
18980SOL     OW74931   2.884   1.426   5.696  0.2139  0.2639 -0.4716
18980SOL    HW174932   2.978   1.426   5.678  0.1839 -0.9627 -0.7124
18980SOL    HW274933   2.846   1.473   5.623  0.6436  0.8792 -0.3105
18981SOL     OW74934   3.529  10.558  10.090 -0.3676 -0.8575 -0.1879
18981SOL    HW174935   3.456  10.575  10.151  1.7002 -1.3742  2.6220
18981SOL    HW274936   3.521  10.466  10.069 -2.2958 -0.2521 -2.5298
18982SOL     OW74937   7.549  10.369   3.886 -0.5001 -0.6327 -0.3513
18982SOL    HW174938   7.485  10.386   3.817  0.0657 -0.5917 -0.8720
18982SOL    HW274939   7.501  10.317   3.950 -1.1021 -0.4640 -0.6542
18983SOL     OW74940   7.801  13.486   4.304  0.0429 -0.0908 -0.3424
18983SOL    HW174941   7.765  13.473   4.216 -0.2457 -0.3539 -0.1868
18983SOL    HW274942   7.724  13.504   4.359  0.1198 -0.8282  0.0245
18984SOL     OW74943   0.243  10.747   1.055 -0.0435  0.2929 -0.5558
18984SOL    HW174944   0.159  10.793   1.053 -0.3581 -0.2441 -0.0965
18984SOL    HW274945   0.221  10.658   1.080  0.8130  0.4776  0.9838
18985SOL     OW74946   3.575   2.844   7.376  0.2382 -0.0995  0.3093
18985SOL    HW174947   3.551   2.923   7.424  1.1575  0.4008 -0.0422
18985SOL    HW274948   3.574   2.869   7.284  1.2015 -0.2966  0.2326
18986SOL     OW74949   8.462  10.386   3.248 -0.6571 -0.2113  0.2259
18986SOL    HW174950   8.530  10.431   3.298 -0.3417  1.1219 -1.3246
18986SOL    HW274951   8.509  10.314   3.205 -0.5927 -0.3626  0.5469
18987SOL     OW74952  12.828   8.048  13.938  0.5688 -0.3570 -0.1941
18987SOL    HW174953  12.775   8.011  13.868 -1.5886  1.6271  0.2668
18987SOL    HW274954  12.773   8.039  14.016  1.0483  1.3836  0.3879
18988SOL     OW74955   7.779   0.031   3.199 -0.0659  0.3435  0.4545
18988SOL    HW174956   7.740   0.024   3.286 -1.2359  0.5803 -0.0302
18988SOL    HW274957   7.865   0.070   3.215 -0.3166  0.5104  1.4910
18989SOL     OW74958   2.198   9.413  11.494  0.7055 -0.0246  0.0289
18989SOL    HW174959   2.219   9.505  11.511  2.2375 -0.0458 -1.5314
18989SOL    HW274960   2.283   9.371  11.481  0.0743 -1.8118  1.2807
18990SOL     OW74961   1.695  13.120   1.513 -0.6739 -0.1015 -0.0754
18990SOL    HW174962   1.648  13.064   1.451  0.7975 -0.4267 -0.9467
18990SOL    HW274963   1.772  13.069   1.537  0.4390  1.3447 -0.4876
18991SOL     OW74964   3.233  11.559   9.007 -0.0354 -0.0332 -0.2745
18991SOL    HW174965   3.275  11.639   8.975  1.0109 -0.5264 -0.1888
18991SOL    HW274966   3.140  11.572   8.991  0.0251  1.5262  0.4436
18992SOL     OW74967  13.561   7.614   7.851 -0.0482  0.1498  0.1525
18992SOL    HW174968  13.610   7.689   7.884  2.5129 -1.4565  0.2779
18992SOL    HW274969  13.472   7.627   7.883  0.7609  2.1446  1.7873
18993SOL     OW74970   6.584   2.592   7.059  0.3093 -0.4337 -0.5285
18993SOL    HW174971   6.539   2.655   7.116  1.2767  1.4854 -1.7750
18993SOL    HW274972   6.602   2.641   6.979  1.4784 -2.2075 -1.4146
18994SOL     OW74973   4.718  12.284   1.238  0.0947  0.0710 -0.5402
18994SOL    HW174974   4.774  12.284   1.316 -0.6859  0.9950  0.0482
18994SOL    HW274975   4.779  12.290   1.165  0.7700  1.3400  0.0976
18995SOL     OW74976   5.941  12.470  12.287  0.7263 -0.2833  0.4105
18995SOL    HW174977   5.874  12.531  12.257  1.2458  1.3376  2.3156
18995SOL    HW274978   5.909  12.439  12.372  2.0597  0.0303  1.0622
18996SOL     OW74979   0.237   1.896   3.248 -0.0975  0.0471  0.5572
18996SOL    HW174980   0.228   1.808   3.213 -0.7739  0.4458 -0.3108
18996SOL    HW274981   0.147   1.926   3.261  0.1208  0.0769  2.2637
18997SOL     OW74982   2.016  13.482   0.587 -0.3796 -1.2132  0.1990
18997SOL    HW174983   2.089  13.536   0.618 -1.6406 -0.8074  2.7079
18997SOL    HW274984   2.046  13.447   0.504  1.0344  2.3167 -0.9801
18998SOL     OW74985   2.053   6.116  13.764  0.2815 -0.1109 -0.1278
18998SOL    HW174986   1.959   6.100  13.762  0.2946 -0.1499 -0.9368
18998SOL    HW274987   2.086   6.059  13.834 -0.6562  2.1269  2.2864
18999SOL     OW74988   8.808   7.863  12.404 -0.2197 -0.1811 -0.6274
18999SOL    HW174989   8.870   7.790  12.406  0.7666  0.6165  1.5175
18999SOL    HW274990   8.860   7.938  12.372 -0.5746  0.0850 -0.5881
19000SOL     OW74991   0.840   8.332  11.261  0.1573 -0.4086  0.9020
19000SOL    HW174992   0.771   8.332  11.195  0.7503 -0.6083  0.2726
19000SOL    HW274993   0.902   8.398  11.232 -0.4744  0.8231  2.2449
19001SOL     OW74994   3.924   4.519  10.730  0.0283  0.0223 -0.3929
19001SOL    HW174995   3.971   4.456  10.785 -0.9176  0.6907  1.2308
19001SOL    HW274996   3.908   4.594  10.787 -0.9661  0.7609 -1.5954
19002SOL     OW74997   8.828  12.078   9.741 -0.1624  0.3303  0.1292
19002SOL    HW174998   8.858  12.107   9.828 -0.7011  1.1775  0.0449
19002SOL    HW274999   8.892  12.011   9.715  0.1700  0.2703  1.0532
19003SOL     OW75000   9.899   8.968  12.598  0.3308  0.1306  0.2484
19003SOL    HW175001   9.992   8.961  12.575  0.2176  0.1155 -0.1952
19003SOL    HW275002   9.865   8.879  12.591  0.8813 -0.3969  3.0165
19004SOL     OW75003   2.310  13.858   1.534  0.2351 -0.0848 -0.1379
19004SOL    HW175004   2.401  13.832   1.516 -0.0990 -1.2513 -0.2249
19004SOL    HW275005   2.269  13.779   1.568 -0.7429  0.4540 -0.0339
19005SOL     OW75006  13.556  12.959   6.989  0.4143  0.4884 -0.2559
19005SOL    HW175007  13.632  12.938   6.934  0.8612  0.4184  0.3843
19005SOL    HW275008  13.593  12.992   7.070 -0.2049 -0.7157  0.5487
19006SOL     OW75009   6.320   2.440  13.652  0.6539  0.5013 -0.1571
19006SOL    HW175010   6.267   2.410  13.725  1.4995  0.5308  0.4925
19006SOL    HW275011   6.278   2.404  13.574 -0.3393  0.5923  0.3327
19007SOL     OW75012   2.586   5.212   5.143 -0.1077  0.2246  0.7244
19007SOL    HW175013   2.546   5.154   5.207 -0.2296  0.6538  1.0405
19007SOL    HW275014   2.528   5.207   5.067  0.8014 -1.4038  0.0887
19008SOL     OW75015  13.262  13.947   3.095 -0.2373 -0.3220 -0.3736
19008SOL    HW175016  13.313  13.866   3.088  1.8592  1.0502 -2.0088
19008SOL    HW275017  13.236  13.951   3.187  0.7668 -2.1552  0.0370
19009SOL     OW75018   4.266   1.893   6.439  0.7690  0.3667 -0.1013
19009SOL    HW175019   4.202   1.942   6.388 -0.4911 -0.0051  1.0466
19009SOL    HW275020   4.344   1.888   6.383  0.0523  1.4681 -1.2387
19010SOL     OW75021   4.923   2.757   5.422  0.0571 -0.4309 -0.3552
19010SOL    HW175022   4.960   2.670   5.406  1.7938  0.4328 -1.2828
19010SOL    HW275023   4.883   2.782   5.339  0.1215 -0.0661 -0.2776
19011SOL     OW75024   6.906   2.607  10.436 -1.1345 -0.1375 -0.7620
19011SOL    HW175025   6.852   2.682  10.410 -0.2563  1.0086  0.5652
19011SOL    HW275026   6.957   2.640  10.510  1.0969 -1.2903 -1.7239
19012SOL     OW75027  10.084  13.606  10.569 -0.3454 -0.2771 -0.0588
19012SOL    HW175028  10.057  13.669  10.502 -1.2118 -1.1682 -0.5774
19012SOL    HW275029  10.139  13.543  10.522  1.4266  0.6369  0.6690
19013SOL     OW75030   7.775  10.269   6.129  0.2189  0.3077  0.4395
19013SOL    HW175031   7.683  10.244   6.137 -0.0427 -0.3507 -2.9738
19013SOL    HW275032   7.774  10.364   6.126 -0.6400  0.2973 -1.1429
19014SOL     OW75033  11.931   7.161  10.174 -0.3743 -0.6234  0.2275
19014SOL    HW175034  11.906   7.228  10.238 -1.4484 -1.5826  0.8543
19014SOL    HW275035  11.860   7.162  10.109 -1.4537 -2.4622  1.3030
19015SOL     OW75036   7.070   8.187   2.697  0.6138 -0.6695  0.7263
19015SOL    HW175037   7.120   8.127   2.752  1.4597 -0.4418  0.2267
19015SOL    HW275038   7.071   8.270   2.745  1.6672 -0.3710  0.2228
19016SOL     OW75039  13.408  10.197  13.142  0.2022 -0.5089  0.3883
19016SOL    HW175040  13.415  10.273  13.084 -1.7546 -2.5100 -2.7661
19016SOL    HW275041  13.428  10.232  13.229  2.7368  2.8641 -1.2872
19017SOL     OW75042   5.629  13.472   3.830  0.1842 -0.2897  0.5176
19017SOL    HW175043   5.628  13.478   3.735  2.8490 -1.2042  0.3421
19017SOL    HW275044   5.690  13.541   3.857 -0.0975 -0.4127  1.5061
19018SOL     OW75045  11.163   5.092   0.632  0.1024 -0.2846  0.1394
19018SOL    HW175046  11.142   5.164   0.691 -0.5083 -0.0381 -0.3618
19018SOL    HW275047  11.217   5.033   0.684  0.1159  0.2430  0.7373
19019SOL     OW75048   8.645  12.759   3.936  0.1437 -0.3258 -0.4562
19019SOL    HW175049   8.553  12.732   3.934 -0.4483  1.2279  1.6296
19019SOL    HW275050   8.643  12.852   3.913  1.0745 -0.0973  0.3083
19020SOL     OW75051   0.775   1.308   0.745 -0.3886  0.1951  0.1229
19020SOL    HW175052   0.766   1.371   0.674  0.1277  0.9342  0.6952
19020SOL    HW275053   0.726   1.346   0.817 -1.2503 -0.7464  0.0543
19021SOL     OW75054   8.590   8.785   1.977  0.0741  0.2032  0.4684
19021SOL    HW175055   8.664   8.811   1.921  0.7001  1.3850  1.7897
19021SOL    HW275056   8.596   8.842   2.053 -3.0373  1.3240  0.0099
19022SOL     OW75057  11.795   8.895   2.053  0.0389 -0.2191  0.1008
19022SOL    HW175058  11.720   8.914   1.997 -0.4518  2.9257  1.5770
19022SOL    HW275059  11.769   8.817   2.102 -0.1555 -2.0964 -2.7214
19023SOL     OW75060   8.202   8.473   2.378  0.4658 -0.5149  0.2162
19023SOL    HW175061   8.188   8.400   2.317  1.5705 -0.5384 -0.0293
19023SOL    HW275062   8.282   8.515   2.347  0.2109  0.3958  0.7620
19024SOL     OW75063   2.599  13.267   9.124  0.1018  0.0560  0.1776
19024SOL    HW175064   2.542  13.294   9.052 -1.2787  0.4512  1.3800
19024SOL    HW275065   2.547  13.204   9.173  1.4663 -1.1075  0.2002
19025SOL     OW75066   9.615  14.053  12.415  0.4796 -0.0122  0.4950
19025SOL    HW175067   9.701  14.057  12.374  1.0092 -0.3660  1.5359
19025SOL    HW275068   9.621  13.981  12.478 -1.5732 -2.2451 -1.6143
19026SOL     OW75069   6.464  10.287  13.133 -0.0116  0.3855 -0.1667
19026SOL    HW175070   6.524  10.354  13.167  1.8257 -1.4201  0.3910
19026SOL    HW275071   6.515  10.206  13.136 -2.8173 -1.4838  1.2464
19027SOL     OW75072   7.618  14.019  11.848 -0.0517 -0.3612  0.0930
19027SOL    HW175073   7.650  14.072  11.921  1.0429  0.2148 -0.7657
19027SOL    HW275074   7.525  14.005  11.867 -0.6536  2.6383 -0.0476
19028SOL     OW75075  11.096  10.812  11.289  0.0760  0.0490  0.4845
19028SOL    HW175076  11.044  10.873  11.342 -0.0990 -0.3396  0.7704
19028SOL    HW275077  11.113  10.859  11.208  0.9741  0.9398  1.1648
19029SOL     OW75078   1.173   8.964   4.632 -0.1221 -0.4917 -0.8551
19029SOL    HW175079   1.130   9.012   4.704 -1.8730 -0.6385 -1.7358
19029SOL    HW275080   1.153   8.872   4.650 -0.5946 -0.5274 -1.5145
19030SOL     OW75081   6.557   6.512   4.248  0.3544 -0.1968 -0.3962
19030SOL    HW175082   6.616   6.487   4.319  1.6576 -0.6207 -1.5911
19030SOL    HW275083   6.480   6.457   4.261  0.9602 -0.9345  0.1542
19031SOL     OW75084  10.016  11.598  13.534  0.2572  0.5038  0.2393
19031SOL    HW175085   9.993  11.648  13.613  1.6534  1.7085 -0.0763
19031SOL    HW275086  10.101  11.633  13.508  0.3921 -0.7528 -1.1004
19032SOL     OW75087   5.607  12.894  10.382 -0.1071 -0.1521  0.1196
19032SOL    HW175088   5.514  12.888  10.362 -0.4152 -1.8415  1.8272
19032SOL    HW275089   5.614  12.965  10.446 -0.2425 -0.1955  0.1803
19033SOL     OW75090   9.429  11.203   9.535 -0.1167 -0.3602  0.1651
19033SOL    HW175091   9.368  11.160   9.474  0.3914 -0.1536 -0.5005
19033SOL    HW275092   9.516  11.184   9.500  0.2238 -0.8723  1.2570
19034SOL     OW75093  11.877   8.878  12.791 -0.2152 -0.1230 -0.1999
19034SOL    HW175094  11.902   8.786  12.779 -0.1708 -0.0730 -0.4889
19034SOL    HW275095  11.926   8.925  12.724 -0.3010  0.1019 -0.1041
19035SOL     OW75096   3.623   9.075   5.944 -0.4449 -0.2804  0.3553
19035SOL    HW175097   3.708   9.047   5.978 -1.3167 -1.0239  2.0377
19035SOL    HW275098   3.569   9.089   6.022 -1.8891  0.1156 -0.6677
19036SOL     OW75099  12.859   3.663   9.992  0.4675 -0.0461 -0.2394
19036SOL    HW175100  12.832   3.579   9.954 -0.3628  0.8313 -1.6537
19036SOL    HW275101  12.891   3.714   9.918  1.1827  0.8292  0.6429
19037SOL     OW75102   4.163   4.311  10.493  0.0537 -0.0742  0.6931
19037SOL    HW175103   4.223   4.350  10.556  0.1169  2.0798 -0.6095
19037SOL    HW275104   4.090   4.373  10.488 -0.2681 -0.5356 -0.8179
19038SOL     OW75105   9.015  12.186   6.274 -0.1029  0.0806  0.5472
19038SOL    HW175106   9.052  12.265   6.234 -1.0363 -0.0126 -0.5494
19038SOL    HW275107   9.089  12.126   6.284  0.2171  0.2360 -0.7465
19039SOL     OW75108   2.920   5.877   7.909  0.0333  0.2152 -0.3928
19039SOL    HW175109   2.832   5.881   7.947  0.3309 -2.3706  0.7346
19039SOL    HW275110   2.951   5.968   7.911 -2.0060  0.9523  0.5918
19040SOL     OW75111  13.238   4.221   2.846  0.1995  0.4605 -0.1961
19040SOL    HW175112  13.167   4.187   2.792 -0.2433  0.6210  0.2717
19040SOL    HW275113  13.257   4.151   2.908  0.5854  0.3446 -0.4418
19041SOL     OW75114  11.970   4.138   7.056  0.5393 -0.2059  0.3860
19041SOL    HW175115  11.915   4.120   6.979 -1.8512  2.4421  1.2961
19041SOL    HW275116  11.925   4.094   7.128 -0.6431  2.1426  1.1744
19042SOL     OW75117  12.647   8.436   9.989  0.4976  0.0274  0.0559
19042SOL    HW175118  12.699   8.511   9.961 -0.5943  1.0534  0.7003
19042SOL    HW275119  12.589   8.471  10.057 -2.0613 -0.7062 -1.6096
19043SOL     OW75120   9.078   4.429   6.765  0.0825  0.6141  0.0465
19043SOL    HW175121   9.113   4.478   6.690 -1.9232  0.9654 -0.7204
19043SOL    HW275122   9.126   4.463   6.841  1.2970  1.1195 -0.9161
19044SOL     OW75123   1.328   1.125   2.403 -0.9195  0.4801  0.5541
19044SOL    HW175124   1.312   1.030   2.405 -2.7827  0.7578  0.8932
19044SOL    HW275125   1.397   1.136   2.337  1.8991 -1.3928  2.9129
19045SOL     OW75126   4.747   5.649   0.388 -0.7122  0.2869  0.0381
19045SOL    HW175127   4.681   5.580   0.388 -0.1497 -0.2524  0.2057
19045SOL    HW275128   4.698   5.728   0.364 -1.1008 -0.4066 -1.6237
19046SOL     OW75129  10.642   2.397   3.121  0.0196  0.1375 -0.0547
19046SOL    HW175130  10.566   2.345   3.146  0.2113 -0.1216 -0.0051
19046SOL    HW275131  10.683   2.422   3.204  0.0930  0.1237 -0.0864
19047SOL     OW75132   8.652   3.945   4.421  0.1388  0.4064  0.0134
19047SOL    HW175133   8.649   4.020   4.362  0.1631  0.2663 -0.1676
19047SOL    HW275134   8.563   3.938   4.456  0.8821  2.6042  2.6815
19048SOL     OW75135  10.229  10.261  10.807 -0.1237  0.2188 -0.3049
19048SOL    HW175136  10.301  10.306  10.851  0.4236 -0.2547 -0.7132
19048SOL    HW275137  10.198  10.197  10.871  0.6198 -0.4170 -0.5729
19049SOL     OW75138  11.053   9.369   7.472  0.6993 -0.2341 -0.4637
19049SOL    HW175139  11.058   9.464   7.485 -0.4527 -0.2419  0.2183
19049SOL    HW275140  10.960   9.352   7.459  0.8628 -1.3098 -0.3077
19050SOL     OW75141   6.541   9.446  13.683 -0.4728  0.3646 -0.9433
19050SOL    HW175142   6.487   9.378  13.641  0.4019 -0.0689 -1.3965
19050SOL    HW275143   6.521   9.438  13.776  0.4897 -1.3544 -0.8376
19051SOL     OW75144  11.559  10.277  11.535 -0.1155 -0.1381  0.4549
19051SOL    HW175145  11.594  10.363  11.556 -0.0224  0.1895 -0.9710
19051SOL    HW275146  11.610  10.216  11.589  1.7493  0.4491 -0.5781
19052SOL     OW75147  11.392   7.150   3.281 -0.0524 -0.2452  0.4938
19052SOL    HW175148  11.409   7.209   3.354 -1.4561  1.8749 -0.7776
19052SOL    HW275149  11.328   7.087   3.315  0.4721 -0.2392  1.5063
19053SOL     OW75150   6.807   2.249  13.743 -0.4390  0.3682  0.2407
19053SOL    HW175151   6.766   2.168  13.712 -2.0709  0.8419  1.0318
19053SOL    HW275152   6.791   2.312  13.672 -0.2824  0.3293  0.1699
19054SOL     OW75153   8.028  13.929   9.606 -0.4854  0.1511 -0.1830
19054SOL    HW175154   8.042  14.004   9.664 -2.1826  0.7145 -0.4292
19054SOL    HW275155   8.115  13.891   9.594  0.3382  1.7424  0.4124
19055SOL     OW75156   0.188   6.332   5.289  0.2081 -0.1103  0.2842
19055SOL    HW175157   0.237   6.401   5.243 -0.4725  0.1429 -0.0852
19055SOL    HW275158   0.202   6.254   5.236 -0.6425  0.1994 -0.4267
19056SOL     OW75159   8.017   0.195   1.897 -0.2881 -0.0654 -0.2280
19056SOL    HW175160   8.098   0.245   1.891  0.6182 -1.2864  1.1457
19056SOL    HW275161   8.038   0.122   1.956 -3.0506  0.9883  2.3189
19057SOL     OW75162  12.766  10.508   8.896 -0.1592  0.0172 -0.4260
19057SOL    HW175163  12.716  10.523   8.976  1.7776 -0.0985  0.8820
19057SOL    HW275164  12.747  10.417   8.873  0.5429 -0.5154  0.9213
19058SOL     OW75165  10.564  13.444   0.377  0.2921  0.3844 -0.1681
19058SOL    HW175166  10.636  13.385   0.355 -0.7641 -1.7576  1.6340
19058SOL    HW275167  10.490  13.410   0.326 -0.6715 -0.8645  1.9317
19059SOL     OW75168   9.124   1.395   5.494 -0.5531  0.4071 -0.0527
19059SOL    HW175169   9.041   1.349   5.482  0.4886 -1.0762 -2.2358
19059SOL    HW275170   9.186   1.327   5.519  0.2175  1.3477  0.6930
19060SOL     OW75171   2.357   8.053  14.062  0.2849 -0.0570  0.4861
19060SOL    HW175172   2.330   8.138  14.030 -0.1041 -0.3604 -0.0006
19060SOL    HW275173   2.377   8.002  13.983 -0.4496 -0.7312  0.7282
19061SOL     OW75174   3.042  13.292   1.852  0.0163 -0.4933  0.1900
19061SOL    HW175175   2.999  13.326   1.930 -1.0274 -1.6450  0.1579
19061SOL    HW275176   2.971  13.276   1.791  0.8237  0.4487 -1.0496
19062SOL     OW75177  12.018  11.766  11.946 -0.1273  0.6366  0.6603
19062SOL    HW175178  12.113  11.757  11.954 -0.0306  0.0970 -0.7871
19062SOL    HW275179  12.001  11.858  11.970  0.5691  0.4042  2.1810
19063SOL     OW75180   7.417   0.516  11.399 -0.3648  0.4134  0.4954
19063SOL    HW175181   7.428   0.428  11.436 -0.6566  0.2430  0.1916
19063SOL    HW275182   7.326   0.518  11.370  0.1214  0.1553 -1.1563
19064SOL     OW75183   7.663   5.041  11.181  0.6537  0.3267  0.1079
19064SOL    HW175184   7.568   5.046  11.191  0.5307 -1.5560  0.2016
19064SOL    HW275185   7.677   5.036  11.086  0.5177 -1.0897  0.1427
19065SOL     OW75186   5.861   8.779   0.002  0.2516  0.3437 -0.3992
19065SOL    HW175187   5.885   8.695   0.041 -0.2645 -0.6680 -2.1441
19065SOL    HW275188   5.821   8.828   0.073  0.6778 -0.8402  0.6915
19066SOL     OW75189   5.560  12.862   5.053 -0.4487 -0.0766  0.0958
19066SOL    HW175190   5.502  12.924   5.009  1.5369  0.9234 -1.3058
19066SOL    HW275191   5.585  12.906   5.134 -1.2006 -0.2854  0.4507
19067SOL     OW75192   3.334  14.147   9.104 -0.0168 -0.1142  0.0435
19067SOL    HW175193   3.413  14.201   9.103  0.7616 -1.1127  1.7603
19067SOL    HW275194   3.269  14.201   9.149  0.2159  0.0743  0.1572
19068SOL     OW75195  11.461   4.800   1.818 -0.1291 -0.6025 -0.0273
19068SOL    HW175196  11.540   4.850   1.799  0.9528 -1.1709  2.5254
19068SOL    HW275197  11.399   4.865   1.851  0.8012 -0.6250  1.9587
19069SOL     OW75198   8.795   7.417   4.045 -0.6875  0.0447  0.5576
19069SOL    HW175199   8.728   7.481   4.072  0.4213  0.9089  1.3277
19069SOL    HW275200   8.872   7.439   4.097  0.0120 -1.3460  0.1443
19070SOL     OW75201   2.359  13.901   6.410 -0.4713  0.4624 -0.5589
19070SOL    HW175202   2.374  13.819   6.362 -2.7580  0.5727 -1.6104
19070SOL    HW275203   2.407  13.967   6.360  2.0963 -0.2682  0.7690
19071SOL     OW75204   5.516  13.566  13.216 -0.6088  0.0193 -0.1574
19071SOL    HW175205   5.575  13.631  13.256  0.6914 -0.4000 -1.3155
19071SOL    HW275206   5.453  13.547  13.285  1.4824 -0.6068  1.7238
19072SOL     OW75207   3.133   5.341  14.033 -0.0499  0.1740 -0.8778
19072SOL    HW175208   3.226   5.354  14.054 -0.2514 -0.1328  0.2982
19072SOL    HW275209   3.124   5.247  14.019 -0.4907 -0.0624  0.7788
19073SOL     OW75210  13.903  10.395  10.390  0.2673  0.0790 -0.1497
19073SOL    HW175211  13.896  10.302  10.369  0.6160  0.5993 -3.0469
19073SOL    HW275212  13.987  10.404  10.435 -0.6959 -1.2184  2.0465
19074SOL     OW75213  12.425  10.959   2.637  0.3514  0.6841  0.1902
19074SOL    HW175214  12.477  10.885   2.666 -0.5788 -0.3565 -0.6998
19074SOL    HW275215  12.489  11.026   2.614  1.2206  0.0510  0.7174
19075SOL     OW75216   0.326   1.052   9.123  0.3308 -0.6136 -0.0836
19075SOL    HW175217   0.407   1.072   9.076 -0.6305  1.0783 -1.0794
19075SOL    HW275218   0.261   1.113   9.089 -1.1825 -1.3451  1.3089
19076SOL     OW75219   1.740   2.083   0.356 -0.6570 -0.2377  0.6189
19076SOL    HW175220   1.688   2.027   0.299 -0.0791  0.3184 -0.4737
19076SOL    HW275221   1.829   2.050   0.347 -0.5862 -0.2930  1.3963
19077SOL     OW75222  13.775   3.731   3.857 -0.0629  0.1763 -0.5263
19077SOL    HW175223  13.830   3.800   3.893  1.6618 -1.5057  0.1822
19077SOL    HW275224  13.743   3.683   3.933  0.1886 -0.8605 -1.0585
19078SOL     OW75225   5.256   2.893  10.906 -0.6414 -1.0863 -0.3164
19078SOL    HW175226   5.313   2.862  10.836  0.3992  0.1302 -0.0520
19078SOL    HW275227   5.301   2.971  10.941 -2.7709  0.3580 -0.5731
19079SOL     OW75228  12.924   9.374   4.937 -0.2562  0.7606  0.2888
19079SOL    HW175229  12.841   9.349   4.897  0.3187 -0.3634 -0.2455
19079SOL    HW275230  12.991   9.329   4.885  0.5145 -0.8995  2.5441
19080SOL     OW75231   7.553   0.082   2.578  0.7058 -0.5712  0.3517
19080SOL    HW175232   7.567  -0.001   2.625 -0.3900 -0.9873 -0.0195
19080SOL    HW275233   7.460   0.081   2.556  0.4983  1.1068  0.9816
19081SOL     OW75234   9.880  11.747   9.609 -0.4606  0.1029  0.0368
19081SOL    HW175235   9.879  11.668   9.554  0.8559 -1.1974  1.7873
19081SOL    HW275236   9.798  11.743   9.657  0.1245 -0.8907  0.9965
19082SOL     OW75237  11.487   8.356  13.570  0.0567  0.5494 -0.4295
19082SOL    HW175238  11.500   8.306  13.490  1.2742 -0.1583  0.1838
19082SOL    HW275239  11.574   8.389  13.593 -0.5130  1.9440 -0.1545
19083SOL     OW75240   9.714   4.039   7.367  0.1429  0.5130 -0.3505
19083SOL    HW175241   9.635   4.094   7.372 -0.3367 -0.1643 -0.4343
19083SOL    HW275242   9.731   4.013   7.458 -0.1289  0.0978 -0.4186
19084SOL     OW75243   9.912   2.310  12.556 -0.0108  0.2163  0.6279
19084SOL    HW175244   9.906   2.301  12.651  1.7317  0.1506  0.7625
19084SOL    HW275245   9.939   2.223  12.526 -1.6013 -0.0719 -0.0703
19085SOL     OW75246   4.117   8.465  13.657  0.1441  0.1929  0.1715
19085SOL    HW175247   4.196   8.461  13.710  0.7137 -0.1339 -0.6797
19085SOL    HW275248   4.104   8.375  13.627  0.3266  0.5263 -0.9466
19086SOL     OW75249   1.133   4.146  10.533 -0.3534 -0.1837 -0.1957
19086SOL    HW175250   1.216   4.106  10.559 -0.4098 -1.9433 -2.4179
19086SOL    HW275251   1.068   4.110  10.593  0.3649  0.9401  1.3347
19087SOL     OW75252  10.410   9.067   9.024 -0.0775 -0.1230 -0.4513
19087SOL    HW175253  10.314   9.069   9.020 -0.0617  0.2101 -0.6427
19087SOL    HW275254  10.429   8.997   9.086 -0.4368 -0.7821 -1.0627
19088SOL     OW75255   6.594   3.749   3.540  0.2546  0.0184  0.1532
19088SOL    HW175256   6.586   3.837   3.503  1.5055  1.3917  2.8159
19088SOL    HW275257   6.513   3.705   3.515 -0.2750  1.7952 -1.5304
19089SOL     OW75258   7.440   7.634   8.209  0.2917 -0.2144  0.1993
19089SOL    HW175259   7.529   7.636   8.173  0.1404  0.2417 -0.1580
19089SOL    HW275260   7.428   7.544   8.238  0.3152 -0.6693 -1.1596
19090SOL     OW75261   2.292   3.300   3.303 -0.0580  0.2632 -0.1720
19090SOL    HW175262   2.222   3.239   3.322 -0.6382  0.2183 -2.1788
19090SOL    HW275263   2.264   3.344   3.222  2.6284 -0.4554 -1.6262
19091SOL     OW75264   6.904   2.726   1.539 -0.1192  0.6839  0.5060
19091SOL    HW175265   6.849   2.652   1.512  0.8839 -1.0205  2.7672
19091SOL    HW275266   6.963   2.741   1.465 -0.0708 -1.1126  0.1354
19092SOL     OW75267  11.949   9.488   6.171  0.3902 -0.4908 -0.0782
19092SOL    HW175268  11.893   9.445   6.107 -0.3942 -0.0542  0.2964
19092SOL    HW275269  11.914   9.577   6.178  1.0462 -0.2519  0.2629
19093SOL     OW75270   0.173   4.692  12.678 -0.6532 -0.2855  0.1093
19093SOL    HW175271   0.184   4.667  12.770  1.6723  0.2975  0.0460
19093SOL    HW275272   0.251   4.656  12.635 -0.7510  1.0897 -1.2641
19094SOL     OW75273   0.707   5.979   7.877 -0.0139 -0.1213  0.3271
19094SOL    HW175274   0.676   5.889   7.884  1.4132 -0.6903 -0.2098
19094SOL    HW275275   0.800   5.975   7.900  0.4445  0.9412 -1.1159
19095SOL     OW75276  11.287  10.783  12.067  0.5627 -0.1671 -0.3369
19095SOL    HW175277  11.379  10.765  12.047 -0.4749 -3.5340 -2.8268
19095SOL    HW275278  11.238  10.744  11.995 -2.9523  0.0331  1.7228
19096SOL     OW75279  12.778   0.925   5.717  0.4864  0.5910  0.4445
19096SOL    HW175280  12.686   0.926   5.690  0.3995 -1.7178  0.4441
19096SOL    HW275281  12.819   0.860   5.659  1.1520 -1.5484  3.1064
19097SOL     OW75282   4.035   1.424  11.017 -0.1437  0.6611  0.0011
19097SOL    HW175283   3.963   1.398  10.960 -0.0184 -0.4033  0.3093
19097SOL    HW275284   4.004   1.404  11.106  0.4413  0.3995  0.1491
19098SOL     OW75285   6.904   5.911   3.639 -0.4283  0.0860 -0.3245
19098SOL    HW175286   6.862   5.853   3.575  0.2417  0.4446 -1.1094
19098SOL    HW275287   6.996   5.885   3.638 -0.4607 -0.0876  0.7101
19099SOL     OW75288   6.493  10.739   0.984 -0.1523  0.2826 -0.5712
19099SOL    HW175289   6.550  10.686   1.039 -0.6982  1.1353  0.8542
19099SOL    HW275290   6.550  10.808   0.950 -0.2725  1.1045  0.8104
19100SOL     OW75291  10.857   0.851   6.101  0.0653 -0.6626  0.3307
19100SOL    HW175292  10.773   0.819   6.132  0.1775 -1.7173 -0.4184
19100SOL    HW275293  10.885   0.787   6.035  0.7249  0.4886 -0.5500
19101SOL     OW75294  10.337   3.459   3.369  0.2296  0.9035  0.5561
19101SOL    HW175295  10.357   3.550   3.346 -0.4531  0.8144 -0.4529
19101SOL    HW275296  10.391   3.408   3.309  1.8764  0.5930  2.2131
19102SOL     OW75297   0.685  12.423  11.912  0.9418 -0.3233  0.2431
19102SOL    HW175298   0.719  12.400  11.826  2.7914  1.2650  0.4638
19102SOL    HW275299   0.751  12.483  11.948 -0.6177  0.4031  2.0599
19103SOL     OW75300   8.382   5.933  13.393 -0.4558  0.6374 -0.5213
19103SOL    HW175301   8.414   5.925  13.303  3.4842 -1.1055  0.7972
19103SOL    HW275302   8.335   5.851  13.409  0.8184 -0.0770 -0.3605
19104SOL     OW75303  13.509   1.208  13.391  0.2804 -0.7078  0.2996
19104SOL    HW175304  13.456   1.135  13.359 -0.2057 -0.0596 -0.4357
19104SOL    HW275305  13.495   1.277  13.326  1.1620 -0.1476  0.6883
19105SOL     OW75306  12.631   4.700  11.875 -0.7226 -0.5934  0.1924
19105SOL    HW175307  12.627   4.640  11.801  1.4661 -0.5099 -0.0462
19105SOL    HW275308  12.685   4.655  11.940 -2.6993 -0.7419  1.8752
19106SOL     OW75309  10.998   4.510   5.710  0.2563 -0.5151  0.1611
19106SOL    HW175310  11.079   4.543   5.673  0.5386 -1.9169 -0.5358
19106SOL    HW275311  11.023   4.431   5.758 -0.5740 -0.4864  0.6780
19107SOL     OW75312   9.394   0.800   0.828 -0.3003  0.3481 -0.5797
19107SOL    HW175313   9.318   0.760   0.870  0.4274 -1.0026 -0.5184
19107SOL    HW275314   9.389   0.771   0.737  1.6037 -2.0759 -0.0027
19108SOL     OW75315   9.324  13.770   7.606 -0.1818 -0.1566 -0.0253
19108SOL    HW175316   9.345  13.817   7.525  0.3097  0.7525  0.6111
19108SOL    HW275317   9.229  13.781   7.616 -0.2226 -0.1418 -0.3832
19109SOL     OW75318  13.221  12.679   9.240  0.1054  0.6931  0.2315
19109SOL    HW175319  13.286  12.707   9.305  0.8542  1.5865 -0.8683
19109SOL    HW275320  13.263  12.694   9.155 -0.5356 -1.2206 -0.4846
19110SOL     OW75321   8.065  11.487  12.739 -0.3402  0.3589 -0.4749
19110SOL    HW175322   8.057  11.578  12.712  0.5041 -0.0370 -2.2014
19110SOL    HW275323   8.016  11.437  12.673  2.2982 -0.6964 -1.7748
19111SOL     OW75324   6.684   6.299  10.402 -0.6198 -0.1032 -0.2720
19111SOL    HW175325   6.638   6.245  10.338  0.0665  1.2711 -2.0300
19111SOL    HW275326   6.717   6.373  10.351 -0.1232  1.1260  1.7235
19112SOL     OW75327  14.004   2.963   1.702 -0.0049  0.4006  0.4177
19112SOL    HW175328  14.058   2.885   1.691 -0.4848 -0.1623  1.8752
19112SOL    HW275329  13.915   2.932   1.687  0.0334  1.4930 -2.8368
19113SOL     OW75330   9.052   3.475   6.605 -0.1155 -0.2127 -0.1090
19113SOL    HW175331   9.005   3.530   6.667 -1.4110 -1.4585  0.0714
19113SOL    HW275332   9.116   3.428   6.658  1.8065  1.8501 -0.4284
19114SOL     OW75333  11.552   0.685   2.836  0.1753 -0.2702  0.0531
19114SOL    HW175334  11.573   0.702   2.744 -1.0380  1.0905 -0.0057
19114SOL    HW275335  11.491   0.754   2.859  0.5677 -0.5158  1.9374
19115SOL     OW75336   8.255   1.289   8.748  0.0075  0.1775 -0.2776
19115SOL    HW175337   8.289   1.378   8.733  0.6312  0.1001  0.5768
19115SOL    HW275338   8.164   1.294   8.721 -0.9906  2.0735  2.8287
19116SOL     OW75339   1.839  11.738  11.321  0.5414 -0.1116 -0.1855
19116SOL    HW175340   1.832  11.704  11.410 -0.7813  1.4897  0.3762
19116SOL    HW275341   1.867  11.829  11.332  0.9064 -0.0537 -1.4379
19117SOL     OW75342  12.413   7.684   2.312  0.5429  0.0727  0.2362
19117SOL    HW175343  12.341   7.626   2.337  0.2301  0.4490  0.2267
19117SOL    HW275344  12.480   7.670   2.379 -0.1111  0.7530  1.0618
19118SOL     OW75345   6.692   0.968   4.753 -0.7207  0.0266  0.3710
19118SOL    HW175346   6.688   0.979   4.848 -1.2255 -2.4512  0.7213
19118SOL    HW275347   6.601   0.960   4.726 -0.6957  2.4290 -0.6400
19119SOL     OW75348  14.066   6.907   3.193  0.3162  0.2159  0.6255
19119SOL    HW175349  14.072   6.950   3.278  1.2198 -0.1450  0.7503
19119SOL    HW275350  13.992   6.949   3.150 -1.3875 -0.8878  2.3276
19120SOL     OW75351   9.204   8.856  12.925  0.2388 -0.3514  0.3640
19120SOL    HW175352   9.159   8.844  13.008 -0.1018  1.6070  0.5165
19120SOL    HW275353   9.285   8.902  12.947  0.7345 -0.8838 -0.2762
19121SOL     OW75354   4.122   3.051   7.549  0.1242  0.7182  0.5164
19121SOL    HW175355   4.136   3.043   7.644 -2.0031  0.4880  0.8448
19121SOL    HW275356   4.060   3.123   7.540 -1.6878 -0.8858 -0.4731
19122SOL     OW75357   7.891  11.008  12.865  0.1641  0.0449 -0.1342
19122SOL    HW175358   7.838  11.064  12.922 -0.0819 -0.5146  0.1911
19122SOL    HW275359   7.950  10.962  12.925  0.0642 -0.3707 -0.3526
19123SOL     OW75360   0.795   9.233   0.982  0.0976  0.6192 -0.0948
19123SOL    HW175361   0.874   9.179   0.989 -1.2258 -1.3986 -0.1433
19123SOL    HW275362   0.773   9.231   0.889 -0.6388  0.2171  0.0813
19124SOL     OW75363   2.082  13.277   6.922 -0.0237  0.7318 -0.1239
19124SOL    HW175364   2.155  13.271   6.861  0.4950 -1.4197  0.6159
19124SOL    HW275365   2.122  13.308   7.004  0.6136 -2.4518  0.9198
19125SOL     OW75366   1.474   7.501   8.821  0.1254 -0.3892  0.4869
19125SOL    HW175367   1.404   7.437   8.825 -0.3271 -0.0664 -1.2993
19125SOL    HW275368   1.521   7.481   8.740 -0.5128  1.9221 -0.5756
19126SOL     OW75369   0.546   3.645  14.022 -0.0953  0.1075  0.1392
19126SOL    HW175370   0.609   3.640  13.951 -0.7031  2.0933 -0.6188
19126SOL    HW275371   0.598   3.664  14.100  0.4126 -0.2474 -0.1141
19127SOL     OW75372  10.197   2.328   7.397 -0.1241 -0.2808 -0.1005
19127SOL    HW175373  10.220   2.399   7.337 -0.9116 -0.1417 -0.2458
19127SOL    HW275374  10.262   2.334   7.467 -2.0107  2.6863  1.6118
19128SOL     OW75375   7.463   2.523   7.229  0.0245  0.4110  0.3177
19128SOL    HW175376   7.444   2.548   7.320  0.0814  2.2201 -0.1293
19128SOL    HW275377   7.386   2.551   7.180 -0.5338 -1.6636 -0.0557
19129SOL     OW75378  12.006  13.099   6.931  0.1601  0.0716 -0.0098
19129SOL    HW175379  11.934  13.042   6.907  2.0646 -2.1877 -0.7788
19129SOL    HW275380  12.026  13.148   6.851  0.3410 -0.3232 -0.2099
19130SOL     OW75381   7.270  10.903  12.934  0.3046  0.5943 -0.2047
19130SOL    HW175382   7.216  10.961  12.882  1.2336  1.4107 -0.2869
19130SOL    HW275383   7.335  10.961  12.975  1.4701 -0.4182 -0.5675
19131SOL     OW75384   8.582   4.513   0.756 -0.3160 -0.2741  0.5744
19131SOL    HW175385   8.487   4.515   0.744 -0.1864 -2.7837 -1.6758
19131SOL    HW275386   8.599   4.434   0.806  0.5568  0.8710  2.1721
19132SOL     OW75387   0.686  10.958   0.828  0.2233  0.0412 -0.1252
19132SOL    HW175388   0.613  10.935   0.771  0.5441  2.0842 -1.4766
19132SOL    HW275389   0.762  10.962   0.770  0.8340  0.8474  0.6915
19133SOL     OW75390   1.874  11.338  12.426 -0.6728  0.5388 -0.3250
19133SOL    HW175391   1.841  11.397  12.359 -1.0850  0.1516 -0.4693
19133SOL    HW275392   1.847  11.251  12.397 -1.3898  0.4245  0.6405
19134SOL     OW75393   8.691  10.917   9.983  0.3675  0.1184  0.8465
19134SOL    HW175394   8.596  10.907   9.993  0.1926  1.3264  0.5415
19134SOL    HW275395   8.703  10.940   9.891  0.7914  1.5569  1.2284
19135SOL     OW75396   2.539   5.975   8.249 -0.1416  0.0198  0.1237
19135SOL    HW175397   2.451   5.982   8.211 -1.2498 -0.2031  2.4799
19135SOL    HW275398   2.527   5.923   8.328  2.1322  0.0300  0.5487
19136SOL     OW75399   5.128  10.191   9.078  0.1913  0.1941 -0.9078
19136SOL    HW175400   5.133  10.172   8.984  0.1478 -0.0930 -0.8537
19136SOL    HW275401   5.218  10.182   9.109  0.1339 -0.1719 -0.8383
19137SOL     OW75402  11.029   1.135  13.086 -0.7607 -0.1868 -0.0590
19137SOL    HW175403  11.029   1.213  13.141 -1.7546  0.0552 -0.3909
19137SOL    HW275404  11.110   1.089  13.109 -0.1142  0.9939  0.0598
19138SOL     OW75405  13.878   3.412  10.745  0.2434 -0.4310  0.2516
19138SOL    HW175406  13.826   3.451  10.815  0.6161 -1.1721  0.9612
19138SOL    HW275407  13.816   3.356  10.698 -0.1004  0.3710 -0.2674
19139SOL     OW75408   9.674   6.624  11.875  0.1907  0.0026 -0.5608
19139SOL    HW175409   9.753   6.601  11.924  0.2313  1.5397  0.1384
19139SOL    HW275410   9.705   6.680  11.804 -0.1570 -0.2318 -0.9022
19140SOL     OW75411   1.855   2.950  14.131  0.3820  0.1007 -0.5241
19140SOL    HW175412   1.925   2.890  14.157  0.4147 -0.0757 -1.0257
19140SOL    HW275413   1.847   2.940  14.037 -0.1264  0.3334 -0.5128
19141SOL     OW75414  12.719  12.733   9.476 -0.0979 -0.2065  0.1490
19141SOL    HW175415  12.703  12.651   9.430 -0.9608  0.4653 -0.7824
19141SOL    HW275416  12.753  12.792   9.409 -1.7508  0.9086  0.2263
19142SOL     OW75417  13.761   9.060   4.544 -0.3657 -0.2607  0.3022
19142SOL    HW175418  13.819   9.121   4.498  0.7863 -1.4217  0.1675
19142SOL    HW275419  13.774   9.080   4.637  0.8081 -0.9728  0.3093
19143SOL     OW75420   3.630  10.721  11.688 -0.4612  0.3921 -0.1882
19143SOL    HW175421   3.700  10.787  11.683 -0.4216  0.3260 -0.5025
19143SOL    HW275422   3.555  10.769  11.724  0.1815  0.1007  1.6660
19144SOL     OW75423   8.290  10.787   9.555 -0.0781 -0.2465 -0.3503
19144SOL    HW175424   8.248  10.722   9.498  0.0798 -0.1121 -0.6212
19144SOL    HW275425   8.217  10.826   9.603 -0.1837 -0.5782 -0.2324
19145SOL     OW75426   2.206   1.177   0.888 -0.0253 -0.0201 -0.5080
19145SOL    HW175427   2.151   1.120   0.941  1.1490 -1.2455 -0.5629
19145SOL    HW275428   2.235   1.123   0.815  0.5877  0.8287 -0.9233
19146SOL     OW75429  13.204   3.400   7.797  0.3919  0.4195  0.4464
19146SOL    HW175430  13.238   3.343   7.866  0.0037  1.0180  1.1474
19146SOL    HW275431  13.275   3.405   7.732  1.1037  0.5451  1.2204
19147SOL     OW75432   3.337  13.901   5.745 -0.4551 -0.0531  0.6998
19147SOL    HW175433   3.247  13.904   5.713  0.1586 -0.4302 -1.2064
19147SOL    HW275434   3.353  13.808   5.764 -0.7969  0.1607  2.1220
19148SOL     OW75435   0.849   9.652   6.469  0.3123 -0.2487  0.2831
19148SOL    HW175436   0.912   9.695   6.526  0.4212 -0.5102  0.3643
19148SOL    HW275437   0.860   9.694   6.384  0.6760 -0.3671  0.2693
19149SOL     OW75438   4.736   3.085   2.604 -0.0900  0.0527 -0.5105
19149SOL    HW175439   4.727   3.002   2.651 -0.5056 -0.1470 -0.9369
19149SOL    HW275440   4.647   3.118   2.596 -0.4129 -1.2132 -3.4606
19150SOL     OW75441   5.354  11.876  12.086  0.4236  0.2892  0.2149
19150SOL    HW175442   5.421  11.927  12.040  1.8181 -1.3471  0.3209
19150SOL    HW275443   5.392  11.859  12.172 -0.4665 -0.0272  0.5557
19151SOL     OW75444   9.173   6.817   3.325 -0.3637 -0.1608 -0.7970
19151SOL    HW175445   9.146   6.732   3.290  0.0036 -0.5384 -0.1848
19151SOL    HW275446   9.263   6.803   3.356 -1.6999 -0.8377  3.3782
19152SOL     OW75447   9.310   8.482   8.132  0.2636  0.5898  0.2358
19152SOL    HW175448   9.388   8.458   8.182 -0.0703  1.7501  1.3799
19152SOL    HW275449   9.237   8.452   8.186 -0.1029  1.5486  0.2953
19153SOL     OW75450  10.232   3.833   8.510 -0.0106  0.1284  0.0695
19153SOL    HW175451  10.328   3.840   8.507  0.1844 -1.2197  1.8601
19153SOL    HW275452  10.215   3.742   8.535 -1.8509 -0.3436 -2.4904
19154SOL     OW75453   4.212   7.400   9.942  0.0343  0.0164  0.0836
19154SOL    HW175454   4.233   7.366   9.855  3.0593  1.7857 -0.0109
19154SOL    HW275455   4.120   7.377   9.955  0.0554 -2.1648 -2.6565
19155SOL     OW75456   3.711   6.307   6.497  0.4743  0.4637  0.5438
19155SOL    HW175457   3.711   6.241   6.429 -0.8675 -0.4256  1.3425
19155SOL    HW275458   3.785   6.285   6.553  0.3099 -0.0973  0.5453
19156SOL     OW75459   1.855  10.253  12.426 -0.5940 -0.0148 -0.0981
19156SOL    HW175460   1.823  10.331  12.471 -0.8476 -0.4908  0.5534
19156SOL    HW275461   1.852  10.276  12.333  0.2628  1.1040  0.1323
19157SOL     OW75462   1.002   7.244  11.873 -0.2753  0.1872 -0.2753
19157SOL    HW175463   0.975   7.301  11.801 -1.0126  2.5669  1.7344
19157SOL    HW275464   0.927   7.187  11.889 -0.6415  0.6142 -0.4760
19158SOL     OW75465   3.526   3.364  10.796 -0.2353 -0.5811  0.4414
19158SOL    HW175466   3.535   3.301  10.868  1.5544  0.3246  1.0700
19158SOL    HW275467   3.557   3.316  10.719  0.3359 -0.7461  0.7673
19159SOL     OW75468  12.545   5.820  10.222  0.3513  0.0217  0.2115
19159SOL    HW175469  12.557   5.825  10.317 -1.5336  1.3394  0.4212
19159SOL    HW275470  12.603   5.748  10.195  3.6047  1.8152  1.8228
19160SOL     OW75471   8.033   4.517   3.352 -0.7148 -0.5355  0.2989
19160SOL    HW175472   8.073   4.433   3.327 -0.1892  0.0719 -0.9636
19160SOL    HW275473   8.106   4.579   3.355 -1.3143  0.2144 -0.3268
19161SOL     OW75474   2.091   8.347  13.558 -0.1371 -0.0685 -0.2408
19161SOL    HW175475   2.075   8.272  13.501  0.4103  0.5253 -1.2032
19161SOL    HW275476   2.142   8.408  13.504  0.9394  0.2497  1.0918
19162SOL     OW75477   0.483   5.250  14.063  0.0131 -0.2518 -0.3496
19162SOL    HW175478   0.548   5.202  14.012  0.3886  0.0899 -0.1925
19162SOL    HW275479   0.534   5.310  14.118 -0.2489 -1.8054  1.7138
19163SOL     OW75480   3.152   6.016   8.464 -0.5499 -0.1235  0.0270
19163SOL    HW175481   3.070   6.013   8.512 -0.2865  0.4839  0.5279
19163SOL    HW275482   3.211   5.959   8.514 -0.1402  0.8650  0.7140
19164SOL     OW75483   6.176   1.470  11.872  0.1070  0.5219 -0.3231
19164SOL    HW175484   6.164   1.563  11.892 -1.3235  0.5801 -1.2193
19164SOL    HW275485   6.255   1.445  11.919 -0.3868  1.7834  1.2754
19165SOL     OW75486  13.616  10.894   6.626  0.1895 -0.0304 -0.4934
19165SOL    HW175487  13.671  10.842   6.684 -1.3669 -2.9106 -1.3807
19165SOL    HW275488  13.530  10.852   6.630 -0.4855  0.8347 -3.3495
19166SOL     OW75489   1.850   1.130   2.041 -0.1561  0.3719  0.1740
19166SOL    HW175490   1.918   1.120   1.974  0.4745  1.7320  0.5652
19166SOL    HW275491   1.768   1.131   1.992  0.2866  1.2587 -0.5897
19167SOL     OW75492   8.327   6.583   2.720 -0.0467 -0.1624  0.1319
19167SOL    HW175493   8.342   6.677   2.727  2.1876 -0.5485  1.2969
19167SOL    HW275494   8.305   6.555   2.809 -0.6365 -0.7673 -0.1920
19168SOL     OW75495   1.906   5.259   9.601 -0.5615  0.5424 -0.6105
19168SOL    HW175496   1.986   5.216   9.572 -0.9672 -0.4391 -0.3027
19168SOL    HW275497   1.848   5.257   9.525 -0.5763  0.5671 -0.5996
19169SOL     OW75498   7.935   7.393   2.287 -0.0428 -0.4747 -0.8313
19169SOL    HW175499   7.952   7.479   2.324 -1.2750 -0.3869 -0.4239
19169SOL    HW275500   7.865   7.407   2.224 -1.4565 -1.4247  0.4607
19170SOL     OW75501  11.904   8.643   3.165  0.0638 -0.1126  0.4734
19170SOL    HW175502  11.950   8.714   3.121 -1.8851  0.9255 -0.0288
19170SOL    HW275503  11.873   8.681   3.247  3.7276 -2.0463  3.0232
19171SOL     OW75504  14.079   8.286   8.151 -0.2895  0.2173  0.7254
19171SOL    HW175505  14.083   8.191   8.147 -3.3099 -0.0046  0.7888
19171SOL    HW275506  14.011   8.304   8.215 -0.1283  2.4387  0.3518
19172SOL     OW75507   0.543  13.552   1.356  0.5061 -0.8019 -0.6531
19172SOL    HW175508   0.570  13.600   1.278  0.8473  2.0352  1.0742
19172SOL    HW275509   0.471  13.604   1.393  0.1161 -2.2485  0.7541
19173SOL     OW75510   4.959  11.537  11.728  0.2433 -0.6988  0.1258
19173SOL    HW175511   4.987  11.620  11.689  1.5903 -1.9288 -1.6595
19173SOL    HW275512   4.898  11.500  11.665 -0.0775 -1.2437  0.7432
19174SOL     OW75513   6.176  10.230   1.715 -0.6640  0.8776 -0.1248
19174SOL    HW175514   6.210  10.278   1.791  0.9009  0.2157 -0.3586
19174SOL    HW275515   6.255  10.206   1.666 -1.4868 -0.8749 -0.6477
19175SOL     OW75516   5.233   0.730   1.970 -0.5704 -0.0324  0.1706
19175SOL    HW175517   5.150   0.701   1.932 -0.0453 -0.3151 -0.8158
19175SOL    HW275518   5.299   0.696   1.910  0.2532  0.3058  0.8685
19176SOL     OW75519   0.205   2.462   8.253  0.3046 -0.5698 -0.6395
19176SOL    HW175520   0.274   2.528   8.250  1.6512 -1.8400  0.4235
19176SOL    HW275521   0.144   2.486   8.183  1.6295  0.8144 -1.3613
19177SOL     OW75522   1.493   2.270   8.094  0.4102 -0.0132 -0.0720
19177SOL    HW175523   1.564   2.251   8.155 -0.3822  0.4054  1.0081
19177SOL    HW275524   1.432   2.196   8.104  0.4844 -0.1607 -0.6803
19178SOL     OW75525   5.392   5.562   9.884 -0.1073  0.2728 -0.2373
19178SOL    HW175526   5.377   5.518   9.968  1.9800 -0.8014 -0.3453
19178SOL    HW275527   5.446   5.500   9.834 -1.6960  0.6606 -2.6103
19179SOL     OW75528   9.899   6.111   8.302 -0.4326  0.1500 -0.3975
19179SOL    HW175529   9.838   6.111   8.229 -0.0587 -0.6832 -0.7210
19179SOL    HW275530   9.938   6.199   8.301 -2.6815  1.2636  0.7460
19180SOL     OW75531   4.920  12.266   7.739  0.6613 -0.3998  0.4536
19180SOL    HW175532   4.993  12.215   7.702 -0.3003 -1.0027 -0.6881
19180SOL    HW275533   4.875  12.302   7.662 -1.5741 -1.9158  0.9705
19181SOL     OW75534   9.677   9.799   2.382  1.0046  0.2865  0.3019
19181SOL    HW175535   9.699   9.878   2.332 -0.2283  0.1006 -0.5706
19181SOL    HW275536   9.611   9.829   2.446  0.7331  0.0252  0.1472
19182SOL     OW75537   6.436  11.969   5.429  0.6798 -0.7827  0.7329
19182SOL    HW175538   6.528  11.974   5.403  0.0108  0.9854 -1.6159
19182SOL    HW275539   6.420  11.876   5.442  2.4845 -1.2311 -0.0010
19183SOL     OW75540   3.515   7.403   5.952  0.1195  0.4307 -0.1295
19183SOL    HW175541   3.459   7.357   6.015  1.5333 -0.5969  0.4192
19183SOL    HW275542   3.454   7.455   5.899 -1.6331 -2.3865 -1.0794
19184SOL     OW75543  12.261  10.298   7.647  0.0218 -0.3211  0.0338
19184SOL    HW175544  12.304  10.274   7.565  1.1054 -0.1076  0.5226
19184SOL    HW275545  12.178  10.338   7.619  1.0538  1.1764 -1.0335
19185SOL     OW75546  14.102   6.996  11.893  0.4039 -0.2565  0.2728
19185SOL    HW175547  14.059   6.996  11.807  2.0433 -0.6857 -0.5722
19185SOL    HW275548  14.046   7.053  11.947  0.4082  1.6752 -1.6235
19186SOL     OW75549   7.763  12.126   5.470 -0.1909 -0.4873 -0.5887
19186SOL    HW175550   7.670  12.122   5.494  0.2286  0.1051  1.3986
19186SOL    HW275551   7.792  12.035   5.471 -0.5743 -0.6109 -0.3111
19187SOL     OW75552   2.958   0.732   9.675  0.5245  0.3457 -0.3090
19187SOL    HW175553   3.052   0.753   9.679  0.6999 -0.5386  1.0158
19187SOL    HW275554   2.931   0.730   9.767 -0.8532  0.7807 -0.6877
19188SOL     OW75555  10.411   3.550  11.927 -0.2820  0.5783  0.0953
19188SOL    HW175556  10.322   3.553  11.961 -0.9611  1.3928 -1.6346
19188SOL    HW275557  10.466   3.584  11.998 -1.2917 -0.2077  1.2842
19189SOL     OW75558   2.470   6.712   9.992 -0.3735 -0.4803  0.6008
19189SOL    HW175559   2.544   6.772   9.988 -2.3269  2.0840  0.0144
19189SOL    HW275560   2.445   6.709  10.084 -1.0673  0.7177  0.4666
19190SOL     OW75561   4.135   5.265  11.047  0.2006  0.5345  0.4746
19190SOL    HW175562   4.130   5.280  11.142 -0.5546 -0.5151  0.6212
19190SOL    HW275563   4.055   5.305  11.012  0.3530  0.6984  0.3119
19191SOL     OW75564   5.039   6.644   5.821  0.1115  0.1898  0.3021
19191SOL    HW175565   5.096   6.587   5.770  0.1867  1.1299 -0.6957
19191SOL    HW275566   5.043   6.609   5.910  3.5368  1.1752  0.6748
19192SOL     OW75567   8.059   4.974   7.887 -0.6838 -0.5835  0.3774
19192SOL    HW175568   7.994   5.043   7.873  1.0534  0.9764 -0.3910
19192SOL    HW275569   8.141   5.021   7.905  0.1038 -2.4666  2.2362
19193SOL     OW75570   8.100  13.107   6.613 -0.8188 -0.5421  0.0094
19193SOL    HW175571   8.113  13.201   6.624 -1.5387 -0.4681  0.2996
19193SOL    HW275572   8.173  13.079   6.557  0.3534 -0.1294  1.2876
19194SOL     OW75573   0.210   7.578   1.486  0.7907 -0.2444  0.2407
19194SOL    HW175574   0.265   7.538   1.418 -0.0632 -2.8508  0.9557
19194SOL    HW275575   0.246   7.666   1.498  2.3689 -0.5022 -1.9727
19195SOL     OW75576   5.825  12.752  10.519 -0.2672  0.5696  0.2406
19195SOL    HW175577   5.757  12.804  10.477  0.2782  0.6547 -0.5622
19195SOL    HW275578   5.812  12.663  10.486  0.4307  0.7202 -0.4793
19196SOL     OW75579  12.712   4.260   6.307 -0.1752  0.1290 -0.7573
19196SOL    HW175580  12.795   4.306   6.319  0.2181 -0.9967  1.1910
19196SOL    HW275581  12.732   4.194   6.240  1.0993 -1.3283  0.9484
19197SOL     OW75582   8.423  11.022   6.764  0.3366 -0.3452 -0.2345
19197SOL    HW175583   8.348  11.074   6.791 -0.9059 -2.1052 -0.1414
19197SOL    HW275584   8.481  11.085   6.720  0.4203  1.7507  2.5546
19198SOL     OW75585   4.233   0.110   3.467  0.4078 -0.5650  0.7069
19198SOL    HW175586   4.278   0.108   3.552 -1.8669  0.6862  2.0479
19198SOL    HW275587   4.147   0.148   3.487 -0.7135 -1.5168 -1.9487
19199SOL     OW75588   6.843  12.193  12.683  0.7623  0.0011  0.2820
19199SOL    HW175589   6.802  12.273  12.651 -2.0252 -0.5233  2.1636
19199SOL    HW275590   6.798  12.122  12.638  0.5539 -0.5746  1.3470
19200SOL     OW75591   8.473  12.608   5.309 -0.2269 -0.0122 -0.0554
19200SOL    HW175592   8.499  12.693   5.272 -2.1114  0.9195  0.6132
19200SOL    HW275593   8.406  12.630   5.374 -0.7905 -2.0367  0.1172
19201SOL     OW75594   3.184   5.819  12.890 -1.1140 -0.1449 -0.4338
19201SOL    HW175595   3.276   5.805  12.914 -1.2405  0.2192  0.2900
19201SOL    HW275596   3.150   5.877  12.958 -1.4581  1.0346 -1.5790
19202SOL     OW75597   7.401   4.322  10.148 -0.5318  0.1732 -0.7129
19202SOL    HW175598   7.421   4.253  10.084  0.8188  1.5635 -1.8750
19202SOL    HW275599   7.474   4.318  10.211  0.5123  1.5981 -1.7642
19203SOL     OW75600   0.884   9.878   3.435  0.0905  0.0764  0.0104
19203SOL    HW175601   0.907   9.944   3.501  0.3446 -1.6407  1.7347
19203SOL    HW275602   0.789   9.865   3.446  0.2530 -0.7361  0.6052
19204SOL     OW75603   0.034   5.822   0.381 -0.1501 -0.0750 -0.3314
19204SOL    HW175604  -0.005   5.744   0.421  1.4755 -1.0948 -0.6317
19204SOL    HW275605   0.089   5.860   0.450  0.7202 -0.4269 -0.8108
19205SOL     OW75606   8.349   0.319  10.164  0.1818  0.4261  0.5609
19205SOL    HW175607   8.340   0.345  10.255 -1.7839 -1.2584  0.9225
19205SOL    HW275608   8.260   0.296  10.137  1.0590 -1.3436 -1.0562
19206SOL     OW75609  10.316  11.317   5.572  0.1216  0.3874  0.2298
19206SOL    HW175610  10.387  11.264   5.536  0.2741 -1.0234  2.4051
19206SOL    HW275611  10.241  11.300   5.515  0.3999 -1.5778  0.3708
19207SOL     OW75612   3.993  11.268   4.781  0.4003 -0.5091  0.1452
19207SOL    HW175613   4.056  11.208   4.821 -1.4378 -2.6008  0.1336
19207SOL    HW275614   3.909  11.244   4.821 -0.6533  1.0460 -1.0195
19208SOL     OW75615  10.065   4.464   8.613  0.3234 -0.4619  0.3396
19208SOL    HW175616  10.145   4.502   8.576  1.5825 -1.7651  1.6245
19208SOL    HW275617  10.089   4.374   8.633 -2.1110 -1.5383 -1.1624
19209SOL     OW75618   9.725   2.382  10.539  0.2595 -0.5572 -0.1019
19209SOL    HW175619   9.661   2.313  10.555 -1.4517  1.3597  2.1807
19209SOL    HW275620   9.753   2.409  10.627  0.0878  2.2866 -0.8235
19210SOL     OW75621   9.809   6.461  10.347  0.3937  0.3435 -0.1101
19210SOL    HW175622   9.810   6.450  10.253 -0.0096  1.1469 -0.2211
19210SOL    HW275623   9.720   6.439  10.374  1.2552 -2.8788  0.5185
19211SOL     OW75624   8.544   9.848   8.266  0.0202 -0.1898 -0.1879
19211SOL    HW175625   8.557   9.760   8.301 -2.1191 -1.4853 -2.3482
19211SOL    HW275626   8.456   9.873   8.296 -0.1196  0.4354 -1.0868
19212SOL     OW75627  13.739   1.206   8.173  0.3600  0.0439 -0.2930
19212SOL    HW175628  13.646   1.222   8.193  0.1594 -1.4694  0.1155
19212SOL    HW275629  13.777   1.185   8.258  0.9124 -0.1183 -0.5814
19213SOL     OW75630  10.290   4.506   8.852 -0.4073 -0.4964  0.1196
19213SOL    HW175631  10.382   4.481   8.846  0.1983  1.2900  1.3692
19213SOL    HW275632  10.283   4.587   8.802 -0.7529  0.6182  1.8662
19214SOL     OW75633  10.323   5.099   3.141 -0.5899 -0.3897 -0.0197
19214SOL    HW175634  10.409   5.122   3.106 -1.5215  2.6975 -0.6163
19214SOL    HW275635  10.338   5.020   3.192  2.6886  0.2404  0.2209
19215SOL     OW75636   7.777   5.620   3.366 -0.1851 -0.1125 -0.8791
19215SOL    HW175637   7.847   5.567   3.402  0.2405 -0.6696 -2.4709
19215SOL    HW275638   7.808   5.645   3.278 -0.1247  3.1900 -0.0620
19216SOL     OW75639  12.053  10.781   6.947 -0.0035 -0.5213  0.1019
19216SOL    HW175640  11.971  10.816   6.982  0.3443  0.9979 -0.4950
19216SOL    HW275641  12.121  10.833   6.989  0.5574 -0.6236 -0.6512
19217SOL     OW75642   5.448   7.823  12.233  0.2085 -0.6759 -0.4928
19217SOL    HW175643   5.433   7.868  12.151 -0.3909 -2.1890 -1.2592
19217SOL    HW275644   5.400   7.874  12.298  2.3942  1.7411 -0.6302
19218SOL     OW75645  13.224   4.132   4.538  0.8807  0.1514 -0.0929
19218SOL    HW175646  13.142   4.087   4.521  1.8923 -1.8521 -0.0316
19218SOL    HW275647  13.200   4.224   4.549 -1.4016 -0.4505  0.4665
19219SOL     OW75648   9.215   7.574  10.389 -0.2406  0.3617  0.2005
19219SOL    HW175649   9.260   7.637  10.447  1.4077  0.1700 -0.7975
19219SOL    HW275650   9.131   7.615  10.371 -0.2278  1.0889  1.5988
19220SOL     OW75651   9.305   9.233   0.361 -0.1749 -0.2582 -0.3802
19220SOL    HW175652   9.248   9.198   0.292 -1.2294 -0.5431  0.6052
19220SOL    HW275653   9.303   9.167   0.430 -1.1915  1.1425  0.9883
19221SOL     OW75654  10.190   1.371   1.738  0.8011 -0.1609 -0.2898
19221SOL    HW175655  10.276   1.373   1.695  0.4243  0.9386 -1.0268
19221SOL    HW275656  10.152   1.456   1.720  0.3076  0.0740  1.6267
19222SOL     OW75657   0.473   0.407  13.622 -0.0429  0.2386 -0.0833
19222SOL    HW175658   0.489   0.419  13.716  2.5738 -0.0479 -0.4045
19222SOL    HW275659   0.432   0.321  13.615  2.4858 -1.1199  0.6686
19223SOL     OW75660  11.922   0.516   0.147 -0.2142  0.1855 -0.0623
19223SOL    HW175661  11.863   0.571   0.199 -0.4226 -1.2776  1.3527
19223SOL    HW275662  11.886   0.428   0.155  1.9671 -0.7244  0.6395
19224SOL     OW75663   2.725  13.509  11.443 -0.6934 -0.2098  0.0439
19224SOL    HW175664   2.666  13.475  11.377 -1.7547 -0.5337  1.1262
19224SOL    HW275665   2.770  13.432  11.477 -1.8762 -0.3648  1.3250
19225SOL     OW75666   7.952  10.344   0.736 -0.2643 -0.4687  0.3271
19225SOL    HW175667   7.993  10.397   0.667  1.4705 -1.3645  0.6129
19225SOL    HW275668   7.870  10.389   0.755  0.8516  1.8154  0.1516
19226SOL     OW75669  13.860   4.063   1.852  0.3774  0.5031  0.5157
19226SOL    HW175670  13.934   4.030   1.902  1.5677  1.7266 -0.3625
19226SOL    HW275671  13.891   4.065   1.762 -1.5607 -1.2284 -0.2723
19227SOL     OW75672   4.684  10.042   2.887 -0.8411  0.0548  0.4013
19227SOL    HW175673   4.608  10.074   2.837 -0.6085  2.5123  1.4543
19227SOL    HW275674   4.666  10.069   2.977  0.9214 -0.0018  0.7990
19228SOL     OW75675   3.260   7.149   4.806 -0.0608 -0.2655 -0.0992
19228SOL    HW175676   3.223   7.130   4.893 -1.4191  0.3507 -0.5122
19228SOL    HW275677   3.303   7.233   4.816  0.9420 -0.8124  0.2939
19229SOL     OW75678   1.635  12.175  10.610  0.2251 -0.1232 -0.2829
19229SOL    HW175679   1.687  12.254  10.596 -0.1189  0.7083  2.4708
19229SOL    HW275680   1.686  12.105  10.571  0.4525  1.4135 -3.0198
19230SOL     OW75681   6.039  12.487   6.714  0.1791  0.1559  0.7424
19230SOL    HW175682   5.960  12.537   6.696  0.9804  1.0400 -0.4233
19230SOL    HW275683   6.087  12.541   6.778  0.7519  0.6092 -0.0498
19231SOL     OW75684  13.466   8.862  10.910 -0.4580 -0.3423 -0.1493
19231SOL    HW175685  13.419   8.869  10.993  0.9673 -0.5990  0.7191
19231SOL    HW275686  13.501   8.773  10.910  0.1300 -0.1162 -0.7013
19232SOL     OW75687   9.001   1.595  13.441 -0.0304  0.2633 -0.3875
19232SOL    HW175688   8.981   1.607  13.534 -1.2579 -0.2216 -0.5752
19232SOL    HW275689   8.963   1.670  13.397 -2.0669 -0.9568 -0.8140
19233SOL     OW75690   4.827   7.847   4.702  0.1480  0.1411  0.1466
19233SOL    HW175691   4.765   7.822   4.770  0.8933 -1.9452  0.1421
19233SOL    HW275692   4.911   7.853   4.747  0.1440  2.0851 -0.0125
19234SOL     OW75693   1.641   0.243  13.659  0.2670 -0.7046 -0.1411
19234SOL    HW175694   1.654   0.315  13.598 -1.6511  0.3439  0.5961
19234SOL    HW275695   1.545   0.232  13.663  0.4117 -1.6543  1.6165
19235SOL     OW75696  10.773  11.107  13.223 -0.4072 -0.8517  0.7086
19235SOL    HW175697  10.826  11.052  13.280  2.1355  0.5168 -0.1424
19235SOL    HW275698  10.746  11.180  13.278  0.2218 -0.6086  0.6998
19236SOL     OW75699   8.371   0.975   6.054  0.4613  0.1546  0.0323
19236SOL    HW175700   8.460   0.957   6.083  1.1988  2.4482 -0.5458
19236SOL    HW275701   8.375   1.065   6.020 -1.5687 -0.4647 -2.0924
19237SOL     OW75702   4.716   2.775   6.461 -0.0752 -0.1511  0.1841
19237SOL    HW175703   4.771   2.854   6.460  0.3536 -0.4484  0.0707
19237SOL    HW275704   4.650   2.793   6.528 -0.6272  0.7402 -0.5713
19238SOL     OW75705   7.052   8.218   3.841 -0.0491  0.1912  0.0988
19238SOL    HW175706   7.000   8.284   3.795  1.4468  1.0900 -0.3705
19238SOL    HW275707   7.019   8.134   3.807  0.0259  0.7919 -1.5436
19239SOL     OW75708  11.809   1.049   6.163 -0.3723  0.0992 -0.1853
19239SOL    HW175709  11.738   1.045   6.099  0.4529  1.1818 -1.2100
19239SOL    HW275710  11.790   1.126   6.216 -0.5289 -0.2314  0.2462
19240SOL     OW75711  10.907   4.430   0.974  0.1058 -0.4269 -0.5791
19240SOL    HW175712  10.886   4.349   1.021 -1.5992 -0.0766 -0.6622
19240SOL    HW275713  10.970   4.404   0.908 -0.0336 -1.5943 -0.2734
19241SOL     OW75714  10.936   3.674   8.604 -0.3279 -0.5273  0.7989
19241SOL    HW175715  10.965   3.748   8.551 -0.3412  0.3112  1.9349
19241SOL    HW275716  10.855   3.704   8.646 -1.0026 -1.6272  0.3285
19242SOL     OW75717  11.865   9.535  11.602  0.0870 -0.1940  0.3125
19242SOL    HW175718  11.960   9.542  11.607  0.1396 -1.3267  1.2443
19242SOL    HW275719  11.845   9.546  11.509  1.1809 -0.5597  0.0207
19243SOL     OW75720   0.063  13.364   2.289  0.5775 -0.0846  0.1827
19243SOL    HW175721   0.100  13.444   2.327 -0.0681  0.2441  0.1351
19243SOL    HW275722   0.002  13.395   2.222  0.2666 -0.6163  0.2114
19244SOL     OW75723   8.494   1.700  11.015 -0.0774  0.1551 -0.5259
19244SOL    HW175724   8.409   1.734  10.986 -0.3242 -0.2853 -0.3193
19244SOL    HW275725   8.475   1.613  11.050  0.3053  0.4283  0.3959
19245SOL     OW75726  11.372   8.195   8.327 -0.2075 -0.0632  0.3562
19245SOL    HW175727  11.374   8.107   8.288  0.0382 -1.2060  2.7782
19245SOL    HW275728  11.282   8.206   8.357 -0.3868  0.7849 -0.4598
19246SOL     OW75729  11.957   9.565   8.984  0.6772 -0.3911 -0.0693
19246SOL    HW175730  11.911   9.482   8.993 -1.5123  0.8992  1.5141
19246SOL    HW275731  12.002   9.577   9.068 -0.5273  0.8117  0.4457
19247SOL     OW75732  11.604   0.704   9.190  0.0959 -0.0075 -0.5468
19247SOL    HW175733  11.553   0.779   9.220  0.4010 -0.2977  0.7559
19247SOL    HW275734  11.674   0.695   9.254  0.7134 -0.7373 -1.2960
19248SOL     OW75735   5.106   1.554  12.294  0.3006 -0.1784  0.4860
19248SOL    HW175736   5.179   1.515  12.247 -0.3273  1.7049 -2.2936
19248SOL    HW275737   5.140   1.639  12.324 -0.4500  0.3060 -0.0073
19249SOL     OW75738   5.440  11.265  12.298  0.1339  0.0345  0.0086
19249SOL    HW175739   5.533  11.287  12.304  0.0644  1.0371 -1.6115
19249SOL    HW275740   5.436  11.171  12.314  1.1370  0.2936  2.1605
19250SOL     OW75741   1.097   2.103  10.478  0.1771  0.2366 -0.2801
19250SOL    HW175742   1.076   2.086  10.386 -1.2117  0.3656 -0.0086
19250SOL    HW275743   1.135   2.020  10.509 -1.8619 -0.7684 -0.2872
19251SOL     OW75744   4.831   1.663  11.397  0.0848  0.1149  0.0266
19251SOL    HW175745   4.767   1.601  11.433  0.0531  0.0933 -0.0684
19251SOL    HW275746   4.789   1.699  11.319 -0.3669  1.1161  0.7084
19252SOL     OW75747   0.645   9.021   4.719  0.1867  0.5428 -0.0007
19252SOL    HW175748   0.653   9.006   4.625  0.0743  0.4558  0.0033
19252SOL    HW275749   0.698   9.098   4.736 -1.4190  1.7996 -0.4686
19253SOL     OW75750  10.638  11.896   8.416 -0.0858 -0.0331  0.1012
19253SOL    HW175751  10.628  11.964   8.483  1.8018 -0.0800  0.4761
19253SOL    HW275752  10.662  11.943   8.337 -0.7194 -0.1193 -0.1497
19254SOL     OW75753   8.250   3.436   8.046 -1.0861 -0.3465 -0.5425
19254SOL    HW175754   8.312   3.499   8.009  0.3055 -0.5774  1.2661
19254SOL    HW275755   8.165   3.463   8.012 -0.5743  2.6319  0.2878
19255SOL     OW75756   3.692  12.283   9.334 -0.5677 -0.0573  0.2030
19255SOL    HW175757   3.749  12.219   9.376 -1.0449  0.3486  1.5248
19255SOL    HW275758   3.751  12.336   9.280  0.3440  0.4301  1.6256
19256SOL     OW75759   2.357  13.265   6.813 -0.1313 -0.4243  0.2047
19256SOL    HW175760   2.357  13.249   6.719 -2.7331 -1.3948  0.2873
19256SOL    HW275761   2.383  13.356   6.822 -2.2149  0.4534 -1.6786
19257SOL     OW75762   9.444   0.531   3.007 -0.0571  0.3404  0.5081
19257SOL    HW175763   9.366   0.586   2.993  0.4410  0.8582 -0.3557
19257SOL    HW275764   9.415   0.464   3.069 -1.0264  0.8682  0.6557
19258SOL     OW75765   0.618  10.188   5.552 -0.3266 -0.4290 -0.2264
19258SOL    HW175766   0.705  10.181   5.593 -0.9702  0.1712  1.3053
19258SOL    HW275767   0.618  10.275   5.512 -0.2064 -0.4563 -0.2894
19259SOL     OW75768   8.215   3.235  10.241 -0.1920 -0.1814 -0.6085
19259SOL    HW175769   8.207   3.322  10.280  0.1557  0.0071 -0.9574
19259SOL    HW275770   8.130   3.220  10.199 -0.5450 -0.3572  0.1461
19260SOL     OW75771   8.600   2.051  12.116  0.0523 -0.0705  0.3252
19260SOL    HW175772   8.520   2.103  12.119 -0.3459 -0.6989  0.8659
19260SOL    HW275773   8.634   2.064  12.028 -1.3786 -0.8476 -0.3795
19261SOL     OW75774   5.518  13.661  12.572 -0.2037  0.9052  0.0448
19261SOL    HW175775   5.579  13.612  12.627  0.5332 -0.4168 -1.8084
19261SOL    HW275776   5.436  13.663  12.621  0.2697 -0.6772  0.9483
19262SOL     OW75777   2.075   7.652   2.336 -0.0057  0.1656 -0.0528
19262SOL    HW175778   2.061   7.700   2.418  1.3390  0.1464  0.2158
19262SOL    HW275779   2.061   7.717   2.267  2.0216  1.0504  0.3141
19263SOL     OW75780   4.587   2.857   9.523  0.5539 -0.1534 -0.5985
19263SOL    HW175781   4.524   2.795   9.560  1.0424 -1.6280 -2.0985
19263SOL    HW275782   4.673   2.820   9.544  0.8633  0.2924 -1.0351
19264SOL     OW75783   5.216   1.276  10.215 -0.4660  0.3265  0.8798
19264SOL    HW175784   5.123   1.252  10.218 -0.3081 -0.6593 -0.7731
19264SOL    HW275785   5.241   1.263  10.123  0.5998  3.3712  0.6265
19265SOL     OW75786   7.871  10.470   4.029 -0.6799  0.0518 -0.8117
19265SOL    HW175787   7.870  10.540   4.094  0.6688 -1.3019  0.7718
19265SOL    HW275788   7.964  10.450   4.018 -0.9091 -0.1397 -2.7870
19266SOL     OW75789  11.742   9.333   3.100 -0.2268 -0.4650  0.3931
19266SOL    HW175790  11.706   9.376   3.023  1.0901 -0.5418 -0.2899
19266SOL    HW275791  11.800   9.265   3.066  0.1773 -0.6788  1.4542
19267SOL     OW75792   8.094  11.333   3.010 -0.1238 -0.1975 -0.5168
19267SOL    HW175793   8.183  11.304   2.988  0.0228  0.0942 -0.3158
19267SOL    HW275794   8.065  11.383   2.933 -0.4413 -1.0094 -0.9327
19268SOL     OW75795   0.680   9.189  12.634 -0.5684 -0.2552  0.3336
19268SOL    HW175796   0.680   9.236  12.718  0.6521 -1.4865  1.0462
19268SOL    HW275797   0.639   9.105  12.654  0.1932 -0.7523 -0.1909
19269SOL     OW75798   4.571   1.688   5.465 -0.3790 -0.0094  0.1755
19269SOL    HW175799   4.611   1.772   5.488 -0.3272  0.0291 -0.0516
19269SOL    HW275800   4.644   1.636   5.431 -0.1654 -0.5793  1.4562
19270SOL     OW75801   4.154   7.512   6.781  0.2910 -0.0340 -0.1854
19270SOL    HW175802   4.092   7.579   6.751  0.9724  1.4118  1.4907
19270SOL    HW275803   4.136   7.437   6.724 -0.3034  1.6241 -2.3579
19271SOL     OW75804   6.865  10.732  13.399  0.0906  0.9017 -0.4917
19271SOL    HW175805   6.860  10.639  13.417  2.1226  0.7188 -0.6953
19271SOL    HW275806   6.775  10.757  13.375 -0.4721 -0.9763 -0.4362
19272SOL     OW75807   3.842  10.390  11.119 -0.0311  0.8303 -0.0996
19272SOL    HW175808   3.748  10.389  11.137 -0.4744  0.8219 -2.1336
19272SOL    HW275809   3.848  10.425  11.030  1.7624 -0.7558 -0.6471
19273SOL     OW75810   6.097   5.255   1.360  0.0078 -0.0900 -0.2597
19273SOL    HW175811   6.097   5.241   1.455 -0.3871 -0.9360 -0.3798
19273SOL    HW275812   6.148   5.182   1.325 -1.0873 -0.6278 -0.8008
19274SOL     OW75813   6.910   9.662  13.416 -0.0794 -0.3061 -0.3942
19274SOL    HW175814   6.858   9.648  13.494  0.4435  2.3375  0.5475
19274SOL    HW275815   6.874   9.742  13.377  2.1353  0.6668 -0.6235
19275SOL     OW75816   7.470   0.987   4.431  0.3785 -0.1044 -0.0025
19275SOL    HW175817   7.456   0.961   4.522 -1.0617 -2.8107 -0.8668
19275SOL    HW275818   7.456   1.081   4.429 -0.6069 -0.1496  2.3934
19276SOL     OW75819  12.879   8.268   8.894 -0.1092  0.0583 -0.3075
19276SOL    HW175820  12.793   8.234   8.918  0.3857 -0.8699  0.1755
19276SOL    HW275821  12.864   8.362   8.882 -1.0859 -0.0056  0.2665
19277SOL     OW75822   7.500  10.979   5.500  0.1142  0.1282 -0.3318
19277SOL    HW175823   7.408  10.990   5.521 -0.1793 -0.1748 -1.4191
19277SOL    HW275824   7.514  10.884   5.506  0.5772  0.2414  0.6657
19278SOL     OW75825   4.535  10.168   4.862 -0.7672 -0.1442 -0.2978
19278SOL    HW175826   4.595  10.096   4.844  0.3068  0.8205 -0.7163
19278SOL    HW275827   4.450  10.138   4.829 -0.2740 -1.0638 -0.7707
19279SOL     OW75828   5.766  12.882  13.008  0.2000  0.5154  0.1602
19279SOL    HW175829   5.789  12.790  12.993  0.2211  0.4774  0.4270
19279SOL    HW275830   5.681  12.893  12.964 -1.0150 -0.2776  2.1980
19280SOL     OW75831   8.843   5.570   8.491  0.2702 -0.1080  0.2261
19280SOL    HW175832   8.858   5.661   8.467  2.7351 -0.6759 -0.7552
19280SOL    HW275833   8.926   5.542   8.530 -0.0427 -2.2310 -0.5321
19281SOL     OW75834   6.477   8.683   0.924 -0.1436 -0.2602 -0.4442
19281SOL    HW175835   6.547   8.619   0.918 -0.2111 -0.2237 -2.1136
19281SOL    HW275836   6.520   8.765   0.950  0.1327 -0.6695  0.4013
19282SOL     OW75837   8.698   9.849   7.717 -0.4603 -0.0803 -0.2676
19282SOL    HW175838   8.687   9.783   7.648 -3.4359 -0.1861  0.1906
19282SOL    HW275839   8.617   9.899   7.715 -0.3856  0.3065  2.7231
19283SOL     OW75840   5.450   5.540  12.375  0.5448 -0.2496  0.0966
19283SOL    HW175841   5.427   5.513  12.286  1.3689  0.7312 -0.4312
19283SOL    HW275842   5.536   5.503  12.390  0.0505 -1.1401  0.8306
19284SOL     OW75843   3.235   0.640   3.839  0.1986  0.0201  0.6211
19284SOL    HW175844   3.196   0.693   3.769  0.3801 -0.8852 -0.2009
19284SOL    HW275845   3.242   0.553   3.800  1.4446 -0.2226  1.3614
19285SOL     OW75846   1.208   7.761   7.631  0.0394 -0.2747 -0.6018
19285SOL    HW175847   1.181   7.774   7.540  0.3810 -0.7509 -0.7779
19285SOL    HW275848   1.245   7.672   7.632 -1.2571 -0.8325  0.3091
19286SOL     OW75849   4.760   9.593  11.200  0.0967  0.0521  0.2484
19286SOL    HW175850   4.804   9.510  11.216 -0.0706  0.2461  1.8733
19286SOL    HW275851   4.750   9.597  11.105  2.7814 -0.3948 -0.1240
19287SOL     OW75852   0.336  11.926   2.894 -0.2333  0.4425  0.1738
19287SOL    HW175853   0.400  11.932   2.965 -0.9739  1.6867  0.7759
19287SOL    HW275854   0.298  12.013   2.889 -1.3727 -0.0755 -0.6491
19288SOL     OW75855  11.017   6.119   0.329 -0.0127 -0.1993 -0.0799
19288SOL    HW175856  11.013   6.136   0.235 -1.5743  1.1019  0.1697
19288SOL    HW275857  11.060   6.196   0.365  1.0904 -0.9438  0.2500
19289SOL     OW75858  12.094  13.642  11.051 -0.3605 -0.5241 -0.5516
19289SOL    HW175859  12.000  13.639  11.069 -0.3934  2.3890  0.3339
19289SOL    HW275860  12.130  13.571  11.103 -2.0086 -1.3614 -0.4732
19290SOL     OW75861  11.621  13.303  11.591  0.2057  0.0596 -0.4931
19290SOL    HW175862  11.580  13.309  11.677 -0.5767  1.0735 -0.9175
19290SOL    HW275863  11.554  13.333  11.530  0.7053 -0.7575 -1.4765
19291SOL     OW75864  10.898   8.932   6.703 -0.1717 -0.3191  0.0665
19291SOL    HW175865  10.811   8.952   6.738  0.2632 -1.8884  2.2530
19291SOL    HW275866  10.899   8.837   6.692  0.7713 -0.1763 -1.4520
19292SOL     OW75867   6.949   9.642  14.102 -0.7095 -0.2513 -0.1168
19292SOL    HW175868   6.977   9.628  14.011  1.1276 -1.7206  0.6063
19292SOL    HW275869   6.856   9.617  14.102 -1.7228  2.9208 -2.2041
19293SOL     OW75870   7.005   8.149   0.896 -0.2327 -0.5661 -0.0541
19293SOL    HW175871   6.947   8.203   0.950  1.8448  0.2416  1.5146
19293SOL    HW275872   7.017   8.201   0.816 -0.0031  0.2708  0.5070
19294SOL     OW75873  13.811   4.927   2.692 -0.5252  0.1340 -0.2188
19294SOL    HW175874  13.901   4.905   2.716 -0.9144 -1.2931  0.0526
19294SOL    HW275875  13.757   4.884   2.758 -1.4494 -0.2074 -1.1646
19295SOL     OW75876   4.357   7.719  12.901 -0.5331 -0.4362  0.4386
19295SOL    HW175877   4.401   7.643  12.863  0.4381  0.7810 -1.0089
19295SOL    HW275878   4.269   7.718  12.864 -0.0784 -0.1150 -0.6844
19296SOL     OW75879   1.584  10.861  12.984 -0.6312 -0.1697  0.3963
19296SOL    HW175880   1.524  10.826  13.049 -0.6841  0.9752  0.9962
19296SOL    HW275881   1.530  10.917  12.928 -0.3065  0.0978  0.3416
19297SOL     OW75882   9.199   5.437   2.012  0.0346  0.2433 -0.4860
19297SOL    HW175883   9.114   5.393   2.021  0.2914 -0.4472 -1.3377
19297SOL    HW275884   9.183   5.510   1.953 -0.1644  0.7033  0.1192
19298SOL     OW75885  12.752  14.045  10.436  0.1752 -0.1726  0.3353
19298SOL    HW175886  12.760  14.138  10.457  2.8480 -0.2289 -0.1110
19298SOL    HW275887  12.840  14.009  10.451 -0.4087 -2.3317 -0.9136
19299SOL     OW75888   0.578   3.807  11.466  0.7282 -0.1131 -0.7183
19299SOL    HW175889   0.531   3.746  11.523 -1.7735  2.9279  0.7925
19299SOL    HW275890   0.665   3.814  11.505  1.1138 -2.5940 -0.9629
19300SOL     OW75891   2.978  12.191  10.413 -0.5243  0.2451 -0.3111
19300SOL    HW175892   3.044  12.256  10.390 -0.7941  0.8396  0.5729
19300SOL    HW275893   2.917  12.237  10.471 -1.7217 -0.2878 -1.0953
19301SOL     OW75894   7.076   2.821  11.736  0.0300  0.3883 -0.1915
19301SOL    HW175895   7.003   2.875  11.708 -1.1297 -0.2144  1.5431
19301SOL    HW275896   7.038   2.734  11.748  1.2451 -0.1658 -0.1823
19302SOL     OW75897   5.689  13.900  12.277  0.7791 -0.2920  0.4647
19302SOL    HW175898   5.743  13.958  12.224 -0.7787  0.9446  0.1879
19302SOL    HW275899   5.721  13.812  12.255  0.3792  0.1741 -2.3379
19303SOL     OW75900   9.521  11.235  12.946 -0.7514 -0.0902 -0.3447
19303SOL    HW175901   9.571  11.288  12.883 -0.5945  0.2421  0.0579
19303SOL    HW275902   9.431  11.237  12.912 -0.7188  0.3021 -0.4202
19304SOL     OW75903   5.428   8.672   2.435  0.6083  1.0165  0.4983
19304SOL    HW175904   5.352   8.719   2.471 -0.0315  0.2610  0.1820
19304SOL    HW275905   5.449   8.607   2.502 -0.2650 -0.0557 -0.2212
19305SOL     OW75906   7.255  13.442  11.405 -0.6429 -0.2445  0.2847
19305SOL    HW175907   7.234  13.438  11.498  1.3644 -0.0852  0.7807
19305SOL    HW275908   7.348  13.462  11.401 -1.3689  3.9662 -1.7621
19306SOL     OW75909   4.803   2.818  13.249 -0.2202  0.3445  0.0453
19306SOL    HW175910   4.759   2.797  13.166 -3.1820  0.8153  1.3797
19306SOL    HW275911   4.806   2.734  13.296 -2.1342  0.7716  0.9934
19307SOL     OW75912   1.361   9.143   6.974 -0.2165 -0.1295  0.1777
19307SOL    HW175913   1.325   9.077   7.034  0.3058 -0.3753  0.2302
19307SOL    HW275914   1.288   9.166   6.917 -0.6544 -0.0793  0.7431
19308SOL     OW75915   4.219   3.682   4.413 -0.5469 -0.4416 -0.7133
19308SOL    HW175916   4.178   3.626   4.479  1.1396 -1.8688 -0.8085
19308SOL    HW275917   4.192   3.644   4.329  0.6645 -1.2065 -0.7779
19309SOL     OW75918   5.845   9.460   7.770  0.1546 -0.5761 -0.0226
19309SOL    HW175919   5.781   9.512   7.820  3.7887  2.9276  1.5607
19309SOL    HW275920   5.875   9.394   7.832  0.3524 -0.1162  0.3819
19310SOL     OW75921   1.540  13.834   6.612 -0.3602  0.0628  0.4616
19310SOL    HW175922   1.600  13.785   6.556 -0.2347 -0.0250  0.6751
19310SOL    HW275923   1.458  13.786   6.607 -0.5299  0.3913 -0.1339
19311SOL     OW75924   3.609   7.523   4.677  0.6321  0.3983  0.2272
19311SOL    HW175925   3.635   7.475   4.598 -0.2153  1.6596 -0.8655
19311SOL    HW275926   3.684   7.514   4.736  1.5987  0.0425 -1.0087
19312SOL     OW75927   0.225  12.712   6.838 -0.1900 -0.0462 -0.4596
19312SOL    HW175928   0.154  12.774   6.819  1.2339  2.0177  0.6224
19312SOL    HW275929   0.263  12.692   6.752 -0.7171  0.5362 -0.8349
19313SOL     OW75930  10.574   1.796  10.584  0.2641 -0.2194  0.1300
19313SOL    HW175931  10.509   1.813  10.652  1.2954 -1.3088  1.4460
19313SOL    HW275932  10.658   1.814  10.626  0.8724  0.7853 -1.4147
19314SOL     OW75933   7.388   4.200   7.351  0.5703 -0.7075 -0.7034
19314SOL    HW175934   7.377   4.108   7.325  0.8770 -0.6480 -1.0525
19314SOL    HW275935   7.433   4.240   7.278 -0.7281  0.0373 -1.1207
19315SOL     OW75936   0.150   8.605   9.169 -0.4173 -0.3180 -0.3529
19315SOL    HW175937   0.078   8.667   9.185  0.4578  0.9377 -1.1762
19315SOL    HW275938   0.161   8.560   9.253  0.5361  2.3589  1.0566
19316SOL     OW75939   9.911   4.982  11.160 -0.4739 -0.1121  0.5510
19316SOL    HW175940  10.007   4.989  11.159 -0.4662 -0.1593 -0.9767
19316SOL    HW275941   9.894   4.900  11.206  0.1807  0.2866  1.5420
19317SOL     OW75942   3.838  10.047   6.213 -0.2538  0.0970  0.3941
19317SOL    HW175943   3.914  10.103   6.198  0.0508  0.1977  2.1896
19317SOL    HW275944   3.832  10.038   6.308 -1.8890 -0.7406  0.2523
19318SOL     OW75945  14.009  11.392  10.643  0.4649  0.2620 -0.4419
19318SOL    HW175946  14.096  11.355  10.631  0.2539 -0.7724  0.9618
19318SOL    HW275947  13.957  11.321  10.681 -0.5403  1.3529  0.3230
19319SOL     OW75948   8.282  11.301   9.659 -0.4843  0.3960  0.6995
19319SOL    HW175949   8.354  11.357   9.687 -0.2304 -0.0257  0.9039
19319SOL    HW275950   8.303  11.215   9.695  0.3282 -0.4114 -1.5365
19320SOL     OW75951  11.174   5.366   4.113  0.1571  0.4935 -0.2964
19320SOL    HW175952  11.110   5.385   4.180 -0.2007 -1.6554  0.0616
19320SOL    HW275953  11.245   5.429   4.128 -0.3388  0.6805  1.4852
19321SOL     OW75954   8.777  13.122   6.689  0.0358 -0.0053  0.7349
19321SOL    HW175955   8.766  13.066   6.612  0.1811 -1.3310  1.6469
19321SOL    HW275956   8.868  13.107   6.717 -0.1459  0.1143  1.4138
19322SOL     OW75957   3.808   7.484   6.649 -0.3769  0.4416  0.1162
19322SOL    HW175958   3.796   7.466   6.556 -1.7632  0.2643  0.3057
19322SOL    HW275959   3.868   7.559   6.652 -0.5103  0.6007 -0.9189
19323SOL     OW75960   5.104   2.137   2.870  0.0791  0.1390 -0.2436
19323SOL    HW175961   5.056   2.176   2.796  0.7406 -0.0755 -0.7980
19323SOL    HW275962   5.100   2.204   2.939 -1.7867 -0.2280  0.0613
19324SOL     OW75963   9.345   4.580  12.825 -0.2013 -0.3633 -0.5773
19324SOL    HW175964   9.362   4.556  12.916 -0.6405  0.0490 -0.3879
19324SOL    HW275965   9.304   4.666  12.829  1.9260  0.7619 -1.2892
19325SOL     OW75966  12.388  13.846   9.273  0.0223 -0.8084  0.3909
19325SOL    HW175967  12.438  13.928   9.273  1.3368 -1.5510 -0.6641
19325SOL    HW275968  12.300  13.871   9.299  0.3627  0.9625 -0.0276
19326SOL     OW75969  11.145   1.894  11.586  0.3058 -0.0238  0.3515
19326SOL    HW175970  11.117   1.977  11.625 -2.4163 -0.3613 -0.6428
19326SOL    HW275971  11.218   1.865  11.640 -0.3459  1.7366  2.3205
19327SOL     OW75972  11.446  11.016   6.858 -0.8282 -0.6828 -0.3529
19327SOL    HW175973  11.539  11.007   6.836 -1.0185  0.5848 -1.8427
19327SOL    HW275974  11.440  11.095   6.910 -1.2098 -0.0186 -1.3708
19328SOL     OW75975   0.626   1.011   8.293  0.2375  0.3755 -0.0518
19328SOL    HW175976   0.548   1.059   8.263 -0.2036  0.0591  0.5468
19328SOL    HW275977   0.590   0.940   8.347  0.8567 -0.9730 -1.3619
19329SOL     OW75978  12.116   3.690  10.917  0.3174  0.4831  0.0117
19329SOL    HW175979  12.064   3.638  10.978 -1.4339 -0.9830 -2.5398
19329SOL    HW275980  12.179   3.736  10.972 -0.3344 -1.6633  2.7607
19330SOL     OW75981  13.522   5.108  13.144 -0.3095 -0.2326 -0.5142
19330SOL    HW175982  13.574   5.028  13.137 -1.5959 -1.0188 -1.6520
19330SOL    HW275983  13.431   5.078  13.135 -0.9137  1.2137  0.3349
19331SOL     OW75984  14.047  10.312   3.636  0.0499 -0.2829  0.0699
19331SOL    HW175985  14.055  10.350   3.549  0.9010  0.7135  0.5617
19331SOL    HW275986  14.133  10.274   3.654  0.1315  0.2218  0.7894
19332SOL     OW75987  12.376  11.920   1.441  0.1434 -0.2952 -0.4913
19332SOL    HW175988  12.404  11.942   1.530 -1.6252 -0.5190  0.1666
19332SOL    HW275989  12.379  11.824   1.438  0.5914 -0.2752 -0.8285
19333SOL     OW75990  14.045   8.609   5.405  0.4864  0.4010  0.4735
19333SOL    HW175991  14.130   8.586   5.366 -0.1697 -2.1195  0.3584
19333SOL    HW275992  14.058   8.597   5.499  0.1147 -0.6853  0.4048
19334SOL     OW75993   1.048   0.991  10.018  0.0421  0.8957  0.4024
19334SOL    HW175994   0.966   0.954   9.987 -0.1220  1.4925  0.1205
19334SOL    HW275995   1.032   1.086  10.023  1.4288  1.3361 -1.9515
19335SOL     OW75996   6.530   0.198   6.523  0.1572 -0.3008 -0.1494
19335SOL    HW175997   6.624   0.184   6.516  0.3310  0.3806  0.6033
19335SOL    HW275998   6.504   0.232   6.438  0.5391 -0.7518 -0.4491
19336SOL     OW75999  13.334   5.139   5.001 -0.0141 -0.1112 -0.1445
19336SOL    HW176000  13.279   5.217   4.990 -1.2769 -0.9999 -0.3754
19336SOL    HW276001  13.397   5.163   5.069 -1.4504  0.5608  0.9989
19337SOL     OW76002   9.440   5.187   2.626  0.5897  0.0309  0.6922
19337SOL    HW176003   9.459   5.238   2.704 -1.4584  0.4936  0.9588
19337SOL    HW276004   9.344   5.178   2.627  0.5592 -0.3466 -1.5073
19338SOL     OW76005   3.911   5.981  10.398 -0.3118  0.4973 -0.1601
19338SOL    HW176006   3.835   6.016  10.445  0.5083 -0.4567  2.0178
19338SOL    HW276007   3.962   6.059  10.373  0.9826  1.1216  3.7197
19339SOL     OW76008   2.878   6.067   1.396 -0.5456  0.2726 -0.0592
19339SOL    HW176009   2.964   6.104   1.414 -1.2174  1.9032  0.0236
19339SOL    HW276010   2.860   6.092   1.305 -1.3967  0.9631  0.2833
19340SOL     OW76011   5.523   2.039  12.849 -0.0309  0.1580 -0.5242
19340SOL    HW176012   5.500   1.946  12.845 -2.2723  0.6011  0.2830
19340SOL    HW276013   5.619   2.041  12.843  0.0362 -2.1481 -1.0564
19341SOL     OW76014   4.001  12.080   1.210  0.2060  0.0733 -0.3918
19341SOL    HW176015   4.050  12.161   1.199 -0.8810  0.6407 -1.2928
19341SOL    HW276016   4.068  12.011   1.214  1.4423  1.2110  4.1740
19342SOL     OW76017   6.722  13.335   5.994  0.1796 -0.4147  0.0276
19342SOL    HW176018   6.663  13.404   6.023 -0.2785 -0.8718  0.2096
19342SOL    HW276019   6.673  13.254   6.009  0.5314 -0.7499 -0.6004
19343SOL     OW76020  12.760   1.973   5.677  0.0818  0.5395 -0.3406
19343SOL    HW176021  12.707   1.987   5.755 -1.0293 -1.3531 -0.6951
19343SOL    HW276022  12.706   1.918   5.620  2.0616 -0.7492 -1.0950
19344SOL     OW76023   7.109   5.128  10.961  0.1231  0.4179  0.4581
19344SOL    HW176024   7.127   5.116  11.054 -0.7117  1.3090  0.7614
19344SOL    HW276025   7.060   5.211  10.957 -1.8977 -0.7312 -0.4910
19345SOL     OW76026   1.047  13.165   4.593  0.4134  0.5172  0.4275
19345SOL    HW176027   0.975  13.176   4.655  0.2875 -1.6618  0.7496
19345SOL    HW276028   1.005  13.143   4.510  0.6809  0.0549  0.4109
19346SOL     OW76029   7.651   0.269   0.568 -0.0160  0.3825 -0.1696
19346SOL    HW176030   7.626   0.293   0.657 -2.0407 -0.9077 -0.3405
19346SOL    HW276031   7.654   0.353   0.521  0.2597  0.9902  0.9103
19347SOL     OW76032   6.886   9.401   9.766 -0.4405 -0.1375 -0.0134
19347SOL    HW176033   6.893   9.394   9.861  0.5915 -0.0700 -0.0653
19347SOL    HW276034   6.934   9.325   9.733  2.4523  1.6927 -0.4808
19348SOL     OW76035  12.635   5.805  13.301  0.0958 -0.2552  0.1614
19348SOL    HW176036  12.665   5.875  13.242  1.4505 -0.0264  1.0843
19348SOL    HW276037  12.606   5.851  13.379 -1.0798 -0.6029 -0.0574
19349SOL     OW76038  10.244   5.796   0.548  0.1988 -0.4853 -0.3031
19349SOL    HW176039  10.150   5.794   0.531 -0.2765 -0.1253  1.9697
19349SOL    HW276040  10.284   5.808   0.461 -1.7045 -2.5449 -1.5528
19350SOL     OW76041   8.640   7.675  12.283  0.5093  0.2977 -0.2855
19350SOL    HW176042   8.631   7.735  12.209  0.1928 -1.4078 -1.7016
19350SOL    HW276043   8.670   7.730  12.355 -1.7338  2.5280 -0.9221
19351SOL     OW76044   9.482   8.638   0.168 -0.6310  0.2613  0.8969
19351SOL    HW176045   9.388   8.634   0.184 -1.1734  0.6249 -1.7117
19351SOL    HW276046   9.510   8.546   0.168 -1.7715 -0.1846 -1.8995
19352SOL     OW76047  13.672   4.640   0.439  0.6125 -0.1769 -0.1677
19352SOL    HW176048  13.592   4.604   0.402  0.9268 -0.7234 -0.3314
19352SOL    HW276049  13.658   4.636   0.534 -0.5318  2.0094 -0.1900
19353SOL     OW76050  10.651  13.118   8.497  0.1023 -0.2529 -0.4823
19353SOL    HW176051  10.694  13.118   8.411  0.6759 -0.7143 -0.2023
19353SOL    HW276052  10.569  13.164   8.482  1.2226  1.7756 -0.7565
19354SOL     OW76053   3.782  10.110  12.683 -0.2342  0.0446  0.1142
19354SOL    HW176054   3.834  10.045  12.728  0.5621  0.6849  0.1470
19354SOL    HW276055   3.789  10.086  12.590  0.9631  0.6789  0.0111
19355SOL     OW76056   2.471   3.004   1.283  0.2947 -0.0081 -0.1340
19355SOL    HW176057   2.383   3.009   1.320  0.7372  1.3251  0.8145
19355SOL    HW276058   2.529   3.007   1.359  1.1865 -0.0052 -0.7975
19356SOL     OW76059   6.710   9.062  13.149 -0.3774  0.0950 -0.4526
19356SOL    HW176060   6.765   8.984  13.148 -0.0341  0.3213  0.1722
19356SOL    HW276061   6.767   9.132  13.119 -0.7236  0.0945 -1.1453
19357SOL     OW76062   1.597   4.526   7.516  0.3428  0.1257  0.1599
19357SOL    HW176063   1.598   4.452   7.577 -1.2918  1.0348  1.3477
19357SOL    HW276064   1.679   4.572   7.532  1.4746 -1.4521 -0.7124
19358SOL     OW76065  12.366  12.493  12.350 -0.2269 -0.1813 -0.5576
19358SOL    HW176066  12.296  12.431  12.328 -0.1313 -0.5439  0.1285
19358SOL    HW276067  12.365  12.497  12.446  1.9400 -1.7081 -0.3846
19359SOL     OW76068   2.459   2.784  13.364 -0.0166  0.5833 -0.4247
19359SOL    HW176069   2.400   2.806  13.291  0.0920  1.6425 -0.2092
19359SOL    HW276070   2.444   2.853  13.429 -0.0674 -0.3147  0.5409
19360SOL     OW76071   0.377  10.580   6.419  0.2152  0.0402 -0.6021
19360SOL    HW176072   0.283  10.564   6.425  0.4894 -1.2549  1.2581
19360SOL    HW276073   0.396  10.576   6.326 -1.7613  1.6873 -1.1517
19361SOL     OW76074   6.657  12.683  11.690 -0.3806 -0.0587 -0.1397
19361SOL    HW176075   6.566  12.713  11.693 -0.6349 -0.8278 -0.1266
19361SOL    HW276076   6.704  12.754  11.647 -0.8646  0.6528  0.4710
19362SOL     OW76077   6.237  10.930  12.978 -0.0949  0.4560  0.1484
19362SOL    HW176078   6.184  10.995  12.934 -0.6881  0.2883  0.6082
19362SOL    HW276079   6.201  10.846  12.949 -0.9996  0.3432  1.5408
19363SOL     OW76080  11.622   4.396  11.350 -0.5976  0.6376  0.2795
19363SOL    HW176081  11.616   4.324  11.287 -0.7131  0.8835  0.0067
19363SOL    HW276082  11.565   4.370  11.423  0.3071 -0.1030  0.7398
19364SOL     OW76083   1.319   3.788  12.151  0.0381  0.3507 -0.2404
19364SOL    HW176084   1.300   3.720  12.086  0.5908  0.3020 -0.3607
19364SOL    HW276085   1.357   3.740  12.225  1.1110  0.6034 -0.6190
19365SOL     OW76086   3.579  12.693   6.589  0.0871 -0.2370 -0.3213
19365SOL    HW176087   3.662  12.671   6.547 -0.1837 -1.0864 -0.4471
19365SOL    HW276088   3.602  12.757   6.657  0.9855 -1.1154  0.2325
19366SOL     OW76089   2.968  11.106  12.865  0.5194 -0.2279  0.2196
19366SOL    HW176090   3.020  11.118  12.946 -1.7676 -0.0488  1.7474
19366SOL    HW276091   2.922  11.023  12.878 -1.5482  0.8413  0.1314
19367SOL     OW76092  13.496  14.006   1.905 -0.6232 -0.4133  0.4930
19367SOL    HW176093  13.414  13.958   1.919 -0.2764 -1.0337  0.4272
19367SOL    HW276094  13.482  14.090   1.948 -1.6516 -0.1412 -0.3211
19368SOL     OW76095   2.538   2.564   4.679  0.2154  0.3249 -0.2833
19368SOL    HW176096   2.536   2.491   4.618  2.1115  0.1836 -0.2500
19368SOL    HW276097   2.484   2.535   4.752  0.7321 -0.9742 -0.3742
19369SOL     OW76098   0.534   2.079   5.292  0.0440 -0.5302 -0.6142
19369SOL    HW176099   0.531   2.091   5.197 -1.7339 -2.2390 -0.8396
19369SOL    HW276100   0.445   2.097   5.321  1.1889  3.2165  1.2879
19370SOL     OW76101   4.150  14.089   4.379  0.2533 -0.2482 -0.4371
19370SOL    HW176102   4.161  14.016   4.439  0.3409 -1.4068 -1.8096
19370SOL    HW276103   4.103  14.155   4.430  1.4151 -0.6721  1.2659
19371SOL     OW76104  13.057   8.623   9.867 -0.3423  0.0721 -0.0219
19371SOL    HW176105  13.007   8.583   9.795  1.8481 -0.2381 -1.4846
19371SOL    HW276106  13.127   8.560   9.885  0.3125  1.0629  1.0045
19372SOL     OW76107  11.589   9.782  13.722  0.1130 -0.2488 -0.2117
19372SOL    HW176108  11.611   9.794  13.630  0.9852  5.2892  0.3661
19372SOL    HW276109  11.495   9.797  13.728  0.0312 -0.7429 -0.1599
19373SOL     OW76110   3.964   7.729   6.209 -0.3943  0.0386  0.5442
19373SOL    HW176111   4.008   7.670   6.270 -0.0088  0.3931  0.6147
19373SOL    HW276112   3.897   7.773   6.262  0.7145  1.2176  1.0249
19374SOL     OW76113  12.915  11.259   0.168 -0.5982  0.0282  0.5322
19374SOL    HW176114  12.907  11.180   0.221  0.3548  0.0335  0.7161
19374SOL    HW276115  12.842  11.255   0.107 -0.7771 -0.8017  0.7853
19375SOL     OW76116  10.976  13.894  10.486  0.1931 -0.1706 -0.0817
19375SOL    HW176117  10.944  13.884  10.397 -0.0753  0.1247 -0.0208
19375SOL    HW276118  10.898  13.917  10.537  0.5494  0.9101  0.0014
19376SOL     OW76119  10.633   8.463   4.248  0.2573 -0.0613  0.1781
19376SOL    HW176120  10.619   8.517   4.325 -3.6916 -0.1713 -0.2626
19376SOL    HW276121  10.658   8.377   4.283  2.1223  0.7891  1.0690
19377SOL     OW76122   3.909   2.746   6.259  0.6343  0.1761  0.3998
19377SOL    HW176123   3.835   2.766   6.202  0.6890 -0.4149  0.1103
19377SOL    HW276124   3.872   2.745   6.347  0.6262  1.4710  0.4181
19378SOL     OW76125  12.136  13.829   8.224  0.1445 -0.2994 -0.1805
19378SOL    HW176126  12.063  13.767   8.219  0.4998 -0.6096 -2.2952
19378SOL    HW276127  12.098  13.913   8.202 -0.1058  0.0923  1.5787
19379SOL     OW76128   7.781   4.597  11.730 -0.4200 -0.0566  0.2406
19379SOL    HW176129   7.820   4.599  11.817 -2.2284  1.6524  1.0758
19379SOL    HW276130   7.755   4.687  11.712  1.1920 -0.0335 -2.7431
19380SOL     OW76131   1.981  13.571   3.983  0.2269 -0.5139 -0.4405
19380SOL    HW176132   1.948  13.622   3.909 -1.1075  1.5090  1.3972
19380SOL    HW276133   2.045  13.628   4.025  1.2098 -1.7571 -0.1959
19381SOL     OW76134  10.754   3.175   8.625  0.2775 -0.0485 -0.5977
19381SOL    HW176135  10.767   3.263   8.591  1.6002 -0.2548 -0.6913
19381SOL    HW276136  10.800   3.175   8.709  1.0111 -0.8863 -0.9857
19382SOL     OW76137   8.124   2.119   5.500 -0.2950 -0.1073 -0.2479
19382SOL    HW176138   8.163   2.171   5.570 -0.8711 -0.7832  0.6055
19382SOL    HW276139   8.194   2.060   5.472 -0.2206 -0.2120  0.1494
19383SOL     OW76140   7.790   8.840  12.007  0.1370  0.0983  0.2955
19383SOL    HW176141   7.798   8.933  12.030  1.0244 -0.0520  0.6507
19383SOL    HW276142   7.758   8.841  11.917  1.6841  0.8013 -0.2946
19384SOL     OW76143   1.840   4.807  11.262  0.0997 -0.6173 -0.1071
19384SOL    HW176144   1.826   4.891  11.219  1.4367 -0.6406 -0.6155
19384SOL    HW276145   1.752   4.769  11.270 -0.5665  0.9439  0.4096
19385SOL     OW76146   9.453   2.291   6.367  0.2221 -0.3295  0.4081
19385SOL    HW176147   9.462   2.298   6.272  1.2356 -0.8332  0.4493
19385SOL    HW276148   9.435   2.198   6.382 -0.2809 -0.1892  0.6938
19386SOL     OW76149   6.535   7.321  11.578 -0.8437  0.1944  0.1052
19386SOL    HW176150   6.475   7.386  11.616 -0.3138  0.9603 -0.3236
19386SOL    HW276151   6.490   7.291  11.499 -1.5555 -0.7546  0.8444
19387SOL     OW76152   4.341  12.129   4.294  0.3881 -0.0658  0.3250
19387SOL    HW176153   4.340  12.077   4.213 -0.5987 -0.8751  0.8397
19387SOL    HW276154   4.378  12.070   4.360  0.5048  0.3419  0.6283
19388SOL     OW76155   5.233  12.109   5.800  0.2998  0.6404  0.3608
19388SOL    HW176156   5.205  12.086   5.712 -0.3096 -0.5517  0.8413
19388SOL    HW276157   5.239  12.205   5.800 -0.0988  0.6734 -0.8430
19389SOL     OW76158  11.264   8.395   6.421 -0.4242  0.1238 -0.1140
19389SOL    HW176159  11.359   8.392   6.410 -0.1238 -2.9509  2.0404
19389SOL    HW276160  11.229   8.369   6.336  0.6067  1.0282 -0.8535
19390SOL     OW76161   4.096   9.034   1.302  0.4629 -0.2535 -0.0606
19390SOL    HW176162   4.050   9.103   1.254  0.9892  1.4738  1.7627
19390SOL    HW276163   4.028   8.993   1.355 -0.2211 -2.5118 -2.4958
19391SOL     OW76164  13.834   7.991   3.380 -0.2254  0.4520 -0.6097
19391SOL    HW176165  13.759   8.004   3.437  0.5880 -1.9985  1.1735
19391SOL    HW276166  13.908   8.029   3.427  0.0507  0.7568 -1.2711
19392SOL     OW76167  11.722   2.014   0.550 -0.0500 -0.3760  0.2658
19392SOL    HW176168  11.745   1.969   0.469 -0.0169  0.9808 -0.5063
19392SOL    HW276169  11.800   2.065   0.571 -0.5089  0.2489  0.4658
19393SOL     OW76170   9.089  12.723   4.425 -0.0285 -0.0442  0.3618
19393SOL    HW176171   8.994  12.735   4.425 -0.0413 -0.1469  0.2962
19393SOL    HW276172   9.123  12.802   4.384 -0.0008  0.6410  1.6599
19394SOL     OW76173  12.995   1.115   2.144  0.3707 -0.1354  0.3934
19394SOL    HW176174  13.016   1.205   2.169  0.2385 -0.7912  3.2304
19394SOL    HW276175  12.907   1.101   2.177  0.6716 -1.5294  0.6627
19395SOL     OW76176   1.637   3.836  10.879  0.4629  0.0523  0.3809
19395SOL    HW176177   1.619   3.876  10.794 -1.2686 -1.7156 -0.1578
19395SOL    HW276178   1.627   3.907  10.942 -2.7884  0.5298 -0.5017
19396SOL     OW76179  11.311  11.760  12.713 -0.6178 -0.6810  0.2924
19396SOL    HW176180  11.351  11.759  12.626 -1.4220  0.1502 -0.1025
19396SOL    HW276181  11.293  11.669  12.733  2.7394 -1.2975  1.0973
19397SOL     OW76182   6.889   5.366   2.349 -0.1909  0.2924 -0.1130
19397SOL    HW176183   6.920   5.289   2.397  1.5845  1.1105  0.1418
19397SOL    HW276184   6.797   5.347   2.330 -0.4221 -0.9070  1.9040
19398SOL     OW76185  11.778  12.142   6.089 -0.1535  0.0069  0.0503
19398SOL    HW176186  11.773  12.195   6.169 -1.6996 -1.5186  1.0495
19398SOL    HW276187  11.716  12.185   6.029 -0.8172 -0.1924  0.5722
19399SOL     OW76188   2.849  12.372  10.820  0.2527 -0.3040 -0.1753
19399SOL    HW176189   2.900  12.410  10.748  0.6713 -1.7128 -0.6563
19399SOL    HW276190   2.760  12.367  10.786  0.8059 -2.9717 -1.5193
19400SOL     OW76191  12.269   6.253  12.313  0.2311 -0.1538 -0.2534
19400SOL    HW176192  12.325   6.327  12.289  0.6019  0.2763  1.7331
19400SOL    HW276193  12.255   6.205  12.231 -0.8911  2.6491 -1.8510
19401SOL     OW76194  12.044  14.022   6.368 -0.2192  0.5805  0.3380
19401SOL    HW176195  12.031  14.040   6.461 -1.5470 -1.4276  0.6104
19401SOL    HW276196  12.019  14.103   6.324 -1.3513  0.9821  1.6469
19402SOL     OW76197   5.517   3.867   3.280  0.0075 -0.4408  0.0672
19402SOL    HW176198   5.558   3.940   3.232 -3.2848  1.0452 -0.7462
19402SOL    HW276199   5.539   3.789   3.229  1.3421  0.3258 -0.5937
19403SOL     OW76200  14.131  12.387   1.563  0.4140 -1.1564 -0.6838
19403SOL    HW176201  14.183  12.332   1.505  0.9532 -1.9806  0.5463
19403SOL    HW276202  14.194  12.447   1.604 -0.2969  1.3161 -2.8897
19404SOL     OW76203  11.300   9.752  13.686  0.6929 -0.1000 -0.0355
19404SOL    HW176204  11.285   9.844  13.706  0.2028  0.0456 -1.0192
19404SOL    HW276205  11.300   9.747  13.590  1.4581 -1.0078 -0.0114
19405SOL     OW76206   4.596   1.392   7.250  0.1468 -0.1434  0.0733
19405SOL    HW176207   4.677   1.383   7.198  0.0837 -1.2762  0.1354
19405SOL    HW276208   4.620   1.359   7.336 -0.4842 -0.8844 -0.0227
19406SOL     OW76209   4.236   9.177   5.742  0.1880 -0.4347  0.0958
19406SOL    HW176210   4.171   9.221   5.797 -0.9076 -1.7271 -0.1236
19406SOL    HW276211   4.242   9.232   5.664  2.0080  1.6034  1.5571
19407SOL     OW76212   8.109   8.592  12.226  0.0530 -0.4467 -0.1379
19407SOL    HW176213   8.189   8.626  12.187 -0.9282  0.9536 -1.0058
19407SOL    HW276214   8.110   8.625  12.316  0.6955 -0.9109  0.0377
19408SOL     OW76215  11.877  10.873  13.669  0.0326 -0.0391  0.3045
19408SOL    HW176216  11.822  10.950  13.655  2.0499  1.7364  1.6012
19408SOL    HW276217  11.815  10.801  13.681 -1.9785  1.7244  1.0530
19409SOL     OW76218   3.778   5.495   8.448 -0.8448 -0.1812 -0.2445
19409SOL    HW176219   3.687   5.464   8.451 -0.9015 -0.1064 -1.1192
19409SOL    HW276220   3.770   5.589   8.430 -0.7620  0.8464  3.9722
19410SOL     OW76221   8.986   4.245  13.922 -0.3296 -0.0888  0.0486
19410SOL    HW176222   8.919   4.265  13.857 -0.7638 -0.3271  0.4152
19410SOL    HW276223   9.018   4.330  13.950  1.0554  0.0079 -1.6748
19411SOL     OW76224  12.781  11.154   3.307  0.3309 -0.5543  0.4946
19411SOL    HW176225  12.754  11.072   3.347  1.1270 -0.7596  0.6385
19411SOL    HW276226  12.870  11.168   3.340  1.0206 -0.7278 -1.1742
19412SOL     OW76227   0.698   9.997  12.022  0.4999 -0.4832  0.4622
19412SOL    HW176228   0.701   9.971  11.930  0.6969  1.2379 -0.0542
19412SOL    HW276229   0.773  10.056  12.033 -0.2491  0.3350  1.3980
19413SOL     OW76230   0.026   2.349   9.204  0.2544 -0.0160 -0.0326
19413SOL    HW176231   0.077   2.318   9.129 -0.3091  0.1218 -0.4769
19413SOL    HW276232  -0.063   2.360   9.170 -0.0291 -0.0488  0.6811
19414SOL     OW76233   2.346  13.217  10.716 -0.6637  0.0567 -0.6119
19414SOL    HW176234   2.303  13.156  10.777  0.8849 -1.9559 -1.4127
19414SOL    HW276235   2.273  13.261  10.671 -1.8793  1.8412  2.7468
19415SOL     OW76236   6.061   5.894   2.178  0.2284 -0.1369 -0.4625
19415SOL    HW176237   6.047   5.954   2.251  0.3391 -0.0697 -0.4965
19415SOL    HW276238   5.976   5.889   2.135  0.0907 -0.4025 -0.1590
19416SOL     OW76239   1.463  12.001   6.233  0.4132 -0.6609  0.3448
19416SOL    HW176240   1.548  11.977   6.196  1.1130 -1.9997  2.5997
19416SOL    HW276241   1.474  12.092   6.262  1.1145 -0.8483  0.6881
19417SOL     OW76242   2.628   2.930  10.985  0.2546  0.6632 -0.5716
19417SOL    HW176243   2.717   2.899  10.999  0.6052  1.6470 -0.5187
19417SOL    HW276244   2.603   2.969  11.068  1.2135  3.7894 -1.5894
19418SOL     OW76245   3.216  13.706   9.847  0.1131  0.1081  0.1925
19418SOL    HW176246   3.135  13.703   9.797  0.4285 -0.2284 -0.3133
19418SOL    HW276247   3.213  13.627   9.902  0.5195 -0.4162 -0.5161
19419SOL     OW76248   4.260   6.510   4.978 -0.0285 -0.1604 -0.1482
19419SOL    HW176249   4.235   6.423   5.010 -0.3881 -0.8098 -2.0562
19419SOL    HW276250   4.354   6.517   4.997 -0.0610 -0.8577  0.2801
19420SOL     OW76251  13.354   1.219   7.803  0.6121  0.3480 -0.3247
19420SOL    HW176252  13.381   1.311   7.799 -0.4058  0.6899  0.3019
19420SOL    HW276253  13.434   1.172   7.827  0.9602  1.1822  0.2236
19421SOL     OW76254   6.761   7.066  12.439 -0.7141  0.0585 -0.0401
19421SOL    HW176255   6.748   7.134  12.373  1.4354  0.5049 -0.0944
19421SOL    HW276256   6.737   6.984  12.396 -1.2855  0.5598 -0.6841
19422SOL     OW76257  14.107  13.025   0.099  0.1113 -0.0832 -0.5145
19422SOL    HW176258  14.140  13.079   0.171  0.8697  1.7670 -2.1638
19422SOL    HW276259  14.030  13.072   0.067  0.2593 -0.4446 -1.4233
19423SOL     OW76260   7.749   8.487   4.627  0.2755 -0.1763  0.5207
19423SOL    HW176261   7.748   8.430   4.704  0.7361  1.2590  1.6253
19423SOL    HW276262   7.681   8.551   4.644  0.6324  0.3811 -0.1104
19424SOL     OW76263   7.829  12.083  13.593  0.1755 -0.0685 -0.1025
19424SOL    HW176264   7.805  12.040  13.511  1.7259  0.0111 -0.6272
19424SOL    HW276265   7.815  12.016  13.660 -0.3135 -0.3977 -0.5228
19425SOL     OW76266   9.137   6.347   7.763 -0.1416  0.4370  0.3544
19425SOL    HW176267   9.061   6.339   7.705 -1.3668 -0.1765  1.9485
19425SOL    HW276268   9.159   6.440   7.762 -2.3165  1.0414  1.4820
19426SOL     OW76269  11.940  12.341   2.417  0.2851 -0.2594  0.4861
19426SOL    HW176270  11.997  12.265   2.411  0.0392 -0.4417  0.4915
19426SOL    HW276271  11.862  12.310   2.463 -0.1980 -0.2298 -0.2918
19427SOL     OW76272  11.294  10.276   9.885  0.0739  0.3749 -0.5487
19427SOL    HW176273  11.295  10.366   9.915 -0.7064  0.4418 -0.6898
19427SOL    HW276274  11.236  10.231   9.946  1.3246 -0.2864  0.1873
19428SOL     OW76275  10.417   4.473   2.067  0.3482 -0.1040  0.1636
19428SOL    HW176276  10.335   4.425   2.058  1.0764 -1.1488 -1.6320
19428SOL    HW276277  10.392   4.559   2.098 -1.1713 -1.1292  1.9501
19429SOL     OW76278   5.521  13.777   9.603 -1.0996 -0.0802 -0.0622
19429SOL    HW176279   5.435  13.749   9.635 -1.0900  0.9696  0.9591
19429SOL    HW276280   5.518  13.873   9.604 -0.3651 -0.0147 -1.3006
19430SOL     OW76281   9.466   7.110  13.757 -0.0584 -0.1437 -0.4301
19430SOL    HW176282   9.469   7.055  13.835 -1.1368 -0.0850 -0.3379
19430SOL    HW276283   9.491   7.051  13.685  0.0563 -0.4239 -0.1624
19431SOL     OW76284  10.432   6.756   5.700 -0.2486  0.1351  0.4764
19431SOL    HW176285  10.443   6.699   5.625  1.4544 -0.5168  1.1718
19431SOL    HW276286  10.404   6.698   5.771  0.1710  0.3909  0.8556
19432SOL     OW76287   4.113   2.357   4.557  0.1853  0.0844 -0.5021
19432SOL    HW176288   4.158   2.275   4.536  1.3918  0.5000  0.3706
19432SOL    HW276289   4.057   2.334   4.632 -0.2839 -0.1922 -0.9360
19433SOL     OW76290   0.118   8.197   9.294  0.4682  0.9604  0.3594
19433SOL    HW176291   0.098   8.225   9.205 -0.0749 -1.5709 -0.3656
19433SOL    HW276292   0.207   8.162   9.289  0.0109 -0.2612  0.5229
19434SOL     OW76293   2.971   9.259  12.773 -0.0447  0.1966 -0.0178
19434SOL    HW176294   2.903   9.294  12.716 -1.9998  0.4001  2.3169
19434SOL    HW276295   2.997   9.332  12.829  0.0974 -0.5782  0.9613
19435SOL     OW76296   2.340  13.320   4.097  0.1348  0.0758  0.0286
19435SOL    HW176297   2.349  13.277   4.183 -0.0928 -0.1931 -0.0796
19435SOL    HW276298   2.247  13.313   4.077  0.5429 -2.3675 -1.5104
19436SOL     OW76299  11.135   7.392  12.511  0.8944  0.1702  0.9763
19436SOL    HW176300  11.169   7.310  12.475  0.2097  0.4752 -0.4168
19436SOL    HW276301  11.105   7.441  12.435 -4.0286 -0.6129  2.0753
19437SOL     OW76302   4.347  10.409   6.444  0.2273  0.2697 -0.2830
19437SOL    HW176303   4.303  10.476   6.392  1.5825  1.0598 -0.4725
19437SOL    HW276304   4.408  10.459   6.499 -0.2841 -0.6492  1.1654
19438SOL     OW76305  11.763   2.170   9.034 -1.5306  0.2414  0.2853
19438SOL    HW176306  11.683   2.122   9.011 -0.9103 -0.7584  0.1646
19438SOL    HW276307  11.826   2.102   9.057 -0.7221  1.0196  0.4206
19439SOL     OW76308   2.017   9.413   4.606 -0.3087 -0.6796  0.0278
19439SOL    HW176309   2.044   9.428   4.516 -1.5793  1.2055 -0.1136
19439SOL    HW276310   1.939   9.358   4.600 -0.6702 -0.1680 -0.0877
19440SOL     OW76311   9.187   8.170  10.287  0.1821  0.2939  0.6926
19440SOL    HW176312   9.136   8.235  10.336  1.4305  1.7530  0.1277
19440SOL    HW276313   9.277   8.201  10.293  0.5357 -0.1580 -1.4597
19441SOL     OW76314  10.275  12.448   0.047 -0.1295  0.5110 -0.4699
19441SOL    HW176315  10.190  12.446   0.002  0.0867 -0.4249 -0.8548
19441SOL    HW276316  10.326  12.513  -0.001 -1.2521  2.5814  0.9635
19442SOL     OW76317  10.604   5.173   1.982  0.3292  0.2864  0.0343
19442SOL    HW176318  10.537   5.126   1.932 -0.5002  0.5482  0.8723
19442SOL    HW276319  10.598   5.263   1.951 -2.7597  1.3215  3.0536
19443SOL     OW76320  13.083   3.873  11.009  0.4287 -0.6726 -0.0740
19443SOL    HW176321  13.115   3.815  10.940  0.4821 -0.0673 -0.5643
19443SOL    HW276322  12.987   3.868  11.002  0.4368 -0.0504 -0.6715
19444SOL     OW76323  12.492  12.798   0.152 -0.5056  0.1164  0.2371
19444SOL    HW176324  12.478  12.710   0.118  0.2790  0.5585 -1.2839
19444SOL    HW276325  12.481  12.855   0.076  0.4355  1.2105  0.9019
19445SOL     OW76326   5.887   7.414  10.324 -0.3674  0.2487 -0.0923
19445SOL    HW176327   5.978   7.425  10.350 -0.5870 -1.3793  1.6056
19445SOL    HW276328   5.860   7.331  10.365 -2.2043 -0.0304 -1.7150
19446SOL     OW76329  13.539   4.129  10.506  0.4030 -0.0115  0.0052
19446SOL    HW176330  13.496   4.202  10.552  0.2627  0.2370 -0.5211
19446SOL    HW276331  13.470   4.064  10.495  0.7594 -0.6555  1.3579
19447SOL     OW76332  12.921   3.096   8.237  0.7243 -0.1187 -0.3421
19447SOL    HW176333  12.946   3.008   8.209 -0.7777 -0.8733  0.6044
19447SOL    HW276334  12.864   3.129   8.167 -1.3592 -1.2056  0.7671
19448SOL     OW76335   4.629   7.546   2.735 -0.1299  0.1338 -0.1314
19448SOL    HW176336   4.684   7.563   2.812  0.6624 -1.8829 -0.1978
19448SOL    HW276337   4.560   7.613   2.740  1.2198  1.5154  1.0164
19449SOL     OW76338   3.385  12.412  11.164 -0.7730  0.4424 -0.0339
19449SOL    HW176339   3.464  12.357  11.174 -0.6839  0.6248  0.2893
19449SOL    HW276340   3.330  12.364  11.102 -0.1700  0.5798 -0.6815
19450SOL     OW76341   5.530  10.713   1.508  0.2468 -0.5066 -0.9993
19450SOL    HW176342   5.524  10.643   1.443  1.3796 -2.0701  0.4912
19450SOL    HW276343   5.527  10.668   1.593  0.8133  1.2658  0.0209
19451SOL     OW76344   9.965   8.300   8.737  0.1383 -0.8489 -0.2703
19451SOL    HW176345   9.910   8.361   8.687 -3.4783 -1.5670  2.3835
19451SOL    HW276346   9.991   8.234   8.673 -1.5545 -0.0673 -1.8789
19452SOL     OW76347   2.411   0.765  10.544 -0.7800 -0.1159 -0.1033
19452SOL    HW176348   2.433   0.851  10.509  0.3934 -0.5339 -0.4322
19452SOL    HW276349   2.394   0.781  10.637  1.5331  0.1911  0.3408
19453SOL     OW76350   6.833   9.741  11.466 -0.2628  0.2743  0.5165
19453SOL    HW176351   6.820   9.648  11.448 -2.2906  0.3989  1.0833
19453SOL    HW276352   6.766   9.785  11.414  1.6172  1.6014 -0.9292
19454SOL     OW76353   4.588   5.339  10.750  0.3344 -0.4585 -0.0887
19454SOL    HW176354   4.540   5.364  10.829 -0.1967 -0.0547 -0.5401
19454SOL    HW276355   4.679   5.364  10.769 -0.0850  1.3912 -0.3277
19455SOL     OW76356  13.668   1.768   9.515  0.0550 -0.0765  0.0311
19455SOL    HW176357  13.714   1.834   9.462  1.4245 -0.9698  0.0512
19455SOL    HW276358  13.676   1.800   9.605  0.6165 -0.1872  0.0281
19456SOL     OW76359   2.902  12.618   9.133 -0.2729  0.1373 -0.6117
19456SOL    HW176360   2.900  12.630   9.038  1.7087  0.5302 -0.6489
19456SOL    HW276361   2.993  12.632   9.157 -0.9594  1.4048  1.5369
19457SOL     OW76362   5.426  11.683   3.404  0.0165  0.1669 -0.7396
19457SOL    HW176363   5.454  11.758   3.352  1.5885  1.8878  2.3090
19457SOL    HW276364   5.332  11.696   3.416  0.1421  1.2422 -0.8606
19458SOL     OW76365  12.995   5.376  10.474  0.3053  0.3548 -0.5113
19458SOL    HW176366  13.053   5.449  10.498  0.2844 -0.0322  0.7677
19458SOL    HW276367  12.921   5.419  10.431 -0.0567  1.1872  0.8718
19459SOL     OW76368   5.692   0.186   1.288  0.5751 -0.3805 -0.2337
19459SOL    HW176369   5.754   0.227   1.228 -0.3642  0.3127 -0.7584
19459SOL    HW276370   5.724   0.097   1.300  1.3929 -0.1769 -0.8795
19460SOL     OW76371   8.516   3.389  13.288  0.0576  0.2556  0.6466
19460SOL    HW176372   8.558   3.413  13.206  2.0236 -0.9574  1.2390
19460SOL    HW276373   8.543   3.458  13.349 -0.1771  0.3600  0.6328
19461SOL     OW76374   9.647   2.858  11.892 -0.0272 -0.3055  0.3390
19461SOL    HW176375   9.578   2.913  11.855  0.4727  1.3113  1.7288
19461SOL    HW276376   9.626   2.770  11.860 -0.6744  0.6895 -2.1973
19462SOL     OW76377  12.255  10.016  11.234 -0.7256  0.0745 -0.0126
19462SOL    HW176378  12.317  10.017  11.161  0.9269  0.8528  1.3380
19462SOL    HW276379  12.237   9.923  11.249  0.4844 -0.1975 -0.1458
19463SOL     OW76380   5.074   6.668   5.351 -0.1835  0.3722  0.3741
19463SOL    HW176381   5.100   6.709   5.434 -1.0082 -1.2673  1.5140
19463SOL    HW276382   4.978   6.665   5.355 -0.1867 -0.9231  0.0210
19464SOL     OW76383   5.933   2.625   1.570 -0.3453 -0.3592 -0.0580
19464SOL    HW176384   5.973   2.618   1.657 -0.0487 -1.2495 -0.2571
19464SOL    HW276385   5.978   2.699   1.529 -0.9707  0.5150  0.7897
19465SOL     OW76386   5.382   0.591   6.311 -0.1705 -0.1736 -0.0260
19465SOL    HW176387   5.413   0.513   6.263  0.0106 -0.4839  0.5892
19465SOL    HW276388   5.310   0.625   6.257  0.5417 -0.0534 -0.9333
19466SOL     OW76389  10.770   9.945   6.528 -0.1658  0.8082  0.5648
19466SOL    HW176390  10.699   9.885   6.504 -1.1553  1.6134  1.3825
19466SOL    HW276391  10.825   9.949   6.450  0.0887 -1.3619  0.5831
19467SOL     OW76392   2.238   3.637  11.275 -0.6129  0.1652 -0.3353
19467SOL    HW176393   2.248   3.731  11.259  1.4170  0.1685  0.6445
19467SOL    HW276394   2.233   3.630  11.371  3.0393 -0.9324 -0.0885
19468SOL     OW76395   1.857   8.957   6.063  0.0610  0.2344 -0.4388
19468SOL    HW176396   1.839   8.997   6.148 -1.0184  0.2710 -0.6643
19468SOL    HW276397   1.902   9.025   6.013  0.0506  0.4623 -0.1429
19469SOL     OW76398  11.344   2.890   5.929 -0.1221 -0.0819  0.6674
19469SOL    HW176399  11.282   2.851   5.990 -1.0283 -0.3373 -0.3762
19469SOL    HW276400  11.374   2.817   5.874 -1.8243  0.5901 -1.2989
19470SOL     OW76401  10.833   2.516   3.622 -0.4761  0.5662 -0.2869
19470SOL    HW176402  10.792   2.430   3.632 -0.2351  0.5011  0.1105
19470SOL    HW276403  10.864   2.539   3.709  0.3826  0.5998 -0.5982
19471SOL     OW76404   5.206   6.255  10.960 -0.1489 -0.7146 -0.2847
19471SOL    HW176405   5.156   6.274  10.881 -0.1493 -1.4228 -0.4593
19471SOL    HW276406   5.193   6.161  10.976 -1.4560 -0.3029  1.4481
19472SOL     OW76407   8.692  10.362   0.076  0.3387 -0.0126 -0.7005
19472SOL    HW176408   8.724  10.283   0.119 -1.0074 -0.0123  0.3538
19472SOL    HW276409   8.699  10.430   0.143 -1.5242  0.0544 -0.5400
19473SOL     OW76410  13.847  12.439   8.399  0.0809  0.2142  0.2813
19473SOL    HW176411  13.902  12.509   8.433  1.0847 -0.4701  0.1170
19473SOL    HW276412  13.804  12.477   8.323  0.2479  0.7873  0.4655
19474SOL     OW76413   2.427  11.711   3.939 -0.2778 -0.1323  0.1729
19474SOL    HW176414   2.381  11.658   4.004  1.5344  0.0762  1.7430
19474SOL    HW276415   2.518  11.712   3.970  0.2481  1.7108 -1.2404
19475SOL     OW76416  11.632   1.323   3.059  0.3240 -0.0365  0.3040
19475SOL    HW176417  11.548   1.365   3.079  0.2588 -0.1365  0.2354
19475SOL    HW276418  11.630   1.242   3.109  0.2447 -0.1930  0.0480
19476SOL     OW76419   3.660   0.471   8.455  0.3625  0.2229 -0.5179
19476SOL    HW176420   3.657   0.550   8.509  1.0332  1.6443 -2.4459
19476SOL    HW276421   3.569   0.447   8.441  0.1247  1.0986 -0.4948
19477SOL     OW76422   1.237   7.503  14.026  0.5720  0.0952 -0.3272
19477SOL    HW176423   1.159   7.523  14.078 -1.0766 -0.4252 -2.4744
19477SOL    HW276424   1.251   7.409  14.040 -1.5695 -0.7187 -2.8111
19478SOL     OW76425   9.491   1.729   1.484 -0.5317  0.1443  0.1644
19478SOL    HW176426   9.525   1.648   1.446 -1.0867  0.5697 -1.2958
19478SOL    HW276427   9.471   1.785   1.409  0.1014  1.7602  1.1431
19479SOL     OW76428  11.327   3.002   0.825  0.1433  0.0253 -0.0350
19479SOL    HW176429  11.374   3.078   0.860 -1.6402  1.8549 -1.3761
19479SOL    HW276430  11.308   3.026   0.734 -1.0919 -1.7360 -0.2815
19480SOL     OW76431  12.280  12.436   5.824 -0.6242  0.2600  0.0695
19480SOL    HW176432  12.192  12.459   5.796  0.1957  5.0493  0.6852
19480SOL    HW276433  12.285  12.462   5.916  1.4052 -0.0325  0.1056
19481SOL     OW76434   3.851  13.313   7.948 -0.0374  0.3149 -0.3828
19481SOL    HW176435   3.895  13.382   7.997 -0.0638  0.4737 -0.5830
19481SOL    HW276436   3.840  13.242   8.011  0.3941  0.3216 -0.2936
19482SOL     OW76437   8.377   5.507   1.082  0.5811 -0.4894  0.7355
19482SOL    HW176438   8.318   5.548   1.018  0.1873  1.4568  2.2465
19482SOL    HW276439   8.429   5.445   1.030  0.5069  1.2022 -1.5286
19483SOL     OW76440   5.838  11.589   7.836 -0.4112  0.2812 -0.3232
19483SOL    HW176441   5.836  11.499   7.868  0.0791  0.7121  0.9909
19483SOL    HW276442   5.781  11.589   7.759 -0.5334 -1.1106 -0.2496
19484SOL     OW76443  13.972  11.263   2.047 -0.5339  0.4902 -0.1063
19484SOL    HW176444  14.051  11.239   2.097 -1.7043  0.0703  1.6395
19484SOL    HW276445  13.958  11.356   2.068 -0.5866  0.5241 -0.2899
19485SOL     OW76446   8.864  11.855   8.334 -0.4571 -0.1709  0.1469
19485SOL    HW176447   8.885  11.929   8.391 -1.8462  0.1153  0.3192
19485SOL    HW276448   8.803  11.890   8.270 -0.5243 -0.9918 -0.2525
19486SOL     OW76449  13.214   7.292   8.631 -0.2449  0.1283  0.0003
19486SOL    HW176450  13.253   7.379   8.637 -0.0209  0.0394 -0.1456
19486SOL    HW276451  13.194   7.281   8.539  1.3713 -0.6764 -0.2887
19487SOL     OW76452  11.455  12.118   0.834  0.3153 -0.2387  0.4159
19487SOL    HW176453  11.395  12.082   0.899  1.0402 -0.8659  0.7403
19487SOL    HW276454  11.511  12.045   0.809  1.8610  0.6531  1.1442
19488SOL     OW76455  14.058  10.820   0.133  1.0809 -0.3832 -0.2411
19488SOL    HW176456  14.121  10.843   0.064  0.3391  2.3326 -0.1382
19488SOL    HW276457  14.084  10.874   0.208  0.0971 -1.0698  0.6239
19489SOL     OW76458  13.737   0.126   1.251  0.1913  0.0318 -0.2234
19489SOL    HW176459  13.728   0.038   1.214  1.0857  0.2312 -0.9665
19489SOL    HW276460  13.752   0.182   1.176  0.6001  0.6777  0.3272
19490SOL     OW76461   9.276   9.062   3.813 -0.1912  0.2138 -0.1148
19490SOL    HW176462   9.330   9.086   3.738  1.2144 -0.0989  0.7624
19490SOL    HW276463   9.208   9.129   3.815 -1.3869 -0.7792 -2.7193
19491SOL     OW76464   7.635   1.975  12.242 -0.5757 -0.4518  0.4016
19491SOL    HW176465   7.582   1.928  12.306 -0.8095  0.3266  0.7828
19491SOL    HW276466   7.687   2.036  12.293 -0.7199  0.1340 -0.1435
19492SOL     OW76467  13.814   7.411   9.639 -0.1075  0.4697  0.3348
19492SOL    HW176468  13.832   7.465   9.563 -0.2918  0.8636  0.5697
19492SOL    HW276469  13.878   7.441   9.705 -0.7519  0.9756  0.7381
19493SOL     OW76470   1.971   7.659  10.493  0.1931 -0.6017 -0.0896
19493SOL    HW176471   2.019   7.741  10.482  2.3693 -1.8986 -0.9031
19493SOL    HW276472   1.918   7.672  10.571 -1.2175  2.3107 -1.3734
19494SOL     OW76473   5.851   7.212   6.543 -0.1892  0.1769  0.3938
19494SOL    HW176474   5.793   7.191   6.617  0.5479 -0.2949  0.8415
19494SOL    HW276475   5.815   7.162   6.470 -0.3502 -0.1219  0.6736
19495SOL     OW76476  10.353  13.885  13.656  0.3239  0.0251  0.3069
19495SOL    HW176477  10.308  13.813  13.700  0.2651 -1.2441 -1.7001
19495SOL    HW276478  10.416  13.841  13.598  0.6929  1.6148 -0.5422
19496SOL     OW76479   4.673   0.524  13.983  0.4312 -0.2735 -0.0098
19496SOL    HW176480   4.586   0.524  14.024 -1.4212 -0.8580 -3.5863
19496SOL    HW276481   4.719   0.451  14.026 -0.3208  0.7568  2.7703
19497SOL     OW76482   1.226   9.258  10.386 -0.0343 -0.5288  0.0056
19497SOL    HW176483   1.252   9.251  10.478 -2.7932  1.4139  1.0555
19497SOL    HW276484   1.307   9.280  10.340  1.4521 -1.7133  1.8972
19498SOL     OW76485   1.725   9.597   4.501 -0.0034  0.2278 -0.6904
19498SOL    HW176486   1.807   9.584   4.453  0.8057 -0.0519  0.7105
19498SOL    HW276487   1.752   9.612   4.591 -1.4534  1.2696 -0.3879
19499SOL     OW76488   1.458   8.065  13.797 -0.1652 -0.4731 -0.4672
19499SOL    HW176489   1.408   8.052  13.878 -0.1630 -2.9433 -0.7908
19499SOL    HW276490   1.548   8.079  13.826 -0.2660 -0.7529 -0.0125
19500SOL     OW76491   1.505   9.775   3.524  0.5749 -0.3088  0.1233
19500SOL    HW176492   1.419   9.760   3.563  0.0843  3.1055  0.6894
19500SOL    HW276493   1.510   9.713   3.451 -2.2055 -0.8583  0.3026
19501SOL     OW76494   4.253  12.612   4.227 -0.5392 -0.3108 -0.1657
19501SOL    HW176495   4.229  12.562   4.149 -1.5051 -1.1069  0.6141
19501SOL    HW276496   4.335  12.573   4.256 -0.1631  0.0031 -0.7842
19502SOL     OW76497   1.129  12.015   5.611  0.5146 -0.3186 -0.1361
19502SOL    HW176498   1.037  12.034   5.629  0.4973 -0.2597 -0.2841
19502SOL    HW276499   1.133  11.919   5.605 -0.2366 -0.2627 -3.6489
19503SOL     OW76500   3.105   1.618   2.573  0.2038 -0.0646  0.4249
19503SOL    HW176501   3.179   1.560   2.591  0.7240  0.9701  1.7907
19503SOL    HW276502   3.121   1.650   2.485  1.4967  0.2800  0.7618
19504SOL     OW76503  12.365   4.168  11.854  0.3268 -0.3379 -0.0409
19504SOL    HW176504  12.451   4.127  11.854 -0.4761 -2.1340 -1.3386
19504SOL    HW276505  12.331   4.154  11.943  0.5525 -1.4437 -0.1215
19505SOL     OW76506   2.093  13.782   2.476  0.1121  0.2695  0.9045
19505SOL    HW176507   2.052  13.717   2.533 -1.3990  1.6743  1.5091
19505SOL    HW276508   2.109  13.736   2.394 -1.4723 -0.7050  1.1095
19506SOL     OW76509   9.649   6.610  11.066 -0.0061 -0.5347 -0.4529
19506SOL    HW176510   9.596   6.671  11.117 -2.1028 -3.4338  1.0958
19506SOL    HW276511   9.731   6.602  11.115 -0.1523  0.1816 -0.0812
19507SOL     OW76512   7.987  12.460   4.330  0.1937 -0.6131 -0.0294
19507SOL    HW176513   7.942  12.532   4.285  0.7923  0.2648  0.7501
19507SOL    HW276514   8.077  12.491   4.341  0.2623 -1.1442  1.0448
19508SOL     OW76515   3.468  13.855  10.816  0.0984 -0.3509 -0.3377
19508SOL    HW176516   3.419  13.897  10.746 -0.5495  0.4050  0.5530
19508SOL    HW276517   3.444  13.763  10.811  0.2110 -0.3384 -1.2210
19509SOL     OW76518   4.594   5.490   9.328 -0.8748 -0.4688 -0.0934
19509SOL    HW176519   4.577   5.562   9.267  1.2722  0.1663 -0.0060
19509SOL    HW276520   4.566   5.524   9.413 -0.0800  0.1985 -0.0880
19510SOL     OW76521   0.883   7.157   4.621 -0.6045 -0.1464 -0.4607
19510SOL    HW176522   0.825   7.177   4.547  0.8804  1.8777 -1.1623
19510SOL    HW276523   0.876   7.232   4.679 -1.4777 -1.5539  1.3805
19511SOL     OW76524   8.448  13.411   2.422  0.1063 -0.0984  0.5894
19511SOL    HW176525   8.504  13.434   2.497  0.7895 -0.0861  0.0805
19511SOL    HW276526   8.485  13.460   2.349 -0.8510  0.2650  0.3355
19512SOL     OW76527  10.725  10.662  10.026  0.1010  0.3087  0.2969
19512SOL    HW176528  10.681  10.594   9.974  1.0972 -0.7520  0.7872
19512SOL    HW276529  10.683  10.657  10.112  1.1384 -0.7367  0.7794
19513SOL     OW76530   2.228   0.608  10.398  0.6445  0.3433  0.0102
19513SOL    HW176531   2.148   0.613  10.450  0.5008 -1.2077  0.0045
19513SOL    HW276532   2.296   0.645  10.455 -0.0863  1.9059 -0.0808
19514SOL     OW76533   8.835   6.812  10.913 -0.3216  0.3843 -0.2059
19514SOL    HW176534   8.826   6.854  10.999 -0.8694  0.0400 -0.0938
19514SOL    HW276535   8.820   6.719  10.930 -1.9443  0.4980 -0.9133
19515SOL     OW76536  13.012   2.308  12.954 -0.0045  0.0751  0.8985
19515SOL    HW176537  13.059   2.232  12.920 -1.7049 -0.2785 -0.8005
19515SOL    HW276538  12.950   2.272  13.017 -1.5457 -0.1579 -0.6722
19516SOL     OW76539  13.081  10.394   8.000  0.0570  0.2292 -1.0815
19516SOL    HW176540  12.991  10.424   8.010  0.5075  1.6172 -1.0353
19516SOL    HW276541  13.073  10.309   7.955 -1.2135  0.8514 -2.0979
19517SOL     OW76542  10.751   6.864   6.640  0.4514 -0.3495 -0.2497
19517SOL    HW176543  10.661   6.861   6.673  1.0502  0.5947  1.6362
19517SOL    HW276544  10.777   6.956   6.650  1.8566 -0.7504 -0.0498
19518SOL     OW76545   8.214   0.570   3.697  0.0977 -0.3033  0.2986
19518SOL    HW176546   8.289   0.614   3.659 -0.4050 -0.7768 -1.3072
19518SOL    HW276547   8.250   0.491   3.738  0.5017 -0.3748 -0.1934
19519SOL     OW76548  13.770   9.583   3.307  0.1905  0.1282 -0.0233
19519SOL    HW176549  13.704   9.651   3.321  0.0725  0.0185 -0.0453
19519SOL    HW276550  13.719   9.504   3.290  0.3287  0.0746 -0.1897
19520SOL     OW76551   3.780   7.994  13.403 -0.0752 -0.2456 -0.4492
19520SOL    HW176552   3.863   7.953  13.379  0.2720  0.9000 -1.2874
19520SOL    HW276553   3.713   7.934  13.372  0.4273 -0.5204 -1.0140
19521SOL     OW76554   1.558   1.852   0.409  0.5195 -0.1214  0.1273
19521SOL    HW176555   1.514   1.818   0.331  0.4646 -0.4854  0.3119
19521SOL    HW276556   1.486   1.881   0.466  0.3035 -2.9966  1.4966
19522SOL     OW76557   9.323  10.939  11.023  0.4566  0.3332  0.2245
19522SOL    HW176558   9.284  10.887  10.953 -0.6711 -1.6960  2.1900
19522SOL    HW276559   9.273  11.021  11.023  0.1775  0.1812 -1.0299
19523SOL     OW76560   2.090   4.919   9.731 -0.8531  1.1803  0.1813
19523SOL    HW176561   2.156   4.986   9.715 -0.7963  1.0238 -0.2621
19523SOL    HW276562   2.031   4.925   9.655 -0.6197  0.4611 -0.0605
19524SOL     OW76563  10.043   4.895   4.627  0.0565 -0.2876 -0.0615
19524SOL    HW176564   9.973   4.857   4.681  0.5002  0.4554  1.0743
19524SOL    HW276565  10.048   4.838   4.551 -1.9034 -0.2531 -0.2498
19525SOL     OW76566   8.923   1.277   1.689  0.2201  0.1550 -0.2754
19525SOL    HW176567   8.958   1.282   1.600  1.1979 -0.4070  0.0700
19525SOL    HW276568   8.997   1.249   1.742 -0.5103 -0.0709  0.6322
19526SOL     OW76569   0.361   6.916   3.035 -0.4261  0.0186 -0.2082
19526SOL    HW176570   0.430   6.927   3.100 -0.0926 -0.6516 -0.4424
19526SOL    HW276571   0.408   6.912   2.951 -0.6972 -1.0369 -0.3166
19527SOL     OW76572  11.364   5.565   4.179  0.3355  0.3434 -0.6923
19527SOL    HW176573  11.371   5.657   4.203  0.4606  0.2120 -0.2111
19527SOL    HW276574  11.451   5.529   4.197  0.7424  0.4477 -2.2747
19528SOL     OW76575  12.627   0.221   5.863  0.2620 -0.6461  0.3315
19528SOL    HW176576  12.720   0.242   5.864  0.1990 -0.3104 -0.2053
19528SOL    HW276577  12.589   0.276   5.932  0.1067  1.0743 -1.0428
19529SOL     OW76578   3.379   4.775   8.510  0.4539 -0.2938  0.1681
19529SOL    HW176579   3.470   4.797   8.493  0.6553 -1.8190 -0.9438
19529SOL    HW276580   3.375   4.679   8.501 -1.0071 -0.3984  1.3996
19530SOL     OW76581   7.542   1.519  12.017  0.3299 -0.5413 -0.0515
19530SOL    HW176582   7.577   1.481  11.936  0.3885 -0.0426 -0.2637
19530SOL    HW276583   7.522   1.610  11.994  2.2400  0.2196  1.0106
19531SOL     OW76584   1.114  10.213   6.143  0.0021  0.6810 -0.0462
19531SOL    HW176585   1.130  10.241   6.233 -1.8529  0.6902  0.3185
19531SOL    HW276586   1.200  10.186   6.111  0.7880  1.1409  1.5521
19532SOL     OW76587   5.989   1.290   4.393 -0.0457  0.0611  0.3665
19532SOL    HW176588   6.049   1.274   4.466 -0.2257  0.5283  0.6177
19532SOL    HW276589   6.017   1.373   4.356 -0.6367  0.3665  0.5916
19533SOL     OW76590   5.220   5.597   0.240  0.4502 -0.5154  0.0009
19533SOL    HW176591   5.192   5.667   0.181  0.2103 -0.4121  0.2359
19533SOL    HW276592   5.176   5.519   0.206  0.0432 -0.3950  0.2362
19534SOL     OW76593  10.176  10.953   2.405 -0.0922 -0.1883 -0.3119
19534SOL    HW176594  10.229  10.908   2.340 -0.4936 -0.9914 -0.0883
19534SOL    HW276595  10.190  11.046   2.387  1.3147 -0.3781 -0.3127
19535SOL     OW76596   0.223   8.428   1.123 -0.4636  0.2594 -0.3515
19535SOL    HW176597   0.282   8.362   1.085  1.8204  1.4707  0.8496
19535SOL    HW276598   0.254   8.511   1.088 -2.1183  0.8784 -0.4098
19536SOL     OW76599   8.671   3.177   2.357 -0.2801 -0.0968  0.4859
19536SOL    HW176600   8.682   3.253   2.301  0.2180 -0.0001  0.7154
19536SOL    HW276601   8.680   3.102   2.298 -1.1321  0.0129  0.1933
19537SOL     OW76602   9.789   9.906   4.035  0.4481 -0.7029  0.2378
19537SOL    HW176603   9.740   9.830   4.002  1.0819 -1.7344  1.5725
19537SOL    HW276604   9.880   9.887   4.012  0.3422  0.8952 -1.6631
19538SOL     OW76605  11.860  13.936   1.978 -0.3735 -0.9128 -0.2452
19538SOL    HW176606  11.893  13.999   2.043  0.5026  0.9291 -2.3468
19538SOL    HW276607  11.775  13.909   2.013  0.9018 -1.6076  2.6342
19539SOL     OW76608   7.431   6.466  11.565  0.4666  0.0480 -0.1481
19539SOL    HW176609   7.433   6.557  11.534 -0.7095  0.1613  0.0536
19539SOL    HW276610   7.494   6.464  11.638 -0.1113  0.9213  0.3968
19540SOL     OW76611  13.446   7.211   0.099  0.0024  0.5182  0.2001
19540SOL    HW176612  13.484   7.187   0.015  0.2075  0.5488  0.2834
19540SOL    HW276613  13.390   7.287   0.080  1.0540  1.3412  0.3099
19541SOL     OW76614  11.061   2.063   4.057  0.3422  0.0206  0.6080
19541SOL    HW176615  11.085   2.034   3.969 -0.3362 -0.3333  0.5309
19541SOL    HW276616  11.144   2.074   4.103  0.9535  3.0211 -0.9279
19542SOL     OW76617   5.868   9.249   7.143 -0.4479 -0.5836 -0.2470
19542SOL    HW176618   5.851   9.173   7.198 -2.3543 -0.0583 -0.0581
19542SOL    HW276619   5.875   9.213   7.054  0.7856 -1.1972  0.0720
19543SOL     OW76620   8.635   5.710   0.615  0.2571  0.3307 -0.0859
19543SOL    HW176621   8.648   5.662   0.533  0.3413  0.9221 -0.4264
19543SOL    HW276622   8.670   5.797   0.597  1.5914  0.0535  1.0432
19544SOL     OW76623  10.805   3.521  11.169  0.2436  0.1765  0.5029
19544SOL    HW176624  10.749   3.524  11.246 -0.0064 -1.6634  0.4479
19544SOL    HW276625  10.761   3.576  11.105  0.9814  2.5898  1.9430
19545SOL     OW76626  10.647   7.399  10.092 -0.1839 -0.1624  0.8633
19545SOL    HW176627  10.617   7.309  10.103 -1.0395 -0.0975 -0.6917
19545SOL    HW276628  10.568   7.452  10.099 -0.2963  0.1390 -1.7080
19546SOL     OW76629   0.597   5.792   1.685 -0.0645  1.0666  0.2683
19546SOL    HW176630   0.651   5.732   1.633 -2.0348 -0.4036 -0.1884
19546SOL    HW276631   0.548   5.842   1.620  0.0936  1.7844  0.6928
19547SOL     OW76632   4.291  10.238   8.990 -0.6620  0.4873  0.4814
19547SOL    HW176633   4.318  10.262   9.078 -0.4226 -0.1639  0.5975
19547SOL    HW276634   4.355  10.172   8.963 -0.1066  1.4347 -0.5926
19548SOL     OW76635   3.005   4.397   0.028 -0.0078  0.4238  0.5173
19548SOL    HW176636   2.939   4.449  -0.019 -1.2993 -0.5574  1.1728
19548SOL    HW276637   2.986   4.307   0.003  1.1024  0.1164  0.7343
19549SOL     OW76638   4.825   6.151   9.916  0.3931 -0.3887  0.4675
19549SOL    HW176639   4.892   6.217   9.897 -0.7551  1.2159  1.7264
19549SOL    HW276640   4.872   6.067   9.912  1.9052  0.4768 -1.1240
19550SOL     OW76641   3.354  10.969   7.952  0.3002  0.4421  0.2561
19550SOL    HW176642   3.435  10.919   7.953 -0.2575 -0.5841 -1.5296
19550SOL    HW276643   3.285  10.903   7.957 -0.4364  1.1411 -0.3463
19551SOL     OW76644   3.904   2.695  13.922 -0.1094 -0.7516 -0.0237
19551SOL    HW176645   3.885   2.651  13.839 -2.3892  0.6341 -0.3110
19551SOL    HW276646   3.880   2.631  13.989 -1.3376 -0.7679 -0.4509
19552SOL     OW76647   4.345  11.990  12.314 -0.2842 -0.0660 -0.7091
19552SOL    HW176648   4.359  12.024  12.402  0.4084  0.4380 -0.9997
19552SOL    HW276649   4.426  11.942  12.294 -0.7844 -0.9315 -0.7460
19553SOL     OW76650   3.704   5.346   3.759 -0.4365 -0.2205  0.1081
19553SOL    HW176651   3.642   5.311   3.695 -1.7727  1.8765  0.1606
19553SOL    HW276652   3.772   5.387   3.705 -0.8408  0.3384  0.0094
19554SOL     OW76653   1.884   1.234   9.123  0.0408 -0.1251  0.5397
19554SOL    HW176654   1.911   1.155   9.076 -0.0168  0.6573 -0.8698
19554SOL    HW276655   1.789   1.228   9.129  0.0115 -0.0395  0.1842
19555SOL     OW76656  10.447   7.722   0.708  0.0292  0.0976  0.2028
19555SOL    HW176657  10.435   7.774   0.787  0.0134 -1.0786  1.0100
19555SOL    HW276658  10.528   7.672   0.724  0.7830  0.8270 -1.1001
19556SOL     OW76659   8.370   3.499   7.285 -0.9023 -0.2427 -0.3668
19556SOL    HW176660   8.346   3.588   7.308 -1.3655 -0.3932 -0.2606
19556SOL    HW276661   8.340   3.446   7.359 -1.7243 -0.6362 -0.9667
19557SOL     OW76662   2.427  13.935  12.066  0.2378 -0.0608  0.3179
19557SOL    HW176663   2.501  13.970  12.016  0.8618 -0.8009  0.7115
19557SOL    HW276664   2.351  13.950  12.009  0.5976  1.2050  0.1458
19558SOL     OW76665   5.996  10.132   7.691  0.1178  0.1460 -0.0135
19558SOL    HW176666   6.039  10.124   7.606  0.4127 -0.9287  0.2144
19558SOL    HW276667   6.058  10.093   7.753 -1.0755 -1.2818  0.3446
19559SOL     OW76668  11.917  12.668   1.168 -0.3582  0.5365 -0.4466
19559SOL    HW176669  11.940  12.579   1.194  1.3592  1.1861  0.3883
19559SOL    HW276670  11.946  12.675   1.077  1.2784  0.7947  0.0591
19560SOL     OW76671  13.691  13.794   3.328  0.1048 -0.2585 -0.2264
19560SOL    HW176672  13.739  13.824   3.251  1.3420 -0.3599  0.4813
19560SOL    HW276673  13.632  13.866   3.349  1.0410  0.5205 -0.2125
19561SOL     OW76674  11.526   0.302  13.543  0.6468  0.3079  0.2324
19561SOL    HW176675  11.543   0.209  13.560  1.3303  0.0191 -1.7338
19561SOL    HW276676  11.435   0.305  13.514  0.8718  0.0980 -0.5260
19562SOL     OW76677  11.388   8.937   4.021  0.0502  0.0286 -0.2749
19562SOL    HW176678  11.476   8.939   4.059 -0.4013 -0.5259  0.8412
19562SOL    HW276679  11.368   9.029   4.001  0.4890  0.2763  0.3923
19563SOL     OW76680   3.358  11.092  13.998 -0.3431  0.5553  0.2820
19563SOL    HW176681   3.364  11.057  13.909  0.7472 -1.5377  1.1144
19563SOL    HW276682   3.283  11.151  13.995 -0.4566  0.3927 -1.9644
19564SOL     OW76683   4.868   8.062   6.241 -0.0408 -0.1233 -0.5083
19564SOL    HW176684   4.895   8.037   6.152  0.0283 -0.9296 -0.2610
19564SOL    HW276685   4.942   8.112   6.275 -0.2678  0.6237 -1.0810
19565SOL     OW76686  10.128  11.402  11.447 -0.0044 -0.2694  0.0976
19565SOL    HW176687  10.089  11.431  11.529  0.8494  0.9831  0.0946
19565SOL    HW276688  10.158  11.483  11.405 -1.3488 -0.7668 -1.9486
19566SOL     OW76689   1.460   8.330   0.423 -0.2711  0.1799  0.2743
19566SOL    HW176690   1.375   8.364   0.393 -0.6439 -0.1176  0.9829
19566SOL    HW276691   1.523   8.363   0.358 -0.7781  1.2939  0.3191
19567SOL     OW76692   8.439  12.995   6.971  0.5042 -0.1794 -0.4365
19567SOL    HW176693   8.358  12.958   6.935  0.6808  0.3175 -1.3784
19567SOL    HW276694   8.468  12.930   7.035 -1.8251  0.6480  1.6082
19568SOL     OW76695   0.384  12.645   3.739 -0.8962 -0.2669  0.6195
19568SOL    HW176696   0.466  12.678   3.774 -1.2148 -0.4357  1.5721
19568SOL    HW276697   0.352  12.714   3.682 -0.6497  0.2935  1.1438
19569SOL     OW76698   1.892  11.889   0.528 -0.1330  0.4567 -0.1476
19569SOL    HW176699   1.873  11.850   0.613  0.3981  0.3599 -0.0687
19569SOL    HW276700   1.936  11.819   0.479 -0.2570  0.5741 -0.4280
19570SOL     OW76701  14.114  13.324  11.545  0.5372 -0.2225  0.4768
19570SOL    HW176702  14.171  13.348  11.472 -0.0091  0.0555  0.1369
19570SOL    HW276703  14.136  13.232  11.563  2.3913  0.3873  1.5611
19571SOL     OW76704   4.936   8.066   0.526  0.0215  0.2619  0.2294
19571SOL    HW176705   4.954   7.975   0.550 -0.5130 -0.1741 -0.9257
19571SOL    HW276706   4.887   8.102   0.600  0.2390 -0.3836  0.6948
19572SOL     OW76707   7.199   0.546  11.601  0.0937  0.0911 -0.1343
19572SOL    HW176708   7.147   0.493  11.540  0.8070 -1.3650  0.4820
19572SOL    HW276709   7.135   0.582  11.662 -0.2458 -1.4887  0.4760
19573SOL     OW76710   8.967   8.497   6.625  0.6545 -0.0051  0.6940
19573SOL    HW176711   9.052   8.505   6.581 -0.7023  1.1526 -1.8663
19573SOL    HW276712   8.975   8.553   6.702  1.7064  1.4177 -0.3929
19574SOL     OW76713   5.694  13.555  12.738  0.2654 -0.0163  0.0351
19574SOL    HW176714   5.772  13.610  12.738 -0.6737  1.4427  1.7971
19574SOL    HW276715   5.652  13.573  12.822 -1.3583 -1.6370 -0.3615
19575SOL     OW76716  10.757   8.728   6.079  0.6211  0.4621 -0.2630
19575SOL    HW176717  10.717   8.654   6.033 -0.3614  1.0165 -0.3116
19575SOL    HW276718  10.754   8.703   6.171  0.9403  0.1367 -0.3384
19576SOL     OW76719  13.305   9.019   6.676  0.2921 -0.2094  0.7113
19576SOL    HW176720  13.310   9.085   6.607 -1.3779 -1.5907 -0.8478
19576SOL    HW276721  13.395   9.003   6.702  0.8518  1.3223 -0.1745
19577SOL     OW76722   8.936   9.349  13.440 -0.2257 -0.5181  0.1405
19577SOL    HW176723   8.972   9.387  13.360 -0.3428 -1.8869 -0.5918
19577SOL    HW276724   8.988   9.270  13.454 -1.5266 -1.3711  0.2696
19578SOL     OW76725   6.205  11.686   0.409  0.2912 -0.5495  0.1604
19578SOL    HW176726   6.212  11.595   0.378  1.7495 -0.1529 -0.7700
19578SOL    HW276727   6.131  11.722   0.361  0.7502 -0.7743 -0.7326
19579SOL     OW76728   5.560   3.754   1.361  0.7557  0.4207 -0.5518
19579SOL    HW176729   5.576   3.839   1.321 -0.2854  0.9314  0.1034
19579SOL    HW276730   5.465   3.747   1.368  0.8682  0.1389  1.3639
19580SOL     OW76731  10.371  13.788   7.716  0.1933  0.2455 -0.3120
19580SOL    HW176732  10.357  13.703   7.673 -0.7102  0.3853 -0.3137
19580SOL    HW276733  10.455  13.778   7.761 -0.2729 -0.9267  0.3472
19581SOL     OW76734   0.543   1.091  12.294 -0.6030 -0.2972  0.7185
19581SOL    HW176735   0.538   1.101  12.389  1.3694  0.3097  0.7956
19581SOL    HW276736   0.597   1.164  12.265 -2.9355  0.8182 -1.1672
19582SOL     OW76737   8.292   3.480   0.165 -0.1022  0.1279 -0.9826
19582SOL    HW176738   8.201   3.453   0.171  0.1070 -0.4175 -0.1504
19582SOL    HW276739   8.291   3.554   0.105 -1.3457  1.2826  0.3911
19583SOL     OW76740   1.385  12.606   4.489  0.0185  0.5811 -1.0492
19583SOL    HW176741   1.428  12.641   4.567 -0.0029  0.8856 -1.1754
19583SOL    HW276742   1.368  12.682   4.433  1.0311  0.2417 -1.8454
19584SOL     OW76743   9.113  10.140   8.143  0.0526 -0.0205  0.1167
19584SOL    HW176744   9.113  10.223   8.192  0.2662  0.1853 -0.2257
19584SOL    HW276745   9.021  10.120   8.130 -0.0533 -0.8495  1.8959
19585SOL     OW76746  13.248   7.928  11.468 -0.1896  0.4851  0.3557
19585SOL    HW176747  13.298   7.990  11.520 -0.8470  1.7102 -0.4260
19585SOL    HW276748  13.247   7.965  11.380  1.1956 -1.7161 -0.6704
19586SOL     OW76749   6.117  13.576   7.575 -0.2172 -0.4807 -0.5575
19586SOL    HW176750   6.178  13.510   7.606  0.7418  1.9040  3.2600
19586SOL    HW276751   6.034  13.553   7.615  0.0461  0.3423  0.5171
19587SOL     OW76752   1.848   7.535   0.429 -0.2687 -0.8384 -0.5249
19587SOL    HW176753   1.793   7.568   0.500  1.1450 -1.0386  0.7047
19587SOL    HW276754   1.919   7.598   0.423  0.2491 -1.4584 -0.9624
19588SOL     OW76755   6.284   3.866   7.390  1.0491  0.2092  0.1402
19588SOL    HW176756   6.217   3.921   7.432  0.2716  0.4061 -1.2897
19588SOL    HW276757   6.295   3.792   7.450  0.2554  0.6718  0.8813
19589SOL     OW76758   6.811   0.067   4.361 -0.2843 -0.5260 -0.5795
19589SOL    HW176759   6.867   0.051   4.437  1.0788 -0.6467 -1.5655
19589SOL    HW276760   6.817   0.162   4.347 -0.1907 -0.5599 -0.7768
19590SOL     OW76761   6.122   7.638  12.289 -0.1607 -0.2510 -0.4265
19590SOL    HW176762   6.037   7.680  12.276 -1.4906 -2.3160  0.9765
19590SOL    HW276763   6.185   7.702  12.257 -2.1783  1.6871 -0.7966
19591SOL     OW76764  12.716  12.349   5.604  0.0211 -0.1526  0.3139
19591SOL    HW176765  12.690  12.265   5.566  0.6939 -0.2398  0.0257
19591SOL    HW276766  12.634  12.394   5.622 -0.3409 -0.8367  0.3823
19592SOL     OW76767   8.496   3.006  13.118 -0.0285 -0.0055 -0.0484
19592SOL    HW176768   8.465   2.955  13.043  0.9119 -0.5870 -0.0668
19592SOL    HW276769   8.591   2.996  13.115  0.0043 -0.3176  1.4149
19593SOL     OW76770   7.839   8.468   6.646 -0.5564 -0.2389  0.2974
19593SOL    HW176771   7.890   8.390   6.668  0.3640  0.0736 -0.6269
19593SOL    HW276772   7.827   8.463   6.551 -1.3723  0.2318  0.3629
19594SOL     OW76773  11.403   7.461  14.015  0.0680 -0.7810  0.1220
19594SOL    HW176774  11.334   7.413  13.969 -0.8910  1.2428 -0.6474
19594SOL    HW276775  11.388   7.442  14.107 -0.6128 -1.5309 -0.1332
19595SOL     OW76776   5.260   9.689  10.482 -0.4399 -0.1997  0.5433
19595SOL    HW176777   5.254   9.631  10.407  0.5580  0.4017 -0.0191
19595SOL    HW276778   5.196   9.654  10.544 -0.3429 -1.4749 -0.0470
19596SOL     OW76779   4.599   8.757   0.922 -0.0830  0.2185 -0.3373
19596SOL    HW176780   4.553   8.807   0.855  0.7264  0.1194 -0.9815
19596SOL    HW276781   4.691   8.763   0.897  0.5011  1.9549  1.9239
19597SOL     OW76782   6.734   7.028  13.504  0.4041  0.7240 -0.5236
19597SOL    HW176783   6.778   7.011  13.587  0.0279  0.5192 -0.3630
19597SOL    HW276784   6.708   6.942  13.472 -1.4524  0.9367  0.2624
19598SOL     OW76785   5.856   3.470   5.292  0.7828 -0.4785 -0.1730
19598SOL    HW176786   5.856   3.560   5.323  1.4107 -0.4933 -0.1137
19598SOL    HW276787   5.941   3.459   5.249  1.0513 -1.2709  0.5208
19599SOL     OW76788   5.462   2.527   5.840 -0.2576 -0.0350  0.0814
19599SOL    HW176789   5.508   2.533   5.924 -0.2108 -0.0160  0.0540
19599SOL    HW276790   5.466   2.615   5.804  2.1637 -0.5957 -1.2475
19600SOL     OW76791   7.461   8.975   4.328 -0.5145  0.1314  0.3003
19600SOL    HW176792   7.445   9.062   4.293 -1.5397 -0.0642  0.2429
19600SOL    HW276793   7.471   8.919   4.251 -2.7845 -0.3013  0.2371
19601SOL     OW76794  12.307   2.588   1.786  0.5241 -0.2927  0.1844
19601SOL    HW176795  12.351   2.625   1.709  1.8330 -1.2456  0.4399
19601SOL    HW276796  12.303   2.494   1.769 -1.3546 -0.2497  0.2323
19602SOL     OW76797   9.792   1.129   7.611  0.4396  0.2516 -0.1806
19602SOL    HW176798   9.715   1.073   7.624  0.0917  0.9724  0.9963
19602SOL    HW276799   9.829   1.139   7.699  2.0113 -0.2428 -0.7506
19603SOL     OW76800  14.032  13.452   2.111 -0.6180 -0.7289 -0.3109
19603SOL    HW176801  13.946  13.488   2.134 -1.7838 -1.2713 -3.3174
19603SOL    HW276802  14.012  13.365   2.075  1.0948 -0.5678 -1.7757
19604SOL     OW76803  12.163  12.647  13.570  0.0530 -0.5501 -0.3661
19604SOL    HW176804  12.151  12.552  13.566 -1.0517 -0.5025  1.0241
19604SOL    HW276805  12.190  12.664  13.660 -1.3455  0.5829 -0.1182
19605SOL     OW76806  12.275   9.331   3.999 -0.2594 -0.5431  0.7245
19605SOL    HW176807  12.338   9.331   4.071 -0.5313 -0.7393  0.9644
19605SOL    HW276808  12.243   9.421   3.994  1.7802  0.1809 -0.9445
19606SOL     OW76809   9.746  10.012   5.042  0.4573 -0.2118 -0.4187
19606SOL    HW176810   9.788   9.928   5.061 -0.1801 -0.3814  0.3400
19606SOL    HW276811   9.772  10.069   5.114 -0.3323 -0.2256 -0.1068
19607SOL     OW76812   5.899   2.235  10.746  0.5519  0.1576  0.0430
19607SOL    HW176813   5.840   2.256  10.818  1.6488  0.3182  0.9365
19607SOL    HW276814   5.941   2.318  10.725 -1.9265  0.8277 -2.9228
19608SOL     OW76815   0.734   5.683   2.495 -0.6215 -0.5101 -0.0866
19608SOL    HW176816   0.826   5.685   2.470 -0.5346  0.3762  0.2567
19608SOL    HW276817   0.727   5.608   2.555 -0.3979 -1.3510 -1.0811
19609SOL     OW76818  11.395   2.196   2.269  0.2488  0.5177  0.4455
19609SOL    HW176819  11.380   2.194   2.364  0.1080 -2.1442  0.4469
19609SOL    HW276820  11.490   2.187   2.260  0.2465  0.6148  0.3142
19610SOL     OW76821   8.816   6.491  12.620 -0.0410 -0.2342 -0.0720
19610SOL    HW176822   8.789   6.508  12.711  0.9109 -0.5744  0.2822
19610SOL    HW276823   8.733   6.480  12.573 -0.6147  1.8346  0.3593
19611SOL     OW76824   2.659  10.313   2.456  0.1920 -0.4803 -0.7117
19611SOL    HW176825   2.693  10.342   2.371 -1.7947  1.4584 -0.9455
19611SOL    HW276826   2.588  10.253   2.435  0.1970 -0.5941 -0.4067
19612SOL     OW76827  12.675   5.283   1.510  0.0492  0.6067  0.0217
19612SOL    HW176828  12.660   5.367   1.466  2.0889  1.4609  0.8203
19612SOL    HW276829  12.601   5.228   1.483 -0.3734  2.0451 -2.0206
19613SOL     OW76830   0.719   8.441   2.153  0.4116 -0.1369  0.2821
19613SOL    HW176831   0.788   8.429   2.088 -0.0254 -0.5262 -0.1102
19613SOL    HW276832   0.648   8.484   2.105 -0.6609 -2.0991 -0.0021
19614SOL     OW76833   6.155   1.768   8.129 -0.2811 -0.2408 -0.1285
19614SOL    HW176834   6.144   1.862   8.137  0.5944 -0.1833  0.7139
19614SOL    HW276835   6.157   1.751   8.035  0.6875  0.7377 -0.3011
19615SOL     OW76836   6.745   0.872   6.660 -0.1175  0.1355 -0.6839
19615SOL    HW176837   6.717   0.936   6.594  1.8552  2.7091  0.7797
19615SOL    HW276838   6.773   0.925   6.734  2.3993 -2.4041  0.3668
19616SOL     OW76839   1.685   5.881   7.347 -0.3648 -0.1893  0.4048
19616SOL    HW176840   1.594   5.853   7.335 -0.5352  0.9904 -1.5627
19616SOL    HW276841   1.679   5.959   7.401 -0.8236  1.1766 -1.4881
19617SOL     OW76842  12.536  13.342   1.083  0.2350  0.3089 -0.7964
19617SOL    HW176843  12.479  13.415   1.058 -0.3230 -0.2152 -1.0810
19617SOL    HW276844  12.570  13.366   1.168 -0.8457  0.3883 -0.3696
19618SOL     OW76845   4.178   8.758   3.277  0.7189 -0.1185 -0.0084
19618SOL    HW176846   4.241   8.757   3.205  0.4674  1.0563 -0.2715
19618SOL    HW276847   4.121   8.683   3.261  0.8330 -0.0255 -0.9022
19619SOL     OW76848   6.519   5.808   1.850  0.0006 -0.1097  0.4013
19619SOL    HW176849   6.469   5.736   1.810 -0.4571 -0.9557  2.3807
19619SOL    HW276850   6.451   5.870   1.878 -0.0303 -1.1511  2.8883
19620SOL     OW76851  10.379   2.309  11.611 -0.4517  0.0851 -0.5817
19620SOL    HW176852  10.414   2.312  11.522 -0.2517  1.2921 -0.4794
19620SOL    HW276853  10.346   2.398  11.627 -0.8171 -0.2148  0.4170
19621SOL     OW76854   9.717   2.874   0.227 -0.1921  0.0566 -0.3841
19621SOL    HW176855   9.744   2.955   0.182 -0.4447 -1.8103 -4.3569
19621SOL    HW276856   9.794   2.818   0.223 -1.2056 -1.3415 -1.6606
19622SOL     OW76857  10.078  11.086  10.549  0.3683 -0.3744 -0.0018
19622SOL    HW176858  10.169  11.117  10.548 -0.4016  2.1067 -0.5037
19622SOL    HW276859  10.050  11.095  10.640  0.5938 -1.1749  0.1603
19623SOL     OW76860  12.153  10.261   6.560  0.5475  0.3765 -0.5022
19623SOL    HW176861  12.221  10.195   6.550 -0.8424 -1.1686 -0.1639
19623SOL    HW276862  12.122  10.251   6.650 -0.5784  0.5964 -0.8513
19624SOL     OW76863  10.198   6.668   9.537  0.1715  0.1389 -0.6139
19624SOL    HW176864  10.286   6.706   9.537  0.1689  0.1948 -1.9885
19624SOL    HW276865  10.199   6.605   9.464 -0.1266 -1.8073  0.9590
19625SOL     OW76866  11.487   4.089  13.702  0.5603 -0.5593 -0.2964
19625SOL    HW176867  11.510   4.181  13.711  0.5886 -0.4886 -1.0781
19625SOL    HW276868  11.398   4.084  13.736  0.2792 -0.1014 -0.9507
19626SOL     OW76869   0.602   3.682   8.305  0.3043 -0.2192 -0.1092
19626SOL    HW176870   0.521   3.734   8.304 -0.7143 -1.7446 -1.2119
19626SOL    HW276871   0.652   3.718   8.379 -1.1510  1.0880  0.3065
19627SOL     OW76872   2.909   3.808   3.399 -0.3813 -0.3429 -0.4420
19627SOL    HW176873   3.004   3.808   3.396 -0.3035  0.0027  1.0433
19627SOL    HW276874   2.883   3.891   3.359  0.0131  0.1587  0.3341
19628SOL     OW76875  13.665   4.489   7.131 -0.3647  0.5266 -0.0983
19628SOL    HW176876  13.603   4.562   7.118 -1.4424 -0.5585 -1.3872
19628SOL    HW276877  13.677   4.452   7.043  0.7516 -0.3879  0.4178
19629SOL     OW76878   5.496   7.629   6.977  0.3377 -0.2056 -0.2153
19629SOL    HW176879   5.588   7.636   7.004  0.5037 -2.3077 -0.0503
19629SOL    HW276880   5.487   7.539   6.947 -1.3355  0.3745 -1.6091
19630SOL     OW76881   3.371  11.306   4.031  0.6380  0.1075 -0.1160
19630SOL    HW176882   3.304  11.340   4.089  1.4238 -0.6548  1.2966
19630SOL    HW276883   3.413  11.385   3.994 -0.3807  0.5874 -0.2816
19631SOL     OW76884   7.922   9.259   6.208 -0.3591 -0.1705  0.6496
19631SOL    HW176885   7.927   9.310   6.288  0.5119 -0.3701  0.7323
19631SOL    HW276886   7.999   9.285   6.158 -1.0108  0.1167 -0.2309
19632SOL     OW76887   8.480   6.997   8.058 -0.0650 -0.0382  0.4511
19632SOL    HW176888   8.433   7.033   8.133  1.1615 -0.2373  1.3442
19632SOL    HW276889   8.411   6.972   7.996 -1.0789  0.5164  1.3234
19633SOL     OW76890   0.464   1.687   4.581  0.6555  0.1007 -0.0612
19633SOL    HW176891   0.465   1.612   4.521  1.2276  0.5585 -0.6356
19633SOL    HW276892   0.392   1.668   4.642 -1.0439  0.3988 -1.8868
19634SOL     OW76893   0.819   5.279   8.604 -0.1590  0.2928  0.4043
19634SOL    HW176894   0.754   5.344   8.629  0.3449  1.2746 -0.7297
19634SOL    HW276895   0.884   5.328   8.554  0.4515 -1.0117 -0.1306
19635SOL     OW76896   8.041   0.211  12.982 -0.0876  0.7233  0.3769
19635SOL    HW176897   8.100   0.194  12.908 -0.6760  0.4948 -0.0527
19635SOL    HW276898   8.087   0.177  13.058 -1.3946 -3.5705 -0.4636
19636SOL     OW76899   0.357   7.655   1.191  0.3734 -0.1361 -0.0402
19636SOL    HW176900   0.429   7.612   1.146  1.1668  1.7917 -0.7315
19636SOL    HW276901   0.279   7.629   1.142  0.4384 -2.7368  1.0787
19637SOL     OW76902  10.447   3.105  10.910  0.4845  0.6330 -0.3185
19637SOL    HW176903  10.516   3.115  10.977 -0.1206  1.2239  0.2261
19637SOL    HW276904  10.495   3.099  10.828  1.1746  1.9501 -0.0455
19638SOL     OW76905   6.033   6.881  10.929  0.2347 -0.3483  0.3390
19638SOL    HW176906   5.957   6.893  10.987 -2.2631  0.0970 -2.7111
19638SOL    HW276907   6.108   6.878  10.987 -1.8956  1.3652  3.4702
19639SOL     OW76908   4.744   9.156   2.950 -0.5305 -0.1212  0.6249
19639SOL    HW176909   4.835   9.147   2.980 -0.4379 -0.0602  0.3661
19639SOL    HW276910   4.692   9.113   3.018 -0.2049 -1.4641  0.0702
19640SOL     OW76911   8.634   1.759  13.218 -0.1607 -0.1560 -0.8867
19640SOL    HW176912   8.729   1.764  13.205  0.3751 -0.8116  1.9509
19640SOL    HW276913   8.606   1.850  13.225 -0.0827  0.1191 -3.2671
19641SOL     OW76914  12.880   1.173  11.406  0.1852 -0.3283 -0.4251
19641SOL    HW176915  12.962   1.210  11.438  0.2304  0.0574 -0.9807
19641SOL    HW276916  12.901   1.082  11.384 -0.1518 -1.0347  1.8548
19642SOL     OW76917  11.748   4.486   9.962  0.2365 -1.0499 -0.1443
19642SOL    HW176918  11.684   4.460  10.028  1.8598  1.9185  2.9218
19642SOL    HW276919  11.817   4.420   9.968 -0.3849 -1.7187 -0.1576
19643SOL     OW76920   1.961   3.338  10.088 -0.4628  0.1989 -0.0520
19643SOL    HW176921   1.868   3.355  10.074 -0.3348 -0.7804 -2.5138
19643SOL    HW276922   1.965   3.245  10.110 -0.0123  0.1115 -0.5062
19644SOL     OW76923   6.296  13.829   0.339 -0.5321  0.7132 -0.8716
19644SOL    HW176924   6.245  13.804   0.415 -1.7111 -0.0651 -1.8758
19644SOL    HW276925   6.385  13.842   0.372 -0.7067 -1.0332  0.3705
19645SOL     OW76926  12.286   6.810  12.117 -0.0009 -0.3130 -0.1591
19645SOL    HW176927  12.232   6.877  12.159  1.1855 -0.5092  1.8092
19645SOL    HW276928  12.279   6.829  12.023 -1.2756  1.3266  0.2146
19646SOL     OW76929   8.689   7.388   2.582 -0.0555  0.1758  0.3341
19646SOL    HW176930   8.651   7.300   2.590 -1.0334  0.6597  1.2377
19646SOL    HW276931   8.783   7.372   2.575 -0.3435 -1.0351 -1.5241
19647SOL     OW76932   4.105   7.318   4.344 -0.0250 -0.1652  0.6286
19647SOL    HW176933   4.118   7.224   4.349  0.7792 -0.0244  2.9528
19647SOL    HW276934   4.180   7.350   4.293  1.1027 -0.6190  1.9328
19648SOL     OW76935   8.162   4.882   8.465  0.4339 -0.7523 -0.0531
19648SOL    HW176936   8.146   4.902   8.373  1.1835 -0.6487 -0.1688
19648SOL    HW276937   8.077   4.890   8.507  0.2802  0.2582 -0.5465
19649SOL     OW76938   0.544   2.685   6.359 -0.0154  0.5090  0.1093
19649SOL    HW176939   0.490   2.684   6.438 -1.7493  0.0661 -1.0099
19649SOL    HW276940   0.491   2.638   6.294  2.7366 -2.0962 -0.4658
19650SOL     OW76941  12.821   6.701   0.853  0.3447  0.2620  0.8789
19650SOL    HW176942  12.778   6.668   0.775  0.4743 -0.7457  1.2231
19650SOL    HW276943  12.892   6.757   0.820 -0.8898  1.5593  0.3121
19651SOL     OW76944   0.582  11.707   0.223  0.4210 -0.0526  0.2474
19651SOL    HW176945   0.557  11.789   0.265 -0.1635  0.5134 -1.1364
19651SOL    HW276946   0.530  11.705   0.142  1.1348 -1.3249 -0.2044
19652SOL     OW76947   4.734  13.188   8.182  0.0296 -0.0813 -0.2706
19652SOL    HW176948   4.641  13.200   8.204 -0.3631  0.7906 -2.2574
19652SOL    HW276949   4.734  13.148   8.095  1.5325 -0.8904  0.0625
19653SOL     OW76950   3.684   9.874   0.093 -0.0515  0.1748 -0.2664
19653SOL    HW176951   3.619   9.821   0.047  1.1013 -1.2750 -0.2962
19653SOL    HW276952   3.764   9.822   0.089  0.4478  0.6466  2.1484
19654SOL     OW76953  13.708   3.086   8.945  0.0545 -0.6580  0.5094
19654SOL    HW176954  13.749   3.138   8.876 -0.5308  1.3948  1.5921
19654SOL    HW276955  13.729   2.995   8.924 -0.1567 -0.1300 -2.3795
19655SOL     OW76956   3.880   8.243   5.132  0.3129  0.6400 -0.2244
19655SOL    HW176957   3.867   8.240   5.037 -0.9608 -0.9710 -0.0528
19655SOL    HW276958   3.828   8.318   5.161 -1.3861 -0.3426 -0.5758
19656SOL     OW76959  12.454  11.222   3.566 -0.1203 -0.1092 -0.2666
19656SOL    HW176960  12.492  11.156   3.508  1.0486 -1.3746  1.8210
19656SOL    HW276961  12.524  11.287   3.577 -0.1888 -0.0852  0.0340
19657SOL     OW76962   0.457   1.998   2.818  0.4904 -0.0457  0.4582
19657SOL    HW176963   0.384   2.034   2.867  0.3392  0.2988 -0.0102
19657SOL    HW276964   0.529   1.993   2.881  0.6231  1.4190  0.4531
19658SOL     OW76965  11.474   4.634   9.052  0.6559 -0.1071  0.3111
19658SOL    HW176966  11.418   4.617   9.127  0.2810  0.8351  0.2620
19658SOL    HW276967  11.416   4.674   8.987  1.0038 -0.7796 -0.4288
19659SOL     OW76968  12.772  12.852   7.529  0.4625 -0.4697  0.3988
19659SOL    HW176969  12.819  12.913   7.473  1.4390 -0.3363  1.3232
19659SOL    HW276970  12.819  12.855   7.612 -0.6795 -0.9849  1.0932
19660SOL     OW76971  12.162   0.584   0.270  0.1248  0.3078 -0.4400
19660SOL    HW176972  12.139   0.672   0.299  1.5494  0.3284  0.7318
19660SOL    HW276973  12.086   0.555   0.219 -0.3823  2.1860 -0.8333
19661SOL     OW76974   3.099  12.069  12.198  0.1357 -0.1111  0.3180
19661SOL    HW176975   3.030  12.024  12.246  1.6949 -2.2564  0.7231
19661SOL    HW276976   3.180  12.035  12.235  1.5285  3.4162  0.9207
19662SOL     OW76977   1.513  14.030  14.132 -0.0717  0.2650 -0.2611
19662SOL    HW176978   1.507  14.068  14.220  0.0695  0.0972 -0.1783
19662SOL    HW276979   1.436  13.974  14.125  0.8491 -1.1641  0.4556
19663SOL     OW76980  10.770  13.852   2.487 -0.0157  0.0548 -0.6711
19663SOL    HW176981  10.737  13.784   2.546 -1.0123  0.1430 -1.0970
19663SOL    HW276982  10.735  13.828   2.401  1.1449  0.1078 -1.1669
19664SOL     OW76983   8.213   7.387  12.901  0.3414 -0.2659 -0.7593
19664SOL    HW176984   8.118   7.394  12.910  0.5785  0.4173  2.1897
19664SOL    HW276985   8.234   7.440  12.825 -1.7415 -1.8710 -2.6025
19665SOL     OW76986   4.519  10.821   5.184  0.1446 -0.3485 -0.0923
19665SOL    HW176987   4.545  10.761   5.114 -0.9380 -1.3302  0.3061
19665SOL    HW276988   4.424  10.807   5.193 -0.0230  0.9876  0.4333
19666SOL     OW76989   1.170   2.701   0.582 -0.3235  0.2510  0.5750
19666SOL    HW176990   1.262   2.720   0.566 -0.5282  1.0676  0.3732
19666SOL    HW276991   1.143   2.765   0.647 -0.6418 -0.2725  0.9733
19667SOL     OW76992  11.575  13.785   3.843  0.5735 -0.2604  0.1768
19667SOL    HW176993  11.503  13.807   3.783  0.0090  1.4298  1.4050
19667SOL    HW276994  11.552  13.698   3.875 -0.9413  0.2284  0.5224
19668SOL     OW76995   0.883   7.324   4.240 -0.3419  0.0134 -0.0664
19668SOL    HW176996   0.851   7.406   4.202 -1.2240 -0.5411 -0.5490
19668SOL    HW276997   0.953   7.351   4.299 -0.0689  1.0427 -0.8369
19669SOL     OW76998   2.610   5.552   1.880  0.1965 -0.1778  0.3885
19669SOL    HW176999   2.602   5.495   1.804  1.1136  1.0932 -0.7152
19669SOL    HW277000   2.541   5.524   1.939  2.1720 -4.2038  1.1133
19670SOL     OW77001  11.464   2.626   1.070  0.3816  0.2446 -0.3377
19670SOL    HW177002  11.511   2.654   1.149  1.2709 -4.2424  1.0174
19670SOL    HW277003  11.532   2.618   1.003  0.3864  0.1506 -0.3227
19671SOL     OW77004   9.442   7.134   9.547 -0.3439 -0.0048  0.7662
19671SOL    HW177005   9.411   7.138   9.638  0.0384  0.0776  0.8914
19671SOL    HW277006   9.410   7.049   9.516 -1.4068  0.4317  0.6376
19672SOL     OW77007   6.026  13.642   1.751 -0.1617  0.0293  0.2623
19672SOL    HW177008   6.096  13.589   1.713 -0.1599 -0.0844  0.4243
19672SOL    HW277009   6.047  13.647   1.844 -0.7013 -0.5315  0.4260
19673SOL     OW77010   8.622   6.535   8.727  0.4882 -0.5618 -0.3422
19673SOL    HW177011   8.615   6.569   8.816  1.1913 -0.8836 -0.1617
19673SOL    HW277012   8.706   6.567   8.695  0.2627 -0.4889 -0.8779
19674SOL     OW77013  11.260   6.470   2.280  0.1267  0.1361  0.2309
19674SOL    HW177014  11.178   6.467   2.231 -0.0661 -1.2940  0.6061
19674SOL    HW277015  11.239   6.520   2.359 -0.1734  0.4297 -0.0301
19675SOL     OW77016  13.758   8.169   4.333 -0.2194 -0.0487  0.3047
19675SOL    HW177017  13.689   8.141   4.273  0.2248  1.2183 -0.8435
19675SOL    HW277018  13.720   8.244   4.379 -0.2335 -0.4554  0.9679
19676SOL     OW77019  12.113   1.471   5.903  0.1860 -0.2586  0.6951
19676SOL    HW177020  12.045   1.491   5.838  0.7711  1.4696  0.5681
19676SOL    HW277021  12.187   1.527   5.878  0.9405 -0.6405  2.0045
19677SOL     OW77022   4.662   9.755   3.224 -0.0756  0.2152  0.3215
19677SOL    HW177023   4.720   9.682   3.203 -1.5387 -0.7177 -0.7318
19677SOL    HW277024   4.640   9.742   3.317  0.3035 -0.2342  0.3550
19678SOL     OW77025   8.298   5.135  12.111  0.2697 -0.0001  0.4732
19678SOL    HW177026   8.363   5.071  12.139 -0.5297 -1.0339  0.0029
19678SOL    HW277027   8.241   5.088  12.051 -2.5577  0.0759  2.8566
19679SOL     OW77028   2.357   5.987   5.794  0.0403 -0.4724 -0.0938
19679SOL    HW177029   2.297   5.916   5.817 -1.0266  0.1757 -0.7851
19679SOL    HW277030   2.304   6.046   5.739  1.3731  0.0092 -0.8997
19680SOL     OW77031   3.056  13.129   3.803  0.3681  0.1705  0.4745
19680SOL    HW177032   3.012  13.214   3.795 -0.3029 -0.1808  0.3047
19680SOL    HW277033   3.010  13.073   3.740  1.8046  0.0776 -0.5309
19681SOL     OW77034   2.764   4.089  13.212 -0.5083  0.0030 -0.2968
19681SOL    HW177035   2.786   4.052  13.126 -0.1143 -2.1045  0.6482
19681SOL    HW277036   2.841   4.072  13.266 -0.5864  1.6791  0.3983
19682SOL     OW77037   4.971  12.978   8.707 -0.3103 -0.4228  0.2061
19682SOL    HW177038   4.911  12.937   8.769 -0.3575  0.7883  1.0097
19682SOL    HW277039   4.920  12.986   8.626 -0.8996 -0.3454  0.5748
19683SOL     OW77040  13.401   3.328   9.715 -0.0520  0.5769  0.0123
19683SOL    HW177041  13.309   3.346   9.693  0.2356 -0.5883 -2.5217
19683SOL    HW277042  13.449   3.359   9.638  1.6010  0.3555  0.9316
19684SOL     OW77043   8.489   3.008   4.432 -0.1179 -0.0671  0.3402
19684SOL    HW177044   8.529   2.951   4.366 -1.0201  1.7039 -1.8704
19684SOL    HW277045   8.556   3.072   4.453  0.3545 -0.9433  1.6326
19685SOL     OW77046  13.119   1.909  12.640 -0.1365 -0.0659 -0.0108
19685SOL    HW177047  13.117   1.827  12.591  0.5705 -0.5932  0.8059
19685SOL    HW277048  13.038   1.954  12.615  0.7845  0.3225 -2.6692
19686SOL     OW77049   6.423   1.797   7.601  0.1763  1.2030 -0.3221
19686SOL    HW177050   6.401   1.755   7.684 -0.1391  2.8499  0.4733
19686SOL    HW277051   6.513   1.771   7.583 -0.1498 -0.1192 -0.0816
19687SOL     OW77052   9.199   5.053  10.885  0.3512  0.4929 -0.3030
19687SOL    HW177053   9.268   5.111  10.852  0.2607  0.8450  0.1087
19687SOL    HW277054   9.203   5.064  10.980  0.9438 -0.8799 -0.1540
19688SOL     OW77055   3.594   6.188   2.567  0.6903 -0.2375  0.1034
19688SOL    HW177056   3.609   6.119   2.502 -1.3727 -1.2845  0.6450
19688SOL    HW277057   3.620   6.268   2.522 -1.0734 -0.8589 -2.2493
19689SOL     OW77058   8.049   4.123   7.501 -0.4010  0.4640 -0.2670
19689SOL    HW177059   7.999   4.055   7.545 -0.6326  0.4966 -0.4807
19689SOL    HW277060   8.040   4.200   7.557 -0.4209  0.4144 -0.2024
19690SOL     OW77061   6.099  10.656  11.306 -0.6685 -0.0433  0.4004
19690SOL    HW177062   6.157  10.690  11.238  1.0484 -1.4639  1.0682
19690SOL    HW277063   6.016  10.642  11.261  0.1883 -0.2215 -1.2353
19691SOL     OW77064   4.530  13.865  13.531  0.5272 -0.4847 -0.0202
19691SOL    HW177065   4.453  13.808  13.533 -0.0166  0.1834 -0.9729
19691SOL    HW277066   4.604  13.805  13.525  0.0623 -1.1303  0.5591
19692SOL     OW77067   0.979   0.614   3.429 -0.3656 -0.0832  0.4008
19692SOL    HW177068   0.967   0.707   3.449  0.8651  0.2945 -0.5398
19692SOL    HW277069   1.064   0.592   3.467 -0.0558 -0.4941 -0.5154
19693SOL     OW77070  13.984  13.606   6.848  1.4010 -0.0498 -0.5167
19693SOL    HW177071  14.059  13.550   6.869  2.4193  2.0142  1.7934
19693SOL    HW277072  14.004  13.641   6.761  1.7479 -1.6305 -1.1034
19694SOL     OW77073   0.212   0.052   9.832 -0.6177 -0.5018  0.2697
19694SOL    HW177074   0.292   0.096   9.859  0.2423 -1.5031 -0.5538
19694SOL    HW277075   0.148   0.123   9.819  0.6539  0.4944 -0.8309
19695SOL     OW77076  10.917   2.183   3.332 -0.4200 -0.0501  0.0674
19695SOL    HW177077  10.945   2.105   3.286 -1.4973  0.2633 -1.1767
19695SOL    HW277078  10.827   2.164   3.359  0.0891 -0.1141  1.8171
19696SOL     OW77079   6.523   9.180   3.451  0.2370 -0.0345  0.6188
19696SOL    HW177080   6.610   9.201   3.486  0.5696 -0.8346  0.2961
19696SOL    HW277081   6.529   9.088   3.427 -1.2359 -0.5629  2.1605
19697SOL     OW77082   8.835   9.258   0.194  0.2491 -0.2536  0.1768
19697SOL    HW177083   8.777   9.330   0.220  0.0479 -0.4244  0.2061
19697SOL    HW277084   8.894   9.246   0.269 -0.9832 -1.4196  0.9998
19698SOL     OW77085   9.528   3.544   1.681  0.1393 -0.2806 -0.1003
19698SOL    HW177086   9.569   3.459   1.699  1.2496 -0.1670 -1.9005
19698SOL    HW277087   9.435   3.524   1.673  0.2363 -1.1213  0.6659
19699SOL     OW77088  11.216   9.128   0.268 -0.0567 -0.2614  0.2638
19699SOL    HW177089  11.195   9.121   0.175  0.7037 -0.5631  0.1101
19699SOL    HW277090  11.302   9.169   0.271  1.0532 -2.5102  0.7278
19700SOL     OW77091   1.903   6.149  11.665  0.3911  0.0425 -0.5648
19700SOL    HW177092   1.954   6.150  11.584  0.5923 -2.0778 -0.5208
19700SOL    HW277093   1.944   6.216  11.720  1.2124  0.4481 -1.6248
19701SOL     OW77094   1.784   2.554   0.703 -0.3311  0.3899  0.2927
19701SOL    HW177095   1.834   2.472   0.697 -1.5704 -0.3672 -0.0455
19701SOL    HW277096   1.776   2.571   0.796 -0.2672 -0.0167  0.3753
19702SOL     OW77097   5.020   3.837   5.690 -0.6058  0.0875  0.2583
19702SOL    HW177098   5.033   3.861   5.598  0.2728 -0.7401  0.1482
19702SOL    HW277099   4.925   3.826   5.699 -0.8314  1.4606 -0.2006
19703SOL     OW77100   4.891  10.524  11.340 -0.2383 -0.0468 -0.8118
19703SOL    HW177101   4.971  10.472  11.337 -0.6205 -0.8131  0.7851
19703SOL    HW277102   4.843  10.499  11.261  0.2306 -1.0614 -0.7926
19704SOL     OW77103   5.573   7.543  12.086  0.1103  0.1412  0.0658
19704SOL    HW177104   5.565   7.453  12.119  1.1389  0.4779  1.3105
19704SOL    HW277105   5.610   7.592  12.159 -0.5447  1.6165 -0.5666
19705SOL     OW77106   8.122  11.823   8.041  0.5333 -0.0434 -0.1497
19705SOL    HW177107   8.053  11.883   8.070 -0.0084 -1.0448  0.7139
19705SOL    HW277108   8.199  11.879   8.030 -0.2981  1.0409 -0.7673
19706SOL     OW77109  13.420   4.168   8.767 -0.5921  0.3379 -0.1954
19706SOL    HW177110  13.430   4.081   8.805  1.1511  0.9638  0.8895
19706SOL    HW277111  13.330   4.193   8.789  0.3602  0.8248  4.1211
19707SOL     OW77112   1.098   0.326  12.224 -0.4793 -0.3952  0.0020
19707SOL    HW177113   1.033   0.334  12.155  0.0800 -2.0925 -0.7748
19707SOL    HW277114   1.140   0.242  12.208  0.0723 -0.5704  2.0823
19708SOL     OW77115   9.612   2.000   0.125  0.2264  0.6543  0.2254
19708SOL    HW177116   9.533   1.951   0.103  0.7337  1.0883 -3.0167
19708SOL    HW277117   9.684   1.946   0.093  1.2237  0.8773  1.9428
19709SOL     OW77118   9.450   7.461   5.061  0.2685  0.4401  0.5506
19709SOL    HW177119   9.451   7.383   5.116  0.2102  0.0894  0.0617
19709SOL    HW277120   9.413   7.431   4.978  0.4458  0.9408  0.2868
19710SOL     OW77121   3.723   9.246   3.565 -0.4373  0.1162  0.5484
19710SOL    HW177122   3.758   9.213   3.482 -1.0701  0.2635  0.2118
19710SOL    HW277123   3.800   9.262   3.619 -0.0609 -0.7450  0.2774
19711SOL     OW77124  14.117   0.881  13.120 -0.3401 -0.0871 -0.3501
19711SOL    HW177125  14.181   0.811  13.105  0.5831  0.8124 -0.7186
19711SOL    HW277126  14.083   0.903  13.034  0.2367  0.7003 -0.3901
19712SOL     OW77127   0.649   8.181   0.799 -0.1418  0.4595 -0.1310
19712SOL    HW177128   0.690   8.108   0.846  2.8146  1.2043 -1.3277
19712SOL    HW277129   0.594   8.224   0.865 -0.2738 -1.5610  1.1619
19713SOL     OW77130   3.278  13.773  11.037 -0.4543 -0.1593  0.6501
19713SOL    HW177131   3.188  13.800  11.056 -0.1030  1.1250  0.5667
19713SOL    HW277132   3.323  13.854  11.012  0.1826 -1.0985 -1.4951
19714SOL     OW77133   4.522   1.178  10.629  0.5412  0.0398  0.3263
19714SOL    HW177134   4.499   1.263  10.668 -2.0901 -1.6009  2.7347
19714SOL    HW277135   4.448   1.158  10.571  2.0008  0.0885 -1.6841
19715SOL     OW77136   2.221   9.153   4.542  0.2369  0.4521  0.0103
19715SOL    HW177137   2.295   9.093   4.535  0.5452  0.6816  1.1187
19715SOL    HW277138   2.251   9.234   4.501 -0.6121 -0.4716 -2.6402
19716SOL     OW77139   5.708   5.222   6.453  0.1873  0.2174  0.2296
19716SOL    HW177140   5.749   5.228   6.367  0.5181 -1.8128  0.1866
19716SOL    HW277141   5.687   5.312   6.476  0.5029  0.8608 -1.7677
19717SOL     OW77142   2.878   1.380  11.710  0.2278  0.1118 -0.0723
19717SOL    HW177143   2.791   1.341  11.709  0.6203 -0.7921  0.2010
19717SOL    HW277144   2.935   1.313  11.673  0.5429  1.4002 -2.0439
19718SOL     OW77145  10.483   8.415  11.768 -0.5694 -0.0829  0.2608
19718SOL    HW177146  10.558   8.423  11.826 -0.0287  0.6028 -0.5219
19718SOL    HW277147  10.442   8.332  11.794  1.3897 -1.3151 -0.3858
19719SOL     OW77148   5.901   2.041   0.587 -0.6644 -0.5072 -0.8003
19719SOL    HW177149   5.836   2.060   0.655 -0.4459 -0.1986 -0.6778
19719SOL    HW277150   5.971   1.994   0.633  0.4291  1.4324 -0.3815
19720SOL     OW77151   5.841  12.672   6.672 -0.1450  0.4522  0.1605
19720SOL    HW177152   5.836  12.764   6.700 -1.6781 -0.2452  2.4880
19720SOL    HW277153   5.753  12.652   6.640  0.3303 -0.0921 -0.8422
19721SOL     OW77154   7.493  13.614  12.105  0.3343 -0.1642  0.0072
19721SOL    HW177155   7.561  13.552  12.131 -0.0759 -1.2076 -1.2550
19721SOL    HW277156   7.456  13.647  12.187  1.1201 -0.9745  0.6979
19722SOL     OW77157   2.134   0.097  13.894 -0.2190  0.3274  0.0192
19722SOL    HW177158   2.184   0.144  13.961 -0.3686  1.1108 -0.4000
19722SOL    HW277159   2.060   0.058  13.941  1.0119 -1.2412  0.7307
19723SOL     OW77160  13.871  11.840   9.391  0.1326 -0.2949 -0.0164
19723SOL    HW177161  13.929  11.876   9.324  0.2859 -1.9261 -0.8214
19723SOL    HW277162  13.905  11.874   9.474  0.7869  0.6506 -0.6598
19724SOL     OW77163   4.803   4.604  12.329  0.1507 -0.2693 -0.0086
19724SOL    HW177164   4.862   4.577  12.259  2.0860 -1.0824  1.8460
19724SOL    HW277165   4.818   4.698  12.338  0.3653 -0.2796 -0.2439
19725SOL     OW77166   7.587  13.623   0.352  0.1127 -0.2529 -0.3984
19725SOL    HW177167   7.681  13.637   0.360  0.3237 -1.4933 -0.5149
19725SOL    HW277168   7.560  13.594   0.439 -0.2441  0.4710 -0.2593
19726SOL     OW77169   0.073   0.364  13.077  0.3428  0.0925  0.2217
19726SOL    HW177170   0.027   0.427  13.132 -2.8548 -0.9607 -0.9992
19726SOL    HW277171   0.069   0.281  13.125 -2.8550 -0.9342 -1.5441
19727SOL     OW77172   3.980   7.502   5.318  0.0353  0.1399  0.0304
19727SOL    HW177173   4.032   7.577   5.345 -1.2565  0.4824  1.7733
19727SOL    HW277174   3.998   7.435   5.384  0.4176 -0.7521 -0.9527
19728SOL     OW77175   5.516   1.166   7.522  0.5404 -0.5901 -0.0055
19728SOL    HW177176   5.521   1.247   7.470 -0.0724 -1.0296 -0.7710
19728SOL    HW277177   5.606   1.134   7.525  0.3685 -1.5314 -2.4138
19729SOL     OW77178   3.937   3.241   7.565  0.0751 -0.8697 -0.2622
19729SOL    HW177179   3.907   3.239   7.656 -2.0343 -1.6441 -0.9082
19729SOL    HW277180   3.870   3.291   7.518  1.6190  0.3688 -1.2703
19730SOL     OW77181   5.162   3.320  13.724 -0.0709 -0.1774  0.7312
19730SOL    HW177182   5.069   3.308  13.743  0.1207 -0.4299  1.5315
19730SOL    HW277183   5.165   3.402  13.675 -0.8044 -0.6086 -0.0706
19731SOL     OW77184   4.387   1.297   6.358  0.0083 -0.1225  0.6556
19731SOL    HW177185   4.380   1.217   6.306  0.4857 -0.7963  1.6019
19731SOL    HW277186   4.461   1.344   6.320 -1.4178  0.8163 -1.1108
19732SOL     OW77187   4.665   7.239  10.301 -0.0202 -0.2520 -0.2877
19732SOL    HW177188   4.732   7.176  10.327 -0.4863  0.3121  2.5753
19732SOL    HW277189   4.706   7.289  10.230  0.8275 -2.8458 -1.7705
19733SOL     OW77190   5.033   5.865  12.377  0.3917  0.7985  0.5170
19733SOL    HW177191   5.085   5.803  12.327 -0.8042  0.8116 -0.8198
19733SOL    HW277192   5.002   5.928  12.312 -1.0442  0.9529  1.3094
19734SOL     OW77193   5.997   6.681   6.109 -0.3371 -0.1423  0.0916
19734SOL    HW177194   5.975   6.659   6.199 -0.5116  1.1246  0.3854
19734SOL    HW277195   6.065   6.747   6.116 -0.9261  0.5751 -0.6626
19735SOL     OW77196   8.240  10.694  11.055 -0.1386 -0.0288  0.3928
19735SOL    HW177197   8.224  10.775  11.006 -4.2153 -1.4545 -0.9809
19735SOL    HW277198   8.320  10.658  11.016 -0.0313  1.7506 -1.1849
19736SOL     OW77199   7.481  12.327  10.477 -0.3237  0.6775 -0.2703
19736SOL    HW177200   7.505  12.302  10.388  1.4808 -0.3971  0.4767
19736SOL    HW277201   7.504  12.420  10.483 -3.5624  1.7337 -1.8847
19737SOL     OW77202   2.297   1.613   4.842 -0.2271  0.3065 -0.1401
19737SOL    HW177203   2.267   1.529   4.806 -0.5478  0.6030 -0.5756
19737SOL    HW277204   2.364   1.589   4.906  1.5577 -0.1734 -2.0811
19738SOL     OW77205  13.987   2.749  12.902 -0.1151  0.3909 -0.3414
19738SOL    HW177206  13.907   2.704  12.929  0.3025  0.4407  1.0606
19738SOL    HW277207  14.039   2.682  12.859  0.8377 -0.7760  2.4060
19739SOL     OW77208  13.204   5.809   9.922  0.2460 -0.2435 -0.0185
19739SOL    HW177209  13.233   5.795   9.832  0.7262 -0.2607  0.1407
19739SOL    HW277210  13.151   5.732   9.942 -1.2407  0.5031 -0.8363
19740SOL     OW77211   7.745   6.265   2.900 -0.5421 -0.1454 -0.3568
19740SOL    HW177212   7.744   6.170   2.905  2.6028 -0.1934  1.8316
19740SOL    HW277213   7.728   6.294   2.990  1.6247  1.2061 -0.3208
19741SOL     OW77214  14.094   0.406  13.745  0.0678 -0.1131  0.5197
19741SOL    HW177215  14.054   0.465  13.809 -1.1014  1.1889 -1.2943
19741SOL    HW277216  14.053   0.321  13.762  0.4076 -0.0137  1.9974
19742SOL     OW77217   0.378   0.515   3.225 -0.0486  0.4136  0.5178
19742SOL    HW177218   0.308   0.570   3.190 -0.8301 -0.1962  1.0904
19742SOL    HW277219   0.420   0.570   3.291  0.3288  0.9513 -0.1545
19743SOL     OW77220   1.966   3.814   2.006 -0.2389 -0.7752  0.3276
19743SOL    HW177221   2.056   3.828   1.977 -0.6933 -1.4666 -1.6224
19743SOL    HW277222   1.969   3.823   2.101  2.0865 -1.8248  0.4225
19744SOL     OW77223   5.948   3.132   7.165 -0.3745  0.5029 -0.2078
19744SOL    HW177224   5.874   3.110   7.222  0.0495  0.9655  0.5453
19744SOL    HW277225   6.011   3.174   7.224  0.1749  0.7814 -0.9837
19745SOL     OW77226   5.512   8.661  12.932  0.2275  0.1842 -0.4004
19745SOL    HW177227   5.554   8.619  13.007 -0.3736  0.5071  0.1231
19745SOL    HW277228   5.568   8.639  12.858 -0.8225 -2.7636 -0.4368
19746SOL     OW77229   4.909   0.291   9.273 -0.0821 -0.9576  0.4678
19746SOL    HW177230   4.849   0.366   9.270  1.5830  0.4321 -0.5315
19746SOL    HW277231   4.887   0.240   9.195 -0.4944 -0.9229  0.5570
19747SOL     OW77232  10.144  13.676  13.645 -0.7093 -0.0426 -0.3426
19747SOL    HW177233  10.117  13.605  13.587 -0.1457  0.8306 -1.7274
19747SOL    HW277234  10.077  13.744  13.632 -0.6414  0.1138  0.1215
19748SOL     OW77235   4.347   7.099  11.422  0.5034  0.3892  0.0885
19748SOL    HW177236   4.372   7.076  11.511  2.6307  0.1976 -0.4910
19748SOL    HW277237   4.416   7.060  11.367 -0.2667  1.2460 -1.5590
19749SOL     OW77238   1.986   0.303   1.459 -0.8551 -0.0753 -0.3193
19749SOL    HW177239   2.078   0.308   1.433 -0.5686  1.5425  0.8463
19749SOL    HW277240   1.986   0.332   1.551 -2.4857 -0.4201 -0.1804
19750SOL     OW77241  12.029  12.049  12.495  0.0242 -0.3169 -0.1006
19750SOL    HW177242  11.996  12.129  12.455  1.5968 -0.2959 -1.4610
19750SOL    HW277243  11.979  11.979  12.453 -0.6094 -0.1235  0.3165
19751SOL     OW77244  10.078   6.830  13.307 -0.1770 -0.2293 -0.7763
19751SOL    HW177245  10.030   6.748  13.292  0.1031 -0.3707 -0.9112
19751SOL    HW277246  10.167   6.801  13.328 -0.7033 -0.1163  2.0084
19752SOL     OW77247   4.053   7.910  13.193 -0.1179  0.7681  0.3195
19752SOL    HW177248   4.135   7.870  13.224  0.2383  0.8974 -0.4405
19752SOL    HW277249   4.011   7.841  13.142 -0.6582  0.5859  1.0047
19753SOL     OW77250   0.791  14.009   0.833 -0.4477  0.0363  0.0922
19753SOL    HW177251   0.826  13.988   0.920 -1.3554 -0.2854  0.4015
19753SOL    HW277252   0.771  13.924   0.794  1.1788  0.1068 -0.9893
19754SOL     OW77253   8.053   0.785   2.295  0.4889 -0.1695 -0.2724
19754SOL    HW177254   8.005   0.712   2.254  0.3294  0.1703 -0.6958
19754SOL    HW277255   8.021   0.786   2.385 -0.9268  0.5604 -0.7544
19755SOL     OW77256   8.936   6.907   2.034 -0.1646 -0.1511 -0.1681
19755SOL    HW177257   9.031   6.915   2.023 -0.2513  0.0319 -0.8617
19755SOL    HW277258   8.906   6.996   2.048 -0.5493  0.2298 -2.8648
19756SOL     OW77259  10.882   8.213   7.154 -0.0988 -0.0455  0.2509
19756SOL    HW177260  10.917   8.295   7.121 -0.7078  0.3793  0.6529
19756SOL    HW277261  10.958   8.155   7.160  0.2608  0.3434 -0.4538
19757SOL     OW77262   1.530   9.250  12.882  0.4481 -0.0384 -0.0239
19757SOL    HW177263   1.468   9.299  12.936 -0.4174  0.8873 -1.7430
19757SOL    HW277264   1.543   9.168  12.928 -0.8918  0.3680  1.1543
19758SOL     OW77265   5.111   3.086  13.093  0.1040 -0.0185 -0.2330
19758SOL    HW177266   5.016   3.073  13.095  0.0736  0.2681  0.3681
19758SOL    HW277267   5.126   3.159  13.153  0.8677 -1.1235  0.9861
19759SOL     OW77268   1.374  12.112   5.694 -0.7719 -0.8667 -0.9037
19759SOL    HW177269   1.297  12.060   5.672 -0.3876 -2.4768  1.2233
19759SOL    HW277270   1.359  12.140   5.784  0.9132 -0.8450 -0.5918
19760SOL     OW77271   0.191   5.338   3.920 -0.0016  0.5431  0.0721
19760SOL    HW177272   0.203   5.433   3.918  1.2003  0.4222  0.4469
19760SOL    HW277273   0.279   5.303   3.933 -0.5211 -0.5959  0.7183
19761SOL     OW77274   0.838   8.903  14.126  0.1245 -0.2186  0.4607
19761SOL    HW177275   0.896   8.840  14.169  0.4948 -0.1229  0.1088
19761SOL    HW277276   0.830   8.975  14.189  1.4972  0.3982 -0.0275
19762SOL     OW77277  10.896  11.743   0.542  0.3165 -0.2903 -0.3840
19762SOL    HW177278  10.981  11.786   0.532  0.4154 -0.5722 -0.7759
19762SOL    HW277279  10.873  11.755   0.634 -0.2858  1.7967 -0.7482
19763SOL     OW77280   4.144   5.268   8.110 -1.0625 -0.1606 -0.0573
19763SOL    HW177281   4.100   5.339   8.063  1.3476  0.4313 -1.6148
19763SOL    HW277282   4.205   5.313   8.168  0.4653 -0.9012 -1.0370
19764SOL     OW77283   3.612   3.685   7.796 -0.4655  0.0487  0.3091
19764SOL    HW177284   3.684   3.695   7.733  0.8434 -2.8597  1.1526
19764SOL    HW277285   3.641   3.734   7.873 -0.5925  0.9450 -0.1913
19765SOL     OW77286  10.120   0.189   2.938 -0.2793  0.4385 -0.1495
19765SOL    HW177287  10.125   0.283   2.954  0.6025  0.1315  1.6255
19765SOL    HW277288  10.200   0.153   2.977 -1.0025 -1.1356 -0.0080
19766SOL     OW77289   6.266   1.809   3.033  0.7735  0.0304 -0.2979
19766SOL    HW177290   6.362   1.809   3.034  0.7734  0.5121  0.7065
19766SOL    HW277291   6.243   1.805   2.940  1.7699  1.0215 -0.6095
19767SOL     OW77292  11.049  13.908  12.435 -0.2103 -0.4471 -0.0853
19767SOL    HW177293  11.066  13.906  12.529  1.2531  0.5475 -0.2969
19767SOL    HW277294  11.127  13.867  12.396 -0.6732 -0.5896 -0.8849
19768SOL     OW77295  11.045  12.551   6.849  0.0020 -0.5355 -0.4980
19768SOL    HW177296  11.066  12.458   6.861 -0.1263 -0.4950  0.0427
19768SOL    HW277297  11.107  12.581   6.782  1.9515 -0.3410  1.2822
19769SOL     OW77298  13.217   6.061  10.347  0.0987 -0.0858  0.4702
19769SOL    HW177299  13.151   6.102  10.403  1.8364  1.9482  1.1200
19769SOL    HW277300  13.168   6.038  10.267 -1.5842  0.4536  1.2888
19770SOL     OW77301  13.507   4.903   2.811  0.6238 -0.0834  0.1512
19770SOL    HW177302  13.519   4.981   2.867 -1.9602 -0.1628  0.9420
19770SOL    HW277303  13.460   4.936   2.735  1.4435 -0.5276 -0.5588
19771SOL     OW77304  11.670   2.771  13.548  0.2190 -0.3648 -0.4836
19771SOL    HW177305  11.605   2.738  13.611  2.0579 -1.1611  1.0936
19771SOL    HW277306  11.745   2.794  13.602  1.7054 -0.6071 -2.3661
19772SOL     OW77307   3.818  13.814   6.849 -0.2749  0.2574  0.1203
19772SOL    HW177308   3.857  13.866   6.919 -2.0946 -0.8959  2.1304
19772SOL    HW277309   3.892  13.774   6.803  1.1752  4.0934 -1.2458
19773SOL     OW77310  12.849   9.273   8.133  0.0918 -0.1560  0.0063
19773SOL    HW177311  12.811   9.361   8.134  0.7865  0.1454  0.3485
19773SOL    HW277312  12.813   9.232   8.054 -0.0936  0.4979 -0.2544
19774SOL     OW77313  10.861  10.799   7.914  0.1707  0.0455 -0.0176
19774SOL    HW177314  10.854  10.802   7.819 -0.9409 -1.0339  0.0099
19774SOL    HW277315  10.834  10.886   7.943  1.7916  0.8227 -0.7270
19775SOL     OW77316   2.029   9.560  12.271 -0.2350 -0.3156 -0.5063
19775SOL    HW177317   1.946   9.571  12.224 -0.9359 -1.9345  0.2718
19775SOL    HW277318   2.006   9.511  12.350  1.1434  1.0505  0.8343
19776SOL     OW77319   5.024   9.681   5.640  0.0982 -0.2666  0.1830
19776SOL    HW177320   5.025   9.649   5.730  2.0834 -0.0846  0.2713
19776SOL    HW277321   5.077   9.618   5.591 -0.7468 -0.2251 -0.8364
19777SOL     OW77322   8.415   5.419  11.288 -0.1170  0.1589  0.2547
19777SOL    HW177323   8.356   5.394  11.359  1.5777 -0.3128  1.5343
19777SOL    HW277324   8.467   5.491  11.324 -0.0045  0.6762 -0.9072
19778SOL     OW77325  11.943   7.740  13.877 -0.0263 -0.1167 -0.1006
19778SOL    HW177326  11.901   7.751  13.963 -0.2642 -2.5424  0.1649
19778SOL    HW277327  11.874   7.761  13.814 -0.5662 -0.5837  0.3225
19779SOL     OW77328  11.861  13.469  10.173  0.1064  0.1118 -0.7410
19779SOL    HW177329  11.927  13.428  10.230  1.8438  0.8353 -2.1323
19779SOL    HW277330  11.856  13.559  10.205 -2.0011 -0.4949  0.8408
19780SOL     OW77331   0.157   5.023   3.600 -0.5521  0.6041 -0.1238
19780SOL    HW177332   0.210   5.016   3.520  0.5309 -0.3513  0.6393
19780SOL    HW277333   0.190   5.102   3.643 -0.2221  0.3963  0.0099
19781SOL     OW77334   7.813   8.224   8.150  0.1760  1.0539  0.0686
19781SOL    HW177335   7.856   8.253   8.069  1.6239  1.9268  1.1161
19781SOL    HW277336   7.833   8.131   8.155 -1.2688  0.6087 -1.3520
19782SOL     OW77337   9.441   7.068  13.398 -0.3967  0.3678 -0.3853
19782SOL    HW177338   9.518   7.025  13.437 -1.7179 -0.3096  1.6023
19782SOL    HW277339   9.474   7.153  13.370  1.4182 -0.4566 -0.9788
19783SOL     OW77340   4.751   6.713   7.744 -0.4963  0.3275 -0.1234
19783SOL    HW177341   4.747   6.702   7.839 -1.3113 -1.2750 -0.3074
19783SOL    HW277342   4.840   6.743   7.727 -0.1823  0.1479  1.0932
19784SOL     OW77343  13.734  10.600  13.794 -0.5697 -0.2913 -0.2671
19784SOL    HW177344  13.791  10.661  13.748  0.2001 -0.1892  0.7741
19784SOL    HW277345  13.768  10.513  13.770  0.1772 -0.2256  0.5156
19785SOL     OW77346   4.824  12.358   3.136 -0.3952  0.2675  0.4773
19785SOL    HW177347   4.758  12.292   3.154  0.2658 -0.6274 -0.2719
19785SOL    HW277348   4.881  12.318   3.070  1.0882  0.8711  1.3373
19786SOL     OW77349   9.801   5.967   2.866 -0.1264 -0.0047 -0.1203
19786SOL    HW177350   9.870   5.960   2.932  0.6104  0.6208 -0.8028
19786SOL    HW277351   9.720   5.956   2.915  0.3830  0.9126  0.9610
19787SOL     OW77352   4.108   9.671   4.361  0.1657 -0.3419  0.0536
19787SOL    HW177353   4.189   9.718   4.343  1.0576 -1.4866  0.9193
19787SOL    HW277354   4.120   9.635   4.448 -1.2296 -0.6715  0.1377
19788SOL     OW77355   3.976   0.362   9.603 -0.8271  0.2800 -0.4511
19788SOL    HW177356   3.929   0.442   9.578 -1.2813 -0.7665 -3.2798
19788SOL    HW277357   4.058   0.366   9.555  0.4799  0.3629  1.6641
19789SOL     OW77358  13.388   0.892   5.279 -0.1516  0.2924  0.0368
19789SOL    HW177359  13.415   0.890   5.187  0.4310  0.2565  0.2036
19789SOL    HW277360  13.294   0.907   5.277  0.0024  1.2078 -0.5463
19790SOL     OW77361  10.895   7.769   4.935  0.1202  0.0471  0.4388
19790SOL    HW177362  10.836   7.773   5.010  1.2514 -2.1403  1.5412
19790SOL    HW277363  10.975   7.812   4.966  1.1615 -2.2630  1.1523
19791SOL     OW77364   2.918  13.343   8.853  0.4014  0.3714 -0.0376
19791SOL    HW177365   2.957  13.431   8.854 -1.4156  1.2415  1.2529
19791SOL    HW277366   2.942  13.307   8.768  1.8621  1.8095 -0.2829
19792SOL     OW77367   4.458  10.729   4.416  0.2608  0.5600 -0.2133
19792SOL    HW177368   4.551  10.736   4.397  0.9342 -5.9642 -2.0681
19792SOL    HW277369   4.417  10.721   4.329 -1.7953  1.6100  0.6051
19793SOL     OW77370  13.601  13.057   1.373  0.7736  0.1649  0.4114
19793SOL    HW177371  13.658  12.992   1.415  0.1709 -0.1462  0.7494
19793SOL    HW277372  13.659  13.131   1.355  1.4340 -0.4061  0.1557
19794SOL     OW77373   9.423  11.737   3.643  0.0676 -0.3052  0.7993
19794SOL    HW177374   9.350  11.756   3.584  1.1747 -0.6056 -0.7513
19794SOL    HW277375   9.383  11.721   3.728 -1.9670 -3.1479 -0.5291
19795SOL     OW77376   9.182   5.878  11.631  0.3242 -0.3193  0.3609
19795SOL    HW177377   9.263   5.853  11.674  0.5794  0.6819  0.4911
19795SOL    HW277378   9.119   5.811  11.657  0.8069 -0.4460  1.2360
19796SOL     OW77379  13.698   7.369  13.890 -0.3648 -0.4841 -0.1253
19796SOL    HW177380  13.728   7.450  13.933 -2.1396  0.3104 -0.2843
19796SOL    HW277381  13.778   7.319  13.876  0.5111 -0.0014  2.4783
19797SOL     OW77382  14.139   3.022   8.130  0.4744 -0.2283 -0.6090
19797SOL    HW177383  14.134   3.004   8.036  0.2082  0.1255 -0.6680
19797SOL    HW277384  14.109   2.941   8.171 -0.9575  0.1273 -0.8717
19798SOL     OW77385  11.778   5.402  11.641  0.0322  0.7772 -0.2708
19798SOL    HW177386  11.758   5.311  11.665  1.6375  0.0344 -1.6173
19798SOL    HW277387  11.821   5.438  11.719 -0.0785  0.2171  0.0568
19799SOL     OW77388   0.629  10.722   7.422  0.1089 -0.1203 -0.1868
19799SOL    HW177389   0.589  10.798   7.380 -0.9976 -0.1958  0.6870
19799SOL    HW277390   0.569  10.650   7.404 -0.0610 -0.2872  0.9623
19800SOL     OW77391   9.729   7.132  12.056  0.1266  0.0645 -0.4758
19800SOL    HW177392   9.685   7.049  12.039  0.1779 -0.3575  1.2599
19800SOL    HW277393   9.793   7.141  11.985  0.8359 -1.8999 -0.1340
19801SOL     OW77394  11.986   1.060  11.391  0.6901 -0.0094 -0.4600
19801SOL    HW177395  12.047   0.989  11.369  2.3908  1.3829 -0.4071
19801SOL    HW277396  11.967   1.046  11.484  0.1092 -1.0299 -0.7157
19802SOL     OW77397   3.537  10.409   5.426  0.1348 -0.4123  0.5554
19802SOL    HW177398   3.609  10.351   5.402  0.2399 -0.0473 -0.0326
19802SOL    HW277399   3.502  10.371   5.506  1.5384 -0.1214  1.3552
19803SOL     OW77400   8.618  13.830   5.784  0.3269 -0.2551 -0.0917
19803SOL    HW177401   8.544  13.890   5.787 -1.7262 -2.4159 -2.3391
19803SOL    HW277402   8.613  13.782   5.867 -1.4567 -0.9927 -0.5696
19804SOL     OW77403   4.332  11.537   5.718  0.4894 -0.5163 -0.4576
19804SOL    HW177404   4.329  11.553   5.812 -0.0099  0.0894 -0.5735
19804SOL    HW277405   4.425  11.534   5.697  0.6033  0.5082 -0.1325
19805SOL     OW77406  13.300   8.632  11.566  0.6793 -0.1554 -0.2950
19805SOL    HW177407  13.351   8.601  11.491  0.1353 -1.3488 -0.1913
19805SOL    HW277408  13.245   8.701  11.530 -0.7939 -1.8133 -1.4232
19806SOL     OW77409  10.963  12.184  12.208  0.3937  0.0908 -0.0530
19806SOL    HW177410  10.877  12.198  12.247  0.5270  1.6487 -0.2668
19806SOL    HW277411  10.949  12.191  12.114  0.5291 -1.0595 -0.1760
19807SOL     OW77412   2.320   5.451   4.421  0.6841  0.5464  0.5244
19807SOL    HW177413   2.280   5.415   4.500 -2.9313 -0.2725 -1.4755
19807SOL    HW277414   2.388   5.387   4.397  1.0196  0.2074  2.2563
19808SOL     OW77415   8.727   1.652   9.543 -0.1747 -0.0883 -0.6467
19808SOL    HW177416   8.681   1.604   9.474  0.2430 -2.8445  0.8116
19808SOL    HW277417   8.794   1.590   9.574  1.0489  1.8318  0.8102
19809SOL     OW77418   7.536  12.513   7.646  0.2013 -0.5759 -0.4540
19809SOL    HW177419   7.562  12.506   7.738 -1.3286 -0.4524  0.0044
19809SOL    HW277420   7.452  12.557   7.647 -0.8134 -2.3263 -1.7534
19810SOL     OW77421   9.096   3.827   8.137  0.0656  0.3452 -0.1510
19810SOL    HW177422   9.035   3.775   8.085 -0.4037 -0.2799  0.9877
19810SOL    HW277423   9.101   3.911   8.092  1.7973 -1.0117 -2.7616
19811SOL     OW77424   9.958   4.532   6.859 -0.3773  0.3911 -0.0246
19811SOL    HW177425  10.001   4.578   6.786 -0.5778  1.0640  0.2716
19811SOL    HW277426   9.930   4.602   6.918  1.2348 -0.2182  1.5451
19812SOL     OW77427   8.132   4.606   6.272 -0.1392 -0.1137 -0.0513
19812SOL    HW177428   8.112   4.667   6.342 -1.1577 -0.7234  0.2033
19812SOL    HW277429   8.196   4.652   6.217 -1.0829  1.2680 -0.0098
19813SOL     OW77430   1.807   8.331   8.574 -0.5161 -0.2730 -0.6984
19813SOL    HW177431   1.860   8.299   8.501  0.1914 -1.1504  0.1760
19813SOL    HW277432   1.870   8.347   8.644 -1.3224 -0.6076  0.1112
19814SOL     OW77433   0.102  11.346   5.550 -0.2661 -0.0029  0.1438
19814SOL    HW177434   0.070  11.420   5.602  0.3324 -0.4590  1.1746
19814SOL    HW277435   0.058  11.356   5.465 -2.2907  0.0203  1.1444
19815SOL     OW77436   2.022   7.196   2.620 -0.0695  0.1439 -0.3101
19815SOL    HW177437   2.081   7.224   2.549 -0.3894 -2.8817 -1.9339
19815SOL    HW277438   2.080   7.156   2.685 -0.0147  0.5130 -0.1303
19816SOL     OW77439   9.325   1.523   5.644 -0.3015 -0.1406 -0.5148
19816SOL    HW177440   9.385   1.454   5.616 -1.0950 -1.5184  1.0146
19816SOL    HW277441   9.238   1.493   5.615 -0.7971 -0.3757  1.1250
19817SOL     OW77442   0.931   0.104  12.632  0.5526  0.0419 -0.4332
19817SOL    HW177443   0.887   0.127  12.550  1.4054  1.4119 -0.5335
19817SOL    HW277444   1.024   0.118  12.614  0.7435  0.4629  0.7891
19818SOL     OW77445   1.112   7.449   4.313  0.6940 -0.4753 -0.1931
19818SOL    HW177446   1.185   7.452   4.375  0.6009  1.4722 -0.1069
19818SOL    HW277447   1.153   7.444   4.227  0.8311 -2.7549 -0.0364
19819SOL     OW77448   8.617  10.249   9.141  0.2109 -0.4157  0.3457
19819SOL    HW177449   8.556  10.239   9.069  1.3515  0.0078 -0.7170
19819SOL    HW277450   8.566  10.228   9.219 -1.6969  1.3759 -0.3337
19820SOL     OW77451  13.157   7.525   1.735 -0.7304 -0.0440  1.0317
19820SOL    HW177452  13.170   7.461   1.664  1.3154  1.2224  0.1811
19820SOL    HW277453  13.065   7.548   1.729 -0.9230 -1.0195 -0.2958
19821SOL     OW77454  11.384   0.407   4.189  0.2990  0.1694  0.0217
19821SOL    HW177455  11.296   0.390   4.157  0.7474  1.8012 -2.3486
19821SOL    HW277456  11.377   0.402   4.284 -1.7759 -2.0998 -0.1689
19822SOL     OW77457   5.606   9.964   8.596 -0.0948  0.5032  0.3850
19822SOL    HW177458   5.564   9.988   8.679 -0.8235  2.1392 -0.4145
19822SOL    HW277459   5.563   9.883   8.570 -2.5854  1.9170 -0.2017
19823SOL     OW77460   8.922   2.318  11.030 -0.0311 -0.3104  0.5576
19823SOL    HW177461   8.847   2.270  10.994 -1.7957  1.5398  1.5432
19823SOL    HW277462   8.994   2.255  11.027 -0.7801 -1.2506 -3.2287
19824SOL     OW77463   9.266   4.509   5.852 -0.0816  0.1546  0.3451
19824SOL    HW177464   9.232   4.524   5.941 -2.3944  1.1304 -0.6237
19824SOL    HW277465   9.292   4.417   5.851 -3.8563 -1.0723  0.9314
19825SOL     OW77466  10.504   6.339  11.277 -0.1277 -0.5094  0.0810
19825SOL    HW177467  10.555   6.349  11.357 -1.9197 -1.3219  1.4065
19825SOL    HW277468  10.428   6.397  11.290 -0.2927 -0.4129 -1.1807
19826SOL     OW77469   2.582   8.871  11.844 -0.1080  0.9748  0.1951
19826SOL    HW177470   2.516   8.941  11.848  0.4032  1.4248  2.3615
19826SOL    HW277471   2.597   8.857  11.751 -2.3166  1.7550 -0.3407
19827SOL     OW77472   7.296   4.128   4.725 -0.2707 -0.2983  0.1329
19827SOL    HW177473   7.206   4.160   4.726  0.3983  1.7282 -0.2380
19827SOL    HW277474   7.307   4.093   4.636  0.1323  2.1045 -0.8231
19828SOL     OW77475  13.107   1.600   8.179 -0.2649 -0.4718  0.1981
19828SOL    HW177476  13.085   1.604   8.086 -0.2542 -1.1340  0.1593
19828SOL    HW277477  13.023   1.594   8.223 -0.2623 -0.3792  0.2153
19829SOL     OW77478   6.720  11.965   4.328 -0.3221  0.0065  0.2628
19829SOL    HW177479   6.797  11.953   4.272  0.0235 -1.1329  0.9420
19829SOL    HW277480   6.751  11.945   4.416 -1.5875 -1.2836  0.4476
19830SOL     OW77481  10.186  10.147  12.944 -0.6910 -0.9819  0.1194
19830SOL    HW177482  10.245  10.200  12.891 -0.8144  0.5345  1.3858
19830SOL    HW277483  10.207  10.057  12.922  0.9240 -0.4476 -0.6893
19831SOL     OW77484   9.848  10.156  12.389 -0.3250  0.0650  0.3319
19831SOL    HW177485   9.937  10.120  12.391 -1.5237 -3.3288 -0.1780
19831SOL    HW277486   9.844  10.215  12.464  2.2961  0.2194  0.4387
19832SOL     OW77487   8.521   7.921   6.365  0.1295 -0.0437 -0.3227
19832SOL    HW177488   8.440   7.871   6.362  0.2448 -0.1627 -2.5992
19832SOL    HW277489   8.582   7.872   6.311  1.3247  0.7625  0.2455
19833SOL     OW77490   8.581   1.024   9.881 -0.0547 -0.1600  0.4023
19833SOL    HW177491   8.590   1.072   9.963 -0.8646 -1.4716  1.2954
19833SOL    HW277492   8.537   0.942   9.905 -0.1406 -0.6659 -1.3079
19834SOL     OW77493  11.189   9.732   8.066  0.1177 -0.2471  0.3458
19834SOL    HW177494  11.148   9.662   8.015 -0.7154  0.2088  0.3775
19834SOL    HW277495  11.193   9.698   8.155  1.3828 -0.9607  0.0525
19835SOL     OW77496  13.105   8.880   0.727 -0.3474 -0.2135  0.6861
19835SOL    HW177497  13.066   8.966   0.714 -0.4280 -0.3664 -0.0853
19835SOL    HW277498  13.168   8.893   0.798 -0.1111  0.5587  0.3446
19836SOL     OW77499   0.923   7.734   4.924 -0.1660 -0.1017  0.5295
19836SOL    HW177500   0.931   7.725   4.829 -0.1413  0.4356  0.4753
19836SOL    HW277501   0.977   7.663   4.960  0.6099  0.2694  0.1414
19837SOL     OW77502   6.635  13.884  13.884 -0.4582  0.2423  0.0679
19837SOL    HW177503   6.631  13.974  13.851 -0.8408  0.1970 -0.0195
19837SOL    HW277504   6.543  13.859  13.894 -0.3718  0.4959  1.8331
19838SOL     OW77505   2.352  10.573   7.305  0.0078 -0.4651 -0.3011
19838SOL    HW177506   2.284  10.512   7.277  0.7921 -1.4122 -0.1847
19838SOL    HW277507   2.358  10.635   7.233  0.8471 -1.9116 -1.5372
19839SOL     OW77508   4.235  10.683   6.443 -0.1169 -0.2067  0.3190
19839SOL    HW177509   4.202  10.768   6.417  0.5489 -0.3526 -1.0779
19839SOL    HW277510   4.222  10.680   6.538 -2.4941  0.4086  0.0781
19840SOL     OW77511   6.160   0.985  10.385 -0.4728  0.6062  0.0750
19840SOL    HW177512   6.193   1.062  10.338  1.3503 -1.5896 -2.5441
19840SOL    HW277513   6.086   0.956  10.333 -0.1789 -0.2813  0.1432
19841SOL     OW77514   3.713   1.391   6.276  0.0784  0.4155  0.0437
19841SOL    HW177515   3.781   1.350   6.330  0.0924  3.1964  2.4182
19841SOL    HW277516   3.751   1.397   6.189  2.1370  0.1984  0.8666
19842SOL     OW77517   2.085   6.959  10.010  0.3266  0.2503  0.1184
19842SOL    HW177518   2.094   7.046   9.972  0.2999  1.1136  1.9450
19842SOL    HW277519   1.994   6.934   9.992  0.3191  0.6235 -0.3747
19843SOL     OW77520   0.577   8.267   6.490 -0.0144 -0.1360 -0.8801
19843SOL    HW177521   0.542   8.344   6.535 -1.4037 -0.6030 -1.1288
19843SOL    HW277522   0.670   8.266   6.513 -0.5767 -0.1339  1.6890
19844SOL     OW77523   6.255   6.741   6.886 -0.1052 -0.1845 -0.1211
19844SOL    HW177524   6.168   6.729   6.924 -0.2406 -1.1473 -0.7134
19844SOL    HW277525   6.242   6.729   6.792  0.3240  1.6308 -0.4583
19845SOL     OW77526  12.722   3.849   9.147 -0.0544 -0.1403 -0.9868
19845SOL    HW177527  12.715   3.778   9.082 -0.0318  0.2283 -1.3976
19845SOL    HW277528  12.752   3.806   9.227  0.8205 -0.4556 -1.4761
19846SOL     OW77529   7.159   9.898   2.303  0.7223  0.5346  0.0852
19846SOL    HW177530   7.139   9.829   2.240  1.0205 -0.4651  1.0577
19846SOL    HW277531   7.195   9.852   2.379  2.2669  1.8715  0.2187
19847SOL     OW77532   7.294   3.419   3.245 -0.7236  0.7979  0.7817
19847SOL    HW177533   7.337   3.423   3.160  0.3286  0.7946  1.2898
19847SOL    HW277534   7.208   3.456   3.231 -0.2942  1.4753 -0.1221
19848SOL     OW77535   7.401  13.730   6.769  1.0221  0.2101 -0.0621
19848SOL    HW177536   7.487  13.693   6.747  0.7218 -0.0276 -0.8702
19848SOL    HW277537   7.371  13.680   6.844  1.9191  0.7953  0.7106
19849SOL     OW77538   8.867   9.358   2.423 -0.2898 -0.0205  0.0066
19849SOL    HW177539   8.960   9.356   2.402 -0.4988  1.2847 -1.1631
19849SOL    HW277540   8.828   9.288   2.371 -0.1505  0.2997 -0.5299
19850SOL     OW77541   4.872   3.220  12.076  0.1459 -0.7329  0.0082
19850SOL    HW177542   4.785   3.256  12.057  1.4298  2.1979 -0.7787
19850SOL    HW277543   4.894   3.256  12.162  0.9280 -0.7583 -0.1799
19851SOL     OW77544   4.448  10.854   0.980  0.4894  0.0087  0.3619
19851SOL    HW177545   4.411  10.839   0.893 -0.9402  0.2484  0.9041
19851SOL    HW277546   4.498  10.935   0.971 -1.0875  0.9992  0.1585
19852SOL     OW77547  12.149   0.285   9.531  0.6172 -0.0800 -0.2950
19852SOL    HW177548  12.114   0.300   9.443  0.0406  0.1098 -0.0407
19852SOL    HW277549  12.072   0.265   9.584  0.7249  1.4463  0.5123
19853SOL     OW77550   2.819   7.946   7.281  0.3187 -0.1091  0.5040
19853SOL    HW177551   2.772   7.956   7.364 -0.8896  1.0820 -0.2958
19853SOL    HW277552   2.826   8.034   7.246  0.6757 -0.6107 -0.7407
19854SOL     OW77553   3.055  12.249   3.755  0.1790 -0.4428 -0.5853
19854SOL    HW177554   2.959  12.242   3.750  0.1640 -1.1709  0.3908
19854SOL    HW277555   3.072  12.280   3.844  0.8751 -0.8908 -0.5551
19855SOL     OW77556   4.818   5.605   3.983  0.2783 -0.0143  0.7046
19855SOL    HW177557   4.807   5.622   3.889  0.2552 -0.8101  0.5581
19855SOL    HW277558   4.843   5.690   4.020  0.5871  0.2423 -0.0700
19856SOL     OW77559   1.263   5.288   7.899  0.4869  0.0118  0.5454
19856SOL    HW177560   1.274   5.281   7.805  1.6046 -0.5205  0.7095
19856SOL    HW277561   1.168   5.280   7.912  0.3968 -0.7995 -0.4540
19857SOL     OW77562  12.594  13.174  11.786 -0.1253 -0.8376 -0.3140
19857SOL    HW177563  12.646  13.133  11.855 -0.8054 -2.5010 -0.7504
19857SOL    HW277564  12.620  13.130  11.706  1.7826  2.1090 -1.4773
19858SOL     OW77565  11.358   8.626   6.600 -0.5829  0.3792 -0.0371
19858SOL    HW177566  11.346   8.534   6.578  0.8997 -0.1829  1.3314
19858SOL    HW277567  11.288   8.671   6.553 -3.1738 -1.7512  1.4980
19859SOL     OW77568   2.360   3.977   5.231 -0.1936  0.0291 -0.0563
19859SOL    HW177569   2.365   4.019   5.317  0.9519  0.3119 -0.2492
19859SOL    HW277570   2.272   3.940   5.227  0.2567 -1.4162  1.9102
19860SOL     OW77571  10.020  12.392   1.949  0.0759  0.0657  0.2265
19860SOL    HW177572   9.942  12.442   1.971  1.4374  2.8376 -0.8467
19860SOL    HW277573  10.079  12.403   2.024  0.4832  0.2922 -0.1206
19861SOL     OW77574   9.389  11.933   0.715  0.1299  0.0860 -0.5967
19861SOL    HW177575   9.388  11.941   0.811  0.8891 -0.1286 -0.5673
19861SOL    HW277576   9.353  11.846   0.698 -4.1632  1.6292 -0.7357
19862SOL     OW77577   7.921   3.847   0.755  0.3929 -0.0880  0.2700
19862SOL    HW177578   7.882   3.890   0.679  0.1491  0.0416  0.4674
19862SOL    HW277579   8.015   3.845   0.736  0.1993 -1.3078 -0.6676
19863SOL     OW77580  13.528  12.715  11.861  0.2353 -0.8205  0.6222
19863SOL    HW177581  13.510  12.679  11.774  0.3488  0.1042  0.2065
19863SOL    HW277582  13.624  12.714  11.868  0.2053 -1.5929  1.0486
19864SOL     OW77583   9.422  13.998   1.568  0.5195  0.0521 -0.3423
19864SOL    HW177584   9.455  14.087   1.553 -0.2657  0.5427  0.7248
19864SOL    HW277585   9.359  14.008   1.639 -1.0612 -1.0532 -1.5332
19865SOL     OW77586  10.077   4.907   3.874  0.5409  0.0089 -0.4476
19865SOL    HW177587  10.102   4.996   3.851  1.3136  0.4418  1.8723
19865SOL    HW277588  10.027   4.876   3.798 -0.5902  2.7441 -0.9279
19866SOL     OW77589   9.097   2.057  11.792 -0.1638 -0.3457 -0.4564
19866SOL    HW177590   9.077   1.993  11.860 -0.5638 -1.4607 -1.5767
19866SOL    HW277591   9.189   2.043  11.772  1.5747  3.4712  3.3384
19867SOL     OW77592  12.026  11.701   0.020  0.1866  0.7019 -0.4197
19867SOL    HW177593  11.955  11.649  -0.018  2.3081 -1.5488 -1.5781
19867SOL    HW277594  12.071  11.641   0.079  1.1748  2.0456  0.2557
19868SOL     OW77595  13.154   3.445  10.988  1.0943  0.0029 -0.4904
19868SOL    HW177596  13.204   3.371  10.954  1.8869 -0.6247  1.8802
19868SOL    HW277597  13.107   3.411  11.063  0.0166  1.4964 -0.4296
19869SOL     OW77598   2.308  12.614   0.486 -0.1484 -0.3296 -0.3977
19869SOL    HW177599   2.325  12.521   0.474  2.2296  0.0327 -0.3267
19869SOL    HW277600   2.296  12.649   0.398 -0.9122 -0.6629 -0.4311
19870SOL     OW77601  10.542  11.780   8.665  0.1269 -0.2561 -0.2707
19870SOL    HW177602  10.553  11.809   8.574  1.5147 -0.8754 -0.3306
19870SOL    HW277603  10.473  11.836   8.700 -0.5666 -0.1352 -1.7570
19871SOL     OW77604   1.323   0.830  14.054  0.0740 -0.3903 -0.1080
19871SOL    HW177605   1.279   0.872  13.980 -0.8035 -1.3888 -0.1854
19871SOL    HW277606   1.256   0.827  14.122  0.7973  0.2834  0.6363
19872SOL     OW77607   1.448   3.534   4.143  0.1148 -0.3496  0.0811
19872SOL    HW177608   1.358   3.503   4.153 -0.7897  2.7857  4.3365
19872SOL    HW277609   1.500   3.476   4.200  0.7890 -1.7627 -1.8827
19873SOL     OW77610   1.061   4.208   4.278  0.2169  0.0894  0.3560
19873SOL    HW177611   1.014   4.289   4.258  0.7485  0.2773 -0.1798
19873SOL    HW277612   0.995   4.139   4.269 -0.8891  0.6524  3.3068
19874SOL     OW77613  12.155   2.936   8.748 -0.1454  0.7372 -0.5051
19874SOL    HW177614  12.236   2.906   8.708 -0.6318 -1.7431  0.2161
19874SOL    HW277615  12.182   2.987   8.824  0.7774 -0.9472  0.3364
19875SOL     OW77616   7.528   4.128   6.522 -0.1288 -0.7145  0.0525
19875SOL    HW177617   7.501   4.051   6.571 -0.6560  0.7507  2.2081
19875SOL    HW277618   7.509   4.107   6.430  0.2588 -3.3092  0.5004
19876SOL     OW77619   5.472  12.045   7.270  0.4007  0.8740  0.7298
19876SOL    HW177620   5.467  12.134   7.234  2.9409  0.7309 -0.1503
19876SOL    HW277621   5.488  11.989   7.194 -0.1814 -0.2432  1.4004
19877SOL     OW77622   5.989   8.674  13.489 -0.0367 -0.0060 -0.1927
19877SOL    HW177623   6.007   8.584  13.462  1.4704  0.9586 -2.8588
19877SOL    HW277624   6.073   8.707  13.522 -0.7067  0.3038  1.2851
19878SOL     OW77625   9.371   5.396  11.446 -0.3505  0.2848 -1.0029
19878SOL    HW177626   9.404   5.478  11.483  0.8371 -0.0473 -1.2864
19878SOL    HW277627   9.412   5.391  11.360  0.0974 -0.9140 -0.7339
19879SOL     OW77628   1.380  12.779   7.267  0.3967  0.4606  0.1915
19879SOL    HW177629   1.308  12.777   7.330  0.6904  0.0228  0.5183
19879SOL    HW277630   1.451  12.730   7.310  0.2460 -0.7739 -0.9184
19880SOL     OW77631   7.327   7.577  10.149 -0.1844  0.5164 -0.1775
19880SOL    HW177632   7.374   7.633  10.211 -0.6363  0.1619  0.4903
19880SOL    HW277633   7.333   7.624  10.065  2.9347 -0.3730 -0.5678
19881SOL     OW77634  11.377   1.235   9.294 -0.2513 -0.4918  0.1496
19881SOL    HW177635  11.412   1.207   9.210 -2.3528 -0.5190 -0.7788
19881SOL    HW277636  11.441   1.204   9.358  2.1605  0.7960 -1.4694
19882SOL     OW77637   0.363   8.380   5.091  0.3312  0.0054 -0.3260
19882SOL    HW177638   0.378   8.341   5.005  1.1143  0.3153 -0.3334
19882SOL    HW277639   0.305   8.318   5.135  0.7866 -0.6873 -0.6847
19883SOL     OW77640   0.134   9.248   1.879 -0.6566 -0.0777 -0.1973
19883SOL    HW177641   0.082   9.305   1.936 -0.3496 -0.6161  0.6426
19883SOL    HW277642   0.145   9.168   1.930  3.3305  0.9268  0.8871
19884SOL     OW77643  11.088   2.579   4.248  0.5969  0.0103 -0.0655
19884SOL    HW177644  11.044   2.494   4.249  0.7176 -0.0480  0.5047
19884SOL    HW277645  11.172   2.562   4.205  0.3691 -0.0278 -0.5040
19885SOL     OW77646  10.399   0.988   7.260  0.1280  0.0382 -0.1511
19885SOL    HW177647  10.317   1.037   7.252  0.0256 -0.1245 -0.1012
19885SOL    HW277648  10.374   0.905   7.301  0.1666 -0.4322 -1.0546
19886SOL     OW77649   6.770  14.113  11.703 -0.0411  0.3891 -0.0595
19886SOL    HW177650   6.680  14.129  11.675 -0.2787  0.8266  0.9024
19886SOL    HW277651   6.769  14.027  11.744 -0.3539  0.9589  1.1976
19887SOL     OW77652   8.430  10.168   2.358  0.0285 -0.0295  0.3605
19887SOL    HW177653   8.474  10.084   2.373  0.4083 -0.0109 -0.6114
19887SOL    HW277654   8.347  10.144   2.317  0.5356  0.1123 -0.7702
19888SOL     OW77655   8.938  11.075   2.339 -0.0822  0.4318 -0.2601
19888SOL    HW177656   9.021  11.057   2.385 -0.1022 -0.0539 -0.4060
19888SOL    HW277657   8.927  11.000   2.280 -1.2543 -0.1541  0.6537
19889SOL     OW77658  13.665   9.383  11.307 -0.5580  0.3838  0.2247
19889SOL    HW177659  13.580   9.395  11.348 -0.0272  1.2692  1.1113
19889SOL    HW277660  13.711   9.466  11.322  1.1098 -0.6885  1.3252
19890SOL     OW77661   8.452   5.946  11.602  0.3380  0.4166  0.4505
19890SOL    HW177662   8.406   5.863  11.618 -0.0849  0.6652  0.5366
19890SOL    HW277663   8.495   5.965  11.686  0.2684  0.3876  0.4936
19891SOL     OW77664  10.358   3.126   3.669 -0.0751  0.6409 -0.5993
19891SOL    HW177665  10.349   3.218   3.691  2.3344  1.3053 -2.0160
19891SOL    HW277666  10.389   3.126   3.578 -0.8166 -1.6155 -0.9235
19892SOL     OW77667  10.133   3.585   9.448  0.0424 -1.0411 -0.5333
19892SOL    HW177668  10.157   3.675   9.425 -0.5727 -0.8545 -0.4643
19892SOL    HW277669  10.082   3.554   9.374 -2.0431 -0.4021  0.5611
19893SOL     OW77670   4.188   9.127   8.166  0.2390 -0.1680  0.1253
19893SOL    HW177671   4.135   9.047   8.171 -0.4341 -0.0407 -3.0333
19893SOL    HW277672   4.124   9.198   8.174  0.0452 -0.0207 -2.0805
19894SOL     OW77673   0.487   0.231  14.123  0.1931 -0.1690  0.3100
19894SOL    HW177674   0.427   0.209  14.051 -0.3202 -3.4469  1.5719
19894SOL    HW277675   0.441   0.299  14.172 -1.1414 -0.5039 -0.4082
19895SOL     OW77676   9.463  14.155   2.094  0.1775 -0.1161 -0.5466
19895SOL    HW177677   9.525  14.152   2.167 -1.2291 -0.2343  0.6830
19895SOL    HW277678   9.491  14.230   2.042  1.2538 -0.0799  0.0539
19896SOL     OW77679  13.455   5.313  13.538  0.8370  0.7397  0.2640
19896SOL    HW177680  13.493   5.328  13.451  1.2590  0.0011  0.3138
19896SOL    HW277681  13.505   5.369  13.597  0.5767  1.2120  0.0475
19897SOL     OW77682   4.826   4.039   7.662 -0.1485 -0.0416  0.2705
19897SOL    HW177683   4.808   4.046   7.756  0.8717  1.8280  0.3869
19897SOL    HW277684   4.888   3.966   7.655 -1.5997 -1.3747  0.7898
19898SOL     OW77685   9.354  11.660  13.937  0.2979  0.3172 -0.0546
19898SOL    HW177686   9.295  11.650  13.861 -0.0320 -0.2112  0.2702
19898SOL    HW277687   9.429  11.708  13.902 -1.1096  2.6845 -0.0927
19899SOL     OW77688   6.311   4.270   1.718 -0.0676  0.6181 -0.7015
19899SOL    HW177689   6.336   4.247   1.629  0.6992  0.6414 -0.5022
19899SOL    HW277690   6.394   4.271   1.767 -0.5390  0.0521  0.1348
19900SOL     OW77691   3.093   3.248   1.508 -0.1150 -0.1755 -0.2518
19900SOL    HW177692   3.032   3.178   1.533 -1.4351  0.0558 -2.5152
19900SOL    HW277693   3.052   3.328   1.540  0.1316 -0.2079  0.1515
19901SOL     OW77694  13.453  14.069   9.955  0.4944 -0.0568 -0.0487
19901SOL    HW177695  13.422  14.009   9.887  1.3712 -0.5421 -0.0379
19901SOL    HW277696  13.523  14.118   9.913  0.2954  0.4240  0.1783
19902SOL     OW77697   2.805  11.090   8.675  0.3952  0.0492  0.1653
19902SOL    HW177698   2.785  11.173   8.717  0.6648  0.0645  0.2669
19902SOL    HW277699   2.733  11.076   8.613  1.3544  1.3475 -1.3257
19903SOL     OW77700   2.859   7.789   5.548 -0.5749  0.7132  0.2948
19903SOL    HW177701   2.771   7.822   5.566 -0.8424 -0.0393  0.3862
19903SOL    HW277702   2.847   7.697   5.525 -0.0530  1.1228 -1.8510
19904SOL     OW77703  10.585   6.996   6.325 -0.8629  0.2914  0.5415
19904SOL    HW177704  10.507   6.953   6.288 -0.6958  0.7134 -0.3248
19904SOL    HW277705  10.620   6.932   6.387 -0.9457 -0.5982 -0.3090
19905SOL     OW77706   0.021   3.811  12.316 -0.1853  0.8370  0.1720
19905SOL    HW177707  -0.006   3.750  12.385 -1.0088  1.2052  0.1924
19905SOL    HW277708   0.036   3.755  12.240  1.2438  0.3672  0.7713
19906SOL     OW77709   5.698   4.768   7.069 -0.4964 -0.1144 -0.5290
19906SOL    HW177710   5.630   4.794   7.007  0.1165 -1.6616 -1.9238
19906SOL    HW277711   5.777   4.762   7.016  0.3620 -0.0760  0.7151
19907SOL     OW77712   4.170   0.592  11.539  0.3349 -0.4598  0.4184
19907SOL    HW177713   4.082   0.618  11.511 -0.2599 -0.1828  2.3849
19907SOL    HW277714   4.229   0.647  11.487 -0.5846 -1.0992 -1.4031
19908SOL     OW77715   7.677   3.871   5.412 -0.6358  0.4546 -0.2003
19908SOL    HW177716   7.681   3.824   5.328 -0.0694 -1.5061  0.8516
19908SOL    HW277717   7.618   3.818   5.466 -1.6536  2.1392  0.3955
19909SOL     OW77718  11.945   0.614   6.038 -0.7545 -0.5873 -0.0051
19909SOL    HW177719  11.971   0.550   6.104  1.9733 -0.5026 -0.8784
19909SOL    HW277720  11.887   0.566   5.979 -2.2569 -0.9849  1.6847
19910SOL     OW77721   3.871  12.693   3.367  0.2638  0.2328  0.4354
19910SOL    HW177722   3.816  12.760   3.326 -0.0678 -0.2572  0.0639
19910SOL    HW277723   3.952  12.696   3.317  0.1707  0.2141  0.2803
19911SOL     OW77724  11.702   0.054   8.778 -0.3414 -0.2704  0.5328
19911SOL    HW177725  11.695   0.110   8.701 -0.5107 -0.8496  0.1150
19911SOL    HW277726  11.631  -0.009   8.768  1.3516 -2.1590 -0.3683
19912SOL     OW77727  13.290   9.529   2.224  0.0450 -0.5541 -0.0582
19912SOL    HW177728  13.344   9.596   2.265  2.1722 -2.2095 -0.0088
19912SOL    HW277729  13.304   9.541   2.130  0.6444 -1.0850 -0.0402
19913SOL     OW77730  12.662   2.752   4.565 -0.1131  0.5453  0.2193
19913SOL    HW177731  12.636   2.677   4.619 -2.0490  0.0873 -1.2422
19913SOL    HW277732  12.750   2.774   4.596 -0.5895 -0.5461  2.5822
19914SOL     OW77733   7.978   7.209   1.142  0.3975  0.4341 -0.7626
19914SOL    HW177734   8.015   7.231   1.228 -0.6749  2.1285 -0.6838
19914SOL    HW277735   8.041   7.147   1.105 -1.6178 -4.8047  3.2952
19915SOL     OW77736  13.091  14.141   9.405  0.1733 -0.5424  0.4203
19915SOL    HW177737  13.043  14.074   9.454  1.1996 -2.3561 -0.9003
19915SOL    HW277738  13.182  14.127   9.429  0.6610 -1.2478 -1.6060
19916SOL     OW77739   0.134   3.687   7.241 -0.8579 -0.8426 -0.7626
19916SOL    HW177740   0.053   3.636   7.242 -1.2271 -0.2908 -1.5523
19916SOL    HW277741   0.121   3.751   7.171 -0.2243  0.0419 -0.0910
19917SOL     OW77742   7.329   6.495  13.068  0.1760  0.1387  0.4178
19917SOL    HW177743   7.352   6.513  13.159  0.6004  0.2157  0.3000
19917SOL    HW277744   7.319   6.582  13.028 -1.5873  0.1211  0.7628
19918SOL     OW77745   0.154   1.924  11.070  0.2564  0.0078  0.2660
19918SOL    HW177746   0.182   1.870  10.997  0.6425  2.3198 -1.4233
19918SOL    HW277747   0.070   1.961  11.042 -0.0820  0.1857  1.4336
19919SOL     OW77748   3.559   6.012   8.052  0.3933 -0.0210  0.0547
19919SOL    HW177749   3.591   5.943   8.110 -0.6911 -0.6118 -0.0320
19919SOL    HW277750   3.636   6.066   8.035  1.0356 -0.6362  0.9241
19920SOL     OW77751  11.896   6.977   7.632  0.1659 -0.0152 -0.2269
19920SOL    HW177752  11.807   6.945   7.646  0.3340  0.1595  1.4165
19920SOL    HW277753  11.946   6.899   7.609 -0.5935  0.0508 -2.3043
19921SOL     OW77754   6.867   6.173   2.723 -0.6513  0.0044 -0.1831
19921SOL    HW177755   6.838   6.136   2.807  0.5876 -0.8353 -0.0959
19921SOL    HW277756   6.939   6.116   2.696  0.6095  1.7155 -0.6079
19922SOL     OW77757   6.207   0.893  13.425  0.4232 -0.2519 -0.2625
19922SOL    HW177758   6.226   0.904  13.332 -0.4219  0.7373 -0.3341
19922SOL    HW277759   6.293   0.879  13.465  1.3286  3.1084 -0.7102
19923SOL     OW77760   7.508   1.899   3.371  0.1704 -0.3091  0.1131
19923SOL    HW177761   7.574   1.876   3.306 -1.5136 -1.7101 -1.1890
19923SOL    HW277762   7.512   1.828   3.435  0.6778  0.2055  0.6688
19924SOL     OW77763   7.116   2.300  13.134 -0.4725  0.1423 -0.0654
19924SOL    HW177764   7.080   2.358  13.201  0.3306  2.2347 -1.3104
19924SOL    HW277765   7.205   2.332  13.121  0.1048 -1.5895 -0.6419
19925SOL     OW77766   9.874   5.204   3.220  0.1239  0.6491  0.0458
19925SOL    HW177767   9.885   5.109   3.226 -0.2481  0.4965 -1.2769
19925SOL    HW277768   9.961   5.240   3.239 -0.0034  0.1383  1.8068
19926SOL     OW77769  10.481   2.675   9.019  0.5417 -0.1549 -0.3013
19926SOL    HW177770  10.553   2.661   8.957  0.8766 -2.2454  0.4645
19926SOL    HW277771  10.515   2.641   9.102 -0.5012  1.0309  0.6298
19927SOL     OW77772   5.062   2.214   0.965 -0.2913 -0.2992 -0.0492
19927SOL    HW177773   5.025   2.154   0.900 -0.5432  0.4920 -0.6561
19927SOL    HW277774   5.138   2.252   0.921 -0.2277 -0.0558  0.2685
19928SOL     OW77775  10.860   0.069   3.764 -0.7486  0.3151  0.0933
19928SOL    HW177776  10.805   0.090   3.688  0.0562 -0.0859 -0.6216
19928SOL    HW277777  10.948   0.096   3.738 -0.4177 -0.0551  0.7992
19929SOL     OW77778   9.917   5.484   6.808 -0.0044  0.3700  0.1943
19929SOL    HW177779   9.926   5.579   6.797 -1.1510  0.4942  0.1982
19929SOL    HW277780   9.987   5.447   6.754 -0.9115  1.1596 -1.5890
19930SOL     OW77781   4.334  12.500   3.561 -0.3514  0.1268  0.4083
19930SOL    HW177782   4.371  12.503   3.649 -0.8477 -0.5847  0.6543
19930SOL    HW277783   4.406  12.472   3.505 -0.3646 -0.7397  0.8018
19931SOL     OW77784  11.955   4.341   2.576  0.4050 -0.0872  0.4193
19931SOL    HW177785  11.985   4.310   2.661  0.4039 -0.7060  0.1976
19931SOL    HW277786  11.869   4.379   2.594  0.7111  0.4283  0.8141
19932SOL     OW77787   5.765   4.244   6.166 -0.4415  0.1446 -0.1641
19932SOL    HW177788   5.680   4.200   6.157 -0.7400  0.9036 -1.2064
19932SOL    HW277789   5.827   4.173   6.181 -1.3751 -0.3602  1.7165
19933SOL     OW77790   2.770   0.227   5.554  0.0987  0.4735  0.3766
19933SOL    HW177791   2.752   0.321   5.558  1.3529  0.8086 -1.0933
19933SOL    HW277792   2.748   0.202   5.465  0.4976 -0.4782  0.5325
19934SOL     OW77793  12.168  10.209  10.218  0.2133  0.4766 -0.3927
19934SOL    HW177794  12.202  10.211  10.308 -1.5945  0.2144  0.3225
19934SOL    HW277795  12.227  10.148  10.172  0.7234  0.0586  0.7843
19935SOL     OW77796   8.987  13.115   6.908 -0.0381 -0.2163 -0.4743
19935SOL    HW177797   9.030  13.031   6.892  0.0803 -0.1814 -0.3374
19935SOL    HW277798   8.895  13.092   6.922 -0.2311 -0.2174 -1.6021
19936SOL     OW77799   9.668   0.300   0.193 -0.1878 -0.1149 -0.4384
19936SOL    HW177800   9.708   0.213   0.192 -0.4724 -0.2467 -0.4548
19936SOL    HW277801   9.741   0.360   0.180  0.4496 -0.1771  2.2817
19937SOL     OW77802   1.772   6.869  13.478  0.0379  0.2849  0.0215
19937SOL    HW177803   1.853   6.872  13.529  0.0693  0.8653 -0.0650
19937SOL    HW277804   1.797   6.900  13.391 -0.4518  1.2890  0.2319
19938SOL     OW77805  13.230   3.201   7.991 -0.0456  0.2532 -0.4993
19938SOL    HW177806  13.248   3.113   8.023 -0.4325  0.4315  0.2393
19938SOL    HW277807  13.144   3.223   8.026  0.1805  1.0455 -0.4034
19939SOL     OW77808   2.139   5.362   8.710 -0.4321  0.3603  0.0257
19939SOL    HW177809   2.231   5.386   8.712 -0.5593  0.8492  0.3544
19939SOL    HW277810   2.128   5.299   8.781 -0.0758 -0.7596 -0.9001
19940SOL     OW77811   7.952   0.049   4.608  0.3717  0.0023  0.2473
19940SOL    HW177812   7.932  -0.042   4.589  1.4360 -0.2698  0.3438
19940SOL    HW277813   8.046   0.057   4.591 -0.0007  1.4835 -1.3095
19941SOL     OW77814  10.309   0.440   9.409  0.2424  0.6384  0.4081
19941SOL    HW177815  10.325   0.530   9.438  0.7538  0.3561  1.0512
19941SOL    HW277816  10.230   0.413   9.456 -0.1813  0.9033 -0.1455
19942SOL     OW77817  12.322   5.705   5.447  0.5338  0.0729  0.2698
19942SOL    HW177818  12.241   5.688   5.496  0.4577  1.3531  0.6133
19942SOL    HW277819  12.321   5.639   5.377  0.9862 -2.2656  2.3166
19943SOL     OW77820   5.240  13.692   7.308 -0.4778  0.2513  0.4463
19943SOL    HW177821   5.182  13.679   7.383 -0.9633 -2.0374 -0.2272
19943SOL    HW277822   5.318  13.639   7.328 -0.8688 -0.9008 -0.8634
19944SOL     OW77823  13.990   5.128  13.226 -0.4728 -0.0527  0.2270
19944SOL    HW177824  13.923   5.171  13.279  0.5419 -0.5118  1.9272
19944SOL    HW277825  14.053   5.094  13.289  0.9889 -0.2865 -1.2988
19945SOL     OW77826  11.708   4.818   3.211  0.2555 -0.0433  0.6255
19945SOL    HW177827  11.681   4.784   3.297  1.6646  0.5867  1.3519
19945SOL    HW277828  11.737   4.907   3.228  2.0009 -0.4028 -0.2102
19946SOL     OW77829   2.630   1.063   3.538 -0.1467 -0.0987 -0.5349
19946SOL    HW177830   2.640   1.017   3.455  0.5577 -0.2891 -0.3467
19946SOL    HW277831   2.538   1.089   3.539 -0.2763 -0.4989 -1.1611
19947SOL     OW77832   1.549  11.721   7.343  0.9915  0.4955 -0.7730
19947SOL    HW177833   1.467  11.721   7.392  0.7638 -2.4433 -0.9582
19947SOL    HW277834   1.616  11.743   7.409  0.1912  1.9461 -0.4074
19948SOL     OW77835   1.127  10.518   0.238 -0.2007  0.9394  0.0095
19948SOL    HW177836   1.080  10.520   0.321 -0.3447 -1.9104  0.0829
19948SOL    HW277837   1.065  10.478   0.176  1.1769 -0.5001 -0.5056
19949SOL     OW77838   8.476   9.124  10.402 -0.2261 -0.0961 -0.3018
19949SOL    HW177839   8.525   9.125  10.484 -1.4788 -0.3157  0.4741
19949SOL    HW277840   8.478   9.215  10.372  2.7095 -0.4816 -1.5969
19950SOL     OW77841   3.118   9.180   9.044  0.1626 -0.2914 -0.5128
19950SOL    HW177842   3.073   9.184   8.960 -1.1537  0.9243  0.2189
19950SOL    HW277843   3.077   9.107   9.090 -1.1037  0.7800  0.1313
19951SOL     OW77844   0.632   4.608   8.872 -0.1208 -0.3158  0.1906
19951SOL    HW177845   0.586   4.664   8.809  0.4604 -1.2353 -1.0997
19951SOL    HW277846   0.599   4.520   8.854  0.1599 -0.6105  1.0883
19952SOL     OW77847   7.556   7.835   8.998  0.3827 -0.2022 -0.1687
19952SOL    HW177848   7.594   7.822   8.911 -2.0498 -0.1000 -1.3274
19952SOL    HW277849   7.580   7.924   9.022  0.2624  0.1189 -1.1887
19953SOL     OW77850   6.612   1.562   1.327  0.4371  0.2415 -0.2086
19953SOL    HW177851   6.681   1.517   1.277  0.5266  0.5535 -0.3709
19953SOL    HW277852   6.531   1.518   1.300  0.4660  0.5139 -0.7609
19954SOL     OW77853   7.319   4.902  13.478 -0.0520  0.7370  0.6313
19954SOL    HW177854   7.345   4.990  13.505 -1.5754  1.0816  1.0919
19954SOL    HW277855   7.254   4.916  13.409  0.8463 -0.0797 -0.4207
19955SOL     OW77856  10.222  13.502   4.644  0.2813 -0.1633 -0.0226
19955SOL    HW177857  10.263  13.565   4.704  1.2615 -0.0796 -0.7490
19955SOL    HW277858  10.130  13.528   4.642  0.2688 -0.0284  1.2562
19956SOL     OW77859   3.743  13.833  12.628 -0.7480  0.3068 -0.1446
19956SOL    HW177860   3.806  13.778  12.674 -0.4605 -1.3435 -2.3300
19956SOL    HW277861   3.764  13.922  12.654  0.7072 -0.4006  1.2464
19957SOL     OW77862   7.187   4.639  13.252  0.3623 -0.6393  0.0398
19957SOL    HW177863   7.124   4.612  13.319  2.3433  0.5353  2.5739
19957SOL    HW277864   7.164   4.730  13.234 -0.3693 -1.0515 -1.1754
19958SOL     OW77865   3.080   8.846   0.132  0.2116  0.2175 -0.0959
19958SOL    HW177866   3.031   8.773   0.171  0.0156  0.5818  0.3391
19958SOL    HW277867   3.074   8.916   0.196  2.4200 -0.1350  0.5745
19959SOL     OW77868  12.377   3.882  10.096 -0.4867 -0.3424  0.2244
19959SOL    HW177869  12.446   3.818  10.079  0.0461  0.2262  0.2283
19959SOL    HW277870  12.411   3.965  10.063 -1.4056 -0.1587 -0.3102
19960SOL     OW77871   8.053   3.345  12.656  0.1491  0.6358  0.5685
19960SOL    HW177872   8.079   3.340  12.749  1.2993  0.0334  0.2421
19960SOL    HW277873   8.101   3.421  12.623 -0.6001  1.1093  0.5591
19961SOL     OW77874   6.020  12.456   6.308 -0.5455 -0.0501 -0.1232
19961SOL    HW177875   6.036  12.365   6.282 -0.5346  0.2595 -1.2428
19961SOL    HW277876   6.052  12.461   6.398 -1.5199 -1.4232  0.3322
19962SOL     OW77877  10.863   7.588   9.409 -0.5665 -0.0475  0.0415
19962SOL    HW177878  10.793   7.644   9.442 -0.4281  0.0179  0.2280
19962SOL    HW277879  10.854   7.591   9.314 -0.9869 -0.2598  0.0763
19963SOL     OW77880   1.240   6.034   1.097 -0.3507  0.0894 -0.4919
19963SOL    HW177881   1.257   6.117   1.051 -0.3932 -0.0545 -0.7727
19963SOL    HW277882   1.219   5.972   1.027 -1.5376  0.1317 -0.1882
19964SOL     OW77883   1.399   5.499   5.927 -0.4142  0.2809  0.4549
19964SOL    HW177884   1.366   5.476   6.014 -1.2008  0.5485  0.2358
19964SOL    HW277885   1.449   5.579   5.941 -2.0702  1.3567  0.3818
19965SOL     OW77886  11.858   6.762   0.244 -0.5184  0.3804  0.0849
19965SOL    HW177887  11.841   6.668   0.250 -2.7985  0.7350 -0.0157
19965SOL    HW277888  11.824   6.788   0.158  0.0354  1.3203  0.1303
19966SOL     OW77889  11.223   9.773   1.021  0.4319 -0.3568  0.5655
19966SOL    HW177890  11.250   9.693   0.976 -0.7413 -0.5092  0.1025
19966SOL    HW277891  11.258   9.764   1.109  0.9101 -1.0512  0.3143
19967SOL     OW77892  13.652   9.554  12.936  0.1330  0.0454 -0.5292
19967SOL    HW177893  13.736   9.517  12.964 -0.7606 -1.6791  0.0539
19967SOL    HW277894  13.595   9.478  12.925 -1.5776  1.2174 -0.1690
19968SOL     OW77895   6.478  13.106   1.383 -1.0279  0.1727  0.3787
19968SOL    HW177896   6.513  13.141   1.465  0.1090  1.2652 -0.5216
19968SOL    HW277897   6.526  13.025   1.370 -1.7330 -0.3843  1.1330
19969SOL     OW77898   0.307   9.053  10.092 -0.2764 -0.5824 -0.4432
19969SOL    HW177899   0.217   9.036  10.068 -0.5831 -1.1174  0.9726
19969SOL    HW277900   0.307   9.052  10.188  1.0561  0.3283 -0.4017
19970SOL     OW77901   6.451   3.975  11.530  0.5120 -0.1588 -0.1846
19970SOL    HW177902   6.489   4.047  11.580  0.8453 -0.4497 -0.0233
19970SOL    HW277903   6.524   3.918  11.509  0.3890 -0.0168 -1.0581
19971SOL     OW77904   0.784   8.803  12.456  0.1566  0.3110 -0.2919
19971SOL    HW177905   0.719   8.751  12.503  1.6823 -2.4804 -1.0104
19971SOL    HW277906   0.824   8.858  12.524 -0.3314 -0.7775  0.9198
19972SOL     OW77907   2.982   2.966  10.947  0.2160  0.3053  0.5920
19972SOL    HW177908   2.997   2.904  11.017  0.5765 -0.9782 -0.5789
19972SOL    HW277909   3.069   2.986  10.912 -0.1107 -1.5264 -1.4890
19973SOL     OW77910  10.162  13.472   9.191  0.0761  0.2409 -0.0487
19973SOL    HW177911  10.082  13.524   9.186  0.2331  0.4894  0.0046
19973SOL    HW277912  10.231  13.532   9.163  0.1491 -0.1970 -0.8072
19974SOL     OW77913   0.173   0.093   5.823 -0.6200 -0.0738 -0.0694
19974SOL    HW177914   0.163   0.144   5.743 -1.0461  0.1261  0.1106
19974SOL    HW277915   0.246   0.033   5.804 -0.0437  0.6664 -0.2423
19975SOL     OW77916  10.465  11.554   0.381  0.3071 -0.0324 -0.4879
19975SOL    HW177917  10.554  11.523   0.364  0.0766 -1.2416  0.3960
19975SOL    HW277918  10.410  11.503   0.322  0.0471 -0.4802  0.1310
19976SOL     OW77919  13.130  12.244  13.228 -0.4820 -0.0248 -0.1118
19976SOL    HW177920  13.086  12.329  13.230 -2.1085 -0.8500  0.0143
19976SOL    HW277921  13.076  12.189  13.173  1.8440 -0.3483 -2.2556
19977SOL     OW77922  12.424  10.037   6.687  0.3726 -0.0209  0.3199
19977SOL    HW177923  12.427  10.044   6.591 -0.5269  1.5654  0.3575
19977SOL    HW277924  12.442  10.126   6.718  0.9066 -0.5636  1.6469
19978SOL     OW77925   0.414   3.609   7.334  0.3748 -1.0079  0.3189
19978SOL    HW177926   0.376   3.656   7.260 -0.1673 -0.6287  0.8266
19978SOL    HW277927   0.367   3.525   7.336  0.0913 -0.8468  0.4854
19979SOL     OW77928  11.301   6.625   2.802 -0.1905  0.3139 -0.5215
19979SOL    HW177929  11.304   6.630   2.706 -0.7578  2.5136 -0.4986
19979SOL    HW277930  11.237   6.692   2.827 -1.1970 -1.2452  1.3620
19980SOL     OW77931   8.143  11.248  13.239  0.4133 -0.1298  0.0300
19980SOL    HW177932   8.086  11.279  13.168  0.7438 -0.8875 -0.5853
19980SOL    HW277933   8.204  11.189  13.196  0.3761 -0.9067  1.0142
19981SOL     OW77934  10.694   8.420  13.996  0.0569  0.6442 -0.4707
19981SOL    HW177935  10.743   8.388  14.072 -1.7167  1.9345  1.3413
19981SOL    HW277936  10.667   8.341  13.949  2.5292 -0.1305 -0.7197
19982SOL     OW77937   0.478   5.756   2.459 -0.5259  0.1759  0.1361
19982SOL    HW177938   0.467   5.764   2.364 -0.3466  0.1497  0.1126
19982SOL    HW277939   0.571   5.737   2.471 -0.5946 -0.0690  0.3023
19983SOL     OW77940  10.161   1.373  11.523  0.0717  0.0066 -0.7655
19983SOL    HW177941  10.152   1.368  11.428  1.0735 -0.4225 -0.8580
19983SOL    HW277942  10.245   1.418  11.536 -0.8577  1.6152 -0.0556
19984SOL     OW77943  14.054   8.093   8.570  0.1249  0.1318 -0.4796
19984SOL    HW177944  14.029   8.001   8.578  2.8410 -0.5742  1.4518
19984SOL    HW277945  14.126   8.093   8.507  0.3695  0.8785 -0.2143
19985SOL     OW77946   0.161   8.555  13.891  0.6206 -0.2926 -0.4221
19985SOL    HW177947   0.201   8.640  13.908  0.6365 -0.4287  0.2621
19985SOL    HW277948   0.172   8.541  13.797  0.7812  0.3771 -0.5058
19986SOL     OW77949  10.274   2.539   0.205 -0.2039  0.7258 -0.1448
19986SOL    HW177950  10.314   2.622   0.178 -1.1597  1.1865 -0.1841
19986SOL    HW277951  10.321   2.472   0.155 -0.4107  1.3690 -1.2255
19987SOL     OW77952   1.513  12.833   4.190 -0.1592 -0.4337  1.1880
19987SOL    HW177953   1.578  12.813   4.257  1.6347  0.5684 -0.1857
19987SOL    HW277954   1.564  12.859   4.113 -2.1740  3.2356  0.8988
19988SOL     OW77955  13.620   1.910  10.750 -0.0413  0.1936 -0.1808
19988SOL    HW177956  13.668   1.961  10.685  0.1177  0.8643  0.4559
19988SOL    HW277957  13.528   1.921  10.726  0.0896 -1.9661 -2.0597
19989SOL     OW77958  13.777   9.644   1.733 -0.5931  0.2113  0.3059
19989SOL    HW177959  13.855   9.594   1.758 -0.8608 -1.0204 -1.1417
19989SOL    HW277960  13.760   9.617   1.643 -2.5253  0.6912  0.4920
19990SOL     OW77961   5.627   1.623   5.819 -0.6001  0.1216  0.4287
19990SOL    HW177962   5.534   1.612   5.796 -0.3614  0.9186 -1.0286
19990SOL    HW277963   5.639   1.717   5.826  0.2444  0.0609 -0.0677
19991SOL     OW77964   4.463   6.867   1.207  0.2616 -0.0669  0.5158
19991SOL    HW177965   4.398   6.829   1.148  0.7183 -0.1060  0.0358
19991SOL    HW277966   4.479   6.955   1.172  1.9571 -0.7629 -0.5783
19992SOL     OW77967  12.154   2.314  10.518  0.3233 -0.2726 -0.2682
19992SOL    HW177968  12.189   2.352  10.599  1.1481 -0.2774 -0.6160
19992SOL    HW277969  12.212   2.347  10.449  0.5786 -1.5242 -0.6717
19993SOL     OW77970   9.572  10.480  12.741 -0.8005  0.5313 -0.6701
19993SOL    HW177971   9.534  10.417  12.679 -0.1739  1.3181 -1.8959
19993SOL    HW277972   9.567  10.564  12.696  2.7394  0.6471 -1.1265
19994SOL     OW77973   2.307   9.962  13.719  0.4172 -0.1337 -0.4046
19994SOL    HW177974   2.255  10.023  13.666 -1.5062 -1.6770 -0.4275
19994SOL    HW277975   2.392   9.959  13.677 -0.2500  0.6357 -1.8696
19995SOL     OW77976  12.088   1.767  10.978 -0.1035 -0.8572  0.4898
19995SOL    HW177977  12.157   1.707  10.948  0.0368 -0.3781 -0.1594
19995SOL    HW277978  12.010   1.711  10.986 -0.0494 -1.0776 -0.3988
19996SOL     OW77979   4.190  11.179   7.949 -0.2668  0.7099  0.0580
19996SOL    HW177980   4.164  11.213   8.035  0.7863 -0.0372  0.6984
19996SOL    HW277981   4.140  11.231   7.887 -1.6368  0.7587  1.1471
19997SOL     OW77982   1.828  10.967   5.827 -0.1161  0.0201  0.0834
19997SOL    HW177983   1.743  10.993   5.791 -0.0117  1.0338  0.5101
19997SOL    HW277984   1.859  11.046   5.873  0.8205 -0.4952  0.3620
19998SOL     OW77985  13.302   5.280  10.959  0.6678  0.1706  0.0530
19998SOL    HW177986  13.369   5.337  10.999  1.2305  0.1274 -0.7971
19998SOL    HW277987  13.265   5.332  10.888  1.0096 -0.4203 -0.5723
19999SOL     OW77988  10.600   2.222   5.851  0.0407  0.3428  0.6325
19999SOL    HW177989  10.639   2.310   5.850 -0.7115  0.6887  0.1366
19999SOL    HW277990  10.674   2.162   5.844  0.8531  0.7843  3.8582
20000SOL     OW77991  12.949   1.884  10.835  0.3236 -0.1910  0.0123
20000SOL    HW177992  12.932   1.945  10.763 -0.8381 -0.7231 -0.1972
20000SOL    HW277993  13.022   1.922  10.883 -0.6870  1.6254  0.1949
20001SOL     OW77994   4.864   1.215  10.199  0.1578 -0.4843  0.0396
20001SOL    HW177995   4.905   1.199  10.114 -1.3607  0.6007 -0.9444
20001SOL    HW277996   4.832   1.129  10.227  0.8196 -0.8780 -0.3967
20002SOL     OW77997  11.805  11.490   7.888  0.2753 -0.4653 -0.7414
20002SOL    HW177998  11.805  11.548   7.812 -2.5882 -0.6187 -0.9655
20002SOL    HW277999  11.830  11.546   7.961 -1.2897  0.8473 -1.1445
20003SOL     OW78000   2.829  11.616   9.277  0.0156  0.3064  0.2454
20003SOL    HW178001   2.799  11.530   9.248  0.0176  0.5465 -0.4829
20003SOL    HW278002   2.921  11.602   9.302 -0.0850  0.0262  0.4731
20004SOL     OW78003   8.916   8.677   7.766 -0.3076  0.2284 -0.2964
20004SOL    HW178004   8.884   8.669   7.676 -1.5182 -0.8703  0.1960
20004SOL    HW278005   8.840   8.707   7.816  0.5200  1.4331  0.2756
20005SOL     OW78006   2.287  10.005   3.599  0.0299 -0.6097  0.4027
20005SOL    HW178007   2.207   9.997   3.549 -0.3878 -0.0452  0.9551
20005SOL    HW278008   2.259  10.002   3.691  0.6611 -0.6288  0.6049
20006SOL     OW78009   3.153  10.545   2.828  0.1716  0.7070  0.0167
20006SOL    HW178010   3.092  10.494   2.774 -0.0202  1.1162 -0.1596
20006SOL    HW278011   3.217  10.481   2.859 -0.6284  0.1720  0.6118
20007SOL     OW78012  13.569  12.568   5.120 -0.4236  0.0691  0.4972
20007SOL    HW178013  13.643  12.523   5.079 -1.5635 -0.4683 -1.0769
20007SOL    HW278014  13.546  12.638   5.058 -3.5192 -2.0572 -1.0399
20008SOL     OW78015  11.370   5.683  11.802  0.1546 -0.2996 -0.1739
20008SOL    HW178016  11.338   5.625  11.871 -0.8706  0.8819  0.3753
20008SOL    HW278017  11.433   5.629  11.753  1.1117 -1.0888  1.8258
20009SOL     OW78018  10.272   9.722  13.368 -0.1001 -0.6622  0.0298
20009SOL    HW178019  10.327   9.718  13.447 -0.3887  0.4245  0.2916
20009SOL    HW278020  10.271   9.814  13.344 -1.0904 -0.8014 -0.4979
20010SOL     OW78021  14.130  11.044  10.236 -0.0306 -0.0559  0.2665
20010SOL    HW178022  14.106  11.043  10.329 -2.3754  0.6706 -0.2656
20010SOL    HW278023  14.065  10.989  10.193 -0.0930  1.0609 -1.1617
20011SOL     OW78024   1.811   7.668  14.074  0.1480 -0.5031 -0.1081
20011SOL    HW178025   1.801   7.626  14.160 -1.6387 -1.8252 -0.9035
20011SOL    HW278026   1.774   7.605  14.012 -0.2210  1.1610 -1.6686
20012SOL     OW78027  12.195   5.215   7.493  0.0550  0.3408 -0.0762
20012SOL    HW178028  12.184   5.192   7.585  1.1178 -0.2874 -0.0818
20012SOL    HW278029  12.169   5.307   7.488 -0.4297  0.2582  0.7593
20013SOL     OW78030   4.425   4.728  10.273  0.1082 -0.3968 -0.0297
20013SOL    HW178031   4.379   4.666  10.217 -0.4658  0.5800 -0.6767
20013SOL    HW278032   4.386   4.813  10.251 -0.0186  0.0355  1.7240
20014SOL     OW78033  10.915  10.558   1.645  0.1196 -0.1934  0.1337
20014SOL    HW178034  10.904  10.464   1.636 -0.5708 -0.1108  0.1286
20014SOL    HW278035  10.828  10.592   1.662  0.5108  0.3322  1.1839
20015SOL     OW78036  13.175   7.843   9.312 -0.0836 -0.2183 -0.5538
20015SOL    HW178037  13.212   7.803   9.390  2.3312  0.8678 -1.0506
20015SOL    HW278038  13.085   7.867   9.337  0.9369  1.0830  2.2650
20016SOL     OW78039   3.400   9.390  11.977 -0.1172  0.0666  0.3421
20016SOL    HW178040   3.328   9.358  12.031 -0.5021  0.1438 -0.1198
20016SOL    HW278041   3.477   9.343  12.009 -0.5957 -1.0040 -0.0320
20017SOL     OW78042   6.824  10.012   7.647 -0.6759 -0.2998 -0.5857
20017SOL    HW178043   6.893  10.075   7.626 -1.2026  0.6132  0.3642
20017SOL    HW278044   6.800  10.031   7.738 -0.8161 -1.9037 -0.2542
20018SOL     OW78045  12.942  13.420   6.690 -0.0871 -0.2716 -1.1696
20018SOL    HW178046  12.987  13.485   6.635 -2.2412  0.1635 -2.5430
20018SOL    HW278047  12.853  13.453   6.699 -0.3655 -1.3844  0.9634
20019SOL     OW78048   2.597  10.888   5.485 -0.2020 -0.6257 -0.3205
20019SOL    HW178049   2.504  10.909   5.484  0.0429  0.5469 -0.7659
20019SOL    HW278050   2.612  10.848   5.570 -0.3911  2.8561  1.5456
20020SOL     OW78051  11.195   8.247   1.494 -0.4911 -0.0798 -0.2135
20020SOL    HW178052  11.280   8.285   1.472 -0.4950  0.0588  0.0081
20020SOL    HW278053  11.193   8.247   1.590 -0.2483 -1.1730 -0.1975
20021SOL     OW78054   0.711  10.754  10.922 -0.2578  0.3781  0.1786
20021SOL    HW178055   0.790  10.757  10.977 -1.4887  0.6380  2.0355
20021SOL    HW278056   0.740  10.715  10.840  1.3171 -1.8314  1.6761
20022SOL     OW78057   0.704  10.016   4.639  0.7609 -0.6133  0.4671
20022SOL    HW178058   0.616   9.978   4.646  0.8562 -0.8446  0.4380
20022SOL    HW278059   0.747   9.963   4.572  0.0882  1.1398 -1.4207
20023SOL     OW78060   0.664  10.102  10.328 -0.1284 -0.3053 -0.2344
20023SOL    HW178061   0.654  10.077  10.419  0.8393  0.4497  0.0993
20023SOL    HW278062   0.578  10.137  10.303 -0.2780 -0.1256  0.5139
20024SOL     OW78063   9.738   4.444   5.321 -0.4512 -0.2545  0.3181
20024SOL    HW178064   9.785   4.527   5.331 -0.1502 -0.5200  1.2349
20024SOL    HW278065   9.756   4.417   5.231  0.4390  0.0844  0.3790
20025SOL     OW78066   6.390   4.338   5.891 -0.5655  0.0786  0.7454
20025SOL    HW178067   6.441   4.390   5.952  1.0587 -0.5285 -0.0350
20025SOL    HW278068   6.438   4.256   5.883 -0.6094  0.2126 -1.4844
20026SOL     OW78069   6.809  10.176   5.248  0.1317 -0.1130 -0.6014
20026SOL    HW178070   6.850  10.242   5.303 -0.9919  0.8829 -0.9268
20026SOL    HW278071   6.852  10.185   5.163 -0.0462  0.2382 -0.6564
20027SOL     OW78072   8.586   0.166   4.553  0.1855  0.0882  0.3558
20027SOL    HW178073   8.554   0.079   4.576  0.6517 -0.1248  0.2121
20027SOL    HW278074   8.519   0.202   4.495  0.7403 -0.8061 -0.8652
20028SOL     OW78075  11.432   2.182  12.309  0.0069  0.3127  0.5294
20028SOL    HW178076  11.482   2.226  12.378 -1.5719  0.5407  1.5892
20028SOL    HW278077  11.397   2.254  12.256  0.7909  0.1525 -0.2350
20029SOL     OW78078  10.494  12.483   0.733  0.4180  0.0427 -0.3438
20029SOL    HW178079  10.454  12.531   0.661  0.6857  1.4221  0.3852
20029SOL    HW278080  10.431  12.415   0.755 -1.2686  1.7095  0.3096
20030SOL     OW78081   1.036  10.833   0.040 -0.3336  1.1222 -0.3562
20030SOL    HW178082   0.982  10.772  -0.010  1.1807  0.2195 -0.9606
20030SOL    HW278083   1.056  10.904  -0.022 -1.0378  1.6173 -0.0382
20031SOL     OW78084   4.055   2.570  11.121  0.3343 -0.4068 -0.2993
20031SOL    HW178085   3.965   2.598  11.141  0.4502 -0.6524  0.5842
20031SOL    HW278086   4.046   2.482  11.086  0.2970 -0.7336  0.5318
20032SOL     OW78087   2.396   4.867   5.832  0.4186 -0.1435  0.0067
20032SOL    HW178088   2.474   4.853   5.779  1.1531  2.7078  0.1722
20032SOL    HW278089   2.362   4.951   5.802 -1.6156 -0.5053  1.1449
20033SOL     OW78090   4.852   8.961   7.843  0.2957 -0.3852 -0.3168
20033SOL    HW178091   4.889   8.901   7.779  1.4656 -0.0334  0.0004
20033SOL    HW278092   4.846   9.045   7.796  1.2706 -0.0975  0.0532
20034SOL     OW78093   2.439  12.802   5.897  0.7461  0.5560  0.1508
20034SOL    HW178094   2.364  12.862   5.898  1.0878  0.9825  0.6129
20034SOL    HW278095   2.482  12.818   5.814  1.1629  1.3664  0.5155
20035SOL     OW78096   3.205   7.752  10.624 -0.1864 -0.4296 -0.0533
20035SOL    HW178097   3.159   7.759  10.708  0.7403  1.6163  0.3260
20035SOL    HW278098   3.265   7.826  10.623  0.2541 -0.7612 -2.2852
20036SOL     OW78099   6.614  10.528  13.239  0.4252 -0.4876 -0.1238
20036SOL    HW178100   6.561  10.589  13.291  0.1044  0.1458 -1.1660
20036SOL    HW278101   6.687  10.505  13.297  0.1281  0.2739  0.5757
20037SOL     OW78102   7.512  12.334   7.154  0.5832  0.1132 -0.5413
20037SOL    HW178103   7.482  12.421   7.128 -0.0902 -0.1122 -0.5477
20037SOL    HW278104   7.506  12.335   7.249 -0.5457 -0.3015 -0.5913
20038SOL     OW78105  11.090  12.955   8.623 -0.4958 -0.3924  0.3399
20038SOL    HW178106  11.009  12.997   8.654  0.2197 -0.5501  2.6359
20038SOL    HW278107  11.155  13.026   8.623 -0.1676 -0.6927  0.5058
20039SOL     OW78108   3.155   0.980   7.432  0.3463  0.1751  0.9951
20039SOL    HW178109   3.178   0.903   7.483  1.3376 -1.0335 -1.1928
20039SOL    HW278110   3.128   0.946   7.347 -2.2629  2.0539  0.9462
20040SOL     OW78111   7.309   0.777   2.868 -0.3916 -0.2700 -0.0693
20040SOL    HW178112   7.306   0.681   2.872 -1.2307 -0.3735 -2.2584
20040SOL    HW278113   7.222   0.802   2.839  0.5884  0.9826 -2.0879
20041SOL     OW78114   1.215   0.764   8.646  0.4061 -0.2093 -0.1020
20041SOL    HW178115   1.142   0.705   8.628  0.1358  0.3388 -0.8639
20041SOL    HW278116   1.175   0.838   8.693  0.7635 -0.6792  0.9646
20042SOL     OW78117   7.431  12.789   4.360 -0.6767  0.4935 -0.3028
20042SOL    HW178118   7.521  12.819   4.348 -1.1889  1.5002 -1.8496
20042SOL    HW278119   7.411  12.808   4.452 -0.1023  2.5196 -0.5528
20043SOL     OW78120   7.485  13.541   3.529 -0.4601 -0.3099 -0.5281
20043SOL    HW178121   7.525  13.476   3.588  0.4792 -0.3067 -1.1278
20043SOL    HW278122   7.392  13.538   3.549 -0.3782 -1.5500 -0.2453
20044SOL     OW78123   5.480   4.317  13.720 -0.2261  0.0722 -0.2164
20044SOL    HW178124   5.548   4.251  13.734  1.0298  1.3766  0.1371
20044SOL    HW278125   5.489   4.341  13.628 -0.7954 -0.3447 -0.3890
20045SOL     OW78126   6.565  12.264   6.675  0.3997  0.4729  0.3245
20045SOL    HW178127   6.475  12.270   6.643  0.0147  1.9865  1.5720
20045SOL    HW278128   6.559  12.218   6.758  1.1441 -1.6307 -0.7066
20046SOL     OW78129  10.849  11.002   1.219 -0.0673 -0.1808  0.2119
20046SOL    HW178130  10.884  11.088   1.244  0.9877 -0.2458 -0.9675
20046SOL    HW278131  10.754  11.011   1.230 -0.1699  1.7625 -1.6157
20047SOL     OW78132   6.324   6.167   6.064  0.6672 -0.4005  0.0418
20047SOL    HW178133   6.340   6.202   6.152 -2.5612 -1.6243  1.2765
20047SOL    HW278134   6.347   6.074   6.070 -1.7591 -1.0404  0.4080
20048SOL     OW78135  12.895   3.424   4.287 -0.7278 -0.1749  0.2945
20048SOL    HW178136  12.958   3.494   4.308 -0.1132 -1.3771  2.7540
20048SOL    HW278137  12.811   3.458   4.316 -0.9009  0.5832 -1.0237
20049SOL     OW78138   3.136   0.679   6.342 -0.8484  0.0309  0.0052
20049SOL    HW178139   3.042   0.693   6.331 -1.0510  0.0518  1.5202
20049SOL    HW278140   3.174   0.766   6.332 -0.7948 -0.1812 -2.0510
20050SOL     OW78141  13.889   5.070   7.172 -0.1519 -0.3306 -1.0008
20050SOL    HW178142  13.945   5.076   7.094 -0.2350 -0.5182 -1.0763
20050SOL    HW278143  13.929   5.128   7.236  0.7831 -1.3120 -0.6596
20051SOL     OW78144   0.438   2.156   6.789  0.0346  0.0595  0.1006
20051SOL    HW178145   0.464   2.080   6.737 -1.9969 -0.3597 -0.3813
20051SOL    HW278146   0.513   2.216   6.784  0.2407 -0.3298 -2.6172
20052SOL     OW78147   9.566   1.833  10.168 -0.1090 -0.2310  0.1296
20052SOL    HW178148   9.529   1.862  10.085 -0.8502  1.6913  1.0958
20052SOL    HW278149   9.617   1.755  10.145  1.0064  1.1421 -2.3973
20053SOL     OW78150   3.773   7.467  13.002 -0.4073 -0.1538 -0.3302
20053SOL    HW178151   3.718   7.443  13.077 -0.4545 -0.1069 -0.3501
20053SOL    HW278152   3.711   7.487  12.932 -0.3771  0.3556 -0.2132
20054SOL     OW78153   7.270   7.725   6.783  0.1610 -0.3145 -0.0482
20054SOL    HW178154   7.332   7.652   6.792 -0.2211 -0.6947 -0.4984
20054SOL    HW278155   7.291   7.782   6.856  2.9352  0.9738 -1.6841
20055SOL     OW78156  10.833   3.757   1.782  0.0125 -0.4161 -0.5461
20055SOL    HW178157  10.858   3.763   1.689 -0.9120 -0.2865 -0.7968
20055SOL    HW278158  10.746   3.797   1.786 -0.1086 -0.7442  0.3220
20056SOL     OW78159   1.667   7.327  10.871  0.0188 -0.0374  0.2989
20056SOL    HW178160   1.657   7.349  10.964  1.9107  1.6856  0.1518
20056SOL    HW278161   1.624   7.398  10.824  0.6826  0.0715 -0.1537
20057SOL     OW78162   9.782   8.004   8.144  0.8609  0.2764 -0.3222
20057SOL    HW178163   9.788   7.929   8.085  0.1875  2.5634 -3.5182
20057SOL    HW278164   9.699   7.992   8.189  2.0510 -2.2633  1.4375
20058SOL     OW78165   5.592  13.334   1.584 -0.1512  0.7589 -0.4021
20058SOL    HW178166   5.530  13.395   1.625  1.3492  2.8380 -1.0163
20058SOL    HW278167   5.675  13.351   1.629  0.5848  0.0350 -1.4424
20059SOL     OW78168  12.138  13.393   9.758 -0.1983 -0.3797 -0.7746
20059SOL    HW178169  12.157  13.485   9.737  0.7258 -0.3005  0.3409
20059SOL    HW278170  12.053  13.395   9.802  1.2902  0.4019  2.2823
20060SOL     OW78171   6.678   9.250   1.655  0.2533 -0.3767 -1.0477
20060SOL    HW178172   6.759   9.244   1.706 -0.0830  1.8960 -0.1205
20060SOL    HW278173   6.676   9.340   1.623 -1.5003 -0.6260 -1.7677
20061SOL     OW78174   0.876   3.202   7.019  0.0436  0.2533  0.4086
20061SOL    HW178175   0.799   3.183   6.965  0.0728 -0.3684  0.5836
20061SOL    HW278176   0.852   3.280   7.070  0.1178  1.0249 -0.7006
20062SOL     OW78177   8.091   7.194  10.598  0.3732 -0.0590 -0.1047
20062SOL    HW178178   8.125   7.117  10.645  1.6624  1.1299  0.9813
20062SOL    HW278179   8.167   7.227  10.548 -0.7116 -0.7069 -2.3195
20063SOL     OW78180   2.263   5.858  10.991  0.4180 -0.3879  0.2617
20063SOL    HW178181   2.176   5.863  10.952  0.4494 -0.1484  0.2211
20063SOL    HW278182   2.254   5.900  11.076  1.0179  1.8089 -0.6702
20064SOL     OW78183   8.614   5.621   8.780  0.1754 -0.6447 -0.2159
20064SOL    HW178184   8.590   5.583   8.696 -0.2108 -0.2614 -0.2819
20064SOL    HW278185   8.704   5.649   8.769  0.6853 -2.0721  0.0240
20065SOL     OW78186   6.854  12.046  10.313 -0.2383  0.7378 -0.0097
20065SOL    HW178187   6.762  12.027  10.333 -0.4061 -0.2577 -1.6094
20065SOL    HW278188   6.903  11.986  10.370 -0.5681  1.1560  0.7313
20066SOL     OW78189   8.218  13.968  12.065  0.1649  0.5981 -0.0236
20066SOL    HW178190   8.191  13.879  12.090  0.8575  0.4578  0.2493
20066SOL    HW278191   8.137  14.018  12.061 -0.2808 -0.1609 -0.6338
20067SOL     OW78192  13.630  11.192   1.263 -0.1090  0.0672 -0.2248
20067SOL    HW178193  13.677  11.274   1.246  0.1497 -0.1429 -0.5326
20067SOL    HW278194  13.540  11.219   1.283 -0.4522  0.3362 -2.0104
20068SOL     OW78195  11.546   2.692   3.677  0.4115  0.1877  0.2072
20068SOL    HW178196  11.498   2.609   3.680 -1.0146  0.9887  0.9668
20068SOL    HW278197  11.578   2.699   3.588  0.7323 -1.2680  0.1866
20069SOL     OW78198   5.828  13.595   9.328  0.2209 -0.3164 -0.2392
20069SOL    HW178199   5.734  13.611   9.313 -0.2445 -3.3765 -1.2180
20069SOL    HW278200   5.871  13.672   9.292 -1.8878  0.8380 -0.4601
20070SOL     OW78201   3.031   3.497   1.583  0.0963 -0.2416 -0.1341
20070SOL    HW178202   2.998   3.575   1.539  0.7099 -0.0244 -0.2281
20070SOL    HW278203   3.021   3.515   1.676  0.5906  0.1214 -0.1440
20071SOL     OW78204   8.386   2.937   0.914 -0.0236  0.4538 -0.3707
20071SOL    HW178205   8.306   2.888   0.932  0.3294 -0.7929 -1.9751
20071SOL    HW278206   8.376   2.967   0.823  1.4143  0.0679 -0.6787
20072SOL     OW78207   4.688  13.336  10.842  0.7295 -0.1010 -0.2529
20072SOL    HW178208   4.750  13.270  10.873 -1.0114 -0.4959  2.7972
20072SOL    HW278209   4.689  13.404  10.910 -1.7437  0.1124 -0.3542
20073SOL     OW78210  11.170   8.732   5.209  0.7126  0.3807 -0.3353
20073SOL    HW178211  11.142   8.641   5.220 -1.1485  0.8710 -0.7923
20073SOL    HW278212  11.103   8.772   5.153  2.1182  1.7488 -1.1132
20074SOL     OW78213   8.509   6.771   9.845  0.2536  0.1368  0.4908
20074SOL    HW178214   8.446   6.734   9.783 -0.6652 -0.1937  1.5825
20074SOL    HW278215   8.492   6.865   9.845 -0.1357  0.0696  0.6462
20075SOL     OW78216  11.435   1.672   1.710  0.5571 -0.2799  0.0314
20075SOL    HW178217  11.431   1.764   1.683 -0.5491  0.1111  1.3606
20075SOL    HW278218  11.419   1.675   1.805  1.3176 -1.7852  0.2251
20076SOL     OW78219   9.782   3.137   2.827  0.4681 -0.1690 -0.1138
20076SOL    HW178220   9.799   3.229   2.808  0.6507 -0.2490 -0.3391
20076SOL    HW278221   9.687   3.128   2.821  0.4368  0.0382  0.0677
20077SOL     OW78222  12.896   1.728   8.387  0.7965  0.4866 -0.0756
20077SOL    HW178223  12.810   1.688   8.403  0.0304  1.1585 -2.1847
20077SOL    HW278224  12.957   1.671   8.433 -0.7054 -0.3016  1.0667
20078SOL     OW78225  10.105  11.120   6.782  0.4454 -0.0728  0.6745
20078SOL    HW178226  10.080  11.031   6.759 -0.2127  0.4121 -0.5485
20078SOL    HW278227  10.076  11.173   6.709  1.3348  1.0872  1.1315
20079SOL     OW78228   6.543  11.358   7.036  0.1058 -0.4893  0.4272
20079SOL    HW178229   6.539  11.273   6.992 -1.1397  0.4540 -1.4474
20079SOL    HW278230   6.606  11.409   6.985 -0.6602  0.3342  0.2601
20080SOL     OW78231   8.570   1.892  12.669 -0.4796 -0.0602  0.4658
20080SOL    HW178232   8.509   1.950  12.623  0.3196  0.4602  0.0382
20080SOL    HW278233   8.605   1.835  12.600  0.2119  0.2676  0.5363
20081SOL     OW78234   1.027   0.758   2.285  0.2369  0.4107  0.2549
20081SOL    HW178235   0.932   0.764   2.279  0.0935 -1.4308  0.0327
20081SOL    HW278236   1.049   0.680   2.233  1.7296  0.0312  1.3958
20082SOL     OW78237   7.359  13.067   0.412  0.6271  0.1741 -0.4367
20082SOL    HW178238   7.287  13.041   0.470  0.0527  0.5183 -0.9771
20082SOL    HW278239   7.388  12.985   0.371  0.9447 -0.0497  0.2327
20083SOL     OW78240   2.430   9.680   9.806 -1.2961 -0.0952  0.1838
20083SOL    HW178241   2.345   9.711   9.775 -1.4133 -1.3537 -0.8187
20083SOL    HW278242   2.482   9.669   9.727  0.1638  1.5579  0.8349
20084SOL     OW78243   4.302  12.531  11.844 -0.1296  0.4937  0.6165
20084SOL    HW178244   4.377  12.520  11.785 -0.5056  1.4080 -0.0569
20084SOL    HW278245   4.279  12.624  11.836 -0.5607  0.4994  1.7657
20085SOL     OW78246   8.473  11.050   9.032 -0.0089  0.1074  0.5896
20085SOL    HW178247   8.429  11.078   8.952  0.0466 -0.3285  0.4025
20085SOL    HW278248   8.410  10.992   9.074  1.0240 -1.9986 -0.5770
20086SOL     OW78249   6.866   0.119   9.132 -0.0257 -0.4652 -0.2513
20086SOL    HW178250   6.870   0.034   9.089 -0.2506 -1.0137  0.7660
20086SOL    HW278251   6.772   0.136   9.142  0.0200 -0.4178  0.1347
20087SOL     OW78252   6.502   7.127   9.627  0.3147  0.3823 -0.2890
20087SOL    HW178253   6.595   7.108   9.638  0.5310  1.7978  0.6453
20087SOL    HW278254   6.500   7.218   9.596 -0.7509  0.2538 -0.6428
20088SOL     OW78255   8.357  12.023   0.372  0.0369 -1.1909  0.5017
20088SOL    HW178256   8.344  11.991   0.461 -0.3639 -0.1864  0.8201
20088SOL    HW278257   8.437  12.075   0.376  0.6733 -2.1201 -0.0024
20089SOL     OW78258   1.517   8.987   0.864 -0.2642 -0.5370  0.0333
20089SOL    HW178259   1.457   8.961   0.794  0.0244 -1.3926  0.0973
20089SOL    HW278260   1.601   8.949   0.839  0.2889  0.7137 -0.0966
20090SOL     OW78261   1.974   0.998   9.030  0.5772  0.2974 -0.1853
20090SOL    HW178262   1.987   0.921   9.086 -2.7396  0.0836  0.5380
20090SOL    HW278263   1.975   0.963   8.941 -2.7697 -1.1588  0.1688
20091SOL     OW78264   3.960   9.753  12.221  0.0543 -0.1659 -0.4447
20091SOL    HW178265   3.981   9.723  12.133 -0.1190  0.5710 -0.7408
20091SOL    HW278266   4.015   9.830  12.234  0.4385 -0.5434  0.2828
20092SOL     OW78267   7.477   8.906   9.876 -0.2741 -0.5353 -0.3956
20092SOL    HW178268   7.559   8.924   9.924 -1.3054  2.7536  0.4205
20092SOL    HW278269   7.498   8.922   9.785  0.5378 -2.1984 -0.5436
20093SOL     OW78270   5.423   2.599   4.854  0.0120 -0.0022 -0.1531
20093SOL    HW178271   5.444   2.691   4.869  1.8179 -0.2263 -0.9868
20093SOL    HW278272   5.346   2.582   4.908 -1.2754  2.3548 -1.1522
20094SOL     OW78273   9.752   7.431  11.880 -0.2244  0.4932  0.0061
20094SOL    HW178274   9.755   7.443  11.975 -2.5324  1.3547  0.0242
20094SOL    HW278275   9.812   7.498  11.846  0.2364  0.5111  0.8329
20095SOL     OW78276   9.720   6.324   8.181 -0.1543  0.3539 -0.0844
20095SOL    HW178277   9.758   6.409   8.158  0.0480  0.4818  0.7029
20095SOL    HW278278   9.629   6.344   8.202 -0.0984  0.3813  0.1319
20096SOL     OW78279   5.298   9.948   0.842 -0.0104 -0.6172 -0.3580
20096SOL    HW178280   5.264   9.988   0.922  0.0281 -1.5827  0.1562
20096SOL    HW278281   5.312  10.022   0.782 -0.5648  0.0575  0.3253
20097SOL     OW78282   8.423   3.589  12.109 -0.0564  0.1969 -0.7239
20097SOL    HW178283   8.413   3.550  12.196  1.4146  0.5959 -0.3486
20097SOL    HW278284   8.397   3.519  12.048 -1.4833  0.0421  0.0149
20098SOL     OW78285  12.259  11.673   3.564 -0.5059  0.3850  0.1554
20098SOL    HW178286  12.211  11.752   3.591 -0.0635  1.2279 -1.3990
20098SOL    HW278287  12.200  11.601   3.587 -0.8262  1.1195  1.8128
20099SOL     OW78288   2.469   0.265   7.212  0.1677  0.4809 -0.1426
20099SOL    HW178289   2.451   0.174   7.189 -0.4721  0.7862 -0.9080
20099SOL    HW278290   2.545   0.288   7.159  1.4077 -0.0904  1.3085
20100SOL     OW78291  10.959   7.961  12.658  0.4374  0.5996 -0.2780
20100SOL    HW178292  10.918   7.994  12.738  1.3576 -1.1174  0.9580
20100SOL    HW278293  10.893   7.975  12.590 -0.2688  2.3251  0.7031
20101SOL     OW78294   0.205  11.657   1.628  0.2859  0.7167 -0.2250
20101SOL    HW178295   0.118  11.623   1.647  1.0936 -0.9182  0.7911
20101SOL    HW278296   0.220  11.725   1.694 -0.7835  2.0997 -1.3627
20102SOL     OW78297   7.204   3.702  11.629  0.4308 -0.5176 -0.4254
20102SOL    HW178298   7.192   3.609  11.651  0.4326 -0.1793  1.0462
20102SOL    HW278299   7.241   3.700  11.541  1.7063 -1.9553  0.1015
20103SOL     OW78300  12.106  12.200  10.894 -0.5977 -0.1211  0.0094
20103SOL    HW178301  12.082  12.259  10.966  0.7940  0.5075 -0.0115
20103SOL    HW278302  12.132  12.119  10.937  0.0234  0.1811  0.2162
20104SOL     OW78303   7.045   9.483   7.711 -0.2903  0.0277  0.1747
20104SOL    HW178304   7.066   9.510   7.801  1.9244  1.5762 -0.6983
20104SOL    HW278305   7.060   9.389   7.710 -0.2230  0.0104  1.3965
20105SOL     OW78306  13.155   5.141   8.501 -0.2024 -0.0264  0.1532
20105SOL    HW178307  13.243   5.105   8.497 -0.5603 -1.3054  2.1128
20105SOL    HW278308  13.101   5.080   8.450 -0.0297  0.5700 -0.7621
20106SOL     OW78309  13.518   8.595   7.726 -0.0917 -0.1498  0.2638
20106SOL    HW178310  13.492   8.592   7.634  0.7289  0.8047 -0.0146
20106SOL    HW278311  13.516   8.688   7.748  0.1775 -0.3345  1.0820
20107SOL     OW78312   3.063  11.961  13.515  0.2459  0.4118  0.1206
20107SOL    HW178313   3.111  11.888  13.554 -0.3399  0.2044  0.4649
20107SOL    HW278314   2.996  11.983  13.580 -2.2987 -1.4606 -1.6845
20108SOL     OW78315   4.573  11.045   4.767 -0.1873 -0.4208 -0.2207
20108SOL    HW178316   4.593  11.047   4.860 -0.6015 -1.1723 -0.1021
20108SOL    HW278317   4.481  11.071   4.761 -0.1548 -0.3477 -0.4221
20109SOL     OW78318  10.033   7.428   6.132 -0.6639 -0.2396 -0.5782
20109SOL    HW178319   9.975   7.404   6.205 -1.8822  2.6741 -0.4587
20109SOL    HW278320  10.117   7.446   6.174 -0.8788 -0.2788 -0.1205
20110SOL     OW78321  10.822   4.249   7.367 -0.3198  0.8215  0.7562
20110SOL    HW178322  10.856   4.304   7.438  1.2823  0.4409  0.3299
20110SOL    HW278323  10.900   4.209   7.329 -1.2674  0.0027 -0.3886
20111SOL     OW78324  11.269  13.061   7.785 -0.3551 -0.3322  0.0537
20111SOL    HW178325  11.264  12.969   7.811 -0.6832 -0.6987 -1.2343
20111SOL    HW278326  11.327  13.061   7.708 -1.0260  0.4120 -0.4718
20112SOL     OW78327   3.378   1.510   7.336  0.0122 -0.0754 -0.7242
20112SOL    HW178328   3.373   1.579   7.402  0.1489 -1.1275  0.4174
20112SOL    HW278329   3.289   1.475   7.331 -0.2581  0.7194 -1.9255
20113SOL     OW78330   4.663   4.996  10.533 -0.3558 -0.6387  0.3597
20113SOL    HW178331   4.690   5.033  10.617 -0.0756 -0.0498  0.0217
20113SOL    HW278332   4.589   4.940  10.554 -0.2169 -0.5857  1.0154
20114SOL     OW78333   9.361   4.372  14.130 -0.1530 -0.2036 -0.2632
20114SOL    HW178334   9.366   4.324  14.213  2.0870  1.4513  0.6687
20114SOL    HW278335   9.401   4.314  14.066  0.2861 -0.5475  0.3161
20115SOL     OW78336   9.279  12.103   5.407 -0.1645  0.2743  0.0347
20115SOL    HW178337   9.339  12.035   5.374 -1.1202 -0.1265 -0.9644
20115SOL    HW278338   9.290  12.100   5.502  0.0021 -1.1162  0.0032
20116SOL     OW78339   1.925   4.161   2.300 -0.2434 -0.3173  0.3626
20116SOL    HW178340   1.963   4.204   2.377 -0.6658  0.2705  0.2544
20116SOL    HW278341   1.900   4.233   2.242  0.7660 -0.7655 -0.6754
20117SOL     OW78342  12.309   5.312   0.253 -0.2862 -0.1023  0.4677
20117SOL    HW178343  12.360   5.233   0.237 -0.1242  0.2824 -1.1492
20117SOL    HW278344  12.223   5.293   0.215 -0.9271 -0.2312  1.9179
20118SOL     OW78345   4.163   7.499   9.445  0.1230 -0.0259  0.0454
20118SOL    HW178346   4.204   7.516   9.360  0.0881  1.4833  0.3128
20118SOL    HW278347   4.184   7.576   9.498 -1.3782 -0.1250  0.8342
20119SOL     OW78348  11.172   0.081   8.704  0.0240  0.3765 -0.0181
20119SOL    HW178349  11.140   0.017   8.767 -2.1849  1.3121 -0.1236
20119SOL    HW278350  11.266   0.063   8.699 -0.3291 -2.1729  0.6977
20120SOL     OW78351   2.075   5.706   9.248 -0.5903 -0.4033  0.3170
20120SOL    HW178352   2.007   5.751   9.298 -1.1678  3.0684 -3.1154
20120SOL    HW278353   2.028   5.639   9.199 -1.1168  0.2592 -0.1024
20121SOL     OW78354  10.204   9.098  12.731 -0.4784 -0.4935  0.1257
20121SOL    HW178355  10.148   9.037  12.683 -0.8750 -0.2392  0.2642
20121SOL    HW278356  10.236   9.159  12.664 -0.8415 -0.2831  0.1402
20122SOL     OW78357   8.483   7.453  10.074 -0.1178  0.1881  0.1656
20122SOL    HW178358   8.521   7.500  10.148 -0.0771  1.8530 -0.8773
20122SOL    HW278359   8.399   7.496  10.058 -0.3256 -0.4360 -0.5032
20123SOL     OW78360  10.324   3.258   7.735 -0.0750  0.1242  0.3937
20123SOL    HW178361  10.381   3.183   7.757  2.0372  1.6095  0.3084
20123SOL    HW278362  10.299   3.243   7.644 -0.5640 -1.0067  0.6997
20124SOL     OW78363   7.153  14.096   9.245  0.3866  0.1683  0.2184
20124SOL    HW178364   7.069  14.091   9.199 -0.2327  2.0983  1.0026
20124SOL    HW278365   7.134  14.059   9.332  0.8018 -0.8662 -0.1160
20125SOL     OW78366  11.392  12.010   3.209 -0.3186  0.3776  0.3289
20125SOL    HW178367  11.438  12.086   3.176 -1.9195  1.3690  0.2974
20125SOL    HW278368  11.397  11.946   3.138 -0.0945  0.9383 -0.1673
20126SOL     OW78369  10.276   3.367   2.433  0.0608 -0.0616 -0.0110
20126SOL    HW178370  10.361   3.329   2.455  0.6136  0.1498 -1.6344
20126SOL    HW278371  10.297   3.448   2.386 -1.0816  1.1036  1.3802
20127SOL     OW78372  11.767   6.578   9.216 -0.5337  0.3142 -0.4034
20127SOL    HW178373  11.797   6.656   9.263 -1.0958  1.7014 -2.2182
20127SOL    HW278374  11.696   6.543   9.270  1.4798 -0.6534  1.8549
20128SOL     OW78375   7.902  10.951   1.965 -0.0683 -0.2422 -0.0455
20128SOL    HW178376   7.950  10.949   2.048 -0.7142 -1.5820  0.3181
20128SOL    HW278377   7.946  11.019   1.914  2.0064 -1.1710  0.4090
20129SOL     OW78378   6.056  10.666  13.657  0.5043  0.0795 -0.8199
20129SOL    HW178379   5.974  10.708  13.631  0.9052  1.9401  0.7431
20129SOL    HW278380   6.104  10.733  13.705  1.8117 -1.7542  0.5964
20130SOL     OW78381   4.634   5.401   1.950  0.0287  0.5519  0.8564
20130SOL    HW178382   4.650   5.454   1.871  2.2154 -0.0970  0.7937
20130SOL    HW278383   4.641   5.463   2.022  2.9769  0.4110  0.8141
20131SOL     OW78384  11.673   5.411   3.224  0.0486  0.2669 -0.0165
20131SOL    HW178385  11.621   5.336   3.252  0.1286  0.5639  0.9601
20131SOL    HW278386  11.609   5.481   3.210  0.0532  0.2475 -0.1344
20132SOL     OW78387  11.779   9.709   4.253 -1.1576 -0.0044 -0.3919
20132SOL    HW178388  11.726   9.653   4.310 -2.0734  0.3071 -0.9075
20132SOL    HW278389  11.869   9.678   4.264 -1.4521 -0.5724  0.4781
20133SOL     OW78390  10.614   3.972  12.502 -0.2124 -0.5570 -0.1304
20133SOL    HW178391  10.526   3.936  12.490 -0.1289 -0.5649 -0.7520
20133SOL    HW278392  10.673   3.902  12.474 -0.0467  0.0413 -1.3766
20134SOL     OW78393   6.739   9.388   0.191  0.5731  0.4711 -0.1915
20134SOL    HW178394   6.758   9.344   0.108 -2.1945  3.7571 -2.8908
20134SOL    HW278395   6.680   9.328   0.238 -0.3674 -0.1799 -2.1156
20135SOL     OW78396  11.294   6.153   4.601  0.0074  0.4700 -0.0449
20135SOL    HW178397  11.282   6.234   4.651 -0.8849 -0.4296  1.2437
20135SOL    HW278398  11.210   6.108   4.608  0.5312 -0.6358 -0.6512
20136SOL     OW78399  12.720   1.919   5.149  0.3750 -0.1268 -0.1738
20136SOL    HW178400  12.770   1.964   5.081  1.1670  1.1135  1.1481
20136SOL    HW278401  12.653   1.981   5.176 -0.9765 -1.2179 -0.8941
20137SOL     OW78402   4.336   0.295   0.871  0.0054  0.2931  0.4465
20137SOL    HW178403   4.412   0.317   0.816 -0.7550 -0.2037 -0.8651
20137SOL    HW278404   4.266   0.352   0.838  0.0293  1.5160  2.3448
20138SOL     OW78405   1.206   0.680   1.062 -0.1729 -0.2704 -0.2882
20138SOL    HW178406   1.283   0.736   1.058 -0.6231  0.4011  0.1277
20138SOL    HW278407   1.212   0.624   0.985  1.3512 -1.0642  0.3741
20139SOL     OW78408   3.829   1.133   0.888 -0.6456 -0.1317  0.2784
20139SOL    HW178409   3.873   1.173   0.964 -1.3711  2.5175 -0.5905
20139SOL    HW278410   3.898   1.084   0.844  0.5714  0.8920  0.9580
20140SOL     OW78411   5.756  12.387   1.576  0.5969 -0.9848  0.4707
20140SOL    HW178412   5.795  12.310   1.534  2.6369  0.4698 -0.4807
20140SOL    HW278413   5.746  12.362   1.667  2.3141 -2.0269  0.4203
20141SOL     OW78414   9.067   4.074   5.854  0.1526 -0.0787  0.6337
20141SOL    HW178415   9.113   3.991   5.840  0.6225  0.3733 -0.6400
20141SOL    HW278416   8.978   4.058   5.826 -0.0397 -0.4488  1.4228
20142SOL     OW78417  12.631   1.376   3.845 -0.3971 -0.0650 -0.4544
20142SOL    HW178418  12.565   1.416   3.901 -0.0984  0.2789 -0.3445
20142SOL    HW278419  12.597   1.289   3.826 -0.3016 -0.3459  0.6133
20143SOL     OW78420   8.383   1.938   8.637  0.4836  0.2473 -0.2565
20143SOL    HW178421   8.449   1.889   8.686  1.0925  1.1017 -0.2028
20143SOL    HW278422   8.346   1.874   8.576  0.1528 -0.6788  0.8690
20144SOL     OW78423   5.784   1.885   9.440 -0.4668  0.1792 -0.2249
20144SOL    HW178424   5.775   1.835   9.521  0.6053  0.5380  0.1278
20144SOL    HW278425   5.708   1.942   9.439  0.3526  1.3639  1.3886
20145SOL     OW78426  12.481   8.838   0.927  0.1212  0.2089 -0.5217
20145SOL    HW178427  12.425   8.794   0.862 -0.8106  0.2026  0.2627
20145SOL    HW278428  12.569   8.832   0.890  0.0181 -2.1581 -0.5644
20146SOL     OW78429  13.129   2.794   4.189  0.1109 -0.9216  0.2836
20146SOL    HW178430  13.133   2.883   4.153  0.1209 -0.7897  0.6140
20146SOL    HW278431  13.070   2.800   4.263 -1.0224 -1.4954 -0.5514
20147SOL     OW78432   8.941   7.467   1.879 -0.1545 -0.1850 -0.3257
20147SOL    HW178433   8.944   7.562   1.891 -1.1546 -0.2993  1.1224
20147SOL    HW278434   9.019   7.435   1.925  0.4746 -0.0647 -1.2610
20148SOL     OW78435   7.004   8.804   0.981 -0.0555 -0.3773 -0.0350
20148SOL    HW178436   6.980   8.711   0.984 -1.8258  0.0365  0.0392
20148SOL    HW278437   6.921   8.850   0.996  1.1472  1.2033  2.3755
20149SOL     OW78438   0.270   3.481   5.941 -0.4308 -0.2756 -0.3847
20149SOL    HW178439   0.246   3.430   5.863 -2.6540  0.8939 -0.5649
20149SOL    HW278440   0.258   3.572   5.914  0.5355  0.2297  0.8082
20150SOL     OW78441   0.058  13.561  11.650  0.2243  0.5178  0.7909
20150SOL    HW178442   0.076  13.597  11.563  2.0949  1.6359  1.5835
20150SOL    HW278443   0.017  13.476  11.633  1.6696  0.1516 -1.1914
20151SOL     OW78444  12.019   9.720  10.937 -0.0075 -0.1356  0.7784
20151SOL    HW178445  11.976   9.804  10.921  0.7216  0.1656  0.3943
20151SOL    HW278446  11.986   9.662  10.868  1.3984  0.5346 -0.4922
20152SOL     OW78447   3.112   0.269   2.377  0.1909 -0.1896  0.1876
20152SOL    HW178448   3.205   0.244   2.381  0.0608 -0.6171  0.7736
20152SOL    HW278449   3.112   0.363   2.395  0.4730 -0.3021  0.8414
20153SOL     OW78450  10.839   9.146  12.445  0.0742 -0.1122  0.6131
20153SOL    HW178451  10.824   9.122  12.536  2.8610 -0.8451  0.9830
20153SOL    HW278452  10.891   9.074  12.410  0.6567  1.0351 -1.0119
20154SOL     OW78453   9.146  13.482  12.851 -0.0299  0.1571 -0.0763
20154SOL    HW178454   9.175  13.416  12.914  0.0878  1.0704  0.8495
20154SOL    HW278455   9.131  13.432  12.770  0.1161 -0.9878  0.5716
20155SOL     OW78456   0.551   3.535  12.607 -0.2250  0.0491 -0.0275
20155SOL    HW178457   0.599   3.584  12.542  0.1110  0.2001  0.3302
20155SOL    HW278458   0.579   3.444  12.595  0.0987  0.1268  0.1326
20156SOL     OW78459   5.397   7.497   9.029 -0.1415  0.1122  0.3329
20156SOL    HW178460   5.369   7.414   8.991  1.3429 -0.1538 -0.2541
20156SOL    HW278461   5.327   7.558   9.008 -1.2343 -0.9722  0.7483
20157SOL     OW78462   4.861   9.969   6.335  0.2766  0.5970 -0.2109
20157SOL    HW178463   4.806  10.041   6.366 -0.7235 -0.7102  1.2503
20157SOL    HW278464   4.806   9.891   6.345  1.6737 -0.5003 -0.7309
20158SOL     OW78465   2.412   5.664   3.900  0.1645 -0.3436 -0.2607
20158SOL    HW178466   2.444   5.726   3.834  0.2269  0.2561  0.3297
20158SOL    HW278467   2.319   5.655   3.880  0.1252  0.0487 -0.2633
20159SOL     OW78468  10.881   6.773   5.154 -0.7849  0.5023 -0.4339
20159SOL    HW178469  10.792   6.792   5.183 -0.8213  0.5288 -0.5581
20159SOL    HW278470  10.937   6.797   5.228 -0.9728 -0.7181  0.1230
20160SOL     OW78471   0.945   5.464  10.497  0.4264  0.4974  0.2267
20160SOL    HW178472   0.972   5.373  10.487  1.4991  0.8076  0.1665
20160SOL    HW278473   0.879   5.462  10.566 -0.9058 -0.5533 -1.0038
20161SOL     OW78474   6.390   3.415   2.731  0.2592 -0.0219 -0.0343
20161SOL    HW178475   6.463   3.353   2.729  0.0191 -0.3769 -3.2143
20161SOL    HW278476   6.314   3.361   2.757  0.4935 -0.4749 -0.2779
20162SOL     OW78477   8.835   4.127   3.558  0.5596 -0.7560 -0.1279
20162SOL    HW178478   8.775   4.099   3.628  0.0693 -0.2796 -0.3499
20162SOL    HW278479   8.789   4.103   3.477 -0.3687  1.5820 -0.3626
20163SOL     OW78480   2.820  11.694   3.849  0.3619 -0.4049 -0.1190
20163SOL    HW178481   2.884  11.757   3.818 -0.8480  0.8050 -0.2608
20163SOL    HW278482   2.838  11.614   3.798  1.2490  0.1416 -0.6867
20164SOL     OW78483   0.557   4.124   7.696 -0.0067  0.0795 -0.0041
20164SOL    HW178484   0.492   4.159   7.635  1.3846  1.4614 -0.7551
20164SOL    HW278485   0.588   4.200   7.745  0.2762 -0.7212  1.1221
20165SOL     OW78486   0.104  11.025   9.846 -0.2880  0.1663 -0.1626
20165SOL    HW178487   0.194  11.056   9.858 -0.1985  0.1881 -0.8349
20165SOL    HW278488   0.110  10.958   9.778 -0.8249  0.4138 -0.4662
20166SOL     OW78489   2.454   8.969   8.289 -0.6259  0.0029 -0.1203
20166SOL    HW178490   2.514   8.989   8.361  0.1593 -0.1578 -0.7198
20166SOL    HW278491   2.500   8.904   8.237 -1.4090 -0.2726 -0.4917
20167SOL     OW78492   1.620   5.658   7.545  0.7640 -0.0108 -0.1773
20167SOL    HW178493   1.642   5.721   7.477  2.7807  0.2696  0.6669
20167SOL    HW278494   1.543   5.695   7.589  0.9373  1.0298 -0.7312
20168SOL     OW78495   2.532   0.002   0.214 -0.3935  0.2666  0.4537
20168SOL    HW178496   2.497   0.050   0.289 -2.7651 -1.2827  0.4313
20168SOL    HW278497   2.493   0.047   0.138 -1.7248 -0.9417  0.3897
20169SOL     OW78498  12.906  13.332   7.430 -0.1614 -0.8343  0.3478
20169SOL    HW178499  12.935  13.366   7.345 -0.1783  0.9298  1.0170
20169SOL    HW278500  12.812  13.346   7.431  0.1370  1.7259  1.6761
20170SOL     OW78501  13.332  13.925  13.656 -0.7054 -0.0548  0.4286
20170SOL    HW178502  13.303  13.890  13.741 -2.0133 -1.9438 -0.7092
20170SOL    HW278503  13.417  13.885  13.641 -1.1775 -0.9871  0.1680
20171SOL     OW78504   3.782  10.770  12.490  0.2679 -0.2271  0.4685
20171SOL    HW178505   3.834  10.850  12.496 -0.3447  0.1656  0.6587
20171SOL    HW278506   3.692  10.800  12.475 -0.1242 -0.8354  1.4770
20172SOL     OW78507   0.173   4.852   3.972 -0.6538 -0.2161 -0.2195
20172SOL    HW178508   0.120   4.843   3.893  0.8067  0.2319 -1.2973
20172SOL    HW278509   0.130   4.921   4.022 -1.3204 -0.1652 -0.8401
20173SOL     OW78510   8.638  11.470  12.704  0.1385  0.3681  0.2815
20173SOL    HW178511   8.687  11.543  12.742 -0.0840  0.7431 -0.1387
20173SOL    HW278512   8.630  11.406  12.775  3.5151 -0.9087 -0.3157
20174SOL     OW78513   3.058   8.148   0.241  0.6983 -0.8609 -0.5776
20174SOL    HW178514   2.998   8.171   0.170  0.0982 -3.2294 -0.9046
20174SOL    HW278515   3.002   8.147   0.320  0.4186 -2.3188 -0.7652
20175SOL     OW78516   9.183  10.235   1.131  0.0932  0.3498 -0.5021
20175SOL    HW178517   9.116  10.168   1.118  0.0079  0.5038 -0.8646
20175SOL    HW278518   9.205  10.229   1.224  0.2589 -0.3422 -0.5763
20176SOL     OW78519  13.031  13.996   3.704  0.2695 -0.1247  0.0901
20176SOL    HW178520  12.949  13.972   3.746 -0.5366  1.4543 -0.4957
20176SOL    HW278521  13.020  13.970   3.613  0.1584  0.6460 -0.1235
20177SOL     OW78522  10.203   6.948  11.125  0.1968  0.3813 -0.0547
20177SOL    HW178523  10.215   6.867  11.175  1.1042  1.4298  1.5117
20177SOL    HW278524  10.113   6.942  11.091 -0.2852 -0.5947  1.3136
20178SOL     OW78525   9.804   9.204  11.999  0.2092  0.2037 -0.0322
20178SOL    HW178526   9.760   9.278  12.040 -0.2474 -0.1363  0.1032
20178SOL    HW278527   9.882   9.190  12.052  0.8196  1.2055 -0.6421
20179SOL     OW78528   2.257   5.895  11.908 -0.0465  1.1022 -0.0520
20179SOL    HW178529   2.180   5.928  11.955  0.2250  0.0568  1.1776
20179SOL    HW278530   2.321   5.967  11.915 -0.8281  1.9288 -0.9799
20180SOL     OW78531   0.561   9.560   9.368 -0.0200  0.5230 -0.0314
20180SOL    HW178532   0.514   9.520   9.442 -0.2184 -0.5415 -0.7147
20180SOL    HW278533   0.581   9.487   9.310  1.9092  1.0403 -0.0926
20181SOL     OW78534   1.653  10.172   0.728 -0.7607  0.6497 -0.3194
20181SOL    HW178535   1.596  10.247   0.743  0.4192  2.0051 -2.0800
20181SOL    HW278536   1.597  10.095   0.738 -1.7180  1.6200  2.9002
20182SOL     OW78537   6.871   2.105  11.890 -0.8493 -0.2188 -0.2639
20182SOL    HW178538   6.830   2.156  11.819 -0.6993 -0.8724 -0.8329
20182SOL    HW278539   6.923   2.039  11.844 -0.7406 -0.6464  0.4685
20183SOL     OW78540  11.192   2.331  11.746 -0.4524  0.1895 -0.0619
20183SOL    HW178541  11.243   2.344  11.826 -0.4819  1.2866 -0.2032
20183SOL    HW278542  11.254   2.291  11.684  0.2220  1.3654 -0.1848
20184SOL     OW78543   2.110   4.791  13.515  0.8741 -0.1179 -0.1479
20184SOL    HW178544   2.020   4.822  13.516  1.2251  0.9487  0.1474
20184SOL    HW278545   2.134   4.789  13.422  0.0557 -2.0055 -0.3751
20185SOL     OW78546  11.425   5.435  13.301  0.3481 -0.0257 -0.2523
20185SOL    HW178547  11.464   5.404  13.383  1.2727  1.7461  0.0138
20185SOL    HW278548  11.412   5.355  13.249  0.6310 -1.0763  1.2254
20186SOL     OW78549  11.856   9.446   9.368 -0.2116 -0.2523  0.3298
20186SOL    HW178550  11.939   9.462   9.412 -0.0545 -0.2875  0.0494
20186SOL    HW278551  11.817   9.532   9.357 -1.9168 -0.4403  3.6916
20187SOL     OW78552   4.744   9.247   9.685 -0.3895  0.1717 -0.6790
20187SOL    HW178553   4.694   9.327   9.700 -0.5399  0.0850 -0.7159
20187SOL    HW278554   4.757   9.244   9.590 -1.4342 -0.4719 -0.8134
20188SOL     OW78555   5.829   4.409  10.539 -0.5290  0.6407 -0.3072
20188SOL    HW178556   5.790   4.429  10.625  0.1406  0.7891 -0.0360
20188SOL    HW278557   5.856   4.494  10.505  1.9049  0.3167  0.6481
20189SOL     OW78558   1.732  12.648   9.158 -0.0285 -0.1198  0.2446
20189SOL    HW178559   1.651  12.605   9.130 -0.4961 -0.1165  1.5229
20189SOL    HW278560   1.802  12.596   9.118 -0.5797 -2.0426  1.6305
20190SOL     OW78561   9.911   2.180   1.919 -0.3215 -0.2219  0.6775
20190SOL    HW178562   9.959   2.223   1.989 -1.4320 -0.7172  1.7821
20190SOL    HW278563   9.892   2.250   1.856  1.0989  0.1346  0.6094
20191SOL     OW78564   3.712  11.528  13.721 -0.4774 -0.3188 -0.6686
20191SOL    HW178565   3.783  11.589  13.696 -1.5441  1.0058 -0.5859
20191SOL    HW278566   3.690  11.482  13.640 -0.6066  0.4321 -1.0694
20192SOL     OW78567  10.259   2.543  11.945  0.0224 -0.3169 -0.1558
20192SOL    HW178568  10.314   2.541  11.867  1.2519 -0.6239  0.6841
20192SOL    HW278569  10.190   2.606  11.924 -0.3787 -1.2857 -1.9251
20193SOL     OW78570  11.466   3.651   0.360 -0.5845  0.3198 -0.2300
20193SOL    HW178571  11.547   3.703   0.364 -1.4535  1.6707  0.6283
20193SOL    HW278572  11.407   3.696   0.420 -2.8853  0.9488 -2.7755
20194SOL     OW78573  11.350   7.927  13.537  0.4286  0.5685 -0.0694
20194SOL    HW178574  11.371   7.932  13.631 -0.8885  0.5261  0.2590
20194SOL    HW278575  11.307   7.842  13.527  0.5219  0.5938 -0.7131
20195SOL     OW78576  11.719  10.412   0.563 -0.0670  0.2752 -0.0100
20195SOL    HW178577  11.679  10.326   0.550  0.7012 -0.0514 -0.2972
20195SOL    HW278578  11.809  10.401   0.531  0.4758  0.7779  1.2926
20196SOL     OW78579   7.642   8.314   9.265  0.3273  0.4625  0.1774
20196SOL    HW178580   7.556   8.276   9.248  0.4928  0.2445 -0.1880
20196SOL    HW278581   7.653   8.379   9.195  0.2249  0.8842  0.5497
20197SOL     OW78582   0.302   6.201   2.090 -0.0518 -0.1358 -0.2917
20197SOL    HW178583   0.324   6.258   2.016  0.3699 -0.9211 -0.7833
20197SOL    HW278584   0.374   6.138   2.094 -0.3744 -0.4655  0.4176
20198SOL     OW78585   8.806  11.225  13.645  0.3789 -0.1360  0.2133
20198SOL    HW178586   8.745  11.159  13.676 -0.5770  0.4518 -0.3742
20198SOL    HW278587   8.890  11.199  13.682 -0.4600 -0.1603  2.2780
20199SOL     OW78588   6.387   1.654   4.610  0.0598  0.3449 -0.3557
20199SOL    HW178589   6.475   1.668   4.573  0.4010  0.4096  0.4730
20199SOL    HW278590   6.397   1.669   4.704 -0.4590 -1.3885  0.0076
20200SOL     OW78591   3.310   9.122   8.075  0.6398  0.2783 -0.0892
20200SOL    HW178592   3.240   9.077   8.123  2.0213  1.3063  3.1703
20200SOL    HW278593   3.358   9.051   8.033 -0.6825 -0.7040 -0.0370
20201SOL     OW78594   8.654   8.099  12.157  0.2315 -0.5911 -0.2911
20201SOL    HW178595   8.689   8.168  12.213  0.2006  1.0972 -2.2109
20201SOL    HW278596   8.563   8.125  12.141  0.2581 -0.9735 -1.1394
20202SOL     OW78597  10.201   4.555   1.430  0.7257  0.5145  0.3226
20202SOL    HW178598  10.286   4.578   1.392  0.1389  1.4945 -0.4463
20202SOL    HW278599  10.190   4.462   1.409  1.5478  0.4045  0.3329
20203SOL     OW78600   3.417   8.936  12.442  0.1451 -0.1376  0.0617
20203SOL    HW178601   3.511   8.946  12.457  0.0457  0.0799  0.5817
20203SOL    HW278602   3.392   9.014  12.392 -0.2130  1.1655  2.1426
20204SOL     OW78603   1.579   4.050  10.655  0.6140  0.6397  0.1597
20204SOL    HW178604   1.599   4.143  10.665 -1.0210  1.0635 -0.2061
20204SOL    HW278605   1.499   4.048  10.602 -1.2827 -0.8297  2.8312
20205SOL     OW78606  10.772   0.923  10.521  0.0813 -0.6824 -0.8793
20205SOL    HW178607  10.723   0.878  10.452 -2.5553  0.0296  0.3696
20205SOL    HW278608  10.735   1.012  10.522  1.7919  0.0663 -0.1501
20206SOL     OW78609   8.204   3.889   4.070 -0.3678  0.4566  0.0229
20206SOL    HW178610   8.205   3.836   4.150 -1.1808  2.5013  1.4740
20206SOL    HW278611   8.139   3.957   4.088 -0.6398  0.9153 -2.4422
20207SOL     OW78612   8.184   1.995  12.251 -0.4484  0.2984  0.4347
20207SOL    HW178613   8.236   1.940  12.309 -0.2324 -0.4307 -0.4268
20207SOL    HW278614   8.100   2.005  12.297  0.0824  0.6466  1.3605
20208SOL     OW78615  12.468  11.857  12.233 -0.1057 -0.6686  0.2255
20208SOL    HW178616  12.537  11.802  12.269 -1.3732 -0.6487  2.8763
20208SOL    HW278617  12.443  11.813  12.151  2.1062 -1.3643 -0.1425
20209SOL     OW78618   0.310   3.912   0.385 -0.2664 -0.2814 -0.1968
20209SOL    HW178619   0.272   3.941   0.469  1.2740  0.4238  0.2923
20209SOL    HW278620   0.279   3.976   0.321 -2.0798 -1.2503 -0.3635
20210SOL     OW78621  13.435   3.755   3.925 -0.2981  0.5800  0.0728
20210SOL    HW178622  13.354   3.750   3.975 -0.7621 -1.5182 -0.7751
20210SOL    HW278623  13.504   3.750   3.991 -0.8975 -1.0210  0.6420
20211SOL     OW78624  13.784   9.973   8.836  0.2690  0.1679  0.2409
20211SOL    HW178625  13.693  10.002   8.838 -0.1788 -0.9995 -1.2647
20211SOL    HW278626  13.811   9.983   8.745  0.5197 -2.6119 -0.0983
20212SOL     OW78627  12.792  10.691  12.800 -0.0386  0.0260  0.4962
20212SOL    HW178628  12.873  10.683  12.850 -0.1509  1.3643  0.9333
20212SOL    HW278629  12.738  10.617  12.829 -0.4450  1.2111  3.0563
20213SOL     OW78630   4.277   5.162  10.615 -0.0215  0.4134  0.2013
20213SOL    HW178631   4.200   5.219  10.616 -0.1244  0.2740  0.3365
20213SOL    HW278632   4.351   5.222  10.619 -0.1369  0.5225  0.7986
20214SOL     OW78633   0.575   7.739   4.632  0.3177 -0.1281 -0.3368
20214SOL    HW178634   0.647   7.793   4.599  0.9067 -0.8377 -0.2357
20214SOL    HW278635   0.496   7.788   4.610  0.8124  0.4345 -0.8797
20215SOL     OW78636   2.213   4.770  12.193  0.3054 -0.6789 -0.4704
20215SOL    HW178637   2.226   4.679  12.221 -2.0337 -0.5154  1.4386
20215SOL    HW278638   2.118   4.784  12.201  0.4913  1.6717 -1.6144
20216SOL     OW78639   3.487  12.159   5.691  0.2209 -0.0080  0.2897
20216SOL    HW178640   3.431  12.232   5.664  0.2766 -0.0348  0.0980
20216SOL    HW278641   3.563  12.200   5.732  0.1587  0.0358  0.3590
20217SOL     OW78642   5.905   9.737  11.738 -0.1115 -0.1798 -0.0474
20217SOL    HW178643   5.987   9.696  11.763 -0.6819 -1.4072 -0.1236
20217SOL    HW278644   5.907   9.739  11.642 -0.5347 -1.0230 -0.0850
20218SOL     OW78645   8.289   1.734   4.269 -0.0190  1.3125 -0.6250
20218SOL    HW178646   8.337   1.688   4.200  0.0077  0.6307 -0.1647
20218SOL    HW278647   8.298   1.827   4.247  1.0475  1.1680 -0.8580
20219SOL     OW78648   6.633   3.226   7.400  0.3783 -0.3280 -0.2028
20219SOL    HW178649   6.708   3.278   7.430  0.9739  0.2310 -2.4434
20219SOL    HW278650   6.568   3.233   7.470  1.3147  1.5946  0.5253
20220SOL     OW78651   3.014  13.125   5.746  0.4051  0.7316 -1.0306
20220SOL    HW178652   3.086  13.188   5.740  0.7628  0.4830  0.3214
20220SOL    HW278653   2.940  13.175   5.779 -0.0045  0.9450 -2.2355
20221SOL     OW78654   0.028  10.455   9.215 -0.0470  0.1344  0.0756
20221SOL    HW178655  -0.065  10.440   9.233  0.2291  0.1352  1.6409
20221SOL    HW278656   0.068  10.464   9.302  0.9839  2.8212 -0.5727
20222SOL     OW78657  13.301  13.743   7.646  0.5194  0.0246  0.1173
20222SOL    HW178658  13.307  13.770   7.738  0.7992 -0.0139  0.1090
20222SOL    HW278659  13.384  13.770   7.607  0.7801 -0.7715  0.0916
20223SOL     OW78660   3.071  11.326   6.368 -0.3118  0.0495  0.5021
20223SOL    HW178661   3.023  11.397   6.410 -1.3127 -0.1812 -0.2281
20223SOL    HW278662   3.035  11.321   6.279  1.9744  0.7557 -0.5516
20224SOL     OW78663   4.647  11.194  13.744 -0.1224  0.5703 -0.4541
20224SOL    HW178664   4.613  11.282  13.730 -1.0193  0.3251  0.1081
20224SOL    HW278665   4.616  11.143  13.669  0.9552  0.8746 -1.1241
20225SOL     OW78666   7.604   1.243  11.304  0.8005  0.2235  0.1000
20225SOL    HW178667   7.696   1.216  11.295  0.4777 -0.9171  0.0204
20225SOL    HW278668   7.567   1.234  11.216  0.5119  0.2907  0.2137
20226SOL     OW78669  11.313   2.384   9.226  0.0840  0.0935 -0.3897
20226SOL    HW178670  11.301   2.426   9.312  4.8394  0.9097  0.1538
20226SOL    HW278671  11.310   2.290   9.245 -1.7357  0.2224  0.0800
20227SOL     OW78672   1.651   8.928   2.595 -0.8095  0.2681  0.0670
20227SOL    HW178673   1.619   8.848   2.553 -0.2532 -0.3762  0.8510
20227SOL    HW278674   1.688   8.979   2.523 -2.3490  0.4398 -0.6569
20228SOL     OW78675  13.164   1.393  13.010 -0.1904  0.0158  0.0301
20228SOL    HW178676  13.227   1.465  13.005 -0.1074  0.1167  1.8443
20228SOL    HW278677  13.090   1.423  12.957  0.8707  0.2906 -1.3750
20229SOL     OW78678   6.289   9.923   6.406  0.3664  0.0887  0.0483
20229SOL    HW178679   6.369   9.878   6.429  0.3585  0.8260  1.6462
20229SOL    HW278680   6.291  10.004   6.458 -2.7520 -1.1805  2.4510
20230SOL     OW78681   3.137  10.047   1.852 -0.1356  0.8144  0.1801
20230SOL    HW178682   3.206   9.998   1.807 -2.0018 -0.4477 -1.4737
20230SOL    HW278683   3.057  10.021   1.808 -1.6167  2.8141  1.5342
20231SOL     OW78684  14.104   8.917   9.465  0.2335  0.3164  0.3463
20231SOL    HW178685  14.140   8.843   9.513  1.9203 -1.1363 -2.8043
20231SOL    HW278686  14.178   8.978   9.456 -0.2144  0.8443  0.1386
20232SOL     OW78687   2.420  10.874   9.687  0.0277  0.2946 -0.1040
20232SOL    HW178688   2.505  10.893   9.725 -0.5928 -0.0163  1.5105
20232SOL    HW278689   2.439  10.820   9.610  1.1996 -1.3630  1.2902
20233SOL     OW78690   4.948  11.716   3.260 -0.6167 -0.1561  0.3665
20233SOL    HW178691   5.004  11.639   3.271 -1.4250 -0.9848 -1.0489
20233SOL    HW278692   4.860  11.680   3.252 -1.1395  1.0088  0.7247
20234SOL     OW78693   7.089  12.623   4.837 -0.4052 -0.1864  0.2032
20234SOL    HW178694   7.019  12.561   4.854 -0.4833 -0.5625 -1.3466
20234SOL    HW278695   7.055  12.707   4.870 -1.2090 -0.5398  0.2927
20235SOL     OW78696  11.880   6.275   3.830  0.7235  0.3854  0.3855
20235SOL    HW178697  11.946   6.246   3.892 -0.7087 -0.1749  1.7085
20235SOL    HW278698  11.923   6.345   3.780  2.1404  0.3583  1.5118
20236SOL     OW78699  14.145   3.973   3.510 -0.4180  0.1354  0.0258
20236SOL    HW178700  14.202   3.969   3.433  1.5893 -0.3309  1.4448
20236SOL    HW278701  14.142   4.066   3.532  0.9896  0.0556  0.7106
20237SOL     OW78702   1.020  11.492   4.243  0.0626 -0.1612  0.1010
20237SOL    HW178703   1.103  11.497   4.290  1.2671 -1.1087 -1.8420
20237SOL    HW278704   0.984  11.580   4.249  1.1388  0.2356  1.0700
20238SOL     OW78705  11.800  12.472  11.190 -0.4788  0.1684  0.2784
20238SOL    HW178706  11.722  12.512  11.152  0.6184  1.0468 -1.1610
20238SOL    HW278707  11.848  12.545  11.230 -0.6558 -0.4549  1.7162
20239SOL     OW78708   0.801  10.013   0.652  0.2537 -0.4506  0.1871
20239SOL    HW178709   0.863  10.008   0.580 -0.1679  1.5168 -0.3902
20239SOL    HW278710   0.726  10.060   0.615 -0.2260  0.0481  1.7290
20240SOL     OW78711   2.696   1.226   9.413  0.9290  0.1673 -0.0530
20240SOL    HW178712   2.608   1.261   9.397  0.1342 -2.0657 -0.9636
20240SOL    HW278713   2.755   1.286   9.369 -0.1822  1.4211  0.1276
20241SOL     OW78714   0.754   1.007   0.885  0.3875 -0.2092  0.3087
20241SOL    HW178715   0.691   0.964   0.942  0.7795 -0.6789  0.3916
20241SOL    HW278716   0.794   1.074   0.940 -0.5526  0.5905  0.0484
20242SOL     OW78717  13.815   7.996   2.829 -0.6073  0.4943  0.6504
20242SOL    HW178718  13.748   7.937   2.797 -1.5449  2.8744 -2.1923
20242SOL    HW278719  13.767   8.065   2.875  0.2625  0.3606  1.8236
20243SOL     OW78720   8.742   5.191  10.702 -1.1755 -0.4636  0.0338
20243SOL    HW178721   8.709   5.270  10.660  1.6836  1.1096  0.4768
20243SOL    HW278722   8.688   5.180  10.780 -1.1742  1.5270  0.3573
20244SOL     OW78723   2.511   3.733  13.465 -0.1611 -0.3221 -0.0066
20244SOL    HW178724   2.483   3.806  13.521 -1.3749 -0.4696 -0.3932
20244SOL    HW278725   2.587   3.767  13.418  1.9459 -0.7140  2.8651
20245SOL     OW78726   7.863  11.957   4.702 -0.3933  0.3302 -0.3583
20245SOL    HW178727   7.821  11.996   4.625 -2.4593  0.0211  0.5498
20245SOL    HW278728   7.879  12.031   4.761 -0.5578  0.3109 -0.2918
20246SOL     OW78729   5.999   3.696  13.601 -0.6025 -0.4733  0.2531
20246SOL    HW178730   6.058   3.754  13.648 -0.5061 -0.3771  0.0175
20246SOL    HW278731   6.050   3.666  13.526 -0.5183 -1.1658  0.5788
20247SOL     OW78732  10.586  13.336   1.022  0.4977  0.5275  0.3865
20247SOL    HW178733  10.679  13.345   1.043  1.1352 -0.2321 -1.8364
20247SOL    HW278734  10.569  13.242   1.025  0.3037  0.4931 -1.0006
20248SOL     OW78735   6.647   4.140   2.208  0.0332  0.3476 -0.5031
20248SOL    HW178736   6.555   4.118   2.195  0.7918 -3.4813 -0.5729
20248SOL    HW278737   6.676   4.174   2.124 -1.1412  0.9724 -0.6741
20249SOL     OW78738   5.278   0.391  12.615 -0.3193  0.2611  0.1309
20249SOL    HW178739   5.257   0.471  12.662 -0.4739 -0.1131  0.7171
20249SOL    HW278740   5.232   0.322  12.663  0.2884 -0.2566 -0.0087
20250SOL     OW78741   6.537   7.323  12.192  0.1385  0.0559 -0.0579
20250SOL    HW178742   6.487   7.242  12.206  0.6938 -0.4486 -0.8615
20250SOL    HW278743   6.510   7.353  12.105 -1.6224  1.9126  1.0418
20251SOL     OW78744  13.004   2.018   5.298 -0.4023  0.0884 -0.0070
20251SOL    HW178745  12.923   2.069   5.292  0.9536  2.5970  1.3520
20251SOL    HW278746  13.074   2.081   5.280  1.4765 -0.8763  3.1418
20252SOL     OW78747   6.049   1.250   5.292 -0.5831  0.0341  0.0260
20252SOL    HW178748   5.993   1.299   5.352 -1.4019 -1.2391  0.3390
20252SOL    HW278749   6.020   1.159   5.301  1.9640 -0.7997  0.7111
20253SOL     OW78750   8.519   4.884   0.529  0.0155 -0.0018  0.0110
20253SOL    HW178751   8.558   4.841   0.453  0.7307  1.9239 -0.7485
20253SOL    HW278752   8.573   4.856   0.603 -0.1237 -1.1472 -0.3004
20254SOL     OW78753  12.021   5.097   1.747 -0.2647  0.3951  0.2796
20254SOL    HW178754  12.018   5.014   1.700  0.2010  1.4084 -1.6872
20254SOL    HW278755  11.949   5.093   1.809 -1.3104 -0.8023 -0.9604
20255SOL     OW78756  13.691   7.102  10.147 -0.1688 -0.8407 -0.1601
20255SOL    HW178757  13.751   7.089  10.073 -0.6637  1.0219 -0.9574
20255SOL    HW278758  13.745   7.144  10.214 -0.1989 -0.6477 -0.2567
20256SOL     OW78759   7.838  11.858  11.637 -0.3911  0.1477  0.3048
20256SOL    HW178760   7.833  11.944  11.678  0.0312  0.7901 -0.9421
20256SOL    HW278761   7.932  11.844  11.623 -0.5840  1.3846 -3.2333
20257SOL     OW78762   6.583  11.387   3.200  0.0426 -0.4289 -0.4226
20257SOL    HW178763   6.525  11.316   3.172  1.1829 -0.5341 -2.8315
20257SOL    HW278764   6.536  11.467   3.175  0.9015 -0.5174 -2.5873
20258SOL     OW78765   1.363   8.782  10.312  0.0655  0.1924 -0.5056
20258SOL    HW178766   1.438   8.832  10.279  0.1872  2.1129  2.3073
20258SOL    HW278767   1.308   8.847  10.356 -0.8376 -1.8319  1.5905
20259SOL     OW78768  10.840   7.231  12.122 -0.3812 -0.0436  0.1902
20259SOL    HW178769  10.858   7.182  12.042  0.5148  0.9475 -0.2354
20259SOL    HW278770  10.887   7.184  12.191 -0.6871 -0.5711  0.0416
20260SOL     OW78771  13.478   3.303   8.462 -0.0029 -0.1037  0.3331
20260SOL    HW178772  13.399   3.268   8.419 -0.5928  2.4008 -0.8341
20260SOL    HW278773  13.550   3.268   8.410 -0.5784  0.5548 -0.9687
20261SOL     OW78774   9.164  11.323   4.941 -0.7689 -0.1341  0.0502
20261SOL    HW178775   9.113  11.282   4.871  1.8376 -0.1889 -1.9353
20261SOL    HW278776   9.222  11.254   4.972 -0.0880  0.5970  0.4496
20262SOL     OW78777   8.765  10.825   0.360  0.4428 -0.3429 -0.0965
20262SOL    HW178778   8.741  10.835   0.268  0.5650 -0.5107 -0.1467
20262SOL    HW278779   8.743  10.909   0.400 -0.0706 -0.4365 -0.1759
20263SOL     OW78780  13.535  10.786  11.427  0.2298 -0.1872  0.2025
20263SOL    HW178781  13.463  10.832  11.470 -0.1174  1.3285 -1.8515
20263SOL    HW278782  13.537  10.700  11.469 -1.2660  0.5328  1.8906
20264SOL     OW78783   5.779   5.257  10.560  0.2169  0.6357  0.7044
20264SOL    HW178784   5.863   5.256  10.606  0.0509  0.8181  1.0056
20264SOL    HW278785   5.723   5.198  10.610  0.7086 -0.9641 -0.5232
20265SOL     OW78786   6.204   9.307   0.742 -0.2001 -0.2521  0.1814
20265SOL    HW178787   6.278   9.275   0.794 -0.1725  0.8617  0.8557
20265SOL    HW278788   6.195   9.399   0.766 -2.1247 -0.4710  0.4887
20266SOL     OW78789  12.953  11.356  11.749 -0.4074  0.2432 -0.2088
20266SOL    HW178790  12.895  11.281  11.765  0.7140 -0.5373  0.3382
20266SOL    HW278791  12.968  11.393  11.835 -2.3119  2.2024 -0.6347
20267SOL     OW78792   8.761   5.803   6.942  0.3607  0.0800  0.2119
20267SOL    HW178793   8.831   5.822   6.879 -0.6738  0.0615 -0.9867
20267SOL    HW278794   8.805   5.754   7.012  1.2938 -1.1996 -1.1977
20268SOL     OW78795  11.994   1.512   7.238 -0.2535  0.0036  0.1085
20268SOL    HW178796  11.938   1.482   7.309 -0.8148 -1.9049 -1.0771
20268SOL    HW278797  11.937   1.515   7.161  0.9375 -0.7046 -0.8469
20269SOL     OW78798  12.325  10.819   7.942 -0.2075  0.5328  0.1415
20269SOL    HW178799  12.409  10.855   7.972 -0.1567  1.2636 -0.8487
20269SOL    HW278800  12.261  10.887   7.963 -0.3617  0.5160 -0.2734
20270SOL     OW78801   2.599  13.709   1.213 -0.2455 -0.5557 -0.2107
20270SOL    HW178802   2.523  13.692   1.157  0.3545 -0.3638 -1.1068
20270SOL    HW278803   2.657  13.634   1.198  0.7288  0.3656 -1.2813
20271SOL     OW78804   9.185   9.366   4.354  0.5423 -0.2283  0.5948
20271SOL    HW178805   9.133   9.384   4.276  0.3363  0.3112  0.8475
20271SOL    HW278806   9.132   9.400   4.426  0.7967 -0.5849  0.9545
20272SOL     OW78807  12.635  11.899   5.610  0.2604 -0.5486 -0.6715
20272SOL    HW178808  12.697  11.846   5.660  0.4029  1.8646  2.0134
20272SOL    HW278809  12.685  11.979   5.589 -1.5932  1.1209  0.8799
20273SOL     OW78810  11.188   0.704   1.884 -0.2215 -0.0497 -0.1391
20273SOL    HW178811  11.189   0.800   1.881  2.1196  0.0783  1.7700
20273SOL    HW278812  11.107   0.682   1.928 -1.1766  0.9838 -1.3122
20274SOL     OW78813  12.229   1.831  12.180 -0.2559  0.1804 -0.8393
20274SOL    HW178814  12.231   1.785  12.264  0.5729  0.2921 -0.7877
20274SOL    HW278815  12.162   1.898  12.191  0.1603  0.4928 -0.0945
20275SOL     OW78816   2.062  11.548  13.296  0.2453  0.1858 -0.8987
20275SOL    HW178817   2.042  11.457  13.315 -0.6102  0.3790 -0.8162
20275SOL    HW278818   1.980  11.595  13.311  0.7492  1.0180 -0.6346
20276SOL     OW78819   7.419   2.731   1.001 -0.6096  0.3342 -0.1185
20276SOL    HW178820   7.415   2.760   0.910  1.4203 -1.9597 -1.0552
20276SOL    HW278821   7.372   2.647   1.002 -1.4655  0.7953  1.1910
20277SOL     OW78822   0.480   2.601   1.708 -0.1214  0.4395  0.2732
20277SOL    HW178823   0.537   2.564   1.775 -0.7796 -1.3977 -0.1373
20277SOL    HW278824   0.409   2.643   1.757 -1.2657 -1.9459  0.7815
20278SOL     OW78825  13.309   3.011   0.248 -0.0975 -0.1479 -0.4686
20278SOL    HW178826  13.387   2.957   0.237  0.4643  0.2062  1.3822
20278SOL    HW278827  13.334   3.076   0.314 -1.2563  1.3862 -1.4519
20279SOL     OW78828  11.313   1.709   5.168  0.7286 -0.2883  0.1376
20279SOL    HW178829  11.271   1.761   5.100  1.1852  1.5265  1.1974
20279SOL    HW278830  11.398   1.685   5.130  0.0983 -1.2290 -0.7567
20280SOL     OW78831   8.697  10.862   2.828  0.2626 -0.1947 -0.0685
20280SOL    HW178832   8.734  10.859   2.740 -2.9313 -0.5474 -1.5382
20280SOL    HW278833   8.603  10.856   2.815 -0.3844  0.1414  3.3913
20281SOL     OW78834   1.336  12.851   2.399 -0.0792  0.8755  0.0133
20281SOL    HW178835   1.283  12.774   2.378  0.0249  0.7967  0.0440
20281SOL    HW278836   1.275  12.925   2.389 -0.9565  0.6064  2.6303
20282SOL     OW78837   7.652  12.605   6.794 -0.1720 -0.4018 -0.4004
20282SOL    HW178838   7.744  12.619   6.813 -0.1246 -1.5298  0.3012
20282SOL    HW278839   7.651  12.553   6.714 -0.2509  0.7404 -1.1581
20283SOL     OW78840  12.219   2.582   0.209 -0.3973  0.3707  0.1369
20283SOL    HW178841  12.132   2.550   0.185 -0.2224 -0.7932  0.9949
20283SOL    HW278842  12.207   2.624   0.294  0.2853 -1.9804  1.4669
20284SOL     OW78843   1.840   8.807  10.250  0.2762 -0.0476  0.0893
20284SOL    HW178844   1.888   8.778  10.327 -0.7310  0.1224  0.7984
20284SOL    HW278845   1.770   8.862  10.284 -0.7091 -0.6588 -0.8715
20285SOL     OW78846   8.064   2.185  11.760  0.4152  0.5998 -0.9839
20285SOL    HW178847   8.033   2.108  11.807 -1.0586  1.3544 -0.6565
20285SOL    HW278848   8.160   2.179  11.764  0.3188 -0.6471 -0.0651
20286SOL     OW78849  10.180   4.205  13.004 -0.4077 -0.0159  0.2787
20286SOL    HW178850  10.149   4.266  12.937  0.3541  0.2783  0.1828
20286SOL    HW278851  10.210   4.129  12.955 -0.4868 -0.0781  0.3283
20287SOL     OW78852  14.141   2.736  12.409  0.2306  0.0831 -0.0073
20287SOL    HW178853  14.141   2.648  12.447 -0.1334  0.8887  1.9695
20287SOL    HW278854  14.212   2.782  12.453  1.0677  0.5355 -1.7349
20288SOL     OW78855  12.320   8.639   7.701 -0.0683  0.2687  0.0854
20288SOL    HW178856  12.237   8.686   7.699  0.4714  1.2370 -1.5951
20288SOL    HW278857  12.316   8.580   7.625  1.7283  2.1645 -1.5983
20289SOL     OW78858   1.407  13.271   1.490  0.3336 -0.0099  0.0046
20289SOL    HW178859   1.482  13.260   1.431  0.0886  0.2657 -0.3654
20289SOL    HW278860   1.437  13.236   1.574 -0.2486 -3.1756 -0.9603
20290SOL     OW78861   8.885   6.490  10.204 -0.1967 -0.2708  0.7002
20290SOL    HW178862   8.847   6.542  10.275  0.2759 -1.0681  1.5793
20290SOL    HW278863   8.917   6.554  10.141 -0.9065  0.4528  1.0586
20291SOL     OW78864   1.745   8.040  11.068 -0.0239  0.2412  0.7870
20291SOL    HW178865   1.807   8.105  11.101 -1.6083  2.2982 -0.0281
20291SOL    HW278866   1.675   8.092  11.029 -0.8097 -1.9958 -1.0150
20292SOL     OW78867   7.843  13.222   8.843  0.0907 -0.1622 -0.3594
20292SOL    HW178868   7.895  13.187   8.916 -0.7280  1.7687  1.2614
20292SOL    HW278869   7.791  13.292   8.883 -0.9114  0.5099 -2.6987
20293SOL     OW78870  11.234  10.498   3.511  0.8011  0.1394 -0.2569
20293SOL    HW178871  11.140  10.509   3.526  0.9466  0.3039  0.5907
20293SOL    HW278872  11.273  10.580   3.539  1.2122  0.0260 -0.4908
20294SOL     OW78873  10.457   3.397   1.482  0.0861  0.0859  0.0727
20294SOL    HW178874  10.527   3.353   1.435 -0.6756 -1.3476  0.2440
20294SOL    HW278875  10.462   3.363   1.571 -0.0389  0.9352  0.4195
20295SOL     OW78876  11.193   9.936   4.468 -0.4224 -0.1353  0.5338
20295SOL    HW178877  11.256   9.928   4.541  0.3553  1.6594  0.1201
20295SOL    HW278878  11.215  10.020   4.428 -0.8455 -1.0777 -1.7905
20296SOL     OW78879   6.263   4.990   2.061 -0.4970  0.0116  0.2675
20296SOL    HW178880   6.259   4.894   2.052 -1.5244  0.0177  0.5525
20296SOL    HW278881   6.182   5.013   2.105 -0.0148  0.9758  0.6614
20297SOL     OW78882   9.256   3.936   2.704 -0.3605 -0.6900 -0.2151
20297SOL    HW178883   9.276   3.990   2.780  0.4008 -0.0586 -0.8452
20297SOL    HW278884   9.304   3.977   2.632 -0.0717 -1.9791 -0.7880
20298SOL     OW78885   1.354   7.500   5.409 -0.3041  0.0759 -0.2203
20298SOL    HW178886   1.376   7.433   5.344 -1.0612 -1.6213  1.1692
20298SOL    HW278887   1.366   7.456   5.493 -1.5678  1.4565  0.7329
20299SOL     OW78888  10.020  10.369  11.939  0.4195 -0.2234  0.5146
20299SOL    HW178889   9.944  10.322  11.975  0.1449  0.0155  0.2548
20299SOL    HW278890  10.052  10.421  12.012 -1.1921  1.6032 -0.0023
20300SOL     OW78891   2.956  11.925   3.561 -0.0660  0.0546 -0.1158
20300SOL    HW178892   2.863  11.908   3.578 -0.0776  0.8437  0.6914
20300SOL    HW278893   2.995  11.838   3.552 -0.8031 -0.2942  0.0113
20301SOL     OW78894   9.482   7.664   4.638 -0.2468 -0.0758  0.1219
20301SOL    HW178895   9.474   7.725   4.711  0.2442  0.2708 -0.1142
20301SOL    HW278896   9.532   7.711   4.572  1.5278 -1.2582  0.5337
20302SOL     OW78897   6.083   5.283  12.021  0.4351  0.1950  0.6781
20302SOL    HW178898   6.103   5.224  11.948 -0.0419 -0.6085  1.1721
20302SOL    HW278899   6.023   5.347  11.985  1.6676  0.9386 -0.1016
20303SOL     OW78900   2.387   0.717   2.265  0.1695  0.5727 -0.4202
20303SOL    HW178901   2.474   0.743   2.234 -0.4689  1.3349 -1.6557
20303SOL    HW278902   2.400   0.696   2.357  1.5533  1.2414 -0.4308
20304SOL     OW78903  11.690   1.587   1.014  0.8276 -0.4319 -0.1960
20304SOL    HW178904  11.611   1.605   1.063 -0.3788 -0.1736 -2.1299
20304SOL    HW278905  11.748   1.661   1.034  0.4734 -0.4461  0.9596
20305SOL     OW78906   6.221   4.424   5.506 -0.0802 -0.1731 -0.0670
20305SOL    HW178907   6.179   4.484   5.446 -1.3242 -1.2549 -0.3284
20305SOL    HW278908   6.310   4.415   5.473 -0.2343  0.5852 -0.7137
20306SOL     OW78909  11.066   2.854   0.078  0.2495  0.3575 -0.5439
20306SOL    HW178910  11.011   2.819   0.008  0.1704  0.7233 -0.6666
20306SOL    HW278911  11.071   2.783   0.142  0.1601  0.0919 -0.8282
20307SOL     OW78912   5.826   2.725  10.371  0.1327  0.0330 -0.9100
20307SOL    HW178913   5.814   2.714  10.277 -0.8710 -2.6625 -0.5803
20307SOL    HW278914   5.895   2.663  10.393  1.3460  1.6314 -0.0138
20308SOL     OW78915   6.510   5.254   9.725 -0.1743  0.1599 -0.6733
20308SOL    HW178916   6.449   5.324   9.750  1.1890  1.0839  0.1857
20308SOL    HW278917   6.552   5.229   9.807  2.0783  0.9838 -1.5097
20309SOL     OW78918  12.255   2.173  13.925  0.1580  0.1541  0.3779
20309SOL    HW178919  12.206   2.202  13.848  0.9883 -1.5836 -0.8816
20309SOL    HW278920  12.192   2.119  13.974  0.3452 -0.8527 -0.4591
20310SOL     OW78921  13.316   9.870   5.965 -0.2133  0.5345  0.4317
20310SOL    HW178922  13.230   9.828   5.965 -0.6579  1.4064  1.3368
20310SOL    HW278923  13.299   9.959   5.994  0.9334  0.8687  0.1079
20311SOL     OW78924   5.531  11.290   2.927 -0.3156 -0.3652 -0.3584
20311SOL    HW178925   5.496  11.375   2.954  0.0657 -0.5087  0.6613
20311SOL    HW278926   5.618  11.310   2.893  0.1181 -0.4189  0.6704
20312SOL     OW78927   7.123   8.036  10.331  0.3490  0.0719  0.1240
20312SOL    HW178928   7.059   8.070  10.267  1.5411 -1.4631 -1.9752
20312SOL    HW278929   7.070   7.983  10.391 -0.6121  0.3439 -0.4496
20313SOL     OW78930  11.685   6.258   5.171 -0.0945  0.3812 -0.9293
20313SOL    HW178931  11.774   6.281   5.197 -0.2244 -0.3377  0.1844
20313SOL    HW278932  11.696   6.198   5.098  0.3324  0.2371 -0.7474
20314SOL     OW78933   6.639   3.595   7.068  0.5476  0.2368  0.0364
20314SOL    HW178934   6.561   3.557   7.109  0.4116 -0.3379 -0.7242
20314SOL    HW278935   6.712   3.550   7.111  0.5029  1.2940  1.2602
20315SOL     OW78936   7.902  10.648   8.974  0.0279  0.0821 -0.2642
20315SOL    HW178937   7.976  10.640   9.035 -0.2526  2.2109  0.4189
20315SOL    HW278938   7.940  10.632   8.888  0.8937 -0.6719  0.2340
20316SOL     OW78939   9.464   6.535  10.614  0.3500 -0.0147 -0.2047
20316SOL    HW178940   9.372   6.541  10.643  0.8657 -0.0580  1.5629
20316SOL    HW278941   9.489   6.626  10.599 -0.1113 -0.0357 -1.2447
20317SOL     OW78942  11.483   7.493   7.012  0.8386  0.2775 -0.1818
20317SOL    HW178943  11.456   7.585   7.010  0.5918  0.2478  1.0120
20317SOL    HW278944  11.545   7.485   6.940 -0.6962  0.8724 -1.6215
20318SOL     OW78945   2.075   3.298   1.919  0.4856  0.2772  0.2040
20318SOL    HW178946   2.045   3.261   2.001 -0.4961 -2.1533 -1.1504
20318SOL    HW278947   2.031   3.383   1.913 -0.5923 -0.1557  1.5030
20319SOL     OW78948   3.019   5.840  12.316  0.5856 -0.0748 -0.7634
20319SOL    HW178949   3.081   5.800  12.255  0.5701 -0.4357 -0.5476
20319SOL    HW278950   2.963   5.894  12.261  0.0014 -1.0903 -1.2036
20320SOL     OW78951   4.586  11.348   5.413 -0.2394 -0.1078  0.0770
20320SOL    HW178952   4.591  11.301   5.496 -0.4144 -0.1591  0.0589
20320SOL    HW278953   4.492  11.365   5.400 -0.1650  0.3673  0.1508
20321SOL     OW78954   9.774   2.503   0.382 -0.4596  0.8075  0.2974
20321SOL    HW178955   9.768   2.540   0.470  1.6104  1.7984  0.0973
20321SOL    HW278956   9.867   2.513   0.359 -1.0770  1.2258 -2.2636
20322SOL     OW78957   8.495   1.513   2.195  0.7040 -0.1423 -0.3757
20322SOL    HW178958   8.572   1.552   2.152 -0.4096 -0.9392 -3.3136
20322SOL    HW278959   8.519   1.421   2.208 -0.0303 -0.6360 -2.2227
20323SOL     OW78960  11.812   2.212   4.022  0.5381 -0.2920  0.1285
20323SOL    HW178961  11.823   2.276   3.952 -1.0859  0.2905  0.3583
20323SOL    HW278962  11.776   2.262   4.095 -2.7660 -1.7112 -0.3292
20324SOL     OW78963  13.034   5.222   2.698  0.0183 -0.3356 -0.0327
20324SOL    HW178964  12.967   5.279   2.736 -0.6802  0.2608 -2.0323
20324SOL    HW278965  13.051   5.157   2.766 -0.3333  1.2797  1.7076
20325SOL     OW78966   6.962   2.201   0.215  0.2256  0.9181  0.7139
20325SOL    HW178967   6.889   2.258   0.192 -0.6606  0.5909  2.4962
20325SOL    HW278968   6.928   2.112   0.205  0.7530  0.7426  0.4472
20326SOL     OW78969  10.290  13.277   6.808  0.3389 -0.3874  0.7349
20326SOL    HW178970  10.326  13.340   6.870 -2.6157  0.2505  1.9326
20326SOL    HW278971  10.237  13.330   6.748  0.1307 -1.4285 -0.0353
20327SOL     OW78972   6.947   4.748  10.046 -0.3740 -0.1168 -0.0855
20327SOL    HW178973   6.966   4.791  10.130  2.2989 -1.5514  0.1756
20327SOL    HW278974   6.886   4.678  10.068  1.0903 -1.1362  0.9433
20328SOL     OW78975   1.648   7.553   7.322 -0.1143 -0.1789 -0.0671
20328SOL    HW178976   1.663   7.474   7.375 -1.2119 -1.0842 -1.0213
20328SOL    HW278977   1.735   7.580   7.293  0.6509  0.8890  2.8447
20329SOL     OW78978   8.042  12.992   7.809 -0.0014 -0.0306 -0.1429
20329SOL    HW178979   7.984  12.917   7.802 -2.0588  1.3974  0.5855
20329SOL    HW278980   8.049  13.026   7.720 -2.0365  0.9585  0.0160
20330SOL     OW78981   0.735   7.707   8.207 -0.1325 -0.0237 -0.0071
20330SOL    HW178982   0.823   7.720   8.171 -0.8383  1.8687 -1.1855
20330SOL    HW278983   0.705   7.795   8.228 -1.9679 -0.5855 -0.1398
20331SOL     OW78984   8.920   5.987   0.790  0.2722  0.3586 -0.0486
20331SOL    HW178985   8.999   5.974   0.738  0.0145  0.9422 -0.6005
20331SOL    HW278986   8.886   5.899   0.805  1.0165  0.0966  0.1992
20332SOL     OW78987   1.059   6.784   9.944 -0.5797  0.4333 -0.1237
20332SOL    HW178988   1.007   6.863   9.959  1.5125  1.8969 -0.0774
20332SOL    HW278989   1.092   6.760  10.030 -2.9909 -1.9284  0.2533
20333SOL     OW78990  13.945   2.734   0.540  0.0365 -0.4484  0.0803
20333SOL    HW178991  13.967   2.822   0.508 -0.1124 -0.4036  0.0975
20333SOL    HW278992  13.874   2.749   0.603 -2.3340 -0.8590 -2.3282
20334SOL     OW78993   0.188  12.083   8.154 -0.4127  0.3474 -0.4177
20334SOL    HW178994   0.158  12.161   8.108 -1.1690 -0.5027 -1.4188
20334SOL    HW278995   0.179  12.103   8.247  1.8554  2.4054 -0.5352
20335SOL     OW78996   0.087  13.674   8.195 -0.1441 -0.0477  0.4019
20335SOL    HW178997   0.058  13.609   8.131 -1.6262  0.2926  0.6880
20335SOL    HW278998   0.093  13.756   8.146 -1.4379  0.2483  0.6765
20336SOL     OW78999  10.821  13.142   4.406 -0.1722 -0.4423 -0.0038
20336SOL    HW179000  10.790  13.232   4.390  1.3066  0.1991  0.5767
20336SOL    HW279001  10.765  13.088   4.350 -0.5726  0.9203 -0.9913
20337SOL     OW79002   0.103   2.861   4.674 -0.2837  0.3538 -0.0070
20337SOL    HW179003   0.046   2.816   4.611  0.9542 -1.0929 -0.1554
20337SOL    HW279004   0.049   2.869   4.753 -0.8174 -0.7140 -0.2357
20338SOL     OW79005   6.434  11.369   6.280  0.0744  0.0481  0.3845
20338SOL    HW179006   6.429  11.463   6.266  0.7857 -0.1385 -1.3578
20338SOL    HW279007   6.518  11.355   6.323  0.6422  0.1115 -0.6565
20339SOL     OW79008   9.041   5.650   0.528 -0.5803 -0.2280 -0.0463
20339SOL    HW179009   9.007   5.740   0.529  1.4094  0.5689  0.5245
20339SOL    HW279010   9.057   5.631   0.436 -2.3358 -0.5572 -0.3084
20340SOL     OW79011   7.548  13.018  10.475 -0.0069 -0.2103  0.1625
20340SOL    HW179012   7.512  12.946  10.528 -2.0394  0.4196 -0.2431
20340SOL    HW279013   7.516  13.097  10.518  0.9974  0.4158 -0.2176
20341SOL     OW79014   4.872   6.533  11.635 -0.1339 -0.3664 -0.3241
20341SOL    HW179015   4.913   6.540  11.721 -2.5331  1.7607  0.7826
20341SOL    HW279016   4.934   6.575  11.576  0.5553  0.2149  0.7728
20342SOL     OW79017  12.564  10.023   9.056 -0.9559 -0.7558 -0.3037
20342SOL    HW179018  12.500  10.032   9.128 -3.1661 -3.1247 -1.7615
20342SOL    HW279019  12.524  10.068   8.982  0.4616  0.1459 -0.5521
20343SOL     OW79020   5.949   5.611  10.128  0.0057  0.3680 -0.3472
20343SOL    HW179021   5.854   5.604  10.117 -0.3858  0.3569  2.2879
20343SOL    HW279022   5.978   5.520  10.139 -0.0019  0.4883  0.7725
20344SOL     OW79023   4.500   3.193  10.893  0.3242  0.2928 -0.2706
20344SOL    HW179024   4.492   3.099  10.885  0.4596  0.2660 -0.1131
20344SOL    HW279025   4.412   3.223  10.915  0.0304  0.3354 -1.4405
20345SOL     OW79026   7.973   1.325   4.209 -0.3762 -0.0147  0.2550
20345SOL    HW179027   7.926   1.245   4.185 -0.4159  0.3640 -0.9980
20345SOL    HW279028   7.980   1.374   4.127  2.8518 -0.3689  0.1995
20346SOL     OW79029   5.086   5.672  11.003 -0.4949  0.3052 -0.0399
20346SOL    HW179030   5.018   5.666  10.936 -0.2635 -0.7750 -0.1875
20346SOL    HW279031   5.040   5.657  11.085 -0.5884  0.5054 -0.0549
20347SOL     OW79032   4.431  13.427   4.478 -0.2016  0.1387 -0.3649
20347SOL    HW179033   4.443  13.481   4.400 -1.6371  0.8957 -0.1125
20347SOL    HW279034   4.432  13.337   4.446  1.8039  0.3033 -0.8592
20348SOL     OW79035   4.859   3.419  10.008 -0.0247  0.0835 -0.1988
20348SOL    HW179036   4.933   3.454  10.058  0.6565  0.3131 -1.3442
20348SOL    HW279037   4.886   3.331   9.984 -0.4016 -0.0682 -0.0661
20349SOL     OW79038  11.193   3.841   1.721 -0.3031  0.5626  0.0536
20349SOL    HW179039  11.228   3.929   1.707 -1.8342  0.8590 -2.4047
20349SOL    HW279040  11.146   3.847   1.804  0.9125  1.5900  0.7037
20350SOL     OW79041  11.185  12.999   0.326 -0.1526 -0.3666 -0.1429
20350SOL    HW179042  11.240  13.064   0.369  0.6480  0.1293 -1.8242
20350SOL    HW279043  11.245  12.928   0.303 -0.3959 -0.3064 -1.0298
20351SOL     OW79044   3.905   3.145  11.083 -0.4582 -0.1145 -0.4894
20351SOL    HW179045   3.980   3.155  11.141 -0.0008  0.1644 -1.1166
20351SOL    HW279046   3.889   3.232  11.047 -1.7230  0.0399  0.3988
20352SOL     OW79047   5.339   1.029   9.081  0.6398 -0.5235  0.3386
20352SOL    HW179048   5.254   0.985   9.086  0.0934  0.2867 -1.2012
20352SOL    HW279049   5.320   1.120   9.101  1.6315 -0.7620  2.6815
20353SOL     OW79050   8.323   3.375   5.734  0.6480 -0.1333  0.4462
20353SOL    HW179051   8.368   3.417   5.661  0.2826  0.7923  0.7410
20353SOL    HW279052   8.301   3.447   5.793 -0.2095 -0.7052  0.8426
20354SOL     OW79053   6.538   6.709   3.605  0.1655 -0.0127 -0.0860
20354SOL    HW179054   6.632   6.727   3.596  0.3398 -0.5789  0.5505
20354SOL    HW279055   6.513   6.671   3.521  1.1179 -2.4354  0.6344
20355SOL     OW79056   7.847   9.878  12.529 -0.3702  0.6943  0.5830
20355SOL    HW179057   7.901   9.902  12.604 -1.9598  1.1737  1.6207
20355SOL    HW279058   7.900   9.813  12.482  0.3894 -0.1732  2.5119
20356SOL     OW79059  12.641   8.555   4.298 -0.3588  0.5661  0.0521
20356SOL    HW179060  12.562   8.528   4.345 -0.2697  0.4679  0.1482
20356SOL    HW279061  12.688   8.473   4.281 -1.2190  0.4108 -1.7541
20357SOL     OW79062   1.318   1.467  10.268  0.6033 -0.1495 -0.6123
20357SOL    HW179063   1.295   1.500  10.180 -2.2162  0.1865  0.1296
20357SOL    HW279064   1.347   1.545  10.315 -2.3527  0.7256  0.0031
20358SOL     OW79065  11.842  10.036  11.251  0.1189  0.0987 -0.1929
20358SOL    HW179066  11.869  10.069  11.337  1.0806 -0.5946 -0.2173
20358SOL    HW279067  11.886  10.093  11.188  1.0065 -0.6042 -0.2267
20359SOL     OW79068  13.003  13.425  10.448  0.2051 -0.9090 -0.4448
20359SOL    HW179069  13.038  13.380  10.524  1.0995 -0.0189 -0.3212
20359SOL    HW279070  12.977  13.511  10.480  0.7389 -0.4672 -1.1765
20360SOL     OW79071  10.488  13.850  11.058 -0.3651  0.0588 -0.3150
20360SOL    HW179072  10.476  13.940  11.090 -0.4983  0.3035 -1.0362
20360SOL    HW279073  10.582  13.834  11.066 -0.5425 -0.3367  1.3525
20361SOL     OW79074  11.519  12.946   5.839 -0.1844 -0.3290 -0.1709
20361SOL    HW179075  11.435  12.969   5.879  0.7993  1.5183  0.9688
20361SOL    HW279076  11.533  12.854   5.865 -1.3018 -0.3033  0.6098
20362SOL     OW79077   1.834   2.971   7.264 -0.2911  0.7701 -0.3108
20362SOL    HW179078   1.775   2.896   7.273 -0.2198  0.7423 -0.0832
20362SOL    HW279079   1.834   2.989   7.170  0.8688 -0.4564 -0.5688
20363SOL     OW79080   7.621   1.769  12.909  0.1752 -0.5852  0.4020
20363SOL    HW179081   7.659   1.762  12.821 -1.3573 -0.1841 -0.3332
20363SOL    HW279082   7.546   1.709  12.907 -1.3472  1.2306  0.5886
20364SOL     OW79083   7.457   6.781   3.601  0.5464 -0.5334  0.5317
20364SOL    HW179084   7.468   6.821   3.515 -0.2742  0.7156  0.9705
20364SOL    HW279085   7.511   6.702   3.598 -1.3108 -1.8708 -1.9755
20365SOL     OW79086   7.727   0.136   4.714  0.1599 -1.0123  0.6828
20365SOL    HW179087   7.820   0.132   4.693  0.3413  0.7549  0.9527
20365SOL    HW279088   7.688   0.064   4.664  1.4991 -1.0680 -0.3606
20366SOL     OW79089  12.684   1.489   4.989  0.0662 -0.7047 -0.1559
20366SOL    HW179090  12.774   1.483   4.958 -0.8225  0.1462 -3.3484
20366SOL    HW279091  12.657   1.579   4.966 -1.2689 -0.5645  1.7511
20367SOL     OW79092  14.138   2.837   2.954 -0.5672 -0.1130 -0.4428
20367SOL    HW179093  14.155   2.884   3.036 -0.3681  0.2493 -0.6925
20367SOL    HW279094  14.206   2.770   2.950  0.9388  1.4078 -1.5012
20368SOL     OW79095   0.117   4.889   9.435 -0.2828 -0.4223 -0.6303
20368SOL    HW179096   0.066   4.889   9.354 -0.8247 -0.0814 -0.2948
20368SOL    HW279097   0.152   4.978   9.441 -2.1077  0.2574  0.6514
20369SOL     OW79098   1.003   1.293   4.814  0.3528  0.0602  0.3856
20369SOL    HW179099   0.952   1.316   4.737 -0.8810 -0.3280  1.0524
20369SOL    HW279100   0.997   1.198   4.820  0.0640  0.1172  1.1898
20370SOL     OW79101   1.507   7.053   4.030  0.5573 -0.0341 -0.0767
20370SOL    HW179102   1.521   6.961   4.009  1.3221  0.1562 -0.4192
20370SOL    HW279103   1.590   7.096   4.010 -0.3697  1.0887 -1.8990
20371SOL     OW79104  11.068   3.016   5.985  0.0960 -0.3423 -0.7950
20371SOL    HW179105  11.085   3.008   6.079  0.5614 -2.2470 -0.9907
20371SOL    HW279106  11.155   3.028   5.946 -0.1817  1.3467 -0.9311
20372SOL     OW79107   6.371  10.344  12.680  0.3126 -0.0417 -0.2732
20372SOL    HW179108   6.286  10.341  12.723  0.7048  2.5918  0.9518
20372SOL    HW279109   6.427  10.287  12.732 -0.7715 -2.4127 -1.5394
20373SOL     OW79110   9.040  13.743   6.133  0.1324  0.2776 -0.1420
20373SOL    HW179111   9.125  13.783   6.149 -0.1900  0.9232 -0.0288
20373SOL    HW279112   8.997  13.741   6.218  0.3954 -0.9258 -0.0134
20374SOL     OW79113   3.563   5.531   3.004  0.1651 -0.4711  0.1915
20374SOL    HW179114   3.503   5.542   3.077  1.3165  1.7315  0.8858
20374SOL    HW279115   3.506   5.512   2.929 -1.0551 -2.4433  1.5061
20375SOL     OW79116  13.514   9.030   6.038  0.2467 -0.5555  0.5051
20375SOL    HW179117  13.466   9.038   6.120  1.6778 -2.0045  1.5496
20375SOL    HW279118  13.579   9.100   6.040 -0.8044  0.4934 -0.2437
20376SOL     OW79119   0.815   4.766   9.657  0.7367  0.3266 -0.5432
20376SOL    HW179120   0.879   4.811   9.601  0.8412  2.5789  1.2562
20376SOL    HW279121   0.806   4.823   9.733 -0.7553 -1.7439  0.9127
20377SOL     OW79122   1.615  10.113   1.493 -0.0836  0.2985 -0.2883
20377SOL    HW179123   1.691  10.088   1.546 -0.5728 -0.4814  0.0704
20377SOL    HW279124   1.552  10.146   1.557  0.2667  1.8121 -0.6769
20378SOL     OW79125   9.659   9.783  11.834  0.5004  0.0831 -0.4137
20378SOL    HW179126   9.573   9.747  11.856  1.1301 -1.0236  0.3115
20378SOL    HW279127   9.642   9.840  11.759 -0.8378 -0.2209 -0.3749
20379SOL     OW79128   9.874   0.394   9.396  0.1030 -0.4147  0.2727
20379SOL    HW179129   9.780   0.376   9.391 -0.2629  1.5465 -1.0619
20379SOL    HW279130   9.882   0.461   9.464  0.5328 -0.6125  0.4180
20380SOL     OW79131  13.042   5.088   3.613  0.4313 -0.1503 -0.4967
20380SOL    HW179132  13.107   5.073   3.544 -0.0022  0.1380 -0.9698
20380SOL    HW279133  12.962   5.113   3.566  0.1455  0.0859  0.1102
20381SOL     OW79134   1.642  11.637   2.845 -0.0316 -0.0930 -0.1015
20381SOL    HW179135   1.698  11.632   2.923 -0.5276 -0.6411  0.2373
20381SOL    HW279136   1.554  11.615   2.878 -0.5672  1.3586 -0.5043
20382SOL     OW79137   7.244  10.449  11.403  0.0321 -0.0219 -0.6054
20382SOL    HW179138   7.231  10.355  11.418 -0.4781 -0.0731 -1.3096
20382SOL    HW279139   7.287  10.454  11.317  4.0805  0.1816  1.2028
20383SOL     OW79140   2.468   2.696  10.028  0.0437  0.1196  0.4525
20383SOL    HW179141   2.485   2.640   9.952 -1.4406 -4.6623  3.2442
20383SOL    HW279142   2.551   2.698  10.075 -0.5336 -2.3790  1.7432
20384SOL     OW79143   9.920  13.745   2.489  0.4351 -0.1233 -0.3064
20384SOL    HW179144   9.909  13.839   2.505  1.3996 -0.3842  2.5451
20384SOL    HW279145   9.831  13.709   2.494  0.3153  0.3195  1.6089
20385SOL     OW79146  12.944   2.577  10.770  0.0368  0.4629 -0.7158
20385SOL    HW179147  13.004   2.626  10.825  0.3627  0.6805 -1.2519
20385SOL    HW279148  12.886   2.532  10.831  0.2276  0.9000 -0.2068
20386SOL     OW79149   8.317   7.979   8.992 -0.1473 -0.2356 -0.0097
20386SOL    HW179150   8.381   8.050   9.004 -3.0195  2.3283  1.4823
20386SOL    HW279151   8.294   7.985   8.899 -0.1249  0.5905  0.0268
20387SOL     OW79152   2.213   7.698   2.885  0.1577  0.2846  0.0860
20387SOL    HW179153   2.179   7.751   2.813 -1.2359  1.1669  1.3301
20387SOL    HW279154   2.138   7.686   2.943  1.4220  0.2799  1.7898
20388SOL     OW79155  13.886  10.632  12.777  0.5205 -0.0935  0.2296
20388SOL    HW179156  13.870  10.726  12.777  1.0876  0.1879 -3.5715
20388SOL    HW279157  13.816  10.596  12.831  0.8721  2.4887  2.6332
20389SOL     OW79158  11.476   3.582  10.429  0.3880  0.2555 -0.7218
20389SOL    HW179159  11.552   3.524  10.429 -0.3608 -0.7455 -0.4878
20389SOL    HW279160  11.418   3.545  10.363  1.3440  2.7449 -3.1652
20390SOL     OW79161   3.345   5.113  13.772 -0.1263 -0.3424  0.0480
20390SOL    HW179162   3.360   5.188  13.829 -1.2231  0.0943 -0.2070
20390SOL    HW279163   3.409   5.048  13.801 -0.3293  0.0473  1.4546
20391SOL     OW79164   2.517  12.118  12.335  0.5537  0.1318 -0.1878
20391SOL    HW179165   2.544  12.045  12.280 -0.0820 -1.1782  1.1670
20391SOL    HW279166   2.421  12.115  12.333  0.4959 -0.6070  1.7611
20392SOL     OW79167   7.865   6.278   6.846 -0.0213 -0.3859 -0.1011
20392SOL    HW179168   7.952   6.316   6.846 -0.3014  0.2997 -1.2802
20392SOL    HW279169   7.859   6.232   6.762 -0.3864 -1.4069  0.4676
20393SOL     OW79170   9.278  10.044   2.400 -0.5921 -0.0566 -0.0848
20393SOL    HW179171   9.218  10.086   2.338 -0.0878  0.9291  0.0764
20393SOL    HW279172   9.240  10.064   2.486  0.2610  1.0892  0.0502
20394SOL     OW79173  11.286   1.572  13.343  0.2553 -1.0018 -0.2953
20394SOL    HW179174  11.327   1.576  13.257  0.7599  0.1708 -0.0168
20394SOL    HW279175  11.316   1.489  13.381  0.0701 -1.5030 -1.2070
20395SOL     OW79176  13.219   5.378   6.289  0.1782  0.0966  0.5565
20395SOL    HW179177  13.263   5.378   6.374  1.3616  1.6882 -0.0087
20395SOL    HW279178  13.195   5.469   6.274 -2.1947 -0.5010  0.2172
20396SOL     OW79179   9.165   6.607   7.773  0.0295 -0.2791  0.2387
20396SOL    HW179180   9.089   6.626   7.829  1.0664 -1.9969  2.3905
20396SOL    HW279181   9.205   6.692   7.756 -3.1826  0.9806 -2.4415
20397SOL     OW79182  12.922   6.768   2.627 -0.7612 -0.1148 -0.7097
20397SOL    HW179183  13.005   6.736   2.592  1.0286  1.2064  2.0344
20397SOL    HW279184  12.881   6.691   2.667  1.1638 -0.0861  1.5096
20398SOL     OW79185  12.312  12.886   0.703 -0.5061 -0.3635 -1.0411
20398SOL    HW179186  12.314  12.951   0.633 -0.6388  1.1354  0.2979
20398SOL    HW279187  12.403  12.857   0.712 -0.3897 -0.1224 -1.4384
20399SOL     OW79188   6.042   1.410  13.985 -0.2064 -0.0672  0.1182
20399SOL    HW179189   5.947   1.422  13.985 -0.2223  0.0861  2.2730
20399SOL    HW279190   6.063   1.380  14.073  2.0131  2.0490  0.4057
20400SOL     OW79191  13.725   4.945  13.267 -0.0252 -0.3564 -0.2357
20400SOL    HW179192  13.679   5.019  13.308  1.1271  0.6455 -0.6874
20400SOL    HW279193  13.790   4.986  13.209 -0.6605 -1.7372 -1.9988
20401SOL     OW79194   4.569  11.082   0.902 -0.7389 -0.0236  0.1616
20401SOL    HW179195   4.561  11.176   0.920 -0.0834  0.2777 -1.0453
20401SOL    HW279196   4.541  11.073   0.811 -2.3781 -1.2596  0.7434
20402SOL     OW79197   5.652  11.390   0.046  0.0701 -0.4182 -0.2193
20402SOL    HW179198   5.566  11.430   0.030 -0.7449 -1.6251  0.8376
20402SOL    HW279199   5.651  11.370   0.139  1.4957 -0.5138 -0.2145
20403SOL     OW79200   7.221  10.536   7.025  0.1096  0.0562 -0.7009
20403SOL    HW179201   7.276  10.580   7.089  1.1029  0.1227 -1.5837
20403SOL    HW279202   7.170  10.473   7.076 -0.1853  1.1176  0.3523
20404SOL     OW79203  10.871  12.745   2.514 -0.2754 -0.1021  0.6456
20404SOL    HW179204  10.843  12.779   2.599 -0.3900  2.3325 -0.2904
20404SOL    HW279205  10.914  12.662   2.535 -1.4889 -0.2590  2.9165
20405SOL     OW79206   1.662  10.601   3.238 -0.3403  0.3827  0.4684
20405SOL    HW179207   1.726  10.530   3.235  2.0301  2.1945  3.0172
20405SOL    HW279208   1.626  10.606   3.150  1.0529 -2.4416 -0.3658
20406SOL     OW79209  11.255  10.111  12.485 -0.4373 -0.2423  0.1972
20406SOL    HW179210  11.271  10.016  12.486  0.5136 -0.0922  1.1602
20406SOL    HW279211  11.161  10.118  12.472 -0.7033 -1.3727  1.2189
20407SOL     OW79212   7.098  13.620  11.262 -0.3413 -0.1541 -0.3866
20407SOL    HW179213   7.152  13.698  11.278 -0.3321 -0.1923 -0.2304
20407SOL    HW279214   7.149  13.548  11.298 -0.5253 -0.1826 -0.1831
20408SOL     OW79215   8.580   6.151  12.272 -0.3504 -0.3105 -0.0709
20408SOL    HW179216   8.632   6.089  12.322 -2.1608 -2.4426 -0.6420
20408SOL    HW279217   8.575   6.229  12.327  2.5392 -0.3716  0.3933
20409SOL     OW79218  10.027   0.488   9.796  0.7859 -0.7540 -0.1313
20409SOL    HW179219  10.066   0.420   9.850 -1.5379 -1.0706  1.2873
20409SOL    HW279220   9.933   0.474   9.804  0.2802  1.2981 -1.5707
20410SOL     OW79221   7.830  10.658  13.346 -0.4484 -0.4845 -0.4617
20410SOL    HW179222   7.753  10.648  13.290  0.0401  1.1148 -1.4977
20410SOL    HW279223   7.888  10.586  13.322 -1.9171 -2.2239  0.9394
20411SOL     OW79224   9.911   7.475   3.243  0.2786 -0.1292  0.0154
20411SOL    HW179225  10.000   7.476   3.278 -0.1462 -1.0176  1.2023
20411SOL    HW279226   9.859   7.516   3.312  0.1129  3.3225 -1.9053
20412SOL     OW79227   4.175   0.390   1.244 -0.6891 -0.7311  0.0233
20412SOL    HW179228   4.165   0.306   1.289 -1.0990 -1.5622 -1.5732
20412SOL    HW279229   4.092   0.405   1.200 -1.0104  1.0649  1.1177
20413SOL     OW79230   0.603  10.295   2.191  0.2151 -0.4022  0.3521
20413SOL    HW179231   0.634  10.344   2.267  0.3060 -0.3454  0.2791
20413SOL    HW279232   0.590  10.362   2.123 -0.2998 -0.3961  0.4565
20414SOL     OW79233   6.806   0.759   9.884 -0.3303 -0.2312  0.0685
20414SOL    HW179234   6.828   0.790   9.972 -0.6855  0.0910  0.0479
20414SOL    HW279235   6.734   0.816   9.856 -0.1007 -0.2174 -0.5013
20415SOL     OW79236   7.333  11.826   3.291  0.7747  0.5951 -0.0743
20415SOL    HW179237   7.284  11.863   3.365  0.9885 -0.1533  0.4436
20415SOL    HW279238   7.302  11.736   3.284  0.5728  0.7289 -1.0688
20416SOL     OW79239   4.527   5.934  11.881  0.5712 -0.0702  0.0500
20416SOL    HW179240   4.510   6.020  11.920 -1.0618 -0.1865 -0.3278
20416SOL    HW279241   4.517   5.947  11.787  0.2455 -0.6811 -0.0072
20417SOL     OW79242   3.219   9.349  10.530  0.1121 -0.0466  0.3484
20417SOL    HW179243   3.166   9.277  10.496  0.0090  0.2254 -0.0706
20417SOL    HW279244   3.269   9.310  10.601 -1.1813 -0.1383  1.2341
20418SOL     OW79245   6.389   1.820   8.258  0.2345 -0.4550 -0.5224
20418SOL    HW179246   6.394   1.915   8.245 -0.4045 -0.0406  1.7971
20418SOL    HW279247   6.307   1.794   8.215 -0.6337  0.4245  0.5435
20419SOL     OW79248   6.501   9.553   6.502  0.1075 -0.1715 -0.1556
20419SOL    HW179249   6.417   9.529   6.463 -0.1301 -0.9725  0.8196
20419SOL    HW279250   6.510   9.647   6.482 -0.8766 -0.1351 -0.5109
20420SOL     OW79251   7.990   0.594  13.616 -0.0938  0.3883  0.2676
20420SOL    HW179252   7.923   0.629  13.558  0.9200  0.4201 -0.9139
20420SOL    HW279253   8.063   0.655  13.609  1.4688 -1.5233 -1.3349
20421SOL     OW79254   4.419   3.576  14.117  0.1067 -0.0853  0.0851
20421SOL    HW179255   4.442   3.593  14.209 -0.7734 -0.0661  0.3125
20421SOL    HW279256   4.503   3.568  14.072  0.5507  0.8712  0.7146
20422SOL     OW79257  11.524   3.078   9.359  0.0940  0.1643 -0.2858
20422SOL    HW179258  11.520   3.165   9.318 -0.8174 -0.0334 -0.6616
20422SOL    HW279259  11.611   3.045   9.338  0.6449  1.1915  0.3073
20423SOL     OW79260   5.773   4.666   1.347 -0.0653  0.1046  0.2869
20423SOL    HW179261   5.770   4.619   1.263  0.4970 -2.1000  1.4309
20423SOL    HW279262   5.842   4.732   1.334  0.7039 -0.8450 -0.7000
20424SOL     OW79263   6.177   7.329   3.031 -0.0424  0.1594 -0.3426
20424SOL    HW179264   6.193   7.235   3.021 -0.2536  0.1721 -0.8357
20424SOL    HW279265   6.171   7.343   3.125 -2.0563 -0.6581 -0.3117
20425SOL     OW79266  14.100  11.791   1.959  0.0464 -0.5223 -0.0384
20425SOL    HW179267  14.012  11.815   1.990  0.4273  1.1710 -0.1417
20425SOL    HW279268  14.158  11.823   2.029  0.6591 -0.2738 -0.6550
20426SOL     OW79269  11.971   8.060   4.064  0.5649  0.5932  0.1126
20426SOL    HW179270  11.973   8.087   4.156  1.0674  0.3192  0.1872
20426SOL    HW279271  11.898   8.109   4.026 -0.7199 -0.5255  1.0397
20427SOL     OW79272   8.025   7.456   0.580  0.2742  0.3642  0.6202
20427SOL    HW179273   7.990   7.389   0.638  1.5371 -0.2128  0.7262
20427SOL    HW279274   8.110   7.423   0.552  0.1031  1.0589 -0.8232
20428SOL     OW79275   1.099  12.687  10.373 -0.1927  0.7331  0.2279
20428SOL    HW179276   1.184  12.700  10.416  0.1102 -1.4173  0.4267
20428SOL    HW279277   1.108  12.728  10.288  0.6188  1.5708  0.7009
20429SOL     OW79278   0.996  13.929   3.029 -0.5763  0.0986  0.1447
20429SOL    HW179279   1.000  14.023   3.045  1.8318  0.3302 -1.3518
20429SOL    HW279280   1.078  13.908   2.985 -1.0516 -2.7218  0.3753
20430SOL     OW79281   3.814   8.799   9.787  0.4620 -0.0428  0.7244
20430SOL    HW179282   3.821   8.894   9.779  0.6010 -0.0305  0.9947
20430SOL    HW279283   3.884   8.775   9.848  1.5923 -0.5121 -0.6805
20431SOL     OW79284   2.598   4.579   4.946  0.1699 -0.0020  0.0834
20431SOL    HW179285   2.656   4.655   4.935  0.6518 -0.3175  0.3810
20431SOL    HW279286   2.657   4.504   4.941 -0.2785 -0.3479 -0.0164
20432SOL     OW79287   3.755   2.642   9.009  0.6910 -0.1021  0.3373
20432SOL    HW179288   3.831   2.699   9.012  1.1500 -0.6758 -0.1062
20432SOL    HW279289   3.704   2.665   9.087 -0.4376  2.6471 -1.0831
20433SOL     OW79290   7.366   3.863   1.909 -0.5641 -0.0260 -0.0131
20433SOL    HW179291   7.391   3.952   1.932 -1.8131  0.1502  0.7483
20433SOL    HW279292   7.339   3.869   1.817 -0.2331  0.2868 -0.0920
20434SOL     OW79293   5.774   0.305  10.316 -0.4908  0.0536  0.4697
20434SOL    HW179294   5.756   0.233  10.256  0.1534  1.7623 -1.9033
20434SOL    HW279295   5.842   0.270  10.374 -2.3206 -2.2086  1.4378
20435SOL     OW79296  10.342  13.579  12.362  0.1898 -0.1531  0.1625
20435SOL    HW179297  10.422  13.632  12.367  0.2762  0.3896 -3.7709
20435SOL    HW279298  10.277  13.630  12.410  0.7845  2.6362 -1.7424
20436SOL     OW79299  13.267   8.162   1.958  0.0107  0.6688  0.3553
20436SOL    HW179300  13.229   8.115   1.884 -2.7113  2.2775  0.6435
20436SOL    HW279301  13.348   8.199   1.924 -1.1178  1.2736 -1.8172
20437SOL     OW79302   2.600   1.230   9.941 -0.4552 -0.2790 -0.1720
20437SOL    HW179303   2.583   1.270   9.856  2.0827  1.5557  0.0899
20437SOL    HW279304   2.633   1.143   9.920  0.3165  0.2212 -1.0873
20438SOL     OW79305  12.729   7.232  11.007 -0.4781  0.0115  0.1300
20438SOL    HW179306  12.817   7.262  10.985  0.3826 -2.8200 -0.7046
20438SOL    HW279307  12.671   7.296  10.966  1.1541  1.9570  0.7246
20439SOL     OW79308   8.727   0.393   5.385 -0.1369 -0.4970 -0.1125
20439SOL    HW179309   8.757   0.480   5.414 -0.6337 -0.8134  1.4463
20439SOL    HW279310   8.806   0.342   5.376  0.0601 -0.2760  0.3370
20440SOL     OW79311   0.290   2.431   9.381 -0.1838 -0.8892  0.0078
20440SOL    HW179312   0.315   2.339   9.389  0.1093 -0.9091 -1.0069
20440SOL    HW279313   0.194   2.430   9.380 -0.1814 -1.1914 -0.0919
20441SOL     OW79314  14.076  12.505  12.833  0.0207 -0.3827  0.3889
20441SOL    HW179315  14.104  12.417  12.858 -1.0487 -1.1334 -0.9152
20441SOL    HW279316  13.989  12.514  12.873  0.0625  0.0184  0.3903
20442SOL     OW79317  10.982  11.356  10.551 -0.2311  0.3522  0.2517
20442SOL    HW179318  10.953  11.304  10.476 -2.5853  1.0058  0.6424
20442SOL    HW279319  10.904  11.401  10.581  0.3060 -0.8129  3.9183
20443SOL     OW79320   3.938  11.027   6.504 -0.2458 -0.0504 -0.1157
20443SOL    HW179321   3.997  11.045   6.577  1.0657  0.9003 -1.3693
20443SOL    HW279322   3.864  11.087   6.517  0.1940  0.4337  0.1705
20444SOL     OW79323  11.961  10.160   1.072  0.6744  0.1836  0.0525
20444SOL    HW179324  12.052  10.135   1.056  0.2940 -2.1495  1.1679
20444SOL    HW279325  11.956  10.251   1.042  3.2940  0.3118 -0.2522
20445SOL     OW79326   7.792   5.589  13.029  0.4243 -0.4027  0.4318
20445SOL    HW179327   7.733   5.641  12.975  1.2871 -0.0118 -0.1399
20445SOL    HW279328   7.865   5.567  12.972  1.8336  0.8171  1.6654
20446SOL     OW79329   9.292   5.575  13.224  0.0411  0.0317  0.1203
20446SOL    HW179330   9.386   5.570  13.244  0.5693  0.7489 -1.8812
20446SOL    HW279331   9.260   5.651  13.272  0.6781  0.2716  0.1717
20447SOL     OW79332   7.063  13.549  12.533 -0.5526  0.1532  0.2490
20447SOL    HW179333   7.078  13.591  12.617  0.8173 -0.0284  0.1253
20447SOL    HW279334   7.063  13.456  12.552  0.7021  0.0690 -0.0514
20448SOL     OW79335   7.053   7.063   5.677 -0.0636  0.4653  0.1297
20448SOL    HW179336   7.130   7.034   5.628 -0.4492  2.1777 -1.6146
20448SOL    HW279337   7.077   7.151   5.709 -1.3103  1.0951 -0.5849
20449SOL     OW79338  13.353  11.425   4.019 -0.0975 -0.3158  0.2467
20449SOL    HW179339  13.350  11.488   4.091  2.2527 -1.0127  1.0214
20449SOL    HW279340  13.355  11.479   3.940  1.1134  0.5904  0.8724
20450SOL     OW79341   9.904   9.839   0.313 -0.0928 -0.4111  0.2332
20450SOL    HW179342   9.886   9.930   0.289  0.6755 -0.5069 -0.7740
20450SOL    HW279343   9.950   9.846   0.397 -0.2232  0.1159  0.2688
20451SOL     OW79344   4.489   8.913   5.732  0.0114 -0.5649 -0.1695
20451SOL    HW179345   4.465   8.826   5.700 -0.5559  0.0236 -1.3586
20451SOL    HW279346   4.446   8.974   5.673  1.5567  0.5329 -0.2166
20452SOL     OW79347  11.768   3.348   0.647 -0.0376 -0.1122 -0.7570
20452SOL    HW179348  11.789   3.437   0.619 -0.8811  0.7177  1.0994
20452SOL    HW279349  11.737   3.304   0.568  3.6025  0.1137 -2.5451
20453SOL     OW79350   9.286   5.521   1.377  0.2449 -0.5105  0.0458
20453SOL    HW179351   9.193   5.517   1.353  0.6044 -0.3056 -1.4260
20453SOL    HW279352   9.324   5.443   1.337  0.5951 -0.9878  1.2581
20454SOL     OW79353   6.704   2.780   4.450 -0.8859 -0.2007  0.3220
20454SOL    HW179354   6.620   2.751   4.486 -0.8223 -0.1998  0.4732
20454SOL    HW279355   6.741   2.703   4.408 -0.3991 -0.5290  1.3187
20455SOL     OW79356   9.102   4.696   7.914 -0.2486  0.5206  0.1097
20455SOL    HW179357   9.084   4.744   7.996 -0.6275 -0.6546  0.7411
20455SOL    HW279358   9.071   4.755   7.845 -1.2173  0.9670  0.8918
20456SOL     OW79359   6.148  10.786   6.846 -0.5710 -0.7498 -0.2057
20456SOL    HW179360   6.168  10.782   6.753 -0.8004  2.1272 -0.4779
20456SOL    HW279361   6.053  10.778   6.851 -0.6064 -0.4140 -0.2915
20457SOL     OW79362  12.497  10.838   5.432 -0.0975 -0.7488  0.0401
20457SOL    HW179363  12.439  10.902   5.474 -0.0306 -1.5856  1.4770
20457SOL    HW279364  12.495  10.762   5.491  0.6374 -1.6725 -1.0969
20458SOL     OW79365   7.414   9.141   1.939  0.2496 -0.1662 -0.4218
20458SOL    HW179366   7.409   9.046   1.952  1.1723 -0.4408 -1.7525
20458SOL    HW279367   7.414   9.151   1.843 -0.8245  1.2550 -0.2999
20459SOL     OW79368   7.237   1.808   6.587  1.3539  0.1732 -0.4532
20459SOL    HW179369   7.194   1.810   6.672 -2.3333 -0.0443 -2.1002
20459SOL    HW279370   7.245   1.901   6.562 -1.4602  0.2380 -1.4766
20460SOL     OW79371   3.089   3.595   1.276 -0.0493 -0.1364 -0.3959
20460SOL    HW179372   3.056   3.534   1.210  1.0501 -0.2807 -0.8402
20460SOL    HW279373   3.109   3.674   1.227 -1.7943  0.7506  0.2324
20461SOL     OW79374   4.688  12.646   6.356 -0.0965 -0.2614 -0.1851
20461SOL    HW179375   4.728  12.581   6.298 -0.1670  0.3825 -0.9655
20461SOL    HW279376   4.594  12.630   6.348 -0.0804 -0.5663  0.2210
20462SOL     OW79377   1.975   1.340  10.738 -0.3347  0.3336  0.2385
20462SOL    HW179378   1.981   1.312  10.647 -0.0256 -1.5512  0.7969
20462SOL    HW279379   1.956   1.434  10.733  2.7871  1.0341 -1.7700
20463SOL     OW79380  12.682   6.798   9.287 -0.2594  0.2538  0.1312
20463SOL    HW179381  12.771   6.765   9.272 -0.3694 -0.5376  1.0436
20463SOL    HW279382  12.695   6.887   9.320  0.2069  0.1331  0.2904
20464SOL     OW79383   4.275   5.472   7.742 -0.0037 -0.2264  0.4706
20464SOL    HW179384   4.317   5.405   7.796  1.1862  1.1928  1.4147
20464SOL    HW279385   4.332   5.480   7.665 -1.2721 -1.6936 -0.6851
20465SOL     OW79386   5.851   0.167   8.146  0.7507  1.0282  0.1254
20465SOL    HW179387   5.883   0.202   8.063  1.4581  2.2207  0.8656
20465SOL    HW279388   5.767   0.210   8.159 -0.4551 -0.8569 -1.0199
20466SOL     OW79389   5.280   4.110  13.255  0.1428  0.3471 -0.7322
20466SOL    HW179390   5.191   4.086  13.280  1.0112 -1.0444  1.2778
20466SOL    HW279391   5.298   4.192  13.303  0.6081 -0.4604  0.5152
20467SOL     OW79392   3.349  10.282   4.668  0.5731 -0.3569 -0.6215
20467SOL    HW179393   3.277  10.296   4.606  0.3649  1.0987 -0.0864
20467SOL    HW279394   3.426  10.268   4.612  0.4175  1.0925 -1.2497
20468SOL     OW79395   4.105   3.815   6.988  0.3821  0.4150  0.8348
20468SOL    HW179396   4.096   3.863   6.906  3.7042  1.3242  0.8501
20468SOL    HW279397   4.199   3.796   6.995 -0.0910 -1.6103  3.3586
20469SOL     OW79398   3.315   2.488   6.045  0.6067 -0.2790 -0.5074
20469SOL    HW179399   3.408   2.479   6.029  0.9308  0.4708  0.8107
20469SOL    HW279400   3.309   2.537   6.127 -0.9290 -1.2841  0.0347
20470SOL     OW79401  12.155  10.564   3.051  0.4597 -0.1346  0.2923
20470SOL    HW179402  12.127  10.655   3.040  0.0685 -0.3719 -0.8350
20470SOL    HW279403  12.138  10.545   3.143  1.3084  1.1786  0.7578
20471SOL     OW79404  12.840   2.118   7.096  0.2307  0.0271  0.4545
20471SOL    HW179405  12.770   2.154   7.151 -1.3833  0.9832 -2.0282
20471SOL    HW279406  12.904   2.188   7.090 -1.2603  1.3327 -1.5670
20472SOL     OW79407   1.361   8.251  13.061  0.1170 -0.8392 -0.2850
20472SOL    HW179408   1.356   8.345  13.075 -0.0524 -1.1057  1.5935
20472SOL    HW279409   1.271   8.220  13.070  0.1893 -1.2085 -0.7684
20473SOL     OW79410   4.216   5.215   7.561 -0.0385 -0.1991  0.3511
20473SOL    HW179411   4.136   5.249   7.522 -1.3588 -2.5329  0.8575
20473SOL    HW279412   4.233   5.273   7.636 -1.7257 -0.1388  0.7134
20474SOL     OW79413   7.225   9.484   4.873  0.0475  0.0197  0.2008
20474SOL    HW179414   7.294   9.494   4.938 -0.0469 -1.1439  0.4977
20474SOL    HW279415   7.188   9.397   4.890 -2.0092  0.9011  0.5682
20475SOL     OW79416  11.037  10.992   7.682 -0.3717  0.7174  0.4516
20475SOL    HW179417  11.044  10.963   7.591 -2.3982  1.0070  0.1530
20475SOL    HW279418  11.014  11.084   7.676 -0.8863  0.6517  1.2477
20476SOL     OW79419  10.016  10.050  11.490  0.0639 -0.4045  0.1389
20476SOL    HW179420  10.101  10.029  11.450  0.2059  1.7926 -0.8861
20476SOL    HW279421   9.986  10.128  11.443 -1.6044  0.0510  1.8157
20477SOL     OW79422   7.783  10.805  12.183  0.6425 -0.7634  0.0193
20477SOL    HW179423   7.710  10.784  12.125 -0.5603  3.2594 -0.2713
20477SOL    HW279424   7.854  10.831  12.123  0.4305  0.4444  0.2590
20478SOL     OW79425   8.179   3.122   8.234 -0.4726  0.0332 -0.1677
20478SOL    HW179426   8.250   3.121   8.170 -0.1023 -0.8763  0.2352
20478SOL    HW279427   8.101   3.146   8.184  0.0580  0.7726 -0.6691
20479SOL     OW79428   0.695  10.906  12.768 -0.1726  0.3253 -0.2587
20479SOL    HW179429   0.603  10.921  12.748 -0.8299 -1.0894  1.3822
20479SOL    HW279430   0.694  10.864  12.854  1.9805 -0.2366 -0.4453
20480SOL     OW79431   7.071   7.082   9.324 -0.3723  0.2612  0.3217
20480SOL    HW179432   7.082   7.169   9.285 -1.1391  0.3819  0.3592
20480SOL    HW279433   7.128   7.025   9.272 -1.0089  0.5080 -0.6824
20481SOL     OW79434  13.350  12.689   5.733 -0.2412 -0.5512  0.1296
20481SOL    HW179435  13.379  12.670   5.644 -0.1627  1.2389 -0.2619
20481SOL    HW279436  13.430  12.683   5.786  0.5436  2.2610 -0.6006
20482SOL     OW79437  13.882   5.991  13.242  0.0714 -0.4349  0.3253
20482SOL    HW179438  13.914   5.935  13.313  1.6423 -0.5894 -0.4457
20482SOL    HW279439  13.867   5.930  13.169 -1.2077 -0.2350  0.3986
20483SOL     OW79440  10.833   3.324  14.012 -0.6662 -0.3205  0.4016
20483SOL    HW179441  10.828   3.409  13.967 -0.7303 -0.5833 -0.0996
20483SOL    HW279442  10.800   3.342  14.100 -1.6384 -0.0312 -0.0024
20484SOL     OW79443   4.799  10.656   6.440  0.3404 -0.3444 -0.0957
20484SOL    HW179444   4.766  10.688   6.524  1.1311  0.2811 -0.0117
20484SOL    HW279445   4.893  10.674   6.443  0.0345  2.1183 -2.1461
20485SOL     OW79446   3.550   6.129   0.597  0.2675  0.5817 -0.4342
20485SOL    HW179447   3.639   6.149   0.567 -0.3511  1.1304 -2.0045
20485SOL    HW279448   3.498   6.122   0.517 -1.0546 -0.0781  0.4310
20486SOL     OW79449   7.750   0.225   1.553 -0.0345  0.4433 -0.1648
20486SOL    HW179450   7.706   0.278   1.486 -0.0906 -0.5617 -0.9482
20486SOL    HW279451   7.733   0.135   1.527 -2.3830 -0.0981  2.6645
20487SOL     OW79452  10.856   2.276  11.286 -0.4910 -0.1920  0.3899
20487SOL    HW179453  10.888   2.255  11.198  0.1987 -1.3950  0.9082
20487SOL    HW279454  10.894   2.361  11.306 -0.8456  0.2020 -0.5593
20488SOL     OW79455  10.786   9.817   2.910 -0.1952 -0.0680 -0.6210
20488SOL    HW179456  10.844   9.857   2.846 -1.0421 -1.0322 -2.0618
20488SOL    HW279457  10.836   9.743   2.945  0.9416  1.4796  1.2151
20489SOL     OW79458   0.606   4.620   3.320  0.0523  0.0209  0.0360
20489SOL    HW179459   0.558   4.702   3.329 -1.0397 -0.2900 -2.2877
20489SOL    HW279460   0.660   4.615   3.399 -1.5755  1.8103  1.3507
20490SOL     OW79461  10.938  13.400   7.826 -0.1350 -0.5722  0.3461
20490SOL    HW179462  11.005  13.439   7.881  0.1049 -1.1070  0.4425
20490SOL    HW279463  10.948  13.305   7.840 -1.5956 -0.6387  1.1955
20491SOL     OW79464   0.083   6.839   3.866  0.3190 -0.0594 -0.4120
20491SOL    HW179465   0.028   6.771   3.827  0.5535 -0.5910  0.1749
20491SOL    HW279466   0.022   6.895   3.915  0.2661 -0.5284  0.0671
20492SOL     OW79467   2.747   8.467   2.904 -0.2589  0.2595 -0.3297
20492SOL    HW179468   2.746   8.371   2.910  2.2318  0.2161  0.6332
20492SOL    HW279469   2.780   8.485   2.816 -0.2938  0.2156 -0.3519
20493SOL     OW79470   6.421   5.992   3.762  0.0784 -0.0166 -0.0540
20493SOL    HW179471   6.391   5.911   3.803 -2.0570  0.8616  0.2374
20493SOL    HW279472   6.362   6.059   3.795  0.3563  1.2906 -2.0335
20494SOL     OW79473  13.416   9.768   9.654 -0.2860 -0.1429 -0.2333
20494SOL    HW179474  13.358   9.828   9.607 -1.1894 -0.0181  0.9980
20494SOL    HW279475  13.476   9.825   9.702  0.1699 -0.2579 -0.6643
20495SOL     OW79476   2.160   2.669   1.225  0.2052  0.2411 -0.1312
20495SOL    HW179477   2.253   2.680   1.206  0.4881  0.4000  1.2474
20495SOL    HW279478   2.126   2.617   1.152  1.2953  0.4533 -0.8098
20496SOL     OW79479   2.852  13.862   1.478 -0.5794 -0.0253 -0.8253
20496SOL    HW179480   2.895  13.930   1.427  0.7763  0.0000  0.2712
20496SOL    HW279481   2.914  13.790   1.478 -0.5719 -0.0469  0.6882
20497SOL     OW79482   1.457  12.035   9.631 -0.5847  0.3958  0.1223
20497SOL    HW179483   1.419  12.117   9.664 -0.0193  0.4576  0.6361
20497SOL    HW279484   1.383  11.974   9.628 -0.7092  0.4660  1.2683
20498SOL     OW79485   5.281  11.096  11.681  0.7781  0.7570  0.4901
20498SOL    HW179486   5.254  11.097  11.773 -2.4574  1.4778 -0.3668
20498SOL    HW279487   5.295  11.188  11.659 -0.5596  0.8056 -0.2477
20499SOL     OW79488   9.024  13.112   7.195 -0.4946  0.1748  0.1641
20499SOL    HW179489   9.011  13.110   7.101  0.0382 -0.5908  0.0940
20499SOL    HW279490   9.053  13.023   7.217  0.8904  0.7628  0.8251
20500SOL     OW79491   1.250   2.648   4.090  0.0151  0.0400  0.3553
20500SOL    HW179492   1.211   2.613   4.010  1.3911  0.3900 -0.5044
20500SOL    HW279493   1.179   2.692   4.135 -0.7675 -0.1071 -0.7125
20501SOL     OW79494  10.936   9.617   3.506 -0.1469  0.0326 -0.5482
20501SOL    HW179495  10.995   9.552   3.468  0.5339  0.7441 -0.7482
20501SOL    HW279496  10.853   9.606   3.459  0.2407 -0.0918 -1.2073
20502SOL     OW79497   7.674   5.720  13.341  0.5139 -0.6075 -0.3059
20502SOL    HW179498   7.636   5.776  13.273  1.3318  1.5987  0.9571
20502SOL    HW279499   7.716   5.781  13.402  0.2899 -2.5143  1.9014
20503SOL     OW79500  14.105   9.133   9.705 -0.0405 -0.5002 -0.1473
20503SOL    HW179501  14.058   9.185   9.641 -1.3197 -1.0456  0.3210
20503SOL    HW279502  14.043   9.065   9.732  0.9032 -1.0489  0.7240
20504SOL     OW79503   3.262  12.473   2.658 -0.0844  0.2656 -0.0213
20504SOL    HW179504   3.176  12.437   2.681 -0.5210  0.6883 -0.9477
20504SOL    HW279505   3.268  12.462   2.563  2.3539 -2.9698  0.3308
20505SOL     OW79506   9.050  11.193   5.523 -0.2241  0.4008 -0.2782
20505SOL    HW179507   9.047  11.141   5.442  2.0624  2.1405 -1.6032
20505SOL    HW279508   9.078  11.131   5.590 -1.7520 -0.9867 -0.8454
20506SOL     OW79509   6.488  12.475   0.781  0.4659 -0.0698 -0.2249
20506SOL    HW179510   6.458  12.386   0.802  0.9680 -0.3428 -0.6336
20506SOL    HW279511   6.552  12.495   0.848  1.3104 -0.5351 -0.8758
20507SOL     OW79512   6.805   7.319   9.202 -0.1590 -0.5982 -0.1611
20507SOL    HW179513   6.775   7.410   9.196 -0.1529 -0.4776  1.3170
20507SOL    HW279514   6.897   7.326   9.229 -0.5938 -1.0440  1.5113
20508SOL     OW79515   9.709   7.802   3.069 -0.1565  0.5101 -0.5702
20508SOL    HW179516   9.776   7.854   3.113 -0.0983  0.7320 -0.9188
20508SOL    HW279517   9.755   7.760   2.996  0.0068 -0.7510  0.2271
20509SOL     OW79518  12.054   7.900   9.190 -0.3850  0.6543 -0.5941
20509SOL    HW179519  12.126   7.858   9.144 -2.3011 -1.5777 -1.7847
20509SOL    HW279520  11.979   7.889   9.132 -2.0537  1.3201  1.3084
20510SOL     OW79521   5.700  10.557   9.284 -0.3147 -0.3413  0.0772
20510SOL    HW179522   5.757  10.518   9.351 -0.5068  0.0564  0.4717
20510SOL    HW279523   5.622  10.503   9.284 -0.0100 -0.7942 -0.3560
20511SOL     OW79524   2.409   7.199   7.778 -0.1884 -0.2579 -0.4548
20511SOL    HW179525   2.340   7.139   7.751  0.3087 -0.4589 -1.3199
20511SOL    HW279526   2.481   7.143   7.806 -1.3857 -0.1288  3.4740
20512SOL     OW79527   5.284  13.299  13.354  0.4150 -0.2642 -0.4259
20512SOL    HW179528   5.334  13.372  13.391  0.6869 -1.0321  0.7612
20512SOL    HW279529   5.347  13.251  13.300  1.2748 -1.7233  1.7366
20513SOL     OW79530   2.805   1.118  11.265 -1.6932  0.4648  0.0948
20513SOL    HW179531   2.820   1.070  11.183 -1.9843  1.2121 -0.4049
20513SOL    HW279532   2.730   1.174  11.247 -2.0856  0.2705  1.0463
20514SOL     OW79533  10.757   5.563   1.384 -0.4009 -0.2130 -0.0244
20514SOL    HW179534  10.664   5.578   1.403 -0.7093 -0.4592 -1.2209
20514SOL    HW279535  10.762   5.568   1.288  0.8827  0.1305  0.0489
20515SOL     OW79536  12.083  13.613   7.883  0.0456 -0.1737  0.0784
20515SOL    HW179537  12.074  13.705   7.857  1.2155 -0.1117 -0.1558
20515SOL    HW279538  12.176  13.602   7.900 -0.0530 -1.3803 -0.1000
20516SOL     OW79539   8.459  11.098   8.416  0.2907  0.3783  0.2607
20516SOL    HW179540   8.425  11.167   8.358  1.1426  0.9113  0.3774
20516SOL    HW279541   8.542  11.132   8.448  0.3031 -0.3379  1.0276
20517SOL     OW79542   3.633   9.041  13.124  0.5062 -0.3647 -0.3124
20517SOL    HW179543   3.548   9.063  13.086  1.0738  3.2504  0.1336
20517SOL    HW279544   3.614   8.975  13.190 -2.7439  2.8537  2.4043
20518SOL     OW79545   0.868   1.604   5.243 -0.5725  0.1610 -0.8994
20518SOL    HW179546   0.902   1.530   5.193 -0.9995 -0.6164 -0.0604
20518SOL    HW279547   0.913   1.599   5.327 -1.8238 -0.1417 -0.2270
20519SOL     OW79548   2.753   6.748  10.019  0.5412  0.1538 -0.4991
20519SOL    HW179549   2.779   6.702  10.099 -2.7332  0.7987  1.1312
20519SOL    HW279550   2.803   6.830  10.022  0.5984  0.1062  0.8691
20520SOL     OW79551  10.745  13.977  12.772 -0.1954 -0.7202  0.2309
20520SOL    HW179552  10.754  14.022  12.855 -1.2881  0.2249 -0.1269
20520SOL    HW279553  10.670  14.020  12.730  0.0264 -1.5028 -1.0188
20521SOL     OW79554   3.430   0.053   1.877 -0.3229  0.2704 -0.1832
20521SOL    HW179555   3.508   0.107   1.878  0.4359 -0.8062  0.5901
20521SOL    HW279556   3.380   0.080   1.954  1.1569 -1.6220  1.5474
20522SOL     OW79557   0.970   6.147   2.834  0.1163  0.5387  0.3955
20522SOL    HW179558   0.969   6.073   2.773  0.1082  1.5744 -0.9115
20522SOL    HW279559   0.902   6.205   2.801  0.7647  1.5634  0.8364
20523SOL     OW79560   3.876   4.036  12.760 -0.7420  0.0966  0.4566
20523SOL    HW179561   3.865   4.097  12.833  0.0207 -2.1763  2.6377
20523SOL    HW279562   3.924   3.962  12.798  1.6370 -0.3211 -2.8956
20524SOL     OW79563  11.288   4.257   2.199 -0.4928  0.0892  0.4412
20524SOL    HW179564  11.333   4.266   2.283 -1.6134  0.1029  1.0617
20524SOL    HW279565  11.299   4.165   2.176  1.1193  0.4093 -0.1720
20525SOL     OW79566  10.871   9.415  10.704 -0.0736 -0.1248  0.0044
20525SOL    HW179567  10.811   9.346  10.732 -0.0008 -0.5125 -0.7822
20525SOL    HW279568  10.952   9.399  10.753  0.4532 -1.4963 -1.2506
20526SOL     OW79569   7.684   4.788   6.844  0.4293 -0.1637  0.9249
20526SOL    HW179570   7.703   4.782   6.750  0.6695  0.6074  0.9165
20526SOL    HW279571   7.757   4.839   6.880 -0.3385  0.7140  1.2998
20527SOL     OW79572   0.703   9.534   0.818 -0.1911 -0.1966  0.0644
20527SOL    HW179573   0.677   9.605   0.759  0.3337 -0.0683 -0.0154
20527SOL    HW279574   0.769   9.485   0.770  1.5558  0.9441  1.1800
20528SOL     OW79575  10.820   3.997   1.972 -0.3367 -0.8141 -0.5937
20528SOL    HW179576  10.789   3.973   1.885  0.4855 -2.1181 -0.5701
20528SOL    HW279577  10.883   4.068   1.956 -1.7160  0.3819 -0.8342
20529SOL     OW79578  11.465  11.926   1.422 -0.1189 -0.1113 -0.9763
20529SOL    HW179579  11.552  11.917   1.382  0.8757 -0.3079  1.0543
20529SOL    HW279580  11.452  12.020   1.429  0.7849 -0.0371  0.2788
20530SOL     OW79581  13.556   2.480   9.162 -0.4346 -0.3087 -0.0549
20530SOL    HW179582  13.488   2.542   9.190 -1.0693 -0.3586 -1.3820
20530SOL    HW279583  13.515   2.432   9.090  0.5800 -1.2422 -0.0299
20531SOL     OW79584  11.257  11.386  13.154 -0.0211  0.0637  0.1753
20531SOL    HW179585  11.304  11.350  13.079  1.4377 -1.8043  1.8755
20531SOL    HW279586  11.170  11.407  13.120  0.5560 -0.8231 -2.0070
20532SOL     OW79587   6.548   6.596   3.991 -0.0203  0.1539 -0.2494
20532SOL    HW179588   6.529   6.504   3.971 -0.9411 -0.1062  1.5746
20532SOL    HW279589   6.525   6.605   4.083  2.2231  1.6724  0.2201
20533SOL     OW79590  12.320   6.679   6.670 -0.0073  0.0879  0.0947
20533SOL    HW179591  12.341   6.663   6.578 -2.0033  2.4804 -0.8894
20533SOL    HW279592  12.360   6.765   6.689  1.4650 -0.9138  1.9161
20534SOL     OW79593   7.057   4.159   8.169 -0.0590 -0.6153  0.1727
20534SOL    HW179594   7.022   4.083   8.217 -0.7936 -0.8732 -0.7608
20534SOL    HW279595   7.015   4.234   8.211  0.8801 -0.6816  1.2867
20535SOL     OW79596  13.044   2.841   0.891  0.6791 -0.3371 -0.8374
20535SOL    HW179597  12.970   2.892   0.857 -1.0198  0.0328  2.9310
20535SOL    HW279598  13.004   2.763   0.930  2.3663 -0.6711  0.3213
20536SOL     OW79599   1.713   2.101   4.196  0.7542  0.6959  0.4523
20536SOL    HW179600   1.726   2.040   4.123 -0.0861  1.9489 -0.8132
20536SOL    HW279601   1.652   2.056   4.254 -2.9383  1.6053 -2.2982
20537SOL     OW79602   2.050   0.527   4.843  0.0532 -0.2781  0.2759
20537SOL    HW179603   2.017   0.538   4.754  0.2178 -0.6948  0.1639
20537SOL    HW279604   1.974   0.497   4.893  0.1763 -0.8989  0.0913
20538SOL     OW79605   0.321   5.148   2.637  0.2863  1.2003  0.0363
20538SOL    HW179606   0.348   5.106   2.556  1.0549  2.3329 -0.3292
20538SOL    HW279607   0.264   5.220   2.610 -0.3376  0.9249  0.5820
20539SOL     OW79608   5.598  10.065   3.773 -0.0057 -0.6713  0.2127
20539SOL    HW179609   5.537  10.136   3.752 -0.1658 -1.1714 -1.0662
20539SOL    HW279610   5.582  10.047   3.866  0.5399  1.4385  0.7690
20540SOL     OW79611   7.052   3.451  12.686 -0.2772 -0.0067 -0.2989
20540SOL    HW179612   7.001   3.521  12.726 -0.8513  0.3342 -1.5706
20540SOL    HW279613   7.013   3.371  12.720  0.1106  0.2721  0.8430
20541SOL     OW79614   0.941   2.456   8.658 -0.9269 -0.0368 -0.1343
20541SOL    HW179615   0.918   2.432   8.748 -0.6209 -2.3718 -0.6193
20541SOL    HW279616   0.863   2.435   8.607 -0.8306  0.5604 -0.5337
20542SOL     OW79617  11.635   6.532  14.146 -0.0430  0.1695 -0.5684
20542SOL    HW179618  11.681   6.454  14.115 -0.0872  0.4200 -1.2918
20542SOL    HW279619  11.691   6.567  14.215  1.1221  0.7333 -1.7601
20543SOL     OW79620   8.352   1.312  10.566  0.1054 -0.3853 -0.1395
20543SOL    HW179621   8.421   1.374  10.588  0.4985 -0.4112 -1.1959
20543SOL    HW279622   8.272   1.363  10.565  0.1313 -0.3084  0.8868
20544SOL     OW79623   3.989   4.344  14.073  0.0302  0.0245 -0.1195
20544SOL    HW179624   4.036   4.408  14.128 -0.5711  0.3810 -0.0051
20544SOL    HW279625   3.969   4.392  13.993  1.0318 -0.5394 -0.7300
20545SOL     OW79626   7.652  10.822   0.247  0.8469 -0.1513 -0.0063
20545SOL    HW179627   7.606  10.829   0.330  0.3531 -0.3991 -0.2481
20545SOL    HW279628   7.605  10.883   0.189  2.6261  1.8219  0.4905
20546SOL     OW79629   8.191  12.686  13.854  0.1021  0.1013 -0.1844
20546SOL    HW179630   8.114  12.664  13.802 -0.4260 -0.8859  0.9773
20546SOL    HW279631   8.248  12.610  13.847  0.6550  0.5200 -0.4066
20547SOL     OW79632   2.918   2.194   3.884 -0.3073  0.0220  0.2381
20547SOL    HW179633   3.006   2.232   3.892  0.2569 -0.6237 -2.0897
20547SOL    HW279634   2.865   2.243   3.947  1.5079  1.0934  1.0086
20548SOL     OW79635   4.571   3.473   7.206 -0.4531  0.0252  0.1063
20548SOL    HW179636   4.654   3.519   7.196 -0.5402  0.7430  2.2081
20548SOL    HW279637   4.589   3.406   7.272 -1.6307  0.4419  0.8671
20549SOL     OW79638  11.668   0.241   4.578  0.0755 -0.8474 -0.6097
20549SOL    HW179639  11.681   0.284   4.493  1.8387  0.2962  0.1846
20549SOL    HW279640  11.745   0.266   4.630 -1.7207 -0.1278  1.8995
20550SOL     OW79641   9.698  10.499  13.396  0.5171  0.3641 -0.2770
20550SOL    HW179642   9.752  10.519  13.320 -1.2160  1.4704 -1.2975
20550SOL    HW279643   9.634  10.570  13.399 -0.3446 -0.4257  1.3745
20551SOL     OW79644   1.670   6.986   1.847 -0.0267 -0.4444 -0.2650
20551SOL    HW179645   1.657   7.076   1.819  0.6979  0.7182  2.8070
20551SOL    HW279646   1.584   6.945   1.840 -0.9939  1.3036  0.8589
20552SOL     OW79647   5.619   1.140  12.495  0.1947 -0.1634 -0.2949
20552SOL    HW179648   5.699   1.087  12.490 -0.1370 -0.6239 -0.9182
20552SOL    HW279649   5.556   1.092  12.442 -0.6721 -0.1112  0.6556
20553SOL     OW79650  13.887   7.127   9.671  0.4585  0.0853 -0.8291
20553SOL    HW179651  13.811   7.147   9.617 -0.7639 -0.9077  0.4264
20553SOL    HW279652  13.920   7.212   9.700 -1.8008  0.5290  0.6904
20554SOL     OW79653   8.944   0.912  12.541 -0.1124 -0.8703  0.5815
20554SOL    HW179654   9.002   0.965  12.596 -0.2293 -0.1556  0.0308
20554SOL    HW279655   8.911   0.974  12.475 -1.1823 -1.3607  0.6445
20555SOL     OW79656   8.972   3.435   0.977  0.3943  0.3701  0.5488
20555SOL    HW179657   9.037   3.409   0.911  0.6589 -0.6345  1.1792
20555SOL    HW279658   9.021   3.435   1.059 -0.5133 -1.0081  1.1304
20556SOL     OW79659  13.061  10.017  10.988  0.1629 -0.4124  0.3724
20556SOL    HW179660  13.135  10.012  10.927 -0.3457  0.3541 -0.3393
20556SOL    HW279661  13.102  10.036  11.073  0.8234 -0.6103  0.1095
20557SOL     OW79662   5.687   4.714   0.853 -0.2931 -0.3522 -0.6337
20557SOL    HW179663   5.701   4.787   0.913 -0.8755  0.5015 -1.5100
20557SOL    HW279664   5.735   4.739   0.774 -0.8669 -0.7103 -1.0973
20558SOL     OW79665   8.112   7.653   4.717 -0.7312 -0.1318 -0.5975
20558SOL    HW179666   8.188   7.689   4.762  1.0105 -1.6148 -2.1842
20558SOL    HW279667   8.065   7.604   4.784 -1.1894  2.0451  0.7617
20559SOL     OW79668  10.600  13.111   5.620  0.0053 -0.2080  0.3418
20559SOL    HW179669  10.548  13.135   5.698 -0.4834 -1.5744  0.4633
20559SOL    HW279670  10.536  13.072   5.560  0.8099 -1.5592  0.3322
20560SOL     OW79671  11.683   8.110  12.879  0.5866  0.3107 -0.4764
20560SOL    HW179672  11.697   8.204  12.893  1.0263  0.0224  1.3528
20560SOL    HW279673  11.768   8.077  12.849  0.5498  0.4441 -0.7214
20561SOL     OW79674   9.447   0.195   5.795 -0.1044 -0.3298  0.2348
20561SOL    HW179675   9.380   0.130   5.815  1.3313 -2.2433 -0.8194
20561SOL    HW279676   9.518   0.176   5.855 -0.6914  2.1812  1.8838
20562SOL     OW79677  11.581   6.496  10.719 -0.5585 -0.1446 -0.4518
20562SOL    HW179678  11.589   6.443  10.640  0.4803  1.3980 -1.4396
20562SOL    HW279679  11.487   6.513  10.728 -0.6844 -0.3502 -1.3390
20563SOL     OW79680  13.361   1.115   1.405 -0.4315 -0.2773 -0.4651
20563SOL    HW179681  13.411   1.184   1.448 -2.4710  1.2152 -0.3421
20563SOL    HW279682  13.377   1.037   1.458 -1.6522  1.1325  2.1680
20564SOL     OW79683   7.757   7.084   0.687  0.5682  0.1545  0.9770
20564SOL    HW179684   7.803   7.077   0.603 -1.2745 -0.0576 -0.0629
20564SOL    HW279685   7.700   7.008   0.690 -0.4605  0.9252  1.7531
20565SOL     OW79686  12.436  12.136   4.759 -0.2447 -0.3994  0.5176
20565SOL    HW179687  12.445  12.191   4.681  1.2694 -1.4805 -0.1065
20565SOL    HW279688  12.342  12.120   4.766 -0.5187  0.6804 -0.3984
20566SOL     OW79689   2.059   1.382   6.549  0.1599  0.1213 -0.1108
20566SOL    HW179690   2.019   1.429   6.622 -0.9658 -2.1509  0.8462
20566SOL    HW279691   2.142   1.350   6.583 -1.1843 -2.5449  0.9535
20567SOL     OW79692  13.419   6.005   9.941 -0.1994  0.3544  0.5164
20567SOL    HW179693  13.394   6.057  10.018  0.5965 -0.8832  1.6475
20567SOL    HW279694  13.343   5.950   9.923 -0.2490  0.3821  0.6422
20568SOL     OW79695  12.675   0.997  11.199  0.0222 -0.1523  0.4612
20568SOL    HW179696  12.714   1.034  11.120  1.0057 -1.9450  0.0580
20568SOL    HW279697  12.602   0.944  11.166 -0.7832  0.6287  0.9460
20569SOL     OW79698  13.163   9.018   5.520 -0.2296  0.5947 -0.6671
20569SOL    HW179699  13.198   8.952   5.461 -0.7163  0.3483 -0.6820
20569SOL    HW279700  13.180   9.101   5.477  2.0837  0.6388  0.1913
20570SOL     OW79701  11.187  11.389   0.114 -0.3707 -0.1743 -0.7789
20570SOL    HW179702  11.216  11.394   0.023  2.3740  1.6941  0.0753
20570SOL    HW279703  11.110  11.445   0.118 -0.6268 -0.4145 -1.9576
20571SOL     OW79704   0.265   9.092  12.203 -0.0632  0.0163 -0.2214
20571SOL    HW179705   0.276   9.184  12.182  1.9553  0.3892  2.0040
20571SOL    HW279706   0.206   9.091  12.279  1.5448 -0.2664  1.0927
20572SOL     OW79707   3.485  12.756   7.684 -0.1022 -0.2707 -0.1185
20572SOL    HW179708   3.448  12.799   7.761  0.9166  0.3541  0.0577
20572SOL    HW279709   3.568  12.802   7.670 -0.4380 -0.1303 -1.8092
20573SOL     OW79710   3.777   8.920  10.215  0.0125  0.4200  0.4489
20573SOL    HW179711   3.802   8.937  10.306  0.9132 -0.0042  0.2903
20573SOL    HW279712   3.794   8.827  10.202 -0.7728  0.3242  0.0430
20574SOL     OW79713   8.988   0.057   4.990 -0.1324  1.0910  0.3439
20574SOL    HW179714   9.057   0.012   5.038 -1.6089 -0.7233  0.8898
20574SOL    HW279715   8.973   0.137   5.039  1.3541  1.3921  0.3622
20575SOL     OW79716   2.229   2.743   5.597  0.0231 -0.3266 -0.2682
20575SOL    HW179717   2.157   2.768   5.539  0.8197 -1.4846 -1.8523
20575SOL    HW279718   2.201   2.660   5.636 -0.3571  0.2691  0.7595
20576SOL     OW79719   0.795   3.901   0.266 -0.4893 -0.3691  0.2597
20576SOL    HW179720   0.836   3.834   0.320 -0.3831 -0.8027 -0.3485
20576SOL    HW279721   0.843   3.981   0.286  1.2108 -1.0138 -1.0151
20577SOL     OW79722   0.977   7.340  13.932 -0.2903  0.8104 -0.4891
20577SOL    HW179723   1.038   7.369  13.864 -1.6262  3.0224 -0.8422
20577SOL    HW279724   0.971   7.246  13.919  0.1991  1.0287 -2.8814
20578SOL     OW79725   3.353   5.042   6.848  0.2685 -0.3906  0.3334
20578SOL    HW179726   3.343   5.021   6.941 -1.4974  3.6579  1.3221
20578SOL    HW279727   3.420   5.110   6.846 -1.3691  1.3088 -0.8967
20579SOL     OW79728  13.239   0.409   5.600 -0.2874 -0.2190  0.0093
20579SOL    HW179729  13.169   0.382   5.659  0.3951  0.1690  1.0225
20579SOL    HW279730  13.308   0.441   5.658  0.4604  0.0351 -0.9982
20580SOL     OW79731   2.609   0.682   7.740  0.1841  0.6434  0.2378
20580SOL    HW179732   2.539   0.624   7.709  0.7141  0.3851 -0.5091
20580SOL    HW279733   2.667   0.692   7.665  2.0474 -0.8157  1.3836
20581SOL     OW79734   2.739  13.310   8.288 -0.5520  0.5536 -1.0322
20581SOL    HW179735   2.706  13.236   8.340 -0.1080  0.9642 -0.1509
20581SOL    HW279736   2.672  13.378   8.298  0.9083  1.7324  1.5331
20582SOL     OW79737  11.488   0.962  13.193 -0.4189  0.1512 -0.1171
20582SOL    HW179738  11.464   1.040  13.242 -0.0327  1.3438 -1.7544
20582SOL    HW279739  11.584   0.960  13.194 -0.4252 -0.6446  0.3973
20583SOL     OW79740   7.767   2.469  12.598 -0.2130  0.3772  0.2575
20583SOL    HW179741   7.777   2.526  12.675  0.7060 -1.4742  1.5948
20583SOL    HW279742   7.697   2.408  12.623 -0.7251  0.4741 -0.8821
20584SOL     OW79743   8.949   9.971   0.697  0.3851  0.2320  0.0390
20584SOL    HW179744   8.933   9.886   0.737  0.5302  0.1787 -0.0147
20584SOL    HW279745   8.873  10.024   0.720  0.4897  0.2148  0.4229
20585SOL     OW79746   0.920   3.514  10.958 -0.2042 -0.0479 -0.6497
20585SOL    HW179747   0.925   3.522  11.053  0.7908 -4.0152 -0.1858
20585SOL    HW279748   1.000   3.555  10.926  0.8718 -1.1340  0.5358
20586SOL     OW79749  10.764   1.930   1.735 -0.4513 -0.0583  0.1385
20586SOL    HW179750  10.713   1.953   1.658 -2.0812 -1.1731  0.8269
20586SOL    HW279751  10.700   1.924   1.806  0.8615 -0.0097  1.3852
20587SOL     OW79752   6.013  13.862   2.513 -0.1237  0.2430 -0.0859
20587SOL    HW179753   5.956  13.933   2.542 -1.1121 -0.6758  0.2865
20587SOL    HW279754   6.087  13.865   2.574 -0.4148  0.6109  0.2615
20588SOL     OW79755  11.684   0.679   4.772  0.2522 -0.2914 -0.2662
20588SOL    HW179756  11.635   0.642   4.845  1.9491  1.1519  1.7169
20588SOL    HW279757  11.747   0.611   4.748  0.1089 -0.5291  0.0305
20589SOL     OW79758  12.498   1.811   7.085 -0.1203  0.1238  0.1880
20589SOL    HW179759  12.445   1.745   7.129 -0.5954  0.6972  0.5044
20589SOL    HW279760  12.566   1.762   7.040  1.5027 -0.3965  2.9944
20590SOL     OW79761   6.416   3.200   9.712  0.1090 -0.1297  0.1863
20590SOL    HW179762   6.401   3.140   9.640  2.1814 -0.7459  0.2065
20590SOL    HW279763   6.405   3.147   9.791  0.0662 -0.0206  0.2548
20591SOL     OW79764  10.913   1.506  11.720 -0.0676 -0.8517 -0.0663
20591SOL    HW179765  10.866   1.548  11.792 -0.1169 -0.2615 -0.4388
20591SOL    HW279766  10.876   1.418  11.715 -0.9803 -0.4666 -0.2111
20592SOL     OW79767  10.615   1.915  11.306 -0.2808 -0.2880 -0.4856
20592SOL    HW179768  10.612   1.921  11.211 -1.2605 -0.8994 -0.5016
20592SOL    HW279769  10.706   1.890  11.326 -0.4766 -1.7950 -1.3570
20593SOL     OW79770   6.256   0.377   6.542 -0.6751  0.1919 -0.5509
20593SOL    HW179771   6.235   0.306   6.482  0.8304 -0.6297 -0.1570
20593SOL    HW279772   6.291   0.334   6.619 -1.1182  1.3106  0.3046
20594SOL     OW79773   7.839   3.334  10.793 -0.0708 -0.2991  0.2907
20594SOL    HW179774   7.911   3.274  10.769 -1.6230 -2.4606  0.7222
20594SOL    HW279775   7.860   3.362  10.882  1.1973  0.6751 -0.2822
20595SOL     OW79776   9.246  13.258   2.196 -0.2252 -0.1715  0.2097
20595SOL    HW179777   9.247  13.186   2.133 -0.2850  0.3971 -0.4549
20595SOL    HW279778   9.338  13.279   2.210 -0.2031 -0.4523  0.4971
20596SOL     OW79779   8.423   1.954   1.147 -0.2201 -0.4578  0.5425
20596SOL    HW179780   8.401   1.861   1.136 -0.0520 -0.3907 -0.4718
20596SOL    HW279781   8.436   1.986   1.058  0.0061  0.4770  0.9010
20597SOL     OW79782   5.290   4.375  10.088  0.2204  0.3241  0.3607
20597SOL    HW179783   5.342   4.438  10.139  0.4096  1.1681 -0.8321
20597SOL    HW279784   5.344   4.296  10.086  0.9325  0.8022  0.1610
20598SOL     OW79785   4.575   7.045   9.553 -0.0941 -0.1322  0.0013
20598SOL    HW179786   4.618   7.079   9.475 -0.1367 -0.4722 -0.1729
20598SOL    HW279787   4.637   7.062   9.624 -0.4134  0.9259  0.0312
20599SOL     OW79788  11.703   5.655   2.291 -0.3176 -0.2282 -0.0965
20599SOL    HW179789  11.637   5.713   2.330 -2.2564 -1.7687 -0.8984
20599SOL    HW279790  11.786   5.702   2.302 -1.5533  1.8982  0.7891
20600SOL     OW79791   9.761  10.557  11.709  0.4076  0.0256 -0.5906
20600SOL    HW179792   9.806  10.524  11.631 -1.4587  0.3740 -1.9155
20600SOL    HW279793   9.736  10.647  11.685  0.1464  0.2752  0.5689
20601SOL     OW79794  10.975   7.316   5.640  0.0604 -0.0497 -0.5872
20601SOL    HW179795  11.035   7.373   5.593  0.5516 -0.0147  0.0856
20601SOL    HW279796  10.966   7.239   5.583 -0.5374  0.6405 -1.4525
20602SOL     OW79797   2.689   8.324   8.774  0.0659 -0.2795 -0.5970
20602SOL    HW179798   2.666   8.363   8.859 -0.7655  0.7705 -1.2812
20602SOL    HW279799   2.607   8.286   8.742  0.7205 -2.1069 -0.2401
20603SOL     OW79800  13.284  13.077  13.819 -0.8147  0.3308 -0.2043
20603SOL    HW179801  13.252  13.162  13.847  0.0423  0.3346  0.7983
20603SOL    HW279802  13.208  13.019  13.826 -0.6626  0.3414  2.1353
20604SOL     OW79803   5.952  13.607   6.147 -0.9009  0.0542  0.0662
20604SOL    HW179804   5.953  13.591   6.052  2.8711  3.4617 -0.7609
20604SOL    HW279805   6.027  13.557   6.180 -0.8371  0.6331  0.8276
20605SOL     OW79806   8.912   7.927   7.657  0.0978 -0.3439 -0.1579
20605SOL    HW179807   8.919   7.833   7.641 -2.7323 -1.2976  2.9809
20605SOL    HW279808   8.952   7.940   7.743  0.4862  1.3911 -0.5520
20606SOL     OW79809   4.305  12.031   4.032  0.2374  0.0023 -0.6987
20606SOL    HW179810   4.230  12.072   3.989  0.4880  1.3318  0.0690
20606SOL    HW279811   4.362  12.002   3.961 -1.5046 -2.1247 -1.3471
20607SOL     OW79812   5.282   8.700   0.616 -0.1982  0.4605 -0.9414
20607SOL    HW179813   5.310   8.792   0.607 -0.1470  0.3137 -2.6216
20607SOL    HW279814   5.360   8.655   0.647 -0.0352  0.8773 -0.7300
20608SOL     OW79815  11.207  12.522  11.672  0.3805 -0.0709 -0.0967
20608SOL    HW179816  11.173  12.586  11.734 -0.9786 -0.0953 -0.7946
20608SOL    HW279817  11.275  12.569  11.624  0.2760  0.4506  0.2575
20609SOL     OW79818   2.469   1.903  11.774  0.6006 -0.0561 -0.0706
20609SOL    HW179819   2.401   1.935  11.715  1.1705  2.5180  0.5194
20609SOL    HW279820   2.551   1.938  11.737  1.0643  0.7723  1.6304
20610SOL     OW79821  11.032   5.562  13.712 -0.3479  0.3585 -0.6274
20610SOL    HW179822  11.021   5.471  13.738 -1.2452  0.7021  0.2608
20610SOL    HW279823  11.117   5.564  13.667  0.0917 -0.7436  0.0998
20611SOL     OW79824  10.891   3.002  13.809  0.0025 -0.4654 -0.1945
20611SOL    HW179825  10.937   2.936  13.860  2.7769  1.4587  0.0394
20611SOL    HW279826  10.842   2.952  13.743 -0.4050 -2.8063  1.7547
20612SOL     OW79827   0.116  11.362  10.819 -0.0711  0.0594  1.2251
20612SOL    HW179828   0.133  11.291  10.758  2.1848  1.1312  0.4806
20612SOL    HW279829   0.071  11.320  10.893 -0.8888 -1.6671 -0.1870
20613SOL     OW79830   6.550   4.131  10.316  0.3551  0.3121 -0.0009
20613SOL    HW179831   6.507   4.116  10.400  0.0046 -1.0101 -0.3913
20613SOL    HW279832   6.633   4.085  10.323  0.2682  0.0879 -0.4225
20614SOL     OW79833   9.125  14.048   3.475 -0.2492  0.2057  0.8227
20614SOL    HW179834   9.108  14.123   3.418 -0.7054  0.5697  1.4250
20614SOL    HW279835   9.091  14.074   3.561 -0.1554 -0.5768  1.1120
20615SOL     OW79836   6.624   1.943  12.836  0.2877  0.3554 -0.7567
20615SOL    HW179837   6.535   1.950  12.801  0.7155  0.8888 -1.8043
20615SOL    HW279838   6.676   1.909  12.762  0.6199 -1.8838  0.4248
20616SOL     OW79839  13.612   3.480   9.552 -0.0325 -0.6707 -0.4245
20616SOL    HW179840  13.627   3.452   9.462  0.0788  0.9013 -0.9343
20616SOL    HW279841  13.532   3.532   9.548  1.5063  1.8948 -0.2421
20617SOL     OW79842   7.717   6.309  13.282  0.1188  0.6218  0.0763
20617SOL    HW179843   7.792   6.249  13.290  0.9716  1.7526  0.8141
20617SOL    HW279844   7.728   6.348  13.195 -0.9479 -0.9112 -0.7902
20618SOL     OW79845  11.578   0.106  13.241  0.4131  0.0529 -0.0439
20618SOL    HW179846  11.496   0.065  13.268 -0.7978  1.7982 -0.8879
20618SOL    HW279847  11.561   0.141  13.154  1.1152  2.8176  0.7948
20619SOL     OW79848   8.185   2.208   2.765  0.5549 -0.0669 -0.0094
20619SOL    HW179849   8.149   2.192   2.678 -0.9871  0.1449  0.5639
20619SOL    HW279850   8.122   2.265   2.808  1.4311  0.0724  1.1638
20620SOL     OW79851   3.385   6.794  10.606  0.1743  0.0587 -0.1704
20620SOL    HW179852   3.418   6.872  10.562 -0.9101  0.6415  0.0253
20620SOL    HW279853   3.315   6.826  10.663 -0.7497 -1.1284 -0.5932
20621SOL     OW79854  13.172  11.207   7.680 -0.2271  0.0782 -0.0746
20621SOL    HW179855  13.253  11.188   7.632 -0.9039 -1.4823 -0.6540
20621SOL    HW279856  13.185  11.296   7.715  0.9634  0.6003 -1.7330
20622SOL     OW79857  14.063   3.433   6.610  0.0173 -0.2411  0.2866
20622SOL    HW179858  14.113   3.377   6.669 -2.6570 -0.8561  2.1299
20622SOL    HW279859  14.034   3.375   6.540  1.1150 -0.0515 -0.3576
20623SOL     OW79860   1.716   7.067   1.348  0.2623 -0.2010 -0.5959
20623SOL    HW179861   1.721   6.973   1.330  0.1947  0.1338 -2.5692
20623SOL    HW279862   1.634   7.095   1.309  0.4140  0.7403 -0.2714
20624SOL     OW79863   2.218  11.841  10.131 -0.4053 -0.0374  0.3571
20624SOL    HW179864   2.203  11.872  10.220  0.3690 -0.6682  0.7174
20624SOL    HW279865   2.184  11.911  10.075 -1.2789  0.1828  1.1346
20625SOL     OW79866   2.212   1.790   8.897 -0.4105  0.1772 -0.2565
20625SOL    HW179867   2.299   1.829   8.893 -0.5238  0.4241 -0.3249
20625SOL    HW279868   2.217   1.728   8.970 -0.8389  1.8474  1.2606
20626SOL     OW79869  13.019   3.073   6.373 -0.2994  0.4138  0.1837
20626SOL    HW179870  13.057   3.004   6.318 -1.1609 -0.6750  0.9045
20626SOL    HW279871  12.924   3.060   6.366 -0.4424 -0.5968  2.8911
20627SOL     OW79872  10.741   3.724   3.167  0.0340 -0.5562 -0.3874
20627SOL    HW179873  10.776   3.663   3.233  1.5959 -2.1348 -2.5454
20627SOL    HW279874  10.812   3.787   3.155 -0.4160 -0.0274 -0.2755
20628SOL     OW79875   2.819   7.672  12.949  0.6031  0.2912  0.4305
20628SOL    HW179876   2.801   7.725  13.027  0.0443 -0.2841  0.7071
20628SOL    HW279877   2.819   7.582  12.982 -2.0745 -0.1848 -0.6213
20629SOL     OW79878   2.195   7.103  13.192 -0.4374 -0.1558  0.5350
20629SOL    HW179879   2.250   7.174  13.158  0.0830 -0.6238  0.3869
20629SOL    HW279880   2.177   7.128  13.283 -0.4885  0.3021  0.4014
20630SOL     OW79881   4.077   5.030   6.476  0.4183 -0.2743 -0.0211
20630SOL    HW179882   4.068   5.124   6.486 -0.8840 -0.3716 -0.0859
20630SOL    HW279883   4.153   5.007   6.530  0.7616  0.7992 -0.0199
20631SOL     OW79884   2.763  11.468  12.509 -0.0650  0.1101  0.5099
20631SOL    HW179885   2.705  11.407  12.464  0.9409  0.2893 -1.1038
20631SOL    HW279886   2.846  11.420  12.516  0.4920  0.9704 -0.0370
20632SOL     OW79887   8.334   5.573   5.518  0.2715 -0.0636 -1.2584
20632SOL    HW179888   8.385   5.503   5.477  1.8121 -0.0267  0.4474
20632SOL    HW279889   8.400   5.632   5.556 -1.0131  1.5925 -1.4719
20633SOL     OW79890   3.068   6.953   5.925  0.5371  0.1440  0.1790
20633SOL    HW179891   3.138   6.916   5.980  0.9640 -1.2804 -1.2211
20633SOL    HW279892   3.100   7.040   5.901  1.3529 -0.0748  0.4266
20634SOL     OW79893  12.187  13.159  11.423  0.4066  0.4536  0.0539
20634SOL    HW179894  12.255  13.106  11.381  0.7256 -0.4167  1.5983
20634SOL    HW279895  12.191  13.243  11.378 -1.1982 -1.1993 -3.6351
20635SOL     OW79896   9.987  12.297   8.891  0.1840 -0.2623  0.4201
20635SOL    HW179897  10.018  12.368   8.947  0.3219 -0.3674  0.4784
20635SOL    HW279898   9.932  12.244   8.948 -0.8582  0.4284  0.0884
20636SOL     OW79899   7.296  13.410  10.891  0.0419  0.2067 -0.2607
20636SOL    HW179900   7.254  13.488  10.928  0.3585 -1.2277  3.5951
20636SOL    HW279901   7.246  13.336  10.927  1.8989 -1.4527 -0.8733
20637SOL     OW79902  12.005   3.586   3.440  0.1423 -0.1264  0.0232
20637SOL    HW179903  11.916   3.621   3.431  0.3767 -0.0424 -2.6317
20637SOL    HW279904  11.997   3.494   3.414  0.9040  0.0290 -0.7956
20638SOL     OW79905   3.964   5.642   8.203 -0.2916 -0.5694 -0.2573
20638SOL    HW179906   3.883   5.688   8.227  0.5867 -0.3153  2.5913
20638SOL    HW279907   4.012   5.705   8.148 -1.5360 -0.3437 -1.1274
20639SOL     OW79908   7.117   4.100  12.936 -0.4916 -0.0110  0.3156
20639SOL    HW179909   7.086   4.061  13.018  2.2684 -0.9713  1.0066
20639SOL    HW279910   7.155   4.183  12.961  0.1271 -0.1849 -0.0340
20640SOL     OW79911  10.119   8.163   7.733 -0.9753  0.5120  0.3461
20640SOL    HW179912  10.189   8.097   7.741 -1.5723 -0.1791 -0.0156
20640SOL    HW279913  10.136   8.224   7.805  0.2212  0.5732  0.0410
20641SOL     OW79914  11.572  11.347   7.721  0.2330  0.0858 -0.8378
20641SOL    HW179915  11.516  11.270   7.720  1.2779 -0.7010 -0.7345
20641SOL    HW279916  11.641  11.326   7.784 -0.7899  2.0985  1.0677
20642SOL     OW79917  10.844   8.939  11.292 -0.3724  0.1307  0.1421
20642SOL    HW179918  10.893   9.022  11.295 -0.1400 -0.0234  1.7461
20642SOL    HW279919  10.761   8.959  11.335 -0.0301 -0.6145  1.1994
20643SOL     OW79920   6.531  11.668  13.747  0.5171  0.4765 -0.4116
20643SOL    HW179921   6.543  11.710  13.832  1.3861  0.4379 -0.5094
20643SOL    HW279922   6.436  11.657  13.739  0.3927  0.9658  0.3128
20644SOL     OW79923   8.979  11.769   4.799 -0.0685 -0.6848  0.0664
20644SOL    HW179924   8.917  11.709   4.838  0.3474 -1.6943 -0.7707
20644SOL    HW279925   9.023  11.718   4.731  2.0057 -0.1717  0.9232
20645SOL     OW79926   8.037   0.732   9.057  0.2835 -0.1615 -0.2773
20645SOL    HW179927   8.095   0.690   8.993  0.1801 -0.3056 -0.2774
20645SOL    HW279928   7.959   0.757   9.005 -0.4628 -1.6468  0.0853
20646SOL     OW79929   1.110  14.086  10.604 -0.2988 -0.0220  0.3505
20646SOL    HW179930   1.091  14.173  10.568 -1.2496 -0.2880  0.1772
20646SOL    HW279931   1.161  14.043  10.536 -1.1295 -0.1279 -0.2145
20647SOL     OW79932   4.252  11.800   9.045 -0.7801  0.3425  0.0395
20647SOL    HW179933   4.208  11.720   9.014 -0.0087  0.2901 -0.9880
20647SOL    HW279934   4.269  11.850   8.965 -0.4175  1.1028  0.5801
20648SOL     OW79935   0.167  12.758   4.932  0.2091  0.0269  0.2264
20648SOL    HW179936   0.144  12.726   5.020 -0.2952 -0.1569  0.0283
20648SOL    HW279937   0.116  12.704   4.873  0.6801  0.0335 -0.1964
20649SOL     OW79938  13.302   7.980  13.253 -0.2822 -0.1654 -0.1606
20649SOL    HW179939  13.341   7.999  13.168  0.7585 -1.4562  0.0011
20649SOL    HW279940  13.281   8.066  13.289  1.1245  0.5067 -0.8670
20650SOL     OW79941   2.922   8.411  10.293  0.1451 -0.2688 -0.1542
20650SOL    HW179942   2.943   8.380  10.204  0.7696  0.4199 -0.2556
20650SOL    HW279943   2.903   8.331  10.342  1.2601 -0.7923 -0.5345
20651SOL     OW79944   2.499   3.429  13.228  0.2046  0.0070 -0.3559
20651SOL    HW179945   2.503   3.393  13.140  1.9501  0.6508 -0.5794
20651SOL    HW279946   2.408   3.455  13.240 -0.1791 -0.6584 -1.7252
20652SOL     OW79947   2.007   8.239  10.425  0.2754  0.2963  0.3793
20652SOL    HW179948   2.079   8.258  10.485  0.9010  1.9220 -0.8145
20652SOL    HW279949   2.047   8.243  10.338 -0.7844 -1.1394 -0.2135
20653SOL     OW79950   2.169  12.951   4.648  0.4081 -0.5969 -0.1355
20653SOL    HW179951   2.231  12.878   4.642  0.5621 -0.4229 -0.6920
20653SOL    HW279952   2.145  12.970   4.557  0.2231 -0.0813  0.0169
20654SOL     OW79953  12.947   8.773   8.920  0.0358  0.1963  0.0570
20654SOL    HW179954  12.896   8.818   8.987  1.1506  0.7566  0.5713
20654SOL    HW279955  12.988   8.844   8.870  2.0239 -0.1771  1.0341
20655SOL     OW79956  11.060   7.067   9.346  0.1288 -0.0429 -0.2735
20655SOL    HW179957  11.107   7.116   9.414  2.1298 -2.2923  0.0868
20655SOL    HW279958  10.969   7.096   9.355  0.6032  0.9340  2.2819
20656SOL     OW79959   7.912  12.207   9.777  0.0366  0.8165 -0.0080
20656SOL    HW179960   7.947  12.292   9.804  0.0732  0.9440 -0.4507
20656SOL    HW279961   7.928  12.203   9.683  1.6312 -0.4163  0.2708
20657SOL     OW79962  11.005   7.071  11.180 -0.5882  0.7495 -0.4943
20657SOL    HW179963  11.017   7.158  11.141 -0.0623  0.3824 -1.1860
20657SOL    HW279964  10.911   7.057  11.177 -0.5932  0.8662 -1.3789
20658SOL     OW79965   8.485  12.548   4.553  0.4205  0.3357  0.1169
20658SOL    HW179966   8.438  12.496   4.487  1.2779  0.8718 -0.9497
20658SOL    HW279967   8.456  12.512   4.637  2.0298 -2.8968 -0.5461
20659SOL     OW79968  11.759   9.075   5.391  0.9127 -0.1725 -0.0593
20659SOL    HW179969  11.743   8.985   5.422  0.5175 -0.3775 -0.8404
20659SOL    HW279970  11.756   9.128   5.470 -0.3845 -0.6480  0.2368
20660SOL     OW79971   8.394  13.482   1.586 -0.4741 -0.5611  0.2166
20660SOL    HW179972   8.353  13.545   1.527  0.2639 -0.0452  0.2345
20660SOL    HW279973   8.463  13.442   1.533 -2.4423 -3.1188 -0.5645
20661SOL     OW79974   3.311  12.607   9.682 -0.8234  0.3774 -0.5408
20661SOL    HW179975   3.275  12.688   9.647 -0.1008  1.1590  0.4331
20661SOL    HW279976   3.242  12.571   9.738 -0.3186  1.6384  0.9757
20662SOL     OW79977   7.990   7.207   5.556 -0.0250  0.0122  0.3759
20662SOL    HW179978   8.058   7.212   5.622 -0.3133  0.0952  0.6689
20662SOL    HW279979   8.037   7.205   5.472  0.3174  0.8670  0.5375
20663SOL     OW79980   7.943  10.780   6.980  0.1639 -1.0319  0.4449
20663SOL    HW179981   7.933  10.875   6.966  0.6595 -1.0662 -0.1752
20663SOL    HW279982   7.854  10.747   6.986 -0.0741 -0.8328 -1.4786
20664SOL     OW79983  12.019  12.270   6.591  0.4632 -0.1682 -0.3238
20664SOL    HW179984  12.098  12.247   6.543  1.1740 -0.9676  1.1601
20664SOL    HW279985  11.966  12.190   6.591  0.8046 -0.4178  0.8112
20665SOL     OW79986   1.515   5.718  10.603 -0.1660  0.3953 -0.2881
20665SOL    HW179987   1.602   5.678  10.602  0.2485  1.2834 -1.0254
20665SOL    HW279988   1.480   5.698  10.690  0.8808  0.2424  0.1074
20666SOL     OW79989   0.493  12.062   4.558  0.0262 -0.1392  0.0875
20666SOL    HW179990   0.587  12.074   4.547 -0.1956  0.2337 -1.8307
20666SOL    HW279991   0.466  12.137   4.612  0.9870 -1.0169  1.8720
20667SOL     OW79992   6.748   9.083   0.236 -0.1688  0.1331  0.2307
20667SOL    HW179993   6.662   9.087   0.279 -0.7599  0.2175 -0.9265
20667SOL    HW279994   6.757   8.992   0.210 -1.0458  0.6016 -1.8601
20668SOL     OW79995   7.357   4.775   7.409 -0.5407 -0.9295 -0.3946
20668SOL    HW179996   7.379   4.819   7.327 -0.2148 -0.3169  0.0162
20668SOL    HW279997   7.417   4.813   7.474 -0.4717 -1.7451  0.0337
20669SOL     OW79998   2.131  10.714  11.583  0.2054  0.1157 -0.1276
20669SOL    HW179999   2.135  10.642  11.645  1.4075  0.3000  0.0306
20669SOL    HW280000   2.047  10.758  11.601  0.4466  0.0362  1.2118
20670SOL     OW80001  12.877  11.272   7.859  0.1751 -0.0225  0.2294
20670SOL    HW180002  12.933  11.212   7.908  0.5044 -0.6974 -0.9228
20670SOL    HW280003  12.824  11.316   7.926  1.0300 -0.4547  1.2217
20671SOL     OW80004   3.156   0.202   0.367  0.1373  0.5260  0.0370
20671SOL    HW180005   3.231   0.254   0.395 -0.1568  0.3348  1.1983
20671SOL    HW280006   3.185   0.111   0.372 -0.2382  0.4364  0.7363
20672SOL     OW80007   3.353   2.678   6.268 -0.6836 -0.3904  0.1171
20672SOL    HW180008   3.283   2.672   6.333  0.5656 -1.5263  1.4163
20672SOL    HW280009   3.418   2.614   6.296  0.5084  0.0247 -1.5306
20673SOL     OW80010   5.598   2.040   1.516 -0.4279  0.4098 -0.2405
20673SOL    HW180011   5.518   2.032   1.463 -1.3932  1.8815  0.9355
20673SOL    HW280012   5.567   2.038   1.606  0.8153  1.5759  0.2306
20674SOL     OW80013  13.414   1.855   1.628  0.4140  0.2682  0.1581
20674SOL    HW180014  13.411   1.837   1.722 -1.5759  2.2965  0.5595
20674SOL    HW280015  13.422   1.950   1.622  1.6946  0.1047 -1.7785
20675SOL     OW80016   5.736   1.425   5.992 -0.1560 -0.0626  0.0285
20675SOL    HW180017   5.704   1.501   5.943 -0.9391  0.3343  1.1054
20675SOL    HW280018   5.676   1.355   5.969  0.3963 -0.2907 -0.7465
20676SOL     OW80019  11.676   9.792  13.988  0.3629  0.0480  0.7102
20676SOL    HW180020  11.612   9.776  13.919 -0.4137  1.3453  1.0926
20676SOL    HW280021  11.638   9.864  14.040  2.0118  0.6811  1.0957
20677SOL     OW80022   5.590  13.675   4.168  0.1409 -1.1454  0.5791
20677SOL    HW180023   5.605  13.715   4.253  0.6133  0.2813 -0.1396
20677SOL    HW280024   5.522  13.610   4.184 -0.5637 -0.1507  1.8438
20678SOL     OW80025   0.815  13.072  10.807  0.2258  0.1375  0.0456
20678SOL    HW180026   0.884  13.138  10.798 -1.9185  2.4986 -0.2388
20678SOL    HW280027   0.751  13.095  10.739 -1.7742 -0.7052  1.5370
20679SOL     OW80028  12.259  10.153   6.194 -0.1582 -0.0782 -0.0615
20679SOL    HW180029  12.172  10.116   6.179  0.0760 -0.5069 -0.3525
20679SOL    HW280030  12.320  10.086   6.164  0.2673  0.5732 -0.6921
20680SOL     OW80031  10.856   5.448   6.713 -0.3272  0.1950 -0.3498
20680SOL    HW180032  10.937   5.417   6.674 -0.4345 -0.7824  0.1642
20680SOL    HW280033  10.865   5.428   6.806 -1.9148 -1.6771 -0.5364
20681SOL     OW80034   3.624   8.742   0.399  0.1230 -0.5576  0.2138
20681SOL    HW180035   3.552   8.687   0.429 -1.1718  1.1586  0.3648
20681SOL    HW280036   3.627   8.727   0.304  1.0169 -2.2467  0.4653
20682SOL     OW80037  11.903   5.818   1.670 -0.2525 -0.5141 -0.1573
20682SOL    HW180038  11.825   5.766   1.690 -0.4228  0.5735  2.2618
20682SOL    HW280039  11.961   5.756   1.626 -1.0611 -2.3590  1.2144
20683SOL     OW80040   8.058   4.059   6.902  0.0982 -0.0831 -0.0079
20683SOL    HW180041   8.117   3.987   6.878  0.6486  0.6641 -0.9858
20683SOL    HW280042   7.970   4.023   6.892  0.3664 -0.5274 -0.8403
20684SOL     OW80043  13.597  12.099   1.561  0.1910  0.2729 -0.0399
20684SOL    HW180044  13.603  12.164   1.631  1.7639  0.7351 -0.5579
20684SOL    HW280045  13.575  12.148   1.483 -0.6674 -0.1229 -0.0600
20685SOL     OW80046   2.073   3.535   5.329 -0.1688  0.1120  0.2745
20685SOL    HW180047   2.101   3.545   5.420 -1.6696 -1.5061  0.9755
20685SOL    HW280048   2.008   3.603   5.316 -1.0423 -0.5690  0.9274
20686SOL     OW80049   5.435  12.045   1.961  0.2129  0.4351 -0.1859
20686SOL    HW180050   5.517  12.004   1.990 -0.2196 -0.4174 -0.1419
20686SOL    HW280051   5.458  12.090   1.880  0.8116  0.5401  0.0364
20687SOL     OW80052   5.680   4.425   8.421  0.2480 -0.3095  0.0112
20687SOL    HW180053   5.604   4.466   8.379  1.2226  2.3484  0.6757
20687SOL    HW280054   5.643   4.374   8.493 -0.9464  0.8716  0.2765
20688SOL     OW80055   8.333   1.461   6.958 -0.5309 -0.1544 -0.3082
20688SOL    HW180056   8.427   1.456   6.969 -0.4077  0.0938 -1.1697
20688SOL    HW280057   8.311   1.553   6.975 -0.5929 -0.1777 -0.2625
20689SOL     OW80058   1.716  10.761  12.756  0.0241  0.1247 -0.3428
20689SOL    HW180059   1.679  10.768  12.844  0.6160 -2.2220  0.1542
20689SOL    HW280060   1.645  10.789  12.698 -0.3114  1.8838  0.8416
20690SOL     OW80061   5.455   6.549   7.654 -0.0383  0.1591 -0.3662
20690SOL    HW180062   5.490   6.594   7.577 -0.3278  1.0979  0.0302
20690SOL    HW280063   5.527   6.492   7.683  0.4471  0.5774 -0.7203
20691SOL     OW80064  12.823  13.604   5.933 -0.1658  0.3611  0.2131
20691SOL    HW180065  12.882  13.539   5.971  1.2066 -0.2132 -2.6192
20691SOL    HW280066  12.740  13.557   5.921  0.3445 -0.4079 -0.3820
20692SOL     OW80067   3.110   0.093  11.191  0.8694 -0.0120 -0.2948
20692SOL    HW180068   3.116   0.013  11.243  0.1679  0.0053 -0.1734
20692SOL    HW280069   3.102   0.163  11.256  0.5296  0.0628 -0.4168
20693SOL     OW80070  10.411   4.592   1.280  0.3304 -0.2921  0.3010
20693SOL    HW180071  10.374   4.621   1.196 -0.3184 -0.5936  0.4740
20693SOL    HW280072  10.485   4.650   1.295  0.5392 -0.3180 -0.5525
20694SOL     OW80073   3.650   3.682  10.533 -0.5462  0.6303 -0.1330
20694SOL    HW180074   3.560   3.667  10.562 -0.0534 -0.7116  0.8190
20694SOL    HW280075   3.687   3.738  10.601 -0.1406 -0.3639  0.4834
20695SOL     OW80076   6.733   8.372   7.477  0.6260  0.2600  0.3470
20695SOL    HW180077   6.828   8.367   7.494  0.9056  0.2448 -1.1095
20695SOL    HW280078   6.714   8.293   7.427 -0.0443  0.5773  0.1025
20696SOL     OW80079   0.485   9.867   3.763 -0.4231 -0.0334 -0.0507
20696SOL    HW180080   0.509   9.928   3.832 -1.0267  1.2961 -0.9789
20696SOL    HW280081   0.429   9.803   3.806 -0.4519  0.5279  0.7743
20697SOL     OW80082   1.363   7.918  10.804 -0.4796 -0.2187  0.0569
20697SOL    HW180083   1.312   7.993  10.831 -0.8962  0.1907 -1.7147
20697SOL    HW280084   1.298   7.854  10.773 -0.1135 -1.2011  1.2243
20698SOL     OW80085   1.578  13.185   6.744 -0.2940  0.2779  0.3658
20698SOL    HW180086   1.551  13.137   6.822 -2.3231 -0.5424 -0.7529
20698SOL    HW280087   1.537  13.271   6.753 -2.2475 -0.4758 -0.6389
20699SOL     OW80088  11.057   8.426   2.279 -0.3271 -0.3741  0.3980
20699SOL    HW180089  11.118   8.390   2.214 -0.2018 -1.6313  1.1932
20699SOL    HW280090  11.069   8.521   2.272  0.5450 -0.5341 -0.5818
20700SOL     OW80091  11.495  10.627   2.523 -0.1773  0.5912  0.0326
20700SOL    HW180092  11.548  10.561   2.569 -0.4506  1.1551  1.1874
20700SOL    HW280093  11.419  10.579   2.492  1.5774 -0.5698 -2.8952
20701SOL     OW80094   7.020  10.440   3.038  0.3264 -0.0623  1.2409
20701SOL    HW180095   7.088  10.491   2.995  1.3184 -1.7576  0.7134
20701SOL    HW280096   6.964  10.408   2.968 -1.2838  1.6074  1.6964
20702SOL     OW80097   1.732   0.151   1.774 -0.1949 -0.8872 -0.4447
20702SOL    HW180098   1.654   0.204   1.755 -0.7669 -1.4478  0.2702
20702SOL    HW280099   1.734   0.086   1.703  0.0198 -0.4459 -0.8471
20703SOL     OW80100   8.464  12.739   8.516  0.1495  0.4174 -0.6361
20703SOL    HW180101   8.437  12.680   8.587  0.8143 -0.5499 -1.1525
20703SOL    HW280102   8.554  12.764   8.539  0.4322 -0.0440 -1.2065
20704SOL     OW80103   0.639   3.738   1.909  0.1525  0.2714 -0.2626
20704SOL    HW180104   0.709   3.799   1.888  1.5935 -1.3882 -0.5152
20704SOL    HW280105   0.576   3.747   1.837  0.8210  0.7627 -0.7933
20705SOL     OW80106   1.025   9.371  10.229 -0.0892 -0.0381 -0.7263
20705SOL    HW180107   1.070   9.327  10.301 -0.0357  0.0523 -0.7044
20705SOL    HW280108   1.027   9.464  10.253 -1.6015 -0.1502  0.0215
20706SOL     OW80109   1.224   7.508  10.268 -0.1029 -1.1448 -0.3779
20706SOL    HW180110   1.225   7.432  10.327 -0.9104 -0.5412  0.4436
20706SOL    HW280111   1.303   7.499  10.215  1.1252 -1.2576  1.3979
20707SOL     OW80112   4.066  10.368   2.147 -0.3741 -0.0991 -0.7473
20707SOL    HW180113   4.045  10.379   2.240  0.3138  0.0305 -0.6040
20707SOL    HW280114   4.036  10.449   2.106  0.2840  0.3015 -0.4617
20708SOL     OW80115   9.779   4.222   1.282 -0.2200  0.4224  0.3178
20708SOL    HW180116   9.840   4.233   1.209  0.7608 -0.7999  0.9140
20708SOL    HW280117   9.825   4.260   1.357 -1.3946  2.0624  0.2645
20709SOL     OW80118   0.397   7.367   1.666 -0.1770 -0.0210 -0.2321
20709SOL    HW180119   0.427   7.301   1.728  2.6591  0.6162 -0.7913
20709SOL    HW280120   0.305   7.382   1.689 -0.6979 -3.4760  0.4393
20710SOL     OW80121   7.690   7.555  10.984 -0.8188 -0.0335 -0.0548
20710SOL    HW180122   7.727   7.469  11.002 -2.0954 -0.4721  0.5860
20710SOL    HW280123   7.765   7.614  10.984  0.5473 -1.5175 -3.5497
20711SOL     OW80124   6.048   1.908   4.623  0.2678  0.4618 -0.2465
20711SOL    HW180125   6.006   1.920   4.708  0.8741  0.8510  0.0065
20711SOL    HW280126   6.140   1.893   4.645  0.1750 -0.9811 -0.7484
20712SOL     OW80127  12.320  12.743   9.449  0.3231 -0.1806 -0.0168
20712SOL    HW180128  12.275  12.683   9.508 -1.7450  1.9563  0.7663
20712SOL    HW280129  12.361  12.808   9.507  0.8481  0.2448 -0.8459
20713SOL     OW80130  11.592   9.893   4.442 -0.7782 -0.1021  0.2075
20713SOL    HW180131  11.645   9.967   4.411 -0.8572  0.5244  1.5008
20713SOL    HW280132  11.656   9.826   4.467 -0.7037 -0.4429 -0.8287
20714SOL     OW80133   4.570   7.820   5.791  0.2673  0.7937  0.1136
20714SOL    HW180134   4.662   7.796   5.803 -0.0273 -0.4242  0.0576
20714SOL    HW280135   4.559   7.828   5.696  0.5279  1.8692  0.1637
20715SOL     OW80136   0.825  13.298   0.297 -0.0912  0.5139 -0.3665
20715SOL    HW180137   0.889  13.343   0.350 -0.7240 -0.6330  1.4848
20715SOL    HW280138   0.746  13.296   0.351 -0.8916 -0.3649 -1.5099
20716SOL     OW80139   9.080   9.805   7.047  0.1885 -1.0311 -0.5373
20716SOL    HW180140   8.992   9.768   7.037  0.3746 -1.7913  0.5336
20716SOL    HW280141   9.095   9.854   6.965 -1.4676 -0.3624 -0.4812
20717SOL     OW80142   4.576   9.041  11.802 -0.5587 -0.3318  0.6206
20717SOL    HW180143   4.567   8.946  11.790 -1.6598 -0.1543 -0.1540
20717SOL    HW280144   4.637   9.050  11.874  1.2506 -1.6072 -0.6615
20718SOL     OW80145   2.050   0.460   7.336  0.4742 -0.2099 -0.0149
20718SOL    HW180146   1.985   0.399   7.301  0.5473 -0.0844 -0.3735
20718SOL    HW280147   2.040   0.538   7.282 -0.8795  0.7898  1.5793
20719SOL     OW80148  10.498   4.348   0.631  0.2360  0.2117  0.1406
20719SOL    HW180149  10.521   4.330   0.540 -0.4924 -2.3004  0.3791
20719SOL    HW280150  10.422   4.406   0.626 -0.2170 -0.4399 -0.8964
20720SOL     OW80151   9.775   2.870  11.501 -0.0089 -0.2947 -0.3465
20720SOL    HW180152   9.844   2.935  11.486  0.9411 -0.4471  2.7705
20720SOL    HW280153   9.694   2.921  11.496  0.3289  0.1543 -2.5990
20721SOL     OW80154  12.607   0.071   4.166  0.0323 -0.1209 -0.1090
20721SOL    HW180155  12.608   0.140   4.100  0.7877  0.8895  0.9075
20721SOL    HW280156  12.697   0.037   4.167 -0.0078 -0.2192  0.3016
20722SOL     OW80157   9.809  11.957   3.267 -1.0169 -0.2846  0.3809
20722SOL    HW180158   9.725  11.984   3.231 -0.0209  0.9503 -1.1448
20722SOL    HW280159   9.815  12.003   3.351 -1.3445  0.5575 -0.0516
20723SOL     OW80160   5.083   8.294   1.936 -0.5631  0.5787  0.1067
20723SOL    HW180161   5.035   8.232   1.992  1.3917 -0.4484  0.7361
20723SOL    HW280162   5.021   8.366   1.922 -2.0003 -0.3046  1.5155
20724SOL     OW80163   2.944   9.954  11.328  0.0681 -0.6707  0.5769
20724SOL    HW180164   3.024   9.928  11.282 -0.2769 -0.4145 -0.1874
20724SOL    HW280165   2.974   9.982  11.414  1.1459  1.8517 -0.5313
20725SOL     OW80166   3.364   5.041  10.914 -0.8243  0.7772  0.2227
20725SOL    HW180167   3.355   5.081  10.828 -1.0125 -2.2027 -1.2718
20725SOL    HW280168   3.458   5.030  10.925 -0.8113  0.9696  0.3056
20726SOL     OW80169  10.537   8.101   0.434  0.2295  0.1127 -1.1610
20726SOL    HW180170  10.542   8.195   0.420  0.4487  0.3544  0.3783
20726SOL    HW280171  10.622   8.068   0.404  0.2994  0.4505 -1.3426
20727SOL     OW80172   9.125   9.450   0.595 -0.0898 -0.1387 -0.0755
20727SOL    HW180173   9.191   9.448   0.526 -0.1182 -0.4043 -0.0972
20727SOL    HW280174   9.160   9.510   0.661  1.1430 -1.8290  0.8695
20728SOL     OW80175   9.801   9.573  11.693  0.0597  0.1216 -0.3012
20728SOL    HW180176   9.755   9.644  11.737 -0.6634  0.1397 -1.0618
20728SOL    HW280177   9.776   9.495  11.741  1.3498  0.4201  0.9310
20729SOL     OW80178  11.899   9.359   0.653  0.1426 -0.2068 -0.0635
20729SOL    HW180179  11.911   9.432   0.592  2.5842 -1.0347 -0.6608
20729SOL    HW280180  11.894   9.281   0.597 -0.0337 -0.7479  0.6903
20730SOL     OW80181  11.913   9.169   0.446 -0.5619 -0.4256 -0.8610
20730SOL    HW180182  11.968   9.130   0.379  0.3649  0.0709 -0.4169
20730SOL    HW280183  11.896   9.098   0.508 -1.0784 -0.7783 -1.3946
20731SOL     OW80184   5.111   2.704   3.018  0.0202  0.3754 -0.2785
20731SOL    HW180185   5.186   2.662   3.059 -0.0430 -0.7464 -1.2614
20731SOL    HW280186   5.148   2.766   2.956  0.1680 -1.0094 -1.6036
20732SOL     OW80187   7.413   9.723   9.382 -0.5246  0.0142 -0.5092
20732SOL    HW180188   7.429   9.815   9.365 -0.0173 -0.1567 -0.9665
20732SOL    HW280189   7.344   9.698   9.320 -0.3889 -0.0104 -0.6500
20733SOL     OW80190   0.412  13.956  10.120 -0.3101 -0.2188 -0.0846
20733SOL    HW180191   0.375  13.910  10.044  1.5403 -1.6883 -0.1747
20733SOL    HW280192   0.501  13.980  10.092 -1.1598  3.5931 -0.0477
20734SOL     OW80193   8.419  11.266   1.009 -0.4357  0.2585 -0.2036
20734SOL    HW180194   8.412  11.292   1.101  0.2050  1.2759 -0.4325
20734SOL    HW280195   8.455  11.343   0.965  0.2258 -0.5685 -1.1392
20735SOL     OW80196  10.944   8.503   9.505  0.2982 -0.6661 -0.3000
20735SOL    HW180197  11.022   8.516   9.558 -1.3192 -0.4093  2.2120
20735SOL    HW280198  10.904   8.424   9.541 -1.1974 -0.1041 -0.6620
20736SOL     OW80199   8.241  13.328  12.549  0.0678 -0.5873 -0.1081
20736SOL    HW180200   8.190  13.348  12.627  0.9984 -1.6438  0.8082
20736SOL    HW280201   8.186  13.268  12.498 -1.7852  2.2831 -1.7783
20737SOL     OW80202   3.276   2.288   2.513 -0.8849 -0.1159  0.6484
20737SOL    HW180203   3.343   2.312   2.448 -0.9031 -0.9912  0.2871
20737SOL    HW280204   3.313   2.315   2.597  0.2327 -1.1798  0.5235
20738SOL     OW80205   0.546   3.632   5.159  0.5196  0.3481  0.4791
20738SOL    HW180206   0.635   3.608   5.183  0.2481  0.4529  1.6501
20738SOL    HW280207   0.501   3.548   5.146  0.5252  0.2694  0.9349
20739SOL     OW80208   1.951   7.964   6.940 -0.2357 -0.2237 -0.6296
20739SOL    HW180209   1.953   8.059   6.953 -1.2284 -0.2420 -0.2591
20739SOL    HW280210   1.859   7.944   6.925 -0.1633 -1.2564  0.2369
20740SOL     OW80211  12.738   5.108  12.153  0.0428 -0.5082 -0.1420
20740SOL    HW180212  12.744   5.104  12.058  1.5072 -0.6829 -0.0667
20740SOL    HW280213  12.735   5.016  12.181  0.3569 -0.4722  0.0140
20741SOL     OW80214   1.057   4.936  10.119  0.1911 -0.6096  0.1302
20741SOL    HW180215   1.061   5.021  10.163  2.3204 -0.9409  0.6895
20741SOL    HW280216   1.034   4.956  10.029  3.9699  1.0088 -0.6478
20742SOL     OW80217   8.353  11.128  11.418 -0.0757 -0.1519 -0.3072
20742SOL    HW180218   8.274  11.083  11.449 -1.2605  2.7383  1.1904
20742SOL    HW280219   8.423  11.093  11.473 -0.7312 -0.9568  0.0463
20743SOL     OW80220   8.169   8.716   7.757  0.4218 -0.0654 -0.4298
20743SOL    HW180221   8.145   8.684   7.670 -1.3323  0.4188 -0.1653
20743SOL    HW280222   8.178   8.637   7.811  1.2078 -0.3497 -0.9722
20744SOL     OW80223  13.378   4.867   0.269  0.5284 -0.0891  0.0663
20744SOL    HW180224  13.410   4.791   0.219 -0.6027 -0.5631  0.0174
20744SOL    HW280225  13.378   4.939   0.206 -1.4404 -0.8113 -0.8671
20745SOL     OW80226   9.493  12.327   5.861  0.5275  0.4186 -0.3415
20745SOL    HW180227   9.424  12.296   5.919 -0.4546 -0.3001 -1.8171
20745SOL    HW280228   9.525  12.408   5.902 -0.9409  0.5704  0.5663
20746SOL     OW80229  11.155   9.625   8.350 -0.2635 -1.0432  0.4094
20746SOL    HW180230  11.139   9.662   8.436 -1.9365  2.2566 -1.1601
20746SOL    HW280231  11.069   9.600   8.317  0.3865 -2.6442 -0.2149
20747SOL     OW80232   9.948   9.215  10.963 -0.0693 -0.1414 -0.2747
20747SOL    HW180233   9.930   9.156  11.036 -0.2902  0.8822  0.5314
20747SOL    HW280234   9.941   9.303  11.001  2.4349  0.4051 -0.9125
20748SOL     OW80235  13.699   4.268   1.079  0.7399  0.0832  0.0529
20748SOL    HW180236  13.772   4.327   1.060  0.2512  0.1984 -1.5932
20748SOL    HW280237  13.649   4.264   0.998 -0.3001 -1.1212  0.7110
20749SOL     OW80238   9.815   9.705   9.039  0.0131  0.0731 -0.4654
20749SOL    HW180239   9.720   9.711   9.048 -0.0760  1.3013 -1.9175
20749SOL    HW280240   9.846   9.794   9.054  1.0416 -0.4808  0.8620
20750SOL     OW80241  11.668   2.585  11.143 -0.2382  0.2145  0.2072
20750SOL    HW180242  11.729   2.607  11.214  0.4173  0.5700 -0.4481
20750SOL    HW280243  11.651   2.492  11.154  0.1478  0.1897  0.6110
20751SOL     OW80244   2.084   8.840   1.442 -0.4857  0.2993  0.5386
20751SOL    HW180245   2.120   8.876   1.523 -3.2233  1.2090  1.4826
20751SOL    HW280246   2.017   8.778   1.471  0.0096 -1.1061 -1.1004
20752SOL     OW80247   8.467   5.901   6.174 -0.6481 -0.1311  0.1513
20752SOL    HW180248   8.528   5.887   6.101 -0.0952 -3.0810  1.0184
20752SOL    HW280249   8.500   5.843   6.243 -1.9135  1.5725  2.3016
20753SOL     OW80250  13.560   2.660   5.530 -0.4479 -0.2610  0.4017
20753SOL    HW180251  13.556   2.755   5.522 -0.2655 -0.1879  1.1341
20753SOL    HW280252  13.583   2.629   5.442 -2.4758  0.2287 -0.3400
20754SOL     OW80253   2.349  10.327   4.181  0.0878  0.0018  0.5071
20754SOL    HW180254   2.358  10.239   4.217  0.1245 -0.6952 -1.0944
20754SOL    HW280255   2.255  10.338   4.167  0.2090 -0.4434 -0.7753
20755SOL     OW80256   8.745   7.698   7.516 -0.4565  0.3516 -0.4809
20755SOL    HW180257   8.702   7.783   7.518 -0.0966  0.5200  0.2245
20755SOL    HW280258   8.709   7.655   7.438 -1.2341  0.8341 -0.3980
20756SOL     OW80259   0.734  10.379   2.481  0.2019  0.7732 -0.3208
20756SOL    HW180260   0.746  10.320   2.555 -0.0508  1.4962  0.3085
20756SOL    HW280261   0.677  10.448   2.514 -3.1173 -0.7986 -2.2228
20757SOL     OW80262   3.620   8.971   3.816  0.2010  0.5515  0.0052
20757SOL    HW180263   3.702   8.951   3.771 -0.4644 -2.6996 -0.0663
20757SOL    HW280264   3.641   9.043   3.875  3.0215  0.0609 -0.2783
20758SOL     OW80265   9.995   3.448  13.128  0.3947  0.1770 -0.2642
20758SOL    HW180266  10.076   3.399  13.143 -0.2615 -0.6599  0.7627
20758SOL    HW280267   9.939   3.424  13.202 -0.6338  1.0742 -0.7219
20759SOL     OW80268  10.649   3.431   5.459 -0.0623 -0.4872 -0.0086
20759SOL    HW180269  10.637   3.472   5.545  1.5823  0.2394 -0.0988
20759SOL    HW280270  10.707   3.490   5.412 -1.0464 -0.8016 -1.7073
20760SOL     OW80271   0.304  11.940  14.108 -0.1272 -0.2136  0.0514
20760SOL    HW180272   0.301  11.995  14.030  0.3776  0.4619  0.4910
20760SOL    HW280273   0.219  11.953  14.150  0.4620  1.2898  0.8407
20761SOL     OW80274   3.108  13.503  10.037  0.4908  0.0456 -0.0131
20761SOL    HW180275   3.139  13.419  10.004  0.2735 -0.4785  1.0770
20761SOL    HW280276   3.112  13.494  10.132  0.5081  1.2873  0.1199
20762SOL     OW80277   3.076   4.737  14.147  0.0259  0.2933 -0.0598
20762SOL    HW180278   3.014   4.669  14.118  0.1105 -0.6083  1.7475
20762SOL    HW280279   3.022   4.813  14.165 -0.2422  0.2889 -0.8127
20763SOL     OW80280   4.652   1.468  11.479  1.0355 -0.2447  0.5746
20763SOL    HW180281   4.595   1.423  11.541 -0.0710  1.3976  0.8105
20763SOL    HW280282   4.695   1.397  11.430 -0.3158 -1.5399  1.1834
20764SOL     OW80283  13.257   3.979   9.817 -0.4508  0.3333  0.7145
20764SOL    HW180284  13.308   4.060   9.818 -0.0025  0.1484 -1.7478
20764SOL    HW280285  13.168   4.006   9.839 -0.1860  1.3947  0.5126
20765SOL     OW80286   5.387   9.499  11.887 -0.1871  0.7005  0.2835
20765SOL    HW180287   5.369   9.575  11.944 -2.1352  1.2356 -0.9177
20765SOL    HW280288   5.300   9.466  11.865  0.5950 -0.8312 -0.6317
20766SOL     OW80289   7.254   6.534  10.787  0.0242  0.5480 -0.4696
20766SOL    HW180290   7.313   6.584  10.842 -0.7925  0.5132  0.4621
20766SOL    HW280291   7.294   6.447  10.780  0.9184  1.0040 -1.2447
20767SOL     OW80292   8.277   8.597   8.179  0.1085 -0.2717  0.0559
20767SOL    HW180293   8.273   8.675   8.124 -0.4283 -1.0121 -0.9798
20767SOL    HW280294   8.367   8.565   8.168 -0.5358 -1.5643 -2.0802
20768SOL     OW80295   4.985   0.497   8.180 -0.2547 -0.1656 -0.0344
20768SOL    HW180296   5.004   0.549   8.103  0.4518  0.3834  0.4958
20768SOL    HW280297   4.949   0.415   8.146 -1.0809  0.5401 -0.8838
20769SOL     OW80298   7.899  13.526  13.941  0.8621 -0.4564  0.1409
20769SOL    HW180299   7.940  13.613  13.937 -0.5290  0.1919 -1.0393
20769SOL    HW280300   7.871  13.518  14.033  1.4339  0.1477  0.3776
20770SOL     OW80301   1.459   4.574   2.569  0.1657  0.4702 -0.1318
20770SOL    HW180302   1.502   4.537   2.646  1.1605  0.1290 -0.8314
20770SOL    HW280303   1.384   4.623   2.604  0.6403  0.3739  1.0464
20771SOL     OW80304   7.761   8.479  12.618 -0.7816 -0.2778 -0.3629
20771SOL    HW180305   7.669   8.451  12.619 -1.0235  0.3031 -2.6775
20771SOL    HW280306   7.793   8.454  12.532  0.8861  0.7023 -0.0694
20772SOL     OW80307  12.074  13.194   5.161  0.2520  0.3021  0.2687
20772SOL    HW180308  11.982  13.205   5.184  0.0947  0.6076 -0.4744
20772SOL    HW280309  12.094  13.104   5.186 -1.2678 -1.0457 -2.8707
20773SOL     OW80310  11.399   9.865  11.589 -0.3408 -0.3295  0.0808
20773SOL    HW180311  11.436   9.927  11.525 -0.4858 -0.4146 -0.0838
20773SOL    HW280312  11.404   9.780  11.546  0.5671 -0.5523  0.6068
20774SOL     OW80313   1.222   4.796   9.721 -0.4812  1.1923 -0.0718
20774SOL    HW180314   1.276   4.861   9.764 -0.9618  1.0497  0.7773
20774SOL    HW280315   1.145   4.787   9.777 -0.0701 -0.6663  0.2695
20775SOL     OW80316   5.262  10.273   1.752  0.5729  0.5497 -0.5752
20775SOL    HW180317   5.276  10.301   1.843  1.6088  0.8529 -0.8066
20775SOL    HW280318   5.169  10.252   1.747  0.1254  2.1726  0.1115
20776SOL     OW80319  11.476   1.347   5.608 -0.4193 -0.0718 -0.3000
20776SOL    HW180320  11.479   1.441   5.591 -0.2453  0.0607  0.4396
20776SOL    HW280321  11.454   1.340   5.700 -1.6422 -0.7747 -0.6200
20777SOL     OW80322   9.822   9.740   1.609 -0.1087 -0.4521  0.7247
20777SOL    HW180323   9.826   9.816   1.550  1.0520  0.5138  1.9733
20777SOL    HW280324   9.882   9.677   1.570 -0.8586 -0.6362 -0.1711
20778SOL     OW80325   8.490   4.215   8.736 -0.2539  0.0126  0.4660
20778SOL    HW180326   8.560   4.266   8.694 -0.0473 -0.8685 -0.2956
20778SOL    HW280327   8.534   4.136   8.768 -0.5481  0.3443  1.7236
20779SOL     OW80328   5.351   0.038   4.893  0.0884 -0.4303 -0.4097
20779SOL    HW180329   5.371   0.115   4.839  1.2224 -1.3277 -1.3317
20779SOL    HW280330   5.267   0.007   4.860  0.1334 -0.1889 -0.7575
20780SOL     OW80331   2.372  11.496  14.025 -0.0954  0.0500  0.1010
20780SOL    HW180332   2.380  11.475  13.932 -1.5012  1.2144 -0.3237
20780SOL    HW280333   2.281  11.477  14.047  0.1776 -0.0571  1.2059
20781SOL     OW80334   2.474  13.987   3.322 -0.0653  0.3653 -0.6308
20781SOL    HW180335   2.550  13.979   3.378 -0.1590  0.3453 -0.5067
20781SOL    HW280336   2.400  13.995   3.382 -0.1436  0.5502 -0.7519
20782SOL     OW80337   7.460   8.440   0.029  0.2667 -0.2991  0.1370
20782SOL    HW180338   7.516   8.492  -0.028 -0.7242  0.6398 -0.0014
20782SOL    HW280339   7.427   8.502   0.094 -0.5706 -0.8471  0.2503
20783SOL     OW80340  13.684   4.938  12.953  0.6530  0.9134  0.3269
20783SOL    HW180341  13.682   5.023  12.908  0.9315  1.7914  1.9121
20783SOL    HW280342  13.770   4.935  12.996  0.7455 -0.2931  0.1125
20784SOL     OW80343   9.938   0.395   6.430 -0.0473  0.2672 -0.2220
20784SOL    HW180344   9.962   0.488   6.427  0.7979  0.0719  0.2184
20784SOL    HW280345   9.933   0.368   6.339  2.0387  0.1762 -0.3595
20785SOL     OW80346   3.122   7.700  11.806  0.0414  0.0029 -0.0741
20785SOL    HW180347   3.182   7.747  11.749 -1.0821  0.8754 -0.5775
20785SOL    HW280348   3.042   7.691  11.755 -0.2063 -1.3241  0.5002
20786SOL     OW80349  12.223   7.527  12.397 -0.2765  0.6110 -0.4546
20786SOL    HW180350  12.184   7.554  12.314 -0.8065 -0.6503 -0.6442
20786SOL    HW280351  12.285   7.459  12.373  0.7913  1.3866  0.0378
20787SOL     OW80352  10.432   6.533   0.806 -0.1122 -0.3802  0.2588
20787SOL    HW180353  10.400   6.523   0.717  2.5983  0.7291 -0.9436
20787SOL    HW280354  10.443   6.443   0.838  0.4155 -0.8461 -1.1468
20788SOL     OW80355   9.759   2.974   5.052  0.2907 -0.1024  0.1085
20788SOL    HW180356   9.843   2.930   5.063 -0.4642 -1.8030 -0.6100
20788SOL    HW280357   9.698   2.925   5.107 -0.8213 -0.8073 -1.6402
20789SOL     OW80358   0.683  11.816  10.586 -0.2202  0.1310  0.8944
20789SOL    HW180359   0.739  11.739  10.598  0.3678  0.5314  0.7934
20789SOL    HW280360   0.742  11.882  10.548 -0.7493  0.5830  0.8531
20790SOL     OW80361   7.373  11.551  13.179  0.3812 -0.8245  0.5513
20790SOL    HW180362   7.381  11.513  13.091 -0.6030  1.2717 -0.5185
20790SOL    HW280363   7.290  11.600  13.176  0.1159 -1.0492  2.8035
20791SOL     OW80364   4.451   4.301   1.474  0.3191 -0.0796  0.3128
20791SOL    HW180365   4.363   4.338   1.474 -0.5813 -2.0468  1.6255
20791SOL    HW280366   4.492   4.337   1.553  1.3713  2.1580 -1.1593
20792SOL     OW80367   8.398  10.418   5.575  0.1830 -0.2185  0.6227
20792SOL    HW180368   8.374  10.434   5.666 -2.6291  1.1015 -0.2255
20792SOL    HW280369   8.349  10.338   5.551  0.1585 -0.0417  0.0499
20793SOL     OW80370   9.131   6.512   0.299  0.2467 -0.1323  0.1723
20793SOL    HW180371   9.048   6.482   0.336 -0.0374  0.6937  0.2502
20793SOL    HW280372   9.107   6.588   0.246  0.9287 -0.0030  0.0384
20794SOL     OW80373   6.270  14.067   4.897 -0.2502  0.4275 -0.3729
20794SOL    HW180374   6.284  14.082   4.804  1.2585 -0.8131 -0.3706
20794SOL    HW280375   6.313  13.984   4.916 -1.6382 -0.0112  1.1841
20795SOL     OW80376   5.924   4.637  10.435 -0.2507  0.1901  0.5373
20795SOL    HW180377   5.942   4.658  10.344 -1.4400 -1.0081 -0.0019
20795SOL    HW280378   5.941   4.719  10.482  1.2197  0.5884 -0.6135
20796SOL     OW80379   9.397  13.479   7.600 -0.2387 -0.1155  0.3480
20796SOL    HW180380   9.324  13.504   7.658 -0.1763 -0.4709  0.5829
20796SOL    HW280381   9.411  13.556   7.545 -1.2134 -0.2645 -0.1402
20797SOL     OW80382  11.751   6.476   4.040 -0.4776  0.0604  0.5988
20797SOL    HW180383  11.793   6.562   4.032 -1.4368  0.5057  0.2238
20797SOL    HW280384  11.822   6.417   4.068  0.1128  1.0384  1.2251
20798SOL     OW80385   5.414   6.086   9.990 -0.2127  0.0856 -0.1995
20798SOL    HW180386   5.466   6.110   9.913  1.5609 -0.5733  0.7544
20798SOL    HW280387   5.456   6.008  10.025 -0.5138  0.7984  1.8835
20799SOL     OW80388   7.599   1.106   8.970 -0.2728 -0.6665  0.5291
20799SOL    HW180389   7.640   1.175   9.023  0.7457 -2.4527  2.2191
20799SOL    HW280390   7.673   1.061   8.929 -1.0412  0.7084 -2.6436
20800SOL     OW80391  12.263  13.848   4.064 -0.2001  0.2268  0.4489
20800SOL    HW180392  12.252  13.801   4.147  0.3422 -2.8699 -1.0925
20800SOL    HW280393  12.346  13.895   4.074  1.3125 -2.3650  0.7689
20801SOL     OW80394   3.499   0.278   7.831  0.0293 -0.0983 -0.1915
20801SOL    HW180395   3.466   0.189   7.823 -1.4736  0.3912  0.2804
20801SOL    HW280396   3.437   0.332   7.782  0.1311  0.8516  0.6836
20802SOL     OW80397   9.709  10.650   8.814  0.2396  0.3735 -0.2410
20802SOL    HW180398   9.699  10.741   8.789 -0.8952 -0.0138 -1.3257
20802SOL    HW280399   9.625  10.609   8.791  0.3716 -0.7596  1.0833
20803SOL     OW80400   2.004   2.934   9.563 -0.1395  0.0185 -0.3459
20803SOL    HW180401   2.063   2.868   9.598 -1.8267  0.1491  3.1589
20803SOL    HW280402   1.946   2.956   9.636 -1.8018  2.9637 -2.3319
20804SOL     OW80403   3.565  11.378  10.392  0.3008 -0.3119  0.4311
20804SOL    HW180404   3.650  11.335  10.402  0.0388 -0.6637  1.2318
20804SOL    HW280405   3.585  11.461  10.348  0.7158 -1.5488 -1.8609
20805SOL     OW80406  13.713   9.490   1.384 -0.4046 -0.3687  0.0147
20805SOL    HW180407  13.647   9.548   1.346 -2.0652 -1.7136  0.7446
20805SOL    HW280408  13.729   9.425   1.316  0.6296  0.2575 -0.3726
20806SOL     OW80409   2.040  13.728  10.836 -0.3986 -0.1566  0.0305
20806SOL    HW180410   1.962  13.673  10.822  0.8413 -1.6613 -1.3426
20806SOL    HW280411   2.027  13.802  10.776 -0.2977 -0.9571 -1.0129
20807SOL     OW80412  12.702   4.049  13.077  0.1013 -0.0295 -0.2223
20807SOL    HW180413  12.729   4.081  12.990 -0.0729  1.3466  0.2142
20807SOL    HW280414  12.614   4.014  13.063  0.1696 -0.0493 -0.6400
20808SOL     OW80415  10.446   2.826   8.664  0.0855  0.1012  0.2749
20808SOL    HW180416  10.396   2.747   8.683  1.6768 -0.9161  0.4367
20808SOL    HW280417  10.468   2.862   8.750 -0.4987  0.6328  0.2042
20809SOL     OW80418  12.168  12.218   1.701 -0.0537 -0.0354  0.3504
20809SOL    HW180419  12.260  12.201   1.678  0.7770  0.1787  3.1198
20809SOL    HW280420  12.142  12.141   1.752 -0.7485  0.8040  1.3011
20810SOL     OW80421   8.722   9.984   5.009  0.3652 -0.7744 -0.1792
20810SOL    HW180422   8.734  10.010   4.917  0.7272 -0.9353 -0.1787
20810SOL    HW280423   8.629   9.998   5.025  0.0308 -1.9594 -0.9438
20811SOL     OW80424   3.998   1.989   3.939  0.1555  0.0600 -0.1067
20811SOL    HW180425   4.023   2.062   3.995  0.3522  1.1449 -1.5720
20811SOL    HW280426   4.080   1.958   3.901 -0.2811  1.7248 -2.6189
20812SOL     OW80427   9.820   0.825  12.658 -0.0925  0.2810 -0.4228
20812SOL    HW180428   9.912   0.841  12.679 -0.3168  0.0578  0.7578
20812SOL    HW280429   9.775   0.904  12.688 -0.1875  0.8631 -1.9529
20813SOL     OW80430   3.353   3.377   6.996 -0.3479 -0.0265  0.2849
20813SOL    HW180431   3.334   3.284   7.003 -3.0697  0.4444  0.2235
20813SOL    HW280432   3.390   3.388   6.909  1.7071 -1.2320  0.9381
20814SOL     OW80433   6.301   4.705  10.047  0.7047  0.0558  0.1186
20814SOL    HW180434   6.377   4.664  10.005 -0.1351  0.0583 -1.4710
20814SOL    HW280435   6.300   4.795  10.012 -0.3137 -0.1034 -0.2901
20815SOL     OW80436   5.820   9.180   4.602 -0.0989 -0.3194 -0.0287
20815SOL    HW180437   5.881   9.107   4.594  1.2579  0.8249 -0.5811
20815SOL    HW280438   5.814   9.217   4.514  1.2458  1.7401  0.6624
20816SOL     OW80439   0.038   1.103   1.422  0.2270 -0.6175 -0.0194
20816SOL    HW180440  -0.033   1.142   1.474 -0.5982  0.4310 -1.8011
20816SOL    HW280441   0.038   1.011   1.446 -0.3579 -0.2482  1.5281
20817SOL     OW80442  13.072   6.134   2.905 -1.1974  0.1275  0.1570
20817SOL    HW180443  13.167   6.140   2.904 -1.2946  3.1060  0.4397
20817SOL    HW280444  13.045   6.158   2.817 -1.6979  2.3780  0.8483
20818SOL     OW80445   0.582  13.075   8.683 -0.0783  0.3743  0.1693
20818SOL    HW180446   0.549  13.129   8.611 -0.1365 -0.4861 -0.4670
20818SOL    HW280447   0.672  13.105   8.695 -0.1377  0.6764 -0.1185
20819SOL     OW80448   2.652   8.761  13.375 -0.5828 -0.0347 -0.3134
20819SOL    HW180449   2.689   8.738  13.460  1.6346 -0.1155 -1.2197
20819SOL    HW280450   2.587   8.829  13.394  0.9241  1.0400  1.3411
20820SOL     OW80451   5.637  10.837  13.063  0.0578 -0.1122  0.1277
20820SOL    HW180452   5.631  10.762  13.004  0.1658  0.9002 -1.2342
20820SOL    HW280453   5.725  10.832  13.099 -0.0996 -0.8968  0.4118
20821SOL     OW80454   2.412  13.204   6.070  0.7420 -0.4485 -0.2657
20821SOL    HW180455   2.328  13.168   6.096  0.4919 -0.1417 -0.6276
20821SOL    HW280456   2.473  13.130   6.072  0.4102 -0.7206 -0.2412
20822SOL     OW80457  10.474   3.912   4.901  0.4052  0.0061  0.0869
20822SOL    HW180458  10.496   3.971   4.829 -0.9881  0.7293  0.2216
20822SOL    HW280459  10.403   3.956   4.947 -1.5030 -2.2914 -0.4762
20823SOL     OW80460   3.357   9.257   4.291  0.3877 -0.0446 -0.1233
20823SOL    HW180461   3.318   9.228   4.374  0.1810 -0.0931 -0.2353
20823SOL    HW280462   3.451   9.257   4.307  0.4419 -1.3615 -0.2898
20824SOL     OW80463   8.492   6.467  13.175  0.4697 -0.1727  0.0859
20824SOL    HW180464   8.417   6.414  13.150 -0.0206  0.9112 -0.8204
20824SOL    HW280465   8.566   6.430  13.127  0.4461 -0.9794  0.6556
20825SOL     OW80466   4.818   5.227   7.669  0.2954  0.0747 -0.1191
20825SOL    HW180467   4.788   5.254   7.756  0.2660 -2.0516  0.6003
20825SOL    HW280468   4.787   5.296   7.610 -0.6052  1.0466  1.4179
20826SOL     OW80469   3.210   8.964   5.327  0.4610 -0.1144  0.0608
20826SOL    HW180470   3.126   8.935   5.362  0.5331 -2.3388 -1.3866
20826SOL    HW280471   3.191   8.986   5.236  1.5027 -1.1827 -0.4411
20827SOL     OW80472   1.606   2.743   0.995  0.0126 -0.2293  0.4174
20827SOL    HW180473   1.585   2.836   0.986 -0.1301 -0.0363  2.3068
20827SOL    HW280474   1.526   2.703   1.027  0.8438 -0.4773  2.3079
20828SOL     OW80475  12.868   3.418   7.579 -0.0854 -0.3838 -0.2565
20828SOL    HW180476  12.890   3.391   7.490 -0.6397  0.5011 -0.6783
20828SOL    HW280477  12.878   3.514   7.577 -1.3538 -0.2213  0.2639
20829SOL     OW80478   5.059  13.162   0.740 -0.1517  0.5441  0.0601
20829SOL    HW180479   4.966  13.183   0.728 -0.1334  0.4473 -0.2550
20829SOL    HW280480   5.089  13.137   0.653 -0.2830 -1.2409  0.4735
20830SOL     OW80481   2.686  10.834   9.626  0.0543  0.0613 -0.3973
20830SOL    HW180482   2.749  10.794   9.687  0.1508 -0.5745 -0.9013
20830SOL    HW280483   2.634  10.760   9.594 -1.2980  0.6360  0.3912
20831SOL     OW80484   4.364   9.037   2.532  0.7583  0.0712  0.2085
20831SOL    HW180485   4.334   8.950   2.557  0.5008  0.7297  2.3803
20831SOL    HW280486   4.286   9.093   2.538  0.3767  0.1500 -3.3386
20832SOL     OW80487   8.849  12.780  12.621 -0.1620  0.2381  0.4269
20832SOL    HW180488   8.846  12.783  12.716 -3.1563 -2.2090  0.5595
20832SOL    HW280489   8.758  12.787  12.594  0.5009 -0.2785 -2.2291
20833SOL     OW80490   5.385   8.856   5.920 -0.4241  0.6132  0.3139
20833SOL    HW180491   5.363   8.763   5.926  0.3463  0.3310 -0.8674
20833SOL    HW280492   5.404   8.871   5.828  1.4948  1.4641  0.7921
20834SOL     OW80493   7.789  10.184   0.429 -0.0877  0.7154 -0.1127
20834SOL    HW180494   7.804  10.235   0.349  0.8117  0.7505  0.0724
20834SOL    HW280495   7.774  10.249   0.497  1.2613  0.7650  0.1649
20835SOL     OW80496   9.420   4.982   9.688 -0.0703 -0.1391  0.0657
20835SOL    HW180497   9.330   4.990   9.658  0.3121  0.2474 -1.0450
20835SOL    HW280498   9.424   5.034   9.767 -0.4689  1.0964 -0.7030
20836SOL     OW80499   0.999   3.899  11.911 -0.3754 -0.1297  0.1716
20836SOL    HW180500   1.055   3.866  11.841 -1.5200  0.7346 -1.2123
20836SOL    HW280501   1.060   3.941  11.972  0.5373  0.4746 -1.1069
20837SOL     OW80502   8.462   5.839   8.887  0.4367 -0.4460 -0.1103
20837SOL    HW180503   8.469   5.902   8.815  2.3789 -2.1222 -1.5110
20837SOL    HW280504   8.502   5.758   8.852 -1.7565 -2.4264  1.6383
20838SOL     OW80505  13.426  11.533   1.549 -0.0170  0.0495  0.1054
20838SOL    HW180506  13.355  11.527   1.613 -0.1053 -0.0600 -0.0025
20838SOL    HW280507  13.382  11.542   1.464  0.0990  1.0678  0.1346
20839SOL     OW80508   3.547   9.224  10.229  0.3315 -0.3893  0.0340
20839SOL    HW180509   3.551   9.302  10.285 -1.1588  0.6086 -1.1496
20839SOL    HW280510   3.453   9.204  10.225  0.5243 -1.0969 -1.2044
20840SOL     OW80511   1.130   8.087  13.825 -0.1765  0.0665  0.5027
20840SOL    HW180512   1.054   8.034  13.847  0.1893 -0.3118  0.8923
20840SOL    HW280513   1.190   8.074  13.899  0.2733  0.3370  0.1913
20841SOL     OW80514   5.612   3.241   4.336 -0.5745 -0.1918 -0.5762
20841SOL    HW180515   5.664   3.284   4.269  0.0256  2.0674  1.2304
20841SOL    HW280516   5.670   3.174   4.373 -0.0531  0.2133 -0.6598
20842SOL     OW80517  10.209   8.093   2.318  0.1623 -0.6132  0.3962
20842SOL    HW180518  10.251   8.129   2.397  0.0303 -2.0698  1.1778
20842SOL    HW280519  10.212   7.998   2.331 -1.1981 -0.8364 -0.6768
20843SOL     OW80520   2.034   8.192   9.435  0.6250 -0.4725  0.5258
20843SOL    HW180521   2.062   8.195   9.526 -1.3122  0.2568  1.1653
20843SOL    HW280522   2.004   8.102   9.422 -1.0709 -0.0764  1.3244
20844SOL     OW80523   4.840  10.853  12.611  0.3163  0.1818 -0.1061
20844SOL    HW180524   4.869  10.833  12.700  2.6438  1.1822 -0.5737
20844SOL    HW280525   4.895  10.798  12.555 -1.5422 -0.9082 -0.9610
20845SOL     OW80526   9.583   4.709  12.709 -0.6042  0.2311  0.1043
20845SOL    HW180527   9.522   4.661  12.765 -0.0194  0.5832  1.0816
20845SOL    HW280528   9.657   4.650  12.698  1.3694  1.7410  3.5699
20846SOL     OW80529  10.936   7.177   5.044 -0.1270 -0.0153  0.2799
20846SOL    HW180530  11.008   7.209   5.098 -1.2496  2.0227  0.7165
20846SOL    HW280531  10.911   7.253   4.991 -1.3602 -0.9388 -0.5222
20847SOL     OW80532   8.500   0.709   1.907 -0.0413  0.8612 -0.0693
20847SOL    HW180533   8.484   0.694   2.000 -0.6306  0.4248 -0.2342
20847SOL    HW280534   8.428   0.664   1.863  0.1596  1.1766 -0.7312
20848SOL     OW80535  12.767   8.336   9.706  0.1685 -0.6085  0.2640
20848SOL    HW180536  12.743   8.372   9.791  2.6526  0.5601  0.5482
20848SOL    HW280537  12.766   8.241   9.718 -0.8823 -0.5004  1.1631
20849SOL     OW80538   9.279  11.441  13.600  0.3637 -0.3899  0.8842
20849SOL    HW180539   9.234  11.378  13.656 -0.3106  0.5063  1.3770
20849SOL    HW280540   9.357  11.395  13.570  0.5428 -1.0102  2.2514
20850SOL     OW80541   5.204   5.608   3.160  0.4357 -0.0408 -0.0750
20850SOL    HW180542   5.119   5.577   3.191  0.1759  1.2471  0.5584
20850SOL    HW280543   5.227   5.548   3.089 -0.2019 -1.4391  0.8538
20851SOL     OW80544   7.004   4.731   0.136  0.6554  0.6567 -0.0940
20851SOL    HW180545   6.929   4.718   0.078 -0.1263 -0.8611  1.1874
20851SOL    HW280546   7.006   4.826   0.151  0.8671  1.0913 -2.5041
20852SOL     OW80547  13.599   8.531   0.420  0.6294 -0.0475 -0.2098
20852SOL    HW180548  13.692   8.554   0.423  1.0142 -1.3437 -1.1633
20852SOL    HW280549  13.578   8.528   0.327 -0.8262  1.7979 -0.0072
20853SOL     OW80550   2.771   9.932   9.029  0.4498  0.3021  0.0728
20853SOL    HW180551   2.782  10.014   8.980 -1.2175  0.0729 -0.7325
20853SOL    HW280552   2.846   9.878   9.003 -0.2714  0.2585 -2.1111
20854SOL     OW80553  12.333  13.482   7.335  0.0902 -0.1403  0.6471
20854SOL    HW180554  12.344  13.471   7.241  1.0730 -0.8932  0.8384
20854SOL    HW280555  12.345  13.394   7.371  2.6455  0.5531  1.7246
20855SOL     OW80556  13.936  13.571  13.393  0.0103  0.2355  0.1069
20855SOL    HW180557  13.889  13.489  13.379 -0.0721  0.2986  0.0057
20855SOL    HW280558  13.984  13.558  13.474  0.0314  0.0708  0.0686
20856SOL     OW80559   5.784  10.994   8.405 -0.6148  0.8766  0.0467
20856SOL    HW180560   5.830  11.063   8.358 -1.3919  0.5514 -1.2532
20856SOL    HW280561   5.806  11.007   8.497  0.8550  1.6097 -0.3975
20857SOL     OW80562  14.089   6.678   3.481  0.3078 -0.5146  0.2830
20857SOL    HW180563  13.996   6.657   3.493 -0.1726  0.5796 -1.1793
20857SOL    HW280564  14.094   6.773   3.496  0.8697 -0.2861 -1.1975
20858SOL     OW80565   7.428   2.385  11.414  0.3831  0.2484  0.3789
20858SOL    HW180566   7.416   2.337  11.496  0.6721 -0.7485 -0.1367
20858SOL    HW280567   7.486   2.329  11.362  0.4713  1.0196 -0.3779
20859SOL     OW80568  12.057   6.922  12.225 -0.2561  0.2902 -0.0305
20859SOL    HW180569  12.056   6.837  12.269 -2.1313  0.5861  0.6225
20859SOL    HW280570  11.964   6.941  12.209  0.0440  2.5667  0.5777
20860SOL     OW80571  10.504  10.259  10.114 -0.5003 -0.2046  0.6650
20860SOL    HW180572  10.520  10.319  10.041 -2.3833 -0.3403  0.0829
20860SOL    HW280573  10.455  10.311  10.177 -0.2618 -0.5389  1.1278
20861SOL     OW80574   0.597  13.591  10.912 -0.0113  0.5029 -0.1533
20861SOL    HW180575   0.548  13.635  10.842  0.7973  0.2237 -0.9167
20861SOL    HW280576   0.625  13.509  10.873  0.3224  0.2685  0.5615
20862SOL     OW80577   1.477   5.751  12.667  0.3012  0.3059  0.2173
20862SOL    HW180578   1.410   5.694  12.629 -1.0292  1.5002  0.6853
20862SOL    HW280579   1.455   5.756  12.760  1.5590  0.0486  0.5432
20863SOL     OW80580  12.520   3.883   3.710  0.1225 -0.5570  0.2275
20863SOL    HW180581  12.510   3.848   3.621 -0.9419 -1.2228  0.5901
20863SOL    HW280582  12.523   3.978   3.697 -0.7270 -0.6088 -0.4750
20864SOL     OW80583   2.752   6.348  10.815 -0.0052  0.0663  0.0266
20864SOL    HW180584   2.739   6.440  10.839  0.1390  0.1749 -0.3059
20864SOL    HW280585   2.692   6.334  10.741 -0.0441 -0.1137  0.0921
20865SOL     OW80586   2.588   3.273   7.035 -0.2186  0.0233  0.1506
20865SOL    HW180587   2.519   3.334   7.060 -0.8301  1.0304 -3.4677
20865SOL    HW280588   2.666   3.327   7.022 -0.8646  0.3372 -3.4946
20866SOL     OW80589   0.793   7.300  12.517  0.1923 -0.7204 -0.3990
20866SOL    HW180590   0.777   7.342  12.601 -0.2397 -0.6523 -0.5131
20866SOL    HW280591   0.880   7.261  12.526  0.5701  0.1412 -0.2702
20867SOL     OW80592   9.484   1.598  13.896 -0.4430 -0.4649  0.0050
20867SOL    HW180593   9.423   1.665  13.928 -0.1019  0.0426 -0.3980
20867SOL    HW280594   9.462   1.589  13.803 -0.0626 -0.4542 -0.0855
20868SOL     OW80595   2.454   3.241  10.464  0.2373  0.7309 -0.5551
20868SOL    HW180596   2.515   3.175  10.496 -0.6763  0.4100  0.6110
20868SOL    HW280597   2.404   3.267  10.542 -2.0646 -0.0482 -1.6843
20869SOL     OW80598   9.031   8.668   9.696  0.2722  0.5279  0.7985
20869SOL    HW180599   9.027   8.572   9.695 -1.3428  0.5427 -1.3463
20869SOL    HW280600   9.080   8.689   9.775  1.5765 -2.0855  0.7944
20870SOL     OW80601   6.664  11.231  12.709  0.2012 -0.3027  0.0644
20870SOL    HW180602   6.697  11.289  12.778  0.7598 -0.7473  0.1798
20870SOL    HW280603   6.700  11.267  12.628 -0.2675  0.0861  0.0250
20871SOL     OW80604  13.185  12.847   4.661  0.5651  0.1012 -0.1275
20871SOL    HW180605  13.223  12.898   4.732 -0.0963  1.9999 -1.0637
20871SOL    HW280606  13.260  12.805   4.619  1.3959  1.7635 -0.4047
20872SOL     OW80607   0.571   1.834  12.619  0.3293 -0.5995  0.6308
20872SOL    HW180608   0.476   1.824  12.617  0.3794 -1.0043 -0.6258
20872SOL    HW280609   0.585   1.928  12.630 -0.1815 -0.7020  2.5861
20873SOL     OW80610   2.472   8.037   9.352 -0.4575 -0.5646  0.3902
20873SOL    HW180611   2.474   8.060   9.445 -0.8841 -0.5396  0.3977
20873SOL    HW280612   2.402   7.972   9.345 -0.7962 -0.1665  0.0037
20874SOL     OW80613  13.940   7.127  11.694 -0.0055 -0.4994 -0.1870
20874SOL    HW180614  13.965   7.219  11.703 -0.1803 -0.5301  0.6275
20874SOL    HW280615  13.900   7.122  11.607 -1.0502  0.4478  0.2097
20875SOL     OW80616  11.398   8.598   0.801  0.2118  0.1083 -0.3143
20875SOL    HW180617  11.309   8.564   0.808 -0.9514  2.2711 -2.8402
20875SOL    HW280618  11.395   8.684   0.842 -0.1654  2.0374 -3.9585
20876SOL     OW80619   5.062   2.287  12.713 -0.2089  0.1157  0.1192
20876SOL    HW180620   5.123   2.236  12.660  0.6750  1.8426 -0.6118
20876SOL    HW280621   5.091   2.274  12.803  1.2554  0.8482 -0.2056
20877SOL     OW80622   3.269  10.509   7.054 -0.8524  0.5171 -0.2215
20877SOL    HW180623   3.237  10.431   7.100  1.3325 -0.0567  0.4319
20877SOL    HW280624   3.305  10.565   7.124  0.1243  0.8334 -0.9565
20878SOL     OW80625   8.623   3.099  12.288 -0.4290  0.4004  0.9464
20878SOL    HW180626   8.602   3.153  12.364 -1.6025 -0.0485  0.9550
20878SOL    HW280627   8.539   3.065  12.258 -0.0910  1.0652 -0.9414
20879SOL     OW80628   3.906   8.733   5.469  0.1840 -0.4984  0.7840
20879SOL    HW180629   3.848   8.803   5.499 -0.2382 -0.5220  0.0427
20879SOL    HW280630   3.935   8.761   5.383 -1.2960 -1.9683 -0.2517
20880SOL     OW80631   4.883  12.529  10.921  0.1749 -0.1270 -0.2091
20880SOL    HW180632   4.907  12.473  10.994 -1.3695 -0.6299 -0.0525
20880SOL    HW280633   4.827  12.475  10.866 -1.0224  1.1267 -0.2749
20881SOL     OW80634   5.188   0.299   8.556 -0.2477 -0.1561  0.1626
20881SOL    HW180635   5.232   0.351   8.623 -1.2750  0.0570  0.6930
20881SOL    HW280636   5.221   0.332   8.473  0.5082  0.0640  0.5491
20882SOL     OW80637  12.418  11.102   4.249 -0.2402 -0.5446 -0.1199
20882SOL    HW180638  12.511  11.107   4.227 -0.3456 -0.0648 -0.4926
20882SOL    HW280639  12.416  11.083   4.343  0.2542  0.5714  0.1406
20883SOL     OW80640   4.058   1.544  13.704  0.2639 -0.2259 -0.0620
20883SOL    HW180641   4.062   1.451  13.682 -1.6350 -0.1729 -0.7741
20883SOL    HW280642   3.989   1.550  13.771  0.0768  0.7243 -0.3292
20884SOL     OW80643   8.022  11.264   1.200  0.3578  0.4547  0.1459
20884SOL    HW180644   7.944  11.219   1.233  1.4209 -1.6987 -0.0880
20884SOL    HW280645   8.094  11.206   1.223  1.4343  0.0154 -3.6719
20885SOL     OW80646   9.807   5.360   7.564  0.0069 -0.0662 -0.0030
20885SOL    HW180647   9.758   5.436   7.531 -1.3025 -0.8341  0.0836
20885SOL    HW280648   9.895   5.371   7.528 -0.0258  1.6917  0.3462
20886SOL     OW80649   5.242  14.116   6.431 -0.3442  0.1275 -0.7406
20886SOL    HW180650   5.201  14.041   6.388  0.0330 -1.7410  1.8828
20886SOL    HW280651   5.178  14.143   6.497  0.7094  0.1947  0.2797
20887SOL     OW80652  10.091   5.887   7.865  0.7033  0.0330 -0.0154
20887SOL    HW180653  10.112   5.826   7.794  1.5859 -0.2962  0.5060
20887SOL    HW280654  10.004   5.861   7.895  0.9367 -0.7678 -0.0108
20888SOL     OW80655  13.103  10.352   0.073 -0.3726  0.2060 -0.1422
20888SOL    HW180656  13.011  10.327   0.064 -0.1369 -1.1237  0.7098
20888SOL    HW280657  13.117  10.419   0.007 -2.0810  0.7901  0.0479
20889SOL     OW80658  13.371   0.395  13.506 -0.2785  0.3120  0.5108
20889SOL    HW180659  13.427   0.335  13.556 -1.4732 -0.8540  0.4923
20889SOL    HW280660  13.287   0.350  13.500 -1.2118  1.9924  0.4564
20890SOL     OW80661   3.413  11.368   3.754  0.3562 -0.5097 -0.7885
20890SOL    HW180662   3.358  11.445   3.766  0.6488 -0.2963 -0.8075
20890SOL    HW280663   3.498  11.403   3.727  0.1756 -0.8950 -1.8955
20891SOL     OW80664   4.288   8.356   3.782 -0.2569 -0.2526  0.1279
20891SOL    HW180665   4.211   8.396   3.823 -0.9385 -0.7562 -0.6225
20891SOL    HW280666   4.277   8.262   3.795  0.6592 -0.2810  0.7276
20892SOL     OW80667  11.057  14.128   8.280  0.1345 -0.4130  0.1158
20892SOL    HW180668  11.006  14.208   8.284  0.1312 -0.3896 -0.2943
20892SOL    HW280669  11.066  14.100   8.371  1.4632  0.8923  0.4319
20893SOL     OW80670  10.108   9.702   3.607  0.3466  0.3743 -0.1550
20893SOL    HW180671  10.135   9.710   3.698 -3.6166  0.5832  1.2308
20893SOL    HW280672  10.130   9.612   3.582  0.5272 -0.0374  1.4186
20894SOL     OW80673  12.125   7.727   9.718 -0.0323 -0.1388 -0.3417
20894SOL    HW180674  12.120   7.793   9.649 -0.2299  1.3096  1.0243
20894SOL    HW280675  12.209   7.742   9.761 -0.4411 -0.2116  0.5118
20895SOL     OW80676   3.664   6.874   5.361 -0.1477 -0.3439  0.1822
20895SOL    HW180677   3.576   6.864   5.398  0.1592  0.8742  1.3126
20895SOL    HW280678   3.718   6.903   5.435  0.6118  1.6261 -1.0948
20896SOL     OW80679   3.404  10.838   2.221 -0.1009 -0.0996  0.2268
20896SOL    HW180680   3.464  10.860   2.149 -3.2097  2.9752 -1.7284
20896SOL    HW280681   3.433  10.893   2.294  0.4039  0.1393 -0.1445
20897SOL     OW80682   1.336   6.898   0.427  0.0815 -0.1613  0.5669
20897SOL    HW180683   1.291   6.862   0.504 -0.7961 -5.3878 -1.8854
20897SOL    HW280684   1.266   6.935   0.374  0.4917  2.1354  1.5302
20898SOL     OW80685  10.969  14.137   5.111 -0.1781  0.0743 -0.6529
20898SOL    HW180686  10.907  14.106   5.177  0.8462 -0.0213  0.2930
20898SOL    HW280687  11.016  14.058   5.083  1.3192  0.4654  0.5847
20899SOL     OW80688   9.317  12.952   3.148  0.2789 -0.2141 -0.3729
20899SOL    HW180689   9.367  12.871   3.141  1.2645  0.3257  0.2041
20899SOL    HW280690   9.273  12.960   3.064 -0.1582 -1.5363 -0.3073
20900SOL     OW80691  11.046   3.998   1.171 -0.0063  0.4728 -0.2198
20900SOL    HW180692  11.029   3.915   1.126 -1.9025 -0.0119  1.2748
20900SOL    HW280693  11.112   3.977   1.236 -0.0345  0.2876 -0.2504
20901SOL     OW80694   9.479  10.128  10.883 -0.7681  0.4726  0.7726
20901SOL    HW180695   9.493  10.141  10.789 -0.5346 -0.0413  0.7344
20901SOL    HW280696   9.529  10.198  10.924 -1.5461  1.2153  0.4936
20902SOL     OW80697   7.283  11.881   5.513  0.3003 -0.4459 -0.3961
20902SOL    HW180698   7.301  11.801   5.465  0.4280 -1.0088  0.5700
20902SOL    HW280699   7.255  11.943   5.446  0.9918 -1.0450 -1.2620
20903SOL     OW80700   0.022   5.425   3.034 -0.4119  0.0855  0.1558
20903SOL    HW180701   0.007   5.391   3.123 -0.0084 -0.6225 -0.0371
20903SOL    HW280702  -0.054   5.396   2.984  0.4848 -1.6284 -0.2994
20904SOL     OW80703   6.321   4.783   3.947  0.0696 -0.4314  0.0074
20904SOL    HW180704   6.335   4.770   3.853 -1.0200 -0.3250 -0.1732
20904SOL    HW280705   6.256   4.852   3.952  0.0457 -0.5100  0.8492
20905SOL     OW80706   3.344  11.442   3.027  0.1444  0.3641  0.7948
20905SOL    HW180707   3.275  11.507   3.017 -0.2563  0.0188  1.3169
20905SOL    HW280708   3.396  11.473   3.101  0.1540  0.2724  0.8264
20906SOL     OW80709  10.503   0.087   1.576  0.5411 -0.2348  0.4967
20906SOL    HW180710  10.421   0.038   1.577  1.3551 -1.6955 -0.6800
20906SOL    HW280711  10.491   0.155   1.642 -0.4857 -2.3064  2.6133
20907SOL     OW80712  10.203  11.565   4.238 -0.6108 -0.4740 -0.0864
20907SOL    HW180713  10.217  11.581   4.331  0.2403 -1.3293 -0.0434
20907SOL    HW280714  10.181  11.650   4.202 -0.2134  0.0133  0.7742
20908SOL     OW80715  14.016   1.118  11.276  0.1590 -0.3443 -0.8213
20908SOL    HW180716  13.922   1.128  11.260  0.0627  0.3559  0.1111
20908SOL    HW280717  14.037   1.187  11.339  1.0183 -1.4158  0.0895
20909SOL     OW80718   2.108   8.212   9.716 -0.7393  0.6147  0.4014
20909SOL    HW180719   2.199   8.223   9.688 -1.1520  0.1480 -1.2802
20909SOL    HW280720   2.105   8.125   9.755 -0.6283  0.2755 -0.3298
20910SOL     OW80721   6.156   4.266   5.020  0.0737 -0.3167 -0.1075
20910SOL    HW180722   6.127   4.306   5.102  1.7565 -1.0199  0.8992
20910SOL    HW280723   6.185   4.178   5.046  0.3859 -0.6397 -1.5051
20911SOL     OW80724   5.154   5.154   5.357 -0.1557 -0.5804  0.0746
20911SOL    HW180725   5.213   5.093   5.401 -1.2274 -2.4318 -0.9520
20911SOL    HW280726   5.192   5.166   5.270 -1.0400 -1.4597 -0.4490
20912SOL     OW80727   4.829   4.784  10.114  0.5850 -0.0620 -0.3684
20912SOL    HW180728   4.820   4.859  10.173 -0.2378  0.3102 -0.9458
20912SOL    HW280729   4.775   4.716  10.153  0.1595  0.1367 -0.5937
20913SOL     OW80730   9.552   8.726   9.814  0.0124 -0.4672  0.5419
20913SOL    HW180731   9.615   8.760   9.878  1.0400  0.4939 -0.9208
20913SOL    HW280732   9.604   8.666   9.760 -0.6899 -0.7772  0.2080
20914SOL     OW80733   9.051  13.961  14.057  0.3208 -0.1068 -0.1340
20914SOL    HW180734   9.135  13.927  14.026  0.4523  1.0416 -1.1068
20914SOL    HW280735   9.063  13.972  14.151  0.7590 -1.3219 -0.0326
20915SOL     OW80736   3.124   4.820   6.504  0.8291 -0.3539 -0.2474
20915SOL    HW180737   3.086   4.734   6.521  0.4391 -0.0089  0.6797
20915SOL    HW280738   3.197   4.827   6.566  0.3281  0.3264  0.2783
20916SOL     OW80739   0.396   1.813   1.411  0.1662 -0.2317 -0.1381
20916SOL    HW180740   0.320   1.761   1.435 -0.5196 -0.4970 -2.6284
20916SOL    HW280741   0.462   1.748   1.387  0.9480  0.0229  1.1790
20917SOL     OW80742  14.154  10.596   5.192  0.2323 -0.0025 -0.1033
20917SOL    HW180743  14.076  10.642   5.225 -1.3321 -0.3488 -2.9697
20917SOL    HW280744  14.212  10.666   5.162  0.4399  0.2282  0.8149
20918SOL     OW80745  12.858   3.723   0.251 -0.3474  0.3852 -0.3665
20918SOL    HW180746  12.916   3.672   0.308 -1.6826  1.2217  1.8825
20918SOL    HW280747  12.774   3.677   0.255 -0.3062  0.0619 -2.3106
20919SOL     OW80748  12.713  10.016   3.958  0.0204  1.0922  0.5672
20919SOL    HW180749  12.807  10.007   3.976  0.8732  1.2973 -3.0325
20919SOL    HW280750  12.704   9.995   3.865 -3.3370  2.2685  0.4781
20920SOL     OW80751  11.488   1.533   0.398 -0.0563 -0.1240 -0.7675
20920SOL    HW180752  11.527   1.547   0.485 -0.3709 -0.4910 -0.5643
20920SOL    HW280753  11.446   1.617   0.377 -0.4331 -0.1979 -0.3294
20921SOL     OW80754   3.929  12.033   2.858 -0.3889 -0.4654  0.3419
20921SOL    HW180755   3.869  12.045   2.785 -0.9898 -0.9762  0.7380
20921SOL    HW280756   3.997  11.976   2.823  1.0641  1.8050 -0.7489
20922SOL     OW80757   3.221   2.841   1.093  0.0404 -0.2149 -0.1246
20922SOL    HW180758   3.189   2.912   1.148  0.5187 -0.3753  0.3761
20922SOL    HW280759   3.160   2.770   1.108 -0.0503 -0.1310 -0.0938
20923SOL     OW80760   6.295  11.778   7.738  0.2234 -0.3384  0.5176
20923SOL    HW180761   6.320  11.861   7.696  1.2578 -1.3107 -0.8853
20923SOL    HW280762   6.243  11.804   7.813 -0.9334  1.5460 -0.8463
20924SOL     OW80763   7.260  13.751   8.841 -0.2182 -0.0942  0.1470
20924SOL    HW180764   7.218  13.819   8.789 -1.6686  0.3015  1.7396
20924SOL    HW280765   7.193  13.683   8.851  0.1972 -0.3993  1.0389
20925SOL     OW80766  11.102   3.580   0.813  0.0016 -0.3967  0.3047
20925SOL    HW180767  11.161   3.529   0.869  0.4963  0.2108  0.3412
20925SOL    HW280768  11.014   3.557   0.843  0.2306 -0.9729  0.5416
20926SOL     OW80769  13.313   0.932   1.636 -0.4941  0.8066  0.6041
20926SOL    HW180770  13.336   0.973   1.720  1.8767 -3.7289  2.5613
20926SOL    HW280771  13.260   0.856   1.661 -0.5784 -0.1376 -2.1275
20927SOL     OW80772   9.436   1.440   7.365 -0.0624  0.2843 -0.1282
20927SOL    HW180773   9.510   1.389   7.399 -0.9382 -0.1470  1.1986
20927SOL    HW280774   9.444   1.525   7.407 -0.4968  0.1272  0.2828
20928SOL     OW80775   3.999   7.257   3.581  0.2186  0.0204  0.1831
20928SOL    HW180776   4.015   7.208   3.501  2.6890  2.3898 -0.9483
20928SOL    HW280777   3.981   7.346   3.551  1.3791  1.0192  2.2246
20929SOL     OW80778  13.577   0.031   5.799 -0.7129 -0.3184  0.0301
20929SOL    HW180779  13.642   0.063   5.862 -0.6346  0.7214 -0.5520
20929SOL    HW280780  13.493   0.061   5.833 -0.6367  0.5612 -0.5359
20930SOL     OW80781   9.370  11.027   2.084 -0.6342 -0.0503 -0.3422
20930SOL    HW180782   9.437  11.049   2.019  0.1396  2.2311  1.0947
20930SOL    HW280783   9.287  11.036   2.038 -0.1197  1.8317 -0.9812
20931SOL     OW80784   1.685   3.377  10.047  0.3439 -0.1224 -0.0842
20931SOL    HW180785   1.597   3.364  10.083  1.7344 -0.4514  3.6094
20931SOL    HW280786   1.687   3.469  10.021 -1.9026 -0.7709 -3.1898
20932SOL     OW80787  10.610   2.265   8.808  0.2425  1.4827  0.1992
20932SOL    HW180788  10.575   2.235   8.892 -0.9921  0.1830 -0.7353
20932SOL    HW280789  10.554   2.338   8.783  0.3401  1.5947  0.3084
20933SOL     OW80790   7.467   6.212   5.337 -0.8603 -0.6887 -0.0570
20933SOL    HW180791   7.424   6.263   5.405  1.3502  0.4191  0.6119
20933SOL    HW280792   7.463   6.122   5.369 -0.7453 -0.3201  1.0516
20934SOL     OW80793   8.386   0.767  11.272 -0.3731 -0.1133  0.5103
20934SOL    HW180794   8.368   0.802  11.360 -1.1493  1.5783 -0.2668
20934SOL    HW280795   8.384   0.672  11.283  1.2595  0.0315  2.6473
20935SOL     OW80796   1.636  12.890   2.586 -0.1885 -0.0744 -0.8236
20935SOL    HW180797   1.727  12.905   2.610 -0.0134  0.3404 -1.6847
20935SOL    HW280798   1.596  12.977   2.588 -0.3954 -0.1608 -1.1039
20936SOL     OW80799  10.184   6.745   6.070 -0.4389 -0.2204  0.2360
20936SOL    HW180800  10.102   6.719   6.111 -0.8647 -1.4482 -1.3071
20936SOL    HW280801  10.183   6.703   5.984  0.3755  2.2448 -1.0919
20937SOL     OW80802  13.055   1.452   1.645 -0.1842 -0.4238 -0.2643
20937SOL    HW180803  13.027   1.544   1.637 -0.5902 -0.4614  0.6656
20937SOL    HW280804  13.072   1.425   1.554  1.1660  0.9354 -0.4583
20938SOL     OW80805  13.981   4.269   4.293 -0.0068 -0.1971  0.0124
20938SOL    HW180806  13.994   4.257   4.388  0.3088  1.4903  0.2156
20938SOL    HW280807  13.889   4.292   4.284 -0.0816 -0.5417 -0.1217
20939SOL     OW80808   7.884   6.238   9.749  0.4495  0.0628 -0.1413
20939SOL    HW180809   7.808   6.248   9.691  0.2404  0.8813  0.2561
20939SOL    HW280810   7.941   6.312   9.727  0.2302  0.5580  0.8865
20940SOL     OW80811   7.893  13.961   0.972 -0.8646  0.2298  0.1098
20940SOL    HW180812   7.813  13.973   1.024 -0.1314  0.6390  1.1885
20940SOL    HW280813   7.868  13.986   0.883 -2.7972 -2.6037 -0.2989
20941SOL     OW80814   7.270   9.608  11.118 -0.8620 -0.0813 -0.2671
20941SOL    HW180815   7.274   9.519  11.154 -0.6924  0.4156  0.9771
20941SOL    HW280816   7.208   9.654  11.176 -0.9914  0.5992 -0.9354
20942SOL     OW80817  10.761  12.277  12.368 -0.1636 -0.5338  0.2180
20942SOL    HW180818  10.678  12.312  12.335  1.1970  2.2617 -0.4986
20942SOL    HW280819  10.785  12.333  12.441  1.1744 -1.2063  0.3406
20943SOL     OW80820   1.855   1.608   0.800  0.1981  0.4428 -0.2689
20943SOL    HW180821   1.842   1.690   0.847  1.0986  0.4188  0.0502
20943SOL    HW280822   1.947   1.610   0.774  0.5036 -0.8938  0.6079
20944SOL     OW80823   1.726   1.037   2.289 -0.0344  0.1350 -0.6620
20944SOL    HW180824   1.786   1.074   2.224  1.5208 -1.2342 -0.0780
20944SOL    HW280825   1.653   1.098   2.292  1.6560  2.3048 -0.8955
20945SOL     OW80826   8.473   9.140   6.914 -0.4784  0.3239 -0.0507
20945SOL    HW180827   8.420   9.136   6.993  0.3869 -0.1751  0.5177
20945SOL    HW280828   8.471   9.232   6.889 -0.9558  0.4445  0.4114
20946SOL     OW80829   8.117   1.997   0.976  0.2622  0.0469  1.1922
20946SOL    HW180830   8.025   2.016   0.994 -0.0328 -1.0368  0.8867
20946SOL    HW280831   8.118   1.904   0.954  1.2309  0.3677 -0.2091
20947SOL     OW80832   0.401   6.388  11.768  0.3699  0.3653  1.0650
20947SOL    HW180833   0.400   6.293  11.761 -1.0346  0.4048  0.3523
20947SOL    HW280834   0.324   6.409  11.821 -0.7396  1.1817 -0.7358
20948SOL     OW80835  12.241   4.710   7.487 -0.7510 -0.3440  0.6759
20948SOL    HW180836  12.273   4.678   7.403 -0.6487  2.4167 -0.4525
20948SOL    HW280837  12.227   4.631   7.540  2.5966 -2.0084 -0.6559
20949SOL     OW80838  11.166   0.423   4.053  0.0336 -0.0460  0.1584
20949SOL    HW180839  11.072   0.438   4.058  0.0107 -0.1923  0.1842
20949SOL    HW280840  11.197   0.487   3.989 -0.3206 -0.9998 -1.0031
20950SOL     OW80841   7.839  10.282   4.257 -0.3879  0.4219 -0.1072
20950SOL    HW180842   7.912  10.242   4.305 -0.0845 -0.1821 -1.0217
20950SOL    HW280843   7.853  10.376   4.263 -0.6729  0.3835  1.4380
20951SOL     OW80844  12.217   2.233   2.808  0.1322 -0.7488 -0.4662
20951SOL    HW180845  12.247   2.324   2.805  1.0459 -1.0507 -0.7740
20951SOL    HW280846  12.130   2.238   2.849  1.7095 -0.1525  3.1549
20952SOL     OW80847   7.547  10.671  12.058  0.0942  0.6587  0.0002
20952SOL    HW180848   7.535  10.746  11.999  0.7765  0.9297  0.1868
20952SOL    HW280849   7.553  10.595  12.000  1.8667  1.0472 -0.3896
20953SOL     OW80850   0.096   3.384   6.162 -0.4266 -0.0111 -0.0291
20953SOL    HW180851   0.048   3.449   6.213 -0.1569  0.4410 -0.3494
20953SOL    HW280852   0.129   3.432   6.086 -0.1692 -0.5047 -0.2340
20954SOL     OW80853   4.692   8.803  13.293 -0.2728 -0.3293 -0.1761
20954SOL    HW180854   4.739   8.744  13.352 -1.0491 -1.6850 -0.8668
20954SOL    HW280855   4.632   8.851  13.350  0.6092  0.0711  0.4421
20955SOL     OW80856  12.020  11.670   9.657 -0.3966  0.2346  0.0783
20955SOL    HW180857  11.973  11.617   9.593  0.7841  0.3244 -0.8975
20955SOL    HW280858  12.055  11.608   9.720 -0.7146  0.0589  0.0856
20956SOL     OW80859   7.318  13.312   0.266 -0.7140 -0.0731  0.3104
20956SOL    HW180860   7.389  13.257   0.300 -1.0667 -1.7766 -1.5364
20956SOL    HW280861   7.345  13.335   0.178 -1.5648  0.9587  0.2987
20957SOL     OW80862  10.784   1.774   3.744  0.4204  0.0333  0.8096
20957SOL    HW180863  10.700   1.815   3.762  0.3490  0.1303  0.2805
20957SOL    HW280864  10.804   1.799   3.654  0.4170 -1.0209  0.5062
20958SOL     OW80865  12.525   5.190  11.018  0.7257  0.1193 -0.3591
20958SOL    HW180866  12.578   5.157  10.945  0.0409 -2.9471  0.3756
20958SOL    HW280867  12.583   5.248  11.066  2.5007 -0.9177 -1.1492
20959SOL     OW80868  12.306  11.338   3.080  0.3885 -0.4725 -0.1031
20959SOL    HW180869  12.309  11.430   3.052  0.2541  0.5499  2.8713
20959SOL    HW280870  12.230  11.302   3.035 -1.0024  1.5734  0.4271
20960SOL     OW80871   8.321   4.477   1.174 -0.1016 -0.0358 -0.0907
20960SOL    HW180872   8.246   4.462   1.231  0.2180  0.6111  0.5153
20960SOL    HW280873   8.318   4.406   1.110 -0.5336 -0.7074  0.6620
20961SOL     OW80874   4.490   1.331  11.631 -0.5602  0.1580  0.3782
20961SOL    HW180875   4.431   1.261  11.605  0.4675 -0.2593 -0.9432
20961SOL    HW280876   4.498   1.323  11.726 -2.3307  0.0216  0.5304
20962SOL     OW80877  11.753  11.135   4.426 -0.2265 -0.5097 -0.0638
20962SOL    HW180878  11.776  11.043   4.441 -0.7365 -0.3806  1.6135
20962SOL    HW280879  11.807  11.160   4.350  0.0783 -2.1148 -0.4234
20963SOL     OW80880   0.773   8.448   9.041 -0.6259 -0.2451  0.2547
20963SOL    HW180881   0.733   8.385   9.100  0.7516  0.0638  1.5919
20963SOL    HW280882   0.853   8.477   9.086 -0.2709  1.1046 -1.1126
20964SOL     OW80883  11.680  13.886   9.478  0.4227 -0.5248  0.0592
20964SOL    HW180884  11.714  13.814   9.426  2.2686  0.4513 -0.1806
20964SOL    HW280885  11.687  13.963   9.421 -0.0590  0.1087  0.8182
20965SOL     OW80886   7.542   5.273   1.374 -0.5195 -0.2273  0.0473
20965SOL    HW180887   7.458   5.293   1.416 -0.0951  0.1863  0.7241
20965SOL    HW280888   7.519   5.250   1.284 -1.2096  1.9275 -0.4014
20966SOL     OW80889   3.549   3.620  12.403  0.1824 -0.0720 -0.2870
20966SOL    HW180890   3.495   3.620  12.482 -2.4470 -2.7195 -1.8885
20966SOL    HW280891   3.576   3.529  12.392  2.1968  0.5896 -1.4428
20967SOL     OW80892   0.203  10.089  10.078  0.3603 -0.5025  0.5544
20967SOL    HW180893   0.215  10.179  10.109 -0.1197  0.1190 -0.9444
20967SOL    HW280894   0.117  10.063  10.109 -0.4013  0.3554 -0.7097
20968SOL     OW80895   5.674   3.502   1.282 -0.0900 -0.1807  0.0316
20968SOL    HW180896   5.695   3.533   1.194 -2.6350 -0.2733 -0.6812
20968SOL    HW280897   5.634   3.577   1.326 -1.3032 -0.8715  0.1555
20969SOL     OW80898   7.521   2.659   4.565 -0.2006 -0.1162 -0.3122
20969SOL    HW180899   7.544   2.614   4.646  1.6663 -0.0189 -0.7383
20969SOL    HW280900   7.565   2.744   4.571  0.0162 -0.1319 -1.4526
20970SOL     OW80901   9.321  11.328   1.677  0.2922 -0.1616  0.0992
20970SOL    HW180902   9.279  11.288   1.601  1.1765 -2.4449  0.7030
20970SOL    HW280903   9.414  11.330   1.654  0.6118 -1.2026  1.2012
20971SOL     OW80904  13.865   8.887   3.309  0.1115 -0.1130 -0.2405
20971SOL    HW180905  13.806   8.839   3.251 -0.3189 -0.1250  0.2095
20971SOL    HW280906  13.882   8.969   3.263 -1.2972  0.4559  0.2233
20972SOL     OW80907   4.757  11.002   3.885 -0.2433 -0.4711 -0.1161
20972SOL    HW180908   4.828  11.033   3.829  0.0731 -0.9859 -0.0005
20972SOL    HW280909   4.795  10.997   3.973 -0.4143 -0.7718 -0.0564
20973SOL     OW80910   4.517  10.372   5.902 -0.4483  0.4482 -0.6544
20973SOL    HW180911   4.585  10.360   5.835 -0.0520  0.8461 -0.3298
20973SOL    HW280912   4.548  10.446   5.954 -0.7602  0.1454 -0.0323
20974SOL     OW80913  12.525   4.811   3.332  0.5469  0.4517 -0.1969
20974SOL    HW180914  12.597   4.844   3.386  0.1702  1.4312 -0.2868
20974SOL    HW280915  12.495   4.886   3.282 -0.1795 -0.0759 -0.5782
20975SOL     OW80916  11.097   1.585  10.428  0.1775 -0.0075  0.7659
20975SOL    HW180917  11.037   1.533  10.375  0.8446 -2.0092  1.8399
20975SOL    HW280918  11.044   1.617  10.501 -0.2774  1.0396  0.0069
20976SOL     OW80919   0.656  11.207   1.640  0.3466  0.0674 -0.7466
20976SOL    HW180920   0.572  11.162   1.651  1.1324 -1.4507 -0.6117
20976SOL    HW280921   0.710  11.144   1.593  1.4341  0.9855 -0.7532
20977SOL     OW80922   1.560   7.724   8.983 -0.5524  0.4803  0.2032
20977SOL    HW180923   1.576   7.771   8.901  2.5592 -1.5452 -0.5132
20977SOL    HW280924   1.539   7.635   8.956  2.6592 -0.8018  1.4716
20978SOL     OW80925   2.821   0.215  12.991  0.0505 -1.1348 -0.0946
20978SOL    HW180926   2.779   0.139  13.031  0.0524 -1.2684 -0.3458
20978SOL    HW280927   2.908   0.217  13.030 -0.0823 -1.0365  0.1987
20979SOL     OW80928  13.867  11.702   2.711  0.1419  0.2219 -0.0791
20979SOL    HW180929  13.918  11.709   2.792  0.1182 -1.0827  0.0644
20979SOL    HW280930  13.874  11.610   2.685 -1.1487  0.2720 -0.7106
20980SOL     OW80931   0.946   1.977  12.696 -0.3070  0.2928 -0.6783
20980SOL    HW180932   0.883   1.923  12.647  3.2156 -1.8631 -3.3046
20980SOL    HW280933   0.963   1.926  12.775  0.1410 -0.5366 -1.2943
20981SOL     OW80934   5.712  12.091   5.207 -0.5455 -0.2830  0.6309
20981SOL    HW180935   5.702  12.127   5.295 -1.6603  0.7095  0.1293
20981SOL    HW280936   5.640  12.028   5.199 -0.4994 -0.3070  0.3974
20982SOL     OW80937  12.926   3.152   5.119  0.2584 -0.4118 -0.1478
20982SOL    HW180938  13.005   3.193   5.154  0.6392 -0.7005 -0.6563
20982SOL    HW280939  12.894   3.097   5.190  0.4553 -0.2097  0.0991
20983SOL     OW80940   0.728   6.700   3.493 -0.6506  0.3394 -0.3345
20983SOL    HW180941   0.672   6.774   3.517  0.2194  1.3427 -1.2549
20983SOL    HW280942   0.723   6.696   3.397  1.7346  1.2490 -0.5606
20984SOL     OW80943   6.961   7.790  13.812 -0.1648  0.2050  0.8387
20984SOL    HW180944   6.991   7.782  13.721  0.5407  0.1759  1.0709
20984SOL    HW280945   6.963   7.884  13.830  0.2355  0.1680  0.9997
20985SOL     OW80946   8.715   5.352   4.602 -0.3461 -0.3700  0.3797
20985SOL    HW180947   8.780   5.417   4.630 -0.7386  0.3379 -0.3358
20985SOL    HW280948   8.765   5.291   4.548 -0.3152  0.3141 -0.3779
20986SOL     OW80949   2.608   7.765  10.680  0.0210 -0.4258  0.3949
20986SOL    HW180950   2.553   7.833  10.721 -0.6859 -1.5608  1.4012
20986SOL    HW280951   2.639   7.712  10.753 -0.6140 -2.0407 -0.4595
20987SOL     OW80952   7.209  13.271  11.118  0.1536  0.2811 -0.0588
20987SOL    HW180953   7.131  13.223  11.144  1.0796 -0.9601  0.5424
20987SOL    HW280954   7.237  13.315  11.199  2.1150 -2.2731  0.7986
20988SOL     OW80955   1.128   6.446  10.253  0.1189 -0.5443 -0.6201
20988SOL    HW180956   1.162   6.386  10.187 -1.5534 -1.9754 -0.2360
20988SOL    HW280957   1.177   6.424  10.333  0.1478 -0.7609 -0.6975
20989SOL     OW80958  12.943   1.168   7.031  0.2445 -0.2304  0.0086
20989SOL    HW180959  13.008   1.195   7.095  0.6028  0.4329 -0.6243
20989SOL    HW280960  12.868   1.226   7.047  0.8825  0.9411 -1.1190
20990SOL     OW80961   9.760   1.406  12.108 -0.1627  0.0661  0.5384
20990SOL    HW180962   9.737   1.387  12.017 -3.7589  2.3093  0.8106
20990SOL    HW280963   9.797   1.494  12.105  0.1679 -0.0456  1.2205
20991SOL     OW80964   1.730   0.840   8.095 -0.5244  0.8552 -0.2127
20991SOL    HW180965   1.692   0.910   8.149  0.8005  1.1865  0.3380
20991SOL    HW280966   1.816   0.874   8.069 -0.9314  0.5136 -2.1802
20992SOL     OW80967   4.978   8.416   4.656 -0.0846 -0.2084  0.0936
20992SOL    HW180968   5.025   8.409   4.573  0.0212  0.2949  0.1033
20992SOL    HW280969   5.042   8.453   4.717 -0.2245 -0.3750  0.3447
20993SOL     OW80970   6.361  11.815   3.867  0.7050  0.5459  0.1637
20993SOL    HW180971   6.384  11.727   3.839  0.3756  0.2845  0.7002
20993SOL    HW280972   6.327  11.804   3.956 -0.2766  1.0762 -0.1321
20994SOL     OW80973   1.749   6.922  11.247  0.5374  0.1017 -0.6671
20994SOL    HW180974   1.793   6.995  11.290  0.7886  0.6728 -1.8545
20994SOL    HW280975   1.818   6.858  11.231 -0.0230 -1.4263  2.2998
20995SOL     OW80976  12.814   8.058   4.260 -0.1521  0.5983  0.4472
20995SOL    HW180977  12.908   8.045   4.267 -0.2538  0.6900  2.7326
20995SOL    HW280978  12.799   8.081   4.168  1.6797 -2.0284 -0.6128
20996SOL     OW80979  13.432   7.311   1.190  0.3167  0.3274  0.5354
20996SOL    HW180980  13.344   7.277   1.202  0.5445 -0.5810 -0.2159
20996SOL    HW280981  13.479   7.239   1.147  1.6033  0.5300  1.5333
20997SOL     OW80982  12.405   4.860  11.954 -0.3311 -0.3783  0.0465
20997SOL    HW180983  12.490   4.821  11.930  0.4152  2.0644 -1.6919
20997SOL    HW280984  12.395   4.840  12.047  2.0653 -0.9378  0.2487
20998SOL     OW80985   3.136  10.700   5.137  0.0677  0.6301 -0.3713
20998SOL    HW180986   3.056  10.649   5.126  0.5861 -0.2554 -0.1113
20998SOL    HW280987   3.206  10.641   5.109  0.5820  1.6223 -1.2434
20999SOL     OW80988   8.006   0.488   8.375  0.0740 -0.1544  0.5064
20999SOL    HW180989   8.076   0.448   8.427 -0.7162  0.4918  2.1453
20999SOL    HW280990   7.947   0.416   8.354  1.9603 -1.0402 -2.3110
21000SOL     OW80991   3.655  12.134   8.867 -0.3933 -0.5270  0.4499
21000SOL    HW180992   3.563  12.153   8.849 -0.0541  1.3852  0.5555
21000SOL    HW280993   3.694  12.120   8.781 -0.9959 -2.7015  0.4600
21001SOL     OW80994   7.553   0.336   6.430 -0.1086  0.1253 -0.0088
21001SOL    HW180995   7.561   0.281   6.508 -0.8212  1.6536  1.1879
21001SOL    HW280996   7.469   0.380   6.439 -0.3955  0.0524 -1.8633
21002SOL     OW80997   6.622   2.854  10.113 -0.0112  0.4741  0.1999
21002SOL    HW180998   6.592   2.766  10.134 -0.5189  0.2408 -1.3800
21002SOL    HW280999   6.641   2.852  10.019  0.1440  1.9945  0.1665
21003SOL     OW81000  13.839  11.953   5.553  0.3528  0.2182  0.1620
21003SOL    HW181001  13.837  11.865   5.516 -0.6536  0.6848 -0.9359
21003SOL    HW281002  13.748  11.974   5.573  0.3402  1.6671 -1.2128
21004SOL     OW81003  11.699   9.753   1.700  0.0831 -0.4735 -0.1233
21004SOL    HW181004  11.762   9.795   1.641  0.9907 -0.3668  0.8928
21004SOL    HW281005  11.639   9.823   1.725  0.7148 -0.1064  0.4029
21005SOL     OW81006   4.205   7.892   7.345  0.0782 -0.5739  0.0430
21005SOL    HW181007   4.230   7.841   7.268 -2.0034  0.0490 -1.1371
21005SOL    HW281008   4.178   7.826   7.409 -1.3213 -1.0637 -0.9841
21006SOL     OW81009  11.713   7.995   5.906 -0.5486  0.3048  0.4266
21006SOL    HW181010  11.705   7.922   5.844  0.9102 -0.1190  0.6825
21006SOL    HW281011  11.644   7.980   5.970 -1.5276  0.2663 -0.6026
21007SOL     OW81012   7.911   9.346  12.043 -0.5307  0.1745  0.4828
21007SOL    HW181013   7.948   9.378  11.961 -1.0914 -0.7557 -0.1492
21007SOL    HW281014   7.975   9.371  12.109  1.3663 -1.5473 -0.5841
21008SOL     OW81015   1.427  11.634   3.399 -0.2935  0.3135  0.2780
21008SOL    HW181016   1.375  11.683   3.335 -0.3976  2.0329  1.6262
21008SOL    HW281017   1.392  11.545   3.394 -1.4960  0.8014 -0.7859
21009SOL     OW81018  11.266   3.143   5.264 -0.4508  0.5424 -0.1931
21009SOL    HW181019  11.323   3.100   5.200 -0.3727  1.9392 -1.1224
21009SOL    HW281020  11.310   3.131   5.348  0.3363  0.1574 -0.6516
21010SOL     OW81021   2.641   5.634  11.130 -0.8377  0.2635  0.2019
21010SOL    HW181022   2.696   5.614  11.206  1.1714  1.3650 -0.8764
21010SOL    HW281023   2.618   5.548  11.095 -0.3562 -0.2442  1.0854
21011SOL     OW81024  13.895  12.551  13.579  0.0468 -0.1051 -0.2538
21011SOL    HW181025  13.868  12.522  13.492  3.3314 -0.3860 -1.2974
21011SOL    HW281026  13.824  12.522  13.637 -1.7649 -0.7738 -2.6626
21012SOL     OW81027   8.303   3.663   8.743 -0.3400 -0.0384 -0.1503
21012SOL    HW181028   8.311   3.572   8.774  0.9986  0.6192  1.6046
21012SOL    HW281029   8.209   3.680   8.743 -0.6334 -1.4760 -0.7196
21013SOL     OW81030   7.590  12.331   9.098  0.2980  0.5075  0.4557
21013SOL    HW181031   7.593  12.291   9.011 -0.7358 -0.6048  0.9076
21013SOL    HW281032   7.498  12.355   9.110  0.5608  1.3120  0.9689
21014SOL     OW81033  13.662   4.483   8.566 -0.1007  0.4478 -0.8423
21014SOL    HW181034  13.709   4.541   8.507  0.7890  0.9355  0.3190
21014SOL    HW281035  13.705   4.494   8.651 -2.0935  0.6727  0.1947
21015SOL     OW81036  11.847   6.169   2.299 -0.4678  0.5547 -0.1608
21015SOL    HW181037  11.863   6.146   2.391  3.2324  1.6811 -0.3883
21015SOL    HW281038  11.886   6.097   2.249 -0.2912  1.1241 -0.8515
21016SOL     OW81039   6.479   0.095   3.048 -0.5111 -0.2606 -0.3379
21016SOL    HW181040   6.544   0.028   3.027 -0.2227 -0.5609  1.3452
21016SOL    HW281041   6.441   0.119   2.964  1.3292 -0.5382 -1.3093
21017SOL     OW81042   7.296   5.405  13.785 -0.2927 -0.6800  0.7183
21017SOL    HW181043   7.258   5.394  13.872  0.1106 -2.4237  0.7166
21017SOL    HW281044   7.390   5.389  13.798 -0.2207 -0.8940 -0.0184
21018SOL     OW81045  12.945   7.266   2.946  0.3504  0.0892  0.2845
21018SOL    HW181046  12.904   7.185   2.977 -0.3648 -0.5500 -2.1132
21018SOL    HW281047  13.036   7.259   2.975  1.1111 -3.0650 -2.2309
21019SOL     OW81048  12.705  11.253   3.971  0.2383  0.5871 -0.2269
21019SOL    HW181049  12.702  11.344   3.942  2.7818  0.4652 -1.2008
21019SOL    HW281050  12.690  11.202   3.891 -2.1098  0.0612  0.4685
21020SOL     OW81051   3.518  12.108   6.946 -0.5837  0.6038  0.0366
21020SOL    HW181052   3.495  12.201   6.941  0.0114  0.8770  1.6204
21020SOL    HW281053   3.613  12.106   6.936 -0.5597  0.2048  0.2965
21021SOL     OW81054   9.864  12.738  13.921  0.2938  0.1975  0.9879
21021SOL    HW181055   9.926  12.758  13.850  1.2353 -1.4673  1.2796
21021SOL    HW281056   9.919  12.729  13.999 -0.6557  1.3155  1.8043
21022SOL     OW81057  11.170  13.661   5.778  0.4805 -0.2954 -0.1395
21022SOL    HW181058  11.184  13.751   5.749  1.2867 -0.4421 -0.2146
21022SOL    HW281059  11.077  13.658   5.802 -0.0208  0.0471 -1.9081
21023SOL     OW81060   2.553   2.907  13.790 -0.2142 -0.3916 -0.8836
21023SOL    HW181061   2.576   2.914  13.883 -0.7936 -1.7307 -0.6162
21023SOL    HW281062   2.632   2.933  13.744 -0.7185  3.0340 -0.1006
21024SOL     OW81063  11.192  12.483  12.875 -0.4133 -0.1556 -0.2422
21024SOL    HW181064  11.156  12.566  12.846 -2.2724 -0.4455  1.0625
21024SOL    HW281065  11.122  12.419  12.858  0.5254 -1.2555 -0.1222
21025SOL     OW81066   0.675  13.748  11.831  0.4369 -0.4559 -0.3050
21025SOL    HW181067   0.619  13.810  11.878  0.2601  0.6054 -1.8267
21025SOL    HW281068   0.614  13.690  11.786  0.5170  0.5129 -1.7213
21026SOL     OW81069   5.941   2.358  10.279  0.2575 -0.9143  0.5319
21026SOL    HW181070   6.027   2.336  10.244  1.3393  1.7711  1.2941
21026SOL    HW281071   5.880   2.307  10.226  2.2062 -1.8684 -0.9208
21027SOL     OW81072   3.764   7.743  13.580  0.2279 -0.1379 -0.1845
21027SOL    HW181073   3.833   7.777  13.636  0.4178 -0.5222 -0.1844
21027SOL    HW281074   3.757   7.650  13.603 -0.2136 -0.1257 -0.2588
21028SOL     OW81075  11.931   0.579   4.662 -0.0594 -0.4869  0.3189
21028SOL    HW181076  12.001   0.533   4.707 -0.3938 -2.7000 -1.2841
21028SOL    HW281077  11.971   0.661   4.634  1.2805 -0.8304  1.1260
21029SOL     OW81078  13.959   0.210  10.238 -0.0444  0.5134 -0.2867
21029SOL    HW181079  14.029   0.163  10.193  0.0073 -1.0896  1.3479
21029SOL    HW281080  13.900   0.141  10.269 -0.6541  1.6106  1.1030
21030SOL     OW81081   5.282  13.727   9.787  0.2946 -0.4697 -0.0574
21030SOL    HW181082   5.298  13.761   9.875 -2.1255  1.3299 -0.2135
21030SOL    HW281083   5.205  13.670   9.797  0.0695 -0.3424 -0.9873
21031SOL     OW81084   2.145   6.941  11.550  0.6151  0.5655 -0.6556
21031SOL    HW181085   2.118   6.954  11.459  1.0764  0.8260 -0.7634
21031SOL    HW281086   2.128   7.026  11.592 -1.6869 -0.1971  0.0710
21032SOL     OW81087  10.157   4.238   1.451 -0.0195  0.2954  0.2992
21032SOL    HW181088  10.088   4.171   1.456  0.8255 -0.5540  1.4298
21032SOL    HW281089  10.128   4.306   1.511 -0.9325  1.0270 -0.9308
21033SOL     OW81090   4.366   4.625   0.213 -0.4002 -0.7696  0.3391
21033SOL    HW181091   4.285   4.635   0.164 -0.2010  1.2996  0.3666
21033SOL    HW281092   4.353   4.677   0.292  0.7486 -0.8831  0.6222
21034SOL     OW81093   3.569   1.762  13.360  0.4134  0.1082 -0.3902
21034SOL    HW181094   3.662   1.780  13.377  0.2659  1.7583 -1.0905
21034SOL    HW281095   3.535   1.845  13.325 -1.4942 -0.2616  0.4860
21035SOL     OW81096   1.081  12.641   3.140  0.4210 -0.4273 -0.3621
21035SOL    HW181097   1.045  12.671   3.223  1.6738 -2.1509  0.8580
21035SOL    HW281098   1.135  12.714   3.109  3.0928 -1.0722  2.3310
21036SOL     OW81099   4.546   2.237   4.165  0.0497 -0.4728 -0.4093
21036SOL    HW181100   4.456   2.240   4.132  0.1092 -0.8955 -0.6131
21036SOL    HW281101   4.537   2.243   4.260 -0.1617  0.0407 -0.4612
21037SOL     OW81102  11.244  11.248   0.794  0.7911  0.2089 -0.3613
21037SOL    HW181103  11.296  11.329   0.790 -1.2776  1.5698 -2.4180
21037SOL    HW281104  11.214  11.243   0.885  1.1654  1.6487 -0.1357
21038SOL     OW81105  13.013   6.929   7.654 -0.1629 -0.1293 -0.0645
21038SOL    HW181106  13.080   6.861   7.645 -0.7872 -0.7003 -0.4725
21038SOL    HW281107  13.062   7.011   7.649  0.5398 -0.5384 -0.0666
21039SOL     OW81108  12.415  10.803   9.325  0.1849  0.0686 -0.6511
21039SOL    HW181109  12.441  10.883   9.371  1.0624 -0.7693  0.3595
21039SOL    HW281110  12.478  10.737   9.354 -1.0648 -1.2149 -0.7682
21040SOL     OW81111   7.493   5.213   7.483  0.4402 -0.0429 -0.1247
21040SOL    HW181112   7.440   5.141   7.450  2.0209 -1.8368  0.9913
21040SOL    HW281113   7.461   5.227   7.572 -0.0195  0.8055 -0.4204
21041SOL     OW81114   5.990   7.291   5.687  0.4409 -0.2658 -0.2889
21041SOL    HW181115   6.032   7.219   5.640  0.7644  0.1171 -0.5916
21041SOL    HW281116   5.900   7.292   5.654  0.4610 -0.4764 -0.3480
21042SOL     OW81117   5.297   0.140   4.052  0.0545 -0.2322 -1.0580
21042SOL    HW181118   5.284   0.142   3.957 -1.1784  1.1293 -0.8929
21042SOL    HW281119   5.231   0.078   4.084  1.8097 -2.3243 -1.2068
21043SOL     OW81120  12.619   7.246  10.125 -0.0539 -0.1016 -0.5171
21043SOL    HW181121  12.703   7.267  10.085 -0.4821  1.4583 -0.6588
21043SOL    HW281122  12.624   7.152  10.143  1.8345  0.0238 -0.2142
21044SOL     OW81123  10.400   0.968   0.667  0.1015  0.0811 -0.0105
21044SOL    HW181124  10.379   0.967   0.574 -1.1018 -1.8303  0.2196
21044SOL    HW281125  10.316   0.983   0.711  0.5952  0.6040  0.7882
21045SOL     OW81126  13.143  11.264   6.065 -0.4271  0.0356 -0.0297
21045SOL    HW181127  13.162  11.295   5.977 -1.1260 -3.5996 -1.6413
21045SOL    HW281128  13.048  11.252   6.067 -0.3748 -0.3581  1.0776
21046SOL     OW81129  12.912   6.315   1.556 -0.2047 -0.2304  0.2078
21046SOL    HW181130  12.895   6.308   1.650  1.2501 -1.7390  0.4039
21046SOL    HW281131  12.895   6.227   1.522 -0.1616  0.1539 -0.8510
21047SOL     OW81132   4.261   4.550   3.190 -0.3986  0.6709  0.0545
21047SOL    HW181133   4.274   4.635   3.148 -0.8776  1.4720  1.4460
21047SOL    HW281134   4.167   4.534   3.184 -0.0190 -1.2021 -2.7486
21048SOL     OW81135  11.662   9.973  13.359 -0.6052 -1.0247 -0.1562
21048SOL    HW181136  11.689   9.965  13.451  1.0705  1.0960 -0.3727
21048SOL    HW281137  11.657   9.883  13.328  0.0373 -1.7528  1.6840
21049SOL     OW81138   0.203   7.208  12.564  0.0239  0.2186 -0.8799
21049SOL    HW181139   0.171   7.281  12.618 -0.2653  0.6995 -1.6811
21049SOL    HW281140   0.277   7.245  12.516 -0.9338  0.3919 -2.2696
21050SOL     OW81141   8.478   5.651  11.394  0.5466  0.5762 -0.4635
21050SOL    HW181142   8.450   5.660  11.485  0.7976 -1.1542 -0.1793
21050SOL    HW281143   8.421   5.711  11.346  0.5004  1.6261  0.8381
21051SOL     OW81144   9.754   0.437  12.316  0.9830  0.2594 -0.3780
21051SOL    HW181145   9.675   0.428  12.264  0.7907 -0.1834 -0.0064
21051SOL    HW281146   9.727   0.419  12.406  1.4018  0.5923 -0.1786
21052SOL     OW81147  12.518   0.950   3.427  0.1100  0.4481  0.1646
21052SOL    HW181148  12.507   0.961   3.332  1.2985  0.1455 -0.0247
21052SOL    HW281149  12.455   0.882   3.450 -0.7467  1.0795 -0.2624
21053SOL     OW81150   2.519  11.656  13.098 -0.5857 -0.1089 -0.0360
21053SOL    HW181151   2.600  11.657  13.149  0.2984  1.3154 -1.3855
21053SOL    HW281152   2.515  11.568  13.060 -0.4717 -0.6766  1.1933
21054SOL     OW81153   3.025   8.026   1.420 -0.0302 -0.3320  0.0753
21054SOL    HW181154   2.950   8.042   1.363  0.6376  0.3358 -0.6419
21054SOL    HW281155   3.022   8.098   1.484 -0.2791 -0.5814  0.3432
21055SOL     OW81156   6.207   8.152  10.269  0.3277  0.0044 -0.0775
21055SOL    HW181157   6.273   8.199  10.219 -0.8997  0.1278 -1.6759
21055SOL    HW281158   6.213   8.188  10.358  2.0545  0.3229 -0.2894
21056SOL     OW81159   2.213   7.805   1.772  0.4434 -0.1605 -0.4511
21056SOL    HW181160   2.295   7.782   1.729  0.9999  1.1446 -0.1648
21056SOL    HW281161   2.234   7.884   1.823 -1.0927  0.4738 -0.7326
21057SOL     OW81162  10.212   0.977  10.966  0.9202 -0.8525  0.4524
21057SOL    HW181163  10.119   0.999  10.959  0.5835 -2.6202 -2.1445
21057SOL    HW281164  10.257   1.050  10.924  0.6322 -0.5509  0.6562
21058SOL     OW81165   3.646   5.418   1.848  0.2100 -0.1365 -0.7298
21058SOL    HW181166   3.687   5.444   1.766  0.6282 -0.1749 -0.5402
21058SOL    HW281167   3.557   5.393   1.824 -1.0904  3.7408 -0.5837
21059SOL     OW81168   3.501   6.858  10.221 -0.4322 -0.4617 -0.1451
21059SOL    HW181169   3.438   6.788  10.206  0.3688 -1.2779  0.1638
21059SOL    HW281170   3.581   6.812  10.249 -0.4465  0.6795  1.9541
21060SOL     OW81171   8.894   6.317   6.220 -0.5120  0.4757  0.4779
21060SOL    HW181172   8.940   6.321   6.303  2.9251  1.4457 -1.2976
21060SOL    HW281173   8.871   6.408   6.200  1.7623  0.7855 -1.0927
21061SOL     OW81174   0.532   8.978   3.918 -0.2878  0.2582 -0.6833
21061SOL    HW181175   0.569   9.067   3.914 -1.4216  0.7089 -1.9995
21061SOL    HW281176   0.534   8.947   3.828 -1.0585 -0.5754 -0.4299
21062SOL     OW81177   1.040   9.981   2.086 -0.0600  0.2890 -0.3171
21062SOL    HW181178   1.019   9.966   1.994 -1.3620  0.7167 -0.1196
21062SOL    HW281179   1.043  10.076   2.095  1.3582  0.2482 -0.1691
21063SOL     OW81180   5.152  13.060   1.306  0.3549  0.2161 -0.1572
21063SOL    HW181181   5.207  13.117   1.360  0.4137 -0.6940  0.7648
21063SOL    HW281182   5.212  12.993   1.274 -0.5995 -2.6363  3.3519
21064SOL     OW81183  10.473   6.244   9.214 -0.2989  0.5199  0.5236
21064SOL    HW181184  10.518   6.242   9.129  1.7687 -0.7126  1.5861
21064SOL    HW281185  10.391   6.197   9.199  0.6305 -0.8310 -0.5023
21065SOL     OW81186   7.738  10.727   3.014 -0.3520 -0.8532 -0.3688
21065SOL    HW181187   7.647  10.701   3.033 -0.8572  1.4512  0.7886
21065SOL    HW281188   7.772  10.755   3.099  1.4095 -1.4909 -0.8352
21066SOL     OW81189  13.558   3.196  14.059  0.4991 -0.3871  0.4519
21066SOL    HW181190  13.582   3.105  14.074 -0.4502 -0.4865  1.4913
21066SOL    HW281191  13.481   3.211  14.114  0.6965  1.0787  0.3931
21067SOL     OW81192   8.653   6.446   4.184 -0.1830 -0.5824 -0.3374
21067SOL    HW181193   8.739   6.403   4.180 -0.4309 -1.0785 -0.3786
21067SOL    HW281194   8.657   6.499   4.263 -0.1376 -1.2646  0.1324
21068SOL     OW81195   4.243  13.123   4.918  0.1342 -0.4404  0.1943
21068SOL    HW181196   4.290  13.049   4.959 -1.2259 -1.7962 -0.5882
21068SOL    HW281197   4.213  13.088   4.835 -0.2833  1.1345 -0.3440
21069SOL     OW81198  11.196  12.752   4.359  0.1752  0.8194 -0.0209
21069SOL    HW181199  11.163  12.716   4.277 -0.3701  1.0832  0.0693
21069SOL    HW281200  11.226  12.840   4.336  0.5149  0.6980 -0.0394
21070SOL     OW81201  13.303   7.061   1.155  0.5542 -0.6866 -0.6794
21070SOL    HW181202  13.257   7.019   1.227 -0.2960 -0.9716 -1.3630
21070SOL    HW281203  13.339   6.989   1.104  1.3458 -0.4788 -0.4250
21071SOL     OW81204  13.588   5.938   6.985  0.3985  0.2869 -0.4701
21071SOL    HW181205  13.500   5.962   7.015 -0.1549 -0.1897 -1.6688
21071SOL    HW281206  13.629   5.898   7.061  0.4294  2.5827  0.8227
21072SOL     OW81207   3.726   4.092   5.610 -0.3214 -0.0987 -0.5465
21072SOL    HW181208   3.813   4.077   5.646 -0.6337  1.1439  0.8291
21072SOL    HW281209   3.668   4.036   5.661 -0.5176  0.2108 -0.4234
21073SOL     OW81210   9.419  11.423   7.718 -0.6095  0.5472 -0.2998
21073SOL    HW181211   9.338  11.475   7.717 -0.5681  0.6032 -1.0688
21073SOL    HW281212   9.486  11.483   7.748 -0.9961  0.2690  1.2180
21074SOL     OW81213  10.568   2.029   4.659 -0.3763  0.7734 -0.0568
21074SOL    HW181214  10.646   1.983   4.631 -0.0716  0.9719  0.4512
21074SOL    HW281215  10.507   1.960   4.686 -0.7010  0.5789 -1.2521
21075SOL     OW81216  11.691  10.009   0.006  0.1740 -0.3133  0.3036
21075SOL    HW181217  11.727  10.096   0.021  1.4466 -0.8699  0.6446
21075SOL    HW281218  11.759   9.964  -0.046 -0.9168 -0.7663 -0.7718
21076SOL     OW81219   1.957   8.617  10.427 -0.3045  0.5884 -0.1222
21076SOL    HW181220   2.047   8.614  10.460  0.4073  2.7209 -1.6397
21076SOL    HW281221   1.946   8.533  10.382  0.7205  0.0672  0.5412
21077SOL     OW81222   6.109   0.658  13.151 -0.3061 -0.1229 -0.3650
21077SOL    HW181223   6.154   0.614  13.079  1.0551  1.5813 -0.6302
21077SOL    HW281224   6.160   0.738  13.166 -0.6705 -0.3087  2.3661
21078SOL     OW81225  12.678  10.055   5.297  0.8872  0.3568  0.1222
21078SOL    HW181226  12.691  10.104   5.378  2.0655 -0.9359  0.7538
21078SOL    HW281227  12.720  10.108   5.229  1.6495  0.5021  0.6985
21079SOL     OW81228  13.225  14.077  12.400  0.1852 -0.1853 -0.1661
21079SOL    HW181229  13.240  13.984  12.418  0.2481  0.1781  1.9544
21079SOL    HW281230  13.170  14.078  12.322 -0.4600 -2.0228  0.2199
21080SOL     OW81231   9.068   5.298   3.518 -0.3911  0.0106  0.0485
21080SOL    HW181232   8.997   5.351   3.555  0.9704  3.5252 -1.9140
21080SOL    HW281233   9.144   5.317   3.573 -0.0908 -0.7854 -0.0751
21081SOL     OW81234  11.847   4.536  12.254 -0.5372  0.3941 -0.0622
21081SOL    HW181235  11.794   4.531  12.174  0.6427 -0.0089 -0.8427
21081SOL    HW281236  11.908   4.463  12.247 -0.5746  0.2039  1.3400
21082SOL     OW81237   9.687  11.514   3.879  0.1620 -0.1921  0.0996
21082SOL    HW181238   9.721  11.536   3.793  0.0994 -0.3927  0.0239
21082SOL    HW281239   9.592  11.519   3.869  0.1273  2.8785  0.9334
21083SOL     OW81240   6.587   6.113   9.442 -0.4636  0.1225 -0.5711
21083SOL    HW181241   6.565   6.099   9.350 -2.1742  0.1949 -0.1914
21083SOL    HW281242   6.508   6.150   9.481  0.4784  0.7945  0.7790
21084SOL     OW81243   4.004   6.735   4.125 -0.2319 -0.5301 -0.4917
21084SOL    HW181244   4.009   6.811   4.183  1.2007  0.8290 -2.2611
21084SOL    HW281245   4.055   6.668   4.170  0.3939  0.3089  0.0832
21085SOL     OW81246   7.470   9.173   5.684 -0.0844  0.3114 -0.7528
21085SOL    HW181247   7.437   9.260   5.664  0.4409  0.3309 -1.5631
21085SOL    HW281248   7.439   9.156   5.773 -0.7727  1.0369 -0.8407
21086SOL     OW81249   8.948  12.634   9.181 -0.5699 -0.4244 -0.2362
21086SOL    HW181250   8.982  12.559   9.132  0.5466 -0.0161 -0.1064
21086SOL    HW281251   8.963  12.709   9.124 -0.8962 -0.1856 -0.0096
21087SOL     OW81252  13.238  12.304  10.682 -0.2505 -0.0683  0.2598
21087SOL    HW181253  13.283  12.343  10.607 -1.8171  0.4770 -0.4538
21087SOL    HW281254  13.275  12.349  10.758  0.2904  0.4801 -0.3111
21088SOL     OW81255  10.077  12.837  12.003 -0.8543 -0.4794  0.0625
21088SOL    HW181256  10.152  12.890  11.975 -1.7444  0.5286 -0.4806
21088SOL    HW281257  10.110  12.747  12.005  0.3737 -0.0449 -0.1273
21089SOL     OW81258   5.638   7.572   0.941  0.6788 -0.0054  0.2970
21089SOL    HW181259   5.701   7.591   0.871  0.2639  0.8745  0.1456
21089SOL    HW281260   5.589   7.496   0.910 -0.0062  0.8177 -0.7285
21090SOL     OW81261   2.023  13.124   6.645 -0.2054 -0.1015  0.2652
21090SOL    HW181262   2.026  13.059   6.715 -1.0186 -0.1923  0.2310
21090SOL    HW281263   2.110  13.121   6.606 -0.9017 -3.0257 -1.3911
21091SOL     OW81264   5.279   9.930  13.116 -0.0901 -0.4770 -0.3953
21091SOL    HW181265   5.247  10.001  13.172 -0.7862 -0.5694 -0.6611
21091SOL    HW281266   5.336   9.973  13.052 -1.0230 -0.0460 -0.9628
21092SOL     OW81267   5.179  11.007  10.435  0.0855 -0.0885 -0.2805
21092SOL    HW181268   5.231  10.927  10.437  0.1127 -0.1075 -1.2924
21092SOL    HW281269   5.167  11.030  10.527  0.2222 -1.1546  0.0199
21093SOL     OW81270   5.992   9.425   9.816 -0.1155  0.3711  0.3592
21093SOL    HW181271   5.943   9.349   9.783 -1.3026  1.3778 -0.2712
21093SOL    HW281272   5.985   9.419   9.911  0.9303 -1.0099  0.3811
21094SOL     OW81273   0.921   8.928  11.996 -0.3327  0.2042 -0.1342
21094SOL    HW181274   0.880   8.932  12.082  0.9996  0.7758  0.5030
21094SOL    HW281275   0.899   9.012  11.955 -0.6253  0.1032 -0.1809
21095SOL     OW81276   7.210   8.369   4.718  0.5476 -0.3357 -0.7361
21095SOL    HW181277   7.241   8.343   4.631  1.9840  0.6363 -0.5499
21095SOL    HW281278   7.287   8.360   4.775 -0.2081 -0.3668  0.3125
21096SOL     OW81279   2.372  11.941   8.907  0.2259  0.0713  0.1094
21096SOL    HW181280   2.435  11.870   8.907 -0.5549 -0.6515 -0.6745
21096SOL    HW281281   2.367  11.969   8.815 -1.3553 -0.6084 -0.0375
21097SOL     OW81282   9.007  11.158   9.150 -0.5210  0.7936 -0.2032
21097SOL    HW181283   8.912  11.168   9.147 -0.4793  1.9281  1.2896
21097SOL    HW281284   9.021  11.073   9.192 -0.9394  2.2034  3.0524
21098SOL     OW81285   0.430   9.124   8.536  0.2159 -0.5619  0.1100
21098SOL    HW181286   0.475   9.116   8.452 -1.9339  0.2780 -1.2175
21098SOL    HW281287   0.355   9.064   8.528 -1.0240  0.8646  0.6740
21099SOL     OW81288   4.985   8.999   9.431 -0.2858  0.0403  0.2165
21099SOL    HW181289   5.072   9.039   9.433 -0.5229  0.5348  1.7599
21099SOL    HW281290   4.961   8.988   9.523 -0.7875 -2.4847 -0.1413
21100SOL     OW81291   3.193  13.858   6.009 -0.1948 -0.3908  0.3730
21100SOL    HW181292   3.169  13.871   6.100  1.1342  1.6689  0.4985
21100SOL    HW281293   3.228  13.942   5.981  0.3986 -1.2673 -1.7487
21101SOL     OW81294  12.384  12.362  13.410 -0.2550 -0.1475  0.1859
21101SOL    HW181295  12.468  12.326  13.383 -0.0767  1.1848 -1.1139
21101SOL    HW281296  12.406  12.424  13.480 -0.1300  0.3801 -0.3212
21102SOL     OW81297   5.399  12.686  10.409 -0.3984  0.2689  0.5947
21102SOL    HW181298   5.491  12.675  10.433  0.5245  1.1286 -2.0846
21102SOL    HW281299   5.392  12.645  10.322 -3.1439 -1.7713  1.6258
21103SOL     OW81300   9.798   0.150  13.463 -0.7369  0.7305  0.4316
21103SOL    HW181301   9.822   0.060  13.487  0.8260  1.1795  0.6260
21103SOL    HW281302   9.782   0.146  13.369  1.6475  0.6666 -0.0349
21104SOL     OW81303   4.658   5.219   3.417  0.1735  0.5334 -0.0954
21104SOL    HW181304   4.591   5.271   3.462 -0.0806 -0.9875  1.3808
21104SOL    HW281305   4.609   5.154   3.368  0.5062 -0.6193  1.0294
21105SOL     OW81306   2.543  10.593   4.368 -0.2594  0.1158 -0.0333
21105SOL    HW181307   2.510  10.561   4.452  1.8068  0.7223  1.0722
21105SOL    HW281308   2.576  10.515   4.324 -2.0364 -0.3254 -0.6765
21106SOL     OW81309   1.873   3.791   5.622 -0.3641 -0.1375  0.0120
21106SOL    HW181310   1.783   3.778   5.592  0.3714  0.9051 -2.9200
21106SOL    HW281311   1.880   3.885   5.639  0.4534 -0.0305 -0.8573
21107SOL     OW81312   9.380   7.355  10.981 -0.6792  0.5602 -1.2450
21107SOL    HW181313   9.378   7.400  10.896  1.2770  4.3173  0.4623
21107SOL    HW281314   9.287   7.342  11.003 -1.2445  0.7893 -3.3060
21108SOL     OW81315   4.277  10.576  11.195  0.1743 -0.5091 -0.4192
21108SOL    HW181316   4.220  10.514  11.149 -0.1028  0.2418 -1.1143
21108SOL    HW281317   4.217  10.624  11.253  0.5729 -1.7075  1.0718
21109SOL     OW81318  12.954   5.925  12.553  0.0632 -0.2598 -0.0642
21109SOL    HW181319  12.895   6.000  12.539 -0.5657 -0.3003  2.0722
21109SOL    HW281320  12.909   5.851  12.512  0.7732  0.4839 -2.3664
21110SOL     OW81321  13.685  13.842   2.089 -0.9188  0.2809  0.0446
21110SOL    HW181322  13.670  13.933   2.114 -1.3018  0.1923  0.1425
21110SOL    HW281323  13.774  13.823   2.119 -0.8510  0.6122  0.0524
21111SOL     OW81324   7.965   1.657  10.363 -0.5521  0.3195 -0.6933
21111SOL    HW181325   7.974   1.751  10.381 -2.0638  0.5184 -0.8502
21111SOL    HW281326   8.049   1.632  10.326 -0.1617  1.6508 -0.7736
21112SOL     OW81327   4.880   6.999  10.830 -0.2156  0.0345  0.5776
21112SOL    HW181328   4.854   6.989  10.922  0.0527  0.3778  0.6906
21112SOL    HW281329   4.960   6.947  10.822  0.6790  1.3325  0.9445
21113SOL     OW81330  12.232   7.945   0.050  0.3804 -0.1567 -0.5197
21113SOL    HW181331  12.307   7.900   0.088  2.6168  2.7158 -1.1534
21113SOL    HW281332  12.218   7.901  -0.034  0.5176 -1.5036  0.1277
21114SOL     OW81333   0.958   4.829   2.845  0.9237 -0.2679 -0.2232
21114SOL    HW181334   0.923   4.776   2.774 -0.5219  0.8058 -0.3712
21114SOL    HW281335   1.009   4.898   2.800 -1.3502  1.4079 -0.4270
21115SOL     OW81336  11.186   9.381  12.454  0.4629  0.0106  0.0840
21115SOL    HW181337  11.257   9.435  12.488  1.3091 -1.2551  0.4175
21115SOL    HW281338  11.183   9.401  12.360  1.4089 -0.0604  0.0263
21116SOL     OW81339   5.170   7.763   1.597 -0.0320 -0.8512 -0.0911
21116SOL    HW181340   5.174   7.824   1.671 -0.4254 -2.4985  1.3704
21116SOL    HW281341   5.156   7.818   1.520 -2.1787  0.7823  1.3626
21117SOL     OW81342  11.115  10.274   5.731  0.0012 -0.0725  0.4627
21117SOL    HW181343  11.173  10.210   5.690  0.3273  0.5083 -0.0020
21117SOL    HW281344  11.078  10.324   5.658  0.0595  0.5264  0.8333
21118SOL     OW81345   9.523  10.233  13.714 -0.6911 -1.0036  0.4815
21118SOL    HW181346   9.462  10.238  13.787 -0.5172 -0.2109  0.5870
21118SOL    HW281347   9.558  10.322  13.705 -0.1123 -1.2684 -0.0528
21119SOL     OW81348   1.974  11.227   1.768 -0.3531 -0.1190  0.0152
21119SOL    HW181349   1.964  11.138   1.804 -0.3835  0.3013  1.0914
21119SOL    HW281350   2.033  11.216   1.693 -1.6471 -1.2765 -0.8798
21120SOL     OW81351  13.172  11.447   0.548 -0.3800 -0.1888 -0.0069
21120SOL    HW181352  13.174  11.527   0.496  0.0824 -1.2993 -1.7536
21120SOL    HW281353  13.239  11.391   0.509 -2.5405 -2.5068 -0.6343
21121SOL     OW81354   0.886  10.040   1.163 -0.2009  0.2715 -0.2188
21121SOL    HW181355   0.831  10.077   1.233 -1.2028 -0.3679 -0.6381
21121SOL    HW281356   0.895  10.111   1.099 -0.7540  0.3116 -0.2585
21122SOL     OW81357   4.165   9.399  10.571 -0.1456  0.0200 -0.3178
21122SOL    HW181358   4.172   9.478  10.516  1.4529 -0.0050 -0.1934
21122SOL    HW281359   4.116   9.428  10.648  2.0265  1.4480  0.6210
21123SOL     OW81360   4.688  12.780   2.286 -0.8689 -1.0674  0.3173
21123SOL    HW181361   4.739  12.750   2.211  0.3370  0.3812  0.5101
21123SOL    HW281362   4.616  12.718   2.293 -0.5133 -1.7282 -1.5038
21124SOL     OW81363  14.070  12.905   7.250  0.1122 -0.3525  0.3787
21124SOL    HW181364  14.080  12.810   7.238 -1.3877 -0.4300 -0.5286
21124SOL    HW281365  14.051  12.915   7.343  1.0511 -0.8632  0.6358
21125SOL     OW81366   1.503   8.484  13.950  0.4362  0.3971 -0.1554
21125SOL    HW181367   1.486   8.460  13.858 -1.8087  2.3067 -0.3345
21125SOL    HW281368   1.570   8.551  13.944  0.9155 -0.0845 -0.3066
21126SOL     OW81369   0.646   9.351   0.074  0.4904  0.0238 -0.2150
21126SOL    HW181370   0.700   9.274   0.093  1.7644  1.0202  0.3601
21126SOL    HW281371   0.639   9.396   0.159 -0.5837  0.3356 -0.4576
21127SOL     OW81372   4.299   6.941  11.911  0.5880 -0.0370  0.2000
21127SOL    HW181373   4.328   6.983  11.992 -3.5676  0.2949  1.7949
21127SOL    HW281374   4.258   6.859  11.940 -0.3055 -0.2933 -1.6391
21128SOL     OW81375   6.139   4.972   3.924 -0.1131 -0.6378  0.9569
21128SOL    HW181376   6.074   4.956   3.856  1.1358 -0.6187 -0.2902
21128SOL    HW281377   6.090   5.013   3.996 -1.7149 -1.9575  0.6621
21129SOL     OW81378   8.048   9.231  12.324  1.0030 -0.3175 -0.1140
21129SOL    HW181379   7.999   9.277  12.392  1.0826  1.1521 -1.0222
21129SOL    HW281380   8.082   9.300  12.267  0.0377 -1.5368 -2.2817
21130SOL     OW81381   0.918   9.802   2.532 -0.2328 -0.0991  0.4276
21130SOL    HW181382   0.915   9.860   2.455 -1.2684 -0.0830  0.4614
21130SOL    HW281383   0.986   9.738   2.511  1.6924  1.6854  0.8156
21131SOL     OW81384   9.127   0.952   7.437 -0.0035 -0.3877  0.5857
21131SOL    HW181385   9.123   1.027   7.378  1.6266 -0.0591  0.8572
21131SOL    HW281386   9.090   0.879   7.386 -0.8416  0.3963  0.0354
21132SOL     OW81387  12.775   7.100   6.119 -0.1242  0.4431  0.2057
21132SOL    HW181388  12.829   7.178   6.102  0.1294  0.0411 -0.9488
21132SOL    HW281389  12.735   7.081   6.034  0.0273 -0.8322  0.4061
21133SOL     OW81390  12.311   6.902  13.263 -0.2078  0.6518  0.1885
21133SOL    HW181391  12.368   6.974  13.289  2.0562 -0.3037 -1.7424
21133SOL    HW281392  12.249   6.941  13.201  0.8503  1.0354 -0.6690
21134SOL     OW81393   8.941  11.367   6.438  0.2022  0.2557 -0.0261
21134SOL    HW181394   9.024  11.377   6.392  1.4815 -0.0197  2.1434
21134SOL    HW281395   8.941  11.437   6.504 -0.0914 -1.2936  1.6792
21135SOL     OW81396  12.126   5.858  13.631 -0.4416 -0.4596 -0.0073
21135SOL    HW181397  12.082   5.899  13.705  0.3415 -0.9410  0.7376
21135SOL    HW281398  12.096   5.767  13.632  0.1987 -0.6716  0.2181
21136SOL     OW81399   5.369  14.048   6.733  0.5331  0.1908 -0.1895
21136SOL    HW181400   5.370  14.069   6.640  0.6668  0.8203 -0.0464
21136SOL    HW281401   5.330  13.960   6.737  0.5310  0.1572 -0.8336
21137SOL     OW81402   2.666   2.393   0.133 -0.2984 -0.1512  0.1613
21137SOL    HW181403   2.734   2.408   0.068 -1.2132 -1.5915 -1.1958
21137SOL    HW281404   2.713   2.392   0.217  1.5681 -2.2165 -0.8134
21138SOL     OW81405   1.725   0.586   4.277 -0.8988 -0.5057 -0.3699
21138SOL    HW181406   1.693   0.543   4.198 -1.5863  2.2333 -1.7080
21138SOL    HW281407   1.805   0.630   4.250  0.0121 -1.2221  1.0459
21139SOL     OW81408   1.544   2.302   8.493  0.1951 -0.0681 -0.3218
21139SOL    HW181409   1.506   2.369   8.437 -0.2421 -0.5165 -0.5623
21139SOL    HW281410   1.489   2.301   8.571 -1.5678 -2.0744 -1.4695
21140SOL     OW81411   0.337   4.257   3.111 -0.4357 -0.7390  0.4840
21140SOL    HW181412   0.256   4.255   3.163 -0.0810 -2.6323  1.0015
21140SOL    HW281413   0.382   4.175   3.131  1.5482  0.1788  0.0518
21141SOL     OW81414   7.402  10.193   8.552 -0.0582 -0.0790  0.0282
21141SOL    HW181415   7.475  10.228   8.602  0.5703 -0.4674 -0.5873
21141SOL    HW281416   7.443  10.156   8.473 -0.9464 -0.0517 -0.4589
21142SOL     OW81417   4.841  11.056   5.459 -0.1271  0.1047 -0.7840
21142SOL    HW181418   4.803  10.970   5.446  2.1693 -1.1179 -0.0327
21142SOL    HW281419   4.815  11.080   5.549  0.0680 -0.2629 -0.6296
21143SOL     OW81420   2.563   9.090   5.894 -0.5458  0.3659 -0.1664
21143SOL    HW181421   2.614   9.160   5.935 -0.5443 -0.6536  1.7100
21143SOL    HW281422   2.480   9.090   5.942 -0.9522 -0.2352 -0.8491
21144SOL     OW81423   4.570  14.140   4.430 -0.0972  0.1493 -0.0937
21144SOL    HW181424   4.639  14.202   4.454 -0.3705 -0.1557  1.5908
21144SOL    HW281425   4.610  14.085   4.362  0.7497  1.0045 -0.3162
21145SOL     OW81426   5.903   7.621  13.722 -0.1709  0.0698 -0.7216
21145SOL    HW181427   5.989   7.618  13.763 -1.1282 -1.9703  1.4320
21145SOL    HW281428   5.844   7.649  13.792 -1.3813  0.6523 -1.9195
21146SOL     OW81429   8.008   7.537   4.481 -0.5646  0.3267 -0.2282
21146SOL    HW181430   7.954   7.609   4.447 -0.3045 -0.5602 -2.6410
21146SOL    HW281431   8.065   7.579   4.546  0.2702  2.5587 -2.2538
21147SOL     OW81432   5.964   4.532  11.435 -0.2281 -0.1251  0.1550
21147SOL    HW181433   5.923   4.548  11.350  0.1837 -2.4728 -0.5675
21147SOL    HW281434   5.909   4.464  11.476  0.6024 -0.3379  0.9556
21148SOL     OW81435   9.877  11.806  11.417 -0.5794 -0.0749 -0.2381
21148SOL    HW181436   9.910  11.887  11.377  0.5958  0.6344  2.0169
21148SOL    HW281437   9.941  11.739  11.392  0.8542  0.6272  1.4077
21149SOL     OW81438   2.104   2.325   0.072 -0.1583 -0.0095 -0.1942
21149SOL    HW181439   2.039   2.387   0.105 -0.1092  0.2926 -0.6532
21149SOL    HW281440   2.128   2.359  -0.014 -2.2129 -2.1699 -1.7284
21150SOL     OW81441   7.884  10.690   1.940 -0.3434 -0.0308 -0.3096
21150SOL    HW181442   7.894  10.785   1.943 -0.9953  0.0266  0.4120
21150SOL    HW281443   7.936  10.663   1.865  1.8901  0.6476  0.8845
21151SOL     OW81444  11.133   1.881  11.161 -0.3691 -0.0604  0.4872
21151SOL    HW181445  11.072   1.902  11.231 -1.1836 -1.6770  0.2967
21151SOL    HW281446  11.188   1.812  11.197  1.4079  1.3522  0.6548
21152SOL     OW81447   2.526  13.683   4.632  0.1672 -0.4640 -0.1321
21152SOL    HW181448   2.562  13.736   4.560  0.6140 -0.7190 -0.0952
21152SOL    HW281449   2.567  13.718   4.711 -0.2493 -0.2501 -0.0030
21153SOL     OW81450   7.635   2.033   9.136 -0.1297  0.2733 -0.5017
21153SOL    HW181451   7.571   1.971   9.100 -1.2125  0.3735  1.1608
21153SOL    HW281452   7.679   1.984   9.205  0.7108  0.6151 -0.7913
21154SOL     OW81453   2.750   0.322   9.198 -0.3587  0.1379  0.1631
21154SOL    HW181454   2.698   0.248   9.167  1.5313 -2.5549  2.9208
21154SOL    HW281455   2.686   0.379   9.242 -1.3773 -2.0060  1.6305
21155SOL     OW81456  10.111   0.629  12.707  0.2718 -0.4236  0.0611
21155SOL    HW181457  10.033   0.587  12.742 -0.8248  1.3057 -0.2259
21155SOL    HW281458  10.097   0.723  12.721  1.2176  0.1065 -2.1366
21156SOL     OW81459   6.070   8.253  11.309  0.3296 -0.0095  0.3640
21156SOL    HW181460   6.063   8.331  11.254  1.3561 -0.0795  0.1217
21156SOL    HW281461   5.993   8.258  11.366  0.2875  1.0939  0.2406
21157SOL     OW81462   5.396   3.111   4.226 -0.3248 -0.3773 -0.0153
21157SOL    HW181463   5.346   3.097   4.306 -0.0705 -0.8864  0.0575
21157SOL    HW281464   5.461   3.178   4.250 -2.0036  1.5750 -0.5632
21158SOL     OW81465   7.983  11.694   9.564  0.0134 -0.0484  0.7029
21158SOL    HW181466   8.020  11.639   9.495 -0.0771 -1.6169  1.8390
21158SOL    HW281467   7.947  11.770   9.518  0.9047 -0.5219 -0.8404
21159SOL     OW81468   9.047   5.106  12.927  0.2421  0.0176  0.3363
21159SOL    HW181469   9.003   5.057  12.997 -1.0701  1.7913  0.8285
21159SOL    HW281470   9.047   5.046  12.853  0.4472 -1.4199  1.4431
21160SOL     OW81471   5.053   7.891  12.874 -0.2553  0.6112  0.1030
21160SOL    HW181472   5.003   7.946  12.813 -0.7862  0.5048  0.4397
21160SOL    HW281473   4.988   7.835  12.915  0.4208 -1.2529 -1.2031
21161SOL     OW81474  11.151   0.759   0.728  0.8596  0.0237  0.0168
21161SOL    HW181475  11.118   0.826   0.788  0.4589 -1.0026  0.9902
21161SOL    HW281476  11.164   0.805   0.645 -0.2084  1.1125  0.4166
21162SOL     OW81477  13.389   8.119   2.610 -0.4960 -0.4811  0.1820
21162SOL    HW181478  13.305   8.088   2.578 -0.5505 -0.2168  0.0636
21162SOL    HW281479  13.454   8.069   2.560 -0.5686 -1.6282  1.1904
21163SOL     OW81480   6.537   7.443  11.923 -0.0748 -0.1506 -0.6624
21163SOL    HW181481   6.460   7.468  11.871 -1.3539  1.8333  1.9911
21163SOL    HW281482   6.592   7.521  11.924 -1.3292  0.8757  2.9407
21164SOL     OW81483   7.698   9.028   0.325 -0.3576 -0.1603 -0.5948
21164SOL    HW181484   7.640   8.978   0.267  0.2483  1.5209 -2.7744
21164SOL    HW281485   7.710   9.112   0.282 -0.3800  1.5025  2.3559
21165SOL     OW81486  10.528   3.511   7.236 -0.4225 -0.3257  0.3805
21165SOL    HW181487  10.587   3.437   7.219 -0.4066 -0.2526  0.1093
21165SOL    HW281488  10.586   3.587   7.245 -0.5472  0.1634 -2.0751
21166SOL     OW81489  12.903   6.035   5.502 -0.2075 -0.2053  0.0607
21166SOL    HW181490  12.853   6.108   5.464 -0.8492 -0.5105  0.3079
21166SOL    HW281491  12.991   6.071   5.514  0.4631 -0.5355 -3.0642
21167SOL     OW81492  12.217  10.704  14.092  0.2561  0.3341 -0.2510
21167SOL    HW181493  12.263  10.787  14.104 -2.6497  2.3478 -1.8039
21167SOL    HW281494  12.147  10.707  14.157  0.4622 -1.2231  0.0689
21168SOL     OW81495  11.891  11.613  10.529  0.0088 -0.0596  0.7934
21168SOL    HW181496  11.943  11.564  10.592  0.0554 -0.6321  0.3257
21168SOL    HW281497  11.956  11.652  10.470 -0.0726 -0.8366  0.1630
21169SOL     OW81498   1.315  11.195  12.494  0.7798  0.0505 -0.4655
21169SOL    HW181499   1.347  11.255  12.427  1.4929  0.0083 -0.1648
21169SOL    HW281500   1.390  11.141  12.517  0.8609  0.8026  1.1707
21170SOL     OW81501  12.443   9.724   2.253 -0.0445 -0.1004  0.0615
21170SOL    HW181502  12.458   9.785   2.181 -0.1935  0.2612  0.3340
21170SOL    HW281503  12.522   9.730   2.306 -0.5808  0.8185  0.7810
21171SOL     OW81504   9.458  11.942  11.158  0.0046 -0.2109  0.9785
21171SOL    HW181505   9.445  12.005  11.229  0.4324 -0.0150  0.8811
21171SOL    HW281506   9.427  11.987  11.080  1.7836  0.4943  0.6385
21172SOL     OW81507  12.651   1.839  11.826  0.5177 -0.5846 -0.0462
21172SOL    HW181508  12.723   1.827  11.889  0.7217  0.5014 -0.0436
21172SOL    HW281509  12.584   1.886  11.875  0.4019 -0.3295 -0.4413
21173SOL     OW81510   6.323   0.263   9.053  0.1975  0.4257 -0.1998
21173SOL    HW181511   6.236   0.225   9.064  0.1581  0.9496  1.5265
21173SOL    HW281512   6.313   0.355   9.079  1.1350  0.6536 -0.5784
21174SOL     OW81513   4.220  12.976   2.467 -0.8935  0.3502 -0.0413
21174SOL    HW181514   4.225  13.067   2.498 -1.6535  1.5129 -2.9851
21174SOL    HW281515   4.127  12.963   2.447 -0.5902 -0.5819 -0.9115
21175SOL     OW81516   4.489  10.646   9.538  0.1518 -0.0954 -0.7825
21175SOL    HW181517   4.535  10.566   9.511  0.2199 -0.2848 -0.1109
21175SOL    HW281518   4.446  10.623   9.619 -1.9492 -0.2041 -1.8656
21176SOL     OW81519   0.958   7.667   6.368 -0.2292  0.1868  0.0111
21176SOL    HW181520   0.883   7.676   6.310  0.0532 -5.1065 -1.6450
21176SOL    HW281521   1.034   7.692   6.315 -0.3418 -0.5237 -0.4963
21177SOL     OW81522   8.338   3.043  13.660 -0.0012  0.7120  0.1758
21177SOL    HW181523   8.271   3.027  13.593 -1.6516  0.0612  1.8941
21177SOL    HW281524   8.337   3.138  13.672 -1.0076  0.6665  0.5440
21178SOL     OW81525   2.023  12.823   9.045  0.4607  0.1465  0.5375
21178SOL    HW181526   2.033  12.794   9.136  0.7217 -0.4968  0.3098
21178SOL    HW281527   2.102  12.792   9.001 -0.2270 -0.6539 -0.1828
21179SOL     OW81528   8.742   5.991  12.909 -0.4762 -0.1913 -0.5992
21179SOL    HW181529   8.745   5.959  12.819  0.2005 -1.1137 -0.2642
21179SOL    HW281530   8.767   5.915  12.963 -2.9803 -0.2882  0.5505
21180SOL     OW81531  10.770  13.561   8.748  0.4407 -0.0293 -0.0827
21180SOL    HW181532  10.855  13.547   8.706  0.8326 -0.0106  0.6870
21180SOL    HW281533  10.782  13.530   8.838  0.1537  1.5560  0.5374
21181SOL     OW81534   0.053   0.417   3.558 -0.3347  0.0977 -0.2708
21181SOL    HW181535   0.120   0.351   3.575 -0.0378  0.7682  1.3741
21181SOL    HW281536   0.063   0.438   3.465 -0.0062 -1.6685 -0.6714
21182SOL     OW81537  10.429  12.977  11.387  0.7291  0.6153 -0.5348
21182SOL    HW181538  10.489  13.033  11.338  1.0552 -0.3955 -1.3409
21182SOL    HW281539  10.347  12.983  11.339  0.9666 -0.1435 -1.0565
21183SOL     OW81540   6.162   1.562   5.459  0.3225  0.3271  0.2054
21183SOL    HW181541   6.086   1.597   5.412  1.3733  1.5516 -0.6458
21183SOL    HW281542   6.150   1.467   5.455 -1.2500  0.4919  0.2700
21184SOL     OW81543   7.007  12.927   6.661 -0.2531 -0.1952 -0.2579
21184SOL    HW181544   7.101  12.942   6.655 -0.2212 -0.8810 -2.2523
21184SOL    HW281545   6.997  12.832   6.649 -1.1329 -0.3315  1.2696
21185SOL     OW81546   3.442  12.814  13.108 -0.6137 -0.9673 -0.3636
21185SOL    HW181547   3.514  12.777  13.058 -0.3875 -0.0805 -0.7178
21185SOL    HW281548   3.481  12.841  13.191 -0.5745 -0.7040 -0.4638
21186SOL     OW81549   1.514   2.672  14.093 -0.3093  0.0281 -0.1809
21186SOL    HW181550   1.488   2.763  14.101 -0.8536 -0.1694  0.3964
21186SOL    HW281551   1.604   2.675  14.060  0.0920  0.7987  0.9319
21187SOL     OW81552  14.046   6.865   6.973  0.5519 -0.3823  0.4646
21187SOL    HW181553  14.087   6.787   6.937 -0.3149 -0.4830 -0.3413
21187SOL    HW281554  14.056   6.931   6.905 -2.7067 -1.0765 -0.8438
21188SOL     OW81555   9.021   3.823   4.714  0.2292  0.1152  0.0710
21188SOL    HW181556   8.972   3.869   4.646 -0.9684  0.5732  1.2074
21188SOL    HW281557   8.980   3.737   4.720  0.8473 -0.2204 -0.3047
21189SOL     OW81558  10.398   0.763  11.012  0.1902  0.1707 -0.5749
21189SOL    HW181559  10.373   0.689  10.958  0.2799 -0.4875  0.2619
21189SOL    HW281560  10.338   0.834  10.987 -1.4075 -0.8584  0.2127
21190SOL     OW81561   8.825   8.362   8.984 -0.4669 -0.2040  0.2093
21190SOL    HW181562   8.821   8.455   8.965  1.9101  0.4738  2.4922
21190SOL    HW281563   8.918   8.342   8.989 -0.9112 -2.3348  1.2918
21191SOL     OW81564   6.979   6.728   2.047  0.1771 -0.6825 -0.5829
21191SOL    HW181565   7.059   6.776   2.070  0.7080 -1.5479 -0.5424
21191SOL    HW281566   6.993   6.701   1.956 -0.1379 -0.6978 -0.6255
21192SOL     OW81567  13.802   4.595  13.304  0.2499  0.1613 -0.5018
21192SOL    HW181568  13.848   4.616  13.385 -1.1977 -1.6153  0.8747
21192SOL    HW281569  13.871   4.583  13.240  1.6792 -1.3118  1.2111
21193SOL     OW81570   2.034   2.007  12.518  0.0452 -0.9122 -0.1952
21193SOL    HW181571   1.962   2.069  12.509  1.8531  1.0974 -1.9177
21193SOL    HW281572   2.008   1.950  12.590 -2.8103  0.2940 -0.1445
21194SOL     OW81573   2.733   0.779  14.078 -0.4152 -0.2542  0.0937
21194SOL    HW181574   2.735   0.814  13.989 -0.5083 -1.5689 -0.4493
21194SOL    HW281575   2.698   0.690  14.069 -0.9376 -0.2227  1.5152
21195SOL     OW81576  14.065   9.111   7.339  0.1124 -0.0418  0.0147
21195SOL    HW181577  14.096   9.121   7.429  0.3595 -0.0088 -0.0736
21195SOL    HW281578  13.976   9.147   7.340 -0.1242 -0.6333  0.3903
21196SOL     OW81579  10.572   7.511   9.192  0.5419  0.0876 -0.1089
21196SOL    HW181580  10.572   7.496   9.286  2.2963  0.6366  0.0158
21196SOL    HW281581  10.480   7.509   9.167  0.0234  0.2837  1.6656
21197SOL     OW81582   8.980   4.770   2.110  0.3121  0.7621 -0.4223
21197SOL    HW181583   8.988   4.844   2.050  0.9376  0.5806 -0.5700
21197SOL    HW281584   9.061   4.720   2.097  0.7627  1.0602  1.0338
21198SOL     OW81585   7.075   5.166  13.917  0.3459 -0.2775 -0.0984
21198SOL    HW181586   7.155   5.140  13.963  0.6847 -0.9994 -1.0599
21198SOL    HW281587   7.065   5.259  13.936  0.9094 -0.3899  0.7756
21199SOL     OW81588   0.035  11.745   5.456 -0.0562 -0.2259 -0.5908
21199SOL    HW181589  -0.036  11.717   5.513  0.0489  0.5933 -0.0462
21199SOL    HW281590   0.034  11.840   5.461  1.3144 -0.2125 -0.2874
21200SOL     OW81591  13.788   5.948  13.819 -0.0679  0.2137  0.0704
21200SOL    HW181592  13.874   5.964  13.858 -0.9357  2.1700  1.3308
21200SOL    HW281593  13.727   5.999  13.873 -1.8442  0.0207 -1.6400
21201SOL     OW81594   7.500  13.141   2.371 -0.1390 -0.9707 -0.5697
21201SOL    HW181595   7.553  13.188   2.435 -0.4275 -1.3709 -0.0278
21201SOL    HW281596   7.490  13.202   2.298  0.1731 -0.5011 -0.2240
21202SOL     OW81597   1.418   3.220   9.224  0.5504 -0.4749  0.6030
21202SOL    HW181598   1.512   3.232   9.210  0.2291 -0.0423 -1.4924
21202SOL    HW281599   1.394   3.291   9.284  1.0830  1.2939 -1.1644
21203SOL     OW81600   4.315  13.571   0.361  0.3538 -0.0574 -0.0565
21203SOL    HW181601   4.273  13.585   0.276  1.1818  1.2414 -0.2737
21203SOL    HW281602   4.406  13.553   0.340  0.3563 -0.7779  0.5244
21204SOL     OW81603   2.472   2.683  10.920 -0.0834 -0.5676  0.1990
21204SOL    HW181604   2.534   2.744  10.959  0.1209 -1.0089  0.5679
21204SOL    HW281605   2.429   2.734  10.851  0.3421 -0.1179  0.2604
21205SOL     OW81606   3.149   3.840   3.142 -0.4497  0.4458 -0.3413
21205SOL    HW181607   3.070   3.866   3.096 -0.8456  0.3235  0.2630
21205SOL    HW281608   3.174   3.918   3.192 -0.1945  0.4801 -0.5198
21206SOL     OW81609  11.173   8.664   6.994  0.3221 -0.6211  0.3480
21206SOL    HW181610  11.143   8.744   7.038  0.2674 -0.8314  0.6993
21206SOL    HW281611  11.112   8.653   6.921 -0.6041 -1.1541  1.1723
21207SOL     OW81612   9.368  10.916  10.265 -0.1429  0.2369 -0.3575
21207SOL    HW181613   9.383  10.823  10.247  1.2823  0.4936 -0.5357
21207SOL    HW281614   9.381  10.959  10.181  0.7811  0.7793  0.0607
21208SOL     OW81615  13.009  12.383   0.776 -0.1637  0.2383  0.2271
21208SOL    HW181616  13.002  12.293   0.744  1.2722  0.0490  0.3648
21208SOL    HW281617  12.959  12.384   0.857 -0.9066 -0.1971 -0.2147
21209SOL     OW81618   0.251  10.570   7.121  0.4328 -0.1700  0.2694
21209SOL    HW181619   0.219  10.530   7.203  0.0694  1.3972  0.9354
21209SOL    HW281620   0.307  10.642   7.150  2.3672 -1.1293 -0.8999
21210SOL     OW81621   0.316   0.126  10.205 -0.5285 -0.6533 -0.2382
21210SOL    HW181622   0.263   0.204  10.218  2.5444  1.3908  1.1592
21210SOL    HW281623   0.352   0.135  10.117  2.7616  1.7346  1.1124
21211SOL     OW81624   2.140   6.762   8.376 -0.2033 -0.5184  0.1156
21211SOL    HW181625   2.069   6.821   8.399  0.2084 -0.2650  0.7508
21211SOL    HW281626   2.219   6.815   8.386  0.0097 -0.2618 -2.1946
21212SOL     OW81627   8.630   9.708  12.544  0.1507  0.1690  0.1150
21212SOL    HW181628   8.699   9.743  12.600 -0.1168  2.1197 -0.6994
21212SOL    HW281629   8.677   9.660  12.476  0.6519  0.4452  0.2591
21213SOL     OW81630   5.669  10.157   3.482 -0.6509  0.3162 -0.6797
21213SOL    HW181631   5.699  10.116   3.563 -0.4985 -0.1094 -0.9455
21213SOL    HW281632   5.632  10.085   3.431 -1.8031  0.7738 -0.5138
21214SOL     OW81633   7.716   4.693  13.275 -0.3940  0.5848  0.2710
21214SOL    HW181634   7.763   4.773  13.251  1.8661 -0.4460  1.1012
21214SOL    HW281635   7.723   4.688  13.370  0.6357 -1.2412  0.1408
21215SOL     OW81636   6.995   1.754  11.255 -0.0396  0.1560 -0.4787
21215SOL    HW181637   6.973   1.767  11.163  0.4261  1.7806 -0.3988
21215SOL    HW281638   7.064   1.687  11.254 -1.0113 -0.8628 -1.1736
21216SOL     OW81639  12.492   2.494   4.065  0.1258 -0.4396 -0.3716
21216SOL    HW181640  12.529   2.499   4.153  0.1968  0.9707 -0.4693
21216SOL    HW281641  12.535   2.564   4.016 -0.7227 -0.4910 -1.2287
21217SOL     OW81642   9.924   6.461  13.658  0.1034  0.6205  0.4267
21217SOL    HW181643   9.994   6.524  13.644 -0.8778  1.6615 -0.0015
21217SOL    HW281644   9.945   6.389  13.599 -0.6122  2.1648 -1.8723
21218SOL     OW81645   2.829   9.792   6.579 -0.0278 -0.3050 -0.6205
21218SOL    HW181646   2.870   9.814   6.496  0.1371  1.3394 -0.1574
21218SOL    HW281647   2.899   9.801   6.644 -0.1998 -1.3554 -0.2727
21219SOL     OW81648   9.800   2.694   1.314 -0.5035 -0.2211 -0.2209
21219SOL    HW181649   9.888   2.719   1.283 -1.7632  1.1058 -3.1165
21219SOL    HW281650   9.793   2.601   1.291  0.6830 -0.8050  1.5771
21220SOL     OW81651   8.302  13.047  10.182 -0.3551 -0.1583  0.0200
21220SOL    HW181652   8.371  13.055  10.248  0.5579  0.0896 -0.9346
21220SOL    HW281653   8.227  13.092  10.221  0.5240  1.0413  0.4067
21221SOL     OW81654  10.633  11.952   9.603  0.0917  0.7542 -0.5636
21221SOL    HW181655  10.562  11.942   9.667  0.4935 -0.6708 -0.3128
21221SOL    HW281656  10.685  12.025   9.637  1.7204 -1.4404  2.2214
21222SOL     OW81657   8.865   4.703   6.180  0.0869  0.1254  0.3190
21222SOL    HW181658   8.791   4.724   6.235  0.7233 -0.1564  1.3050
21222SOL    HW281659   8.867   4.607   6.177 -0.7977  0.1193 -1.3950
21223SOL     OW81660  11.291  13.231   5.211  0.4872  0.5651  0.5366
21223SOL    HW181661  11.250  13.175   5.145  0.6979  0.7887  0.2169
21223SOL    HW281662  11.298  13.316   5.169  1.6021  0.4464  0.4634
21224SOL     OW81663   7.473   9.027   1.064 -0.4912 -0.9133  0.2352
21224SOL    HW181664   7.441   8.945   1.027  1.7681 -2.0099  0.5510
21224SOL    HW281665   7.565   9.010   1.086 -0.0530  1.5845  0.6822
21225SOL     OW81666   0.046  11.951  10.991 -0.4827 -0.2418 -0.1530
21225SOL    HW181667  -0.014  11.876  10.996  0.9125 -1.3615  0.6807
21225SOL    HW281668   0.075  11.965  11.081  0.4123  0.3429 -0.5171
21226SOL     OW81669  10.187   9.256   7.764  0.6235 -0.8998 -0.0644
21226SOL    HW181670  10.177   9.280   7.672 -1.9876 -0.2297  0.2982
21226SOL    HW281671  10.194   9.340   7.810  1.0037 -1.1939  0.4180
21227SOL     OW81672  10.107   4.058  13.799  0.3660  0.0038 -0.1847
21227SOL    HW181673  10.026   4.109  13.805  0.5904  0.3354  0.0559
21227SOL    HW281674  10.161   4.107  13.736 -0.4688 -1.3905 -2.0776
21228SOL     OW81675   8.456   6.214  11.324  0.1386  0.5949  0.1682
21228SOL    HW181676   8.409   6.258  11.253  0.5737 -1.7259 -1.6755
21228SOL    HW281677   8.389   6.192  11.389 -0.7309  0.4473 -0.7730
21229SOL     OW81678   6.861   1.308   0.947  0.1988  0.6468  0.3131
21229SOL    HW181679   6.876   1.334   0.856  2.8688  5.0615  1.6893
21229SOL    HW281680   6.924   1.239   0.963  1.7784  1.8186 -0.5500
21230SOL     OW81681   1.646  10.434   9.878  0.0421 -0.4276  0.2192
21230SOL    HW181682   1.671  10.514   9.831 -0.0355 -0.0637  0.7861
21230SOL    HW281683   1.714  10.370   9.855 -0.4419 -0.5095 -1.0278
21231SOL     OW81684  12.706   6.283  11.794  0.1092  0.3939  0.1798
21231SOL    HW181685  12.651   6.348  11.751 -0.0328  2.2523  2.8508
21231SOL    HW281686  12.794   6.302  11.763 -0.0914  1.0824  0.0066
21232SOL     OW81687   8.119   4.064   5.244 -0.2915 -0.2030 -0.0901
21232SOL    HW181688   8.213   4.069   5.263 -0.1106  0.5766 -1.1084
21232SOL    HW281689   8.090   3.984   5.288  0.3550  0.7602  2.2420
21233SOL     OW81690  13.835   0.511   7.356 -0.2247 -0.0786  0.2763
21233SOL    HW181691  13.872   0.457   7.425 -0.4794 -1.5533 -0.6816
21233SOL    HW281692  13.870   0.473   7.275 -2.3634 -0.4234 -0.5627
21234SOL     OW81693   9.940   9.803  13.540  0.9715  0.1363  0.3591
21234SOL    HW181694   9.987   9.719  13.545 -1.1932 -1.3291 -1.5833
21234SOL    HW281695   9.862   9.789  13.594 -0.9443 -0.3112 -2.3578
21235SOL     OW81696   7.202  13.489   8.626 -0.5868 -0.6889 -0.0858
21235SOL    HW181697   7.129  13.511   8.568 -1.2698  1.3970  1.4282
21235SOL    HW281698   7.176  13.525   8.711  1.7133 -0.9036  0.7798
21236SOL     OW81699  13.834  12.178  12.424  0.4458 -0.0455 -0.3095
21236SOL    HW181700  13.740  12.159  12.421  0.3986  0.0512  0.3099
21236SOL    HW281701  13.845  12.256  12.371  0.7750 -2.1838 -3.7281
21237SOL     OW81702   7.388   5.598  12.236  0.3366 -0.1400 -0.4240
21237SOL    HW181703   7.310   5.648  12.210  0.9844  0.3459 -1.5083
21237SOL    HW281704   7.449   5.665  12.268 -0.1411 -0.6444  1.6994
21238SOL     OW81705   1.826   1.024  11.169 -0.4137 -0.5021  0.1739
21238SOL    HW181706   1.871   0.940  11.177 -1.5016 -1.2820 -1.3736
21238SOL    HW281707   1.868   1.067  11.094  1.9893  1.6296  2.5469
21239SOL     OW81708   7.344  13.077  10.755 -0.1375 -0.6021 -0.3924
21239SOL    HW181709   7.412  13.133  10.718 -0.9577 -0.6876 -2.1091
21239SOL    HW281710   7.374  12.988  10.738  0.2211 -0.6869  0.5890
21240SOL     OW81711   7.609  10.843   2.345  0.3132  0.5400 -0.0333
21240SOL    HW181712   7.641  10.781   2.280 -0.2066  0.3820 -0.1408
21240SOL    HW281713   7.582  10.788   2.419  1.6441  0.7597  0.6604
21241SOL     OW81714   5.618   5.760  12.252  0.5581  0.0347  0.3567
21241SOL    HW181715   5.542   5.816  12.269 -0.3444 -1.1683  0.4488
21241SOL    HW281716   5.657   5.746  12.338  0.5179  0.1546  0.3950
21242SOL     OW81717   2.016   0.645  10.558  0.0650 -0.4255  0.3793
21242SOL    HW181718   2.030   0.684  10.644 -1.1966  0.1543  0.3448
21242SOL    HW281719   2.003   0.552  10.576 -0.1301 -0.3195  0.7994
21243SOL     OW81720   2.566   9.305   6.244  0.0536  0.1431  0.4616
21243SOL    HW181721   2.513   9.378   6.276 -0.5605  0.0263 -0.2648
21243SOL    HW281722   2.638   9.347   6.196  0.3907  0.2904  1.0803
21244SOL     OW81723   1.858  13.565   5.573 -0.4461 -0.1176  0.2086
21244SOL    HW181724   1.780  13.556   5.629  0.1129 -2.8735  0.6693
21244SOL    HW281725   1.931  13.536   5.628  0.0655 -3.6057 -1.9893
21245SOL     OW81726   6.060   6.471   7.475 -0.7788 -0.0300 -0.2728
21245SOL    HW181727   6.122   6.503   7.541 -0.8318  0.3781 -0.4155
21245SOL    HW281728   5.974   6.490   7.512 -0.8100  1.1662 -0.9027
21246SOL     OW81729   5.485   8.515  12.565  0.0989 -0.3187 -0.2440
21246SOL    HW181730   5.547   8.554  12.625  2.0958  0.0112 -2.3745
21246SOL    HW281731   5.402   8.559  12.584  0.8565  0.4202  1.5774
21247SOL     OW81732  14.112  11.095   3.419 -0.6065  0.5210 -0.2996
21247SOL    HW181733  14.019  11.102   3.439 -0.7299 -0.3490 -0.5350
21247SOL    HW281734  14.149  11.044   3.491 -0.6241 -0.5465 -1.0144
21248SOL     OW81735  11.742   4.299   5.237  0.1074  0.4652 -0.1308
21248SOL    HW181736  11.702   4.252   5.310 -0.1213  1.1282  0.1858
21248SOL    HW281737  11.774   4.231   5.178  3.6099 -0.2574  2.2895
21249SOL     OW81738   1.245   4.294   3.133  0.2972  0.0305 -0.8453
21249SOL    HW181739   1.219   4.232   3.201 -0.6813 -0.1810 -1.3973
21249SOL    HW281740   1.260   4.376   3.180  0.9825 -0.4579 -0.1949
21250SOL     OW81741   3.821   7.174  10.586 -0.1695  0.4384 -0.3100
21250SOL    HW181742   3.799   7.236  10.655 -1.4608  0.0096 -0.3009
21250SOL    HW281743   3.913   7.191  10.566 -0.4467  2.2582 -0.2138
21251SOL     OW81744   0.063   3.453   1.803 -0.2649  0.0765 -0.0963
21251SOL    HW181745   0.152   3.483   1.817 -0.2219 -0.0556 -0.0835
21251SOL    HW281746   0.050   3.385   1.869 -1.8879  3.0949  2.9846
21252SOL     OW81747   1.180   2.834  13.864  0.5102  0.5868 -0.1752
21252SOL    HW181748   1.109   2.873  13.813 -1.4280 -5.0622 -2.4954
21252SOL    HW281749   1.258   2.849  13.810 -0.8726 -1.9200 -3.2013
21253SOL     OW81750   8.338   6.537  12.766  0.3337 -0.1025  0.6912
21253SOL    HW181751   8.339   6.622  12.811  0.4204  0.5615 -0.5230
21253SOL    HW281752   8.309   6.557  12.677  1.5381 -1.1522  0.0161
21254SOL     OW81753   9.095  12.963   9.737  0.2824  0.3654  0.4160
21254SOL    HW181754   9.077  13.057   9.742  1.6488  0.9466 -3.1226
21254SOL    HW281755   9.011  12.921   9.760 -0.3269  2.3621  2.1454
21255SOL     OW81756   3.982   8.278   3.048 -0.2641  0.1189 -0.1317
21255SOL    HW181757   3.927   8.357   3.044 -3.0350 -1.5814  1.3127
21255SOL    HW281758   4.001   8.266   3.141 -1.8838 -2.0702  0.0070
21256SOL     OW81759  13.090  12.275  13.863 -0.1725 -0.2906 -0.4342
21256SOL    HW181760  13.009  12.292  13.910  0.1822 -0.8370  0.4043
21256SOL    HW281761  13.157  12.272  13.931  0.4897 -0.2566 -1.0676
21257SOL     OW81762   3.051  11.935   5.116  0.3654 -0.4200 -0.3823
21257SOL    HW181763   2.985  11.913   5.050 -0.2958  1.9715 -0.5870
21257SOL    HW281764   3.012  11.907   5.199 -1.2807  1.5665 -0.4164
21258SOL     OW81765   4.426   2.805   7.858 -0.2383  0.0334 -0.1088
21258SOL    HW181766   4.337   2.807   7.892  0.2545  2.0311  1.2840
21258SOL    HW281767   4.417   2.778   7.767 -2.1809 -0.4488  0.1823
21259SOL     OW81768   5.773  12.552  13.163 -0.1016  0.0449 -0.0968
21259SOL    HW181769   5.809  12.481  13.216  1.5761 -0.2424 -1.5205
21259SOL    HW281770   5.684  12.564  13.197  0.1845 -1.5021  1.3723
21260SOL     OW81771  12.175  10.379  11.867  0.2767 -0.4232  0.4374
21260SOL    HW181772  12.081  10.388  11.851  0.1718  0.5702  1.5054
21260SOL    HW281773  12.184  10.373  11.962  1.2815 -0.6348  0.3482
21261SOL     OW81774  13.531   4.417   5.348 -0.0028  0.4445  0.1080
21261SOL    HW181775  13.473   4.482   5.309  0.5343  0.7447 -0.1795
21261SOL    HW281776  13.523   4.340   5.291  2.6439  1.6519 -2.0948
21262SOL     OW81777   3.987   5.631   0.117 -0.2048  0.2879 -0.2770
21262SOL    HW181778   3.969   5.619   0.023  0.6278 -1.6578 -0.2303
21262SOL    HW281779   4.082   5.637   0.123 -0.1594 -0.9991  0.5654
21263SOL     OW81780   5.105   7.673  12.368  0.0027  0.1874 -0.1140
21263SOL    HW181781   5.132   7.602  12.310  0.0848  0.6879 -0.6927
21263SOL    HW281782   5.106   7.634  12.455  2.0324  0.0053 -0.1555
21264SOL     OW81783   2.986   3.768  10.856 -0.1861 -0.2215  0.5492
21264SOL    HW181784   2.898   3.743  10.827 -0.8698  3.3233 -0.9041
21264SOL    HW281785   2.987   3.863  10.850  4.0249 -0.1325 -0.2833
21265SOL     OW81786   9.853  12.799   2.395  0.5710  0.1283  0.0024
21265SOL    HW181787   9.909  12.873   2.416  2.0677 -1.0669  0.3805
21265SOL    HW281788   9.850  12.796   2.300  1.7677 -0.2292 -0.0317
21266SOL     OW81789   8.537  12.421   3.689 -0.4487  0.1801  0.4439
21266SOL    HW181790   8.557  12.511   3.664 -1.4564  0.9338  2.2010
21266SOL    HW281791   8.495  12.384   3.611  1.6482  0.5747 -0.9722
21267SOL     OW81792   6.757   2.601  11.386 -0.4880  0.6243  0.3693
21267SOL    HW181793   6.771   2.548  11.308 -0.5861  1.7263 -0.4124
21267SOL    HW281794   6.756   2.691  11.355  0.6362  1.1852  1.7948
21268SOL     OW81795   7.436   0.336   8.495  0.2427  0.2633  0.0891
21268SOL    HW181796   7.495   0.403   8.461 -0.0149  0.4185 -0.0549
21268SOL    HW281797   7.420   0.277   8.422  0.4654  0.0456  0.2144
21269SOL     OW81798   4.472   3.073   4.847 -0.2107  0.1128 -0.1021
21269SOL    HW181799   4.411   3.131   4.801 -0.5036  0.1605  0.3430
21269SOL    HW281800   4.515   3.131   4.911 -1.2201 -0.3503  1.0391
21270SOL     OW81801   8.260   0.804   4.297 -0.5793 -0.1309  0.2128
21270SOL    HW181802   8.209   0.805   4.216 -1.5852  2.3972  0.7846
21270SOL    HW281803   8.342   0.760   4.272 -0.7631  0.7389 -2.2492
21271SOL     OW81804   4.853  11.568   8.734 -0.1887 -0.5006 -0.0841
21271SOL    HW181805   4.813  11.503   8.792  0.5759 -1.6086 -0.7771
21271SOL    HW281806   4.885  11.518   8.659  1.1094  0.5607 -0.2832
21272SOL     OW81807  12.870   6.608   7.036 -0.0528  0.0634 -0.2924
21272SOL    HW181808  12.875   6.638   6.945  1.9367  0.1191 -0.2089
21272SOL    HW281809  12.915   6.676   7.086 -0.3524 -0.4056  0.6296
21273SOL     OW81810   3.245  10.315  11.294  0.1585  0.5059 -0.0950
21273SOL    HW181811   3.232  10.245  11.229  0.6014  0.3486 -0.0182
21273SOL    HW281812   3.330  10.295  11.333 -1.2644 -1.0243  2.5127
21274SOL     OW81813   2.983  10.239   9.984  0.7429  0.0192  0.0589
21274SOL    HW181814   3.043  10.209   9.916 -0.7774 -0.0170 -1.3291
21274SOL    HW281815   2.930  10.306   9.942 -0.6657 -0.4467  1.0005
21275SOL     OW81816  12.640   8.395   4.008  0.4914 -0.1784  0.1991
21275SOL    HW181817  12.646   8.459   3.937  0.6566  0.1697  0.5236
21275SOL    HW281818  12.683   8.437   4.082  0.1999 -0.4843  0.5456
21276SOL     OW81819   7.826  13.410   7.722  0.3495  1.0158 -0.8162
21276SOL    HW181820   7.853  13.345   7.787 -1.7928  0.7948 -0.0477
21276SOL    HW281821   7.882  13.485   7.737  2.3834 -0.3467 -1.2257
21277SOL     OW81822  12.336   3.476  11.216  0.4200 -0.0308 -0.3005
21277SOL    HW181823  12.306   3.390  11.186  1.6176 -1.0079  1.1067
21277SOL    HW281824  12.270   3.504  11.279  0.5129 -0.4133 -0.0226
21278SOL     OW81825  11.978   5.566   4.961 -0.3964 -0.0206 -0.5956
21278SOL    HW181826  12.030   5.486   4.957  0.8974  0.7479  0.1715
21278SOL    HW281827  12.040   5.636   4.940 -1.6314  0.7597 -1.8756
21279SOL     OW81828  10.980  10.556   3.354  0.4951 -0.0509 -0.2149
21279SOL    HW181829  10.937  10.525   3.434 -0.6220  2.1854  0.1344
21279SOL    HW281830  10.907  10.583   3.297  1.3142  2.0551 -0.3647
21280SOL     OW81831  10.089  12.829  12.915  0.0494  0.0059 -0.5558
21280SOL    HW181832  10.001  12.837  12.952  0.2663 -0.2595  0.0257
21280SOL    HW281833  10.146  12.868  12.980  0.2542  1.2794 -1.4680
21281SOL     OW81834  11.962  10.370   6.378 -0.4487 -0.6778 -0.6074
21281SOL    HW181835  12.025  10.329   6.438 -1.8015 -2.3256 -0.2354
21281SOL    HW281836  12.007  10.373   6.294  2.3043  3.5446  0.6627
21282SOL     OW81837   4.565   6.555   6.699  0.0776  0.3261  0.4380
21282SOL    HW181838   4.660   6.561   6.693  0.0319  0.3306 -0.3990
21282SOL    HW281839   4.549   6.483   6.760  0.6477 -1.9339 -1.8836
21283SOL     OW81840   0.428   7.144  13.260 -0.1553 -0.6895  1.0436
21283SOL    HW181841   0.378   7.193  13.325  0.0761 -1.9831  2.2731
21283SOL    HW281842   0.412   7.189  13.177 -0.7637  0.8042  1.9335
21284SOL     OW81843   5.036  13.311   1.650 -0.1730  0.3963  0.3273
21284SOL    HW181844   5.014  13.236   1.705 -1.0658  0.0967 -0.4120
21284SOL    HW281845   4.961  13.321   1.591  0.4652  1.1093 -0.4001
21285SOL     OW81846  11.118  12.857   5.043 -0.1050 -0.2064 -0.0528
21285SOL    HW181847  11.202  12.876   5.000 -0.6037  2.2703 -0.1269
21285SOL    HW281848  11.136  12.782   5.100  1.8975 -0.3404 -0.7807
21286SOL     OW81849   8.494  11.747   1.093  0.1194 -1.2999 -0.1147
21286SOL    HW181850   8.548  11.669   1.081  1.3188 -0.3742 -1.0338
21286SOL    HW281851   8.498  11.793   1.009  1.8133  1.1712  1.1641
21287SOL     OW81852  11.834   2.655   8.836 -0.1439  0.8221 -0.7209
21287SOL    HW181853  11.850   2.606   8.917  0.4647 -0.4574 -1.5862
21287SOL    HW281854  11.772   2.724   8.861 -0.3405  0.1490  0.7215
21288SOL     OW81855  11.795   5.424   4.169 -0.8436  0.0925  0.6351
21288SOL    HW181856  11.747   5.507   4.166  0.9471  1.1710  0.5980
21288SOL    HW281857  11.774   5.382   4.085 -0.0222  1.5510 -0.3435
21289SOL     OW81858   8.407  10.852   2.836  0.7544 -0.6977 -0.1125
21289SOL    HW181859   8.344  10.905   2.885  1.0764  0.1320 -0.5694
21289SOL    HW281860   8.379  10.761   2.850  0.4510 -0.4410  1.0485
21290SOL     OW81861  13.619  13.717  12.296 -0.0020 -0.5413 -0.3406
21290SOL    HW181862  13.712  13.696  12.285 -0.2012 -0.9273 -1.3585
21290SOL    HW281863  13.619  13.786  12.363  0.8314 -2.1397  1.4049
21291SOL     OW81864   7.131  10.101   0.154  0.4339  0.0123  0.2630
21291SOL    HW181865   7.053  10.046   0.146  1.0718 -0.8449 -0.2335
21291SOL    HW281866   7.197  10.044   0.194  0.6977  0.8465  1.0572
21292SOL     OW81867   1.814   0.389   9.888  0.3044 -0.4634 -0.0332
21292SOL    HW181868   1.900   0.421   9.860  0.3115 -0.7247 -0.3097
21292SOL    HW281869   1.808   0.301   9.850 -0.5569 -0.0165 -0.9537
21293SOL     OW81870  13.579  10.753  11.848  0.3610 -0.4631  0.6874
21293SOL    HW181871  13.639  10.712  11.910  0.0477 -0.3595  1.0657
21293SOL    HW281872  13.613  10.728  11.762  0.0616 -1.7133  0.9051
21294SOL     OW81873   4.899  10.456   3.393 -0.0082  0.1236 -0.6572
21294SOL    HW181874   4.964  10.387   3.376  0.8418  0.6157  0.4564
21294SOL    HW281875   4.884  10.451   3.487  2.8707  3.7582  0.2487
21295SOL     OW81876   1.224   7.509   6.192 -0.1585  0.2431  0.6400
21295SOL    HW181877   1.174   7.471   6.120 -1.0362  0.0863  1.3257
21295SOL    HW281878   1.208   7.603   6.185  0.2501  0.2893  0.2696
21296SOL     OW81879   2.100   5.741  12.837 -0.0191  0.0341  0.3401
21296SOL    HW181880   2.011   5.708  12.843 -0.7230  1.4791 -1.3458
21296SOL    HW281881   2.097   5.826  12.882  0.2383  0.5484 -0.6013
21297SOL     OW81882   2.322  11.298   3.387  0.0180  0.6148 -0.3302
21297SOL    HW181883   2.242  11.246   3.398 -0.2158  0.5874 -1.8801
21297SOL    HW281884   2.320  11.361   3.458 -0.4109 -0.6063  0.7755
21298SOL     OW81885   1.769   2.865   3.349  0.4023  0.2084  0.0514
21298SOL    HW181886   1.698   2.804   3.331  1.3373 -1.3960  1.5137
21298SOL    HW281887   1.841   2.835   3.293  0.0355  1.7377 -1.3181
21299SOL     OW81888  12.522  11.936  13.386  0.4721 -0.4500 -0.1548
21299SOL    HW181889  12.584  11.984  13.331  0.3359 -1.0518 -0.8460
21299SOL    HW281890  12.443  11.989  13.384  0.2173 -0.8350 -1.1774
21300SOL     OW81891  12.843   4.120   7.827 -0.2819 -0.4190 -0.1574
21300SOL    HW181892  12.776   4.089   7.765 -0.5931 -0.5810  0.2509
21300SOL    HW281893  12.799   4.116   7.912  0.0045  0.2035  0.0221
21301SOL     OW81894   5.057  10.321  11.081  0.2263 -0.2510 -0.2975
21301SOL    HW181895   5.113  10.379  11.133  0.1454 -0.6667  0.2653
21301SOL    HW281896   5.098  10.235  11.089 -0.2717 -0.4810 -0.2149
21302SOL     OW81897   2.438  14.154   7.884  0.2782 -0.0162 -0.1571
21302SOL    HW181898   2.408  14.130   7.971 -1.8823 -0.6321 -0.9971
21302SOL    HW281899   2.446  14.070   7.838 -0.1607  0.3852 -0.9901
21303SOL     OW81900   4.563   6.710  12.325  0.0281  0.2839 -0.2135
21303SOL    HW181901   4.531   6.648  12.258 -0.0486 -0.1534  0.2221
21303SOL    HW281902   4.543   6.667  12.408  0.7294  0.5282  0.0824
21304SOL     OW81903  12.824   7.161  12.571 -0.0942  0.1363  0.2668
21304SOL    HW181904  12.794   7.177  12.482  0.3599 -0.3118  0.0269
21304SOL    HW281905  12.879   7.082  12.564 -1.8384 -1.2438  1.2959
21305SOL     OW81906  11.147  11.157   3.529  0.0972 -0.3763  0.0370
21305SOL    HW181907  11.068  11.141   3.478  0.4049  0.1087 -0.6075
21305SOL    HW281908  11.123  11.228   3.589 -0.3968 -1.2471  0.8822
21306SOL     OW81909   7.239   7.080   2.593 -0.8045 -0.0769 -0.3332
21306SOL    HW181910   7.296   7.056   2.519 -1.3706  0.6687 -1.0363
21306SOL    HW281911   7.219   7.173   2.578  0.5346  0.6230  1.7520
21307SOL     OW81912   8.017   1.253  14.142 -0.2575  0.2301 -0.4495
21307SOL    HW181913   8.100   1.251  14.094  0.4829  0.6326  0.7807
21307SOL    HW281914   8.006   1.164  14.175 -0.8770 -0.1052 -1.5011
21308SOL     OW81915   8.647   0.099   5.097  0.5226  0.4770  0.1675
21308SOL    HW181916   8.704   0.139   5.163  0.2178  0.8346  0.2172
21308SOL    HW281917   8.589   0.042   5.146  0.7137  0.2527  0.1362
21309SOL     OW81918   9.412   6.801   3.098  0.2753 -0.0575 -0.2610
21309SOL    HW181919   9.422   6.896   3.088  2.2307  0.2029  2.7686
21309SOL    HW281920   9.444   6.783   3.186 -1.4919 -3.3773 -0.1301
21310SOL     OW81921   0.620   1.187  10.725  0.0872 -0.2190  0.2358
21310SOL    HW181922   0.647   1.129  10.653  0.2352 -1.0527  0.9463
21310SOL    HW281923   0.686   1.172  10.793  1.1967  2.1405 -0.2105
21311SOL     OW81924  11.633   8.385  10.311  0.2885  0.0250  0.0749
21311SOL    HW181925  11.565   8.367  10.246  0.5915 -0.1391 -0.1985
21311SOL    HW281926  11.687   8.452  10.271  0.0595  0.4436  0.4586
21312SOL     OW81927   6.937  11.880   7.414  0.1257  0.1904  0.2904
21312SOL    HW181928   6.938  11.896   7.319 -0.5694 -0.5405  0.1433
21312SOL    HW281929   6.922  11.786   7.422  0.3886  0.2110  1.1319
21313SOL     OW81930   0.076  10.670   6.170  0.2524  0.6865  0.7001
21313SOL    HW181931   0.149  10.665   6.109  0.7979  2.6334  1.1233
21313SOL    HW281932   0.078  10.760   6.203 -0.4200 -0.0965  3.0817
21314SOL     OW81933   8.366  13.633   0.240 -0.2689  0.2722 -0.4084
21314SOL    HW181934   8.301  13.653   0.307  0.7281  0.1127  0.6399
21314SOL    HW281935   8.441  13.688   0.263  0.3726 -0.3686 -0.9251
21315SOL     OW81936  10.004   6.684   0.394  0.3719  0.3470 -0.4541
21315SOL    HW181937  10.037   6.696   0.483 -2.3048  0.7454  0.5791
21315SOL    HW281938   9.943   6.756   0.381 -0.7566 -0.7958 -1.8477
21316SOL     OW81939   9.778  13.395   0.992 -0.0069 -1.0734 -0.8953
21316SOL    HW181940   9.773  13.312   1.039  0.1784 -1.2398 -1.1651
21316SOL    HW281941   9.869  13.423   1.002 -0.0650 -0.9127 -0.8218
21317SOL     OW81942   4.400   5.831   2.897 -0.1183 -0.6188  0.3449
21317SOL    HW181943   4.493   5.843   2.876  0.0002 -1.9034  0.0356
21317SOL    HW281944   4.373   5.915   2.933  0.6659  0.4447 -1.3629
21318SOL     OW81945  11.318   8.713   2.096 -0.2971 -0.2757  0.6143
21318SOL    HW181946  11.312   8.808   2.094  0.8030 -0.2024 -0.0231
21318SOL    HW281947  11.388   8.692   2.034  1.2119 -1.3253  2.5602
21319SOL     OW81948   9.381  11.795   9.304  0.0049 -0.2512 -0.0271
21319SOL    HW181949   9.398  11.786   9.211 -1.9320  0.7077 -0.5324
21319SOL    HW281950   9.466  11.780   9.346  0.4686 -3.0964 -1.7262
21320SOL     OW81951   4.744   0.949   8.026 -0.0574 -0.1444 -0.3011
21320SOL    HW181952   4.827   0.945   8.073  0.0779  0.1268 -0.5122
21320SOL    HW281953   4.761   1.008   7.952 -0.8779  1.2593  0.5652
21321SOL     OW81954  10.922   0.875   9.518 -1.0301 -0.1524  0.2150
21321SOL    HW181955  10.918   0.874   9.614 -2.1482  2.1209  0.2559
21321SOL    HW281956  11.002   0.924   9.498 -1.1698 -0.0026  0.0162
21322SOL     OW81957   1.888   8.560  10.993  0.3551  0.1621 -0.6476
21322SOL    HW181958   1.928   8.496  10.935 -0.7626 -1.5768  0.4137
21322SOL    HW281959   1.794   8.543  10.986  0.1952 -0.9052  2.4475
21323SOL     OW81960   0.278   5.286   4.725  0.1974 -0.0946  0.1050
21323SOL    HW181961   0.198   5.269   4.774 -0.2109 -1.5356 -0.9883
21323SOL    HW281962   0.250   5.337   4.650  0.1635 -1.1453 -0.6207
21324SOL     OW81963   0.810   5.718   5.929 -0.0515  0.4762 -0.1047
21324SOL    HW181964   0.752   5.742   6.001  0.7732  2.5970 -0.0749
21324SOL    HW281965   0.893   5.761   5.949  0.3204  0.8006 -2.0872
21325SOL     OW81966   9.262   2.975   3.718  0.2067  0.4070 -0.1050
21325SOL    HW181967   9.211   2.923   3.780 -0.5639  0.1305 -0.9378
21325SOL    HW281968   9.254   2.927   3.635  1.9453  0.2904 -0.2397
21326SOL     OW81969   2.094   3.668   9.124  0.2287 -0.1229 -0.8749
21326SOL    HW181970   2.024   3.604   9.117 -1.6611  1.4992  1.3814
21326SOL    HW281971   2.116   3.669   9.217 -0.2824  2.8129 -0.6692
21327SOL     OW81972   1.707  12.647   7.034  0.2114  0.4574 -0.3804
21327SOL    HW181973   1.622  12.624   6.999 -0.4188 -0.8838  1.8444
21327SOL    HW281974   1.744  12.565   7.064  1.2151  1.3402  0.9229
21328SOL     OW81975   9.176  13.420   7.124  0.4036 -0.1707 -0.0744
21328SOL    HW181976   9.143  13.505   7.094 -0.7928 -0.8674 -0.8547
21328SOL    HW281977   9.105  13.384   7.177  2.3392  0.8716  3.5130
21329SOL     OW81978  12.419   4.164  12.647  0.1288 -0.2139  0.6725
21329SOL    HW181979  12.467   4.118  12.716 -1.6541 -1.8034  0.9408
21329SOL    HW281980  12.362   4.225  12.694 -0.3399 -0.5615  0.5661
21330SOL     OW81981  11.428   2.075  11.373  0.4417 -0.1460  0.2164
21330SOL    HW181982  11.465   2.019  11.305  0.4097  0.2676 -0.1450
21330SOL    HW281983  11.427   2.020  11.452  0.1310 -0.7539 -0.2034
21331SOL     OW81984   1.039   2.930   3.817  0.3105 -0.0812  0.0262
21331SOL    HW181985   0.966   2.981   3.782 -1.5017 -0.3825  2.9728
21331SOL    HW281986   1.036   2.847   3.769 -2.2014 -0.5801  0.8854
21332SOL     OW81987   2.400   6.006   3.087  0.0832  0.3627  0.5205
21332SOL    HW181988   2.324   5.975   3.134  0.4613 -0.5462  0.5475
21332SOL    HW281989   2.366   6.034   3.002 -0.1128 -1.2187  0.0537
21333SOL     OW81990   5.746   7.215  13.493 -1.0493 -0.2241  0.0079
21333SOL    HW181991   5.667   7.169  13.522 -0.7517 -1.4859 -1.0933
21333SOL    HW281992   5.745   7.207  13.398  0.2078  0.0878 -0.0473
21334SOL     OW81993  13.674   9.748   6.841 -0.3779 -0.2954  0.2858
21334SOL    HW181994  13.602   9.740   6.779 -0.0956  1.2171 -0.2869
21334SOL    HW281995  13.727   9.821   6.808  1.6019 -1.5409  0.5226
21335SOL     OW81996   2.454   0.811   0.838  0.1312  0.5733  0.0734
21335SOL    HW181997   2.431   0.732   0.887 -0.7175 -0.0742 -1.2903
21335SOL    HW281998   2.519   0.855   0.893  1.1682 -1.4159  0.5668
21336SOL     OW81999   2.894   8.761   7.085  0.3889 -0.8426  0.7413
21336SOL    HW182000   2.899   8.678   7.132  1.2838  0.5619  3.3084
21336SOL    HW282001   2.825   8.811   7.129 -0.6191 -0.4102 -1.1892
21337SOL     OW82002   0.319   7.263  13.038 -0.1999 -0.4363 -0.1992
21337SOL    HW182003   0.304   7.241  12.946 -2.9479 -1.1290  0.3106
21337SOL    HW282004   0.248   7.323  13.060  0.2099 -0.5371  1.5350
21338SOL     OW82005   9.614   6.633   9.616  1.3268 -0.2456  0.7296
21338SOL    HW182006   9.548   6.580   9.572  1.1458 -0.7147  1.5370
21338SOL    HW282007   9.685   6.641   9.553  0.4846  0.3129 -0.1831
21339SOL     OW82008   9.225   7.840  11.411  0.0587 -0.5921 -0.3010
21339SOL    HW182009   9.213   7.751  11.447 -1.0086 -1.1202 -1.8641
21339SOL    HW282010   9.233   7.827  11.317  0.3574  0.9546 -0.5121
21340SOL     OW82011  11.822   7.325   0.383  0.0408  1.0635 -0.2726
21340SOL    HW182012  11.726   7.323   0.387  0.0049  1.7018 -0.8344
21340SOL    HW282013  11.849   7.351   0.471 -0.2611  0.0785  0.1352
21341SOL     OW82014   7.200   7.806  13.167 -0.3794  0.1870  0.3143
21341SOL    HW182015   7.260   7.846  13.229 -0.6638  1.1307 -0.0000
21341SOL    HW282016   7.254   7.746  13.115 -0.3109 -1.3663  2.0752
21342SOL     OW82017  12.110   7.211   8.351  0.1275 -0.6749 -0.4000
21342SOL    HW182018  12.076   7.300   8.344 -0.5324 -1.0027 -1.6467
21342SOL    HW282019  12.119   7.181   8.261  1.3978 -1.4916 -0.0380
21343SOL     OW82020  10.438   7.925   1.605  0.4549 -0.6237 -0.2794
21343SOL    HW182021  10.521   7.876   1.605  0.8331 -0.0440  1.3065
21343SOL    HW282022  10.457   8.003   1.657  0.2009  1.8657 -3.5886
21344SOL     OW82023   7.258   3.437   7.667  0.1367 -0.6240  0.7423
21344SOL    HW182024   7.336   3.493   7.675 -0.8042  1.0099 -0.6287
21344SOL    HW282025   7.293   3.350   7.651  1.8122  0.4116 -2.1629
21345SOL     OW82026   0.870  12.720   4.651 -0.8071  0.7362 -0.6914
21345SOL    HW182027   0.960  12.731   4.621 -0.7403 -0.2703 -0.8917
21345SOL    HW282028   0.870  12.637   4.698 -1.6607  0.6501 -0.8178
21346SOL     OW82029  11.235  12.937   9.235 -0.0601  0.1911  0.2200
21346SOL    HW182030  11.247  12.939   9.330 -1.2439 -0.3087  0.4041
21346SOL    HW282031  11.220  12.844   9.215 -1.6624  0.4954 -0.1744
21347SOL     OW82032  11.286  10.390   6.524  0.3250  0.4606  0.3880
21347SOL    HW182033  11.319  10.434   6.602  0.4680 -2.6957  2.2891
21347SOL    HW282034  11.317  10.300   6.532 -0.7642 -0.3284 -2.6985
21348SOL     OW82035   9.542   5.695  13.468  0.2466 -0.1958  0.1227
21348SOL    HW182036   9.626   5.722  13.504 -0.1077 -0.0062  0.8281
21348SOL    HW282037   9.477   5.731  13.528 -0.4706  1.6640 -1.6281
21349SOL     OW82038   8.350   3.909  11.404  0.0769  0.6289  0.4452
21349SOL    HW182039   8.394   3.903  11.320  1.8581  0.8043  1.3193
21349SOL    HW282040   8.260   3.882  11.386  0.4590  0.4964 -1.4581
21350SOL     OW82041   6.122  12.348   5.027  0.6123 -0.4882  0.2560
21350SOL    HW182042   6.209  12.387   5.031  1.5148 -2.4717  1.9374
21350SOL    HW282043   6.137  12.260   4.991 -0.7733 -0.7116  0.1646
21351SOL     OW82044   4.564   8.067   8.052  0.2013 -0.1051 -0.3747
21351SOL    HW182045   4.510   7.993   8.082 -0.5093  0.2751 -0.7036
21351SOL    HW282046   4.542   8.138   8.112  1.2583 -0.2897  0.2528
21352SOL     OW82047   8.077  12.543  13.450  0.2608 -0.1895  0.2683
21352SOL    HW182048   8.169  12.518  13.444  0.5520  0.6918  0.8924
21352SOL    HW282049   8.046  12.503  13.531  0.2677  0.0477  0.3882
21353SOL     OW82050  11.328   2.430  11.060  0.1476 -0.1060  0.5896
21353SOL    HW182051  11.295   2.340  11.053 -1.3139  0.4740 -0.7746
21353SOL    HW282052  11.346   2.455  10.969  0.8014  0.8902  0.9825
21354SOL     OW82053   7.236  12.071   7.377 -0.4691 -0.1920  0.2992
21354SOL    HW182054   7.176  12.124   7.430 -3.1158 -3.0130  0.4499
21354SOL    HW282055   7.234  12.111   7.290  0.7845  2.1749  1.2945
21355SOL     OW82056   8.640   1.913  11.457  0.4045  0.1099 -0.3448
21355SOL    HW182057   8.600   1.878  11.377 -0.2214 -0.3783  0.1641
21355SOL    HW282058   8.574   1.972  11.493 -0.2878 -1.3795  0.9757
21356SOL     OW82059   9.285   7.114   4.188 -0.1337  0.0133  0.0810
21356SOL    HW182060   9.291   7.175   4.114 -4.4476  0.4917 -0.0866
21356SOL    HW282061   9.245   7.035   4.152 -1.1092 -0.2339  1.6104
21357SOL     OW82062   6.372  12.959   5.353  0.4329  0.3723 -0.1295
21357SOL    HW182063   6.417  12.958   5.269  0.6305  0.8999 -0.0338
21357SOL    HW282064   6.371  13.052   5.379 -0.9641  0.4204 -0.2751
21358SOL     OW82065  11.604   3.042  13.513  0.3136  0.2682 -0.5030
21358SOL    HW182066  11.641   2.958  13.543  1.6532  1.1399  0.3937
21358SOL    HW282067  11.613   3.039  13.418  2.1301  0.1393 -0.3651
21359SOL     OW82068   4.928   8.672  11.148  0.5447  0.0257 -0.0440
21359SOL    HW182069   4.976   8.750  11.178  1.4851 -0.9057  0.9436
21359SOL    HW282070   4.994   8.619  11.104  0.3541 -1.0810  0.9574
21360SOL     OW82071  10.984   1.714   5.849 -0.1511  0.1759 -0.3249
21360SOL    HW182072  10.973   1.733   5.942  0.0803  1.3633 -0.5253
21360SOL    HW282073  10.918   1.768   5.806  0.1199  0.0651 -0.8872
21361SOL     OW82074   5.954   7.804  13.086  0.1793  0.3935 -0.1279
21361SOL    HW182075   5.883   7.808  13.150 -0.1358  0.6922 -0.4837
21361SOL    HW282076   6.034   7.807  13.138 -0.0363  2.6793  0.1865
21362SOL     OW82077   1.357   9.029   8.546 -0.3863 -0.1582 -0.1081
21362SOL    HW182078   1.265   9.008   8.565 -0.5450  1.2022  0.8184
21362SOL    HW282079   1.405   8.993   8.620 -0.4453  0.9538  0.5005
21363SOL     OW82080   0.034  10.107  12.972  0.0442  0.3265  0.0656
21363SOL    HW182081   0.057  10.019  12.941 -0.4651  0.3191 -0.3059
21363SOL    HW282082  -0.019  10.092  13.050  0.5024  0.3202  0.3759
21364SOL     OW82083   0.539   9.619  12.828  0.0586  0.0715 -0.1195
21364SOL    HW182084   0.461   9.595  12.878  0.2654  1.4817  0.9715
21364SOL    HW282085   0.505   9.662  12.750 -0.3083  1.2644  0.6563
21365SOL     OW82086   4.606  11.656   2.317  0.1514 -0.6408 -0.3033
21365SOL    HW182087   4.612  11.619   2.228 -1.2635 -0.7084 -0.3872
21365SOL    HW282088   4.546  11.730   2.308  0.0436 -0.6144  0.5929
21366SOL     OW82089  13.387   0.575   9.061  0.0767 -0.2617  0.8320
21366SOL    HW182090  13.438   0.652   9.086  1.0021 -0.9388  1.1171
21366SOL    HW282091  13.350   0.597   8.975  1.7277 -0.1105  0.1149
21367SOL     OW82092   3.603  13.365   7.796  0.3528 -0.0671 -0.3203
21367SOL    HW182093   3.579  13.452   7.825  0.4324 -0.7865  2.0823
21367SOL    HW282094   3.696  13.373   7.774  0.4666  0.3646  0.2865
21368SOL     OW82095   3.299   0.948   2.070 -0.6466 -0.4249  0.0241
21368SOL    HW182096   3.320   0.857   2.048  3.1299  0.8859 -2.8819
21368SOL    HW282097   3.383   0.987   2.095 -1.7570  2.6756 -0.6774
21369SOL     OW82098   6.841   4.701   2.858  0.1751 -0.0479 -0.4071
21369SOL    HW182099   6.869   4.649   2.933  0.7392 -2.7337 -2.3570
21369SOL    HW282100   6.922   4.739   2.823 -0.1428  1.6233  0.5306
21370SOL     OW82101   0.416   3.704   6.143  0.0956  0.2974  0.4251
21370SOL    HW182102   0.365   3.784   6.129  2.2147  1.6774  0.0715
21370SOL    HW282103   0.471   3.725   6.219 -0.0913 -1.2618  1.0168
21371SOL     OW82104  14.003   2.862   6.103  0.0163  0.2727  0.0366
21371SOL    HW182105  13.922   2.861   6.155 -0.6712 -0.5112 -1.0160
21371SOL    HW282106  14.030   2.770   6.100  0.8746  0.5089  0.2438
21372SOL     OW82107  12.937   2.250  13.501  0.5115  0.2686 -0.4850
21372SOL    HW182108  13.005   2.303  13.459  0.7516  0.8312  0.5763
21372SOL    HW282109  12.973   2.162  13.504  0.3697  0.1604 -1.7126
21373SOL     OW82110   1.665   3.840  13.789 -0.2920  0.4531 -0.1971
21373SOL    HW182111   1.670   3.849  13.885 -2.3090 -0.6429  0.0816
21373SOL    HW282112   1.724   3.768  13.769  0.4223  0.9222  0.1526
21374SOL     OW82113   3.335  10.959  13.759  0.1694  0.5054 -0.5727
21374SOL    HW182114   3.354  10.968  13.665  3.7483  0.4348  0.0133
21374SOL    HW282115   3.406  10.906  13.793 -1.3921 -0.0287  2.1418
21375SOL     OW82116   4.402   2.552   3.560  0.0896 -0.1368  0.4207
21375SOL    HW182117   4.447   2.480   3.515  0.8407  0.1998  0.6062
21375SOL    HW282118   4.434   2.547   3.651  1.2436  1.2627  0.1271
21376SOL     OW82119   4.165   2.912   4.405  0.0966  0.0731  0.2332
21376SOL    HW182120   4.212   2.995   4.402  2.7752 -1.2940  1.1126
21376SOL    HW282121   4.223   2.854   4.454 -2.0581 -2.0988  0.3594
21377SOL     OW82122  10.403  11.628   5.901  0.0976 -0.5788 -0.0305
21377SOL    HW182123  10.398  11.564   5.972 -1.6608 -2.0517 -1.3733
21377SOL    HW282124  10.424  11.576   5.823 -2.9259  0.0988 -1.4625
21378SOL     OW82125   6.850   5.095  10.595 -0.2487  0.0236 -0.9474
21378SOL    HW182126   6.873   5.105  10.503  0.6321 -0.9069 -0.8400
21378SOL    HW282127   6.931   5.110  10.643 -0.9594  1.8584 -0.1963
21379SOL     OW82128   2.305   0.816  12.720 -0.1226 -0.2040 -0.1327
21379SOL    HW182129   2.345   0.834  12.805 -0.9867  0.2081  0.1968
21379SOL    HW282130   2.286   0.902  12.683  0.5007 -0.3768 -0.8721
21380SOL     OW82131   0.732  12.108   1.460 -0.6517 -0.4468 -0.1353
21380SOL    HW182132   0.723  12.121   1.366  0.9141  0.7823 -0.1397
21380SOL    HW282133   0.650  12.064   1.485 -0.1878 -2.9252 -2.4071
21381SOL     OW82134   2.953   3.868   2.517  0.1440 -0.3861 -0.0384
21381SOL    HW182135   2.871   3.819   2.512 -0.0888 -0.1887  1.4085
21381SOL    HW282136   3.007   3.817   2.578  0.0801  0.8530  1.0983
21382SOL     OW82137   2.488  12.246  12.704 -0.0675 -0.2005  0.3046
21382SOL    HW182138   2.498  12.203  12.789 -0.7516 -1.0143 -0.0084
21382SOL    HW282139   2.397  12.229  12.679 -0.1877  0.9764 -0.0920
21383SOL     OW82140   9.467  13.640  11.330 -0.4981  0.0228  0.1217
21383SOL    HW182141   9.522  13.687  11.268  0.9610  0.4220  1.6746
21383SOL    HW282142   9.438  13.707  11.392 -1.0700 -0.5621  0.4943
21384SOL     OW82143   5.976   6.376  11.417  0.7526  0.1315  0.0709
21384SOL    HW182144   6.047   6.314  11.432 -0.1024 -0.7291  0.7696
21384SOL    HW282145   5.956   6.411  11.504  0.1133  0.1183 -0.0666
21385SOL     OW82146   3.690   1.447   3.315 -0.0191 -0.0755  0.5162
21385SOL    HW182147   3.746   1.522   3.294 -0.5714  0.2075  0.0304
21385SOL    HW282148   3.637   1.477   3.389 -0.5826  0.1919  0.0102
21386SOL     OW82149   7.830  10.922   8.170 -0.3468 -0.2104 -0.1137
21386SOL    HW182150   7.887  10.880   8.106  1.3997  0.6089  0.8221
21386SOL    HW282151   7.890  10.974   8.224 -1.9060  0.0701  1.4199
21387SOL     OW82152   9.642   3.038   7.834 -0.0890 -0.5185 -0.0246
21387SOL    HW182153   9.610   3.068   7.749  1.3294 -0.3236 -0.5245
21387SOL    HW282154   9.731   3.074   7.840  0.0959 -1.1199  1.2311
21388SOL     OW82155   1.490   8.225  10.155  0.4729 -0.0713 -0.1995
21388SOL    HW182156   1.560   8.279  10.120 -0.2020  1.5708  0.8753
21388SOL    HW282157   1.494   8.238  10.250 -0.3860 -1.0882  0.0053
21389SOL     OW82158  11.560   6.423  13.456  0.0834 -0.0642 -0.2889
21389SOL    HW182159  11.618   6.358  13.496 -0.5210 -0.2410  0.3419
21389SOL    HW282160  11.544   6.486  13.526 -2.3482 -1.2805  0.3607
21390SOL     OW82161   7.866  10.404  11.743 -0.0540 -0.5513 -0.2526
21390SOL    HW182162   7.848  10.477  11.803  1.2075 -0.1108 -0.3689
21390SOL    HW282163   7.820  10.427  11.663 -0.6675 -0.4892  0.1142
21391SOL     OW82164   4.571   0.328  13.672 -0.4816  0.0970  0.4906
21391SOL    HW182165   4.541   0.309  13.583  0.2539 -0.5400  0.3679
21391SOL    HW282166   4.666   0.316  13.669 -0.2304  1.6002  0.9831
21392SOL     OW82167   2.650  10.671   6.011 -0.0490 -0.1559  0.1035
21392SOL    HW182168   2.731  10.701   6.053 -1.0978  0.6967  1.6180
21392SOL    HW282169   2.587  10.665   6.083 -1.5845  0.0722 -1.1798
21393SOL     OW82170   4.766  11.091  13.269 -0.3205  0.4501 -0.6088
21393SOL    HW182171   4.692  11.135  13.312 -0.9848 -1.5967  0.4754
21393SOL    HW282172   4.725  11.033  13.205  0.4774  0.6765 -1.3361
21394SOL     OW82173  12.678  12.825  13.977 -0.3467 -0.3763  0.3851
21394SOL    HW182174  12.715  12.911  13.954  1.1320 -1.1736 -0.3986
21394SOL    HW282175  12.591  12.825  13.938  0.2029  0.2219 -0.8939
21395SOL     OW82176   8.918   6.211  11.755  0.0027 -0.2791 -0.0125
21395SOL    HW182177   8.841   6.241  11.707  0.8111 -0.0125 -1.2051
21395SOL    HW282178   8.887   6.194  11.844 -1.0642  1.5537  0.0144
21396SOL     OW82179  13.093   6.623   6.028 -0.5768 -0.4879 -0.0741
21396SOL    HW182180  13.175   6.654   5.989  0.3263 -0.2543  1.8976
21396SOL    HW282181  13.093   6.528   6.011 -0.2306 -0.3883 -0.6655
21397SOL     OW82182   2.261   0.357   0.548  0.6157  0.0621  0.0602
21397SOL    HW182183   2.286   0.449   0.541  1.1813 -0.0376  0.6939
21397SOL    HW282184   2.188   0.357   0.610  1.6885 -0.0790  1.3740
21398SOL     OW82185   0.899   7.044   3.528 -0.5458  0.0975  0.2969
21398SOL    HW182186   0.870   7.024   3.617 -0.0574  1.0801  0.6890
21398SOL    HW282187   0.821   7.082   3.486 -0.0280  2.4564  1.2578
21399SOL     OW82188   0.581   5.503   6.255 -0.4854 -0.3466 -0.0614
21399SOL    HW182189   0.499   5.464   6.225 -0.4422 -2.0910  1.8001
21399SOL    HW282190   0.572   5.508   6.350  0.8012  1.3349  0.0289
21400SOL     OW82191  12.819   4.282   0.486 -0.1205 -0.0313  0.2784
21400SOL    HW182192  12.858   4.310   0.403  1.9129  1.4043  1.6544
21400SOL    HW282193  12.784   4.362   0.525  0.1289 -0.4594  1.4100
21401SOL     OW82194   2.521  14.032   6.905  0.3742  0.2288 -0.2559
21401SOL    HW182195   2.612  14.013   6.927  0.1063  0.4863  1.1051
21401SOL    HW282196   2.506  13.982   6.824  2.0526  1.1175 -1.1869
21402SOL     OW82197   5.668  10.961   3.596  0.1444 -0.6063 -0.4682
21402SOL    HW182198   5.663  10.906   3.674  2.7681 -1.8603 -1.0792
21402SOL    HW282199   5.757  10.995   3.596  0.5741 -1.4572 -3.3796
21403SOL     OW82200   3.546   2.086   6.626 -0.1543 -0.0504  0.1598
21403SOL    HW182201   3.480   2.076   6.695 -1.2017  0.4710 -0.7210
21403SOL    HW282202   3.549   2.181   6.611 -1.2045 -0.2521 -1.6399
21404SOL     OW82203   8.461  12.064  12.818  0.6467 -0.4779 -0.1806
21404SOL    HW182204   8.390  12.094  12.761  1.6325 -0.0708 -1.2275
21404SOL    HW282205   8.541  12.083  12.769  1.6412  1.1871  1.9178
21405SOL     OW82206   0.554   0.625  13.017 -0.2371 -0.2537  0.0155
21405SOL    HW182207   0.515   0.547  12.979 -1.4399  0.2059  0.2670
21405SOL    HW282208   0.531   0.696  12.957 -0.0669  0.0821  0.3388
21406SOL     OW82209   9.303   3.815  10.063 -0.2999  0.2321 -0.3937
21406SOL    HW182210   9.331   3.868  10.138  0.5445 -0.9375  0.1469
21406SOL    HW282211   9.254   3.876  10.008 -1.4828  0.9865  1.4039
21407SOL     OW82212   4.289   5.687   3.329  0.5960  0.3243 -0.0459
21407SOL    HW182213   4.375   5.708   3.294  0.9744 -0.3207  0.4594
21407SOL    HW282214   4.294   5.713   3.421 -0.2802  1.7179 -0.3512
21408SOL     OW82215  13.072   2.458   4.092  0.2094 -0.2306 -0.4613
21408SOL    HW182216  13.161   2.456   4.127  0.5897 -1.1643 -1.4180
21408SOL    HW282217  13.043   2.548   4.106  0.7368 -0.2862  1.2051
21409SOL     OW82218  12.342   1.341   3.692 -0.4193  0.6353  0.1466
21409SOL    HW182219  12.258   1.306   3.721 -0.0969 -0.4703 -0.1987
21409SOL    HW282220  12.397   1.263   3.679  0.0193  1.2039 -1.6317
21410SOL     OW82221   8.631   4.808   1.064 -0.3933 -0.1635  0.0858
21410SOL    HW182222   8.654   4.716   1.077  1.7153  0.3663  0.4094
21410SOL    HW282223   8.539   4.813   1.092 -0.2691 -1.9533  1.0041
21411SOL     OW82224   9.555  13.730   9.383  0.5179  0.2177 -0.7692
21411SOL    HW182225   9.636  13.776   9.360  1.8193 -0.3661  2.1450
21411SOL    HW282226   9.555  13.729   9.479 -0.9352 -3.2219 -0.6465
21412SOL     OW82227   3.169   2.825   5.344 -0.1068  0.3628  0.2184
21412SOL    HW182228   3.093   2.884   5.338  0.0386  0.5242 -0.0464
21412SOL    HW282229   3.145   2.751   5.288  0.8274  1.4070 -1.6491
21413SOL     OW82230   4.607   1.844  13.815  0.5124 -0.9207 -0.2099
21413SOL    HW182231   4.556   1.791  13.876  0.5933 -1.0394 -0.2460
21413SOL    HW282232   4.675   1.885  13.869 -0.3975  0.2568  0.0768
21414SOL     OW82233   4.760  10.191  12.289 -0.0008  0.8024 -0.2497
21414SOL    HW182234   4.818  10.149  12.226 -1.5379  0.1626 -1.3043
21414SOL    HW282235   4.739  10.276  12.249  1.6603  1.8664  1.0235
21415SOL     OW82236   4.507   9.447  10.998 -0.4031  0.7809  0.2954
21415SOL    HW182237   4.545   9.465  10.912 -0.4592 -0.1302  0.0690
21415SOL    HW282238   4.551   9.367  11.027 -0.1104  1.2830  1.2907
21416SOL     OW82239   7.498   8.215   0.599  0.1896  0.0889 -0.0201
21416SOL    HW182240   7.583   8.175   0.621 -0.2101 -0.8862 -0.1679
21416SOL    HW282241   7.445   8.202   0.678 -0.6546 -1.7361 -0.8174
21417SOL     OW82242   5.095   7.104   5.821  0.0893  0.5990 -0.5014
21417SOL    HW182243   5.032   7.057   5.765 -1.0019  0.1220  1.0661
21417SOL    HW282244   5.145   7.035   5.864 -0.1223  0.9089  0.2560
21418SOL     OW82245   2.175   2.048   9.497 -0.5709  0.2327 -0.3055
21418SOL    HW182246   2.141   2.136   9.483 -1.6581 -0.2217 -0.6167
21418SOL    HW282247   2.182   2.011   9.409 -1.3472 -0.4276 -0.0957
21419SOL     OW82248  13.167   4.906  10.357  0.8422 -0.0957 -0.3060
21419SOL    HW182249  13.123   4.974  10.409  2.5183  0.5527  0.3537
21419SOL    HW282250  13.176   4.832  10.417 -0.0832 -0.5427 -0.7076
21420SOL     OW82251   1.355   2.052  12.031  0.0429 -0.5903 -0.0278
21420SOL    HW182252   1.393   1.976  12.075 -1.1746 -1.4994 -0.5062
21420SOL    HW282253   1.263   2.052  12.056 -0.0749  0.4778 -0.3908
21421SOL     OW82254   4.491  12.119   5.065 -0.2979 -0.0061  0.1888
21421SOL    HW182255   4.476  12.175   4.989 -0.5548  0.4319  0.5606
21421SOL    HW282256   4.454  12.034   5.039  0.3318 -0.0887 -0.4748
21422SOL     OW82257   1.276  14.003   3.899  0.2947  0.2700  0.4123
21422SOL    HW182258   1.350  14.055   3.929  0.7677 -0.2458  0.1487
21422SOL    HW282259   1.240  14.052   3.825 -0.4218  1.1693  1.3059
21423SOL     OW82260  12.693  13.965   4.661  0.3085  0.9211 -0.7689
21423SOL    HW182261  12.647  14.042   4.696  0.9641  1.0849 -0.2529
21423SOL    HW282262  12.656  13.953   4.573 -1.4722  0.4121  0.0088
21424SOL     OW82263  13.737   2.388   1.454 -0.2637  0.4743  0.0500
21424SOL    HW182264  13.731   2.457   1.388 -0.8713 -1.4455 -2.0253
21424SOL    HW282265  13.646   2.361   1.469 -0.0741  0.4212  1.1765
21425SOL     OW82266   5.860   8.154  11.815 -0.8410 -0.3082 -0.1050
21425SOL    HW182267   5.841   8.230  11.870 -2.0079 -0.9696  0.4453
21425SOL    HW282268   5.872   8.190  11.727  0.9785  0.7572  0.5379
21426SOL     OW82269   1.143  11.377  13.628  0.3570  0.1080 -0.0652
21426SOL    HW182270   1.048  11.390  13.624  0.3984  0.1210 -1.6749
21426SOL    HW282271   1.179  11.443  13.569  1.4257  0.4900  0.9851
21427SOL     OW82272   1.669   8.578  10.594 -0.1748  0.2559 -0.3627
21427SOL    HW182273   1.597   8.557  10.654  1.5603  0.1974  1.8064
21427SOL    HW282274   1.673   8.503  10.534 -0.6981 -0.6493  0.7048
21428SOL     OW82275  14.081   8.579   7.979 -0.5060 -0.2653 -0.2973
21428SOL    HW182276  13.994   8.580   8.019  0.5572 -1.7173  2.2572
21428SOL    HW282277  14.142   8.581   8.053  1.6616  0.1957 -1.9842
21429SOL     OW82278   0.732  12.502  12.507  0.4965 -0.3429 -0.4194
21429SOL    HW182279   0.822  12.533  12.497 -0.0073  0.6838 -2.4086
21429SOL    HW282280   0.682  12.580  12.531 -0.2282 -0.3513 -1.8168
21430SOL     OW82281   8.402   5.922  12.133 -0.1980 -0.1059  0.1514
21430SOL    HW182282   8.414   6.001  12.186 -2.1633  1.0724 -0.9977
21430SOL    HW282283   8.418   5.951  12.043 -2.4686 -0.5595 -0.4604
21431SOL     OW82284   2.930   4.938   6.312  0.7533 -0.9529 -0.1560
21431SOL    HW182285   2.996   4.920   6.379  0.0576  0.3560  0.9222
21431SOL    HW282286   2.979   4.976   6.239  1.0410  2.1423  1.4806
21432SOL     OW82287   2.667   4.634   8.528 -0.5385  0.6068  0.0201
21432SOL    HW182288   2.599   4.698   8.552 -0.0991  1.7201 -1.5487
21432SOL    HW282289   2.748   4.671   8.564 -0.2317  1.1380 -1.1799
21433SOL     OW82290   0.864   2.775  10.095 -0.1620 -0.6232 -0.2283
21433SOL    HW182291   0.948   2.789  10.137 -1.0927 -1.1195  1.9227
21433SOL    HW282292   0.843   2.860  10.055  0.5816 -0.0042  0.6594
21434SOL     OW82293   7.062  11.733   2.630 -0.5594 -0.2059  0.2791
21434SOL    HW182294   7.027  11.677   2.561  0.3015 -2.9838  1.9156
21434SOL    HW282295   7.111  11.801   2.584 -1.3690 -0.9582 -1.8224
21435SOL     OW82296  12.576  12.232   7.251  0.0294  0.5323 -0.3664
21435SOL    HW182297  12.560  12.252   7.343  0.1663 -0.1672 -0.1869
21435SOL    HW282298  12.651  12.285   7.227 -0.2880  1.0628 -0.2054
21436SOL     OW82299  12.712  13.890   2.483 -0.3975 -0.1564  0.0193
21436SOL    HW182300  12.772  13.852   2.547 -2.0168  0.1773  1.8071
21436SOL    HW282301  12.752  13.975   2.460  1.0023 -0.9627 -0.6982
21437SOL     OW82302   1.273  13.017   4.676  0.5543 -0.0657  0.0487
21437SOL    HW182303   1.245  12.927   4.693  0.4113  0.2786  1.7874
21437SOL    HW282304   1.191  13.065   4.659  0.3103  0.3014  2.0367
21438SOL     OW82305   0.269   1.335  12.022  0.2096 -0.1497  0.5128
21438SOL    HW182306   0.225   1.256  12.053  0.3135 -0.3959  0.0523
21438SOL    HW282307   0.335   1.302  11.961 -0.5163  0.3720 -0.5758
21439SOL     OW82308  12.952   4.820   0.963  0.4055  0.1982 -0.2831
21439SOL    HW182309  12.933   4.749   1.025 -1.0100 -0.2252 -1.1592
21439SOL    HW282310  12.881   4.815   0.899  2.0911  0.3182 -2.2352
21440SOL     OW82311   4.059   7.548   6.402 -0.1150 -0.2509 -0.0312
21440SOL    HW182312   4.046   7.609   6.474  0.2525 -1.8144  1.4438
21440SOL    HW282313   3.973   7.511   6.385 -0.5676  1.4612 -1.7302
21441SOL     OW82314   9.845   6.029   3.662 -0.1199 -0.2237  0.7485
21441SOL    HW182315   9.797   6.002   3.584 -1.7415  0.6375  1.3981
21441SOL    HW282316   9.932   6.054   3.630 -0.9679  0.7760 -0.8734
21442SOL     OW82317   0.186  10.776  11.117 -0.2707  0.0301  0.9830
21442SOL    HW182318   0.275  10.760  11.086 -1.0104 -1.4285 -0.5477
21442SOL    HW282319   0.150  10.839  11.054 -1.2219 -1.6261 -0.2135
21443SOL     OW82320  13.387  10.024   0.137  0.2205 -0.4420 -0.1894
21443SOL    HW182321  13.353  10.044   0.224  1.5605  0.7517  0.0982
21443SOL    HW282322  13.470   9.979   0.154  0.8107  0.3822 -0.8420
21444SOL     OW82323   8.847   3.360  13.803 -0.2328  0.2296  0.6559
21444SOL    HW182324   8.897   3.377  13.723  0.7920  0.0848  1.2404
21444SOL    HW282325   8.761   3.333  13.772  1.1936 -3.5652 -0.6216
21445SOL     OW82326  13.750   2.368  12.653  0.7713  0.3348 -0.0927
21445SOL    HW182327  13.662   2.337  12.673  0.5758  0.6490 -0.4551
21445SOL    HW282328  13.737   2.448  12.602  1.2617  1.3996  1.3874
21446SOL     OW82329   3.010   2.657   1.083 -0.1164  0.3809  0.5213
21446SOL    HW182330   3.057   2.603   1.146  0.7783  1.6031  0.9419
21446SOL    HW282331   3.006   2.604   1.004  1.0727 -0.1574  0.7994
21447SOL     OW82332   4.770   3.283  12.484 -0.7308  0.1367 -0.9184
21447SOL    HW182333   4.777   3.348  12.554 -0.1556 -0.6920 -0.1956
21447SOL    HW282334   4.854   3.289  12.438 -1.1344  0.7304 -1.5980
21448SOL     OW82335  11.487   5.514   0.042  0.4523 -1.0044  0.1978
21448SOL    HW182336  11.571   5.491   0.083  1.2232  0.0250 -0.7368
21448SOL    HW282337  11.439   5.431   0.036  0.8901 -1.4218  1.8398
21449SOL     OW82338   0.074   0.389  10.068 -0.0689 -0.4332 -0.6935
21449SOL    HW182339  -0.001   0.347  10.111 -0.9614  1.3612 -0.4081
21449SOL    HW282340   0.069   0.361   9.977  0.1765 -2.0131 -0.2492
21450SOL     OW82341  13.799   4.014   3.246  0.0278 -0.3748  0.2445
21450SOL    HW182342  13.737   4.013   3.173  0.1362 -2.0000  0.1457
21450SOL    HW282343  13.836   3.926   3.247  0.9111 -0.0097  1.5223
21451SOL     OW82344   6.182  10.508   7.637 -0.5773 -0.0739 -0.1892
21451SOL    HW182345   6.182  10.581   7.574  1.4948 -1.7390 -2.2897
21451SOL    HW282346   6.101  10.460   7.618 -0.9880  0.5821 -0.1298
21452SOL     OW82347   1.874   9.669   8.499 -0.3642 -0.3209 -0.0023
21452SOL    HW182348   1.848   9.690   8.409 -2.1576 -0.7001  0.4031
21452SOL    HW282349   1.914   9.749   8.531  0.7290 -0.3193 -1.2684
21453SOL     OW82350   2.555   8.551   7.953 -0.2691  0.7712 -0.0776
21453SOL    HW182351   2.608   8.490   8.005 -1.1786 -0.8134 -0.9175
21453SOL    HW282352   2.616   8.618   7.925  2.1728 -2.5074 -3.5420
21454SOL     OW82353  13.408   3.690   7.677 -0.4040 -0.0138 -0.4207
21454SOL    HW182354  13.381   3.608   7.718  1.0335 -0.6852 -0.7406
21454SOL    HW282355  13.331   3.719   7.628 -1.6495  0.0001  1.4380
21455SOL     OW82356  12.278   5.054   3.029  0.0527  0.0594 -0.3060
21455SOL    HW182357  12.285   5.141   3.069  0.6556 -0.7569  1.4436
21455SOL    HW282358  12.350   5.052   2.966 -0.0684  0.8772 -0.4909
21456SOL     OW82359   8.308   3.027   2.254 -0.1019  0.1202 -0.0477
21456SOL    HW182360   8.350   2.984   2.328  2.0817 -2.0134 -2.3467
21456SOL    HW282361   8.217   2.996   2.257  0.8106 -2.8347 -0.1967
21457SOL     OW82362   7.233   5.558   0.519  0.1734  0.2583  0.2014
21457SOL    HW182363   7.315   5.578   0.474 -0.0709 -1.7940 -1.3105
21457SOL    HW282364   7.259   5.546   0.611  1.5138 -0.0643 -0.1990
21458SOL     OW82365   9.427   4.646   7.057 -0.6606  0.3265 -0.3964
21458SOL    HW182366   9.394   4.720   7.005 -1.8090  0.4569  0.4706
21458SOL    HW282367   9.358   4.580   7.052  0.5131 -0.8744 -1.4675
21459SOL     OW82368  13.672  12.119   4.521 -0.5689  0.4077  0.1813
21459SOL    HW182369  13.738  12.089   4.584 -1.0374 -1.7920 -0.2697
21459SOL    HW282370  13.595  12.140   4.574 -0.8005 -0.9562  0.4175
21460SOL     OW82371  13.069   9.092   6.222 -0.4245  0.0499 -0.2407
21460SOL    HW182372  13.095   9.116   6.133  0.4584 -2.2249 -0.6738
21460SOL    HW282373  13.016   9.013   6.210  1.5039 -1.5748  1.3255
21461SOL     OW82374  13.772  13.723   8.154  0.3758  0.5718 -0.4795
21461SOL    HW182375  13.715  13.684   8.220 -2.3763  1.1531 -2.3458
21461SOL    HW282376  13.801  13.805   8.193 -1.0427  0.8107  0.1478
21462SOL     OW82377  10.279   9.974   5.942  0.1085  0.0881 -0.0981
21462SOL    HW182378  10.261  10.065   5.965 -0.3503 -0.0992  0.3209
21462SOL    HW282379  10.337   9.942   6.011  1.7497  0.5580 -1.2034
21463SOL     OW82380  10.076  13.187  13.584  0.2232 -0.7133 -0.5866
21463SOL    HW182381  10.164  13.148  13.590  0.9251  0.8656 -0.0497
21463SOL    HW282382  10.044  13.186  13.674  0.9153  1.3184 -0.2667
21464SOL     OW82383   5.835  12.141   9.230  0.1729 -0.1091 -0.5477
21464SOL    HW182384   5.807  12.150   9.320  0.6331  0.0685 -0.4188
21464SOL    HW282385   5.774  12.195   9.180  0.7769  0.9381 -0.1800
21465SOL     OW82386  11.449   8.941  11.698  0.4590  0.5936 -0.3005
21465SOL    HW182387  11.540   8.921  11.721  0.1633  0.8148  1.1481
21465SOL    HW282388  11.448   9.036  11.685 -0.0122  0.9870  2.1114
21466SOL     OW82389   7.438  10.771   6.420  0.3718 -0.5665 -0.3689
21466SOL    HW182390   7.450  10.860   6.388 -0.6292 -0.5857 -0.8212
21466SOL    HW282391   7.520  10.726   6.397 -0.8097 -1.0237 -4.5107
21467SOL     OW82392  10.377  10.862   9.450 -0.2886  0.8863  0.1507
21467SOL    HW182393  10.345  10.772   9.441  1.6074  0.0955  0.8209
21467SOL    HW282394  10.330  10.910   9.382 -2.0689 -0.3787  0.4047
21468SOL     OW82395   1.552   4.314  13.710 -0.1207 -0.6404  0.8618
21468SOL    HW182396   1.545   4.283  13.800 -2.2032  0.7394  1.2252
21468SOL    HW282397   1.493   4.257  13.660 -0.0167 -0.5267  0.6057
21469SOL     OW82398   4.817   5.920   0.293  0.2991  0.0194 -0.0191
21469SOL    HW182399   4.846   5.837   0.256 -1.8470 -1.2903  1.0331
21469SOL    HW282400   4.810   5.979   0.218  0.1081 -1.3030 -1.0848
21470SOL     OW82401   3.573   7.114   4.502 -0.2346 -0.0111  0.2788
21470SOL    HW182402   3.665   7.094   4.519 -0.1533 -0.5391 -0.6756
21470SOL    HW282403   3.528   7.030   4.514 -0.0934 -0.5863 -2.4286
21471SOL     OW82404  13.128  13.748   3.350  0.0321 -0.5028 -0.9287
21471SOL    HW182405  13.176  13.672   3.318 -1.7495 -1.6756 -0.9361
21471SOL    HW282406  13.195  13.816   3.359  1.6558 -2.0111 -1.0382
21472SOL     OW82407   1.013   6.121  11.383  0.3603  0.3706 -0.0276
21472SOL    HW182408   0.929   6.125  11.429  1.2749  4.2087  1.7508
21472SOL    HW282409   1.074   6.085  11.447  0.3212 -1.4791 -0.9786
21473SOL     OW82410   9.311  11.933   5.858  0.5574  0.3035 -0.5310
21473SOL    HW182411   9.258  11.996   5.810 -1.0413  0.5106  1.3855
21473SOL    HW282412   9.366  11.892   5.791  0.5193  2.5811 -2.0725
21474SOL     OW82413   6.405   0.485  11.793 -0.6645  0.2607 -0.1965
21474SOL    HW182414   6.369   0.573  11.779 -1.2009  0.4751  2.0725
21474SOL    HW282415   6.361   0.430  11.729 -0.4378  1.6009 -1.5555
21475SOL     OW82416   9.113  10.283   4.202  0.1471 -0.1559 -0.1373
21475SOL    HW182417   9.131  10.350   4.135 -0.1577  0.4728  0.3928
21475SOL    HW282418   9.031  10.242   4.173  0.4332 -0.4372 -0.5643
21476SOL     OW82419   5.180  10.232   3.754  0.3640 -0.1096 -0.4850
21476SOL    HW182420   5.225  10.153   3.782  0.5226  0.2676  0.3296
21476SOL    HW282421   5.097  10.201   3.719  0.6247 -0.6753 -0.6072
21477SOL     OW82422   6.112   8.070   3.684 -0.0841  0.4822 -0.0557
21477SOL    HW182423   6.032   8.116   3.710 -0.5440  0.1078 -0.7992
21477SOL    HW282424   6.129   8.100   3.595  0.5316  0.4535  0.0500
21478SOL     OW82425   1.800   4.456  11.327  0.1833 -0.3584  0.3928
21478SOL    HW182426   1.816   4.463  11.233 -1.0225 -1.2487  0.1020
21478SOL    HW282427   1.707   4.436  11.334  0.2548 -0.2911  1.7852
21479SOL     OW82428   1.742   5.324   9.377 -0.6957 -0.2224  0.0540
21479SOL    HW182429   1.714   5.237   9.348 -2.0101 -0.3628  1.6463
21479SOL    HW282430   1.664   5.364   9.415 -0.3243  1.9891 -1.3044
21480SOL     OW82431   3.089   5.736  10.565  0.1615 -0.4123 -0.3252
21480SOL    HW182432   3.027   5.666  10.546  0.0775 -0.9953  1.8620
21480SOL    HW282433   3.043   5.816  10.537 -0.1057 -1.0872 -1.9824
21481SOL     OW82434   6.036  11.150  12.522 -0.1570  0.2508  0.4513
21481SOL    HW182435   6.107  11.097  12.559 -1.6562 -0.1498  3.0559
21481SOL    HW282436   5.970  11.087  12.495 -1.3340  0.6316  2.2175
21482SOL     OW82437   9.154   4.693  13.111  0.3889  0.2446  0.4852
21482SOL    HW182438   9.180   4.752  13.182  0.8099  0.5315  0.0942
21482SOL    HW282439   9.151   4.748  13.033 -1.9376  0.3690  0.5818
21483SOL     OW82440  12.075   6.964   0.239  0.2235  0.4900  0.6557
21483SOL    HW182441  12.044   6.875   0.252 -1.9467  1.1450  0.2767
21483SOL    HW282442  12.083   7.001   0.327 -1.2111  0.6393  0.7485
21484SOL     OW82443   2.039   3.962  10.535  0.1810  0.3586  0.2254
21484SOL    HW182444   2.025   4.033  10.598  1.5234  0.2743  0.6352
21484SOL    HW282445   1.965   3.969  10.475 -0.7885  0.8408  1.4249
21485SOL     OW82446  11.301   6.671   7.387 -0.3594 -0.4022 -0.2089
21485SOL    HW182447  11.293   6.765   7.399 -0.8549 -0.3906 -0.6246
21485SOL    HW282448  11.365   6.661   7.316  0.6706 -0.4182  0.6904
21486SOL     OW82449  13.519  14.041  12.332 -0.2445 -0.1656 -0.5637
21486SOL    HW182450  13.582  14.039  12.404 -0.0280  0.7621 -0.7095
21486SOL    HW282451  13.445  14.091  12.367 -0.7817 -1.0116 -0.4845
21487SOL     OW82452  12.646   6.508  12.833  0.0361 -0.0803  0.1273
21487SOL    HW182453  12.602   6.546  12.909  0.4619 -0.9658  0.8362
21487SOL    HW282454  12.739   6.511  12.855  0.1918  0.0363 -0.5406
21488SOL     OW82455   5.545   8.116  13.781  0.3252 -0.1149 -0.3240
21488SOL    HW182456   5.611   8.065  13.734 -1.2089  0.4552 -3.3682
21488SOL    HW282457   5.494   8.051  13.830  1.7320 -0.7932  0.2843
21489SOL     OW82458  10.408   0.870   8.096  0.4327  0.8632 -0.4142
21489SOL    HW182459  10.470   0.938   8.120 -0.5337  2.1671 -1.4737
21489SOL    HW282460  10.344   0.871   8.167  1.5170 -0.4161  0.6291
21490SOL     OW82461   8.207  10.443   3.605  0.1501  0.0874  0.2072
21490SOL    HW182462   8.129  10.437   3.661 -0.0083 -0.9309 -0.0905
21490SOL    HW282463   8.206  10.532   3.572 -0.9694  0.0587  0.1134
21491SOL     OW82464   7.653   1.767   7.898  0.0183  0.5892  0.5334
21491SOL    HW182465   7.611   1.683   7.918 -0.3923  0.8586  0.8167
21491SOL    HW282466   7.732   1.743   7.850 -0.0796  0.0372  0.6382
21492SOL     OW82467   9.657  14.040   0.900 -0.3845  0.1961  0.0900
21492SOL    HW182468   9.616  14.091   0.830  1.3740  0.4901 -0.7726
21492SOL    HW282469   9.729  14.094   0.932  0.5692 -1.0819  0.2002
21493SOL     OW82470   2.227   1.582   7.396 -0.4001  0.3436  0.8231
21493SOL    HW182471   2.295   1.521   7.425 -1.2079 -2.3271 -2.2731
21493SOL    HW282472   2.146   1.550   7.436 -0.7411 -0.3703 -0.3804
21494SOL     OW82473   9.624  12.199  11.208 -0.3978 -0.0723  0.1371
21494SOL    HW182474   9.534  12.173  11.227 -1.4619  2.5005 -0.9818
21494SOL    HW282475   9.637  12.280  11.257  1.5163 -0.6193  0.6268
21495SOL     OW82476  10.431   5.593   6.156 -0.9189  0.4986  0.6047
21495SOL    HW182477  10.504   5.544   6.196 -0.3355  2.2477  1.7891
21495SOL    HW282478  10.357   5.576   6.213 -0.8338  0.6319  0.7551
21496SOL     OW82479   7.718  12.465   8.801 -0.4278  0.0400  0.0719
21496SOL    HW182480   7.648  12.530   8.792 -0.9431 -0.6858 -1.4635
21496SOL    HW282481   7.672  12.383   8.820  0.1048 -0.2120  0.2976
21497SOL     OW82482   9.793   4.530   8.623 -0.4561 -0.2312 -0.2429
21497SOL    HW182483   9.776   4.553   8.714 -0.7760 -3.4091  0.5938
21497SOL    HW282484   9.887   4.512   8.620 -0.4874 -0.3554 -0.4932
21498SOL     OW82485  11.975   3.778   3.948  0.3256  0.3752 -0.7138
21498SOL    HW182486  11.896   3.726   3.963  1.1215 -0.6767 -0.0130
21498SOL    HW282487  11.951   3.866   3.976 -1.3092  0.6333 -2.6926
21499SOL     OW82488  13.549  12.460   6.205  0.0361  0.4512  0.0064
21499SOL    HW182489  13.524  12.398   6.273 -0.4035  2.3656  1.6728
21499SOL    HW282490  13.597  12.407   6.141 -0.7500 -1.6739  1.0776
21500SOL     OW82491  12.877   8.453  12.964 -0.0272  0.4398  0.7714
21500SOL    HW182492  12.933   8.474  13.039 -1.8141  0.0690  2.2792
21500SOL    HW282493  12.796   8.420  13.003 -0.3175 -1.6180 -1.3738
21501SOL     OW82494   4.959  10.447   9.646 -0.7285  0.1064 -0.0393
21501SOL    HW182495   4.926  10.483   9.728 -1.4305 -1.2332  0.2789
21501SOL    HW282496   4.998  10.363   9.669  0.5957  0.4541 -0.8309
21502SOL     OW82497   8.428   0.067  10.799 -0.0447 -0.6158 -0.4427
21502SOL    HW182498   8.392   0.079  10.887 -2.2840  0.6943 -1.4282
21502SOL    HW282499   8.522   0.081  10.809 -0.3036 -0.0203  1.6570
21503SOL     OW82500   6.456   2.945   6.843  0.0261 -0.0959  0.6102
21503SOL    HW182501   6.425   3.032   6.870  1.4543  0.8608 -0.6849
21503SOL    HW282502   6.381   2.887   6.858 -1.4615  1.6208  0.1447
21504SOL     OW82503   9.205   6.378   5.380 -0.4762  0.0030 -0.5186
21504SOL    HW182504   9.239   6.465   5.359  1.3983 -0.4913  0.2105
21504SOL    HW282505   9.164   6.348   5.299  0.0421  1.0494 -1.1870
21505SOL     OW82506  13.259   0.355   2.643  0.2858 -0.1490  0.0606
21505SOL    HW182507  13.265   0.299   2.566 -0.8412  0.4131 -0.4577
21505SOL    HW282508  13.217   0.299   2.709 -1.5282  0.2734 -0.6861
21506SOL     OW82509   9.004   8.936  11.523  0.0869 -0.3385 -0.4997
21506SOL    HW182510   8.990   8.853  11.568  0.8382 -1.3878 -2.0992
21506SOL    HW282511   9.079   8.976  11.569 -0.3928 -0.4353  0.3889
21507SOL     OW82512   6.701   7.761  10.518  0.0609 -0.6245  0.3199
21507SOL    HW182513   6.629   7.759  10.456  0.5892 -0.3559 -0.3124
21507SOL    HW282514   6.676   7.825  10.584 -0.4641 -0.8497  0.3382
21508SOL     OW82515   6.636  11.000  12.355 -0.2109  0.2013  0.1350
21508SOL    HW182516   6.724  10.963  12.348  0.0784  0.6455  1.2923
21508SOL    HW282517   6.649  11.095  12.348 -0.6052  0.2662  0.2615
21509SOL     OW82518  11.220   2.626  10.510  0.0257 -1.0045  0.3733
21509SOL    HW182519  11.186   2.618  10.599  0.9124  2.2098  1.1131
21509SOL    HW282520  11.308   2.660  10.521  0.3899 -1.1135 -1.7535
21510SOL     OW82521   0.275   2.222   8.376  0.0953 -0.1266 -0.5897
21510SOL    HW182522   0.260   2.305   8.332  0.9030  0.2652 -0.1368
21510SOL    HW282523   0.245   2.236   8.466 -0.1052 -0.4428 -0.6039
21511SOL     OW82524  12.377  11.061  12.688  0.8765 -0.1868 -0.1070
21511SOL    HW182525  12.357  11.129  12.624 -0.9974  0.5223  1.1505
21511SOL    HW282526  12.467  11.080  12.715  0.2992  2.0995  0.4953
21512SOL     OW82527   5.060  12.132  13.911 -0.3383  0.3657  0.4256
21512SOL    HW182528   5.005  12.064  13.949 -2.0733  0.8038 -1.1477
21512SOL    HW282529   5.140  12.086  13.884 -1.1040 -0.8837  0.2164
21513SOL     OW82530   4.293  10.673   7.790  0.2413  0.4974  0.2939
21513SOL    HW182531   4.276  10.639   7.878 -0.7461  0.9263  0.2840
21513SOL    HW282532   4.211  10.715   7.764  0.8028  1.1520 -0.4803
21514SOL     OW82533  11.483   9.483   0.416 -0.2679  0.4322 -0.0065
21514SOL    HW182534  11.447   9.408   0.370 -0.5972  0.0453  0.8460
21514SOL    HW282535  11.443   9.478   0.504  1.1272  0.5366  0.6600
21515SOL     OW82536  12.589  13.011   7.017 -0.3315  0.4062  0.1709
21515SOL    HW182537  12.618  12.926   6.983  1.4364  1.6414 -1.7110
21515SOL    HW282538  12.604  13.006   7.111  0.9434 -0.9485 -0.0625
21516SOL     OW82539   2.230   6.585   6.985  0.3401 -0.0393 -0.8504
21516SOL    HW182540   2.150   6.625   7.020 -0.7209 -0.1820 -2.9314
21516SOL    HW282541   2.231   6.498   7.025  0.3178  0.5059  0.3870
21517SOL     OW82542   1.967   9.167   9.467 -0.0577  0.1560  0.5205
21517SOL    HW182543   1.906   9.094   9.478  0.6347 -0.5960 -0.5679
21517SOL    HW282544   2.010   9.175   9.553  3.3573 -3.9155 -0.4786
21518SOL     OW82545   3.060   4.758   3.169  0.5824  0.3426  0.1586
21518SOL    HW182546   2.982   4.764   3.224  1.5740  1.9514  1.4815
21518SOL    HW282547   3.049   4.677   3.120 -1.0555 -0.3792  1.6277
21519SOL     OW82548   3.134   1.873  13.481  0.8296 -0.2559  0.4333
21519SOL    HW182549   3.139   1.926  13.560 -1.0934 -0.0548  0.4746
21519SOL    HW282550   3.114   1.936  13.412  1.4967 -0.5666 -0.0570
21520SOL     OW82551   0.072   5.664   0.168 -0.0730 -0.0429 -0.4735
21520SOL    HW182552   0.138   5.618   0.219 -0.7707 -0.0269  0.4785
21520SOL    HW282553   0.043   5.735   0.224 -0.3083  0.4568 -1.2115
21521SOL     OW82554  12.342   8.415   9.760 -0.0270 -0.0640 -0.0427
21521SOL    HW182555  12.416   8.472   9.780  0.2792  0.1169 -1.5463
21521SOL    HW282556  12.360   8.334   9.809  1.1445 -0.0019 -0.3458
21522SOL     OW82557  11.547   7.551  12.884  0.1219 -0.0246 -0.1785
21522SOL    HW182558  11.603   7.543  12.806 -3.5875 -0.7339 -3.0727
21522SOL    HW282559  11.563   7.640  12.916  1.4209  0.4998 -2.0974
21523SOL     OW82560   7.836   9.537   5.708  0.3274  0.0934 -0.1434
21523SOL    HW182561   7.754   9.525   5.756 -0.1739  0.0619 -0.9709
21523SOL    HW282562   7.890   9.462   5.734  1.3468  1.7041  2.7769
21524SOL     OW82563   4.656   7.494  10.950 -0.0938 -0.5646  0.4437
21524SOL    HW182564   4.701   7.514  10.868  1.1376 -0.5800  1.0881
21524SOL    HW282565   4.589   7.429  10.926  0.4738 -0.8276 -0.4777
21525SOL     OW82566   3.265   4.105  12.502  0.0977 -0.5245  0.3698
21525SOL    HW182567   3.241   4.014  12.520 -0.5468 -0.3309  0.5203
21525SOL    HW282568   3.360   4.106  12.509  0.0949 -1.1431  0.5922
21526SOL     OW82569  11.204   2.737  11.362 -0.5212  0.5676  0.4333
21526SOL    HW182570  11.219   2.663  11.420 -1.8335 -0.0573  0.0236
21526SOL    HW282571  11.264   2.723  11.289 -2.0518 -1.1601 -0.5656
21527SOL     OW82572   0.010   0.121   3.360 -0.3648  0.0060 -0.0177
21527SOL    HW182573   0.036   0.212   3.371 -0.7255  0.0456  0.5464
21527SOL    HW282574   0.078   0.071   3.405 -0.3075  0.0165 -0.0944
21528SOL     OW82575  11.148   0.444   2.840  0.7602 -0.1759  0.2249
21528SOL    HW182576  11.099   0.384   2.783  0.2597  0.3798  0.0647
21528SOL    HW282577  11.112   0.428   2.927 -1.0599  1.5239 -0.1396
21529SOL     OW82578   5.613   3.622   3.142 -0.2001  0.2387  0.0398
21529SOL    HW182579   5.679   3.559   3.171 -0.6249  0.7739  2.3977
21529SOL    HW282580   5.622   3.624   3.047  4.5496  1.7522  0.2628
21530SOL     OW82581   9.708   6.780   6.609 -0.3802  0.1423 -0.4218
21530SOL    HW182582   9.731   6.778   6.702 -1.0111 -0.0590 -0.2658
21530SOL    HW282583   9.626   6.830   6.606 -0.8776 -0.6877 -0.7539
21531SOL     OW82584  10.812   7.512  12.176 -0.3273 -0.2132 -0.7758
21531SOL    HW182585  10.745   7.521  12.245  0.1221  0.1498 -0.3843
21531SOL    HW282586  10.825   7.417  12.169  1.8181 -0.2146  1.8022
21532SOL     OW82587  12.531   8.801   4.894  0.0765 -0.1267 -0.3329
21532SOL    HW182588  12.519   8.829   4.803  0.9035 -1.2582 -0.8005
21532SOL    HW282589  12.468   8.730   4.905  0.4420 -0.4331 -0.2241
21533SOL     OW82590   2.094   9.117   7.325  0.2151  0.2226  0.1243
21533SOL    HW182591   2.161   9.097   7.391  0.6111  1.5354  0.1405
21533SOL    HW282592   2.072   9.209   7.340  1.7301  1.1677 -2.8324
21534SOL     OW82593   1.889   5.520   5.195 -0.3358 -0.5433  0.3990
21534SOL    HW182594   1.920   5.463   5.265  0.5563 -1.7712 -0.9360
21534SOL    HW282595   1.819   5.471   5.153  1.0542 -1.1482 -1.3480
21535SOL     OW82596  11.155   2.723  13.613 -0.4886 -0.1293  0.2280
21535SOL    HW182597  11.201   2.800  13.581 -0.6235 -0.7538 -1.5415
21535SOL    HW282598  11.117   2.682  13.535 -0.2325 -2.1153  1.0674
21536SOL     OW82599   4.149  11.747   2.408 -0.2790 -0.2936  0.1481
21536SOL    HW182600   4.084  11.679   2.424 -0.4896 -0.3668 -0.9732
21536SOL    HW282601   4.226  11.718   2.458 -0.9194 -0.4645  1.0584
21537SOL     OW82602   7.147   5.994  10.514  0.5628  0.5243 -0.6115
21537SOL    HW182603   7.163   5.904  10.487 -0.3467  0.3842 -0.7205
21537SOL    HW282604   7.230   6.039  10.498  0.6110  0.0264 -1.8790
21538SOL     OW82605   4.592   1.046   9.832 -0.3075  0.6391  0.2622
21538SOL    HW182606   4.578   0.979   9.899 -1.0791  0.9745  0.4423
21538SOL    HW282607   4.530   1.024   9.763  0.9376 -0.1027 -0.6830
21539SOL     OW82608   7.086   6.986  10.233 -0.1466  0.2365 -0.1199
21539SOL    HW182609   7.045   7.069  10.257  1.0939  0.9121 -0.2178
21539SOL    HW282610   7.117   7.001  10.143  1.7112  0.3456  0.5040
21540SOL     OW82611   8.737  10.719   4.019  0.5946  0.2692  0.3937
21540SOL    HW182612   8.817  10.691   3.975  0.8962  0.0376  1.0804
21540SOL    HW282613   8.766  10.781   4.086  0.2686 -0.2895  1.0604
21541SOL     OW82614  13.945   4.473   2.208  0.0863  0.4435  0.0535
21541SOL    HW182615  13.924   4.564   2.226 -2.0221  0.2866 -1.2616
21541SOL    HW282616  13.891   4.424   2.270 -2.1235  0.0690 -2.0079
21542SOL     OW82617   1.077   0.648   1.335  0.0256 -0.6786 -0.4571
21542SOL    HW182618   1.110   0.672   1.248  0.7245  1.3358  0.3003
21542SOL    HW282619   1.150   0.602   1.376  1.0006  1.3431  0.2172
21543SOL     OW82620  10.007  14.104   3.739  0.4924  0.5805  0.4549
21543SOL    HW182621  10.073  14.148   3.793 -1.0120  1.3362  1.7719
21543SOL    HW282622  10.018  14.143   3.652  1.5499  0.9163  0.7195
21544SOL     OW82623  12.826   2.012  12.858  0.2045  0.2810 -0.1806
21544SOL    HW182624  12.747   1.973  12.895  0.8446  0.0613  1.0137
21544SOL    HW282625  12.874   2.045  12.933  0.3567  2.1575 -1.0471
21545SOL     OW82626   1.779  11.444  11.828  0.1395 -0.1563  0.1657
21545SOL    HW182627   1.697  11.426  11.782 -0.4479 -1.1954  1.5519
21545SOL    HW282628   1.841  11.379  11.795  1.0736  1.8435 -2.3476
21546SOL     OW82629  10.349  10.215   1.457 -0.1886 -0.5758  0.0669
21546SOL    HW182630  10.336  10.121   1.440 -1.6594 -0.3502 -0.2436
21546SOL    HW282631  10.400  10.218   1.538  0.3189 -1.6421 -0.1977
21547SOL     OW82632  11.330   2.451   7.775  0.2797  0.0437  0.5214
21547SOL    HW182633  11.262   2.441   7.841  0.5283 -0.6170  0.6889
21547SOL    HW282634  11.303   2.393   7.703  0.1205  0.5938  0.1292
21548SOL     OW82635   3.909   9.723   0.002 -0.2422 -0.3591 -0.1891
21548SOL    HW182636   3.998   9.705  -0.029 -0.4224  1.0552 -1.6666
21548SOL    HW282637   3.891   9.653   0.065  1.3968 -1.4646 -0.8786
21549SOL     OW82638   8.475   0.481   4.557 -0.0110 -0.1366  0.2423
21549SOL    HW182639   8.493   0.437   4.475 -0.7116  0.9589 -0.5297
21549SOL    HW282640   8.509   0.570   4.545 -1.6366  0.5576  0.4778
21550SOL     OW82641   6.676   2.399   6.522  0.0906 -0.1661  0.0057
21550SOL    HW182642   6.739   2.328   6.512 -0.1787 -0.8312  2.3496
21550SOL    HW282643   6.614   2.387   6.451 -0.3401 -2.7599  0.7190
21551SOL     OW82644   1.444  10.779   4.957  0.2530 -0.2964 -0.2287
21551SOL    HW182645   1.358  10.794   4.996  0.6027 -1.9533  1.3097
21551SOL    HW282646   1.426  10.734   4.875 -0.3977  0.9968 -0.8143
21552SOL     OW82647   8.384   4.149  10.627  0.4929  0.2224  0.1556
21552SOL    HW182648   8.304   4.143  10.574 -0.5058  0.2314  1.5789
21552SOL    HW282649   8.430   4.225  10.592 -1.0014  1.2907  0.3956
21553SOL     OW82650   2.797   9.300  12.563 -0.1248  0.0926  0.1833
21553SOL    HW182651   2.801   9.388  12.598 -0.9918 -0.1781  1.0093
21553SOL    HW282652   2.724   9.302  12.500 -0.7444 -0.2485  0.8761
21554SOL     OW82653  12.546   5.285  10.727  0.0512  0.0824 -0.0869
21554SOL    HW182654  12.543   5.381  10.732  1.1203  0.2612 -1.8157
21554SOL    HW282655  12.636   5.263  10.750  0.4619 -0.2773 -1.8846
21555SOL     OW82656   1.762   1.116   8.829  0.2136 -0.1832  0.4677
21555SOL    HW182657   1.828   1.185   8.826 -0.0778  0.1517 -3.5602
21555SOL    HW282658   1.807   1.039   8.795 -0.9668 -0.3736 -0.7668
21556SOL     OW82659  12.004   6.457   1.274 -0.3993 -0.8535 -0.2960
21556SOL    HW182660  12.040   6.542   1.250 -0.5648 -0.8255 -0.4481
21556SOL    HW282661  12.017   6.451   1.369  0.3801 -1.0190 -0.3986
21557SOL     OW82662  14.070  11.368   6.492 -0.0522  0.5765 -0.5565
21557SOL    HW182663  14.144  11.378   6.431  0.8192  1.2296  0.5520
21557SOL    HW282664  14.066  11.274   6.510 -0.1889  0.4045 -1.4512
21558SOL     OW82665   9.947  11.427   6.611  0.3209 -0.3169 -0.5680
21558SOL    HW182666   9.977  11.518   6.603 -0.9593  0.0852 -1.0479
21558SOL    HW282667   9.852  11.434   6.616  0.2352 -1.6150 -0.1754
21559SOL     OW82668   9.803   2.682  11.016 -0.1629 -0.0821 -0.0479
21559SOL    HW182669   9.870   2.614  11.026 -1.9937 -2.2128 -1.2448
21559SOL    HW282670   9.821   2.720  10.930 -1.3403 -1.7213 -1.0539
21560SOL     OW82671   1.586   8.336   6.367 -0.0725  0.1074  0.0522
21560SOL    HW182672   1.555   8.409   6.420 -0.8375  0.7603 -1.2365
21560SOL    HW282673   1.584   8.369   6.277  0.1448 -1.3007 -0.5031
21561SOL     OW82674  10.368  10.836   3.335 -0.0074  0.6686  0.1360
21561SOL    HW182675  10.453  10.800   3.360 -0.6239 -0.9991 -0.0222
21561SOL    HW282676  10.382  10.873   3.248  0.2258 -1.0409 -0.5944
21562SOL     OW82677   9.889   9.809  12.720  0.3403  0.5281 -0.1833
21562SOL    HW182678   9.882   9.903  12.736 -0.0321  0.6169 -0.8216
21562SOL    HW282679   9.837   9.768  12.789  1.1674  0.7448  0.5838
21563SOL     OW82680  12.730  11.904   1.967  0.0646 -0.0214 -0.0153
21563SOL    HW182681  12.646  11.880   2.006  0.1885 -1.8097 -0.7485
21563SOL    HW282682  12.739  11.998   1.985 -0.6352 -0.4088  2.7175
21564SOL     OW82683   6.279   5.913   3.045 -0.1995  0.3563 -0.0895
21564SOL    HW182684   6.222   5.936   3.118 -1.4608  1.5491 -1.3689
21564SOL    HW282685   6.352   5.975   3.050 -0.7613  1.0533 -0.3519
21565SOL     OW82686   1.634   0.192   3.811 -0.5335 -0.0011  1.1831
21565SOL    HW182687   1.653   0.286   3.818 -1.1977  0.1143  1.4678
21565SOL    HW282688   1.598   0.182   3.723 -2.9739  0.4807  2.0499
21566SOL     OW82689  13.345   2.301   8.126  0.0057 -0.0832 -0.5238
21566SOL    HW182690  13.373   2.267   8.211  2.2613  1.7817 -0.4346
21566SOL    HW282691  13.420   2.287   8.068 -0.2541  1.6236 -1.3271
21567SOL     OW82692   0.607   6.499   7.362  0.2308  0.0228  0.3703
21567SOL    HW182693   0.534   6.437   7.364  0.4673 -0.3247 -0.8440
21567SOL    HW282694   0.664   6.472   7.434  0.3440 -1.1970 -0.1629
21568SOL     OW82695   4.640   5.797  10.815 -0.0132  0.4911  0.2344
21568SOL    HW182696   4.563   5.753  10.850 -1.6895  0.1601 -3.4095
21568SOL    HW282697   4.605   5.859  10.750  2.7137  1.2332 -0.6619
21569SOL     OW82698   2.427   6.311   2.910 -0.2894  0.0816 -0.2800
21569SOL    HW182699   2.500   6.367   2.884  0.0305 -0.4417 -0.5395
21569SOL    HW282700   2.381   6.361   2.976 -0.5893  1.0722 -1.2053
21570SOL     OW82701   2.589  10.841   7.471 -0.1189  0.0511  0.3539
21570SOL    HW182702   2.497  10.833   7.496 -0.3727 -0.4897 -0.6627
21570SOL    HW282703   2.588  10.840   7.375  0.9167  0.4432  0.3231
21571SOL     OW82704  10.222   3.793   5.582 -0.3913 -0.3151 -0.1410
21571SOL    HW182705  10.284   3.750   5.524 -0.8266 -0.7006 -0.3282
21571SOL    HW282706  10.265   3.794   5.667 -0.4532 -1.2947 -0.0894
21572SOL     OW82707   8.587   1.593   7.435 -0.3898  0.5532 -0.0052
21572SOL    HW182708   8.672   1.633   7.457  1.6952 -2.6563 -1.4222
21572SOL    HW282709   8.562   1.547   7.515  0.3203 -0.1640 -0.1750
21573SOL     OW82710   5.067  10.558   1.415 -0.4574 -0.2174 -0.1882
21573SOL    HW182711   5.123  10.572   1.338  0.8404 -2.3052  0.2823
21573SOL    HW282712   4.993  10.507   1.382 -0.5489 -0.0155 -0.2919
21574SOL     OW82713   8.171  12.467   7.099  0.0933 -0.0882  1.3730
21574SOL    HW182714   8.166  12.559   7.126  0.6543 -0.2875  2.2374
21574SOL    HW282715   8.097  12.425   7.143 -0.5034  0.0547  0.5089
21575SOL     OW82716   3.291  13.049  10.039 -0.8219 -0.0866 -0.0700
21575SOL    HW182717   3.349  12.974  10.052 -0.3129 -0.2528 -2.7672
21575SOL    HW282718   3.325  13.116  10.098  0.6127 -0.9879  0.1813
21576SOL     OW82719   4.087  11.069   5.152 -0.0540  0.2718  0.1264
21576SOL    HW182720   4.091  11.090   5.245 -2.0084 -2.9054  1.0905
21576SOL    HW282721   3.995  11.082   5.128 -0.0330 -1.0385 -0.7576
21577SOL     OW82722   5.276   5.521   2.905  0.0266 -0.1200 -0.0578
21577SOL    HW182723   5.360   5.483   2.880  0.0201  0.1082 -0.4164
21577SOL    HW282724   5.218   5.503   2.831  0.2695  1.4275 -0.6426
21578SOL     OW82725  13.139   4.281   1.360  0.3210 -0.0515  0.1005
21578SOL    HW182726  13.169   4.305   1.447  1.8659 -0.6590 -0.2383
21578SOL    HW282727  13.045   4.299   1.361  0.4359  0.5697  1.6636
21579SOL     OW82728  13.730   3.003   3.624  0.2132  0.0718 -0.1165
21579SOL    HW182729  13.654   2.985   3.569  0.9423 -0.8648 -0.8588
21579SOL    HW282730  13.773   2.918   3.633  0.2128  0.2337  1.7765
21580SOL     OW82731   4.331  13.651  11.045  0.3350 -0.0128 -0.4276
21580SOL    HW182732   4.238  13.630  11.032 -0.1017 -0.7087  2.7625
21580SOL    HW282733   4.349  13.620  11.134  2.9868  2.3077 -0.0248
21581SOL     OW82734  13.077  12.302   3.221 -0.0457 -0.1911  0.0338
21581SOL    HW182735  13.073  12.328   3.129  0.5373 -0.5817 -0.1105
21581SOL    HW282736  12.993  12.259   3.237 -0.2475  0.0972 -0.2513
21582SOL     OW82737   5.335   7.992   6.943  0.1289 -0.4075 -0.4900
21582SOL    HW182738   5.403   8.012   7.008 -0.0453 -1.4619  0.0482
21582SOL    HW282739   5.382   7.944   6.874  0.3470  0.8596 -1.2594
21583SOL     OW82740   6.240  10.687   8.368 -0.2041  0.5869 -0.3117
21583SOL    HW182741   6.311  10.746   8.344  1.9750 -1.5330  0.5244
21583SOL    HW282742   6.184  10.685   8.290  2.6710 -0.4659 -2.5215
21584SOL     OW82743   0.313   6.422   1.229  0.3634  0.0598 -0.0643
21584SOL    HW182744   0.239   6.474   1.260 -1.3457 -1.4453 -1.4291
21584SOL    HW282745   0.339   6.370   1.306 -1.4160 -0.9417 -0.0908
21585SOL     OW82746   6.988   9.262   3.074  0.6653  0.1010 -0.1764
21585SOL    HW182747   6.975   9.239   2.982  2.5971 -1.8156 -0.0592
21585SOL    HW282748   6.905   9.301   3.101  0.5271  2.1416 -3.0803
21586SOL     OW82749  10.973   7.930  14.020 -0.0476  0.3758 -0.0077
21586SOL    HW182750  10.927   7.881  13.952  0.1393 -1.0647  0.8667
21586SOL    HW282751  10.931   8.016  14.020 -2.2205 -0.6250  0.2272
21587SOL     OW82752   5.767   8.290  12.090 -0.0273 -0.3134 -0.8917
21587SOL    HW182753   5.675   8.271  12.108  0.1062  0.4808  0.7943
21587SOL    HW282754   5.805   8.311  12.176  1.1360  1.8750 -1.8552
21588SOL     OW82755   0.073   5.128  12.079 -0.4272  0.0109 -0.0542
21588SOL    HW182756   0.073   5.210  12.129  1.1263 -0.2651  0.4770
21588SOL    HW282757   0.062   5.060  12.145 -1.8920 -0.2187 -0.5135
21589SOL     OW82758  10.133  10.292   7.477  0.3727  0.2016  0.4402
21589SOL    HW182759  10.156  10.233   7.405 -2.2934 -0.7256  0.2332
21589SOL    HW282760  10.083  10.237   7.537  0.1059  1.6601  1.6014
21590SOL     OW82761  10.257  11.240  12.355 -0.2194  0.0281 -0.2562
21590SOL    HW182762  10.284  11.155  12.322  1.0441  0.1785  0.3240
21590SOL    HW282763  10.328  11.299  12.330  1.0071  0.0849  2.9244
21591SOL     OW82764   0.754   1.550  10.915 -0.0348  0.7707 -0.7497
21591SOL    HW182765   0.843   1.583  10.906  0.3517 -0.4536 -1.7765
21591SOL    HW282766   0.763   1.474  10.973 -0.6522  1.4716  0.3012
21592SOL     OW82767   6.502  12.288  13.492  0.3006 -0.0919  0.3673
21592SOL    HW182768   6.459  12.222  13.437  2.3383  0.4735 -2.0995
21592SOL    HW282769   6.454  12.368  13.474 -0.6610 -0.3948  1.4898
21593SOL     OW82770   5.466   5.323  10.263 -0.5251 -0.0090 -0.5100
21593SOL    HW182771   5.503   5.372  10.337  0.7644 -0.9926 -0.4526
21593SOL    HW282772   5.403   5.383  10.223  1.8880  2.2462 -1.2553
21594SOL     OW82773   6.381   5.324  12.491 -0.0246 -0.8022  0.5426
21594SOL    HW182774   6.439   5.264  12.445  0.3437 -0.6974  0.8625
21594SOL    HW282775   6.434   5.402  12.507 -0.5556 -0.3089 -0.0320
21595SOL     OW82776   3.535   3.403   7.220 -0.0056  0.4396 -0.2092
21595SOL    HW182777   3.545   3.489   7.262  2.5165  0.1804 -0.1080
21595SOL    HW282778   3.489   3.421   7.138 -1.0563  1.6044  0.5980
21596SOL     OW82779   1.167   3.312   0.858  0.7377 -0.0043  0.5172
21596SOL    HW182780   1.169   3.366   0.937  1.0985  1.3146 -0.3495
21596SOL    HW282781   1.250   3.332   0.814 -0.4088  1.0463 -1.2883
21597SOL     OW82782   5.315   4.304  12.839  0.1620  0.5008 -0.2174
21597SOL    HW182783   5.314   4.399  12.831 -1.6614  0.5542  0.1354
21597SOL    HW282784   5.223   4.278  12.829  0.5126 -1.1502  0.4324
21598SOL     OW82785  11.346   9.508   2.598  0.1080  0.1017 -0.0051
21598SOL    HW182786  11.265   9.458   2.591 -1.5580  2.6587 -0.2594
21598SOL    HW282787  11.378   9.515   2.508 -0.1510  0.2632 -0.0851
21599SOL     OW82788  10.255   0.851  11.934 -0.2951  0.4218  0.0839
21599SOL    HW182789  10.327   0.899  11.974 -0.5039  0.4592  0.4141
21599SOL    HW282790  10.271   0.759  11.957 -1.7856  0.6712  2.4734
21600SOL     OW82791  10.828  13.826   4.925  0.2638 -0.2550 -0.3049
21600SOL    HW182792  10.893  13.849   4.859  1.6653  0.0286  1.1124
21600SOL    HW282793  10.879  13.808   5.004 -1.3218 -1.0247  0.5918
21601SOL     OW82794   0.315   2.809   0.967  0.2638 -0.2380 -0.2862
21601SOL    HW182795   0.243   2.807   1.030  1.2624 -0.0080  0.8894
21601SOL    HW282796   0.335   2.902   0.958 -1.3376 -0.0202 -2.7260
21602SOL     OW82797  10.504   7.490   5.713  0.8139  0.4658 -0.1429
21602SOL    HW182798  10.507   7.395   5.713 -1.1776  0.3224 -2.2730
21602SOL    HW282799  10.545   7.516   5.796 -0.1162 -2.2744  1.2665
21603SOL     OW82800   8.108   1.346   6.925 -0.0462  0.1396 -0.2405
21603SOL    HW182801   8.192   1.391   6.917 -0.2883  0.2931 -2.4959
21603SOL    HW282802   8.128   1.264   6.969  1.4352 -0.1835 -1.4567
21604SOL     OW82803   0.300   9.388   4.528  0.3101  0.2580 -0.2598
21604SOL    HW182804   0.349   9.395   4.610 -1.9304  1.1824  1.1174
21604SOL    HW282805   0.359   9.422   4.461  1.6134  1.1095  1.2505
21605SOL     OW82806   3.992   5.501   7.971 -0.0947 -0.1054 -0.5108
21605SOL    HW182807   3.957   5.529   7.886 -0.4359  0.0478 -0.3218
21605SOL    HW282808   3.982   5.578   8.027  0.5098 -0.0709 -0.4391
21606SOL     OW82809   5.137  10.710  11.219 -0.0912  0.0943  0.4577
21606SOL    HW182810   5.157  10.639  11.281 -0.3840 -0.6850 -0.3124
21606SOL    HW282811   5.127  10.788  11.274 -1.1346 -0.7291  1.4874
21607SOL     OW82812   9.610   1.478   1.357  0.3285  0.3648 -0.2827
21607SOL    HW182813   9.537   1.429   1.318  0.7487 -0.1006 -0.4861
21607SOL    HW282814   9.685   1.457   1.303  0.3801  1.8164 -0.8283
21608SOL     OW82815   2.997  11.020   4.513 -0.4963  0.0319  0.1056
21608SOL    HW182816   2.925  10.972   4.473 -0.1413  0.0632 -0.5920
21608SOL    HW282817   2.984  11.009   4.607 -0.0154 -2.0775 -0.0094
21609SOL     OW82818   7.189   0.963  12.459  0.4282  0.8267  0.0368
21609SOL    HW182819   7.224   1.007  12.536 -0.3259 -1.1366  1.5967
21609SOL    HW282820   7.257   0.975  12.392  1.7696  1.3940  1.4271
21610SOL     OW82821   1.264   1.053  11.961  0.1884 -0.3175  0.5607
21610SOL    HW182822   1.189   1.022  11.911 -0.0203  0.0979  0.6112
21610SOL    HW282823   1.325   0.979  11.961  0.9384  0.2274 -1.7687
21611SOL     OW82824   3.902   7.743  10.259  0.2516  0.1910 -0.1228
21611SOL    HW182825   3.843   7.771  10.189 -0.5691 -2.7918 -0.7559
21611SOL    HW282826   3.937   7.825  10.295 -1.1345  1.9091 -2.4094
21612SOL     OW82827  11.266  11.341   2.432  0.1230  0.2014 -0.3086
21612SOL    HW182828  11.193  11.290   2.466  0.2864  0.9165  1.2319
21612SOL    HW282829  11.269  11.320   2.339 -0.1763 -2.1129  0.1393
21613SOL     OW82830   9.553   0.342  14.060  0.2934 -0.1526  0.5220
21613SOL    HW182831   9.560   0.274  13.992  0.4973 -0.8502  1.2305
21613SOL    HW282832   9.592   0.302  14.138  0.1011  0.6577  1.0415
21614SOL     OW82833   8.432  13.168   3.987  1.0687 -0.5056 -0.3085
21614SOL    HW182834   8.508  13.124   3.950  0.9385 -1.1063  0.1231
21614SOL    HW282835   8.364  13.101   3.988  0.6799 -0.1132 -0.2328
21615SOL     OW82836   3.728   4.719   9.425  0.3533 -0.3751  0.1048
21615SOL    HW182837   3.737   4.747   9.334 -1.2628  0.0494  0.0398
21615SOL    HW282838   3.635   4.732   9.445  0.8670  0.5951  2.1697
21616SOL     OW82839   4.132   9.383  11.731  0.3976 -0.5753 -0.4873
21616SOL    HW182840   4.164   9.471  11.710  4.2138 -1.6316  0.0789
21616SOL    HW282841   4.119   9.342  11.646  1.2001 -0.2694 -0.7673
21617SOL     OW82842  10.798   3.277   3.586  0.2732  0.8966 -0.3451
21617SOL    HW182843  10.712   3.254   3.621  0.9895 -1.4446  0.0773
21617SOL    HW282844  10.797   3.245   3.496  0.7620  0.6715 -0.2751
21618SOL     OW82845   6.121   7.567  14.083  0.1054 -0.1722  0.2453
21618SOL    HW182846   6.093   7.476  14.084  0.3730 -0.2571  0.1111
21618SOL    HW282847   6.187   7.573  14.152 -1.4335  0.4207  1.7322
21619SOL     OW82848   9.163   1.137   7.234  0.1209 -0.3409 -0.5613
21619SOL    HW182849   9.149   1.223   7.275  0.7537 -0.6931  0.4414
21619SOL    HW282850   9.247   1.146   7.188 -0.9357  0.2788 -2.4554
21620SOL     OW82851  10.677   8.635  10.470 -0.3038  0.1222 -0.5883
21620SOL    HW182852  10.634   8.550  10.475 -0.7950  0.4364  0.7054
21620SOL    HW282853  10.606   8.699  10.469  0.0870  0.5825  0.0391
21621SOL     OW82854   8.347  13.479   7.652  0.3813 -0.2191  0.2612
21621SOL    HW182855   8.369  13.406   7.594 -0.4751  0.9835 -1.6520
21621SOL    HW282856   8.432  13.515   7.678  0.8969  1.3977 -3.1671
21622SOL     OW82857  10.642  12.004   9.335  0.2692  0.0708 -0.0002
21622SOL    HW182858  10.578  11.938   9.308 -1.5541  1.5759  0.4297
21622SOL    HW282859  10.652  11.989   9.429  1.1422 -0.6245 -0.1923
21623SOL     OW82860  12.399   2.470   1.410 -0.0456 -0.1339  0.0207
21623SOL    HW182861  12.482   2.445   1.451  1.0493  1.2579 -1.2411
21623SOL    HW282862  12.410   2.450   1.318 -1.0936  0.1460 -0.1778
21624SOL     OW82863   1.293   0.626   5.671  0.2395  0.1913  0.3015
21624SOL    HW182864   1.309   0.669   5.755 -0.8906 -1.6216  1.5202
21624SOL    HW282865   1.230   0.682   5.627 -0.9854 -0.0142  1.7184
21625SOL     OW82866   1.181   8.772   2.656  0.5559  0.2572 -0.2675
21625SOL    HW182867   1.158   8.842   2.594 -2.3325  0.6088  1.0605
21625SOL    HW282868   1.197   8.818   2.738  1.2296 -0.4676  0.0127
21626SOL     OW82869   7.136  12.764   4.604 -0.8341 -0.0706  0.2768
21626SOL    HW182870   7.113  12.711   4.680 -0.3544  0.1649  0.5901
21626SOL    HW282871   7.225  12.793   4.621 -0.7315  0.0082 -0.3645
21627SOL     OW82872   3.740   7.323  12.600  0.3671 -0.0917  0.4491
21627SOL    HW182873   3.717   7.306  12.509  1.0428 -1.0172  0.4348
21627SOL    HW282874   3.731   7.417  12.611  1.0015  0.1197 -0.7827
21628SOL     OW82875   4.856   5.683  13.366 -0.3339 -0.0500 -0.3112
21628SOL    HW182876   4.784   5.718  13.312 -0.4403  1.5126  0.7929
21628SOL    HW282877   4.825   5.692  13.456  1.3556  0.9402  0.2051
21629SOL     OW82878   0.559   2.593   6.764 -0.2521  0.6483  0.9508
21629SOL    HW182879   0.477   2.585   6.812 -0.1330 -0.4065  1.0101
21629SOL    HW282880   0.577   2.687   6.760 -3.1034  1.2544 -1.8400
21630SOL     OW82881   6.825   0.422   6.476  0.7774  0.1776  0.2656
21630SOL    HW182882   6.808   0.375   6.558 -1.8739  0.9140  0.2347
21630SOL    HW282883   6.869   0.503   6.503 -0.0094  0.3804  0.9786
21631SOL     OW82884   3.687   1.890  11.523 -0.0580 -0.1451 -0.3905
21631SOL    HW182885   3.601   1.865  11.490  0.0112 -2.6717  1.0680
21631SOL    HW282886   3.738   1.808  11.522  0.8609  0.2237  2.9273
21632SOL     OW82887  12.416   2.687   1.557 -0.0955 -0.0515 -0.4398
21632SOL    HW182888  12.384   2.624   1.492  1.4690 -1.0612 -0.3111
21632SOL    HW282889  12.511   2.691   1.541  0.0701  0.9807  0.6686
21633SOL     OW82890   2.529   9.861   0.196  0.7146  0.1264  0.3937
21633SOL    HW182891   2.590   9.913   0.143  1.7420 -1.5222 -0.0937
21633SOL    HW282892   2.467   9.826   0.133  1.2264 -0.8587  0.4215
21634SOL     OW82893   0.824   3.737   1.249  0.8654  0.1505  0.1675
21634SOL    HW182894   0.787   3.683   1.318  1.9711  0.1354  0.7714
21634SOL    HW282895   0.748   3.773   1.203  0.0639 -2.1396 -0.4714
21635SOL     OW82896   5.026   2.576   9.752  0.0838  0.0934  0.5495
21635SOL    HW182897   5.055   2.662   9.720  0.8493 -0.4372 -0.2407
21635SOL    HW282898   5.011   2.589   9.846  0.7159  0.9555  0.5441
21636SOL     OW82899  12.894  10.591  10.168  0.1750 -0.2981 -0.0802
21636SOL    HW182900  12.968  10.572  10.110 -0.5142 -0.6981 -0.8592
21636SOL    HW282901  12.818  10.556  10.121 -0.7936  1.8485 -0.2288
21637SOL     OW82902  11.706  11.637   0.311 -0.1351 -0.6608 -0.3092
21637SOL    HW182903  11.617  11.673   0.311  0.7949  1.8755  1.4285
21637SOL    HW282904  11.762  11.709   0.281  1.6064 -1.3385  1.1540
21638SOL     OW82905   0.097   4.691  14.041  0.1257  0.7887  0.6352
21638SOL    HW182906   0.093   4.783  14.017  1.2928  1.5225  2.9017
21638SOL    HW282907   0.101   4.691  14.137  0.8350 -1.5804  0.6895
21639SOL     OW82908  11.721   6.857  14.140 -0.0584  0.1186  0.0797
21639SOL    HW182909  11.733   6.951  14.124 -4.9544  0.8000 -1.1058
21639SOL    HW282910  11.757   6.815  14.062 -1.2083  1.3901 -1.1891
21640SOL     OW82911   8.134  13.268   4.818 -0.0400 -0.0608  0.0264
21640SOL    HW182912   8.084  13.293   4.895 -2.1208  2.4027 -1.9580
21640SOL    HW282913   8.218  13.312   4.828 -0.5765  0.8736  0.5320
21641SOL     OW82914   3.022   0.994   9.510  0.4701  0.1245  0.4675
21641SOL    HW182915   3.111   0.985   9.476  0.4827  1.3175  0.1487
21641SOL    HW282916   3.029   1.059   9.580  0.1556 -1.1243  1.7359
21642SOL     OW82917  13.345   8.912   4.751  0.4632  0.1091  0.1340
21642SOL    HW182918  13.283   8.975   4.789  1.9748  1.6449  0.1917
21642SOL    HW282919  13.304   8.886   4.668  0.5800  2.6175 -0.8109
21643SOL     OW82920   9.252   2.431   8.039 -0.3292  0.8069 -0.0321
21643SOL    HW182921   9.159   2.415   8.052 -0.5239 -0.1323 -2.1433
21643SOL    HW282922   9.283   2.354   7.992  1.7832  0.6099  1.5495
21644SOL     OW82923   0.898  13.512  11.584 -0.6536 -0.1589  0.3085
21644SOL    HW182924   0.894  13.530  11.490  2.7361 -0.1199  0.0219
21644SOL    HW282925   0.866  13.423  11.593 -2.5105  0.3646 -0.6079
21645SOL     OW82926   5.428   5.778   1.823 -0.2094  0.0402 -0.2363
21645SOL    HW182927   5.480   5.703   1.852 -1.5226 -1.3429 -1.3014
21645SOL    HW282928   5.453   5.849   1.882  1.9474 -0.8861  0.0576
21646SOL     OW82929   6.943   7.630  10.627  0.2539 -0.7416 -0.2326
21646SOL    HW182930   6.896   7.704  10.589 -0.9233 -0.5492  1.4459
21646SOL    HW282931   7.035   7.646  10.605 -0.3516 -0.9242 -3.2830
21647SOL     OW82932   4.080  10.991  11.845  0.1045  0.2111  0.7956
21647SOL    HW182933   4.076  10.943  11.762  0.4448 -1.5927  1.7589
21647SOL    HW282934   4.021  11.065  11.834  2.4891  1.9091 -2.1581
21648SOL     OW82935  13.957   3.531  10.127 -0.2321 -0.1617  0.4140
21648SOL    HW182936  14.034   3.576  10.092 -1.5907 -0.1366 -2.9007
21648SOL    HW282937  13.896   3.601  10.149 -0.2083 -0.2533  0.7808
21649SOL     OW82938   6.420   2.632  11.150 -0.3649 -0.0655 -0.5955
21649SOL    HW182939   6.362   2.652  11.078  0.0623  0.9227 -0.6825
21649SOL    HW282940   6.508   2.646  11.115 -0.0914 -1.0395 -0.3216
21650SOL     OW82941   0.689   1.836   5.988 -0.2945 -0.2303 -1.3321
21650SOL    HW182942   0.726   1.835   6.076 -0.5683  1.9950 -1.1302
21650SOL    HW282943   0.603   1.795   5.998 -0.2112 -0.2453 -0.6294
21651SOL     OW82944   8.324  10.045   0.464  0.3945  0.7654  0.1970
21651SOL    HW182945   8.311   9.957   0.499  1.7508 -0.3049 -1.7540
21651SOL    HW282946   8.246  10.093   0.489  0.6610 -0.2359  3.4125
21652SOL     OW82947  11.810   2.115   3.089 -0.2442 -1.3477  0.2042
21652SOL    HW182948  11.878   2.066   3.135 -0.0119 -1.3544 -0.1444
21652SOL    HW282949  11.799   2.195   3.141  2.3956  0.2643 -1.4922
21653SOL     OW82950   3.428   9.086  10.479 -0.1681  0.7922  0.3237
21653SOL    HW182951   3.406   9.126  10.563  0.8074  1.4428  0.2865
21653SOL    HW282952   3.513   9.124  10.456  0.9482 -1.5157  0.4094
21654SOL     OW82953  10.885  13.750   0.541 -0.3454  0.8720 -0.3806
21654SOL    HW182954  10.900  13.724   0.632  0.4222  0.7475 -0.5377
21654SOL    HW282955  10.904  13.672   0.490  1.2034  1.4839 -0.7935
21655SOL     OW82956  13.668   8.473   9.079 -0.0519 -0.2017  0.0172
21655SOL    HW182957  13.623   8.527   9.144  2.0233  0.7997  0.7243
21655SOL    HW282958  13.680   8.532   9.003 -0.9021 -0.8057 -0.5969
21656SOL     OW82959   0.528  11.907   1.580 -0.9445  0.2834  0.4028
21656SOL    HW182960   0.497  11.971   1.516  0.0178 -0.2150 -0.5817
21656SOL    HW282961   0.452  11.891   1.637 -2.4101 -0.6359 -1.6867
21657SOL     OW82962   8.385   9.446   7.606  0.0829  0.5295  0.4206
21657SOL    HW182963   8.468   9.483   7.635 -0.2008  0.7777  0.9230
21657SOL    HW282964   8.335   9.520   7.574 -0.2017  0.4749  0.7384
21658SOL     OW82965   9.350   7.779   7.664 -0.4386 -0.6229 -0.3868
21658SOL    HW182966   9.286   7.709   7.645 -0.7992 -0.1884 -0.7975
21658SOL    HW282967   9.343   7.791   7.759 -3.0371  1.3216 -0.7078
21659SOL     OW82968  11.478  12.348   7.979 -0.0788 -0.0615 -0.6401
21659SOL    HW182969  11.465  12.256   8.003 -2.7127  0.4437  0.2064
21659SOL    HW282970  11.472  12.348   7.883  1.2250 -0.8834 -0.7583
21660SOL     OW82971   6.608   6.792   2.613 -0.1481  0.5449 -0.3493
21660SOL    HW182972   6.701   6.804   2.635 -0.7185  2.8144  1.2134
21660SOL    HW282973   6.583   6.875   2.572 -1.7161  0.3855  0.2435
21661SOL     OW82974  10.616   1.618  10.357 -0.1029  0.2213  0.0767
21661SOL    HW182975  10.580   1.627  10.446  0.4785 -0.6386  0.4098
21661SOL    HW282976  10.678   1.690  10.349  0.0086  0.1699  0.4507
21662SOL     OW82977  13.969   5.208   2.572 -0.3326 -0.0277 -0.6293
21662SOL    HW182978  13.896   5.237   2.627  0.3531  2.4566 -0.9036
21662SOL    HW282979  14.047   5.240   2.617  0.3827  0.0487 -1.8751
21663SOL     OW82980   4.887  11.922   0.155 -0.4952 -0.3440  0.5969
21663SOL    HW182981   4.804  11.958   0.188  0.0697  0.2559  1.4060
21663SOL    HW282982   4.917  11.863   0.224  0.1288  0.0308  0.6569
21664SOL     OW82983   5.438  13.193   1.821 -0.1297 -0.5254 -0.2553
21664SOL    HW182984   5.478  13.270   1.861 -0.3000 -1.0377  0.9440
21664SOL    HW282985   5.509  13.130   1.815 -0.1182 -0.4691 -0.7236
21665SOL     OW82986   7.297   4.318  14.077  0.1168 -0.2886  0.0473
21665SOL    HW182987   7.266   4.386  14.138 -0.3582 -0.0635 -0.4393
21665SOL    HW282988   7.389   4.341  14.061 -0.7663  2.0255 -2.4211
21666SOL     OW82989   5.021  11.387   8.555 -0.2694 -0.4368 -0.2143
21666SOL    HW182990   5.019  11.466   8.500 -2.8460 -0.9487 -1.0183
21666SOL    HW282991   5.111  11.355   8.547  0.3104  1.3105 -1.4936
21667SOL     OW82992  12.268   2.409   2.127 -0.7835 -0.1067  0.0370
21667SOL    HW182993  12.273   2.502   2.105  2.2215  0.6600  3.0778
21667SOL    HW282994  12.201   2.405   2.196 -0.7688 -0.1281  0.0500
21668SOL     OW82995   9.707   0.422   0.798 -0.3000  0.1785 -0.2422
21668SOL    HW182996   9.615   0.397   0.806 -0.3958  0.2737 -0.9943
21668SOL    HW282997   9.751   0.373   0.868 -0.8137 -0.4001 -0.3134
21669SOL     OW82998  12.014   4.844  11.322 -0.5988 -0.2041 -0.3417
21669SOL    HW182999  12.101   4.807  11.336 -0.9006 -0.7113  0.2488
21669SOL    HW283000  11.981   4.861  11.411 -0.6373  1.0955 -0.5794
21670SOL     OW83001  10.445   8.511   5.591 -0.7342  0.2143  0.0634
21670SOL    HW183002  10.418   8.503   5.499  0.5647 -0.8100 -0.2650
21670SOL    HW283003  10.539   8.528   5.587 -0.7754  0.8488  1.2117
21671SOL     OW83004  11.819  14.087  13.741  0.3752 -0.1226 -0.6559
21671SOL    HW183005  11.828  14.112  13.833 -0.1361 -0.7264 -0.4374
21671SOL    HW283006  11.731  14.114  13.716  0.9279  1.1410 -1.3318
21672SOL     OW83007   7.299   1.686   8.098 -0.7265  0.0801 -0.7093
21672SOL    HW183008   7.339   1.752   8.155 -0.5073 -0.0836 -0.6742
21672SOL    HW283009   7.250   1.630   8.158 -0.2935 -0.2405 -0.6494
21673SOL     OW83010   6.424   1.671  12.433 -0.1221 -0.0436 -0.0662
21673SOL    HW183011   6.448   1.607  12.500 -0.3805  0.5542  0.6184
21673SOL    HW283012   6.507   1.696  12.393  0.4067  1.4886  1.8052
21674SOL     OW83013   2.648   5.944   7.095  0.0358  0.0182 -0.6982
21674SOL    HW183014   2.668   5.899   7.176 -2.1095  0.8607  0.3675
21674SOL    HW283015   2.717   6.010   7.087  1.1467 -1.0654 -0.4215
21675SOL     OW83016   4.745   9.992   3.708 -0.0037 -0.1257  0.2200
21675SOL    HW183017   4.787   9.955   3.786  0.6589  0.2830  0.0700
21675SOL    HW283018   4.652   9.991   3.728  0.1128 -0.5851  0.7739
21676SOL     OW83019   5.280  12.258   1.386  0.0338  0.0909  0.2537
21676SOL    HW183020   5.258  12.342   1.345  2.0878  0.8006  0.4470
21676SOL    HW283021   5.283  12.195   1.314  0.6520  0.6802 -0.2532
21677SOL     OW83022  11.428   7.948  11.192  0.3442 -0.1977  0.3746
21677SOL    HW183023  11.358   7.970  11.130 -1.9308  0.3385  2.9111
21677SOL    HW283024  11.442   7.854  11.181  0.6953  0.0407 -1.5352
21678SOL     OW83025  12.203   9.003  11.111 -0.0119 -0.2047  0.2721
21678SOL    HW183026  12.211   8.925  11.165  0.5328 -1.5439 -1.6330
21678SOL    HW283027  12.112   9.001  11.080  0.3536 -0.8403 -0.8105
21679SOL     OW83028  11.337   1.196  10.340  0.7303  0.7104 -0.4494
21679SOL    HW183029  11.310   1.212  10.430  0.2537  0.3076 -0.5208
21679SOL    HW283030  11.259   1.215  10.288  0.0363 -2.0074 -0.5351
21680SOL     OW83031   8.869   7.449  10.113  0.1493  0.6437 -0.3040
21680SOL    HW183032   8.780   7.482  10.128  0.1886  1.8276 -2.2342
21680SOL    HW283033   8.891   7.481  10.025  2.4742  0.3424  0.1122
21681SOL     OW83034   1.854   6.835  13.985  0.0259  0.4341  0.4827
21681SOL    HW183035   1.861   6.906  13.920  2.4867 -0.3825 -0.2401
21681SOL    HW283036   1.780   6.782  13.955 -0.0834  1.1493 -0.5514
21682SOL     OW83037   7.771   9.149   5.713 -0.0842 -0.6052  0.2727
21682SOL    HW183038   7.769   9.058   5.743 -1.8804 -0.8652 -0.4751
21682SOL    HW283039   7.681   9.167   5.686  0.0587  1.6532  1.1182
21683SOL     OW83040  12.893   7.709   7.304 -0.4900 -0.4236 -0.3639
21683SOL    HW183041  12.847   7.626   7.289 -0.1034 -0.6382 -0.3855
21683SOL    HW283042  12.839   7.755   7.369  0.2247 -1.4695  1.0303
21684SOL     OW83043   1.912   2.528   5.409  0.1854 -0.0286 -0.5478
21684SOL    HW183044   1.859   2.523   5.330 -1.2494  2.6087  0.1409
21684SOL    HW283045   1.914   2.621   5.432  1.0869 -0.6041  2.1555
21685SOL     OW83046  10.329   7.714   9.542 -0.1421 -0.2295  0.1109
21685SOL    HW183047  10.235   7.715   9.521 -0.0131 -0.0683 -0.4703
21685SOL    HW283048  10.339   7.640   9.601 -0.4471 -0.9916 -0.7615
21686SOL     OW83049   1.583   0.907   4.474  0.2200  0.0087  0.5517
21686SOL    HW183050   1.676   0.883   4.484  0.6825  1.9200  1.3023
21686SOL    HW283051   1.536   0.825   4.487  1.7414 -0.7567  1.5918
21687SOL     OW83052  10.412   6.423   8.768 -0.4087  0.3509  0.4080
21687SOL    HW183053  10.467   6.500   8.753  1.2180 -0.8999 -0.3011
21687SOL    HW283054  10.376   6.437   8.856 -0.1815  1.9287  0.2827
21688SOL     OW83055  13.401  11.329   0.440  0.3163  0.3288  0.0157
21688SOL    HW183056  13.338  11.290   0.380  0.9849 -1.1764  0.2382
21688SOL    HW283057  13.459  11.381   0.384  0.1534 -0.0024 -0.4680
21689SOL     OW83058   6.765   5.211   8.918 -0.3386  0.1147  0.3358
21689SOL    HW183059   6.852   5.193   8.954 -0.0139 -0.0111 -0.4990
21689SOL    HW283060   6.735   5.289   8.965  0.2074  0.1361  0.6543
21690SOL     OW83061   2.415   0.355  13.291 -0.7022  0.4549 -0.4413
21690SOL    HW183062   2.481   0.401  13.238 -1.3474  0.9656 -0.8065
21690SOL    HW283063   2.394   0.416  13.361  0.3148 -0.3075  0.5746
21691SOL     OW83064   7.213   6.093  11.884 -0.1090 -0.3801 -0.0688
21691SOL    HW183065   7.287   6.034  11.898  0.5466  0.4298 -0.0028
21691SOL    HW283066   7.194   6.087  11.791  0.0628 -0.5822 -0.0917
21692SOL     OW83067   0.874   5.794  13.422 -0.7047  0.2067 -0.1929
21692SOL    HW183068   0.960   5.763  13.451 -1.1180 -1.0494 -0.2248
21692SOL    HW283069   0.887   5.887  13.403  0.4815  0.1912  0.4257
21693SOL     OW83070   0.076  13.367  13.073  0.1157 -0.2243  0.2285
21693SOL    HW183071   0.145  13.430  13.051 -1.3321  1.4219  0.2198
21693SOL    HW283072   0.005  13.421  13.107 -0.7971 -1.9801  1.2095
21694SOL     OW83073   0.322  10.557  10.529 -0.0554 -0.0789  0.0223
21694SOL    HW183074   0.238  10.569  10.485 -0.4722  0.4216  0.9333
21694SOL    HW283075   0.369  10.639  10.516 -0.7911  0.6589  1.7697
21695SOL     OW83076   6.753   2.826  10.414 -0.7222 -0.4006  0.2168
21695SOL    HW183077   6.667   2.788  10.431 -1.8330 -0.2441 -3.9588
21695SOL    HW283078   6.734   2.914  10.380  1.3512  0.8383  1.9976
21696SOL     OW83079  10.963   5.858  10.788  0.1503 -0.1020 -0.0354
21696SOL    HW183080  10.978   5.944  10.749 -1.2288  0.3197  0.3202
21696SOL    HW283081  10.958   5.875  10.882 -0.2629 -0.5503  0.0264
21697SOL     OW83082  11.273   8.815  13.092 -0.7030  0.3613 -0.0947
21697SOL    HW183083  11.263   8.764  13.173 -1.9447 -1.1760 -1.1485
21697SOL    HW283084  11.363   8.847  13.096  0.4233 -2.4992  0.3716
21698SOL     OW83085   9.121   9.736  10.488  0.0016  0.1363 -0.2835
21698SOL    HW183086   9.213   9.727  10.510  0.2504  1.8638 -0.4965
21698SOL    HW283087   9.114   9.700  10.399  0.5774  0.4775 -0.4698
21699SOL     OW83088   8.576   9.823   9.336  0.0504  0.4517  0.6408
21699SOL    HW183089   8.588   9.740   9.381 -0.0824 -0.1031 -0.3183
21699SOL    HW283090   8.589   9.889   9.404 -1.7307 -0.3725  1.8716
21700SOL     OW83091  13.303  10.550   4.279 -0.7776  0.1101  0.6479
21700SOL    HW183092  13.220  10.507   4.298 -1.1800  0.5997  0.0631
21700SOL    HW283093  13.297  10.574   4.187  0.2036 -0.2433  0.4755
21701SOL     OW83094  12.559  11.473  13.486  0.0353 -0.7694 -0.2935
21701SOL    HW183095  12.468  11.457  13.511  0.4454 -1.7611  0.6667
21701SOL    HW283096  12.587  11.545  13.542 -0.9467  1.5476 -2.5763
21702SOL     OW83097  12.853   8.264   8.042  0.4962 -0.7979 -0.5785
21702SOL    HW183098  12.799   8.240   7.967 -2.2608 -0.7265  1.2600
21702SOL    HW283099  12.841   8.358   8.051 -0.3502 -1.0161  0.7538
21703SOL     OW83100   7.607  11.738   0.805  0.2884  0.1765 -0.2378
21703SOL    HW183101   7.573  11.685   0.734 -1.0545 -0.3876  0.7732
21703SOL    HW283102   7.532  11.791   0.834  0.2219 -0.9870  1.9640
21704SOL     OW83103   3.178   2.655   3.216  0.1591 -0.1721  0.4472
21704SOL    HW183104   3.227   2.583   3.177  0.7792 -0.8570  2.3920
21704SOL    HW283105   3.206   2.657   3.307 -1.1688  1.4145  0.8723
21705SOL     OW83106   6.927  13.582  10.669 -0.5060  0.3482  0.5065
21705SOL    HW183107   6.860  13.633  10.624  0.4147  0.5994 -0.6322
21705SOL    HW283108   6.945  13.508  10.612  0.6961  0.6793  0.4116
21706SOL     OW83109   2.456   3.208  13.988 -0.3800 -0.1980 -0.1578
21706SOL    HW183110   2.413   3.254  13.916 -1.4582  0.2382  0.7407
21706SOL    HW283111   2.413   3.123  13.992  2.1431 -1.7446 -2.3323
21707SOL     OW83112  12.287   1.514   9.383  0.3356 -0.6903  0.9205
21707SOL    HW183113  12.322   1.488   9.298  0.7768 -1.8850  1.4423
21707SOL    HW283114  12.357   1.493   9.445  1.3819  3.1508  1.3010
21708SOL     OW83115   7.120   7.731   3.841 -0.3287  0.1298 -0.4562
21708SOL    HW183116   7.182   7.773   3.900 -1.9054 -0.9216  2.1418
21708SOL    HW283117   7.066   7.803   3.808 -0.4852  0.6157  0.7798
21709SOL     OW83118   2.897  11.731  12.572  0.3896  0.9577  0.2214
21709SOL    HW183119   2.861  11.642  12.571  1.1752  0.6311  0.2646
21709SOL    HW283120   2.823  11.786  12.599  0.2426  0.1558  1.5462
21710SOL     OW83121   4.714  10.218  12.752  0.5881  0.6813 -0.1080
21710SOL    HW183122   4.749  10.267  12.827 -0.5506  0.5772  0.5127
21710SOL    HW283123   4.686  10.286  12.691  1.2843  0.7669 -0.3475
21711SOL     OW83124   6.425   9.668   9.031 -0.2184  0.2753  0.5970
21711SOL    HW183125   6.358   9.599   9.036  0.4780 -0.7809 -2.6772
21711SOL    HW283126   6.486   9.646   9.102 -2.1106  0.0012  2.2452
21712SOL     OW83127   4.162   1.504  11.468  0.1961 -0.2143  0.2231
21712SOL    HW183128   4.181   1.503  11.562  4.4525 -2.4463 -0.4306
21712SOL    HW283129   4.205   1.583  11.436  1.0747 -0.8121 -0.1242
21713SOL     OW83130   2.067   1.150   1.526  0.1593  0.4591 -0.3833
21713SOL    HW183131   2.094   1.145   1.617  0.6908 -0.5339 -0.5842
21713SOL    HW283132   2.107   1.230   1.493  2.3075 -0.5690 -0.4690
21714SOL     OW83133   1.680   5.683   1.187  0.1502 -0.4266 -0.0011
21714SOL    HW183134   1.677   5.625   1.263 -1.9458 -0.6419 -0.1799
21714SOL    HW283135   1.633   5.635   1.119 -0.3934  0.8899 -0.5832
21715SOL     OW83136   7.037  14.002   0.463  0.0737  0.3126  0.4018
21715SOL    HW183137   7.047  13.907   0.454  1.5113  0.5223 -0.5219
21715SOL    HW283138   6.992  14.014   0.547  1.8472 -1.1067  1.6264
21716SOL     OW83139  13.535   1.186   8.756  0.1084 -0.3263  0.2556
21716SOL    HW183140  13.490   1.165   8.674 -0.7081 -0.1665  0.6505
21716SOL    HW283141  13.580   1.269   8.738 -1.8246  0.8726  0.5712
21717SOL     OW83142   4.134   8.323   0.017 -0.4802 -0.0814  0.0527
21717SOL    HW183143   4.162   8.412  -0.005 -3.3221  0.6969 -0.8498
21717SOL    HW283144   4.174   8.306   0.102  0.2774  2.0131  0.1830
21718SOL     OW83145   2.846   7.495   6.190 -0.5975  0.2991  0.1995
21718SOL    HW183146   2.941   7.495   6.185 -0.6273 -0.8230 -0.6004
21718SOL    HW283147   2.824   7.416   6.239 -1.1604 -0.2488 -0.9090
21719SOL     OW83148   0.066  10.250   4.490 -0.8952  0.3324 -0.2895
21719SOL    HW183149   0.055  10.267   4.584 -2.6517  2.0106 -0.7483
21719SOL    HW283150  -0.018  10.273   4.451 -0.3533 -0.7785 -2.2463
21720SOL     OW83151   9.783   9.966   1.965  0.7314  0.3002  0.2206
21720SOL    HW183152   9.807   9.981   1.873 -0.4669 -0.2594 -0.2055
21720SOL    HW283153   9.730  10.043   1.988  0.6045  0.1981  0.2729
21721SOL     OW83154  11.928   7.138   2.342  0.3023  0.1317  0.2376
21721SOL    HW183155  11.913   7.093   2.259  0.7808 -1.3248  0.9096
21721SOL    HW283156  11.849   7.119   2.394 -0.0152  1.0738  0.1145
21722SOL     OW83157   5.633   2.016   4.598  0.1998  0.1910  0.3394
21722SOL    HW183158   5.692   2.048   4.530  0.8226  1.6091  1.4881
21722SOL    HW283159   5.676   1.937   4.632  0.9507  0.6456  0.4795
21723SOL     OW83160  12.475   5.859   7.840 -0.1535  0.3904 -0.1136
21723SOL    HW183161  12.504   5.945   7.810  1.8372  0.0477  0.6370
21723SOL    HW283162  12.450   5.813   7.760 -0.4131  1.3769 -0.6151
21724SOL     OW83163   9.824  11.980   3.526 -0.5017 -0.0552 -0.2587
21724SOL    HW183164   9.877  11.941   3.595 -0.6484 -0.3766 -0.3264
21724SOL    HW283165   9.739  11.997   3.567 -0.0402  1.3880  0.1343
21725SOL     OW83166   5.045   2.383   2.974  0.4376  0.1371 -0.1535
21725SOL    HW183167   5.115   2.448   2.977 -0.6691  1.3663 -0.1894
21725SOL    HW283168   4.965   2.433   2.957 -0.2395 -1.3986 -1.9289
21726SOL     OW83169  12.850  10.577  13.277  0.1269  0.5263  0.4806
21726SOL    HW183170  12.818  10.504  13.224  2.2925  0.9648 -1.5463
21726SOL    HW283171  12.783  10.645  13.268 -0.6231 -0.2368  0.2088
21727SOL     OW83172   6.774   9.758   1.118 -0.2989  0.4251 -0.1523
21727SOL    HW183173   6.697   9.813   1.106 -1.6603 -0.9772  1.6748
21727SOL    HW283174   6.823   9.768   1.036 -2.8122  0.7316 -1.7343
21728SOL     OW83175  12.473  13.898   2.853  0.5502  0.0318  0.0198
21728SOL    HW183176  12.549  13.867   2.901  1.0387 -2.1231 -1.9529
21728SOL    HW283177  12.398  13.862   2.900  1.0315 -2.3823 -0.9427
21729SOL     OW83178  10.639  13.494  12.474 -0.2149  0.0465 -0.0999
21729SOL    HW183179  10.719  13.472  12.523 -0.2227 -0.3456 -0.2662
21729SOL    HW283180  10.669  13.554  12.406 -0.3855  1.6081  1.1302
21730SOL     OW83181  11.304   8.602   3.235 -0.5732  0.2257  0.8314
21730SOL    HW183182  11.271   8.513   3.237 -1.1212  0.3282 -1.2668
21730SOL    HW283183  11.323   8.623   3.326  0.4665 -2.3462  1.2821
21731SOL     OW83184  10.761   5.288   4.968  0.2227  0.5479  0.0467
21731SOL    HW183185  10.751   5.216   4.906  0.2004  0.2752  0.3655
21731SOL    HW283186  10.814   5.353   4.922  1.1502 -0.1310  0.1353
21732SOL     OW83187   8.966   2.569   9.486  0.0027 -0.2030 -0.6187
21732SOL    HW183188   8.903   2.534   9.549  1.6139  1.4258  2.1053
21732SOL    HW283189   8.981   2.498   9.424 -1.4848 -2.0201  0.9966
21733SOL     OW83190  10.025  11.490  10.120  0.3736 -0.5079  0.5963
21733SOL    HW183191  10.025  11.486  10.025  2.8557 -1.1128  0.5620
21733SOL    HW283192   9.958  11.556  10.141  0.2432  0.1274 -1.5700
21734SOL     OW83193   1.778   0.211   5.713 -0.0078  0.1783  0.1997
21734SOL    HW183194   1.812   0.144   5.772 -0.9304 -0.4686  0.0212
21734SOL    HW283195   1.797   0.179   5.625 -0.5479  0.0799  0.1108
21735SOL     OW83196   9.702   7.445   0.419  0.7832  0.5511  0.3064
21735SOL    HW183197   9.773   7.411   0.474  0.0039 -0.5145  0.6746
21735SOL    HW283198   9.703   7.540   0.436  1.9815  0.5360  0.4468
21736SOL     OW83199   7.342   1.144  11.547  0.8418 -0.3414 -0.2895
21736SOL    HW183200   7.353   1.049  11.542 -3.6642 -1.1695  1.1079
21736SOL    HW283201   7.321   1.170  11.457  0.0334 -1.0673 -0.3286
21737SOL     OW83202  13.709  11.772   0.746 -0.3855  0.4573 -0.1831
21737SOL    HW183203  13.785  11.751   0.692  0.5384  0.2548  1.1474
21737SOL    HW283204  13.669  11.687   0.764  0.6253  0.2600  1.2927
21738SOL     OW83205  14.134   9.274  11.849  0.4469  0.3881 -0.4808
21738SOL    HW183206  14.058   9.261  11.905  0.0954 -0.8088 -1.1868
21738SOL    HW283207  14.161   9.364  11.864  0.6822 -0.0276  1.9794
21739SOL     OW83208   9.643   6.157   0.009  0.1670 -0.0639  0.1128
21739SOL    HW183209   9.593   6.170   0.090  0.3127 -2.2027  0.6090
21739SOL    HW283210   9.583   6.183  -0.061 -0.8690 -0.5356  0.8023
21740SOL     OW83211   1.101  11.249  11.266  0.0922 -0.5467  0.1915
21740SOL    HW183212   1.133  11.215  11.182  0.1942 -2.0086  0.7899
21740SOL    HW283213   1.055  11.329  11.244  2.3305  0.5136 -0.9652
21741SOL     OW83214   3.212   5.008   3.967 -0.5295 -0.2024 -0.0325
21741SOL    HW183215   3.233   5.049   3.883 -1.4415  1.6848  0.5899
21741SOL    HW283216   3.119   4.987   3.959 -0.2582 -1.4246 -0.0298
21742SOL     OW83217   4.044  11.730  12.070 -0.4089 -0.3908 -0.0571
21742SOL    HW183218   4.067  11.822  12.085 -2.7400  0.0295  1.3895
21742SOL    HW283219   4.084  11.683  12.143  1.1325 -0.6453 -1.0171
21743SOL     OW83220   7.295  10.752   9.827  0.5535  0.1184  0.4778
21743SOL    HW183221   7.364  10.748   9.759  0.5478  0.1292  0.4709
21743SOL    HW283222   7.332  10.703   9.900 -0.1189 -1.3718 -0.1391
21744SOL     OW83223  12.130   1.775   0.918  0.3724 -0.1673  0.4682
21744SOL    HW183224  12.185   1.699   0.902  0.0754 -0.5004  1.0110
21744SOL    HW283225  12.098   1.764   1.008  0.3944  0.6365  0.5827
21745SOL     OW83226  10.183   4.052   9.629 -0.4090  0.7162  0.3867
21745SOL    HW183227  10.185   3.982   9.695 -0.8903  0.4286  0.0979
21745SOL    HW283228  10.090   4.073   9.619 -0.5196 -0.4519 -1.4764
21746SOL     OW83229  10.112   5.198   6.957  0.2414  0.4071 -0.0010
21746SOL    HW183230  10.203   5.169   6.964  0.4506  0.9839 -0.2674
21746SOL    HW283231  10.116   5.293   6.969 -0.3943  0.3733  0.5538
21747SOL     OW83232  14.079   1.194   1.675  0.0259 -0.3481 -0.0447
21747SOL    HW183233  14.035   1.277   1.692 -0.7406 -0.5281 -1.0344
21747SOL    HW283234  14.097   1.158   1.761  2.4393  1.8545  0.5049
21748SOL     OW83235   3.398   1.267  12.727  0.1713  0.0099  0.3683
21748SOL    HW183236   3.335   1.298  12.662  0.1256  1.3373  1.0248
21748SOL    HW283237   3.425   1.346  12.774  0.6217 -0.8552  1.6057
21749SOL     OW83238  10.523  13.867   1.467  0.0924  0.6958 -0.1899
21749SOL    HW183239  10.437  13.827   1.479 -0.0984  1.1710  0.0325
21749SOL    HW283240  10.524  13.942   1.526  0.7593  0.5409  0.0066
21750SOL     OW83241   0.353   2.709   3.409 -0.2387  0.2763 -0.0299
21750SOL    HW183242   0.430   2.657   3.389 -0.8452 -0.6088 -0.1004
21750SOL    HW283243   0.382   2.800   3.399  0.3699 -0.0681 -1.5809
21751SOL     OW83244   2.127   6.350  13.670 -0.1853 -0.2040 -0.2149
21751SOL    HW183245   2.101   6.270  13.717 -1.4603 -0.4541 -1.2769
21751SOL    HW283246   2.222   6.350  13.674 -0.1057 -2.1987 -0.8204
21752SOL     OW83247  13.626  11.565  10.707  0.0440  0.3615 -0.3644
21752SOL    HW183248  13.657  11.628  10.642  0.3468  1.8229  1.1183
21752SOL    HW283249  13.683  11.579  10.782 -0.9566 -0.5410  0.5946
21753SOL     OW83250   2.734   2.393   5.871 -0.0599 -0.2539  0.0410
21753SOL    HW183251   2.639   2.382   5.862 -0.1384  0.3450  0.0594
21753SOL    HW283252   2.743   2.458   5.941  0.3598 -0.2645 -0.0048
21754SOL     OW83253   0.152   2.892   4.187 -0.0630 -0.5070 -0.2521
21754SOL    HW183254   0.149   2.801   4.217  1.2988 -0.5233 -0.0817
21754SOL    HW283255   0.111   2.942   4.257  0.1291 -0.8857  0.1347
21755SOL     OW83256   7.847   6.863   9.560  0.1108 -0.6829  0.5515
21755SOL    HW183257   7.825   6.778   9.520  1.5688 -0.2252 -1.3802
21755SOL    HW283258   7.808   6.859   9.647  0.3181 -3.4257  0.6008
21756SOL     OW83259   0.125  13.127   8.142  0.0902  0.3476  0.3972
21756SOL    HW183260   0.064  13.091   8.207 -0.5447  1.3038  0.3519
21756SOL    HW283261   0.194  13.166   8.195 -0.5406  1.3235  0.5239
21757SOL     OW83262   2.298   8.468  13.433  0.0700  0.4067  0.0111
21757SOL    HW183263   2.368   8.444  13.372 -0.6186 -0.0199 -0.6375
21757SOL    HW283264   2.280   8.560  13.414  0.1972  0.4127 -0.0833
21758SOL     OW83265  10.022   2.089  12.964 -0.0686 -0.4020  0.1931
21758SOL    HW183266  10.090   2.080  13.031  0.3355 -0.1348 -0.1750
21758SOL    HW283267   9.940   2.073  13.010  0.0925  1.0387  1.0227
21759SOL     OW83268   1.561   2.858   5.229 -0.2458 -0.0977 -0.0906
21759SOL    HW183269   1.542   2.779   5.280 -2.2215 -1.0309 -2.1000
21759SOL    HW283270   1.613   2.826   5.155  2.7169  1.2486  1.2574
21760SOL     OW83271  10.727   7.805   4.080  0.3361 -0.1781  0.2892
21760SOL    HW183272  10.769   7.870   4.024 -1.8321  0.3149 -0.8839
21760SOL    HW283273  10.776   7.725   4.066 -0.0432 -0.0442 -2.2994
21761SOL     OW83274   2.123  11.516  13.749 -0.1889 -0.1942  0.6067
21761SOL    HW183275   2.050  11.559  13.705  0.5204  1.4053  0.9106
21761SOL    HW283276   2.192  11.513  13.683  0.0248 -0.1413  0.8260
21762SOL     OW83277   3.295   9.492  11.449  0.3620 -0.1373  0.4389
21762SOL    HW183278   3.324   9.476  11.540  0.0667  0.8123  0.7089
21762SOL    HW283279   3.363   9.450  11.396  0.0933 -1.4680  1.0861
21763SOL     OW83280   6.946   9.156   9.617 -0.0183 -0.4803 -0.1229
21763SOL    HW183281   6.932   9.105   9.537 -1.4570 -0.4486  0.0983
21763SOL    HW283282   6.974   9.091   9.682  3.8094 -0.2048 -1.2052
21764SOL     OW83283   7.806   3.869  14.082 -0.3824 -0.9598  0.3548
21764SOL    HW183284   7.752   3.927  14.030 -1.5286 -2.2306  0.0817
21764SOL    HW283285   7.870   3.833  14.020  0.3666 -0.0020  0.5357
21765SOL     OW83286  12.203   3.277   9.718 -0.2370  0.3630 -0.5837
21765SOL    HW183287  12.139   3.208   9.737  0.6105 -0.6421 -1.3165
21765SOL    HW283288  12.283   3.231   9.697  0.8865  1.6223  0.7272
21766SOL     OW83289  12.393   3.036   2.298 -0.1188 -0.5951 -0.0537
21766SOL    HW183290  12.473   2.997   2.263 -0.2220  1.0420 -2.3377
21766SOL    HW283291  12.322   2.990   2.253 -0.3023  0.6385 -1.0692
21767SOL     OW83292  10.152   0.898  13.083 -0.2611 -0.5587  0.0853
21767SOL    HW183293  10.213   0.878  13.154 -0.7407 -2.0455  0.1040
21767SOL    HW283294  10.067   0.906  13.126 -0.4690 -0.9584 -0.2417
21768SOL     OW83295   2.681  12.181   9.087 -0.2979 -0.0610 -0.0236
21768SOL    HW183296   2.707  12.261   9.133  1.4311 -0.3894 -0.3776
21768SOL    HW283297   2.723  12.110   9.135 -0.5324 -0.6238 -0.6249
21769SOL     OW83298   1.751  13.343  13.140 -0.3449 -0.0637 -0.4076
21769SOL    HW183299   1.658  13.363  13.145 -0.1738  0.5297  1.0320
21769SOL    HW283300   1.794  13.415  13.186  0.7906 -0.5620 -0.6350
21770SOL     OW83301   6.293   5.713  10.424  0.2719  0.0474 -0.1226
21770SOL    HW183302   6.244   5.658  10.485 -0.3178  1.4959  0.7823
21770SOL    HW283303   6.342   5.652  10.370 -1.2524 -1.3989  0.0515
21771SOL     OW83304   9.465   3.354   9.640 -0.1266 -0.0284 -0.1102
21771SOL    HW183305   9.398   3.315   9.584  0.4173  1.0297 -1.5700
21771SOL    HW283306   9.545   3.307   9.618  0.3661  1.2718 -1.2909
21772SOL     OW83307   9.414   8.880   4.941 -0.2550  0.1662  0.5248
21772SOL    HW183308   9.366   8.955   4.905 -0.2761 -0.0138  0.1685
21772SOL    HW283309   9.485   8.919   4.991 -0.4410  0.4290  0.5905
21773SOL     OW83310   8.459   6.527  12.297 -0.1817  0.5873  0.1169
21773SOL    HW183311   8.500   6.516  12.212  1.1674 -0.4657  0.8805
21773SOL    HW283312   8.519   6.486  12.359 -1.4711  0.7004  1.5026
21774SOL     OW83313  11.752   1.139   2.119  0.7650 -0.1331  0.0969
21774SOL    HW183314  11.835   1.097   2.095  0.0106 -0.4423 -2.2385
21774SOL    HW283315  11.697   1.130   2.041 -1.8524 -0.7991  1.8918
21775SOL     OW83316   9.472   3.503   8.242  0.0022  0.1281  0.8141
21775SOL    HW183317   9.489   3.507   8.148 -2.5572 -2.2894  0.1237
21775SOL    HW283318   9.432   3.587   8.264 -1.4727 -0.1070 -0.7994
21776SOL     OW83319   7.268  10.467   9.708  0.3618  0.5191 -0.3027
21776SOL    HW183320   7.337  10.402   9.696 -2.0335 -2.7915  2.0944
21776SOL    HW283321   7.235  10.484   9.620  2.4619  0.2474 -1.2069
21777SOL     OW83322  10.016  10.122  10.084  0.2391 -0.5968  0.3647
21777SOL    HW183323   9.927  10.090  10.071 -0.1869  0.6126  0.2018
21777SOL    HW283324  10.065  10.044  10.111 -0.9737 -1.1850  0.9813
21778SOL     OW83325  12.925  10.548  11.701 -0.6419 -0.1543  0.5219
21778SOL    HW183326  12.926  10.454  11.679 -0.6055 -0.2004  0.7212
21778SOL    HW283327  13.004  10.560  11.754 -0.9623 -0.1266  0.9913
21779SOL     OW83328   5.333   2.268   9.832  0.1161  0.3938  0.3101
21779SOL    HW183329   5.425   2.291   9.837  0.5828 -1.1834 -0.4901
21779SOL    HW283330   5.306   2.293   9.743  0.0156 -0.0051  0.2278
21780SOL     OW83331   9.096   1.152   0.901 -0.1190  0.2700  0.3264
21780SOL    HW183332   9.047   1.081   0.861  0.5315  0.9768 -1.8664
21780SOL    HW283333   9.116   1.212   0.829  1.0436  1.7028  1.7373
21781SOL     OW83334   9.671   6.678   2.446 -0.2575 -0.3338  0.4428
21781SOL    HW183335   9.744   6.644   2.498  1.1008 -0.4253 -1.4245
21781SOL    HW283336   9.692   6.770   2.431  0.2324 -0.6885 -1.2584
21782SOL     OW83337   1.300  12.071  11.437  0.1126  0.4795 -0.2273
21782SOL    HW183338   1.372  12.075  11.500  0.0400  3.3309 -0.2131
21782SOL    HW283339   1.332  12.118  11.360 -0.6428 -0.9400 -1.4658
21783SOL     OW83340   9.690  12.115  10.724 -0.3932 -0.3425  0.3374
21783SOL    HW183341   9.708  12.091  10.815 -1.5382  0.1020  0.7017
21783SOL    HW283342   9.604  12.156  10.727  0.1814  1.0162 -0.7305
21784SOL     OW83343   0.111   6.376   9.304  0.7858  0.6154  0.0593
21784SOL    HW183344   0.025   6.372   9.346  0.4758  0.8415 -0.5405
21784SOL    HW283345   0.139   6.467   9.318  0.9905  0.5095  0.3623
21785SOL     OW83346   7.036  10.342   7.151 -0.6766 -0.4051  0.3824
21785SOL    HW183347   7.077  10.304   7.228  1.5562 -0.1674 -0.6086
21785SOL    HW283348   6.948  10.303   7.149 -0.2793 -1.5202  2.2137
21786SOL     OW83349  10.697   2.841   7.667  0.0827  0.6788 -0.2367
21786SOL    HW183350  10.602   2.847   7.661  0.2848  2.9866 -3.0218
21786SOL    HW283351  10.721   2.908   7.731 -0.1315 -0.4250  1.0548
21787SOL     OW83352  12.112   4.381   6.844  0.1753 -0.0009 -0.1223
21787SOL    HW183353  12.028   4.408   6.882  0.7122  0.1484  0.9811
21787SOL    HW283354  12.094   4.374   6.750 -0.8916  0.7240  0.0068
21788SOL     OW83355   6.164  13.807   5.921 -0.4972 -0.4669  0.2875
21788SOL    HW183356   6.074  13.802   5.890 -0.6123 -0.6449  0.6336
21788SOL    HW283357   6.186  13.900   5.918 -0.6594 -0.4338  0.1061
21789SOL     OW83358   0.713   7.323   8.817 -0.2438 -0.0499 -0.0757
21789SOL    HW183359   0.663   7.285   8.889 -1.2468  3.1075  1.0608
21789SOL    HW283360   0.652   7.324   8.743 -0.5291  0.1937  0.1602
21790SOL     OW83361  11.884   0.052   5.323 -0.3544 -0.0357  0.2198
21790SOL    HW183362  11.897  -0.038   5.354  1.4067 -0.4896 -1.6066
21790SOL    HW283363  11.957   0.101   5.362 -0.6595  0.3677  0.2914
21791SOL     OW83364   5.341   0.507   4.418 -0.3269 -1.1352 -0.2235
21791SOL    HW183365   5.390   0.579   4.458 -1.0515 -0.8259  0.1127
21791SOL    HW283366   5.271   0.488   4.480  0.2745 -2.6141  0.0372
21792SOL     OW83367   5.397   3.922   4.940 -0.0289  0.9049  0.4028
21792SOL    HW183368   5.359   3.974   5.010 -2.1629 -0.3173  0.2218
21792SOL    HW283369   5.335   3.929   4.868  0.3489 -0.6882 -0.1221
21793SOL     OW83370   9.178   6.543  13.006  0.0616  0.0075  0.0305
21793SOL    HW183371   9.270   6.536  12.979  0.2995 -0.3962  0.9093
21793SOL    HW283372   9.166   6.472  13.069 -0.3273  1.2187  1.3746
21794SOL     OW83373   8.663   9.947  12.137 -0.4118 -0.1846 -0.6048
21794SOL    HW183374   8.728   9.878  12.153 -0.7731 -0.2696  0.6442
21794SOL    HW283375   8.588   9.902  12.099 -0.5865 -0.4645  0.0597
21795SOL     OW83376   2.809  13.741  12.976  0.2973  0.1954 -0.6732
21795SOL    HW183377   2.887  13.727  12.923  0.1662 -2.4173 -0.2940
21795SOL    HW283378   2.816  13.677  13.047 -1.9256  0.2468 -0.3412
21796SOL     OW83379   1.747  10.445  10.746  0.1714  0.2624 -0.2567
21796SOL    HW183380   1.823  10.432  10.803 -2.1475 -2.4967  2.5764
21796SOL    HW283381   1.724  10.357  10.716 -2.0237  0.9790 -0.8363
21797SOL     OW83382   9.192   9.648  12.207 -0.3312 -0.6234 -0.4372
21797SOL    HW183383   9.208   9.563  12.165 -1.0603 -0.7241 -0.5252
21797SOL    HW283384   9.137   9.696  12.145 -1.2809 -0.7077  0.3163
21798SOL     OW83385   8.533  12.786   4.733 -0.2997  0.6253 -0.1430
21798SOL    HW183386   8.518  12.723   4.662 -1.7131 -0.6046  1.1757
21798SOL    HW283387   8.629  12.796   4.736 -0.2234  1.2416 -2.6147
21799SOL     OW83388   0.529  10.236   4.190 -0.6356  0.0654  0.3921
21799SOL    HW183389   0.478  10.310   4.158 -0.5624  0.3297  0.8703
21799SOL    HW283390   0.533  10.249   4.285  0.3191  0.0500  0.3608
21800SOL     OW83391   8.131   8.950   7.133 -0.0285  0.0594 -0.8133
21800SOL    HW183392   8.059   9.001   7.098 -0.0896 -0.6353 -1.7299
21800SOL    HW283393   8.138   8.977   7.224  0.7115  2.5804 -1.5510
21801SOL     OW83394  10.696  10.744   2.926 -0.3657 -0.5676  0.0237
21801SOL    HW183395  10.749  10.822   2.908  0.4399 -1.0075  0.4449
21801SOL    HW283396  10.675  10.708   2.839 -1.7900  0.7749 -0.2407
21802SOL     OW83397   5.307   7.996   7.490  0.1290 -0.0208  0.3316
21802SOL    HW183398   5.239   7.961   7.433 -1.1275  2.0357  0.4485
21802SOL    HW283399   5.283   7.965   7.578  0.0013 -0.2400  0.2192
21803SOL     OW83400   2.579   9.812   2.943  0.2754  0.1514 -0.4905
21803SOL    HW183401   2.555   9.903   2.956 -0.3131 -0.2348  1.4479
21803SOL    HW283402   2.500   9.771   2.908  0.0395  0.0861  0.1118
21804SOL     OW83403  11.800   0.346  12.943  0.4451 -0.0273 -0.2833
21804SOL    HW183404  11.725   0.337  12.885 -0.3733 -0.0623  0.7388
21804SOL    HW283405  11.810   0.440  12.956  0.4420 -0.0290 -0.2663
21805SOL     OW83406   3.052  13.855  10.820 -0.2855  0.5387  0.5030
21805SOL    HW183407   3.112  13.925  10.847 -0.3524  1.0320 -0.5706
21805SOL    HW283408   3.005  13.833  10.900 -0.8887  2.3645  0.7092
21806SOL     OW83409   6.183   5.890   0.262  0.3032  0.5035  0.1170
21806SOL    HW183410   6.221   5.805   0.243  0.9104  0.8165 -0.1121
21806SOL    HW283411   6.121   5.906   0.190  0.1943  0.2629  0.1572
21807SOL     OW83412   7.471   1.285   3.281  0.3868  0.0123  0.7487
21807SOL    HW183413   7.455   1.302   3.189  0.2191 -0.2775  0.7252
21807SOL    HW283414   7.463   1.371   3.323  1.8167  0.3992  0.3032
21808SOL     OW83415   2.392   0.773  11.766  0.1168 -0.0510 -0.1171
21808SOL    HW183416   2.309   0.809  11.735  0.3855 -0.3874 -1.2945
21808SOL    HW283417   2.433   0.735  11.688  1.1307 -0.3824  0.5415
21809SOL     OW83418   7.959  10.882  10.357 -0.2594 -0.1756 -0.0543
21809SOL    HW183419   7.909  10.849  10.282 -1.2868 -0.0169  0.5312
21809SOL    HW283420   7.975  10.974  10.335  0.4360 -0.4112 -0.5739
21810SOL     OW83421   8.198   7.722   5.795 -0.1837  0.4700  0.4201
21810SOL    HW183422   8.208   7.816   5.782 -2.7335  0.9761  1.4975
21810SOL    HW283423   8.244   7.703   5.877 -2.0214  1.3889  1.7282
21811SOL     OW83424  12.835  11.244  13.718 -0.0325  0.0305 -0.0357
21811SOL    HW183425  12.794  11.331  13.716  0.9413  0.4947 -0.6911
21811SOL    HW283426  12.884  11.243  13.801 -0.2215  0.0145  0.0775
21812SOL     OW83427   1.643  12.153   3.548  0.2583  0.5006  0.2932
21812SOL    HW183428   1.648  12.064   3.511 -0.0594  1.3139 -1.8489
21812SOL    HW283429   1.558  12.156   3.592  0.5413 -0.4406  0.9345
21813SOL     OW83430  11.014  10.074   2.459  0.3579 -0.5795  1.0151
21813SOL    HW183431  10.973  10.110   2.538  0.5423 -1.5460  1.5671
21813SOL    HW283432  11.108  10.077   2.478  0.5073  0.6005  0.2007
21814SOL     OW83433  13.931  13.218   2.020 -0.0644  0.1006  0.2376
21814SOL    HW183434  13.891  13.278   1.958  0.2719  0.2612  0.1734
21814SOL    HW283435  13.908  13.131   1.987  0.1214  0.1842 -0.1199
21815SOL     OW83436  13.585   2.536  12.515  0.0774  0.8138  0.5105
21815SOL    HW183437  13.633   2.619  12.507  0.8124  0.3274 -0.4144
21815SOL    HW283438  13.516   2.542  12.449 -0.8034  1.2786  1.4518
21816SOL     OW83439   3.172  12.437  12.750  0.0522  0.2580 -0.6686
21816SOL    HW183440   3.162  12.388  12.669 -1.6693 -1.5052  0.5007
21816SOL    HW283441   3.110  12.510  12.743 -2.0429 -1.3430 -0.0221
21817SOL     OW83442   7.639   9.592   9.454 -0.5786  0.2976 -0.6945
21817SOL    HW183443   7.559   9.645   9.455  0.4326  1.8825 -0.0362
21817SOL    HW283444   7.708   9.652   9.428  0.5532 -0.8339 -0.4322
21818SOL     OW83445   0.750   7.287   2.466 -0.4774 -0.0255 -0.2716
21818SOL    HW183446   0.812   7.217   2.484 -0.5306  0.1795  0.8149
21818SOL    HW283447   0.752   7.299   2.371  1.5762  0.3700 -0.2087
21819SOL     OW83448   4.784   5.819  12.494  0.2886 -0.0784 -0.4201
21819SOL    HW183449   4.875   5.847  12.486  0.5942 -1.0890 -0.5211
21819SOL    HW283450   4.744   5.842  12.410  0.3354  0.7419 -0.2275
21820SOL     OW83451  11.007  12.289  12.841  0.5150 -0.6086  0.8258
21820SOL    HW183452  10.941  12.280  12.909  0.1547 -2.0904  0.3090
21820SOL    HW283453  11.067  12.216  12.855  0.6602 -0.7066 -0.1849
21821SOL     OW83454   6.723  10.738   0.274  0.2536 -0.1991 -0.0535
21821SOL    HW183455   6.766  10.789   0.206 -1.0622  1.2373  0.1276
21821SOL    HW283456   6.787  10.733   0.345  0.7874  0.3161 -0.4916
21822SOL     OW83457   9.728   8.565  13.535 -0.1868 -0.1334 -0.0479
21822SOL    HW183458   9.651   8.622  13.537  0.0724  0.2787 -1.1547
21822SOL    HW283459   9.724   8.516  13.617 -1.3608  0.2326  0.1264
21823SOL     OW83460  13.620  10.975   6.171 -0.3682 -0.4854  0.5884
21823SOL    HW183461  13.587  10.939   6.089  2.2327 -0.6292 -0.4673
21823SOL    HW283462  13.596  10.909   6.237 -2.0274 -0.6079 -0.0915
21824SOL     OW83463   3.184   9.262  12.119  0.4642  0.0010  0.0722
21824SOL    HW183464   3.125   9.245  12.046  1.3489  0.8073 -0.8563
21824SOL    HW283465   3.168   9.354  12.142 -0.1943 -0.3875  1.2750
21825SOL     OW83466  13.939  13.456   5.816 -0.1642 -0.4863  0.4766
21825SOL    HW183467  13.978  13.540   5.838 -0.2788 -0.6425  1.3129
21825SOL    HW283468  13.985  13.428   5.737 -0.5363  0.6279 -0.1522
21826SOL     OW83469   5.219   2.217  13.323 -0.1488 -0.5823  0.6991
21826SOL    HW183470   5.245   2.187  13.410  0.1811 -0.5389  0.6196
21826SOL    HW283471   5.272   2.165  13.263 -0.8062 -1.0304  0.5012
21827SOL     OW83472   8.021   0.040  13.640 -0.5955  0.7413  0.3316
21827SOL    HW183473   8.078  -0.007  13.580  1.8104  2.6979  0.9137
21827SOL    HW283474   8.031  -0.007  13.724  1.1716  1.7117  0.7173
21828SOL     OW83475   1.185   5.350  12.886 -0.3643 -0.5001 -0.0819
21828SOL    HW183476   1.130   5.288  12.933 -0.9120  0.0406  0.0090
21828SOL    HW283477   1.130   5.428  12.876  0.4916  0.1726  0.3128
21829SOL     OW83478  10.528   0.305   0.116 -0.3430 -0.7813  0.4679
21829SOL    HW183479  10.551   0.382   0.167 -1.0644  0.8399 -1.5336
21829SOL    HW283480  10.448   0.272   0.157  0.9054 -1.6184  2.4231
21830SOL     OW83481   0.247   7.514   7.415 -0.2346  0.0209  0.0581
21830SOL    HW183482   0.213   7.501   7.327 -1.3662 -0.8113  0.5918
21830SOL    HW283483   0.182   7.472   7.472  1.2623 -0.8739  1.1817
21831SOL     OW83484  13.080   5.308   6.710  0.1166  0.9635  0.1604
21831SOL    HW183485  13.068   5.219   6.676  0.8898  0.8368  0.2021
21831SOL    HW283486  13.011   5.318   6.776  0.9367 -0.1533  1.2369
21832SOL     OW83487  10.008  13.125   7.710  0.0252 -0.1658 -0.1658
21832SOL    HW183488   9.913  13.120   7.714  0.0294  0.0378  0.2463
21832SOL    HW283489  10.036  13.037   7.684 -0.2421 -0.3889  0.3050
21833SOL     OW83490   9.414  12.771   0.775  0.3871 -0.0086 -0.1382
21833SOL    HW183491   9.394  12.859   0.806 -0.9682  0.9994 -3.4246
21833SOL    HW283492   9.344  12.716   0.810  0.0275  0.6462  0.1703
21834SOL     OW83493  10.134  11.951   9.619 -0.2552  0.1866  0.8153
21834SOL    HW183494  10.042  11.954   9.643 -0.5217 -0.3735 -0.0959
21834SOL    HW283495  10.149  11.860   9.592  0.5461  0.2858  0.9041
21835SOL     OW83496   9.137   5.924   9.507  0.0037  0.3439  0.5535
21835SOL    HW183497   9.049   5.942   9.539  0.3808  0.2999  1.6736
21835SOL    HW283498   9.191   5.923   9.586  0.7260 -1.3919  0.0844
21836SOL     OW83499  10.161  10.470  12.163 -0.1026  0.6438 -0.2607
21836SOL    HW183500  10.169  10.459  12.258 -0.2947  0.7840 -0.2275
21836SOL    HW283501  10.251  10.470  12.132  0.1008  2.7465  0.1635
21837SOL     OW83502   7.082   5.522  10.586 -0.2534  0.0035  0.0577
21837SOL    HW183503   7.032   5.603  10.594 -1.4897 -0.2213 -3.5339
21837SOL    HW283504   7.095   5.511  10.492  2.0083 -2.7466  0.5568
21838SOL     OW83505   2.680   4.924   4.382  0.0410  0.9129  0.0589
21838SOL    HW183506   2.755   4.895   4.434  0.0861  2.1647  0.7217
21838SOL    HW283507   2.688   4.876   4.300  1.6604  1.1451  0.0489
21839SOL     OW83508  13.244  11.389   9.898 -0.0868  0.1974  0.1230
21839SOL    HW183509  13.317  11.452   9.895 -0.1729  0.2919  0.0302
21839SOL    HW283510  13.271  11.319   9.839 -0.8064  1.0118 -1.2196
21840SOL     OW83511  10.515   7.551   4.452  0.3205  0.0151 -0.2603
21840SOL    HW183512  10.554   7.636   4.431 -1.0058  0.8764  0.6130
21840SOL    HW283513  10.467   7.526   4.373 -0.9493  1.0742  0.1509
21841SOL     OW83514   5.203   9.103  12.966 -0.2331  0.2105 -0.3162
21841SOL    HW183515   5.253   9.029  12.931 -0.4131  0.7578 -1.7865
21841SOL    HW283516   5.146   9.130  12.895  0.3220  2.2078 -0.0706
21842SOL     OW83517   7.235   3.491  10.548 -0.0452 -0.0854  0.0504
21842SOL    HW183518   7.330   3.498  10.547 -0.0348 -0.2369 -0.9098
21842SOL    HW283519   7.213   3.466  10.638  0.9785 -2.0535 -0.1942
21843SOL     OW83520   9.694  10.601  10.703  0.0543 -0.5460 -0.1447
21843SOL    HW183521   9.601  10.610  10.685  0.0799 -0.3335 -0.1834
21843SOL    HW283522   9.737  10.632  10.623  0.1751  0.8903  0.4264
21844SOL     OW83523   9.040  11.744   5.808  0.2658  0.1925  0.4565
21844SOL    HW183524   8.997  11.741   5.722 -1.3882 -0.3227  1.2519
21844SOL    HW283525   9.129  11.712   5.791 -0.1231 -0.2235 -1.0066
21845SOL     OW83526  12.654   0.782   8.448  0.0651  0.0350 -0.5428
21845SOL    HW183527  12.635   0.764   8.356 -1.5035  1.3362 -0.5119
21845SOL    HW283528  12.572   0.816   8.483  0.1979 -1.7876  1.7234
21846SOL     OW83529   0.361  12.927   1.986 -0.3817  0.4916  0.4350
21846SOL    HW183530   0.449  12.965   1.980 -0.7299  1.3292  0.3708
21846SOL    HW283531   0.364  12.870   2.062  0.2747  0.3536  0.3144
21847SOL     OW83532  10.636   6.865   5.201 -0.1874 -0.3018 -0.1807
21847SOL    HW183533  10.665   6.933   5.262  0.8480 -0.5255 -0.4039
21847SOL    HW283534  10.544   6.887   5.183  0.1872  1.2012 -0.4595
21848SOL     OW83535   1.466  12.946   9.711  0.1848  0.0114 -0.1169
21848SOL    HW183536   1.534  12.886   9.681  2.3801  2.3758 -0.2294
21848SOL    HW283537   1.412  12.962   9.633  1.0356  0.0172 -0.7212
21849SOL     OW83538   5.756   3.643   0.032 -0.1721  0.2371  0.1817
21849SOL    HW183539   5.679   3.585   0.036  0.5269 -0.7098  0.3852
21849SOL    HW283540   5.830   3.583   0.018  0.5662  1.0963  0.3400
21850SOL     OW83541   8.847   4.294  13.688  0.3609 -0.5089 -0.6623
21850SOL    HW183542   8.806   4.252  13.612 -0.2507  0.5330 -0.9238
21850SOL    HW283543   8.865   4.383  13.659  1.6201 -0.5653 -0.1091
21851SOL     OW83544   0.729  13.379   1.973 -0.5891 -0.1712  0.4961
21851SOL    HW183545   0.727  13.469   2.006 -0.4894 -0.2439  0.7003
21851SOL    HW283546   0.764  13.328   2.046 -0.4797 -0.3493  0.3194
21852SOL     OW83547   6.996   9.912   1.854  0.6465 -0.2909 -0.0302
21852SOL    HW183548   6.951   9.893   1.772 -0.0554 -0.5432  0.4144
21852SOL    HW283549   7.040   9.830   1.877  0.2254 -0.4470  0.2320
21853SOL     OW83550   9.547   9.603   0.467 -0.1333  0.2558 -0.2235
21853SOL    HW183551   9.463   9.563   0.443 -1.6971  2.7462  0.6562
21853SOL    HW283552   9.554   9.679   0.409  1.9222 -0.2843 -0.7540
21854SOL     OW83553   6.895  10.039  13.103 -0.2289  0.2204  0.5440
21854SOL    HW183554   6.887  10.012  13.011  0.6658 -0.1001  0.5520
21854SOL    HW283555   6.975  10.092  13.106  0.4468 -0.8024  1.3610
21855SOL     OW83556   1.930   6.677   8.960  0.6340 -0.3665  0.0771
21855SOL    HW183557   2.018   6.643   8.944  0.3522 -1.9355  1.4681
21855SOL    HW283558   1.943   6.768   8.986  1.8854 -0.6694  0.5694
21856SOL     OW83559   4.478  14.008   8.743  0.3496 -0.1520  0.2097
21856SOL    HW183560   4.479  14.104   8.743  0.8141 -0.1418  1.6295
21856SOL    HW283561   4.430  13.985   8.663  1.9143  1.2249 -1.2202
21857SOL     OW83562   2.418   8.912   1.360 -0.5602 -0.8473 -0.0437
21857SOL    HW183563   2.439   8.996   1.318 -0.7777 -0.9662 -0.3939
21857SOL    HW283564   2.332   8.889   1.325  0.1012 -1.9128 -1.0342
21858SOL     OW83565  12.819   6.452  13.730 -0.0249 -0.5288 -0.0811
21858SOL    HW183566  12.869   6.531  13.751 -0.1746 -0.7698  1.3158
21858SOL    HW283567  12.769   6.475  13.652  1.9270 -0.1489 -1.3036
21859SOL     OW83568   6.110   5.418   4.344  0.3045 -0.4151 -0.4534
21859SOL    HW183569   6.130   5.371   4.425  1.6049 -0.4885 -0.7887
21859SOL    HW283570   6.195   5.426   4.300 -0.2722  0.2356 -1.4792
21860SOL     OW83571  11.397  12.821   4.975  0.2379 -0.1331 -0.3055
21860SOL    HW183572  11.435  12.883   4.913  2.2942 -0.4061  0.5955
21860SOL    HW283573  11.402  12.736   4.931  2.8386 -0.5337  0.5758
21861SOL     OW83574   7.179   3.675  13.829  0.3034  0.2114 -0.3077
21861SOL    HW183575   7.172   3.749  13.768 -0.2527  0.7688  0.4234
21861SOL    HW283576   7.272   3.674  13.854  0.2279  0.9500  0.0249
21862SOL     OW83577   1.530   2.889   0.229 -0.3454 -0.4169 -0.1970
21862SOL    HW183578   1.541   2.971   0.277 -1.0372 -0.5488  0.1975
21862SOL    HW283579   1.540   2.914   0.137  0.8304 -0.1345 -0.0081
21863SOL     OW83580   2.895   4.428   7.342  0.3715 -0.1153  0.2604
21863SOL    HW183581   2.883   4.393   7.254  1.6216  2.8433 -1.2162
21863SOL    HW283582   2.815   4.477   7.359  0.3831 -0.1901  0.5343
21864SOL     OW83583   3.372  13.766   1.276  0.0121 -0.0562  0.1269
21864SOL    HW183584   3.352  13.712   1.351 -0.0133 -1.2538 -0.7154
21864SOL    HW283585   3.438  13.828   1.308  0.2345 -0.7451  1.0478
21865SOL     OW83586  10.774   1.891  11.998  0.4536  0.2623 -0.3066
21865SOL    HW183587  10.800   1.920  11.911 -0.8988  0.8336 -0.5450
21865SOL    HW283588  10.813   1.955  12.058 -0.2181  0.9910 -0.6366
21866SOL     OW83589   6.743   6.623   9.965 -0.1633 -0.3937 -0.2354
21866SOL    HW183590   6.719   6.533   9.984 -0.6583 -0.2388 -0.1334
21866SOL    HW283591   6.838   6.620   9.954 -0.3633 -1.2601 -2.0721
21867SOL     OW83592   6.509  10.405   9.283  0.4877 -0.1811 -0.0431
21867SOL    HW183593   6.451  10.479   9.302  0.2142  0.2801 -2.3334
21867SOL    HW283594   6.573  10.405   9.354 -0.7654  0.9157  1.1373
21868SOL     OW83595   7.566  11.107   8.807  0.0851  0.1596 -0.0044
21868SOL    HW183596   7.516  11.136   8.884  0.8640  0.1978  0.4985
21868SOL    HW283597   7.586  11.188   8.760 -1.7557  0.0289 -1.1472
21869SOL     OW83598   6.827   1.859   2.732  0.5881 -0.0987  0.5713
21869SOL    HW183599   6.894   1.790   2.740  0.1747 -0.8196 -1.4956
21869SOL    HW283600   6.747   1.811   2.711 -1.1162  0.5862  4.7013
21870SOL     OW83601  10.528   7.315  11.008 -0.4845  0.0618 -0.3391
21870SOL    HW183602  10.516   7.251  10.938 -1.6438  1.1666 -1.2142
21870SOL    HW283603  10.612   7.357  10.987  0.0224 -0.7785 -0.0542
21871SOL     OW83604   3.748   8.228   2.227  0.7880 -0.1566 -0.7686
21871SOL    HW183605   3.762   8.134   2.227 -1.7431 -0.6185  0.0854
21871SOL    HW283606   3.782   8.257   2.312 -0.3697 -0.7109 -0.0844
21872SOL     OW83607   6.919   4.214   3.307 -0.2538  0.1139 -0.0227
21872SOL    HW183608   6.885   4.295   3.344 -0.1782 -0.0144  0.3294
21872SOL    HW283609   7.002   4.200   3.352 -0.6752 -0.6137  0.5477
21873SOL     OW83610   1.029   2.229  12.725 -0.5431 -0.4061 -0.4267
21873SOL    HW183611   0.994   2.141  12.738  1.3737 -0.9749  1.4115
21873SOL    HW283612   1.121   2.215  12.703 -0.0210  1.1227  0.6088
21874SOL     OW83613   8.221   8.364   7.277  0.0300  0.3187 -0.1471
21874SOL    HW183614   8.187   8.310   7.349  2.4651  0.8605  1.5288
21874SOL    HW283615   8.228   8.304   7.203 -2.2097 -0.3490  0.0990
21875SOL     OW83616   9.685  11.694  10.802 -0.3170 -0.0302  0.0304
21875SOL    HW183617   9.736  11.705  10.882  1.0282 -0.9323 -0.6422
21875SOL    HW283618   9.748  11.710  10.731 -1.2277 -0.1951 -0.8446
21876SOL     OW83619   3.764   8.427   1.126 -0.7990  0.4305  0.4603
21876SOL    HW183620   3.768   8.518   1.157 -0.4414  0.6894 -0.3340
21876SOL    HW283621   3.855   8.403   1.112 -0.9598  0.4118 -0.6411
21877SOL     OW83622   5.457   3.138  12.891  0.1830  0.3269 -0.3407
21877SOL    HW183623   5.487   3.127  12.981  2.5926  0.5388 -1.0445
21877SOL    HW283624   5.536   3.162  12.842 -1.2004  1.0297 -2.3752
21878SOL     OW83625   6.564  12.548  10.014 -0.6926 -0.0833 -0.1357
21878SOL    HW183626   6.545  12.594   9.932 -0.4817 -2.2756 -1.4995
21878SOL    HW283627   6.650  12.580  10.040 -0.5181  0.2503 -1.0678
21879SOL     OW83628   5.028   2.504  12.037  0.2089  0.1792 -0.1125
21879SOL    HW183629   4.964   2.502  12.108  0.1723 -2.0539 -0.1399
21879SOL    HW283630   5.109   2.473  12.077  0.6112  0.5167 -0.6622
21880SOL     OW83631   2.776  11.174   7.730 -0.1935 -0.3385  0.4045
21880SOL    HW183632   2.816  11.152   7.814 -0.8201  2.5349  1.5887
21880SOL    HW283633   2.682  11.179   7.749 -0.6054 -1.7628 -1.0392
21881SOL     OW83634   1.441   7.129   0.281  0.0458 -0.0626 -0.1879
21881SOL    HW183635   1.464   7.217   0.312  0.5365 -0.2146 -0.1181
21881SOL    HW283636   1.401   7.086   0.357 -0.7675  0.3039 -0.3954
21882SOL     OW83637   4.058  10.796   7.705 -0.3516  0.4443  0.2794
21882SOL    HW183638   3.977  10.760   7.670  0.0679  0.9720 -1.3365
21882SOL    HW283639   4.097  10.844   7.632  2.2773 -1.2171  0.4370
21883SOL     OW83640   9.736   2.619  12.579 -0.3564 -0.0508  0.4386
21883SOL    HW183641   9.726   2.657  12.667 -0.7839  0.9138 -0.0176
21883SOL    HW283642   9.697   2.532  12.587 -1.0790  0.3132  1.0137
21884SOL     OW83643  11.932   5.314  10.355  0.4219  0.2479  0.2327
21884SOL    HW183644  11.904   5.224  10.370 -1.4755  0.7079 -0.2605
21884SOL    HW283645  12.004   5.327  10.416  0.4513 -1.4561  0.6205
21885SOL     OW83646   0.824   1.228   2.420 -0.1776  0.2654  0.5810
21885SOL    HW183647   0.751   1.222   2.359 -0.6267 -0.0624  1.1418
21885SOL    HW283648   0.787   1.204   2.505  0.6291 -0.1325  0.8324
21886SOL     OW83649   8.146   4.412   2.292  0.5991  0.3049 -0.0137
21886SOL    HW183650   8.072   4.426   2.350  0.9132 -2.2247  1.1423
21886SOL    HW283651   8.223   4.429   2.347  0.9246  1.1648 -0.6974
21887SOL     OW83652  12.406   8.397   8.802  0.1643 -0.0356 -0.5390
21887SOL    HW183653  12.468   8.409   8.874 -0.2063  3.0257 -0.5753
21887SOL    HW283654  12.327   8.364   8.844 -0.4467  2.8250  0.8013
21888SOL     OW83655  10.611   2.906   6.394  0.8768 -0.1579 -0.4587
21888SOL    HW183656  10.701   2.900   6.361  0.6444  1.5694 -1.5582
21888SOL    HW283657  10.556   2.877   6.322  0.4967  0.2078 -0.3198
21889SOL     OW83658   0.621   1.815   5.333 -0.5118  0.1142  0.3152
21889SOL    HW183659   0.624   1.778   5.245  0.9637 -0.2491  0.4880
21889SOL    HW283660   0.661   1.901   5.325 -2.2375  0.9552  0.2730
21890SOL     OW83661   0.010  13.451   0.270  0.1901  0.0624 -0.4362
21890SOL    HW183662   0.076  13.408   0.215 -0.9897 -0.3186 -1.6007
21890SOL    HW283663   0.005  13.540   0.236  1.4391  0.6817  0.8998
21891SOL     OW83664   1.582  12.843  10.736 -0.6903  0.1560  0.2521
21891SOL    HW183665   1.497  12.874  10.705  0.2395  1.4722 -1.1316
21891SOL    HW283666   1.601  12.897  10.813 -0.9498  0.0787  0.3718
21892SOL     OW83667   5.119   3.392  10.705  0.0603  0.2009  0.0168
21892SOL    HW183668   5.028   3.416  10.723  0.1865 -0.7487  2.3484
21892SOL    HW283669   5.167   3.475  10.712 -0.6294  0.7794 -1.6603
21893SOL     OW83670  12.554   5.583   4.097 -0.8105  0.0328 -0.2715
21893SOL    HW183671  12.607   5.509   4.066 -1.5577  0.3972 -2.5923
21893SOL    HW283672  12.487   5.543   4.152 -0.0133 -0.7748  0.1338
21894SOL     OW83673   6.586  13.975   8.791 -0.3416 -0.2588  0.4912
21894SOL    HW183674   6.617  13.946   8.705 -0.2166  0.4632  0.2870
21894SOL    HW283675   6.568  13.894   8.838  3.2655 -0.8050  1.1757
21895SOL     OW83676  11.311   9.825   7.514 -0.2655  0.3557 -0.0821
21895SOL    HW183677  11.291   9.875   7.434  1.6586 -1.7728 -2.0401
21895SOL    HW283678  11.392   9.864   7.546  0.4642 -0.5211 -0.8016
21896SOL     OW83679   4.022   2.466   6.410  0.6315  0.6793  0.2246
21896SOL    HW183680   4.085   2.537   6.407  2.0160 -0.5221 -0.4198
21896SOL    HW283681   3.985   2.470   6.498  0.3931  2.3928  0.0813
21897SOL     OW83682   9.036  10.127   2.304  0.3531 -0.1511  0.2126
21897SOL    HW183683   9.023  10.222   2.306  0.6275  0.1884 -4.0358
21897SOL    HW283684   8.950  10.091   2.283  0.8019 -0.4713 -1.2078
21898SOL     OW83685   0.168   3.693   0.272  0.0222 -0.2113 -0.1216
21898SOL    HW183686   0.217   3.666   0.195  0.8310 -0.8540  0.5947
21898SOL    HW283687   0.212   3.773   0.302  1.1419 -1.1837  0.9405
21899SOL     OW83688   4.652   4.623   5.330  0.5291 -0.2931  0.3721
21899SOL    HW183689   4.602   4.602   5.410 -1.1544  0.7336 -0.3607
21899SOL    HW283690   4.667   4.538   5.289 -1.4343 -0.6181  0.1938
21900SOL     OW83691   8.021   4.857   9.170  0.4714  0.0513 -0.2437
21900SOL    HW183692   8.055   4.776   9.133  1.4924  0.7916 -0.9832
21900SOL    HW283693   8.023   4.843   9.265 -0.4733 -1.1953 -0.3722
21901SOL     OW83694  10.316   9.046   9.852 -0.1524 -0.1041  0.0938
21901SOL    HW183695  10.268   8.992   9.914 -1.2382  0.3870 -0.2937
21901SOL    HW283696  10.363   9.109   9.907 -1.1563  0.3701  0.4339
21902SOL     OW83697   2.630   7.037   5.182 -0.0607  0.6434  0.6286
21902SOL    HW183698   2.634   7.065   5.090  0.1134 -0.0660  0.4076
21902SOL    HW283699   2.654   6.944   5.179  0.2862  0.6989  1.4385
21903SOL     OW83700   0.308   2.646  11.959 -0.3661  0.1828  0.3725
21903SOL    HW183701   0.304   2.557  11.996 -0.4057 -1.7595 -3.6883
21903SOL    HW283702   0.219   2.679  11.966 -0.6531 -0.6612  0.8448
21904SOL     OW83703  12.364   9.258   1.374 -0.5039  0.7064  0.1569
21904SOL    HW183704  12.386   9.331   1.431  1.4071 -0.0086  0.3933
21904SOL    HW283705  12.305   9.203   1.426 -1.9018  1.9809 -0.0000
21905SOL     OW83706   0.918   5.592   1.988 -0.1776 -0.3359 -0.2233
21905SOL    HW183707   0.930   5.568   2.080 -0.3912 -0.3244 -0.1924
21905SOL    HW283708   0.967   5.674   1.979  0.6148 -0.8122 -0.3507
21906SOL     OW83709   0.632   0.075  12.739  0.3602 -0.5610 -0.0946
21906SOL    HW183710   0.651   0.168  12.751  0.6190 -0.5227 -0.7878
21906SOL    HW283711   0.548   0.062  12.784  1.3835 -0.4888  1.9504
21907SOL     OW83712   6.763   9.473  11.425 -0.4408 -0.5616 -0.1223
21907SOL    HW183713   6.773   9.383  11.392 -2.6250 -1.2274  0.8649
21907SOL    HW283714   6.792   9.468  11.516  0.9553  0.1471 -0.5054
21908SOL     OW83715   0.225  13.840   2.343 -0.2132  0.7579  0.3263
21908SOL    HW183716   0.239  13.911   2.281  2.1756  0.4265  0.3813
21908SOL    HW283717   0.135  13.852   2.374 -0.1092  3.3041 -0.1752
21909SOL     OW83718   5.292  13.402  11.897  0.0509 -0.1334  0.1573
21909SOL    HW183719   5.312  13.460  11.970  0.2558 -0.2463  0.1918
21909SOL    HW283720   5.204  13.427  11.869  1.0757  1.9132 -1.4528
21910SOL     OW83721   5.305   6.270   2.186 -0.2468 -0.4956 -0.3123
21910SOL    HW183722   5.383   6.223   2.156 -0.3525 -0.0865 -1.2620
21910SOL    HW283723   5.332   6.361   2.191 -0.3016 -0.5228  0.6505
21911SOL     OW83724   6.339   8.629   9.891 -0.9025  0.0206 -0.0443
21911SOL    HW183725   6.402   8.618   9.820 -0.6749  0.6629  0.0555
21911SOL    HW283726   6.374   8.577   9.963  0.0022  1.0858  0.3196
21912SOL     OW83727   6.229  12.680   6.249  0.1659  0.1099 -0.3528
21912SOL    HW183728   6.226  12.763   6.296  0.5413 -1.0353  1.8218
21912SOL    HW283729   6.137  12.653   6.242  0.0980  0.3578 -0.4321
21913SOL     OW83730   4.963   9.622   1.111 -0.3839  0.2126  0.0984
21913SOL    HW183731   5.000   9.710   1.101  1.2271 -0.4745 -0.3911
21913SOL    HW283732   4.905   9.612   1.036 -1.9372  1.4529  1.0684
21914SOL     OW83733  14.008   5.859   5.074 -0.7879 -0.3316  0.0821
21914SOL    HW183734  13.984   5.917   5.003 -0.4097 -0.4411 -0.1410
21914SOL    HW283735  13.953   5.885   5.147 -2.0884 -1.0532 -0.6130
21915SOL     OW83736  10.413  13.855   8.677  0.2281  0.4563 -0.1863
21915SOL    HW183737  10.365  13.873   8.596 -0.6200 -1.8457 -0.2758
21915SOL    HW283738  10.501  13.890   8.662  0.5758 -1.2213 -2.7722
21916SOL     OW83739  13.788   3.804  11.086  0.0115 -0.2802 -0.4900
21916SOL    HW183740  13.731   3.742  11.041  0.0469 -0.3791 -0.4023
21916SOL    HW283741  13.780   3.885  11.037 -1.0736  0.0351  0.1819
21917SOL     OW83742  10.936   1.296   1.757  0.4119 -0.8443 -0.2833
21917SOL    HW183743  11.008   1.340   1.803 -1.2005  1.2104  0.4453
21917SOL    HW283744  10.977   1.221   1.715  2.8300 -0.1990  0.7335
21918SOL     OW83745  12.471   5.110   0.219 -0.8293 -0.4621 -0.6899
21918SOL    HW183746  12.454   5.017   0.236 -0.6430 -0.1049  1.9179
21918SOL    HW283747  12.555   5.127   0.262  0.2773  0.4668 -3.0565
21919SOL     OW83748  13.717   8.732  10.211 -0.3505  0.4884 -0.5749
21919SOL    HW183749  13.779   8.670  10.172 -0.2604  0.7593 -0.8579
21919SOL    HW283750  13.631   8.693  10.195 -0.2389 -0.1237  0.2233
21920SOL     OW83751   4.171   1.669   8.402 -0.4692 -0.0278 -0.2655
21920SOL    HW183752   4.212   1.618   8.333 -0.9441 -0.6624 -0.0888
21920SOL    HW283753   4.211   1.756   8.395  0.6554 -0.5365 -0.2937
21921SOL     OW83754  11.411  13.249   4.936 -0.0559 -0.0032  0.0202
21921SOL    HW183755  11.452  13.196   5.004  1.5806  1.4352  0.2231
21921SOL    HW283756  11.321  13.216   4.931  0.8660 -2.7468  0.1131
21922SOL     OW83757  11.976   0.982  13.608  0.4491 -0.1893 -0.1572
21922SOL    HW183758  12.011   1.043  13.672  0.3715 -0.0208 -0.2734
21922SOL    HW283759  11.943   0.908  13.659 -0.3252  0.2923  0.0565
21923SOL     OW83760  13.015   9.763   1.376 -0.4726 -0.6049 -0.5624
21923SOL    HW183761  12.931   9.774   1.332 -0.0785  0.5191 -1.0901
21923SOL    HW283762  13.000   9.795   1.465 -0.8281 -1.2388 -0.3941
21924SOL     OW83763   1.493   0.477   1.877  0.0786 -0.3965 -0.4838
21924SOL    HW183764   1.502   0.435   1.791  1.7661  0.6901 -0.8798
21924SOL    HW283765   1.485   0.404   1.938 -0.3223 -1.2089 -1.4641
21925SOL     OW83766   6.391   6.959   4.814 -0.1636 -0.4364 -0.2216
21925SOL    HW183767   6.350   7.026   4.870  2.4020  0.6390  0.5353
21925SOL    HW283768   6.437   7.010   4.748  0.2560 -1.5614 -0.8063
21926SOL     OW83769   8.835   9.990   3.077 -0.0745 -0.1228  0.5024
21926SOL    HW183770   8.747  10.009   3.111  0.3380 -1.2025  2.3005
21926SOL    HW283771   8.851   9.899   3.101  1.3097 -0.1384 -0.3609
21927SOL     OW83772   0.639   2.265   1.290 -0.1753 -0.1164  0.1979
21927SOL    HW183773   0.553   2.226   1.305 -0.9095  0.6360 -1.6434
21927SOL    HW283774   0.701   2.202   1.325 -1.4513 -1.1431  0.6869
21928SOL     OW83775   9.495   7.624  11.710  0.5585  0.0472  0.0762
21928SOL    HW183776   9.501   7.577  11.793  1.6238  1.4184  0.8143
21928SOL    HW283777   9.461   7.711  11.734  0.6914  0.3969 -0.9443
21929SOL     OW83778  10.545   1.222   7.818  0.6781  0.1342 -0.0669
21929SOL    HW183779  10.513   1.161   7.751 -1.5692  0.8196  0.2814
21929SOL    HW283780  10.538   1.308   7.776  1.6697  0.3628  0.2162
21930SOL     OW83781   9.575   5.128   4.634  0.0456 -0.2143 -0.4636
21930SOL    HW183782   9.670   5.119   4.625  0.1169  0.3082 -0.2317
21930SOL    HW283783   9.555   5.212   4.593 -0.5641 -1.1407 -2.1667
21931SOL     OW83784   8.775   9.682   8.107  0.3198  0.8339 -0.3791
21931SOL    HW183785   8.708   9.746   8.131 -0.0746 -0.0387  1.0162
21931SOL    HW283786   8.858   9.727   8.119  0.0135  1.4200 -0.4598
21932SOL     OW83787   8.977   1.558   6.662 -0.3540 -0.0693  0.0962
21932SOL    HW183788   8.994   1.530   6.752 -2.3972 -1.2568  0.1935
21932SOL    HW283789   9.028   1.497   6.609  2.3723  1.7957  0.3772
21933SOL     OW83790  14.096  10.841  12.916  0.0183 -0.2064  0.2560
21933SOL    HW183791  14.070  10.749  12.930 -0.6868 -0.1120 -0.3831
21933SOL    HW283792  14.014  10.890  12.925 -0.5660 -0.0842 -3.8541
21934SOL     OW83793  14.095   2.109   4.040  0.2523  0.7963 -0.0220
21934SOL    HW183794  14.125   2.189   4.082  1.0303  0.9989 -0.9395
21934SOL    HW283795  14.045   2.138   3.964 -0.4699  0.4219  0.2964
21935SOL     OW83796  13.629  13.851   7.228  0.2960 -0.0289  0.0357
21935SOL    HW183797  13.658  13.941   7.244 -0.4034  0.1303  0.4134
21935SOL    HW283798  13.544  13.860   7.185  0.1181 -0.5095  0.2793
21936SOL     OW83799  11.666   9.290   4.604 -0.0821 -0.0708 -0.1461
21936SOL    HW183800  11.622   9.246   4.676  1.2396  0.1397  0.8438
21936SOL    HW283801  11.759   9.291   4.630  0.3597  0.4118 -1.6409
21937SOL     OW83802   6.512  13.301   0.386 -0.0395  0.0176  0.0982
21937SOL    HW183803   6.499  13.298   0.292 -0.6978  1.8099  0.0798
21937SOL    HW283804   6.431  13.264   0.423 -1.2754  2.3328 -0.0801
21938SOL     OW83805   2.606   7.295  10.765 -0.7240 -0.4115  0.6258
21938SOL    HW183806   2.526   7.323  10.722  0.0181  2.8299  1.1376
21938SOL    HW283807   2.657   7.254  10.695 -1.2233  1.0584 -0.6575
21939SOL     OW83808   5.791  13.093   3.080  0.8357  0.7369  0.4488
21939SOL    HW183809   5.748  13.136   3.154 -1.6081 -1.1384  0.2319
21939SOL    HW283810   5.827  13.012   3.116 -0.3312 -0.1649 -0.3584
21940SOL     OW83811   4.821  13.169  12.574 -0.0696  0.0741  0.0829
21940SOL    HW183812   4.839  13.202  12.486 -1.4213 -1.2118 -0.7190
21940SOL    HW283813   4.729  13.189  12.588 -0.5587 -1.9903  0.1353
21941SOL     OW83814  13.218   4.386  10.565 -0.4027 -0.1288 -0.4202
21941SOL    HW183815  13.202   4.481  10.567 -2.0983 -0.3725  1.0075
21941SOL    HW283816  13.152   4.352  10.504  0.0766 -0.4226 -0.7832
21942SOL     OW83817   4.718   2.254   3.787 -0.1193  0.2174  0.2895
21942SOL    HW183818   4.702   2.268   3.694  1.0963  1.8265  0.2731
21942SOL    HW283819   4.801   2.206   3.791 -1.4992 -2.2788  0.5198
21943SOL     OW83820  12.225  13.638   9.124  0.3066 -0.0114  0.0994
21943SOL    HW183821  12.286  13.639   9.050 -0.1575  0.2767 -0.2825
21943SOL    HW283822  12.281  13.621   9.200  0.8745  0.3009 -0.2378
21944SOL     OW83823   1.451  11.655   6.389  0.3889 -0.6716  0.2233
21944SOL    HW183824   1.395  11.633   6.314 -0.4959  0.1383  0.6160
21944SOL    HW283825   1.393  11.703   6.448  1.2999 -0.5525  1.0384
21945SOL     OW83826   2.196   1.655   5.893 -0.3632 -0.4256 -0.3803
21945SOL    HW183827   2.167   1.564   5.881  0.8370 -0.7984 -0.6865
21945SOL    HW283828   2.280   1.647   5.939 -2.0688  0.7370  3.2697
21946SOL     OW83829  11.994  11.579   2.407  0.0042  0.3514 -0.5952
21946SOL    HW183830  12.013  11.618   2.493 -0.3503  1.9262 -1.1974
21946SOL    HW283831  12.080  11.564   2.368  0.2803 -2.4895  0.8742
21947SOL     OW83832  10.952   6.540  11.609 -0.2986 -0.3942 -0.2481
21947SOL    HW183833  10.963   6.630  11.641 -0.7719 -0.6437  0.6515
21947SOL    HW283834  10.991   6.486  11.678 -0.5608 -0.9040 -0.4995
21948SOL     OW83835   6.700   8.972  12.585 -0.0301 -0.1478 -0.5499
21948SOL    HW183836   6.703   8.985  12.490  0.1741 -1.4143 -0.7339
21948SOL    HW283837   6.783   9.005  12.617  0.6892 -1.3921 -1.0611
21949SOL     OW83838   5.681   5.541   1.200  0.6563  0.0803  0.4134
21949SOL    HW183839   5.752   5.487   1.235 -0.3315 -0.9987  0.7928
21949SOL    HW283840   5.654   5.497   1.120 -0.1915 -0.0340  0.7511
21950SOL     OW83841   4.019   9.496  10.770 -0.3211  0.1955  0.6250
21950SOL    HW183842   4.057   9.522  10.854 -0.7370  0.3020  0.7793
21950SOL    HW283843   3.951   9.433  10.793 -0.7712  0.5969  0.4022
21951SOL     OW83844  13.588   4.330   0.463  0.4413 -0.3064 -0.3229
21951SOL    HW183845  13.505   4.288   0.485  0.2525  0.3484  0.2435
21951SOL    HW283846  13.563   4.404   0.407  0.7011 -0.4580 -0.6436
21952SOL     OW83847  12.116   6.449   8.182 -0.1340  0.3841 -0.4072
21952SOL    HW183848  12.153   6.535   8.200  1.1910 -0.4960  1.5134
21952SOL    HW283849  12.187   6.402   8.137  0.2216 -0.5034  0.9888
21953SOL     OW83850  10.154   3.591  11.973 -0.1141 -0.3363 -0.0293
21953SOL    HW183851  10.109   3.553  11.897 -0.3956  1.1864 -0.6563
21953SOL    HW283852  10.108   3.674  11.988  1.7238  0.7040  0.0571
21954SOL     OW83853  13.368  10.085  11.562  0.2691 -0.2026 -0.8564
21954SOL    HW183854  13.290  10.030  11.570  0.4936 -0.4780 -0.4941
21954SOL    HW283855  13.385  10.090  11.468 -0.1366 -0.2129 -0.9297
21955SOL     OW83856  11.515  13.246   3.348  0.6950 -0.2024 -0.0620
21955SOL    HW183857  11.528  13.329   3.394  1.9634  0.2871 -1.2170
21955SOL    HW283858  11.604  13.211   3.336  0.1681 -1.9092  0.6781
21956SOL     OW83859   6.766   0.289   3.479  0.1026  0.1289  0.6391
21956SOL    HW183860   6.697   0.323   3.537  0.1132 -2.4631  2.3396
21956SOL    HW283861   6.758   0.194   3.485  1.7197 -0.2509 -1.7815
21957SOL     OW83862   7.366   1.238  11.904  0.6540  0.1881 -0.7904
21957SOL    HW183863   7.274   1.214  11.914  0.9587 -0.2174  1.7255
21957SOL    HW283864   7.367   1.295  11.828 -1.4966 -0.6592 -1.5514
21958SOL     OW83865   9.430  10.621   3.832  0.8568 -0.2598  0.4577
21958SOL    HW183866   9.490  10.608   3.905  0.8680 -0.3198  0.4375
21958SOL    HW283867   9.473  10.688   3.778  0.6110  0.1551  0.7682
21959SOL     OW83868  11.863  12.011   0.673  0.2859 -0.0881  0.3351
21959SOL    HW183869  11.917  11.946   0.718  1.2429  1.0070  0.8335
21959SOL    HW283870  11.891  12.006   0.582  1.1385  0.3686  0.5655
21960SOL     OW83871   2.526   4.566  11.933 -0.4165 -0.0913 -0.3459
21960SOL    HW183872   2.441   4.606  11.916 -0.3370  0.0968 -0.3080
21960SOL    HW283873   2.543   4.584  12.025 -0.7803 -0.9807 -0.1038
21961SOL     OW83874  11.696  13.852   4.376 -0.5953  0.5151 -0.0767
21961SOL    HW183875  11.770  13.913   4.376 -2.0882  2.4585 -0.7080
21961SOL    HW283876  11.733  13.769   4.404  1.6691  1.5785  0.3383
21962SOL     OW83877   4.726   5.547   7.673  0.3411 -0.4814  0.4321
21962SOL    HW183878   4.760   5.601   7.746 -0.4699  0.7205 -0.0445
21962SOL    HW283879   4.784   5.567   7.600  1.1104 -1.6337  0.6998
21963SOL     OW83880  13.675   9.561   2.288  0.3358  0.1508 -0.1798
21963SOL    HW183881  13.690   9.589   2.378 -0.7851 -1.0346  0.4080
21963SOL    HW283882  13.598   9.612   2.260 -0.1676 -0.4896  0.0228
21964SOL     OW83883   7.077   0.338   3.279  0.0324 -0.2970 -0.1638
21964SOL    HW183884   7.059   0.430   3.258 -3.9632 -0.5624  1.1778
21964SOL    HW283885   7.039   0.289   3.206 -2.9114 -0.8679  1.5759
21965SOL     OW83886  13.336   7.254  12.421  0.3013  0.3793 -0.2683
21965SOL    HW183887  13.393   7.181  12.443  0.6721  0.2823 -1.4935
21965SOL    HW283888  13.299   7.282  12.505  0.4654 -0.9411  0.2631
21966SOL     OW83889   7.585   5.920   0.311  0.2402 -0.4523 -0.4501
21966SOL    HW183890   7.601   5.867   0.232 -1.5797  0.2876 -1.3779
21966SOL    HW283891   7.555   6.005   0.277 -2.5106 -0.7397  0.9853
21967SOL     OW83892   3.572  11.398   8.765 -0.3392  0.0264  1.1574
21967SOL    HW183893   3.529  11.347   8.697 -1.7240  0.1715  1.8934
21967SOL    HW283894   3.512  11.395   8.839 -0.0744  1.9994  1.5123
21968SOL     OW83895   3.429   3.840   5.722  0.2061 -0.0870 -0.6002
21968SOL    HW183896   3.499   3.873   5.778 -1.3689 -1.1457  2.2046
21968SOL    HW283897   3.350   3.887   5.750 -1.0220 -2.0997 -0.4071
21969SOL     OW83898   9.150   8.036   7.169 -0.0863 -0.1400 -1.0919
21969SOL    HW183899   9.136   7.955   7.219 -0.0049  0.4995 -0.0174
21969SOL    HW283900   9.204   8.009   7.095  1.3823 -0.7737  0.1614
21970SOL     OW83901  12.718   3.858  13.973  0.4123 -0.1659  0.7016
21970SOL    HW183902  12.732   3.875  14.066 -1.0973  0.9857  0.7506
21970SOL    HW283903  12.693   3.766  13.969 -1.3786  0.2275  1.6962
21971SOL     OW83904  11.422   9.561  12.925  0.4518 -0.1134  0.1993
21971SOL    HW183905  11.349   9.512  12.964  0.1216 -0.4520 -0.8198
21971SOL    HW283906  11.388   9.591  12.840  1.0055  0.9864  0.3466
21972SOL     OW83907  12.895  10.003   6.859  0.0140  0.4212 -0.4827
21972SOL    HW183908  12.913  10.036   6.770 -0.9554  3.0969  0.2350
21972SOL    HW283909  12.800   9.996   6.863  0.1416 -1.6812 -0.2576
21973SOL     OW83910  10.675   6.657   1.019 -0.5778 -0.3638 -0.3127
21973SOL    HW183911  10.602   6.663   0.958 -1.4168 -0.4880  0.6422
21973SOL    HW283912  10.726   6.737   1.005 -0.9556 -0.2314 -0.9196
21974SOL     OW83913   4.534  10.410   4.280  0.1234  0.0356  0.7029
21974SOL    HW183914   4.598  10.480   4.289  0.3332  0.1984 -1.5577
21974SOL    HW283915   4.586  10.330   4.282  0.3517  0.1409 -0.5364
21975SOL     OW83916   0.268   9.053   7.905 -0.0204  0.2429  0.4393
21975SOL    HW183917   0.297   9.139   7.877 -0.3752  0.6242  1.2188
21975SOL    HW283918   0.174   9.062   7.918  0.1486  0.1636  1.9434
21976SOL     OW83919   3.241   3.461   4.324 -0.8130  0.0352  0.0733
21976SOL    HW183920   3.154   3.470   4.285 -1.1154  0.7178  0.8646
21976SOL    HW283921   3.233   3.388   4.385 -0.6689 -0.2672 -0.2662
21977SOL     OW83922   4.589   2.076  11.881  0.8925 -0.4218 -0.2450
21977SOL    HW183923   4.570   1.983  11.895  0.8261 -0.3271  0.3390
21977SOL    HW283924   4.504   2.116  11.863  0.6330 -0.1745  1.3353
21978SOL     OW83925   4.466   8.497  10.531  0.0925  0.5821  0.6890
21978SOL    HW183926   4.498   8.502  10.621  0.8443  0.0554  0.4637
21978SOL    HW283927   4.381   8.541  10.533  0.7513  1.9042  1.3514
21979SOL     OW83928   0.506   3.003   0.350  0.1086  0.1078 -0.1604
21979SOL    HW183929   0.512   3.089   0.310 -1.9634  0.8371  0.9603
21979SOL    HW283930   0.594   2.985   0.383  0.3059  2.3358  0.6388
21980SOL     OW83931   6.009   5.807  10.310 -0.0312 -0.0634  0.2377
21980SOL    HW183932   6.087   5.777  10.357 -1.5111 -2.4597  1.3868
21980SOL    HW283933   5.995   5.740  10.242 -1.4794 -0.0963  0.5476
21981SOL     OW83934   9.237  11.455   2.390  0.0736  0.2355  0.0538
21981SOL    HW183935   9.223  11.489   2.302  0.9663 -0.2995 -0.3078
21981SOL    HW283936   9.332  11.459   2.402 -0.0547  0.5024  1.0736
21982SOL     OW83937   8.499  13.556  12.761  0.2576  0.2609  0.3480
21982SOL    HW183938   8.497  13.537  12.855 -1.5077  2.3261  0.8203
21982SOL    HW283939   8.507  13.471  12.719  0.0034 -0.8145  2.3515
21983SOL     OW83940   3.828   5.838   7.797  0.3151 -0.3645  0.1204
21983SOL    HW183941   3.748   5.847   7.847  0.6964 -1.6410  0.9854
21983SOL    HW283942   3.831   5.747   7.770  0.5859  0.0719 -1.4688
21984SOL     OW83943   4.372   0.007   1.877  0.6574 -0.1447 -0.6443
21984SOL    HW183944   4.405   0.002   1.967 -2.6066  0.7912  0.7898
21984SOL    HW283945   4.377   0.100   1.855  2.0743 -0.4617 -1.7444
21985SOL     OW83946  12.049  11.334   6.857 -0.0404 -0.2785  0.6125
21985SOL    HW183947  11.957  11.311   6.874 -0.0153 -1.7383 -0.9252
21985SOL    HW283948  12.090  11.251   6.832  1.2544  0.6562 -0.5109
21986SOL     OW83949   0.091   6.627  11.255 -0.1529 -0.1303 -0.1696
21986SOL    HW183950   0.039   6.595  11.181 -1.7605 -2.5779  1.8189
21986SOL    HW283951   0.173   6.577  11.250 -0.0484  0.0772 -0.5567
21987SOL     OW83952   1.513   2.893  13.114  0.3980  0.0391 -0.1521
21987SOL    HW183953   1.457   2.935  13.179  0.6330  0.0735  0.0310
21987SOL    HW283954   1.557   2.823  13.162 -0.0499 -0.4695 -0.4762
21988SOL     OW83955   6.210   1.929   0.696 -0.3025  0.5632  0.0304
21988SOL    HW183956   6.298   1.894   0.683  0.0308  1.6702 -0.8001
21988SOL    HW283957   6.209   2.012   0.647 -1.9364  0.3686 -0.3184
21989SOL     OW83958  11.239   1.079  12.604  0.0717 -0.6946  0.3920
21989SOL    HW183959  11.293   1.155  12.626 -1.2971 -0.0236  1.6088
21989SOL    HW283960  11.292   1.028  12.543  1.3958  0.7608  0.2844
21990SOL     OW83961   4.014  13.947   7.268 -0.5717  0.1904 -0.3296
21990SOL    HW183962   4.054  14.012   7.326  0.8829 -0.4302 -0.5807
21990SOL    HW283963   3.962  13.892   7.326  0.1538  0.1163  0.2620
21991SOL     OW83964  13.075   5.041   6.645 -0.0045  0.1456 -1.0882
21991SOL    HW183965  13.084   5.004   6.558  1.4464 -2.0325 -0.0931
21991SOL    HW283966  13.132   4.988   6.700  0.4369  2.5174  0.9037
21992SOL     OW83967   0.465   7.787   5.916 -0.0638 -0.3250  0.6584
21992SOL    HW183968   0.456   7.863   5.860 -1.1537 -1.1606 -0.3472
21992SOL    HW283969   0.560   7.772   5.922  0.0749 -1.0753 -2.1884
21993SOL     OW83970   7.418  10.325   0.362 -0.5303 -0.1871 -0.1240
21993SOL    HW183971   7.453  10.251   0.313  0.3414  0.4341 -0.4517
21993SOL    HW283972   7.332  10.340   0.324 -0.6672 -0.9393 -0.1398
21994SOL     OW83973   5.766   0.075  12.289 -0.4385  0.0590 -0.9122
21994SOL    HW183974   5.715   0.044  12.364  0.3862  0.7365 -0.0379
21994SOL    HW283975   5.760   0.170  12.294  1.2093  0.1756 -0.5432
21995SOL     OW83976   1.312   1.673   3.212  0.6444 -0.1421 -0.0666
21995SOL    HW183977   1.323   1.767   3.205  0.6352 -0.0974  0.4479
21995SOL    HW283978   1.395   1.642   3.249 -0.2219 -0.0109  2.1996
21996SOL     OW83979   2.183   1.914  14.101  0.5006 -0.2654  0.3355
21996SOL    HW183980   2.185   1.985  14.037 -2.7076  0.2481  0.6458
21996SOL    HW283981   2.196   1.957  14.185  2.1928 -0.6231  0.3091
21997SOL     OW83982   2.592   8.167   0.029  0.0896 -0.3422 -0.0487
21997SOL    HW183983   2.502   8.135   0.028  0.1611 -0.5428 -0.0292
21997SOL    HW283984   2.638   8.109   0.090  0.7387 -1.6162 -1.6768
21998SOL     OW83985  11.650   7.819   5.705 -0.3058 -0.6920  0.0952
21998SOL    HW183986  11.580   7.854   5.651 -1.0580  1.2610  2.2135
21998SOL    HW283987  11.730   7.836   5.655 -0.9603  1.2181 -0.3667
21999SOL     OW83988   0.728   7.132   9.785 -0.0944 -0.2336 -0.1571
21999SOL    HW183989   0.752   7.197   9.719  1.2346  1.7436  2.1303
21999SOL    HW283990   0.651   7.168   9.828  0.5738 -0.1842  1.0484
22000SOL     OW83991   6.450   2.551   2.529  0.2899 -0.1238 -0.1544
22000SOL    HW183992   6.415   2.558   2.440  0.3383 -1.1116 -0.2621
22000SOL    HW283993   6.448   2.457   2.548 -0.3994  0.1272  1.1600
22001SOL     OW83994   5.811   7.385  11.830 -0.0673 -0.0220 -0.0430
22001SOL    HW183995   5.840   7.475  11.844  0.9115 -0.1753 -0.9793
22001SOL    HW283996   5.840   7.338  11.909  0.0534  0.3228  0.1197
22002SOL     OW83997  12.129   8.709  11.775 -0.0093  0.3230  0.8416
22002SOL    HW183998  12.148   8.758  11.855 -1.4606  1.0835  0.7618
22002SOL    HW283999  12.056   8.652  11.798 -0.0543  0.1173  0.2126
22003SOL     OW84000   8.789  13.312  10.820 -0.2985  0.4023  0.1686
22003SOL    HW184001   8.766  13.241  10.760 -2.2188 -0.2405  1.5717
22003SOL    HW284002   8.885  13.312  10.822 -0.2455 -2.0657  0.0503
22004SOL     OW84003  12.336   0.627   8.728 -0.3112 -0.6176 -0.3072
22004SOL    HW184004  12.260   0.569   8.731 -0.6294 -0.2513 -0.9966
22004SOL    HW284005  12.409   0.571   8.702 -0.4776 -0.8394 -0.2944
22005SOL     OW84006   5.936   4.400   4.903 -0.0361  0.5090 -0.1245
22005SOL    HW184007   5.999   4.349   4.953  1.2986  0.2154 -1.9907
22005SOL    HW284008   5.966   4.491   4.913  1.8154  0.2371 -2.3474
22006SOL     OW84009   0.856   9.943   2.761  0.5642  0.1280  0.2572
22006SOL    HW184010   0.917   9.895   2.818  1.2058 -0.5402 -0.9501
22006SOL    HW284011   0.850   9.889   2.682 -1.6070  0.1812  0.3274
22007SOL     OW84012   9.377   6.225   3.272  0.4041 -0.5536  0.1667
22007SOL    HW184013   9.366   6.197   3.181 -0.1544 -0.1288  0.0944
22007SOL    HW284014   9.404   6.317   3.266 -1.2200 -0.0204  0.4333
22008SOL     OW84015   0.955   0.794   4.486  0.1383 -0.1883  0.1297
22008SOL    HW184016   1.016   0.867   4.496 -1.3916  0.9777  1.6471
22008SOL    HW284017   1.010   0.716   4.483  1.7187  0.8608  0.6619
22009SOL     OW84018  10.114   4.725   0.358  0.3998  0.0959  0.3521
22009SOL    HW184019  10.083   4.652   0.410  1.8266 -0.2542  0.7491
22009SOL    HW284020  10.142   4.791   0.422 -1.7113  1.4201  0.0168
22010SOL     OW84021  14.021  13.800   9.832 -0.3393  0.0338  0.5143
22010SOL    HW184022  13.988  13.826   9.746 -1.4970 -0.3125  0.8447
22010SOL    HW284023  14.083  13.869   9.855  0.8358 -0.4223 -1.0704
22011SOL     OW84024   3.977   9.604   3.761 -0.0428 -0.1093  0.7592
22011SOL    HW184025   3.899   9.643   3.800  0.0957  0.2261  0.7078
22011SOL    HW284026   3.960   9.604   3.666  0.0223 -0.0281  0.7472
22012SOL     OW84027   1.308   9.431   2.098  0.4209 -0.1560 -1.1253
22012SOL    HW184028   1.227   9.381   2.090  0.5491 -0.8959  1.3999
22012SOL    HW284029   1.377   9.369   2.076  0.4560 -0.4480 -0.2156
22013SOL     OW84030   4.501   0.560   4.613 -0.9733  0.2449  0.3807
22013SOL    HW184031   4.509   0.560   4.517  0.6855  1.2045  0.4765
22013SOL    HW284032   4.491   0.468   4.636 -1.9373  0.0440 -0.7396
22014SOL     OW84033   4.776   6.443  14.025 -0.4107 -0.4062  0.8394
22014SOL    HW184034   4.828   6.368  13.993 -0.6961  0.1625 -1.0713
22014SOL    HW284035   4.711   6.404  14.083 -0.5999 -1.6757 -0.1773
22015SOL     OW84036   4.902   1.379  10.662  0.3652 -0.1799 -0.6184
22015SOL    HW184037   4.989   1.356  10.695  0.0707  1.8715  1.9707
22015SOL    HW284038   4.861   1.295  10.641  3.3790 -1.1334 -3.3428
22016SOL     OW84039   1.624   6.705   0.512  0.9065 -0.1416  0.5542
22016SOL    HW184040   1.569   6.699   0.433  1.2478  0.7860  0.2373
22016SOL    HW284041   1.673   6.786   0.501  2.3020 -0.9134  0.8744
22017SOL     OW84042  11.475   7.978   6.866 -0.3612 -0.3421 -0.0772
22017SOL    HW184043  11.437   8.047   6.920  0.0788  0.4023 -0.6962
22017SOL    HW284044  11.422   7.977   6.787  1.0610  0.9613 -1.1140
22018SOL     OW84045  10.472   4.643  11.590 -0.5959  0.1609 -0.2368
22018SOL    HW184046  10.472   4.547  11.589  1.1918  0.1088  0.9975
22018SOL    HW284047  10.523   4.668  11.513  2.4392 -0.0517  1.5537
22019SOL     OW84048   1.049   0.979   1.913 -0.3823 -0.5663 -0.3639
22019SOL    HW184049   1.019   1.058   1.959 -0.7385  0.3885 -2.1429
22019SOL    HW284050   1.098   0.930   1.979 -2.9772 -0.5532  1.7291
22020SOL     OW84051  13.728   8.287   7.446 -0.0120  0.3620  0.1801
22020SOL    HW184052  13.723   8.192   7.458 -1.0867  0.3613 -0.1121
22020SOL    HW284053  13.708   8.323   7.532 -1.2452  0.3175 -0.0662
22021SOL     OW84054  11.185   9.756   8.595 -0.0316 -0.0153  0.1555
22021SOL    HW184055  11.265   9.795   8.630  0.8109 -0.4490 -1.2469
22021SOL    HW284056  11.143   9.827   8.546  0.6042 -0.3594 -0.9127
22022SOL     OW84057   2.193   4.390   6.750 -0.0461 -0.0954  0.4125
22022SOL    HW184058   2.194   4.434   6.835  0.9552  2.4819 -0.8139
22022SOL    HW284059   2.264   4.326   6.755  0.5431  0.5967  1.2684
22023SOL     OW84060  10.895   3.444   9.670  0.0600  0.2282  0.1790
22023SOL    HW184061  10.828   3.504   9.638 -1.8974  0.3095  3.8423
22023SOL    HW284062  10.953   3.499   9.722  0.6991 -0.4440  0.1920
22024SOL     OW84063   4.886   5.779   8.723 -0.7641  0.2716 -0.2556
22024SOL    HW184064   4.921   5.766   8.635 -0.1017  0.7726 -0.0722
22024SOL    HW284065   4.904   5.871   8.743  1.5496 -0.4552  1.4440
22025SOL     OW84066  11.105   9.647   7.408  0.1085  0.9992  0.3288
22025SOL    HW184067  11.029   9.619   7.358  1.6066 -0.5850 -1.2036
22025SOL    HW284068  11.180   9.614   7.358  1.7500  0.0903  3.1789
22026SOL     OW84069   3.926   2.334   1.514  0.1714  0.1104 -0.5937
22026SOL    HW184070   3.958   2.339   1.424  0.5782 -0.1959 -0.4676
22026SOL    HW284071   3.831   2.324   1.505  0.1880  0.2828 -0.9843
22027SOL     OW84072   8.789   0.434   2.510 -0.4459 -0.0093  0.0250
22027SOL    HW184073   8.819   0.452   2.599  0.9150 -0.2416 -0.3764
22027SOL    HW284074   8.737   0.354   2.519 -0.9284  0.3697  0.7160
22028SOL     OW84075  11.565  12.439   8.649 -0.2223 -0.5414 -0.2976
22028SOL    HW184076  11.481  12.393   8.641 -0.4290 -0.1766 -0.2517
22028SOL    HW284077  11.628  12.371   8.673 -0.2802 -1.0330 -1.4699
22029SOL     OW84078   9.171   5.141   2.619 -0.3231  0.2060  0.3291
22029SOL    HW184079   9.156   5.055   2.658 -0.0403  0.7491  1.6936
22029SOL    HW284080   9.103   5.150   2.552  0.0290 -1.3140 -0.2615
22030SOL     OW84081  11.823  10.062  11.973 -0.5904  0.2970 -0.1370
22030SOL    HW184082  11.790   9.993  12.031 -1.5016  1.1012  0.3285
22030SOL    HW284083  11.895  10.103  12.021  0.4879 -0.8162 -0.7436
22031SOL     OW84084   7.180   6.713   2.391  0.0437 -0.3960 -0.1871
22031SOL    HW184085   7.087   6.712   2.414  0.4503 -0.9358  1.6898
22031SOL    HW284086   7.185   6.767   2.313 -1.6153  1.3313  0.7928
22032SOL     OW84087   2.940  12.446   2.953 -0.2629 -0.2350  0.5050
22032SOL    HW184088   2.956  12.521   2.895  1.6683 -1.5438 -0.7523
22032SOL    HW284089   2.858  12.408   2.922  0.2283 -0.3149 -0.7317
22033SOL     OW84090   1.967  11.183   1.366 -0.7262 -0.1407  0.3240
22033SOL    HW184091   2.061  11.169   1.375 -0.7149  0.2708  0.9016
22033SOL    HW284092   1.944  11.138   1.284 -0.0091 -0.1289  0.1071
22034SOL     OW84093   7.037   3.687   8.030  0.0592 -0.3566  0.5883
22034SOL    HW184094   7.029   3.627   7.956  0.3388 -0.6506  0.7952
22034SOL    HW284095   6.950   3.691   8.068  0.1535 -1.0238  0.8793
22035SOL     OW84096  11.791   7.409   8.559  0.0642 -0.2999  0.2457
22035SOL    HW184097  11.761   7.441   8.644  0.3610 -0.5646  0.4504
22035SOL    HW284098  11.879   7.445   8.549  0.3589 -0.9519  0.4307
22036SOL     OW84099   3.873   2.449  14.053 -0.0493 -0.6591  0.1348
22036SOL    HW184100   3.908   2.421  14.137  0.2033  2.2696  1.1423
22036SOL    HW284101   3.947   2.443  13.992  0.9066  0.7699  1.0839
22037SOL     OW84102  13.459   2.710  12.075  0.0046 -0.0537 -0.5057
22037SOL    HW184103  13.425   2.649  12.140 -0.0701  0.3749 -0.1358
22037SOL    HW284104  13.383   2.734  12.022 -0.4311  1.3839  0.7072
22038SOL     OW84105  11.083   7.432  10.228 -0.0706  0.5921  0.2739
22038SOL    HW184106  11.155   7.415  10.167  0.1335 -0.2623  0.7436
22038SOL    HW284107  11.084   7.358  10.289 -2.5458 -0.4776 -0.8346
22039SOL     OW84108  12.396   8.231   9.218  0.2081 -0.2340 -0.1025
22039SOL    HW184109  12.429   8.144   9.197 -2.3963 -0.7566 -2.7959
22039SOL    HW284110  12.377   8.229   9.311  0.5234 -2.4142 -0.0442
22040SOL     OW84111   2.689   1.556   3.109  0.2383  0.3733  0.1838
22040SOL    HW184112   2.643   1.609   3.045 -1.2932  1.1358  1.8203
22040SOL    HW284113   2.713   1.476   3.062  0.1988  1.3670 -1.6030
22041SOL     OW84114   1.600   1.875  13.061  0.1621  0.4354 -0.1846
22041SOL    HW184115   1.544   1.800  13.082 -0.2999  0.5520 -0.9575
22041SOL    HW284116   1.548   1.952  13.086  0.3039  0.5230 -0.1550
22042SOL     OW84117   1.142   9.347   8.535 -0.1485  0.3047  0.5099
22042SOL    HW184118   1.160   9.364   8.627 -2.5475  2.6887  0.6604
22042SOL    HW284119   1.054   9.307   8.534 -0.4227  0.8751 -0.7530
22043SOL     OW84120  13.552   9.658   8.271 -0.7923  0.3110  0.1142
22043SOL    HW184121  13.508   9.611   8.200  0.6500  0.4772 -0.9362
22043SOL    HW284122  13.495   9.645   8.347 -2.4406  0.2087 -1.0734
22044SOL     OW84123   6.124   1.887  11.338  0.6501  0.2003 -0.1849
22044SOL    HW184124   6.153   1.798  11.359  1.2645  0.4707  0.1323
22044SOL    HW284125   6.202   1.941  11.351 -0.3140  1.1740  2.0871
22045SOL     OW84126   2.578   6.551   9.061  0.0418  0.6303  0.7941
22045SOL    HW184127   2.520   6.535   8.986  0.2297 -0.7313  0.9088
22045SOL    HW284128   2.526   6.526   9.137  1.3128 -2.4732  0.7809
22046SOL     OW84129  13.715   0.306  12.158  0.4148  0.0001 -0.0631
22046SOL    HW184130  13.694   0.235  12.098 -0.6892  0.1790  0.1041
22046SOL    HW284131  13.706   0.268  12.245 -0.1053  0.3242  0.0270
22047SOL     OW84132  12.056   1.848   5.907  0.0372 -0.1646  0.1799
22047SOL    HW184133  11.972   1.817   5.941 -0.7092  1.4862 -0.0534
22047SOL    HW284134  12.086   1.911   5.973  0.4232  0.2600 -0.3917
22048SOL     OW84135  11.889   1.903   0.322  0.1659  0.1614 -0.7410
22048SOL    HW184136  11.830   1.925   0.250 -0.7785  1.7500  0.4498
22048SOL    HW284137  11.939   1.828   0.290 -2.4930 -1.2874 -1.8220
22049SOL     OW84138   7.910   2.671   7.195 -0.5064  0.3413 -0.4890
22049SOL    HW184139   7.968   2.661   7.270  1.4675  0.4725 -1.9283
22049SOL    HW284140   7.822   2.666   7.232  0.3887  0.8692  1.8738
22050SOL     OW84141   5.261   8.677  11.691 -0.1288 -0.0753  0.4810
22050SOL    HW184142   5.262   8.701  11.783  0.5281  1.1121  0.1792
22050SOL    HW284143   5.342   8.627  11.678  0.6965  1.3122  0.1667
22051SOL     OW84144   7.574   4.700   1.780  0.0222  0.5470 -0.1029
22051SOL    HW184145   7.615   4.693   1.694  2.4409 -1.5043  1.0890
22051SOL    HW284146   7.622   4.770   1.824 -1.7356  2.1466 -0.6007
22052SOL     OW84147   6.047   0.830   7.834  0.0985 -0.3085 -0.1628
22052SOL    HW184148   6.014   0.748   7.872 -0.9916 -0.6437 -1.7217
22052SOL    HW284149   6.142   0.819   7.833  0.0755 -0.8350  1.1818
22053SOL     OW84150   9.100   4.938   8.391  0.0957 -0.7003 -0.1066
22053SOL    HW184151   9.186   4.980   8.398  0.1874 -0.9613  0.3788
22053SOL    HW284152   9.038   5.003   8.425 -0.0354 -0.0980 -1.4433
22054SOL     OW84153   5.271  12.105   1.172  0.4601 -0.1258  0.1360
22054SOL    HW184154   5.300  12.017   1.197 -2.2804 -1.3912 -0.7536
22054SOL    HW284155   5.274  12.104   1.076 -1.3679  0.0230  0.0478
22055SOL     OW84156  11.338   4.477   2.023  0.0995 -0.4669  0.2936
22055SOL    HW184157  11.314   4.537   2.093  0.6249  0.0081  0.0677
22055SOL    HW284158  11.338   4.390   2.064  1.6877 -0.0593  1.2231
22056SOL     OW84159  13.026   8.352  12.298  0.2300 -0.4418 -0.2248
22056SOL    HW184160  13.112   8.342  12.257 -0.4160 -0.5080 -1.6113
22056SOL    HW284161  13.004   8.444  12.286 -0.4332 -0.6924 -0.9974
22057SOL     OW84162  13.074  10.028   0.129 -0.1009 -0.2358 -0.0789
22057SOL    HW184163  13.116  10.107   0.097 -0.0214 -0.3683 -0.3080
22057SOL    HW284164  13.053   9.978   0.050 -1.1855  0.0749  0.0049
22058SOL     OW84165   5.721  10.188  13.409 -0.3183 -0.0282  0.0825
22058SOL    HW184166   5.630  10.173  13.381 -0.0669 -2.7646  0.4584
22058SOL    HW284167   5.730  10.137  13.490  1.6472 -0.0847 -0.1235
22059SOL     OW84168  11.802   9.703   7.619 -0.3376 -0.2248  0.0608
22059SOL    HW184169  11.764   9.791   7.619  2.2619  1.0250 -2.2360
22059SOL    HW284170  11.847   9.696   7.703 -1.1470  0.3435  0.5510
22060SOL     OW84171   7.309   4.232   1.596  0.4583 -0.5172 -0.1317
22060SOL    HW184172   7.217   4.208   1.596  0.5699 -1.0241 -1.2408
22060SOL    HW284173   7.338   4.215   1.506  0.9669  2.2121 -0.5793
22061SOL     OW84174  10.019   2.216   5.879 -0.1040 -0.2565  0.1930
22061SOL    HW184175  10.030   2.302   5.919  1.3507  0.6318 -1.9546
22061SOL    HW284176   9.925   2.211   5.859 -0.6313 -0.2019  2.3873
22062SOL     OW84177   9.735  11.372  10.405  0.3176 -0.5724  0.0932
22062SOL    HW184178   9.799  11.301  10.412  1.5218  0.4039 -0.6699
22062SOL    HW284179   9.783  11.444  10.365 -1.0800  0.4399  0.1626
22063SOL     OW84180   5.530  10.551  12.570 -0.0090  0.5503  0.0275
22063SOL    HW184181   5.439  10.537  12.593 -0.3530  0.2781 -1.3941
22063SOL    HW284182   5.532  10.543  12.475  1.5285  0.3795  0.0494
22064SOL     OW84183   7.863   0.108  11.945 -0.3577 -0.2846  0.1664
22064SOL    HW184184   7.783   0.150  11.975 -1.3094 -0.4499 -1.9408
22064SOL    HW284185   7.929   0.177  11.949 -1.5081  1.0113 -1.6296
22065SOL     OW84186  10.176  10.058   4.146  0.4176 -0.6823  0.1506
22065SOL    HW184187  10.265  10.084   4.174  0.5610 -0.0623 -0.8427
22065SOL    HW284188  10.121  10.132   4.172  0.4208 -0.4564 -0.4863
22066SOL     OW84189  13.111  11.275   9.432  0.3520 -0.5995 -0.3550
22066SOL    HW184190  13.029  11.243   9.394 -0.0112 -0.5549  0.3730
22066SOL    HW284191  13.175  11.268   9.361 -0.5985  0.7471 -1.3979
22067SOL     OW84192   9.146   8.304   2.376 -0.1643  0.0261  0.5027
22067SOL    HW184193   9.221   8.352   2.341 -1.9338  2.2652 -0.4269
22067SOL    HW284194   9.132   8.232   2.314 -0.9364  1.7318 -1.4087
22068SOL     OW84195   0.438   0.304   9.421 -0.4784 -0.4722  0.5113
22068SOL    HW184196   0.514   0.294   9.480 -1.0520  0.6321  1.4788
22068SOL    HW284197   0.370   0.341   9.477 -1.0278  0.6771 -0.8751
22069SOL     OW84198   1.796   3.518   0.374  0.1671 -0.1608  0.0507
22069SOL    HW184199   1.830   3.603   0.346 -1.1403 -0.0023 -1.1901
22069SOL    HW284200   1.724   3.539   0.433  1.1651 -0.4663  1.4144
22070SOL     OW84201   4.686  13.414  13.984 -0.0953  0.0534  0.4620
22070SOL    HW184202   4.688  13.336  13.929 -0.2664 -0.0309  0.5753
22070SOL    HW284203   4.625  13.473  13.940  1.9604  1.1888 -1.0578
22071SOL     OW84204   3.168   4.085  11.495 -0.7023 -0.4633  0.1898
22071SOL    HW184205   3.214   4.019  11.546  0.3267  0.5495  0.6153
22071SOL    HW284206   3.101   4.119  11.555 -0.7024 -0.5516  0.2402
22072SOL     OW84207   8.682   5.816  13.659 -1.0277 -0.1900 -0.3578
22072SOL    HW184208   8.774   5.836  13.639 -0.8118 -2.7533 -2.4286
22072SOL    HW284209   8.640   5.902  13.666  1.2934  1.0378 -0.4341
22073SOL     OW84210   4.755   5.163   9.805 -0.1125 -0.2305  0.3279
22073SOL    HW184211   4.721   5.085   9.760  2.4775 -1.0732 -0.3106
22073SOL    HW284212   4.676   5.210   9.832 -1.8662 -3.4813  1.5201
22074SOL     OW84213   6.409   6.849   1.562  0.0269  0.5026 -0.3157
22074SOL    HW184214   6.500   6.879   1.565  0.1074  0.2278  0.1292
22074SOL    HW284215   6.416   6.755   1.549 -0.1907  0.4495 -0.0339
22075SOL     OW84216   7.353  10.974   5.826 -0.0518  0.5587 -0.7461
22075SOL    HW184217   7.371  11.068   5.825 -2.0318  0.9671 -1.1386
22075SOL    HW284218   7.290  10.961   5.755 -2.0525 -0.5666  1.1238
22076SOL     OW84219  12.534   2.649   5.168  0.0338  0.2791  0.5629
22076SOL    HW184220  12.615   2.676   5.124 -1.1795  1.7132 -0.8845
22076SOL    HW284221  12.495   2.731   5.198 -2.1122 -0.0872 -1.0211
22077SOL     OW84222   4.256   1.495   6.488  0.3637 -0.0712 -0.0801
22077SOL    HW184223   4.272   1.482   6.582  0.5205 -1.3866 -0.2706
22077SOL    HW284224   4.276   1.410   6.448  0.8770  0.6359 -1.3871
22078SOL     OW84225  13.459   7.412   6.370  0.4697 -0.0153  0.2018
22078SOL    HW184226  13.447   7.395   6.277 -0.6218 -1.1623  0.5143
22078SOL    HW284227  13.429   7.502   6.383  0.2756  0.0211 -0.4899
22079SOL     OW84228  10.228  13.777   6.845 -0.2918  0.7431 -0.2144
22079SOL    HW184229  10.166  13.704   6.856  0.0694  0.6162  1.1452
22079SOL    HW284230  10.310  13.735   6.819 -0.6167  0.8739 -1.5525
22080SOL     OW84231   5.021   8.203   2.775 -0.2858  0.7528 -0.5959
22080SOL    HW184232   4.974   8.182   2.695 -2.0848  1.5552  0.2082
22080SOL    HW284233   5.021   8.122   2.826  1.7935 -0.0733 -1.7773
22081SOL     OW84234   2.697   7.552   7.752 -0.3069 -0.2466  0.1884
22081SOL    HW184235   2.736   7.640   7.753 -2.0284  0.5621  0.3598
22081SOL    HW284236   2.711   7.520   7.663 -0.4626  0.6059 -0.1526
22082SOL     OW84237   3.172   0.444   9.188  0.6169 -0.2436  0.8487
22082SOL    HW184238   3.095   0.429   9.244  0.3023 -1.2331  0.1758
22082SOL    HW284239   3.237   0.481   9.248 -1.2414  3.4482  0.9094
22083SOL     OW84240   1.579   2.668   3.326  0.6005  0.0273 -0.0699
22083SOL    HW184241   1.609   2.600   3.386  3.4615  0.0004 -1.3279
22083SOL    HW284242   1.490   2.643   3.303 -0.9532  0.3726  4.4727
22084SOL     OW84243   1.528   1.422   6.730  0.2060  0.2816  0.2926
22084SOL    HW184244   1.555   1.456   6.644 -0.4749  0.0245 -0.0288
22084SOL    HW284245   1.587   1.347   6.745  1.2084  1.1222  0.6642
22085SOL     OW84246   0.885   9.121   6.989  0.1486  0.0854  0.2047
22085SOL    HW184247   0.928   9.204   7.010 -0.1879  0.3509 -0.1576
22085SOL    HW284248   0.876   9.077   7.074  0.9880  0.0909  0.3113
22086SOL     OW84249   8.536   7.546   0.542  0.3785 -0.6802  0.3972
22086SOL    HW184250   8.563   7.587   0.459 -1.4451 -1.1686 -0.4754
22086SOL    HW284251   8.547   7.616   0.607  4.0507 -0.9419  0.2564
22087SOL     OW84252   5.798   3.579   2.145  0.4575  0.3967  0.1167
22087SOL    HW184253   5.740   3.554   2.217  1.2096  3.4324  1.9437
22087SOL    HW284254   5.743   3.572   2.067 -0.7463 -1.8240  1.0634
22088SOL     OW84255   2.235   5.164   2.193 -0.5472  0.1532  0.4278
22088SOL    HW184256   2.207   5.248   2.229 -2.2051  0.8131 -2.1588
22088SOL    HW284257   2.324   5.179   2.162  0.0323  0.2253  2.0132
22089SOL     OW84258  10.394  13.478   1.465  0.5834  0.3417 -0.0724
22089SOL    HW184259  10.455  13.497   1.394  2.4141 -0.8225  1.1130
22089SOL    HW284260  10.370  13.564   1.500 -0.8252  0.9821 -2.3992
22090SOL     OW84261   9.165   9.163   9.748 -0.0621  0.1291 -0.0277
22090SOL    HW184262   9.228   9.143   9.817  0.1430  1.0720  0.0828
22090SOL    HW284263   9.200   9.120   9.670  1.5830  1.8876 -0.3390
22091SOL     OW84264   1.856   9.979   3.605  0.0650  0.0392  0.5305
22091SOL    HW184265   1.916  10.018   3.669  1.5500  0.0465 -0.8094
22091SOL    HW284266   1.774  10.026   3.618  0.6824  0.8600  1.6342
22092SOL     OW84267   3.186   3.328  10.461  0.5303 -0.4448 -0.7845
22092SOL    HW184268   3.095   3.300  10.463  0.4372 -0.1113  0.1778
22092SOL    HW284269   3.226   3.275  10.392 -0.2544 -0.9968 -0.8251
22093SOL     OW84270   1.605  12.301   0.524 -0.3242  0.3674  0.4872
22093SOL    HW184271   1.514  12.296   0.553 -0.8968  1.8015 -0.9029
22093SOL    HW284272   1.613  12.230   0.459 -0.9935  1.3254 -0.6771
22094SOL     OW84273   6.955  10.070  12.082  0.5871  0.2574 -0.0617
22094SOL    HW184274   6.942  10.149  12.030  0.5809  0.8322  0.7908
22094SOL    HW284275   6.870  10.027  12.082  0.4348  0.5528 -0.0547
22095SOL     OW84276   0.557   7.722  11.597 -0.2977  0.5468  0.3054
22095SOL    HW184277   0.483   7.770  11.633 -0.3108  0.4745  0.3752
22095SOL    HW284278   0.613   7.789  11.558  0.3224  0.7636  1.5053
22096SOL     OW84279   0.442  12.197   6.768 -0.9686  0.2007  0.1957
22096SOL    HW184280   0.495  12.271   6.795 -0.2268 -0.8597  1.8264
22096SOL    HW284281   0.495  12.150   6.704 -1.1888  0.7305 -0.3819
22097SOL     OW84282   4.253  10.923   1.606  0.0268  0.0933 -0.0301
22097SOL    HW184283   4.160  10.946   1.604  0.0532  0.1613 -0.8690
22097SOL    HW284284   4.278  10.934   1.697  0.0408  3.4222 -0.3214
22098SOL     OW84285   9.550  14.139   4.988  0.2804 -0.1860  0.5944
22098SOL    HW184286   9.632  14.165   4.946 -0.6074 -1.3544 -2.1816
22098SOL    HW284287   9.558  14.044   4.999 -0.4581 -0.2274  0.8502
22099SOL     OW84288   7.383  10.266   5.429 -0.2596 -0.6044 -0.3714
22099SOL    HW184289   7.414  10.266   5.519 -0.1035  1.7038 -0.3589
22099SOL    HW284290   7.287  10.259   5.437 -0.2891  0.1155  0.0262
22100SOL     OW84291   9.438   9.696   0.019 -0.1243  0.3578 -0.6663
22100SOL    HW184292   9.389   9.749   0.081  0.6953  0.5543 -0.1722
22100SOL    HW284293   9.408   9.606   0.034  0.9492  0.2252  0.9069
22101SOL     OW84294   8.922   7.661  13.441  1.0545  0.1335 -0.3102
22101SOL    HW184295   8.961   7.666  13.354  1.2313  0.0086 -0.2406
22101SOL    HW284296   8.940   7.572  13.470  1.3902  0.3085  0.0305
22102SOL     OW84297  14.078  12.072  11.915 -0.1530  0.3694  0.0924
22102SOL    HW184298  14.110  12.051  12.003  0.0959  1.2461  0.2296
22102SOL    HW284299  14.156  12.074  11.860 -0.4492 -1.4774 -0.4537
22103SOL     OW84300   8.360   6.769  12.910 -0.3273 -0.2422  0.0538
22103SOL    HW184301   8.293   6.823  12.868  0.1275 -0.3999 -0.8913
22103SOL    HW284302   8.392   6.823  12.982  0.0190  0.7075 -0.7902
22104SOL     OW84303   2.957   6.458   7.170  0.1921  0.3089 -0.0829
22104SOL    HW184304   2.990   6.423   7.252  0.7483 -1.9793 -1.1974
22104SOL    HW284305   2.932   6.381   7.119 -1.4172  1.7082 -1.5651
22105SOL     OW84306   2.455   1.817  12.224 -0.3860  0.2796 -0.3207
22105SOL    HW184307   2.482   1.770  12.145 -0.2843 -1.2722  0.5787
22105SOL    HW284308   2.537   1.852  12.259 -0.0031 -1.2645  0.4372
22106SOL     OW84309   4.079  13.613  10.434  0.1635 -0.0410  0.1756
22106SOL    HW184310   4.158  13.565  10.408 -0.7222 -1.3385 -0.1834
22106SOL    HW284311   4.097  13.704  10.409  0.1276 -0.8874 -3.3253
22107SOL     OW84312   7.680   9.694  11.241 -0.1064 -0.2734  0.1171
22107SOL    HW184313   7.754   9.732  11.194 -1.0750  0.8116 -0.6006
22107SOL    HW284314   7.621   9.664  11.171  0.2548 -2.4403  0.6548
22108SOL     OW84315   1.854   2.743  13.510 -0.1716 -0.0330  0.1275
22108SOL    HW184316   1.809   2.802  13.571 -1.7300  0.7272 -1.6629
22108SOL    HW284317   1.915   2.799  13.462 -0.1881 -0.2823 -0.1888
22109SOL     OW84318   7.383   8.176  11.861 -0.6778 -0.1823  0.6823
22109SOL    HW184319   7.341   8.130  11.788 -1.9117  0.0598  1.2147
22109SOL    HW284320   7.431   8.248  11.820  0.1773 -1.1366 -0.0381
22110SOL     OW84321   8.057   2.657   0.141 -0.5054 -0.5438 -0.5826
22110SOL    HW184322   8.142   2.615   0.154 -0.7540 -0.8533  0.1418
22110SOL    HW284323   7.996   2.583   0.131 -0.5036 -0.3196 -2.4559
22111SOL     OW84324   8.925  11.736   5.556  0.8806  0.7026  0.3815
22111SOL    HW184325   8.865  11.673   5.516 -0.2924  2.2644 -0.4464
22111SOL    HW284326   8.994  11.748   5.491  1.5531 -0.2851  0.8811
22112SOL     OW84327   6.232  13.593  11.148  0.0001 -0.3305  0.3681
22112SOL    HW184328   6.229  13.685  11.121 -0.4753 -0.7935 -1.3073
22112SOL    HW284329   6.174  13.588  11.224  1.3305  1.0331  1.5526
22113SOL     OW84330   5.411   9.132  11.275  0.5116  0.2279 -0.5701
22113SOL    HW184331   5.438   9.062  11.335 -0.7596  0.0542 -0.1751
22113SOL    HW284332   5.398   9.208  11.331 -0.8052  0.0335 -0.5645
22114SOL     OW84333   5.435   9.461   5.071 -0.0358 -0.0087  0.4416
22114SOL    HW184334   5.457   9.512   5.149 -0.3473 -1.8210  1.7873
22114SOL    HW284335   5.514   9.465   5.016  1.1708 -0.7313  2.0213
22115SOL     OW84336   7.291   9.240   9.554  0.3167 -0.2163  0.3539
22115SOL    HW184337   7.308   9.187   9.477 -2.6285 -1.3248  0.3493
22115SOL    HW284338   7.376   9.278   9.577  1.6022 -1.2641 -2.3490
22116SOL     OW84339   3.697  12.525   0.338  0.3379 -0.0929 -0.4283
22116SOL    HW184340   3.730  12.534   0.249 -0.1757  0.7178 -0.5467
22116SOL    HW284341   3.633  12.596   0.348 -1.2816 -1.5166 -0.1707
22117SOL     OW84342   7.132   1.843   6.856  0.0184 -1.2771  0.0078
22117SOL    HW184343   7.090   1.805   6.934 -0.4203  0.4021  0.6363
22117SOL    HW284344   7.133   1.937   6.873  1.1851 -0.9967 -1.4272
22118SOL     OW84345  10.185   9.847   4.578 -0.2862 -0.1581  0.1872
22118SOL    HW184346  10.153   9.765   4.542 -2.6733  0.8592 -0.2386
22118SOL    HW284347  10.118   9.873   4.641  1.0231  0.8702  1.2222
22119SOL     OW84348   4.494   2.535  11.687 -0.1410  0.3974  0.2236
22119SOL    HW184349   4.540   2.615  11.711  1.6857 -0.8933  1.2017
22119SOL    HW284350   4.421   2.565  11.632 -1.6190  3.0540  3.3394
22120SOL     OW84351   5.497   1.285   6.052 -0.5486  0.0269  0.1647
22120SOL    HW184352   5.415   1.291   6.003  0.0063  1.2787 -0.6478
22120SOL    HW284353   5.469   1.279   6.143 -1.5867 -1.7089 -0.2074
22121SOL     OW84354   3.969   8.393  11.240  0.8844 -0.4395 -0.7020
22121SOL    HW184355   4.060   8.380  11.214  1.2996  0.9156 -0.0241
22121SOL    HW284356   3.964   8.356  11.328  1.2102  0.8544 -0.1126
22122SOL     OW84357   3.683   1.974  13.151  0.5217  0.3987  0.0612
22122SOL    HW184358   3.650   2.060  13.176  0.6989  0.7572 -0.8984
22122SOL    HW284359   3.774   1.973  13.181  0.0810 -0.0718  1.4779
22123SOL     OW84360  10.516   9.553   3.597 -0.1651 -0.4441 -0.8057
22123SOL    HW184361  10.435   9.569   3.550  1.0139 -0.2212 -2.8714
22123SOL    HW284362  10.553   9.475   3.556 -0.1132 -1.5722  1.2466
22124SOL     OW84363   4.250  11.446   0.097 -0.4998 -0.1568 -0.1282
22124SOL    HW184364   4.198  11.442   0.017 -2.4870  0.3487  1.0473
22124SOL    HW284365   4.241  11.359   0.136 -1.8847  0.3972  0.8715
22125SOL     OW84366  12.359   2.020   2.761 -0.5411  0.3243  0.2778
22125SOL    HW184367  12.313   2.101   2.782 -0.5792 -0.5232  4.1073
22125SOL    HW284368  12.447   2.032   2.797  0.0714 -0.6672 -0.7927
22126SOL     OW84369  13.805  13.739  13.810 -0.1357 -0.2507  0.8980
22126SOL    HW184370  13.842  13.780  13.732 -2.8314 -1.2238 -1.0368
22126SOL    HW284371  13.880  13.704  13.857  1.6178  0.7303 -1.0347
22127SOL     OW84372  13.322  12.644   7.628 -0.4271  0.3926  0.0650
22127SOL    HW184373  13.395  12.687   7.672  0.2436 -0.3712 -0.2692
22127SOL    HW284374  13.266  12.613   7.700  0.7060 -0.9266  0.4145
22128SOL     OW84375   9.925   9.001   2.694 -0.7028  0.1497  1.1043
22128SOL    HW184376   9.915   9.082   2.644 -2.2228 -0.5650  0.1922
22128SOL    HW284377   9.897   9.024   2.783  0.2396  0.9634  1.2024
22129SOL     OW84378   5.190   1.408  12.907  0.0845 -0.2802 -0.2526
22129SOL    HW184379   5.243   1.340  12.864  0.4633  0.2225 -0.5967
22129SOL    HW284380   5.120   1.360  12.951 -0.1494 -0.8356 -1.2056
22130SOL     OW84381  13.681   7.239  12.496 -0.2965  0.3028  0.0390
22130SOL    HW184382  13.709   7.296  12.568 -0.7997  0.6457 -0.0293
22130SOL    HW284383  13.741   7.165  12.499 -0.9528 -0.2073  1.4828
22131SOL     OW84384   9.252   7.366   9.823 -0.1063 -0.1606  0.4534
22131SOL    HW184385   9.158   7.360   9.813  0.0522 -0.1172 -1.3757
22131SOL    HW284386   9.283   7.276   9.830 -0.0758 -0.3237 -1.4514
22132SOL     OW84387   4.261   2.333  13.542 -0.2929  0.5078 -0.1386
22132SOL    HW184388   4.332   2.373  13.491 -2.5271  2.9955 -1.5327
22132SOL    HW284389   4.244   2.250  13.497  1.3902  0.0661 -0.0321
22133SOL     OW84390   5.259   9.237   5.423 -0.1453 -0.1262  0.0601
22133SOL    HW184391   5.342   9.190   5.434  0.2549  0.3023 -0.9390
22133SOL    HW284392   5.201   9.200   5.489  0.1825 -1.9615 -0.6297
22134SOL     OW84393   6.867  12.327  13.816 -0.0340 -0.1536  0.1241
22134SOL    HW184394   6.951  12.289  13.841 -0.8736 -0.2646  3.1544
22134SOL    HW284395   6.890  12.412  13.777  1.5047 -0.1306  1.0117
22135SOL     OW84396  12.072   0.537   7.115  0.6094  0.0346 -0.5422
22135SOL    HW184397  12.153   0.515   7.069  0.2121 -0.4874 -1.0067
22135SOL    HW284398  12.086   0.506   7.205  1.7913  1.9842  0.0145
22136SOL     OW84399  11.691   9.855  10.926  0.4058 -0.1126  0.1962
22136SOL    HW184400  11.635   9.778  10.914  1.1001 -0.3989 -1.6452
22136SOL    HW284401  11.654   9.921  10.868  0.9877  0.2543  0.2367
22137SOL     OW84402  11.394  10.111  13.363 -0.5151  0.0654  0.6458
22137SOL    HW184403  11.483  10.100  13.394 -0.3115  0.9735  0.4305
22137SOL    HW284404  11.400  10.100  13.268 -0.0684  2.8945  0.2415
22138SOL     OW84405  10.837   7.581  10.185 -0.2624  0.1478  0.6111
22138SOL    HW184406  10.776   7.521  10.143  0.4306 -0.7169  0.8046
22138SOL    HW284407  10.919   7.531  10.190  0.0508  0.7520  1.6888
22139SOL     OW84408   8.124   9.052   5.253  0.0941  0.0608 -0.3316
22139SOL    HW184409   8.031   9.060   5.231  0.2112  0.0129 -0.8545
22139SOL    HW284410   8.167   9.034   5.170  0.5105 -0.4467 -0.0175
22140SOL     OW84411   6.462  11.303  13.720 -0.3132  0.4849  0.0337
22140SOL    HW184412   6.477  11.391  13.686 -1.1174  0.8223  0.5135
22140SOL    HW284413   6.539  11.253  13.694  0.5397  1.5430  0.4794
22141SOL     OW84414   6.458   7.071   3.770  0.0722 -0.0891  0.2583
22141SOL    HW184415   6.474   7.098   3.861 -1.8564  0.7996  0.3752
22141SOL    HW284416   6.458   6.975   3.774 -1.6626 -0.0748  1.5619
22142SOL     OW84417   7.093   9.094   4.434 -0.0367 -0.0434  0.5475
22142SOL    HW184418   7.024   9.161   4.436 -0.9170 -0.8432 -0.8885
22142SOL    HW284419   7.067   9.031   4.502  1.0867  1.2667  2.2870
22143SOL     OW84420   6.179   9.034  13.816  0.4063 -0.1430 -0.2972
22143SOL    HW184421   6.251   8.984  13.780 -0.9661 -2.1927 -0.3412
22143SOL    HW284422   6.143   8.979  13.886 -2.0121  0.0928 -1.2421
22144SOL     OW84423   1.338   8.456   8.157 -0.1008  0.0925  0.4592
22144SOL    HW184424   1.273   8.435   8.224 -0.3150  0.0298  0.2325
22144SOL    HW284425   1.367   8.545   8.178 -1.4777  0.7800 -0.4154
22145SOL     OW84426  12.884   9.416   8.717  0.1832  0.9476 -0.3971
22145SOL    HW184427  12.854   9.325   8.723  1.2848  0.6181  0.3804
22145SOL    HW284428  12.811   9.468   8.750 -0.5146  0.3670 -0.9868
22146SOL     OW84429   7.834   8.081   6.401  0.1245  0.5495  0.3099
22146SOL    HW184430   7.854   8.159   6.349 -1.8846  0.5287 -0.5995
22146SOL    HW284431   7.815   8.013   6.336  1.3041 -0.5896  1.0917
22147SOL     OW84432   1.950   1.026  10.158  0.2635 -0.4762 -0.6867
22147SOL    HW184433   1.887   0.956  10.138  0.4799 -0.6132 -0.8976
22147SOL    HW284434   1.906   1.106  10.132  0.2597 -0.5922 -1.0418
22148SOL     OW84435   9.105   1.520   3.490 -0.3026 -0.1106  0.0230
22148SOL    HW184436   9.168   1.563   3.432  0.3374  0.1056  0.8524
22148SOL    HW284437   9.145   1.435   3.510 -0.7534 -0.3876 -0.2416
22149SOL     OW84438   8.526  11.488   0.838  0.1460  0.1691 -0.8176
22149SOL    HW184439   8.572  11.549   0.780  1.1159 -0.1244 -0.3875
22149SOL    HW284440   8.553  11.514   0.926 -0.8273  0.2225 -0.5315
22150SOL     OW84441   2.334  13.264  10.230  0.0506  0.3534  0.4195
22150SOL    HW184442   2.384  13.332  10.274 -2.5163  1.7575  1.3404
22150SOL    HW284443   2.262  13.310  10.187 -0.3327 -1.5316 -1.1286
22151SOL     OW84444   4.764   2.268   3.250 -0.7149 -0.3828  0.1871
22151SOL    HW184445   4.818   2.334   3.293  1.9245 -1.3282 -1.4341
22151SOL    HW284446   4.730   2.311   3.172  0.4073 -0.6652 -0.4832
22152SOL     OW84447   5.697   1.654  11.943  0.6040 -0.0557  0.0919
22152SOL    HW184448   5.746   1.572  11.957 -0.2340 -0.8726 -1.4767
22152SOL    HW284449   5.646   1.638  11.863  0.8651  2.2196 -0.6010
22153SOL     OW84450   1.241   2.756   8.555  0.2848 -0.5219  0.0684
22153SOL    HW184451   1.194   2.696   8.497 -1.5103  1.7252 -0.9765
22153SOL    HW284452   1.324   2.772   8.510 -0.6059  0.2862 -1.3794
22154SOL     OW84453   4.725   5.791  11.211 -0.2908  1.1541  0.1425
22154SOL    HW184454   4.775   5.873  11.214 -0.0322  0.9865  0.4443
22154SOL    HW284455   4.789   5.725  11.183 -0.1407  0.7956  1.2774
22155SOL     OW84456   5.360   8.172   4.054 -0.4701  0.4083 -0.9327
22155SOL    HW184457   5.405   8.096   4.091  0.4672  1.3635  0.0026
22155SOL    HW284458   5.431   8.234   4.034 -1.2266  1.1713 -1.3141
22156SOL     OW84459   4.058  10.677  11.361  0.3757 -0.1960  0.0876
22156SOL    HW184460   3.976  10.655  11.316  0.6172  0.9365 -0.9531
22156SOL    HW284461   4.036  10.674  11.454 -0.4117 -1.5366 -0.1166
22157SOL     OW84462  11.520  12.372  10.290  0.7651  0.2300 -0.1851
22157SOL    HW184463  11.585  12.350  10.356  1.3657  1.6618 -0.2660
22157SOL    HW284464  11.565  12.430  10.229 -0.1127 -0.1163 -1.2039
22158SOL     OW84465   1.831   8.311   4.352  0.6219 -0.1440  0.1995
22158SOL    HW184466   1.773   8.349   4.417  0.4349  0.4165 -0.2895
22158SOL    HW284467   1.916   8.304   4.396  0.6226  0.6954  0.3427
22159SOL     OW84468   2.443  12.670   9.250  0.1522  0.0655 -0.4803
22159SOL    HW184469   2.451  12.678   9.155 -0.9437 -0.4520 -0.6342
22159SOL    HW284470   2.490  12.589   9.271  2.5390  1.4259 -0.2231
22160SOL     OW84471   6.044   1.224  13.053  0.6818  0.4966 -0.8909
22160SOL    HW184472   6.113   1.181  13.003  1.0785  1.2937 -1.0440
22160SOL    HW284473   5.967   1.168  13.041  1.0353  0.1498 -1.5680
22161SOL     OW84474  10.300   8.148   8.624 -0.2779  0.3868  0.1149
22161SOL    HW184475  10.363   8.092   8.579 -0.7151 -0.6003  0.6987
22161SOL    HW284476  10.219   8.097   8.623 -0.8053  1.2114  0.2601
22162SOL     OW84477   5.269  11.035   7.515  0.5380 -0.0625  0.0949
22162SOL    HW184478   5.312  11.112   7.478 -1.6019  0.1791 -2.2151
22162SOL    HW284479   5.306  10.961   7.467 -1.0388  0.0972 -1.4959
22163SOL     OW84480   7.993   7.050  10.207  0.2149  0.0379  0.3144
22163SOL    HW184481   7.925   7.084  10.266 -0.7144  1.6631 -1.5502
22163SOL    HW284482   8.070   7.102  10.228  0.2232 -0.1858  0.8562
22164SOL     OW84483  13.923  12.896  10.922 -0.0797 -0.5264  0.0404
22164SOL    HW184484  13.836  12.934  10.933  0.0552 -0.2314  0.1062
22164SOL    HW284485  13.908  12.802  10.914 -0.7520 -0.2551 -3.5406
22165SOL     OW84486   4.348   9.302   3.792  0.0645  0.1674  0.2715
22165SOL    HW184487   4.303   9.262   3.867 -0.7893  0.1304 -0.2527
22165SOL    HW284488   4.320   9.393   3.793  1.8575  0.7760  1.3479
22166SOL     OW84489   5.913   5.326   0.151 -0.5131  0.5089 -0.1536
22166SOL    HW184490   5.902   5.243   0.197  1.1730  0.6660  0.6317
22166SOL    HW284491   5.910   5.393   0.220  0.5214  0.8791 -0.4456
22167SOL     OW84492  10.207   7.224  11.192  0.2661  0.0886  0.4806
22167SOL    HW184493  10.160   7.266  11.120  0.5413  1.2735  0.9601
22167SOL    HW284494  10.187   7.131  11.183 -0.3925  0.3171 -0.6134
22168SOL     OW84495  11.717   2.326   7.522  0.2542  0.1156  0.0498
22168SOL    HW184496  11.752   2.246   7.481 -1.5326 -0.3623 -0.6612
22168SOL    HW284497  11.678   2.295   7.604 -1.0319  0.0981 -0.5394
22169SOL     OW84498  10.735   2.262   3.622  0.3608  0.4870 -0.0235
22169SOL    HW184499  10.646   2.247   3.654  0.6845  0.4685  0.9093
22169SOL    HW284500  10.753   2.188   3.565 -0.7037  1.1814 -1.3217
22170SOL     OW84501   6.765  11.861   2.666 -0.1485 -0.1492  0.0154
22170SOL    HW184502   6.818  11.781   2.659 -1.9355 -1.2919 -1.5290
22170SOL    HW284503   6.800  11.918   2.598 -0.1609 -0.4595 -0.2581
22171SOL     OW84504   3.987   6.144   0.296 -0.0070  0.5747  0.2561
22171SOL    HW184505   3.995   6.049   0.305 -1.4120  0.3535 -0.5301
22171SOL    HW284506   4.075   6.173   0.273 -0.0486 -0.8933 -2.1209
22172SOL     OW84507  10.193   5.399   1.834 -0.7383  0.9144  0.0266
22172SOL    HW184508  10.241   5.405   1.751  0.3410 -0.4237  0.5065
22172SOL    HW284509  10.107   5.364   1.810 -0.1637 -0.2028 -0.4663
22173SOL     OW84510   7.951  10.056   7.149  0.1003 -0.3446  0.2433
22173SOL    HW184511   7.955   9.974   7.198 -0.3022 -0.9374 -0.6943
22173SOL    HW284512   7.857  10.074   7.138  0.1839  0.2239  0.4137
22174SOL     OW84513  13.276  11.270   1.621  0.2331 -0.3533 -0.0508
22174SOL    HW184514  13.274  11.295   1.713  0.4454  0.1596 -0.1786
22174SOL    HW284515  13.187  11.287   1.589  0.2441 -0.2282 -0.0163
22175SOL     OW84516   6.513   1.746   4.964 -0.4184 -0.4957 -0.3685
22175SOL    HW184517   6.447   1.792   4.912 -0.2619 -0.0032 -0.1418
22175SOL    HW284518   6.467   1.722   5.045 -0.7954 -1.6814 -0.9132
22176SOL     OW84519   4.911   9.936   8.520 -0.0976 -0.3349 -0.0577
22176SOL    HW184520   4.907   9.846   8.552 -1.5513  0.0983  1.1338
22176SOL    HW284521   4.843   9.982   8.570 -0.4145  1.0859 -1.7002
22177SOL     OW84522   4.435  10.125   9.740  0.0830 -0.0221  0.3747
22177SOL    HW184523   4.511  10.093   9.788 -0.3669 -0.6256  0.6931
22177SOL    HW284524   4.372  10.053   9.744 -1.1062  1.0499  1.4501
22178SOL     OW84525  12.030   8.285   6.231 -0.0704  0.6031  0.2847
22178SOL    HW184526  11.955   8.238   6.196 -1.3044  0.7430  2.5380
22178SOL    HW284527  12.072   8.223   6.290 -0.5974  1.6174  1.8191
22179SOL     OW84528  10.381   5.036   8.120  0.3275  0.1854 -0.0994
22179SOL    HW184529  10.295   5.027   8.162  0.6237  1.6380  0.8913
22179SOL    HW284530  10.401   5.129   8.126  2.2403 -0.2043  0.2259
22180SOL     OW84531  10.507   5.527   3.894 -0.1621  0.2575 -0.1042
22180SOL    HW184532  10.505   5.435   3.922 -0.4996 -0.1558 -1.4194
22180SOL    HW284533  10.417   5.558   3.906 -0.4722 -0.1194 -1.2873
22181SOL     OW84534  11.348   9.301   3.420  0.0313  0.3411  0.2928
22181SOL    HW184535  11.351   9.339   3.332  1.3407 -2.3368 -0.9181
22181SOL    HW284536  11.431   9.327   3.459 -0.8535  2.1438  1.0942
22182SOL     OW84537  10.028   9.283  12.423  0.0881 -0.2127 -0.3102
22182SOL    HW184538  10.010   9.347  12.355  1.0144 -1.3829 -1.7152
22182SOL    HW284539   9.984   9.318  12.501  0.6966  2.1949 -0.9540
22183SOL     OW84540  10.187   2.241   5.625  0.2019 -0.2232  0.1719
22183SOL    HW184541  10.160   2.254   5.716 -0.5131  1.6430 -0.2662
22183SOL    HW284542  10.148   2.157   5.600 -1.1286  0.1043  1.0435
22184SOL     OW84543   0.781  11.563   2.726  0.8749 -0.2488 -0.4365
22184SOL    HW184544   0.715  11.627   2.755  0.1592 -1.2906  0.3110
22184SOL    HW284545   0.765  11.486   2.781  1.5932 -1.1392 -1.4424
22185SOL     OW84546   3.928   9.936  12.839  0.7310 -0.0826  0.1345
22185SOL    HW184547   3.976   9.909  12.760  2.5194 -0.3449  1.2553
22185SOL    HW284548   3.991   9.989  12.888 -0.3051 -0.0213  1.4457
22186SOL     OW84549  12.538   1.738   1.617 -0.1001 -0.2327 -0.0873
22186SOL    HW184550  12.555   1.672   1.684 -0.9004  2.8676  3.5181
22186SOL    HW284551  12.447   1.721   1.590  1.0311 -3.1458 -2.6769
22187SOL     OW84552  10.648   2.197   7.744 -0.1463  0.0043 -0.3854
22187SOL    HW184553  10.709   2.127   7.767  0.5334  0.8909  0.6189
22187SOL    HW284554  10.694   2.248   7.678 -0.2569  0.0350 -0.4374
22188SOL     OW84555   7.985  12.202   4.900  0.3752  0.1194 -0.1616
22188SOL    HW184556   8.048  12.270   4.876  0.9920 -0.4592 -0.1755
22188SOL    HW284557   8.005  12.181   4.991  1.9386 -1.8915 -0.8808
22189SOL     OW84558   1.534   9.535   6.600  0.0983 -0.7784 -0.7040
22189SOL    HW184559   1.538   9.536   6.504  1.1045  0.6809 -0.6719
22189SOL    HW284560   1.597   9.601   6.628 -2.5005  1.2464  0.8788
22190SOL     OW84561   3.496  10.528   2.665 -0.1252  0.2778  0.5139
22190SOL    HW184562   3.514  10.449   2.613  0.3578  0.5284  0.2859
22190SOL    HW284563   3.530  10.507   2.752  0.0710  0.2578  0.4345
22191SOL     OW84564   5.108   6.775   9.336 -0.0997  0.2383 -0.4546
22191SOL    HW184565   5.182   6.786   9.395  0.0043 -2.1778 -0.0216
22191SOL    HW284566   5.147   6.779   9.248  0.2311  0.8442 -0.2853
22192SOL     OW84567   2.132   1.354   8.442  0.3051 -0.4089  0.0940
22192SOL    HW184568   2.215   1.397   8.464  0.2141 -0.5888  0.8233
22192SOL    HW284569   2.146   1.320   8.354  0.3370  1.2037 -0.5533
22193SOL     OW84570  10.937   1.653  10.678 -0.0953 -0.1945  0.0847
22193SOL    HW184571  10.926   1.699  10.762 -0.9300 -0.4336  0.1162
22193SOL    HW284572  10.921   1.561  10.699 -0.2103 -0.2681 -0.3225
22194SOL     OW84573  13.369  11.942   6.297  0.0319  0.0408 -0.1471
22194SOL    HW184574  13.359  11.971   6.388  1.0871 -0.3525  0.1121
22194SOL    HW284575  13.451  11.892   6.297 -0.1905 -0.3456 -1.2233
22195SOL     OW84576   2.573   2.326   4.554  0.2750 -0.3069  0.3181
22195SOL    HW184577   2.505   2.259   4.564 -0.9056  0.7929 -0.1033
22195SOL    HW284578   2.594   2.325   4.461 -0.5083  0.5921  0.1117
22196SOL     OW84579   2.254   5.345   9.354 -0.0435 -0.2148 -0.2506
22196SOL    HW184580   2.202   5.295   9.417 -1.7282  1.1638 -0.4935
22196SOL    HW284581   2.220   5.319   9.268  1.2120 -0.9353 -0.5685
22197SOL     OW84582  12.105   1.202  12.625  0.0592 -0.2813  0.7138
22197SOL    HW184583  12.116   1.294  12.600  0.1584 -0.3055  0.6689
22197SOL    HW284584  12.113   1.203  12.721  0.3556 -0.2843  0.6897
22198SOL     OW84585   8.688   6.685   7.917  0.3722  0.1203  0.4283
22198SOL    HW184586   8.654   6.602   7.951  1.8996 -1.2847 -1.2530
22198SOL    HW284587   8.615   6.723   7.869  0.6760 -2.3004 -2.1951
22199SOL     OW84588  12.877   2.403   0.138  0.5031 -0.4892 -0.3949
22199SOL    HW184589  12.908   2.473   0.195  0.9197 -0.8276 -0.1980
22199SOL    HW284590  12.786   2.426   0.119  0.5247 -0.0883 -0.0376
22200SOL     OW84591  12.649   9.854  11.759  0.1733  0.2140 -0.1561
22200SOL    HW184592  12.567   9.891  11.793  0.1932  0.6467 -0.5616
22200SOL    HW284593  12.656   9.889  11.670 -0.4094 -1.7447 -1.0211
22201SOL     OW84594  12.047  12.849   3.126 -0.4876  0.3519  0.1151
22201SOL    HW184595  12.031  12.894   3.208 -1.4395 -1.0468  0.7302
22201SOL    HW284596  12.044  12.918   3.060  0.3296  1.5028  1.2324
22202SOL     OW84597   9.438   4.331   8.663 -0.6476  0.1589  0.0412
22202SOL    HW184598   9.408   4.334   8.753  1.0633 -1.3892  0.7245
22202SOL    HW284599   9.524   4.289   8.667  0.5573  2.1441 -2.0352
22203SOL     OW84600  12.023  12.346  12.006  0.4877 -0.3261 -0.2415
22203SOL    HW184601  11.995  12.422  11.956 -0.6321  0.1490  1.0457
22203SOL    HW284602  11.946  12.290  12.010 -0.6518  1.2023  3.7321
22204SOL     OW84603   5.748  11.395   0.608 -0.6889  0.6911  0.5111
22204SOL    HW184604   5.806  11.421   0.681 -0.6146 -0.9907  1.0910
22204SOL    HW284605   5.807  11.388   0.533 -0.6314  1.6709  0.4473
22205SOL     OW84606  12.576  13.346  10.585  0.6204 -0.2365  0.6136
22205SOL    HW184607  12.634  13.340  10.509  2.1968  0.9155  1.6573
22205SOL    HW284608  12.588  13.263  10.632  1.1654 -0.1572  0.6245
22206SOL     OW84609   9.323   4.331   8.915  0.6423 -0.6042  0.1709
22206SOL    HW184610   9.344   4.403   8.974  0.2610  1.9421 -2.5282
22206SOL    HW284611   9.254   4.282   8.960 -1.5116  2.7224  0.8612
22207SOL     OW84612  10.177   9.103   5.224  0.0157 -0.2428 -0.0468
22207SOL    HW184613  10.136   9.181   5.261  1.2722 -0.0328  0.9653
22207SOL    HW284614  10.115   9.032   5.243 -0.4557  0.2585  0.3155
22208SOL     OW84615  10.042   1.456   5.508  0.4017  0.1077 -0.3605
22208SOL    HW184616  10.014   1.527   5.450 -1.9101  0.6960  1.3209
22208SOL    HW284617  10.072   1.387   5.448  1.1377  1.8303 -2.0941
22209SOL     OW84618   7.933   6.906  13.389  0.2262 -0.6924 -0.3120
22209SOL    HW184619   7.880   6.834  13.355 -1.1959 -0.1018  0.5609
22209SOL    HW284620   7.938   6.890  13.483  1.3377 -0.5429 -0.3269
22210SOL     OW84621   1.019   9.644   3.345  0.3004  0.1904  0.3860
22210SOL    HW184622   1.109   9.668   3.320  0.4737  0.0159  0.8303
22210SOL    HW284623   0.978   9.727   3.368 -0.7113  0.7911 -2.9804
22211SOL     OW84624   2.788   2.295   1.029 -0.2166  0.1227 -0.1447
22211SOL    HW184625   2.768   2.225   1.091 -0.8556 -0.6485 -1.1721
22211SOL    HW284626   2.761   2.375   1.073 -1.8346 -0.5271  0.1054
22212SOL     OW84627   6.926  10.595   4.781  0.2327  0.6842 -0.0291
22212SOL    HW184628   6.939  10.587   4.876  0.6373  0.0516 -0.1290
22212SOL    HW284629   6.979  10.525   4.744  1.5236  2.0477 -0.8479
22213SOL     OW84630  12.726   6.262   9.005 -0.0284  0.1420  0.9895
22213SOL    HW184631  12.708   6.347   8.965  1.1857  0.2340  0.6114
22213SOL    HW284632  12.817   6.267   9.034  0.1724 -1.1405  0.6710
22214SOL     OW84633   9.032   2.176   5.705 -0.0412 -0.0917  0.3055
22214SOL    HW184634   9.073   2.219   5.780 -0.1940  1.6727 -0.5789
22214SOL    HW284635   9.017   2.246   5.642 -1.9367 -1.1537 -0.5029
22215SOL     OW84636   3.385   9.576  10.596  0.2751  0.0226  0.3821
22215SOL    HW184637   3.293   9.554  10.580 -0.3043  1.3641  1.6193
22215SOL    HW284638   3.398   9.557  10.689  1.4736 -0.7904  0.0771
22216SOL     OW84639   0.932   5.756   0.864 -0.1045  0.3730  0.1232
22216SOL    HW184640   0.848   5.760   0.909 -0.8162 -0.6643 -1.0518
22216SOL    HW284641   0.965   5.846   0.865 -0.9107  0.6703  1.1585
22217SOL     OW84642   9.517  13.106   8.559  0.3986  0.1699 -0.2716
22217SOL    HW184643   9.494  13.198   8.546 -0.1206 -0.1069 -1.4150
22217SOL    HW284644   9.475  13.060   8.487 -0.7237 -1.2031  1.1814
22218SOL     OW84645  13.428   2.564   0.965  0.2853  0.2467  0.1531
22218SOL    HW184646  13.455   2.492   1.022 -2.8501 -1.5693 -0.4394
22218SOL    HW284647  13.466   2.543   0.880  2.1354  1.1799  0.6729
22219SOL     OW84648   4.232   0.385   4.639 -0.0307 -0.1248  0.2606
22219SOL    HW184649   4.243   0.422   4.727 -0.7192 -0.5587  0.5388
22219SOL    HW284650   4.311   0.332   4.625 -0.3961 -0.9083  1.0565
22220SOL     OW84651   7.230   5.369   7.210  0.3053 -0.0414 -0.2685
22220SOL    HW184652   7.177   5.319   7.272  0.4919  2.3045  1.9571
22220SOL    HW284653   7.173   5.384   7.136 -0.4841 -1.5897 -0.0152
22221SOL     OW84654  12.121   7.864   9.480  0.1284 -0.4313 -0.6404
22221SOL    HW184655  12.128   7.822   9.394 -2.2825 -1.0143 -0.6417
22221SOL    HW284656  12.093   7.954   9.460 -0.7539 -0.6605 -0.4990
22222SOL     OW84657   4.545  10.713   5.691  0.3294  0.0623  0.3268
22222SOL    HW184658   4.455  10.695   5.718  0.1584 -0.7788 -0.7178
22222SOL    HW284659   4.579  10.772   5.758 -0.9888  0.3783  0.7534
22223SOL     OW84660   9.945   1.892   3.996 -0.6325  0.0576 -0.4761
22223SOL    HW184661   9.870   1.853   3.951 -1.0065  1.5245 -1.1597
22223SOL    HW284662   9.953   1.841   4.077 -0.8544 -1.6732 -1.4947
22224SOL     OW84663   0.639  13.554  12.906 -0.1083 -0.1720 -0.5633
22224SOL    HW184664   0.723  13.575  12.945  0.6694 -0.6365 -1.9082
22224SOL    HW284665   0.581  13.624  12.935  1.3773  1.6032 -1.6077
22225SOL     OW84666  10.503  12.465  10.072  0.1052  0.5297  0.0072
22225SOL    HW184667  10.527  12.384  10.027 -1.0207 -0.3318  0.8625
22225SOL    HW284668  10.443  12.509  10.011  0.2782  0.4344 -0.2333
22226SOL     OW84669   3.450  11.318   1.728  0.1876  0.0546 -0.0269
22226SOL    HW184670   3.363  11.297   1.695 -0.4179 -1.0250  2.0482
22226SOL    HW284671   3.434  11.380   1.800  1.4282  2.2857 -1.5417
22227SOL     OW84672  11.578   0.352   1.006  0.3685 -0.0083 -0.2920
22227SOL    HW184673  11.606   0.286   1.069 -2.5532 -1.0219  0.1037
22227SOL    HW284674  11.645   0.421   1.012  1.3484 -1.0546  2.2905
22228SOL     OW84675   2.224   6.992  12.599  0.4093  0.3579  0.0438
22228SOL    HW184676   2.225   6.959  12.509  0.9031  1.6961 -0.4606
22228SOL    HW284677   2.147   6.951  12.639  1.0958 -1.5466 -0.4697
22229SOL     OW84678   9.631   7.278   8.866  0.1097 -0.0262  0.4128
22229SOL    HW184679   9.633   7.327   8.783 -0.2788 -1.6380 -0.5967
22229SOL    HW284680   9.723   7.255   8.881  0.0497 -0.6909 -0.1868
22230SOL     OW84681   5.046   5.982   1.127  0.3892  0.0834  0.0445
22230SOL    HW184682   4.990   6.054   1.155  0.7428  0.4417 -0.1563
22230SOL    HW284683   5.023   5.909   1.185 -1.5765 -0.3401 -1.1686
22231SOL     OW84684   8.358  11.797  11.572  0.0880 -0.2215  0.0434
22231SOL    HW184685   8.355  11.837  11.485  1.4356 -1.4878 -0.6326
22231SOL    HW284686   8.411  11.857  11.624  0.2136  0.0028 -0.3362
22232SOL     OW84687  13.344   7.197   6.108  0.6290 -0.2044  0.0289
22232SOL    HW184688  13.269   7.251   6.132 -0.1141 -0.8910 -0.7166
22232SOL    HW284689  13.415   7.260   6.092  0.3064  0.4270  1.0115
22233SOL     OW84690   2.826   5.909  12.081 -0.0719  0.2966 -0.3445
22233SOL    HW184691   2.896   5.953  12.033  1.2007  1.0807  2.0670
22233SOL    HW284692   2.823   5.821  12.042  1.2939  0.6753 -1.4309
22234SOL     OW84693   2.505   0.628   9.542 -0.5545 -0.6149 -0.5065
22234SOL    HW184694   2.519   0.662   9.630 -0.9423  0.5652 -0.8871
22234SOL    HW284695   2.411   0.615   9.536 -0.5384 -0.6048 -0.7802
22235SOL     OW84696   4.217   0.805  12.855 -0.1551  0.0136 -0.3977
22235SOL    HW184697   4.311   0.788  12.858  0.0949  1.3979  0.5248
22235SOL    HW284698   4.207   0.892  12.893 -1.5424  1.0604 -2.9107
22236SOL     OW84699  11.680  12.077  11.200 -0.0650  0.3635  0.3533
22236SOL    HW184700  11.684  11.981  11.200  0.8305  0.3957  0.2487
22236SOL    HW284701  11.636  12.098  11.282 -0.4842 -0.1391  0.2693
22237SOL     OW84702  12.782   0.551   5.677 -0.2681 -0.3556 -0.3900
22237SOL    HW184703  12.830   0.473   5.649 -0.3133  0.1125 -1.8391
22237SOL    HW284704  12.808   0.619   5.615  0.4158  1.0429  1.3286
22238SOL     OW84705   2.651   7.992  10.021  0.3859 -0.1500  0.0179
22238SOL    HW184706   2.576   7.939   9.992  0.3374  0.2227 -0.5718
22238SOL    HW284707   2.621   8.035  10.101 -0.0692  0.0690 -0.2643
22239SOL     OW84708   4.679   9.938   4.826 -0.0006  0.0044  0.2582
22239SOL    HW184709   4.725   9.921   4.908  0.9267  1.3167  0.0281
22239SOL    HW284710   4.745   9.923   4.758 -0.4788 -0.0635 -0.1964
22240SOL     OW84711   5.521   0.670   0.988 -0.1002  0.3758  0.3226
22240SOL    HW184712   5.506   0.758   0.953 -1.2420  0.6391  1.4271
22240SOL    HW284713   5.479   0.612   0.924 -0.5493  0.7267  0.2947
22241SOL     OW84714   7.002   7.314   3.602  1.2465 -0.1307 -0.0772
22241SOL    HW184715   7.068   7.354   3.659  4.0941  2.3301 -4.4810
22241SOL    HW284716   6.953   7.389   3.567 -1.7952 -1.6900  0.5712
22242SOL     OW84717  11.647   1.484  11.073  0.4965 -0.0683 -0.4509
22242SOL    HW184718  11.577   1.461  11.012  0.4524 -0.5995 -0.2016
22242SOL    HW284719  11.701   1.546  11.024  0.2565 -0.2052 -0.9008
22243SOL     OW84720   6.866   0.388   5.643 -0.0712  0.2355 -0.0749
22243SOL    HW184721   6.829   0.400   5.731  3.1466  0.3107  1.4386
22243SOL    HW284722   6.839   0.300   5.617 -0.2308 -0.2020  1.4768
22244SOL     OW84723   2.716   8.637  11.300 -0.5962  0.3506 -0.4974
22244SOL    HW184724   2.650   8.685  11.249 -0.0588  1.1216 -0.4873
22244SOL    HW284725   2.786   8.701  11.314 -1.1135  0.4746  2.0028
22245SOL     OW84726   8.053   8.373   9.262 -0.6156  0.0973 -0.0752
22245SOL    HW184727   7.991   8.437   9.228 -0.3055 -0.4592 -1.7974
22245SOL    HW284728   8.122   8.369   9.196  0.2465 -0.7700  0.8326
22246SOL     OW84729  13.771   4.276   4.879 -0.1577 -0.5867 -0.4573
22246SOL    HW184730  13.816   4.239   4.955 -0.3928 -0.0228 -0.0389
22246SOL    HW284731  13.772   4.371   4.894 -1.5268 -0.5638 -0.4137
22247SOL     OW84732   7.874  12.312   3.957 -0.0677 -0.0995 -0.4310
22247SOL    HW184733   7.824  12.388   3.986 -0.8496 -0.6630 -0.2911
22247SOL    HW284734   7.809  12.246   3.936  0.6099 -0.8873 -0.1329
22248SOL     OW84735  11.326   7.130   0.633 -0.3374  0.2435 -0.3440
22248SOL    HW184736  11.410   7.099   0.667 -0.3978 -0.0157 -0.4251
22248SOL    HW284737  11.333   7.225   0.634 -1.3542  0.4308  3.0815
22249SOL     OW84738   2.939   5.870   8.882  0.0906 -0.1812 -0.3284
22249SOL    HW184739   2.935   5.897   8.790  0.3150 -0.8476 -0.5396
22249SOL    HW284740   3.016   5.814   8.888 -1.1153 -1.9349 -0.2293
22250SOL     OW84741   6.076  13.359   7.132 -0.1822 -0.2380 -0.0231
22250SOL    HW184742   6.170  13.376   7.121 -0.4357  1.9436  0.6080
22250SOL    HW284743   6.064  13.353   7.227 -0.7609  0.0793 -0.0747
22251SOL     OW84744   4.342  10.670   3.227 -0.1322  0.6516  0.3661
22251SOL    HW184745   4.262  10.709   3.263 -2.9758 -1.8376 -2.6006
22251SOL    HW284746   4.373  10.735   3.164 -0.8525  0.9238  0.2810
22252SOL     OW84747   9.564   8.969   4.020 -0.1358  0.0378 -0.1911
22252SOL    HW184748   9.597   8.881   4.041 -0.3540 -0.1125 -0.4731
22252SOL    HW284749   9.580   8.979   3.926 -0.2820  0.2293 -0.1959
22253SOL     OW84750   2.787   8.224   7.620  0.4953 -1.0358 -0.0315
22253SOL    HW184751   2.711   8.273   7.650  1.2981 -0.0041  0.3828
22253SOL    HW284752   2.754   8.136   7.603 -0.5710 -0.9059  1.2195
22254SOL     OW84753   8.390   0.648   6.226 -0.4307  0.0264 -0.2609
22254SOL    HW184754   8.423   0.577   6.172  0.6342 -0.1126  0.5196
22254SOL    HW284755   8.317   0.685   6.177  0.0421 -0.5548 -1.4338
22255SOL     OW84756   3.132   5.591   8.072  0.3614 -0.3657 -0.1106
22255SOL    HW184757   3.134   5.654   8.000  0.4512  1.8072  1.6950
22255SOL    HW284758   3.153   5.642   8.150 -1.9157 -2.1564  1.8383
22256SOL     OW84759   2.433   9.392   1.179  0.1588 -0.3072 -0.3399
22256SOL    HW184760   2.388   9.475   1.161 -1.3822 -1.2787 -1.1398
22256SOL    HW284761   2.524   9.418   1.195 -0.4224  1.6082  0.1786
22257SOL     OW84762   7.241   3.683   6.297  0.1195 -0.0527 -0.1081
22257SOL    HW184763   7.315   3.736   6.266 -0.0733  1.1983  1.4473
22257SOL    HW284764   7.164   3.723   6.257  0.0593  0.3309  0.3725
22258SOL     OW84765  12.355  13.208   6.997  0.4423 -0.8946 -0.4928
22258SOL    HW184766  12.273  13.181   7.039  0.6048 -1.2388 -0.3904
22258SOL    HW284767  12.422  13.153   7.038  0.8194 -0.1485 -0.0999
22259SOL     OW84768   1.555  11.847   7.775 -0.2050  0.2152 -0.0934
22259SOL    HW184769   1.610  11.922   7.798  0.1521  0.4617 -1.6398
22259SOL    HW284770   1.469  11.869   7.811  0.0765  1.0303  0.1025
22260SOL     OW84771   1.033   5.371   4.999 -0.1346  0.1867 -0.2174
22260SOL    HW184772   1.126   5.348   5.006  0.4651  2.1782 -1.0851
22260SOL    HW284773   1.026   5.456   5.041 -1.8364 -0.4395  0.8737
22261SOL     OW84774   2.375   6.992  11.663  0.1046 -0.5301  0.3839
22261SOL    HW184775   2.298   6.986  11.607  0.1178 -0.9222  0.4025
22261SOL    HW284776   2.393   6.902  11.688 -0.3945 -0.2890  1.6850
22262SOL     OW84777   0.119   4.876   2.939 -0.6950 -0.2952 -0.0294
22262SOL    HW184778   0.189   4.936   2.911 -0.9544 -0.3647 -0.8531
22262SOL    HW284779   0.157   4.829   3.013 -0.0461  0.0303 -0.1431
22263SOL     OW84780   8.638  14.088   7.340 -0.2343 -0.0163  0.2252
22263SOL    HW184781   8.670  14.139   7.414  3.2500 -0.8993 -0.4685
22263SOL    HW284782   8.673  14.134   7.263 -1.0871 -0.8486 -0.6925
22264SOL     OW84783  11.005  10.975   3.178 -0.0755 -0.1671  0.4071
22264SOL    HW184784  11.081  10.965   3.120 -0.1096 -1.3095  0.5366
22264SOL    HW284785  11.018  10.910   3.246  0.4940  1.8323  2.3342
22265SOL     OW84786   9.580  12.485   6.455  0.4007 -0.0319  0.0245
22265SOL    HW184787   9.588  12.566   6.404 -1.9924  1.2942  1.5425
22265SOL    HW284788   9.544  12.421   6.394 -3.1959  1.7390 -0.0157
22266SOL     OW84789   6.002  12.818   8.259 -0.4872 -0.2278 -0.3900
22266SOL    HW184790   6.087  12.836   8.221  0.2537 -1.2739  0.6811
22266SOL    HW284791   5.948  12.790   8.186  0.1496  0.2300 -1.0435
22267SOL     OW84792   1.065   8.580   5.243  0.4900 -0.0366 -0.8134
22267SOL    HW184793   1.107   8.643   5.301 -0.2931 -0.5233  0.3198
22267SOL    HW284794   1.110   8.498   5.260  0.2814 -0.1745 -0.9295
22268SOL     OW84795   4.386   7.689   5.104 -0.0436  0.3501  0.0479
22268SOL    HW184796   4.443   7.612   5.102  0.1764  0.3455  2.6483
22268SOL    HW284797   4.445   7.763   5.087  0.5673  0.2217  1.3917
22269SOL     OW84798   4.317  12.635   7.539  0.3414  0.2162 -0.0920
22269SOL    HW184799   4.378  12.584   7.486  0.1928  0.7723 -0.8119
22269SOL    HW284800   4.337  12.726   7.519 -0.4845  0.4132 -0.0690
22270SOL     OW84801   7.808   5.604   4.952  0.3005  0.2225 -0.6131
22270SOL    HW184802   7.855   5.554   5.018  0.4138 -0.0573 -0.8992
22270SOL    HW284803   7.719   5.568   4.953  0.6326 -0.6864 -1.5020
22271SOL     OW84804   3.751   3.937  12.536  1.0136  0.2940 -0.0751
22271SOL    HW184805   3.769   4.002  12.605  0.2614  0.2004  0.2201
22271SOL    HW284806   3.750   3.853  12.583 -0.9763  0.3594  0.1038
22272SOL     OW84807   2.726  13.214  13.340  0.4752  0.1843 -0.5512
22272SOL    HW184808   2.668  13.147  13.376  0.2885 -0.7949 -2.5948
22272SOL    HW284809   2.680  13.296  13.355  0.2181 -0.2084  1.0167
22273SOL     OW84810  11.288  12.837   1.672  0.2874 -0.5799 -0.1532
22273SOL    HW184811  11.231  12.813   1.745 -1.0742  1.5368 -0.4469
22273SOL    HW284812  11.363  12.880   1.713  0.5268 -1.2159  0.0900
22274SOL     OW84813   2.920   9.773   2.001 -0.3304 -0.3863 -0.6237
22274SOL    HW184814   2.905   9.857   1.958  0.5848 -0.1006 -0.4027
22274SOL    HW284815   2.971   9.722   1.939  1.4608  0.2221  0.2853
22275SOL     OW84816   9.775   7.174  13.819 -0.4266  0.5122 -0.1555
22275SOL    HW184817   9.806   7.263  13.800  1.1240 -0.1944 -1.0923
22275SOL    HW284818   9.680   7.183  13.824 -0.2840  2.3029  0.2154
22276SOL     OW84819   0.206  10.954  13.630  0.1566  0.3784  0.2915
22276SOL    HW184820   0.121  10.949  13.674 -2.1446  1.9082 -3.5379
22276SOL    HW284821   0.227  11.047  13.628  1.2672  0.1356 -0.0257
22277SOL     OW84822  13.706   0.313   5.341  0.1105 -0.1388 -0.7574
22277SOL    HW184823  13.629   0.358   5.304 -0.1994  1.5475  1.7056
22277SOL    HW284824  13.685   0.301   5.433  1.4611 -2.8116 -0.6995
22278SOL     OW84825  11.496   8.323  13.978  0.0521  0.0038 -0.4370
22278SOL    HW184826  11.447   8.339  13.897  1.2260  0.3169 -1.1150
22278SOL    HW284827  11.493   8.406  14.025 -1.8899 -0.5911  0.5860
22279SOL     OW84828   3.579  13.965   1.313  0.1849  0.1835 -0.3665
22279SOL    HW184829   3.530  13.996   1.236 -0.3631  0.2447  0.0008
22279SOL    HW284830   3.553  14.024   1.383  2.7980  1.8942 -0.7111
22280SOL     OW84831  13.126   9.589   5.345 -0.2724  0.3593 -0.3002
22280SOL    HW184832  13.166   9.673   5.367 -2.4733  1.0830  1.3622
22280SOL    HW284833  13.103   9.550   5.429 -0.0783 -1.5452 -1.0718
22281SOL     OW84834   7.439   0.201   0.256 -0.1448 -0.5771  0.3166
22281SOL    HW184835   7.352   0.239   0.253  0.1252  0.0152 -0.2253
22281SOL    HW284836   7.450   0.157   0.172 -0.8684 -2.8555  1.3311
22282SOL     OW84837   5.413   8.967  12.072 -0.2622 -0.0865  0.1247
22282SOL    HW184838   5.481   9.032  12.090 -2.0859  1.8297  0.4121
22282SOL    HW284839   5.399   8.924  12.157  0.9514 -0.9490 -0.0707
22283SOL     OW84840  10.427  10.352  12.491  0.2916 -0.7852 -0.7033
22283SOL    HW184841  10.407  10.426  12.548 -0.5690 -2.4996  1.3590
22283SOL    HW284842  10.520  10.363  12.470 -0.3103  2.0371 -2.3584
22284SOL     OW84843  13.188   5.828   0.295 -0.1767 -0.2660 -0.0404
22284SOL    HW184844  13.117   5.776   0.333 -0.3408  1.6601  2.5796
22284SOL    HW284845  13.267   5.797   0.340  0.0963  0.0932 -0.2643
22285SOL     OW84846   8.683  13.771  13.491  0.5537  0.2587 -0.2711
22285SOL    HW184847   8.758  13.719  13.462  0.2014  0.5339 -1.7583
22285SOL    HW284848   8.616  13.706  13.514  0.5192  0.0201 -1.0067
22286SOL     OW84849   6.933   7.693   2.582  0.0148  0.2515  0.0099
22286SOL    HW184850   6.927   7.746   2.662 -0.0198  0.0164  0.1631
22286SOL    HW284851   6.972   7.752   2.517 -0.9063  0.7671 -0.0869
22287SOL     OW84852   4.621   5.036  11.735  0.4787  0.3607  0.4317
22287SOL    HW184853   4.676   5.067  11.807 -1.7690  1.4153  1.8079
22287SOL    HW284854   4.618   4.941  11.746  3.0424  0.0896 -0.5243
22288SOL     OW84855   1.948   1.839   6.686  0.3525  0.2626  0.4941
22288SOL    HW184856   1.901   1.860   6.766  0.2435 -1.2610  0.8392
22288SOL    HW284857   2.008   1.769   6.710  0.3955 -0.1430 -0.7257
22289SOL     OW84858  10.679   4.995  10.699 -0.3909 -0.2597 -0.0711
22289SOL    HW184859  10.604   5.055  10.689  0.4618  0.7499 -0.6435
22289SOL    HW284860  10.655   4.918  10.647 -1.5938 -0.5225  0.8324
22290SOL     OW84861   4.867   2.981  10.799  0.4385 -0.1267  0.3750
22290SOL    HW184862   4.841   3.017  10.714  0.0391 -0.0379  0.5295
22290SOL    HW284863   4.910   3.053  10.844 -0.2271  0.1243  0.6255
22291SOL     OW84864   8.015   2.592  12.788 -0.2102  0.4392  0.0324
22291SOL    HW184865   8.074   2.588  12.864  0.1298 -1.8333 -0.3042
22291SOL    HW284866   7.927   2.586  12.825 -0.0930  0.4894  0.3208
22292SOL     OW84867  12.886   4.744   5.032 -0.5588 -0.0260  0.2847
22292SOL    HW184868  12.957   4.802   5.058 -0.6449 -0.1160  0.7238
22292SOL    HW284869  12.828   4.799   4.979 -0.1312  0.0310 -0.1276
22293SOL     OW84870   6.411  11.881   2.484  0.1358 -0.4164 -0.2794
22293SOL    HW184871   6.469  11.850   2.415  0.3983  0.2529 -0.3685
22293SOL    HW284872   6.466  11.940   2.537  0.6658 -2.7458  1.9663
22294SOL     OW84873   7.199  12.343   6.205  0.1155 -0.2471  0.0247
22294SOL    HW184874   7.114  12.310   6.235 -0.9803  0.5936 -1.9398
22294SOL    HW284875   7.210  12.426   6.251  0.1738 -0.6385  0.7324
22295SOL     OW84876   8.242   7.825   5.129 -0.1353 -0.0136 -0.0288
22295SOL    HW184877   8.208   7.913   5.146  1.1746  0.2830  1.2832
22295SOL    HW284878   8.291   7.833   5.047  3.0489  1.4903  1.8264
22296SOL     OW84879   8.422   3.317   9.758  0.4989 -0.2083 -0.4004
22296SOL    HW184880   8.516   3.310   9.742  0.6808  0.9263  0.0541
22296SOL    HW284881   8.395   3.228   9.782  1.0377 -1.0128 -2.5192
22297SOL     OW84882   9.823  12.581   7.306 -0.3641 -0.5860 -0.2402
22297SOL    HW184883   9.764  12.541   7.242 -1.3244 -0.1906  0.3645
22297SOL    HW284884   9.810  12.675   7.294  0.9609 -0.4552 -0.8214
22298SOL     OW84885  11.542   9.892   0.869  0.4200 -0.4558 -0.8554
22298SOL    HW184886  11.515   9.808   0.904  0.9986 -1.8810 -3.5826
22298SOL    HW284887  11.637   9.894   0.884  0.4495 -0.4189 -1.0498
22299SOL     OW84888  10.276   5.161  14.111  0.0970  0.2168 -0.5017
22299SOL    HW184889  10.358   5.210  14.123 -0.1133  0.5471 -0.4017
22299SOL    HW284890  10.245   5.186  14.024 -1.1207  1.9550  0.3684
22300SOL     OW84891  10.494   1.596  13.775 -0.2703 -0.3803 -0.1336
22300SOL    HW184892  10.557   1.534  13.813  0.5005  1.1711  1.2045
22300SOL    HW284893  10.432   1.614  13.846  0.2851  1.3670 -0.0632
22301SOL     OW84894  11.200   4.312   5.117  0.5855  0.6441 -0.0802
22301SOL    HW184895  11.169   4.250   5.051  1.6807 -0.7428  0.6490
22301SOL    HW284896  11.280   4.349   5.081  0.2623  1.1781 -0.2537
22302SOL     OW84897   8.270   2.122   0.409 -0.5059  0.5705 -0.5205
22302SOL    HW184898   8.185   2.081   0.424 -1.3136  2.2963 -0.2056
22302SOL    HW284899   8.263   2.161   0.321  0.7252 -1.0447 -1.3896
22303SOL     OW84900   0.785   4.092  11.965  0.3013 -0.0039 -0.1921
22303SOL    HW184901   0.864   4.039  11.960  0.1885 -0.3856  1.5788
22303SOL    HW284902   0.715   4.030  11.983  0.1867  0.6702  2.0379
22304SOL     OW84903   1.481   0.792   8.677  0.2456  0.3930  0.0650
22304SOL    HW184904   1.494   0.852   8.604  1.5135 -0.7988 -0.7275
22304SOL    HW284905   1.392   0.758   8.665 -0.7688  2.5499  0.9116
22305SOL     OW84906  13.465  10.767   7.500 -0.0842  0.1594  0.1812
22305SOL    HW184907  13.491  10.851   7.461 -0.8944  0.9750  1.3308
22305SOL    HW284908  13.523  10.757   7.576  0.0366 -0.3490  0.0242
22306SOL     OW84909  13.169   2.904   7.017 -0.3857 -0.1529  0.1117
22306SOL    HW184910  13.250   2.880   7.062 -0.2909 -0.2803 -0.1301
22306SOL    HW284911  13.132   2.822   6.986  0.1119  0.0418 -1.0076
22307SOL     OW84912   0.652   6.554   3.036 -0.6806  0.1202  0.2231
22307SOL    HW184913   0.680   6.613   3.106  1.7173 -1.9722  1.1836
22307SOL    HW284914   0.579   6.600   2.994 -0.8768  2.3993  2.7434
22308SOL     OW84915   1.032   8.705  12.346  0.6705  0.1444  0.2969
22308SOL    HW184916   0.959   8.743  12.395  0.0761 -1.7466  0.9354
22308SOL    HW284917   0.995   8.685  12.260 -0.4403 -3.2693  1.4294
22309SOL     OW84918   8.741  12.093   4.627 -0.1160 -0.1962  0.3101
22309SOL    HW184919   8.649  12.112   4.641  0.2268  2.4916 -0.4982
22309SOL    HW284920   8.745  11.998   4.618 -2.7452 -0.4085  0.6375
22310SOL     OW84921   0.487  12.676   6.918  0.4936  0.0515 -0.1836
22310SOL    HW184922   0.406  12.709   6.880  1.0830 -0.1635 -1.7261
22310SOL    HW284923   0.487  12.708   7.008  0.0813  2.5407 -0.9842
22311SOL     OW84924  13.946   2.338   9.857 -0.1637  0.1237 -0.1741
22311SOL    HW184925  13.935   2.336   9.952 -1.3434 -0.2223 -0.2979
22311SOL    HW284926  13.862   2.372   9.824  0.1279 -0.0274 -1.1046
22312SOL     OW84927  13.697  11.753  10.502  0.2809  0.5623 -0.0413
22312SOL    HW184928  13.747  11.834  10.510  0.7946  0.1401  1.3447
22312SOL    HW284929  13.763  11.685  10.486 -0.1747  0.4319 -1.5543
22313SOL     OW84930   2.130   3.188   9.626  0.0229  0.7706  0.5672
22313SOL    HW184931   2.171   3.181   9.713  1.2154  0.2702 -0.0002
22313SOL    HW284932   2.087   3.103   9.614  1.0636  0.2811  0.1191
22314SOL     OW84933  11.853  10.074   1.319 -0.4884  0.0660  0.1377
22314SOL    HW184934  11.884  10.082   1.229 -1.0346 -0.5715 -0.1150
22314SOL    HW284935  11.800  10.153   1.334 -0.4912  0.1160 -0.1349
22315SOL     OW84936   0.303   9.172   6.788  0.0135  0.1291 -0.4972
22315SOL    HW184937   0.223   9.202   6.744  0.3391  0.7242 -0.6940
22315SOL    HW284938   0.360   9.249   6.789 -0.0023  0.1597  1.0176
22316SOL     OW84939   0.711  11.755   7.309  0.6702 -0.2849  0.2597
22316SOL    HW184940   0.770  11.765   7.235  0.9321  0.1259  0.5205
22316SOL    HW284941   0.634  11.711   7.273  1.0984 -0.7480 -0.0969
22317SOL     OW84942   0.877  11.051   3.083 -0.5645 -0.1605 -0.8245
22317SOL    HW184943   0.851  11.112   3.015 -0.3423  1.2965  0.3546
22317SOL    HW284944   0.830  11.080   3.162  1.3922  0.0022  0.3424
22318SOL     OW84945  11.306  11.940  13.445 -0.6107 -0.2343  0.0601
22318SOL    HW184946  11.298  11.846  13.429 -0.8890 -0.4967  1.5877
22318SOL    HW284947  11.364  11.947  13.521  0.7175  0.9237 -1.0155
22319SOL     OW84948   6.096  11.648   9.844  0.0824 -0.1551  0.2493
22319SOL    HW184949   6.050  11.727   9.870 -0.9873 -0.0628 -1.7272
22319SOL    HW284950   6.044  11.577   9.881 -0.6174  0.0070 -0.4048
22320SOL     OW84951   3.101   8.705  10.633 -0.3420  0.1066 -0.0031
22320SOL    HW184952   3.116   8.799  10.645 -0.4434  0.0795  0.3378
22320SOL    HW284953   3.176   8.663  10.675  0.3107  0.0623 -1.1674
22321SOL     OW84954   7.845   0.199   2.174  0.6570  0.4252  0.3838
22321SOL    HW184955   7.775   0.227   2.233  0.5254  1.4307 -0.2372
22321SOL    HW284956   7.867   0.277   2.124  0.8703 -0.3858 -0.8126
22322SOL     OW84957  13.996   6.659  10.017  0.3634 -0.0930 -0.0469
22322SOL    HW184958  13.999   6.687   9.926 -1.2147 -0.1463 -0.1463
22322SOL    HW284959  13.918   6.603  10.022 -0.8280  1.5895  1.7635
22323SOL     OW84960  11.383   6.217   0.309 -0.2752 -0.1880 -0.2122
22323SOL    HW184961  11.317   6.274   0.350 -0.2771  0.2024 -0.7570
22323SOL    HW284962  11.411   6.265   0.231  0.2583 -0.6028 -0.2781
22324SOL     OW84963   1.536   5.568   2.596  0.2370 -0.2390 -0.6529
22324SOL    HW184964   1.533   5.515   2.676 -1.1021  0.1700 -0.4158
22324SOL    HW284965   1.628   5.593   2.588  0.6507 -1.4398 -0.0141
22325SOL     OW84966   7.982  10.753  11.624  0.6358 -0.3470  0.7179
22325SOL    HW184967   7.909  10.694  11.605  0.4920  0.3358 -1.0520
22325SOL    HW284968   7.942  10.824  11.674  0.4679 -0.8830  1.3615
22326SOL     OW84969   7.276   7.934   7.859  0.6257  0.0220 -0.2350
22326SOL    HW184970   7.276   7.955   7.952 -0.8660 -1.7320  0.2206
22326SOL    HW284971   7.344   7.867   7.849  0.5517 -0.0396 -0.3347
22327SOL     OW84972  13.339   5.424   4.416  0.2719  0.2290  0.3476
22327SOL    HW184973  13.303   5.348   4.463 -1.3414  0.2190 -0.8196
22327SOL    HW284974  13.272   5.447   4.352  0.5634  2.8841  0.8790
22328SOL     OW84975   9.570   6.283   8.640  0.0007  0.4318 -0.4509
22328SOL    HW184976   9.608   6.295   8.727  0.2793  0.4252 -0.5731
22328SOL    HW284977   9.611   6.204   8.605 -1.9185 -1.0185  0.3882
22329SOL     OW84978   0.667   8.412  12.571 -0.1396 -0.2262  0.1078
22329SOL    HW184979   0.666   8.502  12.605 -0.1816 -0.1723 -0.0375
22329SOL    HW284980   0.709   8.419  12.485  1.8320 -0.6644  0.9742
22330SOL     OW84981  14.156   5.904   7.237  0.6181 -0.2693  0.5091
22330SOL    HW184982  14.121   5.832   7.289  0.5876 -0.2803  0.4727
22330SOL    HW284983  14.181   5.864   7.153  0.2039 -0.1539  0.3299
22331SOL     OW84984  11.791   9.256   5.169  0.4975  0.3552  0.1665
22331SOL    HW184985  11.791   9.193   5.240  1.3505  0.7972  0.5745
22331SOL    HW284986  11.873   9.239   5.122 -0.3764 -0.4057 -1.1554
22332SOL     OW84987   1.439   2.213  11.167 -0.3816  0.3983 -0.2080
22332SOL    HW184988   1.523   2.234  11.209 -0.8639  2.4914 -0.1918
22332SOL    HW284989   1.373   2.238  11.231 -1.1007  2.7580 -1.7493
22333SOL     OW84990   0.083   6.287  11.690 -0.6298  0.1428 -0.7100
22333SOL    HW184991   0.143   6.339  11.637 -0.0795  0.0395 -0.2009
22333SOL    HW284992   0.118   6.198  11.686 -1.1558 -0.0568 -0.9858
22334SOL     OW84993   6.993  13.319   6.021  0.3713  0.3512  0.0253
22334SOL    HW184994   7.048  13.397   6.009 -1.6348  1.5980 -1.9177
22334SOL    HW284995   6.907  13.346   5.989 -0.7775 -2.2465  0.6959
22335SOL     OW84996   6.752   8.845  13.432 -0.4661  0.3983 -0.0963
22335SOL    HW184997   6.781   8.919  13.485 -0.7300  0.7318 -0.4068
22335SOL    HW284998   6.808   8.848  13.354 -0.1446 -0.0309  0.1162
22336SOL     OW84999   4.453   4.136  11.086  0.7432 -0.4173 -0.1903
22336SOL    HW185000   4.507   4.083  11.145  1.6556 -1.6849 -2.0534
22336SOL    HW285001   4.364   4.102  11.097  0.6790  0.1070  1.1869
22337SOL     OW85002   7.156   1.766   9.386 -0.9795 -0.1398 -0.2738
22337SOL    HW185003   7.119   1.685   9.351 -1.9818  0.1299  0.1501
22337SOL    HW285004   7.194   1.740   9.470  0.1931 -0.4970 -0.8864
22338SOL     OW85005   1.998   8.792  12.585  0.5742  0.1621 -0.5914
22338SOL    HW185006   1.906   8.770  12.596  0.5608  1.3238  2.7119
22338SOL    HW285007   2.042   8.708  12.572 -0.5602 -0.9014  1.7941
22339SOL     OW85008  12.900   3.009   1.221  0.6093  0.1389 -0.1665
22339SOL    HW185009  12.925   3.101   1.206  0.1543  0.3502  0.3343
22339SOL    HW285010  12.888   3.003   1.315  4.3248 -1.4092  0.3810
22340SOL     OW85011  12.408  13.590  10.962 -0.0749  0.0642 -0.2908
22340SOL    HW185012  12.325  13.542  10.964  1.5485 -3.0418 -0.6436
22340SOL    HW285013  12.440  13.586  11.052  0.4398 -0.2983 -0.4798
22341SOL     OW85014   0.790   2.176   2.472 -0.2790  0.3144  0.3681
22341SOL    HW185015   0.813   2.269   2.475  0.1474  0.2277 -0.0799
22341SOL    HW285016   0.729   2.169   2.398 -0.2607  0.2223  0.3617
22342SOL     OW85017   9.085   7.210  13.604  0.0085 -0.2341 -0.2790
22342SOL    HW185018   9.152   7.158  13.561  0.1801  0.5257 -0.9589
22342SOL    HW285019   9.003   7.184  13.563 -0.1306 -1.1696  0.5571
22343SOL     OW85020   9.016   9.101  13.506  0.2538  0.1677 -0.1255
22343SOL    HW185021   9.105   9.125  13.533 -0.4649  1.5538  1.1063
22343SOL    HW285022   9.029   9.037  13.436  2.2190  0.2459  0.1185
22344SOL     OW85023   4.687  13.876   4.837 -0.9399  0.1754  0.4775
22344SOL    HW185024   4.598  13.858   4.806 -0.2563  0.6859 -2.0145
22344SOL    HW285025   4.733  13.793   4.828 -1.0349  0.0193  1.3556
22345SOL     OW85026   7.844   6.657  10.547 -0.6916  0.4597  0.0634
22345SOL    HW185027   7.923   6.709  10.529  0.4001 -0.5854  1.5648
22345SOL    HW285028   7.856   6.577  10.496 -2.0874  1.3724 -1.7831
22346SOL     OW85029   9.734   7.915   6.013 -0.2537  0.3076 -0.3944
22346SOL    HW185030   9.781   7.956   5.941  0.0303  1.5255  0.4470
22346SOL    HW285031   9.642   7.930   5.993 -0.2306 -0.5399 -1.1673
22347SOL     OW85032   1.903  10.714   1.998 -0.1905  0.3568 -0.2952
22347SOL    HW185033   1.978  10.672   1.956 -1.0126  0.8532 -2.3944
22347SOL    HW285034   1.852  10.642   2.035  1.5502  0.0464  1.7328
22348SOL     OW85035   6.123  11.216   8.428  0.6190 -0.2780  0.0774
22348SOL    HW185036   6.189  11.284   8.442 -1.7639  1.9148  1.5697
22348SOL    HW285037   6.137  11.154   8.500  0.1209  1.0143  1.3248
22349SOL     OW85038   0.730  10.372   6.462  0.0866  0.1724  0.0830
22349SOL    HW185039   0.810  10.357   6.513  0.2243 -0.1594 -0.2275
22349SOL    HW285040   0.749  10.449   6.409  0.4212 -0.2444 -0.4215
22350SOL     OW85041  11.426   6.752   7.668  0.3524 -0.4823  0.3498
22350SOL    HW185042  11.377   6.677   7.635  0.8995 -0.7748  0.1918
22350SOL    HW285043  11.387   6.772   7.753 -0.3152 -0.4429  0.0347
22351SOL     OW85044   1.875  12.665   4.025 -0.3496  0.0026  0.2331
22351SOL    HW185045   1.967  12.646   4.044 -0.5490 -1.2675  0.0179
22351SOL    HW285046   1.834  12.674   4.111  0.0454  1.0573  0.3333
22352SOL     OW85047  13.206   9.480  11.047 -0.0058 -0.2999 -0.0736
22352SOL    HW185048  13.286   9.531  11.056  1.2460 -2.2126  0.3890
22352SOL    HW285049  13.135   9.544  11.052  1.3991  1.2189  1.9481
22353SOL     OW85050  11.541  13.089   0.749  0.6324 -0.3191 -0.2545
22353SOL    HW185051  11.502  13.113   0.665  0.9573  0.8546 -0.0764
22353SOL    HW285052  11.635  13.093   0.734  0.7003 -1.1024 -0.0999
22354SOL     OW85053  11.148  13.794   1.067 -0.6020  0.4326 -0.6774
22354SOL    HW185054  11.087  13.865   1.050 -2.2905 -1.0132 -0.9147
22354SOL    HW285055  11.146  13.783   1.162  0.4319  1.3067 -0.5279
22355SOL     OW85056   2.331  13.455   0.611 -0.0338  0.2903  0.1942
22355SOL    HW185057   2.371  13.529   0.565  0.1853  0.2597  0.3374
22355SOL    HW285058   2.373  13.378   0.573 -1.5579  0.1229 -1.2689
22356SOL     OW85059   9.595  12.628  11.085  0.4302  0.1452  0.0322
22356SOL    HW185060   9.516  12.681  11.075  2.1422  2.7645 -0.6910
22356SOL    HW285061   9.602  12.579  11.003 -0.0862  0.4360 -0.1875
22357SOL     OW85062  11.955  10.551  13.051  0.2394 -0.3076 -0.1612
22357SOL    HW185063  11.965  10.645  13.034  0.4219 -0.4720 -1.0122
22357SOL    HW285064  12.045  10.518  13.060  0.2039 -0.5213 -0.5653
22358SOL     OW85065   8.791   0.555   2.202 -0.0421 -0.1617 -0.0063
22358SOL    HW185066   8.858   0.508   2.252 -2.0501 -1.6648  1.4747
22358SOL    HW285067   8.758   0.491   2.139 -0.2892  0.4389 -0.4958
22359SOL     OW85068   1.554  10.940  11.789 -0.1792 -0.2171 -0.3693
22359SOL    HW185069   1.462  10.914  11.780 -0.0196 -0.8029 -0.3304
22359SOL    HW285070   1.582  10.958  11.699 -0.9050  2.0182 -0.2109
22360SOL     OW85071   3.508   8.726  10.573  0.4538 -0.3283  0.1175
22360SOL    HW185072   3.464   8.789  10.516 -2.1519  0.2219  2.4590
22360SOL    HW285073   3.536   8.779  10.648 -1.0453 -1.7115  1.7493
22361SOL     OW85074   1.240   3.994   4.932  0.6569 -0.6609 -0.1426
22361SOL    HW185075   1.172   4.000   4.865 -0.3021 -0.7984  0.8019
22361SOL    HW285076   1.262   4.085   4.952  0.9104 -0.6193 -0.5998
22362SOL     OW85077   8.584   1.642   0.730 -0.5506 -0.3737  0.1653
22362SOL    HW185078   8.617   1.713   0.785 -0.7786 -0.8244  0.9095
22362SOL    HW285079   8.606   1.668   0.641  2.2765 -0.8746  0.6242
22363SOL     OW85080  12.152   1.953   3.663 -0.1894 -0.0868  0.1470
22363SOL    HW185081  12.091   1.888   3.628 -0.2225 -0.0591  0.1536
22363SOL    HW285082  12.166   2.014   3.591 -0.3637  0.0459  0.2254
22364SOL     OW85083   6.107  12.132   1.392  0.3001  0.3255 -0.7072
22364SOL    HW185084   6.090  12.212   1.442 -1.1940 -1.4007  1.7425
22364SOL    HW285085   6.020  12.098   1.370  0.9024 -0.7429 -1.5705
22365SOL     OW85086   0.383   7.950  11.622 -0.3002 -0.4949 -0.1031
22365SOL    HW185087   0.392   7.993  11.537  0.9235  1.2886  0.8513
22365SOL    HW285088   0.317   8.000  11.668 -0.3740 -0.9464  0.2923
22366SOL     OW85089   1.508   6.336   0.556  0.2075 -0.1267  0.0816
22366SOL    HW185090   1.544   6.331   0.467 -0.6082 -0.2746 -0.2457
22366SOL    HW285091   1.422   6.375   0.545 -0.0783 -0.5562  0.7581
22367SOL     OW85092   7.472   0.111   0.007  0.2208  0.0104  0.5078
22367SOL    HW185093   7.482   0.023   0.043  0.7487  0.4847  1.5698
22367SOL    HW285094   7.562   0.139  -0.011 -0.0276 -0.4008 -1.7593
22368SOL     OW85095  12.794  13.680  13.308  0.2436  0.4816  0.2216
22368SOL    HW185096  12.848  13.609  13.274  2.0114  1.4091  0.9797
22368SOL    HW285097  12.710  13.670  13.262  0.5652 -1.8128  0.0075
22369SOL     OW85098  11.165  14.143   3.806 -0.0695 -0.0920 -0.3360
22369SOL    HW185099  11.156  14.165   3.899 -1.1548  3.8378 -1.2130
22369SOL    HW285100  11.256  14.112   3.797 -0.4154 -2.1606  2.2054
22370SOL     OW85101   2.288   4.864  13.688 -0.2720  0.5675 -0.0686
22370SOL    HW185102   2.370   4.824  13.657 -0.8743  0.4788 -1.6243
22370SOL    HW285103   2.223   4.840  13.622 -1.6754  0.2753  1.3509
22371SOL     OW85104  10.141  12.969   6.532 -0.1847  0.4162 -0.3570
22371SOL    HW185105  10.176  12.944   6.618  0.6009  0.8148 -0.5539
22371SOL    HW285106  10.113  12.887   6.493 -2.1982  0.3879  0.9708
22372SOL     OW85107   3.340  12.031  12.337  0.0237 -0.1705 -0.3137
22372SOL    HW185108   3.410  11.976  12.303 -0.0883 -1.0682  0.8539
22372SOL    HW285109   3.349  12.025  12.432 -1.7085 -0.4111 -0.1399
22373SOL     OW85110   2.991   9.334  11.355 -0.2296  0.4657 -0.5527
22373SOL    HW185111   3.045   9.396  11.404  2.3078 -1.6249 -0.4745
22373SOL    HW285112   2.938   9.291  11.422 -0.0779  0.7165 -0.2650
22374SOL     OW85113   2.773  12.172   2.123 -0.1179 -0.3812  0.5817
22374SOL    HW185114   2.708  12.109   2.152  0.6376 -1.1793  0.5626
22374SOL    HW285115   2.747  12.196   2.034 -0.7464 -0.1927  0.8131
22375SOL     OW85116   5.458   6.309   5.226 -0.1500 -0.5416 -0.5073
22375SOL    HW185117   5.515   6.359   5.168 -0.1820 -0.7364 -0.7080
22375SOL    HW285118   5.432   6.371   5.294 -0.0091 -0.3491 -0.6298
22376SOL     OW85119  12.632   9.746  13.719 -0.2278  0.2743  0.0262
22376SOL    HW185120  12.560   9.684  13.707 -0.7265  0.9362 -0.5251
22376SOL    HW285121  12.589   9.831  13.732  0.4440  0.7503 -0.7331
22377SOL     OW85122  11.292   9.671   2.839  0.3953  0.5309 -0.2851
22377SOL    HW185123  11.202   9.669   2.808  0.3188  0.8798 -0.0968
22377SOL    HW285124  11.344   9.637   2.765  0.1043  0.2565 -0.3632
22378SOL     OW85125   6.626  11.683  10.255  0.1080 -0.1189 -0.4640
22378SOL    HW185126   6.552  11.675  10.194  1.0151  0.7788 -1.7270
22378SOL    HW285127   6.601  11.756  10.312  0.0438  0.2476 -0.9506
22379SOL     OW85128   6.610   6.992   2.918 -0.6448 -0.3868 -0.0624
22379SOL    HW185129   6.576   7.021   3.002 -0.6245  0.8315 -0.4447
22379SOL    HW285130   6.641   7.073   2.876  1.4624 -1.2548 -0.2872
22380SOL     OW85131   1.254   7.699  13.623 -0.0067  0.2274  0.1459
22380SOL    HW185132   1.258   7.793  13.610 -3.0665  0.4579  0.2459
22380SOL    HW285133   1.215   7.665  13.542  0.5066 -0.9120  0.3476
22381SOL     OW85134   2.796  10.923   7.617 -0.3578 -0.3868  0.1890
22381SOL    HW185135   2.711  10.889   7.592 -0.9292 -0.7330  2.3889
22381SOL    HW285136   2.780  11.014   7.640 -0.0354 -0.3106  0.1208
22382SOL     OW85137   8.128   3.512   3.139  0.1503  0.7023  0.6865
22382SOL    HW185138   8.081   3.490   3.059  0.3382  1.6965  0.2796
22382SOL    HW285139   8.208   3.459   3.136 -0.3857 -0.1275  0.8056
22383SOL     OW85140  11.939  13.621   8.110  0.7152  0.4039  0.5876
22383SOL    HW185141  11.848  13.597   8.093  1.4789 -2.1908 -0.2526
22383SOL    HW285142  11.971  13.655   8.026  0.7117  0.7300  0.7156
22384SOL     OW85143  13.729   5.468   1.926 -0.1527 -0.3110  0.0359
22384SOL    HW185144  13.765   5.403   1.867 -1.0394 -0.4962 -0.3244
22384SOL    HW285145  13.643   5.433   1.951 -1.3340  1.3870 -1.3888
22385SOL     OW85146   4.210   2.242  10.031  0.7789 -0.1351  0.5385
22385SOL    HW185147   4.187   2.280  10.115 -0.0097 -1.5863  1.0196
22385SOL    HW285148   4.194   2.148  10.042  2.2715 -0.5802 -0.7022
22386SOL     OW85149   0.498  13.380  10.631 -0.9085 -0.1225 -0.0107
22386SOL    HW185150   0.423  13.322  10.644  0.6604 -1.8681  1.9135
22386SOL    HW285151   0.462  13.468  10.641 -2.5180 -0.9387  2.1055
22387SOL     OW85152   7.395   7.056   1.930  0.0028  0.3874  0.2256
22387SOL    HW185153   7.326   7.046   1.864 -1.4109  2.0694  1.3540
22387SOL    HW285154   7.372   6.993   1.999 -0.0397  0.4967  0.3117
22388SOL     OW85155   0.780   0.628  10.548  0.0647 -0.1395  0.3166
22388SOL    HW185156   0.812   0.597  10.633  0.4393  2.2554  1.1089
22388SOL    HW285157   0.744   0.715  10.566 -2.4239 -0.6993 -1.4920
22389SOL     OW85158  13.222   0.380  12.247  0.6043  0.1400 -0.5635
22389SOL    HW185159  13.217   0.427  12.330 -0.7312  1.1652 -1.1831
22389SOL    HW285160  13.290   0.427  12.197  0.3045  0.5039 -0.6320
22390SOL     OW85161   3.881   4.035  11.274 -0.0826  0.4939  1.2455
22390SOL    HW185162   3.845   4.065  11.357  0.0970  1.2472  1.0560
22390SOL    HW285163   3.906   3.944  11.290  2.4283  1.3582  2.8430
22391SOL     OW85164   1.424   8.809  10.676 -0.4423 -0.7233 -0.3891
22391SOL    HW185165   1.494   8.821  10.612 -1.9858  0.7591 -1.9051
22391SOL    HW285166   1.466   8.824  10.760  1.1133 -0.0665 -1.2430
22392SOL     OW85167   0.860   7.887   0.769 -0.2057 -0.0940 -0.1483
22392SOL    HW185168   0.927   7.937   0.815 -1.1286  2.3554 -1.2448
22392SOL    HW285169   0.783   7.894   0.826 -0.3302 -0.3124 -0.2903
22393SOL     OW85170   8.228  12.965   2.001  0.0771 -0.0011  0.2561
22393SOL    HW185171   8.182  13.046   2.022  1.2807  0.5955  0.7236
22393SOL    HW285172   8.207  12.949   1.909 -1.0447  0.2449  0.4619
22394SOL     OW85173   6.686  10.464   4.305 -0.8491  0.2685  0.2220
22394SOL    HW185174   6.752  10.411   4.349 -1.1328 -0.3287 -0.0690
22394SOL    HW285175   6.729  10.497   4.226 -0.9768 -0.3297 -0.0996
22395SOL     OW85176  13.819  10.740  10.005  0.5011 -0.3384  0.9700
22395SOL    HW185177  13.804  10.660  10.056 -0.1346 -0.2010  1.0057
22395SOL    HW285178  13.734  10.760   9.967  0.5312  0.6109  1.3715
22396SOL     OW85179   8.888   2.209  11.302 -0.6429  0.0942  0.2851
22396SOL    HW185180   8.934   2.125  11.301 -2.5409 -1.0108  0.4673
22396SOL    HW285181   8.937   2.265  11.242  2.0883 -0.2897  1.9694
22397SOL     OW85182   1.204  13.395   5.542  0.5571  0.1555  0.2854
22397SOL    HW185183   1.135  13.455   5.572  0.2326  0.3500 -0.7751
22397SOL    HW285184   1.230  13.347   5.620 -1.6817 -0.8280  0.5163
22398SOL     OW85185  13.125   7.551  13.863  0.0419  0.6168 -0.1884
22398SOL    HW185186  13.099   7.643  13.862  0.1185  0.6810  1.3171
22398SOL    HW285187  13.045   7.504  13.887 -0.3141  0.1366 -2.1488
22399SOL     OW85188   6.657   9.633   1.792 -0.8030 -0.2424 -0.6201
22399SOL    HW185189   6.673   9.727   1.792  0.5072 -0.4449 -0.8726
22399SOL    HW285190   6.585   9.620   1.731 -2.4413  0.7953  1.0085
22400SOL     OW85191  12.877   5.105   6.163 -0.1762  0.3602 -0.3020
22400SOL    HW185192  12.911   5.163   6.095 -0.3071  0.3081 -0.4116
22400SOL    HW285193  12.918   5.020   6.144 -1.3545 -0.0393 -1.2167
22401SOL     OW85194   8.035   7.540   9.781 -1.0460 -0.1975 -0.7203
22401SOL    HW185195   8.107   7.577   9.729 -0.5650  0.0287  0.0984
22401SOL    HW285196   8.011   7.460   9.734  0.0880 -0.5503 -0.7350
22402SOL     OW85197   6.802  13.744  11.843 -0.0504  0.7480 -0.6922
22402SOL    HW185198   6.775  13.683  11.912  1.1940 -1.5864 -2.1536
22402SOL    HW285199   6.739  13.730  11.773  1.2303 -0.1773 -1.7020
22403SOL     OW85200  11.035   5.443  12.180 -0.0271 -0.2362  0.5261
22403SOL    HW185201  11.106   5.438  12.243 -1.1169 -0.1145  1.8051
22403SOL    HW285202  10.966   5.493  12.225 -0.4387  0.7933 -1.1569
22404SOL     OW85203  12.254   4.392   4.111 -0.1972 -0.4261 -0.2550
22404SOL    HW185204  12.284   4.393   4.202  0.2233  1.5571 -0.3645
22404SOL    HW285205  12.235   4.484   4.091  0.3617 -0.7151 -2.3781
22405SOL     OW85206   3.894   5.533   3.651  0.0234  0.3289  0.8396
22405SOL    HW185207   3.985   5.563   3.655  0.0299  0.2888  0.9956
22405SOL    HW285208   3.855   5.582   3.579  0.8767 -1.5280 -1.0072
22406SOL     OW85209  13.954   8.517   6.591 -0.3170 -0.1481  0.2002
22406SOL    HW185210  13.970   8.582   6.522 -0.4338  0.5311  0.8000
22406SOL    HW285211  14.035   8.468   6.598 -0.2513 -0.1160 -0.3172
22407SOL     OW85212   4.830   3.209   3.212 -0.0499  0.2559  0.5017
22407SOL    HW185213   4.824   3.171   3.124  0.6789  0.0170  0.5490
22407SOL    HW285214   4.809   3.137   3.271 -3.8469  1.1470  0.4961
22408SOL     OW85215  11.575   5.464   9.178 -0.1280 -0.0754  0.0207
22408SOL    HW185216  11.551   5.552   9.149 -0.5688 -0.7183 -1.6821
22408SOL    HW285217  11.627   5.478   9.257 -0.7656  1.6716  0.1768
22409SOL     OW85218  11.878   8.597  10.611 -0.6066  0.4485  0.1256
22409SOL    HW185219  11.873   8.615  10.517  0.1855  1.5806  0.2919
22409SOL    HW285220  11.788   8.574  10.635 -0.5651 -1.2729 -1.1607
22410SOL     OW85221  10.844   3.078  12.695 -0.4062 -0.0562 -0.1409
22410SOL    HW185222  10.888   3.099  12.612 -0.0712 -1.9203 -0.4831
22410SOL    HW285223  10.843   2.982  12.697 -0.4164 -0.0431  2.0137
22411SOL     OW85224   4.347   5.061   8.943 -0.6075  0.7254 -0.7753
22411SOL    HW185225   4.308   4.974   8.943  0.4678  0.2333 -0.8203
22411SOL    HW285226   4.426   5.053   8.890  0.3349  1.3444  0.4748
22412SOL     OW85227   2.443  10.714   8.555  0.2124 -0.0464 -0.1419
22412SOL    HW185228   2.509  10.690   8.490 -0.8616 -0.3344 -1.1499
22412SOL    HW285229   2.462  10.657   8.630 -0.2145 -1.7381 -1.2491
22413SOL     OW85230   5.733   7.190  13.815  0.0812 -0.0126 -0.4633
22413SOL    HW185231   5.802   7.255  13.828 -1.0143  0.8177  1.6720
22413SOL    HW285232   5.653   7.242  13.808 -0.4111 -0.9748 -2.5870
22414SOL     OW85233  13.516   1.186   4.083  1.1183 -0.5106 -0.0600
22414SOL    HW185234  13.599   1.158   4.044  2.0190 -1.5964  2.4234
22414SOL    HW285235  13.517   1.149   4.171 -1.7063  0.0603  0.3185
22415SOL     OW85236   6.962  12.094   1.292 -0.4621  0.0255 -0.1466
22415SOL    HW185237   6.966  12.096   1.196  2.2425 -0.8634 -0.1433
22415SOL    HW285238   6.971  12.001   1.314  1.0799  0.3933  0.9460
22416SOL     OW85239   2.706   7.268   6.652 -0.2191  0.0564  0.7071
22416SOL    HW185240   2.688   7.229   6.737 -1.7675  1.0691  0.8726
22416SOL    HW285241   2.651   7.346   6.649  0.7967  0.7593 -0.6970
22417SOL     OW85242  14.026   3.331   5.864 -0.1284  0.3301  0.3224
22417SOL    HW185243  14.046   3.293   5.950 -1.3119  1.2584  1.0536
22417SOL    HW285244  13.931   3.347   5.867 -0.2502  0.0588 -1.3088
22418SOL     OW85245   0.724   4.422   2.674  0.4745 -0.1813 -0.4412
22418SOL    HW185246   0.802   4.367   2.673  0.7315  0.1579 -2.0917
22418SOL    HW285247   0.667   4.385   2.607  0.6241  1.4842 -1.5345
22419SOL     OW85248  12.397   9.203   7.057  0.1741 -0.1582 -0.3282
22419SOL    HW185249  12.374   9.110   7.057  0.8713 -0.3378  0.2746
22419SOL    HW285250  12.489   9.205   7.080  0.4766  0.6251 -1.5192
22420SOL     OW85251   7.882  13.968   4.467  0.0302  0.0236 -0.2191
22420SOL    HW185252   7.934  13.901   4.512 -1.8340 -0.5187  1.3098
22420SOL    HW285253   7.945  14.018   4.416  1.7054 -1.9619 -0.2380
22421SOL     OW85254   5.440   9.362  12.515  0.4406  0.3913  0.7453
22421SOL    HW185255   5.397   9.339  12.432 -1.1085 -1.2883  1.9485
22421SOL    HW285256   5.407   9.450  12.534 -0.3946  0.1888  0.3138
22422SOL     OW85257  12.322   8.560  12.199 -0.6292  0.1202 -0.3426
22422SOL    HW185258  12.353   8.501  12.267 -1.4673 -1.1240 -0.9914
22422SOL    HW285259  12.271   8.627  12.246 -2.7279 -1.7206  0.1741
22423SOL     OW85260  12.219   5.831   6.346  0.2225  0.0937  0.2188
22423SOL    HW185261  12.300   5.780   6.337 -0.6284 -1.2780  0.1183
22423SOL    HW285262  12.236   5.911   6.297  1.5859 -0.0846  0.3471
22424SOL     OW85263   8.041   1.934   4.356  0.5858 -0.6808 -0.1611
22424SOL    HW185264   8.101   1.861   4.366 -0.1523 -1.4209 -1.0262
22424SOL    HW285265   8.090   1.999   4.306  0.5030 -1.4777 -1.2933
22425SOL     OW85266   0.262   0.114  11.823 -0.1775 -0.0294 -0.0508
22425SOL    HW185267   0.178   0.100  11.779  0.0887  2.6728 -1.6663
22425SOL    HW285268   0.327   0.097  11.756  0.4872 -0.3092  0.6539
22426SOL     OW85269   4.745  10.286   4.554  0.2449  0.2178 -0.2939
22426SOL    HW185270   4.657  10.312   4.526  0.7780  1.6989 -0.7038
22426SOL    HW285271   4.748  10.192   4.540 -0.8083  0.3527 -1.6259
22427SOL     OW85272   2.225   7.492   2.637 -0.0780 -0.3817 -0.4300
22427SOL    HW185273   2.237   7.461   2.548 -1.0550 -1.2098 -0.2874
22427SOL    HW285274   2.271   7.576   2.640 -0.1615 -0.2778 -1.7372
22428SOL     OW85275  12.088  12.367   2.797 -0.0206 -0.7361  0.3788
22428SOL    HW185276  11.999  12.397   2.776  0.9729  1.1189 -1.6619
22428SOL    HW285277  12.104  12.400   2.885 -0.7366  0.5887  0.0496
22429SOL     OW85278   7.379   0.367   3.699 -0.3503 -0.1239  0.2826
22429SOL    HW185279   7.456   0.391   3.751 -0.8525  1.7746  0.2216
22429SOL    HW285280   7.366   0.442   3.641 -0.7065 -1.5357 -1.5506
22430SOL     OW85281   7.521   2.732   9.036  0.5418 -0.0793 -0.2644
22430SOL    HW185282   7.492   2.644   9.012  1.3537 -1.0209  1.9409
22430SOL    HW285283   7.451   2.790   9.005  0.1799 -1.4268 -2.1139
22431SOL     OW85284  12.621   0.142  10.436 -0.3301  0.9724  0.1900
22431SOL    HW185285  12.532   0.135  10.470 -0.0393 -3.0019  0.5387
22431SOL    HW285286  12.674   0.163  10.512 -0.7343  1.5901  0.3116
22432SOL     OW85287   7.837   9.385   8.416  0.1141 -0.0242 -0.0056
22432SOL    HW185288   7.929   9.412   8.411  0.2574 -0.4957  0.1047
22432SOL    HW285289   7.831   9.310   8.357 -0.2227  0.0599 -0.0811
22433SOL     OW85290   2.265   5.525   5.499  0.0075 -0.1367  0.0906
22433SOL    HW185291   2.175   5.503   5.520  0.3085 -2.6435 -0.9590
22433SOL    HW285292   2.306   5.541   5.584 -0.4120 -3.4016  1.0456
22434SOL     OW85293   6.466   2.147   4.422 -0.1403 -0.1438  0.1473
22434SOL    HW185294   6.541   2.200   4.396  0.4455 -0.1120  1.8055
22434SOL    HW285295   6.401   2.164   4.354  1.1161  0.3125 -0.9889
22435SOL     OW85296   2.656   4.504  13.508  0.4886 -0.1505  0.6874
22435SOL    HW185297   2.748   4.524  13.526  0.7107 -0.5765  0.0392
22435SOL    HW285298   2.659   4.437  13.440 -0.3401  1.9326 -1.5159
22436SOL     OW85299   6.060   6.645  11.915  0.1219 -0.1684 -0.6272
22436SOL    HW185300   6.106   6.720  11.953  0.2917 -1.0309  0.9243
22436SOL    HW285301   5.977   6.682  11.884  0.0389  0.6181  0.4607
22437SOL     OW85302  10.851   3.885   3.821  0.0833  0.3015 -0.1050
22437SOL    HW185303  10.787   3.826   3.862  0.3121 -0.4126 -0.7679
22437SOL    HW285304  10.848   3.863   3.728  1.9488 -0.3861 -0.0407
22438SOL     OW85305   6.893  10.994   0.689  0.1232 -0.3060 -0.2579
22438SOL    HW185306   6.950  11.048   0.743 -1.3449 -1.9400  3.2435
22438SOL    HW285307   6.930  10.906   0.695 -0.2970 -0.6103 -1.6899
22439SOL     OW85308  12.845   4.571  10.679  0.6872  0.3885  0.1398
22439SOL    HW185309  12.787   4.601  10.609  0.3097  1.7225  0.9858
22439SOL    HW285310  12.930   4.610  10.659  0.4184  1.3222  0.7516
22440SOL     OW85311   3.090  12.953   6.825 -0.2640 -0.0464 -0.0694
22440SOL    HW185312   3.089  13.047   6.812 -0.3571  0.3269  2.2520
22440SOL    HW285313   3.081  12.941   6.919  0.6454 -2.3599 -0.1944
22441SOL     OW85314   9.788   7.666   3.365 -0.1995 -0.0797  0.0048
22441SOL    HW185315   9.852   7.736   3.374  0.0065 -0.0377 -1.6029
22441SOL    HW285316   9.704   7.711   3.357  0.0625  0.0890 -2.3061
22442SOL     OW85317   4.688  10.463   1.567 -0.7276 -0.3012 -0.2090
22442SOL    HW185318   4.735  10.397   1.516  0.9007  1.5752 -1.3026
22442SOL    HW285319   4.604  10.422   1.588 -0.3424 -2.1826 -2.0041
22443SOL     OW85320   5.933  13.023   5.506  0.6549 -0.0929  0.0439
22443SOL    HW185321   5.983  13.043   5.427  1.6305 -0.1997  0.6256
22443SOL    HW285322   5.942  13.101   5.561 -1.6077  0.7829 -0.7004
22444SOL     OW85323   7.707   9.205  11.720 -0.1795  0.1617  0.0447
22444SOL    HW185324   7.668   9.146  11.656 -0.3912  0.9147 -0.5262
22444SOL    HW285325   7.779   9.248  11.673  1.5670 -1.3749  1.1339
22445SOL     OW85326   0.860   5.785  11.878  0.1191  0.7424 -0.2813
22445SOL    HW185327   0.928   5.851  11.889  1.8822 -0.9651 -0.5271
22445SOL    HW285328   0.885   5.737  11.799 -1.1321 -0.2012 -0.1385
22446SOL     OW85329  12.507   0.508  10.325  0.0348  0.0359 -0.3214
22446SOL    HW185330  12.476   0.515  10.416 -0.9461 -0.8091 -0.5688
22446SOL    HW285331  12.602   0.505  10.333  0.0793  2.1126  0.5111
22447SOL     OW85332   0.032   3.510  11.762  0.0723  0.5378  0.8632
22447SOL    HW185333   0.078   3.439  11.718 -0.3186  0.3113  0.8173
22447SOL    HW285334  -0.005   3.471  11.840  0.1010  0.7585  0.9887
22448SOL     OW85335   3.117  10.085  13.185  0.0983  0.4101 -1.1005
22448SOL    HW185336   3.194  10.115  13.137  1.6912 -0.5667  0.7323
22448SOL    HW285337   3.068  10.032  13.121  1.6524 -0.0826 -1.9187
22449SOL     OW85338   2.313  11.066   8.340 -0.0352 -0.1635  0.2500
22449SOL    HW185339   2.249  11.120   8.295  1.3086  0.8894 -0.4470
22449SOL    HW285340   2.280  11.060   8.430 -1.5636 -0.4106 -0.2957
22450SOL     OW85341   1.733  13.646  11.495 -0.0128  0.2483  0.2154
22450SOL    HW185342   1.664  13.581  11.481 -1.3303  1.3466  1.2853
22450SOL    HW285343   1.694  13.729  11.466  0.5259  1.0355  1.6098
22451SOL     OW85344  10.320   2.043   0.498 -0.1135  0.2897  0.4081
22451SOL    HW185345  10.278   2.127   0.480 -0.3694  0.2199  0.6828
22451SOL    HW285346  10.248   1.980   0.499 -0.0017  0.1667  0.8625
22452SOL     OW85347   5.985  10.506   3.232  0.0309 -0.2691 -0.2883
22452SOL    HW185348   6.075  10.473   3.238  0.0671 -0.3626 -1.2163
22452SOL    HW285349   5.979  10.572   3.301  1.9395  2.3047 -2.3564
22453SOL     OW85350   7.877   0.565   1.533  0.0208  0.3355  0.1044
22453SOL    HW185351   7.956   0.618   1.533 -0.0167  0.3898  0.9599
22453SOL    HW285352   7.861   0.546   1.440 -0.6304  2.7865 -0.3383
22454SOL     OW85353   7.758   3.434   5.636  0.3015 -0.2507 -0.0020
22454SOL    HW185354   7.723   3.488   5.708  0.2878 -0.4018  0.1038
22454SOL    HW285355   7.845   3.471   5.619  0.5774 -0.6366  0.5394
22455SOL     OW85356   3.836   5.920   6.474 -0.2009  0.4532  0.8895
22455SOL    HW185357   3.914   5.877   6.508  0.8920  1.5717 -0.1455
22455SOL    HW285358   3.783   5.939   6.552  0.1934 -0.9636  1.5300
22456SOL     OW85359  10.397  10.149   3.441 -0.3035 -0.2413  0.7313
22456SOL    HW185360  10.328  10.212   3.462  0.5055  0.5572  1.0772
22456SOL    HW285361  10.447  10.140   3.523 -0.0052 -0.8161  0.4943
22457SOL     OW85362   2.746   7.205  10.533  0.3921 -0.4881 -0.4613
22457SOL    HW185363   2.670   7.182  10.480  0.4223  0.8243 -1.1149
22457SOL    HW285364   2.794   7.269  10.480  0.3470  0.9953  1.1752
22458SOL     OW85365   8.064   4.493   3.676  0.0915  0.6288  0.3887
22458SOL    HW185366   8.048   4.535   3.760  1.2266 -0.1638  1.0329
22458SOL    HW285367   8.061   4.399   3.695  0.6962  0.4416 -0.3780
22459SOL     OW85368  13.474   4.838  11.801 -0.2023  0.1998  0.1587
22459SOL    HW185369  13.493   4.847  11.708 -0.7769 -1.5782 -0.1693
22459SOL    HW285370  13.533   4.900  11.844 -0.1266  1.2458 -1.3928
22460SOL     OW85371   5.783  13.212   2.853 -0.1310 -0.5274  0.5257
22460SOL    HW185372   5.704  13.184   2.807  1.0627 -1.7951 -0.8444
22460SOL    HW285373   5.779  13.167   2.937 -1.1098 -0.1586  0.6886
22461SOL     OW85374  10.933  11.007   1.662  0.2144 -0.5356 -0.0142
22461SOL    HW185375  10.977  10.938   1.710 -0.5448  0.9551  3.0642
22461SOL    HW285376  10.962  11.088   1.704 -3.0196  0.6869  0.1285
22462SOL     OW85377  10.300  13.223   2.279 -0.1791 -0.1812 -0.3567
22462SOL    HW185378  10.353  13.167   2.222 -1.1742 -1.6891  0.1559
22462SOL    HW285379  10.210  13.192   2.267 -0.8734  1.8062 -0.6007
22463SOL     OW85380   3.596  13.061   6.484 -0.1807  0.1335 -0.4778
22463SOL    HW185381   3.557  13.039   6.399  0.3610  0.7081 -0.8834
22463SOL    HW285382   3.522  13.065   6.544 -0.6162  0.1405 -1.0094
22464SOL     OW85383   5.961  11.968  13.719  0.1427 -0.2809 -0.2721
22464SOL    HW185384   5.973  12.053  13.762  2.7932 -1.4872  1.6147
22464SOL    HW285385   5.883  11.931  13.759  0.4088  0.2141  0.7263
22465SOL     OW85386   2.932   2.281  10.607  0.0975  0.8570 -0.4064
22465SOL    HW185387   2.863   2.322  10.554 -0.0683  0.5934 -0.3932
22465SOL    HW285388   2.919   2.187  10.595  2.5903  0.7384 -3.1970
22466SOL     OW85389  11.216   2.910   3.282 -0.4642  0.0949 -0.4599
22466SOL    HW185390  11.273   2.843   3.245 -0.3573 -0.2148  0.2469
22466SOL    HW285391  11.156   2.862   3.339 -0.4925  0.5825 -0.0720
22467SOL     OW85392  10.299   7.037  11.504 -0.3525  0.9269  0.4939
22467SOL    HW185393  10.339   7.109  11.553 -1.3749  0.8786  1.4372
22467SOL    HW285394  10.205   7.046  11.522 -0.5472 -0.2782  0.1138
22468SOL     OW85395  10.931  11.159   9.306  0.5336 -0.0409 -0.0856
22468SOL    HW185396  10.958  11.142   9.215 -0.5363  1.9029 -0.8349
22468SOL    HW285397  10.835  11.164   9.302  0.4898  0.4095  1.0941
22469SOL     OW85398   7.651   9.378   7.446  0.1405  0.0931  0.5108
22469SOL    HW185399   7.576   9.346   7.495  0.6318 -3.3624 -0.6938
22469SOL    HW285400   7.643   9.337   7.360  2.6565  0.7078 -0.1084
22470SOL     OW85401   9.327  10.532   2.176  0.1923  0.0157  1.0034
22470SOL    HW185402   9.382  10.561   2.104  0.7177 -0.3964  1.2371
22470SOL    HW285403   9.319  10.437   2.164  1.1679 -0.2247  2.0772
22471SOL     OW85404   8.184  14.023   1.067  0.1064 -0.3619  0.1189
22471SOL    HW185405   8.193  14.073   0.986 -0.1855 -0.1397  0.2216
22471SOL    HW285406   8.091  14.027   1.088  0.3506  0.5662  1.0911
22472SOL     OW85407   5.996  12.985   9.549 -0.2013 -0.5086  0.3529
22472SOL    HW185408   5.908  12.981   9.587 -1.2882 -0.4957 -1.9910
22472SOL    HW285409   5.989  12.937   9.467  0.8564  2.8527 -1.9113
22473SOL     OW85410   5.527   0.066  11.180  0.1383  0.2652  0.2395
22473SOL    HW185411   5.596   0.000  11.170  0.9851  0.9357  1.4356
22473SOL    HW285412   5.447   0.015  11.196  0.3908 -0.5048 -0.8203
22474SOL     OW85413  12.098   1.350   9.510 -0.1197  0.1012 -0.6001
22474SOL    HW185414  12.145   1.267   9.503 -1.9793 -1.0161 -0.5071
22474SOL    HW285415  12.160   1.415   9.477  2.1453 -0.9992  1.1821
22475SOL     OW85416   3.614   1.352  13.888 -0.1083  0.4328 -0.1933
22475SOL    HW185417   3.685   1.314  13.835 -0.4411  0.3296 -0.5723
22475SOL    HW285418   3.613   1.299  13.968 -0.8795 -0.6948 -0.9138
22476SOL     OW85419  12.616   5.499   6.710 -0.4553  0.1575  0.7068
22476SOL    HW185420  12.623   5.496   6.805 -2.4941 -0.4523  0.8875
22476SOL    HW285421  12.617   5.592   6.688  0.9532  0.2814  1.2026
22477SOL     OW85422   0.936   6.062  10.110 -0.3961 -0.1498  0.4983
22477SOL    HW185423   0.929   6.145  10.064  0.6079 -0.0022  0.5925
22477SOL    HW285424   0.847   6.027  10.111 -0.5030 -0.0232 -1.2974
22478SOL     OW85425   7.411   1.867  11.068  0.1971 -0.0265 -0.4539
22478SOL    HW185426   7.477   1.910  11.013 -0.0712  1.7001  0.5080
22478SOL    HW285427   7.417   1.912  11.152 -1.7587 -0.2797 -0.1402
22479SOL     OW85428   1.062  10.052   4.334  0.1956 -0.9310 -0.2391
22479SOL    HW185429   1.082  10.053   4.240  2.2716 -1.1805  0.1593
22479SOL    HW285430   1.146  10.034   4.376 -0.8913 -1.8713  1.6330
22480SOL     OW85431   4.207   0.460   6.151  0.2259 -0.1072 -0.1200
22480SOL    HW185432   4.218   0.408   6.230  1.0250 -0.8459 -0.7045
22480SOL    HW285433   4.173   0.398   6.086 -1.8182  0.8000  0.0081
22481SOL     OW85434   3.896   3.102   1.066 -0.0786 -0.1825  0.1337
22481SOL    HW185435   3.888   3.026   1.009 -0.7578  0.5981 -0.8518
22481SOL    HW285436   3.811   3.145   1.061  0.6377  1.2845 -0.2961
22482SOL     OW85437   3.875  13.152   6.287 -0.1265  0.0473  0.6426
22482SOL    HW185438   3.820  13.089   6.239  0.6947 -0.9355  0.9493
22482SOL    HW285439   3.890  13.110   6.372 -0.2570  1.0515  1.1735
22483SOL     OW85440  10.855  14.057   5.826 -0.5016  0.4389  0.5705
22483SOL    HW185441  10.927  14.114   5.854 -0.4999 -0.2276  1.9992
22483SOL    HW285442  10.805  14.041   5.906 -0.3571 -1.7603  0.2865
22484SOL     OW85443   3.279   4.788   3.516  0.3445  0.0323  0.2796
22484SOL    HW185444   3.225   4.864   3.537 -1.2359  0.3208 -3.7915
22484SOL    HW285445   3.325   4.813   3.435  1.9645 -2.3796  0.3289
22485SOL     OW85446  11.459   7.068   9.891  0.0952  0.7223  0.2079
22485SOL    HW185447  11.440   7.062   9.797  0.3468  1.6988  0.0745
22485SOL    HW285448  11.375   7.058   9.934  0.0964 -0.6464 -0.0625
22486SOL     OW85449   1.002  10.301   2.428  0.4770 -0.4962  0.2340
22486SOL    HW185450   1.005  10.265   2.340  2.8046 -0.1546  0.1298
22486SOL    HW285451   0.918  10.348   2.432  1.1671  1.1966 -2.5055
22487SOL     OW85452  13.795   3.212  11.152 -0.2573 -0.5170  0.7474
22487SOL    HW185453  13.772   3.124  11.122 -1.7727  1.0725 -3.4130
22487SOL    HW285454  13.890   3.210  11.164 -0.1365 -2.4699 -0.2235
22488SOL     OW85455  11.109   7.603   3.425  0.5103  0.2516  0.5922
22488SOL    HW185456  11.197   7.622   3.458  0.7271 -1.2801  0.9518
22488SOL    HW285457  11.088   7.678   3.370  1.3354  1.4626  1.8653
22489SOL     OW85458   0.529   4.997   8.890  0.5512 -0.4369  0.1358
22489SOL    HW185459   0.619   5.005   8.921  0.5901 -4.1841  1.4702
22489SOL    HW285460   0.531   4.923   8.829 -1.4643  0.1662 -0.7748
22490SOL     OW85461  12.333   8.646   4.162 -0.3557  0.1910  0.5973
22490SOL    HW185462  12.338   8.556   4.129  0.9509  0.4974 -0.1148
22490SOL    HW285463  12.338   8.636   4.258  0.9980 -0.4531  0.4902
22491SOL     OW85464   2.156   8.364  12.807  1.0797 -0.5129 -0.7343
22491SOL    HW185465   2.243   8.378  12.845  0.4876 -0.9109  0.8675
22491SOL    HW285466   2.109   8.445  12.826  0.8100 -0.6693 -0.7341
22492SOL     OW85467  12.092   3.862   6.833 -0.6939  0.2059  0.4015
22492SOL    HW185468  12.091   3.854   6.928  3.5322  1.2852  0.7574
22492SOL    HW285469  12.066   3.776   6.801 -3.0405  0.0696  2.4425
22493SOL     OW85470   4.380   3.983   2.714  0.8154  0.1638 -0.0414
22493SOL    HW185471   4.433   4.036   2.654 -0.2754 -0.4640 -1.6457
22493SOL    HW285472   4.313   4.043   2.746  0.3785  0.1113 -0.8190
22494SOL     OW85473   9.610  11.561   0.079  0.0559 -0.1357  0.1686
22494SOL    HW185474   9.646  11.485   0.033  0.7231 -1.3254  2.5028
22494SOL    HW285475   9.667  11.634   0.053 -1.0436 -0.1374 -2.7139
22495SOL     OW85476   5.902   6.107   6.340 -0.0217  0.0170 -0.1829
22495SOL    HW185477   5.809   6.128   6.347 -0.6552 -1.8364 -1.8264
22495SOL    HW285478   5.921   6.117   6.246  1.9886  2.2441  0.3774
22496SOL     OW85479   7.101   1.141  13.204 -0.3190  0.1103 -0.2951
22496SOL    HW185480   7.088   1.057  13.159 -1.3959  1.7648 -3.3716
22496SOL    HW285481   7.015   1.161  13.241  0.2620 -0.6785  1.5562
22497SOL     OW85482  10.642   5.626   2.595 -0.1995  0.0219 -0.1336
22497SOL    HW185483  10.613   5.717   2.582 -1.0380 -0.2854 -0.4665
22497SOL    HW285484  10.716   5.633   2.655  0.5621  1.0391 -1.1593
22498SOL     OW85485   3.486  13.233   5.294 -0.7306 -0.3196  0.7374
22498SOL    HW185486   3.522  13.272   5.215 -0.1724 -0.7621  0.7694
22498SOL    HW285487   3.491  13.302   5.360  1.0083 -0.6652  1.0135
22499SOL     OW85488   4.951   9.878  10.008  0.0590 -0.1538 -0.1990
22499SOL    HW185489   4.897   9.886   9.930  0.4552 -1.7031 -0.6514
22499SOL    HW285490   4.992   9.792  10.002  1.4204  0.3618  0.8774
22500SOL     OW85491   7.439  13.599   0.872  0.3360  0.4863  0.0878
22500SOL    HW185492   7.360  13.560   0.908 -1.3836  2.5199 -1.2634
22500SOL    HW285493   7.503  13.594   0.943 -1.3804 -0.0858  1.6537
22501SOL     OW85494  12.143  12.563   0.233  0.0858 -0.1290  0.0405
22501SOL    HW185495  12.126  12.646   0.188 -0.4017 -0.5278 -0.5361
22501SOL    HW285496  12.216  12.582   0.292  0.4283  0.5362 -0.5783
22502SOL     OW85497   1.125   6.231   1.681 -0.1966 -0.0292 -0.3638
22502SOL    HW185498   1.053   6.238   1.744 -0.8184  0.8207 -1.1367
22502SOL    HW285499   1.081   6.229   1.595  0.7058  0.9426 -0.8669
22503SOL     OW85500   7.591   9.694  13.032  0.0647  0.3016 -0.4191
22503SOL    HW185501   7.624   9.611  12.998  1.1099  1.1774 -1.6604
22503SOL    HW285502   7.630   9.701  13.119  0.3770 -0.2707 -0.5079
22504SOL     OW85503   0.157   1.582  11.061  0.4553 -0.5774 -0.2855
22504SOL    HW185504   0.210   1.651  11.020  0.3480  0.7491  1.6879
22504SOL    HW285505   0.067   1.612  11.052  0.5377  1.1868  3.1542
22505SOL     OW85506   0.003   0.078  13.102  0.1903 -0.2769  0.6058
22505SOL    HW185507  -0.089   0.102  13.086 -0.5378 -3.0412  0.1233
22505SOL    HW285508   0.023   0.014  13.034  2.5288  0.2652  0.7071
22506SOL     OW85509   0.128   8.601   7.510 -0.0951  0.3736 -0.5529
22506SOL    HW185510   0.218   8.597   7.543  0.4187  0.8748 -1.8180
22506SOL    HW285511   0.103   8.693   7.520 -0.3003  0.3251 -0.6230
22507SOL     OW85512  12.303   3.021   3.719 -0.2172  0.5937  0.1131
22507SOL    HW185513  12.267   2.973   3.645 -0.6674  1.9477 -0.5978
22507SOL    HW285514  12.228   3.036   3.777  0.1059 -0.3416  0.7904
22508SOL     OW85515   8.729   6.875   6.914  0.1520  0.2016  0.1300
22508SOL    HW185516   8.689   6.885   6.828 -0.2979 -0.7159  0.2294
22508SOL    HW285517   8.823   6.880   6.896  0.0770 -0.3997 -0.4749
22509SOL     OW85518   7.109   6.879   7.118 -0.2148 -0.2148  0.4217
22509SOL    HW185519   7.037   6.834   7.163 -1.2135  0.6321 -0.2659
22509SOL    HW285520   7.172   6.810   7.098 -1.7055 -1.3361 -0.6135
22510SOL     OW85521   0.881  13.853   1.054 -0.0175 -0.2266  0.1472
22510SOL    HW185522   0.899  13.889   1.140  1.8933  0.4005 -0.4585
22510SOL    HW285523   0.966  13.852   1.010 -0.9914 -0.1780 -1.8668
22511SOL     OW85524   4.122   6.013   2.595 -0.0038 -0.7329 -0.4651
22511SOL    HW185525   4.051   6.003   2.658 -1.0411 -0.0185 -1.5010
22511SOL    HW285526   4.147   6.105   2.602  1.2459 -1.1060  0.3119
22512SOL     OW85527   4.284   8.277  10.140  0.0605  1.2246 -0.1780
22512SOL    HW185528   4.269   8.269  10.046  1.5975 -0.9037 -0.3153
22512SOL    HW285529   4.212   8.229  10.180  0.0184  1.1623 -0.3270
22513SOL     OW85530   7.178   2.357   0.274  0.4300  0.3061 -0.6260
22513SOL    HW185531   7.143   2.430   0.223 -1.3942 -0.3659 -0.4023
22513SOL    HW285532   7.107   2.293   0.275  1.8894 -1.3723 -0.5973
22514SOL     OW85533  12.726   9.813   9.400  0.0265  0.3425  0.5367
22514SOL    HW185534  12.693   9.794   9.312  1.4019  0.4609 -0.0235
22514SOL    HW285535  12.647   9.833   9.451 -0.8797 -0.6083 -0.4265
22515SOL     OW85536  12.354   0.541   2.525  0.1341  0.0198 -0.2154
22515SOL    HW185537  12.382   0.633   2.523  0.1030  0.0415  0.3432
22515SOL    HW285538  12.405   0.501   2.595 -0.7099 -0.1010  0.3425
22516SOL     OW85539   7.985  10.035   4.082  0.0109  0.4679  0.1636
22516SOL    HW185540   7.907  10.080   4.050 -1.0181 -1.0276  0.4355
22516SOL    HW285541   7.960   9.942   4.083  0.4158  0.2207  3.8613
22517SOL     OW85542   0.500  11.515  12.800  0.3056 -0.5447  0.5855
22517SOL    HW185543   0.456  11.517  12.885 -1.9664 -2.9668 -0.3862
22517SOL    HW285544   0.546  11.431  12.798  1.2306 -0.0469 -0.2090
22518SOL     OW85545  12.638  12.130   5.457  0.1584 -0.0429 -0.4203
22518SOL    HW185546  12.598  12.181   5.387  0.6787 -0.1038 -0.7709
22518SOL    HW285547  12.725  12.108   5.423 -0.1706 -1.4186 -0.3930
22519SOL     OW85548   2.356   8.255   6.569 -0.1983  0.3663 -0.0892
22519SOL    HW185549   2.397   8.333   6.606 -0.6608  0.4664  0.2183
22519SOL    HW285550   2.353   8.193   6.642 -1.5563  0.7337  0.1846
22520SOL     OW85551   0.581   9.461  11.989  0.0515  0.4958  0.1052
22520SOL    HW185552   0.609   9.452  12.080 -0.2425  0.3777  0.1859
22520SOL    HW285553   0.530   9.542  11.987 -0.6890  0.0432  0.2393
22521SOL     OW85554   1.659   3.996   9.574 -0.0113 -0.4198  0.4086
22521SOL    HW185555   1.650   3.902   9.585 -1.1484 -0.5270 -1.1501
22521SOL    HW285556   1.570   4.030   9.580 -0.0112  0.1691 -1.9768
22522SOL     OW85557   5.194   8.089   9.918 -0.2253 -0.0549 -0.4577
22522SOL    HW185558   5.187   8.151   9.845  2.6364 -2.5146 -3.1611
22522SOL    HW285559   5.104   8.063   9.937 -1.1077 -0.0906 -3.9704
22523SOL     OW85560   3.605  12.957   3.734  0.3744 -0.7765  0.4666
22523SOL    HW185561   3.581  12.947   3.826 -0.4595 -0.1578  0.3233
22523SOL    HW285562   3.522  12.971   3.688  0.9122  0.5908 -0.1472
22524SOL     OW85563  10.783   6.910   2.658 -0.5474  0.2139  0.5442
22524SOL    HW185564  10.876   6.903   2.679  0.3129  0.3859 -2.5899
22524SOL    HW285565  10.763   7.003   2.669  0.3762  0.6446 -1.0784
22525SOL     OW85566   1.002   2.926   2.398 -0.6173 -0.7162  0.1947
22525SOL    HW185567   0.961   2.866   2.336 -1.0708 -1.9424  1.6279
22525SOL    HW285568   1.024   2.872   2.473  2.4192  0.1435  0.0827
22526SOL     OW85569   1.271  11.524   6.622  0.1615 -0.6067  0.2280
22526SOL    HW185570   1.358  11.519   6.663 -0.2874  0.4966  1.4135
22526SOL    HW285571   1.263  11.615   6.595 -0.5844 -0.7168  0.0550
22527SOL     OW85572   1.576  11.907   3.456  0.4147  0.3565  0.5351
22527SOL    HW185573   1.486  11.902   3.487  0.1769  0.2087 -0.1608
22527SOL    HW285574   1.614  11.822   3.478  0.5543  0.6132  1.3184
22528SOL     OW85575   8.101   2.717   8.467  0.6727  0.6985 -0.2997
22528SOL    HW185576   8.133   2.748   8.552  1.2818 -0.0046 -0.2677
22528SOL    HW285577   8.136   2.629   8.458 -0.3459  0.3185 -0.7700
22529SOL     OW85578   4.273  10.392   5.514  0.2152 -0.0691  0.5930
22529SOL    HW185579   4.348  10.451   5.525 -0.5415  0.5722  2.9027
22529SOL    HW285580   4.197  10.449   5.518 -0.4742 -0.7231 -1.6492
22530SOL     OW85581   3.632  13.751   7.299 -0.2228 -0.3168 -0.2977
22530SOL    HW185582   3.619  13.839   7.263  0.1883  0.7836  2.0459
22530SOL    HW285583   3.666  13.766   7.387  3.7602 -2.8232 -1.1277
22531SOL     OW85584   7.626   9.693   3.366  0.1911  0.2401  0.4689
22531SOL    HW185585   7.531   9.691   3.380  0.0346  0.9926 -0.3872
22531SOL    HW285586   7.650   9.602   3.349 -0.0714 -0.2458  2.4417
22532SOL     OW85587  10.793   3.699   4.030  0.0614 -0.2968 -0.1524
22532SOL    HW185588  10.771   3.614   4.067  0.0702  0.2691  1.1829
22532SOL    HW285589  10.875   3.683   3.982 -0.3528 -1.1970 -0.5970
22533SOL     OW85590   9.124  13.462   8.804 -0.3735  0.3448  0.1179
22533SOL    HW185591   9.139  13.481   8.712  1.8674 -1.7885 -0.0582
22533SOL    HW285592   9.174  13.529   8.851  2.3509 -1.1853 -0.3802
22534SOL     OW85593   6.565   4.845   2.094  0.4484 -0.4034 -0.1132
22534SOL    HW185594   6.575   4.849   1.999 -3.2011  1.1303 -0.6063
22534SOL    HW285595   6.505   4.773   2.109  1.2791 -0.8708  1.1348
22535SOL     OW85596   9.313  10.549  10.007  0.0663 -0.2985 -0.2644
22535SOL    HW185597   9.308  10.619   9.941  0.3866 -1.5779 -1.6942
22535SOL    HW285598   9.223  10.540  10.040 -0.0119  0.6455 -0.1883
22536SOL     OW85599   4.560   5.018   0.410  0.3639  0.2463 -0.2056
22536SOL    HW185600   4.510   5.097   0.430 -0.5690 -0.3890  0.0747
22536SOL    HW285601   4.563   4.971   0.494 -0.1342 -0.5668 -0.6285
22537SOL     OW85602   8.053   2.549   1.523 -0.2129  0.3508  0.2005
22537SOL    HW185603   7.981   2.488   1.508 -0.4823  0.5697  0.5629
22537SOL    HW285604   8.113   2.535   1.451  0.5393 -1.5203  1.1426
22538SOL     OW85605   1.337  12.655   9.899 -0.3728 -0.6141  0.5710
22538SOL    HW185606   1.432  12.640   9.900  0.1302  1.9432 -0.1905
22538SOL    HW285607   1.316  12.681   9.989 -0.0238  0.3069  0.4019
22539SOL     OW85608   9.555   3.019  12.134  0.7819 -0.1295 -0.2763
22539SOL    HW185609   9.537   2.934  12.094 -0.0080  0.2359 -0.7306
22539SOL    HW285610   9.476   3.038  12.185  0.2883  1.0327 -1.4294
22540SOL     OW85611  12.064   4.512   8.940 -0.2361  0.1014  0.4359
22540SOL    HW185612  12.066   4.521   8.845  0.3264 -0.0053  0.4367
22540SOL    HW285613  12.011   4.586   8.970 -2.5526 -1.2121 -0.1225
22541SOL     OW85614  14.000  11.908   3.635  0.1037 -0.1497  0.5944
22541SOL    HW185615  14.077  11.961   3.618 -0.4767  0.9131  1.1889
22541SOL    HW285616  13.972  11.934   3.723 -1.8753  0.7223 -0.2324
22542SOL     OW85617  13.570   1.762   8.265  0.6628 -0.0075 -0.2475
22542SOL    HW185618  13.636   1.701   8.297 -0.3053 -1.2174 -0.4762
22542SOL    HW285619  13.489   1.734   8.309  0.4722  2.1115  0.8845
22543SOL     OW85620   0.708   3.414   7.102 -0.7085 -0.3541  0.3049
22543SOL    HW185621   0.697   3.500   7.061  0.8000 -0.9076 -1.3691
22543SOL    HW285622   0.633   3.363   7.071  1.0982 -1.2030 -3.1467
22544SOL     OW85623   1.007  10.412  11.707 -0.3145 -0.4276 -0.1701
22544SOL    HW185624   1.040  10.465  11.780 -0.0842  0.4883 -0.9239
22544SOL    HW285625   1.079  10.352  11.688  0.6973  1.0599 -1.3107
22545SOL     OW85626  12.525  12.061   4.456  0.1474  0.1334  0.0943
22545SOL    HW185627  12.478  12.103   4.383  0.0878  0.9754  0.6075
22545SOL    HW285628  12.456  12.020   4.508  0.0888  0.4138  0.2382
22546SOL     OW85629   3.704   3.063   3.896  0.1365 -0.5012  0.0327
22546SOL    HW185630   3.615   3.085   3.869  0.1874 -0.5876 -0.2146
22546SOL    HW285631   3.695   3.029   3.985 -0.2693 -1.8635 -0.5008
22547SOL     OW85632   1.988   0.674   7.170 -0.0694 -0.1501  0.2062
22547SOL    HW185633   1.924   0.741   7.146  1.4071  1.4804  0.6246
22547SOL    HW285634   2.025   0.645   7.086  1.2746  1.6554  0.1163
22548SOL     OW85635  12.546   3.670  14.006  0.3272  0.0870  0.1902
22548SOL    HW185636  12.573   3.583  14.035  1.3592 -0.2254 -1.5785
22548SOL    HW285637  12.483   3.653  13.936  1.1175  0.7295 -0.6995
22549SOL     OW85638   3.938   8.880   4.110  0.2636 -0.0737 -0.3100
22549SOL    HW185639   3.887   8.960   4.126 -0.6849 -0.4544 -1.2431
22549SOL    HW285640   3.940   8.836   4.194 -0.0954  0.4409 -0.0207
22550SOL     OW85641   2.695   7.716  13.746 -0.2247 -0.7122 -0.0334
22550SOL    HW185642   2.610   7.679  13.768 -0.9780  0.7080 -0.4236
22550SOL    HW285643   2.740   7.726  13.829 -1.0363 -0.0890  0.3375
22551SOL     OW85644  13.462  11.787   1.158 -0.5185 -0.0013 -0.7038
22551SOL    HW185645  13.434  11.819   1.073  1.2193 -1.0871 -1.7461
22551SOL    HW285646  13.511  11.707   1.139  1.8252  0.8901  1.0739
22552SOL     OW85647   5.997   0.224  13.006 -0.2608  0.4583  0.1830
22552SOL    HW185648   6.089   0.199  13.001 -0.3598 -0.0350  0.7151
22552SOL    HW285649   5.991   0.281  13.082 -0.7062 -1.0139  1.3049
22553SOL     OW85650   8.801   3.624   7.078 -0.3096  0.1210 -0.0533
22553SOL    HW185651   8.853   3.559   7.031  1.7019  1.2946  0.3934
22553SOL    HW285652   8.723   3.577   7.107 -0.0098 -1.4670 -1.6846
22554SOL     OW85653  12.059   5.663   2.963 -0.2253  0.1653  0.4636
22554SOL    HW185654  11.988   5.604   2.936  0.3946  0.7080 -2.7196
22554SOL    HW285655  12.139   5.614   2.946  0.2912  0.1061  2.6744
22555SOL     OW85656   2.326   0.739   9.287  0.5744  0.5464 -0.2768
22555SOL    HW185657   2.278   0.811   9.327 -1.4667  0.1439 -1.8709
22555SOL    HW285658   2.306   0.663   9.341  0.5391  0.6474 -0.1473
22556SOL     OW85659   4.263  11.996   1.783 -0.2426 -0.5818 -0.6171
22556SOL    HW185660   4.223  11.921   1.826  1.7419 -1.6647 -0.5100
22556SOL    HW285661   4.332  11.959   1.728 -0.4493  1.0421 -2.0824
22557SOL     OW85662   8.826  10.165  10.697 -0.1690 -0.0280  0.1390
22557SOL    HW185663   8.861  10.253  10.714 -0.3808  0.0085  0.4023
22557SOL    HW285664   8.902  10.113  10.672 -0.3129  0.7316 -2.1031
22558SOL     OW85665   1.062  11.503   6.169 -0.2378 -0.9629  0.1020
22558SOL    HW185666   1.156  11.510   6.183 -0.2689 -0.3704  0.0404
22558SOL    HW285667   1.054  11.480   6.076 -0.1556 -1.0839  0.1234
22559SOL     OW85668   0.223   8.107   4.467 -0.0950  0.1653 -0.2184
22559SOL    HW185669   0.180   8.146   4.390 -2.3197 -0.0048  0.8563
22559SOL    HW285670   0.161   8.121   4.538  1.8418  0.1813  1.5497
22560SOL     OW85671   0.231  12.399  12.818  0.5897  0.1258  0.1119
22560SOL    HW185672   0.209  12.399  12.725  0.0952  1.6179  0.1990
22560SOL    HW285673   0.206  12.312  12.849 -2.4028  0.6623 -0.4615
22561SOL     OW85674   4.527   9.036  12.980  0.5855  0.4559 -0.1546
22561SOL    HW185675   4.554   9.087  13.056 -0.4510  2.9461 -1.3213
22561SOL    HW285676   4.559   9.087  12.905 -1.4081 -0.0525 -1.4198
22562SOL     OW85677  11.614   4.186  12.490 -0.1866 -0.1899  0.0664
22562SOL    HW185678  11.562   4.108  12.475 -0.7297  0.3487 -0.9614
22562SOL    HW285679  11.552   4.259  12.481  0.0269  0.3467  2.2407
22563SOL     OW85680   4.859   8.370   0.108 -0.3091 -0.2354 -0.5301
22563SOL    HW185681   4.901   8.285   0.121 -0.7750 -0.2598  1.0146
22563SOL    HW285682   4.806   8.383   0.186 -0.8272  1.1584 -1.0733
22564SOL     OW85683   3.123  10.644  13.220 -0.1496 -0.2500 -0.3848
22564SOL    HW185684   3.037  10.605  13.206 -1.0575  1.5508 -0.1905
22564SOL    HW285685   3.135  10.641  13.315  0.6868 -1.7830 -0.5032
22565SOL     OW85686   1.704  13.217  13.763  0.5222  0.0724  0.4559
22565SOL    HW185687   1.642  13.276  13.804 -0.3678 -2.2694  2.7425
22565SOL    HW285688   1.653  13.171  13.695  1.5874  2.7835 -2.4163
22566SOL     OW85689  13.807   0.943  11.608 -0.3535  0.0358 -0.4031
22566SOL    HW185690  13.886   0.905  11.568  0.1329 -0.7455  1.2114
22566SOL    HW285691  13.840   1.016  11.660 -0.6989 -0.2010  0.1614
22567SOL     OW85692   8.921   5.512   4.734 -0.1054  0.5061  0.3379
22567SOL    HW185693   9.012   5.484   4.723 -0.1986  0.6558 -0.9691
22567SOL    HW285694   8.922   5.566   4.813  1.1278  1.2477 -0.1516
22568SOL     OW85695  10.068   5.396   4.364  0.1718 -0.5504  0.0165
22568SOL    HW185696  10.014   5.460   4.410 -0.5112 -0.0626 -1.4252
22568SOL    HW285697  10.144   5.384   4.421 -0.5192  0.2185  1.1373
22569SOL     OW85698   5.872   8.753  13.238  0.3917  0.1729  0.1401
22569SOL    HW185699   5.892   8.756  13.331  2.0410 -0.9346 -0.1212
22569SOL    HW285700   5.956   8.732  13.197 -0.0881  1.5898 -1.6892
22570SOL     OW85701   6.316  13.286  11.201 -0.5733  0.2864 -0.4622
22570SOL    HW185702   6.387  13.224  11.220 -0.9273 -0.6611 -1.9779
22570SOL    HW285703   6.243  13.256  11.256  0.5679  2.2346  2.3383
22571SOL     OW85704   7.627  12.587  10.469  0.7745  0.3587  0.6310
22571SOL    HW185705   7.684  12.623  10.537  1.3290  1.4072 -0.3706
22571SOL    HW285706   7.586  12.663  10.429  0.8540 -0.2162 -0.5739
22572SOL     OW85707  10.885   4.794   0.824  0.2756  0.2297  0.2831
22572SOL    HW185708  10.822   4.749   0.767  2.1054 -0.0825 -1.6026
22572SOL    HW285709  10.862   4.764   0.912 -1.1492 -1.1680 -0.5049
22573SOL     OW85710  10.356  12.609   9.894  0.6445  0.2113 -0.0982
22573SOL    HW185711  10.268  12.609   9.932  1.3549  1.0087  1.6573
22573SOL    HW285712  10.342  12.632   9.802 -1.4828 -4.7931 -1.3889
22574SOL     OW85713   2.209  12.093   4.599  0.8552  0.7219 -0.1695
22574SOL    HW185714   2.280  12.155   4.585  1.1014  0.9741  1.8505
22574SOL    HW285715   2.252  12.009   4.617  0.5673  0.3347 -1.2464
22575SOL     OW85716   0.292   7.989   2.906 -0.2197  0.0908  0.8111
22575SOL    HW185717   0.295   7.958   2.816 -0.6308  0.5932  0.6146
22575SOL    HW285718   0.341   8.071   2.905  0.7590 -0.4734  1.2971
22576SOL     OW85719   7.641   3.237  12.589 -0.2924 -0.0135  0.3898
22576SOL    HW185720   7.630   3.300  12.661 -0.8765 -0.9427  1.1366
22576SOL    HW285721   7.735   3.238  12.571 -0.3018  1.1673  0.2821
22577SOL     OW85722   4.820   9.091   6.426 -0.4972  0.2930  0.7992
22577SOL    HW185723   4.828   9.167   6.483 -0.2253  0.8961 -0.0279
22577SOL    HW285724   4.731   9.097   6.390 -0.1551  0.7358  0.0200
22578SOL     OW85725   4.897   7.712  10.835  0.1513 -0.2317 -0.6746
22578SOL    HW185726   4.959   7.780  10.807  0.7707 -0.9278 -1.0498
22578SOL    HW285727   4.952   7.634  10.846 -0.1046 -0.1169  2.1357
22579SOL     OW85728  11.729   4.968   4.737 -0.3063  1.3126 -0.3265
22579SOL    HW185729  11.734   4.894   4.675 -0.3790  0.8462  0.2144
22579SOL    HW285730  11.688   5.038   4.686  0.1252  1.1103 -0.9684
22580SOL     OW85731  13.779   8.566   4.992 -1.0226 -0.8687  0.5618
22580SOL    HW185732  13.686   8.565   5.014 -1.2190 -1.0494 -0.2557
22580SOL    HW285733  13.793   8.651   4.951 -1.0823 -1.2836 -0.3416
22581SOL     OW85734  13.017   2.769  10.931  0.5294 -0.0883 -0.0785
22581SOL    HW185735  13.102   2.794  10.966  0.0938  1.1021  0.2028
22581SOL    HW285736  12.954   2.805  10.994 -0.2020 -0.2610 -0.6897
22582SOL     OW85737   5.449   6.046   1.883 -0.4335 -0.0292  0.2005
22582SOL    HW185738   5.357   6.057   1.859 -0.3045  1.7545  0.4309
22582SOL    HW285739   5.496   6.111   1.831  0.5752 -0.2234  0.8427
22583SOL     OW85740   8.639   9.084   0.077 -0.0626  0.2987  0.0868
22583SOL    HW185741   8.691   9.159   0.105  1.2269 -0.0160 -1.2905
22583SOL    HW285742   8.579   9.067   0.149  0.8736  1.5006  1.1922
22584SOL     OW85743   3.792   2.340   8.951  0.4708 -0.5852  0.1027
22584SOL    HW185744   3.713   2.348   9.004 -0.3016  1.6622 -1.2413
22584SOL    HW285745   3.843   2.419   8.970  1.2568 -0.8484 -0.7892
22585SOL     OW85746   0.387   6.120   2.751  0.4481 -0.1566 -0.0967
22585SOL    HW185747   0.396   6.024   2.748  0.4490 -0.1784  0.5037
22585SOL    HW285748   0.408   6.143   2.842 -1.2398  0.2316  0.2324
22586SOL     OW85749   9.128   5.983   6.977  0.0644 -0.2892 -0.2281
22586SOL    HW185750   9.165   6.053   6.924 -1.8488  1.8513  1.0964
22586SOL    HW285751   9.192   5.967   7.045  1.0264 -0.7056 -1.1965
22587SOL     OW85752   4.434   5.804   4.264 -0.0255  0.3167  0.6353
22587SOL    HW185753   4.341   5.789   4.278  0.2948 -2.7353  0.0991
22587SOL    HW285754   4.469   5.719   4.240  2.6731  1.6707 -0.6673
22588SOL     OW85755  13.054   4.538   0.867  0.1679  0.0254 -0.7029
22588SOL    HW185756  13.068   4.566   0.957 -1.4026  1.0301 -0.7232
22588SOL    HW285757  12.967   4.499   0.867 -0.1686  0.7162 -1.9124
22589SOL     OW85758  11.436  12.952  11.977 -0.6098 -0.2706  0.0089
22589SOL    HW185759  11.345  12.923  11.977 -0.4853 -0.7223  1.0586
22589SOL    HW285760  11.448  12.991  12.064 -0.5242  2.2202 -1.0273
22590SOL     OW85761  10.848   8.482   7.729 -0.0618 -0.2970  0.2663
22590SOL    HW185762  10.939   8.456   7.739  0.2162  0.8573  0.9542
22590SOL    HW285763  10.853   8.573   7.699 -0.9764 -0.8852 -1.8635
22591SOL     OW85764  10.273   9.248  12.521  0.2210 -0.5273 -0.3050
22591SOL    HW185765  10.341   9.312  12.500  0.8207 -0.9826  0.1937
22591SOL    HW285766  10.195   9.281  12.477  0.2592  1.0798  0.7719
22592SOL     OW85767  12.241  12.021  13.100  0.3629 -0.7268 -0.2788
22592SOL    HW185768  12.273  11.952  13.042 -2.5173 -0.9822 -1.7659
22592SOL    HW285769  12.204  12.087  13.040  0.3286  0.6608  1.1988
22593SOL     OW85770   0.899   3.508   6.825 -0.0467 -0.2561  0.1203
22593SOL    HW185771   0.842   3.460   6.886  0.6054 -1.7975 -0.4261
22593SOL    HW285772   0.863   3.486   6.739  0.0967  0.4958 -0.1309
22594SOL     OW85773   8.510   3.570   2.908 -0.4782 -0.3953  0.3041
22594SOL    HW185774   8.521   3.585   2.814  2.1787  3.4987  0.9969
22594SOL    HW285775   8.584   3.616   2.948 -1.7465 -1.5082  4.3622
22595SOL     OW85776  12.357  12.817  12.627  0.1574 -0.3934  0.1537
22595SOL    HW185777  12.387  12.902  12.595  1.1629 -0.4342  0.9215
22595SOL    HW285778  12.262  12.820  12.617  0.2723  0.3397 -0.9639
22596SOL     OW85779  13.533  13.092   8.192  0.0670 -0.1806 -0.3707
22596SOL    HW185780  13.468  13.037   8.235  1.4620 -1.3106  0.3735
22596SOL    HW285781  13.612  13.039   8.190  1.3775  1.6423 -0.0118
22597SOL     OW85782   5.715   3.880   7.344 -0.2587  0.0569 -0.1021
22597SOL    HW185783   5.735   3.973   7.331  0.9254 -0.2606 -0.7230
22597SOL    HW285784   5.771   3.854   7.418 -1.2519  0.0359  0.6549
22598SOL     OW85785   3.268   5.276   0.242 -0.3916 -0.2354 -0.3601
22598SOL    HW185786   3.296   5.223   0.168 -0.0260 -2.0967  1.0249
22598SOL    HW285787   3.201   5.334   0.206  1.4324  0.6118 -2.6217
22599SOL     OW85788  10.829   9.543   1.849  0.5421  0.3554 -0.3194
22599SOL    HW185789  10.834   9.523   1.756 -0.9896 -0.7511 -0.1954
22599SOL    HW285790  10.742   9.581   1.861 -0.3392 -1.9022  1.0419
22600SOL     OW85791   8.325   0.134   9.202 -0.1386 -0.0159  0.1940
22600SOL    HW185792   8.337   0.215   9.152  1.1986 -0.8118 -0.8538
22600SOL    HW285793   8.293   0.162   9.287 -0.2449  1.5674 -0.3386
22601SOL     OW85794   5.312   3.738  12.541  0.0340  0.0245 -0.1270
22601SOL    HW185795   5.402   3.763  12.564  0.4060  0.0921 -1.5494
22601SOL    HW285796   5.322   3.658  12.489 -0.8446 -0.6919  0.7521
22602SOL     OW85797   2.921   7.017   1.648 -0.4550  0.2909 -0.1284
22602SOL    HW185798   2.883   7.012   1.560  0.6152  0.5700 -0.6248
22602SOL    HW285799   2.911   7.108   1.674  2.6217  1.2133 -1.6003
22603SOL     OW85800   8.421   7.868   0.994  0.1186  0.1717 -0.4262
22603SOL    HW185801   8.468   7.797   0.951 -0.2592  0.1789 -0.8529
22603SOL    HW285802   8.489   7.916   1.043  0.4790 -0.0765 -0.6824
22604SOL     OW85803  13.811   2.181  13.989  0.6856  0.0282  0.4594
22604SOL    HW185804  13.718   2.205  13.996  0.3803 -1.4701  2.2392
22604SOL    HW285805  13.839   2.219  13.905 -1.2415  1.4129  0.3733
22605SOL     OW85806   3.710   6.406   2.468 -0.7665  0.6298 -0.4054
22605SOL    HW185807   3.713   6.428   2.375  1.4849 -0.6637 -0.7164
22605SOL    HW285808   3.792   6.440   2.504 -1.1190  0.1943  0.8983
22606SOL     OW85809  12.654  12.601   1.836 -0.1081 -0.5095  0.3815
22606SOL    HW185810  12.685  12.688   1.810  2.7010 -1.6968 -0.6312
22606SOL    HW285811  12.636  12.608   1.929  1.8536  0.7426  0.7233
22607SOL     OW85812   3.068   9.494   4.084 -0.2826  0.7780  0.4335
22607SOL    HW185813   3.099   9.428   4.146  0.2229 -0.2015 -0.8040
22607SOL    HW285814   3.148   9.538   4.055 -0.6578  2.2609  1.5663
22608SOL     OW85815   8.313  14.120  12.684  0.2500 -0.4107  0.3802
22608SOL    HW185816   8.359  14.177  12.623  0.2018 -0.0589  0.6691
22608SOL    HW285817   8.379  14.096  12.749  0.3917 -1.0713 -0.0044
22609SOL     OW85818   2.901   2.713  13.392 -0.1127  0.1524  0.8067
22609SOL    HW185819   2.946   2.675  13.317 -1.4686  0.5574 -0.2624
22609SOL    HW285820   2.937   2.802  13.399 -2.0415  1.2256 -1.3323
22610SOL     OW85821  11.738   4.053   3.581 -0.1617 -0.2347 -0.0174
22610SOL    HW185822  11.668   4.014   3.527  0.0704 -0.2320 -0.3205
22610SOL    HW285823  11.800   4.089   3.517 -0.9168  1.6568  0.2443
22611SOL     OW85824   7.617   6.777  10.149  0.0649  0.1368 -0.1747
22611SOL    HW185825   7.623   6.840  10.077  3.2734 -0.1747 -0.3146
22611SOL    HW285826   7.632   6.829  10.228 -4.0751  0.5933  0.5170
22612SOL     OW85827   3.936   6.836  13.979 -0.5214 -0.7881 -0.8968
22612SOL    HW185828   4.021   6.834  14.025 -0.3116 -1.1152 -1.2917
22612SOL    HW285829   3.881   6.775  14.028 -0.8176  0.0812 -0.1046
22613SOL     OW85830   7.243  11.828   8.753 -0.5134 -0.4077  0.4186
22613SOL    HW185831   7.257  11.882   8.674  0.3830  0.7749  1.3339
22613SOL    HW285832   7.212  11.744   8.720  0.3567 -0.1236 -1.2411
22614SOL     OW85833   3.883  14.097   5.441 -0.1036 -0.3532  0.3449
22614SOL    HW185834   3.851  14.183   5.470 -0.5031 -1.3646  3.2311
22614SOL    HW285835   3.979  14.105   5.446 -0.0970  0.2519 -0.5433
22615SOL     OW85836   1.292  13.924   2.273  0.3073  0.0623  0.3887
22615SOL    HW185837   1.234  13.916   2.197  1.6585 -1.5484 -0.5551
22615SOL    HW285838   1.350  13.997   2.252  0.5691 -0.2731 -0.0862
22616SOL     OW85839   0.773   8.787   3.741 -0.1372 -0.7065  0.0529
22616SOL    HW185840   0.746   8.705   3.783  0.9458 -2.3919 -2.2852
22616SOL    HW285841   0.854   8.811   3.786 -0.2291 -1.1670  0.4725
22617SOL     OW85842   8.738   5.371   2.835  0.1532 -0.1784  0.1328
22617SOL    HW185843   8.791   5.325   2.900  0.0368 -0.8683 -0.2595
22617SOL    HW285844   8.677   5.305   2.802  0.2260  0.1639 -0.6933
22618SOL     OW85845  12.650   7.652   1.970  0.0616 -0.1072  0.1049
22618SOL    HW185846  12.628   7.611   2.053  1.6810 -3.1146 -0.7900
22618SOL    HW285847  12.565   7.669   1.928 -0.7554 -2.1565  0.7972
22619SOL     OW85848   5.144  13.076  12.838 -0.2180 -0.0843 -0.3200
22619SOL    HW185849   5.201  13.094  12.913 -0.5733  0.0435 -0.0796
22619SOL    HW285850   5.200  13.094  12.762  0.2143 -0.4407 -0.0913
22620SOL     OW85851  12.201   0.760  10.598 -0.2040 -0.1419 -0.0634
22620SOL    HW185852  12.281   0.807  10.622 -0.2389  0.9643 -1.9583
22620SOL    HW285853  12.231   0.679  10.559 -0.0040  0.0831 -0.3813
22621SOL     OW85854   2.293   1.989  11.557  0.0580  0.7639  0.7325
22621SOL    HW185855   2.202   2.016  11.542  0.2624  0.7165 -0.6567
22621SOL    HW285856   2.344   2.068  11.541  0.3762  0.4341  0.1080
22622SOL     OW85857  13.641  13.508   3.329 -0.0773 -0.3360  0.2526
22622SOL    HW185858  13.689  13.587   3.304  2.5883 -1.2714  1.9625
22622SOL    HW285859  13.682  13.438   3.278 -1.8036 -0.7920 -0.5781
22623SOL     OW85860   5.479   0.503   1.995 -0.2748 -0.2526  0.3600
22623SOL    HW185861   5.472   0.408   1.997 -0.5736 -0.2663 -0.5119
22623SOL    HW285862   5.431   0.528   1.915 -0.0210  0.6065  0.4684
22624SOL     OW85863  12.743   2.079   0.201 -0.1285 -0.1684 -0.0401
22624SOL    HW185864  12.777   2.044   0.118  1.3216 -1.9795  1.2330
22624SOL    HW285865  12.651   2.100   0.182  0.0396 -0.9354 -1.9861
22625SOL     OW85866  13.572   6.479   6.397  0.5103  0.2660  0.0757
22625SOL    HW185867  13.604   6.554   6.448 -0.0449 -0.5353  1.6420
22625SOL    HW285868  13.482   6.503   6.374  0.7665  0.6343 -0.5953
22626SOL     OW85869  11.588   9.885  11.227 -0.7101  0.0868  0.3912
22626SOL    HW185870  11.679   9.915  11.237 -1.0836  0.9984  1.1276
22626SOL    HW285871  11.537   9.942  11.284 -1.5267 -1.6427  1.4739
22627SOL     OW85872   5.088   0.352   0.379 -0.2194  0.0979  0.4583
22627SOL    HW185873   5.167   0.307   0.352  1.0782  2.1812  0.5589
22627SOL    HW285874   5.022   0.325   0.315  1.3107  0.4475 -1.3611
22628SOL     OW85875   3.737   6.446  13.306 -0.3947 -0.0560  0.2785
22628SOL    HW185876   3.664   6.507  13.318  0.4319  0.8931  0.5570
22628SOL    HW285877   3.766   6.460  13.216 -0.4145 -0.2859  0.2348
22629SOL     OW85878   1.332   0.351  13.036  0.2406 -0.1889  0.0479
22629SOL    HW185879   1.292   0.275  13.079 -0.1397  0.1818  0.3569
22629SOL    HW285880   1.258   0.405  13.008  0.4843 -0.3720 -0.9861
22630SOL     OW85881   1.207   1.876   6.016 -0.1594 -0.1600  0.5305
22630SOL    HW185882   1.209   1.820   6.093  0.4233 -1.4538 -0.3792
22630SOL    HW285883   1.246   1.822   5.946 -1.4763  0.6343 -0.8736
22631SOL     OW85884  11.616   8.551  10.553  0.5067 -0.3322  0.3519
22631SOL    HW185885  11.636   8.509  10.470  1.0509 -0.7156  0.6729
22631SOL    HW285886  11.533   8.513  10.580  0.2553 -0.1014 -0.0766
22632SOL     OW85887   7.932   6.893   0.888  0.0933  0.3000  0.5438
22632SOL    HW185888   7.856   6.935   0.928 -0.1292  1.1406 -0.7228
22632SOL    HW285889   7.966   6.958   0.827  0.2096 -1.0695 -0.8950
22633SOL     OW85890   5.298   9.270   6.450 -0.5553 -0.3868 -0.1224
22633SOL    HW185891   5.320   9.306   6.364  0.2088 -1.1165 -0.2449
22633SOL    HW285892   5.280   9.177   6.434  1.7202 -1.0585  0.7729
22634SOL     OW85893   9.110  11.247  14.038 -0.9142 -0.3884 -0.2562
22634SOL    HW185894   9.065  11.172  14.076 -0.6949  0.9933  3.1502
22634SOL    HW285895   9.052  11.321  14.055  1.1374  0.9636  1.4881
22635SOL     OW85896   2.392  13.087   8.010  0.1112 -0.4129  0.2110
22635SOL    HW185897   2.412  12.994   8.009 -0.3840 -0.5312  0.6454
22635SOL    HW285898   2.360  13.106   7.922 -0.2209 -0.7558  0.2534
22636SOL     OW85899   1.813   1.110   7.210  0.2070 -0.7090  0.4681
22636SOL    HW185900   1.844   1.023   7.185 -1.0278 -0.9658 -0.2665
22636SOL    HW285901   1.749   1.094   7.280 -0.9765 -0.5478 -0.5254
22637SOL     OW85902   0.821  11.274  10.877  0.2225 -0.3214  0.0545
22637SOL    HW185903   0.837  11.365  10.850  1.6604 -0.3327  0.7621
22637SOL    HW285904   0.878  11.222  10.821 -0.8943 -0.8381 -0.6176
22638SOL     OW85905   0.986   5.457  10.208  0.2387  0.3631  0.2452
22638SOL    HW185906   0.974   5.546  10.242  0.7518  0.9885 -1.1672
22638SOL    HW285907   0.897   5.423  10.200  0.0260  0.8127  0.6013
22639SOL     OW85908   8.552   5.045   6.064  0.2218  0.0161  0.2197
22639SOL    HW185909   8.586   5.004   6.144 -0.4287 -0.4887  0.2435
22639SOL    HW285910   8.564   4.978   5.996  0.5128  0.3406 -0.0535
22640SOL     OW85911   9.213   3.834   3.558  0.4126  0.0115  0.0187
22640SOL    HW185912   9.268   3.911   3.543  0.4694 -0.0145  0.0883
22640SOL    HW285913   9.161   3.856   3.635 -0.2010  0.3215 -0.4759
22641SOL     OW85914   0.019   2.449   0.895  0.1277 -0.6345 -0.0789
22641SOL    HW185915  -0.050   2.408   0.844  0.3217 -1.1369  0.0592
22641SOL    HW285916  -0.024   2.522   0.939 -0.3584 -1.0550  0.1555
22642SOL     OW85917   2.252   3.360  10.156  0.0802  0.1444  0.7728
22642SOL    HW185918   2.161   3.362  10.129  0.2407  0.8342  0.2536
22642SOL    HW285919   2.302   3.375  10.075  0.7173 -1.5943  0.7903
22643SOL     OW85920   3.638   1.563  11.556  0.3892 -0.5344 -0.0412
22643SOL    HW185921   3.638   1.614  11.638 -2.4249 -2.8626  1.6144
22643SOL    HW285922   3.731   1.549  11.537  1.1713  1.2944  1.9544
22644SOL     OW85923   8.259  11.238  10.085 -0.2611  0.1144  0.4150
22644SOL    HW185924   8.319  11.218  10.013  0.1085  0.9941  0.4726
22644SOL    HW285925   8.193  11.295  10.046 -0.4661  0.0146  0.6124
22645SOL     OW85926  14.146   7.323  12.389  0.0308  0.3434 -0.0489
22645SOL    HW185927  14.097   7.309  12.470 -1.1293  1.1459 -0.5898
22645SOL    HW285928  14.237   7.332  12.418 -0.4011  0.9311  1.2054
22646SOL     OW85929   9.226  13.646   3.190 -0.1542 -0.1866 -0.4868
22646SOL    HW185930   9.228  13.741   3.201 -3.0625 -0.1987  1.3755
22646SOL    HW285931   9.302  13.614   3.239  0.5496  1.1274 -0.6899
22647SOL     OW85932  11.452   4.475  10.889  0.0672  0.0596  0.3807
22647SOL    HW185933  11.417   4.395  10.927 -0.3038 -0.1164 -0.3070
22647SOL    HW285934  11.532   4.448  10.843 -0.5645 -0.1094 -0.6613
22648SOL     OW85935   0.763  12.528   3.943 -0.3195  0.1920 -0.2802
22648SOL    HW185936   0.691  12.590   3.926 -1.1782 -0.7719 -0.2342
22648SOL    HW285937   0.840  12.571   3.906 -0.9964  1.0434 -0.7527
22649SOL     OW85938   7.354  11.633   3.623  0.1901  0.3018 -0.2414
22649SOL    HW185939   7.413  11.706   3.637 -1.3481  1.2607  1.6067
22649SOL    HW285940   7.406  11.555   3.646  1.7921  0.7400 -2.1068
22650SOL     OW85941  12.070   4.391   7.155  0.1520  0.4752 -0.4933
22650SOL    HW185942  11.975   4.397   7.164  0.1834  0.5619 -0.2256
22650SOL    HW285943  12.084   4.309   7.108 -0.1608  1.4416 -2.3853
22651SOL     OW85944  12.313  11.283  12.493  0.8317  0.0399  0.0539
22651SOL    HW185945  12.381  11.351  12.493 -0.3671  1.2844  0.6766
22651SOL    HW285946  12.232  11.331  12.474  0.0915 -1.3933 -0.5341
22652SOL     OW85947  13.721   1.356  11.745  0.0474 -0.5199 -0.4020
22652SOL    HW185948  13.684   1.383  11.661 -1.1801 -2.8060 -0.6882
22652SOL    HW285949  13.753   1.267  11.730 -0.4481 -1.1030  1.6080
22653SOL     OW85950   4.623   8.701   7.899  0.2574 -0.4650 -0.3023
22653SOL    HW185951   4.684   8.676   7.968  0.9955  0.6418 -0.5423
22653SOL    HW285952   4.536   8.683   7.937  0.6435  0.2650  0.9730
22654SOL     OW85953   6.739  13.067  13.707  0.8595  0.8787  0.2179
22654SOL    HW185954   6.778  13.144  13.664 -2.4674  1.7649 -1.5674
22654SOL    HW285955   6.695  13.103  13.784 -0.1027  0.7085 -0.2336
22655SOL     OW85956  11.520   8.245  12.567 -0.0418 -0.3198 -0.0333
22655SOL    HW185957  11.504   8.215  12.657  0.7858 -0.5321  0.0480
22655SOL    HW285958  11.455   8.198  12.515 -0.4749 -0.2611  0.4405
22656SOL     OW85959   5.059   5.097  13.562 -1.0932  0.0774 -0.2965
22656SOL    HW185960   5.071   5.122  13.653 -0.3415 -0.8252 -0.1303
22656SOL    HW285961   5.148   5.084  13.528 -1.3163 -3.8320  0.1105
22657SOL     OW85962  14.110   9.631   9.353 -0.5792  0.4524  0.1140
22657SOL    HW185963  14.144   9.669   9.272 -0.6631  0.7451  0.2138
22657SOL    HW285964  14.188   9.605   9.402 -0.5471 -0.4529 -0.3978
22658SOL     OW85965   6.655  13.243   3.557 -0.2433  0.0489 -0.9533
22658SOL    HW185966   6.576  13.217   3.509  0.2512 -1.3728 -1.0268
22658SOL    HW285967   6.726  13.231   3.495  0.4358 -2.0238  0.1184
22659SOL     OW85968   0.009   8.066   2.481 -0.1256 -0.4609 -0.2775
22659SOL    HW185969  -0.022   8.069   2.572 -0.7328  0.7813 -0.5052
22659SOL    HW285970  -0.064   8.028   2.432 -0.1044 -0.3987 -0.3577
22660SOL     OW85971   9.628   6.837   1.061  0.4415  0.3453  0.2409
22660SOL    HW185972   9.721   6.836   1.039  0.9717 -0.1363  2.2750
22660SOL    HW285973   9.624   6.883   1.145 -1.4072  2.0226 -0.6524
22661SOL     OW85974   1.583   9.968   0.337  0.2448  0.0844 -0.3278
22661SOL    HW185975   1.554   9.879   0.359  0.4850  0.1596  0.3063
22661SOL    HW285976   1.502  10.020   0.337 -0.0975 -0.3649 -1.9928
22662SOL     OW85977   8.693   0.938   5.744 -0.5355  0.4197  0.0913
22662SOL    HW185978   8.661   0.850   5.762  0.2356  0.3417  1.1197
22662SOL    HW285979   8.640   0.967   5.669  0.8949 -1.8391 -1.9770
22663SOL     OW85980  13.345   8.597  13.360  0.0741  0.3461  0.1901
22663SOL    HW185981  13.341   8.689  13.384 -1.5070  0.3617 -0.0386
22663SOL    HW285982  13.291   8.552  13.425 -0.1963 -0.2439 -0.4223
22664SOL     OW85983   5.947   3.553  13.837 -0.3563 -0.0241  0.2660
22664SOL    HW185984   5.982   3.581  13.752  0.2619 -0.7992  0.2603
22664SOL    HW285985   6.005   3.593  13.901 -1.7294  1.8620  0.4149
22665SOL     OW85986  12.579  13.327   3.718  0.6494  0.3044 -0.8610
22665SOL    HW185987  12.563  13.417   3.691 -0.1384  0.1818 -0.8348
22665SOL    HW285988  12.494  13.296   3.750  0.6936 -0.7276 -1.6947
22666SOL     OW85989   3.336   6.187   2.619  0.5266  0.4449 -0.2834
22666SOL    HW185990   3.429   6.211   2.620  0.6743 -0.1035  1.0445
22666SOL    HW285991   3.334   6.096   2.650 -0.4087  0.2644 -0.8372
22667SOL     OW85992  11.028  11.483   6.448  0.0695  0.1761  0.2732
22667SOL    HW185993  11.093  11.432   6.496 -0.9199 -2.5015 -1.0439
22667SOL    HW285994  10.982  11.419   6.394 -1.9325  2.3612 -0.7974
22668SOL     OW85995  13.866   9.961   2.274  0.5303  0.1266 -0.0741
22668SOL    HW185996  13.898   9.989   2.360 -0.8532 -3.0103  1.6421
22668SOL    HW285997  13.925   9.890   2.248  1.3904  1.5144 -2.1821
22669SOL     OW85998   7.235  14.079   4.392  0.0582 -0.5907 -0.1801
22669SOL    HW185999   7.308  14.049   4.338  0.3962 -0.6602  0.3051
22669SOL    HW286000   7.269  14.077   4.481  0.0679  1.1225 -0.1069
22670SOL     OW86001   6.314   2.601   9.779 -0.0325  0.2190 -0.0161
22670SOL    HW186002   6.387   2.601   9.717  1.0151  0.5763  1.1936
22670SOL    HW286003   6.298   2.509   9.797 -0.4750  0.1010 -0.9442
22671SOL     OW86004   4.538   8.977   7.807 -0.0841  0.5830 -0.0128
22671SOL    HW186005   4.542   9.059   7.855  0.8541  1.4129 -1.4456
22671SOL    HW286006   4.618   8.931   7.830  0.0703  0.7027 -0.3140
22672SOL     OW86007   3.774  10.724   9.847 -0.2477  0.1192  0.0794
22672SOL    HW186008   3.840  10.793   9.843  0.1833 -0.1624  1.6578
22672SOL    HW286009   3.690  10.770   9.843  0.0094  0.5139 -1.4830
22673SOL     OW86010   9.301   6.210   8.206 -0.2123  0.9361 -0.2460
22673SOL    HW186011   9.333   6.130   8.247 -2.0118  0.5104  0.4218
22673SOL    HW286012   9.282   6.185   8.115 -0.6496  0.6251 -0.0725
22674SOL     OW86013   9.222   5.062  12.003  0.2387 -0.0067  0.5958
22674SOL    HW186014   9.284   5.013  11.949  0.7214 -0.8856  1.8943
22674SOL    HW286015   9.140   5.058  11.954  0.7660 -0.3703 -0.2931
22675SOL     OW86016  13.738   9.121  13.007  0.2653  0.2421 -0.4393
22675SOL    HW186017  13.831   9.125  12.984  0.2673  0.3593 -0.4123
22675SOL    HW286018  13.709   9.212  13.007  0.8653  0.5308  2.3965
22676SOL     OW86019   1.446   2.567  12.339  0.1218 -1.1349  0.1661
22676SOL    HW186020   1.387   2.582  12.412 -0.5483 -0.9716 -0.3972
22676SOL    HW286021   1.529   2.541  12.379 -0.7586 -2.8968  0.9479
22677SOL     OW86022   7.963   9.601  11.600 -0.2300 -0.2888  0.4543
22677SOL    HW186023   7.924   9.685  11.576 -2.8320 -1.2950  0.8357
22677SOL    HW286024   7.914   9.574  11.678  1.1152 -1.7896  0.8214
22678SOL     OW86025   7.987   6.604   9.495 -0.6251 -0.2374  0.4692
22678SOL    HW186026   8.021   6.680   9.448 -1.0129 -0.4784 -0.2080
22678SOL    HW286027   7.925   6.564   9.435  1.0388 -2.2707 -0.0125
22679SOL     OW86028   2.566   9.147   8.877  0.0500 -0.5402 -0.1833
22679SOL    HW186029   2.636   9.205   8.907 -0.9451  0.2395  0.7479
22679SOL    HW286030   2.491   9.206   8.864 -0.3586 -1.3047 -1.4444
22680SOL     OW86031   0.776   0.099   3.004  0.1098 -0.2749  0.3808
22680SOL    HW186032   0.837   0.089   2.932 -0.8490  1.4863 -0.7651
22680SOL    HW286033   0.804   0.035   3.070  2.7252  0.0103 -0.3711
22681SOL     OW86034   2.837  10.794   6.189 -0.1488  0.1131 -0.1300
22681SOL    HW186035   2.914  10.848   6.205  0.5953 -0.8774 -0.3564
22681SOL    HW286036   2.807  10.769   6.277 -0.1554  0.4089 -0.0467
22682SOL     OW86037   8.601  13.047  12.188 -0.1666 -0.1410 -0.4633
22682SOL    HW186038   8.577  13.020  12.099 -0.4404  1.8910 -1.0752
22682SOL    HW286039   8.517  13.058  12.233 -0.2842  2.4165 -1.1540
22683SOL     OW86040   0.561   4.563   2.830 -0.0268 -0.2045  0.5671
22683SOL    HW186041   0.622   4.532   2.763 -0.0917 -0.4315  0.6144
22683SOL    HW286042   0.559   4.494   2.896  0.3573  0.1984  1.0137
22684SOL     OW86043  11.858   2.479   0.693  0.4835 -0.5583  0.5877
22684SOL    HW186044  11.892   2.400   0.651  3.2831  0.3504  0.9239
22684SOL    HW286045  11.912   2.489   0.772  0.7660  2.0995  0.1285
22685SOL     OW86046   7.412   9.941   3.383 -0.3415 -0.1305 -0.1809
22685SOL    HW186047   7.337   9.902   3.428  0.0313 -0.5384  0.0992
22685SOL    HW286048   7.386   9.945   3.291 -0.7346 -0.1925 -0.0738
22686SOL     OW86049  12.351   8.507   1.207  0.2086  0.8643  0.0439
22686SOL    HW186050  12.368   8.601   1.212  1.0296  0.6624  2.6393
22686SOL    HW286051  12.281   8.492   1.271  1.1104 -0.4677  0.7606
22687SOL     OW86052   5.458   2.182   7.285 -0.4359 -0.3977 -0.1583
22687SOL    HW186053   5.476   2.234   7.207  1.0956 -1.4952 -0.5823
22687SOL    HW286054   5.479   2.240   7.358  0.1144 -0.0355 -0.6021
22688SOL     OW86055   6.727  10.401  10.883 -0.2276 -0.1275 -0.9190
22688SOL    HW186056   6.794  10.441  10.827 -0.8294  1.3998 -0.5982
22688SOL    HW286057   6.653  10.461  10.879 -0.6712 -0.5112  0.7083
22689SOL     OW86058   5.268   4.591   4.483  0.0512 -0.2147  0.3704
22689SOL    HW186059   5.289   4.679   4.515  0.8771  0.3003 -1.4894
22689SOL    HW286060   5.180   4.599   4.447  0.3739  0.0386 -0.3846
22690SOL     OW86061  11.386   1.250   3.340  0.2852  0.3144  0.4692
22690SOL    HW186062  11.470   1.206   3.331  0.3726  0.8050 -1.6952
22690SOL    HW286063  11.355   1.226   3.428  1.4938 -1.9130  0.3477
22691SOL     OW86064  10.546  11.859   7.677  0.3264 -0.2412 -0.0532
22691SOL    HW186065  10.542  11.792   7.745 -3.6046 -1.1974 -0.9305
22691SOL    HW286066  10.578  11.937   7.722 -1.0234 -1.1230  2.6812
22692SOL     OW86067   7.972   8.223  11.884 -0.1852  0.2141 -0.2266
22692SOL    HW186068   8.046   8.272  11.919 -0.1273  1.0255 -1.4357
22692SOL    HW286069   7.962   8.149  11.944  1.8472 -0.1400 -0.2533
22693SOL     OW86070  13.423   7.379   7.082  0.3465  0.1791 -0.0281
22693SOL    HW186071  13.364   7.403   7.154  1.5548 -1.7983  1.7297
22693SOL    HW286072  13.453   7.463   7.047 -0.4046  1.2120  1.6518
22694SOL     OW86073   0.115   8.125   6.860  0.3485  0.0289  0.4733
22694SOL    HW186074   0.107   8.185   6.786 -1.4382  0.7459  1.1842
22694SOL    HW286075   0.182   8.164   6.916  0.5614  0.3332  0.0067
22695SOL     OW86076   6.073   5.393   0.912 -0.3587 -0.3993 -0.2291
22695SOL    HW186077   6.123   5.440   0.978 -2.7142  1.3592  0.4289
22695SOL    HW286078   6.055   5.458   0.844 -2.7437 -0.5656  0.1552
22696SOL     OW86079  13.362   4.361   9.452 -0.1576 -0.1240  0.2956
22696SOL    HW186080  13.287   4.420   9.459 -0.6152 -0.5121 -1.0779
22696SOL    HW286081  13.428   4.400   9.509 -0.9663  0.8916  0.5761
22697SOL     OW86082   4.034  11.264  11.772 -0.2808  0.1596 -0.7767
22697SOL    HW186083   4.100  11.282  11.839 -1.0156 -0.6950  0.2049
22697SOL    HW286084   4.061  11.317  11.697  0.2050  1.6462  0.3962
22698SOL     OW86085   6.382   1.610   6.036  0.5951 -0.1094 -0.4397
22698SOL    HW186086   6.341   1.535   6.080  1.6438 -0.6965 -0.4033
22698SOL    HW286087   6.475   1.601   6.058  0.5403  2.2836  1.1362
22699SOL     OW86088   6.441   4.709  10.621  0.3356  0.8389 -0.3418
22699SOL    HW186089   6.458   4.686  10.529  0.7934  0.2569 -0.1170
22699SOL    HW286090   6.448   4.626  10.668  0.6988  1.2334  0.3111
22700SOL     OW86091   0.737   5.735  11.371  0.1427 -0.0336 -0.0176
22700SOL    HW186092   0.690   5.768  11.448 -2.1598  1.7058 -1.9934
22700SOL    HW286093   0.676   5.671  11.332  1.3756 -1.0792 -0.2926
22701SOL     OW86094  12.803   4.136  10.066  0.3518 -0.0404  0.8044
22701SOL    HW186095  12.840   4.223  10.051 -1.2466  0.5157 -0.0780
22701SOL    HW286096  12.739   4.148  10.136  0.0639 -0.4962  0.6268
22702SOL     OW86097   9.166   0.344   6.382 -0.0233  0.4804 -0.3947
22702SOL    HW186098   9.203   0.384   6.460  0.1093 -1.2216  0.4720
22702SOL    HW286099   9.223   0.372   6.311  1.8308 -0.4867  0.6158
22703SOL     OW86100   1.550   3.483  12.410 -0.0032  0.0550  0.0820
22703SOL    HW186101   1.536   3.434  12.329  1.1498 -0.9405  0.4622
22703SOL    HW286102   1.553   3.417  12.479 -2.7183  0.9901  1.2647
22704SOL     OW86103  13.450   4.867   3.143 -0.2194 -0.7380  0.1946
22704SOL    HW186104  13.478   4.776   3.158 -1.4190 -0.9815  1.0281
22704SOL    HW286105  13.416   4.866   3.053 -0.5883 -1.2106  0.3333
22705SOL     OW86106   4.825   3.829   4.157  0.2696 -0.6475 -0.1024
22705SOL    HW186107   4.772   3.749   4.168 -0.5028 -0.2654 -0.9189
22705SOL    HW286108   4.915   3.799   4.169 -0.1117 -1.2977  1.4366
22706SOL     OW86109   3.612   2.197  13.818  0.0173 -0.7241 -0.0655
22706SOL    HW186110   3.560   2.270  13.852  1.4231  0.6624 -0.7360
22706SOL    HW286111   3.668   2.171  13.891 -1.2101 -1.8555  0.4912
22707SOL     OW86112   8.535   3.562   5.021  0.5023  0.1367 -1.1921
22707SOL    HW186113   8.542   3.468   5.009 -1.2233 -0.2432  0.3818
22707SOL    HW286114   8.616   3.597   4.984  0.7107 -1.8470 -2.7563
22708SOL     OW86115   2.909   0.657  13.744  0.5033 -0.0152  0.3793
22708SOL    HW186116   2.939   0.623  13.659  0.0912  2.7095 -0.9689
22708SOL    HW286117   2.814   0.656  13.737  0.4213  3.3108 -0.6864
22709SOL     OW86118  10.778   8.993   4.430 -0.2008  0.0124 -0.2198
22709SOL    HW186119  10.860   8.979   4.383 -0.1084  1.4694 -0.5348
22709SOL    HW286120  10.804   9.010   4.521 -0.2292 -0.5478 -0.1047
22710SOL     OW86121  10.264   8.320   2.519 -0.3560 -0.3351  0.5425
22710SOL    HW186122  10.272   8.377   2.443 -0.7756 -2.1798 -0.9357
22710SOL    HW286123  10.335   8.348   2.577 -1.1652  2.3357  0.3728
22711SOL     OW86124   9.014   5.285   6.193 -0.3744 -0.1321 -0.4667
22711SOL    HW186125   9.052   5.373   6.198 -0.8901  0.0786 -0.1468
22711SOL    HW286126   8.985   5.277   6.103  0.8298 -0.4714 -0.8386
22712SOL     OW86127   0.610  12.306   0.049  0.3750 -0.2942  0.3213
22712SOL    HW186128   0.536  12.263   0.092 -0.0295 -0.4306 -0.4858
22712SOL    HW286129   0.684  12.248   0.066 -0.4470 -2.2211 -2.0430
22713SOL     OW86130  12.645   7.382   9.489  0.6012 -0.2943 -0.2009
22713SOL    HW186131  12.626   7.288   9.492  0.2539 -0.2138  0.9063
22713SOL    HW286132  12.563   7.423   9.461  0.9902 -0.3712 -1.4747
22714SOL     OW86133   7.897  11.364   7.728 -0.5486  0.3906  0.8455
22714SOL    HW186134   7.883  11.383   7.820  0.5726  0.1085  1.0950
22714SOL    HW286135   7.895  11.449   7.685 -2.4146  0.4216  0.9007
22715SOL     OW86136  10.741  12.676   7.739  0.0681  0.0791 -0.5833
22715SOL    HW186137  10.797  12.696   7.664 -0.6556 -0.2458 -1.2211
22715SOL    HW286138  10.710  12.762   7.769  0.0476  0.1823 -0.8985
22716SOL     OW86139   2.760   2.697   7.203  0.0525 -0.3335 -0.1176
22716SOL    HW186140   2.802   2.778   7.232 -1.7033  0.6629 -0.2296
22716SOL    HW286141   2.781   2.634   7.272  0.0832  0.6719  0.8300
22717SOL     OW86142   8.045   3.045   7.843 -0.1743  0.7726 -0.0754
22717SOL    HW186143   8.122   3.091   7.809 -0.0559  0.9984  0.4832
22717SOL    HW286144   8.017   3.098   7.918 -1.1936  0.9911 -0.5843
22718SOL     OW86145  11.667  11.371   4.580  0.3388 -0.3949 -0.4034
22718SOL    HW186146  11.749  11.328   4.607  0.5717  0.6460  0.6421
22718SOL    HW286147  11.687  11.407   4.493  0.9776 -0.2057 -0.1845
22719SOL     OW86148  11.628   3.275   3.511 -0.1503  0.2525  0.3311
22719SOL    HW186149  11.633   3.326   3.430  1.1791  0.0278  0.2361
22719SOL    HW286150  11.556   3.215   3.497 -1.0241  1.3431 -0.0062
22720SOL     OW86151   3.762   4.304   3.001  0.3453  0.4141  0.0299
22720SOL    HW186152   3.668   4.300   2.979  0.3392  1.8572 -0.2580
22720SOL    HW286153   3.764   4.323   3.094  0.3537  0.3122  0.0506
22721SOL     OW86154   0.212   5.185   5.536  0.5544  0.3082  0.0480
22721SOL    HW186155   0.164   5.189   5.454  1.0839  1.0384 -0.2420
22721SOL    HW286156   0.298   5.150   5.512  0.6963  0.4827  0.2989
22722SOL     OW86157   0.502   8.466   4.431  0.0347  0.3607  0.9206
22722SOL    HW186158   0.440   8.413   4.382 -0.3223  2.3545 -0.9278
22722SOL    HW286159   0.568   8.493   4.367  2.0357 -0.4761  2.5140
22723SOL     OW86160  12.639   9.928   6.839  0.1347 -0.6142  0.7900
22723SOL    HW186161  12.584   9.968   6.772  0.0403 -0.5553  0.9018
22723SOL    HW286162  12.578   9.907   6.910 -0.2197 -2.9639 -0.1361
22724SOL     OW86163  10.405  10.620   2.559 -0.1348 -0.1078  0.5655
22724SOL    HW186164  10.399  10.714   2.546  0.7057 -0.1681 -0.3967
22724SOL    HW286165  10.482  10.593   2.508 -0.0729 -1.2425  1.2013
22725SOL     OW86166   5.367   1.512   5.750  0.1165  0.1948  0.1445
22725SOL    HW186167   5.284   1.484   5.710  0.4675 -0.2238 -0.2969
22725SOL    HW286168   5.426   1.438   5.738  0.3448  0.1928  1.1341
22726SOL     OW86169  10.737   9.563   9.401  0.2766  0.3048  0.2105
22726SOL    HW186170  10.811   9.553   9.342  0.5620  0.5010  0.5280
22726SOL    HW286171  10.734   9.657   9.420 -1.1742  0.5817 -1.2248
22727SOL     OW86172  11.267  13.109  14.024  0.3474  0.2290  0.4576
22727SOL    HW186173  11.275  13.114  13.929  2.2465  1.6960  0.6378
22727SOL    HW286174  11.347  13.064  14.053  0.1158  0.3987  1.4136
22728SOL     OW86175  11.857  11.779   3.528  0.0327 -0.0955 -0.8793
22728SOL    HW186176  11.950  11.802   3.531  0.0045 -0.0916  0.2549
22728SOL    HW286177  11.818  11.846   3.471  0.3316  1.4016  0.5966
22729SOL     OW86178  11.720   1.916   2.060  0.2928  0.3881  1.2122
22729SOL    HW186179  11.766   1.944   1.981  0.9235 -1.3694  0.9008
22729SOL    HW286180  11.686   1.829   2.039 -2.5923  1.3091  1.7099
22730SOL     OW86181   1.669  12.039   5.193 -0.2989 -0.2520  0.3832
22730SOL    HW186182   1.703  12.097   5.261  1.1625 -1.0599  0.3829
22730SOL    HW286183   1.577  12.026   5.216 -0.1571  0.5251  1.4540
22731SOL     OW86184   0.990   3.468   1.420  0.1693  0.5785 -0.1496
22731SOL    HW186185   0.902   3.433   1.408  0.5788 -0.9626  1.0422
22731SOL    HW286186   0.988   3.511   1.505  0.3666  1.2197 -0.4670
22732SOL     OW86187   9.348   3.627  14.151  0.3870 -0.1257 -0.0144
22732SOL    HW186188   9.319   3.592  14.236  1.0184  0.2248  0.3516
22732SOL    HW286189   9.301   3.710  14.142  1.4637  0.5825  0.7122
22733SOL     OW86190  12.673   3.708   0.908  0.1398  0.1737  0.9900
22733SOL    HW186191  12.601   3.770   0.901 -1.7903 -2.0067 -0.2051
22733SOL    HW286192  12.652   3.655   0.986  1.0488  0.2137  1.2677
22734SOL     OW86193   0.481   7.264   2.295 -0.0573 -0.1706  0.0391
22734SOL    HW186194   0.492   7.194   2.230  0.1508 -1.8951  1.8198
22734SOL    HW286195   0.555   7.322   2.280  0.3666 -0.9049 -0.8414
22735SOL     OW86196  14.123   7.432   1.992  0.9308  0.1239 -0.4185
22735SOL    HW186197  14.133   7.381   1.912 -0.3843 -1.6402  0.4594
22735SOL    HW286198  14.185   7.392   2.054  1.3774  0.9636 -0.3108
22736SOL     OW86199   4.269  11.737  13.336 -0.0807 -0.1858 -0.0383
22736SOL    HW186200   4.229  11.812  13.379  0.7604  0.5914 -0.5621
22736SOL    HW286201   4.351  11.723  13.383 -0.2174 -0.7558  0.0334
22737SOL     OW86202   0.635   4.148   6.584 -0.1010  0.3288  0.2058
22737SOL    HW186203   0.583   4.163   6.662 -1.2689 -1.4660 -0.1665
22737SOL    HW286204   0.572   4.151   6.512  0.5184 -0.5489 -0.3965
22738SOL     OW86205   4.076  12.691   9.673 -0.2724  0.1312  0.1090
22738SOL    HW186206   3.985  12.698   9.701 -0.6304 -0.1466 -0.9339
22738SOL    HW286207   4.108  12.612   9.716 -0.5902  0.1162  0.3172
22739SOL     OW86208   7.815   4.087   6.602  0.3775  0.5199 -0.2372
22739SOL    HW186209   7.847   4.170   6.564  0.7536  0.7790  0.6254
22739SOL    HW286210   7.732   4.072   6.558 -0.2464  1.9468  0.3656
22740SOL     OW86211   6.467  10.785  12.345 -0.7893  0.1013 -0.6012
22740SOL    HW186212   6.460  10.758  12.437 -2.4456  0.0396 -0.7062
22740SOL    HW286213   6.503  10.873  12.348  0.3410 -0.3652  0.0244
22741SOL     OW86214   1.757   4.009  12.388 -0.0364 -0.0753 -1.0592
22741SOL    HW186215   1.852   4.012  12.381  0.1934  1.9053  1.5048
22741SOL    HW286216   1.735   3.917  12.371  2.6261 -1.1813  0.6777
22742SOL     OW86217  12.790  12.177   8.531  0.3817  1.1568  0.2741
22742SOL    HW186218  12.811  12.121   8.456  0.0634 -0.8035  1.5649
22742SOL    HW286219  12.758  12.258   8.493 -0.3842 -0.0183 -1.7056
22743SOL     OW86220   5.417   4.324   8.238  0.1735 -0.0273  0.3237
22743SOL    HW186221   5.427   4.418   8.256  0.9801 -0.0580  0.1034
22743SOL    HW286222   5.405   4.284   8.323 -4.6886  0.6893  0.2683
22744SOL     OW86223   5.712  10.309   0.999 -0.4254 -0.5061  0.4635
22744SOL    HW186224   5.764  10.238   0.962 -0.0542 -0.2412  0.4782
22744SOL    HW286225   5.663  10.345   0.925 -0.6989 -0.8439  0.4748
22745SOL     OW86226   8.805   6.817   6.327  0.1996  0.9722 -0.5355
22745SOL    HW186227   8.725   6.868   6.340 -0.7007 -0.5159 -0.0575
22745SOL    HW286228   8.869   6.881   6.297 -0.7356  2.4863  0.5659
22746SOL     OW86229  11.229   3.780   2.665 -0.5544  0.3704  0.4616
22746SOL    HW186230  11.173   3.772   2.742 -1.8917 -0.8427 -0.5757
22746SOL    HW286231  11.169   3.776   2.590  0.6846  1.6191 -0.6745
22747SOL     OW86232   5.412   0.973  11.839 -0.4164 -0.1539 -0.0107
22747SOL    HW186233   5.472   1.033  11.883 -0.9190 -0.5841  1.3109
22747SOL    HW286234   5.462   0.937  11.766  0.2800  0.9584 -0.1050
22748SOL     OW86235   4.004   3.499  13.624  0.3292  0.7118  0.7426
22748SOL    HW186236   4.029   3.444  13.698 -0.0127  0.1537  0.4544
22748SOL    HW286237   3.911   3.482  13.611  0.6462 -0.2058 -0.6206
22749SOL     OW86238   7.566   9.467   3.654 -0.0891 -0.8710  0.0246
22749SOL    HW186239   7.606   9.441   3.737  0.2263 -2.2675 -0.5367
22749SOL    HW286240   7.512   9.543   3.676 -1.5273 -2.3502  1.9130
22750SOL     OW86241  11.217   1.752   5.526  0.2546  0.0571 -0.6489
22750SOL    HW186242  11.235   1.825   5.468  0.2493  0.4559 -0.1536
22750SOL    HW286243  11.139   1.710   5.489  0.4156  0.1373 -1.0816
22751SOL     OW86244  12.904   8.980   1.956 -0.3119 -0.1344 -0.2835
22751SOL    HW186245  12.832   8.972   1.893  0.2501  0.7113 -1.0500
22751SOL    HW286246  12.860   8.995   2.040 -1.0374  1.3860 -0.8993
22752SOL     OW86247   9.841  12.692   7.665  0.1943  0.8546  0.8748
22752SOL    HW186248   9.755  12.732   7.650  0.3223  0.6077 -0.7331
22752SOL    HW286249   9.873  12.733   7.745 -0.8649  1.9326  0.7812
22753SOL     OW86250   0.983   2.187   7.607  0.2672 -0.5883 -0.0136
22753SOL    HW186251   1.057   2.132   7.579 -0.0918 -1.3139  0.4149
22753SOL    HW286252   0.955   2.232   7.527  0.8955 -0.6393 -0.2688
22754SOL     OW86253   3.872   9.924   1.771  0.3105  0.8276 -0.5978
22754SOL    HW186254   3.961   9.956   1.779 -0.1864  2.2187 -0.3789
22754SOL    HW286255   3.875   9.863   1.697  0.9142  2.8964 -2.3791
22755SOL     OW86256  12.832   4.686  12.849 -0.1462  0.1623  0.4947
22755SOL    HW186257  12.859   4.688  12.941 -1.0185  0.0252  0.7556
22755SOL    HW286258  12.742   4.718  12.849 -0.0277  0.5341 -0.3623
22756SOL     OW86259   9.641   0.097   3.812  0.5672 -0.3972 -0.0255
22756SOL    HW186260   9.624   0.003   3.807  0.8525 -0.5540  1.5857
22756SOL    HW286261   9.730   0.104   3.847 -0.1542  0.4493  1.7808
22757SOL     OW86262   8.244   1.195   3.781 -0.2271  0.1795 -0.1054
22757SOL    HW186263   8.149   1.195   3.784 -0.2365  0.9200 -0.3118
22757SOL    HW286264   8.269   1.112   3.823 -0.9245  0.5548  1.0861
22758SOL     OW86265   7.268   0.237   2.680  0.5231  0.1144 -0.1359
22758SOL    HW186266   7.202   0.168   2.689  0.3138  0.3388  0.0463
22758SOL    HW286267   7.236   0.292   2.609 -0.4779  1.3270  1.1905
22759SOL     OW86268  10.938  11.634   9.146 -0.0715 -0.2746  0.7245
22759SOL    HW186269  10.998  11.564   9.121 -1.0325 -0.5607 -0.9710
22759SOL    HW286270  10.993  11.711   9.158  0.6496 -0.4759 -1.0047
22760SOL     OW86271  11.919   0.533   2.585  0.2760 -0.2034 -0.0905
22760SOL    HW186272  12.004   0.489   2.592  0.6453  0.3485 -0.8920
22760SOL    HW286273  11.897   0.527   2.492  0.1635  0.9736 -0.1508
22761SOL     OW86274  11.849  10.697   2.825 -0.0214 -0.1713  0.4270
22761SOL    HW186275  11.914  10.756   2.862 -0.2072 -0.7106  1.6440
22761SOL    HW286276  11.899  10.623   2.791  0.3339  1.0988 -2.1325
22762SOL     OW86277  13.367   0.287   4.828  0.3121  0.4953 -0.0300
22762SOL    HW186278  13.340   0.266   4.738 -0.9326 -0.8672  0.6132
22762SOL    HW286279  13.284   0.295   4.876  0.9529  1.6859  0.9026
22763SOL     OW86280   5.312   4.226   9.100 -0.4298  0.1188  0.2047
22763SOL    HW186281   5.354   4.143   9.125 -0.3525 -0.1866 -0.8651
22763SOL    HW286282   5.309   4.277   9.181  1.8901  0.1001  0.3533
22764SOL     OW86283   3.052   3.390   8.261 -0.2730 -0.4168 -0.1611
22764SOL    HW186284   3.037   3.338   8.340 -2.4673 -2.0465 -1.5333
22764SOL    HW286285   2.981   3.455   8.262  0.3571  0.2860 -0.2530
22765SOL     OW86286   7.421  13.382   5.588 -0.8688 -0.5094  0.0099
22765SOL    HW186287   7.502  13.432   5.576 -1.5599  0.3017 -1.4144
22765SOL    HW286288   7.423  13.357   5.681  0.7639 -0.0898  0.1276
22766SOL     OW86289  12.535   1.326   4.822 -0.3847  0.2319  0.2815
22766SOL    HW186290  12.558   1.233   4.821  2.8908  0.9131 -0.2695
22766SOL    HW286291  12.581   1.361   4.898  0.7799  1.8362 -1.0818
22767SOL     OW86292   5.146  10.367  11.355  0.2036 -0.2485  0.5622
22767SOL    HW186293   5.160  10.283  11.398  1.8195 -2.0518 -2.9985
22767SOL    HW286294   5.233  10.407  11.353  0.1092 -0.0614 -0.5862
22768SOL     OW86295   6.008   7.601   3.936 -0.5104  0.3833  0.0017
22768SOL    HW186296   5.982   7.509   3.945 -1.1720  0.5946  0.3218
22768SOL    HW286297   5.929   7.645   3.904 -0.3998  0.9577  0.5023
22769SOL     OW86298   4.882   9.928   5.019  0.1597 -0.0312  0.0819
22769SOL    HW186299   4.869   9.903   5.111 -1.8527 -0.0582 -0.1691
22769SOL    HW286300   4.955   9.872   4.990  1.6460  0.7979  1.9283
22770SOL     OW86301   6.057   3.471   9.802  0.4768 -0.4166  0.5533
22770SOL    HW186302   6.115   3.395   9.810 -3.0361 -3.2838  1.5075
22770SOL    HW286303   6.058   3.511   9.889  0.8488 -0.5669  0.6199
22771SOL     OW86304  11.480   6.033   6.124  0.1800  0.2899 -0.5070
22771SOL    HW186305  11.457   6.029   6.217 -1.8783  1.8304 -0.8648
22771SOL    HW286306  11.559   5.980   6.117 -0.0425 -0.5377  1.9695
22772SOL     OW86307  12.859  13.243  12.942  0.5601  0.5088  0.3885
22772SOL    HW186308  12.859  13.337  12.960 -0.9158  0.7060 -0.5689
22772SOL    HW286309  12.776  13.212  12.977 -0.3411  0.1164 -1.9449
22773SOL     OW86310   8.597  13.395  11.451 -0.5554  0.2096  0.5733
22773SOL    HW186311   8.586  13.391  11.356 -1.1288 -1.2774  0.6861
22773SOL    HW286312   8.645  13.477  11.466  2.4950 -1.0574 -1.2816
22774SOL     OW86313   3.448   6.903   8.858  0.7315 -0.0355  0.1892
22774SOL    HW186314   3.496   6.985   8.870  1.3566 -0.6233  1.8831
22774SOL    HW286315   3.367   6.915   8.907  0.4578 -0.1595 -0.2208
22775SOL     OW86316   5.515  10.309   6.257 -0.3452 -0.4223  0.2217
22775SOL    HW186317   5.578  10.284   6.325 -0.1144  0.5053  0.3678
22775SOL    HW286318   5.456  10.371   6.301  0.1710  0.6602 -0.5710
22776SOL     OW86319   3.148   9.188   4.134  0.1722 -0.8558 -0.4626
22776SOL    HW186320   3.216   9.151   4.190 -0.5973 -2.4768 -0.5520
22776SOL    HW286321   3.189   9.196   4.047  0.6311 -0.5687 -0.2233
22777SOL     OW86322   4.646  11.994  11.167 -0.7152  0.1535 -0.6929
22777SOL    HW186323   4.688  12.075  11.195 -0.4818 -0.5588  1.1812
22777SOL    HW286324   4.596  11.965  11.244  0.3828 -2.2006 -0.7708
22778SOL     OW86325   8.610   1.534   8.295  0.1918 -0.3342  0.7480
22778SOL    HW186326   8.538   1.475   8.319  0.3101 -0.7922  0.0040
22778SOL    HW286327   8.665   1.482   8.236  0.1482  0.6100 -0.1593
22779SOL     OW86328   7.301  11.156   7.563 -0.3846 -0.5861 -0.2002
22779SOL    HW186329   7.382  11.142   7.613 -0.2568 -1.3567 -0.6145
22779SOL    HW286330   7.285  11.250   7.571  0.4930 -0.4369 -0.0204
22780SOL     OW86331  10.122   7.926   5.659 -0.3162  0.6420  0.0924
22780SOL    HW186332  10.048   7.964   5.706 -0.8107 -0.5869  0.3627
22780SOL    HW286333  10.084   7.894   5.577  0.0485  0.6066 -0.0658
22781SOL     OW86334   7.088   5.390  10.057  0.2310  0.3431  1.1508
22781SOL    HW186335   7.152   5.436  10.003  0.9221  0.5827  2.1337
22781SOL    HW286336   7.116   5.299  10.054  0.1090  0.3144  0.8865
22782SOL     OW86337   1.016   5.682   5.108  0.1180  0.2451 -0.2682
22782SOL    HW186338   1.086   5.733   5.150  0.1659 -0.3749  0.4312
22782SOL    HW286339   0.952   5.748   5.081  1.1273  0.8599 -1.2484
22783SOL     OW86340  13.011  11.845   5.617  0.0006 -0.1894 -0.0223
22783SOL    HW186341  12.997  11.926   5.666  0.0620 -0.1021 -0.1487
22783SOL    HW286342  12.930  11.794   5.630  0.4495 -0.6428  1.0713
22784SOL     OW86343   8.505   4.197  10.357 -0.4329 -0.2278 -0.1573
22784SOL    HW186344   8.557   4.271  10.388 -1.2803  0.2565  0.1170
22784SOL    HW286345   8.569   4.126  10.347  0.2733  0.3416  0.2202
22785SOL     OW86346   3.997  11.785   9.315  0.0338  0.2134 -0.0309
22785SOL    HW186347   4.079  11.835   9.319 -0.0791  0.4838 -0.8584
22785SOL    HW286348   4.009  11.724   9.243 -0.5992  0.4671 -0.3672
22786SOL     OW86349  13.836   5.277   0.195  0.6308  0.6553  0.2527
22786SOL    HW186350  13.924   5.311   0.179 -0.1735  2.2869 -1.0978
22786SOL    HW286351  13.779   5.353   0.183 -1.1507 -0.8007 -1.1815
22787SOL     OW86352   1.802   6.105  12.092  0.0694  0.1218 -0.1818
22787SOL    HW186353   1.828   6.123  12.182 -0.4465  0.0227 -0.0114
22787SOL    HW286354   1.792   6.010  12.088  4.3988 -0.5256 -1.4994
22788SOL     OW86355   5.041   2.031  10.869 -0.1981 -0.1765  0.3147
22788SOL    HW186356   5.054   2.013  10.776 -0.7342  0.2764  0.1517
22788SOL    HW286357   4.954   2.070  10.874 -0.5764 -1.0753  1.1193
22789SOL     OW86358   4.064   8.704   9.913 -0.4858  0.4288 -0.0990
22789SOL    HW186359   4.074   8.767   9.843 -1.3124  1.9288  1.0674
22789SOL    HW286360   4.153   8.671   9.929 -0.0845  1.0836 -0.9206
22790SOL     OW86361   7.306   8.541   5.401  0.3556 -0.0863  0.6358
22790SOL    HW186362   7.252   8.483   5.348  0.5719 -1.2194  1.6326
22790SOL    HW286363   7.334   8.488   5.476 -1.0034  1.8086  2.6035
22791SOL     OW86364  10.273   3.917  13.598 -0.6062 -0.0700 -0.2713
22791SOL    HW186365  10.235   3.832  13.577 -0.6245 -0.1658  0.1495
22791SOL    HW286366  10.222   3.949  13.672  0.1849 -0.2460  0.3632
22792SOL     OW86367  10.516   3.886   8.587  0.1924  0.0017 -0.7876
22792SOL    HW186368  10.464   3.912   8.663 -0.0914 -0.2486 -0.8962
22792SOL    HW286369  10.583   3.954   8.580  0.1479  0.0900 -0.3843
22793SOL     OW86370   6.023  11.091   6.437  0.8988 -0.1742  0.3851
22793SOL    HW186371   5.944  11.136   6.405  1.3658  0.1776 -0.3048
22793SOL    HW286372   5.998  11.057   6.523  0.0477  0.0788  0.2503
22794SOL     OW86373  11.800   0.214  10.172 -0.3602  0.0625  0.3388
22794SOL    HW186374  11.806   0.270  10.095  1.3088 -0.0235  0.3775
22794SOL    HW286375  11.846   0.134  10.148  0.5834  0.2067  1.5527
22795SOL     OW86376  10.030   2.637   8.312 -0.0277 -0.1183 -0.0187
22795SOL    HW186377   9.980   2.713   8.340  0.4330  0.3068 -0.3488
22795SOL    HW286378  10.107   2.673   8.269  0.3593 -0.7711  0.1171
22796SOL     OW86379   3.413  14.135  13.010  0.0145  0.1317  0.4693
22796SOL    HW186380   3.365  14.114  12.930  1.0420  0.4835 -0.2625
22796SOL    HW286381   3.480  14.197  12.982  0.3529  0.3085  1.6196
22797SOL     OW86382   1.611  10.472  11.596 -0.0898  0.7167 -0.3608
22797SOL    HW186383   1.671  10.407  11.560 -0.1692  0.8779 -0.7794
22797SOL    HW286384   1.632  10.473  11.690  0.4021  0.6053 -0.4643
22798SOL     OW86385  11.263  12.618  11.246 -0.3118  0.1093 -0.2755
22798SOL    HW186386  11.244  12.646  11.335  1.8157  0.3675  0.1352
22798SOL    HW286387  11.246  12.695  11.192  0.8274  0.7317  0.2407
22799SOL     OW86388   2.768   3.222  13.601 -0.0054 -0.0756  0.1518
22799SOL    HW186389   2.682   3.215  13.561  0.2292  0.2181 -0.4128
22799SOL    HW286390   2.818   3.276  13.540  1.9505 -3.7555 -1.8449
22800SOL     OW86391  13.382   9.919   2.058  0.2099 -0.4407  0.7426
22800SOL    HW186392  13.424   9.897   1.975 -1.1098 -0.7748  0.1244
22800SOL    HW286393  13.442   9.980   2.100  0.2394  0.9471 -1.1468
22801SOL     OW86394   7.156   7.623  12.730 -0.3746  0.2535 -0.0324
22801SOL    HW186395   7.080   7.571  12.705 -0.5132  0.9118 -1.0453
22801SOL    HW286396   7.164   7.689  12.661  0.5136  0.8245  0.5859
22802SOL     OW86397  11.620   4.054   5.785 -0.2104  0.1361  0.3048
22802SOL    HW186398  11.677   4.000   5.840  1.2539  0.9804 -0.3201
22802SOL    HW286399  11.649   4.143   5.801 -0.0839  0.4343 -1.4346
22803SOL     OW86400   8.156   4.481  13.556  0.4124  0.2198  0.0222
22803SOL    HW186401   8.151   4.575  13.574  1.3916 -0.0107  1.6878
22803SOL    HW286402   8.214   4.474  13.481  1.5125  0.8968  0.7794
22804SOL     OW86403  10.493   8.686   3.715 -0.7066 -0.0556 -0.9249
22804SOL    HW186404  10.407   8.726   3.702 -0.2938  0.3945 -2.4877
22804SOL    HW286405  10.535   8.690   3.629  0.6266 -0.8803 -0.3516
22805SOL     OW86406   8.533   8.274   6.075  0.0408 -0.5208 -0.5397
22805SOL    HW186407   8.559   8.288   5.984  1.3234  0.7320 -0.0179
22805SOL    HW286408   8.502   8.360   6.104  0.3161 -0.7280  0.3969
22806SOL     OW86409   2.843   8.500   0.728  0.0741 -0.4997 -0.1900
22806SOL    HW186410   2.785   8.428   0.703 -0.2188 -0.8765  1.4310
22806SOL    HW286411   2.785   8.562   0.774  0.5700  0.1544 -0.4242
22807SOL     OW86412   0.669   9.459   0.330  0.0933 -0.5683  0.2487
22807SOL    HW186413   0.732   9.399   0.370  1.4634  0.6804  0.0321
22807SOL    HW286414   0.690   9.545   0.367 -1.1112 -0.0184 -0.2746
22808SOL     OW86415   7.942   6.144  13.282 -0.3132  0.2100 -0.4941
22808SOL    HW186416   7.998   6.137  13.204 -0.5554 -1.8780 -0.5457
22808SOL    HW286417   7.991   6.100  13.351 -1.8681 -1.7972 -0.5725
22809SOL     OW86418   2.613   0.875   9.462  0.6386 -0.5133 -0.7206
22809SOL    HW186419   2.659   0.913   9.537 -2.4982  1.0174  0.6259
22809SOL    HW286420   2.578   0.793   9.495 -0.5035  0.0241 -0.5482
22810SOL     OW86421   1.766   1.870   5.875  0.7638  0.5220  0.0904
22810SOL    HW186422   1.734   1.879   5.965 -0.5321  0.3773 -0.3265
22810SOL    HW286423   1.713   1.933   5.824  1.5572  0.6869 -0.5499
22811SOL     OW86424   9.090  10.613   8.346 -0.2142  0.3253 -0.5799
22811SOL    HW186425   9.121  10.685   8.401 -1.4522  0.2296  0.2801
22811SOL    HW286426   9.022  10.653   8.291 -0.1702  0.0366 -0.8456
22812SOL     OW86427  11.335   2.844   7.800  0.1066  1.1128  0.5902
22812SOL    HW186428  11.373   2.756   7.801 -0.9184  0.6469  0.1451
22812SOL    HW286429  11.253   2.834   7.752  0.2054  2.4191  0.1151
22813SOL     OW86430  11.928   2.675  11.323  0.2257  0.0714  0.4476
22813SOL    HW186431  11.905   2.766  11.308 -1.2026  0.2099  3.0450
22813SOL    HW286432  12.003   2.659  11.265 -0.2532  2.4927 -0.9545
22814SOL     OW86433   7.681  11.691   7.657  0.4267  0.0460  0.1863
22814SOL    HW186434   7.655  11.774   7.617 -0.2442 -0.0849  0.3260
22814SOL    HW286435   7.765  11.670   7.617 -0.8514 -0.8189 -2.3201
22815SOL     OW86436   0.901   3.029   9.632 -0.3805  0.3898 -0.5459
22815SOL    HW186437   0.929   2.939   9.646  1.0406  0.8460 -0.3356
22815SOL    HW286438   0.812   3.021   9.597 -0.4664 -1.0675 -0.0667
22816SOL     OW86439   6.657  12.891   8.032  0.5945  0.1510  0.2503
22816SOL    HW186440   6.565  12.863   8.030  0.4396  0.1475  2.8625
22816SOL    HW286441   6.707  12.810   8.043  0.8126  0.2366 -0.1177
22817SOL     OW86442   7.565  12.566   4.655  0.4162  0.2846 -0.4555
22817SOL    HW186443   7.638  12.573   4.716 -0.8156 -1.0666  1.2742
22817SOL    HW286444   7.601  12.594   4.570  1.9567  3.1311  0.9902
22818SOL     OW86445  13.771   1.314  11.472  0.2180 -0.4567 -0.5593
22818SOL    HW186446  13.757   1.257  11.396  0.1610  2.0450 -2.5684
22818SOL    HW286447  13.698   1.376  11.470  1.2836  0.8852  0.3384
22819SOL     OW86448   3.560   5.401   0.933  0.0458 -1.0306 -0.0673
22819SOL    HW186449   3.535   5.310   0.920  0.3376 -1.0568 -0.4689
22819SOL    HW286450   3.478   5.450   0.926 -0.2232 -1.3198  0.8519
22820SOL     OW86451   9.125   4.248   7.753  0.0288 -0.0123  0.0632
22820SOL    HW186452   9.071   4.317   7.793 -1.7373 -1.4486  0.2739
22820SOL    HW286453   9.135   4.182   7.822  2.2132  0.2343  0.0612
22821SOL     OW86454  11.942  11.931  12.749  0.1187  0.0084  0.5307
22821SOL    HW186455  11.962  11.854  12.802 -0.5761  0.1177  0.9650
22821SOL    HW286456  12.023  11.949  12.701  0.1254 -1.3054  0.0141
22822SOL     OW86457   1.439   2.152   7.140  0.4864 -0.1589  0.2150
22822SOL    HW186458   1.425   2.077   7.082  0.4681  0.7803 -1.0552
22822SOL    HW286459   1.497   2.209   7.089  0.8495  0.4891  1.3376
22823SOL     OW86460  12.722   4.787   0.261  0.2482 -0.0218  0.1456
22823SOL    HW186461  12.646   4.729   0.252  0.7351 -0.2921 -3.2753
22823SOL    HW286462  12.692   4.871   0.228  0.9856  0.3157  0.3187
22824SOL     OW86463  13.871  12.167  12.936 -0.1147 -0.0227 -0.2232
22824SOL    HW186464  13.838  12.158  13.025  0.9945 -2.0865  0.0443
22824SOL    HW286465  13.799  12.139  12.880 -0.6504  0.8156  0.0286
22825SOL     OW86466   3.007  10.113   7.887  0.0357  0.3396  0.3425
22825SOL    HW186467   2.933  10.134   7.830 -0.0617 -0.8417  0.0235
22825SOL    HW286468   3.085  10.137   7.836 -0.0931  0.6431  0.2875
22826SOL     OW86469  12.523  13.645   1.717  0.2779  0.1156  0.0404
22826SOL    HW186470  12.495  13.554   1.727  2.7349 -0.6369  0.5935
22826SOL    HW286471  12.539  13.655   1.623  0.3948 -0.1334  0.0344
22827SOL     OW86472   2.586  12.394   8.937  0.9204 -0.4537 -0.4257
22827SOL    HW186473   2.584  12.317   8.994  0.8752 -1.0388 -1.2012
22827SOL    HW286474   2.623  12.362   8.855  0.5924  0.2795 -0.8725
22828SOL     OW86475  13.564   3.322   1.239 -0.0758 -0.0763 -0.9948
22828SOL    HW186476  13.615   3.242   1.248 -0.8477 -0.6412 -1.4617
22828SOL    HW286477  13.486   3.306   1.292 -0.5792  0.0652 -1.6779
22829SOL     OW86478  11.422   7.511   7.404  0.0993  0.3660 -0.1887
22829SOL    HW186479  11.363   7.462   7.347 -0.2444 -0.3075  0.7267
22829SOL    HW286480  11.453   7.583   7.349 -1.4924  0.6845 -0.7413
22830SOL     OW86481  13.448   7.352   0.658  0.0960  0.2673  0.4266
22830SOL    HW186482  13.513   7.325   0.723 -0.0915  0.3412  0.6483
22830SOL    HW286483  13.485   7.430   0.618 -0.2794  0.8633  1.2182
22831SOL     OW86484  11.337   0.922   3.429 -0.5222 -0.3969 -0.1395
22831SOL    HW186485  11.244   0.931   3.449 -0.0681  1.5298  1.3716
22831SOL    HW286486  11.347   0.960   3.342 -1.1065 -0.4465 -0.2267
22832SOL     OW86487   0.221  11.280  12.938 -0.3801 -0.2314 -0.5235
22832SOL    HW186488   0.267  11.352  12.979 -1.7704  1.1598 -1.3047
22832SOL    HW286489   0.279  11.252  12.867  0.9434 -1.0782  0.8375
22833SOL     OW86490  10.998   1.355   8.976 -0.2100  0.2267  0.1871
22833SOL    HW186491  10.928   1.318   9.029 -0.7527  0.6388 -0.2256
22833SOL    HW286492  11.023   1.435   9.021 -1.4359  1.1677 -0.7218
22834SOL     OW86493   9.358   4.921  12.409 -0.0557 -0.4838  0.4839
22834SOL    HW186494   9.405   4.858  12.354  0.5963 -0.3491  0.8784
22834SOL    HW286495   9.315   4.980  12.347  0.7641 -0.2645  0.1216
22835SOL     OW86496   6.891  12.094   6.650  0.3778  0.4539  0.3748
22835SOL    HW186497   6.965  12.110   6.590  0.3858 -0.5191  0.1225
22835SOL    HW286498   6.813  12.110   6.596  0.3842  1.3962  0.6186
22836SOL     OW86499   8.944   1.399   4.047 -0.1291  0.0321 -0.4145
22836SOL    HW186500   8.877   1.356   3.992  1.4446 -1.6629 -1.1055
22836SOL    HW286501   8.999   1.446   3.985  0.2624  0.0826 -0.0332
22837SOL     OW86502   1.769   7.683   0.672  0.0321 -0.3311  0.3568
22837SOL    HW186503   1.808   7.750   0.728  0.3398  0.1168 -0.3901
22837SOL    HW286504   1.770   7.603   0.726  2.1021 -0.3847  0.3116
22838SOL     OW86505   6.073   7.118  12.286  0.0655 -0.5421  0.4735
22838SOL    HW186506   6.053   7.054  12.354  1.6075 -0.5944  0.9040
22838SOL    HW286507   6.061   7.070  12.203  0.1968 -1.0831  0.7646
22839SOL     OW86508   6.495   8.865   8.737  0.6895  0.1051 -0.2153
22839SOL    HW186509   6.484   8.950   8.779 -0.5958 -0.2086  0.1178
22839SOL    HW286510   6.583   8.868   8.700  1.5899  0.7030  1.8060
22840SOL     OW86511   7.481   6.187  11.059  0.7561  0.1356 -0.2632
22840SOL    HW186512   7.505   6.228  10.976  1.5551 -0.0265 -0.1132
22840SOL    HW286513   7.543   6.223  11.122 -0.6668  1.2859  0.5456
22841SOL     OW86514   7.596   8.766  12.610  0.2039  0.0650  0.2574
22841SOL    HW186515   7.573   8.682  12.649  1.4179 -0.5675 -0.3318
22841SOL    HW286516   7.513   8.800  12.576 -0.2919 -0.9343  0.4349
22842SOL     OW86517  13.168   6.703   8.512 -0.1175 -0.4642 -0.3296
22842SOL    HW186518  13.107   6.678   8.442 -0.9989 -1.7021  0.8092
22842SOL    HW286519  13.117   6.761   8.568  0.3106 -0.1438 -0.2689
22843SOL     OW86520  13.191   3.789   7.543 -0.2432  0.0535  0.4605
22843SOL    HW186521  13.105   3.760   7.575  0.6633 -1.2129  1.9044
22843SOL    HW286522  13.172   3.834   7.461 -2.1589 -1.3455  0.0582
22844SOL     OW86523   5.292   0.955   0.322 -0.4782 -0.0299 -0.5229
22844SOL    HW186524   5.292   1.041   0.279 -0.4873  0.0745 -0.3134
22844SOL    HW286525   5.301   0.893   0.250 -1.4622  0.0970 -0.7680
22845SOL     OW86526   2.658   5.874  10.986 -0.2457  1.2336 -0.0579
22845SOL    HW186527   2.645   5.804  11.050  1.0398  1.9852  1.0801
22845SOL    HW286528   2.631   5.835  10.903 -0.6609 -0.2263  0.7141
22846SOL     OW86529   8.367   3.016  12.262 -0.9530  0.5160  0.1157
22846SOL    HW186530   8.295   2.973  12.218 -1.3472  0.2674  0.9749
22846SOL    HW286531   8.360   2.988  12.354  0.4498  0.1814  0.1553
22847SOL     OW86532   8.473  12.793   1.362 -0.2791 -0.2644 -0.2881
22847SOL    HW186533   8.544  12.813   1.301 -0.5387  1.5548 -0.0580
22847SOL    HW286534   8.393  12.811   1.312 -0.4998  3.1449  1.0406
22848SOL     OW86535   1.966  11.865   4.588 -0.4623 -0.4735 -1.0766
22848SOL    HW186536   1.997  11.952   4.615 -1.1301 -0.5109 -0.1544
22848SOL    HW286537   1.874  11.864   4.614  0.4715 -3.0194  3.0330
22849SOL     OW86538  11.503  13.938   7.209  0.2416 -0.1740  0.1549
22849SOL    HW186539  11.466  14.025   7.191 -1.2866 -0.7286  0.4514
22849SOL    HW286540  11.593  13.955   7.236 -0.3298  1.4055  1.2132
22850SOL     OW86541  11.286  10.111   6.559  0.4789  0.3643  0.4302
22850SOL    HW186542  11.245  10.128   6.644 -0.8624  0.2374 -0.1685
22850SOL    HW286543  11.226  10.051   6.514  2.3552 -1.5820  0.3123
22851SOL     OW86544  12.263  10.103   1.912  0.3039  0.0836 -0.2974
22851SOL    HW186545  12.312  10.056   1.979 -0.8887 -1.3820 -0.3979
22851SOL    HW286546  12.175  10.065   1.915 -0.0353  0.6145 -2.0685
22852SOL     OW86547  12.860   4.479   8.774  0.4580  0.1698 -0.1212
22852SOL    HW186548  12.863   4.419   8.848  0.2981 -0.1458 -0.3699
22852SOL    HW286549  12.945   4.524   8.776  0.1582  0.7369  0.7238
22853SOL     OW86550  13.274   9.332   0.816  0.1972 -0.1148  0.3216
22853SOL    HW186551  13.326   9.375   0.747  0.1332 -0.4469  0.0603
22853SOL    HW286552  13.292   9.383   0.895  3.0585 -1.7713  0.8903
22854SOL     OW86553   1.815   4.835   8.028 -0.0556 -0.4843  0.1203
22854SOL    HW186554   1.846   4.762   7.974 -1.1033  0.1032 -1.3533
22854SOL    HW286555   1.719   4.827   8.026 -0.1467  0.3004  0.8643
22855SOL     OW86556   7.815   9.407   8.894  0.7504  0.3676  0.6705
22855SOL    HW186557   7.754   9.467   8.937  0.1432  0.5614 -0.4269
22855SOL    HW286558   7.827   9.336   8.957 -1.3156 -0.1199  0.5931
22856SOL     OW86559   5.732  13.729  10.498  0.0887  0.7849 -0.4938
22856SOL    HW186560   5.803  13.707  10.558 -1.6448  1.6772  2.0980
22856SOL    HW286561   5.656  13.684  10.534 -0.1754 -3.8803 -5.5994
22857SOL     OW86562  13.099   5.755  12.854  0.1053  0.3426  0.0717
22857SOL    HW186563  13.137   5.782  12.770 -0.2384 -0.3560 -0.3156
22857SOL    HW286564  13.175   5.748  12.913  0.6767 -1.4029 -0.7929
22858SOL     OW86565   7.360   6.813   6.360 -0.0152  0.5779  0.2876
22858SOL    HW186566   7.423   6.769   6.303 -0.4967  0.8910 -0.4944
22858SOL    HW286567   7.386   6.787   6.449  0.0687 -0.8199 -0.1205
22859SOL     OW86568   8.382   5.491   2.035  0.3855  0.4882  0.0577
22859SOL    HW186569   8.451   5.546   1.999  1.1638 -0.6587 -0.2505
22859SOL    HW286570   8.313   5.491   1.968  2.1691 -2.3379 -2.0302
22860SOL     OW86571  10.153  12.969   3.644  0.4109  0.4585 -0.0881
22860SOL    HW186572  10.245  12.945   3.658  0.0432 -0.1896  1.4382
22860SOL    HW286573  10.127  13.012   3.725 -0.4684  1.2180 -0.7565
22861SOL     OW86574   2.271  12.504  10.487  0.0837  0.2863 -0.2020
22861SOL    HW186575   2.263  12.418  10.445  1.4614  0.3364 -0.6219
22861SOL    HW286576   2.344  12.546  10.441  0.2880  1.1610  0.8814
22862SOL     OW86577   9.796   5.914   9.944 -0.0972  0.0573 -0.6137
22862SOL    HW186578   9.727   5.979   9.934 -0.1617  0.4107  1.5363
22862SOL    HW286579   9.749   5.832   9.961  0.0093 -0.2344 -1.6486
22863SOL     OW86580   9.895   9.963   9.008 -0.1850 -0.2211 -0.4283
22863SOL    HW186581   9.899  10.042   9.061  1.7290 -0.2367 -0.4838
22863SOL    HW286582   9.925   9.991   8.921 -0.2520 -0.8466 -0.6597
22864SOL     OW86583  11.678  11.034   4.005 -0.4230  0.2733 -0.4132
22864SOL    HW186584  11.706  11.096   4.072 -0.0658  0.0566 -0.3615
22864SOL    HW286585  11.730  11.056   3.927 -0.6675  0.3725 -0.5505
22865SOL     OW86586   7.580  10.638   9.473 -0.2153 -0.5388  0.2780
22865SOL    HW186587   7.657  10.590   9.444  1.1545  1.6125  0.0855
22865SOL    HW286588   7.536  10.665   9.392  0.7747  1.1050  0.2289
22866SOL     OW86589   0.575   6.700   7.073  0.4873 -0.3832 -0.3099
22866SOL    HW186590   0.611   6.786   7.052 -0.7957  0.2543 -0.0578
22866SOL    HW286591   0.598   6.686   7.165 -2.3065  1.3904  0.8068
22867SOL     OW86592   7.777  13.995  13.671  0.2893  0.9656  0.1865
22867SOL    HW186593   7.757  14.086  13.649 -0.9631  0.5767 -0.3750
22867SOL    HW286594   7.720  13.944  13.615  0.8221 -0.1748  0.6543
22868SOL     OW86595   6.976   9.451  13.263  0.3112  0.0230 -0.2378
22868SOL    HW186596   6.969   9.376  13.323 -2.1795 -0.1170 -0.5752
22868SOL    HW286597   6.971   9.528  13.319  3.1408  0.0121  0.1357
22869SOL     OW86598   5.353   6.649  11.831  0.6745 -0.0889  0.0327
22869SOL    HW186599   5.261   6.668  11.847  1.0731  1.4218  0.7395
22869SOL    HW286600   5.393   6.647  11.918  1.5646  0.7522 -0.3407
22870SOL     OW86601   2.899   8.838   9.782  0.2137 -0.1656  0.2267
22870SOL    HW186602   2.994   8.827   9.789 -0.0354 -1.9333  1.5067
22870SOL    HW286603   2.869   8.759   9.736 -0.6076  0.5701 -0.5457
22871SOL     OW86604  13.707   7.497   4.129  0.1040 -0.3664 -0.0180
22871SOL    HW186605  13.752   7.491   4.045  2.0256  0.3566  0.9067
22871SOL    HW286606  13.729   7.416   4.174 -0.4184 -0.4787  0.0434
22872SOL     OW86607   3.190  12.059  11.569  0.6339  0.5181  1.0348
22872SOL    HW186608   3.163  11.993  11.505  0.6849  0.0279  1.5170
22872SOL    HW286609   3.123  12.127  11.563  0.5445  0.3983  0.5877
22873SOL     OW86610   8.217   9.335   6.163  0.3033 -0.2357  0.3045
22873SOL    HW186611   8.253   9.332   6.252  0.9620 -1.4666  0.0174
22873SOL    HW286612   8.179   9.423   6.156  0.5849  0.0264  1.6593
22874SOL     OW86613   8.049  10.096   7.855 -0.6483 -0.5354 -0.1087
22874SOL    HW186614   8.044  10.004   7.879 -0.2440 -0.5339 -0.0109
22874SOL    HW286615   7.978  10.137   7.905 -0.7966 -0.7855 -0.1121
22875SOL     OW86616   4.359   4.356   0.712 -0.5683  0.4766  0.3693
22875SOL    HW186617   4.325   4.385   0.797  1.4333  3.1535  0.3872
22875SOL    HW286618   4.339   4.428   0.652  2.5885  1.0494 -0.1739
22876SOL     OW86619  10.574   7.198   0.755 -0.2904 -0.1892 -0.6473
22876SOL    HW186620  10.590   7.232   0.843 -0.8676  0.1164 -0.6556
22876SOL    HW286621  10.633   7.248   0.699  0.7860 -1.0546 -0.3190
22877SOL     OW86622   3.808   9.343   3.934 -0.3539  0.1843  0.2246
22877SOL    HW186623   3.850   9.336   3.848 -0.6241 -1.4093  0.1998
22877SOL    HW286624   3.718   9.316   3.919 -0.5491  0.4415  0.9101
22878SOL     OW86625  13.328   5.013  10.177 -0.1232  0.8128  0.4645
22878SOL    HW186626  13.320   5.107  10.194  0.4168  0.6855  1.4869
22878SOL    HW286627  13.263   4.972  10.235 -1.4757  0.6284 -1.1066
22879SOL     OW86628  13.112   2.571   3.699 -0.3524  0.3066  0.2653
22879SOL    HW186629  13.019   2.553   3.709 -0.3747 -0.1981 -0.7553
22879SOL    HW286630  13.156   2.492   3.729 -0.3289 -0.1375 -0.8847
22880SOL     OW86631   2.314   1.841  11.184  0.1359  0.5333  0.4760
22880SOL    HW186632   2.231   1.877  11.216 -0.4925  1.1184 -1.6626
22880SOL    HW286633   2.372   1.916  11.176  0.5072  0.2929  0.8497
22881SOL     OW86634   4.716  13.115   7.911  0.3312  0.5715 -0.8410
22881SOL    HW186635   4.666  13.034   7.918  0.8264  0.3446  0.2943
22881SOL    HW286636   4.657  13.176   7.866 -0.7328  0.1234 -0.1080
22882SOL     OW86637   0.899   1.614  10.413 -0.6577 -0.2141  0.0218
22882SOL    HW186638   0.893   1.664  10.494 -1.4427  4.2151 -2.4298
22882SOL    HW286639   0.811   1.618  10.376  0.1027 -0.3324 -1.9272
22883SOL     OW86640  13.116  13.195  13.612  0.2977 -0.3521  0.0874
22883SOL    HW186641  13.172  13.135  13.660  0.6585  0.4749  0.7241
22883SOL    HW286642  13.144  13.186  13.521  1.0694 -0.3886  0.3180
22884SOL     OW86643   1.631  10.056   9.326 -0.1455  0.0465 -0.1778
22884SOL    HW186644   1.633  10.109   9.405  0.5078 -0.2329  0.0013
22884SOL    HW286645   1.668  10.112   9.258  0.1718 -0.0362 -0.0757
22885SOL     OW86646   8.068   7.327   4.868 -0.0093  0.3787 -0.4959
22885SOL    HW186647   8.106   7.253   4.820 -0.0011  0.6686 -0.9360
22885SOL    HW286648   7.988   7.291   4.906  1.3816 -0.6405  1.6280
22886SOL     OW86649  11.285   4.571   4.916 -0.5110 -0.0024  0.0598
22886SOL    HW186650  11.355   4.520   4.958  0.7938  1.7374  0.0812
22886SOL    HW286651  11.231   4.602   4.988  0.8712  1.7357  0.4017
22887SOL     OW86652   3.971   0.955  11.938  0.1310 -0.5982 -0.1134
22887SOL    HW186653   4.017   0.911  12.010 -2.6292 -1.7255  1.0861
22887SOL    HW286654   3.966   0.890  11.869  1.2824 -0.0759 -0.7249
22888SOL     OW86655   2.429   1.673   6.275 -0.5015  0.5551 -0.3677
22888SOL    HW186656   2.413   1.583   6.303 -1.1353  0.8343  0.1914
22888SOL    HW286657   2.439   1.666   6.180 -0.0810 -0.1630 -0.2778
22889SOL     OW86658   3.514  13.722  12.522 -0.7798  0.0031  0.0179
22889SOL    HW186659   3.475  13.809  12.514  0.3016  0.5734  0.7096
22889SOL    HW286660   3.600  13.738  12.560  0.1363 -1.2191 -1.4653
22890SOL     OW86661   8.358   6.063   9.037 -0.3603 -0.1358  0.4457
22890SOL    HW186662   8.363   5.976   8.997  3.1676 -0.7698  1.9035
22890SOL    HW286663   8.443   6.103   9.018 -1.3629  2.4424  1.0522
22891SOL     OW86664  13.671   4.149  13.816 -0.0359 -0.3114 -0.3152
22891SOL    HW186665  13.632   4.079  13.763 -0.1420 -0.1181 -0.4965
22891SOL    HW286666  13.728   4.196  13.755  1.6400 -1.4799  0.2986
22892SOL     OW86667  13.124   0.322   4.968 -0.1213 -0.0092  0.0005
22892SOL    HW186668  13.136   0.243   5.021 -1.1313 -0.2498 -0.1081
22892SOL    HW286669  13.164   0.392   5.020 -2.3388  0.0205  1.8350
22893SOL     OW86670   1.995  11.680   0.373 -0.0985 -0.2249  0.1423
22893SOL    HW186671   1.988  11.589   0.404  0.5025 -0.8421 -1.3931
22893SOL    HW286672   1.964  11.676   0.282  0.2599  1.0486 -0.0543
22894SOL     OW86673  13.999   1.234   8.360  1.0487 -0.5175 -0.5487
22894SOL    HW186674  14.065   1.239   8.428  0.7233 -0.3113 -0.2430
22894SOL    HW286675  13.994   1.141   8.337  2.1688 -0.4077 -1.3054
22895SOL     OW86676   6.830   8.973  10.016 -0.4212  0.5946  0.4641
22895SOL    HW186677   6.791   8.893   9.981  2.5408 -1.1313  0.8281
22895SOL    HW286678   6.853   8.951  10.106  1.1034  1.6022  0.3534
22896SOL     OW86679  13.769   2.802   6.600  0.6263 -0.1938 -0.0666
22896SOL    HW186680  13.748   2.732   6.662  0.6023  0.6432  0.8869
22896SOL    HW286681  13.809   2.757   6.526 -0.3982 -1.3352  0.0444
22897SOL     OW86682   2.906   6.235  10.397 -0.2510 -0.1611  0.1169
22897SOL    HW186683   2.948   6.240  10.312  1.0303 -1.3615  0.6390
22897SOL    HW286684   2.816   6.207  10.379  0.2745 -1.3429 -0.7889
22898SOL     OW86685  11.991  11.645   6.805 -0.3846 -0.1336  0.0166
22898SOL    HW186686  12.030  11.560   6.785  1.3052  0.2764  1.2953
22898SOL    HW286687  12.065  11.706   6.803 -1.4255  1.1561 -0.0503
22899SOL     OW86688   4.368   2.667   4.255  0.4807  0.3749  0.6126
22899SOL    HW186689   4.313   2.619   4.192  1.1860  0.2554  0.0780
22899SOL    HW286690   4.330   2.646   4.340  0.2561 -0.4431  0.3191
22900SOL     OW86691   5.224   3.854  11.091  0.6792  0.4078  0.0453
22900SOL    HW186692   5.252   3.901  11.169 -0.2192 -1.5131  1.6131
22900SOL    HW286693   5.293   3.870  11.027  2.8866 -0.2423  2.1406
22901SOL     OW86694   1.385   3.654  13.933  0.4396 -0.0592 -0.2909
22901SOL    HW186695   1.412   3.721  13.870 -0.4770  0.8152  0.2143
22901SOL    HW286696   1.292   3.643  13.917  0.4275 -0.6495  0.1715
22902SOL     OW86697   0.996   3.153  13.862  0.3995  0.0146  0.1171
22902SOL    HW186698   0.921   3.094  13.858 -0.0224  0.6077 -0.8096
22902SOL    HW286699   0.958   3.240  13.874  0.9868  0.2065  0.6783
22903SOL     OW86700   5.315   3.378   0.521 -0.4420 -0.1166  0.1344
22903SOL    HW186701   5.362   3.355   0.441 -0.1717  2.6521 -0.6375
22903SOL    HW286702   5.269   3.299   0.546  0.0473 -1.2877 -2.3674
22904SOL     OW86703   4.619   2.254   1.449  0.0241 -0.3079  0.0104
22904SOL    HW186704   4.666   2.194   1.391 -1.3145  0.1221 -1.6233
22904SOL    HW286705   4.660   2.339   1.432  0.1765 -0.3192  0.3239
22905SOL     OW86706   9.858   1.614  12.387 -0.1853 -0.4417  0.2531
22905SOL    HW186707   9.825   1.526  12.405 -0.8839  0.0487  1.5157
22905SOL    HW286708   9.851   1.623  12.291  0.6478 -2.0201  0.0108
22906SOL     OW86709   1.733  13.952   3.766 -0.0525  0.3728 -0.3370
22906SOL    HW186710   1.655  13.938   3.713 -0.5443 -0.7870  0.6392
22906SOL    HW286711   1.752  14.045   3.756 -2.3210  0.9826  0.3708
22907SOL     OW86712  11.051   1.851   8.152 -0.7909  0.1321 -0.0176
22907SOL    HW186713  10.967   1.814   8.126  0.3611 -1.1904 -2.0967
22907SOL    HW286714  11.056   1.835   8.246 -1.3548 -3.1001 -0.4249
22908SOL     OW86715   2.350   9.280  10.162  0.1964  0.0588  0.5754
22908SOL    HW186716   2.289   9.305  10.093 -1.1216 -0.1390  1.6265
22908SOL    HW286717   2.307   9.308  10.243  2.7000  2.3815  1.2539
22909SOL     OW86718   5.615   1.858   8.801 -0.1102  0.0249 -0.5199
22909SOL    HW186719   5.685   1.793   8.800 -0.2533 -0.1570  0.6827
22909SOL    HW286720   5.637   1.917   8.873 -0.8474  0.3511 -0.5524
22910SOL     OW86721  10.366   1.884   6.646 -0.2331 -0.0182  0.0366
22910SOL    HW186722  10.349   1.813   6.708 -2.0485 -0.5665 -0.9822
22910SOL    HW286723  10.427   1.942   6.691  0.0549 -1.4056  1.5275
22911SOL     OW86724   1.551   5.171   0.152  0.6996 -0.0412  0.5050
22911SOL    HW186725   1.646   5.157   0.155  1.0233  1.4922 -0.7761
22911SOL    HW286726   1.540   5.262   0.180 -0.4929 -0.4278  1.3612
22912SOL     OW86727   5.529  13.616  10.334 -0.2964 -0.2665  0.7883
22912SOL    HW186728   5.488  13.574  10.410 -2.9692  1.9000  0.7281
22912SOL    HW286729   5.585  13.684  10.372  0.4671 -0.9232  0.8404
22913SOL     OW86730   6.816  12.658   1.158 -0.4028 -0.1911 -0.2047
22913SOL    HW186731   6.911  12.656   1.147 -0.1567 -0.4402  1.6144
22913SOL    HW286732   6.791  12.748   1.136  0.5832  0.5258  1.4285
22914SOL     OW86733   0.294   3.806   6.574 -0.3626  0.5667  0.0483
22914SOL    HW186734   0.287   3.724   6.524 -0.1809 -0.5144  1.7022
22914SOL    HW286735   0.369   3.792   6.632  2.0328  3.3396 -2.0604
22915SOL     OW86736  12.528   3.767  11.428  0.2482 -0.2739 -0.2802
22915SOL    HW186737  12.436   3.772  11.455  0.4318 -1.1233  0.5832
22915SOL    HW286738  12.541   3.675  11.404  0.5375  0.1176 -1.7204
22916SOL     OW86739  12.719  12.959   4.890  0.4112  0.3817  0.3134
22916SOL    HW186740  12.804  12.985   4.856  0.1454  2.1401  0.9114
22916SOL    HW286741  12.738  12.918   4.974  0.6437  1.0757  0.6017
22917SOL     OW86742  13.652   4.866   4.976 -0.2334 -0.4375  0.0909
22917SOL    HW186743  13.630   4.919   5.053 -0.0971  0.3635 -0.4085
22917SOL    HW286744  13.660   4.777   5.010 -1.9591 -0.4086  0.7087
22918SOL     OW86745   2.414   6.422   8.870  0.6253 -0.0677  0.0048
22918SOL    HW186746   2.437   6.471   8.791 -0.2676 -1.4021 -1.1243
22918SOL    HW286747   2.318   6.425   8.872  0.6437  0.4425  1.3933
22919SOL     OW86748   7.020   2.133   5.594  0.1988  0.2276  0.5310
22919SOL    HW186749   7.028   2.049   5.549  1.4197 -0.2816  1.6314
22919SOL    HW286750   7.084   2.128   5.665 -2.9303  0.1289  3.6612
22920SOL     OW86751  10.644  13.281   2.115 -0.1838  0.1776 -0.2483
22920SOL    HW186752  10.712  13.273   2.182  0.2798 -0.6529 -0.8017
22920SOL    HW286753  10.582  13.211   2.136 -2.4442  2.6276  1.9571
22921SOL     OW86754   1.234  14.057  12.864 -0.5582 -0.0623  0.2165
22921SOL    HW186755   1.205  13.997  12.795  0.0430 -1.1801  0.9076
22921SOL    HW286756   1.328  14.041  12.871 -0.4586  0.7026  0.6608
22922SOL     OW86757   4.842   1.325   6.646  0.2989 -0.2731 -0.0858
22922SOL    HW186758   4.908   1.260   6.672 -1.2503 -1.7396  0.4050
22922SOL    HW286759   4.820   1.303   6.555  0.2805  0.0171 -0.1527
22923SOL     OW86760   0.631  11.280  12.862  0.0917  0.0129  0.2833
22923SOL    HW186761   0.642  11.246  12.951  0.2145 -1.8755 -0.4150
22923SOL    HW286762   0.712  11.257  12.817 -0.3653  0.0641 -0.5913
22924SOL     OW86763   1.192  14.057  11.097 -0.0677  0.5430  0.9111
22924SOL    HW186764   1.160  14.037  11.009 -1.2949 -1.5749  1.7693
22924SOL    HW286765   1.147  14.138  11.121  0.3235  1.1731 -0.3940
22925SOL     OW86766   0.753   8.751   4.791  0.2136  0.3113  0.4137
22925SOL    HW186767   0.756   8.656   4.785 -3.0032  0.1026  0.7476
22925SOL    HW286768   0.751   8.781   4.700  1.6897  0.1406  0.3001
22926SOL     OW86769   2.554   3.545   5.283  0.4475 -0.3818  0.5583
22926SOL    HW186770   2.491   3.537   5.355 -0.9891 -1.8303 -0.7573
22926SOL    HW286771   2.529   3.475   5.222  2.4182 -0.0301 -0.7483
22927SOL     OW86772   3.617   7.671   8.028  0.1216 -0.0910 -0.0741
22927SOL    HW186773   3.688   7.648   7.968  1.2716  1.2395  0.7080
22927SOL    HW286774   3.629   7.613   8.103  0.2275 -0.0246 -0.0409
22928SOL     OW86775   4.580   0.113   3.251  0.0323 -0.2429 -0.2839
22928SOL    HW186776   4.619   0.026   3.242  0.2838 -0.0260 -1.4560
22928SOL    HW286777   4.621   0.165   3.181 -2.3412 -0.0027 -1.5770
22929SOL     OW86778  12.148  10.491   4.019 -0.0106 -0.1213 -0.4436
22929SOL    HW186779  12.185  10.564   3.968  1.4530  0.2080  0.9829
22929SOL    HW286780  12.055  10.490   3.996  0.3965  0.6317 -2.3266
22930SOL     OW86781   4.556  12.823   0.962 -0.4236 -0.1818  1.2427
22930SOL    HW186782   4.607  12.805   1.041 -0.1086  0.9904  1.3160
22930SOL    HW286783   4.471  12.852   0.994 -0.1294  0.7785  1.1643
22931SOL     OW86784   4.136  13.002   0.657 -0.6426 -0.4609 -0.0698
22931SOL    HW186785   4.148  12.909   0.672  0.5574 -0.7237 -2.1749
22931SOL    HW286786   4.183  13.045   0.729 -0.4668 -1.4646  0.4229
22932SOL     OW86787  13.286   7.818   0.329 -0.3714  0.1297  1.1655
22932SOL    HW186788  13.306   7.837   0.420  3.1540  1.5179  0.2573
22932SOL    HW286789  13.343   7.876   0.279 -1.7367 -0.9813 -1.9643
22933SOL     OW86790   0.531   6.403   3.255 -0.2207 -0.2507 -0.0687
22933SOL    HW186791   0.518   6.490   3.292 -0.6207 -0.5222  0.4430
22933SOL    HW286792   0.577   6.419   3.172 -2.0480  0.5936 -0.9768
22934SOL     OW86793   2.774   3.273  12.998 -0.2988  0.2336 -0.8626
22934SOL    HW186794   2.807   3.226  12.922 -0.0930  1.2529 -1.4187
22934SOL    HW286795   2.815   3.229  13.073  1.7664  0.9750 -1.4919
22935SOL     OW86796   6.074   3.808   9.928  0.3136  0.0192 -0.3997
22935SOL    HW186797   6.162   3.781   9.904 -0.1552 -1.0934 -0.9656
22935SOL    HW286798   6.032   3.728   9.960  0.0051  0.8683  1.4580
22936SOL     OW86799   0.921   8.548   2.732 -0.1881  0.0274 -0.2491
22936SOL    HW186800   0.907   8.596   2.650  1.9812 -0.0840 -0.7598
22936SOL    HW286801   0.953   8.614   2.793 -1.5095  0.0490  0.4593
22937SOL     OW86802  11.945  11.429   6.383 -0.0082 -0.0015 -0.2747
22937SOL    HW186803  12.015  11.363   6.375  0.4117  0.3520  0.3614
22937SOL    HW286804  11.991  11.510   6.405 -0.6700  0.0351  1.1165
22938SOL     OW86805   2.680   4.800  12.453  0.2932 -0.7119  0.3474
22938SOL    HW186806   2.771   4.788  12.481  0.1141  0.5185  1.5524
22938SOL    HW286807   2.669   4.737  12.381  2.5657  0.2313 -0.9564
22939SOL     OW86808  13.121   1.071   8.788  0.2565  0.4184 -0.3781
22939SOL    HW186809  13.141   0.993   8.841  1.3857 -0.0634 -1.4608
22939SOL    HW286810  13.127   1.040   8.697 -2.0125  1.1244 -0.8363
22940SOL     OW86811   2.575   6.314   8.303 -0.1799  0.5068 -0.0065
22940SOL    HW186812   2.562   6.334   8.210  0.7444  0.6049 -0.1233
22940SOL    HW286813   2.486   6.304   8.338 -0.5572 -3.1911 -1.6502
22941SOL     OW86814   9.557  10.055   9.509 -0.5844  0.5575 -0.6164
22941SOL    HW186815   9.530  10.012   9.428  3.4693 -0.0761 -1.8848
22941SOL    HW286816   9.525  10.145   9.502 -3.5398 -0.4204 -1.0187
22942SOL     OW86817  13.239   0.332   1.939 -0.6783  0.1809  0.1770
22942SOL    HW186818  13.226   0.353   1.846 -0.7693 -0.4071  0.0527
22942SOL    HW286819  13.170   0.270   1.960  1.3466 -2.4412 -0.3116
22943SOL     OW86820   3.570   0.601  10.231  0.0189 -0.0602 -0.0960
22943SOL    HW186821   3.477   0.618  10.245 -0.0119  0.3601 -0.7570
22943SOL    HW286822   3.594   0.539  10.300  0.0504  2.3979  2.2753
22944SOL     OW86823   8.981  11.659   9.399  0.3869 -0.0108 -0.7494
22944SOL    HW186824   9.061  11.697   9.435  0.6409  0.4095 -1.7144
22944SOL    HW286825   8.931  11.734   9.367  0.2064 -0.3697 -1.3267
22945SOL     OW86826  10.404   5.664   5.889 -0.0621  0.7195 -0.3489
22945SOL    HW186827  10.385   5.648   5.982  1.0055  3.9065  0.5504
22945SOL    HW286828  10.497   5.686   5.887  0.5430 -1.6441 -2.6309
22946SOL     OW86829   9.209   2.229   8.972  0.2947  0.3153 -0.3443
22946SOL    HW186830   9.212   2.323   8.992  1.2939  0.4026 -0.8518
22946SOL    HW286831   9.286   2.193   9.016  0.2203 -0.1746 -0.6179
22947SOL     OW86832  11.202   7.935   1.225  0.1764  0.8313 -0.0060
22947SOL    HW186833  11.189   7.955   1.317  1.5602 -0.8281  0.6006
22947SOL    HW286834  11.270   7.996   1.196  1.4841 -0.1963  0.7603
22948SOL     OW86835   4.431   4.320  13.720 -0.1291  0.3530  0.2408
22948SOL    HW186836   4.487   4.391  13.690  1.9276 -1.1437  0.3441
22948SOL    HW286837   4.376   4.298  13.644  1.3867  0.0273 -0.7931
22949SOL     OW86838   8.038  12.565   1.666 -0.3345 -0.1234  0.3798
22949SOL    HW186839   7.961  12.608   1.702 -1.1150 -0.4688 -0.8218
22949SOL    HW286840   8.007  12.524   1.586  1.5600  1.6849 -1.4137
22950SOL     OW86841   7.779   2.561   7.554 -0.6692 -0.2538 -0.0555
22950SOL    HW186842   7.762   2.592   7.643  0.5954  0.7990 -0.1519
22950SOL    HW286843   7.695   2.570   7.509 -1.3988 -1.0595  1.0823
22951SOL     OW86844  14.046   8.496   4.081  0.5171 -0.7468 -0.4983
22951SOL    HW186845  14.082   8.428   4.139  0.0914  0.7130  1.5770
22951SOL    HW286846  14.088   8.577   4.110 -2.1007  0.5444 -0.0051
22952SOL     OW86847   0.804   5.597   1.603  0.2537 -0.1585  0.3310
22952SOL    HW186848   0.882   5.650   1.592  1.2821 -1.7581 -0.5140
22952SOL    HW286849   0.836   5.512   1.634 -1.1192 -0.8807 -0.1102
22953SOL     OW86850  10.545   9.139   2.575 -0.4387 -0.2780 -0.0246
22953SOL    HW186851  10.454   9.157   2.595 -0.5310  0.7501 -1.2659
22953SOL    HW286852  10.542   9.078   2.502 -0.1378 -0.2222 -0.0854
22954SOL     OW86853  11.434   3.996   8.658  0.3316  0.5301 -0.0287
22954SOL    HW186854  11.445   3.977   8.751  0.4738  0.2494 -0.1017
22954SOL    HW286855  11.491   4.072   8.643  0.1382  0.7131  0.1596
22955SOL     OW86856   0.741   5.590  10.301  0.3136 -0.0860 -0.1110
22955SOL    HW186857   0.725   5.500  10.273 -0.5221  0.2114 -0.5996
22955SOL    HW286858   0.787   5.580  10.385  1.1037 -0.9651 -0.6244
22956SOL     OW86859  12.805   8.551   1.794 -0.4916  0.1747  0.3830
22956SOL    HW186860  12.720   8.554   1.837  0.3538 -1.0476  2.3091
22956SOL    HW286861  12.861   8.502   1.855  1.1852 -0.4440 -1.5246
22957SOL     OW86862  10.678   8.472  13.087  0.5212  0.7164  0.3297
22957SOL    HW186863  10.633   8.557  13.086 -0.0041  0.4648  1.4733
22957SOL    HW286864  10.690   8.452  13.179  0.8692 -0.3441  0.0641
22958SOL     OW86865   6.302   8.628   2.345 -0.4881  0.2948 -0.8965
22958SOL    HW186866   6.246   8.662   2.414  1.5647  0.8257  0.6068
22958SOL    HW286867   6.344   8.551   2.384 -0.0006  0.0400 -1.8888
22959SOL     OW86868   2.362  11.255  11.613 -0.1500 -0.0952 -0.0246
22959SOL    HW186869   2.307  11.331  11.633 -0.6719 -0.3607 -0.4323
22959SOL    HW286870   2.325  11.184  11.665 -1.6106 -0.8250 -1.9490
22960SOL     OW86871  12.116   7.940   6.882 -0.0849 -0.2175 -0.8274
22960SOL    HW186872  12.027   7.938   6.919  0.4922 -1.0120  0.5455
22960SOL    HW286873  12.122   8.028   6.843 -1.3101  0.0258 -0.5345
22961SOL     OW86874   9.720   5.777   2.286 -0.3578 -0.1442 -0.5106
22961SOL    HW186875   9.702   5.683   2.283  1.2450 -0.4569 -2.1958
22961SOL    HW286876   9.791   5.790   2.223 -1.5307  2.4310 -1.4277
22962SOL     OW86877   0.752  11.063   5.227  0.1692 -0.1746 -0.1451
22962SOL    HW186878   0.797  11.133   5.275 -1.4403  0.7881  0.0335
22962SOL    HW286879   0.666  11.058   5.267 -0.3394 -1.1042 -1.2888
22963SOL     OW86880   4.680  11.233  11.439 -0.4707 -0.2751 -0.1398
22963SOL    HW186881   4.748  11.170  11.462 -0.3525 -0.3818 -0.7817
22963SOL    HW286882   4.614  11.182  11.393 -0.4157  0.0509 -0.5894
22964SOL     OW86883  10.742   9.260   9.681 -0.0221  0.3654 -0.2948
22964SOL    HW186884  10.699   9.260   9.767 -1.4725  0.5480 -0.9902
22964SOL    HW286885  10.671   9.277   9.619  1.1266  0.9997 -1.4779
22965SOL     OW86886   4.854   5.399  10.402  0.2651  0.5606 -0.2061
22965SOL    HW186887   4.781   5.352  10.443 -0.5328  1.9819  0.0898
22965SOL    HW286888   4.812   5.471  10.355  1.5787  3.3295  2.5332
22966SOL     OW86889  13.761   0.384  13.668 -0.5060  0.1604  0.7722
22966SOL    HW186890  13.690   0.326  13.696  0.6431 -2.0833 -0.6672
22966SOL    HW286891  13.745   0.400  13.575 -0.5873  1.9276  1.0486
22967SOL     OW86892   4.788  10.102   8.770 -0.3761  0.3475  0.3379
22967SOL    HW186893   4.836  10.167   8.719 -1.6133  0.0920 -1.2278
22967SOL    HW286894   4.847  10.078   8.841  2.1237 -0.4631 -1.8502
22968SOL     OW86895  11.514   6.666   3.274 -0.0480  0.2631  0.1448
22968SOL    HW186896  11.597   6.706   3.249 -0.8644  1.8991 -0.1340
22968SOL    HW286897  11.487   6.615   3.197  0.1081  0.7433 -0.2297
22969SOL     OW86898   6.062   2.834   2.142 -0.1059  0.4037 -0.4607
22969SOL    HW186899   5.998   2.842   2.213 -0.4166  0.6288 -0.7579
22969SOL    HW286900   6.114   2.915   2.147  0.1661  0.2121 -0.2077
22970SOL     OW86901   3.253  11.337   1.548 -0.0017 -0.4959 -0.4873
22970SOL    HW186902   3.268  11.336   1.454 -0.5475  0.0008 -0.5819
22970SOL    HW286903   3.217  11.423   1.566  0.0189 -0.6193  0.1655
22971SOL     OW86904   9.716   9.101  10.086  0.2503 -0.0276 -0.4641
22971SOL    HW186905   9.795   9.118  10.034  1.6453 -0.0408  1.5001
22971SOL    HW286906   9.728   9.156  10.164 -0.4598 -1.9061  1.0200
22972SOL     OW86907   2.215   6.896  10.858 -0.7394  0.2174 -0.3135
22972SOL    HW186908   2.299   6.890  10.812 -0.9334 -0.1280 -0.6377
22972SOL    HW286909   2.205   6.988  10.880 -1.5539  0.7958 -2.7306
22973SOL     OW86910   0.931  11.693   9.024 -0.0236  0.2752  0.3229
22973SOL    HW186911   1.024  11.709   9.008  0.4772 -2.8466 -0.5943
22973SOL    HW286912   0.916  11.725   9.113  2.0141  0.5582  0.6057
22974SOL     OW86913   4.637   4.301   0.725 -0.2621  0.2872 -0.2636
22974SOL    HW186914   4.666   4.392   0.726  1.0177 -0.1016  0.0582
22974SOL    HW286915   4.544   4.306   0.706 -0.5927  1.7698  1.4328
22975SOL     OW86916   4.697   7.686  11.605 -0.1384 -0.1913 -0.2358
22975SOL    HW186917   4.741   7.683  11.521 -1.9339  0.5450 -1.2620
22975SOL    HW286918   4.604   7.698  11.583 -0.7540 -0.7698  1.8198
22976SOL     OW86919  10.008   1.511   8.144 -0.5580 -0.2722  0.5305
22976SOL    HW186920  10.007   1.534   8.237 -0.1568  1.1927  0.1958
22976SOL    HW286921   9.916   1.496   8.123 -0.8596  1.0049  0.8124
22977SOL     OW86922  11.372  13.132   6.421 -0.1216  0.3630 -0.0909
22977SOL    HW186923  11.407  13.066   6.481 -0.1854  1.1114  0.7927
22977SOL    HW286924  11.384  13.094   6.334 -1.2328 -1.3370  0.4328
22978SOL     OW86925   0.963  10.392  11.381  0.3479  0.1384 -0.1204
22978SOL    HW186926   1.041  10.438  11.412 -0.1056  0.7266  0.1979
22978SOL    HW286927   0.907  10.385  11.459 -0.8422  1.7000 -0.7639
22979SOL     OW86928   2.101   5.723   1.085  0.2716 -0.4303 -0.4010
22979SOL    HW186929   2.067   5.656   1.144  0.7614 -0.4965 -0.1809
22979SOL    HW286930   2.170   5.766   1.136  0.9422 -0.7177 -1.0433
22980SOL     OW86931   5.520  13.902   8.108  0.0490 -0.2439  0.2601
22980SOL    HW186932   5.515  13.869   8.018 -0.2043  0.2092  0.1059
22980SOL    HW286933   5.485  13.831   8.162 -2.0839  0.3612 -0.2137
22981SOL     OW86934  10.525  13.808   3.025  0.0031 -0.6902  0.5761
22981SOL    HW186935  10.444  13.857   3.041  0.7731  0.4110  1.1833
22981SOL    HW286936  10.528  13.743   3.095 -0.4187 -0.8279  0.4696
22982SOL     OW86937   0.388   0.224   6.347 -0.6414 -0.0722  0.0364
22982SOL    HW186938   0.391   0.169   6.268 -0.5321 -0.4908  0.3297
22982SOL    HW286939   0.431   0.305   6.321 -1.5379  0.1975 -0.6473
22983SOL     OW86940   8.482  11.870   0.578  0.0324 -0.6842 -0.2113
22983SOL    HW186941   8.434  11.839   0.655  0.7122 -0.2743  0.3958
22983SOL    HW286942   8.505  11.961   0.599  1.6272 -1.0624 -0.1966
22984SOL     OW86943  13.488  10.095   9.179  0.0502  0.0099  0.3344
22984SOL    HW186944  13.416  10.049   9.222 -0.4843  1.4591  1.0580
22984SOL    HW286945  13.471  10.188   9.196  1.7121  0.4287 -0.0775
22985SOL     OW86946   4.033   0.069   8.145  0.0530  0.5014 -0.2634
22985SOL    HW186947   4.044   0.011   8.221  0.7900  1.1616  0.1440
22985SOL    HW286948   3.952   0.039   8.104 -0.7213  0.5358  1.1594
22986SOL     OW86949   5.314   9.385   0.153 -0.0068  0.1189 -0.0506
22986SOL    HW186950   5.351   9.370   0.240  1.2734  0.0132 -0.5906
22986SOL    HW286951   5.296   9.297   0.120  1.5592  0.0376 -0.7352
22987SOL     OW86952   5.951  10.895   0.635  0.3711  0.3186 -0.1938
22987SOL    HW186953   5.886  10.830   0.608  0.3396 -0.8094  2.3292
22987SOL    HW286954   5.970  10.944   0.555 -1.8664 -0.8017 -1.5177
22988SOL     OW86955  10.593  14.125   7.663  0.5435  0.2087 -0.4101
22988SOL    HW186956  10.584  14.055   7.727 -1.5774  0.8604  0.0782
22988SOL    HW286957  10.582  14.081   7.578  0.4822 -0.2321 -0.1760
22989SOL     OW86958   9.735  11.290   2.710 -0.7104  0.1222 -0.1015
22989SOL    HW186959   9.695  11.377   2.716 -0.1287  0.2831  2.7485
22989SOL    HW286960   9.675  11.232   2.757  1.0656 -0.0746  2.0971
22990SOL     OW86961   7.319  10.136  11.968 -0.1091 -0.1172 -0.2838
22990SOL    HW186962   7.307  10.047  12.001  1.5923 -0.3253 -0.1537
22990SOL    HW286963   7.391  10.129  11.906  0.8808  1.3748  0.6456
22991SOL     OW86964   2.148   4.748   0.756  0.0914  0.0769  0.5215
22991SOL    HW186965   2.076   4.717   0.812  0.4313  0.1287  0.9944
22991SOL    HW286966   2.193   4.668   0.729  0.0411  0.0648  0.4717
22992SOL     OW86967  13.477   6.201   7.155 -0.0477 -0.5204 -0.3432
22992SOL    HW186968  13.385   6.222   7.173  0.2920  1.6192 -0.9369
22992SOL    HW286969  13.524   6.231   7.233  0.1362 -2.2119  0.2534
22993SOL     OW86970  13.293   3.176   8.321  0.0168  0.1331  0.3255
22993SOL    HW186971  13.207   3.218   8.318  0.6678  1.4596 -0.6846
22993SOL    HW286972  13.274   3.082   8.319 -1.4096  0.4087  0.1009
22994SOL     OW86973  11.169   6.575   5.939 -0.1495  0.2439 -0.2207
22994SOL    HW186974  11.217   6.503   5.979  0.4834  1.2799  0.9314
22994SOL    HW286975  11.114   6.610   6.009 -0.8610  0.5505 -0.9105
22995SOL     OW86976  10.385   1.186   2.578  0.4347  0.2392  0.0776
22995SOL    HW186977  10.477   1.171   2.557  0.6952 -0.4719  1.5428
22995SOL    HW286978  10.360   1.263   2.527  1.4960 -0.2630 -1.2543
22996SOL     OW86979   9.012   2.305  12.966 -0.0840  0.3378 -0.1377
22996SOL    HW186980   9.003   2.210  12.967 -2.6173  0.4997 -0.2641
22996SOL    HW286981   9.029   2.327  12.875  1.0448  0.0104 -0.0247
22997SOL     OW86982  10.569  10.583  10.263 -0.2485 -0.7766  0.0463
22997SOL    HW186983  10.490  10.595  10.210 -0.1595  0.1700  0.1088
22997SOL    HW286984  10.542  10.525  10.334 -0.2442 -2.5011 -1.2953
22998SOL     OW86985   1.046   3.295   9.356 -0.3634  0.1403 -0.6543
22998SOL    HW186986   1.052   3.390   9.370  1.9285  0.1492 -1.3379
22998SOL    HW286987   1.058   3.257   9.443  0.2352  0.4693 -0.5855
22999SOL     OW86988   5.826  13.522  11.349  0.0086  0.5105 -0.2730
22999SOL    HW186989   5.751  13.562  11.306 -0.3269 -0.2310 -0.4001
22999SOL    HW286990   5.795  13.502  11.438  0.1507  0.4841 -0.2293
23000SOL     OW86991  12.027   5.793  13.294 -0.0346  0.2641  0.5042
23000SOL    HW186992  12.051   5.874  13.338  1.2866 -0.5632  1.3841
23000SOL    HW286993  12.110   5.757  13.261 -0.6945 -0.3268 -0.6155
23001SOL     OW86994   6.884  12.962   5.766 -0.0254 -0.0781 -0.0884
23001SOL    HW186995   6.902  12.900   5.696 -0.2321  1.0887 -1.2002
23001SOL    HW286996   6.800  12.934   5.802 -0.1058 -0.4403 -0.5550
23002SOL     OW86997   8.800   8.855   1.818 -0.5121 -0.0332  0.1455
23002SOL    HW186998   8.853   8.928   1.851  0.7618 -0.7326 -0.2858
23002SOL    HW286999   8.837   8.777   1.861  0.0526 -0.7609 -1.5895
23003SOL     OW87000  10.987   5.026   5.180  0.6146 -0.4387  0.3488
23003SOL    HW187001  10.919   4.962   5.159  0.3893  0.1545 -0.8048
23003SOL    HW287002  11.057   5.009   5.116  0.9856 -0.1863  0.6823
23004SOL     OW87003   6.916   6.505   7.761  0.0932  0.5213 -0.5417
23004SOL    HW187004   6.917   6.410   7.771  0.3750  0.6766  1.3805
23004SOL    HW287005   6.995   6.526   7.712  0.4417 -0.1809 -0.2768
23005SOL     OW87006   0.616  11.922  11.770  0.7757 -0.2427 -0.2190
23005SOL    HW187007   0.561  11.879  11.835  0.6869  0.9536  0.5280
23005SOL    HW287008   0.566  12.000  11.745  1.0312 -0.4334 -1.3773
23006SOL     OW87009   1.020   6.104   2.072 -0.0533 -0.0344 -0.6231
23006SOL    HW187010   0.971   6.182   2.095 -0.1029 -0.1214 -0.4279
23006SOL    HW287011   0.966   6.059   2.008 -1.3952 -1.3572  1.3388
23007SOL     OW87012   0.052   8.304   2.152  0.3370 -0.1219 -0.1117
23007SOL    HW187013   0.032   8.394   2.126 -0.4961 -0.6695 -1.4503
23007SOL    HW287014  -0.019   8.280   2.213  0.6321  0.1499  0.3501
23008SOL     OW87015  12.826   5.081  13.630 -0.2511 -0.3916  0.4141
23008SOL    HW187016  12.910   5.102  13.588 -0.6583  0.7329  0.1124
23008SOL    HW287017  12.845   5.085  13.724 -0.4315  2.1912  0.4111
23009SOL     OW87018   2.462  12.065  11.878  0.3279  0.5364 -0.0245
23009SOL    HW187019   2.528  12.081  11.810  0.7143  0.7750  0.4001
23009SOL    HW287020   2.494  12.114  11.954 -0.5566  1.0093  0.0633
23010SOL     OW87021   3.206  10.884   9.536  0.1288 -0.2210  0.0224
23010SOL    HW187022   3.140  10.815   9.544  1.1981 -1.4641 -1.3721
23010SOL    HW287023   3.185  10.927   9.453  1.2602 -0.8704 -0.6194
23011SOL     OW87024   4.267  10.885  12.430  0.0650  0.2399 -0.0759
23011SOL    HW187025   4.201  10.822  12.401  0.4014 -0.8629  1.4111
23011SOL    HW287026   4.343  10.866  12.374 -0.3009  0.2965 -0.5971
23012SOL     OW87027  14.022  13.165   6.870  0.6774  0.2818 -0.3359
23012SOL    HW187028  14.086  13.150   6.940 -0.0748  1.9384  0.7723
23012SOL    HW287029  13.942  13.122   6.901  0.9515 -0.9444 -1.2669
23013SOL     OW87030   0.868  12.723  11.625  0.2280 -0.1835 -0.2838
23013SOL    HW187031   0.910  12.802  11.658 -0.8775  0.5581 -0.5883
23013SOL    HW287032   0.792  12.710  11.683  0.9202 -1.5696  0.3525
23014SOL     OW87033   1.678   6.353  10.823  0.9041 -0.1976  0.2980
23014SOL    HW187034   1.725   6.299  10.887 -0.0020 -3.6034 -1.6663
23014SOL    HW287035   1.588   6.357  10.857  0.3543 -2.2403 -0.7131
23015SOL     OW87036  11.660  13.691   8.332  0.4000  0.6611  0.2857
23015SOL    HW187037  11.686  13.619   8.274  0.9417  1.0559  0.0173
23015SOL    HW287038  11.600  13.652   8.395  0.9511 -0.0953  0.3501
23016SOL     OW87039   6.633  11.127   4.207  0.0617 -0.3494 -0.4532
23016SOL    HW187040   6.724  11.106   4.228  0.4407 -0.1086 -1.7635
23016SOL    HW287041   6.639  11.200   4.145 -1.0849  0.7398  0.6484
23017SOL     OW87042  12.072  11.191  13.202  0.0011  0.7039 -0.0004
23017SOL    HW187043  12.121  11.180  13.121 -1.2589 -0.3296 -0.6467
23017SOL    HW287044  12.110  11.269  13.243  2.2703 -0.1537 -0.3820
23018SOL     OW87045   9.350   2.621  11.955 -0.0499  0.3500 -0.6883
23018SOL    HW187046   9.262   2.587  11.975 -0.1486  0.7014 -0.5283
23018SOL    HW287047   9.342   2.661  11.869 -0.0032  0.2241 -0.7516
23019SOL     OW87048   3.650   8.830   2.924 -0.1136 -0.7449  0.2716
23019SOL    HW187049   3.731   8.813   2.973 -0.5791 -0.7952  1.0365
23019SOL    HW287050   3.676   8.826   2.832  0.6080 -1.4772  0.5045
23020SOL     OW87051  13.725  13.193  13.878 -0.2600 -0.3954  0.3627
23020SOL    HW187052  13.646  13.194  13.932  0.2307  4.3516  1.4456
23020SOL    HW287053  13.697  13.229  13.794  0.3945 -0.7369 -0.0101
23021SOL     OW87054   1.922   0.225  10.933 -0.1156 -0.3052  0.5307
23021SOL    HW187055   2.005   0.196  10.896 -1.1549 -1.9110 -0.7036
23021SOL    HW287056   1.913   0.174  11.014 -0.4625 -1.0955  0.0066
23022SOL     OW87057  10.465   0.376   8.884 -0.4794 -0.3462 -0.4206
23022SOL    HW187058  10.462   0.297   8.938 -0.0607 -0.8582 -1.1270
23022SOL    HW287059  10.476   0.448   8.947 -1.9056 -0.7345  0.3038
23023SOL     OW87060  10.943  11.323   1.086 -0.5125  0.8818  0.1786
23023SOL    HW187061  10.882  11.331   1.013 -0.4455  2.6994  0.2814
23023SOL    HW287062  10.887  11.304   1.162 -0.7764  0.8492 -0.0227
23024SOL     OW87063  12.655  12.755   3.394 -0.2504  0.5812 -0.3731
23024SOL    HW187064  12.705  12.836   3.405  1.7008 -0.2166 -2.4650
23024SOL    HW287065  12.718  12.693   3.356 -2.2862 -1.2111 -1.0432
23025SOL     OW87066  12.379   2.129  12.319 -0.2155 -0.0955  0.3942
23025SOL    HW187067  12.378   2.070  12.395  0.9570  0.9203  1.2578
23025SOL    HW287068  12.424   2.208  12.351  1.2007 -0.0013 -1.6234
23026SOL     OW87069   8.965   5.402   0.612  0.3373  0.3579 -0.4401
23026SOL    HW187070   8.924   5.402   0.699  1.9929 -0.9547  0.3912
23026SOL    HW287071   8.964   5.493   0.585 -1.0502  0.6680  0.5367
23027SOL     OW87072   8.848   6.567  10.527 -0.3340  0.3900  0.2279
23027SOL    HW187073   8.821   6.615  10.449 -0.7706 -1.3840 -0.7636
23027SOL    HW287074   8.936   6.534  10.505  0.0127  0.8054  0.9445
23028SOL     OW87075   0.950  13.021   9.900 -0.0913 -0.1188  0.5279
23028SOL    HW187076   1.012  12.947   9.900 -0.1241 -0.1528  1.6878
23028SOL    HW287077   0.873  12.986   9.854  0.3645 -0.3978 -0.0410
23029SOL     OW87078   2.445   4.464   0.409 -0.2354  0.2746  0.0121
23029SOL    HW187079   2.455   4.464   0.314 -1.5801  0.8848 -0.1585
23029SOL    HW287080   2.375   4.400   0.425  0.8994 -0.8266  0.7299
23030SOL     OW87081   2.017  11.463   4.875 -0.0190 -0.3129 -0.4002
23030SOL    HW187082   2.097  11.410   4.865  0.6943  0.8815 -1.2357
23030SOL    HW287083   2.044  11.536   4.931 -1.0259 -0.8537  0.8361
23031SOL     OW87084   9.986   9.353   4.922 -0.4504  0.2677 -0.0762
23031SOL    HW187085  10.018   9.264   4.911 -2.5253 -0.8086  1.9660
23031SOL    HW287086  10.064   9.403   4.948  1.0447 -0.5209 -2.6609
23032SOL     OW87087   9.222   3.577   5.431 -0.2830 -0.3143  1.0177
23032SOL    HW187088   9.160   3.639   5.470  0.8693  0.0552  2.3491
23032SOL    HW287089   9.286   3.561   5.500  1.8400  0.3201 -0.6819
23033SOL     OW87090  14.143   7.151  13.129  0.0009  0.3018 -0.4746
23033SOL    HW187091  14.213   7.087  13.138 -0.9940 -0.8985 -1.1087
23033SOL    HW287092  14.075   7.107  13.078 -1.3077  1.3567  0.2694
23034SOL     OW87093   3.143   2.876   6.897 -0.0270  0.0214  0.6084
23034SOL    HW187094   3.160   2.793   6.941  0.9385 -0.1213 -0.0104
23034SOL    HW287095   3.225   2.897   6.851 -0.3958  1.0923  0.3953
23035SOL     OW87096   5.455  12.157   6.240 -0.3870 -0.0039  0.1663
23035SOL    HW187097   5.497  12.217   6.178  0.9688  1.1694  2.1047
23035SOL    HW287098   5.478  12.070   6.209  1.1250  0.5750 -0.4172
23036SOL     OW87099  12.136   6.060  10.367  0.5503  0.2015 -0.5552
23036SOL    HW187100  12.048   6.096  10.356  0.5655 -0.2411 -2.5928
23036SOL    HW287101  12.122   5.965  10.368  1.0053  0.1241 -1.1054
23037SOL     OW87102  13.343   4.559   4.202 -0.2451  0.1050 -0.5197
23037SOL    HW187103  13.435   4.574   4.181 -0.2352  1.8406  0.5806
23037SOL    HW287104  13.340   4.563   4.298 -1.4512 -0.0476 -0.5382
23038SOL     OW87105   5.879   7.766  12.164 -0.5561 -0.3230 -0.7474
23038SOL    HW187106   5.857   7.802  12.077  0.0777  0.5572 -0.5602
23038SOL    HW287107   5.824   7.689  12.173 -0.7064 -0.3616 -1.8962
23039SOL     OW87108   3.488   8.239   7.894  0.2392  0.0040 -0.2242
23039SOL    HW187109   3.393   8.248   7.901  0.1691 -0.9099  0.1787
23039SOL    HW287110   3.523   8.310   7.949 -0.1944  0.6592 -0.7842
23040SOL     OW87111  10.352  10.208  12.747 -0.0862 -0.2408  0.0653
23040SOL    HW187112  10.430  10.156  12.768 -0.7227 -1.5542 -0.7066
23040SOL    HW287113  10.364  10.233  12.656 -0.0893  0.4387  0.2490
23041SOL     OW87114  13.074   9.045  11.634 -0.1839 -0.2266  0.2305
23041SOL    HW187115  13.107   9.017  11.719 -0.1930  0.9781  0.6524
23041SOL    HW287116  13.074   9.141  11.638  1.6149 -0.0495 -1.7949
23042SOL     OW87117   5.452  13.840   1.832 -0.2101  0.3631  0.4462
23042SOL    HW187118   5.476  13.784   1.758  3.6481 -1.0631  2.5138
23042SOL    HW287119   5.383  13.791   1.878 -0.4250 -0.2366 -0.4855
23043SOL     OW87120   8.412   0.299   8.870  0.4007  0.2070 -0.1109
23043SOL    HW187121   8.415   0.244   8.792 -0.3076  0.9250 -0.6733
23043SOL    HW287122   8.501   0.331   8.881  0.6624 -0.4879 -0.1885
23044SOL     OW87123   4.269   8.181   1.258  0.5767  0.4240  0.4811
23044SOL    HW187124   4.361   8.205   1.267  0.6423  0.6612 -0.6752
23044SOL    HW287125   4.235   8.243   1.194 -0.0978 -0.4074  0.0256
23045SOL     OW87126   1.871   2.543   2.349  0.0907 -0.7159 -0.1908
23045SOL    HW187127   1.847   2.553   2.257  0.4559 -1.4699 -0.3701
23045SOL    HW287128   1.815   2.472   2.381 -0.7851  0.2371  0.4521
23046SOL     OW87129   6.747   8.097   2.765 -0.0296 -0.3564  0.1486
23046SOL    HW187130   6.737   8.124   2.674  0.4669 -0.3515  0.0968
23046SOL    HW287131   6.758   8.179   2.814 -1.6575 -0.2409  0.4076
23047SOL     OW87132   3.284  10.926   5.645  0.5876 -0.6028  0.1194
23047SOL    HW187133   3.253  10.895   5.560 -0.8779 -3.0782  1.4073
23047SOL    HW287134   3.216  10.897   5.707  0.2813  3.3404  1.9102
23048SOL     OW87135   3.021  12.153  13.324  0.0951  0.3802  0.1537
23048SOL    HW187136   3.030  12.077  13.380 -0.9770  0.9659  1.1519
23048SOL    HW287137   3.029  12.119  13.235  2.6286 -0.4506  0.6168
23049SOL     OW87138   0.270   3.041   3.517 -0.6653 -0.2202 -0.4227
23049SOL    HW187139   0.257   3.133   3.492  1.2575  0.2404  0.1646
23049SOL    HW287140   0.338   3.043   3.584 -1.8689 -1.9335  0.9630
23050SOL     OW87141  11.991   7.309   7.116  0.2676  0.1913 -0.4798
23050SOL    HW187142  11.940   7.371   7.063  1.9294  1.3405 -0.8100
23050SOL    HW287143  11.939   7.298   7.196 -1.2086  0.1524 -1.4121
23051SOL     OW87144   2.590  10.201   4.855  0.1077  0.5516 -0.1403
23051SOL    HW187145   2.513  10.232   4.902  0.2537  0.8107 -0.0703
23051SOL    HW287146   2.653  10.178   4.923  0.3502  1.0092 -0.2078
23052SOL     OW87147   9.837  13.838   9.268  0.1460  0.2107  0.2849
23052SOL    HW187148   9.924  13.871   9.290  0.0279  0.3525  0.5533
23052SOL    HW287149   9.854  13.757   9.220  0.4237 -0.2438  1.1167
23053SOL     OW87150   4.039   8.593  11.771  0.2507  0.1149  0.2521
23053SOL    HW187151   4.091   8.614  11.694 -0.0973  2.1066  0.4993
23053SOL    HW287152   4.091   8.625  11.845 -0.5177  0.5219  0.6346
23054SOL     OW87153  13.586   7.869   9.814 -0.9185 -0.4176  0.5105
23054SOL    HW187154  13.552   7.894   9.900  0.6328  0.3421  0.9343
23054SOL    HW287155  13.521   7.903   9.752 -1.2351  0.4692  1.3090
23055SOL     OW87156   1.593   8.209   1.375 -0.0072  0.2408 -0.0037
23055SOL    HW187157   1.543   8.239   1.451 -4.6858 -1.1073 -2.1143
23055SOL    HW287158   1.621   8.121   1.398 -2.5269 -0.6767 -0.1116
23056SOL     OW87159   7.399   8.202   9.239 -0.4197 -0.3825 -0.2400
23056SOL    HW187160   7.318   8.210   9.190 -0.1448  0.3896 -0.5794
23056SOL    HW287161   7.374   8.159   9.321 -1.5516  1.6873  0.5656
23057SOL     OW87162   5.507   0.376   6.201  0.4927  0.5515 -0.2142
23057SOL    HW187163   5.464   0.290   6.201 -0.7362  1.1236 -1.6930
23057SOL    HW287164   5.580   0.366   6.262 -0.3603 -1.1636  0.6097
23058SOL     OW87165   1.998   5.462  12.443  0.2606  0.3100 -0.0368
23058SOL    HW187166   2.053   5.498  12.374  0.5872  0.3768  0.2563
23058SOL    HW287167   2.059   5.426  12.507 -0.0686 -2.0304 -0.9523
23059SOL     OW87168  10.618   0.591  10.691  0.3204 -0.2577  0.5297
23059SOL    HW187169  10.591   0.521  10.631 -0.3659  0.1611  0.3441
23059SOL    HW287170  10.543   0.604  10.748  0.6202  0.0041  0.8652
23060SOL     OW87171  12.263  10.650   0.305  0.5088  0.8897 -0.5515
23060SOL    HW187172  12.236  10.729   0.258  2.9031  0.4581 -2.9345
23060SOL    HW287173  12.321  10.682   0.374  1.4192  1.2775 -1.4683
23061SOL     OW87174   6.408  11.650   0.050 -0.1733  0.1736 -0.3263
23061SOL    HW187175   6.372  11.736   0.032 -1.9093 -0.7207 -1.4594
23061SOL    HW287176   6.347  11.589   0.009  0.6431 -1.6422  0.9825
23062SOL     OW87177   1.076   0.906   2.510 -0.8492 -0.1367 -0.0890
23062SOL    HW187178   1.142   0.840   2.529 -0.8784 -0.3151 -0.5835
23062SOL    HW287179   1.050   0.888   2.420 -0.5036  0.8506 -0.3992
23063SOL     OW87180   7.937   3.247   3.532 -0.4394  0.2551  0.2093
23063SOL    HW187181   7.848   3.213   3.526  0.3781 -2.1467  0.3293
23063SOL    HW287182   7.983   3.208   3.457  0.7517  0.5681  0.7477
23064SOL     OW87183   5.853   6.566   4.384 -0.3333  0.2956  0.1601
23064SOL    HW187184   5.799   6.552   4.307  1.5221 -1.2969 -0.9440
23064SOL    HW287185   5.817   6.645   4.425 -0.6119  2.0073 -3.0599
23065SOL     OW87186   8.461   4.460   5.971  0.2251 -0.1723 -0.5771
23065SOL    HW187187   8.484   4.534   6.028 -0.9707 -0.2373  0.0250
23065SOL    HW287188   8.399   4.409   6.023 -0.1685 -0.7436 -1.5903
23066SOL     OW87189   5.711  11.537   0.917  0.4164  0.4688 -0.4514
23066SOL    HW187190   5.714  11.588   0.998  1.9175  1.8072 -1.2923
23066SOL    HW287191   5.799  11.500   0.909  0.2111  0.1471 -1.3308
23067SOL     OW87192  13.040   5.527   1.485  0.3491  0.4517 -0.1415
23067SOL    HW187193  12.985   5.512   1.562  0.9260  1.4518  0.4814
23067SOL    HW287194  12.989   5.492   1.412 -0.3302 -0.2554  0.6501
23068SOL     OW87195  12.948  10.929   8.410 -0.3276  0.3970 -0.2712
23068SOL    HW187196  13.004  10.852   8.404 -1.0300 -0.1189 -0.2830
23068SOL    HW287197  13.008  11.003   8.403  0.3112 -0.1475 -0.6023
23069SOL     OW87198   3.139  12.727  11.556  0.4597 -0.6190 -0.0372
23069SOL    HW187199   3.164  12.637  11.537 -0.2483 -0.6981 -0.6016
23069SOL    HW287200   3.195  12.752  11.631  2.3066 -0.7700 -1.2867
23070SOL     OW87201  14.116  10.079   5.392  0.1141 -0.4945  0.4433
23070SOL    HW187202  14.196  10.041   5.430 -0.0404  0.6815  2.0099
23070SOL    HW287203  14.145  10.162   5.354 -0.6151  0.7728  2.5362
23071SOL     OW87204  11.919   6.090   6.360 -0.5204  0.2602 -0.4250
23071SOL    HW187205  11.951   6.137   6.436  0.5925 -0.7410 -0.2424
23071SOL    HW287206  11.992   6.093   6.297 -0.3111 -1.3747 -0.3171
23072SOL     OW87207   6.929  14.017   0.704  0.1313  0.1517  0.2927
23072SOL    HW187208   6.971  13.948   0.756 -1.4242 -0.4776  0.7723
23072SOL    HW287209   6.922  14.091   0.764 -0.2033 -0.0246  0.4698
23073SOL     OW87210  14.023   6.053   0.652 -0.4731  0.6119 -0.4096
23073SOL    HW187211  13.992   6.041   0.562  0.2557 -0.7916 -0.5015
23073SOL    HW287212  14.112   6.018   0.651 -0.7114 -0.0972  1.0200
23074SOL     OW87213   4.615   3.869  12.610  0.1839  0.0068  0.5025
23074SOL    HW187214   4.531   3.824  12.601  0.4841 -0.9172  1.9649
23074SOL    HW287215   4.668   3.811  12.665  2.3400 -0.1440 -1.5641
23075SOL     OW87216  10.547   4.607  10.151  0.2497 -0.3783 -0.3059
23075SOL    HW187217  10.509   4.620  10.064 -2.4900  0.0319  0.8601
23075SOL    HW287218  10.575   4.695  10.179  0.4990 -0.4022 -0.4731
23076SOL     OW87219   8.312   0.156   6.345  0.0654  0.3138 -0.5514
23076SOL    HW187220   8.316   0.224   6.411 -1.7503  0.4112 -0.4906
23076SOL    HW287221   8.291   0.076   6.394 -1.4848  0.4242 -1.0010
23077SOL     OW87222   6.187   5.102   3.208  0.4134 -1.0353  0.5912
23077SOL    HW187223   6.229   5.032   3.158  0.4377 -0.2105 -0.5911
23077SOL    HW287224   6.105   5.119   3.160  0.7063  0.1628  0.4791
23078SOL     OW87225  10.033   0.954   0.391  0.1484 -0.2101 -0.2328
23078SOL    HW187226  10.128   0.957   0.382  0.2714  0.8180  1.1193
23078SOL    HW287227  10.014   1.012   0.465 -1.5682 -0.0899 -0.7304
23079SOL     OW87228  10.139   7.952   9.131 -0.5432 -0.3158 -0.1145
23079SOL    HW187229  10.087   7.935   9.209 -2.3217  0.4924 -1.0780
23079SOL    HW287230  10.125   7.876   9.075  2.5595 -2.0218  1.1723
23080SOL     OW87231   8.890  10.001   7.246  0.5207 -0.0858  0.0773
23080SOL    HW187232   8.835   9.945   7.301 -2.4193  1.5159 -1.0191
23080SOL    HW287233   8.898  10.083   7.295  1.0184  0.0812 -0.2722
23081SOL     OW87234   1.190   7.178   7.566  0.2581 -0.1026  0.3045
23081SOL    HW187235   1.271   7.187   7.616  0.1493  1.4158  0.2365
23081SOL    HW287236   1.121   7.183   7.632  0.1873 -1.7424  0.4085
23082SOL     OW87237   3.433   4.997   5.754 -0.1919  0.1960 -0.0337
23082SOL    HW187238   3.367   5.032   5.693  0.2305  1.6420  0.2932
23082SOL    HW287239   3.394   4.917   5.788 -0.3905 -0.7628 -2.3085
23083SOL     OW87240   6.127   4.734  13.491 -0.9919 -0.0833 -0.0586
23083SOL    HW187241   6.038   4.766  13.476 -0.3532  1.9351  0.1440
23083SOL    HW287242   6.161   4.789  13.561  1.5078  1.5414 -2.3488
23084SOL     OW87243   8.438   0.177   1.301 -0.2097  0.1725 -0.0907
23084SOL    HW187244   8.480   0.210   1.221 -2.8519  0.2521 -1.5470
23084SOL    HW287245   8.349   0.212   1.297 -0.3479  0.4160  3.0996
23085SOL     OW87246   9.262   0.604   7.311  0.2550 -0.2034  0.3349
23085SOL    HW187247   9.175   0.642   7.306 -0.0122 -0.8394  0.0187
23085SOL    HW287248   9.322   0.677   7.297 -0.2307  0.1980  0.3454
23086SOL     OW87249   0.472   9.800  13.459  0.3710 -0.3545 -0.1187
23086SOL    HW187250   0.561   9.806  13.493  1.0633  0.6585 -1.9845
23086SOL    HW287251   0.437   9.889  13.466 -0.6440 -0.8029  0.8967
23087SOL     OW87252   0.426   1.785   4.251  0.6203 -0.1729  0.1074
23087SOL    HW187253   0.375   1.804   4.329  0.4031 -2.7358  0.6968
23087SOL    HW287254   0.437   1.690   4.253  1.5417 -0.1918 -2.4153
23088SOL     OW87255  13.656   7.596   3.218  0.3412 -0.1987 -0.1575
23088SOL    HW187256  13.744   7.562   3.236  0.2986  0.0457  0.5440
23088SOL    HW287257  13.619   7.612   3.304  1.3786  4.3084 -0.3356
23089SOL     OW87258  12.947   2.699   3.936  0.4754 -0.4611 -0.1906
23089SOL    HW187259  12.929   2.762   3.866  1.4358  1.9037  1.5922
23089SOL    HW287260  13.035   2.721   3.967  0.4411 -2.0347  1.2014
23090SOL     OW87261   0.669   9.504  11.540  0.2645  1.4910 -0.1389
23090SOL    HW187262   0.592   9.561  11.535  0.2322  1.4308 -0.3496
23090SOL    HW287263   0.632   9.415  11.543  0.2831  1.5085  1.0942
23091SOL     OW87264   0.307   7.113  10.987 -0.1673 -0.7824 -0.4327
23091SOL    HW187265   0.322   7.113  10.893  3.5426  0.9866 -0.0119
23091SOL    HW287266   0.386   7.074  11.025 -0.3633  0.9516  2.0171
23092SOL     OW87267   5.178   7.770   2.519 -0.0222  0.0884 -0.5305
23092SOL    HW187268   5.243   7.757   2.450  1.0392 -0.7449  0.5619
23092SOL    HW287269   5.172   7.865   2.529 -0.1375  0.2142 -1.7043
23093SOL     OW87270   6.262  12.571   8.662  0.4553 -0.1851 -0.4050
23093SOL    HW187271   6.341  12.624   8.651  0.6158 -0.4367 -0.4683
23093SOL    HW287272   6.268  12.504   8.594  0.6296 -0.7437  0.1491
23094SOL     OW87273  11.747   3.320  12.006 -0.5936 -0.5217 -0.0457
23094SOL    HW187274  11.760   3.401  11.955 -0.9124 -1.5019 -1.7788
23094SOL    HW287275  11.657   3.325  12.037 -0.5309 -0.0924  0.0730
23095SOL     OW87276   6.068   1.433   2.197  0.3809 -0.4575  1.0192
23095SOL    HW187277   6.035   1.402   2.281  0.2027  0.5600  1.3389
23095SOL    HW287278   6.123   1.509   2.219 -0.6956  0.6293  0.1388
23096SOL     OW87279  10.723  12.628  12.846  0.1768  0.3598  0.5806
23096SOL    HW187280  10.637  12.669  12.855  0.5941  1.6616 -1.0000
23096SOL    HW287281  10.714  12.567  12.773  0.3103 -0.4134  1.1820
23097SOL     OW87282  13.432   8.060   1.301 -0.4828  0.1210 -0.2962
23097SOL    HW187283  13.478   8.112   1.234  0.6941 -1.1282 -0.5020
23097SOL    HW287284  13.352   8.031   1.258  0.2018 -0.5624 -1.1523
23098SOL     OW87285   1.100   9.017   8.854  0.5997 -0.0283 -0.1529
23098SOL    HW187286   1.127   8.977   8.771 -0.6878  1.3546 -1.3025
23098SOL    HW287287   1.006   8.998   8.859  0.6334  0.0519  0.9309
23099SOL     OW87288   9.209   3.243  13.502 -0.3040  0.5589  0.0105
23099SOL    HW187289   9.211   3.288  13.586 -0.1051  1.4014 -0.4329
23099SOL    HW287290   9.275   3.174  13.511 -1.2089 -0.2152  0.9885
23100SOL     OW87291  10.182   9.446   3.583 -0.4984 -0.0945  0.2702
23100SOL    HW187292  10.230   9.464   3.502 -1.5904  0.5331 -0.2586
23100SOL    HW287293  10.130   9.368   3.563 -1.8795  0.8915 -0.1639
23101SOL     OW87294   0.181  13.581   7.514 -0.5030  0.0724 -0.5383
23101SOL    HW187295   0.266  13.559   7.554 -0.3118 -3.4117 -2.4517
23101SOL    HW287296   0.197  13.663   7.468  1.8153 -0.3716 -0.6577
23102SOL     OW87297  10.100   4.409   9.000  0.3130  0.4243 -0.2379
23102SOL    HW187298  10.173   4.448   8.951  0.8485  1.3513  1.2264
23102SOL    HW287299  10.054   4.357   8.936  0.6452  2.0322 -1.8752
23103SOL     OW87300   4.237  12.546   1.061 -0.0624  0.1262  0.1950
23103SOL    HW187301   4.286  12.546   0.979 -0.7372  0.3229 -0.2112
23103SOL    HW287302   4.304  12.552   1.129  0.4869  0.1849 -0.3471
23104SOL     OW87303   2.085   3.995  13.398  0.4440 -0.4984 -0.2760
23104SOL    HW187304   2.174   4.005  13.366 -0.1976  1.3102 -1.7023
23104SOL    HW287305   2.081   4.050  13.477  0.2372  0.6668 -1.0665
23105SOL     OW87306  10.936   1.030   8.931  0.3740 -0.3614 -0.5138
23105SOL    HW187307  11.000   1.016   8.862  0.4573  0.4418 -0.6101
23105SOL    HW287308  10.986   1.069   9.003  0.0206  0.1975 -0.5607
23106SOL     OW87309   4.190   7.283   9.676 -0.2563  0.6825 -0.3139
23106SOL    HW187310   4.246   7.205   9.679  0.2775  1.0098 -1.1788
23106SOL    HW287311   4.183   7.304   9.582 -1.9100  0.6058 -0.2294
23107SOL     OW87312   6.263  13.013   8.130 -0.3795 -0.4657  0.0863
23107SOL    HW187313   6.335  13.073   8.148  1.9842 -3.3217  0.8873
23107SOL    HW287314   6.190  13.070   8.106  2.1825  2.5898 -1.1461
23108SOL     OW87315  13.862   7.382   2.083 -0.2326 -0.0593 -0.7556
23108SOL    HW187316  13.849   7.475   2.064  0.4233  0.0011 -0.9385
23108SOL    HW287317  13.946   7.361   2.043 -0.1101 -0.5987 -0.2361
23109SOL     OW87318   9.409   1.688   9.708  0.0666 -0.2750  0.1709
23109SOL    HW187319   9.395   1.595   9.691  0.5864 -0.4829  0.8108
23109SOL    HW287320   9.492   1.708   9.664  0.3971 -0.3337  0.7533
23110SOL     OW87321  13.465  11.587  10.240  0.1662  0.6472  0.1311
23110SOL    HW187322  13.522  11.515  10.268 -0.9209  0.3971  1.8258
23110SOL    HW287323  13.486  11.658  10.300 -0.5579  0.9047  0.0829
23111SOL     OW87324   1.071   9.800   6.952  0.1159 -0.1615 -0.2602
23111SOL    HW187325   1.052   9.882   6.997 -0.8811  0.6099 -1.9826
23111SOL    HW287326   1.165   9.800   6.938 -0.0276  1.3300 -1.3791
23112SOL     OW87327  12.290  12.945   2.734 -0.6044 -0.1962 -0.2710
23112SOL    HW187328  12.357  12.916   2.796  0.4098 -1.9083 -2.0436
23112SOL    HW287329  12.276  13.037   2.755  6.0578  1.9605 -2.8000
23113SOL     OW87330   4.468  13.224   8.230 -0.1561 -0.2436 -0.1728
23113SOL    HW187331   4.411  13.168   8.177 -0.3227  0.4411 -0.7245
23113SOL    HW287332   4.416  13.244   8.308 -0.8157  0.6490 -0.8225
23114SOL     OW87333   1.731  10.497   7.693 -0.0256 -0.6951  0.3758
23114SOL    HW187334   1.734  10.508   7.598 -1.4370 -0.2275  0.3645
23114SOL    HW287335   1.647  10.456   7.710  0.8116 -2.1213  1.3297
23115SOL     OW87336   1.755  10.100  12.896  0.7643  0.3473  0.3755
23115SOL    HW187337   1.834  10.113  12.844  0.3299  0.1483 -0.3441
23115SOL    HW287338   1.692  10.162  12.860  1.0538  1.6172  1.9628
23116SOL     OW87339   4.813   0.177  13.175  0.7021  0.2789 -0.0378
23116SOL    HW187340   4.818   0.096  13.124  1.4980  0.1982  0.1549
23116SOL    HW287341   4.905   0.203  13.188  0.4720  0.9052  0.3867
23117SOL     OW87342   8.358   4.637   5.218 -0.1225  0.0082  0.3130
23117SOL    HW187343   8.273   4.662   5.181 -0.0890 -1.2527 -0.7094
23117SOL    HW287344   8.410   4.717   5.215 -1.1442  0.7057  0.5785
23118SOL     OW87345   4.593  11.882  12.246 -0.2826 -0.3612  0.1238
23118SOL    HW187346   4.606  11.788  12.235  0.1136 -0.4918  1.4889
23118SOL    HW287347   4.666  11.910  12.302 -0.6190  0.6894  0.0610
23119SOL     OW87348  12.803   8.792   2.779  0.3393 -0.3715 -0.2834
23119SOL    HW187349  12.758   8.711   2.754 -2.4785  1.2069 -0.7580
23119SOL    HW287350  12.741   8.837   2.835  1.9644  1.3468  0.2178
23120SOL     OW87351   0.643   2.217   0.505 -0.1502  0.2581 -0.7730
23120SOL    HW187352   0.652   2.127   0.473  0.4113  0.4606 -1.2112
23120SOL    HW287353   0.689   2.270   0.440 -0.4493  0.8616 -0.5019
23121SOL     OW87354   9.412   2.258   1.905  0.3438  0.1114  0.0765
23121SOL    HW187355   9.490   2.303   1.936  0.0026  0.2140  0.8055
23121SOL    HW287356   9.416   2.171   1.946  1.3751 -0.8476 -1.8845
23122SOL     OW87357  10.401   3.022   5.271 -0.6507 -1.1173 -0.7479
23122SOL    HW187358  10.464   3.038   5.201  0.6383 -0.8028  0.4184
23122SOL    HW287359  10.394   3.106   5.316  0.1988 -1.8006  0.7539
23123SOL     OW87360   1.897  12.434  14.065  0.0687  0.2784  0.3825
23123SOL    HW187361   1.988  12.439  14.096 -0.1348  1.1620  0.8912
23123SOL    HW287362   1.845  12.446  14.145 -0.4868  0.5719 -0.0222
23124SOL     OW87363   2.318   4.898  10.008  0.0885 -0.3175 -0.3662
23124SOL    HW187364   2.350   4.888   9.919 -2.9414 -0.1148 -1.5926
23124SOL    HW287365   2.250   4.832  10.017  1.5307 -1.6164  2.5227
23125SOL     OW87366   6.574  11.478   9.882  0.4300  0.2487 -0.5278
23125SOL    HW187367   6.531  11.411   9.935  0.4417  0.6071 -0.0500
23125SOL    HW287368   6.653  11.436   9.850  0.8595  0.2805  0.4495
23126SOL     OW87369  12.582   5.604   3.763 -0.3410 -0.3260  0.7194
23126SOL    HW187370  12.528   5.683   3.758  0.2994  0.0705 -1.9105
23126SOL    HW287371  12.671   5.637   3.774  0.0149 -0.5759 -1.1112
23127SOL     OW87372  11.874   0.271   7.794 -0.6590  0.1788 -0.3359
23127SOL    HW187373  11.825   0.290   7.714 -0.6363  0.4266 -0.2925
23127SOL    HW287374  11.953   0.226   7.764  0.3333  2.0171 -0.6606
23128SOL     OW87375   2.281  10.728   2.172 -0.1102  0.3514  0.2629
23128SOL    HW187376   2.354  10.736   2.111 -0.0013  0.9894  0.4701
23128SOL    HW287377   2.230  10.808   2.160 -0.8463 -0.1383  0.0397
23129SOL     OW87378  13.691   3.139   1.566 -0.1541  0.1262  0.0961
23129SOL    HW187379  13.666   3.105   1.480  0.6068  0.7834 -0.4080
23129SOL    HW287380  13.787   3.138   1.564 -0.1311 -0.2888  1.1261
23130SOL     OW87381   0.668  14.075   2.416 -0.3692 -0.1461  0.1187
23130SOL    HW187382   0.615  14.148   2.383 -0.3331 -0.6037 -1.0036
23130SOL    HW287383   0.609  13.999   2.412 -0.0526 -0.3973  0.1776
23131SOL     OW87384   5.529   2.322   9.292  0.2277 -0.2549 -0.8381
23131SOL    HW187385   5.475   2.249   9.261 -0.5624  0.4139 -1.0797
23131SOL    HW287386   5.587   2.283   9.357 -0.9689 -0.8980 -0.1123
23132SOL     OW87387   5.020   4.837   4.089 -0.4490 -0.0073  0.6039
23132SOL    HW187388   5.115   4.827   4.092 -0.4537 -0.2131  0.1045
23132SOL    HW287389   5.001   4.907   4.151  0.0420  0.1329  0.5965
23133SOL     OW87390  11.678  13.242  10.541 -0.0273 -0.6472  0.3399
23133SOL    HW187391  11.769  13.267  10.558  0.8221 -1.8414 -2.1106
23133SOL    HW287392  11.634  13.325  10.523  0.6367 -0.0962  1.1476
23134SOL     OW87393  12.206   0.374   9.822 -0.1367 -0.1529 -0.1449
23134SOL    HW187394  12.266   0.424   9.766 -1.8530  0.2527 -1.7208
23134SOL    HW287395  12.172   0.438   9.884 -1.4641  0.4566 -1.4342
23135SOL     OW87396   1.838   8.113   7.754 -0.1625  0.0517 -0.2419
23135SOL    HW187397   1.817   8.197   7.714 -1.4356  0.9341  2.0282
23135SOL    HW287398   1.754   8.065   7.755 -0.0115 -0.2173  0.6757
23136SOL     OW87399   3.167   6.852   9.324  0.6446 -0.6890 -0.2613
23136SOL    HW187400   3.246   6.883   9.368 -0.9491 -0.3796  2.6686
23136SOL    HW287401   3.182   6.759   9.309  1.2849 -0.7882  0.9338
23137SOL     OW87402   0.203   9.542  13.920 -0.1622 -0.0162  0.2171
23137SOL    HW187403   0.284   9.593  13.923 -0.0975 -0.1375  2.8196
23137SOL    HW287404   0.199   9.509  13.831  2.7184 -0.0854  0.0163
23138SOL     OW87405  13.092   2.152   8.874  0.9134  0.7235  0.2462
23138SOL    HW187406  13.067   2.199   8.795 -0.0204  1.5093  0.9888
23138SOL    HW287407  13.152   2.211   8.919 -1.7656  2.2005  2.1627
23139SOL     OW87408  10.541  14.091  11.180 -0.6391  0.0590  0.4302
23139SOL    HW187409  10.463  14.146  11.188 -0.5728 -0.0628  2.1996
23139SOL    HW287410  10.547  14.045  11.264  1.5205  0.3111  0.4567
23140SOL     OW87411   8.418   9.985   7.973  0.1303  0.4373 -0.2700
23140SOL    HW187412   8.395  10.074   8.000 -1.7355  0.2844 -1.1630
23140SOL    HW287413   8.343   9.932   8.000  1.6511 -1.0783  1.1401
23141SOL     OW87414  14.014   9.261  13.284 -0.3081 -0.1996  0.6211
23141SOL    HW187415  13.929   9.234  13.319 -1.0334 -3.0512 -2.7347
23141SOL    HW287416  13.993   9.328  13.218  0.2122  0.1429  0.8010
23142SOL     OW87417   5.624   4.796   7.514 -0.4230 -0.6914  0.3188
23142SOL    HW187418   5.530   4.778   7.511 -0.6099  0.2591 -0.1316
23142SOL    HW287419   5.664   4.727   7.462 -1.1192  0.1738 -1.4502
23143SOL     OW87420  12.689   7.942  11.951 -0.3899  0.2665 -0.0771
23143SOL    HW187421  12.667   8.033  11.933 -0.8963 -0.1665 -1.8655
23143SOL    HW287422  12.639   7.892  11.887  0.5267 -1.2234  0.3140
23144SOL     OW87423   8.507   0.409   7.228 -0.1570 -0.4310 -0.3765
23144SOL    HW187424   8.536   0.350   7.159  0.1171  0.8740 -1.4200
23144SOL    HW287425   8.587   0.448   7.262 -0.2971 -0.9994  0.6512
23145SOL     OW87426   0.815   4.967   9.856 -0.3983  0.2197  0.1621
23145SOL    HW187427   0.751   5.024   9.814 -0.8244  0.5144  1.1726
23145SOL    HW287428   0.765   4.919   9.922 -0.3542 -2.3837 -1.5423
23146SOL     OW87429   9.538   7.341   3.183  0.6699 -0.2084 -0.3215
23146SOL    HW187430   9.452   7.377   3.206  0.9389  1.4971 -1.7857
23146SOL    HW287431   9.542   7.347   3.088  1.5394 -2.4332 -0.4903
23147SOL     OW87432   8.765   4.132   7.788 -0.0593  0.0075  0.2954
23147SOL    HW187433   8.791   4.124   7.880  0.2321 -2.1233  0.0843
23147SOL    HW287434   8.848   4.128   7.740 -0.1012  2.2275 -0.0789
23148SOL     OW87435   3.429   0.336  10.991  0.0601  0.2233 -0.1310
23148SOL    HW187436   3.383   0.417  11.013 -0.1650 -0.0340  0.3541
23148SOL    HW287437   3.411   0.324  10.897 -0.1791  0.5586 -0.1307
23149SOL     OW87438   9.481   8.068   4.554 -0.3696  0.0785 -0.0236
23149SOL    HW187439   9.528   7.992   4.521 -0.1717  0.3609 -0.4011
23149SOL    HW287440   9.530   8.143   4.520  0.4889  0.4013  1.8231
23150SOL     OW87441   1.811   0.742   3.068  0.6027 -0.4674 -0.1209
23150SOL    HW187442   1.804   0.647   3.075  1.7816 -0.5990 -0.5209
23150SOL    HW287443   1.763   0.775   3.143 -2.8033 -1.2461 -1.7597
23151SOL     OW87444   9.914   1.330   9.890  0.7034 -0.0560  0.2303
23151SOL    HW187445   9.919   1.416   9.848  0.7215  0.1007  0.5518
23151SOL    HW287446   9.993   1.325   9.944 -0.2514  0.5396  1.7466
23152SOL     OW87447   7.553   2.854  11.342  0.2977 -0.7985 -0.4095
23152SOL    HW187448   7.524   2.772  11.381  1.1123 -0.3099  1.3099
23152SOL    HW287449   7.565   2.914  11.416  1.1082  0.4360 -1.4779
23153SOL     OW87450   2.684   9.147   7.543 -0.4704  0.5290  0.2736
23153SOL    HW187451   2.766   9.131   7.591 -0.2612  0.8567  0.0281
23153SOL    HW287452   2.663   9.238   7.562  0.0715  0.9311 -0.9362
23154SOL     OW87453   9.066   3.309   8.898  0.4865  0.5873  0.3231
23154SOL    HW187454   9.046   3.226   8.941  1.4127  1.1133  1.8675
23154SOL    HW287455   9.146   3.339   8.942  1.4018  1.2585 -1.6887
23155SOL     OW87456   1.628   8.969   1.912  0.6656  0.0038 -0.0294
23155SOL    HW187457   1.572   8.952   1.836  3.0055 -0.4707 -1.7615
23155SOL    HW287458   1.583   9.039   1.959 -0.7965  0.4585 -1.9542
23156SOL     OW87459  10.767   2.525   3.358  0.5778 -0.2379  0.2649
23156SOL    HW187460  10.789   2.596   3.298 -0.1328 -0.4388 -0.2585
23156SOL    HW287461  10.775   2.564   3.445 -1.4251  1.0122 -0.0369
23157SOL     OW87462   9.270   8.304   4.432  0.2845 -0.5959  0.2539
23157SOL    HW187463   9.356   8.338   4.457  1.0113 -3.0830  1.4862
23157SOL    HW287464   9.208   8.365   4.471  1.4692  0.8846 -0.0935
23158SOL     OW87465  13.067  10.740   0.043  0.7316  0.4090 -0.2414
23158SOL    HW187466  13.047  10.762  -0.048  0.7373 -0.2700 -0.4187
23158SOL    HW287467  13.115  10.657   0.037 -1.1054 -0.7754  0.4870
23159SOL     OW87468   2.027   9.493   8.094  0.1386  0.3708  0.3579
23159SOL    HW187469   2.076   9.573   8.112  1.4282 -0.2058 -0.4351
23159SOL    HW287470   2.028   9.444   8.176  0.2496  0.7074  0.5542
23160SOL     OW87471   3.456  11.620   4.143 -0.3546 -0.2590 -0.3972
23160SOL    HW187472   3.490  11.615   4.232  0.5700  1.9237 -0.5675
23160SOL    HW287473   3.453  11.714   4.123 -0.8526 -0.6667 -2.5452
23161SOL     OW87474   2.295   3.420   7.639 -0.3412 -0.0491 -0.1561
23161SOL    HW187475   2.245   3.500   7.657 -1.9602 -1.1735  0.5767
23161SOL    HW287476   2.260   3.355   7.699  1.7746 -1.0378  0.1054
23162SOL     OW87477   6.424  13.645   9.889  0.4396  0.2700 -0.2156
23162SOL    HW187478   6.433  13.668   9.797  0.6800  1.7597  0.1541
23162SOL    HW287479   6.337  13.676   9.913  0.8032  0.9263  0.3157
23163SOL     OW87480   2.148  11.322   9.660  0.0769  0.0485 -0.3373
23163SOL    HW187481   2.127  11.233   9.629 -1.7457  0.0657  0.6631
23163SOL    HW287482   2.175  11.310   9.751 -1.6878  0.5905  0.3153
23164SOL     OW87483   0.019   4.430   0.024 -0.5397 -0.4157 -0.2334
23164SOL    HW187484   0.098   4.459   0.071 -0.9275 -1.5914  1.2064
23164SOL    HW287485  -0.043   4.502   0.035 -0.4267 -0.4340  0.5916
23165SOL     OW87486   9.811  11.650  11.644 -0.1685  0.0305 -1.1849
23165SOL    HW187487   9.896  11.616  11.672  0.0248  2.1528  1.1494
23165SOL    HW287488   9.829  11.695  11.561  1.1552  0.9133 -0.4610
23166SOL     OW87489   0.150   7.755   6.301  0.6657 -0.4862 -0.8393
23166SOL    HW187490   0.138   7.664   6.274 -0.5143 -0.3239 -0.9112
23166SOL    HW287491   0.181   7.800   6.222  0.6572 -0.7065 -0.9687
23167SOL     OW87492   1.630  13.214   6.196 -0.1665  0.4450 -0.5995
23167SOL    HW187493   1.688  13.155   6.148 -0.4744  0.6701 -1.2543
23167SOL    HW287494   1.615  13.169   6.280  2.9414  1.5180  0.6679
23168SOL     OW87495   5.303   8.756   3.002  0.0519 -0.6965 -0.2956
23168SOL    HW187496   5.339   8.723   3.084  0.9736 -0.5622 -0.6359
23168SOL    HW287497   5.368   8.732   2.936 -1.0605 -1.5637 -1.1309
23169SOL     OW87498  12.377   2.832   1.959 -0.1982 -0.5182 -0.2522
23169SOL    HW187499  12.471   2.848   1.957 -0.3479  0.7491  1.1513
23169SOL    HW287500  12.361   2.769   1.889  1.5377  0.0175 -1.1596
23170SOL     OW87501   3.276   0.443   1.504  0.5371  0.2723  0.0201
23170SOL    HW187502   3.286   0.537   1.486 -0.4128  0.2832 -0.4680
23170SOL    HW287503   3.222   0.439   1.583 -1.2087  0.1284 -1.1334
23171SOL     OW87504   6.642   0.637  12.435 -0.0939 -0.1299  0.4908
23171SOL    HW187505   6.572   0.578  12.462  0.1518 -0.0065  1.4573
23171SOL    HW287506   6.663   0.611  12.345 -0.4038 -1.1077  0.6902
23172SOL     OW87507  11.887  14.131   9.853  0.7011 -0.0472 -0.2960
23172SOL    HW187508  11.882  14.138   9.948  0.1287 -0.3878 -0.2982
23172SOL    HW287509  11.804  14.092   9.827  1.8547 -2.3770 -0.7147
23173SOL     OW87510   3.656  10.593   0.970  0.1577 -0.2351  0.2798
23173SOL    HW187511   3.655  10.668   1.029 -1.0586  0.1057 -0.1357
23173SOL    HW287512   3.732  10.542   0.997  0.9428  1.0726  0.6533
23174SOL     OW87513   2.652   0.430   0.614  0.0332  0.1032  0.1704
23174SOL    HW187514   2.586   0.361   0.608 -0.4229  0.2465  2.4587
23174SOL    HW287515   2.682   0.443   0.524 -1.1483 -1.8092 -0.5622
23175SOL     OW87516  13.101   6.183   8.193  0.1428 -0.0117  0.3092
23175SOL    HW187517  13.083   6.184   8.287 -0.3046  0.8287  0.2220
23175SOL    HW287518  13.016   6.168   8.152 -0.0186  1.5629 -0.0180
23176SOL     OW87519   8.428   9.494   1.741 -0.2842  0.2679  0.5149
23176SOL    HW187520   8.425   9.398   1.734  0.7400  0.2644 -0.1108
23176SOL    HW287521   8.355   9.523   1.686 -1.5101 -0.1648  1.8513
23177SOL     OW87522   3.143  12.476   8.859 -0.8000  0.0874  0.3404
23177SOL    HW187523   3.099  12.429   8.929 -0.9506  0.5588  0.5653
23177SOL    HW287524   3.106  12.440   8.778  1.3750 -2.5097  0.3525
23178SOL     OW87525   5.851   4.993   6.179 -0.0317  0.0088 -0.3723
23178SOL    HW187526   5.846   5.000   6.083 -0.5373 -1.0572 -0.4296
23178SOL    HW287527   5.816   5.076   6.211  0.4693  0.5194 -1.1151
23179SOL     OW87528  12.929   5.369   2.334 -0.2417  0.1007  0.6758
23179SOL    HW187529  12.976   5.427   2.393 -0.7233 -0.1415  1.3156
23179SOL    HW287530  12.895   5.299   2.391 -0.9355  0.0047  0.1603
23180SOL     OW87531   9.947   1.418  10.813  0.2092  0.6408 -0.1980
23180SOL    HW187532   9.855   1.426  10.788 -0.1707 -0.2732  0.8106
23180SOL    HW287533   9.994   1.404  10.730 -0.5050  1.4845 -0.7533
23181SOL     OW87534   9.256  12.316   8.734  0.1315  0.0668  0.4029
23181SOL    HW187535   9.236  12.363   8.815 -0.4126  1.0778 -0.3044
23181SOL    HW287536   9.208  12.233   8.742 -2.5801  1.4627 -0.2418
23182SOL     OW87537   0.490   9.712   9.907  0.3218  1.1956 -0.2313
23182SOL    HW187538   0.472   9.797   9.947 -0.1874  1.7483 -1.5810
23182SOL    HW287539   0.467   9.648   9.975 -2.5030  2.0156 -0.2800
23183SOL     OW87540   6.356  13.415  13.706 -0.2133  0.5289  0.3269
23183SOL    HW187541   6.336  13.448  13.793 -2.6482 -1.1893  0.5063
23183SOL    HW287542   6.273  13.381  13.673  0.8508  0.2077 -2.2688
23184SOL     OW87543   8.470  13.781   4.945  0.3935 -0.3445  0.2097
23184SOL    HW187544   8.391  13.747   4.904  0.3451 -1.0288  0.8655
23184SOL    HW287545   8.464  13.755   5.036  1.7762 -1.1707  0.1027
23185SOL     OW87546   2.933   9.379   3.798 -0.1052  0.1477 -0.3706
23185SOL    HW187547   2.936   9.383   3.894 -0.3759 -0.8894 -0.3067
23185SOL    HW287548   2.891   9.461   3.772 -1.9078 -0.4417  0.5235
23186SOL     OW87549  13.132   9.141   2.045 -0.5143  0.5961  0.1258
23186SOL    HW187550  13.181   9.148   1.963  0.5139  0.4167  0.7091
23186SOL    HW287551  13.068   9.071   2.028  0.1766  0.0467 -0.2975
23187SOL     OW87552   9.138   7.407  13.034 -0.0531 -0.7458 -0.2662
23187SOL    HW187553   9.154   7.330  12.979  0.0600 -1.0572  0.1926
23187SOL    HW287554   9.126   7.371  13.122  1.3434 -0.1413  0.2056
23188SOL     OW87555   2.539   3.493   0.394  0.5310  0.3685  0.1761
23188SOL    HW187556   2.577   3.453   0.472  1.9917  1.4202  0.0452
23188SOL    HW287557   2.582   3.449   0.321 -1.0332 -0.8071 -0.0924
23189SOL     OW87558   6.131   8.363  13.792  0.0378 -0.0410 -0.2989
23189SOL    HW187559   6.080   8.333  13.867 -1.2188  0.3095 -0.9845
23189SOL    HW287560   6.076   8.344  13.716  0.8846  0.4539 -1.0557
23190SOL     OW87561   1.916  10.702   5.938  0.2607 -0.5881  0.1263
23190SOL    HW187562   1.868  10.781   5.912  0.2129 -0.6873 -0.0942
23190SOL    HW287563   1.969  10.680   5.861 -0.0057 -0.9798  0.0510
23191SOL     OW87564   0.234  13.085  12.127 -0.1883 -0.0145 -0.4893
23191SOL    HW187565   0.208  13.110  12.038 -1.5064 -0.0053 -0.1304
23191SOL    HW287566   0.299  13.150  12.153 -1.1408  1.0951 -0.7856
23192SOL     OW87567  12.724   8.232  10.128 -0.3030 -0.0783  0.3774
23192SOL    HW187568  12.749   8.259  10.216  2.8424  1.1608 -0.7616
23192SOL    HW287569  12.700   8.313  10.083  0.5257 -0.3389 -0.5726
23193SOL     OW87570  13.860   8.930  12.195  0.2951  0.2585 -0.4908
23193SOL    HW187571  13.935   8.945  12.137  1.1692 -0.2610  0.4685
23193SOL    HW287572  13.883   8.976  12.275 -1.2586  1.6567 -0.7944
23194SOL     OW87573  10.480   1.318   3.335  0.5383  0.7940 -0.1964
23194SOL    HW187574  10.572   1.297   3.316  0.8600 -0.6097  2.4700
23194SOL    HW287575  10.481   1.348   3.425 -1.6758  0.3496  0.0225
23195SOL     OW87576   4.351  12.622   6.368  0.0645  0.0227 -0.1982
23195SOL    HW187577   4.342  12.606   6.462  2.4601 -0.8703 -0.0396
23195SOL    HW287578   4.346  12.717   6.359 -1.7064  0.0422  0.5899
23196SOL     OW87579   9.060   9.837   7.857  0.7046  0.1108 -1.0325
23196SOL    HW187580   9.033   9.756   7.813  1.1780 -2.4072  2.8254
23196SOL    HW287581   8.981   9.889   7.862 -0.4716 -1.6032 -0.7686
23197SOL     OW87582  11.786   9.072   1.351 -0.1464  0.9333 -0.1407
23197SOL    HW187583  11.775   9.019   1.272 -1.8845 -0.0885  0.7164
23197SOL    HW287584  11.723   9.143   1.341 -1.8561 -0.3195  1.1534
23198SOL     OW87585  10.925   4.565   8.092 -0.0765  0.4392  0.2317
23198SOL    HW187586  10.989   4.495   8.088 -0.8514 -0.3045  0.4561
23198SOL    HW287587  10.878   4.550   8.175 -1.6993 -0.0970 -0.7443
23199SOL     OW87588   7.191   7.362   1.842  0.1747  0.2697  0.0469
23199SOL    HW187589   7.129   7.326   1.905  0.7172  0.8719  0.9566
23199SOL    HW287590   7.260   7.401   1.896  0.9773  0.2516 -0.9296
23200SOL     OW87591   4.794   1.069  13.255  0.4491 -0.0013  0.1008
23200SOL    HW187592   4.856   1.002  13.282 -0.0382 -0.4192  0.1829
23200SOL    HW287593   4.733   1.024  13.196  0.4893  0.5077 -0.3367
23201SOL     OW87594   6.717   5.744   7.865 -0.1235  0.5125 -0.0865
23201SOL    HW187595   6.738   5.659   7.826  0.2529  0.8350 -0.5981
23201SOL    HW287596   6.711   5.804   7.791 -0.1440  0.9858  0.2888
23202SOL     OW87597  10.309  11.643   1.466 -0.0073 -0.0939  0.1446
23202SOL    HW187598  10.249  11.581   1.508 -1.0627 -0.0084 -1.1544
23202SOL    HW287599  10.348  11.691   1.538  1.5562 -2.8345  1.2834
23203SOL     OW87600   7.207   2.669  11.214  0.6353  0.3061  0.7898
23203SOL    HW187601   7.240   2.749  11.173  2.4271 -0.7551  0.0086
23203SOL    HW287602   7.185   2.612  11.140  1.2297 -0.6122  1.2987
23204SOL     OW87603   7.228   7.454  12.447  0.3395  0.4326 -0.1347
23204SOL    HW187604   7.191   7.469  12.534 -0.6058  1.7152 -0.7349
23204SOL    HW287605   7.219   7.359  12.434 -2.1895  0.5801  0.0245
23205SOL     OW87606   6.119  12.341   4.705 -0.1690 -0.7010 -0.0743
23205SOL    HW187607   6.143  12.269   4.764 -2.3907 -2.2577 -0.9316
23205SOL    HW287608   6.044  12.383   4.747  0.7626  0.8095  0.1384
23206SOL     OW87609   8.050   6.692   7.345 -0.0811 -0.2532  0.3412
23206SOL    HW187610   8.128   6.639   7.332 -0.3225 -0.2194 -1.5096
23206SOL    HW287611   7.992   6.668   7.273 -0.0425  2.7736 -0.8348
23207SOL     OW87612   9.396   4.365  12.054 -0.0423 -0.7525 -0.1359
23207SOL    HW187613   9.347   4.389  11.975 -0.4981 -2.2301 -0.3326
23207SOL    HW287614   9.488   4.370  12.028 -0.1699 -0.6606 -0.5795
23208SOL     OW87615   7.892  12.359   5.534 -1.6170  0.1522  0.0183
23208SOL    HW187616   7.879  12.364   5.628  0.1077 -1.0547  0.3671
23208SOL    HW287617   7.837  12.285   5.506 -0.3375 -1.0238  0.4988
23209SOL     OW87618   8.449   8.032   7.010  0.0679 -0.7907  0.8658
23209SOL    HW187619   8.528   8.085   7.003 -0.1128 -0.5460  0.6778
23209SOL    HW287620   8.377   8.095   7.015 -0.2801 -0.9970 -0.8326
23210SOL     OW87621   6.894  10.674   0.446 -0.1217  0.8092 -0.6707
23210SOL    HW187622   6.911  10.726   0.524 -1.7057  2.2236 -1.2240
23210SOL    HW287623   6.892  10.584   0.478  3.1812  0.8924  0.2323
23211SOL     OW87624   8.863   7.664  11.146  0.1470  0.1930 -0.1065
23211SOL    HW187625   8.871   7.608  11.223 -1.9638 -1.0286 -0.6822
23211SOL    HW287626   8.782   7.634  11.103 -1.2313  3.7854 -0.3789
23212SOL     OW87627  10.207   0.840  13.345  0.4770 -0.4748 -0.2933
23212SOL    HW187628  10.145   0.768  13.351 -0.0107  0.0058  0.7916
23212SOL    HW287629  10.229   0.861  13.436  1.3182  0.1395 -0.6193
23213SOL     OW87630   9.854   4.011   8.432 -0.2401  0.5247  0.4701
23213SOL    HW187631   9.834   3.926   8.393 -2.5002  1.2411 -0.0902
23213SOL    HW287632   9.933   4.041   8.386 -0.3567 -0.5595 -0.4707
23214SOL     OW87633   5.120  12.745   8.021  0.3601  0.3051 -0.0128
23214SOL    HW187634   5.142  12.667   7.970  1.1989  1.2952 -1.2025
23214SOL    HW287635   5.033  12.770   7.989  0.0065 -0.2247  0.5042
23215SOL     OW87636   4.333  11.120   1.830  0.5674 -0.5115  0.1429
23215SOL    HW187637   4.308  11.211   1.814  3.4676  0.7441  1.8625
23215SOL    HW287638   4.275  11.091   1.901 -0.3205  0.0070 -0.3639
23216SOL     OW87639   4.994  13.647  12.224  0.0538  0.0492 -0.4057
23216SOL    HW187640   5.029  13.559  12.211  0.1827 -0.1391  1.0578
23216SOL    HW287641   4.901  13.633  12.241  0.3369  0.0366  1.2847
23217SOL     OW87642   9.952   6.006   2.398 -0.0354 -0.3199 -0.1994
23217SOL    HW187643   9.979   6.062   2.471  1.8484  2.8661 -3.0338
23217SOL    HW287644   9.858   6.021   2.389 -0.0968  0.0441  0.9220
23218SOL     OW87645   1.604   9.814   6.897  0.3637  0.2378 -0.5308
23218SOL    HW187646   1.611   9.815   6.992 -1.0421  1.0108 -0.3997
23218SOL    HW287647   1.520   9.771   6.880  0.5785  0.1539 -1.4222
23219SOL     OW87648   0.186   6.929   0.533 -0.0497 -0.1197 -0.4635
23219SOL    HW187649   0.115   6.977   0.491 -2.8080 -1.6653  2.0450
23219SOL    HW287650   0.232   6.995   0.585  0.8265  1.0085 -2.5480
23220SOL     OW87651   1.949  12.465   8.739  0.5460  0.2050  0.0290
23220SOL    HW187652   1.885  12.441   8.673 -0.9385 -0.5554  1.6421
23220SOL    HW287653   1.958  12.560   8.732 -1.9327  0.5534  0.6954
23221SOL     OW87654   2.163   7.439   9.744 -0.5836 -0.1160  0.7852
23221SOL    HW187655   2.212   7.505   9.695 -1.6513  0.1711  0.0585
23221SOL    HW287656   2.093   7.488   9.787 -0.7259 -0.6206  1.1402
23222SOL     OW87657   0.799   2.983  11.529 -0.3507  0.4223 -0.0594
23222SOL    HW187658   0.851   3.038  11.472 -0.1793  1.1937  0.8267
23222SOL    HW287659   0.787   3.034  11.609  2.7539 -2.0339  2.2654
23223SOL     OW87660  14.007   4.703   7.743  0.5519 -0.3594 -0.0996
23223SOL    HW187661  13.921   4.708   7.700  1.1852  1.4428 -1.2980
23223SOL    HW287662  14.050   4.627   7.703 -0.1109 -0.6852 -0.2075
23224SOL     OW87663  13.678   8.137  10.942 -0.7107 -0.0016 -0.1352
23224SOL    HW187664  13.590   8.162  10.915 -0.7161 -0.0868 -0.1981
23224SOL    HW287665  13.710   8.082  10.871 -0.1103  1.0799 -0.7185
23225SOL     OW87666   6.468  11.379   5.790  0.1264  0.4077 -0.3789
23225SOL    HW187667   6.373  11.367   5.792  0.2802 -0.7973  0.2060
23225SOL    HW287668   6.480  11.459   5.739 -1.2220  0.8153 -0.1101
23226SOL     OW87669   9.904  13.579   0.002 -0.4420  0.2961  0.3268
23226SOL    HW187670   9.909  13.599  -0.092 -2.0530 -2.2410 -0.3905
23226SOL    HW287671   9.995  13.569   0.029  0.0262 -0.4196 -1.3641
23227SOL     OW87672   4.108  10.033   1.662 -0.1789  0.0774  0.1279
23227SOL    HW187673   4.188  10.012   1.613  0.7826 -1.5563  2.2611
23227SOL    HW287674   4.137  10.097   1.727 -1.5208  2.5128 -1.5031
23228SOL     OW87675   9.300   9.856   0.174 -0.1164  0.4509  0.5238
23228SOL    HW187676   9.324   9.833   0.263 -0.7253 -1.0574  0.3281
23228SOL    HW287677   9.204   9.855   0.173 -0.1154 -0.0101 -0.2410
23229SOL     OW87678   0.656   4.448   1.186  0.0470 -0.2981  0.7021
23229SOL    HW187679   0.630   4.357   1.175 -0.1471 -0.2213  0.5357
23229SOL    HW287680   0.742   4.443   1.228 -0.3287 -0.5425  1.4608
23230SOL     OW87681   4.661   2.611   8.563  0.3181 -0.0741  0.7729
23230SOL    HW187682   4.675   2.532   8.511 -0.6894 -0.2896  0.8080
23230SOL    HW287683   4.741   2.620   8.614  0.7248 -0.6843  0.2613
23231SOL     OW87684   2.405   9.828  12.773 -0.3305 -0.3207  0.3241
23231SOL    HW187685   2.488   9.869  12.750  0.1419 -1.8408 -0.8383
23231SOL    HW287686   2.389   9.764  12.704 -2.3412 -0.2800  0.6738
23232SOL     OW87687  10.506   7.347   3.494 -0.6962  0.1670 -0.1118
23232SOL    HW187688  10.464   7.262   3.481  0.5771 -0.2135 -2.3533
23232SOL    HW287689  10.549   7.340   3.579  0.0273 -1.7641 -0.5855
23233SOL     OW87690   8.829   1.671   1.226 -0.0744  0.3049  0.3615
23233SOL    HW187691   8.880   1.745   1.195  1.0203  0.4070  2.2996
23233SOL    HW287692   8.764   1.709   1.285  0.2534 -0.2214  1.0757
23234SOL     OW87693   8.747   8.793   6.496  0.3525 -0.7270  0.0128
23234SOL    HW187694   8.748   8.720   6.558 -1.2607 -0.7613  0.0319
23234SOL    HW287695   8.719   8.754   6.414 -1.1085 -0.0534  0.1634
23235SOL     OW87696   1.682   2.262   7.020  0.2408  0.3307 -0.6263
23235SOL    HW187697   1.757   2.303   7.062  0.3177 -1.1485  0.7707
23235SOL    HW287698   1.719   2.195   6.963 -0.0021 -1.2090  0.9598
23236SOL     OW87699   5.090   3.435   4.822 -0.3171  0.3367 -0.3498
23236SOL    HW187700   5.092   3.340   4.810  0.4869  0.1170  1.3163
23236SOL    HW287701   4.999   3.459   4.802 -0.5037 -0.7533 -0.9129
23237SOL     OW87702   0.946   4.128   1.061 -0.1078 -0.0054 -0.5770
23237SOL    HW187703   0.998   4.058   1.020 -1.3772 -0.2282 -1.9286
23237SOL    HW287704   0.914   4.179   0.987 -0.5107  1.0610  0.3152
23238SOL     OW87705   2.061   6.076   7.177 -0.3630  0.4049 -0.6060
23238SOL    HW187706   2.018   6.070   7.092 -2.2429  0.1862  0.3120
23238SOL    HW287707   2.019   6.009   7.230  1.2760  0.0544  0.3130
23239SOL     OW87708  11.453   1.979   2.654 -1.0852  0.2264  0.3923
23239SOL    HW187709  11.533   1.967   2.706 -0.0110 -0.4179 -1.2973
23239SOL    HW287710  11.398   1.904   2.678 -1.6322  1.1849  2.2723
23240SOL     OW87711  10.372   6.322  12.671  0.4459  0.4149 -0.6060
23240SOL    HW187712  10.398   6.237  12.706  0.9993  0.7913 -0.0836
23240SOL    HW287713  10.455   6.363  12.645  0.2100  0.9172 -0.5737
23241SOL     OW87714  13.207   7.387  13.015 -0.0773 -0.4467 -0.0277
23241SOL    HW187715  13.182   7.475  13.045  1.0995 -0.5516  1.4426
23241SOL    HW287716  13.300   7.380  13.040 -0.4540 -2.5255  0.9735
23242SOL     OW87717   6.298   3.304  11.131  0.6313  0.5151  0.0547
23242SOL    HW187718   6.269   3.242  11.198 -0.0680 -0.3208 -0.9793
23242SOL    HW287719   6.228   3.368  11.125 -0.1050 -0.3364 -0.9854
23243SOL     OW87720   9.142   0.484   8.319  0.8168  0.0323 -0.4605
23243SOL    HW187721   9.230   0.504   8.286 -0.1839  2.2530 -2.0057
23243SOL    HW287722   9.104   0.427   8.253  0.8312 -0.3312 -0.1583
23244SOL     OW87723   7.642   3.149   4.001  0.0255 -0.1758 -0.1945
23244SOL    HW187724   7.580   3.203   4.050  0.0578 -0.8162  0.5639
23244SOL    HW287725   7.724   3.200   4.003 -0.0739 -0.0238  0.0876
23245SOL     OW87726   6.407  13.378   2.931  0.4744  0.3822 -0.1864
23245SOL    HW187727   6.476  13.323   2.968  0.0974  0.0800  0.0650
23245SOL    HW287728   6.399  13.348   2.840  1.8918  1.5964 -0.7647
23246SOL     OW87729   0.090   9.996   2.203 -0.2319 -0.0200  0.8645
23246SOL    HW187730   0.060  10.079   2.165  0.4074 -0.0785  0.2057
23246SOL    HW287731   0.174  10.017   2.242 -0.8617  0.0263  2.2486
23247SOL     OW87732   9.479   3.659   0.527 -0.1852  0.4701  0.0135
23247SOL    HW187733   9.500   3.579   0.575  0.3207  0.3759 -0.3574
23247SOL    HW287734   9.560   3.682   0.481 -1.2008 -0.7132 -2.6088
23248SOL     OW87735   3.526  11.786   2.860  0.2838  0.0082  0.5005
23248SOL    HW187736   3.497  11.824   2.777  1.4250  1.8794  0.8900
23248SOL    HW287737   3.543  11.694   2.840 -2.7114 -0.4341 -0.4784
23249SOL     OW87738   9.102   2.471   9.991 -0.0181 -0.1676 -0.5067
23249SOL    HW187739   9.061   2.557   9.982 -1.2410 -0.4757  1.5325
23249SOL    HW287740   9.175   2.486  10.051 -0.0740 -0.4886 -0.3571
23250SOL     OW87741   9.644   4.973   9.896  0.0866 -0.2622 -0.1755
23250SOL    HW187742   9.624   4.929   9.979 -3.6915 -1.0333 -1.2695
23250SOL    HW287743   9.641   4.904   9.831  0.9014  0.6435 -1.2047
23251SOL     OW87744   9.117  13.825  11.917  0.8557  0.4578 -0.9150
23251SOL    HW187745   9.097  13.827  12.011  2.2260 -0.3170 -0.5887
23251SOL    HW287746   9.076  13.745  11.886  3.3184 -1.1900 -0.2221
23252SOL     OW87747   9.986   9.335   1.857  0.1069 -0.8279 -0.3232
23252SOL    HW187748   9.950   9.351   1.770  0.6296  2.5030 -0.0600
23252SOL    HW287749  10.072   9.296   1.841  1.2569  1.9333 -1.5297
23253SOL     OW87750  10.110  10.509  10.720 -0.1887 -0.2692 -0.1804
23253SOL    HW187751  10.160  10.434  10.753 -0.8880 -1.0526 -0.8435
23253SOL    HW287752  10.106  10.495  10.625 -2.3260 -0.6616 -0.0796
23254SOL     OW87753  12.270   7.679   7.830 -0.0109 -0.1693  0.2110
23254SOL    HW187754  12.363   7.659   7.819  0.0908 -0.1145  0.9065
23254SOL    HW287755  12.257   7.761   7.783  0.2366 -0.2993 -0.0878
23255SOL     OW87756  11.514   6.116   2.298 -0.2909  0.7806  0.3975
23255SOL    HW187757  11.519   6.113   2.393 -1.3713  2.7103  0.5743
23255SOL    HW287758  11.540   6.205   2.275  1.8537 -0.1855 -1.3193
23256SOL     OW87759   9.929   9.741  11.014 -0.2338 -0.0389  0.2470
23256SOL    HW187760   9.842   9.743  10.974  0.3779 -1.0811 -1.2300
23256SOL    HW287761   9.957   9.833  11.016 -1.1691  0.2476  0.2780
23257SOL     OW87762   8.650   0.143  13.167  0.1855 -0.3896  0.0476
23257SOL    HW187763   8.643   0.180  13.256  1.6155  1.1815 -0.4451
23257SOL    HW287764   8.631   0.050  13.179 -2.3593  0.2336  1.5493
23258SOL     OW87765   9.466   9.832   6.244 -0.0745  0.0640 -0.3413
23258SOL    HW187766   9.457   9.805   6.153 -0.5385 -1.3554  0.1006
23258SOL    HW287767   9.391   9.891   6.259 -1.7192 -1.9531 -0.1303
23259SOL     OW87768   0.348   7.401   6.425 -0.0908  0.1914  0.2132
23259SOL    HW187769   0.297   7.449   6.360  1.8980  0.4349 -1.2822
23259SOL    HW287770   0.393   7.469   6.476 -1.5252 -0.0033  1.8233
23260SOL     OW87771   6.187   6.807   3.421  0.0593 -0.1567 -0.1319
23260SOL    HW187772   6.263   6.749   3.424 -0.8434 -1.3884 -0.1496
23260SOL    HW287773   6.120   6.759   3.470 -1.2184  0.1184 -1.5461
23261SOL     OW87774   7.425   4.114   4.213 -0.0371  0.4978  0.2379
23261SOL    HW187775   7.382   4.112   4.298  0.4897 -0.3266  0.4930
23261SOL    HW287776   7.447   4.207   4.200  0.7276  0.5052  1.4347
23262SOL     OW87777  11.036   4.808   2.966 -0.5686  0.1322  0.3553
23262SOL    HW187778  11.084   4.878   2.921  1.2332 -0.3453  1.4249
23262SOL    HW287779  11.103   4.761   3.015 -1.8381 -1.9629  0.2040
23263SOL     OW87780  11.451   5.775   3.036 -0.4627  0.0840  0.1026
23263SOL    HW187781  11.524   5.828   3.005 -0.6666  1.8039  2.2661
23263SOL    HW287782  11.376   5.833   3.032 -0.7911 -0.1157  2.1276
23264SOL     OW87783   7.784   2.600   1.247  0.5063  0.2968 -0.9636
23264SOL    HW187784   7.722   2.563   1.184  1.6485 -1.0592 -1.3189
23264SOL    HW287785   7.793   2.533   1.315  0.8870  0.8781 -0.4225
23265SOL     OW87786   9.490  10.327   9.514  0.3041 -0.3063  0.4454
23265SOL    HW187787   9.472  10.329   9.608  2.4858 -1.3692  0.9726
23265SOL    HW287788   9.501  10.419   9.489 -0.5529 -0.0028  1.1710
23266SOL     OW87789   4.064   4.342   1.132  0.6669  0.1676  0.5595
23266SOL    HW187790   4.009   4.291   1.192 -0.5699  1.9798  1.0346
23266SOL    HW287791   4.139   4.285   1.114 -0.1674 -1.4081  1.8346
23267SOL     OW87792   4.765   9.878  11.964  0.2060 -0.2364  0.1302
23267SOL    HW187793   4.778   9.904  11.873 -1.9860  0.1740 -0.1215
23267SOL    HW287794   4.774   9.783  11.964 -0.8491 -0.3650 -0.7755
23268SOL     OW87795   9.675   1.363   7.515  0.1766 -0.1765  0.3966
23268SOL    HW187796   9.760   1.388   7.479  0.8218 -0.8343  1.4234
23268SOL    HW287797   9.677   1.267   7.518 -0.8424 -0.2286 -0.1279
23269SOL     OW87798   4.862   0.175   4.156 -0.0753 -0.1198 -0.5035
23269SOL    HW187799   4.940   0.135   4.118  0.4613 -0.4605  0.8939
23269SOL    HW287800   4.790   0.144   4.101  0.5200 -1.6753 -0.4661
23270SOL     OW87801  11.337   3.513  10.652 -0.2007  0.1691  0.2030
23270SOL    HW187802  11.379   3.530  10.567 -3.4339  0.9124 -1.4089
23270SOL    HW287803  11.253   3.474  10.630 -1.0194  0.0261  3.1375
23271SOL     OW87804   1.228   8.988  10.362  0.1922  0.3366 -0.1410
23271SOL    HW187805   1.151   8.986  10.305 -0.2657  1.5634  0.4057
23271SOL    HW287806   1.251   9.080  10.368  1.5451  0.0067 -0.0587
23272SOL     OW87807   9.905  12.819   2.874  0.0079  0.0649  0.7219
23272SOL    HW187808   9.819  12.829   2.916  0.0399  0.4857  0.6945
23272SOL    HW287809   9.932  12.909   2.855  0.6351 -0.0486  1.0790
23273SOL     OW87810  13.230   3.204   1.865  0.4116 -0.4819 -0.9495
23273SOL    HW187811  13.310   3.179   1.819  1.3739 -3.8272  2.1111
23273SOL    HW287812  13.252   3.199   1.958 -2.8864  0.3756  0.0441
23274SOL     OW87813   5.089  12.819   3.102 -0.0983  0.4098  0.1071
23274SOL    HW187814   5.141  12.743   3.075  0.6845  1.1687 -0.5977
23274SOL    HW287815   4.999  12.794   3.086  0.1064 -0.5940  0.4516
23275SOL     OW87816   8.711   1.293   1.923  0.3051  0.6275 -0.0608
23275SOL    HW187817   8.799   1.273   1.889 -0.6300  0.0717 -2.3611
23275SOL    HW287818   8.721   1.378   1.965  1.9706  0.5029 -0.1189
23276SOL     OW87819   6.032  13.261   9.623 -0.1188  0.4933  0.4054
23276SOL    HW187820   6.034  13.166   9.617  0.9630  0.4556  1.0762
23276SOL    HW287821   5.953  13.287   9.575  0.1452 -0.6577 -0.7003
23277SOL     OW87822  11.612   7.201   0.103  0.2626  0.1286  0.6258
23277SOL    HW187823  11.616   7.139   0.175  0.4414 -1.2054 -0.4933
23277SOL    HW287824  11.522   7.196   0.071  0.6504 -0.7081 -0.4096
23278SOL     OW87825   6.692   5.722   4.877  0.3363  0.0201 -0.3504
23278SOL    HW187826   6.664   5.632   4.892 -0.8079  0.0795 -1.9491
23278SOL    HW287827   6.611   5.772   4.869  0.7374  0.3670 -4.0478
23279SOL     OW87828  13.724   3.685   9.897  0.6713  0.1028 -0.0922
23279SOL    HW187829  13.740   3.776   9.920 -0.4332  0.3002 -0.0727
23279SOL    HW287830  13.653   3.657   9.954  0.5524 -0.5739 -0.5523
23280SOL     OW87831   2.232   9.167   7.597 -0.2711  0.5220  0.4632
23280SOL    HW187832   2.312   9.137   7.639 -0.3749  0.0565  0.3398
23280SOL    HW287833   2.261   9.234   7.535 -0.1615  1.4878  1.5322
23281SOL     OW87834   3.359   9.182   9.235 -0.5096  0.1622  0.1132
23281SOL    HW187835   3.290   9.152   9.176 -0.2346 -0.2700 -0.0003
23281SOL    HW287836   3.437   9.134   9.206 -0.3031  0.1783  0.6283
23282SOL     OW87837  12.557  11.045   9.413 -0.8271  0.1546  0.4099
23282SOL    HW187838  12.510  11.097   9.479 -1.5989 -0.1772  0.1316
23282SOL    HW287839  12.637  11.018   9.457  0.0336  2.2869  0.3079
23283SOL     OW87840  12.018   2.724   9.348 -0.4915  0.0041  0.0849
23283SOL    HW187841  11.995   2.637   9.379  1.0828 -0.8271 -0.9473
23283SOL    HW287842  11.982   2.784   9.413 -0.5460 -1.4711  1.4479
23284SOL     OW87843   6.042  11.704  13.647  0.2607  0.4899  0.1879
23284SOL    HW187844   6.019  11.796  13.656 -1.4468  0.2515 -1.1725
23284SOL    HW287845   5.967  11.657  13.684  0.0749 -0.3387 -1.1747
23285SOL     OW87846   3.586  13.227   1.665  0.1605  0.1870 -0.0705
23285SOL    HW187847   3.551  13.304   1.621  3.8787  1.7304 -0.7561
23285SOL    HW287848   3.526  13.211   1.738 -1.1982  3.2428 -0.3746
23286SOL     OW87849   8.607   7.293  12.825  0.3015  0.2929  0.0797
23286SOL    HW187850   8.656   7.332  12.899 -0.8101  1.9093  0.0144
23286SOL    HW287851   8.674   7.249  12.773  1.2476 -0.0926  1.5623
23287SOL     OW87852  13.948   9.271  13.741 -0.5888  0.0014 -0.3601
23287SOL    HW187853  14.016   9.218  13.699 -1.8567 -1.1533 -1.0224
23287SOL    HW287854  13.914   9.327  13.670  0.2086  1.1926  0.1593
23288SOL     OW87855   2.236   3.885   7.632 -0.4646  0.1042 -0.3076
23288SOL    HW187856   2.321   3.929   7.644 -1.0664  0.8673  1.6233
23288SOL    HW287857   2.173   3.956   7.626 -1.2449 -0.4520  0.9649
23289SOL     OW87858   5.782  13.454   6.267  0.2923  0.1106 -0.3263
23289SOL    HW187859   5.782  13.491   6.356  0.6212 -1.0997  0.1980
23289SOL    HW287860   5.845  13.509   6.219  2.5110 -1.0989  1.0463
23290SOL     OW87861   2.159   5.999   0.424 -0.1365 -0.1915  0.0389
23290SOL    HW187862   2.208   5.918   0.410 -0.5305 -0.7152  1.4692
23290SOL    HW287863   2.072   5.981   0.388 -1.0260 -1.3859  2.5408
23291SOL     OW87864   0.286   1.901   7.343 -0.6343 -0.2700  0.1452
23291SOL    HW187865   0.308   1.873   7.432 -0.8751 -0.9788 -0.0126
23291SOL    HW287866   0.304   1.824   7.289 -1.9329 -0.3452 -0.2125
23292SOL     OW87867   2.207  14.122   1.464  0.5674 -0.0737  0.4194
23292SOL    HW187868   2.238  14.034   1.485  1.4238 -0.1181 -0.8578
23292SOL    HW287869   2.159  14.112   1.381 -0.8921  0.3904  1.1779
23293SOL     OW87870   2.196   1.804   8.310 -0.3119 -0.4569  0.3235
23293SOL    HW187871   2.245   1.799   8.393 -1.6324 -1.6561  1.0650
23293SOL    HW287872   2.172   1.714   8.291 -0.2405 -0.1679 -1.2825
23294SOL     OW87873   0.434  13.076   0.104 -0.2729  0.1120  0.1634
23294SOL    HW187874   0.462  13.027   0.182 -0.6185  0.3872  0.4669
23294SOL    HW287875   0.496  13.149   0.099 -1.0642  0.8605  0.9778
23295SOL     OW87876   8.896  13.240   8.818 -0.4746 -0.4534 -0.0766
23295SOL    HW187877   8.947  13.220   8.897 -1.5522  1.5932  1.2473
23295SOL    HW287878   8.923  13.329   8.795 -1.1705 -0.5211 -1.2147
23296SOL     OW87879   4.948   8.270   7.090 -0.3727  0.1875  0.2436
23296SOL    HW187880   4.979   8.181   7.069 -2.2333 -0.5719  0.5427
23296SOL    HW287881   5.022   8.311   7.135  0.1278 -1.6078  1.1300
23297SOL     OW87882   7.636   5.787  10.920  0.2668  0.2326 -0.7164
23297SOL    HW187883   7.573   5.856  10.902  1.3781  1.2130 -0.9925
23297SOL    HW287884   7.594   5.733  10.987 -0.9917  0.6466 -1.1501
23298SOL     OW87885  10.266   3.275   7.472  0.2961 -0.3903 -0.4071
23298SOL    HW187886  10.264   3.179   7.471  1.0799 -0.4101 -1.9096
23298SOL    HW287887  10.221   3.301   7.392 -1.8974  0.6013  1.0183
23299SOL     OW87888   6.909  11.617   2.062  0.2281  0.2766 -0.5216
23299SOL    HW187889   6.886  11.554   1.995 -1.6824 -0.2558  0.5694
23299SOL    HW287890   6.993  11.586   2.096 -0.6132 -1.6743 -0.0755
23300SOL     OW87891  10.465   7.961  10.972  0.6843 -0.1124 -0.4258
23300SOL    HW187892  10.422   8.018  11.036  0.0686 -0.2354 -0.7267
23300SOL    HW287893  10.418   7.878  10.978  1.1499 -0.3806 -0.4638
23301SOL     OW87894  11.275   1.825   3.202 -0.2106 -0.0378 -0.1955
23301SOL    HW187895  11.323   1.865   3.129 -0.5809  0.0737 -0.3843
23301SOL    HW287896  11.328   1.844   3.279 -0.1222  0.3727 -0.3545
23302SOL     OW87897   6.930  12.586   6.357 -0.8911 -0.4311 -0.3823
23302SOL    HW187898   6.935  12.680   6.339  0.8105 -0.3330  0.4475
23302SOL    HW287899   6.935  12.579   6.452  0.2889 -1.4074 -0.4905
23303SOL     OW87900  10.838  11.827   7.390  0.0936 -0.0287 -0.2042
23303SOL    HW187901  10.841  11.736   7.420 -2.0543  0.1387  0.6728
23303SOL    HW287902  10.850  11.879   7.469 -0.0238  0.4596 -0.5053
23304SOL     OW87903   0.470   4.956  10.309 -0.0455  0.4911 -0.6267
23304SOL    HW187904   0.501   5.035  10.353 -1.2260 -0.0478  1.3082
23304SOL    HW287905   0.394   4.985  10.259 -0.4031  0.6408 -0.0161
23305SOL     OW87906  10.184   1.915   3.155  0.4750 -0.6446 -0.0888
23305SOL    HW187907  10.209   2.001   3.121 -1.0035 -0.4219 -0.6981
23305SOL    HW287908  10.178   1.860   3.076 -1.6016 -0.4874 -0.1001
23306SOL     OW87909   6.704   5.444   3.058 -0.8479 -0.1664 -0.4097
23306SOL    HW187910   6.743   5.373   3.110 -0.3106 -0.8139 -1.6598
23306SOL    HW287911   6.779   5.492   3.022 -1.1591 -0.8340 -2.0472
23307SOL     OW87912   0.715  10.644  11.523 -0.4552  0.1650 -0.4748
23307SOL    HW187913   0.628  10.650  11.564  0.2172  0.1397  1.0232
23307SOL    HW287914   0.737  10.551  11.527  0.6118  0.4679  1.3122
23308SOL     OW87915   9.882   9.690   7.536 -0.3216 -0.0531  0.1889
23308SOL    HW187916   9.787   9.703   7.526 -0.2506  0.9215  0.6750
23308SOL    HW287917   9.895   9.597   7.515 -1.1736  0.1319 -1.3138
23309SOL     OW87918   1.109   8.397   8.737  0.1660 -0.6306 -0.0161
23309SOL    HW187919   1.162   8.318   8.725 -0.8292 -1.5643  1.4052
23309SOL    HW287920   1.029   8.366   8.779 -0.2746  1.1369  0.5254
23310SOL     OW87921  13.008   5.274  10.170  0.6722 -1.0587  0.4829
23310SOL    HW187922  12.968   5.331  10.236 -0.1733 -1.2820  0.1859
23310SOL    HW287923  13.055   5.333  10.112 -0.2127 -0.6506  0.1654
23311SOL     OW87924   7.395  13.561   0.583 -0.4626  0.2470  0.0421
23311SOL    HW187925   7.442  13.553   0.666  2.7714  2.0171 -1.4708
23311SOL    HW287926   7.323  13.622   0.601  1.6048  2.5051  1.0813
23312SOL     OW87927  11.635   0.221   2.878 -0.2276 -0.3321  0.2634
23312SOL    HW187928  11.595   0.138   2.851 -0.6339 -0.0309 -0.0921
23312SOL    HW287929  11.564   0.285   2.867  0.0075  0.0163  0.7851
23313SOL     OW87930   3.669   4.769  11.870 -0.3151 -0.2389  0.0462
23313SOL    HW187931   3.734   4.705  11.844  1.9085  1.4380  1.1514
23313SOL    HW287932   3.607   4.720  11.924 -0.6092 -2.0754 -1.8241
23314SOL     OW87933  12.910  13.723   8.441  0.5455  0.2482  0.1397
23314SOL    HW187934  12.918  13.819   8.445  2.1712  0.1866 -0.7253
23314SOL    HW287935  12.823  13.705   8.476  0.7325  1.9361  1.6219
23315SOL     OW87936  11.187   8.734   2.866  0.4730 -0.4299  0.2827
23315SOL    HW187937  11.214   8.798   2.932  0.5226  0.6659 -0.7756
23315SOL    HW287938  11.243   8.658   2.882 -0.2662 -0.6386  2.1991
23316SOL     OW87939   9.913   1.936   7.506  0.4189  0.0304  0.3103
23316SOL    HW187940   9.944   2.004   7.447  2.4132  0.2185  1.5016
23316SOL    HW287941   9.992   1.903   7.549 -0.8644 -0.6034  2.3153
23317SOL     OW87942   3.705   5.572   5.955  0.0130  0.0959 -0.3807
23317SOL    HW187943   3.749   5.656   5.944 -0.9620  0.3455 -3.3935
23317SOL    HW287944   3.630   5.591   6.011  0.4868  0.9691 -0.0396
23318SOL     OW87945   6.102  11.368  11.060  0.7183  0.2040 -0.3432
23318SOL    HW187946   6.091  11.394  10.969  3.8809  0.5573 -0.7035
23318SOL    HW287947   6.150  11.440  11.100 -1.0686  0.3092  1.8129
23319SOL     OW87948  12.224   4.892  14.067 -0.4596  0.3268 -0.1042
23319SOL    HW187949  12.307   4.936  14.082  0.0245 -0.4324 -0.5040
23319SOL    HW287950  12.220   4.822  14.132 -1.1544  0.8433  0.4282
23320SOL     OW87951  12.744   3.716   4.614  0.2217  0.1441 -0.3850
23320SOL    HW187952  12.812   3.781   4.632  0.2535 -0.0281  0.1464
23320SOL    HW287953  12.733   3.670   4.698 -1.0307  0.6187 -0.2762
23321SOL     OW87954   7.330   0.047  12.504 -0.4843  0.2024  0.1069
23321SOL    HW187955   7.423   0.029  12.521 -0.4689  0.3279  0.1633
23321SOL    HW287956   7.325   0.143  12.502 -0.8699  0.2318  1.5914
23322SOL     OW87957   4.300   1.722  11.747  0.0455  0.4062  0.1175
23322SOL    HW187958   4.249   1.715  11.828 -1.0936  0.4002 -0.5751
23322SOL    HW287959   4.382   1.677  11.765  0.2032  1.2323  1.5787
23323SOL     OW87960  11.059   0.548  13.527  0.2856 -0.4359 -0.0643
23323SOL    HW187961  10.996   0.575  13.459 -0.2305  0.1762  0.6392
23323SOL    HW287962  11.066   0.624  13.585  0.9178 -0.8584  0.4255
23324SOL     OW87963  12.717   4.021   8.906  0.0094 -0.3655  0.0838
23324SOL    HW187964  12.779   3.977   8.848  0.0631 -0.7743  0.4449
23324SOL    HW287965  12.725   3.974   8.989 -2.0511 -1.5638 -0.3521
23325SOL     OW87966   5.180   4.155   6.287  0.6612 -0.4389  0.3356
23325SOL    HW187967   5.194   4.076   6.234 -0.8772 -0.4690 -0.0645
23325SOL    HW287968   5.131   4.213   6.229  1.1261  0.5305  0.8966
23326SOL     OW87969   3.514   9.691  14.140  0.3938  0.2214  0.1644
23326SOL    HW187970   3.434   9.649  14.171  0.4035  0.5806  0.6834
23326SOL    HW287971   3.554   9.625  14.083 -0.3235  0.0839 -0.1952
23327SOL     OW87972   4.217  12.710   2.400 -0.5818  0.3404  0.2450
23327SOL    HW187973   4.166  12.685   2.478  1.1452 -0.9389  1.0385
23327SOL    HW287974   4.239  12.802   2.415 -0.9654  0.3376  0.8865
23328SOL     OW87975   8.766   1.212  13.080  0.9655 -0.2392  0.0179
23328SOL    HW187976   8.791   1.287  13.025 -0.3859  1.7595  1.9455
23328SOL    HW287977   8.830   1.145  13.059  1.1026  0.7104 -3.2441
23329SOL     OW87978   0.614   2.588  10.836 -0.1579 -0.7983 -0.4075
23329SOL    HW187979   0.624   2.525  10.765  1.3040 -0.3853 -0.6036
23329SOL    HW287980   0.607   2.534  10.915 -0.8591 -1.2350 -0.7556
23330SOL     OW87981  11.992   5.126  12.514 -0.1348  0.7592  0.2122
23330SOL    HW187982  12.019   5.036  12.531  2.1275  1.2083 -0.7216
23330SOL    HW287983  12.037   5.178  12.580  0.6937  1.4503 -0.8550
23331SOL     OW87984   1.589   3.090  12.271 -0.3715 -0.6069  0.0255
23331SOL    HW187985   1.641   3.010  12.272 -0.0816 -0.4587 -1.2654
23331SOL    HW287986   1.507   3.065  12.229 -1.7014 -1.0044  2.6695
23332SOL     OW87987   1.046   2.026   4.402  0.0973 -0.5749  0.1964
23332SOL    HW187988   0.982   2.057   4.337  3.1052 -0.0503 -2.7746
23332SOL    HW287989   1.050   1.932   4.388  0.7643 -0.4585 -0.4384
23333SOL     OW87990   6.656   1.556   1.612 -0.2363 -0.0730 -0.1639
23333SOL    HW187991   6.625   1.574   1.523 -0.4073 -1.5636 -0.4400
23333SOL    HW287992   6.576   1.547   1.663 -0.1841 -0.5636 -0.1611
23334SOL     OW87993   2.072   3.078   6.456  0.1953  0.2339  0.0466
23334SOL    HW187994   1.998   3.023   6.429 -0.0706  1.0238 -0.8594
23334SOL    HW287995   2.144   3.016   6.466 -0.4743 -0.4931  0.5519
23335SOL     OW87996   9.096  14.111   6.547  0.1833 -0.5330  0.2865
23335SOL    HW187997   9.177  14.137   6.504 -1.0021 -0.7035 -2.2243
23335SOL    HW287998   9.087  14.018   6.526 -2.1580  0.1419 -2.2944
23336SOL     OW87999  11.455  11.721   2.208  0.2527 -0.4676  0.2110
23336SOL    HW188000  11.376  11.742   2.257  0.2797 -1.0594  0.5128
23336SOL    HW288001  11.477  11.802   2.162  1.1779  0.6539  2.4715
23337SOL     OW88002   3.775   7.319   7.692  0.0802  0.5740 -0.1653
23337SOL    HW188003   3.843   7.338   7.756 -0.6133  0.8017  0.5221
23337SOL    HW288004   3.693   7.324   7.742 -0.3449 -1.3324 -0.5791
23338SOL     OW88005  11.805   1.972   5.506  0.2003 -0.6484  0.3736
23338SOL    HW188006  11.850   2.032   5.447  0.6458 -1.8211 -0.5073
23338SOL    HW288007  11.749   1.919   5.450 -0.9247 -0.4281  1.2500
23339SOL     OW88008  13.730   2.123   3.079 -0.3179  0.4417  0.1088
23339SOL    HW188009  13.666   2.163   3.020  0.7839  0.8835 -0.8246
23339SOL    HW288010  13.789   2.075   3.021  1.0178  1.1972  0.8044
23340SOL     OW88011  14.142  12.462   9.276  0.0228  0.4901  0.1968
23340SOL    HW188012  14.201  12.463   9.351  1.0623  0.7712 -0.6019
23340SOL    HW288013  14.180  12.397   9.217 -1.3087 -0.4248  0.3117
23341SOL     OW88014   7.774  12.456   2.171  0.3649  0.0466 -0.0045
23341SOL    HW188015   7.683  12.463   2.139  0.1362  0.5031  0.7233
23341SOL    HW288016   7.774  12.376   2.222  0.2114  0.3573  0.4891
23342SOL     OW88017   8.995   7.679   3.878  0.2422 -0.1550  0.4960
23342SOL    HW188018   8.997   7.773   3.859 -0.8966 -0.2881 -0.3535
23342SOL    HW288019   9.080   7.646   3.847 -0.5699  0.0582 -2.1884
23343SOL     OW88020  12.260  13.312  14.094 -0.4748 -0.4701  0.1543
23343SOL    HW188021  12.264  13.278  14.184 -0.7233  0.1691  0.4109
23343SOL    HW288022  12.348  13.297  14.059 -1.1770 -3.6128 -0.5871
23344SOL     OW88023   2.443   1.001  10.388  0.6980 -0.3471  0.1198
23344SOL    HW188024   2.463   1.071  10.450 -1.3240  1.5516 -1.1951
23344SOL    HW288025   2.348   1.008  10.374  0.1967 -3.9609  0.5449
23345SOL     OW88026   3.231  11.430  12.735 -0.1512  0.4715 -0.0087
23345SOL    HW188027   3.161  11.487  12.767 -0.6082 -0.2268  0.2545
23345SOL    HW288028   3.310  11.485  12.739 -0.5587  1.0433  0.3631
23346SOL     OW88029  12.292  12.487   8.381  0.3135  0.0657  0.3113
23346SOL    HW188030  12.230  12.471   8.452  0.0647  1.0385  0.3316
23346SOL    HW288031  12.257  12.564   8.335  0.5033 -0.5000 -0.8315
23347SOL     OW88032   7.890   9.968  10.500  0.1380 -0.2694  0.1562
23347SOL    HW188033   7.879  10.060  10.477 -0.4249 -0.3239  0.1866
23347SOL    HW288034   7.915   9.968  10.592 -0.2198 -0.1622  0.2538
23348SOL     OW88035   4.281   9.789  11.475 -0.1888  0.2420 -0.0737
23348SOL    HW188036   4.346   9.736  11.428 -0.6858 -0.7006  0.2877
23348SOL    HW288037   4.300   9.879  11.448  1.4049  0.0124  0.1828
23349SOL     OW88038   3.520   8.373  10.415 -0.1048 -0.3644 -0.1637
23349SOL    HW188039   3.463   8.333  10.350 -0.5139 -0.1906  0.0799
23349SOL    HW288040   3.494   8.465  10.416 -0.6397 -0.5123  0.7893
23350SOL     OW88041  12.602   1.723   3.119 -0.1763  0.1285  0.2502
23350SOL    HW188042  12.564   1.668   3.051 -0.3116 -0.0222  0.4461
23350SOL    HW288043  12.526   1.760   3.165 -0.0902 -0.1293  0.6070
23351SOL     OW88044   4.011  14.131  12.418  0.3165  0.0728 -0.1711
23351SOL    HW188045   4.012  14.035  12.415 -0.6798 -0.0022  1.2397
23351SOL    HW288046   3.919  14.154  12.415  0.2520  0.7926  3.2576
23352SOL     OW88047   7.752   1.934  13.097  0.3421  0.2897  1.0436
23352SOL    HW188048   7.705   1.868  13.046  1.4497  0.6071 -0.4482
23352SOL    HW288049   7.759   1.896  13.185 -0.6170 -0.7732  0.6812
23353SOL     OW88050   4.178   7.074   2.715 -0.1771 -0.3439  0.5430
23353SOL    HW188051   4.184   7.029   2.631  1.8252  1.3421 -0.3083
23353SOL    HW288052   4.211   7.011   2.778  1.2341 -0.6075 -0.4104
23354SOL     OW88053   6.971  12.718  12.780  0.0574 -0.1331  0.1746
23354SOL    HW188054   6.975  12.638  12.727 -0.0055  0.6110 -0.9944
23354SOL    HW288055   7.007  12.786  12.723  2.0467  0.3362  1.8464
23355SOL     OW88056   9.546   9.424   7.522 -0.3482  0.5192  0.0569
23355SOL    HW188057   9.485   9.368   7.571  0.7619  0.7993  1.8392
23355SOL    HW288058   9.582   9.366   7.454 -0.8890 -0.2990  0.4494
23356SOL     OW88059   8.663   2.754  12.797 -0.9354  0.5207 -0.4631
23356SOL    HW188060   8.632   2.781  12.710  0.2010 -0.8027 -1.3351
23356SOL    HW288061   8.752   2.790  12.803 -0.9390  0.4515  0.0715
23357SOL     OW88062   1.191   9.839   0.439 -0.1307  0.1821 -0.2873
23357SOL    HW188063   1.245   9.760   0.440  0.6647  0.7150 -0.7265
23357SOL    HW288064   1.235   9.898   0.377 -1.3824  0.5015 -0.9076
23358SOL     OW88065   4.448   6.539  12.158  0.5596  0.2360  0.0437
23358SOL    HW188066   4.393   6.463  12.140  0.9547 -0.2724  0.9171
23358SOL    HW288067   4.498   6.553  12.078  0.7624 -0.6684  0.0086
23359SOL     OW88068   8.548   0.695   2.723  0.2235  0.0734 -0.2011
23359SOL    HW188069   8.574   0.617   2.773  0.0652  1.2338  1.7884
23359SOL    HW288070   8.621   0.710   2.662  1.0798 -0.5983  0.6352
23360SOL     OW88071   0.222   8.370  10.823 -0.1708 -0.2619  0.3534
23360SOL    HW188072   0.216   8.405  10.912  0.7877  0.8740  0.0092
23360SOL    HW288073   0.226   8.275  10.834 -1.5763 -0.2292  1.4124
23361SOL     OW88074  13.285   8.035   3.711  0.4305 -0.3835 -0.1433
23361SOL    HW188075  13.296   8.086   3.791  0.7217 -1.2185  0.3670
23361SOL    HW288076  13.218   7.970   3.733 -1.2143  0.8330 -1.3253
23362SOL     OW88077   3.112  10.781   4.342  0.6687 -0.5782  0.9053
23362SOL    HW188078   3.059  10.730   4.404  0.0295 -0.8927  0.1191
23362SOL    HW288079   3.101  10.872   4.371  0.1602 -0.6938  1.0940
23363SOL     OW88080   8.256  12.798   9.851 -0.3176  0.0691  0.3124
23363SOL    HW188081   8.332  12.795   9.792 -0.6921  0.6968 -0.2127
23363SOL    HW288082   8.210  12.716   9.836 -0.7465  0.4888 -0.7338
23364SOL     OW88083   9.224  12.229   2.944 -0.2401 -0.8339  0.1417
23364SOL    HW188084   9.276  12.270   2.875  1.1629 -2.6659  0.0156
23364SOL    HW288085   9.218  12.295   3.013  2.5716 -0.6200  0.2965
23365SOL     OW88086   2.390  13.672  13.386 -0.0779  0.1899  0.1174
23365SOL    HW188087   2.379  13.605  13.318 -1.9158 -1.0148  1.4824
23365SOL    HW288088   2.367  13.754  13.342 -1.9166 -0.6408 -0.5989
23366SOL     OW88089  10.159  11.886   1.383  0.9451 -0.1933 -0.1048
23366SOL    HW188090  10.156  11.896   1.288  0.2799  0.7257  0.0010
23366SOL    HW288091  10.229  11.823   1.398  0.5996 -0.8825 -1.2419
23367SOL     OW88092   5.225   5.449   9.645  0.0912 -0.3988 -0.1365
23367SOL    HW188093   5.192   5.365   9.678  1.8692 -0.5296  1.5424
23367SOL    HW288094   5.314   5.454   9.680 -0.2176  2.5403  0.4591
23368SOL     OW88095   0.520   2.728  11.787 -0.1565  0.2368 -0.4959
23368SOL    HW188096   0.453   2.678  11.834  0.2669  1.1508  1.1578
23368SOL    HW288097   0.582   2.661  11.755 -2.1772 -0.7170 -2.7962
23369SOL     OW88098   0.329   8.479   1.895 -0.2188  0.0819 -0.1527
23369SOL    HW188099   0.302   8.417   1.962  0.3704 -0.6126 -0.5507
23369SOL    HW288100   0.414   8.511   1.924 -0.7643  1.1550  0.3425
23370SOL     OW88101   3.870   0.232  10.746  0.8410  0.2385  0.1702
23370SOL    HW188102   3.950   0.285  10.736  1.4216 -0.7505 -0.5488
23370SOL    HW288103   3.883   0.185  10.828  0.6764  0.6200  0.4148
23371SOL     OW88104   9.512   4.610   5.932  0.0578 -0.0988  0.2372
23371SOL    HW188105   9.484   4.540   5.873  0.9153  0.0316 -0.3272
23371SOL    HW288106   9.587   4.574   5.979  0.2297  0.2918  0.2634
23372SOL     OW88107   1.105   2.498   5.391 -0.0829  0.2204  0.1574
23372SOL    HW188108   1.124   2.539   5.306  1.6165  2.2218  1.4005
23372SOL    HW288109   1.016   2.527   5.412 -0.7677 -0.7940 -1.1443
23373SOL     OW88110  12.744   7.739  13.969 -0.4012 -0.4453 -0.1771
23373SOL    HW188111  12.765   7.650  13.939 -0.0435 -0.6392  0.6156
23373SOL    HW288112  12.696   7.778  13.897  0.6892 -0.7949 -1.1109
23374SOL     OW88113   4.003   1.397   7.434  0.1322 -0.4813  0.0148
23374SOL    HW188114   4.048   1.481   7.424 -1.9322  0.9767  2.0460
23374SOL    HW288115   4.013   1.354   7.349  0.5441  2.1894 -1.3916
23375SOL     OW88116   9.076  12.574   5.169 -0.0110  0.2087 -0.0867
23375SOL    HW188117   9.090  12.538   5.257  0.1255 -1.1209 -0.6357
23375SOL    HW288118   9.161  12.613   5.146  0.1619 -0.0667  0.0856
23376SOL     OW88119   4.343  10.999   1.206  0.9107 -0.2071  0.0363
23376SOL    HW188120   4.381  10.968   1.124 -0.2144  0.8543 -0.9140
23376SOL    HW288121   4.263  10.949   1.216  1.4792 -0.9653  0.9712
23377SOL     OW88122   6.929   5.424   7.193  0.1555  0.1906  0.2206
23377SOL    HW188123   6.850   5.458   7.152  1.1502  0.4401 -1.5913
23377SOL    HW288124   6.961   5.495   7.248  0.6556  1.1617 -1.2887
23378SOL     OW88125   1.562   6.829   1.423  0.3753  0.0508 -0.6878
23378SOL    HW188126   1.483   6.789   1.461 -0.2996  1.0636 -0.9646
23378SOL    HW288127   1.543   6.834   1.329 -0.2286  2.3347 -0.5093
23379SOL     OW88128   2.726  10.532   2.631  0.0479  0.0922 -0.2548
23379SOL    HW188129   2.708  10.439   2.617  0.4038  0.2111 -1.6857
23379SOL    HW288130   2.821  10.540   2.619 -0.0536  0.7182 -0.6647
23380SOL     OW88131   1.773  12.763   4.283 -0.7727  0.2592 -0.2571
23380SOL    HW188132   1.782  12.755   4.378  1.4599  0.8767 -0.3404
23380SOL    HW288133   1.786  12.857   4.266 -0.3652  0.0410 -1.2115
23381SOL     OW88134   1.205   0.373   5.775 -0.3181 -0.0131  0.3143
23381SOL    HW188135   1.285   0.345   5.819 -1.0056  0.8737  2.2375
23381SOL    HW288136   1.235   0.437   5.710  0.6699 -1.0041 -0.2574
23382SOL     OW88137  11.865   4.801  10.847  0.0484 -0.2713 -0.0617
23382SOL    HW188138  11.887   4.765  10.933  1.7765  0.2404 -0.2433
23382SOL    HW288139  11.918   4.749  10.786  0.7579  1.0024 -0.5570
23383SOL     OW88140  11.960   1.720   8.545 -0.1797 -0.7668 -0.1629
23383SOL    HW188141  11.970   1.815   8.557 -0.0050 -0.8233  0.1271
23383SOL    HW288142  11.898   1.694   8.612 -1.7508 -0.5442 -1.4644
23384SOL     OW88143   7.491   7.139  11.992 -0.1314  0.4002 -0.2905
23384SOL    HW188144   7.570   7.116  12.040 -0.8706 -1.4635  0.1227
23384SOL    HW288145   7.507   7.106  11.903 -0.1745  0.6040 -0.3720
23385SOL     OW88146   5.258   1.835  11.345 -0.0328 -0.6111 -0.0219
23385SOL    HW188147   5.316   1.896  11.300 -2.0146  0.0973 -1.7723
23385SOL    HW288148   5.175   1.839  11.297 -1.2454 -2.3508  1.7106
23386SOL     OW88149   7.902   3.795   4.839  0.1099 -0.0818  0.2123
23386SOL    HW188150   7.974   3.767   4.784 -0.3188 -0.7714 -0.0053
23386SOL    HW288151   7.858   3.714   4.865 -0.5718  0.3232  0.3589
23387SOL     OW88152  14.049   6.875   0.784  0.5423 -0.7416 -0.2308
23387SOL    HW188153  14.082   6.793   0.747  0.6254 -0.4797 -0.7422
23387SOL    HW288154  14.016   6.850   0.870 -0.6131 -1.5666 -0.8747
23388SOL     OW88155   5.480   6.748   7.451 -0.0266  0.1722 -0.2615
23388SOL    HW188156   5.506   6.840   7.464 -1.9697  0.8644 -0.8758
23388SOL    HW288157   5.399   6.753   7.400 -1.7234 -1.7270  1.9647
23389SOL     OW88158   1.575   3.043   0.872  0.4989  0.4019  0.4724
23389SOL    HW188159   1.655   3.004   0.838  0.7711 -0.2947  1.8168
23389SOL    HW288160   1.505   3.004   0.820  1.0455  1.6503 -1.2873
23390SOL     OW88161   5.951   1.069   7.856 -0.3771 -0.0025 -0.2802
23390SOL    HW188162   5.985   1.103   7.939  0.8483 -0.5186 -0.5410
23390SOL    HW288163   5.995   0.984   7.845  0.7937  0.7702 -2.2305
23391SOL     OW88164  11.050   1.887   1.987 -0.4081  0.5336  0.1645
23391SOL    HW188165  11.020   1.963   1.936 -2.3171  0.1823  0.6907
23391SOL    HW288166  11.043   1.814   1.926 -5.1872 -0.3732  1.3725
23392SOL     OW88167   5.742  11.584   8.310  0.5017 -0.3698 -0.2179
23392SOL    HW188168   5.775  11.674   8.311 -0.3299 -0.0532  0.2383
23392SOL    HW288169   5.647  11.594   8.300  0.3684 -1.1838  0.1780
23393SOL     OW88170   2.238   8.844   1.681 -0.0774 -0.1144 -0.3305
23393SOL    HW188171   2.287   8.763   1.675 -0.4832 -0.2943 -1.2754
23393SOL    HW288172   2.157   8.820   1.727 -0.6288 -0.4637 -1.4495
23394SOL     OW88173  12.717   3.383   8.139 -0.1976  0.2581  0.2291
23394SOL    HW188174  12.742   3.299   8.099 -0.4593 -0.8293  2.2444
23394SOL    HW288175  12.795   3.437   8.133 -0.1603  0.0671 -1.5013
23395SOL     OW88176  10.073   2.766  11.190  0.2107 -0.7515  0.1438
23395SOL    HW188177   9.986   2.741  11.161  0.3353 -2.0748  0.8301
23395SOL    HW288178  10.125   2.768  11.109  0.0234 -2.1226 -0.0465
23396SOL     OW88179   1.293   5.349  11.930 -0.1326 -0.2499  0.2992
23396SOL    HW188180   1.208   5.311  11.907  0.5198 -2.2265  0.8835
23396SOL    HW288181   1.306   5.419  11.867 -2.3192  0.3108  0.3894
23397SOL     OW88182   6.967   9.969   5.457  0.5119  0.2907  0.0543
23397SOL    HW188183   6.884   9.934   5.424  0.7296 -0.0916 -0.0893
23397SOL    HW288184   6.949  10.062   5.473 -0.2651 -0.0059  1.0631
23398SOL     OW88185  12.981  12.842   5.249 -0.3729 -0.0245  0.3385
23398SOL    HW188186  12.998  12.934   5.226  0.1983 -0.2395 -0.0962
23398SOL    HW288187  12.911  12.816   5.189 -2.6289  0.9716  2.3782
23399SOL     OW88188  10.459   3.259   2.774  0.5989 -0.4966 -0.7133
23399SOL    HW188189  10.368   3.242   2.799  0.7028  0.5093  0.4435
23399SOL    HW288190  10.455   3.272   2.679 -0.4702 -0.4556 -0.6737
23400SOL     OW88191   3.014   0.166   4.780  0.0960 -0.2368  0.0995
23400SOL    HW188192   2.976   0.083   4.810 -0.2100 -0.2831 -0.4105
23400SOL    HW288193   3.090   0.141   4.728  1.1363 -0.1337  1.4830
23401SOL     OW88194   5.795   8.905   1.442 -0.2011 -0.0514 -0.3394
23401SOL    HW188195   5.854   8.955   1.384 -1.1532  1.4307 -0.0836
23401SOL    HW288196   5.714   8.896   1.391 -0.8850  0.8608  0.5484
23402SOL     OW88197   5.754  11.180   1.120  0.1408  0.2078 -0.5938
23402SOL    HW188198   5.778  11.101   1.170  3.3794  0.3643 -1.6537
23402SOL    HW288199   5.803  11.250   1.162 -0.9151  1.2593 -1.0757
23403SOL     OW88200   7.734  13.125   7.008  0.0227  0.0450  0.3446
23403SOL    HW188201   7.665  13.183   6.976 -3.4479 -4.6190 -1.5956
23403SOL    HW288202   7.719  13.119   7.103 -1.3885  0.1770  0.1493
23404SOL     OW88203  13.563   4.292  14.025 -0.3306 -0.1206 -0.2501
23404SOL    HW188204  13.601   4.243  13.952 -0.3795 -1.5493  0.6473
23404SOL    HW288205  13.497   4.233  14.061 -1.2589  1.1048  0.1275
23405SOL     OW88206   0.601   8.786   9.702  0.6131  0.1359 -0.0288
23405SOL    HW188207   0.654   8.860   9.733  0.4224 -0.3023  1.4423
23405SOL    HW288208   0.525   8.786   9.760 -0.2364 -0.2051 -1.1052
23406SOL     OW88209   2.436   3.698   1.014  0.1478 -0.7961  0.0048
23406SOL    HW188210   2.461   3.789   1.032 -0.3034 -0.7449  0.3758
23406SOL    HW288211   2.404   3.700   0.924 -2.8693  0.0628  0.9950
23407SOL     OW88212   5.755   6.349  12.773  0.4334 -0.3588  0.2540
23407SOL    HW188213   5.769   6.384  12.686  0.0808  0.8982  0.6782
23407SOL    HW288214   5.832   6.295  12.791  0.5652 -0.5177 -0.7648
23408SOL     OW88215  11.816   5.601   7.463 -0.0240 -0.1814 -0.7440
23408SOL    HW188216  11.874   5.557   7.400  0.3056 -0.8261 -0.0043
23408SOL    HW288217  11.875   5.636   7.530 -0.4675 -0.8075 -0.0071
23409SOL     OW88218   2.581  13.580  11.164  0.2257  0.6888  0.6378
23409SOL    HW188219   2.541  13.590  11.250  1.8519 -0.9066  1.6422
23409SOL    HW288220   2.584  13.486  11.149  1.3092  0.8812 -0.5076
23410SOL     OW88221   2.601  13.173   9.758  0.1880 -0.0499 -0.3794
23410SOL    HW188222   2.518  13.204   9.793  0.2007 -1.5930  1.1734
23410SOL    HW288223   2.668  13.216   9.811  0.2929 -0.5665 -0.0876
23411SOL     OW88224  13.272   8.813   8.228 -0.5906 -0.2420  0.2538
23411SOL    HW188225  13.303   8.876   8.292  1.0449 -0.7416  0.0117
23411SOL    HW288226  13.243   8.738   8.280  1.5924 -1.0285  0.4912
23412SOL     OW88227  10.675  10.865   9.102 -0.7880  0.0852  0.2566
23412SOL    HW188228  10.669  10.900   9.191 -0.7782  1.0241 -0.0984
23412SOL    HW288229  10.584  10.857   9.073 -0.7667  0.6334  0.0330
23413SOL     OW88230   6.526   0.089   1.521 -0.2458  0.2505 -0.3765
23413SOL    HW188231   6.475   0.049   1.451 -2.1496 -0.4640  1.3165
23413SOL    HW288232   6.555   0.173   1.485  0.4048 -0.8607 -2.6086
23414SOL     OW88233   3.550   1.436   4.789 -0.8381  0.3587 -0.6962
23414SOL    HW188234   3.462   1.397   4.791  0.2991 -2.4637 -0.3451
23414SOL    HW288235   3.587   1.407   4.706  0.1537  0.5529 -0.3381
23415SOL     OW88236   6.066   1.866  12.473 -0.1066  0.5176 -0.2289
23415SOL    HW188237   5.980   1.850  12.511 -0.5371  2.8121 -0.1073
23415SOL    HW288238   6.128   1.839  12.541 -0.7394  0.0210  0.1665
23416SOL     OW88239   4.654  12.432   3.907 -0.3348 -0.0416 -0.4060
23416SOL    HW188240   4.615  12.368   3.967  1.2648 -2.0780 -1.4113
23416SOL    HW288241   4.732  12.462   3.952  0.6893 -1.3266 -1.2358
23417SOL     OW88242   8.864  10.166   9.041  0.5909  0.4209 -0.3767
23417SOL    HW188243   8.785  10.180   9.094  0.6819 -2.2983  0.6518
23417SOL    HW288244   8.845  10.207   8.957 -2.0366 -0.3427 -0.2336
23418SOL     OW88245   9.031   3.211   5.724 -0.3307 -0.4184  0.2037
23418SOL    HW188246   9.029   3.172   5.637 -0.6658  1.1010 -0.4943
23418SOL    HW288247   9.124   3.210   5.749  0.0559  0.9636 -1.0504
23419SOL     OW88248   1.421  13.736   3.846  0.2778 -0.6208  0.6541
23419SOL    HW188249   1.461  13.796   3.783  0.1893  0.5003  1.6265
23419SOL    HW288250   1.366  13.793   3.901  1.1434 -1.3835  2.3819
23420SOL     OW88251  13.036   2.858  13.996  0.1151  0.3311 -0.3413
23420SOL    HW188252  13.006   2.946  13.973 -2.4811 -0.0112  1.3224
23420SOL    HW288253  13.059   2.817  13.912  0.6185  2.2901 -1.2130
23421SOL     OW88254   8.639   0.734  10.827 -0.2922 -0.0952 -0.2495
23421SOL    HW188255   8.727   0.711  10.796 -0.7701  0.0265 -1.7468
23421SOL    HW288256   8.628   0.683  10.907  0.9324 -0.5218 -0.3324
23422SOL     OW88257   0.790   1.860  12.143 -0.7437  0.5320  0.7722
23422SOL    HW188258   0.744   1.918  12.205  2.1854  0.6944  2.9909
23422SOL    HW288259   0.791   1.775  12.186  1.1442  0.5939  0.9404
23423SOL     OW88260  13.695  11.588  10.050 -0.4161 -0.2893  0.1158
23423SOL    HW188261  13.729  11.517   9.994 -1.3430  0.3381 -1.2985
23423SOL    HW288262  13.613  11.553  10.085 -0.1031 -0.4783  0.6726
23424SOL     OW88263   6.477  12.909  11.010  0.3121 -0.2375 -0.5665
23424SOL    HW188264   6.534  12.955  10.948 -0.6108  1.4033 -0.2783
23424SOL    HW288265   6.536  12.853  11.060  1.8678  1.9696  0.2505
23425SOL     OW88266   0.313   9.151   6.180 -0.2728 -0.1306 -0.9371
23425SOL    HW188267   0.281   9.196   6.259  0.1511  1.5692 -1.6907
23425SOL    HW288268   0.254   9.181   6.111  0.3862 -0.2824 -1.5706
23426SOL     OW88269   0.440   3.628  12.234  0.4326 -0.0762  0.3093
23426SOL    HW188270   0.358   3.581  12.242  1.1607 -1.1893  1.6269
23426SOL    HW288271   0.414   3.717  12.209 -1.1631 -0.3873  0.7445
23427SOL     OW88272   5.097   6.848  11.251  0.5421  0.3283 -0.3124
23427SOL    HW188273   5.165   6.866  11.315  0.0832 -0.6462  0.4750
23427SOL    HW288274   5.138   6.789  11.188  0.1623 -1.1008  0.7312
23428SOL     OW88275   4.520   0.622   2.613  0.7485 -0.4130 -0.0619
23428SOL    HW188276   4.523   0.638   2.707 -0.9563  0.1749 -0.0738
23428SOL    HW288277   4.476   0.538   2.604 -0.4822  0.2514 -0.3721
23429SOL     OW88278   8.527   8.950   6.526 -0.0643  0.1121  0.6960
23429SOL    HW188279   8.496   8.966   6.437 -0.7881 -0.0942  0.8965
23429SOL    HW288280   8.594   8.883   6.517 -0.7330 -0.5337  0.3815
23430SOL     OW88281   8.754   5.845   2.471 -0.5171 -0.4339  0.1509
23430SOL    HW188282   8.826   5.786   2.492  0.1169  0.1063 -0.4841
23430SOL    HW288283   8.795   5.931   2.459 -1.4868  0.3015  1.6974
23431SOL     OW88284   5.553   9.015   7.890  0.0767 -0.3600  0.3508
23431SOL    HW188285   5.647   9.033   7.893  0.0905 -0.2499 -0.5454
23431SOL    HW288286   5.511   9.097   7.918  0.2454 -0.5796  1.2931
23432SOL     OW88287  14.149   4.537  11.114 -0.1020 -0.1924 -0.4227
23432SOL    HW188288  14.142   4.444  11.091 -1.7440 -0.4551  0.9705
23432SOL    HW288289  14.232   4.544  11.161 -0.2167 -1.0556 -0.0804
23433SOL     OW88290   0.241   4.380   0.463 -0.1823  0.5925  0.0466
23433SOL    HW188291   0.271   4.455   0.515  0.5512  1.6784 -1.8295
23433SOL    HW288292   0.314   4.318   0.467  0.2970  1.1108 -0.4901
23434SOL     OW88293   1.069  11.749  10.013 -0.4573  0.1275 -0.1686
23434SOL    HW188294   0.998  11.755  10.077 -0.1465 -0.4945  0.2448
23434SOL    HW288295   1.025  11.738   9.929 -0.8946 -2.8221  0.3216
23435SOL     OW88296   7.658   7.678  11.304  0.3199  0.4225 -0.7096
23435SOL    HW188297   7.657   7.584  11.284  0.9903  0.5020 -1.1234
23435SOL    HW288298   7.567   7.705  11.293  0.2341 -0.0493 -1.2062
23436SOL     OW88299   3.452  12.484   5.661 -0.1867  0.0240  0.4416
23436SOL    HW188300   3.404  12.420   5.608 -0.1680  0.6572 -0.3684
23436SOL    HW288301   3.502  12.535   5.597 -0.3528  0.9670  1.0379
23437SOL     OW88302  12.174   7.521   6.329  0.4956  0.0744 -0.0062
23437SOL    HW188303  12.194   7.614   6.331  0.0527  0.1711  0.0656
23437SOL    HW288304  12.133   7.507   6.244 -0.1255  0.0941  0.2853
23438SOL     OW88305  13.242  10.759   1.972 -0.1878 -0.0497 -0.2414
23438SOL    HW188306  13.300  10.684   1.985  1.7159  1.3115 -0.4162
23438SOL    HW288307  13.165  10.722   1.929  1.2988 -1.7068 -1.6943
23439SOL     OW88308   5.270   3.311   2.490  0.1025 -0.5638 -0.5114
23439SOL    HW188309   5.278   3.216   2.481 -1.4435 -1.0033  1.8524
23439SOL    HW288310   5.306   3.330   2.577 -1.6318  0.6522  0.0099
23440SOL     OW88311  10.532   4.106   6.327  0.6378  0.5663  0.0263
23440SOL    HW188312  10.559   4.165   6.256  1.3541 -0.4801 -0.5934
23440SOL    HW288313  10.581   4.026   6.312  0.9080  0.3548  1.8021
23441SOL     OW88314   3.467   7.306   6.387 -0.3590 -0.4245  0.3310
23441SOL    HW188315   3.553   7.347   6.380 -0.2815 -0.2779  1.8805
23441SOL    HW288316   3.409   7.365   6.339  0.4856 -0.9021 -1.3767
23442SOL     OW88317  10.716   0.442  12.334  0.1340  0.8449 -0.2762
23442SOL    HW188318  10.724   0.375  12.401 -0.9076  0.9538 -0.0177
23442SOL    HW288319  10.795   0.495  12.342 -0.4929  1.5550  1.6410
23443SOL     OW88320   4.548  13.960   5.890 -0.1217  0.0108 -0.4843
23443SOL    HW188321   4.465  14.006   5.876  0.3419  0.5357 -1.5601
23443SOL    HW288322   4.546  13.887   5.829  0.4259  0.3167 -0.8725
23444SOL     OW88323   4.890   5.745  10.221 -0.2916 -0.6553  0.3365
23444SOL    HW188324   4.979   5.731  10.252 -0.1971 -0.0102  0.3529
23444SOL    HW288325   4.844   5.784  10.295 -0.1698  0.5024 -0.1769
23445SOL     OW88326   1.846  11.622  11.591 -0.4788  0.5111  0.3663
23445SOL    HW188327   1.763  11.587  11.624 -1.3579  3.5549  1.7294
23445SOL    HW288328   1.913  11.576  11.641 -1.4136 -0.7038  0.5614
23446SOL     OW88329   8.369  12.989   6.519  0.5431 -0.3228 -0.2278
23446SOL    HW188330   8.437  13.004   6.585 -0.0359  2.5782 -0.1659
23446SOL    HW288331   8.402  13.032   6.440  0.3105 -1.9893 -1.2796
23447SOL     OW88332   0.346   4.365   8.361  0.2845  0.2183 -0.6938
23447SOL    HW188333   0.426   4.339   8.315  0.4955  0.9207 -0.7344
23447SOL    HW288334   0.304   4.428   8.302 -0.1823  0.0281 -0.5699
23448SOL     OW88335  11.436   2.358   9.893  0.0120  1.0019 -0.2863
23448SOL    HW188336  11.342   2.371   9.885  0.3790  2.9804 -2.3158
23448SOL    HW288337  11.464   2.424   9.958 -0.1507 -0.7376  1.6537
23449SOL     OW88338  11.888   3.932   2.858 -0.7995  0.1166 -0.3966
23449SOL    HW188339  11.923   3.965   2.775  2.0053 -2.0355 -0.2107
23449SOL    HW288340  11.818   3.872   2.833  0.6786 -1.2855 -1.3696
23450SOL     OW88341  12.433  10.225   4.495  0.4598 -0.7836  0.4193
23450SOL    HW188342  12.454  10.318   4.492 -0.5018 -0.5489  0.5457
23450SOL    HW288343  12.367  10.218   4.564 -1.5573 -1.1076 -1.4129
23451SOL     OW88344  10.181  13.389  10.443 -0.4453 -0.1534 -0.7611
23451SOL    HW188345  10.142  13.345  10.368  0.1102 -0.8173 -0.6721
23451SOL    HW288346  10.134  13.355  10.519 -1.6916  1.2704 -0.8638
23452SOL     OW88347   4.885  13.245   4.989 -0.0299 -0.2957 -0.1955
23452SOL    HW188348   4.856  13.314   5.048  2.4076 -0.0485  0.8584
23452SOL    HW288349   4.934  13.185   5.045 -1.2330 -2.3988 -1.2674
23453SOL     OW88350   6.895   7.205  14.028  0.2421 -0.3384 -0.7183
23453SOL    HW188351   6.848   7.181  13.949 -1.1476 -0.8353  0.2258
23453SOL    HW288352   6.983   7.228  13.998 -0.3635 -0.1503 -2.4341
23454SOL     OW88353   9.191   2.127  13.759 -0.2708  0.4878 -0.2230
23454SOL    HW188354   9.279   2.092  13.747 -0.5920 -1.0376  1.3732
23454SOL    HW288355   9.141   2.093  13.685  0.3562  0.9758 -0.8824
23455SOL     OW88356   0.591   3.952  10.087 -0.2352 -0.2686  0.1451
23455SOL    HW188357   0.602   3.924  10.178 -0.7325  1.0519  0.6197
23455SOL    HW288358   0.615   4.044  10.087  1.0862 -0.5721 -1.3478
23456SOL     OW88359  13.888   5.676   5.844  0.8243 -0.3293 -0.1103
23456SOL    HW188360  13.852   5.606   5.898 -0.3830  0.0860 -0.3424
23456SOL    HW288361  13.854   5.659   5.756 -1.7500  1.9349  0.2817
23457SOL     OW88362   0.649  10.424   3.043 -0.5734  0.2167 -0.4546
23457SOL    HW188363   0.687  10.340   3.019 -0.8232 -0.3733  1.1121
23457SOL    HW288364   0.582  10.403   3.109 -1.6643  1.5037 -1.0920
23458SOL     OW88365  10.871   4.456   7.578  0.1670 -0.0631 -0.0249
23458SOL    HW188366  10.953   4.503   7.559 -0.0327 -0.2073 -1.3229
23458SOL    HW288367  10.844   4.489   7.663 -0.4187  2.8460 -1.2471
23459SOL     OW88368   8.364   1.285  11.824  0.0318  0.2997  0.3046
23459SOL    HW188369   8.445   1.244  11.856  1.4919  1.2305 -1.9565
23459SOL    HW288370   8.297   1.217  11.833  0.9298 -0.3825  2.5920
23460SOL     OW88371   3.320   6.099  12.372  0.0322 -0.4440 -0.0640
23460SOL    HW188372   3.297   6.149  12.450 -4.1099 -0.9590 -0.7052
23460SOL    HW288373   3.333   6.009  12.403  0.7824 -0.2231  0.2765
23461SOL     OW88374   2.310   7.031  11.156 -0.0121  0.2232 -0.1824
23461SOL    HW188375   2.361   7.105  11.190  2.3537 -2.1763  1.9505
23461SOL    HW288376   2.368   6.992  11.090  0.0983 -1.3817  0.8259
23462SOL     OW88377   7.657  12.962  12.121 -0.1963 -0.1382  0.2753
23462SOL    HW188378   7.637  12.916  12.203 -2.4457 -0.7731 -0.5622
23462SOL    HW288379   7.712  12.901  12.072  1.3516  0.3333  1.3368
23463SOL     OW88380   8.993   4.350   4.199 -0.5282  0.4968 -0.0530
23463SOL    HW188381   9.027   4.406   4.270  2.0379 -1.2088  0.1848
23463SOL    HW288382   8.966   4.412   4.131  2.2089  2.1246  0.1852
23464SOL     OW88383  12.475   5.118   4.113 -0.3628 -0.1798  0.1767
23464SOL    HW188384  12.484   5.127   4.208  1.5593  1.2100 -0.0685
23464SOL    HW288385  12.433   5.200   4.085 -1.2216 -0.7223 -0.1580
23465SOL     OW88386   9.140   6.831   8.073 -0.1398 -0.0333  0.7649
23465SOL    HW188387   9.083   6.787   8.010  2.3094 -0.1599 -1.5758
23465SOL    HW288388   9.138   6.775   8.151 -2.1943 -0.6449  0.3276
23466SOL     OW88389   1.091   0.298  10.323  0.3089  0.1287  0.4939
23466SOL    HW188390   1.074   0.301  10.228 -1.1015 -3.2502  0.4946
23466SOL    HW288391   1.185   0.282  10.330  0.3633  0.0384 -0.3488
23467SOL     OW88392  12.861   9.406  13.503 -0.5607 -0.0161 -0.1814
23467SOL    HW188393  12.902   9.492  13.512  2.2936 -0.9270 -2.7658
23467SOL    HW288394  12.782   9.422  13.452 -1.8753  1.3693  2.0871
23468SOL     OW88395  10.628  11.381   6.545 -0.0362  0.0790 -0.3211
23468SOL    HW188396  10.574  11.458   6.527 -1.4904 -0.9058 -0.3091
23468SOL    HW288397  10.657  11.351   6.459 -2.5973 -1.5168 -0.7251
23469SOL     OW88398   7.025   1.882  10.464 -0.1460 -0.0119  0.0837
23469SOL    HW188399   7.091   1.920  10.522 -0.1692  1.3993 -0.7898
23469SOL    HW288400   7.040   1.923  10.379 -1.3563 -0.6008 -0.4457
23470SOL     OW88401  11.034   6.558  12.884  0.5436  0.1001 -0.1068
23470SOL    HW188402  10.939   6.550  12.870  0.3911  1.5555 -0.0268
23470SOL    HW288403  11.048   6.522  12.971 -0.0499  0.5028  0.1644
23471SOL     OW88404   5.889   9.347   6.619  0.0877  0.2689 -0.1027
23471SOL    HW188405   5.806   9.337   6.572 -1.0937  1.8632  1.5546
23471SOL    HW288406   5.908   9.441   6.616  0.7769  0.1986  1.2853
23472SOL     OW88407   3.763   4.779   3.095 -0.2895  0.2021 -0.0689
23472SOL    HW188408   3.848   4.795   3.136  0.6546 -2.0974 -0.9306
23472SOL    HW288409   3.710   4.737   3.163  0.4208 -1.3224 -0.4110
23473SOL     OW88410  12.073   7.503   0.053 -0.4798 -0.7293  0.2028
23473SOL    HW188411  12.032   7.422   0.085 -1.1295 -0.0956  1.0230
23473SOL    HW288412  12.019   7.529  -0.021 -0.0059 -1.2703 -0.3436
23474SOL     OW88413   8.903   5.174   7.073 -0.0639  0.2326 -0.6668
23474SOL    HW188414   8.937   5.257   7.107  0.8327  0.3039 -1.6851
23474SOL    HW288415   8.977   5.113   7.081 -0.7604 -0.5270  0.2182
23475SOL     OW88416   3.599   2.858  12.920 -0.3763  0.3255 -0.5500
23475SOL    HW188417   3.510   2.860  12.884 -1.0416  0.7881  1.0504
23475SOL    HW288418   3.603   2.776  12.970  0.3650 -0.0626 -1.2229
23476SOL     OW88419   6.254   8.552   7.738  0.0365 -0.2476  0.5096
23476SOL    HW188420   6.322   8.487   7.721  1.6589  0.9707  1.9375
23476SOL    HW288421   6.250   8.605   7.657  1.0113 -0.1619  0.5093
23477SOL     OW88422   7.602  12.618  13.120  1.1277  0.1924  0.0034
23477SOL    HW188423   7.591  12.640  13.028  0.4158 -0.9689 -0.2068
23477SOL    HW288424   7.603  12.703  13.165 -0.0725  0.7138 -0.9042
23478SOL     OW88425  11.621   8.404   0.987 -0.4619 -0.2597  0.0990
23478SOL    HW188426  11.659   8.485   0.954  0.7350 -1.6487 -2.1776
23478SOL    HW288427  11.696   8.349   1.008 -1.2114 -1.5301 -0.4156
23479SOL     OW88428   2.363   9.709  11.985  0.3207 -0.4134  0.2123
23479SOL    HW188429   2.321   9.709  11.899 -0.0299  1.2840  0.3584
23479SOL    HW288430   2.422   9.633  11.982  0.2817 -0.4270 -1.4957
23480SOL     OW88431   8.274   6.690  10.862 -0.4791 -0.2767  0.2964
23480SOL    HW188432   8.354   6.660  10.820 -0.4058  2.2041 -1.6062
23480SOL    HW288433   8.265   6.781  10.833 -3.2509 -0.0476  1.5704
23481SOL     OW88434  10.134   9.118  11.468 -0.3237 -0.1072  0.2413
23481SOL    HW188435  10.162   9.180  11.536  0.2121 -0.3372  0.2429
23481SOL    HW288436  10.194   9.134  11.395 -2.1898  1.5642 -1.0077
23482SOL     OW88437   0.329   9.809   4.747 -0.1358  0.0169 -0.4326
23482SOL    HW188438   0.329   9.881   4.684  0.8118  0.2381 -0.1986
23482SOL    HW288439   0.422   9.795   4.767 -0.3818 -0.5144  0.3784
23483SOL     OW88440  10.061   3.389   9.615  0.4124  0.0965  0.6732
23483SOL    HW188441  10.094   3.462   9.562  0.4519 -0.2553  0.2033
23483SOL    HW288442   9.992   3.350   9.560 -1.0098  1.0106  1.7537
23484SOL     OW88443   1.712   3.010   2.802  0.5897  0.3848  0.0119
23484SOL    HW188444   1.697   3.080   2.738  2.0993  1.5489  0.8476
23484SOL    HW288445   1.801   2.981   2.784  0.5204 -0.2491  0.6728
23485SOL     OW88446   1.106   2.012   1.715 -0.4649  0.0708 -0.3009
23485SOL    HW188447   1.106   2.080   1.783 -0.1011  0.7964 -1.0076
23485SOL    HW288448   1.112   1.930   1.763 -1.1148  0.5214  0.5868
23486SOL     OW88449  13.915   0.236  12.791  0.2248  0.3710 -0.0410
23486SOL    HW188450  13.959   0.317  12.818 -1.4182  0.8039  1.5474
23486SOL    HW288451  13.902   0.187  12.872  0.4364 -1.1233 -0.8701
23487SOL     OW88452  12.617   5.611   5.913  0.0276  0.6259 -0.3976
23487SOL    HW188453  12.563   5.652   5.845 -1.6993 -0.6646  0.1027
23487SOL    HW288454  12.604   5.666   5.990 -0.0398  0.6850 -0.4504
23488SOL     OW88455   1.420  13.182  13.915 -0.1703 -0.1708  0.3472
23488SOL    HW188456   1.480  13.184  13.841 -0.8647  0.7133 -0.2149
23488SOL    HW288457   1.435  13.097  13.957  0.0580 -0.7877 -0.9598
23489SOL     OW88458   7.613   0.151  11.089  0.3214  0.3812  0.1357
23489SOL    HW188459   7.564   0.216  11.039 -0.4794 -1.7194 -2.0270
23489SOL    HW288460   7.546   0.104  11.139  0.5369 -0.3051 -0.2005
23490SOL     OW88461   0.305   9.455   1.857 -0.1483  0.6514 -0.3640
23490SOL    HW188462   0.273   9.365   1.854 -1.1691  0.9766  0.4054
23490SOL    HW288463   0.282   9.486   1.944 -1.0813  2.1231 -1.0954
23491SOL     OW88464  10.415   2.041   7.611 -0.2745  0.2284 -0.1679
23491SOL    HW188465  10.343   2.087   7.654 -0.7535 -0.7605  0.1161
23491SOL    HW288466  10.493   2.092   7.632 -0.8365  1.1093 -0.1743
23492SOL     OW88467   4.832   5.546   8.880  0.0394 -0.2335  0.1122
23492SOL    HW188468   4.886   5.610   8.927  0.0638 -0.6546  0.6721
23492SOL    HW288469   4.823   5.582   8.792 -0.4126  0.8312  0.5700
23493SOL     OW88470   9.066  11.158   0.356  0.4170 -0.1310  0.0712
23493SOL    HW188471   9.134  11.092   0.364 -0.1171 -0.6430  0.4285
23493SOL    HW288472   9.114  11.241   0.353  1.0407 -0.4699  0.5081
23494SOL     OW88473   7.880   4.084  11.629  0.0747 -0.2032 -0.0613
23494SOL    HW188474   7.909   3.993  11.640 -0.1797 -0.1662  1.0696
23494SOL    HW288475   7.954   4.128  11.588 -0.2190 -1.1545 -1.7318
23495SOL     OW88476   8.317  10.402   0.786  0.0385 -0.6326 -0.3418
23495SOL    HW188477   8.410  10.420   0.775 -0.0811 -0.0192 -0.4419
23495SOL    HW288478   8.276  10.489   0.784 -0.4780 -0.8535  0.2513
23496SOL     OW88479  10.481  11.477   5.700 -0.5036 -0.2549 -0.1776
23496SOL    HW188480  10.412  11.447   5.639 -0.3954 -0.8018 -0.0397
23496SOL    HW288481  10.492  11.404   5.761  0.4346 -0.3052 -0.3962
23497SOL     OW88482  10.285  12.872  12.545 -0.2132  0.2332 -0.6074
23497SOL    HW188483  10.321  12.959  12.557 -0.8201  0.5738 -1.1534
23497SOL    HW288484  10.352  12.813  12.578 -0.1527  0.9360  0.5664
23498SOL     OW88485   4.224   7.365   0.369  0.3512 -0.5600  0.7054
23498SOL    HW188486   4.274   7.343   0.291 -0.8540  0.0191 -0.2598
23498SOL    HW288487   4.242   7.293   0.430  0.4767 -1.5841 -0.4975
23499SOL     OW88488  14.112   7.077   7.332 -0.6082 -0.0350 -0.1822
23499SOL    HW188489  14.047   7.031   7.279 -2.7074  2.1161  0.3368
23499SOL    HW288490  14.088   7.057   7.423  1.3953 -1.6424  0.0643
23500SOL     OW88491  10.375  13.509  11.550 -0.1004 -0.2349 -0.9703
23500SOL    HW188492  10.397  13.582  11.608 -0.2281  0.0029 -1.2208
23500SOL    HW288493  10.403  13.539  11.463 -1.3296  0.0486 -1.2912
23501SOL     OW88494  10.947  10.429   3.617 -0.0039 -0.3315 -0.4074
23501SOL    HW188495  10.893  10.474   3.682  1.5544  1.0238  0.0092
23501SOL    HW288496  11.010  10.379   3.668  1.6474  1.2435 -0.7869
23502SOL     OW88497   8.493   2.018  13.929  0.4850 -0.2900 -0.2537
23502SOL    HW188498   8.508   2.103  13.889 -0.4874  0.7788  1.5127
23502SOL    HW288499   8.551   2.017  14.006 -0.9195 -0.3797  0.8393
23503SOL     OW88500   0.364  11.209   7.578  0.0538  0.3916 -0.4375
23503SOL    HW188501   0.453  11.242   7.583  0.0774  0.1384  1.3409
23503SOL    HW288502   0.339  11.192   7.668 -0.5795 -2.7907 -1.1017
23504SOL     OW88503  10.587   9.509   9.045 -0.2190 -0.3318 -0.0061
23504SOL    HW188504  10.555   9.451   9.114 -1.6610  1.1911  0.6609
23504SOL    HW288505  10.583   9.456   8.966  0.0855 -1.6521  0.8207
23505SOL     OW88506   9.233   3.584   7.436 -0.0387  0.2244 -0.3317
23505SOL    HW188507   9.287   3.512   7.470 -0.4331  0.7818  1.5696
23505SOL    HW288508   9.182   3.544   7.365  0.4540 -1.1353  0.0489
23506SOL     OW88509   0.436   1.663  13.510  0.2346  0.2127 -0.5674
23506SOL    HW188510   0.374   1.711  13.565  2.3431 -0.0323  2.1876
23506SOL    HW288511   0.464   1.726  13.444 -0.3590  1.3701  0.2658
23507SOL     OW88512  13.155  13.221   0.449  0.2574 -0.1189  0.4687
23507SOL    HW188513  13.185  13.180   0.530  1.1841  0.9898  0.7220
23507SOL    HW288514  13.075  13.268   0.475  0.2970 -0.1361  0.6286
23508SOL     OW88515  13.252  10.044  10.590 -0.5718  0.7430  0.3804
23508SOL    HW188516  13.173  10.097  10.596  0.2647  1.8804  1.9947
23508SOL    HW288517  13.320  10.096  10.632  0.3028 -1.6097  2.0969
23509SOL     OW88518   1.427   1.094  13.177 -0.3280 -0.2159 -0.4338
23509SOL    HW188519   1.430   1.014  13.229 -0.2211 -0.0681 -0.2135
23509SOL    HW288520   1.513   1.100  13.137 -0.0899  0.1713  0.1253
23510SOL     OW88521   6.146  10.406   7.126 -0.2479  0.1367 -0.0382
23510SOL    HW188522   6.136  10.385   7.034  0.5080 -0.4502 -0.0036
23510SOL    HW288523   6.175  10.497   7.128 -0.0039  0.0692 -0.4023
23511SOL     OW88524   4.001  11.172   4.288  0.0521  0.0782  0.8648
23511SOL    HW188525   3.913  11.141   4.270 -0.2864  1.7796 -0.7450
23511SOL    HW288526   4.010  11.167   4.383 -2.0075  0.4464  1.1150
23512SOL     OW88527  10.122  10.628   5.215  0.5913  0.0856  0.3958
23512SOL    HW188528  10.186  10.588   5.273 -0.7808  0.0762  1.9952
23512SOL    HW288529  10.134  10.722   5.227  0.4336  0.0857  0.5597
23513SOL     OW88530   4.611   9.540   7.564 -0.1434  0.5705  0.4802
23513SOL    HW188531   4.644   9.521   7.652  0.9837  0.8311  0.1324
23513SOL    HW288532   4.680   9.508   7.505 -0.0141  2.0582 -0.2388
23514SOL     OW88533   7.288   0.408   7.532 -0.1509 -0.1924 -0.3009
23514SOL    HW188534   7.223   0.341   7.512 -2.1669  1.8722 -1.1006
23514SOL    HW288535   7.265   0.482   7.475  2.7156  0.7928 -0.3796
23515SOL     OW88536   7.095  10.864  10.539  0.0936 -0.1765 -0.5234
23515SOL    HW188537   7.048  10.811  10.603  1.6301 -0.4861  0.4117
23515SOL    HW288538   7.060  10.837  10.454  0.7468 -2.6598 -0.0710
23516SOL     OW88539   9.356   7.413   2.685  0.0172 -0.1578 -0.1027
23516SOL    HW188540   9.339   7.498   2.644 -0.7329 -0.6976 -0.9480
23516SOL    HW288541   9.307   7.351   2.631  0.6074 -1.1342  0.4733
23517SOL     OW88542  10.235   1.409   2.770 -0.4323  0.7745 -0.0330
23517SOL    HW188543  10.322   1.437   2.800  0.0658 -0.8753  0.1830
23517SOL    HW288544  10.252   1.365   2.687 -1.0515  0.3536  0.0580
23518SOL     OW88545   6.043  12.050   9.557  0.5315 -0.4594  0.7118
23518SOL    HW188546   6.095  12.030   9.480  0.7603  3.5882 -0.4241
23518SOL    HW288547   6.102  12.038   9.631  1.6109 -0.4793 -0.1399
23519SOL     OW88548   8.865  11.864   5.199 -0.1600  0.5300 -0.2456
23519SOL    HW188549   8.802  11.795   5.218 -1.1291  1.8554  1.6855
23519SOL    HW288550   8.945  11.837   5.244 -0.2330  0.2023 -0.3128
23520SOL     OW88551   0.721   7.160   0.074 -0.7925  0.2840  0.1410
23520SOL    HW188552   0.675   7.221   0.016 -0.4699  1.5255  1.1423
23520SOL    HW288553   0.761   7.096   0.014 -0.2105  1.6895 -1.0480
23521SOL     OW88554   6.115  13.897   2.786 -0.1785 -0.1718 -0.2440
23521SOL    HW188555   6.159  13.961   2.842 -1.7902 -0.7259  1.7895
23521SOL    HW288556   6.139  13.812   2.824  1.4204 -0.8320 -2.5176
23522SOL     OW88557  10.139   5.563   7.782 -0.6185  0.0709  0.5652
23522SOL    HW188558  10.214   5.606   7.740 -0.6696 -0.1020  0.2916
23522SOL    HW288559  10.063   5.610   7.747 -0.5880  1.4135  2.1705
23523SOL     OW88560  12.226  12.887  10.319  0.7703  0.2984  0.3671
23523SOL    HW188561  12.313  12.905  10.283  1.4848 -0.2071  1.7514
23523SOL    HW288562  12.238  12.809  10.373 -0.7893 -0.4121 -0.2372
23524SOL     OW88563  10.100   6.982  12.914 -0.0852 -0.3827 -0.2441
23524SOL    HW188564  10.034   6.994  12.982 -2.4164  0.0433 -2.4297
23524SOL    HW288565  10.075   6.901  12.870 -1.4557  1.4845 -3.3101
23525SOL     OW88566   1.811   0.198   9.660  0.2372 -0.2250 -0.0167
23525SOL    HW188567   1.859   0.116   9.650  0.8877  0.1616 -0.1338
23525SOL    HW288568   1.751   0.199   9.586  0.9859 -0.0972 -0.6413
23526SOL     OW88569   0.515   1.468  13.803  0.1725  0.0775 -0.1392
23526SOL    HW188570   0.490   1.445  13.892 -0.4414  0.8144 -0.1138
23526SOL    HW288571   0.432   1.481  13.757  0.3753  3.6345  0.2058
23527SOL     OW88572   7.571  13.404   5.305  0.3753  0.0703  0.0042
23527SOL    HW188573   7.629  13.442   5.372 -1.3046 -0.2777  1.7349
23527SOL    HW288574   7.483  13.432   5.330 -0.2990  0.3047 -2.3698
23528SOL     OW88575   0.182  13.862   3.178 -0.4731  0.3470 -0.0208
23528SOL    HW188576   0.255  13.806   3.205  0.1797 -0.1027 -2.4735
23528SOL    HW288577   0.215  13.951   3.189 -0.1674  0.1883  0.3993
23529SOL     OW88578   2.327  13.665   6.834 -0.3903  0.0605  0.3216
23529SOL    HW188579   2.247  13.613   6.834  0.0664 -0.6894  2.0012
23529SOL    HW288580   2.296  13.756   6.842 -1.1299 -0.0021 -1.3513
23530SOL     OW88581  13.107   3.550   2.608 -0.1065  0.1813 -0.1113
23530SOL    HW188582  13.143   3.554   2.519  2.2214  0.8350  0.7914
23530SOL    HW288583  13.040   3.618   2.610  0.0248  0.3632 -1.2638
23531SOL     OW88584   0.813  11.486   3.077  0.3917  0.3314  0.2259
23531SOL    HW188585   0.744  11.427   3.109 -0.0448 -0.2090 -1.6311
23531SOL    HW288586   0.767  11.565   3.051  0.7026  0.6269  0.5610
23532SOL     OW88587  11.598   4.121   0.875 -0.0230 -0.1068  0.5615
23532SOL    HW188588  11.640   4.091   0.956 -1.4227 -1.6381  0.7843
23532SOL    HW288589  11.627   4.060   0.808  0.4216  0.6166  0.0819
23533SOL     OW88590   7.271   9.985   8.683 -0.3751 -0.1260 -0.6457
23533SOL    HW188591   7.325  10.053   8.643 -1.1537  0.7164 -0.2984
23533SOL    HW288592   7.181  10.012   8.665 -0.7654  0.2894  1.6311
23534SOL     OW88593  10.136   9.191   4.003  0.2758 -0.3034  0.9107
23534SOL    HW188594  10.165   9.116   3.951 -0.1238  0.5902 -0.6891
23534SOL    HW288595  10.175   9.266   3.960 -1.9413  0.6788  0.4626
23535SOL     OW88596   6.100   3.536   4.704 -0.1107 -0.6303 -0.1853
23535SOL    HW188597   6.047   3.521   4.626 -0.0827 -0.1407 -0.3052
23535SOL    HW288598   6.127   3.628   4.697  0.8696 -0.9096 -0.1975
23536SOL     OW88599   3.466  13.876  13.947  0.0669 -0.0593  1.2845
23536SOL    HW188600   3.559  13.890  13.964  0.0814  1.6837  0.0270
23536SOL    HW288601   3.424  13.894  14.031  0.7698  0.4051  1.5513
23537SOL     OW88602  11.135   4.923   2.292 -0.2367 -0.4574 -0.5110
23537SOL    HW188603  11.056   4.915   2.239 -0.3557 -1.8168 -0.1631
23537SOL    HW288604  11.102   4.937   2.381 -0.0587  0.1457 -0.5349
23538SOL     OW88605  11.376   3.491   2.657  0.2107  0.2676 -0.3093
23538SOL    HW188606  11.324   3.461   2.583 -1.3881  0.8863  0.5228
23538SOL    HW288607  11.421   3.412   2.688 -2.6728 -1.0973  0.8520
23539SOL     OW88608   9.877   0.201  14.027 -0.3177 -0.2114 -0.3285
23539SOL    HW188609   9.830   0.278  13.996 -2.0046 -0.5204  1.2565
23539SOL    HW288610   9.949   0.190  13.966  0.1603  2.7835 -0.4226
23540SOL     OW88611  14.142   2.070   6.334 -0.1740  0.1767  0.1284
23540SOL    HW188612  14.154   2.075   6.240 -0.4463  2.3056  0.1528
23540SOL    HW288613  14.231   2.075   6.370 -0.1807  2.0888 -0.0038
23541SOL     OW88614  10.549   0.651   4.270 -0.0520 -0.7178 -0.5309
23541SOL    HW188615  10.556   0.557   4.286  1.6514 -0.3366  1.6285
23541SOL    HW288616  10.474   0.679   4.323  0.6204 -0.6400  0.4244
23542SOL     OW88617   8.648   6.468  12.135 -0.5507 -0.4897 -0.0347
23542SOL    HW188618   8.735   6.447  12.170 -0.4953 -0.7783 -0.3372
23542SOL    HW288619   8.663   6.546  12.082 -0.5452 -0.3282  0.2030
23543SOL     OW88620   4.352   2.484   4.529  0.2879  0.2742 -0.2810
23543SOL    HW188621   4.264   2.449   4.545  0.3973 -0.0729 -0.4509
23543SOL    HW288622   4.401   2.412   4.490  0.4026  0.7239 -0.9906
23544SOL     OW88623  11.267  10.806  12.344 -0.4781  0.0349 -0.1923
23544SOL    HW188624  11.248  10.714  12.364  0.4383 -0.2735 -0.6561
23544SOL    HW288625  11.302  10.805  12.255  2.7569  0.3303  0.9158
23545SOL     OW88626   1.764   0.339  12.050  0.1024 -0.5597  0.4667
23545SOL    HW188627   1.750   0.403  12.120  0.1117  1.2920 -1.1500
23545SOL    HW288628   1.677   0.329  12.010  0.4258 -0.3329 -0.2958
23546SOL     OW88629   7.348   2.402   9.597 -0.0097  0.3100  0.1626
23546SOL    HW188630   7.367   2.362   9.682  0.0994  0.2460  0.1089
23546SOL    HW288631   7.434   2.412   9.556 -0.1573 -1.1057 -0.5831
23547SOL     OW88632   7.170   6.079  11.610  0.0400  0.4223  0.3315
23547SOL    HW188633   7.198   6.163  11.574  0.9187  0.1706  0.4208
23547SOL    HW288634   7.202   6.014  11.547 -0.7896  0.1606  0.1700
23548SOL     OW88635  11.408  13.026  11.148  0.0932  0.1047 -0.0095
23548SOL    HW188636  11.349  13.100  11.132  0.0683 -0.1033 -0.9318
23548SOL    HW288637  11.485  13.045  11.095  0.9061  0.4168  1.2625
23549SOL     OW88638   3.377   4.196  12.129 -0.1522  0.3273 -0.0199
23549SOL    HW188639   3.350   4.239  12.210  0.3001  0.4630  0.0593
23549SOL    HW288640   3.327   4.114  12.127 -0.2176  0.3586  0.3568
23550SOL     OW88641   7.408   6.484  13.738 -0.5524 -0.2808  0.7107
23550SOL    HW188642   7.456   6.553  13.783 -1.3637  1.1500 -0.5214
23550SOL    HW288643   7.394   6.417  13.805  1.3428  0.1571  1.6184
23551SOL     OW88644   1.506   6.116   5.401  0.2003 -0.3666 -0.0670
23551SOL    HW188645   1.490   6.035   5.450  1.2278 -1.0784 -0.8644
23551SOL    HW288646   1.422   6.139   5.363 -0.2847 -0.5946  0.8350
23552SOL     OW88647   7.446   3.173   8.736  0.0542 -0.3411 -0.3811
23552SOL    HW188648   7.458   3.089   8.692 -0.9078 -0.1845 -0.9639
23552SOL    HW288649   7.353   3.192   8.727  0.1740  0.5580  0.1690
23553SOL     OW88650   1.373   6.091   9.360  0.1198  0.0235 -0.1075
23553SOL    HW188651   1.330   6.005   9.354 -2.3681  0.9607  2.3201
23553SOL    HW288652   1.325   6.146   9.298  0.8599  0.0296 -0.6966
23554SOL     OW88653   0.561   1.133   5.856 -0.9596  0.4549 -0.3243
23554SOL    HW188654   0.595   1.207   5.807  0.4695  0.4190  0.5330
23554SOL    HW288655   0.574   1.157   5.948  0.2336 -1.1328 -0.0318
23555SOL     OW88656   7.606   5.718  12.860  0.4982  0.3758 -0.1657
23555SOL    HW188657   7.592   5.643  12.802  0.7828  0.5433 -0.4564
23555SOL    HW288658   7.565   5.791  12.815  0.4531  0.4459 -0.0090
23556SOL     OW88659  10.441  13.697  11.733  0.5143 -0.0152 -0.0604
23556SOL    HW188660  10.528  13.710  11.770 -0.0939  0.3678  1.3023
23556SOL    HW288661  10.383  13.691  11.809 -0.8858  1.5229 -0.9423
23557SOL     OW88662  10.966   2.336   7.231  0.5565 -0.0264 -0.3669
23557SOL    HW188663  11.013   2.312   7.151  1.0002 -0.5939  0.0619
23557SOL    HW288664  10.988   2.428   7.245  0.1995  0.1764 -1.0854
23558SOL     OW88665   2.648   2.801   6.959 -0.7898  0.4689  0.4992
23558SOL    HW188666   2.736   2.838   6.955 -0.6392  0.4886  2.7873
23558SOL    HW288667   2.654   2.731   7.023 -2.2103 -0.2884 -0.1464
23559SOL     OW88668  14.036   6.966  13.462 -0.3657 -0.2929  0.1212
23559SOL    HW188669  14.091   6.914  13.404 -0.4960  0.7922 -1.0101
23559SOL    HW288670  14.010   7.042  13.410 -1.5728  0.0571  1.1733
23560SOL     OW88671   8.836  12.031   5.861 -0.1931 -0.2255 -0.1225
23560SOL    HW188672   8.745  12.061   5.861  0.0511  0.6944  1.8733
23560SOL    HW288673   8.867  12.047   5.772 -1.7636  0.1260 -0.6330
23561SOL     OW88674   9.720  10.878   6.124 -0.2394 -0.4475  0.0001
23561SOL    HW188675   9.768  10.956   6.151 -1.4192  0.5295 -0.6279
23561SOL    HW288676   9.629  10.907   6.118 -0.3858 -1.1710 -2.7011
23562SOL     OW88677  12.000   2.466   1.211 -0.2578 -0.3829  0.1834
23562SOL    HW188678  12.037   2.381   1.189  0.6176  0.3730 -1.3959
23562SOL    HW288679  12.026   2.479   1.303  0.0223 -1.5850  0.3005
23563SOL     OW88680   6.781   4.309  12.983 -0.6999 -0.0600 -0.0850
23563SOL    HW188681   6.850   4.336  12.924  1.1835 -1.4577  1.3536
23563SOL    HW288682   6.750   4.225  12.948 -0.1437 -0.4946  0.4547
23564SOL     OW88683  12.173   4.528   5.094 -0.1590 -0.4924 -0.2613
23564SOL    HW188684  12.139   4.593   5.032  1.6059 -1.0527 -1.9266
23564SOL    HW288685  12.229   4.578   5.153  0.7273 -0.3781 -1.1719
23565SOL     OW88686  10.128   0.269  13.739 -0.2558  0.0993 -0.2630
23565SOL    HW188687  10.134   0.338  13.806 -1.2888  1.2282 -1.2839
23565SOL    HW288688  10.202   0.286  13.681  0.6209 -0.8613  0.5299
23566SOL     OW88689   3.223   1.375   2.698  0.2055 -0.0718  0.0637
23566SOL    HW188690   3.223   1.359   2.793 -0.4673 -0.8349 -0.0511
23566SOL    HW288691   3.136   1.347   2.670  0.2582  0.5449 -0.7197
23567SOL     OW88692  11.031   0.101   6.715  0.2482 -0.5154 -0.5513
23567SOL    HW188693  10.951   0.049   6.707 -0.0366 -0.1519 -0.1226
23567SOL    HW288694  11.082   0.055   6.782  0.5527 -0.9381 -1.0699
23568SOL     OW88695  13.912   9.017   5.451  0.1203 -0.2947  0.8380
23568SOL    HW188696  13.944   8.953   5.388  1.3677  1.0754 -0.0014
23568SOL    HW288697  13.824   9.038   5.420  1.0908  1.1352 -1.1783
23569SOL     OW88698   5.308   4.768   2.514 -0.5930  0.1064  0.2823
23569SOL    HW188699   5.371   4.734   2.450 -1.3515 -0.6104 -0.1160
23569SOL    HW288700   5.354   4.764   2.598 -0.3171 -1.0405  0.0990
23570SOL     OW88701   9.210  11.759   9.531 -0.3408 -0.2458 -0.0424
23570SOL    HW188702   9.264  11.776   9.454  0.6404 -1.4809  0.3468
23570SOL    HW288703   9.242  11.675   9.565 -1.2488 -0.0825  1.2828
23571SOL     OW88704  11.898  13.246  13.223  0.4709  0.3390 -0.1490
23571SOL    HW188705  11.955  13.217  13.294  0.4056  1.8528  0.5520
23571SOL    HW288706  11.926  13.194  13.148  1.9139  0.1210  0.4946
23572SOL     OW88707   1.043   2.366   9.850 -0.1450 -0.4075  0.2593
23572SOL    HW188708   0.996   2.329   9.775 -1.1920  1.1643  0.1124
23572SOL    HW288709   0.982   2.427   9.890  0.3900 -1.2135  2.4410
23573SOL     OW88710  12.797  12.980   1.358 -0.1554  0.6171  0.1318
23573SOL    HW188711  12.757  12.893   1.348  0.6642  0.4048 -1.5244
23573SOL    HW288712  12.739  13.039   1.310  1.3639  0.3199 -2.2198
23574SOL     OW88713   3.478   7.171   9.131  0.7239  0.1731 -0.0141
23574SOL    HW188714   3.488   7.177   9.036 -0.1736  3.2801 -0.0058
23574SOL    HW288715   3.549   7.225   9.166 -1.0648  2.0837  0.8718
23575SOL     OW88716   5.595  13.566   8.186 -0.3019 -0.3168  0.1049
23575SOL    HW188717   5.585  13.493   8.246  0.3299  1.0748  2.0267
23575SOL    HW288718   5.507  13.602   8.177 -0.2568  0.0502  1.0228
23576SOL     OW88719  11.244  13.867   1.480  0.2410 -0.2377 -0.4005
23576SOL    HW188720  11.184  13.900   1.414  1.0378  0.5273 -0.7589
23576SOL    HW288721  11.315  13.828   1.431  0.1711 -0.9045  0.0191
23577SOL     OW88722   5.373   5.146  10.902  0.4499 -0.0711  0.3121
23577SOL    HW188723   5.280   5.123  10.902  0.9212 -2.2036 -0.3511
23577SOL    HW288724   5.404   5.119  10.989  0.8643 -1.4442 -0.2302
23578SOL     OW88725   6.226   8.388  11.711 -0.2183 -0.2709  0.2688
23578SOL    HW188726   6.273   8.405  11.792  0.5619 -0.6992 -0.0881
23578SOL    HW288727   6.155   8.453  11.711  1.4166  1.6173 -0.0325
23579SOL     OW88728  12.745  13.629   4.954 -1.0417 -0.5666 -0.4569
23579SOL    HW188729  12.728  13.581   4.873  0.1810 -1.5629 -0.1541
23579SOL    HW288730  12.733  13.565   5.023 -1.3626  0.0973  0.1235
23580SOL     OW88731   3.036   6.544  11.061 -0.3903 -0.1262  0.5875
23580SOL    HW188732   3.048   6.461  11.016 -0.3664 -0.1627  0.6602
23580SOL    HW288733   3.117   6.557  11.109 -0.0458  0.3811 -0.1296
23581SOL     OW88734   0.482   4.567   0.545  0.1389  0.0666 -0.0774
23581SOL    HW188735   0.472   4.660   0.565  1.1687 -0.3173  2.6288
23581SOL    HW288736   0.539   4.566   0.468 -0.7643  1.6406 -0.8394
23582SOL     OW88737   1.909   5.963   0.970  0.3902 -0.0818 -0.0093
23582SOL    HW188738   1.864   5.999   1.047  1.1038  0.9689 -0.0734
23582SOL    HW288739   1.887   5.870   0.972 -0.7763  0.1798  0.6558
23583SOL     OW88740   8.742   5.723  10.550 -0.0712 -0.5486 -0.6779
23583SOL    HW188741   8.652   5.748  10.531 -0.3052 -0.2744  0.6727
23583SOL    HW288742   8.747   5.631  10.524 -0.0598  0.0325 -2.8993
23584SOL     OW88743   3.751   8.802   2.637 -0.4738 -0.3647 -0.2577
23584SOL    HW188744   3.759   8.707   2.632  0.0445 -0.2905 -0.9916
23584SOL    HW288745   3.749   8.831   2.546 -0.8671  0.3097 -0.0394
23585SOL     OW88746  12.904   3.454   0.908 -0.2037 -0.1100 -0.2004
23585SOL    HW188747  12.880   3.465   0.816  0.3041 -1.7333 -0.5615
23585SOL    HW288748  12.831   3.405   0.946 -0.9727  1.5669  0.5865
23586SOL     OW88749   7.366  10.295  12.582  0.0627  0.0427  0.0853
23586SOL    HW188750   7.394  10.206  12.606 -0.0607 -0.0481 -0.1059
23586SOL    HW288751   7.447  10.340  12.558  0.0225 -0.2755 -0.6563
23587SOL     OW88752   6.894  10.411   2.780  0.5679 -0.4998 -0.3489
23587SOL    HW188753   6.926  10.334   2.734 -0.8301 -1.2005 -0.1855
23587SOL    HW288754   6.808  10.430   2.742  1.0392  1.2361 -0.6615
23588SOL     OW88755  10.656   4.893   5.665  0.6142  0.8183 -0.8128
23588SOL    HW188756  10.710   4.971   5.677  0.2037  1.1918 -1.3204
23588SOL    HW288757  10.715   4.829   5.625  1.1962  0.5509  0.4353
23589SOL     OW88758   5.867   7.802   5.925  0.0856 -0.0204  0.4466
23589SOL    HW188759   5.784   7.801   5.878  0.6796 -0.9219 -0.6384
23589SOL    HW288760   5.870   7.718   5.970  0.0999  0.3104  1.0834
23590SOL     OW88761  13.931   6.459   1.866 -0.2899 -0.3132  0.2239
23590SOL    HW188762  13.884   6.523   1.920 -0.3194  0.1715 -0.3584
23590SOL    HW288763  13.894   6.470   1.778 -0.0752 -0.9157  0.0531
23591SOL     OW88764  12.610  11.211   6.584 -0.2145  0.0922  0.5381
23591SOL    HW188765  12.592  11.148   6.654 -0.6903 -0.8530 -0.3979
23591SOL    HW288766  12.649  11.286   6.628  0.1676 -0.7708  1.7194
23592SOL     OW88767   6.832  12.590  12.196  0.1009 -0.2266 -0.0283
23592SOL    HW188768   6.804  12.583  12.105 -0.3340 -1.2500  0.1721
23592SOL    HW288769   6.750  12.595  12.246  0.3088 -0.7808  0.3819
23593SOL     OW88770   2.640   5.417   3.290  0.3503  0.1961  0.0285
23593SOL    HW188771   2.693   5.348   3.329 -0.4085 -0.5306 -0.2055
23593SOL    HW288772   2.609   5.381   3.207 -0.7142  0.4890  0.2749
23594SOL     OW88773   7.436   7.142   9.950  0.4046  0.5045  0.0715
23594SOL    HW188774   7.456   7.230   9.917  1.8273 -0.0006 -0.5039
23594SOL    HW288775   7.490   7.133  10.028  0.4353  0.0687  0.0048
23595SOL     OW88776   8.279   4.023  10.329  0.7066 -0.1732  0.2437
23595SOL    HW188777   8.330   3.944  10.314  0.2705 -0.1549 -1.5363
23595SOL    HW288778   8.341   4.095  10.318  0.1218 -0.0769 -3.4147
23596SOL     OW88779   1.551   6.830  13.658 -0.6077 -0.1330  0.0166
23596SOL    HW188780   1.622   6.873  13.610 -1.5772  1.5539 -0.0165
23596SOL    HW288781   1.501   6.783  13.592 -1.7466  1.9076 -0.6841
23597SOL     OW88782  12.054   4.489   0.791  0.2658  0.1662 -0.2504
23597SOL    HW188783  12.035   4.517   0.702 -0.4143 -0.0702 -0.1844
23597SOL    HW288784  12.148   4.470   0.791  0.6202  1.7786 -0.4692
23598SOL     OW88785   5.799   3.034   7.892  0.3501 -0.4006  0.3944
23598SOL    HW188786   5.812   2.947   7.853 -0.2723 -0.7169  0.8691
23598SOL    HW288787   5.710   3.031   7.927 -0.0496  0.7917 -0.4758
23599SOL     OW88788   4.597   3.047  13.737  0.5668  0.2839 -0.4676
23599SOL    HW188789   4.626   3.050  13.646  1.8520  1.6868 -0.0497
23599SOL    HW288790   4.655   2.984  13.779 -0.6064 -1.0526 -0.7686
23600SOL     OW88791   9.666   5.428   0.460  0.2164  0.0201 -0.0205
23600SOL    HW188792   9.681   5.518   0.490 -0.3690 -0.1208  0.7272
23600SOL    HW288793   9.752   5.387   0.465  0.1726  0.0507  1.3606
23601SOL     OW88794  10.819   2.430   5.889 -0.2736  0.1401 -0.2975
23601SOL    HW188795  10.914   2.420   5.900  0.2581  2.3746 -2.1437
23601SOL    HW288796  10.785   2.428   5.979  1.2380 -2.3652  0.3421
23602SOL     OW88797  11.568   3.399   5.798  0.5537 -0.7402  0.0111
23602SOL    HW188798  11.592   3.307   5.814 -0.0942 -0.8305  0.5602
23602SOL    HW288799  11.562   3.437   5.886 -0.6576 -0.5766 -0.1155
23603SOL     OW88800   7.895   2.477   3.203 -0.7186 -0.3567  0.4596
23603SOL    HW188801   7.863   2.392   3.234 -1.6006 -0.1424  0.1463
23603SOL    HW288802   7.913   2.463   3.110  0.1660 -0.4867  0.6387
23604SOL     OW88803   2.586  11.153  13.109  0.2302 -0.1194  0.2335
23604SOL    HW188804   2.651  11.223  13.100 -0.7023  0.9825  1.5834
23604SOL    HW288805   2.521  11.188  13.171 -1.3089 -1.4288 -0.5532
23605SOL     OW88806   4.600   4.743   2.680 -0.1909 -0.1979  0.5317
23605SOL    HW188807   4.682   4.745   2.729 -0.0662 -2.2967  0.5298
23605SOL    HW288808   4.534   4.713   2.743 -0.7590  0.4997  0.2822
23606SOL     OW88809   1.088   1.782  10.069 -0.7069 -0.2478 -0.1465
23606SOL    HW188810   1.174   1.795  10.029  0.6189 -1.4643  2.1176
23606SOL    HW288811   1.085   1.846  10.140 -0.9622 -1.2900  0.8104
23607SOL     OW88812   6.937   3.277   3.438  0.7974 -0.3986 -0.0087
23607SOL    HW188813   7.005   3.246   3.497  0.5466 -2.4579 -0.7385
23607SOL    HW288814   6.859   3.283   3.493  0.7117 -1.7063  0.0456
23608SOL     OW88815   8.394   4.477   3.433 -0.0070  0.2051  0.0534
23608SOL    HW188816   8.439   4.405   3.479  0.2809 -0.5199 -1.3211
23608SOL    HW288817   8.465   4.528   3.393 -0.2708  0.6809  0.1842
23609SOL     OW88818   6.561   1.918   4.544 -0.3350  0.1796  0.1005
23609SOL    HW188819   6.531   1.993   4.494 -0.7296 -0.6973 -1.0222
23609SOL    HW288820   6.500   1.912   4.618 -0.4280  0.8256  0.0803
23610SOL     OW88821   0.420   8.414   7.634 -0.2435  0.2909  0.3835
23610SOL    HW188822   0.377   8.393   7.551  2.9821  0.6704 -1.5582
23610SOL    HW288823   0.455   8.331   7.664 -0.9332  0.2567  1.1355
23611SOL     OW88824   0.533   5.508  11.409 -0.7240  0.3452 -0.0958
23611SOL    HW188825   0.588   5.520  11.487 -0.9098  1.3754 -0.1055
23611SOL    HW288826   0.446   5.488  11.444 -0.4605 -0.8411 -0.0754
23612SOL     OW88827  10.878   8.192  14.046 -0.2619  0.3966 -0.1136
23612SOL    HW188828  10.903   8.226  13.960 -1.3675 -0.2735 -0.7316
23612SOL    HW288829  10.896   8.264  14.106 -0.6251  1.3455 -1.0895
23613SOL     OW88830   8.968  10.855  13.156 -0.1906  0.1702  0.2772
23613SOL    HW188831   8.900  10.800  13.118 -0.3913 -2.0744  3.4796
23613SOL    HW288832   8.919  10.920  13.208  0.1256  1.5902 -1.1086
23614SOL     OW88833  10.859   5.133  12.855 -0.0384 -0.0698  0.3764
23614SOL    HW188834  10.914   5.204  12.888 -0.2266  1.5873 -2.4825
23614SOL    HW288835  10.920   5.064  12.829  0.4363  0.4222  0.1843
23615SOL     OW88836  10.278  11.008   4.517 -0.3492 -0.3884 -0.0032
23615SOL    HW188837  10.242  11.009   4.428 -0.2310  3.1409 -0.1675
23615SOL    HW288838  10.204  10.984   4.573 -1.7661  1.9030 -0.7562
23616SOL     OW88839  13.634   5.004   0.615  0.2466  0.3345 -0.0435
23616SOL    HW188840  13.563   4.939   0.612 -0.9689  1.6557 -1.6692
23616SOL    HW288841  13.590   5.088   0.618  1.8014  1.1600  1.6728
23617SOL     OW88842   1.815   3.947   2.873 -0.6503  0.2532 -0.0842
23617SOL    HW188843   1.737   3.939   2.819  0.1919  1.4868 -1.5724
23617SOL    HW288844   1.870   4.011   2.827  1.7432 -1.4050  0.2911
23618SOL     OW88845  11.560  10.778  11.296 -0.2021 -0.9164 -0.3274
23618SOL    HW188846  11.469  10.754  11.314 -0.3513 -0.4700 -0.4717
23618SOL    HW288847  11.597  10.797  11.382 -0.2149 -1.2145 -0.2565
23619SOL     OW88848   5.747  12.566  13.496 -0.2041  0.0515 -0.2022
23619SOL    HW188849   5.811  12.634  13.519 -0.5811  0.9393 -1.6433
23619SOL    HW288850   5.763  12.496  13.559  1.3270  0.7796  0.2754
23620SOL     OW88851   7.755  12.834   8.862  0.2252  0.1461 -0.1394
23620SOL    HW188852   7.744  12.916   8.813  0.5791 -0.3409 -1.0799
23620SOL    HW288853   7.822  12.786   8.812  1.0431 -0.1219  1.1789
23621SOL     OW88854  12.041   6.668   8.617 -0.4979  0.0559 -0.2085
23621SOL    HW188855  12.103   6.675   8.545 -1.9065  1.9225 -1.3007
23621SOL    HW288856  11.955   6.672   8.576 -1.3588 -0.2337  1.4606
23622SOL     OW88857  13.344   0.417   9.587 -0.2839 -0.3484 -0.6108
23622SOL    HW188858  13.409   0.348   9.597 -0.6343 -0.6740 -0.5608
23622SOL    HW288859  13.368   0.460   9.505 -1.1342 -1.7093 -1.6282
23623SOL     OW88860  11.798   7.314   9.222  0.3289  0.4963 -0.2740
23623SOL    HW188861  11.886   7.287   9.246  0.3389  0.1097 -0.7295
23623SOL    HW288862  11.787   7.284   9.132 -0.3522  0.3215 -0.1421
23624SOL     OW88863   6.781  10.982   0.984 -0.3296  0.3764 -0.1427
23624SOL    HW188864   6.830  10.946   0.910 -0.7962 -0.3269 -0.1262
23624SOL    HW288865   6.805  10.927   1.058  0.4013  1.2985  0.3116
23625SOL     OW88866  13.273  10.269   2.755  0.2478  0.1541  0.3075
23625SOL    HW188867  13.227  10.351   2.738  1.7336  1.5647  2.4618
23625SOL    HW288868  13.301  10.276   2.846  3.7885 -0.9889 -0.5321
23626SOL     OW88869   8.721   0.635   1.790  0.2754 -0.3941  0.1699
23626SOL    HW188870   8.711   0.564   1.726  1.5718 -0.0390 -0.4468
23626SOL    HW288871   8.634   0.642   1.831 -0.7112 -0.3749 -1.8037
23627SOL     OW88872  11.251   5.597  12.519 -0.2677 -0.1719 -0.4375
23627SOL    HW188873  11.178   5.536  12.519 -1.1817  0.8767 -0.8461
23627SOL    HW288874  11.268   5.614  12.612 -0.4698 -0.5172 -0.3362
23628SOL     OW88875   2.048   2.771   5.981  0.0972 -0.6641  0.1449
23628SOL    HW188876   2.141   2.757   5.999 -0.2868 -1.5685  1.5991
23628SOL    HW288877   2.009   2.684   5.988 -0.6985 -0.5076 -1.6794
23629SOL     OW88878   5.654   5.473   3.810 -0.0790 -0.4678  0.1560
23629SOL    HW188879   5.706   5.420   3.749  2.0763 -0.2270  1.6594
23629SOL    HW288880   5.583   5.508   3.756  1.9876  0.1818 -2.3830
23630SOL     OW88881   7.756   1.500  13.159 -0.4198  0.1193 -0.1348
23630SOL    HW188882   7.668   1.475  13.131 -0.7268  1.7189 -0.6953
23630SOL    HW288883   7.741   1.569  13.224  0.4374  0.7837 -0.6432
23631SOL     OW88884   6.575   6.073  13.890 -0.5814 -0.5378 -0.7092
23631SOL    HW188885   6.505   6.040  13.947  0.0640 -0.6273  0.0490
23631SOL    HW288886   6.627   5.995  13.869 -0.6428 -0.4543 -1.1740
23632SOL     OW88887   5.750   1.106   5.899 -0.4178 -0.2038 -0.1447
23632SOL    HW188888   5.797   1.151   5.970  1.3067 -3.3908  0.9587
23632SOL    HW288889   5.673   1.070   5.942 -0.9198  0.2982 -0.6190
23633SOL     OW88890   3.965   0.717  12.498 -0.7494  0.2864  0.5856
23633SOL    HW188891   3.922   0.697  12.414  0.1582  0.4070  0.0809
23633SOL    HW288892   3.955   0.638  12.550  0.0254 -0.3466 -0.2097
23634SOL     OW88893  10.713   6.501   7.124  0.0731 -0.4113 -0.2537
23634SOL    HW188894  10.772   6.426   7.123 -0.7242 -1.0838  0.8854
23634SOL    HW288895  10.716   6.534   7.213  0.4339  0.9499 -0.7522
23635SOL     OW88896  13.507   8.315   7.309  0.1488  0.2283 -0.0799
23635SOL    HW188897  13.593   8.310   7.352 -0.6503 -1.7392  1.4560
23635SOL    HW288898  13.502   8.235   7.257 -0.3994  0.7928 -0.9082
23636SOL     OW88899   4.287  13.185  12.502  0.3035  0.7604 -0.0459
23636SOL    HW188900   4.270  13.156  12.413  0.5816  1.0357 -0.1924
23636SOL    HW288901   4.235  13.126  12.557 -1.0508  1.5321 -0.4576
23637SOL     OW88902   6.285   8.814   0.074 -1.0568  0.4021  0.0357
23637SOL    HW188903   6.340   8.741   0.101  1.0422  2.4218  1.5484
23637SOL    HW288904   6.252   8.788  -0.012  1.8320 -1.1670 -0.7294
23638SOL     OW88905   4.771   0.058  11.820  0.2197 -0.2859 -0.1021
23638SOL    HW188906   4.682   0.082  11.796 -0.3675 -0.9493  1.2947
23638SOL    HW288907   4.816   0.047  11.737 -0.7853  0.8174 -0.8264
23639SOL     OW88908   0.108   2.878  11.307  0.1733  0.1008 -0.0262
23639SOL    HW188909   0.144   2.836  11.229  2.7883  1.5795  0.2667
23639SOL    HW288910   0.172   2.861  11.376 -1.2888  0.1786  1.4071
23640SOL     OW88911   2.313  12.444   8.446  0.0637 -0.7310 -0.6941
23640SOL    HW188912   2.372  12.405   8.381  0.5916 -1.8700  0.4284
23640SOL    HW288913   2.293  12.372   8.506 -0.9199  0.1409  0.0505
23641SOL     OW88914  10.334   0.763  13.826  0.3664 -0.3534  0.2514
23641SOL    HW188915  10.250   0.767  13.871 -0.1628 -1.3393 -0.5863
23641SOL    HW288916  10.398   0.783  13.893 -0.4111 -1.4935  1.3996
23642SOL     OW88917  10.236   7.544   5.610  0.1927 -0.3864 -0.6442
23642SOL    HW188918  10.204   7.601   5.680  0.6909 -0.0898 -0.6545
23642SOL    HW288919  10.206   7.456   5.635  0.2738 -0.2680 -0.1186
23643SOL     OW88920   6.503  10.221  13.949  0.3137  0.1846 -0.0420
23643SOL    HW188921   6.517  10.155  13.881 -2.2279 -0.1797 -0.3261
23643SOL    HW288922   6.573  10.285  13.936  2.1437 -1.8119 -0.5122
23644SOL     OW88923   4.236   5.632   2.963  0.4930 -0.2945 -0.2465
23644SOL    HW188924   4.285   5.709   2.936 -0.6020  1.0488  1.3603
23644SOL    HW288925   4.185   5.608   2.886  1.7704 -0.1937 -1.1512
23645SOL     OW88926   2.828   5.347   6.399  0.2332  0.1107 -0.2715
23645SOL    HW188927   2.736   5.363   6.381  0.1733 -1.0188 -1.0988
23645SOL    HW288928   2.834   5.253   6.415  1.2880  0.1043 -0.5859
23646SOL     OW88929   0.521   1.537  11.575  0.5380 -0.2342  0.5399
23646SOL    HW188930   0.585   1.578  11.516  0.7617 -0.1971  0.8083
23646SOL    HW288931   0.552   1.559  11.663 -0.0319  0.0682  0.6662
23647SOL     OW88932   3.567  11.811   1.868  0.7663  0.5151 -0.5290
23647SOL    HW188933   3.496  11.747   1.858  1.6163 -0.6973  0.8169
23647SOL    HW288934   3.620  11.800   1.789  0.4798  0.1113 -0.6723
23648SOL     OW88935  13.989   9.819  10.549 -0.1261  0.2823 -0.1962
23648SOL    HW188936  13.955   9.902  10.583  1.8096  0.8415  0.5033
23648SOL    HW288937  13.955   9.753  10.609  1.6577  1.0512  1.7987
23649SOL     OW88938  12.329   5.478  12.633  0.0857  0.6173 -0.6120
23649SOL    HW188939  12.354   5.549  12.574  0.0379  2.6184  1.6067
23649SOL    HW288940  12.245   5.507  12.671  0.6319 -0.0142  1.2053
23650SOL     OW88941   6.744   1.633   2.908 -0.2764 -0.4012 -0.0159
23650SOL    HW188942   6.736   1.575   2.833  0.6093  0.9806 -1.2225
23650SOL    HW288943   6.697   1.713   2.883  0.9699  0.5094  0.4107
23651SOL     OW88944   0.454   6.659   2.841 -0.1121 -0.5291 -0.1008
23651SOL    HW188945   0.425   6.623   2.757 -0.3682  1.4631 -0.9317
23651SOL    HW288946   0.456   6.753   2.826  0.5052 -0.1829  1.9513
23652SOL     OW88947   0.732  10.653   4.478 -0.3047 -0.1973 -0.4425
23652SOL    HW188948   0.660  10.653   4.414 -1.2237 -2.5928  0.4810
23652SOL    HW288949   0.688  10.646   4.563  0.9783  0.9068  0.3484
23653SOL     OW88950  14.072   7.791  10.085  0.3230 -0.0012  0.1556
23653SOL    HW188951  13.989   7.832  10.110  0.4561 -1.0144  2.5517
23653SOL    HW288952  14.085   7.817   9.994 -1.6839  1.7059  0.2755
23654SOL     OW88953   7.883   0.350  14.039  0.2785  0.0014  0.3392
23654SOL    HW188954   7.919   0.362  13.951  0.3874  0.7788  0.4799
23654SOL    HW288955   7.907   0.431  14.085  0.5533 -0.5571  1.1935
23655SOL     OW88956  12.038   7.906  10.832  0.1575  0.1476  0.1854
23655SOL    HW188957  12.055   7.936  10.922 -0.2133  3.3634 -0.6926
23655SOL    HW288958  11.980   7.973  10.795 -3.1891 -3.2080 -1.2621
23656SOL     OW88959   2.429  11.324   1.452 -0.2341 -0.3054 -0.2333
23656SOL    HW188960   2.368  11.354   1.385  1.0230 -0.6484 -1.5810
23656SOL    HW288961   2.516  11.344   1.417  0.5083 -1.8355  0.6205
23657SOL     OW88962   6.717  13.844   1.288  0.2610  0.0292  0.4105
23657SOL    HW188963   6.784  13.891   1.238 -1.6147  0.2159 -2.0944
23657SOL    HW288964   6.749  13.847   1.379  2.9872  1.1798 -0.4790
23658SOL     OW88965   0.072   6.201  10.510  0.5470 -0.0328  0.0612
23658SOL    HW188966   0.089   6.112  10.479 -0.4938 -0.3647  0.4038
23658SOL    HW288967  -0.023   6.206  10.518  0.6999  0.2821  2.3974
23659SOL     OW88968   5.318   4.922   3.366 -0.1265 -0.0542 -0.2304
23659SOL    HW188969   5.397   4.913   3.419 -0.4081  0.8527  0.3656
23659SOL    HW288970   5.325   4.852   3.301  1.0808 -0.0974 -0.0862
23660SOL     OW88971  13.815   9.605   4.528 -0.1022  0.3501 -0.1895
23660SOL    HW188972  13.909   9.586   4.525 -0.2805 -0.4628 -2.0035
23660SOL    HW288973  13.794   9.640   4.442 -1.5371  0.1967  0.0627
23661SOL     OW88974   8.038   0.205   5.914 -0.4329 -0.4123 -0.3752
23661SOL    HW188975   8.116   0.232   5.865  0.1133  0.6214  1.0229
23661SOL    HW288976   8.030   0.269   5.985 -2.0088 -1.0631  0.0824
23662SOL     OW88977  10.642   2.201  11.435 -0.5083  0.1699  0.4779
23662SOL    HW188978  10.705   2.230  11.370 -0.0513 -3.6896 -1.0120
23662SOL    HW288979  10.557   2.231  11.401  0.0406  1.2769  0.0378
23663SOL     OW88980   2.761   5.883   3.311 -0.7888  0.5869 -0.0721
23663SOL    HW188981   2.824   5.835   3.365  0.3173  2.7261  0.6499
23663SOL    HW288982   2.686   5.897   3.369 -1.7710 -1.4296 -0.7438
23664SOL     OW88983   3.043   3.194   0.596  0.2225 -0.2140 -0.5139
23664SOL    HW188984   3.069   3.268   0.650  0.0370  0.3085 -1.1198
23664SOL    HW288985   3.120   3.137   0.594 -0.2490 -0.9767  1.4723
23665SOL     OW88986   0.102   9.929   3.051  0.8065  0.2683  0.3807
23665SOL    HW188987   0.026   9.987   3.048  0.2731 -0.4307 -0.3274
23665SOL    HW288988   0.109   9.902   3.142 -2.1840 -2.6603 -0.0712
23666SOL     OW88989   6.417  10.928   1.840  0.1217 -0.3657 -0.1904
23666SOL    HW188990   6.388  10.855   1.894 -0.2111 -0.2853 -0.2616
23666SOL    HW288991   6.398  10.900   1.750 -1.1184  0.2942 -0.1551
23667SOL     OW88992  10.187   0.768   7.086  0.4972  0.4467  0.3328
23667SOL    HW188993  10.249   0.700   7.111  0.1449 -0.4662 -1.1879
23667SOL    HW288994  10.243   0.841   7.057  0.8655  0.0290 -0.0212
23668SOL     OW88995  12.734  13.839   7.352  0.0950  0.4392  0.2306
23668SOL    HW188996  12.676  13.888   7.294 -0.5895  0.5005  0.9471
23668SOL    HW288997  12.732  13.749   7.318  0.5981  0.7056 -0.5122
23669SOL     OW88998   2.430   9.294   5.027  0.9103 -0.5248  0.0609
23669SOL    HW188999   2.354   9.263   4.978  0.9948 -1.9182  0.7807
23669SOL    HW289000   2.463   9.368   4.975  0.0221 -0.9178 -1.1044
23670SOL     OW89001   3.280  13.360   3.035 -0.0510 -0.0160 -0.0734
23670SOL    HW189002   3.260  13.414   3.112 -1.1170 -0.8625  0.2751
23670SOL    HW289003   3.362  13.316   3.057  0.4533  0.9051 -0.0667
23671SOL     OW89004  13.431   6.991   5.920 -0.4961  0.4609  0.2549
23671SOL    HW189005  13.525   7.005   5.906 -0.3340  0.3118  1.1373
23671SOL    HW289006  13.402   7.070   5.967 -0.4983 -0.1194  1.2706
23672SOL     OW89007   1.984  13.016   6.895 -0.0346  0.0095  0.1201
23672SOL    HW189008   2.009  13.104   6.923  3.9509 -0.9564  0.1770
23672SOL    HW289009   1.940  12.978   6.971  1.1270  0.9130  1.2818
23673SOL     OW89010   5.885   6.477   0.226  0.5732  0.0444  0.1921
23673SOL    HW189011   5.936   6.404   0.190  0.9356 -0.1908  1.1678
23673SOL    HW289012   5.895   6.547   0.161  1.0675 -0.4349 -0.2532
23674SOL     OW89013  12.591   6.915   0.857  0.7388 -0.3279  0.0257
23674SOL    HW189014  12.632   6.997   0.830  0.6289  0.1690  1.2673
23674SOL    HW289015  12.653   6.877   0.919  0.3356 -0.6795  0.2181
23675SOL     OW89016   3.695   7.033   7.375 -0.0197  0.0826  0.5225
23675SOL    HW189017   3.621   6.974   7.362 -0.5192  1.0247 -1.2681
23675SOL    HW289018   3.768   6.990   7.330  0.8761 -1.3064  3.0709
23676SOL     OW89019  11.732  10.057   2.151  0.0225  0.1332  0.4125
23676SOL    HW189020  11.826  10.042   2.144 -0.0656 -1.0954  1.4887
23676SOL    HW289021  11.724  10.147   2.182  0.7970  0.5827 -0.6587
23677SOL     OW89022   1.457  11.041  11.501 -1.0193 -0.0517  0.0351
23677SOL    HW189023   1.396  11.112  11.481 -0.4191  1.2626  2.5291
23677SOL    HW289024   1.404  10.961  11.493 -1.6361  0.5253 -3.1064
23678SOL     OW89025   5.399   7.643   2.076  0.2735 -0.1929 -0.2267
23678SOL    HW189026   5.379   7.696   1.999 -0.3963 -0.2545 -0.0986
23678SOL    HW289027   5.483   7.602   2.055  1.4856  1.9127  0.2140
23679SOL     OW89028  13.323  10.507   8.675  0.0505 -0.1895 -0.1364
23679SOL    HW189029  13.418  10.520   8.664 -0.0605  0.4900 -0.3956
23679SOL    HW289030  13.293  10.589   8.714 -0.4213 -0.4223 -0.0155
23680SOL     OW89031  10.941  11.920   8.776 -0.2426 -0.3588  0.3559
23680SOL    HW189032  10.891  11.917   8.858  0.1350  2.5729  0.8095
23680SOL    HW289033  11.032  11.930   8.804  0.0803 -0.9810 -0.4463
23681SOL     OW89034   7.742  11.594   5.190  0.5829 -0.1979 -0.6503
23681SOL    HW189035   7.738  11.595   5.286  0.1980 -0.0127 -0.6645
23681SOL    HW289036   7.730  11.686   5.165  2.7918  0.0975 -0.8095
23682SOL     OW89037   2.435   0.157   2.624 -0.3124  0.0040  0.3522
23682SOL    HW189038   2.514   0.211   2.615 -0.2959  0.4566  2.5351
23682SOL    HW289039   2.390   0.167   2.541  1.9941 -0.4082 -1.0504
23683SOL     OW89040  11.370  13.630   1.604 -0.4568 -0.0964  0.4381
23683SOL    HW189041  11.445  13.652   1.660 -1.5695  0.2003  1.8760
23683SOL    HW289042  11.363  13.704   1.543 -0.6586  0.7530  1.4673
23684SOL     OW89043   4.716  10.691  11.470  0.6898 -0.7738 -0.0267
23684SOL    HW189044   4.641  10.640  11.440  1.3366 -1.0836 -1.1777
23684SOL    HW289045   4.793  10.642  11.440  1.3332  0.2058 -0.0301
23685SOL     OW89046   6.952  10.406   1.902 -0.9820  0.1528 -0.4936
23685SOL    HW189047   6.943  10.474   1.969 -2.2338 -1.4013  1.0287
23685SOL    HW289048   6.869  10.358   1.905  0.4319 -2.5002 -0.2211
23686SOL     OW89049   9.731   4.276   9.514  0.6944 -0.0022 -0.7725
23686SOL    HW189050   9.695   4.339   9.577 -0.0546  1.1664 -2.3242
23686SOL    HW289051   9.657   4.218   9.494  1.0502 -0.6467 -0.2828
23687SOL     OW89052  11.729   4.146   8.502 -0.2247  0.6330 -0.2824
23687SOL    HW189053  11.703   4.188   8.584 -1.8322 -0.6302 -0.0925
23687SOL    HW289054  11.816   4.109   8.520 -0.2554  0.9754  0.6153
23688SOL     OW89055   1.656  14.015   1.089 -0.0892 -0.0603 -0.0877
23688SOL    HW189056   1.585  14.013   1.154  0.2541  2.3508  0.4588
23688SOL    HW289057   1.627  14.078   1.024  1.0674  0.1219 -0.4453
23689SOL     OW89058   5.035  12.753   0.646 -0.0923  0.1176 -0.0433
23689SOL    HW189059   5.122  12.760   0.607  0.8854 -2.4786  1.4046
23689SOL    HW289060   5.032  12.822   0.712 -0.0218  1.6219 -1.5570
23690SOL     OW89061   9.822  10.639   2.769 -0.6879  0.1068  0.0122
23690SOL    HW189062   9.878  10.715   2.756 -0.1961 -0.3961 -0.8639
23690SOL    HW289063   9.805  10.637   2.863  1.0137  0.0962  0.3358
23691SOL     OW89064   6.022  13.184  13.447 -0.3341  0.0055  0.1521
23691SOL    HW189065   5.961  13.115  13.471 -1.6016  0.8877 -0.4633
23691SOL    HW289066   6.048  13.164  13.357  2.3429 -1.7981  1.2082
23692SOL     OW89067   7.629   3.060   9.233 -0.0090 -0.1483  1.0867
23692SOL    HW189068   7.685   3.081   9.158 -1.1613 -1.9246 -0.3302
23692SOL    HW289069   7.691   3.047   9.305  1.1970  0.4613  0.2024
23693SOL     OW89070   8.680   3.612   2.007 -0.2663 -0.4363 -0.0616
23693SOL    HW189071   8.658   3.647   1.921 -0.0010 -0.5791 -0.1870
23693SOL    HW289072   8.770   3.642   2.023 -0.2632 -0.5329  0.1038
23694SOL     OW89073   7.526   8.837   1.883 -0.0323 -0.2585 -0.2655
23694SOL    HW189074   7.613   8.872   1.863  0.2451 -0.9145 -0.2270
23694SOL    HW289075   7.543   8.766   1.945 -0.7373  0.7480  1.1291
23695SOL     OW89076   8.561  11.605   9.302  0.0788  0.2387 -0.2692
23695SOL    HW189077   8.598  11.681   9.258 -0.7474 -0.0839 -1.5674
23695SOL    HW289078   8.467  11.622   9.304  0.0056 -0.1877  0.5562
23696SOL     OW89079   3.426  10.159   0.336 -0.4464 -0.5543  0.1563
23696SOL    HW189080   3.450  10.162   0.428  0.6195 -1.1724 -0.0903
23696SOL    HW289081   3.506  10.133   0.290 -1.3502 -1.8066 -0.7856
23697SOL     OW89082   7.160   1.104   1.337  0.4152 -0.4027 -0.0532
23697SOL    HW189083   7.128   1.021   1.303 -0.4820  0.2531 -0.8668
23697SOL    HW289084   7.196   1.149   1.260 -1.5749  1.0838 -0.1858
23698SOL     OW89085  11.680   3.581   8.627 -0.1378 -0.3125 -0.0306
23698SOL    HW189086  11.633   3.592   8.709 -0.0888  0.3161 -0.0798
23698SOL    HW289087  11.613   3.556   8.564 -0.2146 -0.5518  0.1438
23699SOL     OW89088   3.633   6.439   1.674 -0.2690 -0.6003  0.1755
23699SOL    HW189089   3.640   6.371   1.606 -0.8168 -1.4514  0.9420
23699SOL    HW289090   3.606   6.391   1.752 -0.1994  0.4499  0.8569
23700SOL     OW89091  10.340   3.541   2.188  0.0528  0.4734  0.4385
23700SOL    HW189092  10.417   3.486   2.200 -0.7022 -0.2489  2.3224
23700SOL    HW289093  10.369   3.609   2.127  1.3224 -1.3548 -1.1578
23701SOL     OW89094   4.004   3.375  11.756  0.2191 -0.2839  0.2110
23701SOL    HW189095   3.971   3.291  11.788  1.2797 -0.6918  0.2827
23701SOL    HW289096   4.072   3.351  11.692  1.1215  0.5084  0.8557
23702SOL     OW89097   0.530  12.113   9.971 -0.0352 -0.2927 -0.0755
23702SOL    HW189098   0.485  12.028   9.976  1.3186 -1.1083 -0.8778
23702SOL    HW289099   0.594  12.101   9.901 -0.0694  1.5425 -0.4467
23703SOL     OW89100  10.294   9.503   8.603 -0.2375  0.3726  0.7949
23703SOL    HW189101  10.329   9.562   8.670  0.5782  0.2431  0.4967
23703SOL    HW289102  10.289   9.557   8.524 -1.4878  0.6119  1.0167
23704SOL     OW89103   3.141   4.431  13.462 -0.6538  0.2946  0.1298
23704SOL    HW189104   3.056   4.449  13.502 -0.5679  0.3796  0.2754
23704SOL    HW289105   3.141   4.482  13.381 -0.6599  0.4551  0.2309
23705SOL     OW89106   6.231  13.496   4.827  0.0839 -0.3631 -0.4402
23705SOL    HW189107   6.226  13.406   4.858 -0.8510 -0.3211 -0.4426
23705SOL    HW289108   6.148  13.535   4.853 -0.6873 -0.2664 -2.7999
23706SOL     OW89109   3.925   7.626   0.909 -0.2420  0.4311  0.5545
23706SOL    HW189110   3.964   7.564   0.971 -1.0168 -1.0202 -0.3346
23706SOL    HW289111   3.852   7.665   0.956  1.5748  2.4581  1.9076
23707SOL     OW89112   1.168   8.375   9.716  0.2982 -0.0714  0.4174
23707SOL    HW189113   1.150   8.425   9.795 -1.8884  1.2929 -0.8504
23707SOL    HW289114   1.158   8.437   9.644  2.1613 -1.2704 -0.9918
23708SOL     OW89115   3.054  10.904   4.792  0.2936  0.4816  0.0123
23708SOL    HW189116   3.054  10.911   4.887  0.1454 -0.2110  0.0655
23708SOL    HW289117   2.961  10.911   4.767  0.1725 -0.7251  0.0389
23709SOL     OW89118   0.049   2.272   3.755 -0.2911 -0.2257 -0.5930
23709SOL    HW189119  -0.031   2.303   3.712  0.0016  0.9040 -0.3539
23709SOL    HW289120   0.086   2.350   3.796  0.3502 -0.9557  0.2554
23710SOL     OW89121   1.960   8.569   0.532 -0.2945 -0.4932 -0.2155
23710SOL    HW189122   1.988   8.553   0.622  0.4790 -2.4834 -0.7709
23710SOL    HW289123   1.992   8.657   0.512  0.7570 -0.5753  1.0002
23711SOL     OW89124  12.132   1.319   1.458  0.7465  0.0287 -0.4632
23711SOL    HW189125  12.117   1.408   1.428 -0.4208  0.3187  0.9146
23711SOL    HW289126  12.223   1.319   1.488  1.0479  0.4783 -1.3447
23712SOL     OW89127   2.876   6.106   1.106 -0.2609  0.0172 -0.6550
23712SOL    HW189128   2.840   6.101   1.018  0.5609 -0.9229 -0.9569
23712SOL    HW289129   2.958   6.154   1.097 -0.3720  0.2686 -0.3376
23713SOL     OW89130   5.274   3.388  10.292 -0.0572  0.2565  0.2963
23713SOL    HW189131   5.363   3.354  10.304 -0.3447 -0.6230 -0.0077
23713SOL    HW289132   5.222   3.342  10.357 -1.2398 -3.0469 -2.6726
23714SOL     OW89133   7.237  12.928  10.437  0.2199 -0.1446  0.6519
23714SOL    HW189134   7.241  13.000  10.374 -1.9891  0.1241  0.7532
23714SOL    HW289135   7.196  12.966  10.514  0.7529 -1.0641  1.4069
23715SOL     OW89136  12.929   5.794   6.621 -0.1151  0.2385  0.3703
23715SOL    HW189137  12.884   5.878   6.630 -3.6179 -1.3874 -0.0034
23715SOL    HW289138  12.900   5.743   6.696  1.9150 -0.6744  0.5766
23716SOL     OW89139  10.149  12.412   4.654 -0.2902  0.3821  0.2397
23716SOL    HW189140  10.145  12.392   4.747 -0.1020 -1.0724 -0.0333
23716SOL    HW289141  10.240  12.440   4.639  0.1729 -1.0201  0.2280
23717SOL     OW89142   8.315   8.033   8.158  0.4309 -1.1252  0.0238
23717SOL    HW189143   8.248   8.101   8.147  0.8399 -0.6523  0.3646
23717SOL    HW289144   8.378   8.073   8.218  1.8945 -0.8865 -1.5810
23718SOL     OW89145  11.369   8.890   9.692  0.5336 -0.0675  0.2340
23718SOL    HW189146  11.317   8.825   9.644 -0.5703  0.4269  0.7240
23718SOL    HW289147  11.422   8.839   9.753  1.1481 -0.6291 -0.7437
23719SOL     OW89148   9.033  11.267   1.035 -0.1884 -0.0131 -0.8304
23719SOL    HW189149   9.096  11.236   0.970  0.4288  0.8839 -0.6825
23719SOL    HW289150   8.961  11.204   1.031  0.6257 -0.9406 -1.1442
23720SOL     OW89151   0.906  10.264   1.028 -0.2402 -0.5154 -0.5808
23720SOL    HW189152   0.884  10.343   1.078 -0.0837 -0.9498  0.1754
23720SOL    HW289153   0.857  10.274   0.946 -0.7041  0.0791 -0.2421
23721SOL     OW89154   5.948   4.275   0.911 -0.0005 -0.2907  0.2527
23721SOL    HW189155   6.005   4.252   0.837 -0.6137  1.1537 -0.7247
23721SOL    HW289156   5.899   4.351   0.880  0.2055  0.8002  2.4075
23722SOL     OW89157  12.757   3.532  10.867  0.5926 -0.0955  0.1592
23722SOL    HW189158  12.754   3.623  10.898 -2.6314  0.0366 -0.2083
23722SOL    HW289159  12.820   3.534  10.795  0.7322  1.8233  0.2672
23723SOL     OW89160  13.203   9.059  14.062 -0.1940 -0.3490  0.3660
23723SOL    HW189161  13.229   8.983  14.115  1.1669 -0.3432 -0.2721
23723SOL    HW289162  13.152   9.113  14.122  0.3910 -0.8725  1.3545
23724SOL     OW89163   7.173   9.149  12.623  0.1219  0.3747 -0.2967
23724SOL    HW189164   7.162   9.229  12.674  0.1021  0.5487 -0.5702
23724SOL    HW289165   7.268   9.138  12.614  0.1307  1.5524 -2.0824
23725SOL     OW89166  11.943   0.884   9.351 -0.4576 -0.5007 -0.2380
23725SOL    HW189167  11.913   0.793   9.354 -0.5965 -0.4346  0.7108
23725SOL    HW289168  11.922   0.919   9.438 -1.9484  0.9210 -1.1156
23726SOL     OW89169   5.363   6.992  10.479 -0.6228  0.9730 -0.0283
23726SOL    HW189170   5.453   7.008  10.507  0.3632 -1.8621 -1.2128
23726SOL    HW289171   5.363   7.011  10.385 -1.4203  1.4755  0.0661
23727SOL     OW89172  13.247  13.925   8.402 -0.5865  0.0133  0.2519
23727SOL    HW189173  13.336  13.894   8.384 -0.2834  1.2894 -0.6230
23727SOL    HW289174  13.254  14.021   8.399 -2.0576  0.1360 -0.1887
23728SOL     OW89175   7.869   8.881   4.442  0.7478  0.0196 -0.1395
23728SOL    HW189176   7.908   8.903   4.357  3.6307 -0.8851  0.8258
23728SOL    HW289177   7.890   8.789   4.456 -2.7928 -0.9062  0.0879
23729SOL     OW89178   7.515  11.540  12.935 -0.1968  0.1921  0.1212
23729SOL    HW189179   7.522  11.635  12.922  0.4816  0.1621  0.2655
23729SOL    HW289180   7.581  11.519  13.000 -1.3773 -0.1620  1.2472
23730SOL     OW89181   0.128   4.816   5.877 -0.0671  0.2782 -0.5921
23730SOL    HW189182   0.102   4.897   5.834  0.3598  1.3549  1.0852
23730SOL    HW289183   0.073   4.811   5.955  0.7865 -0.3684 -0.0074
23731SOL     OW89184   6.301   1.488   0.541  0.1861 -0.6428  0.1303
23731SOL    HW189185   6.237   1.449   0.482  0.0183  0.7452 -0.6596
23731SOL    HW289186   6.315   1.576   0.506  0.5233  0.0262  1.8250
23732SOL     OW89187   1.119   2.088   6.948  0.0475  0.0881  0.1197
23732SOL    HW189188   1.146   2.112   6.860  1.9317 -1.2983  0.2477
23732SOL    HW289189   1.041   2.141   6.965  0.1101  0.9757 -2.0472
23733SOL     OW89190   4.351   0.124   4.342 -0.3481  0.3302  0.3332
23733SOL    HW189191   4.401   0.051   4.379 -1.5850 -0.0259  1.3934
23733SOL    HW289192   4.260   0.096   4.348 -0.8012  1.6549  0.0355
23734SOL     OW89193  13.631   0.194   0.362 -0.1341 -0.6176  0.0041
23734SOL    HW189194  13.536   0.180   0.353 -0.4063  1.1449 -0.1450
23734SOL    HW289195  13.651   0.263   0.299  0.7476  0.9293  1.8968
23735SOL     OW89196  13.798  10.503  10.163 -0.0513 -0.0441  0.1500
23735SOL    HW189197  13.714  10.456  10.159  0.2430 -0.6215  0.6354
23735SOL    HW289198  13.838  10.474  10.245  0.4907  0.4607  0.0675
23736SOL     OW89199  13.666  11.710   4.164 -0.3305 -0.2970  0.7044
23736SOL    HW189200  13.658  11.677   4.075 -1.7648 -0.2424  0.7898
23736SOL    HW289201  13.653  11.805   4.155 -0.5795 -0.3048  0.9791
23737SOL     OW89202   5.479   7.087   5.448  1.2084  0.3839  0.1435
23737SOL    HW189203   5.451   6.995   5.448 -0.6688  0.9079 -0.2216
23737SOL    HW289204   5.531   7.096   5.368 -0.3057  0.0871 -0.9181
23738SOL     OW89205   6.832   0.932   1.054 -0.7092 -0.3661 -0.1343
23738SOL    HW189206   6.755   0.916   1.109 -0.9998  2.3202  0.3797
23738SOL    HW289207   6.809   0.896   0.969 -2.1757 -0.4248  0.2598
23739SOL     OW89208   1.338   9.233   9.500 -0.0033 -0.3247 -0.5032
23739SOL    HW189209   1.290   9.150   9.502  0.0913 -0.3675  0.1618
23739SOL    HW289210   1.290   9.287   9.437 -0.9698 -0.3456  0.2029
23740SOL     OW89211  13.516   4.309   5.085  0.0047  0.8232 -0.1730
23740SOL    HW189212  13.457   4.333   5.013  0.0070 -0.2953 -0.5619
23740SOL    HW289213  13.519   4.214   5.083  2.1524  0.8500 -0.4297
23741SOL     OW89214   1.263  11.740   7.404 -0.2218  0.2145  0.1258
23741SOL    HW189215   1.255  11.752   7.310  2.9567 -0.2236 -0.3178
23741SOL    HW289216   1.229  11.653   7.421  2.4550 -1.2300 -1.3161
23742SOL     OW89217   3.775   6.325   3.803  0.2315  0.1994  0.2627
23742SOL    HW189218   3.832   6.392   3.841 -0.1935  0.2554  0.8213
23742SOL    HW289219   3.835   6.256   3.774  0.7947  1.3825 -1.5328
23743SOL     OW89220  12.621  13.528   7.933  0.5269  0.1246  0.7315
23743SOL    HW189221  12.600  13.478   8.013  0.6056  0.1767  0.7854
23743SOL    HW289222  12.703  13.488   7.902 -0.3037 -0.9241 -0.1853
23744SOL     OW89223  11.001   2.173   8.335 -0.6834  0.3507  0.6299
23744SOL    HW189224  10.951   2.117   8.395  0.3963  0.7480  1.9573
23744SOL    HW289225  10.935   2.230   8.297 -1.5512 -0.6040  0.6338
23745SOL     OW89226   2.147   8.176   8.164 -0.2620  0.0910 -0.6049
23745SOL    HW189227   2.092   8.152   8.089  1.0894  0.3245 -1.7133
23745SOL    HW289228   2.148   8.271   8.164  0.5737  0.0826 -0.9181
23746SOL     OW89229  10.096  10.187   8.447 -0.3150 -0.3564 -0.3454
23746SOL    HW189230  10.122  10.252   8.380  1.6443 -0.3152  0.3969
23746SOL    HW289231  10.109  10.232   8.530  0.3516 -1.4385  0.1585
23747SOL     OW89232   1.253   2.716   9.924  0.4358 -0.0678  0.2176
23747SOL    HW189233   1.226   2.780   9.990  0.5798 -0.4817  0.6813
23747SOL    HW289234   1.280   2.639   9.974  0.0181 -0.5914 -0.3437
23748SOL     OW89235  11.706   0.342   6.059 -0.3430 -0.1403  0.3048
23748SOL    HW189236  11.672   0.263   6.018  1.4034  0.0489 -1.6779
23748SOL    HW289237  11.798   0.323   6.077  0.2610  1.5899 -0.7224
23749SOL     OW89238   7.723  10.842   7.227  0.2220 -0.5495  0.6587
23749SOL    HW189239   7.633  10.874   7.236 -0.2435 -1.7585  0.5061
23749SOL    HW289240   7.777  10.919   7.242 -0.8794  0.9651 -2.2461
23750SOL     OW89241   7.713   8.037   0.665 -0.2501  0.0479  0.0920
23750SOL    HW189242   7.717   8.021   0.759  1.5518 -2.7210 -0.3387
23750SOL    HW289243   7.802   8.065   0.642 -0.2959 -0.6423 -0.9761
23751SOL     OW89244   0.072  11.056  11.602 -0.0837  0.0739  0.1120
23751SOL    HW189245   0.131  11.072  11.676  2.0855 -0.9371 -1.3136
23751SOL    HW289246   0.119  10.993  11.547 -2.9748 -1.6519 -0.5871
23752SOL     OW89247   1.132   6.875   6.596 -0.4093 -0.2888 -0.1987
23752SOL    HW189248   1.181   6.953   6.571 -1.1145  0.5419  0.9244
23752SOL    HW289249   1.059   6.871   6.534  0.1785 -0.6391 -0.8819
23753SOL     OW89250   1.839   5.495   9.857  0.0447  0.2282  0.1948
23753SOL    HW189251   1.847   5.433   9.930 -0.1408 -1.8334 -1.4531
23753SOL    HW289252   1.930   5.515   9.834  0.1080  0.6012  0.7557
23754SOL     OW89253   0.451  12.605  13.828  0.8813  0.0814 -0.0484
23754SOL    HW189254   0.514  12.665  13.867  3.4842 -1.4457 -1.5479
23754SOL    HW289255   0.429  12.644  13.743  0.7626  0.0299 -0.0425
23755SOL     OW89256   2.416  13.857   5.496 -0.0644  0.2985 -0.0601
23755SOL    HW189257   2.384  13.778   5.538  0.5474  0.3381  0.4969
23755SOL    HW289258   2.512  13.846   5.495 -0.0064  0.8139 -0.4111
23756SOL     OW89259  11.308   3.970  10.601  0.3905 -0.2232  1.0390
23756SOL    HW189260  11.350   4.050  10.568 -1.3563  0.8833  1.3489
23756SOL    HW289261  11.299   3.985  10.696 -2.2782  0.4247  0.7592
23757SOL     OW89262   9.690   9.327  13.251  0.2864 -0.2628 -0.3588
23757SOL    HW189263   9.655   9.416  13.247  0.9095 -0.0294 -0.8939
23757SOL    HW289264   9.673   9.298  13.341  0.0712  0.3925 -0.1822
23758SOL     OW89265   1.779   8.876   0.759 -0.1443  0.2025 -0.4746
23758SOL    HW189266   1.704   8.847   0.708 -0.3972  2.1742 -1.3380
23758SOL    HW289267   1.835   8.921   0.696  1.4774 -0.6838  0.2801
23759SOL     OW89268   9.250  11.668  10.426 -0.4623  0.3159  0.1747
23759SOL    HW189269   9.333  11.652  10.471  0.3892 -1.0160 -1.7663
23759SOL    HW289270   9.242  11.764  10.426 -0.7713  0.3906  3.4920
23760SOL     OW89271   1.182   0.287   1.945  0.4493 -0.0618 -0.1376
23760SOL    HW189272   1.189   0.200   1.984 -2.1101 -1.4722 -2.4804
23760SOL    HW289273   1.271   0.308   1.916  1.0152 -2.1474 -0.0227
23761SOL     OW89274   7.554  10.306   5.083 -0.0934 -0.5415  0.0259
23761SOL    HW189275   7.611  10.249   5.134  1.2498  1.0814  0.3967
23761SOL    HW289276   7.603  10.323   5.002 -0.4533  0.1354 -0.0523
23762SOL     OW89277   9.560   8.321  11.422  0.3332 -0.3135  0.4475
23762SOL    HW189278   9.575   8.387  11.355 -0.9088 -1.5713 -1.1561
23762SOL    HW289279   9.646   8.282  11.438  0.9429  1.1689  0.8916
23763SOL     OW89280   0.021  11.287  14.009 -1.1409  0.2302  0.0211
23763SOL    HW189281   0.114  11.280  13.990 -0.9704  0.8881  0.5986
23763SOL    HW289282   0.016  11.339  14.089 -2.0302  0.8244 -0.3974
23764SOL     OW89283   4.430   6.481   8.681 -0.1557 -0.1599 -0.3063
23764SOL    HW189284   4.438   6.411   8.746  1.8790  0.0218 -0.2892
23764SOL    HW289285   4.336   6.497   8.674 -0.7978 -3.2719 -0.7005
23765SOL     OW89286   8.378   3.619   5.259  0.3683 -0.0937  0.1708
23765SOL    HW189287   8.454   3.624   5.201  0.6978  0.6367  0.6457
23765SOL    HW289288   8.333   3.538   5.235 -0.4726  1.0240 -2.3044
23766SOL     OW89289   2.137  12.740   3.646  0.0634  0.6032  0.1909
23766SOL    HW189290   2.146  12.751   3.741 -0.2403  2.0186  0.0817
23766SOL    HW289291   2.186  12.814   3.610 -0.6712  0.6504 -0.7311
23767SOL     OW89292   9.287   7.609  11.178 -0.0905 -0.2584 -0.0741
23767SOL    HW189293   9.295   7.526  11.225  0.5016 -0.9770 -1.3693
23767SOL    HW289294   9.359   7.663  11.211 -1.2102  0.2518  1.6782
23768SOL     OW89295   4.720   0.039  11.486  0.5037 -0.2546 -0.1720
23768SOL    HW189296   4.704   0.116  11.432 -0.2697  1.1176  1.8997
23768SOL    HW289297   4.804   0.056  11.528 -0.2349  0.1107  1.2407
23769SOL     OW89298   9.624   0.878   7.589 -0.2072 -0.1942 -0.5582
23769SOL    HW189299   9.631   0.789   7.623 -0.6801  1.1898  3.7758
23769SOL    HW289300   9.530   0.896   7.588 -0.1750  0.0760 -2.2060
23770SOL     OW89301  13.878   7.679   2.672 -0.1528 -0.4819 -0.1118
23770SOL    HW189302  13.861   7.621   2.598 -0.0220 -0.6758  0.0099
23770SOL    HW289303  13.969   7.662   2.695 -0.4169 -0.9835  0.5850
23771SOL     OW89304   0.462   4.805   4.014 -0.0009  0.0870  0.1518
23771SOL    HW189305   0.374   4.820   3.980 -0.1540 -1.1016 -0.0312
23771SOL    HW289306   0.516   4.790   3.936  0.7057  2.2457  0.1564
23772SOL     OW89307   4.140  12.153  12.344 -0.0896  0.0929  0.2043
23772SOL    HW189308   4.116  12.206  12.268  0.2149  2.6147  1.7253
23772SOL    HW289309   4.216  12.102  12.315  0.0468  1.0348 -1.1837
23773SOL     OW89310   6.315   5.266   3.648 -0.3363  0.1798  0.5821
23773SOL    HW189311   6.257   5.243   3.575  0.5677 -0.1617 -0.0382
23773SOL    HW289312   6.365   5.186   3.665  2.1967  1.3021 -1.0074
23774SOL     OW89313   6.479  10.086   0.057  0.5109  0.3263 -0.2735
23774SOL    HW189314   6.447  10.166   0.098  0.0507  0.6344 -1.2020
23774SOL    HW289315   6.517  10.114  -0.026 -0.1773 -0.4609 -0.8782
23775SOL     OW89316   1.199   2.711   0.928 -0.0533  0.4658  0.4594
23775SOL    HW189317   1.128   2.647   0.924  1.3466 -1.0860 -1.9317
23775SOL    HW289318   1.250   2.686   1.005  1.3082 -2.4237 -1.1958
23776SOL     OW89319   0.925   1.628  11.190  0.1235  0.3997  0.2201
23776SOL    HW189320   0.868   1.704  11.205  1.9135  1.8992 -0.1538
23776SOL    HW289321   0.995   1.638  11.255  1.9043  0.6914 -1.6591
23777SOL     OW89322  10.487   2.738   6.210 -0.2833 -0.3057  0.2860
23777SOL    HW189323  10.539   2.668   6.250 -0.6971 -0.1352  1.1296
23777SOL    HW289324  10.523   2.746   6.122 -0.1074 -1.4579  0.2337
23778SOL     OW89325   6.138  12.659   1.771  0.0710  0.0209  0.4738
23778SOL    HW189326   6.107  12.569   1.772 -0.8727  0.3328  0.4841
23778SOL    HW289327   6.231  12.653   1.747  0.0213 -0.9451  0.5109
23779SOL     OW89328  11.681   2.204   7.112 -0.1522  0.0036 -0.2113
23779SOL    HW189329  11.735   2.274   7.075  0.2126  0.4566  1.1217
23779SOL    HW289330  11.644   2.241   7.192  2.5629 -2.2272  2.3155
23780SOL     OW89331  13.542   7.939   2.419 -0.8242  0.2421 -0.2293
23780SOL    HW189332  13.476   7.890   2.468  0.4580 -0.3719  0.9504
23780SOL    HW289333  13.498   7.965   2.338 -2.1511 -1.1297  0.0129
23781SOL     OW89334   3.612   1.729   1.542  0.2457  0.3377 -0.5242
23781SOL    HW189335   3.697   1.705   1.581  0.9466  1.4363 -1.3233
23781SOL    HW289336   3.631   1.739   1.449 -0.8910  0.1166 -0.7858
23782SOL     OW89337   9.078   2.968  11.277 -0.2836 -0.2794 -0.2684
23782SOL    HW189338   9.122   3.009  11.352  0.5798  0.7180 -1.2842
23782SOL    HW289339   9.149   2.925  11.229 -1.0156 -2.0280  0.1562
23783SOL     OW89340   4.495   2.409  12.618 -0.5630  0.4161 -0.0462
23783SOL    HW189341   4.525   2.482  12.672 -1.6206  1.5452 -0.8934
23783SOL    HW289342   4.543   2.419  12.535  0.4969 -0.8518  0.3809
23784SOL     OW89343  11.999   8.511  13.833  0.6164 -0.2856 -0.4806
23784SOL    HW189344  11.917   8.467  13.809  0.2537  0.2016 -0.1650
23784SOL    HW289345  12.030   8.463  13.910 -0.3721  0.6691  0.5673
23785SOL     OW89346   1.727   4.232   7.136 -0.5158  0.2375 -0.9653
23785SOL    HW189347   1.707   4.286   7.060  0.1543  0.3627 -1.0582
23785SOL    HW289348   1.815   4.197   7.119 -0.9804 -0.9952 -0.9772
23786SOL     OW89349  13.537   2.928   9.201  0.1232  0.2342 -0.0165
23786SOL    HW189350  13.484   2.849   9.199 -1.1132  1.0375 -0.4319
23786SOL    HW289351  13.480   2.996   9.166  1.0813  1.3545  0.5115
23787SOL     OW89352   2.819   6.705   7.858 -0.2453  0.2384 -0.2946
23787SOL    HW189353   2.794   6.645   7.928 -1.6638  0.9085 -0.1995
23787SOL    HW289354   2.904   6.740   7.886 -1.1276  1.0733  1.5068
23788SOL     OW89355   2.448   9.905   8.299  0.0651  0.0689  0.0412
23788SOL    HW189356   2.387   9.948   8.359 -1.0995 -0.9451 -0.3971
23788SOL    HW289357   2.458   9.967   8.227  0.6236  0.8181  0.7313
23789SOL     OW89358  10.474   1.914   1.260 -0.3479  0.3460  0.0337
23789SOL    HW189359  10.418   1.968   1.203  1.9197  1.6722 -1.1179
23789SOL    HW289360  10.544   1.884   1.202 -0.7090 -2.6745  1.0184
23790SOL     OW89361  10.712   8.179   6.577  0.5221 -0.4845  0.4446
23790SOL    HW189362  10.632   8.188   6.629  0.4497 -0.1073  0.2732
23790SOL    HW289363  10.718   8.085   6.559 -0.3597 -0.4250 -0.2754
23791SOL     OW89364   3.297  13.162   8.707  0.1048 -0.0154 -0.1519
23791SOL    HW189365   3.363  13.104   8.668  0.3598 -0.1478  0.4629
23791SOL    HW289366   3.233  13.175   8.637 -0.1603 -1.3491 -0.1949
23792SOL     OW89367   1.629  13.569   5.719  0.1820  0.3163 -0.6476
23792SOL    HW189368   1.636  13.623   5.797  0.0065 -1.1645  0.4363
23792SOL    HW289369   1.556  13.607   5.670  0.1956  1.1781 -0.0094
23793SOL     OW89370  10.759   9.348   4.192  0.3514 -0.4443 -0.1922
23793SOL    HW189371  10.844   9.367   4.231  0.8279  0.0463 -1.4188
23793SOL    HW289372  10.722   9.433   4.170 -0.8379 -0.6071  1.0570
23794SOL     OW89373  13.995  11.489   2.579 -0.6993  0.6495 -0.5178
23794SOL    HW189374  13.999  11.411   2.524  0.5726 -0.3012  0.8226
23794SOL    HW289375  14.015  11.561   2.520  3.5509 -0.5820 -0.9546
23795SOL     OW89376   0.317  14.127   0.756 -0.6877  0.0198  0.0830
23795SOL    HW189377   0.346  14.048   0.711  2.2970  1.4587 -0.7713
23795SOL    HW289378   0.258  14.169   0.693  0.7448  0.3194 -1.1002
23796SOL     OW89379  10.000  10.716   6.677  0.0844 -0.2751  0.2993
23796SOL    HW189380  10.014  10.781   6.746 -0.1231 -0.2740  0.3402
23796SOL    HW289381  10.088  10.687   6.654  0.1635 -0.1667  0.4592
23797SOL     OW89382   3.482   6.830   5.565  0.0527  0.3627 -0.1192
23797SOL    HW189383   3.415   6.776   5.608  0.8757  0.1659  0.9663
23797SOL    HW289384   3.495   6.903   5.625  0.2866  0.7927 -0.6869
23798SOL     OW89385  13.578   9.926  10.635  0.7957  0.1842  0.2706
23798SOL    HW189386  13.603   9.926  10.543 -1.7802 -0.7489 -0.5168
23798SOL    HW289387  13.519  10.000  10.644  0.5109 -0.1179  1.0070
23799SOL     OW89388   0.864   0.385   1.255 -0.2473  0.1244  0.2971
23799SOL    HW189389   0.869   0.370   1.160 -0.1271 -0.4063  0.3807
23799SOL    HW289390   0.838   0.476   1.264  0.4543  0.3867 -0.2430
23800SOL     OW89391  12.630   4.140   6.947  0.3301  0.3048  0.3816
23800SOL    HW189392  12.557   4.172   6.893 -0.1307 -0.6933  0.3920
23800SOL    HW289393  12.645   4.210   7.011 -1.4784  0.0082  1.1926
23801SOL     OW89394   5.524   0.670   8.884  0.3080 -0.1447  0.0296
23801SOL    HW189395   5.484   0.678   8.971 -0.7918  0.4828 -0.5021
23801SOL    HW289396   5.617   0.654   8.900  0.6686  2.8134  1.3257
23802SOL     OW89397   8.026   3.392   7.022 -0.4794 -0.4408  0.7228
23802SOL    HW189398   7.958   3.328   7.043 -1.2394  0.3047  0.5589
23802SOL    HW289399   7.989   3.476   7.047 -0.8198  0.3385 -2.0537
23803SOL     OW89400   7.529   5.119  10.543 -0.2758  0.6295  0.3340
23803SOL    HW189401   7.613   5.086  10.573 -0.1444  0.7267  0.0766
23803SOL    HW289402   7.492   5.048  10.491  0.0615  0.9227 -0.3227
23804SOL     OW89403   3.119   2.383  10.827  0.0262 -0.2203 -0.0670
23804SOL    HW189404   3.065   2.461  10.838  0.8638  0.2474  0.9489
23804SOL    HW289405   3.158   2.393  10.740 -1.0425 -0.2880 -0.5779
23805SOL     OW89406   2.761   0.304   7.768 -0.1842  0.5854 -0.9119
23805SOL    HW189407   2.814   0.351   7.704 -0.2885  1.3280 -0.4548
23805SOL    HW289408   2.769   0.212   7.742  2.1787  0.5381 -0.2297
23806SOL     OW89409  10.065   1.753  10.614 -0.0476 -0.4378  0.1527
23806SOL    HW189410  10.112   1.676  10.647 -1.1468 -0.3725  2.0425
23806SOL    HW289411  10.109   1.827  10.654 -0.9216 -0.3018  0.8937
23807SOL     OW89412   6.716  10.775   5.109  0.3626 -0.2577  0.4364
23807SOL    HW189413   6.701  10.688   5.071 -0.0792 -0.4215  0.9785
23807SOL    HW289414   6.707  10.761   5.203  1.7635  0.0833  0.6305
23808SOL     OW89415   4.851   3.076  11.560 -0.1231 -0.0532 -0.1933
23808SOL    HW189416   4.846   3.134  11.636 -0.5688 -0.9214  0.4491
23808SOL    HW289417   4.835   3.134  11.485  0.5466  0.8589  0.3308
23809SOL     OW89418  11.886  12.119   3.267  0.2204  0.8705 -0.8961
23809SOL    HW189419  11.954  12.127   3.334  1.1336  1.2309 -1.8364
23809SOL    HW289420  11.843  12.205   3.266 -0.5031  0.5343 -0.0625
23810SOL     OW89421   8.673   6.996   4.373  0.1195  0.5509 -0.2708
23810SOL    HW189422   8.667   6.962   4.463  0.6514 -3.1661 -1.4448
23810SOL    HW289423   8.756   7.045   4.372  2.4851 -3.0118  0.4220
23811SOL     OW89424   2.634   7.885   5.606  0.3728  0.2762  0.0558
23811SOL    HW189425   2.559   7.870   5.548 -0.8469 -1.0500  1.8658
23811SOL    HW289426   2.620   7.974   5.639 -0.2361  0.1651  0.1212
23812SOL     OW89427  12.824   3.149   3.240 -0.3835  0.1821  0.1805
23812SOL    HW189428  12.755   3.162   3.305 -0.9994 -0.8106 -0.2656
23812SOL    HW289429  12.885   3.087   3.282 -0.6852 -0.3152 -0.1142
23813SOL     OW89430   0.938   6.165   6.038 -0.8074  0.3620  0.1713
23813SOL    HW189431   0.953   6.184   6.131 -0.1601  1.8490 -0.1959
23813SOL    HW289432   1.020   6.193   5.996 -0.3230 -2.1014 -0.6522
23814SOL     OW89433   9.987   0.772   3.349  0.0572  0.1531  0.1157
23814SOL    HW189434   9.916   0.721   3.310  0.0281 -0.4988  0.9944
23814SOL    HW289435   9.998   0.735   3.437  1.1205  0.6033  0.1898
23815SOL     OW89436   1.409   4.404  13.221  0.1695  0.5520 -0.4818
23815SOL    HW189437   1.323   4.437  13.196 -0.7182 -0.4896  1.0147
23815SOL    HW289438   1.392   4.318  13.261  2.0187 -0.1788 -1.1137
23816SOL     OW89439   8.372   8.937   2.936  0.2105 -0.0091  0.1818
23816SOL    HW189440   8.448   8.928   2.879  1.0940  0.1425  1.3178
23816SOL    HW289441   8.393   8.884   3.012  0.4938  2.3462  1.8501
23817SOL     OW89442   4.598  13.977  13.898 -0.2275  0.2445 -0.2047
23817SOL    HW189443   4.667  13.971  13.832 -0.6501 -0.0575 -0.6269
23817SOL    HW289444   4.570  14.069  13.895 -0.1672  0.2583 -0.3576
23818SOL     OW89445   4.930   7.427  13.490  0.4139 -0.0314 -0.5597
23818SOL    HW189446   4.888   7.378  13.419 -0.0403  0.0441 -0.3421
23818SOL    HW289447   4.897   7.387  13.570  0.9743 -0.1560 -0.3852
23819SOL     OW89448   6.271  10.203  10.149  0.3241  0.0199  0.1757
23819SOL    HW189449   6.345  10.233  10.201  1.6774 -0.4115 -1.4426
23819SOL    HW289450   6.283  10.244  10.063 -2.3106  1.4315  0.3440
23820SOL     OW89451   9.891   1.714   2.169  0.1315 -0.6988 -0.2600
23820SOL    HW189452   9.822   1.723   2.235 -0.6455 -1.9428 -0.8531
23820SOL    HW289453   9.940   1.796   2.173 -0.7181 -0.2287  0.9365
23821SOL     OW89454  12.919   2.726   2.728 -0.5781 -0.2157 -0.0459
23821SOL    HW189455  12.855   2.795   2.748 -1.9950 -1.7861  1.0382
23821SOL    HW289456  12.870   2.644   2.735  1.0969 -1.3853 -1.1636
23822SOL     OW89457  12.248   2.259  10.075 -0.2490 -0.3272  0.1500
23822SOL    HW189458  12.255   2.351  10.051 -3.4479  0.5066  1.8391
23822SOL    HW289459  12.307   2.248  10.149  1.0211  0.0125 -0.7878
23823SOL     OW89460   4.014   4.640  13.381 -0.8048  0.1415 -0.1323
23823SOL    HW189461   4.050   4.651  13.293  0.4405 -0.8489  0.2210
23823SOL    HW289462   4.081   4.675  13.439 -1.3091  0.1430  0.4554
23824SOL     OW89463  11.539   6.998   5.941 -0.2792  0.7688  0.0998
23824SOL    HW189464  11.634   7.002   5.925 -0.1520  1.0375  0.8867
23824SOL    HW289465  11.510   7.089   5.933 -0.1268  1.0038  1.8071
23825SOL     OW89466   5.517  10.039   4.076 -0.1950 -0.0610 -0.6263
23825SOL    HW189467   5.424  10.061   4.067 -0.5029  0.0512  1.9195
23825SOL    HW289468   5.523   9.948   4.050 -0.6986  0.3487 -2.2954
23826SOL     OW89469  10.458  12.395   1.450  0.1711 -0.1409  0.2119
23826SOL    HW189470  10.524  12.397   1.380 -0.4177 -1.0027 -0.3865
23826SOL    HW289471  10.388  12.340   1.415 -0.5232  0.1308  1.1479
23827SOL     OW89472   0.516  11.212   9.796  0.1418 -0.6251  0.0339
23827SOL    HW189473   0.514  11.123   9.833 -1.2907 -1.1369 -1.1454
23827SOL    HW289474   0.448  11.211   9.729  0.7858  1.0806 -0.7069
23828SOL     OW89475   7.269   3.236   4.782 -0.2645  0.1817  0.3843
23828SOL    HW189476   7.247   3.327   4.804 -0.1708  0.7676 -1.7395
23828SOL    HW289477   7.351   3.219   4.828  0.0969  1.4277  0.2345
23829SOL     OW89478  10.211   4.365  13.222 -0.6238 -0.4412 -0.3043
23829SOL    HW189479  10.255   4.303  13.281 -0.9290 -0.2285  0.1507
23829SOL    HW289480  10.201   4.317  13.140  1.1412 -0.2553 -0.6812
23830SOL     OW89481   3.191   0.282   7.765  0.0938 -0.0829 -0.1170
23830SOL    HW189482   3.108   0.319   7.795 -0.1096 -1.3745  1.0273
23830SOL    HW289483   3.224   0.345   7.701 -0.7713  1.4911  0.9117
23831SOL     OW89484   9.521   3.148   2.710 -0.4320 -0.1543 -0.2953
23831SOL    HW189485   9.545   3.148   2.618  0.4802  3.1026 -0.1924
23831SOL    HW289486   9.430   3.176   2.712 -0.1758  0.7084 -0.2156
23832SOL     OW89487  11.436   1.503   4.832  0.3339 -0.2566  0.0059
23832SOL    HW189488  11.468   1.529   4.918  0.9618 -2.1393  0.3735
23832SOL    HW289489  11.356   1.454   4.849 -0.6660  1.0846 -0.6528
23833SOL     OW89490   9.254   9.332  12.770  0.2212 -0.3111 -0.2850
23833SOL    HW189491   9.218   9.280  12.841  2.0203  0.7700  1.5465
23833SOL    HW289492   9.225   9.422  12.789  0.5179 -0.0409 -1.0525
23834SOL     OW89493  12.409   4.094  13.636  0.1547  1.1180 -0.6452
23834SOL    HW189494  12.314   4.092  13.648  0.2445 -0.1693  0.0421
23834SOL    HW289495  12.421   4.103  13.541 -0.6401  1.4562 -0.7214
23835SOL     OW89496  11.337   3.282  13.831  1.0378 -0.0519 -0.5056
23835SOL    HW189497  11.360   3.283  13.738  0.2302  0.5896 -0.7178
23835SOL    HW289498  11.254   3.234  13.834  0.3723  1.0740 -0.3094
23836SOL     OW89499   1.696   8.455   4.804  0.0559  0.1697  0.5325
23836SOL    HW189500   1.756   8.456   4.730 -0.0776 -0.2720  0.4152
23836SOL    HW289501   1.623   8.510   4.776 -0.9172 -1.5288 -0.4622
23837SOL     OW89502   7.603  12.028   6.810 -0.0182  0.4566  0.4519
23837SOL    HW189503   7.577  12.044   6.901 -0.9170 -1.2813  0.5584
23837SOL    HW289504   7.678  11.969   6.817 -0.8016 -0.6300  0.1100
23838SOL     OW89505   3.034  13.000   0.158 -0.7226 -0.0247  0.6651
23838SOL    HW189506   3.019  13.032   0.246 -0.9717 -0.8819  0.9483
23838SOL    HW289507   2.956  13.027   0.109 -1.8078 -1.7355  1.3554
23839SOL     OW89508   1.800   4.023   8.779 -0.1821 -0.2054 -0.4663
23839SOL    HW189509   1.875   4.076   8.805 -0.0931 -0.5611  0.0213
23839SOL    HW289510   1.746   4.019   8.859 -2.2160  2.4974 -1.5284
23840SOL     OW89511   4.990  10.674   5.205  0.1423  0.3308 -0.3221
23840SOL    HW189512   5.069  10.657   5.154  0.3384 -0.9549  0.3804
23840SOL    HW289513   5.022  10.693   5.293 -0.2908  0.7503 -0.2491
23841SOL     OW89514   0.259   6.868  10.209 -0.0214 -0.4271  0.4594
23841SOL    HW189515   0.341   6.881  10.162  0.7696  0.8852  2.0802
23841SOL    HW289516   0.282   6.885  10.301 -2.6044  2.5076  0.7139
23842SOL     OW89517   8.238  11.165   2.769  0.0508  0.2304  0.0920
23842SOL    HW189518   8.323  11.164   2.724 -0.0762 -0.0925 -0.1459
23842SOL    HW289519   8.174  11.160   2.698 -0.1402 -1.5544  0.3311
23843SOL     OW89520  12.131   3.186  13.292 -0.1680 -0.2087 -0.8205
23843SOL    HW189521  12.202   3.161  13.352  0.1643 -2.4067 -2.0343
23843SOL    HW289522  12.072   3.239  13.346  0.2883 -1.8162  1.3739
23844SOL     OW89523  10.456   3.243  12.465  0.1899 -0.0787 -0.1468
23844SOL    HW189524  10.458   3.283  12.377 -1.4870 -0.8549 -0.5851
23844SOL    HW289525  10.370   3.266  12.499 -0.5081 -2.5277 -0.0650
23845SOL     OW89526   8.585  12.245   1.519 -0.0898 -0.3944 -0.6923
23845SOL    HW189527   8.514  12.183   1.534 -0.0997 -0.3562 -0.5858
23845SOL    HW289528   8.541  12.328   1.503 -0.0765 -0.4157 -0.8391
23846SOL     OW89529  13.042  13.883  10.811 -0.0785 -0.1079 -0.2700
23846SOL    HW189530  13.046  13.978  10.821  1.2445 -0.1750  0.0884
23846SOL    HW289531  13.130  13.853  10.834 -0.2016 -1.3402 -1.2763
23847SOL     OW89532   4.903  12.237   1.432 -0.4907  0.9516 -0.4812
23847SOL    HW189533   4.929  12.322   1.467  0.7607  0.6557 -0.6418
23847SOL    HW289534   4.918  12.175   1.503 -0.4331  0.7273 -0.6830
23848SOL     OW89535   9.694   5.088   2.274 -0.1244  0.4057 -0.0034
23848SOL    HW189536   9.669   5.045   2.193  1.7630  0.6000 -0.7256
23848SOL    HW289537   9.655   5.176   2.267 -1.4081 -0.1278  0.1134
23849SOL     OW89538  12.944   3.739  11.505  0.5119  0.1604 -0.1686
23849SOL    HW189539  12.908   3.709  11.422  0.9359  0.6467 -0.5347
23849SOL    HW289540  13.032   3.769  11.484  1.0499 -0.7962  0.6792
23850SOL     OW89541  10.963   8.427   0.041  0.1051  0.2520  0.4466
23850SOL    HW189542  10.985   8.374   0.118  0.8086  0.4751  0.4062
23850SOL    HW289543  11.032   8.406  -0.023 -0.5131  0.0095 -0.1592
23851SOL     OW89544   8.828   4.157   8.044  0.6496 -0.0864 -0.1639
23851SOL    HW189545   8.800   4.102   8.118 -2.5957  0.0147 -1.1549
23851SOL    HW289546   8.805   4.246   8.070  1.3265  0.1967 -0.5137
23852SOL     OW89547   9.358   8.377   2.189  0.5593 -0.0846  0.1491
23852SOL    HW189548   9.299   8.409   2.121  2.2384  0.0887 -1.2741
23852SOL    HW289549   9.434   8.344   2.142  0.2918 -3.3960  1.6868
23853SOL     OW89550   8.019   4.960  13.783  0.0057  0.3828 -0.1583
23853SOL    HW189551   8.019   4.886  13.844 -1.2672 -0.0834 -0.7071
23853SOL    HW289552   8.007   4.920  13.697  0.6078  1.1360 -0.6060
23854SOL     OW89553   1.981   1.196   0.557  0.0993  0.0582  0.3874
23854SOL    HW189554   2.032   1.276   0.567 -0.9413  0.5201  2.5445
23854SOL    HW289555   1.956   1.172   0.646  0.6424 -2.8788 -0.1250
23855SOL     OW89556   0.411   6.810   0.881 -0.1800  0.4689  0.2662
23855SOL    HW189557   0.471   6.823   0.955  1.4289 -0.4671 -0.8054
23855SOL    HW289558   0.324   6.814   0.919  0.5080  2.5157  1.8103
23856SOL     OW89559   3.953  13.350   5.718  0.0726 -0.2636 -0.0369
23856SOL    HW189560   3.873  13.325   5.672  0.7423  0.3907 -1.6664
23856SOL    HW289561   3.998  13.409   5.656  1.9099 -0.7918  0.7250
23857SOL     OW89562   9.534   2.367  13.575 -0.6135  0.6705 -0.1277
23857SOL    HW189563   9.484   2.370  13.493 -0.3212  0.5677 -0.3110
23857SOL    HW289564   9.476   2.406  13.640 -0.9622  0.4808 -0.3235
23858SOL     OW89565   5.812   5.903  11.954  0.5087 -0.1283  0.4382
23858SOL    HW189566   5.717   5.892  11.950  0.4476  0.7494 -1.6858
23858SOL    HW289567   5.825   5.972  12.019 -0.3332  0.0004  0.4771
23859SOL     OW89568   2.096  12.110   0.733  0.1383  0.3898 -0.0742
23859SOL    HW189569   2.042  12.162   0.673  0.2302 -0.0258 -0.5248
23859SOL    HW289570   2.138  12.045   0.677 -2.4413 -2.2923  0.8020
23860SOL     OW89571   3.272   8.870   8.476  0.2224 -0.2388  0.4441
23860SOL    HW189572   3.205   8.898   8.414 -0.7244 -0.0303  1.5150
23860SOL    HW289573   3.285   8.947   8.532  1.6983 -0.1279 -0.0131
23861SOL     OW89574   7.436  13.893  11.540  0.5362  0.1136  0.1028
23861SOL    HW189575   7.499  13.963  11.525 -0.1220  0.5380 -0.7863
23861SOL    HW289576   7.377  13.928  11.607 -0.6394  1.0334 -1.3289
23862SOL     OW89577  12.431   4.533   6.947 -0.1958 -0.3237 -0.0709
23862SOL    HW189578  12.437   4.564   6.857  2.9430 -0.4597 -0.0163
23862SOL    HW289579  12.518   4.499   6.967 -1.1663 -1.5727  2.5971
23863SOL     OW89580  10.686  11.304   9.601 -0.3660  0.0620  0.5062
23863SOL    HW189581  10.630  11.381   9.604  1.3983  1.5756 -1.7947
23863SOL    HW289582  10.770  11.337   9.569 -0.2943 -3.1511 -3.3218
23864SOL     OW89583   8.903   6.543   1.593 -0.1848  0.7777 -0.2137
23864SOL    HW189584   8.857   6.608   1.539 -0.2644  0.4602 -0.5265
23864SOL    HW289585   8.945   6.595   1.661 -1.1624  1.0703  0.1934
23865SOL     OW89586   1.817  11.641  10.363  0.5267 -0.0242 -0.2043
23865SOL    HW189587   1.723  11.644  10.380  0.7086  3.3702  0.9484
23865SOL    HW289588   1.857  11.647  10.450  1.7754  0.5517 -0.8060
23866SOL     OW89589   1.170  10.929   5.304 -0.6696 -0.2570 -0.2485
23866SOL    HW189590   1.114  10.889   5.371 -1.7532  1.2148 -0.2393
23866SOL    HW289591   1.215  11.000   5.350 -1.0444  0.4456 -0.9516
23867SOL     OW89592   4.114   1.271   1.330 -0.0481  0.6658 -0.2356
23867SOL    HW189593   4.166   1.306   1.402  0.0810  1.5729 -0.7579
23867SOL    HW289594   4.178   1.239   1.266 -0.1567 -1.2844  0.5590
23868SOL     OW89595  13.281   0.632   3.408 -0.2977 -0.1731  0.2159
23868SOL    HW189596  13.374   0.642   3.388  0.0302  0.5638  1.9244
23868SOL    HW289597  13.248   0.574   3.339  1.9423 -2.3911  0.8628
23869SOL     OW89598  10.787   5.574   7.923  0.5061  0.0583 -0.0020
23869SOL    HW189599  10.785   5.571   7.827 -1.4549  0.6931 -0.0286
23869SOL    HW289600  10.697   5.594   7.948  0.8994 -0.4521  2.0051
23870SOL     OW89601   2.375   7.788   0.035 -0.3358 -0.3047 -0.1948
23870SOL    HW189602   2.351   7.880   0.026  1.6712  0.0752 -3.0981
23870SOL    HW289603   2.310   7.741  -0.016  1.1258  0.0736 -2.5727
23871SOL     OW89604   1.991   0.129  11.673 -0.2491  0.3845 -0.2233
23871SOL    HW189605   2.025   0.044  11.700 -1.1840 -0.3176 -1.1849
23871SOL    HW289606   1.904   0.134  11.712 -0.1702  0.9292 -0.1098
23872SOL     OW89607  11.929   8.645   1.470 -0.0082 -0.4952  0.2711
23872SOL    HW189608  11.877   8.721   1.444  0.9585  0.0001 -0.2754
23872SOL    HW289609  11.868   8.571   1.463 -1.0353  0.2383  1.0493
23873SOL     OW89610   0.195   1.321   9.713  0.0652  0.3786  0.0682
23873SOL    HW189611   0.274   1.335   9.662  1.0530 -1.8192  0.8803
23873SOL    HW289612   0.223   1.267   9.787 -2.0418  0.2452  0.8435
23874SOL     OW89613  10.780   3.687   9.410  0.1529 -0.1320  0.5508
23874SOL    HW189614  10.742   3.601   9.429 -1.7389  0.7093  0.8467
23874SOL    HW289615  10.738   3.714   9.328  1.1087  0.3131  0.1916
23875SOL     OW89616  13.269   7.938   8.678  0.2586 -0.2372  0.4424
23875SOL    HW189617  13.348   7.987   8.701 -0.4586  0.1092  2.3474
23875SOL    HW289618  13.292   7.846   8.694  0.6674 -0.2593 -0.2478
23876SOL     OW89619   1.875   9.419   5.303 -0.3578  0.2768  0.2686
23876SOL    HW189620   1.945   9.396   5.364 -0.0769  0.1278 -0.1056
23876SOL    HW289621   1.850   9.508   5.327  0.7885  0.7809 -0.3621
23877SOL     OW89622   9.259   0.693   5.362 -0.1141 -0.6763 -0.1501
23877SOL    HW189623   9.287   0.635   5.291  0.2521 -1.0994  0.3307
23877SOL    HW289624   9.195   0.751   5.322 -1.6941 -2.4259 -0.3022
23878SOL     OW89625   0.549   7.954  12.658  0.0298  0.0779  0.1713
23878SOL    HW189626   0.576   8.037  12.697 -3.2897  0.3601  2.2710
23878SOL    HW289627   0.562   7.889  12.727 -2.3073 -0.1284  0.4849
23879SOL     OW89628   0.111   7.312  11.044  0.2372  0.3526  0.0042
23879SOL    HW189629   0.153   7.370  10.980  0.3995 -0.1992 -0.3942
23879SOL    HW289630   0.169   7.237  11.049 -0.5017 -0.2444 -0.2571
23880SOL     OW89631   6.539   4.291   1.881 -0.0706 -0.1201 -0.1712
23880SOL    HW189632   6.506   4.334   1.960 -1.9460  0.4180 -1.2039
23880SOL    HW289633   6.632   4.274   1.900 -0.4378  0.1181  2.0736
23881SOL     OW89634   6.414  12.475   2.041  0.1363 -0.2041 -0.3253
23881SOL    HW189635   6.377  12.559   2.067  0.4174 -0.3852  0.6862
23881SOL    HW289636   6.338  12.421   2.018 -0.0665  0.1888 -0.5867
23882SOL     OW89637  11.979   3.021   5.435 -0.1682  0.1148  0.0348
23882SOL    HW189638  11.938   2.949   5.388  0.2999 -1.0327  1.3426
23882SOL    HW289639  11.923   3.097   5.415 -0.7785 -0.6265 -1.1907
23883SOL     OW89640  11.629   2.685   1.316  0.5510 -0.2710 -0.3093
23883SOL    HW189641  11.573   2.738   1.372 -0.2869 -0.6626 -0.7550
23883SOL    HW289642  11.658   2.614   1.373  1.2837  0.3902  0.1538
23884SOL     OW89643   4.179   9.666  11.697  0.1515 -0.1585 -0.3543
23884SOL    HW189644   4.214   9.692  11.612  0.7531 -2.1627 -0.7676
23884SOL    HW289645   4.253   9.675  11.757  0.0449  0.1617 -0.2701
23885SOL     OW89646   1.304   3.698   9.358  0.3923 -0.3541 -0.4368
23885SOL    HW189647   1.356   3.755   9.414 -0.5892  0.6916 -0.5622
23885SOL    HW289648   1.324   3.609   9.389  0.1571  0.1765  1.3453
23886SOL     OW89649   1.318   1.450   7.240 -0.1000  0.7586 -0.4536
23886SOL    HW189650   1.257   1.488   7.177  0.3805  1.1825 -0.6692
23886SOL    HW289651   1.274   1.458   7.325 -0.9372 -0.1977 -0.7756
23887SOL     OW89652  13.236  11.788  11.218  0.2702 -0.0006  0.3844
23887SOL    HW189653  13.306  11.743  11.171 -0.8425 -0.2002 -1.1489
23887SOL    HW289654  13.275  11.812  11.302  1.9424 -0.7426 -0.1435
23888SOL     OW89655   5.793  11.179   0.001 -0.4528  0.0747  0.0013
23888SOL    HW189656   5.741  11.253   0.032  1.8921  1.2553  1.4178
23888SOL    HW289657   5.777  11.109   0.064  0.4878  0.8272  1.1247
23889SOL     OW89658   0.179   8.481   9.430 -0.2674 -0.0900 -0.2498
23889SOL    HW189659   0.173   8.402   9.377 -0.2652  0.0667 -0.4896
23889SOL    HW289660   0.236   8.458   9.503  2.0020  0.4685 -1.7377
23890SOL     OW89661   1.985  11.492   1.852 -0.2519 -0.4414  0.5956
23890SOL    HW189662   2.011  11.405   1.822  0.1469  0.2533 -1.2444
23890SOL    HW289663   2.061  11.547   1.834 -0.2325  0.1798  2.4149
23891SOL     OW89664  11.362   4.347  10.323  0.8400  0.5634 -0.2810
23891SOL    HW189665  11.386   4.294  10.399  0.9090  1.6733  0.4898
23891SOL    HW289666  11.315   4.287  10.266 -1.1967  0.2128  1.6413
23892SOL     OW89667   3.067   8.126  12.441 -0.3538  0.5669  0.2090
23892SOL    HW189668   3.019   8.198  12.401  0.2314  1.1108  0.4568
23892SOL    HW289669   3.062   8.055  12.378 -0.6499  0.9424 -0.1928
23893SOL     OW89670   5.461   8.861   5.123 -0.1196 -0.1167 -0.2326
23893SOL    HW189671   5.479   8.955   5.130  0.3933 -0.0698 -1.6853
23893SOL    HW289672   5.378   8.849   5.169 -0.1888  1.0489 -0.0045
23894SOL     OW89673   5.917   9.125   2.803 -0.3268  0.7993 -0.5462
23894SOL    HW189674   5.873   9.205   2.830  1.0329  0.8459  1.8144
23894SOL    HW289675   5.931   9.076   2.884  1.9214 -0.2329 -1.4588
23895SOL     OW89676  13.988  10.299   4.332 -0.7849 -0.0255 -0.0657
23895SOL    HW189677  13.998  10.346   4.250 -2.3283  1.7927  0.7141
23895SOL    HW289678  13.893  10.284   4.340 -0.5548 -1.1782  0.8467
23896SOL     OW89679   7.586   9.775  11.678 -0.0367 -0.1584  0.0321
23896SOL    HW189680   7.654   9.841  11.667  1.7672 -1.7997  0.5947
23896SOL    HW289681   7.537   9.776  11.596  1.0212  0.7318 -0.6085
23897SOL     OW89682   7.255   9.354   3.677  0.0292  0.0911 -0.6586
23897SOL    HW189683   7.348   9.330   3.679 -0.0127 -0.1146 -1.0746
23897SOL    HW289684   7.227   9.348   3.768  0.1386 -0.9689 -0.6793
23898SOL     OW89685  11.541   2.918   2.810 -0.2737  0.6663 -0.0022
23898SOL    HW189686  11.565   2.851   2.746  1.4365  0.2804  0.9961
23898SOL    HW289687  11.482   2.976   2.762 -3.0550 -2.2906 -0.4907
23899SOL     OW89688   0.739   2.123   7.736  0.1879  0.3702  0.4695
23899SOL    HW189689   0.706   2.202   7.779  0.8386  0.4960  0.7608
23899SOL    HW289690   0.829   2.146   7.711  0.9559 -0.7904  2.0003
23900SOL     OW89691  10.227  10.400   2.941 -0.6287 -0.0534 -0.4626
23900SOL    HW189692  10.304  10.350   2.968 -0.2880  1.0535  0.6895
23900SOL    HW289693  10.262  10.476   2.896 -1.0725  0.1185 -0.5211
23901SOL     OW89694   0.271  11.735   1.945 -0.2032 -0.2704  0.6757
23901SOL    HW189695   0.201  11.670   1.940 -0.9967  0.5723  0.4131
23901SOL    HW289696   0.250  11.799   1.877 -0.0142  0.7872  1.5685
23902SOL     OW89697   8.965   0.637   8.020 -0.3490  0.2779  0.4001
23902SOL    HW189698   8.944   0.551   8.058 -0.0496 -0.6986 -1.5415
23902SOL    HW289699   9.052   0.657   8.055 -0.2614 -0.3896  0.5901
23903SOL     OW89700   2.768   2.783  11.771 -0.3117  0.4450  0.4428
23903SOL    HW189701   2.767   2.760  11.864 -1.9466  0.4306  0.4537
23903SOL    HW289702   2.836   2.728  11.733  0.5361  0.6167  1.6643
23904SOL     OW89703   1.784   4.041  12.070  0.2650 -0.0546  0.7668
23904SOL    HW189704   1.703   4.003  12.035  1.2085  0.7430 -2.6224
23904SOL    HW289705   1.827   3.968  12.115 -1.2120 -1.0987  0.5558
23905SOL     OW89706   8.526   2.961   2.458 -0.4687 -0.1413 -0.0192
23905SOL    HW189707   8.579   2.915   2.393 -0.5778 -2.9235  1.6854
23905SOL    HW289708   8.553   3.052   2.451  2.3285 -0.9646 -1.2982
23906SOL     OW89709   9.290   9.199   8.178  0.1277 -0.4603 -0.0066
23906SOL    HW189710   9.214   9.232   8.228  0.1533 -1.6231  0.8527
23906SOL    HW289711   9.297   9.258   8.103 -0.2767  1.0061  1.0601
23907SOL     OW89712   7.621  10.727   5.879  0.2672  0.0770  0.3346
23907SOL    HW189713   7.528  10.722   5.858  0.3306  1.2576 -0.3331
23907SOL    HW289714   7.631  10.813   5.921  0.9193 -0.3868  1.1486
23908SOL     OW89715  13.784   6.831   2.225  0.2188  0.7157  0.7739
23908SOL    HW189716  13.800   6.881   2.305 -0.2368 -1.0126  2.0184
23908SOL    HW289717  13.693   6.852   2.201 -0.0181  0.4046  1.3724
23909SOL     OW89718   0.755   9.028   8.615 -0.2866  0.0301  0.2090
23909SOL    HW189719   0.662   9.051   8.614 -0.0717  0.9602  0.1853
23909SOL    HW289720   0.764   8.961   8.547 -0.6807  1.0705 -0.9138
23910SOL     OW89721   0.326   7.893   6.143  0.7046  0.4930 -0.2219
23910SOL    HW189722   0.392   7.843   6.095  0.7105  1.2151 -0.9828
23910SOL    HW289723   0.349   7.985   6.129 -0.4101  0.7614 -0.4364
23911SOL     OW89724   9.636   8.615  10.743 -0.7165 -0.1571 -0.1119
23911SOL    HW189725   9.644   8.587  10.651 -0.6336 -0.1952 -0.0927
23911SOL    HW289726   9.700   8.562  10.790  0.3701  0.9661 -0.2658
23912SOL     OW89727   4.889   9.686   8.251 -0.4242 -0.1981 -0.0605
23912SOL    HW189728   4.839   9.669   8.171 -0.3490 -0.3635 -0.0736
23912SOL    HW289729   4.887   9.781   8.260 -4.1854 -0.2760  2.1111
23913SOL     OW89730   7.574   2.151  13.354 -0.2457  0.1750 -0.0538
23913SOL    HW189731   7.624   2.131  13.276  0.1698 -0.1117  0.2826
23913SOL    HW289732   7.609   2.093  13.421 -1.1950 -0.2121  0.1285
23914SOL     OW89733  10.597   5.063   5.048 -0.4612 -0.0152 -0.5051
23914SOL    HW189734  10.664   5.075   4.980 -0.2997 -0.6079 -0.4566
23914SOL    HW289735  10.569   4.972   5.037  0.7490 -0.6543  1.2871
23915SOL     OW89736   8.338   3.180   8.008 -0.2043  0.2867  0.4115
23915SOL    HW189737   8.312   3.272   8.020 -1.0132  0.0357  0.6264
23915SOL    HW289738   8.341   3.169   7.913  1.4822  0.9640  0.3517
23916SOL     OW89739   3.046   6.815  10.997 -0.1067  0.1500  0.1839
23916SOL    HW189740   3.026   6.724  11.020 -1.2926  0.4040  0.2216
23916SOL    HW289741   3.118   6.839  11.055  0.4386 -0.8568 -0.0476
23917SOL     OW89742  10.607   5.117  11.572 -0.0392 -0.1815  0.3627
23917SOL    HW189743  10.543   5.124  11.502  0.7645 -1.4794 -0.5570
23917SOL    HW289744  10.684   5.163  11.539 -0.1310  0.4558  1.0142
23918SOL     OW89745   5.140   6.046   8.337  0.4658 -0.6293 -1.4132
23918SOL    HW189746   5.083   5.971   8.321 -1.9933  0.8098 -0.1098
23918SOL    HW289747   5.154   6.085   8.251 -2.7892  0.4250 -1.5937
23919SOL     OW89748   3.254  12.680   3.546 -0.2187 -0.3139 -0.2822
23919SOL    HW189749   3.281  12.767   3.517  0.0877 -0.2090  0.2992
23919SOL    HW289750   3.163  12.673   3.519  0.3697 -0.6862 -2.3344
23920SOL     OW89751   5.590   1.122   0.802  0.7299 -0.0256 -0.0412
23920SOL    HW189752   5.668   1.134   0.856  0.5861 -2.1953  0.7730
23920SOL    HW289753   5.621   1.134   0.712  1.6396  0.6596  0.3479
23921SOL     OW89754   4.839   4.306   5.675 -0.0951 -0.0103 -0.5330
23921SOL    HW189755   4.895   4.232   5.699  0.1156  0.5246  0.7193
23921SOL    HW289756   4.816   4.290   5.584  0.8731 -1.0281 -0.6265
23922SOL     OW89757   9.117  13.854   5.613  0.0614  0.3596  0.4131
23922SOL    HW189758   9.194  13.797   5.619  0.2710  0.4742 -0.9167
23922SOL    HW289759   9.095  13.873   5.704  0.2189 -1.5166  0.8944
23923SOL     OW89760   2.306   2.966   9.133 -0.0784  0.9771 -1.0472
23923SOL    HW189761   2.323   3.017   9.212 -0.6083  1.3762 -1.1896
23923SOL    HW289762   2.392   2.955   9.092  0.1741  0.9130 -0.5078
23924SOL     OW89763   6.095   4.404   2.065 -0.5230  0.2014 -0.1241
23924SOL    HW189764   6.139   4.486   2.040  1.4058 -0.4681  0.8503
23924SOL    HW289765   6.049   4.426   2.146 -0.4896  0.4675 -0.1751
23925SOL     OW89766   4.433   1.245   3.322 -0.4850  0.2778  0.3992
23925SOL    HW189767   4.519   1.227   3.283 -0.7078 -1.5600  0.6635
23925SOL    HW289768   4.453   1.279   3.409  0.0132 -1.2091  0.9008
23926SOL     OW89769   3.530   8.970   2.310 -0.2499 -0.5077  0.1222
23926SOL    HW189770   3.622   8.944   2.314 -0.0404  0.3352  1.0745
23926SOL    HW289771   3.509   8.968   2.217  0.6558 -0.9410 -0.0879
23927SOL     OW89772   7.962   0.196   9.516 -0.1036 -0.2351  0.5781
23927SOL    HW189773   7.931   0.253   9.445  0.3911 -1.1110 -0.3626
23927SOL    HW289774   7.925   0.110   9.495 -0.0427 -0.4797  1.4575
23928SOL     OW89775  11.238   0.189   9.703  0.4697 -0.3139  0.3539
23928SOL    HW189776  11.280   0.103   9.709 -0.7879 -0.8788  1.8960
23928SOL    HW289777  11.144   0.170   9.707  0.1323  1.0650 -0.5711
23929SOL     OW89778   4.136  12.350   5.950 -0.3487  0.0828 -0.1727
23929SOL    HW189779   4.095  12.415   5.893  0.8238  0.8552 -0.1852
23929SOL    HW289780   4.195  12.402   6.005  1.3051 -1.0677 -0.7974
23930SOL     OW89781  12.133   2.956   2.622 -0.1877  0.1340  0.3819
23930SOL    HW189782  12.096   3.022   2.563  2.5437  1.2250 -0.2764
23930SOL    HW289783  12.185   2.899   2.565 -1.7243 -2.0933  1.0903
23931SOL     OW89784   7.851   1.702  12.321  0.2054  0.4651 -0.3387
23931SOL    HW189785   7.863   1.722  12.414 -0.7031  2.7025 -0.6223
23931SOL    HW289786   7.918   1.637  12.301  0.0415 -0.5282  1.9922
23932SOL     OW89787  10.412   5.527   9.952  0.0091  0.3488 -0.8073
23932SOL    HW189788  10.415   5.616   9.987 -1.0916 -0.8359  2.7185
23932SOL    HW289789  10.489   5.484   9.990 -1.4225 -1.1115  0.5686
23933SOL     OW89790   5.456   8.133   8.970  0.1489  0.4034 -0.5954
23933SOL    HW189791   5.374   8.083   8.968 -0.1885  0.9464 -0.4780
23933SOL    HW289792   5.444   8.202   8.904  0.8722 -0.0613 -1.2357
23934SOL     OW89793  13.545   6.347   6.945  0.2717 -0.2887 -0.3862
23934SOL    HW189794  13.621   6.395   6.977  1.5218 -1.2360 -1.8166
23934SOL    HW289795  13.522   6.289   7.018  1.6698 -0.8299 -0.3448
23935SOL     OW89796  13.918  10.324   2.746  0.5341  0.1007 -0.0540
23935SOL    HW189797  13.983  10.358   2.685  1.1309  1.3281  1.2084
23935SOL    HW289798  13.967  10.268   2.805  0.5185  1.1948  1.0312
23936SOL     OW89799  11.475  12.477  12.178  0.0062 -0.0793  0.6407
23936SOL    HW189800  11.417  12.519  12.115  0.0051 -1.3199 -0.2202
23936SOL    HW289801  11.424  12.474  12.259 -0.1053  1.2581  0.6425
23937SOL     OW89802   0.553  10.392  13.094  0.4910 -0.1644  0.1567
23937SOL    HW189803   0.600  10.355  13.019 -0.7660  1.0664 -1.2835
23937SOL    HW289804   0.495  10.322  13.123  0.1803 -0.2824 -0.7325
23938SOL     OW89805   7.902  13.901   1.848 -0.2587  0.1490  0.1397
23938SOL    HW189806   7.969  13.964   1.874 -1.0635  0.8574  0.5255
23938SOL    HW289807   7.835  13.908   1.916 -0.4430 -0.9963  0.0878
23939SOL     OW89808   3.930  10.741   2.857  0.0728 -0.0315 -0.0306
23939SOL    HW189809   3.974  10.821   2.828 -1.2699  1.0943  0.8629
23939SOL    HW289810   3.855  10.733   2.799 -0.0124 -0.4207  0.1305
23940SOL     OW89811  10.304  10.328   4.754  0.1116 -0.1086 -0.1797
23940SOL    HW189812  10.268  10.298   4.671 -1.0597  1.9152 -0.4726
23940SOL    HW289813  10.280  10.420   4.759  2.7244  0.6200  1.0495
23941SOL     OW89814  13.879   9.768  11.064 -0.1009  0.0138 -0.2669
23941SOL    HW189815  13.808   9.773  11.001 -1.3085 -1.3632  0.9028
23941SOL    HW289816  13.865   9.843  11.122  0.5595  0.8407 -1.1599
23942SOL     OW89817   2.738   7.839   7.771 -0.2353 -0.1951  0.1899
23942SOL    HW189818   2.808   7.855   7.834 -0.1208 -0.4141  0.1203
23942SOL    HW289819   2.658   7.839   7.823 -0.4801  2.4729 -0.0395
23943SOL     OW89820  10.809   5.312  13.536 -0.1276  0.5470 -0.6381
23943SOL    HW189821  10.797   5.218  13.525  0.4044  0.1986  1.4748
23943SOL    HW289822  10.828   5.324  13.629  1.3618  2.5810 -1.1263
23944SOL     OW89823   9.813   6.830   1.469  0.4321  0.4087  0.1760
23944SOL    HW189824   9.833   6.817   1.562  0.5454 -1.4046 -0.0759
23944SOL    HW289825   9.739   6.891   1.469 -0.9014 -1.1314  1.5615
23945SOL     OW89826   6.734   7.947   2.166  0.0505 -0.2333 -0.4550
23945SOL    HW189827   6.777   7.957   2.081 -0.4838 -0.3476 -0.7389
23945SOL    HW289828   6.807   7.943   2.229  0.5106 -1.5675 -1.0416
23946SOL     OW89829  12.511   1.798   5.858 -0.3061  0.2001  0.1704
23946SOL    HW189830  12.494   1.870   5.797  0.5113  0.5997  0.3987
23946SOL    HW289831  12.436   1.739   5.847 -0.3255  0.4191 -0.9956
23947SOL     OW89832   0.062   4.111  10.434  0.0176  0.1315 -0.2957
23947SOL    HW189833   0.040   4.022  10.410 -0.7724  0.2979 -0.2215
23947SOL    HW289834  -0.008   4.138  10.494 -1.5252  1.8575 -2.7025
23948SOL     OW89835   7.241   6.370   7.014 -0.3065  0.1741  0.0382
23948SOL    HW189836   7.301   6.341   7.083  0.2010  0.3085 -0.3429
23948SOL    HW289837   7.275   6.332   6.934 -1.0320 -0.1748 -0.1148
23949SOL     OW89838  10.721  10.224   8.739  0.1852 -0.0720  0.3692
23949SOL    HW189839  10.813  10.214   8.715 -0.4306 -1.3733 -1.6222
23949SOL    HW289840  10.694  10.136   8.767 -1.0719 -0.3415 -1.5277
23950SOL     OW89841   8.676   1.137   3.080 -0.2892  0.1963  0.3609
23950SOL    HW189842   8.618   1.066   3.106 -0.6699  1.2289  2.5354
23950SOL    HW289843   8.753   1.127   3.135  0.1652  0.7852 -0.1464
23951SOL     OW89844   8.101   9.729   1.890 -0.2574 -0.0635  0.3028
23951SOL    HW189845   8.112   9.781   1.811  1.5533 -0.0432  0.5172
23951SOL    HW289846   8.076   9.642   1.859  0.6967 -0.1248 -0.3264
23952SOL     OW89847   3.711  10.219   3.375 -0.3625 -0.5975  0.6297
23952SOL    HW189848   3.652  10.271   3.320 -0.2469 -0.6667  0.4421
23952SOL    HW289849   3.795  10.266   3.371 -0.4614 -0.3729  1.0770
23953SOL     OW89850   7.096  11.418   2.250  0.1877  0.5885  0.2929
23953SOL    HW189851   7.159  11.355   2.285 -0.2959  0.6766  1.3520
23953SOL    HW289852   7.030  11.363   2.207 -0.1309  0.3770  1.0466
23954SOL     OW89853   5.621   8.531   0.080  0.0291  0.3261 -0.3782
23954SOL    HW189854   5.619   8.579   0.163 -1.5144 -0.8597  0.3351
23954SOL    HW289855   5.536   8.486   0.077 -0.0764  0.5966 -2.7727
23955SOL     OW89856   3.280   6.297   2.968 -0.2193 -0.1130  0.1463
23955SOL    HW189857   3.240   6.291   2.881 -0.7453  0.4805  0.3389
23955SOL    HW289858   3.213   6.264   3.027  0.5017 -1.4830  0.2588
23956SOL     OW89859   5.850  10.611   1.409  0.0137 -0.8751 -0.2604
23956SOL    HW189860   5.854  10.704   1.428  1.4774 -0.7606 -0.9870
23956SOL    HW289861   5.760  10.596   1.380 -0.6891 -0.0245  1.3676
23957SOL     OW89862   5.202   3.274  12.453 -0.2883  0.3188 -0.0841
23957SOL    HW189863   5.135   3.328  12.411 -0.2820 -0.9338 -1.8097
23957SOL    HW289864   5.256   3.242  12.381  0.7374 -0.6105  1.0509
23958SOL     OW89865  11.419   4.951   8.531  0.2279 -0.5241 -0.4465
23958SOL    HW189866  11.511   4.964   8.554 -0.0337  0.0552  0.3188
23958SOL    HW289867  11.390   5.036   8.499 -0.0749 -0.6733 -0.5734
23959SOL     OW89868  10.427  12.643  12.592  0.0440  0.3333  0.3106
23959SOL    HW189869  10.458  12.594  12.516  0.6574  0.6750  0.3319
23959SOL    HW289870  10.409  12.576  12.658 -2.4954 -0.1653 -0.7771
23960SOL     OW89871   1.775  13.217   1.193  0.0071  0.3824 -0.5415
23960SOL    HW189872   1.694  13.268   1.197 -0.2418 -0.0298 -0.1250
23960SOL    HW289873   1.774  13.177   1.106 -1.1088 -0.9904  0.0555
23961SOL     OW89874   4.525   9.426   9.178 -0.4024  0.2130  0.4686
23961SOL    HW189875   4.499   9.498   9.236  1.7372  1.0061  0.5125
23961SOL    HW289876   4.619   9.418   9.190 -0.3405 -1.5118 -0.8045
23962SOL     OW89877   8.070   5.370   0.609 -0.4796 -0.2625  0.1956
23962SOL    HW189878   7.996   5.334   0.657 -1.2028  0.8653 -0.0443
23962SOL    HW289879   8.137   5.385   0.676 -1.3680  1.0164  0.8530
23963SOL     OW89880  13.903  11.666   1.567  0.3541  0.1484  0.5147
23963SOL    HW189881  13.975  11.617   1.606  1.2931  0.5403 -0.6523
23963SOL    HW289882  13.939  11.754   1.552  0.6442 -0.3663 -2.6197
23964SOL     OW89883  12.344  10.925  11.597 -0.8630  0.3394 -0.9179
23964SOL    HW189884  12.362  10.992  11.531 -1.4902 -0.4225 -1.8859
23964SOL    HW289885  12.377  10.844  11.559 -0.0933  0.0820  0.2511
23965SOL     OW89886  11.927   8.113   2.733  0.6493 -0.0961  0.0074
23965SOL    HW189887  11.933   8.195   2.684  1.2438  2.0452  3.3438
23965SOL    HW289888  12.017   8.081   2.739  0.9220  0.8375  1.4203
23966SOL     OW89889   0.051   7.098   4.345 -0.1399  0.3047  0.2629
23966SOL    HW189890   0.000   7.174   4.373 -0.6596  0.2718 -0.5814
23966SOL    HW289891   0.002   7.022   4.378 -0.8000  0.2627 -0.8054
23967SOL     OW89892  10.587   4.871  10.484  0.2877  0.3680  0.1551
23967SOL    HW189893  10.502   4.831  10.506  0.7271  0.4017  2.0928
23967SOL    HW289894  10.607   4.837  10.397 -1.3929 -0.1838 -0.0561
23968SOL     OW89895   5.959   1.937   4.897  0.3953 -0.0792  0.0870
23968SOL    HW189896   5.881   1.947   4.951 -1.0097  0.9840 -1.9844
23968SOL    HW289897   5.970   1.842   4.889  0.1563 -0.2532  1.4978
23969SOL     OW89898  13.997   9.998   2.798 -0.2731 -0.6741 -0.3192
23969SOL    HW189899  14.009  10.031   2.887 -0.9843  1.7474 -1.0264
23969SOL    HW289900  13.927   9.933   2.806 -0.3977 -0.4272  0.8752
23970SOL     OW89901   0.689  10.245   5.178  0.7992 -0.2319 -0.4378
23970SOL    HW189902   0.681  10.298   5.099  1.8747 -0.1666 -0.5248
23970SOL    HW289903   0.778  10.209   5.173  0.9554 -0.0616  0.8413
23971SOL     OW89904   9.689   3.330  13.567  0.2655  0.5288 -0.2792
23971SOL    HW189905   9.734   3.415  13.570 -0.1330  0.7483 -0.5570
23971SOL    HW289906   9.615   3.340  13.627  0.1201  0.4343 -0.4439
23972SOL     OW89907   0.223   3.586   9.040  0.5065 -0.4301  0.3566
23972SOL    HW189908   0.307   3.548   9.013  1.8552  1.5446  1.5008
23972SOL    HW289909   0.214   3.560   9.132  0.1490 -0.1574  0.4006
23973SOL     OW89910   8.971   6.167  13.760 -0.9828  0.3703  0.4277
23973SOL    HW189911   8.943   6.255  13.788 -1.1781  0.3675  0.2435
23973SOL    HW289912   8.935   6.109  13.828 -2.3242  0.2616 -0.3407
23974SOL     OW89913   6.129  12.872  10.118 -0.1177 -0.3761 -0.1076
23974SOL    HW189914   6.139  12.967  10.124 -1.0087 -0.2651 -0.2105
23974SOL    HW289915   6.042  12.855  10.154  0.3814 -1.2473  0.7205
23975SOL     OW89916  10.241   8.522   7.820 -0.0968  0.4211 -0.1337
23975SOL    HW189917  10.146   8.509   7.818  0.2465 -3.2859  0.9365
23975SOL    HW289918  10.257   8.566   7.904 -0.6565 -3.0411  1.9533
23976SOL     OW89919   8.548  12.936   5.284 -0.0918  0.6386  0.3063
23976SOL    HW189920   8.457  12.951   5.258 -0.6246 -1.6079  0.6619
23976SOL    HW289921   8.595  12.926   5.202  0.1281  2.9342  0.0756
23977SOL     OW89922  12.748   5.236   8.112 -0.1700  0.0954  0.6749
23977SOL    HW189923  12.722   5.259   8.023  1.1632  0.0865  0.2614
23977SOL    HW289924  12.825   5.180   8.101 -0.0808 -0.0328  1.8247
23978SOL     OW89925   5.230   1.898   2.906  0.3976 -0.6454  0.2441
23978SOL    HW189926   5.180   1.979   2.895  2.5979  1.2747  2.7346
23978SOL    HW289927   5.164   1.829   2.915 -1.5756  0.9059 -1.3978
23979SOL     OW89928   6.100  11.601   7.651  0.2932 -0.2580  0.2169
23979SOL    HW189929   6.039  11.565   7.715 -2.5599  1.0287 -1.5519
23979SOL    HW289930   6.136  11.678   7.693 -2.8345  1.5644 -0.1279
23980SOL     OW89931   9.205   9.969   2.886  0.1817 -0.0052 -0.2055
23980SOL    HW189932   9.235   9.928   2.805 -0.2847  1.3433 -1.1005
23980SOL    HW289933   9.115   9.997   2.867  1.0448  3.0785 -0.3676
23981SOL     OW89934   8.687   6.410   0.246  0.2960 -0.0252 -0.1476
23981SOL    HW189935   8.662   6.490   0.292 -0.6019 -0.4084  0.0616
23981SOL    HW289936   8.680   6.432   0.153  0.3111  0.2170 -0.0914
23982SOL     OW89937   4.561   4.998   4.975  0.0566  0.3391 -0.0337
23982SOL    HW189938   4.469   4.969   4.975 -0.0478  0.6468 -0.9406
23982SOL    HW289939   4.609   4.922   4.942  0.4843 -0.7788  2.8484
23983SOL     OW89940  11.313   4.821  11.187 -0.2308  0.8062 -0.0816
23983SOL    HW189941  11.380   4.798  11.123 -0.4590 -1.8750  0.5152
23983SOL    HW289942  11.230   4.797  11.145 -0.6466  1.8887  0.0839
23984SOL     OW89943   0.713  10.277   7.804 -0.4267  0.1434  0.2195
23984SOL    HW189944   0.637  10.231   7.767 -0.9734 -0.4795  2.0521
23984SOL    HW289945   0.680  10.316   7.885  1.1530  0.1398  0.8828
23985SOL     OW89946  10.434   6.198   1.689  0.2557  0.0636 -0.0940
23985SOL    HW189947  10.433   6.134   1.618  2.2056 -1.6504  1.3341
23985SOL    HW289948  10.479   6.274   1.651 -0.4383 -0.0664 -1.2453
23986SOL     OW89949   2.938   9.205   9.316 -0.1210  0.3845 -0.5581
23986SOL    HW189950   2.882   9.145   9.267 -0.9196  1.1088 -0.5571
23986SOL    HW289951   3.000   9.148   9.362 -0.6548 -0.4177 -0.8106
23987SOL     OW89952  12.169   2.892   7.265  0.1537 -0.8670 -0.0700
23987SOL    HW189953  12.149   2.872   7.174  0.7905 -0.6980 -0.2500
23987SOL    HW289954  12.256   2.855   7.280  0.2088 -0.5795  0.3600
23988SOL     OW89955   4.039   8.592   2.420  0.2726  0.2733  0.3012
23988SOL    HW189956   4.047   8.500   2.443 -0.6268  0.0676 -0.1649
23988SOL    HW289957   4.052   8.639   2.502 -3.7899 -0.4458  1.5953
23989SOL     OW89958  11.134   7.481   5.487  0.0742 -0.1163  0.0377
23989SOL    HW189959  11.221   7.500   5.454 -0.5141 -1.9497 -2.9366
23989SOL    HW289960  11.087   7.565   5.482  1.1390  0.4816 -0.1075
23990SOL     OW89961   9.041  10.403  13.731 -0.3257  0.3208  0.4468
23990SOL    HW189962   8.976  10.455  13.685 -0.6108 -0.7574 -0.4127
23990SOL    HW289963   9.005  10.314  13.730  0.5748 -0.0624  1.0618
23991SOL     OW89964   2.439  12.531  12.133 -0.5469 -0.0798 -0.8285
23991SOL    HW189965   2.371  12.596  12.117  0.3305  1.0503 -0.1846
23991SOL    HW289966   2.439  12.519  12.228  1.7476  1.8624 -0.4699
23992SOL     OW89967   3.705   4.491   6.188 -0.3092 -0.7892  0.1209
23992SOL    HW189968   3.617   4.458   6.171  0.4000 -2.0411 -1.5241
23992SOL    HW289969   3.753   4.472   6.107  0.9508  1.7466  0.1808
23993SOL     OW89970   8.559   5.984   6.638  0.0940 -0.5926 -0.1757
23993SOL    HW189971   8.518   6.040   6.703 -0.9715 -0.1267 -1.2105
23993SOL    HW289972   8.637   6.032   6.610  0.6964 -0.9067  0.8974
23994SOL     OW89973   9.210  10.032   0.716 -0.0411 -0.3520 -0.2126
23994SOL    HW189974   9.127   9.985   0.714 -0.6984  0.8029 -0.5960
23994SOL    HW289975   9.188  10.118   0.751  0.7667  0.3838 -1.4508
23995SOL     OW89976   9.109   1.773   9.100  0.1834 -0.3341  0.3397
23995SOL    HW189977   9.109   1.767   9.196  0.0292 -1.4057  0.2823
23995SOL    HW289978   9.108   1.682   9.070  0.5263 -0.0142 -0.6854
23996SOL     OW89979  13.688   4.295   8.330  0.1559  0.0045 -0.1727
23996SOL    HW189980  13.715   4.381   8.360  0.6514 -0.0044 -0.5825
23996SOL    HW289981  13.750   4.234   8.371 -0.0764 -0.1413 -0.0323
23997SOL     OW89982   1.420   3.006   1.412  0.4069 -0.0455  0.4680
23997SOL    HW189983   1.353   2.983   1.348  1.1250  1.2046 -0.7866
23997SOL    HW289984   1.502   3.005   1.363  1.1692 -0.3805  1.6942
23998SOL     OW89985  10.099   2.540   2.649 -0.5647 -0.4097 -0.3598
23998SOL    HW189986  10.129   2.618   2.695 -0.3369  0.4195 -1.8265
23998SOL    HW289987  10.084   2.570   2.559  0.2183 -2.2005 -1.1528
23999SOL     OW89988  13.320   9.499   8.139 -0.2229 -0.2115  0.1278
23999SOL    HW189989  13.399   9.447   8.122 -0.3793 -0.9620  1.5323
23999SOL    HW289990  13.269   9.445   8.199 -1.4898  0.5769 -0.2063
24000SOL     OW89991   6.624   8.779   7.481 -0.4689  0.3841 -0.0600
24000SOL    HW189992   6.623   8.739   7.568 -1.7523  0.0007 -0.2336
24000SOL    HW289993   6.703   8.744   7.439 -1.6306 -2.1673 -0.2824
24001SOL     OW89994   6.734   9.733   7.381 -0.1396  0.3622 -0.0430
24001SOL    HW189995   6.676   9.807   7.397 -2.0695 -1.1943  0.5825
24001SOL    HW289996   6.701   9.693   7.301  1.3913  0.6181 -0.8353
24002SOL     OW89997   9.990   4.984   2.481  0.0900  0.7986 -0.2842
24002SOL    HW189998  10.045   4.982   2.402  0.2324  0.6803 -0.1805
24002SOL    HW289999  10.038   5.039   2.543  0.7923 -0.4808  0.3273
24003SOL     OW90000   1.088  11.886  13.898  0.2369 -0.1529  1.0709
24003SOL    HW190001   1.131  11.860  13.816 -2.1142  0.6010 -0.5041
24003SOL    HW290002   1.080  11.981  13.891 -0.6715 -0.1632  1.8268
24004SOL     OW90003  11.020  11.106   9.618 -0.4507  0.2488 -0.6231
24004SOL    HW190004  10.960  11.139   9.551 -0.6835  0.1922 -0.4465
24004SOL    HW290005  11.102  11.152   9.603 -0.6452  0.5843 -0.6500
24005SOL     OW90006   0.469   7.502   0.978  0.0218 -0.4033  0.3960
24005SOL    HW190007   0.433   7.491   0.890 -1.4914 -0.7803  1.0144
24005SOL    HW290008   0.514   7.419   0.996 -0.6789 -0.8011  0.3900
24006SOL     OW90009   8.708   9.090  13.840  0.0830 -0.3813 -0.4880
24006SOL    HW190010   8.664   9.063  13.759 -1.0787 -0.0297  0.0015
24006SOL    HW290011   8.681   9.024  13.904 -0.8054  0.5533  0.1291
24007SOL     OW90012  11.003   8.961   4.614 -0.3210  0.1048  0.0144
24007SOL    HW190013  11.079   8.929   4.663 -0.4450 -0.0757  0.0934
24007SOL    HW290014  10.998   8.903   4.538 -1.2592 -0.8580  0.7721
24008SOL     OW90015   2.437   5.051   9.632 -0.0701  0.3060 -0.1453
24008SOL    HW190016   2.490   5.112   9.581  1.0441 -1.3719 -1.1025
24008SOL    HW290017   2.491   5.029   9.708 -0.8060  1.0908  0.6305
24009SOL     OW90018  13.722  12.884  12.848  0.3488  0.4669 -0.3882
24009SOL    HW190019  13.671  12.841  12.780  0.8310  0.2656 -0.6305
24009SOL    HW290020  13.681  12.857  12.930  0.3802 -0.1018 -0.5567
24010SOL     OW90021  13.735  13.711   9.768 -0.4545 -0.5945  0.0767
24010SOL    HW190022  13.816  13.692   9.815 -0.6457  0.1044  0.7218
24010SOL    HW290023  13.667  13.711   9.836 -0.4528  2.4176  0.2398
24011SOL     OW90024  11.100   6.756   3.656 -0.1979 -0.7839 -0.5161
24011SOL    HW190025  11.171   6.818   3.674 -0.8214  0.0773 -0.9444
24011SOL    HW290026  11.033   6.777   3.721  0.7081 -2.9361  1.2119
24012SOL     OW90027   9.779   7.479   1.551  0.4760 -0.3095 -0.0119
24012SOL    HW190028   9.732   7.537   1.491  1.0620 -1.3823 -1.5741
24012SOL    HW290029   9.713   7.453   1.615 -0.4551  0.0621 -0.7829
24013SOL     OW90030  13.757   6.651   3.858 -0.0816  0.4308 -0.2378
24013SOL    HW190031  13.738   6.739   3.825  2.4350  0.5262 -1.6336
24013SOL    HW290032  13.832   6.663   3.916  1.0057 -0.9126 -1.3288
24014SOL     OW90033  13.420   9.642  11.016 -0.1489  0.1531 -0.0230
24014SOL    HW190034  13.491   9.582  11.036  0.9753  1.9182  1.7029
24014SOL    HW290035  13.427   9.657  10.922  0.5442 -1.1447 -0.2039
24015SOL     OW90036  12.372  13.611  11.429 -0.0445 -0.4526 -0.4834
24015SOL    HW190037  12.442  13.617  11.364  0.0464  0.2519 -0.3332
24015SOL    HW290038  12.324  13.693  11.419  0.7185  0.2398  1.1727
24016SOL     OW90039   0.767  11.399   2.481 -0.2764 -0.3714 -0.0454
24016SOL    HW190040   0.693  11.449   2.446  0.4353 -0.0244 -1.1121
24016SOL    HW290041   0.796  11.450   2.557  0.1508  0.6109 -0.8465
24017SOL     OW90042   6.630   3.088   3.777  0.6784  0.3597  0.5914
24017SOL    HW190043   6.617   2.994   3.765  0.2101  0.4619  0.2552
24017SOL    HW290044   6.542   3.123   3.792  0.9418  0.6354  1.5612
24018SOL     OW90045   5.566   6.663   9.107 -0.1082 -0.1227  0.1691
24018SOL    HW190046   5.553   6.589   9.166 -0.3074 -0.8076 -0.6993
24018SOL    HW290047   5.661   6.673   9.101 -0.0301  2.0087  3.0357
24019SOL     OW90048   8.772   4.768   4.844 -0.0733  0.2987  0.0185
24019SOL    HW190049   8.822   4.844   4.813 -0.2347  0.5413  0.3410
24019SOL    HW290050   8.683   4.802   4.858 -0.3981 -0.1857 -0.8006
24020SOL     OW90051   9.706   9.692   2.873 -0.7729 -0.2425 -0.4674
24020SOL    HW190052   9.612   9.707   2.869 -0.9251 -1.2950 -2.9264
24020SOL    HW290053   9.743   9.776   2.901 -2.4649 -0.1316  1.6419
24021SOL     OW90054  13.258   2.200  10.584  0.7341 -0.0508  0.4492
24021SOL    HW190055  13.210   2.277  10.614 -0.0752 -0.1621 -0.5020
24021SOL    HW290056  13.197   2.155  10.526  1.9347 -0.2902 -0.6772
24022SOL     OW90057   8.965   3.914   7.684  0.1371 -0.3041  0.0318
24022SOL    HW190058   9.051   3.878   7.663 -0.0245 -0.1410 -0.9548
24022SOL    HW290059   8.917   3.912   7.602 -0.4751  0.5197  0.3515
24023SOL     OW90060  12.528   4.682   7.655 -0.2358  0.3633 -0.0056
24023SOL    HW190061  12.467   4.757   7.655 -1.0746 -0.2978  0.2205
24023SOL    HW290062  12.528   4.652   7.564  1.2568  1.5189 -0.4305
24024SOL     OW90063   6.761   3.965  10.321  0.0899  0.2076  0.0533
24024SOL    HW190064   6.819   3.987  10.395 -0.6032 -0.9928  0.9940
24024SOL    HW290065   6.804   3.891  10.279 -1.9782 -2.5978  2.4435
24025SOL     OW90066  10.437  12.955   8.816 -0.3095 -0.1881 -0.2162
24025SOL    HW190067  10.439  13.028   8.878  0.8466 -1.0406  0.8050
24025SOL    HW290068  10.468  12.879   8.867 -1.9628 -1.5163 -1.1044
24026SOL     OW90069   7.904  10.604   3.506 -0.1190  0.7196 -0.1573
24026SOL    HW190070   7.924  10.541   3.575  0.1029  1.1416  0.1618
24026SOL    HW290071   7.808  10.603   3.500 -0.1425  0.7834  0.2437
24027SOL     OW90072  12.688  13.699  12.634 -0.0096 -0.1575 -0.3428
24027SOL    HW190073  12.651  13.756  12.702  1.9096 -0.5813  1.1521
24027SOL    HW290074  12.735  13.758  12.575  1.6660 -0.0696  0.9956
24028SOL     OW90075   8.062   3.949   3.607  0.4032 -0.1813  0.0275
24028SOL    HW190076   7.982   3.969   3.559  0.2310  2.8887  1.3666
24028SOL    HW290077   8.043   3.867   3.653  0.6625 -3.4756 -4.9454
24029SOL     OW90078   2.724   5.279  10.040 -0.1293  0.2399 -0.1240
24029SOL    HW190079   2.666   5.234  10.102  0.4423 -1.9176 -1.0374
24029SOL    HW290080   2.734   5.367  10.075  0.1100 -0.8555  2.8062
24030SOL     OW90081   7.407  11.213   0.349 -0.6250  0.0082 -0.3822
24030SOL    HW190082   7.358  11.138   0.317  1.2395 -1.2927 -0.3457
24030SOL    HW290083   7.424  11.266   0.271 -1.6472  0.2272 -0.4641
24031SOL     OW90084  12.124   2.089  13.331  0.7165  0.6007 -0.4755
24031SOL    HW190085  12.176   2.093  13.412 -0.9796 -0.2501  0.7120
24031SOL    HW290086  12.052   2.150  13.346  0.6407  0.7958 -1.5602
24032SOL     OW90087  10.535   9.402   4.896  0.7791  0.4740  0.1935
24032SOL    HW190088  10.603   9.426   4.833  0.6820  1.4330  0.4504
24032SOL    HW290089  10.551   9.309   4.914  2.4737  0.8481  0.8012
24033SOL     OW90090   1.699   4.878   0.469  0.2831 -0.3398 -0.5599
24033SOL    HW190091   1.715   4.803   0.411 -1.5148 -1.6656  0.5559
24033SOL    HW290092   1.672   4.949   0.410 -0.0855 -1.2222 -1.4822
24034SOL     OW90093   3.660  10.353  13.588  0.6061  0.2607 -0.1083
24034SOL    HW190094   3.720  10.299  13.536  0.0095  0.4695 -1.0362
24034SOL    HW290095   3.615  10.291  13.645 -0.1956 -0.2668 -1.2873
24035SOL     OW90096  12.800   4.365   8.491 -0.4485  0.5097 -0.2806
24035SOL    HW190097  12.710   4.358   8.523  0.7639 -1.8755  3.2816
24035SOL    HW290098  12.851   4.387   8.569  2.3856 -1.2888 -1.4596
24036SOL     OW90099  12.775   0.615   8.665  0.2352  0.8132 -0.0356
24036SOL    HW190100  12.784   0.654   8.751 -2.6028 -1.3809  1.4229
24036SOL    HW290101  12.734   0.683   8.611  0.6280  1.6960  0.7600
24037SOL     OW90102   9.438   0.924   1.554 -0.0659 -0.1298 -0.3276
24037SOL    HW190103   9.474   0.963   1.475  1.0470 -0.3369  0.0567
24037SOL    HW290104   9.372   0.986   1.584 -0.0597  0.2472 -1.0863
24038SOL     OW90105   9.267   8.927  11.083  0.1651 -0.1201  0.2801
24038SOL    HW190106   9.200   8.922  11.152  0.4102  0.3537  0.5563
24038SOL    HW290107   9.345   8.887  11.122  0.2415 -0.0487  0.2015
24039SOL     OW90108   3.039   7.451   0.980  0.6207  0.2539  0.0915
24039SOL    HW190109   2.969   7.496   1.027 -0.6938  2.0451 -3.2570
24039SOL    HW290110   3.092   7.521   0.944  0.7714 -0.9246 -2.1029
24040SOL     OW90111  12.590   5.905   3.159 -0.0402 -0.3156 -0.3639
24040SOL    HW190112  12.502   5.879   3.134 -0.4478  0.4118  0.2983
24040SOL    HW290113  12.588   6.000   3.158  0.9753 -0.2790 -1.1538
24041SOL     OW90114  12.040   3.178   7.917 -0.1145 -0.0219  0.5361
24041SOL    HW190115  12.099   3.230   7.971 -1.5701  0.6899  1.5244
24041SOL    HW290116  12.010   3.239   7.849  1.2315 -0.7418 -0.7714
24042SOL     OW90117  12.682   1.531   5.458 -0.4467  0.3027 -0.2232
24042SOL    HW190118  12.733   1.588   5.401  0.6106  0.1838  0.5685
24042SOL    HW290119  12.731   1.449   5.460  0.4918  0.8413  2.1614
24043SOL     OW90120  12.964   7.817  13.643  0.0209 -0.0442  0.0731
24043SOL    HW190121  12.958   7.850  13.732 -0.3459  1.3888 -0.4561
24043SOL    HW290122  13.058   7.810  13.626  0.1095 -1.6368  1.0018
24044SOL     OW90123  13.599   0.453   1.793  0.1655 -0.3214  0.4516
24044SOL    HW190124  13.599   0.431   1.700  2.7808  0.2962  0.2179
24044SOL    HW290125  13.584   0.548   1.795 -0.1643 -0.3795  0.6766
24045SOL     OW90126   0.123   6.164   4.710 -0.0905 -0.5562 -0.7154
24045SOL    HW190127   0.164   6.116   4.782 -0.1575  0.2282 -0.1527
24045SOL    HW290128   0.192   6.170   4.643 -0.1175 -1.5368 -0.8502
24046SOL     OW90129  13.832   6.727   9.491 -0.5039  0.2656  0.1557
24046SOL    HW190130  13.742   6.739   9.463 -0.9224  1.3110  1.8412
24046SOL    HW290131  13.877   6.808   9.463 -0.4169  0.3454  0.5169
24047SOL     OW90132  10.236  10.009  13.275  0.3822  0.1806 -0.2040
24047SOL    HW190133  10.185  10.066  13.332 -0.5901 -0.4350 -0.4333
24047SOL    HW290134  10.228  10.050  13.188 -1.5496 -1.0376 -0.6603
24048SOL     OW90135   0.470   8.907  13.526 -0.6520 -0.0632  0.6191
24048SOL    HW190136   0.556   8.931  13.492 -1.7134  1.7596 -0.9802
24048SOL    HW290137   0.425   8.866  13.452 -0.9577 -1.6521  1.6366
24049SOL     OW90138   7.390  11.455   8.254 -0.6623 -0.5349  0.0144
24049SOL    HW190139   7.422  11.434   8.166 -2.0855  0.8444 -0.9096
24049SOL    HW290140   7.349  11.374   8.285  0.3845 -1.2133 -0.3321
24050SOL     OW90141   9.432  10.308   9.772  0.2354  0.3079 -0.1554
24050SOL    HW190142   9.394  10.220   9.781  0.0485  0.1550 -2.0881
24050SOL    HW290143   9.436  10.341   9.862 -2.1167 -0.6650  0.3875
24051SOL     OW90144   9.084  10.831   4.632 -0.3912 -0.1351  0.3514
24051SOL    HW190145   8.991  10.807   4.631  0.1785 -2.6091 -1.2680
24051SOL    HW290146   9.091  10.901   4.566 -0.8863 -0.9995 -0.6439
24052SOL     OW90147   4.441  12.001   3.787 -0.5304 -0.0333 -0.0594
24052SOL    HW190148   4.515  11.947   3.759 -1.2043 -1.0758  0.0958
24052SOL    HW290149   4.364  11.947   3.769 -1.1056 -0.0408  2.1186
24053SOL     OW90150   0.937   2.318   0.179 -0.4812 -0.2115 -0.3017
24053SOL    HW190151   1.015   2.286   0.134 -0.0409  0.3649  0.0416
24053SOL    HW290152   0.879   2.242   0.184  0.7389 -1.1215  0.9296
24054SOL     OW90153   3.086  11.600   5.876 -0.3122  0.0700  0.0398
24054SOL    HW190154   3.097  11.596   5.781  1.3515 -0.7368  0.2208
24054SOL    HW290155   3.131  11.522   5.909 -2.4146 -0.6755  1.4055
24055SOL     OW90156  13.648   5.773   1.134 -0.0462 -0.4782  0.0306
24055SOL    HW190157  13.643   5.869   1.126 -0.8973 -0.3104  1.9258
24055SOL    HW290158  13.741   5.755   1.149  0.3614 -0.1327 -1.8533
24056SOL     OW90159  13.870  10.234   8.998  1.2099 -0.0936  0.0363
24056SOL    HW190160  13.888  10.211   9.089 -1.0172 -2.2610  0.0311
24056SOL    HW290161  13.834  10.154   8.959  3.4132  0.3044 -3.2033
24057SOL     OW90162   0.615   9.200  10.140  0.6827  0.0833  0.2165
24057SOL    HW190163   0.560   9.222  10.066  0.5028 -0.5275  0.1650
24057SOL    HW290164   0.589   9.262  10.209  1.3365  1.1104 -0.4340
24058SOL     OW90165  12.263   1.920   4.421 -0.1183 -0.3225 -0.1458
24058SOL    HW190166  12.206   1.849   4.453  1.7485 -1.2844  1.2393
24058SOL    HW290167  12.284   1.895   4.331 -1.3120 -0.3041 -0.4442
24059SOL     OW90168   2.260   0.271   5.691 -0.3567  0.2845 -0.8170
24059SOL    HW190169   2.295   0.243   5.607 -1.7895  1.6745 -1.9488
24059SOL    HW290170   2.199   0.202   5.717 -0.4755  0.2035 -1.3109
24060SOL     OW90171   3.848   4.193  12.222  0.4969  0.5543 -0.2172
24060SOL    HW190172   3.837   4.286  12.244  0.6108  0.5431 -0.1135
24060SOL    HW290173   3.774   4.174  12.163 -0.8321  0.1343  1.4977
24061SOL     OW90174   2.494  11.358   4.311 -0.6860  0.2399  0.1848
24061SOL    HW190175   2.526  11.292   4.372  1.3289  0.6897 -0.3319
24061SOL    HW290176   2.458  11.307   4.238  0.6141 -0.3158 -0.0878
24062SOL     OW90177   3.400   6.423   2.263 -0.0440 -0.1510  0.0592
24062SOL    HW190178   3.409   6.367   2.185  1.1490 -0.9726  0.7495
24062SOL    HW290179   3.339   6.376   2.319 -0.4900  0.1780 -0.1462
24063SOL     OW90180  12.132  10.108   4.495 -0.2285 -0.7591  0.3313
24063SOL    HW190181  12.157  10.156   4.573 -0.1918  1.0907 -0.7756
24063SOL    HW290182  12.073  10.167   4.448  1.1452 -1.0813 -1.9210
24064SOL     OW90183   4.879   1.722   0.179 -0.3209 -0.2480 -1.2101
24064SOL    HW190184   4.911   1.812   0.188 -0.7655  0.0318 -2.3027
24064SOL    HW290185   4.951   1.675   0.137 -0.6948 -0.0031 -2.1529
24065SOL     OW90186   0.286  14.017  11.495 -0.1684  0.6356 -0.0974
24065SOL    HW190187   0.342  13.950  11.456 -1.1704 -1.9373  2.5568
24065SOL    HW290188   0.215  14.028  11.431 -0.1738 -1.1466 -0.4534
24066SOL     OW90189   6.580   5.909  10.559  0.3174 -0.1799 -0.2232
24066SOL    HW190190   6.573   5.814  10.556 -0.7757 -0.1182 -0.3751
24066SOL    HW290191   6.513   5.939  10.497  1.5374  0.6777 -1.1765
24067SOL     OW90192  12.187   6.124   0.666  0.1944  0.6805 -0.1250
24067SOL    HW190193  12.265   6.180   0.662 -0.2545  1.2686 -1.0182
24067SOL    HW290194  12.115   6.185   0.683 -0.3676  0.4636 -1.5478
24068SOL     OW90195   2.031   9.941  10.062 -0.3879  0.0993  0.4513
24068SOL    HW190196   2.024  10.020  10.008  2.8119  0.2507  0.0964
24068SOL    HW290197   2.085   9.967  10.137 -0.3822 -1.4343  1.0241
24069SOL     OW90198   1.902  10.468  11.604  0.0864 -0.7750  0.2983
24069SOL    HW190199   1.866  10.444  11.519  0.2713  0.4501 -0.1481
24069SOL    HW290200   1.864  10.554  11.624  0.8181 -0.5876  0.9726
24070SOL     OW90201  11.602  11.498  11.341 -0.2038 -0.1363 -0.2116
24070SOL    HW190202  11.583  11.409  11.369 -0.9620  0.1847  0.3454
24070SOL    HW290203  11.622  11.490  11.247 -2.5691 -0.6292 -0.7518
24071SOL     OW90204  11.933  13.795   0.267  0.3589  0.1000  0.1226
24071SOL    HW190205  11.974  13.754   0.344 -1.3300 -1.0474  0.4550
24071SOL    HW290206  11.990  13.869   0.248 -0.0883  1.5531  3.5942
24072SOL     OW90207   7.830   4.507  10.090 -0.1047  0.5178 -1.5129
24072SOL    HW190208   7.857   4.596  10.066 -2.3400  0.9574 -2.6270
24072SOL    HW290209   7.746   4.518  10.133 -0.9168 -1.1180 -2.6078
24073SOL     OW90210   6.308   7.419   0.139 -0.5037  0.4463 -0.2225
24073SOL    HW190211   6.389   7.373   0.116 -2.0450 -2.3549 -0.5896
24073SOL    HW290212   6.332   7.511   0.144  2.5472 -0.2223 -0.9044
24074SOL     OW90213   2.088   0.358  13.212 -0.1391  0.0586 -0.2844
24074SOL    HW190214   2.086   0.268  13.178  0.2985 -0.4808  1.0352
24074SOL    HW290215   2.178   0.369  13.244 -0.1667  1.0044 -0.5028
24075SOL     OW90216  12.077  14.078   4.930  0.1465  0.5567 -0.2848
24075SOL    HW190217  12.162  14.069   4.887 -0.1798 -1.3558 -0.6095
24075SOL    HW290218  12.014  14.085   4.859 -0.1486 -0.0702 -0.0929
24076SOL     OW90219  12.531   4.633  13.127 -0.0390 -0.3668  0.5186
24076SOL    HW190220  12.524   4.624  13.031 -0.2482 -2.3881  0.6729
24076SOL    HW290221  12.442   4.653  13.155 -0.0573 -0.1762  0.3336
24077SOL     OW90222   8.281  11.561  13.628 -0.1869 -0.1255 -0.7791
24077SOL    HW190223   8.214  11.531  13.567 -1.7887 -0.6062  1.1014
24077SOL    HW290224   8.232  11.593  13.704  1.6997  0.0185  0.4661
24078SOL     OW90225   8.490   9.508  12.110  0.8020 -0.2445  0.3933
24078SOL    HW190226   8.580   9.497  12.143  0.1438 -1.8149  1.8074
24078SOL    HW290227   8.435   9.503  12.188 -0.6621 -1.5822 -0.6530
24079SOL     OW90228   5.423   0.922   4.351  0.5707 -0.5132  0.6470
24079SOL    HW190229   5.417   0.920   4.447 -1.2381 -2.3113  0.5444
24079SOL    HW290230   5.497   0.864   4.331  0.1805 -1.1058  0.9092
24080SOL     OW90231   4.613  10.885   3.184 -0.3333  0.4806  0.0418
24080SOL    HW190232   4.621  10.795   3.215 -2.0050 -0.0588 -1.0183
24080SOL    HW290233   4.685  10.931   3.228 -0.0181 -1.1473  1.3311
24081SOL     OW90234   5.427  12.526   1.720  0.4674 -0.1556  0.0734
24081SOL    HW190235   5.514  12.522   1.760 -0.0078  0.0937  1.1652
24081SOL    HW290236   5.411  12.437   1.690  0.7169 -0.4293  0.7274
24082SOL     OW90237   1.797  12.957   2.138 -0.3313  0.1119  0.2350
24082SOL    HW190238   1.720  12.904   2.161  0.6762 -1.3437  0.4110
24082SOL    HW290239   1.847  12.902   2.079 -0.3931  1.8537 -1.5264
24083SOL     OW90240   9.538   4.115   2.604  0.3455 -0.3037 -0.4211
24083SOL    HW190241   9.541   4.024   2.635  1.2391  0.0227  0.5026
24083SOL    HW290242   9.617   4.126   2.552  1.1728  0.4258  0.9345
24084SOL     OW90243   7.648   7.395   1.113 -0.3925  0.6352  0.1958
24084SOL    HW190244   7.741   7.408   1.129 -0.2919 -0.7094  0.8174
24084SOL    HW290245   7.605   7.467   1.159  0.3534  1.5231 -0.4775
24085SOL     OW90246   2.058  11.749  11.740  0.5634 -0.0604 -0.0011
24085SOL    HW190247   2.143  11.780  11.773  0.5663  1.4667 -1.3240
24085SOL    HW290248   1.994  11.805  11.785  0.2296 -1.1232  0.8964
24086SOL     OW90249  13.789   5.477   0.488  0.0882 -0.3408 -0.0544
24086SOL    HW190250  13.701   5.474   0.526  0.0830 -2.2678 -0.1033
24086SOL    HW290251  13.774   5.474   0.394  0.1907 -0.4874 -0.0667
24087SOL     OW90252   7.557   1.160   4.046 -0.5921  0.0727  1.0512
24087SOL    HW190253   7.568   1.239   4.100  1.3429  1.0977 -0.7226
24087SOL    HW290254   7.488   1.183   3.983  1.0662  1.0243 -0.4991
24088SOL     OW90255   4.796   4.395  10.862  0.8629  0.7392  0.3026
24088SOL    HW190256   4.749   4.312  10.876 -0.6573  1.6727  1.0076
24088SOL    HW290257   4.820   4.393  10.770  0.5943 -0.3684  0.2323
24089SOL     OW90258   8.512   5.622   4.500 -0.0471  0.0891  0.2609
24089SOL    HW190259   8.603   5.616   4.528  0.1012  3.6185  0.9957
24089SOL    HW290260   8.513   5.684   4.427 -1.7032 -1.1678 -0.9232
24090SOL     OW90261   0.937   1.292   8.659 -0.4397 -0.3250 -0.0787
24090SOL    HW190262   0.913   1.208   8.697 -1.8308 -0.5376 -1.3230
24090SOL    HW290263   0.901   1.290   8.570  0.6110  1.0849 -0.5875
24091SOL     OW90264  10.482  13.630   2.794  0.1379  0.3917  0.3478
24091SOL    HW190265  10.501  13.687   2.869  1.6194 -0.1633  0.4372
24091SOL    HW290266  10.488  13.688   2.718 -1.2199  0.9261  0.6297
24092SOL     OW90267   9.568  11.508   5.398  0.8230  0.0019 -0.8243
24092SOL    HW190268   9.575  11.414   5.387 -0.4070 -0.0716 -1.1419
24092SOL    HW290269   9.617  11.527   5.478 -0.8440 -1.2308  0.5577
24093SOL     OW90270   9.463  10.353  10.099  0.4710  0.2470  0.0334
24093SOL    HW190271   9.413  10.422  10.056 -0.0849 -0.5277 -0.5980
24093SOL    HW290272   9.396  10.292  10.133  0.8045  1.4290  3.1475
24094SOL     OW90273   0.821   9.195   8.158 -0.0630 -0.7079 -0.0239
24094SOL    HW190274   0.890   9.257   8.134 -0.2627  0.1072  1.4161
24094SOL    HW290275   0.797   9.153   8.075 -0.1236  1.3411 -1.1087
24095SOL     OW90276  11.142   5.442  10.603  0.3228  0.3611  0.3650
24095SOL    HW190277  11.151   5.392  10.522 -1.3653 -1.4790  1.2121
24095SOL    HW290278  11.049   5.468  10.604  0.0431 -0.5436  2.1344
24096SOL     OW90279  13.150  13.870   5.006  0.4796  0.0941 -0.1931
24096SOL    HW190280  13.068  13.892   4.962 -0.2568 -0.8204  0.6847
24096SOL    HW290281  13.176  13.786   4.969 -0.1920 -0.7228  1.1431
24097SOL     OW90282  13.278  10.709   4.583  0.1086  0.2451 -0.2181
24097SOL    HW190283  13.205  10.682   4.638  0.7357  1.0132  1.0366
24097SOL    HW290284  13.252  10.684   4.494 -1.8716  0.9108  0.1286
24098SOL     OW90285  12.238   1.603   0.614  0.2161  0.3971  0.1589
24098SOL    HW190286  12.302   1.652   0.665  0.8271 -0.0649 -0.1500
24098SOL    HW290287  12.209   1.534   0.673  0.7606 -0.0043 -0.0330
24099SOL     OW90288   3.948   9.967   3.823 -0.1108 -0.0666 -0.4490
24099SOL    HW190289   3.902   9.902   3.876 -0.8340  0.3301 -0.5709
24099SOL    HW290290   3.947  10.046   3.877  0.4997 -0.0771 -0.4244
24100SOL     OW90291   4.468  13.094   8.815 -0.6785  0.2548 -0.7189
24100SOL    HW190292   4.539  13.129   8.868 -0.1597 -0.1668 -1.1226
24100SOL    HW290293   4.394  13.088   8.875  0.2388 -1.4329  0.3354
24101SOL     OW90294   0.876   8.537   8.611  0.3685  0.1634  0.1128
24101SOL    HW190295   0.856   8.453   8.651  1.1214 -0.4355 -0.7318
24101SOL    HW290296   0.970   8.548   8.623  0.5635  0.0963 -1.2225
24102SOL     OW90297   1.011  10.062   7.937 -0.3285  0.0078 -0.6603
24102SOL    HW190298   0.921  10.064   7.969  0.0333 -0.1447  0.4170
24102SOL    HW290299   1.060  10.015   8.005  0.8953  1.6681 -0.3155
24103SOL     OW90300  10.509   2.943   9.236 -0.1418 -0.1847  0.0272
24103SOL    HW190301  10.601   2.963   9.254  0.1029 -0.6822 -0.6323
24103SOL    HW290302  10.492   2.861   9.281 -0.5922  0.4583  1.0780
24104SOL     OW90303  12.127   1.661   9.652  0.4979  0.5374  0.4870
24104SOL    HW190304  12.058   1.667   9.718  1.1497  2.0206  1.0906
24104SOL    HW290305  12.140   1.568   9.639 -1.9795  0.2080 -0.0546
24105SOL     OW90306   4.582   7.254  10.602 -0.0385  0.1925 -0.0543
24105SOL    HW190307   4.541   7.270  10.687 -0.9781 -1.5785 -0.1392
24105SOL    HW290308   4.632   7.174  10.613 -0.8899 -0.5719 -1.3820
24106SOL     OW90309   2.440   1.477   7.517  0.3409  0.2647  0.1078
24106SOL    HW190310   2.509   1.463   7.581  1.2954  1.1089 -0.6973
24106SOL    HW290311   2.408   1.389   7.497  0.7478 -0.0874  0.9522
24107SOL     OW90312   5.633  11.750   4.527 -0.2121 -0.2004 -0.2488
24107SOL    HW190313   5.622  11.763   4.621 -2.2303  2.1811 -0.7274
24107SOL    HW290314   5.551  11.710   4.498  0.3337 -0.7829 -1.0331
24108SOL     OW90315  13.016   2.985  10.150  0.3233 -0.3458  0.4422
24108SOL    HW190316  12.980   2.938  10.075 -2.9647  2.9133 -0.3637
24108SOL    HW290317  12.957   2.964  10.222  0.0969  0.7319  0.5982
24109SOL     OW90318  13.789  10.334  13.624  0.8923  0.0668 -0.1208
24109SOL    HW190319  13.796  10.413  13.570 -2.4151  1.7537  1.6234
24109SOL    HW290320  13.740  10.272  13.569  0.6275  0.4664 -0.3445
24110SOL     OW90321  11.033   8.326  11.262  0.3299  0.3785 -0.3727
24110SOL    HW190322  10.971   8.367  11.203  1.9712  1.8565 -1.1485
24110SOL    HW290323  11.004   8.352  11.349 -0.9942 -0.2477 -0.5881
24111SOL     OW90324   5.136   5.983   1.909 -0.2704 -0.6369  0.4199
24111SOL    HW190325   5.124   5.909   1.849  0.9385 -0.6007  0.1094
24111SOL    HW290326   5.167   5.943   1.990  1.8357 -0.3859 -0.2110
24112SOL     OW90327   4.870   3.996   2.629 -0.5028  0.0295  0.0295
24112SOL    HW190328   4.907   3.961   2.710 -1.2710  0.0605  0.4091
24112SOL    HW290329   4.853   3.919   2.575 -2.4956 -0.2776  0.9918
24113SOL     OW90330   5.093   9.648  13.962  0.0969  0.0844  0.6684
24113SOL    HW190331   5.000   9.633  13.977 -0.0997  1.0898  0.5418
24113SOL    HW290332   5.131   9.655  14.049 -0.0654  0.3390  0.7195
24114SOL     OW90333   8.098  13.944   1.617 -0.4316 -0.5221 -0.0909
24114SOL    HW190334   8.096  13.944   1.713  0.2320  0.7127 -0.0582
24114SOL    HW290335   8.155  14.017   1.595 -0.2164 -1.0804 -1.4312
24115SOL     OW90336  13.325  12.106  12.018  0.3419  0.2097 -0.0800
24115SOL    HW190337  13.389  12.172  12.047 -0.1163 -0.2065  2.0921
24115SOL    HW290338  13.377  12.027  12.004  0.5683  0.4045 -0.3587
24116SOL     OW90339  10.497   0.993   5.237  0.5055 -0.2180  0.1726
24116SOL    HW190340  10.401   1.001   5.238  0.4646 -0.6878  0.8509
24116SOL    HW290341  10.523   1.017   5.326  1.1432  1.2440 -0.3719
24117SOL     OW90342  13.559   3.906  13.712 -0.9341 -0.6532  0.6975
24117SOL    HW190343  13.558   3.837  13.779 -1.2005 -1.6007 -0.2684
24117SOL    HW290344  13.472   3.904  13.674 -0.5839 -0.5663 -0.1210
24118SOL     OW90345   1.179  11.635   0.939 -0.0945  0.0769 -0.2629
24118SOL    HW190346   1.273  11.635   0.955  0.0545 -1.2992 -1.0652
24118SOL    HW290347   1.143  11.581   1.009 -0.6024  2.4578  1.4571
24119SOL     OW90348   1.582   2.027  12.359 -0.0332 -0.1483  0.0576
24119SOL    HW190349   1.605   1.961  12.293 -1.0862 -0.0203 -0.4554
24119SOL    HW290350   1.578   1.979  12.441  0.3998 -0.4856 -0.1168
24120SOL     OW90351   3.345   3.094   6.355 -0.2819 -0.5100 -0.4073
24120SOL    HW190352   3.325   3.026   6.419 -1.2512  1.3066  1.3101
24120SOL    HW290353   3.297   3.171   6.385 -1.2391  0.3184 -3.6390
24121SOL     OW90354  12.433   7.767   0.060 -0.2546  0.2258  0.0867
24121SOL    HW190355  12.503   7.737   0.117  0.0380 -1.5876 -1.1608
24121SOL    HW290356  12.411   7.692   0.006 -1.2541  1.5640 -1.4715
24122SOL     OW90357   1.258   7.680  10.499  0.2329 -0.3924  0.5695
24122SOL    HW190358   1.351   7.702  10.488  0.1380 -0.1718  0.2082
24122SOL    HW290359   1.241   7.613  10.433  0.0638 -0.2279  0.4455
24123SOL     OW90360   9.302  10.014   3.658 -0.0668  0.5502 -0.0549
24123SOL    HW190361   9.389  10.039   3.627  0.4652  0.2196  1.1007
24123SOL    HW290362   9.317   9.985   3.748 -1.0788 -1.2293 -0.4207
24124SOL     OW90363  10.086   9.137  12.023  0.1561 -0.6782 -0.3346
24124SOL    HW190364  10.052   9.116  12.110 -1.3246  0.6469 -0.5473
24124SOL    HW290365  10.084   9.054  11.976 -0.4874 -1.1178  0.4388
24125SOL     OW90366  10.164  10.393   6.809  0.3573 -0.3292  0.3469
24125SOL    HW190367  10.181  10.486   6.794 -1.0336 -0.4474 -2.9387
24125SOL    HW290368  10.095  10.392   6.875 -0.1283  1.0570 -0.0810
24126SOL     OW90369  12.714   1.408  11.080  0.2157 -0.0490 -0.0823
24126SOL    HW190370  12.705   1.503  11.087 -0.7366 -0.1636  0.3079
24126SOL    HW290371  12.668   1.374  11.156 -1.6850 -0.9242 -1.5289
24127SOL     OW90372   0.793  11.836   7.771 -0.0137 -0.1376  0.2131
24127SOL    HW190373   0.868  11.803   7.722 -0.3475 -1.8523  0.7948
24127SOL    HW290374   0.795  11.788   7.854 -2.2254 -0.8523 -0.0808
24128SOL     OW90375  10.554   2.684   5.464  0.0579  0.2040  0.2106
24128SOL    HW190376  10.596   2.728   5.390 -0.1465  1.3502  0.7529
24128SOL    HW290377  10.573   2.591   5.451  0.2477  0.4148 -1.1272
24129SOL     OW90378  13.988   5.002   3.900 -0.8362 -0.1963  0.0861
24129SOL    HW190379  13.970   4.909   3.890 -0.4638 -0.1748 -0.8770
24129SOL    HW290380  13.962   5.022   3.990  0.4597 -1.5475  0.7998
24130SOL     OW90381  12.519  11.582   3.645 -0.3365  0.0954  0.2773
24130SOL    HW190382  12.567  11.566   3.564  0.2878  4.1603 -0.3838
24130SOL    HW290383  12.431  11.606   3.616 -0.7273 -0.4724  0.9677
24131SOL     OW90384   8.279  10.430   8.444  0.1800 -0.2870  0.1431
24131SOL    HW190385   8.266  10.335   8.446 -0.6368 -0.1791  1.1805
24131SOL    HW290386   8.354  10.445   8.501  0.5071 -0.3255 -0.2711
24132SOL     OW90387   4.579  12.769   3.309 -0.8539 -0.0830  0.1540
24132SOL    HW190388   4.614  12.854   3.337 -1.6406 -0.1926  1.5793
24132SOL    HW290389   4.540  12.786   3.223  0.8131  0.4974 -0.5398
24133SOL     OW90390   7.126   1.453   1.142  0.6662 -0.0274  0.6364
24133SOL    HW190391   7.114   1.493   1.055  2.0619 -0.0753  0.4087
24133SOL    HW290392   7.170   1.370   1.125  2.1403  0.5517  1.4657
24134SOL     OW90393  10.868  10.825  10.987 -0.7530 -0.5224 -0.3045
24134SOL    HW190394  10.878  10.781  10.903 -1.0655 -0.5097 -0.3492
24134SOL    HW290395  10.873  10.755  11.052  0.4430 -0.4267 -0.2674
24135SOL     OW90396   3.626   4.317  10.927  0.1362 -0.2580 -0.3177
24135SOL    HW190397   3.593   4.394  10.973 -1.7384 -0.5074 -1.1464
24135SOL    HW290398   3.643   4.253  10.996 -0.0844  0.2826  0.2446
24136SOL     OW90399   7.235  11.904  12.340  0.4979 -0.5645  0.1662
24136SOL    HW190400   7.220  11.994  12.367 -1.1955 -0.6879 -0.2435
24136SOL    HW290401   7.258  11.858  12.420  2.9184  0.4872  0.1497
24137SOL     OW90402   7.365   4.924   4.120 -0.2811 -0.1402  0.0014
24137SOL    HW190403   7.446   4.931   4.068 -1.4148 -0.8176 -1.9706
24137SOL    HW290404   7.362   4.833   4.147 -0.7668 -0.3206 -0.6337
24138SOL     OW90405   6.764   0.185   3.228 -0.9304 -0.3242  0.7281
24138SOL    HW190406   6.787   0.255   3.290  1.3129 -1.1533  0.9375
24138SOL    HW290407   6.761   0.228   3.143 -1.5793  0.3801  1.0954
24139SOL     OW90408  11.387   1.881   7.879 -0.4418 -0.0165  0.1555
24139SOL    HW190409  11.296   1.909   7.884 -0.5395 -0.3502  0.2446
24139SOL    HW290410  11.395   1.813   7.946 -0.8211 -1.9282 -1.6634
24140SOL     OW90411   3.173   7.183   5.828  0.1027 -0.3154  0.0512
24140SOL    HW190412   3.191   7.262   5.777 -0.3656  0.2227  0.6983
24140SOL    HW290413   3.256   7.163   5.872 -0.2095  0.7898  1.1868
24141SOL     OW90414   9.522  11.180   4.768  0.4724 -0.3044 -0.1962
24141SOL    HW190415   9.572  11.141   4.839 -0.3246 -1.7554 -0.4108
24141SOL    HW290416   9.587  11.229   4.717  1.0740  0.6739  1.4255
24142SOL     OW90417   0.026  14.007   5.937 -0.0446 -0.3507  0.2650
24142SOL    HW190418   0.067  14.088   5.907 -0.1610 -0.0266  0.9436
24142SOL    HW290419  -0.056  14.001   5.888 -0.7571  0.7333  1.2605
24143SOL     OW90420   4.703  13.525   3.987  0.4060 -0.1594  0.0424
24143SOL    HW190421   4.788  13.493   4.020  0.1132 -1.2410 -0.2065
24143SOL    HW290422   4.675  13.457   3.926 -0.7961  0.0303  0.3647
24144SOL     OW90423   2.343  10.269   3.614  0.1221 -0.4296 -0.4025
24144SOL    HW190424   2.368  10.278   3.705 -0.7659 -0.9174 -0.0944
24144SOL    HW290425   2.304  10.182   3.608 -0.6329 -0.0644 -1.0503
24145SOL     OW90426   6.556  14.106   8.425  0.0162 -0.1464  0.1081
24145SOL    HW190427   6.533  14.156   8.504  0.0396  0.0449 -0.0047
24145SOL    HW290428   6.476  14.061   8.401 -0.0069 -0.1595  0.2102
24146SOL     OW90429   8.662   6.880  10.546 -0.2288  0.1470 -0.2679
24146SOL    HW190430   8.679   6.926  10.629  1.5587  1.2819 -1.2030
24146SOL    HW290431   8.566   6.877  10.539 -0.4448 -0.4369  2.0527
24147SOL     OW90432   5.910   7.956  12.842 -0.0464  0.3574 -0.1159
24147SOL    HW190433   6.001   7.981  12.861 -0.0591  0.2522  0.0845
24147SOL    HW290434   5.890   7.889  12.907 -0.5591  1.0044  0.4037
24148SOL     OW90435   9.587   0.750   5.496 -0.1548 -0.4041  0.2240
24148SOL    HW190436   9.496   0.745   5.467  0.2728 -0.3538 -1.2431
24148SOL    HW290437   9.634   0.783   5.419  1.0703 -0.2255  1.0264
24149SOL     OW90438   6.517   0.608   0.786  0.3548  0.3844 -0.5148
24149SOL    HW190439   6.481   0.677   0.842  0.8618 -0.9314  1.5685
24149SOL    HW290440   6.443   0.578   0.734 -1.8418 -2.1502  3.5329
24150SOL     OW90441  10.032   3.306   8.992  0.6293 -0.4372 -0.0721
24150SOL    HW190442  10.090   3.347   8.927  0.4537 -1.5814 -0.9939
24150SOL    HW290443  10.054   3.213   8.988 -1.4550 -0.9616 -0.6572
24151SOL     OW90444  10.979  10.435   8.342  0.5601 -0.2679 -0.1287
24151SOL    HW190445  10.941  10.496   8.404  2.2927  1.4675 -0.6967
24151SOL    HW290446  10.914  10.430   8.271  0.6219  1.3490 -0.3311
24152SOL     OW90447   6.152   7.627   9.513  0.1930  0.0081 -0.3450
24152SOL    HW190448   6.143   7.559   9.579 -1.7844 -0.9633 -1.4999
24152SOL    HW290449   6.155   7.709   9.562 -1.4057 -0.6728  0.9623
24153SOL     OW90450   9.146  12.092   3.780  0.2617 -0.3329 -0.4971
24153SOL    HW190451   9.068  12.064   3.733  0.9105 -0.3011 -1.6234
24153SOL    HW290452   9.173  12.016   3.831 -0.1287 -0.5539 -0.6229
24154SOL     OW90453   5.066   8.280  13.503 -0.3571 -0.3277  0.4145
24154SOL    HW190454   5.030   8.363  13.471 -0.3065 -0.4510  0.0348
24154SOL    HW290455   5.019   8.263  13.585  2.4179  2.1558  2.7950
24155SOL     OW90456   9.292   4.475   4.562 -0.0631  0.2395  0.3670
24155SOL    HW190457   9.346   4.502   4.487 -1.0631 -0.8327 -0.7854
24155SOL    HW290458   9.322   4.530   4.634  2.8677 -0.5644 -0.0989
24156SOL     OW90459   7.409   8.985  10.237 -0.3461 -0.4348  0.1727
24156SOL    HW190460   7.363   9.059  10.276 -1.0368 -0.5400 -0.4117
24156SOL    HW290461   7.486   9.025  10.194 -0.5413 -0.1008  0.1269
24157SOL     OW90462  12.120  11.258  11.759  0.7086  0.5490 -0.2697
24157SOL    HW190463  12.059  11.226  11.693 -0.6455 -0.5051  1.4118
24157SOL    HW290464  12.077  11.334  11.798 -0.5264 -1.2853  2.1999
24158SOL     OW90465  13.361   2.627  10.558 -0.3637 -0.1463  0.2895
24158SOL    HW190466  13.310   2.638  10.478  0.3398 -2.1256 -0.5059
24158SOL    HW290467  13.436   2.684  10.547 -0.2047 -0.4981 -0.5515
24159SOL     OW90468  12.651   3.325   6.620  0.1379  0.6023 -0.1856
24159SOL    HW190469  12.655   3.340   6.525  0.7312 -0.2114 -0.3034
24159SOL    HW290470  12.590   3.391   6.652  0.0166  0.9655 -1.1215
24160SOL     OW90471  11.902   7.359   6.304  0.1722  0.6411  0.4099
24160SOL    HW190472  11.984   7.328   6.266 -0.5823  0.7888 -1.4378
24160SOL    HW290473  11.928   7.416   6.376  1.7031  1.1148 -0.4889
24161SOL     OW90474  14.105  11.180   8.017 -0.9459 -0.8488  0.2701
24161SOL    HW190475  14.070  11.129   8.090 -2.2639 -1.0824 -0.4897
24161SOL    HW290476  14.027  11.207   7.967 -0.5549  3.3550  1.5124
24162SOL     OW90477   3.676   9.978   3.276  0.2230  0.2539  0.8968
24162SOL    HW190478   3.772   9.974   3.281  0.3540 -1.3463 -1.4731
24162SOL    HW290479   3.655  10.065   3.310  2.4886  0.6215  1.5700
24163SOL     OW90480  13.707   0.151   8.868 -0.8035  0.0102  0.3111
24163SOL    HW190481  13.671   0.239   8.852  0.3918  0.5041  0.2046
24163SOL    HW290482  13.638   0.091   8.841 -1.0476  0.8997 -1.1354
24164SOL     OW90483   6.864   9.252   4.503 -0.1116  0.3399  0.0214
24164SOL    HW190484   6.833   9.216   4.585  0.4125 -0.0919  0.0379
24164SOL    HW290485   6.815   9.206   4.435 -0.0579  0.2086  0.0719
24165SOL     OW90486   5.224  13.310  12.264 -0.2715 -0.0084 -0.0534
24165SOL    HW190487   5.232  13.342  12.353 -0.3397  0.7933 -0.3237
24165SOL    HW290488   5.238  13.215  12.270 -0.6643 -0.0137  0.8514
24166SOL     OW90489   7.004   6.261   0.005  0.4741 -0.6830  0.0016
24166SOL    HW190490   7.020   6.353  -0.014 -2.7132  0.2364  1.1522
24166SOL    HW290491   6.938   6.233  -0.058  0.9666 -2.0491  0.0395
24167SOL     OW90492   7.415   9.679   7.540 -0.9338 -0.2949  0.2079
24167SOL    HW190493   7.491   9.681   7.481 -0.0712 -0.5920  1.2681
24167SOL    HW290494   7.347   9.728   7.494 -0.2353 -0.3773 -0.9524
24168SOL     OW90495  11.292   8.075   6.487  0.9678 -0.4405  0.4090
24168SOL    HW190496  11.240   8.000   6.456  1.3354 -0.7028  0.4278
24168SOL    HW290497  11.268   8.146   6.428  1.2928 -0.8095 -0.1731
24169SOL     OW90498   0.358   6.804   3.791  0.4600 -0.1321 -0.3240
24169SOL    HW190499   0.265   6.802   3.814  0.2520  0.0618 -1.1353
24169SOL    HW290500   0.386   6.713   3.800 -0.0716 -0.3844 -1.1282
24170SOL     OW90501   8.364   5.822  12.875 -0.0069 -0.0523 -0.5591
24170SOL    HW190502   8.423   5.747  12.865 -0.9762 -1.0744  0.8751
24170SOL    HW290503   8.356   5.858  12.787 -0.8180 -2.6867 -1.6738
24171SOL     OW90504   1.117   4.439   3.504 -0.5721  0.5248  0.0382
24171SOL    HW190505   1.139   4.355   3.546 -1.0135  0.2949 -0.1824
24171SOL    HW290506   1.159   4.434   3.419  0.7598  1.2077  0.6292
24172SOL     OW90507  12.020   3.009   3.823  0.3214 -0.2380 -0.0388
24172SOL    HW190508  11.958   2.943   3.791 -0.5047  0.3189  0.3779
24172SOL    HW290509  11.999   3.019   3.916  1.7185 -0.7719  0.3619
24173SOL     OW90510  12.930   9.766   3.824 -0.2602  0.7095  0.3651
24173SOL    HW190511  12.957   9.771   3.733  0.6176 -1.2682  0.4497
24173SOL    HW290512  12.840   9.734   3.821 -0.1666  0.4646  0.1925
24174SOL     OW90513  10.439  14.110   8.285 -0.0629  0.5610 -0.6298
24174SOL    HW190514  10.501  14.041   8.310 -1.7164 -0.4929  0.8022
24174SOL    HW290515  10.430  14.164   8.363  0.6792  2.0340 -1.5205
24175SOL     OW90516   4.263  11.339   8.675 -0.1786 -0.1341 -0.1042
24175SOL    HW190517   4.331  11.383   8.625 -1.2270  1.2974 -0.3344
24175SOL    HW290518   4.310  11.294   8.745  1.2677 -1.7154 -1.9847
24176SOL     OW90519   9.837  13.764   4.055 -0.4596 -0.2601  0.0673
24176SOL    HW190520   9.870  13.677   4.030  1.9908  0.9232 -1.2399
24176SOL    HW290521   9.787  13.793   3.978 -2.3174 -0.9212  0.9666
24177SOL     OW90522   0.907   7.005   9.987  0.2435 -0.2028 -0.0591
24177SOL    HW190523   0.832   7.040   9.940  1.6219  1.3181 -1.2126
24177SOL    HW290524   0.951   7.082  10.023  0.3673 -1.1743  2.0737
24178SOL     OW90525   5.303   8.640   1.854  0.6730  0.1240  0.3878
24178SOL    HW190526   5.244   8.680   1.791  0.4341 -0.3931  0.2742
24178SOL    HW290527   5.280   8.680   1.938  0.6070  0.3989  0.2389
24179SOL     OW90528   1.615   3.580   7.327  0.1456 -0.1435  0.2786
24179SOL    HW190529   1.656   3.663   7.352  1.3062 -1.4257  3.0086
24179SOL    HW290530   1.621   3.525   7.406 -2.5864 -2.0842 -0.6911
24180SOL     OW90531   5.232  11.352  12.755 -0.0035  0.3996 -0.0268
24180SOL    HW190532   5.292  11.299  12.807  2.8966  3.3559 -0.0195
24180SOL    HW290533   5.246  11.323  12.665  1.2338  0.8117  0.0172
24181SOL     OW90534   4.175   6.437  13.051  0.0950 -0.1871 -0.4931
24181SOL    HW190535   4.232   6.486  12.991  0.8479 -0.7640 -0.2736
24181SOL    HW290536   4.146   6.361  13.000  1.4705 -1.1687  0.1126
24182SOL     OW90537   2.989   6.467   9.588 -0.3521  0.2084  0.3703
24182SOL    HW190538   2.995   6.552   9.632  0.5686  0.1333  0.4142
24182SOL    HW290539   3.064   6.418   9.622  0.5854  0.2574 -1.5021
24183SOL     OW90540   2.176  12.476  14.148  0.3131 -0.1614 -0.1797
24183SOL    HW190541   2.263  12.488  14.112  0.1870 -0.5388 -0.6226
24183SOL    HW290542   2.134  12.562  14.139  0.4457 -0.1272 -0.5019
24184SOL     OW90543   3.384   5.179   3.000  0.1633 -0.1466  0.5010
24184SOL    HW190544   3.395   5.141   2.913 -0.7711  0.4836  0.0877
24184SOL    HW290545   3.470   5.214   3.022  0.2262  0.4069 -0.5314
24185SOL     OW90546   0.078  12.989   5.542 -0.1023 -0.1681  0.2492
24185SOL    HW190547   0.103  12.925   5.609  1.0390  0.7010  0.6936
24185SOL    HW290548   0.109  13.072   5.577  0.5585  0.2968 -1.3902
24186SOL     OW90549   4.487   4.099   6.617 -0.2341  0.2160 -0.3923
24186SOL    HW190550   4.564   4.154   6.603 -0.1276  0.6333  1.4969
24186SOL    HW290551   4.489   4.079   6.711 -2.5271  0.3916 -0.2487
24187SOL     OW90552   3.309   4.928   9.502  0.3914  0.3656  0.5960
24187SOL    HW190553   3.217   4.933   9.525  0.2308  1.0285 -0.1628
24187SOL    HW290554   3.353   4.987   9.564  0.2716  0.2949  0.7489
24188SOL     OW90555   0.524   3.653   2.890 -0.2063 -0.3160  0.2391
24188SOL    HW190556   0.446   3.664   2.836 -0.1570  1.4114  0.4674
24188SOL    HW290557   0.584   3.722   2.862  0.2440 -0.0420  1.7607
24189SOL     OW90558   8.889  13.292   3.214  0.4283  0.3666 -0.0758
24189SOL    HW190559   8.935  13.373   3.191 -0.2571  0.8743  0.3154
24189SOL    HW290560   8.908  13.279   3.307  0.3927  0.1711 -0.0953
24190SOL     OW90561   3.683   9.284   8.940  0.1554 -0.1023  0.4471
24190SOL    HW190562   3.588   9.277   8.940  0.1934 -0.6591  0.8348
24190SOL    HW290563   3.708   9.266   8.849  0.0175 -1.9880  0.7367
24191SOL     OW90564  10.379   1.823   3.375  0.3763  0.7588 -0.4346
24191SOL    HW190565  10.454   1.882   3.379 -0.6353  2.2380 -1.9070
24191SOL    HW290566  10.330   1.850   3.298 -1.6765 -0.1647  0.4335
24192SOL     OW90567  13.874   0.170  13.053  0.3250  0.5424 -0.1372
24192SOL    HW190568  13.831   0.087  13.073  0.4777  0.4034 -0.3800
24192SOL    HW290569  13.813   0.237  13.084  0.9932  0.3469  1.7297
24193SOL     OW90570  11.216  12.435   1.173 -0.8217 -0.0447  0.0496
24193SOL    HW190571  11.245  12.497   1.106  0.7579 -0.6664  0.1135
24193SOL    HW290572  11.156  12.486   1.228 -0.6772  1.0096 -0.7288
24194SOL     OW90573   1.307   4.090   2.683  0.1035  0.3460 -0.1279
24194SOL    HW190574   1.225   4.043   2.693  0.1901  0.3697  0.7539
24194SOL    HW290575   1.330   4.079   2.591 -1.3064  1.0354 -0.5938
24195SOL     OW90576   3.626  10.018   5.238 -0.3538  0.1620 -0.0836
24195SOL    HW190577   3.672   9.960   5.299  0.2506 -0.9097 -1.4974
24195SOL    HW290578   3.543   9.973   5.222  0.0917 -0.3077 -1.1365
24196SOL     OW90579   8.606   6.912   0.479 -0.4291 -0.5168  0.1176
24196SOL    HW190580   8.597   6.933   0.572 -0.1189  0.0621  0.0195
24196SOL    HW290581   8.549   6.975   0.435 -0.1014 -0.3914 -0.1290
24197SOL     OW90582   9.308   8.854   9.999 -0.3611 -0.0339 -0.2106
24197SOL    HW190583   9.296   8.906   9.919 -0.9605  0.0780 -0.0541
24197SOL    HW290584   9.344   8.916  10.062  1.5998 -0.4882 -0.8269
24198SOL     OW90585   7.001   2.244   9.230 -0.5505  0.0322 -0.0168
24198SOL    HW190586   6.912   2.249   9.265 -0.0530  1.9781  1.1020
24198SOL    HW290587   7.051   2.200   9.299 -0.3890  0.1044 -0.0890
24199SOL     OW90588   6.314  12.220   4.557 -0.0514 -0.3149  0.2632
24199SOL    HW190589   6.245  12.257   4.612 -1.7920 -4.0802  0.9301
24199SOL    HW290590   6.396  12.249   4.597 -1.1511  2.8745  0.4652
24200SOL     OW90591  13.555  11.779   6.471  0.7747  0.3607 -0.5204
24200SOL    HW190592  13.513  11.823   6.545 -0.3106 -1.2190 -0.1372
24200SOL    HW290593  13.598  11.702   6.510 -1.0370 -1.3157 -1.6493
24201SOL     OW90594  11.429  12.117   6.273 -0.3034 -0.4486 -0.1768
24201SOL    HW190595  11.470  12.059   6.209  2.8293  0.0161  1.1977
24201SOL    HW290596  11.418  12.200   6.226  1.1949 -0.3500 -0.4156
24202SOL     OW90597   4.954   2.933   7.330 -0.3673 -0.4303 -0.6575
24202SOL    HW190598   4.901   2.990   7.387 -0.9285 -1.2337 -0.3472
24202SOL    HW290599   5.036   2.980   7.319 -0.2265 -0.2612  0.8645
24203SOL     OW90600   6.021   9.006   1.042 -0.0070  0.5064 -0.6253
24203SOL    HW190601   6.052   8.933   0.988 -1.4131  0.2536 -1.1179
24203SOL    HW290602   5.929   9.016   1.019  0.0325  2.1377 -0.2182
24204SOL     OW90603   4.288   7.606  11.798 -0.2334 -0.7557  0.1656
24204SOL    HW190604   4.198   7.594  11.828 -0.5394 -0.2264 -0.5195
24204SOL    HW290605   4.322   7.678  11.851 -0.8984  0.4411 -0.9669
24205SOL     OW90606   1.436   9.261   4.838 -0.4559  0.2362 -0.1112
24205SOL    HW190607   1.521   9.219   4.826 -0.0821  0.9478 -0.0080
24205SOL    HW290608   1.401   9.271   4.749  0.1048  1.0147 -0.2547
24206SOL     OW90609  14.140  11.661  13.946 -0.2500 -0.1115  0.3446
24206SOL    HW190610  14.147  11.752  13.917  0.7569 -0.9264 -2.3724
24206SOL    HW290611  14.048  11.650  13.968 -0.3024  1.6620  1.2057
24207SOL     OW90612   2.704   7.323   1.084  0.1189  0.7683 -0.3885
24207SOL    HW190613   2.659   7.317   0.999 -1.0778  3.7622 -0.0732
24207SOL    HW290614   2.744   7.410   1.084  3.4629 -0.6199  0.6347
24208SOL     OW90615   1.615   5.293  12.570 -0.1382 -0.1964 -0.1388
24208SOL    HW190616   1.614   5.362  12.504 -2.6377 -0.3745 -0.3893
24208SOL    HW290617   1.556   5.325  12.639 -0.0895 -1.3847  0.4809
24209SOL     OW90618  10.309   3.545   7.056  0.0097 -0.1949 -0.1292
24209SOL    HW190619  10.284   3.633   7.083  0.8988 -0.0612  0.2707
24209SOL    HW290620  10.393   3.529   7.099  0.2405 -0.9337 -0.8368
24210SOL     OW90621  12.567   3.165   8.773  0.7043  0.0090 -0.3040
24210SOL    HW190622  12.599   3.092   8.720 -2.5015 -0.5732 -1.6170
24210SOL    HW290623  12.611   3.154   8.858 -0.2234 -3.9310 -0.1653
24211SOL     OW90624  13.694   9.383   6.798  0.0301 -0.5843 -0.4097
24211SOL    HW190625  13.775   9.423   6.830  0.7523 -1.5484 -0.9929
24211SOL    HW290626  13.676   9.312   6.860 -0.1638 -0.6148 -0.4996
24212SOL     OW90627   2.216   6.291   5.233 -0.5102 -0.3479  0.0208
24212SOL    HW190628   2.227   6.282   5.328  0.6068 -0.5905 -0.1188
24212SOL    HW290629   2.181   6.206   5.206 -2.2881  0.2359  0.4005
24213SOL     OW90630  12.105   1.689  13.207 -0.0491  0.2140  0.4900
24213SOL    HW190631  12.057   1.606  13.207 -0.0976  0.2381 -0.0001
24213SOL    HW290632  12.148   1.692  13.292  1.0028 -0.9329  0.0370
24214SOL     OW90633  12.320   7.182  13.140 -0.4261 -0.3330 -0.0720
24214SOL    HW190634  12.370   7.211  13.063  0.0326  3.8917  1.5450
24214SOL    HW290635  12.387   7.155  13.203 -0.3634  1.2380  0.5864
24215SOL     OW90636   2.800   7.211   0.774  0.3742  0.3602 -0.4222
24215SOL    HW190637   2.715   7.249   0.798 -0.0513 -0.2352 -0.9696
24215SOL    HW290638   2.813   7.141   0.837 -1.3336 -2.0382 -2.5411
24216SOL     OW90639  11.359   8.496   0.346 -0.2077 -0.0401  0.5017
24216SOL    HW190640  11.334   8.460   0.261  0.0620 -1.9356  1.1842
24216SOL    HW290641  11.296   8.459   0.408 -0.6123  1.5792  1.1211
24217SOL     OW90642   3.332   0.868   7.206  0.2751  0.2010  0.1669
24217SOL    HW190643   3.261   0.902   7.152 -0.4236 -1.4779 -0.0299
24217SOL    HW290644   3.343   0.777   7.177  1.1883 -0.1575  1.5423
24218SOL     OW90645  13.167   8.025   2.494 -0.1174 -0.1336 -0.1835
24218SOL    HW190646  13.124   8.015   2.579 -0.2263  2.6041  0.1635
24218SOL    HW290647  13.102   7.997   2.430 -0.6273 -0.6341  0.5346
24219SOL     OW90648  13.257   6.719  10.128 -0.3663 -0.2380  1.0824
24219SOL    HW190649  13.228   6.671  10.206 -1.1510 -0.6182  0.5659
24219SOL    HW290650  13.238   6.660  10.055 -0.7063  0.5762  0.5006
24220SOL     OW90651   0.523   3.744   0.443  0.1441  0.9175  0.0944
24220SOL    HW190652   0.444   3.797   0.428 -0.0515  0.8451  0.8275
24220SOL    HW290653   0.530   3.739   0.538 -0.2417 -0.9617  0.0620
24221SOL     OW90654  10.154   9.450  13.396  0.4712 -0.3716 -0.5804
24221SOL    HW190655  10.192   9.534  13.372 -0.9537  0.3710 -0.3881
24221SOL    HW290656  10.201   9.386  13.343  2.9930  0.2634  0.7200
24222SOL     OW90657   2.139   8.524   0.734 -0.0241 -0.1295 -0.1768
24222SOL    HW190658   2.073   8.563   0.792 -0.7390 -1.5428  0.0004
24222SOL    HW290659   2.221   8.567   0.759 -0.6354  0.6033  0.6192
24223SOL     OW90660  12.746   7.351  12.917 -0.1636 -0.3457  0.6225
24223SOL    HW190661  12.774   7.355  12.826 -1.3715 -0.9547  0.2117
24223SOL    HW290662  12.822   7.313  12.963  0.2371 -0.5981 -0.2200
24224SOL     OW90663  13.045  10.052  13.734 -0.0531 -0.2134  0.3290
24224SOL    HW190664  13.132  10.031  13.699  0.1032  0.9963 -0.0553
24224SOL    HW290665  12.985  10.010  13.672  0.2372 -1.3037  0.7571
24225SOL     OW90666   0.627   1.910   9.410  0.8195 -0.3448  1.1021
24225SOL    HW190667   0.698   1.899   9.347 -0.6450 -0.4612 -0.6043
24225SOL    HW290668   0.647   1.848   9.480  1.4305 -1.7479 -0.2562
24226SOL     OW90669   3.410   7.365  10.560 -0.5805  0.1843 -0.7374
24226SOL    HW190670   3.419   7.273  10.587  2.7971 -0.4370 -3.2002
24226SOL    HW290671   3.379   7.360  10.470 -2.0693  1.6318 -0.3508
24227SOL     OW90672  11.242   6.381   5.040  0.0170 -0.1243 -0.6220
24227SOL    HW190673  11.326   6.375   5.085  0.3691 -2.6271 -1.4711
24227SOL    HW290674  11.180   6.406   5.109  1.1779  0.1552  0.3545
24228SOL     OW90675  13.184  11.479   1.355  0.1609  0.4133 -0.2271
24228SOL    HW190676  13.158  11.561   1.397 -0.6711  0.1867 -0.2829
24228SOL    HW290677  13.157  11.411   1.416  0.9681  0.1772 -0.1203
24229SOL     OW90678  13.806   3.148   4.976 -0.2462  0.2093  0.3234
24229SOL    HW190679  13.800   3.220   4.913  0.1165  0.5864  0.7051
24229SOL    HW290680  13.746   3.082   4.943  0.4170  0.1222 -0.7750
24230SOL     OW90681  12.724   2.235   3.574  0.1819  0.2858 -0.6048
24230SOL    HW190682  12.638   2.233   3.615  0.3344 -0.2936 -0.2848
24230SOL    HW290683  12.709   2.268   3.486 -0.7074 -1.7723 -1.2846
24231SOL     OW90684   4.211   0.090   7.748 -0.0542 -0.7170  0.2983
24231SOL    HW190685   4.221   0.112   7.841 -0.0971  2.3774 -0.3262
24231SOL    HW290686   4.301   0.086   7.714 -0.0897 -0.0221  0.1169
24232SOL     OW90687  12.995   9.830   2.581  0.0938  0.0056 -0.3202
24232SOL    HW190688  13.086   9.809   2.560  0.0809 -1.7007  1.0686
24232SOL    HW290689  12.945   9.755   2.549 -0.4100 -0.5813  1.6961
24233SOL     OW90690   4.755   4.413   2.207 -0.6813  0.5418 -0.0419
24233SOL    HW190691   4.707   4.338   2.244 -0.6548  0.7386  0.4001
24233SOL    HW290692   4.815   4.439   2.277  1.3263 -0.7919 -1.1952
24234SOL     OW90693  10.523   3.947  12.136 -0.4597 -0.2354  0.1358
24234SOL    HW190694  10.545   3.856  12.119 -0.0512 -0.0899 -0.1280
24234SOL    HW290695  10.600   3.996  12.108  0.2905  0.0277  2.4655
24235SOL     OW90696   5.695  12.570   8.818 -0.2361  0.0274 -0.5338
24235SOL    HW190697   5.790  12.567   8.805  0.1849 -2.1513  1.9554
24235SOL    HW290698   5.680  12.650   8.869  0.7255 -0.8382  1.2311
24236SOL     OW90699   5.606   2.337  11.337 -0.3944 -0.6322  0.0690
24236SOL    HW190700   5.679   2.321  11.278  1.9923  1.1618  2.2955
24236SOL    HW290701   5.586   2.430  11.326 -2.1939 -1.0385 -0.2982
24237SOL     OW90702  10.179   1.701   8.057 -0.0088 -0.0992  0.5089
24237SOL    HW190703  10.118   1.768   8.089  1.7225  1.1894  1.3190
24237SOL    HW290704  10.135   1.618   8.074 -0.9178  0.7226  2.5088
24238SOL     OW90705  10.139   4.920   0.046  0.4953  0.3841 -0.0294
24238SOL    HW190706  10.195   4.994   0.019 -1.1565  0.5491 -3.5689
24238SOL    HW290707  10.195   4.843   0.037  0.6382  0.6823 -2.1968
24239SOL     OW90708   1.062   8.277   9.244 -0.0188  0.4375 -0.3794
24239SOL    HW190709   1.125   8.313   9.181  0.3709  1.0640  0.3478
24239SOL    HW290710   0.996   8.346   9.254  0.7611  1.0161  1.0633
24240SOL     OW90711   8.891   8.293   8.346 -0.3066 -0.3980  0.3162
24240SOL    HW190712   8.830   8.359   8.315 -1.8251 -1.4965  0.8189
24240SOL    HW290713   8.856   8.210   8.312  1.9235 -0.9167 -0.9035
24241SOL     OW90714  13.524   3.190   8.077 -0.0977 -0.2326 -0.0728
24241SOL    HW190715  13.430   3.180   8.091 -0.3167  1.2086 -0.4023
24241SOL    HW290716  13.539   3.158   7.988 -0.2054 -0.7960  0.1070
24242SOL     OW90717  11.079   3.612   0.152 -0.0486  0.3519 -0.7520
24242SOL    HW190718  11.114   3.526   0.131 -0.4415 -0.4784  1.7165
24242SOL    HW290719  11.150   3.673   0.130  0.1622 -0.5325 -2.6936
24243SOL     OW90720  11.374  10.059   7.814  0.4296  0.3944 -0.0801
24243SOL    HW190721  11.403  10.011   7.891 -2.0895 -0.3760  0.4531
24243SOL    HW290722  11.422  10.018   7.741  1.2676 -0.2582  0.8183
24244SOL     OW90723   4.426  11.685   9.620 -0.3212 -0.0331  0.1092
24244SOL    HW190724   4.491  11.624   9.655 -0.9630 -2.2728 -2.2365
24244SOL    HW290725   4.477  11.743   9.564  0.0915  0.5578  1.0799
24245SOL     OW90726  13.653   7.550  11.448 -0.5902 -0.4310  0.0929
24245SOL    HW190727  13.589   7.619  11.433 -1.6969 -1.2495  0.8880
24245SOL    HW290728  13.642   7.490  11.374  1.3636  0.9003 -1.3815
24246SOL     OW90729   8.848   2.990   9.696 -0.0412  0.2539 -0.2598
24246SOL    HW190730   8.819   2.903   9.667 -1.4226  0.5710  0.0788
24246SOL    HW290731   8.808   3.002   9.782  1.1642  0.7305  0.2550
24247SOL     OW90732   9.904   5.751   2.111  0.1102 -0.0745 -0.0748
24247SOL    HW190733   9.868   5.716   2.029  0.9766 -0.7859 -0.1717
24247SOL    HW290734   9.995   5.719   2.113 -0.4584 -1.8515  2.1391
24248SOL     OW90735  10.594   9.312   9.908  0.1292  0.1818 -0.1274
24248SOL    HW190736  10.636   9.344   9.988  0.4584 -2.0872  0.6893
24248SOL    HW290737  10.500   9.322   9.924  0.2261  0.8084  0.0578
24249SOL     OW90738   9.360   3.126   0.227  0.1152  0.4025 -0.2874
24249SOL    HW190739   9.380   3.202   0.172 -1.4550  0.6361 -0.5712
24249SOL    HW290740   9.296   3.158   0.290 -1.0991 -0.8247 -0.8467
24250SOL     OW90741   5.981   0.307   6.871 -0.6504 -0.1469  0.3333
24250SOL    HW190742   6.005   0.300   6.963  1.6002  0.1583 -0.1818
24250SOL    HW290743   6.043   0.250   6.825  0.2425  1.9322 -1.2326
24251SOL     OW90744   0.215  10.888   1.793 -0.1657  0.1367  0.1168
24251SOL    HW190745   0.260  10.856   1.715 -1.0267  1.0034 -0.7461
24251SOL    HW290746   0.259  10.971   1.813 -1.3028  0.9692 -0.7073
24252SOL     OW90747   8.681   1.740  13.533 -0.2537 -0.4344 -0.1138
24252SOL    HW190748   8.719   1.674  13.591  0.1126 -0.2288 -0.1184
24252SOL    HW290749   8.590   1.712  13.521 -0.5505 -0.0655  1.1698
24253SOL     OW90750   1.317   7.833   8.666  0.0570 -0.5196 -0.0199
24253SOL    HW190751   1.365   7.750   8.666 -0.3706 -0.8383  2.3538
24253SOL    HW290752   1.225   7.807   8.670 -0.0577  0.0182  1.4417
24254SOL     OW90753   2.633  12.381  13.829  0.3277  0.4834 -0.4501
24254SOL    HW190754   2.692  12.440  13.874  1.8853 -0.0574 -1.7025
24254SOL    HW290755   2.600  12.323  13.898 -0.7489  2.3446  0.6891
24255SOL     OW90756  11.768  13.734   4.071 -0.7739 -0.4898 -0.2480
24255SOL    HW190757  11.700  13.763   4.011 -0.6899 -0.8741 -0.5316
24255SOL    HW290758  11.731  13.658   4.116  0.0270 -1.7105 -1.5518
24256SOL     OW90759  13.453   8.577   3.453 -0.6004  0.2741 -0.1755
24256SOL    HW190760  13.448   8.608   3.363 -3.5188 -0.7589 -0.4560
24256SOL    HW290761  13.404   8.642   3.504  1.3127  1.0374  0.8084
24257SOL     OW90762   9.855   1.248   6.199  0.0924 -0.1432  0.2596
24257SOL    HW190763   9.848   1.277   6.290  1.0135 -1.2497  0.7078
24257SOL    HW290764   9.939   1.283   6.169 -0.3939  0.5702 -0.3187
24258SOL     OW90765   0.704  13.828  13.589 -0.0209 -0.5440  0.1180
24258SOL    HW190766   0.786  13.821  13.540  0.0034  1.7974 -0.2822
24258SOL    HW290767   0.728  13.808  13.679  0.1688 -3.6893 -0.4910
24259SOL     OW90768  10.956   1.446  11.174  0.3585 -0.9214 -0.5931
24259SOL    HW190769  11.006   1.465  11.095  0.1201 -0.0030 -0.5337
24259SOL    HW290770  10.910   1.527  11.193  2.3205 -0.2972  1.9210
24260SOL     OW90771   4.744  10.802   9.596 -0.3591 -0.0452 -0.0514
24260SOL    HW190772   4.680  10.733   9.579 -0.2258 -0.6227  1.6765
24260SOL    HW290773   4.692  10.873   9.636 -0.3900  0.6508 -1.2685
24261SOL     OW90774   3.133   5.952   2.497  0.2758 -0.6420  1.3502
24261SOL    HW190775   3.212   5.972   2.547  0.2796 -2.6128  2.2618
24261SOL    HW290776   3.166   5.928   2.410  0.3756  1.5969  0.7300
24262SOL     OW90777   8.751   7.136   5.329  0.4229  0.3482  0.1859
24262SOL    HW190778   8.802   7.083   5.390 -2.2480 -1.3797  1.0953
24262SOL    HW290779   8.769   7.097   5.243 -0.5213 -1.2943  0.6906
24263SOL     OW90780   2.482  12.423   6.887 -0.3657 -0.1328 -0.3338
24263SOL    HW190781   2.399  12.376   6.895  0.1537 -1.0478 -0.1732
24263SOL    HW290782   2.460  12.514   6.904 -1.1772 -0.4967  0.6230
24264SOL     OW90783   2.829   4.748   3.314  1.0776  0.0385  0.0134
24264SOL    HW190784   2.819   4.757   3.409 -0.1940 -0.7524 -0.0274
24264SOL    HW290785   2.775   4.673   3.291  1.1384  0.3990 -1.3870
24265SOL     OW90786   8.601   7.509   3.001  0.1439 -0.4165  0.2702
24265SOL    HW190787   8.619   7.415   2.999 -1.0596 -0.6538  0.0806
24265SOL    HW290788   8.568   7.525   3.089 -0.0985 -0.2591  0.1509
24266SOL     OW90789  13.482   9.750   3.209 -0.0582  0.4508 -0.0920
24266SOL    HW190790  13.459   9.814   3.276  0.3245  0.0565  0.4196
24266SOL    HW290791  13.398   9.727   3.169 -0.4064  0.0354  0.8515
24267SOL     OW90792   4.399   4.217   9.318  0.3844 -0.9984 -0.2791
24267SOL    HW190793   4.400   4.209   9.223 -0.2149 -1.0169 -0.2908
24267SOL    HW290794   4.471   4.276   9.338 -0.5122  0.3702 -0.8895
24268SOL     OW90795  12.587   1.281  13.075  0.3017 -0.2092 -0.4161
24268SOL    HW190796  12.556   1.259  13.163  1.8695  0.6539  0.3830
24268SOL    HW290797  12.516   1.251  13.017 -0.5780 -1.1727  1.0846
24269SOL     OW90798  13.867  11.059   8.143  0.0201  0.1319  0.0861
24269SOL    HW190799  13.858  11.118   8.068 -1.8962 -0.8263 -0.5186
24269SOL    HW290800  13.849  10.972   8.107  3.5846 -1.0525  0.7842
24270SOL     OW90801  11.007   2.150  10.703 -0.6547  0.0820 -0.0867
24270SOL    HW190802  11.090   2.196  10.713 -1.5398  1.8614 -0.4648
24270SOL    HW290803  11.021   2.091  10.629  0.3067  0.2456 -0.0435
24271SOL     OW90804   1.562  11.070   4.035  0.2196 -0.0790 -0.0293
24271SOL    HW190805   1.560  11.039   4.125  0.2367 -1.6940 -0.5479
24271SOL    HW290806   1.560  10.990   3.982 -0.1683  0.8425 -1.4684
24272SOL     OW90807   0.636   0.441  13.869  0.2268 -0.1517  0.1238
24272SOL    HW190808   0.716   0.404  13.831  0.9660  0.9728  0.5206
24272SOL    HW290809   0.631   0.403  13.957 -1.5004 -2.7770 -1.0019
24273SOL     OW90810   6.622  10.458   1.084 -0.1084 -0.3079 -0.2484
24273SOL    HW190811   6.582  10.467   0.998  1.2163 -1.6292 -1.0437
24273SOL    HW290812   6.707  10.418   1.067  0.8024  0.7304  1.5414
24274SOL     OW90813   6.609   7.160  12.629  0.4277  0.3498 -0.1847
24274SOL    HW190814   6.680   7.127  12.573  1.4543  0.8212  0.7912
24274SOL    HW290815   6.537   7.099  12.615  2.2324 -2.4407  1.5881
24275SOL     OW90816   0.627   0.003   9.449 -0.3552 -0.2317 -0.0044
24275SOL    HW190817   0.609  -0.022   9.358  1.9891 -2.4422  0.0215
24275SOL    HW290818   0.541   0.021   9.486 -1.5382 -0.8482 -2.2280
24276SOL     OW90819  12.601  13.120  10.952  0.5951  0.4313  0.8222
24276SOL    HW190820  12.670  13.055  10.964  0.1337 -0.0994  0.6946
24276SOL    HW290821  12.542  13.107  11.026 -0.4700 -0.5647 -0.1591
24277SOL     OW90822   4.315  10.335   5.240  0.3188 -0.5577 -0.6075
24277SOL    HW190823   4.395  10.305   5.198  0.5467 -0.0977 -0.5114
24277SOL    HW290824   4.337  10.339   5.334 -0.0290 -1.0914 -0.4996
24278SOL     OW90825   6.765  12.650   8.020  0.1293 -0.1663 -0.3066
24278SOL    HW190826   6.851  12.613   8.041  0.5415 -1.5993 -3.7948
24278SOL    HW290827   6.703  12.578   8.033 -0.6103  0.7881  1.9481
24279SOL     OW90828   3.384  13.387  10.095 -0.1965 -0.1846 -0.0542
24279SOL    HW190829   3.333  13.339  10.161 -0.4222  1.5071  1.0744
24279SOL    HW290830   3.401  13.472  10.136  0.5595  0.5403 -1.7975
24280SOL     OW90831  12.073  13.853   6.130 -0.0813  0.5056 -0.3022
24280SOL    HW190832  12.091  13.766   6.165 -0.9729 -0.5467 -2.2968
24280SOL    HW290833  12.082  13.912   6.205 -0.3066 -1.4000  1.2907
24281SOL     OW90834   2.088   5.064   0.315  0.1021 -0.2379  0.3129
24281SOL    HW190835   2.165   5.092   0.365  0.0716  0.7810 -0.1773
24281SOL    HW290836   2.118   4.988   0.266  1.7275  1.7431 -2.0325
24282SOL     OW90837   5.582   5.874   3.818  0.0926  0.3932  0.4220
24282SOL    HW190838   5.648   5.813   3.785  0.3958  0.8955  0.1103
24282SOL    HW290839   5.504   5.819   3.829  1.0287 -0.6734  2.6322
24283SOL     OW90840  12.594   4.161   3.238  0.1030 -0.0120  0.7944
24283SOL    HW190841  12.521   4.177   3.299  2.0428  1.4581  2.9142
24283SOL    HW290842  12.553   4.158   3.152 -2.5529 -0.0351  1.9557
24284SOL     OW90843  12.222  10.170   9.043  0.0756  1.2907  0.0618
24284SOL    HW190844  12.177  10.086   9.051  0.3469  1.1015 -0.3475
24284SOL    HW290845  12.156  10.228   9.004 -0.2490  1.3865  0.7514
24285SOL     OW90846  11.612  12.200  10.542  0.0325 -0.2909 -0.7493
24285SOL    HW190847  11.587  12.147  10.466  1.2466  0.5417 -1.7794
24285SOL    HW290848  11.692  12.159  10.574  0.9612  0.8659 -1.5331
24286SOL     OW90849   8.159   8.374  12.026  0.0623 -0.4267  0.4039
24286SOL    HW190850   8.234   8.422  11.990 -0.5102 -0.7980 -1.3827
24286SOL    HW290851   8.119   8.435  12.089 -0.8001  1.6369 -1.9618
24287SOL     OW90852   0.459   6.778   0.365  0.1115 -1.0437  0.3541
24287SOL    HW190853   0.398   6.840   0.405 -0.4428 -1.8718  0.8212
24287SOL    HW290854   0.476   6.713   0.433 -0.7167 -2.3953 -0.6660
24288SOL     OW90855   2.635  13.502   1.553  0.0479 -0.0442 -0.2994
24288SOL    HW190856   2.582  13.464   1.622 -1.1110 -0.3261 -1.3085
24288SOL    HW290857   2.601  13.591   1.541 -0.0111 -0.1218 -0.7454
24289SOL     OW90858  12.542  13.892   2.275 -0.2349 -0.3618 -0.5409
24289SOL    HW190859  12.606  13.900   2.345 -1.5047 -0.0139  0.6155
24289SOL    HW290860  12.562  13.965   2.216 -0.6974  0.8581  0.7733
24290SOL     OW90861   3.029   0.027   1.820  0.1939  0.1495 -0.1781
24290SOL    HW190862   2.992  -0.029   1.889 -1.8681  0.0084 -1.3107
24290SOL    HW290863   3.021   0.116   1.856 -0.1482  0.0196  0.0765
24291SOL     OW90864   8.987  13.509   7.672  0.5239  0.0163  0.5269
24291SOL    HW190865   8.907  13.481   7.629  0.0102  0.6508  1.0470
24291SOL    HW290866   8.996  13.451   7.747  0.3693  0.1645  0.6597
24292SOL     OW90867   6.951   8.803  12.926 -0.0091  0.3357 -0.4570
24292SOL    HW190868   6.859   8.826  12.915 -0.5986  0.8311  3.6949
24292SOL    HW290869   6.951   8.707  12.930  0.1542  0.1703 -3.0292
24293SOL     OW90870   4.011   9.892   3.556  0.5656  0.8236 -0.0104
24293SOL    HW190871   3.959   9.904   3.635  0.6223 -0.7124  0.2957
24293SOL    HW290872   4.086   9.951   3.567  0.9733  0.0796  1.4699
24294SOL     OW90873   2.636   8.865   0.216 -0.2280  0.3294 -0.0657
24294SOL    HW190874   2.636   8.778   0.255 -0.1068  0.3361 -0.0517
24294SOL    HW290875   2.565   8.862   0.152  1.1578 -0.4701 -1.6266
24295SOL     OW90876  10.402   9.410   5.887 -0.4007 -0.1187 -0.6226
24295SOL    HW190877  10.378   9.319   5.902  0.7799 -0.1582  1.4743
24295SOL    HW290878  10.322   9.459   5.904 -0.3952 -0.6133  1.0690
24296SOL     OW90879   5.729   2.529  13.225 -0.0276 -0.5844  0.2004
24296SOL    HW190880   5.797   2.521  13.292 -1.5369 -0.4619  1.8227
24296SOL    HW290881   5.660   2.579  13.267 -0.9302 -0.2639 -1.5757
24297SOL     OW90882   1.158   3.045  10.336 -0.4303 -0.1947  0.3870
24297SOL    HW190883   1.238   3.016  10.381 -0.1540  0.1397  0.1146
24297SOL    HW290884   1.145   3.135  10.365 -2.0572 -0.9734  2.3044
24298SOL     OW90885   5.234  10.106   4.080  0.3182  0.3659 -0.0233
24298SOL    HW190886   5.249  10.199   4.094  1.5536  0.1901 -0.0483
24298SOL    HW290887   5.155  10.086   4.131  1.3080  0.9682  1.8107
24299SOL     OW90888   5.621   8.650  13.969  0.3209 -0.4871 -0.4167
24299SOL    HW190889   5.642   8.602  14.049 -1.4025 -0.4927  0.0689
24299SOL    HW290890   5.602   8.583  13.904 -1.4571 -0.5239  0.0880
24300SOL     OW90891   1.646   2.284  12.326  0.2782  0.0740 -0.0951
24300SOL    HW190892   1.621   2.194  12.346  0.7780 -0.9777 -3.5311
24300SOL    HW290893   1.575   2.318  12.272  0.8841  1.1711 -0.2430
24301SOL     OW90894   4.110   7.707   2.742 -0.3471 -0.3366  0.0291
24301SOL    HW190895   4.117   7.802   2.750  1.3798 -0.3547 -0.7895
24301SOL    HW290896   4.155   7.686   2.660 -0.9964 -1.8323  0.0138
24302SOL     OW90897  11.069   4.221   5.514 -0.1756 -0.2432  0.1499
24302SOL    HW190898  11.081   4.205   5.607 -0.6309 -1.7257 -0.0176
24302SOL    HW290899  10.981   4.259   5.507 -0.2373 -0.3564  0.3039
24303SOL     OW90900   3.243   6.551  10.778  0.1771  0.2041  1.0596
24303SOL    HW190901   3.263   6.644  10.765 -1.1461  0.3372 -0.3890
24303SOL    HW290902   3.197   6.526  10.698  1.1584 -1.9049  1.1020
24304SOL     OW90903   2.037   8.867  11.413 -0.4123 -0.2353 -0.3437
24304SOL    HW190904   1.961   8.925  11.423  0.1549  0.6944 -1.2366
24304SOL    HW290905   2.083   8.900  11.336  0.9674 -0.7158  0.2337
24305SOL     OW90906   1.992  12.086   1.527 -0.1743 -0.4061  0.2488
24305SOL    HW190907   1.928  12.019   1.549 -1.1651  0.1007 -0.9561
24305SOL    HW290908   2.011  12.072   1.434  0.5052  0.2436  0.2770
24306SOL     OW90909   7.722   7.958   0.274 -0.2023 -0.7056 -0.1212
24306SOL    HW190910   7.695   7.896   0.342  1.1781  0.2186  1.3331
24306SOL    HW290911   7.817   7.966   0.286 -0.3476  1.7281 -0.2110
24307SOL     OW90912  12.842  11.750   0.465  0.3594 -0.4842  0.4213
24307SOL    HW190913  12.923  11.800   0.454 -0.4634  0.9855  0.8097
24307SOL    HW290914  12.820  11.720   0.377 -0.0129  1.3113 -0.1441
24308SOL     OW90915   0.408  11.235  13.316  0.0312 -0.0001 -0.1951
24308SOL    HW190916   0.326  11.243  13.269  0.4691 -0.1745 -1.0004
24308SOL    HW290917   0.443  11.149  13.291  1.8770  1.2478 -2.2108
24309SOL     OW90918  13.933  14.124  14.057 -0.0103  0.2295  0.0659
24309SOL    HW190919  13.847  14.145  14.020  0.2413 -0.9612 -1.2966
24309SOL    HW290920  13.957  14.041  14.016  2.0712  0.8452 -0.0953
24310SOL     OW90921   7.715   3.002   0.452  0.4388 -0.0426  0.3435
24310SOL    HW190922   7.704   2.907   0.459 -1.1612 -0.1272 -2.0397
24310SOL    HW290923   7.676   3.037   0.532  1.2352 -1.3787  1.3505
24311SOL     OW90924  13.855   7.859   2.458  0.0237  0.4181  0.1998
24311SOL    HW190925  13.854   7.810   2.541 -0.2915  0.9001  0.4843
24311SOL    HW290926  13.765   7.853   2.426  0.2791 -0.2584 -0.4046
24312SOL     OW90927   7.279   9.497   0.713  0.4805 -0.5176 -0.9028
24312SOL    HW190928   7.308   9.412   0.746  1.7009  0.5590  1.0297
24312SOL    HW290929   7.194   9.480   0.674  0.1376 -2.4214  0.5032
24313SOL     OW90930   5.099   9.736   7.050  0.3424  0.3248 -0.1625
24313SOL    HW190931   5.049   9.797   6.996  0.9805 -0.3051 -1.5236
24313SOL    HW290932   5.101   9.655   6.998  2.1430  0.1237  0.1772
24314SOL     OW90933  13.459   5.305   8.044 -0.1503 -0.4525  0.3172
24314SOL    HW190934  13.483   5.272   8.131 -0.0992  0.2337  0.5695
24314SOL    HW290935  13.516   5.380   8.030 -0.9302  0.1284  0.1763
24315SOL     OW90936   1.380   4.060  12.077  0.4399 -0.0766  0.0984
24315SOL    HW190937   1.342   4.049  11.990 -0.9586 -0.0967  0.6871
24315SOL    HW290938   1.365   3.976  12.120 -0.4747  0.4899  0.9362
24316SOL     OW90939   7.723   7.132   8.200  0.7990  1.0009  0.3215
24316SOL    HW190940   7.699   7.045   8.230 -0.3238  1.2400  0.1311
24316SOL    HW290941   7.695   7.191   8.270  1.7753  1.2113  0.5643
24317SOL     OW90942  12.164   2.725   4.107 -0.3702  0.1583 -0.6171
24317SOL    HW190943  12.082   2.748   4.062 -0.9568 -1.9843 -0.7488
24317SOL    HW290944  12.201   2.655   4.054  0.3473 -0.5070  0.7214
24318SOL     OW90945   5.294   0.635  10.210 -0.8959  0.7311 -0.8093
24318SOL    HW190946   5.271   0.697  10.279  0.4138  0.4943 -0.1326
24318SOL    HW290947   5.380   0.664  10.179  1.2820 -2.3960  1.6557
24319SOL     OW90948   1.708  11.356   5.579 -0.0511  0.1740  0.4786
24319SOL    HW190949   1.760  11.426   5.618  0.8274  0.1852 -0.6592
24319SOL    HW290950   1.741  11.348   5.489 -0.8471 -0.9923  0.2602
24320SOL     OW90951   6.520   0.047   0.835 -0.1430  0.1477  0.0605
24320SOL    HW190952   6.452   0.059   0.901 -0.9682 -0.5932 -0.6267
24320SOL    HW290953   6.514   0.125   0.779 -0.5407  0.0151 -0.0861
24321SOL     OW90954  12.325  11.041   6.285 -0.2650 -0.3207 -0.0709
24321SOL    HW190955  12.395  11.040   6.220 -1.0184  0.3676 -0.9340
24321SOL    HW290956  12.301  10.948   6.295 -0.3876 -0.4158 -1.0759
24322SOL     OW90957   4.120   7.786   7.928 -0.2787  0.2287  0.2319
24322SOL    HW190958   4.184   7.818   7.865 -0.1256  1.1363  0.8256
24322SOL    HW290959   4.064   7.861   7.945 -0.5232 -0.1002  0.9171
24323SOL     OW90960   9.359  11.759   7.701 -0.3406  0.8106  0.6254
24323SOL    HW190961   9.274  11.740   7.660 -0.2756 -0.0527  0.8617
24323SOL    HW290962   9.336  11.807   7.781 -0.5781  0.9796  0.4580
24324SOL     OW90963  10.807  11.423  11.841 -0.4292 -0.0183  0.0856
24324SOL    HW190964  10.819  11.518  11.834  0.1260 -0.0769  0.2418
24324SOL    HW290965  10.801  11.393  11.750 -1.0211  0.2145  0.0415
24325SOL     OW90966  12.124   6.357  12.962 -0.1754  0.2761 -0.3511
24325SOL    HW190967  12.184   6.305  13.016 -0.2406 -0.7449 -1.2393
24325SOL    HW290968  12.053   6.380  13.022  0.0889 -0.2633  0.1872
24326SOL     OW90969   9.856   6.932  10.484  0.4606 -0.1322 -0.2138
24326SOL    HW190970   9.845   7.025  10.507 -0.2966 -0.3241  0.2526
24326SOL    HW290971   9.914   6.932  10.408 -0.7517  0.8291 -1.1782
24327SOL     OW90972  10.886  10.277   1.624  0.2537  0.7130 -0.6431
24327SOL    HW190973  10.837  10.278   1.706  1.2479  1.0359 -0.0365
24327SOL    HW290974  10.975  10.254   1.649  0.4565  0.2800 -1.7064
24328SOL     OW90975   3.324  11.093   6.282  0.1131  0.0995 -0.0728
24328SOL    HW190976   3.367  11.170   6.320  1.0443 -0.4718  0.0603
24328SOL    HW290977   3.352  11.020   6.338 -2.9194 -0.0117  1.4964
24329SOL     OW90978  11.355   8.463   5.912  0.1192 -0.1791 -0.5698
24329SOL    HW190979  11.444   8.500   5.912  0.6552 -1.3821  0.7193
24329SOL    HW290980  11.330   8.461   6.004 -2.1345  2.0596 -1.0365
24330SOL     OW90981  12.972   5.713   2.686 -0.3806 -0.1465  0.2999
24330SOL    HW190982  12.980   5.757   2.771 -0.8379 -0.3955  0.4755
24330SOL    HW290983  12.882   5.681   2.684  0.0180 -1.3359  0.3061
24331SOL     OW90984  11.698   8.152   5.208  0.1852 -0.5009 -0.3551
24331SOL    HW190985  11.759   8.224   5.226 -0.0817 -0.3738  0.0672
24331SOL    HW290986  11.703   8.097   5.286  1.3337 -1.6413 -1.1983
24332SOL     OW90987   1.945   4.485   0.490  0.3952 -0.1045  0.7623
24332SOL    HW190988   1.991   4.517   0.568  1.3284 -1.6436  0.9015
24332SOL    HW290989   1.870   4.437   0.525 -1.1029  1.9721  0.5502
24333SOL     OW90990  13.761   0.328   9.391  0.1786 -0.4754  0.5251
24333SOL    HW190991  13.666   0.335   9.397  0.1543  0.0999 -0.2872
24333SOL    HW290992  13.776   0.281   9.308  0.6235  1.4121 -0.5220
24334SOL     OW90993   5.186  10.460  11.678  0.0324  0.3476 -0.3358
24334SOL    HW190994   5.193  10.461  11.774 -0.0445  0.6627 -0.3307
24334SOL    HW290995   5.113  10.518  11.659 -0.7309 -0.6614 -0.5349
24335SOL     OW90996  13.879  10.939   7.751 -0.5534  0.4789 -0.1538
24335SOL    HW190997  13.918  10.887   7.821 -1.5061 -0.8885 -0.5896
24335SOL    HW290998  13.889  10.884   7.673 -0.2487  1.6162 -0.9376
24336SOL     OW90999   1.140   8.414  13.514  0.0298 -0.1924 -0.1034
24336SOL    HW191000   1.084   8.359  13.569  0.9226 -0.2031  0.8503
24336SOL    HW291001   1.086   8.490  13.491 -0.8498 -0.9305 -0.4949
24337SOL     OW91002  11.949  12.179   9.971 -0.2022 -0.5353  0.4506
24337SOL    HW191003  11.989  12.164  10.057 -1.8295 -0.4799  1.2754
24337SOL    HW291004  12.016  12.155   9.908  2.1661  2.2258  1.6833
24338SOL     OW91005  14.097   0.742   0.574 -0.0567 -0.5707  0.8113
24338SOL    HW191006  14.175   0.701   0.536 -0.5716 -1.1358  0.3243
24338SOL    HW291007  14.042   0.762   0.498 -1.3796 -2.2914  1.2595
24339SOL     OW91008  11.656  13.972   1.711  0.1210 -0.3699  0.3166
24339SOL    HW191009  11.614  14.005   1.631  0.8575  0.3369  0.2167
24339SOL    HW291010  11.706  14.046   1.745 -0.4338 -0.5624  1.6217
24340SOL     OW91011   9.957  12.984   0.270  0.4627 -0.7362 -0.4544
24340SOL    HW191012   9.869  13.009   0.243 -0.0827 -1.2436  0.8169
24340SOL    HW291013   9.989  13.059   0.321 -0.0322 -1.3638  0.8176
24341SOL     OW91014   5.433   0.080   1.323  0.0591  0.0643  0.2703
24341SOL    HW191015   5.450  -0.014   1.323  0.4150  0.1284  0.6970
24341SOL    HW291016   5.499   0.116   1.264  1.5912  0.3316  2.0452
24342SOL     OW91017   5.692   5.369   1.997  0.3237  0.2676 -0.2851
24342SOL    HW191018   5.701   5.321   2.079 -1.1401 -0.5755 -0.5981
24342SOL    HW291019   5.774   5.418   1.990  2.0472 -2.3447 -0.0635
24343SOL     OW91020   8.722   4.322   7.315 -0.2409 -0.2253  0.1096
24343SOL    HW191021   8.652   4.336   7.251 -0.2638  0.7389  0.3187
24343SOL    HW291022   8.702   4.237   7.355 -1.4779  0.1652  0.3761
24344SOL     OW91023   8.530   9.863   6.195  0.7401  0.5580 -0.3106
24344SOL    HW191024   8.562   9.871   6.105  0.4928  0.1934 -0.4328
24344SOL    HW291025   8.459   9.800   6.190  0.4817  0.8122  0.0830
24345SOL     OW91026   1.642   0.679   7.859 -0.2904  0.1912  0.1293
24345SOL    HW191027   1.673   0.733   7.931  0.5768 -0.8892  0.5871
24345SOL    HW291028   1.547   0.678   7.869 -0.0780 -1.8100  2.6533
24346SOL     OW91029   9.930   2.348   8.245  0.2467  0.1298  0.4099
24346SOL    HW191030   9.975   2.429   8.219  0.6024 -0.4556 -0.8494
24346SOL    HW291031   9.861   2.378   8.304  1.4749  1.1753  1.3896
24347SOL     OW91032  11.064   2.096   1.261  0.0742  0.2069  0.5077
24347SOL    HW191033  11.082   2.162   1.195 -0.2212 -0.4116 -0.2007
24347SOL    HW291034  10.983   2.124   1.303 -0.2210  0.1228 -0.0087
24348SOL     OW91035   5.925   3.617  12.969 -0.7112 -0.1837 -0.0557
24348SOL    HW191036   5.972   3.701  12.965  0.4307 -0.7651  0.6224
24348SOL    HW291037   5.933   3.589  13.060  1.0447 -2.1626 -0.7495
24349SOL     OW91038   2.214   7.607   3.736 -0.1483  0.3948  0.0388
24349SOL    HW191039   2.231   7.620   3.643 -0.3195  1.6129  0.1645
24349SOL    HW291040   2.298   7.623   3.779  0.3444 -1.7448 -0.0014
24350SOL     OW91041   6.424   2.557  10.674  0.1880 -0.1685 -0.4422
24350SOL    HW191042   6.478   2.513  10.609  0.6318  1.7726 -1.4459
24350SOL    HW291043   6.451   2.518  10.758  3.6631  1.1600 -0.7884
24351SOL     OW91044  13.167   1.166   1.914 -0.6535 -0.2234 -0.3874
24351SOL    HW191045  13.103   1.134   1.978  0.4167 -0.4588  0.6061
24351SOL    HW291046  13.227   1.221   1.965  1.5625 -2.2032 -0.6409
24352SOL     OW91047  12.218   8.251  11.567  0.0108 -0.7287 -0.0696
24352SOL    HW191048  12.236   8.342  11.590  0.2016 -1.1810  1.7197
24352SOL    HW291049  12.286   8.200  11.612 -0.7475 -1.8379 -0.1255
24353SOL     OW91050   5.651   6.745   5.051 -0.2295  0.5041 -0.0552
24353SOL    HW191051   5.663   6.650   5.046 -3.4572 -0.2149  2.3546
24353SOL    HW291052   5.629   6.771   4.962 -1.1136 -1.3882 -0.4537
24354SOL     OW91053  12.669  11.387   7.627 -0.6749 -0.5906 -0.2373
24354SOL    HW191054  12.717  11.425   7.554  0.4335 -1.5286 -0.0409
24354SOL    HW291055  12.703  11.297   7.634 -0.5035 -0.4291  1.6100
24355SOL     OW91056   5.341   6.557   9.915  0.2684  0.0875 -0.9538
24355SOL    HW191057   5.375   6.637   9.875  0.0599  0.1146 -1.0780
24355SOL    HW291058   5.257   6.543   9.871  0.7641 -0.7580 -1.6558
24356SOL     OW91059   8.075   1.360   9.430 -0.0074 -0.4678  0.4062
24356SOL    HW191060   8.095   1.407   9.511 -0.5517  1.2854 -0.4240
24356SOL    HW291061   8.003   1.302   9.453  1.3478 -1.7480  1.7154
24357SOL     OW91062   5.962   4.072   3.128  0.6679 -0.2602  0.1321
24357SOL    HW191063   5.949   4.071   3.223 -0.7183 -0.8248 -0.0454
24357SOL    HW291064   5.950   4.163   3.103  0.7935 -0.1500  0.4675
24358SOL     OW91065   7.256   5.779   1.149  0.1196 -0.2501  0.4607
24358SOL    HW191066   7.273   5.852   1.090 -3.6043  1.3315  1.0556
24358SOL    HW291067   7.341   5.759   1.188  2.2847  0.2225 -3.5009
24359SOL     OW91068  11.173   8.383   0.473  0.1699  0.4692  0.1221
24359SOL    HW191069  11.126   8.464   0.494  0.8354  0.6866  0.8188
24359SOL    HW291070  11.175   8.334   0.555  1.1825  0.4854  0.1218
24360SOL     OW91071   8.997   8.482   7.253 -0.2740  0.9182  0.0836
24360SOL    HW191072   9.052   8.448   7.324 -0.6813  1.9644  0.9484
24360SOL    HW291073   9.010   8.422   7.181  1.8876  1.0279  0.3044
24361SOL     OW91074   0.218   5.449   9.236 -0.7008 -0.3398  0.0907
24361SOL    HW191075   0.124   5.438   9.220 -0.7843 -0.1464  0.4522
24361SOL    HW291076   0.223   5.494   9.320 -0.2790 -0.5773  0.1935
24362SOL     OW91077   7.755   6.308   5.350 -0.2000 -0.3315 -0.2094
24362SOL    HW191078   7.726   6.218   5.334  0.0123 -0.0480 -2.5244
24362SOL    HW291079   7.829   6.299   5.409 -1.2800 -1.5142  1.0323
24363SOL     OW91080   8.780   4.430  10.137  0.6939 -0.1624 -0.0137
24363SOL    HW191081   8.827   4.359  10.092  1.0560 -0.2209  0.4538
24363SOL    HW291082   8.733   4.475  10.066 -0.3140 -1.4322 -0.1937
24364SOL     OW91083   4.217  13.821   1.285  0.5283  0.1626  0.1333
24364SOL    HW191084   4.310  13.844   1.281 -0.1063  3.0579  0.1597
24364SOL    HW291085   4.188  13.852   1.371 -0.2341 -1.9498  0.7085
24365SOL     OW91086   8.321   9.163   5.714 -0.3334 -0.3319  0.0658
24365SOL    HW191087   8.319   9.256   5.737 -2.1938 -0.2551 -0.2557
24365SOL    HW291088   8.283   9.160   5.626  0.5142 -1.3160 -0.2742
24366SOL     OW91089   6.711  10.264  10.472 -0.3581 -0.2448 -0.3464
24366SOL    HW191090   6.694  10.359  10.475 -0.1703 -0.2154 -0.2412
24366SOL    HW291091   6.708  10.236  10.563 -0.0488 -0.2787 -0.3484
24367SOL     OW91092   8.796   6.761  12.896 -0.0324  0.3487  0.5113
24367SOL    HW191093   8.758   6.849  12.903 -3.2063 -0.9525  0.9509
24367SOL    HW291094   8.785   6.723  12.983 -1.4026 -1.4650 -0.3863
24368SOL     OW91095   6.225  12.312  11.101  0.1803 -0.0167 -0.0894
24368SOL    HW191096   6.300  12.321  11.043 -0.1106  2.2492 -0.2119
24368SOL    HW291097   6.253  12.251  11.168  2.7025  1.8483  0.6832
24369SOL     OW91098   3.947   4.963   1.065 -0.3839  0.5150  0.7415
24369SOL    HW191099   4.014   4.962   0.997  0.4128  1.0656  1.4954
24369SOL    HW291100   3.864   4.957   1.017  0.1991 -0.4333 -0.1909
24370SOL     OW91101  11.968   8.858  13.110  0.2407  0.5604 -0.0914
24370SOL    HW191102  11.885   8.826  13.074  0.7830 -0.8249 -0.1687
24370SOL    HW291103  12.009   8.905  13.037 -0.5114  1.3366 -0.0227
24371SOL     OW91104   1.148   3.274   3.824 -0.5975 -0.1070 -0.0956
24371SOL    HW191105   1.197   3.340   3.775 -1.9078 -0.8131 -2.5432
24371SOL    HW291106   1.213   3.235   3.883  1.1716  0.6683 -1.4332
24372SOL     OW91107   3.668   8.300   6.341 -0.1482  0.3155  0.8165
24372SOL    HW191108   3.712   8.270   6.262  1.8186 -0.6988  2.2287
24372SOL    HW291109   3.644   8.391   6.322  1.7036  0.6004 -0.3650
24373SOL     OW91110   7.121  12.872  10.047  0.2116 -0.0235 -0.2147
24373SOL    HW191111   7.216  12.865  10.053  0.1390 -2.9319 -0.8740
24373SOL    HW291112   7.089  12.783  10.065 -2.2616  0.4396 -1.7914
24374SOL     OW91113   6.646  11.018   6.444 -0.5069  0.7270 -0.2831
24374SOL    HW191114   6.655  11.095   6.387  1.3714 -0.2481 -1.3848
24374SOL    HW291115   6.577  10.966   6.404  1.3797 -0.3792 -2.2899
24375SOL     OW91116   3.931  11.596   5.466 -0.1829 -0.3931  0.3007
24375SOL    HW191117   3.872  11.540   5.516  0.6509  0.4209  2.2881
24375SOL    HW291118   3.897  11.593   5.376 -1.3081 -2.4718  0.7493
24376SOL     OW91119   4.955   8.292   1.119  0.2545  0.3169  0.2429
24376SOL    HW191120   5.016   8.317   1.189  0.3741 -0.9280  0.6109
24376SOL    HW291121   4.869   8.318   1.152  0.3560  0.1324  0.6693
24377SOL     OW91122   2.448   2.769   6.775 -0.0821  0.4526  0.5480
24377SOL    HW191123   2.527   2.768   6.828  0.3721  1.3533 -0.0895
24377SOL    HW291124   2.476   2.740   6.689 -0.3542  1.1800  0.2076
24378SOL     OW91125   2.432   5.410   0.689 -0.3553  0.4432  0.2831
24378SOL    HW191126   2.370   5.370   0.628  1.0191 -0.5056 -0.5625
24378SOL    HW291127   2.518   5.387   0.654  0.4838  1.3359  1.6548
24379SOL     OW91128   3.102   0.479   1.294  0.0327  0.5241  0.0886
24379SOL    HW191129   3.171   0.446   1.352 -0.4539  0.8877  0.8770
24379SOL    HW291130   3.024   0.481   1.348 -0.7573 -0.4837 -0.9731
24380SOL     OW91131   4.404   6.400   5.483 -0.4322  0.4647 -0.0762
24380SOL    HW191132   4.458   6.335   5.438  0.5148  0.6771  0.7047
24380SOL    HW291133   4.395   6.366   5.572 -0.3328  1.1541  0.2019
24381SOL     OW91134   0.169   1.354   0.384  0.0700 -0.1384  0.0459
24381SOL    HW191135   0.216   1.399   0.454  0.9378  0.5760 -0.9518
24381SOL    HW291136   0.165   1.263   0.412  1.8874 -0.1909  0.2866
24382SOL     OW91137   2.795  13.839  13.974 -0.0333 -0.3274  0.1277
24382SOL    HW191138   2.849  13.883  14.040 -0.8427  1.7012 -0.4945
24382SOL    HW291139   2.855  13.818  13.903  0.7990 -2.3182  1.3417
24383SOL     OW91140   9.945  13.299  13.222 -0.5509  0.6358 -0.4006
24383SOL    HW191141  10.039  13.281  13.223 -0.4290  1.2091 -0.8018
24383SOL    HW291142   9.929  13.333  13.134 -0.9014  1.7123  0.0712
24384SOL     OW91143   0.339  10.272   2.820  0.3566  0.9699 -0.4521
24384SOL    HW191144   0.351  10.183   2.853  0.2497  1.4142  0.8051
24384SOL    HW291145   0.244  10.282   2.815  0.3254  0.3171 -2.6154
24385SOL     OW91146   4.519  13.774   1.219 -0.3467  0.1609 -0.9501
24385SOL    HW191147   4.572  13.718   1.277  0.3156  0.5153 -1.2087
24385SOL    HW291148   4.514  13.724   1.137 -3.4509 -1.5829  0.1266
24386SOL     OW91149   5.217  11.136   4.138 -0.0396 -0.0845 -0.4420
24386SOL    HW191150   5.183  11.048   4.155 -0.4291 -0.0619 -1.0977
24386SOL    HW291151   5.139  11.191   4.128  0.1869  0.5510  0.9613
24387SOL     OW91152   8.972   9.345   7.375  0.4315 -0.3428 -0.5881
24387SOL    HW191153   8.948   9.254   7.387 -2.3575 -0.0513 -2.7180
24387SOL    HW291154   9.020   9.347   7.292  0.1781  0.1261 -0.7336
24388SOL     OW91155   5.588   6.948   5.800 -0.3090  0.0204  0.2742
24388SOL    HW191156   5.660   6.902   5.844  0.1113 -1.3269 -1.6723
24388SOL    HW291157   5.524   6.880   5.780 -0.4917  0.5657 -1.1164
24389SOL     OW91158   6.553   8.179  13.463  0.1457 -0.2003 -0.1433
24389SOL    HW191159   6.574   8.157  13.554 -1.2590 -1.7456 -0.1444
24389SOL    HW291160   6.563   8.274  13.459  2.7005 -0.3296  0.9315
24390SOL     OW91161   1.646  14.031   4.168  0.0368 -0.2811  0.4547
24390SOL    HW191162   1.687  13.960   4.120  0.5564  0.7618 -0.7025
24390SOL    HW291163   1.582  13.989   4.224  1.8798 -1.8648  1.4828
24391SOL     OW91164  11.714   7.481  12.657 -0.1436 -0.0217 -0.2296
24391SOL    HW191165  11.770   7.499  12.581  0.3064  1.3580  0.3970
24391SOL    HW291166  11.655   7.411  12.627  2.5845 -2.3674 -0.5753
24392SOL     OW91167   5.375  13.382   3.753 -0.5545  0.1093 -0.0841
24392SOL    HW191168   5.468  13.399   3.769 -0.4218 -0.1653 -0.5216
24392SOL    HW291169   5.369  13.286   3.750 -1.1839  0.0643  1.7747
24393SOL     OW91170  11.887  12.012   3.014 -0.3826 -0.2039  0.0536
24393SOL    HW191171  11.872  11.918   3.006  0.7401 -0.4305  0.4339
24393SOL    HW291172  11.882  12.028   3.109  1.9014 -0.3493  0.2421
24394SOL     OW91173  13.887   2.452   5.072 -0.0047  0.1746  0.1782
24394SOL    HW191174  13.877   2.542   5.041  0.0921  0.7389  1.7140
24394SOL    HW291175  13.978   2.431   5.052 -0.5114 -0.2877 -1.8798
24395SOL     OW91176   8.750  12.952   5.957 -0.7255 -0.2804  0.3908
24395SOL    HW191177   8.774  13.041   5.931 -1.4210 -0.1032  0.3455
24395SOL    HW291178   8.720  12.911   5.876  2.1547 -1.4614 -0.2075
24396SOL     OW91179  11.986   0.299   6.134 -0.0210 -0.2590  0.1536
24396SOL    HW191180  12.025   0.344   6.209 -2.6348 -0.0702  1.5181
24396SOL    HW291181  12.006   0.206   6.149 -0.0452 -0.1674  0.7795
24397SOL     OW91182   2.055   7.073   7.135 -0.2312 -0.4926  0.0050
24397SOL    HW191183   2.069   7.156   7.181 -0.9461  0.0544 -0.7249
24397SOL    HW291184   1.961   7.057   7.144 -0.0520 -1.3990  0.4020
24398SOL     OW91185   3.357   4.419   3.289  0.0128  0.0280 -0.1621
24398SOL    HW191186   3.341   4.373   3.206  0.3467 -0.1459 -0.1323
24398SOL    HW291187   3.453   4.418   3.298 -0.0006  0.4048  0.0215
24399SOL     OW91188   0.217   8.912   6.740  0.3951 -0.5090  0.1563
24399SOL    HW191189   0.239   9.005   6.749  0.4608 -0.3160 -1.5720
24399SOL    HW291190   0.220   8.897   6.645 -0.6652 -2.0241  0.3399
24400SOL     OW91191  11.100   1.242  11.312 -0.4793  0.2297  0.0816
24400SOL    HW191192  11.033   1.178  11.335  0.6609 -0.5587  1.3550
24400SOL    HW291193  11.052   1.313  11.270 -2.2576  0.1242  1.7719
24401SOL     OW91194   0.244   9.821  11.597 -0.1191  0.4142 -0.1210
24401SOL    HW191195   0.253   9.873  11.676 -0.2712 -0.2818  0.3644
24401SOL    HW291196   0.300   9.864  11.533  0.1610  0.8669  0.4247
24402SOL     OW91197   4.926   5.761   7.596  0.7303  0.3271 -0.0452
24402SOL    HW191198   4.851   5.818   7.613  1.7269  1.3518  1.1989
24402SOL    HW291199   4.909   5.723   7.510  0.0004  2.4867 -0.9122
24403SOL     OW91200  11.430  11.652  10.073  0.2602 -0.9136 -0.1998
24403SOL    HW191201  11.344  11.625  10.105  0.5236 -1.9679 -0.3174
24403SOL    HW291202  11.432  11.620   9.982  0.2629  0.3133 -0.6472
24404SOL     OW91203   6.716   2.206   9.018 -0.0527 -0.4515  0.0174
24404SOL    HW191204   6.649   2.156   8.971 -1.4213  0.9052  0.4213
24404SOL    HW291205   6.798   2.161   8.999 -0.6683 -0.5749 -2.8362
24405SOL     OW91206   0.536   2.305   2.974 -0.9690 -0.1448  0.5206
24405SOL    HW191207   0.592   2.228   2.984  1.2805  1.5337  2.0363
24405SOL    HW291208   0.485   2.309   3.055  0.4751  0.9938  1.4503
24406SOL     OW91209  11.454   0.421   2.873  0.2764 -0.1045  0.4298
24406SOL    HW191210  11.513   0.496   2.862  0.1916 -0.2927 -1.7263
24406SOL    HW291211  11.366   0.459   2.873  0.0890 -0.2332 -2.7490
24407SOL     OW91212  13.858   5.335  12.668  0.0945  0.2161  0.3501
24407SOL    HW191213  13.892   5.422  12.687 -0.1844  0.3602  0.1960
24407SOL    HW291214  13.810   5.345  12.586 -0.8325  0.1639  0.8591
24408SOL     OW91215   1.335   5.628   8.303 -0.0075  0.1050  0.2303
24408SOL    HW191216   1.391   5.564   8.259  0.3093 -0.3612  1.2942
24408SOL    HW291217   1.246   5.602   8.279  0.1694  0.2402 -0.6322
24409SOL     OW91218   8.573   5.099   3.931 -0.4639 -0.4422  0.2007
24409SOL    HW191219   8.658   5.091   3.974  0.0426  0.8975 -0.4991
24409SOL    HW291220   8.548   5.008   3.912  0.4100 -0.9045  1.1490
24410SOL     OW91221  14.139  13.842  12.390 -0.0219 -0.0736 -0.8670
24410SOL    HW191222  14.118  13.781  12.320  1.3710 -0.7857 -0.6923
24410SOL    HW291223  14.222  13.882  12.363  0.1355  0.2078 -0.0002
24411SOL     OW91224   1.327   8.762   0.133 -0.3529  0.1025 -0.2793
24411SOL    HW191225   1.417   8.793   0.130 -0.1156 -0.3969  1.1017
24411SOL    HW291226   1.306   8.739   0.043  0.7869  0.5363 -0.6641
24412SOL     OW91227   5.135   3.609   3.880  0.0684  0.1929 -0.0726
24412SOL    HW191228   5.222   3.588   3.847  0.4042  0.1625  0.7962
24412SOL    HW291229   5.123   3.702   3.862 -0.5531 -0.2321 -2.0137
24413SOL     OW91230  14.063   4.774  11.029 -0.1283 -0.0055  0.4372
24413SOL    HW191231  14.110   4.696  11.059 -1.6036 -0.8987  0.5186
24413SOL    HW291232  14.099   4.792  10.942  0.7288 -0.3399  0.7158
24414SOL     OW91233  12.338   8.752   3.901  0.0645 -0.0613  0.0494
24414SOL    HW191234  12.429   8.727   3.887  0.4970  0.9707  0.9284
24414SOL    HW291235  12.312   8.704   3.979 -0.1421 -0.3129 -0.1694
24415SOL     OW91236  11.397   8.086   9.204  0.2391 -0.0472 -0.0394
24415SOL    HW191237  11.412   8.169   9.159  0.2628 -0.8957 -1.6992
24415SOL    HW291238  11.406   8.106   9.297  1.0886  1.6199 -0.4478
24416SOL     OW91239   8.744  13.439   7.064  0.3633  0.0029 -0.3332
24416SOL    HW191240   8.722  13.389   7.142 -0.4048  0.5425 -0.1916
24416SOL    HW291241   8.661  13.479   7.037  0.3786 -0.9733 -2.0054
24417SOL     OW91242   6.250  12.878  11.926  0.1577 -0.1063  0.0389
24417SOL    HW191243   6.246  12.973  11.919  1.5589 -0.0321 -0.0867
24417SOL    HW291244   6.180  12.856  11.988 -0.0250  1.0268  0.2660
24418SOL     OW91245   1.324   4.261  11.704 -0.0716  0.2234 -0.3153
24418SOL    HW191246   1.267   4.338  11.702  0.8319  0.9401 -2.8098
24418SOL    HW291247   1.288   4.203  11.636  1.9228  0.5906 -1.7905
24419SOL     OW91248   1.143   8.257   0.490  0.2782 -0.2563 -0.2704
24419SOL    HW191249   1.089   8.305   0.427 -0.5824 -0.0142  0.6374
24419SOL    HW291250   1.128   8.165   0.469  0.8562 -0.1718 -1.1175
24420SOL     OW91251  10.216  10.401  13.808 -0.2165 -0.6617  0.3587
24420SOL    HW191252  10.243  10.310  13.816 -2.0523 -1.1755  1.2402
24420SOL    HW291253  10.130  10.397  13.765 -0.6454  0.5910  1.0515
24421SOL     OW91254   8.256   7.076   1.810  0.3166  0.0996 -1.0878
24421SOL    HW191255   8.347   7.070   1.781  0.1461  0.0710 -1.6313
24421SOL    HW291256   8.220   6.988   1.795  0.5147 -0.2404  0.2477
24422SOL     OW91257   4.253  11.361  10.007  0.2250 -0.8786  0.4656
24422SOL    HW191258   4.347  11.342  10.012 -0.0665 -2.2826  0.7922
24422SOL    HW291259   4.214  11.309  10.077 -0.7347  0.2690  0.8321
24423SOL     OW91260  13.805  10.360   1.448  0.3004  0.2592 -0.5192
24423SOL    HW191261  13.782  10.429   1.510  0.2309  1.4151 -1.7682
24423SOL    HW291262  13.729  10.303   1.445 -0.2676  1.0035 -0.5933
24424SOL     OW91263   1.011   1.195   6.845 -0.0060 -0.0478  0.0523
24424SOL    HW191264   1.045   1.123   6.898 -1.9690 -0.8117  0.3778
24424SOL    HW291265   0.968   1.253   6.908 -0.9121 -0.0953 -0.5093
24425SOL     OW91266  14.059  12.528   4.980  0.1288  0.4797 -0.3042
24425SOL    HW191267  14.072  12.541   5.074  0.4473 -0.6213 -0.1849
24425SOL    HW291268  14.089  12.439   4.963 -0.3978  0.4834 -1.3629
24426SOL     OW91269  11.905   0.234   1.379 -0.2123  0.0275  0.0418
24426SOL    HW191270  11.837   0.213   1.443 -1.0947 -1.0574 -1.1969
24426SOL    HW291271  11.980   0.182   1.406 -0.1268  0.5874  0.9351
24427SOL     OW91272   1.136  12.636  11.107  0.3703  0.0479  0.5552
24427SOL    HW191273   1.205  12.635  11.174  1.5105  0.1747 -0.5822
24427SOL    HW291274   1.105  12.727  11.106 -0.9027 -0.3100  2.0957
24428SOL     OW91275   7.686   5.279   9.867 -0.3482 -0.0794  0.2688
24428SOL    HW191276   7.739   5.266   9.946 -0.8875 -0.9159  0.5116
24428SOL    HW291277   7.748   5.309   9.801  0.3451 -0.5581  0.6818
24429SOL     OW91278   2.522  12.702   1.941 -0.5365  0.3632  0.4571
24429SOL    HW191279   2.546  12.622   1.989 -0.7124 -0.3274 -0.5829
24429SOL    HW291280   2.431  12.718   1.966 -1.2340 -1.0558 -1.0378
24430SOL     OW91281   3.775   9.763   3.920 -0.5922 -0.2970  0.0107
24430SOL    HW191282   3.714   9.738   3.852  0.0935 -0.6537 -0.4888
24430SOL    HW291283   3.720   9.786   3.995 -1.3148 -0.9565 -0.3047
24431SOL     OW91284   4.807   8.909   4.577  0.1429  0.3915 -0.2344
24431SOL    HW191285   4.749   8.835   4.594  1.1130 -0.1582  0.8469
24431SOL    HW291286   4.805   8.959   4.659 -0.1800  1.3437 -0.8127
24432SOL     OW91287   1.118  13.630   2.218  0.2963 -0.4209  0.1729
24432SOL    HW191288   1.036  13.593   2.249 -0.6424  1.2994 -0.1474
24432SOL    HW291289   1.182  13.608   2.286 -0.6204 -1.0057  0.8604
24433SOL     OW91290   0.684   1.158   2.725 -0.0209 -0.0381 -0.2402
24433SOL    HW191291   0.637   1.097   2.668  0.6970  0.7128 -1.7005
24433SOL    HW291292   0.772   1.120   2.734  0.8799  1.3505 -2.2835
24434SOL     OW91293   1.657  10.292   4.510 -0.8032  0.0611 -0.2057
24434SOL    HW191294   1.662  10.227   4.440 -1.8442  0.2231 -0.4482
24434SOL    HW291295   1.648  10.376   4.465  2.8840  0.7631  0.0108
24435SOL     OW91296   2.207  11.025  10.631 -0.0201 -0.0770  0.4289
24435SOL    HW191297   2.160  11.047  10.551 -1.2892  0.0102  1.1613
24435SOL    HW291298   2.141  10.983  10.686  1.5499 -2.9713  0.2789
24436SOL     OW91299   6.055   3.814   6.379 -0.1509  0.7720 -0.0033
24436SOL    HW191300   6.015   3.812   6.292 -2.5478 -0.0134  1.0355
24436SOL    HW291301   5.983   3.796   6.440  1.7330 -0.4817  2.0525
24437SOL     OW91302  12.040  12.561   8.465  0.3748  0.4055  0.0210
24437SOL    HW191303  11.959  12.592   8.505  0.8386 -0.0205  1.3147
24437SOL    HW291304  12.021  12.561   8.371 -0.7125  1.4553  0.2182
24438SOL     OW91305   6.767  12.975  12.890 -0.1989 -0.4135 -0.6361
24438SOL    HW191306   6.713  13.054  12.886  2.2100  1.3580  0.1531
24438SOL    HW291307   6.739  12.930  12.970  1.1157  1.8053  1.1781
24439SOL     OW91308   7.896   7.799  12.102  0.0356 -0.1093 -0.4299
24439SOL    HW191309   7.921   7.706  12.106 -1.3173 -0.4918  2.7889
24439SOL    HW291310   7.817   7.801  12.048 -0.1110 -0.9271 -0.2615
24440SOL     OW91311  12.587   6.896   4.137 -0.1167  0.0754  0.3090
24440SOL    HW191312  12.509   6.935   4.177  0.8530  2.3814  0.1480
24440SOL    HW291313  12.658   6.920   4.196  0.8403  0.5008 -0.9784
24441SOL     OW91314   8.733   8.047   7.870  0.1558  0.3699 -0.3310
24441SOL    HW191315   8.741   8.035   7.776  1.7764  1.8482 -0.4219
24441SOL    HW291316   8.764   8.136   7.886 -0.1149  0.1605  1.5982
24442SOL     OW91317   6.436   2.046   9.003  1.3391  0.3384  0.6079
24442SOL    HW191318   6.461   1.956   8.982  1.0732  0.2000  0.8912
24442SOL    HW291319   6.441   2.051   9.098 -0.1647  0.1667  0.7127
24443SOL     OW91320   1.576  13.852   7.120  0.2308 -0.2766 -0.0268
24443SOL    HW191321   1.640  13.912   7.083  1.1362  0.5350  2.5839
24443SOL    HW291322   1.629  13.783   7.161 -0.7636 -2.7050 -2.4862
24444SOL     OW91323   9.123   4.472   9.637 -0.0209  0.3509 -0.4221
24444SOL    HW191324   9.034   4.494   9.609  0.5836 -0.2948 -3.1403
24444SOL    HW291325   9.180   4.524   9.579  1.4051  0.6652  1.1743
24445SOL     OW91326  13.041  13.543   4.916 -0.5930  0.6224  0.2576
24445SOL    HW191327  13.061  13.466   4.862  0.3880  0.5652  0.6691
24445SOL    HW291328  12.948  13.559   4.903 -0.2258  1.1562 -2.1695
24446SOL     OW91329   7.040   6.656   3.616 -0.0320 -0.5649  0.2418
24446SOL    HW191330   7.108   6.591   3.633  0.6319  0.4955  1.7935
24446SOL    HW291331   7.084   6.740   3.622 -0.9962  0.0970 -1.1860
24447SOL     OW91332  10.776   8.321  12.527 -0.0296  0.1234  0.5420
24447SOL    HW191333  10.860   8.280  12.546  0.3918  0.6371 -0.1265
24447SOL    HW291334  10.784   8.409  12.564 -1.0024 -0.4186  2.1594
24448SOL     OW91335   6.764  12.716   0.734  0.3292  0.2713 -0.1882
24448SOL    HW191336   6.827  12.787   0.747  1.6972 -0.8774 -0.3035
24448SOL    HW291337   6.679  12.758   0.744  1.1073  1.7740  0.5258
24449SOL     OW91338   8.356   2.870   4.940 -0.7751  0.1583  0.6449
24449SOL    HW191339   8.328   2.954   4.905 -0.7208 -0.1993 -0.2772
24449SOL    HW291340   8.392   2.891   5.026 -1.7829  0.9237  0.8977
24450SOL     OW91341   6.398   7.693   1.249 -0.5287  0.5300  0.1655
24450SOL    HW191342   6.343   7.618   1.225 -0.4003  0.7397 -0.7999
24450SOL    HW291343   6.387   7.756   1.178  0.1092  1.0370  0.4984
24451SOL     OW91344   5.621  11.809   1.754 -0.1907 -0.0966 -0.1089
24451SOL    HW191345   5.572  11.733   1.726  0.5917 -0.5414 -0.3135
24451SOL    HW291346   5.708  11.798   1.713 -0.7096  2.0231 -2.0460
24452SOL     OW91347   9.088   7.026   5.362 -0.3220 -0.6968 -0.4236
24452SOL    HW191348   9.114   6.989   5.446 -1.0971 -0.7157 -0.1799
24452SOL    HW291349   9.055   6.952   5.312 -0.6190 -0.5614 -0.4346
24453SOL     OW91350   0.504   9.425  13.108 -0.1683  0.4554 -0.4811
24453SOL    HW191351   0.567   9.493  13.133  0.1488 -0.2217  0.5996
24453SOL    HW291352   0.445   9.418  13.183  0.2677 -1.0025 -0.2499
24454SOL     OW91353   6.446   3.543  13.125 -0.1237  0.0141  0.0251
24454SOL    HW191354   6.506   3.609  13.092 -0.5688  0.8312  0.8258
24454SOL    HW291355   6.469   3.464  13.076  1.3267  0.4053  0.0322
24455SOL     OW91356  12.522   2.609   3.458 -0.6144 -0.1812  0.8245
24455SOL    HW191357  12.560   2.541   3.404  1.8664  2.1009 -0.5413
24455SOL    HW291358  12.592   2.634   3.518 -2.1421 -0.1588  2.7064
24456SOL     OW91359  11.474   2.787   1.527 -0.1612  0.3030  0.6467
24456SOL    HW191360  11.400   2.848   1.524  0.2898  0.8315  0.1650
24456SOL    HW291361  11.434   2.702   1.549 -1.0010  0.4560 -0.2353
24457SOL     OW91362  10.218  12.046   5.206 -0.1115 -0.2884  0.3030
24457SOL    HW191363  10.197  12.113   5.141  0.1824 -1.1435 -0.7078
24457SOL    HW291364  10.276  12.090   5.269  0.2551  0.3460 -0.4626
24458SOL     OW91365   0.872   1.309   4.307  0.0778 -0.4016  0.0974
24458SOL    HW191366   0.883   1.357   4.225  2.2003 -2.8487 -1.1900
24458SOL    HW291367   0.778   1.291   4.312 -0.4058  1.6097 -0.6171
24459SOL     OW91368   9.725   8.632  12.093  0.3359  0.1726 -0.0365
24459SOL    HW191369   9.812   8.610  12.128  0.0807  0.6101  0.9090
24459SOL    HW291370   9.727   8.727  12.083  0.1642  0.1206 -0.5802
24460SOL     OW91371  10.322   6.300   7.065  0.4920 -0.1175  0.3901
24460SOL    HW191372  10.294   6.326   7.153  0.0199  2.0972 -0.3600
24460SOL    HW291373  10.243   6.304   7.012  1.2089  1.1089 -0.6593
24461SOL     OW91374   0.159   6.985   6.906  0.6897  0.1748 -0.5536
24461SOL    HW191375   0.117   7.063   6.942  1.5492  0.5332 -0.2871
24461SOL    HW291376   0.253   7.003   6.916  0.8973 -0.6843 -0.9419
24462SOL     OW91377   3.329   8.275  10.201  0.1239 -0.3233  0.5468
24462SOL    HW191378   3.277   8.333  10.256 -0.4125 -1.3154  1.1227
24462SOL    HW291379   3.278   8.194  10.197  1.1268 -0.9584  0.2650
24463SOL     OW91380   8.597  13.077   5.027  0.3551 -0.0597 -0.0747
24463SOL    HW191381   8.574  13.133   5.101 -1.2019 -1.4962  0.5964
24463SOL    HW291382   8.527  13.092   4.963  0.3138 -0.7127 -0.1886
24464SOL     OW91383   6.450   6.251  10.568  0.1695  0.3194  0.2514
24464SOL    HW191384   6.528   6.282  10.522  1.9596 -0.6697  2.4347
24464SOL    HW291385   6.428   6.168  10.526 -0.6872  1.3206 -1.3578
24465SOL     OW91386  11.539   1.659   9.708  0.6147  0.2494 -0.1306
24465SOL    HW191387  11.511   1.587   9.765  1.8344  0.0835  0.2941
24465SOL    HW291388  11.608   1.621   9.653 -0.1128  0.5785 -1.3033
24466SOL     OW91389  11.480   5.290   1.632 -0.2534 -0.1826  0.6657
24466SOL    HW191390  11.448   5.318   1.718 -0.1541 -0.4130  0.7782
24466SOL    HW291391  11.427   5.339   1.569  1.2616  1.8379  0.8533
24467SOL     OW91392   2.327  14.101  14.090  0.0468 -0.1350 -0.8844
24467SOL    HW191393   2.346  14.027  14.147  0.3605 -0.6190 -1.5990
24467SOL    HW291394   2.306  14.061  14.005 -0.5638  0.5592 -1.0763
24468SOL     OW91395   4.437   1.053  13.362  0.1714 -0.1087  0.2986
24468SOL    HW191396   4.499   0.991  13.322  0.8131  1.0002 -0.4755
24468SOL    HW291397   4.414   1.113  13.291 -1.3253 -0.1100  0.7373
24469SOL     OW91398  10.123   9.704   9.663 -0.4036  0.1623  0.3117
24469SOL    HW191399  10.061   9.656   9.718  0.7227 -2.1602 -0.3504
24469SOL    HW291400  10.074   9.728   9.585 -0.7573 -0.6539  0.2850
24470SOL     OW91401   0.145   9.264   5.957 -0.5468 -0.3664 -1.1230
24470SOL    HW191402   0.055   9.287   5.982 -0.2121  0.5734 -0.7474
24470SOL    HW291403   0.191   9.348   5.954  0.0905 -0.7436 -2.2513
24471SOL     OW91404   9.238   1.581  13.699  0.3016 -0.0031  0.2221
24471SOL    HW191405   9.146   1.603  13.684  0.5226 -0.2342 -1.8096
24471SOL    HW291406   9.287   1.651  13.655  1.0253 -1.9285 -2.3078
24472SOL     OW91407  13.695   0.754   7.396  0.5875 -0.3619  0.4989
24472SOL    HW191408  13.602   0.736   7.404  0.5018 -0.0098  0.2992
24472SOL    HW291409  13.736   0.667   7.396  0.0710 -0.6747 -1.7921
24473SOL     OW91410   0.332  11.540  13.389  0.1536  0.3299 -0.0270
24473SOL    HW191411   0.318  11.487  13.467 -0.7112 -0.1058 -0.4707
24473SOL    HW291412   0.426  11.533  13.372  0.2022 -0.2810  0.4649
24474SOL     OW91413   8.786   2.974  13.868 -0.4447  0.0948  0.5922
24474SOL    HW191414   8.750   2.888  13.888  1.2089 -0.9897 -0.7446
24474SOL    HW291415   8.718   3.036  13.894 -2.2326 -1.6872  0.3779
24475SOL     OW91416   2.367  14.016   8.978 -0.0955  0.5586  0.1517
24475SOL    HW191417   2.317  13.987   8.901  1.6011 -1.5515 -0.2253
24475SOL    HW291418   2.305  14.010   9.051 -0.4705 -1.9664 -0.3099
24476SOL     OW91419   7.470   6.713   4.460 -0.0781 -0.5178  0.6622
24476SOL    HW191420   7.467   6.697   4.366 -0.0369  0.1278  0.5511
24476SOL    HW291421   7.381   6.695   4.490 -0.8487  1.9805  0.0528
24477SOL     OW91422   8.911   5.052  10.504  0.4668 -0.6988  0.5375
24477SOL    HW191423   8.996   5.067  10.545 -0.2176 -0.1983  1.8630
24477SOL    HW291424   8.849   5.100  10.559 -0.4840  0.3969 -1.3635
24478SOL     OW91425   2.354  13.130  13.179  0.0919  0.2504  0.5379
24478SOL    HW191426   2.407  13.107  13.103  0.9709  0.7933  0.9642
24478SOL    HW291427   2.356  13.051  13.234  0.1643  0.1456  0.3864
24479SOL     OW91428   0.668   1.175   9.846 -0.2458 -0.2124 -0.1743
24479SOL    HW191429   0.574   1.157   9.843 -0.5732  1.2961 -0.0203
24479SOL    HW291430   0.708   1.103   9.798 -1.5170 -0.6706 -0.5927
24480SOL     OW91431   5.661  12.102  13.689 -0.5193 -0.0091  0.3258
24480SOL    HW191432   5.698  12.052  13.762  0.1575 -0.4620 -0.3275
24480SOL    HW291433   5.643  12.037  13.622 -0.2330  0.5397 -0.2864
24481SOL     OW91434   0.292  11.137   9.254  0.6034 -0.1878 -0.7462
24481SOL    HW191435   0.235  11.064   9.227  0.0102  0.0814 -0.2519
24481SOL    HW291436   0.259  11.161   9.341 -0.1917  1.6460 -1.5112
24482SOL     OW91437  12.039  12.871   4.095  0.4594  0.4795 -0.1681
24482SOL    HW191438  12.135  12.874   4.096  0.4573  0.4438  0.2966
24482SOL    HW291439  12.012  12.960   4.070  0.6092  0.5845  0.0408
24483SOL     OW91440  10.278  11.391   7.375 -0.4159  0.5095  0.3203
24483SOL    HW191441  10.263  11.466   7.432 -1.2924 -0.2252  1.1095
24483SOL    HW291442  10.191  11.370   7.341 -0.4886 -1.1279  1.4078
24484SOL     OW91443   5.491   2.125  10.373 -0.0398 -0.3359 -0.3851
24484SOL    HW191444   5.421   2.114  10.438 -1.2163  1.3771 -1.3077
24484SOL    HW291445   5.572   2.107  10.422 -0.9207  0.3465  1.4220
24485SOL     OW91446   1.374   6.872   2.447 -0.2116 -0.2470  0.3817
24485SOL    HW191447   1.417   6.891   2.530 -2.1157  1.1352  1.1261
24485SOL    HW291448   1.423   6.923   2.383 -0.0791  0.4590  1.0269
24486SOL     OW91449   1.261  11.390   2.736 -0.0067  0.2245  0.1380
24486SOL    HW191450   1.297  11.302   2.722 -0.0332  0.2605 -0.1560
24486SOL    HW291451   1.195  11.377   2.804  0.1324  0.0508  0.2422
24487SOL     OW91452   1.321   5.536  10.220  0.2005 -0.6887  0.1084
24487SOL    HW191453   1.385   5.597  10.257  0.7940 -1.3820  0.2565
24487SOL    HW291454   1.255   5.527  10.288 -0.8928  1.1964 -0.6210
24488SOL     OW91455  12.765  13.126   0.912  0.0578 -0.9813 -0.6417
24488SOL    HW191456  12.784  13.036   0.884 -0.0244 -0.3343 -2.9224
24488SOL    HW291457  12.698  13.157   0.852  1.2394  1.1514 -0.9642
24489SOL     OW91458  11.059  11.113   5.632  0.3506  0.1699 -0.1687
24489SOL    HW191459  11.069  11.206   5.654 -0.5718  0.0588  0.8590
24489SOL    HW291460  11.143  11.087   5.596 -0.1392  2.0157 -2.9214
24490SOL     OW91461   2.935   9.762   1.202  0.6185  0.0577  0.1907
24490SOL    HW191462   2.901   9.720   1.281 -2.8000 -0.9778 -1.6279
24490SOL    HW291463   2.865   9.822   1.175  1.2901 -0.2561 -2.4872
24491SOL     OW91464   5.060   9.165  11.204 -0.5106 -0.1321  0.2905
24491SOL    HW191465   5.147   9.194  11.179 -0.3005 -0.8385  0.1872
24491SOL    HW291466   5.001   9.233  11.171 -0.1526 -0.5109 -1.2170
24492SOL     OW91467  11.465   0.055   1.991  0.8811 -0.0609  0.0352
24492SOL    HW191468  11.400   0.007   1.938  2.1461  0.2989 -1.9538
24492SOL    HW291469  11.456   0.018   2.079 -2.4804  0.4583  0.0502
24493SOL     OW91470   8.514  12.876  13.663 -0.2900  0.5720 -0.0170
24493SOL    HW191471   8.540  12.909  13.577  0.3525 -1.8957 -0.8511
24493SOL    HW291472   8.518  12.781  13.654 -0.1347  0.2431  2.7907
24494SOL     OW91473   0.409  10.428   8.300 -0.2400 -0.5726  0.3007
24494SOL    HW191474   0.493  10.466   8.276 -0.8240  0.0523 -0.8459
24494SOL    HW291475   0.371  10.490   8.363  0.1459 -0.8495  0.8096
24495SOL     OW91476  13.266   7.235   9.624  0.2341 -0.1935 -0.0993
24495SOL    HW191477  13.261   7.141   9.642 -0.2212 -0.2735 -0.6033
24495SOL    HW291478  13.353   7.261   9.655  0.6898 -0.9487 -0.7086
24496SOL     OW91479   8.713   0.352   7.725  0.1204 -0.1905  0.2404
24496SOL    HW191480   8.691   0.419   7.660  0.4877 -1.2655 -1.0377
24496SOL    HW291481   8.657   0.372   7.800  1.4680  2.5973  0.6165
24497SOL     OW91482   9.069   2.980  10.869 -0.8066 -0.3115 -0.5274
24497SOL    HW191483   9.145   2.927  10.894 -1.1163 -0.8277 -0.6455
24497SOL    HW291484   8.994   2.920  10.880 -1.1651  0.1102 -0.6502
24498SOL     OW91485  11.364   0.006   0.345  0.0444  0.4104 -0.5381
24498SOL    HW191486  11.335   0.028   0.433  0.0566  0.1302 -0.4611
24498SOL    HW291487  11.290  -0.039   0.305  0.4521 -0.5462 -0.2496
24499SOL     OW91488  10.128   9.035   8.509  0.0023 -0.3769  0.3623
24499SOL    HW191489  10.073   9.107   8.537 -2.2947 -0.8303 -2.5335
24499SOL    HW291490  10.114   8.966   8.574 -0.0608  0.7081  1.5343
24500SOL     OW91491   2.985   7.494  10.832 -0.2474 -0.0832  0.5510
24500SOL    HW191492   3.072   7.511  10.870 -0.1603  0.7584 -0.0009
24500SOL    HW291493   2.925   7.500  10.906  0.1151 -0.2132  0.8590
24501SOL     OW91494   0.976   0.376  11.535  0.1478 -0.0562 -0.0868
24501SOL    HW191495   0.955   0.338  11.450  1.3448 -0.5471 -0.1758
24501SOL    HW291496   0.931   0.320  11.598 -1.1278  0.5819 -0.3952
24502SOL     OW91497   5.905   6.708  12.188  0.2703  0.3722 -0.4539
24502SOL    HW191498   5.864   6.643  12.245  1.9029  0.5179  0.9814
24502SOL    HW291499   5.956   6.656  12.126 -1.7074  0.2038 -2.0423
24503SOL     OW91500   8.556  10.157   0.463  0.6582 -0.2135  0.2490
24503SOL    HW191501   8.576  10.158   0.369  0.1753 -0.1060  0.1420
24503SOL    HW291502   8.474  10.108   0.468 -1.3836  2.9057  0.1861
24504SOL     OW91503   3.866   7.829   8.470  0.9375  0.2608  0.1788
24504SOL    HW191504   3.790   7.866   8.424  0.9716  0.7456  0.5003
24504SOL    HW291505   3.883   7.746   8.425  0.4463  0.3222 -0.1350
24505SOL     OW91506  13.571   1.522   9.579 -0.3584  0.1840  0.0367
24505SOL    HW191507  13.608   1.599   9.534 -1.2358 -0.2980 -1.5837
24505SOL    HW291508  13.479   1.544   9.591 -0.2746  0.0223  1.0394
24506SOL     OW91509   2.234   2.479  12.256  0.3263  0.0789  0.1694
24506SOL    HW191510   2.190   2.430  12.326  0.4728 -0.6335 -0.2305
24506SOL    HW291511   2.322   2.444  12.254  0.2419 -0.1065 -0.5660
24507SOL     OW91512  11.056   0.785   4.182  0.2418  0.3267  0.1660
24507SOL    HW191513  11.048   0.766   4.275  0.8228  0.4590  0.2498
24507SOL    HW291514  11.150   0.783   4.165  0.1336  0.1269 -0.4568
24508SOL     OW91515   3.671   9.920   9.920  0.4070  0.2292 -0.1057
24508SOL    HW191516   3.671   9.829   9.890  0.6533  0.0739  0.3630
24508SOL    HW291517   3.761   9.950   9.906  0.3403  0.3845 -0.2052
24509SOL     OW91518   6.552   2.228  12.422 -0.3881 -0.0813 -0.3753
24509SOL    HW191519   6.467   2.185  12.434 -0.0041 -0.6320  0.4036
24509SOL    HW291520   6.616   2.165  12.455  0.3574  0.2133 -1.2123
24510SOL     OW91521  11.834   0.033  13.995 -0.0985 -0.1816 -0.3185
24510SOL    HW191522  11.762   0.025  14.057  0.9929 -1.3363  0.8776
24510SOL    HW291523  11.893   0.097  14.035 -0.4179  0.7186 -1.2598
24511SOL     OW91524   9.944   3.828   5.539 -0.0028 -0.2042  0.2994
24511SOL    HW191525   9.941   3.848   5.446  1.3698 -0.5005  0.1764
24511SOL    HW291526  10.037   3.814   5.558 -0.1465  0.7954  1.9124
24512SOL     OW91527   3.620  10.799   0.663 -0.0625 -0.0675  0.4538
24512SOL    HW191528   3.655  10.710   0.676 -1.6908 -0.6518  1.1126
24512SOL    HW291529   3.647  10.847   0.741  0.8687  0.0400  0.0725
24513SOL     OW91530  11.452   8.004   5.620 -1.1035  0.1461 -0.3367
24513SOL    HW191531  11.450   8.088   5.666  0.8383  0.0840 -0.0895
24513SOL    HW291532  11.393   8.017   5.546 -0.9165  1.7050 -0.2548
24514SOL     OW91533   4.695   2.573   3.163  0.2379  0.1079 -0.2792
24514SOL    HW191534   4.718   2.549   3.253  0.8367 -1.4253 -0.8080
24514SOL    HW291535   4.746   2.652   3.146  0.3497  0.2453  0.6328
24515SOL     OW91536  13.694  11.866  12.176  0.0765 -0.0683  0.5393
24515SOL    HW191537  13.618  11.878  12.120  0.8488 -2.2135 -1.0769
24515SOL    HW291538  13.766  11.847  12.116  1.4101 -0.3532  2.1523
24516SOL     OW91539  12.830  13.089   2.509  0.4343  0.2668  0.2380
24516SOL    HW191540  12.803  13.055   2.424  2.3826 -0.1455 -0.2535
24516SOL    HW291541  12.845  13.011   2.562 -0.8010  0.5228  0.9912
24517SOL     OW91542   0.359   8.382   0.749  0.4023 -1.0659 -0.0394
24517SOL    HW191543   0.421   8.402   0.819 -1.8582 -1.8144  2.3368
24517SOL    HW291544   0.306   8.462   0.741 -1.0267 -1.8737  1.0269
24518SOL     OW91545   7.199   9.568  11.503 -0.2990  0.5475  0.5840
24518SOL    HW191546   7.162   9.628  11.438  0.6250  0.2915 -0.2042
24518SOL    HW291547   7.163   9.482  11.481  1.4842  0.1104 -0.8256
24519SOL     OW91548   2.093   4.421  11.042  0.3325  0.1144 -0.0331
24519SOL    HW191549   2.056   4.405  10.956 -0.6190  0.8784  0.2137
24519SOL    HW291550   2.057   4.352  11.097 -0.4190  0.6151  0.1152
24520SOL     OW91551  11.469  10.047   6.121  0.6477 -0.7064 -0.5131
24520SOL    HW191552  11.524   9.994   6.179  3.4842  1.2555 -1.1710
24520SOL    HW291553  11.475  10.004   6.036  0.4777 -0.9502 -0.4020
24521SOL     OW91554   1.581   7.828  14.142 -1.3456  0.9155  0.0414
24521SOL    HW191555   1.601   7.908  14.192 -0.8922 -0.2690  1.8611
24521SOL    HW291556   1.667   7.789  14.125 -1.6422 -0.2839  1.1265
24522SOL     OW91557   6.659   6.648   3.194  0.1657  0.5078  0.5457
24522SOL    HW191558   6.584   6.640   3.254 -0.4002  0.8609 -0.0997
24522SOL    HW291559   6.734   6.616   3.245 -0.4794 -0.1982  1.0813
24523SOL     OW91560   4.649   1.258  13.358 -1.0402  0.3777 -0.6383
24523SOL    HW191561   4.566   1.260  13.310 -0.8707 -1.5021 -1.0995
24523SOL    HW291562   4.703   1.195  13.310 -0.1429 -0.0891  0.9038
24524SOL     OW91563  13.446  12.617   1.249  0.1883  0.2755 -0.5272
24524SOL    HW191564  13.387  12.608   1.324 -0.2942  3.3294 -0.4111
24524SOL    HW291565  13.531  12.639   1.287  0.4973 -0.3759 -0.8240
24525SOL     OW91566   6.266   1.153  12.930  0.3286  0.0325  0.2200
24525SOL    HW191567   6.318   1.211  12.875  0.9539 -0.5227  0.2155
24525SOL    HW291568   6.300   1.066  12.911 -1.5018 -0.5123 -0.8107
24526SOL     OW91569   7.069  11.592   3.561 -0.0516 -0.3059  0.2782
24526SOL    HW191570   7.014  11.665   3.590  0.2919  0.4067 -0.7718
24526SOL    HW291571   7.146  11.596   3.618  0.9375  1.5056 -1.0550
24527SOL     OW91572   9.960  12.316   5.655  0.0725  0.3249 -0.7022
24527SOL    HW191573   9.919  12.330   5.740  1.2135 -0.9067  0.0922
24527SOL    HW291574  10.050  12.289   5.675  1.6099  3.6087 -2.3938
24528SOL     OW91575   3.542  11.014   3.047  0.4154 -0.3804 -0.2530
24528SOL    HW191576   3.452  11.028   3.016  0.2112 -1.0577  0.0061
24528SOL    HW291577   3.593  11.003   2.967  0.3184  0.2768 -0.4107
24529SOL     OW91578  10.814   1.972  13.549  0.2916 -0.3999 -0.0101
24529SOL    HW191579  10.864   1.909  13.602  1.9744  1.1423  0.3328
24529SOL    HW291580  10.723   1.960  13.578  1.0106 -0.3147  2.5626
24530SOL     OW91581   0.600   1.261   0.450 -0.1345  0.0761  0.2336
24530SOL    HW191582   0.563   1.330   0.505 -1.1124 -0.5594  0.3987
24530SOL    HW291583   0.603   1.184   0.507 -1.0662 -0.5667 -0.5442
24531SOL     OW91584  11.175  12.235   1.507  0.1198  0.6099 -0.2330
24531SOL    HW191585  11.139  12.148   1.489  1.5666 -0.5272  1.9344
24531SOL    HW291586  11.127  12.293   1.448 -1.4429 -1.5253 -1.2133
24532SOL     OW91587  12.761   6.781   7.606 -0.8389  0.1591 -0.5296
24532SOL    HW191588  12.744   6.856   7.663  1.3859 -0.7996  1.5468
24532SOL    HW291589  12.855   6.780   7.594 -0.9804 -1.4128 -1.8294
24533SOL     OW91590   1.003   0.426   8.935  0.3571  0.6195  0.4551
24533SOL    HW191591   1.028   0.402   9.024  0.0576 -0.1506  0.3395
24533SOL    HW291592   0.921   0.379   8.919  0.2184  1.0332 -0.1013
24534SOL     OW91593   4.614   2.375   8.429  0.6177 -0.2381  0.2155
24534SOL    HW191594   4.647   2.285   8.429 -1.2352 -0.9493  0.5832
24534SOL    HW291595   4.519   2.366   8.423  0.4487  1.7343 -0.7304
24535SOL     OW91596  13.755   0.812   5.182 -0.0176  0.3998  0.3051
24535SOL    HW191597  13.808   0.761   5.242 -1.4716  0.4182  1.6770
24535SOL    HW291598  13.722   0.749   5.119  1.9861  0.4704 -0.9001
24536SOL     OW91599   2.131   8.270   1.702  0.6556 -0.4128 -0.2060
24536SOL    HW191600   2.070   8.293   1.772  0.1039 -0.0541 -0.7920
24536SOL    HW291601   2.142   8.351   1.652  2.0520 -0.3171  0.2014
24537SOL     OW91602   7.723  13.359   3.533  0.0064 -0.0845 -0.4394
24537SOL    HW191603   7.759  13.405   3.457  0.0713  1.6204  0.5901
24537SOL    HW291604   7.687  13.278   3.496 -0.0132  0.7117 -2.3014
24538SOL     OW91605   4.305   8.301   0.237  0.0649  0.7337 -0.3695
24538SOL    HW191606   4.309   8.208   0.257 -0.8912  0.5535 -0.9327
24538SOL    HW291607   4.326   8.306   0.144 -2.7481  0.7077 -1.1108
24539SOL     OW91608   1.998   4.750   4.774  0.6089  0.0364 -0.7190
24539SOL    HW191609   2.011   4.716   4.863  0.1211  0.7002 -0.3946
24539SOL    HW291610   2.087   4.773   4.745  0.5827  1.6578  0.3448
24540SOL     OW91611   4.415  13.931  12.368  0.2941  0.1646 -0.4189
24540SOL    HW191612   4.365  13.901  12.293 -0.8499 -0.4585  0.5570
24540SOL    HW291613   4.439  14.021  12.347  0.5808 -0.2181 -1.8003
24541SOL     OW91614  12.465   6.805   8.612 -0.1497 -0.7906  0.0660
24541SOL    HW191615  12.521   6.780   8.686  1.4062 -1.2080 -1.1799
24541SOL    HW291616  12.469   6.900   8.609  2.0431 -0.8576 -1.0643
24542SOL     OW91617  13.258   1.752  13.643  0.0901 -0.6956  0.0478
24542SOL    HW191618  13.286   1.667  13.676  0.3751 -1.0757 -1.1344
24542SOL    HW291619  13.169   1.738  13.609  0.0318 -0.4595  0.0972
24543SOL     OW91620  10.599  11.806   7.964 -1.1006 -0.2593 -0.2523
24543SOL    HW191621  10.546  11.822   8.042 -0.2711  2.1582 -0.1002
24543SOL    HW291622  10.570  11.720   7.932 -0.5738 -2.0035  3.4059
24544SOL     OW91623   5.039  13.009   2.830 -0.2079 -0.0855 -0.4797
24544SOL    HW191624   4.985  13.088   2.838  0.1062  0.0899 -0.0533
24544SOL    HW291625   4.982  12.945   2.788 -1.1381 -0.2494  0.9495
24545SOL     OW91626   2.653   8.704   3.894  0.0733  0.6296 -0.6061
24545SOL    HW191627   2.649   8.734   3.984  1.8813 -0.6793 -0.0424
24545SOL    HW291628   2.586   8.636   3.887 -0.0957  0.7634 -0.2534
24546SOL     OW91629  12.256   6.800  11.840  0.9106  0.2329 -0.0576
24546SOL    HW191630  12.243   6.746  11.762  0.3831  1.7234 -1.0684
24546SOL    HW291631  12.350   6.803  11.852  0.9951 -0.0834 -0.5928
24547SOL     OW91632  10.100   8.572   4.753 -0.3946  0.0785  0.0206
24547SOL    HW191633  10.150   8.647   4.721  0.1338 -0.1249  0.3589
24547SOL    HW291634  10.021   8.611   4.791  0.5173  0.6021  1.4676
24548SOL     OW91635   5.755   3.342   4.105 -0.1706 -0.3567  0.7826
24548SOL    HW191636   5.713   3.426   4.084  1.1299  0.4556  1.3632
24548SOL    HW291637   5.824   3.333   4.040 -2.9058 -3.0976 -2.0567
24549SOL     OW91638   9.938   3.329   0.242  0.4144  0.4619 -0.3037
24549SOL    HW191639   9.970   3.289   0.161 -1.0739 -0.2944 -0.5582
24549SOL    HW291640   9.895   3.257   0.288  0.0152  1.2004  0.4969
24550SOL     OW91641   2.533   8.520   2.625 -0.0041 -0.3815  0.0652
24550SOL    HW191642   2.501   8.536   2.536  1.8625  1.8000 -0.3127
24550SOL    HW291643   2.481   8.579   2.680 -0.9072 -1.4665  0.4175
24551SOL     OW91644   9.850   1.366   5.095 -0.1714 -0.0855 -0.0299
24551SOL    HW191645   9.782   1.414   5.143  0.5461  1.4732 -0.4931
24551SOL    HW291646   9.920   1.353   5.160  0.1856  0.7100 -0.2419
24552SOL     OW91647   1.836  12.412   6.072 -0.4854 -0.6308 -0.4101
24552SOL    HW191648   1.844  12.319   6.092 -0.3786 -0.4988  0.1932
24552SOL    HW291649   1.750  12.421   6.031 -0.9512 -0.8387  0.4963
24553SOL     OW91650  10.899  11.367   1.622  0.2707 -0.4637 -0.4478
24553SOL    HW191651  10.825  11.318   1.587  0.7063 -0.7188 -1.0491
24553SOL    HW291652  10.920  11.324   1.705 -1.7216  1.0701  0.9496
24554SOL     OW91653   4.324   4.239   0.289  0.4830 -0.4220  0.3800
24554SOL    HW191654   4.328   4.223   0.383 -0.0321 -2.2847  0.1406
24554SOL    HW291655   4.248   4.295   0.277  1.3510  0.9783  1.1719
24555SOL     OW91656   3.751  11.792   4.322 -0.1521 -0.1935 -0.0176
24555SOL    HW191657   3.677  11.838   4.361  0.0719 -1.0955  1.5743
24555SOL    HW291658   3.713  11.740   4.251 -0.5224  1.7322 -1.3039
24556SOL     OW91659   8.037   4.070   2.394 -0.1341 -0.0326  0.2307
24556SOL    HW191660   8.126   4.038   2.378  0.2552  0.4536  1.3461
24556SOL    HW291661   7.983   4.022   2.330  0.7185 -1.3343  0.4389
24557SOL     OW91662   0.641   7.229   7.995 -0.4809  0.1024 -0.4270
24557SOL    HW191663   0.656   7.313   7.950  0.7192 -0.7931 -1.8014
24557SOL    HW291664   0.569   7.188   7.947 -0.4839 -0.0211 -0.3176
24558SOL     OW91665   7.137  11.991   0.555 -0.0490 -0.2802 -0.0354
24558SOL    HW191666   7.105  11.971   0.643 -0.4016 -0.6976 -0.2553
24558SOL    HW291667   7.133  11.908   0.508  0.8803 -0.2348 -0.2241
24559SOL     OW91668   9.635  12.067   4.373  0.1953  0.4392 -0.1905
24559SOL    HW191669   9.601  12.016   4.448 -0.0922  1.1044  0.1369
24559SOL    HW291670   9.728  12.048   4.372  0.0476 -0.3329 -0.2564
24560SOL     OW91671  13.855   8.445  11.340  0.3235 -0.3944 -0.5761
24560SOL    HW191672  13.950   8.455  11.338  0.3879 -0.2756  1.4471
24560SOL    HW291673  13.841   8.354  11.315  1.2344 -1.3390  2.0161
24561SOL     OW91674   5.003   0.357   3.494  0.4978  0.1821 -0.0879
24561SOL    HW191675   5.075   0.294   3.486 -0.5556 -1.0277 -0.4367
24561SOL    HW291676   5.037   0.425   3.553  1.4665 -1.0254  0.7993
24562SOL     OW91677   6.997   7.299  12.949 -1.0401  0.2771  0.3104
24562SOL    HW191678   7.046   7.314  12.869 -1.1267  0.5443  0.3082
24562SOL    HW291679   6.911   7.269  12.920 -0.7667 -0.5406  0.3193
24563SOL     OW91680  13.429   1.741   0.490  0.5026  0.2582  0.1604
24563SOL    HW191681  13.369   1.806   0.527  0.2064  0.6393 -0.9235
24563SOL    HW291682  13.441   1.677   0.559  1.6486  1.9987  1.6654
24564SOL     OW91683  12.181   4.563   1.484 -0.4211 -0.3750  0.7244
24564SOL    HW191684  12.089   4.549   1.506 -0.4701 -1.4043 -0.0706
24564SOL    HW291685  12.203   4.490   1.426  0.6403  0.3632  0.1633
24565SOL     OW91686   3.610  10.746   3.177  0.2601 -0.4925  0.4952
24565SOL    HW191687   3.589  10.762   3.269 -0.2020  0.1803  0.2748
24565SOL    HW291688   3.582  10.825   3.131  0.9647 -0.6038 -0.1591
24566SOL     OW91689   1.480   1.510   7.718 -0.7649 -0.4402  0.4738
24566SOL    HW191690   1.494   1.559   7.637 -2.2391 -0.6224  0.0781
24566SOL    HW291691   1.524   1.561   7.785  2.3961 -1.3544 -0.6790
24567SOL     OW91692   4.635   0.410  10.123  0.2916 -0.4038 -0.3283
24567SOL    HW191693   4.728   0.391  10.112  0.7160  1.8721 -1.2993
24567SOL    HW291694   4.623   0.419  10.218  1.6637  1.6960 -0.2852
24568SOL     OW91695   1.934   1.105  13.014  0.0156  0.3897 -0.4088
24568SOL    HW191696   1.991   1.036  13.048 -0.4733  0.3076  0.2590
24568SOL    HW291697   1.942   1.097  12.919 -0.8141 -1.2664 -0.3817
24569SOL     OW91698  13.923   6.759  12.393  0.1803 -0.0126  0.0299
24569SOL    HW191699  13.948   6.851  12.381 -0.2420  0.1692  0.5186
24569SOL    HW291700  13.895   6.731  12.306 -0.5503  0.5835  0.0656
24570SOL     OW91701  11.886   4.755  13.682 -0.3647 -0.0601  0.5166
24570SOL    HW191702  11.802   4.794  13.705  0.6672  3.3083 -0.7355
24570SOL    HW291703  11.937   4.756  13.763 -0.3986  1.2197  0.5360
24571SOL     OW91704   9.503   6.140  10.741  0.0196  0.8190 -0.0659
24571SOL    HW191705   9.579   6.165  10.688  0.0057 -2.1784 -1.7545
24571SOL    HW291706   9.428   6.150  10.682 -0.3753  0.1338  0.2998
24572SOL     OW91707   2.272   4.619   5.930  0.4111 -0.0622 -0.3738
24572SOL    HW191708   2.249   4.695   5.876  1.2636  0.1592 -0.4466
24572SOL    HW291709   2.297   4.656   6.014  0.7709 -0.2628 -0.3910
24573SOL     OW91710   1.378  11.995   8.680  0.3307  0.2095 -0.0718
24573SOL    HW191711   1.473  12.004   8.675  0.5074 -0.1191  1.8298
24573SOL    HW291712   1.357  12.015   8.771 -1.1688 -1.8697  0.0973
24574SOL     OW91713   0.345  10.584   0.742  0.5097 -0.0656  0.2486
24574SOL    HW191714   0.281  10.585   0.813 -2.8381 -2.3977 -2.3895
24574SOL    HW291715   0.326  10.663   0.691  1.2565  0.3595  0.6177
24575SOL     OW91716  10.626  12.935   0.148 -1.2795 -0.2399 -0.0037
24575SOL    HW191717  10.564  12.947   0.075 -0.8620  0.0022 -0.3205
24575SOL    HW291718  10.711  12.927   0.105 -0.9297  0.6980  0.5103
24576SOL     OW91719   4.267   3.772  11.322 -0.0884 -0.1389 -0.6972
24576SOL    HW191720   4.302   3.727  11.244  0.0440 -0.2325 -0.5837
24576SOL    HW291721   4.319   3.737  11.394 -0.9998 -0.9468 -0.4082
24577SOL     OW91722   2.574  14.012  12.855 -0.0200  0.2810 -0.2497
24577SOL    HW191723   2.527  14.091  12.880 -1.0726  0.0110 -1.2785
24577SOL    HW291724   2.561  13.952  12.929 -0.6034  0.5029 -0.1687
24578SOL     OW91725  10.912  13.626   8.008  0.1641 -0.0009 -0.6816
24578SOL    HW191726  10.898  13.689   7.937 -1.8054 -2.4334 -2.6180
24578SOL    HW291727  10.836  13.638   8.066 -0.5530 -0.9481 -1.3945
24579SOL     OW91728   5.737   2.560   7.565  0.1113  0.2420 -0.0511
24579SOL    HW191729   5.668   2.611   7.522  1.9374  1.7007 -1.4052
24579SOL    HW291730   5.819   2.596   7.530  1.5441 -2.4833  0.2889
24580SOL     OW91731   8.996   4.562   0.614  0.2709  0.3060 -0.4732
24580SOL    HW191732   9.044   4.596   0.689  2.3381 -0.6920 -1.2719
24580SOL    HW291733   8.951   4.639   0.578  0.4971  1.0946  0.8473
24581SOL     OW91734   1.138   2.636   4.473 -0.5553 -0.1812  0.3278
24581SOL    HW191735   1.104   2.570   4.412 -1.4907 -0.2720  0.9194
24581SOL    HW291736   1.162   2.586   4.551 -1.5872  0.2083  0.9049
24582SOL     OW91737   2.694   8.286   0.641 -0.0465 -0.3190 -0.4118
24582SOL    HW191738   2.755   8.229   0.688 -0.3074 -1.1580 -1.0637
24582SOL    HW291739   2.612   8.278   0.690  0.2395  0.4839  0.2212
24583SOL     OW91740   9.197   3.129   0.863 -0.7893 -0.1059  0.0541
24583SOL    HW191741   9.261   3.128   0.934 -0.9845  0.6400  0.2453
24583SOL    HW291742   9.195   3.038   0.832  0.1141 -0.2112  0.2604
24584SOL     OW91743  11.861   1.011   3.612 -0.0322 -0.1118  0.1773
24584SOL    HW191744  11.897   0.937   3.562 -0.5269  0.7432 -1.5068
24584SOL    HW291745  11.766   1.000   3.605 -0.1054  0.2075  0.6647
24585SOL     OW91746   5.807   7.637   9.274  0.1993  0.2108  0.3730
24585SOL    HW191747   5.819   7.562   9.215 -0.0763  1.4894 -1.3832
24585SOL    HW291748   5.712   7.651   9.275  0.4252  2.6462 -2.1776
24586SOL     OW91749  12.869   6.640  10.202 -0.0299  0.1039 -0.0762
24586SOL    HW191750  12.869   6.545  10.192 -1.2150 -0.0661  1.2536
24586SOL    HW291751  12.919   6.656  10.283 -1.1929  0.4746  0.5872
24587SOL     OW91752   5.633   1.559   8.280  0.3808 -0.0288  0.3853
24587SOL    HW191753   5.677   1.503   8.343 -0.1022 -1.9483 -0.8966
24587SOL    HW291754   5.542   1.532   8.283  0.3459 -0.1653 -1.1029
24588SOL     OW91755   2.420  11.636   3.140  0.0025  0.3038 -0.0571
24588SOL    HW191756   2.376  11.666   3.219  2.6480  1.1420  1.2348
24588SOL    HW291757   2.453  11.716   3.098 -0.4445 -0.2115 -1.4573
24589SOL     OW91758   0.517   5.151   1.596  0.5085  0.2397 -0.2902
24589SOL    HW191759   0.486   5.063   1.577 -0.1541  0.0843  1.3490
24589SOL    HW291760   0.590   5.164   1.536  0.0650 -1.0869 -1.1575
24590SOL     OW91761   1.978   9.261   8.799 -0.0032  0.1068  0.3590
24590SOL    HW191762   1.948   9.171   8.787  1.6335 -0.1916 -2.2726
24590SOL    HW291763   1.968   9.301   8.713  1.3084  1.7809  0.9355
24591SOL     OW91764   2.104  11.057   7.230 -0.3299  0.2705 -0.2433
24591SOL    HW191765   2.024  11.105   7.208 -1.9640 -1.8596  0.6594
24591SOL    HW291766   2.140  11.104   7.305 -1.4703  0.5439  0.1582
24592SOL     OW91767   9.697   5.675   9.991  0.4740  0.5118 -0.2186
24592SOL    HW191768   9.613   5.638  10.020 -0.1204 -0.1281 -2.5659
24592SOL    HW291769   9.759   5.650  10.060 -0.8885 -0.5853  0.6708
24593SOL     OW91770   5.848   5.933  12.922 -0.6582 -0.0391 -0.0221
24593SOL    HW191771   5.913   5.992  12.883 -1.7125  0.4367 -1.1416
24593SOL    HW291772   5.766   5.982  12.916 -1.1104 -0.5884  1.4671
24594SOL     OW91773   2.295   2.013   6.489  0.3212  0.2031 -0.1857
24594SOL    HW191774   2.321   2.103   6.468  1.5105  0.7833  3.2769
24594SOL    HW291775   2.213   2.023   6.538  1.2251 -0.3986  1.5204
24595SOL     OW91776   7.786   9.524   6.800  0.3057  0.1756  0.2818
24595SOL    HW191777   7.846   9.596   6.779  2.2782 -1.7715 -1.2750
24595SOL    HW291778   7.840   9.459   6.844 -1.4976 -0.2842  1.9671
24596SOL     OW91779   9.695   8.926   1.209 -0.1116 -0.2150 -0.3361
24596SOL    HW191780   9.669   8.835   1.193  0.9183 -0.4255 -0.9071
24596SOL    HW291781   9.750   8.922   1.288  0.0732 -0.1173 -0.4586
24597SOL     OW91782  13.953   9.268  10.051 -0.9481 -0.4754  0.2781
24597SOL    HW191783  13.944   9.336   9.984 -0.8301 -1.7037 -1.0180
24597SOL    HW291784  13.893   9.296  10.121 -1.4316  0.5927 -0.5311
24598SOL     OW91785   8.112  11.678   7.807  0.0359  0.4977 -0.2299
24598SOL    HW191786   8.189  11.664   7.752  0.3091 -2.4199  0.7459
24598SOL    HW291787   8.139  11.746   7.868  2.4133 -1.3464  0.9367
24599SOL     OW91788   3.630   6.340   8.159  0.2654 -0.4199 -0.2362
24599SOL    HW191789   3.573   6.319   8.233 -0.5095  0.5597 -0.5306
24599SOL    HW291790   3.577   6.397   8.103  1.4645  0.3546 -0.6274
24600SOL     OW91791   5.377   1.998  11.617 -0.2314  0.1318  0.5513
24600SOL    HW191792   5.453   2.053  11.639  0.0798 -0.3227  0.6245
24600SOL    HW291793   5.304   2.040  11.661  0.1152  0.1256  1.1408
24601SOL     OW91794   3.466   3.550   4.513  0.4272  0.1832  0.3859
24601SOL    HW191795   3.430   3.555   4.601  2.1485 -0.6804  1.1918
24601SOL    HW291796   3.391   3.530   4.457 -0.1557 -3.5950  2.2150
24602SOL     OW91797   2.812   0.331   4.859  0.1413  0.1558 -1.0629
24602SOL    HW191798   2.749   0.260   4.871  0.8939 -0.2617  0.8306
24602SOL    HW291799   2.895   0.286   4.844  0.5513  0.6151 -0.2415
24603SOL     OW91800   0.700   5.440   5.927 -0.3662 -0.0470  0.0243
24603SOL    HW191801   0.755   5.397   5.993 -0.8648  0.6172  0.8915
24603SOL    HW291802   0.723   5.533   5.934  1.2037 -0.1779 -2.2918
24604SOL     OW91803   2.887   3.142   2.113 -0.0953 -0.1268  0.1111
24604SOL    HW191804   2.873   3.204   2.042  0.1042 -0.5271 -0.2860
24604SOL    HW291805   2.799   3.121   2.145 -0.2572 -0.6476 -0.6414
24605SOL     OW91806  13.193   7.165   2.707  0.4873  0.1125  0.1878
24605SOL    HW191807  13.100   7.148   2.694  0.6452 -0.1803 -0.6125
24605SOL    HW291808  13.196   7.231   2.777 -0.2269 -1.5122  1.8392
24606SOL     OW91809   9.650   2.684   4.998 -0.5134  0.1082 -0.0954
24606SOL    HW191810   9.577   2.746   5.000  0.0107  0.7332  0.0563
24606SOL    HW291811   9.701   2.704   5.077  2.3410  2.8318 -2.3218
24607SOL     OW91812   6.583   7.613  14.017 -0.7104 -0.0967 -0.1260
24607SOL    HW191813   6.608   7.639  14.106 -0.8555 -0.0454 -0.1010
24607SOL    HW291814   6.618   7.682  13.961  0.0823 -0.5293 -0.1866
24608SOL     OW91815   8.622  11.444   6.669 -0.7940 -0.4569  0.4075
24608SOL    HW191816   8.590  11.355   6.685 -0.9877 -0.7047 -1.1549
24608SOL    HW291817   8.678  11.436   6.592 -1.0372  0.8125  0.0745
24609SOL     OW91818   9.511   0.328   4.054  0.2408  0.2098  0.3193
24609SOL    HW191819   9.472   0.263   3.995 -1.1042 -1.2409  2.6442
24609SOL    HW291820   9.443   0.395   4.065  0.3327  0.2756  0.4986
24610SOL     OW91821  13.688  11.765   8.768 -0.1591  0.3783 -0.5896
24610SOL    HW191822  13.670  11.750   8.860  3.1776  0.6450  0.2286
24610SOL    HW291823  13.668  11.682   8.725 -0.4776 -0.1726  0.6025
24611SOL     OW91824   2.016   9.479   8.953  0.1708  0.0648 -0.1800
24611SOL    HW191825   2.073   9.464   9.028 -0.3898 -0.5085  0.1309
24611SOL    HW291826   2.021   9.398   8.902 -0.9918 -0.3093  0.2697
24612SOL     OW91827   8.390   6.545   4.412  0.0761 -0.1120  0.2416
24612SOL    HW191828   8.434   6.460   4.410  0.0943 -0.1288  1.0152
24612SOL    HW291829   8.336   6.546   4.332 -0.3872 -1.1083  0.5244
24613SOL     OW91830   6.256   4.867   5.268 -0.3958 -0.4287 -0.2919
24613SOL    HW191831   6.349   4.850   5.252 -1.0220 -4.3174 -0.7983
24613SOL    HW291832   6.229   4.923   5.196  1.4899  0.5797 -0.2602
24614SOL     OW91833  10.274   5.391  12.399  0.2094 -0.1139  0.2399
24614SOL    HW191834  10.198   5.388  12.342 -0.4050  1.2006  0.9424
24614SOL    HW291835  10.324   5.467  12.369  0.4315 -0.0429  0.7750
24615SOL     OW91836   7.992  11.199   4.786 -0.2562 -0.0546  0.1575
24615SOL    HW191837   8.016  11.121   4.736  1.2718  0.4227  0.1035
24615SOL    HW291838   8.021  11.180   4.875  0.6882  0.6848  0.0158
24616SOL     OW91839   6.711   4.903  13.245  0.0586  0.0675 -0.2163
24616SOL    HW191840   6.678   4.919  13.333  0.2465  1.0886 -0.3192
24616SOL    HW291841   6.658   4.959  13.189  1.6658  1.4466 -0.4314
24617SOL     OW91842   5.144   2.110   6.058 -0.2413 -0.1623 -0.8582
24617SOL    HW191843   5.234   2.087   6.036  0.5262  2.3796 -0.6159
24617SOL    HW291844   5.091   2.048   6.008  1.6041 -1.0643 -1.8070
24618SOL     OW91845   1.149  11.493  13.916 -0.0523 -0.2499  0.0164
24618SOL    HW191846   1.231  11.539  13.937 -0.9829  1.9217 -0.8309
24618SOL    HW291847   1.162  11.461  13.827 -0.1481  0.1875 -0.1578
24619SOL     OW91848  11.378  10.605  11.614  0.5090  0.0990 -0.2024
24619SOL    HW191849  11.366  10.606  11.519 -0.1590 -1.7802 -0.1727
24619SOL    HW291850  11.468  10.575  11.627  0.6239  0.4261 -0.2369
24620SOL     OW91851  11.022   5.076   5.925 -0.0595 -1.0020 -0.6858
24620SOL    HW191852  10.968   5.008   5.963 -0.3980  0.8428  2.4920
24620SOL    HW291853  11.110   5.039   5.923 -0.1956 -1.5155  1.1569
24621SOL     OW91854   1.053   3.930  12.780  0.1424 -0.5758 -0.1744
24621SOL    HW191855   1.090   3.989  12.846 -0.2280 -0.8773  0.3046
24621SOL    HW291856   1.065   3.977  12.697  1.1350 -0.4495  0.0329
24622SOL     OW91857  10.392   2.043   2.548  0.2185 -0.4603 -0.2455
24622SOL    HW191858  10.305   2.003   2.547  1.1871 -2.8235  1.0335
24622SOL    HW291859  10.408   2.065   2.456 -1.8097  0.3141 -0.4727
24623SOL     OW91860   8.125   7.442   3.410  0.4292 -0.7712  0.3076
24623SOL    HW191861   8.221   7.442   3.419  0.5660  4.1756  1.2232
24623SOL    HW291862   8.110   7.469   3.319 -0.1070 -0.8918  0.3601
24624SOL     OW91863  13.239   3.172   3.366 -0.4774  0.1341 -0.1228
24624SOL    HW191864  13.288   3.226   3.304 -1.3387 -0.6262 -1.5165
24624SOL    HW291865  13.306   3.124   3.415  0.2844 -2.1793 -3.1382
24625SOL     OW91866  11.703   5.002   1.396  0.6420 -0.7828  0.3833
24625SOL    HW191867  11.671   5.042   1.476  2.9458  0.7482  0.6175
24625SOL    HW291868  11.736   4.916   1.423 -0.6688 -1.2491  0.5963
24626SOL     OW91869  12.769   0.201  12.218 -0.2652 -0.0260 -0.0158
24626SOL    HW191870  12.796   0.110  12.229  1.1261  0.1919 -1.3359
24626SOL    HW291871  12.837   0.239  12.162 -2.4896  0.9860 -2.1955
24627SOL     OW91872   8.837   1.347  12.569 -0.4963 -0.6115 -0.2948
24627SOL    HW191873   8.931   1.361  12.581 -0.6799  1.2682 -0.6716
24627SOL    HW291874   8.806   1.314  12.653  0.4054 -0.7579 -0.0080
24628SOL     OW91875  11.739  13.411   5.697 -0.3515 -0.0131 -0.2368
24628SOL    HW191876  11.649  13.432   5.671 -0.3672 -0.9840 -1.0333
24628SOL    HW291877  11.781  13.496   5.710 -1.7412  0.4850  1.5196
24629SOL     OW91878   8.025  13.772  13.176 -0.2730 -0.4408 -0.8249
24629SOL    HW191879   8.004  13.800  13.265  0.0436 -1.9530 -0.2407
24629SOL    HW291880   7.956  13.808  13.122 -1.4792 -0.9799  0.3074
24630SOL     OW91881   3.795   5.189   1.894 -0.4883  0.2797 -0.0546
24630SOL    HW191882   3.756   5.275   1.910  0.1418  0.3556  1.2094
24630SOL    HW291883   3.863   5.206   1.829 -1.1457  0.5169 -0.6946
24631SOL     OW91884  12.259   1.315  12.315  0.4506  0.4912 -0.4428
24631SOL    HW191885  12.331   1.335  12.376  0.0650  2.4005 -0.5455
24631SOL    HW291886  12.284   1.360  12.234 -1.0445  1.5971 -0.3322
24632SOL     OW91887  11.400  12.105  14.085  0.3905 -0.4004 -0.0793
24632SOL    HW191888  11.485  12.144  14.065  2.4894 -4.4722 -0.3179
24632SOL    HW291889  11.346  12.125  14.009  1.9360  0.3766 -1.0157
24633SOL     OW91890   6.678   9.441   4.962  0.1849  0.5044 -0.1206
24633SOL    HW191891   6.584   9.433   4.943 -0.3800  1.0558  2.1089
24633SOL    HW291892   6.709   9.350   4.967 -0.4414  0.2890 -0.0229
24634SOL     OW91893   6.403  14.050   1.357  0.1760 -0.3187  0.1836
24634SOL    HW191894   6.309  14.064   1.357  0.0078 -1.3084 -1.3254
24634SOL    HW291895   6.418  13.984   1.424 -0.1985 -0.1788  0.4050
24635SOL     OW91896  11.139   8.383  12.260 -0.1245  0.6275  0.0344
24635SOL    HW191897  11.216   8.433  12.231  0.5919 -0.0007  0.8046
24635SOL    HW291898  11.065   8.432  12.225  0.6241  1.2199 -0.7745
24636SOL     OW91899   6.912   2.884  10.169  0.6704 -0.0659 -0.2228
24636SOL    HW191900   6.917   2.854  10.078  3.1471  0.5775 -0.3874
24636SOL    HW291901   6.819   2.881  10.190  0.0604 -0.6447 -2.6294
24637SOL     OW91902   7.761   9.558   1.988  0.0532 -0.5538 -0.1903
24637SOL    HW191903   7.708   9.637   1.976 -0.4664 -0.6551  1.1745
24637SOL    HW291904   7.828   9.562   1.920  0.4706  1.4258  0.3030
24638SOL     OW91905   9.395   0.191   2.902  0.4898 -0.0595  0.0604
24638SOL    HW191906   9.427   0.210   2.990  1.7516  0.6804 -0.5361
24638SOL    HW291907   9.449   0.244   2.844  0.6526 -1.5968 -1.2860
24639SOL     OW91908   6.376   6.872   9.481 -0.1462  0.4733 -0.1552
24639SOL    HW191909   6.427   6.933   9.428  0.1171  1.4108  1.1338
24639SOL    HW291910   6.434   6.850   9.554 -1.3675  1.1412  1.0516
24640SOL     OW91911   5.769   7.984   3.238 -0.3112 -0.3551  0.3228
24640SOL    HW191912   5.795   8.062   3.189 -0.3736 -1.1286 -0.9908
24640SOL    HW291913   5.683   7.962   3.204 -0.1599 -1.1820  0.4587
24641SOL     OW91914   7.292  12.719  13.807 -0.7603  0.2981  0.0752
24641SOL    HW191915   7.244  12.688  13.730 -0.6154  0.7162 -0.1829
24641SOL    HW291916   7.307  12.640  13.859 -1.1668  0.0688 -0.1539
24642SOL     OW91917   0.877   3.427   6.126  0.1941 -0.6688  0.1982
24642SOL    HW191918   0.900   3.444   6.218 -0.9368  3.1959 -0.0444
24642SOL    HW291919   0.921   3.497   6.077 -0.0751 -2.0151 -2.1095
24643SOL     OW91920  13.614   1.861   9.771  0.2207 -0.2841  0.2663
24643SOL    HW191921  13.566   1.809   9.836 -1.8817  2.8144  1.4260
24643SOL    HW291922  13.674   1.915   9.822  0.3546  0.4296 -0.6111
24644SOL     OW91923   3.275   6.985   8.583 -0.3262 -0.4972  0.0240
24644SOL    HW191924   3.263   6.911   8.524  0.9573 -0.3432 -0.4485
24644SOL    HW291925   3.191   6.993   8.628 -0.8062 -1.6090 -0.6333
24645SOL     OW91926   9.901   8.627   9.843  0.5921  0.0846  0.0225
24645SOL    HW191927   9.984   8.674   9.834  0.3040  0.6234  0.1363
24645SOL    HW291928   9.850   8.680   9.905  0.3375 -0.4832  0.3096
24646SOL     OW91929   5.562   6.724  11.449 -0.2388 -0.5710 -0.5484
24646SOL    HW191930   5.528   6.690  11.532 -0.9202  1.6679  0.1828
24646SOL    HW291931   5.486   6.767  11.409  0.5909  0.2237 -1.3016
24647SOL     OW91932   1.772  13.200  10.392  0.2376  0.3600 -0.0904
24647SOL    HW191933   1.761  13.125  10.450  1.6607 -0.1360 -0.4191
24647SOL    HW291934   1.811  13.267  10.448  0.8238  0.1646 -0.2526
24648SOL     OW91935  11.863   5.090  10.873  0.0976 -0.1895 -0.1069
24648SOL    HW191936  11.882   5.111  10.964  0.2875 -0.4674 -0.0790
24648SOL    HW291937  11.853   4.995  10.872  0.9236 -0.2877 -0.5142
24649SOL     OW91938  13.716   3.660   0.844  0.3132  0.2298  0.3735
24649SOL    HW191939  13.693   3.748   0.873  1.0566  0.3192  0.7311
24649SOL    HW291940  13.777   3.674   0.771  0.3851  0.0156  0.3905
24650SOL     OW91941  10.323   2.988   2.447 -0.0333 -0.0071 -0.4139
24650SOL    HW191942  10.237   3.012   2.480  0.0631 -0.0092 -0.1522
24650SOL    HW291943  10.324   2.893   2.450 -0.0146 -0.0064 -0.3937
24651SOL     OW91944   3.604   3.358   1.440 -0.8722 -0.2984 -0.1187
24651SOL    HW191945   3.577   3.343   1.531 -0.2863  0.2731  0.1632
24651SOL    HW291946   3.683   3.412   1.448 -1.5900  0.9390 -0.9850
24652SOL     OW91947  11.569   9.912   7.523 -0.2303 -0.4372  0.3047
24652SOL    HW191948  11.578   9.997   7.480 -1.0965 -0.3945  0.1883
24652SOL    HW291949  11.598   9.927   7.613 -0.2648 -0.0496  0.2516
24653SOL     OW91950   1.431   4.292   4.137  0.1064 -0.4008  0.3212
24653SOL    HW191951   1.392   4.206   4.154 -0.0621 -0.2319  0.8217
24653SOL    HW291952   1.502   4.275   4.076  0.5149 -0.9931  0.9533
24654SOL     OW91953   5.387   5.353   8.294  0.3063  0.1207 -0.6724
24654SOL    HW191954   5.434   5.322   8.372  1.0223 -0.3186 -1.2700
24654SOL    HW291955   5.300   5.314   8.301 -0.1488  1.2913  0.6719
24655SOL     OW91956   1.760  12.520   0.450  0.4181 -0.7848 -0.2726
24655SOL    HW191957   1.703  12.462   0.501  0.3450 -0.0391  0.5255
24655SOL    HW291958   1.839  12.527   0.503 -0.1803  1.0976  0.4794
24656SOL     OW91959   0.261   3.374   4.482  0.0871  0.0139  0.4902
24656SOL    HW191960   0.318   3.346   4.410 -0.8569 -0.8379  0.0502
24656SOL    HW291961   0.173   3.345   4.456 -0.2403 -0.5282  2.0978
24657SOL     OW91962   7.362  13.644   5.039 -0.0443  0.1232 -0.1912
24657SOL    HW191963   7.289  13.650   5.101  0.8020  0.3068  0.8158
24657SOL    HW291964   7.403  13.559   5.058 -1.0285 -0.8131 -1.9611
24658SOL     OW91965   3.558  12.942  11.243 -0.3218  0.2127 -0.3104
24658SOL    HW191966   3.508  12.882  11.298 -1.7994  2.9207  1.5824
24658SOL    HW291967   3.499  13.015  11.227  1.9052  2.0352 -0.8766
24659SOL     OW91968  10.594  10.688   0.586  0.1422 -0.3328  0.1981
24659SOL    HW191969  10.597  10.593   0.595 -0.8171 -0.4493 -0.5174
24659SOL    HW291970  10.661  10.720   0.645  0.6234 -1.4696  0.2912
24660SOL     OW91971   6.018   8.470   6.871 -0.1808 -0.3268 -0.3254
24660SOL    HW191972   5.986   8.548   6.917  1.7251  1.4810 -1.8358
24660SOL    HW291973   6.088   8.437   6.927 -0.1035 -0.1549 -0.3200
24661SOL     OW91974   7.412  12.337   9.782 -0.2072 -0.2045 -0.3902
24661SOL    HW191975   7.366  12.384   9.712  0.1662 -0.9253 -1.1319
24661SOL    HW291976   7.485  12.294   9.738  0.6360  0.1525  0.6154
24662SOL     OW91977   5.595   0.787  13.251  0.0338 -0.5493 -0.1900
24662SOL    HW191978   5.621   0.733  13.176  1.0474  0.3443 -0.5056
24662SOL    HW291979   5.566   0.724  13.317  2.1268 -1.5681 -0.1752
24663SOL     OW91980   6.878   1.362   1.529  0.2991  0.0136  0.3569
24663SOL    HW191981   6.799   1.393   1.574 -0.0390 -0.6578  0.2409
24663SOL    HW291982   6.870   1.397   1.440 -0.2201 -0.6377  0.1454
24664SOL     OW91983   8.796   4.564  13.566  0.0329  0.5762  0.2320
24664SOL    HW191984   8.723   4.623  13.550  0.2886  0.5681 -1.1352
24664SOL    HW291985   8.857   4.580  13.493  2.1093  1.6374  2.0806
24665SOL     OW91986   0.479   6.512  12.454  0.0479  0.1203 -0.2219
24665SOL    HW191987   0.546   6.574  12.481 -0.5934  0.0511  1.7335
24665SOL    HW291988   0.515   6.469  12.376  1.6348  1.0657 -0.0512
24666SOL     OW91989   8.679   5.065   8.504 -0.2344 -0.5543  0.1805
24666SOL    HW191990   8.711   5.153   8.482  1.0966 -1.3547 -1.2098
24666SOL    HW291991   8.586   5.068   8.482 -0.1962  0.4749  0.0800
24667SOL     OW91992   0.968   0.864  12.348 -0.5452 -0.1342  0.1128
24667SOL    HW191993   1.026   0.910  12.288  0.6431 -0.4636  0.9873
24667SOL    HW291994   1.025   0.830  12.417 -1.9582  1.0611  1.9708
24668SOL     OW91995   7.255   6.382   4.477 -0.0612  0.6390  0.3663
24668SOL    HW191996   7.167   6.352   4.454 -0.9692  2.1938  1.5993
24668SOL    HW291997   7.243   6.475   4.498  1.5871  0.5011  2.1043
24669SOL     OW91998   9.366   2.997  10.055  0.2422  0.0979  0.6035
24669SOL    HW191999   9.378   2.937  10.128 -0.7679 -0.4965  0.3034
24669SOL    HW292000   9.295   3.055  10.083 -0.6936 -0.6282 -0.1849
24670SOL     OW92001  13.974   9.180   2.111 -0.4611  0.5415 -0.6986
24670SOL    HW192002  14.011   9.107   2.162  0.2674  0.4427 -1.3410
24670SOL    HW292003  13.915   9.224   2.171 -0.1970 -0.0269 -0.0059
24671SOL     OW92004  10.152   5.146   2.632 -0.6631  0.1499  0.9046
24671SOL    HW192005  10.159   5.242   2.630 -2.6332  0.3314 -0.8965
24671SOL    HW292006  10.161   5.124   2.725  0.4644  1.9996  1.2924
24672SOL     OW92007   1.499   0.187   1.432 -1.1782  0.4182  0.3249
24672SOL    HW192008   1.567   0.127   1.401 -1.3968 -0.2264  1.0485
24672SOL    HW292009   1.482   0.245   1.358 -1.8818 -1.2328 -0.8817
24673SOL     OW92010  12.275   6.239   1.384  1.1210  0.4566  0.0263
24673SOL    HW192011  12.318   6.186   1.318  1.4963 -1.7450  1.8989
24673SOL    HW292012  12.191   6.196   1.399  1.4435  0.3172  1.6144
24674SOL     OW92013   4.132  10.336  11.044  0.4189  0.3673 -0.0754
24674SOL    HW192014   4.084  10.295  10.972  1.2017  0.1372 -0.4782
24674SOL    HW292015   4.075  10.325  11.120  0.2966 -0.8251 -0.3212
24675SOL     OW92016  13.918   5.065   9.316  0.0931 -0.2037 -0.1970
24675SOL    HW192017  13.975   5.023   9.251 -1.5024 -0.8209 -1.2737
24675SOL    HW292018  13.947   5.030   9.400  1.6963  0.0043 -0.6338
24676SOL     OW92019  11.681   7.740   1.012 -0.1728  0.0314 -0.2912
24676SOL    HW192020  11.623   7.810   1.042 -0.8648 -0.1471 -1.1813
24676SOL    HW292021  11.752   7.739   1.076 -0.2882  1.3697 -0.1149
24677SOL     OW92022   0.197   3.692   0.702 -0.3409 -0.3675  0.5360
24677SOL    HW192023   0.182   3.665   0.611  2.7847  0.6656 -0.3890
24677SOL    HW292024   0.144   3.771   0.712 -2.9060 -1.9623  0.6081
24678SOL     OW92025   8.565   3.345  11.752 -0.4626 -0.5959  0.1355
24678SOL    HW192026   8.559   3.402  11.828 -1.1807 -1.4183  0.7222
24678SOL    HW292027   8.475   3.338  11.720 -0.1437 -0.1153 -0.9073
24679SOL     OW92028  13.804  13.325   3.174 -0.4328 -0.6950 -0.0875
24679SOL    HW192029  13.815  13.282   3.259 -0.0426 -0.9111 -0.2486
24679SOL    HW292030  13.890  13.360   3.153 -1.0764  1.5460  0.7687
24680SOL     OW92031   3.936   3.238   5.494  0.3518  0.2030  0.4780
24680SOL    HW192032   3.874   3.272   5.557 -0.3789  1.7214 -0.9944
24680SOL    HW292033   3.903   3.151   5.471  0.1742 -0.0145  1.5252
24681SOL     OW92034  12.985  10.709   9.085 -0.0980  0.3618 -0.3965
24681SOL    HW192035  12.971  10.704   8.991  0.5031 -0.2381 -0.4622
24681SOL    HW292036  12.960  10.623   9.118  0.2080  0.3933 -0.0785
24682SOL     OW92037   4.328   9.183  10.096  0.1673 -0.0964 -0.4764
24682SOL    HW192038   4.377   9.256  10.133 -0.0423 -0.6827  1.0327
24682SOL    HW292039   4.271   9.154  10.167 -1.0270 -0.6183 -1.6049
24683SOL     OW92040  10.108   6.371   5.451  0.5142  0.2912 -0.0158
24683SOL    HW192041  10.036   6.414   5.405  1.8419  2.8425  0.1198
24683SOL    HW292042  10.141   6.307   5.388 -1.0259 -0.0273 -0.5533
24684SOL     OW92043   3.364  10.897  13.483  0.1190  0.4898 -0.0355
24684SOL    HW192044   3.399  10.810  13.461 -0.3930  0.2722 -0.0150
24684SOL    HW292045   3.419  10.958  13.433 -0.7020  0.0343 -1.5773
24685SOL     OW92046   7.115   2.171  11.628  0.4505  0.8712 -0.2659
24685SOL    HW192047   7.210   2.182  11.629  0.6245 -0.2922 -1.6847
24685SOL    HW292048   7.099   2.097  11.687  0.4087  1.0901  0.0013
24686SOL     OW92049   3.442  12.316  13.195  0.0787  0.5003  0.8247
24686SOL    HW192050   3.529  12.312  13.234 -0.4754  1.9948  2.3196
24686SOL    HW292051   3.453  12.275  13.109  2.3220  0.9152  0.8455
24687SOL     OW92052  11.802  13.548   0.425 -0.0622 -0.1994  0.2000
24687SOL    HW192053  11.861  13.496   0.479  0.0658 -0.6442 -0.3580
24687SOL    HW292054  11.827  13.527   0.335  1.7643  2.7601 -0.1327
24688SOL     OW92055   6.484   8.177  14.020 -0.2326  0.4687  0.0288
24688SOL    HW192056   6.490   8.226  14.101 -0.7313 -1.1736  1.1048
24688SOL    HW292057   6.391   8.161  14.007 -0.1444  0.5211 -0.7657
24689SOL     OW92058   0.859   9.540   6.166 -0.3337 -0.4593 -0.2586
24689SOL    HW192059   0.794   9.503   6.107 -1.6930  1.5205 -0.0897
24689SOL    HW292060   0.857   9.634   6.149  0.8796 -0.0948  1.3282
24690SOL     OW92061  13.187  10.464   1.284 -0.3492 -0.2951 -0.0613
24690SOL    HW192062  13.139  10.381   1.291  0.7267 -0.8490  1.2034
24690SOL    HW292063  13.248  10.450   1.212 -1.0769 -0.1148 -0.7205
24691SOL     OW92064   8.648   8.437  11.164  0.3343  0.2296  0.2168
24691SOL    HW192065   8.593   8.497  11.215  0.1953 -0.4485  0.8873
24691SOL    HW292066   8.642   8.354  11.211 -1.6679 -1.0944 -2.1264
24692SOL     OW92067  10.100   7.612   2.784 -0.0734 -0.4616 -0.8176
24692SOL    HW192068  10.089   7.682   2.849 -2.6681  0.7015 -2.3577
24692SOL    HW292069  10.148   7.543   2.831  1.6210  1.8452  1.1034
24693SOL     OW92070   6.287  14.108   3.233 -0.1621 -0.3963  0.1936
24693SOL    HW192071   6.322  14.178   3.178  0.4810 -0.9158 -0.0717
24693SOL    HW292072   6.314  14.132   3.322 -0.6347  0.0992  0.2116
24694SOL     OW92073  10.366   9.090   0.392  0.4966 -0.4461  0.4755
24694SOL    HW192074  10.331   9.041   0.467 -0.7471 -2.6861 -1.4439
24694SOL    HW292075  10.289   9.131   0.353  1.3853  2.4937  1.4726
24695SOL     OW92076   6.660   3.360  10.996  0.6403  0.1553  0.6455
24695SOL    HW192077   6.752   3.376  11.015  0.8855 -2.4156  2.1197
24695SOL    HW292078   6.614   3.384  11.077  0.1855  0.2484  0.3634
24696SOL     OW92079  10.781   0.249   5.657  0.0724 -0.6059  0.2435
24696SOL    HW192080  10.716   0.186   5.687 -1.5751 -0.3113 -2.3342
24696SOL    HW292081  10.821   0.208   5.580 -1.5048  1.6043 -1.9062
24697SOL     OW92082  10.295   0.034   9.352 -0.1589  0.1737  0.2553
24697SOL    HW192083  10.234   0.082   9.409  0.4255  0.4685  0.6427
24697SOL    HW292084  10.377   0.082   9.359  0.5892 -1.1590  1.0537
24698SOL     OW92085   4.684   5.323   3.131  0.4515  0.2110  0.2545
24698SOL    HW192086   4.663   5.363   3.047  1.1108  1.3511  0.6093
24698SOL    HW292087   4.680   5.395   3.193  2.5725 -0.0650  0.7825
24699SOL     OW92088   5.338  10.544  10.619  0.0103 -0.5354 -0.5310
24699SOL    HW192089   5.398  10.482  10.660 -0.1128 -0.4406 -0.2021
24699SOL    HW292090   5.255  10.530  10.663  0.2564  0.6350  0.3590
24700SOL     OW92091   7.010  13.562   1.234  0.1042 -0.1938  0.2710
24700SOL    HW192092   7.065  13.639   1.221  0.6693 -0.7131 -0.5210
24700SOL    HW292093   6.992  13.560   1.328  2.8122 -0.9313  0.8441
24701SOL     OW92094  11.878   7.460  10.684 -0.0735 -0.3709 -0.1558
24701SOL    HW192095  11.829   7.472  10.603  0.5069 -0.8304 -0.5816
24701SOL    HW292096  11.906   7.548  10.709 -1.5307 -0.0257  0.3757
24702SOL     OW92097   9.642   2.764   7.196  0.1415  0.4070 -0.1598
24702SOL    HW192098   9.575   2.717   7.245  0.1797  0.6900  0.1676
24702SOL    HW292099   9.712   2.780   7.260  0.7666 -0.3661 -0.6296
24703SOL     OW92100  13.067   4.339   2.196  0.1856 -0.0545  0.1303
24703SOL    HW192101  13.145   4.357   2.142  0.8944 -0.4674  0.9950
24703SOL    HW292102  13.077   4.248   2.222 -2.0435 -1.0424 -2.0587
24704SOL     OW92103   0.371   9.384   9.623  0.2527 -0.3897 -0.4457
24704SOL    HW192104   0.450   9.333   9.636 -0.1535 -0.6837  1.1665
24704SOL    HW292105   0.307   9.346   9.684 -0.5945  0.9221 -0.4554
24705SOL     OW92106  11.108   6.836   2.932  0.2548  0.6917  0.0119
24705SOL    HW192107  11.065   6.808   3.013  2.0898 -1.1871  0.4390
24705SOL    HW292108  11.175   6.898   2.962 -0.0030  1.1060 -0.2597
24706SOL     OW92109  11.234   6.206  12.491  0.1833  0.7783  0.2763
24706SOL    HW192110  11.232   6.130  12.433  3.1000  0.1322  0.8826
24706SOL    HW292111  11.173   6.186  12.561  0.6514 -0.8889  0.2407
24707SOL     OW92112   9.307   6.447   8.618 -0.0049 -0.0141 -0.2127
24707SOL    HW192113   9.245   6.374   8.622 -0.0206  0.0187  2.8101
24707SOL    HW292114   9.392   6.406   8.631  0.3181  0.2644 -1.3365
24708SOL     OW92115  13.723   0.693   3.731 -0.4024 -0.3095  0.2173
24708SOL    HW192116  13.774   0.743   3.795 -0.5102 -0.6166  0.5441
24708SOL    HW292117  13.718   0.751   3.654  2.8681 -1.3084 -0.9460
24709SOL     OW92118   5.780  10.369  12.178  0.3022 -0.1708 -0.0649
24709SOL    HW192119   5.762  10.369  12.272  0.7135  1.4067  0.0280
24709SOL    HW292120   5.875  10.383  12.172 -0.0645  2.3287 -0.7396
24710SOL     OW92121   0.345   9.710   6.188 -0.3812 -0.3369 -0.1799
24710SOL    HW192122   0.424   9.679   6.232 -1.1295  0.5626  1.9319
24710SOL    HW292123   0.365   9.800   6.162 -0.9954  0.2604  1.2923
24711SOL     OW92124  10.248  11.809  13.904 -0.0563  0.0826  0.2846
24711SOL    HW192125  10.332  11.810  13.859 -0.5477  0.2211 -0.6555
24711SOL    HW292126  10.228  11.716  13.917 -0.2721  0.0065 -0.5066
24712SOL     OW92127   7.246  10.135   5.945 -0.3229  0.6756 -0.5494
24712SOL    HW192128   7.230  10.115   6.037 -0.1713  0.6369 -0.5312
24712SOL    HW292129   7.203  10.065   5.897  1.1004 -0.3112 -0.4578
24713SOL     OW92130   8.213  13.302   6.080  0.1088  0.3921 -0.4070
24713SOL    HW192131   8.298  13.293   6.036  0.1752  1.5855 -0.5468
24713SOL    HW292132   8.180  13.212   6.087  0.7592  0.0409 -1.5885
24714SOL     OW92133   4.774   0.374  12.781 -0.2160 -0.3340  0.4304
24714SOL    HW192134   4.853   0.320  12.787 -1.0487 -1.5792  0.4602
24714SOL    HW292135   4.704   0.313  12.758 -0.9405  0.9692 -0.9913
24715SOL     OW92136   3.138  11.009   1.337  0.3942 -0.1808 -0.0713
24715SOL    HW192137   3.058  10.956   1.340  1.4297 -1.9452 -1.4050
24715SOL    HW292138   3.130  11.060   1.256  0.3510  0.1254  0.1235
24716SOL     OW92139   0.967   5.902   8.946  0.0116 -0.3350 -0.0865
24716SOL    HW192140   0.968   5.941   9.033 -2.0587 -0.9583  0.2760
24716SOL    HW292141   1.004   5.814   8.958  0.5914 -0.0899 -0.0437
24717SOL     OW92142   1.051   0.673   0.462  0.0214 -0.1400 -0.1942
24717SOL    HW192143   0.969   0.723   0.464  1.4595  2.3892  0.3452
24717SOL    HW292144   1.027   0.586   0.494 -2.5971  0.2311 -0.8999
24718SOL     OW92145   8.176   3.923   6.534 -0.9999 -0.0843  0.2110
24718SOL    HW192146   8.113   3.851   6.531  0.0115 -0.9565 -1.1731
24718SOL    HW292147   8.142   3.987   6.472 -1.4498  0.2490  0.7986
24719SOL     OW92148  13.278  14.096  11.328  0.0861 -0.2589 -0.1909
24719SOL    HW192149  13.210  14.116  11.393  0.0781 -2.0845  0.4244
24719SOL    HW292150  13.240  14.122  11.244 -0.6034  0.5185  0.3439
24720SOL     OW92151   3.856   1.123  13.299  0.2149 -0.3693 -0.0765
24720SOL    HW192152   3.905   1.076  13.366  0.7009  0.8834  0.4786
24720SOL    HW292153   3.830   1.205  13.341  1.0542  0.7177 -1.5753
24721SOL     OW92154   8.920   1.182   9.491  0.0022  0.0651 -0.5456
24721SOL    HW192155   8.999   1.136   9.464  0.3214 -0.0381  0.5075
24721SOL    HW292156   8.887   1.131   9.565 -0.7006  0.4539 -0.5841
24722SOL     OW92157  10.188   4.381  11.802  0.1836 -0.3207 -0.2956
24722SOL    HW192158  10.256   4.319  11.775 -1.1810 -1.7303 -0.6465
24722SOL    HW292159  10.176   4.437  11.725  0.4067 -0.5678 -0.5164
24723SOL     OW92160   2.669  11.114   9.152  0.5993 -0.1706 -0.6489
24723SOL    HW192161   2.725  11.048   9.192  1.5871  2.0733  1.9911
24723SOL    HW292162   2.582  11.098   9.190  0.7657 -0.1444 -0.2513
24724SOL     OW92163   9.690   8.041   5.150  0.3192 -0.0224 -0.5267
24724SOL    HW192164   9.777   8.082   5.151  0.9794 -1.3747  0.5182
24724SOL    HW292165   9.644   8.085   5.078  3.3266 -2.2009 -4.1630
24725SOL     OW92166  13.487   4.096   2.574 -0.0253  0.3655  0.1736
24725SOL    HW192167  13.506   4.134   2.660  0.4095 -0.7422  0.5749
24725SOL    HW292168  13.402   4.055   2.585  0.4905 -0.6673  0.3839
24726SOL     OW92169  13.241   3.837  14.149 -0.5851 -0.2648  0.3057
24726SOL    HW192170  13.215   3.814  14.060 -0.1157  0.3096  0.0163
24726SOL    HW292171  13.202   3.923  14.164  3.9493  2.4345 -1.4747
24727SOL     OW92172   6.295   9.032   0.900 -0.0254 -0.4461 -0.4273
24727SOL    HW192173   6.387   9.022   0.926 -0.5652 -0.8809  1.4622
24727SOL    HW292174   6.262   8.942   0.896 -0.5095 -0.2616 -0.5224
24728SOL     OW92175   5.977   3.064   0.622  0.2008  0.5612 -0.1746
24728SOL    HW192176   5.883   3.047   0.621  0.2349  0.3703 -0.2152
24728SOL    HW292177   5.985   3.159   0.636 -0.0041  0.6488 -0.6256
24729SOL     OW92178   4.060   7.433  11.556  0.0574  0.0687 -0.0421
24729SOL    HW192179   4.002   7.361  11.580  0.6438 -0.1945  0.6216
24729SOL    HW292180   4.054   7.494  11.629  1.1175 -0.2780  0.3587
24730SOL     OW92181   5.513   7.913  10.800 -0.2734  0.5585  0.3089
24730SOL    HW192182   5.555   7.952  10.877  0.4977 -0.2837  0.3402
24730SOL    HW292183   5.518   7.818  10.816  1.9831  0.2198 -1.7618
24731SOL     OW92184  12.851   3.310   9.640 -0.7189 -0.5460 -0.0109
24731SOL    HW192185  12.834   3.216   9.627 -0.6455 -0.5704  0.0686
24731SOL    HW292186  12.871   3.343   9.553 -1.6652 -0.4140 -0.1893
24732SOL     OW92187   4.023   1.314   8.222  0.5350  0.1276 -0.1191
24732SOL    HW192188   3.941   1.297   8.175 -0.2273  0.1522  1.1549
24732SOL    HW292189   3.997   1.367   8.298  1.9853  1.6411 -0.6169
24733SOL     OW92190   5.532   9.358  13.295  0.3434 -0.2731 -0.5676
24733SOL    HW192191   5.608   9.323  13.341 -1.0940 -1.3748  1.0603
24733SOL    HW292192   5.472   9.284  13.287 -2.7607  1.5321  2.8491
24734SOL     OW92193  13.662  14.047  13.305  0.5932  0.3455 -0.8428
24734SOL    HW192194  13.733  14.004  13.352  0.7716  0.4455 -1.0171
24734SOL    HW292195  13.604  13.976  13.278  0.5889  0.2703 -0.6357
24735SOL     OW92196  12.522  13.889   4.404  0.2320 -0.6076 -0.0713
24735SOL    HW192197  12.554  13.800   4.419  3.0313  0.5129  1.3116
24735SOL    HW292198  12.575  13.920   4.330 -0.1629  0.1637 -0.0310
24736SOL     OW92199   0.468   3.785  12.784 -0.5112 -0.4539  0.6677
24736SOL    HW192200   0.536   3.772  12.850  0.4250 -0.6818 -0.3260
24736SOL    HW292201   0.465   3.703  12.736 -1.0490 -0.2129  0.2792
24737SOL     OW92202   7.286  13.107  13.778 -0.0932 -0.2531  0.3233
24737SOL    HW192203   7.348  13.126  13.849 -0.5527  2.0256  0.1959
24737SOL    HW292204   7.204  13.145  13.808 -0.3807  0.4584 -1.2929
24738SOL     OW92205  12.538  13.158   4.018  0.0811 -0.2022  0.3142
24738SOL    HW192206  12.616  13.158   4.073  1.6900 -1.4110 -1.8269
24738SOL    HW292207  12.542  13.076   3.970 -2.5702 -0.3180  0.1336
24739SOL     OW92208  14.058   2.708   3.582 -0.1666  0.0605 -0.2271
24739SOL    HW192209  14.084   2.678   3.494  0.7734 -0.0336  0.0761
24739SOL    HW292210  13.963   2.716   3.576 -0.0144  1.2634 -1.6245
24740SOL     OW92211  13.787   2.733   9.988  0.4164  0.1109  0.1085
24740SOL    HW192212  13.820   2.733   9.898 -1.7263  3.1210 -0.8265
24740SOL    HW292213  13.715   2.670   9.987 -1.0337  1.6829 -1.0045
24741SOL     OW92214   7.075   9.346  11.427 -0.2264  0.2416  0.5205
24741SOL    HW192215   7.092   9.254  11.449 -1.2354  0.1800  1.1110
24741SOL    HW292216   6.991   9.344  11.380  0.0197  0.8059  0.0432
24742SOL     OW92217  12.681   2.538   2.928  0.6697 -0.7868 -0.1158
24742SOL    HW192218  12.685   2.535   2.832 -2.0387  0.2765 -0.3342
24742SOL    HW292219  12.676   2.446   2.954  3.2903 -1.2047 -0.7858
24743SOL     OW92220  13.025   2.109  13.750  0.1990  0.0178  0.0546
24743SOL    HW192221  12.968   2.164  13.697  2.3818  1.5722 -0.8380
24743SOL    HW292222  13.048   2.036  13.693 -0.6627 -0.4837  0.3321
24744SOL     OW92223  14.127  11.448  11.304  0.6958  0.2747 -0.0834
24744SOL    HW192224  14.121  11.399  11.386  0.8764  1.4507  0.6515
24744SOL    HW292225  14.181  11.524  11.325 -2.1382  2.5070 -0.3240
24745SOL     OW92226   8.563  11.395   9.657  0.4635  0.0811  0.6366
24745SOL    HW192227   8.550  11.385   9.563  2.2453  0.8395  0.2703
24745SOL    HW292228   8.622  11.324   9.681 -0.2873 -0.3414  1.2778
24746SOL     OW92229   4.995   8.202  10.970 -0.4503  0.0826  0.3977
24746SOL    HW192230   5.087   8.178  10.961 -0.4208 -0.8396  2.6277
24746SOL    HW292231   4.948   8.143  10.911  0.3603  0.7134 -0.9282
24747SOL     OW92232  11.292   4.331   5.445  0.1602  0.7032  0.2626
24747SOL    HW192233  11.327   4.344   5.357 -1.6589  2.9761 -0.2076
24747SOL    HW292234  11.199   4.317   5.433 -0.3465  2.2676  1.8297
24748SOL     OW92235   6.616   2.395   9.159 -0.6465 -0.4035 -0.4395
24748SOL    HW192236   6.649   2.333   9.094  1.5347  0.2002  0.0027
24748SOL    HW292237   6.652   2.365   9.242 -2.4653 -0.5115  0.3716
24749SOL     OW92238   3.054   2.061   9.121 -0.3643 -0.5058  0.1744
24749SOL    HW192239   3.000   2.115   9.063 -0.5647 -0.6040  0.2658
24749SOL    HW292240   3.122   2.025   9.065 -0.3881 -0.3717  0.0587
24750SOL     OW92241  13.837   8.970  10.648 -0.4314  0.5037  0.1764
24750SOL    HW192242  13.919   9.018  10.662  0.1021  0.1323 -1.4367
24750SOL    HW292243  13.814   8.988  10.557 -1.0120 -1.0676 -0.0270
24751SOL     OW92244  12.437  11.274  10.231 -0.4182  0.5452 -0.1160
24751SOL    HW192245  12.382  11.239  10.301  0.6217  0.2066  0.5583
24751SOL    HW292246  12.515  11.307  10.276  1.5716 -2.1837 -1.2852
24752SOL     OW92247  11.745   7.149   0.922 -0.1570 -0.4248 -0.2938
24752SOL    HW192248  11.803   7.202   0.976 -0.4349 -0.5899  0.1708
24752SOL    HW292249  11.804   7.095   0.869  0.1362  0.5391 -0.9854
24753SOL     OW92250   0.894   4.120  10.377 -0.2006  0.0609  0.0731
24753SOL    HW192251   0.983   4.117  10.413 -0.4619 -0.6552  0.6907
24753SOL    HW292252   0.867   4.028  10.374 -0.3122  0.1222 -1.6579
24754SOL     OW92253  11.638   5.703   3.291  0.4769 -0.0209  0.3009
24754SOL    HW192254  11.639   5.786   3.339  0.4673 -0.4524  1.0591
24754SOL    HW292255  11.595   5.724   3.208 -1.3008  0.3240  1.2515
24755SOL     OW92256   8.297   4.888  11.775  0.1722 -0.0545  0.3048
24755SOL    HW192257   8.252   4.971  11.790  0.0394 -0.3772  1.9224
24755SOL    HW292258   8.280   4.868  11.683 -0.1495  1.4857 -0.0066
24756SOL     OW92259  13.079   5.639   4.756 -0.1895  0.1283  0.3377
24756SOL    HW192260  13.072   5.651   4.850  0.0462 -0.3096  0.4157
24756SOL    HW292261  13.032   5.558   4.738  0.5017 -0.2618  0.2102
24757SOL     OW92262   7.567   7.605   6.555 -0.3661 -0.3676  0.1595
24757SOL    HW192263   7.555   7.543   6.483  0.2341  0.9869 -1.1601
24757SOL    HW292264   7.617   7.557   6.620  2.3000 -0.6114 -1.8819
24758SOL     OW92265   8.605   4.919  12.837  0.4492  0.5011 -0.1803
24758SOL    HW192266   8.691   4.912  12.796  0.3261 -0.4993 -0.2992
24758SOL    HW292267   8.606   5.003  12.881  0.7467  1.4388 -1.8978
24759SOL     OW92268   5.451   0.556   0.759 -0.1843 -0.3488 -0.5031
24759SOL    HW192269   5.520   0.589   0.702  0.2750 -1.3144 -0.5220
24759SOL    HW292270   5.380   0.532   0.699 -0.4944  0.5337 -0.4930
24760SOL     OW92271  11.326   6.753   5.252 -0.2083 -0.2564 -0.1824
24760SOL    HW192272  11.238   6.720   5.272 -0.1940  0.1725  0.6804
24760SOL    HW292273  11.339   6.823   5.316 -0.2818  1.4992 -2.0025
24761SOL     OW92274   2.778   1.440   7.067 -0.3301 -0.2142 -0.2920
24761SOL    HW192275   2.836   1.369   7.094 -0.2349 -0.5494 -1.3199
24761SOL    HW292276   2.733   1.466   7.147  0.9961 -0.1614  0.4539
24762SOL     OW92277  10.532   7.766   6.689  0.3403  0.2416 -0.7208
24762SOL    HW192278  10.544   7.695   6.752  1.0145  1.0536  0.0929
24762SOL    HW292279  10.530   7.722   6.604 -0.3674 -0.8575 -0.1696
24763SOL     OW92280   7.638   6.146  13.648 -0.2059 -0.2878  0.0160
24763SOL    HW192281   7.580   6.201  13.596  0.8402 -1.1573 -2.2035
24763SOL    HW292282   7.696   6.208  13.692 -2.2716  0.5602  1.7300
24764SOL     OW92283  12.096  12.272   5.249 -0.2617  0.0141 -0.1348
24764SOL    HW192284  12.130  12.357   5.277 -0.9049  0.5175 -0.8561
24764SOL    HW292285  12.001  12.282   5.252 -0.4005 -1.3166  1.6910
24765SOL     OW92286   8.872   0.516   3.821 -0.1969  0.3640 -0.1359
24765SOL    HW192287   8.967   0.518   3.829 -0.1613 -1.6203  0.3513
24765SOL    HW292288   8.856   0.493   3.730 -0.1865  0.0563 -0.0621
24766SOL     OW92289   9.364  10.253  10.343 -0.4906 -0.1943 -0.5796
24766SOL    HW192290   9.415  10.333  10.356  0.4136 -0.7932 -0.3630
24766SOL    HW292291   9.333  10.230  10.430 -1.7410  0.5482 -0.8080
24767SOL     OW92292   4.438  11.048   3.612 -0.9129 -0.1365  0.7267
24767SOL    HW192293   4.529  11.053   3.584 -0.2837  0.1010  2.7226
24767SOL    HW292294   4.390  11.029   3.531  0.7397  0.9818 -0.5984
24768SOL     OW92295   3.770  12.131   1.068  0.5349 -0.7285 -0.0229
24768SOL    HW192296   3.818  12.084   0.999  1.7696  1.1276 -0.4929
24768SOL    HW292297   3.830  12.132   1.143  0.2895 -0.3916  0.1731
24769SOL     OW92298  13.639  12.524   7.065 -0.6312 -0.2896  0.2767
24769SOL    HW192299  13.564  12.583   7.066  0.2303  0.9905 -2.0935
24769SOL    HW292300  13.715  12.581   7.058  0.3092 -1.6065 -1.0989
24770SOL     OW92301   2.858  10.175   9.204  0.2572 -0.6181  0.3320
24770SOL    HW192302   2.818  10.119   9.271 -0.2237 -1.4253 -0.6015
24770SOL    HW292303   2.935  10.126   9.174 -0.3503 -0.9660 -0.7230
24771SOL     OW92304   9.410  12.236   2.325 -0.1240  0.3458  0.3870
24771SOL    HW192305   9.355  12.203   2.254 -1.6472 -1.7269  2.3688
24771SOL    HW292306   9.348  12.257   2.395  1.1777  3.8579  0.6558
24772SOL     OW92307  10.807  12.951   8.303 -0.2624 -0.3133 -0.0978
24772SOL    HW192308  10.749  12.901   8.245 -0.3339  0.3750 -0.6219
24772SOL    HW292309  10.870  12.886   8.335 -1.0031 -0.9695  0.0837
24773SOL     OW92310  13.578   5.600   5.157  0.4987 -0.2787  0.0501
24773SOL    HW192311  13.569   5.691   5.129  0.3897 -0.3489 -0.1518
24773SOL    HW292312  13.605   5.604   5.248  1.6293 -0.0322 -0.2840
24774SOL     OW92313   2.583  12.485   6.544  0.1001  0.1501 -0.3219
24774SOL    HW192314   2.570  12.421   6.614  1.2668  0.6611  0.4012
24774SOL    HW292315   2.595  12.568   6.589  0.1389  0.6152 -1.1662
24775SOL     OW92316  10.969   2.629   7.262  0.0365 -0.3483 -0.5256
24775SOL    HW192317  11.025   2.695   7.301 -0.3663 -0.8931  1.0441
24775SOL    HW292318  10.882   2.645   7.300 -0.6448 -0.2075 -2.0610
24776SOL     OW92319   2.935   8.269   2.742 -0.1311  0.5740 -0.3063
24776SOL    HW192320   2.957   8.350   2.697  0.0030  0.1520 -1.0084
24776SOL    HW292321   2.870   8.227   2.686 -1.0251  0.7136  0.6047
24777SOL     OW92322   6.921  10.749   6.299 -0.4672 -0.0987 -0.1195
24777SOL    HW192323   6.840  10.698   6.313  1.1863 -3.1218 -0.7168
24777SOL    HW292324   6.925  10.807   6.375 -2.6832 -0.5900  0.4584
24778SOL     OW92325  10.303   6.416  10.655 -0.0500  0.3582  0.1053
24778SOL    HW192326  10.221   6.371  10.675  0.7676 -1.1306  0.2896
24778SOL    HW292327  10.342   6.433  10.741  0.7912 -0.8566 -0.0085
24779SOL     OW92328   0.971   0.414   6.846 -0.1152  0.0874 -0.1978
24779SOL    HW192329   1.000   0.424   6.936  0.0626  0.9465 -0.3510
24779SOL    HW292330   1.042   0.366   6.803  0.0478  0.1714 -0.0222
24780SOL     OW92331   7.524   4.608   2.472 -0.0422 -0.0659  0.4449
24780SOL    HW192332   7.525   4.514   2.493  2.8333 -0.1754  0.1621
24780SOL    HW292333   7.565   4.614   2.386 -2.6346  1.2977 -0.8227
24781SOL     OW92334   6.655  12.632   5.377  0.4312 -0.4023  0.3352
24781SOL    HW192335   6.659  12.705   5.438 -0.6749 -0.7082  0.8113
24781SOL    HW292336   6.566  12.637   5.340  0.9359 -0.4768 -0.9385
24782SOL     OW92337   5.407  11.455   3.198  0.0793 -0.2561 -0.3873
24782SOL    HW192338   5.441  11.475   3.285  2.3874 -0.9224 -1.0625
24782SOL    HW292339   5.400  11.541   3.155 -1.1808  0.0856  0.4472
24783SOL     OW92340   9.669  14.085  13.832 -0.3201  0.1311 -0.0556
24783SOL    HW192341   9.762  14.110  13.830 -0.5847  1.1709 -0.2480
24783SOL    HW292342   9.667  14.004  13.883  0.5152  0.9449  1.3538
24784SOL     OW92343  10.422   8.976   5.193  0.4581  0.3519  0.8770
24784SOL    HW192344  10.353   9.042   5.193  2.1896  2.2806  0.0970
24784SOL    HW292345  10.445   8.966   5.101  2.7185  1.5016  1.2496
24785SOL     OW92346  10.092   3.943   4.323  0.2655  0.2229 -0.2962
24785SOL    HW192347  10.044   3.971   4.400  0.2240  0.4869 -0.4153
24785SOL    HW292348  10.166   3.892   4.357 -1.1952 -1.9369 -0.1830
24786SOL     OW92349  11.634   0.242   8.602 -0.0084  0.6305  0.2007
24786SOL    HW192350  11.572   0.314   8.618 -0.0681  1.1408 -1.9695
24786SOL    HW292351  11.692   0.276   8.533 -0.4557 -1.6159 -1.3824
24787SOL     OW92352   1.813  11.325   5.886 -0.0795  0.3333 -0.4079
24787SOL    HW192353   1.881  11.264   5.916  0.4659  1.2594  0.2753
24787SOL    HW292354   1.806  11.308   5.792  0.7436 -0.1204 -0.3980
24788SOL     OW92355   0.569  11.010   9.234 -0.2807  0.2652  0.1337
24788SOL    HW192356   0.549  10.986   9.324 -0.2506  1.5131  0.4844
24788SOL    HW292357   0.507  11.080   9.213 -1.0064 -0.7189 -1.1807
24789SOL     OW92358   8.833  12.222   0.333  0.1212  0.3842  0.0990
24789SOL    HW192359   8.820  12.269   0.415  0.2170  2.3157 -0.9209
24789SOL    HW292360   8.924  12.191   0.336 -0.3422 -0.9541  1.3453
24790SOL     OW92361   5.669   3.204  12.754  0.0467 -0.0164 -0.2331
24790SOL    HW192362   5.712   3.289  12.745  0.2211 -0.1988 -1.2848
24790SOL    HW292363   5.741   3.140  12.748  0.1471 -0.2227  2.2545
24791SOL     OW92364  11.185   4.621  10.845  0.1422  0.0852  0.5498
24791SOL    HW192365  11.262   4.573  10.876  1.1250  0.4667 -1.1981
24791SOL    HW292366  11.185   4.701  10.898  0.8718  0.0255  0.6549
24792SOL     OW92367   7.574   7.418   8.695 -0.6032 -0.5549  0.0676
24792SOL    HW192368   7.504   7.425   8.760 -1.1894 -1.6948 -0.4029
24792SOL    HW292369   7.643   7.369   8.739 -0.0361  0.6446  0.5606
24793SOL     OW92370   7.819   2.491  13.628  0.0912 -0.1499  0.0511
24793SOL    HW192371   7.904   2.522  13.598  0.7080 -0.0080  1.8170
24793SOL    HW292372   7.805   2.536  13.712 -1.3098 -0.8477  0.2281
24794SOL     OW92373   7.086  11.098   1.726  0.1253  0.3993 -0.2472
24794SOL    HW192374   7.110  11.012   1.761  0.1602  0.5579  0.1178
24794SOL    HW292375   6.990  11.098   1.726  0.1093 -0.0892 -1.3523
24795SOL     OW92376   3.534  10.417  10.381  0.2953 -0.1055 -0.1998
24795SOL    HW192377   3.494  10.331  10.395  2.3773 -1.2917 -1.0542
24795SOL    HW292378   3.465  10.469  10.341 -0.3703 -2.1883 -2.0120
24796SOL     OW92379   7.052   9.243   7.099 -0.3616 -0.0588 -0.2632
24796SOL    HW192380   7.041   9.270   7.008  1.8996  0.1019 -0.5483
24796SOL    HW292381   7.068   9.324   7.147  0.6114 -0.3043 -0.1326
24797SOL     OW92382   8.398  10.402   1.642  0.0287  0.3145 -0.3169
24797SOL    HW192383   8.325  10.341   1.636 -0.1969  0.7061 -1.8673
24797SOL    HW292384   8.377  10.472   1.580  0.7348  1.5017  0.7208
24798SOL     OW92385  10.059  13.867   2.010  0.4068 -0.2714 -0.0495
24798SOL    HW192386  10.101  13.899   2.090 -0.8898  2.3640 -0.2992
24798SOL    HW292387   9.975  13.832   2.038 -0.8838  2.3615 -0.3109
24799SOL     OW92388   9.106   1.135  11.321  0.2737 -0.2420 -0.1571
24799SOL    HW192389   9.174   1.081  11.361  2.2154  1.8408 -0.4385
24799SOL    HW292390   9.154   1.201  11.271 -2.0117 -0.0050 -2.2362
24800SOL     OW92391   4.227   8.210   7.323 -0.0367 -0.1521  0.3218
24800SOL    HW192392   4.253   8.201   7.232 -2.9655  0.6217 -0.6982
24800SOL    HW292393   4.231   8.122   7.359  0.4180 -0.5744 -0.7440
24801SOL     OW92394   7.324  10.393   3.160  0.1473 -0.8161  0.4937
24801SOL    HW192395   7.326  10.299   3.177  2.6337 -0.7205  1.2246
24801SOL    HW292396   7.294  10.431   3.242 -1.5546 -0.9765 -0.0326
24802SOL     OW92397  12.494   8.403   8.246 -0.0426 -0.7592  0.4093
24802SOL    HW192398  12.590   8.403   8.249 -0.0488  0.5618  1.0589
24802SOL    HW292399  12.467   8.407   8.338 -0.6902  0.9228  0.1675
24803SOL     OW92400   6.140   1.554  12.749  0.3643  0.6775 -0.5757
24803SOL    HW192401   6.175   1.492  12.685  1.4854  0.7923 -0.0978
24803SOL    HW292402   6.216   1.603  12.779  0.3514 -1.0099  2.6522
24804SOL     OW92403  13.335  13.243   2.473  0.4176 -0.3122 -0.0549
24804SOL    HW192404  13.318  13.220   2.382  0.9413 -0.2968 -0.1578
24804SOL    HW292405  13.367  13.162   2.513  0.0944 -0.3464  0.1455
24805SOL     OW92406   0.866   4.774  10.198  0.5801 -0.2732  0.8888
24805SOL    HW192407   0.911   4.725  10.266 -0.2662 -0.6518  1.1916
24805SOL    HW292408   0.924   4.848  10.178  0.6951  0.0148  2.2408
24806SOL     OW92409  10.251  10.120   7.281  0.0817  0.8657  0.5368
24806SOL    HW192410  10.292  10.167   7.208  0.0936 -1.1010 -0.7731
24806SOL    HW292411  10.303  10.040   7.291 -0.1457  0.8978  2.4882
24807SOL     OW92412  13.452   7.109  11.129 -0.7010  0.1852  0.1359
24807SOL    HW192413  13.401   7.116  11.048  1.0231 -1.0121 -1.1188
24807SOL    HW292414  13.542   7.097  11.100  0.0526  0.3628  2.2619
24808SOL     OW92415   0.668  13.219   1.047  0.1504  0.5062 -0.1631
24808SOL    HW192416   0.592  13.277   1.042  0.9637  1.7892  1.3967
24808SOL    HW292417   0.744  13.278   1.048  1.2017 -0.7465 -1.6954
24809SOL     OW92418   0.659   4.294   1.631  0.3454 -0.0567  0.2368
24809SOL    HW192419   0.687   4.354   1.701  2.4584  1.2395 -1.5810
24809SOL    HW292420   0.737   4.283   1.577 -0.8723 -2.0397 -1.2212
24810SOL     OW92421  10.843   1.821   3.484 -0.1303  0.2850  0.7692
24810SOL    HW192422  10.778   1.880   3.445 -0.7996 -0.3918  0.8469
24810SOL    HW292423  10.847   1.747   3.423  1.5746  0.9234  0.0413
24811SOL     OW92424   1.353   3.108  10.143  0.8306  0.3650 -0.1488
24811SOL    HW192425   1.342   3.075  10.233  2.6226  1.4949  0.5468
24811SOL    HW292426   1.436   3.070  10.114  0.8444  0.9515 -0.8901
24812SOL     OW92427   8.878  10.264   4.571 -0.7879  0.5194  0.1632
24812SOL    HW192428   8.935  10.218   4.632  0.2432  1.8096  0.2253
24812SOL    HW292429   8.812  10.306   4.626 -1.2881 -0.2661  0.1694
24813SOL     OW92430  10.381  12.724  11.076  0.1397 -0.7367  0.4136
24813SOL    HW192431  10.455  12.771  11.038 -0.3737  1.5754  2.0333
24813SOL    HW292432  10.410  12.702  11.165 -0.2921 -1.9333  0.2736
24814SOL     OW92433   1.985  10.388   5.227 -0.0230  0.0570 -0.3035
24814SOL    HW192434   1.936  10.420   5.303  0.9466  0.7924  0.0314
24814SOL    HW292435   2.023  10.466   5.188  1.1066 -0.5257 -0.4028
24815SOL     OW92436   9.039   9.319  10.518  0.2035  0.1496  0.1314
24815SOL    HW192437   9.008   9.328  10.428 -1.1158 -2.3549  0.2334
24815SOL    HW292438   9.016   9.402  10.560  1.3184  1.5759 -1.9026
24816SOL     OW92439  11.880  11.032   5.510  0.1551  0.0077  0.4453
24816SOL    HW192440  11.904  11.001   5.598 -1.4957 -2.1380  0.2134
24816SOL    HW292441  11.795  11.074   5.522 -0.5697 -1.2193 -0.2613
24817SOL     OW92442  13.957  14.141  12.601 -0.0015 -0.3570 -0.1204
24817SOL    HW192443  14.025  14.137  12.534 -0.3287 -1.3357 -0.4174
24817SOL    HW292444  13.959  14.231  12.633  1.6848 -0.4694  0.1444
24818SOL     OW92445   1.016   9.547   0.199 -0.4828 -0.2369  0.7801
24818SOL    HW192446   0.994   9.544   0.292 -0.3479 -2.0319  0.7944
24818SOL    HW292447   0.968   9.474   0.161 -2.9510  2.2003 -1.1833
24819SOL     OW92448   2.682   4.295  11.999 -0.0040 -0.6298  0.7520
24819SOL    HW192449   2.665   4.221  11.941  1.9868  0.6885 -1.7351
24819SOL    HW292450   2.620   4.362  11.971 -1.1222 -0.9344  2.3313
24820SOL     OW92451   7.629   2.050   6.327  0.3725  0.3106  0.2022
24820SOL    HW192452   7.624   1.968   6.278 -0.4999  1.1652 -1.2091
24820SOL    HW292453   7.694   2.033   6.396  0.9913 -1.2202 -0.7033
24821SOL     OW92454  12.827   4.709   2.045 -0.4905  0.3857  0.1567
24821SOL    HW192455  12.745   4.702   1.997 -0.3578  0.8230 -0.1405
24821SOL    HW292456  12.888   4.651   1.998 -0.9152 -0.8063  1.0234
24822SOL     OW92457   1.949  13.791   7.548 -0.1251 -0.4250 -0.0983
24822SOL    HW192458   1.951  13.801   7.643 -1.0153  0.3486 -0.1416
24822SOL    HW292459   2.040  13.775   7.523 -0.1051 -2.4668  1.0562
24823SOL     OW92460   2.282  11.454   1.232 -1.0360 -0.0843  0.1685
24823SOL    HW192461   2.352  11.517   1.214 -0.8153 -0.5791 -0.7194
24823SOL    HW292462   2.202  11.506   1.226 -0.8682  0.0885 -0.7340
24824SOL     OW92463   2.892   9.116   5.079 -0.1073 -0.0047 -0.8579
24824SOL    HW192464   2.874   9.028   5.047 -1.0679 -1.0102  2.1162
24824SOL    HW292465   2.975   9.140   5.037 -0.4266 -1.8149 -2.6532
24825SOL     OW92466   5.090   4.881   6.967  0.0860 -0.4150 -0.3158
24825SOL    HW192467   5.044   4.797   6.963 -0.0073 -0.4061  0.4586
24825SOL    HW292468   5.093   4.902   7.060 -1.3847  1.2571 -0.5965
24826SOL     OW92469   5.071   1.794   8.718  0.3999 -0.3963  0.2692
24826SOL    HW192470   5.039   1.817   8.805 -0.8244 -0.3531 -0.1833
24826SOL    HW292471   5.161   1.827   8.717 -0.2650  1.5628  0.7461
24827SOL     OW92472   9.511  12.963   5.587 -0.4292 -0.2533  0.2525
24827SOL    HW192473   9.449  13.027   5.621 -1.0645 -0.5976 -0.2144
24827SOL    HW292474   9.500  12.887   5.645  0.6614  0.2160  1.0933
24828SOL     OW92475   5.451  11.923   3.887 -0.2909 -0.4626  0.1211
24828SOL    HW192476   5.448  11.856   3.819 -0.5507  0.5734 -0.9170
24828SOL    HW292477   5.361  11.930   3.918 -1.1477  2.0477 -2.4912
24829SOL     OW92478  13.934   5.864   9.121 -0.4978 -0.4069 -0.3153
24829SOL    HW192479  13.963   5.922   9.051 -0.0492 -0.2710 -0.0219
24829SOL    HW292480  13.870   5.807   9.080 -0.3430 -0.2340 -0.8029
24830SOL     OW92481  10.273   9.378  11.184 -0.0697  0.1241 -0.6574
24830SOL    HW192482  10.357   9.382  11.230 -0.4292  0.7055 -0.0356
24830SOL    HW292483  10.275   9.453  11.124 -0.1496  0.1472 -0.6309
24831SOL     OW92484   6.497   2.024  13.907 -0.3948 -0.5501 -0.4415
24831SOL    HW192485   6.556   2.021  13.831  0.0850  1.1192 -0.1740
24831SOL    HW292486   6.423   1.970  13.881  0.6354 -1.6219 -1.3118
24832SOL     OW92487  11.266   5.527   7.045  0.2159  0.0455  0.4922
24832SOL    HW192488  11.210   5.595   7.082 -0.3058  0.1021 -0.3679
24832SOL    HW292489  11.353   5.567   7.041  0.1088  0.3234  0.8637
24833SOL     OW92490   7.889   4.294   1.796 -0.4070  1.0506 -0.0707
24833SOL    HW192491   7.858   4.359   1.734 -1.1032  1.2154  0.4417
24833SOL    HW292492   7.876   4.210   1.751 -3.2881  0.9587  0.7666
24834SOL     OW92493   6.858   2.626   3.293  0.1382  0.0439  0.2232
24834SOL    HW192494   6.829   2.699   3.239  0.9370  0.5406  0.4579
24834SOL    HW292495   6.793   2.621   3.363 -0.4332 -0.0751 -0.3036
24835SOL     OW92496   1.677  12.698   1.534 -0.0162  0.0662  0.1690
24835SOL    HW192497   1.591  12.702   1.577 -0.3148 -1.9325 -0.1504
24835SOL    HW292498   1.661  12.652   1.452  0.6553  3.2999 -1.9557
24836SOL     OW92499   5.652   0.221   2.679 -0.5344 -0.1198 -0.3062
24836SOL    HW192500   5.611   0.135   2.674 -1.9763  0.5183 -0.0205
24836SOL    HW292501   5.746   0.203   2.674 -0.6726 -1.8733  1.6979
24837SOL     OW92502   9.081   8.581  11.067 -0.3164  0.3467  0.0256
24837SOL    HW192503   9.033   8.651  11.112 -0.2725  0.3088  0.1316
24837SOL    HW292504   9.119   8.624  10.990 -0.8638  0.2833 -0.2794
24838SOL     OW92505   9.623  10.441  12.176  0.0270 -0.0196 -0.4538
24838SOL    HW192506   9.571  10.521  12.169  1.2469  0.7303 -1.3318
24838SOL    HW292507   9.706  10.470  12.214  0.1399 -1.0400  0.1002
24839SOL     OW92508  13.989   3.000   5.175 -0.1250  0.2773 -0.4628
24839SOL    HW192509  13.920   3.050   5.131  2.2526  2.1814 -2.2995
24839SOL    HW292510  14.013   3.054   5.251 -0.7244 -0.4709  0.2799
24840SOL     OW92511   4.837   2.522  13.662 -0.6920  0.2457  0.4215
24840SOL    HW192512   4.924   2.552  13.687  0.6616  0.1279 -3.4736
24840SOL    HW292513   4.833   2.431  13.693  1.3824 -0.3457 -0.8006
24841SOL     OW92514   4.326   4.438   0.966 -0.2742  0.4868 -0.1578
24841SOL    HW192515   4.279   4.507   1.013  1.2354  0.7695  0.9780
24841SOL    HW292516   4.405   4.422   1.017  0.1548 -1.0478 -1.2097
24842SOL     OW92517  13.706   7.636   6.700  1.0476  0.4892 -0.3988
24842SOL    HW192518  13.713   7.569   6.633  2.3833 -0.3477  0.5293
24842SOL    HW292519  13.794   7.673   6.706  0.7608  1.0815  0.3574
24843SOL     OW92520   6.369  10.002   8.726  0.0117  0.2912 -0.1215
24843SOL    HW192521   6.283  10.025   8.761 -0.5373 -0.4817 -0.9060
24843SOL    HW292522   6.352   9.973   8.636  0.8650 -1.2963  0.1790
24844SOL     OW92523   2.646   7.690  12.677  0.3477  0.5343  0.4192
24844SOL    HW192524   2.682   7.673  12.764 -1.0711  1.4426  1.2194
24844SOL    HW292525   2.703   7.758  12.640  1.0849 -0.0100  0.5375
24845SOL     OW92526  12.867   0.240   6.606  0.4319  0.4834 -0.1086
24845SOL    HW192527  12.801   0.283   6.551  1.1871  0.7207 -0.8533
24845SOL    HW292528  12.949   0.284   6.584  1.0326 -0.5691 -0.0412
24846SOL     OW92529   8.894  10.299   0.745  0.1023  0.5640 -0.2015
24846SOL    HW192530   8.977  10.271   0.782 -0.3483  0.4750  0.7616
24846SOL    HW292531   8.917  10.368   0.683  1.2390 -1.6723 -2.4838
24847SOL     OW92532   7.674  13.110  13.810 -0.4446  0.0787 -0.3454
24847SOL    HW192533   7.634  13.024  13.799 -1.8965  0.7078 -0.1467
24847SOL    HW292534   7.735  13.117  13.736 -0.0735 -1.2262 -0.1913
24848SOL     OW92535   3.006   2.545   8.031 -0.4677 -0.0388  0.0884
24848SOL    HW192536   2.923   2.497   8.038 -1.1765  1.1191 -0.0726
24848SOL    HW292537   3.015   2.564   7.938 -0.7587  1.0661  0.2700
24849SOL     OW92538   8.767   6.071   0.113  0.4393 -0.3195 -0.5052
24849SOL    HW192539   8.683   6.101   0.147  0.6190  0.5718 -0.8293
24849SOL    HW292540   8.780   5.985   0.154  0.0529  0.1639  0.6650
24850SOL     OW92541   6.315  12.484   5.463  0.1321 -0.4411 -0.1467
24850SOL    HW192542   6.346  12.515   5.549 -2.3563 -0.9653  1.0275
24850SOL    HW292543   6.240  12.429   5.483 -0.4291 -0.7180 -2.6974
24851SOL     OW92544  13.594   8.169  14.018 -0.1085 -0.7894  0.4928
24851SOL    HW192545  13.632   8.145  13.934 -1.0659 -0.0793 -0.1513
24851SOL    HW292546  13.574   8.262  14.010 -1.6654 -1.0719  0.9302
24852SOL     OW92547   2.431  13.946   7.704 -0.2271  0.4120  0.2444
24852SOL    HW192548   2.430  13.885   7.630  0.1249 -0.3335  0.8478
24852SOL    HW292549   2.346  13.933   7.747 -0.4213  0.8281 -0.0023
24853SOL     OW92550   8.603   7.199   1.450  0.2301  0.7368  0.1039
24853SOL    HW192551   8.524   7.156   1.417 -1.6491  2.1660  2.4385
24853SOL    HW292552   8.632   7.255   1.379 -0.3197 -0.4521 -1.1003
24854SOL     OW92553   6.128   2.736   0.088  0.1599 -0.3293 -0.5061
24854SOL    HW192554   6.185   2.709   0.159 -2.8465  0.4170  2.4651
24854SOL    HW292555   6.137   2.831   0.084 -0.9108 -0.1900  0.0837
24855SOL     OW92556  11.033  12.860  13.782  0.7212  0.6149  0.1806
24855SOL    HW192557  11.002  12.945  13.813 -0.4942 -0.2418  1.4180
24855SOL    HW292558  11.128  12.865  13.790  0.5875  1.3566  1.6200
24856SOL     OW92559   3.878   6.515   9.735  0.3146  0.0168  0.5784
24856SOL    HW192560   3.851   6.529   9.826 -1.9594  3.1153 -0.3999
24856SOL    HW292561   3.936   6.589   9.716 -0.7426  0.4869 -0.9593
24857SOL     OW92562   2.644  12.291   6.321 -0.3774 -0.4167 -0.1221
24857SOL    HW192563   2.599  12.360   6.370  0.6920 -0.3010  0.7498
24857SOL    HW292564   2.709  12.338   6.269  2.1860 -0.8434  2.4538
24858SOL     OW92565   4.730   4.919   7.078 -0.0274  0.0086  0.3487
24858SOL    HW192566   4.772   4.995   7.038  0.2551 -0.2800  0.0936
24858SOL    HW292567   4.765   4.843   7.030 -0.5385 -0.2640  0.3894
24859SOL     OW92568   9.948   5.135   6.520 -0.0055  0.0048 -0.4053
24859SOL    HW192569   9.963   5.206   6.583 -1.5454 -0.5572  0.6441
24859SOL    HW292570   9.882   5.170   6.460 -3.0475 -1.4210  1.8465
24860SOL     OW92571   5.994   2.499  13.606  0.1662 -0.5194  0.4309
24860SOL    HW192572   6.070   2.472  13.658  1.6492  0.5425 -1.0688
24860SOL    HW292573   5.943   2.554  13.666  1.2353 -0.2431  1.1302
24861SOL     OW92574   5.008  10.106   0.592  0.3158 -0.0312 -0.1478
24861SOL    HW192575   5.090  10.127   0.637 -0.0364 -2.2451  1.7578
24861SOL    HW292576   4.954  10.184   0.601  1.3510  0.6051  0.7117
24862SOL     OW92577   2.571   5.207   9.438 -0.6851  0.1740 -0.3089
24862SOL    HW192578   2.621   5.288   9.432 -0.0547 -0.2312 -0.5883
24862SOL    HW292579   2.601   5.154   9.364  0.2533 -1.0565  0.9034
24863SOL     OW92580   5.273   9.156   4.047 -0.0139  0.3296 -0.6212
24863SOL    HW192581   5.277   9.114   4.132 -2.0377  1.0052 -0.1502
24863SOL    HW292582   5.326   9.099   3.990 -0.2553 -1.2215  0.6267
24864SOL     OW92583   4.661  13.457   9.413 -0.0672  0.2732 -0.2570
24864SOL    HW192584   4.651  13.546   9.447  0.6975  0.0533  0.5798
24864SOL    HW292585   4.624  13.400   9.481  1.6159 -0.1788  0.3442
24865SOL     OW92586   9.959   3.959   4.546  0.3349  0.6627 -0.3267
24865SOL    HW192587   9.890   3.981   4.609 -0.4734 -0.8024 -0.6379
24865SOL    HW292588  10.039   3.959   4.597 -0.0704  1.1932  0.3237
24866SOL     OW92589   8.522   0.882  12.939  0.2315 -0.2548  0.0227
24866SOL    HW192590   8.488   0.962  12.899  1.2714  2.0405  3.3753
24866SOL    HW292591   8.606   0.908  12.977  0.0471 -2.5879  2.2635
24867SOL     OW92592   5.057   2.012   8.132  0.0680 -0.4132  0.0502
24867SOL    HW192593   5.114   1.936   8.123 -0.1567 -0.3619 -2.5067
24867SOL    HW292594   5.116   2.083   8.157  0.8969 -0.6903 -1.0467
24868SOL     OW92595  12.231  13.220   6.572 -0.1804 -0.4973 -0.2601
24868SOL    HW192596  12.259  13.146   6.518 -1.9205 -2.1094  0.8979
24868SOL    HW292597  12.289  13.218   6.648 -0.3105 -0.7830 -0.1656
24869SOL     OW92598  12.255   0.601  11.650 -0.3853 -0.5140  0.3728
24869SOL    HW192599  12.169   0.571  11.678 -0.5551 -1.2624 -0.8571
24869SOL    HW292600  12.260   0.575  11.558  0.5932  0.7732  0.0329
24870SOL     OW92601  13.810   7.271   6.076 -0.0918  0.0180  0.1659
24870SOL    HW192602  13.890   7.324   6.079  0.2421 -0.5205  1.4079
24870SOL    HW292603  13.829   7.195   6.131 -1.1110 -0.6227 -0.3308
24871SOL     OW92604   1.586   4.965   1.826 -0.4598 -0.3610 -0.1352
24871SOL    HW192605   1.544   4.944   1.743 -1.2532 -4.6267  1.1445
24871SOL    HW292606   1.521   5.015   1.874 -2.2375 -2.5705 -0.1034
24872SOL     OW92607   4.295   0.126   0.637  0.0764 -0.0516  0.1901
24872SOL    HW192608   4.225   0.079   0.593 -0.3195  1.3366 -0.7244
24872SOL    HW292609   4.252   0.165   0.714  0.2478 -0.5883  0.5656
24873SOL     OW92610   9.204  10.977  13.118  0.3518  0.0941  0.2054
24873SOL    HW192611   9.270  10.908  13.127 -0.6788 -0.7998  1.3505
24873SOL    HW292612   9.121  10.929  13.114 -0.2824  1.2156 -0.6070
24874SOL     OW92613  12.867  11.078  13.197 -0.1214  0.0212  0.4095
24874SOL    HW192614  12.920  11.002  13.172 -0.8647 -0.2482 -0.4206
24874SOL    HW292615  12.927  11.152  13.193  0.1122 -0.2134 -0.9399
24875SOL     OW92616   7.813   0.663  13.864  1.3342 -0.3199 -0.9622
24875SOL    HW192617   7.742   0.705  13.815  1.1249  0.3258 -0.1343
24875SOL    HW292618   7.847   0.596  13.805  0.5865 -0.0729 -1.6907
24876SOL     OW92619   4.892  13.932   8.506  0.0090 -0.0585  0.2145
24876SOL    HW192620   4.904  13.837   8.507  1.1572  0.0698  1.0436
24876SOL    HW292621   4.954  13.963   8.440 -0.8664  0.0743 -0.5653
24877SOL     OW92622   5.749  11.098   0.408  0.8143  0.6756  0.2915
24877SOL    HW192623   5.705  11.142   0.336  0.9773  0.7128  0.2149
24877SOL    HW292624   5.789  11.020   0.368 -0.1733  0.0053  0.5778
24878SOL     OW92625   1.054  12.948   5.148  0.0230  0.1831  0.3910
24878SOL    HW192626   1.122  12.999   5.191  1.4425 -0.7635 -0.6783
24878SOL    HW292627   0.989  12.932   5.217  0.3193  2.0144  1.1435
24879SOL     OW92628  12.458   8.595   1.560 -0.4158  0.1971  0.8103
24879SOL    HW192629  12.463   8.689   1.581  0.1463  0.0123  1.5569
24879SOL    HW292630  12.499   8.552   1.635  3.2425 -0.4581 -1.3231
24880SOL     OW92631   1.656  12.755   5.268  0.4778  0.0453  0.3198
24880SOL    HW192632   1.598  12.701   5.322 -0.9096 -0.1845 -1.3166
24880SOL    HW292633   1.737  12.705   5.263 -0.3629 -1.3399 -0.1488
24881SOL     OW92634   2.711   2.625  10.710 -0.4730  0.0528 -0.4577
24881SOL    HW192635   2.652   2.621  10.785  0.3051 -0.8846  0.1303
24881SOL    HW292636   2.797   2.606  10.747 -0.2190 -1.5381 -1.7361
24882SOL     OW92637   2.535  11.408   8.868  0.3879 -0.1698  0.0534
24882SOL    HW192638   2.525  11.318   8.836 -0.8250 -0.0403  0.0129
24882SOL    HW292639   2.591  11.399   8.945 -1.2905 -1.2670  1.2357
24883SOL     OW92640   3.342  12.371   2.021  0.4992  0.4029  0.0914
24883SOL    HW192641   3.249  12.388   2.036  0.4315 -0.6196  0.9352
24883SOL    HW292642   3.352  12.276   2.033  1.2582  0.1362 -2.1585
24884SOL     OW92643  13.380   7.362  10.891 -0.3008 -0.2230  0.1504
24884SOL    HW192644  13.312   7.424  10.864 -0.6492 -0.3252  0.7555
24884SOL    HW292645  13.336   7.277  10.892 -0.6412 -0.0848  2.0677
24885SOL     OW92646   4.126   1.556   4.572  0.0917  0.3185  0.5070
24885SOL    HW192647   4.144   1.630   4.630  1.0354 -0.2892  1.0183
24885SOL    HW292648   4.121   1.595   4.484 -2.0790  1.3566  1.0206
24886SOL     OW92649   6.442  12.313  13.978  0.3101 -0.4227  0.2707
24886SOL    HW192650   6.472  12.246  14.039  1.4095  0.2451  0.4987
24886SOL    HW292651   6.383  12.368  14.029  0.7365 -0.2328  0.5653
24887SOL     OW92652   2.254  12.102   6.398 -0.1181  0.0136 -0.1573
24887SOL    HW192653   2.239  12.150   6.317  0.9270 -0.8368 -0.8830
24887SOL    HW292654   2.208  12.018   6.385 -0.7508  0.2401  0.5273
24888SOL     OW92655   2.512  11.029  10.543  0.0760 -0.0331  0.7351
24888SOL    HW192656   2.428  11.075  10.541  0.0203 -0.1112 -1.1426
24888SOL    HW292657   2.506  10.971  10.618 -1.3958  0.2690  0.8844
24889SOL     OW92658   8.688  12.044   8.925 -0.5842 -0.1744 -0.8718
24889SOL    HW192659   8.684  11.958   8.966 -1.1490  0.3184  0.1299
24889SOL    HW292660   8.779  12.072   8.937 -1.0185  0.5062  1.2337
24890SOL     OW92661   2.238   2.297   8.896 -0.3936  0.0634  0.2789
24890SOL    HW192662   2.311   2.358   8.881 -1.6870  1.2540 -1.6410
24890SOL    HW292663   2.170   2.350   8.937 -0.9412 -0.4829  0.0889
24891SOL     OW92664  13.655   3.065   4.017 -0.6598  0.3191 -0.2738
24891SOL    HW192665  13.733   3.013   4.036 -1.0421 -0.2168 -0.1406
24891SOL    HW292666  13.681   3.122   3.944  0.8232  2.3653  1.6862
24892SOL     OW92667   3.389   5.409   9.875  0.3492 -0.3098  0.8839
24892SOL    HW192668   3.443   5.367   9.808 -1.5152  1.7557 -2.1735
24892SOL    HW292669   3.345   5.336   9.919  2.4580 -1.8011  0.6973
24893SOL     OW92670   3.643   0.063   0.749  0.0795  0.1992 -0.0747
24893SOL    HW192671   3.700   0.086   0.676 -0.6060 -0.1008 -0.7166
24893SOL    HW292672   3.612   0.148   0.783 -0.5113  0.3195 -0.8812
24894SOL     OW92673   2.626   0.486   7.385  0.2452  0.0221  0.3521
24894SOL    HW192674   2.536   0.467   7.355  0.3204 -0.7224  0.5633
24894SOL    HW292675   2.673   0.404   7.368  0.5367 -0.0751  1.5572
24895SOL     OW92676   9.082   0.167   4.735  0.5916 -0.8401  0.3488
24895SOL    HW192677   9.071   0.090   4.678 -1.1783 -0.2224 -0.2255
24895SOL    HW292678   9.045   0.140   4.819  0.8780 -0.9305  0.4469
24896SOL     OW92679   0.661  10.867  12.107 -0.1837 -0.3132  0.1788
24896SOL    HW192680   0.585  10.874  12.049  1.6031 -0.1554 -2.2809
24896SOL    HW292681   0.699  10.782  12.086  1.1224  0.2244  0.3087
24897SOL     OW92682   3.524  11.571   4.420 -0.7233 -0.8819 -1.1473
24897SOL    HW192683   3.479  11.490   4.447 -1.4763 -0.9031 -2.3758
24897SOL    HW292684   3.611  11.564   4.458 -1.3291 -1.4647  0.2045
24898SOL     OW92685   7.967  11.701   6.580 -0.3365 -0.2013  0.3082
24898SOL    HW192686   8.061  11.690   6.569 -0.6034 -0.1902 -2.9438
24898SOL    HW292687   7.954  11.794   6.595  0.0760  0.1736 -1.4863
24899SOL     OW92688   5.564   1.369  11.766  0.3951  0.4893 -0.3701
24899SOL    HW192689   5.575   1.414  11.683  1.0006  2.0020  0.4913
24899SOL    HW292690   5.475   1.393  11.794  0.0727 -0.2783 -0.7198
24900SOL     OW92691   8.431  14.115   4.665 -0.3412 -0.4062 -0.2307
24900SOL    HW192692   8.411  14.116   4.759  1.8020 -2.0966  0.3362
24900SOL    HW292693   8.413  14.025   4.638  0.7977 -0.4291 -0.9830
24901SOL     OW92694   5.762   2.859   6.317 -0.1240 -0.1470  0.3862
24901SOL    HW192695   5.676   2.887   6.286  0.1260  0.4437  0.2015
24901SOL    HW292696   5.781   2.916   6.391 -0.0792 -0.5728  0.7053
24902SOL     OW92697  11.030   8.781   8.403  0.0719 -0.5570  0.2900
24902SOL    HW192698  10.967   8.824   8.460 -0.4875  1.7847 -1.8828
24902SOL    HW292699  11.107   8.766   8.458 -0.6864  0.8872  1.8296
24903SOL     OW92700  13.556  13.257  12.938  0.0757  0.3802 -0.4026
24903SOL    HW192701  13.630  13.317  12.949 -0.3400  0.5503  2.0700
24903SOL    HW292702  13.561  13.229  12.847  2.3502  1.4606 -0.6788
24904SOL     OW92703   3.586   8.004   0.378  0.7363 -0.0638 -0.5777
24904SOL    HW192704   3.586   7.994   0.283  0.7903 -1.2806 -0.4688
24904SOL    HW292705   3.670   7.969   0.407  0.2563 -0.7728  0.0050
24905SOL     OW92706   3.254   8.988   2.835 -0.4755 -0.4877  0.0205
24905SOL    HW192707   3.311   8.967   2.762 -2.0939 -0.0277 -1.4438
24905SOL    HW292708   3.288   9.070   2.870  0.9904 -1.2880  0.5586
24906SOL     OW92709   8.186   1.631  11.569 -0.3531 -0.4388  0.4221
24906SOL    HW192710   8.257   1.686  11.536 -0.2488 -0.9856 -0.2895
24906SOL    HW292711   8.119   1.634  11.501 -1.9359  1.6807  1.9430
24907SOL     OW92712  10.443   2.278   4.595 -0.3399  0.3493 -0.4765
24907SOL    HW192713  10.453   2.188   4.626 -0.5357  0.7656  0.8709
24907SOL    HW292714  10.352   2.300   4.612 -0.0984  1.0656 -0.0184
24908SOL     OW92715   2.547   3.738   9.109 -0.3564 -0.9290  0.0676
24908SOL    HW192716   2.552   3.664   9.170  0.7274 -0.4651  0.5626
24908SOL    HW292717   2.519   3.812   9.163 -0.0107 -0.6560 -0.1259
24909SOL     OW92718  11.585   0.453   6.281  0.4257  0.1418 -0.1492
24909SOL    HW192719  11.633   0.451   6.363  0.4247  0.8041 -0.1295
24909SOL    HW292720  11.647   0.421   6.216 -0.6787 -4.1474  0.6166
24910SOL     OW92721   6.803  13.290   4.661  0.5295  0.1805 -0.2491
24910SOL    HW192722   6.787  13.377   4.625  0.2902 -0.3337 -1.4462
24910SOL    HW292723   6.889  13.296   4.703  1.5395  0.4229 -2.2559
24911SOL     OW92724   8.363   0.028  13.636 -0.1163 -0.1821 -0.0995
24911SOL    HW192725   8.398   0.112  13.604 -0.8484  1.2787  2.6114
24911SOL    HW292726   8.431  -0.005  13.694 -0.6037 -0.5238  0.2816
24912SOL     OW92727  10.958   3.809   4.212 -0.2947  0.6751 -0.2322
24912SOL    HW192728  10.952   3.762   4.295 -0.1519  1.0139 -0.0289
24912SOL    HW292729  10.884   3.776   4.161  0.3708 -0.4849 -0.4676
24913SOL     OW92730   4.744   9.677   5.141 -0.0153  0.3948  0.3838
24913SOL    HW192731   4.831   9.658   5.107 -0.6895 -1.4753 -0.4238
24913SOL    HW292732   4.759   9.715   5.227  1.5793 -1.0746  0.8051
24914SOL     OW92733   7.024  10.222   6.384  0.2386  0.0174 -0.2423
24914SOL    HW192734   7.035  10.142   6.435  1.6900 -1.3162 -2.4715
24914SOL    HW292735   6.929  10.232   6.376  0.0177 -0.7133  1.1931
24915SOL     OW92736   6.897   5.140  13.643  0.0858 -0.4838 -0.6045
24915SOL    HW192737   6.899   5.051  13.609 -1.9715 -1.1701  0.8816
24915SOL    HW292738   6.922   5.131  13.735 -1.5620  0.2005 -0.0461
24916SOL     OW92739  12.738  13.021   9.941  0.2371  0.1992  0.0040
24916SOL    HW192740  12.831  13.039   9.958 -0.2143  0.1134  3.3902
24916SOL    HW292741  12.694  13.105   9.956 -0.4184 -0.2512  0.6855
24917SOL     OW92742  12.112   4.630   4.019  0.1673 -0.9100 -0.3862
24917SOL    HW192743  12.185   4.680   4.056  0.1760 -1.2723  0.1056
24917SOL    HW292744  12.144   4.599   3.935  0.7562 -1.4524  0.0260
24918SOL     OW92745   9.806  11.556   9.425  0.0520 -0.0285 -0.6383
24918SOL    HW192746   9.738  11.488   9.429 -1.0733  1.0003 -1.4512
24918SOL    HW292747   9.854  11.537   9.344 -0.4806  0.3142 -1.0460
24919SOL     OW92748   0.985  12.525  12.401  0.0671 -1.5760  0.2750
24919SOL    HW192749   1.074  12.506  12.431 -0.0457 -0.8747  1.0769
24919SOL    HW292750   0.997  12.574  12.319  0.3857 -2.7957 -0.4322
24920SOL     OW92751   9.214   6.650   0.563  0.0180 -0.2906  0.0882
24920SOL    HW192752   9.186   6.722   0.506  0.3583  0.0737  0.3783
24920SOL    HW292753   9.132   6.610   0.592 -0.2583  1.1594  1.4329
24921SOL     OW92754   3.222   7.208   2.640 -0.7431  0.0021  0.0533
24921SOL    HW192755   3.198   7.134   2.696 -0.0707 -1.9164 -2.0149
24921SOL    HW292756   3.315   7.195   2.621 -1.0295  0.2966 -1.7725
24922SOL     OW92757  10.173   3.363   7.230  0.0795 -0.0769  0.3565
24922SOL    HW192758  10.208   3.428   7.170 -1.2937  0.7060  0.3659
24922SOL    HW292759  10.081   3.388   7.242  0.0826 -0.7322  2.0771
24923SOL     OW92760  11.552   2.926   0.216  0.1035  0.0467  0.0554
24923SOL    HW192761  11.599   2.857   0.168  0.1031  0.8057 -1.0733
24923SOL    HW292762  11.616   2.956   0.281  0.7351  0.1748 -0.6040
24924SOL     OW92763   0.832  10.674   2.986  0.5131  0.7652  0.1584
24924SOL    HW192764   0.828  10.663   2.891  1.4576 -2.8723  0.4055
24924SOL    HW292765   0.915  10.720   3.001  0.4294  1.2305 -0.7494
24925SOL     OW92766   1.237  12.742   7.704  0.1516 -0.0911 -0.0581
24925SOL    HW192767   1.190  12.754   7.786 -1.2059 -0.1860 -0.7912
24925SOL    HW292768   1.329  12.749   7.728 -0.2341  0.4728  1.3660
24926SOL     OW92769   1.318  12.558   4.953  0.3435  0.2096  0.2673
24926SOL    HW192770   1.378  12.558   4.878  1.5674 -2.9764  1.0889
24926SOL    HW292771   1.335  12.642   4.997  0.7362  1.4568 -2.0779
24927SOL     OW92772   1.637   2.261  10.859  0.1215  0.4298  0.0812
24927SOL    HW192773   1.588   2.214  10.927 -0.5626  0.4726 -0.3791
24927SOL    HW292774   1.719   2.212  10.851  0.2444  0.4666  0.9886
24928SOL     OW92775   3.040   0.450   6.176  0.4236 -0.3185  0.0163
24928SOL    HW192776   3.085   0.521   6.130 -0.5870  0.7694  0.6403
24928SOL    HW292777   2.962   0.433   6.122  0.7786 -1.1303 -0.2524
24929SOL     OW92778  10.734   5.585  13.041  0.8781 -0.5065 -0.0864
24929SOL    HW192779  10.830   5.591  13.043  0.8720 -0.1377  2.2482
24929SOL    HW292780  10.705   5.676  13.045  0.4518 -0.6746  0.7091
24930SOL     OW92781   3.837  13.109   3.690  0.3092 -0.3650 -0.4350
24930SOL    HW192782   3.919  13.111   3.739 -0.1340  1.3342  0.3240
24930SOL    HW292783   3.779  13.054   3.743  0.1564  0.6285  0.4868
24931SOL     OW92784   0.687  10.497   0.019  0.6156 -0.3179  0.6371
24931SOL    HW192785   0.613  10.543   0.059  0.3629 -0.6088  0.5123
24931SOL    HW292786   0.731  10.563  -0.034  1.3836  0.2627  1.9567
24932SOL     OW92787   8.264   1.198  14.035 -0.0348 -0.0758  0.2155
24932SOL    HW192788   8.341   1.177  14.089 -0.6695  0.0342  1.1797
24932SOL    HW292789   8.301   1.246  13.960  0.9105 -0.6204  0.3132
24933SOL     OW92790   8.599   4.935   9.573  0.6017  0.9285  0.2749
24933SOL    HW192791   8.617   5.024   9.545  0.6540  0.5816 -0.8775
24933SOL    HW292792   8.585   4.887   9.491  0.6630 -0.1343  0.8653
24934SOL     OW92793  13.536   9.543   9.221 -0.7052 -0.4327  0.5990
24934SOL    HW192794  13.539   9.471   9.283 -1.9768 -1.1707 -0.1536
24934SOL    HW292795  13.447   9.540   9.185  0.3446 -0.8562 -2.1980
24935SOL     OW92796   3.262  12.093   2.584  0.8816  0.3997  0.3938
24935SOL    HW192797   3.314  12.127   2.511  1.7693 -0.7379  0.4709
24935SOL    HW292798   3.209  12.167   2.612  1.3228  1.1571 -0.7042
24936SOL     OW92799   6.699   9.962   3.548  0.2211  0.3418  0.3601
24936SOL    HW192800   6.621   9.994   3.503  1.3549 -0.6905 -2.5338
24936SOL    HW292801   6.665   9.906   3.618 -1.6628 -0.9312 -1.4778
24937SOL     OW92802   0.158  12.950   9.637 -0.1439 -0.5651  0.1540
24937SOL    HW192803   0.112  12.896   9.573  1.3820 -2.6740  0.7189
24937SOL    HW292804   0.231  12.895   9.666  0.7693  1.3615  1.7252
24938SOL     OW92805   6.671  12.095   8.589  0.0500  0.0308  0.2093
24938SOL    HW192806   6.634  12.090   8.501  0.2671  0.4919  0.0919
24938SOL    HW292807   6.765  12.094   8.576  0.2043  3.5782  0.1721
24939SOL     OW92808   6.766  10.272  11.746  0.0037 -0.0280  0.2135
24939SOL    HW192809   6.853  10.278  11.785  0.5678 -1.0407 -0.8540
24939SOL    HW292810   6.773  10.203  11.680 -1.6115 -0.1351  0.1096
24940SOL     OW92811   0.624   0.973   7.578 -0.4212  0.1581  0.2446
24940SOL    HW192812   0.695   0.909   7.577 -0.1427  0.4721 -0.3526
24940SOL    HW292813   0.666   1.054   7.608 -1.1790 -0.3875  3.0106
24941SOL     OW92814  10.900  14.012   2.824  0.3155  0.1329  0.3354
24941SOL    HW192815  10.938  14.063   2.896  0.4425  1.1491 -0.4295
24941SOL    HW292816  10.806  14.013   2.841  0.4992 -1.4808  1.6535
24942SOL     OW92817   1.620   6.349   6.161  0.2942  0.2659  0.5661
24942SOL    HW192818   1.624   6.333   6.066  0.3862 -0.5466  0.6987
24942SOL    HW292819   1.560   6.422   6.170 -2.0928 -1.5050  0.0607
24943SOL     OW92820   6.780   0.659  12.932 -0.1748 -0.2076  0.3610
24943SOL    HW192821   6.711   0.689  12.872  0.6630  2.3333  0.5760
24943SOL    HW292822   6.829   0.595  12.881  0.0675  1.3307 -1.4722
24944SOL     OW92823   7.701   8.444   7.971 -0.0275 -0.2294 -0.1647
24944SOL    HW192824   7.655   8.372   8.014  0.5639 -0.0213  0.8460
24944SOL    HW292825   7.775   8.403   7.926  0.4198 -0.2380  0.5713
24945SOL     OW92826   9.380   7.340   6.388  0.0025 -0.3692  0.1742
24945SOL    HW192827   9.353   7.421   6.432 -0.9573 -0.2111 -0.6591
24945SOL    HW292828   9.433   7.370   6.314 -0.9634 -0.4313 -0.5686
24946SOL     OW92829  13.098   5.975   4.169 -0.0901 -0.2062 -0.0614
24946SOL    HW192830  13.026   5.949   4.111  2.0037 -0.9501 -2.5576
24946SOL    HW292831  13.104   6.070   4.158 -0.8579 -0.0997  0.3909
24947SOL     OW92832  11.170   9.308   7.918  0.5397 -0.2676  0.3636
24947SOL    HW192833  11.188   9.285   7.827  0.8283  1.7974 -0.1539
24947SOL    HW292834  11.186   9.227   7.967  0.3760 -1.4179 -1.4048
24948SOL     OW92835   5.089  13.143  13.188  0.3311 -0.3039 -0.4125
24948SOL    HW192836   5.138  13.221  13.214  1.2655 -0.7985 -0.6593
24948SOL    HW292837   5.075  13.095  13.269 -0.8603  0.4535 -0.1539
24949SOL     OW92838   5.448   9.399   8.434 -0.6162  0.1563 -0.1901
24949SOL    HW192839   5.530   9.409   8.482 -0.8699  1.0706  0.0743
24949SOL    HW292840   5.432   9.304   8.434  0.0732  0.0283  0.3725
24950SOL     OW92841   9.809   0.377   5.168 -0.2916  0.0039  0.1318
24950SOL    HW192842   9.806   0.421   5.253  1.5487 -4.6891  2.9983
24950SOL    HW292843   9.896   0.397   5.133  0.6359 -1.3968  1.5388
24951SOL     OW92844   7.062   3.481  13.634  0.2078 -0.2395  0.0990
24951SOL    HW192845   7.127   3.481  13.563  0.4311 -1.7059  0.2791
24951SOL    HW292846   7.095   3.544  13.697  0.3790  0.5542 -0.7569
24952SOL     OW92847   1.080   1.651   9.716 -1.0329  0.0327  0.0363
24952SOL    HW192848   1.040   1.729   9.755  0.0899  0.0441  1.2299
24952SOL    HW292849   1.147   1.685   9.657 -0.2622 -0.0235  0.8703
24953SOL     OW92850  11.613   8.106   0.382  0.1882  0.2248  0.0431
24953SOL    HW192851  11.708   8.119   0.383  0.2917 -0.4586  0.8599
24953SOL    HW292852  11.582   8.153   0.460 -0.0764  0.0150  0.0630
24954SOL     OW92853   0.770   7.525   7.291  0.4908 -0.3063  0.3409
24954SOL    HW192854   0.680   7.494   7.285 -0.8008  3.0613 -0.1488
24954SOL    HW292855   0.804   7.518   7.201  0.4878 -0.9785  0.3922
24955SOL     OW92856   9.623   4.785   0.879 -0.7746 -0.3335 -0.1034
24955SOL    HW192857   9.600   4.861   0.826  0.2789  1.3574  1.7371
24955SOL    HW292858   9.710   4.760   0.848  0.1123  1.0402  1.1292
24956SOL     OW92859   0.959   4.669  10.638  0.0642 -0.0033  0.2353
24956SOL    HW192860   0.928   4.580  10.655 -1.1868  0.6078  1.2046
24956SOL    HW292861   0.885   4.725  10.657  0.7812  1.2620 -0.5542
24957SOL     OW92862   3.060   8.326   3.004 -0.3365 -0.5255  0.0973
24957SOL    HW192863   2.982   8.299   2.956 -0.6511  0.1689  0.2049
24957SOL    HW292864   3.084   8.410   2.965  0.4044 -0.7767  0.0107
24958SOL     OW92865   0.607  12.769   2.691 -0.5741  0.4545  0.2693
24958SOL    HW192866   0.671  12.766   2.761 -1.0705  1.4354  0.7902
24958SOL    HW292867   0.570  12.857   2.696 -1.5525  0.1011 -0.3779
24959SOL     OW92868  12.712  11.330  10.794  0.3041 -0.1639  0.2343
24959SOL    HW192869  12.716  11.377  10.877  2.0199  1.3851 -0.6669
24959SOL    HW292870  12.654  11.255  10.812  0.2927  0.3502  2.6813
24960SOL     OW92871  11.339  11.224   8.988 -0.0244 -0.8435 -0.0244
24960SOL    HW192872  11.405  11.172   8.941  0.6096 -0.4448  0.4071
24960SOL    HW292873  11.375  11.236   9.075 -0.4884 -0.2845  0.1001
24961SOL     OW92874   1.202   5.180   3.356 -0.5078  0.8053  0.4279
24961SOL    HW192875   1.107   5.184   3.370 -0.5227  3.0667 -0.0315
24961SOL    HW292876   1.239   5.175   3.444 -1.0137  0.3115  0.6269
24962SOL     OW92877   3.576   1.484  11.075 -0.1836  0.2293 -0.2402
24962SOL    HW192878   3.594   1.412  11.136  0.0885 -0.8399 -1.5266
24962SOL    HW292879   3.575   1.562  11.130  2.7191 -0.3217  0.7792
24963SOL     OW92880   2.704   9.679   4.717  0.3794  0.0058  0.4399
24963SOL    HW192881   2.701   9.750   4.781  1.2959  0.3628  0.1029
24963SOL    HW292882   2.752   9.715   4.643  1.0785 -1.0328  0.3636
24964SOL     OW92883   3.419  11.819  11.501  0.1965 -0.3230 -0.3256
24964SOL    HW192884   3.404  11.861  11.416 -2.5922  0.2842  0.3544
24964SOL    HW292885   3.386  11.882  11.565 -0.7290 -2.0364  0.9761
24965SOL     OW92886   9.721  13.874   5.500 -0.3762  0.5389  0.0802
24965SOL    HW192887   9.732  13.904   5.410 -1.2527 -1.0818 -0.6012
24965SOL    HW292888   9.631  13.841   5.504  0.4237 -1.7426  0.8109
24966SOL     OW92889  11.669  13.267   7.779 -0.1814  0.2174 -0.1027
24966SOL    HW192890  11.640  13.290   7.691  1.5972  0.8364 -0.5671
24966SOL    HW292891  11.733  13.198   7.766  0.5000  0.6937  0.6619
24967SOL     OW92892  10.504   8.828   5.935 -0.2853  0.3430 -0.3168
24967SOL    HW192893  10.453   8.748   5.926 -0.9778  0.6469  0.8329
24967SOL    HW292894  10.592   8.798   5.960 -0.1244 -0.1254 -1.3987
24968SOL     OW92895  10.956   1.269   8.537  0.2294  0.0108 -0.2528
24968SOL    HW192896  10.993   1.269   8.449  1.1207  0.5874  0.0985
24968SOL    HW292897  11.026   1.306   8.592 -0.7921  0.9196  0.4862
24969SOL     OW92898   3.587   9.029  10.034 -0.3538 -0.3373  0.1395
24969SOL    HW192899   3.577   9.121  10.061  1.2288  0.7524 -2.6338
24969SOL    HW292900   3.636   8.989  10.106 -1.8261  0.6997  1.8234
24970SOL     OW92901  13.413   8.210  10.175 -0.2332  0.2525  0.0679
24970SOL    HW192902  13.470   8.241  10.105 -0.7426  0.4181 -0.2813
24970SOL    HW292903  13.373   8.130  10.140  0.9732 -0.7629  0.9132
24971SOL     OW92904  11.171   8.389  14.030  0.3287  0.0049  0.1024
24971SOL    HW192905  11.188   8.357  13.941  1.0159  0.4598  0.0616
24971SOL    HW292906  11.150   8.482  14.019 -0.5227 -0.1469  0.3344
24972SOL     OW92907   3.987   7.770   0.231 -0.1862  0.3202  0.3709
24972SOL    HW192908   3.897   7.744   0.213  0.2378  0.9322 -3.2476
24972SOL    HW292909   4.040   7.717   0.171  1.8000  0.8706  1.5332
24973SOL     OW92910   9.396   9.974   1.830 -0.0964 -0.0169 -0.3266
24973SOL    HW192911   9.386   9.880   1.842  1.7024 -0.5876 -2.4465
24973SOL    HW292912   9.443   9.982   1.746  1.4065  2.6813  0.6539
24974SOL     OW92913   9.526  10.773   3.560 -0.0639 -0.0299 -0.0740
24974SOL    HW192914   9.486  10.856   3.534 -1.2134 -0.4704  0.2494
24974SOL    HW292915   9.490  10.709   3.499  0.6654 -0.3332 -0.1964
24975SOL     OW92916   1.603  10.279  13.334 -0.3658  0.1989  0.0028
24975SOL    HW192917   1.669  10.284  13.266  0.8235  0.3884  1.1274
24975SOL    HW292918   1.548  10.205  13.309  0.6345 -0.3459 -0.6436
24976SOL     OW92919   5.553   4.497  13.474  0.1345  0.3970  0.1120
24976SOL    HW192920   5.623   4.457  13.422 -0.5220  0.1611 -0.6252
24976SOL    HW292921   5.482   4.511  13.411 -1.0209 -0.7084  1.1013
24977SOL     OW92922  13.404   5.029  13.502 -0.0975  0.3412 -0.0241
24977SOL    HW192923  13.407   5.124  13.518  0.1842  0.2538  0.4789
24977SOL    HW292924  13.436   4.991  13.583  1.3711 -0.1280 -0.7851
24978SOL     OW92925   8.156   1.138   1.028  0.3878 -0.2025 -0.5189
24978SOL    HW192926   8.149   1.199   0.954  0.4872  1.5605  0.8491
24978SOL    HW292927   8.234   1.086   1.009  0.3363  0.1173 -1.7061
24979SOL     OW92928  13.358   3.578   9.533  0.1552  0.4200 -0.0305
24979SOL    HW192929  13.359   3.607   9.624 -0.2138 -0.4810  0.2723
24979SOL    HW292930  13.265   3.578   9.509  0.2100  0.1665 -0.2446
24980SOL     OW92931  11.592   0.483   3.135 -0.1295  0.3422 -0.4868
24980SOL    HW192932  11.557   0.434   3.061  0.1989  0.3265 -0.6309
24980SOL    HW292933  11.687   0.469   3.131 -0.1206  0.2292  0.0123
24981SOL     OW92934  13.271   6.933   2.512  0.0698  0.3856  0.5807
24981SOL    HW192935  13.245   7.016   2.553 -2.8042  0.5190 -1.1761
24981SOL    HW292936  13.191   6.903   2.467  1.8172 -1.8453 -1.2943
24982SOL     OW92937   0.370  12.022  11.478 -0.2403  0.2388 -0.4023
24982SOL    HW192938   0.370  12.112  11.512 -0.7033 -0.0429  0.3510
24982SOL    HW292939   0.390  12.033  11.385  0.5594  1.0569 -0.1609
24983SOL     OW92940   3.692  10.072  14.043  0.2149 -0.0240  0.3593
24983SOL    HW192941   3.731  10.014  14.109  0.3646 -0.2937  0.0333
24983SOL    HW292942   3.747  10.061  13.966 -0.5119 -0.4354 -0.1134
24984SOL     OW92943   2.975  13.335  13.348 -0.5003 -0.4863  0.1170
24984SOL    HW192944   2.910  13.268  13.332 -1.6706  0.8863 -1.1009
24984SOL    HW292945   2.937  13.390  13.417 -1.1797  0.9440 -1.3362
24985SOL     OW92946  13.737   7.339  11.854  0.2614  0.3780 -0.5919
24985SOL    HW192947  13.680   7.268  11.882 -0.4052  1.7304  1.7301
24985SOL    HW292948  13.698   7.371  11.773 -0.2454 -0.9229 -0.8942
24986SOL     OW92949   5.727   9.183   3.866  0.4195 -0.3752 -0.2733
24986SOL    HW192950   5.720   9.094   3.833  0.7564 -0.4447 -0.1576
24986SOL    HW292951   5.720   9.238   3.787  1.1461 -0.5387 -0.4607
24987SOL     OW92952   7.446   3.135  13.010 -0.1321 -0.4474 -0.1649
24987SOL    HW192953   7.393   3.214  13.013  0.4527  0.0749 -1.9574
24987SOL    HW292954   7.388   3.067  12.976 -0.0798 -0.2376 -0.6910
24988SOL     OW92955   9.020   9.784   8.671 -0.2113  0.0778  0.0316
24988SOL    HW192956   8.949   9.730   8.704  0.6258 -1.1097 -0.0665
24988SOL    HW292957   9.098   9.751   8.715  0.2336  1.7177  0.5665
24989SOL     OW92958   5.927  13.730   9.569 -0.0592 -0.3681  0.5526
24989SOL    HW192959   5.975  13.812   9.557  0.7036 -0.8976 -0.1276
24989SOL    HW292960   5.940  13.682   9.487  1.8889 -2.3877  1.9213
24990SOL     OW92961  14.026   5.850  12.168  0.1526  0.2366 -0.5231
24990SOL    HW192962  13.950   5.812  12.213  0.4339  0.2422 -0.0341
24990SOL    HW292963  14.024   5.943  12.190  0.3524  0.2201 -0.4282
24991SOL     OW92964   2.458   3.999   2.354 -0.7309 -0.2680  0.3379
24991SOL    HW192965   2.387   4.027   2.296 -0.5114  2.0912  1.0674
24991SOL    HW292966   2.417   3.994   2.441 -0.5606 -1.5508  0.3626
24992SOL     OW92967   2.982   8.258   9.546  0.3850  0.0369  0.3448
24992SOL    HW192968   2.971   8.171   9.510 -0.0953  0.4591 -0.5566
24992SOL    HW292969   3.076   8.271   9.552  0.4977  0.1938 -1.3669
24993SOL     OW92970   5.214   2.094   1.668  0.0167  0.1895  0.4102
24993SOL    HW192971   5.287   2.088   1.729  1.0980 -1.4502 -0.9788
24993SOL    HW292972   5.251   2.071   1.583 -1.4837  2.1704 -0.8953
24994SOL     OW92973   4.546   3.716   3.916  0.5666  0.0430  0.1667
24994SOL    HW192974   4.626   3.694   3.964  0.6249  1.6244  0.8557
24994SOL    HW292975   4.550   3.811   3.905 -0.7077  0.0183 -0.7441
24995SOL     OW92976  11.581   9.567   6.807  0.3839  0.0063  0.3216
24995SOL    HW192977  11.653   9.604   6.757  0.6859  1.4451  1.7246
24995SOL    HW292978  11.605   9.582   6.899 -1.0690 -0.7149  0.8544
24996SOL     OW92979   9.876   6.101   2.062 -0.2571 -0.5005 -0.5864
24996SOL    HW192980   9.912   6.018   2.094 -1.2781 -0.9989 -0.7148
24996SOL    HW292981   9.786   6.081   2.038 -0.0391  0.2776 -2.1401
24997SOL     OW92982   9.527   9.114   0.998  0.0684  0.3660 -0.2261
24997SOL    HW192983   9.493   9.041   0.946  0.3043 -0.0238  0.1573
24997SOL    HW292984   9.545   9.183   0.935 -0.0185  0.0388 -0.6096
24998SOL     OW92985   7.328   1.155   8.737 -0.4444  0.3250 -0.3692
24998SOL    HW192986   7.400   1.115   8.786 -0.3407 -0.2389 -0.9745
24998SOL    HW292987   7.258   1.090   8.738 -0.1653 -0.0157 -1.6225
24999SOL     OW92988   3.654   2.371   0.766  0.0559 -0.2495 -0.0433
24999SOL    HW192989   3.673   2.427   0.841 -0.2995  0.5620 -0.5546
24999SOL    HW292990   3.726   2.308   0.764 -1.1479 -1.8942  2.4858
25000SOL     OW92991   3.723   8.267  12.050 -0.0816  0.0440  0.1253
25000SOL    HW192992   3.746   8.333  11.985  0.0729 -2.1024 -2.1675
25000SOL    HW292993   3.788   8.278  12.120  0.1878  1.9696 -0.3698
25001SOL     OW92994   2.499  11.765   5.145  0.2935  0.6858  0.0519
25001SOL    HW192995   2.421  11.790   5.194  0.3252  2.0358 -0.5338
25001SOL    HW292996   2.515  11.839   5.087  0.8756 -0.4002 -1.2340
25002SOL     OW92997  10.105   7.606   5.862 -0.5677 -0.0029  0.4636
25002SOL    HW192998  10.147   7.643   5.939 -1.5631  0.9252  0.5862
25002SOL    HW292999  10.081   7.517   5.888 -0.3229  0.0857  1.0011
25003SOL     OW93000   2.516  11.807   5.531 -0.6562  0.4097 -0.2191
25003SOL    HW193001   2.449  11.819   5.463 -0.3910 -0.8017 -0.7297
25003SOL    HW293002   2.508  11.715   5.556  0.5906  0.3308 -0.0489
25004SOL     OW93003  11.348   8.782   0.349  0.0209 -0.1652  0.0939
25004SOL    HW193004  11.348   8.693   0.313 -1.0245  0.1773 -0.8174
25004SOL    HW293005  11.324   8.838   0.275  0.2918  0.8486  0.7426
25005SOL     OW93006   4.953   6.146   7.511 -0.3676 -0.1134 -0.3747
25005SOL    HW193007   4.955   6.217   7.576 -0.3353 -2.2218  2.0786
25005SOL    HW293008   5.036   6.154   7.464  0.6561  0.1965  1.3877
25006SOL     OW93009   2.438   6.809   7.066 -0.0026 -0.1162 -0.1682
25006SOL    HW193010   2.394   6.755   7.000  1.2861 -0.2369 -0.9547
25006SOL    HW293011   2.421   6.764   7.149  0.1751 -1.1783 -0.6865
25007SOL     OW93012   9.604  12.119   9.722  0.4494 -0.2470  0.1043
25007SOL    HW193013   9.544  12.053   9.757  1.1115 -0.3137  1.1837
25007SOL    HW293014   9.691  12.082   9.738  0.8053  0.4932 -0.1025
25008SOL     OW93015   1.818   9.265   6.958  0.1002  0.1253 -0.5399
25008SOL    HW193016   1.752   9.314   6.909 -0.2727  0.7021  0.4883
25008SOL    HW293017   1.768   9.200   7.007  0.5512 -0.9964 -1.5414
25009SOL     OW93018   0.275   0.822   1.363 -0.2542  0.2323 -0.5345
25009SOL    HW193019   0.205   0.825   1.298  0.4075 -0.2448 -1.2929
25009SOL    HW293020   0.282   0.911   1.396  1.3206  1.2224 -3.2285
25010SOL     OW93021   7.508   8.547   5.098 -0.2073  0.9655 -0.1043
25010SOL    HW193022   7.599   8.572   5.086 -0.1685  1.0040  0.2718
25010SOL    HW293023   7.490   8.562   5.191 -0.5059  0.6613 -0.1088
25011SOL     OW93024   7.502   4.906   7.597 -0.2529  0.1889 -0.3272
25011SOL    HW193025   7.592   4.888   7.626 -1.6541 -3.6019  2.4583
25011SOL    HW293026   7.476   4.984   7.646  1.0693  0.5263 -0.1297
25012SOL     OW93027  13.826   4.080  10.381 -0.3080 -0.2268  0.6007
25012SOL    HW193028  13.733   4.098  10.377 -0.6320 -1.7587  0.5092
25012SOL    HW293029  13.862   4.146  10.441 -1.1571  1.3754 -0.5715
25013SOL     OW93030   8.655   0.203  11.839 -0.6580  0.5053  0.3511
25013SOL    HW193031   8.623   0.164  11.920 -1.4143  0.5804  0.0915
25013SOL    HW293032   8.654   0.297  11.855 -4.0778  0.8022 -0.8564
25014SOL     OW93033  12.736   6.684   6.276  0.4881  0.3682  0.5567
25014SOL    HW193034  12.746   6.594   6.247  1.3791  0.3271  0.9660
25014SOL    HW293035  12.805   6.732   6.230 -0.6549  1.0538 -0.4989
25015SOL     OW93036  13.699   5.460   0.822  0.0174 -0.6875 -0.4814
25015SOL    HW193037  13.695   5.555   0.836 -1.1740 -0.6333 -1.0748
25015SOL    HW293038  13.646   5.445   0.744 -0.5019 -1.9358  0.0843
25016SOL     OW93039   3.049   0.617  10.711 -0.3457 -0.4021  0.3085
25016SOL    HW193040   3.139   0.649  10.721 -0.4171 -0.2630  0.5204
25016SOL    HW293041   3.021   0.650  10.626  0.1723 -1.3504 -0.2378
25017SOL     OW93042   3.477   0.999   2.711 -0.6952 -0.0711 -0.1345
25017SOL    HW193043   3.529   1.075   2.735  0.9613 -0.9963 -0.6185
25017SOL    HW293044   3.394   1.010   2.758 -0.3327  1.7786  0.1468
25018SOL     OW93045   7.458   6.061   3.225 -0.5850 -0.3187 -0.1808
25018SOL    HW193046   7.460   6.042   3.132 -0.9584  0.5425 -0.3775
25018SOL    HW293047   7.537   6.112   3.241 -0.3435 -0.7592  0.0459
25019SOL     OW93048   5.659  10.429   7.061 -0.0541  0.2834 -0.1620
25019SOL    HW193049   5.622  10.354   7.107  2.1516 -1.4885 -1.0635
25019SOL    HW293050   5.731  10.459   7.117 -0.3887  1.2198 -0.2122
25020SOL     OW93051   6.431   6.567   1.762 -0.6810  0.2761  0.3366
25020SOL    HW193052   6.336   6.577   1.751 -0.7073 -0.3888 -0.1227
25020SOL    HW293053   6.469   6.615   1.688 -0.6013  1.5026  1.1379
25021SOL     OW93054  12.273   2.905   6.768  0.0781 -0.3201 -0.2950
25021SOL    HW193055  12.211   2.834   6.783  0.0851 -0.2737 -0.0469
25021SOL    HW293056  12.339   2.867   6.709 -1.5196  0.3816 -2.6723
25022SOL     OW93057   0.316   7.656   2.398 -0.1842 -0.2078  0.0171
25022SOL    HW193058   0.295   7.749   2.398  1.4569  0.2878  3.2968
25022SOL    HW293059   0.409   7.652   2.376  0.1393 -0.8819  1.3879
25023SOL     OW93060   5.254   6.961   2.694  0.2823 -0.2306 -0.3433
25023SOL    HW193061   5.329   7.011   2.726  0.3068 -0.3811 -0.1649
25023SOL    HW293062   5.232   7.002   2.610 -0.2854  0.6767  0.2240
25024SOL     OW93063  10.713  12.660  10.547 -0.1644 -0.2447 -0.1968
25024SOL    HW193064  10.753  12.725  10.489  1.0917 -0.1499  0.7431
25024SOL    HW293065  10.619  12.669  10.532  0.0425  1.1432 -0.7655
25025SOL     OW93066  12.757   3.325   1.738  0.1560  0.1505  0.6796
25025SOL    HW193067  12.695   3.301   1.669  0.1919 -1.3771  1.1429
25025SOL    HW293068  12.731   3.413   1.764 -1.7034 -0.3715  0.7155
25026SOL     OW93069  10.798   1.756   8.099 -0.2915  0.0990 -0.1779
25026SOL    HW193070  10.749   1.832   8.129  0.5776  0.6685 -0.1667
25026SOL    HW293071  10.739   1.682   8.114 -1.8434  0.9407 -1.7965
25027SOL     OW93072  13.929   3.034   6.979 -0.0893  0.0869  0.0010
25027SOL    HW193073  13.962   3.123   6.987  0.6639 -0.3409  2.6606
25027SOL    HW293074  13.952   3.007   6.891  0.9852  2.0068 -0.3459
25028SOL     OW93075  10.703   0.014  13.277 -1.0420  0.0947  0.2600
25028SOL    HW193076  10.639   0.054  13.337 -1.3321  0.9564 -0.6042
25028SOL    HW293077  10.777  -0.009  13.334 -1.2214  1.0943  0.9263
25029SOL     OW93078   4.094   9.432   8.282  0.1432  0.0136  0.2818
25029SOL    HW193079   4.173   9.475   8.316  0.5555 -1.2240  0.9234
25029SOL    HW293080   4.030   9.503   8.275  0.0679  0.4028  3.5183
25030SOL     OW93081   3.453  13.633  10.188 -0.6782  0.1705 -0.6935
25030SOL    HW193082   3.452  13.721  10.149 -0.6775  0.6311  0.3227
25030SOL    HW293083   3.512  13.641  10.262 -0.9028 -0.6223 -0.4270
25031SOL     OW93084   0.931   6.525   1.804 -0.2924  0.0158  0.1676
25031SOL    HW193085   0.858   6.567   1.850 -0.0798 -0.2940  0.8031
25031SOL    HW293086   0.938   6.573   1.721 -0.8372  0.4299  0.3542
25032SOL     OW93087   5.057   3.311  11.332 -0.3887 -0.1393 -0.2153
25032SOL    HW193088   5.047   3.379  11.399 -2.0664  1.4839 -1.9918
25032SOL    HW293089   4.975   3.263  11.334 -0.5023 -0.0052 -1.1389
25033SOL     OW93090  12.492   2.009   3.243 -0.5079  0.3584 -0.1151
25033SOL    HW193091  12.460   2.075   3.304  0.0468  0.2083  0.3496
25033SOL    HW293092  12.431   1.936   3.251 -0.3391  0.2684  0.4005
25034SOL     OW93093   4.331  10.132  13.629 -0.3338 -0.2649 -0.3466
25034SOL    HW193094   4.388  10.098  13.698  0.1598  0.1795 -0.5184
25034SOL    HW293095   4.249  10.152  13.673  0.0931  0.3522  0.2032
25035SOL     OW93096  13.733   9.471   0.486  0.5468 -0.0473  0.1998
25035SOL    HW193097  13.801   9.538   0.497 -0.9678  1.4304  0.9323
25035SOL    HW293098  13.708   9.447   0.575  0.3061 -0.8105 -0.0639
25036SOL     OW93099  10.689   4.728  13.014 -0.2836 -0.0304  0.3462
25036SOL    HW193100  10.644   4.812  13.009 -0.4894 -0.1387  0.3680
25036SOL    HW293101  10.704   4.702  12.923  0.3183  0.3161  0.3422
25037SOL     OW93102   7.135   5.400   3.356  0.1437  0.1290  0.3764
25037SOL    HW193103   7.096   5.445   3.280  1.4833 -1.2223 -1.1962
25037SOL    HW293104   7.189   5.467   3.397  0.5441  0.5355 -0.7542
25038SOL     OW93105   1.819   9.950  13.557  0.3593 -0.4725  0.1548
25038SOL    HW193106   1.792   9.984  13.472 -0.9160  0.2521  0.8212
25038SOL    HW293107   1.906   9.913  13.541  0.6627  0.7122 -1.1900
25039SOL     OW93108   0.669  11.853  12.688 -0.3838 -0.6569  0.1007
25039SOL    HW193109   0.741  11.900  12.729 -0.2490 -0.0637 -0.7896
25039SOL    HW293110   0.710  11.786  12.633 -0.5839 -2.6218  2.1935
25040SOL     OW93111   5.119   9.551   8.103 -0.2876  0.0397 -0.3079
25040SOL    HW193112   5.073   9.496   8.040 -1.2620  0.0372  0.3696
25040SOL    HW293113   5.060   9.553   8.179  0.6742  0.3581  0.4427
25041SOL     OW93114   9.949   0.428   7.110  0.1842 -0.3771  0.0576
25041SOL    HW193115   9.883   0.381   7.159 -1.6483  1.8215 -0.1297
25041SOL    HW293116   9.903   0.464   7.034  2.1502 -0.7211 -1.4007
25042SOL     OW93117   4.387   7.051   5.210  0.2553 -0.7447 -0.8605
25042SOL    HW193118   4.393   6.997   5.289 -0.7759  1.4873  0.8541
25042SOL    HW293119   4.313   7.014   5.161 -1.0089 -0.4128  0.7236
25043SOL     OW93120  11.715   3.005  11.194 -0.1214  0.1425 -0.7225
25043SOL    HW193121  11.712   3.095  11.162  2.0925  0.9016  0.9707
25043SOL    HW293122  11.786   2.965  11.143 -0.1457 -0.2141 -0.4753
25044SOL     OW93123   9.895   9.379  11.513 -0.7069  0.0321  0.7537
25044SOL    HW193124   9.980   9.336  11.524 -0.6986  0.2046  1.3787
25044SOL    HW293125   9.836   9.332  11.572 -0.9006  0.3158  0.7881
25045SOL     OW93126   3.485   9.804  11.292 -0.1982 -0.5035 -0.3036
25045SOL    HW193127   3.544   9.809  11.367 -0.1436 -1.4294 -0.2696
25045SOL    HW293128   3.541   9.824  11.216 -0.2814  0.5600 -0.1005
25046SOL     OW93129   2.476   4.378   1.891  0.2559  0.2556  0.2497
25046SOL    HW193130   2.485   4.302   1.948  1.5279 -0.4863 -0.8815
25046SOL    HW293131   2.488   4.344   1.803 -1.6476  1.3777 -0.5061
25047SOL     OW93132   5.186  10.465   7.039  0.1503 -0.1300  0.0513
25047SOL    HW193133   5.092  10.453   7.025 -0.4262  2.7400  0.8825
25047SOL    HW293134   5.204  10.417   7.120 -0.9633  0.5019  0.7093
25048SOL     OW93135  12.763   2.951   8.446  0.3943  0.3673 -0.0053
25048SOL    HW193136  12.853   2.972   8.419  0.6113  1.1275  1.2257
25048SOL    HW293137  12.711   2.963   8.367  0.8834  3.2379  0.0188
25049SOL     OW93138   4.557  11.858   4.726 -0.4100  0.2452 -0.1058
25049SOL    HW193139   4.646  11.877   4.756  0.1453  1.2059 -2.1701
25049SOL    HW293140   4.520  11.802   4.795  1.7110 -0.0528  0.8855
25050SOL     OW93141   9.427   3.009   4.513  0.9146  0.3047 -0.4370
25050SOL    HW193142   9.375   3.040   4.439  0.6785  0.8459 -0.0539
25050SOL    HW293143   9.469   2.929   4.482 -1.1240 -0.8347 -0.3644
25051SOL     OW93144   5.767   9.242   4.136 -0.3530  0.0802  0.0235
25051SOL    HW193145   5.765   9.206   4.047  1.9280 -2.1734  0.7464
25051SOL    HW293146   5.758   9.165   4.193  0.4559  1.1880  1.7235
25052SOL     OW93147  11.986   5.208   8.969 -0.6281 -0.8280 -0.7002
25052SOL    HW193148  11.907   5.254   8.938  0.4410  2.5401  1.0646
25052SOL    HW293149  11.958   5.164   9.049 -1.0561 -0.9504 -0.9106
25053SOL     OW93150  11.286   6.985   8.612 -0.2210 -0.3298  0.7026
25053SOL    HW193151  11.332   6.984   8.696 -1.9223  0.5590  1.6953
25053SOL    HW293152  11.288   7.076   8.584 -2.5332  0.0488  1.5079
25054SOL     OW93153  10.219   8.946   1.236  0.1482  0.2443  0.2997
25054SOL    HW193154  10.238   8.969   1.327 -0.5040 -0.7749  0.7171
25054SOL    HW293155  10.301   8.961   1.189  0.3458  1.2951  0.9454
25055SOL     OW93156   9.046   3.045   0.261 -0.7796  0.3668  1.0889
25055SOL    HW193157   8.994   3.111   0.216  0.9297  2.1761  1.6386
25055SOL    HW293158   9.047   3.073   0.352  0.9221  0.2846  1.1330
25056SOL     OW93159  10.246   8.626  12.020 -0.3973  0.5495 -0.6414
25056SOL    HW193160  10.234   8.610  11.926  0.9860 -0.0008 -0.7613
25056SOL    HW293161  10.341   8.615  12.033 -0.6556 -0.0349  0.9346
25057SOL     OW93162   8.436   8.191   6.425  0.5498  0.5177 -0.5914
25057SOL    HW193163   8.481   8.117   6.383 -0.1490 -0.1689 -0.1607
25057SOL    HW293164   8.501   8.227   6.485  0.7472 -0.0573 -0.4483
25058SOL     OW93165   9.290   7.563  10.118 -0.1734 -0.6944 -0.1952
25058SOL    HW193166   9.231   7.605  10.055  1.1394  1.7451  0.0955
25058SOL    HW293167   9.252   7.585  10.204  1.9881  2.5792  0.0984
25059SOL     OW93168  12.262   2.332  11.356  0.5679 -0.0372 -0.1398
25059SOL    HW193169  12.172   2.311  11.331  0.8369 -0.1106 -1.1015
25059SOL    HW293170  12.270   2.300  11.446 -0.8423  1.3993  0.5460
25060SOL     OW93171   9.071   4.165   3.436 -0.1952 -0.3440 -0.0865
25060SOL    HW193172   9.118   4.234   3.483 -0.2612 -0.2977 -0.0865
25060SOL    HW293173   8.996   4.144   3.493  1.1632 -2.1892  1.1389
25061SOL     OW93174  11.985   7.246   0.210  0.0458  0.0250 -0.3601
25061SOL    HW193175  11.972   7.151   0.207  1.6514 -0.2859  0.9909
25061SOL    HW293176  11.909   7.279   0.258  0.4624 -0.8513  0.9836
25062SOL     OW93177   3.756   3.245   1.875  0.0124 -0.5258 -0.0108
25062SOL    HW193178   3.835   3.269   1.826  1.1144 -3.3247  0.2012
25062SOL    HW293179   3.716   3.176   1.822 -0.1427 -1.8624  1.7628
25063SOL     OW93180   0.027   0.610   5.660 -0.7399 -0.0829 -0.1858
25063SOL    HW193181  -0.053   0.601   5.607  0.0700 -0.7721 -1.3133
25063SOL    HW293182   0.065   0.523   5.661 -1.0266 -0.2355  2.0754
25064SOL     OW93183  11.947   0.769  11.556  0.0995 -0.0939 -0.0020
25064SOL    HW193184  11.941   0.858  11.591  1.2369  0.4940 -1.1992
25064SOL    HW293185  11.969   0.714  11.632 -0.7473  0.6046  0.7713
25065SOL     OW93186   0.924   6.014  10.960  0.5405  0.3485  0.2818
25065SOL    HW193187   0.886   6.056  10.883 -1.2549 -0.2845  0.7812
25065SOL    HW293188   0.998   6.070  10.984 -0.8312  2.3613  0.0028
25066SOL     OW93189   3.196  12.147  13.732 -0.4823  0.3228  0.3538
25066SOL    HW193190   3.214  12.229  13.779  1.6081  0.2261 -0.1873
25066SOL    HW293191   3.125  12.106  13.782 -0.4128  1.6509  1.6196
25067SOL     OW93192  10.620   8.402   6.468  0.3383 -0.0897 -0.0438
25067SOL    HW193193  10.670   8.339   6.520  1.7956 -1.1847 -2.5863
25067SOL    HW293194  10.579   8.349   6.400 -1.5758  1.2643 -0.0302
25068SOL     OW93195   7.207  12.698   2.545  0.3411 -0.5039 -0.8357
25068SOL    HW193196   7.191  12.747   2.464 -0.1239 -2.7668 -2.2106
25068SOL    HW293197   7.285  12.645   2.526  0.3555 -0.9028  0.2779
25069SOL     OW93198   9.903   9.362   6.665  0.1109 -0.3826  0.0854
25069SOL    HW193199   9.942   9.344   6.580  0.3055 -0.3116  0.1606
25069SOL    HW293200   9.907   9.457   6.674  1.5575 -0.4993  0.8749
25070SOL     OW93201  11.854   7.534   7.000 -0.6203  0.4033  0.2412
25070SOL    HW193202  11.829   7.606   7.058  0.3053  1.0861 -0.1806
25070SOL    HW293203  11.893   7.577   6.924  3.1136 -0.5444  1.4072
25071SOL     OW93204   7.362   3.710  11.064 -0.2256 -0.2256 -0.2649
25071SOL    HW193205   7.313   3.739  11.141 -1.0834  0.6212 -1.1027
25071SOL    HW293206   7.452   3.700  11.095 -0.4099  0.8251  0.6712
25072SOL     OW93207   0.659   4.471   8.401  0.2439 -0.4977 -0.1426
25072SOL    HW193208   0.639   4.385   8.365  1.9477 -0.3308 -1.6370
25072SOL    HW293209   0.754   4.472   8.409  0.0988  0.1110  2.9412
25073SOL     OW93210  11.308   6.715  13.349  0.2732  0.0118 -0.3278
25073SOL    HW193211  11.404   6.710  13.356  0.2513 -0.8597 -0.5709
25073SOL    HW293212  11.286   6.653  13.280 -0.4833  0.0564 -0.1290
25074SOL     OW93213   8.699   4.515   7.861 -0.3391 -0.0883 -0.1865
25074SOL    HW193214   8.610   4.549   7.860  0.1435  1.3671  1.1175
25074SOL    HW293215   8.717   4.491   7.770 -2.2633 -1.0294 -0.3556
25075SOL     OW93216   9.803   4.583   2.312 -0.1321 -0.1921 -0.3748
25075SOL    HW193217   9.810   4.644   2.386 -0.7250 -0.1696 -0.3297
25075SOL    HW293218   9.719   4.539   2.326  0.7725 -1.7950  0.1661
25076SOL     OW93219   5.038  10.850   6.953  1.3250  0.2560  0.2474
25076SOL    HW193220   5.072  10.938   6.969  0.4560  0.1511  3.1084
25076SOL    HW293221   5.116  10.795   6.948  1.8558  1.0780 -1.1686
25077SOL     OW93222   4.169   9.502  13.927  0.3320 -0.0093 -0.3097
25077SOL    HW193223   4.114   9.494  13.849 -0.1112  1.1779 -0.1458
25077SOL    HW293224   4.111   9.477  13.999  1.0332 -2.0990 -0.4173
25078SOL     OW93225   6.532   6.500   0.126  0.0440  0.0141 -0.0225
25078SOL    HW193226   6.600   6.565   0.143  1.3963 -1.4802  0.5197
25078SOL    HW293227   6.515   6.508   0.032 -0.2556  1.5202  0.1268
25079SOL     OW93228   2.298   7.484   5.301  0.2727 -0.5329 -0.1343
25079SOL    HW193229   2.224   7.449   5.349 -0.4461  1.2790  0.1614
25079SOL    HW293230   2.344   7.540   5.365 -1.1353  2.5502 -1.6146
25080SOL     OW93231   4.091   9.952  11.935  0.6108  0.1752 -0.1601
25080SOL    HW193232   4.140   9.918  12.011  0.4770  1.5376  0.5769
25080SOL    HW293233   4.055   9.875  11.893 -1.0495 -0.5680  2.3741
25081SOL     OW93234   6.073   6.854  12.357 -0.6305 -0.0208  0.2534
25081SOL    HW193235   6.012   6.827  12.288  1.5095  0.6338 -2.0650
25081SOL    HW293236   6.127   6.776  12.372  1.4447  0.8900 -1.8224
25082SOL     OW93237   4.649   0.506  10.408 -0.3643  0.5899  0.6804
25082SOL    HW193238   4.678   0.490  10.498  0.0305  1.3105  0.6896
25082SOL    HW293239   4.730   0.508  10.357 -0.6196 -0.4056  0.1950
25083SOL     OW93240   9.910  14.152   4.573 -0.1970 -0.0278  0.2105
25083SOL    HW193241   9.962  14.183   4.646  0.9392  0.3679 -0.7364
25083SOL    HW293242   9.866  14.231   4.540 -0.8978 -0.2466  0.6049
25084SOL     OW93243   8.840   1.231   7.477  0.1028 -0.4359 -0.7630
25084SOL    HW193244   8.772   1.204   7.538  0.0604  2.2582  0.5183
25084SOL    HW293245   8.882   1.306   7.519  1.4566  0.2446 -3.1417
25085SOL     OW93246   7.566  11.697  12.448  0.3840  0.7575  0.4633
25085SOL    HW193247   7.563  11.653  12.364 -0.1029  3.3943 -1.0093
25085SOL    HW293248   7.480  11.682  12.487  0.2823  0.3080  0.0686
25086SOL     OW93249  11.345  12.856   9.735 -0.0319 -0.2572  0.3969
25086SOL    HW193250  11.335  12.930   9.795 -0.8446 -1.5417  1.9250
25086SOL    HW293251  11.289  12.787   9.772  1.2298 -1.8808 -0.5641
25087SOL     OW93252   1.137  11.367   7.724  0.1600 -0.5440  0.2341
25087SOL    HW193253   1.181  11.309   7.787  0.0177 -0.8051  0.0962
25087SOL    HW293254   1.050  11.329   7.714  0.4782 -1.0360 -0.8085
25088SOL     OW93255   1.099   7.056  10.616 -0.1997 -0.7352 -0.6355
25088SOL    HW193256   1.113   6.962  10.631 -1.4944 -0.8909 -0.3338
25088SOL    HW293257   1.164   7.098  10.673 -1.1444 -1.4247  1.0412
25089SOL     OW93258   8.848   3.899   0.245 -0.0268  0.2544  0.8145
25089SOL    HW193259   8.911   3.925   0.178  0.5662  2.0495  1.9911
25089SOL    HW293260   8.775   3.860   0.196  0.1152  2.0636 -0.9398
25090SOL     OW93261   3.931  12.154   0.031 -0.1954  0.4091  0.5646
25090SOL    HW193262   3.935  12.249   0.035  0.4319  0.3856  0.6468
25090SOL    HW293263   3.856  12.135  -0.025  1.0962  0.9907 -1.4788
25091SOL     OW93264   2.828   8.404  13.288  0.7599  0.2401 -0.0914
25091SOL    HW193265   2.901   8.465  13.275  2.2673 -1.2349  0.9684
25091SOL    HW293266   2.839   8.373  13.378 -1.1733 -0.0922  0.0745
25092SOL     OW93267   7.502   9.825   0.895 -0.2675 -0.2813  0.2986
25092SOL    HW193268   7.476   9.911   0.862  2.2717  0.3096 -0.2994
25092SOL    HW293269   7.570   9.843   0.959 -0.7754 -1.8100  1.3269
25093SOL     OW93270   1.967   6.017  11.208 -0.2179 -0.0836  0.3844
25093SOL    HW193271   2.062   6.006  11.215 -0.0173  0.9685 -0.3517
25093SOL    HW293272   1.938   6.029  11.299  0.4176  0.0142  0.5835
25094SOL     OW93273  14.059  12.801  11.831  0.1938 -0.3335  0.2534
25094SOL    HW193274  13.993  12.867  11.810  0.9251  0.1584 -0.5766
25094SOL    HW293275  14.114  12.796  11.753  1.1217 -0.7524  0.9057
25095SOL     OW93276  11.255  10.522   0.833  0.0185  0.2436 -0.0370
25095SOL    HW193277  11.272  10.453   0.897 -0.1487  1.0347  0.8630
25095SOL    HW293278  11.340  10.535   0.789  0.6198  0.9622  1.2821
25096SOL     OW93279   8.808   8.031   8.955  0.0075  0.9626 -0.3199
25096SOL    HW193280   8.897   8.049   8.926  0.0983  1.0379  0.0014
25096SOL    HW293281   8.816   8.014   9.049 -0.3776  1.3969 -0.2057
25097SOL     OW93282   7.281  12.924   6.695 -0.2810 -0.0970  0.5097
25097SOL    HW193283   7.319  12.973   6.767  3.7486 -0.0033 -1.3965
25097SOL    HW293284   7.293  12.832   6.719  2.7523 -0.1008 -0.6182
25098SOL     OW93285   8.626   0.083  10.548  0.1586 -0.0004  0.3896
25098SOL    HW193286   8.550   0.141  10.558  1.1595  1.3056  0.7821
25098SOL    HW293287   8.657   0.070  10.638  0.5779 -0.2726  0.2054
25099SOL     OW93288   8.172   2.481   3.005 -0.4629  0.2137  0.5264
25099SOL    HW193289   8.088   2.434   3.004 -0.8132  0.7776  1.6022
25099SOL    HW293290   8.148   2.572   3.025  0.2909  0.6640 -0.5564
25100SOL     OW93291   7.456  13.102   4.652  0.2393 -0.6778 -0.5603
25100SOL    HW193292   7.545  13.131   4.673  0.8798 -1.5105 -1.9967
25100SOL    HW293293   7.451  13.106   4.557 -1.0898 -1.1531 -0.5327
25101SOL     OW93294   8.790   8.234   4.116  0.8002  0.2957 -0.3169
25101SOL    HW193295   8.831   8.304   4.066  1.9349  0.6351  1.0056
25101SOL    HW293296   8.848   8.222   4.192 -0.2877 -0.8936  0.3701
25102SOL     OW93297   2.635   7.332   4.243  0.1325 -0.4364 -0.4770
25102SOL    HW193298   2.658   7.404   4.184  0.7320  0.5149  0.8759
25102SOL    HW293299   2.628   7.256   4.185  4.1659 -0.3043 -1.4556
25103SOL     OW93300   0.579   1.738  11.932 -0.1493  0.3926  0.4681
25103SOL    HW193301   0.647   1.701  11.875 -0.0176  0.4802  0.5680
25103SOL    HW293302   0.538   1.663  11.974  0.8753  0.4033  1.5442
25104SOL     OW93303  11.795   1.850   3.447 -0.3854  0.3457  0.6696
25104SOL    HW193304  11.746   1.781   3.400  1.5179 -0.9294  0.4633
25104SOL    HW293305  11.750   1.858   3.531  0.3661 -2.4397  1.4136
25105SOL     OW93306   8.445   5.270   9.556 -0.0673  0.0684  1.0131
25105SOL    HW193307   8.379   5.201   9.556  0.1754 -0.1945 -0.2270
25105SOL    HW293308   8.489   5.261   9.471 -0.1507  1.8542  0.7383
25106SOL     OW93309   2.433   2.536   9.150  0.4191  0.2807  0.3202
25106SOL    HW193310   2.517   2.581   9.158  1.2654 -1.2444  0.4495
25106SOL    HW293311   2.448   2.470   9.083 -0.6861 -0.0074  0.3404
25107SOL     OW93312   0.478  11.794   6.863 -0.2710 -0.2688 -0.1432
25107SOL    HW193313   0.468  11.864   6.929 -0.8717 -1.0947  0.6617
25107SOL    HW293314   0.429  11.720   6.899  1.9592 -1.7870  0.0079
25108SOL     OW93315   6.840  13.286  12.121 -0.3897  0.6744  0.1424
25108SOL    HW193316   6.827  13.286  12.216  2.0250  0.4209  0.5366
25108SOL    HW293317   6.755  13.260  12.085 -1.3315  0.6753  2.2239
25109SOL     OW93318   4.356   3.088   4.056  0.1711 -0.4062 -0.9092
25109SOL    HW193319   4.355   3.139   3.976 -2.6523 -1.7178 -1.8366
25109SOL    HW293320   4.269   3.098   4.094  1.3024 -0.0650  1.9160
25110SOL     OW93321  10.482  13.079   2.157 -0.4754  0.0275  0.2504
25110SOL    HW193322  10.443  13.027   2.087  2.9924 -0.2562 -1.6489
25110SOL    HW293323  10.535  13.017   2.207  0.1130  0.9220  0.7634
25111SOL     OW93324   4.483  13.984  11.984  0.0607 -0.1786 -0.4220
25111SOL    HW193325   4.411  13.982  12.047 -0.3389  1.4319 -0.7814
25111SOL    HW293326   4.488  14.075  11.957  2.8685 -0.0224  0.2917
25112SOL     OW93327   8.031  13.695   9.785  0.2597  0.1511 -0.5152
25112SOL    HW193328   8.116  13.736   9.770  0.7273 -0.5711  0.0875
25112SOL    HW293329   7.995  13.742   9.861  0.5068 -0.1123 -0.2320
25113SOL     OW93330   8.922   2.622   6.351 -0.3035  0.4295 -0.6267
25113SOL    HW193331   9.010   2.652   6.333  0.0866  0.7489  1.5315
25113SOL    HW293332   8.932   2.530   6.376 -0.3182  0.8696  1.1459
25114SOL     OW93333  11.172   7.196   9.583 -0.0932 -0.6213  0.2387
25114SOL    HW193334  11.083   7.229   9.597 -0.2801 -0.1560 -1.6853
25114SOL    HW293335  11.224   7.274   9.565  0.6433 -0.9264  1.0036
25115SOL     OW93336  13.970   3.160   1.491  0.3286 -0.1647  0.1006
25115SOL    HW193337  13.986   3.212   1.412  0.5973  0.4378  0.5415
25115SOL    HW293338  13.998   3.072   1.468 -0.9599 -0.3364 -0.9621
25116SOL     OW93339   8.403   0.645   1.017  0.4144  0.2760  0.1066
25116SOL    HW193340   8.458   0.632   0.940 -0.5749 -0.3002 -0.5286
25116SOL    HW293341   8.450   0.601   1.088  0.6190 -0.5034 -0.4990
25117SOL     OW93342   6.575  11.150   1.922  0.4151 -0.0932 -0.2551
25117SOL    HW193343   6.577  11.129   2.015  1.1088 -0.2485 -0.2956
25117SOL    HW293344   6.523  11.081   1.882  1.5506 -0.9980 -0.2070
25118SOL     OW93345   8.521   9.159  11.351 -0.8868  0.4971  0.7820
25118SOL    HW193346   8.489   9.120  11.432 -0.5713 -0.9411  0.2388
25118SOL    HW293347   8.585   9.224  11.381  0.5551 -1.2295  1.6929
25119SOL     OW93348   4.819  11.395  10.021  0.4363 -0.1943 -0.0981
25119SOL    HW193349   4.788  11.313   9.985  2.7471 -1.5241  0.7050
25119SOL    HW293350   4.788  11.395  10.112  1.0302 -0.5567  0.1130
25120SOL     OW93351   8.448  12.540   5.748  0.0903 -0.5047 -0.3764
25120SOL    HW193352   8.373  12.509   5.697  0.5409 -2.5398  0.0871
25120SOL    HW293353   8.524  12.506   5.702  0.6033 -0.5011  0.4465
25121SOL     OW93354  11.707   6.941   1.211  0.6271 -0.4664  0.0560
25121SOL    HW193355  11.651   6.865   1.226  0.7334 -0.6296 -0.3711
25121SOL    HW293356  11.788   6.904   1.175  0.9634 -0.2229  0.5548
25122SOL     OW93357   6.125  10.847   3.494 -0.1074 -0.7682  0.0341
25122SOL    HW193358   6.155  10.938   3.506 -1.8972 -0.2203  0.6203
25122SOL    HW293359   6.137  10.806   3.579 -0.1478 -0.8192  0.0153
25123SOL     OW93360   8.088   6.319   9.428 -0.1742  0.4209 -0.5269
25123SOL    HW193361   8.103   6.347   9.518 -0.4611  2.6368 -1.1134
25123SOL    HW293362   8.161   6.260   9.409  0.0032  0.0750  1.0666
25124SOL     OW93363   7.749   4.206   7.448 -0.3255  0.1752  0.4393
25124SOL    HW193364   7.781   4.119   7.426 -1.9582 -0.1020 -1.0506
25124SOL    HW293365   7.801   4.232   7.524  0.6612 -1.8085  0.5078
25125SOL     OW93366   1.899   2.906  13.141 -0.2960 -0.6519 -0.0552
25125SOL    HW193367   1.817   2.863  13.117 -0.5055 -0.5319  0.4268
25125SOL    HW293368   1.940   2.928  13.058 -1.0478 -0.1588 -0.3119
25126SOL     OW93369   5.519   1.628   4.725 -0.0922  0.2670 -0.6791
25126SOL    HW193370   5.537   1.552   4.670  1.1656  0.6463 -0.8244
25126SOL    HW293371   5.508   1.593   4.813  1.6372  0.0014 -0.5402
25127SOL     OW93372   1.004   4.242   9.631  0.1268 -0.3863  0.8110
25127SOL    HW193373   0.988   4.261   9.723 -0.8785 -1.3721  0.8678
25127SOL    HW293374   1.020   4.147   9.628  0.9637 -0.2332  0.0722
25128SOL     OW93375  13.391  12.389   1.879  0.0856  0.0653 -0.0190
25128SOL    HW193376  13.364  12.312   1.830 -1.1748  0.6026 -0.2116
25128SOL    HW293377  13.387  12.460   1.815  0.1012  0.4824  0.4387
25129SOL     OW93378   7.679  12.072   3.956 -0.4663  0.0399 -0.6465
25129SOL    HW193379   7.657  11.982   3.980 -0.3919  0.5982  1.7780
25129SOL    HW293380   7.595  12.117   3.949 -0.4912  0.7898  2.7848
25130SOL     OW93381   1.218   1.119  12.467 -0.9258 -0.4287 -0.1900
25130SOL    HW193382   1.164   1.059  12.519 -0.6004 -1.2890 -0.8126
25130SOL    HW293383   1.204   1.091  12.377  0.6356 -0.7375 -0.3544
25131SOL     OW93384   9.518   0.020   9.054  1.0120  0.2800 -0.7840
25131SOL    HW193385   9.604   0.023   9.013  1.0602 -1.8965 -0.9994
25131SOL    HW293386   9.515   0.096   9.112  3.0608  0.4293 -0.8127
25132SOL     OW93387   2.527  12.392  13.337  0.5029  0.0826  0.0291
25132SOL    HW193388   2.511  12.303  13.367 -1.8824  0.3781 -0.1694
25132SOL    HW293389   2.542  12.442  13.417  0.8413 -0.3018  0.2081
25133SOL     OW93390   2.734   3.210  14.101  0.4578 -0.4421  0.9250
25133SOL    HW193391   2.642   3.193  14.123  0.0138  1.5373  0.7976
25133SOL    HW293392   2.753   3.150  14.028 -2.1452  2.0731 -2.1108
25134SOL     OW93393  10.067   7.368   9.106  0.0776 -0.6216  0.7677
25134SOL    HW193394  10.002   7.438   9.105 -0.0011 -0.6184  2.8687
25134SOL    HW293395  10.022   7.293   9.067 -0.8016 -0.3078  1.1565
25135SOL     OW93396   2.612  12.454   2.067  0.2886  0.3004  0.1896
25135SOL    HW193397   2.544  12.398   2.105  0.6012  0.1866  0.5821
25135SOL    HW293398   2.652  12.400   1.999 -0.1797  0.4574 -0.2173
25136SOL     OW93399  11.113   9.736  12.299 -0.3175  0.4832 -0.4246
25136SOL    HW193400  11.046   9.803  12.288 -1.1516 -0.1269  0.7627
25136SOL    HW293401  11.116   9.691  12.214 -1.9449  0.0566 -0.2889
25137SOL     OW93402   9.393   5.243  13.381  0.0037 -0.4020 -0.1447
25137SOL    HW193403   9.307   5.243  13.338  0.2025  1.5790 -0.6554
25137SOL    HW293404   9.387   5.315  13.444  1.4609  0.1440 -0.5951
25138SOL     OW93405   2.955  11.786   8.611  0.0174 -0.0388 -0.0953
25138SOL    HW193406   2.932  11.857   8.551 -0.9353 -0.5795 -0.3816
25138SOL    HW293407   2.991  11.831   8.688  1.9312  0.6510 -1.3141
25139SOL     OW93408   5.827   5.415   2.612  0.3923 -0.1374 -0.3983
25139SOL    HW193409   5.833   5.422   2.707  2.7002  0.3008 -0.5221
25139SOL    HW293410   5.866   5.330   2.592 -0.7469 -0.5508 -0.9261
25140SOL     OW93411   2.980   2.849   7.859 -0.8655 -0.1267  0.0682
25140SOL    HW193412   2.984   2.905   7.782 -1.5433 -2.0053 -1.4161
25140SOL    HW293413   3.071   2.840   7.886 -0.6778  1.0471 -0.1374
25141SOL     OW93414   4.393  12.023   8.433 -0.9953 -0.2199  0.0753
25141SOL    HW193415   4.378  12.101   8.380  0.0468 -0.1369 -0.1224
25141SOL    HW293416   4.483  12.032   8.464 -0.0702 -2.3274 -1.6853
25142SOL     OW93417   4.973   9.291   8.353 -0.1643  0.2839 -0.7818
25142SOL    HW193418   4.899   9.281   8.413 -0.8729 -0.2682 -1.7118
25142SOL    HW293419   5.044   9.325   8.407 -0.9026  0.1944  0.2701
25143SOL     OW93420   3.437   3.701   6.063 -0.1336  0.0819  0.1943
25143SOL    HW193421   3.464   3.644   5.991 -0.0727  0.3178  0.0289
25143SOL    HW293422   3.429   3.642   6.138 -1.2580 -0.3677 -0.2485
25144SOL     OW93423   2.136   2.114  10.469 -0.0041 -0.2037 -0.3454
25144SOL    HW193424   2.200   2.183  10.450  1.3921 -1.6392 -1.0683
25144SOL    HW293425   2.118   2.124  10.563  3.9446 -1.7673  0.8048
25145SOL     OW93426   4.048  13.876   0.858 -0.3416  0.5589 -0.1523
25145SOL    HW193427   4.137  13.843   0.858  0.2024  1.9606 -0.7660
25145SOL    HW293428   4.020  13.870   0.949  0.1473 -0.4551 -0.0557
25146SOL     OW93429   8.582   9.214   4.567 -0.0902 -0.3566 -0.3431
25146SOL    HW193430   8.631   9.275   4.621 -1.5099  1.5976 -1.1326
25146SOL    HW293431   8.643   9.142   4.551  2.0170  1.2702 -0.1447
25147SOL     OW93432  13.453   7.115   3.876  0.1564  0.2465 -0.0980
25147SOL    HW193433  13.401   7.058   3.932 -1.0833  0.9833 -0.4538
25147SOL    HW293434  13.455   7.070   3.791 -0.1813  0.3602 -0.1693
25148SOL     OW93435   7.360   4.157   2.197 -0.3274  0.0204 -0.3555
25148SOL    HW193436   7.392   4.214   2.268  0.0703 -1.0786  0.3663
25148SOL    HW293437   7.370   4.068   2.231  3.2112 -0.8503 -3.0539
25149SOL     OW93438   2.222   0.015   0.385  0.2164  0.5030 -0.1564
25149SOL    HW193439   2.163   0.070   0.437  0.7164  1.2869 -0.3931
25149SOL    HW293440   2.290  -0.012   0.448  0.5216  0.9980 -0.2685
25150SOL     OW93441  13.222  13.073  12.355  0.2701  0.5989  0.3118
25150SOL    HW193442  13.197  13.038  12.441 -1.4168 -0.2459 -0.4697
25150SOL    HW293443  13.153  13.136  12.334  0.2303  0.2104 -0.7592
25151SOL     OW93444   2.998   3.933   8.382 -0.5776  0.5150 -0.1273
25151SOL    HW193445   3.000   3.893   8.295  1.3435  1.6874 -0.6747
25151SOL    HW293446   2.943   3.874   8.434 -1.4267 -0.4306 -2.0039
25152SOL     OW93447   5.001   7.478   3.798  0.3200  0.7154 -0.1628
25152SOL    HW193448   4.922   7.511   3.754  0.5328  0.2850 -0.8716
25152SOL    HW293449   5.048   7.429   3.731  1.1775  0.9259  0.2673
25153SOL     OW93450   0.121  10.174   4.192 -0.1302  0.1225 -0.0441
25153SOL    HW193451   0.045  10.166   4.250 -0.7793  0.2409 -0.8594
25153SOL    HW293452   0.116  10.263   4.158 -0.2731 -0.2257 -0.9688
25154SOL     OW93453   0.968  13.734  13.478 -0.2038 -0.3709 -0.4654
25154SOL    HW193454   1.054  13.761  13.446 -0.2515 -1.6476 -1.7583
25154SOL    HW293455   0.986  13.674  13.549 -0.0623  0.4799  0.2312
25155SOL     OW93456   0.904   8.938   6.585  0.5187  0.4583  0.1358
25155SOL    HW193457   0.945   8.937   6.499  0.4805  0.9123  0.1098
25155SOL    HW293458   0.918   9.027   6.617  0.2530  0.3834  0.4616
25156SOL     OW93459   0.160   7.989  12.692  0.7498  0.2876 -0.3485
25156SOL    HW193460   0.230   7.931  12.724  0.7007  0.4848  0.1303
25156SOL    HW293461   0.178   8.000  12.599  0.7461 -0.5219 -0.4554
25157SOL     OW93462   8.366  12.002  13.755  0.2763  0.0099  0.1503
25157SOL    HW193463   8.312  11.939  13.706 -0.2501  1.9935 -1.9576
25157SOL    HW293464   8.456  11.974  13.738  0.0531 -1.8930  1.7174
25158SOL     OW93465   3.023   7.623  10.438 -0.2117  0.2661 -0.0879
25158SOL    HW193466   3.087   7.664  10.496  0.0203 -0.5209  0.2261
25158SOL    HW293467   2.990   7.547  10.488  0.0189 -0.4427 -0.9903
25159SOL     OW93468  13.169   7.315   3.345 -0.3807  0.1028  0.3936
25159SOL    HW193469  13.211   7.375   3.283 -2.4183  1.8926  0.5991
25159SOL    HW293470  13.094   7.365   3.378 -1.8253 -2.3765  1.0794
25160SOL     OW93471  13.453  10.923   4.267 -0.8972 -0.0032 -0.2310
25160SOL    HW193472  13.535  10.972   4.266 -0.3664 -0.8415  0.4816
25160SOL    HW293473  13.476  10.837   4.231 -1.6288 -0.0091 -0.7047
25161SOL     OW93474  12.639  10.300   7.572  0.5469  0.6954  0.4430
25161SOL    HW193475  12.657  10.288   7.665  0.3361 -0.5504  0.3468
25161SOL    HW293476  12.640  10.395   7.558 -1.2816  1.0180  2.0960
25162SOL     OW93477  12.059   9.169  13.806 -0.2803  0.2028 -0.1019
25162SOL    HW193478  12.058   9.261  13.778  1.1661  0.2124 -0.2002
25162SOL    HW293479  11.986   9.161  13.868  0.1824  1.6480  0.6505
25163SOL     OW93480   7.805   3.913  13.647  0.4686  0.4957  0.2449
25163SOL    HW193481   7.735   3.965  13.606  0.8885  1.1412  0.3179
25163SOL    HW293482   7.830   3.850  13.580  0.7594  1.1739 -0.3084
25164SOL     OW93483   3.656   4.432  12.923  0.4831  0.4171 -0.1634
25164SOL    HW193484   3.672   4.454  13.015  0.9032  1.0032 -0.3703
25164SOL    HW293485   3.624   4.514  12.884  1.0753  0.3969 -0.7160
25165SOL     OW93486   2.835   8.632  13.001 -0.3131 -0.0038 -0.3130
25165SOL    HW193487   2.785   8.556  12.970  0.6709  0.1754 -2.5524
25165SOL    HW293488   2.923   8.597  13.016 -0.0022  0.5495 -0.7893
25166SOL     OW93489  11.428   9.939  12.272 -0.4176  0.4850  0.3803
25166SOL    HW193490  11.353   9.982  12.230  0.7671  1.3553 -0.9075
25166SOL    HW293491  11.390   9.897  12.349 -1.9701  2.2830  0.6973
25167SOL     OW93492   3.031   3.808   4.400  0.5555  0.3314  0.1763
25167SOL    HW193493   2.962   3.863   4.439  1.1932  2.1942 -1.1963
25167SOL    HW293494   2.988   3.767   4.325  1.3480  3.0736 -1.9085
25168SOL     OW93495  10.641   6.315  13.335 -0.3873  0.1720 -0.0576
25168SOL    HW193496  10.621   6.232  13.377  2.0999 -0.7589 -0.5802
25168SOL    HW293497  10.570   6.327  13.271 -0.7042 -1.6294 -0.0846
25169SOL     OW93498   4.925  13.404   9.367  0.1105  0.1379 -0.0046
25169SOL    HW193499   4.914  13.392   9.272 -0.3093 -3.8422  0.3831
25169SOL    HW293500   4.835  13.411   9.400  0.0133 -2.1353  0.3531
25170SOL     OW93501   3.545   4.113  12.457  0.2353  0.0785  0.1885
25170SOL    HW193502   3.555   4.155  12.543 -0.4709 -1.0288  0.8292
25170SOL    HW293503   3.621   4.056  12.449  1.3137  1.5801 -0.7805
25171SOL     OW93504  12.207   0.224  10.466 -0.2830  0.5806  0.4072
25171SOL    HW193505  12.216   0.245  10.559 -1.4251 -0.2370  0.7134
25171SOL    HW293506  12.259   0.144  10.455 -0.7868  0.2302  0.5249
25172SOL     OW93507   5.235   7.835   5.475 -0.4305 -0.3502 -0.5750
25172SOL    HW193508   5.180   7.757   5.486 -1.0234  0.0462 -0.7150
25172SOL    HW293509   5.180   7.897   5.428  0.0246  0.1789 -0.4191
25173SOL     OW93510   5.078   5.138   7.566  0.0524  0.1664 -0.1960
25173SOL    HW193511   5.007   5.169   7.623  1.1821  1.3520  0.6511
25173SOL    HW293512   5.070   5.191   7.487  0.4144  0.8271  0.1990
25174SOL     OW93513   5.502  13.442   6.546 -0.1101 -0.3114 -0.4459
25174SOL    HW193514   5.592  13.411   6.552 -0.5947 -1.8366 -0.6049
25174SOL    HW293515   5.500  13.520   6.600  0.9685 -1.0687  0.7422
25175SOL     OW93516   8.878  10.129   6.663  0.1344 -0.0517 -0.0548
25175SOL    HW193517   8.837  10.190   6.602 -2.1687 -0.5737  0.8950
25175SOL    HW293518   8.893  10.181   6.743  0.2874 -0.1701 -0.0052
25176SOL     OW93519   3.864   7.611   7.909  0.1772  0.1790  0.4327
25176SOL    HW193520   3.914   7.670   7.966  1.6968  0.4041 -1.0430
25176SOL    HW293521   3.903   7.525   7.923  1.1424  0.3776 -0.8178
25177SOL     OW93522   1.285   3.093  11.300  0.6893  0.3350 -0.3631
25177SOL    HW193523   1.380   3.104  11.297  0.7424 -0.2106 -0.9365
25177SOL    HW293524   1.268   3.053  11.385  0.8747  1.2684  0.1236
25178SOL     OW93525  13.298   3.445  11.272 -0.3068  0.2416 -0.0057
25178SOL    HW193526  13.252   3.520  11.236 -0.3682  0.0684 -0.2892
25178SOL    HW293527  13.333   3.476  11.356  0.4591  0.8648 -0.5437
25179SOL     OW93528   4.074   1.934   9.002  0.1701 -0.1667  0.2424
25179SOL    HW193529   4.023   1.928   8.921  1.1365  0.9846 -0.4847
25179SOL    HW293530   4.045   1.860   9.054 -0.5625 -0.8666 -1.1139
25180SOL     OW93531   0.968   0.878   3.497 -0.3339  0.3979 -0.3816
25180SOL    HW193532   0.953   0.882   3.591 -0.8855  1.7440 -0.5116
25180SOL    HW293533   1.053   0.918   3.484 -0.1997  0.0931 -0.4432
25181SOL     OW93534  13.435  10.994  14.133 -0.7602  0.3024  0.3494
25181SOL    HW193535  13.471  10.927  14.191 -1.8438  0.8008  1.6519
25181SOL    HW293536  13.354  10.955  14.099 -1.6913  1.1173  1.5534
25182SOL     OW93537  10.862   1.661   8.577 -0.0175 -0.2144 -0.0877
25182SOL    HW193538  10.846   1.664   8.672 -0.0531  1.2585 -0.1070
25182SOL    HW293539  10.779   1.631   8.539 -0.0870 -0.5533  0.3242
25183SOL     OW93540   0.356   3.517   1.863  0.1471  0.0045 -0.2934
25183SOL    HW193541   0.363   3.600   1.816  0.3188  0.8067  1.1162
25183SOL    HW293542   0.441   3.505   1.904  0.7682 -1.8319 -1.9674
25184SOL     OW93543   5.246  12.037  13.051  0.2234  0.3919 -0.1867
25184SOL    HW193544   5.233  12.116  13.104 -0.6399 -1.0059  1.8275
25184SOL    HW293545   5.173  11.980  13.075  0.8066 -1.0255 -1.5962
25185SOL     OW93546   6.895   1.455   6.798 -0.2052 -0.5157  0.3756
25185SOL    HW193547   6.912   1.451   6.892  1.0136  1.2206  0.2948
25185SOL    HW293548   6.982   1.465   6.759 -0.7776 -0.0185 -0.8186
25186SOL     OW93549   2.458  14.091   0.889  0.5923 -0.0565  0.2558
25186SOL    HW193550   2.519  14.146   0.939 -1.4909  0.4288  2.4000
25186SOL    HW293551   2.384  14.148   0.869 -1.0169 -1.6494  1.3418
25187SOL     OW93552   4.017   3.689  10.820 -0.4623 -0.0750 -0.6270
25187SOL    HW193553   3.936   3.663  10.865 -0.0084  1.0260  0.9092
25187SOL    HW293554   4.064   3.742  10.884  0.5671  0.9836 -2.1831
25188SOL     OW93555   9.916  12.250  10.598 -0.2735 -0.1069 -0.1175
25188SOL    HW193556   9.850  12.183  10.615 -1.4849  0.8712 -0.7838
25188SOL    HW293557   9.985  12.233  10.663 -0.5213 -1.9926 -0.2952
25189SOL     OW93558  10.723  10.876   0.751  0.2242  0.4271 -0.3451
25189SOL    HW193559  10.779  10.889   0.827 -1.1376 -1.2347  1.0604
25189SOL    HW293560  10.635  10.865   0.788 -0.2657 -2.0656 -1.9425
25190SOL     OW93561   9.164   7.427   4.246  0.3908 -0.2325 -0.0749
25190SOL    HW193562   9.196   7.355   4.191 -0.4568 -0.4898 -0.2429
25190SOL    HW293563   9.085   7.392   4.288  0.1332  0.5042  0.0628
25191SOL     OW93564   0.786   2.627  13.615  0.0110 -0.2305 -0.0081
25191SOL    HW193565   0.756   2.632  13.524 -2.1847 -1.0246  0.6102
25191SOL    HW293566   0.792   2.719  13.643 -1.9122 -0.0080 -0.2013
25192SOL     OW93567   1.133   0.986   7.691  0.4798  0.0135  0.6763
25192SOL    HW193568   1.190   0.947   7.625  0.9808  0.4672  0.8355
25192SOL    HW293569   1.185   1.055   7.731 -0.8682  1.8975 -0.6342
25193SOL     OW93570  13.434  13.824   3.604  0.4591  0.0330  0.1855
25193SOL    HW193571  13.439  13.773   3.523  0.6816 -0.4197  0.4787
25193SOL    HW293572  13.502  13.787   3.660 -0.9284 -0.9436  1.2983
25194SOL     OW93573   5.369  12.742  13.054 -0.0401 -0.1051  0.1209
25194SOL    HW193574   5.438  12.783  13.002 -1.9740  3.5806  0.0652
25194SOL    HW293575   5.307  12.708  12.989  0.5816 -1.3158  0.1459
25195SOL     OW93576   2.106   0.441  11.826 -0.4545 -0.7708 -0.1541
25195SOL    HW193577   2.030   0.492  11.800  0.4540  0.9981  0.5324
25195SOL    HW293578   2.076   0.387  11.899 -1.4823 -1.4690 -1.0491
25196SOL     OW93579  12.302  13.842  13.324  0.0739  0.1228 -0.0618
25196SOL    HW193580  12.257  13.795  13.394  1.2486  0.3685  0.8943
25196SOL    HW293581  12.278  13.934  13.337 -0.3652  0.0777 -0.5064
25197SOL     OW93582   0.407   4.461   1.880 -0.0053 -0.2432  0.2257
25197SOL    HW193583   0.453   4.388   1.922 -1.4274  0.2267  2.7889
25197SOL    HW293584   0.354   4.419   1.812  1.5565 -1.1670 -0.4878
25198SOL     OW93585   5.264   3.714  10.091 -0.4726 -0.0584 -0.2961
25198SOL    HW193586   5.333   3.683  10.150  1.3971  1.4829 -1.5334
25198SOL    HW293587   5.307   3.782  10.038 -2.8393  0.6303 -1.4652
25199SOL     OW93588  10.113   0.218   9.995 -0.2789 -0.2540 -0.1133
25199SOL    HW193589  10.044   0.154   9.977 -0.2024 -0.6036  0.8155
25199SOL    HW293590  10.188   0.165  10.021 -0.2768  0.2234  0.8738
25200SOL     OW93591   0.756   7.409   6.635  0.1821  0.8585  0.5920
25200SOL    HW193592   0.738   7.493   6.592 -0.6527 -0.7452 -2.5156
25200SOL    HW293593   0.781   7.351   6.563  3.5987 -0.8941  2.9404
25201SOL     OW93594   6.056  12.859   2.998 -0.2852  0.2568  0.0631
25201SOL    HW193595   6.127  12.903   2.952  0.4214 -1.6280 -0.7118
25201SOL    HW293596   6.070  12.880   3.090  0.9702  0.3336 -0.1351
25202SOL     OW93597   4.248   6.774  10.560  0.1910 -0.3315 -0.1941
25202SOL    HW193598   4.316   6.749  10.623 -1.3033 -0.5686  1.4087
25202SOL    HW293599   4.253   6.869  10.554  2.2915 -0.4764 -2.0888
25203SOL     OW93600   6.784  13.270  12.384 -0.4840 -0.1627 -0.3325
25203SOL    HW193601   6.709  13.213  12.395 -0.1995 -0.3163  1.0284
25203SOL    HW293602   6.756  13.354  12.420 -0.2961  0.0323 -0.6339
25204SOL     OW93603   6.724   8.419   5.164 -0.1006 -0.1517  0.7581
25204SOL    HW193604   6.689   8.331   5.171  1.2988 -0.8093 -0.0511
25204SOL    HW293605   6.699   8.461   5.247 -0.5493 -1.3886  1.2759
25205SOL     OW93606   6.801   6.718  11.790  0.0088  0.2092  0.0280
25205SOL    HW193607   6.759   6.632  11.780 -0.9553  0.7361 -0.6440
25205SOL    HW293608   6.737   6.780  11.754 -0.0163  1.3866  1.9552
25206SOL     OW93609  11.067  12.812  10.549 -0.0631 -0.1882  0.8423
25206SOL    HW193610  11.096  12.727  10.582 -1.1240 -1.4168 -1.1614
25206SOL    HW293611  11.033  12.793  10.461 -0.8795  2.2248  0.5613
25207SOL     OW93612   9.649  12.570   8.648  0.0992 -0.2035 -0.6941
25207SOL    HW193613   9.583  12.502   8.640  1.3552 -1.4295 -1.0175
25207SOL    HW293614   9.703  12.544   8.722  0.5543  0.4756 -0.7671
25208SOL     OW93615  12.590   4.751   1.881 -0.0578  0.2227  0.1356
25208SOL    HW193616  12.587   4.677   1.821  0.0330  0.0840  0.3010
25208SOL    HW293617  12.536   4.818   1.839 -0.3410 -0.0252  0.1019
25209SOL     OW93618   5.920   9.027   3.066 -0.0075  0.3726  0.0727
25209SOL    HW193619   5.845   9.051   3.122  0.3432  3.4671 -0.6054
25209SOL    HW293620   5.995   9.030   3.125 -0.1650 -1.2441  0.4165
25210SOL     OW93621   4.498   4.220   0.090 -0.0854  0.7071 -0.1906
25210SOL    HW193622   4.554   4.294   0.114 -1.4264  1.5131  0.6075
25210SOL    HW293623   4.428   4.221   0.155 -0.3566 -1.0410 -0.4131
25211SOL     OW93624   0.718  10.484  10.276 -0.4052  0.1385  0.1422
25211SOL    HW193625   0.678  10.454  10.357  0.3006 -1.3403 -0.0081
25211SOL    HW293626   0.802  10.439  10.273 -0.1748  0.6098 -1.1266
25212SOL     OW93627   1.600   9.143   7.069 -0.0345 -0.3029  0.7500
25212SOL    HW193628   1.591   9.143   7.164 -1.0361 -0.0482  0.6682
25212SOL    HW293629   1.515   9.171   7.037 -0.2975 -2.0981 -0.2839
25213SOL     OW93630   5.549  12.829   0.794 -0.0251  0.2443 -0.4472
25213SOL    HW193631   5.539  12.924   0.791  2.0360  0.4916 -0.8457
25213SOL    HW293632   5.533  12.806   0.886  0.0010  1.0431 -0.2344
25214SOL     OW93633  13.790   9.556   8.992  0.2610 -0.4753 -0.2171
25214SOL    HW193634  13.728   9.534   8.922 -0.2793  1.4828 -0.4196
25214SOL    HW293635  13.875   9.559   8.948 -0.0205  0.3412 -0.7282
25215SOL     OW93636   5.475   8.824  11.351  0.1542 -0.3176 -0.0345
25215SOL    HW193637   5.525   8.850  11.429 -0.0691  0.7505 -0.2292
25215SOL    HW293638   5.405   8.769  11.385 -1.1229  1.7166  0.8064
25216SOL     OW93639   2.899   7.005  10.638  0.3594 -0.8560  0.2777
25216SOL    HW193640   2.967   6.992  10.571  0.6289  0.0057  0.3805
25216SOL    HW293641   2.843   7.074  10.602 -0.0912 -1.1036  0.4924
25217SOL     OW93642  12.758  10.237   9.062 -0.3241 -0.3272 -0.4409
25217SOL    HW193643  12.688  10.172   9.062 -0.7048  0.0613 -1.5601
25217SOL    HW293644  12.713  10.321   9.067  0.1653 -0.1302  1.0090
25218SOL     OW93645   5.774   4.710   4.008  0.6388 -0.3772 -0.2639
25218SOL    HW193646   5.697   4.661   3.978  0.5580 -0.7993  0.5796
25218SOL    HW293647   5.746   4.801   4.008  0.4543 -0.4311 -0.8839
25219SOL     OW93648  10.475   2.781   7.463  0.6302 -0.7716  0.0330
25219SOL    HW193649  10.507   2.798   7.375 -1.9314  0.8997 -0.6763
25219SOL    HW293650  10.386   2.749   7.451  0.0461 -0.0786  2.0413
25220SOL     OW93651  13.565   0.017   3.764  0.2334  0.1749  0.7922
25220SOL    HW193652  13.610  -0.041   3.825  0.6911  0.3972  0.6695
25220SOL    HW293653  13.482  -0.027   3.746  0.2843 -0.1069  1.2278
25221SOL     OW93654   8.379  10.223   3.610  0.2050  0.4722  0.0066
25221SOL    HW193655   8.317  10.290   3.579 -0.8127 -0.7389 -0.6360
25221SOL    HW293656   8.411  10.258   3.693 -0.3258  1.7488 -0.2873
25222SOL     OW93657  10.688   6.837   0.801  0.4700 -0.5936  0.2278
25222SOL    HW193658  10.739   6.842   0.720  1.0508  0.6833  0.6483
25222SOL    HW293659  10.749   6.864   0.870 -0.6455  0.5686  0.7977
25223SOL     OW93660   9.705  13.900   8.136  0.0891 -0.3023 -0.3015
25223SOL    HW193661   9.655  13.819   8.143 -1.7152  0.8157  0.4775
25223SOL    HW293662   9.696  13.926   8.044 -0.7393 -0.1518 -0.1895
25224SOL     OW93663  10.385   5.849   9.976  0.2187 -0.0818  0.1017
25224SOL    HW193664  10.458   5.909   9.960  0.0803 -0.0386 -0.3966
25224SOL    HW293665  10.316   5.903  10.014  0.6431 -0.2335  1.1108
25225SOL     OW93666   2.667  13.958   6.141  0.3248  0.3801 -0.7177
25225SOL    HW193667   2.676  13.874   6.096 -0.3332  1.5704 -3.2656
25225SOL    HW293668   2.573  13.977   6.136  0.1817  0.4940  1.4488
25226SOL     OW93669  11.687   3.760   4.610 -0.0262 -0.1200 -0.1278
25226SOL    HW193670  11.772   3.804   4.596 -0.4544  1.3732  1.5443
25226SOL    HW293671  11.634   3.788   4.535  0.8039 -0.7521 -0.9889
25227SOL     OW93672   7.831  10.226  13.516 -0.0691  0.0054  0.5582
25227SOL    HW193673   7.869  10.253  13.432 -1.2261 -1.6825 -0.5723
25227SOL    HW293674   7.796  10.307  13.553  0.7564  0.8421 -0.4055
25228SOL     OW93675  14.030   2.675   2.566 -0.6198  0.1492  0.2635
25228SOL    HW193676  13.958   2.618   2.538  1.1535 -1.7416 -0.7227
25228SOL    HW293677  14.060   2.716   2.485  0.8874 -0.9243  0.2452
25229SOL     OW93678  10.432  13.928  11.906  0.5235  0.0515  0.0627
25229SOL    HW193679  10.350  13.977  11.902  0.9257  0.6639 -1.2950
25229SOL    HW293680  10.481  13.956  11.828  1.6656 -0.9295  0.3928
25230SOL     OW93681   6.844   9.622   5.583 -0.3308 -0.3689 -0.0370
25230SOL    HW193682   6.769   9.670   5.618  0.2829 -0.0978  0.9373
25230SOL    HW293683   6.914   9.686   5.579  0.1670 -0.8979  0.1366
25231SOL     OW93684   0.082   1.168  11.536 -0.2924  0.1109  0.1836
25231SOL    HW193685   0.027   1.241  11.510  1.6775  1.0358 -1.7181
25231SOL    HW293686   0.171   1.199  11.523  0.6374 -2.3435  0.1270
25232SOL     OW93687   7.481   5.787   3.158 -0.1654  0.3340  0.1361
25232SOL    HW193688   7.468   5.836   3.239  1.2016  1.7539 -0.4454
25232SOL    HW293689   7.496   5.855   3.091  1.0094 -0.8361 -0.8471
25233SOL     OW93690   1.470   0.572  12.496 -0.1145 -0.2358 -0.0251
25233SOL    HW193691   1.544   0.605  12.546 -0.2853  3.0300 -1.6995
25233SOL    HW293692   1.394   0.619  12.530 -0.9958 -1.3911 -0.2948
25234SOL     OW93693  10.619   7.962  11.686  0.0147 -0.6990  0.4170
25234SOL    HW193694  10.553   7.894  11.689 -0.2576 -0.6084 -1.7859
25234SOL    HW293695  10.698   7.918  11.654 -0.3370  0.0730 -1.6570
25235SOL     OW93696   5.453  10.228   7.823  0.4069 -0.0998  0.0685
25235SOL    HW193697   5.451  10.201   7.915  1.1662  1.8279  0.6939
25235SOL    HW293698   5.381  10.180   7.783  1.4376 -2.7662  1.1263
25236SOL     OW93699  11.810   0.200   3.809  0.3539 -0.2011 -0.0668
25236SOL    HW193700  11.811   0.291   3.778 -2.1318 -0.7140 -2.0015
25236SOL    HW293701  11.719   0.185   3.834  0.7130 -2.1986  0.1714
25237SOL     OW93702   6.249  11.124  11.530  0.6457 -0.2865  0.0844
25237SOL    HW193703   6.196  11.183  11.585 -0.1603  0.7010 -1.6739
25237SOL    HW293704   6.339  11.152  11.546  0.4953 -0.5392  1.4819
25238SOL     OW93705   5.139   8.084   6.090 -0.4758  0.4034  0.3984
25238SOL    HW193706   5.128   8.127   6.175 -1.8274  1.1107 -0.0919
25238SOL    HW293707   5.146   8.157   6.028 -1.1470 -0.0789 -0.2589
25239SOL     OW93708  13.449   4.329  10.686  0.0980  0.1649 -0.1556
25239SOL    HW193709  13.475   4.414  10.724  0.0380  0.2375 -0.2767
25239SOL    HW293710  13.356   4.340  10.667 -0.4439 -0.6401  1.7969
25240SOL     OW93711  11.131  13.702   4.888 -0.4170  0.4925  0.9451
25240SOL    HW193712  11.079  13.692   4.968 -0.9430 -0.2954  0.5175
25240SOL    HW293713  11.091  13.641   4.826  0.0010  1.0802  0.0871
25241SOL     OW93714  13.661   1.081   7.820 -0.3495  0.5784 -0.1265
25241SOL    HW193715  13.661   1.105   7.727 -0.7731  0.7144 -0.0925
25241SOL    HW293716  13.748   1.108   7.851  0.0636 -0.1198 -0.6473
25242SOL     OW93717  14.041  11.709   6.992 -0.2777 -0.1538 -0.7544
25242SOL    HW193718  14.013  11.617   6.994  1.1691 -0.6308 -0.8188
25242SOL    HW293719  14.017  11.739   6.905 -0.3112 -0.6335 -0.9176
25243SOL     OW93720  11.560   1.882  11.206  0.0946  0.0347  0.1846
25243SOL    HW193721  11.491   1.851  11.148 -0.7168 -0.2313  1.2609
25243SOL    HW293722  11.605   1.802  11.235  0.1012  0.1144  0.3981
25244SOL     OW93723   9.935   9.931   6.677 -0.3126  0.0115  0.1567
25244SOL    HW193724   9.900   9.990   6.611 -1.5206 -0.2091  0.5818
25244SOL    HW293725   9.998   9.877   6.630 -0.7304  0.2515 -0.6881
25245SOL     OW93726   0.784   6.632   8.488 -0.2464  0.0824 -0.5635
25245SOL    HW193727   0.833   6.621   8.406  0.4367  1.4187 -0.3629
25245SOL    HW293728   0.705   6.680   8.462 -1.3767 -1.8381 -0.8432
25246SOL     OW93729   8.848   8.881  11.965 -0.1856 -0.0802 -0.0108
25246SOL    HW193730   8.857   8.960  11.912  0.1477 -0.1455 -0.0517
25246SOL    HW293731   8.757   8.853  11.951 -0.2195  0.1340 -0.2207
25247SOL     OW93732  10.810   5.065   2.664 -0.2726 -0.0776  0.0677
25247SOL    HW193733  10.731   5.026   2.702 -1.2816  1.2688 -0.5872
25247SOL    HW293734  10.807   5.156   2.693  1.0370 -0.0013 -0.0022
25248SOL     OW93735  11.480   4.102   1.477 -0.8532 -0.3346  0.5186
25248SOL    HW193736  11.431   4.116   1.396 -0.1686  1.6462  0.3823
25248SOL    HW293737  11.503   4.190   1.507  0.4091 -1.0900  1.9507
25249SOL     OW93738   6.863  14.094  12.185  0.0619 -0.8066  0.5792
25249SOL    HW193739   6.945  14.118  12.228  0.5564  0.2954 -0.8861
25249SOL    HW293740   6.890  14.037  12.113 -0.4478 -0.4603  0.1071
25250SOL     OW93741   7.502   0.054  13.790 -0.0395 -0.0141 -0.4288
25250SOL    HW193742   7.577   0.034  13.846  1.0922  1.3233 -1.4209
25250SOL    HW293743   7.486  -0.027  13.742 -1.1477 -1.2684  1.8579
25251SOL     OW93744   6.883   8.940   0.699 -0.0361  0.4630  0.1852
25251SOL    HW193745   6.951   8.913   0.637  0.2390  0.4753  0.4749
25251SOL    HW293746   6.821   8.868   0.701 -0.5913  0.9001 -0.8760
25252SOL     OW93747  11.557  13.664   0.507  0.2506  0.5634 -0.3181
25252SOL    HW193748  11.638  13.617   0.486 -1.1676 -1.8630 -0.7000
25252SOL    HW293749  11.516  13.680   0.423 -1.1495 -1.1155 -0.0121
25253SOL     OW93750  11.090   2.991   8.771  0.3776  0.0430  0.5169
25253SOL    HW193751  11.105   2.974   8.864  1.8001  0.2943  0.3422
25253SOL    HW293752  11.030   2.921   8.744 -0.3446  0.1773  1.6872
25254SOL     OW93753   6.797   6.759   3.623  0.0167  0.0349  0.1370
25254SOL    HW193754   6.882   6.714   3.622 -0.5788 -1.1149 -0.2524
25254SOL    HW293755   6.819   6.852   3.633  1.3813 -0.1052 -1.2324
25255SOL     OW93756   6.507  10.019   5.524  0.3616  0.1036 -0.1009
25255SOL    HW193757   6.539   9.929   5.525 -0.9597 -0.4032  2.2503
25255SOL    HW293758   6.564  10.065   5.586  0.1556  0.5484 -0.2395
25256SOL     OW93759   0.786   7.561  11.514 -1.0058 -0.0965 -0.0297
25256SOL    HW193760   0.790   7.542  11.420 -0.2429 -0.9347  0.1531
25256SOL    HW293761   0.837   7.641  11.525  0.9473 -1.2584 -0.0601
25257SOL     OW93762   5.835  10.817  13.887  0.4160  0.1776 -0.1674
25257SOL    HW193763   5.764  10.879  13.905  2.8701  3.8487 -1.8460
25257SOL    HW293764   5.800  10.760  13.819 -1.3956  0.8600  0.1248
25258SOL     OW93765  11.584   7.666  13.819 -0.1277 -0.4032  0.6035
25258SOL    HW193766  11.637   7.682  13.741 -0.0906 -1.4458  0.4039
25258SOL    HW293767  11.499   7.706  13.800 -0.4684 -1.5678 -0.4194
25259SOL     OW93768   5.528   1.901   5.183  0.7192 -0.6801 -0.1714
25259SOL    HW193769   5.500   1.912   5.274  3.3063 -0.9116  0.7538
25259SOL    HW293770   5.469   1.957   5.132 -1.0049 -0.8077  1.5962
25260SOL     OW93771   9.715  13.957  10.358 -0.4982 -0.0195  0.1108
25260SOL    HW193772   9.702  14.037  10.409 -0.5620 -0.3351  0.5980
25260SOL    HW293773   9.667  13.890  10.406 -1.0548 -0.2094 -0.6867
25261SOL     OW93774   9.782   9.825   3.247  0.1441  0.1625 -0.3169
25261SOL    HW193775   9.693   9.820   3.214 -1.6857  3.9717  3.0538
25261SOL    HW293776   9.815   9.908   3.214  0.8381  0.7022  1.5814
25262SOL     OW93777   9.112   8.031   3.330  0.1408  0.1673 -0.4032
25262SOL    HW193778   9.164   8.003   3.405 -0.1747  1.3132  0.2551
25262SOL    HW293779   9.033   8.069   3.368 -0.0916  0.6234 -1.3191
25263SOL     OW93780   8.873   5.584   2.985  0.6257 -0.5755 -0.1070
25263SOL    HW193781   8.823   5.523   2.931 -0.3325  0.7456 -0.7532
25263SOL    HW293782   8.862   5.550   3.074 -1.3361 -0.4234 -0.2379
25264SOL     OW93783  12.293   5.748  12.532 -0.3109 -0.2199 -0.4585
25264SOL    HW193784  12.247   5.802  12.466 -2.1310  0.5922  1.3589
25264SOL    HW293785  12.385   5.773  12.523 -0.6480  0.6648 -1.9423
25265SOL     OW93786  10.943   3.263   8.814 -0.5731  0.1385 -0.3722
25265SOL    HW193787  10.945   3.224   8.901 -2.2369 -0.0854 -0.4021
25265SOL    HW293788  11.026   3.237   8.774 -0.5270 -1.2035  0.5379
25266SOL     OW93789   7.613  10.288   2.695 -0.9505 -0.7737  0.1440
25266SOL    HW193790   7.613  10.270   2.601 -2.3000  2.2304 -0.5464
25266SOL    HW293791   7.529  10.255   2.726 -1.6496  0.5423 -0.2847
25267SOL     OW93792  13.452   2.980   6.097 -0.5037 -0.1862 -0.3053
25267SOL    HW193793  13.472   3.002   6.006 -1.2213  0.1415 -0.3921
25267SOL    HW293794  13.380   3.038   6.120 -0.6641 -0.6229  0.3152
25268SOL     OW93795   9.711   7.001  10.905  0.2956  0.8451  0.0451
25268SOL    HW193796   9.697   6.937  10.836 -0.1669  3.1914 -2.1724
25268SOL    HW293797   9.736   7.082  10.860  1.6334  2.0845  2.7285
25269SOL     OW93798  11.314   6.615   3.734  0.5718  0.5920 -0.4977
25269SOL    HW193799  11.320   6.520   3.726  1.7066  0.7160 -1.4745
25269SOL    HW293800  11.224   6.636   3.712  0.2878 -0.2625 -0.1813
25270SOL     OW93801   8.267   5.401   8.297  0.5650  0.1803 -0.6829
25270SOL    HW193802   8.356   5.368   8.304  0.3584 -0.3846 -0.6805
25270SOL    HW293803   8.211   5.324   8.311  0.0796  0.4759 -0.9542
25271SOL     OW93804   6.250   3.278   5.914  0.3564  0.3741  0.6292
25271SOL    HW193805   6.268   3.364   5.876  0.0534  0.5417  0.8585
25271SOL    HW293806   6.162   3.286   5.951  0.7678  0.3131  1.6535
25272SOL     OW93807   7.277   0.541   3.400  0.4310 -0.2635  0.1983
25272SOL    HW193808   7.199   0.498   3.366  0.9473 -0.6066 -0.5725
25272SOL    HW293809   7.244   0.599   3.469 -0.4270 -0.8568  0.3043
25273SOL     OW93810  11.945   4.369   6.471 -0.5525 -0.2278 -0.0516
25273SOL    HW193811  12.012   4.353   6.538  0.3167 -1.2440 -1.1074
25273SOL    HW293812  11.983   4.332   6.392 -1.1181  1.8005 -1.3499
25274SOL     OW93813   7.499   5.632  14.078 -0.0425 -0.4404  0.3831
25274SOL    HW193814   7.553   5.555  14.066  0.2965 -0.1825  0.2251
25274SOL    HW293815   7.415   5.599  14.111 -0.7779 -1.1396 -1.9874
25275SOL     OW93816   9.558   8.020   0.607  0.0981 -0.1960 -0.5590
25275SOL    HW193817   9.506   8.020   0.688 -0.5289 -0.3391 -0.9550
25275SOL    HW293818   9.564   7.928   0.583  1.7068 -0.3180  0.2087
25276SOL     OW93819  11.576   6.672   5.180 -0.0807 -0.5233  0.6956
25276SOL    HW193820  11.490   6.707   5.202 -0.0221 -0.5037  0.8894
25276SOL    HW293821  11.599   6.717   5.098  0.3654  0.5324  1.3862
25277SOL     OW93822   7.680   1.925   8.132  0.2013 -0.3318  0.4917
25277SOL    HW193823   7.745   1.872   8.179 -1.3500 -2.2978  0.5635
25277SOL    HW293824   7.694   1.905   8.040  1.9154  1.9645  0.1772
25278SOL     OW93825   4.260   8.698  12.721 -0.1802 -0.3180  0.4629
25278SOL    HW193826   4.218   8.678  12.804  2.5378  0.1586  2.0705
25278SOL    HW293827   4.287   8.790  12.729  1.0068 -0.5543 -0.5218
25279SOL     OW93828   7.972   8.960   4.219  0.0407 -0.3755  0.1782
25279SOL    HW193829   7.956   8.986   4.129 -0.9884 -0.3141  0.3689
25279SOL    HW293830   8.060   8.993   4.239 -1.0470  2.7624  0.3275
25280SOL     OW93831  11.628  10.740   3.634  0.5300 -0.1548 -0.0932
25280SOL    HW193832  11.551  10.770   3.586 -0.4615  0.6396  1.8792
25280SOL    HW293833  11.616  10.775   3.723  2.0988 -1.7995  0.8346
25281SOL     OW93834  12.811   6.681   5.941  0.0637 -0.0249 -0.0958
25281SOL    HW193835  12.815   6.760   5.995 -0.2289  0.1835 -0.3795
25281SOL    HW293836  12.882   6.626   5.974  0.5846  0.5635 -0.2248
25282SOL     OW93837   7.094  13.368   7.270 -0.2251 -0.6250  0.1046
25282SOL    HW193838   7.020  13.403   7.220 -1.2601 -2.7614  0.0368
25282SOL    HW293839   7.063  13.365   7.360  0.0687 -0.8232  0.2007
25283SOL     OW93840   8.914  11.999   6.693 -0.3539  0.6809  0.0831
25283SOL    HW193841   8.829  11.980   6.733 -0.3219  1.6657  0.6685
25283SOL    HW293842   8.918  11.943   6.616 -0.2008 -1.7136  1.7064
25284SOL     OW93843   9.491   5.468   5.067 -0.5245 -0.0006 -0.6826
25284SOL    HW193844   9.559   5.410   5.032  1.0961  2.1519 -1.3410
25284SOL    HW293845   9.410   5.440   5.023 -0.2804 -3.0288  0.5699
25285SOL     OW93846  13.080  10.072   5.993  0.1406 -0.1883  0.0461
25285SOL    HW193847  13.130  10.101   6.070 -1.2561 -0.0955  0.9563
25285SOL    HW293848  13.003  10.028   6.030  0.0529 -1.2409 -1.3116
25286SOL     OW93849   8.546   9.479   9.122 -0.3448  0.0962 -0.2071
25286SOL    HW193850   8.544   9.572   9.101  0.6735  0.1593 -0.0637
25286SOL    HW293851   8.591   9.439   9.048  1.1452  0.0128  0.7214
25287SOL     OW93852   7.714   8.585  13.532 -0.6777  0.4154  0.1703
25287SOL    HW193853   7.761   8.562  13.613  2.2397 -2.1103 -2.0123
25287SOL    HW293854   7.770   8.650  13.490  0.0141 -1.1971 -1.5613
25288SOL     OW93855  13.336   3.556   6.514  0.6568  0.5384 -0.4503
25288SOL    HW193856  13.371   3.627   6.567  0.1128  0.7019 -0.2989
25288SOL    HW293857  13.412   3.505   6.489  0.9605  0.6438  0.2207
25289SOL     OW93858  10.833  11.273   4.377  0.0736 -0.3633  0.6128
25289SOL    HW193859  10.907  11.325   4.407 -0.1132  0.8668 -0.9361
25289SOL    HW293860  10.873  11.198   4.333  0.3490 -0.7769  1.5257
25290SOL     OW93861   0.609   4.200  13.302  0.5712 -0.2443 -0.1457
25290SOL    HW193862   0.646   4.144  13.370  0.2362 -0.3038 -0.0118
25290SOL    HW293863   0.528   4.157  13.276  0.5177 -0.0355 -0.3328
25291SOL     OW93864   8.735   4.718   8.244  0.6326  0.2528 -0.0083
25291SOL    HW193865   8.641   4.737   8.250  0.0056 -2.6341  1.0247
25291SOL    HW293866   8.771   4.754   8.325  0.3790  1.1019 -0.2612
25292SOL     OW93867  13.845   0.724   2.060 -0.7269 -0.0793  0.5389
25292SOL    HW193868  13.785   0.768   2.000 -0.1497  0.7616  0.5675
25292SOL    HW293869  13.912   0.686   2.003  0.4553  1.6784  0.6650
25293SOL     OW93870   9.494   8.875   6.804 -0.0368 -0.5189  0.0419
25293SOL    HW193871   9.489   8.970   6.817 -0.5468  0.0356 -3.2819
25293SOL    HW293872   9.404   8.845   6.810 -0.1854 -0.3661 -1.0948
25294SOL     OW93873  12.895  12.367   6.758  0.4405 -0.3776  0.4909
25294SOL    HW193874  12.803  12.345   6.768  0.3054  0.5007  1.3037
25294SOL    HW293875  12.895  12.454   6.719  0.8979  0.1939  1.7158
25295SOL     OW93876  13.411   9.123   3.044 -0.3603  0.2643 -0.2010
25295SOL    HW193877  13.414   9.088   3.134  1.5948  1.6722  0.3272
25295SOL    HW293878  13.321   9.104   3.015 -1.0732 -0.1775  2.0636
25296SOL     OW93879  11.791   1.049   6.814 -0.5304 -0.4540  0.0254
25296SOL    HW193880  11.834   1.122   6.858  0.8101 -1.2078  0.0272
25296SOL    HW293881  11.817   1.057   6.722  0.4089 -1.4229  0.1800
25297SOL     OW93882  13.279   2.034   5.968  0.3104  0.5750 -0.2956
25297SOL    HW193883  13.366   2.071   5.985  1.0443 -0.8677 -0.7485
25297SOL    HW293884  13.272   1.959   6.027  0.2550 -0.5767 -1.7016
25298SOL     OW93885   1.052   4.001   4.735 -0.4356 -0.2427  0.0532
25298SOL    HW193886   0.973   4.054   4.749 -0.2002 -0.0423  0.6584
25298SOL    HW293887   1.038   3.960   4.650  0.1213  2.1274 -1.2754
25299SOL     OW93888   5.549  10.664   8.093  0.4319 -0.7877 -0.0566
25299SOL    HW193889   5.581  10.720   8.164  1.5607 -2.6229  0.9684
25299SOL    HW293890   5.455  10.681   8.088  0.8377  1.7719 -0.3780
25300SOL     OW93891   9.644   0.659   0.163  0.1815 -0.1896 -0.2536
25300SOL    HW193892   9.698   0.584   0.138  1.2153  0.2423  0.6422
25300SOL    HW293893   9.706   0.724   0.197 -0.7657  0.8173 -0.3856
25301SOL     OW93894   3.267   5.164   2.610  0.1553 -0.1563 -0.1585
25301SOL    HW193895   3.219   5.134   2.533  2.0390  1.5145 -2.1039
25301SOL    HW293896   3.358   5.144   2.592  0.7437  1.0299  1.2658
25302SOL     OW93897   1.429  10.817   0.252 -0.3965 -0.5461  0.5686
25302SOL    HW193898   1.423  10.912   0.262  1.7668 -0.2883 -0.0687
25302SOL    HW293899   1.389  10.782   0.332 -0.6391  0.9087  1.1131
25303SOL     OW93900  12.291   4.970   6.009  0.4077  0.5229  0.0982
25303SOL    HW193901  12.242   5.017   5.942  0.4332  0.5757  0.1156
25303SOL    HW293902  12.364   5.028   6.030  0.9796  0.0566 -0.5556
25304SOL     OW93903   6.330   2.954   1.021 -0.0608 -0.2206  0.0746
25304SOL    HW193904   6.404   2.913   0.977  0.8402 -0.5458  1.8210
25304SOL    HW293905   6.302   2.889   1.086 -0.3886  0.8279  1.0085
25305SOL     OW93906   9.986   8.443  12.412 -0.2678  0.0775  0.0251
25305SOL    HW193907   9.927   8.374  12.381  1.1619 -0.9433 -0.5482
25305SOL    HW293908  10.030   8.405  12.488  0.1065  0.5926  0.0721
25306SOL     OW93909   6.599   0.525   1.748 -0.4249  0.1997 -0.4727
25306SOL    HW193910   6.532   0.482   1.695  0.0564  0.2699 -1.1425
25306SOL    HW293911   6.633   0.455   1.804  0.8373 -0.4906 -2.0413
25307SOL     OW93912   7.942   3.288   2.893  0.4111 -0.2445  0.1986
25307SOL    HW193913   7.938   3.206   2.844 -0.5822  0.0729 -0.2993
25307SOL    HW293914   8.020   3.281   2.948  1.4263 -0.7119 -1.2576
25308SOL     OW93915  10.492   7.643  10.023 -0.1141 -0.2788  0.3381
25308SOL    HW193916  10.495   7.647  10.119 -1.5231  0.3558  0.3881
25308SOL    HW293917  10.463   7.730   9.996 -0.4953 -0.6845 -0.6126
25309SOL     OW93918   1.557  14.093  10.582 -0.0884  0.0340 -0.1198
25309SOL    HW193919   1.587  14.163  10.524 -2.3368  0.6446 -0.6591
25309SOL    HW293920   1.555  14.132  10.669 -0.0658  0.2250 -0.2060
25310SOL     OW93921  12.981   3.747   0.805  0.0466 -0.4018  0.4489
25310SOL    HW193922  12.890   3.771   0.822  1.1123  1.5945  4.4012
25310SOL    HW293923  12.999   3.677   0.868  1.6792  0.4277  0.9501
25311SOL     OW93924   4.674   9.637  12.618 -0.3528 -0.4587  0.4140
25311SOL    HW193925   4.697   9.546  12.599 -1.0825 -0.4624 -0.4829
25311SOL    HW293926   4.670   9.679  12.532  2.0173  0.9456  0.8938
25312SOL     OW93927   0.070  10.985   3.655  0.3642 -0.6436 -0.2353
25312SOL    HW193928  -0.009  10.952   3.697 -0.9771 -0.0090 -2.1300
25312SOL    HW293929   0.127  10.908   3.648  0.5017 -0.8471  2.2800
25313SOL     OW93930   5.559   4.836   5.959 -0.1432  0.3449  0.3643
25313SOL    HW193931   5.502   4.774   6.003  1.0279  1.2892  3.4735
25313SOL    HW293932   5.647   4.800   5.969  0.3153  1.3411  0.1072
25314SOL     OW93933   7.795   7.260   1.886  0.1880 -0.3221  0.1293
25314SOL    HW193934   7.818   7.344   1.925  1.9668  0.1815 -1.8576
25314SOL    HW293935   7.727   7.225   1.944 -0.1987  2.1910  1.3314
25315SOL     OW93936  11.354   0.929  12.433 -0.3657  0.3136  0.1992
25315SOL    HW193937  11.401   0.977  12.365 -0.0754 -0.1336  0.0774
25315SOL    HW293938  11.376   0.837  12.417 -0.6035  0.1723  0.6615
25316SOL     OW93939   0.127  11.053   8.677 -0.0476 -0.4026 -0.0979
25316SOL    HW193940   0.118  11.139   8.635  0.6970 -0.9041 -1.3456
25316SOL    HW293941   0.220  11.031   8.666 -0.2617 -1.4475  0.0543
25317SOL     OW93942   4.399  11.715  11.097 -0.0935  0.0415 -0.0423
25317SOL    HW193943   4.361  11.802  11.113 -0.5277 -0.2084  0.3174
25317SOL    HW293944   4.324  11.662  11.068 -0.4316 -0.9358  2.3559
25318SOL     OW93945  11.441   8.218   6.182  0.1865 -0.3128 -0.8299
25318SOL    HW193946  11.355   8.258   6.181  0.6542  0.9404  1.6318
25318SOL    HW293947  11.502   8.291   6.196  1.5026 -1.3296 -1.0340
25319SOL     OW93948   8.588   6.351   4.455 -0.4473 -0.0820  0.2246
25319SOL    HW193949   8.629   6.379   4.536 -0.2541  0.8626 -0.1850
25319SOL    HW293950   8.660   6.316   4.402 -0.7499 -1.8205  0.8980
25320SOL     OW93951   4.995   4.618   7.926 -0.0465  0.5542  0.2599
25320SOL    HW193952   5.081   4.591   7.960 -0.1845 -1.1596 -0.6194
25320SOL    HW293953   5.014   4.662   7.844  0.0161  0.5401  0.2668
25321SOL     OW93954   3.084   9.211   3.302 -0.2735  0.1894  0.2286
25321SOL    HW193955   2.999   9.231   3.263 -2.2373 -1.8910  3.0919
25321SOL    HW293956   3.097   9.280   3.367 -0.1310  0.0878  0.3069
25322SOL     OW93957   7.568   0.636  10.989 -0.2178 -0.4824  0.5228
25322SOL    HW193958   7.592   0.637  10.896  0.1063  1.4639  0.5900
25322SOL    HW293959   7.474   0.618  10.989 -0.7065  1.7990 -0.3626
25323SOL     OW93960   0.177   8.073   7.840 -0.2055  0.1437 -0.1056
25323SOL    HW193961   0.259   8.118   7.860  0.0405 -0.6999  0.8739
25323SOL    HW293962   0.114   8.143   7.824  0.4912  0.8076 -0.0012
25324SOL     OW93963   0.904   4.107  11.370  0.3107  0.2420 -0.0042
25324SOL    HW193964   0.911   4.153  11.286 -0.1819 -0.7875 -0.6208
25324SOL    HW293965   0.811   4.108  11.391  0.4264  0.4526  0.5121
25325SOL     OW93966  13.183  11.991   3.603  0.0971  0.5771 -0.0250
25325SOL    HW193967  13.157  11.924   3.666 -1.4219 -1.6396 -2.7708
25325SOL    HW293968  13.246  12.045   3.651 -0.2489 -1.4523  3.0552
25326SOL     OW93969   5.445  10.756   5.983  0.1661  0.2372 -0.3549
25326SOL    HW193970   5.521  10.807   5.953 -0.4150 -0.3720 -3.1747
25326SOL    HW293971   5.433  10.690   5.915 -2.5617 -0.0416  0.2911
25327SOL     OW93972   2.248   9.471  10.401 -0.8101  0.2668  0.4947
25327SOL    HW193973   2.214   9.529  10.333 -0.5946 -1.6425 -1.3619
25327SOL    HW293974   2.321   9.519  10.440 -0.8554  1.3815 -0.7195
25328SOL     OW93975   3.729   8.213   9.162 -0.1561  0.3470 -0.6710
25328SOL    HW193976   3.801   8.232   9.102  0.2989 -0.4393 -0.3928
25328SOL    HW293977   3.770   8.204   9.247 -0.3959 -1.2448 -0.6838
25329SOL     OW93978   7.258   9.454  13.134 -0.2409  0.1528  0.0066
25329SOL    HW193979   7.169   9.437  13.166 -0.3801  2.6165  1.1161
25329SOL    HW293980   7.315   9.414  13.199 -0.4906 -0.9977 -0.4487
25330SOL     OW93981   8.056   9.123   9.783  0.1204 -0.1437  0.2742
25330SOL    HW193982   8.113   9.048   9.803 -0.6939 -0.7035  0.5463
25330SOL    HW293983   8.003   9.094   9.709 -0.1024  0.2217  0.2880
25331SOL     OW93984  12.369   9.551   1.864  0.3120 -0.2805  0.7127
25331SOL    HW193985  12.414   9.611   1.924  0.5097  0.0526  0.2336
25331SOL    HW293986  12.356   9.601   1.784  0.0373 -0.7189  0.4777
25332SOL     OW93987  12.474  10.512   4.616  0.0066  0.3380  0.1739
25332SOL    HW193988  12.415  10.555   4.553 -0.0462 -1.0755 -0.7853
25332SOL    HW293989  12.501  10.582   4.675 -2.0746  1.1833  0.2116
25333SOL     OW93990   7.971   8.646   0.251 -0.6077  0.8852  0.1574
25333SOL    HW193991   8.013   8.638   0.165 -2.0426  0.1234 -0.5131
25333SOL    HW293992   7.883   8.611   0.237 -0.3186 -0.8987  2.3755
25334SOL     OW93993   4.186   1.872   3.799  0.1053 -0.1500 -0.2109
25334SOL    HW193994   4.276   1.858   3.828  0.2843  0.5057 -0.4413
25334SOL    HW293995   4.141   1.790   3.821  0.8325 -0.6107 -0.4034
25335SOL     OW93996  13.625  11.022  10.932  0.7276  1.0996 -0.0109
25335SOL    HW193997  13.631  11.050  10.841 -1.5008 -2.5028 -1.5054
25335SOL    HW293998  13.538  11.049  10.961  0.5366  0.2776  0.2245
25336SOL     OW93999   6.938   2.906   4.829 -0.0346 -0.1168  0.3401
25336SOL    HW194000   7.008   2.931   4.769  1.2345 -1.8614  1.0324
25336SOL    HW294001   6.859   2.944   4.790  1.4019  3.0405  0.2196
25337SOL     OW94002   5.957   9.361   0.618  0.0701 -0.1228  0.0531
25337SOL    HW194003   6.048   9.339   0.637  0.2136  0.2596 -0.1854
25337SOL    HW294004   5.929   9.415   0.691 -0.3838 -1.3348  0.8078
25338SOL     OW94005  13.438   9.921   7.579  0.1391 -0.3826 -0.1906
25338SOL    HW194006  13.472   9.920   7.489 -1.5810  0.3595 -0.8874
25338SOL    HW294007  13.516   9.915   7.634  1.4055  1.2374 -1.7002
25339SOL     OW94008  12.116   5.853   7.886 -0.5006 -0.5960  0.2293
25339SOL    HW194009  12.034   5.869   7.932 -0.8779 -0.0091 -0.6325
25339SOL    HW294010  12.090   5.808   7.805  0.1265 -1.3819  0.4542
25340SOL     OW94011   6.502  10.263  11.800  0.0664 -0.2611  0.6413
25340SOL    HW194012   6.596  10.272  11.782 -0.0794  0.0927  0.0330
25340SOL    HW294013   6.462  10.340  11.758 -0.5368 -0.6097  0.5625
25341SOL     OW94014   3.320   1.224   0.042  0.5990  0.1021  0.0485
25341SOL    HW194015   3.362   1.307   0.023  0.5087  0.5550  1.6907
25341SOL    HW294016   3.391   1.160   0.041  0.8003  0.3260 -0.3822
25342SOL     OW94017  11.447   5.833   0.872 -0.1939  0.0592  0.5550
25342SOL    HW194018  11.460   5.764   0.936  0.9700  0.4735  0.7959
25342SOL    HW294019  11.361   5.869   0.892 -1.2528 -1.9353 -0.1974
25343SOL     OW94020   1.972   5.801   7.481 -0.0160  0.4861 -0.2063
25343SOL    HW194021   1.897   5.850   7.514  0.8043  1.2773  0.5574
25343SOL    HW294022   1.960   5.798   7.386  0.1783  2.6538 -0.3370
25344SOL     OW94023  11.887  11.720   3.100 -0.0750 -0.3230  0.2046
25344SOL    HW194024  11.797  11.725   3.132 -0.1081  0.2977  0.0198
25344SOL    HW294025  11.879  11.676   3.015 -0.1570 -0.5910  0.3478
25345SOL     OW94026   2.076  14.112  11.348  0.4571 -0.1337  0.0805
25345SOL    HW194027   2.131  14.050  11.395  0.0387  1.5375  2.9860
25345SOL    HW294028   2.137  14.156  11.287  2.2173  0.9033  2.4273
25346SOL     OW94029   0.288   9.679   6.588  0.0945 -0.2082  0.0820
25346SOL    HW194030   0.304   9.740   6.516 -1.0559  1.3061  1.0215
25346SOL    HW294031   0.208   9.633   6.564  1.0459 -1.4851 -0.6960
25347SOL     OW94032   6.094   2.399   7.945  0.1710  0.0060  0.2358
25347SOL    HW194033   6.103   2.419   7.851 -0.1042  1.4227  0.4750
25347SOL    HW294034   6.116   2.307   7.953 -0.2461 -0.2546 -1.2973
25348SOL     OW94035   7.638   1.750   3.587  0.2003  0.2493  0.5958
25348SOL    HW194036   7.721   1.710   3.613  0.1317 -0.5163 -0.3213
25348SOL    HW294037   7.573   1.708   3.643 -0.0551 -1.9912 -1.2785
25349SOL     OW94038   1.282   7.417   4.960 -0.6973 -0.0794  0.5745
25349SOL    HW194039   1.339   7.358   5.010  0.8835 -1.4997 -2.5703
25349SOL    HW294040   1.230   7.358   4.905 -1.9007  1.3632  0.1218
25350SOL     OW94041   4.717  10.325   0.229 -0.1743  0.2673 -0.0825
25350SOL    HW194042   4.809  10.335   0.254  0.9034 -3.4053 -1.7615
25350SOL    HW294043   4.697  10.403   0.178  2.0436  1.1650  0.3180
25351SOL     OW94044   3.961   8.723   7.347 -0.0058 -1.0354 -0.3320
25351SOL    HW194045   3.961   8.640   7.393 -2.6932 -0.3701  1.0677
25351SOL    HW294046   3.993   8.786   7.412  1.0619 -0.8044 -1.0612
25352SOL     OW94047   1.087   9.879  11.032  0.1471  0.1666 -0.1824
25352SOL    HW194048   1.052   9.797  11.066 -0.5383  0.5906  0.1522
25352SOL    HW294049   1.031   9.946  11.069  0.7130  0.7938 -0.4402
25353SOL     OW94050  13.899   0.142   7.926  0.0249  0.7996  0.1203
25353SOL    HW194051  13.846   0.190   7.861 -2.0184  0.1360  1.1949
25353SOL    HW294052  13.951   0.081   7.873  0.3057  2.0059 -1.0503
25354SOL     OW94053  13.908   5.339  11.388 -0.3556  0.4006  0.2690
25354SOL    HW194054  13.984   5.311  11.440 -1.6396  0.5178  2.3189
25354SOL    HW294055  13.929   5.429  11.361  0.3921  0.2924  0.4592
25355SOL     OW94056   9.458  11.773   5.683  0.0662 -0.7925 -0.3251
25355SOL    HW194057   9.441  11.793   5.591  0.8008 -0.8722 -0.4895
25355SOL    HW294058   9.504  11.690   5.681  0.8645 -0.3705  0.0470
25356SOL     OW94059   3.219   8.714  11.567 -0.2610  0.0802  0.4218
25356SOL    HW194060   3.237   8.783  11.503 -1.7225 -0.2274 -0.3642
25356SOL    HW294061   3.126   8.693  11.554  0.0683 -1.8083  0.8529
25357SOL     OW94062   4.235   2.413   0.334 -0.1905  0.3798  0.0625
25357SOL    HW194063   4.223   2.329   0.379 -2.9539  0.6824  0.0331
25357SOL    HW294064   4.273   2.389   0.250 -1.5822 -0.9649 -0.2346
25358SOL     OW94065   7.314   6.934   3.372  0.1418 -0.0484  0.0773
25358SOL    HW194066   7.351   6.999   3.312 -0.4789 -0.8099 -1.2007
25358SOL    HW294067   7.332   6.850   3.330  0.6459 -0.6978  1.5336
25359SOL     OW94068  10.412   0.217   2.177 -0.0393 -0.4658 -0.2531
25359SOL    HW194069  10.504   0.214   2.202 -0.1981 -2.6040  0.2690
25359SOL    HW294070  10.378   0.296   2.220  1.0931 -0.7637  1.2846
25360SOL     OW94071  10.497   8.393   1.573  0.3843 -0.4506  0.3158
25360SOL    HW194072  10.517   8.359   1.487 -1.8245 -1.1344 -0.0065
25360SOL    HW294073  10.423   8.340   1.603  1.1554 -0.2976  2.6805
25361SOL     OW94074  11.926   1.008   4.612 -0.2244 -0.1968 -0.0214
25361SOL    HW194075  11.963   1.021   4.699  1.9109 -5.1972  0.1766
25361SOL    HW294076  11.835   0.984   4.628 -0.3785  0.7279  0.5882
25362SOL     OW94077   0.167   5.715  12.636 -0.3892 -0.0935 -0.0559
25362SOL    HW194078   0.184   5.647  12.701  0.7060  0.1174 -0.0975
25362SOL    HW294079   0.252   5.758  12.624 -1.1316  1.5537  0.2756
25363SOL     OW94080   7.359   1.651  12.914  0.0106 -0.5038 -0.0255
25363SOL    HW194081   7.317   1.657  13.000  0.5938 -0.6727  0.2813
25363SOL    HW294082   7.291   1.676  12.852  0.0040  1.0849  0.5911
25364SOL     OW94083  11.875   3.832  13.867 -0.0504  0.5142  0.2805
25364SOL    HW194084  11.853   3.891  13.795 -1.3493  0.5641  0.6889
25364SOL    HW294085  11.870   3.745  13.829  0.9881  0.6177 -0.1057
25365SOL     OW94086   7.997   1.594   9.247  0.1333 -0.3000  0.4953
25365SOL    HW194087   8.023   1.510   9.285 -1.2599 -0.7120  0.6107
25365SOL    HW294088   7.903   1.600   9.265 -0.1621  0.4255 -1.1408
25366SOL     OW94089   1.225   0.080  12.152  0.4478 -0.3205  0.1715
25366SOL    HW194090   1.268   0.142  12.092  2.2770 -0.3427  1.3880
25366SOL    HW294091   1.229  -0.004  12.106 -0.6136  0.1234 -0.7977
25367SOL     OW94092   0.356   5.369  11.041 -0.6423  0.1423  0.1536
25367SOL    HW194093   0.444   5.405  11.052 -0.2198 -1.1108  1.1121
25367SOL    HW294094   0.315   5.425  10.975  1.5597 -0.4552 -1.8283
25368SOL     OW94095   3.746   2.548   0.992  0.4850  0.2472  0.0742
25368SOL    HW194096   3.654   2.575   0.990  0.7510  1.2563  0.9530
25368SOL    HW294097   3.752   2.489   1.067  0.4869 -0.1052 -0.1995
25369SOL     OW94098   0.753   9.767  13.491 -0.2275  0.1225 -0.1540
25369SOL    HW194099   0.773   9.843  13.546  0.0337 -0.1443  0.1197
25369SOL    HW294100   0.773   9.691  13.545 -0.5108 -0.1477 -0.4185
25370SOL     OW94101  10.394  12.869   3.702  0.3337  0.2590  0.5911
25370SOL    HW194102  10.465  12.842   3.643 -0.5014  0.1838 -0.4102
25370SOL    HW294103  10.421  12.836   3.788  3.0271  2.9010  0.9239
25371SOL     OW94104   3.013   0.988  12.230  0.0074  0.4950  0.4470
25371SOL    HW194105   2.945   0.990  12.163 -0.5423 -1.2373  0.8767
25371SOL    HW294106   3.094   0.970  12.182 -0.2244  0.2202  0.1538
25372SOL     OW94107   0.471   7.558   6.601  0.6297 -0.1314 -0.1371
25372SOL    HW194108   0.562   7.575   6.626 -0.1236 -0.4518  3.3689
25372SOL    HW294109   0.425   7.639   6.624 -0.3589 -0.9294  0.7818
25373SOL     OW94110   6.536   8.373   8.278  0.6463  0.5492 -0.4198
25373SOL    HW194111   6.568   8.449   8.231 -0.2246 -0.3396 -2.5899
25373SOL    HW294112   6.555   8.299   8.220 -1.1400 -0.5312  0.2931
25374SOL     OW94113   3.218  13.856  13.795 -0.0655 -0.0182  0.3834
25374SOL    HW194114   3.212  13.950  13.775 -1.8206 -0.0205  0.7749
25374SOL    HW294115   3.307  13.845  13.830  0.1976  1.4766  0.2692
25375SOL     OW94116   6.940  13.684   8.408  0.4637 -0.4953  0.3204
25375SOL    HW194117   6.998  13.761   8.415 -0.3279  0.1854 -0.4089
25375SOL    HW294118   6.852  13.720   8.414  0.0509 -1.2203 -1.0237
25376SOL     OW94119   7.169   7.203  12.405  0.0379  0.5904  0.6667
25376SOL    HW194120   7.120   7.169  12.330 -0.4654  1.3590  0.6266
25376SOL    HW294121   7.114   7.182  12.480  0.0657  0.6793  0.7121
25377SOL     OW94122   9.868   6.159  10.812  0.2680 -0.3451 -0.7871
25377SOL    HW194123   9.798   6.152  10.878  1.8843  1.2274  1.2303
25377SOL    HW294124   9.822   6.157  10.728 -1.9887 -1.4414  0.3931
25378SOL     OW94125   2.442   7.663   8.327 -0.1247  0.0263  0.0806
25378SOL    HW194126   2.420   7.624   8.242 -0.1916  0.3835 -0.0676
25378SOL    HW294127   2.468   7.753   8.306 -1.2711  0.4850  0.5612
25379SOL     OW94128   3.117  11.500  11.892 -0.5337  0.6128 -0.2527
25379SOL    HW194129   3.043  11.465  11.843 -1.8170  0.1850  1.8888
25379SOL    HW294130   3.162  11.558  11.829 -2.5940  0.8140 -1.6304
25380SOL     OW94131  13.272  10.279   3.058 -0.3931 -0.3149  0.1641
25380SOL    HW194132  13.183  10.246   3.067 -0.4887 -0.7568 -1.8228
25380SOL    HW294133  13.326  10.218   3.108 -1.1051 -0.5784  0.6181
25381SOL     OW94134  10.724  10.291   0.429  0.2246  0.4897  0.1269
25381SOL    HW194135  10.775  10.300   0.348  1.1692 -1.3485  0.4620
25381SOL    HW294136  10.782  10.243   0.489 -0.7708  1.0753  1.6172
25382SOL     OW94137   7.283   0.401   9.599 -0.4180  0.3513 -0.1957
25382SOL    HW194138   7.259   0.390   9.507  1.0264  0.8406 -0.6601
25382SOL    HW294139   7.199   0.405   9.645 -1.1642 -2.0544 -1.1935
25383SOL     OW94140  12.052   9.609   5.823  0.4799  0.1587  0.7549
25383SOL    HW194141  12.014   9.630   5.738  1.1480 -1.4240  0.0164
25383SOL    HW294142  11.990   9.644   5.887 -0.7280  0.1864 -0.3910
25384SOL     OW94143   1.653  11.209   1.263  0.1886  0.2980 -0.3584
25384SOL    HW194144   1.699  11.283   1.302  0.0455  0.7633 -1.0537
25384SOL    HW294145   1.723  11.150   1.235  0.2897 -0.1174  0.7233
25385SOL     OW94146  10.989   0.281  11.667 -0.5541 -0.5691  0.1994
25385SOL    HW194147  11.058   0.330  11.623 -0.4498 -0.1083  0.8515
25385SOL    HW294148  11.003   0.300  11.760 -1.1322 -1.0356  0.3857
25386SOL     OW94149   0.719   3.107   7.824 -0.3949 -0.0593  0.2325
25386SOL    HW194150   0.772   3.135   7.899  0.7515  0.6121 -0.7933
25386SOL    HW294151   0.687   3.020   7.848 -0.1000  0.1667  1.5223
25387SOL     OW94152  10.013  12.590   6.838  0.0102  0.3752 -0.3037
25387SOL    HW194153   9.979  12.559   6.922 -0.5048  2.5825  0.3721
25387SOL    HW294154  10.108  12.593   6.851 -0.0531  0.5358  0.1256
25388SOL     OW94155   8.485   5.138   1.677 -0.2590  0.6394  0.2629
25388SOL    HW194156   8.434   5.064   1.710  1.0011  0.1844  1.2836
25388SOL    HW294157   8.549   5.099   1.618  0.8750  0.7924  1.3508
25389SOL     OW94158   1.619   8.103   9.885 -0.1173 -0.5043  0.2791
25389SOL    HW194159   1.578   8.185   9.913 -1.7254 -1.8169  2.0804
25389SOL    HW294160   1.638   8.057   9.967  1.6792 -1.5414 -0.6539
25390SOL     OW94161  11.073   6.156   8.257 -0.2518  0.0220  0.2946
25390SOL    HW194162  11.008   6.211   8.299 -0.7095 -0.6049  0.4263
25390SOL    HW294163  11.071   6.074   8.306  0.3186 -0.1637  0.0221
25391SOL     OW94164   7.997   0.210   4.177  0.4022  0.5091 -0.2205
25391SOL    HW194165   7.932   0.166   4.232 -0.9163  3.6545  0.9603
25391SOL    HW294166   8.070   0.227   4.236  0.8974 -0.0717 -0.6607
25392SOL     OW94167   9.534   0.557   9.045  0.3929  0.3231 -0.3616
25392SOL    HW194168   9.440   0.547   9.032  0.0579 -0.6824  2.3451
25392SOL    HW294169   9.542   0.616   9.119  1.9733  1.3895 -1.3189
25393SOL     OW94170  11.546   1.953  11.706  0.4484 -0.9683 -0.3757
25393SOL    HW194171  11.620   1.944  11.767  0.5947  0.5672 -0.2969
25393SOL    HW294172  11.576   1.909  11.626  1.4205 -0.4582 -0.3113
25394SOL     OW94173   6.600   2.554   5.328  0.3046  0.2835 -0.0755
25394SOL    HW194174   6.605   2.461   5.306 -0.1354  0.2397 -0.0029
25394SOL    HW294175   6.665   2.566   5.398  0.3381  0.0242 -0.0619
25395SOL     OW94176   9.243  11.861   5.089 -0.4534  0.1993  0.4818
25395SOL    HW194177   9.336  11.878   5.073 -0.4733  1.7192  1.6954
25395SOL    HW294178   9.232  11.768   5.070  1.1701  0.1246 -0.2908
25396SOL     OW94179  14.102  11.229   0.323  0.0282  0.1405  0.5593
25396SOL    HW194180  14.177  11.172   0.338 -0.9735 -1.1775  0.7688
25396SOL    HW294181  14.049  11.221   0.403 -1.9424 -1.5492 -0.8239
25397SOL     OW94182   0.532  13.812   0.799 -0.2964  0.2770  0.4089
25397SOL    HW194183   0.528  13.884   0.736  0.8771 -0.0237 -0.0353
25397SOL    HW294184   0.624  13.787   0.801 -0.7821 -1.8142 -0.1476
25398SOL     OW94185   1.435  10.368  11.945  0.1062  0.7517 -0.1171
25398SOL    HW194186   1.530  10.382  11.948 -0.0248  1.8403 -0.7374
25398SOL    HW294187   1.397  10.453  11.963 -0.7445  0.6571 -1.3469
25399SOL     OW94188   6.844  12.506   9.684 -0.4387 -0.0083 -0.8080
25399SOL    HW194189   6.756  12.537   9.706 -0.4982 -1.1155  0.6972
25399SOL    HW294190   6.836  12.410   9.687  1.5523 -0.2230  2.8803
25400SOL     OW94191   4.185  11.238   1.280  0.7349  0.5199  0.4004
25400SOL    HW194192   4.133  11.243   1.200  0.3877  0.3417  0.6128
25400SOL    HW294193   4.258  11.179   1.258  0.8470  0.7645  0.1061
25401SOL     OW94194   9.748  12.182   4.623  0.2741  0.7155  0.0185
25401SOL    HW194195   9.761  12.152   4.713  1.5860 -0.6642 -0.5966
25401SOL    HW294196   9.654  12.203   4.618 -0.5142 -2.1875  0.8658
25402SOL     OW94197   6.577   4.639   3.233 -0.3807 -0.1025 -0.4807
25402SOL    HW194198   6.596   4.581   3.159  0.2097  0.3885 -0.7155
25402SOL    HW294199   6.633   4.608   3.303 -0.0177  0.2132 -0.6256
25403SOL     OW94200  10.846   2.816   9.589 -0.1244  0.0440  0.4991
25403SOL    HW194201  10.848   2.760   9.667  0.6191 -0.9176 -0.1759
25403SOL    HW294202  10.938   2.841   9.576 -0.3729  0.9439  0.4516
25404SOL     OW94203  12.044  13.917   5.141  0.6526 -0.2567 -0.1204
25404SOL    HW194204  11.958  13.879   5.120 -0.5767  1.4364  1.4977
25404SOL    HW294205  12.061  13.978   5.068 -0.3704  0.6400  0.3508
25405SOL     OW94206  12.351  12.609  14.067  0.7390 -0.1619 -0.1320
25405SOL    HW194207  12.399  12.654  13.998  1.0188 -0.8177 -0.3746
25405SOL    HW294208  12.417  12.557  14.113  0.2221 -1.3752 -0.7063
25406SOL     OW94209   8.724   5.640   0.084  0.0415 -0.3749  0.7671
25406SOL    HW194210   8.803   5.621   0.033  1.5752  1.7443  2.2114
25406SOL    HW294211   8.749   5.713   0.141 -3.0599  0.5853  1.0622
25407SOL     OW94212   1.654   4.056   5.713  0.1183 -0.2981 -0.3733
25407SOL    HW194213   1.559   4.049   5.724  0.0424  0.6910 -0.3704
25407SOL    HW294214   1.667   4.060   5.618  0.2854 -1.9049 -0.4577
25408SOL     OW94215   7.133  13.416   3.385 -0.2560 -0.3722  0.2068
25408SOL    HW194216   7.207  13.357   3.403 -0.4886 -0.2002  1.8783
25408SOL    HW294217   7.082  13.370   3.318 -0.4498 -2.1373  1.4812
25409SOL     OW94218   4.413  13.462   1.242  0.4428  0.5199 -0.1854
25409SOL    HW194219   4.381  13.440   1.329  1.2272  1.1238  0.2743
25409SOL    HW294220   4.493  13.410   1.232  0.3979  0.5109 -0.5130
25410SOL     OW94221   8.074  12.665  11.360 -0.2738  0.1197 -0.4059
25410SOL    HW194222   7.988  12.624  11.366 -0.1041 -0.2064 -0.1969
25410SOL    HW294223   8.077  12.701  11.272 -0.6944  0.2869 -0.3557
25411SOL     OW94224   0.135   7.815  10.258 -0.6441  0.1622  0.4356
25411SOL    HW194225   0.054   7.806  10.208 -0.4625 -3.7940  0.5721
25411SOL    HW294226   0.106   7.832  10.347 -1.3297 -0.3974  0.3305
25412SOL     OW94227  13.649   7.988   5.165  0.1537  0.0119 -0.3804
25412SOL    HW194228  13.564   8.017   5.199  0.1018 -1.7257  1.1222
25412SOL    HW294229  13.637   7.895   5.146  1.3118  0.0790 -1.6295
25413SOL     OW94230   7.277   5.307  13.288 -0.8863  0.2589  0.1125
25413SOL    HW194231   7.238   5.371  13.348 -1.8655 -0.9532  0.8326
25413SOL    HW294232   7.207   5.286  13.226 -0.6632 -0.2647  0.0251
25414SOL     OW94233   4.514  12.753   7.059 -0.2118  0.1884 -0.4077
25414SOL    HW194234   4.555  12.691   7.119 -0.7345 -0.7090 -0.9490
25414SOL    HW294235   4.465  12.813   7.115 -1.4747 -1.2156  0.0367
25415SOL     OW94236  12.326   1.073   0.623  0.0976  0.1834  0.0551
25415SOL    HW194237  12.307   0.983   0.596 -0.4249  0.4531 -0.4841
25415SOL    HW294238  12.247   1.122   0.601  0.3782  0.7748  0.3521
25416SOL     OW94239  10.020   5.959   2.698 -0.3747  0.2513  0.4213
25416SOL    HW194240   9.949   5.985   2.757  0.5472  0.7788  1.3406
25416SOL    HW294241  10.066   6.040   2.677 -1.7624  0.3655 -2.5782
25417SOL     OW94242   6.982   5.801   4.868 -0.1410 -0.7506  0.4247
25417SOL    HW194243   6.978   5.872   4.933 -0.4452 -1.3538  1.0692
25417SOL    HW294244   6.891   5.776   4.854 -0.0844 -0.5591 -0.3153
25418SOL     OW94245   1.499   7.851  13.046  0.3807 -0.2531 -0.4937
25418SOL    HW194246   1.469   7.814  12.963 -1.6353  1.1443 -0.4509
25418SOL    HW294247   1.578   7.801  13.067 -0.7110 -2.6565 -1.7364
25419SOL     OW94248   4.164   4.201   4.723  0.0541 -0.2094 -0.5389
25419SOL    HW194249   4.172   4.141   4.797 -0.9125 -0.1517 -0.3797
25419SOL    HW294250   4.236   4.177   4.665  0.0485 -1.1088 -0.1866
25420SOL     OW94251   0.976  11.744   1.569 -0.2543 -0.0442  0.5835
25420SOL    HW194252   0.973  11.700   1.484  0.8752 -0.9164  0.9799
25420SOL    HW294253   0.973  11.837   1.548  2.7034 -0.1405 -0.6021
25421SOL     OW94254  13.557   8.821   1.106  0.0624 -0.0081  0.2393
25421SOL    HW194255  13.526   8.732   1.121 -0.8023  0.1439 -0.5332
25421SOL    HW294256  13.507   8.875   1.167  0.4973 -0.0308  0.6213
25422SOL     OW94257   7.037   3.158   3.213 -0.0216  0.1035 -0.5437
25422SOL    HW194258   7.008   3.214   3.141  1.1997  2.4540  0.7036
25422SOL    HW294259   6.974   3.175   3.284  0.4735  0.0568 -0.0860
25423SOL     OW94260   8.937   0.197   7.881 -0.3639 -0.0581 -0.5230
25423SOL    HW194261   8.934   0.134   7.953 -1.0396 -0.7382 -1.1307
25423SOL    HW294262   8.849   0.234   7.878  0.1311  1.2003  0.0672
25424SOL     OW94263   8.753   3.370  11.333  0.0623 -0.1117  0.3184
25424SOL    HW194264   8.792   3.442  11.283  1.1728 -0.2151  0.9843
25424SOL    HW294265   8.813   3.296  11.319 -0.0508 -0.3695  1.1249
25425SOL     OW94266   8.459   4.223   4.407  0.0485 -0.6424  0.0581
25425SOL    HW194267   8.442   4.176   4.325  0.9943 -0.5233 -0.2187
25425SOL    HW294268   8.471   4.314   4.380 -0.3161 -0.4820  0.4204
25426SOL     OW94269   5.915   7.272  12.087 -0.5927  0.1654  0.0393
25426SOL    HW194270   5.943   7.241  12.173  0.6787  1.6543  0.2026
25426SOL    HW294271   5.997   7.294  12.042 -1.3292  1.0673 -0.8891
25427SOL     OW94272   7.695   6.838   9.792  0.1129  0.2587 -0.1911
25427SOL    HW194273   7.601   6.857   9.798  0.1680  0.3167  0.6097
25427SOL    HW294274   7.731   6.871   9.875  0.8547  0.3256 -0.5355
25428SOL     OW94275  11.769   5.687   3.741 -0.5349  0.1949 -0.2344
25428SOL    HW194276  11.781   5.652   3.653  0.1228  2.5044 -1.1258
25428SOL    HW294277  11.858   5.708   3.771 -0.8626  0.6701  0.4442
25429SOL     OW94278  11.710  13.168  10.106  0.9138  0.7426 -0.2396
25429SOL    HW194279  11.675  13.176  10.017  0.3417 -1.2751 -0.2557
25429SOL    HW294280  11.792  13.121  10.095  0.0399 -1.0227  0.3810
25430SOL     OW94281   0.640  13.570  12.053 -0.0643 -0.1068 -0.1357
25430SOL    HW194282   0.593  13.579  12.136 -2.5284  0.1538 -1.4533
25430SOL    HW294283   0.589  13.504  12.004  0.8942  0.2759 -1.7086
25431SOL     OW94284  11.475   6.841  10.794  0.3979  0.3502  0.6147
25431SOL    HW194285  11.443   6.752  10.803  2.5566 -0.3926  1.6415
25431SOL    HW294286  11.396   6.895  10.791 -0.9916 -1.6082 -0.8490
25432SOL     OW94287   9.687   9.166  13.899  0.6037 -0.0582  0.3539
25432SOL    HW194288   9.729   9.116  13.969  1.1153  0.6162  0.5457
25432SOL    HW294289   9.662   9.101  13.835  0.9607 -0.5982  0.7468
25433SOL     OW94290   5.496   2.885   3.613  0.2146  0.3790 -0.4799
25433SOL    HW194291   5.474   2.975   3.589  0.8063  0.4009 -0.9704
25433SOL    HW294292   5.590   2.879   3.597  0.3583 -0.0417  0.4769
25434SOL     OW94293   5.337   8.306   1.091 -0.4057  0.2111  0.1711
25434SOL    HW194294   5.254   8.327   1.134 -1.0179 -0.9141 -0.4023
25434SOL    HW294295   5.316   8.231   1.035  1.1070 -0.3815  0.3551
25435SOL     OW94296  13.424  11.084  13.256  0.3655  0.3128 -0.2341
25435SOL    HW194297  13.366  11.092  13.332 -1.8225 -1.0224 -1.6740
25435SOL    HW294298  13.415  11.168  13.210 -0.4692  0.1031 -0.4630
25436SOL     OW94299   9.608   5.754   0.220 -0.4482  0.1224  0.2061
25436SOL    HW194300   9.537   5.785   0.164 -0.1249 -0.3819 -0.4942
25436SOL    HW294301   9.634   5.670   0.182 -1.0665 -0.8678  1.8409
25437SOL     OW94302   5.661  13.037   2.045 -0.0443  0.3491  0.3430
25437SOL    HW194303   5.584  13.015   2.098 -0.7847 -0.8640 -1.1586
25437SOL    HW294304   5.707  12.953   2.036 -0.2420  0.4020 -1.3640
25438SOL     OW94305  13.406   9.243  11.477 -0.7474 -0.3091  0.4421
25438SOL    HW194306  13.332   9.245  11.415 -0.1302 -0.7011 -0.3298
25438SOL    HW294307  13.414   9.334  11.507 -1.8726 -0.3574  0.9507
25439SOL     OW94308   7.643   8.301   4.443  0.1773 -0.1456  0.5683
25439SOL    HW194309   7.682   8.332   4.361  0.8706 -1.4968  0.3476
25439SOL    HW294310   7.677   8.360   4.510 -2.2287  2.4753 -0.3276
25440SOL     OW94311  12.016   2.282   6.321  0.3889  0.0701  0.2067
25440SOL    HW194312  12.019   2.237   6.406  0.6212  0.3679  0.3594
25440SOL    HW294313  11.937   2.248   6.279 -0.6208  1.1083  1.2023
25441SOL     OW94314   8.570   1.197   5.488 -0.1013 -0.0877 -0.7364
25441SOL    HW194315   8.561   1.102   5.496 -0.1991  0.0036  0.5175
25441SOL    HW294316   8.664   1.212   5.479  0.5032 -0.1282  3.4162
25442SOL     OW94317   2.175   7.221   0.596  0.8001 -0.0179 -0.0637
25442SOL    HW194318   2.173   7.148   0.658 -1.2589  0.4160  0.4479
25442SOL    HW294319   2.116   7.194   0.525  2.2276 -0.0146 -1.3034
25443SOL     OW94320  11.501   0.939   9.293 -0.4525  0.3837  0.1677
25443SOL    HW194321  11.521   0.998   9.366 -0.8135  0.3502  0.2936
25443SOL    HW294322  11.542   0.980   9.217  2.6383 -1.0879  0.8692
25444SOL     OW94323   4.714   2.761  12.257  0.8087  0.5835  0.0340
25444SOL    HW194324   4.688   2.853  12.253  2.1826  1.1163  1.9706
25444SOL    HW294325   4.716   2.740  12.350  1.7098 -1.0480 -0.2996
25445SOL     OW94326   7.591   8.821   5.724  0.1052  0.1183 -0.1827
25445SOL    HW194327   7.644   8.856   5.796  0.4695  0.6697 -0.7022
25445SOL    HW294328   7.501   8.843   5.748  0.3203  1.4095 -0.4711
25446SOL     OW94329   1.830   3.783  10.295 -0.2774 -0.0968 -0.2123
25446SOL    HW194330   1.885   3.772  10.217 -0.0912  1.1044 -0.2696
25446SOL    HW294331   1.818   3.878  10.303 -0.7978 -0.2358  0.8780
25447SOL     OW94332   5.567   9.365   6.030 -0.3110  0.1998 -0.0902
25447SOL    HW194333   5.522   9.437   5.986 -0.1112  0.0851 -0.4922
25447SOL    HW294334   5.658   9.395   6.038 -0.7315  1.0486  2.0494
25448SOL     OW94335   9.308   8.927  13.949 -0.1486  0.2841 -0.2341
25448SOL    HW194336   9.391   8.972  13.963  0.0525 -0.0524 -0.3339
25448SOL    HW294337   9.330   8.834  13.956 -0.1995  0.1136 -1.8579
25449SOL     OW94338   0.580   6.224  13.364  0.2298 -0.5168  0.1305
25449SOL    HW194339   0.573   6.232  13.269 -1.5872  0.9581  0.3239
25449SOL    HW294340   0.616   6.307  13.393 -2.3084  0.4058  0.9138
25450SOL     OW94341   7.762   7.923   1.459  0.1729  0.3607  0.4228
25450SOL    HW194342   7.825   7.851   1.466  2.0851  1.9238  0.0465
25450SOL    HW294343   7.794   7.989   1.520 -0.8222  1.3931 -0.1454
25451SOL     OW94344   9.156   4.102  13.386 -0.1528  0.8556  0.1377
25451SOL    HW194345   9.189   4.142  13.305  1.9289 -0.7516  0.0936
25451SOL    HW294346   9.159   4.172  13.451 -0.7885  1.8832 -0.9109
25452SOL     OW94347  14.147   0.964  11.681 -0.2081  0.8256 -0.5845
25452SOL    HW194348  14.180   1.024  11.614 -1.7189 -0.2830 -2.4328
25452SOL    HW294349  14.129   0.883  11.634  0.4746 -0.6751  1.5705
25453SOL     OW94350   5.863  10.403   9.479  0.3918 -0.0255  0.3265
25453SOL    HW194351   5.901  10.319   9.507  2.4713  0.1908 -1.5549
25453SOL    HW294352   5.939  10.457   9.458 -0.9256  1.1462 -1.7788
25454SOL     OW94353   1.342  13.887  10.739  0.5848 -0.4134  0.5027
25454SOL    HW194354   1.262  13.938  10.756  0.7508 -0.2838  0.9046
25454SOL    HW294355   1.407  13.952  10.715  0.0971 -0.6726 -1.6804
25455SOL     OW94356   7.120   5.789  13.169  0.7209 -0.4130 -0.2846
25455SOL    HW194357   7.116   5.726  13.240 -0.8137 -1.8623 -1.5656
25455SOL    HW294358   7.146   5.738  13.092  0.5196  0.7206 -1.1374
25456SOL     OW94359   8.291   6.158  12.570 -0.3415  0.1187 -0.0807
25456SOL    HW194360   8.248   6.083  12.530 -1.2016  0.9360 -0.7245
25456SOL    HW294361   8.240   6.234  12.541  0.4150  0.9433  0.6743
25457SOL     OW94362  10.475   7.712   8.680 -0.2559  0.0002 -0.3735
25457SOL    HW194363  10.535   7.775   8.719 -0.6225 -0.3411  0.7870
25457SOL    HW294364  10.399   7.710   8.740  0.1459 -2.1991  0.1738
25458SOL     OW94365   9.639   5.816  12.763 -0.2139 -0.2045 -0.0285
25458SOL    HW194366   9.704   5.839  12.829 -0.2918  0.7236 -0.2635
25458SOL    HW294367   9.692   5.785  12.688 -0.1543 -2.8451  0.9757
25459SOL     OW94368  11.255  12.145  10.454 -0.1202 -0.4613  0.0046
25459SOL    HW194369  11.248  12.050  10.460 -1.4252 -0.3021  2.7929
25459SOL    HW294370  11.319  12.168  10.521 -1.4433  0.7080  0.9297
25460SOL     OW94371   4.473   4.611   1.263 -0.3538 -0.4187  0.4681
25460SOL    HW194372   4.454   4.518   1.248 -1.3812 -0.5649  2.3049
25460SOL    HW294373   4.568   4.615   1.275 -0.4201 -1.4209  1.4251
25461SOL     OW94374   0.292   2.789   8.080 -0.2767  0.3672 -0.1147
25461SOL    HW194375   0.370   2.735   8.090  0.3805  1.2415 -0.3524
25461SOL    HW294376   0.293   2.815   7.988 -1.0165  0.1450 -0.1911
25462SOL     OW94377  12.465   6.175   6.018 -0.1515  0.1183  0.1705
25462SOL    HW194378  12.520   6.152   5.943 -1.2364 -1.8467 -0.0800
25462SOL    HW294379  12.389   6.219   5.979 -0.2689 -0.0595  0.1958
25463SOL     OW94380  13.877  13.105  10.651  0.3493  0.0474  0.1417
25463SOL    HW194381  13.932  13.088  10.575 -0.3102  0.4146 -0.4322
25463SOL    HW294382  13.895  13.197  10.673 -1.1945  0.7003 -1.0657
25464SOL     OW94383  12.732  10.702   0.866 -0.2655  0.6924 -0.1915
25464SOL    HW194384  12.825  10.718   0.850  0.0610 -1.4455 -0.6504
25464SOL    HW294385  12.693  10.698   0.779 -0.2664 -1.0986 -0.1395
25465SOL     OW94386   0.614   6.397   7.979  0.0199 -0.8421  0.2321
25465SOL    HW194387   0.626   6.476   8.032 -0.1014 -0.3306 -0.4967
25465SOL    HW294388   0.699   6.352   7.985  0.6278  0.1541 -0.6573
25466SOL     OW94389   0.464  13.876   8.039 -0.4232  0.7675  0.1535
25466SOL    HW194390   0.534  13.922   8.086  0.6049  0.9075 -1.4310
25466SOL    HW294391   0.385  13.927   8.058 -0.0180  0.9062  1.5528
25467SOL     OW94392   2.625   7.272   5.303 -0.2902 -0.4412 -0.4453
25467SOL    HW194393   2.597   7.183   5.282 -0.4406 -0.2949 -0.8731
25467SOL    HW294394   2.544   7.322   5.305 -0.4707 -0.7065  1.8786
25468SOL     OW94395   3.043   1.365   3.562  0.4032  0.3669 -0.0400
25468SOL    HW194396   3.087   1.287   3.529 -2.0102 -1.2770  0.4058
25468SOL    HW294397   2.974   1.332   3.619 -2.1714  2.6469 -1.5724
25469SOL     OW94398   7.613  11.187   4.598 -0.4167  0.5375  0.3829
25469SOL    HW194399   7.638  11.271   4.559 -0.0515 -0.0790 -0.7780
25469SOL    HW294400   7.685  11.128   4.575 -1.0455 -0.2870  0.4896
25470SOL     OW94401   2.972   3.443  12.530  0.2146 -0.0634 -0.0858
25470SOL    HW194402   3.047   3.399  12.571 -1.7368 -2.0463  1.6087
25470SOL    HW294403   2.959   3.395  12.448  0.3472 -0.2118 -0.0211
25471SOL     OW94404   0.656  10.489   1.878  0.1323 -0.0671  0.4070
25471SOL    HW194405   0.747  10.511   1.856 -0.0829 -1.0927 -1.7674
25471SOL    HW294406   0.655  10.394   1.884 -0.7343 -0.0418  0.7586
25472SOL     OW94407   4.894  10.366   4.149 -0.0395 -0.1486  1.0750
25472SOL    HW194408   4.953  10.302   4.189  1.5032  0.8583  0.4944
25472SOL    HW294409   4.857  10.414   4.223 -0.0313 -0.6982  1.4414
25473SOL     OW94410   3.620   6.271   1.882  0.4467  0.2908 -0.5641
25473SOL    HW194411   3.588   6.185   1.857 -1.1674  0.5988  0.3232
25473SOL    HW294412   3.702   6.254   1.928  0.6798 -0.6593 -1.2938
25474SOL     OW94413   2.952  11.917   1.919  0.3762 -0.2309  0.3301
25474SOL    HW194414   3.005  11.974   1.864  0.8298 -2.5476 -1.8454
25474SOL    HW294415   2.957  11.956   2.006  1.6792  2.2678 -0.7594
25475SOL     OW94416   8.677  11.769   3.861 -0.7145  0.1839  0.2665
25475SOL    HW194417   8.754  11.773   3.918  1.0354 -1.5557 -1.7571
25475SOL    HW294418   8.608  11.731   3.916 -0.1006  1.5532  2.0766
25476SOL     OW94419  13.433   3.774  12.203 -0.1598  0.4685 -0.4236
25476SOL    HW194420  13.368   3.730  12.257  0.8940 -1.0991 -0.3761
25476SOL    HW294421  13.400   3.766  12.113  0.9778 -2.3698 -0.6912
25477SOL     OW94422  14.047  11.461   9.692 -0.2680  0.0406  0.2757
25477SOL    HW194423  14.120  11.459   9.754  0.0720 -1.2906 -0.1298
25477SOL    HW294424  14.023  11.369   9.681  0.6035  0.0696 -2.6393
25478SOL     OW94425  12.621   9.682  12.450 -0.5867  0.4398  0.0307
25478SOL    HW194426  12.605   9.704  12.542 -0.5354 -0.3432  0.2366
25478SOL    HW294427  12.705   9.723  12.429 -1.6075  2.4983 -0.3323
25479SOL     OW94428  12.261   1.733   6.517  0.3630  0.2366  0.4864
25479SOL    HW194429  12.345   1.723   6.561  0.1307  0.4469  0.9884
25479SOL    HW294430  12.279   1.794   6.445  0.3564  1.3947  1.4337
25480SOL     OW94431  11.026   7.392   3.600  0.1243 -0.0954 -0.2638
25480SOL    HW194432  11.103   7.373   3.655  0.7187  1.1944 -0.6140
25480SOL    HW294433  11.059   7.450   3.532 -1.1736  0.5029 -0.4103
25481SOL     OW94434  13.468   2.406  13.671  0.0613 -0.5138 -0.3711
25481SOL    HW194435  13.456   2.498  13.692 -0.1680 -0.5718 -0.2552
25481SOL    HW294436  13.555   2.402  13.630 -0.5316 -0.0034 -1.7529
25482SOL     OW94437  10.848   4.851   9.994  0.4477  0.1958 -0.0916
25482SOL    HW194438  10.898   4.771   9.977 -0.3618 -0.0299 -1.5375
25482SOL    HW294439  10.907   4.922   9.965  1.2854  0.1896  1.4703
25483SOL     OW94440   0.443   7.890  10.781 -0.0930 -0.2498  0.0631
25483SOL    HW194441   0.526   7.844  10.778 -0.5098 -1.2590  2.1299
25483SOL    HW294442   0.377   7.823  10.761 -0.4933  0.2472 -0.3256
25484SOL     OW94443   6.454   7.412   9.042 -0.2210  0.2615  0.1628
25484SOL    HW194444   6.532   7.399   8.988 -0.2443  1.1580 -0.1077
25484SOL    HW294445   6.443   7.507   9.045 -0.3263  0.2270  1.5990
25485SOL     OW94446   5.212   1.844  10.208  0.8396  0.2804 -0.4683
25485SOL    HW194447   5.125   1.824  10.173  0.2628 -0.0348  1.0441
25485SOL    HW294448   5.215   1.939  10.212 -0.3735  0.3108  1.5139
25486SOL     OW94449   9.340   6.149   0.724  0.1852  0.2757  0.0395
25486SOL    HW194450   9.374   6.062   0.747  0.3251  0.4645  0.5756
25486SOL    HW294451   9.416   6.195   0.689  0.0279  0.0677 -0.5926
25487SOL     OW94452  12.897   2.386   1.596  1.3085 -0.4627 -0.6844
25487SOL    HW194453  12.914   2.452   1.529  1.1865 -0.1954 -0.4496
25487SOL    HW294454  12.832   2.328   1.556  0.0603  0.5699 -0.2413
25488SOL     OW94455  13.723   4.547   0.015 -0.2985  0.2646  0.0157
25488SOL    HW194456  13.679   4.463   0.002 -1.5642  0.6747  1.2613
25488SOL    HW294457  13.659   4.599   0.063  0.6231  1.8044 -0.3658
25489SOL     OW94458  12.429   9.151   8.014 -0.1191 -0.0142  0.4404
25489SOL    HW194459  12.382   9.106   7.944  1.9090  0.4577 -1.3217
25489SOL    HW294460  12.388   9.237   8.019  0.1860  0.2075 -0.6991
25490SOL     OW94461   6.637   9.731   2.818  0.2808  0.5170  0.4313
25490SOL    HW194462   6.719   9.780   2.826  0.3773  0.5070 -0.3849
25490SOL    HW294463   6.584   9.784   2.757  0.2621 -0.2141 -0.2009
25491SOL     OW94464   6.209  12.533  12.305  0.5696  0.4537 -0.1272
25491SOL    HW194465   6.120  12.499  12.301  0.2062  1.3322  0.1464
25491SOL    HW294466   6.248  12.492  12.383  0.9081 -1.0531 -1.0609
25492SOL     OW94467   2.493  11.895   9.892 -0.2553 -0.4671 -0.8735
25492SOL    HW194468   2.481  11.867   9.801 -2.5016 -0.5334 -0.6230
25492SOL    HW294469   2.443  11.976   9.898 -0.4978 -0.7017  0.3986
25493SOL     OW94470   9.021   7.802   9.113 -0.4021  0.1666 -0.1333
25493SOL    HW194471   9.078   7.759   9.177  0.0966  0.8132 -0.1312
25493SOL    HW294472   9.064   7.885   9.095 -0.9117  0.2967 -0.7792
25494SOL     OW94473  10.878   5.690   5.278 -0.5576 -0.3223 -0.2081
25494SOL    HW194474  10.892   5.782   5.298  1.8486 -0.7886  0.6388
25494SOL    HW294475  10.921   5.677   5.193 -1.5726 -0.5123 -0.7011
25495SOL     OW94476   9.341  13.935   9.377  0.0349  0.2284 -0.3664
25495SOL    HW194477   9.390  13.869   9.328  0.6451  0.8560 -0.6164
25495SOL    HW294478   9.398  13.959   9.450 -0.2389  0.3958 -0.2026
25496SOL     OW94479   4.951  12.340   2.582  0.2609 -0.1666  0.4315
25496SOL    HW194480   4.971  12.290   2.503 -0.0074 -0.8093  0.7603
25496SOL    HW294481   5.017  12.409   2.585  0.6104 -0.4772 -0.0500
25497SOL     OW94482   1.821   2.435   7.808  0.4306 -0.0044  0.1945
25497SOL    HW194483   1.867   2.520   7.808 -0.1833  0.3488 -0.9349
25497SOL    HW294484   1.742   2.451   7.756 -1.7998 -0.1786  3.2670
25498SOL     OW94485   4.220   7.961  13.985  0.6920  0.3004 -0.2173
25498SOL    HW194486   4.235   7.876  14.028  2.7338  1.0308  0.6850
25498SOL    HW294487   4.144   7.997  14.030  1.2287 -0.0759  1.0584
25499SOL     OW94488   0.038   3.739  13.448  0.2938 -0.3006 -0.1587
25499SOL    HW194489   0.003   3.701  13.529  0.2575  0.9558  0.4325
25499SOL    HW294490  -0.038   3.749  13.391  0.1768 -0.3793 -0.0157
25500SOL     OW94491   8.479   5.002   1.970 -0.4437 -0.5025  0.3722
25500SOL    HW194492   8.526   4.932   2.014 -1.4723 -1.1117  0.5480
25500SOL    HW294493   8.424   4.957   1.905  0.3065  0.2997 -0.8536
25501SOL     OW94494   4.433   9.383  12.800  0.0104 -0.2441 -0.8979
25501SOL    HW194495   4.476   9.299  12.788 -0.8187 -0.7009 -0.7123
25501SOL    HW294496   4.417   9.415  12.711  0.7972 -0.0223 -0.9705
25502SOL     OW94497   0.822   7.458   9.322 -0.4407 -0.5132  0.1503
25502SOL    HW194498   0.829   7.431   9.231 -0.2973  0.4763 -0.1400
25502SOL    HW294499   0.913   7.467   9.352 -0.4671  0.5057 -0.0302
25503SOL     OW94500   6.193   5.187   6.280 -0.3216  0.2606 -0.1372
25503SOL    HW194501   6.208   5.269   6.233  1.7711  0.4373  0.7020
25503SOL    HW294502   6.137   5.212   6.354 -0.1986  0.8327 -0.2306
25504SOL     OW94503   4.482  12.243   3.284  0.0087  0.4438  0.2457
25504SOL    HW194504   4.501  12.335   3.307  0.8534  0.1182  0.9346
25504SOL    HW294505   4.547  12.221   3.218  0.2446  0.1430  0.5755
25505SOL     OW94506  11.225   3.220   4.473  0.9202  0.2161 -0.6256
25505SOL    HW194507  11.136   3.255   4.478  1.5424  1.8638 -0.1198
25505SOL    HW294508  11.234   3.167   4.553  0.7703  1.0532 -0.0351
25506SOL     OW94509  12.977  14.030   6.716 -0.1762  0.4788 -0.1068
25506SOL    HW194510  12.968  14.013   6.622  1.6593  1.7080 -0.5593
25506SOL    HW294511  12.954  14.122   6.726 -0.6635  0.2804  0.7331
25507SOL     OW94512  10.727   7.068  11.206  0.3105 -0.2776  0.0075
25507SOL    HW194513  10.746   7.160  11.225 -1.0375  0.3687 -1.4922
25507SOL    HW294514  10.644   7.050  11.250  1.1898 -1.1901  1.3522
25508SOL     OW94515   2.074  10.100   7.813 -0.6577 -0.1000 -0.4051
25508SOL    HW194516   2.072  10.155   7.891  0.3825 -1.6449  0.7719
25508SOL    HW294517   2.104  10.158   7.744  1.3613  0.6435  0.9955
25509SOL     OW94518  11.766  13.149   6.141  0.2008  0.0562 -0.1696
25509SOL    HW194519  11.727  13.120   6.223 -0.3787  3.5247  0.9653
25509SOL    HW294520  11.693  13.187   6.092  1.1146  1.2078 -0.6865
25510SOL     OW94521   9.395  10.518   9.118 -0.0743  0.3927 -0.2498
25510SOL    HW194522   9.437  10.486   9.038 -2.3657 -0.4137 -1.2044
25510SOL    HW294523   9.368  10.439   9.165 -2.0419  0.8502 -0.5451
25511SOL     OW94524   3.286  13.305   7.279  0.3244  0.3324  0.3126
25511SOL    HW194525   3.335  13.310   7.361  1.4811 -0.9086 -0.2583
25511SOL    HW294526   3.331  13.238   7.229 -1.1983  0.0866 -0.7918
25512SOL     OW94527  13.017  11.117  12.225 -0.0842  0.2636  0.4866
25512SOL    HW194528  13.072  11.181  12.271  2.0980  0.0250 -1.6296
25512SOL    HW294529  12.982  11.166  12.150  0.4357 -0.6182 -0.3457
25513SOL     OW94530   2.463   4.817   4.042 -0.3523  0.5168 -0.0904
25513SOL    HW194531   2.508   4.898   4.066 -0.2865  0.4651 -0.0389
25513SOL    HW294532   2.384   4.846   3.995 -0.9442  0.6486  0.9570
25514SOL     OW94533   4.757   2.232   7.966  0.0314  0.0059 -0.2469
25514SOL    HW194534   4.736   2.323   7.945  0.1888  0.0762 -0.1013
25514SOL    HW294535   4.848   2.222   7.938  0.0111 -0.1095 -0.2713
25515SOL     OW94536  14.084   0.883  12.563  0.3595  0.1864 -0.0630
25515SOL    HW194537  14.086   0.846  12.652  0.5306 -1.2725 -0.6477
25515SOL    HW294538  13.991   0.903  12.548  0.4289  1.1513  0.7073
25516SOL     OW94539   9.391  10.885   8.962  0.1881 -0.1236  0.0349
25516SOL    HW194540   9.350  10.808   8.923  0.5070 -0.5931  0.6000
25516SOL    HW294541   9.469  10.901   8.908 -0.3443  0.3386 -0.6087
25517SOL     OW94542   2.368   0.818   8.183 -0.0669  0.4689  0.4224
25517SOL    HW194543   2.404   0.808   8.094 -1.7496 -2.1716 -0.0524
25517SOL    HW294544   2.409   0.748   8.233 -1.2354  0.1819  0.9914
25518SOL     OW94545   8.803   3.478   8.581  0.1669 -0.1636  0.1244
25518SOL    HW194546   8.732   3.429   8.540 -0.1461  0.3350  0.0579
25518SOL    HW294547   8.856   3.508   8.507  0.4328 -0.5129  0.1720
25519SOL     OW94548   0.688   9.660   7.124 -0.5541 -0.1259  0.2595
25519SOL    HW194549   0.700   9.725   7.194  2.3220 -0.6556  0.3534
25519SOL    HW294550   0.671   9.578   7.170 -0.6276 -0.1169  0.2494
25520SOL     OW94551   1.461   5.358  10.720  0.1276  0.1429 -0.2751
25520SOL    HW194552   1.488   5.407  10.797 -1.3309  1.8792 -0.8113
25520SOL    HW294553   1.365   5.361  10.721 -0.1555 -3.8096  0.3145
25521SOL     OW94554   9.699   9.571   0.058  0.1643  0.3051 -0.5441
25521SOL    HW194555   9.637   9.639   0.083 -1.0234 -0.6813 -0.7053
25521SOL    HW294556   9.661   9.530  -0.019  1.2631 -0.0158 -0.9445
25522SOL     OW94557  12.077   5.860   5.235 -0.0291 -0.0554 -0.1617
25522SOL    HW194558  12.034   5.938   5.271  0.2608  0.5736 -1.1405
25522SOL    HW294559  12.158   5.894   5.196 -0.1729 -0.7664 -1.0913
25523SOL     OW94560   1.426   4.748  12.059  0.2791  0.3445 -0.3594
25523SOL    HW194561   1.513   4.711  12.076 -0.1276  0.1549  1.5468
25523SOL    HW294562   1.383   4.683  12.003 -0.2875 -2.0695  2.5859
25524SOL     OW94563  10.235   5.318   8.185 -0.0203  0.1570 -0.3586
25524SOL    HW194564  10.306   5.371   8.148  1.4780 -1.5357 -0.0432
25524SOL    HW294565  10.233   5.342   8.277  1.4052 -1.0472  0.0264
25525SOL     OW94566   1.167   4.005   0.468  0.3368  0.9378  0.1335
25525SOL    HW194567   1.169   4.087   0.420  0.3072  0.7690 -0.1547
25525SOL    HW294568   1.256   3.972   0.463 -0.1299 -0.1611 -1.6744
25526SOL     OW94569   1.654   9.019  12.957  0.1207  0.1432  0.2071
25526SOL    HW194570   1.632   9.002  12.865 -1.5606 -0.4273  0.6669
25526SOL    HW294571   1.642   8.935  13.000  0.8136  0.4237  0.9656
25527SOL     OW94572   5.032   4.486   9.283  0.0466 -0.1345  0.5544
25527SOL    HW194573   5.091   4.424   9.325  0.1212 -0.9872 -0.7825
25527SOL    HW294574   5.035   4.465   9.190  0.6120  2.3183 -0.0662
25528SOL     OW94575   5.687  10.386  12.759  0.9352 -0.0478  0.3336
25528SOL    HW194576   5.678  10.301  12.715  0.1402 -0.1249  0.6212
25528SOL    HW294577   5.647  10.449  12.698  0.1315 -0.1082  0.7831
25529SOL     OW94578   7.816   9.791   0.354  0.4574  0.1484 -0.4279
25529SOL    HW194579   7.795   9.829   0.269 -0.6847 -2.9375 -1.6642
25529SOL    HW294580   7.901   9.829   0.377  0.5219  1.5343 -2.6532
25530SOL     OW94581  13.921   1.440  10.794 -0.2248  0.0751  0.9967
25530SOL    HW194582  13.875   1.523  10.778 -1.0372 -0.6512 -0.7551
25530SOL    HW294583  13.877   1.377  10.737  2.2386 -0.9182  0.0278
25531SOL     OW94584  13.780  12.660   0.210 -0.2142  0.2560 -0.0669
25531SOL    HW194585  13.689  12.671   0.235  0.1831  1.5460  0.9209
25531SOL    HW294586  13.777  12.624   0.122 -1.6668 -2.1398  0.8860
25532SOL     OW94587  11.770   9.117   7.232  0.5317 -0.2531 -0.1048
25532SOL    HW194588  11.705   9.056   7.199  0.7573 -0.7348  0.3306
25532SOL    HW294589  11.851   9.067   7.234  0.7985  0.1724 -0.0945
25533SOL     OW94590   9.872   3.694   7.654  0.1026  0.1169  0.1206
25533SOL    HW194591   9.853   3.608   7.692  1.0960 -0.2803 -0.2404
25533SOL    HW294592   9.962   3.712   7.681  0.0660  0.8278 -0.2162
25534SOL     OW94593  12.285   8.549   2.070 -0.9057 -0.3941 -0.4206
25534SOL    HW194594  12.301   8.474   2.127 -1.3328  1.4944  2.4141
25534SOL    HW294595  12.372   8.581   2.048 -0.7066 -0.3264  0.4060
25535SOL     OW94596  10.073   4.810   8.685 -0.8065 -0.0772  0.3983
25535SOL    HW194597  10.083   4.725   8.642 -0.0436 -0.9679  2.1963
25535SOL    HW294598  10.160   4.849   8.683 -0.4886 -0.6160  1.9808
25536SOL     OW94599   6.004  11.022  10.876 -0.2715  0.2851 -0.6981
25536SOL    HW194600   6.098  11.039  10.863  0.1563 -1.4967 -0.2168
25536SOL    HW294601   5.989  11.046  10.968 -0.7513  2.3011 -1.2473
25537SOL     OW94602  12.531   0.407   8.857 -0.2097  0.1524 -0.2866
25537SOL    HW194603  12.444   0.369   8.861 -0.5174  0.5050 -2.4319
25537SOL    HW294604  12.534   0.469   8.930 -0.8299 -1.5840  1.3031
25538SOL     OW94605   3.430  11.847   6.871  0.3406  0.2266 -0.5172
25538SOL    HW194606   3.451  11.940   6.865  2.2720 -0.1829 -0.7168
25538SOL    HW294607   3.435  11.827   6.965 -1.3487  0.5496 -0.3179
25539SOL     OW94608   0.232  10.329  10.241 -0.2547  0.4031 -0.8043
25539SOL    HW194609   0.195  10.336  10.153 -1.5527 -2.4491 -0.6085
25539SOL    HW294610   0.312  10.381  10.237 -0.8601  1.3162 -3.2997
25540SOL     OW94611   9.291   7.780   3.994 -0.7253  0.4179  0.4774
25540SOL    HW194612   9.280   7.696   3.948 -0.8960 -0.1746  1.5495
25540SOL    HW294613   9.202   7.812   4.008 -0.6274  1.4209 -1.0222
25541SOL     OW94614   0.106   2.934   0.619 -0.0119 -0.3424 -0.4108
25541SOL    HW194615   0.143   3.022   0.624  1.9984 -1.1621  0.4928
25541SOL    HW294616   0.012   2.947   0.612  0.2203  1.8707 -0.0190
25542SOL     OW94617  12.012  10.560   5.664  0.4917  0.7430  0.0113
25542SOL    HW194618  11.918  10.569   5.649  0.5841 -0.1732 -1.3200
25542SOL    HW294619  12.046  10.649   5.659 -0.1024  0.9188 -1.1418
25543SOL     OW94620  13.422   2.029  12.991 -0.1839  0.6147 -0.1094
25543SOL    HW194621  13.336   2.062  12.965 -0.0244  2.2363  1.2455
25543SOL    HW294622  13.403   1.959  13.054 -0.4992 -1.0228 -1.9200
25544SOL     OW94623  12.265  12.286  12.779 -0.0669  0.3940  0.3656
25544SOL    HW194624  12.171  12.276  12.795  0.0783 -0.1880  0.8881
25544SOL    HW294625  12.299  12.322  12.861  0.1667  0.6354  0.1643
25545SOL     OW94626  10.091   1.301  12.418  0.1176  0.3119  0.4557
25545SOL    HW194627  10.177   1.309  12.460  0.2069 -0.6074  0.4597
25545SOL    HW294628  10.071   1.207  12.422  0.8435 -0.0970 -2.9733
25546SOL     OW94629  11.961  12.422   1.730 -0.2967 -0.2151 -0.4351
25546SOL    HW194630  12.004  12.337   1.718  2.0449  0.4465  2.2563
25546SOL    HW294631  11.901  12.408   1.803 -0.0807  0.3866 -0.1411
25547SOL     OW94632  10.116  11.233  13.863 -0.0638  0.2348 -0.0800
25547SOL    HW194633  10.203  11.213  13.827  0.0573  0.8766 -0.1577
25547SOL    HW294634  10.060  11.239  13.786 -0.5497 -1.7877  0.0456
25548SOL     OW94635  14.086   5.249  11.599 -0.3889 -0.0664  0.5710
25548SOL    HW194636  14.099   5.174  11.657 -0.8191 -0.5489  0.0569
25548SOL    HW294637  14.030   5.308  11.648 -1.6304 -0.9475  0.2494
25549SOL     OW94638   6.406   2.955   5.958 -0.3073 -0.3975  0.4849
25549SOL    HW194639   6.385   3.018   6.027  0.1365 -0.1875  0.4317
25549SOL    HW294640   6.499   2.968   5.941  0.3422 -2.5103  1.9638
25550SOL     OW94641   1.030  13.952  11.462 -0.2575 -0.3989 -0.1738
25550SOL    HW194642   1.099  13.996  11.512 -0.3715 -2.2088  1.7312
25550SOL    HW294643   0.951  13.962  11.516 -1.6170  1.6461 -2.3137
25551SOL     OW94644   7.320  12.801  11.512 -0.0318 -0.0735 -0.1811
25551SOL    HW194645   7.310  12.886  11.468 -1.0074 -1.0866 -2.0914
25551SOL    HW294646   7.278  12.813  11.597  0.0111  1.4092 -0.3400
25552SOL     OW94647  12.783   9.458   7.115  0.1956  0.3186  0.4282
25552SOL    HW194648  12.782   9.532   7.055  1.1880  0.4059  0.5056
25552SOL    HW294649  12.857   9.404   7.086 -0.6403 -0.7584  0.2398
25553SOL     OW94650   5.685   3.499   0.662  0.1815 -0.1108 -0.2976
25553SOL    HW194651   5.678   3.434   0.592  0.4874 -0.7465  0.2560
25553SOL    HW294652   5.602   3.491   0.709  0.2678 -0.1817 -0.1584
25554SOL     OW94653   4.072   7.122  10.989 -0.2344  0.2073  0.6396
25554SOL    HW194654   4.144   7.070  10.953 -1.2956 -0.0318 -1.3218
25554SOL    HW294655   4.089   7.125  11.083  0.9723 -1.9761  0.5631
25555SOL     OW94656   9.632   1.215  13.973 -0.4881  0.2618 -0.0540
25555SOL    HW194657   9.660   1.180  13.888  0.0450 -0.7541  0.5153
25555SOL    HW294658   9.567   1.152  14.004  0.0933  0.0470  0.7582
25556SOL     OW94659  11.254   6.272  13.145 -0.5180 -0.2144 -0.3882
25556SOL    HW194660  11.242   6.204  13.211  0.0412  0.0165 -0.0437
25556SOL    HW294661  11.165   6.304  13.127 -0.7138 -0.5662 -0.0622
25557SOL     OW94662  11.268   9.651  12.716 -0.4337 -0.1445  0.3895
25557SOL    HW194663  11.219   9.701  12.781  0.8698  0.7913  0.6783
25557SOL    HW294664  11.226   9.565  12.717 -1.8447  0.5022  0.8641
25558SOL     OW94665   6.444   0.759   1.017 -0.5626  0.3890  0.4021
25558SOL    HW194666   6.481   0.818   1.083 -3.1591  2.3365  0.2520
25558SOL    HW294667   6.376   0.711   1.063 -2.6229  1.9915 -0.7789
25559SOL     OW94668  10.745   3.045   9.648 -0.5999 -0.0867 -0.0382
25559SOL    HW194669  10.778   2.961   9.618  0.2468  0.1620  0.1787
25559SOL    HW294670  10.671   3.064   9.589  0.2685 -0.1841 -1.2073
25560SOL     OW94671   3.049   6.340  12.062  0.2193  0.0526 -0.0765
25560SOL    HW194672   3.042   6.252  12.024 -4.1943  0.1943 -0.0715
25560SOL    HW294673   3.062   6.324  12.155 -1.0116 -0.6686 -0.0063
25561SOL     OW94674  12.554  11.542  11.379 -0.5794 -0.1224  0.2428
25561SOL    HW194675  12.471  11.511  11.414  0.7576 -2.1740  1.8501
25561SOL    HW294676  12.579  11.614  11.437 -1.4476  0.9033 -0.6043
25562SOL     OW94677  11.438   7.453   6.587 -0.0485 -0.0462  0.3067
25562SOL    HW194678  11.501   7.524   6.599 -0.9454  1.1142 -1.5129
25562SOL    HW294679  11.388   7.451   6.668  0.4988  0.8681  0.6770
25563SOL     OW94680   0.688   5.231   0.843  0.5543 -0.0316  0.2365
25563SOL    HW194681   0.749   5.212   0.772  0.5797 -1.6855  0.6574
25563SOL    HW294682   0.728   5.192   0.920 -1.0490 -1.2375  0.5043
25564SOL     OW94683   8.149   3.917   4.951 -0.4812 -0.2106  0.1947
25564SOL    HW194684   8.209   3.955   5.016 -0.6157  0.5869 -0.1280
25564SOL    HW294685   8.089   3.863   5.002 -0.6977  0.5504  0.7679
25565SOL     OW94686   7.529   7.958   1.281  0.4688 -0.3661  0.3729
25565SOL    HW194687   7.519   8.050   1.303 -0.3872 -0.1397 -0.8780
25565SOL    HW294688   7.622   7.940   1.295  1.6009  1.7758 -3.1585
25566SOL     OW94689  11.242   8.728   8.170  0.7452 -0.0931  0.0283
25566SOL    HW194690  11.219   8.777   8.249  0.5185 -1.8825  1.1167
25566SOL    HW294691  11.204   8.779   8.099  1.5060  1.9045  0.9820
25567SOL     OW94692   8.046   1.481   8.329  0.0048 -0.1601 -0.2880
25567SOL    HW194693   8.024   1.475   8.236  0.6197 -1.7414 -0.3644
25567SOL    HW294694   8.010   1.400   8.367  1.7067 -0.6289  0.4119
25568SOL     OW94695  11.964  12.472   8.198 -0.5344 -0.1796 -0.3297
25568SOL    HW194696  11.924  12.502   8.116 -0.6132 -1.4302 -0.7813
25568SOL    HW294697  12.022  12.401   8.170  2.2697  1.7156  0.2465
25569SOL     OW94698   4.184  12.357   0.625  0.1381  0.2276  0.6407
25569SOL    HW194699   4.279  12.368   0.621  0.1005  0.5321  0.5222
25569SOL    HW294700   4.170  12.290   0.691  0.4189  0.4350  0.9143
25570SOL     OW94701   9.017  11.111   8.720  0.3942  0.2640  0.5284
25570SOL    HW194702   9.110  11.125   8.705  0.5077  0.2550  1.1910
25570SOL    HW294703   9.012  11.027   8.766  0.0158 -0.0002  0.0184
25571SOL     OW94704   5.504   4.239   4.808  0.2111  0.4470  0.1158
25571SOL    HW194705   5.473   4.196   4.729  0.1073 -0.7768  0.7866
25571SOL    HW294706   5.425   4.255   4.860  0.2277  1.6490 -0.2068
25572SOL     OW94707  10.186   4.318   7.556 -0.3043  0.0482  0.6057
25572SOL    HW194708  10.126   4.344   7.626  0.8589 -0.7409  1.9467
25572SOL    HW294709  10.153   4.233   7.527  0.7424 -0.9364  2.1326
25573SOL     OW94710  10.294   4.044   1.698 -0.0345  0.1088 -0.0318
25573SOL    HW194711  10.206   4.060   1.664 -0.8508 -2.0038  0.9002
25573SOL    HW294712  10.297   4.091   1.781 -0.2780  0.2087 -0.0788
25574SOL     OW94713   4.187  11.805   1.525  0.0263  0.6907  0.0246
25574SOL    HW194714   4.208  11.712   1.531  0.1515  0.7586  0.7856
25574SOL    HW294715   4.270  11.849   1.546  0.2426  0.9816 -1.3800
25575SOL     OW94716   2.475  12.856   2.268  0.3135 -0.4203 -0.0788
25575SOL    HW194717   2.438  12.863   2.180 -1.6939 -0.9610  0.6684
25575SOL    HW294718   2.464  12.944   2.306  0.8826 -0.2747 -0.2370
25576SOL     OW94719   1.687   1.612   1.350  0.2112 -0.2209 -0.8236
25576SOL    HW194720   1.650   1.696   1.376  1.1745  0.3670 -1.3054
25576SOL    HW294721   1.712   1.571   1.433 -0.6953 -0.2567 -0.5516
25577SOL     OW94722  11.279   4.384   5.735 -0.1269 -0.2674  0.1961
25577SOL    HW194723  11.230   4.309   5.769  0.4531 -1.3845 -1.3367
25577SOL    HW294724  11.310   4.355   5.649  1.4946  1.1487  0.2655
25578SOL     OW94725   5.663  10.578   3.270  0.3223  0.0568 -0.3164
25578SOL    HW194726   5.753  10.610   3.278  0.7405 -1.0026 -0.6872
25578SOL    HW294727   5.657  10.545   3.180 -0.9298  1.5441 -0.8478
25579SOL     OW94728   5.423  11.835   2.200 -0.3988  0.9265 -0.1105
25579SOL    HW194729   5.512  11.848   2.164  0.1501 -0.4068  0.6975
25579SOL    HW294730   5.431  11.859   2.292 -0.6439 -0.0261  0.1702
25580SOL     OW94731   4.084   4.606  13.123  0.3166 -0.0160  0.0971
25580SOL    HW194732   4.074   4.596  13.028  1.0856  1.5944 -0.1802
25580SOL    HW294733   4.135   4.528  13.149  1.6758  0.4044 -1.1207
25581SOL     OW94734  12.781   6.012   9.787 -0.3203  0.2841 -0.4337
25581SOL    HW194735  12.731   6.018   9.869 -1.8131  1.0107 -1.3541
25581SOL    HW294736  12.773   6.099   9.748 -0.4554 -0.3280 -1.8221
25582SOL     OW94737   6.462   0.966  13.936  0.2050  0.0192 -0.9920
25582SOL    HW194738   6.431   0.970  14.026 -0.6923  0.3275 -1.2927
25582SOL    HW294739   6.534   0.904  13.937  0.1883  0.0097 -0.0670
25583SOL     OW94740  12.919   2.977  10.669  0.0991 -0.3894 -0.1889
25583SOL    HW194741  12.874   2.903  10.712  0.1943 -1.0428 -1.1901
25583SOL    HW294742  13.009   2.947  10.660  0.3846  0.2893  0.3751
25584SOL     OW94743   6.678   1.914   9.562 -0.7638 -0.6455 -0.1048
25584SOL    HW194744   6.655   1.948   9.649  0.0104  0.0183 -0.1532
25584SOL    HW294745   6.690   1.820   9.575 -0.9728 -0.5987  0.4419
25585SOL     OW94746   4.092  11.065   5.488 -0.0961  0.3146 -0.2048
25585SOL    HW194747   4.060  11.147   5.451  0.8793  0.7842 -0.0316
25585SOL    HW294748   4.123  11.088   5.575  0.0671 -0.2697 -0.1031
25586SOL     OW94749   2.724   1.577   5.192  0.3319 -0.0454  0.4544
25586SOL    HW194750   2.637   1.547   5.218  0.3550 -0.4466  0.0810
25586SOL    HW294751   2.784   1.516   5.235  0.3522 -1.1053 -1.0065
25587SOL     OW94752   6.000   4.121   9.334 -0.3303 -0.2884  0.3734
25587SOL    HW194753   5.958   4.183   9.275  1.7169  1.0096  0.1870
25587SOL    HW294754   6.037   4.054   9.277 -0.9586 -0.7071  0.4436
25588SOL     OW94755   1.574   4.212  12.941  0.0761  0.0642 -0.4941
25588SOL    HW194756   1.486   4.223  12.904 -1.1488 -0.8216  1.9165
25588SOL    HW294757   1.620   4.292  12.917 -1.4611  0.6585 -1.6478
25589SOL     OW94758  10.146  13.329   0.403 -0.4470 -0.0659  0.1074
25589SOL    HW194759  10.175  13.262   0.465  1.6922  0.5631 -0.1209
25589SOL    HW294760  10.125  13.405   0.457 -1.5981 -0.4656  0.2585
25590SOL     OW94761  12.597  10.185  13.958 -0.6056 -0.2330  0.2187
25590SOL    HW194762  12.623  10.272  13.928 -0.5662 -0.9229 -1.9148
25590SOL    HW294763  12.512  10.199  14.001  0.1877  1.0711  1.4541
25591SOL     OW94764   6.989   4.420  11.093 -0.4027 -0.2666  0.1764
25591SOL    HW194765   7.075   4.425  11.050 -0.6657 -3.8854 -1.1166
25591SOL    HW294766   7.009   4.410  11.186  0.5349 -0.3848 -0.0267
25592SOL     OW94767   9.518   2.854   5.805  0.3639  0.0813 -0.0467
25592SOL    HW194768   9.499   2.774   5.756  1.3667  0.1513 -0.5798
25592SOL    HW294769   9.573   2.825   5.877  0.9867  0.3285 -0.4187
25593SOL     OW94770   1.316   2.291   8.665  0.2473  0.5761  0.0927
25593SOL    HW194771   1.295   2.214   8.718  1.3599 -0.5043 -0.9506
25593SOL    HW294772   1.238   2.305   8.610 -0.0702  0.3655  0.4866
25594SOL     OW94773  12.908   6.340   2.601 -0.0799  0.7322  0.2177
25594SOL    HW194774  12.930   6.390   2.522  2.5660  0.5399  0.7340
25594SOL    HW294775  12.865   6.403   2.658  0.1421  1.5136 -0.4632
25595SOL     OW94776   1.542  12.356  13.909  0.0352  0.0740  0.3423
25595SOL    HW194777   1.477  12.319  13.968  1.0477  0.1176  1.5071
25595SOL    HW294778   1.585  12.425  13.959  1.6080 -0.5588 -0.0830
25596SOL     OW94779   0.399   0.396  13.333  0.0764 -0.3796 -0.1216
25596SOL    HW194780   0.440   0.438  13.409 -0.1838 -1.9922  0.9721
25596SOL    HW294781   0.306   0.396  13.352 -0.0360 -0.4273 -0.6465
25597SOL     OW94782   5.256  11.588  13.179  0.9532 -0.2506  0.1278
25597SOL    HW194783   5.318  11.553  13.115  1.0497 -0.6564  0.4428
25597SOL    HW294784   5.242  11.517  13.241 -1.1203 -0.7937 -0.8549
25598SOL     OW94785   7.872   9.049   3.136  0.2537  0.5034 -0.4214
25598SOL    HW194786   7.790   9.097   3.122 -0.2320  0.2721  1.3390
25598SOL    HW294787   7.869   8.978   3.072 -0.9307  0.4990 -0.3809
25599SOL     OW94788   9.451   3.536   7.207 -0.9483  0.4062 -0.1669
25599SOL    HW194789   9.467   3.576   7.293  1.2826 -0.1343 -0.2760
25599SOL    HW294790   9.447   3.442   7.225  1.7175  0.0744 -0.8299
25600SOL     OW94791   7.910   3.099   5.576 -0.0250  0.1024  0.3221
25600SOL    HW194792   7.869   3.090   5.662  2.2040 -1.0519  1.3563
25600SOL    HW294793   7.968   3.174   5.585 -0.3755  0.4692 -0.4380
25601SOL     OW94794  13.549   5.285  10.657  0.3905 -0.3051  0.1151
25601SOL    HW194795  13.533   5.379  10.668 -1.0920 -0.4242 -0.7119
25601SOL    HW294796  13.586   5.257  10.741  2.4498  1.2993 -0.1806
25602SOL     OW94797   4.754   1.970  13.597  0.0082 -0.0494 -0.3195
25602SOL    HW194798   4.845   1.964  13.626 -0.5172 -2.3524  1.1156
25602SOL    HW294799   4.702   1.947  13.674 -1.7652  0.3138 -1.3336
25603SOL     OW94800   5.466   0.910   1.569 -0.5618 -0.3897  0.4495
25603SOL    HW194801   5.557   0.934   1.552 -0.7014  0.9227  1.3739
25603SOL    HW294802   5.420   0.927   1.487 -0.5842  2.3721  0.9355
25604SOL     OW94803   9.968   9.067   0.581 -0.5700 -0.1479  0.4638
25604SOL    HW194804   9.903   9.123   0.624 -2.0530 -0.6256 -1.0475
25604SOL    HW294805   9.936   9.057   0.491  1.4852 -0.6193 -0.2814
25605SOL     OW94806   4.703   0.515   1.809  0.0607  0.3596  0.1882
25605SOL    HW194807   4.636   0.538   1.744 -0.2812 -0.3541  0.2706
25605SOL    HW294808   4.653   0.481   1.883  0.5351 -2.9019 -0.8098
25606SOL     OW94809  11.295   8.473   7.578 -0.1778 -0.2483 -0.1260
25606SOL    HW194810  11.380   8.506   7.606  0.5222  0.5771 -2.8743
25606SOL    HW294811  11.237   8.549   7.581 -0.3766 -0.4131  0.1725
25607SOL     OW94812   6.646   2.157   3.339  0.5067  0.2315 -0.3738
25607SOL    HW194813   6.562   2.190   3.373  1.1700  1.9393 -0.2977
25607SOL    HW294814   6.689   2.235   3.304  1.1669 -0.9659 -2.3488
25608SOL     OW94815  11.806  13.611  13.909  0.1924 -0.2635 -0.0703
25608SOL    HW194816  11.876  13.629  13.972 -0.0843  2.0583 -0.3350
25608SOL    HW294817  11.770  13.526  13.937  2.2523 -0.9140  0.8145
25609SOL     OW94818   0.265   7.510  10.514  0.8435 -0.6044 -0.1187
25609SOL    HW194819   0.220   7.443  10.463 -1.0896 -0.0514  0.7725
25609SOL    HW294820   0.333   7.542  10.455 -1.4727  0.2340 -2.5674
25610SOL     OW94821   3.300   8.265  12.475 -0.2681  0.1258  0.0662
25610SOL    HW194822   3.222   8.211  12.484  0.6136 -1.5806 -1.8982
25610SOL    HW294823   3.296   8.299  12.386  1.3216 -0.1549 -0.1406
25611SOL     OW94824  12.587   0.166  14.063 -0.2296  0.0237 -0.0288
25611SOL    HW194825  12.579   0.158  13.968  0.2881  0.0457 -0.0728
25611SOL    HW294826  12.583   0.261  14.080 -0.5892  0.0068 -0.0011
25612SOL     OW94827   6.203   3.551   4.071 -0.4109 -0.2377 -0.0819
25612SOL    HW194828   6.126   3.576   4.018 -0.8011 -0.6041  0.3038
25612SOL    HW294829   6.271   3.533   4.007 -0.5552  0.3766 -0.4257
25613SOL     OW94830   3.498   6.002  12.820  0.1059  0.7873  0.1554
25613SOL    HW194831   3.452   6.023  12.901 -1.8611 -1.0848 -0.4045
25613SOL    HW294832   3.431   6.007  12.751  1.5163  1.3962 -1.2499
25614SOL     OW94833  13.704   8.733  10.704  0.2203 -0.2836  0.5906
25614SOL    HW194834  13.661   8.673  10.643  0.1296  1.0364 -0.7005
25614SOL    HW294835  13.745   8.799  10.648 -0.6242  1.5045  1.9570
25615SOL     OW94836   0.265   1.101   3.768 -0.0885  0.3620 -0.2403
25615SOL    HW194837   0.233   1.105   3.858 -0.2925 -2.5477 -0.0680
25615SOL    HW294838   0.209   1.161   3.719 -1.5622  0.2068  1.1751
25616SOL     OW94839   1.291   0.892  10.520 -0.4596  0.1755 -0.3004
25616SOL    HW194840   1.310   0.816  10.464  0.3390 -0.5306  0.8911
25616SOL    HW294841   1.376   0.933  10.535 -0.6102  0.1488  0.6721
25617SOL     OW94842   6.582  10.367   5.894 -0.1764  0.3133  0.5788
25617SOL    HW194843   6.499  10.380   5.939 -0.2896 -1.3743  0.9090
25617SOL    HW294844   6.636  10.316   5.955  0.2032 -0.7194 -0.5711
25618SOL     OW94845   4.705  12.874   6.506 -0.5871  0.6994 -0.0360
25618SOL    HW194846   4.715  12.790   6.461 -0.9821 -0.3923  1.8080
25618SOL    HW294847   4.612  12.894   6.499 -0.2910  1.7466 -1.6650
25619SOL     OW94848   5.331  13.212   1.473 -0.2984  0.2626 -0.1880
25619SOL    HW194849   5.332  13.139   1.535 -0.1653  0.6733  0.3070
25619SOL    HW294850   5.305  13.288   1.526  0.6743  0.7932 -0.4438
25620SOL     OW94851   4.485   9.352  13.636  0.0441 -0.2600  0.6424
25620SOL    HW194852   4.542   9.328  13.709  0.6818 -0.5889  0.0445
25620SOL    HW294853   4.406   9.298  13.649  1.2132 -2.3292 -0.3474
25621SOL     OW94854   6.289  12.188   5.360 -0.3762  0.8022  0.3969
25621SOL    HW194855   6.325  12.123   5.420 -0.8970  3.1007  3.4299
25621SOL    HW294856   6.358  12.202   5.295  0.1230 -1.9635  0.2311
25622SOL     OW94857   9.934  13.002  13.425  0.2465  0.8175 -0.2625
25622SOL    HW194858   9.995  13.075  13.436  1.0593  0.0032  0.9663
25622SOL    HW294859   9.927  12.963  13.512 -0.2905 -0.4729 -0.8476
25623SOL     OW94860  10.773   7.880   0.528  0.3053 -1.0098  0.3090
25623SOL    HW194861  10.817   7.960   0.500 -0.1209 -1.5442 -2.1727
25623SOL    HW294862  10.813   7.857   0.611  1.3807  1.0326  0.4017
25624SOL     OW94863   4.657   6.485  13.525 -0.6067  0.1048  0.1493
25624SOL    HW194864   4.653   6.445  13.612 -1.8043  1.1231  0.6072
25624SOL    HW294865   4.671   6.578  13.542  2.0445 -0.0397 -0.8834
25625SOL     OW94866   1.556   6.201  14.108 -0.1580 -0.1017 -0.2484
25625SOL    HW194867   1.583   6.139  14.040  1.4755  0.5918 -0.2766
25625SOL    HW294868   1.633   6.212  14.163 -0.1361  2.4214 -0.6477
25626SOL     OW94869   9.937   6.570  10.554  0.1437 -0.7927 -0.4310
25626SOL    HW194870   9.884   6.549  10.477 -0.9634  2.2848 -0.6298
25626SOL    HW294871  10.025   6.582  10.518 -0.0792 -0.7463 -0.9794
25627SOL     OW94872  10.349   2.348   8.920 -0.4648 -0.1684 -0.5478
25627SOL    HW194873  10.350   2.443   8.912 -1.1292 -0.0436  0.5722
25627SOL    HW294874  10.371   2.331   9.012  2.2677 -1.2239 -1.3061
25628SOL     OW94875   4.932   0.063   9.663  0.1423  0.3844  0.1293
25628SOL    HW194876   4.870   0.125   9.701  1.2070  0.3286  2.0558
25628SOL    HW294877   5.015   0.110   9.660  0.6321 -0.4436  0.2300
25629SOL     OW94878   0.555   9.700   6.411  0.2039  0.6990  0.7540
25629SOL    HW194879   0.497   9.692   6.487 -0.2101  1.1898  0.5051
25629SOL    HW294880   0.637   9.661   6.438 -0.8688 -1.9884  0.4192
25630SOL     OW94881  13.606   0.039   1.648 -0.3982 -0.8987 -0.2626
25630SOL    HW194882  13.653   0.021   1.730 -1.0250 -1.5458 -0.0305
25630SOL    HW294883  13.569  -0.046   1.624 -1.3650 -0.4218 -0.4934
25631SOL     OW94884   0.087  12.764  12.344  0.1711  0.2342 -0.3064
25631SOL    HW194885   0.060  12.672  12.341 -0.7453  0.3813  1.5694
25631SOL    HW294886   0.163  12.770  12.286  0.3272 -1.7243 -0.3476
25632SOL     OW94887  11.013   6.173   8.828  0.2039  0.0771  0.7478
25632SOL    HW194888  11.042   6.153   8.917 -0.2949 -0.0317  0.8879
25632SOL    HW294889  11.092   6.204   8.783 -0.1387  3.4468  2.1903
25633SOL     OW94890   5.384   0.512   7.057  0.4461  0.3346 -0.4590
25633SOL    HW194891   5.428   0.428   7.044  1.3011  0.8624 -1.0582
25633SOL    HW294892   5.310   0.491   7.114  0.1784 -0.9686 -1.2207
25634SOL     OW94893  10.346   3.169   9.212  0.0524  0.1556  0.3494
25634SOL    HW194894  10.389   3.085   9.225 -1.4559 -0.5671  0.8401
25634SOL    HW294895  10.272   3.168   9.273  0.6574  2.3260  1.2487
25635SOL     OW94896  12.047   1.942   4.978 -0.1094 -0.0446  0.5229
25635SOL    HW194897  12.077   1.980   5.061 -0.4357 -1.7864  1.4812
25635SOL    HW294898  12.127   1.920   4.932  0.1503  3.0053 -0.7292
25636SOL     OW94899  13.930   7.573   0.496  0.4772  0.3767 -0.1768
25636SOL    HW194900  13.896   7.558   0.584 -0.4081 -1.7992 -0.8138
25636SOL    HW294901  13.900   7.661   0.473 -1.3594  0.0679  0.8190
25637SOL     OW94902  12.780   7.096   0.484 -0.1839  0.1625  0.1885
25637SOL    HW194903  12.869   7.129   0.470  0.3078 -1.5193 -0.8861
25637SOL    HW294904  12.789   7.001   0.487 -2.3398 -0.3858 -3.7809
25638SOL     OW94905   8.361   6.560   8.956 -0.2239 -0.1015 -1.3891
25638SOL    HW194906   8.337   6.523   9.041 -1.0649 -0.2450 -1.6819
25638SOL    HW294907   8.350   6.655   8.968 -1.8435 -0.2152 -1.7752
25639SOL     OW94908  12.513   5.517   7.343  0.6265 -0.2386 -0.4027
25639SOL    HW194909  12.592   5.494   7.392 -0.0478  1.8428  1.8699
25639SOL    HW294910  12.530   5.605   7.310 -1.1221  0.7516  1.1666
25640SOL     OW94911  10.759   0.496   7.797 -0.5248 -0.0800 -0.1122
25640SOL    HW194912  10.824   0.437   7.836  0.4312  0.0537 -1.4325
25640SOL    HW294913  10.689   0.501   7.862  0.2661 -1.1316  0.8607
25641SOL     OW94914   6.036   2.600   2.344 -0.0925  0.2930  0.2528
25641SOL    HW194915   6.098   2.527   2.345  0.7057  0.9534 -0.5647
25641SOL    HW294916   6.089   2.678   2.359 -0.9279  0.7354  1.0127
25642SOL     OW94917  12.848   2.024  12.593 -0.2653  0.1107 -0.2775
25642SOL    HW194918  12.815   2.034  12.683 -1.6353 -1.5001 -0.5708
25642SOL    HW294919  12.871   2.114  12.567  0.7575  0.5654  1.8672
25643SOL     OW94920   1.438   6.441  14.153  0.4405  0.3890  0.4929
25643SOL    HW194921   1.464   6.357  14.114 -0.1869  0.1307  0.6173
25643SOL    HW294922   1.498   6.453  14.226  0.7822  0.2389  0.2404
25644SOL     OW94923   9.146   9.151  13.200 -0.1226  0.0422  0.8953
25644SOL    HW194924   9.125   9.165  13.107 -0.3658  1.2566  1.1188
25644SOL    HW294925   9.065   9.117  13.238 -0.1002 -0.2158  0.7151
25645SOL     OW94926   2.379   1.348   8.778 -0.3563  0.3696 -0.2023
25645SOL    HW194927   2.322   1.408   8.728 -2.4271 -0.4360  1.0621
25645SOL    HW294928   2.341   1.262   8.763  0.1252 -0.1109  1.2356
25646SOL     OW94929  13.808   1.088   4.186  0.0407 -0.3304 -0.1190
25646SOL    HW194930  13.857   1.016   4.225  1.3730  0.1151 -0.9036
25646SOL    HW294931  13.836   1.165   4.234  0.6016  0.0136 -0.9776
25647SOL     OW94932   8.320  10.284  10.017  0.1808 -0.1619 -0.2788
25647SOL    HW194933   8.246  10.246  10.064  0.2775  0.8009  0.6810
25647SOL    HW294934   8.378  10.209  10.000  0.2300 -0.5332  1.3062
25648SOL     OW94935  11.710   3.111  10.386 -0.5310 -0.7725 -0.1238
25648SOL    HW194936  11.733   3.057  10.462  0.6242  2.4259  2.0087
25648SOL    HW294937  11.794   3.141  10.351 -1.1161  0.8684 -0.2275
25649SOL     OW94938  11.892   3.575  13.720  0.2832  1.2860  0.0925
25649SOL    HW194939  11.818   3.527  13.682  0.6697  2.2022 -1.9191
25649SOL    HW294940  11.920   3.520  13.794 -0.7295 -0.4100 -0.7049
25650SOL     OW94941   1.418   5.675  11.291  0.5972  0.2220 -0.0896
25650SOL    HW194942   1.455   5.750  11.246  0.6237 -0.8508 -1.9513
25650SOL    HW294943   1.493   5.621  11.315  0.5088  0.1974  0.1324
25651SOL     OW94944   1.488   5.329   9.514  0.1617 -0.3064 -0.1747
25651SOL    HW194945   1.503   5.403   9.573 -2.5784 -0.4065  0.7840
25651SOL    HW294946   1.407   5.352   9.467  0.6118 -1.6146 -1.6808
25652SOL     OW94947  11.479   9.324   6.720 -0.0520  0.1398  0.6938
25652SOL    HW194948  11.408   9.348   6.661 -0.1856  0.1712  0.8662
25652SOL    HW294949  11.511   9.407   6.755 -0.2512  0.0948  0.9854
25653SOL     OW94950  14.027   2.179  10.614 -0.1709 -0.6885 -0.2789
25653SOL    HW194951  14.045   2.100  10.666  0.1066 -0.3507  0.1433
25653SOL    HW294952  14.092   2.242  10.643  0.0818 -0.5412 -1.1587
25654SOL     OW94953   8.866   2.747  11.255  0.0047 -0.0967 -0.6980
25654SOL    HW194954   8.838   2.824  11.305 -2.1138 -0.8086 -0.6575
25654SOL    HW294955   8.958   2.762  11.237  0.1993  1.4228  1.1790
25655SOL     OW94956   2.761  13.788  11.618  1.2635  0.2514 -0.2772
25655SOL    HW194957   2.821  13.781  11.692  0.5727  1.1666  0.3970
25655SOL    HW294958   2.675  13.768  11.656  1.2064 -1.9180 -1.3975
25656SOL     OW94959  11.753  13.068   2.880  0.1351 -0.3849 -0.1094
25656SOL    HW194960  11.734  13.122   2.804  1.4525  0.1723 -0.0747
25656SOL    HW294961  11.672  13.068   2.931 -0.8754 -1.0470 -1.6503
25657SOL     OW94962   9.164  12.750   9.044 -0.4064 -0.6877  0.0954
25657SOL    HW194963   9.194  12.751   8.953 -0.7137 -0.7672 -0.0077
25657SOL    HW294964   9.094  12.816   9.047  1.5292  1.4569  0.9465
25658SOL     OW94965  10.404   1.780  14.141 -0.0651  0.6220  0.0056
25658SOL    HW194966  10.397   1.862  14.092 -0.3962  0.5495 -0.0752
25658SOL    HW294967  10.391   1.806  14.233 -1.2732  0.5271 -0.1191
25659SOL     OW94968  13.488   4.851  10.350 -0.3141  0.3710  0.3305
25659SOL    HW194969  13.408   4.904  10.344 -0.1026  0.7028  0.3883
25659SOL    HW294970  13.495   4.808  10.265 -0.1380  0.9532  0.0403
25660SOL     OW94971   5.279  10.440  12.637 -0.2643  0.1312  0.0701
25660SOL    HW194972   5.294  10.384  12.713  0.7914 -0.0758 -0.2719
25660SOL    HW294973   5.225  10.388  12.578  0.0474 -0.2253  0.0968
25661SOL     OW94974  12.855   7.900   6.594  0.8060 -0.0703 -0.4733
25661SOL    HW194975  12.880   7.846   6.669 -0.9704 -0.1450  0.1167
25661SOL    HW294976  12.844   7.988   6.631  2.9520  0.5935 -1.2847
25662SOL     OW94977   1.239  10.047   2.775 -0.4242 -0.4458 -0.0546
25662SOL    HW194978   1.295   9.969   2.772  1.1700  0.6552  0.2842
25662SOL    HW294979   1.187  10.042   2.694  1.4145 -0.5905 -1.2831
25663SOL     OW94980   5.956  13.821   9.193  0.6540 -0.0957 -0.0895
25663SOL    HW194981   5.928  13.906   9.227 -0.4044  0.9277 -3.1896
25663SOL    HW294982   6.050  13.830   9.180  1.3172 -0.8922  3.2512
25664SOL     OW94983   6.497  10.550  10.872 -0.2571 -0.0890 -0.0949
25664SOL    HW194984   6.492  10.593  10.787  1.3414 -0.2318 -0.3001
25664SOL    HW294985   6.435  10.597  10.927 -0.9813  0.2927 -1.2166
25665SOL     OW94986  10.631  10.881   9.727 -0.1778  0.1167 -0.4207
25665SOL    HW194987  10.601  10.960   9.682  0.5796  1.4000  1.2303
25665SOL    HW294988  10.553  10.849   9.772 -0.7093 -0.6415 -1.8063
25666SOL     OW94989   4.717   5.665  12.164  0.0374  0.4309  0.5879
25666SOL    HW194990   4.687   5.755  12.155 -0.3072  0.2858  0.2596
25666SOL    HW294991   4.789   5.656  12.101 -0.3223  0.3067  0.1919
25667SOL     OW94992  13.701  13.554  10.164 -0.0220 -0.2173 -0.0534
25667SOL    HW194993  13.620  13.577  10.118  0.3005  0.7181 -0.1877
25667SOL    HW294994  13.764  13.620  10.134 -0.2616  1.6262  3.0653
25668SOL     OW94995   7.099   8.816   9.282  0.3709  0.0457  0.4228
25668SOL    HW194996   7.049   8.836   9.361  0.0076 -1.1833  0.5307
25668SOL    HW294997   7.109   8.721   9.284 -0.8738 -0.1949 -1.7220
25669SOL     OW94998  13.577   8.376   0.906 -0.1054  0.0669 -0.0621
25669SOL    HW194999  13.587   8.339   0.819  2.3621  2.7899 -1.1068
25669SOL    HW295000  13.654   8.345   0.954 -1.5531 -1.5928  1.3280
25670SOL     OW95001  13.387   2.858   8.873  0.1772 -0.6414  0.7718
25670SOL    HW195002  13.393   2.886   8.965  1.4122 -0.2708  0.5970
25670SOL    HW295003  13.476   2.866   8.840 -0.3542 -0.2543 -0.6233
25671SOL     OW95004   9.292   2.908  12.273  0.0479  0.2151 -0.3215
25671SOL    HW195005   9.280   2.815  12.252  1.8678 -0.2895  0.6131
25671SOL    HW295006   9.262   2.917  12.363  2.6780 -0.2345  0.6979
25672SOL     OW95007   2.333  11.532   6.486 -0.1133  0.5623 -0.2362
25672SOL    HW195008   2.381  11.509   6.566 -0.6583 -0.0352 -0.0689
25672SOL    HW295009   2.317  11.448   6.443  0.4672  0.9094 -1.1553
25673SOL     OW95010   5.903   1.945   3.452  0.2501  0.1014 -0.0161
25673SOL    HW195011   5.836   1.877   3.447 -1.0900  1.3861 -0.3451
25673SOL    HW295012   5.966   1.922   3.384  0.4891 -1.4627  0.7037
25674SOL     OW95013   7.782   7.584   4.682  0.2073  0.0653  0.2932
25674SOL    HW195014   7.818   7.580   4.771  0.3337  1.1246  0.3064
25674SOL    HW295015   7.835   7.651   4.639 -0.2783  0.0150 -0.3850
25675SOL     OW95016   2.075   9.988   4.885  0.3014  0.0955  0.2905
25675SOL    HW195017   2.109   9.991   4.795  0.2562 -0.7683  0.2347
25675SOL    HW295018   2.043  10.077   4.901 -0.0274  0.1647 -0.6782
25676SOL     OW95019  12.385  13.088   8.588  0.0274  0.0901  0.0388
25676SOL    HW195020  12.460  13.074   8.529 -0.3063 -1.3226 -0.0736
25676SOL    HW295021  12.313  13.042   8.546 -0.9048  1.3420  0.2130
25677SOL     OW95022   4.963  13.969  10.514  0.0624  0.6124 -0.2036
25677SOL    HW195023   4.950  13.975  10.609  0.5859  0.4418 -0.1216
25677SOL    HW295024   4.980  14.059  10.487  1.2000  0.4872  0.0556
25678SOL     OW95025   0.735  11.852   9.766  0.1553  0.1720 -0.5463
25678SOL    HW195026   0.742  11.766   9.809 -0.2727  0.2241 -0.3608
25678SOL    HW295027   0.651  11.848   9.721 -0.2417  0.7870  0.1272
25679SOL     OW95028   1.338   2.053  11.605 -0.2978 -0.3105 -0.2148
25679SOL    HW195029   1.259   2.071  11.657  0.1473  2.5941 -0.3870
25679SOL    HW295030   1.399   2.014  11.667 -1.4414 -1.4943  0.2069
25680SOL     OW95031  13.406  13.826   6.650  0.3752  0.4968 -0.1216
25680SOL    HW195032  13.470  13.810   6.720  1.9422 -2.1848 -1.9771
25680SOL    HW295033  13.445  13.894   6.596 -0.0191  1.3291  0.6217
25681SOL     OW95034   4.057   2.734   7.678  0.7362 -0.2223 -0.0136
25681SOL    HW195035   4.089   2.644   7.677 -0.4125 -0.6495 -0.7325
25681SOL    HW295036   4.085   2.769   7.762  3.4552 -0.3970 -0.7524
25682SOL     OW95037  10.419   6.638   3.810  0.7969  0.7817 -0.2480
25682SOL    HW195038  10.380   6.723   3.831  0.8569  0.9672 -0.8692
25682SOL    HW295039  10.380   6.577   3.873 -1.3966  0.7338 -1.5675
25683SOL     OW95040   5.619   6.406   5.045 -0.0612  0.6595 -0.4305
25683SOL    HW195041   5.635   6.431   4.954  1.9787 -0.7155 -0.5232
25683SOL    HW295042   5.692   6.445   5.094 -0.1429 -0.0970  0.3155
25684SOL     OW95043   3.462  11.342   9.507  0.2562  0.3120  0.4095
25684SOL    HW195044   3.509  11.388   9.437  1.0833 -0.5167  0.4010
25684SOL    HW295045   3.451  11.253   9.474  1.6627 -0.4150  1.7381
25685SOL     OW95046   9.280   5.722   5.206 -0.4974  0.3740  0.2255
25685SOL    HW195047   9.372   5.730   5.230 -0.3505  0.4737 -0.3614
25685SOL    HW295048   9.273   5.768   5.122 -1.3716  1.6657  0.9684
25686SOL     OW95049  13.022   4.539   8.272  0.4306 -0.3167  1.1502
25686SOL    HW195050  12.963   4.474   8.233 -0.0847  1.8978 -2.1843
25686SOL    HW295051  13.104   4.491   8.287  0.1289 -1.7667 -1.3553
25687SOL     OW95052   6.940   8.295  11.467 -0.3183 -0.0950  0.1574
25687SOL    HW195053   6.865   8.269  11.414 -0.7639  0.3252  0.5737
25687SOL    HW295054   6.953   8.221  11.527  2.8023 -2.5601 -3.1376
25688SOL     OW95055  10.132   9.425   0.381  0.0232  0.2127  0.0667
25688SOL    HW195056  10.120   9.370   0.303 -0.7489  0.6375 -0.1295
25688SOL    HW295057  10.110   9.514   0.351  0.1335  0.4452  0.6623
25689SOL     OW95058   4.725   2.516   1.394 -0.5109 -0.1531  0.0196
25689SOL    HW195059   4.759   2.520   1.305 -1.0103 -1.0620 -0.2235
25689SOL    HW295060   4.754   2.598   1.434  1.7517 -0.7384 -0.2425
25690SOL     OW95061   0.047   5.460   7.471  0.1154 -0.6207 -0.0236
25690SOL    HW195062   0.102   5.390   7.438  1.9541  1.4666 -1.7436
25690SOL    HW295063   0.051   5.451   7.566  0.2554 -2.7922 -0.1911
25691SOL     OW95064  13.361  12.842   6.397  0.1684 -0.4713  0.0050
25691SOL    HW195065  13.435  12.864   6.453  1.3558 -0.2708 -1.5676
25691SOL    HW295066  13.401  12.816   6.314 -1.5445  0.6201 -1.2208
25692SOL     OW95067   5.939   6.292   7.330 -0.0779  0.3289  0.3758
25692SOL    HW195068   5.928   6.216   7.387 -0.1366 -0.5990 -0.8361
25692SOL    HW295069   5.986   6.356   7.384  1.8827 -1.3587  0.7562
25693SOL     OW95070  12.867  11.688   4.188 -0.5097 -0.4218 -0.2912
25693SOL    HW195071  12.773  11.702   4.199 -0.8720 -3.1984  1.3337
25693SOL    HW295072  12.899  11.668   4.276  1.5211 -0.0821 -0.8853
25694SOL     OW95073   3.720   0.236   1.730 -0.4597  0.1519  0.2943
25694SOL    HW195074   3.648   0.293   1.756 -1.7898 -0.0864 -2.5715
25694SOL    HW295075   3.799   0.284   1.754 -1.4264  0.2415  3.9359
25695SOL     OW95076   9.566  13.599   3.093  0.0908 -0.2964 -0.3365
25695SOL    HW195077   9.615  13.521   3.069 -2.9339 -3.0676  1.6740
25695SOL    HW295078   9.500  13.568   3.154 -3.4350  3.2763 -1.9098
25696SOL     OW95079   1.925  11.287   4.230  0.6165 -0.3631  0.0045
25696SOL    HW195080   1.900  11.270   4.320  0.2048  0.2552  0.0171
25696SOL    HW295081   1.854  11.341   4.195  0.1256 -1.6548 -1.0766
25697SOL     OW95082   6.365   0.856  11.580  0.2013 -0.5190 -0.1110
25697SOL    HW195083   6.360   0.787  11.514 -0.5615  0.9692 -1.7049
25697SOL    HW295084   6.277   0.859  11.618 -0.5202  1.0360 -1.7174
25698SOL     OW95085   0.796   3.897   1.751 -0.2899 -0.1288 -0.6722
25698SOL    HW195086   0.858   3.966   1.776 -0.4879 -0.3245  0.3654
25698SOL    HW295087   0.765   3.924   1.664 -0.0489  0.8743 -0.4582
25699SOL     OW95088  12.631   1.977   3.969 -0.1593  0.8441  0.2351
25699SOL    HW195089  12.645   1.981   4.064 -1.2534 -1.8567  0.5918
25699SOL    HW295090  12.718   1.989   3.931  0.5558  0.3709  1.6671
25700SOL     OW95091   3.528   7.207   8.860  0.1733 -1.0169  0.2453
25700SOL    HW195092   3.492   7.294   8.839  1.4745 -0.3408  0.7211
25700SOL    HW295093   3.576   7.182   8.781  1.7261 -0.2530  0.9140
25701SOL     OW95094   7.795   4.555  11.299  0.1544  0.1430 -0.3389
25701SOL    HW195095   7.736   4.537  11.226 -0.5951 -2.5981  0.8104
25701SOL    HW295096   7.756   4.629  11.344 -2.7107 -1.7651  0.5606
25702SOL     OW95097  11.092   6.376   0.392  0.5030  0.0014  0.5279
25702SOL    HW195098  11.005   6.415   0.379  0.4397 -0.7368 -1.6587
25702SOL    HW295099  11.153   6.441   0.356  0.7459 -0.0904  0.7700
25703SOL     OW95100  10.575   1.727  11.597  0.4484  0.0526  0.2484
25703SOL    HW195101  10.637   1.664  11.634  0.7936  0.1215 -0.2004
25703SOL    HW295102  10.616   1.812  11.611  0.6435  0.0695 -0.4001
25704SOL     OW95103   1.799  11.393   9.956 -0.6036 -0.5788 -0.3637
25704SOL    HW195104   1.719  11.343   9.973 -1.7338  0.9869 -0.8894
25704SOL    HW295105   1.771  11.464   9.899  1.4182 -0.7236 -1.6479
25705SOL     OW95106   7.962   5.091   0.024 -0.1111  0.4747 -0.2426
25705SOL    HW195107   7.899   5.123  -0.041  0.4434 -0.2252 -1.1443
25705SOL    HW295108   7.909   5.072   0.101 -1.1942 -1.1034 -1.3308
25706SOL     OW95109   6.862   0.086   2.071 -0.6395 -0.1912  0.0266
25706SOL    HW195110   6.945   0.105   2.026  0.7864 -1.0794  2.1402
25706SOL    HW295111   6.798   0.078   2.000  1.3085 -0.6897 -1.7856
25707SOL     OW95112   2.776   2.645   7.882 -0.0801 -0.0839 -0.0422
25707SOL    HW195113   2.736   2.646   7.969 -1.4612 -0.4989 -0.6387
25707SOL    HW295114   2.837   2.719   7.882 -2.4077  1.9586  0.2150
25708SOL     OW95115   9.974   0.167   7.418 -0.2615  0.0493 -0.0367
25708SOL    HW195116  10.016   0.112   7.352  1.1813  1.4248 -0.3422
25708SOL    HW295117  10.018   0.144   7.500 -0.3653  0.0218  0.0105
25709SOL     OW95118   6.393  11.846   0.480  0.0775 -0.3129 -0.7459
25709SOL    HW195119   6.457  11.799   0.426 -0.4080 -3.2035  0.9459
25709SOL    HW295120   6.311  11.797   0.468 -0.8627  0.9821  0.0888
25710SOL     OW95121   0.830   9.833   3.981  0.2484 -0.2663  0.4745
25710SOL    HW195122   0.905   9.852   3.925 -1.2487 -0.2192 -1.6745
25710SOL    HW295123   0.860   9.763   4.040  1.6430 -1.0533 -1.0825
25711SOL     OW95124   4.956   3.695   1.978  0.0568 -0.4460 -0.2965
25711SOL    HW195125   4.879   3.642   1.959 -1.3866  1.7000 -0.7268
25711SOL    HW295126   5.006   3.696   1.896 -1.6398  1.5468 -1.3798
25712SOL     OW95127  10.452  12.779   6.409 -0.2714  0.6747  0.9511
25712SOL    HW195128  10.439  12.714   6.479 -0.6147  1.5681  1.7498
25712SOL    HW295129  10.536  12.820   6.430  0.1006  0.2641  0.2627
25713SOL     OW95130   2.337   2.077   7.302 -0.1706  0.8286  0.3756
25713SOL    HW195131   2.411   2.107   7.356 -0.7241 -1.1277  2.3301
25713SOL    HW295132   2.260   2.091   7.357 -0.8098 -0.8176 -0.0562
25714SOL     OW95133  10.892   2.009   9.774 -0.0773  0.1465 -1.0804
25714SOL    HW195134  10.870   1.966   9.691 -0.8372  0.1733 -0.9016
25714SOL    HW295135  10.847   1.958   9.841 -0.7387  1.0124 -0.8352
25715SOL     OW95136  13.183   5.479  13.275 -0.3342  0.4427 -0.3780
25715SOL    HW195137  13.230   5.472  13.358  1.2027 -0.4368 -1.2781
25715SOL    HW295138  13.221   5.556  13.232  0.1693 -0.1528 -1.0227
25716SOL     OW95139   5.882   4.300   9.177  0.1464 -0.2908  0.0395
25716SOL    HW195140   5.885   4.386   9.221 -0.4454 -0.8949  1.3224
25716SOL    HW295141   5.932   4.313   9.096  0.9578  0.9815  0.7010
25717SOL     OW95142   1.716  12.894  13.153 -0.6099 -0.3201 -0.6611
25717SOL    HW195143   1.710  12.830  13.223 -0.8694  0.9399  0.5066
25717SOL    HW295144   1.634  12.944  13.158 -0.2342  0.3855 -1.2407
25718SOL     OW95145  12.390  13.727   8.181  0.1832 -0.1343 -0.0910
25718SOL    HW195146  12.303  13.762   8.196  0.0624 -0.7962  0.8974
25718SOL    HW295147  12.381  13.633   8.197  0.9077 -0.3285 -0.7514
25719SOL     OW95148   3.980   6.451   2.529 -0.4496  0.8295 -0.3020
25719SOL    HW195149   4.009   6.542   2.524  0.1974  0.6184 -0.4282
25719SOL    HW295150   4.025   6.407   2.457 -1.7522  0.6685 -1.0503
25720SOL     OW95151   2.820   9.132   3.751  0.1421 -0.0303  0.2490
25720SOL    HW195152   2.869   9.213   3.758  0.8350 -0.2505 -1.4114
25720SOL    HW295153   2.728   9.159   3.746  0.3049  0.5832  0.5360
25721SOL     OW95154  11.338   9.216  10.579 -0.1214 -0.1319  0.3840
25721SOL    HW195155  11.269   9.171  10.627 -1.7634  0.6206 -1.1753
25721SOL    HW295156  11.335   9.178  10.491  0.5456  0.8626 -0.0904
25722SOL     OW95157   1.987   4.989   0.893  0.1658 -0.2552  0.1781
25722SOL    HW195158   1.912   5.038   0.928  0.1394 -1.7216  2.3538
25722SOL    HW295159   1.986   5.008   0.800 -3.1102 -0.4387  0.0575
25723SOL     OW95160   0.359  11.358  11.073  0.3049 -0.3482 -0.6334
25723SOL    HW195161   0.373  11.452  11.062 -0.6395 -0.3645 -2.1892
25723SOL    HW295162   0.399  11.319  10.995  0.3494 -1.2179 -0.1859
25724SOL     OW95163   5.658   2.204   4.365  0.0582  0.0595  0.3436
25724SOL    HW195164   5.725   2.259   4.325  0.2207  0.2415  0.8676
25724SOL    HW295165   5.577   2.253   4.353  0.1415  0.2240  0.4502
25725SOL     OW95166   2.503   7.943   8.268  0.4439  0.3905  0.2548
25725SOL    HW195167   2.468   7.952   8.356 -0.2051  1.6523 -0.1046
25725SOL    HW295168   2.577   8.004   8.266  0.9141 -0.1781  0.1450
25726SOL     OW95169  11.862   1.888   2.783  0.0400  0.5596 -0.0803
25726SOL    HW195170  11.841   1.980   2.797  0.4300  0.5322  0.7621
25726SOL    HW295171  11.777   1.843   2.788 -0.3960  1.0285 -2.2131
25727SOL     OW95172   6.662   8.749   1.579 -0.0136  0.0058  0.0948
25727SOL    HW195173   6.712   8.821   1.617  2.6480 -1.5206 -0.2600
25727SOL    HW295174   6.717   8.716   1.508 -2.2735 -0.8493 -1.3730
25728SOL     OW95175   0.145  10.247  10.500  0.2887  0.3209 -0.0604
25728SOL    HW195176   0.230  10.265  10.459 -0.3784  2.1063 -0.7398
25728SOL    HW295177   0.118  10.163  10.463  1.4689  0.0353 -0.3058
25729SOL     OW95178  13.336   5.389   2.530 -0.2189 -0.3506  0.1871
25729SOL    HW195179  13.392   5.462   2.504  0.7174 -1.4620 -1.1274
25729SOL    HW295180  13.378   5.353   2.608  0.1464 -0.3384  0.0018
25730SOL     OW95181   5.842  13.065   0.841  0.4112 -0.0222 -0.3070
25730SOL    HW195182   5.849  13.158   0.821  1.8193 -0.1105 -0.3679
25730SOL    HW295183   5.857  13.060   0.935  2.6314 -0.3435 -0.6219
25731SOL     OW95184   1.070  12.014   0.483 -0.0344 -0.5750 -0.4869
25731SOL    HW195185   1.165  12.006   0.488  0.5504  2.4296 -3.0514
25731SOL    HW295186   1.047  11.979   0.396 -0.9137  0.6065 -0.7650
25732SOL     OW95187   0.139   9.572   8.843 -0.0315 -0.6720  0.3577
25732SOL    HW195188   0.195   9.573   8.766 -0.4236  0.2170  0.0727
25732SOL    HW295189   0.200   9.575   8.917  0.3078  0.3996  0.0513
25733SOL     OW95190  13.886  12.091   2.202  0.7986  0.1832 -0.1334
25733SOL    HW195191  13.974  12.105   2.168  1.0128 -0.3957  0.1613
25733SOL    HW295192  13.859  12.006   2.166  0.0500  0.6984 -0.8421
25734SOL     OW95193   4.117   9.958   9.016  0.5326 -0.1564 -0.3633
25734SOL    HW195194   4.176   9.956   9.092  0.0923  2.5568  0.1542
25734SOL    HW295195   4.176   9.955   8.940  1.2683  1.0066  0.1329
25735SOL     OW95196   3.491   7.934   5.303  0.2777  0.1603  0.4053
25735SOL    HW195197   3.487   7.880   5.383 -0.1590 -1.2606 -0.5380
25735SOL    HW295198   3.411   7.913   5.256 -0.7533  2.9248  0.7277
25736SOL     OW95199   4.436  10.076   2.738  0.2137 -0.3356 -0.0023
25736SOL    HW195200   4.436  10.046   2.647  0.0157 -2.4479  0.6207
25736SOL    HW295201   4.375  10.016   2.782 -0.5304  1.3272  1.3212
25737SOL     OW95202   2.708   4.849  12.066  0.1485 -0.0479  0.2728
25737SOL    HW195203   2.616   4.847  12.090 -0.3576 -1.0602 -1.5729
25737SOL    HW295204   2.747   4.775  12.114 -0.4349 -0.8541 -0.4655
25738SOL     OW95205   0.432   6.842   9.017 -0.1602 -0.6376 -0.2431
25738SOL    HW195206   0.491   6.882   8.953  0.4557 -2.4727 -0.8915
25738SOL    HW295207   0.478   6.762   9.045 -2.0923 -1.8746 -0.3830
25739SOL     OW95208   0.722   9.163   7.424 -0.0824  0.7621 -0.2994
25739SOL    HW195209   0.645   9.201   7.467 -0.5482 -0.4256 -0.0511
25739SOL    HW295210   0.686   9.112   7.352  0.4641  0.0941 -0.1059
25740SOL     OW95211  12.118  13.164   5.971 -0.3490  0.5852  0.3335
25740SOL    HW195212  12.141  13.073   5.953 -1.5566  0.2852  0.2210
25740SOL    HW295213  12.048  13.184   5.909 -0.6286  1.3390  0.8743
25741SOL     OW95214   6.174   7.055  13.860  0.3873  0.5010  0.0412
25741SOL    HW195215   6.177   7.147  13.835  1.1720  0.8608  1.3823
25741SOL    HW295216   6.087   7.026  13.832  1.0252  0.9167 -2.7202
25742SOL     OW95217   9.268  13.745  12.705  0.2715  0.0918  0.0606
25742SOL    HW195218   9.302  13.671  12.755  0.0285 -0.4351 -0.5396
25742SOL    HW295219   9.230  13.706  12.626 -1.4888  0.6697  0.5638
25743SOL     OW95220  12.162  10.912   0.211  0.1943 -0.0823  0.7425
25743SOL    HW195221  12.141  10.986   0.155  1.9111 -0.2962 -0.2600
25743SOL    HW295222  12.081  10.892   0.257 -0.6913  1.4451 -0.1015
25744SOL     OW95223  12.533  14.010   6.174  0.1227 -0.1309 -0.3833
25744SOL    HW195224  12.500  13.980   6.259  3.0795 -0.6251  0.6960
25744SOL    HW295225  12.481  14.088   6.155 -1.4232 -0.6766  1.2778
25745SOL     OW95226  10.698   0.874  13.448  0.3393 -0.0869 -0.3771
25745SOL    HW195227  10.685   0.914  13.362  1.2917 -2.5019 -1.7428
25745SOL    HW295228  10.778   0.822  13.438  0.4176 -0.5061  1.9547
25746SOL     OW95229   9.566  13.107   4.563  0.2868 -0.2104  0.0244
25746SOL    HW195230   9.519  13.162   4.625  1.8703 -1.8574  2.8903
25746SOL    HW295231   9.643  13.158   4.537  0.0992  0.1365  0.1545
25747SOL     OW95232   4.777   8.705   3.541  0.2464  0.3756 -0.2081
25747SOL    HW195233   4.810   8.792   3.561  1.6215  0.1900 -1.4940
25747SOL    HW295234   4.833   8.674   3.470 -0.6609 -1.2816 -0.2466
25748SOL     OW95235   5.356   7.654   4.202 -0.2885 -0.3887  0.5974
25748SOL    HW195236   5.435   7.656   4.148 -0.4120  0.8652  0.4409
25748SOL    HW295237   5.310   7.575   4.173 -0.1926  0.0741 -0.9131
25749SOL     OW95238   1.792  12.174   5.388  0.1822  0.1667 -0.4832
25749SOL    HW195239   1.871  12.204   5.434  0.1990 -0.2722 -0.2230
25749SOL    HW295240   1.738  12.134   5.456  0.5200 -1.1226 -0.9462
25750SOL     OW95241   8.542   7.406   6.642  0.2651 -0.0835 -0.0007
25750SOL    HW195242   8.634   7.406   6.668  0.1699  0.2827  0.3400
25750SOL    HW295243   8.495   7.437   6.719 -0.3037 -1.8099  0.3945
25751SOL     OW95244   6.440   2.061   2.751  0.1602  0.0955  0.2722
25751SOL    HW195245   6.455   2.058   2.846 -0.4543 -1.0889  0.3562
25751SOL    HW295246   6.380   1.988   2.735 -0.6106  0.9691 -0.8785
25752SOL     OW95247   7.561  10.899   0.863 -0.3894 -0.2774 -0.1606
25752SOL    HW195248   7.468  10.879   0.871 -0.0931 -1.5553  0.4248
25752SOL    HW295249   7.589  10.850   0.785 -0.4702  1.2050 -1.1524
25753SOL     OW95250  13.405   7.242   8.846 -0.2505 -0.2413 -0.4798
25753SOL    HW195251  13.360   7.195   8.776 -2.0848  1.0257 -0.2403
25753SOL    HW295252  13.387   7.334   8.829  2.3640  0.3756 -0.3546
25754SOL     OW95253   0.097   7.153   8.286  0.2182  0.3203  0.5361
25754SOL    HW195254   0.084   7.156   8.191  0.5634  1.4745  0.5203
25754SOL    HW295255   0.023   7.101   8.318  0.6430 -0.9382 -0.4500
25755SOL     OW95256   4.861   6.753   2.241  0.1149  0.7983 -0.1472
25755SOL    HW195257   4.857   6.737   2.146  0.0970 -2.3647  0.2713
25755SOL    HW295258   4.950   6.785   2.256  0.9218 -0.9103 -1.0261
25756SOL     OW95259  12.625  10.719  13.282 -0.2558 -0.4941  0.5301
25756SOL    HW195260  12.615  10.812  13.299 -0.5317 -0.0414 -1.8104
25756SOL    HW295261  12.571  10.677  13.349 -1.4002  1.1045  0.6806
25757SOL     OW95262  13.144   2.017  10.414  0.0914  0.2913  0.4415
25757SOL    HW195263  13.108   1.930  10.432 -2.5016  1.3813  1.0549
25757SOL    HW295264  13.164   2.017  10.321  1.6659 -1.4365  0.7411
25758SOL     OW95265   7.204   3.809   8.972 -0.2016 -0.0491  0.3654
25758SOL    HW195266   7.161   3.729   9.001  0.5371 -0.7303 -0.3599
25758SOL    HW295267   7.190   3.811   8.877  1.3900 -0.3325  0.1009
25759SOL     OW95268   1.079   0.054  11.786 -0.4681  0.7730 -0.5437
25759SOL    HW195269   1.134   0.072  11.710  0.8653  3.6198  0.9443
25759SOL    HW295270   1.128  -0.012  11.835  0.8723  2.0922 -0.0478
25760SOL     OW95271   9.167  11.014   3.672 -0.0359 -0.5812  0.4768
25760SOL    HW195272   9.230  11.024   3.743 -0.8113 -0.8107  1.2067
25760SOL    HW295273   9.167  11.099   3.628  0.2364 -0.3492  0.9203
25761SOL     OW95274  13.475  12.306   6.447 -0.0470 -0.4067 -0.0658
25761SOL    HW195275  13.404  12.364   6.472 -1.9763 -0.9992 -3.5866
25761SOL    HW295276  13.444  12.218   6.469  0.3356 -0.5474 -0.0692
25762SOL     OW95277   4.915  13.792   9.098  0.7416  0.1126 -0.0852
25762SOL    HW195278   4.824  13.815   9.118  0.2412 -1.1680 -0.7901
25762SOL    HW295279   4.956  13.784   9.184 -0.9484 -3.6131  0.5591
25763SOL     OW95280  13.299   1.492   8.324 -0.3034 -0.5795  0.3433
25763SOL    HW195281  13.314   1.551   8.399 -0.1130  0.1320 -0.2403
25763SOL    HW295282  13.246   1.544   8.264  0.5051 -0.7274 -0.5146
25764SOL     OW95283  11.613   6.428   5.683 -0.2498 -0.4215  0.1679
25764SOL    HW195284  11.557   6.504   5.666  1.4300  0.9308  0.4840
25764SOL    HW295285  11.588   6.365   5.614  0.1830  1.4649 -1.8391
25765SOL     OW95286   2.986   1.851   6.318 -0.1685  0.4712  0.0293
25765SOL    HW195287   3.010   1.765   6.353 -0.0631 -0.1278 -1.4503
25765SOL    HW295288   2.907   1.875   6.366 -0.1506 -0.3984  0.5237
25766SOL     OW95289  12.942   0.685   3.991 -0.1978  0.9301  0.4099
25766SOL    HW195290  12.848   0.701   3.997 -0.1723  1.1162  0.3307
25766SOL    HW295291  12.951   0.619   3.922 -0.2309  1.3132  0.0309
25767SOL     OW95292  14.133   9.517  13.612 -0.1119 -0.0748  0.1514
25767SOL    HW195293  14.102   9.608  13.612  1.2171  0.3990  0.8640
25767SOL    HW295294  14.104   9.481  13.696 -1.3305 -0.5951 -0.4547
25768SOL     OW95295   8.015   4.033   4.728 -0.2393 -0.0749 -0.4781
25768SOL    HW195296   7.955   3.959   4.740 -0.3504  0.3122  1.8927
25768SOL    HW295297   8.085   4.017   4.791  0.8471  0.7770 -1.4378
25769SOL     OW95298   1.908   8.476   4.573 -0.5259 -0.0264  0.2575
25769SOL    HW195299   1.849   8.538   4.529  0.0948 -0.3274 -1.0683
25769SOL    HW295300   1.992   8.520   4.574 -0.0530 -0.8525 -0.7894
25770SOL     OW95301   7.997  11.954  10.897 -0.7643 -0.2610  0.6152
25770SOL    HW195302   7.977  11.951  10.803 -0.8347 -1.8491  0.6475
25770SOL    HW295303   8.085  11.990  10.902  0.0676 -2.0303 -0.2549
25771SOL     OW95304   1.389  10.838   9.250 -0.2030  0.2088  0.0921
25771SOL    HW195305   1.408  10.913   9.194 -0.1602  1.4866  1.7628
25771SOL    HW295306   1.465  10.780   9.239  0.1912  0.8315 -0.5223
25772SOL     OW95307   4.126   7.152   4.621  0.5047 -0.0436 -0.0644
25772SOL    HW195308   4.142   7.222   4.684 -1.4113  0.0777  0.3507
25772SOL    HW295309   4.135   7.071   4.672  0.2640  0.0077  0.0628
25773SOL     OW95310   1.422   7.710   8.363  0.0147 -0.7367  0.6087
25773SOL    HW195311   1.442   7.753   8.280 -0.3837  0.0464  0.9040
25773SOL    HW295312   1.505   7.710   8.411 -0.2606  1.0631  1.1910
25774SOL     OW95313  12.008  14.054   2.810 -0.0257  0.0015 -0.3748
25774SOL    HW195314  12.068  14.104   2.865 -0.2148 -0.9676  0.7294
25774SOL    HW295315  12.063  14.016   2.742  0.2704  0.8399 -0.6181
25775SOL     OW95316   3.607   9.206   4.606 -0.0253  0.1756 -0.5672
25775SOL    HW195317   3.698   9.214   4.634 -0.3647 -0.4690  0.8498
25775SOL    HW295318   3.560   9.273   4.657 -0.5708 -0.6003 -0.0197
25776SOL     OW95319   5.533   8.949   1.647  0.2941 -0.0926  0.4297
25776SOL    HW195320   5.624   8.978   1.648 -0.3405  2.3685  3.3398
25776SOL    HW295321   5.502   8.969   1.559  2.0737  0.7793 -0.0400
25777SOL     OW95322   7.066   0.377   1.613 -0.0600 -0.1363  0.1627
25777SOL    HW195323   7.147   0.411   1.651 -0.1638  2.0372 -1.3433
25777SOL    HW295324   7.093   0.341   1.528 -0.8136  2.1283 -1.1116
25778SOL     OW95325   4.067   2.269   0.624 -0.2095  0.0887  0.4322
25778SOL    HW195326   4.085   2.228   0.540 -0.9719 -1.0777  0.8115
25778SOL    HW295327   4.064   2.363   0.605  0.2037 -0.1199 -0.7188
25779SOL     OW95328   0.747   0.634  13.224  0.0577  0.1811 -0.6777
25779SOL    HW195329   0.792   0.688  13.159 -0.4658  0.0605 -1.1501
25779SOL    HW295330   0.664   0.611  13.182 -0.2083 -0.0477 -0.0325
25780SOL     OW95331  11.190   2.620   1.075  0.8860 -0.0184 -0.1028
25780SOL    HW195332  11.139   2.607   0.996  0.2227  0.5253  0.2296
25780SOL    HW295333  11.281   2.610   1.047  0.5968 -1.2568 -0.6460
25781SOL     OW95334  14.034   5.034   1.912  0.2096 -0.2743 -0.5330
25781SOL    HW195335  14.023   4.973   1.840  0.4577 -0.6127 -0.2871
25781SOL    HW295336  14.119   5.012   1.949  0.1880  0.0533 -0.2820
25782SOL     OW95337  13.854   2.683   3.050 -0.8124 -0.1969  0.2907
25782SOL    HW195338  13.760   2.686   3.034 -1.0580 -0.0305  1.6051
25782SOL    HW295339  13.887   2.765   3.013 -1.2175 -0.1502  0.0200
25783SOL     OW95340   3.296   9.097   8.787  0.0256 -0.3453 -0.0019
25783SOL    HW195341   3.306   9.013   8.830 -0.4213 -0.9735 -1.0860
25783SOL    HW295342   3.341   9.159   8.844  1.2254 -1.4645  0.3003
25784SOL     OW95343  13.775   9.114   9.406  0.0665  0.2801 -0.0823
25784SOL    HW195344  13.859   9.160   9.408  0.3513 -0.2523  1.3458
25784SOL    HW295345  13.798   9.023   9.387 -0.2452  0.2300 -0.2325
25785SOL     OW95346   9.972   5.744   3.061 -0.0313  0.1713  0.1873
25785SOL    HW195347   9.940   5.732   2.972 -0.5041  4.5813 -0.4480
25785SOL    HW295348  10.062   5.711   3.059  0.1992  0.7808 -2.1126
25786SOL     OW95349   1.475  12.825   6.733  0.5446 -0.3888  0.0267
25786SOL    HW195350   1.417  12.897   6.757  1.8950  0.6023  0.4743
25786SOL    HW295351   1.479  12.770   6.811 -1.6223 -1.8005 -0.7819
25787SOL     OW95352   1.746  13.303   4.231  0.2400 -0.1263 -0.4892
25787SOL    HW195353   1.667  13.281   4.182  0.4153 -0.5126 -0.6075
25787SOL    HW295354   1.763  13.226   4.285  0.2989  0.1227 -0.1487
25788SOL     OW95355  12.768   3.056   2.512 -0.4028  0.1727  0.3306
25788SOL    HW195356  12.712   3.056   2.590  0.2418 -0.6014  0.8086
25788SOL    HW295357  12.773   3.148   2.486  0.3244  0.6123  1.9063
25789SOL     OW95358   8.282   0.424   0.046 -0.2835 -0.1470  0.7188
25789SOL    HW195359   8.198   0.412   0.002  1.0705 -1.6699 -1.6632
25789SOL    HW295360   8.258   0.449   0.136 -3.2518 -0.9341  0.2722
25790SOL     OW95361   1.343   3.830  12.910  0.1043 -0.3988 -0.1652
25790SOL    HW195362   1.352   3.817  13.004  3.2421 -0.8175 -0.4407
25790SOL    HW295363   1.313   3.920  12.901 -0.3237 -0.3801  1.2108
25791SOL     OW95364   1.318  11.310  10.746  0.2475  0.0296 -0.4927
25791SOL    HW195365   1.297  11.221  10.774 -0.3309  0.1378 -0.5739
25791SOL    HW295366   1.367  11.300  10.665  3.0812 -0.3650  1.1391
25792SOL     OW95367  11.357  11.209  12.597 -0.1751  0.2353 -0.4976
25792SOL    HW195368  11.340  11.119  12.624  1.5904  0.9845  3.9141
25792SOL    HW295369  11.440  11.205  12.551 -0.1499 -0.3800 -0.4067
25793SOL     OW95370  14.107  13.439   7.531  0.5638 -0.0102 -0.7611
25793SOL    HW195371  14.047  13.506   7.564  1.1487 -0.0151  0.3379
25793SOL    HW295372  14.194  13.470   7.555  0.9605 -0.3838 -1.6748
25794SOL     OW95373   9.233   3.694   0.951  0.1898 -0.3284 -0.7794
25794SOL    HW195374   9.244   3.689   1.046 -0.4605 -0.8425 -0.7268
25794SOL    HW295375   9.148   3.735   0.939  0.0364 -0.7455 -1.1371
25795SOL     OW95376  11.027   3.524  13.315 -0.6747 -0.1964 -0.6849
25795SOL    HW195377  11.021   3.548  13.407 -1.9803  1.1271 -1.0662
25795SOL    HW295378  11.006   3.605  13.268  1.4460 -0.4294 -2.1882
25796SOL     OW95379   7.862   0.316   9.249 -0.1406 -0.0428 -0.6081
25796SOL    HW195380   7.794   0.376   9.219 -0.3757 -0.4005 -0.8013
25796SOL    HW295381   7.941   0.369   9.255 -0.6128  0.5843  0.4489
25797SOL     OW95382   5.101   9.651   5.255  0.0816  0.0826 -0.2307
25797SOL    HW195383   5.195   9.642   5.272  0.0015  0.6065  0.5730
25797SOL    HW295384   5.064   9.565   5.275  0.4127 -0.1974 -0.7846
25798SOL     OW95385  11.413   9.686  11.169  1.0369 -0.1027 -0.0641
25798SOL    HW195386  11.346   9.697  11.101  1.6794 -0.6948 -0.8107
25798SOL    HW295387  11.465   9.767  11.164 -0.4284  0.9989  1.4755
25799SOL     OW95388   4.275   9.184  10.464  0.0979 -0.4701  0.7207
25799SOL    HW195389   4.223   9.259  10.491 -0.1713 -0.6545  0.7236
25799SOL    HW295390   4.352   9.221  10.422 -0.9054 -0.1781 -0.9955
25800SOL     OW95391   9.443   9.762  12.669 -0.3047 -0.0903 -0.0747
25800SOL    HW195392   9.497   9.688  12.642 -1.1552 -0.6772 -0.1820
25800SOL    HW295393   9.402   9.733  12.751  0.8922  1.0120  0.9681
25801SOL     OW95394  12.540   1.189   6.191 -0.3072  0.2692 -0.8496
25801SOL    HW195395  12.562   1.266   6.244  1.8115 -0.3469 -0.7438
25801SOL    HW295396  12.604   1.123   6.216 -2.1239 -1.6010 -0.8933
25802SOL     OW95397  13.021  10.075   2.470  0.3389 -0.0213  0.3139
25802SOL    HW195398  13.115  10.075   2.453  0.4509  2.3178  0.6920
25802SOL    HW295399  13.001   9.984   2.491  3.0011 -0.1550  2.8444
25803SOL     OW95400  12.458   9.466  10.726 -0.1341  0.4028 -0.2480
25803SOL    HW195401  12.437   9.548  10.681 -0.2870  0.0451 -0.8525
25803SOL    HW295402  12.527   9.489  10.788 -0.4641  1.0680 -0.1189
25804SOL     OW95403   8.114   3.653   4.735  0.3725  0.2967 -0.6851
25804SOL    HW195404   8.086   3.567   4.766  0.0018  0.9975  1.0638
25804SOL    HW295405   8.197   3.669   4.781  0.0231  1.2008 -0.3448
25805SOL     OW95406   7.600   5.865   8.734 -0.3315  0.7327  0.0631
25805SOL    HW195407   7.610   5.879   8.640 -0.7656 -2.0619 -0.4755
25805SOL    HW295408   7.687   5.837   8.763 -0.3048  1.1875  0.4406
25806SOL     OW95409   8.797  12.629   4.521 -0.5325  0.7356 -0.1602
25806SOL    HW195410   8.809  12.711   4.473  0.0976  0.5628 -0.3011
25806SOL    HW295411   8.738  12.578   4.466  0.0659  0.5988 -0.6813
25807SOL     OW95412   0.669   6.203  10.005  0.1955  0.3525  1.0607
25807SOL    HW195413   0.684   6.125  10.058 -1.4033 -1.5795 -1.0842
25807SOL    HW295414   0.626   6.265  10.063  2.4222  0.1219  3.1096
25808SOL     OW95415   1.730   7.020  13.237  0.2173  0.5857 -0.2079
25808SOL    HW195416   1.706   7.112  13.245  0.3797  0.6896 -0.8336
25808SOL    HW295417   1.813   7.021  13.189  1.6237  0.2615  2.0612
25809SOL     OW95418   2.627   2.360   6.986 -0.4886  0.4165  0.5731
25809SOL    HW195419   2.532   2.366   6.976 -0.2191  1.4396 -1.9814
25809SOL    HW295420   2.662   2.428   6.928  1.8496 -0.7832  0.4545
25810SOL     OW95421   5.205   0.603   1.419 -0.0184  0.8573 -0.5057
25810SOL    HW195422   5.213   0.607   1.514 -1.1044  0.6915 -0.4015
25810SOL    HW295423   5.295   0.589   1.388  0.4160  1.4512  0.4566
25811SOL     OW95424  12.772   0.289  10.619  0.6727 -0.1672  0.0151
25811SOL    HW195425  12.820   0.213  10.652 -0.2566 -0.8649 -0.2213
25811SOL    HW295426  12.839   0.340  10.572  0.9509 -1.8156 -1.5079
25812SOL     OW95427   3.065   8.005   2.294  0.5728 -0.1231 -0.1141
25812SOL    HW195428   3.117   7.977   2.219  0.4617  0.7237 -0.5300
25812SOL    HW295429   2.975   8.008   2.260 -0.1702 -3.6327  1.1571
25813SOL     OW95430   7.045   3.049   2.763  0.4925  0.1781  0.1949
25813SOL    HW195431   6.968   3.070   2.817 -0.4855 -1.4623 -0.5048
25813SOL    HW295432   7.020   2.971   2.715  2.2548  0.1983 -0.8254
25814SOL     OW95433   7.215   7.014  11.365 -0.5059  0.3638 -0.0510
25814SOL    HW195434   7.221   6.941  11.426  0.1449  0.5235  0.0892
25814SOL    HW295435   7.139   6.995  11.311  0.0480 -0.7668 -0.4552
25815SOL     OW95436   2.633   4.752  10.428  0.3057 -0.0887 -0.6095
25815SOL    HW195437   2.623   4.833  10.378 -0.4085  0.1161 -0.1524
25815SOL    HW295438   2.544   4.716  10.434  0.5593 -0.7000 -0.4758
25816SOL     OW95439   3.196   0.402  14.104  0.2873  0.1853 -0.1951
25816SOL    HW195440   3.132   0.456  14.058  0.6381 -0.0111 -0.9387
25816SOL    HW295441   3.166   0.400  14.195 -0.8345 -0.0079 -0.5566
25817SOL     OW95442  11.777   5.568  13.679  0.5711  0.3882  0.8033
25817SOL    HW195443  11.861   5.530  13.702  1.3758  1.3638 -0.4039
25817SOL    HW295444  11.746   5.609  13.760  0.7237 -0.9036  1.5331
25818SOL     OW95445   6.050  10.154   6.241 -0.0238  0.0061 -0.0491
25818SOL    HW195446   6.051  10.171   6.335 -0.8049 -0.6275  0.0880
25818SOL    HW295447   5.975  10.096   6.228  0.3157 -0.2392 -1.0098
25819SOL     OW95448  11.139   5.035   1.924 -0.2421 -0.0569  0.4194
25819SOL    HW195449  11.188   5.088   1.987 -0.3897 -1.3719  1.6840
25819SOL    HW295450  11.130   5.092   1.847  0.5669  1.3279  1.3044
25820SOL     OW95451   0.294   8.813   7.521  0.0229 -0.0977  0.4004
25820SOL    HW195452   0.362   8.880   7.513 -0.1412  0.0959  0.6225
25820SOL    HW295453   0.225   8.841   7.460 -0.4952  0.4898  1.2288
25821SOL     OW95454   8.952   0.077  13.084  0.7625  0.6639  0.1816
25821SOL    HW195455   8.991   0.115  13.163  0.3251  0.7111  0.3786
25821SOL    HW295456   8.858   0.093  13.093  0.5300 -0.6244  0.3700
25822SOL     OW95457   7.837  13.490  13.194 -0.7391 -0.5296  0.0941
25822SOL    HW195458   7.800  13.478  13.107 -1.2403 -0.1731  0.2525
25822SOL    HW295459   7.906  13.555  13.183 -0.1655 -1.1716 -0.1977
25823SOL     OW95460   0.620   4.179   1.209 -0.1390  0.8574 -0.4061
25823SOL    HW195461   0.604   4.087   1.187 -0.7647  0.8784 -0.0523
25823SOL    HW295462   0.689   4.175   1.276 -0.4320  0.6229 -0.1148
25824SOL     OW95463   3.120  12.023  10.160  0.6064 -0.3101 -0.2005
25824SOL    HW195464   3.043  11.996  10.210  2.3188 -0.0863  2.8246
25824SOL    HW295465   3.170  11.943  10.146  1.2493 -0.0727  0.6052
25825SOL     OW95466   9.394  13.178  10.804  0.0482  0.2349  0.0091
25825SOL    HW195467   9.356  13.119  10.869  1.4012 -0.2770  0.3543
25825SOL    HW295468   9.378  13.265  10.839  0.6505 -0.0305  0.9832
25826SOL     OW95469   8.803   0.863   2.989  0.1937 -0.1246  0.3353
25826SOL    HW195470   8.800   0.780   2.942  0.4235 -0.2615  0.5656
25826SOL    HW295471   8.827   0.840   3.079  1.1437  0.2768  0.1963
25827SOL     OW95472   3.714   2.967  11.166 -0.0556  0.7156 -0.0818
25827SOL    HW195473   3.782   3.028  11.137  3.0033 -1.7754  1.3064
25827SOL    HW295474   3.718   2.970  11.262  2.1304 -3.3263  0.1703
25828SOL     OW95475   8.669  12.670   5.835 -0.3311  0.0872  0.0603
25828SOL    HW195476   8.665  12.575   5.837  0.9816 -0.1686 -3.1999
25828SOL    HW295477   8.579  12.698   5.821 -0.5602 -0.7530 -0.1685
25829SOL     OW95478  14.016  12.071   5.107  0.2333 -0.1931 -0.0707
25829SOL    HW195479  13.975  12.009   5.047 -0.3354 -1.4616  1.5614
25829SOL    HW295480  14.094  12.027   5.138  1.0329  0.8370 -0.5518
25830SOL     OW95481   0.207   3.023  11.655  0.0403  0.5088  0.3636
25830SOL    HW195482   0.194   2.928  11.645  1.2726  0.5554 -2.6045
25830SOL    HW295483   0.293   3.031  11.696 -0.7531  0.3892  2.1401
25831SOL     OW95484  12.929   0.799   0.398  0.8726  0.1936  0.3017
25831SOL    HW195485  13.012   0.752   0.406  1.5697  1.0862 -1.1602
25831SOL    HW295486  12.898   0.809   0.488  2.4800  0.0505  0.9015
25832SOL     OW95487  11.242  14.013   3.387 -0.5150 -0.2907 -0.2855
25832SOL    HW195488  11.333  14.000   3.361 -0.2967 -1.1160  0.8045
25832SOL    HW295489  11.226  14.106   3.370  1.1039  0.3119  1.1045
25833SOL     OW95490   8.947   1.761   0.409  0.0527 -0.7715  0.0572
25833SOL    HW195491   9.022   1.733   0.461 -0.2334  0.3070  1.0921
25833SOL    HW295492   8.960   1.854   0.393 -0.0637 -0.9950 -1.5170
25834SOL     OW95493  13.001  13.659   1.789 -0.1173  0.3733  0.2390
25834SOL    HW195494  12.927  13.619   1.835 -1.6987  1.3535 -1.3447
25834SOL    HW295495  13.051  13.702   1.858 -1.7990  0.8717  1.1941
25835SOL     OW95496   1.378   5.564   5.159 -0.0355  0.2212  0.1668
25835SOL    HW195497   1.361   5.557   5.253  1.1780 -0.5090  0.3539
25835SOL    HW295498   1.403   5.655   5.146 -3.2746  1.2335 -0.0401
25836SOL     OW95499   3.683  13.731   8.952 -0.8512 -0.0259 -0.5395
25836SOL    HW195500   3.695  13.655   8.894  0.5523  0.3988 -0.8486
25836SOL    HW295501   3.623  13.700   9.020  0.0708 -1.5709 -0.3838
25837SOL     OW95502   5.278  13.390   1.679  0.0115 -0.3810 -0.1830
25837SOL    HW195503   5.193  13.345   1.686 -0.4849  0.2620 -1.7458
25837SOL    HW295504   5.335  13.342   1.739 -1.0530 -1.8034 -0.2488
25838SOL     OW95505   8.737   3.913   3.357 -0.2474  0.0754  0.1770
25838SOL    HW195506   8.685   3.975   3.306 -0.4915  0.0445  0.3861
25838SOL    HW295507   8.803   3.880   3.295 -0.5115  0.0708 -0.1073
25839SOL     OW95508   4.506   7.520   8.500  0.7812 -0.6508  0.6446
25839SOL    HW195509   4.441   7.496   8.566 -0.4095  0.0325 -0.2354
25839SOL    HW295510   4.575   7.563   8.549 -0.0923 -0.1365  1.4599
25840SOL     OW95511   2.823  12.855   5.274  0.3294 -0.1276  0.9681
25840SOL    HW195512   2.911  12.868   5.240  0.2530 -0.3115  0.7037
25840SOL    HW295513   2.829  12.776   5.328  0.4014  0.0424  1.2096
25841SOL     OW95514   0.947   2.484   1.505 -0.6587 -0.4809 -0.5099
25841SOL    HW195515   0.995   2.563   1.480  0.7202 -1.1522 -0.0815
25841SOL    HW295516   0.873   2.516   1.558  0.2253  0.4776  0.1764
25842SOL     OW95517   1.877   9.040   5.563 -0.0787  0.4521 -0.1302
25842SOL    HW195518   1.827   9.120   5.583 -1.0150 -0.0209 -0.4759
25842SOL    HW295519   1.906   9.053   5.473 -2.1921 -0.5285 -1.0172
25843SOL     OW95520  13.978   4.560   0.484 -0.0205 -0.3772  0.2260
25843SOL    HW195521  14.011   4.476   0.453  0.2243 -0.4859  0.7750
25843SOL    HW295522  13.928   4.595   0.410  1.5319 -0.0860 -0.7456
25844SOL     OW95523   0.099   2.421   5.336  0.0017  0.2284  0.0176
25844SOL    HW195524   0.180   2.419   5.285  0.3774  0.5230  0.5882
25844SOL    HW295525   0.094   2.334   5.376 -0.3827 -0.0625 -0.6434
25845SOL     OW95526   1.916   5.486  13.069 -0.4837 -0.0627  0.7580
25845SOL    HW195527   1.888   5.521  12.984 -2.6406 -2.0999  0.5151
25845SOL    HW295528   1.868   5.538  13.133 -1.8211 -0.9056  0.4990
25846SOL     OW95529   9.916  10.274   4.999 -0.0258 -0.0717 -0.1797
25846SOL    HW195530  10.006  10.264   5.030  0.1254  0.9450 -0.2614
25846SOL    HW295531   9.863  10.229   5.065  0.6332 -2.1197 -0.9715
25847SOL     OW95532   8.365   9.387   5.198  0.1175 -0.4016  0.1609
25847SOL    HW195533   8.303   9.329   5.243 -0.8594 -0.0345 -0.6785
25847SOL    HW295534   8.333   9.475   5.216  1.0524 -0.1455  0.6383
25848SOL     OW95535   7.860   8.797   9.319  0.0237 -0.1434 -0.4599
25848SOL    HW195536   7.900   8.881   9.297  3.2642 -1.0905  1.1355
25848SOL    HW295537   7.911   8.765   9.393 -1.5854 -3.1961 -0.4932
25849SOL     OW95538   1.606   6.965  11.948  0.6694  0.1482  0.0020
25849SOL    HW195539   1.591   6.920  11.865  0.4224  0.5117 -0.1564
25849SOL    HW295540   1.693   7.003  11.940  0.5493  0.3860 -0.1889
25850SOL     OW95541   7.793  13.225   7.960  0.0336 -0.1736 -0.2219
25850SOL    HW195542   7.801  13.293   8.027  0.0328 -0.8479  0.4842
25850SOL    HW295543   7.775  13.145   8.010 -3.1333 -0.1990 -1.1568
25851SOL     OW95544   6.309   0.540   9.718  0.5485 -0.7035 -0.2145
25851SOL    HW195545   6.400   0.543   9.689  0.7982  1.4075  0.5704
25851SOL    HW295546   6.312   0.573   9.808 -1.0495 -0.0626 -0.3584
25852SOL     OW95547  10.836   5.248   0.983 -0.7857  0.1365  0.2691
25852SOL    HW195548  10.829   5.249   1.078  1.9124  1.3733  0.5661
25852SOL    HW295549  10.789   5.327   0.955  2.2313  2.4412  1.1272
25853SOL     OW95550   7.606   1.777   5.664 -0.3085 -0.3447 -0.0274
25853SOL    HW195551   7.620   1.716   5.592 -1.1989 -0.1919 -0.3440
25853SOL    HW295552   7.584   1.860   5.621 -2.5388 -0.6554  0.3842
25854SOL     OW95553   4.900  14.145   9.223  0.3702 -0.0458  0.2361
25854SOL    HW195554   4.927  14.087   9.294  0.7884 -0.0374  0.0862
25854SOL    HW295555   4.981  14.165   9.176 -0.0545 -1.0493 -0.9900
25855SOL     OW95556   7.306   3.145   7.670  0.0912  0.3170 -0.1608
25855SOL    HW195557   7.212   3.139   7.684 -0.2298  1.0773 -1.7390
25855SOL    HW295558   7.342   3.065   7.709 -1.0919  0.4317  1.2161
25856SOL     OW95559  11.653   4.698   3.440  0.5361  1.0001 -0.2307
25856SOL    HW195560  11.612   4.718   3.524  2.6518 -1.3311  1.4722
25856SOL    HW295561  11.590   4.643   3.395 -1.2020  3.3504 -0.8921
25857SOL     OW95562   0.877   0.217   2.138 -0.3397 -0.0939 -0.6721
25857SOL    HW195563   0.884   0.147   2.073 -1.9218 -1.5269  0.6121
25857SOL    HW295564   0.793   0.258   2.121 -0.7017 -0.3849  0.3383
25858SOL     OW95565   7.519   4.550   0.905  0.2085 -0.4466 -0.0347
25858SOL    HW195566   7.540   4.531   0.813 -0.4974 -2.1952  0.1303
25858SOL    HW295567   7.541   4.469   0.952 -0.4077  0.0667  1.1848
25859SOL     OW95568  11.917  13.196   5.820 -0.1305 -0.6453 -0.2882
25859SOL    HW195569  11.859  13.252   5.768 -0.5099  1.8561  2.5344
25859SOL    HW295570  11.864  13.118   5.838 -0.8855 -0.4498 -1.5269
25860SOL     OW95571  10.068   3.225   8.073 -0.1623 -0.5535  0.3322
25860SOL    HW195572   9.978   3.193   8.081  0.1683 -1.5543  0.1622
25860SOL    HW295573  10.081   3.282   8.149 -1.6347  1.3508 -0.7601
25861SOL     OW95574  13.928   5.261   5.493  0.5144 -0.5807  0.8607
25861SOL    HW195575  13.967   5.273   5.406  0.2955  0.8590  0.9367
25861SOL    HW295576  13.837   5.289   5.483  0.6060  0.0337  1.6631
25862SOL     OW95577   0.975   0.737   7.586  0.5164 -0.3967 -0.3358
25862SOL    HW195578   0.914   0.721   7.658 -0.4532  0.5610 -0.9142
25862SOL    HW295579   1.008   0.826   7.602 -0.2236  0.0931 -1.4137
25863SOL     OW95580  10.301   7.399   2.899  0.0864 -0.2116 -0.5652
25863SOL    HW195581  10.385   7.354   2.898  0.0367 -0.3045 -0.5925
25863SOL    HW295582  10.298   7.444   2.984  1.1084  1.5983 -1.4198
25864SOL     OW95583   0.836   2.612  12.866  0.1302 -0.1514  0.1623
25864SOL    HW195584   0.927   2.633  12.887  0.0445 -0.2405  0.6430
25864SOL    HW295585   0.787   2.690  12.893  0.0000 -0.3318  0.4627
25865SOL     OW95586  11.378   7.412   0.622  0.0473  0.0101 -0.3138
25865SOL    HW195587  11.399   7.425   0.530 -0.7741  1.2050 -0.3651
25865SOL    HW295588  11.448   7.457   0.669  0.6600 -0.9081 -0.3413
25866SOL     OW95589  13.213   1.853   8.246  0.1484 -0.0738 -0.0132
25866SOL    HW195590  13.179   1.766   8.228  0.3312 -0.2004  0.2522
25866SOL    HW295591  13.257   1.845   8.330 -1.2821  0.6729  0.8565
25867SOL     OW95592   4.798  12.567   0.459 -0.4332 -0.7465  0.4183
25867SOL    HW195593   4.729  12.631   0.441  0.2621  0.3730  1.5472
25867SOL    HW295594   4.840  12.599   0.538 -1.6539 -3.9622  2.5535
25868SOL     OW95595   5.717   7.838  13.263 -0.1399  0.0454  0.0396
25868SOL    HW195596   5.642   7.827  13.205 -0.2563 -1.0509  0.3835
25868SOL    HW295597   5.699   7.780  13.337  1.6779 -1.3060 -0.4978
25869SOL     OW95598   4.317  10.788   2.372  0.6591 -0.9203 -0.1370
25869SOL    HW195599   4.228  10.823   2.372  0.4541 -1.3649  1.4807
25869SOL    HW295600   4.370  10.856   2.414  0.3458 -2.2146  2.5539
25870SOL     OW95601   2.752   9.868  10.254  0.0893 -0.3689 -0.2316
25870SOL    HW195602   2.821   9.814  10.216 -0.1475 -1.1568  0.4113
25870SOL    HW295603   2.798   9.933  10.306  0.3619 -0.6648 -0.0995
25871SOL     OW95604   0.920   8.929  11.575 -0.5821  0.5500 -0.5550
25871SOL    HW195605   1.010   8.933  11.607  0.3974  0.1573 -3.0785
25871SOL    HW295606   0.878   9.006  11.613  1.5032  2.1300 -1.2765
25872SOL     OW95607   3.248   9.035   6.402  0.4776 -0.1393 -0.0724
25872SOL    HW195608   3.233   9.062   6.492 -0.4864 -0.6643 -0.0540
25872SOL    HW295609   3.234   9.114   6.350  2.5780  0.5565  0.3207
25873SOL     OW95610   5.059   2.475   0.102  0.4660  0.6066  0.3141
25873SOL    HW195611   5.005   2.403   0.134 -0.5499  0.4410 -1.6443
25873SOL    HW295612   5.008   2.554   0.121  0.9133  0.7135  1.1277
25874SOL     OW95613   2.912   1.232   7.164 -0.2515  0.5823 -0.3575
25874SOL    HW195614   2.842   1.182   7.206  0.5397  0.2456  0.6284
25874SOL    HW295615   2.978   1.166   7.141 -0.0650  0.9393 -0.8599
25875SOL     OW95616   8.045  11.282   9.505  0.1904 -0.5366 -0.4840
25875SOL    HW195617   8.072  11.359   9.454  0.5511 -0.2110  0.1800
25875SOL    HW295618   8.114  11.272   9.571 -0.4051 -0.7805  0.1144
25876SOL     OW95619   8.152  13.445  13.171 -0.5615 -0.3641 -0.2252
25876SOL    HW195620   8.199  13.406  13.098 -1.8380 -0.3606 -1.0848
25876SOL    HW295621   8.073  13.392  13.180 -0.4746 -0.3079  1.1141
25877SOL     OW95622   9.432   0.536  12.916 -0.3078 -0.3199 -0.4936
25877SOL    HW195623   9.468   0.510  13.001  2.7538  1.8127 -0.9572
25877SOL    HW295624   9.455   0.463  12.857  0.8248 -0.2546 -0.1644
25878SOL     OW95625   8.820  13.152   7.739 -0.0993 -0.3381  0.4385
25878SOL    HW195626   8.834  13.058   7.751  0.3098 -0.3099  0.1753
25878SOL    HW295627   8.881  13.193   7.800  0.4529 -0.2269 -0.1882
25879SOL     OW95628   9.392   6.156   5.596  0.3509  0.5291  0.1471
25879SOL    HW195629   9.315   6.213   5.597  0.6268  0.9016  0.3471
25879SOL    HW295630   9.361   6.073   5.634 -0.1200  0.4533 -0.3916
25880SOL     OW95631   5.629   9.271   8.193 -0.1034 -0.0665 -0.4341
25880SOL    HW195632   5.573   9.197   8.217  1.0840 -0.1988  2.2410
25880SOL    HW295633   5.717   9.234   8.185  0.1484  0.6871 -1.3550
25881SOL     OW95634  12.415   0.878   0.162  0.2593  0.3293 -0.0276
25881SOL    HW195635  12.500   0.920   0.172  0.4496 -0.3638  1.4841
25881SOL    HW295636  12.425   0.793   0.203 -1.3092  0.4339  0.6566
25882SOL     OW95637  12.134  11.378   7.613 -0.7063 -0.3582 -0.4681
25882SOL    HW195638  12.151  11.286   7.632  0.3228 -0.0300  0.3064
25882SOL    HW295639  12.147  11.422   7.697 -2.0101  0.3993 -0.6379
25883SOL     OW95640   6.770  13.435  11.808 -0.2361 -0.2220 -0.0220
25883SOL    HW195641   6.709  13.361  11.808  0.0771 -0.4990 -0.8937
25883SOL    HW295642   6.830  13.416  11.736  1.3691 -0.3479  1.3058
25884SOL     OW95643   2.837   6.195   8.208  0.1728 -0.2979 -0.0565
25884SOL    HW195644   2.906   6.246   8.251 -0.8886  0.7117  0.5024
25884SOL    HW295645   2.756   6.222   8.252 -0.4478 -2.5230  0.3217
25885SOL     OW95646  11.616   5.110   3.262  0.2428  0.5859  0.2015
25885SOL    HW195647  11.530   5.130   3.228 -0.3838 -0.3895  1.1352
25885SOL    HW295648  11.626   5.167   3.339  1.3027  2.1734 -1.0503
25886SOL     OW95649   9.340  12.325  12.391  0.0102 -0.1185 -0.1459
25886SOL    HW195650   9.414  12.316  12.331 -0.4016 -0.9490 -0.5488
25886SOL    HW295651   9.380  12.342  12.476  0.7762 -2.5945  0.0491
25887SOL     OW95652   9.249   0.376   3.157 -0.1256 -0.5661  0.4176
25887SOL    HW195653   9.178   0.338   3.105  1.1689 -1.4295 -0.8138
25887SOL    HW295654   9.216   0.461   3.184 -0.0461  1.2098 -4.1477
25888SOL     OW95655   6.917   3.620   9.438 -0.5917  0.1756  0.0872
25888SOL    HW195656   6.891   3.712   9.432 -0.0846  0.2544 -0.9587
25888SOL    HW295657   7.001   3.614   9.393 -0.8186 -0.8839 -0.2371
25889SOL     OW95658   3.273   9.649   0.909 -0.5312 -0.1309  0.1993
25889SOL    HW195659   3.202   9.705   0.942 -0.2003 -0.1676  1.0058
25889SOL    HW295660   3.234   9.602   0.835 -1.4027 -0.2570  0.7200
25890SOL     OW95661   9.119  10.384   7.811  0.1833 -0.4851 -0.7932
25890SOL    HW195662   9.171  10.316   7.853  0.8807  1.2042  1.2576
25890SOL    HW295663   9.030  10.370   7.845  0.4934  0.1027  0.2970
25891SOL     OW95664   5.045  11.360  10.833 -0.5873  0.2361 -0.2972
25891SOL    HW195665   4.966  11.353  10.886 -0.3261 -1.3022 -0.0626
25891SOL    HW295666   5.107  11.299  10.874 -0.1445 -0.4746 -1.9568
25892SOL     OW95667  10.851  12.906   5.698 -0.3620 -0.0520 -0.5766
25892SOL    HW195668  10.759  12.888   5.713 -0.3620  0.7549  0.4637
25892SOL    HW295669  10.853  12.992   5.655 -0.0019  1.5957  2.4569
25893SOL     OW95670   0.051   4.632   2.214  0.2621  0.1073 -0.0792
25893SOL    HW195671   0.075   4.694   2.145  0.0631  0.2686 -0.0044
25893SOL    HW295672  -0.039   4.655   2.236  0.7696  1.0115  1.2428
25894SOL     OW95673  12.685  11.787   5.975 -0.1946  0.0986  0.3365
25894SOL    HW195674  12.618  11.854   5.958 -0.5315 -0.6188 -1.3555
25894SOL    HW295675  12.768  11.835   5.971 -0.1791  0.0848 -3.9185
25895SOL     OW95676  10.194   8.975   5.755 -0.4051 -0.4452 -0.1954
25895SOL    HW195677  10.198   8.896   5.809  0.0201  0.2818  0.8798
25895SOL    HW295678  10.208   8.944   5.665 -0.1802 -1.5713  0.2112
25896SOL     OW95679   5.988   6.284   6.534 -0.0876  0.2301 -0.2299
25896SOL    HW195680   6.016   6.362   6.486 -0.4475  0.7329  0.3569
25896SOL    HW295681   5.968   6.220   6.467  1.9752 -0.0014 -0.7097
25897SOL     OW95682   8.120   5.161   1.561  0.3459 -0.3470  0.2630
25897SOL    HW195683   8.117   5.257   1.553 -0.0110 -0.3303  0.5629
25897SOL    HW295684   8.130   5.130   1.471 -0.2166 -0.0520  0.0943
25898SOL     OW95685  11.235   4.966   6.123 -0.3119  0.8475  0.2842
25898SOL    HW195686  11.230   4.882   6.168 -0.0319  0.2561 -0.7640
25898SOL    HW295687  11.297   4.952   6.052 -1.7037  1.3598 -1.0961
25899SOL     OW95688   9.499   1.285   5.227 -0.1413 -0.0857 -0.1255
25899SOL    HW195689   9.513   1.322   5.314 -0.8756  0.3214 -0.1744
25899SOL    HW295690   9.472   1.195   5.244 -0.7907  0.1406  0.1017
25900SOL     OW95691  10.366  12.197   9.093  0.0392 -0.6736 -0.6458
25900SOL    HW195692  10.355  12.103   9.081 -0.7829 -0.5683 -0.7339
25900SOL    HW295693  10.360  12.234   9.005  2.1630 -0.6885 -0.8635
25901SOL     OW95694   2.786  13.260  11.488 -0.3025  0.3384 -0.5259
25901SOL    HW195695   2.848  13.232  11.421 -0.5602  0.5857 -0.8720
25901SOL    HW295696   2.776  13.185  11.546  1.5459  0.7908  0.4555
25902SOL     OW95697  13.019  10.735  10.851 -0.3259  1.0034  0.2557
25902SOL    HW195698  12.997  10.815  10.804 -0.2826  1.1947  0.5553
25902SOL    HW295699  13.099  10.756  10.900  1.2610 -0.0472 -1.7327
25903SOL     OW95700   8.791   4.735  10.092  0.3127 -0.0558 -0.3942
25903SOL    HW195701   8.708   4.759  10.052  0.4772 -1.8428 -1.9714
25903SOL    HW295702   8.851   4.721  10.018  2.0928  1.3568  0.7025
25904SOL     OW95703  12.821   9.660   3.542  0.4257 -0.4901  0.1184
25904SOL    HW195704  12.916   9.666   3.535  0.3907 -0.1143 -0.0901
25904SOL    HW295705  12.789   9.673   3.452  0.2203 -1.6811  0.0130
25905SOL     OW95706  10.544  13.582   9.357 -0.0882  0.2521 -0.1495
25905SOL    HW195707  10.575  13.626   9.278  2.9494 -0.7158  0.3633
25905SOL    HW295708  10.588  13.497   9.356 -0.7054 -0.1612  2.0964
25906SOL     OW95709   5.207   8.990   2.877  0.0096  0.1488  0.5794
25906SOL    HW195710   5.289   9.027   2.843  0.2907  0.5390  1.6413
25906SOL    HW295711   5.233   8.904   2.911  0.0760  0.4438  1.2953
25907SOL     OW95712   3.183   9.032   3.609  0.1068 -0.7017 -0.4003
25907SOL    HW195713   3.271   9.069   3.611 -0.2281  0.1229 -0.6600
25907SOL    HW295714   3.191   8.953   3.555  0.9925 -1.4894  0.8012
25908SOL     OW95715  12.832   2.400   4.272  0.0840  0.0229 -0.3990
25908SOL    HW195716  12.865   2.312   4.290  2.1430  0.8668  0.2989
25908SOL    HW295717  12.896   2.438   4.212 -1.0013  0.9180 -1.0328
25909SOL     OW95718  10.450   6.577   7.222  0.3765 -0.0707  0.0093
25909SOL    HW195719  10.377   6.521   7.195  1.0875 -0.7186 -0.5992
25909SOL    HW295720  10.509   6.577   7.147  0.0443  2.1423 -0.3294
25910SOL     OW95721   5.247  11.590   1.819  0.2378 -0.2717 -0.3435
25910SOL    HW195722   5.263  11.537   1.898  3.2043 -1.1519 -1.3727
25910SOL    HW295723   5.241  11.680   1.851 -0.2469 -0.7573  1.0177
25911SOL     OW95724  11.498   2.167  10.084 -0.0313  0.2837 -0.2896
25911SOL    HW195725  11.540   2.213  10.011 -0.3337  1.7068  0.4095
25911SOL    HW295726  11.512   2.224  10.160 -0.5205 -0.7263  0.5877
25912SOL     OW95727   8.890  10.994   4.038 -0.4773  0.5524 -0.4085
25912SOL    HW195728   8.864  11.080   4.007  1.2555  2.7874  3.5074
25912SOL    HW295729   8.982  11.004   4.063 -0.3843 -2.2244  0.7706
25913SOL     OW95730   7.516  12.155   1.336 -0.0096  0.3822 -0.5803
25913SOL    HW195731   7.534  12.196   1.251 -0.4453 -0.3167 -1.0201
25913SOL    HW295732   7.599  12.114   1.361 -0.3914 -1.1977 -1.6895
25914SOL     OW95733  10.408   3.501  13.588 -0.1594 -0.6362 -0.5089
25914SOL    HW195734  10.387   3.547  13.669  0.7362  1.6910 -1.5193
25914SOL    HW295735  10.501   3.481  13.596  0.3941  1.2259 -1.6359
25915SOL     OW95736  12.618   7.185   1.643 -0.1431  0.3464 -0.1772
25915SOL    HW195737  12.540   7.228   1.609 -0.2031 -0.9283 -1.7622
25915SOL    HW295738  12.599   7.091   1.636  1.2112  0.0216  0.1768
25916SOL     OW95739   9.750   5.512   6.286  0.5218  0.0713  0.6023
25916SOL    HW195740   9.668   5.555   6.311  1.2175  0.1719  2.9150
25916SOL    HW295741   9.818   5.560   6.333  2.0185  0.2514 -1.5807
25917SOL     OW95742  10.882   6.637   8.156  0.0379  0.0175  0.5723
25917SOL    HW195743  10.855   6.595   8.074  1.8695 -0.1031 -0.0084
25917SOL    HW295744  10.842   6.583   8.225 -0.0260 -0.9572 -0.2004
25918SOL     OW95745   3.199   1.955   6.756 -0.4577 -0.6953 -0.4122
25918SOL    HW195746   3.172   1.864   6.762 -1.7360 -0.2710  0.6259
25918SOL    HW295747   3.174   1.982   6.667  1.7644 -1.8705 -1.4785
25919SOL     OW95748  11.238   7.775   2.436  0.3512 -0.5109  0.3042
25919SOL    HW195749  11.237   7.679   2.429 -0.6397 -0.6593  2.0298
25919SOL    HW295750  11.146   7.799   2.441  0.6241  0.4863  0.5635
25920SOL     OW95751   7.732   3.254   7.950 -0.2622  0.0432  0.1988
25920SOL    HW195752   7.743   3.243   7.855 -1.6395  0.8715 -0.0754
25920SOL    HW295753   7.641   3.280   7.961  0.0938  0.7740  1.6842
25921SOL     OW95754  12.037   7.995   6.070 -0.1862  0.8022  0.7478
25921SOL    HW195755  12.109   8.057   6.081 -1.9034  2.6756  2.0909
25921SOL    HW295756  12.029   7.952   6.155 -0.2309  0.0743  0.3858
25922SOL     OW95757  12.518   9.159   0.883  0.6272 -0.0973 -0.3481
25922SOL    HW195758  12.507   9.137   0.975  1.2373  0.2649 -0.1880
25922SOL    HW295759  12.597   9.112   0.856  1.6000  1.3729 -0.1591
25923SOL     OW95760   4.711  11.253  10.707  0.0831  0.2139  0.2976
25923SOL    HW195761   4.733  11.345  10.722 -1.1039  0.5384  0.1339
25923SOL    HW295762   4.795  11.207  10.710  0.9639  1.5584 -1.6000
25924SOL     OW95763  11.893  12.612   7.548  0.6335  0.3643 -0.3152
25924SOL    HW195764  11.936  12.610   7.463  0.3087 -1.6670 -0.4902
25924SOL    HW295765  11.820  12.673   7.538  1.1083  0.8005 -1.2124
25925SOL     OW95766   7.735   1.701  13.348  0.1057 -0.4946  0.0848
25925SOL    HW195767   7.684   1.766  13.396 -1.3090 -1.5003  0.0096
25925SOL    HW295768   7.822   1.705  13.387  0.9970  3.3738 -1.6972
25926SOL     OW95769  13.935   3.253   1.750 -0.0893  0.0530 -0.0282
25926SOL    HW195770  13.938   3.176   1.805 -0.6119  1.6370  2.3802
25926SOL    HW295771  13.961   3.222   1.663 -0.0351 -2.7220  0.8862
25927SOL     OW95772  13.718   0.681   3.335  0.6310 -0.7079  0.7477
25927SOL    HW195773  13.669   0.721   3.263  0.0347  1.2308  2.1454
25927SOL    HW295774  13.749   0.597   3.299 -1.9940 -1.1197 -0.8451
25928SOL     OW95775   8.797  13.856  11.074 -0.1189  0.2003 -0.0845
25928SOL    HW195776   8.876  13.859  11.019  0.4612 -0.0916  0.7135
25928SOL    HW295777   8.731  13.901  11.022  0.8275  1.3245 -0.3648
25929SOL     OW95778   6.748   3.275   2.131 -0.5424 -0.0598 -0.0777
25929SOL    HW195779   6.666   3.312   2.097 -0.4428  0.4045  0.1727
25929SOL    HW295780   6.815   3.301   2.068 -0.2806  1.2066  0.6965
25930SOL     OW95781   0.731   1.811   9.635 -0.3856  0.5304  0.9569
25930SOL    HW195782   0.687   1.862   9.703  1.4090 -0.2065  2.7845
25930SOL    HW295783   0.822   1.806   9.664  0.8203  1.3794 -2.2710
25931SOL     OW95784  11.789  13.282   1.784 -0.3339  0.2444  0.2004
25931SOL    HW195785  11.785  13.215   1.852 -0.0429 -0.6829 -0.6805
25931SOL    HW295786  11.705  13.275   1.738 -0.3623  0.5882  0.1960
25932SOL     OW95787  12.803   9.110   2.855  0.6402 -0.5434 -0.0393
25932SOL    HW195788  12.710   9.086   2.852  0.1675  1.2021 -1.1782
25932SOL    HW295789  12.822   9.119   2.948 -0.5853 -0.0472  0.1898
25933SOL     OW95790  12.692   1.503  12.784 -0.2207  0.0949  0.3017
25933SOL    HW195791  12.681   1.413  12.755 -0.2900  0.3496 -0.5144
25933SOL    HW295792  12.699   1.553  12.702  0.7154  0.7135  0.7411
25934SOL     OW95793   9.698   8.408   7.064  0.0240 -0.6928  0.2234
25934SOL    HW195794   9.614   8.452   7.054  0.6454  0.4266 -0.2284
25934SOL    HW295795   9.728   8.434   7.151  1.5046  1.8642 -0.9316
25935SOL     OW95796  10.612  13.306   6.528 -0.1588  0.2412  0.3802
25935SOL    HW195797  10.698  13.340   6.553  0.1037  1.0914 -1.4948
25935SOL    HW295798  10.592  13.239   6.593  2.0787 -0.2206  0.6664
25936SOL     OW95799   3.589   2.337  10.671 -0.3902 -0.6162  0.2951
25936SOL    HW195800   3.499   2.370  10.666 -0.4481 -0.8116  0.0386
25936SOL    HW295801   3.596   2.302  10.760 -1.1917 -2.3589 -0.2736
25937SOL     OW95802   1.250   9.972  12.662  0.3373 -0.7919  0.4766
25937SOL    HW195803   1.265   9.882  12.635  1.3676 -0.2539 -0.8287
25937SOL    HW295804   1.310   9.985  12.736 -1.0989 -1.6748  1.8660
25938SOL     OW95805   5.077   2.842  12.453  0.6424 -0.0465  0.1200
25938SOL    HW195806   5.108   2.764  12.500  0.4717 -0.0392  0.2428
25938SOL    HW295807   5.095   2.914  12.513  3.1492  0.3599 -0.9528
25939SOL     OW95808  12.390   5.624  11.732  0.9430  0.5014  0.5669
25939SOL    HW195809  12.297   5.635  11.711  0.2219 -5.1745 -0.7657
25939SOL    HW295810  12.431   5.599  11.649  2.2009 -3.1236  2.0771
25940SOL     OW95811   9.373   1.863   3.294  0.2826  0.2103 -0.3081
25940SOL    HW195812   9.430   1.864   3.217  1.2476 -0.2757  0.3766
25940SOL    HW295813   9.394   1.944   3.340  1.3726 -0.5424  0.5884
25941SOL     OW95814  10.341   1.553  10.060 -0.3436 -0.2164 -0.1364
25941SOL    HW195815  10.311   1.591   9.977  2.4823  1.3717 -0.5712
25941SOL    HW295816  10.295   1.604  10.127 -1.4000 -0.3877 -0.7119
25942SOL     OW95817   2.122   6.611  13.631 -0.2275  0.0531 -0.4579
25942SOL    HW195818   2.116   6.627  13.537  2.4058 -0.8092 -0.8631
25942SOL    HW295819   2.094   6.520  13.641  1.0838 -0.3933 -0.6899
25943SOL     OW95820   0.189   1.093   4.863 -0.3570 -0.3087 -0.1387
25943SOL    HW195821   0.107   1.142   4.867 -0.7652 -1.0154  0.4283
25943SOL    HW295822   0.195   1.063   4.772  0.2487  1.3311 -0.6886
25944SOL     OW95823  11.059  12.682  10.292  0.5085  0.0062  0.5630
25944SOL    HW195824  11.053  12.592  10.260 -1.0330 -0.5682  2.2919
25944SOL    HW295825  11.011  12.734  10.228  1.6734 -0.3256 -0.6080
25945SOL     OW95826   9.003   8.578   0.093 -0.6288  0.2052  0.0222
25945SOL    HW195827   8.919   8.552   0.131 -0.4921 -1.4313 -0.7182
25945SOL    HW295828   8.979   8.634   0.018 -1.0958 -0.6627 -0.4949
25946SOL     OW95829   8.494   0.280   6.867 -0.2173  0.2748 -0.6921
25946SOL    HW195830   8.534   0.236   6.942 -0.7909  0.0652 -0.5050
25946SOL    HW295831   8.400   0.271   6.882 -0.3332  0.6022 -1.2220
25947SOL     OW95832   8.420   5.858   7.510 -0.3953 -0.0150 -0.6841
25947SOL    HW195833   8.479   5.933   7.506  1.4853 -1.4331 -0.7011
25947SOL    HW295834   8.450   5.807   7.585 -2.9998  0.2740  0.6637
25948SOL     OW95835  12.302   5.789   6.898  0.5515  0.5231  0.1452
25948SOL    HW195836  12.279   5.708   6.852 -1.6477  0.4447  1.2249
25948SOL    HW295837  12.396   5.799   6.884  0.6700 -1.5713 -1.0122
25949SOL     OW95838  10.855   7.826  13.782 -0.3069  0.2852 -0.2352
25949SOL    HW195839  10.888   7.835  13.692 -0.9272 -1.5193 -0.6916
25949SOL    HW295840  10.761   7.811  13.772 -0.2774 -0.6285  0.6518
25950SOL     OW95841  11.686   4.814   6.344  0.0353 -0.4358 -0.3820
25950SOL    HW195842  11.770   4.831   6.301  0.3527  0.5794  0.5873
25950SOL    HW295843  11.698   4.730   6.388  0.8098  0.0562  0.3661
25951SOL     OW95844  13.225   8.179   3.183  0.1003 -0.1158  0.2853
25951SOL    HW195845  13.278   8.240   3.131  0.8524 -1.0719 -0.1137
25951SOL    HW295846  13.288   8.136   3.240 -0.7890  1.3079  2.4442
25952SOL     OW95847  10.906  12.398  10.470 -0.4820 -0.0521 -0.2209
25952SOL    HW195848  10.896  12.438  10.384 -0.7862  0.4128  0.0252
25952SOL    HW295849  10.821  12.411  10.513  0.0371  0.7602  0.5850
25953SOL     OW95850   2.769   8.003   1.272 -0.3758 -0.4008  0.2524
25953SOL    HW195851   2.731   8.017   1.185 -0.0188  0.2191  0.1929
25953SOL    HW295852   2.711   8.050   1.331 -0.4591 -0.5886  0.3232
25954SOL     OW95853  10.634   3.995  11.515  0.2909 -0.5621 -0.6663
25954SOL    HW195854  10.728   4.001  11.532  0.3441  1.2092 -1.3641
25954SOL    HW295855  10.628   3.939  11.438  0.8323 -0.1604 -1.0093
25955SOL     OW95856   5.090   8.773   5.902  0.3528 -0.4166  0.9295
25955SOL    HW195857   5.146   8.696   5.900 -0.0867 -0.7353  0.5190
25955SOL    HW295858   5.150   8.846   5.915  0.6287 -0.9489  2.9512
25956SOL     OW95859   1.349  12.343   6.132  0.2645 -0.5071 -0.1413
25956SOL    HW195860   1.321  12.271   6.076 -1.9619  0.3106 -0.1946
25956SOL    HW295861   1.331  12.313   6.221 -0.5768 -0.0988 -0.1586
25957SOL     OW95862  10.704   4.932   8.136 -0.4242  0.0804  0.2470
25957SOL    HW195863  10.647   5.009   8.129 -0.8174 -0.2776 -0.6030
25957SOL    HW295864  10.776   4.961   8.192 -0.3516  1.2083 -0.3901
25958SOL     OW95865  12.059   7.195   3.254 -0.0103  0.2923  0.2152
25958SOL    HW195866  12.062   7.273   3.309  2.1097  0.9028 -0.7074
25958SOL    HW295867  12.011   7.223   3.176  0.0920  0.4352  0.2042
25959SOL     OW95868   4.063   2.535   0.561  0.7366 -0.5109  0.4658
25959SOL    HW195869   4.012   2.573   0.489  0.7598 -0.8806  0.2494
25959SOL    HW295870   4.025   2.573   0.640  0.2568 -0.6331  0.2972
25960SOL     OW95871   3.935   6.488  10.061  0.1715 -0.2508 -0.1441
25960SOL    HW195872   3.874   6.422  10.029  0.4386 -1.6377  2.0429
25960SOL    HW295873   4.005   6.489   9.996 -1.1632 -0.0515 -1.6575
25961SOL     OW95874   0.012  11.482  13.731  0.0811  0.2546  0.6417
25961SOL    HW195875   0.107  11.491  13.732 -0.0152  2.0742 -0.9921
25961SOL    HW295876  -0.015  11.505  13.820  1.1397  0.1606  1.0003
25962SOL     OW95877  13.441  10.190  10.697 -0.3590  0.0938  0.5175
25962SOL    HW195878  13.426  10.173  10.790 -0.7272  0.9578  0.6296
25962SOL    HW295879  13.400  10.276  10.682  1.7222  1.0737  0.0984
25963SOL     OW95880  10.412   6.575   5.219 -0.7715  0.0563  0.4625
25963SOL    HW195881  10.396   6.594   5.311  0.4325  1.7290  0.3929
25963SOL    HW295882  10.482   6.510   5.219 -0.0086  0.8547  0.7617
25964SOL     OW95883   9.822   2.442   5.995  0.0282 -0.5608 -0.7399
25964SOL    HW195884   9.760   2.378   5.961 -1.6985 -0.3454  1.7297
25964SOL    HW295885   9.786   2.468   6.080  1.3487  2.6974 -1.0246
25965SOL     OW95886  11.236   7.646  10.306  0.0808 -0.1457  0.0909
25965SOL    HW195887  11.188   7.568  10.278  0.5541 -0.4525  0.1169
25965SOL    HW295888  11.208   7.715  10.245 -0.7881 -0.1787  0.4280
25966SOL     OW95889   7.396   5.962   5.681 -0.1461 -0.3571  0.0941
25966SOL    HW195890   7.470   6.020   5.695  0.9201 -0.7731 -3.1575
25966SOL    HW295891   7.343   5.972   5.760  1.3966  2.8442  0.8734
25967SOL     OW95892   5.558   9.911   5.992 -0.5280 -0.2522 -0.0241
25967SOL    HW195893   5.641   9.862   5.994 -1.4582 -2.2253 -2.9526
25967SOL    HW295894   5.559   9.955   5.907 -3.0099 -1.5145 -0.8108
25968SOL     OW95895  10.866   1.518   7.052  0.1901  0.8338 -0.2144
25968SOL    HW195896  10.888   1.575   7.125  0.2906 -0.5004  0.8307
25968SOL    HW295897  10.950   1.485   7.021  0.0361 -0.4117  0.6025
25969SOL     OW95898   8.821   4.348   0.660 -0.1079  0.0048  0.1144
25969SOL    HW195899   8.898   4.391   0.623 -1.4628  0.4151 -2.4598
25969SOL    HW295900   8.754   4.416   0.663 -1.1634 -0.9685 -0.3689
25970SOL     OW95901   7.931  10.530   6.857 -0.0262  0.7062  0.1595
25970SOL    HW195902   7.847  10.546   6.814 -0.0180  2.8141  0.8085
25970SOL    HW295903   7.965  10.618   6.877  1.3747 -0.1279  1.7161
25971SOL     OW95904   2.499   6.266   1.902 -0.2340 -0.8003 -0.1159
25971SOL    HW195905   2.574   6.326   1.904  1.0619 -2.3717  0.1891
25971SOL    HW295906   2.423   6.324   1.898  0.9006  0.8957  1.2547
25972SOL     OW95907   5.705  13.686  10.048 -0.1836 -0.4854 -0.5803
25972SOL    HW195908   5.760  13.726   9.982 -0.0356 -0.9012 -0.7109
25972SOL    HW295909   5.766  13.645  10.109 -0.2658  0.8967  0.4775
25973SOL     OW95910  13.883   9.352   9.242 -0.5225 -0.1921  0.4646
25973SOL    HW195911  13.814   9.303   9.198 -0.0404  0.9758 -1.7539
25973SOL    HW295912  13.856   9.444   9.234  2.1681  0.5211 -2.4127
25974SOL     OW95913   9.270   7.330   9.332 -0.5780 -0.2579 -0.5991
25974SOL    HW195914   9.341   7.300   9.388  0.2790 -0.8865 -1.9569
25974SOL    HW295915   9.308   7.402   9.281 -2.1019  2.1091  1.3820
25975SOL     OW95916  12.019  10.868   1.546 -0.3470 -0.1695 -0.4675
25975SOL    HW195917  11.997  10.838   1.635 -0.0598  0.7897 -0.0553
25975SOL    HW295918  12.056  10.791   1.503 -0.4336 -0.6326  0.2696
25976SOL     OW95919   6.481  11.736   8.170 -0.3251  0.1171  0.2608
25976SOL    HW195920   6.411  11.672   8.157 -1.4056  1.1159  1.0399
25976SOL    HW295921   6.518  11.749   8.083 -0.3428 -1.2598  0.0249
25977SOL     OW95922  12.687  12.565   4.699 -0.4752  0.2410  0.4052
25977SOL    HW195923  12.682  12.654   4.665  2.1677  0.9279  1.5142
25977SOL    HW295924  12.677  12.509   4.622 -0.4298  1.5527 -0.5855
25978SOL     OW95925   1.836   5.146   8.691 -0.1684  0.5861 -0.5575
25978SOL    HW195926   1.898   5.167   8.760 -1.5802 -0.2534  1.0327
25978SOL    HW295927   1.818   5.053   8.702 -1.5080  0.7521 -1.1439
25979SOL     OW95928  14.143   6.494  13.416  0.4724 -0.0226 -0.0301
25979SOL    HW195929  14.185   6.418  13.457 -2.1470 -0.7007  1.6043
25979SOL    HW295930  14.135   6.470  13.324  1.5146 -0.8393  0.0743
25980SOL     OW95931   7.187   3.004   6.907 -0.4281  0.4230 -0.0875
25980SOL    HW195932   7.256   3.070   6.910  0.0678 -0.0838 -0.1143
25980SOL    HW295933   7.148   3.006   6.995 -0.8204  1.1606 -0.2683
25981SOL     OW95934  13.231   4.692   3.285 -0.4469 -0.4580  0.1662
25981SOL    HW195935  13.255   4.600   3.290 -0.7949 -0.4986  1.4164
25981SOL    HW295936  13.250   4.727   3.372  0.8311  0.9599 -0.6350
25982SOL     OW95937   5.949   8.998   7.675 -0.0634 -0.4489  0.2104
25982SOL    HW195938   5.960   8.918   7.623  1.8167  0.2860 -0.6087
25982SOL    HW295939   5.997   9.065   7.626  1.0918  0.4745  2.4702
25983SOL     OW95940   5.426   1.085   8.661  0.0500 -0.0499 -0.4964
25983SOL    HW195941   5.430   1.180   8.655  0.0190  0.0333  0.6379
25983SOL    HW295942   5.365   1.059   8.592 -0.1178  0.7630 -0.6622
25984SOL     OW95943  11.791   0.655   9.379 -0.6765  0.5778  0.0409
25984SOL    HW195944  11.830   0.575   9.345 -0.1077  1.0241 -0.3728
25984SOL    HW295945  11.764   0.633   9.468  0.5530  0.2660  0.3496
25985SOL     OW95946   0.612  14.036   1.586  0.2463 -0.5680  0.1876
25985SOL    HW195947   0.635  14.121   1.548 -2.0975  0.6029  1.1544
25985SOL    HW295948   0.579  13.985   1.512  0.0416  0.0259 -0.1427
25986SOL     OW95949   7.014   8.473   1.370 -0.1210 -0.0045 -0.8834
25986SOL    HW195950   6.990   8.381   1.377 -0.3662  0.0365 -1.1685
25986SOL    HW295951   7.091   8.483   1.427 -1.4577  0.1139  0.9818
25987SOL     OW95952   8.717  10.717  13.234 -0.4208  0.5456 -0.2718
25987SOL    HW195953   8.803  10.680  13.254  0.1624  2.2104  0.5029
25987SOL    HW295954   8.662  10.691  13.307 -0.0422  1.0818  0.2144
25988SOL     OW95955   7.450  11.471   8.876  0.8004 -0.1479 -0.1564
25988SOL    HW195956   7.367  11.506   8.907  1.7119  1.2236  0.8267
25988SOL    HW295957   7.479  11.411   8.945  0.4316 -0.9863 -0.7092
25989SOL     OW95958   8.801  12.074   0.689  0.3179  0.2621  1.1989
25989SOL    HW195959   8.717  12.095   0.730 -1.0137 -0.1654 -1.0907
25989SOL    HW295960   8.777  12.026   0.609  2.7040  0.8621  0.0228
25990SOL     OW95961  12.673  14.000   6.712 -0.5442 -0.3811 -0.3348
25990SOL    HW195962  12.727  14.040   6.780 -0.7005 -0.8693  0.0887
25990SOL    HW295963  12.637  14.073   6.663 -0.6634 -0.0133  0.2958
25991SOL     OW95964   4.454  12.612   0.813 -0.4253  0.4218  0.9425
25991SOL    HW195965   4.530  12.556   0.793 -0.4049  1.1428 -1.3572
25991SOL    HW295966   4.491  12.686   0.861  0.0119 -0.1190  1.4605
25992SOL     OW95967   1.133  10.805   6.687  0.0684 -0.1121 -0.2455
25992SOL    HW195968   1.188  10.760   6.621 -1.6937 -2.4560 -0.2543
25992SOL    HW295969   1.089  10.874   6.638  0.7155 -0.1706 -0.9330
25993SOL     OW95970   0.088   6.190   8.342  0.3984 -0.1385 -0.0001
25993SOL    HW195971   0.151   6.135   8.389 -0.7899 -0.9615  0.7137
25993SOL    HW295972   0.011   6.192   8.400 -0.3493  0.5513 -0.9805
25994SOL     OW95973  11.666   2.035  12.132 -0.0369  0.0465 -0.1939
25994SOL    HW195974  11.638   2.124  12.152  1.3876  0.4337  0.2242
25994SOL    HW295975  11.733   2.046  12.065 -1.1275 -0.8690 -1.4862
25995SOL     OW95976  11.475   6.062   8.464 -0.1151 -0.6402  0.0808
25995SOL    HW195977  11.566   6.070   8.436  0.4958  0.2233  2.0986
25995SOL    HW295978  11.446   6.152   8.479 -0.3089 -1.0068  2.2690
25996SOL     OW95979  13.316   0.865   9.518 -0.0419 -0.0034  0.0987
25996SOL    HW195980  13.284   0.941   9.469  0.4992 -0.0125 -0.2732
25996SOL    HW295981  13.290   0.790   9.465  2.6302  0.0618 -1.4730
25997SOL     OW95982  11.310   5.892   7.533 -0.2025  0.1132 -0.2954
25997SOL    HW195983  11.382   5.919   7.477 -0.2008  0.7238 -0.0028
25997SOL    HW295984  11.313   5.796   7.531  0.5150  0.1350 -0.4038
25998SOL     OW95985   0.885   9.700   7.966 -0.3861  0.1269 -0.4194
25998SOL    HW195986   0.838   9.639   8.022  0.3275 -0.2129 -0.1723
25998SOL    HW295987   0.826   9.774   7.956 -1.5147 -0.8593 -1.2293
25999SOL     OW95988   3.381   3.463  11.887 -0.0672  0.2661  0.0877
25999SOL    HW195989   3.436   3.540  11.901 -2.4369  1.8327  1.5849
25999SOL    HW295990   3.311   3.494  11.829 -1.2372 -0.6160  0.9794
26000SOL     OW95991   6.890   5.656   2.947  0.4810 -0.2864 -0.3853
26000SOL    HW195992   6.843   5.714   2.886  0.2890 -1.2099 -1.1348
26000SOL    HW295993   6.976   5.698   2.958 -0.6244  1.7249  1.4413
26001SOL     OW95994   8.112   7.014   7.653 -0.1493  0.1223 -0.7712
26001SOL    HW195995   8.163   6.982   7.578 -1.5955 -0.9916 -1.3186
26001SOL    HW295996   8.091   7.105   7.630  1.2180  0.4817 -0.7046
26002SOL     OW95997   0.628  13.042  12.697  0.0165 -0.0652 -0.2289
26002SOL    HW195998   0.644  13.043  12.603 -0.0781  2.3190 -0.2787
26002SOL    HW295999   0.710  13.074  12.736 -0.2540 -0.1477  0.4265
26003SOL     OW96000  13.301  12.591  10.615 -0.2213  0.2409  0.0142
26003SOL    HW196001  13.298  12.552  10.527  0.8998 -0.4962  0.2816
26003SOL    HW296002  13.212  12.620  10.631 -0.5858 -0.1855 -1.1236
26004SOL     OW96003   5.802   2.149   5.079  0.6757 -0.6374 -0.1874
26004SOL    HW196004   5.768   2.060   5.072 -0.7066 -0.1677  0.2299
26004SOL    HW296005   5.864   2.146   5.153  0.3272 -1.1651  0.0857
26005SOL     OW96006  12.891   1.264   3.727  0.5062 -0.5262 -0.5528
26005SOL    HW196007  12.861   1.188   3.776 -1.9257  0.2282 -0.7594
26005SOL    HW296008  12.850   1.338   3.770  1.0691  0.4741 -1.6764
26006SOL     OW96009  10.518  12.828   4.206  0.2780 -0.5819  0.4193
26006SOL    HW196010  10.576  12.900   4.181 -0.7306  1.5978  3.6674
26006SOL    HW296011  10.568  12.781   4.273 -0.7819 -0.0001  1.6629
26007SOL     OW96012   3.214   1.971  10.483 -0.3326 -0.1580  0.1687
26007SOL    HW196013   3.150   1.906  10.454  0.4084 -1.2687  0.9507
26007SOL    HW296014   3.275   1.923  10.538  0.1419  1.2485  0.9402
26008SOL     OW96015   5.320   7.171   6.895  0.0084  0.2807 -0.1022
26008SOL    HW196016   5.310   7.200   6.804 -0.9945  1.3041  0.2997
26008SOL    HW296017   5.244   7.116   6.911  0.1460  0.1615  0.1476
26009SOL     OW96018   1.933   9.309   4.085  0.7176 -0.2411 -0.8150
26009SOL    HW196019   1.979   9.309   4.001  0.7379  1.4134 -0.8411
26009SOL    HW296020   1.859   9.367   4.072  1.2831  0.8661  0.5842
26010SOL     OW96021  12.718   6.718   3.458  0.6434 -0.4476  0.5498
26010SOL    HW196022  12.723   6.623   3.474 -2.3202 -1.2548 -2.2210
26010SOL    HW296023  12.704   6.756   3.545  0.2807 -2.7183  1.5695
26011SOL     OW96024   0.102   7.895   4.102  0.5574  0.1315 -0.0557
26011SOL    HW196025   0.148   7.902   4.019  3.1142  2.3705  1.3660
26011SOL    HW296026   0.106   7.984   4.139 -1.4940 -0.5113  1.9473
26012SOL     OW96027   4.574   0.831   1.881 -0.1454  0.6005 -0.7264
26012SOL    HW196028   4.513   0.819   1.808  1.0933  1.3388 -1.9376
26012SOL    HW296029   4.660   0.836   1.839  0.8877 -1.2511  0.9700
26013SOL     OW96030  11.909   7.198   3.572 -0.4129  0.2341 -0.2608
26013SOL    HW196031  11.842   7.201   3.641 -2.2449 -0.7709 -1.8888
26013SOL    HW296032  11.865   7.156   3.498  1.4068  1.4691 -2.1483
26014SOL     OW96033   9.335   2.275  11.633 -0.1829  0.0233  0.2793
26014SOL    HW196034   9.373   2.191  11.657 -0.9166 -1.8392 -4.2182
26014SOL    HW296035   9.400   2.317  11.578 -1.1680  0.8402 -0.3068
26015SOL     OW96036   4.919   9.298  11.426  0.7667 -0.0707  0.1555
26015SOL    HW196037   4.834   9.265  11.454  0.2144 -0.0435 -1.3627
26015SOL    HW296038   4.951   9.232  11.364  1.1142  0.6804 -0.4775
26016SOL     OW96039   0.154   4.539  11.837 -0.4603  0.0340  0.3151
26016SOL    HW196040   0.206   4.491  11.773 -0.0668  0.9693 -0.0905
26016SOL    HW296041   0.212   4.551  11.912 -0.8864 -0.9684  0.8242
26017SOL     OW96042   1.393   2.075  13.075 -0.0438  0.7514  0.3517
26017SOL    HW196043   1.355   2.044  12.993 -0.1724 -0.5801  0.8735
26017SOL    HW296044   1.319   2.079  13.135  0.1710  0.9532  0.6018
26018SOL     OW96045   7.228  12.459   7.522 -0.3052  0.2203  0.1022
26018SOL    HW196046   7.165  12.389   7.539 -0.1272  0.2541  0.9384
26018SOL    HW296047   7.235  12.506   7.606  0.0788  0.8259 -0.2616
26019SOL     OW96048   5.517  12.163   8.471  0.5695  0.2229 -0.1904
26019SOL    HW196049   5.432  12.121   8.455  0.7721 -0.1575 -0.3044
26019SOL    HW296050   5.511  12.248   8.427 -0.4327  1.0259  1.4302
26020SOL     OW96051  12.073   3.664   8.845 -0.0430 -0.5697 -0.0934
26020SOL    HW196052  12.065   3.578   8.888 -0.7676 -0.7390 -0.5411
26020SOL    HW296053  12.032   3.651   8.760  0.4451  0.0484 -0.4274
26021SOL     OW96054  14.066  11.154  12.739 -0.0130 -0.2717  0.7709
26021SOL    HW196055  14.023  11.232  12.773 -0.5773  0.2486 -1.0322
26021SOL    HW296056  14.151  11.185  12.707 -0.7251 -0.0912 -1.0775
26022SOL     OW96057  10.612   9.852   8.136 -0.1310 -0.1900  0.8281
26022SOL    HW196058  10.678   9.827   8.072  1.1752  1.1331  1.6031
26022SOL    HW296059  10.610   9.780   8.199  0.0905 -0.5232  0.4567
26023SOL     OW96060  10.716   5.756   9.525  0.6921 -0.3040 -0.3303
26023SOL    HW196061  10.694   5.679   9.472  2.2644 -2.2055  1.5926
26023SOL    HW296062  10.802   5.735   9.562  0.2929  1.5356  1.8236
26024SOL     OW96063   9.952   3.168  12.463 -0.4057  0.1921  0.6571
26024SOL    HW196064   9.871   3.190  12.419 -0.3537  1.1786  1.0195
26024SOL    HW296065  10.007   3.246  12.453  0.0885 -0.0565  1.3222
26025SOL     OW96066   3.796   9.170   6.646 -1.1950 -0.1134 -0.2234
26025SOL    HW196067   3.752   9.159   6.562 -0.5917  0.5014 -0.6267
26025SOL    HW296068   3.879   9.122   6.637 -1.7703 -1.3172  0.5539
26026SOL     OW96069   4.613   9.449   7.262 -0.2264 -0.0502 -0.2924
26026SOL    HW196070   4.619   9.439   7.167 -0.3238  1.7285 -0.5107
26026SOL    HW296071   4.703   9.438   7.293  0.0857  1.0504 -0.7815
26027SOL     OW96072  12.989  13.950   1.528 -0.6506 -0.2574  0.0985
26027SOL    HW196073  13.048  13.906   1.466  0.6569  0.3304  0.8617
26027SOL    HW296074  12.979  14.039   1.492 -1.9534 -0.6544 -0.5765
26028SOL     OW96075  13.681  11.876   1.325  0.1566 -0.4163  0.5464
26028SOL    HW196076  13.652  11.787   1.347 -2.0098  0.7507  2.9682
26028SOL    HW296077  13.652  11.889   1.235 -2.6270 -1.1035  1.2247
26029SOL     OW96078   6.207   0.535   7.047  0.2874  0.0816  0.2770
26029SOL    HW196079   6.203   0.591   7.125 -1.1472  0.1521  0.1847
26029SOL    HW296080   6.176   0.450   7.077  0.5869 -0.1314 -0.0163
26030SOL     OW96081   5.400  12.441   3.683  0.2144  0.1649 -0.3888
26030SOL    HW196082   5.363  12.354   3.701  0.6470  0.0194 -0.1785
26030SOL    HW296083   5.484  12.440   3.728  0.0288  0.8522 -0.0209
26031SOL     OW96084   9.492   1.965  11.113  0.7304 -0.3059 -0.1098
26031SOL    HW196085   9.508   2.005  11.198  0.8894  0.5437 -0.5269
26031SOL    HW296086   9.466   1.875  11.133  1.3922 -0.3076  0.8043
26032SOL     OW96087   0.504   6.997  12.185  0.3574  0.1654  0.2007
26032SOL    HW196088   0.582   7.040  12.219 -0.3756  0.9105  0.9826
26032SOL    HW296089   0.435   7.064  12.189 -0.9393 -1.1645  1.9308
26033SOL     OW96090   5.420   1.834   9.316  0.2318 -0.3344  0.4168
26033SOL    HW196091   5.370   1.760   9.349 -1.2489  0.1690 -0.5808
26033SOL    HW296092   5.507   1.799   9.299  0.3727 -1.1718  2.4801
26034SOL     OW96093   4.885  12.858   0.878 -0.5312 -0.1888 -0.2987
26034SOL    HW196094   4.790  12.854   0.870 -0.5986 -1.7709  0.6813
26034SOL    HW296095   4.901  12.912   0.955 -0.4429  2.7993 -2.2519
26035SOL     OW96096   9.861  13.096   6.772  0.0441 -0.0252 -0.2480
26035SOL    HW196097   9.906  13.014   6.751  4.7484  2.1723  0.0304
26035SOL    HW296098   9.884  13.155   6.701 -0.1020  2.0600  1.3571
26036SOL     OW96099   2.473   4.140  10.957 -0.1281 -0.2546  0.2734
26036SOL    HW196100   2.421   4.158  11.035 -1.3105  1.6008 -0.8786
26036SOL    HW296101   2.556   4.186  10.972  0.8858 -2.3503  1.6469
26037SOL     OW96102   6.713  10.747   4.190 -0.1868 -0.0247 -0.4844
26037SOL    HW196103   6.749  10.681   4.132  0.0135 -0.5060  0.1703
26037SOL    HW296104   6.789  10.794   4.223 -0.3363  0.6230 -1.0441
26038SOL     OW96105  12.561  10.731   2.724  0.0635  0.2227 -0.5251
26038SOL    HW196106  12.560  10.644   2.685 -0.0388  0.3053 -0.7032
26038SOL    HW296107  12.544  10.715   2.817  0.3779  0.0228 -0.4984
26039SOL     OW96108   3.924   5.991  13.055  0.0744  0.5984  0.3246
26039SOL    HW196109   3.961   6.015  13.141 -0.4959  0.8461  0.5041
26039SOL    HW296110   3.842   5.946  13.076  0.4872 -0.3506 -0.0605
26040SOL     OW96111   4.757   1.186  11.415  0.6739 -0.1003 -0.1020
26040SOL    HW196112   4.852   1.189  11.424  0.8063  0.4596 -1.5152
26040SOL    HW296113   4.741   1.186  11.321 -0.6995 -1.7259  0.0753
26041SOL     OW96114   4.931  13.073   3.100  0.0336 -0.2995  0.6284
26041SOL    HW196115   5.020  13.101   3.120  0.1307 -0.6951  0.7648
26041SOL    HW296116   4.937  13.034   3.013 -0.4851  1.8779 -0.4620
26042SOL     OW96117  10.663   4.493   7.396 -0.5919  0.3489 -0.7193
26042SOL    HW196118  10.638   4.577   7.434 -0.7473 -0.0225  0.0270
26042SOL    HW296119  10.727   4.456   7.458 -1.5517 -0.6863 -0.3114
26043SOL     OW96120  13.848   1.803   2.171  0.3453 -0.3186  0.0195
26043SOL    HW196121  13.855   1.733   2.236 -0.1366 -1.3148 -0.9561
26043SOL    HW296122  13.869   1.760   2.088 -0.9861  0.4405 -0.7407
26044SOL     OW96123   8.692  11.817   9.538  0.3671  0.3955 -0.6408
26044SOL    HW196124   8.777  11.846   9.572  0.1109 -1.0817  1.4328
26044SOL    HW296125   8.699  11.830   9.444  2.2499  1.9036 -0.3725
26045SOL     OW96126   2.404  11.482  10.755  0.0833 -0.1051  0.0006
26045SOL    HW196127   2.340  11.447  10.818  1.4738  0.4873  1.8106
26045SOL    HW296128   2.413  11.412  10.689 -1.3120 -0.8008  0.5017
26046SOL     OW96129   5.482  11.220   5.534  0.5318 -0.5610  0.3690
26046SOL    HW196130   5.414  11.247   5.595  1.5946  2.2536  0.4778
26046SOL    HW296131   5.456  11.132   5.505 -3.6309  0.6701 -0.2968
26047SOL     OW96132   8.144  10.322  11.771 -0.5789 -0.3792  0.4048
26047SOL    HW196133   8.198  10.363  11.838  0.4490  0.9987 -1.2146
26047SOL    HW296134   8.087  10.392  11.739  0.6195 -0.3498 -1.8156
26048SOL     OW96135   5.144   1.620  12.764 -0.3595 -0.1883 -0.0117
26048SOL    HW196136   5.213   1.627  12.698 -0.3097  1.2001  0.1715
26048SOL    HW296137   5.173   1.549  12.821  0.8107  0.2255 -0.0746
26049SOL     OW96138   7.724   8.585  10.837 -0.2557 -0.4645  0.6817
26049SOL    HW196139   7.753   8.507  10.789  1.1899 -0.3105  1.2511
26049SOL    HW296140   7.694   8.646  10.770 -2.0419 -1.7289  0.2611
26050SOL     OW96141  12.797   7.501   8.016 -0.3238  0.1024 -0.1082
26050SOL    HW196142  12.767   7.467   7.932 -0.7165 -1.0885  0.4841
26050SOL    HW296143  12.831   7.424   8.062 -0.0126  0.7543  0.7775
26051SOL     OW96144  12.536  10.645   1.860 -0.1581 -0.3830 -0.1335
26051SOL    HW196145  12.549  10.670   1.769  0.7513 -0.6578 -0.0969
26051SOL    HW296146  12.540  10.549   1.859 -0.1610 -0.3881  0.1836
26052SOL     OW96147   8.795  10.486   4.369 -0.5316 -0.2048 -0.2264
26052SOL    HW196148   8.799  10.576   4.337 -2.5287 -0.6110 -1.7965
26052SOL    HW296149   8.786  10.494   4.464  2.3507  1.1168  0.0489
26053SOL     OW96150   6.474   9.435   3.825 -0.2031 -0.3308  0.3949
26053SOL    HW196151   6.435   9.522   3.830  2.1792  0.8555 -0.2893
26053SOL    HW296152   6.472   9.413   3.732  0.8954 -0.1149  0.2955
26054SOL     OW96153   8.494  11.744  12.515 -0.3113  0.2370  0.0285
26054SOL    HW196154   8.419  11.685  12.524 -2.0732  2.5708  2.2597
26054SOL    HW296155   8.454  11.828  12.492  1.7757  1.2967  0.1062
26055SOL     OW96156   4.296   8.699   4.908  0.3322  0.2231 -0.1045
26055SOL    HW196157   4.349   8.771   4.942  0.7387 -0.6943  1.3286
26055SOL    HW296158   4.218   8.741   4.872  1.3607  1.4914 -0.9562
26056SOL     OW96159   4.071  11.861   2.698 -0.9201 -0.5603 -0.1240
26056SOL    HW196160   4.069  11.766   2.709  1.4841 -0.8791 -1.7836
26056SOL    HW296161   4.143  11.877   2.637 -1.1067  2.3610  0.2844
26057SOL     OW96162   5.144   1.042  11.899  0.1204  0.8658  0.3583
26057SOL    HW196163   5.123   1.012  11.987 -1.1175  0.1816 -0.1345
26057SOL    HW296164   5.232   1.010  11.882  1.3219  2.9473  2.1583
26058SOL     OW96165   0.996  12.820   0.398  0.5351 -0.2946  0.1715
26058SOL    HW196166   0.971  12.848   0.310 -0.2233 -0.3221  0.3720
26058SOL    HW296167   1.080  12.777   0.386  2.5969  3.3792  0.0500
26059SOL     OW96168   8.729   5.444  10.138  0.1293 -0.2274 -0.2387
26059SOL    HW196169   8.730   5.357  10.180  1.2759  0.0988  0.4441
26059SOL    HW296170   8.775   5.431  10.055 -0.7596 -0.5173 -0.7105
26060SOL     OW96171   5.972   3.056  10.231 -0.2557 -0.7097 -0.2172
26060SOL    HW196172   5.982   3.051  10.326  1.0322  1.0675 -0.2130
26060SOL    HW296173   6.045   3.004  10.196  0.4875  0.3185 -0.2161
26061SOL     OW96174  12.481   2.481  11.710  0.2770  0.6894 -0.0566
26061SOL    HW196175  12.485   2.512  11.801  0.7053  0.2819  0.0672
26061SOL    HW296176  12.432   2.399  11.715  0.9916  0.2553 -0.0763
26062SOL     OW96177   4.229   0.679   0.145  0.1040  0.3482  0.1969
26062SOL    HW196178   4.323   0.697   0.142  0.3223 -0.5031  1.1758
26062SOL    HW296179   4.218   0.597   0.098 -0.5118  1.5994 -1.9583
26063SOL     OW96180   1.055   8.697   0.371  0.2179  0.0432 -0.2513
26063SOL    HW196181   1.047   8.727   0.461  3.3030 -2.7943  1.1601
26063SOL    HW296182   1.091   8.773   0.324  2.8882  0.3116  1.9715
26064SOL     OW96183   2.301  13.172   3.737  0.3063 -0.1973  0.0140
26064SOL    HW196184   2.350  13.236   3.685 -0.5795  0.3235 -0.1936
26064SOL    HW296185   2.211  13.204   3.736  0.4241  0.4301  2.7969
26065SOL     OW96186   5.546   0.027   5.964 -0.0384 -0.0653  0.7310
26065SOL    HW196187   5.578   0.100   5.912  1.4504 -2.2179 -1.6501
26065SOL    HW296188   5.599   0.028   6.044  0.4846  0.9853  0.3775
26066SOL     OW96189   0.001  12.332  11.430  0.2228 -0.7127 -0.9139
26066SOL    HW196190   0.049  12.368  11.505 -2.2371 -1.6176  1.2705
26066SOL    HW296191  -0.005  12.404  11.368 -1.3182  1.5980  1.6761
26067SOL     OW96192  11.644   0.064   9.069 -0.1206 -0.2672 -0.5381
26067SOL    HW196193  11.550   0.074   9.054 -0.4106 -1.8674  0.0138
26067SOL    HW296194  11.681   0.053   8.981 -0.3474  0.9174 -0.8024
26068SOL     OW96195  11.997   5.295  13.555 -0.1091 -0.3382 -0.3495
26068SOL    HW196196  11.922   5.302  13.496 -0.6859  1.2126  0.5431
26068SOL    HW296197  11.960   5.261  13.637 -0.1080  1.6535  0.5156
26069SOL     OW96198   2.364  11.723   7.718  0.1871 -0.1330  0.2197
26069SOL    HW196199   2.368  11.664   7.793 -1.5347 -2.3654 -1.3159
26069SOL    HW296200   2.277  11.709   7.681  0.6213  1.6198 -1.6337
26070SOL     OW96201   8.846  10.322  14.013  0.1985  0.0028  0.3655
26070SOL    HW196202   8.929  10.364  14.032  2.3479 -3.7427  0.2171
26070SOL    HW296203   8.802  10.314  14.098  1.0488 -0.0151  0.8084
26071SOL     OW96204  10.215   2.439   6.403 -0.2443 -0.1107 -0.4063
26071SOL    HW196205  10.156   2.370   6.372 -0.3608 -0.4707  0.5982
26071SOL    HW296206  10.162   2.518   6.404 -2.2786 -1.1874  4.9483
26072SOL     OW96207   5.304   2.488   8.536 -0.2917 -0.6151 -0.4336
26072SOL    HW196208   5.357   2.472   8.458 -0.9129 -0.2455 -0.9457
26072SOL    HW296209   5.366   2.514   8.603  0.2567 -0.9605 -0.7975
26073SOL     OW96210  11.228  11.524  10.959  0.1944  0.3153 -0.5373
26073SOL    HW196211  11.279  11.462  10.906  0.8996  0.3644  0.0612
26073SOL    HW296212  11.137  11.504  10.938  0.4513  0.0990 -1.4941
26074SOL     OW96213   4.875   8.201  10.205 -0.6027  0.3787 -0.9200
26074SOL    HW196214   4.951   8.253  10.181 -1.0324  0.9475 -1.0719
26074SOL    HW296215   4.804   8.236  10.152 -0.8490 -0.5550 -1.2382
26075SOL     OW96216  12.024  11.094   0.016 -0.0424 -0.0314  0.0890
26075SOL    HW196217  12.055  11.079  -0.073  0.6983 -0.9971  0.4913
26075SOL    HW296218  11.929  11.087   0.011 -0.0373  0.3604 -0.6967
26076SOL     OW96219  11.994   9.852  13.359  0.6344  0.0398 -0.1048
26076SOL    HW196220  11.901   9.832  13.368  1.0285 -1.0378  2.2067
26076SOL    HW296221  12.001   9.945  13.382  0.4235 -0.5587  2.7055
26077SOL     OW96222   2.819   1.486   9.467  0.4696 -0.5005  0.0983
26077SOL    HW196223   2.760   1.515   9.536 -0.3989 -2.7087  0.3440
26077SOL    HW296224   2.892   1.445   9.513  1.2105  0.3542 -0.2688
26078SOL     OW96225   5.719   1.030   7.976 -0.6300  0.2614 -0.2892
26078SOL    HW196226   5.653   0.976   7.932 -0.2885  0.0318 -0.5309
26078SOL    HW296227   5.789   1.039   7.911 -1.4638  2.5779 -0.9649
26079SOL     OW96228   2.062  12.771   2.415  0.3234 -0.1319  0.2805
26079SOL    HW196229   2.062  12.759   2.510 -1.7492 -0.6712  0.2591
26079SOL    HW296230   2.003  12.703   2.382  0.9273  0.1096 -1.3910
26080SOL     OW96231  12.031   1.937  13.629  0.1115  0.6682 -0.3733
26080SOL    HW196232  12.007   2.020  13.670  0.4265  1.4028 -1.6268
26080SOL    HW296233  12.033   1.875  13.701 -2.6331  1.1691  0.2440
26081SOL     OW96234   8.798   9.402   2.682 -0.2379  0.0402  0.1319
26081SOL    HW196235   8.768   9.322   2.726  0.9445 -0.9221 -0.7329
26081SOL    HW296236   8.827   9.372   2.596  3.9004  0.6180  1.0903
26082SOL     OW96237   1.705   9.458   4.102 -0.0524  0.3734 -0.3751
26082SOL    HW196238   1.650   9.391   4.143 -0.0132  0.2075 -0.5936
26082SOL    HW296239   1.667   9.541   4.130  0.1692  0.2613  0.2606
26083SOL     OW96240  13.949   8.310  14.060  0.5564  0.0658 -0.0586
26083SOL    HW196241  13.983   8.342  14.143 -0.2682  1.1762 -0.1255
26083SOL    HW296242  13.960   8.383  13.999 -1.8373  0.4922 -0.0883
26084SOL     OW96243  12.454   7.842   6.728 -0.2069 -0.3952  0.2406
26084SOL    HW196244  12.506   7.764   6.710  1.3979  0.6452  0.1689
26084SOL    HW296245  12.515   7.915   6.717 -0.8276  0.7365  3.2470
26085SOL     OW96246   2.741   0.276   4.200  0.1262 -0.3736 -0.0487
26085SOL    HW196247   2.685   0.205   4.230  0.6116 -1.3175 -1.2960
26085SOL    HW296248   2.690   0.322   4.133  0.2502 -0.2613 -0.0689
26086SOL     OW96249   8.147   0.014   5.339  0.7993 -0.0401  0.2068
26086SOL    HW196250   8.201  -0.045   5.391  0.6746 -1.1913 -0.9306
26086SOL    HW296251   8.069   0.029   5.393 -0.4256 -3.0807 -0.4957
26087SOL     OW96252   5.062   6.552   1.107  0.2970 -0.1203 -0.1057
26087SOL    HW196253   5.128   6.485   1.120  0.4713  0.3208  1.5525
26087SOL    HW296254   5.091   6.600   1.030  1.7597 -0.1244  0.4167
26088SOL     OW96255   7.010   5.401   0.482 -0.0818 -0.6071  0.3724
26088SOL    HW196256   7.082   5.461   0.465 -0.1847 -0.5406  0.1691
26088SOL    HW296257   6.980   5.424   0.570  0.0888 -0.5786  0.4241
26089SOL     OW96258  11.958  13.362   2.330  0.2765  0.3297  0.7276
26089SOL    HW196259  11.926  13.448   2.358 -0.4481  0.4418 -0.3650
26089SOL    HW296260  11.882  13.321   2.288  1.5695  0.7016 -2.1914
26090SOL     OW96261   7.011   8.525   3.029 -0.3023 -0.5959 -0.5588
26090SOL    HW196262   6.972   8.443   3.060 -1.3562  0.6464  1.6168
26090SOL    HW296263   7.083   8.542   3.089  1.8172 -1.3350 -2.7567
26091SOL     OW96264   3.008   4.228   6.022  0.4244 -0.0159  0.0352
26091SOL    HW196265   3.021   4.270   5.938  1.4723  1.1469  0.7424
26091SOL    HW296266   2.967   4.144   6.001 -0.9117  0.9484 -1.4810
26092SOL     OW96267  11.024  10.915   6.219 -0.1245 -0.5542 -0.4351
26092SOL    HW196268  11.111  10.923   6.178  0.1218  0.2228  0.2195
26092SOL    HW296269  10.983  10.842   6.173  0.4687 -0.2459 -1.4962
26093SOL     OW96270   1.384  12.661   7.962  0.5580 -0.3588  0.7257
26093SOL    HW196271   1.346  12.577   7.937  0.1104 -0.2151  0.9162
26093SOL    HW296272   1.447  12.681   7.892 -0.7487  0.0937 -0.3752
26094SOL     OW96273  10.838   4.038  13.753 -0.2728  0.4407 -0.0386
26094SOL    HW196274  10.776   3.982  13.799 -1.5152  1.6555 -0.1536
26094SOL    HW296275  10.923   3.997  13.767 -0.9753 -0.7409  0.9623
26095SOL     OW96276  11.282  13.894   2.100  0.4481  0.9195  0.1014
26095SOL    HW196277  11.327  13.962   2.149 -0.0077  1.2577  0.0622
26095SOL    HW296278  11.328  13.890   2.016  1.9950 -0.4836  0.9513
26096SOL     OW96279   7.663   8.608   1.436  0.4213 -0.0560  0.2554
26096SOL    HW196280   7.702   8.528   1.401  1.4724  0.1904  0.8219
26096SOL    HW296281   7.584   8.579   1.481  1.6106 -1.0028  1.8155
26097SOL     OW96282  13.405   6.132  13.420 -0.2416  0.3939  0.4207
26097SOL    HW196283  13.477   6.098  13.368 -0.7005 -0.7451  0.4940
26097SOL    HW296284  13.364   6.054  13.458 -1.7583  0.9750  0.0596
26098SOL     OW96285  13.363   9.512   0.628 -0.1941 -0.3534  0.3980
26098SOL    HW196286  13.421   9.589   0.630 -0.6556  0.0392 -0.6118
26098SOL    HW296287  13.275   9.549   0.624 -0.3814 -0.7782 -3.5971
26099SOL     OW96288  13.163   6.340   6.142  0.5814  0.3279  0.1166
26099SOL    HW196289  13.178   6.354   6.048 -0.2940 -2.7516 -0.5885
26099SOL    HW296290  13.250   6.343   6.181  0.8689  2.6923 -0.5496
26100SOL     OW96291   0.112   2.356   3.009  0.1886 -0.2432  0.3445
26100SOL    HW196292   0.101   2.451   3.001 -0.9245 -0.3889  0.0908
26100SOL    HW296293   0.029   2.325   3.045 -0.3668 -1.4123 -1.8190
26101SOL     OW96294   9.175   0.511   8.620  0.1614 -0.0110  0.5296
26101SOL    HW196295   9.177   0.542   8.529  1.2478 -0.1698  0.4846
26101SOL    HW296296   9.184   0.416   8.613 -1.3362 -0.2002  0.7514
26102SOL     OW96297   3.596   1.246  11.603 -0.0902  0.1131 -0.6746
26102SOL    HW196298   3.616   1.285  11.688  1.0422  0.9325 -1.2803
26102SOL    HW296299   3.666   1.278  11.545 -1.9276  1.2476 -2.4091
26103SOL     OW96300  12.729   3.708   6.066 -0.2514 -0.0551  0.9094
26103SOL    HW196301  12.706   3.716   6.159  0.0468 -0.5640  1.0326
26103SOL    HW296302  12.697   3.622   6.041  1.5254 -0.8358  1.1119
26104SOL     OW96303   6.017   0.529   9.723  0.0803  0.7824  0.3537
26104SOL    HW196304   6.015   0.602   9.661 -1.0358 -0.6100 -1.3600
26104SOL    HW296305   6.109   0.503   9.725  0.1232  0.7266 -0.9627
26105SOL     OW96306   9.606  10.011   2.823 -0.0926 -0.3248  0.4663
26105SOL    HW196307   9.681   9.984   2.770  0.2771  1.3734  0.0678
26105SOL    HW296308   9.545  10.050   2.760 -0.7791 -0.5895  0.9575
26106SOL     OW96309   8.181  13.639   9.003  0.1503 -0.3387 -0.0619
26106SOL    HW196310   8.226  13.578   8.945 -0.9291 -0.3551 -0.9332
26106SOL    HW296311   8.106  13.589   9.036  0.6787 -0.2875  1.2770
26107SOL     OW96312  10.036   6.569  10.265 -0.1212  0.6197  0.3824
26107SOL    HW196313  10.111   6.511  10.275  0.2572  1.1353  0.5731
26107SOL    HW296314   9.964   6.523  10.308 -0.0904 -0.1918 -0.4042
26108SOL     OW96315   9.902   7.609   8.118 -0.3089  0.6686  0.7312
26108SOL    HW196316   9.940   7.692   8.088 -1.4464  1.0140  0.1863
26108SOL    HW296317   9.812   7.610   8.083 -0.0146 -1.2848 -0.2239
26109SOL     OW96318   4.016   5.104   8.430 -0.0814 -0.4746 -0.0804
26109SOL    HW196319   4.055   5.191   8.431 -0.2488 -0.3639 -1.2855
26109SOL    HW296320   4.065   5.055   8.496  0.1359  0.4754  0.4858
26110SOL     OW96321   3.658  12.406  10.440  0.8826 -0.1324  0.0604
26110SOL    HW196322   3.742  12.419  10.396  0.6756  4.2036  0.5074
26110SOL    HW296323   3.674  12.428  10.531 -0.2299 -2.0354  0.7809
26111SOL     OW96324   0.481   6.702  10.815 -0.3986 -0.1723 -0.0959
26111SOL    HW196325   0.451   6.628  10.868 -0.4241 -0.3989 -0.4226
26111SOL    HW296326   0.494   6.773  10.877  0.2800 -0.6447  0.3143
26112SOL     OW96327  10.360   6.299  13.211  0.5106 -0.1752 -0.0136
26112SOL    HW196328  10.283   6.260  13.253 -0.0730  0.8563 -0.0804
26112SOL    HW296329  10.404   6.226  13.169  0.0435 -0.9222  0.7699
26113SOL     OW96330  10.173   9.350  12.891 -0.1199 -0.0012 -0.0201
26113SOL    HW196331  10.228   9.421  12.925 -0.0471 -0.2762  0.4366
26113SOL    HW296332  10.235   9.280  12.871 -0.2070  0.0132 -0.3531
26114SOL     OW96333   3.507   7.120   0.682  0.1607 -0.1703  0.1326
26114SOL    HW196334   3.458   7.040   0.665 -0.1916  0.2715 -1.0682
26114SOL    HW296335   3.511   7.164   0.597  0.0300  1.2580  0.8246
26115SOL     OW96336   3.856   3.955   5.378 -0.3606 -0.3252 -0.4617
26115SOL    HW196337   3.835   3.995   5.293 -0.0398  0.8476 -0.0084
26115SOL    HW296338   3.805   4.006   5.441  1.4384  0.5722  0.3269
26116SOL     OW96339   8.096  11.972  12.795  0.2759  0.0685 -0.5276
26116SOL    HW196340   8.148  11.949  12.872 -0.3829 -0.4796 -0.2351
26116SOL    HW296341   8.072  11.888  12.756 -1.3673  0.2517  0.0096
26117SOL     OW96342   0.192   7.515  13.316 -0.3645  0.4498  0.3645
26117SOL    HW196343   0.158   7.588  13.369 -1.3357 -0.8635  1.6495
26117SOL    HW296344   0.115   7.460  13.300 -0.0392  0.6482 -2.2589
26118SOL     OW96345   0.592   1.350   8.525  0.4030  0.2801 -0.1918
26118SOL    HW196346   0.596   1.445   8.514  0.6955  0.1258 -1.6278
26118SOL    HW296347   0.675   1.319   8.489  0.3183 -0.5174  0.2929
26119SOL     OW96348   9.937   5.246   0.179  0.0140 -0.0090 -0.2309
26119SOL    HW196349  10.031   5.243   0.191  0.1436 -0.4045 -1.2366
26119SOL    HW296350   9.924   5.301   0.101 -0.5083 -0.9242 -0.8054
26120SOL     OW96351   1.210   0.508   3.513  0.2594 -0.2726  0.1497
26120SOL    HW196352   1.212   0.447   3.586 -0.6409  0.2269  0.6104
26120SOL    HW296353   1.284   0.482   3.458  0.0815 -1.5654  0.4910
26121SOL     OW96354  12.209   0.705   2.810 -0.0666 -0.0653 -0.4306
26121SOL    HW196355  12.251   0.638   2.756 -0.2653 -1.0859  0.6311
26121SOL    HW296356  12.220   0.786   2.761  1.7476 -0.5647 -0.9386
26122SOL     OW96357   0.038   5.985   0.918 -0.3895  0.0848  0.2789
26122SOL    HW196358   0.086   5.979   0.835  0.4457  0.0269  0.7457
26122SOL    HW296359  -0.024   5.912   0.915 -2.3072  1.6734 -1.4436
26123SOL     OW96360   1.268   8.540   0.316  0.4280 -0.4251 -0.5051
26123SOL    HW196361   1.183   8.582   0.322  0.1248 -0.9280 -1.0815
26123SOL    HW296362   1.330   8.612   0.309  0.2421  0.0126  1.6084
26124SOL     OW96363   3.855   0.236  12.009 -0.0752 -0.3018  0.1922
26124SOL    HW196364   3.860   0.244  11.913  1.6156 -0.9371  0.2085
26124SOL    HW296365   3.873   0.143  12.026  1.6725  0.1914  1.2234
26125SOL     OW96366   9.935   1.572   8.478  0.9483 -1.0003 -0.3893
26125SOL    HW196367   9.925   1.666   8.494  1.4279 -0.8305 -1.0311
26125SOL    HW296368  10.027   1.562   8.454  1.1139 -1.7662  0.5244
26126SOL     OW96369   8.767  10.537  11.993 -0.1602 -0.0855  0.1346
26126SOL    HW196370   8.778  10.460  12.049 -0.0413 -0.7318 -0.7504
26126SOL    HW296371   8.857  10.567  11.977  0.1891 -2.2597 -2.8552
26127SOL     OW96372   6.606  13.601   0.647 -0.4137  0.1213 -0.2389
26127SOL    HW196373   6.670  13.620   0.715  0.1760  1.3107 -1.0847
26127SOL    HW296374   6.650  13.539   0.589 -1.1627 -1.4285  0.7865
26128SOL     OW96375   9.930   4.747  12.087  0.1506 -0.7402  0.4283
26128SOL    HW196376   9.843   4.777  12.061  0.9375  0.4490 -1.0397
26128SOL    HW296377   9.933   4.655  12.061 -0.1736 -0.3924 -0.9440
26129SOL     OW96378   0.099   2.242   8.941  0.2103  0.3651  0.3463
26129SOL    HW196379   0.078   2.158   8.901  0.5077  0.5059 -0.1265
26129SOL    HW296380   0.190   2.234   8.969  0.1483  0.4286  0.5722
26130SOL     OW96381  10.774   8.461   8.139 -0.3125  0.0043 -0.0429
26130SOL    HW196382  10.785   8.459   8.044 -1.0127 -0.0096 -0.1304
26130SOL    HW296383  10.700   8.402   8.156  0.3115 -0.6192  0.5909
26131SOL     OW96384  11.606   6.296  10.012 -0.4432  0.2699 -0.3394
26131SOL    HW196385  11.638   6.212  10.044 -0.0806  0.1886 -0.9104
26131SOL    HW296386  11.681   6.337   9.969 -0.8473  0.5008 -0.8391
26132SOL     OW96387   0.631  13.605   4.918 -0.5353 -0.1768  0.5108
26132SOL    HW196388   0.583  13.647   4.847  0.8735 -0.7964 -0.8724
26132SOL    HW296389   0.681  13.676   4.958 -2.4915  0.4715  1.9612
26133SOL     OW96390   8.679  13.628   8.239 -1.3252  0.3960 -0.0333
26133SOL    HW196391   8.714  13.540   8.250 -0.6511  0.4831 -1.2741
26133SOL    HW296392   8.591  13.615   8.202 -1.0400  0.2495 -0.6621
26134SOL     OW96393   7.299   2.396   2.338 -0.4239 -1.0837 -0.2607
26134SOL    HW196394   7.318   2.330   2.271  0.6529 -0.3398 -0.7113
26134SOL    HW296395   7.385   2.419   2.374 -0.9996 -1.6959  1.6166
26135SOL     OW96396   9.597  10.138   0.666 -0.0439  0.3111  0.0191
26135SOL    HW196397   9.550  10.145   0.582  0.2016 -0.5611 -0.2045
26135SOL    HW296398   9.661  10.068   0.651 -0.5376 -0.4048  1.1970
26136SOL     OW96399   3.845  13.116   2.228 -0.0779 -0.3613  0.4291
26136SOL    HW196400   3.888  13.046   2.277  0.7823  0.0965  0.3603
26136SOL    HW296401   3.754  13.089   2.221 -0.0587 -0.7969  1.6278
26137SOL     OW96402  12.706   3.652   8.976 -0.6371 -0.1468  0.0745
26137SOL    HW196403  12.686   3.638   8.884 -0.0254 -0.3462 -0.0325
26137SOL    HW296404  12.705   3.565   9.015 -0.9998 -0.0529  0.2805
26138SOL     OW96405  12.981   1.570   4.997 -0.1475  0.4099  0.5047
26138SOL    HW196406  13.028   1.644   5.035  0.0163  1.5672 -1.7946
26138SOL    HW296407  13.029   1.548   4.917 -0.9776 -1.3153  0.4213
26139SOL     OW96408   1.875  12.929   2.693 -0.3223  0.0587 -0.1774
26139SOL    HW196409   1.858  12.886   2.777  0.6923  1.2563  0.6856
26139SOL    HW296410   1.954  12.888   2.660 -0.3678  0.0163 -0.2320
26140SOL     OW96411  10.502   1.284   3.651  0.5022 -0.0199 -0.0150
26140SOL    HW196412  10.425   1.274   3.706  1.9041 -1.1823  1.8673
26140SOL    HW296413  10.539   1.369   3.674 -0.9144  1.2231 -1.9824
26141SOL     OW96414  11.016   6.180  12.085  0.1149 -0.2686 -0.2735
26141SOL    HW196415  11.003   6.144  11.997 -0.8919 -0.5876 -0.0188
26141SOL    HW296416  11.075   6.118  12.128 -0.0493 -0.5639 -0.4691
26142SOL     OW96417   7.085   5.811   0.868  0.0283 -0.1927  0.6029
26142SOL    HW196418   7.102   5.819   0.774  0.8441 -2.6687  0.4598
26142SOL    HW296419   7.152   5.866   0.909  1.0557 -0.7690 -0.2489
26143SOL     OW96420   6.044   3.140   2.568  0.6130 -0.1314 -0.6176
26143SOL    HW196421   6.051   3.046   2.586  0.6655 -0.0608 -0.2679
26143SOL    HW296422   6.061   3.182   2.652  0.2675  0.1821 -0.7032
26144SOL     OW96423   4.353  12.070  13.476 -0.0992 -0.6113  0.0543
26144SOL    HW196424   4.305  12.016  13.539 -0.1169  0.1067  0.6621
26144SOL    HW296425   4.300  12.066  13.397 -0.4619 -0.9185  0.3069
26145SOL     OW96426   3.314   1.939  13.997  0.4582 -0.0447 -0.4233
26145SOL    HW196427   3.253   1.961  13.927  1.4191 -2.1145 -1.9971
26145SOL    HW296428   3.366   1.867  13.962  3.6156  1.4030  0.9568
26146SOL     OW96429  12.739  12.133   3.005  0.2513  0.2725 -0.5209
26146SOL    HW196430  12.663  12.076   3.010  0.8429 -0.4352  1.4714
26146SOL    HW296431  12.813  12.077   3.029  0.8409  1.7992  1.5984
26147SOL     OW96432   2.932   0.251   8.991 -0.1678  0.0601 -0.2212
26147SOL    HW196433   2.950   0.327   8.936 -0.6213  0.4880  0.2182
26147SOL    HW296434   2.869   0.282   9.056  0.4568 -0.3968  0.6274
26148SOL     OW96435   1.050   8.211  12.219 -0.0854  0.1186 -0.6911
26148SOL    HW196436   1.130   8.259  12.198 -0.3948 -0.1973 -2.9075
26148SOL    HW296437   1.055   8.131  12.166 -0.6332 -1.2526  1.2018
26149SOL     OW96438   1.887  11.700   9.649 -0.3826 -0.2164  0.4681
26149SOL    HW196439   1.900  11.690   9.744  1.1147 -1.3947  0.1840
26149SOL    HW296440   1.854  11.614   9.621  0.8233 -0.4473 -0.3049
26150SOL     OW96441   3.335   7.751   6.497  0.3989  0.1291 -0.1715
26150SOL    HW196442   3.380   7.826   6.458  1.7720 -1.4298 -1.7584
26150SOL    HW296443   3.263   7.732   6.437 -1.1370  1.2902  1.2314
26151SOL     OW96444   0.522   5.221  12.171  0.4953  0.2539  0.2489
26151SOL    HW196445   0.566   5.200  12.253  2.2068  0.1562 -0.6618
26151SOL    HW296446   0.440   5.171  12.175  0.5729  0.1861  1.8417
26152SOL     OW96447   0.582   3.530   2.095 -0.6342 -0.0428  0.1533
26152SOL    HW196448   0.601   3.591   2.023 -0.3503  0.5280  0.7019
26152SOL    HW296449   0.632   3.451   2.072 -0.1046  0.3286 -0.0122
26153SOL     OW96450   8.040  11.540   1.421  0.5372  0.0507 -0.1898
26153SOL    HW196451   8.070  11.568   1.335 -0.4556 -0.7006 -0.8101
26153SOL    HW296452   7.948  11.564   1.423  0.2478 -1.0166  0.1730
26154SOL     OW96453   2.197  12.976   5.906 -0.1720  1.0475  0.0652
26154SOL    HW196454   2.180  12.983   6.000  1.2918 -1.4150  0.5888
26154SOL    HW296455   2.115  12.943   5.869 -0.1828  0.2477  0.7792
26155SOL     OW96456   9.365   9.524   1.631 -0.1219 -0.6223 -0.2181
26155SOL    HW196457   9.367   9.526   1.535  0.9490 -0.9953 -0.2148
26155SOL    HW296458   9.447   9.566   1.657 -1.8035  2.4619  0.6159
26156SOL     OW96459   4.199  13.840   4.550  0.1213 -0.6826  0.0173
26156SOL    HW196460   4.290  13.826   4.576  0.3121 -0.3203 -0.4398
26156SOL    HW296461   4.149  13.784   4.608  0.6882 -1.4455 -0.2080
26157SOL     OW96462  13.537  10.638   3.489 -0.6175  0.2294 -0.3324
26157SOL    HW196463  13.442  10.642   3.492 -0.8384 -2.6181 -0.9675
26157SOL    HW296464  13.561  10.690   3.412 -1.9278 -1.2644 -1.8125
26158SOL     OW96465  12.867   7.889   1.576  0.2346 -0.1087  0.3272
26158SOL    HW196466  12.851   7.964   1.633  1.8151 -0.1045  0.8354
26158SOL    HW296467  12.923   7.831   1.629  1.9493 -0.0053 -1.2714
26159SOL     OW96468   3.449  13.460   0.315  0.2069 -0.0651  0.6918
26159SOL    HW196469   3.382  13.393   0.327 -0.0871  0.3022  1.1276
26159SOL    HW296470   3.511  13.445   0.386 -0.8330  1.2729  1.9406
26160SOL     OW96471   5.645  11.878   9.319  0.0106 -0.0198  0.0103
26160SOL    HW196472   5.647  11.974   9.320 -0.3523 -0.0160  0.5351
26160SOL    HW296473   5.715  11.854   9.258  0.9554  0.5601  0.8264
26161SOL     OW96474   1.522   3.645   0.160  0.1587  0.4188 -0.3605
26161SOL    HW196475   1.552   3.564   0.118 -1.5117 -2.2348  3.0642
26161SOL    HW296476   1.433   3.657   0.128  0.0537  0.3505 -0.0886
26162SOL     OW96477   7.839   6.716  12.438 -0.1058  0.0539  0.2443
26162SOL    HW196478   7.851   6.667  12.519 -0.3270 -1.8965 -0.8274
26162SOL    HW296479   7.744   6.726  12.429 -0.1099 -0.2562 -0.0627
26163SOL     OW96480   7.759   3.209  11.915  0.4207  0.5951 -0.0955
26163SOL    HW196481   7.746   3.293  11.959 -0.4517 -0.4794  1.8546
26163SOL    HW296482   7.842   3.176  11.951  1.9281  1.5007 -2.4860
26164SOL     OW96483   9.510   4.953  12.641 -0.5426  0.2895 -0.7562
26164SOL    HW196484   9.552   4.868  12.652  3.8232  1.8019 -3.3937
26164SOL    HW296485   9.440   4.937  12.578 -1.8442 -1.7513  1.0687
26165SOL     OW96486   7.334   3.219   0.011  0.3944 -0.0501  0.1384
26165SOL    HW196487   7.333   3.254   0.100  1.0971  2.2376 -0.6781
26165SOL    HW296488   7.290   3.286  -0.042  3.2214  0.4786 -1.7798
26166SOL     OW96489   7.527  12.685   8.754 -0.2433 -0.5316  0.0907
26166SOL    HW196490   7.606  12.735   8.773 -1.3691  1.1949  0.5050
26166SOL    HW296491   7.487  12.731   8.680 -1.4479 -0.6418  0.6501
26167SOL     OW96492   7.423   5.953  10.875  0.1639  0.2870  0.3594
26167SOL    HW196493   7.336   5.960  10.915 -1.3131  0.6500 -2.6336
26167SOL    HW296494   7.450   6.043  10.859  0.4881  0.1501  0.1135
26168SOL     OW96495   7.578   2.494   4.804  0.5478 -0.1927  0.6544
26168SOL    HW196496   7.656   2.440   4.816  1.2651  0.7312  0.3595
26168SOL    HW296497   7.581   2.556   4.877  0.9133  0.7707 -0.1456
26169SOL     OW96498   2.344   0.776  13.751  0.3049  0.2103  0.0740
26169SOL    HW196499   2.418   0.717  13.740 -0.6343 -1.0580  0.2782
26169SOL    HW296500   2.288   0.759  13.675  1.0192  2.4512 -1.0658
26170SOL     OW96501  13.737  10.238   9.835  0.2043 -0.6948 -0.0507
26170SOL    HW196502  13.829  10.220   9.856  0.3504 -1.1114 -0.9855
26170SOL    HW296503  13.699  10.152   9.818 -0.5984 -0.6120  1.1835
26171SOL     OW96504  11.720   6.176   3.143  0.0899 -0.2241  0.6080
26171SOL    HW196505  11.771   6.190   3.223  0.6662 -1.2233  0.4297
26171SOL    HW296506  11.784   6.151   3.078 -0.3162  1.0629 -0.3209
26172SOL     OW96507  11.028   2.637   9.393  0.0575  0.3388 -0.4185
26172SOL    HW196508  11.056   2.620   9.303 -1.2705 -1.2201 -0.5606
26172SOL    HW296509  10.934   2.622   9.392 -0.1013  1.1135  1.0663
26173SOL     OW96510  12.477   5.720   1.583  0.0932 -0.0555  0.4084
26173SOL    HW196511  12.478   5.629   1.552  0.6515 -0.1093  0.5620
26173SOL    HW296512  12.464   5.772   1.503 -0.6836 -0.2880  0.3820
26174SOL     OW96513   4.618  10.998   6.510  0.6241  0.1673 -0.2263
26174SOL    HW196514   4.564  10.951   6.446 -0.3052  0.3407  0.4083
26174SOL    HW296515   4.707  10.994   6.475  0.7238 -2.6487  0.0934
26175SOL     OW96516  10.330   5.284   9.520  0.1080  0.1403 -0.6833
26175SOL    HW196517  10.267   5.321   9.459 -0.1801  1.4813  0.3706
26175SOL    HW296518  10.415   5.315   9.489 -0.1717  2.3353  0.5245
26176SOL     OW96519   0.182  12.089   8.445 -0.5546 -0.2444  0.0561
26176SOL    HW196520   0.096  12.048   8.450 -1.1218  1.0251  1.8012
26176SOL    HW296521   0.228  12.057   8.523  0.5627 -0.8887 -0.8471
26177SOL     OW96522   2.460   2.067   4.604  0.2143  0.0892 -0.2918
26177SOL    HW196523   2.546   2.058   4.645  0.3767  1.7702 -0.2259
26177SOL    HW296524   2.416   1.983   4.622  1.4277 -0.3724  0.6148
26178SOL     OW96525   1.609   9.312   2.735 -0.1783  0.2891 -0.6072
26178SOL    HW196526   1.552   9.237   2.752  0.7855 -0.2201  0.5195
26178SOL    HW296527   1.698   9.277   2.743  0.2991  1.2198 -1.6393
26179SOL     OW96528   7.860   7.690   7.796  0.4970  0.4945  0.1813
26179SOL    HW196529   7.938   7.646   7.830 -0.9408 -2.9820 -0.5763
26179SOL    HW296530   7.802   7.697   7.872 -0.6530 -2.4392 -0.2892
26180SOL     OW96531   2.515   1.963   9.680 -0.6883 -0.8610  0.0304
26180SOL    HW196532   2.562   1.989   9.759 -0.6921 -1.1212  0.1183
26180SOL    HW296533   2.502   2.045   9.632 -0.2330 -0.7716  0.0518
26181SOL     OW96534   9.288  10.809  13.566 -0.4907  0.8913  0.0745
26181SOL    HW196535   9.199  10.805  13.530  0.2156  0.9851 -1.7741
26181SOL    HW296536   9.289  10.742  13.633 -2.2441  1.5475  0.8383
26182SOL     OW96537   5.120  10.136   7.079 -1.0088  0.3729  0.3254
26182SOL    HW196538   5.144  10.140   6.986 -1.6889  0.0161  0.1244
26182SOL    HW296539   5.126  10.043   7.101 -1.0979  0.4241  0.5657
26183SOL     OW96540   0.224   1.423   3.046  0.4657 -0.0444 -0.4724
26183SOL    HW196541   0.254   1.514   3.042  0.3048  0.1049  1.1831
26183SOL    HW296542   0.240   1.396   3.136 -0.4238 -1.3368 -0.6747
26184SOL     OW96543  10.668   8.717   4.728  0.3461 -0.1081 -0.8011
26184SOL    HW196544  10.590   8.766   4.749  0.7427  0.0852  0.2622
26184SOL    HW296545  10.740   8.769   4.764  0.8792 -0.7753 -0.8784
26185SOL     OW96546  11.225   7.075  12.447 -0.1181 -0.1371 -0.0874
26185SOL    HW196547  11.240   7.021  12.524  0.8319 -1.5352 -1.2082
26185SOL    HW296548  11.294   7.050  12.386  0.1011  2.0436 -0.8317
26186SOL     OW96549  12.816   0.025   7.624  0.8955 -0.8553  0.0242
26186SOL    HW196550  12.855  -0.006   7.706  0.1982  0.3774  0.8536
26186SOL    HW296551  12.723   0.030   7.642  0.8941  1.0912 -0.2336
26187SOL     OW96552   2.652   9.065   4.397 -0.2387 -0.3616 -0.0192
26187SOL    HW196553   2.577   9.061   4.456 -0.0064  0.6805  0.3813
26187SOL    HW296554   2.647   8.985   4.345 -2.7786  0.6053 -1.4337
26188SOL     OW96555  12.461   2.637   7.422 -0.8322  0.1210  0.3649
26188SOL    HW196556  12.511   2.560   7.396 -0.8661  0.3096 -0.2741
26188SOL    HW296557  12.445   2.625   7.516  1.7347  0.8016  0.9507
26189SOL     OW96558   5.472  12.108  12.914 -0.3076  0.2156  0.4368
26189SOL    HW196559   5.389  12.078  12.949  0.2266 -0.7693  0.8977
26189SOL    HW296560   5.530  12.114  12.990  0.0719  0.8092  0.1145
26190SOL     OW96561   1.789  11.664   1.175  0.1600 -0.1855  0.1959
26190SOL    HW196562   1.757  11.625   1.257 -1.3289 -0.0676 -0.3023
26190SOL    HW296563   1.771  11.597   1.109  0.0315  0.2865 -0.2492
26191SOL     OW96564   5.776   9.093  10.851 -0.1832  0.4862  0.3138
26191SOL    HW196565   5.684   9.084  10.826  0.0079  0.5855 -0.4350
26191SOL    HW296566   5.820   9.018  10.810  0.1850  0.8250  0.0840
26192SOL     OW96567  13.523  11.093   4.679  0.0326 -0.0328  0.3676
26192SOL    HW196568  13.513  11.174   4.630 -0.8978  0.1534  0.8476
26192SOL    HW296569  13.523  11.024   4.613 -0.9515  0.2320  0.0793
26193SOL     OW96570  11.620   4.017  11.676 -0.2119  0.4436 -0.0482
26193SOL    HW196571  11.549   3.981  11.623 -1.4246 -0.1307  1.8859
26193SOL    HW296572  11.578   4.053  11.753  1.5263  0.8999  0.7494
26194SOL     OW96573   5.372  11.542   9.196 -0.3906  0.1371 -0.6738
26194SOL    HW196574   5.463  11.520   9.216 -0.6144 -1.2175 -1.0321
26194SOL    HW296575   5.359  11.630   9.232  0.7523 -0.0795  0.3019
26195SOL     OW96576   9.980   6.424   6.152 -0.6538 -0.2737 -0.6503
26195SOL    HW196577   9.951   6.404   6.241  1.9178 -0.2869  0.2544
26195SOL    HW296578   9.969   6.519   6.144  0.2529 -0.0871  0.1535
26196SOL     OW96579   6.080   6.478  14.038 -0.2720  0.0273  0.1794
26196SOL    HW196580   6.167   6.439  14.028  1.2329  2.3340  2.9491
26196SOL    HW296581   6.052   6.452  14.125 -0.4913  2.5679  0.9360
26197SOL     OW96582   5.177   2.971   7.116  0.8484  0.5922  0.0498
26197SOL    HW196583   5.185   3.066   7.119  1.0771  0.5799 -0.1816
26197SOL    HW296584   5.265   2.940   7.095  0.2237  0.4517 -2.7031
26198SOL     OW96585  11.789   7.224  13.296 -0.0779  0.8968 -0.6244
26198SOL    HW196586  11.769   7.302  13.245 -1.6293  0.0423 -1.3950
26198SOL    HW296587  11.796   7.154  13.231 -0.7038  0.0450  0.2033
26199SOL     OW96588   9.028   4.571  12.284 -0.0345 -0.4537 -0.0901
26199SOL    HW196589   9.044   4.548  12.193  1.9541  1.5392 -0.3304
26199SOL    HW296590   9.113   4.601  12.316 -1.3529  1.9252  1.4804
26200SOL     OW96591   4.172   0.187  11.973 -0.0483 -0.1711  0.6082
26200SOL    HW196592   4.191   0.115  12.034  2.1035 -0.3881 -0.2326
26200SOL    HW296593   4.095   0.230  12.010 -0.2716 -1.7831  2.1365
26201SOL     OW96594   7.230   5.140   3.833  0.3014 -0.0491 -0.4111
26201SOL    HW196595   7.254   5.047   3.835  0.4175 -0.0592 -1.4603
26201SOL    HW296596   7.255   5.169   3.745 -1.9514  0.3598 -0.9827
26202SOL     OW96597   6.132   9.867   7.711 -0.0233 -0.2650 -0.3756
26202SOL    HW196598   6.082   9.801   7.759 -0.2640 -0.9307 -1.5183
26202SOL    HW296599   6.095   9.866   7.623  0.0447  1.3199 -0.4565
26203SOL     OW96600   2.081   6.582   5.637 -0.2639  0.1074  0.3521
26203SOL    HW196601   2.076   6.566   5.542  6.0457  0.9355 -0.5162
26203SOL    HW296602   2.082   6.495   5.675  0.3130 -0.3640 -0.6922
26204SOL     OW96603   7.437   5.236   8.179  0.3614 -0.0806 -0.0092
26204SOL    HW196604   7.480   5.206   8.099  1.3289  2.6474 -0.6266
26204SOL    HW296605   7.484   5.192   8.250  1.5142 -0.2505 -0.8466
26205SOL     OW96606   3.176   2.645   7.073 -0.2246 -0.1693 -0.0642
26205SOL    HW196607   3.209   2.556   7.085  0.2642 -0.0267 -0.3227
26205SOL    HW296608   3.154   2.675   7.161 -0.9094 -0.7371 -0.0332
26206SOL     OW96609   5.598   5.284   3.114 -0.4087 -0.2144 -0.2816
26206SOL    HW196610   5.647   5.366   3.105 -0.0118 -0.6622 -3.1713
26206SOL    HW296611   5.666   5.216   3.115 -0.8250 -0.7117 -2.1844
26207SOL     OW96612   1.665  13.781   5.055 -0.1055 -0.4995  0.5582
26207SOL    HW196613   1.676  13.735   5.138  0.5793 -0.0759  0.7115
26207SOL    HW296614   1.714  13.729   4.992 -1.0655 -1.1149  0.2972
26208SOL     OW96615  13.369   7.854   7.207  0.5765 -0.2938 -0.0443
26208SOL    HW196616  13.410   7.940   7.203 -0.2838  0.1167 -3.0817
26208SOL    HW296617  13.276   7.873   7.222  0.6904 -0.8859  1.5957
26209SOL     OW96618  12.241   2.376   0.877 -0.2204  0.1166 -0.2170
26209SOL    HW196619  12.248   2.378   0.781 -0.4521 -0.0614 -0.2399
26209SOL    HW296620  12.239   2.468   0.903  0.6176  0.1645 -0.3205
26210SOL     OW96621   4.714   0.590   7.654 -0.5212 -0.5446  0.3714
26210SOL    HW196622   4.750   0.678   7.662 -1.8889  0.0741  0.1573
26210SOL    HW296623   4.774   0.534   7.704  1.9327  0.0024 -1.7797
26211SOL     OW96624   5.887   9.829   3.373 -0.0451 -0.2530  0.7111
26211SOL    HW196625   5.971   9.832   3.326 -0.8779  0.1537 -0.7975
26211SOL    HW296626   5.895   9.897   3.440  0.2113  1.0128 -0.5454
26212SOL     OW96627  10.189   2.070  10.409 -0.5010  0.5849 -0.2562
26212SOL    HW196628  10.106   2.101  10.445 -1.3898 -0.3630 -1.4192
26212SOL    HW296629  10.202   2.123  10.330 -1.0233 -0.5818 -1.1526
26213SOL     OW96630   8.627   9.669   8.525  0.2515 -0.1039  0.2371
26213SOL    HW196631   8.691   9.608   8.489  0.4720  0.0066  0.4334
26213SOL    HW296632   8.679   9.745   8.551  0.0243  0.0340  0.2945
26214SOL     OW96633   8.174   7.912   2.359 -0.4061  0.1122 -0.1487
26214SOL    HW196634   8.202   7.925   2.269 -0.8313 -1.0192 -0.4692
26214SOL    HW296635   8.100   7.851   2.352  0.1913 -0.7896  1.0330
26215SOL     OW96636   6.386  11.790   6.021 -0.0097 -0.8641  0.0072
26215SOL    HW196637   6.477  11.794   6.050  1.2388 -0.4200 -3.5307
26215SOL    HW296638   6.358  11.881   6.016  0.1363 -0.8737 -1.0775
26216SOL     OW96639  11.697  11.474   6.858  0.6659  0.2786  0.5124
26216SOL    HW196640  11.737  11.431   6.781  0.0701  0.9954 -0.2113
26216SOL    HW296641  11.604  11.455   6.849  0.7421 -0.9044  1.8882
26217SOL     OW96642   9.601   7.023   6.133 -0.5905  0.2578  0.2494
26217SOL    HW196643   9.635   7.107   6.164 -0.2745  0.2838 -0.1496
26217SOL    HW296644   9.510   7.020   6.163 -0.9526  1.2545 -0.7234
26218SOL     OW96645   2.294   2.233   8.002  0.0057  0.2020  0.3282
26218SOL    HW196646   2.283   2.170   8.073  1.7448  0.0092  0.4812
26218SOL    HW296647   2.243   2.198   7.930 -0.2896 -0.5641  0.8995
26219SOL     OW96648   1.403  13.981   9.872 -0.1836  0.5434  0.3381
26219SOL    HW196649   1.311  13.956   9.886 -0.8671  3.1532  1.0733
26219SOL    HW296650   1.423  13.950   9.784 -2.5934  1.9713 -0.8275
26220SOL     OW96651   3.693  12.656   1.388 -0.1319 -0.3649 -0.3901
26220SOL    HW196652   3.758  12.655   1.458 -0.9765  0.1276  0.4372
26220SOL    HW296653   3.610  12.672   1.434 -0.6024  0.7374 -1.5757
26221SOL     OW96654   1.796   8.450   2.619 -0.0331  0.3070 -0.1088
26221SOL    HW196655   1.777   8.491   2.534 -2.1144  1.2024  0.7158
26221SOL    HW296656   1.772   8.358   2.607  1.8329 -0.0893 -1.1069
26222SOL     OW96657   3.455  10.960  11.211 -0.3577 -0.4558  0.4589
26222SOL    HW196658   3.511  10.956  11.133  0.1945  1.1903  0.7475
26222SOL    HW296659   3.505  11.011  11.274 -1.8288  0.3507  1.0220
26223SOL     OW96660  10.854   0.029   7.732 -0.2099 -0.0933 -0.6834
26223SOL    HW196661  10.812   0.093   7.790 -1.3941  2.4953 -4.0716
26223SOL    HW296662  10.781  -0.020   7.694  0.5236 -1.5113 -0.3525
26224SOL     OW96663   0.611  13.082   4.423  0.2096 -0.1385  0.2482
26224SOL    HW196664   0.685  13.133   4.389 -0.1668 -0.2583 -0.7762
26224SOL    HW296665   0.637  12.991   4.409  0.4237 -0.2159  1.0995
26225SOL     OW96666   5.430   6.876   6.613  0.0506 -0.4252 -0.3976
26225SOL    HW196667   5.440   6.831   6.697 -1.2808 -1.6469 -0.8535
26225SOL    HW296668   5.473   6.819   6.550  0.3517  0.0955 -0.6696
26226SOL     OW96669   5.472  11.224   4.213 -0.0007  0.3335  0.1532
26226SOL    HW196670   5.457  11.257   4.301  1.3192 -0.3223  0.6483
26226SOL    HW296671   5.385  11.206   4.179 -0.4740 -1.5823  2.1880
26227SOL     OW96672   0.532   8.287   4.873 -0.1136 -0.2062 -0.1073
26227SOL    HW196673   0.562   8.206   4.830  0.2551  0.1003 -0.4298
26227SOL    HW296674   0.470   8.325   4.811  0.7755  0.4825 -0.5975
26228SOL     OW96675  12.689   5.413   8.674  0.2446 -0.2281 -0.4170
26228SOL    HW196676  12.623   5.344   8.682 -1.7561  1.5755 -0.1012
26228SOL    HW296677  12.656   5.483   8.732  2.9217  0.4541  0.4256
26229SOL     OW96678   0.588  12.274   8.926 -0.3939 -0.0631  0.4174
26229SOL    HW196679   0.520  12.207   8.926 -1.5992  1.0813 -1.0784
26229SOL    HW296680   0.545  12.352   8.961  0.5928  0.3126  0.8508
26230SOL     OW96681   8.543   0.428  12.592  0.1410 -0.3061 -0.0431
26230SOL    HW196682   8.538   0.523  12.609 -0.7491 -0.5264  1.1129
26230SOL    HW296683   8.591   0.421  12.510  0.2788  1.1506 -0.1263
26231SOL     OW96684  13.194   3.865   5.026  0.3165  0.2390 -0.5210
26231SOL    HW196685  13.219   3.919   4.951  2.4027  0.5670  0.3676
26231SOL    HW296686  13.142   3.923   5.081  1.7620  1.1092 -0.0265
26232SOL     OW96687  13.198   0.520   3.653  0.2508 -0.3088  0.0112
26232SOL    HW196688  13.279   0.562   3.682  0.8273 -0.0653 -1.7832
26232SOL    HW296689  13.184   0.555   3.565 -1.3868 -0.9648 -0.0187
26233SOL     OW96690  12.228   7.906   1.478 -0.1463  0.2208 -0.0461
26233SOL    HW196691  12.322   7.922   1.469 -0.1188  0.4593  0.6336
26233SOL    HW296692  12.187   7.989   1.453 -0.1549  0.2806  0.1714
26234SOL     OW96693   1.069   3.643  13.887 -0.4712 -0.5616  0.0575
26234SOL    HW196694   1.072   3.695  13.967  1.2936 -1.9953  0.9765
26234SOL    HW296695   1.044   3.706  13.819 -1.2350  0.8502  1.5702
26235SOL     OW96696   6.648   6.402  12.010 -0.3775  0.3016  0.0479
26235SOL    HW196697   6.742   6.389  12.022 -0.4136 -0.9214 -0.7346
26235SOL    HW296698   6.632   6.493  12.034  1.2575  0.9643 -1.2160
26236SOL     OW96699   3.801   6.496   5.574 -0.9848 -0.1749  0.1428
26236SOL    HW196700   3.717   6.459   5.547 -0.9066 -1.0262  0.9761
26236SOL    HW296701   3.778   6.568   5.632 -1.1448 -0.1912  0.1000
26237SOL     OW96702   1.890  12.015   8.221  0.2287 -0.6207 -0.2991
26237SOL    HW196703   1.843  12.084   8.174 -0.7914 -2.2211 -1.7224
26237SOL    HW296704   1.831  11.988   8.291  0.0130 -1.0231 -0.6335
26238SOL     OW96705  12.018  12.045   9.056 -0.4291  0.0439 -0.2073
26238SOL    HW196706  12.019  12.136   9.086  0.5560  1.0545 -3.0169
26238SOL    HW296707  12.046  11.994   9.132  1.3273  2.3441  0.7840
26239SOL     OW96708   3.801  11.968   1.942 -0.3859 -0.5872 -0.2472
26239SOL    HW196709   3.779  11.893   1.886  0.2505  1.3488 -3.2744
26239SOL    HW296710   3.724  11.978   1.999 -1.5383 -2.0335 -1.4633
26240SOL     OW96711  11.676   6.757  12.013  0.4030 -0.1662  0.1888
26240SOL    HW196712  11.682   6.828  11.950 -0.3106  0.8334  1.2088
26240SOL    HW296713  11.663   6.679  11.960 -0.5924  0.6891 -0.8758
26241SOL     OW96714   7.255   3.132  11.073  0.4036 -0.5715 -0.3315
26241SOL    HW196715   7.225   3.098  11.158  0.8460 -0.2205 -0.0280
26241SOL    HW296716   7.174   3.149  11.025  0.1613 -2.0094 -0.4875
26242SOL     OW96717  12.842   4.649  13.599 -0.0684  0.5613  1.1542
26242SOL    HW196718  12.794   4.577  13.640 -1.6681  0.7204 -0.3320
26242SOL    HW296719  12.852   4.622  13.507  0.0216  1.8565  0.7640
26243SOL     OW96720  13.534  14.094   6.524 -0.5540  1.0514 -0.0976
26243SOL    HW196721  13.616  14.133   6.555 -1.0093  0.5308  1.8708
26243SOL    HW296722  13.469  14.164   6.534 -0.5268  1.2104 -0.9156
26244SOL     OW96723   6.162   8.037  12.615  0.0543 -0.4807  0.1838
26244SOL    HW196724   6.244   8.038  12.566  0.5213 -3.8647  0.6396
26244SOL    HW296725   6.095   8.058  12.549  1.0992  0.6804 -0.5639
26245SOL     OW96726   8.851  11.736   7.403 -0.2467 -0.3925  0.0604
26245SOL    HW196727   8.867  11.655   7.355 -0.0969  1.1010 -2.6606
26245SOL    HW296728   8.765  11.764   7.374 -0.9527 -0.2717  2.1242
26246SOL     OW96729   8.855   9.276   8.740  0.4913  0.1432  0.0174
26246SOL    HW196730   8.886   9.194   8.776  1.4658  0.1504 -0.7483
26246SOL    HW296731   8.889   9.343   8.799  1.0283  0.0827 -0.2195
26247SOL     OW96732   3.256  12.127   7.827 -0.0818  0.0799  0.5140
26247SOL    HW196733   3.251  12.181   7.747  0.6088  0.7610  0.9201
26247SOL    HW296734   3.217  12.182   7.895 -0.8801 -0.5899  0.6126
26248SOL     OW96735   6.097  10.292   0.018  0.2647  0.7168  0.3013
26248SOL    HW196736   6.088  10.387   0.005 -2.0139  0.1762 -3.9088
26248SOL    HW296737   6.081  10.255  -0.069  0.7069 -3.6025  1.8534
26249SOL     OW96738  10.520   9.675   7.002 -0.4073 -0.1921  0.0641
26249SOL    HW196739  10.584   9.745   6.988  0.5663 -1.3476 -1.5528
26249SOL    HW296740  10.509   9.635   6.915  0.1016 -2.9198  1.1719
26250SOL     OW96741   5.268   7.033   8.580 -0.5242 -1.0995 -0.3949
26250SOL    HW196742   5.310   6.987   8.652  1.4862  0.2547 -0.6100
26250SOL    HW296743   5.189   7.071   8.618  1.4910  1.2938  1.7345
26251SOL     OW96744   7.378   2.409   2.699 -0.0123 -0.1693  0.5021
26251SOL    HW196745   7.311   2.342   2.683  0.6195 -0.8554  0.6660
26251SOL    HW296746   7.452   2.360   2.737  0.2557  0.7077  1.1218
26252SOL     OW96747   2.962  13.061  12.365 -0.0569  0.8453 -0.0289
26252SOL    HW196748   2.877  13.101  12.347  0.3262  2.5612  1.6579
26252SOL    HW296749   2.945  12.997  12.434 -0.2912 -0.3735 -1.1748
26253SOL     OW96750  13.133   0.235   0.987  0.2900 -0.0231 -0.0344
26253SOL    HW196751  13.179   0.266   1.065  1.2260 -1.7278  0.1375
26253SOL    HW296752  13.054   0.194   1.020  0.8023 -0.9549  0.0498
26254SOL     OW96753   9.634  11.340   6.421  0.3098  0.5898 -0.2640
26254SOL    HW196754   9.614  11.260   6.470  1.2394  1.3153  1.3633
26254SOL    HW296755   9.687  11.393   6.481 -1.3880  3.0234 -0.7557
26255SOL     OW96756  12.432   6.668   2.136  0.2188  0.5429 -0.1185
26255SOL    HW196757  12.387   6.742   2.177  0.1693  0.4310  0.0295
26255SOL    HW296758  12.364   6.623   2.087  0.5541  1.5088 -1.5404
26256SOL     OW96759  13.527   7.158   9.777 -0.0269 -0.0308 -0.1713
26256SOL    HW196760  13.512   7.089   9.842 -1.3001 -0.6780 -1.0906
26256SOL    HW296761  13.557   7.233   9.827 -1.6517 -0.2810  1.2652
26257SOL     OW96762   5.248   0.806  11.459 -0.2605 -0.2161  0.2214
26257SOL    HW196763   5.330   0.824  11.506 -0.2697  1.8640 -0.4181
26257SOL    HW296764   5.181   0.801  11.527  0.1980 -0.5268  0.6529
26258SOL     OW96765  10.404  12.782   3.004  0.4737  0.5424  0.1931
26258SOL    HW196766  10.312  12.760   3.020  0.1189  1.8583  0.1048
26258SOL    HW296767  10.453  12.704   3.031 -0.6439 -0.0795  0.4862
26259SOL     OW96768  11.316  12.373  13.947 -0.0471 -0.6304 -0.2196
26259SOL    HW196769  11.265  12.414  13.877  0.6589  0.4182 -0.1466
26259SOL    HW296770  11.349  12.447  13.998 -2.5480 -1.3227  2.7179
26260SOL     OW96771   7.961  13.364   9.719  0.0562 -0.0852 -0.7290
26260SOL    HW196772   8.049  13.370   9.682  0.2808  0.8401 -0.0955
26260SOL    HW296773   7.972  13.311   9.798 -0.0933 -0.5792 -1.0392
26261SOL     OW96774   2.326  13.617   9.912 -0.1691  0.1677 -0.0825
26261SOL    HW196775   2.363  13.574   9.835 -2.3793  0.6656 -1.5327
26261SOL    HW296776   2.236  13.584   9.916 -0.8018  1.9168  0.9193
26262SOL     OW96777   1.799  13.078   0.930  0.2757  0.2273 -0.4819
26262SOL    HW196778   1.870  13.066   0.867  0.2973 -3.0954 -0.0057
26262SOL    HW296779   1.719  13.060   0.880  0.2314 -1.5068  0.1373
26263SOL     OW96780   7.991   9.339   6.915  0.5727 -0.5573 -0.4089
26263SOL    HW196781   8.029   9.251   6.909  1.8854 -0.0464  0.0854
26263SOL    HW296782   8.039   9.381   6.986 -1.2776 -0.0212  0.5608
26264SOL     OW96783  12.337   0.911   7.149 -0.4316 -0.3122  0.4610
26264SOL    HW196784  12.432   0.918   7.163 -0.5594  0.1821  1.0915
26264SOL    HW296785  12.310   0.999   7.125 -0.2800 -1.0135 -2.7432
26265SOL     OW96786  12.141   3.129   0.617  0.1348 -0.2851  0.0738
26265SOL    HW196787  12.211   3.121   0.682 -0.3571 -2.2503  0.4130
26265SOL    HW296788  12.060   3.117   0.667 -0.2606 -1.6355 -0.8464
26266SOL     OW96789   9.856   9.001   5.544 -0.4779 -0.5088 -0.0187
26266SOL    HW196790   9.862   8.906   5.530 -1.6813 -0.5015 -0.6847
26266SOL    HW296791   9.824   9.036   5.461 -1.0422  0.3561  0.5492
26267SOL     OW96792   3.059  12.040   5.840 -0.0810  0.3007  0.2587
26267SOL    HW196793   3.123  11.971   5.824 -0.4763  0.3726 -2.0836
26267SOL    HW296794   3.004  12.007   5.912 -0.0352 -1.6770 -0.5520
26268SOL     OW96795  13.415  10.716  10.584 -0.3782 -0.2523  0.2691
26268SOL    HW196796  13.482  10.774  10.546  1.3774 -2.4062 -0.1141
26268SOL    HW296797  13.348  10.710  10.516 -0.0563  0.4666 -0.1269
26269SOL     OW96798   1.091   4.430   6.626 -0.2482  0.2158  0.3690
26269SOL    HW196799   1.146   4.398   6.554  0.5489 -1.5900  1.7086
26269SOL    HW296800   1.019   4.368   6.631 -1.0886  1.1579  0.2339
26270SOL     OW96801  11.969   6.721  11.427 -0.0692 -0.6005 -0.2520
26270SOL    HW196802  12.019   6.784  11.376  1.6529 -0.1688  1.8845
26270SOL    HW296803  12.018   6.639  11.419 -1.4394 -1.3640 -1.6836
26271SOL     OW96804  11.498   4.210   9.070  0.2858 -0.0579  0.0006
26271SOL    HW196805  11.550   4.284   9.038  1.1395 -1.1174 -1.1790
26271SOL    HW296806  11.560   4.155   9.117 -0.0005 -0.7685 -0.4343
26272SOL     OW96807   7.815  13.656   9.242 -0.1521 -0.4408 -0.2444
26272SOL    HW196808   7.780  13.658   9.153 -0.7858 -0.3396 -0.0008
26272SOL    HW296809   7.795  13.742   9.278  1.3625  0.0289 -0.4604
26273SOL     OW96810   9.726  11.386  11.632  0.3015 -0.2059  0.1329
26273SOL    HW196811   9.755  11.377  11.541 -0.9191  0.1681 -0.3165
26273SOL    HW296812   9.744  11.478  11.654  0.3671 -0.2325  0.1905
26274SOL     OW96813   9.125   5.724   0.269  0.2659 -0.0886  0.6511
26274SOL    HW196814   9.044   5.774   0.266 -0.0262 -0.5625  0.6069
26274SOL    HW296815   9.194   5.789   0.256 -0.1495  0.2010 -0.1806
26275SOL     OW96816  11.344   5.389   9.790  0.5411  0.7588 -0.1163
26275SOL    HW196817  11.284   5.335   9.739 -0.1042  1.5982 -0.2800
26275SOL    HW296818  11.369   5.334   9.864 -1.5057  0.8360  0.6955
26276SOL     OW96819   0.085   1.566   7.871  0.4094  0.1331  0.9837
26276SOL    HW196820   0.136   1.544   7.793  1.5879 -1.5623  2.1793
26276SOL    HW296821   0.134   1.637   7.912  0.3154  0.3568  0.7167
26277SOL     OW96822  11.612   1.803   9.929  0.1879 -0.0689  0.1693
26277SOL    HW196823  11.561   1.747   9.870  0.2036 -0.2816  0.3582
26277SOL    HW296824  11.630   1.882   9.877 -0.4300  0.0570  0.1432
26278SOL     OW96825   1.521   3.163  10.652 -0.4403  0.1616 -0.6462
26278SOL    HW196826   1.570   3.211  10.585  1.1941  1.8321  1.5872
26278SOL    HW296827   1.584   3.101  10.687 -0.8790  0.1746  0.1750
26279SOL     OW96828   1.015  11.845   4.815 -0.4459  0.0520 -0.0326
26279SOL    HW196829   1.074  11.919   4.827 -1.6853  0.8854  1.1240
26279SOL    HW296830   1.071  11.768   4.829  0.2541  0.8249  1.7402
26280SOL     OW96831   7.247  10.083  11.694  0.0401 -0.2730  0.0268
26280SOL    HW196832   7.303  10.019  11.737  0.1246 -0.4328 -0.3227
26280SOL    HW296833   7.158  10.051  11.708  0.1266 -1.0702 -1.0964
26281SOL     OW96834   3.093   3.945  13.938 -0.4909  0.0337 -0.2610
26281SOL    HW196835   3.167   3.977  13.991 -1.3138 -0.2102  1.0764
26281SOL    HW296836   3.015   3.967  13.990 -1.1557 -5.1972  1.5080
26282SOL     OW96837  10.542   2.277   8.437 -0.5713  0.1946  0.1875
26282SOL    HW196838  10.634   2.250   8.440 -1.1842 -1.9803  1.1260
26282SOL    HW296839  10.523   2.308   8.525 -1.1956 -1.1997  0.5824
26283SOL     OW96840   7.908   3.658   0.350  0.0835 -0.3916  0.3501
26283SOL    HW196841   7.960   3.665   0.431 -0.0665  0.6175  0.3762
26283SOL    HW296842   7.817   3.661   0.380  0.0281  0.2310  0.1369
26284SOL     OW96843   6.164   7.473  10.430 -0.4835 -0.3606  0.3900
26284SOL    HW196844   6.203   7.539  10.487  1.0889 -1.6889  0.9418
26284SOL    HW296845   6.178   7.390  10.476 -3.9886 -1.0123  0.5866
26285SOL     OW96846   1.033   9.883   9.922 -0.2938 -0.1539 -0.6282
26285SOL    HW196847   1.053   9.794   9.893  1.7539 -0.2130  0.7572
26285SOL    HW296848   0.937   9.886   9.926 -0.4891 -1.6316 -2.5993
26286SOL     OW96849   6.450   2.666  11.415  0.0283 -0.1563 -0.1650
26286SOL    HW196850   6.426   2.668  11.323  0.9984  2.9313 -0.4664
26286SOL    HW296851   6.530   2.615  11.418  0.1257 -0.0679 -1.0751
26287SOL     OW96852   4.908   1.435  12.092 -0.3621 -0.7925  0.2649
26287SOL    HW196853   4.939   1.480  12.171 -0.5764  0.6499 -0.4356
26287SOL    HW296854   4.870   1.354  12.125 -3.2621  1.1054  2.0501
26288SOL     OW96855  12.542   0.189   6.766 -0.0676  0.3222 -0.2198
26288SOL    HW196856  12.631   0.174   6.798 -0.2429 -0.6834 -0.1774
26288SOL    HW296857  12.551   0.263   6.706  0.5407  1.1834  0.8931
26289SOL     OW96858   8.908  11.807  13.559 -0.0679 -0.2580 -0.5771
26289SOL    HW196859   8.937  11.893  13.530 -1.5927  0.0930 -1.1503
26289SOL    HW296860   8.981  11.749  13.537  2.3920  1.2641  2.6554
26290SOL     OW96861   7.279   4.975  14.094 -0.1029  0.0342  0.2373
26290SOL    HW196862   7.199   4.980  14.146 -0.0983 -1.5405  0.4405
26290SOL    HW296863   7.291   4.882  14.077  2.7853 -0.0368  1.9519
26291SOL     OW96864  12.366   9.678   9.500  0.2684  0.0300 -0.2345
26291SOL    HW196865  12.394   9.697   9.410  1.3462 -1.1921 -0.1834
26291SOL    HW296866  12.413   9.598   9.524  0.7604  0.8433  1.7638
26292SOL     OW96867  10.698  10.944  12.004 -0.0682  0.0301 -0.0683
26292SOL    HW196868  10.712  11.038  12.000 -0.5419  0.0396 -2.3211
26292SOL    HW296869  10.763  10.914  12.068  2.0478  1.5484 -1.3646
26293SOL     OW96870   2.617   4.523   2.988  0.2908 -0.9427  0.1136
26293SOL    HW196871   2.550   4.515   2.919  0.5194  0.4925 -0.3087
26293SOL    HW296872   2.655   4.609   2.974  0.6792 -0.8163  1.7656
26294SOL     OW96873   3.923   2.301   5.525  0.0808  0.2763  0.1530
26294SOL    HW196874   3.983   2.303   5.450 -0.3325 -0.2767 -0.2068
26294SOL    HW296875   3.852   2.360   5.500 -0.2880 -0.2666 -0.0992
26295SOL     OW96876   4.447   1.495   0.416 -0.0856  0.8666 -0.4648
26295SOL    HW196877   4.488   1.580   0.397  0.2339  1.2323  1.5605
26295SOL    HW296878   4.362   1.517   0.453  0.4078  0.4042  1.0430
26296SOL     OW96879   0.406  10.263   1.841 -0.1242 -0.4618 -0.5719
26296SOL    HW196880   0.384  10.175   1.871  0.1613 -0.9386 -1.6964
26296SOL    HW296881   0.412  10.255   1.746  1.3465  0.4336 -0.5905
26297SOL     OW96882   7.914   9.712  11.850 -0.0867  0.4211 -0.5833
26297SOL    HW196883   7.849   9.708  11.921 -0.3302  0.5926 -0.7942
26297SOL    HW296884   7.899   9.797  11.809  0.8507  0.8353 -0.0925
26298SOL     OW96885   2.867   2.162   5.995 -0.7005 -0.1687 -0.2231
26298SOL    HW196886   2.860   2.246   5.949 -1.1662  0.1033  0.3373
26298SOL    HW296887   2.824   2.176   6.079  0.9357 -0.3736  0.7088
26299SOL     OW96888   6.304   5.443  13.076 -0.0287 -0.0717 -0.0319
26299SOL    HW196889   6.234   5.379  13.066  0.0293 -0.6816  2.6017
26299SOL    HW296890   6.339   5.427  13.164  1.2222  2.3703  0.0159
26300SOL     OW96891  13.336   5.123   9.924 -0.8602  0.3335 -0.2674
26300SOL    HW196892  13.349   5.068  10.001 -2.5910 -1.0244 -0.8588
26300SOL    HW296893  13.405   5.188   9.928  0.2355 -0.8585  1.4066
26301SOL     OW96894   5.359   7.864   4.826 -0.2232  0.0220 -0.2456
26301SOL    HW196895   5.271   7.826   4.820 -0.0252 -1.3431  3.2665
26301SOL    HW296896   5.344   7.956   4.846 -0.7989  0.1134 -1.0484
26302SOL     OW96897   8.962   4.831   5.082 -0.4633 -0.0581  0.1830
26302SOL    HW196898   8.923   4.791   5.004  1.0609  0.6569 -0.9800
26302SOL    HW296899   8.905   4.906   5.101 -1.5560 -0.9513  0.5345
26303SOL     OW96900   5.784   0.091  13.564  0.0194 -0.0268  0.1817
26303SOL    HW196901   5.725   0.027  13.604  1.5185 -0.5519  1.6771
26303SOL    HW296902   5.753   0.176  13.595 -0.2891 -0.2615  0.5221
26304SOL     OW96903   5.848  13.350  13.758  0.1062  0.4650  0.6147
26304SOL    HW196904   5.766  13.348  13.807  0.2121 -0.6764  0.7666
26304SOL    HW296905   5.822  13.336  13.667  0.2284 -1.4799  0.8356
26305SOL     OW96906   1.360   3.844   9.792  0.4736 -0.0357  0.1537
26305SOL    HW196907   1.420   3.851   9.867  2.2270  1.3755 -1.2674
26305SOL    HW296908   1.328   3.754   9.795  1.6088 -0.4305  1.7769
26306SOL     OW96909   1.773  10.078   7.361  0.0973 -0.6570 -0.1151
26306SOL    HW196910   1.853  10.113   7.399 -1.0813  2.0657  0.1104
26306SOL    HW296911   1.742  10.015   7.426  1.3862 -0.8212  0.3755
26307SOL     OW96912   4.129   2.975   6.914  0.6074 -0.2958 -0.1676
26307SOL    HW196913   4.173   2.935   6.989  1.3891  0.1513 -0.3732
26307SOL    HW296914   4.087   2.902   6.868  1.2606 -0.7496 -0.0492
26308SOL     OW96915   8.165   0.576   6.002  0.5007  0.5872  0.2957
26308SOL    HW196916   8.123   0.491   6.016  1.1879  0.0898 -0.5490
26308SOL    HW296917   8.092   0.637   5.991 -0.2754  1.2278  5.9691
26309SOL     OW96918   7.336   1.367   8.509  0.3705  0.2523 -0.0660
26309SOL    HW196919   7.244   1.356   8.534  0.8050 -0.9318  1.1352
26309SOL    HW296920   7.381   1.296   8.554  2.0953  1.6572  0.5293
26310SOL     OW96921   2.446   5.637  13.824  0.1281 -0.0653 -0.2555
26310SOL    HW196922   2.403   5.683  13.896 -0.6400  1.0207 -1.3678
26310SOL    HW296923   2.539   5.658  13.835  0.3105 -1.5337  1.5288
26311SOL     OW96924  11.093   4.696   8.997  0.3135  0.1278 -0.0919
26311SOL    HW196925  11.070   4.606   9.021 -1.0166  0.2701 -0.7068
26311SOL    HW296926  11.097   4.743   9.080  0.6295 -0.4077  0.2027
26312SOL     OW96927  11.628   3.708   6.361  0.3284  0.3902  0.8450
26312SOL    HW196928  11.682   3.673   6.290 -1.3481  0.4709 -0.5427
26312SOL    HW296929  11.553   3.649   6.365  0.3065  0.4928  2.4581
26313SOL     OW96930   0.988  13.523   0.791 -0.9632  0.0927 -0.4402
26313SOL    HW196931   1.081  13.515   0.809 -1.3631 -2.5593  0.9656
26313SOL    HW296932   0.981  13.519   0.696  0.2977 -0.9949 -0.5100
26314SOL     OW96933   3.521   8.324   1.485  0.4116  0.5027  0.2971
26314SOL    HW196934   3.533   8.264   1.411  0.9962  0.7780  0.1639
26314SOL    HW296935   3.445   8.377   1.460  0.9021  0.9215 -0.3331
26315SOL     OW96936   4.812  12.214   8.508 -0.5213 -0.5520 -0.5151
26315SOL    HW196937   4.844  12.206   8.418 -0.8690  1.2897 -0.8467
26315SOL    HW296938   4.892  12.224   8.561 -0.1354 -4.0939 -0.2058
26316SOL     OW96939   3.401   5.238  13.523  0.4207 -0.2490  0.3189
26316SOL    HW196940   3.369   5.200  13.605  1.5066 -0.5735  0.6163
26316SOL    HW296941   3.490   5.266  13.543  0.6815 -0.2766 -0.7366
26317SOL     OW96942   6.357   4.943   0.067  0.1960 -0.0532 -0.0636
26317SOL    HW196943   6.290   4.914   0.129 -0.2561 -0.1887 -0.6054
26317SOL    HW296944   6.412   4.866   0.053 -0.4506 -0.4077 -0.7828
26318SOL     OW96945   6.721   5.035   3.826 -0.0767  0.1900  0.0169
26318SOL    HW196946   6.805   5.060   3.865 -0.6867  0.4504  1.2207
26318SOL    HW296947   6.730   5.058   3.734  1.7587 -1.2928 -0.2336
26319SOL     OW96948   9.079  10.749   7.182 -0.5452 -0.1547  0.4304
26319SOL    HW196949   9.139  10.724   7.112 -1.2176 -1.9327  0.4231
26319SOL    HW296950   9.055  10.666   7.223 -1.2189  0.7335  1.9057
26320SOL     OW96951   7.232  13.729   2.383 -0.2236  0.3461  0.2490
26320SOL    HW196952   7.204  13.808   2.429  1.2521  0.0446  1.7465
26320SOL    HW296953   7.266  13.760   2.299 -1.2014  1.1037  0.1222
26321SOL     OW96954  13.102   7.760  13.288 -0.3698  0.3619  0.3028
26321SOL    HW196955  13.169   7.829  13.291  0.3032 -0.2836  0.2630
26321SOL    HW296956  13.068   7.757  13.377 -0.5751  0.9097  0.2484
26322SOL     OW96957   1.694   8.359  13.224  0.3972 -0.4913  0.0174
26322SOL    HW196958   1.690   8.268  13.193 -2.3508 -0.4023 -0.1591
26322SOL    HW296959   1.631   8.362  13.297  1.7442  0.8854  1.1815
26323SOL     OW96960  12.740   5.434   7.466  0.2494  0.5601  0.8779
26323SOL    HW196961  12.778   5.416   7.552  1.4982 -1.9326 -0.1086
26323SOL    HW296962  12.803   5.491   7.423  1.6767 -1.4157  0.2246
26324SOL     OW96963   0.050  10.912   1.014  0.0279 -0.2744  0.4950
26324SOL    HW196964  -0.032  10.881   1.051 -0.4894 -2.5094 -2.1827
26324SOL    HW296965   0.027  10.995   0.971 -1.3674 -1.7163 -1.7257
26325SOL     OW96966  13.187   1.582   9.931  0.1278 -0.2779 -0.1996
26325SOL    HW196967  13.208   1.493   9.961  2.3137  0.0015 -0.7268
26325SOL    HW296968  13.188   1.576   9.836 -0.7553  0.1106 -0.2423
26326SOL     OW96969   6.692   0.099  14.132  0.0902 -0.4795 -0.0442
26326SOL    HW196970   6.707   0.169  14.195 -2.7283 -0.5383  0.8419
26326SOL    HW296971   6.638   0.036  14.179 -0.6087 -1.4053 -1.9786
26327SOL     OW96972   7.807  10.072   0.843  0.1625 -1.0232 -0.1446
26327SOL    HW196973   7.874  10.134   0.817  1.4644 -2.5543 -0.6003
26327SOL    HW296974   7.752  10.061   0.766  0.4679 -1.1034 -0.3515
26328SOL     OW96975  10.902  13.437  12.625  0.0191  0.6552 -0.4559
26328SOL    HW196976  10.943  13.362  12.584  0.2374  0.3642  0.2823
26328SOL    HW296977  10.949  13.513  12.591  1.5177  0.3076  0.7440
26329SOL     OW96978   0.752   7.501  10.331  0.0408  0.5835 -0.4453
26329SOL    HW196979   0.794   7.506  10.417 -0.5368  0.5969 -0.1626
26329SOL    HW296980   0.736   7.592  10.307 -0.2070  0.5604 -0.3665
26330SOL     OW96981  10.436  11.694   1.882  0.0863 -0.3670 -0.2985
26330SOL    HW196982  10.349  11.663   1.908  0.9917 -1.7035  1.3677
26330SOL    HW296983  10.492  11.673   1.956  2.3645 -1.9870 -2.3009
26331SOL     OW96984  12.408  12.608   7.590  0.0351 -0.2297 -0.3311
26331SOL    HW196985  12.400  12.554   7.512 -1.1731  0.0460 -0.4302
26331SOL    HW296986  12.319  12.643   7.604 -0.0228 -1.0313  1.6975
26332SOL     OW96987  11.625  13.237  13.698  0.8323 -0.5599 -0.5399
26332SOL    HW196988  11.619  13.245  13.603 -0.1754  3.6157 -0.3099
26332SOL    HW296989  11.544  13.193  13.724  0.0039  0.3248 -1.5202
26333SOL     OW96990   5.424  13.843  12.154 -0.0888 -0.0594  0.2248
26333SOL    HW196991   5.437  13.832  12.059 -1.8804  0.3021 -0.1001
26333SOL    HW296992   5.498  13.897  12.182  0.8845 -0.8022 -0.8169
26334SOL     OW96993  10.489   9.428   3.949 -0.4929 -0.3439 -0.0018
26334SOL    HW196994  10.539   9.375   4.011 -1.9053  1.6176  3.0456
26334SOL    HW296995  10.546   9.502   3.929 -1.4615  1.2076  2.4467
26335SOL     OW96996   0.052   5.316   1.557  0.6284 -0.5603 -0.1577
26335SOL    HW196997   0.143   5.295   1.539  0.0356 -3.3972 -0.3134
26335SOL    HW296998   0.040   5.291   1.649 -0.0097 -0.2861 -0.1631
26336SOL     OW96999   3.690   5.274  11.243  0.7778  0.2324 -0.5234
26336SOL    HW197000   3.621   5.338  11.260  0.7832  0.2406 -0.5324
26336SOL    HW297001   3.750   5.284  11.317  0.4089 -0.2519 -0.1451
26337SOL     OW97002   9.657   3.593   0.046  0.2774 -0.0841 -0.4836
26337SOL    HW197003   9.652   3.509  -0.001  0.5207  0.9571 -2.4948
26337SOL    HW297004   9.566   3.619   0.058  0.1850 -0.8587  0.6300
26338SOL     OW97005   5.568   4.904   0.441  0.3342  0.5872 -0.7939
26338SOL    HW197006   5.614   4.902   0.357 -0.3499 -0.7621 -1.1634
26338SOL    HW297007   5.604   4.830   0.490  1.4144  1.9332  0.5092
26339SOL     OW97008  11.212  12.801   4.629  0.1906  0.0879  0.2466
26339SOL    HW197009  11.207  12.786   4.535  4.5734  0.7819 -0.2710
26339SOL    HW297010  11.174  12.888   4.642  1.8288  1.1023 -1.3494
26340SOL     OW97011  13.058   1.067   1.085 -0.0099 -0.0461 -0.2314
26340SOL    HW197012  13.114   1.115   1.146 -1.2724 -1.2150  1.9659
26340SOL    HW297013  13.075   0.975   1.104 -0.9162 -0.4384 -1.2154
26341SOL     OW97014   0.982  13.449   8.365 -0.1647  0.4081  0.5732
26341SOL    HW197015   1.050  13.381   8.364  0.3690  0.8409  2.6495
26341SOL    HW297016   1.010  13.511   8.297  0.6676 -0.1963  0.3406
26342SOL     OW97017   9.218   7.554   6.487 -0.8361  0.4384 -0.1339
26342SOL    HW197018   9.242   7.646   6.487 -2.1636  0.7960 -0.1136
26342SOL    HW297019   9.185   7.537   6.399  3.0019 -1.0644 -1.5270
26343SOL     OW97020   3.129   0.778   2.870  0.4951 -0.0552 -0.1270
26343SOL    HW197021   3.131   0.747   2.780 -0.7445 -0.5539  0.0010
26343SOL    HW297022   3.193   0.723   2.915 -1.3202 -2.2064 -0.0056
26344SOL     OW97023  13.431   1.050  11.315  0.4093 -0.4419  0.1034
26344SOL    HW197024  13.354   1.036  11.258  0.1596 -1.3914  0.6434
26344SOL    HW297025  13.461   0.961  11.336  3.4724 -0.1678 -2.4503
26345SOL     OW97026   8.892  10.830   1.859  0.6322  0.1205  0.0146
26345SOL    HW197027   8.937  10.764   1.912 -1.0132 -1.1306 -0.0800
26345SOL    HW297028   8.910  10.804   1.769  0.6664  0.2855 -0.0260
26346SOL     OW97029   8.138   9.028   8.272 -0.1697  0.3579  0.3091
26346SOL    HW197030   8.096   9.067   8.195  1.7121 -1.6376 -1.8620
26346SOL    HW297031   8.097   8.942   8.281  2.1974 -0.9687 -0.8702
26347SOL     OW97032  13.345   0.527   8.411 -0.0942 -0.4736  0.0201
26347SOL    HW197033  13.415   0.580   8.372 -0.1818  0.3091  0.8750
26347SOL    HW297034  13.266   0.581   8.403 -0.5512 -1.2326 -0.6856
26348SOL     OW97035   5.984   2.108   6.124  0.7416 -0.0789  0.1333
26348SOL    HW197036   5.949   2.024   6.154  0.1430  0.1022 -0.0552
26348SOL    HW297037   6.003   2.095   6.031  0.1850  0.1465 -0.0111
26349SOL     OW97038   2.927   8.968   4.356  0.4611  0.5284 -0.2207
26349SOL    HW197039   2.853   8.969   4.417  0.3191 -1.1266 -0.3302
26349SOL    HW297040   3.005   8.969   4.412  0.3323 -1.1478  0.0504
26350SOL     OW97041   2.205   9.970   1.693 -0.3526  0.0584  0.3949
26350SOL    HW197042   2.164   9.903   1.747 -0.2574  0.4089  0.9038
26350SOL    HW297043   2.153   9.972   1.613  0.5336 -1.6801 -0.2732
26351SOL     OW97044   8.248  13.637   6.624 -0.0775  0.5022 -0.2807
26351SOL    HW197045   8.156  13.615   6.633  0.2973 -0.1780  4.2484
26351SOL    HW297046   8.282  13.636   6.714  4.9202 -1.8112 -1.8191
26352SOL     OW97047   2.474   6.858  10.231  0.0257 -0.1839 -0.1300
26352SOL    HW197048   2.488   6.813  10.314  0.0420  2.0042  1.1432
26352SOL    HW297049   2.381   6.880  10.230  0.1011  0.1525 -0.4999
26353SOL     OW97050  11.559  10.928  13.897  0.6231  0.5713  0.1587
26353SOL    HW197051  11.555  11.015  13.856  0.1041  0.2348 -0.5205
26353SOL    HW297052  11.637  10.888  13.860  0.6557  0.6072  0.1898
26354SOL     OW97053   2.480   5.806   8.444  0.3177  0.4020 -0.0062
26354SOL    HW197054   2.522   5.722   8.461 -1.5982 -0.1618  2.6625
26354SOL    HW297055   2.431   5.825   8.525 -1.5256  2.7506 -1.5381
26355SOL     OW97056   6.814  11.070  11.514 -0.1511 -0.1866  0.0364
26355SOL    HW197057   6.729  11.064  11.469 -0.1749  1.8307 -0.3034
26355SOL    HW297058   6.806  11.011  11.589 -1.3045 -1.1512 -0.8156
26356SOL     OW97059   8.887  11.027   6.939  0.2354  0.3560 -0.0866
26356SOL    HW197060   8.792  11.031   6.949  0.1470 -1.4088  0.0284
26356SOL    HW297061   8.901  11.018   6.845  0.4535  3.1355 -0.4043
26357SOL     OW97062   6.789   2.123   7.125 -0.6057 -0.7126 -0.4786
26357SOL    HW197063   6.865   2.149   7.178 -1.3374  0.1847  0.1558
26357SOL    HW297064   6.772   2.199   7.069 -0.9478 -0.9643 -0.7198
26358SOL     OW97065   2.866  11.279   5.738 -0.2904  0.0806 -0.3865
26358SOL    HW197066   2.870  11.340   5.812  0.5597  0.7663 -0.9703
26358SOL    HW297067   2.780  11.294   5.699 -0.8053 -0.3848  0.5199
26359SOL     OW97068   8.733   1.483  10.884  0.2526 -0.5335 -0.4150
26359SOL    HW197069   8.648   1.486  10.839  0.2351 -0.6833 -0.3901
26359SOL    HW297070   8.709   1.474  10.977  0.3120 -1.2927 -0.4745
26360SOL     OW97071  10.767  12.978  10.495  0.9513  0.4844  0.7310
26360SOL    HW197072  10.772  13.008  10.405 -1.6281 -1.3671 -0.1562
26360SOL    HW297073  10.698  13.031  10.535 -0.8384 -1.3606  0.3002
26361SOL     OW97074  13.258   3.727   1.834 -0.0111 -0.5242  0.1125
26361SOL    HW197075  13.296   3.811   1.861 -0.3772 -0.4071  0.2625
26361SOL    HW297076  13.168   3.747   1.809 -0.3559 -0.9893  0.9114
26362SOL     OW97077   8.873   6.629  13.261  0.2790 -0.6434 -0.2729
26362SOL    HW197078   8.852   6.546  13.217 -0.2628 -0.4050 -0.4721
26362SOL    HW297079   8.791   6.678  13.259  0.0063 -0.9374  1.7238
26363SOL     OW97080   0.422   2.043   2.006  0.3816 -0.5802  0.0982
26363SOL    HW197081   0.345   2.091   1.975 -1.0872 -3.0586 -0.3526
26363SOL    HW297082   0.411   2.040   2.101 -1.3130 -2.6613 -0.0738
26364SOL     OW97083   7.666   8.716  10.634 -0.0978 -0.3370  0.1613
26364SOL    HW197084   7.574   8.734  10.617 -0.0950  0.2136  0.7273
26364SOL    HW297085   7.710   8.741  10.553 -0.4781 -0.9762 -0.2607
26365SOL     OW97086   8.687   0.810  13.957  0.2811 -0.0285  0.2292
26365SOL    HW197087   8.698   0.733  13.901 -1.7526  0.8219 -1.4926
26365SOL    HW297088   8.666   0.880  13.896 -0.7010  1.2699  1.9913
26366SOL     OW97089  10.699   8.786  10.240 -0.1524 -0.7717  0.0340
26366SOL    HW197090  10.716   8.727  10.314 -0.2565 -1.1622 -0.2526
26366SOL    HW297091  10.784   8.824  10.220 -0.5396  1.4827  2.1518
26367SOL     OW97092   1.022   8.450   3.146 -0.1677 -0.0688 -0.0536
26367SOL    HW197093   0.984   8.398   3.217 -2.5508  0.0561 -1.1526
26367SOL    HW297094   0.965   8.434   3.071  1.6780  0.6143 -1.6929
26368SOL     OW97095   3.484  12.511   7.539 -0.2184  0.0387  0.1685
26368SOL    HW197096   3.513  12.585   7.592 -1.5069  0.4855  0.2853
26368SOL    HW297097   3.472  12.547   7.451  1.2302 -0.5411 -0.2952
26369SOL     OW97098   8.787  13.093   2.533 -0.1306 -0.6779 -0.1863
26369SOL    HW197099   8.836  13.142   2.467 -0.4705  0.1638  0.1658
26369SOL    HW297100   8.736  13.160   2.579 -0.7876 -1.3998  0.1564
26370SOL     OW97101   8.807   6.836   2.410  0.3795  0.4893  0.1155
26370SOL    HW197102   8.737   6.798   2.464  1.2520  0.6114  1.3745
26370SOL    HW297103   8.888   6.814   2.457  1.2341  0.0736 -1.4677
26371SOL     OW97104   5.680   9.277   3.609  0.0438 -0.3641 -0.4657
26371SOL    HW197105   5.765   9.301   3.573 -0.5867  0.0144 -1.7834
26371SOL    HW297106   5.640   9.222   3.542 -1.2233  0.4725 -0.4397
26372SOL     OW97107  12.587   4.743   5.129  0.2560 -0.1182  0.2967
26372SOL    HW197108  12.667   4.795   5.121 -0.8253  1.5812 -0.1734
26372SOL    HW297109  12.611   4.656   5.097  1.9389  0.3088  0.3036
26373SOL     OW97110  10.715  10.815   7.132  0.9265  0.0035 -0.3100
26373SOL    HW197111  10.809  10.807   7.119  0.9611  1.7763 -1.4288
26373SOL    HW297112  10.694  10.905   7.105 -0.7439  0.4181  1.9997
26374SOL     OW97113   2.867   4.102   9.015 -0.6172  0.2744 -0.0006
26374SOL    HW197114   2.800   4.112   9.082  0.0685 -0.9301  0.9071
26374SOL    HW297115   2.932   4.170   9.036 -1.4707  1.3872 -0.8334
26375SOL     OW97116  10.659   7.056   6.894  0.2125 -0.1477 -0.2143
26375SOL    HW197117  10.714   7.112   6.950 -0.7836 -1.1323  1.8536
26375SOL    HW297118  10.646   6.976   6.945 -0.4872 -1.2534 -2.0304
26376SOL     OW97119  10.388   9.577  10.608 -0.1172  0.3357  0.1266
26376SOL    HW197120  10.451   9.505  10.603 -1.8497 -1.3466  1.2067
26376SOL    HW297121  10.439   9.652  10.639  2.0718  0.0946 -2.4951
26377SOL     OW97122   5.886  13.978  11.843  0.3825 -0.2040  0.3757
26377SOL    HW197123   5.860  13.889  11.868  0.4854 -0.7618 -1.3489
26377SOL    HW297124   5.981  13.980  11.857  1.2262 -1.9458 -3.6147
26378SOL     OW97125   6.359   4.055   9.370 -0.0284 -0.5461 -0.0551
26378SOL    HW197126   6.265   4.048   9.351 -0.2470  0.0570  0.7682
26378SOL    HW297127   6.364   4.060   9.465  0.9262 -1.6941 -0.0238
26379SOL     OW97128   9.022   6.187  11.484  0.8512  0.7937  0.1843
26379SOL    HW197129   9.098   6.146  11.444  0.6898  2.0675 -1.5303
26379SOL    HW297130   9.032   6.171  11.578  3.4381  1.2706  0.0555
26380SOL     OW97131   7.151  12.653   1.425 -0.6472  0.0791 -1.0911
26380SOL    HW197132   7.133  12.659   1.519  1.4785 -0.1070 -0.6278
26380SOL    HW297133   7.107  12.572   1.398  0.6616 -1.1514  0.2802
26381SOL     OW97134  12.116   0.559  10.067  0.3362  0.0531 -0.0318
26381SOL    HW197135  12.021   0.548  10.060  0.6445 -2.2926 -1.9283
26381SOL    HW297136  12.133   0.559  10.161 -1.4981 -0.0037  0.3438
26382SOL     OW97137   7.651   1.443  11.766  0.0354  0.6259 -0.0698
26382SOL    HW197138   7.611   1.380  11.706 -1.3144  0.0588  1.3592
26382SOL    HW297139   7.685   1.512  11.709  2.8799 -1.9641 -1.8702
26383SOL     OW97140   6.901   9.604   3.714  0.1142 -0.0781  0.3268
26383SOL    HW197141   6.890   9.698   3.724  0.3542  0.0041 -0.1638
26383SOL    HW297142   6.918   9.572   3.803  0.5563  0.4105  0.4179
26384SOL     OW97143   7.751   5.441   8.315  0.1131 -0.6430  0.2967
26384SOL    HW197144   7.724   5.461   8.226 -1.4186  1.2987  1.1286
26384SOL    HW297145   7.697   5.366   8.340  0.5419 -1.1896 -0.3744
26385SOL     OW97146   0.248  10.017   0.893 -0.1165 -0.0898  0.3327
26385SOL    HW197147   0.259   9.925   0.915 -0.6471 -0.0132  0.9537
26385SOL    HW297148   0.254  10.063   0.977 -0.3259  0.3918  0.0897
26386SOL     OW97149   4.864   2.025  11.981  0.1098 -0.2969 -0.0722
26386SOL    HW197150   4.932   1.999  11.919 -0.6398 -0.2815 -0.9346
26386SOL    HW297151   4.826   1.942  12.012  0.2166 -0.2975  0.0567
26387SOL     OW97152   2.888  12.508   0.990  0.0858  0.3288  0.0636
26387SOL    HW197153   2.864  12.567   0.918 -1.0757  0.4101  0.5030
26387SOL    HW297154   2.817  12.516   1.053  0.5054 -0.6450  0.6879
26388SOL     OW97155   8.291   9.289   1.992 -0.1548 -0.5526  0.5900
26388SOL    HW197156   8.277   9.195   2.005 -0.5920 -0.5530  0.1404
26388SOL    HW297157   8.356   9.294   1.922 -0.9243 -0.5211 -0.1426
26389SOL     OW97158   2.999   6.264   1.937  0.1422  0.2633  0.0880
26389SOL    HW197159   3.034   6.243   1.851  0.0791  1.7038 -0.3202
26389SOL    HW297160   2.913   6.223   1.938 -0.3452  1.1729 -1.0222
26390SOL     OW97161  11.857   5.865  12.527  0.8781 -0.1646 -0.4115
26390SOL    HW197162  11.776   5.841  12.571  0.3699  2.2763  0.0813
26390SOL    HW297163  11.923   5.805  12.564 -0.5146 -1.7006 -0.3053
26391SOL     OW97164   7.290  12.030  11.148  0.4023  0.3059  0.2326
26391SOL    HW197165   7.290  12.015  11.242 -2.6053  2.0583  0.6648
26391SOL    HW297166   7.340  12.111  11.137 -0.2913  0.7913  0.5395
26392SOL     OW97167   9.866  10.896   5.499 -0.0168 -0.3399 -0.0068
26392SOL    HW197168   9.903  10.871   5.584  0.8509  0.1380 -0.2356
26392SOL    HW297169   9.863  10.991   5.501 -2.4567 -0.3546  0.4963
26393SOL     OW97170   3.182   7.902   2.930 -0.4816  0.5198  0.0121
26393SOL    HW197171   3.175   7.978   2.872  0.8417 -0.4514 -1.4903
26393SOL    HW297172   3.113   7.843   2.902  0.9981 -0.5507 -1.6086
26394SOL     OW97173   2.079   9.551   6.584 -0.2283 -0.6240  0.3519
26394SOL    HW197174   2.086   9.638   6.544 -1.1171 -0.5122  0.4205
26394SOL    HW297175   2.052   9.569   6.674  1.3159 -0.8916  0.8910
26395SOL     OW97176   1.474   2.529   5.270 -0.0907 -0.6093  0.0456
26395SOL    HW197177   1.415   2.462   5.236  0.4262 -0.8463 -0.3917
26395SOL    HW297178   1.419   2.607   5.277 -0.4104 -0.7709 -0.5566
26396SOL     OW97179   2.532   8.128  13.124 -0.2045 -0.3055  0.3639
26396SOL    HW197180   2.463   8.119  13.190  1.0532 -1.9587  1.5399
26396SOL    HW297181   2.609   8.086  13.164  1.1327  0.3311 -1.4132
26397SOL     OW97182   2.960   1.478  10.273 -0.6529 -0.4387 -0.1949
26397SOL    HW197183   2.993   1.568  10.277 -0.0326 -0.6165 -1.0382
26397SOL    HW297184   3.020   1.433  10.213 -1.2541 -1.2853 -0.1792
26398SOL     OW97185   2.441   7.588   6.269  0.0100 -0.1421 -0.0524
26398SOL    HW197186   2.513   7.606   6.329 -0.8196  1.2195  0.5721
26398SOL    HW297187   2.364   7.576   6.326 -0.5557 -0.0090 -0.7733
26399SOL     OW97188   3.394  11.097   4.240  0.1539  0.4995  0.4845
26399SOL    HW197189   3.459  11.036   4.207 -1.5237 -0.4717 -1.2480
26399SOL    HW297190   3.375  11.154   4.165 -1.6924  0.0910  0.5916
26400SOL     OW97191   3.065  10.094  14.018  0.5820 -0.6379 -0.2522
26400SOL    HW197192   3.007  10.109  13.943  0.0930 -0.8545  0.0811
26400SOL    HW297193   3.077  10.180  14.057 -0.4147 -0.7527  0.3311
26401SOL     OW97194   6.427   3.404   8.342  0.4107 -0.3163  0.4968
26401SOL    HW197195   6.388   3.385   8.257 -0.5976 -0.7841  1.0509
26401SOL    HW297196   6.428   3.320   8.388  1.2782 -0.1414  0.8210
26402SOL     OW97197   9.307   9.134   8.649  0.1844 -0.0315  0.2285
26402SOL    HW197198   9.323   9.176   8.733 -0.8661  0.5837  0.1430
26402SOL    HW297199   9.332   9.199   8.584  1.7808 -0.8047  0.0255
26403SOL     OW97200   5.049   4.064   6.692  0.0085  0.2099 -0.1622
26403SOL    HW197201   4.995   4.020   6.758 -1.6082 -0.1999 -1.6944
26403SOL    HW297202   5.120   4.003   6.673 -0.4787 -0.4024 -0.0272
26404SOL     OW97203   7.292  13.164  11.736 -0.6412  0.5361  0.3038
26404SOL    HW197204   7.289  13.173  11.832  2.0267 -2.8183  0.9287
26404SOL    HW297205   7.372  13.210  11.711  1.0180 -2.0620  0.4442
26405SOL     OW97206   8.754   6.515   7.170  0.3616  0.1315 -0.0380
26405SOL    HW197207   8.765   6.607   7.196 -3.7354  0.3394  1.6129
26405SOL    HW297208   8.703   6.519   7.089  0.8274 -0.7235 -0.3924
26406SOL     OW97209  10.266   7.872  10.745  0.2089 -0.4213  0.1450
26406SOL    HW197210  10.260   7.798  10.806 -2.3346 -2.9806 -2.8175
26406SOL    HW297211  10.228   7.946  10.792 -0.1289 -1.8205  2.1839
26407SOL     OW97212   9.949  11.257   2.141 -0.0001  0.1112  0.0655
26407SOL    HW197213   9.903  11.232   2.062 -0.6609  0.5701  0.2983
26407SOL    HW297214   9.894  11.324   2.181  0.2810 -0.1726  0.9560
26408SOL     OW97215   5.954   3.527   7.824  0.0490 -0.1277  0.4206
26408SOL    HW197216   5.891   3.456   7.814  0.2289 -0.1953 -0.2932
26408SOL    HW297217   6.030   3.486   7.867 -0.4770  0.0106  1.5098
26409SOL     OW97218  12.406   4.956  11.596  0.7244 -0.3697  0.2534
26409SOL    HW197219  12.337   4.966  11.529  0.3650  0.5723  0.7497
26409SOL    HW297220  12.395   4.866  11.627  1.3201 -1.0662 -1.3929
26410SOL     OW97221  13.861  10.173   6.138  0.4549 -0.2252  0.2724
26410SOL    HW197222  13.826  10.091   6.170 -1.0086 -0.4524 -1.7221
26410SOL    HW297223  13.863  10.163   6.043  0.0571  2.0908 -0.0503
26411SOL     OW97224  10.340   3.466  12.850  0.0512  0.4086 -0.3369
26411SOL    HW197225  10.410   3.402  12.866  1.2576  1.2946 -1.7878
26411SOL    HW297226  10.317   3.498  12.937  1.1220 -0.2379  0.2130
26412SOL     OW97227   3.468   7.492   1.285  0.3886 -0.2241 -0.2544
26412SOL    HW197228   3.433   7.579   1.262  0.7144  0.2805  1.0685
26412SOL    HW297229   3.497   7.456   1.201 -0.1460  0.7554 -0.8992
26413SOL     OW97230  13.563   2.362   1.981  0.2098  0.3410 -0.4357
26413SOL    HW197231  13.470   2.371   2.002  0.3091 -0.1730  0.2520
26413SOL    HW297232  13.564   2.323   1.893 -0.2531 -1.5634  0.3585
26414SOL     OW97233   7.631   5.083  10.912 -0.0340 -0.5238 -0.6606
26414SOL    HW197234   7.628   5.166  10.864 -3.8943  0.8554  1.4902
26414SOL    HW297235   7.634   5.016  10.845  2.0357  1.2455 -2.5126
26415SOL     OW97236   1.027   6.092   5.141  0.0924  0.3932  0.0337
26415SOL    HW197237   0.989   6.179   5.153  0.8997  0.7776 -0.0848
26415SOL    HW297238   0.970   6.034   5.191  0.2384  1.1694  1.1425
26416SOL     OW97239   2.889   1.109   9.995  0.0991  0.0307  0.0585
26416SOL    HW197240   2.812   1.138  10.044 -0.8133 -0.8010 -0.8428
26416SOL    HW297241   2.935   1.052  10.056  1.0480  1.9692  1.2721
26417SOL     OW97242   9.178   8.143  11.895 -0.4981 -0.1998  0.2991
26417SOL    HW197243   9.169   8.092  11.815  0.1073 -1.0664  0.7715
26417SOL    HW297244   9.111   8.107  11.954 -0.0593 -0.4620  0.6404
26418SOL     OW97245   3.293  10.537  11.888 -0.1426  0.3053  0.2948
26418SOL    HW197246   3.253  10.474  11.828  0.5416 -0.8668  1.0282
26418SOL    HW297247   3.233  10.542  11.962 -1.5248  2.5498 -0.8699
26419SOL     OW97248  10.029   1.276  11.931  0.3205  0.1613 -0.7917
26419SOL    HW197249   9.999   1.350  11.879 -1.4961  1.4138  1.7977
26419SOL    HW297250  10.105   1.310  11.979 -1.7686  1.2313  2.0129
26420SOL     OW97251   8.464   9.065   3.461  0.2574 -0.0732 -0.1350
26420SOL    HW197252   8.511   9.135   3.506 -1.7690  0.9891  0.4669
26420SOL    HW297253   8.430   9.010   3.530  1.7241 -1.6481 -0.6065
26421SOL     OW97254   4.533   9.106   5.505 -0.2810 -0.2309  0.2588
26421SOL    HW197255   4.440   9.130   5.505 -0.1775  0.2816 -1.1809
26421SOL    HW297256   4.579   9.188   5.487  0.5582 -0.2700  1.9505
26422SOL     OW97257   9.349   9.623  12.893  0.2402 -0.3489  0.3326
26422SOL    HW197258   9.256   9.600  12.887 -0.1589  1.0230  0.8787
26422SOL    HW297259   9.392   9.542  12.921 -0.9662 -0.6846  1.3086
26423SOL     OW97260   2.668  12.231   1.886  0.5687  0.4611  0.2025
26423SOL    HW197261   2.704  12.224   1.798 -1.5965 -2.8487 -0.6193
26423SOL    HW297262   2.577  12.201   1.878  0.3706 -0.2994  3.5731
26424SOL     OW97263  12.158   9.011   6.295  0.0339  0.5950 -0.4688
26424SOL    HW197264  12.102   8.944   6.335 -0.0566  1.6958  1.3495
26424SOL    HW297265  12.102   9.088   6.289  0.6347  0.9968 -1.0113
26425SOL     OW97266   3.174   0.968   9.904  0.4486  0.3766 -0.1667
26425SOL    HW197267   3.102   1.006   9.854  0.6680  3.0317  1.3559
26425SOL    HW297268   3.252   0.986   9.852  0.1192 -2.6019 -1.8729
26426SOL     OW97269   3.114  11.553   9.309  0.2367  0.1646  0.4786
26426SOL    HW197270   3.131  11.465   9.275  1.9903  0.2582  1.0134
26426SOL    HW297271   3.093  11.539   9.402 -1.2545  0.1876  0.1677
26427SOL     OW97272   9.237   3.931   4.551 -0.2385 -0.4136 -0.3673
26427SOL    HW197273   9.207   4.020   4.532 -0.5773  0.0865  2.1504
26427SOL    HW297274   9.161   3.887   4.590  0.8852 -0.5842  1.8377
26428SOL     OW97275   4.901  10.595   9.889 -0.2502 -0.1470  0.6187
26428SOL    HW197276   4.832  10.534   9.915 -0.2828  0.1266  1.1855
26428SOL    HW297277   4.905  10.659   9.960 -1.1208  1.2869 -0.5542
26429SOL     OW97278   6.153  12.964   3.241 -0.0500 -0.0756  0.0194
26429SOL    HW197279   6.132  13.009   3.323 -0.0250 -0.9571  0.5283
26429SOL    HW297280   6.246  12.940   3.250  0.2561  0.7576 -0.7355
26430SOL     OW97281  12.975  10.094  10.535  0.3097  0.1301  0.5255
26430SOL    HW197282  12.969  10.139  10.450 -0.1273  2.0329  1.5185
26430SOL    HW297283  12.905  10.028  10.531  0.5415 -0.0684 -0.7262
26431SOL     OW97284   6.163   2.044  11.930 -0.3391 -0.1255  0.3512
26431SOL    HW197285   6.195   2.134  11.922 -1.1960  0.1750  0.1296
26431SOL    HW297286   6.147   2.032  12.023 -0.6814  0.1253  0.3273
26432SOL     OW97287  14.022  10.519  13.271 -0.3487 -0.6794  0.4081
26432SOL    HW197288  14.039  10.555  13.184 -0.3334  0.8005  1.0034
26432SOL    HW297289  14.102  10.472  13.294  0.4857  0.7139  0.4781
26433SOL     OW97290   3.878   5.776  10.860 -0.0333 -0.0039 -0.2718
26433SOL    HW197291   3.834   5.860  10.874 -0.5836 -0.1782 -0.9456
26433SOL    HW297292   3.968   5.799  10.836 -0.2590  0.3940 -0.7263
26434SOL     OW97293   3.877   8.891   7.868 -0.0542  0.2426  0.5510
26434SOL    HW197294   3.895   8.958   7.802  1.1496 -0.6427 -0.0645
26434SOL    HW297295   3.964   8.863   7.897 -0.5558 -0.4870  1.3866
26435SOL     OW97296   8.460   0.225  13.351  0.1724  0.2513  0.4042
26435SOL    HW197297   8.400   0.261  13.285 -0.0508 -2.0637 -0.7543
26435SOL    HW297298   8.486   0.301  13.403 -0.7452  1.9630 -1.4732
26436SOL     OW97299   2.666   9.564   9.905  0.6243  0.2804  0.1045
26436SOL    HW197300   2.706   9.530   9.825 -0.2424 -0.3508 -0.0818
26436SOL    HW297301   2.586   9.607   9.875  0.5678  0.5103  0.5779
26437SOL     OW97302   5.057   2.764   0.480  0.1302  0.2634  0.1578
26437SOL    HW197303   5.012   2.843   0.449  0.9329  0.5648 -0.2826
26437SOL    HW297304   5.135   2.759   0.425  0.2028 -0.7164  0.3456
26438SOL     OW97305   7.553  13.506   4.792 -0.1159 -0.1756  0.3889
26438SOL    HW197306   7.553  13.473   4.882 -0.5230  0.7233  0.7299
26438SOL    HW297307   7.520  13.595   4.799 -1.8047 -0.6476 -0.8503
26439SOL     OW97308  10.656  14.070   8.909  0.3522 -0.4285 -0.4424
26439SOL    HW197309  10.665  13.987   8.862  2.3267  0.0735 -1.0612
26439SOL    HW297310  10.690  14.052   8.997 -1.0749 -0.7504  0.0644
26440SOL     OW97311  11.851  11.727   4.365 -0.0447 -0.0003  0.4162
26440SOL    HW197312  11.787  11.796   4.382 -1.9916 -1.1256 -1.7687
26440SOL    HW297313  11.800  11.646   4.362  1.4461 -0.9734 -1.2646
26441SOL     OW97314   4.888  12.459   5.422  0.1210 -0.0887 -0.2520
26441SOL    HW197315   4.912  12.442   5.331 -0.8918  0.1522 -0.5731
26441SOL    HW297316   4.972  12.461   5.468  0.8189  1.7033 -1.4890
26442SOL     OW97317   6.779   6.525   9.706  0.1320  0.4833  0.0102
26442SOL    HW197318   6.798   6.478   9.787  0.5609 -0.7091 -0.7427
26442SOL    HW297319   6.851   6.501   9.647 -2.7279 -3.1067 -2.5125
26443SOL     OW97320   7.934  10.792   6.634 -0.0930  0.1744  0.3969
26443SOL    HW197321   7.863  10.738   6.668 -0.4256  1.2136  1.4230
26443SOL    HW297322   7.933  10.870   6.689 -0.0077  1.4964 -1.3786
26444SOL     OW97323   7.348   9.375   6.129 -0.2085  0.1221  0.3591
26444SOL    HW197324   7.279   9.431   6.093 -1.8015 -0.8431  1.7679
26444SOL    HW297325   7.422   9.433   6.142 -0.8156  1.2520 -0.9706
26445SOL     OW97326   9.900  13.916   4.269  0.6661 -0.7082 -0.3527
26445SOL    HW197327   9.901  14.011   4.255 -2.7193 -0.7423 -1.9611
26445SOL    HW297328   9.869  13.881   4.185 -1.2122 -2.9046  1.1378
26446SOL     OW97329  12.454   9.920   1.370  0.5385 -0.0026 -0.1648
26446SOL    HW197330  12.488   9.848   1.423 -2.0537 -0.5059  0.9905
26446SOL    HW297331  12.505   9.996   1.399  1.5514 -0.8977  0.4922
26447SOL     OW97332   3.610  11.796   9.167  0.1082  0.1452 -0.2941
26447SOL    HW197333   3.526  11.757   9.143 -1.1788  2.2037  0.5592
26447SOL    HW297334   3.647  11.826   9.084  0.0166 -0.7801 -0.6749
26448SOL     OW97335   8.891  10.838  11.069  0.6959  0.0726 -0.5668
26448SOL    HW197336   8.932  10.841  10.983  2.2609 -0.0057  0.1320
26448SOL    HW297337   8.899  10.927  11.103 -0.4497  0.2455 -0.7325
26449SOL     OW97338  13.264  12.457   1.135  0.5079 -0.1749 -0.1733
26449SOL    HW197339  13.313  12.394   1.082  0.6307  1.2706 -1.8761
26449SOL    HW297340  13.332  12.511   1.176  0.4012  0.3528 -0.6704
26450SOL     OW97341   0.788   3.161  10.442 -0.2456  0.4099  0.0900
26450SOL    HW197342   0.754   3.121  10.522  1.7174  1.3778  1.4914
26450SOL    HW297343   0.880   3.135  10.439 -0.1408  0.8280 -1.5971
26451SOL     OW97344  12.156   0.255   4.109  0.0597  0.3617  0.5100
26451SOL    HW197345  12.081   0.297   4.066  0.3319 -0.8215 -1.2167
26451SOL    HW297346  12.158   0.294   4.196 -1.6855  1.4805  0.1081
26452SOL     OW97347   6.252   2.999   1.469  0.0342 -0.3798 -0.5581
26452SOL    HW197348   6.247   2.911   1.430  3.2520 -0.5399 -0.8792
26452SOL    HW297349   6.164   3.035   1.457 -0.9970 -2.9768 -1.7546
26453SOL     OW97350   4.483   6.281  13.964 -0.1711  0.2671 -0.2899
26453SOL    HW197351   4.419   6.210  13.973 -0.1974 -0.0262 -2.3250
26453SOL    HW297352   4.546   6.265  14.035  1.6012 -3.7416 -2.4369
26454SOL     OW97353  13.126   7.567   7.177  0.2812  0.3409  0.2725
26454SOL    HW197354  13.204   7.589   7.228  0.3394 -1.2188  0.9038
26454SOL    HW297355  13.058   7.625   7.213  1.2667  2.2886 -0.8270
26455SOL     OW97356   3.830   5.007   0.191  0.3502 -1.0262 -0.1864
26455SOL    HW197357   3.897   4.942   0.174  0.7634 -0.7988  0.5149
26455SOL    HW297358   3.875   5.075   0.241 -0.0254 -0.1111 -1.0502
26456SOL     OW97359   2.601   3.712   7.223  0.3007 -0.1286  0.5927
26456SOL    HW197360   2.696   3.701   7.227  0.3209 -0.4860 -0.5853
26456SOL    HW297361   2.579   3.754   7.306  1.7400  1.7100  0.1353
26457SOL     OW97362  13.820   0.685   4.192  0.0616  0.1449  0.4748
26457SOL    HW197363  13.864   0.761   4.229  2.1266 -0.6871 -0.1706
26457SOL    HW297364  13.881   0.613   4.203 -1.0721 -1.0472 -0.6069
26458SOL     OW97365  11.555   3.048   5.940  0.3277 -0.0195 -0.0161
26458SOL    HW197366  11.475   2.996   5.932  1.1465 -1.2908 -0.3730
26458SOL    HW297367  11.558   3.073   6.033  1.1871 -2.8827  0.8600
26459SOL     OW97368  10.666  10.613  10.678  0.3438 -0.0114 -0.6114
26459SOL    HW197369  10.597  10.679  10.686  0.1511 -0.3747  1.3247
26459SOL    HW297370  10.628  10.544  10.624 -1.0249 -0.4213  0.8157
26460SOL     OW97371   1.843   3.863   0.966 -0.0270 -0.0522 -0.0778
26460SOL    HW197372   1.852   3.955   0.992  3.3128  0.0292 -0.9565
26460SOL    HW297373   1.791   3.866   0.885 -1.3104  0.8364  0.7439
26461SOL     OW97374   0.805   1.508   8.829  0.4116  0.3504  0.7445
26461SOL    HW197375   0.803   1.505   8.733  2.6575 -0.9811  0.6612
26461SOL    HW297376   0.715   1.529   8.854 -0.1543  1.1844 -1.6436
26462SOL     OW97377  11.629   0.027   7.423 -0.6709  0.0093 -0.2307
26462SOL    HW197378  11.696  -0.036   7.396  0.9901  1.9617 -0.8518
26462SOL    HW297379  11.588   0.055   7.341 -1.2036 -0.0100  0.0219
26463SOL     OW97380   1.113   6.587   5.672 -0.0361  0.0964 -0.3992
26463SOL    HW197381   1.133   6.542   5.590 -1.5391 -0.7720 -0.3262
26463SOL    HW297382   1.021   6.612   5.665  0.4744  2.3661 -0.0220
26464SOL     OW97383  12.387  11.209   1.700 -0.2583 -0.4054 -0.4182
26464SOL    HW197384  12.317  11.219   1.635  0.5535  1.8660 -1.0428
26464SOL    HW297385  12.419  11.120   1.688 -2.6513 -1.3267 -0.4709
26465SOL     OW97386   3.107   6.373   8.525 -0.4308 -0.3970 -0.0446
26465SOL    HW197387   3.090   6.335   8.611  0.0264  1.1841  0.7754
26465SOL    HW297388   3.063   6.458   8.528 -0.7959 -0.5112 -1.5571
26466SOL     OW97389   4.810   4.304  13.761  0.1410 -0.4328  0.2873
26466SOL    HW197390   4.770   4.277  13.844  0.4253 -0.4398  0.4223
26466SOL    HW297391   4.861   4.381  13.784 -2.0030  1.2999 -0.4021
26467SOL     OW97392   2.779  13.172   4.844 -0.3234 -0.5697 -0.5448
26467SOL    HW197393   2.857  13.115   4.839 -0.8766 -1.3082 -0.9985
26467SOL    HW297394   2.747  13.161   4.933 -0.2610 -0.7571 -0.5434
26468SOL     OW97395  11.505   8.598   5.561 -0.2448 -0.5963  0.0676
26468SOL    HW197396  11.425   8.558   5.527 -0.0705 -1.6969  0.8759
26468SOL    HW297397  11.559   8.524   5.588 -0.2322  0.1823  2.3723
26469SOL     OW97398  13.887   5.652   2.095  0.1455 -0.3989 -0.1272
26469SOL    HW197399  13.966   5.605   2.121  0.5596 -0.2065 -0.9900
26469SOL    HW297400  13.839   5.591   2.039  0.8395  0.2613 -1.5118
26470SOL     OW97401   7.047   6.695  10.733 -0.1869 -0.3262 -0.2484
26470SOL    HW197402   7.133   6.656  10.748 -0.1288  0.1647  0.7560
26470SOL    HW297403   7.066   6.788  10.716 -0.3063 -0.6971 -2.7431
26471SOL     OW97404   7.338   3.087  10.679  0.0475 -0.6414  0.3360
26471SOL    HW197405   7.424   3.121  10.701  0.1897 -0.2534 -0.7631
26471SOL    HW297406   7.288   3.093  10.760  1.0219 -0.8042  0.9679
26472SOL     OW97407   2.270   3.339  10.692 -0.0811  0.0926 -0.0043
26472SOL    HW197408   2.200   3.405  10.691  0.5718  0.8049  0.0128
26472SOL    HW297409   2.314   3.351  10.776  0.9036  0.5883 -0.5602
26473SOL     OW97410   3.207   8.587   9.380 -0.2652 -0.4528 -0.2976
26473SOL    HW197411   3.124   8.572   9.425  0.4519 -0.2151  1.1460
26473SOL    HW297412   3.227   8.679   9.398  0.9670 -0.8571  0.5202
26474SOL     OW97413   6.076   6.842   5.098 -0.4399  0.0480 -0.0883
26474SOL    HW197414   6.156   6.790   5.085 -1.6896 -1.9232 -0.2645
26474SOL    HW297415   6.067   6.893   5.018 -0.9482 -2.0248 -1.4207
26475SOL     OW97416  10.022   0.653   6.291 -0.8340  0.3540 -0.3841
26475SOL    HW197417  10.016   0.733   6.238 -2.2700  1.2279  1.0110
26475SOL    HW297418  10.028   0.685   6.381 -0.7018 -1.1309  0.1562
26476SOL     OW97419  10.304   9.624   7.163 -0.2940 -0.2013  0.0745
26476SOL    HW197420  10.373   9.632   7.097 -0.6769 -0.0330 -0.3183
26476SOL    HW297421  10.326   9.546   7.213 -0.1010 -0.4461 -0.3886
26477SOL     OW97422  13.699   4.989   9.112  0.2798 -0.0217 -0.7634
26477SOL    HW197423  13.689   5.080   9.084  0.2753  0.2223  0.0227
26477SOL    HW297424  13.759   4.993   9.186 -1.0410 -0.4623  0.3791
26478SOL     OW97425   5.611   7.311   4.259 -0.2840  0.0379 -0.8486
26478SOL    HW197426   5.643   7.396   4.287 -3.0003  0.9099 -0.1172
26478SOL    HW297427   5.583   7.324   4.169  1.9854 -0.9509 -1.7954
26479SOL     OW97428   2.775  11.399  13.393 -0.1288 -0.0318  0.7745
26479SOL    HW197429   2.849  11.357  13.437  1.7930  2.1562 -0.1138
26479SOL    HW297430   2.786  11.492  13.412 -0.3130  0.8073 -2.6153
26480SOL     OW97431  11.360   9.800  13.370 -0.1215 -0.4484  0.1771
26480SOL    HW197432  11.401   9.858  13.306 -1.0559 -0.4831 -0.4632
26480SOL    HW297433  11.357   9.715  13.327  1.7997 -1.1518  1.3428
26481SOL     OW97434  11.307   5.114  10.549  0.3377  0.1121  0.0028
26481SOL    HW197435  11.219   5.105  10.512  0.6680  0.0977 -0.7907
26481SOL    HW297436  11.339   5.024  10.557  0.4846  0.1455 -0.2094
26482SOL     OW97437   4.659  11.103  10.065  0.0141 -0.3068 -0.3849
26482SOL    HW197438   4.710  11.130  10.142 -0.8933  1.3555 -0.3155
26482SOL    HW297439   4.700  11.021  10.037  1.6401  0.0848  0.6684
26483SOL     OW97440   7.203  10.370  10.131 -0.3605  0.7105 -0.2000
26483SOL    HW197441   7.116  10.338  10.155 -1.0388  2.9617  0.7218
26483SOL    HW297442   7.263  10.324  10.189 -1.3769  1.6897  1.7255
26484SOL     OW97443   2.186   0.904   1.108  0.2359  0.0099  0.3160
26484SOL    HW197444   2.171   0.928   1.199  0.6441  0.0748  0.3712
26484SOL    HW297445   2.272   0.861   1.108  0.5101  0.5386 -0.1250
26485SOL     OW97446   6.784   4.680  11.949 -0.5542 -0.4704  0.2586
26485SOL    HW197447   6.806   4.756  11.895 -1.1965 -1.2360 -1.1216
26485SOL    HW297448   6.690   4.670  11.939 -0.6598 -0.7613  1.3811
26486SOL     OW97449  13.357   4.217  10.035  0.2438  0.1241  0.6882
26486SOL    HW197450  13.277   4.228   9.983  0.3813  0.2469  0.5032
26486SOL    HW297451  13.351   4.285  10.102  1.4893  1.9479 -0.9429
26487SOL     OW97452  13.919   5.923   2.859  0.2538  0.0787  0.1846
26487SOL    HW197453  13.869   5.871   2.922 -0.4642  0.2247 -0.2540
26487SOL    HW297454  14.004   5.877   2.853  0.4256  0.1990  1.4135
26488SOL     OW97455   7.571  14.157   7.930 -0.4996  0.2674  0.4437
26488SOL    HW197456   7.519  14.115   7.861 -1.2982  0.9012  0.6429
26488SOL    HW297457   7.653  14.182   7.887 -0.6090 -0.1937 -0.0361
26489SOL     OW97458   9.280   2.359   5.835 -0.0447  0.2735 -0.3672
26489SOL    HW197459   9.312   2.279   5.877 -0.1541 -1.0789 -2.7100
26489SOL    HW297460   9.209   2.389   5.892 -0.0600 -1.3372  0.5339
26490SOL     OW97461   7.783   1.585   0.432 -0.0181  0.4999  0.0406
26490SOL    HW197462   7.771   1.676   0.406 -0.3390  1.2302  2.5457
26490SOL    HW297463   7.700   1.559   0.470  0.0228 -0.9248 -0.7597
26491SOL     OW97464  13.123   5.569   7.031 -0.2948  0.4680  0.2580
26491SOL    HW197465  13.170   5.505   7.085 -0.2485 -2.2140 -2.6653
26491SOL    HW297466  13.033   5.535   7.028 -0.3683  0.7289 -1.0327
26492SOL     OW97467   2.601  11.146   2.954 -0.5630 -0.4725 -0.2317
26492SOL    HW197468   2.630  11.237   2.956  0.3910 -0.7746  0.2860
26492SOL    HW297469   2.545  11.140   2.877 -0.5481  0.5192 -0.3320
26493SOL     OW97470  11.397   4.979  13.600  0.4714  0.1031 -0.5642
26493SOL    HW197471  11.341   4.903  13.586  0.1708  0.0681  0.6849
26493SOL    HW297472  11.486   4.947  13.583  0.4404 -0.7855  0.8044
26494SOL     OW97473   1.155   6.185  10.973 -0.1400  0.3272 -0.5167
26494SOL    HW197474   1.166   6.200  10.880  1.7753 -1.4241 -0.6440
26494SOL    HW297475   1.203   6.256  11.015  1.2239 -0.3385 -0.9263
26495SOL     OW97476   2.655   2.565   3.911  0.5477  0.4739  0.4030
26495SOL    HW197477   2.583   2.575   3.849  0.9530 -3.4000 -0.9725
26495SOL    HW297478   2.613   2.567   3.997 -1.7017 -3.2850 -0.3708
26496SOL     OW97479   4.595   8.778  10.865 -0.5873 -0.1428 -0.7125
26496SOL    HW197480   4.614   8.768  10.958 -0.5692  0.1890 -0.6806
26496SOL    HW297481   4.652   8.849  10.836  0.7963 -1.4860 -1.3999
26497SOL     OW97482   2.153   6.740   2.111  0.2146  0.5600  0.5292
26497SOL    HW197483   2.244   6.711   2.107  1.0387  2.5322  2.8922
26497SOL    HW297484   2.135   6.753   2.204 -3.4831 -2.5259  0.5156
26498SOL     OW97485   3.280   1.966  12.834  0.3310  0.2056 -0.0545
26498SOL    HW197486   3.364   1.921  12.843  0.2478 -0.2115 -1.2300
26498SOL    HW297487   3.268   1.977  12.740 -1.4569 -0.7946  0.0034
26499SOL     OW97488   5.111   9.463   6.581 -0.4531 -0.2625 -0.2914
26499SOL    HW197489   5.103   9.528   6.511 -1.5550 -1.6600 -1.5351
26499SOL    HW297490   5.158   9.390   6.540  0.5163 -0.3741  0.9882
26500SOL     OW97491   2.096   6.464   9.803 -0.0519 -0.2801 -0.0481
26500SOL    HW197492   2.060   6.512   9.878  0.2335 -1.2750  0.7452
26500SOL    HW297493   2.029   6.473   9.735 -1.4047 -1.3147  1.0960
26501SOL     OW97494  10.319   3.429   3.658 -0.2299 -0.2807 -0.1952
26501SOL    HW197495  10.347   3.441   3.568  1.2360 -0.3044  0.2235
26501SOL    HW297496  10.399   3.441   3.710 -0.9555 -0.6618  1.0657
26502SOL     OW97497   1.242   4.074   4.435  0.0482 -0.0923 -0.4353
26502SOL    HW197498   1.177   4.006   4.449 -1.5947  1.4882  0.0198
26502SOL    HW297499   1.201   4.135   4.374  1.1135  0.9410 -0.1666
26503SOL     OW97500  11.535  12.544   8.177  0.2341  0.3324  0.1485
26503SOL    HW197501  11.517  12.484   8.104  0.2338  0.5370 -0.0194
26503SOL    HW297502  11.459  12.535   8.234  0.5689 -0.3749  0.4957
26504SOL     OW97503   5.786  10.405   9.775  0.0981  0.4185  0.5184
26504SOL    HW197504   5.772  10.410   9.681 -0.3679  0.4869  0.5871
26504SOL    HW297505   5.850  10.474   9.793  0.1201  0.4651  0.2654
26505SOL     OW97506   6.623   3.243   0.668 -0.0678  0.0321 -0.0622
26505SOL    HW197507   6.577   3.251   0.584  1.4644 -1.3746 -1.1086
26505SOL    HW297508   6.715   3.252   0.645  0.6722 -3.4263  0.8905
26506SOL     OW97509   1.093  10.068  10.352  0.6690 -0.3520 -0.2791
26506SOL    HW197510   1.150  10.111  10.415 -0.4238  0.9520 -0.1338
26506SOL    HW297511   1.138  10.074  10.269  0.1375  1.9976 -0.4554
26507SOL     OW97512  10.006   3.995   1.123  0.5016 -0.5024 -0.5527
26507SOL    HW197513  10.029   4.056   1.053 -0.6208  0.1757 -0.3514
26507SOL    HW297514  10.033   4.041   1.203 -1.7816  0.4697 -0.2839
26508SOL     OW97515   3.231   6.411   0.511 -0.3457 -0.5498 -0.2750
26508SOL    HW197516   3.202   6.437   0.423  0.2313 -0.6660 -0.5023
26508SOL    HW297517   3.164   6.350   0.541 -1.2173  0.4457 -0.1235
26509SOL     OW97518   2.311   8.796  12.984 -0.1028  0.0259  0.8019
26509SOL    HW197519   2.373   8.759  12.922 -0.0024 -0.0607  0.9517
26509SOL    HW297520   2.245   8.839  12.930 -0.8667 -1.3829  0.5814
26510SOL     OW97521   8.874  13.529   0.506  0.0669  0.6833 -0.3255
26510SOL    HW197522   8.924  13.467   0.558 -0.8046 -0.4066 -0.7398
26510SOL    HW297523   8.917  13.614   0.520  0.7882  0.1302  0.8852
26511SOL     OW97524   4.873   4.022   3.946  0.2521  0.0668 -0.0248
26511SOL    HW197525   4.831   3.993   4.027  1.7306  0.0491  0.7635
26511SOL    HW297526   4.934   4.090   3.974 -0.0673  0.8958 -1.2888
26512SOL     OW97527  11.114   9.302   2.520 -0.2316 -0.0655  0.1937
26512SOL    HW197528  11.026   9.270   2.502 -0.2969  0.4316 -0.3809
26512SOL    HW297529  11.158   9.300   2.435  0.1468  0.1909  0.3803
26513SOL     OW97530   7.918  10.486   9.842 -0.1697  0.2801  0.6464
26513SOL    HW197531   7.940  10.540   9.766  2.9475  0.0243  1.2262
26513SOL    HW297532   7.908  10.398   9.807 -2.1835  0.6690  0.1281
26514SOL     OW97533   4.336   7.313   7.654  0.3313  0.1885  0.2338
26514SOL    HW197534   4.326   7.357   7.570  2.2407  1.2361  0.5032
26514SOL    HW297535   4.296   7.373   7.717  1.7425  0.9739  0.4304
26515SOL     OW97536   8.900   3.153   7.940 -0.1273 -0.4169 -0.7160
26515SOL    HW197537   8.882   3.100   8.018  1.8135 -0.6443 -0.3543
26515SOL    HW297538   8.825   3.211   7.932  0.3301  0.7938  2.3271
26516SOL     OW97539  12.663   3.285   0.817 -0.4295  0.1268  0.2680
26516SOL    HW197540  12.673   3.247   0.730  1.4329 -1.4080  1.0658
26516SOL    HW297541  12.677   3.212   0.877  0.0618  1.4665  1.8722
26517SOL     OW97542   5.729   1.972   9.020  0.1931 -0.1366 -0.0005
26517SOL    HW197543   5.794   1.969   8.950  1.5728 -1.0707  1.2923
26517SOL    HW297544   5.738   2.060   9.057  0.8093 -0.3018  0.2476
26518SOL     OW97545   9.860   5.943   7.483 -0.1236 -0.5119  0.2028
26518SOL    HW197546   9.905   5.921   7.402  0.4923 -0.3532  0.4922
26518SOL    HW297547   9.820   6.028   7.467 -0.4502 -0.7235 -0.1088
26519SOL     OW97548   1.377   7.553   7.553 -0.1016  0.2646  0.2341
26519SOL    HW197549   1.441   7.491   7.586 -0.1490 -0.6814 -1.3704
26519SOL    HW297550   1.316   7.500   7.502 -2.1314  1.1462  1.6217
26520SOL     OW97551   7.461   8.530  12.853  0.2831  0.0111  0.1379
26520SOL    HW197552   7.453   8.489  12.766  0.5199 -0.2893  0.2541
26520SOL    HW297553   7.502   8.462  12.907  1.3789  0.6612  0.1441
26521SOL     OW97554   1.243  13.200   5.716  0.2839  0.0365 -0.2141
26521SOL    HW197555   1.162  13.175   5.761 -0.8247  0.6408 -1.7896
26521SOL    HW297556   1.297  13.121   5.720  0.0702 -0.0584  1.7715
26522SOL     OW97557   4.537   1.930   9.587  0.2884 -0.1610 -0.1538
26522SOL    HW197558   4.512   1.852   9.637 -2.3959  0.9247  0.4140
26522SOL    HW297559   4.527   1.904   9.496  0.0776 -0.6731  0.0078
26523SOL     OW97560   6.302   1.158   9.684  0.2383 -0.3684 -0.4731
26523SOL    HW197561   6.393   1.141   9.659  0.6505  0.9764  0.0248
26523SOL    HW297562   6.272   1.224   9.622 -0.4167 -0.8012 -0.6318
26524SOL     OW97563   3.145   2.274   3.999 -0.2171 -0.3053  0.4445
26524SOL    HW197564   3.159   2.332   4.074  0.9694 -1.8410  1.4818
26524SOL    HW297565   3.193   2.194   4.022  2.3924  0.0275 -3.0162
26525SOL     OW97566  11.158   4.633  11.718  0.4439 -0.6762  0.1499
26525SOL    HW197567  11.226   4.606  11.779  0.3919 -2.8318 -0.6490
26525SOL    HW297568  11.202   4.637  11.633  0.0326  0.1188 -0.0426
26526SOL     OW97569   2.616  13.976  11.858 -0.1847 -0.1674  0.5172
26526SOL    HW197570   2.698  13.939  11.888  0.6100  0.9719 -0.1749
26526SOL    HW297571   2.569  13.902  11.818  0.8440 -0.6684  0.2167
26527SOL     OW97572   1.148  13.179   0.190 -0.5713 -0.1837 -0.1193
26527SOL    HW197573   1.218  13.170   0.254  1.8925  0.9609 -2.4662
26527SOL    HW297574   1.142  13.092   0.149 -0.5387 -0.2707  0.0598
26528SOL     OW97575   0.756  11.591   4.659 -0.7469  0.9527 -0.2587
26528SOL    HW197576   0.845  11.558   4.648 -1.0104 -0.2767  0.9849
26528SOL    HW297577   0.766  11.685   4.672  0.6018  0.5608  2.0369
26529SOL     OW97578   9.096  13.278   9.238 -0.0775 -0.0965  0.1171
26529SOL    HW197579   9.130  13.188   9.240  0.0707 -0.1217 -1.5409
26529SOL    HW297580   9.162  13.326   9.187 -1.4033  0.3553 -1.2457
26530SOL     OW97581  10.565  10.410   9.894  0.0525  0.0208  0.1562
26530SOL    HW197582  10.535  10.493   9.858  0.2114  0.4159  0.9075
26530SOL    HW297583  10.634  10.381   9.835 -0.9574 -0.2891 -0.9034
26531SOL     OW97584   3.957   8.825   5.229  0.3723 -0.9246 -0.4011
26531SOL    HW197585   4.017   8.897   5.210 -0.5006  0.1967  0.8682
26531SOL    HW297586   3.917   8.804   5.145 -1.2825  1.9153 -0.4498
26532SOL     OW97587  10.792   7.027   9.857 -0.0072  0.0233 -0.4596
26532SOL    HW197588  10.843   6.952   9.887  0.7216  1.2223  1.4926
26532SOL    HW297589  10.840   7.060   9.781  1.4262  0.3390  0.5528
26533SOL     OW97590  10.911   8.819  10.863  0.4258  0.0118  0.0895
26533SOL    HW197591  10.937   8.807  10.955 -0.3335 -3.5702 -0.0300
26533SOL    HW297592  10.993   8.812  10.814  0.6402  0.3165  0.4026
26534SOL     OW97593   2.391  12.501   1.719 -0.4503 -0.1508  0.6005
26534SOL    HW197594   2.344  12.425   1.684 -0.8128  0.2782  0.1282
26534SOL    HW297595   2.385  12.492   1.814 -1.3178 -0.2171  0.5468
26535SOL     OW97596   4.304  12.644   8.696 -0.0411  0.5382  0.3067
26535SOL    HW197597   4.250  12.721   8.675  0.0019 -0.1660 -2.9553
26535SOL    HW297598   4.247  12.587   8.746 -0.6762  1.8527  1.1520
26536SOL     OW97599   1.926   8.472  10.687  0.1278 -0.1900 -0.9704
26536SOL    HW197600   2.009   8.433  10.660  1.1540  0.8984  0.4056
26536SOL    HW297601   1.867   8.398  10.700  1.0573 -1.0306 -1.4163
26537SOL     OW97602  13.018  11.343   1.522  0.2593 -0.1828  0.0181
26537SOL    HW197603  12.980  11.411   1.578 -1.0727 -0.5865 -0.3607
26537SOL    HW297604  12.976  11.262   1.551  0.7138 -0.6219 -0.5346
26538SOL     OW97605   7.865   3.701  13.825  0.0084 -0.4717  0.2399
26538SOL    HW197606   7.910   3.651  13.756 -2.0504  0.0182 -1.5916
26538SOL    HW297607   7.833   3.779  13.780  2.4537  2.2949  2.8306
26539SOL     OW97608   6.930  10.551   8.981 -0.9049 -0.1414  0.2010
26539SOL    HW197609   6.860  10.616   8.974 -1.1236 -0.3369  0.6153
26539SOL    HW297610   6.932  10.509   8.895 -0.8244  0.3503 -0.0404
26540SOL     OW97611   9.426   5.317   4.457 -0.3920 -0.1348  0.2249
26540SOL    HW197612   9.476   5.343   4.380  0.1046 -1.1174  0.2010
26540SOL    HW297613   9.444   5.385   4.521 -0.4484  0.4550 -0.3687
26541SOL     OW97614   7.900  11.368   4.514  0.2474 -0.8769 -0.0308
26541SOL    HW197615   7.966  11.394   4.448  1.7092 -2.2741  0.8165
26541SOL    HW297616   7.921  11.277   4.534 -0.0999 -0.4812  2.4170
26542SOL     OW97617   7.197   6.186   8.011  0.0241  0.0723 -0.0381
26542SOL    HW197618   7.233   6.183   8.099 -0.3831 -0.2721  0.1200
26542SOL    HW297619   7.255   6.130   7.959  1.6189  2.0486 -0.5110
26543SOL     OW97620   2.028   7.947   9.819  0.8228  0.3316 -0.3168
26543SOL    HW197621   2.016   7.884   9.890  0.9950  0.3755 -0.2474
26543SOL    HW297622   1.972   7.915   9.748  2.5767 -1.1697 -1.1318
26544SOL     OW97623   1.864  12.863   1.095 -0.2678  0.2285  0.2423
26544SOL    HW197624   1.837  12.946   1.055  0.0031 -0.0776 -0.5848
26544SOL    HW297625   1.957  12.875   1.115 -0.5637  0.6375  1.4591
26545SOL     OW97626   2.439   3.413   0.036 -0.6235  0.0146 -0.0301
26545SOL    HW197627   2.420   3.325   0.004  1.4501  0.1726 -1.9507
26545SOL    HW297628   2.516   3.401   0.092 -1.3041  0.4169  1.0101
26546SOL     OW97629   7.862  11.307   6.664 -0.3731  0.0163  0.4067
26546SOL    HW197630   7.792  11.355   6.622 -0.7492 -0.3725  0.5755
26546SOL    HW297631   7.933  11.306   6.600  0.3520  2.4033  1.1052
26547SOL     OW97632  10.033  10.378   5.428 -0.0065  0.0502  0.7616
26547SOL    HW197633  10.104  10.425   5.385 -0.3521  0.3717  0.5346
26547SOL    HW297634  10.048  10.286   5.407  0.5904  0.0656  1.0829
26548SOL     OW97635   5.875   7.265  10.901 -0.3263 -0.4311 -0.5647
26548SOL    HW197636   5.895   7.314  10.981  0.9526  1.2670 -1.8364
26548SOL    HW297637   5.824   7.326  10.848  1.9354 -0.0907 -2.5091
26549SOL     OW97638   5.944   2.354   3.336 -0.5063  0.2488 -0.1743
26549SOL    HW197639   5.992   2.372   3.256 -1.5787 -0.9109 -1.1052
26549SOL    HW297640   5.888   2.431   3.348  0.3651  0.8652  0.0230
26550SOL     OW97641   2.495   5.337   4.181 -0.7735  0.1511 -0.2394
26550SOL    HW197642   2.509   5.293   4.264 -0.3895  0.5922 -0.0680
26550SOL    HW297643   2.522   5.427   4.196  1.1435 -0.1736 -1.3613
26551SOL     OW97644  12.781  11.147   7.604 -0.0886  0.3602  0.5017
26551SOL    HW197645  12.829  11.165   7.685  0.9827  0.4670 -0.1409
26551SOL    HW297646  12.743  11.060   7.618 -0.0236  0.4356  1.1707
26552SOL     OW97647  13.066   6.611   7.449  0.8547 -0.2544  0.5143
26552SOL    HW197648  13.053   6.657   7.366  1.7637  1.2629  1.1637
26552SOL    HW297649  12.984   6.565   7.464  0.3062  0.2703 -0.7145
26553SOL     OW97650  12.088   0.835   0.315 -0.2881 -0.0125  0.8036
26553SOL    HW197651  12.004   0.830   0.361 -0.6711 -0.7309  0.0573
26553SOL    HW297652  12.066   0.871   0.229  0.1114 -0.5230  0.4812
26554SOL     OW97653  10.193   8.689   3.712  0.4414  0.7712  0.0814
26554SOL    HW197654  10.128   8.755   3.733  1.0055  1.3508  0.0440
26554SOL    HW297655  10.230   8.717   3.628  2.4063  1.7914  1.2234
26555SOL     OW97656   0.445   6.914   2.746  0.7435 -0.2522  0.3940
26555SOL    HW197657   0.353   6.923   2.721  0.9047  0.8078  0.1616
26555SOL    HW297658   0.491   6.977   2.691  1.3666  0.6699  1.9113
26556SOL     OW97659   2.746   4.290   4.977 -0.4185  0.0704 -0.3958
26556SOL    HW197660   2.679   4.249   5.031 -0.4544 -0.4374 -0.8122
26556SOL    HW297661   2.718   4.271   4.887  0.9377 -1.2294 -0.5703
26557SOL     OW97662   6.892   0.490  12.757 -0.2935 -0.4297 -0.0103
26557SOL    HW197663   6.967   0.435  12.734  1.3412  1.9979 -0.8846
26557SOL    HW297664   6.821   0.456  12.704  0.4195 -2.1395  0.0462
26558SOL     OW97665   3.245   9.612   0.066  0.3096 -0.4731 -0.2684
26558SOL    HW197666   3.260   9.666   0.143  1.2801  0.2872 -0.9590
26558SOL    HW297667   3.178   9.658   0.016  1.0948  0.0867 -0.8284
26559SOL     OW97668   2.328   7.128   5.359  0.2973  0.0098  0.2625
26559SOL    HW197669   2.309   7.197   5.424 -0.7556  0.6768 -0.7051
26559SOL    HW297670   2.242   7.100   5.330  0.7435  0.4068 -1.5333
26560SOL     OW97671   4.545   0.847  10.018  0.4924  0.0669  0.3127
26560SOL    HW197672   4.559   0.817  10.108  2.3494  2.7762  1.0758
26560SOL    HW297673   4.619   0.812   9.969  1.3471  1.2937  0.6689
26561SOL     OW97674   7.580  10.655   0.028  0.2746 -0.4631  0.2100
26561SOL    HW197675   7.535  10.724   0.078  3.0120  0.1524  2.0043
26561SOL    HW297676   7.527  10.646  -0.051 -1.2115  2.4298  0.7125
26562SOL     OW97677   7.570   4.352   5.595 -0.6786  0.0955  0.4145
26562SOL    HW197678   7.518   4.307   5.528  2.1688  0.7873 -2.5156
26562SOL    HW297679   7.594   4.283   5.658 -0.0869 -1.5869 -1.5516
26563SOL     OW97680  13.246   7.841   8.227 -0.2646 -0.4052  0.0231
26563SOL    HW197681  13.165   7.884   8.200  0.4930 -0.0589 -1.8614
26563SOL    HW297682  13.297   7.911   8.269 -0.8458 -0.5850  1.0614
26564SOL     OW97683   3.589   8.972   7.200 -0.0597  0.0338 -0.2190
26564SOL    HW197684   3.576   8.999   7.110 -0.1860 -0.2519 -0.2893
26564SOL    HW297685   3.642   8.893   7.194  1.2351  0.8612  0.0384
26565SOL     OW97686   1.351   1.583   2.074 -0.0413 -0.2706 -0.2528
26565SOL    HW197687   1.374   1.549   1.988 -1.4556 -1.0344 -0.3513
26565SOL    HW297688   1.434   1.584   2.122  0.4634 -1.5695 -1.0420
26566SOL     OW97689   4.932   8.177  11.653 -0.0950  0.0188  0.1754
26566SOL    HW197690   4.996   8.215  11.592  0.2766  2.5087  1.9502
26566SOL    HW297691   4.847   8.204  11.618  0.1615  3.0975  1.5673
26567SOL     OW97692  12.996   0.971  13.590 -0.0610 -0.0028  0.3743
26567SOL    HW197693  13.039   0.980  13.505  0.3533 -1.1574  0.4452
26567SOL    HW297694  13.020   1.051  13.637 -2.1457  1.7455 -1.3488
26568SOL     OW97695   0.197   1.980   6.772 -0.3200  0.1208  0.3422
26568SOL    HW197696   0.215   1.928   6.694 -1.1293 -0.6802  0.6741
26568SOL    HW297697   0.261   2.052   6.768  0.1330 -0.3154 -0.6596
26569SOL     OW97698   9.185  13.408   0.169  0.4342 -0.0865  0.6243
26569SOL    HW197699   9.181  13.318   0.199 -1.0836  0.7650  3.3133
26569SOL    HW297700   9.095  13.429   0.143  0.7589  0.6787  0.0640
26570SOL     OW97701   1.451  12.453   8.159 -0.3640  0.1420 -0.1762
26570SOL    HW197702   1.394  12.524   8.133 -2.8079 -0.8124  2.1701
26570SOL    HW297703   1.522  12.454   8.094 -2.0525  2.5335 -2.1496
26571SOL     OW97704   1.468   9.744   0.483 -0.0342 -0.4273  0.1878
26571SOL    HW197705   1.535   9.686   0.520  0.0559 -0.7459 -0.4723
26571SOL    HW297706   1.407   9.685   0.439  0.2079 -0.0015 -0.7293
26572SOL     OW97707   2.252   9.819   2.343 -0.5982  0.3081 -0.7675
26572SOL    HW197708   2.300   9.866   2.275  0.4064 -0.2250 -0.4518
26572SOL    HW297709   2.174   9.872   2.359 -0.2853  1.0195 -1.5381
26573SOL     OW97710   5.439  13.011   8.876  0.4577  0.1374 -0.3428
26573SOL    HW197711   5.385  12.967   8.941 -3.4416  0.9002 -2.7229
26573SOL    HW297712   5.442  13.102   8.905 -0.0414  0.1975 -0.4693
26574SOL     OW97713   8.975   6.139   9.643 -0.3578  0.0427 -0.2235
26574SOL    HW197714   8.895   6.131   9.695 -0.3357  0.9321 -0.0346
26574SOL    HW297715   9.036   6.187   9.700 -0.3530  1.0780 -1.0774
26575SOL     OW97716   5.300   8.494  11.368 -0.4719  0.0135 -0.5868
26575SOL    HW197717   5.277   8.421  11.311 -2.1353 -1.8718  2.2583
26575SOL    HW297718   5.351   8.454  11.439  1.3037  2.2042 -0.5235
26576SOL     OW97719   1.984  11.947  11.432 -0.1981  0.1375 -0.1358
26576SOL    HW197720   2.036  11.866  11.432  0.1825  0.3655  1.0214
26576SOL    HW297721   2.045  12.014  11.401 -0.0353  0.2576  0.4345
26577SOL     OW97722  13.784   0.978  12.052  0.3713  0.0999  0.5055
26577SOL    HW197723  13.824   1.016  12.131 -0.6273  0.6680  0.7486
26577SOL    HW297724  13.693   0.964  12.076  0.3301 -0.8416 -0.1688
26578SOL     OW97725  12.672   8.834   0.701  0.3260 -0.3074  0.2337
26578SOL    HW197726  12.628   8.834   0.616  0.2465 -1.9443  0.2460
26578SOL    HW297727  12.665   8.744   0.732 -0.2767  0.3920  2.3210
26579SOL     OW97728   8.934   3.453  12.317 -0.1128 -1.0249  0.0377
26579SOL    HW197729   8.870   3.524  12.315  0.5534 -0.4239 -0.7965
26579SOL    HW297730   9.014   3.492  12.279  0.8793 -1.6226  1.4273
26580SOL     OW97731   8.425   0.953   4.515 -0.3450 -0.0010 -0.5207
26580SOL    HW197732   8.417   1.045   4.537 -1.2529 -0.1945 -0.0060
26580SOL    HW297733   8.424   0.951   4.419  0.2817  0.5598 -0.5480
26581SOL     OW97734   1.228  12.704   6.152 -0.7160  0.2951 -0.2938
26581SOL    HW197735   1.323  12.709   6.157 -0.5704 -2.2628  1.0661
26581SOL    HW297736   1.197  12.788   6.187  1.0330  0.4301  1.0506
26582SOL     OW97737   6.215   5.513   5.305  0.4197 -0.2689  0.3146
26582SOL    HW197738   6.218   5.428   5.261 -0.3943  0.5679 -1.4573
26582SOL    HW297739   6.307   5.542   5.308  0.4734 -0.2424 -1.0912
26583SOL     OW97740   7.258   5.520   0.057 -0.7198 -0.3825  0.0607
26583SOL    HW197741   7.272   5.442   0.004 -1.0432 -0.6807  0.4032
26583SOL    HW297742   7.176   5.502   0.104 -0.7397  0.1173  0.2215
26584SOL     OW97743  13.308  11.285  11.370  0.2581  0.3324 -0.1497
26584SOL    HW197744  13.291  11.211  11.428 -0.7993 -0.0754 -0.9422
26584SOL    HW297745  13.325  11.359  11.429 -3.1607  0.5133  0.8135
26585SOL     OW97746   4.119   8.915  11.542 -0.6797  0.3489 -0.4314
26585SOL    HW197747   4.063   8.931  11.619 -0.4391  0.1408 -0.2124
26585SOL    HW297748   4.096   8.827  11.514 -0.8762  0.4820 -0.6920
26586SOL     OW97749   3.366   9.545   9.560 -0.0794 -0.0430 -0.3577
26586SOL    HW197750   3.301   9.600   9.516  0.8524  0.7116 -0.8201
26586SOL    HW297751   3.329   9.530   9.647 -0.7997  0.5230 -0.5546
26587SOL     OW97752   9.613   1.014   0.293 -0.5644  0.5943  0.0969
26587SOL    HW197753   9.599   1.108   0.294  1.2108  0.9906 -2.6241
26587SOL    HW297754   9.527   0.977   0.272 -1.1546  1.6058  0.6653
26588SOL     OW97755   9.774   6.236   5.844 -0.0634 -0.0310 -0.5190
26588SOL    HW197756   9.751   6.328   5.858 -0.5465  0.0143 -1.5345
26588SOL    HW297757   9.821   6.235   5.761  1.4328 -0.4845  0.3116
26589SOL     OW97758  11.450   6.900   7.378 -0.5067  0.0280  0.6841
26589SOL    HW197759  11.540   6.928   7.366 -0.5654  0.3814  1.0287
26589SOL    HW297760  11.443   6.882   7.472 -1.0645  0.9856  0.8393
26590SOL     OW97761  11.538   0.972  10.703 -0.0468  0.5754  0.1266
26590SOL    HW197762  11.628   0.940  10.708  0.1045  1.1708  1.9905
26590SOL    HW297763  11.502   0.928  10.626  1.8335  0.3581 -0.6931
26591SOL     OW97764  12.498   0.450   8.165 -0.3764  0.0028 -0.4901
26591SOL    HW197765  12.424   0.390   8.165 -1.2373  1.0221  0.0336
26591SOL    HW297766  12.570   0.400   8.204 -0.5487 -1.2580 -1.7261
26592SOL     OW97767   8.313   1.576   9.036 -0.2202  0.2185 -0.1382
26592SOL    HW197768   8.371   1.504   9.012  0.1313  0.7429 -0.8851
26592SOL    HW297769   8.252   1.584   8.962 -1.8529 -0.9021  0.9972
26593SOL     OW97770   1.932   0.768   3.460 -0.0411 -0.4062 -0.0803
26593SOL    HW197771   1.866   0.728   3.404  0.0786 -1.1248  0.2793
26593SOL    HW297772   2.002   0.704   3.464  0.2104 -0.1072  0.4129
26594SOL     OW97773   8.761   0.859   0.989 -0.6924 -0.0252  0.3374
26594SOL    HW197774   8.748   0.839   1.081  0.8493  0.8995  0.7924
26594SOL    HW297775   8.683   0.908   0.963 -0.4615  1.0318  1.5749
26595SOL     OW97776   4.514   1.956  11.388 -0.2903  0.3139  0.5513
26595SOL    HW197777   4.604   1.965  11.417  0.0287  0.8985 -0.5585
26595SOL    HW297778   4.464   1.939  11.468  1.2078 -3.5108  0.8568
26596SOL     OW97779   6.052  10.993   2.527  0.3273  0.1311  0.4338
26596SOL    HW197780   6.121  11.059   2.537 -1.0595  1.6090  0.8100
26596SOL    HW297781   6.042  10.982   2.433  1.7926 -0.9438  0.3650
26597SOL     OW97782   9.876  11.394   4.421  0.7980 -0.5621 -0.2831
26597SOL    HW197783   9.930  11.421   4.346  0.4221  0.7860 -0.0957
26597SOL    HW297784   9.905  11.450   4.492 -1.2183  0.6105 -0.3155
26598SOL     OW97785   3.998  12.809   8.020  0.7298  0.0145 -0.3052
26598SOL    HW197786   3.992  12.765   8.105 -1.7707 -1.0784 -0.9530
26598SOL    HW297787   4.083  12.781   7.986  1.2651 -0.4864  1.3123
26599SOL     OW97788   2.270   5.413   0.076 -0.1832  0.3490 -0.0476
26599SOL    HW197789   2.200   5.396   0.139 -1.9514  2.8345 -1.1720
26599SOL    HW297790   2.279   5.508   0.074  1.3742  0.2448 -1.9264
26600SOL     OW97791   4.653   9.578   1.798 -0.4383 -0.2038  0.0200
26600SOL    HW197792   4.561   9.591   1.774 -0.2694 -0.4096 -0.7603
26600SOL    HW297793   4.674   9.653   1.854 -0.8644  0.2617 -0.4302
26601SOL     OW97794  13.945   4.182  14.105  0.1773 -0.6612  0.2519
26601SOL    HW197795  13.923   4.106  14.050 -0.3755 -0.3215 -0.0076
26601SOL    HW297796  13.943   4.257  14.044 -1.0415 -0.1972  0.8423
26602SOL     OW97797   1.220  13.090   7.093 -0.3013 -0.4011  0.0764
26602SOL    HW197798   1.285  13.056   7.154  0.7052 -1.0029 -1.2598
26602SOL    HW297799   1.158  13.018   7.081 -0.5198 -0.2696  0.4140
26603SOL     OW97800  12.267   6.154  14.006  0.3577  0.3023 -0.2541
26603SOL    HW197801  12.246   6.162  14.099  0.6769  0.6683 -0.2059
26603SOL    HW297802  12.258   6.243  13.972  1.7310  0.4745 -0.2382
26604SOL     OW97803   5.669  10.767  12.712 -0.4005 -0.0044 -0.2570
26604SOL    HW197804   5.614  10.707  12.660  1.5243 -1.3021 -0.9034
26604SOL    HW297805   5.634  10.854  12.693 -1.4207 -0.6773 -1.6386
26605SOL     OW97806  10.081  13.388   7.685 -0.1388 -0.2916 -0.1993
26605SOL    HW197807  10.045  13.304   7.712 -0.3412  0.1579  0.9841
26605SOL    HW297808  10.128  13.420   7.762 -0.5099  0.9217 -0.4590
26606SOL     OW97809   0.133  14.018  13.909 -0.1450  0.1701  0.1684
26606SOL    HW197810   0.196  13.946  13.905 -0.9955 -0.5673 -2.2858
26606SOL    HW297811   0.051  13.979  13.878 -0.5553  2.2508 -1.6126
26607SOL     OW97812  11.389  11.492   3.678  0.3553  0.5579  0.3149
26607SOL    HW197813  11.305  11.537   3.664  0.2482  0.2005 -0.2114
26607SOL    HW297814  11.404  11.500   3.772 -0.8215 -0.3234  0.6055
26608SOL     OW97815  12.138   0.394  12.430  0.3907  0.4180 -0.1144
26608SOL    HW197816  12.125   0.362  12.341 -0.8696 -1.7319  0.7520
26608SOL    HW297817  12.074   0.464  12.440  0.8213  0.9499 -1.0175
26609SOL     OW97818   6.233  11.694   7.178 -0.3941 -0.1207 -0.0111
26609SOL    HW197819   6.246  11.599   7.183 -0.2625 -0.1006  0.0391
26609SOL    HW297820   6.211  11.709   7.086 -1.5460 -0.3351  0.2237
26610SOL     OW97821   6.522  13.136  10.574  0.5800  0.9061 -0.8613
26610SOL    HW197822   6.610  13.169  10.560  0.8358 -0.0936 -1.7704
26610SOL    HW297823   6.465  13.211  10.558  1.2169  1.2954 -1.3118
26611SOL     OW97824  12.240   6.837   0.751 -0.6926 -0.6991 -0.1859
26611SOL    HW197825  12.215   6.927   0.774  0.0338 -0.5866  0.1857
26611SOL    HW297826  12.242   6.792   0.835  0.0204 -0.7887 -0.2480
26612SOL     OW97827  10.639   3.707   9.170  0.1633  0.1399 -0.2888
26612SOL    HW197828  10.567   3.644   9.166  0.4824 -0.2897  0.6821
26612SOL    HW297829  10.598   3.790   9.146 -0.5245 -0.2099 -0.3697
26613SOL     OW97830   8.343  10.150  14.102  0.1594 -0.5962 -0.5257
26613SOL    HW197831   8.419  10.162  14.044 -0.5008  1.5346 -1.0650
26613SOL    HW297832   8.376  10.174  14.189  0.2058  0.0341 -0.7078
26614SOL     OW97833   9.602   2.283  12.729 -0.2901  0.1981  0.3958
26614SOL    HW197834   9.622   2.292  12.636  0.4707  2.1322  0.6808
26614SOL    HW297835   9.688   2.288  12.772 -0.7667  1.4755  1.2766
26615SOL     OW97836   7.036  11.457   4.609 -0.6417  0.6222 -0.2898
26615SOL    HW197837   7.053  11.427   4.699 -0.5488  0.6537 -0.2961
26615SOL    HW297838   6.982  11.388   4.571  2.1200 -1.1703 -1.3040
26616SOL     OW97839  13.077  12.038  13.713 -0.0109 -0.1923  0.3749
26616SOL    HW197840  13.116  12.036  13.626 -2.1972  0.0861 -0.6707
26616SOL    HW297841  13.107  12.121  13.751  0.8041 -0.2277 -0.1702
26617SOL     OW97842   2.611   2.910   3.338  0.2184  0.7851 -0.8382
26617SOL    HW197843   2.574   2.996   3.358 -1.1524  0.0639 -0.0751
26617SOL    HW297844   2.540   2.849   3.359  0.9219 -0.4828 -2.0247
26618SOL     OW97845   8.650   5.969   0.546  0.3661  0.1585 -0.0317
26618SOL    HW197846   8.708   5.940   0.475 -0.7225 -1.0939 -0.4556
26618SOL    HW297847   8.659   6.064   0.546  2.0924  0.0361 -0.3525
26619SOL     OW97848   1.487  10.005   4.084  0.5314  0.2296  0.7724
26619SOL    HW197849   1.492   9.912   4.063  2.0563  0.7507 -1.4659
26619SOL    HW297850   1.545  10.016   4.159  0.9581 -0.4868  0.5531
26620SOL     OW97851  11.920   1.158  11.123 -0.1864  0.5755  0.1187
26620SOL    HW197852  11.901   1.249  11.146  2.5320  1.6044 -1.3021
26620SOL    HW297853  11.952   1.119  11.205  0.7701  1.5736  0.2414
26621SOL     OW97854   9.454   6.506   4.556  0.0810 -1.0590  0.1283
26621SOL    HW197855   9.387   6.445   4.588  1.3587 -2.4325  0.2702
26621SOL    HW297856   9.517   6.512   4.628 -0.7897  1.7147  0.7731
26622SOL     OW97857   1.899   3.135  10.741  0.1821  0.2590 -0.7987
26622SOL    HW197858   1.869   3.220  10.774 -1.2109 -0.3665 -0.3880
26622SOL    HW297859   1.971   3.157  10.681  0.4534  1.6491 -0.0066
26623SOL     OW97860  13.139   6.042  10.091 -0.2715 -0.3358 -0.5364
26623SOL    HW197861  13.144   6.132  10.058 -0.8028  0.2682  0.9707
26623SOL    HW297862  13.147   5.988  10.012 -1.4412  1.0392 -1.6615
26624SOL     OW97863   5.417   5.477  13.877 -0.2137  0.0042 -0.4325
26624SOL    HW197864   5.451   5.564  13.900  0.8774 -0.2971 -0.8293
26624SOL    HW297865   5.344   5.495  13.818 -0.1448  0.6635 -0.3293
26625SOL     OW97866   6.016   6.656   0.387  0.0878  0.2182  0.3216
26625SOL    HW197867   5.967   6.583   0.348 -0.5213  1.5824 -1.5756
26625SOL    HW297868   6.086   6.674   0.325 -0.3173  1.8381  0.2953
26626SOL     OW97869   0.008   8.941   1.759 -0.1824 -0.2473 -0.3943
26626SOL    HW197870   0.097   8.964   1.785 -0.8930  2.2223  0.1509
26626SOL    HW297871  -0.009   8.994   1.680 -0.9619 -1.1804 -0.8824
26627SOL     OW97872   0.059  12.496   0.382 -0.0520 -0.0761 -0.6197
26627SOL    HW197873   0.121  12.480   0.311  2.0281  2.1327  0.5380
26627SOL    HW297874   0.064  12.418   0.437  1.8477  0.0870 -0.5056
26628SOL     OW97875   6.283   7.243  10.500 -0.0848  0.0404  0.0037
26628SOL    HW197876   6.348   7.181  10.467 -0.5756 -0.0527 -0.8174
26628SOL    HW297877   6.225   7.191  10.555  0.3938  0.0818  0.5636
26629SOL     OW97878   8.250   1.826  12.009  0.2059  0.6987  0.2462
26629SOL    HW197879   8.234   1.880  12.086  0.8363  0.5426  0.4930
26629SOL    HW297880   8.216   1.739  12.033  0.3565  0.6627  0.3308
26630SOL     OW97881  11.962  12.578   3.362  0.2707  0.0906  0.0601
26630SOL    HW197882  11.933  12.596   3.272  0.5737  2.2170  0.3452
26630SOL    HW297883  11.881  12.570   3.412  0.0687  1.7686  0.0745
26631SOL     OW97884  12.841   3.910   1.400 -0.1885 -0.6033  0.0878
26631SOL    HW197885  12.929   3.882   1.425 -0.4845 -0.5701  1.2078
26631SOL    HW297886  12.827   3.870   1.314  2.7274  3.1411 -2.5290
26632SOL     OW97887   9.551   8.638  11.863  0.5218  0.4680  0.0718
26632SOL    HW197888   9.596   8.662  11.944 -0.0200  1.8441 -0.0117
26632SOL    HW297889   9.609   8.667  11.794  0.3674  0.5145 -0.0388
26633SOL     OW97890   9.342   6.689   8.772 -0.3060 -0.4140 -0.2089
26633SOL    HW197891   9.429   6.710   8.739  0.2380 -0.1078  1.3260
26633SOL    HW297892   9.313   6.615   8.719  1.7713 -1.8943  0.5929
26634SOL     OW97893   4.889   6.148   3.224 -0.2685 -0.6747 -0.0184
26634SOL    HW197894   4.890   6.135   3.318 -1.2198  1.4316  0.3485
26634SOL    HW297895   4.942   6.076   3.189  2.7920  0.2167  2.3395
26635SOL     OW97896   7.516   0.624   1.723  0.5047  0.1904  0.6866
26635SOL    HW197897   7.552   0.623   1.811  1.0993  1.4828  0.4952
26635SOL    HW297898   7.508   0.717   1.702  0.6127 -0.0890 -0.7022
26636SOL     OW97899   0.144   9.004   8.554  0.2085 -0.3313  0.0480
26636SOL    HW197900   0.131   9.043   8.641  0.7020  1.0410 -0.4697
26636SOL    HW297901   0.056   8.981   8.525 -0.2090  1.1715  0.0415
26637SOL     OW97902   8.889  12.468   7.217  0.0468  0.1284  0.1129
26637SOL    HW197903   8.838  12.477   7.137  0.6225 -1.1316 -0.4371
26637SOL    HW297904   8.856  12.387   7.257  0.6634  0.0388  0.4501
26638SOL     OW97905   7.793   5.834   0.889  0.4543  0.1892  0.3680
26638SOL    HW197906   7.717   5.820   0.945 -1.1347  0.9648 -1.4555
26638SOL    HW297907   7.859   5.872   0.946 -0.2553 -1.1299  2.1654
26639SOL     OW97908  11.432   3.093   3.380 -0.0996  0.0193  0.9165
26639SOL    HW197909  11.405   3.016   3.329  2.3884  0.0898 -0.7057
26639SOL    HW297910  11.384   3.085   3.462 -0.1961 -3.0941  0.6837
26640SOL     OW97911   4.928   9.871   5.292  0.1607  0.1454 -0.0565
26640SOL    HW197912   4.998   9.811   5.267 -1.0646 -1.0577 -0.7244
26640SOL    HW297913   4.930   9.872   5.388 -0.3201 -1.6852  0.0214
26641SOL     OW97914   1.644  13.516   9.031  0.4062 -0.2353 -0.0077
26641SOL    HW197915   1.731  13.520   8.992  0.2838 -0.4561 -0.3097
26641SOL    HW297916   1.590  13.572   8.974  0.3039 -0.2706  0.0547
26642SOL     OW97917   6.826  13.097   7.921  0.8828  0.2324  0.0706
26642SOL    HW197918   6.771  13.048   7.981  2.4357  0.1963  1.5555
26642SOL    HW297919   6.877  13.156   7.978  0.2495  2.4106 -1.4899
26643SOL     OW97920   6.340  13.924  11.451  0.3222  0.1571  0.3563
26643SOL    HW197921   6.407  13.874  11.405 -0.9369 -0.4214 -0.9375
26643SOL    HW297922   6.325  14.000  11.395 -0.0267  0.3305  0.6837
26644SOL     OW97923   3.742   8.941   9.318 -0.0296  0.2023  0.1862
26644SOL    HW197924   3.837   8.929   9.322  0.0467  0.9676  1.3032
26644SOL    HW297925   3.728   9.029   9.355 -1.1774  0.0306  0.1805
26645SOL     OW97926   0.730  12.112  11.405 -0.8839 -0.4376 -0.3392
26645SOL    HW197927   0.811  12.137  11.361 -1.0831  0.5400 -0.1740
26645SOL    HW297928   0.756  12.045  11.467 -0.3151 -0.6056 -0.7468
26646SOL     OW97929   3.141   3.641   5.816 -0.1572  0.3490 -0.1710
26646SOL    HW197930   3.234   3.661   5.807 -0.1006 -0.1371 -0.7386
26646SOL    HW297931   3.101   3.682   5.740 -0.4295  0.6903  0.1567
26647SOL     OW97932  12.038  13.701   5.775 -0.0117  0.6135 -0.4646
26647SOL    HW197933  11.943  13.711   5.773 -0.0547  0.0922 -1.8605
26647SOL    HW297934  12.065  13.708   5.684  1.2517  0.3579 -0.1269
26648SOL     OW97935   8.176   0.287   1.353 -0.2819  0.6622  0.2361
26648SOL    HW197936   8.116   0.267   1.282  0.2045  1.4314 -0.4116
26648SOL    HW297937   8.121   0.286   1.432 -0.3848 -2.6957  0.2567
26649SOL     OW97938   9.085  12.587   1.757  0.1518  0.5975 -0.0475
26649SOL    HW197939   9.155  12.650   1.778  1.5881 -0.3323 -1.7751
26649SOL    HW297940   9.120  12.503   1.785 -1.1092  0.3488  0.8140
26650SOL     OW97941   1.200   8.059   3.948 -0.3832 -0.2423  0.3004
26650SOL    HW197942   1.291   8.053   3.977 -0.8141 -0.6210  1.6304
26650SOL    HW297943   1.151   8.083   4.027 -1.6405 -1.5674 -0.0434
26651SOL     OW97944  12.458   7.971  12.152  0.0253 -0.3933 -0.1763
26651SOL    HW197945  12.399   7.997  12.081 -2.0957 -1.5858  1.0439
26651SOL    HW297946  12.410   7.993  12.232  1.3688 -1.1656  0.8748
26652SOL     OW97947   1.769   4.689   7.623 -0.0132  0.0769 -0.0249
26652SOL    HW197948   1.799   4.709   7.712  0.5452  0.1453 -0.2222
26652SOL    HW297949   1.849   4.691   7.570 -0.2503 -0.5583 -0.4252
26653SOL     OW97950   4.903   5.110  11.240 -0.4332 -0.0133 -0.0346
26653SOL    HW197951   4.882   5.126  11.332  1.1993  1.4543  0.1603
26653SOL    HW297952   4.935   5.020  11.237  2.3756  0.7876  1.5254
26654SOL     OW97953   9.043   4.246   5.616  0.2035 -0.2053  0.0352
26654SOL    HW197954   9.033   4.178   5.550  0.0127 -0.3101  0.1695
26654SOL    HW297955   9.077   4.200   5.693 -2.0847 -0.6083  0.8950
26655SOL     OW97956  13.700  11.195  11.428 -0.2096 -0.3896  0.2917
26655SOL    HW197957  13.664  11.107  11.427 -0.1664 -0.4043 -0.1785
26655SOL    HW297958  13.744  11.202  11.513 -0.2081 -0.8237  0.3281
26656SOL     OW97959  11.561   2.720   4.287  0.3021 -0.3446 -0.7037
26656SOL    HW197960  11.591   2.649   4.344  0.9200 -0.3687 -1.0484
26656SOL    HW297961  11.472   2.696   4.262  0.6049 -1.1377 -1.0386
26657SOL     OW97962   3.749   7.229   6.789 -0.4610 -0.1476  0.1533
26657SOL    HW197963   3.810   7.161   6.761 -0.7553 -0.4433  0.2173
26657SOL    HW297964   3.764   7.302   6.729 -0.0616 -0.2280  0.1563
26658SOL     OW97965   6.274   6.871   0.355  0.0125  0.4407 -0.3435
26658SOL    HW197966   6.348   6.837   0.305  0.0535 -1.4515  0.8768
26658SOL    HW297967   6.225   6.925   0.293  0.0216 -1.8212 -2.4600
26659SOL     OW97968   3.583   7.144   6.146  0.1137 -0.6481 -0.1781
26659SOL    HW197969   3.613   7.184   6.227 -0.8082 -0.2753 -0.0089
26659SOL    HW297970   3.651   7.080   6.124 -0.3402 -1.8393  1.7035
26660SOL     OW97971   8.617   3.821   5.141  0.2639 -0.3436 -0.2094
26660SOL    HW197972   8.656   3.783   5.062 -1.0367 -0.1241 -0.9833
26660SOL    HW297973   8.668   3.900   5.158  0.7127 -0.5303 -0.6773
26661SOL     OW97974  10.643   2.807   3.662 -0.3219 -0.3682 -0.2342
26661SOL    HW197975  10.728   2.815   3.705 -0.9070 -0.2065  0.9376
26661SOL    HW297976  10.664   2.797   3.569  0.9680 -0.2687  0.0248
26662SOL     OW97977   9.819   3.892   1.420 -0.4459 -0.0401  0.4160
26662SOL    HW197978   9.746   3.845   1.461  2.5334 -3.3567  2.4974
26662SOL    HW297979   9.859   3.828   1.362  2.0415  0.8659  0.9965
26663SOL     OW97980   9.538  12.184   4.916 -0.1228 -0.4585  0.1128
26663SOL    HW197981   9.502  12.211   4.831  1.6301  0.1126 -0.5041
26663SOL    HW297982   9.539  12.264   4.968 -0.4392 -0.6307  0.3824
26664SOL     OW97983   2.603   1.711   2.909  0.1378  0.7602  0.2252
26664SOL    HW197984   2.646   1.786   2.867 -0.1562 -0.0261 -1.5673
26664SOL    HW297985   2.617   1.638   2.848  1.5874 -1.0407  2.5073
26665SOL     OW97986   2.756   0.761  10.363 -0.4653  0.3586 -0.1595
26665SOL    HW197987   2.764   0.851  10.332 -0.8100  0.6579  0.6088
26665SOL    HW297988   2.662   0.743  10.360 -0.5998  0.6585  1.4178
26666SOL     OW97989   3.303   4.044  13.151 -0.3721  0.5041  0.3455
26666SOL    HW197990   3.306   3.949  13.163 -2.2151  0.5127  1.4340
26666SOL    HW297991   3.238   4.057  13.082  0.0791  0.9602  0.0087
26667SOL     OW97992   0.580  10.260   7.301  0.2150  0.3076  0.1860
26667SOL    HW197993   0.541  10.179   7.334 -0.1204 -0.5018 -1.9833
26667SOL    HW297994   0.670  10.259   7.335 -0.5093  0.3107  2.1984
26668SOL     OW97995  13.549   7.034   2.203  0.3099  0.2053 -0.1608
26668SOL    HW197996  13.463   7.003   2.176  0.4407 -0.4504  0.1574
26668SOL    HW297997  13.589   7.067   2.123  0.2789 -0.7237 -0.5756
26669SOL     OW97998   4.759   3.218   3.957 -0.2450 -0.1837 -0.8019
26669SOL    HW197999   4.796   3.300   3.922 -1.2755  0.1467 -1.1623
26669SOL    HW298000   4.736   3.167   3.879 -4.7581  1.5308 -0.8971
26670SOL     OW98001   7.008   4.718  10.580  0.5591 -1.1780  1.1198
26670SOL    HW198002   6.980   4.646  10.638 -2.1101 -0.1770  1.2376
26670SOL    HW298003   7.006   4.796  10.635  0.9292 -0.6442  0.3993
26671SOL     OW98004  12.973  10.318   9.422 -0.0817  0.3449  0.0779
26671SOL    HW198005  12.983  10.225   9.400  0.4142  0.8688 -2.0795
26671SOL    HW298006  12.879  10.331   9.429 -0.3177  0.1392 -2.0438
26672SOL     OW98007   4.711  10.410   8.086 -0.1557  0.0810  0.2534
26672SOL    HW198008   4.645  10.471   8.053 -0.1554  0.7580  1.4351
26672SOL    HW298009   4.675  10.323   8.066  0.5833  0.3768 -2.8898
26673SOL     OW98010  13.191   0.426   1.686  0.3589  0.2075 -0.4568
26673SOL    HW198011  13.118   0.435   1.626  0.0731  0.7655 -0.0345
26673SOL    HW298012  13.253   0.370   1.640  1.1351  2.3597 -2.2139
26674SOL     OW98013   8.680   1.808   4.282  0.3343  0.1072 -0.3021
26674SOL    HW198014   8.742   1.775   4.347  0.8523 -0.1700 -0.9213
26674SOL    HW298015   8.663   1.898   4.308  0.4118 -0.0509  0.3059
26675SOL     OW98016  11.446   0.166   3.841  0.5708 -0.3751  0.2872
26675SOL    HW198017  11.357   0.197   3.860 -0.5618 -0.9176 -3.3754
26675SOL    HW298018  11.452   0.081   3.883 -1.9111 -1.7564 -1.8804
26676SOL     OW98019  12.875   0.517  11.533 -0.1795 -0.3873  0.4645
26676SOL    HW198020  12.966   0.536  11.512 -0.3189 -1.1773 -0.8903
26676SOL    HW298021  12.877   0.492  11.626  0.5201  2.5846  1.3832
26677SOL     OW98022   1.524   3.792   4.021 -0.9066  0.1305  0.4748
26677SOL    HW198023   1.501   3.736   4.096 -1.0902 -0.2920  0.1060
26677SOL    HW298024   1.444   3.794   3.968 -0.5379 -0.1733 -0.0896
26678SOL     OW98025   3.748  11.003   6.015  0.3877 -0.0247 -0.2847
26678SOL    HW198026   3.756  10.908   6.018  1.3422  0.0034 -1.2069
26678SOL    HW298027   3.687  11.025   6.085 -0.7862 -1.4149 -0.8271
26679SOL     OW98028  12.420   0.942  13.331  0.2164 -0.1789  0.1161
26679SOL    HW198029  12.330   0.955  13.301 -0.6017 -1.0598  2.0685
26679SOL    HW298030  12.467   1.020  13.300 -0.8044 -0.4045 -2.2548
26680SOL     OW98031   9.553   5.259  13.877  0.0947  0.5016  0.1661
26680SOL    HW198032   9.582   5.288  13.964 -1.1136  0.9484  0.4414
26680SOL    HW298033   9.481   5.199  13.895 -0.0196  0.4249 -0.5308
26681SOL     OW98034  11.869   4.702   0.489  0.7294 -0.3826 -0.1808
26681SOL    HW198035  11.906   4.626   0.446  3.0790 -0.2047  1.3788
26681SOL    HW298036  11.774   4.686   0.488  0.8256 -1.4637 -3.1978
26682SOL     OW98037  13.952   1.205   7.709  0.5637  0.0528  0.4509
26682SOL    HW198038  14.011   1.145   7.664 -1.8047 -1.4261 -0.8763
26682SOL    HW298039  13.960   1.181   7.802  0.5389 -1.5367  0.0649
26683SOL     OW98040  13.149   2.438  11.182 -0.0315 -0.1516  0.0565
26683SOL    HW198041  13.237   2.416  11.212  0.2292  0.7696 -0.0242
26683SOL    HW298042  13.135   2.381  11.107  0.1239 -0.9742  0.6368
26684SOL     OW98043  12.622   2.822  13.904  0.5675 -0.2047 -0.0750
26684SOL    HW198044  12.580   2.740  13.878  4.0873 -1.4391 -2.5279
26684SOL    HW298045  12.655   2.804  13.992 -1.2670 -0.2644  0.6452
26685SOL     OW98046   9.144   7.623   1.034 -1.0741  0.6052  0.0053
26685SOL    HW198047   9.192   7.540   1.037  0.8319  1.6723  0.7537
26685SOL    HW298048   9.061   7.601   0.992 -0.1102 -1.4182 -0.9681
26686SOL     OW98049   0.798  11.615   6.783 -0.0156  0.0590 -0.0316
26686SOL    HW198050   0.790  11.522   6.802 -1.8971  0.1470 -0.2317
26686SOL    HW298051   0.747  11.628   6.704 -0.4164  1.3932  0.4154
26687SOL     OW98052   1.715   7.558   4.644 -0.3182  0.6234 -0.0801
26687SOL    HW198053   1.644   7.608   4.605 -0.5258  1.5479  1.3810
26687SOL    HW298054   1.692   7.551   4.737  1.2424  0.5209  0.3388
26688SOL     OW98055  12.066   0.054  11.437 -0.0242 -0.0123  0.2208
26688SOL    HW198056  12.092   0.145  11.421 -0.9652  0.5664  1.6984
26688SOL    HW298057  12.139   0.017  11.486  0.4317 -0.1086 -0.5236
26689SOL     OW98058   1.209   6.170  10.653  0.1641 -0.3075 -0.5806
26689SOL    HW198059   1.134   6.169  10.594 -0.0177 -0.7395 -0.3506
26689SOL    HW298060   1.252   6.086  10.638 -0.4293 -0.8463  0.5675
26690SOL     OW98061   9.113   4.216  10.858  0.3924  0.0127  0.2866
26690SOL    HW198062   9.192   4.268  10.871  0.5329  0.0301 -0.6149
26690SOL    HW298063   9.130   4.135  10.906  0.2997  0.6376  1.4277
26691SOL     OW98064   8.247   6.386  12.971  0.3839 -0.3746  0.4477
26691SOL    HW198065   8.243   6.306  12.919 -0.6131  0.4877 -0.8483
26691SOL    HW298066   8.287   6.451  12.914  1.7578 -0.0544  1.6928
26692SOL     OW98067  12.616  11.507  11.748  0.1893  0.0942  0.1132
26692SOL    HW198068  12.583  11.519  11.837 -0.2266  2.1951 -0.2600
26692SOL    HW298069  12.586  11.421  11.722 -0.1686 -0.3195  1.8018
26693SOL     OW98070  10.872   9.317  13.745 -0.3163 -0.2824 -0.2736
26693SOL    HW198071  10.795   9.321  13.800 -1.9694 -1.4134 -2.3622
26693SOL    HW298072  10.876   9.403  13.703 -0.7349 -0.3886 -0.5298
26694SOL     OW98073   4.571   7.730   0.099 -0.9561 -0.0740 -0.4567
26694SOL    HW198074   4.476   7.714   0.099 -1.2315  1.4013 -0.0423
26694SOL    HW298075   4.588   7.769   0.185 -0.0061 -0.0797 -0.6332
26695SOL     OW98076   2.822   3.429  10.399 -0.1275  0.3311 -0.1812
26695SOL    HW198077   2.903   3.442  10.349 -0.5772  0.7929 -0.7902
26695SOL    HW298078   2.810   3.334  10.400  0.8729  0.1867  0.6424
26696SOL     OW98079  12.705  10.430  13.925 -0.1274  0.2659  0.0659
26696SOL    HW198080  12.781  10.473  13.885  0.6855 -1.3285 -0.1762
26696SOL    HW298081  12.662  10.500  13.974  0.8410  1.4742 -0.7232
26697SOL     OW98082   9.061   5.002  12.691 -0.2715 -0.1084  0.1944
26697SOL    HW198083   9.035   5.083  12.647 -2.4442 -0.6234  0.4057
26697SOL    HW298084   9.013   4.933  12.645  0.5679 -1.1422  0.8057
26698SOL     OW98085   9.535   5.668   1.879  0.5251 -0.4284  0.4384
26698SOL    HW198086   9.627   5.663   1.855  0.5388  0.6691  0.1834
26698SOL    HW298087   9.497   5.730   1.816  0.0430  0.6318  1.7116
26699SOL     OW98088   2.254   7.445   8.925 -0.2278 -0.2158  0.2747
26699SOL    HW198089   2.163   7.462   8.948 -0.8656 -0.9132 -1.5571
26699SOL    HW298090   2.260   7.466   8.832  1.9071  1.3639  0.6741
26700SOL     OW98091   5.453   8.487   5.688  0.1410  0.3635  0.0465
26700SOL    HW198092   5.425   8.510   5.776 -0.3285  0.2157 -0.0582
26700SOL    HW298093   5.429   8.394   5.679 -1.7563  0.8967 -0.9610
26701SOL     OW98094  13.742   1.360   2.267  0.7228 -0.1469 -0.4477
26701SOL    HW198095  13.732   1.296   2.337 -1.7984  1.5152  0.8625
26701SOL    HW298096  13.698   1.320   2.192  1.9718 -1.2281 -0.6455
26702SOL     OW98097   9.305   8.468   1.743  0.1126  0.0860 -0.0313
26702SOL    HW198098   9.222   8.494   1.705  0.8432  1.1265 -0.9617
26702SOL    HW298099   9.368   8.531   1.709  1.7662 -2.1875 -1.4824
26703SOL     OW98100   1.644   9.286   0.619 -0.3637 -0.1129  0.1511
26703SOL    HW198101   1.651   9.195   0.590 -1.9253 -0.3578  0.4433
26703SOL    HW298102   1.573   9.285   0.684 -0.9947  1.4598 -0.4698
26704SOL     OW98103  10.698  10.392  11.255  0.2468  0.0261  0.3843
26704SOL    HW198104  10.753  10.457  11.211 -0.4745  0.7685  0.5378
26704SOL    HW298105  10.610  10.409  11.221  0.0468 -0.8767  0.4357
26705SOL     OW98106   7.259   6.245  13.175 -0.3705  0.1609 -0.2936
26705SOL    HW198107   7.277   6.164  13.129 -0.1516  0.1854 -0.2542
26705SOL    HW298108   7.333   6.302  13.152 -0.2911  0.1930  0.0357
26706SOL     OW98109   7.913  13.712   2.435 -0.8286 -0.1036  0.5111
26706SOL    HW198110   7.946  13.622   2.437 -2.8350 -0.9062  3.1390
26706SOL    HW298111   7.821  13.705   2.461 -1.0044  2.7349  1.0213
26707SOL     OW98112  12.470   6.207   4.623  0.3415  0.2630 -0.0050
26707SOL    HW198113  12.389   6.252   4.650 -0.9272 -1.6865 -0.3568
26707SOL    HW298114  12.501   6.258   4.548  0.7385  2.3681  1.5022
26708SOL     OW98115  11.938   1.803   7.495  0.2767 -0.2020 -0.3082
26708SOL    HW198116  12.008   1.849   7.449 -0.4065  0.9952 -0.2017
26708SOL    HW298117  11.962   1.809   7.588  0.6027 -0.8082 -0.3450
26709SOL     OW98118  11.160   5.793   8.635  0.2061 -0.5900  0.0962
26709SOL    HW198119  11.108   5.740   8.575 -0.9355  1.2205 -0.6073
26709SOL    HW298120  11.095   5.834   8.693  1.1735 -1.1072  1.5908
26710SOL     OW98121   1.000   8.447   0.716  0.1024  0.3897  0.4837
26710SOL    HW198122   1.083   8.437   0.670  0.1796  1.3920  0.3878
26710SOL    HW298123   0.937   8.395   0.665  0.6089 -0.1683  0.4193
26711SOL     OW98124  13.544   3.306  12.407  0.2483  0.5705  0.1128
26711SOL    HW198125  13.585   3.357  12.338  1.7978  0.0142  0.5572
26711SOL    HW298126  13.450   3.322  12.398  0.4669  1.0120 -1.6889
26712SOL     OW98127   6.810  13.287   3.792 -0.4128  0.4459  0.0939
26712SOL    HW198128   6.759  13.267   3.714 -1.5748  0.4869  0.8080
26712SOL    HW298129   6.901  13.278   3.765 -0.8145 -0.8161 -0.9243
26713SOL     OW98130   0.559  10.248  14.071 -0.3283  0.3372 -0.4684
26713SOL    HW198131   0.616  10.291  14.135 -0.6075 -0.5077  0.3717
26713SOL    HW298132   0.617  10.193  14.020 -0.2551  0.2339 -0.2715
26714SOL     OW98133  12.770   2.421   8.559 -0.2047  0.0342  0.3749
26714SOL    HW198134  12.748   2.462   8.475 -1.3727 -1.0706  0.1110
26714SOL    HW298135  12.860   2.391   8.549 -0.7658 -1.2746 -0.9930
26715SOL     OW98136   0.446   8.509   7.898 -0.2794  0.5943  0.1340
26715SOL    HW198137   0.387   8.584   7.901 -2.2858 -0.9450  1.4950
26715SOL    HW298138   0.440   8.477   7.808 -1.3762  0.5952  0.1937
26716SOL     OW98139  10.320   2.615  13.474  0.5510  0.4194 -0.5730
26716SOL    HW198140  10.266   2.542  13.444  0.0793  0.2354  0.7021
26716SOL    HW298141  10.402   2.605  13.426  0.9374 -1.6341  0.4199
26717SOL     OW98142  12.900   1.588  10.623  0.3532  0.5016  0.1886
26717SOL    HW198143  12.857   1.631  10.697  0.9189 -1.1507  1.5440
26717SOL    HW298144  12.832   1.580  10.556 -0.7686  0.2080  1.3226
26718SOL     OW98145   4.731  11.234   9.182  0.1606  0.1497 -0.8674
26718SOL    HW198146   4.719  11.252   9.275  1.6275 -2.6241 -0.0274
26718SOL    HW298147   4.826  11.234   9.169  0.3146 -4.0245 -1.1523
26719SOL     OW98148   6.937   2.478   7.864 -0.0632 -0.0232 -0.3332
26719SOL    HW198149   6.993   2.465   7.941  0.5739  0.1073 -0.7587
26719SOL    HW298150   6.952   2.569   7.840 -0.8440  0.1514 -0.1680
26720SOL     OW98151  10.737  12.766   1.534  0.0638 -0.2245  0.2795
26720SOL    HW198152  10.649  12.740   1.506  0.2453  0.6857 -1.2128
26720SOL    HW298153  10.752  12.851   1.492  1.6550 -0.3599  0.5113
26721SOL     OW98154   6.604   9.867  12.971  0.0006  0.6718 -0.2313
26721SOL    HW198155   6.558   9.783  12.971  1.4380 -0.2963  2.8160
26721SOL    HW298156   6.542   9.929  13.009  0.0415  0.1607  0.7018
26722SOL     OW98157   2.837   2.227   6.622 -0.3000  0.4598 -0.1549
26722SOL    HW198158   2.802   2.167   6.688  1.8698 -2.4051 -1.3813
26722SOL    HW298159   2.875   2.298   6.672 -0.0643 -0.8564  1.6423
26723SOL     OW98160   6.128   2.895   7.892  0.3614 -0.7403  0.3501
26723SOL    HW198161   6.140   2.928   7.802  1.1185 -0.8979  0.3849
26723SOL    HW298162   6.200   2.833   7.904  1.2660  0.4756  1.6110
26724SOL     OW98163   5.454   8.055   5.729 -0.2313 -0.8617  0.3684
26724SOL    HW198164   5.459   8.099   5.644  4.8580 -0.9595  0.3601
26724SOL    HW298165   5.457   8.126   5.793 -0.2897 -0.9184  0.4340
26725SOL     OW98166   6.827   4.891   3.367  0.1950 -0.0056 -0.4343
26725SOL    HW198167   6.919   4.872   3.387 -0.4985 -2.1981  1.1325
26725SOL    HW298168   6.813   4.979   3.401  1.5957  0.1677 -0.2514
26726SOL     OW98169   9.341   5.455   3.060 -0.0568  0.5665 -0.9217
26726SOL    HW198170   9.313   5.422   2.975  0.5284 -1.3224 -0.4156
26726SOL    HW298171   9.292   5.403   3.124 -0.2679  1.7560 -0.0787
26727SOL     OW98172   0.999   8.773   6.781  0.1815 -0.4265 -0.5410
26727SOL    HW198173   1.085   8.793   6.745 -0.1493  0.8915 -0.6339
26727SOL    HW298174   0.938   8.822   6.726 -0.6149 -1.0966 -0.2809
26728SOL     OW98175  13.153   7.782   1.831 -0.7962 -0.3081 -0.0650
26728SOL    HW198176  13.110   7.755   1.912 -0.5618 -2.4506 -0.5778
26728SOL    HW298177  13.175   7.699   1.787 -0.7584  0.7706 -2.2308
26729SOL     OW98178   1.647   1.441   0.758  0.0495  0.0668  0.4558
26729SOL    HW198179   1.627   1.426   0.666 -0.2988 -0.9309  0.6866
26729SOL    HW298180   1.724   1.498   0.756 -0.1571  0.3357 -0.4470
26730SOL     OW98181   3.464  13.285  10.918  0.3439 -0.3385  0.6559
26730SOL    HW198182   3.538  13.291  10.978  0.6310  1.9480  0.1683
26730SOL    HW298183   3.479  13.203  10.870  2.3274 -0.1589  0.8707
26731SOL     OW98184   9.741   6.456   0.600  0.1131  0.3441 -0.8135
26731SOL    HW198185   9.825   6.414   0.619 -0.3399  0.4008  1.5614
26731SOL    HW298186   9.736   6.529   0.662 -1.6424  0.3896 -0.9786
26732SOL     OW98187  10.123  11.619   4.501 -0.2400  0.2047  0.0854
26732SOL    HW198188  10.135  11.610   4.595 -2.5656 -1.8434  0.2960
26732SOL    HW298189  10.058  11.688   4.492 -1.0403 -0.5222  0.1192
26733SOL     OW98190   8.004   4.854  12.483  0.3675  0.3448 -0.1859
26733SOL    HW198191   8.025   4.925  12.423  0.5713 -0.5634 -1.2306
26733SOL    HW298192   7.945   4.893  12.547  1.4535  1.7447 -0.0117
26734SOL     OW98193  11.805   5.097   4.417 -0.4044  0.7935  0.1276
26734SOL    HW198194  11.763   5.071   4.335 -1.8453 -1.1729  1.3992
26734SOL    HW298195  11.732   5.110   4.478  0.6950 -0.1360  1.7132
26735SOL     OW98196  11.181   6.722   8.254 -0.1414  0.2771 -0.4630
26735SOL    HW198197  11.092   6.709   8.222 -0.3519 -0.3054  0.3117
26735SOL    HW298198  11.215   6.633   8.267  0.4579  0.4939 -0.5008
26736SOL     OW98199  11.207  12.691  14.116 -0.4042  0.2082  0.1341
26736SOL    HW198200  11.134  12.751  14.103  0.6107  1.8105  1.5455
26736SOL    HW298201  11.209  12.674  14.210  0.2286 -0.8940 -0.0550
26737SOL     OW98202   0.107   3.896  12.993 -0.3900 -0.0586 -0.5064
26737SOL    HW198203   0.017   3.926  12.999 -0.2844 -0.0262  2.4345
26737SOL    HW298204   0.139   3.931  12.910 -3.0081  0.0490 -1.5286
26738SOL     OW98205   4.107  13.349  10.159 -0.1510 -0.2260 -0.2466
26738SOL    HW198206   4.152  13.420  10.204  1.2959  0.4178 -2.5292
26738SOL    HW298207   4.153  13.341  10.075 -2.6651 -1.3267 -1.6271
26739SOL     OW98208  10.996   2.500  12.864  0.0384  0.1201 -0.1218
26739SOL    HW198209  11.068   2.497  12.926  0.2806 -0.6873 -0.4372
26739SOL    HW298210  11.031   2.548  12.789  0.6708 -1.3521 -0.7947
26740SOL     OW98211   2.933  11.141  11.921  0.2316  0.6138 -0.1373
26740SOL    HW198212   2.853  11.088  11.915 -0.0135  0.9735 -0.0544
26740SOL    HW298213   2.965  11.144  11.831 -0.0868  0.8293 -0.2478
26741SOL     OW98214   8.408  11.618   7.725  0.3087  0.9804 -0.1766
26741SOL    HW198215   8.450  11.686   7.778  0.9147  0.8665 -0.5028
26741SOL    HW298216   8.395  11.545   7.784 -0.0602  1.2641  0.0987
26742SOL     OW98217   8.532   5.073   2.340  0.4935  0.0305  0.6689
26742SOL    HW198218   8.492   5.120   2.267 -0.6519  0.5576  1.5994
26742SOL    HW298219   8.596   5.134   2.376  0.9132 -0.1522  0.2368
26743SOL     OW98220   4.320   6.668   3.158 -0.0562  0.0274 -0.1462
26743SOL    HW198221   4.377   6.677   3.082  0.3899  0.8556  0.2767
26743SOL    HW298222   4.280   6.582   3.148  0.5466 -0.1678 -0.9408
26744SOL     OW98223  10.848  12.421   2.794 -0.1476 -0.4440  0.1483
26744SOL    HW198224  10.830  12.346   2.850  2.4336 -3.7257 -2.9365
26744SOL    HW298225  10.770  12.430   2.739 -0.2294 -1.3147  0.1206
26745SOL     OW98226   4.728   5.188   8.435 -0.3412 -0.2319 -0.3628
26745SOL    HW198227   4.784   5.237   8.496 -1.2672 -0.1539  0.4525
26745SOL    HW298228   4.704   5.251   8.368  0.4897 -0.2495 -0.6787
26746SOL     OW98229  11.316   5.217   8.527 -0.2036  0.2336  0.1183
26746SOL    HW198230  11.398   5.262   8.508  0.3340 -1.0481 -0.6765
26746SOL    HW298231  11.257   5.242   8.455 -0.2297  0.4396  0.2091
26747SOL     OW98232  12.477   0.334   5.443 -0.9681 -0.4466 -0.1291
26747SOL    HW198233  12.501   0.265   5.381  0.2483  0.0209 -0.2136
26747SOL    HW298234  12.499   0.416   5.398 -3.0571  0.0649 -0.3143
26748SOL     OW98235  12.074  13.418  12.296 -0.0991  0.1946 -0.2885
26748SOL    HW198236  12.062  13.435  12.389  0.4716  1.4213 -0.4199
26748SOL    HW298237  12.003  13.468  12.254 -0.9576 -1.1376 -0.4764
26749SOL     OW98238  10.183   1.117  12.163  0.1681  0.3049 -0.4762
26749SOL    HW198239  10.103   1.079  12.198  1.4905 -1.6271  0.6402
26749SOL    HW298240  10.168   1.212  12.165 -1.2715  0.0870  1.6781
26750SOL     OW98241   0.225   4.188   8.510  0.4810 -0.0304 -0.7682
26750SOL    HW198242   0.280   4.250   8.463  1.3855 -0.2500 -0.0262
26750SOL    HW298243   0.238   4.209   8.602 -0.5861 -0.1709 -0.5714
26751SOL     OW98244   3.530  13.572   3.758  0.1893  0.7360 -0.1725
26751SOL    HW198245   3.486  13.655   3.738  1.2685  1.2796 -0.3950
26751SOL    HW298246   3.623  13.593   3.752  0.4872 -0.7829 -1.4373
26752SOL     OW98247   9.997   3.852  11.146  0.3399  0.3557 -0.7303
26752SOL    HW198248   9.913   3.811  11.125 -1.6709  1.9605  3.1775
26752SOL    HW298249   9.985   3.944  11.123  1.5249  0.4126 -1.1820
26753SOL     OW98250   0.661   6.625   8.120 -0.2519  0.1740  0.0313
26753SOL    HW198251   0.628   6.704   8.076 -0.0095 -0.0119 -0.5026
26753SOL    HW298252   0.749   6.649   8.149  0.2846 -0.2436 -1.1580
26754SOL     OW98253   6.001  13.133  11.177  0.0412 -0.7822  0.7986
26754SOL    HW198254   6.017  13.054  11.126 -0.8001 -0.7033  0.3993
26754SOL    HW298255   5.980  13.102  11.265  3.6176 -0.8686  1.7802
26755SOL     OW98256   2.723  13.523   1.081 -0.1459  0.4702  0.1019
26755SOL    HW198257   2.733  13.496   0.990  2.0495  1.2767  0.0598
26755SOL    HW298258   2.767  13.455   1.132 -1.2238  0.1055  0.5965
26756SOL     OW98259   7.787   1.079   4.565 -0.0303 -0.0584 -0.1202
26756SOL    HW198260   7.792   1.156   4.508 -0.1282  1.3151  1.6337
26756SOL    HW298261   7.838   1.103   4.642 -1.2107 -1.1885  1.0687
26757SOL     OW98262   6.375  12.041   1.960 -0.0156 -0.3503  0.3112
26757SOL    HW198263   6.377  11.946   1.974 -1.4213 -0.4250  0.1584
26757SOL    HW298264   6.362  12.051   1.866  3.1029  0.0832 -0.2078
26758SOL     OW98265   0.567   7.038   1.284  0.5073 -0.1682  0.2243
26758SOL    HW198266   0.480   7.074   1.303  0.9177  0.1261  1.6720
26758SOL    HW298267   0.594   7.083   1.204  0.2509  1.4308  0.9896
26759SOL     OW98268   0.337   2.157   7.054  0.0909 -0.4452 -0.0991
26759SOL    HW198269   0.305   2.191   6.971 -2.2629  0.3267  1.0349
26759SOL    HW298270   0.424   2.197   7.065  0.7763 -1.1500 -2.4636
26760SOL     OW98271  13.033   3.599   1.124 -0.3011 -0.3615  0.1317
26760SOL    HW198272  13.107   3.632   1.073  0.1044 -0.4146  0.6790
26760SOL    HW298273  12.985   3.544   1.063  0.9473 -1.5448  0.1747
26761SOL     OW98274   9.637   6.068  11.175  0.2836  0.5393  0.1866
26761SOL    HW198275   9.567   6.112  11.127 -1.4890 -1.7763  0.5173
26761SOL    HW298276   9.653   6.125  11.251 -2.2279  0.4800  0.8363
26762SOL     OW98277   0.592   7.402  13.524  0.0271 -0.2870  0.1726
26762SOL    HW198278   0.630   7.431  13.607 -0.2061 -0.5031  0.3554
26762SOL    HW298279   0.634   7.318  13.507  0.4544 -0.0040 -0.1883
26763SOL     OW98280   4.594   8.191  13.426 -0.0624 -0.0179  0.4614
26763SOL    HW198281   4.685   8.183  13.399 -0.5854 -1.8903 -1.0075
26763SOL    HW298282   4.552   8.238  13.354 -0.4653 -0.2399  0.5497
26764SOL     OW98283   1.270   3.019  11.574  0.2381  0.0537  0.5779
26764SOL    HW198284   1.259   2.947  11.635  0.6189 -0.7572 -0.2914
26764SOL    HW298285   1.320   3.085  11.623 -0.4858 -0.0794  1.5141
26765SOL     OW98286  13.022  14.016   7.799  0.3396 -0.4214 -0.6615
26765SOL    HW198287  13.018  13.956   7.725  1.7942  1.0419 -1.9980
26765SOL    HW298288  13.111  14.007   7.833 -0.8644 -2.5843  2.3308
26766SOL     OW98289  11.555  13.058  10.830 -0.4948  0.7484 -0.8241
26766SOL    HW198290  11.578  12.979  10.781 -2.4096 -0.3736 -0.0447
26766SOL    HW298291  11.464  13.075  10.805 -1.4936  0.2403  2.1352
26767SOL     OW98292  13.620   1.727  12.331 -0.0592  0.0084  0.2475
26767SOL    HW198293  13.604   1.636  12.355 -0.4690 -0.2376 -0.9020
26767SOL    HW298294  13.699   1.750  12.380  1.0992 -1.5357 -0.7833
26768SOL     OW98295   6.896   7.228   9.944  0.2805  0.0957 -0.9676
26768SOL    HW198296   6.973   7.186   9.982  0.4721  0.2058 -1.2284
26768SOL    HW298297   6.851   7.158   9.897  0.2030  0.0247 -0.7883
26769SOL     OW98298   3.258   4.187   6.156  0.4478 -0.4670 -0.2000
26769SOL    HW198299   3.190   4.229   6.104  1.7024  1.0116 -0.7383
26769SOL    HW298300   3.256   4.095   6.129 -0.3164 -0.1376 -1.3230
26770SOL     OW98301  10.728  11.299  12.839 -0.4158 -0.7722 -0.1448
26770SOL    HW198302  10.786  11.375  12.828  1.1392 -1.9002 -0.0634
26770SOL    HW298303  10.649  11.322  12.789  0.5973  0.3054 -1.3445
26771SOL     OW98304   7.420  10.072   0.711  0.7640 -0.1389 -0.2762
26771SOL    HW198305   7.502  10.057   0.663 -0.2739 -0.3862 -2.0793
26771SOL    HW298306   7.395  10.161   0.689  0.7483  0.0942  0.6352
26772SOL     OW98307   1.318  10.323   8.314 -0.0111  0.0843  0.6484
26772SOL    HW198308   1.288  10.340   8.224 -0.6266 -0.1636  0.8007
26772SOL    HW298309   1.249  10.269   8.352  0.4640 -0.1835  1.1353
26773SOL     OW98310  12.413  10.350   1.492  0.0607 -0.4342 -0.1914
26773SOL    HW198311  12.337  10.367   1.435 -1.4261  2.5435  2.3619
26773SOL    HW298312  12.380  10.289   1.558  0.4743 -0.6036 -0.1390
26774SOL     OW98313   4.113  13.819  13.721  0.3347  0.1435 -0.1390
26774SOL    HW198314   4.178  13.773  13.776  0.3440  0.9775  0.5752
26774SOL    HW298315   4.132  13.912  13.736 -2.1838  0.4666  1.5310
26775SOL     OW98316  11.562   0.565  11.189  0.0907  0.4167  0.2039
26775SOL    HW198317  11.488   0.626  11.188 -0.1386  0.1450  0.2340
26775SOL    HW298318  11.578   0.549  11.282 -1.6088 -1.6370  0.2331
26776SOL     OW98319   8.452   1.229   1.950  0.3573 -0.3564  0.4131
26776SOL    HW198320   8.545   1.250   1.956  0.4307 -0.6216  0.1882
26776SOL    HW298321   8.440   1.156   2.010  0.3201 -0.4150  0.3339
26777SOL     OW98322  10.912  11.652  11.147 -0.2730 -0.0085 -0.1763
26777SOL    HW198323  10.946  11.608  11.226  0.7938 -0.8228 -1.0651
26777SOL    HW298324  10.905  11.744  11.172  0.4497 -0.1892  0.7492
26778SOL     OW98325   2.780   7.121  13.720  0.6658  0.4599 -0.1067
26778SOL    HW198326   2.866   7.089  13.749  0.5055  0.4659  0.3775
26778SOL    HW298327   2.781   7.215  13.741  0.5685  0.4761 -0.1739
26779SOL     OW98328  10.105   7.743  11.432 -0.7946  0.0082  0.2310
26779SOL    HW198329  10.161   7.703  11.366 -0.3429  0.7656  0.1373
26779SOL    HW298330  10.026   7.767  11.383 -0.1321  1.3172 -0.2524
26780SOL     OW98331  12.767   3.210  10.725 -0.1154 -0.3792 -0.1282
26780SOL    HW198332  12.814   3.128  10.716  2.0451  0.7690  0.0340
26780SOL    HW298333  12.676   3.185  10.738  0.7282 -2.7682  1.6940
26781SOL     OW98334   2.661   9.381   8.388 -0.7007  0.2573 -0.2154
26781SOL    HW198335   2.577   9.426   8.391  0.0126  1.6729 -0.6200
26781SOL    HW298336   2.716   9.430   8.449  0.1318  0.0105 -0.7536
26782SOL     OW98337   9.328   0.213   5.252 -0.4487  0.1832 -0.0547
26782SOL    HW198338   9.321   0.163   5.171 -0.4598  0.2748 -0.1102
26782SOL    HW298339   9.289   0.298   5.231 -0.5611  0.1661  0.0807
26783SOL     OW98340  10.692   0.302  10.861  0.0895  0.6542  0.6234
26783SOL    HW198341  10.651   0.223  10.897  0.4307 -0.4749 -1.3072
26783SOL    HW298342  10.620   0.364  10.851 -0.9579 -0.7191 -1.1519
26784SOL     OW98343   0.290   8.025  10.077 -0.1984 -0.0116 -0.3215
26784SOL    HW198344   0.266   7.963  10.145  0.5067  0.2835  0.2072
26784SOL    HW298345   0.384   8.040  10.090 -0.2914  0.9117 -0.6442
26785SOL     OW98346   0.031   0.575   6.257  0.8280 -0.3002  0.2126
26785SOL    HW198347  -0.033   0.646   6.256  1.4285  0.4096  2.8106
26785SOL    HW298348   0.026   0.535   6.170 -1.1732  1.4462 -0.5367
26786SOL     OW98349   6.196  13.742   7.351 -0.2007 -0.3118  0.4915
26786SOL    HW198350   6.107  13.774   7.339  0.2508  1.1615  0.8550
26786SOL    HW298351   6.192  13.687   7.429 -1.0415 -1.3517 -0.2633
26787SOL     OW98352  14.051  10.478  11.311  0.1876  0.0747  0.1863
26787SOL    HW198353  14.085  10.438  11.231 -0.2130  0.4293 -0.1673
26787SOL    HW298354  13.957  10.488  11.295 -0.0254 -0.5290  0.9884
26788SOL     OW98355  10.330   3.499   5.331 -0.2643 -0.7511  0.2923
26788SOL    HW198356  10.334   3.427   5.394 -1.7975 -1.1393 -0.0029
26788SOL    HW298357  10.375   3.572   5.375 -0.9161 -1.1380  1.6646
26789SOL     OW98358   8.677   4.984  13.529 -0.1629 -0.0908 -0.0673
26789SOL    HW198359   8.767   4.953  13.535 -0.6598 -1.4275  1.1536
26789SOL    HW298360   8.656   5.014  13.617 -0.8826  0.3145 -0.3684
26790SOL     OW98361   0.249   3.022   7.452  0.0775  0.1164 -0.2161
26790SOL    HW198362   0.284   2.933   7.444 -0.8587 -0.2809 -0.0020
26790SOL    HW298363   0.154   3.010   7.456 -0.0259  1.0771  0.5471
26791SOL     OW98364   3.327   9.277   9.479  0.0318  0.5876 -1.0147
26791SOL    HW198365   3.349   9.370   9.485  3.2356 -0.1379 -0.1547
26791SOL    HW298366   3.334   9.257   9.386 -0.6326  1.1638 -1.1999
26792SOL     OW98367  12.185   9.177   9.734 -0.3232 -0.2560 -0.0396
26792SOL    HW198368  12.196   9.085   9.709  1.3221 -0.5817  1.6951
26792SOL    HW298369  12.225   9.184   9.820  0.6610  2.3737 -0.6073
26793SOL     OW98370   5.935   5.390   5.325  0.2464 -0.0075  0.5218
26793SOL    HW198371   5.940   5.386   5.229  0.5417 -0.5193  0.5563
26793SOL    HW298372   6.014   5.437   5.351  1.0944 -1.4419  0.6135
26794SOL     OW98373   3.711  11.500   4.604  0.1371  0.6066 -0.0375
26794SOL    HW198374   3.731  11.534   4.691  1.7260  0.6951 -0.4021
26794SOL    HW298375   3.665  11.418   4.620 -0.7567  1.2596  0.8608
26795SOL     OW98376   5.700   7.457  14.043 -0.6127  0.4037 -0.5615
26795SOL    HW198377   5.754   7.416  13.975  0.4106  0.7037  0.0586
26795SOL    HW298378   5.743   7.540  14.062 -0.1666 -0.2066  1.3142
26796SOL     OW98379   6.456  10.710   8.981  0.4562  0.0667  0.3489
26796SOL    HW198380   6.545  10.695   8.950  0.5063 -1.4956  1.1306
26796SOL    HW298381   6.467  10.734   9.073  0.2365  3.4410 -0.3703
26797SOL     OW98382   5.115   4.313   5.522 -0.0041  0.3554 -0.0134
26797SOL    HW198383   5.041   4.310   5.461  1.1675  0.3632 -1.4819
26797SOL    HW298384   5.094   4.385   5.581 -1.7799 -0.4741  0.4390
26798SOL     OW98385   7.109   9.366   3.304  0.1029 -0.0532  0.2479
26798SOL    HW198386   7.102   9.445   3.358  2.0752 -0.4887  1.2498
26798SOL    HW298387   7.060   9.386   3.225 -1.3476  1.3139  1.4111
26799SOL     OW98388   9.435  12.578   6.889 -0.2031  0.1505 -0.1760
26799SOL    HW198389   9.383  12.498   6.895 -0.7326  0.5519  0.7238
26799SOL    HW298390   9.393  12.629   6.820 -1.8931  1.0765  1.4507
26800SOL     OW98391   0.333   5.034   2.882 -0.5311  0.5119 -0.2917
26800SOL    HW198392   0.325   5.072   2.795 -0.5134  1.4271  0.0974
26800SOL    HW298393   0.310   5.105   2.942  0.8418  0.3143  0.5079
26801SOL     OW98394  13.607  11.899   2.659  0.4060  0.1435 -0.1728
26801SOL    HW198395  13.694  11.882   2.622  0.8351 -0.1596  0.9164
26801SOL    HW298396  13.618  11.881   2.753 -1.8787 -4.3403 -0.5161
26802SOL     OW98397  12.069   5.192   4.252  0.1720  0.5203 -0.0512
26802SOL    HW198398  12.042   5.284   4.265  0.0695  0.6270 -0.9479
26802SOL    HW298399  11.989   5.142   4.267 -0.0692  0.6810 -0.7926
26803SOL     OW98400   8.611   5.667   2.313  0.3417 -0.2402  0.1628
26803SOL    HW198401   8.687   5.617   2.284  0.7031  1.5698 -2.3299
26803SOL    HW298402   8.648   5.739   2.363  0.4467  1.1657 -1.8254
26804SOL     OW98403   1.916  11.918   9.489  0.0472  0.0357  0.0158
26804SOL    HW198404   1.999  11.965   9.495  0.0381  0.1992 -0.9454
26804SOL    HW298405   1.917  11.857   9.563  1.2180 -0.2656 -0.2248
26805SOL     OW98406   5.701  11.672  13.424  0.1137 -0.1920 -0.1043
26805SOL    HW198407   5.654  11.733  13.367 -2.0336 -0.4095  1.3463
26805SOL    HW298408   5.686  11.586  13.385 -0.0002 -0.1811 -0.0834
26806SOL     OW98409   2.016   0.582  12.192 -0.0170  0.1719 -0.2288
26806SOL    HW198410   1.982   0.500  12.156  0.1834  0.1215 -0.3050
26806SOL    HW298411   2.106   0.562  12.217 -0.5359 -0.1349  1.4516
26807SOL     OW98412  12.514   6.649  13.797 -0.1047 -0.0103  0.0015
26807SOL    HW198413  12.580   6.683  13.857  0.3503 -0.3397 -0.3097
26807SOL    HW298414  12.522   6.554  13.804 -0.3867 -0.0505 -0.2125
26808SOL     OW98415  11.409   9.862   1.912  0.0279 -0.0718  0.2172
26808SOL    HW198416  11.497   9.897   1.901  0.2403 -0.1313  1.5003
26808SOL    HW298417  11.409   9.826   2.001 -1.4381  0.3698  0.4273
26809SOL     OW98418   3.693  11.023   2.790  0.3279  0.2139  0.1193
26809SOL    HW198419   3.626  11.072   2.741 -1.8198 -1.6518  0.9728
26809SOL    HW298420   3.760  11.088   2.810 -0.8944  2.0655 -1.3803
26810SOL     OW98421  12.526   8.308   5.303 -0.7668 -0.3281  0.5136
26810SOL    HW198422  12.527   8.316   5.208  0.7015 -2.5956  0.2749
26810SOL    HW298423  12.560   8.392   5.334 -0.6367  0.2002 -0.9654
26811SOL     OW98424  13.683   9.873  10.358 -0.5842  0.0875 -0.9118
26811SOL    HW198425  13.756   9.850  10.299 -2.3046 -0.9654 -2.7731
26811SOL    HW298426  13.614   9.811  10.335 -1.7969  0.4662  1.4212
26812SOL     OW98427   7.060   3.618   7.466  1.1667  0.0244  0.2299
26812SOL    HW198428   7.106   3.559   7.525  0.7176  0.0776  0.6400
26812SOL    HW298429   6.968   3.590   7.469  0.9227  0.8146  0.5251
26813SOL     OW98430   8.058  13.807   3.865  0.5625 -0.7501  0.1137
26813SOL    HW198431   8.113  13.738   3.902  1.0226 -0.2289  0.4122
26813SOL    HW298432   7.972  13.766   3.854 -0.0161 -0.5622  3.0688
26814SOL     OW98433   8.059   0.633  11.566  0.4330  0.1324 -0.0067
26814SOL    HW198434   8.138   0.608  11.519  1.2171  1.1683  0.7274
26814SOL    HW298435   8.002   0.670  11.498  1.5411  1.5877 -0.1873
26815SOL     OW98436   6.930  13.262   5.009  0.6124  0.3223  0.3765
26815SOL    HW198437   6.954  13.355   5.016  1.0006  0.3165 -0.7572
26815SOL    HW298438   6.968  13.233   4.927 -1.7151 -0.1627 -0.6023
26816SOL     OW98439   3.106   2.111  10.245  0.8871 -0.1383  0.7990
26816SOL    HW198440   3.120   2.064  10.163  1.7485  2.1444 -0.4506
26816SOL    HW298441   3.188   2.101  10.293  0.3961 -1.4414  1.4102
26817SOL     OW98442   1.446   3.596  11.884  0.2546  0.3303  0.0061
26817SOL    HW198443   1.376   3.649  11.846  0.8652 -0.2688 -2.0713
26817SOL    HW298444   1.504   3.575  11.810  1.8146 -0.4523  1.3799
26818SOL     OW98445   8.184  12.543   6.169  0.0135 -0.2714 -0.1965
26818SOL    HW198446   8.209  12.589   6.089 -0.8069 -0.7769 -0.7701
26818SOL    HW298447   8.124  12.475   6.139 -1.0669  0.1295  0.9603
26819SOL     OW98448   5.322   2.667   9.920  0.0808  0.2914 -0.3737
26819SOL    HW198449   5.228   2.684   9.932  0.0963 -0.2771  0.7319
26819SOL    HW298450   5.345   2.610   9.994  1.2917  0.4016 -0.6494
26820SOL     OW98451  11.495  14.009   4.213  0.1230 -0.1909  0.2642
26820SOL    HW198452  11.474  14.102   4.212 -1.0097 -0.3830  2.2001
26820SOL    HW298453  11.589  14.006   4.234  0.0568  0.5119  0.6932
26821SOL     OW98454   8.266   2.278  11.066  0.0489 -0.0758  0.2460
26821SOL    HW198455   8.217   2.358  11.048  2.7161  1.7501  0.6083
26821SOL    HW298456   8.233   2.249  11.152 -1.1061  0.4578  0.0055
26822SOL     OW98457   1.862   2.916   9.342  0.7964 -0.1453  0.4800
26822SOL    HW198458   1.928   2.927   9.410  1.8076  0.3368 -0.5552
26822SOL    HW298459   1.908   2.933   9.261 -0.9578  1.7160 -0.1853
26823SOL     OW98460  12.826  12.762   6.159  0.7727 -0.4343 -0.0128
26823SOL    HW198461  12.920  12.743   6.154  0.9420  0.1116  0.9174
26823SOL    HW298462  12.821  12.857   6.167  0.2017 -0.5430  1.1028
26824SOL     OW98463   0.498  13.226   2.112  0.2568 -0.2703  0.3426
26824SOL    HW198464   0.484  13.288   2.041  0.3128 -0.1755  0.4128
26824SOL    HW298465   0.539  13.150   2.071 -0.1156 -0.3957  0.2017
26825SOL     OW98466  11.380  10.328   5.009  0.0267  0.2367  0.5668
26825SOL    HW198467  11.452  10.388   4.987 -1.1982  2.1296  1.3776
26825SOL    HW298468  11.329  10.321   4.928  0.3094  0.0921  0.4001
26826SOL     OW98469   3.739   1.630  10.880 -0.6031 -0.3772 -0.1529
26826SOL    HW198470   3.803   1.680  10.932 -0.8911  2.1086 -2.0168
26826SOL    HW298471   3.701   1.569  10.943  1.0411  0.5342  1.8724
26827SOL     OW98472   8.186   4.712  12.705 -0.1905 -0.1252 -0.2145
26827SOL    HW198473   8.098   4.698  12.670 -0.9709 -0.2073  1.6913
26827SOL    HW298474   8.244   4.672  12.640 -1.5046  0.2158 -1.6730
26828SOL     OW98475   6.972  12.898   0.763 -0.1917 -0.2400  0.3581
26828SOL    HW198476   6.956  12.991   0.746  0.2121 -0.0637  0.9261
26828SOL    HW298477   7.024  12.897   0.843  1.4365 -0.8460 -0.6575
26829SOL     OW98478   6.740   1.235  11.146 -0.1767  0.0383  0.6026
26829SOL    HW198479   6.750   1.225  11.240 -0.2132 -0.6162  0.5397
26829SOL    HW298480   6.664   1.181  11.124 -1.4160  1.7611  0.4847
26830SOL     OW98481  13.181   0.191   6.252  0.0437 -0.8018  0.1857
26830SOL    HW198482  13.264   0.150   6.278  0.5039  1.2768  2.3368
26830SOL    HW298483  13.163   0.254   6.321 -2.1940  0.4284 -1.3954
26831SOL     OW98484   5.887  13.144   3.478 -0.3887 -0.6178  0.0339
26831SOL    HW198485   5.798  13.117   3.455 -1.5971  2.2414  0.9300
26831SOL    HW298486   5.889  13.141   3.574 -0.5019  1.9012  0.1775
26832SOL     OW98487   0.537   7.250   9.376 -0.9834 -0.1376  0.0733
26832SOL    HW198488   0.464   7.189   9.365 -0.9523 -0.6340  2.1386
26832SOL    HW298489   0.526   7.285   9.465  2.0742 -1.3391  1.0601
26833SOL     OW98490  14.154   6.762  12.050  0.0291  0.4168 -0.3368
26833SOL    HW198491  14.156   6.849  12.011 -1.9971  0.6941  0.0935
26833SOL    HW298492  14.061   6.742  12.062  0.4805 -0.2931  2.8992
26834SOL     OW98493   0.920   9.297  11.027  0.1685 -0.4328 -0.0804
26834SOL    HW198494   0.934   9.208  11.061 -0.0738 -0.9144 -1.1701
26834SOL    HW298495   1.009   9.331  11.014  0.2661  0.0834  1.7774
26835SOL     OW98496  12.486   9.455   3.735  0.1620  1.2757 -0.1720
26835SOL    HW198497  12.419   9.490   3.675  1.1543  1.2899 -1.3039
26835SOL    HW298498  12.552   9.416   3.677 -0.8815 -2.6379  0.9832
26836SOL     OW98499   5.294   7.552   1.073  0.1534  0.1668  0.1751
26836SOL    HW198500   5.208   7.564   1.113 -0.0126 -0.3893  0.0042
26836SOL    HW298501   5.334   7.639   1.074 -1.0068  0.7514 -1.0967
26837SOL     OW98502  13.356  14.078   1.029  0.4198 -0.3980  0.4006
26837SOL    HW198503  13.262  14.063   1.037  0.0198  0.7369 -1.4162
26837SOL    HW298504  13.395  13.991   1.034 -0.9106 -1.0885 -0.4766
26838SOL     OW98505  10.138   0.695   2.480  0.2282 -0.2385 -0.6690
26838SOL    HW198506  10.073   0.690   2.410  1.2203  0.1336 -1.6648
26838SOL    HW298507  10.156   0.788   2.489 -0.7170 -0.1908  0.9017
26839SOL     OW98508   3.560  10.968   8.195  0.3488 -0.0526  0.1936
26839SOL    HW198509   3.565  11.034   8.264  0.2202  1.4794 -1.1942
26839SOL    HW298510   3.651  10.942   8.180  0.6103  1.1304 -0.4215
26840SOL     OW98511  12.381   1.075  11.903  0.3673 -0.5307 -0.9508
26840SOL    HW198512  12.323   1.110  11.970 -0.2248 -0.8590 -1.2842
26840SOL    HW298513  12.440   1.147  11.882  1.2048 -0.7104  0.6089
26841SOL     OW98514   4.991   0.959  13.025 -0.5108 -0.1165  0.2786
26841SOL    HW198515   4.939   0.926  13.099 -0.9126  1.1658  0.5875
26841SOL    HW298516   5.072   0.990  13.065 -1.1083  1.4457  0.3450
26842SOL     OW98517   0.376   2.183   1.027  0.1466  0.1341  0.1582
26842SOL    HW198518   0.378   2.168   1.122  1.7870 -0.5078  0.0549
26842SOL    HW298519   0.358   2.097   0.990  1.7251 -0.0716 -0.1746
26843SOL     OW98520   3.883   2.194   0.811  0.0072 -0.4061 -0.4235
26843SOL    HW198521   3.965   2.204   0.762 -0.4529 -0.4938 -1.2338
26843SOL    HW298522   3.906   2.138   0.885  0.8118  0.0598 -0.3048
26844SOL     OW98523   5.376   0.165  11.901 -0.5570  0.2851  0.1027
26844SOL    HW198524   5.429   0.244  11.901 -0.7555  0.4401  1.4997
26844SOL    HW298525   5.370   0.139  11.993  0.9192 -2.3395 -0.4370
26845SOL     OW98526   5.663  13.372   2.455 -0.7736  0.5081 -0.0292
26845SOL    HW198527   5.701  13.316   2.387  0.1087  1.1240 -0.0608
26845SOL    HW298528   5.589  13.321   2.489 -0.4321 -0.3668 -0.5502
26846SOL     OW98529   5.696   3.060   0.569 -0.0876  0.0829 -0.4579
26846SOL    HW198530   5.615   3.052   0.620  0.9260 -0.4286  1.1263
26846SOL    HW298531   5.681   3.136   0.512 -2.2126 -0.8287 -1.2420
26847SOL     OW98532   9.101   6.062   7.591  0.2146  0.0612 -0.5262
26847SOL    HW198533   9.132   6.127   7.527 -0.5186  0.1595 -0.7846
26847SOL    HW298534   9.009   6.051   7.571  0.3518 -1.1333 -0.5337
26848SOL     OW98535   0.082  12.254   1.360 -0.1176 -0.4544 -0.1915
26848SOL    HW198536   0.034  12.209   1.291  1.5157 -2.3868 -0.1780
26848SOL    HW298537   0.170  12.266   1.324  0.1034  0.7274  0.6818
26849SOL     OW98538   6.427   3.244   7.162  0.4631 -0.5538  0.1849
26849SOL    HW198539   6.379   3.326   7.171 -0.5987 -1.2251  0.8278
26849SOL    HW298540   6.499   3.251   7.225 -0.1748 -0.4924  0.9231
26850SOL     OW98541  11.883   7.108   1.818  0.5710  0.3478  0.0282
26850SOL    HW198542  11.797   7.092   1.858 -0.5507 -0.4026 -2.4731
26850SOL    HW298543  11.905   7.197   1.845 -1.2984  0.7950  0.2515
26851SOL     OW98544   5.208   8.906  12.323 -0.4576 -0.1406  0.2957
26851SOL    HW198545   5.155   8.906  12.243 -1.1034 -2.9083  0.6016
26851SOL    HW298546   5.196   8.993  12.360 -1.5940  0.6085 -1.6968
26852SOL     OW98547  11.906  12.117   5.751  0.6844 -0.3891  0.0233
26852SOL    HW198548  11.811  12.128   5.757  0.6117 -1.2851  0.7832
26852SOL    HW298549  11.935  12.188   5.694 -0.6022 -0.8767 -1.3067
26853SOL     OW98550   5.559   0.035   9.363 -0.0405  0.0174  0.8175
26853SOL    HW198551   5.561   0.130   9.351 -2.2960  0.3640  2.4993
26853SOL    HW298552   5.650   0.008   9.359  0.4891  1.8143 -2.4406
26854SOL     OW98553  11.540  10.919   5.381 -0.3520  0.3274  0.3618
26854SOL    HW198554  11.549  10.838   5.332  1.5716  0.5708  0.2461
26854SOL    HW298555  11.530  10.987   5.315 -1.6163  0.2544  0.4509
26855SOL     OW98556  12.247   3.827  10.718 -0.0466  0.2395 -0.2216
26855SOL    HW198557  12.331   3.788  10.743 -0.1520 -0.6200 -1.1301
26855SOL    HW298558  12.183   3.782  10.774 -0.1583 -0.8903 -1.2073
26856SOL     OW98559   0.899   2.769   8.355  0.2251 -0.2691 -0.5800
26856SOL    HW198560   0.894   2.758   8.450  0.6414  1.8021 -0.2805
26856SOL    HW298561   0.983   2.730   8.331  0.4212 -0.2051 -0.0104
26857SOL     OW98562   2.341   0.941   6.567  0.6071  0.5028 -0.1555
26857SOL    HW198563   2.338   0.912   6.476 -2.6431  0.6716 -0.2173
26857SOL    HW298564   2.307   0.866   6.617  0.3961  1.1283  0.6660
26858SOL     OW98565  12.743  10.883   9.572 -0.4004  0.4187  0.7107
26858SOL    HW198566  12.716  10.917   9.657  0.1448 -1.3778  1.6510
26858SOL    HW298567  12.830  10.846   9.586  0.7001  2.0919 -1.1994
26859SOL     OW98568   5.918  10.537  10.193  0.4679 -0.0099  0.7564
26859SOL    HW198569   5.881  10.459  10.150 -0.0228  0.9894 -0.7039
26859SOL    HW298570   5.990  10.563  10.137 -0.0615  1.2198  0.6164
26860SOL     OW98571  11.753   1.362  12.052 -0.2849 -0.0311 -0.4041
26860SOL    HW198572  11.794   1.448  12.048  0.5730 -0.4720 -1.4837
26860SOL    HW298573  11.817   1.307  12.097  0.3975 -0.7540 -2.2024
26861SOL     OW98574  13.246   0.583   0.900  0.2366 -0.3799 -0.2257
26861SOL    HW198575  13.315   0.647   0.916  0.0446 -0.6456  1.9493
26861SOL    HW298576  13.286   0.519   0.842  1.3856  0.1461 -0.0491
26862SOL     OW98577   5.912   4.297   2.514 -0.1293 -0.1386 -0.3456
26862SOL    HW198578   5.954   4.280   2.598 -3.4701 -0.8140  1.4023
26862SOL    HW298579   5.828   4.251   2.521 -1.1489  1.0199 -3.4969
26863SOL     OW98580   6.922   3.236  14.141 -0.0136 -0.1844  0.4431
26863SOL    HW198581   6.833   3.244  14.107  0.6701  2.9144 -1.0410
26863SOL    HW298582   6.978   3.267  14.070  1.8527  2.2659  2.7423
26864SOL     OW98583   6.187   5.784  13.374 -0.3616  0.5535 -0.0623
26864SOL    HW198584   6.125   5.798  13.303 -0.5164 -0.2661 -0.1048
26864SOL    HW298585   6.268   5.825  13.343  0.0340 -1.1257 -1.4330
26865SOL     OW98586   2.992  11.501  10.038  0.0795  0.3376 -0.5251
26865SOL    HW198587   2.965  11.460  10.120  0.8413 -0.1736 -0.5180
26865SOL    HW298588   3.088  11.505  10.044  0.0635  1.7248 -0.7112
26866SOL     OW98589  13.876   0.883   8.975  0.9705 -0.0891  0.5554
26866SOL    HW198590  13.846   0.938   9.047 -0.5174 -1.4696  1.0459
26866SOL    HW298591  13.822   0.909   8.901 -0.0517 -1.1306  0.9008
26867SOL     OW98592  10.328   0.242   8.286 -0.3826 -0.5899 -0.1766
26867SOL    HW198593  10.257   0.255   8.223  0.0276 -0.7914 -0.6851
26867SOL    HW298594  10.392   0.188   8.240  0.5914  0.4546 -0.0984
26868SOL     OW98595   4.539   3.278  13.852  0.3341  0.1726 -0.2572
26868SOL    HW198596   4.493   3.323  13.782  0.3363  0.2040 -0.2380
26868SOL    HW298597   4.557   3.191  13.817  3.7993  1.3598 -1.8344
26869SOL     OW98598  12.446   7.933   5.317  0.6199 -0.1371 -0.3888
26869SOL    HW198599  12.504   7.942   5.392  0.4723 -1.8226 -0.0461
26869SOL    HW298600  12.361   7.963   5.348  0.5301 -0.9509  0.1720
26870SOL     OW98601   1.274   3.123   3.530 -0.1111  0.1621  0.0711
26870SOL    HW198602   1.278   3.109   3.625 -0.8576  1.8228  0.3819
26870SOL    HW298603   1.324   3.050   3.493 -0.7534 -1.1472  1.6707
26871SOL     OW98604  10.341  12.565   8.927 -0.4764 -0.8427 -0.5129
26871SOL    HW198605  10.387  12.637   8.970 -0.7139 -0.6823 -0.5236
26871SOL    HW298606  10.395  12.543   8.852  0.3314 -1.6219  0.2763
26872SOL     OW98607   2.861   4.674   4.919 -0.2151 -0.3798  0.1095
26872SOL    HW198608   2.897   4.711   4.838  1.6906 -2.5297 -0.1103
26872SOL    HW298609   2.845   4.751   4.974 -0.3328  1.0502 -1.7901
26873SOL     OW98610  13.735  11.431   1.250  0.4762 -0.4758 -0.5952
26873SOL    HW198611  13.725  11.507   1.307  0.1037  0.6790 -2.1311
26873SOL    HW298612  13.744  11.468   1.162 -2.1210 -2.2377 -1.7402
26874SOL     OW98613   8.484   4.489   2.133 -1.0119  0.4181 -0.6661
26874SOL    HW198614   8.516   4.501   2.043  0.9541 -1.6441 -0.3194
26874SOL    HW298615   8.468   4.395   2.141  2.2107 -0.0987  2.0696
26875SOL     OW98616   8.558   7.662   8.189  0.4376  0.1875  0.0451
26875SOL    HW198617   8.618   7.725   8.149  1.2808 -0.9798 -0.5916
26875SOL    HW298618   8.482   7.661   8.131  0.3200  0.7913  0.1882
26876SOL     OW98619   7.498   2.581  11.143 -0.0042 -0.0877 -0.3163
26876SOL    HW198620   7.422   2.639  11.150  1.1544  1.6825 -1.5784
26876SOL    HW298621   7.484   2.514  11.210 -2.9196 -0.1533 -0.8613
26877SOL     OW98622   3.543  10.255   0.035  0.1525 -0.0284 -0.3671
26877SOL    HW198623   3.538  10.338  -0.013 -0.2762  0.4745  0.5141
26877SOL    HW298624   3.589  10.196  -0.024 -0.8292  0.4102 -1.6312
26878SOL     OW98625   9.247   7.226   2.211 -0.4561  0.1097  0.1490
26878SOL    HW198626   9.242   7.150   2.270 -1.0675 -0.2048 -0.2908
26878SOL    HW298627   9.245   7.302   2.269 -0.7324 -0.2002  0.5531
26879SOL     OW98628   5.054   9.058   1.660 -0.6359 -0.2421 -0.3995
26879SOL    HW198629   4.963   9.034   1.677 -0.3485 -1.5514 -0.5757
26879SOL    HW298630   5.049   9.127   1.593 -1.5066  0.0098 -0.0851
26880SOL     OW98631  12.782  13.323   2.604  0.4450  0.3563  0.1952
26880SOL    HW198632  12.868  13.364   2.593 -0.1386  1.6544  0.4090
26880SOL    HW298633  12.786  13.245   2.548  1.6266  0.5973 -0.0789
26881SOL     OW98634   0.304   4.910   1.840 -0.0224  0.0610  0.8249
26881SOL    HW198635   0.251   4.861   1.902 -1.2375 -0.4672 -0.5572
26881SOL    HW298636   0.268   4.999   1.842  0.5356  0.2834  1.5027
26882SOL     OW98637  10.520   9.225   7.984 -0.1854  0.1149 -0.7685
26882SOL    HW198638  10.487   9.315   7.993  1.1481  0.4385  1.5876
26882SOL    HW298639  10.451   9.170   8.021  0.4890  0.5357  1.2489
26883SOL     OW98640   0.267  10.458  13.426  0.4151  0.0897  0.3958
26883SOL    HW198641   0.295  10.521  13.359  1.7474  0.1955  1.0229
26883SOL    HW298642   0.246  10.512  13.502  0.3744 -0.1379  0.5469
26884SOL     OW98643  12.711   3.835   8.450  0.1116  0.1766 -0.2861
26884SOL    HW198644  12.737   3.919   8.486  0.4696 -0.0377 -0.0345
26884SOL    HW298645  12.643   3.803   8.510  0.5158 -0.0575  0.0517
26885SOL     OW98646  10.976   0.971   5.776  0.4016 -0.3005  0.3269
26885SOL    HW198647  11.036   1.046   5.776 -0.8283  0.7512 -1.3718
26885SOL    HW298648  10.985   0.933   5.689 -0.1878 -1.1438  0.6224
26886SOL     OW98649   1.894  12.627  10.616  0.0781 -0.0597  0.3646
26886SOL    HW198650   1.883  12.661  10.705  1.5557 -1.9192  1.3355
26886SOL    HW298651   1.980  12.659  10.589 -0.7803  1.3444 -0.8579
26887SOL     OW98652  10.282   1.825   4.102  0.5531 -0.4025  0.3370
26887SOL    HW198653  10.285   1.755   4.037 -0.4273 -0.9998  0.9112
26887SOL    HW298654  10.327   1.899   4.060 -0.0739 -0.7676 -1.0264
26888SOL     OW98655  10.247   2.696   3.275  0.2176 -0.1261 -0.2569
26888SOL    HW198656  10.342   2.686   3.263  0.4469 -1.5693  1.9732
26888SOL    HW298657  10.239   2.751   3.353 -0.8519  1.0212 -1.1368
26889SOL     OW98658  11.099   3.687   3.447  0.0676  0.0327  0.2684
26889SOL    HW198659  11.158   3.627   3.493 -0.3448  0.2826  1.1449
26889SOL    HW298660  11.130   3.687   3.357  1.4939  0.2565  0.7358
26890SOL     OW98661   3.679   4.826   1.052 -0.5006  0.8080  0.4337
26890SOL    HW198662   3.688   4.787   1.139  2.7153 -0.6886 -0.4405
26890SOL    HW298663   3.708   4.757   0.991 -1.2815  2.2911 -1.7388
26891SOL     OW98664   6.027   8.998   7.291  0.2186 -0.2767  0.9284
26891SOL    HW198665   6.020   8.915   7.340 -1.9918 -1.0490 -0.5613
26891SOL    HW298666   5.937   9.027   7.280  0.6080  0.0704 -2.2556
26892SOL     OW98667   8.296   9.869   8.858  0.5753 -0.8821  0.3213
26892SOL    HW198668   8.262   9.812   8.927  0.0221 -0.0961  0.7111
26892SOL    HW298669   8.224   9.877   8.796  0.8400 -1.0499 -0.0049
26893SOL     OW98670   3.139   0.482   8.347 -0.1769  0.1976 -0.5293
26893SOL    HW198671   3.109   0.408   8.295  1.0836 -0.2585 -0.6482
26893SOL    HW298672   3.062   0.510   8.396 -0.4127 -1.9906  0.4570
26894SOL     OW98673   8.584   4.016  11.509  0.1930  0.7220  0.2466
26894SOL    HW198674   8.504   3.976  11.475  0.9584 -1.5912  1.0344
26894SOL    HW298675   8.565   4.031  11.602  0.0385  1.9470  0.0342
26895SOL     OW98676  11.740   3.717  11.390  0.5077  0.1477 -0.0933
26895SOL    HW198677  11.765   3.694  11.480 -0.8325 -0.1057  0.2387
26895SOL    HW298678  11.671   3.655  11.368 -0.1131  1.0564 -0.8034
26896SOL     OW98679   2.394   5.892   9.969 -0.6465  0.0362 -0.4158
26896SOL    HW198680   2.351   5.965  10.012 -0.7461  0.5781 -1.4166
26896SOL    HW298681   2.471   5.875  10.023  0.3686  2.0567 -1.1052
26897SOL     OW98682   4.341   5.007   3.568  0.0877  0.0830 -0.0178
26897SOL    HW198683   4.256   4.980   3.533  0.4901 -0.4655 -0.6088
26897SOL    HW298684   4.382   5.055   3.496  0.7133 -0.6024 -0.1414
26898SOL     OW98685  13.180   0.086   7.383  0.3660  0.3658  0.0773
26898SOL    HW198686  13.105   0.042   7.422  0.4812  0.0833 -0.0171
26898SOL    HW298687  13.144   0.166   7.345  0.4107  1.1999  1.6786
26899SOL     OW98688  11.923  13.658   8.496  0.0485 -0.0951  0.3164
26899SOL    HW198689  11.838  13.703   8.494 -0.1306 -0.2926  2.0797
26899SOL    HW298690  11.987  13.727   8.512  0.2479  0.0404 -0.9240
26900SOL     OW98691   7.103   1.943   9.150  0.0327 -0.4490 -0.3097
26900SOL    HW198692   7.041   1.875   9.122  1.5303 -1.9665 -0.0346
26900SOL    HW298693   7.144   1.908   9.228  1.1555  0.5973 -0.4077
26901SOL     OW98694   2.453   8.625   1.247  0.2261  0.1988 -0.0407
26901SOL    HW198695   2.429   8.718   1.251 -2.5616 -0.4557  1.1167
26901SOL    HW298696   2.486   8.612   1.158 -0.8192  2.0062 -0.7342
26902SOL     OW98697   4.570   5.799   1.868 -0.4541  0.3690 -0.8244
26902SOL    HW198698   4.589   5.723   1.923  1.3013 -0.2626 -2.2107
26902SOL    HW298699   4.646   5.806   1.810 -1.2993  2.2497 -1.7732
26903SOL     OW98700   2.123   5.990   2.891  0.0566  0.1821  0.5499
26903SOL    HW198701   2.205   6.025   2.856 -0.3794  0.0931 -0.5857
26903SOL    HW298702   2.099   6.050   2.961  0.4276  0.9356  0.0406
26904SOL     OW98703  10.102  12.775   2.167  0.1194 -0.1318 -0.5570
26904SOL    HW198704  10.075  12.683   2.171  0.6932 -0.2934 -0.2829
26904SOL    HW298705  10.160  12.786   2.242  2.1152 -0.2165 -2.0167
26905SOL     OW98706   9.012   1.293   1.258 -0.1163  0.5963  0.6061
26905SOL    HW198707   9.051   1.260   1.339  1.6822 -1.6359 -1.0204
26905SOL    HW298708   8.933   1.241   1.246  0.4914 -0.2548  0.1592
26906SOL     OW98709  13.358   6.250   8.160 -0.5787  0.3738 -0.4642
26906SOL    HW198710  13.348   6.327   8.217  0.3855 -0.0076  0.2400
26906SOL    HW298711  13.270   6.213   8.155 -0.6532  0.2916  0.9806
26907SOL     OW98712   4.171  10.349  12.286  0.2327 -0.2852  0.1651
26907SOL    HW198713   4.182  10.255  12.272 -0.4492 -0.2478 -0.7123
26907SOL    HW298714   4.099  10.356  12.349 -0.7761 -0.3367 -0.9452
26908SOL     OW98715   6.113  13.846   1.227 -0.1299  0.3140  0.0329
26908SOL    HW198716   6.184  13.824   1.167 -2.2895 -1.8061 -1.9606
26908SOL    HW298717   6.140  13.808   1.311  0.2231 -2.4374 -1.2186
26909SOL     OW98718   4.034   8.754   4.367 -0.2707  0.0297 -0.0472
26909SOL    HW198719   4.098   8.818   4.398  0.4124 -0.1483 -1.0305
26909SOL    HW298720   3.960   8.762   4.428  0.6796  0.2360  1.1083
26910SOL     OW98721   2.396   5.101  12.649 -0.4065  0.3682  0.0190
26910SOL    HW198722   2.380   5.085  12.742  1.6143 -1.0738  0.1804
26910SOL    HW298723   2.363   5.023  12.604  0.2791  0.2419 -0.2777
26911SOL     OW98724   8.129  11.720  13.762  0.4477 -0.1984 -0.2448
26911SOL    HW198725   8.152  11.788  13.825  0.9727 -1.2233  0.7096
26911SOL    HW298726   8.034  11.713  13.768  0.5484 -0.8616  1.0983
26912SOL     OW98727   6.992   0.602   1.204 -0.2185 -0.4576  0.2068
26912SOL    HW198728   6.896   0.605   1.202 -0.2029  0.9115  0.5405
26912SOL    HW298729   7.017   0.671   1.265  0.9869 -0.8465  0.1780
26913SOL     OW98730   5.551   4.867  13.301  0.0004 -0.6150  0.1247
26913SOL    HW198731   5.477   4.821  13.340  0.3501 -0.5061  0.9218
26913SOL    HW298732   5.525   4.880  13.210 -0.3122 -1.9419  0.0073
26914SOL     OW98733   4.079  11.559   2.161  0.4134  0.6095 -0.0047
26914SOL    HW198734   4.024  11.603   2.226  0.3978  0.6122 -0.0202
26914SOL    HW298735   4.040  11.472   2.152 -0.2852  0.9972 -0.8779
26915SOL     OW98736  10.959   8.548   5.993 -0.0923  0.1684 -0.3594
26915SOL    HW198737  10.952   8.461   5.954 -0.2188  0.3141 -0.6673
26915SOL    HW298738  10.879   8.593   5.965 -0.5146  0.0615  0.6197
26916SOL     OW98739   9.636   7.576  13.402  0.0270  0.0148  0.1653
26916SOL    HW198740   9.729   7.584  13.424  0.8850  2.4156 -3.3404
26916SOL    HW298741   9.590   7.624  13.471  1.5027 -0.1901  1.3345
26917SOL     OW98742   6.944   0.062  11.482  0.3695 -0.6527 -0.3745
26917SOL    HW198743   6.957  -0.017  11.429 -1.6853 -0.4974 -1.2218
26917SOL    HW298744   6.876   0.038  11.544 -0.2309  0.4126 -0.5943
26918SOL     OW98745   4.057   8.571  10.771  0.1335 -0.3118 -0.5065
26918SOL    HW198746   4.018   8.502  10.716  0.3293 -1.1787  0.4104
26918SOL    HW298747   4.133   8.529  10.811  0.7538  0.7115 -0.5908
26919SOL     OW98748   5.963   8.022   4.438  0.9157  0.1264  0.2396
26919SOL    HW198749   5.993   8.038   4.349 -0.3515  1.3194 -0.0144
26919SOL    HW298750   6.038   8.044   4.493  1.0360  1.5465 -0.4425
26920SOL     OW98751   3.027   7.040  13.756  0.0659  0.0837  0.0055
26920SOL    HW198752   3.045   6.954  13.795 -1.7128  0.0306  0.8222
26920SOL    HW298753   3.079   7.101  13.807 -0.8059 -0.2095  1.2777
26921SOL     OW98754   9.757   2.744   1.006  0.4259 -0.4817 -0.2289
26921SOL    HW198755   9.683   2.691   0.976  0.3537 -0.5239  0.0267
26921SOL    HW298756   9.734   2.833   0.981 -0.4244 -0.2706  1.2262
26922SOL     OW98757  11.333   0.012   3.135 -0.1263 -0.1281 -0.0016
26922SOL    HW198758  11.382  -0.070   3.135  1.2298  0.6206 -1.4865
26922SOL    HW298759  11.340   0.045   3.046 -2.3324  0.6632  0.0360
26923SOL     OW98760   5.968   0.803   5.593 -0.3421  0.0736 -0.0985
26923SOL    HW198761   5.897   0.841   5.645 -0.9042  0.9022 -1.4001
26923SOL    HW298762   5.962   0.848   5.509 -0.0271 -1.8125 -1.1932
26924SOL     OW98763  10.692   7.155   8.238  0.5204 -0.3870  0.2384
26924SOL    HW198764  10.730   7.067   8.237  2.4424  0.4199 -0.5018
26924SOL    HW298765  10.722   7.195   8.157  2.8602  2.2442  2.2443
26925SOL     OW98766   6.565   0.346   6.003  0.3023 -0.1649  0.5939
26925SOL    HW198767   6.576   0.346   6.098 -0.7335 -0.5767  0.7322
26925SOL    HW298768   6.582   0.255   5.977  0.5302 -0.0647  0.3857
26926SOL     OW98769   4.121   5.718   6.345 -0.1694  0.0590  0.2086
26926SOL    HW198770   4.120   5.797   6.291  1.8837 -0.0890 -0.1055
26926SOL    HW298771   4.208   5.716   6.384 -0.4583 -1.6272  0.8614
26927SOL     OW98772   6.817  11.814   8.879 -0.0272 -0.2827 -0.3065
26927SOL    HW198773   6.859  11.896   8.854 -0.5015 -0.3979 -1.5450
26927SOL    HW298774   6.840  11.752   8.810  0.2131 -1.1742  0.5416
26928SOL     OW98775   6.247   0.292  13.909  0.3450 -1.0083 -0.0580
26928SOL    HW198776   6.280   0.213  13.867  1.0574 -1.1395  0.7198
26928SOL    HW298777   6.281   0.364  13.856 -1.3490 -1.2222 -1.5107
26929SOL     OW98778   4.481   0.292   7.438  0.0279  0.1890 -0.0482
26929SOL    HW198779   4.552   0.244   7.481 -1.1070 -1.8031 -0.2835
26929SOL    HW298780   4.526   0.342   7.369  1.1271 -2.1977 -1.2030
26930SOL     OW98781   1.800  10.792   6.360 -0.3769 -0.3065 -0.1240
26930SOL    HW198782   1.875  10.800   6.301  0.2727  1.4112  0.8718
26930SOL    HW298783   1.766  10.704   6.344  0.6554 -0.4081 -1.9927
26931SOL     OW98784   6.337  13.385  12.010 -0.1148  0.1508 -0.1420
26931SOL    HW198785   6.375  13.449  11.950 -0.0174  0.8251  0.6220
26931SOL    HW298786   6.346  13.425  12.096 -0.0693 -0.8876  0.3507
26932SOL     OW98787   7.036  11.598   1.053 -0.2536 -0.1964  0.0747
26932SOL    HW198788   7.030  11.564   1.142 -1.6863  1.1138  0.5182
26932SOL    HW298789   7.053  11.691   1.064  1.4381 -0.3273 -1.0784
26933SOL     OW98790  11.088   7.317   2.094 -0.7028 -0.0534  0.0502
26933SOL    HW198791  11.162   7.346   2.041 -1.5438 -0.5290 -1.4473
26933SOL    HW298792  11.057   7.397   2.136  0.4977  0.1913  0.5117
26934SOL     OW98793  10.609   3.941  13.329  0.5693  0.0151  0.3768
26934SOL    HW198794  10.573   4.003  13.392  0.0128  0.0029  0.0853
26934SOL    HW298795  10.611   3.857  13.375 -0.0429 -0.0391  0.3150
26935SOL     OW98796   7.161  11.775   0.398 -0.0298 -0.0993 -0.6914
26935SOL    HW198797   7.126  11.754   0.312  0.4795 -0.5799 -0.7889
26935SOL    HW298798   7.241  11.824   0.380 -0.9293  1.5307 -0.4674
26936SOL     OW98799  13.926   8.649   7.624 -0.0228  0.2137 -0.3001
26936SOL    HW198800  13.943   8.567   7.577 -0.0287 -0.3384  0.6475
26936SOL    HW298801  13.842   8.679   7.591 -0.2014 -0.3605 -0.3672
26937SOL     OW98802  12.596   4.078  11.313  0.1752  0.1027  0.6663
26937SOL    HW198803  12.567   4.108  11.227  0.2964 -1.5449  0.0163
26937SOL    HW298804  12.515   4.054  11.358 -0.1047  2.9315  1.8750
26938SOL     OW98805  11.753  13.537   5.204 -0.4088 -0.0144 -0.1857
26938SOL    HW198806  11.724  13.492   5.124 -2.3376 -0.2174  0.5686
26938SOL    HW298807  11.704  13.495   5.274  3.3969 -1.9426  1.6519
26939SOL     OW98808  11.820   2.165  12.349 -0.1508 -0.4303  0.1629
26939SOL    HW198809  11.817   2.069  12.352  0.9858 -0.4731  0.5321
26939SOL    HW298810  11.882   2.185  12.278  0.1121  0.0157  0.5127
26940SOL     OW98811  11.574   7.112   8.674 -0.0189 -0.1065  0.1692
26940SOL    HW198812  11.488   7.152   8.656 -0.5313 -0.8701  0.8322
26940SOL    HW298813  11.569   7.086   8.766  1.4308  1.0523  0.6161
26941SOL     OW98814   3.069   3.566   6.753  0.2051 -0.0065  0.0943
26941SOL    HW198815   3.083   3.482   6.710  2.0604  0.2594  0.0913
26941SOL    HW298816   2.974   3.571   6.768  0.0117 -1.8365 -0.3926
26942SOL     OW98817   7.632   0.050   0.403  0.2871  0.8948 -0.4271
26942SOL    HW198818   7.559   0.104   0.371 -0.6840  0.1687  0.4697
26942SOL    HW298819   7.659   0.092   0.484 -0.4299  0.1044  0.2408
26943SOL     OW98820   3.434   2.246   0.880 -0.0708 -0.5310  0.6083
26943SOL    HW198821   3.458   2.254   0.972  1.8442 -0.9357  0.1883
26943SOL    HW298822   3.506   2.288   0.832 -1.3899  0.3563 -0.6961
26944SOL     OW98823  10.869   2.042   6.125 -0.2151  0.4971  0.2812
26944SOL    HW198824  10.961   2.062   6.142  0.4198 -1.8848  0.0555
26944SOL    HW298825  10.858   2.057   6.031  0.1215  0.2457  0.1978
26945SOL     OW98826   0.370   4.962   5.168 -0.1065 -0.7027  0.0770
26945SOL    HW198827   0.315   4.898   5.212 -0.1288 -1.3315 -0.8378
26945SOL    HW298828   0.312   5.003   5.104 -0.2185  0.5730  0.9524
26946SOL     OW98829  13.861   7.888   8.293 -0.0745 -0.4325  0.3236
26946SOL    HW198830  13.830   7.945   8.363  0.3561  2.2378 -1.5126
26946SOL    HW298831  13.940   7.930   8.260 -0.7036 -1.0725 -2.2725
26947SOL     OW98832   3.497   5.069  11.301 -0.1419  0.5136 -0.0216
26947SOL    HW198833   3.573   5.120  11.272 -1.1220  1.4539 -1.0276
26947SOL    HW298834   3.534   5.004  11.361  1.4325  1.0406 -0.3582
26948SOL     OW98835  13.136  13.089   6.333 -0.8917  0.3828 -0.1635
26948SOL    HW198836  13.189  13.010   6.338 -0.9847  0.3330  0.0140
26948SOL    HW298837  13.072  13.070   6.265  0.0105  0.8561 -1.1790
26949SOL     OW98838  10.888  13.709   0.797 -0.4386  0.4338 -0.0698
26949SOL    HW198839  10.823  13.640   0.807  1.2132 -1.0353  1.0191
26949SOL    HW298840  10.900  13.744   0.886  0.3476  0.5718 -0.2185
26950SOL     OW98841  13.835  11.503   2.043 -0.0949  0.0854 -0.1127
26950SOL    HW198842  13.815  11.480   1.952  0.2830 -1.6648  0.2022
26950SOL    HW298843  13.750  11.502   2.087 -0.1059 -0.6110 -0.1409
26951SOL     OW98844   7.780   5.299  11.188 -0.3031 -0.5695 -0.1142
26951SOL    HW198845   7.744   5.322  11.102 -0.2614 -1.1289 -0.2855
26951SOL    HW298846   7.771   5.204  11.193  0.6331 -0.6541  0.0746
26952SOL     OW98847   0.800  12.831   2.893 -0.2939  0.0127  0.5030
26952SOL    HW198848   0.755  12.899   2.943 -1.3959 -1.8825  2.2669
26952SOL    HW298849   0.889  12.864   2.883  0.0306  0.5485  3.8547
26953SOL     OW98850   8.672   0.046  12.100 -0.4198 -0.1609  0.1094
26953SOL    HW198851   8.632   0.092  12.173  0.3286 -0.3089  0.6240
26953SOL    HW298852   8.653  -0.047  12.117  0.4043 -0.2594  0.5302
26954SOL     OW98853   1.408   1.657   0.273  0.2021  0.2953  0.1932
26954SOL    HW198854   1.477   1.593   0.253 -0.2863  0.1126 -1.0331
26954SOL    HW298855   1.379   1.688   0.187  0.8030  2.6067  0.7834
26955SOL     OW98856  10.368   7.933  13.846  0.0665 -0.2318  0.1450
26955SOL    HW198857  10.302   8.001  13.833  0.9604  0.7018  0.3739
26955SOL    HW298858  10.400   7.947  13.935 -0.0061 -1.2029  0.3297
26956SOL     OW98859   8.446  12.419   0.596  0.0696  0.3204  0.6570
26956SOL    HW198860   8.510  12.409   0.525 -0.6206 -0.2305  0.1009
26956SOL    HW298861   8.393  12.494   0.570 -0.6875 -0.3649  0.1836
26957SOL     OW98862   7.804   6.774   6.631  0.1815 -0.3031  0.5426
26957SOL    HW198863   7.793   6.753   6.539  1.3889 -1.7800  0.6978
26957SOL    HW298864   7.725   6.822   6.654 -0.5483 -0.6805 -1.0347
26958SOL     OW98865  11.947   8.172  11.629  0.3472 -0.0993  0.1488
26958SOL    HW198866  11.914   8.253  11.589  1.4048 -0.2232 -1.0785
26958SOL    HW298867  12.042   8.176  11.614  0.5872 -0.9109  1.3397
26959SOL     OW98868  13.582   0.309   8.531  0.1173  0.4166 -0.2156
26959SOL    HW198869  13.501   0.335   8.489  0.6614 -1.2338 -2.5111
26959SOL    HW298870  13.651   0.335   8.469  1.3519  1.2418  1.3929
26960SOL     OW98871   9.668  12.047   1.730 -0.4305 -0.4587 -0.1211
26960SOL    HW198872   9.648  12.048   1.823  0.9149  2.7180  0.2618
26960SOL    HW298873   9.719  11.968   1.717 -0.1767 -0.6819  1.9518
26961SOL     OW98874  11.979   9.316   5.857 -0.6165 -0.1779 -0.1549
26961SOL    HW198875  12.020   9.402   5.846  1.3656 -1.0603 -0.2628
26961SOL    HW298876  11.919   9.327   5.930  1.8309  0.6308  1.8990
26962SOL     OW98877  13.041   0.458   4.324 -0.2347 -0.1835  0.1774
26962SOL    HW198878  13.108   0.491   4.264 -0.1824 -0.2868  0.1791
26962SOL    HW298879  12.961   0.506   4.300  0.0340  0.5604  0.7363
26963SOL     OW98880   6.917   1.650   8.523 -0.0268  0.1639 -0.1952
26963SOL    HW198881   6.905   1.635   8.429 -2.0277 -1.3709  0.2371
26963SOL    HW298882   6.861   1.725   8.543  0.4564  0.5375 -0.2296
26964SOL     OW98883  11.817   3.693   7.166  0.4625 -0.2402 -0.3500
26964SOL    HW198884  11.821   3.736   7.252  1.3681  0.6688 -0.8234
26964SOL    HW298885  11.898   3.719   7.123 -0.5792  0.4283 -1.9974
26965SOL     OW98886  10.199   3.133   6.576  0.1288  0.2714 -1.0704
26965SOL    HW198887  10.162   3.046   6.586 -0.5253  0.4843 -1.5841
26965SOL    HW298888  10.258   3.143   6.651 -1.4758  0.2400  0.2421
26966SOL     OW98889  12.584   2.211   8.116 -0.0786  0.0772  0.3161
26966SOL    HW198890  12.552   2.148   8.051  1.9509 -0.7790  0.0556
26966SOL    HW298891  12.562   2.171   8.200  1.7402 -1.3614  0.1607
26967SOL     OW98892   0.842   0.086   1.898 -0.1296 -0.0842  0.5826
26967SOL    HW198893   0.847   0.013   1.836  0.5667  0.2909  0.1871
26967SOL    HW298894   0.892   0.156   1.856  0.1330  0.2574  1.4545
26968SOL     OW98895   9.182   8.834  10.578  0.1257 -0.2013  0.1939
26968SOL    HW198896   9.109   8.896  10.571 -0.3126 -0.6873  0.4644
26968SOL    HW298897   9.256   8.888  10.607  0.1543  0.4978 -1.0953
26969SOL     OW98898  12.762   6.673  10.899 -0.2374  0.5646 -0.3395
26969SOL    HW198899  12.723   6.736  10.839 -0.4169 -0.3377 -1.1860
26969SOL    HW298900  12.693   6.610  10.917  0.3438 -0.1827 -0.6378
26970SOL     OW98901   0.486  11.352   6.914 -0.3869  0.0559  0.0387
26970SOL    HW198902   0.528  11.392   6.837 -1.5290  0.4936 -0.3825
26970SOL    HW298903   0.556  11.302   6.955  1.2034  2.5850  0.6938
26971SOL     OW98904  11.705  11.582   5.489 -0.2698  0.6155 -0.0555
26971SOL    HW198905  11.692  11.520   5.418  2.9871 -1.7205  1.1369
26971SOL    HW298906  11.799  11.579   5.506  0.2065  6.1115  0.0482
26972SOL     OW98907   1.546  10.291  12.767  0.1736 -0.3984  0.4930
26972SOL    HW198908   1.517  10.382  12.762 -0.5425 -0.6816 -1.1495
26972SOL    HW298909   1.512  10.260  12.851  0.3238  0.8092  1.0175
26973SOL     OW98910   4.698  14.041   7.388  0.4502 -0.5442 -0.1949
26973SOL    HW198911   4.742  14.021   7.471 -0.1061 -0.5674  0.1027
26973SOL    HW298912   4.744  13.988   7.323  0.2559 -1.2979  0.2648
26974SOL     OW98913   8.717   1.985  13.631 -0.1467 -0.6502  0.2692
26974SOL    HW198914   8.721   1.908  13.575 -2.9078 -0.6981  0.0273
26974SOL    HW298915   8.654   2.043  13.589  0.9154  1.2340  1.1100
26975SOL     OW98916   1.871  13.660   1.288  0.3975 -0.0679 -0.2040
26975SOL    HW198917   1.887  13.581   1.340 -1.0247  0.4085  1.0430
26975SOL    HW298918   1.852  13.728   1.353 -0.7067  0.7355 -1.3161
26976SOL     OW98919   1.003   7.475  13.489 -0.4820 -0.1160  0.0535
26976SOL    HW198920   0.962   7.393  13.463  0.3176 -0.0496 -1.4987
26976SOL    HW298921   1.084   7.479  13.438 -0.0107  1.1621  0.8528
26977SOL     OW98922  12.642   2.669   3.913 -0.3074 -0.0623 -0.0020
26977SOL    HW198923  12.715   2.702   3.966 -0.3092  2.1572 -1.2674
26977SOL    HW298924  12.670   2.681   3.822 -1.5471 -0.8515 -0.5218
26978SOL     OW98925  10.598   1.687   5.774 -0.0908  0.0591  0.0995
26978SOL    HW198926  10.668   1.711   5.713 -1.3784  0.4317 -1.2835
26978SOL    HW298927  10.587   1.765   5.829  0.5643 -0.0005  0.3258
26979SOL     OW98928   5.671   4.020   3.459  0.1828  0.1573 -0.4174
26979SOL    HW198929   5.737   4.045   3.395 -0.0118 -0.0487 -0.7025
26979SOL    HW298930   5.617   3.955   3.414  0.2603 -0.2594  0.0797
26980SOL     OW98931   6.707   8.934   6.098  0.4008 -0.5360  0.6293
26980SOL    HW198932   6.704   8.977   6.183 -0.3948  0.4667  0.1176
26980SOL    HW298933   6.777   8.979   6.051 -0.0254 -0.1928  0.3095
26981SOL     OW98934   0.644   0.919   2.465 -0.6018  0.4361  0.2469
26981SOL    HW198935   0.648   0.824   2.471 -0.2506  0.5414  2.1902
26981SOL    HW298936   0.685   0.940   2.381  0.2317 -1.0536  0.2639
26982SOL     OW98937  10.982   1.776   6.632 -0.5334  0.0395  0.5527
26982SOL    HW198938  10.916   1.724   6.678 -2.6746  1.6288 -0.5524
26982SOL    HW298939  10.982   1.860   6.677  1.3428 -0.1683  1.0020
26983SOL     OW98940   8.422   9.041   8.022  0.1531  0.0170 -1.0366
26983SOL    HW198941   8.465   9.113   8.068  0.4367  0.3812 -1.8343
26983SOL    HW298942   8.354   9.084   7.970  0.5960 -0.2219 -1.8413
26984SOL     OW98943   3.361  12.378  13.980 -0.4626  0.7211  0.2676
26984SOL    HW198944   3.273  12.406  13.957 -1.6156 -3.4233 -1.2586
26984SOL    HW298945   3.349  12.309  14.045  1.4178 -1.1608 -1.2164
26985SOL     OW98946   1.699   5.314  10.280  0.2186  0.2766  0.3224
26985SOL    HW198947   1.626   5.354  10.328 -0.1610  0.2217 -0.2042
26985SOL    HW298948   1.659   5.276  10.202  0.2948 -2.4974  1.5126
26986SOL     OW98949   8.569  11.098   4.060  0.3236  0.3492  0.8100
26986SOL    HW198950   8.503  11.105   3.991 -0.0601 -0.4922  1.0901
26986SOL    HW298951   8.647  11.139   4.022 -0.1227  0.6415  0.1880
26987SOL     OW98952   8.855  11.687   3.641  0.2252 -0.3069  0.3707
26987SOL    HW198953   8.789  11.686   3.572 -0.4472 -2.4564  0.9499
26987SOL    HW298954   8.807  11.707   3.721  0.1539 -2.1726  0.8414
26988SOL     OW98955  13.254  13.228   7.781  0.4146  0.2856  0.1364
26988SOL    HW198956  13.188  13.165   7.752  1.1549 -0.8305  0.7983
26988SOL    HW298957  13.332  13.205   7.731  1.2454 -0.6187  1.8033
26989SOL     OW98958   3.972  13.917  12.774  0.4169  0.0902 -0.5135
26989SOL    HW198959   3.931  13.901  12.859 -1.3756 -0.2121 -1.3940
26989SOL    HW298960   3.927  13.994  12.739  0.2671 -0.5087 -1.6972
26990SOL     OW98961   1.336   2.090   9.756  0.0399  0.2657 -0.0410
26990SOL    HW198962   1.430   2.078   9.768 -0.1278 -1.1791  0.0174
26990SOL    HW298963   1.327   2.120   9.665  0.4487 -1.4856 -0.7009
26991SOL     OW98964   1.170  11.307   6.475  0.1877 -0.1359  0.5386
26991SOL    HW198965   1.137  11.353   6.398  1.9154  0.7108  0.2637
26991SOL    HW298966   1.211  11.375   6.528 -0.6570 -0.7723  2.0472
26992SOL     OW98967   8.496   6.885  10.973  0.4148  0.1772 -0.2023
26992SOL    HW198968   8.546   6.811  11.008  1.3903  0.9463  0.0568
26992SOL    HW298969   8.428   6.901  11.039 -0.8205 -1.4739 -0.9991
26993SOL     OW98970  10.147  10.661   4.236 -0.5270  0.1894 -0.3957
26993SOL    HW198971  10.101  10.734   4.196 -1.0975  0.8985  1.4183
26993SOL    HW298972  10.085  10.626   4.300  0.9232  0.2624  1.1195
26994SOL     OW98973   3.164   4.209   6.994  0.0325 -0.1038 -0.0607
26994SOL    HW198974   3.173   4.115   6.976 -0.9180  0.2194 -2.6059
26994SOL    HW298975   3.069   4.224   6.997  0.1672  0.8953 -0.3936
26995SOL     OW98976  10.227   5.731   1.106  0.2998 -0.1545  0.5800
26995SOL    HW198977  10.257   5.671   1.038 -0.0064 -0.6282  0.8559
26995SOL    HW298978  10.175   5.796   1.059  0.3523 -0.2961  0.3234
26996SOL     OW98979   0.052   8.331   1.454 -0.3087 -0.5328 -0.3724
26996SOL    HW198980   0.068   8.420   1.424 -1.3792  0.4000  1.6051
26996SOL    HW298981   0.138   8.289   1.455  0.4449  0.9664  0.1166
26997SOL     OW98982  10.906   5.544  13.461 -0.3520 -0.0960 -0.6682
26997SOL    HW198983  10.958   5.554  13.541 -1.9522  2.8667  0.1458
26997SOL    HW298984  10.864   5.458  13.471 -1.4615  0.6538  2.3868
26998SOL     OW98985   0.964   3.176  11.765  0.2425 -0.2924 -0.4918
26998SOL    HW198986   0.989   3.223  11.845 -0.8170 -1.3367  0.4848
26998SOL    HW298987   1.046   3.139  11.732  0.7286  0.3382 -0.0223
26999SOL     OW98988   8.357  13.157   0.854  0.1223  0.3632  0.0618
26999SOL    HW198989   8.292  13.119   0.914  0.4247  0.1840  0.2774
26999SOL    HW298990   8.316  13.151   0.768  0.6663 -1.6547 -0.1078
27000SOL     OW98991   8.160  12.800  14.096  0.3982  0.2803  0.0080
27000SOL    HW198992   8.177  12.803  14.002  3.7913  2.1027  0.5458
27000SOL    HW298993   8.183  12.710  14.121  1.3022  0.3197 -0.6365
27001SOL     OW98994   0.677  12.323   9.638  0.0797  0.1279 -0.2900
27001SOL    HW198995   0.712  12.252   9.692 -0.5391  0.5593  0.7029
27001SOL    HW298996   0.624  12.279   9.572 -1.1925 -0.3077  0.9724
27002SOL     OW98997   8.823  13.832   7.009  0.3627  0.0664 -0.0629
27002SOL    HW198998   8.867  13.915   6.989  3.4582 -1.1711  1.0452
27002SOL    HW298999   8.746  13.832   6.953  0.6424  3.3380 -0.6553
27003SOL     OW99000   1.840   4.515   6.953  0.2260  0.3859  0.0101
27003SOL    HW199001   1.767   4.570   6.980  0.9401  1.8034 -0.8063
27003SOL    HW299002   1.898   4.513   7.029 -1.3815 -2.1777  1.2993
27004SOL     OW99003   2.313  12.733   0.235  0.2471 -0.2432  0.1831
27004SOL    HW199004   2.255  12.803   0.205 -2.5526 -1.6337  1.9554
27004SOL    HW299005   2.367  12.713   0.159 -4.1160 -1.3157 -3.0094
27005SOL     OW99006  10.165   7.307  13.603 -0.1937  0.5462 -0.7987
27005SOL    HW199007  10.127   7.230  13.559 -0.3457 -0.8018  1.4681
27005SOL    HW299008  10.250   7.319  13.562 -0.6898 -0.0500 -2.0553
27006SOL     OW99009   0.585   8.622   2.713 -0.1655  0.6628  0.2964
27006SOL    HW199010   0.543   8.689   2.658 -0.1194 -0.2577 -0.9015
27006SOL    HW299011   0.675   8.618   2.681  0.2240  1.0011  1.3143
27007SOL     OW99012   7.076  11.258   9.836  0.9820 -0.6680 -0.2538
27007SOL    HW199013   7.141  11.287   9.899  2.1416  0.0359 -1.7115
27007SOL    HW299014   7.125  11.206   9.772 -0.1576 -1.3883 -0.5902
27008SOL     OW99015   8.704   3.736   8.696  0.0787  0.2763 -0.1758
27008SOL    HW199016   8.735   3.647   8.678  1.6981  0.7558  0.0659
27008SOL    HW299017   8.748   3.791   8.632  0.6870  1.1483  0.9511
27009SOL     OW99018  11.736  13.559  13.120  0.4873 -0.4200  0.3904
27009SOL    HW199019  11.765  13.590  13.205  1.7099 -2.1170  0.6552
27009SOL    HW299020  11.644  13.537  13.132  0.0126  1.5427  0.5908
27010SOL     OW99021   2.265  13.444   3.234  0.5561 -0.0635 -0.0497
27010SOL    HW199022   2.353  13.418   3.261  0.3730 -1.6581 -0.9154
27010SOL    HW299023   2.259  13.536   3.260  2.2316 -0.1060  0.6202
27011SOL     OW99024   9.964  11.186   5.485 -0.3271 -0.2583 -0.2943
27011SOL    HW199025  10.015  11.232   5.418 -0.5611  0.0800 -0.2442
27011SOL    HW299026   9.939  11.254   5.547  0.2751 -0.6479  0.3897
27012SOL     OW99027   8.623   7.912   8.492 -0.0204 -0.0965 -0.1488
27012SOL    HW199028   8.600   7.946   8.578 -2.6607 -3.0463  0.5029
27012SOL    HW299029   8.693   7.849   8.508  1.4498  1.3490 -0.6448
27013SOL     OW99030  13.087   6.003  13.722  0.1768  0.2043 -1.0785
27013SOL    HW199031  13.010   6.044  13.683 -1.3749 -0.8567  0.6773
27013SOL    HW299032  13.127   6.071  13.776 -0.5971  0.2773 -0.5916
27014SOL     OW99033   2.833  13.342   0.564  0.0975 -0.7503  0.1158
27014SOL    HW199034   2.743  13.373   0.572  0.1384 -0.7097  0.4115
27014SOL    HW299035   2.886  13.412   0.602  0.4534  0.3711 -2.2222
27015SOL     OW99036   8.680  10.355  13.399 -0.1724  0.2755  0.4319
27015SOL    HW199037   8.606  10.304  13.433 -0.0307  0.4667  1.0354
27015SOL    HW299038   8.755  10.296  13.407 -0.1180  0.3625  0.5626
27016SOL     OW99039  10.909   2.762   1.700  0.1193 -0.0454 -0.7412
27016SOL    HW199040  10.924   2.849   1.736  0.1135  0.0845 -1.0479
27016SOL    HW299041  10.945   2.702   1.765  0.3520  0.1951 -0.6478
27017SOL     OW99042   3.010   0.764  12.959 -0.4356 -0.6615  0.0113
27017SOL    HW199043   3.039   0.701  13.025 -0.2444 -1.6779 -1.0137
27017SOL    HW299044   2.915   0.768  12.971 -0.4824 -1.3457 -0.0696
27018SOL     OW99045   8.393   5.334   3.505  0.3190 -0.3367 -0.2527
27018SOL    HW199046   8.459   5.392   3.543 -0.1636 -0.2149  0.4050
27018SOL    HW299047   8.367   5.377   3.424  0.7438 -0.1788 -0.3099
27019SOL     OW99048  11.139   2.989   9.035  0.6703 -0.4151 -0.3748
27019SOL    HW199049  11.113   3.026   9.120 -1.1412  1.8667 -1.8126
27019SOL    HW299050  11.231   3.015   9.025  0.6346  0.0778  0.4819
27020SOL     OW99051  10.459   5.755   5.490  0.5510  0.3065 -0.1161
27020SOL    HW199052  10.388   5.819   5.493  0.2128  0.0022 -1.1587
27020SOL    HW299053  10.449   5.712   5.405  2.8716  1.2896 -0.9760
27021SOL     OW99054   3.464   9.803   5.662 -0.3863 -0.3393  0.1899
27021SOL    HW199055   3.370   9.820   5.660 -0.8634 -2.4812  1.0564
27021SOL    HW299056   3.504   9.888   5.678 -2.1436  0.6648 -0.4868
27022SOL     OW99057   0.196   3.323   5.727 -0.1165  0.5995 -0.2046
27022SOL    HW199058   0.130   3.324   5.658  1.1622 -0.2987 -1.5239
27022SOL    HW299059   0.269   3.274   5.689  0.9106  0.6593  1.5628
27023SOL     OW99060   0.149   1.341   8.289  0.2175  0.5337  0.2174
27023SOL    HW199061   0.142   1.427   8.330  4.0396  0.4793  1.3600
27023SOL    HW299062   0.227   1.347   8.234  2.0768 -2.7725  2.1660
27024SOL     OW99063   6.776  10.817   6.048  0.1665 -0.8156  0.1195
27024SOL    HW199064   6.838  10.858   6.108  0.0455 -2.3754  1.3848
27024SOL    HW299065   6.821  10.740   6.014 -0.7990 -1.6074  0.5508
27025SOL     OW99066   9.181   6.904   3.659  0.2529 -0.0509 -0.4521
27025SOL    HW199067   9.175   6.853   3.578 -0.3601  1.1465 -1.1843
27025SOL    HW299068   9.215   6.842   3.724  0.1162 -1.2152 -1.4590
27026SOL     OW99069   2.096   0.648   1.363  0.2769  0.3185 -0.4553
27026SOL    HW199070   2.151   0.608   1.430  0.0958  0.9121  0.0520
27026SOL    HW299071   2.120   0.740   1.364 -1.9846  0.9733  1.0582
27027SOL     OW99072   4.720  14.080   2.760 -0.3881 -0.1412  0.2835
27027SOL    HW199073   4.756  14.146   2.819  0.0940 -1.1203  1.1245
27027SOL    HW299074   4.720  13.999   2.812  1.5209 -1.4053 -1.4910
27028SOL     OW99075  10.387   4.011  10.015  0.0367  0.2322  0.2157
27028SOL    HW199076  10.422   3.923  10.009 -0.8877 -0.1476  0.2120
27028SOL    HW299077  10.439   4.053  10.084  1.5386  0.2152 -0.8795
27029SOL     OW99078  11.353   4.340   8.162 -0.0153  0.1612 -0.6572
27029SOL    HW199079  11.386   4.264   8.115 -0.3992 -1.3247  1.3402
27029SOL    HW299080  11.423   4.364   8.223 -0.2483  0.8610 -0.6474
27030SOL     OW99081  11.867   1.349   9.684  0.3598  0.3405 -0.2628
27030SOL    HW199082  11.947   1.338   9.632  0.3872 -1.4443  0.0953
27030SOL    HW299083  11.843   1.260   9.710 -0.3279  1.0550  1.7693
27031SOL     OW99084   0.135  10.287   8.404 -0.2237 -0.5598 -0.1045
27031SOL    HW199085   0.159  10.302   8.496 -0.2503 -0.4955 -0.1075
27031SOL    HW299086   0.156  10.370   8.361 -0.7984 -0.3725 -0.0362
27032SOL     OW99087   9.354  13.230   6.348 -0.1141 -0.0282 -0.4803
27032SOL    HW199088   9.373  13.265   6.434  0.6968 -0.1447 -0.6021
27032SOL    HW299089   9.258  13.230   6.342 -0.2097 -0.8064  0.7411
27033SOL     OW99090   2.520   7.693   0.599  0.2354  0.2670  0.3628
27033SOL    HW199091   2.496   7.708   0.508 -0.9774  0.0375  0.6278
27033SOL    HW299092   2.611   7.663   0.595  0.8877  2.1574 -0.5995
27034SOL     OW99093   9.680  14.149   2.495  0.0024 -0.0248 -0.0333
27034SOL    HW199094   9.704  14.229   2.541  0.7594  0.0048 -0.4655
27034SOL    HW299095   9.642  14.179   2.412  0.6595 -0.1089 -0.3736
27035SOL     OW99096   4.749  10.349   9.941  0.1198 -0.0123  0.7946
27035SOL    HW199097   4.766  10.300  10.022  3.3212  0.9707  0.8513
27035SOL    HW299098   4.778  10.290   9.871 -0.5647 -0.0072  0.4971
27036SOL     OW99099   7.504   2.928   8.645 -0.2914 -0.0688 -0.0437
27036SOL    HW199100   7.566   2.877   8.698 -0.8393 -1.4367 -0.6864
27036SOL    HW299101   7.546   2.936   8.559 -0.1696  0.6744  0.0735
27037SOL     OW99102   5.702   1.174   5.556  0.4090 -0.1900  0.1133
27037SOL    HW199103   5.667   1.085   5.556  0.5703 -0.2586 -0.3642
27037SOL    HW299104   5.769   1.173   5.488  0.1592  0.3963 -0.1500
27038SOL     OW99105   4.106   3.601   7.652 -0.0568 -0.4989  0.1550
27038SOL    HW199106   4.134   3.588   7.561  0.0945  0.0172  0.1291
27038SOL    HW299107   4.035   3.664   7.647  1.5879  1.5122  0.6039
27039SOL     OW99108   9.752   2.432   2.605 -0.4678  0.1783 -0.3963
27039SOL    HW199109   9.783   2.379   2.531  2.2696 -1.3421  1.6413
27039SOL    HW299110   9.681   2.380   2.643 -0.0314 -0.4001 -0.3598
27040SOL     OW99111   7.952  12.818   1.284 -0.1939  0.6352 -0.0635
27040SOL    HW199112   7.937  12.786   1.196  1.4986 -0.2944 -0.0633
27040SOL    HW299113   7.908  12.756   1.341  3.0960 -1.9740 -0.0581
27041SOL     OW99114  10.501  12.186  11.604  0.2270  0.8974 -0.7871
27041SOL    HW199115  10.482  12.252  11.670 -1.0647  0.1885 -0.4230
27041SOL    HW299116  10.443  12.207  11.531  2.1938  2.1580 -2.1076
27042SOL     OW99117   3.863   2.563   2.755 -0.2554  0.2330  0.1707
27042SOL    HW199118   3.835   2.646   2.717 -0.2446 -0.5819 -1.6966
27042SOL    HW299119   3.938   2.536   2.703 -0.0247 -0.7649  0.9901
27043SOL     OW99120   2.696   2.672  10.189  0.0763  0.1031 -0.3023
27043SOL    HW199121   2.672   2.639  10.276  0.3992 -0.7837 -0.5361
27043SOL    HW299122   2.772   2.727  10.204 -0.0162  0.1459  0.0107
27044SOL     OW99123   2.080  10.162  11.611 -0.8989 -0.2643  0.2600
27044SOL    HW199124   2.036  10.083  11.580 -0.6896  0.2009 -1.3297
27044SOL    HW299125   2.010  10.225  11.624 -1.2871 -1.1622  3.2764
27045SOL     OW99126  11.925   6.213   1.202 -0.0268 -0.4705 -0.0521
27045SOL    HW199127  11.830   6.221   1.213 -0.0351  1.1037 -0.9931
27045SOL    HW299128  11.960   6.292   1.243  0.8493 -0.8126 -0.1276
27046SOL     OW99129   9.362  10.807   9.890 -0.2877  0.2423 -0.0588
27046SOL    HW199130   9.355  10.900   9.912  0.4043 -0.2108  2.4003
27046SOL    HW299131   9.455  10.792   9.876 -0.0772 -0.4574  1.7759
27047SOL     OW99132   7.935   2.025   0.220  0.4572  0.1833 -0.2629
27047SOL    HW199133   7.858   2.071   0.187  0.0713 -1.3200 -1.5716
27047SOL    HW299134   8.009   2.077   0.187  0.0767 -0.9149 -3.1527
27048SOL     OW99135   2.987   7.374  11.269 -0.0967 -0.2948 -0.3248
27048SOL    HW199136   3.051   7.409  11.331 -0.3566 -0.3859 -0.0030
27048SOL    HW299137   3.036   7.309  11.219 -0.2257 -1.2428  0.7293
27049SOL     OW99138  12.493   9.999   8.172 -0.8337  0.0212 -0.2262
27049SOL    HW199139  12.514   9.937   8.102 -0.0370 -1.2662  1.1113
27049SOL    HW299140  12.489   9.946   8.251  0.1471  1.7254  1.0324
27050SOL     OW99141   3.593   2.098   0.063 -0.1055 -0.1629  0.6362
27050SOL    HW199142   3.546   2.181   0.063 -2.3099 -1.2448 -2.3490
27050SOL    HW299143   3.647   2.102  -0.017 -1.8417 -2.3054 -0.7416
27051SOL     OW99144   4.979   6.834  11.903 -0.2851 -0.1463 -0.4106
27051SOL    HW199145   4.975   6.867  11.813  1.8310 -0.1135 -0.5492
27051SOL    HW299146   4.984   6.739  11.893 -0.4407 -0.1654 -0.3072
27052SOL     OW99147  13.381   1.779   1.919  0.3479  0.0229 -0.1077
27052SOL    HW199148  13.471   1.813   1.919  0.7818 -1.0665  0.4641
27052SOL    HW299149  13.392   1.684   1.907 -0.7460 -0.0900 -0.2861
27053SOL     OW99150  12.480   7.496  13.530 -0.2317  0.1439  0.0101
27053SOL    HW199151  12.462   7.544  13.449 -0.9698  0.3446  0.2857
27053SOL    HW299152  12.556   7.442  13.509  0.6196  1.4313 -0.3168
27054SOL     OW99153  14.125   7.387   8.328 -0.1341  0.4114  0.3367
27054SOL    HW199154  14.153   7.476   8.308 -1.5080  0.5396 -1.2749
27054SOL    HW299155  14.192   7.332   8.288 -0.5172  0.7295 -0.7782
27055SOL     OW99156   0.775   2.320  12.771 -0.0253  0.2700 -0.5155
27055SOL    HW199157   0.782   2.412  12.798  0.5982  0.2049 -0.4375
27055SOL    HW299158   0.858   2.302  12.727  0.1602 -0.4635  0.1169
27056SOL     OW99159   2.585   1.577   8.739 -0.1104  0.5749  0.0046
27056SOL    HW199160   2.648   1.555   8.808  0.2763 -0.0975 -0.5432
27056SOL    HW299161   2.508   1.525   8.760  0.6618 -1.1052 -1.0658
27057SOL     OW99162   7.635   0.574   5.249  0.5968 -0.2538 -0.5189
27057SOL    HW199163   7.591   0.612   5.325 -1.7744 -1.1904 -1.3385
27057SOL    HW299164   7.709   0.525   5.286 -0.4516 -0.6236  1.1860
27058SOL     OW99165  13.018  13.810  12.024  0.0823 -0.1982 -0.0520
27058SOL    HW199166  13.013  13.802  12.120 -0.8665 -0.5137 -0.1178
27058SOL    HW299167  12.936  13.772  11.993  0.6022 -0.5385 -1.0273
27059SOL     OW99168   9.419   0.856   7.245  0.0327 -0.7961  0.4767
27059SOL    HW199169   9.470   0.828   7.170 -2.3190 -0.1310 -1.4882
27059SOL    HW299170   9.442   0.949   7.256 -0.2201 -0.6813  0.0495
27060SOL     OW99171  10.118   7.367   2.313 -0.0365 -0.1610  0.0138
27060SOL    HW199172  10.043   7.336   2.363 -1.7154  2.8541 -0.4284
27060SOL    HW299173  10.152   7.440   2.363  1.0403  0.1108 -1.0614
27061SOL     OW99174   8.534   9.912   6.788 -0.7396  0.2440  0.1082
27061SOL    HW199175   8.584   9.953   6.859 -1.9551  0.7131  0.7319
27061SOL    HW299176   8.503   9.985   6.735  2.0359 -0.1681 -2.3312
27062SOL     OW99177   2.193   9.165  13.960  0.5286 -0.0693  0.1250
27062SOL    HW199178   2.240   9.117  13.892  1.6830 -1.6913  1.9652
27062SOL    HW299179   2.241   9.247  13.969  1.3004 -0.4941 -0.0102
27063SOL     OW99180   7.592  13.218   8.497 -0.3803 -0.5846 -0.7298
27063SOL    HW199181   7.502  13.247   8.508 -0.1604 -0.1309 -0.0233
27063SOL    HW299182   7.596  13.133   8.540 -0.5341 -0.7240 -0.9928
27064SOL     OW99183  10.883   5.441   5.503 -0.2391  0.4430 -0.2000
27064SOL    HW199184  10.807   5.452   5.559 -0.0788  0.4421  0.0189
27064SOL    HW299185  10.855   5.473   5.417 -1.0802 -1.2732 -0.6093
27065SOL     OW99186  12.626   5.402  13.766 -0.4843 -0.2939 -0.2156
27065SOL    HW199187  12.585   5.442  13.843 -0.3374 -2.1950  0.9057
27065SOL    HW299188  12.720   5.412  13.781 -0.4545 -0.7314 -0.1070
27066SOL     OW99189   0.177   3.661  10.822 -0.0896 -0.3608  0.4449
27066SOL    HW199190   0.152   3.599  10.752 -1.1580 -2.0273  2.1990
27066SOL    HW299191   0.129   3.631  10.898  0.2443  2.0334  1.6864
27067SOL     OW99192   9.683  12.314   7.755  0.2501  0.0531  0.2234
27067SOL    HW199193   9.714  12.311   7.665 -1.9150 -0.5377 -0.5594
27067SOL    HW299194   9.721  12.236   7.796 -1.2018 -1.4074 -1.0796
27068SOL     OW99195   4.609  10.478   3.546  0.0101  0.0427  0.0916
27068SOL    HW199196   4.628  10.542   3.477  0.1330 -0.9576 -0.8364
27068SOL    HW299197   4.694  10.442   3.570 -0.0273  0.4349  0.8252
27069SOL     OW99198   9.103   1.091  14.048  0.2774  0.2885 -0.0944
27069SOL    HW199199   9.047   1.090  14.125  1.3158  2.3434  0.7827
27069SOL    HW299200   9.143   1.004  14.045 -0.3049 -0.0417  1.3001
27070SOL     OW99201  13.961   2.307   6.638 -0.2113  0.3582 -0.0347
27070SOL    HW199202  14.020   2.240   6.672 -0.9274 -1.1913 -1.6713
27070SOL    HW299203  13.881   2.260   6.618 -0.2174  1.3533 -2.7196
27071SOL     OW99204   8.865   7.925   0.743  0.2822  0.6117  0.0351
27071SOL    HW199205   8.829   8.009   0.715 -2.8988 -0.7856 -0.6208
27071SOL    HW299206   8.945   7.914   0.691 -0.0362  2.5728 -0.9410
27072SOL     OW99207   1.867  12.181  10.297 -0.4559  0.2074 -0.3095
27072SOL    HW199208   1.788  12.132  10.271 -0.7406  0.7261 -0.4277
27072SOL    HW299209   1.835  12.248  10.357 -0.3331  1.3773 -1.4946
27073SOL     OW99210   3.342   3.364   2.120  0.3716  0.2269  0.0287
27073SOL    HW199211   3.412   3.427   2.136  0.1392  1.1190 -2.1777
27073SOL    HW299212   3.379   3.279   2.145  1.7415  0.8512  0.1738
27074SOL     OW99213   1.286  12.051   6.582 -0.5822 -0.2762  0.2968
27074SOL    HW199214   1.193  12.055   6.600 -0.8119  1.2977 -0.9654
27074SOL    HW299215   1.328  12.089   6.659 -0.8413 -2.1225  1.4162
27075SOL     OW99216   4.771  10.015   4.496  0.3139  0.1958  0.8238
27075SOL    HW199217   4.785   9.928   4.532  0.1001 -0.3940 -0.4537
27075SOL    HW299218   4.849  10.033   4.443 -1.3230 -1.0083 -2.2569
27076SOL     OW99219   5.088   0.170  13.163 -0.6820 -0.0845  0.1136
27076SOL    HW199220   5.095   0.193  13.256 -2.3463 -0.7804  0.4539
27076SOL    HW299221   5.173   0.194  13.126 -0.6517  2.1259  1.3882
27077SOL     OW99222  13.063   9.914   0.641  0.8065  0.2947  0.5137
27077SOL    HW199223  12.985   9.858   0.639  2.0095 -1.5383  1.2178
27077SOL    HW299224  13.083   9.924   0.734  0.7272  1.7971  0.3882
27078SOL     OW99225   0.311   2.846   7.803 -0.1226  0.0949 -0.2484
27078SOL    HW199226   0.400   2.840   7.769 -0.6917  0.7140 -1.9593
27078SOL    HW299227   0.271   2.916   7.751 -0.5642  2.4189  2.9039
27079SOL     OW99228  13.786  13.421   4.582  0.0926 -0.4392 -0.0241
27079SOL    HW199229  13.811  13.429   4.490  0.1983 -0.4734  0.0009
27079SOL    HW299230  13.857  13.464   4.630 -0.1778 -0.0333  0.0194
27080SOL     OW99231   3.306   6.975  11.499  0.2936 -0.7819  0.0213
27080SOL    HW199232   3.372   6.951  11.564  0.0401 -0.0726  0.5468
27080SOL    HW299233   3.354   7.030  11.436 -0.0365  0.7384  1.0481
27081SOL     OW99234   6.717   0.499   5.851 -0.0325  0.5076  0.1703
27081SOL    HW199235   6.659   0.570   5.876  0.7062  0.9492  0.6559
27081SOL    HW299236   6.680   0.422   5.894 -0.9404  0.5413 -0.5078
27082SOL     OW99237   7.670  11.496   3.696 -0.1543 -0.3933  0.4461
27082SOL    HW199238   7.605  11.428   3.711 -0.0560 -0.5534  0.1558
27082SOL    HW299239   7.748  11.449   3.666 -0.5550 -0.0341 -1.2314
27083SOL     OW99240   8.115   8.240   3.991  0.3231  0.2588 -0.0993
27083SOL    HW199241   8.026   8.277   3.991 -0.5078 -1.6069  0.9310
27083SOL    HW299242   8.169   8.308   3.951 -1.4024  1.8330  0.1173
27084SOL     OW99243  12.413   0.118   9.063  0.5767 -0.2782 -0.1280
27084SOL    HW199244  12.455   0.165   9.135 -0.4059 -0.9803  0.9368
27084SOL    HW299245  12.485   0.098   9.003  1.5790 -0.3872  1.0502
27085SOL     OW99246   9.241   9.135   7.884  0.5526  0.2631  0.1106
27085SOL    HW199247   9.215   9.070   7.949 -2.5323 -1.5755 -2.6364
27085SOL    HW299248   9.189   9.212   7.905  1.1669  0.4478  1.0011
27086SOL     OW99249  12.777   0.007   2.361  0.1353 -0.0935 -0.2759
27086SOL    HW199250  12.702   0.009   2.300  0.8364 -0.4782 -1.1735
27086SOL    HW299251  12.796   0.100   2.378 -0.5259  0.0084 -0.0580
27087SOL     OW99252   9.401  12.540  13.485  0.0811 -0.5552 -0.2891
27087SOL    HW199253   9.416  12.634  13.494  0.0400 -0.5643 -0.1246
27087SOL    HW299254   9.412  12.505  13.574 -2.0606 -0.3951  0.0873
27088SOL     OW99255  11.737   2.840   1.655  0.2736 -0.3493  0.2572
27088SOL    HW199256  11.644   2.845   1.632  0.5010  1.0066 -0.5272
27088SOL    HW299257  11.762   2.931   1.671  1.1687 -0.8397  1.7679
27089SOL     OW99258   5.246  11.265   3.091  0.0752 -0.0417 -0.0719
27089SOL    HW199259   5.315  11.331   3.099  1.2952 -1.3488  0.7464
27089SOL    HW299260   5.282  11.199   3.031 -0.3807 -0.8198  0.4843
27090SOL     OW99261   3.341  11.359   7.646  0.0803  0.1234 -0.1341
27090SOL    HW199262   3.294  11.333   7.725  0.3961  1.9861  0.7003
27090SOL    HW299263   3.389  11.280   7.620 -1.7610 -1.1663  0.2304
27091SOL     OW99264   5.464   0.279   7.357 -0.3700  1.5690 -0.5274
27091SOL    HW199265   5.471   0.276   7.261  1.7778 -0.2955 -0.3803
27091SOL    HW299266   5.519   0.353   7.382 -0.2798  1.5603 -0.6969
27092SOL     OW99267   7.722  10.651  13.840 -0.3934  0.0220  0.1758
27092SOL    HW199268   7.725  10.736  13.797  0.3974 -0.8518 -1.5847
27092SOL    HW299269   7.630  10.625  13.836 -0.2316 -0.3971 -1.7971
27093SOL     OW99270   8.640   1.412  12.359  0.0279  0.3017 -0.0626
27093SOL    HW199271   8.722   1.390  12.403  0.7024 -0.4082 -1.6031
27093SOL    HW299272   8.608   1.329  12.324 -0.8166  0.7416 -0.3753
27094SOL     OW99273   0.252  12.559   2.015 -0.1603  0.0243 -0.2813
27094SOL    HW199274   0.323  12.534   2.074 -1.3355 -0.7497  0.8394
27094SOL    HW299275   0.216  12.639   2.053  0.1701  0.5008 -0.9339
27095SOL     OW99276   5.948  10.080   5.704 -0.3415  0.0071  0.2586
27095SOL    HW199277   5.893  10.072   5.625 -0.1829 -2.4502  0.3222
27095SOL    HW299278   5.888  10.112   5.771 -0.8122  0.8092 -0.5131
27096SOL     OW99279   7.103   3.744   4.196 -0.0772 -0.4417  0.7751
27096SOL    HW199280   7.144   3.828   4.173  0.1468 -1.0053 -1.0473
27096SOL    HW299281   7.170   3.679   4.179 -0.4552 -1.0558  1.5804
27097SOL     OW99282   2.990  13.712   9.694  0.3229 -0.1401  0.2858
27097SOL    HW199283   2.943  13.714   9.611 -0.1994  0.7474  0.5883
27097SOL    HW299284   2.941  13.650   9.749  0.9337 -1.0840 -0.1980
27098SOL     OW99285   7.433  10.569  12.271  0.3381 -0.3862  0.5030
27098SOL    HW199286   7.479  10.607  12.197 -0.4535 -0.7556 -0.1875
27098SOL    HW299287   7.370  10.508  12.233  0.0123 -0.6929  1.4814
27099SOL     OW99288  11.530   3.825   6.721 -0.2575 -0.2097  0.5743
27099SOL    HW199289  11.576   3.856   6.643  1.4938 -0.4783  1.4312
27099SOL    HW299290  11.496   3.739   6.697  1.1798 -0.7521  0.3977
27100SOL     OW99291  11.877   8.175  10.403 -0.3613  0.1145  0.0565
27100SOL    HW199292  11.918   8.090  10.394 -1.1677 -0.2098 -0.8026
27100SOL    HW299293  11.794   8.158  10.447 -0.9938  0.2831 -1.0253
27101SOL     OW99294  11.532   5.506  12.647 -0.2776 -0.2816 -0.3486
27101SOL    HW199295  11.474   5.538  12.578  0.6652 -0.4748 -1.2535
27101SOL    HW299296  11.618   5.500  12.605  0.1347 -1.2575  0.5922
27102SOL     OW99297  10.442   7.919  10.001  0.4721  0.0965 -0.0289
27102SOL    HW199298  10.365   7.913  10.058  0.3694 -1.4723 -0.2901
27102SOL    HW299299  10.484   8.001  10.026  0.1918 -0.3281  1.9884
27103SOL     OW99300   2.513   1.375   0.746 -0.0241  0.5020 -0.0469
27103SOL    HW199301   2.445   1.335   0.691 -0.3261  1.4038 -0.3655
27103SOL    HW299302   2.595   1.343   0.710 -0.2188  1.0302 -1.0163
27104SOL     OW99303   7.706   1.491   5.819 -0.3867 -0.6711 -0.6825
27104SOL    HW199304   7.674   1.561   5.876 -1.3490 -1.8841  0.3283
27104SOL    HW299305   7.722   1.418   5.878  0.0219 -1.4949 -1.7901
27105SOL     OW99306  13.963  12.234  10.448 -0.4058 -0.0606 -0.1627
27105SOL    HW199307  14.040  12.241  10.392  0.7903  1.0091  1.4921
27105SOL    HW299308  13.989  12.279  10.529 -2.4926 -0.3985  0.7542
27106SOL     OW99309   4.216   3.366   8.203 -0.2569 -0.4522  0.4934
27106SOL    HW199310   4.187   3.275   8.214 -1.0131 -0.3116 -0.2129
27106SOL    HW299311   4.265   3.365   8.121  0.3742 -0.3633  0.8653
27107SOL     OW99312   2.515  11.693   8.908 -0.7198  0.3715 -0.2250
27107SOL    HW199313   2.469  11.657   8.984  1.9513 -0.4818  1.0845
27107SOL    HW299314   2.541  11.617   8.856  0.6522  0.6954 -0.0477
27108SOL     OW99315  13.241   6.164  11.656 -0.1598  0.2047  0.2504
27108SOL    HW199316  13.281   6.219  11.588 -1.7966  1.3656  0.1575
27108SOL    HW299317  13.236   6.221  11.733  0.3793 -0.6489  0.9398
27109SOL     OW99318   4.011  12.188  13.369  0.0947 -0.3102 -0.2293
27109SOL    HW199319   4.098  12.167  13.334  0.9538 -0.7064  1.9358
27109SOL    HW299320   4.028  12.217  13.459 -1.9890  0.0468  0.1005
27110SOL     OW99321   2.310   0.581  11.409 -0.2782 -0.1029 -1.0642
27110SOL    HW199322   2.300   0.533  11.327 -1.0544 -1.1038 -0.4070
27110SOL    HW299323   2.244   0.544  11.468  0.4324  0.4040  0.1090
27111SOL     OW99324   6.964   7.586   2.942 -0.0575  0.1752  0.2427
27111SOL    HW199325   7.022   7.600   2.867  1.4235  0.1714  1.3639
27111SOL    HW299326   7.009   7.626   3.016 -0.6098 -1.4621  1.5173
27112SOL     OW99327   3.253  12.148   9.864 -0.1206 -0.2726  0.0305
27112SOL    HW199328   3.321  12.087   9.836 -0.6457  0.2894 -2.7988
27112SOL    HW299329   3.171  12.103   9.845 -0.5571 -0.0656  1.3167
27113SOL     OW99330   6.005   4.055  13.569 -0.3584  0.2452  0.5836
27113SOL    HW199331   6.021   4.023  13.658 -0.5223  1.1226  0.9350
27113SOL    HW299332   6.058   4.134  13.562 -2.3292  1.6501  0.8204
27114SOL     OW99333   3.609   1.878   0.406  0.1615 -0.9357  0.7834
27114SOL    HW199334   3.590   1.786   0.420  1.3189 -1.4801 -0.9284
27114SOL    HW299335   3.651   1.906   0.487 -2.1649 -1.2726  2.1957
27115SOL     OW99336   4.549   5.685   9.118  0.0480  0.0994  0.0535
27115SOL    HW199337   4.517   5.744   9.185 -0.2889  1.2077 -1.0480
27115SOL    HW299338   4.616   5.735   9.072  0.1451 -0.5674 -0.5519
27116SOL     OW99339   3.559   8.445  13.210  0.4794  0.1955  0.2806
27116SOL    HW199340   3.566   8.350  13.216  1.3116  0.2455  0.2020
27116SOL    HW299341   3.466   8.463  13.223  0.4148 -0.5762  0.9681
27117SOL     OW99342   1.053  11.598  12.227 -0.5183  0.2442  0.0154
27117SOL    HW199343   1.062  11.693  12.233  1.3806  0.0473  1.2620
27117SOL    HW299344   0.981  11.577  12.287 -0.5897  0.8532  0.1512
27118SOL     OW99345  10.117   1.004   6.550 -0.5803  0.2733  0.4557
27118SOL    HW199346  10.140   1.048   6.632  2.5905  0.8183 -0.5686
27118SOL    HW299347  10.186   0.938   6.539 -1.7220 -0.7045 -1.1117
27119SOL     OW99348   1.535   6.941  12.729 -0.2780 -0.4161  0.0101
27119SOL    HW199349   1.561   7.000  12.800  2.0272  0.0126 -1.1262
27119SOL    HW299350   1.469   6.990  12.680 -1.4620 -0.4864  1.4489
27120SOL     OW99351   6.809   6.001   0.573  0.0515  0.0278 -0.3483
27120SOL    HW199352   6.775   6.079   0.529 -0.0593 -0.2369 -0.7340
27120SOL    HW299353   6.900   6.022   0.591 -0.0372  0.3355 -0.2471
27121SOL     OW99354  12.335   3.525  13.395 -1.0259  0.4186 -0.0268
27121SOL    HW199355  12.395   3.598  13.414  0.1740 -0.6726  0.5543
27121SOL    HW299356  12.380   3.476  13.326 -2.2298  0.6791 -1.0272
27122SOL     OW99357  13.107  11.733   2.803  0.0577 -0.9505 -0.6180
27122SOL    HW199358  13.115  11.686   2.719  0.3888  1.5655 -2.1093
27122SOL    HW299359  13.186  11.787   2.807 -0.7658  0.2240  0.4991
27123SOL     OW99360   7.080   4.584  11.366 -0.1141  0.0264  0.3960
27123SOL    HW199361   6.985   4.585  11.377 -0.1939  0.6063 -0.2256
27123SOL    HW299362   7.113   4.639  11.437 -0.2079 -0.5404  0.8815
27124SOL     OW99363  10.633  10.589   6.115 -0.1983  0.5074 -0.3838
27124SOL    HW199364  10.594  10.545   6.039 -0.2253  2.2369 -1.4280
27124SOL    HW299365  10.656  10.518   6.174  0.2964 -0.9568 -2.2281
27125SOL     OW99366   1.756   9.975   3.355  0.2344 -0.0715  0.1608
27125SOL    HW199367   1.810   9.951   3.430  1.5232  0.5136 -0.5562
27125SOL    HW299368   1.772   9.906   3.291 -0.6620 -0.4272  0.2994
27126SOL     OW99369   7.976   7.334   9.620 -0.2531 -0.0943  0.1273
27126SOL    HW199370   8.049   7.323   9.559  0.8647 -0.2012  1.4282
27126SOL    HW299371   7.900   7.353   9.564  0.7722  0.0808 -1.2601
27127SOL     OW99372  11.666  10.752   9.353  0.5950 -0.5906 -0.4008
27127SOL    HW199373  11.625  10.674   9.389  0.6310 -0.3722  0.1238
27127SOL    HW299374  11.593  10.803   9.317  0.5924 -0.9474 -0.9114
27128SOL     OW99375   9.076  10.138   3.114 -0.8080  0.0452 -0.0538
27128SOL    HW199376   8.993  10.093   3.100 -1.3955  1.0270  0.1659
27128SOL    HW299377   9.139  10.092   3.059 -1.3604 -1.1073  0.2684
27129SOL     OW99378   3.466   5.407  13.298 -0.0786 -0.0625  0.1604
27129SOL    HW199379   3.448   5.335  13.359 -1.5904  0.5626  0.4923
27129SOL    HW299380   3.497   5.478  13.354  0.1027 -0.0134 -0.0015
27130SOL     OW99381  10.190   3.458   0.365 -0.5286  0.0724  0.0387
27130SOL    HW199382  10.143   3.442   0.447  1.1575 -1.7201  0.7251
27130SOL    HW299383  10.125   3.439   0.297 -1.0367 -1.7012  0.9557
27131SOL     OW99384   0.560   8.690   1.751 -0.2177  0.3988 -0.2228
27131SOL    HW199385   0.532   8.681   1.660  0.5381 -0.1804 -0.4161
27131SOL    HW299386   0.632   8.754   1.748 -0.3056  0.5088 -0.0110
27132SOL     OW99387  12.535  11.633   3.228 -0.3779 -0.1142  0.1320
27132SOL    HW199388  12.449  11.597   3.207  0.1683 -1.1449 -0.3955
27132SOL    HW299389  12.592  11.600   3.160  0.1932  1.6811 -0.3181
27133SOL     OW99390   5.608  11.326   8.406 -0.2910 -0.5023 -0.0223
27133SOL    HW199391   5.588  11.360   8.319 -0.7016 -2.3729 -0.7249
27133SOL    HW299392   5.703  11.338   8.416 -0.3227  0.1950 -0.5027
27134SOL     OW99393   6.611   8.931   9.410  0.4847 -0.2587 -0.7543
27134SOL    HW199394   6.623   9.006   9.468  0.5311 -0.8622  0.0252
27134SOL    HW299395   6.541   8.957   9.351  0.1311  0.1955 -0.1449
27135SOL     OW99396  10.671  13.029  12.115  0.2491  0.0534  0.7940
27135SOL    HW199397  10.630  13.098  12.166 -0.2173  0.0740  0.4006
27135SOL    HW299398  10.661  12.950  12.168 -0.3015  0.0597  0.7061
27136SOL     OW99399  12.115   7.677  11.861 -0.4140  0.1997  0.3841
27136SOL    HW199400  12.073   7.652  11.943 -0.2330  0.9310  0.7020
27136SOL    HW299401  12.042   7.700  11.803 -0.5162  0.1804  0.5049
27137SOL     OW99402   4.144  10.879   8.018 -0.6650  0.4565  0.0390
27137SOL    HW199403   4.207  10.821   7.975 -1.6619 -0.3416 -0.3849
27137SOL    HW299404   4.178  10.967   8.004  0.4258  0.0290 -0.0604
27138SOL     OW99405   3.822   9.059   9.744  0.2771  0.0896 -0.2442
27138SOL    HW199406   3.770   9.138   9.727 -1.2350 -0.6261  0.8398
27138SOL    HW299407   3.835   9.059   9.839  1.4975 -0.2374 -0.3937
27139SOL     OW99408   8.014   3.032   8.748 -0.4287 -0.1321  0.0708
27139SOL    HW199409   8.005   3.121   8.712 -0.4098 -0.5403 -0.9857
27139SOL    HW299410   8.064   3.044   8.829  5.1652  0.3326 -2.9816
27140SOL     OW99411   4.511   5.562   9.567 -0.1191 -0.3391  0.2769
27140SOL    HW199412   4.463   5.645   9.575 -0.2609 -0.2782 -1.0285
27140SOL    HW299413   4.501   5.521   9.653 -2.1308 -0.1171  0.2025
27141SOL     OW99414   1.504  13.275   0.582  0.0705 -0.0547  0.0917
27141SOL    HW199415   1.519  13.337   0.653  0.1867  0.3602 -0.2837
27141SOL    HW299416   1.570  13.207   0.594  0.0548 -0.0137  0.4081
27142SOL     OW99417   7.402   7.310   1.254  0.0232 -0.2127  0.1634
27142SOL    HW199418   7.493   7.282   1.241  0.2232 -0.4840  1.8932
27142SOL    HW299419   7.358   7.233   1.290  0.1254  1.0229  3.1899
27143SOL     OW99420  10.734  11.460   5.530 -0.2298  0.4308 -0.3785
27143SOL    HW199421  10.726  11.485   5.622 -0.6180  0.8839 -0.5307
27143SOL    HW299422  10.648  11.478   5.493 -0.1231  0.1013 -0.7983
27144SOL     OW99423   7.532   0.683   3.616 -0.2473  0.6048  0.1127
27144SOL    HW199424   7.612   0.648   3.654 -0.8411 -0.2752  0.5847
27144SOL    HW299425   7.561   0.734   3.540  0.5910 -1.7297 -1.2020
27145SOL     OW99426  13.630   6.814   6.069  0.6193 -0.7057 -0.5597
27145SOL    HW199427  13.543   6.815   6.110  0.3502 -0.5842 -1.1318
27145SOL    HW299428  13.656   6.722   6.072  0.4687 -0.7449 -0.3968
27146SOL     OW99429  11.119   7.152  13.079  0.2831 -0.1301  0.3633
27146SOL    HW199430  11.141   7.225  13.021  1.2074 -1.2549 -0.7762
27146SOL    HW299431  11.164   7.076  13.040 -0.7019 -1.3246  1.4524
27147SOL     OW99432  13.649   6.564   7.102  0.2311 -0.1076 -0.5765
27147SOL    HW199433  13.574   6.559   7.161 -0.3256  2.4570 -0.9322
27147SOL    HW299434  13.719   6.518   7.148 -1.1185 -1.2393  0.4472
27148SOL     OW99435   0.267  12.629   8.508  0.2318 -0.2935 -0.4604
27148SOL    HW199436   0.216  12.682   8.569  0.8294  1.1301 -1.1466
27148SOL    HW299437   0.336  12.590   8.561  1.4351  1.8414 -0.3640
27149SOL     OW99438   8.586   6.320  11.864 -0.1959  0.1967  0.3187
27149SOL    HW199439   8.627   6.319  11.951 -1.1009 -1.2195  0.7618
27149SOL    HW299440   8.637   6.385  11.815 -0.4981  2.0391  2.2853
27150SOL     OW99441  10.984   4.779  13.060  0.2807  0.5707  0.6437
27150SOL    HW199442  11.014   4.814  12.977  1.5542 -0.2257  0.7425
27150SOL    HW299443  10.891   4.758  13.045  0.0502  1.9537 -0.0364
27151SOL     OW99444  11.832   5.272   8.562 -0.5891  0.1595 -0.2139
27151SOL    HW199445  11.825   5.348   8.620  0.8707  0.4085 -0.3279
27151SOL    HW299446  11.800   5.303   8.477 -3.4940 -0.4258  0.5694
27152SOL     OW99447   1.702  11.716   3.101  0.0099  0.2128 -0.1214
27152SOL    HW199448   1.686  11.627   3.132 -1.4487  0.6925  0.6214
27152SOL    HW299449   1.767  11.751   3.163 -0.6277  0.1730  0.5901
27153SOL     OW99450   7.757   3.235   0.168  0.4977  0.2401  0.0459
27153SOL    HW199451   7.700   3.257   0.094 -1.1693 -0.8924  0.9056
27153SOL    HW299452   7.727   3.292   0.239 -1.3939 -2.0043  1.2251
27154SOL     OW99453  13.992   4.624   2.608 -0.5465  0.1752  0.1673
27154SOL    HW199454  13.990   4.551   2.670 -0.2489  0.6132  0.7065
27154SOL    HW299455  14.041   4.693   2.654 -1.1049  0.8281 -0.2009
27155SOL     OW99456   8.455  13.981   9.645 -0.5412 -0.1593  0.2131
27155SOL    HW199457   8.417  14.064   9.618 -0.6749 -0.0091  0.8475
27155SOL    HW299458   8.503  14.001   9.725  0.7401 -0.3808 -0.4746
27156SOL     OW99459  11.419   1.388  10.941  0.1893 -0.0043  0.9487
27156SOL    HW199460  11.376   1.350  11.018  0.3387  0.7379  1.4024
27156SOL    HW299461  11.476   1.317  10.908 -2.1860 -1.4410 -0.3712
27157SOL     OW99462   6.165  12.007   2.459 -0.4111 -0.0755 -0.2930
27157SOL    HW199463   6.111  11.929   2.474 -1.0401  0.2384 -0.8686
27157SOL    HW299464   6.255  11.975   2.464 -0.5578 -0.2694  2.6334
27158SOL     OW99465   7.800  12.185   6.651 -0.1336 -0.2341 -0.1195
27158SOL    HW199466   7.737  12.189   6.579  0.0390 -1.3681 -0.3590
27158SOL    HW299467   7.748  12.156   6.727 -0.0627 -0.3826 -0.1259
27159SOL     OW99468   7.340   2.825   9.728 -0.0517 -0.0700 -0.4046
27159SOL    HW199469   7.348   2.907   9.680  0.8173 -0.0438 -0.2325
27159SOL    HW299470   7.255   2.830   9.771  0.5955  1.4132  0.8190
27160SOL     OW99471   2.019  11.865   7.710 -0.6304  0.6042 -0.1724
27160SOL    HW199472   2.036  11.819   7.628 -0.2184 -1.0397  0.7935
27160SOL    HW299473   2.106  11.878   7.748 -0.9382 -0.9000  1.1451
27161SOL     OW99474   2.791   4.741   9.740 -0.7233 -0.3580  0.2854
27161SOL    HW199475   2.748   4.819   9.774  1.3045  0.2759  1.5870
27161SOL    HW299476   2.877   4.741   9.782  0.6115 -1.4918 -2.2258
27162SOL     OW99477   8.786   2.213   1.629  0.5822  0.1331 -0.0393
27162SOL    HW199478   8.836   2.257   1.698  3.4054 -2.2082 -0.3986
27162SOL    HW299479   8.792   2.120   1.650 -0.0684 -0.5227 -2.4276
27163SOL     OW99480  10.872  13.769   1.748 -0.5283 -0.2302 -0.3693
27163SOL    HW199481  10.946  13.737   1.800 -1.1339  0.9465  1.3245
27163SOL    HW299482  10.797  13.759   1.806 -1.2037  1.3131 -0.9314
27164SOL     OW99483   4.184   6.972   9.650 -0.2063 -0.2651 -0.6809
27164SOL    HW199484   4.221   6.960   9.738 -0.1419  0.5252 -0.5977
27164SOL    HW299485   4.248   6.931   9.591  0.5625  0.6367 -0.4932
27165SOL     OW99486   1.270   5.996  11.225 -0.0524 -0.0787 -0.5183
27165SOL    HW199487   1.174   6.001  11.231  0.0166  0.7691  0.2287
27165SOL    HW299488   1.287   5.938  11.151 -1.1509  0.4720 -1.2301
27166SOL     OW99489   0.830  10.617  12.573 -0.1489  0.4588 -0.4555
27166SOL    HW199490   0.797  10.574  12.653  1.6564  0.6197  0.4250
27166SOL    HW299491   0.790  10.704  12.575  0.0464  0.5371  0.4006
27167SOL     OW99492   4.841  11.005   1.717  0.0980  0.3145 -0.0414
27167SOL    HW199493   4.887  11.075   1.670 -0.3394  0.6235 -0.0125
27167SOL    HW299494   4.904  10.974   1.782 -0.1992  1.7086  0.9687
27168SOL     OW99495  12.015  12.208  13.448  0.3437  0.4954  0.0086
27168SOL    HW199496  12.063  12.269  13.504 -2.6208  1.7937  1.4081
27168SOL    HW299497  12.068  12.129  13.447  1.7391  1.2717  2.7153
27169SOL     OW99498   4.731  12.679   6.023  0.1158 -0.2983 -0.2280
27169SOL    HW199499   4.780  12.609   5.979  1.2194  0.4018 -0.1523
27169SOL    HW299500   4.643  12.644   6.032  0.2690 -1.0892 -1.5445
27170SOL     OW99501   0.003   6.072   2.517  0.1274 -0.0779 -0.2350
27170SOL    HW199502   0.058   6.012   2.467  0.2788 -1.4284  1.4723
27170SOL    HW299503   0.065   6.120   2.572 -0.3458 -1.4943  1.5835
27171SOL     OW99504  12.177   1.508  10.925  0.0781 -0.3919  0.9474
27171SOL    HW199505  12.162   1.427  10.875 -2.1733 -0.1912  1.2150
27171SOL    HW299506  12.191   1.478  11.015 -1.6952 -0.4951  1.2274
27172SOL     OW99507   6.353   5.391   1.822 -0.0725 -0.1571  0.0987
27172SOL    HW199508   6.408   5.315   1.842  0.5772  0.4789  0.7653
27172SOL    HW299509   6.268   5.371   1.861 -0.2825 -1.0669 -0.7808
27173SOL     OW99510   5.102   1.468  13.504 -0.0379  0.4043  0.2469
27173SOL    HW199511   5.041   1.398  13.479  0.3098  0.5899 -1.2268
27173SOL    HW299512   5.189   1.430  13.489  0.1542  1.1159 -0.5038
27174SOL     OW99513  12.626  10.871  14.097 -0.6621  0.1510  0.1292
27174SOL    HW199514  12.535  10.898  14.109 -0.1781  1.6567  0.6904
27174SOL    HW299515  12.676  10.936  14.146  0.5857 -2.3453  2.4220
27175SOL     OW99516   6.053   4.776   2.378 -0.1945 -0.0082  0.3191
27175SOL    HW199517   6.094   4.689   2.371 -1.1178 -0.6252  1.9736
27175SOL    HW299518   5.993   4.780   2.303  1.7581  0.3398 -1.3223
27176SOL     OW99519   8.015  12.740   5.881 -0.1903 -0.0269 -0.1502
27176SOL    HW199520   8.017  12.835   5.887 -1.2910 -0.0613  1.6978
27176SOL    HW299521   7.943  12.721   5.821 -1.5999  0.3371  1.3550
27177SOL     OW99522  11.470   7.696  13.251  0.7992  0.0104 -0.4071
27177SOL    HW199523  11.508   7.631  13.310  0.6338  0.0090 -0.3004
27177SOL    HW299524  11.415   7.645  13.192 -0.6874  0.2063  0.7381
27178SOL     OW99525   8.446   8.183   3.157  0.9976  0.4818 -0.5643
27178SOL    HW199526   8.459   8.254   3.220  1.7053  0.6076 -0.8475
27178SOL    HW299527   8.533   8.164   3.122  0.8431 -0.6214 -0.4019
27179SOL     OW99528  12.212   9.879   2.331 -0.5740 -0.0111  0.0899
27179SOL    HW199529  12.179   9.953   2.382  0.4604  0.8447 -0.4582
27179SOL    HW299530  12.304   9.872   2.355 -0.6243 -1.0665  0.0481
27180SOL     OW99531   6.373  10.628   7.783 -0.9118 -0.0721  0.4229
27180SOL    HW199532   6.291  10.612   7.735  0.7198 -1.6510 -2.0740
27180SOL    HW299533   6.436  10.568   7.743  1.1192 -0.0747  3.3543
27181SOL     OW99534   6.082   1.688   5.870 -0.2977  0.5153  0.4802
27181SOL    HW199535   6.020   1.679   5.797  0.9641  0.9805 -0.6855
27181SOL    HW299536   6.103   1.597   5.893  0.5003  0.3441 -0.8177
27182SOL     OW99537   7.147   3.930  11.750 -0.5178  0.4133 -0.5125
27182SOL    HW199538   7.182   3.842  11.736  0.1241  0.5466  0.1640
27182SOL    HW299539   7.215   3.988  11.717 -0.2177  0.6740  0.5224
27183SOL     OW99540   5.832  10.688   5.527 -0.5238  0.2314 -0.5662
27183SOL    HW199541   5.922  10.715   5.547 -0.6121 -1.3071  2.5145
27183SOL    HW299542   5.795  10.762   5.479  1.9743  1.4953 -0.6934
27184SOL     OW99543   1.944   4.507  12.920 -0.0305  0.3565 -0.1281
27184SOL    HW199544   2.020   4.565  12.918  1.8458 -1.9676 -0.1203
27184SOL    HW299545   1.892   4.538  12.994  1.6343  1.1223  0.7725
27185SOL     OW99546   2.727   3.134   0.221  0.5932  0.3850 -0.0089
27185SOL    HW199547   2.755   3.225   0.226  1.9711 -0.0666  3.8189
27185SOL    HW299548   2.806   3.085   0.200  0.3895 -0.0960  0.3230
27186SOL     OW99549   2.971   9.722  10.134  0.1392  0.3813  0.4758
27186SOL    HW199550   3.014   9.766  10.061 -1.9586  1.1105 -0.3763
27186SOL    HW299551   3.039   9.718  10.202  1.8788  0.4448 -1.1729
27187SOL     OW99552   3.200   8.531   8.099  0.2717 -0.0202 -0.4918
27187SOL    HW199553   3.208   8.615   8.054  0.5960 -0.0455 -0.4895
27187SOL    HW299554   3.112   8.532   8.137  0.2215  0.2583 -0.6115
27188SOL     OW99555   7.890   6.911  10.752 -0.1348  0.2699  0.0169
27188SOL    HW199556   7.808   6.876  10.716  0.1124 -0.7365  0.3839
27188SOL    HW299557   7.873   6.921  10.845  0.6183 -1.4507  0.3828
27189SOL     OW99558  13.363   3.913   0.538  0.0264 -0.2762  0.2682
27189SOL    HW199559  13.413   3.832   0.525  0.8831  0.2914  0.0218
27189SOL    HW299560  13.281   3.883   0.579  0.0243 -1.3510 -0.4614
27190SOL     OW99561   1.915   5.295  12.225 -0.1084  0.0557 -0.1175
27190SOL    HW199562   1.976   5.343  12.281 -0.2417  0.8182 -0.6106
27190SOL    HW299563   1.862   5.244  12.286  1.8926 -1.7285  0.2640
27191SOL     OW99564  13.374   2.275   5.119  0.1095 -0.2252 -0.4146
27191SOL    HW199565  13.415   2.189   5.121 -0.5331 -0.5325 -0.1556
27191SOL    HW299566  13.376   2.305   5.210  1.8792  0.7950 -0.7458
27192SOL     OW99567   4.387   2.885   2.459  1.2373  0.3193 -0.3933
27192SOL    HW199568   4.344   2.848   2.536 -1.9092  1.3263 -1.4806
27192SOL    HW299569   4.415   2.972   2.486 -1.8525  1.5772 -0.7927
27193SOL     OW99570  14.001   6.812   7.995  0.0866 -0.7445  0.0978
27193SOL    HW199571  13.988   6.901   8.030  1.0968 -0.4195 -0.3145
27193SOL    HW299572  13.950   6.811   7.914  0.3543 -0.4183 -0.0774
27194SOL     OW99573   7.138   3.527   0.922 -0.3379 -0.3284 -0.5790
27194SOL    HW199574   7.103   3.600   0.972 -0.0028 -0.4029 -0.2288
27194SOL    HW299575   7.077   3.455   0.939 -0.1940 -0.3706 -0.2262
27195SOL     OW99576  13.765   8.982  13.486  0.6684  0.1381  0.1263
27195SOL    HW199577  13.700   9.009  13.550  0.4793 -0.0770  0.0245
27195SOL    HW299578  13.847   9.022  13.517  0.4751  0.4708  0.2092
27196SOL     OW99579   3.748   6.732   5.715 -0.4973  0.5785 -0.1004
27196SOL    HW199580   3.783   6.810   5.673 -1.2065  0.4387 -0.9792
27196SOL    HW299581   3.713   6.763   5.799 -0.6129  1.1705 -0.3652
27197SOL     OW99582   3.015  11.556   0.479  0.6676  0.0902  0.7571
27197SOL    HW199583   3.039  11.608   0.555  1.0110  1.4655 -0.2527
27197SOL    HW299584   2.926  11.526   0.497  0.8913  0.0771  1.8610
27198SOL     OW99585   7.281   1.538  11.898 -0.1031  0.2675  0.3696
27198SOL    HW199586   7.254   1.474  11.831 -0.3695  1.6140 -0.8532
27198SOL    HW299587   7.373   1.520  11.913  0.0077  0.0546 -0.5117
27199SOL     OW99588  12.807  11.316  12.530  0.0174 -0.3021  0.1413
27199SOL    HW199589  12.903  11.323  12.529 -0.0887  2.7714  0.3236
27199SOL    HW299590  12.788  11.252  12.598  1.9489  0.2516  1.2918
27200SOL     OW99591   1.853  11.210   4.881  0.1044  0.3403  0.2480
27200SOL    HW199592   1.773  11.253   4.851 -0.8588 -0.9196  0.8923
27200SOL    HW299593   1.894  11.272   4.941  1.0011  2.0625 -1.9963
27201SOL     OW99594  10.279   2.756   6.418  0.3542  0.7481  0.7910
27201SOL    HW199595  10.338   2.805   6.475  0.5100  2.1739 -0.5381
27201SOL    HW299596  10.338   2.713   6.355  0.0750  0.6501  0.5955
27202SOL     OW99597   0.699   0.372  12.202 -0.1657  0.1160 -0.0808
27202SOL    HW199598   0.610   0.386  12.170 -0.2103 -0.4874 -0.2275
27202SOL    HW299599   0.723   0.286  12.170 -0.6444 -1.0625  2.4493
27203SOL     OW99600   7.727  14.097   1.544 -0.1644 -0.3047 -0.1619
27203SOL    HW199601   7.759  14.019   1.588 -2.6697 -1.7739 -0.7618
27203SOL    HW299602   7.658  14.130   1.601 -1.4163 -0.5143 -1.4977
27204SOL     OW99603   2.850   7.332   0.234  0.2900  0.2571 -0.3834
27204SOL    HW199604   2.790   7.345   0.308  1.7672  1.0028  0.7542
27204SOL    HW299605   2.822   7.250   0.194 -0.1615 -0.5317  1.4235
27205SOL     OW99606   6.141   9.284   3.588  0.0838  0.3424  0.5866
27205SOL    HW199607   6.199   9.212   3.612 -1.0517 -0.2716  1.6032
27205SOL    HW299608   6.200   9.357   3.569  1.2441 -0.7196 -0.0895
27206SOL     OW99609  13.339   5.650  12.116 -0.2130  0.0876 -0.1328
27206SOL    HW199610  13.247   5.650  12.145 -0.8336 -1.1020 -1.9054
27206SOL    HW299611  13.380   5.578  12.164  0.0160  1.0350  1.1625
27207SOL     OW99612  12.746  12.187   0.106  0.1277  0.3808 -0.3944
27207SOL    HW199613  12.721  12.252   0.172 -1.1431  0.3229 -0.7915
27207SOL    HW299614  12.670  12.182   0.048  0.1571 -1.5178 -0.3255
27208SOL     OW99615   2.298   5.708   9.802  0.9341  0.1650  0.1796
27208SOL    HW199616   2.341   5.779   9.850  0.3530  0.5513  0.1359
27208SOL    HW299617   2.237   5.752   9.743  0.1100 -0.3904  0.5990
27209SOL     OW99618   9.226   1.103   4.568 -0.4185  0.2937  0.5938
27209SOL    HW199619   9.277   1.161   4.624 -0.1424 -0.9273  1.6625
27209SOL    HW299620   9.213   1.024   4.621 -0.8306 -0.6007 -0.7813
27210SOL     OW99621  12.119  12.791   4.909 -0.2586  0.0720  0.2592
27210SOL    HW199622  12.100  12.702   4.878 -0.1028 -1.1245  3.2986
27210SOL    HW299623  12.213  12.802   4.895  0.0694 -0.9837  1.5141
27211SOL     OW99624   4.128   9.025   3.334  0.2135 -0.4117  0.3729
27211SOL    HW199625   4.189   9.052   3.403 -1.2666 -1.0494  2.0024
27211SOL    HW299626   4.151   8.934   3.317  0.8769 -0.1207 -0.3265
27212SOL     OW99627  11.678   6.096   7.153 -0.0653  0.2549  0.6597
27212SOL    HW199628  11.611   6.037   7.119  0.4159 -0.1445  0.3986
27212SOL    HW299629  11.756   6.076   7.103  0.2585  0.7122  0.9699
27213SOL     OW99630   2.162   4.924   7.460 -0.1353 -0.2775  0.4964
27213SOL    HW199631   2.157   4.955   7.551  0.9406  1.3219  0.0455
27213SOL    HW299632   2.241   4.965   7.425 -0.3422 -1.1566 -1.0697
27214SOL     OW99633   9.788   4.262   4.872 -0.0890 -0.2810  0.0840
27214SOL    HW199634   9.832   4.326   4.816 -1.2364 -0.2502 -0.8208
27214SOL    HW299635   9.764   4.191   4.813  1.4831 -1.7629  1.1353
27215SOL     OW99636  11.501   5.842  12.261 -0.4206  0.0651  0.1220
27215SOL    HW199637  11.501   5.937  12.263 -2.3063  0.0839  1.4038
27215SOL    HW299638  11.586   5.819  12.223  0.2549  2.2294  0.1939
27216SOL     OW99639   6.525  10.772   5.549  0.3028  0.1260 -0.0892
27216SOL    HW199640   6.538  10.852   5.498  0.3462  0.7629  0.8926
27216SOL    HW299641   6.465  10.798   5.618  0.7057 -0.5678  0.5254
27217SOL     OW99642   7.048   3.677   2.010  0.1611  0.8896  0.5800
27217SOL    HW199643   7.131   3.661   2.055 -1.3497 -0.4322  3.0812
27217SOL    HW299644   7.024   3.766   2.036 -0.0642  0.6127  1.3372
27218SOL     OW99645   1.594   1.652  12.815  0.0246  0.7668  0.2567
27218SOL    HW199646   1.565   1.720  12.754  0.1829  0.7089  0.1163
27218SOL    HW299647   1.689   1.649  12.804 -0.0991 -0.4157 -0.7229
27219SOL     OW99648   5.642  11.389   4.808 -0.1779 -0.0916  0.4167
27219SOL    HW199649   5.610  11.302   4.833 -1.5543  0.2758 -0.0095
27219SOL    HW299650   5.728  11.371   4.769  0.1260 -1.1101  1.4777
27220SOL     OW99651   8.537   0.532   1.236 -0.3267 -0.5168  0.0457
27220SOL    HW199652   8.555   0.441   1.214  0.2121  0.0224 -2.0467
27220SOL    HW299653   8.624   0.570   1.251 -0.5724 -0.4137  1.2464
27221SOL     OW99654   0.952  13.424   6.081  0.3847  0.4602 -0.2924
27221SOL    HW199655   0.869  13.422   6.129  0.5270  3.3040  0.2919
27221SOL    HW299656   1.018  13.405   6.148  0.3194  0.2371 -0.2922
27222SOL     OW99657  13.914  13.766   4.012 -0.1678  0.4519  0.0648
27222SOL    HW199658  13.988  13.773   4.071  0.7196 -2.2747 -0.5591
27222SOL    HW299659  13.874  13.681   4.033  0.8631 -1.2508 -3.7465
27223SOL     OW99660   1.615  13.923  13.177 -0.5306 -0.4076  0.0155
27223SOL    HW199661   1.702  13.911  13.139 -0.6259 -1.6049  0.1361
27223SOL    HW299662   1.631  13.972  13.258 -0.1106  0.3685 -0.5165
27224SOL     OW99663   1.303   0.359   6.922 -0.5284  0.1301 -0.2921
27224SOL    HW199664   1.320   0.451   6.942 -2.3071  0.4739 -0.1953
27224SOL    HW299665   1.384   0.327   6.883  1.1030  0.9909  2.1227
27225SOL     OW99666   8.695   2.072  14.124  0.3742 -0.8947  0.0228
27225SOL    HW199667   8.635   2.050  14.196  0.3685 -0.6160  0.1035
27225SOL    HW299668   8.782   2.058  14.161  0.3987 -4.0535 -0.9136
27226SOL     OW99669   2.867   9.741  10.556 -0.3654 -0.2308 -0.2498
27226SOL    HW199670   2.953   9.712  10.528 -0.2576 -3.0359  2.4684
27226SOL    HW299671   2.808   9.670  10.533 -1.3073  0.1001  0.9925
27227SOL     OW99672   2.552   9.161   6.488  0.2719  0.0029  0.1430
27227SOL    HW199673   2.552   9.191   6.398 -1.2726  1.3599  0.5483
27227SOL    HW299674   2.541   9.240   6.541  1.3178 -0.7303  1.5496
27228SOL     OW99675   5.969  14.111   8.879 -0.1369 -0.4673 -0.0178
27228SOL    HW199676   5.965  14.017   8.896 -2.5929 -0.6937 -1.3437
27228SOL    HW299677   6.005  14.148   8.960  1.5040 -2.5588  0.2860
27229SOL     OW99678   7.750  13.329   3.203 -0.1931  0.3090  0.2587
27229SOL    HW199679   7.707  13.332   3.118  1.5045 -0.9436 -0.7078
27229SOL    HW299680   7.787  13.241   3.208  0.9404  0.8276  1.6880
27230SOL     OW99681  12.542  10.282  10.116  1.1165  0.3384 -0.0846
27230SOL    HW199682  12.593  10.275  10.197 -0.0281  0.5228  0.6744
27230SOL    HW299683  12.459  10.321  10.143  1.2540  1.7591 -1.6020
27231SOL     OW99684   5.172  12.874   2.080  0.0188 -0.3289 -0.1246
27231SOL    HW199685   5.245  12.873   2.018  0.1847 -0.2262  0.0705
27231SOL    HW299686   5.210  12.844   2.162  0.1543  1.0204  0.3276
27232SOL     OW99687   8.791   3.319   7.418 -0.0878  0.1715 -0.3978
27232SOL    HW199688   8.737   3.371   7.358  0.1867  0.4069 -0.4415
27232SOL    HW299689   8.813   3.380   7.488 -0.9074 -0.2651  0.2571
27233SOL     OW99690  10.100   1.404   0.558 -0.3550  0.6075 -0.6118
27233SOL    HW199691  10.058   1.377   0.639  0.7435  2.1377  0.5335
27233SOL    HW299692  10.144   1.326   0.527  0.6221  0.3620  1.2221
27234SOL     OW99693   3.762  14.118   4.245 -0.1523  0.1607  0.5144
27234SOL    HW199694   3.764  14.028   4.276 -0.0930  0.3527  1.0843
27234SOL    HW299695   3.674  14.129   4.209  0.0246 -0.2866 -0.0726
27235SOL     OW99696  13.163  12.628   6.195  0.1489  0.3918  0.0094
27235SOL    HW199697  13.126  12.605   6.110  1.1329 -0.8488 -0.1072
27235SOL    HW299698  13.257  12.641   6.178  0.1270  1.5518  0.6482
27236SOL     OW99699  11.505   7.391  11.527 -0.0248 -0.3005 -0.9777
27236SOL    HW199700  11.548   7.310  11.553 -0.9938 -1.2000 -2.0453
27236SOL    HW299701  11.462   7.422  11.606  3.2127  1.1479  0.4050
27237SOL     OW99702  10.156   6.625   0.618 -0.0986 -0.0872 -0.4822
27237SOL    HW199703  10.131   6.557   0.680  2.3267  2.1173  3.2626
27237SOL    HW299704  10.240   6.595   0.582 -0.2313 -0.1901 -0.7058
27238SOL     OW99705  14.129  13.976   3.500 -0.4376 -0.4698 -0.6166
27238SOL    HW199706  14.219  14.006   3.510 -1.0842  1.4884 -0.2326
27238SOL    HW299707  14.137  13.884   3.472  1.6342 -0.7471  0.6644
27239SOL     OW99708   0.283  13.267  10.775 -0.1608  0.2277  0.2723
27239SOL    HW199709   0.304  13.194  10.716 -0.5200 -0.1072  0.5519
27239SOL    HW299710   0.263  13.225  10.859  0.0004  0.6782  0.5359
27240SOL     OW99711   2.743   9.343   8.966  0.2090  0.0012 -0.8627
27240SOL    HW199712   2.801   9.356   9.041 -1.2233  1.4615  0.0413
27240SOL    HW299713   2.694   9.425   8.959  0.6364  0.1068 -3.7111
27241SOL     OW99714  13.339  11.073   6.324 -0.0088  0.4448 -0.3050
27241SOL    HW199715  13.251  11.070   6.286 -0.9527 -0.7939  1.7619
27241SOL    HW299716  13.367  10.981   6.326  1.4174  0.8359 -1.0580
27242SOL     OW99717   0.482   4.384   1.438  0.0148  0.1325 -0.6553
27242SOL    HW199718   0.545   4.351   1.502  1.1208  0.4986 -1.5091
27242SOL    HW299719   0.535   4.400   1.359 -1.3133 -0.3469 -1.6686
27243SOL     OW99720   6.296   7.059  13.066  0.2607  0.2869  0.2837
27243SOL    HW199721   6.337   6.975  13.047 -0.6305 -0.3826  1.1863
27243SOL    HW299722   6.213   7.056  13.018 -0.2691  0.1784  1.1887
27244SOL     OW99723  12.660   6.428  14.057  0.3910 -0.3231  0.5321
27244SOL    HW199724  12.656   6.523  14.043  0.4672 -0.2694  0.8745
27244SOL    HW299725  12.621   6.391  13.978  2.1472 -0.0661 -0.5112
27245SOL     OW99726   1.929   5.161   2.924  0.0674  0.1830  0.0994
27245SOL    HW199727   1.944   5.253   2.903 -0.5445  0.5384  1.1109
27245SOL    HW299728   1.980   5.113   2.859 -0.1172  1.2206 -0.8550
27246SOL     OW99729   1.629   0.625   0.908  0.0390  0.3952 -0.1631
27246SOL    HW199730   1.702   0.620   0.969  0.8998  1.6047 -1.0345
27246SOL    HW299731   1.571   0.692   0.945 -0.1328  0.1414  0.0272
27247SOL     OW99732   7.202   2.115  11.165 -0.1420 -0.2374 -0.2311
27247SOL    HW199733   7.271   2.065  11.207 -0.7660 -1.4479 -0.6065
27247SOL    HW299734   7.176   2.180  11.230  0.4089 -0.6560  0.4171
27248SOL     OW99735   5.112  11.416   5.004  0.2215 -0.3961  0.2412
27248SOL    HW199736   5.140  11.432   5.094 -0.4503  0.3030  0.3359
27248SOL    HW299737   5.171  11.470   4.951 -1.0205  1.2422  0.4540
27249SOL     OW99738   8.867  13.854   7.438 -0.2418 -0.3528  0.1689
27249SOL    HW199739   8.822  13.798   7.376 -1.0594 -0.4104  0.7942
27249SOL    HW299740   8.851  13.943   7.406  2.0759 -0.4515 -1.5119
27250SOL     OW99741  10.908  10.155  13.161 -0.5453  0.2623 -0.2220
27250SOL    HW199742  11.000  10.131  13.151 -0.6164  0.2995 -1.0798
27250SOL    HW299743  10.863  10.103  13.095 -1.3253 -0.7297  1.0684
27251SOL     OW99744   1.515  13.952  12.300  0.0336 -0.0897 -0.3718
27251SOL    HW199745   1.523  14.000  12.382  0.5832  0.7129 -0.8787
27251SOL    HW299746   1.423  13.926  12.296  0.0867 -0.4788  0.6731
27252SOL     OW99747   5.472   5.168   4.062 -0.3052  0.3597  0.0498
27252SOL    HW199748   5.454   5.132   4.148 -3.3585  1.6400  0.0800
27252SOL    HW299749   5.553   5.218   4.073  0.3341 -0.9433  1.6668
27253SOL     OW99750  13.426   4.526   0.910  0.0151  0.3670  0.1272
27253SOL    HW199751  13.375   4.606   0.918  0.3749  0.9007 -2.1576
27253SOL    HW299752  13.423   4.505   0.816  0.9324 -1.6251  0.4895
27254SOL     OW99753   9.517   0.572  11.240 -0.6463  0.6325 -1.3853
27254SOL    HW199754   9.522   0.478  11.224 -0.5613  0.6177 -1.2800
27254SOL    HW299755   9.438   0.601  11.195 -0.5306  0.5560 -1.6354
27255SOL     OW99756   9.759   0.646   4.000 -0.4090  0.3216 -0.2057
27255SOL    HW199757   9.810   0.720   4.031 -0.9429  1.0416 -0.9897
27255SOL    HW299758   9.758   0.656   3.904  1.4078 -1.9450 -0.5836
27256SOL     OW99759   0.563   1.059   4.025  0.5641 -0.3492 -0.1070
27256SOL    HW199760   0.528   1.147   4.036 -0.6426 -0.4733 -2.2956
27256SOL    HW299761   0.605   1.061   3.939  1.1779 -1.7071  0.1399
27257SOL     OW99762   9.249   2.920   2.757 -0.6346  0.2186 -0.0103
27257SOL    HW199763   9.187   2.867   2.807 -1.1912  0.7188 -0.1463
27257SOL    HW299764   9.229   2.900   2.665 -0.1344 -0.1204 -0.0501
27258SOL     OW99765   5.503   2.539   8.710 -0.0351 -0.0350  0.0651
27258SOL    HW199766   5.594   2.536   8.681 -0.2671 -0.8012 -0.6131
27258SOL    HW299767   5.496   2.467   8.773 -0.0679  0.3032  0.4536
27259SOL     OW99768   2.353   9.408   8.325 -0.4177  0.3038 -0.1342
27259SOL    HW199769   2.356   9.371   8.237  0.3040 -1.8120  0.7281
27259SOL    HW299770   2.263   9.439   8.335 -0.3849  1.0664 -1.7594
27260SOL     OW99771   2.868   7.220   4.043 -0.2975 -0.5797 -0.1491
27260SOL    HW199772   2.843   7.312   4.044 -0.8282 -0.7205  1.3876
27260SOL    HW299773   2.937   7.215   3.977 -2.0164  0.4313 -2.1567
27261SOL     OW99774   9.197   9.090   9.455 -0.2837  0.3827  0.5433
27261SOL    HW199775   9.236   9.068   9.371 -1.9480 -0.6188 -0.0234
27261SOL    HW299776   9.121   9.144   9.433 -1.2702 -0.6441  1.2924
27262SOL     OW99777   5.610   4.132  11.144 -0.0156 -0.0848 -0.1461
27262SOL    HW199778   5.572   4.220  11.139 -1.4368 -0.7398 -2.7816
27262SOL    HW299779   5.690   4.137  11.092 -0.0241 -0.3343 -0.1848
27263SOL     OW99780  13.701   7.900   3.802 -0.9060  0.2590  0.1388
27263SOL    HW199781  13.669   7.810   3.788 -2.1320  0.7349 -0.2177
27263SOL    HW299782  13.652   7.931   3.878  0.3919  0.2420  1.0259
27264SOL     OW99783   8.169  10.800  12.607 -0.0728  0.1629 -0.0365
27264SOL    HW199784   8.172  10.754  12.690 -0.1871  1.5563  0.7752
27264SOL    HW299785   8.108  10.750  12.554 -1.9187  0.5711  1.5872
27265SOL     OW99786   3.486  10.821   4.516 -0.6110 -0.1253 -0.2178
27265SOL    HW199787   3.484  10.913   4.488  0.0628 -0.1114 -0.2559
27265SOL    HW299788   3.572  10.790   4.486 -0.6275 -0.6240  0.2478
27266SOL     OW99789  13.932   4.570   0.181  0.0538  0.0029  0.1286
27266SOL    HW199790  13.958   4.660   0.162 -1.2519  0.0238 -1.8234
27266SOL    HW299791  13.869   4.548   0.113  2.1773 -3.2809 -0.9973
27267SOL     OW99792   4.806   0.721  11.222 -0.0701 -0.1685 -0.0094
27267SOL    HW199793   4.874   0.787  11.232 -0.9217  0.9057 -1.0647
27267SOL    HW299794   4.850   0.638  11.241  1.0587  0.6637  1.1677
27268SOL     OW99795  13.052   2.637   4.611 -0.2247 -0.1671  0.2388
27268SOL    HW199796  13.002   2.556   4.598 -0.5555  0.2176 -0.9617
27268SOL    HW299797  12.994   2.692   4.665  0.1836 -0.8705  1.4386
27269SOL     OW99798  10.536   2.588   3.833  0.2993 -0.3753  0.0143
27269SOL    HW199799  10.559   2.638   3.755 -1.4048  0.2528 -0.1368
27269SOL    HW299800  10.450   2.550   3.812  0.2826 -1.0361  1.2008
27270SOL     OW99801   7.301   4.360  13.089  0.4338 -0.2796 -0.6086
27270SOL    HW199802   7.322   4.408  13.169 -0.4304 -1.0339  0.0834
27270SOL    HW299803   7.315   4.424  13.019 -1.4794  1.2829  0.3450
27271SOL     OW99804  12.656  12.423  12.942  0.0850  0.1799  0.1335
27271SOL    HW199805  12.566  12.405  12.968  0.2498 -2.1465 -0.6801
27271SOL    HW299806  12.652  12.507  12.896 -1.1197  1.5700  2.5617
27272SOL     OW99807  11.806  13.728   6.056 -0.4680  0.5398  0.0002
27272SOL    HW199808  11.843  13.653   6.009 -1.4637  1.2708 -2.1005
27272SOL    HW299809  11.881  13.784   6.077  0.0314  0.0902 -0.5681
27273SOL     OW99810  13.489   3.224  11.215  0.0275 -0.1511 -0.1590
27273SOL    HW199811  13.433   3.299  11.236  2.2857  1.1924  1.4322
27273SOL    HW299812  13.544   3.254  11.144  0.1932 -0.6980 -0.2651
27274SOL     OW99813  10.135   6.208   1.079  0.3248 -0.2270 -0.4278
27274SOL    HW199814  10.113   6.194   1.171  0.5665  2.5033  0.1136
27274SOL    HW299815  10.091   6.289   1.056  0.4917 -0.7099 -2.6814
27275SOL     OW99816  14.136   1.077   0.430  0.1072  0.1410  0.4483
27275SOL    HW199817  14.115   0.987   0.405  2.2724  0.0530 -1.3891
27275SOL    HW299818  14.085   1.131   0.370 -0.3775  0.1267  0.8417
27276SOL     OW99819   9.533   4.035   3.275  0.4391 -0.6701  0.6676
27276SOL    HW199820   9.578   4.005   3.354  2.2254  0.9780  0.3371
27276SOL    HW299821   9.595   4.017   3.204 -0.5311 -0.7593 -0.1810
27277SOL     OW99822   4.778  11.360   5.233 -0.0769  0.3126  0.4076
27277SOL    HW199823   4.717  11.405   5.175 -0.7815 -2.3835 -1.1314
27277SOL    HW299824   4.726  11.342   5.312 -0.2942  0.7164  0.3614
27278SOL     OW99825   4.948  13.241   9.079 -0.5496  0.8777  0.2404
27278SOL    HW199826   5.031  13.263   9.038 -0.4674  2.2103  1.0474
27278SOL    HW299827   4.960  13.152   9.113  0.7953  1.3037  0.9292
27279SOL     OW99828   1.559   6.785  12.967  0.2086  0.1044  0.1610
27279SOL    HW199829   1.523   6.820  13.049  0.0776 -0.3407  0.2977
27279SOL    HW299830   1.537   6.850  12.901  0.8980  0.7930  0.5907
27280SOL     OW99831   9.428   9.140   9.589 -0.0083  0.3314  0.4089
27280SOL    HW199832   9.460   9.061   9.545 -1.8842 -0.0160 -0.4360
27280SOL    HW299833   9.342   9.157   9.550  0.2585  2.7200  0.6936
27281SOL     OW99834  13.498  13.206   6.648  0.7459  0.1442  0.6533
27281SOL    HW199835  13.431  13.224   6.582  0.1043 -0.1346  1.2144
27281SOL    HW299836  13.538  13.124   6.619 -1.3987 -1.5072  2.0043
27282SOL     OW99837  10.555   3.785   2.308  0.0749  0.9046  0.1994
27282SOL    HW199838  10.642   3.784   2.267  0.3924 -0.5392  0.8162
27282SOL    HW299839  10.568   3.737   2.390 -0.9388  2.1690  1.1320
27283SOL     OW99840   6.171   8.176   6.228 -0.2269 -0.4346 -0.2263
27283SOL    HW199841   6.158   8.088   6.193  0.1676 -0.2928 -0.7521
27283SOL    HW299842   6.248   8.168   6.285 -1.6151 -0.9408  1.6552
27284SOL     OW99843  11.145  13.209   5.761  0.6244  0.6285 -0.3870
27284SOL    HW199844  11.189  13.138   5.806 -2.1134 -0.6367  0.5437
27284SOL    HW299845  11.132  13.177   5.671  0.1952  0.2993 -0.2128
27285SOL     OW99846   5.550   2.425   0.649  0.3174 -0.2598 -0.1040
27285SOL    HW199847   5.593   2.405   0.732 -1.7979  0.2105  1.1756
27285SOL    HW299848   5.543   2.520   0.649 -0.7978 -0.3302 -0.2041
27286SOL     OW99849  12.489  14.037   9.694  0.2224  0.4119  0.2352
27286SOL    HW199850  12.495  14.068   9.785 -0.8197  0.9712  0.1299
27286SOL    HW299851  12.397  14.046   9.672 -0.3014 -3.2729  0.3220
27287SOL     OW99852   7.975  13.489   4.021  0.2046  0.1004 -0.3070
27287SOL    HW199853   8.013  13.483   3.934 -1.0729  0.6583 -0.9261
27287SOL    HW299854   7.881  13.485   4.007  0.0006 -0.8332  1.1506
27288SOL     OW99855   5.112   7.278   9.270 -0.1698 -0.7583  0.3830
27288SOL    HW199856   5.125   7.294   9.176 -1.0749  0.9514  0.5017
27288SOL    HW299857   5.168   7.203   9.290  1.0178 -0.3632 -1.2582
27289SOL     OW99858   2.307  13.582   5.893  0.7415  0.6465  0.0925
27289SOL    HW199859   2.289  13.538   5.976  0.6319 -0.1217 -0.3341
27289SOL    HW299860   2.402  13.578   5.884  0.6332 -0.8694 -0.6690
27290SOL     OW99861   5.524   5.889  10.197  0.3456 -0.1513  0.4069
27290SOL    HW199862   5.610   5.875  10.157 -0.2575 -0.1141 -0.9445
27290SOL    HW299863   5.536   5.863  10.289  1.8726  0.1534  0.3177
27291SOL     OW99864   2.022  13.504  14.015 -0.5267 -0.1752 -0.7088
27291SOL    HW199865   1.992  13.594  14.014 -0.7195 -0.2003 -3.7592
27291SOL    HW299866   2.069  13.492  13.933  0.0130 -2.7057 -0.1410
27292SOL     OW99867  12.389   3.846   0.821  0.0403 -0.2639  0.1314
27292SOL    HW199868  12.328   3.914   0.850 -0.9160 -1.0225 -0.0582
27292SOL    HW299869  12.436   3.886   0.748  0.2005  0.5373  0.6591
27293SOL     OW99870   6.843   9.250   3.810  0.4563 -0.4606  0.4115
27293SOL    HW199871   6.927   9.205   3.814  1.3126  1.0839  0.7264
27293SOL    HW299872   6.859   9.335   3.853  0.0986  1.8683 -3.5728
27294SOL     OW99873  11.366   2.940   1.134  0.4206 -0.3843 -1.0054
27294SOL    HW199874  11.442   2.996   1.150  0.2128 -0.3997  0.0580
27294SOL    HW299875  11.374   2.916   1.041  2.7456 -1.9579 -0.4603
27295SOL     OW99876   3.176   8.875   9.763 -0.3707 -0.4060 -0.3446
27295SOL    HW199877   3.234   8.804   9.738 -0.3646 -0.5815  0.1712
27295SOL    HW299878   3.232   8.938   9.808 -1.0186 -1.9427  2.9375
27296SOL     OW99879   2.974   6.588   6.070 -0.3607 -0.4235 -0.2874
27296SOL    HW199880   3.051   6.596   6.126  0.8026 -2.6508 -1.4027
27296SOL    HW299881   2.901   6.617   6.124  1.2394  1.8735  0.7750
27297SOL     OW99882   9.913   7.941  10.476  0.1686 -0.1499 -0.1046
27297SOL    HW199883   9.970   7.869  10.449 -0.2108 -0.2812 -0.5699
27297SOL    HW299884   9.862   7.906  10.549  0.1898 -0.2551 -0.1399
27298SOL     OW99885   0.073   8.013   3.094  0.1657 -0.2330  0.5306
27298SOL    HW199886   0.037   8.101   3.085 -1.2376 -0.8344 -0.1042
27298SOL    HW299887   0.153   8.014   3.042  0.2965  0.7210  0.7325
27299SOL     OW99888  12.414   3.907   5.589 -0.1882 -0.1135  0.2381
27299SOL    HW199889  12.432   3.832   5.531  0.6161  0.4172 -0.2236
27299SOL    HW299890  12.466   3.889   5.667  1.7123  0.9321 -0.6982
27300SOL     OW99891   8.917   4.440  10.382  0.0875 -0.0459  0.0815
27300SOL    HW199892   8.932   4.420  10.474 -1.3816 -0.4418  0.2510
27300SOL    HW299893   8.865   4.367  10.349  0.1316  0.3555 -0.9348
27301SOL     OW99894   1.550  13.021   0.097 -0.5208 -0.2334  0.3424
27301SOL    HW199895   1.505  12.966   0.033  1.0260 -0.3059 -0.7504
27301SOL    HW299896   1.637  13.034   0.059  0.4924 -0.3759  2.4973
27302SOL     OW99897   1.259   9.090   0.020 -0.2733 -0.4416  0.8640
27302SOL    HW199898   1.248   9.012  -0.034  2.0176  0.6084 -1.2934
27302SOL    HW299899   1.354   9.101   0.029 -0.5467  1.3015  2.3716
27303SOL     OW99900  13.219   9.575   0.037 -0.0188 -0.1316  0.1295
27303SOL    HW199901  13.168   9.513   0.089  0.3739 -0.5068  0.0648
27303SOL    HW299902  13.265   9.628   0.102  0.5038 -0.6269  0.1653
27304SOL     OW99903  11.560   4.335  13.807  0.2778 -0.8091  0.2043
27304SOL    HW199904  11.481   4.333  13.860  0.7905 -1.6724  0.9511
27304SOL    HW299905  11.632   4.342  13.869  0.7896  0.4868 -0.4883
27305SOL     OW99906   8.374   5.122  10.002 -0.0404  0.1132  0.7210
27305SOL    HW199907   8.289   5.165   9.988 -0.6241 -0.8469  1.1728
27305SOL    HW299908   8.393   5.079   9.919  0.9879  1.9099 -0.0430
27306SOL     OW99909  12.350   1.342   1.012 -0.2275  0.3759 -0.1872
27306SOL    HW199910  12.425   1.283   1.015 -0.2661  0.3576  0.5677
27306SOL    HW299911  12.275   1.284   1.000 -0.1287  0.3982 -1.0025
27307SOL     OW99912  10.231  11.717   3.702  0.3757  0.0938 -0.5157
27307SOL    HW199913  10.286  11.754   3.633  0.8233 -1.1920 -0.8588
27307SOL    HW299914  10.278  11.737   3.783  1.6127 -1.3810 -0.8344
27308SOL     OW99915   1.128  13.637   6.430  0.4569  0.0012 -0.1852
27308SOL    HW199916   1.090  13.559   6.470 -1.8892  0.9379 -0.3951
27308SOL    HW299917   1.171  13.605   6.351 -2.3969 -0.9456 -1.5039
27309SOL     OW99918   3.858  13.378  12.704  0.1504 -0.2054  0.7145
27309SOL    HW199919   3.842  13.470  12.725 -0.6280 -0.2428  0.3160
27309SOL    HW299920   3.814  13.330  12.775  1.0998 -0.2683  1.2722
27310SOL     OW99921   6.457   2.976   4.137 -0.7078 -0.0382 -0.3177
27310SOL    HW199922   6.372   2.932   4.146 -1.0001  0.4888 -0.4763
27310SOL    HW299923   6.435   3.067   4.117 -0.1021 -0.1348 -1.5312
27311SOL     OW99924  11.727   6.335   7.418 -0.5612  0.2895 -0.5056
27311SOL    HW199925  11.725   6.427   7.447 -1.0584  0.3462 -0.6994
27311SOL    HW299926  11.720   6.340   7.323 -0.3974  0.0574 -0.5285
27312SOL     OW99927  11.199  11.187   1.121  0.1190 -0.6182 -0.1560
27312SOL    HW199928  11.107  11.209   1.106  0.3007 -0.8752 -1.8439
27312SOL    HW299929  11.200  11.140   1.205 -1.3372 -0.9755 -0.3253
27313SOL     OW99930  10.890   6.408   2.682  0.7411  0.1573  0.0957
27313SOL    HW199931  10.862   6.493   2.716  0.4632 -0.1184  0.5893
27313SOL    HW299932  10.939   6.369   2.754  1.9900  0.4268 -0.5955
27314SOL     OW99933  10.546  12.946   1.812  0.2496  0.0738  0.2347
27314SOL    HW199934  10.584  13.017   1.864  1.2736 -0.2847 -0.0066
27314SOL    HW299935  10.500  12.892   1.875  0.0634  0.5629  0.5236
27315SOL     OW99936   0.490  11.575  11.757 -0.1294 -0.1073  0.1440
27315SOL    HW199937   0.422  11.553  11.694  0.5431  0.5928 -0.8567
27315SOL    HW299938   0.542  11.643  11.714  0.2071  0.5758  1.5579
27316SOL     OW99939  12.605   0.798   6.790 -0.5344  0.4687  0.4975
27316SOL    HW199940  12.666   0.854   6.838 -0.2763  0.5779  0.0524
27316SOL    HW299941  12.537   0.858   6.758 -0.9974  0.3156  1.1729
27317SOL     OW99942   8.108   4.077  13.646 -0.1227 -0.0954  0.8989
27317SOL    HW199943   8.199   4.089  13.673  0.4238  0.8718 -1.1991
27317SOL    HW299944   8.082   3.994  13.686  2.1754 -1.1715  0.3185
27318SOL     OW99945   9.231   4.239   5.182  0.6101  0.0474  0.2071
27318SOL    HW199946   9.139   4.265   5.182  1.0065  1.5947  0.8873
27318SOL    HW299947   9.239   4.177   5.110 -1.2225 -1.1456  0.9908
27319SOL     OW99948   0.310   6.001   4.832 -0.7076 -0.0485 -0.4324
27319SOL    HW199949   0.333   5.931   4.892 -0.2506  0.0175 -0.5328
27319SOL    HW299950   0.346   5.975   4.747  0.5923  0.8894 -0.2075
27320SOL     OW99951   3.238  12.825   1.152  0.5735 -0.0317 -0.0496
27320SOL    HW199952   3.231  12.824   1.247  2.3457  0.0820  0.1114
27320SOL    HW299953   3.248  12.733   1.127 -2.0991 -0.2999 -0.3684
27321SOL     OW99954   2.412   9.167  10.923  0.2143  0.0302 -0.3004
27321SOL    HW199955   2.472   9.094  10.913  0.2470  0.3745 -3.4415
27321SOL    HW299956   2.325   9.129  10.907  0.0409  0.3565 -0.1456
27322SOL     OW99957  10.394   9.605  13.781 -0.5931 -0.8958 -0.0971
27322SOL    HW199958  10.417   9.582  13.871  1.8503 -0.2153 -0.4816
27322SOL    HW299959  10.370   9.522  13.740 -1.1675 -1.2934  1.0049
27323SOL     OW99960  12.127   9.371   7.726 -0.1494  1.5275  0.2138
27323SOL    HW199961  12.066   9.369   7.652 -0.3423  4.2869  0.2076
27323SOL    HW299962  12.172   9.455   7.718  4.5274 -0.7117 -0.3682
27324SOL     OW99963   6.677   9.829   5.652  0.5179  0.1751 -0.3085
27324SOL    HW199964   6.666   9.835   5.747 -2.0688  0.5195 -0.5636
27324SOL    HW299965   6.722   9.911   5.628  1.6321 -0.1300  0.6252
27325SOL     OW99966   2.606   1.281   9.662 -0.3211 -0.3837 -0.6436
27325SOL    HW199967   2.560   1.360   9.634  0.1879  0.2560  0.2699
27325SOL    HW299968   2.653   1.251   9.584  0.5521  0.9790 -0.6776
27326SOL     OW99969   5.635   8.855   6.343  0.3620  0.8185 -0.2377
27326SOL    HW199970   5.724   8.851   6.308  0.5184 -1.0857  0.2726
27326SOL    HW299971   5.602   8.765   6.336  0.2385  0.3341  3.9268
27327SOL     OW99972   7.129   0.223  13.693  0.0752  0.0240  0.1280
27327SOL    HW199973   7.124   0.306  13.741  2.0203  0.6316 -0.6162
27327SOL    HW299974   7.157   0.160  13.759  1.1443  0.5227  0.1808
27328SOL     OW99975  11.898   5.259   0.986 -0.6676  0.2249  0.0653
27328SOL    HW199976  11.982   5.216   0.972  0.0409  0.9032  1.9386
27328SOL    HW299977  11.888   5.318   0.911 -0.5990 -1.4945 -1.3604
27329SOL     OW99978  14.103  13.363   9.994  0.2035  0.2861 -0.0824
27329SOL    HW199979  14.017  13.364  10.035 -0.7879  0.7955 -2.0589
27329SOL    HW299980  14.106  13.281   9.946  1.0910 -0.0022  0.4275
27330SOL     OW99981   0.942   4.104   1.859  0.7875  0.0081 -0.0498
27330SOL    HW199982   0.915   4.193   1.838  1.4430 -0.2273 -2.1206
27330SOL    HW299983   1.038   4.105   1.851  0.8453 -0.7890  0.3551
27331SOL     OW99984   0.533  11.519   9.841 -0.2553 -0.8066  0.1900
27331SOL    HW199985   0.539  11.429   9.809  0.6639 -0.0258 -2.0149
27331SOL    HW299986   0.454  11.554   9.799 -0.6676 -0.5965  1.1160
27332SOL     OW99987  13.331   6.408  13.006 -0.5732  0.8158 -0.2701
27332SOL    HW199988  13.402   6.449  13.056  0.5079 -1.6704  0.4001
27332SOL    HW299989  13.361   6.411  12.915 -1.0464  2.4554 -0.3994
27333SOL     OW99990   5.693   3.052   4.011  0.0681 -0.3745  0.4330
27333SOL    HW199991   5.680   3.073   4.104  0.2411  2.1342 -0.0417
27333SOL    HW299992   5.677   3.135   3.965  1.2627 -1.2300 -1.6677
27334SOL     OW99993  12.860   7.162   5.155  0.7095 -0.0385 -0.6240
27334SOL    HW199994  12.798   7.235   5.159  1.3742  0.4881  0.6087
27334SOL    HW299995  12.946   7.202   5.170  1.1206 -1.0386 -0.1982
27335SOL     OW99996  12.367   6.333   1.649 -0.0768 -0.2283  0.6480
27335SOL    HW199997  12.354   6.263   1.713 -0.0838 -0.5139  0.3313
27335SOL    HW299998  12.326   6.301   1.569  0.1248  0.0394  0.4366
27336SOL     OW99999   0.587   4.734   1.903 -0.3742  0.1934  0.0386
27336SOL    HW1    0   0.493   4.731   1.889 -0.4500  1.2186  0.2443
27336SOL    HW2    1   0.625   4.706   1.820 -0.8619  2.3508 -0.9867
27337SOL     OW    2   6.892   3.423  11.758  0.4990 -0.0995 -0.4437
27337SOL    HW1    3   6.929   3.510  11.771  1.2261 -0.6505  1.5494
27337SOL    HW2    4   6.966   3.368  11.736  0.7083 -0.8727  1.8888
27338SOL     OW    5   6.654  11.507   1.464 -0.0199 -0.3690  0.3656
27338SOL    HW1    6   6.690  11.586   1.503 -0.0461 -0.1430 -0.0662
27338SOL    HW2    7   6.731  11.458   1.435 -0.0691  0.6762 -1.6592
27339SOL     OW    8   9.139   6.086   3.407 -0.6506 -0.2352  0.1181
27339SOL    HW1    9   9.112   6.020   3.344  0.0256 -0.0977 -0.3260
27339SOL    HW2   10   9.146   6.167   3.357 -1.2506  0.1356  0.6131
27340SOL     OW   11   0.044   1.147   2.565  0.1412  0.6469 -0.6146
27340SOL    HW1   12  -0.026   1.087   2.540  1.5428 -0.8858 -1.0635
27340SOL    HW2   13   0.106   1.093   2.614  0.6961  2.1019  0.3630
27341SOL     OW   14  11.787  14.084   3.427 -0.0462  0.5328  0.2826
27341SOL    HW1   15  11.788  14.069   3.332 -0.3609 -0.8550  0.4810
27341SOL    HW2   16  11.764  14.177   3.436  0.2999  0.7597 -1.0012
27342SOL     OW   17   9.125   0.953   1.589 -0.9262  0.0902 -0.6707
27342SOL    HW1   18   9.091   0.921   1.672 -2.9315 -1.7721 -2.0798
27342SOL    HW2   19   9.127   0.876   1.533  1.5195  1.0488 -2.0426
27343SOL     OW   20  10.661   2.932  11.621  0.1378  0.0358  0.1693
27343SOL    HW1   21  10.631   2.855  11.574 -2.3672 -0.1610  1.9051
27343SOL    HW2   22  10.726   2.899  11.683  1.2377 -0.1634 -1.0567
27344SOL     OW   23   1.995   7.837   8.459  0.3410  0.2698 -0.0845
27344SOL    HW1   24   2.012   7.928   8.484  1.8310 -0.3281  1.2210
27344SOL    HW2   25   1.956   7.798   8.537 -1.2505 -0.0088 -0.9653
27345SOL     OW   26   0.823   5.144   1.089 -0.1149  0.2732  0.8733
27345SOL    HW1   27   0.892   5.107   1.143 -0.6179 -0.6985  0.8564
27345SOL    HW2   28   0.742   5.105   1.121 -0.3796 -0.7480 -0.9026
27346SOL     OW   29   5.526   4.423  12.399 -1.0389  0.1802  0.2829
27346SOL    HW1   30   5.590   4.492  12.414 -0.6660  0.0696 -0.7531
27346SOL    HW2   31   5.527   4.408  12.305  0.0247 -2.3364  0.6082
27347SOL     OW   32   0.890  12.643   6.821  0.3902  0.2545  0.2702
27347SOL    HW1   33   0.807  12.630   6.867  1.2552  0.5751  2.0110
27347SOL    HW2   34   0.931  12.716   6.866  2.0233 -0.4630  0.0228
27348SOL     OW   35  13.792   1.490   1.448  0.2223  0.3339  0.0732
27348SOL    HW1   36  13.809   1.563   1.388  0.5657 -0.7200 -1.1546
27348SOL    HW2   37  13.724   1.523   1.507 -1.0216  1.0154 -1.6519
27349SOL     OW   38  11.626   4.364   2.188  0.4387 -0.0605 -0.0144
27349SOL    HW1   39  11.575   4.333   2.263  0.6325  0.9285  0.5421
27349SOL    HW2   40  11.684   4.291   2.166 -1.3471 -1.3199 -0.8160
27350SOL     OW   41   4.789  12.584  11.442  0.0188  0.3244  0.4600
27350SOL    HW1   42   4.880  12.593  11.470  0.7761 -2.2068 -0.9051
27350SOL    HW2   43   4.789  12.509  11.383 -3.2448 -0.7504  1.6301
27351SOL     OW   44  12.890   4.150   1.313 -0.3038  0.2821 -0.1649
27351SOL    HW1   45  12.942   4.131   1.234  0.1358 -1.8400  0.5658
27351SOL    HW2   46  12.864   4.064   1.345 -0.3296  1.0819  2.1081
27352SOL     OW   47  13.455  10.390   9.195 -0.1856  0.3929 -0.1888
27352SOL    HW1   48  13.372  10.429   9.169 -0.0381  0.1037 -1.1492
27352SOL    HW2   49  13.507  10.390   9.114  1.6794  2.8550  0.8646
27353SOL     OW   50  13.780   8.691  13.610  0.2414  0.3555 -0.4323
27353SOL    HW1   51  13.783   8.757  13.540  2.2596 -0.3342 -1.0853
27353SOL    HW2   52  13.846   8.627  13.584 -1.3764 -1.7315  0.3847
27354SOL     OW   53   7.172   5.583  10.866 -0.5679  0.2351  0.1449
27354SOL    HW1   54   7.200   5.605  10.955 -0.4460  0.8877 -0.0497
27354SOL    HW2   55   7.219   5.645  10.810 -1.3393  0.4351 -0.3015
27355SOL     OW   56   4.440   3.075  12.224 -0.3571  0.0748 -0.2136
27355SOL    HW1   57   4.424   2.996  12.276  0.5305  1.3363  2.1360
27355SOL    HW2   58   4.531   3.066  12.194  0.0855  0.5650  0.8838
27356SOL     OW   59  13.527  10.638   8.872  0.0513  0.3574  0.2446
27356SOL    HW1   60  13.437  10.625   8.903 -0.0827  0.1050 -0.2382
27356SOL    HW2   61  13.574  10.561   8.905 -0.2329 -0.2370 -0.6886
27357SOL     OW   62   2.983  14.133   1.555  0.2463 -0.0211  0.4848
27357SOL    HW1   63   3.053  14.129   1.489  0.2967 -2.3190  0.6044
27357SOL    HW2   64   3.029  14.153   1.637  0.2161  2.5441 -0.0397
27358SOL     OW   65   8.783   2.987   7.175 -0.3476  0.1343 -0.3914
27358SOL    HW1   66   8.781   2.891   7.180 -1.0844  0.0003 -2.4150
27358SOL    HW2   67   8.810   3.015   7.262 -1.7998 -1.8599  0.7824
27359SOL     OW   68  11.625   4.319   7.863 -0.6917  0.0784 -0.5857
27359SOL    HW1   69  11.711   4.350   7.890 -1.7048  2.1975  0.4997
27359SOL    HW2   70  11.604   4.249   7.925 -0.7089  1.2301  0.7864
27360SOL     OW   71  10.884  10.181  11.362 -0.3315  0.2708  0.0053
27360SOL    HW1   72  10.954  10.221  11.413 -1.4000  1.2402  0.7655
27360SOL    HW2   73  10.835  10.255  11.326 -1.3175 -0.3644 -0.0176
27361SOL     OW   74   4.053   9.062   9.583  0.3568  0.7041  0.1261
27361SOL    HW1   75   4.126   9.008   9.615  0.3064  2.0158  2.7665
27361SOL    HW2   76   3.988   9.059   9.653 -0.9731  1.7304 -0.9958
27362SOL     OW   77  11.794  13.033   4.167  0.6674 -0.0031 -0.3487
27362SOL    HW1   78  11.778  12.987   4.250 -1.1588 -0.9278 -1.1541
27362SOL    HW2   79  11.827  13.119   4.194  1.1011 -0.6395  1.2992
27363SOL     OW   80   1.457   1.507   1.806 -0.2192  0.8976  0.0360
27363SOL    HW1   81   1.422   1.558   1.733 -1.0700 -0.9713 -0.9426
27363SOL    HW2   82   1.532   1.460   1.768  0.4570  1.2746  0.8699
27364SOL     OW   83   1.949  13.316   8.806 -0.0980 -0.0629 -0.1354
27364SOL    HW1   84   1.948  13.279   8.895 -1.7224 -1.2916 -0.6170
27364SOL    HW2   85   1.885  13.387   8.809  0.4170  0.4056 -0.1325
27365SOL     OW   86  10.665   9.539   7.602 -0.4219 -0.1931  0.4975
27365SOL    HW1   87  10.670   9.609   7.538  1.8365 -2.0302 -1.5013
27365SOL    HW2   88  10.573   9.512   7.600 -0.6992  0.7600 -0.8821
27366SOL     OW   89   7.714   1.899   5.320 -0.0690  0.4067 -0.1990
27366SOL    HW1   90   7.619   1.910   5.317 -0.2981 -0.3302  2.2658
27366SOL    HW2   91   7.747   1.985   5.347 -0.1703  0.3154  0.2271
27367SOL     OW   92   2.647   2.978   1.052  0.6519  0.2710 -0.1769
27367SOL    HW1   93   2.717   2.957   1.114  1.3987 -0.1676 -1.1321
27367SOL    HW2   94   2.575   3.010   1.106  2.1253  2.2470  0.7349
27368SOL     OW   95   1.631  12.776   0.463  0.2376  0.8740  0.4399
27368SOL    HW1   96   1.632  12.681   0.457 -0.0968  0.9145 -0.3239
27368SOL    HW2   97   1.707  12.804   0.412 -1.3860  1.1289 -1.9819
27369SOL     OW   98   7.707   0.389  11.339  0.1280 -0.1697 -0.0158
27369SOL    HW1   99   7.660   0.472  11.334  0.8550  0.1967 -1.1579
27369SOL    HW2  100   7.650   0.332  11.392 -0.6279  0.8767  0.3183
27370SOL     OW  101  11.212   3.077   0.001  0.1371  0.2268  0.0922
27370SOL    HW1  102  11.172   3.098  -0.083  1.7444  1.4174 -0.4296
27370SOL    HW2  103  11.165   3.000   0.032 -2.0843  1.1775 -0.7536
27371SOL     OW  104   5.920   3.233   4.734 -0.4153  1.0635  0.0379
27371SOL    HW1  105   5.916   3.293   4.659 -3.7774  1.4148  0.3556
27371SOL    HW2  106   5.927   3.291   4.810  0.2544  0.8329  0.1579
27372SOL     OW  107   8.571   7.788   2.622 -0.3653 -0.1030 -0.2027
27372SOL    HW1  108   8.541   7.704   2.657  0.1071 -0.8787 -1.6256
27372SOL    HW2  109   8.507   7.810   2.554 -2.1797  2.1543  1.9937
27373SOL     OW  110   3.857  12.111   8.381  0.5270 -0.4485  0.7207
27373SOL    HW1  111   3.944  12.089   8.414  0.8656 -0.1989  0.0126
27373SOL    HW2  112   3.865  12.105   8.286  0.1403  0.9103  0.5821
27374SOL     OW  113  13.580   4.928  10.821  0.2397 -0.0383  0.0575
27374SOL    HW1  114  13.572   4.880  10.738  1.3746  1.7141 -1.1212
27374SOL    HW2  115  13.674   4.934  10.836  0.0986  1.1755  0.5472
27375SOL     OW  116  13.278   9.723   9.018 -0.2595 -0.2276 -0.6565
27375SOL    HW1  117  13.211   9.767   8.965 -0.4661  0.3362  0.0564
27375SOL    HW2  118  13.228   9.665   9.075  0.0994 -2.9961 -2.9494
27376SOL     OW  119  13.850   4.192  11.809 -0.3322 -0.5932 -0.4634
27376SOL    HW1  120  13.832   4.200  11.716 -0.4874  0.1324 -0.3750
27376SOL    HW2  121  13.919   4.256  11.826 -1.2837  0.2919  0.1832
27377SOL     OW  122  10.763  12.141   7.474 -0.4057  0.0610  0.1408
27377SOL    HW1  123  10.827  12.135   7.403 -0.4769  1.7276 -0.0912
27377SOL    HW2  124  10.814  12.124   7.554  0.1509  0.4996 -0.1137
27378SOL     OW  125   8.728   0.125   8.654 -0.3240 -0.5116 -0.7224
27378SOL    HW1  126   8.661   0.055   8.656 -0.4315 -0.3869  0.2632
27378SOL    HW2  127   8.811   0.078   8.651 -0.4078 -0.6820 -0.4228
27379SOL     OW  128   6.477  11.094   3.484 -0.1988 -0.0453  0.4114
27379SOL    HW1  129   6.430  11.049   3.554 -0.1811 -0.0915  0.3944
27379SOL    HW2  130   6.467  11.187   3.503 -0.6819 -0.0422  0.1605
27380SOL     OW  131  13.053   0.004   5.813  0.2783 -0.1927 -0.3951
27380SOL    HW1  132  13.012   0.089   5.829  1.6433  0.4925 -0.3878
27380SOL    HW2  133  13.077  -0.029   5.900  0.3996 -0.2450 -0.4474
27381SOL     OW  134   5.807  12.023  14.143 -0.6125  0.5068 -0.0051
27381SOL    HW1  135   5.718  11.996  14.121  0.0058 -0.2933 -1.6854
27381SOL    HW2  136   5.799  12.064  14.229 -2.7352  1.2616 -0.5079
27382SOL     OW  137   5.858  12.633   5.505 -0.4901  0.0491  0.5775
27382SOL    HW1  138   5.809  12.693   5.561  1.1924  2.3492 -0.2451
27382SOL    HW2  139   5.874  12.683   5.425  0.4660 -1.7504 -0.4181
27383SOL     OW  140   3.010   6.151   9.825 -0.8734  0.3854  0.5857
27383SOL    HW1  141   3.008   6.243   9.800 -0.6377  0.0798 -0.6520
27383SOL    HW2  142   2.934   6.139   9.882 -1.2659  1.2044  0.2413
27384SOL     OW  143   0.049  10.724   8.263  0.0622  0.1277  0.7621
27384SOL    HW1  144  -0.011  10.754   8.331 -0.0947  0.5880  0.4235
27384SOL    HW2  145   0.010  10.642   8.232  0.0091  0.0378  1.0608
27385SOL     OW  146  11.491   1.778   6.245  0.2659 -0.0047 -0.1614
27385SOL    HW1  147  11.543   1.858   6.242  0.4624 -0.0678  1.1980
27385SOL    HW2  148  11.547   1.714   6.288  0.1339 -0.9188 -1.2847
27386SOL     OW  149   6.209   5.984  11.182 -0.4832 -0.3330  0.1486
27386SOL    HW1  150   6.271   6.055  11.163 -1.0399  0.0662 -0.2089
27386SOL    HW2  151   6.173   5.960  11.097  0.5015 -1.8309  0.1088
27387SOL     OW  152   9.827   6.513  12.127 -0.1243  0.4179  0.3337
27387SOL    HW1  153   9.868   6.489  12.210  1.4126  0.4078 -0.3811
27387SOL    HW2  154   9.868   6.597  12.104  1.8610 -1.0245 -1.8683
27388SOL     OW  155   8.974   0.191   8.914  0.3994  0.0804  0.1303
27388SOL    HW1  156   9.016   0.156   8.836 -0.6429  0.4500 -0.6170
27388SOL    HW2  157   8.913   0.123   8.941  0.6938 -0.0089  0.5811
27389SOL     OW  158   1.158   4.207   6.898  0.2178 -0.4170  0.8935
27389SOL    HW1  159   1.102   4.282   6.916  0.5066  0.4254 -1.3621
27389SOL    HW2  160   1.242   4.230   6.938 -0.0235 -0.0639  1.2023
27390SOL     OW  161   2.381   6.723  11.688  0.1632 -0.2233 -0.0282
27390SOL    HW1  162   2.406   6.679  11.769 -2.5829  0.5523  1.3534
27390SOL    HW2  163   2.361   6.651  11.628  1.1957 -0.8137  0.3124
27391SOL     OW  164   2.745  11.309   6.788  0.3990  0.1199  0.0901
27391SOL    HW1  165   2.818  11.248   6.775  0.2188  0.2773 -1.9046
27391SOL    HW2  166   2.667  11.259   6.761 -0.3400 -0.1517  2.4743
27392SOL     OW  167   0.778   7.917  10.061  0.0431  0.1150 -0.3198
27392SOL    HW1  168   0.791   7.848  10.127 -0.1904  1.1123  0.7942
27392SOL    HW2  169   0.867   7.941  10.034  0.1333 -0.4389 -0.5447
27393SOL     OW  170   2.533   4.541   1.374 -0.5265  0.4214  0.0678
27393SOL    HW1  171   2.538   4.578   1.286  0.5761 -1.4979 -0.7425
27393SOL    HW2  172   2.488   4.457   1.361  1.4736 -0.8440  0.9544
27394SOL     OW  173   4.667   6.376  11.599  0.0251  0.2319 -0.2353
27394SOL    HW1  174   4.658   6.356  11.692 -0.6271  2.9371  0.3488
27394SOL    HW2  175   4.734   6.445  11.595 -0.6444  0.8476 -1.6596
27395SOL     OW  176  10.537   4.176   0.851  0.1599  0.0841  0.0770
27395SOL    HW1  177  10.520   4.238   0.780 -1.3223 -0.6947 -0.2986
27395SOL    HW2  178  10.623   4.139   0.831  0.1726  0.5551 -0.7967
27396SOL     OW  179   1.482   6.369   8.619 -0.4060  0.4317 -0.6288
27396SOL    HW1  180   1.452   6.441   8.675  1.2419 -0.3757  1.4161
27396SOL    HW2  181   1.450   6.290   8.663  1.8069 -0.2789 -0.2023
27397SOL     OW  182  11.356   2.687   8.104 -0.2144 -0.1413  0.1125
27397SOL    HW1  183  11.413   2.628   8.055  1.3499  0.6353  0.9354
27397SOL    HW2  184  11.282   2.632   8.131  0.1328 -1.1757 -0.9540
27398SOL     OW  185  13.944   8.565   0.303  0.2049  0.3190  0.4900
27398SOL    HW1  186  13.971   8.646   0.259 -0.6354  0.3047 -0.0632
27398SOL    HW2  187  13.890   8.520   0.239  0.2624 -0.4573  0.9778
27399SOL     OW  188   7.329   2.837   1.738 -0.2026 -0.1908  0.6147
27399SOL    HW1  189   7.238   2.859   1.720 -0.0400  0.3201  0.4139
27399SOL    HW2  190   7.331   2.741   1.736  0.3021 -0.4331 -5.1328
27400SOL     OW  191  11.209   0.143   3.329  0.0577 -0.1210 -0.2433
27400SOL    HW1  192  11.258   0.106   3.256  1.7332  0.3203  0.6090
27400SOL    HW2  193  11.196   0.235   3.306 -1.2358 -0.4491 -0.8913
27401SOL     OW  194   1.372   4.750   2.189 -0.0886  0.7121 -0.4444
27401SOL    HW1  195   1.287   4.712   2.212  0.0315 -0.2575 -1.5030
27401SOL    HW2  196   1.360   4.782   2.100  0.3609  1.5180 -0.2217
27402SOL     OW  197   9.828   4.459   4.166  0.8233 -0.1395 -0.0879
27402SOL    HW1  198   9.860   4.535   4.215  1.1776  0.1938 -0.8244
27402SOL    HW2  199   9.768   4.496   4.101 -0.4263 -0.6738  0.7178
27403SOL     OW  200   3.238   0.411   3.665 -0.1420  0.1372 -0.2861
27403SOL    HW1  201   3.185   0.342   3.705 -0.8269  0.9165  0.1896
27403SOL    HW2  202   3.175   0.462   3.614  0.3817  0.3320 -0.7429
27404SOL     OW  203   7.308   6.931   4.083  0.4177 -0.3391  0.1293
27404SOL    HW1  204   7.273   6.904   3.998  0.4341 -0.4254  0.1497
27404SOL    HW2  205   7.347   6.852   4.119  2.0343  0.1004 -0.5852
27405SOL     OW  206   4.777  12.201  11.557 -0.5684  0.2520 -0.3449
27405SOL    HW1  207   4.859  12.244  11.532 -0.9032  0.5799 -0.9101
27405SOL    HW2  208   4.791  12.171  11.647  0.3885 -0.2435 -0.6465
27406SOL     OW  209   4.147   3.158   0.940 -0.5332 -0.4534  0.4771
27406SOL    HW1  210   4.105   3.182   0.857 -0.7375 -2.8122 -0.2042
27406SOL    HW2  211   4.073   3.144   1.000 -0.6806 -2.3542 -0.0664
27407SOL     OW  212   1.295  11.242   6.918  0.1085  0.4631 -0.2314
27407SOL    HW1  213   1.366  11.267   6.859  0.0583  2.4186  0.4663
27407SOL    HW2  214   1.232  11.314   6.911 -1.0832 -0.4979  0.3167
27408SOL     OW  215  11.640  13.066   7.119 -0.1836  0.4494 -0.4443
27408SOL    HW1  216  11.620  13.159   7.131  0.9839  0.8788 -1.5932
27408SOL    HW2  217  11.720  13.052   7.170 -2.1002 -0.7888  2.5168
27409SOL     OW  218   3.681   0.649   1.049  0.6867 -0.0049  0.1418
27409SOL    HW1  219   3.634   0.591   1.108  1.8364 -2.1072 -0.8933
27409SOL    HW2  220   3.669   0.736   1.086  0.0576 -1.0420  2.5635
27410SOL     OW  221   1.642   2.504  12.876  0.4861  0.1197  0.6887
27410SOL    HW1  222   1.709   2.442  12.847 -0.3985  0.3562 -2.1720
27410SOL    HW2  223   1.677   2.590  12.853 -0.2439  0.3373  0.3758
27411SOL     OW  224  12.705  13.815  13.847 -0.5387  0.4128  0.1481
27411SOL    HW1  225  12.679  13.844  13.759  0.6438 -2.3187 -1.2396
27411SOL    HW2  226  12.702  13.719  13.842  2.3578  0.1006  2.1375
27412SOL     OW  227   6.049  12.349   1.549  0.7056  0.0237  0.1970
27412SOL    HW1  228   6.125  12.405   1.533 -0.1439  1.0690 -0.2506
27412SOL    HW2  229   5.977  12.393   1.504 -0.4973 -0.1676  1.8694
27413SOL     OW  230  10.085   2.216   6.302  0.0037  0.0990  0.1838
27413SOL    HW1  231  10.058   2.126   6.321 -4.5312  1.0928 -0.4984
27413SOL    HW2  232  10.109   2.214   6.209 -3.0303 -0.0236 -0.7161
27414SOL     OW  233   3.901   0.244  13.006 -0.0700 -0.6244  0.3061
27414SOL    HW1  234   3.821   0.287  12.976 -1.4616 -2.8687  0.5437
27414SOL    HW2  235   3.929   0.296  13.082 -1.8976 -0.3472  0.8433
27415SOL     OW  236  10.048   1.391   1.152  0.4308 -0.3383 -0.4051
27415SOL    HW1  237  10.055   1.296   1.143  1.1556 -0.3282 -0.0265
27415SOL    HW2  238  10.116   1.414   1.215 -0.3816  0.3200  0.2652
27416SOL     OW  239   8.187  12.052   7.494 -0.2993  0.3167  0.2644
27416SOL    HW1  240   8.172  11.959   7.477 -0.5421  0.3787  0.1377
27416SOL    HW2  241   8.100  12.091   7.494 -0.2759  0.3951  1.2209
27417SOL     OW  242   7.361   8.806   8.317  0.0985  0.1912  0.0085
27417SOL    HW1  243   7.309   8.728   8.332  1.4032 -0.3279  2.2493
27417SOL    HW2  244   7.309   8.878   8.354  0.0974 -0.0394  0.4596
27418SOL     OW  245  13.816   1.764   3.067 -0.1935 -0.4843 -0.8534
27418SOL    HW1  246  13.739   1.797   3.114 -0.3868 -1.7300 -0.2596
27418SOL    HW2  247  13.862   1.710   3.131  1.6782  0.9345 -0.9248
27419SOL     OW  248  13.951   1.828   3.674  0.2741  0.1620  1.1226
27419SOL    HW1  249  13.899   1.814   3.595  1.8248  1.8152 -0.2819
27419SOL    HW2  250  14.041   1.811   3.646  0.8458  0.6847  2.5588
27420SOL     OW  251  12.662   5.901   4.483  0.1735 -0.6275  0.2467
27420SOL    HW1  252  12.677   5.862   4.569 -1.4215  0.7782  1.2204
27420SOL    HW2  253  12.628   5.829   4.429 -0.4284 -1.1460  1.2902
27421SOL     OW  254   9.711   2.677   9.240 -0.1531 -0.1872  0.0245
27421SOL    HW1  255   9.638   2.715   9.192 -1.2241 -1.3392  0.6797
27421SOL    HW2  256   9.686   2.686   9.332  0.6280 -0.4232  0.2659
27422SOL     OW  257   5.230   0.499   7.979 -0.0858  0.5184  1.4781
27422SOL    HW1  258   5.292   0.551   8.029 -2.2021  1.6933  3.0703
27422SOL    HW2  259   5.173   0.563   7.936  0.2609 -0.5047 -0.6357
27423SOL     OW  260  12.043   1.424   3.175  0.1128  0.5971  0.1722
27423SOL    HW1  261  11.964   1.426   3.120  0.4198  0.4760 -0.2747
27423SOL    HW2  262  12.090   1.504   3.152  0.3410  0.4450  0.1158
27424SOL     OW  263   0.423  13.947   4.262  0.0379 -0.1095 -0.8739
27424SOL    HW1  264   0.494  14.008   4.281  0.3374 -0.6210 -0.3312
27424SOL    HW2  265   0.405  13.903   4.345 -0.5982 -0.3242 -1.1141
27425SOL     OW  266   0.504   3.471   0.553  0.2884  0.5828  0.3108
27425SOL    HW1  267   0.525   3.542   0.492  0.4162  1.4004  1.2897
27425SOL    HW2  268   0.429   3.427   0.513  1.6740 -0.2601 -1.5155
27426SOL     OW  269  12.804  10.236   8.193  0.5274  0.0535  0.2046
27426SOL    HW1  270  12.835  10.191   8.115  2.5451  0.4355  0.7098
27426SOL    HW2  271  12.767  10.318   8.160 -3.2243 -1.8180 -0.7184
27427SOL     OW  272   5.569  11.135   6.434 -0.0536  0.1495 -0.1285
27427SOL    HW1  273   5.641  11.173   6.384  0.0683  0.4364  0.2614
27427SOL    HW2  274   5.562  11.190   6.512 -0.9715  0.3780 -0.3627
27428SOL     OW  275   6.789   8.604   5.595 -0.0854  0.2331  0.0377
27428SOL    HW1  276   6.824   8.517   5.615  0.0976 -0.0156 -1.2724
27428SOL    HW2  277   6.732   8.625   5.669  0.1678 -0.8450  0.5465
27429SOL     OW  278   0.320   1.926   9.085 -0.1255 -0.0032  0.6175
27429SOL    HW1  279   0.352   2.015   9.066  1.4228 -0.7672 -0.5960
27429SOL    HW2  280   0.357   1.872   9.015 -0.8786 -1.6500  1.4384
27430SOL     OW  281   5.984   6.451  12.385  0.3415  0.0848 -0.0635
27430SOL    HW1  282   5.994   6.366  12.427  1.0193 -0.7455 -1.8083
27430SOL    HW2  283   6.072   6.489  12.386  0.4341 -0.0904 -1.0002
27431SOL     OW  284  10.079   2.866   6.596 -0.0229  0.7592 -0.0842
27431SOL    HW1  285  10.132   2.814   6.537 -2.3876 -0.5374 -1.1775
27431SOL    HW2  286  10.062   2.809   6.671  0.4580  1.3234  0.4706
27432SOL     OW  287  11.800  11.461   2.935 -0.4027  0.2985  0.0160
27432SOL    HW1  288  11.734  11.409   2.890 -0.4897  0.1767  0.2846
27432SOL    HW2  289  11.767  11.469   3.025  0.0009  0.1469  0.1772
27433SOL     OW  290   9.558   0.093   6.080  0.7110  0.3102 -0.3444
27433SOL    HW1  291   9.512   0.038   6.145 -0.8818  0.4231 -1.3078
27433SOL    HW2  292   9.571   0.177   6.124  0.4037  0.1161  0.1239
27434SOL     OW  293  12.158   4.069   0.453 -0.1110 -0.4108  0.2602
27434SOL    HW1  294  12.100   4.021   0.393  0.9384 -0.3902 -0.8027
27434SOL    HW2  295  12.246   4.036   0.434  0.2814 -0.2594  1.6665
27435SOL     OW  296   5.211   4.487  12.125  0.5919  0.0071  0.4490
27435SOL    HW1  297   5.213   4.498  12.030 -0.7328 -1.1203  0.2501
27435SOL    HW2  298   5.205   4.392  12.138  1.5233  0.0897  1.6953
27436SOL     OW  299   8.363   7.296   0.867 -0.0237  0.1000 -0.0270
27436SOL    HW1  300   8.406   7.308   0.782 -0.2019 -0.6663 -0.2329
27436SOL    HW2  301   8.433   7.268   0.925 -0.0936 -0.4072 -0.1806
27437SOL     OW  302   8.567  11.238  10.836  0.2671  0.3196 -0.3924
27437SOL    HW1  303   8.626  11.276  10.901  0.1385  0.6956 -0.4901
27437SOL    HW2  304   8.621  11.177  10.787 -0.0598 -1.3814  1.2675
27438SOL     OW  305   1.438  11.855   1.134  0.3099  0.2480 -0.0725
27438SOL    HW1  306   1.491  11.908   1.194 -1.2577  0.8839  0.8078
27438SOL    HW2  307   1.348  11.878   1.155 -0.4087 -2.0348 -0.3639
27439SOL     OW  308   0.424   3.876  12.448  0.2033 -0.0224 -0.2226
27439SOL    HW1  309   0.366   3.882  12.372 -1.6330  1.6128  1.2142
27439SOL    HW2  310   0.378   3.821  12.511  1.2268 -0.5058  0.1280
27440SOL     OW  311  10.159  10.516   3.977  0.1440 -0.4513  0.0762
27440SOL    HW1  312  10.206  10.437   4.005  0.4444 -0.1356  0.4879
27440SOL    HW2  313  10.141  10.563   4.059 -1.3087 -0.7883 -0.0202
27441SOL     OW  314   2.896   7.000  10.096 -0.0405 -0.7990 -0.2654
27441SOL    HW1  315   2.983   7.038  10.081 -0.4681 -0.2036 -1.2783
27441SOL    HW2  316   2.840   7.075  10.113 -0.4358 -1.1568  0.0091
27442SOL     OW  317   5.869   2.526  10.665  0.4371  0.1599 -0.5122
27442SOL    HW1  318   5.916   2.551  10.585  1.3887  2.0830  0.5868
27442SOL    HW2  319   5.901   2.586  10.732 -1.4317 -0.4238  1.0043
27443SOL     OW  320   5.642  13.058  13.729  0.3524  0.1176  0.1199
27443SOL    HW1  321   5.558  13.027  13.695  0.1215 -0.6140  1.3062
27443SOL    HW2  322   5.622  13.090  13.817  1.3980 -0.5366  0.6140
27444SOL     OW  323   3.504   8.371  13.958  0.0267 -0.2880  0.2692
27444SOL    HW1  324   3.486   8.408  13.871  0.2928  1.1803  0.8047
27444SOL    HW2  325   3.567   8.432  13.997 -1.9458  0.5063  2.4461
27445SOL     OW  326   7.285  11.091  13.297  0.5812 -0.4217 -0.0761
27445SOL    HW1  327   7.251  11.180  13.308  0.2215 -0.6736  1.0392
27445SOL    HW2  328   7.208  11.037  13.281  0.3750 -0.9692  2.2965
27446SOL     OW  329   1.941  13.326  12.930  0.4048  0.1670 -0.1102
27446SOL    HW1  330   1.865  13.333  12.988  0.6644  0.7285  0.1643
27446SOL    HW2  331   1.957  13.415  12.900  0.6216 -0.0306 -0.6078
27447SOL     OW  332  10.400  11.495  11.668 -0.1421 -0.0803  0.4062
27447SOL    HW1  333  10.496  11.502  11.663  0.1522 -3.2309 -1.5846
27447SOL    HW2  334  10.370  11.529  11.584 -0.5561 -0.9337  0.1993
27448SOL     OW  335   9.889   2.871   8.400  0.4104  0.0672  0.6146
27448SOL    HW1  336   9.895   2.948   8.456  1.6987 -0.6863  1.5469
27448SOL    HW2  337   9.815   2.821   8.434 -0.6986  1.0568 -0.2535
27449SOL     OW  338   7.228   2.913   8.632  0.3426  0.3284  0.5313
27449SOL    HW1  339   7.320   2.894   8.615  0.5553  0.1781  1.8011
27449SOL    HW2  340   7.180   2.849   8.578  0.9468  0.7294 -0.5192
27450SOL     OW  341  12.212  11.999  10.664  0.0426  0.5749 -0.5061
27450SOL    HW1  342  12.288  11.998  10.722 -0.1501 -0.6746 -0.2458
27450SOL    HW2  343  12.146  11.947  10.710  0.3281 -1.6551 -2.3790
27451SOL     OW  344   6.877   0.393  13.514 -1.2317  0.3039 -0.1708
27451SOL    HW1  345   6.941   0.444  13.464 -0.4519 -0.5427 -0.0610
27451SOL    HW2  346   6.881   0.305  13.477  1.1524 -1.0379  2.8304
27452SOL     OW  347  12.401   9.477   9.259 -0.0681  0.6757 -0.4123
27452SOL    HW1  348  12.411   9.382   9.266 -0.2259  0.6735 -0.2006
27452SOL    HW2  349  12.316   9.489   9.216  0.7148  0.6902 -2.0421
27453SOL     OW  350  11.386   9.450   1.974  0.7194 -0.5194  0.2590
27453SOL    HW1  351  11.336   9.530   1.959 -1.1998 -1.8924 -0.9972
27453SOL    HW2  352  11.475   9.472   1.946  0.3742  1.3283  0.4936
27454SOL     OW  353  11.872  12.622  13.807 -0.6378 -0.3010  0.1542
27454SOL    HW1  354  11.914  12.688  13.862 -4.5363  0.9223  2.0510
27454SOL    HW2  355  11.942  12.562  13.782  2.3335  2.2084  1.8446
27455SOL     OW  356  11.893   9.565   3.399  0.2907 -0.2492  0.0107
27455SOL    HW1  357  11.866   9.473   3.400 -1.8708  0.2899 -1.6394
27455SOL    HW2  358  11.937   9.576   3.315 -1.4957  0.6729 -0.8643
27456SOL     OW  359  10.927   6.145   0.600  0.3257  0.5966  0.1121
27456SOL    HW1  360  10.978   6.130   0.679 -1.2942  1.2489  1.3420
27456SOL    HW2  361  10.981   6.111   0.529  0.7715 -2.3877  1.7241
27457SOL     OW  362   7.159  11.125  10.595  0.1886  0.2572  0.1617
27457SOL    HW1  363   7.231  11.081  10.640  0.6230 -0.1571 -0.8919
27457SOL    HW2  364   7.102  11.054  10.565 -0.8048  0.5948  1.2013
27458SOL     OW  365   6.481   1.206  12.648  0.2473  0.1700 -0.0398
27458SOL    HW1  366   6.492   1.129  12.593  0.9128 -0.3936  0.8570
27458SOL    HW2  367   6.542   1.192  12.721 -1.2378  0.4710  1.2980
27459SOL     OW  368  12.865  11.913  10.065 -0.3660 -1.0236 -0.4477
27459SOL    HW1  369  12.939  11.940  10.119 -0.4720 -1.1495 -0.2384
27459SOL    HW2  370  12.902  11.901   9.977 -0.3704  0.0485 -0.6069
27460SOL     OW  371  10.448   0.986   6.179 -0.1242 -0.3493  0.4316
27460SOL    HW1  372  10.431   1.046   6.251 -1.7380 -0.7025  0.3741
27460SOL    HW2  373  10.536   0.951   6.197  1.2418  2.5960  0.0239
27461SOL     OW  374   2.714  10.340   2.991 -0.2091 -0.0245  0.8506
27461SOL    HW1  375   2.795  10.354   2.942 -0.0817  0.8163  1.2639
27461SOL    HW2  376   2.677  10.428   3.000 -0.1334 -0.1200  2.3890
27462SOL     OW  377   5.249   4.767  10.650 -0.5391  0.0548  0.2504
27462SOL    HW1  378   5.208   4.824  10.716 -0.2458  1.1940 -0.5246
27462SOL    HW2  379   5.184   4.762  10.580 -1.9132 -3.1280  1.5552
27463SOL     OW  380   8.262   1.836   4.880  0.5402  0.0010  1.1961
27463SOL    HW1  381   8.329   1.838   4.948  1.0111  0.7523  0.7271
27463SOL    HW2  382   8.181   1.816   4.926  1.2754 -2.2610  1.6040
27464SOL     OW  383   2.369   5.901  13.139 -0.7982  0.1717 -0.0833
27464SOL    HW1  384   2.316   5.869  13.212 -1.3036 -0.3084 -0.6435
27464SOL    HW2  385   2.446   5.941  13.180 -1.2722  0.2787  0.7180
27465SOL     OW  386  13.235   4.896   4.003  0.3440 -0.0596 -0.3393
27465SOL    HW1  387  13.248   4.831   4.072  1.0222 -1.3370 -1.6017
27465SOL    HW2  388  13.144   4.886   3.977  0.1013  0.3932  0.3322
27466SOL     OW  389   5.912   1.950  10.926 -0.0248 -0.2507  0.1476
27466SOL    HW1  390   5.961   1.982  10.850 -3.2793  1.9802 -1.2471
27466SOL    HW2  391   5.896   1.858  10.906  0.4127 -0.0651 -1.1916
27467SOL     OW  392   6.145  11.131   0.196 -0.2200 -0.1364 -1.1635
27467SOL    HW1  393   6.135  11.153   0.103 -1.1146  0.0457 -1.0328
27467SOL    HW2  394   6.187  11.045   0.195 -0.3029 -0.1785 -1.7352
27468SOL     OW  395   5.306  12.806  12.386 -0.1434  0.2025  0.3497
27468SOL    HW1  396   5.313  12.800  12.291 -0.3802  0.7757  0.2923
27468SOL    HW2  397   5.240  12.873  12.401  0.1751  0.3965  0.9235
27469SOL     OW  398  11.813   3.215   3.138  0.5734  0.1456  0.1256
27469SOL    HW1  399  11.771   3.156   3.077  0.4165  0.4501 -0.0642
27469SOL    HW2  400  11.854   3.158   3.203 -0.2817 -0.1491  0.4135
27470SOL     OW  401   4.460   7.821  13.851  0.3627  0.1225  0.1597
27470SOL    HW1  402   4.388   7.871  13.891  0.5747 -0.1294  0.8770
27470SOL    HW2  403   4.452   7.839  13.757  0.4115  1.4685  0.3910
27471SOL     OW  404   8.329  13.452  14.010  0.1470 -0.0631 -0.4175
27471SOL    HW1  405   8.362  13.365  14.030  1.6269  0.6587  0.4885
27471SOL    HW2  406   8.312  13.452  13.916 -2.1219 -2.0126 -0.1023
27472SOL     OW  407   1.299   6.437  12.923  0.2877  0.1171  0.0808
27472SOL    HW1  408   1.264   6.449  12.835  1.2068 -0.9293 -0.4522
27472SOL    HW2  409   1.386   6.478  12.920  1.3527 -2.0165 -0.2717
27473SOL     OW  410  10.421   4.758   2.738  0.3750 -0.4192  0.1739
27473SOL    HW1  411  10.392   4.739   2.827  0.1086 -2.7654 -0.3449
27473SOL    HW2  412  10.516   4.747   2.740  0.3002 -1.1469  0.0455
27474SOL     OW  413   0.811  13.952   1.773 -0.3090  0.2007 -0.2447
27474SOL    HW1  414   0.767  13.881   1.819 -1.3031  1.1523  0.2999
27474SOL    HW2  415   0.752  13.974   1.701 -1.0940  1.9020  0.8489
27475SOL     OW  416   7.342   2.886   8.905  0.3963  0.1990  0.1848
27475SOL    HW1  417   7.341   2.868   8.811  1.7910 -2.1796  0.5236
27475SOL    HW2  418   7.385   2.971   8.913 -0.5708  0.8762 -1.3357
27476SOL     OW  419   1.263  13.569   5.096 -0.1365 -0.0179  0.6839
27476SOL    HW1  420   1.340  13.513   5.103 -0.8284 -1.0279  0.4582
27476SOL    HW2  421   1.250  13.603   5.184  2.3252  2.6392  0.1589
27477SOL     OW  422  13.380  14.030   5.283 -0.5966 -0.7723 -0.4630
27477SOL    HW1  423  13.297  13.991   5.257 -0.4426 -0.1532 -2.0051
27477SOL    HW2  424  13.358  14.121   5.303 -0.6008 -1.0789  1.0953
27478SOL     OW  425  12.720   2.691   3.652  0.2757 -0.2316 -0.0077
27478SOL    HW1  426  12.767   2.745   3.588  0.5188 -2.1089 -1.5034
27478SOL    HW2  427  12.781   2.620   3.673 -0.4815 -0.6148  0.9816
27479SOL     OW  428   7.744  10.059   8.691 -0.2526  0.2802 -0.1354
27479SOL    HW1  429   7.686   9.992   8.654  0.8962 -0.1896 -1.1694
27479SOL    HW2  430   7.832  10.026   8.673  0.4494 -0.1413  3.3044
27480SOL     OW  431   8.670   6.129  10.258 -0.0711 -0.0423 -0.1398
27480SOL    HW1  432   8.595   6.177  10.223 -1.0127 -1.0287  0.4852
27480SOL    HW2  433   8.678   6.052  10.203 -0.5556 -0.7762  0.7902
27481SOL     OW  434   8.136   9.538  12.525  0.1609  0.3138  0.1094
27481SOL    HW1  435   8.126   9.632  12.512  0.7558  0.4261  0.4350
27481SOL    HW2  436   8.054   9.501  12.493  0.5090  0.8105 -1.4826
27482SOL     OW  437   7.923   8.411   3.781  0.3910  0.0759  0.1929
27482SOL    HW1  438   7.902   8.367   3.699 -0.1526 -1.2953  1.0227
27482SOL    HW2  439   7.838   8.424   3.824  0.8052 -1.4729  1.6067
27483SOL     OW  440  11.624  11.339  12.777  0.1630 -0.1231  0.0787
27483SOL    HW1  441  11.650  11.353  12.686  0.0248  0.8585  0.1742
27483SOL    HW2  442  11.682  11.397  12.827 -0.6878  0.3872  0.4907
27484SOL     OW  443  10.721   7.504   7.520 -0.5047 -0.0527 -0.0184
27484SOL    HW1  444  10.748   7.464   7.438 -2.0405 -0.9501 -0.1333
27484SOL    HW2  445  10.659   7.441   7.559 -1.0882  1.0924  1.0062
27485SOL     OW  446   3.045  10.118   4.080 -0.5988 -0.6201  0.5927
27485SOL    HW1  447   3.019  10.204   4.112 -2.2942 -0.7463 -0.2992
27485SOL    HW2  448   3.072  10.133   3.989  0.9230 -0.7606  1.0046
27486SOL     OW  449  11.953   4.309   9.922  0.3016 -0.7169  0.1462
27486SOL    HW1  450  11.988   4.220   9.929  2.0002 -0.0600  0.5021
27486SOL    HW2  451  12.003   4.359   9.986 -0.6580  0.4932 -0.0227
27487SOL     OW  452   8.385   6.546  11.572 -0.4658 -0.0373  0.9087
27487SOL    HW1  453   8.464   6.515  11.616 -0.9616 -2.0344  0.5219
27487SOL    HW2  454   8.356   6.471  11.520 -0.4500  1.8627 -2.0933
27488SOL     OW  455  11.086   3.508  10.536  0.2776  0.0843 -0.4022
27488SOL    HW1  456  11.073   3.464  10.452  3.4118  0.2808 -1.1292
27488SOL    HW2  457  11.107   3.599  10.512  2.8144 -0.2209  0.3868
27489SOL     OW  458   4.298  10.679  13.684  0.0806  0.1623  0.0487
27489SOL    HW1  459   4.388  10.675  13.718 -1.2463 -1.9301  3.8790
27489SOL    HW2  460   4.255  10.745  13.738 -1.4788 -1.3149  0.6858
27490SOL     OW  461  13.993  11.201   9.628 -0.0490 -0.0883  0.2629
27490SOL    HW1  462  14.058  11.171   9.565 -0.8181 -1.6338  0.1521
27490SOL    HW2  463  13.910  11.198   9.580 -0.5889 -0.9093  1.2039
27491SOL     OW  464   3.574   2.402   9.218  0.7182 -0.6660 -0.3223
27491SOL    HW1  465   3.570   2.307   9.230 -0.9349 -0.5633  0.2914
27491SOL    HW2  466   3.662   2.426   9.245  0.8550 -1.9234  0.4475
27492SOL     OW  467   1.516   0.011   3.971  0.2923  0.1446  0.1667
27492SOL    HW1  468   1.572  -0.040   4.029 -0.5848 -2.1156 -0.8636
27492SOL    HW2  469   1.577   0.061   3.917  1.3361 -1.5671 -0.3227
27493SOL     OW  470   4.208   0.240   8.675 -0.0190  0.2535 -0.3560
27493SOL    HW1  471   4.215   0.264   8.582  0.6239  0.3555 -0.2871
27493SOL    HW2  472   4.141   0.172   8.677  1.1632 -1.0152 -1.1604
27494SOL     OW  473   8.111   2.764   2.577  0.0786 -0.2806  0.0705
27494SOL    HW1  474   8.034   2.818   2.593  0.7200  0.5790  0.3675
27494SOL    HW2  475   8.165   2.777   2.655  1.0916  0.1505 -0.6861
27495SOL     OW  476   8.574  11.486   1.119  0.0043 -0.3067  0.3150
27495SOL    HW1  477   8.516  11.451   1.187 -0.4337 -0.7635 -0.2918
27495SOL    HW2  478   8.648  11.425   1.116 -1.3443 -1.9588 -1.6108
27496SOL     OW  479   4.136   5.419   0.594  0.6701 -0.2409  0.5755
27496SOL    HW1  480   4.203   5.364   0.554  0.4713 -0.4270  0.4955
27496SOL    HW2  481   4.184   5.474   0.657  0.8796 -0.4445  0.5939
27497SOL     OW  482  13.432   5.144   3.657  0.5635  0.9320  0.5141
27497SOL    HW1  483  13.454   5.100   3.739  0.2045 -1.3765 -0.5467
27497SOL    HW2  484  13.506   5.203   3.640  2.6084 -1.4908  0.5263
27498SOL     OW  485   5.183   3.806   2.090  0.2407 -0.0600 -0.0614
27498SOL    HW1  486   5.249   3.738   2.103 -0.5251 -0.7675  0.2286
27498SOL    HW2  487   5.104   3.758   2.066 -0.5502  0.6542  1.0184
27499SOL     OW  488  11.233  14.111  10.238 -0.5852  0.3338  0.6097
27499SOL    HW1  489  11.315  14.159  10.226 -0.6908  0.4039  0.1660
27499SOL    HW2  490  11.230  14.093  10.332 -0.2636  0.6875  0.6911
27500SOL     OW  491   1.913  12.611   3.584  0.4805 -0.1465  0.0281
27500SOL    HW1  492   2.003  12.632   3.562  0.9527 -2.3199 -0.3776
27500SOL    HW2  493   1.914  12.516   3.601 -1.4341  0.0242  1.4909
27501SOL     OW  494  11.752   0.781  10.854  0.4308  0.6411 -0.4330
27501SOL    HW1  495  11.826   0.726  10.829 -1.1197 -0.3948 -3.1935
27501SOL    HW2  496  11.679   0.720  10.863 -0.3973  1.7765  0.8751
27502SOL     OW  497   9.988   5.345  12.539 -0.0258 -0.7596 -0.2539
27502SOL    HW1  498  10.069   5.381  12.575 -0.5577 -0.7744  1.0262
27502SOL    HW2  499   9.928   5.343  12.614 -0.9775 -1.4293 -1.0132
27503SOL     OW  500   0.003  13.390   1.076  0.0665 -0.2140  0.3795
27503SOL    HW1  501  -0.014  13.438   0.995 -0.7444  0.3478  0.8712
27503SOL    HW2  502  -0.073  13.332   1.086  0.1438 -0.2522  0.7560
27504SOL     OW  503   4.505  13.453  12.463 -0.0092  0.2877  0.4144
27504SOL    HW1  504   4.487  13.434  12.555  1.0952 -1.7804  0.2733
27504SOL    HW2  505   4.599  13.471  12.459  0.8694 -3.6177 -0.7249
27505SOL     OW  506   4.657  14.134  13.328 -0.3224 -0.3163  0.1014
27505SOL    HW1  507   4.710  14.212  13.314 -0.5055 -0.2881 -0.4597
27505SOL    HW2  508   4.601  14.156  13.403  0.6270 -0.4481  0.8656
27506SOL     OW  509   7.350   0.286   4.861  0.3625  0.1123 -0.1835
27506SOL    HW1  510   7.309   0.370   4.839 -0.4643 -0.1107  0.4711
27506SOL    HW2  511   7.444   0.304   4.859  0.1854  1.1388  0.2684
27507SOL     OW  512   2.563  11.220   5.280 -0.0780  0.1681  0.0547
27507SOL    HW1  513   2.631  11.158   5.254 -1.5291 -1.1174 -0.8570
27507SOL    HW2  514   2.548  11.202   5.373 -2.4668 -3.0131 -0.7708
27508SOL     OW  515   8.744   7.221  12.419  0.6614  0.1651 -0.2257
27508SOL    HW1  516   8.747   7.269  12.336  0.0494  0.6107  0.0008
27508SOL    HW2  517   8.781   7.136  12.398  1.1216  0.4982 -0.8035
27509SOL     OW  518   0.435   2.746   8.410 -0.2949  0.3607  0.0213
27509SOL    HW1  519   0.507   2.739   8.348  0.0197 -1.7106  0.5490
27509SOL    HW2  520   0.477   2.768   8.493 -0.4941  1.1151 -0.0759
27510SOL     OW  521   7.973   7.040  11.950  0.1409 -0.3533  0.1377
27510SOL    HW1  522   7.940   7.088  11.873  0.9596 -1.7666 -1.1541
27510SOL    HW2  523   8.043   7.096  11.984 -0.7059  0.6318  0.3319
27511SOL     OW  524   9.514  10.728   7.563  0.3371  0.7289  0.0798
27511SOL    HW1  525   9.491  10.638   7.539 -0.4580 -0.1391  3.5081
27511SOL    HW2  526   9.444  10.781   7.527 -0.3751 -0.3147 -0.1303
27512SOL     OW  527  13.105   6.055   0.865  0.4607  0.2174 -0.1315
27512SOL    HW1  528  13.058   5.973   0.849  1.5490 -0.7903  1.5450
27512SOL    HW2  529  13.196   6.035   0.843  0.5282  1.4260 -1.0528
27513SOL     OW  530   8.682   6.920  13.399 -0.2562 -0.6518  0.4503
27513SOL    HW1  531   8.678   6.836  13.353 -1.3666 -0.0679 -0.5822
27513SOL    HW2  532   8.721   6.980  13.336  0.0104 -0.2602  0.9784
27514SOL     OW  533   3.409   1.853   3.461 -0.2531  0.2438  0.1331
27514SOL    HW1  534   3.353   1.898   3.525 -0.6360 -0.1819  0.0976
27514SOL    HW2  535   3.444   1.924   3.407  0.9184  0.7283  1.4594
27515SOL     OW  536  10.048   1.642   6.973 -0.2086 -0.1418 -0.0123
27515SOL    HW1  537  10.100   1.701   6.918 -0.1796 -1.0200 -0.9708
27515SOL    HW2  538  10.017   1.697   7.045  0.7111  0.7756 -0.2878
27516SOL     OW  539   6.275  14.018   7.470  0.4264  0.1976  0.2122
27516SOL    HW1  540   6.298  14.087   7.533  0.4237  0.4165 -0.0264
27516SOL    HW2  541   6.217  13.960   7.520 -0.2209  0.8008  0.1860
27517SOL     OW  542  11.198   3.110  12.468  0.4508 -0.1016  0.5055
27517SOL    HW1  543  11.251   3.165  12.411 -0.2742  0.6893  0.5770
27517SOL    HW2  544  11.122   3.086  12.415  1.0727 -1.5879  0.2547
27518SOL     OW  545   4.912   8.339  12.977 -0.1581  0.0809 -0.4432
27518SOL    HW1  546   4.972   8.351  13.050 -0.7020  1.4608 -0.1984
27518SOL    HW2  547   4.857   8.418  12.977 -1.6106 -0.8820 -0.9973
27519SOL     OW  548  12.169   1.011   3.440 -0.5976  0.1817  0.4738
27519SOL    HW1  549  12.201   1.075   3.504  0.4589  1.7174 -1.4435
27519SOL    HW2  550  12.178   1.056   3.356 -1.4217 -1.9212 -0.8167
27520SOL     OW  551  13.202   2.945  10.681  0.6290  0.1155  0.4192
27520SOL    HW1  552  13.243   2.929  10.766 -0.3882  0.3755  0.9875
27520SOL    HW2  553  13.260   3.008  10.638  1.6551 -0.7414  0.5148
27521SOL     OW  554   0.675  10.259  12.349 -0.2534  0.2419  0.1622
27521SOL    HW1  555   0.660  10.174  12.308  0.2752 -0.0609  0.5847
27521SOL    HW2  556   0.688  10.240  12.442 -0.1376  0.7818  0.2646
27522SOL     OW  557  11.353   7.695   3.472  0.2365  0.2975 -0.4376
27522SOL    HW1  558  11.422   7.714   3.409 -0.1554 -0.7900 -1.2266
27522SOL    HW2  559  11.364   7.761   3.540  1.1535  1.0241 -1.2584
27523SOL     OW  560  11.088  11.759  10.276 -0.4900 -0.3830  0.5349
27523SOL    HW1  561  11.111  11.805  10.357 -1.5560  0.2839  0.4928
27523SOL    HW2  562  11.129  11.674  10.283  0.0629 -0.0508  1.4371
27524SOL     OW  563   1.898   4.512   9.654 -0.0435  0.0914  0.1908
27524SOL    HW1  564   1.814   4.490   9.695  0.5108  0.8472  1.7788
27524SOL    HW2  565   1.898   4.461   9.573 -0.2377 -3.2399  2.1127
27525SOL     OW  566  13.204  10.441   1.902  0.3942  0.4061  0.5311
27525SOL    HW1  567  13.139  10.443   1.972 -0.9395  1.9659 -0.6783
27525SOL    HW2  568  13.226  10.348   1.893 -0.4231  0.0252  2.0712
27526SOL     OW  569   5.072  12.036   0.748 -0.6101  0.1462  0.6289
27526SOL    HW1  570   5.012  12.110   0.741 -0.4164  0.3961  1.6085
27526SOL    HW2  571   5.031  11.968   0.694  0.2489  1.5937 -2.0324
27527SOL     OW  572   0.079   2.702   3.798 -0.5244 -0.1622 -0.2064
27527SOL    HW1  573   0.167   2.728   3.770 -0.0658 -0.1280  1.1768
27527SOL    HW2  574   0.032   2.685   3.717  0.7533 -0.1545 -0.9752
27528SOL     OW  575   9.406   8.372   9.263  0.1592 -0.5007 -0.0944
27528SOL    HW1  576   9.493   8.367   9.302  0.6049 -2.5679 -1.2305
27528SOL    HW2  577   9.352   8.417   9.328  1.1905 -2.5222  2.3021
27529SOL     OW  578   0.758   5.184   0.281  0.3256 -0.2784 -0.3409
27529SOL    HW1  579   0.806   5.161   0.202 -0.9926 -1.6135 -0.7806
27529SOL    HW2  580   0.707   5.261   0.257  1.3383  0.4676 -0.1950
27530SOL     OW  581   6.580   0.103   3.771 -0.0551  0.5154  0.0250
27530SOL    HW1  582   6.657   0.047   3.756  0.2173  0.5794  1.1507
27530SOL    HW2  583   6.530   0.058   3.839  0.1372  1.6101  0.9069
27531SOL     OW  584  10.928  12.026   0.601 -0.0501 -0.2642 -0.4634
27531SOL    HW1  585  10.915  12.049   0.509 -3.1296 -1.3519 -0.4209
27531SOL    HW2  586  10.912  12.107   0.649  1.9640  0.4039 -0.8329
27532SOL     OW  587   8.543   9.353   4.990  0.4265  0.0925 -0.1903
27532SOL    HW1  588   8.462   9.354   5.041  0.2942  1.1153 -0.4034
27532SOL    HW2  589   8.603   9.410   5.039  0.3975  0.8476 -0.9954
27533SOL     OW  590   3.208   9.028  12.650 -0.4225 -0.5404 -0.6186
27533SOL    HW1  591   3.288   8.982  12.627  1.3933  1.9481  0.2673
27533SOL    HW2  592   3.211   9.034  12.746 -1.0894  0.4859 -0.6421
27534SOL     OW  593   9.092  10.063  14.076 -0.3247  0.4309 -0.2765
27534SOL    HW1  594   9.089   9.983  14.023  0.1154 -0.3229  0.8113
27534SOL    HW2  595   9.098  10.033  14.166  0.6163  1.6868  0.1215
27535SOL     OW  596  12.529  11.757  12.612 -0.5699  0.0406 -0.2579
27535SOL    HW1  597  12.442  11.751  12.573 -0.5245 -1.4024 -0.2253
27535SOL    HW2  598  12.563  11.667  12.609  0.9287  0.5665 -0.2881
27536SOL     OW  599   2.977   2.486  13.851 -0.0733  0.6295 -0.1992
27536SOL    HW1  600   3.012   2.452  13.768 -0.0256  0.4803 -0.1192
27536SOL    HW2  601   3.054   2.512  13.901 -0.1588  1.7113 -0.6218
27537SOL     OW  602   3.440   5.639   3.688 -0.1974  0.3968  0.1273
27537SOL    HW1  603   3.492   5.681   3.757 -0.2143 -0.7633  0.8713
27537SOL    HW2  604   3.469   5.681   3.607 -1.9278  3.5656  1.0045
27538SOL     OW  605   5.673  10.523  10.450 -0.4953  0.4887  0.1007
27538SOL    HW1  606   5.734  10.451  10.433 -1.0551 -0.0165  0.1713
27538SOL    HW2  607   5.723  10.602  10.430  0.2247  0.0970  0.3051
27539SOL     OW  608  12.200  11.691   3.209 -0.3891 -0.4154 -0.4459
27539SOL    HW1  609  12.217  11.785   3.220  0.2971 -0.3808 -1.6154
27539SOL    HW2  610  12.119  11.688   3.158 -0.3496 -0.4612 -0.5050
27540SOL     OW  611   3.342   5.675   5.328  0.2339 -1.1695  0.0702
27540SOL    HW1  612   3.389   5.751   5.292  1.9667 -1.5064  1.4890
27540SOL    HW2  613   3.304   5.707   5.409  1.1352 -1.8276  0.7755
27541SOL     OW  614  13.733   3.851  13.138  0.0441  0.4510 -0.0002
27541SOL    HW1  615  13.684   3.769  13.131 -0.2864  0.5716  0.8222
27541SOL    HW2  616  13.703   3.903  13.063  0.9143 -0.5075 -1.0534
27542SOL     OW  617   8.614   4.291  13.169 -0.2922 -0.1273 -0.4236
27542SOL    HW1  618   8.595   4.377  13.206  0.1871  0.0554 -0.5987
27542SOL    HW2  619   8.694   4.303  13.119 -1.0546 -0.3223 -1.7291
27543SOL     OW  620   0.089   1.040  10.775 -0.3643 -0.0725  0.0316
27543SOL    HW1  621   0.082   1.039  10.680 -0.5293 -1.1814  0.0405
27543SOL    HW2  622   0.177   1.007  10.792  0.0623  1.1145  0.2546
27544SOL     OW  623   8.168  12.544   6.816 -0.6908  0.2254  0.0299
27544SOL    HW1  624   8.079  12.575   6.797 -0.1473  1.5393 -0.4364
27544SOL    HW2  625   8.171  12.538   6.911 -1.2288  0.3226  0.0595
27545SOL     OW  626   1.468  10.696   1.940 -0.1635 -0.1731 -0.1580
27545SOL    HW1  627   1.402  10.766   1.936 -0.2965 -0.3526 -2.8015
27545SOL    HW2  628   1.551  10.742   1.928  0.0651 -0.1449  1.3969
27546SOL     OW  629   8.523   9.852   9.813 -0.0843  0.6089 -0.4481
27546SOL    HW1  630   8.545   9.944   9.799  0.9869  0.2150 -1.4588
27546SOL    HW2  631   8.486   9.823   9.730 -1.6730  0.4527  0.2783
27547SOL     OW  632   9.156  14.081  10.773 -0.3633  0.1701  0.0063
27547SOL    HW1  633   9.128  13.995  10.742 -0.4470  0.5884 -1.1262
27547SOL    HW2  634   9.170  14.070  10.867  0.1547 -1.2174 -0.2152
27548SOL     OW  635   1.338   1.604  12.512 -0.3613 -0.4281 -0.2582
27548SOL    HW1  636   1.322   1.603  12.607  1.2182 -0.5290  0.0446
27548SOL    HW2  637   1.398   1.678  12.499 -2.6916  1.3682 -1.6151
27549SOL     OW  638   3.584   6.406  12.513 -0.0887 -0.0701 -0.1156
27549SOL    HW1  639   3.521   6.452  12.458 -0.8221  0.4429  1.1073
27549SOL    HW2  640   3.536   6.387  12.593  0.4318 -2.3004 -0.2697
27550SOL     OW  641   0.146  11.287   3.312 -0.0440  0.5731  0.5836
27550SOL    HW1  642   0.100  11.208   3.339  1.1443 -0.1246  0.6201
27550SOL    HW2  643   0.223  11.291   3.368 -0.5332  2.2673  1.2152
27551SOL     OW  644   7.923  10.623   0.021 -0.4860 -0.6792 -0.0878
27551SOL    HW1  645   7.843  10.667   0.049 -1.0160 -0.2142 -2.1298
27551SOL    HW2  646   7.985  10.694   0.006  0.3156 -1.0316  1.3784
27552SOL     OW  647   6.771   2.064   9.361  0.0641 -0.2010  0.5046
27552SOL    HW1  648   6.725   2.019   9.432  0.5205 -0.3655  0.6932
27552SOL    HW2  649   6.829   1.998   9.324  0.1712  0.0169  0.2827
27553SOL     OW  650   0.737  13.730   4.631  0.3562  0.0429 -0.3805
27553SOL    HW1  651   0.645  13.745   4.650  0.2845 -1.3820  0.6001
27553SOL    HW2  652   0.778  13.816   4.637 -1.1853  1.0526 -2.8158
27554SOL     OW  653   5.217  13.027   6.175 -0.2895  0.2251 -0.0645
27554SOL    HW1  654   5.188  12.965   6.242  1.3617  1.3493  1.8119
27554SOL    HW2  655   5.141  13.083   6.159 -0.7014 -0.0264  0.9379
27555SOL     OW  656   9.848   4.756   7.602  0.1447  0.2205 -0.5624
27555SOL    HW1  657   9.813   4.678   7.559 -1.6023  0.0529  1.0240
27555SOL    HW2  658   9.918   4.786   7.544 -2.4810  0.4447 -3.9408
27556SOL     OW  659   8.072  12.703   5.286 -0.0703  0.8353  0.6065
27556SOL    HW1  660   8.042  12.686   5.196 -0.6413  0.2181  0.9034
27556SOL    HW2  661   8.021  12.778   5.315 -0.7651  0.2894  0.8260
27557SOL     OW  662  11.307  10.442  10.252 -0.0883 -0.3436  0.2203
27557SOL    HW1  663  11.254  10.375  10.209 -0.0394  0.7978 -1.7419
27557SOL    HW2  664  11.398  10.417  10.231 -0.0873  0.5672 -0.9559
27558SOL     OW  665   5.794  10.636   0.842  0.1764 -0.3254 -0.1777
27558SOL    HW1  666   5.726  10.570   0.831  0.4247 -0.6539  0.1976
27558SOL    HW2  667   5.802  10.677   0.757 -1.7319  0.9401  0.1826
27559SOL     OW  668   2.589  11.635   6.123  0.2862  0.3481  0.3022
27559SOL    HW1  669   2.660  11.605   6.180 -0.6804 -0.5898  1.0578
27559SOL    HW2  670   2.597  11.730   6.123  2.2477  0.2270 -0.5695
27560SOL     OW  671   9.401  10.929  12.359 -0.8384  0.4082 -0.0288
27560SOL    HW1  672   9.459  10.934  12.435 -0.5989 -0.7283 -0.1238
27560SOL    HW2  673   9.410  11.015  12.317  0.7307  0.2958  0.0008
27561SOL     OW  674  13.766  12.235   5.056  0.5483  0.2355  0.3916
27561SOL    HW1  675  13.796  12.316   5.097  0.0980  0.3663  0.4611
27561SOL    HW2  676  13.838  12.173   5.071  0.8994  0.6198  0.3281
27562SOL     OW  677   0.192  12.499   6.379 -0.4509  0.1009 -0.4987
27562SOL    HW1  678   0.152  12.516   6.294 -0.4752  0.1282 -0.4819
27562SOL    HW2  679   0.227  12.410   6.373 -0.9682 -0.1147 -0.3324
27563SOL     OW  680   2.458   6.285   9.443 -0.1314 -0.5719 -0.0138
27563SOL    HW1  681   2.492   6.215   9.388 -1.6560 -1.3276 -0.0678
27563SOL    HW2  682   2.503   6.274   9.527  0.8735 -0.5455 -0.5366
27564SOL     OW  683   5.477   4.098   9.792  0.7944  0.4780  0.1334
27564SOL    HW1  684   5.419   4.142   9.854  0.8900  1.1944 -0.2844
27564SOL    HW2  685   5.562   4.142   9.802  1.6127 -1.2803  1.5460
27565SOL     OW  686   8.148  10.314  13.813  0.2315 -0.2857  0.7850
27565SOL    HW1  687   8.209  10.245  13.791 -0.1769  0.2256 -2.3410
27565SOL    HW2  688   8.073  10.269  13.853  0.3481 -1.5780 -0.3866
27566SOL     OW  689  14.128   7.184   6.967  0.1787  0.3668  0.0131
27566SOL    HW1  690  14.061   7.247   6.994  0.7060  1.2198 -0.6078
27566SOL    HW2  691  14.108   7.164   6.876  0.0465 -0.3349  0.1899
27567SOL     OW  692   0.763  10.648   4.775  0.1827 -0.1042 -0.3767
27567SOL    HW1  693   0.839  10.591   4.769  0.3103  0.0128  0.0796
27567SOL    HW2  694   0.798  10.732   4.804  0.5227  1.2800 -4.2044
27568SOL     OW  695  10.094  11.130   3.325 -0.1672  0.6337  0.0498
27568SOL    HW1  696  10.173  11.130   3.270 -0.4174  0.9549 -0.3055
27568SOL    HW2  697  10.122  11.084   3.405 -0.1609 -1.0326 -0.8521
27569SOL     OW  698  13.805   4.034   3.770 -0.1694 -0.0985  0.2057
27569SOL    HW1  699  13.768   4.109   3.723 -1.1149 -0.3041  0.6114
27569SOL    HW2  700  13.838   3.977   3.701 -0.6228  0.0817 -0.1645
27570SOL     OW  701   3.331  11.771   5.288  0.1895 -0.1462  0.3441
27570SOL    HW1  702   3.325  11.865   5.272  2.1387 -0.3514 -2.2113
27570SOL    HW2  703   3.349  11.763   5.382 -1.3226  1.8882  0.8755
27571SOL     OW  704   5.314   9.176   5.812 -0.5235 -0.0261  0.2830
27571SOL    HW1  705   5.242   9.153   5.753 -0.6097  0.3385  0.2453
27571SOL    HW2  706   5.277   9.162   5.900 -0.3906 -0.5819  0.2573
27572SOL     OW  707  13.670  12.951   9.799  0.1678 -0.1250  0.1558
27572SOL    HW1  708  13.616  12.881   9.762  2.9937 -1.8807 -0.9571
27572SOL    HW2  709  13.708  12.913   9.878  2.6812 -0.4087 -1.0906
27573SOL     OW  710   1.685   4.594  12.056  0.4912 -0.3629 -0.4473
27573SOL    HW1  711   1.776   4.586  12.084  0.3737 -0.0543  0.0315
27573SOL    HW2  712   1.671   4.520  11.997  1.2512 -0.0115 -1.0691
27574SOL     OW  713   3.243   5.796  11.684  0.0120 -0.9040 -1.0402
27574SOL    HW1  714   3.307   5.742  11.638  1.1554  0.0386 -0.6020
27574SOL    HW2  715   3.295   5.862  11.729 -1.1727 -0.9691  0.4954
27575SOL     OW  716   9.829   8.146   4.832 -0.1425  0.3841  1.0685
27575SOL    HW1  717   9.899   8.091   4.867  0.3294 -0.5317 -1.1361
27575SOL    HW2  718   9.750   8.093   4.843  0.5960 -2.0493 -3.1581
27576SOL     OW  719   2.880  12.885  10.956  0.4936  0.3142  0.0721
27576SOL    HW1  720   2.823  12.808  10.957 -0.1041  0.7265 -0.5717
27576SOL    HW2  721   2.963  12.855  10.992  0.6499 -0.9333 -1.2145
27577SOL     OW  722  11.663  11.636   3.707 -0.7347 -0.0039  0.0833
27577SOL    HW1  723  11.572  11.668   3.708 -0.7885 -0.1701  0.5644
27577SOL    HW2  724  11.701  11.677   3.630 -0.5357  1.9872  1.1727
27578SOL     OW  725   7.917  10.294   1.942 -0.3358  0.0868 -0.5384
27578SOL    HW1  726   7.983  10.224   1.946 -1.8089 -1.3376  1.2261
27578SOL    HW2  727   7.968  10.375   1.942  1.4824 -0.9133  1.6706
27579SOL     OW  728   0.080  10.880   2.658  0.6327 -0.7720  0.3141
27579SOL    HW1  729   0.159  10.835   2.630  1.4253  1.5178 -1.4292
27579SOL    HW2  730   0.023  10.880   2.581  0.2844  0.3538  0.5481
27580SOL     OW  731  11.031   8.087   0.491  0.0939 -0.0731  0.2394
27580SOL    HW1  732  11.079   8.005   0.496 -3.0251 -2.1052 -0.6285
27580SOL    HW2  733  11.030   8.119   0.582  1.4634 -0.8478  0.5661
27581SOL     OW  734   6.563  10.173  12.829 -0.2781  0.7489 -0.1510
27581SOL    HW1  735   6.621  10.097  12.822 -0.5524  0.4542  0.7234
27581SOL    HW2  736   6.620  10.245  12.856 -0.1841  0.6513 -0.0922
27582SOL     OW  737   1.580   1.929   7.025 -0.0911  0.1831 -0.0453
27582SOL    HW1  738   1.669   1.917   7.058 -0.8635 -4.1002  1.0214
27582SOL    HW2  739   1.581   1.891   6.937 -1.0683 -0.8940  0.3918
27583SOL     OW  740   1.522  13.083  13.599 -0.2292 -0.1129 -0.2180
27583SOL    HW1  741   1.506  13.118  13.511 -1.8770 -1.6879 -0.6083
27583SOL    HW2  742   1.437  13.052  13.629  0.3246  0.2486  1.9082
27584SOL     OW  743  13.737   9.026   0.077  0.0470  0.3502  0.5088
27584SOL    HW1  744  13.721   9.062  -0.011  0.1568 -0.2489  0.2369
27584SOL    HW2  745  13.766   8.936   0.061  1.3006  0.6315  1.0983
27585SOL     OW  746   0.973   4.671   7.493  0.3494  0.3889  0.4741
27585SOL    HW1  747   0.883   4.695   7.471  0.6560  1.1680 -0.0020
27585SOL    HW2  748   1.024   4.698   7.416  1.1823  1.3373  1.3174
27586SOL     OW  749   4.952  11.705   0.367  0.7362 -0.0858  0.0880
27586SOL    HW1  750   5.047  11.697   0.359  0.6708 -0.6973 -0.1151
27586SOL    HW2  751   4.919  11.617   0.351  0.0411  0.3921 -1.2923
27587SOL     OW  752   1.656   5.170  13.461 -0.0948  0.5632 -0.0632
27587SOL    HW1  753   1.744   5.159  13.497  0.3666  0.0363 -1.2825
27587SOL    HW2  754   1.655   5.114  13.383 -1.8728 -0.3047  0.5167
27588SOL     OW  755   5.658   1.559   8.721  0.4966  0.0717 -0.2301
27588SOL    HW1  756   5.600   1.519   8.785  1.4385 -0.1122  0.5208
27588SOL    HW2  757   5.692   1.486   8.669  2.9366 -0.3319  1.7259
27589SOL     OW  758  13.238  10.825  10.996 -0.5625  0.4889  0.1192
27589SOL    HW1  759  13.275  10.784  11.075 -0.2288 -2.6116 -1.4926
27589SOL    HW2  760  13.311  10.827  10.934 -1.3781  0.6882 -0.8575
27590SOL     OW  761   6.984   7.890   2.785 -0.2439  1.1347  0.0633
27590SOL    HW1  762   6.920   7.955   2.814 -0.5114 -0.1120  2.4948
27590SOL    HW2  763   7.068   7.934   2.792 -0.6327  2.0930 -1.0575
27591SOL     OW  764   4.718   1.984  10.992  0.2090 -0.2541 -0.1309
27591SOL    HW1  765   4.675   2.059  11.033  0.8192 -0.5108  1.0261
27591SOL    HW2  766   4.778   2.022  10.928  1.1808  0.3215  1.0802
27592SOL     OW  767   9.110   1.357  12.617  0.0537 -0.2852  0.0406
27592SOL    HW1  768   9.083   1.267  12.636 -0.5294  0.1229  1.2849
27592SOL    HW2  769   9.205   1.352  12.607 -0.0064 -1.0838 -0.2139
27593SOL     OW  770  12.684   9.271   1.192 -0.3614 -0.1153  0.2157
27593SOL    HW1  771  12.609   9.328   1.172 -0.0548 -0.3344 -1.8030
27593SOL    HW2  772  12.750   9.330   1.227 -0.7783  0.4124  0.1325
27594SOL     OW  773  10.934   0.142   1.773  0.9979  0.3653  0.3637
27594SOL    HW1  774  11.028   0.157   1.758  1.1169 -0.9875 -0.4865
27594SOL    HW2  775  10.917   0.057   1.732 -0.1992 -0.3177  2.1670
27595SOL     OW  776   3.540   4.965  13.895 -0.5400 -0.3249  0.3614
27595SOL    HW1  777   3.544   4.870  13.888 -0.4070 -0.3536  0.7896
27595SOL    HW2  778   3.601   4.986  13.966 -1.6318 -0.0406  1.2363
27596SOL     OW  779  10.293   9.879   1.947  0.1895 -0.3682  0.5308
27596SOL    HW1  780  10.378   9.922   1.957 -0.0037  0.1678 -0.0971
27596SOL    HW2  781  10.238   9.944   1.905 -0.5076 -0.7560  0.8306
27597SOL     OW  782  12.660   9.252   5.762  0.1951 -0.3318 -0.0099
27597SOL    HW1  783  12.621   9.320   5.707 -0.5245 -0.7156  0.0070
27597SOL    HW2  784  12.751   9.278   5.772  0.6159 -0.7628 -2.2152
27598SOL     OW  785  10.719   3.808   2.808 -0.6980  0.6996  0.0121
27598SOL    HW1  786  10.657   3.875   2.839 -1.2053 -0.2806  1.2241
27598SOL    HW2  787  10.687   3.727   2.847 -0.1631 -0.2868 -1.5214
27599SOL     OW  788   3.787   8.987   6.428  0.2089  0.1279 -0.1458
27599SOL    HW1  789   3.700   8.948   6.414 -0.6942  1.2991  1.7846
27599SOL    HW2  790   3.846   8.912   6.433 -1.0353 -0.8482  0.6174
27600SOL     OW  791  13.201   0.037  11.069  0.2349  0.5493 -0.3238
27600SOL    HW1  792  13.277  -0.014  11.043 -0.1022  0.5669 -1.3775
27600SOL    HW2  793  13.227   0.128  11.054  0.2111  0.5919 -0.1148
27601SOL     OW  794   8.881   7.585   4.757 -0.1778  0.3418  0.2302
27601SOL    HW1  795   8.964   7.570   4.804  0.1992  0.1524 -0.4778
27601SOL    HW2  796   8.882   7.678   4.737  0.8175  0.0054 -1.4881
27602SOL     OW  797  12.062   8.527  12.420 -0.3292 -0.0717 -0.0910
27602SOL    HW1  798  11.998   8.548  12.488  1.0756  0.4029  1.1586
27602SOL    HW2  799  12.110   8.609  12.406  1.5811 -0.9512  0.8069
27603SOL     OW  800   2.013  11.769   5.993 -0.3922 -0.6030  0.2026
27603SOL    HW1  801   2.079  11.769   5.924 -1.4001 -2.1259 -0.8248
27603SOL    HW2  802   2.018  11.682   6.031 -0.5973 -0.1355  1.3400
27604SOL     OW  803  11.705  10.172   9.375 -0.2924 -0.1792  0.0205
27604SOL    HW1  804  11.661  10.114   9.437  0.6833 -1.4089 -0.4068
27604SOL    HW2  805  11.643  10.244   9.363 -1.2570 -0.7900  1.0673
27605SOL     OW  806   0.590  10.224   9.941 -0.1539 -0.4520 -0.2965
27605SOL    HW1  807   0.676  10.196   9.971  1.2936  1.3646 -2.4224
27605SOL    HW2  808   0.566  10.295  10.002  0.5327 -0.0207 -0.5134
27606SOL     OW  809   5.923   0.042   0.982 -0.1540 -0.0753 -0.3078
27606SOL    HW1  810   5.945   0.030   0.890 -1.2382  0.3219 -0.6364
27606SOL    HW2  811   5.851  -0.019   0.998 -0.8898  0.8244 -0.0997
27607SOL     OW  812   1.519   9.134   0.030 -0.2160  0.2700  0.2526
27607SOL    HW1  813   1.584   9.077   0.072  0.8916  1.4051  0.1405
27607SOL    HW2  814   1.555   9.151  -0.057 -0.9332  0.4894 -0.0116
27608SOL     OW  815   9.328  11.230   9.780 -0.1365 -0.3809 -0.1758
27608SOL    HW1  816   9.232  11.226   9.779 -0.1788 -0.2912  1.2372
27608SOL    HW2  817   9.353  11.219   9.688 -1.5108 -0.0033 -0.6267
27609SOL     OW  818   5.839   0.720   6.522  0.0643 -0.0483  0.0617
27609SOL    HW1  819   5.818   0.658   6.453 -2.1490 -0.1504  0.7608
27609SOL    HW2  820   5.867   0.666   6.596 -1.0117 -0.1797  0.3835
27610SOL     OW  821   4.666   9.701   5.663  0.2062  0.0516  0.1947
27610SOL    HW1  822   4.742   9.731   5.613 -0.4696  1.7463  0.1371
27610SOL    HW2  823   4.593   9.751   5.628 -0.5997 -0.0799  1.6414
27611SOL     OW  824   3.891   8.376  11.847  0.0209 -0.6183 -0.2047
27611SOL    HW1  825   3.945   8.421  11.782 -0.2254 -0.0406 -0.0235
27611SOL    HW2  826   3.954   8.328  11.901  0.5092  0.9287  0.6969
27612SOL     OW  827   3.385   1.756   3.959  0.3141 -0.7127 -0.1599
27612SOL    HW1  828   3.428   1.808   4.027 -3.2376 -0.0004  1.7818
27612SOL    HW2  829   3.428   1.783   3.878  0.6342  3.1731  1.0928
27613SOL     OW  830   3.535  10.271   7.740 -0.3627  0.1673 -0.1368
27613SOL    HW1  831   3.478  10.250   7.666 -0.3086  0.6822 -0.3261
27613SOL    HW2  832   3.622  10.281   7.701 -0.1326 -0.5863  0.1457
27614SOL     OW  833   5.544   0.441  10.397  0.4710  0.8081  0.4534
27614SOL    HW1  834   5.530   0.391  10.477  0.9703  2.5118  1.6689
27614SOL    HW2  835   5.624   0.404  10.359 -1.6674 -2.4847 -1.3570
27615SOL     OW  836   0.632  12.676   1.679 -0.2663  0.1226  0.1102
27615SOL    HW1  837   0.657  12.621   1.605 -0.4991 -0.0084  0.1288
27615SOL    HW2  838   0.581  12.747   1.640  0.3919  0.5629  0.0337
27616SOL     OW  839   5.587  10.276   5.995 -0.3576  0.2468 -0.0032
27616SOL    HW1  840   5.547  10.309   6.076 -1.2224  2.1946 -1.1528
27616SOL    HW2  841   5.627  10.352   5.955 -0.8771 -0.4252 -1.9297
27617SOL     OW  842  11.119   8.634  10.712 -0.3602  0.8344  0.2733
27617SOL    HW1  843  11.073   8.638  10.629 -0.4967  0.2539  0.3163
27617SOL    HW2  844  11.200   8.682  10.697 -0.6474  1.2317 -0.0181
27618SOL     OW  845   1.305  11.564   1.910 -0.1613 -0.3113 -0.1371
27618SOL    HW1  846   1.249  11.579   1.835  0.9218 -1.3929 -1.2191
27618SOL    HW2  847   1.382  11.619   1.894 -0.4294  0.3692  0.8074
27619SOL     OW  848   7.940   6.012   7.609  0.7486 -0.1533  0.3948
27619SOL    HW1  849   7.930   5.923   7.575  0.1453 -0.3690  1.1052
27619SOL    HW2  850   8.012   6.007   7.671  1.5185  0.1320 -0.4498
27620SOL     OW  851  13.705   5.768  10.809 -0.3361  0.3466 -0.0180
27620SOL    HW1  852  13.677   5.719  10.887 -0.3770 -0.5936 -0.6004
27620SOL    HW2  853  13.801   5.768  10.814 -0.1892 -2.1397 -1.3445
27621SOL     OW  854   1.765   9.212   8.088  0.8462  0.4863  0.3285
27621SOL    HW1  855   1.758   9.306   8.073  0.0582  0.1751 -1.5268
27621SOL    HW2  856   1.772   9.174   8.000  2.3063 -1.1243  1.0591
27622SOL     OW  857   6.154   9.613   2.527 -0.4259 -0.4967  0.1558
27622SOL    HW1  858   6.146   9.517   2.528 -2.0360 -0.3889  0.7437
27622SOL    HW2  859   6.094   9.640   2.457 -0.0625  0.0937  0.0702
27623SOL     OW  860   8.049   2.903   2.307 -0.0103  0.0529 -0.0049
27623SOL    HW1  861   8.002   2.847   2.245 -1.5005 -1.1252  2.0489
27623SOL    HW2  862   8.067   2.846   2.382 -0.3361  1.9525  1.5996
27624SOL     OW  863   8.218  13.333   9.629 -0.8405  0.2260  0.1199
27624SOL    HW1  864   8.294  13.387   9.609 -0.1394 -0.3207  1.1858
27624SOL    HW2  865   8.253  13.244   9.635 -1.4588  0.0295  1.1418
27625SOL     OW  866   4.690   9.945  12.850  0.1198 -0.4872  0.6434
27625SOL    HW1  867   4.712  10.036  12.867  0.5633 -0.5959  0.6677
27625SOL    HW2  868   4.764   9.895  12.885  2.1568 -0.6471 -3.2636
27626SOL     OW  869   9.574  11.622  12.080  0.4313 -0.1351 -0.0430
27626SOL    HW1  870   9.605  11.572  12.155  0.3858  1.5074  1.1328
27626SOL    HW2  871   9.647  11.623  12.019  0.5459 -1.3063  0.0443
27627SOL     OW  872   3.262   9.455   0.698  0.1859  0.0369  0.2357
27627SOL    HW1  873   3.244   9.471   0.606  0.7372  0.1904  0.1526
27627SOL    HW2  874   3.189   9.400   0.728 -0.3136  0.4890 -0.1363
27628SOL     OW  875   6.292   6.549  10.124 -0.0062 -0.0020 -0.0445
27628SOL    HW1  876   6.235   6.527  10.197  0.3446 -1.0505 -0.0630
27628SOL    HW2  877   6.370   6.586  10.164  0.4413 -1.1335  0.1791
27629SOL     OW  878   0.318   5.069   9.317 -0.0957  0.1266 -0.0007
27629SOL    HW1  879   0.275   5.132   9.373  0.8940 -0.8074  1.8963
27629SOL    HW2  880   0.405   5.058   9.355 -0.5802 -3.1612  0.4528
27630SOL     OW  881   7.150   8.085   3.202  0.6606  0.8261  0.2442
27630SOL    HW1  882   7.165   8.084   3.107 -0.0040  0.3452  0.1346
27630SOL    HW2  883   7.207   8.016   3.235  0.3588  0.4972  0.0964
27631SOL     OW  884   2.374   6.752   5.344  0.0934 -0.4029 -0.1977
27631SOL    HW1  885   2.433   6.823   5.369 -0.9188  1.2037 -2.0331
27631SOL    HW2  886   2.427   6.672   5.352  1.5891  0.6551  0.9666
27632SOL     OW  887  11.531   4.612   4.201  0.2605 -0.4052  0.0979
27632SOL    HW1  888  11.470   4.541   4.221 -0.2100 -0.4773 -1.4927
27632SOL    HW2  889  11.610   4.567   4.168  0.2143 -0.2250 -0.2666
27633SOL     OW  890   7.775  13.701   9.622 -0.2272 -0.0565 -0.3037
27633SOL    HW1  891   7.842  13.765   9.596 -1.1082  1.1054  0.1962
27633SOL    HW2  892   7.697  13.728   9.573 -1.4685  1.1578  2.1496
27634SOL     OW  893   3.205   7.568  13.841 -0.1078  0.1267 -0.0604
27634SOL    HW1  894   3.110   7.578  13.846 -0.5137 -3.3604  1.7013
27634SOL    HW2  895   3.222   7.552  13.748 -1.3968 -0.3910 -0.2229
27635SOL     OW  896   0.892   5.392   1.131  0.0572  0.4904 -0.0055
27635SOL    HW1  897   0.862   5.301   1.121 -0.3191  0.5833  0.2650
27635SOL    HW2  898   0.931   5.396   1.218 -1.2970  0.9536  0.6175
27636SOL     OW  899   7.654   4.950  12.947 -0.1362 -0.2229 -0.2905
27636SOL    HW1  900   7.633   4.867  12.904  0.2390 -0.6101  0.2782
27636SOL    HW2  901   7.593   4.955  13.021 -0.9852  0.5856 -1.0119
27637SOL     OW  902   9.746  13.330   3.138  0.6609 -0.3253 -0.4995
27637SOL    HW1  903   9.833  13.312   3.173 -0.3674 -1.2837  1.7670
27637SOL    HW2  904   9.745  13.286   3.053  2.4938  0.0672 -0.7658
27638SOL     OW  905   6.274   4.638  12.949  0.0885 -0.3487  0.4199
27638SOL    HW1  906   6.316   4.634  12.864  0.4268 -0.4978  0.5900
27638SOL    HW2  907   6.180   4.628  12.931  0.0592  0.6923 -0.0185
27639SOL     OW  908  12.614  13.194  13.722 -0.2338 -0.0247  0.4500
27639SOL    HW1  909  12.568  13.253  13.663 -0.0514  0.8461  1.1601
27639SOL    HW2  910  12.704  13.226  13.723 -0.2915  0.1382  1.4018
27640SOL     OW  911   2.061   6.530   3.836 -0.0598  0.0372 -0.4676
27640SOL    HW1  912   2.053   6.444   3.795  0.3083  0.3969 -1.3039
27640SOL    HW2  913   2.055   6.512   3.930 -1.4649 -0.7269 -0.6906
27641SOL     OW  914  10.976   5.310   6.031 -0.1111 -0.2006  0.0932
27641SOL    HW1  915  10.974   5.295   6.125  0.8199 -0.7499  0.0359
27641SOL    HW2  916  11.003   5.226   5.994 -2.0823 -0.4899 -0.8012
27642SOL     OW  917   5.478   3.289   1.311 -0.1797  0.1057 -0.2904
27642SOL    HW1  918   5.566   3.324   1.323 -0.2758 -0.0512  1.0583
27642SOL    HW2  919   5.426   3.331   1.379 -0.4286 -2.1311  1.0245
27643SOL     OW  920  11.157   2.942   4.581  0.2255  0.1013  0.8847
27643SOL    HW1  921  11.109   2.955   4.663  0.0446 -0.4712  0.8730
27643SOL    HW2  922  11.089   2.920   4.517  0.5858 -1.8551  1.1146
27644SOL     OW  923   1.533  11.246  12.131  0.1672  0.1460 -0.2155
27644SOL    HW1  924   1.478  11.173  12.160 -0.5320  0.4266 -0.7802
27644SOL    HW2  925   1.590  11.209  12.064 -0.2389  0.1213 -0.5550
27645SOL     OW  926   3.259   1.908   5.577  0.1976 -0.2221  0.2005
27645SOL    HW1  927   3.304   1.908   5.662  1.1448  0.3838 -0.2838
27645SOL    HW2  928   3.220   1.996   5.571  0.1791 -0.2446 -0.0062
27646SOL     OW  929   7.443   1.265   4.393 -0.2377 -0.3536  0.2660
27646SOL    HW1  930   7.393   1.307   4.323  0.4728 -2.5924 -1.6976
27646SOL    HW2  931   7.534   1.285   4.372 -0.0688  0.0899  1.3607
27647SOL     OW  932   7.634   6.610  12.857 -0.1640  0.0594 -0.1640
27647SOL    HW1  933   7.707   6.651  12.811  0.0812  1.1101  1.0918
27647SOL    HW2  934   7.600   6.545  12.796  3.4119 -2.3278  0.1380
27648SOL     OW  935  11.104   0.650  13.970  0.2574  0.4579  0.6332
27648SOL    HW1  936  11.050   0.608  14.037  0.0713 -1.1113 -0.4526
27648SOL    HW2  937  11.151   0.578  13.929 -1.1493  1.0509 -2.2721
27649SOL     OW  938  12.751   7.041   5.867 -0.8660  0.3780 -0.1453
27649SOL    HW1  939  12.682   6.976   5.854 -0.7069  0.2893 -0.5550
27649SOL    HW2  940  12.826   7.007   5.818 -0.9405  1.1075 -0.7949
27650SOL     OW  941   1.380   9.667  12.230 -0.3404 -0.5730  0.1758
27650SOL    HW1  942   1.415   9.699  12.147  0.6821 -0.5096  0.6144
27650SOL    HW2  943   1.344   9.580  12.210  0.1714 -0.6818 -0.2700
27651SOL     OW  944  12.939   5.531   9.571  0.3264 -0.4377  0.3658
27651SOL    HW1  945  12.954   5.492   9.485 -1.3157 -2.0873  0.7878
27651SOL    HW2  946  12.939   5.625   9.554 -2.5074 -0.7239 -1.9562
27652SOL     OW  947   6.996  12.829   6.289 -0.0199 -0.7124 -0.0643
27652SOL    HW1  948   7.085  12.825   6.323  1.7328 -1.0347 -4.1432
27652SOL    HW2  949   7.006  12.846   6.196 -4.2523 -1.2189 -0.8302
27653SOL     OW  950   4.939  11.631   7.119 -0.0757 -0.5699  0.3832
27653SOL    HW1  951   4.980  11.633   7.205  0.2295 -1.5670  0.2812
27653SOL    HW2  952   5.010  11.652   7.058  0.4234 -2.5695  0.1838
27654SOL     OW  953   2.269   8.879   4.979 -0.1916  0.4998 -0.1079
27654SOL    HW1  954   2.244   8.946   4.915 -0.7469  1.2617  0.8610
27654SOL    HW2  955   2.294   8.803   4.927  2.0702  1.9766 -1.3155
27655SOL     OW  956   2.306   3.783   6.618  0.4263 -0.0173 -0.5512
27655SOL    HW1  957   2.399   3.808   6.620  0.2829  0.5064  0.1341
27655SOL    HW2  958   2.291   3.740   6.702  0.1968 -0.6972 -0.9331
27656SOL     OW  959   6.633   4.298   3.223 -0.1447 -0.2493  0.0206
27656SOL    HW1  960   6.594   4.236   3.162  0.7724 -1.5320  0.6912
27656SOL    HW2  961   6.655   4.375   3.170 -1.6631 -0.3182 -0.7451
27657SOL     OW  962  11.443   7.982  13.278 -0.3796 -0.1823  0.0608
27657SOL    HW1  963  11.394   7.978  13.360 -0.9844 -1.3292 -0.3266
27657SOL    HW2  964  11.471   7.892  13.263  1.1977  0.3183 -0.1332
27658SOL     OW  965   3.295   9.470   3.538 -0.4395  0.6118  0.2757
27658SOL    HW1  966   3.236   9.483   3.464 -1.3260 -0.8615  0.6815
27658SOL    HW2  967   3.250   9.406   3.594 -0.0701  2.0792  2.3739
27659SOL     OW  968   5.598  11.118  10.422 -0.1344  0.0832  0.3866
27659SOL    HW1  969   5.525  11.157  10.374 -0.2141  1.9169  1.8988
27659SOL    HW2  970   5.605  11.029  10.387 -0.9196  0.9347 -2.1493
27660SOL     OW  971   6.259  13.205   4.257 -0.0443  0.2657 -0.8206
27660SOL    HW1  972   6.296  13.173   4.339  0.1191  0.5934 -0.7697
27660SOL    HW2  973   6.174  13.161   4.251  0.0250  0.0968 -0.5712
27661SOL     OW  974  10.017   1.787  10.016  0.3065 -0.1096 -0.2194
27661SOL    HW1  975  10.094   1.787   9.958  0.0973 -1.0246 -0.5132
27661SOL    HW2  976   9.999   1.880  10.032  0.1613  0.1813 -1.8995
27662SOL     OW  977  10.429  12.812   7.472 -0.2505  0.3713  0.1610
27662SOL    HW1  978  10.432  12.720   7.501 -2.1102  0.4007  0.5614
27662SOL    HW2  979  10.519  12.842   7.480  0.3300 -1.2988  0.4214
27663SOL     OW  980  12.425   0.878  11.195 -0.6332 -0.0245 -0.2212
27663SOL    HW1  981  12.372   0.826  11.254  3.2877 -3.7725  0.5110
27663SOL    HW2  982  12.408   0.842  11.108  0.3329 -1.0046 -0.0283
27664SOL     OW  983   6.697  11.879   0.299 -0.0206  0.3469  0.0835
27664SOL    HW1  984   6.628  11.815   0.281  0.7104 -0.7217  0.9370
27664SOL    HW2  985   6.753  11.837   0.364  1.7220  0.9863 -0.9166
27665SOL     OW  986  13.239  12.675  10.002  0.8100 -0.4121 -0.5355
27665SOL    HW1  987  13.252  12.592  10.048  0.3790  1.1235  2.6777
27665SOL    HW2  988  13.159  12.662   9.951  0.8912 -2.0404 -0.3074
27666SOL     OW  989   8.266  11.372   3.632 -0.6331  0.3368  0.1417
27666SOL    HW1  990   8.198  11.350   3.569 -0.8525  1.8578 -0.1957
27666SOL    HW2  991   8.228  11.441   3.686 -0.2162 -0.4939  1.5468
27667SOL     OW  992   3.393   6.941  12.307 -0.1693  1.0141  0.7673
27667SOL    HW1  993   3.346   6.982  12.235 -0.7526 -0.1022  0.4889
27667SOL    HW2  994   3.377   6.997  12.383  0.0467  1.9310  0.1398
27668SOL     OW  995   8.572   1.756   0.248 -0.2251  0.1501 -0.6008
27668SOL    HW1  996   8.486   1.718   0.269  0.0333  0.1548  0.5593
27668SOL    HW2  997   8.575   1.758   0.152 -2.1944  1.6669 -0.6968
27669SOL     OW  998   7.154   3.225   2.604 -0.3535 -0.2422 -0.1842
27669SOL    HW1  999   7.120   3.162   2.668  1.3530 -2.0466 -0.9822
27669SOL    HW2 1000   7.110   3.202   2.522 -0.9320  0.6892 -0.1509
27670SOL     OW 1001  13.411   6.855   3.270 -0.1623 -0.3490 -0.4317
27670SOL    HW1 1002  13.326   6.896   3.284 -0.1034 -0.5645  0.6461
27670SOL    HW2 1003  13.390   6.767   3.239 -0.2931  0.1985 -1.9764
27671SOL     OW 1004  13.711   2.845  11.723  0.0577  0.3173  0.2136
27671SOL    HW1 1005  13.756   2.798  11.793 -2.5076 -1.1304  1.0116
27671SOL    HW2 1006  13.636   2.886  11.766 -1.7620 -0.8453 -1.6690
27672SOL     OW 1007   9.875   3.551   8.243 -0.3772  0.6237  0.4939
27672SOL    HW1 1008   9.937   3.480   8.258 -3.8109 -2.9464 -0.7575
27672SOL    HW2 1009   9.916   3.604   8.175  1.5758 -1.1888  0.1569
27673SOL     OW 1010   4.941  12.396   6.582 -0.4722 -0.3175  0.0728
27673SOL    HW1 1011   4.858  12.442   6.593 -0.9556 -0.1946 -3.0883
27673SOL    HW2 1012   4.934  12.318   6.637 -2.0846  0.3887  0.9160
27674SOL     OW 1013  12.188   8.122   7.298 -0.1441  0.0890 -0.3675
27674SOL    HW1 1014  12.257   8.185   7.279  0.6765 -0.1997  1.4347
27674SOL    HW2 1015  12.230   8.037   7.290  0.1111 -0.0638  1.9507
27675SOL     OW 1016  13.714   0.030   2.523  0.0263  0.2107 -0.2619
27675SOL    HW1 1017  13.680  -0.050   2.483  0.2431  1.3809 -3.0413
27675SOL    HW2 1018  13.636   0.079   2.550 -0.3145  0.5734 -1.8109
27676SOL     OW 1019   5.573   4.362   6.843  0.2023 -0.1649  0.0548
27676SOL    HW1 1020   5.646   4.423   6.829 -0.2423  0.5183  0.6642
27676SOL    HW2 1021   5.579   4.339   6.935 -1.2872  1.1560  0.5299
27677SOL     OW 1022  10.288  11.810   0.382  0.1425  0.4876 -0.3531
27677SOL    HW1 1023  10.243  11.765   0.311 -0.6393 -0.2442  0.5743
27677SOL    HW2 1024  10.379  11.781   0.376 -0.0723 -0.1322 -0.6040
27678SOL     OW 1025   8.839   7.710   1.586  0.3297 -1.0704  0.2990
27678SOL    HW1 1026   8.802   7.779   1.642  2.4224 -1.0263  1.7368
27678SOL    HW2 1027   8.930   7.704   1.613  0.6331 -3.2374 -1.0080
27679SOL     OW 1028  11.430   4.380  12.735 -0.6106  0.2351 -0.2984
27679SOL    HW1 1029  11.434   4.381  12.639 -1.8001 -0.2958 -0.3720
27679SOL    HW2 1030  11.385   4.462  12.758  0.7805  0.9834 -0.0950
27680SOL     OW 1031   9.408   9.564   8.356 -0.5563 -0.7826  0.0590
27680SOL    HW1 1032   9.411   9.604   8.270 -0.7819  1.9819  1.2506
27680SOL    HW2 1033   9.500   9.556   8.382 -0.5293 -0.6027  0.0152
27681SOL     OW 1034  10.943   7.324   8.348  0.1782 -0.7795 -0.5450
27681SOL    HW1 1035  10.860   7.283   8.371  0.3390 -1.0526 -0.4524
27681SOL    HW2 1036  10.977   7.272   8.275  0.6918 -1.2133 -0.0069
27682SOL     OW 1037  13.245  14.135  10.538 -0.0524  0.3550  0.1858
27682SOL    HW1 1038  13.296  14.070  10.490 -2.7278  0.3312 -2.9856
27682SOL    HW2 1039  13.282  14.219  10.510 -0.1437  0.2856 -0.1548
27683SOL     OW 1040   0.173   3.274   4.120 -0.6322 -0.2381 -0.3149
27683SOL    HW1 1041   0.124   3.240   4.194 -1.3087 -0.9849 -1.0890
27683SOL    HW2 1042   0.142   3.224   4.045  2.5344 -2.0429 -0.6286
27684SOL     OW 1043   9.639   7.265   4.437 -0.1132  0.1177  0.4610
27684SOL    HW1 1044   9.678   7.341   4.394  0.2100 -0.1754  0.2330
27684SOL    HW2 1045   9.596   7.301   4.515  0.1971  0.5070  0.4552
27685SOL     OW 1046   5.043   6.806  13.937 -0.0685 -0.3742 -0.3969
27685SOL    HW1 1047   5.076   6.800  14.027 -1.5933 -0.2462  0.2110
27685SOL    HW2 1048   5.041   6.900  13.918 -1.8149 -0.2301  0.2971
27686SOL     OW 1049   2.646   0.111   8.347  0.0140 -0.0146 -0.1153
27686SOL    HW1 1050   2.698   0.088   8.424  0.9203  1.4728 -0.2374
27686SOL    HW2 1051   2.679   0.197   8.320 -2.2856  0.8580 -0.4156
27687SOL     OW 1052   2.252   5.408   8.363  0.0099  0.4169  0.4131
27687SOL    HW1 1053   2.312   5.374   8.430  0.0497 -0.4877 -0.0640
27687SOL    HW2 1054   2.175   5.351   8.369 -1.2498  2.1485  1.6747
27688SOL     OW 1055   4.369   1.806   8.966 -0.1522  0.1743  0.2204
27688SOL    HW1 1056   4.297   1.786   8.907 -0.7671  0.8886  0.7141
27688SOL    HW2 1057   4.356   1.747   9.041  0.4348 -0.4924 -0.1850
27689SOL     OW 1058  11.099   4.521  12.826  0.2607 -0.3480  0.4950
27689SOL    HW1 1059  11.095   4.486  12.915  0.3436  0.9094  1.0151
27689SOL    HW2 1060  11.075   4.448  12.770 -1.8392 -0.6175  1.6775
27690SOL     OW 1061   2.577   6.744  12.122 -0.6853  0.1720 -0.0101
27690SOL    HW1 1062   2.548   6.658  12.091 -1.1526  0.5978 -0.7755
27690SOL    HW2 1063   2.538   6.753  12.208  0.9950 -1.2199  0.9706
27691SOL     OW 1064  12.176   6.823  13.494  0.2061 -0.3969  0.4048
27691SOL    HW1 1065  12.085   6.851  13.502  0.2908 -0.4993  1.8662
27691SOL    HW2 1066  12.208   6.869  13.416  0.1931  3.2618  2.3444
27692SOL     OW 1067  10.565   7.289   7.552  0.1833 -0.4709 -0.4821
27692SOL    HW1 1068  10.488   7.277   7.608  0.7817  0.3445  0.5383
27692SOL    HW2 1069  10.530   7.282   7.463 -1.1885  0.4523 -0.0566
27693SOL     OW 1070  13.573  11.983   5.584  0.2024 -0.5122  0.2851
27693SOL    HW1 1071  13.498  12.039   5.564  0.3176 -0.6254 -0.4755
27693SOL    HW2 1072  13.551  11.898   5.547  0.6109 -0.6036  0.2399
27694SOL     OW 1073   1.112   8.970   2.477  0.0408 -0.4932 -0.2988
27694SOL    HW1 1074   1.191   9.001   2.433 -0.9096  1.9338 -0.4344
27694SOL    HW2 1075   1.042   8.980   2.412 -1.3573  2.9558  1.4633
27695SOL     OW 1076   9.900  10.077  12.761 -0.2012  0.3938 -0.1753
27695SOL    HW1 1077   9.913  10.172  12.760  0.3499  0.3176 -0.6874
27695SOL    HW2 1078   9.856  10.060  12.844 -0.8531  1.1677 -0.3512
27696SOL     OW 1079  10.518   0.301   3.797 -0.2603  0.2573 -0.1591
27696SOL    HW1 1080  10.598   0.325   3.844 -0.9047 -0.8426  1.5606
27696SOL    HW2 1081  10.455   0.369   3.820  0.1439  1.1872 -1.6051
27697SOL     OW 1082   5.910  11.858   6.502  0.0182 -0.1445  0.4329
27697SOL    HW1 1083   5.870  11.844   6.416 -1.3281  1.5186  0.7308
27697SOL    HW2 1084   5.860  11.801   6.561  0.7508 -1.0644  0.1892
27698SOL     OW 1085   4.148   8.707   7.146  0.4536  0.3700  0.0632
27698SOL    HW1 1086   4.155   8.790   7.100  1.2670  0.2440 -0.0555
27698SOL    HW2 1087   4.094   8.726   7.222 -0.7196  0.6372 -0.8001
27699SOL     OW 1088   9.249  11.376   5.484  0.0051 -0.2946 -0.1806
27699SOL    HW1 1089   9.173  11.329   5.518  0.0778 -0.2394  0.0658
27699SOL    HW2 1090   9.313  11.372   5.556  0.7906 -1.6124 -0.9130
27700SOL     OW 1091   0.814   4.885  13.681 -0.0353  0.2716 -0.4324
27700SOL    HW1 1092   0.725   4.855  13.700 -0.3858  1.9778  0.9472
27700SOL    HW2 1093   0.871   4.822  13.724 -0.5950 -0.3980 -0.6524
27701SOL     OW 1094   8.617   1.265   2.277  0.0784 -0.0474 -0.4177
27701SOL    HW1 1095   8.611   1.206   2.202  0.5165 -0.2849 -0.2716
27701SOL    HW2 1096   8.629   1.206   2.352 -1.1906  0.1407 -0.0494
27702SOL     OW 1097   5.402   1.529  13.430  0.1794 -0.9650 -0.0514
27702SOL    HW1 1098   5.457   1.464  13.475  0.3908 -0.6891  0.0908
27702SOL    HW2 1099   5.367   1.583  13.501 -2.6652 -2.9189  0.1976
27703SOL     OW 1100   7.389   0.409   1.287  0.0334 -0.3588  0.2174
27703SOL    HW1 1101   7.408   0.484   1.230 -0.3962  1.2443  2.0408
27703SOL    HW2 1102   7.446   0.422   1.363 -1.5693 -0.6531  1.5416
27704SOL     OW 1103  11.725   9.778   2.283  0.5386  0.3021 -0.1019
27704SOL    HW1 1104  11.718   9.872   2.303  0.9091 -0.2086  2.8780
27704SOL    HW2 1105  11.810   9.769   2.240  1.0198  1.1821  0.6325
27705SOL     OW 1106   5.562   8.978  13.491  0.1990 -0.8196 -0.1891
27705SOL    HW1 1107   5.478   8.934  13.499 -0.1923 -0.1693 -0.6197
27705SOL    HW2 1108   5.572   8.995  13.398  2.1520 -3.4123 -0.5799
27706SOL     OW 1109   0.613   0.055   5.325 -0.4754  0.0195  0.1545
27706SOL    HW1 1110   0.561   0.066   5.404 -1.7721  0.8613 -0.7793
27706SOL    HW2 1111   0.550   0.024   5.259  0.6591 -1.0973 -0.4566
27707SOL     OW 1112   6.988   6.274   6.390 -0.1378  0.3453  0.2790
27707SOL    HW1 1113   6.936   6.196   6.373  1.4617 -1.1814  1.9660
27707SOL    HW2 1114   7.041   6.284   6.310 -1.7194  0.9274 -0.7487
27708SOL     OW 1115   9.142  10.077   1.773  0.0483  0.1726 -0.1310
27708SOL    HW1 1116   9.226  10.060   1.817 -0.4047 -1.9389  0.0523
27708SOL    HW2 1117   9.103  10.149   1.823  2.6611  2.8406 -1.5972
27709SOL     OW 1118   4.868   7.504  12.855 -0.4487 -0.0855 -0.6489
27709SOL    HW1 1119   4.930   7.462  12.914 -0.7234  1.3712  0.7757
27709SOL    HW2 1120   4.811   7.433  12.825  0.8733 -1.1683 -0.6887
27710SOL     OW 1121   6.721   1.574   6.637 -0.2530  0.1070 -0.5707
27710SOL    HW1 1122   6.789   1.537   6.693 -0.0502  2.6511  1.0404
27710SOL    HW2 1123   6.770   1.623   6.571 -0.5193 -0.2566 -1.0372
27711SOL     OW 1124  12.109   7.123   2.954  1.1458  0.3774  0.2780
27711SOL    HW1 1125  12.164   7.202   2.955  0.3118  1.0214 -1.1691
27711SOL    HW2 1126  12.117   7.090   2.865 -0.6343  0.3748  0.0974
27712SOL     OW 1127   1.282   3.214  10.954 -0.2092  0.8675 -0.5007
27712SOL    HW1 1128   1.205   3.222  11.010 -0.5395 -0.1098 -0.8051
27712SOL    HW2 1129   1.262   3.268  10.878 -1.1500 -0.3999 -1.1744
27713SOL     OW 1130   7.164   2.756   5.273 -0.1593  0.1203  0.1549
27713SOL    HW1 1131   7.120   2.836   5.243 -0.9254 -0.1701  0.4952
27713SOL    HW2 1132   7.110   2.685   5.240  0.1242 -0.2471  0.4818
27714SOL     OW 1133   3.465   5.038   6.092 -0.2261 -0.3507  0.0104
27714SOL    HW1 1134   3.543   5.089   6.114 -1.4324  1.4794  0.1779
27714SOL    HW2 1135   3.449   5.056   6.000 -1.0180  0.0941  0.2264
27715SOL     OW 1136   2.852   6.116  12.612 -0.0265  0.4344 -0.0542
27715SOL    HW1 1137   2.781   6.181  12.613  0.1611  0.6760 -1.4032
27715SOL    HW2 1138   2.928   6.164  12.580  0.8852  0.2709  1.7083
27716SOL     OW 1139   8.118  10.032   2.572 -0.7239  0.1130 -0.4801
27716SOL    HW1 1140   8.134   9.954   2.520  2.1725  1.2716 -1.4812
27716SOL    HW2 1141   8.054  10.082   2.521 -0.0470 -0.0597 -1.5221
27717SOL     OW 1142  10.025   8.095   8.542 -0.0730 -0.0596 -0.0387
27717SOL    HW1 1143  10.052   8.107   8.451 -0.5204  0.8945 -0.0596
27717SOL    HW2 1144  10.061   8.010   8.567  0.7969  0.0596 -0.8316
27718SOL     OW 1145   9.702  10.778  10.906  0.3256  0.5673 -0.4926
27718SOL    HW1 1146   9.672  10.719  10.838  0.0254  0.2633 -0.1029
27718SOL    HW2 1147   9.783  10.739  10.939  0.3038  0.5469 -0.4632
27719SOL     OW 1148   1.582   9.039   5.950  0.0804 -0.3369 -0.0451
27719SOL    HW1 1149   1.663   8.989   5.954  1.6850  1.8744 -2.1059
27719SOL    HW2 1150   1.610   9.129   5.933 -2.7740  0.7256  0.3474
27720SOL     OW 1151   9.374   3.173   4.253  0.3611 -0.3545 -0.1757
27720SOL    HW1 1152   9.329   3.120   4.187 -1.8282 -0.1367  1.0425
27720SOL    HW2 1153   9.453   3.203   4.209 -0.0468 -1.7951 -2.0395
27721SOL     OW 1154   8.984   0.188  10.006  0.1786 -0.0358  0.5373
27721SOL    HW1 1155   8.951   0.153  10.089  1.1861 -0.6385  0.7049
27721SOL    HW2 1156   9.070   0.224  10.029  0.5715 -0.4349 -0.2959
27722SOL     OW 1157   1.760   6.224   9.163  0.1306 -0.4153  0.3919
27722SOL    HW1 1158   1.815   6.288   9.209 -0.8608 -0.2317  1.3720
27722SOL    HW2 1159   1.793   6.224   9.073 -0.5766  2.3579  0.0465
27723SOL     OW 1160   4.088   2.512   3.232  0.1561 -0.0909  0.1619
27723SOL    HW1 1161   4.030   2.515   3.156 -0.9046 -1.7579  0.8441
27723SOL    HW2 1162   4.033   2.546   3.304  0.1205 -1.3607  0.7503
27724SOL     OW 1163   1.753   4.036   3.149 -0.0255 -0.0370  0.3281
27724SOL    HW1 1164   1.756   3.940   3.149  1.7962 -0.0130  0.9071
27724SOL    HW2 1165   1.778   4.061   3.060 -0.9447 -0.0839  0.0451
27725SOL     OW 1166  11.510   4.619   5.976  0.1439  0.1955 -0.0879
27725SOL    HW1 1167  11.527   4.638   6.069 -0.0230 -1.4604  0.3107
27725SOL    HW2 1168  11.427   4.663   5.958  0.2834  0.7089  0.4832
27726SOL     OW 1169   1.882  12.573   8.177 -0.7018 -0.4620  0.0746
27726SOL    HW1 1170   1.943  12.583   8.250 -1.1394 -0.0172  0.3873
27726SOL    HW2 1171   1.844  12.486   8.189 -0.6996 -0.4288  0.3211
27727SOL     OW 1172   7.006   6.943   0.182  0.2094  0.2769 -0.4861
27727SOL    HW1 1173   7.066   7.009   0.219 -1.3063  0.8001  1.1927
27727SOL    HW2 1174   6.985   6.886   0.256 -1.4197  0.1520 -1.0085
27728SOL     OW 1175   9.590   3.269  11.476 -0.0798  0.1897  0.4936
27728SOL    HW1 1176   9.619   3.250  11.387 -0.0948  0.3558  0.4528
27728SOL    HW2 1177   9.537   3.349  11.468 -0.2654  0.0799  0.6174
27729SOL     OW 1178   4.428   2.417   9.673 -0.8019  0.2743 -0.3643
27729SOL    HW1 1179   4.388   2.331   9.657 -2.2992  0.8241  0.2912
27729SOL    HW2 1180   4.507   2.397   9.724 -1.4589 -0.6738  0.3172
27730SOL     OW 1181   8.201  12.533   4.706 -0.2021  0.0803  0.5768
27730SOL    HW1 1182   8.145  12.545   4.783  1.2349  1.0746  1.5239
27730SOL    HW2 1183   8.177  12.605   4.648 -0.3590  0.1362  0.7077
27731SOL     OW 1184   9.389  13.945  10.282 -0.5977 -0.2931  0.7032
27731SOL    HW1 1185   9.315  13.977  10.334 -0.2260  0.5917  0.7034
27731SOL    HW2 1186   9.403  14.012  10.215  0.4352 -0.2720  0.9245
27732SOL     OW 1187   4.304   0.773  11.208  0.0351 -0.3572  0.0312
27732SOL    HW1 1188   4.362   0.738  11.276 -1.6164 -2.3431  0.5236
27732SOL    HW2 1189   4.297   0.702  11.144 -0.1121  0.6961 -1.1576
27733SOL     OW 1190   1.674   1.451  13.690 -0.4149 -0.2241  0.2271
27733SOL    HW1 1191   1.620   1.412  13.622  0.2025 -1.8660  0.6366
27733SOL    HW2 1192   1.752   1.483  13.644 -0.6195 -0.0681 -0.0140
27734SOL     OW 1193   5.749   8.384  12.342 -0.1062 -0.3184  0.2427
27734SOL    HW1 1194   5.747   8.330  12.421  0.5161  0.8806  1.1151
27734SOL    HW2 1195   5.797   8.462  12.368  0.6276 -0.1482 -1.5008
27735SOL     OW 1196   1.118   2.639   3.442  0.4530 -0.2586 -0.4241
27735SOL    HW1 1197   1.108   2.559   3.495 -1.3438 -0.3040 -0.7679
27735SOL    HW2 1198   1.160   2.701   3.501 -0.1018 -0.7961  0.5703
27736SOL     OW 1199  10.143   3.260   4.656 -0.6125 -0.1000  0.3870
27736SOL    HW1 1200  10.121   3.167   4.662 -0.8991 -0.1086 -0.5832
27736SOL    HW2 1201  10.225   3.262   4.606 -1.3420  0.2259 -0.8392
27737SOL     OW 1202   2.653   6.293  11.357 -0.0188  0.6366 -0.3324
27737SOL    HW1 1203   2.693   6.370  11.316  1.5307 -0.2193 -0.5013
27737SOL    HW2 1204   2.663   6.224  11.292 -0.5448  0.0588  0.1903
27738SOL     OW 1205  13.803   9.048   7.489  0.3621  0.0048  0.2219
27738SOL    HW1 1206  13.778   8.958   7.508 -0.9024  0.3142  0.1169
27738SOL    HW2 1207  13.767   9.099   7.561  2.5137  0.2867  1.1908
27739SOL     OW 1208   7.070   1.457   8.653  0.1702  0.1567 -0.1568
27739SOL    HW1 1209   7.020   1.536   8.631  0.6349  0.3784 -0.4452
27739SOL    HW2 1210   7.015   1.385   8.623 -0.3692  0.3548  0.3253
27740SOL     OW 1211  10.544   1.816   5.284 -0.1216  0.1318 -0.0211
27740SOL    HW1 1212  10.492   1.894   5.303 -1.4883 -0.4752 -1.0295
27740SOL    HW2 1213  10.633   1.848   5.271 -0.8007  1.6539 -1.2084
27741SOL     OW 1214   1.548   1.036   3.775  0.4057 -0.7359  0.2343
27741SOL    HW1 1215   1.601   0.960   3.750  1.4799 -1.0445  3.0386
27741SOL    HW2 1216   1.603   1.111   3.755  0.2066 -0.7914 -0.5744
27742SOL     OW 1217   7.857   1.599   5.634 -0.2276  0.1531  0.2647
27742SOL    HW1 1218   7.785   1.579   5.695 -0.3057  0.0065  0.1266
27742SOL    HW2 1219   7.817   1.591   5.548  0.1448 -0.7224  0.1589
27743SOL     OW 1220   2.617  10.891   6.836  0.1094 -0.5052  0.4242
27743SOL    HW1 1221   2.592  10.979   6.810 -1.3785 -0.9502  0.2504
27743SOL    HW2 1222   2.535  10.842   6.839  0.9224 -1.9584  0.2504
27744SOL     OW 1223   3.656   7.523   0.358 -0.4856 -0.7184 -0.1029
27744SOL    HW1 1224   3.737   7.479   0.384 -0.4082 -1.1976 -1.1167
27744SOL    HW2 1225   3.680   7.573   0.280 -0.9553 -0.1262  0.1206
27745SOL     OW 1226   1.835  13.067   5.098  0.1534  0.1601  0.3856
27745SOL    HW1 1227   1.756  13.019   5.121  0.4759 -0.8266 -0.4899
27745SOL    HW2 1228   1.804  13.155   5.077 -0.4589  0.3407  1.9140
27746SOL     OW 1229   1.724  12.463  12.922 -0.2367  0.4255 -0.0797
27746SOL    HW1 1230   1.789  12.409  12.877  0.3145 -0.3918  1.5930
27746SOL    HW2 1231   1.653  12.402  12.943 -0.4715  0.7771  0.1626
27747SOL     OW 1232   2.157   3.165   4.645 -0.5146  0.6262 -0.3260
27747SOL    HW1 1233   2.205   3.236   4.688 -1.7053  1.8479 -0.9285
27747SOL    HW2 1234   2.109   3.208   4.574 -2.9420 -0.3770  0.5845
27748SOL     OW 1235  14.075   3.519   8.328  0.2770  0.3769 -0.2354
27748SOL    HW1 1236  14.047   3.607   8.353  1.4020  0.8450 -0.5469
27748SOL    HW2 1237  14.025   3.460   8.385  1.8022  1.3291  2.2599
27749SOL     OW 1238  12.420   1.385   9.576 -0.3541 -0.6355 -0.0199
27749SOL    HW1 1239  12.440   1.296   9.606  1.5348 -0.8238 -1.6230
27749SOL    HW2 1240  12.432   1.440   9.654  2.7657 -1.3083  0.1160
27750SOL     OW 1241   9.396   7.465   8.671  0.4443 -0.2564 -0.0128
27750SOL    HW1 1242   9.317   7.481   8.620  0.2883  1.6491  0.7419
27750SOL    HW2 1243   9.366   7.426   8.752  0.1989  0.7974  0.4249
27751SOL     OW 1244   3.342   2.387  13.505  0.1447 -0.0652  0.0404
27751SOL    HW1 1245   3.349   2.376  13.600  0.7769 -0.7535 -0.0834
27751SOL    HW2 1246   3.362   2.301  13.469 -0.7049  0.0380 -0.7010
27752SOL     OW 1247   3.381   0.066  13.598  0.4116  0.5745 -0.6628
27752SOL    HW1 1248   3.439   0.085  13.524  1.4925  1.1876  0.3077
27752SOL    HW2 1249   3.385   0.145  13.653  2.1495 -0.9669  1.6400
27753SOL     OW 1250   7.954   9.433   6.437 -0.5514 -0.4085  0.0336
27753SOL    HW1 1251   8.003   9.513   6.459  0.3792 -0.7519 -0.7004
27753SOL    HW2 1252   7.863   9.455   6.456 -0.6949  1.7547 -2.5441
27754SOL     OW 1253  11.028   1.321   4.207 -0.0470 -0.3640  0.0159
27754SOL    HW1 1254  11.059   1.248   4.153  0.6181  1.2579 -1.9341
27754SOL    HW2 1255  10.943   1.344   4.168  0.8747  1.4390 -1.0721
27755SOL     OW 1256   7.088   1.334   0.582 -0.0622 -0.0454 -0.4426
27755SOL    HW1 1257   7.111   1.425   0.561  2.3873  0.1783  2.4841
27755SOL    HW2 1258   7.117   1.322   0.672 -1.3904 -3.4467 -0.3047
27756SOL     OW 1259   1.057   1.006  11.244  0.5169  0.0633  0.2728
27756SOL    HW1 1260   1.026   1.094  11.264  1.6559  0.7092 -0.6792
27756SOL    HW2 1261   0.981   0.950  11.260 -0.2057  1.1922  0.9721
27757SOL     OW 1262   5.390   4.837   4.177 -0.0857 -0.2388  0.0872
27757SOL    HW1 1263   5.372   4.749   4.211 -1.7556  0.6307  1.6428
27757SOL    HW2 1264   5.433   4.883   4.249  0.0946  0.4469 -0.4448
27758SOL     OW 1265   2.169   1.756   7.190 -0.2606 -0.1442  0.4538
27758SOL    HW1 1266   2.208   1.703   7.260 -0.1046 -0.9140 -0.1945
27758SOL    HW2 1267   2.078   1.728   7.187 -0.4818  0.5045  0.9056
27759SOL     OW 1268   1.750  10.485   2.073  0.4652  0.4883  0.2114
27759SOL    HW1 1269   1.659  10.498   2.101  0.7537  0.3371  1.2504
27759SOL    HW2 1270   1.785  10.422   2.136  0.9350 -0.4230 -0.9245
27760SOL     OW 1271   8.620   8.285  11.646 -0.4249  0.0170  0.6326
27760SOL    HW1 1272   8.566   8.337  11.586 -0.6969 -0.4129  0.4984
27760SOL    HW2 1273   8.566   8.209  11.667 -0.2874  0.1111  1.3455
27761SOL     OW 1274  10.251  13.499  12.843  0.0419 -0.3812 -0.4266
27761SOL    HW1 1275  10.296  13.509  12.927 -1.3970  1.2834  0.1952
27761SOL    HW2 1276  10.302  13.432  12.797 -0.4010 -3.0814  2.6216
27762SOL     OW 1277   8.684  11.076  13.053  0.3339  0.2355  0.1667
27762SOL    HW1 1278   8.750  11.074  13.122 -1.6584  1.3803  2.2620
27762SOL    HW2 1279   8.602  11.097  13.099 -1.7011 -1.9438 -2.1382
27763SOL     OW 1280   3.916   0.327   8.861 -0.0586  0.8891 -0.0695
27763SOL    HW1 1281   3.950   0.252   8.814  0.6152  1.4931 -0.5642
27763SOL    HW2 1282   3.976   0.399   8.840  1.3951  0.8036  3.1153
27764SOL     OW 1283   2.413   3.704  12.276  0.2331  0.1132  0.1231
27764SOL    HW1 1284   2.418   3.611  12.254  2.2650  0.4153 -0.9057
27764SOL    HW2 1285   2.435   3.707  12.369  1.0960 -0.3642 -0.0547
27765SOL     OW 1286  10.791   9.648   5.105 -0.2875 -0.1290  0.0112
27765SOL    HW1 1287  10.805   9.740   5.084 -1.1357 -0.1068 -0.4808
27765SOL    HW2 1288  10.737   9.649   5.183 -0.8729 -0.2002 -0.3860
27766SOL     OW 1289   4.928  11.738   4.060  0.1691  0.2223  0.2538
27766SOL    HW1 1290   4.895  11.763   4.146 -0.1858  1.7250 -0.2777
27766SOL    HW2 1291   4.868  11.671   4.029  0.3288 -0.3686  1.1831
27767SOL     OW 1292   2.216   3.925  12.615 -0.6200 -0.2551 -0.0178
27767SOL    HW1 1293   2.207   4.012  12.654  0.2267  0.4273 -1.3152
27767SOL    HW2 1294   2.128   3.887  12.623 -1.5450  1.4853 -1.2126
27768SOL     OW 1295   6.621   8.643   8.160  0.4619  0.4116 -0.2699
27768SOL    HW1 1296   6.553   8.684   8.214 -0.6249  0.1747 -1.4174
27768SOL    HW2 1297   6.684   8.713   8.145  2.0745 -0.0682  3.2010
27769SOL     OW 1298   6.138   3.702   5.502 -0.1574 -0.1355 -0.5353
27769SOL    HW1 1299   6.165   3.790   5.477 -0.7045  0.1624 -0.1089
27769SOL    HW2 1300   6.205   3.644   5.465  1.5327  0.6274  1.1782
27770SOL     OW 1301   3.377  12.480  12.919  0.7344 -0.1235  0.3396
27770SOL    HW1 1302   3.293  12.460  12.879  0.4276 -0.1728  0.9847
27770SOL    HW2 1303   3.441  12.436  12.864  0.2309 -1.2312  0.6009
27771SOL     OW 1304   3.034  10.953   3.066  0.9255 -0.1583  0.3319
27771SOL    HW1 1305   3.113  11.003   3.088  1.7201 -0.2785 -1.9718
27771SOL    HW2 1306   2.965  10.991   3.120  2.3889  0.4530  1.8665
27772SOL     OW 1307   4.569  11.540  10.461  0.0581 -0.5046  0.3231
27772SOL    HW1 1308   4.509  11.546  10.536 -0.9538  0.0928 -0.4918
27772SOL    HW2 1309   4.511  11.542  10.385  1.1191 -0.0023 -0.4956
27773SOL     OW 1310   9.327   5.712  13.670 -0.1622 -0.3768  0.3066
27773SOL    HW1 1311   9.267   5.784  13.650 -0.7611 -0.5808  1.3324
27773SOL    HW2 1312   9.309   5.690  13.761 -0.1220 -1.9497 -0.0415
27774SOL     OW 1313   2.286  14.038   3.526  0.1063 -0.4393  0.2082
27774SOL    HW1 1314   2.213  14.026   3.465 -0.8181  1.3240  0.9049
27774SOL    HW2 1315   2.247  14.079   3.603  1.7997  0.4462  0.6465
27775SOL     OW 1316   3.943  12.456   8.009 -0.1087 -0.5806 -0.3034
27775SOL    HW1 1317   4.020  12.455   7.952  0.6331 -1.7759  0.6747
27775SOL    HW2 1318   3.960  12.525   8.072 -0.6959  0.3934 -1.1791
27776SOL     OW 1319   0.143   8.115   1.741  0.4322 -0.5462  0.6070
27776SOL    HW1 1320   0.068   8.174   1.733  0.1540 -1.0941 -1.0058
27776SOL    HW2 1321   0.188   8.146   1.820 -0.0836  1.4042  0.1972
27777SOL     OW 1322   4.068   1.959   3.573 -0.2765 -0.0477  0.2954
27777SOL    HW1 1323   4.123   2.007   3.511 -1.2169 -0.0563 -0.5689
27777SOL    HW2 1324   4.123   1.948   3.651  0.9862 -0.1788 -0.5872
27778SOL     OW 1325   9.368   4.859   2.878  0.3693 -0.2128 -0.4681
27778SOL    HW1 1326   9.461   4.879   2.869  0.3509  0.0499 -0.0752
27778SOL    HW2 1327   9.358   4.830   2.969 -0.3731  2.1741  0.2726
27779SOL     OW 1328   2.989   6.526  13.798 -0.3246  0.3026  0.0381
27779SOL    HW1 1329   2.952   6.544  13.711 -0.6396  0.1126  0.1325
27779SOL    HW2 1330   2.930   6.462  13.836 -0.7398  1.1153  0.7871
27780SOL     OW 1331   4.738  12.492   1.804  0.2816 -0.3643 -0.5169
27780SOL    HW1 1332   4.737  12.521   1.895 -0.8801 -2.1238  0.1009
27780SOL    HW2 1333   4.779  12.405   1.807 -1.2646 -1.1745 -1.3782
27781SOL     OW 1334  10.113   4.774  13.568  0.1369 -0.3356 -0.0378
27781SOL    HW1 1335  10.182   4.733  13.517 -0.1853  0.5076 -1.1851
27781SOL    HW2 1336  10.111   4.865  13.537 -0.8851 -0.1177  0.6202
27782SOL     OW 1337  10.940   4.014   0.339  0.0066 -0.3557  0.1561
27782SOL    HW1 1338  10.890   3.947   0.385  2.4084  0.5296  4.5687
27782SOL    HW2 1339  10.909   4.097   0.375  0.2385  0.6780 -1.8468
27783SOL     OW 1340   5.989   7.510  12.850  0.6005 -0.4975 -0.0055
27783SOL    HW1 1341   5.901   7.472  12.855  0.0038  0.8515  0.1733
27783SOL    HW2 1342   5.978   7.589  12.797  0.9344  1.6437  2.8620
27784SOL     OW 1343   2.024  12.856   3.367 -0.0279 -0.7259 -0.4869
27784SOL    HW1 1344   2.116  12.857   3.392  0.2499 -1.4798 -1.4153
27784SOL    HW2 1345   1.993  12.945   3.382  0.9051 -0.4148 -0.3751
27785SOL     OW 1346   3.600   8.370  11.754 -0.1503 -0.0198  0.1616
27785SOL    HW1 1347   3.549   8.449  11.733 -0.2311 -0.5741 -1.9506
27785SOL    HW2 1348   3.691   8.398  11.749 -0.1886  0.1111  0.1871
27786SOL     OW 1349   3.349   1.252  10.396 -0.2867 -0.4239 -0.0028
27786SOL    HW1 1350   3.386   1.196  10.329 -2.0988 -1.5537 -0.1394
27786SOL    HW2 1351   3.361   1.203  10.478 -1.4815 -0.8352 -0.0591
27787SOL     OW 1352   3.950   8.805   0.042  0.0330  0.1187  0.7472
27787SOL    HW1 1353   3.931   8.719   0.079 -1.3900  1.0622  2.3198
27787SOL    HW2 1354   3.888   8.814  -0.030  1.6387 -0.9974 -0.8752
27788SOL     OW 1355  11.544   1.489   3.613 -0.2195 -0.1027  0.5113
27788SOL    HW1 1356  11.468   1.437   3.638 -0.8637 -0.3263 -1.6725
27788SOL    HW2 1357  11.572   1.531   3.694 -1.7450 -1.1924  1.6707
27789SOL     OW 1358   3.223   1.298   4.720  0.3923  0.8971 -0.0989
27789SOL    HW1 1359   3.201   1.354   4.794  1.4477  1.1510  0.0414
27789SOL    HW2 1360   3.239   1.358   4.647  0.4430  0.7170 -0.2388
27790SOL     OW 1361   7.504   5.825   6.973  0.1967 -0.7297  0.0382
27790SOL    HW1 1362   7.530   5.797   7.060  0.0855 -0.2735  0.2201
27790SOL    HW2 1363   7.575   5.884   6.944 -0.8398  0.9371  0.7459
27791SOL     OW 1364   7.292   8.028   6.705  0.2122 -0.0529  0.7192
27791SOL    HW1 1365   7.237   8.034   6.627  1.4881  2.7563 -0.1100
27791SOL    HW2 1366   7.338   7.945   6.696  0.6694  0.4050 -1.8214
27792SOL     OW 1367   2.030   7.725   0.434 -0.2981  0.3536 -0.0296
27792SOL    HW1 1368   1.988   7.776   0.366  1.1113 -1.1235 -2.1566
27792SOL    HW2 1369   2.123   7.727   0.412  0.0010 -1.6275  0.8103
27793SOL     OW 1370   4.297  12.118  10.395 -0.2672 -0.4291  0.0692
27793SOL    HW1 1371   4.283  12.090  10.304  0.0489 -2.0397  0.4830
27793SOL    HW2 1372   4.209  12.119  10.433 -0.2426 -1.4502  0.1859
27794SOL     OW 1373  13.996  14.111   9.187  0.2053 -0.3127  0.0107
27794SOL    HW1 1374  14.088  14.136   9.184  0.3721 -0.8789  0.2489
27794SOL    HW2 1375  13.987  14.043   9.120  0.2799 -1.2637  0.9453
27795SOL     OW 1376   8.933   7.887  10.113 -0.1133  0.4482 -0.8428
27795SOL    HW1 1377   8.868   7.846  10.056  1.2352 -0.6895 -1.6512
27795SOL    HW2 1378   8.925   7.981  10.095 -0.4648  0.1925 -2.1138
27796SOL     OW 1379   2.300   9.246   5.736  0.0140  0.7222 -0.1209
27796SOL    HW1 1380   2.286   9.200   5.818  2.1920  0.3097  0.0657
27796SOL    HW2 1381   2.301   9.177   5.669 -1.7595  1.0549 -0.5556
27797SOL     OW 1382   9.850   6.412   6.821  0.4539 -0.2794 -0.0209
27797SOL    HW1 1383   9.769   6.362   6.822 -0.3048  0.8947 -0.3235
27797SOL    HW2 1384   9.831   6.488   6.765  1.3906  0.5861  0.7848
27798SOL     OW 1385  12.205  11.051   4.092 -0.1792  0.2319  0.2333
27798SOL    HW1 1386  12.160  10.983   4.143 -0.3500  1.8120  2.3297
27798SOL    HW2 1387  12.269  11.088   4.153  1.4275  0.5267 -1.5413
27799SOL     OW 1388   0.727   7.634   6.224 -0.0481 -0.3627  0.2550
27799SOL    HW1 1389   0.693   7.544   6.230 -1.0522  0.0545  1.5023
27799SOL    HW2 1390   0.666   7.685   6.278 -0.0298  1.2330 -1.1694
27800SOL     OW 1391   9.729   5.973   8.607 -0.6466 -1.0604 -0.3182
27800SOL    HW1 1392   9.702   5.959   8.517  2.0806  0.8842 -1.5866
27800SOL    HW2 1393   9.797   5.907   8.623  0.6983  0.1945 -0.6539
27801SOL     OW 1394   3.784   8.271  10.458  0.3186  0.3354 -0.0843
27801SOL    HW1 1395   3.710   8.331  10.465  0.7301  0.7420  1.2238
27801SOL    HW2 1396   3.788   8.247  10.366  0.1534  2.3486 -0.6560
27802SOL     OW 1397   1.316   8.326  12.200 -0.4892 -0.2532  0.2824
27802SOL    HW1 1398   1.369   8.256  12.238 -0.0441  0.7191  1.5397
27802SOL    HW2 1399   1.374   8.402  12.200 -1.6253  0.6431  0.9547
27803SOL     OW 1400   7.686   3.149   3.532 -0.1516  0.0882  0.4485
27803SOL    HW1 1401   7.597   3.158   3.564 -0.5340  0.4769 -0.6678
27803SOL    HW2 1402   7.723   3.076   3.581 -1.3874 -0.6670  0.2780
27804SOL     OW 1403   4.897   0.459   7.797 -0.5819  0.2786  0.4385
27804SOL    HW1 1404   4.979   0.419   7.769 -1.4337 -1.1481 -0.1288
27804SOL    HW2 1405   4.922   0.544   7.832  0.8777  0.9254 -1.9722
27805SOL     OW 1406  13.033   1.625  11.295  0.0603  0.1193 -0.0348
27805SOL    HW1 1407  13.102   1.623  11.361  1.6879  1.1126 -1.5931
27805SOL    HW2 1408  13.079   1.613  11.212 -1.8759 -0.9129 -1.0526
27806SOL     OW 1409   9.619   7.206   7.175  0.3234 -0.6748 -0.3568
27806SOL    HW1 1410   9.588   7.297   7.176  0.4890 -0.5972 -1.3535
27806SOL    HW2 1411   9.546   7.156   7.137  0.2920 -0.9395  0.0444
27807SOL     OW 1412  11.661  12.289  10.813 -0.7634 -0.0573 -0.1428
27807SOL    HW1 1413  11.634  12.257  10.899  0.4866 -0.8669 -0.0228
27807SOL    HW2 1414  11.664  12.211  10.758  0.5162  0.1074 -0.3446
27808SOL     OW 1415  10.664   7.017   4.698 -0.2522  0.3251  0.5499
27808SOL    HW1 1416  10.662   7.063   4.614 -1.1580 -2.9501 -1.3783
27808SOL    HW2 1417  10.582   7.041   4.741  0.4340  2.4072  0.8376
27809SOL     OW 1418   7.395  11.244  12.933  0.8382 -0.0534 -0.7032
27809SOL    HW1 1419   7.320  11.240  12.993  1.0636 -0.7211 -0.4535
27809SOL    HW2 1420   7.429  11.333  12.943  0.8750 -0.1601  0.1730
27810SOL     OW 1421   6.188   2.065   8.450  0.3432  0.3584 -0.6537
27810SOL    HW1 1422   6.260   2.042   8.509 -1.5732  0.9453  2.0964
27810SOL    HW2 1423   6.147   2.141   8.490 -2.2995 -0.4318 -1.6297
27811SOL     OW 1424   3.792   3.316   6.655  0.4087 -0.3650  0.6067
27811SOL    HW1 1425   3.821   3.393   6.703  0.6843 -0.8754  1.2665
27811SOL    HW2 1426   3.856   3.305   6.585 -0.3006  0.7075 -0.2535
27812SOL     OW 1427  12.263   7.544   3.851 -0.0263 -0.0997  0.6450
27812SOL    HW1 1428  12.357   7.536   3.863  0.2780 -2.2484 -2.1268
27812SOL    HW2 1429  12.252   7.615   3.789 -0.1486 -0.3770  0.3448
27813SOL     OW 1430   5.050   1.777  11.557  0.2988  0.0677 -0.0645
27813SOL    HW1 1431   4.979   1.745  11.502  0.5303 -1.7126  0.6098
27813SOL    HW2 1432   5.127   1.778  11.499  0.4356 -1.3165  0.0572
27814SOL     OW 1433   7.490   2.174   3.365  0.4240  0.1314 -0.0924
27814SOL    HW1 1434   7.442   2.181   3.282 -0.9164  0.8766  0.7092
27814SOL    HW2 1435   7.509   2.080   3.374 -0.6623 -0.1493 -0.5768
27815SOL     OW 1436   5.478   9.058   5.471  0.4171 -0.2373  0.4858
27815SOL    HW1 1437   5.544   9.054   5.540  0.8950  2.9047  0.3710
27815SOL    HW2 1438   5.525   9.095   5.396 -1.2968  1.5765  0.2299
27816SOL     OW 1439  10.446  10.240  13.593 -0.0976  0.0177  0.2264
27816SOL    HW1 1440  10.394  10.281  13.524 -0.7585 -1.3595 -0.1413
27816SOL    HW2 1441  10.382  10.210  13.657  0.5627  2.0316  1.9119
27817SOL     OW 1442  11.122   1.534   9.882  0.1784  0.6057  0.3500
27817SOL    HW1 1443  11.118   1.625   9.912 -1.2487  1.0563 -1.0954
27817SOL    HW2 1444  11.165   1.540   9.796 -1.1093  0.1072 -0.3507
27818SOL     OW 1445   6.367  11.355   8.467 -0.8642  0.9155  0.3371
27818SOL    HW1 1446   6.387  11.306   8.547  0.0268 -1.2041 -1.0780
27818SOL    HW2 1447   6.418  11.436   8.475 -0.9836  0.8595  1.9949
27819SOL     OW 1448  11.087   4.479   9.642  0.2734  0.4789 -0.7223
27819SOL    HW1 1449  11.095   4.423   9.565 -0.4369 -0.9264  0.1846
27819SOL    HW2 1450  11.022   4.435   9.696 -0.6598  2.4311 -0.1677
27820SOL     OW 1451  12.206   8.684  13.324 -0.4853  0.5319  0.1148
27820SOL    HW1 1452  12.294   8.713  13.298 -1.1354  0.3357 -2.5908
27820SOL    HW2 1453  12.183   8.742  13.397  1.5621  1.0914  0.3852
27821SOL     OW 1454   2.161   3.182   8.247  0.4212 -0.1500 -0.1530
27821SOL    HW1 1455   2.180   3.090   8.234 -0.0803 -0.3094  0.1719
27821SOL    HW2 1456   2.113   3.185   8.331  0.0112  0.3403 -0.3929
27822SOL     OW 1457   7.956  12.235  11.068 -0.2493  0.0515 -0.1753
27822SOL    HW1 1458   8.036  12.288  11.067  0.8804 -1.5379  0.9101
27822SOL    HW2 1459   7.979  12.157  11.018 -1.5931  0.1316 -0.9817
27823SOL     OW 1460  12.352   6.408   8.421 -0.3018 -0.0546 -0.2142
27823SOL    HW1 1461  12.401   6.368   8.493 -1.1470  0.2818  0.5726
27823SOL    HW2 1462  12.415   6.415   8.350  1.1780  1.5235  1.1579
27824SOL     OW 1463   0.020  11.401   3.538 -0.2558  0.0478 -0.3646
27824SOL    HW1 1464   0.056  11.374   3.454 -1.5135 -0.9063 -0.6314
27824SOL    HW2 1465  -0.000  11.494   3.528 -1.2346 -0.2664 -1.4403
27825SOL     OW 1466   2.031  11.082  12.785 -0.3069  0.6259 -0.0832
27825SOL    HW1 1467   1.941  11.114  12.774 -0.4128 -0.4465 -3.3563
27825SOL    HW2 1468   2.029  10.991  12.755  1.5066 -0.0813  1.7125
27826SOL     OW 1469  11.809   5.534  10.125 -0.8674 -0.5466  0.2272
27826SOL    HW1 1470  11.756   5.571  10.054 -0.2776 -0.6450 -0.2709
27826SOL    HW2 1471  11.745   5.510  10.192 -1.2649  1.5891  0.6892
27827SOL     OW 1472   6.264   1.235   1.436 -0.4250  0.1160 -0.2273
27827SOL    HW1 1473   6.287   1.200   1.522 -0.4007 -0.0606 -0.3049
27827SOL    HW2 1474   6.301   1.172   1.374 -1.2674 -0.2606 -0.3561
27828SOL     OW 1475  13.018   6.704   1.645  0.4253 -0.2695  0.4119
27828SOL    HW1 1476  12.964   6.668   1.575 -1.4681  0.3425  1.4907
27828SOL    HW2 1477  13.035   6.794   1.618 -1.3143  0.3509  1.2158
27829SOL     OW 1478  11.055  11.213   7.310  0.2478 -0.2588 -0.0183
27829SOL    HW1 1479  11.059  11.235   7.217  4.8894  0.3492  0.0837
27829SOL    HW2 1480  11.036  11.296   7.354  1.2096  0.1459 -0.3426
27830SOL     OW 1481   5.979   2.998   1.233  0.2912 -0.0775 -0.1989
27830SOL    HW1 1482   5.899   3.013   1.182 -1.2200 -0.4680  1.9374
27830SOL    HW2 1483   6.026   2.931   1.183 -1.0682 -0.3825 -1.1442
27831SOL     OW 1484   1.191   3.699   0.217 -0.9023  0.3929 -0.1440
27831SOL    HW1 1485   1.105   3.660   0.230 -0.7587  0.6473  1.9043
27831SOL    HW2 1486   1.237   3.684   0.299  0.9854  0.3864 -1.1447
27832SOL     OW 1487  10.666   2.702  10.026 -0.1716  0.1530 -0.0702
27832SOL    HW1 1488  10.643   2.610  10.043 -1.4582  0.0136 -2.2077
27832SOL    HW2 1489  10.753   2.697   9.985  0.8064  0.1352  1.8734
27833SOL     OW 1490   5.201  12.884   6.868  0.5327  0.1763 -0.3533
27833SOL    HW1 1491   5.287  12.843   6.862  1.0978  1.0460  1.1692
27833SOL    HW2 1492   5.217  12.977   6.850 -0.7164 -0.1417 -3.7182
27834SOL     OW 1493  11.186   3.396  10.999 -0.0812  0.2491  0.2315
27834SOL    HW1 1494  11.098   3.384  11.033  0.4140 -0.0831  1.4404
27834SOL    HW2 1495  11.195   3.328  10.932 -0.8859  0.5655 -0.2059
27835SOL     OW 1496   2.917   1.726   3.142  0.0254 -0.4498  0.6852
27835SOL    HW1 1497   2.916   1.790   3.071  0.9192 -1.5106 -0.3144
27835SOL    HW2 1498   2.842   1.670   3.124  0.6005 -1.0845  0.2095
27836SOL     OW 1499   4.991   4.125  11.765 -0.1259 -0.0436 -0.6891
27836SOL    HW1 1500   5.041   4.189  11.815 -0.7960 -0.8033  1.0817
27836SOL    HW2 1501   5.026   4.129  11.676  2.7465 -0.2094  0.3307
27837SOL     OW 1502   7.817   7.211   6.205  0.4146  0.0515  0.2403
27837SOL    HW1 1503   7.763   7.156   6.148  0.3638  0.0348  0.3043
27837SOL    HW2 1504   7.859   7.273   6.146 -0.6334  0.8774  0.3329
27838SOL     OW 1505   4.542  10.647   2.508 -0.0870 -0.3471  0.3078
27838SOL    HW1 1506   4.626  10.652   2.463 -0.4204  3.0539 -0.2719
27838SOL    HW2 1507   4.477  10.655   2.437 -0.8377 -1.3090  0.8780
27839SOL     OW 1508   3.880  11.710   6.081  0.0623  0.6477 -0.9041
27839SOL    HW1 1509   3.806  11.679   6.134  0.8953 -0.3087 -0.2514
27839SOL    HW2 1510   3.855  11.693   5.991 -0.2460 -0.3084 -0.6476
27840SOL     OW 1511   1.898  12.580   4.709 -0.1311 -0.3616  0.0090
27840SOL    HW1 1512   1.845  12.507   4.679 -0.3385  0.6525 -2.2550
27840SOL    HW2 1513   1.973  12.539   4.752 -1.1146 -1.8416  0.3869
27841SOL     OW 1514   9.443   9.696   4.106 -0.8022  0.0040  0.0356
27841SOL    HW1 1515   9.420   9.603   4.115 -0.1207 -0.1770 -0.0342
27841SOL    HW2 1516   9.498   9.699   4.028 -0.8510  0.4761  0.0203
27842SOL     OW 1517  12.014   3.333   8.617 -0.2165  0.5756  0.3162
27842SOL    HW1 1518  12.013   3.427   8.598 -2.2109  0.3914 -0.8085
27842SOL    HW2 1519  11.926   3.316   8.650 -0.3708 -1.1470 -0.8851
27843SOL     OW 1520  12.199   0.310  10.726  0.3180  0.5135  0.2216
27843SOL    HW1 1521  12.282   0.314  10.773 -0.0275 -0.9560  1.0267
27843SOL    HW2 1522  12.134   0.287  10.793 -0.4570 -0.0457 -0.6935
27844SOL     OW 1523   9.266   3.307  10.729  0.0375  0.3219  0.0148
27844SOL    HW1 1524   9.182   3.274  10.696  0.2752 -1.0571  0.7140
27844SOL    HW2 1525   9.278   3.391  10.685 -0.6073 -0.5154 -1.8919
27845SOL     OW 1526   8.917   0.538   6.641  0.1076 -0.3670  0.1571
27845SOL    HW1 1527   8.852   0.578   6.700 -0.2542  0.4849 -0.7879
27845SOL    HW2 1528   8.939   0.455   6.683 -0.4147  0.0491  1.3074
27846SOL     OW 1529  13.051  13.488   2.815 -0.6351  0.5996 -0.3684
27846SOL    HW1 1530  13.111  13.453   2.881 -0.6834  3.7295  1.5124
27846SOL    HW2 1531  13.101  13.486   2.733  0.6513 -0.2484  0.4083
27847SOL     OW 1532   3.295  12.818   5.761  0.0624 -0.4153  0.4792
27847SOL    HW1 1533   3.373  12.871   5.743  0.0675 -0.3924  0.5704
27847SOL    HW2 1534   3.268  12.786   5.675 -1.5531  1.9446  0.0142
27848SOL     OW 1535  12.082   1.522   5.284 -0.1033 -0.3879  0.8936
27848SOL    HW1 1536  12.057   1.565   5.366  0.2903 -2.9698  2.4775
27848SOL    HW2 1537  12.153   1.576   5.250  1.1935 -0.3286  3.4018
27849SOL     OW 1538  10.176   2.915  10.435 -0.1724 -0.2478 -0.3294
27849SOL    HW1 1539  10.270   2.905  10.449 -0.1664  1.1708  1.0025
27849SOL    HW2 1540  10.168   2.996  10.385 -0.7220  0.6536  1.1373
27850SOL     OW 1541   8.985   4.200   3.167  0.0084 -0.4623  0.0086
27850SOL    HW1 1542   9.050   4.246   3.113 -3.8090  2.6654 -2.4274
27850SOL    HW2 1543   9.011   4.221   3.257  1.5756  1.9398 -0.8819
27851SOL     OW 1544   1.568  13.142   6.477  0.4588  0.5973  0.2217
27851SOL    HW1 1545   1.494  13.082   6.469  0.2550  0.9659 -0.8465
27851SOL    HW2 1546   1.568  13.169   6.568  0.8299 -1.3528  0.8404
27852SOL     OW 1547   2.706   6.809   1.505 -0.4056  0.1638  0.0528
27852SOL    HW1 1548   2.635   6.854   1.459 -0.6267 -1.0328 -0.8393
27852SOL    HW2 1549   2.770   6.788   1.436 -0.0042 -0.2930  0.5473
27853SOL     OW 1550  12.956   6.745  14.026  0.1175 -0.2227 -0.4549
27853SOL    HW1 1551  12.984   6.797  14.101  0.4512 -0.7036 -0.2468
27853SOL    HW2 1552  12.929   6.661  14.063 -1.4032  0.1300 -0.6616
27854SOL     OW 1553   7.518   6.655   7.014 -0.1252  0.2749 -0.5149
27854SOL    HW1 1554   7.508   6.620   7.103 -2.0789 -0.4175 -0.9635
27854SOL    HW2 1555   7.577   6.730   7.025 -1.1998  0.9115  1.5764
27855SOL     OW 1556   0.459   8.951   1.897 -0.8337 -0.2427 -0.0173
27855SOL    HW1 1557   0.428   8.917   1.813 -0.6291 -1.7969  0.5001
27855SOL    HW2 1558   0.551   8.971   1.883 -1.6668  3.4209 -1.2716
27856SOL     OW 1559  12.923   7.663  10.708 -0.0486 -0.4551 -0.3772
27856SOL    HW1 1560  12.998   7.714  10.678 -0.8719  0.5537 -0.7973
27856SOL    HW2 1561  12.850   7.725  10.707 -0.6588 -1.1138  1.1485
27857SOL     OW 1562   3.089  13.406   9.298 -0.2897 -0.0805 -0.1195
27857SOL    HW1 1563   3.160  13.345   9.280  0.4788  0.9980 -0.8498
27857SOL    HW2 1564   3.118  13.456   9.373 -1.0305 -0.7592  0.6402
27858SOL     OW 1565   6.794   4.802  13.852  0.0254 -0.8892 -0.0684
27858SOL    HW1 1566   6.774   4.749  13.775  2.8359 -0.7698 -0.9848
27858SOL    HW2 1567   6.889   4.816  13.848 -0.0745  1.0764  2.1808
27859SOL     OW 1568  11.639   1.996   5.887  0.4344  0.1104 -0.4646
27859SOL    HW1 1569  11.569   2.017   5.949  0.1453 -1.1568 -0.3202
27859SOL    HW2 1570  11.671   2.080   5.856  0.3876  0.7631  1.1930
27860SOL     OW 1571   0.587   2.217   4.032  0.3457  0.4717  0.2872
27860SOL    HW1 1572   0.602   2.137   4.082  1.0344 -0.1815 -0.8951
27860SOL    HW2 1573   0.529   2.191   3.961  0.6470  0.9934 -0.1651
27861SOL     OW 1574   1.899  11.762   9.938 -0.5182 -0.2989  0.1548
27861SOL    HW1 1575   1.806  11.768   9.957 -0.5452  1.0533 -0.2793
27861SOL    HW2 1576   1.935  11.707  10.007 -1.6987 -1.1534  0.0938
27862SOL     OW 1577   0.997   9.379  12.301 -0.6963  0.4368 -0.3959
27862SOL    HW1 1578   0.973   9.434  12.375 -2.1142 -2.4023  1.4646
27862SOL    HW2 1579   1.092   9.381  12.300 -0.6309  0.6162  1.5200
27863SOL     OW 1580   5.650  11.122   0.651 -0.0527  0.2315  0.0544
27863SOL    HW1 1581   5.679  11.164   0.731 -0.8619  0.4565  0.2460
27863SOL    HW2 1582   5.714  11.148   0.585  0.9555 -0.4460  0.7433
27864SOL     OW 1583   0.265   7.402   9.844 -0.1287 -0.1764  0.1396
27864SOL    HW1 1584   0.263   7.311   9.874  0.2943 -0.5621 -0.9345
27864SOL    HW2 1585   0.173   7.428   9.837 -0.2476 -0.4924  0.5398
27865SOL     OW 1586  12.988   4.961  11.338  0.1339 -0.2735 -0.5173
27865SOL    HW1 1587  12.982   4.872  11.305  2.1801 -0.0415 -1.6475
27865SOL    HW2 1588  13.006   5.015  11.261 -2.6276  1.4182 -0.1470
27866SOL     OW 1589   8.640   4.336   7.032  0.1977 -0.3659  0.2577
27866SOL    HW1 1590   8.666   4.245   7.043  1.5482 -0.3015 -1.9186
27866SOL    HW2 1591   8.562   4.332   6.977  0.1996 -0.2127  0.2436
27867SOL     OW 1592   2.468   3.839  12.052 -0.3857  0.4340 -0.0447
27867SOL    HW1 1593   2.410   3.783  12.001  0.9366 -1.2315  0.2210
27867SOL    HW2 1594   2.457   3.810  12.143 -0.2245  1.1120  0.2002
27868SOL     OW 1595   1.772  10.043   5.866  0.6290  0.5713  0.0025
27868SOL    HW1 1596   1.735  10.038   5.778 -0.2525  0.3750  0.3723
27868SOL    HW2 1597   1.826  10.123   5.865  0.9171  0.3752 -0.8102
27869SOL     OW 1598   1.906   2.438   2.667  0.3958 -0.0219  0.5288
27869SOL    HW1 1599   1.846   2.381   2.619  0.4375  0.1994  0.2080
27869SOL    HW2 1600   1.883   2.526   2.639  0.3165  0.1232  1.0424
27870SOL     OW 1601   2.371  10.169   5.043 -0.5691  0.2919 -0.3085
27870SOL    HW1 1602   2.288  10.198   5.006 -0.5932  1.2514  0.4641
27870SOL    HW2 1603   2.404  10.244   5.092 -0.5748 -0.9237  1.6892
27871SOL     OW 1604  13.673   7.163   5.865 -0.3820 -0.4076  0.5373
27871SOL    HW1 1605  13.614   7.233   5.839  1.6620  0.8038 -1.2003
27871SOL    HW2 1606  13.731   7.203   5.930 -0.1723 -0.9493  0.6935
27872SOL     OW 1607   5.851   3.756  13.362  0.0691 -0.2490 -0.2066
27872SOL    HW1 1608   5.911   3.760  13.436 -0.3270  0.5474  0.0792
27872SOL    HW2 1609   5.842   3.662  13.344 -1.4977 -0.6369  2.1175
27873SOL     OW 1610   0.988  11.865   9.643 -0.2968 -0.3959  0.2233
27873SOL    HW1 1611   0.893  11.873   9.629 -0.2807 -1.2931 -0.5423
27873SOL    HW2 1612   1.016  11.803   9.575  0.8172 -0.2408  0.5350
27874SOL     OW 1613  10.149  10.173   2.638  0.2454 -0.1733  0.0845
27874SOL    HW1 1614  10.071  10.210   2.598  0.1991 -1.9378 -1.5743
27874SOL    HW2 1615  10.222  10.211   2.590  0.4597  1.2195  1.4188
27875SOL     OW 1616   4.569   3.490   8.301  0.5088  0.0034 -0.2524
27875SOL    HW1 1617   4.522   3.453   8.376 -0.4608 -0.6980 -1.1891
27875SOL    HW2 1618   4.593   3.414   8.248  0.5008  0.5558 -1.0584
27876SOL     OW 1619   9.171   6.678   2.432  0.2287 -0.5090 -0.3866
27876SOL    HW1 1620   9.151   6.646   2.344  2.9461  2.6661 -2.3893
27876SOL    HW2 1621   9.252   6.633   2.455  0.3759 -0.1660 -0.2283
27877SOL     OW 1622   5.001  11.452   0.333 -0.2907  0.0926 -0.2730
27877SOL    HW1 1623   4.926  11.428   0.387 -0.2250 -1.3697 -0.7768
27877SOL    HW2 1624   4.979  11.418   0.246  0.5294  0.5181 -0.6510
27878SOL     OW 1625   5.951   5.996   2.855 -0.0241 -0.3430  0.1958
27878SOL    HW1 1626   6.030   5.986   2.802  0.2713 -1.0674  0.7507
27878SOL    HW2 1627   5.954   6.087   2.886  0.0782 -0.0760 -0.5803
27879SOL     OW 1628   6.442   2.091  13.079  0.3057  0.0009  0.5883
27879SOL    HW1 1629   6.435   2.165  13.020 -0.7489 -2.6171 -2.9551
27879SOL    HW2 1630   6.536   2.078  13.092  0.5063  1.7408  1.1108
27880SOL     OW 1631   9.750   9.405   1.111 -0.3165 -0.3668  0.2167
27880SOL    HW1 1632   9.773   9.362   1.028 -0.4764  0.0176 -0.0269
27880SOL    HW2 1633   9.690   9.343   1.153  0.3300 -0.8980  0.3826
27881SOL     OW 1634   4.753  13.512   7.616  0.6072 -0.2673  0.1231
27881SOL    HW1 1635   4.835  13.475   7.650  1.3700 -0.2572 -1.5815
27881SOL    HW2 1636   4.782  13.573   7.547 -0.7648  1.0892  0.7074
27882SOL     OW 1637   2.615   6.749   4.059  0.4353  0.0591 -0.0338
27882SOL    HW1 1638   2.688   6.810   4.070  0.1866  0.4003 -0.2631
27882SOL    HW2 1639   2.654   6.662   4.073  0.7126  0.2899  0.6767
27883SOL     OW 1640   1.658   1.186  13.091  0.7181  0.2877  0.2604
27883SOL    HW1 1641   1.738   1.154  13.051  0.6123 -0.1759  0.4012
27883SOL    HW2 1642   1.657   1.280  13.073 -1.0971 -0.3088 -4.0171
27884SOL     OW 1643   7.403  10.673  12.782 -0.1504 -0.3061 -0.3518
27884SOL    HW1 1644   7.373  10.760  12.809  1.5989  0.3778 -0.4988
27884SOL    HW2 1645   7.363  10.614  12.846 -1.4812  0.5621 -0.3270
27885SOL     OW 1646   5.483  10.245   6.642 -0.2541  0.2900 -0.6324
27885SOL    HW1 1647   5.437  10.290   6.713 -2.1680  0.6652 -2.0257
27885SOL    HW2 1648   5.439  10.160   6.637 -0.6087  0.5291 -1.7788
27886SOL     OW 1649   4.299   2.433  11.975 -0.4446  0.0985  0.4545
27886SOL    HW1 1650   4.248   2.514  11.975  0.3279  0.6018  0.1656
27886SOL    HW2 1651   4.342   2.433  11.889 -2.2120 -1.7752 -0.5196
27887SOL     OW 1652   5.743   0.701  10.626  0.0611 -0.1344 -0.0333
27887SOL    HW1 1653   5.752   0.781  10.679 -1.8415 -0.6922  1.2396
27887SOL    HW2 1654   5.789   0.634  10.676 -0.9883 -0.4721  0.5088
27888SOL     OW 1655   3.881   1.955  10.851  0.6202  0.2530 -0.6713
27888SOL    HW1 1656   3.786   1.956  10.861  0.3400 -1.3357 -2.5314
27888SOL    HW2 1657   3.915   1.988  10.934 -1.4302 -3.0782  1.7154
27889SOL     OW 1658   1.995  12.609   0.551  0.2467 -0.4724 -0.1445
27889SOL    HW1 1659   2.088  12.595   0.537  0.7632  0.9230  1.5822
27889SOL    HW2 1660   1.979  12.698   0.521 -0.2257 -0.1870  0.9372
27890SOL     OW 1661  11.519   6.894  10.163 -0.4671 -0.4116 -0.2733
27890SOL    HW1 1662  11.542   6.870  10.073  0.3046  1.8326 -0.7423
27890SOL    HW2 1663  11.602   6.888  10.211 -0.9284 -1.8741  0.3976
27891SOL     OW 1664   1.845  11.665  13.723  0.0655  0.1243  0.0361
27891SOL    HW1 1665   1.816  11.753  13.700 -0.4988 -0.0554  0.0653
27891SOL    HW2 1666   1.863  11.670  13.817  1.8667  0.7148 -0.2871
27892SOL     OW 1667   2.504   0.943   6.980 -0.0645 -0.9283  0.2554
27892SOL    HW1 1668   2.458   0.859   6.979 -0.1969 -0.8824 -1.8074
27892SOL    HW2 1669   2.558   0.940   7.058  0.4724 -3.2583 -0.1427
27893SOL     OW 1670   9.686   0.151   6.519 -0.5576  0.2903 -0.1116
27893SOL    HW1 1671   9.694   0.065   6.479 -2.1330  0.6594 -1.2972
27893SOL    HW2 1672   9.606   0.147   6.570 -0.0760  0.7389  0.7046
27894SOL     OW 1673   0.527   1.488   1.699  0.3708  0.4795  0.0313
27894SOL    HW1 1674   0.507   1.430   1.772  1.5761  0.8704  0.6979
27894SOL    HW2 1675   0.538   1.575   1.739 -0.6180  1.0393 -0.8440
27895SOL     OW 1676   7.929  13.247  13.307 -0.4227  0.4146 -0.5997
27895SOL    HW1 1677   7.853  13.195  13.331 -0.1102 -0.2642 -1.0679
27895SOL    HW2 1678   7.893  13.332  13.281 -0.8538  0.8642  1.2940
27896SOL     OW 1679  13.827   7.220   8.765 -0.2422 -0.1670  0.4042
27896SOL    HW1 1680  13.897   7.257   8.712  0.3209 -1.5669  0.1166
27896SOL    HW2 1681  13.765   7.184   8.700  0.2711 -1.5642  0.6563
27897SOL     OW 1682  13.576   2.296   7.934  0.1473 -0.2975 -0.3278
27897SOL    HW1 1683  13.550   2.305   7.843 -0.5633  0.5394 -0.0569
27897SOL    HW2 1684  13.609   2.383   7.958  1.1965 -0.7580 -0.0420
27898SOL     OW 1685  13.827   6.592  11.199  0.0660 -0.3887 -0.2423
27898SOL    HW1 1686  13.894   6.587  11.267  2.0193 -3.2514 -2.1365
27898SOL    HW2 1687  13.869   6.641  11.128  0.5351 -2.6969 -1.6701
27899SOL     OW 1688   8.170   9.716  11.985 -0.3999 -0.5794 -0.1363
27899SOL    HW1 1689   8.093   9.671  11.949 -0.0080 -0.9531 -0.5311
27899SOL    HW2 1690   8.166   9.804  11.949 -0.2877 -0.8005 -0.7058
27900SOL     OW 1691   7.774   7.294   5.416 -0.3395  0.2705 -0.4612
27900SOL    HW1 1692   7.698   7.318   5.468 -0.1628  0.9745 -0.5244
27900SOL    HW2 1693   7.840   7.266   5.480 -0.6303 -0.3111 -0.4049
27901SOL     OW 1694   6.974   8.384  13.723  0.0740 -0.4098 -0.3086
27901SOL    HW1 1695   6.950   8.467  13.765 -0.3324 -0.4438 -0.4707
27901SOL    HW2 1696   7.062   8.399  13.690  1.0165 -0.8572  1.8330
27902SOL     OW 1697  11.994   9.333   7.488 -0.5595 -0.3634 -0.2722
27902SOL    HW1 1698  11.916   9.364   7.440 -0.0027  0.7405 -0.4997
27902SOL    HW2 1699  12.021   9.254   7.441 -1.4648 -0.6875 -0.2683
27903SOL     OW 1700   6.387  11.017   5.970  0.2783  0.4221 -0.2448
27903SOL    HW1 1701   6.338  10.988   6.047  0.3473  0.5282 -0.1617
27903SOL    HW2 1702   6.425  11.100   5.995  2.8379 -0.9445  0.6974
27904SOL     OW 1703  10.510  10.579   3.235  0.4258  0.0153  0.2938
27904SOL    HW1 1704  10.474  10.648   3.179 -0.3176  1.2141  2.1559
27904SOL    HW2 1705  10.478  10.498   3.196  1.1879  0.6795 -1.8676
27905SOL     OW 1706   5.216   2.931   6.028  0.1327  0.2965 -0.4659
27905SOL    HW1 1707   5.296   2.890   6.060 -0.6554 -1.1546 -0.2929
27905SOL    HW2 1708   5.203   2.896   5.940 -0.0789  0.8605 -0.6665
27906SOL     OW 1709   8.263   0.653   7.954 -0.2787 -0.3376  0.1699
27906SOL    HW1 1710   8.313   0.704   8.018 -2.8182  5.2012 -1.5805
27906SOL    HW2 1711   8.211   0.592   8.006 -0.5221  2.2652  3.2454
27907SOL     OW 1712   7.683   5.300  12.504 -0.1089  0.1866  0.3058
27907SOL    HW1 1713   7.681   5.216  12.551 -0.7517 -0.4589 -0.8278
27907SOL    HW2 1714   7.691   5.366  12.573  1.9113 -0.8554  1.1513
27908SOL     OW 1715   9.681   7.513  12.703 -0.2909  0.6698 -0.0128
27908SOL    HW1 1716   9.752   7.568  12.735 -0.2215 -0.1981  1.3824
27908SOL    HW2 1717   9.725   7.432  12.674 -0.5988  0.5694 -0.2055
27909SOL     OW 1718  13.111   8.893   0.232  0.4568  0.4679 -0.5452
27909SOL    HW1 1719  13.135   8.801   0.231 -0.6516  0.1761 -1.1850
27909SOL    HW2 1720  13.195   8.940   0.234  1.1823 -0.4882 -3.4522
27910SOL     OW 1721  11.528   0.879   4.679 -0.3453 -0.2651  0.4529
27910SOL    HW1 1722  11.535   0.944   4.750  1.9779 -0.8632  0.8705
27910SOL    HW2 1723  11.585   0.807   4.708 -1.3825 -1.6617 -0.8721
27911SOL     OW 1724   7.332   4.814   9.223  0.0282 -0.7089  0.3662
27911SOL    HW1 1725   7.363   4.745   9.281  1.6307 -0.4133 -0.0804
27911SOL    HW2 1726   7.328   4.773   9.136  2.0954 -0.0063 -0.1135
27912SOL     OW 1727  13.864   0.061   5.918  0.1057  0.4811  0.3433
27912SOL    HW1 1728  13.903   0.071   5.831 -1.5475  0.5378 -0.4239
27912SOL    HW2 1729  13.845  -0.033   5.924 -0.8298  0.6545  0.1615
27913SOL     OW 1730   0.337   2.052  13.573  0.0226  0.2456 -0.4401
27913SOL    HW1 1731   0.430   2.031  13.564 -0.2685 -0.7411 -1.3686
27913SOL    HW2 1732   0.325   2.066  13.667  1.4161  1.9614 -0.4593
27914SOL     OW 1733   9.210   4.205   9.688 -0.5623 -0.2403 -0.3830
27914SOL    HW1 1734   9.198   4.299   9.675 -1.7290 -0.1275  1.1279
27914SOL    HW2 1735   9.140   4.164   9.637 -0.5575 -0.2230 -0.4024
27915SOL     OW 1736  12.440   3.463   0.856  0.3798 -0.2550  0.1234
27915SOL    HW1 1737  12.517   3.407   0.863 -0.6755 -1.9168 -0.8531
27915SOL    HW2 1738  12.475   3.549   0.834  1.9860 -0.8904  0.0546
27916SOL     OW 1739   3.744  10.795   4.432 -0.0074  0.1942 -0.0360
27916SOL    HW1 1740   3.798  10.732   4.479  2.7143  1.8242 -0.7921
27916SOL    HW2 1741   3.784  10.801   4.345 -1.4178  1.4897 -0.6405
27917SOL     OW 1742   2.807  13.597   6.342  0.2634 -1.4636 -0.2470
27917SOL    HW1 1743   2.875  13.626   6.402  0.0066  0.6539 -0.8699
27917SOL    HW2 1744   2.855  13.562   6.266  0.6779 -0.5443 -0.4259
27918SOL     OW 1745   0.291   5.067   9.049  0.0983 -0.0957 -0.4989
27918SOL    HW1 1746   0.361   5.029   8.997  0.4399  1.1796 -1.0003
27918SOL    HW2 1747   0.322   5.060   9.139  0.3455 -0.6021 -0.6192
27919SOL     OW 1748   5.136  12.128   4.100  0.4275 -0.3811 -0.3300
27919SOL    HW1 1749   5.188  12.205   4.076  0.8242  0.0016  1.6079
27919SOL    HW2 1750   5.146  12.068   4.026  1.6778  0.6591 -1.0358
27920SOL     OW 1751  10.696   6.354  14.098  0.0529  0.2195  0.6109
27920SOL    HW1 1752  10.754   6.278  14.093  0.7039  0.7747 -0.4952
27920SOL    HW2 1753  10.687   6.371  14.192  1.2296 -0.2065  0.8145
27921SOL     OW 1754  10.902   1.886  13.071  0.7654  0.7222 -0.0432
27921SOL    HW1 1755  10.888   1.840  12.988  0.2426  1.9911 -0.6807
27921SOL    HW2 1756  10.923   1.976  13.046  0.4272  1.1699  1.2045
27922SOL     OW 1757   5.415   4.128  10.768 -0.1777  0.3351  0.3841
27922SOL    HW1 1758   5.424   4.063  10.839 -2.3321 -0.3119  0.1452
27922SOL    HW2 1759   5.323   4.155  10.773 -0.0398  1.2303 -1.3651
27923SOL     OW 1760   5.468   2.700  12.898  0.2175  0.2388  0.0610
27923SOL    HW1 1761   5.428   2.771  12.847  0.8330  0.1460 -0.5725
27923SOL    HW2 1762   5.531   2.744  12.955  1.8097  0.0924 -1.5083
27924SOL     OW 1763  12.958   0.872   2.664  0.1661  0.0447 -0.2644
27924SOL    HW1 1764  13.051   0.857   2.647  0.0301 -0.9894 -0.1552
27924SOL    HW2 1765  12.929   0.793   2.709 -0.4726  0.8955  0.8639
27925SOL     OW 1766   6.312  12.716  10.000  0.1885 -0.0624  0.0668
27925SOL    HW1 1767   6.254  12.778  10.045 -1.0032 -0.4693 -0.8453
27925SOL    HW2 1768   6.384  12.770   9.967 -0.1768  0.6218  0.3657
27926SOL     OW 1769   6.422   1.203   7.396 -0.4235 -0.3079  0.6491
27926SOL    HW1 1770   6.416   1.277   7.456 -0.8246 -0.3029  0.6036
27926SOL    HW2 1771   6.432   1.243   7.309 -0.3460 -0.3085  0.6581
27927SOL     OW 1772   2.453  13.873   4.947  0.6005  0.3103  0.7546
27927SOL    HW1 1773   2.542  13.858   4.914  0.3697 -0.6266  0.5481
27927SOL    HW2 1774   2.433  13.795   4.998 -0.9638 -0.5541 -1.0809
27928SOL     OW 1775   8.327   0.245   2.964 -0.2158  0.3814 -0.4622
27928SOL    HW1 1776   8.299   0.155   2.948 -0.5900  0.3518  0.2879
27928SOL    HW2 1777   8.355   0.277   2.879  1.1780 -0.8813 -0.5331
27929SOL     OW 1778   9.530   1.825   6.521 -0.7492 -0.5115  0.0817
27929SOL    HW1 1779   9.454   1.791   6.568 -0.2364 -0.9022  0.6423
27929SOL    HW2 1780   9.520   1.791   6.432 -2.0858  0.8022 -0.3034
27930SOL     OW 1781   1.515   5.944   1.336 -0.2927  0.0274 -0.0852
27930SOL    HW1 1782   1.518   5.921   1.243 -0.7224  1.3481 -0.4464
27930SOL    HW2 1783   1.434   5.993   1.346  0.1979  0.6852  0.7952
27931SOL     OW 1784   3.051   4.951   5.697 -0.4069  0.2231 -0.0184
27931SOL    HW1 1785   3.119   4.999   5.649 -0.1208 -1.6024 -1.5375
27931SOL    HW2 1786   2.972   4.963   5.645 -0.1794 -1.4683 -0.7961
27932SOL     OW 1787   7.699   9.179   6.051  0.3753 -0.1044  0.2066
27932SOL    HW1 1788   7.623   9.150   6.103 -1.4691  0.8924 -1.7566
27932SOL    HW2 1789   7.759   9.216   6.116 -1.1423 -0.2380  1.7847
27933SOL     OW 1790   0.278  11.873   3.208  0.3718 -0.4479 -0.7710
27933SOL    HW1 1791   0.365  11.903   3.179 -0.0036 -0.1755 -1.6621
27933SOL    HW2 1792   0.221  11.949   3.196 -0.3518 -1.1435 -1.9267
27934SOL     OW 1793  13.903   1.724   1.924  0.1526 -0.3427 -0.1993
27934SOL    HW1 1794  13.940   1.758   1.842 -1.0896 -0.1801 -0.7153
27934SOL    HW2 1795  13.878   1.634   1.902 -2.2309  0.3823 -0.7113
27935SOL     OW 1796   6.822   6.924   6.942 -0.3504  0.1879  0.4648
27935SOL    HW1 1797   6.777   7.009   6.941  0.0292  0.4062 -1.0035
27935SOL    HW2 1798   6.915   6.947   6.944 -0.2619 -0.2370  1.8962
27936SOL     OW 1799   7.724  11.279   5.175 -0.3809  0.4548 -0.5737
27936SOL    HW1 1800   7.676  11.202   5.205  1.0189 -1.2116 -2.4001
27936SOL    HW2 1801   7.797  11.287   5.236 -0.6337  0.4713 -0.2693
27937SOL     OW 1802   9.834   5.228   9.873  0.3548  0.0463  0.1457
27937SOL    HW1 1803   9.865   5.209   9.784  1.2467 -1.9545  0.8224
27937SOL    HW2 1804   9.770   5.159   9.891 -0.1550  0.7053  0.9000
27938SOL     OW 1805   9.793   2.606  11.412  0.8620 -0.3862 -0.0852
27938SOL    HW1 1806   9.773   2.695  11.440  1.0896 -0.8117  1.5272
27938SOL    HW2 1807   9.889   2.602  11.411  0.8740 -1.0821  1.5275
27939SOL     OW 1808   3.059   3.683   2.214  0.6496 -0.2678 -0.5963
27939SOL    HW1 1809   3.059   3.591   2.188 -0.1294 -0.1917 -0.9077
27939SOL    HW2 1810   3.104   3.685   2.298  1.1245 -0.8594 -0.8284
27940SOL     OW 1811   8.836   0.405   1.645 -0.1182 -0.0570 -0.1949
27940SOL    HW1 1812   8.762   0.434   1.592 -0.1225  0.2064 -0.0431
27940SOL    HW2 1813   8.816   0.313   1.666 -0.7150  0.1964  0.3786
27941SOL     OW 1814   9.671  10.977  12.915  0.2827  0.3545 -0.1476
27941SOL    HW1 1815   9.727  10.948  12.987  0.2314  0.1511 -0.1903
27941SOL    HW2 1816   9.633  11.059  12.946 -1.6577 -0.9328  1.0523
27942SOL     OW 1817   8.031  10.752   2.228  0.0010  0.2628 -0.3011
27942SOL    HW1 1818   8.100  10.807   2.190  1.2138 -1.0710 -0.0960
27942SOL    HW2 1819   8.066  10.724   2.312 -0.1431 -1.6476 -0.8412
27943SOL     OW 1820   2.010   3.214   0.772 -0.1719  0.2453  0.2587
27943SOL    HW1 1821   2.069   3.289   0.781 -2.1409  1.9558 -0.2238
27943SOL    HW2 1822   2.008   3.197   0.678 -1.1840  0.8606  0.1587
27944SOL     OW 1823  13.558  10.856   4.839  0.4659 -0.5116 -0.1285
27944SOL    HW1 1824  13.502  10.786   4.807  0.0092 -0.7712  1.1766
27944SOL    HW2 1825  13.540  10.930   4.780  0.5372 -1.2975 -1.1631
27945SOL     OW 1826  13.544  10.543   2.724 -0.0162  0.8065 -0.1079
27945SOL    HW1 1827  13.522  10.606   2.655  1.9163 -1.5724 -3.1285
27945SOL    HW2 1828  13.623  10.580   2.765 -0.6838  1.8176  0.3102
27946SOL     OW 1829   6.436   2.349   8.039 -0.3895 -0.5544  0.3619
27946SOL    HW1 1830   6.522   2.312   8.019 -0.1832 -0.0680  0.3256
27946SOL    HW2 1831   6.407   2.388   7.956 -0.2580  0.0374  0.5889
27947SOL     OW 1832  11.122  12.094   0.892 -0.3250  0.4869 -0.9559
27947SOL    HW1 1833  11.060  12.060   0.957  0.0339  0.4817 -0.6113
27947SOL    HW2 1834  11.187  12.140   0.944  0.3979 -0.1877 -1.2527
27948SOL     OW 1835   1.797  13.350  10.647  0.1968  0.5182  1.0538
27948SOL    HW1 1836   1.745  13.270  10.651  0.9557 -0.1190 -0.6214
27948SOL    HW2 1837   1.757  13.409  10.711 -2.0748 -0.2216  0.4128
27949SOL     OW 1838  10.227   5.730   4.424  0.2625  0.0162 -0.1614
27949SOL    HW1 1839  10.196   5.716   4.335 -0.2723 -0.2046  0.0577
27949SOL    HW2 1840  10.148   5.745   4.476  0.4544 -1.2186  0.5309
27950SOL     OW 1841   8.996  12.432   4.650 -0.2544 -0.3544 -0.1130
27950SOL    HW1 1842   9.081  12.476   4.657 -0.7405  0.9880 -1.9072
27950SOL    HW2 1843   9.018  12.341   4.631  0.8821  0.3918 -2.9453
27951SOL     OW 1844   6.268   3.787   5.113  0.0114 -0.6212 -0.0999
27951SOL    HW1 1845   6.263   3.691   5.113  0.3180 -0.7188 -2.7751
27951SOL    HW2 1846   6.308   3.809   5.197  1.8489 -2.9986 -0.2439
27952SOL     OW 1847   1.551  10.833   2.819  0.8501 -0.0784 -0.4284
27952SOL    HW1 1848   1.495  10.878   2.756  1.2901  1.2607  0.1164
27952SOL    HW2 1849   1.529  10.872   2.904  3.3248  1.2636 -0.3337
27953SOL     OW 1850   4.197   2.375  10.271 -0.4659 -0.4091  0.3136
27953SOL    HW1 1851   4.129   2.392  10.337 -0.8847  1.2072 -0.4628
27953SOL    HW2 1852   4.278   2.402  10.313 -0.9017  2.0028 -0.2432
27954SOL     OW 1853  13.238   3.813   1.294 -0.0957  0.1220  0.1983
27954SOL    HW1 1854  13.175   3.805   1.223  0.6244 -0.1321 -0.4158
27954SOL    HW2 1855  13.257   3.907   1.298  0.6553  0.0112 -0.6422
27955SOL     OW 1856  12.612   5.399   3.569  0.1724 -0.3277 -0.1201
27955SOL    HW1 1857  12.613   5.467   3.636  1.5433 -0.3927 -0.0538
27955SOL    HW2 1858  12.596   5.318   3.618  1.4971 -0.4168  0.1946
27956SOL     OW 1859   9.697   3.337   8.317 -0.4585 -0.0529  0.3923
27956SOL    HW1 1860   9.758   3.387   8.263  0.1416 -1.6344 -0.4595
27956SOL    HW2 1861   9.611   3.374   8.297 -0.5235 -1.7716 -3.1970
27957SOL     OW 1862   8.891  10.517  13.507  0.3654  0.5758 -0.6219
27957SOL    HW1 1863   8.823  10.471  13.457 -1.2175 -1.7431  3.2469
27957SOL    HW2 1864   8.849  10.598  13.535 -0.5527 -0.3507  0.8401
27958SOL     OW 1865   8.791  12.220   6.441 -0.4944 -0.1154  0.1380
27958SOL    HW1 1866   8.876  12.198   6.402 -0.0827 -0.2103  1.0656
27958SOL    HW2 1867   8.743  12.137   6.443 -0.2423 -0.2546  0.4873
27959SOL     OW 1868   6.525   5.541  12.558 -0.1078 -0.4549 -0.0932
27959SOL    HW1 1869   6.444   5.569  12.600  0.2952 -0.5342  0.7668
27959SOL    HW2 1870   6.546   5.612  12.497 -1.5322 -1.0745 -1.3432
27960SOL     OW 1871   1.205   2.363   1.619  0.0189 -0.6090  0.3420
27960SOL    HW1 1872   1.266   2.383   1.548  0.6118  0.9148  1.2333
27960SOL    HW2 1873   1.172   2.448   1.647  1.7171 -0.8577  3.5557
27961SOL     OW 1874   3.447  11.350   1.172  0.4325 -0.7466 -0.1053
27961SOL    HW1 1875   3.364  11.398   1.162  0.9423  0.0615 -0.5256
27961SOL    HW2 1876   3.503  11.410   1.221  0.7126 -1.3707  0.3495
27962SOL     OW 1877  10.135   7.165   3.391 -0.2371  0.6493  0.1211
27962SOL    HW1 1878  10.153   7.228   3.321 -0.4995 -1.0678 -1.6027
27962SOL    HW2 1879  10.067   7.207   3.444  0.3448  2.2243 -0.3315
27963SOL     OW 1880  12.746   7.256   2.353 -0.1812 -0.1637 -0.3342
27963SOL    HW1 1881  12.722   7.248   2.445 -0.0172  1.2135 -0.1472
27963SOL    HW2 1882  12.726   7.171   2.316  0.3039 -0.9373  1.1000
27964SOL     OW 1883  11.294  12.140   1.751  0.2198 -0.4712 -0.2696
27964SOL    HW1 1884  11.355  12.213   1.767  0.3537 -0.3999 -1.0760
27964SOL    HW2 1885  11.227  12.177   1.694  0.6798 -1.1653 -1.2819
27965SOL     OW 1886   9.868   4.731   7.032 -0.4540 -0.0173 -0.0382
27965SOL    HW1 1887   9.821   4.689   7.104 -0.2255 -0.0335  0.1031
27965SOL    HW2 1888   9.801   4.779   6.984 -0.6236 -0.0856  0.1287
27966SOL     OW 1889   4.465  12.401   5.126  0.5461  0.4886  0.4115
27966SOL    HW1 1890   4.484  12.322   5.076  0.8861  0.4793  0.5542
27966SOL    HW2 1891   4.527  12.466   5.094 -0.5052  1.0649 -0.5538
27967SOL     OW 1892  10.008   7.271   8.726  0.1201 -0.4511  0.0589
27967SOL    HW1 1893  10.087   7.325   8.719 -0.5727  0.6538  0.4008
27967SOL    HW2 1894   9.985   7.250   8.636  0.6828 -0.5840 -0.0539
27968SOL     OW 1895   3.251   5.032   7.902  0.0235  0.2618  0.2599
27968SOL    HW1 1896   3.209   5.082   7.831  0.4818 -1.2946 -1.1717
27968SOL    HW2 1897   3.332   5.079   7.920  0.6695 -0.1380 -1.3838
27969SOL     OW 1898  12.223   7.781   7.451  0.2022 -0.3461  0.7193
27969SOL    HW1 1899  12.245   7.784   7.358  0.1303  3.2318  0.6700
27969SOL    HW2 1900  12.131   7.753   7.453  0.1479 -0.2679 -0.2786
27970SOL     OW 1901   9.268   5.059   6.204 -0.0544 -0.1603  0.1867
27970SOL    HW1 1902   9.333   5.013   6.152 -1.8990 -0.9970 -1.5240
27970SOL    HW2 1903   9.187   5.010   6.191 -1.3166  1.4873  1.2582
27971SOL     OW 1904  13.278   8.391   1.297 -0.1216 -0.3303  0.0217
27971SOL    HW1 1905  13.342   8.373   1.227  0.9422 -0.8204  1.0898
27971SOL    HW2 1906  13.329   8.390   1.377 -0.9888  2.1027  0.6882
27972SOL     OW 1907   5.385  10.588   0.011 -0.0414  0.7061 -0.1060
27972SOL    HW1 1908   5.416  10.542   0.090  0.0982  1.9439  0.5874
27972SOL    HW2 1909   5.418  10.535  -0.062  0.9114  0.2169  0.6539
27973SOL     OW 1910   9.862  11.644  10.364 -0.1354 -0.1514 -0.0077
27973SOL    HW1 1911   9.878  11.730  10.325  1.4644 -0.8607 -1.0348
27973SOL    HW2 1912   9.882  11.655  10.457 -0.5452  0.7245 -0.0161
27974SOL     OW 1913   0.960   2.718   0.420 -0.1530  0.2092  0.5159
27974SOL    HW1 1914   1.020   2.679   0.484 -0.8225  0.0659  1.0685
27974SOL    HW2 1915   1.009   2.715   0.338  0.6934  0.3257  0.9983
27975SOL     OW 1916   7.921  11.714   3.081  0.2218  0.4508  0.2960
27975SOL    HW1 1917   7.898  11.749   2.995  1.0089  1.4300  0.4655
27975SOL    HW2 1918   8.017  11.715   3.083  0.2456 -0.7851  0.7032
27976SOL     OW 1919   6.738   7.916   9.647 -0.0402  0.1155 -0.3890
27976SOL    HW1 1920   6.728   7.945   9.557 -1.1720 -0.5743 -0.5097
27976SOL    HW2 1921   6.720   7.822   9.644  0.7960 -0.0955  0.4251
27977SOL     OW 1922  14.122   2.774  13.463  0.0818 -0.1436  0.2802
27977SOL    HW1 1923  14.080   2.835  13.524 -1.9901 -1.7364  0.5730
27977SOL    HW2 1924  14.216   2.783  13.480 -0.2330  1.9498  1.2217
27978SOL     OW 1925  12.689   6.174  11.193 -0.0438 -0.0452 -0.1123
27978SOL    HW1 1926  12.696   6.151  11.100 -0.6745  1.7126 -0.6474
27978SOL    HW2 1927  12.688   6.270  11.193 -2.3158  0.0040  1.5087
27979SOL     OW 1928   3.567  12.312  12.791  0.1500 -0.6269  0.3233
27979SOL    HW1 1929   3.570  12.360  12.708 -0.3127  0.7193  1.0617
27979SOL    HW2 1930   3.650  12.331  12.833 -0.7423  1.0174  1.4070
27980SOL     OW 1931   4.357   8.041   0.300 -0.1038  0.4868  0.1150
27980SOL    HW1 1932   4.280   7.995   0.333 -1.6377  0.6961 -2.8161
27980SOL    HW2 1933   4.428   7.978   0.310 -1.1972 -0.7436  0.5074
27981SOL     OW 1934  10.176   9.436  10.633 -0.7405 -0.6587  0.0473
27981SOL    HW1 1935  10.101   9.495  10.628  0.7294  1.2890 -0.1256
27981SOL    HW2 1936  10.250   9.492  10.657  0.4483 -2.7200  1.5771
27982SOL     OW 1937   3.487   7.025   9.938  0.2413 -0.0646  0.4073
27982SOL    HW1 1938   3.564   6.969   9.951 -0.1921 -0.8283 -0.2309
27982SOL    HW2 1939   3.426   6.970   9.888 -1.0313  0.2516  1.5565
27983SOL     OW 1940  12.046  14.104  12.172  0.1747 -0.1867  0.0875
27983SOL    HW1 1941  12.076  14.159  12.245 -0.8682  0.6650 -0.1001
27983SOL    HW2 1942  11.951  14.114  12.172  0.2279  1.0679 -2.2943
27984SOL     OW 1943   9.781  11.260  13.398 -0.2629  0.0541 -0.2441
27984SOL    HW1 1944   9.746  11.204  13.468  0.3237  0.0708  0.0643
27984SOL    HW2 1945   9.854  11.210  13.361  0.8943  0.9996  0.6776
27985SOL     OW 1946  11.881   0.619   6.436  0.1442 -0.4681  0.2083
27985SOL    HW1 1947  11.840   0.704   6.452  1.2092  0.0510  0.2443
27985SOL    HW2 1948  11.900   0.584   6.523  0.7958 -0.1926  0.1830
27986SOL     OW 1949   8.151   4.226   0.750 -0.7934  0.6150 -0.1373
27986SOL    HW1 1950   8.151   4.138   0.712 -0.4416  0.4414  0.2542
27986SOL    HW2 1951   8.071   4.267   0.716 -1.5234 -0.2168  0.5125
27987SOL     OW 1952   8.974  10.355  12.407 -0.3104  0.3359  0.2012
27987SOL    HW1 1953   8.958  10.292  12.337  0.6854 -0.1414  0.3858
27987SOL    HW2 1954   9.049  10.319  12.456 -1.9686 -0.1908  2.5328
27988SOL     OW 1955   0.656   7.947   2.647  0.3821 -0.2483  0.0289
27988SOL    HW1 1956   0.661   7.904   2.732  0.6953  0.9133  0.6308
27988SOL    HW2 1957   0.714   8.023   2.656 -2.1343  1.8231 -0.0315
27989SOL     OW 1958  12.464   1.166   7.505  0.0442 -0.1702 -0.2812
27989SOL    HW1 1959  12.437   1.258   7.513  0.8150  0.1702 -1.4057
27989SOL    HW2 1960  12.382   1.117   7.501 -0.3915  0.3442  1.4064
27990SOL     OW 1961  12.156   4.302   5.686  0.1645  0.1973 -0.2902
27990SOL    HW1 1962  12.076   4.356   5.682  0.0316 -0.0637 -1.5714
27990SOL    HW2 1963  12.195   4.311   5.599  0.4614 -1.3020 -0.3264
27991SOL     OW 1964   6.817  13.596  11.188 -0.2761  0.1263 -0.0455
27991SOL    HW1 1965   6.823  13.600  11.092  0.5975  0.4554  0.0076
27991SOL    HW2 1966   6.908  13.604  11.217 -0.4686 -0.6413  0.7935
27992SOL     OW 1967  11.175   3.434   2.469 -0.6158  0.0430 -0.3483
27992SOL    HW1 1968  11.119   3.466   2.540  0.6355  1.1056  0.2040
27992SOL    HW2 1969  11.128   3.457   2.389 -2.3159 -1.6511  0.0832
27993SOL     OW 1970  10.969   0.201   9.746 -0.2387 -0.8535 -0.1212
27993SOL    HW1 1971  10.916   0.278   9.768 -0.3650 -1.0084  0.1101
27993SOL    HW2 1972  10.908   0.140   9.704 -0.6102 -1.6981  1.5894
27994SOL     OW 1973   9.921  10.479   5.872  0.5994 -0.0231  0.5936
27994SOL    HW1 1974   9.854  10.545   5.858  0.7666 -0.2613 -1.6500
27994SOL    HW2 1975   9.883  10.419   5.937 -0.7522  0.6163  0.4136
27995SOL     OW 1976   1.048   2.184   3.740  0.2574  0.3009 -0.5427
27995SOL    HW1 1977   0.954   2.185   3.759  0.4176  0.3841  0.2779
27995SOL    HW2 1978   1.087   2.143   3.817  0.8645 -0.0682 -1.0399
27996SOL     OW 1979   3.747   4.441   4.594 -0.3760  0.2953 -0.2044
27996SOL    HW1 1980   3.779   4.369   4.648  0.7894  0.5356 -0.5253
27996SOL    HW2 1981   3.711   4.504   4.656  0.4979  0.3485  0.2639
27997SOL     OW 1982   5.604   9.429  12.803 -0.3342  0.2824 -0.0174
27997SOL    HW1 1983   5.510   9.413  12.800 -0.4791  1.1620 -3.3273
27997SOL    HW2 1984   5.644   9.345  12.779 -0.2759  0.1982  0.3532
27998SOL     OW 1985   7.513   8.009  13.964  0.2664 -0.0025 -0.4009
27998SOL    HW1 1986   7.453   7.936  13.982 -0.8361  0.8472 -0.5366
27998SOL    HW2 1987   7.593   7.966  13.935  0.1272 -1.2138  0.8739
27999SOL     OW 1988   7.126   8.099  12.596 -0.0676 -0.2519  0.4832
27999SOL    HW1 1989   7.181   8.139  12.529  0.2797 -2.4396 -0.6276
27999SOL    HW2 1990   7.183   8.089  12.672  1.0306 -2.1448 -0.5322
28000SOL     OW 1991  11.405   4.056  13.025  0.2727  0.6810  0.1861
28000SOL    HW1 1992  11.316   4.021  13.031  1.3124 -2.3550 -0.2906
28000SOL    HW2 1993  11.420   4.098  13.109 -1.9386  2.3027 -0.1230
28001SOL     OW 1994   4.455   2.243   7.390  0.5427  0.0359  0.6177
28001SOL    HW1 1995   4.383   2.301   7.413 -0.1135 -0.9506  1.1290
28001SOL    HW2 1996   4.486   2.277   7.306 -1.7384 -0.5825 -0.5823
28002SOL     OW 1997   7.851  13.039   6.554  0.2708 -0.3154  0.6979
28002SOL    HW1 1998   7.797  13.110   6.520 -0.9511 -0.7927  1.5628
28002SOL    HW2 1999   7.934  13.080   6.576 -0.2565  0.7594  0.7607
28003SOL     OW 2000   3.844   4.599   7.473 -0.9524  0.0293  0.0319
28003SOL    HW1 2001   3.792   4.679   7.482 -0.9289 -0.0775  1.3018
28003SOL    HW2 2002   3.894   4.593   7.554  0.7956 -0.0799 -1.0025
28004SOL     OW 2003   7.470   3.178   9.449 -0.0833  0.6258 -0.0115
28004SOL    HW1 2004   7.519   3.192   9.368 -0.8482 -0.5925 -0.7154
28004SOL    HW2 2005   7.421   3.259   9.462  0.1576  0.8904 -0.7011
28005SOL     OW 2006   2.353   3.301   1.869  0.2463 -0.4096  0.3867
28005SOL    HW1 2007   2.261   3.288   1.891 -0.3100 -0.2882 -1.5954
28005SOL    HW2 2008   2.356   3.391   1.835  1.0766 -0.4334  0.3950
28006SOL     OW 2009  11.421   2.772  10.903  0.1832 -0.2006  0.1613
28006SOL    HW1 2010  11.382   2.846  10.855  0.8695 -0.0404 -0.1525
28006SOL    HW2 2011  11.480   2.813  10.966  0.0973 -0.4622  0.4146
28007SOL     OW 2012   7.084  13.268  11.609 -0.6800 -0.9303 -0.4882
28007SOL    HW1 2013   7.163  13.242  11.656 -1.9879 -0.5168  2.1042
28007SOL    HW2 2014   7.062  13.192  11.555  1.3386 -1.1103 -1.1476
28008SOL     OW 2015  12.560   3.774   2.859  0.0775 -0.6223  0.0212
28008SOL    HW1 2016  12.564   3.687   2.820 -1.2442 -1.3833  1.4625
28008SOL    HW2 2017  12.467   3.798   2.856  0.1016 -0.2239  1.5909
28009SOL     OW 2018  13.303   9.029   8.417  0.8119  0.3349  0.6432
28009SOL    HW1 2019  13.229   9.027   8.478 -0.5219  0.8063 -0.8752
28009SOL    HW2 2020  13.317   9.122   8.399  1.6838  0.2399  0.7905
28010SOL     OW 2021   2.171   5.864   3.193 -0.0363 -0.0025 -0.2061
28010SOL    HW1 2022   2.187   5.781   3.238  0.1535 -0.5899 -1.3309
28010SOL    HW2 2023   2.092   5.849   3.143  0.2802  0.3300 -0.8137
28011SOL     OW 2024  11.512   9.233   5.105  0.0574  0.3211 -0.3573
28011SOL    HW1 2025  11.466   9.291   5.165  1.0765  1.4724 -0.6431
28011SOL    HW2 2026  11.601   9.227   5.140 -0.2099 -1.7406  0.1101
28012SOL     OW 2027   3.796   2.157  14.006  0.5746 -0.4325 -0.6361
28012SOL    HW1 2028   3.872   2.103  14.029 -0.0230 -0.5217  1.2922
28012SOL    HW2 2029   3.829   2.247  14.010  0.8613 -0.5187 -0.9879
28013SOL     OW 2030   1.602  12.607  14.086  0.2197 -0.2803  0.0824
28013SOL    HW1 2031   1.663  12.663  14.134 -0.5468 -1.2879  2.3771
28013SOL    HW2 2032   1.515  12.635  14.117 -0.3455 -0.7831 -0.9802
28014SOL     OW 2033   4.180   1.543   3.568  0.3790 -0.8159 -0.3356
28014SOL    HW1 2034   4.231   1.615   3.530 -1.0265 -0.7635 -2.2589
28014SOL    HW2 2035   4.099   1.584   3.597 -0.2600 -1.5312 -1.0657
28015SOL     OW 2036   6.970   5.948  13.499  0.2301 -0.1225 -0.0547
28015SOL    HW1 2037   7.031   5.881  13.529  0.5043  1.3974  3.2288
28015SOL    HW2 2038   7.025   6.012  13.454  0.5738 -0.2793  0.1385
28016SOL     OW 2039   6.927  11.095   1.470 -0.1277  0.8262 -0.5317
28016SOL    HW1 2040   6.999  11.046   1.430  0.3942  0.7832  0.4195
28016SOL    HW2 2041   6.882  11.031   1.525 -0.6054  0.9675 -0.7552
28017SOL     OW 2042   6.775   8.412   4.820  0.2785  0.1473 -0.1292
28017SOL    HW1 2043   6.796   8.424   4.913 -0.2545  1.0837 -0.1153
28017SOL    HW2 2044   6.840   8.464   4.774 -0.5456  1.1606 -0.1863
28018SOL     OW 2045   7.868   3.176  13.436 -0.2401 -0.6325  0.3836
28018SOL    HW1 2046   7.812   3.124  13.378 -0.1462 -0.4854  0.1608
28018SOL    HW2 2047   7.872   3.262  13.396 -0.3353 -0.4703  0.7152
28019SOL     OW 2048   7.579   6.917   2.204  0.0635 -0.7297 -0.2825
28019SOL    HW1 2049   7.578   6.937   2.298  1.2540 -0.1587 -0.3695
28019SOL    HW2 2050   7.487   6.905   2.181 -0.2268 -1.0989  0.9989
28020SOL     OW 2051   2.115   7.002   0.779 -0.0747  0.1376 -0.5087
28020SOL    HW1 2052   2.021   7.020   0.774 -0.5864 -2.3540 -1.3557
28020SOL    HW2 2053   2.121   6.907   0.773  2.5431  0.2630 -0.9165
28021SOL     OW 2054   2.248  13.023  10.068  0.0658 -0.2179 -0.0208
28021SOL    HW1 2055   2.186  13.013  10.141  0.9949  0.4244  0.8904
28021SOL    HW2 2056   2.314  12.956  10.083  0.1857 -0.1796 -0.3693
28022SOL     OW 2057  11.552   0.931   8.562  0.4818  0.4238  0.1068
28022SOL    HW1 2058  11.484   0.911   8.626  0.1105  0.3736 -0.2998
28022SOL    HW2 2059  11.537   1.022   8.540 -0.0155  0.1663 -0.6473
28023SOL     OW 2060  10.525  13.745   5.310  0.1482 -0.9501  0.2747
28023SOL    HW1 2061  10.599  13.685   5.326  4.0890  2.4895 -2.7684
28023SOL    HW2 2062  10.484  13.711   5.231  0.7012 -1.0899  0.0405
28024SOL     OW 2063  10.224  12.187   1.471 -0.1229 -0.4374 -0.0451
28024SOL    HW1 2064  10.142  12.191   1.519  1.1616 -1.5810  2.4020
28024SOL    HW2 2065  10.217  12.107   1.418 -0.7432 -0.2570 -0.2484
28025SOL     OW 2066   3.689   7.054  12.242  0.3753 -0.1482  0.1232
28025SOL    HW1 2067   3.676   7.014  12.156  0.0255 -3.2226  1.4994
28025SOL    HW2 2068   3.607   7.037  12.289  1.3751 -0.5332  1.8035
28026SOL     OW 2069   4.291  11.449  13.154 -0.3037 -0.1975 -0.2148
28026SOL    HW1 2070   4.367  11.492  13.195 -0.0848  1.4884 -2.1690
28026SOL    HW2 2071   4.316  11.357  13.147  0.6700 -0.0601  1.0746
28027SOL     OW 2072   9.719   0.423  11.864 -0.3764  0.5199 -0.3977
28027SOL    HW1 2073   9.683   0.335  11.862  0.9845 -0.0669 -0.2609
28027SOL    HW2 2074   9.794   0.417  11.924  0.1016  1.6111 -0.8527
28028SOL     OW 2075   5.388   2.262   6.106  0.4803 -0.3803 -0.2671
28028SOL    HW1 2076   5.465   2.204   6.100 -0.0129 -1.3774  1.8276
28028SOL    HW2 2077   5.384   2.285   6.199 -2.4289 -1.3615 -0.0569
28029SOL     OW 2078  11.788   6.552   4.584  0.1854  0.0364  0.0018
28029SOL    HW1 2079  11.773   6.535   4.491 -0.7239  0.3067  0.0896
28029SOL    HW2 2080  11.706   6.588   4.616  0.8429  1.0046  0.6708
28030SOL     OW 2081   8.002   8.908   7.636  0.0066  0.5784  0.0952
28030SOL    HW1 2082   7.925   8.862   7.603  0.3379  0.7099 -0.8709
28030SOL    HW2 2083   8.032   8.853   7.709  0.3644 -0.7452 -1.0047
28031SOL     OW 2084   4.976  11.077  12.901  0.0473  0.3025  0.2696
28031SOL    HW1 2085   5.060  11.034  12.918 -1.4370 -3.9504 -1.6526
28031SOL    HW2 2086   4.910  11.014  12.931 -2.4474  2.1480 -0.9178
28032SOL     OW 2087   8.068   2.684   7.442 -0.4587  0.3593  0.0888
28032SOL    HW1 2088   8.076   2.750   7.510  0.3638 -0.6612  1.0195
28032SOL    HW2 2089   8.014   2.616   7.480  2.7411 -1.8454  1.1576
28033SOL     OW 2090  12.123   3.495  11.648  0.9979  0.4404  0.0791
28033SOL    HW1 2091  12.036   3.479  11.684  0.6589  0.5754 -0.6736
28033SOL    HW2 2092  12.177   3.516  11.725  0.6430 -0.7601  0.6715
28034SOL     OW 2093   3.778   5.756   0.973  0.1222  0.5913 -0.0073
28034SOL    HW1 2094   3.849   5.741   0.910 -0.6779 -0.7667 -0.6150
28034SOL    HW2 2095   3.712   5.803   0.923  0.0865  0.7939  0.2287
28035SOL     OW 2096   4.835   8.594   7.737 -0.3706 -1.2175 -0.1916
28035SOL    HW1 2097   4.772   8.643   7.791  0.0319 -0.5733 -0.2971
28035SOL    HW2 2098   4.872   8.529   7.797 -0.8827 -1.3769 -0.0396
28036SOL     OW 2099   6.150  10.635  12.723  0.6233  0.1086  0.0740
28036SOL    HW1 2100   6.087  10.705  12.707 -1.0128 -0.6840  2.3961
28036SOL    HW2 2101   6.118  10.561  12.672  0.1431 -0.0414  0.5859
28037SOL     OW 2102   4.017  11.608   9.591  0.1623  0.4285 -0.6673
28037SOL    HW1 2103   4.025  11.677   9.526  0.7935  1.3403  0.3494
28037SOL    HW2 2104   3.978  11.651   9.667 -0.6823 -0.6467 -0.4696
28038SOL     OW 2105   9.332  10.347   6.604 -0.1109  0.1970 -0.1010
28038SOL    HW1 2106   9.252  10.394   6.628 -0.7772 -0.4379 -1.0187
28038SOL    HW2 2107   9.401  10.413   6.610 -0.8641  1.0205 -0.3165
28039SOL     OW 2108   7.743   0.837   0.158  0.2576 -0.4735 -0.0802
28039SOL    HW1 2109   7.682   0.904   0.188  0.3541 -0.7981  0.9125
28039SOL    HW2 2110   7.718   0.759   0.208  0.4361 -1.0480 -0.8815
28040SOL     OW 2111   2.747  10.092  11.839  0.4426 -0.0109  0.0155
28040SOL    HW1 2112   2.730  10.009  11.883  1.4911 -0.1120  0.2632
28040SOL    HW2 2113   2.685  10.095  11.767 -1.8717  0.4974  1.9038
28041SOL     OW 2114   4.238   3.994   3.969  0.0436  0.4128 -0.6388
28041SOL    HW1 2115   4.308   4.033   4.022  0.0409  0.8151 -0.9275
28041SOL    HW2 2116   4.251   3.900   3.977 -0.0161  0.4638  0.1671
28042SOL     OW 2117  13.857  12.993   7.022  0.0949 -0.0755 -0.1085
28042SOL    HW1 2118  13.935  13.007   7.077  1.0524 -0.5654 -1.2929
28042SOL    HW2 2119  13.806  12.927   7.069 -0.9556  2.0572  1.9808
28043SOL     OW 2120  11.305  12.570   1.953  0.6338  0.1123  0.5477
28043SOL    HW1 2121  11.299  12.550   2.046 -0.0190 -0.8639  0.3021
28043SOL    HW2 2122  11.333  12.488   1.912 -0.3521  0.1650 -0.2651
28044SOL     OW 2123  12.971   5.929   1.539  0.1071 -0.6663 -0.4443
28044SOL    HW1 2124  12.907   5.858   1.527 -2.0339  1.2040 -0.8723
28044SOL    HW2 2125  12.972   5.944   1.633 -1.3426  0.3242 -0.5617
28045SOL     OW 2126   8.957   4.507   8.363  0.3334  0.1990  0.1654
28045SOL    HW1 2127   9.044   4.530   8.331  0.7870 -1.3740  0.1815
28045SOL    HW2 2128   8.898   4.533   8.293  0.9284  0.2641 -0.3233
28046SOL     OW 2129   4.166   0.000  10.121 -0.4072  0.1680  0.2661
28046SOL    HW1 2130   4.230  -0.024  10.187 -0.1629 -0.5568 -0.2237
28046SOL    HW2 2131   4.097   0.045  10.169  0.4025  0.8549  0.8166
28047SOL     OW 2132  13.788   4.964   2.106 -0.3349  0.1772 -0.0680
28047SOL    HW1 2133  13.735   4.930   2.179 -0.2220  0.5451  0.1862
28047SOL    HW2 2134  13.866   4.999   2.147  0.2970 -0.7019 -0.4773
28048SOL     OW 2135   8.109   9.739   7.000  0.1608  0.6770 -0.0157
28048SOL    HW1 2136   8.195   9.712   6.969 -0.6458 -1.3617 -0.7069
28048SOL    HW2 2137   8.056   9.747   6.921 -0.4410  1.2619  0.4348
28049SOL     OW 2138   8.546   6.214   8.221 -0.7630 -0.4967 -0.4157
28049SOL    HW1 2139   8.510   6.300   8.200  0.7309  0.4285  0.5746
28049SOL    HW2 2140   8.584   6.183   8.139 -0.8364  0.0378 -0.6544
28050SOL     OW 2141   5.892  11.402   2.712  0.1647 -0.0087  0.7195
28050SOL    HW1 2142   5.894  11.314   2.751 -2.9016  0.0057  1.1029
28050SOL    HW2 2143   5.942  11.456   2.773  1.1954 -1.2436  1.0258
28051SOL     OW 2144   3.276   0.162   9.669  0.0248 -0.9727 -0.2421
28051SOL    HW1 2145   3.327   0.101   9.616  0.8443  0.7595 -1.5306
28051SOL    HW2 2146   3.220   0.208   9.606 -1.2472 -1.0129  0.8215
28052SOL     OW 2147   7.326  12.723   2.917  0.1748  0.1616  0.0056
28052SOL    HW1 2148   7.262  12.792   2.902 -0.5453 -0.3360  0.7060
28052SOL    HW2 2149   7.355  12.735   3.008  1.1439  0.4259 -0.3219
28053SOL     OW 2150   8.499   2.602   7.244  0.3088  0.0834  0.7447
28053SOL    HW1 2151   8.503   2.604   7.148  2.9116  2.0596  0.7911
28053SOL    HW2 2152   8.424   2.546   7.263 -0.7180  0.1576 -2.4332
28054SOL     OW 2153  10.686   6.684  10.992 -0.5306 -0.5731 -0.3404
28054SOL    HW1 2154  10.700   6.778  10.983  0.1719 -0.7176 -0.8105
28054SOL    HW2 2155  10.744   6.657  11.063 -1.4067 -0.5057  0.4156
28055SOL     OW 2156   5.941  13.787   7.224 -0.5272  0.3031  0.2016
28055SOL    HW1 2157   5.894  13.796   7.141 -1.3804 -1.1485  0.5052
28055SOL    HW2 2158   5.950  13.693   7.236  1.2642  0.5103  0.8481
28056SOL     OW 2159   6.297  13.483  13.149 -0.1546 -0.1632 -0.3628
28056SOL    HW1 2160   6.358  13.477  13.223 -0.1394  0.5890 -0.3075
28056SOL    HW2 2161   6.352  13.474  13.072 -0.3504 -2.5156 -0.2966
28057SOL     OW 2162   4.551   8.793   2.338  0.6053 -0.6553  0.2741
28057SOL    HW1 2163   4.481   8.851   2.309 -0.2516 -1.8923 -0.2642
28057SOL    HW2 2164   4.621   8.851   2.366  0.6511  0.6708 -2.2783
28058SOL     OW 2165  13.307   6.158  12.670  0.0847  0.2988  0.4420
28058SOL    HW1 2166  13.256   6.207  12.735 -0.1627  0.8511 -0.1643
28058SOL    HW2 2167  13.374   6.113  12.722 -1.4131 -1.0056  1.3521
28059SOL     OW 2168  11.696   9.307  12.149 -0.1159  0.1365  0.5682
28059SOL    HW1 2169  11.677   9.397  12.175 -0.2318 -0.2349  1.8407
28059SOL    HW2 2170  11.792   9.303  12.147 -0.1076  0.3562  0.1925
28060SOL     OW 2171   0.345   5.678   6.798 -0.1403 -0.3289 -0.5304
28060SOL    HW1 2172   0.264   5.688   6.750 -0.4310 -0.2873 -0.0436
28060SOL    HW2 2173   0.370   5.767   6.824 -0.1428 -0.3763 -0.3606
28061SOL     OW 2174  11.825   9.120  10.040  0.5662 -0.1788 -0.4315
28061SOL    HW1 2175  11.749   9.082  10.084  0.2905  1.1670  0.2864
28061SOL    HW2 2176  11.872   9.167  10.108  2.0253 -0.9339 -0.8865
28062SOL     OW 2177   5.850  11.197  10.721  0.4970 -0.2276 -0.0246
28062SOL    HW1 2178   5.799  11.238  10.791  1.1570  1.1505 -0.3311
28062SOL    HW2 2179   5.884  11.117  10.761 -0.3096 -0.1974  0.7746
28063SOL     OW 2180   0.423   3.866   2.470 -0.0530 -0.0069 -0.8135
28063SOL    HW1 2181   0.509   3.844   2.434 -0.0185 -0.2654 -0.5794
28063SOL    HW2 2182   0.382   3.921   2.404 -0.5842 -1.6468 -1.9281
28064SOL     OW 2183  12.661   3.547   3.433 -0.7604  0.2765 -0.3117
28064SOL    HW1 2184  12.626   3.543   3.343  0.5601  0.5452 -0.8566
28064SOL    HW2 2185  12.583   3.557   3.488 -1.4684  3.3873 -1.6631
28065SOL     OW 2186  13.469  13.018   2.570 -0.4345  0.5492  0.2645
28065SOL    HW1 2187  13.526  13.052   2.639  0.8810 -0.2153 -0.4030
28065SOL    HW2 2188  13.454  12.927   2.594 -0.8072  0.5580  0.0684
28066SOL     OW 2189  13.953   4.096  10.960  0.3727 -0.2343  0.0597
28066SOL    HW1 2190  13.876   4.085  11.016  0.6283  0.3677  0.5493
28066SOL    HW2 2191  13.925   4.063  10.874 -0.3700 -0.1948  0.2745
28067SOL     OW 2192   8.632   5.282   5.918 -0.2836 -0.0888  0.3879
28067SOL    HW1 2193   8.593   5.194   5.923  1.5659 -1.0691 -1.2785
28067SOL    HW2 2194   8.648   5.296   5.825  1.0342  1.2935  0.7859
28068SOL     OW 2195   7.470   7.780  14.119  0.1226  0.0405 -0.5748
28068SOL    HW1 2196   7.402   7.732  14.073 -1.4927  0.5124  1.2047
28068SOL    HW2 2197   7.492   7.726  14.194 -0.0763  1.0105  0.2012
28069SOL     OW 2198  14.122  13.170   7.827  0.3265 -0.5596  0.4110
28069SOL    HW1 2199  14.107  13.265   7.827 -0.0334 -0.6158  0.1470
28069SOL    HW2 2200  14.111  13.143   7.736  0.9455 -0.7809  0.3948
28070SOL     OW 2201   8.313  12.411  13.854 -0.2706  0.4533 -0.3867
28070SOL    HW1 2202   8.378  12.380  13.792  0.9239 -0.5066  1.2586
28070SOL    HW2 2203   8.268  12.331  13.883 -2.6834  1.1275 -1.9170
28071SOL     OW 2204   2.308  10.391  12.560  0.8009  0.1172 -0.2846
28071SOL    HW1 2205   2.401  10.396  12.581  0.7596 -1.1112  0.2542
28071SOL    HW2 2206   2.274  10.479  12.579  1.6367  0.2731  0.5420
28072SOL     OW 2207  11.504   4.080   0.067  0.0937 -0.3688 -0.0985
28072SOL    HW1 2208  11.534   4.156   0.017 -0.8938 -0.2740 -0.5636
28072SOL    HW2 2209  11.566   4.011   0.047  1.2093  0.3993  0.5959
28073SOL     OW 2210   6.088  11.240   7.525  0.2200 -0.3472  0.4080
28073SOL    HW1 2211   6.092  11.296   7.602 -0.4521  0.4218 -0.1028
28073SOL    HW2 2212   6.173  11.253   7.482  1.1203 -1.7665  1.6634
28074SOL     OW 2213   7.827  12.886  11.560 -0.6941 -0.4125 -0.4787
28074SOL    HW1 2214   7.801  12.968  11.601  0.3600 -0.3135  0.0221
28074SOL    HW2 2215   7.761  12.871  11.492 -2.2921 -0.4315  1.0273
28075SOL     OW 2216   6.295  12.938   7.250 -0.3495  0.0414 -0.5815
28075SOL    HW1 2217   6.345  13.018   7.262 -0.6887  0.0273  1.1898
28075SOL    HW2 2218   6.266  12.914   7.338 -2.5778 -0.5314 -1.4008
28076SOL     OW 2219   3.006   3.469   3.908  1.3281 -0.3111  0.1284
28076SOL    HW1 2220   2.929   3.417   3.883  0.8655  0.1853  0.4875
28076SOL    HW2 2221   3.025   3.521   3.831  1.5893 -0.7612 -0.1179
28077SOL     OW 2222  12.511  10.830  10.200 -0.4293 -0.3921  0.0398
28077SOL    HW1 2223  12.562  10.778  10.262 -0.9405  1.9216  2.5715
28077SOL    HW2 2224  12.563  10.908  10.186 -1.6211  0.3838 -0.2132
28078SOL     OW 2225   4.800  11.607   8.300  0.1635  0.1314 -0.6350
28078SOL    HW1 2226   4.728  11.671   8.302  1.3951  1.5845  1.5545
28078SOL    HW2 2227   4.768  11.534   8.352  0.5658  1.2443  1.2938
28079SOL     OW 2228   9.556   2.579   9.781  0.3418 -0.0791  0.0049
28079SOL    HW1 2229   9.596   2.618   9.859 -0.1056 -1.8060  1.1550
28079SOL    HW2 2230   9.505   2.651   9.742  2.2067  1.3849  0.0974
28080SOL     OW 2231  12.176   7.315   9.010  0.0729  0.3075 -0.1412
28080SOL    HW1 2232  12.140   7.318   8.921 -0.3047 -1.1038 -0.0544
28080SOL    HW2 2233  12.105   7.282   9.064  0.3910  0.8922  0.6584
28081SOL     OW 2234   6.862  13.332   6.847 -0.4947  0.1840 -0.1917
28081SOL    HW1 2235   6.877  13.237   6.850 -0.6175  0.1579  2.5924
28081SOL    HW2 2236   6.949  13.370   6.853 -0.5334  0.1953  0.4126
28082SOL     OW 2237   5.660   1.759   9.210  0.4781  0.2416 -0.0540
28082SOL    HW1 2238   5.664   1.810   9.129  0.2187  1.0993  0.4498
28082SOL    HW2 2239   5.737   1.787   9.260  1.4177 -1.3066 -0.5544
28083SOL     OW 2240  13.252   8.667   0.226 -0.3628  0.1960  0.0528
28083SOL    HW1 2241  13.295   8.621   0.298 -0.1752 -0.0103 -0.1913
28083SOL    HW2 2242  13.324   8.709   0.178 -0.5632  1.1143  0.5266
28084SOL     OW 2243  11.786   6.151   7.708 -0.4151  0.0357 -0.2710
28084SOL    HW1 2244  11.786   6.065   7.751 -2.0682 -0.4223 -1.1259
28084SOL    HW2 2245  11.824   6.134   7.622  1.7588  0.7270  0.4688
28085SOL     OW 2246   0.052   0.869  10.010  0.0760 -0.2462  0.3489
28085SOL    HW1 2247   0.044   0.964  10.005  1.9118 -0.0594  0.2144
28085SOL    HW2 2248  -0.025   0.836   9.964 -0.8201  1.1509  0.7799
28086SOL     OW 2249  12.302   9.789   5.741  0.3716  0.8893  0.0849
28086SOL    HW1 2250  12.312   9.698   5.770  1.3649  0.9011 -0.1884
28086SOL    HW2 2251  12.222   9.819   5.785  1.7672  0.9103  2.8465
28087SOL     OW 2252  14.123   4.537   6.989  0.2689 -0.4155  0.5039
28087SOL    HW1 2253  14.112   4.443   6.982  1.5014 -0.5636  0.3578
28087SOL    HW2 2254  14.126   4.555   7.083 -1.4023 -0.3120  0.5741
28088SOL     OW 2255  12.986   5.234  11.466  0.0183 -0.4810  0.1510
28088SOL    HW1 2256  12.949   5.310  11.421 -1.8675 -0.9728  0.7819
28088SOL    HW2 2257  13.002   5.170  11.397  0.5296  0.0566 -0.2384
28089SOL     OW 2258   1.603  13.428   1.305  0.0313  0.2193  0.3880
28089SOL    HW1 2259   1.689  13.447   1.342 -0.1974  1.6914  0.2046
28089SOL    HW2 2260   1.542  13.468   1.367 -0.6167 -1.6971  1.0852
28090SOL     OW 2261  14.100   2.474   9.555 -0.3707  0.0250 -0.3213
28090SOL    HW1 2262  14.114   2.546   9.493  0.0192 -0.0847 -0.3614
28090SOL    HW2 2263  14.008   2.449   9.542  0.0096 -0.7870 -1.7195
28091SOL     OW 2264   3.098  13.497   4.344 -0.0060 -0.4544  0.2439
28091SOL    HW1 2265   3.180  13.478   4.297 -0.3485  1.0675 -1.0757
28091SOL    HW2 2266   3.041  13.423   4.324  0.2292 -0.3441 -0.8946
28092SOL     OW 2267   4.561  11.689   9.983 -0.4294 -0.0762  0.1385
28092SOL    HW1 2268   4.615  11.729  10.050  2.0135 -0.7943 -1.2925
28092SOL    HW2 2269   4.611  11.699   9.902 -0.4853 -4.2712 -0.6232
28093SOL     OW 2270  11.966   6.083  13.200 -0.9414  0.5529 -0.0228
28093SOL    HW1 2271  11.933   6.003  13.159  0.1068  0.2347 -0.2943
28093SOL    HW2 2272  12.039   6.053  13.254  2.0975  1.6493 -3.1291
28094SOL     OW 2273   9.557   0.949  11.213  0.0336  0.5680 -0.2770
28094SOL    HW1 2274   9.472   0.911  11.236 -1.1720  2.6053 -1.0251
28094SOL    HW2 2275   9.579   1.006  11.287  0.5780  0.3101 -0.2370
28095SOL     OW 2276  11.043   6.274   7.242 -0.4158 -0.0357  0.3818
28095SOL    HW1 2277  10.979   6.226   7.189  1.8379 -1.8728 -0.8801
28095SOL    HW2 2278  11.079   6.339   7.182 -0.4271  0.3378  0.7807
28096SOL     OW 2279   3.724   1.317  13.497 -1.0203 -0.5241 -0.0573
28096SOL    HW1 2280   3.726   1.261  13.575 -1.3608 -0.1755  0.2058
28096SOL    HW2 2281   3.748   1.404  13.530  0.3446 -0.6676 -0.6052
28097SOL     OW 2282   9.699   3.391  14.018  0.1254  0.3048  0.2413
28097SOL    HW1 2283   9.654   3.360  13.939  1.3212 -2.7247  0.6332
28097SOL    HW2 2284   9.791   3.372  14.002  0.8158  2.5113  1.1769
28098SOL     OW 2285  12.779  12.583  13.483  0.0401  0.3187 -0.1690
28098SOL    HW1 2286  12.778  12.497  13.442  0.3635  0.6134 -0.8175
28098SOL    HW2 2287  12.761  12.567  13.575  0.3518 -0.4606 -0.2430
28099SOL     OW 2288   5.563   7.209   0.287  0.1101 -0.1766  0.3338
28099SOL    HW1 2289   5.572   7.210   0.383 -0.1447  0.0758  0.3578
28099SOL    HW2 2290   5.566   7.302   0.262  0.9499 -0.2838  0.0192
28100SOL     OW 2291   6.613   9.534   7.525 -0.0608  0.1429 -0.1040
28100SOL    HW1 2292   6.683   9.590   7.491  0.8970 -0.2795  1.0868
28100SOL    HW2 2293   6.534   9.586   7.514  0.0395 -0.2479 -3.5486
28101SOL     OW 2294   8.195   6.058   7.195  0.7961  0.4799 -0.6184
28101SOL    HW1 2295   8.204   5.987   7.257  2.1284  1.2172  0.0755
28101SOL    HW2 2296   8.124   6.112   7.229  1.2722  0.6748  0.0887
28102SOL     OW 2297   5.647   8.073   4.721 -0.1549 -0.0514 -0.2466
28102SOL    HW1 2298   5.686   8.012   4.659  1.5874  0.4648  0.2801
28102SOL    HW2 2299   5.641   8.156   4.674  2.4133  0.6910  0.6010
28103SOL     OW 2300  12.812   6.828   8.754 -0.1108  0.4942  0.1332
28103SOL    HW1 2301  12.757   6.756   8.784 -0.0776  0.6889  0.6714
28103SOL    HW2 2302  12.831   6.878   8.833 -0.0959  1.0677 -0.2288
28104SOL     OW 2303  10.898   7.539   0.794 -0.0087 -0.4060  0.2511
28104SOL    HW1 2304  10.964   7.548   0.725  0.0416  0.3791  0.4001
28104SOL    HW2 2305  10.948   7.528   0.874 -0.0638 -1.8171  0.1222
28105SOL     OW 2306   0.860  10.276   8.684 -0.0572 -0.0870 -0.2524
28105SOL    HW1 2307   0.802  10.250   8.614 -0.5370  0.0127  0.1041
28105SOL    HW2 2308   0.871  10.197   8.737 -0.7715  0.1860  0.3105
28106SOL     OW 2309  12.627   2.088  11.617  0.3578 -0.8768  0.1510
28106SOL    HW1 2310  12.721   2.091  11.602  0.2588 -2.3764 -1.0782
28106SOL    HW2 2311  12.615   2.124  11.705  1.9978 -0.1315  0.1075
28107SOL     OW 2312  12.113   4.137   8.290  0.3195  0.7659  0.2899
28107SOL    HW1 2313  12.126   4.228   8.317  2.3596  0.4637  0.5057
28107SOL    HW2 2314  12.090   4.091   8.371  0.9875  0.8186  0.5222
28108SOL     OW 2315   0.807   4.690   0.061  0.0597  0.0950 -0.5153
28108SOL    HW1 2316   0.765   4.711  -0.022  0.9974  0.3570 -0.9266
28108SOL    HW2 2317   0.748   4.625   0.101 -2.1717  2.3741  0.1566
28109SOL     OW 2318  11.783   2.934   8.965 -0.4231  0.0239 -0.4085
28109SOL    HW1 2319  11.814   2.988   8.892  0.1736 -1.2821 -1.1595
28109SOL    HW2 2320  11.855   2.935   9.028 -0.3309 -0.0455 -0.5119
28110SOL     OW 2321   1.839   4.613   2.250 -0.3490  0.2142  0.1598
28110SOL    HW1 2322   1.767   4.553   2.265 -0.2004  0.0151  0.0879
28110SOL    HW2 2323   1.809   4.669   2.178  0.1568 -0.8649 -0.9301
28111SOL     OW 2324  13.279  11.095  11.863 -0.2064  0.3187 -0.3928
28111SOL    HW1 2325  13.242  11.087  11.775  0.5254 -0.0116 -0.6820
28111SOL    HW2 2326  13.252  11.015  11.908  3.3749 -1.9977 -1.8706
28112SOL     OW 2327   8.521   3.480  12.999  0.1300 -0.0767  0.0579
28112SOL    HW1 2328   8.440   3.508  13.042  0.2579 -0.5500  0.6211
28112SOL    HW2 2329   8.495   3.404  12.947  0.2845 -0.4690  0.5474
28113SOL     OW 2330   2.448   5.165  12.231 -0.5037  0.2272 -0.1641
28113SOL    HW1 2331   2.443   5.071  12.214  0.8657  0.2173 -0.6607
28113SOL    HW2 2332   2.508   5.173  12.306 -0.2093  0.7129 -0.4414
28114SOL     OW 2333   0.051  11.453  13.111  0.3492 -0.3094  0.2549
28114SOL    HW1 2334   0.100  11.400  13.049 -0.1363  1.1628 -1.4797
28114SOL    HW2 2335   0.030  11.534  13.064 -0.8964  0.4904  2.0112
28115SOL     OW 2336  12.244   8.749   5.983 -0.2538  0.2967 -0.3176
28115SOL    HW1 2337  12.232   8.684   6.052 -1.2002  1.6829  0.8943
28115SOL    HW2 2338  12.303   8.814   6.022  0.4794  0.3178 -1.4128
28116SOL     OW 2339   3.810  12.391   4.110  0.1100 -0.0079  0.3513
28116SOL    HW1 2340   3.746  12.415   4.042  0.7869 -2.1105 -1.1325
28116SOL    HW2 2341   3.894  12.420   4.075  0.3594 -0.2928  0.7106
28117SOL     OW 2342   8.403  12.210  13.431  0.4843  0.7944 -0.5985
28117SOL    HW1 2343   8.473  12.201  13.366 -0.1165  2.7415 -1.5956
28117SOL    HW2 2344   8.448  12.202  13.515  1.1691 -2.5759 -1.1523
28118SOL     OW 2345  12.216   3.054   4.491 -0.1809 -0.1280 -0.1976
28118SOL    HW1 2346  12.130   3.062   4.450 -0.1933  1.3705  0.0742
28118SOL    HW2 2347  12.240   3.143   4.516  0.2848 -0.8148  2.1087
28119SOL     OW 2348   8.356   2.646   9.379 -0.0566 -0.6667  0.2043
28119SOL    HW1 2349   8.325   2.709   9.314 -0.4890 -1.7964 -0.7146
28119SOL    HW2 2350   8.437   2.611   9.342 -1.1082 -2.4508 -0.5109
28120SOL     OW 2351   8.190  14.001   4.788  0.0969  0.3090  0.3415
28120SOL    HW1 2352   8.147  13.921   4.820  1.7425 -1.4396 -1.5308
28120SOL    HW2 2353   8.204  13.985   4.695 -0.3284  3.2266 -0.3096
28121SOL     OW 2354  13.530  11.309   7.942  0.1538 -0.7452  0.8655
28121SOL    HW1 2355  13.437  11.290   7.956  0.3957 -3.4030 -0.4547
28121SOL    HW2 2356  13.549  11.381   8.002 -2.5945 -0.5293  1.6269
28122SOL     OW 2357   1.077   2.525   3.876 -0.0193  0.3048  0.5739
28122SOL    HW1 2358   1.064   2.468   3.951 -2.0807 -2.5660 -1.7153
28122SOL    HW2 2359   0.990   2.539   3.840  0.8741  1.3853 -1.3621
28123SOL     OW 2360  11.489   6.567  13.915 -0.3751 -0.4298  0.3410
28123SOL    HW1 2361  11.465   6.474  13.914 -0.6994 -0.4298  2.3487
28123SOL    HW2 2362  11.542   6.577  13.994 -2.5673  1.5242  1.7269
28124SOL     OW 2363   2.784  10.590   8.696  0.2801 -0.3806 -0.0057
28124SOL    HW1 2364   2.769  10.554   8.783 -0.3874  0.8700  0.4100
28124SOL    HW2 2365   2.702  10.576   8.649  0.8292 -1.5927 -0.6562
28125SOL     OW 2366   5.037   4.266  12.851  0.0628  0.1797 -0.5108
28125SOL    HW1 2367   4.968   4.282  12.915  0.9508 -0.2724  0.5839
28125SOL    HW2 2368   5.000   4.200  12.792 -1.1120  1.2855 -1.0602
28126SOL     OW 2369   1.704   2.993  10.371  0.0866 -0.0214 -0.0267
28126SOL    HW1 2370   1.796   2.998  10.396  0.2588  0.0394 -0.6642
28126SOL    HW2 2371   1.686   2.900  10.363  0.4350  0.0032 -1.1426
28127SOL     OW 2372   0.008   2.636   5.187  0.1600 -0.6192 -0.0404
28127SOL    HW1 2373  -0.033   2.662   5.104  0.7957 -1.0346 -0.4939
28127SOL    HW2 2374   0.039   2.547   5.171  2.6553  0.2236 -0.2709
28128SOL     OW 2375  12.422  12.819   6.831 -0.5408 -0.0043  0.4033
28128SOL    HW1 2376  12.453  12.759   6.764 -2.2786 -2.8336  1.9540
28128SOL    HW2 2377  12.474  12.799   6.908 -2.1166 -0.6531  1.3513
28129SOL     OW 2378  10.352  12.130  13.896  0.1493  0.5382 -0.2647
28129SOL    HW1 2379  10.324  12.040  13.912  0.7634  0.1699 -1.1628
28129SOL    HW2 2380  10.402  12.155  13.974 -1.5936  0.7834  0.8214
28130SOL     OW 2381   2.377   7.935   8.526 -0.0714  0.2638 -0.0361
28130SOL    HW1 2382   2.383   7.846   8.561 -0.8959 -0.0466 -0.6617
28130SOL    HW2 2383   2.292   7.967   8.556 -0.5268  0.2125 -1.2440
28131SOL     OW 2384  11.835   4.010   7.249 -0.1920 -0.6425 -0.0561
28131SOL    HW1 2385  11.781   4.064   7.307 -2.7515 -2.8359 -0.2552
28131SOL    HW2 2386  11.880   3.949   7.307  0.7243  0.0019 -0.0593
28132SOL     OW 2387   5.204   3.661   6.382 -0.7628  0.1975  0.4600
28132SOL    HW1 2388   5.181   3.734   6.325  0.8994  1.4730  1.3593
28132SOL    HW2 2389   5.173   3.583   6.335 -1.0501  1.3376 -1.3019
28133SOL     OW 2390   3.309   6.580   7.141 -0.7190  0.2937 -0.2248
28133SOL    HW1 2391   3.305   6.531   7.223 -0.3908 -0.7133 -0.7810
28133SOL    HW2 2392   3.403   6.596   7.127 -0.7027 -0.1807 -0.7410
28134SOL     OW 2393   1.467   4.594   8.275  0.2386 -0.5683  0.0050
28134SOL    HW1 2394   1.431   4.679   8.251  0.0803 -0.3406  1.0058
28134SOL    HW2 2395   1.480   4.599   8.370  1.3628 -1.2263 -0.0867
28135SOL     OW 2396  13.497   4.266  12.341  0.0238 -0.5148  0.0339
28135SOL    HW1 2397  13.411   4.226  12.324 -0.7641  0.7355  0.8912
28135SOL    HW2 2398  13.560   4.196  12.324 -1.1155 -1.2858 -1.2420
28136SOL     OW 2399  10.467   5.427   4.274 -0.7965  0.2196 -0.3628
28136SOL    HW1 2400  10.418   5.395   4.350 -0.1844 -1.3331 -0.6066
28136SOL    HW2 2401  10.539   5.478   4.312 -1.6576  1.1966  0.0251
28137SOL     OW 2402   8.623   7.481   3.487 -0.0824  0.3214  0.8056
28137SOL    HW1 2403   8.585   7.526   3.562  1.2426  1.5273  0.8040
28137SOL    HW2 2404   8.568   7.508   3.413  1.0230  2.5340  0.7008
28138SOL     OW 2405   1.493   1.686   8.684 -0.2882 -0.9567  0.1186
28138SOL    HW1 2406   1.476   1.734   8.765 -0.0348 -1.0029  0.1985
28138SOL    HW2 2407   1.588   1.674   8.682 -0.3503 -1.4838  0.1163
28139SOL     OW 2408  12.586   5.516  12.394 -0.1170 -0.1610 -0.3198
28139SOL    HW1 2409  12.616   5.425  12.402 -0.6202 -0.4230 -1.2442
28139SOL    HW2 2410  12.537   5.518  12.312  0.4269  1.1041 -0.6366
28140SOL     OW 2411   6.020   9.026   4.274  0.4848 -0.5649  0.0389
28140SOL    HW1 2412   6.082   8.988   4.211  1.2044  1.3949 -0.5100
28140SOL    HW2 2413   6.049   9.116   4.284 -1.2157 -0.1096  1.2040
28141SOL     OW 2414   0.318   3.365   7.754 -0.4536 -0.1720 -0.4114
28141SOL    HW1 2415   0.262   3.311   7.811 -0.4399  1.0626  0.8094
28141SOL    HW2 2416   0.262   3.438   7.728 -0.3944 -0.6111 -1.8632
28142SOL     OW 2417   3.582   9.471   7.624  0.0550 -0.3196 -0.6700
28142SOL    HW1 2418   3.631   9.482   7.706  1.2737 -0.5048 -1.3485
28142SOL    HW2 2419   3.518   9.542   7.624 -0.4609 -0.7518  0.7749
28143SOL     OW 2420   5.689   0.626   5.192  0.3279  0.0301 -0.3164
28143SOL    HW1 2421   5.676   0.588   5.279 -1.7436 -1.1795 -1.0956
28143SOL    HW2 2422   5.691   0.721   5.207 -1.9201 -0.0487  0.8762
28144SOL     OW 2423   8.540   9.198   9.629 -0.0603 -0.4701 -0.4398
28144SOL    HW1 2424   8.491   9.126   9.668 -1.1163 -0.0155 -0.8886
28144SOL    HW2 2425   8.629   9.163   9.618 -0.2912 -1.3442  0.2942
28145SOL     OW 2426   0.095   2.918  12.228  0.0130 -0.4655  0.7984
28145SOL    HW1 2427   0.076   2.895  12.137 -1.6554 -0.2303  1.0560
28145SOL    HW2 2428   0.038   2.860  12.279  0.7639 -0.4347  1.7009
28146SOL     OW 2429  11.746  12.167  10.245 -0.0716  0.0330  0.1460
28146SOL    HW1 2430  11.711  12.156  10.156 -0.8866  0.4561  0.4000
28146SOL    HW2 2431  11.761  12.262  10.253 -1.0323  0.1467  0.8192
28147SOL     OW 2432  12.968   8.768  10.656 -0.1967  0.0179  0.2961
28147SOL    HW1 2433  12.881   8.757  10.618 -0.3588  0.6305  0.4733
28147SOL    HW2 2434  13.013   8.829  10.598  0.1717 -0.4243  0.1170
28148SOL     OW 2435  12.475   6.126   0.868 -0.2892 -0.1819  0.1486
28148SOL    HW1 2436  12.392   6.094   0.902  0.0075 -0.6601  0.4432
28148SOL    HW2 2437  12.514   6.175   0.942 -1.5162  2.4334 -0.8102
28149SOL     OW 2438   4.859   4.580   0.203  0.2244 -0.0496 -0.5516
28149SOL    HW1 2439   4.810   4.657   0.232 -0.4028 -0.7216  0.2451
28149SOL    HW2 2440   4.896   4.605   0.118 -0.4715  0.9045 -0.5909
28150SOL     OW 2441   9.752  10.315  11.988 -0.4356  0.5941  0.0487
28150SOL    HW1 2442   9.761  10.222  12.008 -0.2622  0.5354 -0.2975
28150SOL    HW2 2443   9.720  10.354  12.069 -0.6386  0.2120  0.1519
28151SOL     OW 2444  12.249   7.872  10.678 -0.2144  0.4689 -0.0800
28151SOL    HW1 2445  12.209   7.932  10.740 -1.1449 -0.1683 -0.0442
28151SOL    HW2 2446  12.210   7.787  10.697 -0.4537  0.2344 -1.4681
28152SOL     OW 2447   0.829   2.902  13.120  0.1450 -0.4278  0.3086
28152SOL    HW1 2448   0.895   2.951  13.072  0.2282 -1.0233 -0.1981
28152SOL    HW2 2449   0.764   2.878  13.054 -0.2197 -0.4414  0.6717
28153SOL     OW 2450   5.626  13.480   3.568  0.2621 -0.1807 -0.0582
28153SOL    HW1 2451   5.568  13.411   3.536  2.6971 -3.1263  1.2969
28153SOL    HW2 2452   5.660  13.522   3.489 -0.3718 -1.4117 -1.0065
28154SOL     OW 2453   1.852   9.976   1.599  0.6504 -0.0449  0.3259
28154SOL    HW1 2454   1.891   9.929   1.525  1.0401  0.3359  0.2845
28154SOL    HW2 2455   1.884  10.066   1.589 -1.2646  0.5926 -0.4434
28155SOL     OW 2456   1.969   0.699   9.829 -0.0052 -0.1995  0.7589
28155SOL    HW1 2457   1.887   0.663   9.862 -1.1688  1.4036 -0.1995
28155SOL    HW2 2458   1.944   0.781   9.787  1.7663 -0.6990 -1.5227
28156SOL     OW 2459   0.079   5.975  12.569 -0.0899 -0.2592 -0.0431
28156SOL    HW1 2460   0.096   5.882  12.578  1.6832 -0.5418 -4.0046
28156SOL    HW2 2461  -0.005   5.980  12.523  0.4460 -0.0085 -1.0211
28157SOL     OW 2462  11.741   7.962   9.646  0.4031 -0.7181  0.1241
28157SOL    HW1 2463  11.763   7.986   9.556  0.1418  0.4870  0.3612
28157SOL    HW2 2464  11.785   7.878   9.660  0.9457 -0.6291 -0.9202
28158SOL     OW 2465   3.884   7.114  13.947  0.7060 -0.3409  0.0903
28158SOL    HW1 2466   3.913   7.023  13.956 -1.3169 -1.0191  0.3461
28158SOL    HW2 2467   3.880   7.147  14.037 -0.3808 -0.6323  0.1578
28159SOL     OW 2468   8.096  11.684   2.724 -0.3817  0.6223 -0.3260
28159SOL    HW1 2469   8.033  11.757   2.726  1.0612  1.9217  1.8935
28159SOL    HW2 2470   8.133  11.682   2.813 -1.1997 -3.6537  0.1196
28160SOL     OW 2471   0.420   7.704  10.230  0.5318 -0.5832  0.6921
28160SOL    HW1 2472   0.326   7.696  10.247  0.4949 -2.5896 -0.1436
28160SOL    HW2 2473   0.428   7.698  10.135  1.5525 -1.5232  0.8138
28161SOL     OW 2474   8.099   2.151   2.529 -0.6066 -0.1742  0.3095
28161SOL    HW1 2475   8.067   2.061   2.532  0.9498 -0.8574 -1.4949
28161SOL    HW2 2476   8.052   2.190   2.455  0.2175 -0.1610 -0.2196
28162SOL     OW 2477  12.272   2.952  13.853 -0.3294  0.2442 -0.4630
28162SOL    HW1 2478  12.291   2.927  13.944  1.6947  0.7789 -0.7041
28162SOL    HW2 2479  12.295   2.875  13.802  0.9088  0.7684 -0.7250
28163SOL     OW 2480   6.811  10.351  13.805  0.2617 -0.5666 -0.0861
28163SOL    HW1 2481   6.836  10.265  13.839  0.8161 -0.9965 -1.5019
28163SOL    HW2 2482   6.787  10.334  13.713 -2.2601  0.3505  0.3194
28164SOL     OW 2483   6.204   5.595   8.627 -0.2824 -0.4347  0.0062
28164SOL    HW1 2484   6.289   5.577   8.587 -0.2658  2.1887 -1.2803
28164SOL    HW2 2485   6.225   5.640   8.709 -0.3782  1.5309 -0.9986
28165SOL     OW 2486  11.781   0.095  11.760 -0.5839 -0.1151 -0.6029
28165SOL    HW1 2487  11.855   0.066  11.813 -1.8452 -1.6588  0.4145
28165SOL    HW2 2488  11.782   0.037  11.683 -0.7435 -0.1623 -0.5715
28166SOL     OW 2489   4.568   3.994   1.235 -0.2970  0.5236 -0.0707
28166SOL    HW1 2490   4.535   3.931   1.300 -0.5321  1.6455  0.9273
28166SOL    HW2 2491   4.490   4.044   1.209 -0.0427  0.6751 -0.5427
28167SOL     OW 2492  12.519   7.056   2.802 -0.1007  0.2894 -0.0385
28167SOL    HW1 2493  12.469   7.136   2.786 -1.5983 -0.6108  0.0305
28167SOL    HW2 2494  12.528   7.051   2.897 -1.2836 -0.3728  0.0472
28168SOL     OW 2495   5.878   7.030  11.466  0.1767 -0.6764  0.0616
28168SOL    HW1 2496   5.788   7.023  11.497 -0.0010  0.1109 -0.2693
28168SOL    HW2 2497   5.909   7.114  11.500  0.3376 -0.3096 -0.9708
28169SOL     OW 2498  12.507  12.419  13.668 -0.4837  0.1184 -0.2826
28169SOL    HW1 2499  12.489  12.433  13.761  0.1066 -2.3489  0.2926
28169SOL    HW2 2500  12.541  12.503  13.637 -2.0875  1.4548  1.3204
28170SOL     OW 2501   8.805   6.310   7.332  0.3313  0.4180 -0.3976
28170SOL    HW1 2502   8.824   6.232   7.280  1.5921 -0.2442  0.9600
28170SOL    HW2 2503   8.776   6.375   7.269  3.2246  0.1449 -2.2007
28171SOL     OW 2504   4.044   2.865  11.275 -0.0614 -0.0326  0.3574
28171SOL    HW1 2505   3.999   2.883  11.193 -0.4045 -2.3424 -0.0279
28171SOL    HW2 2506   4.134   2.896  11.261  0.2677 -1.6442 -1.4377
28172SOL     OW 2507  11.346  10.698  13.694  0.4287 -0.5358 -0.5603
28172SOL    HW1 2508  11.259  10.722  13.727  0.7449  0.7109 -0.5896
28172SOL    HW2 2509  11.344  10.602  13.688 -0.7377 -0.5601 -0.0018
28173SOL     OW 2510   7.157  13.691   3.325  0.6666 -0.1503 -0.0112
28173SOL    HW1 2511   7.146  13.604   3.363  0.4804  0.1260  0.5752
28173SOL    HW2 2512   7.165  13.750   3.400  1.8845  0.2104 -0.3970
28174SOL     OW 2513   6.194   4.693  14.135 -0.1858  0.0314  0.7744
28174SOL    HW1 2514   6.130   4.762  14.115  1.0852  1.2550  0.7981
28174SOL    HW2 2515   6.172   4.623  14.074 -1.5873  0.3863  0.8249
28175SOL     OW 2516   4.062   4.450   4.334  0.3293  0.1180 -0.0044
28175SOL    HW1 2517   3.983   4.401   4.311 -1.4585  2.6164  0.3444
28175SOL    HW2 2518   4.127   4.422   4.270 -0.1103 -3.5310  0.9151
28176SOL     OW 2519  11.306   5.508   8.460  0.3743  0.0718 -0.3226
28176SOL    HW1 2520  11.221   5.505   8.415 -0.1909 -1.3213  0.7801
28176SOL    HW2 2521  11.319   5.601   8.480 -2.1610  0.0666  1.7850
28177SOL     OW 2522  11.074   2.894  10.635  0.4108 -0.3918  0.4876
28177SOL    HW1 2523  11.033   2.854  10.711  2.9068 -2.1929  1.0350
28177SOL    HW2 2524  11.163   2.914  10.663  0.9603  0.2755 -1.5251
28178SOL     OW 2525   3.473  14.132   5.794  0.0124  0.4887 -0.4157
28178SOL    HW1 2526   3.420  14.206   5.765 -1.2085 -0.5736 -0.9451
28178SOL    HW2 2527   3.422  14.054   5.772  1.4131 -0.5491 -0.1784
28179SOL     OW 2528  11.463   0.146   8.192 -0.4576 -0.0976 -0.0256
28179SOL    HW1 2529  11.452   0.231   8.150  0.8728  0.7988  1.3473
28179SOL    HW2 2530  11.377   0.104   8.185 -1.6263  2.0433  0.7262
28180SOL     OW 2531  11.066  12.464   5.280 -0.1017 -0.5634  0.0556
28180SOL    HW1 2532  11.125  12.521   5.231  0.3554 -1.1816 -0.1267
28180SOL    HW2 2533  11.088  12.480   5.372  0.3656 -0.8050 -0.0128
28181SOL     OW 2534   3.706  13.248  11.630  0.5701  0.0495  0.2389
28181SOL    HW1 2535   3.781  13.223  11.576 -0.1627  0.3506 -0.9719
28181SOL    HW2 2536   3.742  13.257  11.718  2.5454  2.6533 -0.6964
28182SOL     OW 2537  11.540   7.283   1.472 -0.3697  0.4387  0.5219
28182SOL    HW1 2538  11.617   7.225   1.469 -0.8967 -0.2358 -0.5602
28182SOL    HW2 2539  11.495   7.266   1.390 -1.0435  1.7187  0.6131
28183SOL     OW 2540  11.470  12.193   1.422  0.4981  0.5007 -0.0299
28183SOL    HW1 2541  11.537  12.262   1.421 -0.6833  1.6758  0.1192
28183SOL    HW2 2542  11.391  12.236   1.452 -0.5036 -0.7153 -0.8106
28184SOL     OW 2543   9.891   1.021   9.555  0.1918 -0.4876 -0.2649
28184SOL    HW1 2544   9.964   1.082   9.562 -0.4121  0.3295 -0.8659
28184SOL    HW2 2545   9.867   1.001   9.645  0.5897 -0.0743 -0.0635
28185SOL     OW 2546   3.377  10.932   4.899  0.5762 -0.0058  0.1316
28185SOL    HW1 2547   3.323  10.865   4.857 -0.6836 -0.2771  2.0343
28185SOL    HW2 2548   3.457  10.887   4.925  1.5238  0.2502 -2.1857
28186SOL     OW 2549  12.936   5.711  13.108  0.4181 -0.1675  0.2288
28186SOL    HW1 2550  12.995   5.780  13.076  0.9725 -0.9966 -0.5866
28186SOL    HW2 2551  12.954   5.636  13.052 -0.5042 -0.8472  0.8093
28187SOL     OW 2552   1.139  13.860   0.980  1.1817  0.4479 -0.0487
28187SOL    HW1 2553   1.140  13.772   0.943  1.1871  0.7640 -0.8279
28187SOL    HW2 2554   1.212  13.861   1.042 -0.8888 -1.1633  2.5952
28188SOL     OW 2555  10.939   6.232   4.745 -0.0956 -0.0313 -0.7831
28188SOL    HW1 2556  10.957   6.193   4.830  1.2950  1.3663 -0.3819
28188SOL    HW2 2557  10.989   6.178   4.683 -0.2023 -0.3812 -0.5649
28189SOL     OW 2558  10.368   0.460  13.316 -0.1038 -0.3008  0.3002
28189SOL    HW1 2559  10.375   0.455  13.411 -2.8880  0.4173  0.6569
28189SOL    HW2 2560  10.290   0.408  13.295  1.5234 -2.0572 -1.8651
28190SOL     OW 2561  12.053   3.056   1.442  0.5320  0.0026 -0.2351
28190SOL    HW1 2562  12.040   2.965   1.471  0.0963 -0.3012 -1.3556
28190SOL    HW2 2563  12.096   3.098   1.517  0.8829 -1.1605  0.2484
28191SOL     OW 2564   5.445   5.313   0.585  0.1231 -0.1175 -0.2456
28191SOL    HW1 2565   5.487   5.386   0.631  0.2478  0.3065 -1.0099
28191SOL    HW2 2566   5.352   5.336   0.582  0.4454  1.1752 -2.4876
28192SOL     OW 2567   4.794   4.796   2.838  0.2017 -0.0658  0.1337
28192SOL    HW1 2568   4.883   4.764   2.824  0.5968  0.8449  0.4872
28192SOL    HW2 2569   4.799   4.843   2.921 -0.7432 -0.4786  0.4310
28193SOL     OW 2570  12.477   8.495  13.833  0.1594  0.0146 -0.2106
28193SOL    HW1 2571  12.562   8.510  13.873 -0.6531  0.0230  1.5944
28193SOL    HW2 2572  12.413   8.520  13.900 -1.2779  0.1257 -1.5500
28194SOL     OW 2573   7.579  10.432   9.684  0.2622 -0.0357 -0.3944
28194SOL    HW1 2574   7.603  10.516   9.646  0.3824 -0.7685 -2.0441
28194SOL    HW2 2575   7.596  10.441   9.777  1.8230  1.2265 -0.7723
28195SOL     OW 2576   6.084   3.958   7.576 -0.3007  0.1046  0.8523
28195SOL    HW1 2577   6.033   4.008   7.512 -0.8971  0.3466  1.5024
28195SOL    HW2 2578   6.032   3.879   7.592  0.3781 -0.4869  0.2324
28196SOL     OW 2579  12.200  10.124   0.400  0.1282 -0.3152  0.3293
28196SOL    HW1 2580  12.162  10.096   0.483 -1.6129 -0.0157 -0.3279
28196SOL    HW2 2581  12.205  10.220   0.408  0.5382 -0.3344  0.3148
28197SOL     OW 2582  10.795   2.019   7.163  0.0854 -0.0388  0.0288
28197SOL    HW1 2583  10.763   2.033   7.252 -0.1673 -0.7559  0.0558
28197SOL    HW2 2584  10.717   2.025   7.108  0.1927  0.0957 -0.1091
28198SOL     OW 2585  11.366  13.927   3.636  0.4727  0.1569  0.4077
28198SOL    HW1 2586  11.313  13.967   3.567  0.5764 -0.5915 -0.1175
28198SOL    HW2 2587  11.377  13.836   3.608 -1.5294 -0.8702  2.5471
28199SOL     OW 2588  12.652  13.114  11.263  1.0984  0.0503 -0.3731
28199SOL    HW1 2589  12.650  13.088  11.355  2.1656  1.5033  0.1015
28199SOL    HW2 2590  12.736  13.081  11.230  0.5891 -0.7279 -0.9325
28200SOL     OW 2591   5.118   2.801   1.262 -0.4301 -0.0605 -0.0217
28200SOL    HW1 2592   5.169   2.728   1.297 -0.6228 -0.5862 -0.8010
28200SOL    HW2 2593   5.177   2.842   1.198  0.3185  1.5421  1.6066
28201SOL     OW 2594  13.675  11.472   5.456 -0.2361  0.2925  0.0544
28201SOL    HW1 2595  13.636  11.461   5.369 -1.0304  1.3799  0.2542
28201SOL    HW2 2596  13.739  11.401   5.463  0.8125  0.9532 -1.9475
28202SOL     OW 2597  13.195   7.417   6.211  0.4190  0.1552 -0.4981
28202SOL    HW1 2598  13.231   7.503   6.235 -1.9806  0.9366  0.6388
28202SOL    HW2 2599  13.115   7.410   6.262 -0.3380 -2.0604 -1.8588
28203SOL     OW 2600   4.423   9.658   6.095 -0.4069  0.3335 -0.2691
28203SOL    HW1 2601   4.435   9.747   6.126  1.4768 -0.1950  0.6210
28203SOL    HW2 2602   4.510   9.619   6.096 -1.2757 -1.7759  0.1706
28204SOL     OW 2603  10.851   3.277   1.981 -0.1591 -0.6158  0.0984
28204SOL    HW1 2604  10.871   3.190   2.017 -0.9289 -2.2658 -3.0895
28204SOL    HW2 2605  10.926   3.298   1.927 -0.8731 -0.2775 -0.7788
28205SOL     OW 2606   6.208   6.653   1.656  0.2630  0.5909  0.5473
28205SOL    HW1 2607   6.208   6.735   1.607  1.5940 -0.2156 -0.8761
28205SOL    HW2 2608   6.140   6.600   1.614 -0.5963  0.9187  1.4649
28206SOL     OW 2609  13.980   9.627   1.451  0.2653  0.1640  0.0963
28206SOL    HW1 2610  13.996   9.596   1.361 -2.1325  1.1020 -0.7317
28206SOL    HW2 2611  13.900   9.583   1.478 -0.4629  1.8019  0.7732
28207SOL     OW 2612   9.678   7.537  10.134 -0.5034  0.3244  0.0952
28207SOL    HW1 2613   9.623   7.471  10.092 -2.4044  0.1323  2.6320
28207SOL    HW2 2614   9.658   7.618  10.087 -0.2753 -0.3754 -1.2550
28208SOL     OW 2615   2.974  11.854   9.464 -0.0516  0.4906 -1.0505
28208SOL    HW1 2616   2.985  11.761   9.444 -1.3132  0.3806 -1.3386
28208SOL    HW2 2617   3.058  11.894   9.441  1.1518 -0.8332  0.7770
28209SOL     OW 2618  10.717   9.294   0.478  0.3399  0.3774 -0.0440
28209SOL    HW1 2619  10.682   9.343   0.553  0.0481  1.0808 -0.6279
28209SOL    HW2 2620  10.807   9.325   0.470  0.6297 -0.2872  0.4949
28210SOL     OW 2621   4.249   6.577   5.368  0.0368 -0.3576  0.5302
28210SOL    HW1 2622   4.200   6.616   5.441  1.7039  2.4841  0.2775
28210SOL    HW2 2623   4.323   6.534   5.410  0.2269  0.0419  0.6105
28211SOL     OW 2624  11.405   3.860   5.226 -0.8061 -0.0764 -0.4299
28211SOL    HW1 2625  11.411   3.766   5.244 -0.4909 -0.1185 -0.7416
28211SOL    HW2 2626  11.494   3.893   5.238 -0.8432  0.1150 -0.6633
28212SOL     OW 2627   7.443  11.846   8.498  0.3616  0.2165 -0.4700
28212SOL    HW1 2628   7.420  11.847   8.405 -2.1044 -0.1774  0.0849
28212SOL    HW2 2629   7.466  11.755   8.516  0.2690  0.1724 -0.5691
28213SOL     OW 2630  13.521   4.529   9.115  0.4765 -0.0449 -0.6472
28213SOL    HW1 2631  13.463   4.606   9.119  0.2451 -0.2173 -0.6991
28213SOL    HW2 2632  13.599   4.556   9.165  0.7427  0.5154 -1.3502
28214SOL     OW 2633   4.258   1.755  11.358 -0.6985 -0.1732 -0.2792
28214SOL    HW1 2634   4.293   1.780  11.272  1.4120 -2.2835 -0.1508
28214SOL    HW2 2635   4.322   1.789  11.420 -0.0318 -2.0297  0.1303
28215SOL     OW 2636  11.231  10.291   7.173  0.6431  0.2627  0.4407
28215SOL    HW1 2637  11.274  10.371   7.204  1.0472 -0.2642  1.2909
28215SOL    HW2 2638  11.269  10.276   7.087  2.6833 -0.4996  1.3868
28216SOL     OW 2639   3.600  10.769   7.879 -0.0170  0.8557  0.1478
28216SOL    HW1 2640   3.635  10.822   7.807 -0.2894  0.9673  0.0961
28216SOL    HW2 2641   3.677  10.732   7.921  0.1564  0.9833 -0.0553
28217SOL     OW 2642   3.281  12.656  11.125  0.2438  0.1215 -0.0887
28217SOL    HW1 2643   3.321  12.569  11.125 -0.6247 -0.2847 -0.1978
28217SOL    HW2 2644   3.305  12.694  11.041  1.9733  0.6360  0.5897
28218SOL     OW 2645   6.301   9.063   3.620  0.7371 -0.0232 -0.2264
28218SOL    HW1 2646   6.395   9.079   3.629  0.8090 -0.1249 -0.7336
28218SOL    HW2 2647   6.295   8.998   3.549  0.2160  1.0115 -1.1567
28219SOL     OW 2648  12.983  13.865  13.491 -0.3697 -0.0888 -0.1719
28219SOL    HW1 2649  12.892  13.838  13.485 -0.0275 -0.9867 -1.8469
28219SOL    HW2 2650  13.030  13.787  13.522 -0.3214  0.8169  2.2949
28220SOL     OW 2651   0.034   1.603  10.492 -0.9388  0.3800  0.3286
28220SOL    HW1 2652  -0.037   1.539  10.491 -0.5559 -0.0495 -1.2533
28220SOL    HW2 2653   0.114   1.551  10.491 -0.5998  0.8808  0.5953
28221SOL     OW 2654  12.392  11.419   7.471  0.1591  0.1410 -0.1867
28221SOL    HW1 2655  12.464  11.375   7.517  1.3735  2.2096  0.0069
28221SOL    HW2 2656  12.314  11.369   7.495  1.2137 -0.7940  1.4612
28222SOL     OW 2657   6.423   6.405  13.012  0.1617  0.0921 -0.3067
28222SOL    HW1 2658   6.456   6.410  13.102  0.6810 -0.5748 -0.4572
28222SOL    HW2 2659   6.371   6.325  13.011 -2.1459  1.4891  0.1365
28223SOL     OW 2660   1.601  11.083   9.613  0.0174  0.4367  0.4019
28223SOL    HW1 2661   1.645  11.115   9.691  3.6936  1.2546 -1.7682
28223SOL    HW2 2662   1.643  11.000   9.594 -1.1423  0.0212 -0.5076
28224SOL     OW 2663  13.977  12.737   8.782  0.2285  0.3911 -0.2733
28224SOL    HW1 2664  13.975  12.815   8.837  0.1009  1.7085 -2.0495
28224SOL    HW2 2665  13.890  12.699   8.790  0.6659 -0.3501  1.5814
28225SOL     OW 2666  12.595   7.646  11.506 -0.4452 -0.0792 -0.0367
28225SOL    HW1 2667  12.620   7.693  11.427 -2.2151  0.1900 -0.4687
28225SOL    HW2 2668  12.677   7.609  11.539  0.5075  0.8386 -1.3042
28226SOL     OW 2669   5.380  13.075  13.616  0.3851 -0.1321  0.3058
28226SOL    HW1 2670   5.332  13.126  13.551  1.0528  0.1962  0.0638
28226SOL    HW2 2671   5.312  13.039  13.673 -0.2876 -1.2669 -1.1604
28227SOL     OW 2672   9.433   1.028   0.620  0.3406  0.7841 -0.3322
28227SOL    HW1 2673   9.366   0.985   0.567 -0.2354  0.9216  0.2715
28227SOL    HW2 2674   9.385   1.061   0.696  1.1695  0.5177  0.3128
28228SOL     OW 2675   6.649   3.901  12.576  0.2377 -0.3793  0.6352
28228SOL    HW1 2676   6.615   3.873  12.491  0.8062  1.5851 -0.3050
28228SOL    HW2 2677   6.575   3.945  12.618  0.5850  0.6812  0.1527
28229SOL     OW 2678   6.402   4.706  13.405  0.0186 -0.4341  0.5749
28229SOL    HW1 2679   6.329   4.758  13.372  0.5537  0.0973  0.2054
28229SOL    HW2 2680   6.415   4.638  13.339 -0.7177 -1.1033  1.0862
28230SOL     OW 2681   9.683   6.355  11.781  0.2875  0.7644  0.0524
28230SOL    HW1 2682   9.597   6.336  11.743  1.3527 -0.1785 -2.0231
28230SOL    HW2 2683   9.682   6.450  11.795 -1.5594  0.6111  1.3805
28231SOL     OW 2684   0.042   6.042  10.208 -0.3657 -0.0721 -0.0047
28231SOL    HW1 2685   0.094   6.085  10.140  0.3822  0.3790  0.8277
28231SOL    HW2 2686  -0.034   6.100  10.220  0.3077  0.7079  0.6495
28232SOL     OW 2687  10.232   1.563   9.214 -0.4231  0.3650  0.2433
28232SOL    HW1 2688  10.186   1.634   9.170 -1.2425  0.3496  1.0512
28232SOL    HW2 2689  10.168   1.527   9.275  0.3048 -0.4010  0.5713
28233SOL     OW 2690   6.714  10.627  11.154  0.0712 -0.1014  0.2096
28233SOL    HW1 2691   6.719  10.713  11.195 -0.0536 -0.6803  1.4846
28233SOL    HW2 2692   6.650  10.637  11.084  1.5632  1.3500 -1.0165
28234SOL     OW 2693   9.075   1.205  12.252  0.4919  0.6213  0.3154
28234SOL    HW1 2694   9.072   1.124  12.201 -1.0873 -0.5979  2.1970
28234SOL    HW2 2695   8.983   1.226  12.269  0.9228  2.1055  0.9661
28235SOL     OW 2696  13.448  11.581   0.278  0.0564 -0.0589  0.0892
28235SOL    HW1 2697  13.437  11.637   0.201  0.0793 -1.5666 -1.0585
28235SOL    HW2 2698  13.495  11.635   0.341 -1.9518  2.0159 -0.0365
28236SOL     OW 2699   2.843  11.643   0.135 -0.0998 -0.1909  0.0277
28236SOL    HW1 2700   2.789  11.721   0.142 -0.3049 -0.1645 -1.5429
28236SOL    HW2 2701   2.920  11.662   0.188 -0.3797  0.8780  0.0712
28237SOL     OW 2702  12.972  13.179   8.312 -0.0639  0.6459  0.1638
28237SOL    HW1 2703  13.044  13.236   8.285 -0.1983  0.1397 -1.3631
28237SOL    HW2 2704  12.893  13.232   8.299 -0.2751 -0.1080 -2.1842
28238SOL     OW 2705  10.015  10.685  11.893  0.6654 -0.2316  0.0195
28238SOL    HW1 2706  10.040  10.601  11.856  0.3231 -0.4933  0.3745
28238SOL    HW2 2707   9.983  10.736  11.819  0.1596 -0.6839 -0.0802
28239SOL     OW 2708  11.338  13.973   6.876  0.3119 -0.2291 -0.3372
28239SOL    HW1 2709  11.342  13.981   6.780 -0.0205 -2.6870 -0.6281
28239SOL    HW2 2710  11.395  13.898   6.895  1.1334  0.8080  1.5334
28240SOL     OW 2711  11.173  10.799   0.095  0.3308 -0.1648 -0.3325
28240SOL    HW1 2712  11.093  10.757   0.126  0.4882 -0.2405 -0.0257
28240SOL    HW2 2713  11.237  10.784   0.165  0.7069 -0.3866 -0.7206
28241SOL     OW 2714   8.848  10.575  12.292 -0.4566  0.4231  0.6070
28241SOL    HW1 2715   8.761  10.538  12.276  0.9315 -2.1230 -1.8135
28241SOL    HW2 2716   8.893  10.510  12.346 -0.1341  1.9337  2.2423
28242SOL     OW 2717  10.005   0.996  11.948 -0.7098 -0.3639 -0.0600
28242SOL    HW1 2718  10.098   0.973  11.940 -0.4306 -0.0256  1.7467
28242SOL    HW2 2719  10.005   1.090  11.964 -1.3835 -0.3221 -0.2923
28243SOL     OW 2720  12.803  14.019   9.323 -0.0381 -0.1667  0.2431
28243SOL    HW1 2721  12.823  14.111   9.343 -0.0104 -0.3681  1.1697
28243SOL    HW2 2722  12.764  13.985   9.403 -0.4414 -0.8548 -0.2409
28244SOL     OW 2723  12.976  11.530   9.880  0.4415  0.1953  0.5555
28244SOL    HW1 2724  13.019  11.615   9.870  1.8071 -0.5804 -0.7135
28244SOL    HW2 2725  13.049  11.468   9.885 -0.5354 -0.9738  0.5815
28245SOL     OW 2726   0.611  10.458  13.381  0.6348 -0.1713  0.1650
28245SOL    HW1 2727   0.551  10.532  13.375 -0.0230 -0.6631  0.5573
28245SOL    HW2 2728   0.612  10.420  13.293  1.7487  0.8866 -0.2991
28246SOL     OW 2729  13.515   6.456   0.084 -0.1491  0.1288  0.6280
28246SOL    HW1 2730  13.469   6.539   0.076  0.4268  0.3686 -0.4055
28246SOL    HW2 2731  13.556   6.443  -0.002  0.3252 -0.8879  0.9905
28247SOL     OW 2732   5.003   0.688   1.847  0.3298 -0.5834 -0.0508
28247SOL    HW1 2733   4.989   0.608   1.795  0.5939 -1.0337  0.5623
28247SOL    HW2 2734   4.981   0.759   1.787  2.6106 -0.9812 -1.4656
28248SOL     OW 2735   0.592   9.085   8.307  0.1159 -0.0927 -0.1089
28248SOL    HW1 2736   0.565   9.041   8.226 -0.2762  1.2010 -0.7014
28248SOL    HW2 2737   0.677   9.124   8.286 -0.0943  0.4453  0.0279
28249SOL     OW 2738   2.875   2.553   1.649  0.2517  0.2158  0.5011
28249SOL    HW1 2739   2.923   2.492   1.705 -0.2368  0.8664  1.6564
28249SOL    HW2 2740   2.943   2.597   1.598  0.5247 -3.8677 -3.2733
28250SOL     OW 2741   3.900   1.986   1.464  0.0522  0.2042 -0.0737
28250SOL    HW1 2742   3.916   1.893   1.447  1.4450  0.4520 -0.2058
28250SOL    HW2 2743   3.859   2.019   1.384 -1.8216 -0.5887  0.5091
28251SOL     OW 2744   9.567  12.965   9.988  0.4615  0.4170  0.3118
28251SOL    HW1 2745   9.504  13.030   9.957  0.3012  0.4020  0.6040
28251SOL    HW2 2746   9.641  13.016  10.021  1.0330  0.4138 -0.9325
28252SOL     OW 2747   3.291   0.443   6.761 -0.3219 -0.4969  0.2563
28252SOL    HW1 2748   3.220   0.495   6.800 -0.0246 -1.5352  2.3123
28252SOL    HW2 2749   3.275   0.354   6.791  1.1358 -0.9776 -0.2987
28253SOL     OW 2750  11.069   9.773  13.163  0.0406 -0.5026 -0.4514
28253SOL    HW1 2751  11.117   9.691  13.156 -0.8391 -0.9615 -1.3892
28253SOL    HW2 2752  11.008   9.759  13.236 -0.1985 -0.7391 -0.6929
28254SOL     OW 2753  12.343   4.241   7.617 -0.1414 -0.0205 -0.4348
28254SOL    HW1 2754  12.423   4.208   7.658  0.2490 -0.8855 -1.8078
28254SOL    HW2 2755  12.281   4.169   7.624 -0.4491  0.2577 -0.3042
28255SOL     OW 2756  10.794   2.495   5.599  0.1535  0.0369  0.4283
28255SOL    HW1 2757  10.841   2.578   5.594  3.3260 -1.3801  2.8919
28255SOL    HW2 2758  10.788   2.476   5.693 -0.8989 -2.2756 -0.0339
28256SOL     OW 2759   2.985   6.132   8.761 -0.2629  0.1329 -0.5135
28256SOL    HW1 2760   2.897   6.167   8.768 -0.2186  0.7383 -2.4950
28256SOL    HW2 2761   3.040   6.196   8.808 -0.8541 -0.3156  0.8370
28257SOL     OW 2762   2.924   5.753  12.587  0.6464 -0.1653 -0.4926
28257SOL    HW1 2763   2.865   5.712  12.524 -0.9803  0.1165  0.7892
28257SOL    HW2 2764   2.965   5.825  12.538 -1.1871  0.5602 -1.0464
28258SOL     OW 2765   9.321   0.056   0.989 -0.0771 -0.2850  0.1187
28258SOL    HW1 2766   9.245   0.101   0.953  0.3880  0.9762  0.6310
28258SOL    HW2 2767   9.291  -0.033   1.005 -1.2030 -0.0268 -0.4413
28259SOL     OW 2768   2.216   8.372   9.995 -0.2761 -0.0927 -0.3110
28259SOL    HW1 2769   2.286   8.316   9.960  0.2334  0.6623 -0.5104
28259SOL    HW2 2770   2.169   8.403   9.918  1.4911  2.4221 -0.4923
28260SOL     OW 2771  12.567   7.950   0.336  0.8753 -0.2250 -0.1685
28260SOL    HW1 2772  12.571   7.885   0.406 -0.6208  0.5257  0.6597
28260SOL    HW2 2773  12.499   8.011   0.364 -0.1311 -0.1839 -2.5184
28261SOL     OW 2774   4.331   1.853  11.099  0.4282 -0.2215 -0.3471
28261SOL    HW1 2775   4.258   1.806  11.059 -1.1249 -0.1178  2.2015
28261SOL    HW2 2776   4.362   1.911  11.029 -0.4910 -1.7622 -2.1514
28262SOL     OW 2777  13.066   8.501   3.055  0.3834  0.2504 -0.5991
28262SOL    HW1 2778  13.070   8.581   3.003  0.0582  0.8550  0.2657
28262SOL    HW2 2779  13.090   8.530   3.144  0.2922 -0.6148 -0.2872
28263SOL     OW 2780   2.641   1.778  10.426 -0.5134 -0.3949 -0.1640
28263SOL    HW1 2781   2.558   1.821  10.405 -0.5665 -0.6644 -0.5285
28263SOL    HW2 2782   2.637   1.760  10.519  0.3316  2.1624  0.4525
28264SOL     OW 2783   5.074   0.627   3.286 -0.0839 -1.0566 -0.1005
28264SOL    HW1 2784   5.016   0.653   3.358  0.8402  0.0215  0.2998
28264SOL    HW2 2785   5.015   0.596   3.217 -1.2397  1.0350 -0.1360
28265SOL     OW 2786   7.602  11.549   8.384 -0.9040 -0.3015 -0.3177
28265SOL    HW1 2787   7.523  11.516   8.342 -2.2559  1.6546  0.5146
28265SOL    HW2 2788   7.576  11.563   8.475  0.8357 -0.9009  0.3025
28266SOL     OW 2789   3.542  12.790  11.793  0.0015  0.2530 -0.1490
28266SOL    HW1 2790   3.573  12.735  11.865  1.2759 -0.2856 -1.0641
28266SOL    HW2 2791   3.596  12.869  11.798  0.9413 -0.2870 -1.1795
28267SOL     OW 2792   3.401   9.650  10.118  0.4508  0.3473 -0.3681
28267SOL    HW1 2793   3.392   9.595  10.040 -0.1855 -1.6721  1.0457
28267SOL    HW2 2794   3.363   9.598  10.188 -1.5732  3.2447  0.8569
28268SOL     OW 2795  12.761  12.194   0.571 -0.1913 -0.2847 -0.0135
28268SOL    HW1 2796  12.727  12.270   0.618  0.8468  0.6817 -0.7527
28268SOL    HW2 2797  12.854  12.192   0.594  0.4397  0.4531 -2.2574
28269SOL     OW 2798   3.841  12.020   5.084 -0.2233 -0.3292 -0.0676
28269SOL    HW1 2799   3.773  12.039   5.148 -1.8252 -2.9447 -0.8097
28269SOL    HW2 2800   3.881  11.939   5.116  1.0663  0.0055 -0.7832
28270SOL     OW 2801   1.936  13.035   3.761 -0.3760  0.5613 -0.0240
28270SOL    HW1 2802   1.906  13.027   3.671  2.3263  0.0284 -0.9707
28270SOL    HW2 2803   1.958  12.945   3.787 -4.4625  0.0531  2.5693
28271SOL     OW 2804   2.117   3.230  13.849  0.9708  0.0028  0.7943
28271SOL    HW1 2805   2.106   3.205  13.757 -1.1692  1.7692  0.4658
28271SOL    HW2 2806   2.179   3.303  13.847  1.1885 -0.1800  0.8075
28272SOL     OW 2807  10.229   6.776   1.368 -0.3358 -0.2575  0.2209
28272SOL    HW1 2808  10.219   6.803   1.460 -0.6368 -1.2299  0.4932
28272SOL    HW2 2809  10.271   6.850   1.325 -0.8777  0.5101  0.9849
28273SOL     OW 2810  11.726   8.369  12.864 -0.2102 -0.7570  0.0732
28273SOL    HW1 2811  11.637   8.400  12.881  0.5366  1.3063  0.5768
28273SOL    HW2 2812  11.757   8.425  12.792  0.4965 -1.8513 -0.4994
28274SOL     OW 2813  10.474   2.446   2.415  0.0868  0.3932  0.0518
28274SOL    HW1 2814  10.558   2.402   2.433 -0.2747 -0.2252  0.2540
28274SOL    HW2 2815  10.415   2.414   2.483 -1.1003 -1.3864 -1.6833
28275SOL     OW 2816  11.715   5.660   1.517  0.1998 -0.0347 -0.2933
28275SOL    HW1 2817  11.722   5.583   1.461 -2.0819 -0.4464 -0.1277
28275SOL    HW2 2818  11.665   5.630   1.593 -0.8939  1.6162 -0.3076
28276SOL     OW 2819   6.305  10.881   2.357 -0.0923 -0.3330  0.0859
28276SOL    HW1 2820   6.250  10.958   2.350  1.2362  0.5494 -1.1839
28276SOL    HW2 2821   6.373  10.905   2.421 -0.1692 -0.7769  0.3435
28277SOL     OW 2822   7.087  10.931   7.495  0.2955  0.7061  0.4254
28277SOL    HW1 2823   7.008  10.887   7.526 -0.7232  1.8710 -0.3798
28277SOL    HW2 2824   7.150  10.921   7.566  0.0632 -1.7910  0.3646
28278SOL     OW 2825   2.246   8.961  13.269  0.4295 -0.1232  0.0135
28278SOL    HW1 2826   2.176   9.023  13.291 -0.7397 -1.4754  0.2325
28278SOL    HW2 2827   2.298   9.006  13.203 -1.7161  0.2443 -1.5242
28279SOL     OW 2828   5.380   1.729  11.746  0.2778  0.4683  0.3369
28279SOL    HW1 2829   5.314   1.726  11.677  1.7419 -2.5574 -1.1391
28279SOL    HW2 2830   5.392   1.822  11.764 -0.0281  1.4674 -3.6755
28280SOL     OW 2831   0.540   9.324   4.912 -0.1326 -0.0493  0.1741
28280SOL    HW1 2832   0.606   9.302   4.847  0.5306 -0.8265  1.0909
28280SOL    HW2 2833   0.589   9.337   4.993 -0.7482  2.4437  0.2332
28281SOL     OW 2834   8.232   3.165   4.148  0.9399  0.0566 -0.5579
28281SOL    HW1 2835   8.272   3.080   4.169 -0.7983 -0.4306  1.0323
28281SOL    HW2 2836   8.186   3.151   4.065 -1.3443 -1.3457  0.8493
28282SOL     OW 2837   4.578  11.792   9.421  0.0116 -0.0420  1.0711
28282SOL    HW1 2838   4.631  11.713   9.430 -2.7789 -2.2370 -0.0325
28282SOL    HW2 2839   4.539  11.785   9.334 -0.7820  2.2745  1.1737
28283SOL     OW 2840  13.988   2.958   6.664  0.4410 -0.1298  0.1205
28283SOL    HW1 2841  14.012   2.967   6.571 -0.6265 -0.3591 -0.1979
28283SOL    HW2 2842  13.897   2.928   6.662 -0.0535  1.1893  1.2487
28284SOL     OW 2843   0.417  12.714   0.225 -0.0975  0.5321 -0.0398
28284SOL    HW1 2844   0.478  12.778   0.261  0.5972  0.1347 -0.4983
28284SOL    HW2 2845   0.461  12.679   0.147  0.6651 -2.3418  1.5471
28285SOL     OW 2846   3.319   9.910   4.586 -0.1961  0.2526  0.5670
28285SOL    HW1 2847   3.276   9.987   4.549  0.1310 -0.3824 -1.2187
28285SOL    HW2 2848   3.378   9.879   4.517 -1.6817 -2.7010  0.4381
28286SOL     OW 2849   5.792   8.184   9.531 -0.0788  0.4738  0.0683
28286SOL    HW1 2850   5.777   8.153   9.620  2.5024 -0.6950  0.1523
28286SOL    HW2 2851   5.787   8.280   9.538  0.6839  0.4276  1.5975
28287SOL     OW 2852   7.307   8.105   0.894  0.3796  0.0329  0.2332
28287SOL    HW1 2853   7.329   8.035   0.956 -0.7961  0.0647  0.7015
28287SOL    HW2 2854   7.213   8.116   0.902  0.2656  0.3472 -1.2639
28288SOL     OW 2855  11.616  12.360  14.105  0.3855  0.4484  0.2118
28288SOL    HW1 2856  11.603  12.372  14.011  1.9309 -0.3734 -0.1443
28288SOL    HW2 2857  11.682  12.425  14.129 -0.0184  0.6716  0.7467
28289SOL     OW 2858  12.059   7.841  12.542 -0.1817 -0.0980 -0.4588
28289SOL    HW1 2859  12.021   7.927  12.559 -0.7688  0.2790 -3.1949
28289SOL    HW2 2860  12.153   7.854  12.556 -0.0409  1.5273 -2.4261
28290SOL     OW 2861  10.559  12.364   7.015  0.0087 -0.0723  0.1777
28290SOL    HW1 2862  10.553  12.459   7.023 -0.1208 -0.0140 -0.5961
28290SOL    HW2 2863  10.636  12.341   7.067  0.9385  0.6182 -0.8597
28291SOL     OW 2864   3.447  13.653  12.967  0.2199  0.2363 -0.0802
28291SOL    HW1 2865   3.400  13.671  13.048  0.4782  1.1388 -0.1248
28291SOL    HW2 2866   3.488  13.736  12.943  2.5930 -0.6955  0.4371
28292SOL     OW 2867   1.195   3.434   4.146  0.0783 -0.3009  0.9451
28292SOL    HW1 2868   1.170   3.376   4.217 -1.1272 -0.7265  0.2154
28292SOL    HW2 2869   1.113   3.478   4.121  1.1127  2.5805  2.1749
28293SOL     OW 2870   5.467   9.775  11.494  0.3723  0.1573 -0.1425
28293SOL    HW1 2871   5.486   9.862  11.461 -0.2695  0.3898  0.0849
28293SOL    HW2 2872   5.397   9.742  11.437  0.2808 -0.0196  0.0692
28294SOL     OW 2873   1.627   0.771   6.281 -0.1647 -0.4526 -0.0897
28294SOL    HW1 2874   1.599   0.836   6.345 -2.1636 -1.0206 -0.3000
28294SOL    HW2 2875   1.655   0.822   6.205  0.5781  0.1859  0.6028
28295SOL     OW 2876  11.831  12.814  11.914 -0.1104 -0.1568  0.1914
28295SOL    HW1 2877  11.900  12.847  11.856  0.1571  0.5500  0.8911
28295SOL    HW2 2878  11.818  12.723  11.887  1.3952 -0.4339  0.3143
28296SOL     OW 2879  10.533   8.912   1.583 -0.1638  0.1327  0.1579
28296SOL    HW1 2880  10.535   8.840   1.520  1.2851 -0.0628  0.3997
28296SOL    HW2 2881  10.577   8.879   1.660 -0.2873  0.9860  0.6107
28297SOL     OW 2882   4.284  11.789   4.378  0.0335 -0.2695  0.3255
28297SOL    HW1 2883   4.340  11.712   4.388 -0.5092 -0.7069  0.0638
28297SOL    HW2 2884   4.199  11.754   4.353  0.8745  0.5404 -4.7883
28298SOL     OW 2885   0.321   1.714  12.646 -0.3215 -0.4488  0.1817
28298SOL    HW1 2886   0.310   1.701  12.741  0.6192 -3.0220  0.0203
28298SOL    HW2 2887   0.245   1.671  12.607 -0.4033  0.0941 -0.2735
28299SOL     OW 2888   2.055   9.419  13.761  0.1474  0.4397 -0.3634
28299SOL    HW1 2889   2.088   9.508  13.773  0.4794  0.0649  1.8624
28299SOL    HW2 2890   2.119   9.363  13.805 -1.7603 -0.5941  1.2526
28300SOL     OW 2891   8.987  11.194   7.378  0.0332 -1.1009  0.0283
28300SOL    HW1 2892   9.017  11.210   7.467  0.4167  0.4311 -0.3495
28300SOL    HW2 2893   8.970  11.100   7.375 -0.5366 -1.1006  1.8694
28301SOL     OW 2894   0.693   3.004   3.009 -0.4476  0.5408 -0.1264
28301SOL    HW1 2895   0.619   3.064   2.994 -1.5023 -0.0690  2.2012
28301SOL    HW2 2896   0.739   3.042   3.084 -0.8245 -1.2399  1.0518
28302SOL     OW 2897   6.579   4.357  10.572  0.3932  0.1801  0.2979
28302SOL    HW1 2898   6.629   4.285  10.533 -0.2955 -0.0748 -0.1301
28302SOL    HW2 2899   6.577   4.337  10.665 -1.0823 -1.1855  0.0118
28303SOL     OW 2900  10.084   5.428  11.377 -0.2180 -0.2018  0.6079
28303SOL    HW1 2901  10.161   5.444  11.322 -1.2536  0.5475 -0.6693
28303SOL    HW2 2902  10.114   5.449  11.466  1.1176 -0.1508  0.1727
28304SOL     OW 2903   3.609   9.689   3.689 -0.1356  0.2501 -0.4066
28304SOL    HW1 2904   3.577   9.743   3.617  1.3438 -0.9917 -2.0807
28304SOL    HW2 2905   3.594   9.599   3.659  1.6035 -0.2980  0.2952
28305SOL     OW 2906   5.326   0.443   8.349 -0.1663  0.7069  0.1197
28305SOL    HW1 2907   5.397   0.386   8.380 -0.4767 -0.7827 -1.7199
28305SOL    HW2 2908   5.361   0.484   8.270 -1.2676 -0.0042 -0.7849
28306SOL     OW 2909  10.103  12.213   7.602  0.1168  0.1329 -0.3179
28306SOL    HW1 2910  10.046  12.288   7.583  2.2380  1.7340 -0.6460
28306SOL    HW2 2911  10.168  12.247   7.663 -0.5023 -2.2415  1.8521
28307SOL     OW 2912   6.909   6.242   9.748  0.3362 -0.6056  0.1061
28307SOL    HW1 2913   6.868   6.163   9.714 -0.5168  0.4279 -1.4287
28307SOL    HW2 2914   6.846   6.278   9.810 -1.4789  1.1660 -2.5016
28308SOL     OW 2915   8.459   2.376   1.132 -0.0494 -0.2776 -0.2333
28308SOL    HW1 2916   8.470   2.316   1.206 -1.5991  0.0593  0.3062
28308SOL    HW2 2917   8.384   2.341   1.083 -0.5733  0.8292 -0.2672
28309SOL     OW 2918   3.711  12.164   9.943 -0.3905  0.3830  0.1471
28309SOL    HW1 2919   3.624  12.151   9.980  0.1969 -2.6649  0.7102
28309SOL    HW2 2920   3.707  12.125   9.856  0.7113 -1.0950  0.7053
28310SOL     OW 2921  10.705   1.416  13.868 -0.1249  0.1676 -0.9480
28310SOL    HW1 2922  10.737   1.334  13.904  0.0822  1.0238  0.9344
28310SOL    HW2 2923  10.724   1.411  13.775 -0.0945 -1.8891 -0.8582
28311SOL     OW 2924   8.331   2.799  14.131 -0.0226  0.2014 -0.5132
28311SOL    HW1 2925   8.407   2.746  14.109  0.6842  0.8966  0.1906
28311SOL    HW2 2926   8.365   2.866  14.189 -1.1234  0.7145 -0.4417
28312SOL     OW 2927  13.391   7.516   7.329 -0.0781 -0.1020  0.7868
28312SOL    HW1 2928  13.447   7.593   7.342  2.6208 -1.7300 -0.4029
28312SOL    HW2 2929  13.386   7.475   7.416 -0.8088  0.9024  1.2405
28313SOL     OW 2930   4.018  13.081   1.700 -0.7660  0.4186  0.1003
28313SOL    HW1 2931   3.976  13.155   1.655 -1.6217 -0.8005 -1.2004
28313SOL    HW2 2932   3.961  13.006   1.682  1.1568 -1.0057 -0.4042
28314SOL     OW 2933  11.515   8.211   3.364 -0.0836 -0.6544  0.0863
28314SOL    HW1 2934  11.566   8.179   3.439 -1.3255 -2.6969  0.1245
28314SOL    HW2 2935  11.573   8.275   3.322  1.9768 -1.8629  0.9134
28315SOL     OW 2936   9.285   0.132   7.451  0.2160  0.1505 -0.1250
28315SOL    HW1 2937   9.308   0.053   7.500 -0.7057  0.7022  1.2290
28315SOL    HW2 2938   9.365   0.153   7.402  0.6243 -1.3450 -0.1619
28316SOL     OW 2939   9.597  14.147   4.478  0.0748 -0.4949 -0.4543
28316SOL    HW1 2940   9.622  14.219   4.419  1.5832 -0.8774 -0.3133
28316SOL    HW2 2941   9.592  14.070   4.421  0.1663 -0.5978 -0.3239
28317SOL     OW 2942   2.126  12.525   6.344 -0.1576  0.0604  0.6611
28317SOL    HW1 2943   2.088  12.611   6.366  0.1581  0.2694  0.3995
28317SOL    HW2 2944   2.122  12.522   6.248  1.8600  0.7341  0.5024
28318SOL     OW 2945  12.903  11.954   9.765  0.4918 -0.1560  0.2107
28318SOL    HW1 2946  12.982  11.990   9.806  0.9908 -0.8160 -0.1522
28318SOL    HW2 2947  12.935  11.886   9.706 -0.3898 -0.8227  0.4796
28319SOL     OW 2948   8.681   0.605   7.583  0.1672 -0.0978 -0.2853
28319SOL    HW1 2949   8.770   0.625   7.612  0.1966  0.2445 -0.6115
28319SOL    HW2 2950   8.689   0.593   7.488 -0.4184  1.6116 -0.5807
28320SOL     OW 2951  12.927  11.465   2.595 -0.1366  0.4353  0.1463
28320SOL    HW1 2952  12.885  11.494   2.514 -0.8722 -0.0908  0.3293
28320SOL    HW2 2953  13.020  11.465   2.575 -0.4154 -2.2728 -1.5830
28321SOL     OW 2954   8.228   5.071  13.134  0.1302 -0.7250 -0.1129
28321SOL    HW1 2955   8.303   5.118  13.097  0.3205 -1.3291 -0.5101
28321SOL    HW2 2956   8.194   5.019  13.061  0.4346 -1.8463  0.5313
28322SOL     OW 2957   3.234   9.690   8.896 -0.0613  0.4103 -0.3913
28322SOL    HW1 2958   3.232   9.606   8.941  0.2887 -0.4810 -1.9621
28322SOL    HW2 2959   3.328   9.709   8.884 -0.1067 -0.3280 -2.3583
28323SOL     OW 2960  12.814  13.123   6.422  0.3273  0.0300  0.5406
28323SOL    HW1 2961  12.885  13.137   6.484 -0.7740  1.3035  1.5781
28323SOL    HW2 2962  12.739  13.170   6.460 -0.5629  0.3203 -1.4266
28324SOL     OW 2963  12.204  12.746  12.010  0.1477 -0.5791  0.1744
28324SOL    HW1 2964  12.148  12.669  12.001  1.1649 -1.2674 -0.4121
28324SOL    HW2 2965  12.291  12.711  12.028  0.6294  0.4264 -0.1104
28325SOL     OW 2966   3.119  14.151   9.857 -0.4825  0.0855 -0.5463
28325SOL    HW1 2967   3.161  14.086   9.801  1.1388  0.0127  0.6937
28325SOL    HW2 2968   3.115  14.230   9.804  1.0912  0.0421 -0.7664
28326SOL     OW 2969  12.477  10.684  11.950  0.3249 -0.4559 -0.4353
28326SOL    HW1 2970  12.535  10.722  11.883 -0.6355  0.2075 -0.8998
28326SOL    HW2 2971  12.402  10.651  11.900  0.2060 -1.1414  0.1865
28327SOL     OW 2972   5.080  12.097   5.563 -0.2107 -0.5024 -0.0738
28327SOL    HW1 2973   5.131  12.027   5.521  1.2620  0.2716  0.3477
28327SOL    HW2 2974   5.007  12.113   5.504  0.3301 -1.2800 -0.9845
28328SOL     OW 2975   1.263  13.738   8.203 -0.0281 -0.4513 -0.0459
28328SOL    HW1 2976   1.341  13.684   8.213 -0.5529 -1.7531 -2.2727
28328SOL    HW2 2977   1.243  13.734   8.109 -1.9066  1.0733  0.2329
28329SOL     OW 2978   2.328   5.390   6.715  0.0653 -0.2804  0.0267
28329SOL    HW1 2979   2.240   5.400   6.679 -0.5090  0.0325  1.4357
28329SOL    HW2 2980   2.369   5.475   6.701 -0.6843  0.3458  1.3938
28330SOL     OW 2981  10.605  11.315   0.941  0.2443  0.0229  0.0467
28330SOL    HW1 2982  10.689  11.295   0.899  0.5536  1.1539  0.1095
28330SOL    HW2 2983  10.608  11.269   1.025  0.5292 -0.4608 -0.2225
28331SOL     OW 2984  10.041   0.494   2.982 -0.2689 -0.0049 -0.1082
28331SOL    HW1 2985  10.061   0.549   2.906  1.4243  0.4702  0.6102
28331SOL    HW2 2986  10.070   0.546   3.057  2.3046 -2.1579  0.5654
28332SOL     OW 2987   8.272   2.830  10.686  0.5770  0.0488 -0.0884
28332SOL    HW1 2988   8.324   2.882  10.625  0.8100 -0.5106 -0.3744
28332SOL    HW2 2989   8.326   2.824  10.765  0.8796 -0.3772 -0.3203
28333SOL     OW 2990   2.124   1.629   4.510 -0.3004 -0.4555  0.5844
28333SOL    HW1 2991   2.119   1.553   4.567  0.0864 -1.4528 -0.6715
28333SOL    HW2 2992   2.218   1.647   4.503 -0.4217  0.9068  1.8069
28334SOL     OW 2993   5.034   5.751  13.775  0.0073 -0.1453  0.8916
28334SOL    HW1 2994   4.959   5.765  13.833 -0.0227  1.5939  0.4658
28334SOL    HW2 2995   4.997   5.718  13.694 -0.2072 -0.0989  0.9711
28335SOL     OW 2996   0.351   6.133   0.730 -0.3648 -0.1051  0.4244
28335SOL    HW1 2997   0.314   6.156   0.815 -0.8191 -0.0192  0.2058
28335SOL    HW2 2998   0.287   6.072   0.692  0.5935 -1.4066  0.8137
28336SOL     OW 2999   9.579   6.612   9.024  0.1383 -0.1087  0.1880
28336SOL    HW1 3000   9.603   6.540   8.966 -0.1071  0.4632 -0.6409
28336SOL    HW2 3001   9.484   6.612   9.025  0.1303  0.4137 -0.0932
28337SOL     OW 3002   3.079  12.236   7.479 -0.2205  0.4630 -0.3151
28337SOL    HW1 3003   3.163  12.193   7.468 -0.5876 -0.6332  0.8753
28337SOL    HW2 3004   3.020  12.192   7.418 -0.0854  0.7763 -0.6712
28338SOL     OW 3005  12.113   8.147   3.049 -0.0864 -0.1187 -0.3787
28338SOL    HW1 3006  12.070   8.195   3.120 -0.8522  0.0408 -0.9339
28338SOL    HW2 3007  12.104   8.204   2.973  1.6900  0.1997 -0.3722
28339SOL     OW 3008   0.644   8.629   5.955  0.2922  0.2303 -0.5055
28339SOL    HW1 3009   0.691   8.550   5.982 -1.3974  0.2568  3.1531
28339SOL    HW2 3010   0.677   8.698   6.013 -0.5173  1.4789 -1.4784
28340SOL     OW 3011   1.545   9.488   7.105 -0.4801  0.1691  0.1843
28340SOL    HW1 3012   1.504   9.537   7.177  1.7731 -0.2027  1.8419
28340SOL    HW2 3013   1.522   9.397   7.122  0.6614 -0.0015  0.9151
28341SOL     OW 3014  11.122  10.073   9.715  0.0397  0.0818  0.0709
28341SOL    HW1 3015  11.214  10.054   9.730  0.2839  0.5601 -0.7627
28341SOL    HW2 3016  11.081  10.066   9.801  1.0520  0.9691  0.6429
28342SOL     OW 3017  13.461   4.046  11.226 -0.2400 -0.2475  1.1200
28342SOL    HW1 3018  13.379   4.074  11.183 -0.6493  0.5585  2.3769
28342SOL    HW2 3019  13.464   3.952  11.213 -0.6295 -0.0975 -0.1937
28343SOL     OW 3020   7.809   0.688  11.700 -0.0429 -0.1489  0.5636
28343SOL    HW1 3021   7.749   0.666  11.628 -0.5112 -1.8845  1.4349
28343SOL    HW2 3022   7.896   0.666  11.666 -0.1074  0.3297  0.0683
28344SOL     OW 3023  12.625   4.295  11.506 -1.1121  0.1616 -0.0980
28344SOL    HW1 3024  12.627   4.203  11.479 -0.1443  0.7569 -2.3449
28344SOL    HW2 3025  12.603   4.342  11.425 -1.2247  1.9231  0.9234
28345SOL     OW 3026   4.416  10.873   7.365  0.4064 -0.4972 -0.0268
28345SOL    HW1 3027   4.470  10.794   7.378  2.0309  0.8992  2.3027
28345SOL    HW2 3028   4.479  10.942   7.348 -1.0202  0.3329 -2.5307
28346SOL     OW 3029  10.078  10.076   3.398 -0.8199  0.1737  0.1957
28346SOL    HW1 3030  10.091  10.169   3.417 -1.3606 -0.1571  2.5210
28346SOL    HW2 3031  10.122  10.062   3.315  1.9431  1.8660  1.2447
28347SOL     OW 3032   7.058   4.018  12.401  0.6116  0.1741  0.4943
28347SOL    HW1 3033   7.096   3.943  12.357  1.4800  0.6563  0.3971
28347SOL    HW2 3034   7.085   4.010  12.492  0.2467  0.0853  0.5990
28348SOL     OW 3035  10.453   0.211   5.467  0.2215  0.6446 -0.4330
28348SOL    HW1 3036  10.445   0.304   5.444 -1.6284  0.3639 -1.0739
28348SOL    HW2 3037  10.364   0.184   5.492  0.4997 -1.2118 -1.2784
28349SOL     OW 3038   3.555   3.045  13.423 -0.0879 -0.0483 -0.0987
28349SOL    HW1 3039   3.572   3.138  13.408 -0.8300 -0.2141 -2.3505
28349SOL    HW2 3040   3.635   3.001  13.395  1.2552 -0.0450  3.2923
28350SOL     OW 3041   5.343  10.643   3.276 -0.5012  0.8038 -0.1687
28350SOL    HW1 3042   5.323  10.731   3.243  2.0293  0.8623 -1.8274
28350SOL    HW2 3043   5.428  10.621   3.237 -0.3395 -1.8001  1.3887
28351SOL     OW 3044   6.946   8.749   5.754 -0.6480  0.1410  0.7563
28351SOL    HW1 3045   6.902   8.717   5.675  0.7150  1.1986 -0.4909
28351SOL    HW2 3046   6.967   8.670   5.804  0.0780 -0.7373 -0.8490
28352SOL     OW 3047   8.168   1.077   4.137  0.3778  0.0663  0.0943
28352SOL    HW1 3048   8.159   1.140   4.209 -0.8626  1.3564 -1.1490
28352SOL    HW2 3049   8.079   1.045   4.121  1.0418 -2.5044  1.0670
28353SOL     OW 3050   9.907   3.330   4.213 -0.0776 -0.0592 -0.3451
28353SOL    HW1 3051   9.890   3.238   4.195 -1.0647 -0.0579  0.4966
28353SOL    HW2 3052   9.850   3.378   4.153  0.2436  0.0067 -0.6014
28354SOL     OW 3053   2.155   1.693  10.854 -0.4573 -0.6785  0.0941
28354SOL    HW1 3054   2.096   1.748  10.804  0.6483 -0.9117 -1.5352
28354SOL    HW2 3055   2.193   1.752  10.919 -0.7887 -0.0007 -0.3148
28355SOL     OW 3056   9.946  13.626   4.812 -0.2418 -0.5056  0.1303
28355SOL    HW1 3057   9.949  13.658   4.902  0.1957  0.2376 -0.1418
28355SOL    HW2 3058  10.000  13.687   4.763 -2.2830  0.4626 -1.0580
28356SOL     OW 3059  13.196  11.243   1.006 -0.3434 -0.1661  0.6334
28356SOL    HW1 3060  13.109  11.279   1.022 -0.7868  0.1594 -2.1236
28356SOL    HW2 3061  13.186  11.188   0.928  1.9363 -0.0417  0.1805
28357SOL     OW 3062   7.171   9.914   3.981 -0.3875 -0.1201 -0.0727
28357SOL    HW1 3063   7.227   9.894   4.057  1.3075  1.8050 -0.7416
28357SOL    HW2 3064   7.233   9.936   3.911 -1.9365  2.8437 -0.6497
28358SOL     OW 3065   3.639  10.964   4.186  0.0458 -0.1733 -0.2709
28358SOL    HW1 3066   3.696  11.022   4.137 -1.2938  0.9231 -0.5982
28358SOL    HW2 3067   3.643  10.881   4.139 -1.2322  0.8486 -2.3403
28359SOL     OW 3068   2.059  11.245   4.645 -0.2978 -0.1592 -0.5195
28359SOL    HW1 3069   2.035  11.266   4.735 -0.6967 -1.0083 -0.4159
28359SOL    HW2 3070   2.100  11.159   4.651  0.1786  0.0197 -1.0840
28360SOL     OW 3071   2.580   3.863   7.008 -0.3289  0.8215  0.7182
28360SOL    HW1 3072   2.637   3.938   7.024  0.5118 -0.2002  2.9071
28360SOL    HW2 3073   2.595   3.805   7.082 -1.7735 -1.0285 -0.3402
28361SOL     OW 3074   9.755  12.609  12.022  0.2144 -0.1192  0.0275
28361SOL    HW1 3075   9.786  12.551  11.952 -0.5145  0.1721 -0.5534
28361SOL    HW2 3076   9.749  12.553  12.099  0.0588 -0.6860 -0.3888
28362SOL     OW 3077   1.662   9.830  12.827 -0.0190 -0.2163  0.3562
28362SOL    HW1 3078   1.729   9.898  12.823  1.3662 -1.5846 -0.6187
28362SOL    HW2 3079   1.706   9.755  12.867 -0.0095 -2.1260 -2.9162
28363SOL     OW 3080  11.261  13.914   0.178 -0.3219 -0.2540  0.6207
28363SOL    HW1 3081  11.250  13.915   0.273  1.4089 -0.4960  0.8568
28363SOL    HW2 3082  11.260  13.821   0.155  3.5976 -0.5597  1.0578
28364SOL     OW 3083   2.675  11.672   6.514  0.4477  0.0401 -0.0093
28364SOL    HW1 3084   2.600  11.727   6.493 -0.1916 -0.4665  0.8615
28364SOL    HW2 3085   2.647  11.583   6.495  1.8451  0.0179 -2.4550
28365SOL     OW 3086   1.223   6.857   9.118 -0.3069  0.6122  0.1422
28365SOL    HW1 3087   1.133   6.889   9.107 -0.6670 -0.2680  0.4056
28365SOL    HW2 3088   1.233   6.846   9.212  0.1211  0.8237  0.1207
28366SOL     OW 3089  12.251   7.395   5.816  0.5856 -0.0203 -0.6967
28366SOL    HW1 3090  12.328   7.366   5.866  0.5513  2.2589  0.7873
28366SOL    HW2 3091  12.277   7.479   5.778 -0.6281 -0.0187 -1.5895
28367SOL     OW 3092   9.335   2.972  11.162 -0.3091  0.5764 -0.3175
28367SOL    HW1 3093   9.422   2.961  11.124 -0.0739  0.9068  0.1159
28367SOL    HW2 3094   9.339   2.924  11.245 -0.6086  0.4209 -0.3900
28368SOL     OW 3095  13.052  10.205   2.136  0.0319 -0.0529 -0.4134
28368SOL    HW1 3096  13.107  10.179   2.210  1.8090  3.0465 -0.4460
28368SOL    HW2 3097  12.962  10.195   2.167  0.6876 -1.2881  1.1999
28369SOL     OW 3098   1.689   1.748  11.500  0.2628 -0.7052  0.5553
28369SOL    HW1 3099   1.695   1.653  11.504 -0.1283 -0.8918 -1.8556
28369SOL    HW2 3100   1.595   1.765  11.488  0.2893  0.0230  1.2896
28370SOL     OW 3101   7.933   8.321   7.927  0.2239  0.2463  0.2980
28370SOL    HW1 3102   7.952   8.260   7.855  0.4195  0.2719  0.3262
28370SOL    HW2 3103   8.007   8.382   7.927 -0.4644  1.1043 -0.3777
28371SOL     OW 3104  10.345  10.356  11.641  0.4261  0.5585 -0.2378
28371SOL    HW1 3105  10.322  10.294  11.710  1.2574  0.9869  0.4316
28371SOL    HW2 3106  10.267  10.410  11.631  0.5400  0.9372  0.8521
28372SOL     OW 3107  11.434  12.242   4.451 -0.6505  0.0916  0.3642
28372SOL    HW1 3108  11.397  12.329   4.441 -0.8022 -0.1439 -1.5032
28372SOL    HW2 3109  11.359  12.183   4.443 -0.0746 -0.3966 -3.5031
28373SOL     OW 3110   5.403   9.502   7.198 -0.0251 -0.0516 -0.8141
28373SOL    HW1 3111   5.421   9.446   7.122 -1.4127  0.0691 -1.2775
28373SOL    HW2 3112   5.348   9.448   7.255  0.1134  0.2273 -0.4138
28374SOL     OW 3113   8.541   4.196   9.622  0.7600 -1.0206 -0.3193
28374SOL    HW1 3114   8.548   4.101   9.635 -3.2386 -1.2872  1.2225
28374SOL    HW2 3115   8.498   4.205   9.537 -0.3276 -0.7476  0.2349
28375SOL     OW 3116   8.331   5.314   9.274  0.1075  0.0425  0.6573
28375SOL    HW1 3117   8.293   5.228   9.259  0.3353  0.1270 -0.5389
28375SOL    HW2 3118   8.382   5.332   9.194  0.9980  0.7898  1.3678
28376SOL     OW 3119   9.374   3.474   8.561  0.2161 -0.2948  0.0571
28376SOL    HW1 3120   9.397   3.386   8.592  1.5128 -0.1329 -0.3665
28376SOL    HW2 3121   9.399   3.475   8.469  0.3676  0.5586  0.0932
28377SOL     OW 3122   2.390   2.090   9.031 -0.3676 -0.0527  0.2474
28377SOL    HW1 3123   2.346   2.171   9.006 -0.6094 -0.5365 -0.9930
28377SOL    HW2 3124   2.451   2.073   8.960  2.4417  0.9714  2.2502
28378SOL     OW 3125  11.312  10.525   7.270 -0.1318 -0.3620  0.4731
28378SOL    HW1 3126  11.271  10.571   7.342  0.3223 -0.3746  0.7440
28378SOL    HW2 3127  11.406  10.532   7.287  0.0292  0.5695 -0.6818
28379SOL     OW 3128  12.563  12.801   0.710 -0.6813  0.1073 -0.2147
28379SOL    HW1 3129  12.609  12.871   0.756 -0.5035  0.1657 -0.4765
28379SOL    HW2 3130  12.601  12.801   0.622 -1.9179  0.8516 -0.7803
28380SOL     OW 3131  10.595  12.514   5.274  0.3535  0.3671 -0.1207
28380SOL    HW1 3132  10.604  12.573   5.199  2.2052  3.0343  1.9937
28380SOL    HW2 3133  10.676  12.463   5.274  0.6681  0.8506  0.3919
28381SOL     OW 3134  10.548  10.451  12.929  0.5031 -0.3037 -0.0771
28381SOL    HW1 3135  10.563  10.371  12.979  0.5398 -1.1182 -1.3457
28381SOL    HW2 3136  10.635  10.491  12.921  0.8249 -1.1438 -1.0455
28382SOL     OW 3137   1.568   4.000   2.722 -0.0349  0.5832  0.5111
28382SOL    HW1 3138   1.544   3.919   2.677  1.8234  1.2703 -1.9334
28382SOL    HW2 3139   1.518   4.068   2.678 -0.8168  0.9404  1.8802
28383SOL     OW 3140   7.635   4.290  12.225 -0.3328  0.2913  0.2782
28383SOL    HW1 3141   7.670   4.254  12.144 -1.1178  1.3722 -0.5750
28383SOL    HW2 3142   7.690   4.253  12.294  1.5706  0.8363 -0.8859
28384SOL     OW 3143   3.101  12.354   8.355  0.0538  0.2424 -0.3714
28384SOL    HW1 3144   3.177  12.395   8.315  1.9001 -0.6073  2.0080
28384SOL    HW2 3145   3.050  12.319   8.282  2.6147 -0.2736 -2.0289
28385SOL     OW 3146  11.947  13.485   8.728 -0.0845 -0.1461  0.2362
28385SOL    HW1 3147  11.947  13.548   8.656 -2.1135  0.0774  0.3629
28385SOL    HW2 3148  11.879  13.421   8.704 -1.4765  0.4473  2.3157
28386SOL     OW 3149   0.153  11.873   2.145  0.2803  0.4433  0.2969
28386SOL    HW1 3150   0.228  11.842   2.094  0.1190  0.4289  0.0652
28386SOL    HW2 3151   0.180  11.864   2.236  0.6462  0.6558  0.2107
28387SOL     OW 3152  12.338   7.601  11.294  0.4448  0.1022  0.7378
28387SOL    HW1 3153  12.316   7.690  11.267 -0.1142  0.2318  1.5535
28387SOL    HW2 3154  12.288   7.545  11.235 -0.9012  0.3808  1.5504
28388SOL     OW 3155   8.302   6.612   5.156 -0.3906  0.1102 -0.2604
28388SOL    HW1 3156   8.321   6.706   5.156  0.4852  0.0599  3.3516
28388SOL    HW2 3157   8.254   6.597   5.237 -1.6426 -2.4336 -1.3473
28389SOL     OW 3158   0.236   2.178   5.678  0.0576  0.6697 -0.0866
28389SOL    HW1 3159   0.275   2.226   5.750  0.4010  0.2116  0.0431
28389SOL    HW2 3160   0.145   2.206   5.675  0.2328  1.2476  0.0437
28390SOL     OW 3161  10.701   5.472   5.720 -0.0519  0.0950 -0.5963
28390SOL    HW1 3162  10.660   5.557   5.708  0.2570  0.2784 -0.3541
28390SOL    HW2 3163  10.771   5.487   5.783 -0.8828 -0.6089  0.5455
28391SOL     OW 3164   8.998  12.580   2.792 -0.4626  0.1926  0.0895
28391SOL    HW1 3165   8.950  12.500   2.814 -2.8092  1.3039 -0.6141
28391SOL    HW2 3166   8.933  12.650   2.801  1.7804  2.2424  1.8504
28392SOL     OW 3167   3.914  10.908   9.603 -0.1035 -0.9316  0.3917
28392SOL    HW1 3168   3.969  10.895   9.680 -0.2107 -2.6330  0.2180
28392SOL    HW2 3169   3.903  10.820   9.566 -4.4862 -1.0751  1.4571
28393SOL     OW 3170  10.558  13.598   8.469 -0.3356 -0.1581  0.0819
28393SOL    HW1 3171  10.474  13.576   8.510 -0.3690  1.3045  0.8894
28393SOL    HW2 3172  10.623  13.576   8.535 -0.1176 -0.8824 -0.3745
28394SOL     OW 3173  11.113   0.215   5.195  0.3837 -0.0019  0.0212
28394SOL    HW1 3174  11.152   0.127   5.196  0.8264  0.1777 -0.8955
28394SOL    HW2 3175  11.041   0.208   5.133 -0.5902 -0.1226  1.1266
28395SOL     OW 3176  12.664  12.815   5.131 -0.1151  0.7726  0.2766
28395SOL    HW1 3177  12.625  12.736   5.094  2.4735  0.7174 -2.6906
28395SOL    HW2 3178  12.699  12.786   5.215 -1.0443 -0.6693  0.2115
28396SOL     OW 3179  12.850   5.156  13.291  0.3691  0.4147  0.2908
28396SOL    HW1 3180  12.858   5.107  13.373 -1.1231  0.1236  0.2906
28396SOL    HW2 3181  12.939   5.185  13.272  1.0017 -0.8320  1.1961
28397SOL     OW 3182  12.387  12.419  10.508 -0.4295 -0.0690 -0.7858
28397SOL    HW1 3183  12.325  12.400  10.579  0.1383 -0.5171 -0.3967
28397SOL    HW2 3184  12.472  12.392  10.543 -0.1367 -0.2587 -1.6255
28398SOL     OW 3185   9.520   3.950  13.118 -0.1688  0.1146 -0.4078
28398SOL    HW1 3186   9.609   3.925  13.092 -0.7828 -0.6336 -1.9027
28398SOL    HW2 3187   9.523   3.951  13.214  1.0912 -1.2989 -0.3931
28399SOL     OW 3188   9.375   7.141   1.183  0.1860 -0.8011  0.0053
28399SOL    HW1 3189   9.330   7.139   1.268  1.9815  1.2924  1.1075
28399SOL    HW2 3190   9.462   7.106   1.201  1.6272  2.3453 -0.1526
28400SOL     OW 3191  10.457   5.965   3.187 -0.6371  0.0013  0.3896
28400SOL    HW1 3192  10.452   5.920   3.103  1.9619 -0.3511  0.3621
28400SOL    HW2 3193  10.460   5.895   3.253  0.5538  0.1881  0.5433
28401SOL     OW 3194   8.715   3.175  10.996  0.3786  0.6545  0.2188
28401SOL    HW1 3195   8.654   3.222  10.939  0.7339  0.0182 -0.7189
28401SOL    HW2 3196   8.782   3.238  11.017  0.1934  0.9286 -0.0003
28402SOL     OW 3197   2.697  14.013   2.414 -0.1994  0.2709 -0.2086
28402SOL    HW1 3198   2.622  14.017   2.354 -0.5103  0.0096  0.1564
28402SOL    HW2 3199   2.755  14.083   2.384 -1.3172  1.5264  0.4691
28403SOL     OW 3200  14.052   5.604   1.787 -0.2100 -0.3188  0.2213
28403SOL    HW1 3201  13.991   5.530   1.787  0.7902 -1.1517  0.5418
28403SOL    HW2 3202  14.088   5.606   1.699  0.0580 -0.4596  0.3274
28404SOL     OW 3203   2.886   4.456   6.176  0.3580 -0.2801 -0.2339
28404SOL    HW1 3204   2.792   4.475   6.177  0.3308 -0.4264  0.6953
28404SOL    HW2 3205   2.891   4.364   6.149  0.2704 -0.1252 -0.7942
28405SOL     OW 3206   3.404   1.874   5.795 -0.2004 -0.3646  0.4854
28405SOL    HW1 3207   3.468   1.819   5.838 -0.2542 -0.1082  0.8970
28405SOL    HW2 3208   3.410   1.959   5.840  0.1795  0.0991 -0.4125
28406SOL     OW 3209   4.832   5.757   2.705 -0.2315  0.0080 -0.0846
28406SOL    HW1 3210   4.920   5.793   2.717  0.3425 -1.0301 -1.0677
28406SOL    HW2 3211   4.780   5.799   2.774  0.7299  1.5942 -0.2683
28407SOL     OW 3212  10.809  14.056  13.044  0.0940  0.8119 -0.0614
28407SOL    HW1 3213  10.899  14.082  13.026  1.0445 -1.5804  0.8152
28407SOL    HW2 3214  10.782  14.112  13.117  1.8971 -0.1886  1.4830
28408SOL     OW 3215   7.710   9.251   1.264 -0.4477 -0.3249  0.2126
28408SOL    HW1 3216   7.620   9.219   1.275 -1.6699  3.0545  1.4813
28408SOL    HW2 3217   7.730   9.295   1.347  1.6911  0.5327 -0.6760
28409SOL     OW 3218  11.066   3.067   1.545  0.0959 -0.6093  0.0981
28409SOL    HW1 3219  11.074   3.017   1.464 -0.5393 -1.6976  0.6770
28409SOL    HW2 3220  11.100   3.007   1.612 -1.1868 -0.4769  0.8868
28410SOL     OW 3221  10.420   5.490   1.282 -0.6886 -0.1873  1.1222
28410SOL    HW1 3222  10.368   5.421   1.242  0.0133 -0.1801  0.1581
28410SOL    HW2 3223  10.387   5.571   1.243  0.6292 -0.2502 -0.2408
28411SOL     OW 3224   8.593   9.443  13.693  0.3358  0.8709 -0.3206
28411SOL    HW1 3225   8.542   9.442  13.774 -0.0847  0.7339 -0.5852
28411SOL    HW2 3226   8.684   9.433  13.722  0.2291  1.2241  0.1637
28412SOL     OW 3227   0.330  11.673   7.598  0.0771  0.3647 -0.1665
28412SOL    HW1 3228   0.333  11.592   7.546  0.3649 -0.9773  1.8234
28412SOL    HW2 3229   0.421  11.702   7.602  1.2439 -2.7827  4.1758
28413SOL     OW 3230   7.396   6.339  10.052  0.1822 -0.0356  0.2085
28413SOL    HW1 3231   7.330   6.336   9.983 -0.0055  2.4041  0.1732
28413SOL    HW2 3232   7.480   6.337  10.004  0.0537  1.3800 -0.1409
28414SOL     OW 3233   1.069   7.200   9.673 -0.3372 -0.1653  0.2003
28414SOL    HW1 3234   1.075   7.105   9.674 -1.0728 -0.2326 -0.4629
28414SOL    HW2 3235   0.979   7.218   9.645  0.0104  0.7256 -0.4058
28415SOL     OW 3236  12.196   3.879   9.861 -0.0807 -0.5695 -0.2260
28415SOL    HW1 3237  12.245   3.862   9.781 -0.9283 -1.8966 -0.4948
28415SOL    HW2 3238  12.212   3.802   9.916 -1.6065 -0.9126 -0.2124
28416SOL     OW 3239   5.825   6.534   7.594  0.3276  0.2159 -0.5894
28416SOL    HW1 3240   5.770   6.480   7.651 -0.5643  1.0823 -0.5823
28416SOL    HW2 3241   5.883   6.581   7.653  0.8303 -0.4403 -0.5646
28417SOL     OW 3242   9.715  12.508  12.610 -0.0388  0.0958  0.2545
28417SOL    HW1 3243   9.791  12.454  12.586  1.1358  0.2852  3.0487
28417SOL    HW2 3244   9.736  12.595  12.577  1.4189  0.3172  1.6031
28418SOL     OW 3245  11.185   1.280   9.924 -0.0550 -0.0879  0.5405
28418SOL    HW1 3246  11.144   1.365   9.906  0.0468  0.1586  1.4346
28418SOL    HW2 3247  11.142   1.220   9.863  0.2698  0.6982 -0.5081
28419SOL     OW 3248   8.365   6.708   4.613 -0.3705 -0.4438  0.4867
28419SOL    HW1 3249   8.280   6.678   4.647 -0.4120  1.1092  1.8738
28419SOL    HW2 3250   8.378   6.657   4.534 -2.1956 -1.3494  0.7144
28420SOL     OW 3251   0.636   6.009   5.142  0.2577  0.1977 -0.2486
28420SOL    HW1 3252   0.573   6.047   5.203 -0.6047  0.3042 -1.1840
28420SOL    HW2 3253   0.708   6.073   5.139  0.3680  0.1346  0.7200
28421SOL     OW 3254   8.957  11.863   3.166 -0.3293  0.3698  0.1566
28421SOL    HW1 3255   9.024  11.931   3.177 -0.1167  0.7631 -2.8339
28421SOL    HW2 3256   9.004  11.781   3.177  0.5527  0.6541 -1.2737
28422SOL     OW 3257  11.581   5.884  13.634  0.4475 -0.2976 -0.1652
28422SOL    HW1 3258  11.561   5.800  13.676  0.1704 -0.4476 -0.5853
28422SOL    HW2 3259  11.655   5.865  13.576  0.3007 -0.2840 -0.3584
28423SOL     OW 3260  11.039   7.565   2.191  0.5783  0.4130 -0.0699
28423SOL    HW1 3261  11.014   7.596   2.278  1.0908 -0.4139  0.3938
28423SOL    HW2 3262  11.047   7.644   2.138 -0.8843  0.8468  0.3137
28424SOL     OW 3263   0.244  13.952   9.512 -0.4743 -0.0897 -0.5481
28424SOL    HW1 3264   0.259  13.858   9.523  0.5596  0.1238 -0.1026
28424SOL    HW2 3265   0.151  13.964   9.532 -0.4142 -0.8851  0.2487
28425SOL     OW 3266   8.774  10.103   7.510  0.2538  0.3713 -0.4654
28425SOL    HW1 3267   8.689  10.103   7.466  1.2511  1.5560 -2.5153
28425SOL    HW2 3268   8.791  10.010   7.530 -1.2924  0.0755 -0.3866
28426SOL     OW 3269  12.755  13.819  11.176 -0.4276  0.2638  0.0782
28426SOL    HW1 3270  12.716  13.884  11.117 -0.2680  0.5544  0.2870
28426SOL    HW2 3271  12.826  13.780  11.125 -1.4998 -0.8542 -0.5969
28427SOL     OW 3272   8.307   9.688  13.333 -0.2898  0.2684  0.0167
28427SOL    HW1 3273   8.324   9.620  13.268  0.7523  0.0069  0.5251
28427SOL    HW2 3274   8.327   9.645  13.417  2.5621  1.7785  0.2303
28428SOL     OW 3275  11.899   1.181   8.954  0.4243 -0.1919  0.3870
28428SOL    HW1 3276  11.897   1.104   8.897 -1.5433  0.1344 -0.0599
28428SOL    HW2 3277  11.872   1.149   9.040  1.4503 -0.3148  0.6811
28429SOL     OW 3278   7.897  11.229   5.396 -0.3294  0.2787 -0.4333
28429SOL    HW1 3279   7.987  11.254   5.417 -0.1299 -0.2983 -0.5704
28429SOL    HW2 3280   7.903  11.136   5.372 -0.8716  0.3839 -1.0011
28430SOL     OW 3281   6.738   0.134   5.505 -0.1303 -0.1307  0.5600
28430SOL    HW1 3282   6.743   0.136   5.410  0.4685  2.9478  0.5731
28430SOL    HW2 3283   6.825   0.107   5.534  0.9125  2.6108  0.2055
28431SOL     OW 3284  14.137   4.944   1.485  0.5246 -0.4628  0.1227
28431SOL    HW1 3285  14.055   4.993   1.473  1.6439  1.8952  1.4712
28431SOL    HW2 3286  14.170   4.929   1.397  1.0295  2.9380 -0.4001
28432SOL     OW 3287  11.253   0.705   7.147 -0.5953  0.0561 -0.2235
28432SOL    HW1 3288  11.313   0.767   7.105  0.8454 -1.3274 -0.2936
28432SOL    HW2 3289  11.310   0.650   7.201 -2.0457 -0.1281  1.2014
28433SOL     OW 3290  12.189   1.783   9.391  0.2831  0.1689 -0.3626
28433SOL    HW1 3291  12.223   1.702   9.354  1.6878  0.6181 -0.0937
28433SOL    HW2 3292  12.196   1.771   9.486 -2.9978 -0.8535 -0.1030
28434SOL     OW 3293   6.449   4.523   4.870  0.0366 -0.4698  0.2528
28434SOL    HW1 3294   6.458   4.618   4.879 -1.1382 -0.4686  1.7375
28434SOL    HW2 3295   6.389   4.511   4.797  0.0937 -0.0696  0.1385
28435SOL     OW 3296   0.628   1.673   6.465 -0.2609 -0.2897 -0.9311
28435SOL    HW1 3297   0.536   1.688   6.483 -0.0461 -0.2794  0.2115
28435SOL    HW2 3298   0.667   1.651   6.550  1.0404  0.9577 -1.1568
28436SOL     OW 3299  12.033   0.860   9.827  0.5327  0.6969 -0.2994
28436SOL    HW1 3300  12.032   0.911   9.908  0.6078  0.8697 -0.4070
28436SOL    HW2 3301  12.123   0.826   9.822  0.3008 -0.0022  0.1161
28437SOL     OW 3302   9.822  10.048   3.034  0.8367 -0.2317  0.3479
28437SOL    HW1 3303   9.890  10.115   3.031 -0.1437  0.8569  1.6503
28437SOL    HW2 3304   9.743  10.092   3.003  0.3139 -0.9647  0.6184
28438SOL     OW 3305   2.311  13.972   3.969 -0.3956  0.3026  0.4333
28438SOL    HW1 3306   2.242  13.935   4.024  0.2071 -1.4053  0.1154
28438SOL    HW2 3307   2.321  14.062   3.999 -0.8243 -0.2528  2.3840
28439SOL     OW 3308  11.194   9.340   6.636  0.7644  0.5258 -0.1190
28439SOL    HW1 3309  11.099   9.349   6.642  0.8445  0.7833  1.0936
28439SOL    HW2 3310  11.214   9.263   6.689  1.2321  0.4926 -0.3411
28440SOL     OW 3311   3.910  13.602   0.870 -0.2333  0.0266  0.2167
28440SOL    HW1 3312   3.894  13.508   0.871  0.9245 -0.1864 -0.1331
28440SOL    HW2 3313   3.982  13.615   0.933  1.3222  0.3244 -1.5359
28441SOL     OW 3314   3.794   4.566  13.672 -0.2262  0.0552 -0.1205
28441SOL    HW1 3315   3.870   4.540  13.725  1.8357  1.4204 -2.2233
28441SOL    HW2 3316   3.729   4.596  13.736  1.9365  1.1865  1.6676
28442SOL     OW 3317   6.151  12.508   3.179  0.0131  0.5000 -0.1417
28442SOL    HW1 3318   6.143  12.596   3.141 -1.7261  0.1764 -0.6315
28442SOL    HW2 3319   6.107  12.515   3.263 -1.5709 -0.2547 -0.8682
28443SOL     OW 3320   0.447  10.011   8.943 -0.7202 -0.4189 -0.5079
28443SOL    HW1 3321   0.481  10.099   8.930  0.1484 -0.6825 -0.0507
28443SOL    HW2 3322   0.410  10.012   9.031 -1.2454 -0.3531 -0.7215
28444SOL     OW 3323  10.131   5.404   6.655 -0.1319  0.2368 -0.2838
28444SOL    HW1 3324  10.142   5.486   6.606 -0.0401 -0.4972 -1.5582
28444SOL    HW2 3325  10.212   5.396   6.706  0.6825  0.0701 -1.5377
28445SOL     OW 3326   1.070  13.679   3.399 -0.3137 -0.1016 -0.1159
28445SOL    HW1 3327   1.012  13.754   3.385 -0.0831  0.1034  0.0049
28445SOL    HW2 3328   1.151  13.718   3.432 -0.6946 -0.5290  1.3849
28446SOL     OW 3329   1.417   4.549   3.512  0.0897 -0.0350  0.0413
28446SOL    HW1 3330   1.483   4.491   3.473  0.9353  1.7163 -1.2572
28446SOL    HW2 3331   1.435   4.545   3.606  2.0642  0.3600 -0.2624
28447SOL     OW 3332   2.017   2.546   9.402  0.1365 -0.9703 -0.0979
28447SOL    HW1 3333   2.090   2.596   9.365 -0.0658  0.3097  1.1360
28447SOL    HW2 3334   1.946   2.556   9.338  0.2932 -0.1550 -0.1599
28448SOL     OW 3335  10.868   8.849   9.491  0.6308  0.3683  0.1474
28448SOL    HW1 3336  10.924   8.771   9.492 -0.2096 -0.2520  0.2391
28448SOL    HW2 3337  10.925   8.920   9.521  1.0373 -0.4832  1.5202
28449SOL     OW 3338   5.606  13.821  11.383  0.4999 -0.0211  0.2433
28449SOL    HW1 3339   5.535  13.860  11.435 -0.5101 -1.2118 -0.1957
28449SOL    HW2 3340   5.672  13.797  11.448 -0.6535 -1.2997  0.9952
28450SOL     OW 3341   5.629  13.126   9.886 -0.1075 -0.0100 -0.0410
28450SOL    HW1 3342   5.722  13.116   9.909 -0.4093 -0.2641  1.1195
28450SOL    HW2 3343   5.582  13.085   9.958 -1.1458  0.5989 -0.3589
28451SOL     OW 3344   8.642   4.027   2.462  0.1510 -0.0211 -0.1282
28451SOL    HW1 3345   8.659   3.962   2.394 -0.2000 -0.0663 -0.1738
28451SOL    HW2 3346   8.677   3.989   2.542 -1.2370 -0.8555  0.1085
28452SOL     OW 3347  13.091  11.803   7.832  0.5656  0.0408  0.1568
28452SOL    HW1 3348  13.126  11.714   7.831  0.8103  0.0787  1.9144
28452SOL    HW2 3349  13.033  11.807   7.756  0.7332 -1.5341 -0.0820
28453SOL     OW 3350   7.355   8.671   7.098 -0.0454  0.5433  0.2433
28453SOL    HW1 3351   7.396   8.602   7.046  0.7286  0.5255  0.8615
28453SOL    HW2 3352   7.404   8.673   7.179 -0.9570  0.8806  0.8035
28454SOL     OW 3353   4.599   1.050  11.582  0.3147 -0.2648  0.0298
28454SOL    HW1 3354   4.654   1.095  11.518  0.5368 -1.8012 -0.9094
28454SOL    HW2 3355   4.655   0.980  11.616 -0.2640 -0.3191  0.8903
28455SOL     OW 3356   4.968   0.182   6.079  0.1229  0.1902 -0.4634
28455SOL    HW1 3357   4.968   0.221   6.167  1.3264 -0.7781 -0.0089
28455SOL    HW2 3358   4.899   0.230   6.032 -1.1681  0.1309  1.2654
28456SOL     OW 3359   1.232   9.882   0.704 -0.0708 -0.0727 -0.1848
28456SOL    HW1 3360   1.226   9.891   0.609 -0.7970  0.5223 -0.0892
28456SOL    HW2 3361   1.201   9.966   0.738 -1.0885 -0.7502  0.6073
28457SOL     OW 3362   0.611   2.697  11.259 -0.0568 -0.2055  0.1371
28457SOL    HW1 3363   0.660   2.725  11.182 -0.3124 -0.0258  0.0360
28457SOL    HW2 3364   0.591   2.779  11.306 -1.5770 -0.1115 -0.6267
28458SOL     OW 3365  12.406   6.081   4.067  0.6972 -0.4184  0.0900
28458SOL    HW1 3366  12.477   6.017   4.080  1.5893  0.7103  0.9505
28458SOL    HW2 3367  12.327   6.034   4.092  1.5453 -0.6320  2.7205
28459SOL     OW 3368   3.356   8.112   7.103  0.6962 -0.5259 -0.8185
28459SOL    HW1 3369   3.303   8.146   7.175  0.0655 -0.7123 -1.1878
28459SOL    HW2 3370   3.303   8.128   7.025  2.3347  1.7645 -1.5507
28460SOL     OW 3371   2.600   4.365  10.077  0.4018 -0.0844 -0.2603
28460SOL    HW1 3372   2.544   4.303  10.124 -0.2935 -0.0389 -1.0128
28460SOL    HW2 3373   2.564   4.451  10.099 -0.6815 -0.1048 -1.7670
28461SOL     OW 3374   2.499   1.484   8.203 -0.5484  0.0916 -0.1410
28461SOL    HW1 3375   2.464   1.515   8.286 -1.7065  0.1525 -0.6422
28461SOL    HW2 3376   2.586   1.524   8.198 -0.9011  0.9842  0.5221
28462SOL     OW 3377   8.403  10.554   1.045  0.3640  0.5011  0.6582
28462SOL    HW1 3378   8.397  10.468   1.087  1.5565  0.2274  0.2963
28462SOL    HW2 3379   8.493  10.583   1.062  0.1195  1.4587  0.3548
28463SOL     OW 3380   5.807   1.277  13.739 -0.3768  0.0999  0.0988
28463SOL    HW1 3381   5.900   1.256  13.735 -1.2037 -4.6188 -0.7237
28463SOL    HW2 3382   5.788   1.287  13.832  0.7638 -0.2954  0.3867
28464SOL     OW 3383   0.667   5.504   5.625  0.0770  0.1630  0.0713
28464SOL    HW1 3384   0.686   5.486   5.717 -0.1243 -0.8143 -0.0696
28464SOL    HW2 3385   0.699   5.427   5.578 -0.8921  0.1179 -0.5502
28465SOL     OW 3386   9.235   6.078   1.998  0.2914 -0.3805  0.3053
28465SOL    HW1 3387   9.271   6.146   1.940  0.7766 -2.6258 -2.2515
28465SOL    HW2 3388   9.140   6.084   1.985  0.2424  0.5030  0.9825
28466SOL     OW 3389   0.529   4.998   0.123  0.2975 -0.4087 -0.0215
28466SOL    HW1 3390   0.620   5.020   0.141  1.2436 -3.9522  0.2962
28466SOL    HW2 3391   0.478   5.056   0.179  2.4455  0.1077  1.5092
28467SOL     OW 3392   5.972  11.409   0.485  0.2102 -0.2949  0.3265
28467SOL    HW1 3393   6.001  11.477   0.546  2.3842 -0.0828 -0.8300
28467SOL    HW2 3394   6.046  11.399   0.425 -1.8953 -0.2885 -2.4338
28468SOL     OW 3395   9.384  13.274   3.641 -0.1449  0.1670 -0.4722
28468SOL    HW1 3396   9.351  13.361   3.620  0.2582  0.2843 -0.6310
28468SOL    HW2 3397   9.466  13.267   3.592 -0.0166 -0.1785 -0.2136
28469SOL     OW 3398   9.695   7.682   2.813 -0.1662  0.3116 -0.1735
28469SOL    HW1 3399   9.680   7.774   2.792  0.7281  1.5055  3.4836
28469SOL    HW2 3400   9.609   7.649   2.839 -0.3242  0.4344 -0.5402
28470SOL     OW 3401  11.676   7.087   7.362  0.2684  0.4759  0.1116
28470SOL    HW1 3402  11.661   7.119   7.273 -2.3799  0.4826  0.4880
28470SOL    HW2 3403  11.601   7.119   7.412 -0.6694 -3.2621  1.3560
28471SOL     OW 3404   9.513  11.009   4.428  0.5280 -0.4022 -0.0257
28471SOL    HW1 3405   9.425  11.013   4.464 -0.5249 -0.6825 -2.4111
28471SOL    HW2 3406   9.549  11.096   4.445  0.6628 -0.9118  2.8326
28472SOL     OW 3407   5.010   8.597   5.562  0.4453 -0.7191 -0.6022
28472SOL    HW1 3408   5.002   8.578   5.468  1.1081  1.0943 -1.0650
28472SOL    HW2 3409   5.078   8.664   5.567 -0.6622  0.3558  1.0237
28473SOL     OW 3410  11.968  13.857   7.860 -0.1980 -0.6068 -0.5361
28473SOL    HW1 3411  11.983  13.929   7.799  0.4125 -0.7618 -0.5844
28473SOL    HW2 3412  11.876  13.863   7.883 -0.0691  0.4204 -0.2466
28474SOL     OW 3413   3.185   6.295  10.916 -0.3377 -0.0379  0.1191
28474SOL    HW1 3414   3.192   6.273  10.823 -1.3767  1.4102 -0.3508
28474SOL    HW2 3415   3.219   6.384  10.922 -1.3958  0.3339  0.8955
28475SOL     OW 3416   3.948   4.996   7.259  0.4745 -0.1538  0.2298
28475SOL    HW1 3417   3.963   5.033   7.346  1.8428 -0.5042  0.1673
28475SOL    HW2 3418   3.981   5.063   7.198  2.6177 -1.2393  0.1073
28476SOL     OW 3419   8.617   6.848  11.660 -0.0629  0.3925  0.3842
28476SOL    HW1 3420   8.534   6.877  11.623 -0.2979 -0.8506 -0.0921
28476SOL    HW2 3421   8.675   6.924  11.651 -0.7073  0.7733 -0.6791
28477SOL     OW 3422   0.590   8.696  12.623  0.2990  0.6438  0.1051
28477SOL    HW1 3423   0.508   8.706  12.575  1.0717  0.1535 -1.4134
28477SOL    HW2 3424   0.583   8.755  12.698 -2.7263 -1.6883  1.8690
28478SOL     OW 3425   1.809   0.150   1.160 -0.0634  0.2041  0.0104
28478SOL    HW1 3426   1.731   0.143   1.104  1.1429 -1.8658 -1.5302
28478SOL    HW2 3427   1.784   0.106   1.241 -1.0717  1.1664  0.2468
28479SOL     OW 3428  11.519   9.669   1.440 -0.1836  0.2631 -0.2541
28479SOL    HW1 3429  11.525   9.653   1.534 -2.3172  0.5255 -0.0203
28479SOL    HW2 3430  11.583   9.739   1.424  2.1196 -1.5407  0.4508
28480SOL     OW 3431   5.461  11.977   3.024 -0.5405  0.0206  0.1900
28480SOL    HW1 3432   5.480  12.032   2.948 -2.6349  0.9104  0.2336
28480SOL    HW2 3433   5.381  11.930   3.001  0.3824 -1.9168  0.7573
28481SOL     OW 3434   0.268   1.896   5.130  0.2936 -0.0212  0.2786
28481SOL    HW1 3435   0.294   1.915   5.040  0.6852  0.9935  0.5977
28481SOL    HW2 3436   0.177   1.926   5.135 -1.3153 -3.9546 -0.9625
28482SOL     OW 3437  11.148   7.795   5.777  0.1149 -0.2079  0.6014
28482SOL    HW1 3438  11.090   7.763   5.708 -0.8810  1.9144  0.3635
28482SOL    HW2 3439  11.219   7.731   5.781 -1.6982 -2.3390  0.2019
28483SOL     OW 3440  13.514   6.457   1.124  0.2969 -0.4182 -0.1474
28483SOL    HW1 3441  13.562   6.426   1.201  2.4704 -0.3030 -1.3829
28483SOL    HW2 3442  13.470   6.379   1.091  1.6180 -1.1193 -0.3341
28484SOL     OW 3443   4.491  13.888  10.067  0.2450 -0.2437  0.0502
28484SOL    HW1 3444   4.474  13.832  10.142 -0.7784  1.0983  0.8683
28484SOL    HW2 3445   4.484  13.830   9.991  0.2140 -1.4042  0.9154
28485SOL     OW 3446  14.127  11.249  13.403 -0.8496  0.3780 -0.4590
28485SOL    HW1 3447  14.071  11.246  13.326 -0.3671  0.0732 -0.8045
28485SOL    HW2 3448  14.213  11.219  13.372 -0.5681  0.5575  0.1221
28486SOL     OW 3449   3.942   0.810   8.067 -0.0008  0.1463  0.3935
28486SOL    HW1 3450   3.998   0.887   8.075 -0.6356  0.8150 -1.2477
28486SOL    HW2 3451   3.995   0.738   8.104  0.1428  1.4966  3.1035
28487SOL     OW 3452   3.001  12.517   3.725  0.0997  0.2535 -0.4134
28487SOL    HW1 3453   3.025  12.425   3.709 -0.9732 -0.3085  1.0370
28487SOL    HW2 3454   2.905  12.518   3.721  0.0031  0.9354  1.3627
28488SOL     OW 3455   5.899   6.668   5.650  0.1115  0.4420 -0.3635
28488SOL    HW1 3456   5.844   6.677   5.572 -1.4116  2.1195  0.7907
28488SOL    HW2 3457   5.837   6.652   5.721  1.4250 -0.7208  0.5681
28489SOL     OW 3458   5.333   2.102  10.589  0.3862 -0.3538 -0.6320
28489SOL    HW1 3459   5.367   2.022  10.630 -2.4341 -1.1589  0.3481
28489SOL    HW2 3460   5.238   2.096  10.598  0.0420  4.0699  1.3744
28490SOL     OW 3461   8.059   6.127   5.245 -0.2496  0.1258  0.3203
28490SOL    HW1 3462   8.045   6.035   5.265 -0.6770  0.4057  1.3907
28490SOL    HW2 3463   8.042   6.172   5.328  0.7495  1.0900  0.0205
28491SOL     OW 3464   9.693  11.812   2.042  0.5624 -0.3983 -0.1811
28491SOL    HW1 3465   9.683  11.855   2.127 -0.0410  1.0548 -0.9543
28491SOL    HW2 3466   9.740  11.731   2.062 -1.3348 -1.0997  1.8153
28492SOL     OW 3467   5.358   0.890  12.661  0.1948  0.0708  0.1412
28492SOL    HW1 3468   5.423   0.917  12.597  0.7077 -1.8675 -0.2400
28492SOL    HW2 3469   5.305   0.825  12.616  0.3224 -1.0553  1.5276
28493SOL     OW 3470   9.654   5.739   9.301 -0.0953  0.3178 -0.1174
28493SOL    HW1 3471   9.612   5.820   9.328  0.2395  1.1842 -2.0657
28493SOL    HW2 3472   9.660   5.687   9.382 -1.6792  1.5871  0.8718
28494SOL     OW 3473   0.072   2.945   2.712 -0.0478  0.1099  0.0958
28494SOL    HW1 3474   0.005   2.890   2.752 -1.0543  0.5171 -0.9624
28494SOL    HW2 3475   0.148   2.936   2.769 -0.4291 -1.7583  0.3728
28495SOL     OW 3476   2.497   8.355  11.430 -0.0172 -0.3747 -0.2727
28495SOL    HW1 3477   2.459   8.310  11.354 -0.1353 -2.0444  0.7136
28495SOL    HW2 3478   2.590   8.333  11.427 -0.1243 -0.9258  0.3739
28496SOL     OW 3479   6.991   4.001   5.875  0.2007  0.5904  0.3504
28496SOL    HW1 3480   6.963   4.087   5.844 -0.3464  0.2285 -0.1529
28496SOL    HW2 3481   7.085   3.999   5.856  0.2510  1.1274  0.4997
28497SOL     OW 3482   8.275  13.671   5.820  0.6208 -0.1391 -0.2364
28497SOL    HW1 3483   8.325  13.658   5.900  0.4735  0.3184 -0.0682
28497SOL    HW2 3484   8.275  13.766   5.807  1.6188 -0.2667 -1.3978
28498SOL     OW 3485   4.081   1.023  11.615  0.1254 -0.3658  0.3896
28498SOL    HW1 3486   4.102   0.962  11.685 -0.3566 -2.4137 -1.1612
28498SOL    HW2 3487   4.163   1.036  11.568 -0.2329 -1.7412 -0.6767
28499SOL     OW 3488   8.164  13.826   9.247  0.0107 -0.4200 -0.0729
28499SOL    HW1 3489   8.165  13.759   9.179 -0.6240  0.3016 -0.8155
28499SOL    HW2 3490   8.152  13.778   9.329 -1.0460 -1.1648 -0.6504
28500SOL     OW 3491  10.277  10.629   7.983  0.8129 -0.3414 -0.3934
28500SOL    HW1 3492  10.267  10.695   8.051  1.2012  1.4593 -2.0169
28500SOL    HW2 3493  10.329  10.560   8.024 -1.2595 -0.6704  1.9829
28501SOL     OW 3494  12.583   7.152   0.697  0.7576 -0.6150 -0.6604
28501SOL    HW1 3495  12.504   7.140   0.645  1.5279 -0.9398 -1.7998
28501SOL    HW2 3496  12.653   7.115   0.644  1.7914  0.3329 -0.0187
28502SOL     OW 3497   1.209   6.891   7.543 -0.0746  0.5627  0.3088
28502SOL    HW1 3498   1.193   6.985   7.534  0.3447  0.7298  1.1842
28502SOL    HW2 3499   1.160   6.865   7.621  0.8095  0.3079  0.7870
28503SOL     OW 3500   4.169  11.337   3.808  0.0288 -0.1591 -0.4938
28503SOL    HW1 3501   4.176  11.293   3.892 -0.0705  0.5057 -0.1265
28503SOL    HW2 3502   4.152  11.267   3.745 -1.3000 -0.5235  0.2280
28504SOL     OW 3503   9.432  13.328   6.640 -0.7094  0.6013 -0.1389
28504SOL    HW1 3504   9.406  13.265   6.707 -1.5471  2.2942  1.2242
28504SOL    HW2 3505   9.523  13.350   6.662 -0.9400  1.0533  0.4003
28505SOL     OW 3506   3.683   9.947  11.046  0.0735 -0.0585 -0.4107
28505SOL    HW1 3507   3.752   9.974  10.986 -0.1556 -0.2520 -0.7664
28505SOL    HW2 3508   3.618  10.018  11.041  0.3890  0.2693  0.1550
28506SOL     OW 3509  11.176   5.663   7.899  0.2786 -0.2100 -0.0685
28506SOL    HW1 3510  11.168   5.595   7.966  0.0863  0.2214  0.3566
28506SOL    HW2 3511  11.224   5.621   7.828  1.7658 -0.2742  0.9205
28507SOL     OW 3512   5.172  10.744   5.712  0.2205 -0.0947 -0.2357
28507SOL    HW1 3513   5.259  10.730   5.749  0.3996 -1.6024 -1.1717
28507SOL    HW2 3514   5.176  10.707   5.624 -1.4099 -0.3282 -0.2470
28508SOL     OW 3515   1.568   2.720   8.136 -0.5628  0.2982 -0.1442
28508SOL    HW1 3516   1.485   2.682   8.107 -0.1699  0.1910 -1.1702
28508SOL    HW2 3517   1.633   2.652   8.120  0.0635  1.1786 -1.5303
28509SOL     OW 3518  11.143  12.798   9.987 -0.2646  0.3566  0.7818
28509SOL    HW1 3519  11.223  12.793  10.040 -0.5814  2.6155  1.5907
28509SOL    HW2 3520  11.101  12.713   9.998  2.6916 -1.4742 -0.8662
28510SOL     OW 3521   6.381   4.392  12.243 -0.2593  0.5529  0.0276
28510SOL    HW1 3522   6.293   4.412  12.276 -0.6161 -1.3458  0.3395
28510SOL    HW2 3523   6.382   4.428  12.155 -1.2094  0.9520  0.1694
28511SOL     OW 3524   3.585  13.508  12.373 -0.0053 -0.0133 -0.5321
28511SOL    HW1 3525   3.499  13.506  12.332 -1.3616  1.4628  2.0304
28511SOL    HW2 3526   3.592  13.595  12.412  1.6285 -0.8925  1.3491
28512SOL     OW 3527  14.078  12.624   8.500 -1.3750 -0.1404 -0.4869
28512SOL    HW1 3528  14.101  12.701   8.447 -1.1640 -1.0955 -1.8399
28512SOL    HW2 3529  14.026  12.660   8.572 -1.3302  1.2703 -1.1071
28513SOL     OW 3530   6.389   8.296  10.148  0.1076  0.3636  0.1473
28513SOL    HW1 3531   6.404   8.368  10.209  1.8204  0.3273 -0.1615
28513SOL    HW2 3532   6.477   8.273  10.117 -0.5022 -1.1683 -0.5494
28514SOL     OW 3533   6.097   5.941   5.539  0.3600 -0.1741 -0.1335
28514SOL    HW1 3534   6.054   5.866   5.580 -2.5694  0.7935 -1.1736
28514SOL    HW2 3535   6.118   5.912   5.450 -0.1099 -0.0048 -0.3030
28515SOL     OW 3536   2.561   6.774   6.378  0.2545  0.1625  0.1022
28515SOL    HW1 3537   2.545   6.861   6.340 -0.0210  0.7970  1.6193
28515SOL    HW2 3538   2.539   6.783   6.470  2.1233 -0.9884  0.7324
28516SOL     OW 3539   6.727   3.175   9.892 -0.5347  0.3965 -0.5742
28516SOL    HW1 3540   6.810   3.128   9.889 -0.7756 -0.2193  1.1641
28516SOL    HW2 3541   6.675   3.137   9.820  0.1803 -0.2012 -0.7853
28517SOL     OW 3542   9.906  13.664  12.060  0.0863 -0.2429  0.5238
28517SOL    HW1 3543   9.885  13.572  12.075 -1.0574  0.0790  1.0530
28517SOL    HW2 3544   9.853  13.711  12.124 -2.3168  1.0115 -2.1520
28518SOL     OW 3545   7.669  11.625   3.980 -0.0819 -0.2283 -0.7849
28518SOL    HW1 3546   7.660  11.558   3.912  0.8799  0.1512 -1.2928
28518SOL    HW2 3547   7.744  11.677   3.954  0.2725 -0.0318  0.5429
28519SOL     OW 3548   8.408  10.952  11.910 -0.0839 -0.0736  0.4291
28519SOL    HW1 3549   8.465  10.902  11.968 -2.5329 -2.7600  0.7627
28519SOL    HW2 3550   8.404  11.039  11.949  0.7679 -0.9239  2.5607
28520SOL     OW 3551   7.116   7.639   2.051  0.1134 -0.2169  0.6456
28520SOL    HW1 3552   7.074   7.645   1.965  1.2381  1.5819  0.1854
28520SOL    HW2 3553   7.194   7.586   2.037  0.0953 -0.2483  0.6600
28521SOL     OW 3554   6.358   7.434   7.055 -0.0319 -0.4025 -0.2691
28521SOL    HW1 3555   6.309   7.399   7.130  0.5639  1.1587  0.8910
28521SOL    HW2 3556   6.313   7.515   7.032  0.4020 -0.3458 -0.9596
28522SOL     OW 3557   0.001  11.075   2.274  0.0181  0.5011  0.4310
28522SOL    HW1 3558  -0.004  11.157   2.322 -1.9576  0.9128 -0.3755
28522SOL    HW2 3559  -0.055  11.015   2.324  2.8159 -0.9630  2.0079
28523SOL     OW 3560   5.330   9.791  13.550 -0.1287 -0.2387 -0.1113
28523SOL    HW1 3561   5.398   9.856  13.566  0.1649 -0.4943 -0.3065
28523SOL    HW2 3562   5.378   9.710  13.532 -0.4821 -0.6957  0.8804
28524SOL     OW 3563  11.702   6.212  11.252  0.1985 -0.2559 -0.4590
28524SOL    HW1 3564  11.610   6.240  11.257 -0.0767 -1.3463  1.8090
28524SOL    HW2 3565  11.699   6.129  11.205 -0.2137 -1.0185  0.8559
28525SOL     OW 3566   9.475   3.725   4.245  0.5663  0.3257  0.2916
28525SOL    HW1 3567   9.496   3.665   4.173 -1.1989 -0.2620  0.2109
28525SOL    HW2 3568   9.551   3.721   4.303  1.4627 -0.1910 -0.8959
28526SOL     OW 3569  10.293   0.082  11.129 -0.1996  0.4926  0.2108
28526SOL    HW1 3570  10.269   0.172  11.151  1.3928  0.4373  2.5432
28526SOL    HW2 3571  10.262   0.029  11.203  3.0796 -0.1058  1.3619
28527SOL     OW 3572   8.261   3.906  12.644  0.0786  0.3185 -0.2604
28527SOL    HW1 3573   8.333   3.857  12.604  1.3385  2.0642 -0.2597
28527SOL    HW2 3574   8.244   3.859  12.726  2.6622  0.9546  0.7628
28528SOL     OW 3575  11.973   4.688   9.327 -0.4421  0.4912  0.4902
28528SOL    HW1 3576  12.045   4.751   9.338  0.2989 -0.5871  2.2276
28528SOL    HW2 3577  11.894   4.740   9.344  0.0541  1.2677  0.4796
28529SOL     OW 3578  10.108   8.887  11.908  0.2848 -0.3148  0.2103
28529SOL    HW1 3579  10.126   8.812  11.964  1.6044 -0.9579 -1.0133
28529SOL    HW2 3580  10.128   8.856  11.819 -1.6386  0.6948 -0.6283
28530SOL     OW 3581   2.717   6.072   2.370  0.4154  0.9158 -0.4582
28530SOL    HW1 3582   2.642   6.093   2.315  0.9936  2.4381 -0.7060
28530SOL    HW2 3583   2.691   5.993   2.417 -0.5548  0.2655 -2.0175
28531SOL     OW 3584  12.179  12.409  13.266 -0.5896 -0.4841 -0.3939
28531SOL    HW1 3585  12.163  12.503  13.280 -0.5582 -0.3816 -1.0410
28531SOL    HW2 3586  12.258  12.392  13.318 -0.7028 -0.1995 -0.1154
28532SOL     OW 3587   7.664   3.005   9.602  0.2268  0.5051 -0.3989
28532SOL    HW1 3588   7.595   3.056   9.561  0.5269  2.5637  1.5226
28532SOL    HW2 3589   7.735   3.004   9.537 -1.2330 -0.9950 -2.0758
28533SOL     OW 3590   3.515   0.730   8.137  0.3169  0.1298  0.4551
28533SOL    HW1 3591   3.567   0.786   8.080 -1.0316  0.9565 -0.0321
28533SOL    HW2 3592   3.573   0.659   8.162  1.5180  0.7830 -0.4081
28534SOL     OW 3593   8.334   3.715   3.132  0.1869  0.2938  0.1327
28534SOL    HW1 3594   8.427   3.704   3.154 -0.3182 -0.6105  2.0089
28534SOL    HW2 3595   8.300   3.626   3.127 -0.0468  0.4191 -3.5197
28535SOL     OW 3596   8.142   7.990   5.797  0.3253  0.4045  0.3476
28535SOL    HW1 3597   8.076   7.993   5.728  1.5409  0.7373 -0.8558
28535SOL    HW2 3598   8.110   8.050   5.865 -0.1671  1.2645 -0.6279
28536SOL     OW 3599   7.495   0.533   7.726 -0.2217 -0.6192  0.2683
28536SOL    HW1 3600   7.585   0.502   7.734 -0.7139 -2.0461  0.7146
28536SOL    HW2 3601   7.451   0.464   7.676 -0.7013  0.8788 -1.5064
28537SOL     OW 3602   3.219  13.017  13.804 -0.2771  0.5240 -0.1530
28537SOL    HW1 3603   3.176  13.071  13.870  1.8098  2.1844 -0.0615
28537SOL    HW2 3604   3.169  13.032  13.724 -0.6369  1.3927  0.2252
28538SOL     OW 3605   5.646   4.676  12.984  0.9153  0.2583  0.0678
28538SOL    HW1 3606   5.618   4.627  13.062  3.1129  0.4238  1.0415
28538SOL    HW2 3607   5.626   4.767  13.005 -0.1026  0.1307 -0.3218
28539SOL     OW 3608   2.833   3.099   9.126  0.3156  0.1276  0.2863
28539SOL    HW1 3609   2.807   3.080   9.036  2.4379 -0.9235 -0.1742
28539SOL    HW2 3610   2.754   3.084   9.177 -1.0402  1.0779 -1.4000
28540SOL     OW 3611  14.132   9.131  12.851  0.0948  1.0925 -0.5046
28540SOL    HW1 3612  14.167   9.044  12.870 -2.9619  0.1497  1.4395
28540SOL    HW2 3613  14.201   9.191  12.879  0.7834 -0.6588  1.8874
28541SOL     OW 3614   8.668   2.225  10.644 -0.0941  0.6410 -0.0125
28541SOL    HW1 3615   8.651   2.135  10.671 -1.2886  0.9924  0.5067
28541SOL    HW2 3616   8.763   2.234  10.646 -0.0032 -0.3344  0.8657
28542SOL     OW 3617  14.020   3.426  13.850  0.0474  0.1602 -0.3033
28542SOL    HW1 3618  14.078   3.359  13.887  1.6040  1.6353  0.0898
28542SOL    HW2 3619  13.982   3.385  13.772  0.0685 -1.5335  0.5411
28543SOL     OW 3620   1.319  14.112   2.987  0.1818  0.3558  0.1898
28543SOL    HW1 3621   1.258  14.090   2.916  0.7080 -0.7692  0.0602
28543SOL    HW2 3622   1.405  14.085   2.953  0.7985  2.0651  0.2981
28544SOL     OW 3623   8.954   2.805   2.157 -0.0838  0.4727  0.1074
28544SOL    HW1 3624   9.009   2.728   2.171 -0.5873 -0.0638 -0.7941
28544SOL    HW2 3625   8.938   2.807   2.063 -2.4505 -0.0054  0.4215
28545SOL     OW 3626   6.644  11.637  11.945  0.1755  0.1879 -0.2040
28545SOL    HW1 3627   6.697  11.565  11.980 -0.1291 -0.6083 -1.3228
28545SOL    HW2 3628   6.652  11.707  12.010 -0.4522 -1.2476  1.4723
28546SOL     OW 3629   4.668   6.784  11.785 -0.0732  0.0636 -0.8129
28546SOL    HW1 3630   4.661   6.845  11.859  0.7127 -0.4059 -0.3390
28546SOL    HW2 3631   4.751   6.806  11.743  0.1556 -0.5986 -0.7109
28547SOL     OW 3632  13.907   0.842   9.738  0.3893 -0.4516 -0.3648
28547SOL    HW1 3633  13.975   0.780   9.766 -1.3718 -1.4527  2.0778
28547SOL    HW2 3634  13.825   0.797   9.756 -0.9741  2.1114  0.2977
28548SOL     OW 3635   3.769   4.469  12.212  0.2273  0.5177 -0.5005
28548SOL    HW1 3636   3.714   4.420  12.150 -0.3265 -0.7661  0.9239
28548SOL    HW2 3637   3.805   4.541  12.161 -0.8003 -0.0548 -2.1124
28549SOL     OW 3638  10.200  10.522  12.835 -0.3031  0.9715 -0.7362
28549SOL    HW1 3639  10.209  10.616  12.852  0.1437  0.6170  1.3248
28549SOL    HW2 3640  10.281  10.497  12.790  1.4518  0.9619  2.1415
28550SOL     OW 3641   9.526   1.112   1.332 -0.0184  0.1350 -0.2157
28550SOL    HW1 3642   9.496   1.197   1.298  0.6118  0.1463 -0.7657
28550SOL    HW2 3643   9.498   1.049   1.265  0.2984  0.0245 -0.2459
28551SOL     OW 3644   6.193   5.749  11.781  0.1454 -0.2259 -0.6804
28551SOL    HW1 3645   6.250   5.807  11.832  0.0099 -1.0026  0.3940
28551SOL    HW2 3646   6.149   5.695  11.846 -0.2875 -1.0360 -1.6109
28552SOL     OW 3647   9.699  12.804  13.486  0.0584 -0.2523  0.4355
28552SOL    HW1 3648   9.608  12.777  13.503 -0.8230  2.1067 -0.1613
28552SOL    HW2 3649   9.707  12.802  13.391  0.4310  0.1627  0.4562
28553SOL     OW 3650  10.792   4.292   4.834  0.1026 -0.2843 -0.3236
28553SOL    HW1 3651  10.868   4.348   4.816 -0.0661  0.7970  2.0127
28553SOL    HW2 3652  10.825   4.203   4.821  1.4401  0.2099 -0.5385
28554SOL     OW 3653   7.170   2.429   1.592  0.2852 -0.4483 -0.4738
28554SOL    HW1 3654   7.188   2.343   1.553  0.7376 -0.2872 -0.6341
28554SOL    HW2 3655   7.161   2.487   1.517 -1.1220 -0.5482 -0.4012
28555SOL     OW 3656   6.448   7.200   4.524  0.4124 -0.1593  1.0283
28555SOL    HW1 3657   6.410   7.280   4.488 -0.5680 -0.7322  0.7421
28555SOL    HW2 3658   6.436   7.135   4.454  1.4193 -0.4951  1.1600
28556SOL     OW 3659  12.877   4.960  11.856  0.2771 -0.2740  0.1837
28556SOL    HW1 3660  12.952   5.003  11.815  0.2321  0.1984  0.5763
28556SOL    HW2 3661  12.801   4.997  11.811  0.2352  0.1227  0.5727
28557SOL     OW 3662   7.550   8.223   0.950 -0.0833 -0.4410 -0.0761
28557SOL    HW1 3663   7.607   8.160   0.907  0.7855 -1.0925  1.8753
28557SOL    HW2 3664   7.466   8.178   0.957 -0.0565 -0.5652 -0.5275
28558SOL     OW 3665   2.813  11.489   6.205 -0.0853 -0.4666 -0.2517
28558SOL    HW1 3666   2.858  11.411   6.171  1.5006  0.9456 -1.5641
28558SOL    HW2 3667   2.874  11.561   6.188 -2.1350  1.2975 -0.4626
28559SOL     OW 3668  11.329  13.678  11.289 -0.2909 -0.2397 -0.2921
28559SOL    HW1 3669  11.316  13.691  11.383  1.4279 -2.1675  0.2884
28559SOL    HW2 3670  11.269  13.740  11.248 -3.0210 -1.0795  2.0517
28560SOL     OW 3671  12.960   1.493  12.267  0.5496 -0.3111  0.1204
28560SOL    HW1 3672  12.912   1.521  12.189  0.6765 -1.3149 -0.3328
28560SOL    HW2 3673  13.039   1.450  12.233  1.8517  1.3972  0.8524
28561SOL     OW 3674  13.894   5.433   6.624  0.2191 -0.4147  0.3895
28561SOL    HW1 3675  13.857   5.481   6.698 -0.0402 -0.2401  0.1528
28561SOL    HW2 3676  13.865   5.483   6.547  1.4640  0.0860  0.2171
28562SOL     OW 3677   0.465   9.692  13.981  0.5656  0.5930 -0.1876
28562SOL    HW1 3678   0.528   9.635  13.937  1.7836  2.7827 -1.4538
28562SOL    HW2 3679   0.507   9.777  13.983 -1.8237  1.8424  0.1763
28563SOL     OW 3680  12.300  13.783   1.161 -0.3694  0.0832  0.3168
28563SOL    HW1 3681  12.218  13.805   1.205  0.6396  1.5713  1.5687
28563SOL    HW2 3682  12.368  13.815   1.221  1.1250 -1.0681 -0.7087
28564SOL     OW 3683  10.944   9.390   9.529  0.5767  0.0264 -0.0170
28564SOL    HW1 3684  10.891   9.462   9.494 -0.0781  0.3946  1.6289
28564SOL    HW2 3685  10.882   9.338   9.579  1.3594 -0.8178  0.0913
28565SOL     OW 3686   4.544   1.490  11.184  0.0288 -0.5391 -0.4260
28565SOL    HW1 3687   4.500   1.489  11.269 -0.7141 -1.7088 -0.8074
28565SOL    HW2 3688   4.561   1.583  11.167 -0.3714 -0.2437  0.7135
28566SOL     OW 3689   7.094   4.096  11.193  0.3605 -0.2575 -0.3836
28566SOL    HW1 3690   7.129   4.142  11.269 -0.1271 -0.8417  0.2064
28566SOL    HW2 3691   7.132   4.142  11.118  0.6586  0.4778  0.2021
28567SOL     OW 3692  12.649   6.702  10.467  0.1874 -0.0291 -0.1676
28567SOL    HW1 3693  12.744   6.717  10.467 -0.0041  1.3677 -0.8214
28567SOL    HW2 3694  12.637   6.626  10.524  1.9810 -2.3127 -2.5787
28568SOL     OW 3695  11.009  11.871   5.069 -0.5331  0.3908 -0.0966
28568SOL    HW1 3696  11.026  11.899   4.979  0.4667  0.8332  0.2243
28568SOL    HW2 3697  11.071  11.800   5.085 -0.8101  0.2110  0.2017
28569SOL     OW 3698   1.012  11.695   1.261 -0.8395  0.7133  0.1196
28569SOL    HW1 3699   0.942  11.629   1.262 -0.8273  0.6980 -0.0034
28569SOL    HW2 3700   1.093  11.644   1.254 -0.7377  0.6685  1.3515
28570SOL     OW 3701   3.601   1.687  13.020 -0.2574 -0.2713  0.7068
28570SOL    HW1 3702   3.680   1.717  12.974 -0.9385  1.4039  0.5331
28570SOL    HW2 3703   3.614   1.714  13.110 -0.0718 -1.1674  0.9509
28571SOL     OW 3704   9.379   6.646   8.449 -0.2819 -0.2654  0.0715
28571SOL    HW1 3705   9.411   6.593   8.376 -0.4004  1.0218 -0.9517
28571SOL    HW2 3706   9.340   6.582   8.509 -1.0770 -1.2898 -1.4561
28572SOL     OW 3707   5.356   2.569   9.652  0.3952  0.5318  0.5365
28572SOL    HW1 3708   5.338   2.655   9.613 -0.3128 -0.1957 -0.8318
28572SOL    HW2 3709   5.373   2.587   9.744  1.7092  2.3009 -0.0063
28573SOL     OW 3710  11.020   9.534   7.974 -0.4667 -0.4332 -0.1570
28573SOL    HW1 3711  11.079   9.463   7.947  0.5809  0.6916 -0.9431
28573SOL    HW2 3712  10.966   9.550   7.897  0.0415  0.3334 -0.3658
28574SOL     OW 3713   8.598   9.925   0.891 -0.1537  0.0039 -0.0977
28574SOL    HW1 3714   8.542   9.871   0.947  1.3655 -1.0745  0.4509
28574SOL    HW2 3715   8.539   9.992   0.855 -1.9063 -1.4644 -0.0772
28575SOL     OW 3716  10.480   6.069  12.731  0.1445 -0.7298 -0.0309
28575SOL    HW1 3717  10.418   5.997  12.721  0.0799 -0.4671 -1.9523
28575SOL    HW2 3718  10.505   6.092  12.641  1.5677  0.4329  0.6142
28576SOL     OW 3719  13.303   1.971   1.245 -0.7787 -0.0279 -0.1005
28576SOL    HW1 3720  13.241   2.008   1.182 -2.2989  0.3916  1.5657
28576SOL    HW2 3721  13.375   2.034   1.248  0.1980 -0.9025 -2.6307
28577SOL     OW 3722   9.480  13.398  10.534  0.0214  0.6010 -0.5885
28577SOL    HW1 3723   9.533  13.332  10.489 -0.9554 -0.6424  0.0030
28577SOL    HW2 3724   9.514  13.400  10.624 -0.0424  0.7971 -0.5683
28578SOL     OW 3725   9.840  13.023   4.458  0.1698  0.0222  0.5725
28578SOL    HW1 3726   9.813  13.115   4.457  0.3192  0.0997 -1.6714
28578SOL    HW2 3727   9.932  13.025   4.429 -0.0693 -0.8581 -0.3049
28579SOL     OW 3728   9.928   9.125   9.873 -0.3952 -0.0628  0.0474
28579SOL    HW1 3729   9.949   9.187   9.803  1.0954 -0.2761  0.2875
28579SOL    HW2 3730   9.993   9.142   9.941  0.4795 -2.3101 -0.1370
28580SOL     OW 3731   6.692   7.639   1.877 -0.0057 -0.3049  0.5795
28580SOL    HW1 3732   6.736   7.610   1.957  1.1469  0.8349  0.3974
28580SOL    HW2 3733   6.642   7.563   1.848  0.1817 -0.9809  1.9535
28581SOL     OW 3734   7.037   0.571   5.538  0.2235  0.2893 -0.5067
28581SOL    HW1 3735   7.126   0.551   5.566  0.5972 -3.3781 -3.5359
28581SOL    HW2 3736   6.985   0.495   5.565 -1.8332  1.8286  0.1973
28582SOL     OW 3737  11.257   7.545   1.411  0.1204 -0.2335  0.0332
28582SOL    HW1 3738  11.195   7.484   1.371  1.2420 -0.9294 -0.6923
28582SOL    HW2 3739  11.311   7.575   1.339  0.4051  0.6536  0.5961
28583SOL     OW 3740   0.019   5.046   0.109 -0.0832 -0.1235 -0.0092
28583SOL    HW1 3741  -0.076   5.038   0.101 -0.1218  0.3510 -0.0506
28583SOL    HW2 3742   0.041   4.998   0.188 -0.3322 -0.4181 -0.1188
28584SOL     OW 3743  11.545  11.975   0.440  0.1302  0.3092 -0.3335
28584SOL    HW1 3744  11.637  11.992   0.420  0.4205 -0.4503  0.2885
28584SOL    HW2 3745  11.537  11.993   0.534 -0.1894 -0.2847 -0.2401
28585SOL     OW 3746   9.180  11.699  13.650 -0.0082  0.3312  0.6384
28585SOL    HW1 3747   9.196  11.607  13.633 -1.8829 -0.0017  0.4859
28585SOL    HW2 3748   9.214  11.745  13.574 -1.6662 -0.5147 -0.6708
28586SOL     OW 3749   8.686   3.237   8.972 -0.2568  0.0795  0.2948
28586SOL    HW1 3750   8.745   3.311   8.982 -0.1884  0.1661 -0.6415
28586SOL    HW2 3751   8.685   3.220   8.877  1.6096 -2.6344  0.6538
28587SOL     OW 3752  13.674   1.813  13.192 -0.1474  0.4821 -0.5702
28587SOL    HW1 3753  13.626   1.876  13.246  1.2071 -0.9952  2.6380
28587SOL    HW2 3754  13.750   1.862  13.161 -0.9412  1.3690 -1.1726
28588SOL     OW 3755   3.510  10.362   2.049 -0.0928  0.4281  0.1186
28588SOL    HW1 3756   3.480  10.445   2.086 -0.2739 -0.8832  3.1563
28588SOL    HW2 3757   3.431  10.309   2.040  0.3093 -0.2610  0.5347
28589SOL     OW 3758   2.227   2.652  13.822 -0.0600 -0.1856 -0.1240
28589SOL    HW1 3759   2.314   2.626  13.791  0.0449  1.3131 -1.1566
28589SOL    HW2 3760   2.188   2.699  13.749 -2.2350 -1.8066 -0.0955
28590SOL     OW 3761   0.804  13.276  12.206  0.5632  0.2395  0.0290
28590SOL    HW1 3762   0.775  13.332  12.278  2.8186 -0.3452  1.4914
28590SOL    HW2 3763   0.897  13.298  12.194  1.1319 -2.1100 -0.3426
28591SOL     OW 3764   3.132   4.393   6.380 -0.1311 -0.0864  0.4849
28591SOL    HW1 3765   3.114   4.465   6.319  0.0317 -0.3721  0.0994
28591SOL    HW2 3766   3.150   4.318   6.324  0.7895 -0.1690  0.8741
28592SOL     OW 3767   5.740  10.157   8.788  0.2302  0.1728  0.3326
28592SOL    HW1 3768   5.673  10.200   8.841 -0.1231 -1.0220  0.8865
28592SOL    HW2 3769   5.762  10.078   8.838  0.3281 -0.6673 -1.0099
28593SOL     OW 3770  12.804  13.649  11.955 -0.3369  0.0166 -0.2785
28593SOL    HW1 3771  12.746  13.617  12.024  1.9633 -1.6032  1.0041
28593SOL    HW2 3772  12.793  13.586  11.884  1.4007 -1.6175  0.8165
28594SOL     OW 3773   6.728   6.180   7.961  0.0516 -0.0060 -0.1760
28594SOL    HW1 3774   6.648   6.234   7.961 -1.2430 -1.8200  0.1854
28594SOL    HW2 3775   6.713   6.115   7.893  3.5268  2.5838 -3.9128
28595SOL     OW 3776   9.264   4.408  11.150 -0.5729  0.1038 -0.2876
28595SOL    HW1 3777   9.332   4.468  11.182 -1.9805  2.1170 -0.9035
28595SOL    HW2 3778   9.281   4.326  11.197 -0.2841  1.7822  2.8163
28596SOL     OW 3779  12.486   4.390   6.383  0.5314  0.2681 -0.1992
28596SOL    HW1 3780  12.571   4.351   6.364  0.7854 -0.5067  2.1954
28596SOL    HW2 3781  12.470   4.449   6.310  2.9182  0.0976 -0.9430
28597SOL     OW 3782  12.173  10.593  13.516  0.3381 -0.3031 -0.1902
28597SOL    HW1 3783  12.166  10.623  13.606  2.4798  1.1382 -0.4353
28597SOL    HW2 3784  12.151  10.500  13.520 -0.9499  0.0138  1.5494
28598SOL     OW 3785   6.385   1.400   1.892 -0.5031 -0.5164  0.6440
28598SOL    HW1 3786   6.325   1.433   1.825  1.0241 -0.0987 -0.5703
28598SOL    HW2 3787   6.431   1.327   1.850  0.4352 -0.2883  1.2490
28599SOL     OW 3788   3.553   1.581   3.511 -0.2562  0.2639 -0.2826
28599SOL    HW1 3789   3.498   1.528   3.568  0.3867  0.0424  0.1361
28599SOL    HW2 3790   3.509   1.666   3.506 -1.6847 -0.4946 -1.5282
28600SOL     OW 3791   9.628  12.732   2.851 -0.4339  0.4225 -0.2872
28600SOL    HW1 3792   9.556  12.670   2.861 -0.2823 -0.0060 -1.6273
28600SOL    HW2 3793   9.587  12.818   2.844 -0.8045  0.2202 -0.6409
28601SOL     OW 3794   9.250   0.329   6.795 -0.2545 -0.6744 -0.0139
28601SOL    HW1 3795   9.239   0.380   6.875 -0.5620  1.0570 -1.0914
28601SOL    HW2 3796   9.172   0.274   6.791 -1.6134  1.1662 -0.4097
28602SOL     OW 3797  11.073   5.506   0.013  0.0025 -0.2356 -0.0695
28602SOL    HW1 3798  11.071   5.596   0.046 -0.3002 -0.2396 -0.0811
28602SOL    HW2 3799  11.102   5.454   0.088 -2.3562 -0.4848  0.7472
28603SOL     OW 3800  11.877   5.584  10.459 -0.4110  0.2463  0.4958
28603SOL    HW1 3801  11.835   5.531  10.528 -0.2591 -0.4970  0.0315
28603SOL    HW2 3802  11.899   5.521  10.391  1.4261  0.6123  0.7002
28604SOL     OW 3803   9.002  11.205   7.677 -0.0378 -0.2714  0.6545
28604SOL    HW1 3804   8.953  11.145   7.733 -1.6302 -1.0997 -1.4745
28604SOL    HW2 3805   9.093  11.195   7.705 -0.4524 -2.5283  1.4091
28605SOL     OW 3806   5.575   2.582  11.810 -0.3919  0.0910 -0.0641
28605SOL    HW1 3807   5.504   2.529  11.775  1.3480 -0.7616 -2.6285
28605SOL    HW2 3808   5.641   2.519  11.837  1.0191  0.8699 -1.5377
28606SOL     OW 3809  10.492   0.683   2.225 -0.1258 -0.0030 -0.2997
28606SOL    HW1 3810  10.438   0.607   2.244 -0.0023 -0.2909 -1.0552
28606SOL    HW2 3811  10.501   0.683   2.130 -1.8720  2.1605 -0.5610
28607SOL     OW 3812  13.540   3.499   8.053 -0.0215  0.0405  0.2992
28607SOL    HW1 3813  13.483   3.423   8.049 -1.3648  0.9944  0.5510
28607SOL    HW2 3814  13.628   3.465   8.035 -0.9742 -1.0994 -2.9389
28608SOL     OW 3815   0.524  10.981   8.204  0.8672  0.0896  0.1511
28608SOL    HW1 3816   0.442  10.933   8.207  1.3361 -0.7678 -0.5097
28608SOL    HW2 3817   0.500  11.067   8.170  0.4772 -0.6848 -1.6095
28609SOL     OW 3818   8.395   9.470   1.413 -0.1678 -0.4057  0.2314
28609SOL    HW1 3819   8.340   9.458   1.491 -1.0156 -0.1484 -0.3185
28609SOL    HW2 3820   8.389   9.386   1.367 -2.5494  0.5413 -1.3571
28610SOL     OW 3821   9.907   9.257   2.364  0.7152  0.0156 -0.2045
28610SOL    HW1 3822   9.909   9.248   2.459 -2.8960 -0.1737 -0.0357
28610SOL    HW2 3823   9.940   9.345   2.348 -1.3869  1.2131  1.5463
28611SOL     OW 3824  11.900   0.084   6.844 -0.2335 -0.6361 -0.2056
28611SOL    HW1 3825  11.829   0.020   6.848 -0.9999  0.2779  1.5486
28611SOL    HW2 3826  11.973   0.035   6.806 -1.9990 -1.3389 -3.1064
28612SOL     OW 3827  12.707   1.113   2.149  0.1092 -0.6167 -0.2640
28612SOL    HW1 3828  12.706   1.178   2.079  1.2299 -1.0112 -0.6633
28612SOL    HW2 3829  12.616   1.085   2.157  0.0625 -1.0505 -2.0328
28613SOL     OW 3830   8.483   0.728   4.141  0.2296 -0.6126  0.1137
28613SOL    HW1 3831   8.502   0.813   4.180  2.7708 -0.4875 -1.1328
28613SOL    HW2 3832   8.519   0.735   4.052 -0.4311 -2.6498 -0.3559
28614SOL     OW 3833  13.779  12.415  12.912 -0.5098  0.2519  0.2803
28614SOL    HW1 3834  13.825  12.331  12.912 -0.3638  0.3304  0.9180
28614SOL    HW2 3835  13.733  12.416  12.828  1.5899  0.6906 -0.9314
28615SOL     OW 3836   4.198  13.052   6.070 -0.1263 -0.1622  0.3929
28615SOL    HW1 3837   4.234  12.971   6.035 -1.0210 -0.2618 -0.3350
28615SOL    HW2 3838   4.107  13.052   6.040 -0.3223  0.7777  0.9671
28616SOL     OW 3839  12.666   3.400   8.645  0.6791 -0.2973 -0.5159
28616SOL    HW1 3840  12.598   3.409   8.578 -0.5109  1.9004  0.9038
28616SOL    HW2 3841  12.642   3.320   8.692  0.3199 -0.7075 -1.3722
28617SOL     OW 3842   7.239   7.095   1.315 -0.1643 -0.0231  0.3161
28617SOL    HW1 3843   7.153   7.090   1.357 -0.5329  1.0028 -0.2855
28617SOL    HW2 3844   7.243   7.016   1.260 -1.2746  0.5638 -0.6414
28618SOL     OW 3845  10.237   9.079   6.494 -0.5130  0.0461  0.3826
28618SOL    HW1 3846  10.152   9.075   6.449 -0.0263 -1.0884 -0.4785
28618SOL    HW2 3847  10.220   9.132   6.572 -1.2395  2.6602 -1.4363
28619SOL     OW 3848   7.137  12.404   3.122  0.3425 -0.3555 -0.3910
28619SOL    HW1 3849   7.117  12.472   3.058 -0.6761 -0.4800 -0.2292
28619SOL    HW2 3850   7.058  12.399   3.176  0.4746 -1.5309 -0.2869
28620SOL     OW 3851   1.232   7.234   8.578  0.1208 -0.3756 -0.2409
28620SOL    HW1 3852   1.309   7.271   8.533  0.5259 -0.5462  0.3108
28620SOL    HW2 3853   1.158   7.266   8.526  0.5059  0.5801 -0.2324
28621SOL     OW 3854   3.297   8.828   1.245  1.1316 -0.1256 -0.7975
28621SOL    HW1 3855   3.226   8.774   1.210 -0.1352  0.5405  0.6638
28621SOL    HW2 3856   3.282   8.830   1.339  0.8272  3.1276 -0.7886
28622SOL     OW 3857   6.113   0.709   4.986  0.4629 -0.3580  0.0097
28622SOL    HW1 3858   6.019   0.700   4.971  0.7517 -0.1274 -2.2475
28622SOL    HW2 3859   6.123   0.798   5.020 -0.1155 -0.3416  0.1487
28623SOL     OW 3860  11.196  12.656   9.418 -0.0362  0.4317  0.0645
28623SOL    HW1 3861  11.202  12.601   9.497  3.1424 -3.2114 -2.3496
28623SOL    HW2 3862  11.251  12.732   9.438 -0.0931  0.0890  1.6977
28624SOL     OW 3863   5.879  12.333  12.538 -0.2870 -0.2799  0.4397
28624SOL    HW1 3864   5.836  12.248  12.529 -0.2211 -0.2336 -0.3400
28624SOL    HW2 3865   5.950  12.318  12.601  2.2643 -1.8264 -2.5473
28625SOL     OW 3866   3.176   1.625   3.108  0.8770 -0.1527 -0.1577
28625SOL    HW1 3867   3.198   1.718   3.107 -1.1110  0.3817 -1.7091
28625SOL    HW2 3868   3.080   1.623   3.115  1.0068 -2.1942  2.7160
28626SOL     OW 3869   8.758   8.327  11.889 -0.5301 -0.0700  0.2457
28626SOL    HW1 3870   8.670   8.301  11.863 -1.0440  0.1124  1.6885
28626SOL    HW2 3871   8.779   8.401  11.834 -2.0380  1.0418  1.0987
28627SOL     OW 3872  12.640   9.542   4.715  0.6811 -0.0851 -0.7841
28627SOL    HW1 3873  12.643   9.477   4.785 -0.2740  0.2594 -0.4097
28627SOL    HW2 3874  12.610   9.493   4.638  0.4580 -0.1848 -0.6314
28628SOL     OW 3875   1.807   8.243  10.782 -0.3717  0.7887 -0.4423
28628SOL    HW1 3876   1.719   8.223  10.813  0.2298 -0.8111  0.3735
28628SOL    HW2 3877   1.835   8.162  10.738  1.2813  0.6803  0.7410
28629SOL     OW 3878   1.357   9.675   9.774 -0.0647 -0.1717  0.1795
28629SOL    HW1 3879   1.294   9.646   9.707  0.1772  0.3297 -0.2735
28629SOL    HW2 3880   1.308   9.738   9.827  0.3204  0.9629 -0.7723
28630SOL     OW 3881   8.304   2.229   2.071 -0.3725 -0.1857 -0.2513
28630SOL    HW1 3882   8.365   2.302   2.058 -0.3845  0.6858  3.4560
28630SOL    HW2 3883   8.339   2.182   2.146 -2.2957 -1.9304 -0.3634
28631SOL     OW 3884  14.024   9.605   5.993 -0.2260  0.1392  0.0974
28631SOL    HW1 3885  14.002   9.640   5.907 -1.1737 -0.5422  0.0438
28631SOL    HW2 3886  14.062   9.679   6.041  0.6238  0.4412 -0.9976
28632SOL     OW 3887   5.203  12.117   8.402 -0.4258 -0.4357 -0.3486
28632SOL    HW1 3888   5.175  12.112   8.311  0.6827  0.7686 -0.7832
28632SOL    HW2 3889   5.150  12.051   8.447 -0.7002 -1.3402 -1.9256
28633SOL     OW 3890   8.865   4.909   1.300 -0.2173  0.5098  0.2929
28633SOL    HW1 3891   8.820   4.885   1.219  4.2030  0.2142 -2.3820
28633SOL    HW2 3892   8.857   4.832   1.357  0.0298 -0.9301 -1.5524
28634SOL     OW 3893   4.942   6.554   8.906 -0.6742 -0.3367 -0.3347
28634SOL    HW1 3894   4.977   6.642   8.919 -1.2405 -0.1136 -0.3012
28634SOL    HW2 3895   5.020   6.497   8.908 -0.0240  0.3635 -2.5252
28635SOL     OW 3896  11.726  10.647   3.239 -0.7902 -0.0164  0.1555
28635SOL    HW1 3897  11.792  10.689   3.294 -1.2660  1.4820 -0.3623
28635SOL    HW2 3898  11.643  10.669   3.279 -1.0674 -0.1889 -0.3149
28636SOL     OW 3899   9.173   2.077  10.424  0.2685  0.3318  0.1562
28636SOL    HW1 3900   9.254   2.032  10.402 -0.7241 -0.4217 -2.3098
28636SOL    HW2 3901   9.116   2.008  10.459  0.2307  0.5950  0.6263
28637SOL     OW 3902   5.268  12.703   4.722  0.3814 -0.0002  0.2818
28637SOL    HW1 3903   5.253  12.619   4.679  1.6112  0.1293 -0.4558
28637SOL    HW2 3904   5.340  12.685   4.784  0.2703  0.3796  0.5230
28638SOL     OW 3905  10.695  13.079   6.982  0.2116  0.4081 -0.7162
28638SOL    HW1 3906  10.723  12.997   6.940  1.0615  1.0170 -1.3806
28638SOL    HW2 3907  10.626  13.052   7.043  0.1286 -0.7333 -1.2782
28639SOL     OW 3908  11.890  11.360  12.894  1.0853 -0.0958 -0.4757
28639SOL    HW1 3909  11.851  11.429  12.948  0.7147  0.7697 -1.7983
28639SOL    HW2 3910  11.952  11.316  12.952 -1.7772 -1.5205  1.7545
28640SOL     OW 3911   0.203   0.861   8.974  0.0759  0.5648 -0.5012
28640SOL    HW1 3912   0.188   0.767   8.964  0.8880  0.4318 -0.5662
28640SOL    HW2 3913   0.258   0.883   8.899  0.5685  0.9312 -0.0325
28641SOL     OW 3914  10.629   6.855   7.354 -0.0444  0.2888 -0.1940
28641SOL    HW1 3915  10.548   6.901   7.374  0.3086  0.7317  0.2302
28641SOL    HW2 3916  10.697   6.904   7.400  0.1514 -1.5456  1.6422
28642SOL     OW 3917  13.030   7.971   7.990 -0.1428  0.6369  0.2689
28642SOL    HW1 3918  12.963   7.903   7.992 -1.7547  2.0140 -2.0073
28642SOL    HW2 3919  13.088   7.946   7.919 -0.0910  1.0782  0.1554
28643SOL     OW 3920   9.558  11.188   3.775  0.8233  0.4583 -0.0786
28643SOL    HW1 3921   9.610  11.136   3.714 -1.2706 -0.6538 -1.0365
28643SOL    HW2 3922   9.541  11.270   3.728 -0.5090 -0.2676 -0.9479
28644SOL     OW 3923  13.395   0.639   9.740 -0.2936 -0.2789  0.1611
28644SOL    HW1 3924  13.341   0.576   9.693  0.1457  0.3699 -1.2553
28644SOL    HW2 3925  13.338   0.714   9.755 -0.1804 -0.1292 -0.1462
28645SOL     OW 3926   3.539   1.553   8.599  0.0235 -0.6521  0.0965
28645SOL    HW1 3927   3.544   1.470   8.551 -1.9718  0.0345 -1.4475
28645SOL    HW2 3928   3.524   1.527   8.690  2.1685 -1.9682  0.1424
28646SOL     OW 3929   9.582  13.034   7.587 -0.5955 -0.1729 -0.0891
28646SOL    HW1 3930   9.650  13.079   7.636  0.8054 -1.0960 -1.1136
28646SOL    HW2 3931   9.551  13.100   7.524 -1.5474  0.6236  1.1573
28647SOL     OW 3932   9.256  12.527   4.243 -0.6406  0.1328 -0.4548
28647SOL    HW1 3933   9.233  12.538   4.151 -0.7317 -0.1285 -0.4645
28647SOL    HW2 3934   9.231  12.609   4.284 -1.4438 -0.0860 -0.4937
28648SOL     OW 3935   0.641   7.954   9.134 -0.2342 -0.0617 -0.0194
28648SOL    HW1 3936   0.646   7.860   9.115 -0.3225 -0.1060  0.1788
28648SOL    HW2 3937   0.674   7.996   9.055 -1.9485 -0.2063 -0.8674
28649SOL     OW 3938   8.674   8.055  10.106  0.0432 -0.4782  0.2411
28649SOL    HW1 3939   8.729   8.133  10.106 -0.4105 -0.1471 -0.3874
28649SOL    HW2 3940   8.672   8.026  10.197  1.4084 -0.6135  0.2542
28650SOL     OW 3941  10.186   8.448   9.768  0.1373 -0.0569  0.0034
28650SOL    HW1 3942  10.220   8.537   9.773  0.4006 -0.2246  1.7164
28650SOL    HW2 3943  10.095   8.455   9.796 -0.7922  0.1057 -2.8150
28651SOL     OW 3944   4.932   0.599   4.893 -0.0399 -0.1903 -0.3342
28651SOL    HW1 3945   4.938   0.674   4.952  0.7450 -0.0275 -0.6103
28651SOL    HW2 3946   4.850   0.613   4.845  0.2746  0.6709 -0.6253
28652SOL     OW 3947   6.073   8.050   4.175  0.3156  0.2279 -0.3458
28652SOL    HW1 3948   6.105   8.140   4.175  0.2497  0.2526 -0.8108
28652SOL    HW2 3949   6.044   8.035   4.085 -1.2556  0.2988  0.1224
28653SOL     OW 3950   6.464   7.781  11.597 -0.0848  0.3711 -0.6071
28653SOL    HW1 3951   6.523   7.766  11.524 -1.1379 -0.3938 -1.3307
28653SOL    HW2 3952   6.471   7.702  11.650 -1.5164 -0.3895 -1.4827
28654SOL     OW 3953   2.029   5.022   9.305  0.4152 -0.1760  0.7446
28654SOL    HW1 3954   1.968   4.968   9.356 -0.2029  1.7028  2.1296
28654SOL    HW2 3955   2.115   4.999   9.339  0.2802 -1.1988  0.4061
28655SOL     OW 3956   6.468  10.599  12.147  0.3170 -0.2758  0.0104
28655SOL    HW1 3957   6.535  10.636  12.090  2.0611 -2.6174  0.3926
28655SOL    HW2 3958   6.475  10.649  12.228 -0.7627  1.6967 -1.0333
28656SOL     OW 3959   3.403   0.611   0.274 -0.3456  0.0705 -0.1182
28656SOL    HW1 3960   3.419   0.601   0.181  1.6264 -0.7586  0.2654
28656SOL    HW2 3961   3.446   0.536   0.315  0.5745  1.4559  1.6011
28657SOL     OW 3962  11.582   2.898  11.413 -0.3876  0.3982 -0.3423
28657SOL    HW1 3963  11.488   2.880  11.404 -0.1471 -0.1816 -2.2046
28657SOL    HW2 3964  11.604   2.945  11.332  1.0638 -0.0793 -0.2350
28658SOL     OW 3965   7.632  13.545   1.391  0.1954  0.2971 -0.5922
28658SOL    HW1 3966   7.721  13.512   1.380 -0.2925 -1.2559 -0.1977
28658SOL    HW2 3967   7.631  13.583   1.479  0.0394 -1.2617  0.1133
28659SOL     OW 3968   8.426  13.027   4.813  0.1168 -0.0303 -0.7763
28659SOL    HW1 3969   8.462  12.939   4.800 -0.7268 -0.4307 -0.4587
28659SOL    HW2 3970   8.343  13.013   4.858  1.1830  1.0578  1.7836
28660SOL     OW 3971  13.975   9.055   2.724  0.3400  0.2272 -0.5425
28660SOL    HW1 3972  13.948   9.109   2.798  2.6155  0.2137  0.3868
28660SOL    HW2 3973  13.895   9.039   2.676 -1.2790  0.1258  1.9940
28661SOL     OW 3974   6.434  13.807   8.988 -0.6943 -0.3059 -0.1663
28661SOL    HW1 3975   6.363  13.802   9.052 -0.4765 -0.7091  0.0449
28661SOL    HW2 3976   6.448  13.901   8.975 -0.5232 -0.2231  0.6118
28662SOL     OW 3977  12.173   9.577   7.259 -0.1634 -0.2591 -0.2473
28662SOL    HW1 3978  12.194   9.650   7.200  0.6373 -0.3924 -0.1436
28662SOL    HW2 3979  12.157   9.503   7.200 -0.9526 -0.0078 -0.3516
28663SOL     OW 3980   3.397   8.511   3.460  0.7329 -0.0793 -0.4493
28663SOL    HW1 3981   3.355   8.574   3.403  1.3688  0.7403 -0.0272
28663SOL    HW2 3982   3.325   8.471   3.509  0.4217  1.3280  0.2903
28664SOL     OW 3983  10.117   9.148   0.254 -0.3655  0.4931 -0.1455
28664SOL    HW1 3984  10.067   9.212   0.204  0.1326  1.5365  0.6653
28664SOL    HW2 3985  10.051   9.093   0.296 -0.8511  1.6706  0.6754
28665SOL     OW 3986   5.447  10.037  11.982  0.3233  0.2894  0.2690
28665SOL    HW1 3987   5.372  10.097  11.979 -0.7773 -1.0825 -0.9196
28665SOL    HW2 3988   5.420   9.968  12.042  0.1782 -0.7606 -0.9662
28666SOL     OW 3989   0.900  13.258  13.488  0.4675 -0.3777 -0.1633
28666SOL    HW1 3990   0.994  13.276  13.485  0.7904 -1.9964 -1.1767
28666SOL    HW2 3991   0.879  13.256  13.581  1.3342  0.4797  0.0632
28667SOL     OW 3992   7.349   0.199   3.294 -0.4043 -0.0101 -0.5758
28667SOL    HW1 3993   7.354   0.120   3.348 -0.2132 -0.3564 -1.0941
28667SOL    HW2 3994   7.262   0.234   3.312 -0.0290  0.3640  0.6214
28668SOL     OW 3995   4.054   6.711   2.496 -0.2374 -0.6172 -0.2846
28668SOL    HW1 3996   3.979   6.769   2.494 -1.5304 -2.1449 -3.0879
28668SOL    HW2 3997   4.103   6.732   2.416  1.6144 -0.5755  0.7913
28669SOL     OW 3998  11.063   7.203   8.768  0.0063  0.0212 -0.1664
28669SOL    HW1 3999  11.008   7.154   8.706  1.0153  0.6043 -1.5882
28669SOL    HW2 4000  11.094   7.136   8.829 -2.5649 -0.2508  0.9569
28670SOL     OW 4001   9.499   6.865   8.058  0.0364  0.0016  0.0776
28670SOL    HW1 4002   9.522   6.860   8.151  0.1713 -0.9868 -0.0002
28670SOL    HW2 4003   9.445   6.788   8.042 -1.4257  1.0699 -0.2886
28671SOL     OW 4004   8.231   1.315   4.293 -0.9008  0.2033  0.2821
28671SOL    HW1 4005   8.136   1.320   4.281 -0.7833 -0.7306 -1.2722
28671SOL    HW2 4006   8.268   1.343   4.210  0.0609 -3.4584 -0.7073
28672SOL     OW 4007   8.057   6.200  11.830  0.1247 -0.4441  0.0077
28672SOL    HW1 4008   8.129   6.253  11.863  0.5829  1.3106 -3.3852
28672SOL    HW2 4009   8.099   6.123  11.790 -0.1336 -0.8593  0.5244
28673SOL     OW 4010   3.301   3.048   5.737  0.0881 -0.4821 -0.6433
28673SOL    HW1 4011   3.367   3.117   5.748 -0.6534  0.1519  0.0314
28673SOL    HW2 4012   3.320   3.010   5.652  1.1964 -0.1835 -0.5511
28674SOL     OW 4013  14.064  13.901  13.836  0.1191  0.2587 -0.1755
28674SOL    HW1 4014  14.030  13.903  13.746 -0.1293  0.2482 -0.0825
28674SOL    HW2 4015  14.076  13.808  13.854  1.8862  0.3176 -0.8336
28675SOL     OW 4016   8.964   3.357  12.966 -0.3657  0.0165  0.3652
28675SOL    HW1 4017   8.921   3.296  12.906 -0.0892  0.5353 -0.3698
28675SOL    HW2 4018   8.904   3.431  12.972 -0.1020  0.2422  0.2309
28676SOL     OW 4019   5.452   9.391   6.943 -0.0680 -0.2712 -0.4447
28676SOL    HW1 4020   5.402   9.420   6.866  0.4849  0.5915 -0.4933
28676SOL    HW2 4021   5.535   9.361   6.906  0.2830  0.3492 -0.1763
28677SOL     OW 4022   4.893  13.556   5.131  0.3419  0.2357 -0.6636
28677SOL    HW1 4023   4.978  13.526   5.098 -0.5281  0.1659 -2.9823
28677SOL    HW2 4024   4.859  13.482   5.182  1.5917  0.2344  0.2153
28678SOL     OW 4025   3.958   3.021   6.233 -0.0075 -0.1074  0.1563
28678SOL    HW1 4026   4.030   3.030   6.171 -1.9445 -0.5814 -2.3660
28678SOL    HW2 4027   3.948   2.927   6.245 -0.9501 -0.1096 -0.5307
28679SOL     OW 4028   4.759   7.458   1.836  0.2446  0.1215  0.1446
28679SOL    HW1 4029   4.768   7.535   1.893  0.1483 -0.9715  1.7206
28679SOL    HW2 4030   4.801   7.388   1.885  1.4893 -0.5984 -1.8361
28680SOL     OW 4031   0.204  10.274  13.638 -0.2831 -0.2370 -0.1025
28680SOL    HW1 4032   0.265  10.313  13.701 -1.9487  1.9449  0.2905
28680SOL    HW2 4033   0.226  10.315  13.555 -0.2724 -0.5474 -0.2521
28681SOL     OW 4034   1.473  10.214   3.444  0.6363  0.0678 -0.0619
28681SOL    HW1 4035   1.387  10.214   3.403  0.6156  0.3233 -0.0167
28681SOL    HW2 4036   1.492  10.306   3.462  0.6655 -0.0368  0.4539
28682SOL     OW 4037   2.665   6.737   5.162  0.0884  0.1627 -0.0790
28682SOL    HW1 4038   2.745   6.707   5.206 -0.2743 -1.2204 -0.3149
28682SOL    HW2 4039   2.610   6.659   5.157 -1.1086  0.9988 -0.3055
28683SOL     OW 4040  11.545  12.834   5.487  0.1560  0.5104 -0.1952
28683SOL    HW1 4041  11.632  12.867   5.467 -0.0256  1.1289 -0.0099
28683SOL    HW2 4042  11.486  12.893   5.439 -0.2517  1.5248  1.4750
28684SOL     OW 4043   9.374   1.795   7.129 -0.2765 -0.3022 -0.0513
28684SOL    HW1 4044   9.378   1.798   7.033  1.0082  0.4296 -0.0001
28684SOL    HW2 4045   9.296   1.847   7.150  0.3130  0.9029 -0.6737
28685SOL     OW 4046   0.777   6.766   2.223  0.1179 -0.7511  0.1002
28685SOL    HW1 4047   0.738   6.825   2.288  0.6770 -1.0581  0.7224
28685SOL    HW2 4048   0.852   6.814   2.190 -0.4055 -0.4211 -0.6403
28686SOL     OW 4049   6.204   8.331   0.640 -0.4296  0.1506  0.2577
28686SOL    HW1 4050   6.280   8.286   0.601  1.5518  0.6599  3.1672
28686SOL    HW2 4051   6.205   8.418   0.601  0.8839  0.3245  0.6037
28687SOL     OW 4052   0.864  13.976   9.478 -1.0034 -0.0100  0.0087
28687SOL    HW1 4053   0.958  13.988   9.460 -0.6107 -2.2382  0.2544
28687SOL    HW2 4054   0.829  14.064   9.481  1.0623  0.8879 -0.2837
28688SOL     OW 4055   4.568   4.451   8.085 -0.0264  0.0481 -0.1811
28688SOL    HW1 4056   4.579   4.369   8.036  0.6029 -0.3357  0.5646
28688SOL    HW2 4057   4.497   4.432   8.147 -0.0333  0.1389 -0.1612
28689SOL     OW 4058   1.255   2.971   3.278 -0.3544  0.2712 -0.2019
28689SOL    HW1 4059   1.302   2.933   3.352  0.1289 -0.0590 -0.6720
28689SOL    HW2 4060   1.184   2.909   3.260 -0.5858  0.4485  0.1071
28690SOL     OW 4061  10.256  13.904   1.809 -0.1388 -0.1318 -0.2424
28690SOL    HW1 4062  10.196  13.893   1.883 -0.1518  1.1606 -0.0470
28690SOL    HW2 4063  10.338  13.931   1.848  0.8518 -2.5728 -0.4499
28691SOL     OW 4064   6.786   7.480   2.370 -0.5294 -0.6725 -0.2873
28691SOL    HW1 4065   6.840   7.406   2.346  0.7863  0.4021 -0.7696
28691SOL    HW2 4066   6.847   7.542   2.411 -1.1997  0.9254 -1.6025
28692SOL     OW 4067   9.134   6.333   5.616  0.4295  0.0453  0.2755
28692SOL    HW1 4068   9.154   6.421   5.649 -1.2785  1.2805 -1.7239
28692SOL    HW2 4069   9.149   6.339   5.521  0.2716 -1.8344  0.0897
28693SOL     OW 4070   7.154   8.210   5.594  0.0180  0.0900  0.2974
28693SOL    HW1 4071   7.208   8.135   5.568 -1.3257 -0.1134 -2.1679
28693SOL    HW2 4072   7.217   8.280   5.610  1.1625 -0.8883  0.2215
28694SOL     OW 4073  12.180   5.812   9.669 -0.2390  0.1433 -0.6409
28694SOL    HW1 4074  12.140   5.753   9.605  0.4026  0.7465 -1.6264
28694SOL    HW2 4075  12.228   5.754   9.728 -1.1246 -0.4478 -0.4783
28695SOL     OW 4076  11.553   0.369  12.772 -0.4436  0.4093  0.1941
28695SOL    HW1 4077  11.488   0.439  12.768 -2.3944 -1.1508  1.9532
28695SOL    HW2 4078  11.516   0.298  12.719  0.2525 -0.2010  0.4935
28696SOL     OW 4079   6.883  11.195  13.094 -0.1274 -0.8836  0.0623
28696SOL    HW1 4080   6.864  11.123  13.034 -0.7839  0.3004 -1.2183
28696SOL    HW2 4081   6.812  11.258  13.079 -0.7944 -0.8901  2.7088
28697SOL     OW 4082   5.899   5.310  13.536 -0.3240  0.0634 -0.1476
28697SOL    HW1 4083   5.933   5.380  13.480  0.7894 -1.1477 -1.0306
28697SOL    HW2 4084   5.826   5.274  13.488  0.6596 -1.0060 -0.8726
28698SOL     OW 4085   8.052  12.167  12.022 -0.0682 -0.1946  0.1144
28698SOL    HW1 4086   7.984  12.133  11.963  0.5586 -0.6340 -0.3654
28698SOL    HW2 4087   8.007  12.231  12.076 -1.4455 -2.1428  1.4237
28699SOL     OW 4088   8.833  10.382  11.561 -0.0078 -0.4470 -0.3679
28699SOL    HW1 4089   8.756  10.326  11.547 -0.6678 -0.0459  1.4264
28699SOL    HW2 4090   8.847  10.380  11.655 -0.3817  2.7977 -0.1171
28700SOL     OW 4091   8.178  10.757   7.134 -0.4408 -0.3846  0.3851
28700SOL    HW1 4092   8.101  10.749   7.078  0.8581  1.8608 -1.8794
28700SOL    HW2 4093   8.154  10.823   7.198 -0.3962  0.3640 -0.3620
28701SOL     OW 4094   4.784   0.920  12.832 -0.2767 -0.0166  0.0620
28701SOL    HW1 4095   4.806   0.987  12.768  0.2311 -1.0563 -0.8850
28701SOL    HW2 4096   4.851   0.927  12.899 -1.9224  2.4325  1.6310
28702SOL     OW 4097   6.780   5.827   9.509 -0.2920  0.3490  0.1002
28702SOL    HW1 4098   6.756   5.908   9.554 -2.3528 -1.3248  2.2215
28702SOL    HW2 4099   6.794   5.763   9.579  2.6188 -0.8927 -1.4366
28703SOL     OW 4100  10.789   5.094   3.716  0.5382 -0.5583  0.5804
28703SOL    HW1 4101  10.808   5.031   3.647  0.0384 -0.1816  0.0900
28703SOL    HW2 4102  10.722   5.051   3.770  0.4403 -0.5841  0.4388
28704SOL     OW 4103  12.498  10.016   7.668 -0.5481 -0.1038 -0.7380
28704SOL    HW1 4104  12.426   9.975   7.620  0.6659 -1.8763 -1.1549
28704SOL    HW2 4105  12.566  10.030   7.602 -0.0924  0.5129 -0.1510
28705SOL     OW 4106   6.267  13.512   6.008 -0.6241 -0.2058 -0.2666
28705SOL    HW1 4107   6.358  13.524   5.981 -0.7295  1.6779  0.0441
28705SOL    HW2 4108   6.216  13.531   5.929 -0.7923  1.0977  0.1300
28706SOL     OW 4109   0.681  10.827   9.072 -0.3468  0.0154  0.0460
28706SOL    HW1 4110   0.646  10.838   8.984  2.5119 -2.6279 -1.6197
28706SOL    HW2 4111   0.647  10.902   9.121 -3.1823  0.8480 -2.8764
28707SOL     OW 4112   6.250   8.727  13.520 -0.3250 -0.2034  1.3218
28707SOL    HW1 4113   6.300   8.715  13.601  0.3768  0.4650  1.0006
28707SOL    HW2 4114   6.316   8.745  13.453 -0.8966 -0.8322  0.5772
28708SOL     OW 4115  10.234  11.058   1.215 -0.1104  0.4202  0.3928
28708SOL    HW1 4116  10.195  11.144   1.232  1.1617  0.9259  0.8560
28708SOL    HW2 4117  10.217  11.042   1.122  0.1742  1.4661  0.1429
28709SOL     OW 4118   1.402   5.065  13.539  0.1903  0.1364  0.1317
28709SOL    HW1 4119   1.488   5.105  13.527 -0.0398  0.7682  0.5696
28709SOL    HW2 4120   1.396   5.000  13.469  0.7410  0.5720 -0.3270
28710SOL     OW 4121   1.414   7.211   5.906 -0.1339 -0.0601  0.2876
28710SOL    HW1 4122   1.462   7.286   5.871  1.5920 -1.0814  0.3616
28710SOL    HW2 4123   1.374   7.244   5.987 -0.5240  1.1197 -0.3532
28711SOL     OW 4124   4.731  13.695   0.137 -0.1486  0.0002 -0.2388
28711SOL    HW1 4125   4.772  13.625   0.087  0.1817  1.0186 -1.4452
28711SOL    HW2 4126   4.654  13.719   0.086  0.2747  1.1615 -0.3626
28712SOL     OW 4127   6.146   8.008  11.062  0.1171  0.8357  0.3079
28712SOL    HW1 4128   6.206   7.972  11.128 -0.8439 -0.1891  0.6645
28712SOL    HW2 4129   6.111   8.088  11.102  0.0483  0.5775  0.7673
28713SOL     OW 4130   5.512  11.331   1.222 -0.5233 -0.3003  0.0726
28713SOL    HW1 4131   5.570  11.277   1.169 -0.3047  1.7573 -1.9944
28713SOL    HW2 4132   5.425  11.319   1.182 -0.7392 -0.2311  0.5148
28714SOL     OW 4133   2.730   3.559  12.576 -0.5182  0.4212  0.0996
28714SOL    HW1 4134   2.807   3.504  12.592 -1.1057  0.1127  2.1281
28714SOL    HW2 4135   2.658   3.513  12.619 -1.6245  1.2901 -0.7582
28715SOL     OW 4136  12.524   4.546   7.423  0.2009  0.5489 -0.4131
28715SOL    HW1 4137  12.552   4.473   7.479  1.0441  0.4300 -0.9663
28715SOL    HW2 4138  12.458   4.508   7.366 -0.1849  0.5046  0.0649
28716SOL     OW 4139   7.417  11.878   1.207  0.5845 -0.1133 -0.0039
28716SOL    HW1 4140   7.391  11.791   1.237 -0.8018 -0.1993 -1.3443
28716SOL    HW2 4141   7.488  11.862   1.145  1.4829 -0.1320  0.9917
28717SOL     OW 4142  11.770   9.225  10.641 -0.1929 -0.0436  0.4683
28717SOL    HW1 4143  11.769   9.310  10.685 -1.0240  1.3741 -2.0703
28717SOL    HW2 4144  11.681   9.215  10.606 -0.2277 -2.1795  1.0337
28718SOL     OW 4145   2.572   3.081   0.428 -0.3953  0.2882 -0.0671
28718SOL    HW1 4146   2.635   3.092   0.356  1.6721  2.2808  1.8944
28718SOL    HW2 4147   2.571   2.986   0.444  0.3232 -0.0247 -1.6567
28719SOL     OW 4148   2.494   9.676   7.181  0.2453 -0.0563 -0.0829
28719SOL    HW1 4149   2.579   9.631   7.190 -0.4196 -1.2970  0.2480
28719SOL    HW2 4150   2.514   9.754   7.129  1.2787 -1.3340 -1.7291
28720SOL     OW 4151   7.701   1.242  12.819  0.0510 -0.0397 -0.0500
28720SOL    HW1 4152   7.656   1.300  12.881  1.7755  0.3845  0.8627
28720SOL    HW2 4153   7.773   1.295  12.785 -1.0730 -0.1186 -2.7873
28721SOL     OW 4154   0.656   6.077   6.214  0.2010 -0.3989 -0.1518
28721SOL    HW1 4155   0.586   6.127   6.170 -0.2539  0.0047  0.9999
28721SOL    HW2 4156   0.609   6.019   6.274  0.8682  0.1203  0.8805
28722SOL     OW 4157   6.889  12.968   4.341 -0.0406 -0.0338 -0.0982
28722SOL    HW1 4158   6.977  13.003   4.329 -0.1946  0.3348 -0.1881
28722SOL    HW2 4159   6.833  13.027   4.290 -0.1480 -1.2700 -1.4734
28723SOL     OW 4160  11.279   9.431  11.257  0.4910  0.3824  0.0615
28723SOL    HW1 4161  11.343   9.429  11.328  0.5696 -0.7006 -0.0307
28723SOL    HW2 4162  11.309   9.503  11.200  0.7303  0.8968  0.8266
28724SOL     OW 4163  13.585   6.944  10.396 -0.0625  0.3239  0.0585
28724SOL    HW1 4164  13.645   6.948  10.470  0.0827  0.9415 -0.0851
28724SOL    HW2 4165  13.634   6.899  10.327  1.1492  2.8566 -0.8604
28725SOL     OW 4166   6.692   6.043  12.811  0.4157  0.7577 -0.8009
28725SOL    HW1 4167   6.677   6.137  12.807  2.3291  1.0608 -2.2266
28725SOL    HW2 4168   6.647   6.015  12.891  0.2870  2.9689 -0.0209
28726SOL     OW 4169   0.743   8.576   7.946 -0.2908  0.1038  0.7141
28726SOL    HW1 4170   0.649   8.570   7.932 -0.1801 -1.2741  0.4024
28726SOL    HW2 4171   0.772   8.650   7.892 -1.0310 -0.1357 -0.0120
28727SOL     OW 4172  12.528   5.044   7.179  0.2533  0.4151  0.3779
28727SOL    HW1 4173  12.480   5.114   7.224 -2.9331 -1.3379  0.0193
28727SOL    HW2 4174  12.494   5.046   7.089  1.6146 -0.3131 -0.1823
28728SOL     OW 4175  10.559  13.257  12.283  0.7154  0.1987  0.4841
28728SOL    HW1 4176  10.511  13.197  12.340  0.1033  1.0531  0.8980
28728SOL    HW2 4177  10.555  13.342  12.329  0.0347  0.9528 -0.9110
28729SOL     OW 4178   0.388   4.864  12.822  0.3990 -0.4148 -0.1952
28729SOL    HW1 4179   0.327   4.901  12.886  1.1152 -0.2345  0.4055
28729SOL    HW2 4180   0.392   4.929  12.753 -0.2188 -0.5091 -0.3257
28730SOL     OW 4181   2.645   5.854   0.203 -0.0152  0.2979  0.1744
28730SOL    HW1 4182   2.602   5.791   0.260  2.0906 -1.2142  0.2389
28730SOL    HW2 4183   2.576   5.912   0.174 -1.8403 -1.2758  1.1605
28731SOL     OW 4184  10.148  12.208   3.258 -0.0660  0.1338  0.0355
28731SOL    HW1 4185  10.195  12.279   3.215 -2.0533  1.5921  0.1005
28731SOL    HW2 4186  10.102  12.163   3.187 -0.7178  0.4544  0.2449
28732SOL     OW 4187  11.661   2.536  10.603  0.0235  0.2029 -0.1692
28732SOL    HW1 4188  11.733   2.485  10.641  0.5082  1.2348  0.3407
28732SOL    HW2 4189  11.671   2.524  10.508 -0.4470 -1.3883 -0.0404
28733SOL     OW 4190  10.165   6.141  10.136  0.0115  0.3739 -0.3847
28733SOL    HW1 4191  10.132   6.078  10.072 -0.3975  0.2858 -0.0896
28733SOL    HW2 4192  10.253   6.111  10.157 -0.3560 -0.3808  0.1129
28734SOL     OW 4193  12.310   5.947  10.179 -0.6320  0.3082 -0.1989
28734SOL    HW1 4194  12.403   5.926  10.192 -0.8514 -0.1881  0.5823
28734SOL    HW2 4195  12.289   6.007  10.250 -1.2118 -0.5089  0.3368
28735SOL     OW 4196   1.687   0.701   9.872 -0.3940  0.3127  0.1800
28735SOL    HW1 4197   1.673   0.746   9.788  0.5357  0.6381  0.1858
28735SOL    HW2 4198   1.600   0.670   9.897 -0.9809  1.6430 -0.0861
28736SOL     OW 4199   0.722   0.637   0.315  0.8982  0.5574 -0.3851
28736SOL    HW1 4200   0.655   0.596   0.370 -0.1582  0.7737 -1.4669
28736SOL    HW2 4201   0.755   0.710   0.367  1.9181 -0.8714  1.0606
28737SOL     OW 4202   6.406  12.697   1.765 -0.0822 -0.6619  0.4896
28737SOL    HW1 4203   6.482  12.677   1.710 -0.9302 -0.0302 -0.9786
28737SOL    HW2 4204   6.432  12.670   1.853  1.9361 -0.2154  0.0811
28738SOL     OW 4205   0.916   8.923   4.991  0.0825  0.3421  0.7769
28738SOL    HW1 4206   0.840   8.969   5.026 -0.4966 -1.6722  2.4000
28738SOL    HW2 4207   0.878   8.851   4.940  0.8197 -0.8955  1.8901
28739SOL     OW 4208   7.932  11.277   7.337  0.6254  0.2229  0.3289
28739SOL    HW1 4209   7.948  11.344   7.270  0.7810  0.5335  0.6759
28739SOL    HW2 4210   8.018  11.240   7.356  0.9650  1.7277  2.0168
28740SOL     OW 4211   4.404   7.201   1.543  0.1867 -0.7965  0.1607
28740SOL    HW1 4212   4.333   7.241   1.492  0.6085 -1.1577 -0.7325
28740SOL    HW2 4213   4.466   7.273   1.559  0.7220 -0.9723 -1.0449
28741SOL     OW 4214   8.598   5.161   9.344 -0.4845  0.1760  0.7099
28741SOL    HW1 4215   8.651   5.088   9.311 -2.3267 -0.5337 -0.8909
28741SOL    HW2 4216   8.605   5.228   9.275  0.1850  1.0214  1.5826
28742SOL     OW 4217   5.102   5.278   9.837  0.2297  0.2671  0.2725
28742SOL    HW1 4218   5.072   5.190   9.858  1.0438  0.0746  0.6773
28742SOL    HW2 4219   5.073   5.331   9.912 -2.2289  0.8379 -0.9667
28743SOL     OW 4220   1.744  13.188   2.737 -0.2176 -0.2763 -0.4760
28743SOL    HW1 4221   1.672  13.161   2.793 -1.0361  0.8507 -0.9389
28743SOL    HW2 4222   1.805  13.114   2.737 -1.1971 -1.0949  0.2191
28744SOL     OW 4223  14.062   9.608  10.792  0.1082 -0.1622 -0.2666
28744SOL    HW1 4224  14.033   9.699  10.799  0.0425 -0.1594 -0.5656
28744SOL    HW2 4225  14.008   9.560  10.854  0.4098  0.0663  0.1728
28745SOL     OW 4226   6.704  12.114   3.999  0.2520  0.3072  0.2810
28745SOL    HW1 4227   6.667  12.093   3.914 -0.5647 -1.0393  0.9246
28745SOL    HW2 4228   6.778  12.054   4.008  0.1872  0.2758  0.6136
28746SOL     OW 4229   2.725   1.499   1.989  0.2412  0.1939 -0.0455
28746SOL    HW1 4230   2.751   1.520   2.079 -1.1059  2.0179 -0.0349
28746SOL    HW2 4231   2.769   1.566   1.936 -0.0211 -0.0832 -0.6145
28747SOL     OW 4232   5.361  11.202   5.228 -0.1475  0.7281  0.1573
28747SOL    HW1 4233   5.284  11.170   5.181 -0.5221  1.2802  0.3782
28747SOL    HW2 4234   5.368  11.144   5.304  1.9317 -1.7927 -1.7589
28748SOL     OW 4235   4.779  10.270   1.398  0.1060  0.1847  0.8630
28748SOL    HW1 4236   4.742  10.233   1.318  1.8759  2.4737 -1.2039
28748SOL    HW2 4237   4.868  10.236   1.401  0.0892  0.2095  1.7935
28749SOL     OW 4238   0.053  12.498   5.792 -0.0661  0.0669 -0.1833
28749SOL    HW1 4239   0.050  12.408   5.761  2.4020 -0.7607  1.6146
28749SOL    HW2 4240   0.023  12.494   5.883  1.0604  0.8181  0.2513
28750SOL     OW 4241   3.390   6.658   3.508  0.4757  0.0579 -0.1777
28750SOL    HW1 4242   3.412   6.628   3.596  1.4505 -2.4253 -1.1957
28750SOL    HW2 4243   3.295   6.644   3.501  0.0982  1.7193  0.9261
28751SOL     OW 4244   3.162   8.005   0.515 -0.0828 -0.5772 -0.7911
28751SOL    HW1 4245   3.222   7.965   0.452  1.2331 -0.1712  0.1505
28751SOL    HW2 4246   3.211   8.080   0.550 -1.2856 -0.0217 -0.2281
28752SOL     OW 4247  12.585  13.486   5.892 -0.2049 -0.0398 -0.2251
28752SOL    HW1 4248  12.526  13.436   5.836  1.3526  1.0650 -3.0566
28752SOL    HW2 4249  12.528  13.548   5.938 -1.4500 -0.1487 -1.5484
28753SOL     OW 4250   7.276   1.897   1.919 -0.2866  0.4098  0.4225
28753SOL    HW1 4251   7.254   1.832   1.852 -4.5931 -0.3053  2.1711
28753SOL    HW2 4252   7.293   1.978   1.870 -3.7545  0.0450 -1.6766
28754SOL     OW 4253   2.432  12.243   4.186 -0.1613  0.4037 -0.8170
28754SOL    HW1 4254   2.481  12.325   4.190 -0.1517  0.4806 -2.1095
28754SOL    HW2 4255   2.480  12.184   4.245 -0.6616  1.5484  0.8039
28755SOL     OW 4256   6.487   2.916  12.153  0.4152  0.3133  0.0720
28755SOL    HW1 4257   6.562   2.884  12.104  0.9798  0.6566  0.7025
28755SOL    HW2 4258   6.424   2.943  12.086  0.8454  0.0213 -0.4553
28756SOL     OW 4259   2.174   0.487  12.454 -0.0402  0.3948 -0.4595
28756SOL    HW1 4260   2.102   0.435  12.491 -1.9444  1.6898 -2.1368
28756SOL    HW2 4261   2.224   0.424  12.401 -0.0499 -0.4802  0.5332
28757SOL     OW 4262   5.506   3.143   7.542  0.2648  0.3067 -0.5694
28757SOL    HW1 4263   5.410   3.141   7.535  0.3234  1.3184 -1.8422
28757SOL    HW2 4264   5.524   3.212   7.606  0.1352 -0.6395  0.5276
28758SOL     OW 4265  13.436  11.773   5.898  0.2681  0.2321 -0.4457
28758SOL    HW1 4266  13.443  11.866   5.878 -1.3980 -0.0794 -2.9326
28758SOL    HW2 4267  13.407  11.770   5.989  2.5620  2.0258  0.4266
28759SOL     OW 4268   8.085   3.896   3.238 -0.2941 -0.0790 -0.2196
28759SOL    HW1 4269   8.016   3.962   3.231 -1.1127 -1.0261 -1.6354
28759SOL    HW2 4270   8.103   3.871   3.147  1.4311 -0.3609  0.1781
28760SOL     OW 4271  11.557   0.023  13.673  0.0086  0.1569 -0.1744
28760SOL    HW1 4272  11.557  -0.035  13.596 -0.9223 -0.3469  0.1904
28760SOL    HW2 4273  11.481  -0.005  13.724  1.1235 -0.1460  1.4003
28761SOL     OW 4274   9.754   7.725   1.334 -0.1344  0.2038 -0.4833
28761SOL    HW1 4275   9.847   7.704   1.343 -0.4315 -1.3374 -0.6331
28761SOL    HW2 4276   9.744   7.810   1.376  1.4982  0.8052 -1.2511
28762SOL     OW 4277   1.551   9.292   2.470 -0.5221  0.2907  0.3981
28762SOL    HW1 4278   1.576   9.299   2.562  1.5451 -0.9761 -0.0166
28762SOL    HW2 4279   1.616   9.345   2.423 -1.8422  1.3267 -0.3396
28763SOL     OW 4280   6.990  12.156   0.394  0.3091  0.2810  0.2194
28763SOL    HW1 4281   6.949  12.210   0.462  1.9541  2.0643 -0.1167
28763SOL    HW2 4282   7.048  12.098   0.442 -2.0473 -1.8727  0.6508
28764SOL     OW 4283   9.817  12.240   3.087 -0.7209 -0.4142  0.1763
28764SOL    HW1 4284   9.873  12.169   3.054 -0.6538 -0.2173 -0.1392
28764SOL    HW2 4285   9.729  12.203   3.085 -0.5676 -0.8597  1.0415
28765SOL     OW 4286  12.384   9.959   6.057 -0.0017 -0.8089  0.1112
28765SOL    HW1 4287  12.306   9.916   6.023 -1.2933  1.3368  0.1409
28765SOL    HW2 4288  12.427   9.996   5.979 -1.1574  1.2631  0.3761
28766SOL     OW 4289  13.558   9.598   0.336  0.4605  0.1406  0.3146
28766SOL    HW1 4290  13.613   9.531   0.377  1.2220  0.7153  0.2428
28766SOL    HW2 4291  13.534   9.657   0.407  1.0115  0.6156  0.1113
28767SOL     OW 4292  10.859   2.110   2.964  0.2454  0.3703  0.3134
28767SOL    HW1 4293  10.906   2.110   3.047  0.9438  1.4875 -0.0540
28767SOL    HW2 4294  10.889   2.031   2.920 -1.1798 -0.9802  1.6550
28768SOL     OW 4295   9.883   7.307   8.146  0.0259 -0.1732 -0.2428
28768SOL    HW1 4296   9.880   7.398   8.176 -1.5588 -0.5509  0.9036
28768SOL    HW2 4297   9.837   7.308   8.062 -0.5826 -0.0002  0.0807
28769SOL     OW 4298   1.440   4.136   7.093  0.1300 -0.0785  0.1113
28769SOL    HW1 4299   1.518   4.176   7.130  0.7985 -0.8118 -0.4616
28769SOL    HW2 4300   1.450   4.146   6.998 -0.1491 -0.7333  0.0028
28770SOL     OW 4301  10.149   0.759   9.127  0.9759  0.2870  0.6810
28770SOL    HW1 4302  10.084   0.690   9.111 -1.1913  2.2941  0.1755
28770SOL    HW2 4303  10.209   0.753   9.054 -0.5361  0.3586 -0.6211
28771SOL     OW 4304   1.598   5.459   8.319 -0.1168 -0.1468  0.0765
28771SOL    HW1 4305   1.531   5.394   8.302 -0.6434  0.3546  0.2114
28771SOL    HW2 4306   1.590   5.478   8.413 -0.3377  0.5093 -0.0684
28772SOL     OW 4307  13.909  13.017   8.914 -0.0446  0.5832  0.0469
28772SOL    HW1 4308  13.866  13.002   8.998  0.0586 -2.3287 -0.3048
28772SOL    HW2 4309  13.849  13.075   8.867 -0.6609  1.3274  1.6751
28773SOL     OW 4310   1.667  10.881  10.168 -0.2361 -0.1783 -0.3308
28773SOL    HW1 4311   1.740  10.920  10.119  0.0901  1.1452  1.1347
28773SOL    HW2 4312   1.596  10.944  10.160 -0.5892 -0.5423 -0.1087
28774SOL     OW 4313   9.248   2.511   8.352  0.2119 -0.1023  0.6252
28774SOL    HW1 4314   9.263   2.492   8.259 -1.9151 -3.6082  0.7953
28774SOL    HW2 4315   9.154   2.497   8.364  0.3281  0.8996  3.2007
28775SOL     OW 4316  13.519   4.767   6.028  0.2993 -0.0142 -0.2321
28775SOL    HW1 4317  13.549   4.694   6.083  0.0485  0.5665  0.7071
28775SOL    HW2 4318  13.488   4.833   6.091 -1.5215  0.0327 -1.1003
28776SOL     OW 4319  13.783  12.463  13.819  0.4327  0.0942 -0.4282
28776SOL    HW1 4320  13.690  12.460  13.838 -0.1754  0.0036 -3.0071
28776SOL    HW2 4321  13.819  12.525  13.883 -1.3719  0.1048  0.6345
28777SOL     OW 4322   7.885   1.536   5.168 -0.7214  0.0041  0.3156
28777SOL    HW1 4323   7.805   1.484   5.171 -0.3468 -0.5313  1.8262
28777SOL    HW2 4324   7.952   1.475   5.139 -0.4151 -0.2128  1.4217
28778SOL     OW 4325  10.199   4.305   0.347 -0.2126 -0.2279 -0.2881
28778SOL    HW1 4326  10.185   4.211   0.354  0.5004 -0.2681  0.7526
28778SOL    HW2 4327  10.111   4.342   0.345 -0.5130 -0.7886  1.3958
28779SOL     OW 4328   6.028  13.481   1.359 -0.2132  0.2054  0.4275
28779SOL    HW1 4329   6.031  13.385   1.356 -1.2107  0.1935 -1.0462
28779SOL    HW2 4330   6.114  13.506   1.394  0.2986 -1.1993  0.2447
28780SOL     OW 4331   8.680   2.840   3.507 -0.1482 -0.4298  0.0709
28780SOL    HW1 4332   8.700   2.871   3.419  0.3390  1.6891  0.8830
28780SOL    HW2 4333   8.739   2.766   3.520  2.5798  1.5702 -0.0372
28781SOL     OW 4334   4.370  11.051   2.445  0.4065  0.4542 -0.0321
28781SOL    HW1 4335   4.306  11.118   2.468 -2.8420 -1.3606 -2.8457
28781SOL    HW2 4336   4.435  11.097   2.392  0.1598  1.9039  0.8568
28782SOL     OW 4337  10.748   1.691   9.734  0.4218 -0.0819  0.1540
28782SOL    HW1 4338  10.805   1.651   9.668  0.5734 -1.1626  0.9068
28782SOL    HW2 4339  10.703   1.617   9.774  0.6006  0.5059  1.4896
28783SOL     OW 4340   7.035   9.445   0.585 -0.0691  0.6873  0.0866
28783SOL    HW1 4341   6.984   9.501   0.526  0.5592  1.4206  0.2182
28783SOL    HW2 4342   7.065   9.373   0.529 -1.0710  0.3442 -0.0323
28784SOL     OW 4343  14.096   3.278  12.701 -0.2205 -0.3746 -0.2545
28784SOL    HW1 4344  14.176   3.225  12.699 -0.3120 -0.4868 -1.0074
28784SOL    HW2 4345  14.124   3.364  12.730  0.2419 -0.3051 -0.8940
28785SOL     OW 4346   8.449   4.473   0.059 -0.1005 -0.6564 -0.2182
28785SOL    HW1 4347   8.452   4.537  -0.013  0.5254  0.3510  0.6577
28785SOL    HW2 4348   8.514   4.407   0.035 -0.8692 -1.0646 -1.2174
28786SOL     OW 4349   7.973  11.782  12.156 -0.0004 -0.4921 -0.1231
28786SOL    HW1 4350   7.927  11.705  12.122 -1.9602  1.3037 -1.7865
28786SOL    HW2 4351   7.918  11.814  12.227 -0.5806  0.7976 -1.1167
28787SOL     OW 4352  12.265  12.224   5.645  0.4415  0.2732 -0.5377
28787SOL    HW1 4353  12.298  12.289   5.706 -0.7587 -1.4090  2.0796
28787SOL    HW2 4354  12.316  12.145   5.663 -0.8694 -0.6541 -0.6755
28788SOL     OW 4355   1.564   5.730   3.224  0.0807  0.1483 -0.1622
28788SOL    HW1 4356   1.586   5.762   3.312 -0.8011 -0.6864  0.3884
28788SOL    HW2 4357   1.630   5.769   3.167  1.9168 -0.9161  1.1539
28789SOL     OW 4358   5.222  13.594  13.014  0.1187 -0.2556  0.2611
28789SOL    HW1 4359   5.137  13.624  12.979  1.4347  0.6599 -2.4655
28789SOL    HW2 4360   5.257  13.670  13.059  1.2196  0.8525 -2.2521
28790SOL     OW 4361  13.980   1.626   8.889  0.3120 -0.4234 -0.1672
28790SOL    HW1 4362  13.899   1.653   8.846  0.6385  0.7488 -0.0777
28790SOL    HW2 4363  13.968   1.653   8.980  1.6602  1.7967 -0.5858
28791SOL     OW 4364  11.992   9.234   9.284 -0.2520 -0.2422  0.1298
28791SOL    HW1 4365  12.004   9.216   9.377  0.6333  1.0795  0.2897
28791SOL    HW2 4366  11.939   9.313   9.280  2.3523  1.6165 -0.3700
28792SOL     OW 4367  10.063   5.582   7.454  0.0924  0.1125  0.1979
28792SOL    HW1 4368  10.117   5.504   7.462  0.7920  0.6372  0.7288
28792SOL    HW2 4369  10.092   5.622   7.371 -1.0078 -0.7304 -0.6146
28793SOL     OW 4370   7.775   7.232   1.444 -0.0339 -0.2994  0.2570
28793SOL    HW1 4371   7.812   7.213   1.531 -0.5146  1.8641  0.9910
28793SOL    HW2 4372   7.806   7.320   1.423 -3.0308  0.8217  0.0131
28794SOL     OW 4373   1.719   5.761  12.007 -0.2388  0.0115 -0.3520
28794SOL    HW1 4374   1.696   5.750  12.100  0.2600  2.6322  0.1479
28794SOL    HW2 4375   1.635   5.756  11.961 -0.5105 -1.1285  0.2242
28795SOL     OW 4376  10.123   1.125  11.341  0.5665 -0.5792  0.3744
28795SOL    HW1 4377  10.102   1.201  11.286  0.7805 -0.4883  0.4178
28795SOL    HW2 4378  10.215   1.136  11.364  0.9354 -1.4879 -0.6025
28796SOL     OW 4379   9.659   3.179  13.140  0.9173  0.2318 -0.4394
28796SOL    HW1 4380   9.569   3.204  13.162  1.9110  3.6812  0.4929
28796SOL    HW2 4381   9.664   3.187  13.045 -0.0817 -1.5727 -0.6910
28797SOL     OW 4382  11.158   4.675   5.518  1.0722 -0.2500 -0.2471
28797SOL    HW1 4383  11.241   4.664   5.472  2.4894  2.8714  1.2104
28797SOL    HW2 4384  11.119   4.753   5.479  0.5139  0.3023  1.3241
28798SOL     OW 4385  12.690   3.104  13.181  0.3206 -0.4031 -0.5246
28798SOL    HW1 4386  12.643   3.185  13.164 -0.1053 -0.3402  0.8363
28798SOL    HW2 4387  12.738   3.120  13.263  1.2840 -1.0803 -0.9325
28799SOL     OW 4388   8.520   5.092   7.715 -0.0954  0.5532 -0.3568
28799SOL    HW1 4389   8.479   5.121   7.797 -1.3941  1.8172 -1.4078
28799SOL    HW2 4390   8.582   5.024   7.743 -1.5657 -0.1283  1.5121
28800SOL     OW 4391   5.262   9.877   0.200  0.2057  0.4340 -0.2991
28800SOL    HW1 4392   5.236   9.790   0.168 -0.1476 -0.5217  2.3316
28800SOL    HW2 4393   5.346   9.894   0.156  1.1611 -2.0472  0.3405
28801SOL     OW 4394   5.982   8.618  11.355  0.5682 -0.0724  0.2784
28801SOL    HW1 4395   5.920   8.577  11.415 -1.0968 -0.2385 -1.4738
28801SOL    HW2 4396   5.992   8.708  11.388 -0.3340 -0.1459  0.7758
28802SOL     OW 4397  13.083   2.217  10.050  0.6458  0.5143 -0.3769
28802SOL    HW1 4398  13.045   2.129  10.040  1.3228  0.1887 -0.1730
28802SOL    HW2 4399  13.013   2.276  10.023  1.1231 -0.1658 -3.5484
28803SOL     OW 4400   1.894  10.502  10.156 -0.3132  0.4761  0.0163
28803SOL    HW1 4401   1.918  10.545  10.238  2.1134 -0.3769 -0.1796
28803SOL    HW2 4402   1.919  10.564  10.088 -0.9075  0.5512 -0.1390
28804SOL     OW 4403   3.617  11.397  11.131 -0.1010  0.0928 -0.1221
28804SOL    HW1 4404   3.656  11.473  11.174  1.0599  0.1504 -1.2008
28804SOL    HW2 4405   3.587  11.341  11.202 -1.8909  1.9829  0.7112
28805SOL     OW 4406   8.916   7.495   1.465 -0.2069  0.2446  0.2692
28805SOL    HW1 4407   9.007   7.517   1.446 -0.4106  0.2860 -0.7010
28805SOL    HW2 4408   8.873   7.579   1.481 -0.0920  0.2279  0.6867
28806SOL     OW 4409   4.331   1.719   4.781 -0.2027  0.2000 -0.0089
28806SOL    HW1 4410   4.257   1.777   4.798  0.4423  0.7335  1.0490
28806SOL    HW2 4411   4.386   1.727   4.858  1.0639 -0.0381 -0.8638
28807SOL     OW 4412   8.956   8.805   4.459 -0.1210  0.4562  0.0985
28807SOL    HW1 4413   8.984   8.781   4.547  0.9556 -0.4706 -0.4747
28807SOL    HW2 4414   8.938   8.722   4.416 -2.5500  0.9450 -0.0027
28808SOL     OW 4415  12.783   5.410   0.235  0.0460  0.2092  0.1211
28808SOL    HW1 4416  12.851   5.364   0.285  0.8818  2.3099  1.0270
28808SOL    HW2 4417  12.709   5.417   0.295 -0.3623 -0.5604 -0.2747
28809SOL     OW 4418  10.872  11.576  12.793 -0.2196  0.4115 -0.2312
28809SOL    HW1 4419  10.933  11.644  12.821  2.0548 -1.8716  0.8412
28809SOL    HW2 4420  10.787  11.605  12.825  0.9611  1.9168  1.7592
28810SOL     OW 4421   7.940   5.275  10.611  0.8841  0.6538 -0.3843
28810SOL    HW1 4422   7.983   5.230  10.684 -0.1230 -0.4761 -0.4558
28810SOL    HW2 4423   8.013   5.311  10.559  1.6343  0.9265  0.8101
28811SOL     OW 4424  12.010   8.049   2.336 -0.1924 -0.5855  0.1548
28811SOL    HW1 4425  11.989   7.955   2.340 -0.1290 -0.6279 -0.4543
28811SOL    HW2 4426  11.970   8.079   2.255 -0.2923 -0.0590  0.3952
28812SOL     OW 4427   9.020  10.724  12.697  0.0073 -0.1818 -0.7731
28812SOL    HW1 4428   9.066  10.776  12.631  0.7664  0.5585  0.3036
28812SOL    HW2 4429   9.089  10.673  12.739 -0.3128  0.0978  0.1082
28813SOL     OW 4430  13.809  13.413   8.970  0.5856 -0.2653  0.4632
28813SOL    HW1 4431  13.891  13.433   9.015  1.1274 -0.8861 -0.2292
28813SOL    HW2 4432  13.755  13.492   8.983  0.9165 -0.2294  1.7323
28814SOL     OW 4433   1.225  10.840   2.471  0.1696 -0.0226  0.3558
28814SOL    HW1 4434   1.190  10.924   2.440  0.4168 -0.2213 -0.4638
28814SOL    HW2 4435   1.148  10.792   2.500  0.0233  0.4866  0.8420
28815SOL     OW 4436  11.883   8.339   5.304  0.6464  0.3530 -0.1247
28815SOL    HW1 4437  11.958   8.389   5.270  0.7068  0.2839 -0.0942
28815SOL    HW2 4438  11.807   8.392   5.280  0.8178  1.6613  1.9515
28816SOL     OW 4439   8.204  13.655   0.455  0.1777 -0.3278  0.0273
28816SOL    HW1 4440   8.120  13.646   0.499  1.0249 -2.8833  1.3814
28816SOL    HW2 4441   8.262  13.691   0.521  0.0725  2.1599 -1.1267
28817SOL     OW 4442  13.791  11.634   1.093  0.0581  0.4207 -0.3973
28817SOL    HW1 4443  13.851  11.645   1.166  0.8724  0.8812 -1.1170
28817SOL    HW2 4444  13.841  11.660   1.016 -0.4126 -1.1089 -1.2672
28818SOL     OW 4445   8.858   6.046   9.078 -0.0044 -0.1821 -0.2091
28818SOL    HW1 4446   8.804   6.121   9.101 -1.3570 -0.6370 -1.7251
28818SOL    HW2 4447   8.839   5.981   9.147 -0.9435 -0.1152 -0.3947
28819SOL     OW 4448  10.262   8.956   8.778  0.1933  0.2845 -0.2120
28819SOL    HW1 4449  10.311   8.932   8.856  1.3613  1.9412 -0.3814
28819SOL    HW2 4450  10.294   9.044   8.755 -4.0236  2.2947  0.6180
28820SOL     OW 4451   3.121  11.481  13.480 -0.1603  0.2005 -0.2819
28820SOL    HW1 4452   3.078  11.395  13.481 -1.3963  0.8040 -0.3910
28820SOL    HW2 4453   3.192  11.471  13.417 -0.5062 -0.6405 -0.5508
28821SOL     OW 4454   1.588   5.375   6.347 -0.1685  0.2288  0.0270
28821SOL    HW1 4455   1.511   5.429   6.327 -0.0085  0.3355 -0.3179
28821SOL    HW2 4456   1.553   5.288   6.364 -0.5283  0.6461  1.5639
28822SOL     OW 4457   6.617   6.630   6.119  0.3799  0.0387  0.3159
28822SOL    HW1 4458   6.642   6.541   6.096 -2.1223 -1.6423  3.2002
28822SOL    HW2 4459   6.695   6.668   6.158  1.0633 -1.4966  0.5112
28823SOL     OW 4460   2.191  11.252   7.417  0.3553 -0.4360 -0.0166
28823SOL    HW1 4461   2.125  11.295   7.470  0.7724 -1.0109  1.0055
28823SOL    HW2 4462   2.216  11.317   7.351  0.0033  0.3863  0.6437
28824SOL     OW 4463  10.040  11.346   7.200  0.2646  0.2479 -0.1831
28824SOL    HW1 4464  10.033  11.437   7.229 -0.4265  0.0095  0.4482
28824SOL    HW2 4465  10.022  11.349   7.106  0.3849  0.7810 -0.1909
28825SOL     OW 4466  12.742   5.064   4.286  0.2510 -0.0512  0.5629
28825SOL    HW1 4467  12.830   5.060   4.322  1.1346 -1.4301 -1.5560
28825SOL    HW2 4468  12.717   4.972   4.275 -0.4837  0.3169 -1.0520
28826SOL     OW 4469  13.900   9.520  10.480  0.0285 -0.3931 -0.1469
28826SOL    HW1 4470  13.996   9.524  10.474  0.0394  1.4924  0.6180
28826SOL    HW2 4471  13.874   9.609  10.504 -1.6619 -1.6388  3.2762
28827SOL     OW 4472  10.117   3.377   6.909 -0.0585 -0.1524 -0.5647
28827SOL    HW1 4473  10.140   3.463   6.944 -1.8741 -0.3551  1.3275
28827SOL    HW2 4474  10.070   3.396   6.828 -0.7546  0.6741  0.0187
28828SOL     OW 4475  10.811   1.528   9.325 -0.4098  0.3350  0.1316
28828SOL    HW1 4476  10.873   1.535   9.252  0.7184  1.4243  1.1602
28828SOL    HW2 4477  10.742   1.470   9.292  0.7460 -0.2772 -1.3258
28829SOL     OW 4478  11.756   2.415   5.825  0.1898  0.6458 -0.2177
28829SOL    HW1 4479  11.801   2.491   5.788  0.4079 -0.4443 -2.3351
28829SOL    HW2 4480  11.705   2.379   5.753 -0.0582 -1.1186  0.7693
28830SOL     OW 4481   1.107  11.738   4.486  0.0786 -0.4469  0.1784
28830SOL    HW1 4482   1.094  11.826   4.521 -1.0799 -0.4346 -0.2463
28830SOL    HW2 4483   1.194  11.740   4.448  0.1242  0.4728  0.3081
28831SOL     OW 4484  10.215   4.492   3.318  0.0506  0.0499  0.3308
28831SOL    HW1 4485  10.260   4.486   3.402 -1.2210  1.6431  1.1836
28831SOL    HW2 4486  10.285   4.503   3.254  0.9711  0.5420  1.3904
28832SOL     OW 4487   7.247  14.061   3.716 -0.3058 -0.1422 -0.1432
28832SOL    HW1 4488   7.208  14.143   3.748  0.1408 -0.4154  1.1638
28832SOL    HW2 4489   7.243  14.002   3.792 -2.2299 -1.9512 -1.5164
28833SOL     OW 4490   5.606  11.545   1.388 -0.0503  0.2767 -0.2346
28833SOL    HW1 4491   5.553  11.496   1.325 -0.8333 -0.3371  0.8650
28833SOL    HW2 4492   5.548  11.559   1.463  0.6567  1.5340  0.1185
28834SOL     OW 4493   9.096   5.579   1.674 -0.2136 -0.1968  0.0451
28834SOL    HW1 4494   9.019   5.626   1.640  0.6731  1.9626  0.8122
28834SOL    HW2 4495   9.166   5.601   1.612  0.4473  0.3574  0.9598
28835SOL     OW 4496  13.442   3.253   2.668 -0.3011  0.4475  0.2579
28835SOL    HW1 4497  13.519   3.299   2.703 -0.6517  0.7116  0.6896
28835SOL    HW2 4498  13.474   3.211   2.588  0.6186 -0.5365  1.1191
28836SOL     OW 4499   3.795   2.064   7.451 -0.2536 -0.4676 -0.8515
28836SOL    HW1 4500   3.816   1.972   7.471 -1.2197 -0.1626  2.0350
28836SOL    HW2 4501   3.701   2.063   7.433 -0.3967  0.0206 -0.1592
28837SOL     OW 4502   6.803   2.669   0.050  0.7045 -0.0756  0.5628
28837SOL    HW1 4503   6.768   2.671  -0.039 -1.3305 -1.4637  1.2627
28837SOL    HW2 4504   6.896   2.650   0.039  1.1434  2.5695 -1.3435
28838SOL     OW 4505   0.572  10.779   7.038 -0.1620 -0.4638 -0.0300
28838SOL    HW1 4506   0.482  10.795   7.007 -0.3048 -1.0903  0.0412
28838SOL    HW2 4507   0.603  10.706   6.984 -0.2158 -1.2069  0.9000
28839SOL     OW 4508   2.971   3.241   2.342  0.2556 -0.4772  0.0514
28839SOL    HW1 4509   2.948   3.186   2.267  0.0866 -0.3453  0.0056
28839SOL    HW2 4510   2.888   3.249   2.391  0.4008 -0.6974  0.3367
28840SOL     OW 4511   3.012   9.343  10.803 -0.4501 -0.1129  0.2108
28840SOL    HW1 4512   2.926   9.378  10.779 -0.4832 -0.7370 -0.6438
28840SOL    HW2 4513   3.059   9.336  10.720  0.1084 -0.6084  0.5610
28841SOL     OW 4514   9.067   9.483   6.974  0.4177  0.1921 -0.2476
28841SOL    HW1 4515   9.100   9.514   6.889 -0.0532 -0.6623 -0.7566
28841SOL    HW2 4516   9.131   9.516   7.038  1.0027  0.4980 -0.9749
28842SOL     OW 4517  10.456   5.172   2.515 -0.2278  0.5460  0.3042
28842SOL    HW1 4518  10.470   5.139   2.604  0.4251 -1.5252 -0.5004
28842SOL    HW2 4519  10.363   5.158   2.498  0.1957 -2.0767 -0.3723
28843SOL     OW 4520   2.179   8.701   0.237 -0.1461  0.1613  0.0035
28843SOL    HW1 4521   2.223   8.713   0.153 -1.3893 -0.3273 -0.7517
28843SOL    HW2 4522   2.120   8.776   0.244 -1.4874 -0.8020 -0.5291
28844SOL     OW 4523  10.885   7.110   2.926 -0.0063  0.3027 -0.5013
28844SOL    HW1 4524  10.964   7.129   2.977 -1.4381  1.1781  1.5368
28844SOL    HW2 4525  10.894   7.164   2.847 -0.1922  3.3724  1.4112
28845SOL     OW 4526  10.105   1.676  11.342 -0.1072  0.2806  0.4227
28845SOL    HW1 4527  10.128   1.706  11.253 -0.1285 -0.4296  0.1754
28845SOL    HW2 4528  10.189   1.676  11.389  0.0070  0.0388  0.2203
28846SOL     OW 4529   5.900   8.371   4.026 -0.4274  0.1657  0.4825
28846SOL    HW1 4530   5.968   8.422   3.981  0.5212  0.4771  2.1685
28846SOL    HW2 4531   5.949   8.318   4.090 -1.6250 -1.0076  0.4740
28847SOL     OW 4532   5.974   8.810   2.890 -0.0467  0.2784 -0.1542
28847SOL    HW1 4533   5.969   8.879   2.955  1.9570 -0.5603  0.9644
28847SOL    HW2 4534   6.067   8.787   2.885 -0.4472 -1.2822 -1.6085
28848SOL     OW 4535   8.052   6.440   9.688 -0.1234  0.2665 -0.3031
28848SOL    HW1 4536   8.030   6.500   9.616  2.3651  1.2285 -0.3564
28848SOL    HW2 4537   8.086   6.496   9.757  1.5234 -0.9973 -0.0401
28849SOL     OW 4538   8.330   0.981   3.935 -0.1655  0.4208  0.1791
28849SOL    HW1 4539   8.269   0.997   4.007  2.6962  0.6963  2.7139
28849SOL    HW2 4540   8.359   0.891   3.948  1.2738  0.8597  0.0985
28850SOL     OW 4541   2.645   4.722  10.013 -0.5460 -1.1202 -0.2949
28850SOL    HW1 4542   2.641   4.807  10.056  0.8830 -0.8789 -0.5853
28850SOL    HW2 4543   2.577   4.670  10.055 -1.2430  0.0671  0.0820
28851SOL     OW 4544   4.173   0.958   6.017  0.0393  0.4387 -0.0611
28851SOL    HW1 4545   4.257   0.972   6.059  0.3279  0.4442 -0.6341
28851SOL    HW2 4546   4.130   0.891   6.071 -0.4345  1.8562  1.4062
28852SOL     OW 4547   4.565   7.505   8.849 -0.0046 -0.4608  0.2640
28852SOL    HW1 4548   4.539   7.560   8.923 -2.1358 -0.1227 -0.6522
28852SOL    HW2 4549   4.594   7.568   8.782  1.5018 -0.7399  0.6123
28853SOL     OW 4550  13.241   3.568   7.325  0.1847 -0.1586  0.8262
28853SOL    HW1 4551  13.192   3.649   7.309 -0.9450 -0.5267  2.2448
28853SOL    HW2 4552  13.239   3.557   7.420  0.8432 -1.5448  0.7044
28854SOL     OW 4553   5.550  12.492  12.122  0.9084 -0.4205 -0.3642
28854SOL    HW1 4554   5.606  12.415  12.130 -0.4888 -1.3804  0.6553
28854SOL    HW2 4555   5.524  12.512  12.212  1.6438  1.5892 -0.5468
28855SOL     OW 4556  10.532   7.770   7.388  0.5633  0.0886 -0.4755
28855SOL    HW1 4557  10.508   7.851   7.434  0.8855  0.0016 -0.1458
28855SOL    HW2 4558  10.547   7.706   7.458 -1.8212 -0.8917 -0.7838
28856SOL     OW 4559  10.276   0.627  12.251 -0.1703  0.0654 -0.5724
28856SOL    HW1 4560  10.285   0.607  12.158 -0.0396  1.7303 -0.9605
28856SOL    HW2 4561  10.218   0.703  12.253 -1.4423 -0.8717  0.8292
28857SOL     OW 4562   4.345  12.324  10.837 -0.4196  0.3965 -0.5749
28857SOL    HW1 4563   4.372  12.393  10.777 -2.3369  0.3393 -1.5672
28857SOL    HW2 4564   4.377  12.243  10.797 -0.3133  0.4911 -0.6809
28858SOL     OW 4565  13.968   9.899   9.786 -0.7393 -0.0125  0.1181
28858SOL    HW1 4566  13.887   9.858   9.816 -0.0791 -0.3129  1.6014
28858SOL    HW2 4567  14.007   9.934   9.866 -0.0165  1.2377 -0.7601
28859SOL     OW 4568   2.672   9.051   1.752 -0.1099 -0.1678 -0.7115
28859SOL    HW1 4569   2.752   9.031   1.800 -0.2442 -1.0686 -0.8330
28859SOL    HW2 4570   2.616   9.096   1.816  0.1021 -0.4579 -0.3205
28860SOL     OW 4571  12.690   5.115   0.388 -0.0815  0.1126  0.3234
28860SOL    HW1 4572  12.634   5.049   0.430  0.8903 -1.3816 -0.6311
28860SOL    HW2 4573  12.778   5.096   0.422  0.1283  1.3456  0.5118
28861SOL     OW 4574   4.761   6.931   2.956 -0.0514 -0.6985 -0.5190
28861SOL    HW1 4575   4.813   6.904   2.880  1.1622  1.9013 -0.7194
28861SOL    HW2 4576   4.686   6.978   2.919 -0.3002 -0.7865 -0.1327
28862SOL     OW 4577  12.242   1.412   9.811  0.2372 -0.4223 -0.1052
28862SOL    HW1 4578  12.176   1.439   9.875  1.2144 -0.5546  0.9912
28862SOL    HW2 4579  12.317   1.384   9.864  0.7651 -1.3432 -1.2940
28863SOL     OW 4580   4.890   2.336   5.112 -0.3356  0.1463  0.2003
28863SOL    HW1 4581   4.829   2.272   5.150 -1.1620 -0.3101 -1.7471
28863SOL    HW2 4582   4.844   2.369   5.035  0.9430  1.5789  0.0165
28864SOL     OW 4583  10.355   4.612   6.782  0.5793  0.1796  0.1136
28864SOL    HW1 4584  10.376   4.610   6.689 -0.4336  0.8661 -0.1485
28864SOL    HW2 4585  10.416   4.550   6.822  0.6679 -0.5242 -1.0720
28865SOL     OW 4586   3.000   7.909   5.782 -0.1294  0.0570 -0.2125
28865SOL    HW1 4587   3.035   7.847   5.846 -0.5416 -0.3377 -0.3606
28865SOL    HW2 4588   2.957   7.854   5.717  1.7721  0.3107 -1.7860
28866SOL     OW 4589  13.422   5.412   1.955  0.5572  0.2583  0.4085
28866SOL    HW1 4590  13.364   5.338   1.974  1.3820 -0.9579 -1.4506
28866SOL    HW2 4591  13.391   5.445   1.871  0.9384  1.2924  0.6648
28867SOL     OW 4592   0.902   3.778   0.749 -0.1749 -0.2590 -0.1988
28867SOL    HW1 4593   0.808   3.783   0.763 -0.2026 -0.3069 -0.3659
28867SOL    HW2 4594   0.928   3.692   0.782 -0.0320  0.1416  0.7566
28868SOL     OW 4595   0.770   8.817   6.070  0.0669  0.0718  0.4632
28868SOL    HW1 4596   0.783   8.858   6.155  0.3851 -0.8346  0.8687
28868SOL    HW2 4597   0.746   8.889   6.011  1.5454  0.9729  0.9231
28869SOL     OW 4598  12.838  12.276   7.580  0.1697  0.1273 -0.0719
28869SOL    HW1 4599  12.793  12.206   7.532  1.0057 -0.8536  0.5313
28869SOL    HW2 4600  12.810  12.264   7.671 -0.7024  1.4179 -0.1340
28870SOL     OW 4601   4.130   6.080   0.856  0.4394 -0.1123 -0.3179
28870SOL    HW1 4602   4.135   6.033   0.938  0.7834 -0.2037 -0.3913
28870SOL    HW2 4603   4.183   6.029   0.795 -0.0796 -0.2261 -0.6855
28871SOL     OW 4604   0.985   5.628   8.810 -0.1119  0.4255 -0.9822
28871SOL    HW1 4605   0.905   5.641   8.760 -0.4462 -3.0144 -1.5780
28871SOL    HW2 4606   0.957   5.620   8.901 -0.4994 -0.8779 -1.2032
28872SOL     OW 4607   3.925   8.861  11.902  0.0272  0.6320 -0.5179
28872SOL    HW1 4608   3.890   8.919  11.969  0.0207  1.5603 -1.3056
28872SOL    HW2 4609   4.020   8.861  11.917 -0.1486 -0.8914  0.8295
28873SOL     OW 4610   2.193  11.522  12.217 -0.0601 -0.7098  0.2951
28873SOL    HW1 4611   2.148  11.551  12.138 -1.2461 -0.5130  1.0102
28873SOL    HW2 4612   2.135  11.456  12.255  0.8481 -1.3465  0.6173
28874SOL     OW 4613  11.083   0.364   2.031  0.4776  0.4110 -0.7245
28874SOL    HW1 4614  11.077   0.387   2.123  2.0751 -2.3653  0.2123
28874SOL    HW2 4615  10.993   0.347   2.004  0.1800 -1.6481  1.2649
28875SOL     OW 4616   9.455  10.104   8.588  0.2342  0.0166 -0.4020
28875SOL    HW1 4617   9.413  10.179   8.631  1.8170  0.2316  0.8495
28875SOL    HW2 4618   9.425  10.028   8.639  0.0823 -0.0040 -0.5202
28876SOL     OW 4619   5.068   0.850   0.182  0.0282  0.1452 -0.6513
28876SOL    HW1 4620   5.115   0.889   0.256  2.5739 -0.9081 -1.6168
28876SOL    HW2 4621   5.077   0.756   0.195 -0.5297 -0.0599 -1.6762
28877SOL     OW 4622   8.857   2.849   0.414  0.5908 -0.2638 -0.6558
28877SOL    HW1 4623   8.896   2.885   0.493 -0.5353  0.8594 -0.5731
28877SOL    HW2 4624   8.902   2.766   0.400  1.0806 -0.2989  0.9430
28878SOL     OW 4625   8.921  13.086   2.240  0.6391  0.3725 -0.3151
28878SOL    HW1 4626   8.918  12.993   2.220  0.7413  0.3193 -0.0829
28878SOL    HW2 4627   8.977  13.092   2.317  2.2854  0.8080 -1.4772
28879SOL     OW 4628   5.527   7.267  12.679  0.1072 -0.5892  0.1557
28879SOL    HW1 4629   5.546   7.173  12.675 -2.1247 -1.0606 -1.8582
28879SOL    HW2 4630   5.439   7.272  12.715 -0.7224  0.5262 -1.8835
28880SOL     OW 4631   3.379   1.946   0.123 -0.6458  0.3113  0.0480
28880SOL    HW1 4632   3.462   1.993   0.114 -0.1901 -0.3008  0.8558
28880SOL    HW2 4633   3.352   1.927   0.033 -0.3311  1.2325 -0.2463
28881SOL     OW 4634   0.052   2.681   8.979  0.4186  0.0616 -0.1700
28881SOL    HW1 4635   0.000   2.606   8.948  0.6534  0.3004 -1.1781
28881SOL    HW2 4636  -0.007   2.728   9.038  0.1136 -0.6680  0.1210
28882SOL     OW 4637   8.754   6.199   8.765 -0.2360 -0.6862  0.4336
28882SOL    HW1 4638   8.839   6.194   8.809 -0.0942 -1.3420  0.0897
28882SOL    HW2 4639   8.774   6.191   8.672 -0.4162  1.9012  0.0904
28883SOL     OW 4640  12.133   7.027   9.414 -0.4932  0.1634  0.3976
28883SOL    HW1 4641  12.124   6.952   9.356  2.1208  1.1168 -1.4605
28883SOL    HW2 4642  12.214   7.010   9.463 -0.5815  1.1607  0.9193
28884SOL     OW 4643   5.855   4.792   7.319 -0.0425  0.2415  0.0373
28884SOL    HW1 4644   5.789   4.782   7.250 -2.3659  0.4873  2.0722
28884SOL    HW2 4645   5.912   4.716   7.310 -0.7221 -0.1064 -1.6623
28885SOL     OW 4646   5.988   1.785  14.023  0.1456 -0.3434 -0.8784
28885SOL    HW1 4647   5.934   1.707  14.008 -1.2657  0.7393 -1.7247
28885SOL    HW2 4648   5.946   1.829  14.097  0.8349 -0.2811 -0.5142
28886SOL     OW 4649   2.534  13.608   2.070 -0.2442 -0.0221 -0.1067
28886SOL    HW1 4650   2.610  13.634   2.123 -0.0870  0.3627 -0.5174
28886SOL    HW2 4651   2.482  13.687   2.062 -0.3018 -0.0961 -0.4715
28887SOL     OW 4652   7.712  11.340   6.350  0.3826  0.2725  0.0450
28887SOL    HW1 4653   7.638  11.369   6.297  1.4766 -0.7599 -2.1808
28887SOL    HW2 4654   7.760  11.421   6.369 -0.9683  0.8786  1.0415
28888SOL     OW 4655   0.809   5.892   8.417  0.3540  0.2438  0.2893
28888SOL    HW1 4656   0.792   5.898   8.511  1.1994 -0.1806  0.4839
28888SOL    HW2 4657   0.886   5.836   8.410  0.4662  0.4896 -0.6448
28889SOL     OW 4658   1.179   3.432   8.586  0.4761 -0.6609  0.4820
28889SOL    HW1 4659   1.174   3.361   8.650 -0.6623 -0.8734  0.1678
28889SOL    HW2 4660   1.178   3.388   8.501  1.8662 -0.3745  0.2824
28890SOL     OW 4661  10.184   0.165  10.393 -0.1389 -0.1594  0.1079
28890SOL    HW1 4662  10.216   0.095  10.337  1.2396  0.0870  0.5466
28890SOL    HW2 4663  10.088   0.157  10.390 -0.0323 -1.3173 -0.7578
28891SOL     OW 4664   7.977   5.461   3.430 -0.0872  0.5984 -0.0769
28891SOL    HW1 4665   7.956   5.386   3.485 -0.1969 -0.2179 -1.1867
28891SOL    HW2 4666   8.020   5.423   3.353  1.1164  1.8098 -0.0364
28892SOL     OW 4667   9.425   7.637   3.006 -0.6876  0.2805  0.4171
28892SOL    HW1 4668   9.424   7.732   2.990  0.2006  0.6236  2.1380
28892SOL    HW2 4669   9.434   7.629   3.101 -1.1045 -1.5511  0.3397
28893SOL     OW 4670   2.616   7.781   4.409 -0.2005  0.2000 -0.0672
28893SOL    HW1 4671   2.709   7.777   4.387 -0.0018  0.0301  0.7631
28893SOL    HW2 4672   2.612   7.843   4.482 -0.7795  0.4209 -0.2776
28894SOL     OW 4673   1.232   2.267  13.967  0.4299  0.2282  0.4273
28894SOL    HW1 4674   1.227   2.357  13.998  1.0168  0.6634 -0.6960
28894SOL    HW2 4675   1.318   2.260  13.926 -0.1607 -0.4100 -0.7663
28895SOL     OW 4676  13.940   0.577   6.066  0.1693 -0.0277 -0.5756
28895SOL    HW1 4677  13.988   0.495   6.054  0.2770 -0.2005  0.8743
28895SOL    HW2 4678  13.851   0.557   6.036 -0.2174 -1.1740  1.2080
28896SOL     OW 4679  12.264   5.269   1.201 -0.0124  0.0868 -0.3683
28896SOL    HW1 4680  12.319   5.249   1.125  0.3629 -2.1964  0.4259
28896SOL    HW2 4681  12.230   5.184   1.229  0.1079  0.8012  2.1915
28897SOL     OW 4682   5.912   5.149   2.564  0.4801 -0.0238 -0.3971
28897SOL    HW1 4683   5.989   5.099   2.537  0.8285  0.6201 -0.6073
28897SOL    HW2 4684   5.839   5.089   2.549  1.0239 -1.0588  0.8919
28898SOL     OW 4685   6.930   2.341   8.244 -0.5007  0.3193 -0.4228
28898SOL    HW1 4686   7.014   2.345   8.199 -0.4940  1.7262 -0.3365
28898SOL    HW2 4687   6.949   2.372   8.333 -0.8846 -0.5430 -0.0311
28899SOL     OW 4688   1.798  14.097  12.072 -0.2506 -0.7073 -0.7337
28899SOL    HW1 4689   1.887  14.124  12.052 -0.4721 -0.4453 -1.3702
28899SOL    HW2 4690   1.795  14.093  12.168  0.5092 -0.9578 -0.7220
28900SOL     OW 4691   4.171   5.478   2.759 -0.5121  0.3206  0.1298
28900SOL    HW1 4692   4.157   5.507   2.668 -1.8174 -0.0134  0.2024
28900SOL    HW2 4693   4.266   5.482   2.771 -0.2076 -0.6138 -1.5922
28901SOL     OW 4694   6.712   4.233   4.910 -0.3104 -0.4127 -0.0423
28901SOL    HW1 4695   6.642   4.209   4.850 -0.1684  1.7398 -1.1894
28901SOL    HW2 4696   6.791   4.236   4.855 -0.3811  2.8034 -0.1992
28902SOL     OW 4697   0.880   2.664   5.425  0.4852 -0.1183 -0.5389
28902SOL    HW1 4698   0.869   2.634   5.516  2.4063  1.1706  0.1918
28902SOL    HW2 4699   0.795   2.649   5.385 -0.7460  0.1845  1.7632
28903SOL     OW 4700   8.280   0.497  11.047  0.3420  0.0545  0.1231
28903SOL    HW1 4701   8.274   0.424  10.986  1.7809 -0.8744  1.0482
28903SOL    HW2 4702   8.232   0.468  11.125 -0.3372  0.7025 -0.0362
28904SOL     OW 4703   6.008  10.449   0.828  0.0762 -0.2032  0.7401
28904SOL    HW1 4704   5.936  10.511   0.824  0.2549 -0.0324 -0.1374
28904SOL    HW2 4705   5.993  10.398   0.908 -0.1752  0.8379  1.3665
28905SOL     OW 4706  12.920  14.005   8.419 -0.6218  0.0146  0.3469
28905SOL    HW1 4707  12.963  14.072   8.367 -1.5837  2.9993  3.1110
28905SOL    HW2 4708  12.832  13.998   8.381 -0.2481 -0.3507 -0.4742
28906SOL     OW 4709  13.712   2.182   6.702 -0.0144  0.1479  0.6232
28906SOL    HW1 4710  13.703   2.146   6.614  1.2372  1.6643 -0.1608
28906SOL    HW2 4711  13.769   2.120   6.747  1.3538  0.6035 -0.4170
28907SOL     OW 4712   0.972   4.052  10.728  0.0606  0.1260 -0.1027
28907SOL    HW1 4713   1.054   4.043  10.776 -0.5849 -0.8929  0.8617
28907SOL    HW2 4714   0.908   4.078  10.794 -0.5987 -0.0907 -0.6420
28908SOL     OW 4715   2.729   4.843   5.338 -0.3196 -0.1001  0.0473
28908SOL    HW1 4716   2.650   4.880   5.298 -0.7218 -1.3484 -0.3760
28908SOL    HW2 4717   2.722   4.749   5.322  1.0280 -0.2894  0.4288
28909SOL     OW 4718   4.288   5.795   1.856 -0.1847 -0.7255  0.7395
28909SOL    HW1 4719   4.382   5.795   1.873 -0.3293  0.3542  1.6943
28909SOL    HW2 4720   4.281   5.796   1.761  0.7841 -0.4736  0.6577
28910SOL     OW 4721  11.449  11.762  12.175  0.2602  0.6354  0.0198
28910SOL    HW1 4722  11.420  11.841  12.129 -1.5635 -0.0959 -0.2005
28910SOL    HW2 4723  11.412  11.690  12.123  1.2459 -0.3306  0.6289
28911SOL     OW 4724   5.458   2.573   9.288 -0.0786 -0.0362  0.0645
28911SOL    HW1 4725   5.520   2.613   9.349 -0.7046  1.6084 -0.3405
28911SOL    HW2 4726   5.471   2.479   9.300  0.3114  0.2362  2.2126
28912SOL     OW 4727  12.016  10.929  13.173 -0.2891  0.4138 -0.8220
28912SOL    HW1 4728  12.039  11.022  13.175 -0.2204  0.3994 -0.9256
28912SOL    HW2 4729  12.066  10.891  13.245  1.1394  0.1319 -1.9160
28913SOL     OW 4730   2.870   1.013  10.995  0.2568  0.0606 -0.0518
28913SOL    HW1 4731   2.867   1.073  10.920  0.8265  1.2422  0.8432
28913SOL    HW2 4732   2.960   0.980  10.995 -0.7338 -3.1002 -2.2283
28914SOL     OW 4733  12.653   1.002   0.210 -0.3397  0.2663 -0.1930
28914SOL    HW1 4734  12.705   1.038   0.138 -0.4369 -0.4645 -0.6379
28914SOL    HW2 4735  12.678   1.055   0.286 -0.1293  0.9573 -0.7260
28915SOL     OW 4736   0.444  13.845   7.344 -0.1732 -0.3109  0.1700
28915SOL    HW1 4737   0.486  13.787   7.281 -0.2441 -1.4657  1.1583
28915SOL    HW2 4738   0.352  13.818   7.344 -0.1862 -0.2659  0.7186
28916SOL     OW 4739   3.040   8.637  13.380  0.4341  0.0585  0.4162
28916SOL    HW1 4740   3.035   8.702  13.450 -1.5606  0.3994  0.0144
28916SOL    HW2 4741   3.061   8.687  13.302 -0.4172  0.1408  0.2310
28917SOL     OW 4742  10.938   4.745   5.866 -0.6185  0.0144  0.2003
28917SOL    HW1 4743  11.015   4.797   5.846 -1.0159  0.3936 -0.3931
28917SOL    HW2 4744  10.958   4.658   5.831 -0.3305  0.0201  0.3491
28918SOL     OW 4745   6.192   3.159   2.353 -0.4908 -0.1333 -0.2124
28918SOL    HW1 4746   6.206   3.241   2.306 -3.2444 -0.9964 -2.8793
28918SOL    HW2 4747   6.124   3.179   2.417 -0.3262 -0.0824 -0.0525
28919SOL     OW 4748  12.685   9.121  11.157 -0.3439  0.1747 -0.4855
28919SOL    HW1 4749  12.604   9.141  11.204 -1.0955 -3.8682  0.3426
28919SOL    HW2 4750  12.657   9.099  11.068 -0.2982 -1.4205 -0.1474
28920SOL     OW 4751  13.523   7.460   2.684  0.0567 -0.5733  0.6133
28920SOL    HW1 4752  13.611   7.473   2.650 -0.2305  0.2974  0.1552
28920SOL    HW2 4753  13.477   7.414   2.614 -0.4262  0.8702 -0.0634
28921SOL     OW 4754   8.992   0.712   9.625  0.0377 -0.3211  0.2008
28921SOL    HW1 4755   9.054   0.785   9.618 -0.5817  0.1367 -0.9506
28921SOL    HW2 4756   8.995   0.671   9.538 -0.8385 -0.6451  0.3196
28922SOL     OW 4757  11.190   3.075   6.237  0.0133 -0.9053  0.6735
28922SOL    HW1 4758  11.230   3.000   6.282  0.9236  1.6415  4.5903
28922SOL    HW2 4759  11.263   3.132   6.214 -0.8122 -0.0244  0.1376
28923SOL     OW 4760   1.911   6.435   8.084  0.5749  0.2659 -0.6419
28923SOL    HW1 4761   1.966   6.376   8.136 -0.9913 -1.7244 -1.1071
28923SOL    HW2 4762   1.960   6.517   8.081  1.6924 -0.1905  2.1691
28924SOL     OW 4763  13.110   9.185   7.232  0.2293  0.1950  0.1415
28924SOL    HW1 4764  13.053   9.207   7.158 -0.1880  0.0696  0.4200
28924SOL    HW2 4765  13.198   9.204   7.201  0.4317 -2.7842 -1.5389
28925SOL     OW 4766  10.321   0.276   4.371 -0.1429 -1.0451 -0.4417
28925SOL    HW1 4767  10.353   0.207   4.430  0.4359  0.1818  0.7284
28925SOL    HW2 4768  10.327   0.356   4.423  0.9282  0.1922 -2.3820
28926SOL     OW 4769   6.459  11.651   1.732 -0.3559  0.1508  0.9203
28926SOL    HW1 4770   6.495  11.580   1.785  0.2997 -0.0761  0.1917
28926SOL    HW2 4771   6.536  11.694   1.695 -0.7590 -1.6061 -2.3460
28927SOL     OW 4772   2.741  10.912   2.196  0.1395 -0.5899 -0.7634
28927SOL    HW1 4773   2.774  10.924   2.107  0.6229 -0.1142 -0.5240
28927SOL    HW2 4774   2.781  10.830   2.225  0.8784 -0.1832 -0.5926
28928SOL     OW 4775  12.107   0.511   6.300 -0.0244  0.4939  0.8567
28928SOL    HW1 4776  12.139   0.577   6.239  0.0852 -0.6722 -0.3916
28928SOL    HW2 4777  12.024   0.546   6.333 -1.2149  0.2117 -1.6430
28929SOL     OW 4778   9.378  10.290  11.482 -0.0424  0.6914  0.4317
28929SOL    HW1 4779   9.356  10.363  11.540  0.0599  1.3713 -0.3620
28929SOL    HW2 4780   9.456  10.252  11.521 -1.4197 -0.5312  2.1932
28930SOL     OW 4781   5.630  11.641  12.688  0.0024 -0.0648 -0.3125
28930SOL    HW1 4782   5.540  11.663  12.712 -0.0128 -1.5241  1.2154
28930SOL    HW2 4783   5.658  11.579  12.756  2.3846  0.8303 -0.3631
28931SOL     OW 4784   0.172   3.463  14.015  0.8035  0.2774 -0.0945
28931SOL    HW1 4785   0.183   3.370  14.035 -0.5019  0.2307  0.4824
28931SOL    HW2 4786   0.224   3.476  13.935 -0.3077 -1.3316 -1.1487
28932SOL     OW 4787   3.771   0.756  13.691  0.1618  0.3307  0.0222
28932SOL    HW1 4788   3.693   0.797  13.730  0.4319  1.0934 -0.2325
28932SOL    HW2 4789   3.803   0.819  13.628 -0.7376 -1.2228 -2.0969
28933SOL     OW 4790   7.885   0.756  11.406 -0.5194 -0.0520  0.6860
28933SOL    HW1 4791   7.825   0.688  11.376 -1.0684  0.3755  0.8115
28933SOL    HW2 4792   7.830   0.833  11.418 -0.0243  0.2220  1.2332
28934SOL     OW 4793   6.881  13.634  13.359  0.2679 -0.1232  0.2523
28934SOL    HW1 4794   6.971  13.659  13.334 -0.4617  1.3269 -1.1353
28934SOL    HW2 4795   6.877  13.651  13.453  0.6648  2.6818 -0.1300
28935SOL     OW 4796   1.160   2.097   0.815  0.4085 -0.2412 -0.1252
28935SOL    HW1 4797   1.075   2.118   0.851 -1.2508 -2.7327 -2.2113
28935SOL    HW2 4798   1.188   2.019   0.863  0.3613 -0.8287 -1.0291
28936SOL     OW 4799  12.474   2.565   9.632  0.4736 -0.4949 -0.3220
28936SOL    HW1 4800  12.442   2.512   9.559 -0.8522 -0.8129  0.4509
28936SOL    HW2 4801  12.565   2.584   9.611  0.5883 -1.9655 -1.2544
28937SOL     OW 4802   4.226  11.504   1.330 -0.1991 -0.0977 -0.0248
28937SOL    HW1 4803   4.133  11.527   1.338 -0.4814 -0.4502 -1.8024
28937SOL    HW2 4804   4.226  11.410   1.314  0.3483  0.0919 -1.2893
28938SOL     OW 4805   7.978  12.523   8.877 -0.4353  0.3833 -0.4217
28938SOL    HW1 4806   7.891  12.498   8.846 -0.2665 -0.5566 -0.1884
28938SOL    HW2 4807   8.001  12.601   8.826 -1.3115  0.4995 -0.6506
28939SOL     OW 4808  11.948   9.441   1.225 -0.2978  0.5738  0.8663
28939SOL    HW1 4809  11.866   9.459   1.180 -1.0944 -0.9442  1.6398
28939SOL    HW2 4810  11.941   9.489   1.308 -0.3517  0.5475  0.8770
28940SOL     OW 4811   9.082   3.563  11.087  0.0898 -0.3653 -0.3121
28940SOL    HW1 4812   9.006   3.577  11.144  1.8499 -0.1985  2.1313
28940SOL    HW2 4813   9.065   3.619  11.011 -1.6818  0.5543  0.7019
28941SOL     OW 4814   1.559  11.469   2.228  0.2308  0.4809 -0.4643
28941SOL    HW1 4815   1.644  11.450   2.188  0.6308  1.3829 -0.0504
28941SOL    HW2 4816   1.538  11.558   2.199 -0.1714  0.5872  0.1445
28942SOL     OW 4817   9.448  10.145   0.139 -0.1317 -0.1278  0.4090
28942SOL    HW1 4818   9.534  10.111   0.116  0.3851  1.3202  0.0702
28942SOL    HW2 4819   9.391  10.068   0.140  0.8962 -0.9477 -0.6545
28943SOL     OW 4820   3.898   2.603   6.932  0.2780  0.1571 -0.3127
28943SOL    HW1 4821   3.887   2.687   6.887  0.0331  0.4909  0.3602
28943SOL    HW2 4822   3.868   2.538   6.869 -1.0249  0.6937 -0.2655
28944SOL     OW 4823   2.416   8.924   4.452  0.7844 -0.1644 -0.2928
28944SOL    HW1 4824   2.397   8.842   4.498 -2.1921  0.4594 -0.2533
28944SOL    HW2 4825   2.437   8.897   4.362 -1.4454 -0.9484 -0.6241
28945SOL     OW 4826   2.882   4.615  12.871 -0.4755  0.3538  0.1548
28945SOL    HW1 4827   2.881   4.559  12.948 -1.5098 -0.5384 -0.4775
28945SOL    HW2 4828   2.902   4.702  12.905  0.6712 -0.2916  1.2154
28946SOL     OW 4829  10.539  13.066   1.050 -0.3987  0.0404 -0.2483
28946SOL    HW1 4830  10.552  12.977   1.018  2.1242  0.2468  0.0293
28946SOL    HW2 4831  10.527  13.056   1.145 -0.2537 -0.0148 -0.2357
28947SOL     OW 4832   5.724   0.415   7.468  0.3950  0.0219  0.3763
28947SOL    HW1 4833   5.710   0.497   7.515 -0.9008 -0.2473  0.4851
28947SOL    HW2 4834   5.731   0.349   7.537  0.4763 -0.0995  0.2514
28948SOL     OW 4835   1.951   8.273  11.842  0.4458  0.0299 -0.0037
28948SOL    HW1 4836   1.933   8.222  11.763  1.4733  1.2480 -1.0807
28948SOL    HW2 4837   1.974   8.360  11.809  2.6910  0.0961  1.4978
28949SOL     OW 4838   1.910   1.242   2.463 -0.1366  0.0707 -0.0274
28949SOL    HW1 4839   1.969   1.233   2.388  3.0342  0.6846  2.2000
28949SOL    HW2 4840   1.895   1.152   2.492 -0.7483 -0.1173 -0.8707
28950SOL     OW 4841   5.985  11.654   1.487 -0.0351  0.0958  0.0809
28950SOL    HW1 4842   5.981  11.600   1.408  2.3795 -0.4593  0.2595
28950SOL    HW2 4843   6.042  11.605   1.546 -0.3425  1.3609  1.4713
28951SOL     OW 4844   2.011  10.892   6.521  0.7848 -0.3019  0.0967
28951SOL    HW1 4845   1.949  10.820   6.533  1.3601 -1.0756 -1.2329
28951SOL    HW2 4846   1.957  10.971   6.524 -0.3270 -0.9604 -1.1623
28952SOL     OW 4847   5.201   0.888   8.758 -0.0823  0.4156  0.0158
28952SOL    HW1 4848   5.139   0.825   8.795  0.4146 -0.1940 -0.1728
28952SOL    HW2 4849   5.283   0.838   8.749  0.9125  1.6168  1.7527
28953SOL     OW 4850   9.110   7.889   8.145 -0.3027 -0.6783  0.0143
28953SOL    HW1 4851   9.056   7.820   8.106 -2.7442  1.0713  0.1045
28953SOL    HW2 4852   9.103   7.873   8.240 -2.0611  0.4468  0.1166
28954SOL     OW 4853   1.077  12.276   6.356 -0.3484  0.4521 -0.2546
28954SOL    HW1 4854   1.082  12.349   6.295 -1.4451  1.1904  0.4901
28954SOL    HW2 4855   1.159  12.281   6.406  0.3733  0.0815 -1.3620
28955SOL     OW 4856  10.361   7.195   0.159 -0.1807 -0.6943 -0.0970
28955SOL    HW1 4857  10.273   7.220   0.130 -0.4989 -1.4884  0.1317
28955SOL    HW2 4858  10.378   7.252   0.234  0.6153  1.3028 -1.7226
28956SOL     OW 4859   6.058   5.551   0.687 -0.5441 -0.5032 -0.0667
28956SOL    HW1 4860   6.148   5.517   0.693  0.2203  1.5881  1.2884
28956SOL    HW2 4861   6.054   5.590   0.600 -0.1525 -0.6306 -0.1476
28957SOL     OW 4862  11.934   5.540   1.268  0.2814  0.2549 -0.4551
28957SOL    HW1 4863  11.954   5.452   1.235 -0.6931 -0.4872  0.8377
28957SOL    HW2 4864  11.883   5.524   1.348 -0.4490  1.9995 -0.5404
28958SOL     OW 4865  10.983   2.997   1.819  0.4525  0.0117  0.2681
28958SOL    HW1 4866  10.943   3.008   1.905 -0.3838  0.6474 -0.1922
28958SOL    HW2 4867  11.077   2.990   1.837  0.2615 -0.1615  1.2488
28959SOL     OW 4868  10.193   2.115   4.755  0.5259 -0.1799 -0.3179
28959SOL    HW1 4869  10.143   2.160   4.687  1.4577 -0.5562 -1.2694
28959SOL    HW2 4870  10.241   2.046   4.709  0.3688 -1.1252  0.8760
28960SOL     OW 4871  12.001  10.125  12.486  0.4468  0.8657  0.0505
28960SOL    HW1 4872  12.091  10.134  12.456  0.3228  2.6756  0.1162
28960SOL    HW2 4873  12.008  10.094  12.577  0.9982  0.9865  0.0487
28961SOL     OW 4874  12.057  13.019  12.751 -0.9188 -0.3296 -0.2199
28961SOL    HW1 4875  12.078  13.035  12.659 -1.9793  1.6178 -0.1894
28961SOL    HW2 4876  11.991  12.950  12.749 -1.2988  0.0384 -0.9806
28962SOL     OW 4877  13.781   6.750   2.568  0.0356  0.4495 -0.2594
28962SOL    HW1 4878  13.814   6.755   2.658 -1.3026 -0.2269  0.2955
28962SOL    HW2 4879  13.745   6.838   2.551  1.3380  0.9486 -0.5928
28963SOL     OW 4880  13.903   9.226   6.254  0.1477 -0.8466 -0.3679
28963SOL    HW1 4881  13.960   9.149   6.266 -0.0796 -0.7674  1.7224
28963SOL    HW2 4882  13.943   9.294   6.309 -0.9770 -0.2440 -0.2597
28964SOL     OW 4883   5.861   8.926   4.056 -0.0912  0.0282  0.2193
28964SOL    HW1 4884   5.898   8.975   4.130  1.2606 -1.5437  0.6442
28964SOL    HW2 4885   5.812   8.855   4.096  0.5465 -0.7643 -0.3743
28965SOL     OW 4886   1.447   2.832   7.348 -0.6973  0.3962 -0.1288
28965SOL    HW1 4887   1.458   2.910   7.403 -0.7376  1.4378 -1.5377
28965SOL    HW2 4888   1.354   2.810   7.356 -0.7516  0.6874  0.0512
28966SOL     OW 4889  12.397  11.815   5.478  0.1248  0.4831 -0.1522
28966SOL    HW1 4890  12.343  11.894   5.466  1.7516  1.6567 -0.0407
28966SOL    HW2 4891  12.471  11.845   5.530  0.9893 -1.0418 -0.4688
28967SOL     OW 4892   6.604   0.055  12.234  1.1031  0.0760  0.0057
28967SOL    HW1 4893   6.662  -0.021  12.234  0.5318 -0.3707 -0.7281
28967SOL    HW2 4894   6.651   0.122  12.185  1.1865 -0.1305 -0.1959
28968SOL     OW 4895   1.699  13.748  10.125  0.0920  0.3154 -0.1659
28968SOL    HW1 4896   1.751  13.781  10.051 -0.5324  1.6349 -0.0388
28968SOL    HW2 4897   1.670  13.661  10.097  3.1785 -0.9457  0.1560
28969SOL     OW 4898  12.267  13.463   7.655 -0.6904  0.1364  0.2894
28969SOL    HW1 4899  12.320  13.521   7.709 -0.3430 -1.3609  1.6432
28969SOL    HW2 4900  12.240  13.517   7.581 -0.5369  2.0441  1.5617
28970SOL     OW 4901   8.762   7.314   4.956 -0.3598  0.6205 -0.2026
28970SOL    HW1 4902   8.710   7.328   5.035  0.6319 -1.4707  0.8863
28970SOL    HW2 4903   8.792   7.224   4.962  1.2866  0.9763 -2.0597
28971SOL     OW 4904   2.667   0.758   2.191 -0.3782  0.1283 -0.1919
28971SOL    HW1 4905   2.692   0.719   2.275  1.5985 -0.0941 -0.8480
28971SOL    HW2 4906   2.724   0.834   2.182  0.4040 -0.6130 -1.9285
28972SOL     OW 4907   0.292   7.363   3.298  0.1599 -0.2903 -0.0915
28972SOL    HW1 4908   0.386   7.347   3.300  0.2883  0.5037  0.4778
28972SOL    HW2 4909   0.271   7.370   3.205  0.7636  0.0870 -0.2032
28973SOL     OW 4910   1.112  11.831  10.601 -0.4162  0.6123 -0.4890
28973SOL    HW1 4911   1.040  11.849  10.662 -0.6095 -1.8948  0.1417
28973SOL    HW2 4912   1.176  11.900  10.619 -2.1210  2.1990 -0.2323
28974SOL     OW 4913   3.750   6.170   8.000 -0.7005 -0.5623 -0.3334
28974SOL    HW1 4914   3.739   6.227   7.925 -0.2957  0.3042  0.2426
28974SOL    HW2 4915   3.719   6.222   8.075  1.0798 -0.4977  0.4100
28975SOL     OW 4916   7.997  13.367   5.039 -0.6911  0.9621  0.2189
28975SOL    HW1 4917   7.947  13.345   5.118  0.5395  0.9241  1.0174
28975SOL    HW2 4918   8.055  13.438   5.066  2.0419 -1.1117  0.3508
28976SOL     OW 4919  13.536  11.238   6.776 -0.0893  0.4732 -0.0835
28976SOL    HW1 4920  13.548  11.207   6.686  0.2461  2.6882 -0.8545
28976SOL    HW2 4921  13.474  11.310   6.769  0.5522  1.2034  1.3436
28977SOL     OW 4922   2.783   5.709   8.694 -0.1971  0.0113  0.2568
28977SOL    HW1 4923   2.825   5.785   8.655  0.3787 -0.0976  0.6608
28977SOL    HW2 4924   2.856   5.654   8.724 -0.5934 -0.8485 -0.3203
28978SOL     OW 4925   2.679   9.328   2.649 -0.5190 -0.8537 -0.0635
28978SOL    HW1 4926   2.672   9.376   2.567 -0.3085  0.8764  0.8875
28978SOL    HW2 4927   2.593   9.337   2.690 -0.4530 -1.2361  0.1720
28979SOL     OW 4928  13.135   6.432   8.600  0.3388 -0.2257 -0.3260
28979SOL    HW1 4929  13.063   6.466   8.654  0.8913  1.3482 -0.5244
28979SOL    HW2 4930  13.197   6.505   8.594  0.3531 -0.3590 -2.9964
28980SOL     OW 4931  10.040   3.360  11.455  0.3305 -0.2498 -0.4375
28980SOL    HW1 4932  10.097   3.332  11.526  0.8313 -0.5181 -0.9351
28980SOL    HW2 4933  10.086   3.333  11.375  0.0459  0.5474 -0.8850
28981SOL     OW 4934   9.316  12.016  13.485  0.2207  0.0765  0.7888
28981SOL    HW1 4935   9.234  12.013  13.535  0.0958  4.3196  1.1252
28981SOL    HW2 4936   9.289  11.998  13.395 -0.5759 -1.1700  1.2335
28982SOL     OW 4937  13.807   5.864   1.888  0.9617 -0.8072 -0.0863
28982SOL    HW1 4938  13.772   5.929   1.949  0.7538  0.4498 -1.4730
28982SOL    HW2 4939  13.847   5.797   1.943 -1.9629 -1.3594  1.5394
28983SOL     OW 4940   2.796  10.353  13.648  0.4293  0.4175  0.2346
28983SOL    HW1 4941   2.865  10.396  13.596  2.0119 -1.3921  0.7333
28983SOL    HW2 4942   2.819  10.374  13.739 -0.3203  0.6644  0.3762
28984SOL     OW 4943  12.535  11.195   0.903  0.5494  0.5599 -0.0461
28984SOL    HW1 4944  12.536  11.270   0.962 -0.2228  0.2856  0.3209
28984SOL    HW2 4945  12.621  11.197   0.860  1.1706  0.7035  1.1675
28985SOL     OW 4946   2.194   3.556  11.550 -0.3594  0.2616 -0.2816
28985SOL    HW1 4947   2.257   3.616  11.590  1.8436 -0.0258 -3.0378
28985SOL    HW2 4948   2.183   3.486  11.615  0.5122  1.3895  1.1312
28986SOL     OW 4949   0.340  11.166   5.567 -0.1755 -0.4506  0.0159
28986SOL    HW1 4950   0.301  11.080   5.549 -0.1778 -0.6791  1.0288
28986SOL    HW2 4951   0.268  11.228   5.555 -0.1201 -0.5623 -0.9286
28987SOL     OW 4952   1.824  11.379  10.895  0.4505  0.7373  0.5850
28987SOL    HW1 4953   1.798  11.469  10.913 -0.1963  0.8270 -0.7083
28987SOL    HW2 4954   1.742  11.334  10.873  1.1119  0.6484 -2.0491
28988SOL     OW 4955   4.008   2.166  10.738  0.6112 -0.2646 -0.0570
28988SOL    HW1 4956   4.088   2.132  10.777 -0.8367 -1.4576  2.1081
28988SOL    HW2 4957   3.945   2.094  10.748 -1.2953  1.3862  0.3525
28989SOL     OW 4958  10.486  12.921   2.778  0.3597  0.2796  0.3102
28989SOL    HW1 4959  10.581  12.912   2.779  0.3466 -0.0502  2.2381
28989SOL    HW2 4960  10.457  12.885   2.862 -1.4527  0.5848 -0.1332
28990SOL     OW 4961   0.370   2.831   7.177 -0.5455  0.2983  0.0302
28990SOL    HW1 4962   0.278   2.835   7.204 -0.4333  0.5931  0.3780
28990SOL    HW2 4963   0.395   2.740   7.189  0.1298  0.7832  3.0990
28991SOL     OW 4964   3.548  12.023  11.682  0.0717 -0.6027  0.5214
28991SOL    HW1 4965   3.642  12.005  11.676  0.3215  0.7513  0.1646
28991SOL    HW2 4966   3.520  11.975  11.760  1.3348  0.0356  1.4069
28992SOL     OW 4967   8.755   0.869   8.006  0.3943 -0.1039  0.5954
28992SOL    HW1 4968   8.731   0.835   7.920  0.0300  1.2814  0.1164
28992SOL    HW2 4969   8.837   0.824   8.028 -0.2226 -1.4828  0.1579
28993SOL     OW 4970  12.530   6.376   4.398  0.2426 -0.1893 -0.3876
28993SOL    HW1 4971  12.510   6.447   4.338 -0.1674 -2.6321 -3.4257
28993SOL    HW2 4972  12.592   6.321   4.351  2.4400 -0.7089  2.7678
28994SOL     OW 4973   1.468   6.742  10.635  0.1152 -1.1219 -0.2078
28994SOL    HW1 4974   1.551   6.721  10.676 -0.1547 -0.4222  0.7295
28994SOL    HW2 4975   1.483   6.824  10.590 -0.0053 -1.1093 -0.2273
28995SOL     OW 4976   8.273   6.914   0.784 -0.0309  0.4125  0.0139
28995SOL    HW1 4977   8.285   6.834   0.835 -0.3685  0.0001 -0.5486
28995SOL    HW2 4978   8.360   6.933   0.748 -0.3798 -0.9551 -1.6784
28996SOL     OW 4979  13.193  13.176   3.754  0.2191 -0.3960 -0.0752
28996SOL    HW1 4980  13.270  13.152   3.703  1.2596 -0.4780  1.4841
28996SOL    HW2 4981  13.154  13.093   3.780  0.2512 -0.3583  0.0929
28997SOL     OW 4982   6.249   3.797   0.150 -0.5002  0.8070  0.0373
28997SOL    HW1 4983   6.295   3.881   0.147  0.9763  0.0599  0.8566
28997SOL    HW2 4984   6.249   3.767   0.059 -0.1858  1.2326 -0.1076
28998SOL     OW 4985   6.391  13.003  13.177  0.1406 -0.1435 -0.5415
28998SOL    HW1 4986   6.306  12.974  13.208  0.0657  0.2362 -0.3884
28998SOL    HW2 4987   6.388  13.098  13.182  0.9970 -0.1518  0.6253
28999SOL     OW 4988   3.845   7.341   3.903 -0.3894  0.0466  0.9681
28999SOL    HW1 4989   3.815   7.261   3.946  0.9803 -1.2963 -0.4842
28999SOL    HW2 4990   3.933   7.322   3.873  0.0332  2.1598  0.6653
29000SOL     OW 4991   6.766   7.055   0.049  0.4635  0.0902  0.0320
29000SOL    HW1 4992   6.825   7.035   0.121  1.3715  0.5286 -0.5729
29000SOL    HW2 4993   6.817   7.110  -0.010 -0.5122  0.3953 -0.5665
29001SOL     OW 4994   0.198   7.589   3.147 -0.1503  0.2148  0.2653
29001SOL    HW1 4995   0.270   7.611   3.207  0.1273 -2.5438  1.0687
29001SOL    HW2 4996   0.238   7.592   3.060  0.5483  0.1524  0.5720
29002SOL     OW 4997   9.635   3.335   7.618 -0.3957 -0.1158 -0.6585
29002SOL    HW1 4998   9.695   3.383   7.561 -0.5422 -0.1912 -0.8782
29002SOL    HW2 4999   9.679   3.333   7.703 -0.0250 -0.2920 -0.8528
29003SOL     OW 5000  11.087   2.309   8.751  0.3314  0.0265  0.2639
29003SOL    HW1 5001  11.069   2.273   8.664  0.8795  1.3902 -0.4433
29003SOL    HW2 5002  11.147   2.247   8.792 -0.4086 -0.9399 -0.0760
29004SOL     OW 5003   9.781   3.709  12.763 -0.1024 -0.2051  0.1866
29004SOL    HW1 5004   9.774   3.774  12.833  1.9649 -1.0854  1.2842
29004SOL    HW2 5005   9.740   3.751  12.687 -0.9597  1.4025  1.4827
29005SOL     OW 5006   0.208   7.662   5.949  0.0750 -0.1513  0.1536
29005SOL    HW1 5007   0.130   7.714   5.968  1.6843  1.6093  2.5102
29005SOL    HW2 5008   0.274   7.726   5.922  1.1349 -1.4076 -0.3445
29006SOL     OW 5009   5.192  13.577  13.561 -0.2548  0.1270 -0.3577
29006SOL    HW1 5010   5.169  13.534  13.644 -2.0850 -0.8979 -1.3238
29006SOL    HW2 5011   5.240  13.655  13.587  0.2791 -0.7977  1.6164
29007SOL     OW 5012  13.083  10.451   4.373  0.0518 -0.4037  0.2060
29007SOL    HW1 5013  13.027  10.411   4.439 -2.5369  2.1728 -0.2043
29007SOL    HW2 5014  13.044  10.424   4.289  1.4417 -1.1506 -0.2361
29008SOL     OW 5015   3.469   4.642  12.024  1.3660 -0.0990  0.6309
29008SOL    HW1 5016   3.440   4.635  12.115 -0.0384  2.2749  0.4405
29008SOL    HW2 5017   3.409   4.584  11.976  0.6516  0.3394  0.9729
29009SOL     OW 5018   6.048   6.294  10.028  0.3312  0.3448  0.0905
29009SOL    HW1 5019   6.069   6.383   9.997  0.4969  0.4143  0.3994
29009SOL    HW2 5020   6.012   6.307  10.116  1.3885  0.0207  0.5817
29010SOL     OW 5021  12.449  10.335   9.697 -0.2823  0.2514  0.1504
29010SOL    HW1 5022  12.441  10.430   9.707  3.6129  1.0925 -2.4804
29010SOL    HW2 5023  12.540  10.316   9.717 -0.5409 -2.6950 -0.9339
29011SOL     OW 5024  11.729   3.233  11.483 -0.3966  0.1880  0.3010
29011SOL    HW1 5025  11.774   3.149  11.495 -1.4116 -0.1718  2.0031
29011SOL    HW2 5026  11.765   3.289  11.552  1.0608  1.5646 -1.4797
29012SOL     OW 5027   7.291   2.790  10.977 -0.8170 -0.7327  0.2247
29012SOL    HW1 5028   7.382   2.819  10.973 -1.2346  1.2300  2.8277
29012SOL    HW2 5029   7.263   2.786  10.886  1.1862  0.9301 -0.5305
29013SOL     OW 5030   7.567   0.446   0.775 -0.1075  0.0270  0.3691
29013SOL    HW1 5031   7.484   0.449   0.822 -0.4156 -0.0287 -0.1634
29013SOL    HW2 5032   7.562   0.518   0.712 -0.2363 -0.6756 -0.4446
29014SOL     OW 5033   8.175   3.100   4.983 -0.3975  0.0584  0.0656
29014SOL    HW1 5034   8.192   3.094   5.077  0.9267  1.9968  0.0101
29014SOL    HW2 5035   8.079   3.097   4.976 -0.4870 -1.1734  1.3546
29015SOL     OW 5036   5.171   4.649   6.044 -0.3249 -0.3752  0.0709
29015SOL    HW1 5037   5.244   4.663   6.104 -2.1844  1.3436  2.1308
29015SOL    HW2 5038   5.093   4.669   6.096 -2.1885 -0.5145 -2.4541
29016SOL     OW 5039   4.708   0.226  10.842  0.0319  0.1157 -0.3088
29016SOL    HW1 5040   4.620   0.203  10.871  0.2959 -0.7891 -0.2074
29016SOL    HW2 5041   4.750   0.143  10.821  1.8980  0.1830  2.5207
29017SOL     OW 5042  12.805   3.452  10.426  0.1082 -0.1915  0.0053
29017SOL    HW1 5043  12.876   3.515  10.412  0.3474 -0.4353  0.1042
29017SOL    HW2 5044  12.775   3.429  10.338  0.2410 -0.1847 -0.0416
29018SOL     OW 5045  10.984   0.570   7.330 -0.4608 -0.0694 -0.3744
29018SOL    HW1 5046  10.923   0.606   7.394 -0.4891 -0.1688 -0.3452
29018SOL    HW2 5047  10.990   0.637   7.262  1.4544  1.1230  0.9074
29019SOL     OW 5048   4.811   1.948   6.739 -0.1778 -0.5102  0.2722
29019SOL    HW1 5049   4.870   2.021   6.718  0.8224 -1.3394  0.1203
29019SOL    HW2 5050   4.837   1.920   6.827 -2.2126  0.8755  1.4090
29020SOL     OW 5051   8.938   5.043   6.271 -0.2707 -0.0913 -0.1244
29020SOL    HW1 5052   9.005   4.989   6.229 -0.0769  0.3376 -0.3781
29020SOL    HW2 5053   8.953   5.130   6.235 -0.7609  0.0714  0.0657
29021SOL     OW 5054   3.931   5.239   0.321  0.1862  0.4183 -0.8759
29021SOL    HW1 5055   3.900   5.329   0.317  0.0041  0.3452 -1.2973
29021SOL    HW2 5056   4.024   5.244   0.303  0.1043  0.4902 -1.2974
29022SOL     OW 5057  10.106  10.653   0.925 -0.1113 -0.0759 -0.0923
29022SOL    HW1 5058  10.048  10.591   0.881 -0.3283 -0.8430  1.2047
29022SOL    HW2 5059  10.193  10.633   0.890 -0.1591 -1.2428  0.3971
29023SOL     OW 5060   6.617   2.519   6.134  0.4838  0.1382 -0.0034
29023SOL    HW1 5061   6.549   2.503   6.069  1.6203  0.0224 -1.2260
29023SOL    HW2 5062   6.577   2.497   6.218 -1.1479  0.6524 -0.6154
29024SOL     OW 5063  11.805  12.093   4.141  0.3524 -0.3007  0.2077
29024SOL    HW1 5064  11.771  12.181   4.157 -0.7963 -0.7681  0.4198
29024SOL    HW2 5065  11.750  12.036   4.194  1.2266 -1.1372  0.2408
29025SOL     OW 5066   3.285   4.779  10.872  0.5331 -0.1125  0.4327
29025SOL    HW1 5067   3.228   4.779  10.795  0.9229  0.5881  0.1324
29025SOL    HW2 5068   3.326   4.865  10.871  0.3000  0.0358  1.6098
29026SOL     OW 5069   7.816   0.608  12.982 -0.4468  0.7078  0.0991
29026SOL    HW1 5070   7.897   0.636  12.938 -1.6386  0.8877 -2.1353
29026SOL    HW2 5071   7.792   0.683  13.037 -0.2072  1.5246 -0.8749
29027SOL     OW 5072   6.862   2.889   0.607  0.4704  0.1435  0.4212
29027SOL    HW1 5073   6.859   2.949   0.681  1.1879 -0.7468  1.2070
29027SOL    HW2 5074   6.952   2.855   0.608  0.9145  1.0980 -1.6852
29028SOL     OW 5075   1.296   6.641   2.160 -0.3870 -0.2183  0.0136
29028SOL    HW1 5076   1.267   6.589   2.085  0.5859 -1.5904  0.5268
29028SOL    HW2 5077   1.344   6.578   2.215  0.2439  1.0916  1.0211
29029SOL     OW 5078   2.341  11.081   9.535  0.2666  0.1325  0.3676
29029SOL    HW1 5079   2.366  11.042   9.618 -1.6776  0.6023  1.2355
29029SOL    HW2 5080   2.252  11.115   9.550  0.1436  0.8711 -1.6789
29030SOL     OW 5081   1.629   4.429  13.383 -0.7330  0.0315  0.1441
29030SOL    HW1 5082   1.538   4.423  13.354 -0.9010 -2.4126  0.9490
29030SOL    HW2 5083   1.676   4.367  13.327  0.3970  0.9914 -0.0085
29031SOL     OW 5084   9.727   8.424   6.261  0.0653  0.0350 -0.1110
29031SOL    HW1 5085   9.657   8.379   6.309  0.6141 -0.7270 -0.0002
29031SOL    HW2 5086   9.778   8.469   6.328  0.0059  0.1372 -0.1341
29032SOL     OW 5087  11.946   7.024   5.119  0.2191 -0.7107 -0.1920
29032SOL    HW1 5088  12.033   7.002   5.153  1.2223  2.2548 -0.4969
29032SOL    HW2 5089  11.954   7.011   5.025 -0.6209 -3.1021  0.0189
29033SOL     OW 5090   4.467  11.212   6.974  0.6375  0.1944  0.3194
29033SOL    HW1 5091   4.379  11.248   6.961  0.2818 -0.4720  0.8441
29033SOL    HW2 5092   4.517  11.285   7.011  0.9162  1.2621 -1.9612
29034SOL     OW 5093   3.972  10.373   8.702  0.1472  0.5964 -0.0800
29034SOL    HW1 5094   4.042  10.363   8.637 -0.6887 -0.6797 -0.8415
29034SOL    HW2 5095   4.017  10.385   8.785  1.3580 -2.0874 -0.2332
29035SOL     OW 5096  13.629   1.570  11.486 -0.3523 -0.1048 -0.1518
29035SOL    HW1 5097  13.573   1.583  11.562 -0.9264  1.1518 -0.7553
29035SOL    HW2 5098  13.570   1.575  11.411  0.1943 -1.3545 -0.6997
29036SOL     OW 5099  13.267  10.436  13.395  0.2897  0.5916  0.5050
29036SOL    HW1 5100  13.352  10.391  13.398  0.6031  1.0009 -1.2659
29036SOL    HW2 5101  13.203  10.366  13.406  0.8388  0.2089  1.3583
29037SOL     OW 5102   6.259  13.577   9.530  0.3372 -0.1538  0.0820
29037SOL    HW1 5103   6.326  13.509   9.536  0.2523 -0.3509 -0.9686
29037SOL    HW2 5104   6.188  13.535   9.481 -0.1530  0.3541  0.3615
29038SOL     OW 5105  11.803   1.833  14.033 -0.1473  0.1499 -0.6460
29038SOL    HW1 5106  11.768   1.889  14.102 -0.5549 -1.3913  0.4488
29038SOL    HW2 5107  11.730   1.819  13.973 -0.8391 -1.2776  0.4693
29039SOL     OW 5108   8.303   7.765   6.328 -0.1301 -0.0713  0.5155
29039SOL    HW1 5109   8.291   7.673   6.352 -0.9255 -0.3409 -0.8052
29039SOL    HW2 5110   8.215   7.799   6.314  0.1924  0.6483  0.1232
29040SOL     OW 5111   6.166  12.614  10.319  0.1550  0.2467 -0.6486
29040SOL    HW1 5112   6.128  12.526  10.325  0.1043  0.3766  1.8509
29040SOL    HW2 5113   6.093  12.669  10.289 -1.0875  0.0758  1.7977
29041SOL     OW 5114   7.850   8.115   1.907 -0.2001 -0.1245 -0.1412
29041SOL    HW1 5115   7.801   8.089   1.985  0.1125 -0.1613  0.0428
29041SOL    HW2 5116   7.860   8.209   1.915  0.6450 -0.2504  0.3345
29042SOL     OW 5117   7.540  12.517  12.389  0.3415  0.0244  0.0373
29042SOL    HW1 5118   7.485  12.442  12.367 -1.2620  1.2932 -0.4789
29042SOL    HW2 5119   7.584  12.491  12.470  1.9893 -2.5116 -1.5255
29043SOL     OW 5120   5.010   0.671  13.737  0.4530 -0.1016  0.0331
29043SOL    HW1 5121   4.992   0.765  13.746 -0.4265 -0.2325 -0.2179
29043SOL    HW2 5122   5.093   0.658  13.782  0.5934  0.8005  0.0622
29044SOL     OW 5123  10.150  10.031  11.008  0.4680  0.8339 -0.2670
29044SOL    HW1 5124  10.113  10.050  11.094 -0.7591 -0.6833 -0.4039
29044SOL    HW2 5125  10.074  10.020  10.951  1.2384  0.8912 -1.3408
29045SOL     OW 5126   6.076   7.949   5.837  0.4564 -0.2604 -0.3183
29045SOL    HW1 5127   6.007   7.890   5.865 -0.0392 -0.6256 -2.1752
29045SOL    HW2 5128   6.052   7.974   5.747  2.9535 -0.7676 -1.2070
29046SOL     OW 5129  10.135   5.005  13.451  0.6908 -0.1007 -0.4853
29046SOL    HW1 5130  10.099   5.081  13.497  1.0143  0.3402 -0.9550
29046SOL    HW2 5131  10.222   5.034  13.421 -0.3705  0.4410 -3.3669
29047SOL     OW 5132   0.601  13.411  13.859 -0.1323  0.1452 -0.3217
29047SOL    HW1 5133   0.653  13.421  13.939  0.1340 -1.4114 -0.2613
29047SOL    HW2 5134   0.642  13.338  13.813 -1.3388 -0.1085 -1.0355
29048SOL     OW 5135   3.168  10.305   5.567  0.3358 -0.7062 -0.2613
29048SOL    HW1 5136   3.191  10.314   5.474  1.7381  0.0369  0.1338
29048SOL    HW2 5137   3.247  10.270   5.608 -0.3348 -1.1990  0.6355
29049SOL     OW 5138  11.997  10.420   6.745  0.5313  0.1933  0.2466
29049SOL    HW1 5139  12.007  10.397   6.837 -3.1434  1.7840  1.2217
29049SOL    HW2 5140  12.059  10.491   6.731 -1.3783  2.5607  2.7096
29050SOL     OW 5141   4.764   2.897   8.419  0.2336 -0.1892  0.2628
29050SOL    HW1 5142   4.731   2.946   8.494  0.9513  1.8530 -0.6799
29050SOL    HW2 5143   4.821   2.830   8.458 -1.6842 -1.1166  1.6489
29051SOL     OW 5144   9.576  13.351  11.725 -0.0239  0.0344 -0.4163
29051SOL    HW1 5145   9.505  13.375  11.784  0.8091 -0.3909  0.8038
29051SOL    HW2 5146   9.640  13.422  11.733 -0.6376  0.8418 -2.1441
29052SOL     OW 5147   6.585  10.536   4.999 -0.4973 -0.1124  0.0537
29052SOL    HW1 5148   6.546  10.450   5.013  0.7458 -0.8397 -0.7599
29052SOL    HW2 5149   6.573  10.554   4.906  0.8126 -0.2414 -0.1673
29053SOL     OW 5150   7.182   6.833   5.062  0.2776  0.4858  0.0091
29053SOL    HW1 5151   7.219   6.834   4.973 -1.0217 -0.8268 -0.5860
29053SOL    HW2 5152   7.245   6.782   5.113  0.7584  0.7838 -0.2780
29054SOL     OW 5153   0.709   5.267   5.240 -0.1442  0.3027  0.1628
29054SOL    HW1 5154   0.739   5.356   5.261 -0.3295  0.2505  0.6574
29054SOL    HW2 5155   0.614   5.273   5.241 -0.1813 -0.2350  1.6925
29055SOL     OW 5156   6.415   1.467   3.321  0.3108 -0.0563 -0.0199
29055SOL    HW1 5157   6.437   1.448   3.230 -0.6641  1.1426 -0.5259
29055SOL    HW2 5158   6.396   1.560   3.323  0.4695 -0.0171  1.4589
29056SOL     OW 5159   8.808  11.577  12.169  0.4425 -0.1040 -0.7877
29056SOL    HW1 5160   8.787  11.485  12.186  1.8417 -0.1330  1.0615
29056SOL    HW2 5161   8.817  11.616  12.256  0.8399  1.5601 -1.5435
29057SOL     OW 5162  13.583   3.164  10.105  0.1233  0.5185  0.0119
29057SOL    HW1 5163  13.494   3.178  10.072 -0.5402  1.2118  1.9354
29057SOL    HW2 5164  13.610   3.249  10.140  2.0769  0.6461 -1.6138
29058SOL     OW 5165  11.001   5.367   7.077  0.3815  0.6537  0.0419
29058SOL    HW1 5166  11.062   5.388   7.007  0.5891 -1.0104 -0.3350
29058SOL    HW2 5167  10.979   5.275   7.062 -0.1899  0.4835  1.6911
29059SOL     OW 5168   2.985   4.669   1.068  0.5170  0.0477  0.1350
29059SOL    HW1 5169   2.983   4.718   1.150 -1.7929 -2.1645  1.5102
29059SOL    HW2 5170   3.075   4.635   1.063  0.2676 -1.2282  2.7132
29060SOL     OW 5171   9.336  12.900  12.703 -0.4518 -0.2081 -0.4222
29060SOL    HW1 5172   9.425  12.909  12.669 -0.6975 -0.8592 -1.2781
29060SOL    HW2 5173   9.309  12.812  12.676 -1.8662  0.4867 -1.3802
29061SOL     OW 5174  12.253   6.997   3.777 -0.0743 -0.0275  0.2131
29061SOL    HW1 5175  12.205   6.973   3.698 -2.9972  2.2937  1.0886
29061SOL    HW2 5176  12.277   7.089   3.764 -0.8358  0.4893  2.0121
29062SOL     OW 5177   2.117   9.755   9.749  0.0537 -0.9126  0.3166
29062SOL    HW1 5178   2.122   9.827   9.811  0.4431 -1.3441  0.7934
29062SOL    HW2 5179   2.037   9.773   9.698  0.3530  0.0508  0.1685
29063SOL     OW 5180   6.661  14.074   2.340  0.2092  0.2218  0.5465
29063SOL    HW1 5181   6.609  13.994   2.340 -0.5502  0.7059  1.0546
29063SOL    HW2 5182   6.627  14.125   2.267  0.8423 -0.0022  0.0840
29064SOL     OW 5183   1.828  11.451   8.762 -0.3667 -0.0605 -0.3138
29064SOL    HW1 5184   1.823  11.547   8.764  0.5056  0.0998 -2.5417
29064SOL    HW2 5185   1.919  11.431   8.786 -0.4352 -0.2890 -0.2439
29065SOL     OW 5186   5.065   2.396   2.511 -0.1289  0.4713 -0.1823
29065SOL    HW1 5187   5.017   2.356   2.583 -0.2336  1.0796  0.0914
29065SOL    HW2 5188   4.998   2.445   2.462 -0.6205 -2.0520 -2.2696
29066SOL     OW 5189   3.780  10.386   7.238 -0.1403  0.0929 -0.2495
29066SOL    HW1 5190   3.712  10.422   7.295 -0.1810 -0.1834 -0.1206
29066SOL    HW2 5191   3.862  10.412   7.279 -0.1286 -2.0564  1.2452
29067SOL     OW 5192  12.021   9.994   9.244  0.2221 -0.4191  0.2059
29067SOL    HW1 5193  11.930   9.967   9.259  0.0401 -0.9023 -1.5995
29067SOL    HW2 5194  12.026  10.081   9.284 -0.0814 -1.6598  3.2181
29068SOL     OW 5195   4.505   4.058  13.417  0.1571  1.0594 -0.0560
29068SOL    HW1 5196   4.566   4.122  13.455  0.7096  0.5465 -0.0710
29068SOL    HW2 5197   4.500   3.988  13.481 -0.1025  0.9084 -0.2430
29069SOL     OW 5198  13.765  10.603   2.891  0.2043  0.4086  0.2952
29069SOL    HW1 5199  13.846  10.635   2.850 -0.2567  1.9209  0.5169
29069SOL    HW2 5200  13.784  10.511   2.913  1.4633  0.4153 -0.6561
29070SOL     OW 5201  12.462   3.420   7.888 -0.7710  0.0556 -0.6954
29070SOL    HW1 5202  12.504   3.340   7.857 -1.8322 -0.3049 -1.2771
29070SOL    HW2 5203  12.486   3.426   7.981  0.9576  0.1586 -1.1135
29071SOL     OW 5204   2.651   3.738   0.043 -0.2497 -0.3170  0.0423
29071SOL    HW1 5205   2.681   3.655   0.006  0.0660 -0.3363  0.3265
29071SOL    HW2 5206   2.729   3.774   0.086 -0.8910 -0.9317  1.8434
29072SOL     OW 5207   9.857  11.571   6.870  0.0053  0.5928  0.1833
29072SOL    HW1 5208   9.784  11.514   6.896 -1.5139  2.0991 -0.6372
29072SOL    HW2 5209   9.848  11.648   6.926  0.3096  1.2545 -0.6628
29073SOL     OW 5210   8.026   0.522   0.106  0.0898  0.1457 -0.2800
29073SOL    HW1 5211   8.001   0.511   0.198 -2.1035  1.4606 -0.6656
29073SOL    HW2 5212   8.059   0.612   0.101 -0.6427  0.3889 -0.9321
29074SOL     OW 5213   1.794   8.160   0.642 -0.1876  0.0383  0.3090
29074SOL    HW1 5214   1.705   8.190   0.659  0.7418  2.0485  2.0646
29074SOL    HW2 5215   1.824   8.215   0.569 -0.0192  0.1764  0.4798
29075SOL     OW 5216   9.317   3.567  10.561  0.5720 -0.5905 -0.7213
29075SOL    HW1 5217   9.365   3.625  10.502 -0.1267  0.5887 -0.1773
29075SOL    HW2 5218   9.371   3.562  10.639  0.9065 -1.1518 -0.9827
29076SOL     OW 5219  11.383  14.023   0.812 -0.0691  0.0095 -0.2073
29076SOL    HW1 5220  11.419  14.008   0.725 -1.1339 -0.6139 -0.5622
29076SOL    HW2 5221  11.459  14.040   0.867  0.7557 -1.0897 -0.9569
29077SOL     OW 5222  12.603   1.048   8.719  0.0638 -0.5519 -0.1014
29077SOL    HW1 5223  12.559   1.069   8.636  0.2233 -0.2214 -0.1048
29077SOL    HW2 5224  12.562   0.967   8.748 -1.8194  0.6248  0.7786
29078SOL     OW 5225   7.898   4.743   9.949  0.0554  0.0126 -0.1770
29078SOL    HW1 5226   7.946   4.825   9.956 -0.3627  0.2313  0.2464
29078SOL    HW2 5227   7.919   4.709   9.863 -0.8877  1.2754 -0.9377
29079SOL     OW 5228  10.708  10.014   1.758 -0.5088  0.1834 -0.0580
29079SOL    HW1 5229  10.743   9.947   1.699  1.4855  2.4178 -1.6112
29079SOL    HW2 5230  10.781  10.038   1.814 -1.2933  0.8030  0.7437
29080SOL     OW 5231   2.379  11.360   0.321 -0.3180  0.0398 -0.0660
29080SOL    HW1 5232   2.420  11.438   0.283 -1.4493  1.4337  1.3888
29080SOL    HW2 5233   2.413  11.357   0.411 -0.5856 -0.9326  0.0159
29081SOL     OW 5234   0.570   6.620   5.341  0.1799  0.0582  0.0607
29081SOL    HW1 5235   0.487   6.657   5.368  0.6135 -0.0112  1.5613
29081SOL    HW2 5236   0.582   6.543   5.397  0.5417 -0.8375 -1.1814
29082SOL     OW 5237  12.419   6.094  10.523 -0.4010 -0.4774  0.8093
29082SOL    HW1 5238  12.341   6.115  10.472  0.4549 -0.3552 -0.4782
29082SOL    HW2 5239  12.386   6.041  10.595 -1.8695  0.7713  1.1178
29083SOL     OW 5240   0.226   8.179   1.995  0.1924  0.0076 -0.0044
29083SOL    HW1 5241   0.282   8.126   2.051 -0.7791 -0.1852  0.8036
29083SOL    HW2 5242   0.152   8.203   2.050  0.8507  2.7043 -0.1605
29084SOL     OW 5243   5.367  12.274   1.639 -0.3926 -0.2612  0.1618
29084SOL    HW1 5244   5.326  12.283   1.553 -1.9328 -1.9782  0.6451
29084SOL    HW2 5245   5.410  12.188   1.636 -1.8538 -1.0966  1.5890
29085SOL     OW 5246   6.916   6.167  11.627 -0.3581  0.0003 -0.3940
29085SOL    HW1 5247   7.008   6.139  11.624 -0.4983 -0.6462  0.7018
29085SOL    HW2 5248   6.919   6.262  11.617  0.5972  0.2096  1.5886
29086SOL     OW 5249   6.900  12.727   8.546 -0.7656  0.1792  0.1983
29086SOL    HW1 5250   6.810  12.756   8.557 -0.2021  1.8254  0.8672
29086SOL    HW2 5251   6.943  12.750   8.628  0.0911 -1.3077  0.1965
29087SOL     OW 5252   0.400  12.527   1.347  0.1320 -0.0005 -0.3535
29087SOL    HW1 5253   0.399  12.519   1.252  0.6996  0.6278 -0.4243
29087SOL    HW2 5254   0.350  12.607   1.364  0.5339  0.2110 -0.1661
29088SOL     OW 5255  11.645   1.111   7.646  0.0121 -0.6428 -0.6736
29088SOL    HW1 5256  11.738   1.095   7.666 -0.5790 -0.4742  2.8828
29088SOL    HW2 5257  11.643   1.203   7.620  0.6785 -0.0966  1.0546
29089SOL     OW 5258   5.977   2.959   4.169  0.1128 -0.8160  0.0255
29089SOL    HW1 5259   5.909   3.025   4.160  0.0468 -0.6815  1.3227
29089SOL    HW2 5260   5.978   2.913   4.085 -0.3876  0.2969 -0.6033
29090SOL     OW 5261   0.561   3.930   5.297 -0.0308  0.0999  0.6310
29090SOL    HW1 5262   0.510   3.856   5.330  0.3173  0.3843  1.8319
29090SOL    HW2 5263   0.638   3.890   5.257  1.1858 -0.1458  3.0692
29091SOL     OW 5264  10.173  12.679   1.788  0.0414 -0.2541  0.1443
29091SOL    HW1 5265  10.167  12.585   1.805 -0.4531 -0.0717  1.0229
29091SOL    HW2 5266  10.109  12.718   1.847 -0.4943  0.5584 -0.9387
29092SOL     OW 5267  12.100   7.581  10.419 -0.4445  0.2598  0.1227
29092SOL    HW1 5268  12.117   7.596  10.326  0.1679 -3.6012 -0.5902
29092SOL    HW2 5269  12.007   7.602  10.430 -0.0522  2.8274 -0.7554
29093SOL     OW 5270  13.784   5.980  11.148  0.2246 -0.5584  0.2352
29093SOL    HW1 5271  13.755   5.890  11.129 -1.4427 -0.0052  0.0753
29093SOL    HW2 5272  13.791   5.983  11.244  1.5060 -1.2033  0.1827
29094SOL     OW 5273   6.521   3.551   2.160  0.0856 -0.0264 -0.1942
29094SOL    HW1 5274   6.538   3.491   2.088 -1.2343 -1.1496  0.3924
29094SOL    HW2 5275   6.443   3.517   2.203 -0.5209  1.9268  0.3834
29095SOL     OW 5276   5.482   0.470  12.870  0.3714 -0.1279  0.1496
29095SOL    HW1 5277   5.456   0.382  12.840 -1.1381  0.3892 -0.1147
29095SOL    HW2 5278   5.577   0.471  12.859  0.2596 -1.2320 -1.2569
29096SOL     OW 5279   6.486   1.134   3.916 -0.1319  0.2703  0.4485
29096SOL    HW1 5280   6.498   1.068   3.985 -3.1488 -0.0909  0.7547
29096SOL    HW2 5281   6.427   1.093   3.853  0.0240  1.7692 -0.7456
29097SOL     OW 5282   2.630   7.699  11.651  0.2975 -0.2828 -0.1998
29097SOL    HW1 5283   2.662   7.674  11.737 -1.4436 -0.7999  0.3251
29097SOL    HW2 5284   2.583   7.781  11.666  1.4056  0.5246 -0.9768
29098SOL     OW 5285   8.400  12.331   4.756 -0.2235 -0.0066 -0.0102
29098SOL    HW1 5286   8.327  12.392   4.749 -0.1364 -0.0685 -2.0249
29098SOL    HW2 5287   8.380  12.279   4.834  0.1948  3.1352  2.4037
29099SOL     OW 5288  11.583   1.757   6.744 -0.4357  0.5136  0.3838
29099SOL    HW1 5289  11.669   1.771   6.784  0.2790  0.3676 -1.0389
29099SOL    HW2 5290  11.580   1.664   6.726 -0.5542  0.6428 -0.2843
29100SOL     OW 5291   0.019  10.312   4.755  0.4605  0.0708  0.2389
29100SOL    HW1 5292   0.006  10.271   4.840  0.4395 -0.4191  0.0009
29100SOL    HW2 5293  -0.003  10.404   4.770 -1.4392 -0.3499  0.3243
29101SOL     OW 5294   7.241  12.645   5.150  0.0395 -0.2451  0.3589
29101SOL    HW1 5295   7.152  12.674   5.126  0.4795  1.2526  0.4382
29101SOL    HW2 5296   7.294  12.668   5.074  0.7377  0.9189  1.1658
29102SOL     OW 5297   7.588  12.967   5.677  0.1758 -0.2811  0.1912
29102SOL    HW1 5298   7.633  13.036   5.630 -1.1027 -0.5334 -1.4838
29102SOL    HW2 5299   7.561  13.008   5.759 -2.5368  2.0201 -1.6596
29103SOL     OW 5300   0.840  12.059   6.052 -0.4101  0.1350 -0.2405
29103SOL    HW1 5301   0.874  12.132   6.001 -3.5995  1.5514 -0.5468
29103SOL    HW2 5302   0.755  12.039   6.014 -0.3370 -2.7897  0.8182
29104SOL     OW 5303  10.280   6.230   4.707  0.1708  0.3484  0.4048
29104SOL    HW1 5304  10.188   6.209   4.688  0.1361  0.2189  0.7112
29104SOL    HW2 5305  10.309   6.280   4.631  0.2756 -0.8710 -0.3703
29105SOL     OW 5306  12.669   1.814   4.397 -0.2203  0.4363 -0.2557
29105SOL    HW1 5307  12.644   1.892   4.348  0.2857  0.4626 -0.4896
29105SOL    HW2 5308  12.764   1.809   4.386 -0.2882 -0.4255 -0.5696
29106SOL     OW 5309  12.079  12.143  14.061 -0.3613 -0.0714 -0.4100
29106SOL    HW1 5310  12.015  12.168  13.995  1.9539  0.6739 -2.5502
29106SOL    HW2 5311  12.097  12.223  14.110 -0.5812 -0.1115 -0.2655
29107SOL     OW 5312   4.062  13.044   4.439 -0.3098  0.3883  0.2095
29107SOL    HW1 5313   4.048  13.063   4.346 -1.3358 -1.1494  0.0214
29107SOL    HW2 5314   3.979  13.065   4.481  0.4222  1.9503  0.9808
29108SOL     OW 5315  10.975   6.430   1.745 -0.1942 -0.3798  0.0294
29108SOL    HW1 5316  10.986   6.364   1.813 -0.6171 -0.6622 -0.1741
29108SOL    HW2 5317  11.032   6.400   1.673  0.2568 -0.0785  0.2573
29109SOL     OW 5318   5.912   8.884   6.273  0.3273 -0.1133 -0.1047
29109SOL    HW1 5319   5.873   8.958   6.227 -0.6725 -0.1171  0.7133
29109SOL    HW2 5320   5.997   8.872   6.231 -0.0581  0.6447 -1.1370
29110SOL     OW 5321  10.021   4.292   2.772  0.1294  0.3831  0.1987
29110SOL    HW1 5322  10.083   4.220   2.773 -2.3876 -1.9222  0.3543
29110SOL    HW2 5323   9.982   4.288   2.684 -2.1172 -0.4185  1.1782
29111SOL     OW 5324   3.071   7.802   3.192 -0.3970  0.4796  0.4954
29111SOL    HW1 5325   2.983   7.812   3.155  0.0854 -0.9214 -1.2072
29111SOL    HW2 5326   3.129   7.843   3.128  0.2110  1.4190  1.6177
29112SOL     OW 5327   0.392  11.616   7.958 -0.2150 -0.0269 -0.1998
29112SOL    HW1 5328   0.424  11.605   8.048 -1.5554 -2.0241  0.1037
29112SOL    HW2 5329   0.298  11.599   7.965 -0.7515  1.9627 -1.6650
29113SOL     OW 5330   8.073   7.015   3.737 -0.3726  0.7204 -0.3373
29113SOL    HW1 5331   8.119   7.041   3.657 -1.2021 -0.7552 -1.3524
29113SOL    HW2 5332   8.141   7.010   3.804  0.5272  0.8939 -1.2190
29114SOL     OW 5333   3.194   3.786   3.435 -0.6345 -0.5272 -0.3184
29114SOL    HW1 5334   3.270   3.730   3.454  1.5129  1.4736 -2.2862
29114SOL    HW2 5335   3.184   3.840   3.513 -0.2406 -1.0520  0.1001
29115SOL     OW 5336  10.840   1.340   5.331 -0.3278  0.0368 -0.2701
29115SOL    HW1 5337  10.763   1.326   5.275 -0.7383 -1.5678  0.6186
29115SOL    HW2 5338  10.826   1.427   5.369 -2.0471 -0.4546  0.3323
29116SOL     OW 5339   8.721   8.902   5.281 -0.0062 -0.3857 -0.0439
29116SOL    HW1 5340   8.699   8.981   5.329  0.3028 -1.5513  2.1631
29116SOL    HW2 5341   8.802   8.870   5.323  0.3544 -1.3978 -1.4441
29117SOL     OW 5342  11.898   8.934  10.911  0.3930  0.2041  0.2218
29117SOL    HW1 5343  11.807   8.926  10.882 -0.0193  1.1983  1.1821
29117SOL    HW2 5344  11.893   8.930  11.007  1.4472 -0.4477  0.2656
29118SOL     OW 5345  12.161   9.325   7.147 -0.2845 -0.1553  0.9460
29118SOL    HW1 5346  12.124   9.248   7.191  0.0830 -0.8959  0.0122
29118SOL    HW2 5347  12.238   9.291   7.100 -0.0822  0.7928  0.5626
29119SOL     OW 5348  11.578   9.663   9.854  0.1312 -0.6038  0.0071
29119SOL    HW1 5349  11.553   9.717   9.780 -1.2670 -2.2126 -0.7700
29119SOL    HW2 5350  11.670   9.641   9.838  0.7558  1.5599  0.4091
29120SOL     OW 5351  13.822   1.071  13.999 -0.0920  0.1301  0.2816
29120SOL    HW1 5352  13.842   1.018  14.076 -0.3703 -0.0449  0.2328
29120SOL    HW2 5353  13.902   1.067  13.946 -0.3700 -0.8909 -0.0955
29121SOL     OW 5354   2.434   0.701   3.336 -0.1569  0.2597 -0.1303
29121SOL    HW1 5355   2.427   0.795   3.353  1.1084  0.7670 -2.1012
29121SOL    HW2 5356   2.487   0.694   3.256 -1.0131 -2.0990 -0.5881
29122SOL     OW 5357   3.843   4.629   5.124 -0.4351  0.2151  0.1551
29122SOL    HW1 5358   3.825   4.538   5.100 -1.1779  0.5493 -0.5620
29122SOL    HW2 5359   3.938   4.631   5.136 -0.1366 -0.2064 -1.7793
29123SOL     OW 5360   9.018  10.511  11.410  0.2025 -0.5100  0.2910
29123SOL    HW1 5361   9.004  10.605  11.425  1.7819 -0.1154 -0.4138
29123SOL    HW2 5362   8.953  10.468  11.465 -1.0577  1.0006  0.0781
29124SOL     OW 5363   5.348  11.657   9.596  0.0496 -0.1547  0.4057
29124SOL    HW1 5364   5.362  11.726   9.661  1.5306 -1.7035  1.8341
29124SOL    HW2 5365   5.269  11.684   9.549 -0.5407  1.5066  2.2171
29125SOL     OW 5366   3.701   4.264   8.342 -0.1865 -0.2755  0.0543
29125SOL    HW1 5367   3.702   4.341   8.398  0.0048 -1.0987  1.2404
29125SOL    HW2 5368   3.748   4.290   8.263 -0.5803  0.9610  0.2053
29126SOL     OW 5369   6.644   6.418   9.494  0.0733  0.0154 -0.9972
29126SOL    HW1 5370   6.552   6.392   9.501  0.7386 -2.2781  0.1923
29126SOL    HW2 5371   6.671   6.435   9.584  0.5764  1.7129 -1.4394
29127SOL     OW 5372   1.261   5.904   0.262 -0.1633 -0.2106  0.3195
29127SOL    HW1 5373   1.330   5.970   0.260 -0.4008  0.0179 -0.6807
29127SOL    HW2 5374   1.221   5.914   0.349  0.4401  0.2934  0.5439
29128SOL     OW 5375   4.871  11.141   8.585 -0.0553  0.5462 -0.1720
29128SOL    HW1 5376   4.892  11.228   8.617  2.2165  0.7157 -1.8875
29128SOL    HW2 5377   4.871  11.149   8.489 -0.4102 -1.1972 -0.3637
29129SOL     OW 5378  11.174   5.584   8.188  0.1796 -0.0211 -0.0131
29129SOL    HW1 5379  11.101   5.645   8.193  1.2436  1.3270 -0.3312
29129SOL    HW2 5380  11.251   5.639   8.174  1.3596 -1.3277  0.9594
29130SOL     OW 5381   7.420  12.064   6.251  0.5150  0.3218  0.5739
29130SOL    HW1 5382   7.361  11.991   6.271  1.4655 -0.7786 -0.4754
29130SOL    HW2 5383   7.362  12.136   6.227 -0.4552  0.0488  1.9790
29131SOL     OW 5384  13.246   2.431  13.039  0.4012  0.3867  0.4939
29131SOL    HW1 5385  13.173   2.382  13.000 -0.4730  0.5514  1.8243
29131SOL    HW2 5386  13.222   2.523  13.028  0.2407  0.4370  1.2158
29132SOL     OW 5387   6.078  12.885   1.985  0.1562  0.4149 -0.3337
29132SOL    HW1 5388   6.111  12.813   1.930  0.0573 -0.3123  0.5366
29132SOL    HW2 5389   5.998  12.849   2.025 -0.2071  1.2171 -0.3290
29133SOL     OW 5390   3.278   3.189  14.149  0.0121  0.0348  0.5737
29133SOL    HW1 5391   3.277   3.280  14.119 -0.2719 -0.3442 -0.6427
29133SOL    HW2 5392   3.194   3.154  14.120  0.8928 -1.1238 -0.7022
29134SOL     OW 5393   3.302   8.192  14.044 -0.7505  0.2471  0.2601
29134SOL    HW1 5394   3.394   8.209  14.026 -0.6021 -1.3113 -0.6275
29134SOL    HW2 5395   3.255   8.240  13.975 -0.4032 -1.7228 -1.4268
29135SOL     OW 5396  14.129   8.044  10.855 -0.5253 -0.3185  0.1257
29135SOL    HW1 5397  14.070   7.973  10.829 -1.5527  0.8679 -0.8963
29135SOL    HW2 5398  14.095   8.121  10.811  2.3602  0.2899 -1.2893
29136SOL     OW 5399  10.079  13.938   9.370 -0.1768 -0.4982 -0.3692
29136SOL    HW1 5400  10.129  13.857   9.379  2.9218  1.1914 -0.9502
29136SOL    HW2 5401  10.145  14.005   9.352 -2.6130  2.1478 -0.1568
29137SOL     OW 5402   7.302  13.992   9.044  0.0761 -0.3323  0.8272
29137SOL    HW1 5403   7.257  14.045   9.109 -3.3513 -0.8374 -0.9201
29137SOL    HW2 5404   7.253  13.911   9.040  1.0404 -0.8925 -1.3424
29138SOL     OW 5405   8.472   9.921   2.429  0.2956 -0.7679  0.1794
29138SOL    HW1 5406   8.436   9.844   2.386 -0.0397 -0.5728  0.1043
29138SOL    HW2 5407   8.432   9.920   2.516 -0.6146 -0.0638 -0.2038
29139SOL     OW 5408  11.043   6.437  10.586 -0.1365  0.5489 -0.2240
29139SOL    HW1 5409  11.028   6.415  10.678  0.3779  1.1283  0.0048
29139SOL    HW2 5410  11.138   6.438  10.577 -0.1690 -0.7295 -1.0780
29140SOL     OW 5411   4.453  12.403   8.218  0.4481  0.5601 -0.2469
29140SOL    HW1 5412   4.387  12.462   8.255 -0.3941 -0.3719 -0.2166
29140SOL    HW2 5413   4.478  12.444   8.135 -0.6107  0.6446 -0.5456
29141SOL     OW 5414   5.289  11.222   0.851 -0.1712  0.0413 -0.5956
29141SOL    HW1 5415   5.377  11.194   0.876 -0.8867 -0.9697  0.9547
29141SOL    HW2 5416   5.293  11.317   0.852  0.6505  0.0086  0.4478
29142SOL     OW 5417   2.263   6.968   3.565  0.1555 -0.2412  0.2069
29142SOL    HW1 5418   2.232   7.057   3.549 -0.3923 -0.4427  0.1286
29142SOL    HW2 5419   2.237   6.949   3.655 -0.6161 -0.6727 -0.0917
29143SOL     OW 5420   0.187  13.056   5.023  0.0229 -0.0735 -0.3246
29143SOL    HW1 5421   0.131  13.041   5.099 -1.3309  0.8133 -1.0990
29143SOL    HW2 5422   0.208  13.149   5.026 -2.6391  0.7206 -2.6468
29144SOL     OW 5423   1.624   1.517   8.405 -0.1561 -0.0145  0.1016
29144SOL    HW1 5424   1.567   1.508   8.481  1.4327  1.7809  1.6186
29144SOL    HW2 5425   1.702   1.466   8.427  0.0195 -0.1051 -0.6846
29145SOL     OW 5426  13.184  12.678   3.136  0.4935  0.3851  0.6091
29145SOL    HW1 5427  13.251  12.656   3.071  0.9591 -0.6544  1.4070
29145SOL    HW2 5428  13.112  12.715   3.085  1.8101  1.9039 -0.2275
29146SOL     OW 5429   4.722   9.790  10.221 -1.2784  0.7622  0.2202
29146SOL    HW1 5430   4.807   9.751  10.239 -1.3302  1.0099  1.0860
29146SOL    HW2 5431   4.711   9.856  10.290 -2.7618 -0.2027  0.9550
29147SOL     OW 5432   0.665   8.606  11.402  0.6393 -0.7875 -0.2013
29147SOL    HW1 5433   0.671   8.665  11.478  4.3457 -0.4568 -0.5566
29147SOL    HW2 5434   0.606   8.652  11.341  0.0067  0.4206  1.2494
29148SOL     OW 5435   1.341   8.460  13.318 -0.2420  0.1336  0.6393
29148SOL    HW1 5436   1.259   8.434  13.361  0.3117 -1.5302  0.7762
29148SOL    HW2 5437   1.407   8.404  13.359  0.8260  0.8150 -0.1147
29149SOL     OW 5438   4.460   8.540  11.098  0.0960 -0.0549  0.0969
29149SOL    HW1 5439   4.441   8.448  11.077  0.1544 -0.1100  0.2897
29149SOL    HW2 5440   4.555   8.546  11.095  0.0622  0.3277 -1.3346
29150SOL     OW 5441   5.644   5.291  11.730  0.5247  0.1302  0.1046
29150SOL    HW1 5442   5.652   5.215  11.672 -1.9312 -1.6251  1.8865
29150SOL    HW2 5443   5.557   5.327  11.711  0.6313  0.9597  1.0709
29151SOL     OW 5444   5.320   9.053   4.282  0.0854 -0.0213 -0.2646
29151SOL    HW1 5445   5.373   9.120   4.325  1.0432 -0.0295 -1.4053
29151SOL    HW2 5446   5.377   8.977   4.276 -1.2539 -1.3051  1.7983
29152SOL     OW 5447  13.530   3.392   5.343  0.6007  0.1889  0.2083
29152SOL    HW1 5448  13.551   3.326   5.276 -1.5987  0.1749 -0.5536
29152SOL    HW2 5449  13.526   3.475   5.295  1.0784  0.5264  0.7356
29153SOL     OW 5450   9.349   7.310   8.902  0.4251 -0.0745 -0.4797
29153SOL    HW1 5451   9.289   7.282   8.972 -0.4271 -0.6900 -1.4235
29153SOL    HW2 5452   9.425   7.253   8.913 -0.5193 -1.5706 -1.2189
29154SOL     OW 5453  10.771  13.186  10.009  0.1631  0.0854 -0.1564
29154SOL    HW1 5454  10.701  13.127   9.980  0.4017 -0.3237  0.1020
29154SOL    HW2 5455  10.852  13.142   9.984  0.3925 -0.4406  1.4213
29155SOL     OW 5456   1.429  13.097  10.484  0.0419  0.1307  0.1516
29155SOL    HW1 5457   1.344  13.085  10.526  0.3259 -0.1767  0.6580
29155SOL    HW2 5458   1.415  13.073  10.393 -0.1403 -1.0673  0.4828
29156SOL     OW 5459   5.453   2.247  12.693  0.0309  0.1095  0.1284
29156SOL    HW1 5460   5.461   2.161  12.733 -3.1271 -1.0124 -1.2877
29156SOL    HW2 5461   5.473   2.308  12.764  0.3843 -1.7725  1.7387
29157SOL     OW 5462  10.945   3.444  12.942 -0.6691  0.0861  0.4141
29157SOL    HW1 5463  10.946   3.448  12.847 -0.5156  0.0518  0.4137
29157SOL    HW2 5464  11.005   3.514  12.970 -1.0528  0.3869  0.4959
29158SOL     OW 5465   1.220   0.200   1.566 -0.2988 -0.1648 -0.5434
29158SOL    HW1 5466   1.240   0.211   1.659 -0.4895 -0.4650 -0.4666
29158SOL    HW2 5467   1.198   0.288   1.536 -1.6541 -0.2921  0.0292
29159SOL     OW 5468  11.328   7.060   4.845  0.3312 -0.0269  0.0015
29159SOL    HW1 5469  11.304   7.152   4.837 -0.2962 -0.2641 -1.1756
29159SOL    HW2 5470  11.260   7.013   4.796 -0.0268 -1.2283  1.5750
29160SOL     OW 5471  12.042   0.156   1.877 -0.0174  0.4956 -0.4111
29160SOL    HW1 5472  12.097   0.135   1.952 -1.2009 -1.5182 -0.0200
29160SOL    HW2 5473  11.990   0.232   1.906  0.2452  0.3641  0.4432
29161SOL     OW 5474   1.258  12.020   2.527  0.3581  0.0411  0.3370
29161SOL    HW1 5475   1.297  12.078   2.591  1.6446 -0.8130  0.3672
29161SOL    HW2 5476   1.246  11.937   2.574 -2.1333  0.4391  0.5184
29162SOL     OW 5477   6.126   1.265   8.463 -0.6232  0.2003 -0.3246
29162SOL    HW1 5478   6.185   1.293   8.393 -0.6977  0.2901 -0.3503
29162SOL    HW2 5479   6.111   1.344   8.515 -0.3916  0.0867 -0.0785
29163SOL     OW 5480   4.021   6.354  10.780  0.4055  0.6656 -0.2551
29163SOL    HW1 5481   4.088   6.420  10.795  0.0451  1.2691 -1.2393
29163SOL    HW2 5482   3.958   6.367  10.851  0.9616  0.5462  0.2737
29164SOL     OW 5483  11.166   2.106   7.617 -0.6073 -0.7871 -0.8763
29164SOL    HW1 5484  11.159   2.091   7.712 -1.0986 -0.0699 -0.7981
29164SOL    HW2 5485  11.132   2.026   7.578 -0.5773 -1.0139 -0.4474
29165SOL     OW 5486   2.256   7.797  11.888 -0.2818  0.2970  0.3407
29165SOL    HW1 5487   2.195   7.786  11.815  1.7470  0.0686 -1.4201
29165SOL    HW2 5488   2.294   7.711  11.901  0.7563  0.7444  0.3573
29166SOL     OW 5489  12.956   7.577   9.142  0.2589 -0.4062  0.2774
29166SOL    HW1 5490  13.027   7.600   9.083  0.6048 -0.7007  0.5708
29166SOL    HW2 5491  13.000   7.539   9.218 -0.2784 -1.7279 -0.0574
29167SOL     OW 5492   7.017   6.199   7.702 -0.2771  0.4391 -0.2038
29167SOL    HW1 5493   7.041   6.138   7.632 -0.2009 -0.7358  0.8038
29167SOL    HW2 5494   7.081   6.183   7.771 -1.1140  0.6421  0.6447
29168SOL     OW 5495   2.161  10.775  11.093 -0.4349  0.1584  0.8561
29168SOL    HW1 5496   2.210  10.856  11.084 -0.2963 -0.1362 -2.0042
29168SOL    HW2 5497   2.182  10.744  11.182  2.1929  1.5180  0.8073
29169SOL     OW 5498   8.174   6.934  10.725 -0.4120  0.5169 -0.6985
29169SOL    HW1 5499   8.093   6.914  10.771 -0.7792 -0.5149 -1.7395
29169SOL    HW2 5500   8.164   6.891  10.640  0.9249  0.9859 -1.1142
29170SOL     OW 5501  13.357   8.707   0.903 -0.3319 -0.2896 -0.8522
29170SOL    HW1 5502  13.412   8.658   0.843 -0.8626  0.1894 -1.7586
29170SOL    HW2 5503  13.395   8.692   0.989  0.5624 -0.8298 -1.3318
29171SOL     OW 5504   4.282   7.636   8.712  0.3621 -0.1453 -0.3726
29171SOL    HW1 5505   4.258   7.717   8.668  0.1866  0.7965  1.3796
29171SOL    HW2 5506   4.264   7.652   8.805  0.8342 -1.9999  0.0872
29172SOL     OW 5507  10.722   5.932  10.324  0.2127 -0.0356 -0.1003
29172SOL    HW1 5508  10.808   5.934  10.368  0.0962  0.5747  0.1182
29172SOL    HW2 5509  10.659   5.921  10.395  0.0456  0.5892 -0.1416
29173SOL     OW 5510   3.948  13.384   8.645  0.1927 -0.7134 -0.5260
29173SOL    HW1 5511   3.983  13.471   8.664  0.9777 -1.5411  2.2808
29173SOL    HW2 5512   3.866  13.379   8.693  0.6961 -1.8588  0.2825
29174SOL     OW 5513   1.890   7.348   4.656  0.1529  0.3370 -0.0555
29174SOL    HW1 5514   1.907   7.358   4.749  0.7148  1.6756 -0.2870
29174SOL    HW2 5515   1.837   7.424   4.632 -0.2307 -0.1401 -0.7731
29175SOL     OW 5516  10.092   2.120   3.983 -0.0631  0.0137 -0.0553
29175SOL    HW1 5517  10.033   2.045   3.985  0.9963 -0.8595 -0.2686
29175SOL    HW2 5518  10.040   2.193   4.017 -1.3410 -0.6427 -0.5407
29176SOL     OW 5519   1.094   1.492   2.027 -0.3676  0.5706 -0.0054
29176SOL    HW1 5520   1.172   1.541   2.052  0.7333 -0.9423 -0.3369
29176SOL    HW2 5521   1.094   1.416   2.085 -0.1863 -0.7289 -1.6357
29177SOL     OW 5522   9.554  10.098   9.054  0.0929  0.3199 -0.1444
29177SOL    HW1 5523   9.458  10.092   9.055  0.0415 -0.0588  2.9071
29177SOL    HW2 5524   9.583  10.017   9.012 -0.9297  0.0821 -0.4194
29178SOL     OW 5525   1.214   5.851  14.029 -0.3974 -0.4205 -0.6209
29178SOL    HW1 5526   1.269   5.803  13.967  0.6575 -1.5630  1.1285
29178SOL    HW2 5527   1.261   5.933  14.045  0.8807 -1.3873  0.8586
29179SOL     OW 5528   0.648   9.723   5.561  0.1094 -0.0869 -0.0556
29179SOL    HW1 5529   0.568   9.774   5.578  0.1319  0.0728 -0.4375
29179SOL    HW2 5530   0.693   9.771   5.492  1.9761  1.4142  2.0819
29180SOL     OW 5531   4.089   4.927  13.766 -0.6047  0.5295  0.2145
29180SOL    HW1 5532   4.060   4.837  13.778  1.9126 -0.4871 -0.7464
29180SOL    HW2 5533   4.082   4.943  13.672 -1.1980  1.4244  0.3942
29181SOL     OW 5534   8.592   2.739  11.279  0.1302 -0.4764  0.0532
29181SOL    HW1 5535   8.582   2.822  11.232 -0.6146  1.1956  2.9174
29181SOL    HW2 5536   8.686   2.724  11.281  0.2645  0.2201 -0.6305
29182SOL     OW 5537   3.975   3.044  10.781 -0.1602 -0.1387  0.2368
29182SOL    HW1 5538   4.015   2.982  10.842 -0.1747 -0.2333  0.1511
29182SOL    HW2 5539   3.884   3.050  10.810 -0.2478 -0.4281  0.0335
29183SOL     OW 5540   7.231   9.689  13.931 -0.2784  0.6138  0.0960
29183SOL    HW1 5541   7.164   9.716  13.994  0.6766  0.3039  1.2839
29183SOL    HW2 5542   7.283   9.623  13.978  0.6019  0.5405 -0.9424
29184SOL     OW 5543   3.843  12.896  11.615 -0.9329  0.4192 -0.4902
29184SOL    HW1 5544   3.870  12.806  11.632 -1.0630  0.3651 -0.5666
29184SOL    HW2 5545   3.803  12.925  11.698  0.8251  1.0538  0.1831
29185SOL     OW 5546   0.328   0.017   6.753 -0.2823  0.2633  0.3748
29185SOL    HW1 5547   0.388   0.027   6.679 -0.7729 -0.8795 -0.1963
29185SOL    HW2 5548   0.378   0.047   6.829 -0.0571  2.2944 -0.5139
29186SOL     OW 5549   1.639  13.711  13.427  0.0329 -0.2301  0.1875
29186SOL    HW1 5550   1.629  13.705  13.522  1.3660 -0.2892  0.3446
29186SOL    HW2 5551   1.691  13.790  13.412  2.1147 -1.5754 -0.2538
29187SOL     OW 5552   3.803  13.579   2.224  0.0474 -0.7324 -0.0721
29187SOL    HW1 5553   3.824  13.509   2.286  0.1809  0.2556  1.0320
29187SOL    HW2 5554   3.885  13.627   2.213 -0.1760 -0.4198 -0.3956
29188SOL     OW 5555   2.965   4.557  12.071 -0.2991  0.0091  0.1477
29188SOL    HW1 5556   2.993   4.466  12.065  2.3211  0.7927 -0.6417
29188SOL    HW2 5557   3.045   4.608  12.060 -1.8493  2.4541 -0.6835
29189SOL     OW 5558  11.730   4.917  12.487  0.2734  0.1661 -0.3782
29189SOL    HW1 5559  11.790   4.960  12.427  1.0525 -1.3741 -0.7471
29189SOL    HW2 5560  11.756   4.825  12.486 -0.4200 -0.0958  1.4701
29190SOL     OW 5561  13.863   7.960   0.694 -0.5502 -0.4446  0.0955
29190SOL    HW1 5562  13.942   7.920   0.730 -0.0836 -1.8800 -2.2741
29190SOL    HW2 5563  13.791   7.914   0.738 -0.0323 -0.9685  0.4178
29191SOL     OW 5564  10.207   9.490   7.894 -0.0294  0.5565  0.2370
29191SOL    HW1 5565  10.215   9.550   7.968  1.0355  0.6647  0.0427
29191SOL    HW2 5566  10.183   9.546   7.820 -0.7495  0.4932  0.4072
29192SOL     OW 5567  11.159   2.059  12.795 -0.0726 -0.3242 -0.2973
29192SOL    HW1 5568  11.155   2.089  12.886 -0.0881 -0.4472 -0.2577
29192SOL    HW2 5569  11.193   2.134  12.747 -0.7913 -0.0026 -0.3099
29193SOL     OW 5570  10.589   4.503  12.541 -0.0528  0.3461 -0.1010
29193SOL    HW1 5571  10.586   4.599  12.536 -2.8060  0.2841 -1.9794
29193SOL    HW2 5572  10.658   4.478  12.480  0.1348  1.1346 -0.2249
29194SOL     OW 5573  12.937   7.753   6.800  0.5228 -0.4424  0.0911
29194SOL    HW1 5574  12.987   7.692   6.854 -0.7228 -1.1070  0.5124
29194SOL    HW2 5575  12.888   7.806   6.863 -1.2473 -1.4837 -0.3474
29195SOL     OW 5576   7.015   9.351  10.013  0.8596 -0.1548 -0.1675
29195SOL    HW1 5577   7.022   9.441   9.982  0.5561 -0.3670 -0.8525
29195SOL    HW2 5578   7.064   9.299   9.950  1.3940 -0.4209  0.4609
29196SOL     OW 5579   4.510   1.227   1.692 -0.1938  0.6869 -0.2146
29196SOL    HW1 5580   4.505   1.265   1.780  1.2274  0.4342  0.0041
29196SOL    HW2 5581   4.478   1.297   1.634  0.4490  1.4769  0.3596
29197SOL     OW 5582   1.628  11.360   1.927 -0.5274 -0.2278 -0.5337
29197SOL    HW1 5583   1.585  11.437   1.889  0.1134 -0.3708 -1.5913
29197SOL    HW2 5584   1.683  11.395   1.997 -1.9852  0.0108  0.5468
29198SOL     OW 5585   1.474  11.224   2.621 -0.0418  0.1223  0.2132
29198SOL    HW1 5586   1.498  11.316   2.619 -0.2067  0.1657  0.2693
29198SOL    HW2 5587   1.492  11.193   2.532  1.3400 -0.1302  0.5499
29199SOL     OW 5588   5.397   0.974   7.968  0.0977  0.2695  0.0411
29199SOL    HW1 5589   5.334   0.912   8.003  0.0671  1.8389  3.1642
29199SOL    HW2 5590   5.437   0.930   7.894 -2.6819 -1.8541 -0.3278
29200SOL     OW 5591   1.087   9.925   6.068 -0.8248 -0.3223  0.0557
29200SOL    HW1 5592   1.072   9.859   6.001 -1.4424 -0.8222  0.6729
29200SOL    HW2 5593   1.165   9.972   6.039 -0.6904 -0.9762 -0.6562
29201SOL     OW 5594   3.553   6.760   4.688  0.1455 -0.7368  0.1785
29201SOL    HW1 5595   3.507   6.814   4.751  1.4959 -0.0361  0.5818
29201SOL    HW2 5596   3.588   6.687   4.739  1.4998 -0.0109  0.3386
29202SOL     OW 5597   9.537   6.945   7.567 -0.0864  0.1771 -0.3160
29202SOL    HW1 5598   9.582   6.926   7.650 -0.6122  0.3396  0.0102
29202SOL    HW2 5599   9.567   7.033   7.543 -1.3927  0.9370  0.7023
29203SOL     OW 5600   7.602   9.546  12.379 -0.6957 -0.0623  0.2822
29203SOL    HW1 5601   7.609   9.639  12.400 -1.9055 -0.5291  3.4209
29203SOL    HW2 5602   7.684   9.508  12.411  0.4469  0.0334 -2.3332
29204SOL     OW 5603   1.560  10.515   2.946 -0.1443 -0.0548  0.2922
29204SOL    HW1 5604   1.500  10.579   2.983  0.2961  0.5537 -0.0180
29204SOL    HW2 5605   1.524  10.494   2.860 -0.0636  0.1018  0.2196
29205SOL     OW 5606  13.026   4.983   7.271  0.1135  0.1873 -0.1716
29205SOL    HW1 5607  13.019   4.890   7.293  0.0972  0.3264  0.4441
29205SOL    HW2 5608  12.936   5.014   7.271  0.1090  0.1788 -0.5037
29206SOL     OW 5609  12.066  13.072  13.401  0.0253 -0.1993  0.1621
29206SOL    HW1 5610  12.130  13.001  13.394 -0.9671 -1.1513  0.4433
29206SOL    HW2 5611  12.073  13.102  13.492 -0.0440 -0.4297  0.2446
29207SOL     OW 5612  11.372   5.320   7.253  0.3512 -0.3809  0.4512
29207SOL    HW1 5613  11.317   5.391   7.221  0.3535 -0.6949 -0.2605
29207SOL    HW2 5614  11.335   5.241   7.214  1.3474 -0.5863 -0.1027
29208SOL     OW 5615   2.542   5.769   8.813  0.2573 -0.0104  0.2092
29208SOL    HW1 5616   2.516   5.852   8.774  0.9400  0.0337 -0.1763
29208SOL    HW2 5617   2.627   5.750   8.774  0.5965 -0.3668  1.0862
29209SOL     OW 5618   5.635  12.238  11.083  0.0082 -0.0697  0.3626
29209SOL    HW1 5619   5.696  12.167  11.102 -1.5397 -1.0126  2.1353
29209SOL    HW2 5620   5.552  12.209  11.120 -1.2357  1.7152 -0.8406
29210SOL     OW 5621   7.470  10.928  13.214 -0.2189 -0.6530 -0.2642
29210SOL    HW1 5622   7.393  10.976  13.244  0.4011  0.5161 -0.5016
29210SOL    HW2 5623   7.543  10.989  13.225  0.7295 -1.8136  0.1807
29211SOL     OW 5624  12.755   8.371   6.210 -0.0470  0.2031 -0.6316
29211SOL    HW1 5625  12.744   8.281   6.180 -0.1309  0.0417 -0.1319
29211SOL    HW2 5626  12.753   8.424   6.130  2.4289 -0.4319 -1.2256
29212SOL     OW 5627  13.748   0.227   1.927 -0.2017  0.3155  0.3948
29212SOL    HW1 5628  13.843   0.240   1.919 -0.4724  3.6560  0.9159
29212SOL    HW2 5629  13.710   0.309   1.894 -2.9203 -0.7604  0.5719
29213SOL     OW 5630   2.341   4.777  13.286 -0.0901  0.0087 -0.0901
29213SOL    HW1 5631   2.381   4.743  13.366  1.3626 -1.3085 -1.3364
29213SOL    HW2 5632   2.311   4.865  13.311  1.1903  0.0155  1.6328
29214SOL     OW 5633   9.117   5.117   2.286  0.3851 -0.3259 -0.4145
29214SOL    HW1 5634   9.203   5.076   2.283  0.5459 -0.4265  2.5585
29214SOL    HW2 5635   9.135   5.211   2.274  0.9356 -0.3422  0.2346
29215SOL     OW 5636  13.383   7.044   0.522 -0.7964  0.1320 -0.0186
29215SOL    HW1 5637  13.420   7.126   0.556 -0.2300 -0.7512  1.6216
29215SOL    HW2 5638  13.447   6.977   0.547 -0.9409 -0.7522 -1.8742
29216SOL     OW 5639   9.543  11.479   2.741  0.2245  0.1287  0.4653
29216SOL    HW1 5640   9.463  11.427   2.748  0.4022 -0.0500  1.3754
29216SOL    HW2 5641   9.576  11.483   2.831  0.6427  1.1501  0.2774
29217SOL     OW 5642  11.266   7.511   3.783  0.1150 -0.5021 -0.8154
29217SOL    HW1 5643  11.300   7.440   3.837  1.3430 -0.5744 -1.6275
29217SOL    HW2 5644  11.343   7.562   3.760 -0.6163  0.5118 -1.0879
29218SOL     OW 5645   0.992   8.298   0.112  0.3979 -0.3160 -0.1568
29218SOL    HW1 5646   0.974   8.321   0.203 -0.5889 -0.3122 -0.3506
29218SOL    HW2 5647   0.936   8.356   0.060  0.5965 -0.6457 -0.7558
29219SOL     OW 5648  13.383  12.192  13.294 -0.1939 -0.0938  0.9055
29219SOL    HW1 5649  13.378  12.149  13.380  0.4245  0.6775  1.3442
29219SOL    HW2 5650  13.292  12.214  13.274 -0.6436 -2.3254  0.2626
29220SOL     OW 5651   7.711   4.399   1.606 -0.2202  0.1400  0.7896
29220SOL    HW1 5652   7.744   4.486   1.582 -0.1054  0.1730  1.0625
29220SOL    HW2 5653   7.643   4.380   1.541  0.5211 -0.0446  0.0502
29221SOL     OW 5654   3.485   5.192   6.508 -0.4323 -0.1115  0.1153
29221SOL    HW1 5655   3.411   5.227   6.458 -1.8668  0.0220  2.2371
29221SOL    HW2 5656   3.523   5.269   6.551  0.3475 -0.3236 -0.1785
29222SOL     OW 5657   2.926  11.034  10.881 -0.3466  0.2207  0.4714
29222SOL    HW1 5658   2.908  10.941  10.872 -1.7434  0.5342 -0.2413
29222SOL    HW2 5659   2.940  11.048  10.975 -0.3600 -0.6495  0.6056
29223SOL     OW 5660  13.389   4.116   0.006  0.0744 -0.6438 -0.0386
29223SOL    HW1 5661  13.359   4.114  -0.085  1.0080  0.7795 -0.4188
29223SOL    HW2 5662  13.466   4.060   0.007  1.0046  0.5728 -0.5359
29224SOL     OW 5663   2.816   7.924   8.010 -0.1563 -0.2188 -0.1253
29224SOL    HW1 5664   2.842   7.855   8.070  1.9090  0.7423  0.1591
29224SOL    HW2 5665   2.776   7.991   8.066 -1.4043 -0.7794 -0.3020
29225SOL     OW 5666   4.759   4.595   5.672  0.1469 -0.7471 -0.3503
29225SOL    HW1 5667   4.783   4.503   5.671 -1.2994 -1.3655  3.4577
29225SOL    HW2 5668   4.681   4.599   5.728  0.6578  2.8802  0.3655
29226SOL     OW 5669   8.700   4.706   9.735 -0.0112  0.0843  0.0347
29226SOL    HW1 5670   8.674   4.795   9.708  2.2050  0.3461 -1.4782
29226SOL    HW2 5671   8.791   4.716   9.764 -0.2511 -1.4399  1.4119
29227SOL     OW 5672  12.568   0.386  13.612  0.3686  0.1134 -0.3686
29227SOL    HW1 5673  12.566   0.479  13.590 -0.7263 -0.3410 -2.3611
29227SOL    HW2 5674  12.477   0.364  13.631  0.8304 -0.2505  1.7200
29228SOL     OW 5675  13.483   0.827   9.117 -0.0878  0.1790  0.1476
29228SOL    HW1 5676  13.516   0.913   9.142  0.4997 -0.4461  1.6647
29228SOL    HW2 5677  13.389   0.831   9.134 -0.0055  0.4172  0.5702
29229SOL     OW 5678   5.854  13.657   8.265 -0.0632 -0.5055 -0.1724
29229SOL    HW1 5679   5.760  13.652   8.252 -0.1761 -0.0862  0.4334
29229SOL    HW2 5680   5.891  13.670   8.178 -0.5781 -0.4645 -0.3822
29230SOL     OW 5681   4.239  12.124   2.153  0.2107 -0.5149 -0.3490
29230SOL    HW1 5682   4.176  12.054   2.136 -0.4320  0.1008 -0.5485
29230SOL    HW2 5683   4.264  12.154   2.065 -1.2034  0.9799 -0.2928
29231SOL     OW 5684   0.515   2.291   6.150 -0.4020  0.0374  0.3642
29231SOL    HW1 5685   0.558   2.315   6.232 -0.3261 -3.6511  1.5798
29231SOL    HW2 5686   0.572   2.224   6.111 -1.3035  0.4698 -1.8740
29232SOL     OW 5687  14.011   5.688  11.830 -0.2656 -0.2996  0.0709
29232SOL    HW1 5688  13.927   5.678  11.876  1.0593 -0.7007  2.6317
29232SOL    HW2 5689  14.033   5.780  11.840  0.3448 -0.5216  0.9140
29233SOL     OW 5690   2.264   2.026  12.140 -0.8988 -0.7653 -0.6058
29233SOL    HW1 5691   2.258   2.070  12.225  0.1616 -0.0702 -0.8617
29233SOL    HW2 5692   2.312   1.945  12.158  0.9773  0.2532 -0.8066
29234SOL     OW 5693   7.609   3.862   4.434 -0.2537  0.7699  0.0141
29234SOL    HW1 5694   7.567   3.809   4.367  1.3875  0.0452 -0.4850
29234SOL    HW2 5695   7.673   3.804   4.475 -0.3697  1.5603  1.3922
29235SOL     OW 5696   6.031   6.966  12.065  0.2744  0.1840  0.0076
29235SOL    HW1 5697   5.937   6.970  12.086  0.6991  1.2198  1.9278
29235SOL    HW2 5698   6.035   6.981  11.970 -1.4731  0.6591 -0.0295
29236SOL     OW 5699   1.985   9.157   5.359 -0.2523 -0.0389 -0.6685
29236SOL    HW1 5700   1.994   9.103   5.280 -1.3743  0.5145 -1.1948
29236SOL    HW2 5701   2.071   9.154   5.400  0.0727 -1.1340 -1.3995
29237SOL     OW 5702  12.092   5.559   1.904  0.1628  0.5918 -0.4937
29237SOL    HW1 5703  12.022   5.527   1.847 -4.6574  0.9378  4.3539
29237SOL    HW2 5704  12.085   5.654   1.899  0.6655  0.6371 -0.3339
29238SOL     OW 5705  11.818  11.781   0.902 -0.1447  0.3617  0.4965
29238SOL    HW1 5706  11.909  11.774   0.872 -0.8759 -0.6774 -1.6448
29238SOL    HW2 5707  11.786  11.691   0.903 -1.7803  0.8702 -1.0069
29239SOL     OW 5708   7.769  11.518   0.951 -0.3267  0.0844 -0.2690
29239SOL    HW1 5709   7.745  11.540   1.041 -1.6614  1.7955 -0.9777
29239SOL    HW2 5710   7.849  11.466   0.959 -0.0127  0.8123  1.8468
29240SOL     OW 5711  14.014   3.261  13.053  0.3622  0.7285  0.3550
29240SOL    HW1 5712  14.048   3.172  13.058  2.0423  1.4039  3.0452
29240SOL    HW2 5713  14.078   3.308  12.999  0.0930  0.5695 -0.1071
29241SOL     OW 5714  13.033   1.768  10.445 -0.0836  0.0969  0.0960
29241SOL    HW1 5715  13.092   1.745  10.373  1.6122 -1.1137  1.7916
29241SOL    HW2 5716  13.023   1.688  10.496  1.1187  1.5330  2.8182
29242SOL     OW 5717  13.565   7.457  10.286 -0.0873 -1.0391 -0.3261
29242SOL    HW1 5718  13.615   7.462  10.367 -1.2894  0.2082  0.3846
29242SOL    HW2 5719  13.517   7.375  10.292 -0.1629 -0.9587  0.2392
29243SOL     OW 5720  12.742   7.105   0.010  0.5020 -0.0769 -0.5448
29243SOL    HW1 5721  12.769   7.181   0.061 -1.7047  0.2328  0.2904
29243SOL    HW2 5722  12.799   7.106  -0.067  1.3568  1.6974  0.0576
29244SOL     OW 5723   3.972   5.601  11.967 -0.1243  0.9758  0.6259
29244SOL    HW1 5724   3.992   5.554  12.048  2.0344  0.4920 -0.1297
29244SOL    HW2 5725   3.908   5.546  11.922 -0.7014  0.8303  1.5864
29245SOL     OW 5726   0.706  10.654   8.692 -0.1163  0.3458 -0.4347
29245SOL    HW1 5727   0.749  10.739   8.705  1.7545 -0.5505 -0.4541
29245SOL    HW2 5728   0.698  10.645   8.597  1.0893 -0.1406 -0.5035
29246SOL     OW 5729   5.519   4.890  11.690  0.2375 -0.5068 -0.2716
29246SOL    HW1 5730   5.444   4.933  11.731 -0.8262 -2.5025  0.0298
29246SOL    HW2 5731   5.569   4.854  11.763  0.1447 -1.2534 -0.5624
29247SOL     OW 5732   4.452   5.120  12.621 -0.2498  0.0919  0.4742
29247SOL    HW1 5733   4.445   5.210  12.654 -0.1928 -0.5039  2.2685
29247SOL    HW2 5734   4.471   5.129  12.528 -1.7131  1.9116  0.2971
29248SOL     OW 5735   2.186   1.930  11.877 -0.5809  0.7211 -0.0169
29248SOL    HW1 5736   2.245   1.950  11.950 -0.9158  1.0293  0.1703
29248SOL    HW2 5737   2.149   2.015  11.852 -0.1471  0.6760 -0.8248
29249SOL     OW 5738  13.763   7.257   4.231  0.1752  0.1605  0.3838
29249SOL    HW1 5739  13.804   7.180   4.191  2.2645  1.5185 -0.2954
29249SOL    HW2 5740  13.727   7.225   4.314  2.0214 -1.3188  0.6838
29250SOL     OW 5741   6.223   2.251  10.790  0.1386 -0.1827 -0.0267
29250SOL    HW1 5742   6.302   2.208  10.757  0.5352  0.0199  0.6277
29250SOL    HW2 5743   6.233   2.248  10.885 -0.4049  0.2940  0.0472
29251SOL     OW 5744   8.845   2.537   5.321  0.2717 -0.6349  0.3145
29251SOL    HW1 5745   8.775   2.586   5.363  1.1368  0.5086  0.4855
29251SOL    HW2 5746   8.906   2.517   5.392  1.0093  0.0014 -0.1217
29252SOL     OW 5747   2.552  14.035   5.859 -0.4323 -0.3318  0.3638
29252SOL    HW1 5748   2.471  13.989   5.881  0.4025 -1.4232  1.2243
29252SOL    HW2 5749   2.620  13.988   5.906  0.5450  1.4201  0.7958
29253SOL     OW 5750   6.992   5.529  11.127 -0.3338  0.4514  0.1383
29253SOL    HW1 5751   6.970   5.473  11.053  0.7463  0.8465 -0.5065
29253SOL    HW2 5752   6.970   5.477  11.204 -1.3441 -0.0188 -0.4472
29254SOL     OW 5753   4.597   8.510   0.587 -0.0650  0.1741 -0.5326
29254SOL    HW1 5754   4.651   8.495   0.510 -2.1772  2.3571 -2.6043
29254SOL    HW2 5755   4.577   8.604   0.585 -1.4279  0.0267  1.8660
29255SOL     OW 5756   3.227  13.114  11.540 -0.1755 -0.2016  0.2319
29255SOL    HW1 5757   3.192  13.203  11.539 -0.4238 -0.2896  0.7942
29255SOL    HW2 5758   3.318  13.124  11.512 -0.3147  0.1775 -0.0927
29256SOL     OW 5759   4.669   8.600   8.829  0.1333  0.1350  0.1134
29256SOL    HW1 5760   4.671   8.558   8.915  2.1347  0.1120  0.1095
29256SOL    HW2 5761   4.695   8.691   8.846  1.0014  0.0115 -0.5005
29257SOL     OW 5762   4.175   6.142  12.753  0.2538 -0.1743 -0.0103
29257SOL    HW1 5763   4.154   6.133  12.660 -0.0912  0.3046  0.0152
29257SOL    HW2 5764   4.232   6.068  12.772  0.1859 -0.3749 -0.5629
29258SOL     OW 5765   4.243   7.029   2.406  0.2982  0.5598  0.8227
29258SOL    HW1 5766   4.151   7.049   2.425  0.5294 -0.1464  2.9045
29258SOL    HW2 5767   4.239   6.962   2.337 -0.8432 -0.9291  2.2741
29259SOL     OW 5768   0.221   5.601   3.956 -0.3190  0.0525  0.1604
29259SOL    HW1 5769   0.156   5.665   3.926 -0.3181 -0.0077  0.0284
29259SOL    HW2 5770   0.293   5.654   3.989  1.0735  0.2026 -2.8071
29260SOL     OW 5771   5.767   5.543   7.837 -0.3105  0.3902 -0.2803
29260SOL    HW1 5772   5.754   5.634   7.814  0.0110  0.2335 -1.1178
29260SOL    HW2 5773   5.817   5.506   7.764 -0.3173 -0.4179  0.1056
29261SOL     OW 5774   8.280  13.910   4.535 -0.0740  0.3792  0.2188
29261SOL    HW1 5775   8.234  13.965   4.470 -1.1786 -0.1579  0.5158
29261SOL    HW2 5776   8.269  13.821   4.502 -0.4815  0.1207  1.0397
29262SOL     OW 5777   2.985   4.766  13.356 -0.3158  0.0732  0.1300
29262SOL    HW1 5778   2.924   4.751  13.283 -0.5700 -1.4236  0.6027
29262SOL    HW2 5779   3.039   4.840  13.328 -0.1145 -0.7356 -1.7927
29263SOL     OW 5780   1.208  11.129   3.044 -0.1057 -0.9690  0.2211
29263SOL    HW1 5781   1.128  11.150   3.093 -0.1522  0.3727 -0.3835
29263SOL    HW2 5782   1.176  11.083   2.966 -0.3333 -0.0723 -0.2213
29264SOL     OW 5783   5.298  10.212   2.611 -0.5263  0.1646 -0.0608
29264SOL    HW1 5784   5.294  10.180   2.521 -0.1895  0.9335 -0.3534
29264SOL    HW2 5785   5.207  10.209   2.641 -0.8182  1.0297 -0.8275
29265SOL     OW 5786   3.849   6.592   1.028 -0.3064  0.3736  0.3555
29265SOL    HW1 5787   3.774   6.629   1.073 -0.6981 -0.1124  0.1082
29265SOL    HW2 5788   3.814   6.519   0.976  0.2772  0.3398 -0.0139
29266SOL     OW 5789   9.447  11.836   5.410 -0.1318 -0.1604  0.3139
29266SOL    HW1 5790   9.378  11.771   5.419 -0.8958  0.4713 -0.7310
29266SOL    HW2 5791   9.492  11.813   5.328 -0.1156  0.3508  0.1742
29267SOL     OW 5792   1.379   5.612   9.954  0.1781  0.5638  0.0885
29267SOL    HW1 5793   1.458   5.665   9.955 -0.3130  1.3666 -1.0439
29267SOL    HW2 5794   1.362   5.592  10.046 -1.0137  4.5786  0.9297
29268SOL     OW 5795   9.922  12.630  13.484 -0.0092 -0.1522 -0.6974
29268SOL    HW1 5796   9.863  12.695  13.523 -0.2348 -0.8681  0.1944
29268SOL    HW2 5797   9.922  12.557  13.547 -0.0877 -1.1927 -1.8560
29269SOL     OW 5798   9.395   9.649  11.912 -1.0370  0.8039 -0.5829
29269SOL    HW1 5799   9.364   9.737  11.894 -0.3118  0.9744 -1.0308
29269SOL    HW2 5800   9.351   9.594  11.847 -2.4226  0.6308  0.4500
29270SOL     OW 5801  11.502   5.022   9.699 -0.3544  0.1635 -0.1948
29270SOL    HW1 5802  11.515   4.999   9.608  3.5839  0.4032  0.1484
29270SOL    HW2 5803  11.523   4.942   9.748 -1.3151  0.3457  0.5493
29271SOL     OW 5804   4.795  10.089   7.012  0.2433 -0.5279  0.3117
29271SOL    HW1 5805   4.815  10.142   7.089 -0.2718  2.0445 -1.2331
29271SOL    HW2 5806   4.701  10.074   7.017  0.3787 -1.3031  0.7131
29272SOL     OW 5807   7.145   8.599  11.873 -0.1948  0.0972  0.0781
29272SOL    HW1 5808   7.140   8.510  11.837  0.3394  0.2788 -0.4666
29272SOL    HW2 5809   7.081   8.600  11.944 -0.1778 -0.7375  0.1163
29273SOL     OW 5810   6.161   3.366   7.881  0.0871 -1.0390  0.6878
29273SOL    HW1 5811   6.188   3.335   7.967  1.0305  0.3495  0.9194
29273SOL    HW2 5812   6.242   3.393   7.838 -0.5737  0.2724  0.1939
29274SOL     OW 5813   6.851  13.188   6.226 -0.9333 -0.3902 -0.4252
29274SOL    HW1 5814   6.888  13.238   6.153 -1.2160  0.6939  0.1420
29274SOL    HW2 5815   6.761  13.169   6.200 -0.9776 -0.1619 -0.4457
29275SOL     OW 5816   8.894  11.613  10.386 -0.3606 -0.1125  0.3565
29275SOL    HW1 5817   8.829  11.681  10.406 -1.1487 -0.7592  0.0489
29275SOL    HW2 5818   8.969  11.662  10.352 -1.4022  0.5543 -1.1043
29276SOL     OW 5819  10.050   1.898  12.754  0.2806  0.0994  0.1430
29276SOL    HW1 5820  10.058   1.962  12.825 -0.1157  0.0836  0.2050
29276SOL    HW2 5821  10.045   1.813  12.798  1.6274 -0.0576  0.0288
29277SOL     OW 5822   3.838   9.593   9.360 -0.5568 -0.0652 -0.5977
29277SOL    HW1 5823   3.862   9.509   9.399  0.4671  0.1766 -0.6974
29277SOL    HW2 5824   3.913   9.617   9.305 -1.7188 -0.1298 -2.3065
29278SOL     OW 5825   9.234   7.232  13.990 -0.1051 -0.6199 -0.0962
29278SOL    HW1 5826   9.215   7.256  14.080 -0.8806  0.6156 -0.5734
29278SOL    HW2 5827   9.157   7.258  13.941  0.1256 -1.6725 -1.0730
29279SOL     OW 5828   4.454   3.876  10.671  0.3114 -0.6777  0.2605
29279SOL    HW1 5829   4.440   3.791  10.629 -0.3464 -0.3310 -0.2454
29279SOL    HW2 5830   4.373   3.894  10.717  0.1707 -0.0042 -0.2259
29280SOL     OW 5831   1.107   1.457   5.974  0.4677  0.1240  0.0729
29280SOL    HW1 5832   1.030   1.514   5.979 -0.4703 -1.1020 -0.0162
29280SOL    HW2 5833   1.124   1.432   6.065  0.5272  0.0712  0.0475
29281SOL     OW 5834  14.150   3.856   3.077 -0.7239  0.1163  0.0272
29281SOL    HW1 5835  14.183   3.875   2.989 -0.6033 -0.4730 -0.0620
29281SOL    HW2 5836  14.159   3.761   3.085 -2.0268 -0.0205  0.1501
29282SOL     OW 5837   8.210  10.171   5.696 -0.7447 -0.2125  0.4965
29282SOL    HW1 5838   8.195  10.166   5.601  1.5253  1.4762 -0.0288
29282SOL    HW2 5839   8.265  10.095   5.715 -0.7916 -0.2778  0.3748
29283SOL     OW 5840   0.655   1.597   6.735  0.3363  0.0540 -0.0625
29283SOL    HW1 5841   0.567   1.622   6.762  0.7207  1.3638  0.0842
29283SOL    HW2 5842   0.647   1.507   6.703 -0.3894 -1.1696  3.2143
29284SOL     OW 5843   2.342  12.650   1.131 -0.1821 -0.0812  0.3121
29284SOL    HW1 5844   2.304  12.625   1.047 -0.4312  0.2436  0.3254
29284SOL    HW2 5845   2.407  12.716   1.110  1.3691 -1.5910  0.1460
29285SOL     OW 5846  14.003  10.971   5.797  0.2229 -0.2353 -0.7137
29285SOL    HW1 5847  13.979  10.912   5.869  1.7595  0.5431  0.4975
29285SOL    HW2 5848  13.954  10.938   5.721 -0.8099 -1.5773  0.4896
29286SOL     OW 5849   3.555   1.884   8.721 -0.1959  0.5488  0.4207
29286SOL    HW1 5850   3.475   1.836   8.744  0.1556  0.3357  1.2624
29286SOL    HW2 5851   3.542   1.972   8.755 -0.0921  0.5232  0.5303
29287SOL     OW 5852   2.079  10.686   5.718 -0.1254  0.0658  0.5140
29287SOL    HW1 5853   2.099  10.775   5.689  0.2341  0.0941  0.8345
29287SOL    HW2 5854   2.156  10.635   5.691 -0.3307 -0.1488  0.3295
29288SOL     OW 5855   6.815   8.797   6.740 -0.1567 -0.1721  0.0199
29288SOL    HW1 5856   6.796   8.704   6.754 -0.5351 -0.3855 -1.6969
29288SOL    HW2 5857   6.908   8.806   6.762 -0.3940 -0.6731  1.3643
29289SOL     OW 5858   4.511  12.309  11.562  0.2519 -0.0077  0.0042
29289SOL    HW1 5859   4.512  12.401  11.589 -0.5858 -0.8978  3.6894
29289SOL    HW2 5860   4.602  12.289  11.539  1.1056  1.0249  2.2164
29290SOL     OW 5861  11.390   9.320   4.056  0.0725  0.1780  0.2195
29290SOL    HW1 5862  11.304   9.362   4.051  0.4915  0.9128 -1.2220
29290SOL    HW2 5863  11.417   9.334   4.147 -1.6079 -0.7014  0.9168
29291SOL     OW 5864   5.530  13.125  12.400  0.2638 -0.0301  0.7201
29291SOL    HW1 5865   5.464  13.096  12.337  0.1256 -1.0710  1.3192
29291SOL    HW2 5866   5.594  13.173  12.347  0.7888 -1.9095 -0.4618
29292SOL     OW 5867   3.606   7.569   0.613  0.6271 -0.0328 -0.0341
29292SOL    HW1 5868   3.640   7.588   0.525  1.8355 -1.5090  0.0666
29292SOL    HW2 5869   3.516   7.540   0.598  0.7076  0.0636 -0.7384
29293SOL     OW 5870   6.455   9.064   6.913  0.1818  0.8183 -0.0984
29293SOL    HW1 5871   6.480   9.156   6.912 -1.2493  1.2944  1.7787
29293SOL    HW2 5872   6.492   9.030   6.995 -0.2273  0.0207 -0.2289
29294SOL     OW 5873  10.780   5.041  13.857 -0.2633 -0.0583  0.1070
29294SOL    HW1 5874  10.809   5.130  13.836  1.1072 -0.9902 -2.4693
29294SOL    HW2 5875  10.685   5.044  13.851 -0.2254  1.2199  0.0353
29295SOL     OW 5876   9.037   7.881   2.267 -0.1533 -0.7456 -0.3278
29295SOL    HW1 5877   8.948   7.848   2.272  0.1755 -1.7195 -0.6668
29295SOL    HW2 5878   9.089   7.806   2.238  0.8109 -0.2603  0.0937
29296SOL     OW 5879  12.278  13.952   5.413 -0.1461 -0.4675 -0.4573
29296SOL    HW1 5880  12.275  13.887   5.344  0.6140 -1.5954  0.5400
29296SOL    HW2 5881  12.186  13.965   5.438 -0.2802 -1.4703 -0.3948
29297SOL     OW 5882   6.235   7.149   2.294  0.3929  1.2018 -0.0278
29297SOL    HW1 5883   6.307   7.111   2.344 -0.2893  0.4703  0.4137
29297SOL    HW2 5884   6.157   7.101   2.322 -0.4164  2.5529  0.1426
29298SOL     OW 5885   1.499   1.017   8.514 -0.1953  0.2160 -0.4131
29298SOL    HW1 5886   1.415   1.043   8.475 -0.5299 -0.2092  0.0011
29298SOL    HW2 5887   1.560   1.016   8.441 -0.7054 -0.1111 -0.8481
29299SOL     OW 5888  10.260   6.343   6.321  0.3143 -0.3885 -0.5621
29299SOL    HW1 5889  10.286   6.276   6.258  0.9529 -0.6233 -0.0561
29299SOL    HW2 5890  10.164   6.337   6.325  0.3510 -1.0741 -0.7294
29300SOL     OW 5891  10.172   0.034   8.904  0.2700  0.0080 -0.1070
29300SOL    HW1 5892  10.135  -0.043   8.861 -1.0456  0.2590  0.5297
29300SOL    HW2 5893  10.215   0.083   8.833  0.3432 -0.8487 -0.6632
29301SOL     OW 5894  11.125   2.695   1.389 -0.2006  0.4107 -0.3467
29301SOL    HW1 5895  11.056   2.735   1.442 -1.6134  0.0138 -1.7949
29301SOL    HW2 5896  11.184   2.768   1.367 -0.3954  0.8454  0.5278
29302SOL     OW 5897   8.372   5.780   8.546  0.2902  0.0253 -0.4205
29302SOL    HW1 5898   8.446   5.828   8.584  0.3652  0.6999 -1.3625
29302SOL    HW2 5899   8.302   5.845   8.541 -0.0090 -0.3057 -0.5671
29303SOL     OW 5900   7.528  12.880   8.306 -0.0744  0.2448 -0.0574
29303SOL    HW1 5901   7.506  12.904   8.396 -0.1367 -1.1287  0.3109
29303SOL    HW2 5902   7.450  12.903   8.256 -0.2150  0.5973  0.3143
29304SOL     OW 5903   7.083   5.752  10.171 -0.4605  0.2206 -0.1024
29304SOL    HW1 5904   7.163   5.726  10.127 -0.7802 -2.1234  0.5895
29304SOL    HW2 5905   7.079   5.847  10.160  2.8494  0.5450  0.6227
29305SOL     OW 5906  11.003   2.908   9.349 -0.3493 -0.2782 -0.0576
29305SOL    HW1 5907  11.079   2.966   9.345 -1.5178  1.4312  0.9843
29305SOL    HW2 5908  11.037   2.824   9.378  0.8490  1.1540  3.0594
29306SOL     OW 5909   3.434   4.396   6.141  0.2155 -0.2437 -0.5479
29306SOL    HW1 5910   3.373   4.322   6.148  0.1660 -0.4272 -2.3630
29306SOL    HW2 5911   3.379   4.474   6.142  0.0070 -0.3741 -1.3947
29307SOL     OW 5912   5.070   3.738   7.193 -0.1231 -0.2385 -0.6198
29307SOL    HW1 5913   5.113   3.724   7.109 -0.2430 -1.3822 -0.5079
29307SOL    HW2 5914   5.119   3.684   7.255 -1.0235 -0.6946 -0.2790
29308SOL     OW 5915  13.242   1.380   5.060 -0.1518 -0.0421  0.2366
29308SOL    HW1 5916  13.161   1.429   5.045  0.6448  1.1333 -0.4242
29308SOL    HW2 5917  13.292   1.435   5.120  0.9174  0.1856 -0.8090
29309SOL     OW 5918   2.293   7.322   6.365 -0.1074  0.6304 -0.2176
29309SOL    HW1 5919   2.374   7.344   6.320  0.1754 -0.5056 -0.2890
29309SOL    HW2 5920   2.310   7.238   6.407 -0.7321  1.1146  1.0885
29310SOL     OW 5921  11.789   9.916   0.989  0.4758 -0.0651 -0.1305
29310SOL    HW1 5922  11.837   9.855   1.045  0.3768  1.1363  1.3316
29310SOL    HW2 5923  11.854   9.982   0.964  0.2425  0.0383 -0.4730
29311SOL     OW 5924   9.131   4.526   5.628  0.3651  0.4259  0.2709
29311SOL    HW1 5925   9.182   4.514   5.708  2.2699 -1.3380 -1.1043
29311SOL    HW2 5926   9.097   4.438   5.607 -1.0187  1.0595 -0.3044
29312SOL     OW 5927   0.688   3.366   5.692 -0.8107  0.5224 -0.4155
29312SOL    HW1 5928   0.651   3.279   5.713 -0.3633  0.0145 -1.6391
29312SOL    HW2 5929   0.659   3.382   5.602 -0.1115  1.2305 -0.5164
29313SOL     OW 5930   6.570   9.576   9.250  0.6409 -0.7624  0.8690
29313SOL    HW1 5931   6.511   9.571   9.325 -0.6157 -1.3853 -0.1270
29313SOL    HW2 5932   6.655   9.599   9.288 -0.0295 -0.7524  2.4369
29314SOL     OW 5933  10.118  14.080  14.100 -0.4080 -0.9708 -0.2068
29314SOL    HW1 5934  10.043  14.037  14.141 -0.4133 -1.9266 -1.1812
29314SOL    HW2 5935  10.193  14.027  14.127 -0.3471 -1.2775 -0.9561
29315SOL     OW 5936   9.736   9.230   1.927 -0.0828 -0.2886 -0.9623
29315SOL    HW1 5937   9.824   9.255   1.900 -0.3562  1.9023  0.0266
29315SOL    HW2 5938   9.749   9.158   1.988  1.0530  0.2699 -0.5325
29316SOL     OW 5939  10.003   6.374   3.728 -0.1017  0.4077 -0.2634
29316SOL    HW1 5940   9.909   6.388   3.731  0.2032  2.6640  0.9615
29316SOL    HW2 5941  10.022   6.357   3.635 -1.8244 -1.5419 -0.3312
29317SOL     OW 5942  10.966   9.821   1.160 -0.1384  0.0249 -0.5063
29317SOL    HW1 5943  11.059   9.823   1.135 -0.1737 -0.8422 -0.7348
29317SOL    HW2 5944  10.935   9.910   1.144  1.1370  0.9080  1.5110
29318SOL     OW 5945  13.508   3.611   5.195  0.0901  0.0391 -0.0785
29318SOL    HW1 5946  13.526   3.625   5.102  1.0490  0.5849  0.1773
29318SOL    HW2 5947  13.530   3.694   5.237 -1.8460  0.3542  0.4561
29319SOL     OW 5948   8.945   1.516   4.784  0.2518 -0.5146 -0.2885
29319SOL    HW1 5949   9.029   1.562   4.778 -0.6446  1.2013 -0.4857
29319SOL    HW2 5950   8.952   1.461   4.862  1.3099  0.1529  0.0983
29320SOL     OW 5951   4.963  13.248   6.177  0.2213  0.3672 -0.0691
29320SOL    HW1 5952   4.970  13.323   6.235 -0.0500  0.5944 -0.3268
29320SOL    HW2 5953   5.019  13.270   6.102  1.5238 -0.4342  0.6359
29321SOL     OW 5954  12.903   5.233   5.347 -0.0750  0.2094  0.4958
29321SOL    HW1 5955  12.910   5.138   5.350  3.0375  0.2784 -0.7021
29321SOL    HW2 5956  12.853   5.251   5.267 -1.9830 -0.3373  1.4861
29322SOL     OW 5957  14.101   3.430   4.422 -0.4255 -0.0529  0.0970
29322SOL    HW1 5958  14.162   3.503   4.411 -0.5060  0.1595  1.0348
29322SOL    HW2 5959  14.027   3.452   4.366 -1.0860  1.2965  1.4273
29323SOL     OW 5960  10.253  11.461   6.108  1.0444  0.1656  0.0958
29323SOL    HW1 5961  10.206  11.535   6.148  0.0766  1.0483 -2.5063
29323SOL    HW2 5962  10.272  11.403   6.182 -1.2767  1.3294  1.7546
29324SOL     OW 5963  12.798   6.500   4.155  0.2031 -0.0714  0.3202
29324SOL    HW1 5964  12.869   6.531   4.211  0.0880  0.7734  0.0132
29324SOL    HW2 5965  12.839   6.485   4.070 -0.3065  2.2409 -0.3939
29325SOL     OW 5966   0.273   8.105  10.816 -0.4899 -0.1992  0.0417
29325SOL    HW1 5967   0.186   8.068  10.802 -0.6841 -0.2817  1.3246
29325SOL    HW2 5968   0.333   8.031  10.811 -0.4679 -0.1196 -0.9947
29326SOL     OW 5969   0.222  13.288   7.897  0.2708 -0.5401 -0.3727
29326SOL    HW1 5970   0.264  13.226   7.836  0.2199  0.3252 -1.3106
29326SOL    HW2 5971   0.146  13.241   7.930  0.3466 -1.0573 -0.9166
29327SOL     OW 5972  14.138   6.933  11.224 -0.2976  0.4220 -0.2761
29327SOL    HW1 5973  14.232   6.916  11.230 -0.3303  0.3025 -0.1167
29327SOL    HW2 5974  14.100   6.890  11.300 -0.6916 -0.9734 -1.2285
29328SOL     OW 5975   5.942  10.684  12.007  0.0653 -0.7626  0.6444
29328SOL    HW1 5976   5.992  10.710  12.084  0.7634 -1.2705  0.3704
29328SOL    HW2 5977   5.974  10.597  11.986 -0.0890 -0.6132 -0.2476
29329SOL     OW 5978  11.034  12.451   4.356 -0.0368  0.3548  0.0464
29329SOL    HW1 5979  11.032  12.501   4.274 -1.2889  1.3972  0.6758
29329SOL    HW2 5980  11.114  12.480   4.400 -0.2290  1.0463 -0.0514
29330SOL     OW 5981   9.815   4.921   4.169  0.5561 -0.2981  0.2190
29330SOL    HW1 5982   9.795   4.936   4.077  0.5071 -0.6267  0.1756
29330SOL    HW2 5983   9.910   4.932   4.176  0.5229  0.0162  0.1867
29331SOL     OW 5984   6.913   7.471   1.653  0.0354  0.3103  0.0039
29331SOL    HW1 5985   6.861   7.391   1.652  0.2153  0.1679 -2.1679
29331SOL    HW2 5986   6.960   7.470   1.570 -0.0682  2.7387 -0.1501
29332SOL     OW 5987   8.556   2.793   1.457 -0.0945 -0.6653 -0.0153
29332SOL    HW1 5988   8.581   2.708   1.420  1.5759  0.3087 -1.2465
29332SOL    HW2 5989   8.621   2.808   1.526  1.1716  0.6909 -1.4480
29333SOL     OW 5990  11.908   3.573   2.319  0.1754 -0.2072 -0.2425
29333SOL    HW1 5991  11.876   3.622   2.243  1.2018  2.5177  0.9435
29333SOL    HW2 5992  11.995   3.544   2.294  1.6305  2.9568  0.6174
29334SOL     OW 5993   3.129   2.642   0.563 -0.2586 -0.1500  0.3997
29334SOL    HW1 5994   3.039   2.609   0.560  0.2418 -1.6453  0.6219
29334SOL    HW2 5995   3.183   2.564   0.548  0.9856  1.1054 -2.2797
29335SOL     OW 5996   5.703   2.560   1.859  0.5291  0.0892 -0.2521
29335SOL    HW1 5997   5.663   2.647   1.855  2.0397  0.8461  0.3171
29335SOL    HW2 5998   5.796   2.577   1.876  1.2810 -1.5505 -2.2896
29336SOL     OW 5999   6.877   9.375  12.583 -0.3655  0.2305 -0.1647
29336SOL    HW1 6000   6.797   9.415  12.549  0.1292  0.8667 -0.6034
29336SOL    HW2 6001   6.946   9.402  12.522 -0.0698 -1.6993 -0.7447
29337SOL     OW 6002   0.613   1.423   2.699  0.1660  0.3469 -0.0084
29337SOL    HW1 6003   0.657   1.460   2.775  0.2144  1.4912 -0.5658
29337SOL    HW2 6004   0.637   1.330   2.700  1.1687  0.5924  0.6775
29338SOL     OW 6005  12.367   9.092  13.364  0.6678 -0.2207 -0.5027
29338SOL    HW1 6006  12.399   9.006  13.335 -0.1278 -1.2171  1.4140
29338SOL    HW2 6007  12.297   9.072  13.426 -0.9367  1.8608 -1.5067
29339SOL     OW 6008  10.358   4.509  10.335  0.2272 -0.2386  0.4664
29339SOL    HW1 6009  10.408   4.429  10.353  1.0455  0.3291  0.7310
29339SOL    HW2 6010  10.412   4.559  10.275 -1.1900 -0.7793 -1.3406
29340SOL     OW 6011  12.026   6.904  11.775  0.0990 -0.1861  0.1462
29340SOL    HW1 6012  12.057   6.976  11.721  0.0088 -1.0635 -1.1169
29340SOL    HW2 6013  12.105   6.872  11.819  0.0300  1.0970  1.2774
29341SOL     OW 6014  10.109  13.024   3.928  0.1231  0.4857  0.7752
29341SOL    HW1 6015  10.130  12.982   4.012  0.0552  0.4872  0.7930
29341SOL    HW2 6016  10.075  13.110   3.952 -0.9250  0.0755  0.7994
29342SOL     OW 6017  12.828  11.943  14.007  1.2190 -0.1485  0.2253
29342SOL    HW1 6018  12.825  11.937  14.102 -0.1278  2.2634  0.4234
29342SOL    HW2 6019  12.913  11.907  13.983  1.5830 -0.8149  2.3253
29343SOL     OW 6020   0.538   9.202   0.527  0.4817 -0.4622 -0.3846
29343SOL    HW1 6021   0.525   9.132   0.462  1.0673  0.6601 -1.7657
29343SOL    HW2 6022   0.449   9.222   0.558 -0.0898  0.3894 -2.4148
29344SOL     OW 6023   5.465   6.734   5.691 -0.1760  0.0417 -0.2408
29344SOL    HW1 6024   5.460   6.673   5.617  0.3137 -0.0684 -0.1860
29344SOL    HW2 6025   5.387   6.789   5.683 -0.1069  0.0497 -0.8590
29345SOL     OW 6026   8.119   9.159   9.085  0.0921  0.3324 -0.8524
29345SOL    HW1 6027   8.178   9.201   9.023  1.7352 -0.5692  0.0194
29345SOL    HW2 6028   8.175   9.098   9.133 -1.0863  0.9838  1.5082
29346SOL     OW 6029   8.676   8.585   6.307 -0.3963  0.4026  0.1614
29346SOL    HW1 6030   8.637   8.500   6.288  0.5597 -0.1494  0.5921
29346SOL    HW2 6031   8.758   8.585   6.257 -0.2330  0.9276  0.4252
29347SOL     OW 6032   2.565   7.307  12.607 -0.0497 -0.5547 -0.1379
29347SOL    HW1 6033   2.566   7.257  12.525 -0.8946  0.1718 -0.6178
29347SOL    HW2 6034   2.548   7.397  12.580  0.8266 -0.0993  0.7611
29348SOL     OW 6035   3.705   0.056   7.466  0.9254 -0.2954 -0.1800
29348SOL    HW1 6036   3.631  -0.001   7.487  0.9759 -0.2212  0.2066
29348SOL    HW2 6037   3.724   0.102   7.548 -0.7364  2.1829 -1.0672
29349SOL     OW 6038   4.514   6.680   8.905 -0.0133  0.2238  0.0291
29349SOL    HW1 6039   4.501   6.600   8.855 -1.6326 -0.1137  0.9210
29349SOL    HW2 6040   4.589   6.723   8.863  0.4898 -1.4309 -0.8528
29350SOL     OW 6041   5.457   1.225   1.031 -0.5224 -0.2023 -0.1340
29350SOL    HW1 6042   5.483   1.222   0.939  0.8365 -0.8575  0.2586
29350SOL    HW2 6043   5.362   1.212   1.030 -0.3627 -1.3602 -1.3602
29351SOL     OW 6044  10.458   7.054  11.275  0.1158  0.2083  0.1898
29351SOL    HW1 6045  10.390   7.072  11.210  0.1410 -0.3883 -0.0138
29351SOL    HW2 6046  10.417   7.073  11.359  0.7725  3.1540 -0.0616
29352SOL     OW 6047  12.618   1.719   2.680 -0.8613  0.7025 -0.4280
29352SOL    HW1 6048  12.571   1.689   2.758 -1.6081  2.7417 -0.0145
29352SOL    HW2 6049  12.711   1.704   2.701 -1.1283 -0.0463  0.2729
29353SOL     OW 6050   9.330   6.516  11.580  0.3056  0.2348 -0.2330
29353SOL    HW1 6051   9.256   6.479  11.627  0.0303  0.0889 -0.7721
29353SOL    HW2 6052   9.340   6.460  11.503  0.5599  0.6523 -0.5067
29354SOL     OW 6053  13.599   5.023  12.122 -0.3380 -0.2458  0.9765
29354SOL    HW1 6054  13.625   4.966  12.050  0.9508  0.5972  0.7534
29354SOL    HW2 6055  13.534   4.972  12.170  1.2679 -2.1901  1.1907
29355SOL     OW 6056   3.001   0.060   6.628  0.7031  0.2289  0.1132
29355SOL    HW1 6057   2.998   0.144   6.674 -2.2964  0.9151 -1.0356
29355SOL    HW2 6058   2.910   0.031   6.628  1.2659 -1.7464 -1.7974
29356SOL     OW 6059   6.243  11.202  13.449 -0.2278  0.0890 -0.6127
29356SOL    HW1 6060   6.209  11.154  13.373 -2.5473 -0.6938  0.8182
29356SOL    HW2 6061   6.165  11.223  13.501  1.1858  1.4928  1.0629
29357SOL     OW 6062  13.993   2.235   3.160 -0.8051 -0.1302 -0.3107
29357SOL    HW1 6063  13.926   2.171   3.182 -1.3650  0.7912  0.7715
29357SOL    HW2 6064  14.071   2.204   3.205 -0.1893 -1.6794 -2.2659
29358SOL     OW 6065   2.892   1.678   0.200  0.0082  0.3981  0.0176
29358SOL    HW1 6066   2.913   1.704   0.110  1.4092  2.5984  0.8899
29358SOL    HW2 6067   2.971   1.634   0.231  0.9460  2.7340  1.1928
29359SOL     OW 6068  11.541   7.559   0.812 -0.1552 -0.1512  0.0195
29359SOL    HW1 6069  11.594   7.601   0.880 -0.9036  0.2365  0.3881
29359SOL    HW2 6070  11.514   7.476   0.851 -0.6707  0.1166  0.2545
29360SOL     OW 6071   7.580  11.568  10.760 -0.0749  0.1333  0.0006
29360SOL    HW1 6072   7.616  11.573  10.849  0.2070 -0.2330 -0.0934
29360SOL    HW2 6073   7.539  11.654  10.747 -2.0806 -0.5239  1.3131
29361SOL     OW 6074   3.337  13.946  10.606  0.1594 -0.3105  0.0311
29361SOL    HW1 6075   3.262  13.956  10.548 -0.3458  0.0011  0.7078
29361SOL    HW2 6076   3.328  14.019  10.668  0.1071 -1.2035  1.1096
29362SOL     OW 6077   8.956   4.287   5.167 -0.0008 -0.1203 -0.2508
29362SOL    HW1 6078   8.883   4.345   5.144  0.1222 -0.3686 -1.2946
29362SOL    HW2 6079   8.949   4.214   5.106  2.2436  0.7740 -1.6969
29363SOL     OW 6080  11.095  10.670  11.888  0.4005  0.2555 -0.0836
29363SOL    HW1 6081  11.114  10.579  11.865  0.8745  0.1443  0.7228
29363SOL    HW2 6082  11.110  10.719  11.808  0.6100 -0.3110 -0.3944
29364SOL     OW 6083   6.617   3.845   1.255  0.6199  0.0735 -0.3912
29364SOL    HW1 6084   6.638   3.752   1.246  0.4181  0.0985 -1.1639
29364SOL    HW2 6085   6.529   3.846   1.293  1.1288 -0.0345  0.8484
29365SOL     OW 6086  12.449   4.591   6.177 -0.0249 -0.3346 -0.0029
29365SOL    HW1 6087  12.506   4.668   6.180 -0.7145  0.1514  1.7501
29365SOL    HW2 6088  12.361   4.625   6.194 -0.3636 -1.4931  0.6940
29366SOL     OW 6089  12.872   8.261   5.388  0.3976  0.4764 -0.0457
29366SOL    HW1 6090  12.807   8.293   5.451  1.4774  1.5807  0.5516
29366SOL    HW2 6091  12.824   8.199   5.334 -1.1463  1.2265  0.4047
29367SOL     OW 6092   7.060   7.781   8.149 -0.2421 -0.1420 -0.3799
29367SOL    HW1 6093   6.996   7.845   8.119  0.0958 -0.4498 -1.8571
29367SOL    HW2 6094   7.144   7.817   8.122  0.0125 -0.7962 -0.4731
29368SOL     OW 6095   2.073   7.449   1.923 -0.0754  0.6239  0.2358
29368SOL    HW1 6096   1.999   7.504   1.895 -1.6555  0.1086  2.9813
29368SOL    HW2 6097   2.142   7.511   1.945  0.6920  1.0981 -3.0052
29369SOL     OW 6098  11.650  11.608  10.628 -0.1443 -0.0388  0.2383
29369SOL    HW1 6099  11.584  11.655  10.577 -0.3084  0.6570  1.0790
29369SOL    HW2 6100  11.733  11.646  10.600 -0.2135  0.1520  0.2890
29370SOL     OW 6101   3.057   8.972   6.973 -0.4273 -0.4938  0.2977
29370SOL    HW1 6102   3.029   9.050   7.021 -0.0826  0.1891 -0.5923
29370SOL    HW2 6103   2.991   8.906   6.995 -0.4308 -0.1318  1.4913
29371SOL     OW 6104   6.078  11.596   3.095 -0.2211 -0.2099 -0.8794
29371SOL    HW1 6105   6.039  11.510   3.103 -1.0656  0.0343 -2.1501
29371SOL    HW2 6106   6.028  11.651   3.156  0.6837 -0.6946  0.3594
29372SOL     OW 6107  10.410  10.117  12.357 -0.1104 -0.8256 -0.5139
29372SOL    HW1 6108  10.409  10.205  12.394  0.9704 -0.7889 -0.5495
29372SOL    HW2 6109  10.371  10.061  12.424  0.6745 -0.5631  0.1780
29373SOL     OW 6110   0.496  13.128  10.081 -0.1580  0.0481  0.1847
29373SOL    HW1 6111   0.495  13.034  10.102  0.1739 -0.1961 -0.8329
29373SOL    HW2 6112   0.443  13.135  10.002  0.7979  0.5430 -0.4237
29374SOL     OW 6113  12.615  10.102   2.040  0.1686 -0.1792  0.0124
29374SOL    HW1 6114  12.544  10.116   2.102  0.5495  1.8393  0.0828
29374SOL    HW2 6115  12.688  10.154   2.074  0.7948 -0.0391 -1.4367
29375SOL     OW 6116  13.641  10.481   1.646  0.7104 -0.2658  0.1891
29375SOL    HW1 6117  13.557  10.506   1.684  1.1156  2.1707 -0.3429
29375SOL    HW2 6118  13.705  10.506   1.713  1.1016 -0.8901  0.0513
29376SOL     OW 6119  10.514  14.132   4.095 -0.6723 -0.0796 -0.8336
29376SOL    HW1 6120  10.599  14.175   4.086 -1.1801  1.0773 -0.2907
29376SOL    HW2 6121  10.459  14.174   4.028 -1.9440  2.1390  1.4574
29377SOL     OW 6122   6.382  13.583   2.329 -0.0642  0.4104 -0.3953
29377SOL    HW1 6123   6.371  13.536   2.412  3.1379  0.3146  0.0999
29377SOL    HW2 6124   6.353  13.520   2.263  0.2557 -0.7157  0.4852
29378SOL     OW 6125   4.975   7.684   1.059  0.5484 -0.1988 -1.3086
29378SOL    HW1 6126   4.999   7.610   1.116  0.0068  1.0327  0.6152
29378SOL    HW2 6127   5.053   7.739   1.058  0.0785  0.5203 -0.4735
29379SOL     OW 6128   4.538   3.830   4.269 -0.3452 -0.0554 -0.1210
29379SOL    HW1 6129   4.566   3.750   4.224  0.7396 -0.2712  0.8716
29379SOL    HW2 6130   4.610   3.892   4.255 -1.7878  1.2722 -2.0755
29380SOL     OW 6131  12.232   7.127   4.748  0.6201 -0.1960 -0.6661
29380SOL    HW1 6132  12.273   7.055   4.701  1.3318 -0.0577 -0.2682
29380SOL    HW2 6133  12.299   7.159   4.809 -0.3613 -0.5700  0.6745
29381SOL     OW 6134  12.317  11.738  12.001 -0.7027 -0.0793 -0.0440
29381SOL    HW1 6135  12.373  11.669  11.965 -1.0531 -0.5038  0.2189
29381SOL    HW2 6136  12.317  11.806  11.933 -2.0743 -1.2323 -1.2582
29382SOL     OW 6137   0.082   5.071   1.696  0.0379  0.3759 -1.2290
29382SOL    HW1 6138   0.032   5.024   1.629  0.7686 -2.4644  0.0366
29382SOL    HW2 6139   0.173   5.069   1.664 -0.0683  2.2228 -1.7753
29383SOL     OW 6140  10.010   9.591  14.075  0.0598  0.5852  0.0174
29383SOL    HW1 6141  10.072   9.596  14.002 -0.4197 -0.0755 -0.4529
29383SOL    HW2 6142   9.953   9.518  14.053 -0.3412  0.6202  0.8753
29384SOL     OW 6143   0.440   3.040   5.007 -0.6830  0.2082  0.0677
29384SOL    HW1 6144   0.502   3.090   4.953 -1.1131 -0.0215 -0.6457
29384SOL    HW2 6145   0.396   2.982   4.945 -1.0473 -0.1974  0.7027
29385SOL     OW 6146   4.352   1.886   5.644 -0.6269 -0.6402 -0.2901
29385SOL    HW1 6147   4.406   1.961   5.668 -1.2396 -0.1769 -0.3461
29385SOL    HW2 6148   4.384   1.860   5.558  0.8733 -1.6511  0.5216
29386SOL     OW 6149   3.571   2.764   3.262 -0.2242 -0.2491  0.3365
29386SOL    HW1 6150   3.497   2.825   3.264 -0.5808 -0.6837  0.6289
29386SOL    HW2 6151   3.540   2.687   3.310 -0.1467 -1.0740 -0.8634
29387SOL     OW 6152   8.333   4.010   8.322  0.2302 -0.0614  0.3544
29387SOL    HW1 6153   8.304   4.067   8.393 -1.2835 -0.1853 -0.1272
29387SOL    HW2 6154   8.414   3.971   8.354  0.8075  1.6264  1.0752
29388SOL     OW 6155  12.407   2.224   9.700  0.5463  0.5858 -0.3098
29388SOL    HW1 6156  12.360   2.189   9.624  1.4411 -1.0035 -0.1869
29388SOL    HW2 6157  12.477   2.277   9.662  0.3048  0.7233 -0.5641
29389SOL     OW 6158   0.817   1.319   1.652  0.4997  0.1658  0.0075
29389SOL    HW1 6159   0.767   1.259   1.707 -0.3072  0.4550 -0.3945
29389SOL    HW2 6160   0.909   1.294   1.666  0.3432  0.4371  1.7251
29390SOL     OW 6161  13.533  12.599  11.600 -0.4005  0.4046 -0.3226
29390SOL    HW1 6162  13.456  12.545  11.612 -0.6203  0.3014 -1.9566
29390SOL    HW2 6163  13.518  12.645  11.517  0.0617  2.4972  0.6789
29391SOL     OW 6164   3.886  12.315   7.326 -0.3216 -0.4967  0.4896
29391SOL    HW1 6165   3.961  12.276   7.281 -0.4133 -1.8559  1.4414
29391SOL    HW2 6166   3.902  12.297   7.418 -1.6925 -0.5724  0.7309
29392SOL     OW 6167   9.319   5.229   5.988 -0.2927 -0.1931 -0.2108
29392SOL    HW1 6168   9.352   5.312   6.024 -0.2477 -0.4064  0.2480
29392SOL    HW2 6169   9.252   5.201   6.049 -0.7082 -0.2119 -0.6713
29393SOL     OW 6170   5.950   0.165   7.875 -0.1746  0.1530 -0.5231
29393SOL    HW1 6171   6.010   0.105   7.831  1.2545  0.9200  0.2747
29393SOL    HW2 6172   5.989   0.252   7.860 -0.5835  0.5799  0.7840
29394SOL     OW 6173   0.321   6.682   5.606 -0.1507  0.0663 -0.3380
29394SOL    HW1 6174   0.285   6.671   5.694 -1.4066 -0.4933 -0.8969
29394SOL    HW2 6175   0.261   6.743   5.563  1.3092  1.5736 -0.3555
29395SOL     OW 6176   2.704   6.745   1.802  0.1119  0.2048  0.1093
29395SOL    HW1 6177   2.624   6.781   1.842  0.0600 -0.5865  0.7491
29395SOL    HW2 6178   2.689   6.751   1.708 -1.2639 -1.0906  0.2077
29396SOL     OW 6179   2.181  10.492  11.775  0.1786  0.0736  0.5991
29396SOL    HW1 6180   2.182  10.436  11.698  1.4733  0.3326  0.4034
29396SOL    HW2 6181   2.221  10.439  11.844  0.7686  0.4918  0.5909
29397SOL     OW 6182   4.233  12.729   7.876 -0.4610 -0.1270  0.0570
29397SOL    HW1 6183   4.308  12.772   7.835  0.4384 -0.5736  1.1696
29397SOL    HW2 6184   4.233  12.640   7.841 -0.7360 -0.0090 -0.2535
29398SOL     OW 6185   4.494  13.436   1.923  0.0539 -0.0291  0.1676
29398SOL    HW1 6186   4.538  13.492   1.858  0.6547 -1.4087 -0.6725
29398SOL    HW2 6187   4.411  13.413   1.882  0.5912 -1.2025 -0.3221
29399SOL     OW 6188  13.722   9.938   6.204  0.6628 -0.2107  0.0804
29399SOL    HW1 6189  13.646   9.880   6.201 -0.0393  0.7141 -2.1683
29399SOL    HW2 6190  13.777   9.910   6.130  1.8879 -0.0376  0.8989
29400SOL     OW 6191   2.605  12.162   5.514  0.4832  0.1027 -0.2545
29400SOL    HW1 6192   2.640  12.082   5.553 -1.5819  0.0960  1.8222
29400SOL    HW2 6193   2.613  12.149   5.420  2.9542 -1.2097  0.0637
29401SOL     OW 6194   4.988  11.670   5.584 -0.1645 -0.3373 -0.0171
29401SOL    HW1 6195   4.912  11.638   5.536  1.4141 -2.8996 -0.9585
29401SOL    HW2 6196   5.050  11.698   5.517  0.9028 -1.1803  0.5712
29402SOL     OW 6197   7.200  12.064   9.476  0.0825 -0.6111  0.2729
29402SOL    HW1 6198   7.263  12.028   9.414 -0.9311 -0.2335 -1.0158
29402SOL    HW2 6199   7.188  12.155   9.449  0.3398 -0.1492  1.6338
29403SOL     OW 6200   1.889   5.220  13.570  0.0753  0.5224 -0.2752
29403SOL    HW1 6201   1.978   5.186  13.563  0.2709  0.8791  0.3519
29403SOL    HW2 6202   1.899   5.315  13.559 -0.3162  0.4953 -0.8849
29404SOL     OW 6203   5.293   3.974   6.036  0.0849  0.2307  0.0009
29404SOL    HW1 6204   5.299   3.885   6.071 -1.7865 -0.7471 -1.9097
29404SOL    HW2 6205   5.323   3.967   5.945 -1.0060  1.3056 -0.4756
29405SOL     OW 6206   0.184   6.613   8.717 -0.0971 -0.4375 -0.6297
29405SOL    HW1 6207   0.224   6.596   8.802 -2.0599  1.5097  0.8097
29405SOL    HW2 6208   0.205   6.705   8.698  0.3504 -0.8507 -2.3115
29406SOL     OW 6209   1.539  12.915   9.969  0.5692  0.5924 -0.0166
29406SOL    HW1 6210   1.517  12.937   9.878  1.0099 -0.9188 -0.5234
29406SOL    HW2 6211   1.633  12.899   9.968  0.9601  2.4889  1.1591
29407SOL     OW 6212   4.986   9.359   6.966 -0.4483 -0.7502  0.3171
29407SOL    HW1 6213   5.021   9.328   7.050 -0.8606 -0.5651  0.5615
29407SOL    HW2 6214   4.892   9.345   6.973 -0.5495 -0.1980  0.1145
29408SOL     OW 6215   2.940   4.125   5.379 -0.2972 -1.0370 -0.5078
29408SOL    HW1 6216   2.957   4.086   5.294  1.5502  0.0428 -0.6909
29408SOL    HW2 6217   2.995   4.075   5.440  0.9695  0.2901 -0.5169
29409SOL     OW 6218  10.444   1.717   2.957 -0.6064  0.2464 -0.2815
29409SOL    HW1 6219  10.534   1.747   2.973 -0.7473 -0.1197  1.3265
29409SOL    HW2 6220  10.399   1.794   2.923 -0.0855  0.8890  0.4539
29410SOL     OW 6221   6.122   4.996   2.514 -0.0937 -0.7257 -0.3834
29410SOL    HW1 6222   6.204   5.035   2.482 -1.3361  1.2908 -1.3502
29410SOL    HW2 6223   6.112   4.917   2.462  1.0383 -0.7947 -0.5290
29411SOL     OW 6224   8.578   3.915   1.086  0.5074 -0.0014 -0.1866
29411SOL    HW1 6225   8.516   3.891   1.017  0.8249 -0.0459 -0.4597
29411SOL    HW2 6226   8.528   3.908   1.167  0.3079 -0.5742 -0.3537
29412SOL     OW 6227   6.659  12.630   3.774 -0.3317 -0.1642 -0.4955
29412SOL    HW1 6228   6.726  12.565   3.752  1.6682  1.9946 -1.2700
29412SOL    HW2 6229   6.693  12.674   3.852 -0.3508  1.5527 -1.4046
29413SOL     OW 6230  10.466   6.589   7.963  0.2344  0.1598  0.1042
29413SOL    HW1 6231  10.423   6.581   8.048  1.6745 -0.2916  0.8258
29413SOL    HW2 6232  10.533   6.521   7.964  2.9809  2.6792  0.2915
29414SOL     OW 6233   2.388   4.256  11.777 -0.0956  0.1242  0.7645
29414SOL    HW1 6234   2.332   4.278  11.851  0.0284  0.1663  0.8468
29414SOL    HW2 6235   2.412   4.340  11.738 -0.5559  0.0800  0.3796
29415SOL     OW 6236  11.609   3.909  10.822 -0.1590  0.4331 -0.4928
29415SOL    HW1 6237  11.624   4.003  10.834  1.8892  0.1265 -0.3561
29415SOL    HW2 6238  11.558   3.883  10.898  1.3667  0.9970  0.7730
29416SOL     OW 6239   2.844   7.164  13.163 -0.1684  0.4781 -0.6178
29416SOL    HW1 6240   2.893   7.148  13.244  0.7603  1.6240 -0.9230
29416SOL    HW2 6241   2.813   7.078  13.137  0.4128 -0.0641  0.3997
29417SOL     OW 6242  13.967   8.419   3.344 -0.6273  0.0074 -0.0001
29417SOL    HW1 6243  14.027   8.489   3.367  0.1007 -0.4256 -0.5420
29417SOL    HW2 6244  13.886   8.441   3.390  0.1244  0.2794  1.2393
29418SOL     OW 6245   0.444   2.865   1.876 -0.1385  0.2943 -0.1547
29418SOL    HW1 6246   0.464   2.924   1.948 -0.1393  0.9624 -0.6944
29418SOL    HW2 6247   0.359   2.893   1.843 -0.8682 -0.9837  0.5506
29419SOL     OW 6248   6.934   7.778   8.403  0.2268  0.0140 -0.1951
29419SOL    HW1 6249   6.870   7.849   8.414 -2.0939 -1.7559 -1.3204
29419SOL    HW2 6250   6.965   7.786   8.313  1.0480  0.4416  0.1246
29420SOL     OW 6251   9.520   9.102   3.025  0.0943  0.0868 -0.0870
29420SOL    HW1 6252   9.541   9.027   2.970  0.3134  0.9922 -1.2986
29420SOL    HW2 6253   9.604   9.128   3.064  0.0836 -0.0842  0.0488
29421SOL     OW 6254   5.366   2.878   3.884  0.2580 -0.2615  0.5901
29421SOL    HW1 6255   5.315   2.930   3.821  0.1346 -0.9116  0.1553
29421SOL    HW2 6256   5.456   2.883   3.852  0.1346 -0.9337  0.1235
29422SOL     OW 6257   2.226   9.573   1.066 -0.3655 -0.1726  0.3557
29422SOL    HW1 6258   2.177   9.515   1.008 -1.7343  1.3022 -0.0619
29422SOL    HW2 6259   2.251   9.647   1.010  0.5608  0.0591  1.0493
29423SOL     OW 6260   9.873   5.284   4.201 -0.4786  0.1781 -0.0492
29423SOL    HW1 6261   9.943   5.328   4.250 -0.9094  0.3061  0.4591
29423SOL    HW2 6262   9.852   5.207   4.255 -0.8397  0.2285 -0.1175
29424SOL     OW 6263   4.633  10.626   6.016 -0.0689 -0.3175  0.2041
29424SOL    HW1 6264   4.629  10.647   6.109  0.8527 -1.2986  0.4803
29424SOL    HW2 6265   4.638  10.712   5.972 -2.4608  0.2542  0.8910
29425SOL     OW 6266   5.901   0.962   6.909 -0.0326  0.3580 -0.7251
29425SOL    HW1 6267   5.856   0.878   6.904  0.3026  0.1885 -0.9491
29425SOL    HW2 6268   5.875   1.009   6.830 -0.4553  0.5842 -0.4512
29426SOL     OW 6269  13.720   6.177   4.242  0.0145  0.0585 -0.0649
29426SOL    HW1 6270  13.706   6.240   4.313  0.4325  1.5359 -1.2404
29426SOL    HW2 6271  13.698   6.093   4.280 -0.5118  0.9038  1.5943
29427SOL     OW 6272  12.440  12.223   2.819 -0.0259 -0.9571 -0.2777
29427SOL    HW1 6273  12.406  12.186   2.901 -0.0157 -1.2042 -0.3854
29427SOL    HW2 6274  12.445  12.317   2.836  2.0459 -1.1902  0.7997
29428SOL     OW 6275  12.819   7.885   7.743 -0.1141  0.0817 -0.1309
29428SOL    HW1 6276  12.891   7.944   7.720 -0.9498  1.2824  0.2501
29428SOL    HW2 6277  12.858   7.823   7.805  0.2783  1.5927  1.2077
29429SOL     OW 6278  11.520   6.433   3.934 -0.2596 -0.0826 -0.3299
29429SOL    HW1 6279  11.602   6.449   3.979 -0.2491 -0.7484 -0.1000
29429SOL    HW2 6280  11.469   6.513   3.947 -0.1753 -0.1800  0.6861
29430SOL     OW 6281   1.871   7.803   8.710 -0.0544 -0.4764  0.2304
29430SOL    HW1 6282   1.954   7.810   8.756 -0.2996 -0.1012  0.6210
29430SOL    HW2 6283   1.806   7.790   8.778 -0.6583  1.8570  0.2091
29431SOL     OW 6284   6.507  12.978   0.353 -0.2379 -0.3738 -0.4539
29431SOL    HW1 6285   6.412  12.964   0.352 -0.3809  0.3483  0.4913
29431SOL    HW2 6286   6.542  12.902   0.400 -0.3689 -0.5376 -0.6205
29432SOL     OW 6287  12.605   2.588   0.584  0.0436  0.1355 -0.1679
29432SOL    HW1 6288  12.689   2.604   0.628  0.9825 -1.0251 -1.4391
29432SOL    HW2 6289  12.555   2.535   0.645  0.7697 -0.2810  0.0763
29433SOL     OW 6290   4.920   6.874  13.007  0.6013  0.2012  0.1607
29433SOL    HW1 6291   4.897   6.781  13.011  2.7978 -0.3699  0.6373
29433SOL    HW2 6292   4.880   6.905  12.925  0.4543 -1.3443 -0.3772
29434SOL     OW 6293   5.288  12.463  11.252  0.6822  0.3103 -0.7305
29434SOL    HW1 6294   5.267  12.378  11.291  1.0476  0.2966 -0.5620
29434SOL    HW2 6295   5.380  12.477  11.273  0.5478  0.8814 -0.5155
29435SOL     OW 6296   9.992   7.817   7.660 -0.0459 -0.2725 -0.4058
29435SOL    HW1 6297   9.974   7.891   7.603  0.5300 -0.0940 -0.3644
29435SOL    HW2 6298   9.906   7.784   7.685 -0.3041 -0.8101 -1.9545
29436SOL     OW 6299  11.863   5.905  12.250 -0.1901  0.2018  0.0912
29436SOL    HW1 6300  11.874   5.883  12.342 -0.2145  1.1756  0.3421
29436SOL    HW2 6301  11.851   6.000  12.249 -1.0195  0.1105 -0.8469
29437SOL     OW 6302   6.632  13.212  12.912 -0.0746 -0.6313 -0.0251
29437SOL    HW1 6303   6.605  13.303  12.900  1.1395 -0.2553  0.0382
29437SOL    HW2 6304   6.683  13.213  12.992  0.9070 -1.1546 -0.6309
29438SOL     OW 6305   0.129   6.936   7.926 -0.3517  0.0969 -0.3785
29438SOL    HW1 6306   0.057   6.875   7.942  0.1728 -0.1734  1.1601
29438SOL    HW2 6307   0.175   6.940   8.010 -0.8363  3.2756 -0.1607
29439SOL     OW 6308   2.583  10.387  14.024 -0.0682  0.4181 -0.3649
29439SOL    HW1 6309   2.582  10.319  14.090 -0.3082  1.0039  0.2491
29439SOL    HW2 6310   2.583  10.469  14.074 -1.5105  0.8803 -1.0848
29440SOL     OW 6311   2.104  12.242   8.793  0.1085  0.1728  0.1567
29440SOL    HW1 6312   2.068  12.331   8.784  2.6304  1.2825  0.3702
29440SOL    HW2 6313   2.151  12.243   8.876 -0.0742 -1.4930  0.3197
29441SOL     OW 6314  12.725   0.605   5.277  0.0939 -0.2312 -0.0639
29441SOL    HW1 6315  12.639   0.645   5.285  1.1059  2.0787  0.0345
29441SOL    HW2 6316  12.708   0.511   5.283 -2.2529  0.1863  1.3789
29442SOL     OW 6317   1.916   4.333   5.602  0.0139  0.1583  0.0607
29442SOL    HW1 6318   1.853   4.305   5.668  1.6702 -1.8966  0.8699
29442SOL    HW2 6319   1.954   4.414   5.636 -0.2510 -0.0571  0.8708
29443SOL     OW 6320   1.526   4.347  10.277  0.4185 -0.0504 -0.3547
29443SOL    HW1 6321   1.554   4.404  10.205  0.6473  1.2808  0.7563
29443SOL    HW2 6322   1.431   4.344  10.268  0.5036 -0.5612 -1.1916
29444SOL     OW 6323   1.219  14.010   6.427  0.4775 -0.1430  0.1894
29444SOL    HW1 6324   1.163  13.955   6.373  0.5430  1.7457 -1.9462
29444SOL    HW2 6325   1.290  14.037   6.368  0.8084  1.6574  1.3414
29445SOL     OW 6326   6.459  11.100  10.252 -0.8786  0.0441  0.1156
29445SOL    HW1 6327   6.475  11.024  10.308 -0.2271  1.5179  2.0544
29445SOL    HW2 6328   6.438  11.170  10.313  2.3862  2.4229 -1.1995
29446SOL     OW 6329   6.419  11.097   8.989  0.3850  0.3966 -0.0671
29446SOL    HW1 6330   6.361  11.107   9.065 -0.7659 -1.7493 -0.5842
29446SOL    HW2 6331   6.400  11.173   8.934 -2.8210 -0.6751 -0.6892
29447SOL     OW 6332  10.170   8.450  11.365  0.2458  0.4145 -0.0213
29447SOL    HW1 6333  10.193   8.393  11.439  0.2456  2.4921  1.6631
29447SOL    HW2 6334  10.230   8.523  11.372 -0.1325  0.9244 -1.7888
29448SOL     OW 6335   7.947   8.137   5.172  0.4339 -0.3773  0.3219
29448SOL    HW1 6336   7.903   8.220   5.154  0.5891 -0.6621 -1.6300
29448SOL    HW2 6337   8.031   8.163   5.211  1.1417  0.5177 -1.6490
29449SOL     OW 6338   2.321  11.605   9.932  0.7049  0.4007 -0.1801
29449SOL    HW1 6339   2.270  11.637   9.858  1.4144  0.4727 -0.6447
29449SOL    HW2 6340   2.264  11.541   9.975 -0.6324  2.0217  0.5908
29450SOL     OW 6341   8.878   9.395  11.842  0.2394  0.2076 -0.1530
29450SOL    HW1 6342   8.902   9.485  11.864  1.6505 -0.1110 -0.3269
29450SOL    HW2 6343   8.822   9.404  11.764 -0.5768  0.9932  0.5013
29451SOL     OW 6344   2.476   3.802  10.089 -0.5883 -0.4365 -0.3398
29451SOL    HW1 6345   2.550   3.837  10.138 -1.0323  0.5320 -0.3427
29451SOL    HW2 6346   2.423   3.757  10.155 -0.5593 -0.1948 -0.1520
29452SOL     OW 6347   9.969   2.574   9.907 -0.1445 -0.4044  0.7773
29452SOL    HW1 6348   9.980   2.491   9.862 -1.3509 -0.4607  0.5609
29452SOL    HW2 6349  10.027   2.635   9.861 -0.9106 -0.6004 -0.4831
29453SOL     OW 6350  10.844   2.865  12.160  0.1937 -0.0165 -0.3891
29453SOL    HW1 6351  10.860   2.774  12.186  1.1612 -0.1415 -1.3524
29453SOL    HW2 6352  10.887   2.873  12.075  0.3594  1.4214 -0.1834
29454SOL     OW 6353   3.629   4.215   6.712 -0.0451 -0.3676 -0.4297
29454SOL    HW1 6354   3.637   4.292   6.656 -1.1606 -1.1254 -1.6862
29454SOL    HW2 6355   3.536   4.211   6.734  0.1369 -0.9131  0.2708
29455SOL     OW 6356   0.640   4.130  11.460  0.0746  0.4279  0.1894
29455SOL    HW1 6357   0.566   4.099  11.513  0.2183  1.4336  1.0114
29455SOL    HW2 6358   0.607   4.209  11.417  0.1675 -0.0213 -0.7344
29456SOL     OW 6359   5.910   6.106   0.406  0.5763 -0.7115  0.0803
29456SOL    HW1 6360   5.985   6.164   0.398 -0.5355  0.6282 -1.0273
29456SOL    HW2 6361   5.904   6.086   0.500  2.9885 -1.8410  0.0725
29457SOL     OW 6362   7.896  12.980   6.831 -0.3969 -0.0487 -0.3851
29457SOL    HW1 6363   7.828  13.030   6.877 -1.8525 -0.5950 -1.8641
29457SOL    HW2 6364   7.891  13.011   6.741  0.5472 -0.9348 -0.7471
29458SOL     OW 6365  10.532   5.751   2.960 -0.6755  0.0555  0.0277
29458SOL    HW1 6366  10.609   5.769   3.014  0.2048  0.7492 -1.3929
29458SOL    HW2 6367  10.504   5.663   2.986  1.7883 -1.0452 -0.7884
29459SOL     OW 6368   3.783  13.055   4.466  0.7667  0.7522  0.6971
29459SOL    HW1 6369   3.710  12.993   4.454  1.1646  0.5805 -1.0389
29459SOL    HW2 6370   3.757  13.108   4.542 -1.4888  1.1206 -0.2571
29460SOL     OW 6371   0.341   3.837  12.090  0.1981 -0.1168 -0.6900
29460SOL    HW1 6372   0.288   3.765  12.056  0.7811 -0.1075 -1.6476
29460SOL    HW2 6373   0.281   3.911  12.096 -0.0232 -0.2490 -1.2480
29461SOL     OW 6374   1.879   7.670   6.541  0.2387  0.0223  0.2028
29461SOL    HW1 6375   1.804   7.678   6.599  0.6828  1.5591  0.6203
29461SOL    HW2 6376   1.864   7.737   6.473  0.5578 -0.5961 -0.4954
29462SOL     OW 6377   0.570  10.423  10.502  0.0444 -0.7550 -0.1131
29462SOL    HW1 6378   0.490  10.475  10.512  0.4656 -0.0516 -0.3094
29462SOL    HW2 6379   0.590  10.393  10.591  0.8598  1.0664  0.3748
29463SOL     OW 6380  12.447  11.945   6.010  0.1744 -0.0063 -0.7021
29463SOL    HW1 6381  12.408  11.884   6.073  0.3732 -1.1310 -1.6336
29463SOL    HW2 6382  12.431  12.031   6.048 -1.5953 -0.5308 -0.1588
29464SOL     OW 6383   8.293  13.970   5.440 -0.3922  0.2119 -1.0814
29464SOL    HW1 6384   8.213  13.921   5.461 -1.3323  2.5177  1.2715
29464SOL    HW2 6385   8.355  13.945   5.508 -0.1430  0.5943 -1.1656
29465SOL     OW 6386   1.929   5.374  10.061 -0.4365 -0.5163 -0.2578
29465SOL    HW1 6387   2.011   5.336  10.094 -0.8309 -1.2348 -0.0873
29465SOL    HW2 6388   1.861   5.315  10.093 -1.1175  0.5705  0.3854
29466SOL     OW 6389   9.893  11.490   2.329  0.0561  0.6236 -0.1753
29466SOL    HW1 6390   9.814  11.439   2.342 -0.4438  1.5543  0.5691
29466SOL    HW2 6391   9.911  11.529   2.415  0.9355  0.9601 -0.4990
29467SOL     OW 6392  10.227  10.685  11.322 -0.0155  0.2487 -0.1797
29467SOL    HW1 6393  10.223  10.779  11.342  0.5539  0.1902  0.2341
29467SOL    HW2 6394  10.161  10.672  11.253 -2.6279  0.3269  2.1278
29468SOL     OW 6395  13.418   7.543   9.917 -0.2767  0.1674 -0.3230
29468SOL    HW1 6396  13.358   7.539   9.843 -0.3930  0.9904 -0.2780
29468SOL    HW2 6397  13.488   7.482   9.894 -1.8092 -1.9242  0.2751
29469SOL     OW 6398   2.441   3.922   9.278 -0.0320  0.5253  0.5312
29469SOL    HW1 6399   2.520   3.947   9.326  0.3424  1.1012 -0.3444
29469SOL    HW2 6400   2.387   4.002   9.278  0.9872  1.2916 -1.9382
29470SOL     OW 6401  11.390  10.865   1.157 -0.4716 -0.2815  0.8213
29470SOL    HW1 6402  11.406  10.917   1.236  2.5136 -0.0679  0.2176
29470SOL    HW2 6403  11.368  10.929   1.090  0.7588  0.0053  0.6571
29471SOL     OW 6404   2.093   9.137  11.866  0.5493  0.1027 -0.2204
29471SOL    HW1 6405   2.000   9.149  11.887  0.1835 -1.2032 -0.9401
29471SOL    HW2 6406   2.098   9.154  11.772  0.1902 -3.7061 -1.0896
29472SOL     OW 6407   2.755  11.734  13.210 -0.1931  0.2866 -0.1829
29472SOL    HW1 6408   2.843  11.717  13.176 -0.3818 -0.6919 -0.2129
29472SOL    HW2 6409   2.768  11.753  13.303 -0.0284 -0.7729  0.0214
29473SOL     OW 6410  12.703  12.371  10.169  0.6349 -0.5530  0.1244
29473SOL    HW1 6411  12.688  12.368  10.075  1.3516 -2.7014  0.0210
29473SOL    HW2 6412  12.623  12.334  10.207  0.0777  0.8983  0.4451
29474SOL     OW 6413   6.919   5.582  11.919 -0.7899  0.6155  0.1766
29474SOL    HW1 6414   6.872   5.594  11.836  0.8593  0.8536 -0.7568
29474SOL    HW2 6415   6.946   5.670  11.945 -1.3041  0.5444  0.9976
29475SOL     OW 6416  10.137   3.911  10.634 -0.0341 -0.4755 -0.1074
29475SOL    HW1 6417  10.075   3.969  10.590 -0.2856 -0.2684  0.5008
29475SOL    HW2 6418  10.175   3.966  10.703 -0.3689 -1.0648  0.5542
29476SOL     OW 6419   5.129  10.036  11.119 -0.3618  0.2991  0.0828
29476SOL    HW1 6420   5.056   9.974  11.121  0.4216 -0.7484 -1.4991
29476SOL    HW2 6421   5.160  10.040  11.210  0.0312 -2.2675  0.1411
29477SOL     OW 6422   6.351   4.125  12.369  0.5243 -0.1188  0.0153
29477SOL    HW1 6423   6.359   4.208  12.323 -2.4103 -0.1750 -0.8192
29477SOL    HW2 6424   6.373   4.059  12.304 -1.9500 -0.1213 -0.9203
29478SOL     OW 6425   1.843   2.679   4.030 -0.4204 -0.4683 -0.5197
29478SOL    HW1 6426   1.787   2.744   4.073 -2.1880 -1.4408 -1.2283
29478SOL    HW2 6427   1.898   2.644   4.100  0.3042  1.4655 -0.0505
29479SOL     OW 6428   8.383   5.637  13.546  0.2250  0.0576 -0.6003
29479SOL    HW1 6429   8.337   5.707  13.591 -0.2730 -1.4593  1.3755
29479SOL    HW2 6430   8.317   5.570  13.530  0.9704 -0.5759 -1.1616
29480SOL     OW 6431   8.300   5.472  12.755 -0.0823  0.4204  0.1915
29480SOL    HW1 6432   8.211   5.502  12.770 -0.3817 -0.4900  0.3374
29480SOL    HW2 6433   8.289   5.388  12.710  0.7270  1.2959 -1.7888
29481SOL     OW 6434   7.148  11.637   7.733  0.8621  0.1886 -0.1749
29481SOL    HW1 6435   7.171  11.590   7.813 -2.2677 -1.1971  0.0542
29481SOL    HW2 6436   7.169  11.728   7.752  1.0094 -0.2240  1.9014
29482SOL     OW 6437   4.192   7.760   1.232 -0.2434  0.1313  0.2623
29482SOL    HW1 6438   4.152   7.844   1.255  0.9229  0.4918  1.0489
29482SOL    HW2 6439   4.216   7.722   1.316  0.7742 -0.2131 -0.1778
29483SOL     OW 6440   8.323   3.413   4.206 -0.1216  0.7178 -0.6046
29483SOL    HW1 6441   8.323   3.477   4.135  3.0091 -0.6410 -2.0311
29483SOL    HW2 6442   8.287   3.333   4.166 -1.0886  0.7012  0.2529
29484SOL     OW 6443   9.130   3.840   6.972  0.1439  0.1463 -0.6766
29484SOL    HW1 6444   9.186   3.882   6.906 -0.2470  0.7917 -0.6054
29484SOL    HW2 6445   9.192   3.810   7.039  0.3155  2.5464  0.3475
29485SOL     OW 6446   6.173   4.438   6.245 -0.1116  0.4585 -0.2814
29485SOL    HW1 6447   6.123   4.462   6.167  0.9955  2.0472 -0.5579
29485SOL    HW2 6448   6.214   4.520   6.273  0.3429 -0.2924  1.3707
29486SOL     OW 6449  10.279   0.458   8.066  0.5217 -0.0608  0.2360
29486SOL    HW1 6450  10.274   0.473   7.972 -0.7855 -1.0104  0.1310
29486SOL    HW2 6451  10.212   0.392   8.084  0.2930  0.5766  1.9375
29487SOL     OW 6452  11.699   5.308  14.108  0.1744  0.0608 -0.4665
29487SOL    HW1 6453  11.660   5.247  14.171 -0.6807  0.7798 -0.2837
29487SOL    HW2 6454  11.631   5.322  14.042  0.0960  1.3116 -0.1573
29488SOL     OW 6455   0.857   4.200   0.469  0.1076 -0.4004 -0.6574
29488SOL    HW1 6456   0.807   4.121   0.485 -0.2987 -0.2992 -1.3595
29488SOL    HW2 6457   0.893   4.188   0.381  1.7137 -0.6728 -0.0008
29489SOL     OW 6458  13.892  12.368   0.974 -0.3002 -0.0304 -0.3752
29489SOL    HW1 6459  13.977  12.398   0.940 -0.4424  0.8917  0.0502
29489SOL    HW2 6460  13.906  12.276   0.995  0.6014  0.1126 -0.2996
29490SOL     OW 6461  11.409   5.534  12.040 -0.3329  0.0585 -0.0610
29490SOL    HW1 6462  11.334   5.541  12.100  0.3592 -0.5321  0.9062
29490SOL    HW2 6463  11.402   5.446  12.004 -0.1312  0.0276 -0.0199
29491SOL     OW 6464  11.561   2.850  10.338  0.6473 -0.3373 -0.1249
29491SOL    HW1 6465  11.614   2.926  10.360 -1.1364  0.9892 -0.1224
29491SOL    HW2 6466  11.548   2.856  10.243  0.1740 -0.4093 -0.0683
29492SOL     OW 6467   4.389   1.288   9.668  0.6965  0.4173 -0.1600
29492SOL    HW1 6468   4.402   1.255   9.580 -0.8389 -2.0473  0.4172
29492SOL    HW2 6469   4.294   1.279   9.683  0.7894  1.6029  1.4388
29493SOL     OW 6470   5.075   7.518   7.516 -0.4296 -0.5337  0.3572
29493SOL    HW1 6471   5.028   7.438   7.541  0.1565 -1.3941 -1.1615
29493SOL    HW2 6472   5.165   7.488   7.501 -0.2535  0.3728 -0.4437
29494SOL     OW 6473  10.120   6.615   0.137 -0.3128  0.5166  0.2982
29494SOL    HW1 6474  10.082   6.647   0.219  0.4188  1.2134  0.3761
29494SOL    HW2 6475  10.047   6.615   0.075 -0.6991  0.7182  0.7455
29495SOL     OW 6476  10.869   1.178  13.860  0.0726  0.0085 -0.3284
29495SOL    HW1 6477  10.862   1.118  13.934 -0.5284 -1.1618 -1.3009
29495SOL    HW2 6478  10.930   1.135  13.800  0.3205  0.8005 -0.6603
29496SOL     OW 6479   7.156   9.388   9.337 -0.6015  0.3028  0.2715
29496SOL    HW1 6480   7.229   9.416   9.282 -0.5304  1.6339  0.9850
29496SOL    HW2 6481   7.197   9.339   9.408 -0.5900 -0.4551 -0.2432
29497SOL     OW 6482   5.695   0.479   8.320 -0.0929  0.4816  0.3950
29497SOL    HW1 6483   5.646   0.399   8.339  0.6918  0.2183  1.3816
29497SOL    HW2 6484   5.630   0.539   8.285 -1.0672  0.0527  1.4306
29498SOL     OW 6485  13.259   5.892   9.283 -0.2378 -0.1781  0.0828
29498SOL    HW1 6486  13.222   5.828   9.344 -1.1125  0.7332  0.5136
29498SOL    HW2 6487  13.232   5.860   9.196  1.4640 -1.7824  0.0609
29499SOL     OW 6488   9.616   3.074   0.704 -0.0529  0.2470  0.5975
29499SOL    HW1 6489   9.653   3.008   0.646  0.6460  0.3588  0.9151
29499SOL    HW2 6490   9.531   3.038   0.730 -0.1450 -0.0323 -0.0827
29500SOL     OW 6491   3.067  13.125   7.262  0.0257 -0.0491 -0.4088
29500SOL    HW1 6492   3.125  13.201   7.264 -0.2993  0.2348  2.4932
29500SOL    HW2 6493   3.110  13.061   7.318  0.2747 -2.1040 -2.7781
29501SOL     OW 6494   3.431   0.707   2.730  0.5115 -0.2587  1.0355
29501SOL    HW1 6495   3.457   0.798   2.718  0.6060 -0.3830  0.2274
29501SOL    HW2 6496   3.352   0.697   2.677  1.5293 -1.1027 -0.4097
29502SOL     OW 6497   3.900   2.383  10.986 -0.4293 -0.2450  0.0265
29502SOL    HW1 6498   3.848   2.390  11.066 -0.1191 -0.1647  0.2225
29502SOL    HW2 6499   3.862   2.309  10.939 -0.5415 -0.3657  0.3038
29503SOL     OW 6500  14.128   5.370   9.102  0.5567  0.7101 -0.0807
29503SOL    HW1 6501  14.056   5.373   9.039 -0.4490  0.3905  1.0081
29503SOL    HW2 6502  14.159   5.280   9.098  0.4892  0.6879 -0.1155
29504SOL     OW 6503  11.305   8.684   1.247  0.2108  0.9533  0.4134
29504SOL    HW1 6504  11.232   8.653   1.301  1.6358  0.4253  2.0907
29504SOL    HW2 6505  11.378   8.694   1.307  2.0722 -0.3100 -1.5062
29505SOL     OW 6506  10.424  13.840  10.276  0.0451  0.5584 -0.0909
29505SOL    HW1 6507  10.498  13.815  10.222  0.1953 -1.7302  1.0472
29505SOL    HW2 6508  10.348  13.831  10.219  0.4499  0.9263 -0.6928
29506SOL     OW 6509   7.924   8.009  10.614 -0.8065  0.4005 -0.8438
29506SOL    HW1 6510   7.892   7.978  10.699  0.4884 -2.2675 -1.2344
29506SOL    HW2 6511   7.882   8.094  10.603 -1.9003  0.3407  1.9443
29507SOL     OW 6512  13.899   2.942   7.242 -0.2231  0.0556  0.0156
29507SOL    HW1 6513  13.927   2.998   7.169  2.5832 -1.0413  0.1525
29507SOL    HW2 6514  13.835   2.882   7.202 -0.9111  1.2967 -0.8301
29508SOL     OW 6515  11.574   5.595  10.298  0.0378  0.1139  0.9167
29508SOL    HW1 6516  11.572   5.504  10.329 -0.2534  0.2852  1.4008
29508SOL    HW2 6517  11.488   5.630  10.319 -1.0333 -0.4083 -2.0993
29509SOL     OW 6518   9.535   4.722   8.455 -0.5192 -0.2389 -0.3268
29509SOL    HW1 6519   9.504   4.633   8.441  0.4108 -0.7371  0.6694
29509SOL    HW2 6520   9.580   4.745   8.373 -1.4008 -0.3887 -0.8685
29510SOL     OW 6521   7.020   0.913  11.337  0.4206 -0.1107  0.1864
29510SOL    HW1 6522   7.057   0.868  11.413  0.0545  1.4835  1.3674
29510SOL    HW2 6523   7.094   0.926  11.279  0.6215 -1.7623  0.0236
29511SOL     OW 6524   3.031   6.149   5.686 -0.3242  0.7494  0.0833
29511SOL    HW1 6525   3.101   6.149   5.620  0.2389  0.2441  0.6726
29511SOL    HW2 6526   2.975   6.222   5.661  0.1489  0.8590 -0.6811
29512SOL     OW 6527  12.496  13.987   4.087  0.5117  0.1573  0.0458
29512SOL    HW1 6528  12.540  13.976   4.003  0.8012  0.2900  0.1758
29512SOL    HW2 6529  12.548  14.053   4.133  1.8658 -1.6773  1.3234
29513SOL     OW 6530   9.164   7.256   9.108 -0.4482  0.3396 -0.0874
29513SOL    HW1 6531   9.206   7.246   9.194 -0.6928  0.8817  0.0956
29513SOL    HW2 6532   9.107   7.332   9.118 -1.3658 -0.3038 -0.3862
29514SOL     OW 6533   5.302   6.352  11.973 -0.0815 -0.0592 -0.5400
29514SOL    HW1 6534   5.326   6.350  11.880 -1.9945 -1.8269 -1.0751
29514SOL    HW2 6535   5.301   6.260  12.000 -0.1555  0.3836  1.0808
29515SOL     OW 6536  11.096   2.608   0.756  0.2029 -0.3175 -0.0881
29515SOL    HW1 6537  11.073   2.699   0.738  0.0504 -0.4413 -0.5533
29515SOL    HW2 6538  11.174   2.592   0.703  0.5535 -0.3007  0.4189
29516SOL     OW 6539   4.176   7.888   9.493 -0.4725  0.0072 -0.2604
29516SOL    HW1 6540   4.202   7.803   9.527 -0.8175 -0.0404 -0.1108
29516SOL    HW2 6541   4.082   7.881   9.479 -0.7566  0.8015  1.0832
29517SOL     OW 6542   7.552   3.376  11.185 -0.1119  0.5693 -0.2443
29517SOL    HW1 6543   7.527   3.351  11.096 -0.0982 -0.8471  0.1294
29517SOL    HW2 6544   7.647   3.362  11.189  0.0284  1.4372 -0.2434
29518SOL     OW 6545   3.968   7.039   6.707  0.0042  0.1851 -0.2084
29518SOL    HW1 6546   3.917   7.036   6.626 -1.1804 -0.1775  0.5392
29518SOL    HW2 6547   3.980   6.947   6.731 -0.2309  0.3061  0.3856
29519SOL     OW 6548   0.353   8.758  10.322  0.4791 -0.3321  0.2156
29519SOL    HW1 6549   0.299   8.716  10.255 -0.7229 -1.2070  1.6659
29519SOL    HW2 6550   0.308   8.841  10.341  1.0197  0.0855 -0.3036
29520SOL     OW 6551   1.879   1.596   9.823  0.2728  0.5893 -0.1538
29520SOL    HW1 6552   1.964   1.636   9.804  0.9986 -0.1230  1.4114
29520SOL    HW2 6553   1.887   1.507   9.788  1.0455 -0.2162  1.9227
29521SOL     OW 6554  11.968   3.400   2.647 -0.4113  0.9401 -0.1029
29521SOL    HW1 6555  11.924   3.481   2.622 -1.2219  0.7739  0.7331
29521SOL    HW2 6556  11.904   3.353   2.702 -0.2228 -0.5735 -1.1091
29522SOL     OW 6557  11.671   8.714   6.886 -0.2019 -0.5227 -0.5683
29522SOL    HW1 6558  11.707   8.798   6.857  0.1217 -0.1303  0.8606
29522SOL    HW2 6559  11.746   8.668   6.924 -0.4198 -1.3768 -1.1621
29523SOL     OW 6560   9.603   8.089  13.493 -0.7150 -0.0659 -0.4584
29523SOL    HW1 6561   9.632   8.010  13.447 -1.2815  0.9098 -2.6031
29523SOL    HW2 6562   9.684   8.136  13.512 -0.5234  0.0516 -1.5108
29524SOL     OW 6563   8.691  10.556  10.745  0.3826 -0.2938 -0.1256
29524SOL    HW1 6564   8.690  10.651  10.752 -0.1137 -0.3842  1.4084
29524SOL    HW2 6565   8.602  10.534  10.717  0.2978 -0.3352  0.1712
29525SOL     OW 6566  10.608   3.302   0.724 -0.4451  0.7527 -0.3089
29525SOL    HW1 6567  10.580   3.214   0.751 -0.6140  0.5753 -1.0359
29525SOL    HW2 6568  10.630   3.292   0.631  1.0297  1.1216 -0.0300
29526SOL     OW 6569   5.084   3.477   6.837 -0.3279 -0.1048  0.2828
29526SOL    HW1 6570   5.130   3.402   6.876  0.1574 -0.4350 -0.8827
29526SOL    HW2 6571   5.101   3.469   6.743  0.2581  1.8091  0.1858
29527SOL     OW 6572   8.264   0.866   0.652 -0.8258  0.1166 -0.2338
29527SOL    HW1 6573   8.216   0.824   0.723  0.4397 -0.2541  0.4343
29527SOL    HW2 6574   8.356   0.853   0.674 -0.3008  3.4936  0.2177
29528SOL     OW 6575   8.443   2.169   1.328 -0.4755 -0.1899 -0.2859
29528SOL    HW1 6576   8.347   2.169   1.323 -0.6079 -2.5503  0.8566
29528SOL    HW2 6577   8.470   2.097   1.271  0.8232  1.7666 -2.2960
29529SOL     OW 6578   7.587  12.572   8.197 -0.4642 -0.2592  0.3294
29529SOL    HW1 6579   7.648  12.570   8.270 -0.0215  2.7812  0.2040
29529SOL    HW2 6580   7.501  12.556   8.236 -0.0184 -0.5582  1.2002
29530SOL     OW 6581  11.679   6.559   1.349 -0.2297 -0.2935 -0.3122
29530SOL    HW1 6582  11.773   6.566   1.364  0.0383  1.4888 -2.3572
29530SOL    HW2 6583  11.639   6.590   1.431  0.9409 -1.0149  0.5549
29531SOL     OW 6584   5.192   0.163   3.485 -0.4164  0.6605 -0.6781
29531SOL    HW1 6585   5.274   0.177   3.438  0.1057 -0.4607 -0.1318
29531SOL    HW2 6586   5.205   0.081   3.532 -2.5399 -0.6406 -2.1509
29532SOL     OW 6587   6.961   8.410  13.279  0.1196  0.3130 -0.5921
29532SOL    HW1 6588   6.962   8.421  13.374  0.7952 -1.7475 -0.3025
29532SOL    HW2 6589   6.887   8.463  13.249 -0.0915  1.0165  1.0740
29533SOL     OW 6590   9.500   8.735   7.127 -0.1501 -0.1514 -0.1801
29533SOL    HW1 6591   9.412   8.759   7.101 -0.0201 -1.2075 -1.7506
29533SOL    HW2 6592   9.492   8.643   7.155  0.4513 -0.2616 -0.3607
29534SOL     OW 6593   4.157  13.696  13.989 -0.1440 -0.1660  0.3576
29534SOL    HW1 6594   4.215  13.771  13.976 -1.1262  0.3381 -1.5512
29534SOL    HW2 6595   4.201  13.624  13.944 -0.5797  0.0273 -0.4080
29535SOL     OW 6596  11.188   0.828   0.473 -0.0124 -0.5377 -0.4087
29535SOL    HW1 6597  11.225   0.914   0.453  1.5346 -0.9496  0.4928
29535SOL    HW2 6598  11.235   0.767   0.416 -0.7042 -0.8556 -0.6478
29536SOL     OW 6599   1.064  10.749   5.498  0.1308 -0.0686  0.6616
29536SOL    HW1 6600   1.019  10.697   5.565  0.9265 -0.1332  1.1595
29536SOL    HW2 6601   1.114  10.684   5.448  0.4200  0.1019  0.7223
29537SOL     OW 6602  12.209   6.048   4.966  0.1368  0.0905 -0.4232
29537SOL    HW1 6603  12.275   6.115   4.981  0.5254 -0.7166  1.7615
29537SOL    HW2 6604  12.127   6.097   4.957  0.0727  0.9090  3.0711
29538SOL     OW 6605   6.449   6.343   2.832 -0.1061 -0.3739 -0.3069
29538SOL    HW1 6606   6.416   6.304   2.913  0.7793  0.1452  0.3231
29538SOL    HW2 6607   6.433   6.437   2.842  2.5201  0.0514  0.5348
29539SOL     OW 6608  13.949  13.377   0.384 -0.0134 -0.3198  0.1318
29539SOL    HW1 6609  14.021  13.406   0.329  0.8003  0.1845  1.4042
29539SOL    HW2 6610  13.921  13.293   0.346 -0.4326  0.6606 -1.8363
29540SOL     OW 6611   3.190  12.810   4.519  0.3060 -0.5928 -0.4055
29540SOL    HW1 6612   3.284  12.800   4.501  1.0964 -0.4242  2.9607
29540SOL    HW2 6613   3.166  12.893   4.478  1.6576 -0.5621 -1.1897
29541SOL     OW 6614  13.936   6.656   3.190 -0.4977  0.1550  0.3087
29541SOL    HW1 6615  13.999   6.594   3.156 -2.1701 -0.5873 -1.6804
29541SOL    HW2 6616  13.972   6.742   3.169  0.9220 -0.1550  1.3584
29542SOL     OW 6617   6.423   1.554  13.099 -0.1511 -0.3710  0.2067
29542SOL    HW1 6618   6.516   1.531  13.101  0.0651  0.4437 -0.0501
29542SOL    HW2 6619   6.399   1.562  13.191  0.6230  1.6331  0.2883
29543SOL     OW 6620  12.798  11.328   5.150  0.3012 -0.6926  0.7077
29543SOL    HW1 6621  12.735  11.400   5.152 -0.2836 -1.1670  0.0705
29543SOL    HW2 6622  12.808  11.302   5.241  0.3357  0.0368  0.9174
29544SOL     OW 6623   2.868   8.885   8.779  0.7153  0.4605  0.4811
29544SOL    HW1 6624   2.825   8.820   8.724  1.3771  0.4032  0.0201
29544SOL    HW2 6625   2.866   8.848   8.867 -1.6363  1.1886  0.7839
29545SOL     OW 6626   7.329   8.195   4.105 -0.2294 -0.0392 -0.0484
29545SOL    HW1 6627   7.403   8.166   4.052  0.1781  0.3223  0.3252
29545SOL    HW2 6628   7.327   8.290   4.093 -0.5728 -0.0345  0.0274
29546SOL     OW 6629   0.567   1.028   2.934  0.0763 -0.1972  0.1133
29546SOL    HW1 6630   0.516   0.960   2.890 -1.8068  0.9748  0.3406
29546SOL    HW2 6631   0.591   1.089   2.864 -0.1674  0.0220  0.2155
29547SOL     OW 6632   9.343   0.557   3.401 -0.2781 -0.1481 -0.1025
29547SOL    HW1 6633   9.408   0.514   3.345  0.6790  0.8706  0.1864
29547SOL    HW2 6634   9.394   0.621   3.451 -1.3006 -0.2344  1.0888
29548SOL     OW 6635   9.425   1.169   2.612  0.3734  0.2294  0.4137
29548SOL    HW1 6636   9.350   1.131   2.566  1.5834 -0.0526 -1.4516
29548SOL    HW2 6637   9.424   1.127   2.698 -2.3506  1.2316  0.9707
29549SOL     OW 6638   7.830   9.600  13.933  0.0747  0.4167 -0.1576
29549SOL    HW1 6639   7.837   9.696  13.926  2.5664  0.2491 -1.0590
29549SOL    HW2 6640   7.743   9.580  13.900 -0.7803  2.4184  0.7128
29550SOL     OW 6641   7.592   5.221   8.418  0.1084 -0.2055  0.0215
29550SOL    HW1 6642   7.542   5.178   8.488  0.1684 -0.6697 -0.2192
29550SOL    HW2 6643   7.684   5.204   8.441  0.2275  1.5789  1.0710
29551SOL     OW 6644   4.694  11.301   7.780 -0.1384 -0.7660 -0.0040
29551SOL    HW1 6645   4.647  11.346   7.850 -0.3167 -0.8629 -0.0583
29551SOL    HW2 6646   4.625  11.252   7.733 -0.2236  0.2776 -1.0078
29552SOL     OW 6647  10.081  11.726   5.587 -0.0515 -0.0813 -0.2547
29552SOL    HW1 6648  10.029  11.796   5.547 -0.5596 -0.0676  0.4117
29552SOL    HW2 6649  10.107  11.761   5.673  1.9183  0.3091 -0.9576
29553SOL     OW 6650  12.839   7.926   0.663 -0.0466  0.5738 -0.0713
29553SOL    HW1 6651  12.873   7.918   0.574 -2.0956  0.4012 -0.8837
29553SOL    HW2 6652  12.886   8.001   0.700 -0.0780  1.4686 -1.7488
29554SOL     OW 6653   5.556   1.236  10.939  0.0911 -0.5368 -0.1338
29554SOL    HW1 6654   5.461   1.243  10.949  0.1620 -0.0294  0.2140
29554SOL    HW2 6655   5.579   1.304  10.876  0.2716 -0.4103  0.0693
29555SOL     OW 6656   7.375   1.758   1.702 -0.1316 -0.0170  0.5459
29555SOL    HW1 6657   7.415   1.823   1.644  2.1192 -0.9212  0.9826
29555SOL    HW2 6658   7.323   1.703   1.644  0.8660  0.0139 -0.4193
29556SOL     OW 6659  10.297   6.736  13.800  0.1443  0.4850 -0.0311
29556SOL    HW1 6660  10.336   6.648  13.804  2.6701  1.4574 -1.2888
29556SOL    HW2 6661  10.256   6.748  13.886 -1.2684 -2.2984 -0.1881
29557SOL     OW 6662   0.241   6.078   6.086 -0.2397 -0.0576 -0.2630
29557SOL    HW1 6663   0.247   5.996   6.134  0.7693 -0.1132 -0.4682
29557SOL    HW2 6664   0.147   6.099   6.086 -0.7286 -1.9681 -1.4840
29558SOL     OW 6665   5.144  10.683   9.079  0.1681  0.1033 -0.1300
29558SOL    HW1 6666   5.091  10.603   9.074  0.5039 -0.4945  3.3988
29558SOL    HW2 6667   5.080  10.754   9.086 -0.1183  0.0791 -2.0453
29559SOL     OW 6668   9.856   1.064   5.295 -0.3800  0.0238 -0.0269
29559SOL    HW1 6669   9.808   1.080   5.376  0.2393  0.0922  0.3407
29559SOL    HW2 6670   9.930   1.125   5.299 -0.1274 -0.2491 -0.4520
29560SOL     OW 6671   8.081   8.224   8.286  0.1609  0.0326 -0.2426
29560SOL    HW1 6672   8.094   8.305   8.335 -3.0951  0.1134  0.7126
29560SOL    HW2 6673   7.995   8.233   8.245 -0.3797 -2.9433 -0.0495
29561SOL     OW 6674  11.697   2.820   9.282  0.3206  0.1190  0.0340
29561SOL    HW1 6675  11.737   2.907   9.277  0.5739 -0.0501 -1.2263
29561SOL    HW2 6676  11.668   2.802   9.192  1.6896 -1.7409 -0.0968
29562SOL     OW 6677  10.011  13.674   1.163  0.3560  0.1386  0.0615
29562SOL    HW1 6678  10.029  13.761   1.129  1.0328 -0.0615 -0.0986
29562SOL    HW2 6679   9.946  13.688   1.232  1.4967  0.9166  0.9982
29563SOL     OW 6680   7.425   4.270   4.468  1.2299 -0.0341 -0.0831
29563SOL    HW1 6681   7.365   4.197   4.484 -0.1222  1.0494 -0.0474
29563SOL    HW2 6682   7.479   4.275   4.546  0.6601 -0.3804  0.3376
29564SOL     OW 6683   6.270   2.784  12.805  0.5265  0.5901 -0.1843
29564SOL    HW1 6684   6.247   2.872  12.774  0.6013 -0.0038 -2.0483
29564SOL    HW2 6685   6.190   2.751  12.845  0.5011  1.4945  0.5430
29565SOL     OW 6686   6.840   9.246  11.286 -0.4515  0.0289  0.1886
29565SOL    HW1 6687   6.895   9.180  11.243 -1.5449 -0.3368 -0.6787
29565SOL    HW2 6688   6.762   9.199  11.313 -2.4197  1.3500 -2.6531
29566SOL     OW 6689   0.395  13.958   8.933  0.4547  0.3973  0.4626
29566SOL    HW1 6690   0.320  14.016   8.935 -0.0444 -0.1488 -0.8677
29566SOL    HW2 6691   0.435  13.974   8.847  0.8869 -0.5009  0.4824
29567SOL     OW 6692  13.867   2.198   3.453  0.0256  0.3981  0.4285
29567SOL    HW1 6693  13.887   2.118   3.404  0.3336  0.2163  0.8390
29567SOL    HW2 6694  13.840   2.261   3.387 -3.4245 -0.9574  0.3030
29568SOL     OW 6695   7.700   5.094   1.494  0.1690 -0.1371  0.2988
29568SOL    HW1 6696   7.664   5.181   1.477  0.7595  0.0025 -0.2939
29568SOL    HW2 6697   7.625   5.041   1.520  0.1306  1.0727  2.8375
29569SOL     OW 6698   1.379   3.005   4.820  0.7373  0.7710  0.6695
29569SOL    HW1 6699   1.431   2.925   4.832  2.0871  1.2844 -1.2726
29569SOL    HW2 6700   1.293   2.973   4.790  0.8805  0.0157  1.0309
29570SOL     OW 6701   9.463   6.476   3.314 -0.3506  0.1088 -0.0520
29570SOL    HW1 6702   9.456   6.464   3.409  0.9643 -1.9563 -0.1444
29570SOL    HW2 6703   9.552   6.510   3.301 -0.1568 -0.5844 -0.5863
29571SOL     OW 6704  12.899   8.753   5.327 -0.6575  0.3421  0.1887
29571SOL    HW1 6705  12.946   8.713   5.400 -1.1168 -1.9387 -0.6982
29571SOL    HW2 6706  12.963   8.812   5.286  0.3862 -0.2556  0.9262
29572SOL     OW 6707   7.534  13.581   1.115  0.3929  0.2906  0.0064
29572SOL    HW1 6708   7.588  13.508   1.084  0.3048  0.9272 -1.7814
29572SOL    HW2 6709   7.564  13.597   1.205  2.2398 -0.2447 -0.4736
29573SOL     OW 6710   2.042   2.977  12.835  0.2877 -0.3776  0.4257
29573SOL    HW1 6711   1.958   3.021  12.827  0.2409 -0.6289 -0.5932
29573SOL    HW2 6712   2.104   3.037  12.793  0.3570 -0.8906 -0.2243
29574SOL     OW 6713  12.731   2.073  10.967  0.6475  0.2255  0.3128
29574SOL    HW1 6714  12.659   2.051  10.908  0.3369  0.5929  0.5577
29574SOL    HW2 6715  12.795   2.004  10.952  2.2597  2.1825 -3.2244
29575SOL     OW 6716  12.567   5.432   5.422 -0.3821  0.4849  0.1856
29575SOL    HW1 6717  12.492   5.408   5.476 -0.5419 -0.7754 -0.5759
29575SOL    HW2 6718  12.644   5.412   5.476 -0.5685  1.5542  0.8730
29576SOL     OW 6719   6.278   4.623   8.019  0.3346 -0.2800 -0.0201
29576SOL    HW1 6720   6.271   4.613   7.924 -0.2239 -1.6174  0.1362
29576SOL    HW2 6721   6.232   4.705   8.038  0.0019 -0.2647 -0.8516
29577SOL     OW 6722   4.354  13.898  11.287 -0.3867 -0.1334  0.2769
29577SOL    HW1 6723   4.405  13.821  11.311 -1.0298 -0.6433  0.0333
29577SOL    HW2 6724   4.265  13.877  11.315 -1.0164 -0.4327 -1.8111
29578SOL     OW 6725  10.413   1.404   7.297 -0.2241 -0.2740  0.2950
29578SOL    HW1 6726  10.378   1.490   7.271  1.6042  0.3141 -0.3494
29578SOL    HW2 6727  10.441   1.364   7.216  0.0237 -0.9951  0.7331
29579SOL     OW 6728   0.417   6.350  12.752  0.1066 -0.0815 -0.0731
29579SOL    HW1 6729   0.367   6.428  12.727  1.4422  0.5342 -0.9346
29579SOL    HW2 6730   0.351   6.289  12.785 -0.8541  1.7283  1.4910
29580SOL     OW 6731   7.662   4.943  12.215 -0.1292  0.1391 -0.4767
29580SOL    HW1 6732   7.705   4.860  12.193  2.5955  0.9621  1.1949
29580SOL    HW2 6733   7.634   4.931  12.306  1.6264  1.4622  0.2922
29581SOL     OW 6734   1.641   0.891  10.864 -0.1673 -0.0050  0.7420
29581SOL    HW1 6735   1.658   0.836  10.787  1.7885 -0.5764  1.5223
29581SOL    HW2 6736   1.668   0.979  10.836 -1.0795  0.1227  0.2417
29582SOL     OW 6737   4.986   9.267   8.702  0.3942  0.5143 -0.5851
29582SOL    HW1 6738   5.034   9.325   8.643  0.5917  0.6695 -0.2772
29582SOL    HW2 6739   5.005   9.301   8.789 -0.2523  0.5592 -0.4573
29583SOL     OW 6740   3.634   0.429  10.004  0.2326 -0.5952 -0.0612
29583SOL    HW1 6741   3.576   0.375  10.058 -0.3507 -0.0752 -0.1577
29583SOL    HW2 6742   3.662   0.500  10.062 -0.4143 -0.0222 -0.4442
29584SOL     OW 6743   6.298   3.211  10.877 -0.3399 -0.0561 -0.0656
29584SOL    HW1 6744   6.299   3.240  10.968  1.0247 -1.5301  0.4306
29584SOL    HW2 6745   6.360   3.138  10.874 -1.0725 -0.6679 -1.9741
29585SOL     OW 6746  14.119   7.786  13.037  0.0730  0.2257 -0.3863
29585SOL    HW1 6747  14.076   7.701  13.049  0.3908 -0.0437 -1.0853
29585SOL    HW2 6748  14.086   7.840  13.108 -0.1031 -0.4981  0.0914
29586SOL     OW 6749  13.525   1.476  12.706 -0.2946 -0.5677 -0.0317
29586SOL    HW1 6750  13.488   1.460  12.619  0.8183  0.8185 -0.8044
29586SOL    HW2 6751  13.457   1.448  12.767 -2.1129  0.7417 -1.3708
29587SOL     OW 6752   2.054   9.039   2.869  0.0904 -0.6255 -0.4562
29587SOL    HW1 6753   2.091   9.044   2.957  0.6659 -0.3122 -0.7082
29587SOL    HW2 6754   2.126   9.067   2.812 -0.7865  0.7993 -0.9049
29588SOL     OW 6755   1.838  11.551   4.685  0.0142 -0.4652  0.1252
29588SOL    HW1 6756   1.766  11.605   4.718 -0.1385 -0.3514 -0.3965
29588SOL    HW2 6757   1.875  11.510   4.764 -0.3214 -0.1596  0.4442
29589SOL     OW 6758   7.036   1.401  13.729 -0.1593 -0.0771  0.4371
29589SOL    HW1 6759   7.056   1.494  13.715  0.8028 -0.3344  0.0156
29589SOL    HW2 6760   7.120   1.356  13.716 -0.5531 -0.9796  0.9177
29590SOL     OW 6761   5.202   9.908   7.501 -0.1757 -0.1263  0.1640
29590SOL    HW1 6762   5.153   9.953   7.433 -0.1991 -0.6804 -0.1955
29590SOL    HW2 6763   5.239   9.831   7.458  0.3017 -0.1719  0.6364
29591SOL     OW 6764   1.530  11.087  10.589 -0.5210 -0.5902 -0.2357
29591SOL    HW1 6765   1.537  11.172  10.546 -1.0883 -1.3608 -1.9383
29591SOL    HW2 6766   1.575  11.026  10.531  3.2393 -0.9897  2.7207
29592SOL     OW 6767   7.757   8.864  12.384  0.6031  0.2932 -0.5053
29592SOL    HW1 6768   7.689   8.857  12.317 -0.0297 -2.3446  0.3179
29592SOL    HW2 6769   7.712   8.849  12.467  1.7003  1.6620  0.3878
29593SOL     OW 6770   5.399  11.789   9.270 -0.0308 -0.0036 -0.0684
29593SOL    HW1 6771   5.381  11.851   9.199 -1.3186  0.3490  0.5358
29593SOL    HW2 6772   5.489  11.808   9.296 -0.4390  1.6919  0.1781
29594SOL     OW 6773   4.027  10.528   2.368 -0.2566 -0.1760  0.1178
29594SOL    HW1 6774   4.101  10.526   2.429 -1.7118  0.8665  2.0453
29594SOL    HW2 6775   4.039  10.609   2.317  1.8130 -1.8302 -2.2427
29595SOL     OW 6776   8.293   7.542   7.228  0.1576 -0.3465 -0.4148
29595SOL    HW1 6777   8.371   7.547   7.173 -0.0722  0.0668 -0.7091
29595SOL    HW2 6778   8.295   7.623   7.280 -1.3885  0.9477 -2.2256
29596SOL     OW 6779  10.372  13.793   0.729 -0.4978  0.0338  0.4731
29596SOL    HW1 6780  10.331  13.713   0.760  0.9153 -1.5634 -1.5111
29596SOL    HW2 6781  10.457  13.797   0.774  0.7409 -1.2918 -1.5662
29597SOL     OW 6782   5.483  11.560   1.642 -0.2186 -0.5052  0.0923
29597SOL    HW1 6783   5.402  11.570   1.692 -1.7104 -2.1120 -1.7956
29597SOL    HW2 6784   5.543  11.515   1.702 -1.4578 -1.1456  0.9084
29598SOL     OW 6785   9.217  11.969   4.775 -0.1335 -0.3629  0.3206
29598SOL    HW1 6786   9.218  11.985   4.869  0.5280  0.4901  0.1852
29598SOL    HW2 6787   9.220  11.874   4.766  0.1333 -0.4377  1.1671
29599SOL     OW 6788   7.496  11.414  10.549 -0.1948 -0.8142 -0.1242
29599SOL    HW1 6789   7.511  11.443  10.639  0.5495 -1.0028 -0.1815
29599SOL    HW2 6790   7.403  11.431  10.534  0.2190  1.6873 -0.2204
29600SOL     OW 6791   2.552   7.741   1.186  0.0011  0.1715  0.1709
29600SOL    HW1 6792   2.620   7.717   1.249  1.0353  2.0631 -0.1626
29600SOL    HW2 6793   2.478   7.768   1.239  0.0936 -0.2987  0.5491
29601SOL     OW 6794   3.885   5.940  11.517 -0.4986 -0.4886 -0.5908
29601SOL    HW1 6795   3.872   6.035  11.519  0.3989 -0.3520 -0.7882
29601SOL    HW2 6796   3.942   5.925  11.441  0.7558 -1.0011  0.4248
29602SOL     OW 6797  11.613   0.092   5.979  0.1550 -0.2652 -0.2354
29602SOL    HW1 6798  11.666   0.023   5.940 -1.0419 -0.2203 -2.0605
29602SOL    HW2 6799  11.542   0.045   6.024 -1.0741 -0.2759 -2.0936
29603SOL     OW 6800   2.131   1.913   4.601 -0.3094  0.8868  0.0300
29603SOL    HW1 6801   2.062   1.903   4.535 -0.3515  2.1618 -0.1405
29603SOL    HW2 6802   2.197   1.848   4.576 -1.1116  0.1504 -0.2299
29604SOL     OW 6803   2.828   5.694  13.497  0.0992 -0.6147 -0.0766
29604SOL    HW1 6804   2.816   5.667  13.406 -0.8557  0.5109 -0.3137
29604SOL    HW2 6805   2.774   5.772  13.505 -0.6187 -1.2541  1.7307
29605SOL     OW 6806  10.334   5.039   6.766  0.5799 -0.0023  0.3962
29605SOL    HW1 6807  10.300   5.093   6.694  1.5634  0.3693  0.1952
29605SOL    HW2 6808  10.426   5.063   6.772  0.3099  0.7182  2.4643
29606SOL     OW 6809   0.492   6.130   1.216  0.1970  0.1329 -0.6936
29606SOL    HW1 6810   0.461   6.181   1.290  0.7262  1.6088 -1.4360
29606SOL    HW2 6811   0.426   6.061   1.204  0.2513 -0.3159  1.2808
29607SOL     OW 6812   6.028   9.760   8.394  0.1565  0.3945  0.2068
29607SOL    HW1 6813   6.015   9.827   8.460 -0.8516  0.1562  0.2584
29607SOL    HW2 6814   6.072   9.805   8.322  2.8783  0.3012  1.6608
29608SOL     OW 6815   3.932   8.208   8.494 -0.1265 -0.4787  0.6321
29608SOL    HW1 6816   3.966   8.156   8.422 -0.8874  0.6156 -0.5543
29608SOL    HW2 6817   3.965   8.164   8.573  2.7793 -0.3232 -0.3850
29609SOL     OW 6818   9.954   8.745   2.158  0.1691  1.0290 -0.2455
29609SOL    HW1 6819   9.871   8.729   2.115 -0.4216  2.7995  0.1539
29609SOL    HW2 6820   9.937   8.731   2.251  0.6177  0.3214 -0.2605
29610SOL     OW 6821   8.226   6.734  13.235  0.2815 -0.5251 -0.5460
29610SOL    HW1 6822   8.235   6.811  13.178 -1.2669 -0.4480 -0.7279
29610SOL    HW2 6823   8.171   6.764  13.307  0.2000 -1.2899 -0.2844
29611SOL     OW 6824  12.470  10.654   3.001 -0.2296  0.1826  0.5351
29611SOL    HW1 6825  12.487  10.693   3.087  1.2812  0.0478  0.3255
29611SOL    HW2 6826  12.382  10.616   3.009  0.3038 -0.7945  2.3805
29612SOL     OW 6827   1.659  14.023   5.310  0.8487 -0.3347 -0.3610
29612SOL    HW1 6828   1.598  13.989   5.244 -2.2523  2.4670  0.7578
29612SOL    HW2 6829   1.667  14.116   5.289  2.1156  0.0373  1.5334
29613SOL     OW 6830   6.930   4.393   6.307  0.3799  0.3556 -0.3174
29613SOL    HW1 6831   6.858   4.446   6.340 -1.2543 -1.8394 -0.0929
29613SOL    HW2 6832   6.907   4.375   6.216  1.5659  1.0376 -0.7765
29614SOL     OW 6833   2.100  12.488  10.172 -0.0424  0.2205  0.5368
29614SOL    HW1 6834   2.186  12.529  10.169 -0.5695  1.3366  0.4402
29614SOL    HW2 6835   2.119  12.394  10.174  1.2524  0.4528  2.9075
29615SOL     OW 6836  10.080   6.145  11.874  0.3962 -0.5541 -0.6289
29615SOL    HW1 6837  10.005   6.088  11.857  1.1083 -1.0641 -2.2107
29615SOL    HW2 6838  10.043   6.222  11.917 -0.9913 -0.9214 -1.1362
29616SOL     OW 6839   1.751   3.175  13.347 -0.3132  0.0501  0.6167
29616SOL    HW1 6840   1.784   3.087  13.328 -1.1891  0.2466 -2.1631
29616SOL    HW2 6841   1.659   3.173  13.321  0.3618  2.5475 -2.5728
29617SOL     OW 6842   3.500  10.858   7.374 -0.0416 -0.1330 -0.0794
29617SOL    HW1 6843   3.583  10.901   7.354  0.6227 -1.0938  0.5136
29617SOL    HW2 6844   3.498  10.782   7.316 -0.5260 -0.0890 -0.1219
29618SOL     OW 6845   1.097   5.278   5.996 -0.3202 -0.2931  0.3447
29618SOL    HW1 6846   1.056   5.340   6.056  0.2424  0.3967  0.0318
29618SOL    HW2 6847   1.175   5.249   6.041 -0.4097 -0.5236  0.3517
29619SOL     OW 6848   9.780   5.380   2.754 -0.3871  0.1927 -0.7467
29619SOL    HW1 6849   9.809   5.310   2.813 -1.5800 -0.5942 -1.0591
29619SOL    HW2 6850   9.684   5.372   2.753 -0.5623  2.0372 -0.5543
29620SOL     OW 6851   1.098   3.623   2.766 -0.0713 -0.1699  0.0063
29620SOL    HW1 6852   1.086   3.544   2.714  2.8988 -0.2124 -0.7876
29620SOL    HW2 6853   1.107   3.693   2.701 -0.8371  0.5367  0.6447
29621SOL     OW 6854   4.102   0.117   5.441  0.5773 -0.1726 -0.0206
29621SOL    HW1 6855   4.170   0.096   5.505 -1.4251 -1.5138  1.8093
29621SOL    HW2 6856   4.040   0.171   5.489  0.6916  1.7346 -1.8929
29622SOL     OW 6857   5.872   2.073   7.851  0.3141  0.2162  0.3280
29622SOL    HW1 6858   5.959   2.070   7.891  0.2942 -0.2931  0.3333
29622SOL    HW2 6859   5.824   2.001   7.892  1.0233 -1.9159 -2.2978
29623SOL     OW 6860   1.782   3.880   1.482  0.4507 -0.5838 -0.2419
29623SOL    HW1 6861   1.810   3.971   1.483 -2.3957  0.3670 -0.0280
29623SOL    HW2 6862   1.779   3.855   1.574 -0.3297 -0.3463 -0.1958
29624SOL     OW 6863   9.193   1.543   7.648  0.1017  0.3415  0.2983
29624SOL    HW1 6864   9.139   1.599   7.704 -1.0788 -0.5885  0.1234
29624SOL    HW2 6865   9.260   1.509   7.707  0.3119  1.2435  0.6009
29625SOL     OW 6866   7.070   7.051   9.768 -0.1756  0.2029 -0.0974
29625SOL    HW1 6867   7.041   6.964   9.741 -0.0054  0.8044 -2.4195
29625SOL    HW2 6868   7.150   7.067   9.718 -1.0330  2.2759 -0.9649
29626SOL     OW 6869   6.470  10.608   4.338 -0.0412 -0.1907 -0.8981
29626SOL    HW1 6870   6.561  10.584   4.324 -0.5382 -1.7677 -1.6732
29626SOL    HW2 6871   6.473  10.673   4.408  1.6333 -0.5436 -0.5961
29627SOL     OW 6872   9.761  10.040   9.991  0.5969 -0.2053  0.0540
29627SOL    HW1 6873   9.759   9.945   9.985  0.0594 -0.1323 -1.2456
29627SOL    HW2 6874   9.715  10.070   9.913 -0.3255  1.1226  1.0665
29628SOL     OW 6875  13.191   2.700  11.944  0.6139  0.4844  0.2580
29628SOL    HW1 6876  13.098   2.693  11.965  1.1391  0.2248  2.8527
29628SOL    HW2 6877  13.193   2.743  11.859 -1.8790  0.0086 -0.1170
29629SOL     OW 6878  11.511   9.716   8.266 -0.1725 -0.7295  0.2375
29629SOL    HW1 6879  11.476   9.655   8.330 -0.5849  0.2629  0.9854
29629SOL    HW2 6880  11.525   9.797   8.315 -1.4101  0.3585 -1.1158
29630SOL     OW 6881  14.156   8.316   7.884 -1.0562 -0.2078 -0.3470
29630SOL    HW1 6882  14.154   8.302   7.978  1.4641  0.8791 -0.0467
29630SOL    HW2 6883  14.196   8.402   7.873  0.5061 -1.0968 -2.4310
29631SOL     OW 6884  10.293  11.897   4.260 -0.4304 -0.0503  0.2494
29631SOL    HW1 6885  10.274  11.919   4.352  1.4702 -0.2825  0.7293
29631SOL    HW2 6886  10.207  11.892   4.219 -1.2606  1.9972  1.5665
29632SOL     OW 6887   2.845  12.113   0.376 -0.1561 -0.3576 -0.0835
29632SOL    HW1 6888   2.819  12.163   0.453  1.3542 -0.2043  0.3555
29632SOL    HW2 6889   2.814  12.024   0.393 -1.6668  0.0995 -0.2652
29633SOL     OW 6890   6.687   7.605   3.951 -0.2593  0.0623 -0.0250
29633SOL    HW1 6891   6.600   7.643   3.962 -1.0981 -2.2537  2.7081
29633SOL    HW2 6892   6.747   7.673   3.982 -1.4909  0.2263  2.2199
29634SOL     OW 6893   1.095   4.926  12.157  0.1068  0.6799 -0.4043
29634SOL    HW1 6894   1.183   4.951  12.129  0.9447 -2.1253 -0.5787
29634SOL    HW2 6895   1.059   4.876  12.084 -0.9954  0.4391  0.2737
29635SOL     OW 6896   2.928   8.423  11.638  0.3170  0.5910  0.2718
29635SOL    HW1 6897   2.912   8.384  11.723 -0.6916  0.3380 -0.0176
29635SOL    HW2 6898   3.009   8.382  11.607 -0.6929 -1.2914 -0.0243
29636SOL     OW 6899   2.275   1.003   0.707  0.1850  0.8336  0.0634
29636SOL    HW1 6900   2.343   0.935   0.707  0.0015  0.6328 -0.9814
29636SOL    HW2 6901   2.193   0.956   0.692  0.2916  1.4270 -3.2075
29637SOL     OW 6902  10.966   4.754   0.486  0.1189 -0.1152  0.2950
29637SOL    HW1 6903  10.952   4.752   0.581  1.5263  1.3323  0.5789
29637SOL    HW2 6904  11.011   4.672   0.467 -2.0176 -1.3926  0.5039
29638SOL     OW 6905  12.359   4.592   9.729 -0.7046 -0.7486  0.9097
29638SOL    HW1 6906  12.350   4.642   9.811 -1.1622  0.3768  0.1928
29638SOL    HW2 6907  12.451   4.600   9.706 -1.0362  1.0855  0.0261
29639SOL     OW 6908   1.755  12.220  11.929  0.0563  0.2353 -0.1735
29639SOL    HW1 6909   1.676  12.172  11.904  0.9344 -0.1470 -2.4258
29639SOL    HW2 6910   1.820  12.152  11.946 -0.2309  0.5073  2.5304
29640SOL     OW 6911  10.253   9.827   2.485  0.2018  0.4833 -0.2862
29640SOL    HW1 6912  10.163   9.798   2.501  0.0007  1.3545  0.2444
29640SOL    HW2 6913  10.282   9.861   2.570  1.9684 -2.1691  0.2698
29641SOL     OW 6914   2.741   8.727   4.486 -0.0768  0.7692 -0.1634
29641SOL    HW1 6915   2.694   8.730   4.403 -0.8840  0.9700  0.2818
29641SOL    HW2 6916   2.813   8.665   4.471 -0.0908  0.9587 -1.0610
29642SOL     OW 6917   5.561   0.465   2.744 -0.3697 -0.0208  0.5526
29642SOL    HW1 6918   5.579   0.374   2.720  0.1580  0.1391  0.3411
29642SOL    HW2 6919   5.515   0.459   2.828  0.2580 -0.4586  0.8755
29643SOL     OW 6920   7.367  10.443  13.815 -0.6473 -0.4865  0.0478
29643SOL    HW1 6921   7.321  10.359  13.815 -1.5544 -0.0192 -0.9354
29643SOL    HW2 6922   7.458  10.421  13.832 -0.6337 -1.8377 -1.5677
29644SOL     OW 6923   0.726  10.971  10.604 -0.0173 -1.1063 -0.6070
29644SOL    HW1 6924   0.654  11.023  10.640  0.9590  0.4794 -0.8503
29644SOL    HW2 6925   0.774  11.031  10.547  1.0730 -2.3269 -1.0447
29645SOL     OW 6926  10.774   0.442   1.130 -0.1530  0.0499  0.4864
29645SOL    HW1 6927  10.822   0.387   1.191 -0.7222  0.7297  1.5766
29645SOL    HW2 6928  10.822   0.525   1.129 -0.7839  0.4374  0.9239
29646SOL     OW 6929   7.329   6.156   4.920 -0.1294 -0.4237  0.2011
29646SOL    HW1 6930   7.328   6.232   4.862 -0.9244 -1.2274 -0.8751
29646SOL    HW2 6931   7.306   6.083   4.864 -0.1836 -1.3502  1.3904
29647SOL     OW 6932  12.392   3.871   3.451  0.1156 -0.3840 -0.2112
29647SOL    HW1 6933  12.329   3.801   3.467 -0.3920  0.1574  0.2082
29647SOL    HW2 6934  12.383   3.891   3.358 -0.4017 -0.2608 -0.1404
29648SOL     OW 6935   4.024  13.305  13.505 -0.1267  0.1165 -0.7713
29648SOL    HW1 6936   3.932  13.285  13.523 -0.3560  2.0933  0.4484
29648SOL    HW2 6937   4.072  13.263  13.576  0.1425 -2.2073 -2.2059
29649SOL     OW 6938  10.046   9.388   4.261 -0.2833  0.4068 -0.2693
29649SOL    HW1 6939  10.041   9.440   4.181 -1.8020  1.2785  0.3255
29649SOL    HW2 6940   9.954   9.380   4.289  0.1137 -0.8825  0.7496
29650SOL     OW 6941   4.031  10.214   9.232 -0.1953  0.0178 -0.4324
29650SOL    HW1 6942   4.102  10.182   9.176 -0.1126  0.8321 -0.8053
29650SOL    HW2 6943   4.045  10.171   9.316 -0.6453 -1.6777 -1.1771
29651SOL     OW 6944   8.637   7.116   3.751  0.6192 -0.5901 -0.0068
29651SOL    HW1 6945   8.731   7.125   3.767  0.8259 -1.8917 -0.3602
29651SOL    HW2 6946   8.603   7.205   3.759  1.3181 -0.4960  3.4675
29652SOL     OW 6947  10.510   6.222  10.593 -0.1562  0.2629 -0.1665
29652SOL    HW1 6948  10.460   6.298  10.623  0.0779  0.1426  0.5544
29652SOL    HW2 6949  10.553   6.189  10.672 -1.0871 -1.2549 -0.2493
29653SOL     OW 6950  13.216   1.416   3.110 -0.1871 -0.5261 -0.1005
29653SOL    HW1 6951  13.256   1.405   3.024 -1.1926 -2.5481 -0.3767
29653SOL    HW2 6952  13.181   1.330   3.132 -1.5872  0.3726  1.5155
29654SOL     OW 6953   6.483   4.628   4.153  0.0056 -0.0611 -0.1388
29654SOL    HW1 6954   6.467   4.690   4.224  0.9162 -0.0406  0.0641
29654SOL    HW2 6955   6.455   4.674   4.074  2.7186  1.5845 -0.2884
29655SOL     OW 6956   0.906  14.086  12.056 -0.4241  0.8546 -0.1514
29655SOL    HW1 6957   0.981  14.133  12.092  0.0479 -0.3585  0.5007
29655SOL    HW2 6958   0.830  14.139  12.081  0.0775  1.2160  0.6550
29656SOL     OW 6959   8.869   1.751   6.936 -0.3143 -0.5130 -0.6629
29656SOL    HW1 6960   8.790   1.803   6.924 -2.4235 -3.6342 -1.5047
29656SOL    HW2 6961   8.851   1.696   7.012  0.9931 -1.3772 -0.9347
29657SOL     OW 6962   9.229   1.745   5.816 -0.1468  0.2303  0.3962
29657SOL    HW1 6963   9.284   1.689   5.870 -2.3201 -1.5265  0.9718
29657SOL    HW2 6964   9.227   1.701   5.731  0.1838  0.8740  0.0486
29658SOL     OW 6965   4.650   0.507   8.716 -0.3785  0.1197  0.0956
29658SOL    HW1 6966   4.613   0.538   8.799 -3.1667  0.4301 -1.1141
29658SOL    HW2 6967   4.677   0.588   8.671 -0.9252  0.1770 -0.1455
29659SOL     OW 6968  14.037   6.717   9.231  0.1620  0.0687 -0.1156
29659SOL    HW1 6969  14.063   6.738   9.320 -1.1044  0.7238  0.1200
29659SOL    HW2 6970  14.098   6.767   9.176 -0.4249  1.4187  0.4158
29660SOL     OW 6971  12.429   9.770   8.061 -0.0013 -0.1088 -0.1612
29660SOL    HW1 6972  12.413   9.679   8.036  0.8268 -0.9508  2.1519
29660SOL    HW2 6973  12.374   9.784   8.138 -0.1934  1.4211 -0.5406
29661SOL     OW 6974   9.229   4.430   7.051  0.4942 -0.1683 -0.1595
29661SOL    HW1 6975   9.138   4.401   7.059 -0.4148  2.1389 -1.0501
29661SOL    HW2 6976   9.280   4.362   7.095 -1.7140 -1.1781  1.0375
29662SOL     OW 6977   2.591  10.763   2.728 -0.0405 -0.3720  0.3611
29662SOL    HW1 6978   2.607  10.751   2.821  0.4319 -1.1452  0.1879
29662SOL    HW2 6979   2.636  10.690   2.686 -1.2131 -0.6868 -0.3961
29663SOL     OW 6980   5.184   9.339   8.501  0.5075  0.1880 -0.6670
29663SOL    HW1 6981   5.237   9.269   8.539 -0.3783  0.0911  0.4345
29663SOL    HW2 6982   5.238   9.418   8.510 -0.5843  0.6782  3.1955
29664SOL     OW 6983   0.624  10.079   2.622  1.0186  0.1498  0.2869
29664SOL    HW1 6984   0.696  10.085   2.685  0.6275 -2.2943  1.0401
29664SOL    HW2 6985   0.575  10.161   2.635  2.2971  0.7822  1.4246
29665SOL     OW 6986  13.051   3.114  13.898 -0.7685 -0.4107 -0.1362
29665SOL    HW1 6987  12.973   3.118  13.842  0.8840 -1.1669 -2.6755
29665SOL    HW2 6988  13.124   3.131  13.838  1.1296 -1.1226  1.8638
29666SOL     OW 6989   2.211  12.275   3.086  0.0037 -0.6653 -0.0757
29666SOL    HW1 6990   2.305  12.279   3.069 -0.0626  1.6931 -0.2935
29666SOL    HW2 6991   2.174  12.239   3.006  0.4456  2.2965 -1.7832
29667SOL     OW 6992   8.615   5.263  12.274  0.4572  0.3481 -0.6122
29667SOL    HW1 6993   8.590   5.183  12.321  1.9568  0.4590  0.4721
29667SOL    HW2 6994   8.659   5.232  12.195  0.6967  0.0947 -0.3829
29668SOL     OW 6995   9.369   3.281  11.964  0.0315 -0.1751 -0.0535
29668SOL    HW1 6996   9.370   3.215  11.894  0.0415 -1.0755  0.7740
29668SOL    HW2 6997   9.285   3.270  12.007  0.0913  0.2721  0.1850
29669SOL     OW 6998  13.784   2.941  11.216 -0.0014  0.2455  0.2412
29669SOL    HW1 6999  13.742   2.864  11.178  0.4105 -0.6989  1.6228
29669SOL    HW2 7000  13.718   2.979  11.274 -0.6861  1.7764 -1.4567
29670SOL     OW 7001   7.977   6.198   9.997  0.1368 -0.5036 -0.1998
29670SOL    HW1 7002   7.902   6.184  10.054 -0.2715 -0.5969 -0.7570
29670SOL    HW2 7003   7.940   6.213   9.910  0.6186  1.9719 -0.0663
29671SOL     OW 7004  10.520  13.342   7.628 -0.0273 -0.0684 -0.1930
29671SOL    HW1 7005  10.564  13.318   7.547  1.3951  1.3379  0.1232
29671SOL    HW2 7006  10.584  13.394   7.676 -0.4474 -1.7086  2.3338
29672SOL     OW 7007   1.838   5.931   6.467  0.0990  0.3231  0.1610
29672SOL    HW1 7008   1.819   5.972   6.383  2.0325 -1.2948 -1.1754
29672SOL    HW2 7009   1.790   5.848   6.466 -0.4243  0.6043  0.9699
29673SOL     OW 7010   1.196  10.897   3.339  0.1715  0.0552 -0.0211
29673SOL    HW1 7011   1.120  10.944   3.373 -1.1839 -2.2191  0.2891
29673SOL    HW2 7012   1.183  10.898   3.244  0.6745  1.1009 -0.0919
29674SOL     OW 7013   2.512  10.904  11.296 -0.3414  0.1043  0.4591
29674SOL    HW1 7014   2.433  10.930  11.247  0.7372  2.9425  0.0406
29674SOL    HW2 7015   2.546  10.829  11.247 -0.7357  1.2217 -1.6394
29675SOL     OW 7016  10.587   9.608   1.583 -0.8758 -0.5765  0.4686
29675SOL    HW1 7017  10.587   9.688   1.531  0.2880 -0.9622 -0.1731
29675SOL    HW2 7018  10.676   9.572   1.572 -0.4744 -0.5286  2.9455
29676SOL     OW 7019   9.738   1.017   6.283 -0.1946 -0.5175 -0.0507
29676SOL    HW1 7020   9.775   0.942   6.236 -0.9494  0.3371 -2.1232
29676SOL    HW2 7021   9.785   1.093   6.247  2.1786  0.0112  3.5656
29677SOL     OW 7022  13.729   1.136  11.254 -0.0622  0.0546  0.3658
29677SOL    HW1 7023  13.664   1.086  11.304 -1.3098  3.1319  2.1283
29677SOL    HW2 7024  13.682   1.166  11.176  1.5774 -3.8180 -2.4461
29678SOL     OW 7025   1.999   2.438   8.978 -0.8060 -0.2274 -0.5314
29678SOL    HW1 7026   1.912   2.458   8.945 -2.0675 -1.1358  1.9810
29678SOL    HW2 7027   2.021   2.511   9.035 -0.9373 -1.0186  0.5772
29679SOL     OW 7028   0.776  12.043   0.404 -0.2602 -0.0716  0.1972
29679SOL    HW1 7029   0.784  12.133   0.437  1.1761  0.3152 -1.0651
29679SOL    HW2 7030   0.862  12.024   0.365 -1.0420 -1.4088 -0.9800
29680SOL     OW 7031   2.325  11.073   7.082 -0.0439  0.4502 -0.4037
29680SOL    HW1 7032   2.249  11.071   7.139  0.0338  0.3281 -0.3034
29680SOL    HW2 7033   2.387  11.012   7.122 -0.0871  0.1721 -0.7559
29681SOL     OW 7034   5.279  10.207  13.357 -0.4720 -0.0127 -0.0362
29681SOL    HW1 7035   5.326  10.191  13.438 -1.3270 -1.3223  0.2384
29681SOL    HW2 7036   5.347  10.233  13.294  0.6001 -1.5531  0.4213
29682SOL     OW 7037  13.952   5.809   1.189  0.3167 -0.2356 -0.0014
29682SOL    HW1 7038  14.013   5.766   1.129  0.8662  0.0545  0.3557
29682SOL    HW2 7039  13.992   5.893   1.210 -0.7896  0.5175 -0.7497
29683SOL     OW 7040   4.958   7.401   2.450  0.0164 -0.1883  0.4563
29683SOL    HW1 7041   4.873   7.381   2.409 -0.2724 -1.0872  1.4563
29683SOL    HW2 7042   5.022   7.382   2.382 -0.5842  0.6483 -0.3699
29684SOL     OW 7043   8.591  13.452   2.198 -0.1534 -0.3176 -0.0757
29684SOL    HW1 7044   8.685  13.432   2.191  0.1297  1.3137 -1.4190
29684SOL    HW2 7045   8.548  13.380   2.153  0.5846 -0.0540 -1.2380
29685SOL     OW 7046   5.855   8.696   7.912  0.2789 -0.0007 -0.3429
29685SOL    HW1 7047   5.778   8.641   7.896 -1.0187  1.9869 -1.3003
29685SOL    HW2 7048   5.929   8.639   7.894 -0.9579 -1.7002 -0.3599
29686SOL     OW 7049   8.744   2.031  10.411 -0.4795  0.3383 -0.3779
29686SOL    HW1 7050   8.803   2.105  10.399 -1.2350  0.9753 -0.2759
29686SOL    HW2 7051   8.680   2.062  10.476 -0.6674 -0.4839 -0.1627
29687SOL     OW 7052   0.178  13.643   8.443  0.0470  0.1431 -0.0277
29687SOL    HW1 7053   0.166  13.552   8.471 -1.5249  0.7543  1.4294
29687SOL    HW2 7054   0.162  13.641   8.349 -3.0610 -0.6498  0.4144
29688SOL     OW 7055   9.505   4.481  10.102 -0.4386 -0.3329  0.0810
29688SOL    HW1 7056   9.468   4.502  10.188  1.7076  1.8487  0.5792
29688SOL    HW2 7057   9.510   4.386  10.101  0.6075 -0.4046  2.9262
29689SOL     OW 7058   8.832   3.885   7.020 -0.1032 -0.3167 -0.2035
29689SOL    HW1 7059   8.924   3.879   6.995 -0.1511 -0.3615 -0.3645
29689SOL    HW2 7060   8.810   3.798   7.053  0.0125 -0.2044  0.1786
29690SOL     OW 7061   0.074   7.657   3.878 -0.7419 -0.3138  0.0289
29690SOL    HW1 7062  -0.004   7.628   3.926 -0.8045 -0.2742 -0.0492
29690SOL    HW2 7063   0.062   7.752   3.869 -0.4908 -0.2474  0.3718
29691SOL     OW 7064   8.813   9.871  12.689  0.2022 -0.5929 -0.0574
29691SOL    HW1 7065   8.857   9.926  12.753  1.1103  0.1098 -1.2418
29691SOL    HW2 7066   8.876   9.863  12.616 -1.4737  0.1794 -1.6749
29692SOL     OW 7067   5.517   4.049   5.435 -0.3386  0.1732  0.2752
29692SOL    HW1 7068   5.469   4.108   5.493 -0.0697  1.5204 -0.8388
29692SOL    HW2 7069   5.452   3.986   5.406 -0.5645 -0.2990  1.7141
29693SOL     OW 7070  13.814   4.179   5.880  0.0569 -0.0237 -0.8327
29693SOL    HW1 7071  13.777   4.098   5.843 -0.1658  0.7021 -2.2477
29693SOL    HW2 7072  13.808   4.166   5.975 -1.1609 -1.1375 -1.0296
29694SOL     OW 7073   8.864  12.365   9.618  0.6299  0.1181  0.1113
29694SOL    HW1 7074   8.839  12.349   9.709 -0.4105 -0.4771 -0.2592
29694SOL    HW2 7075   8.900  12.454   9.619  0.3509  0.2370  1.0451
29695SOL     OW 7076   3.291   4.236  13.631 -0.6128  0.3140  0.4795
29695SOL    HW1 7077   3.253   4.304  13.576  0.0671 -0.5472 -1.1113
29695SOL    HW2 7078   3.384   4.236  13.610 -0.8247 -2.2435 -0.9339
29696SOL     OW 7079  12.320   9.418  12.936 -0.0677 -0.7527  0.0819
29696SOL    HW1 7080  12.371   9.492  12.903  0.4662 -1.4863 -0.7860
29696SOL    HW2 7081  12.385   9.358  12.972 -0.2477 -1.8939 -1.4154
29697SOL     OW 7082   8.985  13.528   3.121  0.4204  0.0129 -0.5802
29697SOL    HW1 7083   9.065  13.571   3.151  0.3590  1.4095 -2.2875
29697SOL    HW2 7084   8.922  13.599   3.109 -1.5444 -1.1589  1.8807
29698SOL     OW 7085   1.834  12.942   5.451 -0.2576 -0.1492 -0.2310
29698SOL    HW1 7086   1.763  12.976   5.506  0.0839  0.4651 -0.1609
29698SOL    HW2 7087   1.792  12.878   5.394 -1.1289  1.1715 -1.1231
29699SOL     OW 7088   9.982  11.325  12.218 -0.3851 -0.4631  0.3113
29699SOL    HW1 7089   9.914  11.359  12.275 -0.1590 -0.4316  0.5660
29699SOL    HW2 7090  10.063  11.365  12.251 -0.2765 -0.2885 -0.1536
29700SOL     OW 7091   1.249   5.998   8.606 -0.4897 -0.2899  0.0165
29700SOL    HW1 7092   1.204   5.935   8.551 -0.2904  0.8104 -1.4819
29700SOL    HW2 7093   1.179   6.047   8.650 -0.6774 -0.4141 -0.1469
29701SOL     OW 7094   8.415   1.427   8.578 -0.8398 -0.4579 -1.0816
29701SOL    HW1 7095   8.498   1.384   8.600 -1.6034 -1.7213 -0.4929
29701SOL    HW2 7096   8.380   1.376   8.505 -0.9652  0.2572 -1.5307
29702SOL     OW 7097  13.511   6.001   6.723 -0.2154  0.3382 -0.3638
29702SOL    HW1 7098  13.470   6.087   6.728  0.8824  0.8316  0.5119
29702SOL    HW2 7099  13.521   5.972   6.814 -0.0808 -0.4727 -0.6192
29703SOL     OW 7100  10.043   6.358   9.991 -0.4209 -0.2327 -0.3318
29703SOL    HW1 7101  10.116   6.369   9.930  0.0207  0.1079  0.2581
29703SOL    HW2 7102  10.077   6.304  10.061 -0.6318  0.2104  0.1187
29704SOL     OW 7103   0.737   0.668   7.740  0.0322  0.6524  0.3772
29704SOL    HW1 7104   0.675   0.691   7.809  1.1221  0.3010  1.5034
29704SOL    HW2 7105   0.682   0.648   7.664 -1.2163  0.4788  1.3059
29705SOL     OW 7106   3.909   5.937   2.003 -0.4083  0.5428 -0.3093
29705SOL    HW1 7107   3.838   5.995   2.031 -0.2650  1.3995 -1.6255
29705SOL    HW2 7108   3.889   5.916   1.912  2.0581  2.5888 -1.4769
29706SOL     OW 7109   7.280   2.130  12.854  0.3489  0.0117 -0.3369
29706SOL    HW1 7110   7.330   2.172  12.924 -0.4005  0.0239  0.1951
29706SOL    HW2 7111   7.347   2.101  12.792  1.1038 -0.8438  0.8314
29707SOL     OW 7112   1.785  14.006   6.072  0.4642 -0.1930 -0.2425
29707SOL    HW1 7113   1.815  13.934   6.015 -0.6001  1.0477 -2.5284
29707SOL    HW2 7114   1.723  13.965   6.132 -0.3191 -1.1993 -1.6561
29708SOL     OW 7115   2.982   3.391   1.096  0.0951 -0.7405  0.3608
29708SOL    HW1 7116   2.916   3.392   1.027  0.6230  0.5557 -0.1590
29708SOL    HW2 7117   3.051   3.334   1.063  0.2466 -0.2980 -0.0964
29709SOL     OW 7118  12.095   5.027  13.138  0.1427 -0.0951 -0.2497
29709SOL    HW1 7119  12.099   5.092  13.209  1.3894  0.1030 -0.4759
29709SOL    HW2 7120  12.010   4.984  13.150 -0.1484  0.6909  0.6887
29710SOL     OW 7121  10.611   4.655  11.337 -0.0383 -0.1631 -0.0247
29710SOL    HW1 7122  10.630   4.688  11.249 -1.6234  0.9557  0.0064
29710SOL    HW2 7123  10.597   4.562  11.325  0.9356 -0.2365 -0.7401
29711SOL     OW 7124   7.044   7.968   3.708 -0.0322 -0.2400  0.0990
29711SOL    HW1 7125   6.980   7.921   3.654  0.3510 -0.6919  0.0311
29711SOL    HW2 7126   7.128   7.949   3.668  0.0815  1.0813 -0.3410
29712SOL     OW 7127   5.517   0.169   5.647  0.3939  0.3051  0.4054
29712SOL    HW1 7128   5.584   0.189   5.713  1.0657 -1.3302  0.2556
29712SOL    HW2 7129   5.552   0.094   5.599 -2.1689 -1.5415  1.2394
29713SOL     OW 7130   4.341   0.154   8.004 -0.2057  0.6204 -0.3826
29713SOL    HW1 7131   4.357   0.100   8.081  0.7548  0.5229 -0.6271
29713SOL    HW2 7132   4.427   0.160   7.961 -0.4695  1.6673 -0.7971
29714SOL     OW 7133  11.206  12.505   5.551 -0.2254 -0.4248 -0.3423
29714SOL    HW1 7134  11.158  12.568   5.604 -1.4702 -0.2001 -1.6898
29714SOL    HW2 7135  11.281  12.555   5.517 -0.9941  0.2472 -1.0917
29715SOL     OW 7136   4.549   1.845   9.926 -0.4506  0.1394  0.5955
29715SOL    HW1 7137   4.479   1.808   9.872 -0.3753  0.2271  0.4408
29715SOL    HW2 7138   4.515   1.929   9.956 -0.1052  0.5283 -0.1009
29716SOL     OW 7139   8.113   8.337   2.089  0.2939 -0.1901  0.1950
29716SOL    HW1 7140   8.131   8.267   2.152  0.0667 -2.5244 -2.1330
29716SOL    HW2 7141   8.020   8.356   2.100 -0.0932 -1.6289 -0.3472
29717SOL     OW 7142   3.780   7.725  13.298  0.5179 -0.6053  0.1694
29717SOL    HW1 7143   3.769   7.729  13.393  0.6990  1.2952  0.1471
29717SOL    HW2 7144   3.875   7.717  13.286  0.4323 -1.7084  0.1423
29718SOL     OW 7145  10.660   2.480   4.763 -0.1396 -0.2735 -0.5190
29718SOL    HW1 7146  10.665   2.504   4.671  0.5734  0.7036 -0.2505
29718SOL    HW2 7147  10.567   2.482   4.784 -0.3199 -0.7539 -1.2804
29719SOL     OW 7148   9.850   6.364  13.890  0.3309  0.1251  0.1088
29719SOL    HW1 7149   9.892   6.393  13.808 -1.1210 -0.6271 -0.9451
29719SOL    HW2 7150   9.814   6.278  13.869  1.2595 -0.7856  2.0361
29720SOL     OW 7151   0.849   9.457   9.091 -0.0837 -0.1956  0.3848
29720SOL    HW1 7152   0.860   9.466   9.186  0.1198 -1.1501  0.4524
29720SOL    HW2 7153   0.827   9.365   9.078  3.3327 -0.9941 -0.7997
29721SOL     OW 7154  12.037  12.870   7.830  0.2119 -0.2971  0.0930
29721SOL    HW1 7155  12.091  12.810   7.883  0.1092  0.5162  1.1534
29721SOL    HW2 7156  12.101  12.927   7.787  0.2550  0.6084  1.2801
29722SOL     OW 7157   9.763  10.922   7.163  0.3187 -0.2439 -0.2075
29722SOL    HW1 7158   9.785  10.917   7.256  0.9378  0.1926 -0.3266
29722SOL    HW2 7159   9.738  11.013   7.149  0.5984 -0.2155 -0.5442
29723SOL     OW 7160   7.052   4.828   2.724  0.1993  0.0616  0.0961
29723SOL    HW1 7161   7.139   4.799   2.698  0.4442  1.3009 -0.5108
29723SOL    HW2 7162   6.993   4.785   2.661  0.4945  0.3649 -0.3910
29724SOL     OW 7163   6.869   9.672   2.159 -0.3402 -0.2565 -0.0878
29724SOL    HW1 7164   6.786   9.640   2.123 -0.6433  2.1761 -1.8079
29724SOL    HW2 7165   6.927   9.676   2.083  0.3042  1.1785  0.4593
29725SOL     OW 7166   9.509   0.172   7.252  0.2395  0.2558  0.3616
29725SOL    HW1 7167   9.553   0.096   7.215  0.4845  1.5894 -2.3159
29725SOL    HW2 7168   9.483   0.225   7.176 -2.2219  1.6159  1.9910
29726SOL     OW 7169   4.632   8.764   9.721 -0.0592 -0.7738 -0.3498
29726SOL    HW1 7170   4.608   8.856   9.712 -0.2057 -0.9672 -2.4135
29726SOL    HW2 7171   4.572   8.730   9.787  0.2911  0.6877  0.7697
29727SOL     OW 7172   4.483   3.379   1.286 -0.3516  0.3103 -0.0291
29727SOL    HW1 7173   4.507   3.395   1.194  0.5990 -1.5046 -0.1367
29727SOL    HW2 7174   4.393   3.348   1.282 -0.7580  1.4553 -0.2011
29728SOL     OW 7175   9.247   5.728   9.339  0.3172  0.5399 -0.9899
29728SOL    HW1 7176   9.245   5.805   9.396  0.8789 -0.1463 -0.0122
29728SOL    HW2 7177   9.290   5.661   9.392 -0.1445 -0.4408 -1.8412
29729SOL     OW 7178   9.589   6.211   1.772 -0.0079 -0.0933  0.4730
29729SOL    HW1 7179   9.606   6.273   1.702 -0.3557 -0.3351  0.1701
29729SOL    HW2 7180   9.510   6.243   1.815 -0.1547 -0.2889  0.3525
29730SOL     OW 7181   8.960  11.859   9.664 -0.0352 -0.0078 -0.0718
29730SOL    HW1 7182   9.012  11.815   9.731  0.2130  1.2681  0.5999
29730SOL    HW2 7183   9.018  11.863   9.587 -0.1386 -1.0218 -0.2091
29731SOL     OW 7184   0.492   5.269   8.415  0.1327 -0.2112 -0.8396
29731SOL    HW1 7185   0.564   5.239   8.359  1.2217 -1.0400  0.9322
29731SOL    HW2 7186   0.449   5.188   8.443  0.5957  0.0798  0.7754
29732SOL     OW 7187   3.061  10.935   5.065  0.4389  0.2866 -0.1638
29732SOL    HW1 7188   3.093  10.998   5.129 -0.4760  0.6003  0.0101
29732SOL    HW2 7189   3.103  10.853   5.089  2.2647  0.9658 -0.8684
29733SOL     OW 7190   1.642   2.625   1.374  0.0827 -0.1724 -0.0442
29733SOL    HW1 7191   1.553   2.658   1.359 -1.3161 -4.4472 -3.4189
29733SOL    HW2 7192   1.697   2.678   1.317 -1.0601  0.0018 -1.0482
29734SOL     OW 7193   4.140   2.125  11.852  0.6458  0.1302  0.1877
29734SOL    HW1 7194   4.075   2.190  11.879 -1.1875 -0.6937 -1.8881
29734SOL    HW2 7195   4.216   2.177  11.827 -0.0392  1.3305  0.5178
29735SOL     OW 7196   4.390   8.895   7.584 -0.7737  0.2035 -0.0540
29735SOL    HW1 7197   4.442   8.913   7.662  0.1766  0.6930 -0.7799
29735SOL    HW2 7198   4.345   8.813   7.604  1.3680 -1.0033  0.0731
29736SOL     OW 7199  11.137  13.673   3.610 -0.1456  0.0771 -0.0935
29736SOL    HW1 7200  11.230  13.671   3.635 -0.6597  1.7859  2.4524
29736SOL    HW2 7201  11.101  13.747   3.660 -3.4059 -2.0470  1.0197
29737SOL     OW 7202  11.607   4.657  10.579  0.2587 -0.2792  0.2300
29737SOL    HW1 7203  11.614   4.708  10.659 -0.2200  1.1692 -0.6311
29737SOL    HW2 7204  11.653   4.575  10.599  2.0361  0.9018  1.2860
29738SOL     OW 7205   4.493   9.457   2.615 -0.3144  0.0465 -0.0558
29738SOL    HW1 7206   4.586   9.436   2.618 -0.1826  0.6754  1.5575
29738SOL    HW2 7207   4.489   9.550   2.635 -1.3183 -0.1158  0.5594
29739SOL     OW 7208   7.032   7.987  10.881  0.4027  0.0089 -0.0553
29739SOL    HW1 7209   7.069   7.929  10.814 -0.6067 -0.0701 -0.5670
29739SOL    HW2 7210   6.943   8.003  10.851  0.0883  0.3537  1.0442
29740SOL     OW 7211  10.079   3.651   6.905 -0.4347 -0.4344  0.2472
29740SOL    HW1 7212  10.013   3.714   6.878 -1.5774 -1.2426  1.0711
29740SOL    HW2 7213  10.079   3.655   7.000  0.3428 -0.8196  0.2729
29741SOL     OW 7214  13.589   9.522   7.934  0.3679  0.5502  0.0711
29741SOL    HW1 7215  13.562   9.542   7.844 -0.0537 -0.2254  0.0161
29741SOL    HW2 7216  13.609   9.429   7.932 -1.0300  0.2024  1.1144
29742SOL     OW 7217   9.065   2.196   6.060 -0.5616  0.4947 -0.0080
29742SOL    HW1 7218   9.104   2.110   6.047  1.0633  1.1984 -0.0793
29742SOL    HW2 7219   9.005   2.185   6.133 -0.2787 -0.6655  0.0620
29743SOL     OW 7220   2.029  11.333  10.700 -0.2171  0.0576  0.3181
29743SOL    HW1 7221   1.953  11.360  10.753 -0.5560  1.9924 -1.0544
29743SOL    HW2 7222   1.993  11.274  10.635 -0.0972 -0.9246  1.1123
29744SOL     OW 7223   1.623  13.043  11.149 -0.1958  0.1570 -0.3985
29744SOL    HW1 7224   1.558  12.992  11.101 -0.5863  0.3680 -0.1042
29744SOL    HW2 7225   1.654  13.108  11.086 -0.9104  0.6142 -0.2948
29745SOL     OW 7226  13.310   3.690   5.748 -0.6677 -0.1641  0.1290
29745SOL    HW1 7227  13.301   3.750   5.674 -0.3321 -0.7817 -0.4341
29745SOL    HW2 7228  13.388   3.721   5.795  0.6112 -1.1974 -1.2007
29746SOL     OW 7229   1.370   3.786  10.975 -0.0229  0.2383 -0.5563
29746SOL    HW1 7230   1.427   3.773  10.899 -0.0115  0.0339 -0.5123
29746SOL    HW2 7231   1.414   3.742  11.047  0.9285  2.0357  0.0304
29747SOL     OW 7232  10.998   5.826   6.406  0.0875  0.3570  0.1758
29747SOL    HW1 7233  10.983   5.808   6.498 -3.9755  1.4850 -0.0498
29747SOL    HW2 7234  11.014   5.921   6.402  2.1850  0.0379 -0.2016
29748SOL     OW 7235  13.379   0.954   7.153 -0.5681  0.0586  0.6581
29748SOL    HW1 7236  13.287   0.937   7.172 -0.5579 -1.2498 -0.3528
29748SOL    HW2 7237  13.385   1.050   7.150 -2.0974  0.1655 -0.1697
29749SOL     OW 7238   8.668   9.609  12.880  0.0164 -0.4960  0.4162
29749SOL    HW1 7239   8.733   9.670  12.845 -0.5282  0.9509  1.7964
29749SOL    HW2 7240   8.720   9.536  12.913  0.7947 -0.1938 -0.0977
29750SOL     OW 7241   3.596   8.897   1.789 -0.2131  0.6679 -0.4574
29750SOL    HW1 7242   3.683   8.865   1.766  0.2333  0.5567  1.2299
29750SOL    HW2 7243   3.548   8.899   1.706  1.5522  1.2723 -1.5272
29751SOL     OW 7244   1.513   4.359  11.326 -0.1795 -0.2009 -0.0643
29751SOL    HW1 7245   1.498   4.423  11.396 -0.3496 -1.4459  1.0967
29751SOL    HW2 7246   1.443   4.295  11.337 -0.7746  0.0562 -2.0136
29752SOL     OW 7247   5.204   5.046  10.359  0.3826 -0.0855  0.4508
29752SOL    HW1 7248   5.176   4.955  10.360 -0.7132  0.2452  1.5322
29752SOL    HW2 7249   5.204   5.070  10.266 -1.6415 -0.4879  0.3142
29753SOL     OW 7250   8.673  10.340  10.466  0.1460  0.1720  0.0464
29753SOL    HW1 7251   8.602  10.277  10.453  1.0186 -1.0351  0.9324
29753SOL    HW2 7252   8.687  10.341  10.560  0.9278  0.8386 -0.0663
29754SOL     OW 7253  10.916   3.589   2.375  0.1490 -0.2829  0.4226
29754SOL    HW1 7254  10.852   3.655   2.402 -0.2054 -0.9129  1.1693
29754SOL    HW2 7255  11.001   3.631   2.389 -0.0771  0.0614  0.7760
29755SOL     OW 7256   4.054  10.817  12.905 -0.0543 -0.3405 -0.4992
29755SOL    HW1 7257   3.973  10.863  12.927 -0.4871 -1.1485 -0.3527
29755SOL    HW2 7258   4.074  10.765  12.983  0.1253 -0.8096 -0.8553
29756SOL     OW 7259  12.992   1.322   8.830 -0.1119 -0.1422 -0.2449
29756SOL    HW1 7260  13.010   1.325   8.924 -0.5682  1.2790 -0.1709
29756SOL    HW2 7261  13.002   1.230   8.806 -0.9644 -0.7003  1.3931
29757SOL     OW 7262   3.821  13.092  11.414  0.3899 -0.5314 -0.3955
29757SOL    HW1 7263   3.824  13.029  11.486 -1.0583 -1.0602 -0.7800
29757SOL    HW2 7264   3.782  13.045  11.341  1.1865  0.2100 -1.3438
29758SOL     OW 7265   6.571   2.852   5.208 -0.0532  0.5915  0.4001
29758SOL    HW1 7266   6.547   2.760   5.212 -0.0952  0.5877  0.0306
29758SOL    HW2 7267   6.613   2.863   5.123  0.5905  0.7572  0.7347
29759SOL     OW 7268  12.701   6.193   4.256  0.0064 -0.0247  0.3405
29759SOL    HW1 7269  12.744   6.219   4.175 -0.4687  2.6364  0.8420
29759SOL    HW2 7270  12.755   6.122   4.291 -0.3993 -2.0199 -2.7804
29760SOL     OW 7271  12.557   6.068  13.428  0.4740 -0.1255 -0.4723
29760SOL    HW1 7272  12.621   6.131  13.461  0.1509  0.2703 -0.5908
29760SOL    HW2 7273  12.476   6.091  13.472 -0.5398  1.8745 -3.1250
29761SOL     OW 7274   1.360   8.942   0.370 -0.0206  0.3962  0.0224
29761SOL    HW1 7275   1.340   9.027   0.332 -2.4158  0.0659  0.3689
29761SOL    HW2 7276   1.320   8.879   0.310  1.0167 -0.4502  0.1903
29762SOL     OW 7277  13.952   3.331   6.960  0.4459  0.3554  0.2781
29762SOL    HW1 7278  14.027   3.347   7.018  0.4285  0.1201  0.3679
29762SOL    HW2 7279  13.889   3.399   6.983  0.6221  0.5382  0.2219
29763SOL     OW 7280  13.389   9.531  13.695 -0.4798  0.0337  0.6659
29763SOL    HW1 7281  13.324   9.579  13.746 -0.4153  0.5354  0.2753
29763SOL    HW2 7282  13.473   9.555  13.734 -0.4442  0.2682  0.4414
29764SOL     OW 7283   3.131   0.651   8.714 -0.4047  0.1379 -0.1380
29764SOL    HW1 7284   3.185   0.726   8.739  1.0214 -0.8037 -0.3349
29764SOL    HW2 7285   3.187   0.597   8.658 -1.6970 -0.6436 -0.7428
29765SOL     OW 7286  11.910  11.962   5.363  0.0200 -0.6317  0.0515
29765SOL    HW1 7287  11.997  11.999   5.344  0.0377  0.1295  1.5223
29765SOL    HW2 7288  11.913  11.875   5.323  1.5818 -0.7439  0.3298
29766SOL     OW 7289  13.386   0.932  10.911 -1.1135  0.5342 -0.1532
29766SOL    HW1 7290  13.440   1.009  10.895  1.7544 -1.0922  0.9345
29766SOL    HW2 7291  13.356   0.905  10.825  2.0283  0.0850 -1.2158
29767SOL     OW 7292   1.907   8.945  13.864  0.5306  0.1990  0.6645
29767SOL    HW1 7293   1.848   8.875  13.892  0.0149  1.1320  1.9794
29767SOL    HW2 7294   1.991   8.923  13.904  0.3338  0.4057  1.1929
29768SOL     OW 7295  10.621  14.027   1.688  0.4451  0.2810  0.1365
29768SOL    HW1 7296  10.716  14.013   1.687  0.5428  0.9688 -0.4626
29768SOL    HW2 7297  10.608  14.114   1.650 -0.4593  0.0231 -0.1822
29769SOL     OW 7298   8.612   9.797   0.228 -0.0785 -0.2760 -0.2122
29769SOL    HW1 7299   8.610   9.815   0.134  0.1325 -1.3279 -0.4232
29769SOL    HW2 7300   8.526   9.758   0.246 -0.2582  0.2595  0.1042
29770SOL     OW 7301   4.485   5.496  10.504  0.3772  0.0745 -0.1788
29770SOL    HW1 7302   4.515   5.441  10.577  1.8117 -0.0325 -0.8137
29770SOL    HW2 7303   4.473   5.435  10.431 -1.1161  0.1742 -0.0431
29771SOL     OW 7304  13.051  13.647   6.239 -0.3746  0.6898 -0.0530
29771SOL    HW1 7305  13.120  13.593   6.202 -0.0051  0.2020  1.2741
29771SOL    HW2 7306  12.991  13.585   6.280 -0.5097  1.2206  0.5803
29772SOL     OW 7307  10.282  11.912   8.733  0.3293  0.8029 -0.5668
29772SOL    HW1 7308  10.229  11.835   8.715  1.2417  0.1850 -0.6802
29772SOL    HW2 7309  10.288  11.957   8.648 -0.5402  1.2269 -0.4121
29773SOL     OW 7310   2.219  10.733   1.103 -0.7843 -0.4096 -1.1597
29773SOL    HW1 7311   2.289  10.798   1.099 -0.3004 -0.7491  0.9164
29773SOL    HW2 7312   2.167  10.750   1.024  1.5871 -0.1438 -2.7784
29774SOL     OW 7313   9.476   4.099  14.096  0.6015  0.5102  0.4189
29774SOL    HW1 7314   9.553   4.067  14.049  0.7041 -0.0467  0.9505
29774SOL    HW2 7315   9.407   4.102  14.029 -0.8445 -5.5001  0.9955
29775SOL     OW 7316   1.052   6.445  13.092  0.0973 -0.4039 -0.2083
29775SOL    HW1 7317   1.132   6.440  13.039 -1.8200 -2.7220 -3.2326
29775SOL    HW2 7318   1.045   6.360  13.134 -0.9590 -0.4112 -0.3573
29776SOL     OW 7319   2.300  10.759   1.457  0.1418  0.0552  0.2851
29776SOL    HW1 7320   2.332  10.813   1.384 -0.3466  1.2006  0.8835
29776SOL    HW2 7321   2.208  10.744   1.437  0.4483 -1.2456 -0.2606
29777SOL     OW 7322   5.540   4.587   1.105  0.7506 -0.3495  0.0607
29777SOL    HW1 7323   5.620   4.602   1.054  1.1403  1.6234  1.1716
29777SOL    HW2 7324   5.564   4.518   1.166  0.9884 -1.1257 -0.8839
29778SOL     OW 7325   8.626   3.740   1.775 -0.0816 -0.6940  0.1416
29778SOL    HW1 7326   8.582   3.821   1.800  2.1674  0.1802  1.6217
29778SOL    HW2 7327   8.626   3.742   1.679 -0.9900  0.5093  0.1360
29779SOL     OW 7328   8.304  14.114   2.997  0.2302  0.0511  0.5743
29779SOL    HW1 7329   8.347  14.042   2.951 -0.0053 -0.4703  1.1510
29779SOL    HW2 7330   8.211  14.093   2.991  0.2538 -0.9642  2.7339
29780SOL     OW 7331   5.163   5.326  11.331 -0.4094  0.1880 -0.9662
29780SOL    HW1 7332   5.106   5.312  11.256 -1.3693  0.0412 -0.2295
29780SOL    HW2 7333   5.180   5.238  11.364 -0.5098  0.2880 -0.6419
29781SOL     OW 7334   5.991  10.124   1.209  0.2889 -0.3120  0.2111
29781SOL    HW1 7335   5.905  10.115   1.250  0.3880 -1.2315  0.2397
29781SOL    HW2 7336   6.053  10.093   1.275  0.4151 -2.2597 -0.7258
29782SOL     OW 7337  14.142   2.928   7.453 -0.2162 -0.3419  0.5531
29782SOL    HW1 7338  14.049   2.939   7.472 -0.0145 -0.4142  1.6444
29782SOL    HW2 7339  14.168   2.851   7.505  0.5604 -0.0101  0.6693
29783SOL     OW 7340   3.537   5.801   7.840 -0.4725 -0.8854  0.3152
29783SOL    HW1 7341   3.501   5.861   7.906  1.5941 -0.5961  1.2877
29783SOL    HW2 7342   3.564   5.858   7.768 -1.4402 -1.0461 -0.1916
29784SOL     OW 7343   0.931   9.182   3.967 -0.4930  0.0564  0.5679
29784SOL    HW1 7344   1.008   9.170   4.023 -0.3234  1.2555  0.6244
29784SOL    HW2 7345   0.925   9.277   3.955  0.1072 -0.1768 -2.3447
29785SOL     OW 7346   5.643   5.142   0.559  0.2765  0.8332  0.5349
29785SOL    HW1 7347   5.567   5.200   0.556  0.6911  1.3611 -0.2820
29785SOL    HW2 7348   5.606   5.054   0.560 -0.3494  1.0790 -0.0490
29786SOL     OW 7349   9.588   9.217   2.597 -0.1200  0.5290 -0.5967
29786SOL    HW1 7350   9.568   9.139   2.648  0.1767  0.0703 -1.1730
29786SOL    HW2 7351   9.644   9.269   2.655 -0.2029  0.2516 -0.2648
29787SOL     OW 7352   6.394   6.476  12.553  0.2694 -0.3419 -0.1943
29787SOL    HW1 7353   6.388   6.412  12.481 -0.4106  0.2463 -0.6687
29787SOL    HW2 7354   6.485   6.506  12.551  0.1176  0.0856 -1.1803
29788SOL     OW 7355   8.766   8.607  14.040 -0.2249 -0.6800 -0.3035
29788SOL    HW1 7356   8.687   8.601  14.095 -0.1221  0.3934 -0.0180
29788SOL    HW2 7357   8.782   8.517  14.012  0.5763 -1.5949  2.6265
29789SOL     OW 7358   9.771   2.166   4.474 -0.1389 -0.0219 -0.2721
29789SOL    HW1 7359   9.687   2.171   4.428 -0.5064  0.9167  0.4684
29789SOL    HW2 7360   9.783   2.073   4.494 -1.2565 -0.0971  0.0712
29790SOL     OW 7361   4.530   9.137  11.056  0.3842 -0.0368 -0.2663
29790SOL    HW1 7362   4.479   9.162  10.978 -0.0967  1.3418  0.4598
29790SOL    HW2 7363   4.469   9.086  11.109  0.1920  0.3887 -0.0680
29791SOL     OW 7364   4.644  10.459  10.876  0.1384 -0.7139 -0.5055
29791SOL    HW1 7365   4.707  10.446  10.948  0.4520 -2.2626 -1.0245
29791SOL    HW2 7366   4.576  10.394  10.892 -1.6510  1.2478  0.3125
29792SOL     OW 7367   2.611   8.479   4.216  0.3705  0.2881 -0.7019
29792SOL    HW1 7368   2.574   8.473   4.305 -0.0076 -0.1669 -0.8825
29792SOL    HW2 7369   2.618   8.572   4.199  1.5099  0.3989  0.2430
29793SOL     OW 7370   1.127   9.334   3.570  0.0173  0.4328 -0.1052
29793SOL    HW1 7371   1.176   9.360   3.492 -3.1524  0.1561 -2.3962
29793SOL    HW2 7372   1.193   9.328   3.639  3.2220 -0.3478 -2.9571
29794SOL     OW 7373  13.817   6.149  10.936 -0.1291 -0.0620 -0.2066
29794SOL    HW1 7374  13.791   6.098  11.013 -0.0696  0.8549  0.4388
29794SOL    HW2 7375  13.842   6.235  10.972  0.0051  0.3391 -1.2407
29795SOL     OW 7376   7.441  11.856   5.229  0.3481  0.0699 -0.0637
29795SOL    HW1 7377   7.504  11.825   5.164  0.2056 -1.5740  0.5431
29795SOL    HW2 7378   7.479  11.938   5.261  3.6850 -2.0590  2.1834
29796SOL     OW 7379  13.543   4.292   0.878  0.1651  0.4460 -0.6405
29796SOL    HW1 7380  13.462   4.248   0.903  0.4936  0.6024  0.8237
29796SOL    HW2 7381  13.524   4.385   0.886  0.5384  0.4795 -0.0534
29797SOL     OW 7382   7.826   8.630   8.888  0.2379  0.4828  0.2113
29797SOL    HW1 7383   7.849   8.555   8.834 -0.7803  0.1166  0.2530
29797SOL    HW2 7384   7.804   8.700   8.826  0.9549  0.6821  0.1726
29798SOL     OW 7385   7.936   9.273  11.040  0.6655  0.2219 -0.1786
29798SOL    HW1 7386   7.993   9.344  11.071  1.5479  0.0952 -1.4468
29798SOL    HW2 7387   7.918   9.294  10.949  0.1909 -0.7302 -0.3187
29799SOL     OW 7388   4.629  10.542   0.701  0.5940 -0.1497  0.3981
29799SOL    HW1 7389   4.605  10.493   0.780 -0.1248  1.5890  1.3086
29799SOL    HW2 7390   4.586  10.495   0.629  2.4654 -2.6425  0.7557
29800SOL     OW 7391   9.589   6.293   6.915 -0.1352  0.1079  0.7561
29800SOL    HW1 7392   9.506   6.335   6.894  0.1864 -0.3766 -1.7060
29800SOL    HW2 7393   9.580   6.203   6.883  1.8805  0.5065 -1.1621
29801SOL     OW 7394  13.791   1.830  11.480 -1.2231  0.1477  0.3181
29801SOL    HW1 7395  13.777   1.737  11.467 -0.1920 -0.2198  1.6224
29801SOL    HW2 7396  13.883   1.844  11.458 -1.3433  0.8545  0.2212
29802SOL     OW 7397  12.819   7.123   0.856 -0.2786  0.0312  0.3148
29802SOL    HW1 7398  12.895   7.073   0.826 -1.2742 -0.3874 -1.6952
29802SOL    HW2 7399  12.820   7.202   0.802 -0.1974  0.9851  1.6595
29803SOL     OW 7400   0.087  12.111   2.483 -0.0395  0.2013  0.1808
29803SOL    HW1 7401   0.179  12.138   2.493  0.7765 -1.7386 -1.4213
29803SOL    HW2 7402   0.061  12.147   2.398 -1.6135  2.7118  1.5818
29804SOL     OW 7403   5.861   6.404  10.251  0.5933  0.4221  0.4696
29804SOL    HW1 7404   5.861   6.498  10.234 -0.9947  0.4734  0.5359
29804SOL    HW2 7405   5.791   6.370  10.194 -2.7111  0.1205  4.2537
29805SOL     OW 7406   2.553   4.207   5.199  0.5828 -1.3669 -0.0000
29805SOL    HW1 7407   2.504   4.266   5.255  2.1254 -1.4243  1.5021
29805SOL    HW2 7408   2.514   4.121   5.214  0.4971 -1.2593  0.3945
29806SOL     OW 7409   8.504   5.740   9.183  0.0507 -0.5497 -0.2443
29806SOL    HW1 7410   8.553   5.815   9.219 -0.1206 -0.1715 -0.7956
29806SOL    HW2 7411   8.459   5.775   9.106 -0.2869 -1.1459 -0.3218
29807SOL     OW 7412   3.556   6.773  13.194  0.4367  0.6185 -0.3726
29807SOL    HW1 7413   3.504   6.832  13.139 -0.6855  0.7800  0.8128
29807SOL    HW2 7414   3.581   6.702  13.135  1.3791  1.9742 -1.7034
29808SOL     OW 7415   8.931  14.074   7.746  0.3398 -0.1613  0.2006
29808SOL    HW1 7416   8.905  14.084   7.838  2.3741  1.0291  0.7321
29808SOL    HW2 7417   8.958  14.162   7.720  0.3610 -0.6041 -1.3688
29809SOL     OW 7418   3.490  12.646   8.460  0.2390 -0.3469  0.1695
29809SOL    HW1 7419   3.561  12.690   8.506  0.1319 -1.1640  1.1544
29809SOL    HW2 7420   3.421  12.712   8.455  0.0204 -0.3930  1.7738
29810SOL     OW 7421   5.351  11.025   2.097  0.5042 -0.1204 -0.1469
29810SOL    HW1 7422   5.421  10.979   2.142 -0.5408  0.2252  1.9720
29810SOL    HW2 7423   5.289  10.956   2.071 -0.3432 -0.1213  1.7111
29811SOL     OW 7424   7.783   3.608   2.900 -0.2283  0.4105  0.5105
29811SOL    HW1 7425   7.859   3.665   2.902  0.1098  0.0093 -0.3734
29811SOL    HW2 7426   7.793   3.551   2.976 -0.0827  0.8976  0.8592
29812SOL     OW 7427   9.173   7.979   3.662 -0.2607 -0.3052  0.3914
29812SOL    HW1 7428   9.242   8.005   3.723 -0.3016  1.2862 -0.1977
29812SOL    HW2 7429   9.099   8.036   3.684 -0.7306 -0.6520 -0.2533
29813SOL     OW 7430   6.582   1.036   0.570  0.6243  0.4723 -0.5146
29813SOL    HW1 7431   6.557   0.952   0.532  1.4356 -0.0536  0.0743
29813SOL    HW2 7432   6.635   1.078   0.502 -1.9179  1.7009 -1.8685
29814SOL     OW 7433  11.970   0.625   1.387 -0.0336  1.1696  0.0333
29814SOL    HW1 7434  11.940   0.608   1.477 -0.7364 -2.9022 -0.7591
29814SOL    HW2 7435  12.065   0.615   1.392 -0.2650 -2.8702 -0.0647
29815SOL     OW 7436   5.885  10.452   6.761 -0.2848 -0.2237  0.5639
29815SOL    HW1 7437   5.847  10.370   6.794  0.4804 -1.2298 -0.9314
29815SOL    HW2 7438   5.830  10.474   6.685 -1.1887  1.3128  1.5950
29816SOL     OW 7439  10.162  13.674   2.952  0.3153 -0.0325  0.7853
29816SOL    HW1 7440  10.119  13.686   2.867  0.6091  0.6882  0.7329
29816SOL    HW2 7441  10.092  13.682   3.016  0.4329  1.7988  0.7436
29817SOL     OW 7442   6.262   1.476  11.034 -0.1968 -0.3181 -0.4268
29817SOL    HW1 7443   6.260   1.381  11.038 -0.7185 -0.3825 -1.7361
29817SOL    HW2 7444   6.352   1.499  11.059 -0.1320 -1.1337  0.1204
29818SOL     OW 7445  11.892   0.296   4.745 -0.0273 -0.0370 -0.0377
29818SOL    HW1 7446  11.927   0.385   4.748  0.3754 -0.1862 -0.1876
29818SOL    HW2 7447  11.851   0.284   4.831  0.1305  0.2096  0.0757
29819SOL     OW 7448   3.629   5.351  10.841  0.1791  0.6082  0.4124
29819SOL    HW1 7449   3.605   5.381  10.928  1.1426 -1.1419  1.3288
29819SOL    HW2 7450   3.547   5.324  10.801 -0.4441  2.5514  0.2631
29820SOL     OW 7451  10.116  14.145   6.691  0.1314 -0.1451  0.3170
29820SOL    HW1 7452  10.115  14.093   6.771  0.2387 -0.7912 -0.0999
29820SOL    HW2 7453  10.198  14.122   6.648  0.1700  0.3549  0.1156
29821SOL     OW 7454  13.099   6.853   8.755  0.1316 -0.4694  0.2011
29821SOL    HW1 7455  13.012   6.819   8.774 -0.3340  1.1829  1.1849
29821SOL    HW2 7456  13.092   6.947   8.766  1.2149  0.1263 -3.0619
29822SOL     OW 7457   4.610  13.259   7.691 -0.2909  0.2295 -0.0178
29822SOL    HW1 7458   4.523  13.223   7.708  0.1110 -0.7327  0.0495
29822SOL    HW2 7459   4.603  13.351   7.717 -0.7615 -0.2677  1.7583
29823SOL     OW 7460   2.184   3.912  14.105  0.4598  0.1420 -0.1322
29823SOL    HW1 7461   2.246   3.969  14.151  1.2957 -0.9760  0.1600
29823SOL    HW2 7462   2.138   3.866  14.175 -1.7717  1.9980 -0.2835
29824SOL     OW 7463  10.793   1.611  11.959  0.4181  0.2629 -0.0402
29824SOL    HW1 7464  10.710   1.580  11.995 -0.6829  1.7017 -1.2030
29824SOL    HW2 7465  10.806   1.698  11.998  1.4829 -0.0032  0.2483
29825SOL     OW 7466   5.062  11.168  10.140 -0.0523  0.1105 -0.0570
29825SOL    HW1 7467   5.008  11.239  10.175 -2.2151 -1.2292 -0.5149
29825SOL    HW2 7468   5.133  11.213  10.094 -1.0468  1.9659  0.1209
29826SOL     OW 7469   7.850   4.704   0.873 -0.7799  0.0059  0.2577
29826SOL    HW1 7470   7.914   4.668   0.935  0.0043  0.1833 -0.4366
29826SOL    HW2 7471   7.779   4.640   0.874  0.2964 -1.2862 -0.4596
29827SOL     OW 7472   4.782   9.831  13.808 -0.4829  0.0272 -0.1943
29827SOL    HW1 7473   4.803   9.817  13.716  0.0612  0.1198 -0.0892
29827SOL    HW2 7474   4.720   9.903  13.808  1.7493  2.0807 -0.3327
29828SOL     OW 7475  12.955  10.618   6.349  0.2775 -0.0664  0.0902
29828SOL    HW1 7476  12.956  10.582   6.437 -2.2014 -0.5405  0.0062
29828SOL    HW2 7477  12.930  10.544   6.293  0.3968  0.5548 -0.8119
29829SOL     OW 7478   0.124   1.440   7.493  0.3720 -0.2543  0.2815
29829SOL    HW1 7479   0.174   1.489   7.558  0.8731 -0.8380  0.3519
29829SOL    HW2 7480   0.033   1.459   7.513  0.5491  0.3030  0.5752
29830SOL     OW 7481  13.630  12.348   4.328 -0.2683 -0.2786  0.0296
29830SOL    HW1 7482  13.686  12.306   4.394 -0.7219  0.5899  0.9927
29830SOL    HW2 7483  13.681  12.342   4.247  0.6455 -0.6772  0.6122
29831SOL     OW 7484   4.341  10.816  10.245  0.4789  0.9649 -0.0734
29831SOL    HW1 7485   4.387  10.897  10.263  0.5680  1.3680 -1.8618
29831SOL    HW2 7486   4.265  10.817  10.304 -0.4486  3.1892 -1.1747
29832SOL     OW 7487   9.731  10.024   2.274 -0.2500  0.5184  0.1178
29832SOL    HW1 7488   9.795  10.060   2.212  2.1800 -0.3928  1.9310
29832SOL    HW2 7489   9.761  10.054   2.360 -3.4198  1.6165  0.9664
29833SOL     OW 7490   0.396   9.499   0.287  0.1488  0.3239  0.1436
29833SOL    HW1 7491   0.393   9.512   0.192  0.2005  2.7072  0.3997
29833SOL    HW2 7492   0.487   9.475   0.305  0.4233  1.0187 -0.2930
29834SOL     OW 7493   4.944   7.286  10.949 -0.9125  0.5502  0.9238
29834SOL    HW1 7494   4.906   7.211  10.903  1.0517  0.0400  0.0183
29834SOL    HW2 7495   5.033   7.259  10.971  0.6053  3.2158 -1.1812
29835SOL     OW 7496  12.622  13.253   9.944  0.0003 -0.0375 -0.0757
29835SOL    HW1 7497  12.630  13.330  10.000  0.1803  1.1613 -1.6916
29835SOL    HW2 7498  12.531  13.253   9.916  0.3104  0.3688 -1.1306
29836SOL     OW 7499   8.377   8.564   4.381  0.4416 -0.0104  0.3635
29836SOL    HW1 7500   8.338   8.491   4.333  0.7290  0.6969 -1.0179
29836SOL    HW2 7501   8.462   8.578   4.339  0.4610  0.9974  0.6973
29837SOL     OW 7502   2.068  10.633   5.119 -0.1497  0.0929  0.1152
29837SOL    HW1 7503   2.164  10.638   5.123  0.0366  0.1669 -2.5143
29837SOL    HW2 7504   2.039  10.660   5.205  2.2226 -0.9828  1.3588
29838SOL     OW 7505   8.989   2.028  13.024 -0.1723  0.1605 -0.6564
29838SOL    HW1 7506   8.995   1.987  12.937 -0.5762  0.8530 -1.0212
29838SOL    HW2 7507   9.078   2.023  13.059  0.0750  0.2050 -1.2626
29839SOL     OW 7508  10.576   1.958   0.512 -0.3253 -0.2510  0.3633
29839SOL    HW1 7509  10.644   2.026   0.507 -0.3336 -0.2107  0.7614
29839SOL    HW2 7510  10.496   2.007   0.528 -0.0543 -0.4660  2.6431
29840SOL     OW 7511   0.425  11.845  10.471 -0.3717 -0.0350  0.4703
29840SOL    HW1 7512   0.516  11.836  10.497 -0.3172  2.0815  1.2197
29840SOL    HW2 7513   0.382  11.886  10.546 -1.8441 -0.5837 -0.0358
29841SOL     OW 7514   9.609  13.728   8.532 -0.0471  0.0854 -0.0025
29841SOL    HW1 7515   9.627  13.818   8.503 -0.3834  0.1777  0.0773
29841SOL    HW2 7516   9.514  13.724   8.541 -0.0498 -0.3337 -0.1831
29842SOL     OW 7517   5.789   2.181   3.484 -0.5443 -0.2461  0.2279
29842SOL    HW1 7518   5.843   2.247   3.441  1.6384 -1.6194  0.7442
29842SOL    HW2 7519   5.836   2.099   3.471 -2.2272 -1.4251  1.2211
29843SOL     OW 7520   8.659  13.666   1.221 -0.1322  0.7507 -0.0729
29843SOL    HW1 7521   8.604  13.600   1.179 -0.2192  0.4883  0.4453
29843SOL    HW2 7522   8.599  13.716   1.276  0.1792  0.3124  0.6788
29844SOL     OW 7523   7.716   2.858  13.351 -0.3780 -0.0327  0.3512
29844SOL    HW1 7524   7.732   2.939  13.302  0.3157 -0.5186 -0.2458
29844SOL    HW2 7525   7.622   2.843  13.342 -0.8393  1.5761  1.8563
29845SOL     OW 7526   5.836   1.154   4.014  0.0981 -0.4151  0.5040
29845SOL    HW1 7527   5.787   1.085   3.969  1.4116 -0.4462 -0.9613
29845SOL    HW2 7528   5.817   1.140   4.107 -0.8272 -1.8279  0.1393
29846SOL     OW 7529   5.640  10.769   7.425 -0.7866  0.7648  0.1115
29846SOL    HW1 7530   5.718  10.762   7.368 -1.5976  1.2169 -1.0951
29846SOL    HW2 7531   5.647  10.694   7.484  1.4710  1.7510  1.2238
29847SOL     OW 7532   8.666  12.821  10.268  0.5865 -0.6618  0.3375
29847SOL    HW1 7533   8.693  12.748  10.323  0.9082 -1.0178 -0.2912
29847SOL    HW2 7534   8.745  12.847  10.221  0.1149 -0.9494 -0.6411
29848SOL     OW 7535   1.351   8.486   4.383 -0.3433 -0.5642  0.1350
29848SOL    HW1 7536   1.404   8.533   4.447  1.5631 -2.7989  0.3274
29848SOL    HW2 7537   1.281   8.446   4.434  0.8779 -1.9192  0.8231
29849SOL     OW 7538   8.190  11.257   8.565  0.0791  0.1809 -0.3203
29849SOL    HW1 7539   8.217  11.213   8.646  0.0716 -0.1080 -0.4748
29849SOL    HW2 7540   8.130  11.325   8.594 -3.5444 -2.6679 -0.3609
29850SOL     OW 7541   8.075  10.056   3.814  0.1060 -0.7829  0.0664
29850SOL    HW1 7542   8.150  10.001   3.789  1.1219 -0.6623  2.5737
29850SOL    HW2 7543   8.077  10.057   3.909 -2.3831  0.2719  0.1784
29851SOL     OW 7544   5.236   8.782   5.277  0.9916  0.1019 -0.7097
29851SOL    HW1 7545   5.184   8.803   5.200  0.5236  3.0275  0.2976
29851SOL    HW2 7546   5.180   8.805   5.351  2.1406 -0.8001  0.4918
29852SOL     OW 7547  13.272   8.511   3.672  0.5315 -0.0598  0.4500
29852SOL    HW1 7548  13.349   8.491   3.726 -0.3922  0.2119  1.9180
29852SOL    HW2 7549  13.272   8.444   3.604  3.8208  1.6946 -1.5455
29853SOL     OW 7550  13.331   1.065  10.492  0.2594  0.5701 -0.1075
29853SOL    HW1 7551  13.278   1.118  10.432 -0.0495  1.9310  1.2975
29853SOL    HW2 7552  13.398   1.125  10.524  0.8219 -0.3079  0.4077
29854SOL     OW 7553   5.216  11.145  10.971 -0.4064  0.1016 -0.6705
29854SOL    HW1 7554   5.134  11.098  10.984  0.7388 -1.5181  1.2323
29854SOL    HW2 7555   5.262  11.096  10.902  0.0006 -0.4859  0.0109
29855SOL     OW 7556   0.794   9.707  12.131 -0.5232  0.3081 -0.0621
29855SOL    HW1 7557   0.857   9.698  12.060  1.5748 -1.1287  1.8524
29855SOL    HW2 7558   0.799   9.799  12.155  3.5478 -0.2713  2.2066
29856SOL     OW 7559   0.417  10.767  10.940 -0.5311 -0.7110  0.0186
29856SOL    HW1 7560   0.512  10.775  10.944 -0.5989 -0.1248  0.5625
29856SOL    HW2 7561   0.402  10.680  10.900  0.2243  0.1226 -2.2749
29857SOL     OW 7562   5.275   6.660  11.133 -0.1389  0.5685 -0.4386
29857SOL    HW1 7563   5.343   6.613  11.182 -1.0556 -1.5605 -1.0797
29857SOL    HW2 7564   5.320   6.696  11.057  0.8869  2.1608  0.8385
29858SOL     OW 7565  14.060  11.455   5.401 -0.6031  0.6919 -0.1210
29858SOL    HW1 7566  14.050  11.449   5.306 -1.0858  1.5917 -0.1336
29858SOL    HW2 7567  14.068  11.548   5.419  1.1076  0.4515  0.5845
29859SOL     OW 7568   7.592   9.933   6.287  0.2179 -0.2625 -0.1904
29859SOL    HW1 7569   7.523   9.874   6.317  0.3914  0.4616  1.8000
29859SOL    HW2 7570   7.602   9.914   6.194 -0.8424 -2.2148  0.0544
29860SOL     OW 7571   0.753  10.088  13.924  0.3162 -0.1271  0.3486
29860SOL    HW1 7572   0.842  10.081  13.957  1.1727 -0.1180 -1.7969
29860SOL    HW2 7573   0.704  10.022  13.974  1.7359 -0.8484  0.8599
29861SOL     OW 7574  13.956   0.443   5.088  0.6311  0.0214  0.4257
29861SOL    HW1 7575  13.969   0.350   5.070 -0.1398  0.3673 -2.2939
29861SOL    HW2 7576  14.007   0.459   5.167  0.5924 -2.7451  1.1084
29862SOL     OW 7577  14.007   9.644   3.411  0.2388  0.7541  0.4255
29862SOL    HW1 7578  13.922   9.623   3.372  0.5158  0.9698 -0.3282
29862SOL    HW2 7579  14.043   9.560   3.439  0.9793  0.2566 -1.8043
29863SOL     OW 7580  12.955   8.754   8.551  0.0786  0.4500  0.2362
29863SOL    HW1 7581  13.001   8.809   8.615  0.9451  0.7535 -0.6135
29863SOL    HW2 7582  12.883   8.809   8.519  1.4822  1.5283 -1.2906
29864SOL     OW 7583   0.387   3.033   9.491  0.4169 -0.4124  0.1214
29864SOL    HW1 7584   0.445   2.981   9.436 -1.5662 -1.9599 -0.6222
29864SOL    HW2 7585   0.315   2.974   9.513  0.8659  0.2364  4.0929
29865SOL     OW 7586  11.557   6.130   2.558  0.0907  0.3339  0.2954
29865SOL    HW1 7587  11.548   6.201   2.622  1.4418  0.5308  0.2852
29865SOL    HW2 7588  11.648   6.102   2.565 -0.4338 -1.4898  0.3747
29866SOL     OW 7589   5.602   4.455   1.443 -0.2436  0.0998 -0.3875
29866SOL    HW1 7590   5.641   4.380   1.398 -2.3231 -1.1911 -0.2122
29866SOL    HW2 7591   5.663   4.527   1.428  0.9084 -1.1580 -2.2072
29867SOL     OW 7592   4.962   9.219  12.856 -0.1108 -0.3650 -0.2752
29867SOL    HW1 7593   4.940   9.173  12.937 -2.3675  0.5993 -0.2635
29867SOL    HW2 7594   4.942   9.155  12.787 -0.1347 -0.5047 -0.1409
29868SOL     OW 7595   5.481  12.656   2.991 -0.3739  0.1111  0.1591
29868SOL    HW1 7596   5.503  12.747   3.011  1.2883  0.0515 -1.2523
29868SOL    HW2 7597   5.492  12.648   2.897 -1.0640 -1.4249  0.1791
29869SOL     OW 7598  13.514   9.036   3.818  0.0346 -0.2934 -1.1036
29869SOL    HW1 7599  13.608   9.019   3.814 -0.0676 -0.5716 -3.5771
29869SOL    HW2 7600  13.505   9.108   3.880  1.9069 -0.1116 -1.0059
29870SOL     OW 7601  14.126   9.472   3.150 -0.0702  0.1318 -0.1709
29870SOL    HW1 7602  14.210   9.513   3.172 -0.7655  1.5739 -0.1350
29870SOL    HW2 7603  14.097   9.434   3.233  0.0379  0.5785  0.0774
29871SOL     OW 7604  13.960  11.305   4.841 -0.0542  0.0070  0.0177
29871SOL    HW1 7605  13.917  11.225   4.808  0.4838 -0.0898 -0.4642
29871SOL    HW2 7606  14.053  11.289   4.828  0.2303 -0.2524  2.1196
29872SOL     OW 7607  11.476   5.369   5.510 -0.3990 -0.1445 -0.0173
29872SOL    HW1 7608  11.479   5.274   5.505 -0.0345 -0.0603 -2.3617
29872SOL    HW2 7609  11.476   5.398   5.419  0.6754  2.1227  0.6356
29873SOL     OW 7610   9.966   7.653   9.043 -0.0459 -0.2097 -0.2115
29873SOL    HW1 7611   9.916   7.734   9.056  1.2430  0.4834  0.6545
29873SOL    HW2 7612  10.044   7.681   8.994  0.5661 -0.8624  0.3710
29874SOL     OW 7613   0.180   2.590  12.717 -0.5144  0.3312  0.4288
29874SOL    HW1 7614   0.199   2.655  12.649  0.0119 -0.3099 -0.0418
29874SOL    HW2 7615   0.266   2.569  12.754 -0.3254 -2.0366 -1.2014
29875SOL     OW 7616   7.231  10.880   7.728 -0.1327  0.0317  0.5777
29875SOL    HW1 7617   7.321  10.850   7.715 -0.5802 -0.4237 -2.0740
29875SOL    HW2 7618   7.190  10.811   7.781  0.7492 -0.3407  0.7959
29876SOL     OW 7619   9.171   6.384   3.413  0.3877  0.1040 -0.5234
29876SOL    HW1 7620   9.236   6.324   3.377 -2.2128 -1.8364 -2.3876
29876SOL    HW2 7621   9.150   6.443   3.341 -0.9376 -0.2415 -0.4432
29877SOL     OW 7622   2.533  14.128   4.536  0.5055 -0.5835  0.0290
29877SOL    HW1 7623   2.589  14.055   4.510 -0.1994 -1.8372  1.8540
29877SOL    HW2 7624   2.445  14.100   4.514  0.1779 -0.5165  1.1794
29878SOL     OW 7625  10.434  13.656   4.799 -0.5972  0.5339  0.5388
29878SOL    HW1 7626  10.485  13.579   4.774  0.3282  0.8835  1.3102
29878SOL    HW2 7627  10.430  13.654   4.894  0.0469  1.8156  0.6190
29879SOL     OW 7628   9.266   2.189   7.821  0.3825  0.5110  0.0050
29879SOL    HW1 7629   9.249   2.237   7.740  1.1904 -0.4829 -0.7866
29879SOL    HW2 7630   9.359   2.203   7.838  0.3280  0.3042  0.4942
29880SOL     OW 7631   2.291   5.057   1.055  0.1038 -0.6092  0.1630
29880SOL    HW1 7632   2.236   5.073   1.132 -0.2399 -1.8886  0.2197
29880SOL    HW2 7633   2.308   5.143   1.019  0.6804  0.0610  1.9424
29881SOL     OW 7634   8.768  12.429   6.641  0.1602 -0.3664 -0.4185
29881SOL    HW1 7635   8.775  12.343   6.599 -1.8898 -0.8595  0.1710
29881SOL    HW2 7636   8.676  12.454   6.631  0.3446  0.9806  0.9226
29882SOL     OW 7637   7.712   7.480   2.116  0.1648  0.0566  0.1671
29882SOL    HW1 7638   7.687   7.528   2.037 -0.1780  0.2203  0.3711
29882SOL    HW2 7639   7.630   7.443   2.148  0.6197 -1.9560 -0.8214
29883SOL     OW 7640   5.547  10.276  11.380 -0.4289  0.4135  0.7722
29883SOL    HW1 7641   5.545  10.325  11.297 -3.5576 -0.4899  0.2007
29883SOL    HW2 7642   5.459  10.286  11.416  0.7584  0.5678  3.9485
29884SOL     OW 7643  13.083   9.312   2.245  0.2460  0.1693 -0.1251
29884SOL    HW1 7644  13.110   9.254   2.174 -1.3027  1.6055 -2.0077
29884SOL    HW2 7645  13.144   9.385   2.242  0.7660 -0.2200  0.6890
29885SOL     OW 7646   2.174   5.717   2.862 -0.1239 -0.2624  0.8159
29885SOL    HW1 7647   2.148   5.804   2.893 -0.3121 -0.2479  0.6108
29885SOL    HW2 7648   2.252   5.697   2.914 -0.7716 -0.4914  1.7348
29886SOL     OW 7649   6.143   0.175   4.715  0.0119  0.0509 -0.9170
29886SOL    HW1 7650   6.122   0.145   4.626  0.1230 -0.9488 -0.6179
29886SOL    HW2 7651   6.149   0.094   4.766 -4.1905  0.7224  0.9893
29887SOL     OW 7652   9.326   7.073   0.172  0.0454 -0.0813 -0.2786
29887SOL    HW1 7653   9.260   7.057   0.105 -0.8584 -0.1623  0.6077
29887SOL    HW2 7654   9.401   7.019   0.146 -0.2806 -0.0872 -1.2268
29888SOL     OW 7655   8.191   6.681   1.517 -0.0014  0.0176 -0.3513
29888SOL    HW1 7656   8.240   6.646   1.442  1.4949  0.4631  0.3757
29888SOL    HW2 7657   8.123   6.616   1.534  1.3663 -1.4963 -0.3911
29889SOL     OW 7658   1.076  14.089   8.717 -0.4479 -0.0762 -0.7798
29889SOL    HW1 7659   1.103  14.108   8.627 -1.5947  1.0126 -0.9286
29889SOL    HW2 7660   0.987  14.055   8.708 -0.1693 -1.0072 -0.1155
29890SOL     OW 7661  13.608   7.200   7.188  0.3098  0.2222  0.4099
29890SOL    HW1 7662  13.596   7.116   7.144  0.8412 -0.2103  1.0601
29890SOL    HW2 7663  13.540   7.256   7.152  0.8330 -0.0525 -1.0790
29891SOL     OW 7664  13.085   1.171   5.558  0.7519 -0.4364  0.0365
29891SOL    HW1 7665  13.148   1.099   5.553  0.6759 -0.6838  1.8470
29891SOL    HW2 7666  13.038   1.155   5.640 -0.0710  1.0360 -0.1232
29892SOL     OW 7667   6.882   9.947   4.525  0.3142  0.8560  0.1841
29892SOL    HW1 7668   6.917   9.861   4.500  3.4554  1.9885  0.2178
29892SOL    HW2 7669   6.806   9.926   4.580 -0.5538 -1.8123 -1.8053
29893SOL     OW 7670  10.822  10.597   8.487 -0.0398 -0.3187 -0.2400
29893SOL    HW1 7671  10.793  10.672   8.434 -0.2664 -0.1277  0.1521
29893SOL    HW2 7672  10.744  10.542   8.495 -0.1487 -0.0779  0.3516
29894SOL     OW 7673   5.056   8.885  11.909  0.2945 -0.4871 -0.1177
29894SOL    HW1 7674   4.984   8.841  11.864  0.3718 -0.3827 -0.3479
29894SOL    HW2 7675   5.118   8.815  11.929 -0.5934 -0.8321  1.5239
29895SOL     OW 7676   8.926   5.058   3.179 -0.7554 -0.3320  0.1797
29895SOL    HW1 7677   8.997   5.101   3.225 -0.5611 -1.4834  0.9871
29895SOL    HW2 7678   8.901   5.120   3.110 -0.7709  1.2505  1.5452
29896SOL     OW 7679  13.364  12.099   8.174  0.2425 -0.0911 -0.2665
29896SOL    HW1 7680  13.335  12.059   8.256 -0.4680 -0.2154 -0.5750
29896SOL    HW2 7681  13.375  12.025   8.114  1.2920 -0.0584 -0.1378
29897SOL     OW 7682   2.090   5.060   6.617 -0.6040  0.7917 -0.0700
29897SOL    HW1 7683   2.171   5.052   6.668 -2.0939  2.5848  2.8101
29897SOL    HW2 7684   2.040   4.982   6.639 -0.8540  1.1162  0.5573
29898SOL     OW 7685   6.422   6.704  11.878  0.1409  0.0529 -0.1704
29898SOL    HW1 7686   6.385   6.616  11.876  0.1205  0.0039  1.4905
29898SOL    HW2 7687   6.498   6.697  11.936  0.3009  1.0667 -0.2363
29899SOL     OW 7688   9.079   5.454  13.153 -0.1909 -0.1584  0.6732
29899SOL    HW1 7689   9.161   5.494  13.182 -0.5585  0.6076  0.6767
29899SOL    HW2 7690   9.095   5.360  13.159  1.0452 -0.0395 -0.3282
29900SOL     OW 7691  12.269   6.347  13.583 -0.2460  0.1371  0.2688
29900SOL    HW1 7692  12.247   6.425  13.633  1.4466  0.8505 -0.0313
29900SOL    HW2 7693  12.231   6.363  13.496  2.6340  2.1253 -0.7760
29901SOL     OW 7694   1.475   8.394   7.373  0.1054  0.4215  0.5754
29901SOL    HW1 7695   1.526   8.330   7.424 -0.4518 -0.6157 -0.1412
29901SOL    HW2 7696   1.396   8.408   7.426 -0.0880 -0.0203  0.4116
29902SOL     OW 7697   6.201   9.956   9.210  0.2758 -0.2788 -0.3389
29902SOL    HW1 7698   6.128   9.901   9.183 -0.9849  0.7387  0.8236
29902SOL    HW2 7699   6.201  10.029   9.147  0.1962 -0.2109 -0.2611
29903SOL     OW 7700  10.803   8.296   1.697  0.1673  0.0004  0.1881
29903SOL    HW1 7701  10.731   8.243   1.732  0.8026  0.8133  2.9598
29903SOL    HW2 7702  10.861   8.233   1.655 -0.3729 -1.1502  1.1132
29904SOL     OW 7703   3.430   2.582  12.344  0.1557  0.2319  0.9764
29904SOL    HW1 7704   3.466   2.635  12.273 -2.6607 -0.4835 -1.1810
29904SOL    HW2 7705   3.421   2.642  12.418  0.8578  1.6645 -0.0648
29905SOL     OW 7706  12.097  12.230   0.163 -0.4724  0.7816 -0.0357
29905SOL    HW1 7707  12.120  12.138   0.166  1.2172  1.1754  0.1757
29905SOL    HW2 7708  12.006  12.233   0.190 -1.1884 -1.0077 -2.0021
29906SOL     OW 7709   5.857   7.260   9.429 -0.3775 -0.7084  0.4596
29906SOL    HW1 7710   5.798   7.332   9.449 -1.2247 -0.7089 -1.7745
29906SOL    HW2 7711   5.832   7.191   9.491 -0.3085  0.4783  1.8701
29907SOL     OW 7712  12.200   1.641  11.773  0.1424 -0.0276  0.0419
29907SOL    HW1 7713  12.151   1.568  11.811  0.8847 -0.3578  0.3774
29907SOL    HW2 7714  12.274   1.600  11.728 -0.3260  0.4100 -1.1636
29908SOL     OW 7715  14.012   5.298   1.859 -0.4033  0.0736 -0.1587
29908SOL    HW1 7716  14.038   5.207   1.877  0.7070 -0.0516 -2.1065
29908SOL    HW2 7717  13.944   5.291   1.793  0.3924  0.6701 -1.0588
29909SOL     OW 7718   9.309   1.912  12.841 -0.0149  0.2887 -0.4016
29909SOL    HW1 7719   9.335   1.985  12.784 -0.1460 -0.9224 -2.0899
29909SOL    HW2 7720   9.385   1.855  12.844 -0.0691  0.2467  0.5326
29910SOL     OW 7721  10.619   4.327   2.002 -0.5609 -1.1430 -0.0385
29910SOL    HW1 7722  10.646   4.323   2.094  1.5107 -0.4796 -0.5721
29910SOL    HW2 7723  10.540   4.380   2.002  0.5326  0.5721  1.1725
29911SOL     OW 7724   1.649   5.559   9.647 -0.1348  0.0394 -0.4852
29911SOL    HW1 7725   1.714   5.521   9.706  0.6921 -1.2889 -2.1596
29911SOL    HW2 7726   1.656   5.653   9.662  4.0421  0.2439 -2.2716
29912SOL     OW 7727   4.694   7.648  13.518  0.6464 -0.8728  0.0041
29912SOL    HW1 7728   4.742   7.653  13.435  0.1074  0.9074 -0.2289
29912SOL    HW2 7729   4.679   7.739  13.543  0.9576 -1.3599  2.1707
29913SOL     OW 7730   3.779   7.807  12.277 -0.4174  0.1611  0.7447
29913SOL    HW1 7731   3.794   7.735  12.339 -1.1525 -2.9732 -2.4310
29913SOL    HW2 7732   3.687   7.829  12.289 -0.1051  0.9497  1.9765
29914SOL     OW 7733  13.754   8.237   8.149 -0.0529 -0.4629 -0.1778
29914SOL    HW1 7734  13.717   8.150   8.163  0.7770 -0.8978 -0.5644
29914SOL    HW2 7735  13.765   8.273   8.238 -3.0938  0.4732 -0.0812
29915SOL     OW 7736   5.973   1.406   8.933  0.3681  0.6685 -0.1135
29915SOL    HW1 7737   5.978   1.448   9.018 -2.7875  1.7677 -0.3329
29915SOL    HW2 7738   5.911   1.333   8.946 -0.4801  1.1001 -1.4864
29916SOL     OW 7739   3.663   9.908   0.754  0.0151 -0.2978  0.4299
29916SOL    HW1 7740   3.706   9.987   0.786 -0.7888 -1.0524  3.7623
29916SOL    HW2 7741   3.571   9.919   0.777 -0.8773 -0.6332 -2.5379
29917SOL     OW 7742   7.942  10.883   1.584 -0.2464  0.3338  0.0581
29917SOL    HW1 7743   7.946  10.805   1.640  0.2361  0.9186  0.8552
29917SOL    HW2 7744   7.903  10.851   1.502  0.7181 -0.9266  0.0529
29918SOL     OW 7745   9.147   1.938  11.482 -0.1755  0.2918  0.2416
29918SOL    HW1 7746   9.154   1.869  11.548  0.4888  0.5228  0.4156
29918SOL    HW2 7747   9.054   1.937  11.456  0.1538 -1.8927 -1.0715
29919SOL     OW 7748   7.366  12.674   0.130  0.5100  0.3094  0.3890
29919SOL    HW1 7749   7.337  12.741   0.068  0.8498 -1.1668 -1.4645
29919SOL    HW2 7750   7.285  12.631   0.158  0.5010 -1.1421 -1.6345
29920SOL     OW 7751   5.569  13.377   0.230  0.6088  0.3490  0.2246
29920SOL    HW1 7752   5.616  13.365   0.312  1.6081  0.7656 -0.2700
29920SOL    HW2 7753   5.582  13.470   0.208  0.3309  0.2500 -0.3908
29921SOL     OW 7754   8.475   8.261   4.472 -0.3462 -0.2897 -0.5853
29921SOL    HW1 7755   8.531   8.289   4.399 -1.2668 -0.7836 -1.5094
29921SOL    HW2 7756   8.525   8.191   4.514  0.2396  0.0627 -0.6795
29922SOL     OW 7757  10.794   6.340   8.846  0.1392 -0.1582  0.1192
29922SOL    HW1 7758  10.867   6.283   8.870 -0.6976 -1.5712 -0.5514
29922SOL    HW2 7759  10.824   6.385   8.768 -0.3747 -2.2244 -1.3554
29923SOL     OW 7760   4.264   6.257   3.815 -0.4214  0.3111  0.0382
29923SOL    HW1 7761   4.207   6.298   3.750 -0.4217 -1.9968 -1.5582
29923SOL    HW2 7762   4.353   6.270   3.781 -0.3957 -0.5506 -0.2652
29924SOL     OW 7763   3.639  10.253   6.281 -0.0562  0.3201 -0.1125
29924SOL    HW1 7764   3.734  10.249   6.276 -0.0382  0.0447  0.4293
29924SOL    HW2 7765   3.619  10.347   6.288  0.0361  0.6033 -2.5884
29925SOL     OW 7766   0.032   5.602   3.558  0.1643  0.3524  0.3885
29925SOL    HW1 7767  -0.027   5.563   3.623 -0.4424  1.7865  0.7561
29925SOL    HW2 7768  -0.027   5.640   3.493  0.7645 -0.5132 -0.6805
29926SOL     OW 7769  13.972  10.051  10.685 -0.6242  0.4003 -0.2158
29926SOL    HW1 7770  14.024  10.064  10.606 -1.6169  1.1936 -0.7545
29926SOL    HW2 7771  14.036  10.048  10.756  0.1454  1.4976 -0.8430
29927SOL     OW 7772   7.844   5.152   7.383 -0.0131  0.1618  0.4214
29927SOL    HW1 7773   7.849   5.228   7.441 -0.3351  1.9504 -1.7282
29927SOL    HW2 7774   7.765   5.167   7.330 -0.6854 -2.2401  0.6116
29928SOL     OW 7775   7.113  12.474  10.893 -0.3210 -0.3811  0.3906
29928SOL    HW1 7776   7.093  12.496  10.984 -0.4420  0.3567  0.1866
29928SOL    HW2 7777   7.145  12.555  10.855 -2.3610 -0.0631 -0.8110
29929SOL     OW 7778   6.341   8.307  12.412 -0.1931  0.1327  0.0199
29929SOL    HW1 7779   6.297   8.272  12.334 -0.7093  1.5707 -0.3669
29929SOL    HW2 7780   6.380   8.230  12.454  3.0640 -0.4533 -3.4368
29930SOL     OW 7781   5.114   0.045  10.961 -0.3429 -0.0950 -0.4002
29930SOL    HW1 7782   5.145   0.117  11.016  5.2517 -2.0828 -0.2517
29930SOL    HW2 7783   5.082  -0.020  11.023 -0.0875  0.1214 -0.0326
29931SOL     OW 7784   5.869  10.830   2.039 -0.0030  0.4680  0.1656
29931SOL    HW1 7785   5.798  10.775   2.006  0.6281 -1.4273  1.7423
29931SOL    HW2 7786   5.897  10.882   1.964 -0.4329 -1.6379 -1.5474
29932SOL     OW 7787   8.756   0.103  12.566  0.2296  0.5129  0.2641
29932SOL    HW1 7788   8.807   0.093  12.485 -0.5041 -0.3698 -0.0959
29932SOL    HW2 7789   8.794   0.180  12.608  0.6797  0.9367 -0.8789
29933SOL     OW 7790  11.029   8.484  11.503 -0.6913  0.4559 -0.0872
29933SOL    HW1 7791  10.974   8.407  11.521 -1.8194  0.9680 -1.1982
29933SOL    HW2 7792  10.969   8.549  11.468  0.3146  1.7407  0.4915
29934SOL     OW 7793   9.630  10.965   7.806 -0.4439  0.6554 -0.0287
29934SOL    HW1 7794   9.679  10.895   7.763 -1.4814 -0.4196  0.4965
29934SOL    HW2 7795   9.686  11.042   7.798  0.3669 -0.0386 -1.3289
29935SOL     OW 7796  11.139   5.609  10.906  0.3508 -0.1216 -0.6891
29935SOL    HW1 7797  11.065   5.591  10.849 -0.3851 -1.6273  0.6623
29935SOL    HW2 7798  11.215   5.613  10.847 -0.5505 -0.3190 -1.8923
29936SOL     OW 7799  10.847   4.166   9.673 -0.2679 -0.1448  0.2413
29936SOL    HW1 7800  10.841   4.111   9.595 -1.3209  0.1919  0.0740
29936SOL    HW2 7801  10.897   4.113   9.735 -0.4345 -0.8998 -0.2570
29937SOL     OW 7802  10.087   1.904   2.217 -0.0942  0.1663  0.2001
29937SOL    HW1 7803  10.144   1.854   2.274  1.7363 -0.3035 -1.8976
29937SOL    HW2 7804  10.146   1.961   2.167 -1.5197  0.2270 -1.5265
29938SOL     OW 7805   6.152   5.224  14.073  0.1116 -0.0471 -0.5507
29938SOL    HW1 7806   6.243   5.253  14.074 -0.0386  0.4328 -0.4898
29938SOL    HW2 7807   6.114   5.264  13.995  0.1358 -0.8320 -0.9722
29939SOL     OW 7808   6.042   0.699   9.490  0.3841  0.1626 -0.4857
29939SOL    HW1 7809   6.061   0.791   9.506 -2.7755  0.6464  1.3244
29939SOL    HW2 7810   5.974   0.699   9.423  0.6389 -0.8812 -0.7660
29940SOL     OW 7811  10.719   8.651   8.992 -0.1614 -0.4861 -0.0042
29940SOL    HW1 7812  10.802   8.607   8.973 -0.0409 -0.1099 -0.3552
29940SOL    HW2 7813  10.669   8.587   9.041 -0.3664 -1.3750 -1.3412
29941SOL     OW 7814   8.637   3.642  13.715  0.0288 -0.4612 -0.5899
29941SOL    HW1 7815   8.718   3.673  13.673 -0.6551 -0.9532 -2.3513
29941SOL    HW2 7816   8.623   3.555  13.679 -0.6848 -0.8625  0.5958
29942SOL     OW 7817   0.942   6.775  10.906  0.4159 -0.3234  0.8123
29942SOL    HW1 7818   0.923   6.682  10.916  2.7502 -0.9832 -0.2139
29942SOL    HW2 7819   0.881   6.805  10.838  0.1109 -1.2683  0.6606
29943SOL     OW 7820   1.188   8.370   1.212 -0.2734  0.3596 -0.5481
29943SOL    HW1 7821   1.248   8.399   1.282 -1.0437  1.3426 -0.2781
29943SOL    HW2 7822   1.212   8.424   1.136  1.6945 -1.8486 -1.6169
29944SOL     OW 7823  13.046   2.926   9.135  0.1546  0.0745  0.3926
29944SOL    HW1 7824  13.140   2.922   9.155 -0.2627  1.1595  2.9251
29944SOL    HW2 7825  13.011   2.991   9.197 -2.5393 -1.4526  0.6174
29945SOL     OW 7826   5.884   1.056   0.003  0.4157 -0.6145 -0.1668
29945SOL    HW1 7827   5.944   0.996  -0.041  0.3543 -0.3154 -0.6651
29945SOL    HW2 7828   5.812   1.000   0.033  1.6300 -1.2214  1.7548
29946SOL     OW 7829  13.524   8.196  10.551 -0.2584 -0.2848  0.1116
29946SOL    HW1 7830  13.568   8.279  10.533 -0.4335 -0.6032 -2.0605
29946SOL    HW2 7831  13.590   8.142  10.595  0.1024  0.7114  0.8181
29947SOL     OW 7832   4.364   6.475   4.272  0.0965  0.0132 -0.5408
29947SOL    HW1 7833   4.346   6.561   4.309  1.1114  0.1156 -0.2575
29947SOL    HW2 7834   4.459   6.474   4.259 -0.1095 -0.4373 -2.1168
29948SOL     OW 7835   5.218   8.815  11.092 -0.2168  0.4448  0.4723
29948SOL    HW1 7836   5.208   8.722  11.111 -1.8360  0.4474 -0.1570
29948SOL    HW2 7837   5.175   8.859  11.166  2.1115  0.7913  1.6932
29949SOL     OW 7838   0.344   7.139   7.938 -0.4902  0.0683 -0.1624
29949SOL    HW1 7839   0.254   7.125   7.966 -0.7351  1.6560 -0.0958
29949SOL    HW2 7840   0.345   7.111   7.846 -0.6316 -1.4765  0.2793
29950SOL     OW 7841   1.106   5.255  10.836 -0.0283 -0.0651 -0.3693
29950SOL    HW1 7842   1.039   5.244  10.904  0.3915 -0.7261 -0.0427
29950SOL    HW2 7843   1.128   5.348  10.838 -0.8199  0.1299 -0.3738
29951SOL     OW 7844   8.935   3.166   7.673  0.0646 -0.0434 -0.3537
29951SOL    HW1 7845   8.929   3.149   7.767 -0.4125 -0.2987 -0.4263
29951SOL    HW2 7846   8.921   3.260   7.665  0.3264  0.0134 -0.1492
29952SOL     OW 7847  11.652   4.681   8.555  0.5380  0.1564  0.4468
29952SOL    HW1 7848  11.618   4.729   8.480  1.0215  1.3015  0.9394
29952SOL    HW2 7849  11.733   4.725   8.577 -0.0113  0.3826  2.1669
29953SOL     OW 7850  11.368   4.699   5.210 -0.1666 -0.1684 -0.3160
29953SOL    HW1 7851  11.367   4.781   5.260 -1.8986 -0.2485 -0.1844
29953SOL    HW2 7852  11.398   4.634   5.274 -0.3081  0.0880  0.0201
29954SOL     OW 7853   0.611   4.561  11.111  0.0549  0.4320  0.0720
29954SOL    HW1 7854   0.518   4.579  11.124  0.0588  2.2003 -1.8131
29954SOL    HW2 7855   0.615   4.515  11.027  0.9375  1.3124 -0.3875
29955SOL     OW 7856   6.283   3.501   9.590  0.0742  0.1460  0.1256
29955SOL    HW1 7857   6.244   3.530   9.673 -1.0003  2.0681 -0.9840
29955SOL    HW2 7858   6.375   3.486   9.611  0.1860  2.1882  1.3533
29956SOL     OW 7859   8.728   2.643   9.008 -0.0201 -0.6481  0.0725
29956SOL    HW1 7860   8.811   2.596   9.014 -0.7321 -1.9383  0.2195
29956SOL    HW2 7861   8.697   2.626   8.919 -0.7932 -1.3653  0.4687
29957SOL     OW 7862   2.898  10.678   4.165 -0.1589  0.2743 -0.2358
29957SOL    HW1 7863   2.959  10.700   4.235 -1.6704 -2.9906  2.4285
29957SOL    HW2 7864   2.907  10.583   4.155 -0.8749  0.4377 -3.7610
29958SOL     OW 7865  11.840  11.079  10.814 -0.4105 -0.4426  0.8321
29958SOL    HW1 7866  11.871  11.159  10.855 -0.4861  0.0553 -0.0433
29958SOL    HW2 7867  11.800  11.108  10.732  0.3740 -1.4419  0.0535
29959SOL     OW 7868  12.988   3.861   8.077 -0.2982  0.1039  0.9778
29959SOL    HW1 7869  13.070   3.901   8.106  0.0109 -0.0988  0.3912
29959SOL    HW2 7870  13.004   3.837   7.986 -0.6598 -0.8655  1.1589
29960SOL     OW 7871   8.883   8.108  13.026 -0.3793 -0.5290 -0.0822
29960SOL    HW1 7872   8.905   8.099  13.119  0.5383  1.6899 -0.0298
29960SOL    HW2 7873   8.903   8.199  13.006 -3.2400 -0.1872 -1.7782
29961SOL     OW 7874   0.679   0.612   2.495 -0.1981 -0.1813  0.2069
29961SOL    HW1 7875   0.738   0.553   2.448 -0.0873 -1.4487  1.8499
29961SOL    HW2 7876   0.733   0.650   2.565 -0.8176  0.2304  0.4745
29962SOL     OW 7877   6.364   4.266   0.480  0.3263 -0.2679 -0.3371
29962SOL    HW1 7878   6.424   4.229   0.545 -0.1300 -0.6837 -0.1426
29962SOL    HW2 7879   6.310   4.192   0.452  0.9450 -0.2348 -1.6793
29963SOL     OW 7880   0.237   7.850   9.254 -0.5081 -0.4705  0.0970
29963SOL    HW1 7881   0.177   7.781   9.281 -0.7029 -0.6674 -0.8171
29963SOL    HW2 7882   0.192   7.894   9.182  0.3330 -0.4519 -0.4271
29964SOL     OW 7883   7.585   7.049  14.145  0.0488  0.0693 -0.3510
29964SOL    HW1 7884   7.507   7.069  14.197 -1.1317 -1.4398 -1.4258
29964SOL    HW2 7885   7.658   7.067  14.203 -1.0630  1.9433  0.5656
29965SOL     OW 7886   9.624   2.804   7.977  0.5949 -0.3898 -0.2878
29965SOL    HW1 7887   9.704   2.797   8.029  1.2072 -0.2974 -1.1940
29965SOL    HW2 7888   9.622   2.895   7.950 -1.0500  0.2069  1.6054
29966SOL     OW 7889  10.367   9.584   0.213  0.1904 -0.2929 -0.0684
29966SOL    HW1 7890  10.322   9.620   0.289  1.1174 -0.4735  0.5895
29966SOL    HW2 7891  10.401   9.500   0.243  0.5052 -0.3978 -0.7052
29967SOL     OW 7892   9.572   5.989   0.599  0.0481 -0.2423  0.0640
29967SOL    HW1 7893   9.575   6.085   0.596 -1.8552 -0.1557 -0.4646
29967SOL    HW2 7894   9.634   5.965   0.668 -0.4163  1.4490  1.1217
29968SOL     OW 7895   1.713   9.008   9.497 -0.0904 -0.2111  0.5618
29968SOL    HW1 7896   1.635   8.970   9.456  0.3441 -0.8747  0.3273
29968SOL    HW2 7897   1.683   9.090   9.535 -1.2354 -1.1316  1.7208
29969SOL     OW 7898  11.768   2.772   6.943  0.5051 -0.2127  0.1752
29969SOL    HW1 7899  11.732   2.684   6.951  1.9395 -0.7884  0.7369
29969SOL    HW2 7900  11.818   2.784   7.024  1.7109  0.4405 -0.6424
29970SOL     OW 7901   9.929  12.013   6.163  0.4208  0.1520 -0.0156
29970SOL    HW1 7902  10.007  12.044   6.116  0.6759 -0.3434  0.0752
29970SOL    HW2 7903   9.901  11.936   6.114  1.2858 -0.9708  1.2173
29971SOL     OW 7904   0.398  13.122  11.914  0.0537 -0.0723 -0.3725
29971SOL    HW1 7905   0.367  13.031  11.916 -0.2448  0.0401  0.6246
29971SOL    HW2 7906   0.453  13.131  11.992  2.2635 -0.1173 -1.8067
29972SOL     OW 7907   8.216   5.374   0.872 -0.0687 -0.3033  0.1553
29972SOL    HW1 7908   8.176   5.317   0.938 -0.0956 -0.5932 -0.1057
29972SOL    HW2 7909   8.157   5.448   0.865 -0.4447 -0.6187 -0.0587
29973SOL     OW 7910   3.964   7.124  12.416  0.2338 -0.1647 -0.1085
29973SOL    HW1 7911   4.035   7.178  12.382 -0.7053  1.3711  0.2847
29973SOL    HW2 7912   3.906   7.112  12.342 -0.6324  1.2164  0.3051
29974SOL     OW 7913  11.795   8.637   4.409  0.0293 -0.0764  0.8131
29974SOL    HW1 7914  11.783   8.682   4.493  0.2209 -1.1446  1.4293
29974SOL    HW2 7915  11.708   8.640   4.368  0.3806  2.3122  0.0429
29975SOL     OW 7916   2.846   9.267  10.306  0.2193 -0.5231 -0.0303
29975SOL    HW1 7917   2.801   9.293  10.226  0.9860  0.9113 -0.0279
29975SOL    HW2 7918   2.777   9.263  10.372 -0.4118 -1.6932 -0.7487
29976SOL     OW 7919   0.099   2.600   7.464  0.2867  0.0112  0.1908
29976SOL    HW1 7920   0.051   2.610   7.382 -1.5655  1.0478  1.3269
29976SOL    HW2 7921   0.134   2.511   7.461  1.0001  0.3063 -2.0521
29977SOL     OW 7922   1.479   7.576  12.212  0.2657  0.0820 -0.0324
29977SOL    HW1 7923   1.500   7.621  12.294  0.5867  0.4255 -0.3027
29977SOL    HW2 7924   1.414   7.633  12.170  0.2878  0.0331 -0.1327
29978SOL     OW 7925   8.733   0.142   6.161  0.0063  0.7725 -0.0403
29978SOL    HW1 7926   8.818   0.172   6.193  0.5276  0.3015 -0.9331
29978SOL    HW2 7927   8.752   0.102   6.076 -0.7402 -1.4455  0.7450
29979SOL     OW 7928   7.992  13.420   6.639 -0.1169 -0.5540 -0.4040
29979SOL    HW1 7929   8.081  13.399   6.668  0.1476  0.4396 -0.4554
29979SOL    HW2 7930   7.964  13.489   6.700 -0.4151 -0.0601 -1.0888
29980SOL     OW 7931   4.521   5.731   7.227 -0.2029 -0.1271  0.1022
29980SOL    HW1 7932   4.538   5.783   7.306 -0.5064  0.3356 -0.1286
29980SOL    HW2 7933   4.559   5.783   7.156  0.2304 -0.6301 -0.0360
29981SOL     OW 7934   0.822   1.017   8.113 -0.0180  0.6914  0.1286
29981SOL    HW1 7935   0.895   1.034   8.173 -0.5824  1.6665  0.5785
29981SOL    HW2 7936   0.757   0.973   8.167 -0.5865  1.6977  0.2994
29982SOL     OW 7937   0.378   1.182   7.696 -0.2828  0.0914  0.2859
29982SOL    HW1 7938   0.473   1.190   7.690 -0.2937 -0.1171 -0.2525
29982SOL    HW2 7939   0.356   1.109   7.638 -0.7845  0.2233  0.3003
29983SOL     OW 7940  10.535   7.599  12.313  0.0498  0.3054 -0.1890
29983SOL    HW1 7941  10.463   7.659  12.331  0.3381  0.6882 -0.2997
29983SOL    HW2 7942  10.499   7.513  12.333 -0.6179  0.4361 -0.7779
29984SOL     OW 7943   9.794  13.940  12.605  0.3536 -0.5873 -0.2261
29984SOL    HW1 7944   9.845  14.005  12.557 -1.0056  1.2099  0.6272
29984SOL    HW2 7945   9.774  13.983  12.689 -0.0688 -2.3655  0.6254
29985SOL     OW 7946   3.853   4.196  13.407 -0.3795  0.0583 -0.1609
29985SOL    HW1 7947   3.931   4.230  13.365  0.2753 -0.5011  0.5666
29985SOL    HW2 7948   3.799   4.273  13.424  0.7999  0.6823  0.9148
29986SOL     OW 7949   5.329   9.533   0.564 -0.0814  0.4329  0.2721
29986SOL    HW1 7950   5.381   9.566   0.490  1.0080  0.5671  1.0609
29986SOL    HW2 7951   5.261   9.599   0.577 -1.0658 -0.2075 -1.3758
29987SOL     OW 7952   9.347  13.740  10.013  0.4458  0.6328 -0.3766
29987SOL    HW1 7953   9.278  13.775  10.070  1.3438  1.6988  0.0842
29987SOL    HW2 7954   9.373  13.658  10.055  1.3961  1.6074  1.0239
29988SOL     OW 7955   8.245   8.303   3.445 -0.2324 -0.1175 -0.0636
29988SOL    HW1 7956   8.323   8.353   3.423  1.6403 -2.7029  0.3716
29988SOL    HW2 7957   8.195   8.300   3.363  0.9820  0.0728 -0.8357
29989SOL     OW 7958   1.135   9.525  10.739  0.0381  0.1380 -0.1026
29989SOL    HW1 7959   1.103   9.437  10.719 -0.8733  0.5661 -0.5905
29989SOL    HW2 7960   1.185   9.514  10.820 -1.4476 -0.5508  0.7514
29990SOL     OW 7961   2.456   7.544   6.014 -0.3260  0.3162 -0.4723
29990SOL    HW1 7962   2.511   7.468   5.994  1.4735  1.4402 -0.0175
29990SOL    HW2 7963   2.438   7.537   6.107  0.1582  0.6182 -0.3499
29991SOL     OW 7964   2.916   9.504   2.709 -0.5558 -0.0043  0.6256
29991SOL    HW1 7965   2.837   9.451   2.718 -1.6152  1.5275  0.8155
29991SOL    HW2 7966   2.885   9.594   2.719  1.0049  0.7241 -0.6443
29992SOL     OW 7967   3.657   2.744   6.081 -0.1060 -0.1033 -0.1023
29992SOL    HW1 7968   3.567   2.775   6.095  0.6942  1.7933  1.1836
29992SOL    HW2 7969   3.688   2.792   6.005 -0.0499 -0.4761 -0.3169
29993SOL     OW 7970   0.055   0.809   8.081  0.2665  0.2369 -0.2008
29993SOL    HW1 7971  -0.010   0.872   8.115 -0.0241 -0.5177  0.7003
29993SOL    HW2 7972   0.032   0.799   7.989  0.9161  2.1602 -0.6209
29994SOL     OW 7973   0.425   5.041   4.705 -0.2627  0.1963  0.7014
29994SOL    HW1 7974   0.385   5.127   4.699  1.9839  1.2982  0.2341
29994SOL    HW2 7975   0.418   5.016   4.797 -2.3751  0.0957  0.5454
29995SOL     OW 7976   0.826  12.157   9.432 -0.1017 -0.2747 -0.0916
29995SOL    HW1 7977   0.902  12.131   9.379  1.0033 -0.0083  1.2990
29995SOL    HW2 7978   0.862  12.218   9.497 -1.4765 -0.3107  0.7355
29996SOL     OW 7979   0.532   9.085  11.371  0.1607 -0.3764 -0.1619
29996SOL    HW1 7980   0.581   9.131  11.303 -1.1848 -0.1396 -1.0198
29996SOL    HW2 7981   0.524   9.149  11.442 -1.7653  0.8553 -1.3759
29997SOL     OW 7982  13.803   2.338   4.299  0.0227 -0.0921 -0.1623
29997SOL    HW1 7983  13.870   2.346   4.230  0.9986 -1.0680  0.6430
29997SOL    HW2 7984  13.848   2.295   4.371 -1.5064 -0.8620  0.3790
29998SOL     OW 7985   2.802  14.003  12.460 -0.1757  0.5918  0.1974
29998SOL    HW1 7986   2.807  13.947  12.537  0.1935  0.5452  0.1396
29998SOL    HW2 7987   2.793  13.942  12.386  1.6821  0.5154 -0.0182
29999SOL     OW 7988   7.093   1.476  11.462  0.6959 -0.0890 -0.0197
29999SOL    HW1 7989   7.069   1.383  11.460 -0.3845  0.1665  0.5171
29999SOL    HW2 7990   7.111   1.498  11.370  1.2207 -0.8785 -0.1196
30000SOL     OW 7991   9.939   6.293   7.216 -0.1070  0.2267 -0.3029
30000SOL    HW1 7992   9.853   6.271   7.253  0.1680 -0.7809 -0.2384
30000SOL    HW2 7993   9.969   6.368   7.268 -0.3589 -0.2660  0.5723
30001SOL     OW 7994  11.029   2.709   5.175 -0.2538 -0.2245 -0.2710
30001SOL    HW1 7995  11.011   2.793   5.216 -0.6139  0.5321 -1.9093
30001SOL    HW2 7996  11.071   2.730   5.092  2.8266 -1.7811  0.7212
30002SOL     OW 7997  10.425   8.468  10.391 -0.0795 -0.1018  0.2250
30002SOL    HW1 7998  10.376   8.527  10.448  0.5409  1.0835 -0.4327
30002SOL    HW2 7999  10.358   8.424  10.338 -0.4873  0.8615 -0.0711
30003SOL     OW 8000   2.495  13.731   8.343 -0.2802  0.4170 -0.2830
30003SOL    HW1 8001   2.404  13.725   8.315 -0.3508 -1.4735  0.1943
30003SOL    HW2 8002   2.501  13.815   8.389 -1.9050  0.3294  0.1350
30004SOL     OW 8003   6.574   4.500   2.366 -0.2626 -0.0366  0.1071
30004SOL    HW1 8004   6.584   4.595   2.362 -1.7493  0.1168 -1.9243
30004SOL    HW2 8005   6.511   4.485   2.437  1.7399  0.2378  2.0305
30005SOL     OW 8006   0.236   6.004   1.120 -0.8276 -0.0995  0.3435
30005SOL    HW1 8007   0.255   6.088   1.078 -1.5934 -0.0098  0.1542
30005SOL    HW2 8008   0.156   5.974   1.077  0.5026 -1.9109 -1.0658
30006SOL     OW 8009   6.817  11.431   2.955  0.7081 -0.2342  0.4926
30006SOL    HW1 8010   6.897  11.418   2.904  0.3751 -2.0824  0.3714
30006SOL    HW2 8011   6.780  11.512   2.921  1.6856 -0.2127 -0.5765
30007SOL     OW 8012   4.448   4.047   7.131 -0.0800  0.0763 -0.1939
30007SOL    HW1 8013   4.431   3.953   7.131  0.6011 -0.0666 -1.2726
30007SOL    HW2 8014   4.361   4.086   7.144 -0.1427 -0.6813  2.1132
30008SOL     OW 8015  13.267   9.078   1.527  0.2809  0.5177  0.2114
30008SOL    HW1 8016  13.261   9.009   1.593 -1.1575 -0.1434 -0.5702
30008SOL    HW2 8017  13.262   9.032   1.443 -1.5272  1.5944 -0.3295
30009SOL     OW 8018   2.652   2.305   6.447  0.5630  0.0246 -0.0772
30009SOL    HW1 8019   2.686   2.394   6.455 -0.2472  0.3286  0.0296
30009SOL    HW2 8020   2.704   2.254   6.509  0.2880  0.6423  0.6788
30010SOL     OW 8021  11.145   2.804   2.479  0.1755 -0.6857  0.0812
30010SOL    HW1 8022  11.168   2.878   2.423  1.3344 -1.3733 -0.3943
30010SOL    HW2 8023  11.183   2.825   2.564  1.2302 -1.0697 -0.2699
30011SOL     OW 8024   2.121  13.549   6.528 -0.0347 -0.0122 -0.1692
30011SOL    HW1 8025   2.178  13.552   6.606 -0.8491 -1.0863  0.5039
30011SOL    HW2 8026   2.046  13.497   6.556 -0.6186  0.0703 -1.5188
30012SOL     OW 8027  13.521   9.751   0.571  0.1599  0.6745  0.3782
30012SOL    HW1 8028  13.435   9.791   0.558 -0.7127 -0.5231  2.1329
30012SOL    HW2 8029  13.582   9.824   0.564 -0.9076  1.4862 -1.3332
30013SOL     OW 8030   4.674   9.577   6.097 -0.2859  0.1245  0.5283
30013SOL    HW1 8031   4.685   9.604   6.006  1.5069  0.9424  0.9401
30013SOL    HW2 8032   4.740   9.508   6.109 -0.2341  0.2988  1.3018
30014SOL     OW 8033   0.160  10.948   5.756  0.2433 -0.3190 -0.5696
30014SOL    HW1 8034   0.080  10.903   5.781 -0.4754  0.7927 -0.7902
30014SOL    HW2 8035   0.191  10.988   5.838  0.2263 -0.2332 -0.6047
30015SOL     OW 8036  12.573   3.776   3.947 -0.0781  0.4613  0.6317
30015SOL    HW1 8037  12.560   3.797   3.854 -1.7506  0.0195  0.7264
30015SOL    HW2 8038  12.581   3.681   3.949  0.4028  0.5073  0.8989
30016SOL     OW 8039   2.923  11.501   6.540  0.3108 -0.1768 -0.1164
30016SOL    HW1 8040   2.878  11.456   6.611 -0.4700  2.3792  1.1125
30016SOL    HW2 8041   2.858  11.561   6.504  1.5501  0.6504 -1.0668
30017SOL     OW 8042   1.498   3.849   1.747  0.0053  0.3894 -0.2953
30017SOL    HW1 8043   1.512   3.776   1.808  0.6960 -0.6893 -1.6883
30017SOL    HW2 8044   1.582   3.895   1.743  0.2299 -0.0713 -1.0751
30018SOL     OW 8045   1.790   3.549  13.663 -0.0841 -0.1516 -0.8592
30018SOL    HW1 8046   1.743   3.606  13.602  0.5712  1.0039 -0.3265
30018SOL    HW2 8047   1.826   3.479  13.608 -1.9301 -0.7675 -1.3457
30019SOL     OW 8048   4.672   0.398   2.388 -0.4754 -0.2920 -0.2098
30019SOL    HW1 8049   4.706   0.414   2.475 -3.6616  1.3212  0.8811
30019SOL    HW2 8050   4.671   0.303   2.380 -0.2860 -0.4747  1.5769
30020SOL     OW 8051   8.411   2.793  12.976  0.0076  0.5317  0.1238
30020SOL    HW1 8052   8.484   2.782  12.914  0.3406 -1.1523  0.7563
30020SOL    HW2 8053   8.333   2.789  12.921  0.3369  0.5004 -0.3515
30021SOL     OW 8054  10.122  12.750   7.129 -0.2095 -0.3387  0.0575
30021SOL    HW1 8055  10.079  12.752   7.214  0.9902 -0.3285  0.6850
30021SOL    HW2 8056  10.089  12.827   7.083 -5.0861 -3.0113 -1.7101
30022SOL     OW 8057  10.645  12.480   1.277 -0.2580  0.1564  0.1707
30022SOL    HW1 8058  10.693  12.560   1.298 -0.6422  0.3892  0.1820
30022SOL    HW2 8059  10.682  12.451   1.194 -0.6544  0.7853 -0.2373
30023SOL     OW 8060   0.463   0.482   5.449  0.1178 -0.1539  0.6647
30023SOL    HW1 8061   0.405   0.551   5.482  1.0681  1.3565 -0.6677
30023SOL    HW2 8062   0.551   0.514   5.466  0.5932 -0.6615 -0.6785
30024SOL     OW 8063   2.484  13.497   6.708  0.2288 -0.1518 -0.1029
30024SOL    HW1 8064   2.455  13.581   6.745 -2.4843 -0.3585 -1.4674
30024SOL    HW2 8065   2.532  13.521   6.629  0.3673  0.1467  0.0715
30025SOL     OW 8066  11.483  12.873  11.381 -0.0142 -0.1242 -0.6884
30025SOL    HW1 8067  11.559  12.927  11.402  0.3097 -0.3219 -1.3269
30025SOL    HW2 8068  11.444  12.914  11.304 -0.5633 -0.0185 -0.3614
30026SOL     OW 8069   9.635   2.898   1.243 -0.8191 -0.0953 -0.0002
30026SOL    HW1 8070   9.699   2.828   1.232 -2.4248 -1.3494 -1.9908
30026SOL    HW2 8071   9.688   2.976   1.262  1.2424 -1.2055 -0.8906
30027SOL     OW 8072   2.427   1.313  13.728  0.4613 -0.5886 -0.1742
30027SOL    HW1 8073   2.340   1.280  13.706  0.9193 -1.0431 -1.4261
30027SOL    HW2 8074   2.469   1.240  13.774 -0.6097  0.4759  2.6850
30028SOL     OW 8075  13.816   7.736   4.159 -0.2389 -0.5999 -0.4297
30028SOL    HW1 8076  13.750   7.668   4.145 -1.2178  0.9041 -4.4105
30028SOL    HW2 8077  13.776   7.794   4.224 -2.0445 -0.7334 -1.3536
30029SOL     OW 8078  12.058  11.700   0.353 -0.6749 -0.2437 -0.7718
30029SOL    HW1 8079  11.973  11.666   0.382 -0.6224  0.4717  0.2779
30029SOL    HW2 8080  12.115  11.624   0.349 -0.5636 -0.3267  1.5060
30030SOL     OW 8081   9.588  13.886   2.358  0.3319  0.5726 -0.1603
30030SOL    HW1 8082   9.632  13.960   2.401  0.2485 -0.4157  1.7408
30030SOL    HW2 8083   9.630  13.809   2.396 -0.6754 -0.3736 -0.9133
30031SOL     OW 8084  10.738   9.832  12.593  0.3689  0.1032 -0.2158
30031SOL    HW1 8085  10.658   9.793  12.557  0.7937 -0.3396 -0.7105
30031SOL    HW2 8086  10.807   9.771  12.567  0.8043  0.2404  0.6129
30032SOL     OW 8087  12.828   0.393   8.536 -0.5902  0.5908 -0.1512
30032SOL    HW1 8088  12.837   0.345   8.619 -0.0074  0.6365 -0.1822
30032SOL    HW2 8089  12.853   0.483   8.557  1.0796  0.2965 -0.6895
30033SOL     OW 8090   5.259   6.673  11.545 -0.1331 -0.1544  0.1266
30033SOL    HW1 8091   5.251   6.684  11.639  2.1029 -0.0103  0.3644
30033SOL    HW2 8092   5.275   6.761  11.512  0.6099 -0.3952 -0.1763
30034SOL     OW 8093  10.718  11.887   8.996 -0.2289  0.1159 -0.1761
30034SOL    HW1 8094  10.706  11.809   8.942 -1.4575  0.3001 -0.2034
30034SOL    HW2 8095  10.689  11.861   9.083 -0.8972  0.5950 -0.2405
30035SOL     OW 8096   5.427   4.738  11.068  0.1419 -0.3116 -0.5471
30035SOL    HW1 8097   5.473   4.741  11.152 -0.9234 -2.9254  0.2350
30035SOL    HW2 8098   5.495   4.720  11.004  0.5775 -1.5203  0.2199
30036SOL     OW 8099   9.571  12.707   5.746  0.6630  0.2188 -0.1659
30036SOL    HW1 8100   9.586  12.779   5.807  0.1672  0.0879  0.1137
30036SOL    HW2 8101   9.522  12.642   5.797 -1.2634  0.8294 -1.1656
30037SOL     OW 8102   9.129   7.172  13.190 -0.5345 -0.0905 -0.2994
30037SOL    HW1 8103   9.113   7.118  13.112  0.0493 -0.1635 -0.3735
30037SOL    HW2 8104   9.146   7.108  13.259  0.4239 -0.0157 -0.4468
30038SOL     OW 8105  11.207  12.834  11.111 -0.3015 -0.5962 -0.1649
30038SOL    HW1 8106  11.261  12.907  11.081 -1.6915  0.3370 -0.4749
30038SOL    HW2 8107  11.140  12.825  11.043 -1.2896 -0.8985  0.8303
30039SOL     OW 8108   1.244   8.450   9.025 -0.1224  0.1913 -0.8407
30039SOL    HW1 8109   1.315   8.509   9.050 -1.4665  1.3880  0.3256
30039SOL    HW2 8110   1.269   8.419   8.938  2.7395 -0.9578  0.2690
30040SOL     OW 8111   5.363   6.081  13.334  0.2338 -0.3311 -0.6420
30040SOL    HW1 8112   5.353   6.054  13.243  0.2524  0.3091 -0.8354
30040SOL    HW2 8113   5.276   6.068  13.373 -0.5039  1.8130 -1.4138
30041SOL     OW 8114  13.230   9.162  10.501 -0.4434  0.4244 -0.5283
30041SOL    HW1 8115  13.306   9.176  10.444 -0.8117  1.0517 -0.8791
30041SOL    HW2 8116  13.266   9.120  10.579  0.0557 -0.5700 -1.2634
30042SOL     OW 8117   3.255  10.010   3.010 -0.7149 -0.3417  0.0979
30042SOL    HW1 8118   3.332   9.975   3.054  0.2469 -0.0010 -1.2324
30042SOL    HW2 8119   3.203  10.051   3.079  1.4077  1.4066  0.7458
30043SOL     OW 8120   8.348  13.113   8.354 -0.3568 -0.6793 -0.0649
30043SOL    HW1 8121   8.255  13.108   8.331 -0.4632  2.3880 -0.7663
30043SOL    HW2 8122   8.385  13.174   8.290  1.4800  0.5097  1.9912
30044SOL     OW 8123   3.780  12.099   2.297 -0.6990 -0.0371 -0.2498
30044SOL    HW1 8124   3.717  12.127   2.365 -2.1612  0.8894 -1.9086
30044SOL    HW2 8125   3.839  12.040   2.343 -2.8935 -1.1226  1.4033
30045SOL     OW 8126   5.977  13.295   6.430  0.0881  0.7004  0.2626
30045SOL    HW1 8127   5.958  13.384   6.399 -1.0863  0.4027  0.0503
30045SOL    HW2 8128   6.014  13.251   6.354 -0.4337  0.6870  0.0070
30046SOL     OW 8129  13.075   7.308  11.421 -0.1917 -0.1321 -0.4152
30046SOL    HW1 8130  13.100   7.243  11.355 -0.7911 -1.2509  0.4223
30046SOL    HW2 8131  13.136   7.293  11.493  2.2694  2.8773 -1.6379
30047SOL     OW 8132   9.373   4.570   3.359 -0.1414 -0.5833  0.1265
30047SOL    HW1 8133   9.448   4.513   3.344  0.3551  0.0891  0.0179
30047SOL    HW2 8134   9.348   4.601   3.272 -1.1693 -1.5572  0.0438
30048SOL     OW 8135  10.755   6.214   1.972 -0.3701 -0.1147 -0.1376
30048SOL    HW1 8136  10.661   6.204   1.961 -0.3697 -0.2507 -0.0203
30048SOL    HW2 8137  10.772   6.307   1.954 -0.7237  0.2289  1.2034
30049SOL     OW 8138   4.220   3.181  11.531 -0.0183  0.9200  0.3783
30049SOL    HW1 8139   4.132   3.152  11.556  0.1621 -0.7380 -0.7455
30049SOL    HW2 8140   4.274   3.103  11.539  0.6670  1.0532 -2.0718
30050SOL     OW 8141   9.797   6.570   8.137  0.8016  0.1722 -0.4610
30050SOL    HW1 8142   9.891   6.576   8.120  0.8817 -0.7174 -0.3328
30050SOL    HW2 8143   9.782   6.637   8.204  1.9802 -1.9106  2.0624
30051SOL     OW 8144  13.093   4.400   3.644 -0.6475  0.5801  0.0440
30051SOL    HW1 8145  13.073   4.492   3.659 -0.9916  0.2689  1.6848
30051SOL    HW2 8146  13.162   4.379   3.706 -0.5045 -0.2593 -0.3692
30052SOL     OW 8147  11.962   8.121   5.769  0.4268 -0.2889  0.0711
30052SOL    HW1 8148  11.952   8.073   5.852 -0.9069 -0.0936  0.0453
30052SOL    HW2 8149  11.923   8.206   5.786  0.8468  0.0261 -0.5334
30053SOL     OW 8150   7.236   5.550   2.320  0.5427  0.5140  0.0439
30053SOL    HW1 8151   7.270   5.460   2.317  0.7187  0.5780  0.0863
30053SOL    HW2 8152   7.289   5.593   2.387 -1.2435 -0.0360  1.9193
30054SOL     OW 8153   8.651   1.243  13.646 -0.2138  0.4329  0.3617
30054SOL    HW1 8154   8.624   1.331  13.674  0.2334  1.0910 -1.2126
30054SOL    HW2 8155   8.685   1.255  13.558  2.1951 -0.9175  1.0347
30055SOL     OW 8156   8.652  11.346  12.952 -0.2670  0.2682 -0.2111
30055SOL    HW1 8157   8.678  11.263  12.991  1.1143  0.7923  0.0548
30055SOL    HW2 8158   8.606  11.392  13.023 -0.8757 -0.1870 -0.3060
30056SOL     OW 8159   7.439  11.490   1.047 -0.4071  0.5147  0.4932
30056SOL    HW1 8160   7.384  11.557   1.006  0.4817  1.1175  0.2313
30056SOL    HW2 8161   7.443  11.420   0.982 -1.4840  0.1141  0.8393
30057SOL     OW 8162   8.260  10.868   8.916  0.0279  0.3689 -0.4520
30057SOL    HW1 8163   8.323  10.798   8.932 -0.2360  0.2573  0.1110
30057SOL    HW2 8164   8.234  10.897   9.004 -0.4365  0.6568 -0.6820
30058SOL     OW 8165   3.828   2.453   9.362 -0.3206  0.1241  0.1704
30058SOL    HW1 8166   3.807   2.415   9.447 -0.3244  0.3787  0.2812
30058SOL    HW2 8167   3.899   2.398   9.328 -0.5793 -0.2157  0.1673
30059SOL     OW 8168  12.609   0.189   4.524  0.2160 -0.5082 -0.7644
30059SOL    HW1 8169  12.627   0.263   4.466 -1.3472  0.3554 -0.1840
30059SOL    HW2 8170  12.678   0.193   4.590  0.1319  0.4502 -0.7229
30060SOL     OW 8171   4.957  11.831   8.067  0.9087 -0.6246 -0.2763
30060SOL    HW1 8172   4.900  11.880   8.126  1.6779  0.3222 -0.3157
30060SOL    HW2 8173   4.906  11.752   8.046 -0.5205  0.3149 -0.5314
30061SOL     OW 8174   9.485   0.842   3.891  0.3922 -0.1250  0.0078
30061SOL    HW1 8175   9.524   0.759   3.864 -0.1218 -0.1013 -0.8392
30061SOL    HW2 8176   9.529   0.908   3.837  0.6482  0.1298  0.5251
30062SOL     OW 8177   4.721   7.357  14.127  0.3710  0.1190  0.2150
30062SOL    HW1 8178   4.698   7.443  14.090 -0.0036  0.1650  0.5462
30062SOL    HW2 8179   4.642   7.304  14.116  0.2883  0.1004  0.8475
30063SOL     OW 8180  11.959   5.999   2.120 -0.7951  0.1743  0.2000
30063SOL    HW1 8181  12.034   5.994   2.179 -0.9853  0.2454  0.4453
30063SOL    HW2 8182  11.964   5.918   2.068  0.6718  1.1342 -1.2481
30064SOL     OW 8183   9.784  12.161   2.257 -0.3736  0.3374  0.5214
30064SOL    HW1 8184   9.832  12.244   2.247  1.6214 -0.8859 -0.7132
30064SOL    HW2 8185   9.800  12.135   2.347 -1.3273  1.4352  1.0388
30065SOL     OW 8186  12.761   7.540   8.439 -0.0864  0.0583 -0.0444
30065SOL    HW1 8187  12.702   7.502   8.374 -1.5188  1.5741  0.3092
30065SOL    HW2 8188  12.773   7.630   8.411  0.8731  0.1914  0.7321
30066SOL     OW 8189   2.172  11.092  13.020 -0.2813  0.0361 -0.5648
30066SOL    HW1 8190   2.153  11.181  13.047  1.4473  0.0951  0.5941
30066SOL    HW2 8191   2.104  11.071  12.956 -1.7256  1.5625  0.3986
30067SOL     OW 8192  13.199   8.134   7.355 -0.5551 -0.3106  0.2794
30067SOL    HW1 8193  13.268   8.077   7.388 -0.3597  0.1171  0.6232
30067SOL    HW2 8194  13.227   8.157   7.267  0.2346  0.6375  0.7634
30068SOL     OW 8195   0.086  12.217   5.788  0.6525 -0.7823  0.1068
30068SOL    HW1 8196   0.173  12.181   5.806  0.2998 -1.7532 -0.0480
30068SOL    HW2 8197   0.025  12.152   5.822 -0.0118 -0.9820 -1.3607
30069SOL     OW 8198  11.561   1.896  13.860 -0.2252 -0.1783  0.3285
30069SOL    HW1 8199  11.522   1.936  13.937 -1.6805 -1.8680  0.5405
30069SOL    HW2 8200  11.624   1.961  13.828 -0.8653  1.2847  1.8873
30070SOL     OW 8201   9.666   0.509   5.369 -0.0893  0.3029 -0.1764
30070SOL    HW1 8202   9.755   0.498   5.402  0.2669  1.2403 -0.7858
30070SOL    HW2 8203   9.629   0.579   5.424 -0.6234 -0.3892  0.3767
30071SOL     OW 8204  14.061   3.114   1.982 -0.1378  0.4794  0.2197
30071SOL    HW1 8205  14.123   3.045   2.004 -1.1877 -0.3405  0.6912
30071SOL    HW2 8206  13.987   3.099   2.040 -1.2145  0.7990 -1.0295
30072SOL     OW 8207   1.737  10.505   2.448 -0.4616  0.5401  0.2235
30072SOL    HW1 8208   1.827  10.487   2.472  0.3439  1.2751 -1.9992
30072SOL    HW2 8209   1.688  10.429   2.479  1.1050 -0.4492  0.3806
30073SOL     OW 8210  12.238   6.238   3.233  0.4225 -0.7077 -0.0033
30073SOL    HW1 8211  12.229   6.295   3.157 -0.1856 -1.2233 -0.3274
30073SOL    HW2 8212  12.329   6.208   3.230 -0.0016 -2.0323 -1.5042
30074SOL     OW 8213   0.059   9.436   6.233 -0.5635 -1.0972 -0.3444
30074SOL    HW1 8214   0.131   9.492   6.203 -0.5388 -0.8859  0.0907
30074SOL    HW2 8215   0.007   9.418   6.155 -1.3955  0.7311 -0.2605
30075SOL     OW 8216   8.732   8.162   2.360 -0.2422  0.1670 -0.2683
30075SOL    HW1 8217   8.806   8.127   2.410  0.1678  1.9675  0.4654
30075SOL    HW2 8218   8.764   8.166   2.270  1.4540  2.9422  0.3392
30076SOL     OW 8219  11.479   3.398   9.857 -0.1078 -0.0557 -0.0346
30076SOL    HW1 8220  11.493   3.455   9.933  0.4436  0.1912 -0.3148
30076SOL    HW2 8221  11.539   3.325   9.872 -1.1847 -0.8485  0.5873
30077SOL     OW 8222  10.496   8.292  11.122  0.6804  0.0860 -0.3159
30077SOL    HW1 8223  10.531   8.278  11.210  1.9688  0.3193 -0.7759
30077SOL    HW2 8224  10.431   8.361  11.133 -0.6138 -1.2264  0.7657
30078SOL     OW 8225   0.051   9.987   2.583  0.4127 -0.2700  0.7218
30078SOL    HW1 8226   0.124  10.019   2.530  0.5550 -1.3085  0.2561
30078SOL    HW2 8227   0.034   9.899   2.550 -1.2925  0.0699  0.5818
30079SOL     OW 8228   5.069  13.932  13.390 -0.1421 -0.2044  0.0656
30079SOL    HW1 8229   5.139  13.883  13.434 -1.1150 -2.0275 -0.3395
30079SOL    HW2 8230   5.113  13.974  13.316  0.4156 -2.0985 -0.7565
30080SOL     OW 8231   0.887  13.052   0.171  0.2572 -0.0209 -0.3571
30080SOL    HW1 8232   0.915  13.132   0.215  0.1997 -0.0983 -0.1792
30080SOL    HW2 8233   0.957  13.032   0.109  0.9186 -0.5813  0.5464
30081SOL     OW 8234  10.502   2.325   0.327 -0.2210 -0.2923 -0.7337
30081SOL    HW1 8235  10.499   2.351   0.235 -0.7560  1.0219 -0.3664
30081SOL    HW2 8236  10.416   2.287   0.344 -1.0525  1.7540 -0.1610
30082SOL     OW 8237   4.589   1.948   1.376 -0.1093 -0.0035  0.2342
30082SOL    HW1 8238   4.610   1.855   1.374 -2.6208 -0.6569 -2.0171
30082SOL    HW2 8239   4.664   1.991   1.336  1.4212 -0.8986  2.0025
30083SOL     OW 8240  14.023  10.169   0.430 -0.4904 -0.7516  0.0138
30083SOL    HW1 8241  13.989  10.253   0.401 -0.1937 -0.0112  1.7003
30083SOL    HW2 8242  13.971  10.147   0.506  0.1682 -1.5547  0.2470
30084SOL     OW 8243   8.683  12.550   7.622 -0.3794  0.0697 -0.9449
30084SOL    HW1 8244   8.696  12.529   7.714  0.0328 -1.1199 -1.2676
30084SOL    HW2 8245   8.771  12.555   7.586 -0.5657 -0.3156 -1.4565
30085SOL     OW 8246  10.691   8.023  12.505  0.2404  0.7962  0.2494
30085SOL    HW1 8247  10.628   8.025  12.434  1.5871 -1.9999 -1.1882
30085SOL    HW2 8248  10.639   8.005  12.583 -0.9954  1.2896 -0.4356
30086SOL     OW 8249   2.169  12.867   8.287  0.3790  0.0458  0.1949
30086SOL    HW1 8250   2.103  12.802   8.308  1.4867 -1.5034 -0.9168
30086SOL    HW2 8251   2.191  12.907   8.371 -2.4033  1.1259  0.5088
30087SOL     OW 8252   3.031  12.536   4.803 -0.0795  0.3587  0.3063
30087SOL    HW1 8253   3.053  12.462   4.747 -1.7024  0.0436  0.0516
30087SOL    HW2 8254   3.105  12.596   4.792  0.9031 -0.8672 -0.0665
30088SOL     OW 8255  11.604   3.442  12.229 -0.4631 -0.0047  0.0046
30088SOL    HW1 8256  11.603   3.506  12.157  1.0606  0.0849  0.0192
30088SOL    HW2 8257  11.689   3.398  12.220 -1.7569 -2.6182 -0.4934
30089SOL     OW 8258   7.462  11.172  10.425  0.1800 -0.4774  0.8033
30089SOL    HW1 8259   7.496  11.233  10.490  1.7958 -0.4610  0.0042
30089SOL    HW2 8260   7.432  11.097  10.476  0.3144  0.0229  1.6355
30090SOL     OW 8261   4.894   4.262   9.751 -0.4769  0.1340 -0.0259
30090SOL    HW1 8262   4.891   4.182   9.803 -1.1485  0.4075  0.3783
30090SOL    HW2 8263   4.981   4.263   9.712 -1.1302 -1.8411 -1.7337
30091SOL     OW 8264  10.637   0.857  10.736  0.6861  0.3661 -0.1043
30091SOL    HW1 8265  10.656   0.860  10.642  1.9486  0.0158  0.1182
30091SOL    HW2 8266  10.650   0.766  10.761  2.6137  0.8456  0.8197
30092SOL     OW 8267  11.409  11.540   5.193 -0.0190  0.6096 -0.2589
30092SOL    HW1 8268  11.405  11.571   5.283 -2.5787  0.5192 -0.2616
30092SOL    HW2 8269  11.484  11.587   5.155 -0.1155  2.2033  1.3502
30093SOL     OW 8270  11.509   4.506   5.337 -0.3193  0.8826  0.1996
30093SOL    HW1 8271  11.524   4.546   5.422  0.7849 -1.8692  1.4359
30093SOL    HW2 8272  11.597   4.486   5.304 -0.6992  2.1957 -1.8073
30094SOL     OW 8273   7.317  12.809   3.562 -0.2139  0.2452 -1.1516
30094SOL    HW1 8274   7.407  12.797   3.531  0.2723  0.3500  0.1746
30094SOL    HW2 8275   7.314  12.764   3.646 -1.6082 -0.3517 -1.4983
30095SOL     OW 8276   8.097   7.478   6.128 -0.0462  0.3015  0.4395
30095SOL    HW1 8277   8.140   7.562   6.118  0.9162 -0.0496  1.4659
30095SOL    HW2 8278   8.013   7.499   6.170 -0.1658  0.8173 -0.0470
30096SOL     OW 8279  12.393   4.236   2.029 -0.6113 -0.3583 -0.1788
30096SOL    HW1 8280  12.375   4.308   1.969  0.2873 -0.6262 -0.7945
30096SOL    HW2 8281  12.380   4.157   1.976  0.8070 -0.5849 -0.2304
30097SOL     OW 8282   0.403  12.176   5.607  0.2951  1.2230 -0.6536
30097SOL    HW1 8283   0.436  12.198   5.520 -0.7972 -1.2255 -1.7567
30097SOL    HW2 8284   0.333  12.113   5.592 -0.6608  1.5209  1.9628
30098SOL     OW 8285  13.533  11.161   6.528  0.4906 -0.5063  0.1084
30098SOL    HW1 8286  13.465  11.164   6.460 -0.6223 -0.8790  1.1776
30098SOL    HW2 8287  13.574  11.075   6.516  1.8981  0.3410 -1.5618
30099SOL     OW 8288  10.935  13.515  13.833  0.2645 -0.5717 -0.0737
30099SOL    HW1 8289  11.013  13.536  13.884  0.5629 -1.0956 -0.2989
30099SOL    HW2 8290  10.942  13.569  13.755 -0.3490  0.4571  0.5662
30100SOL     OW 8291  13.857   2.806  10.921  0.0339  0.0773 -0.1197
30100SOL    HW1 8292  13.917   2.797  10.995 -0.8102 -0.3353  0.5380
30100SOL    HW2 8293  13.913   2.811  10.844  0.9096 -0.1571  0.4922
30101SOL     OW 8294   2.862   7.846   2.991  0.7241 -0.4912 -0.5459
30101SOL    HW1 8295   2.773   7.822   2.965 -0.6096  0.8314  2.2379
30101SOL    HW2 8296   2.892   7.905   2.922  0.6788 -3.1442 -3.0124
30102SOL     OW 8297   0.340   6.477   6.092 -0.2156  0.1422  0.0492
30102SOL    HW1 8298   0.283   6.513   6.160 -0.0573 -0.7681  0.6859
30102SOL    HW2 8299   0.309   6.517   6.010 -2.1149 -0.7256  0.3076
30103SOL     OW 8300   8.370   8.511  12.004 -0.3107  0.6681 -0.5097
30103SOL    HW1 8301   8.453   8.510  12.052  0.4630 -1.1602 -1.7902
30103SOL    HW2 8302   8.337   8.600  12.016  2.0707  1.6098 -0.3745
30104SOL     OW 8303   0.349   0.427   8.642 -0.1292 -0.1568  0.2358
30104SOL    HW1 8304   0.284   0.356   8.640  1.3251 -1.5238 -0.1425
30104SOL    HW2 8305   0.405   0.410   8.567  1.2919  0.3973  1.1359
30105SOL     OW 8306  12.177  10.345   1.320  0.0435 -0.3824 -0.3900
30105SOL    HW1 8307  12.196  10.356   1.226  0.3201  1.6858 -0.1277
30105SOL    HW2 8308  12.098  10.397   1.335  0.7130  0.3331  0.7667
30106SOL     OW 8309   2.673  12.870   9.723  0.4176  0.4732  0.1610
30106SOL    HW1 8310   2.649  12.963   9.728 -0.0193  0.4239 -0.7536
30106SOL    HW2 8311   2.592  12.826   9.696  0.5323 -0.2252  0.9314
30107SOL     OW 8312   5.055  12.758   4.201  0.4403 -0.2847  0.1556
30107SOL    HW1 8313   5.065  12.732   4.110  0.7109 -0.3820  0.2095
30107SOL    HW2 8314   5.141  12.739   4.240  0.1844 -0.6925  0.5380
30108SOL     OW 8315   5.831  13.609   8.593 -0.4320  0.1272  0.6428
30108SOL    HW1 8316   5.857  13.532   8.542 -1.0299 -0.5590  1.3263
30108SOL    HW2 8317   5.907  13.666   8.592  0.3372 -0.8574  0.8080
30109SOL     OW 8318   5.121   9.721  10.972  0.1927  0.2877 -0.1436
30109SOL    HW1 8319   5.151   9.635  11.000  2.4349  1.0689  0.0637
30109SOL    HW2 8320   5.072   9.755  11.046  0.8970 -0.0897  0.5147
30110SOL     OW 8321  13.095   8.797   2.016 -0.4540 -0.2957 -0.1619
30110SOL    HW1 8322  13.064   8.726   2.072 -2.6231 -1.0353 -2.0835
30110SOL    HW2 8323  13.016   8.849   1.998  0.4269  0.6803 -1.4106
30111SOL     OW 8324   5.188   3.387   6.603 -0.2143 -0.4126 -0.6813
30111SOL    HW1 8325   5.268   3.335   6.611  0.5050  0.8278  0.6928
30111SOL    HW2 8326   5.154   3.364   6.516  1.8200 -0.7210 -1.4694
30112SOL     OW 8327   4.922   8.785   9.275  0.1341 -0.3289 -0.1884
30112SOL    HW1 8328   4.847   8.804   9.218 -0.0943 -0.3687  0.0933
30112SOL    HW2 8329   4.934   8.865   9.327  1.8833  0.6364 -1.9635
30113SOL     OW 8330   1.158   8.048   7.989  0.0981  0.5110 -0.6958
30113SOL    HW1 8331   1.231   8.087   7.940  1.0094 -0.2977  0.0090
30113SOL    HW2 8332   1.134   7.971   7.938  2.0233 -1.1901  0.8134
30114SOL     OW 8333   8.170   3.510   4.499 -0.7479 -0.2256  0.6203
30114SOL    HW1 8334   8.258   3.497   4.535 -0.1002  2.0269 -0.0280
30114SOL    HW2 8335   8.128   3.571   4.560 -1.9536 -1.3565  0.9827
30115SOL     OW 8336   9.202  14.070   6.819  0.1415  0.5398  0.4065
30115SOL    HW1 8337   9.244  14.024   6.746 -0.2035  0.7578  0.0651
30115SOL    HW2 8338   9.230  14.161   6.808 -0.0268  0.5977  0.4620
30116SOL     OW 8339   3.144  12.370  13.261  0.2741 -0.5496 -0.1724
30116SOL    HW1 8340   3.102  12.298  13.308 -1.6348  0.0398 -0.8754
30116SOL    HW2 8341   3.098  12.373  13.177  1.8496  0.0664 -1.0475
30117SOL     OW 8342  11.711  12.023  13.412 -0.6818  0.1533 -0.1104
30117SOL    HW1 8343  11.692  11.969  13.489 -0.3635  1.8732  1.2366
30117SOL    HW2 8344  11.655  12.099  13.422 -2.1399 -0.4826 -2.7066
30118SOL     OW 8345   2.585   9.516   0.235 -0.1067 -0.1099  0.6391
30118SOL    HW1 8346   2.536   9.558   0.305  1.0622  2.1551  0.1767
30118SOL    HW2 8347   2.594   9.582   0.167  1.4044 -1.2525 -0.3638
30119SOL     OW 8348   3.715   1.536   4.560  0.2504 -0.0813  0.6033
30119SOL    HW1 8349   3.655   1.471   4.525  0.2090  1.0646 -1.6346
30119SOL    HW2 8350   3.701   1.614   4.506  1.7400  1.1389  1.8575
30120SOL     OW 8351   3.138   3.602  11.457 -0.4585 -0.1520 -0.3097
30120SOL    HW1 8352   3.143   3.684  11.407 -2.3759 -0.5718 -1.2748
30120SOL    HW2 8353   3.093   3.541  11.398  0.3667 -1.7299  0.6355
30121SOL     OW 8354   1.916   2.509  10.422  0.6344 -0.2698  0.6408
30121SOL    HW1 8355   1.923   2.452  10.345  0.1501  0.0962  0.3157
30121SOL    HW2 8356   1.891   2.451  10.493  1.3152 -0.6525  0.5769
30122SOL     OW 8357   5.572  10.385  10.745 -0.5535  0.4703 -0.1874
30122SOL    HW1 8358   5.629  10.313  10.767 -0.6365  0.0998 -1.1187
30122SOL    HW2 8359   5.626  10.463  10.755  0.9392  0.0042 -3.2876
30123SOL     OW 8360  10.303   2.141   0.117 -0.2068 -0.6797 -0.1746
30123SOL    HW1 8361  10.257   2.186   0.188 -0.1512  2.0399 -1.7117
30123SOL    HW2 8362  10.237   2.085   0.077 -1.0943  0.1049  0.1411
30124SOL     OW 8363   0.812  12.396  13.033 -0.2744 -0.4152 -0.1500
30124SOL    HW1 8364   0.810  12.468  13.096 -0.2197  1.4330 -2.1433
30124SOL    HW2 8365   0.733  12.407  12.981  0.2437 -1.1814 -1.1452
30125SOL     OW 8366  11.242  11.060   7.454  0.1944 -0.1388 -0.2353
30125SOL    HW1 8367  11.186  11.100   7.388 -0.2124  0.9723  0.7382
30125SOL    HW2 8368  11.238  11.120   7.529 -0.1463 -1.8310  1.1729
30126SOL     OW 8369  12.574   1.058   0.762 -0.6457  0.1316  0.1502
30126SOL    HW1 8370  12.577   0.963   0.770 -1.2369  0.1227  0.3324
30126SOL    HW2 8371  12.485   1.077   0.733 -0.6880  0.6606  0.5974
30127SOL     OW 8372   8.789   3.741   5.337  0.3952  0.2392  0.0862
30127SOL    HW1 8373   8.712   3.775   5.291 -0.5901 -2.1817 -0.1849
30127SOL    HW2 8374   8.835   3.689   5.272  0.5976 -0.8248  1.0497
30128SOL     OW 8375   3.849  10.823   9.319 -0.5699 -0.5941 -0.1599
30128SOL    HW1 8376   3.824  10.888   9.384  0.6225  2.1639 -2.2467
30128SOL    HW2 8377   3.923  10.777   9.358 -0.5650  0.2438  0.8520
30129SOL     OW 8378   8.628  12.966   8.094  0.1713 -0.1211  0.0086
30129SOL    HW1 8379   8.573  13.039   8.066  0.4507  0.4114  0.7862
30129SOL    HW2 8380   8.567  12.905   8.136 -0.0653 -0.3540 -0.6601
30130SOL     OW 8381   3.949   8.447   0.352  0.6088  0.2902 -0.1703
30130SOL    HW1 8382   4.022   8.508   0.359  0.4123  0.4461  0.5236
30130SOL    HW2 8383   3.888   8.474   0.419 -0.2861  0.4093 -1.0130
30131SOL     OW 8384   0.377   2.778   1.538  1.0291  0.4028 -0.1126
30131SOL    HW1 8385   0.345   2.727   1.464  0.3873 -0.2631  0.6163
30131SOL    HW2 8386   0.416   2.714   1.596 -0.3565  0.6393  1.1208
30132SOL     OW 8387   9.923   5.834   1.239  0.3090  0.4652 -0.1656
30132SOL    HW1 8388   9.888   5.846   1.151  0.8929 -0.2973 -0.5029
30132SOL    HW2 8389   9.971   5.752   1.236 -0.7137 -0.2347  1.1975
30133SOL     OW 8390   6.738  12.684   4.037 -0.4280 -0.0791 -0.1098
30133SOL    HW1 8391   6.802  12.682   4.108 -0.3782 -0.6079 -0.1666
30133SOL    HW2 8392   6.677  12.613   4.058 -1.0673  0.4964  0.0080
30134SOL     OW 8393   3.845   8.749   1.764  0.3665  0.2709  0.0371
30134SOL    HW1 8394   3.896   8.698   1.827  2.2341  1.2392 -0.6091
30134SOL    HW2 8395   3.895   8.744   1.683 -1.4748 -0.1156 -1.1137
30135SOL     OW 8396   5.547   6.519   7.333 -0.3064  0.1757 -0.6685
30135SOL    HW1 8397   5.545   6.608   7.368 -0.6224 -0.0254 -0.1594
30135SOL    HW2 8398   5.471   6.514   7.274  0.3399  0.5756 -1.5506
30136SOL     OW 8399   9.669   2.288   5.831  0.0372 -0.1636 -0.4833
30136SOL    HW1 8400   9.660   2.248   5.745  0.3061 -2.7513  0.6043
30136SOL    HW2 8401   9.579   2.300   5.862 -0.0781 -1.8512 -0.0532
30137SOL     OW 8402   5.351   8.461  13.856 -0.3281 -0.3220  0.0326
30137SOL    HW1 8403   5.259   8.488  13.852 -0.2627  0.1371  1.2319
30137SOL    HW2 8404   5.359   8.412  13.938  1.0342  1.9654  1.3955
30138SOL     OW 8405   4.869   9.104   1.397  0.5216  0.1424 -0.1801
30138SOL    HW1 8406   4.793   9.096   1.338  0.3003  0.2162  0.0958
30138SOL    HW2 8407   4.832   9.099   1.485  0.9019 -0.4511 -0.0461
30139SOL     OW 8408   8.344  10.590   2.902 -0.0014  0.1772 -0.0946
30139SOL    HW1 8409   8.285  10.626   2.968 -0.0248  2.0180 -1.0545
30139SOL    HW2 8410   8.426  10.574   2.949 -0.5100 -0.1039  0.7192
30140SOL     OW 8411   1.635   6.347  12.050  0.1439  0.0621  0.3243
30140SOL    HW1 8412   1.680   6.263  12.057 -0.3152 -0.4588 -1.9254
30140SOL    HW2 8413   1.571   6.347  12.121 -0.4149 -1.8788 -0.1227
30141SOL     OW 8414   9.962  13.244  11.620  0.0420  0.0329 -0.5642
30141SOL    HW1 8415   9.901  13.171  11.630  0.4863 -0.3108 -0.3549
30141SOL    HW2 8416  10.010  13.224  11.540  1.8035 -1.1287  0.7178
30142SOL     OW 8417   6.978  12.024  14.035  0.6051 -0.1475 -0.4457
30142SOL    HW1 8418   7.053  11.967  14.049  0.8139  0.4755  1.2720
30142SOL    HW2 8419   6.951  12.050  14.123 -1.6432 -0.3510 -1.0198
30143SOL     OW 8420   2.429   1.072  13.907 -0.1237 -0.2226 -0.5483
30143SOL    HW1 8421   2.417   1.060  14.001 -0.0763  0.5762 -0.4344
30143SOL    HW2 8422   2.479   0.995  13.880  0.1885 -0.2803  0.1512
30144SOL     OW 8423  13.690   9.852   5.787 -1.2922  0.1519  0.2838
30144SOL    HW1 8424  13.775   9.866   5.829 -1.9149  0.8566  1.3822
30144SOL    HW2 8425  13.685   9.758   5.773 -0.4844  0.0616  0.5586
30145SOL     OW 8426   5.604   2.351  13.078  0.5146 -0.0304  0.3654
30145SOL    HW1 8427   5.670   2.402  13.124 -0.4186  1.4054  0.1882
30145SOL    HW2 8428   5.625   2.363  12.985 -0.4165  1.0776  0.2788
30146SOL     OW 8429  11.057  10.725  13.726 -0.3777  0.1686  0.0243
30146SOL    HW1 8430  11.067  10.712  13.820  0.4849 -0.4708 -0.1341
30146SOL    HW2 8431  10.973  10.684  13.704  0.4379 -1.7316  0.1877
30147SOL     OW 8432   4.058  12.488   9.317 -0.5313  0.3021 -0.5846
30147SOL    HW1 8433   4.080  12.398   9.290  2.1893 -0.2969  2.8393
30147SOL    HW2 8434   4.002  12.477   9.394 -1.3576  1.6279 -0.9647
30148SOL     OW 8435  11.158  10.942   0.397 -0.5094  0.3942 -0.4441
30148SOL    HW1 8436  11.134  10.985   0.315 -1.4909  1.7991  0.5346
30148SOL    HW2 8437  11.077  10.938   0.447 -0.0394 -0.9074  0.2891
30149SOL     OW 8438  13.271  12.155   5.065  0.0937 -0.5302 -0.4520
30149SOL    HW1 8439  13.312  12.210   4.999 -0.7185 -0.7095 -1.1154
30149SOL    HW2 8440  13.344  12.127   5.121  0.3801  2.1532  0.6370
30150SOL     OW 8441   8.762  11.346   1.790  0.4617  0.2584  0.6766
30150SOL    HW1 8442   8.826  11.400   1.744  0.8845 -1.0957 -0.3994
30150SOL    HW2 8443   8.806  11.261   1.800 -1.3235 -0.8929 -0.5870
30151SOL     OW 8444  12.349   7.770  10.447 -0.2637 -0.3651  0.3907
30151SOL    HW1 8445  12.337   7.791  10.540 -2.7279  3.0188 -0.4688
30151SOL    HW2 8446  12.267   7.728  10.422 -0.8982  1.4421 -0.7692
30152SOL     OW 8447  14.050   1.529   8.052  0.7096  0.2070 -0.1601
30152SOL    HW1 8448  14.065   1.438   8.079  0.9152  0.5838  1.0816
30152SOL    HW2 8449  14.102   1.540   7.973  1.6875 -0.4056  0.3857
30153SOL     OW 8450   9.562   3.820  13.881 -0.0597 -0.5175  0.0715
30153SOL    HW1 8451   9.580   3.795  13.791 -0.1865  0.4027 -0.2184
30153SOL    HW2 8452   9.622   3.893  13.898 -0.5851 -0.1716  0.4726
30154SOL     OW 8453   9.041   4.052  12.690 -0.3051  0.8023 -0.3589
30154SOL    HW1 8454   8.974   4.069  12.624  0.5839  2.2768 -0.9224
30154SOL    HW2 8455   9.114   4.109  12.666  1.1992 -0.7954  0.2003
30155SOL     OW 8456  11.808   1.905  12.320 -0.5588  0.0066 -0.0164
30155SOL    HW1 8457  11.736   1.920  12.259 -2.4549 -0.0258  2.0843
30155SOL    HW2 8458  11.787   1.821  12.362  0.7134 -0.0104  0.6257
30156SOL     OW 8459   1.307   6.505   8.076  0.1533 -0.2840  0.6170
30156SOL    HW1 8460   1.363   6.472   8.146  1.1321  0.7095  0.3240
30156SOL    HW2 8461   1.324   6.599   8.073 -1.7142  0.0985  0.6722
30157SOL     OW 8462  10.555   4.619   9.868 -0.1050  0.0225  0.7156
30157SOL    HW1 8463  10.559   4.613   9.772  0.2875 -1.7239  0.8024
30157SOL    HW2 8464  10.615   4.689   9.891  0.8105 -0.4212 -0.2567
30158SOL     OW 8465   0.182   4.630  12.928  0.1708  0.2997 -0.0418
30158SOL    HW1 8466   0.106   4.629  12.986 -0.0614  2.1680 -0.2469
30158SOL    HW2 8467   0.256   4.605  12.984 -0.6364 -2.2373  0.0027
30159SOL     OW 8468   4.379   8.616   9.090  0.3659 -0.6580  0.4950
30159SOL    HW1 8469   4.474   8.607   9.094  0.2654 -2.1870 -0.1745
30159SOL    HW2 8470   4.361   8.643   9.000  0.1148 -1.2707  0.3568
30160SOL     OW 8471   0.250  10.916   6.509 -0.0601 -0.1876  0.0303
30160SOL    HW1 8472   0.329  10.862   6.504 -0.3929 -0.7399  0.6448
30160SOL    HW2 8473   0.219  10.905   6.598 -0.1363  1.0427  0.1758
30161SOL     OW 8474   2.893  10.521   0.784 -0.5334 -0.5063  0.2958
30161SOL    HW1 8475   2.884  10.441   0.731 -0.0105 -1.0371  0.9825
30161SOL    HW2 8476   2.965  10.502   0.844  0.8587  1.1966 -0.7587
30162SOL     OW 8477   5.861  11.327   8.539 -0.4016 -0.4919  0.0606
30162SOL    HW1 8478   5.938  11.294   8.492 -1.8547  0.5885 -3.3941
30162SOL    HW2 8479   5.890  11.411   8.575  0.4774 -0.8359  0.1861
30163SOL     OW 8480  11.139  11.914   2.609  0.2103  0.1308  0.9853
30163SOL    HW1 8481  11.094  11.892   2.528 -0.1268  0.8462  0.9715
30163SOL    HW2 8482  11.201  11.842   2.623  0.1000 -0.1153  0.2267
30164SOL     OW 8483   1.554  12.063   9.352  0.1162  0.1167  0.4284
30164SOL    HW1 8484   1.544  12.031   9.441  1.3972  1.6238  1.1557
30164SOL    HW2 8485   1.642  12.100   9.349 -0.5469  1.7398 -0.9006
30165SOL     OW 8486   5.477  11.698   0.426 -0.0852 -0.5756 -0.5579
30165SOL    HW1 8487   5.428  11.640   0.483 -0.7557  1.7454  1.3863
30165SOL    HW2 8488   5.560  11.653   0.411 -0.4108 -1.8431  1.2039
30166SOL     OW 8489  13.134   6.496   5.478  0.0821  0.0671  0.7357
30166SOL    HW1 8490  13.078   6.571   5.497  0.3503  0.0811  1.5252
30166SOL    HW2 8491  13.222   6.533   5.468 -0.2464  0.2597 -2.1246
30167SOL     OW 8492   9.754   8.159   6.977 -0.4923  0.3607 -0.1935
30167SOL    HW1 8493   9.849   8.151   6.969 -0.3144 -0.5845  2.0247
30167SOL    HW2 8494   9.740   8.245   7.018 -0.6199  0.6376 -0.8143
30168SOL     OW 8495   6.148   7.872   6.087  0.1013 -0.1281  0.0253
30168SOL    HW1 8496   6.093   7.805   6.127  0.9865 -1.1947 -0.4846
30168SOL    HW2 8497   6.120   7.874   5.995  0.1922  0.0895  0.0012
30169SOL     OW 8498  10.519   6.410   3.571  0.3584 -0.2242  0.3172
30169SOL    HW1 8499  10.487   6.497   3.596 -0.7896 -0.5968  0.1683
30169SOL    HW2 8500  10.580   6.387   3.642  1.9609  1.3666 -0.4583
30170SOL     OW 8501   6.197   6.643   8.122 -0.3386 -0.1751 -0.1306
30170SOL    HW1 8502   6.191   6.728   8.078  0.1575  0.3575  0.7855
30170SOL    HW2 8503   6.108   6.607   8.117 -0.4857  0.2586 -0.7884
30171SOL     OW 8504   1.361   5.271  10.077 -0.2967  0.3971 -0.3668
30171SOL    HW1 8505   1.355   5.366  10.081 -0.4788  0.3764 -0.0836
30171SOL    HW2 8506   1.312   5.241  10.154  1.2347  0.1170  0.5407
30172SOL     OW 8507  10.772   4.902   2.975  0.4492 -0.1321 -0.6167
30172SOL    HW1 8508  10.847   4.851   3.007  0.0979 -0.0402  0.3766
30172SOL    HW2 8509  10.801   4.993   2.983  0.3466 -0.1074 -0.5286
30173SOL     OW 8510   7.768  12.227  13.230  0.1476  0.0706 -0.6690
30173SOL    HW1 8511   7.676  12.213  13.253 -0.0581  1.2559 -0.7312
30173SOL    HW2 8512   7.814  12.151  13.267 -0.7503 -0.1588 -0.0075
30174SOL     OW 8513  10.550   2.555  13.288  0.0329 -0.2734  0.6387
30174SOL    HW1 8514  10.600   2.524  13.363 -0.0816 -0.3101  0.7000
30174SOL    HW2 8515  10.529   2.476  13.238  0.5152 -0.1999  0.3165
30175SOL     OW 8516   9.174   0.564  11.444 -0.0562 -0.0916 -0.2010
30175SOL    HW1 8517   9.183   0.654  11.475  0.1377  0.0062 -0.5315
30175SOL    HW2 8518   9.090   0.564  11.397  0.1607  0.0417 -0.6007
30176SOL     OW 8519   6.191   4.752   3.412  0.1739 -0.2337 -0.1960
30176SOL    HW1 8520   6.208   4.668   3.368 -0.4755  1.2288 -3.5895
30176SOL    HW2 8521   6.112   4.785   3.369  0.6052  2.2902  0.7874
30177SOL     OW 8522  10.827  12.348  12.621 -0.4651 -0.5704 -0.5427
30177SOL    HW1 8523  10.747  12.351  12.673  0.4521  0.9440  0.8662
30177SOL    HW2 8524  10.895  12.319  12.683  0.5222  0.6196 -1.0186
30178SOL     OW 8525   6.713  13.113   1.554  0.2327 -0.6445 -0.2867
30178SOL    HW1 8526   6.770  13.083   1.483 -0.4062 -0.3381 -0.9426
30178SOL    HW2 8527   6.734  13.206   1.564 -0.8465 -0.2710 -1.2359
30179SOL     OW 8528   5.758   9.359  11.614 -0.2449 -0.2562  0.1960
30179SOL    HW1 8529   5.677   9.316  11.639 -1.3932  1.0985 -0.9843
30179SOL    HW2 8530   5.759   9.440  11.666 -0.9918  0.9704 -1.6017
30180SOL     OW 8531  12.777   4.555   6.802 -0.4866 -0.2467  0.0328
30180SOL    HW1 8532  12.789   4.646   6.775 -1.3177 -0.1440 -0.0120
30180SOL    HW2 8533  12.764   4.507   6.720 -0.8959 -0.2683  0.1087
30181SOL     OW 8534   0.198  10.820   5.144 -0.0976  0.0785  0.2431
30181SOL    HW1 8535   0.205  10.906   5.185  1.1868 -0.7233  1.8544
30181SOL    HW2 8536   0.255  10.764   5.197 -1.5209 -1.9512 -0.2519
30182SOL     OW 8537   1.700   7.622   7.679  0.1800  0.1764 -0.7650
30182SOL    HW1 8538   1.685   7.547   7.622  0.9007 -0.3169 -0.3148
30182SOL    HW2 8539   1.793   7.620   7.699 -0.2172 -0.2990  1.2864
30183SOL     OW 8540   8.355  10.923   7.420  0.1555  0.2580 -0.0374
30183SOL    HW1 8541   8.268  10.901   7.385  0.4981  0.9159 -1.3656
30183SOL    HW2 8542   8.404  10.842   7.416 -0.1618  0.0644 -0.0086
30184SOL     OW 8543   7.633  12.472  13.414  0.0566  0.1669 -0.1414
30184SOL    HW1 8544   7.566  12.538  13.432  1.0271  1.2449 -0.3684
30184SOL    HW2 8545   7.660  12.442  13.501 -1.0702 -0.6595 -0.0589
30185SOL     OW 8546   0.454  10.934  11.346  0.0728  0.0566 -0.8196
30185SOL    HW1 8547   0.520  10.940  11.415 -1.6757  1.4152  0.8700
30185SOL    HW2 8548   0.481  10.998  11.280 -0.5007  2.0811  0.8032
30186SOL     OW 8549   7.039  13.583   2.149 -0.0341 -0.6823  0.3853
30186SOL    HW1 8550   7.068  13.673   2.162 -1.1465 -0.4298  1.3518
30186SOL    HW2 8551   7.109  13.542   2.099 -0.1869  1.1304 -1.4563
30187SOL     OW 8552   5.275   1.249  14.101  0.0903 -0.0127 -0.0244
30187SOL    HW1 8553   5.266   1.154  14.100  1.0638 -0.1127 -0.7963
30187SOL    HW2 8554   5.263   1.274  14.192 -0.2890 -0.8593  0.1605
30188SOL     OW 8555   7.070   5.255  10.439  0.1875 -0.0991 -0.6413
30188SOL    HW1 8556   7.086   5.174  10.487 -3.2449 -0.6867 -0.2583
30188SOL    HW2 8557   7.151   5.306  10.450  1.3533 -2.2260  1.5888
30189SOL     OW 8558   0.060   7.425   8.737 -0.1065 -0.4757  0.3508
30189SOL    HW1 8559   0.121   7.496   8.753 -0.3163 -0.6054  1.9638
30189SOL    HW2 8560   0.040   7.390   8.825  0.7019 -3.1310 -0.4230
30190SOL     OW 8561   9.835  11.397  11.374 -0.3611 -0.2949  0.4338
30190SOL    HW1 8562   9.928  11.404  11.394 -0.6049  1.0451  1.2216
30190SOL    HW2 8563   9.830  11.402  11.278  0.4313 -1.2485  0.3377
30191SOL     OW 8564  12.675  12.824   9.217 -0.6579  0.3298 -0.2000
30191SOL    HW1 8565  12.725  12.764   9.162  0.3095  1.3641 -0.4919
30191SOL    HW2 8566  12.723  12.906   9.212 -1.0444  0.6950  1.4922
30192SOL     OW 8567  13.665   6.556   6.016 -0.0511 -0.2887 -0.2853
30192SOL    HW1 8568  13.644   6.521   5.930  0.7779 -0.1118 -0.5626
30192SOL    HW2 8569  13.729   6.496   6.052 -0.4199 -0.3814  0.2287
30193SOL     OW 8570   2.331  13.931   1.116  0.0053 -0.1947 -0.5397
30193SOL    HW1 8571   2.362  13.926   1.026 -0.0199 -1.9017 -0.4865
30193SOL    HW2 8572   2.392  13.991   1.159  0.7574 -0.3144 -1.4111
30194SOL     OW 8573   8.942   8.373  13.038  0.1600  0.3642  0.0635
30194SOL    HW1 8574   8.986   8.401  13.119 -2.0205  2.5146  0.6135
30194SOL    HW2 8575   8.970   8.436  12.972  0.5558 -0.3436 -0.4677
30195SOL     OW 8576   7.629  12.581   0.172 -0.1798  0.4971  0.1400
30195SOL    HW1 8577   7.622  12.486   0.169 -0.0792  0.4246  1.4643
30195SOL    HW2 8578   7.538  12.612   0.177 -0.1870  0.3161  2.1233
30196SOL     OW 8579  13.449  13.615   0.870 -0.0944 -0.0835  0.2433
30196SOL    HW1 8580  13.404  13.561   0.935 -0.4067 -0.1050  0.0129
30196SOL    HW2 8581  13.379  13.663   0.826  0.2238  1.0107  0.8896
30197SOL     OW 8582   4.628  13.295   1.221 -0.2964  0.0128  0.4442
30197SOL    HW1 8583   4.661  13.207   1.198 -0.1113 -0.2736  1.7456
30197SOL    HW2 8584   4.678  13.319   1.299 -0.3663  1.2825  0.1111
30198SOL     OW 8585   0.738   3.002   9.887 -0.2415  0.3211  0.1128
30198SOL    HW1 8586   0.770   3.092   9.884  0.3969  0.2136  2.1877
30198SOL    HW2 8587   0.754   2.968   9.799 -0.6992  2.2718 -0.7886
30199SOL     OW 8588  12.919  10.545  13.818  0.4664 -0.1115 -0.0756
30199SOL    HW1 8589  12.917  10.517  13.726 -1.5628 -0.1175 -0.0917
30199SOL    HW2 8590  12.890  10.636  13.816 -0.7172 -0.4430  0.6075
30200SOL     OW 8591  13.783   5.715   0.271 -0.4556 -0.2498  0.1705
30200SOL    HW1 8592  13.753   5.637   0.223 -0.3126 -0.6012  0.6410
30200SOL    HW2 8593  13.852   5.751   0.216 -0.3859 -0.5699  0.0416
30201SOL     OW 8594   2.020   7.411   5.748 -0.2066 -0.1997  0.2626
30201SOL    HW1 8595   2.068   7.493   5.754  1.1923 -0.9784  0.2428
30201SOL    HW2 8596   2.051   7.360   5.823 -0.5993 -0.9260 -0.0591
30202SOL     OW 8597   3.966  10.298   4.657  0.1195  0.1995 -0.0205
30202SOL    HW1 8598   4.018  10.355   4.714  0.1934 -0.0622  0.1758
30202SOL    HW2 8599   3.896  10.265   4.713 -0.5818  0.9688 -0.4219
30203SOL     OW 8600  13.439   9.206   8.115 -0.8605 -0.1836  0.3306
30203SOL    HW1 8601  13.510   9.202   8.179 -1.0387 -0.2666  0.5217
30203SOL    HW2 8602  13.361   9.226   8.166 -0.8903  0.4243  0.0606
30204SOL     OW 8603  12.248   1.644  13.495  1.0824  0.4832 -0.1182
30204SOL    HW1 8604  12.165   1.631  13.539  2.0863 -1.2540  1.3827
30204SOL    HW2 8605  12.264   1.562  13.449  2.8852 -0.0368  1.3088
30205SOL     OW 8606   7.169  13.364   4.272 -0.6514  0.7199  0.1987
30205SOL    HW1 8607   7.117  13.357   4.352 -1.6606 -0.6443 -0.5175
30205SOL    HW2 8608   7.107  13.394   4.206 -0.2207  0.3151 -0.4024
30206SOL     OW 8609   7.616   1.902  14.143  0.0938  0.4293 -0.1430
30206SOL    HW1 8610   7.595   1.984  14.188 -0.2070 -0.2100  0.8966
30206SOL    HW2 8611   7.595   1.920  14.051 -0.3064  1.4057  0.1242
30207SOL     OW 8612   8.877   8.234  13.575  0.7111 -0.2154  0.2906
30207SOL    HW1 8613   8.820   8.228  13.498  0.5424 -2.9354  0.5076
30207SOL    HW2 8614   8.827   8.191  13.645  1.3344  1.1714  1.6561
30208SOL     OW 8615   5.784   1.209  11.091  0.2483 -0.4451 -0.4100
30208SOL    HW1 8616   5.707   1.235  11.040  0.8601 -0.7398 -1.5142
30208SOL    HW2 8617   5.813   1.289  11.133 -0.2930 -0.1986 -0.5023
30209SOL     OW 8618   8.204   3.105   8.941  0.3769 -0.0990  0.0835
30209SOL    HW1 8619   8.215   3.176   9.005  2.9846  0.3451 -0.7256
30209SOL    HW2 8620   8.179   3.029   8.993  2.0625  0.3399  1.6553
30210SOL     OW 8621   4.284   3.914   6.592 -0.0617 -0.0587  0.4024
30210SOL    HW1 8622   4.335   3.991   6.567 -1.3610  0.7190  0.1016
30210SOL    HW2 8623   4.206   3.948   6.635 -0.1305 -1.2484  1.2902
30211SOL     OW 8624   0.724  10.647   3.239  0.1125  0.4740 -0.1587
30211SOL    HW1 8625   0.759  10.647   3.149  2.1191 -0.0866  0.5522
30211SOL    HW2 8626   0.737  10.737   3.269  1.3153  0.2045  0.1970
30212SOL     OW 8627   2.856  13.572   7.191  0.2581 -0.4627 -0.3084
30212SOL    HW1 8628   2.822  13.554   7.279 -2.4914  2.0477 -0.6887
30212SOL    HW2 8629   2.950  13.555   7.198 -0.0461 -1.5975  2.7319
30213SOL     OW 8630   0.249   3.388  10.380  0.6874 -0.0594  0.0858
30213SOL    HW1 8631   0.338   3.407  10.350  0.7672 -0.0033  0.3580
30213SOL    HW2 8632   0.247   3.293  10.389  0.5265 -0.1172 -0.5245
30214SOL     OW 8633   6.213   1.293  12.521  0.2862  0.6704  0.4857
30214SOL    HW1 8634   6.176   1.224  12.467 -0.0338  1.5821 -0.5045
30214SOL    HW2 8635   6.297   1.258  12.552 -0.7549 -0.9151  1.6693
30215SOL     OW 8636   5.890  11.272   9.623  0.3899 -0.1413 -0.1421
30215SOL    HW1 8637   5.872  11.348   9.678  0.0045 -1.7891  2.1509
30215SOL    HW2 8638   5.846  11.200   9.668  1.6254 -1.9138 -1.6653
30216SOL     OW 8639   8.656   4.579  13.923 -0.2619 -0.1485 -0.1855
30216SOL    HW1 8640   8.686   4.585  14.014  0.7992  0.5991 -0.5681
30216SOL    HW2 8641   8.595   4.652  13.914  0.0804  0.1309 -0.2389
30217SOL     OW 8642  13.885  10.931  12.735 -0.1710 -0.4896  0.8195
30217SOL    HW1 8643  13.808  10.988  12.731  0.1887  0.0161  0.8473
30217SOL    HW2 8644  13.958  10.991  12.720  0.2869 -0.7916  1.8360
30218SOL     OW 8645   7.434   7.117  13.462  0.2118  0.8892 -0.0964
30218SOL    HW1 8646   7.436   7.103  13.367 -1.1324 -1.7628  0.1785
30218SOL    HW2 8647   7.523   7.145  13.483  0.7194  0.9514 -2.0550
30219SOL     OW 8648  10.284   9.148   3.061 -0.2506 -0.0647 -0.0513
30219SOL    HW1 8649  10.233   9.081   3.107 -1.0925  0.8048  0.3284
30219SOL    HW2 8650  10.332   9.100   2.994 -2.4088 -0.8087 -1.1602
30220SOL     OW 8651   2.369   8.047   6.894 -0.0554 -0.0411 -0.3346
30220SOL    HW1 8652   2.416   8.120   6.936 -0.6417 -0.7928  1.7772
30220SOL    HW2 8653   2.432   8.012   6.831  1.8279 -0.2125  1.4903
30221SOL     OW 8654   7.636   9.096  11.479 -0.2443  0.7660 -0.2665
30221SOL    HW1 8655   7.691   9.145  11.418  2.5506  0.3189  1.7255
30221SOL    HW2 8656   7.630   9.008  11.441 -0.2269  1.0295 -0.8809
30222SOL     OW 8657  13.981  10.925   3.760 -0.2767 -0.5721  0.1839
30222SOL    HW1 8658  13.891  10.949   3.737 -0.1546  0.2712  0.5659
30222SOL    HW2 8659  13.983  10.925   3.856  0.0969 -0.7292  0.1798
30223SOL     OW 8660  10.839   2.669  11.864  0.7632  0.2536 -0.5500
30223SOL    HW1 8661  10.841   2.601  11.797  0.9799  0.4809 -0.7781
30223SOL    HW2 8662  10.746   2.682  11.882  0.7500 -0.7474  0.1686
30224SOL     OW 8663   8.275  12.783   6.686 -0.3521 -0.4019  0.0968
30224SOL    HW1 8664   8.221  12.732   6.625  0.3269 -0.6518 -0.3106
30224SOL    HW2 8665   8.325  12.841   6.629  0.1928 -0.5417  0.4256
30225SOL     OW 8666   0.340   3.026   1.631 -0.2188  0.5278  0.0482
30225SOL    HW1 8667   0.249   3.045   1.655 -0.7200 -1.0348 -0.5065
30225SOL    HW2 8668   0.338   2.937   1.597  1.2198  1.0791 -1.6331
30226SOL     OW 8669   7.921   8.425   5.113 -0.1411 -0.2246  0.0989
30226SOL    HW1 8670   7.988   8.465   5.057 -0.6994 -1.6308 -1.6743
30226SOL    HW2 8671   7.906   8.490   5.182  3.4751 -0.1150  0.9926
30227SOL     OW 8672   3.303   3.090  12.565 -0.5082 -0.5646  0.1215
30227SOL    HW1 8673   3.234   3.091  12.499  0.6283 -0.2225 -1.1117
30227SOL    HW2 8674   3.383   3.070  12.516  0.7864  2.1332  0.9489
30228SOL     OW 8675  11.713  11.392   3.209  0.6048 -0.3115  0.4848
30228SOL    HW1 8676  11.637  11.412   3.264  0.6244  1.5580 -0.0930
30228SOL    HW2 8677  11.788  11.421   3.259  0.8918 -1.4073  0.7110
30229SOL     OW 8678   5.600  12.908   7.605 -0.0837 -0.1508 -0.6243
30229SOL    HW1 8679   5.588  12.813   7.612  0.6066 -0.1671  0.6354
30229SOL    HW2 8680   5.692  12.919   7.582 -0.6088  0.1798 -2.7028
30230SOL     OW 8681   2.545  12.729   1.667 -0.1520 -0.0990 -0.0304
30230SOL    HW1 8682   2.459  12.687   1.660 -1.3409  2.1572 -0.1061
30230SOL    HW2 8683   2.581  12.697   1.749 -0.3357 -2.2918 -0.7518
30231SOL     OW 8684  12.915   2.063   0.887  1.0581 -0.2467 -0.1787
30231SOL    HW1 8685  12.874   1.978   0.874 -1.9495  1.1520 -0.6080
30231SOL    HW2 8686  12.950   2.087   0.801 -0.8070  0.2070 -0.8521
30232SOL     OW 8687   1.076   4.603  12.014  0.2702  0.6486 -0.0765
30232SOL    HW1 8688   1.019   4.542  12.060  0.2240  1.2113  0.6176
30232SOL    HW2 8689   1.165   4.577  12.040  0.2467  0.9294  0.2856
30233SOL     OW 8690   6.545  12.767   1.049 -0.5115  0.7929 -0.7691
30233SOL    HW1 8691   6.517  12.675   1.045 -1.9814  1.2725 -3.2499
30233SOL    HW2 8692   6.516  12.796   1.136  1.1748 -1.3478  0.6428
30234SOL     OW 8693   3.129  12.352   5.689 -0.5996 -0.1804  0.0627
30234SOL    HW1 8694   3.110  12.433   5.736 -0.7814 -1.0298  1.5236
30234SOL    HW2 8695   3.043  12.313   5.674 -0.5092 -0.1337 -0.5924
30235SOL     OW 8696   1.230   7.441  11.275 -0.2536 -0.3155 -0.0515
30235SOL    HW1 8697   1.295   7.509  11.262 -1.0717  0.7749  1.2887
30235SOL    HW2 8698   1.146   7.484  11.258 -0.7216 -1.2984 -0.3357
30236SOL     OW 8699   7.734   5.468  14.147  0.8247  0.1607  0.1132
30236SOL    HW1 8700   7.674   5.402  14.183  1.1673 -0.7745 -0.9426
30236SOL    HW2 8701   7.776   5.507  14.223 -2.8013  2.6306  1.1357
30237SOL     OW 8702  12.047   3.577   6.039 -0.3516 -0.4776 -0.3233
30237SOL    HW1 8703  12.086   3.662   6.017 -0.2724  0.0229  1.5390
30237SOL    HW2 8704  12.102   3.513   5.995  2.0513  0.2532  1.4358
30238SOL     OW 8705   2.562   0.668   6.875  0.4191  0.0492  0.3544
30238SOL    HW1 8706   2.526   0.672   6.786 -0.3167 -0.0653  0.6368
30238SOL    HW2 8707   2.484   0.664   6.931  0.8814  0.0833  0.9984
30239SOL     OW 8708   4.913  10.955   6.428  0.0532  0.4253 -0.2639
30239SOL    HW1 8709   4.973  10.897   6.476  0.0649  1.2550  0.7419
30239SOL    HW2 8710   4.906  10.914   6.341  2.9642  0.8898 -0.8237
30240SOL     OW 8711   8.218   7.745   7.680  0.0306 -0.0868 -0.3323
30240SOL    HW1 8712   8.184   7.668   7.724  0.4843  0.8795  1.8095
30240SOL    HW2 8713   8.313   7.737   7.687  0.0946  1.6497  1.8813
30241SOL     OW 8714   4.702   4.310   8.450  0.5038  0.4247  0.0395
30241SOL    HW1 8715   4.666   4.311   8.538 -1.6306 -2.7252 -0.6430
30241SOL    HW2 8716   4.637   4.355   8.396  0.3918 -0.1873 -0.3473
30242SOL     OW 8717  10.348  12.068   6.408 -0.7256 -0.5450 -0.0667
30242SOL    HW1 8718  10.312  12.133   6.469 -0.9651 -0.2989 -0.4630
30242SOL    HW2 8719  10.443  12.075   6.420 -0.6836  0.6703 -0.8749
30243SOL     OW 8720  12.540   5.904   0.396  0.3352  0.3646 -0.3598
30243SOL    HW1 8721  12.539   5.907   0.491  4.5093  0.2651 -0.1207
30243SOL    HW2 8722  12.501   5.987   0.369 -0.7580  0.4739  1.3905
30244SOL     OW 8723   5.157   8.306   5.220 -0.3981  0.5788  0.1184
30244SOL    HW1 8724   5.105   8.255   5.157 -0.5181  0.3771  0.3765
30244SOL    HW2 8725   5.242   8.315   5.178  0.0243 -0.9203  0.5862
30245SOL     OW 8726   3.236  12.832   1.820 -0.4026  0.3152  0.5694
30245SOL    HW1 8727   3.186  12.805   1.742  0.4548  1.6349 -0.4794
30245SOL    HW2 8728   3.275  12.751   1.853  1.0485 -0.0065 -1.7226
30246SOL     OW 8729   0.892   2.411  13.988 -0.1105 -0.0839 -0.1124
30246SOL    HW1 8730   0.841   2.379  13.913  1.3557  0.6278 -1.4680
30246SOL    HW2 8731   0.940   2.334  14.019 -0.3142 -0.2631 -0.2380
30247SOL     OW 8732  13.732   9.723   9.550 -0.5909 -0.3541 -0.6287
30247SOL    HW1 8733  13.639   9.741   9.538 -0.6992 -0.5128 -0.0581
30247SOL    HW2 8734  13.745   9.724   9.645 -0.0559 -0.5578 -0.6937
30248SOL     OW 8735  11.121   9.845  11.961 -0.1673 -0.7380 -0.1949
30248SOL    HW1 8736  11.150   9.829  11.871 -1.3423 -0.3004 -0.6573
30248SOL    HW2 8737  11.026   9.848  11.956 -0.2544 -0.8265  1.0932
30249SOL     OW 8738   1.356   4.899  13.323 -0.0406  0.0028 -0.8444
30249SOL    HW1 8739   1.415   4.824  13.331  1.3113  0.7151 -3.0846
30249SOL    HW2 8740   1.280   4.864  13.276 -0.8851 -0.6146  0.8878
30250SOL     OW 8741  11.682   1.149   3.808 -0.1189 -0.0201  0.5911
30250SOL    HW1 8742  11.588   1.137   3.824  0.3423 -0.6849  3.3839
30250SOL    HW2 8743  11.691   1.240   3.780 -1.5983  0.0057  0.1277
30251SOL     OW 8744   4.796   4.799  12.054  0.2147  0.5115  0.3712
30251SOL    HW1 8745   4.831   4.871  12.002  3.3181  1.0088  2.8470
30251SOL    HW2 8746   4.854   4.725  12.034 -0.0027  0.0682  1.3150
30252SOL     OW 8747   9.099   6.664   6.670  0.1891 -0.3945  0.6503
30252SOL    HW1 8748   9.026   6.670   6.609  1.8402  1.3727 -1.3097
30252SOL    HW2 8749   9.169   6.620   6.621  1.2727  0.2588  1.5331
30253SOL     OW 8750   6.667  10.123   5.724  0.4599 -0.3901  0.1965
30253SOL    HW1 8751   6.578  10.126   5.758  0.2929  0.9323 -0.2770
30253SOL    HW2 8752   6.676  10.205   5.675  0.8652 -1.9129 -2.4588
30254SOL     OW 8753   2.167  10.918   8.037 -0.4877  0.3264  0.2474
30254SOL    HW1 8754   2.248  10.926   8.087 -0.7753 -0.4644  0.8510
30254SOL    HW2 8755   2.182  10.971   7.959  1.2759 -1.1741 -0.4964
30255SOL     OW 8756  11.735   3.432   7.355  0.1849 -0.1049  0.0711
30255SOL    HW1 8757  11.771   3.505   7.406 -1.4018 -0.2955  1.5838
30255SOL    HW2 8758  11.765   3.354   7.401  0.1600 -0.3495 -0.3225
30256SOL     OW 8759   6.807   3.381   4.809  0.2534 -0.2476  0.1154
30256SOL    HW1 8760   6.858   3.433   4.748 -1.4288  0.2695 -0.9359
30256SOL    HW2 8761   6.871   3.325   4.853  1.6985  0.3977 -1.0830
30257SOL     OW 8762   6.019   0.381   7.415  0.3159 -0.1522  0.0795
30257SOL    HW1 8763   5.944   0.434   7.442  1.1823  1.3696 -0.3460
30257SOL    HW2 8764   6.081   0.445   7.379  0.7585 -1.6427 -2.0022
30258SOL     OW 8765   1.425  11.081   7.091 -0.1683  0.3919 -0.1317
30258SOL    HW1 8766   1.516  11.107   7.074 -0.6749  3.0259  0.8373
30258SOL    HW2 8767   1.378  11.108   7.013 -0.0778 -1.7684 -1.0211
30259SOL     OW 8768   8.334   8.354   3.864 -0.1317 -0.9621 -0.2023
30259SOL    HW1 8769   8.362   8.442   3.892  0.3589 -0.5617 -1.8155
30259SOL    HW2 8770   8.397   8.330   3.796 -0.5371 -2.3916 -0.1090
30260SOL     OW 8771   4.519   9.844  10.047  0.5022  0.1245  0.1560
30260SOL    HW1 8772   4.453   9.896  10.094 -0.3000 -1.1076  0.4583
30260SOL    HW2 8773   4.592   9.839  10.108 -0.0039 -0.3380  0.7408
30261SOL     OW 8774   9.310   9.165   5.088  0.3773  0.3905 -0.2626
30261SOL    HW1 8775   9.288   9.191   4.999 -0.8661  2.0562  0.4740
30261SOL    HW2 8776   9.379   9.226   5.114  0.0343  0.5763  0.2315
30262SOL     OW 8777   4.401   2.036   2.219 -0.5719  0.6234 -0.2192
30262SOL    HW1 8778   4.468   2.077   2.274 -1.3012  0.3570  0.9163
30262SOL    HW2 8779   4.438   2.038   2.131  1.7118 -1.0510  0.5864
30263SOL     OW 8780   3.129   5.803   9.509 -0.4733  0.0461 -0.0533
30263SOL    HW1 8781   3.152   5.856   9.433 -0.1009 -0.3678 -0.2379
30263SOL    HW2 8782   3.126   5.864   9.582  1.5086  0.0966  0.0295
30264SOL     OW 8783   6.412  11.702   5.458 -0.8823  0.2199  0.3473
30264SOL    HW1 8784   6.396  11.709   5.552  0.2019  2.3958  0.4318
30264SOL    HW2 8785   6.493  11.651   5.451 -0.7180  0.4357  0.6417
30265SOL     OW 8786  10.294  10.293   0.526  0.7067  0.0840  0.0728
30265SOL    HW1 8787  10.345  10.214   0.505  0.6126  0.3734 -1.3357
30265SOL    HW2 8788  10.237  10.305   0.451  1.0412  1.7654  0.0622
30266SOL     OW 8789   6.457   2.589   5.677 -0.1290 -0.2932  0.3073
30266SOL    HW1 8790   6.447   2.511   5.622  1.0649 -1.4750  1.6662
30266SOL    HW2 8791   6.537   2.631   5.644 -0.6268  0.2342 -0.2527
30267SOL     OW 8792   9.647   2.499  14.104  0.6569 -0.0576 -0.4500
30267SOL    HW1 8793   9.720   2.546  14.145  0.1955  0.5603 -0.3158
30267SOL    HW2 8794   9.614   2.560  14.037 -0.1261 -0.0739 -0.0894
30268SOL     OW 8795   0.098   9.825   7.019 -0.2676 -0.0384 -0.1341
30268SOL    HW1 8796   0.011   9.798   7.047 -0.7336 -0.4052 -1.8006
30268SOL    HW2 8797   0.132   9.750   6.970  1.6513 -0.4992  1.7316
30269SOL     OW 8798  11.132   1.759  11.965  0.2719 -0.5008  0.2378
30269SOL    HW1 8799  11.041   1.778  11.941  0.1304 -0.7180  0.6025
30269SOL    HW2 8800  11.128   1.677  12.014  0.6972 -0.6625  0.0151
30270SOL     OW 8801   9.839  12.722   6.415  0.1932 -0.0092 -0.2447
30270SOL    HW1 8802   9.931  12.728   6.388  0.0112 -2.7460 -1.8580
30270SOL    HW2 8803   9.841  12.739   6.509  2.4534 -0.4978 -0.1416
30271SOL     OW 8804   4.521   8.789   0.632 -0.3136  0.0145  0.3077
30271SOL    HW1 8805   4.428   8.795   0.655  0.0370  0.6098  1.6948
30271SOL    HW2 8806   4.541   8.875   0.594  0.0291  0.5282  1.5739
30272SOL     OW 8807  12.873   1.345   4.780  0.3151 -0.1221 -0.4308
30272SOL    HW1 8808  12.867   1.439   4.766  1.7287  0.6232  3.0207
30272SOL    HW2 8809  12.966   1.325   4.775  0.0753 -1.2547 -0.6961
30273SOL     OW 8810   7.214   1.991   5.333  0.1036  0.2017 -0.7928
30273SOL    HW1 8811   7.176   2.057   5.275 -0.4967  1.0852  0.5583
30273SOL    HW2 8812   7.139   1.954   5.380  0.4647 -1.2372 -1.2848
30274SOL     OW 8813  10.376   7.377   4.590 -0.3986  0.4505 -0.4550
30274SOL    HW1 8814  10.327   7.326   4.526  1.1066 -0.5970 -0.8153
30274SOL    HW2 8815  10.414   7.449   4.540 -0.0088  0.1825 -0.5394
30275SOL     OW 8816   1.491   3.966   3.307  0.1073  0.4158 -0.8164
30275SOL    HW1 8817   1.574   4.000   3.273 -0.0523  1.6774  0.0047
30275SOL    HW2 8818   1.481   3.881   3.264  1.6264  0.4135 -1.2224
30276SOL     OW 8819   2.184   4.953   5.491 -0.3221 -0.5029 -0.4501
30276SOL    HW1 8820   2.262   4.921   5.444 -0.8688 -2.4505 -0.1178
30276SOL    HW2 8821   2.151   5.023   5.435  1.9505  0.7667 -0.3290
30277SOL     OW 8822  13.420   5.232   8.860 -0.4833  0.1499  0.7407
30277SOL    HW1 8823  13.506   5.259   8.890 -0.0891  0.6034 -0.7043
30277SOL    HW2 8824  13.420   5.251   8.766 -1.2929 -2.0578  0.2308
30278SOL     OW 8825   5.655   4.456   9.059 -0.0081  0.5294 -0.7118
30278SOL    HW1 8826   5.585   4.509   9.021  0.6352  1.9445  0.0039
30278SOL    HW2 8827   5.732   4.513   9.057  1.2589 -1.1072 -1.8375
30279SOL     OW 8828   0.110   5.144   6.116  0.0558  0.1472 -0.4711
30279SOL    HW1 8829   0.068   5.229   6.100  2.0148  1.5650  1.3082
30279SOL    HW2 8830   0.154   5.123   6.034 -0.1664  1.0310 -0.8366
30280SOL     OW 8831   8.010   5.079  12.319 -0.2855 -0.1559  0.1052
30280SOL    HW1 8832   8.048   5.087  12.231  0.1094 -0.2151  0.2677
30280SOL    HW2 8833   8.009   5.169  12.352  4.4851 -0.5407  2.0695
30281SOL     OW 8834  11.386  13.311  13.030 -0.0868  0.1195  0.2561
30281SOL    HW1 8835  11.406  13.346  13.116  3.9252  0.6575 -0.6585
30281SOL    HW2 8836  11.393  13.387  12.971 -1.5653 -0.4516 -0.7312
30282SOL     OW 8837  11.572   9.702   2.580 -0.3117 -0.1140 -0.1207
30282SOL    HW1 8838  11.567   9.769   2.512 -0.1354  0.7150  0.6640
30282SOL    HW2 8839  11.502   9.641   2.558  0.9095 -0.9243 -2.1192
30283SOL     OW 8840   5.927   9.934   7.032  0.1505  0.4950  0.3075
30283SOL    HW1 8841   5.845   9.932   6.983 -0.1221 -1.5818  0.7491
30283SOL    HW2 8842   5.907   9.885   7.112  2.1988 -1.4230 -0.2678
30284SOL     OW 8843   9.939  12.668  10.574 -0.0868 -0.5435  0.0824
30284SOL    HW1 8844   9.877  12.728  10.615  1.8602  0.7930  1.2080
30284SOL    HW2 8845   9.988  12.722  10.513 -0.2672 -1.6780 -1.1113
30285SOL     OW 8846  11.790   0.673   0.307 -0.2929 -0.3627 -0.5526
30285SOL    HW1 8847  11.702   0.696   0.279 -0.5261  0.5244  0.8133
30285SOL    HW2 8848  11.804   0.723   0.388  2.0402  0.7910 -1.5515
30286SOL     OW 8849   0.913   5.206  12.490  0.5561  0.2421  0.0926
30286SOL    HW1 8850   0.969   5.283  12.480  0.6279  0.2837  0.7550
30286SOL    HW2 8851   0.906   5.169  12.402 -0.0450  1.3998 -0.3759
30287SOL     OW 8852   9.412  13.544   8.326  0.1186  0.0064 -0.7437
30287SOL    HW1 8853   9.383  13.494   8.250 -1.2760 -1.0039  0.3868
30287SOL    HW2 8854   9.488  13.593   8.295 -0.0328 -0.8396 -2.6030
30288SOL     OW 8855   4.224  13.648  10.114 -0.0388 -0.0855  0.6179
30288SOL    HW1 8856   4.297  13.660  10.175  0.9843  0.8888 -0.7409
30288SOL    HW2 8857   4.156  13.705  10.147 -0.1316 -0.8440  1.7880
30289SOL     OW 8858  10.577   7.121  10.076 -0.4029  0.0072 -0.4677
30289SOL    HW1 8859  10.560   7.060  10.148  0.3536 -0.0894 -0.3595
30289SOL    HW2 8860  10.657   7.088  10.035 -0.2550  0.6509 -0.7151
30290SOL     OW 8861   1.218   8.952   9.548 -1.0193  0.9132 -0.0408
30290SOL    HW1 8862   1.185   8.913   9.467 -0.1267  1.6737 -0.7905
30290SOL    HW2 8863   1.256   8.879   9.596 -2.4035  0.2873  0.1579
30291SOL     OW 8864   8.727   9.345   1.583 -0.6572  0.2317 -0.3426
30291SOL    HW1 8865   8.730   9.378   1.673 -1.4827  0.0355 -0.2333
30291SOL    HW2 8866   8.811   9.301   1.570 -0.4520  0.4418  0.2645
30292SOL     OW 8867  14.096   9.957   9.227  0.3857  0.0375 -0.1270
30292SOL    HW1 8868  14.138   9.879   9.190 -0.2769  0.1070 -1.0639
30292SOL    HW2 8869  14.161   9.993   9.288  1.0444 -0.7415 -0.3533
30293SOL     OW 8870   5.753  10.938   6.191  0.0212  0.0273  0.1367
30293SOL    HW1 8871   5.827  10.877   6.196  0.1775  0.1079 -0.9566
30293SOL    HW2 8872   5.691  10.895   6.132  0.1104  0.8889 -0.6041
30294SOL     OW 8873  12.754   8.556   9.178  0.3401  0.3256 -0.0915
30294SOL    HW1 8874  12.740   8.492   9.108 -0.6448 -0.2083  0.5689
30294SOL    HW2 8875  12.723   8.512   9.257 -0.0135  1.4945  0.4317
30295SOL     OW 8876   0.109   6.164   2.744 -0.5280 -0.1532  0.1326
30295SOL    HW1 8877   0.080   6.110   2.817 -1.1460  1.7202  1.3328
30295SOL    HW2 8878   0.204   6.151   2.741 -0.4960 -0.2696  1.2608
30296SOL     OW 8879   9.329   8.898   9.725 -0.4841 -0.2565 -0.0140
30296SOL    HW1 8880   9.412   8.850   9.730 -0.8169 -0.9760 -1.0234
30296SOL    HW2 8881   9.354   8.983   9.687 -0.1039 -0.1751  0.4085
30297SOL     OW 8882   1.677   7.479   3.862  0.5631  0.6522 -0.2464
30297SOL    HW1 8883   1.722   7.483   3.778 -1.7468 -0.2211 -1.6315
30297SOL    HW2 8884   1.657   7.570   3.883 -0.7579  0.7722 -1.8124
30298SOL     OW 8885   1.553   0.843   0.659  0.0727 -0.0958  0.1933
30298SOL    HW1 8886   1.617   0.783   0.620 -0.7100  0.1876 -1.6029
30298SOL    HW2 8887   1.563   0.925   0.612 -0.1853  0.6190  1.3290
30299SOL     OW 8888   1.491  13.498  11.509  0.2093  0.0684  0.0467
30299SOL    HW1 8889   1.494  13.538  11.595  1.3931 -0.2719  0.1848
30299SOL    HW2 8890   1.416  13.539  11.466 -0.8780 -0.3236  1.4937
30300SOL     OW 8891  12.503   5.543  10.910 -0.3358 -0.3054  0.2775
30300SOL    HW1 8892  12.477   5.602  10.839 -0.6043 -0.0142  0.6080
30300SOL    HW2 8893  12.479   5.591  10.989 -0.2227 -0.7132  0.5575
30301SOL     OW 8894   0.180   0.970   0.627  0.2375  0.2850  0.3738
30301SOL    HW1 8895   0.099   1.011   0.598 -1.0328 -1.7862  0.7478
30301SOL    HW2 8896   0.220   0.937   0.546 -0.0013  0.1161  0.3245
30302SOL     OW 8897   3.589  13.945   4.983  0.0296  0.1555 -0.2870
30302SOL    HW1 8898   3.642  13.964   5.060  0.2711 -1.4554 -0.0226
30302SOL    HW2 8899   3.561  13.854   4.995  0.3477 -0.2455 -2.2565
30303SOL     OW 8900  12.670   0.062   8.908  0.4385  0.0370  0.2423
30303SOL    HW1 8901  12.695  -0.026   8.937  1.4781  0.0556 -0.5286
30303SOL    HW2 8902  12.665   0.056   8.813 -1.4795  0.3373  0.2891
30304SOL     OW 8903   7.495  12.912  11.082  0.0637 -0.2690  0.6592
30304SOL    HW1 8904   7.557  12.985  11.078 -2.0351  1.9277  3.5794
30304SOL    HW2 8905   7.409  12.954  11.069 -1.0648 -3.2350 -3.8602
30305SOL     OW 8906   7.383  11.237   2.820 -0.5733  0.3203  0.5178
30305SOL    HW1 8907   7.432  11.308   2.779  1.8004 -1.1962  0.5436
30305SOL    HW2 8908   7.404  11.243   2.913 -0.3445 -0.4077  0.5195
30306SOL     OW 8909  13.862  10.460   0.692  0.1336  0.5138  0.8103
30306SOL    HW1 8910  13.836  10.515   0.618 -0.2383  1.0212  1.3126
30306SOL    HW2 8911  13.951  10.431   0.671 -0.2245  0.0841 -0.1585
30307SOL     OW 8912  13.358   7.684  10.843  0.0527 -0.4230  0.4392
30307SOL    HW1 8913  13.425   7.725  10.789 -1.1790  0.5657 -0.3782
30307SOL    HW2 8914  13.365   7.729  10.928  0.6585 -0.5891  0.4839
30308SOL     OW 8915   5.847  12.839   3.888  0.0234 -0.0965  0.6341
30308SOL    HW1 8916   5.786  12.889   3.941  1.5082  2.0374  0.4601
30308SOL    HW2 8917   5.882  12.772   3.947 -0.9047  0.0198  1.3206
30309SOL     OW 8918   0.680   3.700   6.053 -0.7333 -0.2580  0.1724
30309SOL    HW1 8919   0.589   3.726   6.067 -0.5993 -0.0568  0.6558
30309SOL    HW2 8920   0.674   3.619   6.002 -1.1706  0.0584 -0.2915
30310SOL     OW 8921  13.370   3.696  12.669 -0.0897 -0.2315 -0.2954
30310SOL    HW1 8922  13.362   3.696  12.765 -0.5050 -0.3927 -0.3307
30310SOL    HW2 8923  13.464   3.709  12.653  0.2725 -1.9981  0.1548
30311SOL     OW 8924   7.457   4.660   3.485 -0.1807  0.3497  0.2505
30311SOL    HW1 8925   7.397   4.598   3.525 -0.2464  0.3204  0.1060
30311SOL    HW2 8926   7.524   4.675   3.552  0.3813 -0.6403 -0.0821
30312SOL     OW 8927   2.495   9.443   6.606  0.4029  0.2661 -0.1724
30312SOL    HW1 8928   2.445   9.468   6.684  0.5762 -2.2260  0.8106
30312SOL    HW2 8929   2.442   9.477   6.533 -0.4199  1.5290  0.9519
30313SOL     OW 8930  12.009   2.840   9.081 -0.3523  0.6047  0.5803
30313SOL    HW1 8931  11.995   2.763   9.026 -0.8914  1.0912  0.0325
30313SOL    HW2 8932  12.020   2.804   9.170  0.4183 -0.1705  0.1864
30314SOL     OW 8933   5.214   0.585   8.657 -0.1996 -0.3528 -0.3239
30314SOL    HW1 8934   5.185   0.576   8.566 -0.2960  2.2034 -0.6130
30314SOL    HW2 8935   5.135   0.612   8.705  0.4740  1.3689 -0.1123
30315SOL     OW 8936   5.182   1.501  11.651  0.1443 -0.9193  0.4232
30315SOL    HW1 8937   5.104   1.556  11.652  0.3576 -0.5643 -1.2285
30315SOL    HW2 8938   5.149   1.413  11.632  0.0952 -0.8842  0.3493
30316SOL     OW 8939   8.676  13.249   9.839  0.2418  0.0136  0.0305
30316SOL    HW1 8940   8.658  13.184   9.907 -0.2271  0.6478  0.5210
30316SOL    HW2 8941   8.771  13.244   9.825  0.1601 -1.0900 -0.2659
30317SOL     OW 8942  11.534   0.216   1.676  0.3590 -0.5210 -0.3845
30317SOL    HW1 8943  11.486   0.204   1.758 -0.7566 -0.5271 -1.0184
30317SOL    HW2 8944  11.469   0.250   1.614  1.3107  0.0424 -1.1172
30318SOL     OW 8945   3.662   6.442   9.587  0.0100 -0.4564 -0.1375
30318SOL    HW1 8946   3.720   6.505   9.631 -1.5806  0.6856  0.4301
30318SOL    HW2 8947   3.673   6.361   9.637  2.3145 -0.7768 -1.0568
30319SOL     OW 8948  12.372   8.125   0.427  0.1312 -0.5996  0.0423
30319SOL    HW1 8949  12.432   8.183   0.476  0.0610  0.1999 -0.7905
30319SOL    HW2 8950  12.355   8.172   0.346 -0.1605 -1.6801 -0.5376
30320SOL     OW 8951   7.550   2.577   3.778  0.0394  0.0629 -0.0181
30320SOL    HW1 8952   7.554   2.537   3.865  1.0454 -0.8751 -0.4589
30320SOL    HW2 8953   7.590   2.512   3.721  0.1758  1.0289 -1.0522
30321SOL     OW 8954   9.045  10.428   0.317 -0.6075 -0.4234  0.5988
30321SOL    HW1 8955   9.122  10.436   0.259 -0.5111  0.1480  0.7957
30321SOL    HW2 8956   8.976  10.477   0.271 -1.7392 -3.2674 -0.9992
30322SOL     OW 8957   5.057   7.069  13.862 -0.1895 -0.1121  0.5353
30322SOL    HW1 8958   5.113   7.072  13.784  0.8108 -1.5817  1.1598
30322SOL    HW2 8959   5.057   7.159  13.895 -0.4360  0.4839 -1.0157
30323SOL     OW 8960   7.386   4.940   8.007 -0.2839 -0.2618 -0.3031
30323SOL    HW1 8961   7.400   4.935   8.102 -1.7910  4.2222  0.4071
30323SOL    HW2 8962   7.474   4.951   7.970  0.2940 -1.8018  0.5543
30324SOL     OW 8963   2.770  12.384   9.224 -0.0880 -0.0370 -0.0374
30324SOL    HW1 8964   2.718  12.393   9.305 -2.0590 -1.6467 -1.0175
30324SOL    HW2 8965   2.792  12.474   9.199 -3.6543  0.9205 -0.2548
30325SOL     OW 8966  12.069  11.849   0.805  0.0305  0.2311 -0.2423
30325SOL    HW1 8967  12.136  11.851   0.737  0.0589 -0.2483 -0.2286
30325SOL    HW2 8968  12.119  11.849   0.887 -0.0046  1.0114 -0.2057
30326SOL     OW 8969   7.931  12.049  14.066 -0.7716 -0.1787 -0.0159
30326SOL    HW1 8970   7.943  12.124  14.124  1.4636 -0.2488 -0.2742
30326SOL    HW2 8971   7.942  11.973  14.123  2.1812 -0.2533 -0.5132
30327SOL     OW 8972   9.940   2.628   4.467 -0.4568  0.0105 -0.0878
30327SOL    HW1 8973  10.028   2.641   4.431 -0.5330 -0.1914 -0.3496
30327SOL    HW2 8974   9.950   2.558   4.531 -0.3728  0.1823  0.0881
30328SOL     OW 8975   9.150   0.388   2.119 -0.4372  0.3359  0.2326
30328SOL    HW1 8976   9.126   0.332   2.193  0.1237  0.7556  0.7323
30328SOL    HW2 8977   9.121   0.475   2.144 -1.2425  0.2992 -0.5180
30329SOL     OW 8978   6.403  12.439   1.532  0.2853  0.2297 -0.3282
30329SOL    HW1 8979   6.452  12.408   1.608  0.5973  0.0404 -0.6025
30329SOL    HW2 8980   6.400  12.363   1.472 -0.5122  0.1769 -0.2340
30330SOL     OW 8981   6.776   3.657   7.802  0.2000 -0.0199 -0.0308
30330SOL    HW1 8982   6.859   3.640   7.846  0.0466 -1.2629 -0.1767
30330SOL    HW2 8983   6.776   3.596   7.727  0.3208  1.8039 -1.5960
30331SOL     OW 8984   4.525   8.105   2.285 -0.3033 -0.0174  0.4009
30331SOL    HW1 8985   4.470   8.052   2.342 -0.3562 -0.8742 -0.4111
30331SOL    HW2 8986   4.528   8.056   2.203  0.8200  0.5415  0.0897
30332SOL     OW 8987   6.856   4.717  13.129  0.1673  0.5188  0.2221
30332SOL    HW1 8988   6.838   4.744  13.039  1.1101 -1.1259 -0.5222
30332SOL    HW2 8989   6.813   4.782  13.183 -2.2838  0.3972 -1.4057
30333SOL     OW 8990  10.740   2.077  12.864 -0.3430 -0.1984 -0.0127
30333SOL    HW1 8991  10.803   2.093  12.793 -0.7369 -0.9191 -0.5462
30333SOL    HW2 8992  10.656   2.067  12.819 -0.4744 -1.4821  0.4573
30334SOL     OW 8993  10.821   8.010   2.099  0.1344 -0.4089  0.0612
30334SOL    HW1 8994  10.814   7.927   2.146  2.8299 -1.2223 -0.8186
30334SOL    HW2 8995  10.732   8.027   2.068 -0.5320 -2.8816  0.4301
30335SOL     OW 8996   4.544  11.867   5.694  0.0777 -0.5399 -0.3535
30335SOL    HW1 8997   4.498  11.819   5.763  1.4585 -0.3992  0.7076
30335SOL    HW2 8998   4.636  11.848   5.710  0.5036  0.6116 -1.3303
30336SOL     OW 8999  13.660   5.859  11.621  0.3363  0.7794 -0.0773
30336SOL    HW1 9000  13.706   5.877  11.702 -1.7768  0.0173  1.3875
30336SOL    HW2 9001  13.626   5.944  11.593  0.8083  0.9918 -0.0211
30337SOL     OW 9002   0.367   5.271  12.567 -0.7394  0.1378 -0.2699
30337SOL    HW1 9003   0.411   5.333  12.624 -0.4858 -1.1014  0.9535
30337SOL    HW2 9004   0.438   5.232  12.515 -0.0012 -2.7341  2.5393
30338SOL     OW 9005   8.114  11.082   1.401 -0.3297 -0.2983 -0.0229
30338SOL    HW1 9006   8.121  11.166   1.447 -0.7513 -0.5727  0.5550
30338SOL    HW2 9007   8.039  11.039   1.443  0.9122 -1.6855  0.8194
30339SOL     OW 9008  11.727   1.441  12.755  0.5963  0.4695  0.0443
30339SOL    HW1 9009  11.654   1.501  12.771  0.8506  1.0555 -0.9202
30339SOL    HW2 9010  11.693   1.377  12.693  0.5806  0.0978  0.4299
30340SOL     OW 9011   8.454   8.251  13.174  0.2525  0.4506  0.0288
30340SOL    HW1 9012   8.375   8.276  13.125 -0.9729 -1.0593  1.1516
30340SOL    HW2 9013   8.432   8.268  13.265  2.1852  2.3791  0.2173
30341SOL     OW 9014   5.504  11.553   5.970  0.1350 -0.6403  0.0075
30341SOL    HW1 9015   5.546  11.552   5.884 -2.7172  0.1463 -1.5260
30341SOL    HW2 9016   5.432  11.615   5.961 -1.9302 -2.5147  2.1206
30342SOL     OW 9017  12.011   9.776   2.190 -0.6910 -0.0315  0.0256
30342SOL    HW1 9018  12.003   9.853   2.134  1.6853  1.7535  1.9497
30342SOL    HW2 9019  12.089   9.792   2.243 -1.1451 -2.9455  1.8138
30343SOL     OW 9020   5.323   4.191  12.458  0.2823  0.0450  0.0646
30343SOL    HW1 9021   5.353   4.281  12.467 -0.6132  0.3148  0.4765
30343SOL    HW2 9022   5.319   4.176  12.364  0.7997  0.3052 -0.0021
30344SOL     OW 9023   6.013   0.273   0.097  0.0048  0.9243 -0.1187
30344SOL    HW1 9024   6.003   0.323   0.015 -0.1742 -0.5346 -1.0239
30344SOL    HW2 9025   5.927   0.234   0.111 -0.0448  1.3746  0.9496
30345SOL     OW 9026   3.176  10.300   7.184 -0.0121 -0.0274  0.0259
30345SOL    HW1 9027   3.197  10.214   7.220  2.0860  1.3574  2.4196
30345SOL    HW2 9028   3.086  10.291   7.151 -0.3102 -2.7549  1.3085
30346SOL     OW 9029   2.001   6.276   0.001 -0.1794 -0.5160  0.3142
30346SOL    HW1 9030   2.056   6.331  -0.054  0.1730 -1.1197  0.0501
30346SOL    HW2 9031   2.045   6.191   0.002  1.2868  0.1324  3.6879
30347SOL     OW 9032  13.501   3.495  11.492 -0.2201 -0.3146  0.5034
30347SOL    HW1 9033  13.570   3.459  11.436 -0.5546 -0.0269 -0.0999
30347SOL    HW2 9034  13.511   3.590  11.483 -0.1093 -0.2613  1.1408
30348SOL     OW 9035   7.333   5.574  13.040  0.0368 -0.4771 -0.5466
30348SOL    HW1 9036   7.411   5.628  13.025 -0.6724  0.5793 -0.4879
30348SOL    HW2 9037   7.338   5.506  12.973  0.8815 -0.2788 -0.6952
30349SOL     OW 9038   8.230   5.916  10.991  0.1607 -0.2652  0.4388
30349SOL    HW1 9039   8.202   5.984  11.051  2.2234 -1.5678  3.1107
30349SOL    HW2 9040   8.252   5.962  10.910  1.5192  2.3079  2.1450
30350SOL     OW 9041   0.461   1.226   8.302  0.5098  0.2379  0.4608
30350SOL    HW1 9042   0.504   1.270   8.375  0.3194  1.6605 -0.2445
30350SOL    HW2 9043   0.433   1.297   8.244  1.0606 -0.8695 -1.2348
30351SOL     OW 9044   1.694   6.731   3.551  0.5776 -0.1533  0.2926
30351SOL    HW1 9045   1.750   6.724   3.628 -0.1621 -0.8867  0.7880
30351SOL    HW2 9046   1.749   6.702   3.478  1.5220  1.2684  0.4012
30352SOL     OW 9047   9.370   7.696   6.143 -0.1471  0.3020 -0.0642
30352SOL    HW1 9048   9.330   7.619   6.104 -2.0641  1.5396 -0.6612
30352SOL    HW2 9049   9.306   7.728   6.207  0.7207  1.2545  0.3706
30353SOL     OW 9050   4.818   7.774   4.429  0.4129 -0.0619 -0.0778
30353SOL    HW1 9051   4.902   7.783   4.383  0.7062 -1.5573  0.0914
30353SOL    HW2 9052   4.838   7.798   4.519  0.2153  1.3185 -0.3792
30354SOL     OW 9053   5.766  10.247   4.654 -0.5736 -0.5846  0.0121
30354SOL    HW1 9054   5.727  10.333   4.670  0.0478 -0.6748  2.4954
30354SOL    HW2 9055   5.844  10.265   4.602 -0.8044  0.2738 -0.0498
30355SOL     OW 9056  11.796   6.525   1.722  0.1983 -0.9468 -0.0074
30355SOL    HW1 9057  11.842   6.487   1.797  1.0278  0.9032  0.4749
30355SOL    HW2 9058  11.710   6.484   1.724  1.0489 -2.8423  0.3968
30356SOL     OW 9059   2.349  14.126   6.144  0.1176 -0.1715 -0.2157
30356SOL    HW1 9060   2.312  14.160   6.062  0.7673  0.4844 -0.2461
30356SOL    HW2 9061   2.283  14.064   6.175  0.2948 -1.1923 -1.7284
30357SOL     OW 9062  10.052   3.854  12.051 -0.0615  0.4649  0.2491
30357SOL    HW1 9063   9.992   3.920  12.085 -0.0261 -0.0679  1.4299
30357SOL    HW2 9064  10.133   3.868  12.100 -0.0008 -0.3130  0.4018
30358SOL     OW 9065   3.151   4.133   2.892  0.0453  0.3940  0.2218
30358SOL    HW1 9066   3.094   4.195   2.846 -1.3306 -1.8863 -1.3158
30358SOL    HW2 9067   3.217   4.108   2.827  1.2380  0.9550  1.1611
30359SOL     OW 9068  11.892   7.280   4.295  0.2079 -0.2175 -0.6058
30359SOL    HW1 9069  11.963   7.343   4.306  1.7151 -1.8326 -0.5509
30359SOL    HW2 9070  11.880   7.273   4.201 -2.4038  2.6297 -0.6351
30360SOL     OW 9071   1.502   8.680  11.099  0.5634  0.0178 -0.4028
30360SOL    HW1 9072   1.407   8.678  11.114  0.4965  0.5289 -0.7086
30360SOL    HW2 9073   1.539   8.717  11.179  0.7068 -2.0008  0.5222
30361SOL     OW 9074   1.398   2.486   3.641  0.1102 -0.5145  0.0944
30361SOL    HW1 9075   1.475   2.475   3.585  0.1324 -1.4396  0.2880
30361SOL    HW2 9076   1.331   2.431   3.599 -0.6236  0.6965 -0.3743
30362SOL     OW 9077   9.583   7.396   9.276 -0.2583 -0.5501  0.4843
30362SOL    HW1 9078   9.633   7.415   9.354  0.7117  0.4645 -0.3481
30362SOL    HW2 9079   9.648   7.377   9.209 -0.8563  1.6679 -0.8501
30363SOL     OW 9080   3.676   1.447   1.048  0.3384  0.1337  0.7712
30363SOL    HW1 9081   3.753   1.489   1.008  0.4829 -0.6037  0.2477
30363SOL    HW2 9082   3.602   1.498   1.017  0.4896 -0.1526 -0.0796
30364SOL     OW 9083   5.857   5.420  10.358 -0.3556 -0.3514 -0.1121
30364SOL    HW1 9084   5.816   5.353  10.413 -0.3574 -0.6705 -0.4946
30364SOL    HW2 9085   5.817   5.502  10.387 -0.1377 -0.4723  0.5670
30365SOL     OW 9086   0.327  10.454  11.080  0.2404 -0.8676 -0.2417
30365SOL    HW1 9087   0.314  10.499  10.997  0.1736 -1.3826 -0.5139
30365SOL    HW2 9088   0.422  10.456  11.094  0.1191  0.9790  0.6730
30366SOL     OW 9089  13.715   9.183   7.714  0.0025 -0.4581 -0.6362
30366SOL    HW1 9090  13.743   9.104   7.762  0.3720 -0.2031 -0.4239
30366SOL    HW2 9091  13.629   9.203   7.749 -0.1284 -0.8123 -0.7475
30367SOL     OW 9092   8.878  14.084   8.051 -0.3896 -0.6662  0.0917
30367SOL    HW1 9093   8.792  14.056   8.083  0.7545 -1.6383  2.6070
30367SOL    HW2 9094   8.941  14.039   8.108  1.7564  1.7498 -0.1641
30368SOL     OW 9095  10.134   6.638  12.335  0.7361 -0.0371  0.4325
30368SOL    HW1 9096  10.128   6.685  12.418 -1.3853  1.1535 -0.3414
30368SOL    HW2 9097  10.094   6.553  12.352 -1.5417  0.9121  0.2246
30369SOL     OW 9098   5.435   8.991  11.055 -0.1400 -0.5683 -0.2459
30369SOL    HW1 9099   5.432   9.042  11.135  1.3338 -1.9812  0.7729
30369SOL    HW2 9100   5.371   8.920  11.069 -0.7677 -0.1305 -0.8432
30370SOL     OW 9101   0.152   6.045  10.761  0.4747  0.3849  0.3255
30370SOL    HW1 9102   0.158   6.025  10.854  0.5455 -0.6609  0.1097
30370SOL    HW2 9103   0.212   5.984  10.719 -0.3126  0.1479 -0.4902
30371SOL     OW 9104   7.357   8.455   0.495  0.5058 -0.4673 -0.5939
30371SOL    HW1 9105   7.398   8.376   0.531 -0.4708 -0.6806  0.1044
30371SOL    HW2 9106   7.427   8.519   0.490  1.9236 -2.0336 -3.4058
30372SOL     OW 9107   6.816   9.690   3.253  0.4371 -0.3554  0.3204
30372SOL    HW1 9108   6.785   9.684   3.344 -0.3189  2.0182  0.2821
30372SOL    HW2 9109   6.736   9.703   3.201  1.0358  0.4017 -0.4296
30373SOL     OW 9110   3.884   2.180   2.387  0.7413 -0.5856  0.8761
30373SOL    HW1 9111   3.910   2.107   2.442  2.7535  0.3930  1.3508
30373SOL    HW2 9112   3.961   2.237   2.385  0.4528 -0.0981 -2.1828
30374SOL     OW 9113   7.642   4.788  13.998 -0.4115  0.3404 -0.3428
30374SOL    HW1 9114   7.665   4.716  13.939  1.2377  1.5052 -1.2092
30374SOL    HW2 9115   7.707   4.782  14.068  0.4455  1.6054 -0.9944
30375SOL     OW 9116   8.252  12.624   8.753  0.2437  0.1395 -0.2981
30375SOL    HW1 9117   8.309  12.571   8.809 -0.3347 -0.6992 -0.4915
30375SOL    HW2 9118   8.224  12.565   8.683 -0.6370  0.6195 -0.3713
30376SOL     OW 9119   5.280  11.638  10.447 -0.4702  0.3565  0.4632
30376SOL    HW1 9120   5.231  11.625  10.528  0.8341  0.5540  1.3120
30376SOL    HW2 9121   5.360  11.586  10.458 -0.6673 -0.3561 -1.0846
30377SOL     OW 9122   1.458   3.010   2.513 -0.1158 -0.0233 -0.0693
30377SOL    HW1 9123   1.486   3.087   2.562 -3.5238  1.5426 -0.3463
30377SOL    HW2 9124   1.510   3.012   2.433  1.2568  0.7934  0.8035
30378SOL     OW 9125   6.168   1.421   3.926  0.2183  0.5769 -0.6141
30378SOL    HW1 9126   6.250   1.463   3.900 -0.5443  1.7940 -1.1772
30378SOL    HW2 9127   6.131   1.388   3.844 -1.5904  3.3025 -1.0270
30379SOL     OW 9128   1.498   6.826   1.150 -0.6372  0.7056  0.0607
30379SOL    HW1 9129   1.449   6.744   1.151  2.1188 -1.0672  1.6743
30379SOL    HW2 9130   1.542   6.827   1.065 -0.0520  0.0679  0.3461
30380SOL     OW 9131  11.458   7.268  10.700 -0.0032  0.6276  0.0209
30380SOL    HW1 9132  11.383   7.255  10.641 -0.3073  0.0285  0.5314
30380SOL    HW2 9133  11.534   7.244  10.646 -0.2536  0.3601 -0.2225
30381SOL     OW 9134   8.377   7.814   9.256  0.4539 -0.1406 -0.1554
30381SOL    HW1 9135   8.374   7.873   9.181  1.9324 -1.2456 -1.1331
30381SOL    HW2 9136   8.403   7.730   9.220 -0.6676 -1.1863  1.3450
30382SOL     OW 9137  11.195   0.300   9.993 -0.1974  0.2549 -0.4782
30382SOL    HW1 9138  11.155   0.297   9.906 -0.5021  0.7105 -0.3520
30382SOL    HW2 9139  11.137   0.246  10.048  0.6472 -1.0594 -0.8109
30383SOL     OW 9140   4.154   6.407  11.298  0.0494 -0.4795  0.1237
30383SOL    HW1 9141   4.174   6.447  11.213 -1.4585  2.0984  0.8725
30383SOL    HW2 9142   4.222   6.440  11.357 -1.4238  1.4965  0.8353
30384SOL     OW 9143  11.683   2.492   2.321 -0.3807  0.3100  0.2009
30384SOL    HW1 9144  11.679   2.482   2.416  0.7587  3.0647  0.6227
30384SOL    HW2 9145  11.598   2.530   2.298  0.8452  3.7683  0.8454
30385SOL     OW 9146   1.850  12.359   1.774  0.2509 -0.7799 -0.1294
30385SOL    HW1 9147   1.886  12.384   1.689  1.3868 -1.9588 -0.0214
30385SOL    HW2 9148   1.814  12.440   1.810 -0.2829 -0.2694 -1.7331
30386SOL     OW 9149   1.575   0.040   5.936 -0.0085 -0.4548  0.1585
30386SOL    HW1 9150   1.651  -0.015   5.955 -0.2191 -0.5366  0.8027
30386SOL    HW2 9151   1.525  -0.010   5.871  0.2306 -0.6349  0.1096
30387SOL     OW 9152  14.016  10.737   2.754 -0.2255  0.0109  0.4343
30387SOL    HW1 9153  14.070  10.659   2.744 -0.6610 -1.0492  4.4217
30387SOL    HW2 9154  14.078  10.810   2.755  0.7190 -0.7694  0.9218
30388SOL     OW 9155   8.670  12.143   4.964  0.4114  0.1881  0.7742
30388SOL    HW1 9156   8.757  12.107   4.943  0.2676  0.3346 -0.1449
30388SOL    HW2 9157   8.609  12.073   4.938  0.0343  1.5106 -2.3874
30389SOL     OW 9158   9.464   6.586   7.977  0.7748 -0.0176 -0.0085
30389SOL    HW1 9159   9.405   6.570   7.903 -0.1271  1.3025  0.3917
30389SOL    HW2 9160   9.550   6.600   7.936  0.3782  0.2489 -0.7815
30390SOL     OW 9161  11.462   6.634   6.859 -0.7600  0.3524 -0.0055
30390SOL    HW1 9162  11.489   6.700   6.923 -2.0027  0.3686  0.5230
30390SOL    HW2 9163  11.516   6.558   6.879 -0.2583  0.7617  0.2460
30391SOL     OW 9164  10.796  14.063   3.952 -0.2584  0.5078 -0.4165
30391SOL    HW1 9165  10.786  14.122   4.028 -2.3963  1.0042 -1.0056
30391SOL    HW2 9166  10.842  14.116   3.887  0.3310  0.5503  0.0211
30392SOL     OW 9167   9.104   1.662   0.633 -0.5484 -0.5050  0.1587
30392SOL    HW1 9168   9.173   1.601   0.606 -2.0860 -1.9185 -0.8252
30392SOL    HW2 9169   9.146   1.748   0.635  0.6521 -0.9118 -2.9472
30393SOL     OW 9170   0.380  12.277   3.180  0.3097  0.2318  0.3872
30393SOL    HW1 9171   0.398  12.295   3.087 -0.5106 -1.9490 -0.2834
30393SOL    HW2 9172   0.461  12.237   3.212  0.7210  1.3159  0.7446
30394SOL     OW 9173   3.297   4.666  10.438 -0.3775  0.5763  0.4318
30394SOL    HW1 9174   3.223   4.684  10.496 -1.9723 -2.8430 -0.3015
30394SOL    HW2 9175   3.368   4.640  10.497 -1.6456 -1.7904  1.0579
30395SOL     OW 9176   2.744  12.320  11.566  0.1058  0.2799  0.1377
30395SOL    HW1 9177   2.787  12.404  11.578  2.3321 -0.8405  0.4691
30395SOL    HW2 9178   2.679  12.316  11.636 -1.4860  2.5200 -1.0978
30396SOL     OW 9179  11.430  12.666   4.743 -0.1124  0.1875 -0.5035
30396SOL    HW1 9180  11.502  12.721   4.712  1.1491 -0.1826  1.5740
30396SOL    HW2 9181  11.352  12.704   4.703  1.2059  0.4466 -3.0387
30397SOL     OW 9182  12.544  13.752   4.795 -0.3833  0.2045  0.1700
30397SOL    HW1 9183  12.626  13.712   4.825 -0.2480  0.0538 -0.3813
30397SOL    HW2 9184  12.566  13.845   4.785 -0.1227  0.0763 -0.4890
30398SOL     OW 9185   3.288   1.973   8.971  0.4756  0.3580 -0.4462
30398SOL    HW1 9186   3.341   2.039   8.926  0.4342 -1.2314 -3.0065
30398SOL    HW2 9187   3.222   1.947   8.907 -0.6131 -0.9121  1.1160
30399SOL     OW 9188   5.503   8.336   8.148 -0.5024  0.3281 -0.1130
30399SOL    HW1 9189   5.555   8.255   8.144 -1.8361 -0.4993 -3.3167
30399SOL    HW2 9190   5.418   8.307   8.179 -0.5879  0.7753  0.0737
30400SOL     OW 9191  10.875   2.465   4.969  0.2528  0.1014  0.0047
30400SOL    HW1 9192  10.786   2.487   4.995 -0.5800 -1.2245 -1.5118
30400SOL    HW2 9193  10.875   2.473   4.873  1.2073 -1.6661 -0.2039
30401SOL     OW 9194   5.798   0.974  11.990  0.4120  0.4401  0.5716
30401SOL    HW1 9195   5.835   0.920  11.920  0.5011  0.1226  0.8618
30401SOL    HW2 9196   5.766   1.052  11.945  0.8203  0.4143  0.2273
30402SOL     OW 9197   2.225   9.708  11.741  0.6773 -0.1687  0.6728
30402SOL    HW1 9198   2.165   9.730  11.670 -0.0678 -0.1414  1.3038
30402SOL    HW2 9199   2.202   9.618  11.764  1.6149 -0.5484  0.1993
30403SOL     OW 9200   0.358   0.945  11.607 -0.5434  0.6691  0.3126
30403SOL    HW1 9201   0.296   0.875  11.628 -2.0038  0.8969 -2.6284
30403SOL    HW2 9202   0.351   0.954  11.512  1.5546  3.0476  0.2920
30404SOL     OW 9203   4.461  11.951   6.979 -0.0264 -0.5633 -0.1768
30404SOL    HW1 9204   4.368  11.964   6.997 -0.1098 -1.2405 -0.0899
30404SOL    HW2 9205   4.497  12.040   6.974 -0.1700 -0.2797  2.4310
30405SOL     OW 9206   1.596   8.860  11.334 -0.1288  0.0823  0.3925
30405SOL    HW1 9207   1.626   8.800  11.402  0.4430 -0.4483 -0.3047
30405SOL    HW2 9208   1.503   8.870  11.350 -0.0229 -0.1420  1.1694
30406SOL     OW 9209   2.035  10.531   9.624 -0.0499  0.2273  0.1051
30406SOL    HW1 9210   2.063  10.492   9.707 -0.5939 -2.2532 -0.7928
30406SOL    HW2 9211   2.111  10.522   9.567 -0.4976 -0.4282 -0.3966
30407SOL     OW 9212  13.424   0.927  10.233 -0.4579 -0.2474  0.2152
30407SOL    HW1 9213  13.424   0.855  10.296 -1.5411  0.2531  0.8173
30407SOL    HW2 9214  13.444   0.886  10.150 -2.5568 -1.5486  0.2611
30408SOL     OW 9215  10.639  13.741   7.161  0.4159  0.0432 -0.3617
30408SOL    HW1 9216  10.666  13.692   7.084  0.9127  0.3134 -0.3622
30408SOL    HW2 9217  10.570  13.687   7.200  0.4601 -0.3058 -0.7535
30409SOL     OW 9218  12.211   9.087   7.860  0.2488 -0.1784  0.3065
30409SOL    HW1 9219  12.130   9.134   7.841 -0.0559 -1.0889 -0.7293
30409SOL    HW2 9220  12.188   9.028   7.932  0.2461  0.2090  0.6272
30410SOL     OW 9221   9.302   9.837   5.612 -0.4120 -0.4981 -0.0139
30410SOL    HW1 9222   9.311   9.758   5.666  1.4844  0.8787  1.8739
30410SOL    HW2 9223   9.208   9.853   5.610 -0.6382 -1.0919  2.2882
30411SOL     OW 9224  10.505   2.300  13.196  0.2070 -0.5030  0.6253
30411SOL    HW1 9225  10.587   2.250  13.193 -0.1506 -1.1470  1.2424
30411SOL    HW2 9226  10.456   2.270  13.119 -0.0547 -1.2028  1.0557
30412SOL     OW 9227   3.993   0.347   1.594  0.2274 -0.5259 -0.5509
30412SOL    HW1 9228   3.947   0.279   1.545 -0.4281 -0.2811 -0.2900
30412SOL    HW2 9229   3.934   0.422   1.591 -0.3623 -0.8614  1.5849
30413SOL     OW 9230   9.775   4.061  11.874 -0.2809  0.3698  0.0367
30413SOL    HW1 9231   9.683   4.089  11.876 -0.8872 -1.4626  0.4776
30413SOL    HW2 9232   9.815   4.115  11.806 -2.3241 -0.4835 -1.9883
30414SOL     OW 9233   7.848   6.902   1.894  0.4666 -0.7548 -0.2125
30414SOL    HW1 9234   7.867   6.812   1.867 -0.1103 -1.1084  0.5079
30414SOL    HW2 9235   7.766   6.923   1.849 -0.8427 -1.5738  1.6440
30415SOL     OW 9236   8.998   2.642   0.487 -0.6181 -0.0000 -0.0467
30415SOL    HW1 9237   9.087   2.637   0.524 -0.3239  1.0480 -0.5679
30415SOL    HW2 9238   8.946   2.584   0.541  0.4654 -0.9073  0.0557
30416SOL     OW 9239  11.421  13.049   7.561 -0.0728  0.2168  0.4999
30416SOL    HW1 9240  11.500  13.016   7.516 -1.1110 -0.9717 -0.5388
30416SOL    HW2 9241  11.349  13.027   7.502 -1.3995 -0.4077  2.2662
30417SOL     OW 9242   0.033   1.261  11.131  0.3012  0.7415 -0.4577
30417SOL    HW1 9243  -0.039   1.203  11.158  0.3472  1.1014  0.4892
30417SOL    HW2 9244   0.011   1.286  11.041 -0.2520  0.0735 -0.5186
30418SOL     OW 9245  10.699   8.610  10.780  0.0962  0.3163 -0.3652
30418SOL    HW1 9246  10.769   8.671  10.805 -0.0460  0.1399  0.4798
30418SOL    HW2 9247  10.659   8.651  10.703 -1.8554  2.8349  1.7512
30419SOL     OW 9248  12.779  10.395  11.250 -0.1507  0.0513 -0.1411
30419SOL    HW1 9249  12.845  10.326  11.256  0.7893  0.8894 -0.4560
30419SOL    HW2 9250  12.810  10.462  11.311 -2.1000 -0.6154  1.6811
30420SOL     OW 9251   0.974   8.302  10.626 -0.4557 -0.2639 -0.3961
30420SOL    HW1 9252   1.067   8.290  10.609  0.1195 -1.5664  2.8826
30420SOL    HW2 9253   0.937   8.214  10.620 -0.9372 -0.1652  0.7942
30421SOL     OW 9254   2.131  12.392   7.083  0.2314  0.1864  0.1334
30421SOL    HW1 9255   2.072  12.324   7.114 -0.3099 -0.1175 -1.4667
30421SOL    HW2 9256   2.120  12.392   6.988  2.1577  0.7332 -0.1343
30422SOL     OW 9257   4.576   1.754   7.722  0.1123  0.1291 -0.3007
30422SOL    HW1 9258   4.553   1.847   7.720  0.3703  0.3655  2.6775
30422SOL    HW2 9259   4.503   1.710   7.678 -1.7458  1.5279  1.1915
30423SOL     OW 9260   1.831   1.337   9.735  0.3849 -0.2121 -0.5044
30423SOL    HW1 9261   1.908   1.281   9.730 -0.0160 -0.7280 -1.0801
30423SOL    HW2 9262   1.782   1.317   9.656  1.0143  2.1129 -1.5808
30424SOL     OW 9263  14.019  13.720  11.715  0.4438 -0.3230  0.2901
30424SOL    HW1 9264  13.949  13.659  11.738 -1.7720  0.6900 -3.0283
30424SOL    HW2 9265  14.095  13.665  11.698 -0.3562 -1.7346  1.0914
30425SOL     OW 9266   4.772  10.850   4.762 -0.3276 -0.2598  0.1233
30425SOL    HW1 9267   4.690  10.899   4.766  1.3762  2.7499  1.9132
30425SOL    HW2 9268   4.810  10.858   4.850  1.5723 -2.1211 -0.4421
30426SOL     OW 9269  11.234   9.414   6.092  0.1909  0.6227  0.3113
30426SOL    HW1 9270  11.175   9.360   6.145 -0.0084 -0.5026 -0.9793
30426SOL    HW2 9271  11.251   9.491   6.145 -1.6749  0.5230  1.1359
30427SOL     OW 9272   4.807  10.443  13.199 -0.2123 -0.8340 -0.0099
30427SOL    HW1 9273   4.900  10.437  13.217 -0.5375 -1.1975  1.6894
30427SOL    HW2 9274   4.785  10.360  13.158 -0.1905 -1.7316  1.7095
30428SOL     OW 9275   0.348   8.333   1.657 -0.2621 -0.0110 -0.1861
30428SOL    HW1 9276   0.334   8.360   1.747 -1.5789 -0.9648 -0.0707
30428SOL    HW2 9277   0.369   8.240   1.662  0.2356  0.0568 -0.8255
30429SOL     OW 9278   2.087   3.786   2.761 -0.6420 -0.0745  0.5570
30429SOL    HW1 9279   2.027   3.785   2.835 -0.5345  1.5198  0.6999
30429SOL    HW2 9280   2.089   3.878   2.733  1.5521 -0.1020  0.4213
30430SOL     OW 9281   0.431   0.224   9.968 -0.2019  0.4817 -0.4044
30430SOL    HW1 9282   0.522   0.212   9.941 -0.5603 -1.3791 -0.8870
30430SOL    HW2 9283   0.418   0.319   9.963  1.6510  0.7756 -0.4747
30431SOL     OW 9284   6.117  10.368   6.859  0.2282  0.1265  0.2290
30431SOL    HW1 9285   6.175  10.420   6.804  0.0204 -0.3398 -0.4495
30431SOL    HW2 9286   6.035  10.365   6.811  0.8830 -2.7396 -0.9830
30432SOL     OW 9287  12.263   1.793   4.829  0.2838  0.5824 -0.1338
30432SOL    HW1 9288  12.255   1.717   4.886 -1.0755  2.3115  2.1525
30432SOL    HW2 9289  12.229   1.762   4.744  0.6331 -1.5723  0.4517
30433SOL     OW 9290   7.607   5.795   5.390  0.6203 -0.0518 -0.0989
30433SOL    HW1 9291   7.531   5.787   5.448  0.8986 -0.7813  0.1723
30433SOL    HW2 9292   7.629   5.705   5.366  1.1042  0.1854 -0.5596
30434SOL     OW 9293  11.606  13.781   0.913  0.3771  0.1463  0.2849
30434SOL    HW1 9294  11.619  13.876   0.903 -0.2358  0.3371  1.1110
30434SOL    HW2 9295  11.672  13.741   0.857 -0.3489  1.0688 -1.2849
30435SOL     OW 9296   6.486   7.515   5.201  0.5009  0.0147  0.6766
30435SOL    HW1 9297   6.462   7.470   5.120  0.9261 -0.4723  0.8155
30435SOL    HW2 9298   6.577   7.543   5.187  1.3951 -2.0703  1.8198
30436SOL     OW 9299  10.430  11.178   0.794  0.4085  0.1612 -0.7260
30436SOL    HW1 9300  10.358  11.241   0.785  0.3081 -0.0090 -1.1560
30436SOL    HW2 9301  10.493  11.222   0.850  1.8457  2.0165 -3.5592
30437SOL     OW 9302   1.864   9.186   2.727  0.1226  0.2097 -0.1652
30437SOL    HW1 9303   1.868   9.124   2.654 -1.0490 -0.1044  0.0195
30437SOL    HW2 9304   1.923   9.150   2.793 -0.3912 -0.6138 -0.1419
30438SOL     OW 9305   3.650   8.702   1.033 -0.0650  0.3961 -0.6353
30438SOL    HW1 9306   3.571   8.649   1.042 -0.1658  0.2041 -2.2849
30438SOL    HW2 9307   3.619   8.792   1.028 -0.0946  0.4088 -0.1953
30439SOL     OW 9308   6.827   5.691  11.665  0.0485 -0.3821 -0.1950
30439SOL    HW1 9309   6.772   5.762  11.699  0.1032  0.1140 -1.0963
30439SOL    HW2 9310   6.770   5.645  11.602  0.3125 -0.5523 -0.3108
30440SOL     OW 9311   1.636   0.350  12.988 -0.0493  0.1942 -0.5691
30440SOL    HW1 9312   1.546   0.378  12.971 -0.8061 -1.4953  0.3928
30440SOL    HW2 9313   1.681   0.429  13.018 -0.9193  1.2903 -2.0537
30441SOL     OW 9314   9.608   7.496   8.290  0.7265 -0.4378  0.3311
30441SOL    HW1 9315   9.648   7.549   8.359 -1.2643 -0.0047  1.2378
30441SOL    HW2 9316   9.588   7.559   8.221  1.9006 -0.7175 -0.2824
30442SOL     OW 9317   5.794   1.755  12.243 -0.0974  0.2955 -0.5930
30442SOL    HW1 9318   5.813   1.782  12.333 -0.7804  1.6591 -0.8355
30442SOL    HW2 9319   5.699   1.762  12.235 -0.1986 -1.2225 -1.0104
30443SOL     OW 9320  12.557   6.166   9.472  0.0827  0.1493 -0.2269
30443SOL    HW1 9321  12.484   6.120   9.514 -1.2443 -0.6349 -3.1193
30443SOL    HW2 9322  12.635   6.114   9.496 -0.3394  0.4830  2.1659
30444SOL     OW 9323  11.011  10.221   4.956  0.2289 -0.3257  0.0034
30444SOL    HW1 9324  11.053  10.218   5.042  0.7561 -1.4564 -0.2734
30444SOL    HW2 9325  10.949  10.148   4.957 -0.2140  0.0403 -0.3509
30445SOL     OW 9326   7.464  11.200   8.532 -0.3702  0.5007 -0.2253
30445SOL    HW1 9327   7.506  11.125   8.574 -0.5059  0.5920  0.0748
30445SOL    HW2 9328   7.502  11.276   8.576  0.2348  0.6297 -0.9601
30446SOL     OW 9329   1.443  13.678   6.874  0.2369  0.0691 -0.0374
30446SOL    HW1 9330   1.530  13.687   6.914  0.3246 -1.2814  0.1030
30446SOL    HW2 9331   1.432  13.758   6.823  0.9397  0.9470  1.1238
30447SOL     OW 9332  10.816   7.394   1.828  0.0294 -0.0727  0.4193
30447SOL    HW1 9333  10.871   7.460   1.870  0.1515  0.2610 -0.2450
30447SOL    HW2 9334  10.816   7.418   1.736  0.3625 -1.2088  0.1070
30448SOL     OW 9335   9.476   1.925   4.204  0.0639 -0.0246 -0.6647
30448SOL    HW1 9336   9.427   1.915   4.122 -1.3205 -0.1995  0.1361
30448SOL    HW2 9337   9.543   1.856   4.200 -1.9884 -2.1876 -0.3077
30449SOL     OW 9338  12.670   6.822   2.011  0.7056  0.6429 -0.0779
30449SOL    HW1 9339  12.612   6.774   2.071  1.8306 -0.6925 -0.0126
30449SOL    HW2 9340  12.681   6.763   1.937 -0.6248  2.2485 -1.6553
30450SOL     OW 9341   6.733   5.438   2.114  0.2920 -0.3597  0.1915
30450SOL    HW1 9342   6.824   5.412   2.100 -0.3847 -2.6750 -0.3583
30450SOL    HW2 9343   6.699   5.455   2.026  0.5476  2.0192  0.4938
30451SOL     OW 9344   2.686   7.870  13.193 -0.0379  0.5632 -0.2383
30451SOL    HW1 9345   2.755   7.919  13.238 -2.2809  0.8238  3.2332
30451SOL    HW2 9346   2.666   7.797  13.252 -0.9106 -1.1037 -2.4679
30452SOL     OW 9347   8.591   8.615   4.579 -0.0054  0.1854 -0.3003
30452SOL    HW1 9348   8.555   8.695   4.616 -0.1304 -0.1819  0.4045
30452SOL    HW2 9349   8.546   8.604   4.495  1.0756  1.6266 -1.1114
30453SOL     OW 9350  12.531   3.951   1.165  0.1903 -0.0843  0.4628
30453SOL    HW1 9351  12.583   3.998   1.100 -1.0139  0.7923  0.1059
30453SOL    HW2 9352  12.548   3.858   1.148  2.7226  0.1534  1.2698
30454SOL     OW 9353  12.726   1.534   3.600 -0.7179  0.2628 -0.1390
30454SOL    HW1 9354  12.648   1.513   3.550 -1.3429 -0.6640  1.1442
30454SOL    HW2 9355  12.712   1.491   3.685  0.5974  1.1710  0.5812
30455SOL     OW 9356   3.863   2.368  13.539  0.0266 -0.3776 -0.0928
30455SOL    HW1 9357   3.878   2.352  13.445 -2.6097  0.6338 -0.7747
30455SOL    HW2 9358   3.889   2.286  13.581  1.3994 -0.8120 -1.6695
30456SOL     OW 9359   8.795   9.880   5.808  0.1100  0.0946 -0.3173
30456SOL    HW1 9360   8.727   9.872   5.741  1.7718  0.6143 -2.1929
30456SOL    HW2 9361   8.799   9.794   5.849 -0.2770 -0.5741 -1.6178
30457SOL     OW 9362  13.225  13.433   7.411  0.3127  0.0796 -0.0187
30457SOL    HW1 9363  13.312  13.470   7.396 -0.0481  0.8795 -0.1821
30457SOL    HW2 9364  13.164  13.503   7.386 -0.4077 -0.8495 -0.9559
30458SOL     OW 9365   9.564   8.667  14.071 -0.2858 -0.2869  0.4736
30458SOL    HW1 9366   9.556   8.681  14.166  0.4679 -1.1920  0.6921
30458SOL    HW2 9367   9.480   8.630  14.045 -1.4370  2.2654  0.2997
30459SOL     OW 9368   7.894  10.265   8.028  0.4486 -0.4914 -0.2226
30459SOL    HW1 9369   7.921  10.272   8.120 -0.4938 -0.4181  0.0641
30459SOL    HW2 9370   7.801  10.241   8.033  0.1703  0.3411 -1.1440
30460SOL     OW 9371   8.798   1.860   0.729  0.1855  0.0187  0.0446
30460SOL    HW1 9372   8.848   1.789   0.769 -2.7314 -0.9411  2.3018
30460SOL    HW2 9373   8.758   1.820   0.651  0.2324 -0.1910  0.1285
30461SOL     OW 9374  12.052   0.377   8.571  0.2130 -0.2889  0.2134
30461SOL    HW1 9375  12.084   0.292   8.601 -0.9238 -1.1955 -1.0097
30461SOL    HW2 9376  12.128   0.417   8.528  0.6301 -0.8961  0.3632
30462SOL     OW 9377   7.890   9.782   4.031 -0.2327  0.3373  0.5966
30462SOL    HW1 9378   7.907   9.712   4.094  2.2472  0.2465 -0.0728
30462SOL    HW2 9379   7.821   9.747   3.975  1.2519 -1.8183 -0.0048
30463SOL     OW 9380  13.179   1.108   2.395 -0.2483 -0.4840  0.0446
30463SOL    HW1 9381  13.161   1.187   2.344  0.3801 -1.5869 -1.9932
30463SOL    HW2 9382  13.178   1.037   2.330  3.9660 -1.5693  0.8738
30464SOL     OW 9383   9.056  11.956  12.101 -0.5238  0.5180 -0.1422
30464SOL    HW1 9384   8.973  11.910  12.097  0.6767 -1.7184 -1.1363
30464SOL    HW2 9385   9.101  11.919  12.176  0.4027  0.1520 -0.8575
30465SOL     OW 9386   4.692   8.089   1.844  0.0924 -0.4653  0.5711
30465SOL    HW1 9387   4.770   8.140   1.867  0.9211 -0.3912 -2.0555
30465SOL    HW2 9388   4.619   8.150   1.851  0.7532  0.4404 -0.2670
30466SOL     OW 9389   8.006   3.712   3.719  0.1453  0.3381  0.0068
30466SOL    HW1 9390   8.018   3.670   3.804 -0.2992  0.0245 -0.0844
30466SOL    HW2 9391   8.052   3.655   3.658 -1.4551 -0.6912 -0.2966
30467SOL     OW 9392   9.422   0.361  13.332  0.3145 -0.6995 -0.3528
30467SOL    HW1 9393   9.477   0.399  13.264 -2.0110  1.1206 -1.3520
30467SOL    HW2 9394   9.377   0.436  13.371  0.4522 -1.8409  2.2430
30468SOL     OW 9395   4.807  12.241   9.884 -0.2047 -0.1793  0.1129
30468SOL    HW1 9396   4.854  12.232   9.801 -0.2137  0.1477  0.0720
30468SOL    HW2 9397   4.789  12.151   9.911  0.4425 -0.3141  0.1260
30469SOL     OW 9398  13.164   6.263  13.370  0.3257  0.2768  0.0226
30469SOL    HW1 9399  13.116   6.199  13.318 -0.5080  2.1341 -1.6325
30469SOL    HW2 9400  13.248   6.221  13.390 -0.7715 -1.8730  0.3691
30470SOL     OW 9401  11.687   1.609   7.184  0.4865 -0.0780 -0.8892
30470SOL    HW1 9402  11.634   1.568   7.253  1.3301  0.6493  0.2325
30470SOL    HW2 9403  11.709   1.537   7.126 -0.2236 -0.7276 -0.3878
30471SOL     OW 9404   4.375   4.561   8.747  0.1858  1.0030 -0.2415
30471SOL    HW1 9405   4.320   4.483   8.753  1.5483 -0.0962 -1.3425
30471SOL    HW2 9406   4.335   4.624   8.807 -1.0970 -0.4550  0.4800
30472SOL     OW 9407   4.528   3.565   1.757 -1.0884  0.1697 -0.1487
30472SOL    HW1 9408   4.450   3.619   1.749 -0.2615  1.6263  0.9946
30472SOL    HW2 9409   4.581   3.588   1.680 -1.9019 -1.0782 -1.1095
30473SOL     OW 9410   0.332   5.869   1.336  0.0726  0.5376  0.1520
30473SOL    HW1 9411   0.281   5.921   1.274  0.8348  1.0907 -0.0204
30473SOL    HW2 9412   0.357   5.791   1.287 -0.5906  0.2596  0.2371
30474SOL     OW 9413  11.254   9.058  12.165 -0.3273  0.0688 -0.4733
30474SOL    HW1 9414  11.260   8.969  12.129  0.9762  0.3037 -0.8759
30474SOL    HW2 9415  11.344   9.086  12.175 -0.6783  0.6487  1.4814
30475SOL     OW 9416  12.194   8.285   6.981  0.3938 -0.3239 -0.6472
30475SOL    HW1 9417  12.172   8.201   7.021 -0.9685  0.1687 -0.3097
30475SOL    HW2 9418  12.288   8.280   6.965  0.4174 -1.7241 -0.2051
30476SOL     OW 9419  12.441  12.721  12.905 -0.7738  0.4510 -0.1298
30476SOL    HW1 9420  12.356  12.685  12.880 -1.3980  1.6143  0.1933
30476SOL    HW2 9421  12.503  12.681  12.846 -1.4803 -0.7944 -0.0602
30477SOL     OW 9422  12.175  13.929   0.207  0.9373 -0.2045 -0.1094
30477SOL    HW1 9423  12.251  13.939   0.264  0.1712  1.5024  0.7044
30477SOL    HW2 9424  12.131  14.014   0.211 -1.2998 -1.2862 -0.1465
30478SOL     OW 9425   2.919  13.448   2.688 -0.0307  0.1520 -0.1612
30478SOL    HW1 9426   2.892  13.388   2.618 -0.3952  0.1606 -0.0285
30478SOL    HW2 9427   2.898  13.402   2.769 -0.3663  0.4840 -0.0585
30479SOL     OW 9428   3.952  13.940  13.461 -0.2956 -0.3642 -0.3060
30479SOL    HW1 9429   4.010  13.915  13.389  0.2674 -0.7474  0.2743
30479SOL    HW2 9430   3.882  13.990  13.418 -0.0829 -0.7594 -1.1436
30480SOL     OW 9431  11.558   0.527   7.888 -0.0193 -0.6194  0.3854
30480SOL    HW1 9432  11.540   0.463   7.957  0.3204 -3.7812 -2.2389
30480SOL    HW2 9433  11.512   0.494   7.811  1.1439  1.7174 -1.4615
30481SOL     OW 9434   5.129  10.831   7.859  0.0417 -0.3246  0.3940
30481SOL    HW1 9435   5.096  10.861   7.944 -1.1254 -0.5163  0.0294
30481SOL    HW2 9436   5.183  10.903   7.828  0.1831 -0.0982  1.1344
30482SOL     OW 9437   2.820   5.744  11.322  0.2993 -0.0855  0.2586
30482SOL    HW1 9438   2.875   5.822  11.325  0.2448 -0.0726  1.6147
30482SOL    HW2 9439   2.882   5.671  11.325  0.4539 -0.1844 -2.6623
30483SOL     OW 9440   2.189  12.747  11.740 -0.0639  0.0196 -0.0960
30483SOL    HW1 9441   2.238  12.706  11.811  0.4374  0.2118 -0.3253
30483SOL    HW2 9442   2.158  12.830  11.778  1.2839  0.7237 -0.4735
30484SOL     OW 9443   4.005   1.940  12.429 -0.4036  0.7348  0.1189
30484SOL    HW1 9444   4.031   1.916  12.518  2.5861 -0.4356 -0.9501
30484SOL    HW2 9445   4.005   1.858  12.381  1.2999  1.6845 -1.6606
30485SOL     OW 9446  11.842  10.868   5.971 -0.1618  0.1691 -0.5722
30485SOL    HW1 9447  11.871  10.918   5.895  2.4715 -1.0286 -0.4709
30485SOL    HW2 9448  11.878  10.780   5.958 -3.7833 -1.5726 -0.2789
30486SOL     OW 9449   4.968   2.229  13.445 -0.1225 -0.2860  0.1656
30486SOL    HW1 9450   4.902   2.209  13.378  1.3385 -2.9415 -0.6245
30486SOL    HW2 9451   5.047   2.251  13.395  0.9258 -2.0711  0.9382
30487SOL     OW 9452   7.989   3.417  10.161  0.2064  0.2432  0.7116
30487SOL    HW1 9453   7.905   3.397  10.202  0.2991 -0.9204  0.3666
30487SOL    HW2 9454   7.978   3.388  10.070  0.6527  1.0048  0.4072
30488SOL     OW 9455   8.308   4.928   6.301  0.9814  0.0997 -0.5353
30488SOL    HW1 9456   8.393   4.899   6.336  0.9328 -0.5491 -0.9465
30488SOL    HW2 9457   8.256   4.946   6.379  1.6377  0.9561 -0.2702
30489SOL     OW 9458   4.881   7.323   5.628  0.1167  0.0631 -0.4786
30489SOL    HW1 9459   4.867   7.359   5.540 -0.0930 -0.2284 -0.5627
30489SOL    HW2 9460   4.879   7.228   5.616  1.4061  0.0030 -0.3805
30490SOL     OW 9461  13.454   2.459   1.443 -0.1811 -0.1624  0.2867
30490SOL    HW1 9462  13.437   2.444   1.536 -0.9429  1.6245  0.4741
30490SOL    HW2 9463  13.375   2.503   1.412  0.6178  0.4523 -0.8988
30491SOL     OW 9464   5.939  13.442  11.106  0.3893  0.7143  0.2187
30491SOL    HW1 9465   5.923  13.471  11.196  0.5169  1.7019 -0.0610
30491SOL    HW2 9466   6.023  13.396  11.110  0.1128  0.2536  0.7058
30492SOL     OW 9467   1.199  13.213   9.342 -0.1766  0.4048  0.6842
30492SOL    HW1 9468   1.263  13.149   9.372  0.3371 -0.0612 -1.2591
30492SOL    HW2 9469   1.122  13.198   9.397  0.2203 -1.3189  0.8320
30493SOL     OW 9470   3.929  13.085  12.665 -0.0357 -0.3539  0.0350
30493SOL    HW1 9471   3.945  13.179  12.670  0.8135 -0.5194  0.7234
30493SOL    HW2 9472   3.836  13.078  12.645 -0.0161  0.6294 -0.4814
30494SOL     OW 9473   5.125   4.183   8.382 -0.6805 -0.1954 -0.3841
30494SOL    HW1 9474   5.153   4.260   8.432 -0.0608 -0.7440  0.1383
30494SOL    HW2 9475   5.080   4.219   8.306  1.8413  0.7678 -1.5342
30495SOL     OW 9476   6.399   9.561   4.647 -0.6891 -0.5050  0.1838
30495SOL    HW1 9477   6.317   9.605   4.623 -1.6430 -1.4520  1.5841
30495SOL    HW2 9478   6.453   9.630   4.685 -1.2579 -0.0857  0.2429
30496SOL     OW 9479   2.586   1.028   6.732 -0.1158  0.2148 -0.0746
30496SOL    HW1 9480   2.546   1.004   6.815 -0.2176 -0.6232 -0.3613
30496SOL    HW2 9481   2.517   1.015   6.667 -0.1344  1.1547 -0.2683
30497SOL     OW 9482   3.652   8.473   5.350  0.7106  0.2179 -0.5114
30497SOL    HW1 9483   3.625   8.564   5.363 -1.2652 -0.1121 -1.8136
30497SOL    HW2 9484   3.573   8.422   5.370  2.0686 -1.3524  1.2892
30498SOL     OW 9485  13.394   4.655   5.294 -0.3533 -0.5252  0.1980
30498SOL    HW1 9486  13.329   4.620   5.233 -0.5065 -1.2891  0.7779
30498SOL    HW2 9487  13.409   4.744   5.264 -2.3768  0.0143  0.5770
30499SOL     OW 9488   8.777   7.379   8.989  0.1485  0.4821  0.0687
30499SOL    HW1 9489   8.829   7.453   9.020 -0.3397  0.5836  0.6602
30499SOL    HW2 9490   8.813   7.359   8.902  0.5814  1.1186  0.0963
30500SOL     OW 9491   1.846  13.066   1.830  0.0617  0.3046 -0.3840
30500SOL    HW1 9492   1.910  13.011   1.876 -1.7916 -1.4667  0.2311
30500SOL    HW2 9493   1.849  13.035   1.740  1.4119  1.5952 -0.8326
30501SOL     OW 9494   9.548  13.692   4.618 -0.2845 -0.0955  0.3355
30501SOL    HW1 9495   9.614  13.714   4.552 -0.3350 -3.0492 -0.8384
30501SOL    HW2 9496   9.589  13.716   4.701  0.6470  1.7342 -0.6001
30502SOL     OW 9497  14.012   8.565  10.456 -0.3334 -0.3856  0.0818
30502SOL    HW1 9498  14.072   8.634  10.429 -1.7824  0.6060 -0.7683
30502SOL    HW2 9499  14.021   8.498  10.388 -1.5801  0.6520 -1.1830
30503SOL     OW 9500   9.221   7.539  11.827  0.1250  0.1386  0.4517
30503SOL    HW1 9501   9.228   7.628  11.792 -0.3828 -0.7379 -2.0413
30503SOL    HW2 9502   9.128   7.528  11.846  0.2240  0.2108  0.9887
30504SOL     OW 9503  11.454   5.680  13.754  0.2565  0.2333  0.3388
30504SOL    HW1 9504  11.525   5.673  13.818 -0.3942 -0.0692  1.0352
30504SOL    HW2 9505  11.426   5.590  13.739  0.2775  0.3218 -0.2349
30505SOL     OW 9506   8.676  12.880   3.076  0.1607 -0.1889  0.2310
30505SOL    HW1 9507   8.680  12.974   3.093  0.0199  0.1868 -1.6706
30505SOL    HW2 9508   8.583  12.858   3.084 -0.1918  0.3765 -1.8528
30506SOL     OW 9509   0.217   9.440  11.175  0.2201 -0.3445 -0.0256
30506SOL    HW1 9510   0.228   9.355  11.133 -0.0577 -1.5717  2.1873
30506SOL    HW2 9511   0.123   9.458  11.169  0.1171 -0.7217  0.4206
30507SOL     OW 9512   8.767  12.524  13.312 -0.3798  0.3283 -0.1412
30507SOL    HW1 9513   8.809  12.528  13.398  1.5460  0.3978 -1.0256
30507SOL    HW2 9514   8.725  12.609  13.302 -1.1960  0.0695  0.9969
30508SOL     OW 9515   3.032   2.045   1.315  0.2770 -0.0530 -0.0741
30508SOL    HW1 9516   3.087   2.059   1.238  1.9587  0.1220  1.1177
30508SOL    HW2 9517   2.976   1.971   1.291 -0.1250  0.7924 -1.9035
30509SOL     OW 9518   0.961  12.463   1.617  0.1206 -0.1922 -0.4473
30509SOL    HW1 9519   0.984  12.555   1.634  0.8723 -0.4751  0.1397
30509SOL    HW2 9520   0.866  12.460   1.626  0.1727  0.3632  0.3849
30510SOL     OW 9521   5.855  12.065  11.504  0.1563 -0.0766  0.3431
30510SOL    HW1 9522   5.851  11.976  11.539  3.8602 -0.7919 -0.5991
30510SOL    HW2 9523   5.899  12.055  11.419  1.1225  2.7093  0.4344
30511SOL     OW 9524   3.421   3.083  11.447 -0.9433  0.6557  0.1889
30511SOL    HW1 9525   3.432   3.133  11.367  3.2531 -1.3595 -0.7752
30511SOL    HW2 9526   3.363   3.010  11.423  1.1411 -0.5559 -1.4794
30512SOL     OW 9527   2.230   2.345  10.358  0.2510  0.4075  0.1795
30512SOL    HW1 9528   2.140   2.326  10.332  0.6134 -0.9184 -0.1746
30512SOL    HW2 9529   2.250   2.428  10.317 -1.4188  1.7018  1.7896
30513SOL     OW 9530   2.212   8.196   5.982  0.4231  0.0144 -0.6328
30513SOL    HW1 9531   2.138   8.217   6.038 -0.0381 -0.5289 -1.0195
30513SOL    HW2 9532   2.278   8.160   6.042  0.2262  0.1378 -0.3394
30514SOL     OW 9533  12.808  12.782   0.250  0.0753  0.0206  0.2826
30514SOL    HW1 9534  12.835  12.693   0.272 -0.7299 -0.4025 -0.3921
30514SOL    HW2 9535  12.713  12.780   0.255  0.0370  0.7608 -0.0535
30515SOL     OW 9536   5.584   1.433  13.046  0.4102 -0.0227 -0.8018
30515SOL    HW1 9537   5.574   1.339  13.029  0.3315 -0.3149  0.6790
30515SOL    HW2 9538   5.499   1.459  13.083  0.0453  0.8984 -2.2260
30516SOL     OW 9539   4.012   0.982  10.514  0.5066  0.0785 -0.5392
30516SOL    HW1 9540   4.022   1.028  10.430  1.4065  0.1602 -0.3970
30516SOL    HW2 9541   4.040   1.046  10.580 -0.2595  0.0393 -0.1609
30517SOL     OW 9542   9.671   8.580  13.209  0.3503  0.1955 -0.3473
30517SOL    HW1 9543   9.576   8.578  13.220  0.3077 -1.2981 -0.8176
30517SOL    HW2 9544   9.688   8.525  13.133  1.7650 -1.4174  1.0680
30518SOL     OW 9545   1.908   0.605   0.739  0.2367 -0.0659  0.2232
30518SOL    HW1 9546   1.847   0.538   0.706 -0.0705 -0.6624  1.9133
30518SOL    HW2 9547   1.853   0.679   0.763  0.4751  0.4214 -0.6727
30519SOL     OW 9548   8.703   8.335   6.479  0.3465 -0.6805  1.1358
30519SOL    HW1 9549   8.763   8.407   6.497  0.8587 -0.9896  0.6798
30519SOL    HW2 9550   8.733   8.299   6.395 -1.6569  0.4039 -0.1302
30520SOL     OW 9551  12.009   6.192   7.887  0.2077 -0.9082 -0.0121
30520SOL    HW1 9552  11.915   6.180   7.875 -0.4394 -0.0314  3.1674
30520SOL    HW2 9553  12.024   6.172   7.980  2.7486  1.1075  0.1195
30521SOL     OW 9554   3.861  10.688  10.384 -0.0867 -0.6538 -0.0968
30521SOL    HW1 9555   3.837  10.761  10.440 -0.9205 -0.1153 -1.1058
30521SOL    HW2 9556   3.909  10.728  10.311  0.4214 -1.2518 -0.0996
30522SOL     OW 9557  12.255   9.605  13.380  0.4207 -0.3348  0.4696
30522SOL    HW1 9558  12.294   9.523  13.411  0.2662 -0.6749 -0.2077
30522SOL    HW2 9559  12.324   9.670  13.392  0.9033 -0.7641  0.0931
30523SOL     OW 9560  10.288  13.461  13.895 -0.5050  0.0111 -0.1047
30523SOL    HW1 9561  10.376  13.429  13.873 -0.0784  1.8887 -1.4727
30523SOL    HW2 9562  10.294  13.556  13.881 -2.9257  0.1063 -0.8634
30524SOL     OW 9563   0.212   7.836  12.993 -0.2595 -0.3311 -0.1727
30524SOL    HW1 9564   0.217   7.932  12.996  0.9793 -0.4136  0.6981
30524SOL    HW2 9565   0.118   7.818  12.995 -0.4924  0.8358  1.0921
30525SOL     OW 9566   9.727   5.384  12.965 -0.9342  0.2269  0.9472
30525SOL    HW1 9567   9.674   5.442  13.020  0.3651  0.2771  2.2043
30525SOL    HW2 9568   9.748   5.310  13.022  0.6488  0.3952  0.6211
30526SOL     OW 9569   2.708  12.121   3.002 -0.5750  0.1760 -0.4147
30526SOL    HW1 9570   2.779  12.120   3.066 -1.6508  2.1927  0.9300
30526SOL    HW2 9571   2.752  12.126   2.917  0.9036  1.0712  0.3581
30527SOL     OW 9572  14.146   6.994   1.416  0.4763 -0.3229  0.0788
30527SOL    HW1 9573  14.217   6.933   1.437 -1.2718 -2.0683  1.2746
30527SOL    HW2 9574  14.114   7.022   1.502 -0.9159 -0.3421 -0.4212
30528SOL     OW 9575  13.340   2.149   1.656  0.2400  0.2932 -0.1504
30528SOL    HW1 9576  13.299   2.117   1.736 -0.2774 -1.0365 -0.9207
30528SOL    HW2 9577  13.268   2.189   1.607  0.2756 -0.1429 -0.5610
30529SOL     OW 9578   3.491  13.531   9.067  0.7733 -0.5000  0.5226
30529SOL    HW1 9579   3.504  13.436   9.067 -0.3547 -0.6749  0.8212
30529SOL    HW2 9580   3.440  13.548   8.988  2.6093  0.1368 -0.5797
30530SOL     OW 9581   0.265  13.514  13.608  0.1945  0.2351  0.0158
30530SOL    HW1 9582   0.224  13.451  13.668  0.7082  0.6546  0.8175
30530SOL    HW2 9583   0.334  13.556  13.660 -0.4831  1.8515 -0.3370
30531SOL     OW 9584  12.315   3.950   3.907 -0.4773  0.3391 -0.3404
30531SOL    HW1 9585  12.298   3.874   3.962  2.2105  1.5886  2.5499
30531SOL    HW2 9586  12.387   3.923   3.850  1.0099  0.8494  1.2277
30532SOL     OW 9587  13.918   7.686   1.999 -0.5551 -0.0346 -0.1226
30532SOL    HW1 9588  14.006   7.672   2.032 -0.3904 -3.0283 -1.5370
30532SOL    HW2 9589  13.927   7.686   1.904 -2.1979 -1.8316 -0.3372
30533SOL     OW 9590   5.291   1.407   9.610 -0.3274 -0.6710  0.1183
30533SOL    HW1 9591   5.330   1.405   9.697 -0.6006  0.3051  0.2742
30533SOL    HW2 9592   5.344   1.347   9.558  1.7916  1.0658  0.1501
30534SOL     OW 9593  11.163   8.523   4.409  0.1992  0.2836  0.1044
30534SOL    HW1 9594  11.250   8.547   4.441  0.4209  1.1029 -1.0729
30534SOL    HW2 9595  11.178   8.452   4.347  0.0271  0.4084 -0.0809
30535SOL     OW 9596  13.970   3.297   4.119  0.5592  0.4747 -0.3513
30535SOL    HW1 9597  14.003   3.256   4.040 -0.2362  2.4771 -1.8071
30535SOL    HW2 9598  13.939   3.383   4.091 -0.6580  0.8915  1.9628
30536SOL     OW 9599  12.583   4.390  14.140  0.0522 -0.5290 -0.1065
30536SOL    HW1 9600  12.607   4.299  14.128  1.1097 -0.1876 -0.6981
30536SOL    HW2 9601  12.607   4.433  14.058 -1.5812  0.0673 -0.3089
30537SOL     OW 9602   8.191  13.762   1.129  0.3129  0.4729 -0.3497
30537SOL    HW1 9603   8.216  13.851   1.107  0.5331  0.3366 -0.6461
30537SOL    HW2 9604   8.170  13.721   1.045  0.9193  0.0266 -0.2859
30538SOL     OW 9605   8.559   4.218  12.424  0.4709 -0.3443 -0.5504
30538SOL    HW1 9606   8.593   4.302  12.395  2.9265 -1.9607 -2.8399
30538SOL    HW2 9607   8.633   4.176  12.468 -0.9152 -1.0771  1.1747
30539SOL     OW 9608   7.133  11.800   9.027  0.0844 -1.1486 -0.5623
30539SOL    HW1 9609   7.070  11.862   9.063  1.0869 -0.0226 -0.7032
30539SOL    HW2 9610   7.162  11.839   8.944  0.5379 -1.9231 -0.7841
30540SOL     OW 9611   7.392  11.651   1.707  0.5109  0.2893 -0.0432
30540SOL    HW1 9612   7.476  11.676   1.669 -0.1950  1.9052 -0.6692
30540SOL    HW2 9613   7.335  11.636   1.632 -0.1289  0.6233  0.3649
30541SOL     OW 9614   1.767  14.096   4.909  0.0306  0.0141  0.3418
30541SOL    HW1 9615   1.730  14.135   4.988 -0.0533  0.8827 -0.1085
30541SOL    HW2 9616   1.692  14.059   4.862  0.1862 -1.2967  1.0730
30542SOL     OW 9617  12.917  11.520   2.877  0.0526  0.3865 -0.1170
30542SOL    HW1 9618  12.884  11.480   2.796  1.2492 -0.7264 -0.0862
30542SOL    HW2 9619  12.985  11.581   2.848  1.9815 -1.5435  0.1007
30543SOL     OW 9620   6.081   3.292  13.276 -0.2551  0.3230 -0.2680
30543SOL    HW1 9621   6.089   3.224  13.209  0.5542  0.2573 -0.1109
30543SOL    HW2 9622   6.171   3.318  13.295 -0.5307  1.1103  0.0148
30544SOL     OW 9623   0.909   0.217   1.514 -0.7986 -0.1649 -0.4300
30544SOL    HW1 9624   0.924   0.249   1.603 -2.5426 -0.2645 -0.0575
30544SOL    HW2 9625   0.973   0.263   1.460  0.5476 -0.3987  0.9246
30545SOL     OW 9626  10.712  12.390   4.878 -0.1430 -0.3908 -0.3528
30545SOL    HW1 9627  10.793  12.429   4.913  0.4270 -2.8725  1.3669
30545SOL    HW2 9628  10.671  12.461   4.829  2.5684  1.2727 -0.4701
30546SOL     OW 9629  10.285   4.004   0.047  0.3951  0.7125 -0.2741
30546SOL    HW1 9630  10.260   4.086   0.004 -0.8482 -0.3447 -1.7044
30546SOL    HW2 9631  10.216   3.989   0.112 -1.6885 -1.0742 -2.6882
30547SOL     OW 9632   5.559   0.933   5.546 -0.3878 -0.3793  0.3785
30547SOL    HW1 9633   5.567   0.867   5.478  0.6209  0.4219 -0.3024
30547SOL    HW2 9634   5.466   0.932   5.569 -0.9087 -0.1658 -1.5332
30548SOL     OW 9635   3.832   9.271   0.992 -0.3520 -0.1652  0.0435
30548SOL    HW1 9636   3.876   9.300   0.912 -0.3548  2.6712  0.9687
30548SOL    HW2 9637   3.741   9.258   0.967 -0.1163 -0.5535 -0.6474
30549SOL     OW 9638   7.335  12.383   4.647 -0.6797  0.8562 -0.1984
30549SOL    HW1 9639   7.407  12.443   4.625 -0.3587  1.2247  1.6955
30549SOL    HW2 9640   7.353  12.356   4.737 -2.2492 -0.0492 -0.1240
30550SOL     OW 9641   1.575  10.882   2.297 -0.1296  0.0829 -0.0302
30550SOL    HW1 9642   1.655  10.841   2.331 -1.7045 -1.5627  1.9909
30550SOL    HW2 9643   1.583  10.974   2.322  1.2743  0.0265 -0.1839
30551SOL     OW 9644   5.847  10.372  11.416 -0.2687 -0.2515  0.0452
30551SOL    HW1 9645   5.799  10.306  11.366 -2.6219  0.7898  0.7840
30551SOL    HW2 9646   5.852  10.447  11.356 -3.0713  0.9889  1.1693
30552SOL     OW 9647   6.771  12.327   1.254 -0.4152  0.5667 -0.6017
30552SOL    HW1 9648   6.867  12.327   1.261 -0.3675  1.1240 -1.2237
30552SOL    HW2 9649   6.742  12.388   1.322 -0.2216  1.8594 -1.6461
30553SOL     OW 9650  12.572   1.154   4.143  0.4779 -0.3890  0.0224
30553SOL    HW1 9651  12.584   1.064   4.173  0.2298  0.9171  4.8256
30553SOL    HW2 9652  12.490   1.152   4.094  0.5900 -2.7397 -0.2033
30554SOL     OW 9653   4.225   1.111   8.699 -0.1323  0.1262 -0.2729
30554SOL    HW1 9654   4.279   1.035   8.718 -1.2319 -0.8046 -0.7014
30554SOL    HW2 9655   4.243   1.130   8.607 -0.2276  0.0613 -0.3053
30555SOL     OW 9656   0.485  10.571   2.080  0.0266 -0.7763  0.4087
30555SOL    HW1 9657   0.527  10.563   1.995  1.0674  1.0024  0.7057
30555SOL    HW2 9658   0.401  10.614   2.061 -0.3427 -1.6037  0.1452
30556SOL     OW 9659   8.552  12.653  11.927  0.0976 -0.8639 -0.0043
30556SOL    HW1 9660   8.643  12.624  11.934  0.6895  0.1844 -2.4833
30556SOL    HW2 9661   8.535  12.697  12.011  1.8454 -1.1123  0.5237
30557SOL     OW 9662   0.214   4.256  13.375 -0.5244 -0.3874  0.4587
30557SOL    HW1 9663   0.164   4.208  13.441 -1.5847 -0.1530 -0.1614
30557SOL    HW2 9664   0.149   4.305  13.326  0.2400 -0.6183 -0.8218
30558SOL     OW 9665   4.851   3.432   9.606 -0.3854  0.4606 -0.7041
30558SOL    HW1 9666   4.878   3.349   9.643  1.9007  0.5493 -1.9790
30558SOL    HW2 9667   4.757   3.436   9.622 -0.4040 -1.9278  0.1801
30559SOL     OW 9668  13.919   4.762   5.815 -0.7918  0.0176  0.3862
30559SOL    HW1 9669  13.825   4.774   5.829 -0.5096 -0.2359  3.1440
30559SOL    HW2 9670  13.942   4.688   5.871  1.5092  1.9418  2.2200
30560SOL     OW 9671   9.041   6.244   9.379 -0.0946 -0.1167  0.2833
30560SOL    HW1 9672   9.023   6.212   9.467  1.2917  1.0663  1.0496
30560SOL    HW2 9673   9.085   6.328   9.393  1.2622 -0.4725 -1.4885
30561SOL     OW 9674   7.460   7.410   9.318  0.2710  0.0773  0.6258
30561SOL    HW1 9675   7.432   7.463   9.243 -0.0898  0.5920  1.1085
30561SOL    HW2 9676   7.535   7.360   9.287 -0.4651 -0.4415 -0.3653
30562SOL     OW 9677   1.741  10.641   8.975  0.3889 -0.1113 -0.5202
30562SOL    HW1 9678   1.722  10.649   8.882  2.0911  1.1772 -0.8014
30562SOL    HW2 9679   1.824  10.593   8.979  0.8907  0.7803  0.2557
30563SOL     OW 9680   0.660   6.780   0.176  0.6453 -0.1176  0.2534
30563SOL    HW1 9681   0.624   6.815   0.257  0.1328 -2.7361  1.2697
30563SOL    HW2 9682   0.604   6.705   0.156  2.1173 -0.8679 -1.2860
30564SOL     OW 9683  10.612   2.838   0.325 -0.0646 -0.3047  0.0839
30564SOL    HW1 9684  10.679   2.907   0.325  0.8215 -1.1084 -1.2892
30564SOL    HW2 9685  10.585   2.831   0.416  2.6787 -0.8309  0.9614
30565SOL     OW 9686   5.815   6.810  13.007  0.1938 -0.3304 -0.2438
30565SOL    HW1 9687   5.806   6.862  12.927  0.6120  0.7490  0.4017
30565SOL    HW2 9688   5.854   6.728  12.977  0.4416  0.0995 -1.1348
30566SOL     OW 9689  11.462  10.662   8.014 -0.4449  0.3841  0.3394
30566SOL    HW1 9690  11.431  10.595   8.075  0.3770  1.6656  2.2870
30566SOL    HW2 9691  11.554  10.675   8.038 -0.7680  2.7098  0.6039
30567SOL     OW 9692  13.534   7.959  10.402 -0.0215 -0.1637  0.1642
30567SOL    HW1 9693  13.511   8.046  10.435  0.1327  0.1385 -0.5051
30567SOL    HW2 9694  13.624   7.945  10.433 -0.4702 -0.6158  1.3143
30568SOL     OW 9695   9.926   5.150   6.088  0.1055 -0.1533  0.4890
30568SOL    HW1 9696   9.970   5.087   6.030 -0.6667  0.3125 -0.6510
30568SOL    HW2 9697   9.977   5.231   6.079 -0.7345  0.2842 -0.5563
30569SOL     OW 9698   9.924   6.734   4.434  0.5060  0.4138  0.2169
30569SOL    HW1 9699   9.996   6.794   4.452 -0.5976  2.0027 -0.4472
30569SOL    HW2 9700   9.949   6.690   4.353  0.2566  1.7901 -0.6395
30570SOL     OW 9701   1.377   7.018  13.796  0.2276  0.0874  0.4942
30570SOL    HW1 9702   1.367   7.082  13.725  1.1700 -0.1824  0.0984
30570SOL    HW2 9703   1.415   6.941  13.754  0.7730 -0.0894  1.2774
30571SOL     OW 9704   6.713   1.023   6.882 -0.4145 -0.3424  0.4112
30571SOL    HW1 9705   6.767   1.098   6.908 -0.8737 -0.1495  0.8399
30571SOL    HW2 9706   6.625   1.060   6.869 -0.7081 -0.8481  0.9007
30572SOL     OW 9707  12.162   2.125   6.135 -0.2042 -0.3290  0.5919
30572SOL    HW1 9708  12.135   2.182   6.208 -0.6134 -1.3118  1.2315
30572SOL    HW2 9709  12.111   2.157   6.060 -0.4432  0.1348  0.9405
30573SOL     OW 9710   0.689   5.447   0.195 -0.0345 -0.0516  0.0253
30573SOL    HW1 9711   0.606   5.493   0.205 -0.1753 -0.2664 -0.1557
30573SOL    HW2 9712   0.740   5.501   0.135 -0.2818 -0.2411 -0.3573
30574SOL     OW 9713   3.072   6.345  12.362  0.4267  1.2021  0.2427
30574SOL    HW1 9714   3.117   6.295  12.430  2.3519  2.1611 -0.2568
30574SOL    HW2 9715   2.984   6.307  12.359  1.1964 -0.8163  1.2193
30575SOL     OW 9716  10.400   9.235  12.063  0.1507 -0.6572 -0.4944
30575SOL    HW1 9717  10.326   9.177  12.082 -0.3467 -0.1283 -0.7849
30575SOL    HW2 9718  10.361   9.323  12.059  0.6534 -0.4587 -1.4246
30576SOL     OW 9719  13.343   7.925   1.523  0.4822 -0.4352 -0.6620
30576SOL    HW1 9720  13.392   7.984   1.465 -0.5929 -0.6131 -1.8026
30576SOL    HW2 9721  13.392   7.843   1.522  0.1082 -0.6707 -1.9446
30577SOL     OW 9722   0.256   7.324  11.755 -0.0167 -0.0288 -0.2931
30577SOL    HW1 9723   0.213   7.247  11.717 -1.5225  0.5461  0.1543
30577SOL    HW2 9724   0.188   7.365  11.809  0.5855  1.8956 -0.9205
30578SOL     OW 9725  12.174  10.583  13.824 -0.7625 -0.1041  0.2994
30578SOL    HW1 9726  12.120  10.616  13.896 -0.4171  1.3015 -0.0494
30578SOL    HW2 9727  12.252  10.549  13.867 -0.6894  0.4561  0.6175
30579SOL     OW 9728  13.167  11.815  13.285  0.3371 -0.0207  0.8711
30579SOL    HW1 9729  13.111  11.744  13.317 -0.9750 -0.1203 -1.3703
30579SOL    HW2 9730  13.150  11.888  13.343 -1.3266 -0.4038  0.9178
30580SOL     OW 9731   6.703   0.928   7.317 -0.3666 -0.1637 -0.7948
30580SOL    HW1 9732   6.752   0.990   7.371  0.4414 -0.3194 -1.3244
30580SOL    HW2 9733   6.717   0.843   7.359 -1.6797  0.0233  0.0745
30581SOL     OW 9734  13.987   4.203   3.292  1.0346 -0.4592  0.1348
30581SOL    HW1 9735  13.921   4.133   3.298  1.6990 -1.1293 -0.3132
30581SOL    HW2 9736  13.938   4.278   3.257  0.8237 -1.3915 -1.6643
30582SOL     OW 9737   5.876   2.249  12.895 -0.0577 -0.0497 -0.1308
30582SOL    HW1 9738   5.875   2.171  12.839  0.0456 -0.2238  0.1087
30582SOL    HW2 9739   5.852   2.216  12.982  2.9831 -0.3535  0.6767
30583SOL     OW 9740   4.209  11.270   6.463 -0.1070 -0.4719  0.6590
30583SOL    HW1 9741   4.133  11.318   6.495  0.0587  0.7045 -0.5878
30583SOL    HW2 9742   4.284  11.312   6.505 -0.0135 -0.1377  0.1696
30584SOL     OW 9743   6.588   3.827  12.324  0.1602  0.5130  0.0568
30584SOL    HW1 9744   6.680   3.824  12.297  0.3043  0.4928  0.5340
30584SOL    HW2 9745   6.541   3.782  12.254  0.6076 -0.1993  0.2052
30585SOL     OW 9746   7.267   9.683   4.295 -0.1320  0.1184  0.0456
30585SOL    HW1 9747   7.325   9.648   4.362  2.1122 -0.2679 -1.9887
30585SOL    HW2 9748   7.191   9.626   4.297  0.5255 -0.7527  1.2699
30586SOL     OW 9749   8.663  13.515  10.697 -0.1220 -0.1261  0.1453
30586SOL    HW1 9750   8.663  13.574  10.773 -0.2394  1.8449 -1.2938
30586SOL    HW2 9751   8.682  13.429  10.733  2.7203  1.1622  2.1026
30587SOL     OW 9752  11.625  11.470  13.308 -0.0868  0.5217  0.2027
30587SOL    HW1 9753  11.599  11.407  13.240 -1.8908  0.1314  1.1856
30587SOL    HW2 9754  11.632  11.418  13.388  0.2347  1.2753  0.6754
30588SOL     OW 9755   7.637  10.554   3.469  0.7330 -0.1054  0.5179
30588SOL    HW1 9756   7.618  10.460   3.466 -0.5301  0.1409 -0.4781
30588SOL    HW2 9757   7.588  10.586   3.545 -1.7564  0.2578 -1.1121
30589SOL     OW 9758  11.022  13.983   0.350 -0.3926  0.0789  0.3821
30589SOL    HW1 9759  10.990  13.947   0.433  0.5555  0.7395  1.0633
30589SOL    HW2 9760  10.988  13.924   0.283  0.3875 -1.5795  1.3861
30590SOL     OW 9761   9.285   5.128  11.369  0.5548 -0.0948  0.1221
30590SOL    HW1 9762   9.306   5.206  11.421  1.1897 -0.5909  0.6187
30590SOL    HW2 9763   9.303   5.154  11.279  0.7658  0.3305  0.2860
30591SOL     OW 9764   9.180   9.579  10.869  0.1628 -0.4175  0.3316
30591SOL    HW1 9765   9.195   9.666  10.905  0.4732 -0.4365  0.2514
30591SOL    HW2 9766   9.086   9.564  10.882  0.1949 -0.2643  0.7715
30592SOL     OW 9767  11.912   3.802   3.218  0.1554  0.4938 -0.1904
30592SOL    HW1 9768  11.911   3.715   3.179 -0.0457 -1.0955  3.0603
30592SOL    HW2 9769  11.997   3.839   3.191  0.8099 -1.2104 -0.5962
30593SOL     OW 9770   6.394   3.425   7.757  0.0954  0.1477 -0.5149
30593SOL    HW1 9771   6.419   3.498   7.701  1.3607  2.2436  2.4851
30593SOL    HW2 9772   6.463   3.421   7.823 -0.4319 -3.2257  0.0067
30594SOL     OW 9773   3.761   4.636   2.536 -0.0546 -0.1927  0.5928
30594SOL    HW1 9774   3.801   4.688   2.605 -1.9238  0.9396  0.8915
30594SOL    HW2 9775   3.703   4.576   2.583  0.3813 -1.0044  0.1153
30595SOL     OW 9776   7.312   4.548  12.855 -0.4279  0.4117 -0.0215
30595SOL    HW1 9777   7.386   4.599  12.823  0.4786 -0.5976  0.4194
30595SOL    HW2 9778   7.235   4.592  12.819  0.4127  1.0818 -1.0456
30596SOL     OW 9779   3.673  13.281   9.452 -0.1286 -0.2894 -0.1699
30596SOL    HW1 9780   3.745  13.333   9.490 -0.3615  0.4429 -0.7150
30596SOL    HW2 9781   3.706  13.191   9.452 -0.2949 -0.4266  2.2240
30597SOL     OW 9782  11.355   7.054   7.777 -0.3566 -0.6684 -0.5099
30597SOL    HW1 9783  11.296   7.107   7.724 -1.6816  1.7355  3.0007
30597SOL    HW2 9784  11.436   7.104   7.781 -0.3462 -0.7128 -0.0952
30598SOL     OW 9785   5.058   1.548   9.637 -0.0618 -0.2419 -0.3588
30598SOL    HW1 9786   5.137   1.500   9.612 -0.4019 -0.4426 -1.0813
30598SOL    HW2 9787   5.063   1.630   9.587 -0.0512 -0.0214 -0.0015
30599SOL     OW 9788   2.321   7.657   9.334  0.7336 -0.6261  0.0230
30599SOL    HW1 9789   2.375   7.589   9.376  0.4750  0.5215  2.3814
30599SOL    HW2 9790   2.320   7.632   9.242  1.7172 -3.0916  0.5765
30600SOL     OW 9791   3.471   0.245   6.576 -0.3109 -0.3980 -0.5537
30600SOL    HW1 9792   3.379   0.221   6.583 -0.4846  0.5477  1.1796
30600SOL    HW2 9793   3.476   0.302   6.499 -1.3509  0.2215 -0.1785
30601SOL     OW 9794   1.587   9.999   6.076  0.6118  0.1053 -0.2659
30601SOL    HW1 9795   1.599   9.928   6.139  0.2902  0.7445  0.5401
30601SOL    HW2 9796   1.647   9.979   6.004  2.7311  0.5846  1.2958
30602SOL     OW 9797   5.476  11.599   8.222  0.4270  0.7533 -0.7480
30602SOL    HW1 9798   5.525  11.603   8.140 -1.7967  1.6832 -2.1410
30602SOL    HW2 9799   5.425  11.518   8.216 -0.2634  1.1664 -0.6306
30603SOL     OW 9800  11.034  11.934   3.427 -0.6220 -0.1861  0.1720
30603SOL    HW1 9801  11.130  11.933   3.437 -0.6530 -1.1887  0.5170
30603SOL    HW2 9802  11.001  11.937   3.517 -0.9249  0.5347  0.0416
30604SOL     OW 9803   5.885  12.496   4.747  0.1921 -0.3877 -0.5274
30604SOL    HW1 9804   5.817  12.512   4.813 -0.0607  1.8257 -1.2497
30604SOL    HW2 9805   5.837  12.487   4.665  0.7361  0.8490 -0.9925
30605SOL     OW 9806  14.047   2.008  10.381 -0.2959 -0.3278  0.0373
30605SOL    HW1 9807  14.087   2.066  10.316  1.4896 -1.0032  0.4829
30605SOL    HW2 9808  14.032   2.065  10.457  0.5512 -0.2165  0.1323
30606SOL     OW 9809   0.573   7.478   0.101 -0.0444 -0.5076 -0.3638
30606SOL    HW1 9810   0.645   7.445   0.048 -0.0007 -1.5354  0.3075
30606SOL    HW2 9811   0.609   7.488   0.189 -0.5373 -0.3866 -0.1686
30607SOL     OW 9812   8.926   1.375   3.318  0.3727 -0.2975  0.4589
30607SOL    HW1 9813   8.963   1.437   3.381 -0.9332 -0.1075  1.0772
30607SOL    HW2 9814   8.842   1.350   3.357 -0.1460 -0.7034 -0.8873
30608SOL     OW 9815   6.529  13.429   8.013  0.3908  0.6162 -0.0355
30608SOL    HW1 9816   6.608  13.475   8.042  1.0459 -0.5842  0.1411
30608SOL    HW2 9817   6.498  13.480   7.938  2.3487  0.1439 -1.2306
30609SOL     OW 9818   7.560   4.070   1.697 -0.0754 -0.2622 -0.9916
30609SOL    HW1 9819   7.481   4.105   1.654 -0.2819  0.4713 -0.0391
30609SOL    HW2 9820   7.542   4.078   1.790  1.2486  0.1769 -0.7578
30610SOL     OW 9821   7.646   4.017   8.614  0.6679 -0.0272 -0.0052
30610SOL    HW1 9822   7.675   4.019   8.706 -1.7147 -0.5643  0.8384
30610SOL    HW2 9823   7.687   3.939   8.577  0.8223 -0.4020  0.9269
30611SOL     OW 9824   4.565   4.879   5.654 -0.3723  0.0142  0.6873
30611SOL    HW1 9825   4.509   4.820   5.703  0.4582 -1.9092 -0.5539
30611SOL    HW2 9826   4.523   4.885   5.567  0.2801  0.1750  0.3783
30612SOL     OW 9827   1.693   7.755   6.023 -0.1423 -0.0557 -0.0130
30612SOL    HW1 9828   1.677   7.848   6.036 -1.2807 -0.1011 -0.8992
30612SOL    HW2 9829   1.785   7.743   6.046 -0.0508  1.2312  0.3702
30613SOL     OW 9830   3.412   5.493   5.065 -0.2572  0.3581 -0.2318
30613SOL    HW1 9831   3.371   5.467   5.147  3.2520 -0.5092  1.4221
30613SOL    HW2 9832   3.352   5.557   5.028 -2.4675  0.0473  2.4861
30614SOL     OW 9833   8.040   3.220   9.357 -0.2782 -0.6028 -0.3032
30614SOL    HW1 9834   7.992   3.298   9.385  0.9535  0.0691  0.0141
30614SOL    HW2 9835   8.071   3.181   9.439 -1.5387 -1.8893 -0.4020
30615SOL     OW 9836   4.977  12.767   9.285 -0.3259  0.2140  0.2340
30615SOL    HW1 9837   4.929  12.721   9.216  1.5536 -0.6590 -0.5583
30615SOL    HW2 9838   5.047  12.706   9.310 -0.4268  0.8812  2.3118
30616SOL     OW 9839  13.499   7.871  11.064  0.0778 -0.6346 -0.0888
30616SOL    HW1 9840  13.503   7.966  11.073  0.4707 -0.6266 -0.3130
30616SOL    HW2 9841  13.543   7.853  10.981 -1.0750 -0.9180 -0.6530
30617SOL     OW 9842   7.508  13.299  11.680 -0.3032 -0.3528 -0.4029
30617SOL    HW1 9843   7.583  13.306  11.620 -0.2140 -0.5000 -0.3063
30617SOL    HW2 9844   7.503  13.386  11.720 -0.6927 -0.0835 -1.0166
30618SOL     OW 9845   3.244   8.459   5.275  0.2801  0.7538 -0.7055
30618SOL    HW1 9846   3.295   8.524   5.227  0.0820  1.4706  0.0294
30618SOL    HW2 9847   3.165   8.506   5.303 -1.4569 -0.6445 -2.8807
30619SOL     OW 9848   3.440  11.939   9.422  0.0561 -0.0675 -0.0731
30619SOL    HW1 9849   3.417  11.852   9.390 -3.5270  0.4352  0.7044
30619SOL    HW2 9850   3.455  11.991   9.343 -2.0199 -0.4297 -0.7623
30620SOL     OW 9851  10.951  10.741  12.141 -0.1170  0.0764 -0.1810
30620SOL    HW1 9852  10.976  10.716  12.051 -0.7652 -0.9313 -0.1005
30620SOL    HW2 9853  10.862  10.706  12.151  0.7953 -1.9360  1.6344
30621SOL     OW 9854  11.007  12.208  10.640 -0.2871 -0.6970  0.5436
30621SOL    HW1 9855  11.087  12.178  10.597 -0.3181  0.0334 -0.0356
30621SOL    HW2 9856  10.959  12.254  10.571 -0.8425 -0.4488  1.0912
30622SOL     OW 9857   0.044   1.205   4.401  0.2984  0.2664 -0.4265
30622SOL    HW1 9858   0.078   1.175   4.316  2.2629  2.9858 -0.7581
30622SOL    HW2 9859   0.026   1.298   4.387  1.0721  0.8808  2.2251
30623SOL     OW 9860   4.469   1.098   9.411 -0.5010  0.3350  0.3658
30623SOL    HW1 9861   4.559   1.127   9.426 -0.8591  2.4353 -1.0497
30623SOL    HW2 9862   4.448   1.043   9.486  1.3831  1.1664  1.5662
30624SOL     OW 9863  14.049   3.676  12.036  0.1932 -0.2362  0.0051
30624SOL    HW1 9864  13.967   3.629  12.022 -0.2357 -0.0330  1.6541
30624SOL    HW2 9865  14.045   3.750  11.975  0.7225 -2.0193 -2.3684
30625SOL     OW 9866   5.665  13.726   4.424 -0.3874 -0.3746  0.1395
30625SOL    HW1 9867   5.631  13.666   4.489  0.9625  0.1254  1.3542
30625SOL    HW2 9868   5.745  13.684   4.391  0.2221  0.4190  0.5484
30626SOL     OW 9869   2.134   1.248  10.453 -0.3778  0.1581 -0.3071
30626SOL    HW1 9870   2.196   1.186  10.416 -2.0220 -1.0247 -1.2577
30626SOL    HW2 9871   2.137   1.323  10.393  0.3680  0.2571 -0.1470
30627SOL     OW 9872   2.260   0.173   0.900  0.0348  0.1961  0.7456
30627SOL    HW1 9873   2.298   0.260   0.911  0.5456  0.1545 -0.4802
30627SOL    HW2 9874   2.166   0.186   0.919  0.3022  0.7256  1.8028
30628SOL     OW 9875   8.120  12.060   5.895 -0.3218 -0.0945  0.7437
30628SOL    HW1 9876   8.035  12.031   5.863 -0.0770  0.4927 -0.4848
30628SOL    HW2 9877   8.168  11.979   5.913  0.0477 -0.5218 -1.8254
30629SOL     OW 9878  13.863  12.344   2.313 -0.5088 -0.9182 -0.1582
30629SOL    HW1 9879  13.837  12.260   2.275  0.8379 -1.4320  0.0108
30629SOL    HW2 9880  13.920  12.383   2.247  2.4756 -2.1480  1.5039
30630SOL     OW 9881  11.685  12.147   2.866 -0.0102  0.0766  0.0604
30630SOL    HW1 9882  11.750  12.115   2.928  0.9333 -0.2556 -1.0704
30630SOL    HW2 9883  11.732  12.154   2.783 -0.8789  1.8095 -0.3390
30631SOL     OW 9884   8.463   7.035   1.637 -0.0326  0.1370 -0.0644
30631SOL    HW1 9885   8.397   6.985   1.589  0.2394 -0.4710  0.1906
30631SOL    HW2 9886   8.538   6.976   1.643 -0.4511 -0.2359  2.1284
30632SOL     OW 9887   9.493  11.242  13.223 -0.3639 -0.2298 -1.0767
30632SOL    HW1 9888   9.401  11.261  13.208  0.0845  1.8510 -1.5042
30632SOL    HW2 9889   9.534  11.248  13.136  0.4917  0.9666 -0.6140
30633SOL     OW 9890  13.645   0.175   4.190 -0.3559  0.6391 -0.1778
30633SOL    HW1 9891  13.624   0.236   4.119 -0.6194  1.7388  0.8184
30633SOL    HW2 9892  13.738   0.190   4.207 -0.4580  0.9003  0.1736
30634SOL     OW 9893   3.598   4.584  12.384  0.1344  0.1100 -0.3537
30634SOL    HW1 9894   3.664   4.547  12.325 -0.5185 -0.6126 -0.6495
30634SOL    HW2 9895   3.518   4.584  12.333  0.0696  1.8726 -0.3327
30635SOL     OW 9896  11.370   3.850  13.687 -0.0082 -0.1354  0.1864
30635SOL    HW1 9897  11.418   3.921  13.644  0.8979 -1.5825 -1.3175
30635SOL    HW2 9898  11.421   3.831  13.766 -0.9704  1.6829  1.3064
30636SOL     OW 9899  11.227   5.892  10.939  0.2563  0.0407 -0.3347
30636SOL    HW1 9900  11.215   5.798  10.953  0.7299 -0.1481 -1.1095
30636SOL    HW2 9901  11.191   5.933  11.018  0.6567 -0.8216  0.3122
30637SOL     OW 9902  10.423  13.840   9.705  0.3070 -0.4135 -0.4951
30637SOL    HW1 9903  10.388  13.753   9.726 -1.4705  0.7343  1.7265
30637SOL    HW2 9904  10.363  13.874   9.639 -1.2064  0.4208  1.2120
30638SOL     OW 9905  12.736  10.656   3.150  0.1047  0.2038 -0.5278
30638SOL    HW1 9906  12.724  10.747   3.177 -1.5019 -0.0546 -0.2888
30638SOL    HW2 9907  12.650  10.616   3.161  0.6757 -1.2368 -1.0749
30639SOL     OW 9908   0.899   0.226   8.654  0.9056 -0.4229 -0.0118
30639SOL    HW1 9909   0.829   0.256   8.713  0.5448 -1.6533  0.2185
30639SOL    HW2 9910   0.923   0.139   8.687  2.2858 -0.1859 -0.3279
30640SOL     OW 9911   2.356   3.010  13.635 -0.4695  0.2635  0.2445
30640SOL    HW1 9912   2.402   3.068  13.575  0.2083 -1.0580 -0.5767
30640SOL    HW2 9913   2.420   2.989  13.703 -0.2519 -0.5735 -0.2050
30641SOL     OW 9914   2.582   4.083   9.952 -0.0255 -0.1309 -0.4917
30641SOL    HW1 9915   2.528   4.099  10.029  0.6302  0.5501 -0.1574
30641SOL    HW2 9916   2.523   4.097   9.878 -0.2032  1.0937 -0.1452
30642SOL     OW 9917   2.165  14.157   6.690  0.1768  0.0503 -0.8725
30642SOL    HW1 9918   2.100  14.123   6.629 -0.6520  0.0368  0.0052
30642SOL    HW2 9919   2.230  14.200   6.634  0.8410 -2.2115 -1.9777
30643SOL     OW 9920   5.645   3.356   7.308  0.1879  0.3001  0.6090
30643SOL    HW1 9921   5.701   3.360   7.385  1.1681 -0.5768 -0.0334
30643SOL    HW2 9922   5.666   3.272   7.267 -0.4687  0.6538 -0.5000
30644SOL     OW 9923   8.551  13.554  13.626  0.0268 -0.4070 -0.1931
30644SOL    HW1 9924   8.623  13.509  13.669 -0.4095 -0.2081  0.7773
30644SOL    HW2 9925   8.478  13.548  13.688 -0.2284  1.0715 -0.3028
30645SOL     OW 9926   2.047   9.406   6.327 -0.2369 -0.0691 -0.6161
30645SOL    HW1 9927   2.052   9.445   6.414  2.2853  0.9487 -1.1343
30645SOL    HW2 9928   1.987   9.463   6.279 -0.9891 -0.1561  0.1979
30646SOL     OW 9929   6.999  13.252   3.588  0.0136  0.9571 -0.2270
30646SOL    HW1 9930   7.088  13.243   3.623 -0.0181  0.7743 -0.1931
30646SOL    HW2 9931   6.984  13.346   3.585 -0.5075  0.9591  1.5755
30647SOL     OW 9932  12.487   9.729   9.258  0.2346 -0.2776  0.0774
30647SOL    HW1 9933  12.419   9.791   9.230 -0.8713 -0.9247  1.2497
30647SOL    HW2 9934  12.453   9.643   9.234  2.0301 -0.4846 -2.1068
30648SOL     OW 9935   8.345   9.732   6.890  0.5329  0.0848  0.3822
30648SOL    HW1 9936   8.389   9.767   6.813 -1.3642  0.4381 -0.6160
30648SOL    HW2 9937   8.416   9.702   6.947  2.0083 -1.0515 -1.8831
30649SOL     OW 9938   2.037   1.237  11.862 -0.1691 -0.2246  0.0831
30649SOL    HW1 9939   1.983   1.208  11.789 -1.2692  0.3310  0.6529
30649SOL    HW2 9940   2.012   1.329  11.875  0.0638 -0.2892  1.0944
30650SOL     OW 9941  12.871   2.817   7.810 -0.4744  0.0612 -0.2883
30650SOL    HW1 9942  12.832   2.731   7.824 -1.8963  0.2609 -2.5659
30650SOL    HW2 9943  12.800   2.870   7.775  0.6737  1.8557 -0.0224
30651SOL     OW 9944   2.272   9.301   8.889  0.0742 -0.2400 -0.0942
30651SOL    HW1 9945   2.208   9.266   8.826 -1.2080  1.7963 -0.0359
30651SOL    HW2 9946   2.303   9.382   8.848  1.2822 -0.2846  0.7020
30652SOL     OW 9947   9.212   1.995   1.176 -0.2791 -0.3947 -0.0659
30652SOL    HW1 9948   9.240   2.015   1.086 -1.5746 -1.5328 -0.7677
30652SOL    HW2 9949   9.210   2.081   1.219  2.0106 -0.0227 -0.5886
30653SOL     OW 9950  10.735   5.943   3.985  0.1704 -0.2404 -0.0376
30653SOL    HW1 9951  10.682   5.993   3.924  0.9564  0.3180 -0.2674
30653SOL    HW2 9952  10.671   5.902   4.044 -0.4627  1.7109  0.6975
30654SOL     OW 9953  12.825   8.549  11.717  0.0736 -0.5599 -0.1282
30654SOL    HW1 9954  12.918   8.534  11.736  0.0347  0.6647  1.2290
30654SOL    HW2 9955  12.800   8.621  11.776 -1.9588 -1.4347  0.1523
30655SOL     OW 9956   4.747  11.979   8.225  0.2183 -0.4305 -0.5112
30655SOL    HW1 9957   4.679  11.914   8.241 -0.2449 -0.3718 -2.0573
30655SOL    HW2 9958   4.704  12.063   8.240  0.7507 -0.4445  1.2525
30656SOL     OW 9959   0.038   7.029   5.279 -0.2415  0.8005 -0.0067
30656SOL    HW1 9960   0.048   7.103   5.340 -1.7230 -0.4834  1.9099
30656SOL    HW2 9961  -0.043   7.048   5.232 -1.9959 -0.6404  2.2179
30657SOL     OW 9962   7.287   8.963  13.818  0.2950  0.5030 -0.0757
30657SOL    HW1 9963   7.260   8.958  13.726 -1.5175 -0.7211  0.4657
30657SOL    HW2 9964   7.360   8.902  13.825 -1.0975 -1.2929 -0.2729
30658SOL     OW 9965   1.657   6.409   0.320  0.0200  0.1417  0.2090
30658SOL    HW1 9966   1.698   6.338   0.270 -2.3241 -0.4584 -0.9996
30658SOL    HW2 9967   1.665   6.486   0.264  0.7877  0.3979  0.6488
30659SOL     OW 9968  12.486   1.621   7.282 -0.4266  0.0540  0.3299
30659SOL    HW1 9969  12.441   1.694   7.323 -0.5347  0.9772 -1.3598
30659SOL    HW2 9970  12.579   1.642   7.291 -0.4591  0.4271 -0.1983
30660SOL     OW 9971   9.197   0.970   8.289  0.2104 -0.0997  0.3246
30660SOL    HW1 9972   9.198   0.905   8.218  3.3429  1.1343 -0.9568
30660SOL    HW2 9973   9.122   1.027   8.268 -0.5393 -1.3072 -0.4252
30661SOL     OW 9974   9.826   0.555   7.996  0.4589  0.0782 -0.9033
30661SOL    HW1 9975   9.849   0.644   7.967  0.1875  0.5751  0.3448
30661SOL    HW2 9976   9.745   0.535   7.949  0.2397  0.7027 -0.8106
30662SOL     OW 9977   2.828  10.755   5.012  0.4536  0.0462 -0.4582
30662SOL    HW1 9978   2.905  10.810   5.027  1.5189 -1.4507 -0.1976
30662SOL    HW2 9979   2.856  10.667   5.036 -1.5640 -0.4470  0.2765
30663SOL     OW 9980   6.548   2.444   7.302 -0.0488 -0.2124  0.6148
30663SOL    HW1 9981   6.534   2.498   7.224  0.9742  1.4747  1.5423
30663SOL    HW2 9982   6.466   2.451   7.351 -0.5039 -0.8455 -0.0537
30664SOL     OW 9983  13.369   4.902   1.622 -0.2860  0.0761 -0.4268
30664SOL    HW1 9984  13.462   4.887   1.640 -0.8559 -1.4413  1.7122
30664SOL    HW2 9985  13.333   4.933   1.705 -1.7920  0.0349 -1.0299
30665SOL     OW 9986   0.509   7.789   0.888 -0.2346 -0.7088  0.1796
30665SOL    HW1 9987   0.494   7.705   0.931 -0.0489 -0.7602  0.1448
30665SOL    HW2 9988   0.423   7.814   0.854 -0.3011 -0.8592  0.2348
30666SOL     OW 9989  10.547  13.221   9.227  0.2613 -0.2062 -0.3618
30666SOL    HW1 9990  10.462  13.245   9.265 -0.4744 -0.6810 -1.6492
30666SOL    HW2 9991  10.611  13.259   9.287 -0.8096 -1.5371  1.7753
30667SOL     OW 9992   9.917  13.840   8.562 -0.0262 -0.4290 -0.3677
30667SOL    HW1 9993  10.006  13.873   8.550 -0.2059 -0.4002 -1.9140
30667SOL    HW2 9994   9.862  13.901   8.511 -1.0280 -0.0547  1.1020
30668SOL     OW 9995  13.281   8.119   8.073  0.4629 -0.4751  0.2330
30668SOL    HW1 9996  13.355   8.092   8.020  1.6215  0.4518  1.3272
30668SOL    HW2 9997  13.319   8.153   8.154 -0.9335  2.5095 -0.2043
30669SOL     OW 9998   7.755   7.163  12.918  0.4163 -0.4576 -0.6096
30669SOL    HW1 9999   7.673   7.172  12.967  1.1481 -0.7651  0.7017
30669SOL    HW210000   7.813   7.114  12.976  0.8964 -2.0173 -2.3056
30670SOL     OW10001   7.668  11.698   1.678  0.1814  0.0347  0.4365
30670SOL    HW110002   7.718  11.775   1.706 -0.3557  0.3943  0.4202
30670SOL    HW210003   7.692  11.630   1.741  2.8990 -0.6717 -1.2051
30671SOL     OW10004   7.493   5.000  13.715 -0.4807  0.2207 -0.3258
30671SOL    HW110005   7.555   5.053  13.666 -0.3681  0.7824  0.3949
30671SOL    HW210006   7.516   5.015  13.807 -1.1717 -0.1858 -0.0757
30672SOL     OW10007   3.231   0.104  11.858 -0.4699  0.0111  0.4464
30672SOL    HW110008   3.320   0.094  11.893 -1.1903  0.1355  2.4021
30672SOL    HW210009   3.237   0.179  11.799  0.7358 -0.0315  0.4927
30673SOL     OW10010   3.672   2.195  12.449 -0.1177 -0.2313 -0.0286
30673SOL    HW110011   3.609   2.258  12.415  0.0652 -0.6974 -1.2842
30673SOL    HW210012   3.644   2.180  12.539 -1.5990 -0.1875 -0.4508
30674SOL     OW10013   4.642  13.307   3.836 -0.3019  0.3928 -0.7876
30674SOL    HW110014   4.599  13.272   3.758  0.5013 -1.6881 -0.3657
30674SOL    HW210015   4.713  13.245   3.854  0.9140  2.0195  0.3330
30675SOL     OW10016   9.995  10.950   1.819  0.8459 -0.3365  1.1068
30675SOL    HW110017  10.050  10.872   1.828 -0.0196 -0.8856  1.7412
30675SOL    HW210018   9.952  10.939   1.734 -1.3024 -1.9242  2.2951
30676SOL     OW10019   4.847  11.387   5.867  0.1258  0.6684  0.1191
30676SOL    HW110020   4.932  11.431   5.857  0.4337 -0.1030 -0.7792
30676SOL    HW210021   4.846  11.358   5.958  0.1327  2.0625  0.5890
30677SOL     OW10022   1.003   5.511   9.829  0.6074  0.3368 -0.4123
30677SOL    HW110023   1.030   5.534   9.918  1.5039  1.4859 -0.9509
30677SOL    HW210024   1.081   5.526   9.776  0.4958 -1.6135 -1.2301
30678SOL     OW10025   1.464   3.542   8.680 -0.4279 -0.2958 -0.2612
30678SOL    HW110026   1.486   3.510   8.768 -2.3171 -2.3171 -0.4490
30678SOL    HW210027   1.380   3.585   8.691  0.1953  1.1224 -0.7940
30679SOL     OW10028  11.371  11.612   5.456 -0.4313  0.1992 -0.0120
30679SOL    HW110029  11.320  11.593   5.535  0.4905 -2.5211  0.0441
30679SOL    HW210030  11.445  11.664   5.487 -0.8554  0.4262  0.6515
30680SOL     OW10031   7.969  12.273   6.287 -0.5100  0.1898 -0.0917
30680SOL    HW110032   7.978  12.187   6.328 -0.5123 -0.3013 -1.0895
30680SOL    HW210033   7.994  12.335   6.356  1.9864 -0.6988 -0.1035
30681SOL     OW10034   7.645   7.608  10.030  0.0575  0.2342 -0.3173
30681SOL    HW110035   7.637   7.694  10.070 -0.0015 -0.0992  0.4016
30681SOL    HW210036   7.717   7.617   9.967  1.6764  0.2039  1.4509
30682SOL     OW10037   2.012   5.528   1.545 -0.2643  0.7130  0.3604
30682SOL    HW110038   2.085   5.529   1.607  0.0802  2.4187 -0.0177
30682SOL    HW210039   1.983   5.437   1.543  2.3207 -0.1553 -0.0356
30683SOL     OW10040  12.941   5.673   1.992  0.0889 -0.1753 -0.2463
30683SOL    HW110041  12.915   5.589   2.029  1.2241 -0.2380  0.4188
30683SOL    HW210042  13.036   5.669   1.985  0.0832  0.7069 -1.0744
30684SOL     OW10043  13.953   4.059   1.588  0.3410  0.5609  0.1357
30684SOL    HW110044  13.968   4.151   1.566 -2.5063  1.1766  0.3315
30684SOL    HW210045  13.938   4.017   1.503  4.0613 -0.4043 -0.2316
30685SOL     OW10046   7.178  11.567   7.286 -0.2987  0.2347  0.6230
30685SOL    HW110047   7.234  11.635   7.247 -0.8540  0.2007 -0.2638
30685SOL    HW210048   7.148  11.515   7.211  0.0759 -0.9689  1.2874
30686SOL     OW10049  11.305  13.484   5.118 -0.0683  0.3124  0.2829
30686SOL    HW110050  11.377  13.527   5.164  1.6330 -0.3813 -1.5406
30686SOL    HW210051  11.285  13.542   5.045 -1.9438  0.8652  1.1911
30687SOL     OW10052   8.405  10.171  11.714 -0.1851 -0.2467 -0.3206
30687SOL    HW110053   8.432  10.159  11.805  1.0629  1.5440 -0.3983
30687SOL    HW210054   8.319  10.214  11.721  0.3373  0.7659  0.0475
30688SOL     OW10055   7.713   5.648   4.192  0.0863 -0.3668 -0.2168
30688SOL    HW110056   7.702   5.741   4.212  0.9346 -0.3950  0.4490
30688SOL    HW210057   7.787   5.646   4.131  0.6645 -0.6725  0.4890
30689SOL     OW10058   1.874   2.184   7.853 -0.6010  0.0641 -0.2790
30689SOL    HW110059   1.840   2.270   7.828 -1.0413 -0.3619 -1.1736
30689SOL    HW210060   1.892   2.140   7.770  1.2934 -0.0676  0.1551
30690SOL     OW10061   4.573  10.762   8.722 -0.4490  0.3188 -0.1483
30690SOL    HW110062   4.592  10.714   8.641 -2.4430  0.1539 -0.5746
30690SOL    HW210063   4.507  10.827   8.697 -2.8549 -1.2316  1.7047
30691SOL     OW10064  11.312   6.759  13.887  0.2570  0.8487  0.1146
30691SOL    HW110065  11.366   6.680  13.897 -1.1979 -0.0122  1.5415
30691SOL    HW210066  11.278   6.754  13.798 -0.2088 -0.4173  0.3483
30692SOL     OW10067   8.090   0.154   2.445 -0.0997 -0.0121  0.2758
30692SOL    HW110068   8.053   0.175   2.531 -0.0877  0.2915  0.2089
30692SOL    HW210069   8.040   0.079   2.415  0.3007 -0.5022  0.8137
30693SOL     OW10070   7.399   5.864   5.159 -0.2612 -0.3505 -0.0055
30693SOL    HW110071   7.339   5.925   5.116  0.7122 -1.0363 -2.4791
30693SOL    HW210072   7.401   5.894   5.250 -1.6590  1.8113 -0.5936
30694SOL     OW10073  12.413  10.224   7.416  0.2038 -0.1960 -0.1044
30694SOL    HW110074  12.403  10.129   7.415  2.7260 -0.5563 -2.3780
30694SOL    HW210075  12.492  10.240   7.468  0.6716  0.4816 -0.9831
30695SOL     OW10076   1.729  11.404   3.607  0.2071 -0.1450  0.1124
30695SOL    HW110077   1.642  11.423   3.643  0.5539  0.4705  0.6492
30695SOL    HW210078   1.779  11.485   3.620  0.6551 -0.2531 -0.8361
30696SOL     OW10079  11.162   4.282   6.739  0.3213  0.8443 -0.1369
30696SOL    HW110080  11.242   4.271   6.687  1.8003 -0.2981  2.2129
30696SOL    HW210081  11.102   4.216   6.705  1.1623  0.2812 -0.5758
30697SOL     OW10082   2.082   4.668   1.789  0.5053 -0.1909  0.3989
30697SOL    HW110083   2.051   4.742   1.840  1.2497  0.3963  0.0134
30697SOL    HW210084   2.112   4.605   1.855 -0.4739 -0.3205  0.7392
30698SOL     OW10085   3.159   1.933   3.844 -0.3607  0.6276  0.3068
30698SOL    HW110086   3.206   1.991   3.784  1.9621 -2.8129 -1.5163
30698SOL    HW210087   3.228   1.886   3.891 -2.0630 -1.1616  1.1832
30699SOL     OW10088   8.351  12.029   6.306 -0.3672 -0.1719 -0.1445
30699SOL    HW110089   8.425  12.015   6.365  0.0864  1.9085 -0.1341
30699SOL    HW210090   8.389  12.068   6.228 -1.4203  0.8798 -0.1642
30700SOL     OW10091  11.519  12.707   4.310  0.1737 -0.2611 -0.5283
30700SOL    HW110092  11.564  12.644   4.367 -0.6831 -0.6688 -0.2760
30700SOL    HW210093  11.496  12.779   4.367  3.0416  1.3563 -1.2347
30701SOL     OW10094  13.627   1.640   9.213 -0.0603  0.4625  0.3371
30701SOL    HW110095  13.592   1.720   9.173  0.2417  0.2335 -0.4027
30701SOL    HW210096  13.549   1.596   9.248 -0.3837  0.4915 -0.3238
30702SOL     OW10097   4.368   1.580  10.550 -0.3573  0.5795 -0.1816
30702SOL    HW110098   4.458   1.560  10.575 -1.0253 -0.6150  1.4722
30702SOL    HW210099   4.359   1.543  10.462  1.2660  2.3968 -1.1750
30703SOL     OW10100  13.316   8.392   6.268  0.0020  0.1866  0.3110
30703SOL    HW110101  13.373   8.462   6.236  0.1555  1.2622  2.7588
30703SOL    HW210102  13.370   8.344   6.331 -1.8582  1.6592  3.2428
30704SOL     OW10103  13.650   7.616   7.395 -0.1650  0.1143 -0.0683
30704SOL    HW110104  13.679   7.653   7.312  0.0927  1.0105  0.4098
30704SOL    HW210105  13.671   7.523   7.389 -1.0141 -0.0077 -1.3797
30705SOL     OW10106   3.098   5.374  13.366 -0.1315 -0.1459 -0.4140
30705SOL    HW110107   3.173   5.323  13.337 -0.9807 -1.7198  0.0460
30705SOL    HW210108   3.036   5.371  13.293 -0.1098  0.4004 -0.4598
30706SOL     OW10109  13.255   5.750   7.594 -0.3643  0.3599 -0.7143
30706SOL    HW110110  13.345   5.718   7.590 -0.0969  1.0843 -0.5872
30706SOL    HW210111  13.246   5.805   7.516  0.3067  2.8067  0.8231
30707SOL     OW10112  11.079  12.522   7.846 -0.1784 -0.0562 -0.8536
30707SOL    HW110113  11.106  12.452   7.787 -1.1402 -0.6392 -0.6351
30707SOL    HW210114  11.115  12.498   7.931  0.2036  0.1623 -0.9517
30708SOL     OW10115   9.828   3.119   9.723 -0.1848  0.8635  0.3318
30708SOL    HW110116   9.897   3.103   9.659 -1.4677 -0.5395 -0.7595
30708SOL    HW210117   9.758   3.160   9.673 -0.7207  0.9369  1.1199
30709SOL     OW10118   3.205   9.175   0.082 -0.2206  0.0484  0.4345
30709SOL    HW110119   3.197   9.143   0.172 -0.5383 -0.3518  0.2705
30709SOL    HW210120   3.268   9.246   0.087 -0.4569  0.2256  1.0262
30710SOL     OW10121   8.603  11.012   6.967 -0.5039  0.0029  0.3602
30710SOL    HW110122   8.568  10.949   7.029 -0.5993 -1.6249 -1.2654
30710SOL    HW210123   8.534  11.024   6.903  0.7127 -0.8965 -1.2060
30711SOL     OW10124   3.128  11.352   8.827 -0.1640  0.4023 -0.0884
30711SOL    HW110125   3.038  11.385   8.830  0.0666  0.9324  2.0282
30711SOL    HW210126   3.173  11.399   8.897  1.1319 -1.6967  0.5591
30712SOL     OW10127   8.971  11.814   2.277 -0.4499  0.6327 -0.3432
30712SOL    HW110128   9.052  11.774   2.246  0.6340  1.8369  0.8115
30712SOL    HW210129   8.964  11.788   2.368 -0.5958  1.6820 -0.0378
30713SOL     OW10130   6.043   6.889   7.707  0.2573  0.0369  0.2608
30713SOL    HW110131   6.061   6.907   7.615  0.3535 -0.7957  0.1047
30713SOL    HW210132   5.965   6.940   7.728 -0.3642 -0.5621 -0.5639
30714SOL     OW10133   0.662   3.244   8.764  0.2911 -0.1833 -0.2887
30714SOL    HW110134   0.741   3.257   8.817 -0.2219 -0.8031  0.6690
30714SOL    HW210135   0.685   3.172   8.705  0.7084  0.1936 -0.5956
30715SOL     OW10136  11.505  10.579   0.732 -0.1911 -0.2484  0.2491
30715SOL    HW110137  11.556  10.591   0.812  0.3596 -0.1181 -0.1129
30715SOL    HW210138  11.566  10.537   0.671 -0.7023 -0.6358  0.0003
30716SOL     OW10139   9.258   5.594   5.457  0.1169 -0.4246  0.1007
30716SOL    HW110140   9.255   5.643   5.375 -0.4832  0.2703  0.5229
30716SOL    HW210141   9.322   5.524   5.441  2.3677  1.5372  0.0708
30717SOL     OW10142   5.517   3.955   9.579 -0.1390  0.4163 -0.3275
30717SOL    HW110143   5.592   4.000   9.539 -1.2177  1.6754 -0.9934
30717SOL    HW210144   5.502   4.004   9.660 -1.5359  1.5618 -1.2248
30718SOL     OW10145   5.107  12.037   6.661 -0.0362  0.6075 -0.2769
30718SOL    HW110146   5.077  12.048   6.571 -1.0404  2.8859  0.2579
30718SOL    HW210147   5.031  12.060   6.715  0.7791  0.0666  1.1615
30719SOL     OW10148  13.011  13.960   4.308 -0.2430  0.0489 -0.1117
30719SOL    HW110149  13.049  13.903   4.375  2.1584  2.9790  1.2522
30719SOL    HW210150  13.044  13.927   4.225 -1.0525 -2.0210  0.3439
30720SOL     OW10151  10.345   3.096   3.189 -0.2681 -0.1863  0.2323
30720SOL    HW110152  10.387   3.039   3.125 -0.4468 -0.2865  0.2048
30720SOL    HW210153  10.255   3.106   3.158 -0.0244  0.7508 -0.1918
30721SOL     OW10154   1.269   7.368   4.588 -0.4856  0.1165  0.5640
30721SOL    HW110155   1.207   7.355   4.659 -0.5773 -0.5354  0.3697
30721SOL    HW210156   1.333   7.430   4.623  0.1708 -1.1276  1.6667
30722SOL     OW10157   5.258   3.200   5.558  0.3920 -0.1426  0.9209
30722SOL    HW110158   5.314   3.158   5.494 -0.3299  0.8740 -0.4401
30722SOL    HW210159   5.287   3.292   5.559  0.9489 -0.2868  2.7075
30723SOL     OW10160   8.493  10.024  10.972 -0.0089  0.0746  0.0234
30723SOL    HW110161   8.429  10.079  10.927  0.9447  1.9432  0.8436
30723SOL    HW210162   8.481  10.044  11.065  0.6972 -0.7526  0.3090
30724SOL     OW10163   2.845  10.541   6.650  0.3140  0.5577 -0.0082
30724SOL    HW110164   2.921  10.550   6.708  0.7299  0.2686 -0.4993
30724SOL    HW210165   2.842  10.447   6.629 -0.2451  0.5507  0.0965
30725SOL     OW10166  12.082   5.263   2.937  0.0615  0.3365 -0.0114
30725SOL    HW110167  12.034   5.259   3.019  0.0962  0.5750  0.0194
30725SOL    HW210168  12.014   5.274   2.870 -0.0186 -0.4607 -0.0745
30726SOL     OW10169  10.451   5.929   2.506 -0.2182 -0.1387 -0.0251
30726SOL    HW110170  10.493   5.946   2.590  0.2772  0.7060 -0.4294
30726SOL    HW210171  10.382   5.866   2.526 -0.4666  0.4640  1.1130
30727SOL     OW10172   3.492   8.412  12.102 -0.1695 -0.0257 -0.3740
30727SOL    HW110173   3.527   8.426  12.190 -0.1717  0.9264 -0.5240
30727SOL    HW210174   3.562   8.366  12.056  0.4585  0.8854 -0.3461
30728SOL     OW10175   6.752  12.252   1.904  0.1802 -0.2934 -0.5276
30728SOL    HW110176   6.813  12.196   1.856  0.9881  0.6016 -0.5716
30728SOL    HW210177   6.719  12.196   1.974  3.1187 -0.1222  1.1845
30729SOL     OW10178  13.170  11.143  12.972  0.0107 -0.0129  0.0382
30729SOL    HW110179  13.248  11.197  12.964  1.5924 -2.1262  0.3866
30729SOL    HW210180  13.203  11.054  12.984 -2.4582 -1.0269 -0.0235
30730SOL     OW10181   1.513   3.265  11.559  0.1718 -0.2589  0.2030
30730SOL    HW110182   1.482   3.241  11.646 -0.0543  0.0880  0.2191
30730SOL    HW210183   1.536   3.182  11.518  0.6477 -0.3935  0.7322
30731SOL     OW10184   5.646   5.347  13.818 -0.3876 -0.0423 -0.1457
30731SOL    HW110185   5.566   5.393  13.845  0.4730  0.8153  1.0289
30731SOL    HW210186   5.708   5.417  13.800  0.2881 -0.7177 -0.4646
30732SOL     OW10187   7.793  10.702   4.191 -0.2149 -0.1826 -0.2844
30732SOL    HW110188   7.729  10.669   4.127  0.6416 -0.2384 -1.1310
30732SOL    HW210189   7.798  10.795   4.173 -0.6866 -0.0305  0.3556
30733SOL     OW10190   3.590  12.963   4.824 -0.2637 -0.3255  0.0846
30733SOL    HW110191   3.618  12.946   4.914 -0.6960 -4.0350 -0.3235
30733SOL    HW210192   3.641  13.039   4.797 -1.0897  1.8313  3.7984
30734SOL     OW10193  10.973   7.488   0.454  0.1213  0.1893  0.0377
30734SOL    HW110194  10.985   7.543   0.377 -0.0910 -1.7952 -1.5081
30734SOL    HW210195  10.942   7.404   0.418 -0.2850 -0.6982  2.3183
30735SOL     OW10196  13.429   6.559  11.605 -0.5627 -0.4456  0.1705
30735SOL    HW110197  13.424   6.544  11.699 -0.3701  1.4074  0.5130
30735SOL    HW210198  13.485   6.636  11.596 -0.6382 -0.5427 -1.4637
30736SOL     OW10199   4.272   4.228  12.632 -0.3037  0.4221  0.2878
30736SOL    HW110200   4.222   4.150  12.606 -0.6755  0.6662  0.2546
30736SOL    HW210201   4.232   4.255  12.715  1.4095 -0.8328  1.5683
30737SOL     OW10202   7.726   0.241   1.867 -0.1388 -0.3080 -0.6174
30737SOL    HW110203   7.798   0.202   1.917 -0.3045  0.3857  0.1949
30737SOL    HW210204   7.765   0.265   1.783  0.3939 -0.6294 -0.4673
30738SOL     OW10205   7.598   7.628   9.702  0.0073 -0.1459 -0.6720
30738SOL    HW110206   7.609   7.535   9.722 -1.6453 -0.5110 -1.3401
30738SOL    HW210207   7.659   7.672   9.761  0.3644 -1.6083  0.1034
30739SOL     OW10208   5.318   1.628  11.104 -0.3328  0.4247 -0.0904
30739SOL    HW110209   5.340   1.671  11.187 -1.1546 -0.9497  0.8956
30739SOL    HW210210   5.314   1.699  11.040  1.5521  1.3785  0.7638
30740SOL     OW10211  12.128   3.934   3.136 -0.6929  0.0486 -0.4167
30740SOL    HW110212  12.214   3.918   3.173 -1.3926  1.8017  2.1901
30740SOL    HW210213  12.145   3.972   3.050  1.0484 -1.2741 -0.7111
30741SOL     OW10214  12.319  11.173   3.795  0.2127  0.9745 -0.0845
30741SOL    HW110215  12.343  11.200   3.706  0.2753 -1.1279 -0.7417
30741SOL    HW210216  12.358  11.240   3.851  1.1052  1.7513 -1.5667
30742SOL     OW10217   1.442   3.999  12.432  0.2879  0.1802 -0.2916
30742SOL    HW110218   1.518   3.942  12.420  0.3263  0.1241  0.1980
30742SOL    HW210219   1.374   3.941  12.467  0.5466  0.5624  0.9101
30743SOL     OW10220   5.586   4.305  12.720  0.1095  0.3675  0.2460
30743SOL    HW110221   5.645   4.279  12.791  0.0084 -0.9543 -0.1192
30743SOL    HW210222   5.498   4.295  12.758  0.0786  0.5481  0.2205
30744SOL     OW10223  10.138  13.461   3.862  0.0872  0.3090  0.2396
30744SOL    HW110224  10.168  13.436   3.775 -0.8989  0.3071 -0.1104
30744SOL    HW210225  10.213  13.505   3.901  0.4488  0.5782 -0.7249
30745SOL     OW10226   2.867  12.459  14.039 -0.4277  0.1785 -0.7621
30745SOL    HW110227   2.924  12.530  14.010 -1.8845  1.1555 -1.3985
30745SOL    HW210228   2.839  12.486  14.126  0.2999 -0.4465 -0.3282
30746SOL     OW10229   5.446   0.810   6.438  0.5577 -0.0161  0.3538
30746SOL    HW110230   5.448   0.722   6.400  0.2536  0.9912 -2.1772
30746SOL    HW210231   5.406   0.865   6.371 -1.0551  1.7763  2.5995
30747SOL     OW10232   7.879   1.363   7.688  0.3241 -0.0877 -0.2920
30747SOL    HW110233   7.911   1.296   7.628  0.7931 -1.4592  1.4155
30747SOL    HW210234   7.784   1.356   7.683  0.3674 -0.9213 -0.1167
30748SOL     OW10235   5.838   4.186   8.246 -0.1845 -0.4636  0.3931
30748SOL    HW110236   5.868   4.269   8.284 -0.9580  0.5565 -1.1098
30748SOL    HW210237   5.815   4.132   8.322  0.9108  0.4589  1.4222
30749SOL     OW10238   3.513   6.487  11.028  0.0035 -0.4836 -0.7013
30749SOL    HW110239   3.427   6.525  11.044  0.8717  1.7050 -0.9307
30749SOL    HW210240   3.521   6.486  10.933 -0.0284 -1.3669 -0.7045
30750SOL     OW10241   3.785   9.096   7.663  0.6348 -0.3397 -0.2345
30750SOL    HW110242   3.724   9.141   7.604 -0.2100  2.0912  2.2625
30750SOL    HW210243   3.870   9.136   7.646  0.3825  0.3947  0.2002
30751SOL     OW10244   0.478   2.418   7.601 -0.0830  0.3850  0.4886
30751SOL    HW110245   0.395   2.418   7.553  0.2359  1.5618 -0.0991
30751SOL    HW210246   0.467   2.486   7.668  0.3867  0.5115  0.4378
30752SOL     OW10247   4.003  10.243   3.320 -0.0583  0.2107 -0.4176
30752SOL    HW110248   4.058  10.192   3.380 -0.4139  0.3352  0.0236
30752SOL    HW210249   4.005  10.195   3.238 -0.1481 -0.3547 -0.0948
30753SOL     OW10250  13.708  12.810  10.521  0.1181  0.3791  0.5376
30753SOL    HW110251  13.667  12.872  10.582  0.8390  1.5722 -0.1363
30753SOL    HW210252  13.636  12.772  10.472 -0.3460  0.6816  0.9794
30754SOL     OW10253  10.613   3.938   1.758 -0.3757 -0.3166 -0.0571
30754SOL    HW110254  10.590   3.959   1.849  0.5794 -3.0023  0.9018
30754SOL    HW210255  10.536   3.965   1.707 -0.6228  1.9711  1.3962
30755SOL     OW10256   4.490  10.555   6.649 -0.3998 -0.1168 -0.0997
30755SOL    HW110257   4.512  10.520   6.735 -2.9872  3.4898  2.3112
30755SOL    HW210258   4.547  10.631   6.639 -2.1125  1.2129 -0.1124
30756SOL     OW10259   5.592   2.245  13.335  0.1788  0.1435  0.2633
30756SOL    HW110260   5.577   2.306  13.262  1.6432 -0.7580 -0.8579
30756SOL    HW210261   5.659   2.288  13.388  0.3086  0.0635  0.1644
30757SOL     OW10262   1.401   6.040   7.551 -0.3490 -0.1714 -0.8609
30757SOL    HW110263   1.427   6.131   7.565 -0.7294 -0.0906 -0.6821
30757SOL    HW210264   1.327   6.045   7.491 -0.6918 -0.3303 -0.4575
30758SOL     OW10265  10.845   1.813  10.482 -0.4383 -0.2029  0.4858
30758SOL    HW110266  10.886   1.751  10.542  1.1312  0.6604  0.3728
30758SOL    HW210267  10.909   1.884  10.474 -0.4835 -0.3436 -2.3115
30759SOL     OW10268   3.473  13.117   7.141 -0.5268  0.5728  0.3150
30759SOL    HW110269   3.563  13.123   7.174 -0.3650  0.4248 -0.1043
30759SOL    HW210270   3.476  13.155   7.054 -0.7097 -0.1539 -0.0160
30760SOL     OW10271   9.818   4.610  10.088 -0.1172  0.3666 -0.1168
30760SOL    HW110272   9.812   4.514  10.087 -2.0740  0.4511 -1.1617
30760SOL    HW210273   9.748   4.637  10.148 -1.2965  1.1737 -1.7720
30761SOL     OW10274   1.641  13.864   2.550 -0.6126  0.0909 -0.2655
30761SOL    HW110275   1.645  13.786   2.496  1.2408 -0.1081  0.1181
30761SOL    HW210276   1.719  13.914   2.527 -0.3321  0.5059  1.4512
30762SOL     OW10277  12.928  12.633   8.768 -0.4887  0.2107 -0.0076
30762SOL    HW110278  12.840  12.620   8.733 -0.7668 -0.2351  0.8198
30762SOL    HW210279  12.939  12.729   8.772 -1.2645  0.2780  0.6716
30763SOL     OW10280   1.943   1.939  12.754  0.1533  0.4815  0.2257
30763SOL    HW110281   1.864   1.964  12.802  1.4548  2.6830  1.4078
30763SOL    HW210282   2.013   1.944  12.820  1.3857 -0.8116 -0.9213
30764SOL     OW10283   5.202   1.401  13.859 -0.6772 -0.0812 -0.1861
30764SOL    HW110284   5.116   1.364  13.839  0.1036 -1.3269 -1.5614
30764SOL    HW210285   5.214   1.386  13.952 -1.1009 -1.9121 -0.3785
30765SOL     OW10286   0.294   3.029  10.685 -0.4751  0.5872  0.2205
30765SOL    HW110287   0.269   3.077  10.606  1.2141 -0.4930 -1.0490
30765SOL    HW210288   0.369   3.078  10.719  1.3338 -1.0744 -1.1464
30766SOL     OW10289  13.733   4.217   0.672  0.2246  0.0804  0.3663
30766SOL    HW110290  13.661   4.213   0.736 -0.3058 -0.3691 -0.2479
30766SOL    HW210291  13.704   4.281   0.608  0.5406  0.1693  0.3102
30767SOL     OW10292   3.835  13.167  13.703 -0.3484 -0.1778  0.1397
30767SOL    HW110293   3.809  13.112  13.777 -2.1590  1.5852  0.8950
30767SOL    HW210294   3.890  13.235  13.742 -0.6977  0.3273 -0.2384
30768SOL     OW10295   7.886   8.044  13.391 -0.2467 -0.4251 -0.5434
30768SOL    HW110296   7.939   7.973  13.427  0.5669  0.7220  0.5880
30768SOL    HW210297   7.882   8.026  13.297  1.6698 -0.8576 -0.5634
30769SOL     OW10298   5.985   9.086   9.204  0.4104 -1.0545 -1.0700
30769SOL    HW110299   5.932   9.035   9.265  0.3494  1.1547  0.8815
30769SOL    HW210300   6.072   9.089   9.245  0.4185  0.3278 -1.1331
30770SOL     OW10301   5.366   4.286   7.911  0.3962  0.2194  0.3098
30770SOL    HW110302   5.455   4.314   7.933  0.8408 -1.1861  0.4046
30770SOL    HW210303   5.361   4.294   7.816  0.8997 -0.3868  0.2201
30771SOL     OW10304   9.101   7.038  11.249  0.2386  0.2196  0.2842
30771SOL    HW110305   9.080   7.064  11.338 -0.7303  0.9432 -0.1436
30771SOL    HW210306   9.051   6.957  11.235 -0.6008  0.7793 -0.0103
30772SOL     OW10307   2.618   7.247   8.911  0.2708  0.0276 -0.2074
30772SOL    HW110308   2.631   7.236   8.817  1.6898 -0.0649 -0.0341
30772SOL    HW210309   2.707   7.245   8.948 -0.1730  1.1400  1.0127
30773SOL     OW10310  10.759  12.393   0.428 -0.1871 -0.4131  0.9144
30773SOL    HW110311  10.736  12.376   0.519  1.3274  3.1482  2.1254
30773SOL    HW210312  10.855  12.390   0.426 -0.2038 -2.7153 -1.1874
30774SOL     OW10313   9.285   1.310  10.699  0.1277  0.4586 -0.0716
30774SOL    HW110314   9.324   1.321  10.786 -0.4333  1.4937  0.0610
30774SOL    HW210315   9.348   1.350  10.639  0.1973  0.3553 -0.0664
30775SOL     OW10316   8.691   7.383   2.248  0.1229  0.3447  0.6287
30775SOL    HW110317   8.660   7.363   2.336  0.6786 -4.4903 -0.0017
30775SOL    HW210318   8.625   7.346   2.190  1.6995 -0.2544 -0.8759
30776SOL     OW10319   7.951  11.148  11.712 -0.2141 -0.6037  0.3180
30776SOL    HW110320   8.021  11.193  11.664 -0.6692 -1.3279 -1.0651
30776SOL    HW210321   7.993  11.119  11.793  0.5998  0.5563  0.3346
30777SOL     OW10322   1.561   4.744   9.451  0.2164  0.0359 -0.2411
30777SOL    HW110323   1.613   4.762   9.530 -0.1518 -1.3276  0.3381
30777SOL    HW210324   1.480   4.707   9.484  0.8805 -2.5715 -1.3066
30778SOL     OW10325   2.442  11.755  14.043  0.4868  0.3549  0.5282
30778SOL    HW110326   2.397  11.672  14.056  0.1154  0.4539 -0.0722
30778SOL    HW210327   2.521  11.734  13.993  0.4555  0.3448  0.4827
30779SOL     OW10328   8.080   6.741   1.060  0.1456  0.4860 -0.0506
30779SOL    HW110329   8.033   6.782   0.987  0.1327 -2.2035 -1.7056
30779SOL    HW210330   8.158   6.796   1.072 -1.1796  2.5205 -0.2108
30780SOL     OW10331   4.584  13.800  11.006 -0.0007  0.2664 -0.3281
30780SOL    HW110332   4.500  13.753  11.004 -0.0682  0.3610  0.1726
30780SOL    HW210333   4.562  13.886  11.041  0.0493  0.8381 -1.6550
30781SOL     OW10334   4.776   5.166   8.890 -0.5407 -0.1858 -0.0930
30781SOL    HW110335   4.713   5.101   8.859 -0.8657  0.0273  0.1181
30781SOL    HW210336   4.724   5.228   8.941  0.0204 -0.7638  1.2560
30782SOL     OW10337   3.877   2.622   0.379  0.5210  0.1364 -0.3733
30782SOL    HW110338   3.905   2.678   0.307  0.4642  1.3960  0.5497
30782SOL    HW210339   3.786   2.647   0.394 -0.4786 -2.2343 -1.7830
30783SOL     OW10340  12.304   5.350  10.968 -0.4317  0.1199  0.4671
30783SOL    HW110341  12.365   5.421  10.949 -0.8263 -0.0981 -1.9678
30783SOL    HW210342  12.359   5.272  10.975 -0.3328 -0.0461 -1.5334
30784SOL     OW10343   1.546   3.235   2.667  0.3148  0.3008  0.2339
30784SOL    HW110344   1.636   3.257   2.694  0.7839  3.0299 -2.9342
30784SOL    HW210345   1.494   3.310   2.694 -1.2872 -1.4599  2.4719
30785SOL     OW10346   0.704  13.282   5.210  0.1083  0.3673  0.1630
30785SOL    HW110347   0.694  13.201   5.261  0.2831  0.7054  0.7466
30785SOL    HW210348   0.631  13.281   5.149  0.7599 -0.8052 -0.6380
30786SOL     OW10349   5.851   9.918   9.655  0.4591  0.1138  0.0935
30786SOL    HW110350   5.919   9.853   9.674  0.5456  0.0440 -0.4243
30786SOL    HW210351   5.779   9.895   9.712  0.5013 -0.4240 -0.0609
30787SOL     OW10352  11.070   5.008   2.541 -0.5452 -0.0259  0.5860
30787SOL    HW110353  11.002   5.026   2.606 -0.4698  0.5921  0.5003
30787SOL    HW210354  11.151   5.041   2.580 -0.6077  1.0045 -0.0866
30788SOL     OW10355   8.224   9.207  11.334  0.2485 -0.2262  0.2281
30788SOL    HW110356   8.299   9.168  11.291  0.9716 -0.2788  1.4921
30788SOL    HW210357   8.235   9.186  11.427 -2.3970 -2.0370  0.2434
30789SOL     OW10358   7.164   0.105   0.914 -0.8406  0.3019  1.0086
30789SOL    HW110359   7.230   0.037   0.902 -1.6591 -0.3542  0.0676
30789SOL    HW210360   7.125   0.085   0.999 -1.4768 -0.7967  0.4875
30790SOL     OW10361  13.840  11.194   5.106 -0.0539  0.3261 -0.2721
30790SOL    HW110362  13.870  11.154   5.024 -0.8164 -0.1912 -0.3118
30790SOL    HW210363  13.913  11.182   5.166  0.6753  1.0771 -0.9808
30791SOL     OW10364   3.534   9.286   4.912  0.1224 -0.3039  0.0960
30791SOL    HW110365   3.600   9.332   4.862  1.2131 -0.6293  1.1958
30791SOL    HW210366   3.462   9.349   4.921  0.8111  0.5020 -0.0072
30792SOL     OW10367   1.147  12.555   2.420  0.0042 -0.2051 -0.4150
30792SOL    HW110368   1.136  12.548   2.325 -0.7057 -1.2790 -0.2689
30792SOL    HW210369   1.057  12.558   2.454  0.2525 -0.1714  0.2506
30793SOL     OW10370   1.977  13.738  11.608 -0.3261  0.0773  0.0755
30793SOL    HW110371   1.897  13.702  11.569  0.4191  0.5082 -1.9965
30793SOL    HW210372   2.027  13.661  11.636 -1.2142 -0.2130  0.9344
30794SOL     OW10373   3.966   8.516   7.526 -0.3113  0.3303  0.0440
30794SOL    HW110374   4.034   8.451   7.537  0.2274  0.5496 -1.6329
30794SOL    HW210375   3.977   8.576   7.599 -0.7263 -1.3246  1.5338
30795SOL     OW10376   4.466   4.605   5.831 -0.7636  0.0368  0.1044
30795SOL    HW110377   4.431   4.547   5.762 -2.5997 -0.9788  1.7994
30795SOL    HW210378   4.401   4.674   5.840 -0.5924  0.0964  0.9093
30796SOL     OW10379  10.482   6.130   0.409 -0.3729  0.2077  0.2066
30796SOL    HW110380  10.446   6.157   0.493  1.2575 -0.0298  1.0264
30796SOL    HW210381  10.416   6.072   0.371 -0.4251 -1.0544  2.1153
30797SOL     OW10382   8.627   1.919   7.281 -0.0511  0.0839 -0.4988
30797SOL    HW110383   8.688   1.875   7.340  0.6697 -0.3204 -1.5072
30797SOL    HW210384   8.622   2.009   7.313  0.8472  0.0467 -0.2198
30798SOL     OW10385   6.114   9.554   7.996 -0.3780  0.0913  0.3775
30798SOL    HW110386   6.069   9.511   8.069 -0.3327 -1.5781 -0.5152
30798SOL    HW210387   6.066   9.635   7.981 -0.4263  0.4380  2.1980
30799SOL     OW10388  13.948  12.001   2.659  0.1984  0.5867 -0.0940
30799SOL    HW110389  14.037  11.975   2.679 -0.5220 -1.4292  0.7165
30799SOL    HW210390  13.907  11.923   2.622 -0.9773  1.7478 -1.3519
30800SOL     OW10391  10.095   8.686   1.293 -1.0054 -0.1508  0.4363
30800SOL    HW110392  10.172   8.635   1.320 -0.9522 -1.1165 -1.3656
30800SOL    HW210393  10.126   8.776   1.290 -0.4903 -0.2688  1.6073
30801SOL     OW10394   5.384  10.484  13.126  0.1203  0.5420  0.3902
30801SOL    HW110395   5.296  10.461  13.155 -0.6183  1.4212 -1.0642
30801SOL    HW210396   5.437  10.480  13.205 -0.9461 -1.2640  1.0732
30802SOL     OW10397   5.779  12.930   0.265 -0.1931 -0.2517 -0.2810
30802SOL    HW110398   5.832  13.006   0.243  1.3218 -1.1761  0.0476
30802SOL    HW210399   5.689  12.959   0.251  0.2966  1.7773  0.3795
30803SOL     OW10400  12.012   9.797  11.459  0.0902  0.3650  0.6591
30803SOL    HW110401  11.970   9.882  11.444  1.4357  1.0341  0.6094
30803SOL    HW210402  12.009   9.754  11.373  0.0143  0.6399  0.5217
30804SOL     OW10403   6.882  11.935   6.151  0.0323  0.1738 -0.2917
30804SOL    HW110404   6.859  12.025   6.174  1.4960  0.1279  1.6179
30804SOL    HW210405   6.970  11.943   6.113  1.3854 -0.6380  2.4241
30805SOL     OW10406   2.573  11.495   4.613  0.0629 -0.8826  0.0708
30805SOL    HW110407   2.539  11.580   4.641  0.2663 -1.1287  1.1119
30805SOL    HW210408   2.497  11.450   4.577 -0.0968 -0.3558 -0.2671
30806SOL     OW10409   6.595   0.843   8.743  0.4034 -0.3972 -0.0100
30806SOL    HW110410   6.635   0.928   8.759  2.1922 -1.3405  0.8499
30806SOL    HW210411   6.559   0.849   8.655  2.1486  0.6431 -0.6937
30807SOL     OW10412   2.005   6.887  13.628 -0.4425 -0.0907 -0.2256
30807SOL    HW110413   2.038   6.798  13.634 -2.2653 -0.9344 -1.5710
30807SOL    HW210414   2.083   6.942  13.620  0.7719 -1.4059  1.7963
30808SOL     OW10415   9.682   9.334  10.859  0.1386 -0.0224  0.2124
30808SOL    HW110416   9.638   9.377  10.932  0.8279  1.8613 -0.4278
30808SOL    HW210417   9.771   9.318  10.891  0.9381  2.2767 -0.6721
30809SOL     OW10418   3.776   9.995  12.068 -0.1199 -0.1196  0.1559
30809SOL    HW110419   3.701  10.045  12.100 -0.3498 -0.4191  0.0870
30809SOL    HW210420   3.852  10.044  12.099 -0.3417 -0.0795  0.6480
30810SOL     OW10421   6.814   3.865  11.744 -0.2812  0.2136 -0.1531
30810SOL    HW110422   6.900   3.867  11.703 -1.2355  1.3025 -2.2807
30810SOL    HW210423   6.758   3.820  11.680 -1.5399  0.5879  0.6468
30811SOL     OW10424   2.077  10.348   1.419  0.5333 -0.2195  0.4953
30811SOL    HW110425   2.024  10.312   1.491  0.6858  1.8749  1.7418
30811SOL    HW210426   2.013  10.387   1.359  0.3793 -2.2784 -0.7758
30812SOL     OW10427  12.246   6.322   4.729 -0.2864  0.5073 -0.8587
30812SOL    HW110428  12.206   6.397   4.772 -1.8874 -0.4939 -0.5131
30812SOL    HW210429  12.174   6.281   4.681 -0.0901 -2.1888  0.9168
30813SOL     OW10430   7.821   2.934   5.385  0.0385  0.4254  0.9225
30813SOL    HW110431   7.725   2.936   5.393 -0.0677 -0.5732  0.1371
30813SOL    HW210432   7.852   2.997   5.450 -1.2020  1.8172  0.2529
30814SOL     OW10433   8.167   5.932  12.392  0.3063 -0.3035  0.0232
30814SOL    HW110434   8.141   5.982  12.315  1.2906  0.7827  0.3817
30814SOL    HW210435   8.162   5.840  12.364 -0.2134  0.0394 -1.0425
30815SOL     OW10436   3.497  11.932   0.402  0.1786 -0.1067  0.5040
30815SOL    HW110437   3.488  11.882   0.321  0.8884 -1.5960  1.3005
30815SOL    HW210438   3.495  12.023   0.374 -1.4161 -0.5379 -0.9816
30816SOL     OW10439  10.644  12.733  10.124 -0.3060  0.2840 -0.4852
30816SOL    HW110440  10.673  12.780  10.046  0.5848  0.6949  0.0884
30816SOL    HW210441  10.628  12.644  10.093 -0.3416  0.5352 -1.2158
30817SOL     OW10442   3.946  11.431  11.002 -0.6043  0.1043 -0.2634
30817SOL    HW110443   3.918  11.339  11.009 -1.9101  0.5216  0.3562
30817SOL    HW210444   3.891  11.467  10.932 -1.0467  0.7319  0.3934
30818SOL     OW10445   1.416  13.171  12.698  0.4354 -0.0372 -0.3452
30818SOL    HW110446   1.444  13.226  12.625  1.0160 -0.5763 -0.5312
30818SOL    HW210447   1.493  13.119  12.721  0.0702 -0.3395  0.2290
30819SOL     OW10448   8.729   3.694   9.262  0.0858  0.3514  0.1225
30819SOL    HW110449   8.661   3.726   9.321  1.8785  1.3150  1.7748
30819SOL    HW210450   8.725   3.599   9.269 -1.5971  0.3443 -0.4798
30820SOL     OW10451  13.607  11.425  12.220 -0.6612  0.2710 -0.2621
30820SOL    HW110452  13.612  11.456  12.130 -0.6906 -0.5265 -0.5461
30820SOL    HW210453  13.584  11.333  12.213 -0.1258  0.0576  0.5371
30821SOL     OW10454   0.807   1.054  10.563 -0.5597 -0.1179 -0.2376
30821SOL    HW110455   0.841   1.141  10.586 -1.1924 -0.1408  0.8273
30821SOL    HW210456   0.881   1.010  10.522 -0.0762  0.7420 -0.3245
30822SOL     OW10457   4.262   1.465   0.820  0.2558 -0.4104  0.3890
30822SOL    HW110458   4.312   1.394   0.861 -1.8630 -1.6850  0.9365
30822SOL    HW210459   4.217   1.422   0.747 -0.6384  0.4974  0.3932
30823SOL     OW10460   6.873   2.428   9.669  0.5566 -0.1763 -0.0369
30823SOL    HW110461   6.882   2.431   9.765  2.3852  1.4717 -0.2133
30823SOL    HW210462   6.962   2.418   9.636 -0.0270 -0.5139 -1.6052
30824SOL     OW10463   0.221   6.647  10.948 -0.0072  0.4729 -0.3159
30824SOL    HW110464   0.128   6.640  10.971  0.3265  1.4565  1.4798
30824SOL    HW210465   0.259   6.565  10.979 -0.0152  0.7096  0.3266
30825SOL     OW10466  11.145  13.820  11.022  0.7485 -0.0990 -0.4756
30825SOL    HW110467  11.065  13.873  11.029  0.7269 -0.3473  1.8942
30825SOL    HW210468  11.213  13.874  11.062  1.0513 -1.1983  0.5283
30826SOL     OW10469   7.043  12.185   5.074 -0.1428  0.1502 -0.2472
30826SOL    HW110470   7.005  12.146   5.153 -0.2064  0.9706  0.1384
30826SOL    HW210471   7.137  12.188   5.091 -0.2208  0.9332  0.0828
30827SOL     OW10472  12.266   8.395   5.481  0.3553  0.1038  0.4997
30827SOL    HW110473  12.347   8.345   5.477  0.3750 -0.1908  3.0293
30827SOL    HW210474  12.197   8.328   5.481 -0.0153  0.3648 -2.2484
30828SOL     OW10475   1.172   1.309  11.072 -0.5736  0.0015  0.2733
30828SOL    HW110476   1.255   1.322  11.117 -2.2089 -0.1154  3.6377
30828SOL    HW210477   1.183   1.227  11.025  0.6444 -1.0454  2.2480
30829SOL     OW10478   4.030   4.408   2.632  0.2496  0.3855  1.2882
30829SOL    HW110479   4.118   4.444   2.618  0.3133 -0.0406  0.5147
30829SOL    HW210480   4.045   4.315   2.649 -0.1155  0.0551 -0.0798
30830SOL     OW10481  11.517  10.193  12.770 -0.1876  0.2356 -0.0674
30830SOL    HW110482  11.531  10.190  12.675  1.8033 -2.2853  0.1728
30830SOL    HW210483  11.458  10.120  12.788 -0.1497  0.3741  0.6578
30831SOL     OW10484   1.194   4.098   9.379 -0.6363  0.0308  0.9637
30831SOL    HW110485   1.126   4.163   9.359  0.4458  1.2632  1.1304
30831SOL    HW210486   1.177   4.075   9.471 -1.1327 -0.0527  0.8547
30832SOL     OW10487   9.354   7.313  10.286 -0.0787  0.0963  0.4872
30832SOL    HW110488   9.291   7.383  10.306 -0.5601 -0.7532  2.0582
30832SOL    HW210489   9.411   7.310  10.362  1.0919 -0.0119 -0.3744
30833SOL     OW10490   5.978  12.825   9.299  0.7258  0.2392 -0.2373
30833SOL    HW110491   5.884  12.826   9.317  0.9842  0.2814  1.2664
30833SOL    HW210492   5.990  12.756   9.234 -0.3533  0.3128 -0.5315
30834SOL     OW10493  12.790   7.815   7.041 -0.9545  0.1499  0.0400
30834SOL    HW110494  12.702   7.851   7.044 -1.0945 -0.2477  1.4438
30834SOL    HW210495  12.815   7.804   7.133  0.1649 -0.7006 -0.3370
30835SOL     OW10496   5.133   9.863   3.053  0.8296  0.3177 -0.0182
30835SOL    HW110497   5.199   9.877   2.985 -1.1141  0.7509 -1.9397
30835SOL    HW210498   5.118   9.769   3.053  0.4308  0.3786 -0.6102
30836SOL     OW10499  12.290   2.401   5.823  0.1508 -0.1690  0.1227
30836SOL    HW110500  12.270   2.317   5.781  1.3679 -1.0530  1.2031
30836SOL    HW210501  12.337   2.450   5.756  1.4375 -1.2697  0.1735
30837SOL     OW10502   2.839  12.355  11.095 -0.1808 -0.0870 -0.3797
30837SOL    HW110503   2.842  12.445  11.127  2.3073  1.0461 -3.2633
30837SOL    HW210504   2.851  12.363  11.001 -0.4483 -3.4520 -0.8162
30838SOL     OW10505   4.446  12.654   8.404 -0.1596 -0.7933  0.0325
30838SOL    HW110506   4.493  12.700   8.335  1.3749 -1.9218  0.2680
30838SOL    HW210507   4.454  12.710   8.481  1.1996 -1.1600  0.1775
30839SOL     OW10508  12.893  10.525   4.153 -0.5195 -0.2703 -0.3173
30839SOL    HW110509  12.859  10.552   4.068 -1.5717  1.9619  0.7399
30839SOL    HW210510  12.961  10.589   4.174 -1.7793  0.5821  1.4356
30840SOL     OW10511   1.143   5.473   8.567  0.1171  0.2877  0.1425
30840SOL    HW110512   1.066   5.494   8.515 -0.9721 -0.6846  1.3082
30840SOL    HW210513   1.163   5.382   8.546  0.7576  0.4308  0.0968
30841SOL     OW10514  13.296  13.094   8.396  0.1012 -0.4499  0.4626
30841SOL    HW110515  13.328  13.132   8.478 -0.0129 -0.4358  0.5003
30841SOL    HW210516  13.234  13.027   8.424  1.0342 -1.3493  0.4303
30842SOL     OW10517  10.930   3.037  12.353  0.3825 -0.6184  0.4808
30842SOL    HW110518  10.902   2.963  12.299 -2.1875 -1.2459  2.4596
30842SOL    HW210519  10.867   3.107  12.332  0.9497 -0.0016  0.8056
30843SOL     OW10520  13.964  10.783   4.817 -0.4653  0.1859 -0.8645
30843SOL    HW110521  14.018  10.838   4.760 -1.9820  1.2000 -1.3813
30843SOL    HW210522  13.887  10.762   4.764 -1.3323  0.1037  0.3837
30844SOL     OW10523   8.198   4.516   5.842  0.6440  0.2728  0.1340
30844SOL    HW110524   8.285   4.479   5.856  1.0158  0.0086 -2.4598
30844SOL    HW210525   8.150   4.448   5.794 -0.6863  0.8165  0.6301
30845SOL     OW10526  13.798  10.245  12.942 -0.5107  0.0179  0.3157
30845SOL    HW110527  13.716  10.264  12.895 -0.1913  2.7573  0.7303
30845SOL    HW210528  13.769  10.217  13.029 -1.0282  0.7962  0.4059
30846SOL     OW10529   0.506   8.649  11.105  0.0370 -0.4586 -0.1657
30846SOL    HW110530   0.414   8.675  11.097  0.2474  0.4988  0.3857
30846SOL    HW210531   0.546   8.678  11.023 -0.0066 -0.2457 -0.1115
30847SOL     OW10532  13.357   1.117  12.126  0.2719 -0.8289  0.0448
30847SOL    HW110533  13.439   1.163  12.146 -0.6650  1.2872 -0.6760
30847SOL    HW210534  13.385   1.043  12.072  1.7607 -0.3759  0.1258
30848SOL     OW10535   3.517   3.434   7.916  0.1949  0.2276  0.5054
30848SOL    HW110536   3.556   3.498   7.856 -0.8789  1.0854  0.7002
30848SOL    HW210537   3.587   3.370   7.932  0.5444  0.0459 -1.5467
30849SOL     OW10538   8.129   1.664  13.202 -0.6966 -0.6090  0.4864
30849SOL    HW110539   8.076   1.609  13.145 -0.1001 -2.4262  1.5858
30849SOL    HW210540   8.210   1.678  13.154 -1.0335 -0.2487  0.0058
30850SOL     OW10541   2.065  10.283   8.813 -0.2305  0.3349 -0.5559
30850SOL    HW110542   1.997  10.232   8.767 -0.0829  0.5057 -0.9719
30850SOL    HW210543   2.017  10.330   8.882 -0.5884  0.6816 -1.0302
30851SOL     OW10544   7.103   0.921   6.105  0.5500  0.1671 -0.4470
30851SOL    HW110545   7.192   0.926   6.071  0.8248  0.6974  0.3270
30851SOL    HW210546   7.081   0.827   6.102  1.9142 -0.2580  1.2939
30852SOL     OW10547   1.172  13.250   8.313  0.0690  0.4590  0.2550
30852SOL    HW110548   1.222  13.195   8.373 -0.3364  0.4660  0.6059
30852SOL    HW210549   1.190  13.214   8.226  1.2627  0.9149  0.2945
30853SOL     OW10550   8.475  11.796   6.120  0.2182  0.0099  0.3459
30853SOL    HW110551   8.492  11.796   6.214 -0.2494  0.2008  0.4351
30853SOL    HW210552   8.507  11.711   6.090 -3.3796 -1.9147  1.3955
30854SOL     OW10553   1.799   4.624  13.124 -0.3626 -0.3157  0.3435
30854SOL    HW110554   1.704   4.620  13.127 -0.3756 -1.3024 -0.8389
30854SOL    HW210555   1.829   4.547  13.173 -0.2709 -1.9037 -2.0146
30855SOL     OW10556  11.874   7.386   6.718 -0.1327  0.5439 -0.3652
30855SOL    HW110557  11.920   7.433   6.788  1.4654 -0.6791 -0.5470
30855SOL    HW210558  11.867   7.450   6.647  2.2225  0.5281 -0.6993
30856SOL     OW10559  11.872   9.329   7.048  0.3491  0.2172 -0.2967
30856SOL    HW110560  11.840   9.248   7.088  0.5389 -0.4250 -1.4027
30856SOL    HW210561  11.960   9.340   7.084  0.9122 -0.9014 -1.2408
30857SOL     OW10562   2.362   7.140  10.883 -0.0023 -0.2960  0.1128
30857SOL    HW110563   2.446   7.097  10.900 -0.2884 -0.7819  0.3103
30857SOL    HW210564   2.384   7.233  10.876  0.7335 -0.5210 -0.9849
30858SOL     OW10565  11.572  10.074   1.112  0.1619  0.1903  0.4652
30858SOL    HW110566  11.604  10.004   1.055  1.0563  0.2158  0.9304
30858SOL    HW210567  11.559  10.148   1.053 -1.6799 -0.6027 -0.1971
30859SOL     OW10568  10.813  10.348   5.370 -0.7288  0.2718  0.0265
30859SOL    HW110569  10.843  10.438   5.380 -1.2220  0.2686  1.7529
30859SOL    HW210570  10.811  10.313   5.459 -1.1789 -1.2446 -0.5506
30860SOL     OW10571   5.724   3.045   6.817 -0.0368 -0.0628  0.5860
30860SOL    HW110572   5.743   3.129   6.859 -0.7644  0.3526  0.1011
30860SOL    HW210573   5.632   3.028   6.838 -0.4839  0.2580 -1.0083
30861SOL     OW10574  10.293   7.896   6.646 -0.2165  0.1410 -0.1397
30861SOL    HW110575  10.284   7.972   6.703  1.8056  0.6363 -0.4117
30861SOL    HW210576  10.358   7.840   6.690  1.0610  0.3347 -1.7053
30862SOL     OW10577   8.100   3.392  11.882  0.5475  0.1984  0.2598
30862SOL    HW110578   8.114   3.441  11.963 -1.3678  0.6972  0.3409
30862SOL    HW210579   8.094   3.301  11.910 -1.8746  0.5090  1.0118
30863SOL     OW10580   0.532   4.461   8.646  0.9487  0.3537  0.2184
30863SOL    HW110581   0.555   4.374   8.679  0.7073  0.8054  1.6106
30863SOL    HW210582   0.534   4.451   8.551 -0.2121 -1.4761  0.3331
30864SOL     OW10583   6.218   8.794  12.516  0.0886  0.6531  0.0335
30864SOL    HW110584   6.171   8.711  12.513  0.5815  0.3647 -2.7981
30864SOL    HW210585   6.309   8.770  12.532  0.2607  0.5928 -0.9664
30865SOL     OW10586  12.352   9.565  13.919  0.0812 -0.5300  0.2210
30865SOL    HW110587  12.264   9.550  13.953  0.9865 -2.1923  2.0322
30865SOL    HW210588  12.385   9.640  13.969  0.6796 -1.7079  1.6643
30866SOL     OW10589   8.449   8.802  11.530 -0.1673  0.1315 -1.0275
30866SOL    HW110590   8.455   8.756  11.613 -0.0993 -0.0683 -1.1416
30866SOL    HW210591   8.497   8.884  11.543  1.3336 -0.6619 -1.3929
30867SOL     OW10592  12.297   6.065   4.403  0.0190 -0.5724  0.0768
30867SOL    HW110593  12.371   6.079   4.344  0.3459  2.8775  1.0939
30867SOL    HW210594  12.338   6.035   4.485  0.0993 -0.3639  0.1126
30868SOL     OW10595   9.856  13.680  11.033  0.2487  0.0958  0.1653
30868SOL    HW110596   9.937  13.642  11.067  0.1656  0.7169  1.0890
30868SOL    HW210597   9.850  13.647  10.943  2.8613  2.0568 -0.8529
30869SOL     OW10598   4.989  11.246   9.727 -0.1258  0.4437 -0.3807
30869SOL    HW110599   4.968  11.165   9.774 -0.9115  0.1066 -1.2693
30869SOL    HW210600   5.078  11.231   9.694  0.1664  0.4078  0.3897
30870SOL     OW10601  12.657  12.625   3.032 -0.6311 -0.0991  0.3992
30870SOL    HW110602  12.643  12.530   3.036 -1.6371  0.0448  0.6785
30870SOL    HW210603  12.714  12.645   3.107 -0.5665 -0.4554  0.4456
30871SOL     OW10604   9.808   7.878   0.324  0.2715 -0.0963 -0.1898
30871SOL    HW110605   9.835   7.839   0.408 -0.1390  0.8100  0.3867
30871SOL    HW210606   9.814   7.972   0.339  3.7820  0.2015 -2.3503
30872SOL     OW10607  12.601   7.912  13.807  0.2339 -0.0123  0.1172
30872SOL    HW110608  12.570   7.999  13.832  1.5454  0.8076 -0.9385
30872SOL    HW210609  12.624   7.920  13.714  1.2723 -1.2041  0.2304
30873SOL     OW10610   0.436   0.863   9.687 -0.2600  0.0950  0.1386
30873SOL    HW110611   0.518   0.821   9.714  0.6963  1.6856 -0.1584
30873SOL    HW210612   0.440   0.862   9.591  0.4188  1.9529  0.1058
30874SOL     OW10613   9.910   7.474   7.087 -0.3926  0.1017 -0.1018
30874SOL    HW110614   9.934   7.383   7.100 -0.4091 -0.0041 -0.7787
30874SOL    HW210615   9.852   7.494   7.160  0.3269 -0.1566  0.5580
30875SOL     OW10616   3.336   7.599   0.908 -0.3195 -0.6835 -0.0171
30875SOL    HW110617   3.338   7.540   0.833 -0.6335 -1.4667  0.5711
30875SOL    HW210618   3.302   7.681   0.873  1.0402 -0.5155 -1.0581
30876SOL     OW10619  11.937   3.984   2.600  0.2594  0.3854  0.3968
30876SOL    HW110620  11.872   4.048   2.571 -0.2286 -0.3253 -0.1135
30876SOL    HW210621  12.003   3.985   2.530  0.4809  0.6453  0.6056
30877SOL     OW10622   5.082   7.739   4.069 -0.0885 -0.0756 -0.3595
30877SOL    HW110623   5.110   7.761   4.158  1.2770 -0.6123 -0.6393
30877SOL    HW210624   5.089   7.643   4.064 -1.9711 -0.2545 -0.4719
30878SOL     OW10625  10.099   1.379   6.089  0.4850 -0.2148  0.0905
30878SOL    HW110626  10.111   1.464   6.131 -0.9061 -0.0586  0.2214
30878SOL    HW210627  10.174   1.327   6.119  0.1370  0.2491  1.8635
30879SOL     OW10628  11.037   3.841  13.726 -0.4444  0.0691 -0.0763
30879SOL    HW110629  11.090   3.818  13.802 -0.2579  3.0375  0.7841
30879SOL    HW210630  11.099   3.840  13.652  0.3523  1.2447  0.5397
30880SOL     OW10631   9.621   5.043   6.347 -0.5245 -0.0606 -0.5550
30880SOL    HW110632   9.635   4.982   6.419 -0.6109 -0.0971 -0.5684
30880SOL    HW210633   9.684   5.114   6.362 -1.9833  1.0309  0.7526
30881SOL     OW10634   7.303   3.868   1.642  0.2336 -0.3769  0.2300
30881SOL    HW110635   7.356   3.788   1.646  0.0777 -0.4413  1.1919
30881SOL    HW210636   7.305   3.893   1.550  1.5396 -0.6385  0.1718
30882SOL     OW10637   4.447  11.481  13.485  0.2549  0.0199 -0.4804
30882SOL    HW110638   4.406  11.545  13.545  0.1311  0.2716 -0.8301
30882SOL    HW210639   4.528  11.524  13.456  0.9867 -0.6363  0.5144
30883SOL     OW10640  12.051   3.858   3.678  1.0931  1.0197 -0.1791
30883SOL    HW110641  12.043   3.851   3.773 -0.2754  0.3400 -0.3096
30883SOL    HW210642  11.965   3.830   3.645  1.7802  0.5127 -1.6425
30884SOL     OW10643   7.969   6.822   8.838  0.1293  0.3846 -0.4217
30884SOL    HW110644   8.025   6.752   8.805  1.1510  0.8636  0.2248
30884SOL    HW210645   7.987   6.825   8.932 -0.5641  0.9268 -0.2972
30885SOL     OW10646  12.120  11.250   9.998 -0.3106  0.0702  0.1726
30885SOL    HW110647  12.180  11.311  10.041 -2.0859  0.8127  1.7153
30885SOL    HW210648  12.034  11.275  10.029 -1.1382 -3.2518  0.8834
30886SOL     OW10649   9.911   8.671   1.481 -0.2521  0.2715 -0.0553
30886SOL    HW110650   9.965   8.720   1.544  1.0910 -0.2856 -0.7231
30886SOL    HW210651   9.969   8.657   1.407 -1.8995  1.2183 -1.6104
30887SOL     OW10652   3.584   0.820  12.986 -0.4441 -0.5694  0.2783
30887SOL    HW110653   3.600   0.907  13.022  2.1284 -0.8470  0.0167
30887SOL    HW210654   3.636   0.818  12.905 -0.0755 -2.4741  0.5148
30888SOL     OW10655   7.769   0.056   6.183  0.5305 -0.3484  0.0531
30888SOL    HW110656   7.863   0.039   6.185  0.6584 -0.0129 -1.4954
30888SOL    HW210657   7.761   0.150   6.199  0.5109 -0.2927 -0.2615
30889SOL     OW10658   3.301  13.742   6.662 -0.1578 -0.0611  0.1809
30889SOL    HW110659   3.216  13.782   6.678 -0.6117 -0.1457 -1.8035
30889SOL    HW210660   3.340  13.795   6.592  1.2760 -0.2518  0.7842
30890SOL     OW10661  11.231   8.862   3.135  0.0682 -0.0980 -0.3719
30890SOL    HW110662  11.230   8.776   3.178 -1.7186 -1.0787 -2.1777
30890SOL    HW210663  11.171   8.915   3.187  0.5215 -0.2056  0.2663
30891SOL     OW10664   9.714   1.456   2.417  0.3385  0.1353 -0.2688
30891SOL    HW110665   9.786   1.429   2.360 -1.0315 -0.4820 -1.7608
30891SOL    HW210666   9.702   1.549   2.397 -0.0763 -0.0572 -0.9131
30892SOL     OW10667  13.538   9.290  12.851 -0.6406 -0.0078  0.7628
30892SOL    HW110668  13.604   9.239  12.804 -1.4997 -0.5110  0.0677
30892SOL    HW210669  13.488   9.332  12.782 -1.6816 -0.4445  1.2313
30893SOL     OW10670   4.674   0.361  12.251 -0.3480  0.0793  0.3200
30893SOL    HW110671   4.653   0.426  12.184 -0.9246  0.4650  0.8639
30893SOL    HW210672   4.693   0.281  12.201 -0.2184  0.5008 -0.3232
30894SOL     OW10673   2.031   8.194   0.286 -0.3579  0.0602  0.2438
30894SOL    HW110674   1.973   8.204   0.210 -1.8318  1.6706  1.4866
30894SOL    HW210675   1.974   8.210   0.361  0.4012 -4.0204  1.9549
30895SOL     OW10676  12.126   7.024   7.833  0.0861 -0.3232 -0.1328
30895SOL    HW110677  12.062   6.994   7.768 -1.2042 -1.0229  1.4219
30895SOL    HW210678  12.182   6.948   7.848 -1.2622 -1.0432  1.4977
30896SOL     OW10679  11.284   4.823   6.551 -0.3214  0.6386  0.3372
30896SOL    HW110680  11.378   4.822   6.564 -0.0843 -1.2983 -1.0149
30896SOL    HW210681  11.250   4.765   6.619 -0.6011  1.5498  0.9980
30897SOL     OW10682  11.524  10.116   9.109 -0.3074  0.0195 -0.5393
30897SOL    HW110683  11.455  10.106   9.174 -0.9744 -1.1193 -1.3847
30897SOL    HW210684  11.516  10.206   9.078  0.5085  0.8354  1.4475
30898SOL     OW10685  12.671   6.581   8.860  0.1039 -0.0453  0.2501
30898SOL    HW110686  12.601   6.617   8.915  0.2268  0.5531  0.0292
30898SOL    HW210687  12.630   6.508   8.814 -0.3044  0.1265  0.3309
30899SOL     OW10688   4.526   9.523   5.105  0.2022  0.2320 -0.2230
30899SOL    HW110689   4.472   9.579   5.161 -1.1219 -2.2116  1.1036
30899SOL    HW210690   4.615   9.553   5.122 -0.3840  1.4838  0.9376
30900SOL     OW10691   8.269   8.111   8.494  0.1947  1.0583  0.7339
30900SOL    HW110692   8.200   8.113   8.428  0.4773  0.5192  0.4216
30900SOL    HW210693   8.343   8.157   8.453 -0.2561  2.4296  1.3975
30901SOL     OW10694   5.136  13.227   9.757  0.3228  0.0104  0.3660
30901SOL    HW110695   5.213  13.284   9.759 -0.6815  1.4974 -0.6389
30901SOL    HW210696   5.085  13.253   9.834  1.0517 -1.3659  1.3497
30902SOL     OW10697   3.243   1.505   4.058 -0.4639  0.2309  0.0653
30902SOL    HW110698   3.245   1.582   4.001  0.0544  0.2060  0.0420
30902SOL    HW210699   3.182   1.444   4.014  0.1889  0.0759 -0.6483
30903SOL     OW10700   3.578   0.982  10.276 -0.2397  0.3487 -0.2272
30903SOL    HW110701   3.578   1.000  10.182  0.9158  1.4639 -0.0424
30903SOL    HW210702   3.649   0.920  10.289  0.7218  1.4779  0.0960
30904SOL     OW10703  11.132   1.716   0.290  0.4328  0.1763 -0.8967
30904SOL    HW110704  11.191   1.714   0.366 -0.4492 -0.6276 -0.1979
30904SOL    HW210705  11.115   1.623   0.272 -0.0188  0.3874 -1.5629
30905SOL     OW10706   8.063  13.486   7.525  0.0231  0.2967  0.2951
30905SOL    HW110707   8.120  13.476   7.601  0.6775  0.9827 -0.0994
30905SOL    HW210708   8.084  13.411   7.469 -0.3524 -0.1253  0.7083
30906SOL     OW10709   2.666   8.132   6.255  0.2810  0.3333  0.5124
30906SOL    HW110710   2.713   8.095   6.181  0.8130 -0.8248  1.4020
30906SOL    HW210711   2.579   8.092   6.251  0.2474  0.4158  0.4110
30907SOL     OW10712  10.363   2.447   2.675  0.1741 -0.0635 -0.3499
30907SOL    HW110713  10.267   2.446   2.671  0.2182 -0.0068 -2.4754
30907SOL    HW210714  10.385   2.367   2.724 -0.9356  0.7937  1.7074
30908SOL     OW10715  10.830   0.506   6.419 -0.0713  0.3672  0.3921
30908SOL    HW110716  10.854   0.473   6.332 -0.5731 -1.1016  0.7848
30908SOL    HW210717  10.824   0.601   6.407 -2.6227  0.0670 -1.8679
30909SOL     OW10718   0.250  12.104  13.602 -0.1193 -0.1506  0.1929
30909SOL    HW110719   0.270  12.052  13.524 -0.8103 -1.9241  1.1392
30909SOL    HW210720   0.155  12.111  13.602 -0.0223  1.5569 -0.1468
30910SOL     OW10721  13.806   4.030   0.410  0.5113 -0.1260  0.2130
30910SOL    HW110722  13.839   4.103   0.461  0.4509 -0.4180  0.6807
30910SOL    HW210723  13.815   4.058   0.319 -0.0923  0.7032  0.4026
30911SOL     OW10724   9.748  13.555  11.785 -0.1831 -0.2838  0.6748
30911SOL    HW110725   9.840  13.567  11.761  0.4086  0.0271  2.8892
30911SOL    HW210726   9.723  13.639  11.825 -2.1089  0.3992 -1.7238
30912SOL     OW10727   5.347   5.704   7.192  0.2304  0.0542  0.8446
30912SOL    HW110728   5.279   5.728   7.128  0.8238 -0.6665 -0.0781
30912SOL    HW210729   5.321   5.750   7.272 -1.2705 -0.0850  0.4771
30913SOL     OW10730  10.526   7.492  14.149 -0.1764 -0.0908  0.8992
30913SOL    HW110731  10.447   7.539  14.176 -1.1910 -1.8390  1.1393
30913SOL    HW210732  10.574   7.476  14.230 -0.7327 -0.9851  1.0708
30914SOL     OW10733   5.470  12.966   8.605  0.7001  0.0339  0.9232
30914SOL    HW110734   5.462  12.968   8.701  0.9434 -3.8471  1.1705
30914SOL    HW210735   5.387  12.930   8.575  0.7950  0.8085 -0.3149
30915SOL     OW10736   6.620   5.025   5.045 -0.2742  0.4118 -0.3376
30915SOL    HW110737   6.607   4.960   5.114  0.5087  2.4287  1.8503
30915SOL    HW210738   6.532   5.047   5.015 -0.7934  0.8399  1.4004
30916SOL     OW10739  10.644   2.317   6.920  0.4018  0.3535  0.3143
30916SOL    HW110740  10.682   2.251   6.862 -0.0960  1.0442 -0.8312
30916SOL    HW210741  10.683   2.399   6.890 -0.5745  0.8305  0.3349
30917SOL     OW10742   6.976  11.555  10.051  0.3796 -0.2707  0.1221
30917SOL    HW110743   7.059  11.512  10.073  1.7524  0.7786 -2.5996
30917SOL    HW210744   6.990  11.647  10.072  0.0893 -0.0058 -0.8094
30918SOL     OW10745   0.036  13.459   6.412  0.0126 -0.1042  0.6757
30918SOL    HW110746   0.028  13.517   6.487 -0.2195 -1.0489  1.4106
30918SOL    HW210747   0.128  13.468   6.384 -0.7242  2.8951 -1.1925
30919SOL     OW10748   4.075  10.307   9.618  0.0360  0.5938 -0.2031
30919SOL    HW110749   4.079  10.384   9.561 -2.8119  0.3436 -0.8605
30919SOL    HW210750   4.113  10.237   9.565  1.9665  1.3165  0.1302
30920SOL     OW10751   5.088  10.288  12.531  0.4331  0.2273 -0.9874
30920SOL    HW110752   5.063  10.310  12.441 -0.8564  0.5436 -0.5725
30920SOL    HW210753   5.018  10.231  12.562  0.8940  0.0776 -0.1950
30921SOL     OW10754   5.662   2.801  13.082  0.1298 -0.1980  0.3738
30921SOL    HW110755   5.629   2.842  13.162 -0.5410  0.6719 -0.3272
30921SOL    HW210756   5.713   2.726  13.113  1.2296  1.0254  1.7061
30922SOL     OW10757   8.896   5.507   1.881  0.3237 -0.7284 -0.3117
30922SOL    HW110758   8.896   5.523   1.787  1.1169  2.1952  0.0748
30922SOL    HW210759   8.833   5.570   1.916  0.7801 -1.0672  1.2040
30923SOL     OW10760   5.729   3.281   8.158  0.1097 -0.5890  0.3339
30923SOL    HW110761   5.690   3.205   8.115  0.0096 -0.5539  0.3621
30923SOL    HW210762   5.654   3.337   8.181 -0.0262 -1.4935  2.2904
30924SOL     OW10763   3.868  11.223   2.856  0.4215  0.5060  0.0819
30924SOL    HW110764   3.930  11.296   2.842  1.0835 -0.0788 -0.0841
30924SOL    HW210765   3.874  11.205   2.950  1.5879 -0.4822 -0.1594
30925SOL     OW10766  12.226   9.753  11.234 -0.4990  0.1022 -0.0729
30925SOL    HW110767  12.272   9.701  11.301 -0.4891 -0.6022 -0.6104
30925SOL    HW210768  12.146   9.703  11.216 -0.1196 -0.1483 -1.1605
30926SOL     OW10769   7.395   6.429  11.984 -0.6127  0.4356 -0.8713
30926SOL    HW110770   7.382   6.455  12.075  0.8539  0.1354 -0.5484
30926SOL    HW210771   7.322   6.470  11.937 -0.6319  1.7455  0.2285
30927SOL     OW10772   7.773   9.601   0.090 -0.1907 -0.0282 -0.0765
30927SOL    HW110773   7.808   9.588   0.002 -0.5867  2.1548 -0.5997
30927SOL    HW210774   7.685   9.636   0.075  0.1136  1.3082  1.1786
30928SOL     OW10775   2.956   0.938   1.056 -0.0581 -0.0341 -0.4945
30928SOL    HW110776   2.889   0.888   1.010 -1.6569  1.4905  0.0821
30928SOL    HW210777   3.001   0.873   1.111 -1.8514 -0.9217 -0.0016
30929SOL     OW10778  12.569   5.135   7.522 -0.2684 -0.0148 -0.0631
30929SOL    HW110779  12.661   5.127   7.549 -0.4788 -0.3138  0.5956
30929SOL    HW210780  12.541   5.218   7.560 -0.2088  0.1878 -0.4598
30930SOL     OW10781   7.001   9.890   6.325  0.1849 -0.0760  0.3083
30930SOL    HW110782   6.911   9.891   6.292  0.3912  1.6187 -0.2583
30930SOL    HW210783   6.999   9.944   6.404  0.4045 -1.3681  1.2484
30931SOL     OW10784   0.787  10.036   8.127  0.4279  0.4133 -0.5898
30931SOL    HW110785   0.772   9.968   8.193 -1.6124  1.3433 -0.0024
30931SOL    HW210786   0.709  10.035   8.073  0.7795  1.6607 -1.1607
30932SOL     OW10787   5.488  10.064  13.771  0.0496  0.1075 -0.1614
30932SOL    HW110788   5.466  10.069  13.864  0.5951  0.3681 -0.0425
30932SOL    HW210789   5.505   9.971  13.756  1.3158  0.2411  0.3311
30933SOL     OW10790   4.539  11.656   0.753  0.2590  0.3004 -0.2305
30933SOL    HW110791   4.555  11.723   0.686  0.9317  0.6844  0.2969
30933SOL    HW210792   4.612  11.666   0.814 -0.8040  0.5511  1.0416
30934SOL     OW10793  11.458   3.592   5.322 -0.4665  0.5111  0.1912
30934SOL    HW110794  11.382   3.542   5.355  0.9024 -1.4384  0.5565
30934SOL    HW210795  11.497   3.630   5.400  0.5552 -0.9150  0.4228
30935SOL     OW10796   5.311   8.121   3.816 -0.3153  0.0718 -0.0372
30935SOL    HW110797   5.288   8.028   3.819  1.4132 -0.3559  2.0534
30935SOL    HW210798   5.305   8.150   3.907 -0.1999  1.8657 -0.5627
30936SOL     OW10799   4.886   3.821   6.493  0.6893  0.1080  0.4199
30936SOL    HW110800   4.962   3.798   6.547 -0.0296  0.0058  1.4301
30936SOL    HW210801   4.923   3.859   6.414  1.7977 -0.1807  0.7807
30937SOL     OW10802   2.064  12.769   9.321 -0.3904  0.6290  0.0092
30937SOL    HW110803   2.105  12.683   9.314 -0.7286  0.2376  2.2992
30937SOL    HW210804   2.137  12.830   9.325 -0.0884  0.2268  0.7872
30938SOL     OW10805   0.303   4.648   8.986 -0.4106  0.1895 -0.0356
30938SOL    HW110806   0.308   4.720   9.049  0.5512  1.5425 -1.5722
30938SOL    HW210807   0.375   4.590   9.010  0.2188  0.9173 -0.1123
30939SOL     OW10808  13.628  10.633   0.628  0.0293 -0.6286 -0.3662
30939SOL    HW110809  13.562  10.571   0.595  0.6898 -0.4149 -2.1741
30939SOL    HW210810  13.588  10.719   0.616  1.1569 -0.3846 -2.9253
30940SOL     OW10811  13.840   1.070   1.169 -0.0969  0.5598 -0.3317
30940SOL    HW110812  13.770   1.015   1.205 -1.4049  0.7193 -2.4441
30940SOL    HW210813  13.883   1.107   1.246 -1.8271 -0.1612  1.0718
30941SOL     OW10814   5.763  12.540  11.628  0.3005  0.1292  0.2471
30941SOL    HW110815   5.676  12.500  11.629 -0.9072  2.4547 -2.0816
30941SOL    HW210816   5.811  12.491  11.561  0.3656 -0.3118  0.6107
30942SOL     OW10817   1.894   1.229   8.305  0.2878 -0.1055  0.2283
30942SOL    HW110818   1.986   1.217   8.279  0.6714  0.1595  1.4030
30942SOL    HW210819   1.898   1.295   8.374 -0.8861  0.5059 -0.2640
30943SOL     OW10820   8.004   5.914  14.073  0.4584  0.1502  0.2045
30943SOL    HW110821   8.028   5.980  14.008  0.1405 -0.4786 -0.5673
30943SOL    HW210822   7.914   5.936  14.097  0.5918  0.4101  0.4666
30944SOL     OW10823   8.160   4.619   9.454 -0.1963  0.8408  0.0903
30944SOL    HW110824   8.084   4.591   9.403 -0.7442  1.7096  0.4080
30944SOL    HW210825   8.131   4.698   9.499  1.3382  2.0688 -0.9509
30945SOL     OW10826   2.988   5.319   8.872 -0.1256  0.3466 -0.2964
30945SOL    HW110827   2.991   5.233   8.914 -0.1169 -0.2374 -1.4743
30945SOL    HW210828   3.062   5.319   8.812 -1.4260  0.3033 -1.9538
30946SOL     OW10829   8.650   8.278   8.076 -0.0843  0.3404 -0.2005
30946SOL    HW110830   8.740   8.286   8.045 -0.5598 -1.3210 -2.1878
30946SOL    HW210831   8.653   8.207   8.140  0.2436  1.3015  0.8857
30947SOL     OW10832  12.143   7.254   3.925  0.2650 -0.5602 -0.3177
30947SOL    HW110833  12.162   7.236   3.833  1.9788  1.3264 -0.4015
30947SOL    HW210834  12.142   7.349   3.931 -0.0402 -0.6393  1.5893
30948SOL     OW10835   1.988  11.185  11.054  0.0005 -0.0490 -0.2536
30948SOL    HW110836   1.958  11.256  10.998  1.6436  1.7582  1.0337
30948SOL    HW210837   1.914  11.165  11.110 -1.3293 -1.1891 -2.2856
30949SOL     OW10838   5.246   4.341   4.321  0.1530  0.2151  0.4360
30949SOL    HW110839   5.244   4.274   4.252  1.8516 -0.6644  1.1979
30949SOL    HW210840   5.155   4.372   4.326 -0.0814  0.1518 -2.0221
30950SOL     OW10841   4.633  13.118  12.946 -0.2224 -0.0303  0.1454
30950SOL    HW110842   4.671  13.161  13.024 -0.3209 -0.4728  0.4410
30950SOL    HW210843   4.646  13.181  12.876  1.3097 -0.2567  0.1776
30951SOL     OW10844  12.113  10.247   4.985  0.3083  0.6851 -0.7299
30951SOL    HW110845  12.047  10.178   4.984  0.7098  0.2964 -0.4854
30951SOL    HW210846  12.069  10.321   5.027  1.2139 -0.8139  3.4147
30952SOL     OW10847   6.010   8.610  13.784  0.5850 -0.3197  0.0360
30952SOL    HW110848   6.075   8.539  13.781  0.7827 -0.1033 -1.6967
30952SOL    HW210849   5.968   8.607  13.698 -0.6833  0.4988  0.6097
30953SOL     OW10850  11.618  11.273   0.245 -0.6832  1.0160  0.8359
30953SOL    HW110851  11.537  11.316   0.275  0.2593  1.2864  3.2092
30953SOL    HW210852  11.670  11.344   0.208 -2.3879  0.4857 -3.0822
30954SOL     OW10853   0.124   8.655   6.583 -0.6248 -0.5135 -0.5250
30954SOL    HW110854   0.051   8.697   6.537  1.2044  1.8600 -1.4847
30954SOL    HW210855   0.151   8.583   6.527  0.4441  1.2565 -2.4031
30955SOL     OW10856   0.547   8.493  10.561  0.4412 -0.2528 -0.0007
30955SOL    HW110857   0.468   8.439  10.556  0.1776  0.0738  0.4707
30955SOL    HW210858   0.514   8.582  10.575  0.8652  0.0581 -0.9131
30956SOL     OW10859   1.212   0.048   4.438  0.3114  0.3344 -0.2712
30956SOL    HW110860   1.174  -0.022   4.491  2.9193  0.5463  2.1614
30956SOL    HW210861   1.260   0.003   4.369 -0.0107 -0.1746 -0.1650
30957SOL     OW10862  13.270  12.889   3.480 -0.3518 -0.4211  0.2507
30957SOL    HW110863  13.233  12.941   3.409  0.2997 -0.0141  0.1980
30957SOL    HW210864  13.337  12.946   3.519 -0.4013 -0.8011  0.9113
30958SOL     OW10865   8.191  13.665  13.587 -0.5187 -0.3655 -0.4233
30958SOL    HW110866   8.241  13.668  13.506 -0.9369  0.5162 -0.6596
30958SOL    HW210867   8.107  13.705  13.565 -0.8291 -0.5932  0.3160
30959SOL     OW10868   3.134   1.243  11.630  0.2747  0.1244 -0.5805
30959SOL    HW110869   3.126   1.231  11.535  0.1581 -0.6643 -0.4839
30959SOL    HW210870   3.206   1.186  11.655 -1.7655 -2.2892  0.2301
30960SOL     OW10871  10.176   6.808  12.570  0.5529  0.2106  0.0689
30960SOL    HW110872  10.150   6.790  12.660  0.1649  0.5580  0.0313
30960SOL    HW210873  10.095   6.837  12.527  0.6652 -0.2462 -0.4705
30961SOL     OW10874  13.235   0.801   2.654 -0.0948 -0.9664  0.0735
30961SOL    HW110875  13.283   0.721   2.679  0.8081 -0.7652 -0.9347
30961SOL    HW210876  13.224   0.849   2.736  0.7802 -1.3805  0.4522
30962SOL     OW10877   0.224  13.392   9.297 -0.1467 -0.4074 -0.4897
30962SOL    HW110878   0.173  13.319   9.261 -0.8214  0.1372 -0.6647
30962SOL    HW210879   0.183  13.470   9.260  0.7527  0.0561 -0.5372
30963SOL     OW10880   3.288   1.865   9.717  0.0514  1.1159 -0.3362
30963SOL    HW110881   3.216   1.879   9.656  0.9181  0.1274 -1.6426
30963SOL    HW210882   3.276   1.775   9.748  0.7172  0.9407 -0.5690
30964SOL     OW10883  10.102   2.695  14.112  0.0327 -0.5427  0.2634
30964SOL    HW110884  10.179   2.740  14.147  1.2637 -1.8064 -0.7233
30964SOL    HW210885  10.096   2.725  14.022 -0.9956 -0.0253  0.4910
30965SOL     OW10886   4.790   6.058   1.915  0.4221  0.5282 -0.3253
30965SOL    HW110887   4.823   6.036   2.002 -2.6875  0.7930  1.0429
30965SOL    HW210888   4.802   5.977   1.864  2.3146  0.3835  0.2914
30966SOL     OW10889   1.794   5.895  10.731 -0.3667  0.4681  0.7945
30966SOL    HW110890   1.759   5.813  10.766  0.1370  0.8081  2.1213
30966SOL    HW210891   1.725   5.960  10.749 -1.9425 -0.0542 -2.5491
30967SOL     OW10892   5.360   4.657  10.243 -0.4073 -0.2334  0.2605
30967SOL    HW110893   5.393   4.747  10.248  0.6460 -0.6177  0.4434
30967SOL    HW210894   5.424   4.605  10.291 -1.4192 -0.9815  0.8371
30968SOL     OW10895  10.478   1.170   9.826 -0.3137 -0.6288  0.1669
30968SOL    HW110896  10.403   1.131   9.780  0.3260  0.2537 -1.7136
30968SOL    HW210897  10.468   1.141   9.917 -1.7900 -2.2323 -0.4532
30969SOL     OW10898   5.029   9.747  12.705  0.1078  0.6282  0.3839
30969SOL    HW110899   4.997   9.807  12.638  1.5550  0.4532 -0.5085
30969SOL    HW210900   4.950   9.716  12.749 -0.9742  0.0855 -1.8022
30970SOL     OW10901   9.893  10.833   0.993  0.0689 -0.5713  0.2070
30970SOL    HW110902   9.941  10.752   0.976  1.3186  0.0018  0.9116
30970SOL    HW210903   9.813  10.804   1.037  1.0824 -1.3578  1.6289
30971SOL     OW10904   3.234   4.330  12.666 -0.3718  0.5752 -0.2000
30971SOL    HW110905   3.240   4.266  12.595  0.1349  0.8893 -0.4484
30971SOL    HW210906   3.144   4.364  12.661 -0.7324 -0.3135  0.1167
30972SOL     OW10907   8.213   3.514  13.503 -0.5473  0.1293 -0.2939
30972SOL    HW110908   8.231   3.588  13.445 -0.3018 -0.8169 -1.4481
30972SOL    HW210909   8.118   3.503  13.499 -0.6780  0.8599  0.5005
30973SOL     OW10910  13.407   8.049   5.308  0.4095  0.6206 -0.6422
30973SOL    HW110911  13.356   7.979   5.268  1.5229 -0.8562  0.3880
30973SOL    HW210912  13.355   8.077   5.383  0.6096 -0.1490 -0.2051
30974SOL     OW10913  13.740   3.019   5.917 -0.0796  0.1952 -0.6845
30974SOL    HW110914  13.668   3.003   5.857 -0.7565  1.9589 -0.3846
30974SOL    HW210915  13.717   2.970   5.996  0.1693 -1.0445 -1.3586
30975SOL     OW10916   6.449   7.881   0.734  0.3437 -0.3057 -0.0398
30975SOL    HW110917   6.460   7.836   0.818  0.0320  0.1909  0.2713
30975SOL    HW210918   6.368   7.845   0.698  0.0031  0.1165  0.2880
30976SOL     OW10919  12.238   6.150   6.893 -0.6208  0.0470 -0.1827
30976SOL    HW110920  12.158   6.197   6.916 -0.6496  1.1549 -2.3079
30976SOL    HW210921  12.215   6.058   6.902 -2.5708  0.3002 -1.9685
30977SOL     OW10922  10.112   6.418   0.785 -0.1546 -0.4028  0.3552
30977SOL    HW110923  10.075   6.416   0.873  0.2627  0.2520  0.5501
30977SOL    HW210924  10.067   6.347   0.739 -1.1173 -0.1018  0.7965
30978SOL     OW10925   5.767   7.605   7.061  0.1360  0.3438 -0.5672
30978SOL    HW110926   5.769   7.581   6.968 -0.4484 -1.1021 -0.2358
30978SOL    HW210927   5.833   7.674   7.069  0.8327 -0.1209 -1.8873
30979SOL     OW10928  13.321  13.557   0.570 -0.1865  0.6245 -0.0593
30979SOL    HW110929  13.333  13.508   0.651 -0.1862 -0.2429 -0.5696
30979SOL    HW210930  13.336  13.492   0.501 -1.5338  1.0112 -0.7483
30980SOL     OW10931   9.895   7.104  12.400  0.3653 -0.3357 -0.4768
30980SOL    HW110932   9.876   7.098  12.307  0.5540  1.6057 -0.6995
30980SOL    HW210933   9.987   7.129  12.405 -0.3784  2.7664  0.0108
30981SOL     OW10934   9.216   3.838   4.951  0.0241  0.0014  0.2557
30981SOL    HW110935   9.231   3.751   4.987 -0.4144 -0.8744 -1.5602
30981SOL    HW210936   9.160   3.823   4.875 -0.6576  1.9625  0.3223
30982SOL     OW10937   2.896  13.393  10.760  0.3795  0.2372  0.5779
30982SOL    HW110938   2.968  13.427  10.708  0.1271  0.8889  0.6388
30982SOL    HW210939   2.822  13.390  10.699  0.5468 -0.8390  0.3979
30983SOL     OW10940   2.395  10.841   5.813 -0.2809  0.4938  0.3699
30983SOL    HW110941   2.355  10.789   5.882 -2.5436 -1.1411 -1.9406
30983SOL    HW210942   2.450  10.779   5.765 -2.0568  0.4305 -1.7196
30984SOL     OW10943   7.705   6.268  11.231  0.3745  0.4728  0.1879
30984SOL    HW110944   7.727   6.360  11.241 -1.0097  0.7776  0.7116
30984SOL    HW210945   7.703   6.233  11.320  0.0612  0.1423  0.0556
30985SOL     OW10946  10.937   7.648  11.991  0.2362 -0.0460 -0.4263
30985SOL    HW110947  11.024   7.610  12.004  1.3715  2.3183 -0.5949
30985SOL    HW210948  10.879   7.597  12.048  1.7905 -1.3659  0.0391
30986SOL     OW10949   9.619   9.479   6.809  0.1269 -0.4030  0.2015
30986SOL    HW110950   9.708   9.515   6.810  0.4007 -1.0284 -0.7173
30986SOL    HW210951   9.564   9.553   6.786  0.2464  0.2718  1.9025
30987SOL     OW10952   6.096   6.834   9.449  0.3097  0.2742  0.0621
30987SOL    HW110953   6.186   6.862   9.466  0.1025  1.2435 -0.3637
30987SOL    HW210954   6.092   6.745   9.484  0.9088  0.8691  1.7360
30988SOL     OW10955   2.630   3.756   8.840 -0.2634 -0.0500  0.6339
30988SOL    HW110956   2.712   3.805   8.847 -0.2833 -0.1450  1.7885
30988SOL    HW210957   2.596   3.754   8.930 -1.9625  0.7095  0.0450
30989SOL     OW10958  10.414   8.605   4.983  0.3623  0.1911  0.4170
30989SOL    HW110959  10.369   8.640   5.059  0.4235  0.9758  0.1039
30989SOL    HW210960  10.505   8.594   5.012 -0.1035 -1.9375  1.2263
30990SOL     OW10961   2.167   8.708  10.577 -0.0065 -0.1562 -0.0562
30990SOL    HW110962   2.183   8.765  10.502  0.7065  0.2045  0.3589
30990SOL    HW210963   2.254   8.687  10.610 -0.2103 -2.0829 -0.6240
30991SOL     OW10964   0.355   8.098   8.446  0.2734 -0.0900 -0.2407
30991SOL    HW110965   0.419   8.132   8.383  1.6907  0.8455  1.6179
30991SOL    HW210966   0.303   8.175   8.470  0.1840 -0.2938  0.2231
30992SOL     OW10967  11.399   7.714   0.166 -0.0539 -0.1841  0.5011
30992SOL    HW110968  11.304   7.708   0.170 -0.0567 -0.5935 -0.0258
30992SOL    HW210969  11.424   7.752   0.250 -0.8336  1.9095 -0.1606
30993SOL     OW10970   7.773  10.496  10.953 -0.6274 -0.2458  0.4351
30993SOL    HW110971   7.750  10.534  11.038  0.9249 -0.9854  1.2230
30993SOL    HW210972   7.838  10.555  10.916 -0.7851 -0.2986  0.0632
30994SOL     OW10973   4.367   5.964   6.756  0.3100 -0.0959  0.2596
30994SOL    HW110974   4.321   6.000   6.831  0.3147 -0.1984  0.3122
30994SOL    HW210975   4.424   6.036   6.726  3.5904 -1.2614  2.9793
30995SOL     OW10976  10.192   6.273   5.221 -0.4146  0.0094 -0.0895
30995SOL    HW110977  10.175   6.336   5.151  0.4737  1.0607  0.6240
30995SOL    HW210978  10.192   6.188   5.177 -0.1149  0.6342 -1.3245
30996SOL     OW10979  12.858  11.585  13.750  0.0905  0.2325  0.5542
30996SOL    HW110980  12.830  11.638  13.824  2.3398  1.4805  0.6076
30996SOL    HW210981  12.823  11.629  13.673 -0.2389  0.3054  0.7474
30997SOL     OW10982  11.073   8.892  10.146 -0.0437 -0.7149  0.7183
30997SOL    HW110983  11.033   8.899  10.232 -2.4111 -0.2457 -0.3602
30997SOL    HW210984  11.116   8.976  10.133 -4.1100  1.4207 -0.5452
30998SOL     OW10985   2.302   7.078   6.705 -0.2138  0.3116 -0.3901
30998SOL    HW110986   2.344   6.992   6.701 -0.6566  0.1245 -1.1890
30998SOL    HW210987   2.369   7.139   6.674  0.3272  0.3609  0.8067
30999SOL     OW10988   4.756  13.251  13.382  0.1292 -0.1426 -0.2589
30999SOL    HW110989   4.730  13.332  13.427 -1.3910 -0.6961 -0.0783
30999SOL    HW210990   4.843  13.231  13.417 -0.7549 -0.2418  2.0638
31000SOL     OW10991   7.368   3.342   4.227  0.4025 -0.1706  0.6759
31000SOL    HW110992   7.292   3.285   4.216 -0.4547  0.8866  0.9994
31000SOL    HW210993   7.411   3.310   4.307  1.4697 -2.0376 -0.5609
31001SOL     OW10994   4.205   1.985   2.378 -0.0600  0.3781 -0.1723
31001SOL    HW110995   4.284   2.000   2.326  0.0022  2.7802  0.5095
31001SOL    HW210996   4.215   2.042   2.454 -1.4523 -0.9431  1.0737
31002SOL     OW10997   2.039  12.723   8.655 -0.3111 -0.0462 -0.3431
31002SOL    HW110998   2.070  12.809   8.626  1.8096 -0.8434 -0.6695
31002SOL    HW210999   2.071  12.715   8.745 -0.1404 -0.6348 -0.4493
31003SOL     OW11000   2.678  11.875   3.627 -0.2920 -0.6284 -0.2064
31003SOL    HW111001   2.687  11.897   3.720 -0.9982 -0.4989 -0.1586
31003SOL    HW211002   2.603  11.927   3.598 -2.2138 -3.1130 -0.0369
31004SOL     OW11003   8.513   1.286  13.134 -0.2060 -0.0459  0.4477
31004SOL    HW111004   8.449   1.215  13.133 -1.1927  0.8311 -0.4871
31004SOL    HW211005   8.597   1.242  13.119 -0.5486 -1.2098  1.6379
31005SOL     OW11006   2.737   7.675  11.896 -0.0432 -0.2654 -0.0606
31005SOL    HW111007   2.802   7.608  11.917  0.3011  0.5031  1.5514
31005SOL    HW211008   2.777   7.757  11.925 -1.3421  0.3392  0.1088
31006SOL     OW11009   5.995  11.188   4.873 -0.4610 -0.2634  0.5694
31006SOL    HW111010   6.013  11.276   4.840  0.6763 -0.3950  0.8070
31006SOL    HW211011   6.053  11.178   4.948  1.3191 -2.1058 -0.9186
31007SOL     OW11012  12.778   5.114   7.702 -0.0041 -0.3689 -1.0761
31007SOL    HW111013  12.839   5.049   7.669 -0.1043 -0.2836 -1.4305
31007SOL    HW211014  12.714   5.064   7.752  0.2773 -0.4725 -0.8194
31008SOL     OW11015   3.589   7.231   7.518 -0.4375 -0.2302 -0.6019
31008SOL    HW111016   3.658   7.266   7.574  1.2431  1.0354 -3.2080
31008SOL    HW211017   3.628   7.153   7.478 -1.2942 -0.6669 -0.6039
31009SOL     OW11018   4.719   6.121  10.479  0.2081  0.1620  0.0598
31009SOL    HW111019   4.797   6.131  10.534  0.5364 -1.2693 -0.0958
31009SOL    HW211020   4.741   6.048  10.421 -1.5873 -0.8897  0.6428
31010SOL     OW11021   8.157   1.703  13.934  0.0051  0.1496 -0.2683
31010SOL    HW111022   8.238   1.727  13.889 -0.1045  1.1594  0.0488
31010SOL    HW211023   8.090   1.710  13.866  0.2772 -1.5947 -0.7742
31011SOL     OW11024  14.069   2.519  11.103  0.2305  0.4617 -0.1252
31011SOL    HW111025  14.128   2.483  11.169  0.4052 -0.3493 -0.7110
31011SOL    HW211026  14.064   2.612  11.124  1.6765  0.5449 -0.0265
31012SOL     OW11027  11.372   9.579   0.695 -0.1706 -0.2355 -0.3313
31012SOL    HW111028  11.404   9.544   0.777 -0.3386  1.9069  0.7199
31012SOL    HW211029  11.438   9.643   0.668 -0.5201 -0.3059 -1.4203
31013SOL     OW11030  10.371  11.070   8.839  0.3252 -0.0597  0.1579
31013SOL    HW111031  10.295  11.064   8.897  0.6591 -0.9576  0.5180
31013SOL    HW211032  10.413  11.152   8.864  2.1468 -1.7627  3.3334
31014SOL     OW11033   0.690  11.450   1.814 -0.1947 -0.4369  0.0296
31014SOL    HW111034   0.738  11.436   1.732 -0.1422  0.6138 -0.1407
31014SOL    HW211035   0.599  11.458   1.788  0.0912  2.8734 -0.3814
31015SOL     OW11036  12.085   1.420  12.139  0.3287 -0.4235 -0.1010
31015SOL    HW111037  12.146   1.483  12.101 -0.9045  0.8946  0.0357
31015SOL    HW211038  12.037   1.469  12.206 -0.3595 -1.6267  0.3316
31016SOL     OW11039   2.654  13.087   2.522  0.6312  0.0611 -0.4369
31016SOL    HW111040   2.582  13.136   2.563  0.4351 -0.0710 -0.6165
31016SOL    HW211041   2.637  12.996   2.546  0.9275  0.0642 -0.2046
31017SOL     OW11042   7.394   0.263  10.957  0.2085 -0.5038  0.0972
31017SOL    HW111043   7.345   0.238  11.036 -1.7966 -1.0446 -1.2166
31017SOL    HW211044   7.361   0.350  10.935  0.0886 -0.7158 -0.5955
31018SOL     OW11045   9.619  14.037   4.044  0.0844  0.0292  0.1649
31018SOL    HW111046   9.524  14.046   4.047  0.1690  0.5641  1.7358
31018SOL    HW211047   9.652  14.127   4.044  0.6034 -0.1296 -1.2349
31019SOL     OW11048   9.538  11.199   2.877  0.2160 -0.3423  0.1801
31019SOL    HW111049   9.576  11.204   2.965  0.4022  1.9385  0.0134
31019SOL    HW211050   9.444  11.214   2.891 -0.0321 -1.7154  0.1350
31020SOL     OW11051   9.077   9.856   9.904  0.1061  0.3328 -0.3373
31020SOL    HW111052   9.160   9.896   9.879  0.0475 -0.1869 -1.4336
31020SOL    HW211053   9.058   9.795   9.833 -0.5790 -0.4988  0.5416
31021SOL     OW11054   1.608  12.587   9.829  0.2042 -0.1967  0.2412
31021SOL    HW111055   1.689  12.597   9.880  0.2731  0.5343  0.0072
31021SOL    HW211056   1.613  12.656   9.763 -1.2157  0.7296  1.0385
31022SOL     OW11057   0.312  12.844   1.328 -0.3733  0.2171 -0.0608
31022SOL    HW111058   0.287  12.936   1.318 -3.9479 -0.6010  0.0955
31022SOL    HW211059   0.272  12.816   1.410  0.9506 -1.4064  0.0880
31023SOL     OW11060   6.150   3.354  10.209  0.7548 -0.0387 -0.7881
31023SOL    HW111061   6.080   3.369  10.273  0.4758  1.8207 -1.4683
31023SOL    HW211062   6.217   3.306  10.259 -0.7924 -1.5409 -0.0321
31024SOL     OW11063   6.944   4.666   7.719 -0.7515 -0.1005 -0.3601
31024SOL    HW111064   7.019   4.725   7.711 -0.2663 -0.7085 -0.3003
31024SOL    HW211065   6.974   4.596   7.776 -1.7607  0.2757  0.6768
31025SOL     OW11066  12.591   7.469   8.171  0.5944  0.2876  0.1838
31025SOL    HW111067  12.513   7.524   8.170 -0.0672 -0.6247  0.8671
31025SOL    HW211068  12.653   7.515   8.113  0.3456  2.1365  1.3077
31026SOL     OW11069   8.078  11.117   5.066  0.1031  0.4325  0.1559
31026SOL    HW111070   8.014  11.057   5.028  2.2152 -0.6378 -1.9943
31026SOL    HW211071   8.136  11.061   5.117  1.4753  0.7224 -1.0076
31027SOL     OW11072   6.150   3.929  13.324 -0.1131 -0.5747  0.3113
31027SOL    HW111073   6.082   3.931  13.391 -0.9956 -0.6221 -0.5669
31027SOL    HW211074   6.137   3.845  13.279  0.3913 -0.4892  0.0025
31028SOL     OW11075   1.301  12.192  12.002  0.4973  0.2805 -0.6148
31028SOL    HW111076   1.245  12.151  12.067  0.7129  2.4447  1.0662
31028SOL    HW211077   1.323  12.122  11.940  0.1356 -1.8253  1.5264
31029SOL     OW11078  14.117  12.802   6.810  0.7204  0.2359  1.2910
31029SOL    HW111079  14.095  12.855   6.733  2.4518 -0.4738  0.2519
31029SOL    HW211080  14.050  12.734   6.812  0.8630  0.0407  0.1622
31030SOL     OW11081   7.247   6.277  11.449 -0.1213 -0.2077  0.3177
31030SOL    HW111082   7.329   6.309  11.486 -0.7265  1.3442  0.4017
31030SOL    HW211083   7.274   6.228  11.371  0.7934  3.2774 -1.7839
31031SOL     OW11084  12.760   2.646  12.284  0.6775 -0.8529 -0.1797
31031SOL    HW111085  12.687   2.708  12.284 -1.2107 -2.8536  2.1682
31031SOL    HW211086  12.721   2.562  12.258  2.1217 -1.9680  1.0193
31032SOL     OW11087   8.854  12.465  10.853 -0.5714  0.0958 -0.2681
31032SOL    HW111088   8.767  12.452  10.815 -0.6879  2.0871 -0.8228
31032SOL    HW211089   8.913  12.460  10.777 -0.4214  0.6516 -0.1887
31033SOL     OW11090   9.124   4.153  10.384  0.8382 -0.2932 -0.2969
31033SOL    HW111091   9.135   4.247  10.399  0.6491 -0.2859 -0.1945
31033SOL    HW211092   9.035   4.145  10.350  0.6542 -0.4912  0.2142
31034SOL     OW11093   2.230   0.593   0.770 -0.1448 -0.2065  0.0343
31034SOL    HW111094   2.188   0.580   0.855  1.5823 -1.8084  0.7094
31034SOL    HW211095   2.158   0.609   0.709 -1.7441 -2.3769  1.2135
31035SOL     OW11096   6.426   2.776   7.207 -0.1755  0.5630  0.5034
31035SOL    HW111097   6.370   2.851   7.185  0.5043  0.2138 -3.0849
31035SOL    HW211098   6.500   2.814   7.253 -0.6612  1.8659  0.2596
31036SOL     OW11099   7.138   1.530   8.279 -0.4074 -0.2978  0.4676
31036SOL    HW111100   7.061   1.587   8.269  0.6305  1.0545 -0.0699
31036SOL    HW211101   7.156   1.530   8.373 -1.9375 -1.8787  0.8278
31037SOL     OW11102   1.163   9.895  13.017 -1.0405 -0.0835 -0.1931
31037SOL    HW111103   1.230   9.917  12.952  0.1491  0.5212  1.1802
31037SOL    HW211104   1.176   9.802  13.035 -1.9363 -0.4661 -1.4121
31038SOL     OW11105  10.036   2.306  11.522  0.1609 -0.5837 -0.2142
31038SOL    HW111106  10.040   2.396  11.493 -1.4671 -1.1400 -2.4505
31038SOL    HW211107  10.033   2.311  11.618 -2.1668  1.8832 -0.3134
31039SOL     OW11108   9.733   1.087   1.127 -0.5830  0.7771  0.0725
31039SOL    HW111109   9.749   1.021   1.194  0.6115  0.8738 -0.1008
31039SOL    HW211110   9.678   1.042   1.062  1.4829 -0.5975 -0.8377
31040SOL     OW11111   6.489  13.633   1.697  0.2634  0.7723  0.4315
31040SOL    HW111112   6.584  13.627   1.682  0.2370  2.2308 -0.5464
31040SOL    HW211113   6.461  13.703   1.638 -1.5262 -0.0273  0.2879
31041SOL     OW11114  11.528   6.612   7.210 -0.2821  0.3711 -0.3676
31041SOL    HW111115  11.561   6.527   7.180 -1.1026  0.2059 -0.8251
31041SOL    HW211116  11.573   6.676   7.153 -0.0179  0.2153 -0.3355
31042SOL     OW11117   1.319   0.814   5.081  0.0593 -0.0646 -0.6034
31042SOL    HW111118   1.332   0.767   5.164 -0.8831 -0.4024 -0.6419
31042SOL    HW211119   1.276   0.895   5.107 -1.4760 -0.7500 -0.8632
31043SOL     OW11120   6.955   9.171   2.327 -0.1104 -0.6848 -0.1902
31043SOL    HW111121   6.914   9.256   2.316 -0.4696 -0.6989  0.9068
31043SOL    HW211122   7.039   9.190   2.368  0.2842 -0.7893 -0.9225
31044SOL     OW11123   9.914   7.603  12.847 -0.2401  0.3950 -0.1161
31044SOL    HW111124   9.943   7.561  12.928  0.2809 -0.5019 -0.7414
31044SOL    HW211125   9.986   7.589  12.786 -1.2753 -0.3752 -1.2078
31045SOL     OW11126   1.534   3.541  11.604 -0.0021  0.3982  0.1074
31045SOL    HW111127   1.556   3.455  11.570 -1.1640 -0.0821  0.5472
31045SOL    HW211128   1.619   3.583  11.618  0.5535  0.1055 -2.0181
31046SOL     OW11129  10.477   9.642  10.079  0.3041  0.4367 -0.5571
31046SOL    HW111130  10.521   9.637   9.994  1.0483 -2.9931 -0.1254
31046SOL    HW211131  10.548   9.639  10.143 -0.3131 -2.6820  0.1327
31047SOL     OW11132  12.130   6.743   7.043 -0.2380 -0.1150  0.3839
31047SOL    HW111133  12.127   6.733   7.138 -0.0298 -1.2906  0.2888
31047SOL    HW211134  12.204   6.801   7.027 -1.1417  1.2697  0.9905
31048SOL     OW11135   0.480   6.260   6.832 -0.1992 -0.1255 -0.7503
31048SOL    HW111136   0.397   6.295   6.864  0.3942 -1.2423  2.4672
31048SOL    HW211137   0.530   6.337   6.805 -1.3267  0.8163 -0.2405
31049SOL     OW11138   1.460   4.339  10.808  0.3954  0.8696 -0.2096
31049SOL    HW111139   1.538   4.394  10.815  0.3576  0.8904  0.0668
31049SOL    HW211140   1.395   4.393  10.765  0.8044  0.5648 -1.2391
31050SOL     OW11141  10.842   9.616   4.846  0.4601  0.1306 -0.7060
31050SOL    HW111142  10.810   9.650   4.929  0.5326 -0.5475 -0.4016
31050SOL    HW211143  10.856   9.694   4.792  1.4950  0.6701  0.2921
31051SOL     OW11144   9.372  13.441  11.846  0.0456 -0.1360 -0.0375
31051SOL    HW111145   9.330  13.443  11.932 -0.8236 -0.1762 -0.4501
31051SOL    HW211146   9.299  13.442  11.784  0.6675 -0.0256 -0.7758
31052SOL     OW11147   3.584   5.866   1.502  0.7355  0.7106 -0.1180
31052SOL    HW111148   3.564   5.958   1.486  1.8072  0.8957 -0.4332
31052SOL    HW211149   3.638   5.839   1.427  1.5408  0.1972  0.6295
31053SOL     OW11150   4.532  12.509   3.361  0.1095  0.0239  0.1005
31053SOL    HW111151   4.550  12.599   3.334 -0.8417 -0.0561 -0.9049
31053SOL    HW211152   4.607  12.484   3.414 -0.0566  1.7377  1.2141
31054SOL     OW11153   2.034   7.016   0.368  0.7644  0.4170  0.1308
31054SOL    HW111154   2.020   6.928   0.334  0.8424  0.7662 -0.8273
31054SOL    HW211155   2.012   7.074   0.295 -1.6555  1.3170  1.4586
31055SOL     OW11156  11.762   0.387   2.156 -0.3333  0.4873 -0.2697
31055SOL    HW111157  11.741   0.447   2.228 -1.2661  0.0389 -0.1406
31055SOL    HW211158  11.826   0.326   2.194  0.9100  1.6077 -0.5214
31056SOL     OW11159   0.786  11.864   4.678 -0.6001  0.3123  0.0672
31056SOL    HW111160   0.872  11.868   4.720 -1.2967  0.4101  1.5335
31056SOL    HW211161   0.786  11.939   4.618 -0.0208  0.8897  0.7624
31057SOL     OW11162   2.889  10.006   2.227  0.4584  0.5296 -0.1209
31057SOL    HW111163   2.821   9.995   2.294 -0.0062 -0.5880 -0.7498
31057SOL    HW211164   2.890   9.923   2.180  2.8013  0.2103  0.3575
31058SOL     OW11165  12.274  10.159  12.433  0.0771  0.0001 -0.2565
31058SOL    HW111166  12.344  10.136  12.494  0.5882 -0.4842 -1.0242
31058SOL    HW211167  12.282  10.254  12.422 -0.8116  0.3200  1.3892
31059SOL     OW11168   6.112   3.100   2.077 -0.7578  0.3133  0.1600
31059SOL    HW111169   6.062   3.181   2.063 -1.1490  0.2223  0.9477
31059SOL    HW211170   6.161   3.117   2.158 -2.3723 -0.9373  1.4722
31060SOL     OW11171  13.344  12.629   2.925 -0.7973  0.1067  0.1834
31060SOL    HW111172  13.382  12.713   2.900 -0.3166  0.1321  0.9508
31060SOL    HW211173  13.323  12.585   2.843 -0.5990  0.7746 -0.2225
31061SOL     OW11174   2.897  11.107   7.954 -0.5768 -0.1391 -0.0129
31061SOL    HW111175   2.989  11.115   7.930 -0.1374 -0.4861  1.4524
31061SOL    HW211176   2.897  11.055   8.035 -2.2324 -2.2854 -1.2584
31062SOL     OW11177  10.348   5.232  10.455 -0.2951 -0.1348  0.6358
31062SOL    HW111178  10.328   5.232  10.361  0.7626  2.5447  0.3227
31062SOL    HW211179  10.425   5.175  10.463  1.2931  1.6932 -0.6410
31063SOL     OW11180   7.557  11.512   2.059  0.0774  0.0043 -0.2779
31063SOL    HW111181   7.521  11.425   2.076 -0.5633  0.6623  2.1309
31063SOL    HW211182   7.481  11.571   2.067  0.5009  0.8024 -1.8583
31064SOL     OW11183   8.028   2.018   4.687 -0.5059  0.4404 -0.1044
31064SOL    HW111184   8.102   1.990   4.633  0.6629 -0.1676  1.7026
31064SOL    HW211185   7.961   2.044   4.624  0.7239 -0.3234 -1.8291
31065SOL     OW11186   8.927   6.603  11.409  0.0244 -0.5942 -0.2337
31065SOL    HW111187   8.953   6.595  11.501  0.3349 -0.3798 -0.2994
31065SOL    HW211188   8.915   6.512  11.380  0.4668 -0.6894 -0.1310
31066SOL     OW11189   3.660   8.196   4.135  0.0132  0.2627  0.1554
31066SOL    HW111190   3.725   8.140   4.093  0.5786 -0.2475  1.6238
31066SOL    HW211191   3.585   8.194   4.076  0.8262 -0.2580 -0.9002
31067SOL     OW11192   8.759   9.880  10.960  0.2325  0.0243  0.0957
31067SOL    HW111193   8.678   9.923  10.932 -0.7224 -2.4415 -1.2582
31067SOL    HW211194   8.745   9.861  11.053 -0.9074 -0.6187 -0.1886
31068SOL     OW11195  10.469   7.431   7.955 -0.5332 -0.0254  0.4407
31068SOL    HW111196  10.409   7.432   8.030 -1.1635  0.7344 -0.0634
31068SOL    HW211197  10.518   7.349   7.965 -3.3527 -1.9953 -0.4841
31069SOL     OW11198   4.039   0.247   0.330  0.1685  0.0554  0.0728
31069SOL    HW111199   3.998   0.289   0.405 -0.4016 -1.6147  0.7221
31069SOL    HW211200   3.966   0.218   0.276  0.5678  1.2649 -1.1956
31070SOL     OW11201   6.294  11.148   4.025 -0.0649  0.3036 -0.6762
31070SOL    HW111202   6.322  11.179   4.111  1.3468  0.4213 -1.1417
31070SOL    HW211203   6.288  11.053   4.034  1.2648  0.1860 -0.7235
31071SOL     OW11204   4.141   8.452  12.047 -0.2922  0.1029 -0.1645
31071SOL    HW111205   4.152   8.357  12.055 -1.1424 -0.0299 -0.4922
31071SOL    HW211206   4.071   8.473  12.109  1.6917  0.9372  1.9537
31072SOL     OW11207   7.940   2.078   1.354  0.0626 -0.2842  0.0243
31072SOL    HW111208   7.935   2.034   1.439 -1.0063  0.0397  0.1474
31072SOL    HW211209   7.871   2.036   1.301 -2.4764  2.5587  0.8072
31073SOL     OW11210  11.872   9.567  12.305 -0.3273 -0.8599 -0.3593
31073SOL    HW111211  11.859   9.654  12.343  0.4957 -0.8796 -0.0025
31073SOL    HW211212  11.853   9.578  12.212  1.1745  0.0543 -0.5896
31074SOL     OW11213   3.617   8.897   4.167 -0.5156 -0.0466  0.6010
31074SOL    HW111214   3.680   8.959   4.129 -1.3831  1.3636  1.3707
31074SOL    HW211215   3.669   8.843   4.227  0.2975 -0.2278 -0.2415
31075SOL     OW11216  10.374   9.314  10.383 -0.0886 -0.3481 -0.5073
31075SOL    HW111217  10.450   9.364  10.411 -1.6901  2.1736 -0.3844
31075SOL    HW211218  10.318   9.309  10.460 -0.0939 -2.2364 -0.5759
31076SOL     OW11219   2.532   9.199   2.223  0.0594  0.3449 -0.3116
31076SOL    HW111220   2.526   9.290   2.252 -1.2833  0.5554 -1.1527
31076SOL    HW211221   2.488   9.198   2.138  0.3673 -1.0232 -0.4774
31077SOL     OW11222   2.313  12.393   1.965 -0.0659  0.1676 -0.2329
31077SOL    HW111223   2.325  12.360   2.054  0.5724 -1.0888 -0.7599
31077SOL    HW211224   2.219  12.410   1.958 -0.1110  0.3386  0.6926
31078SOL     OW11225   4.344   3.584   4.732 -0.0406  0.2632  0.1283
31078SOL    HW111226   4.290   3.534   4.671 -0.8440 -0.1121  1.1183
31078SOL    HW211227   4.370   3.521   4.799 -0.1214  0.9015  0.7745
31079SOL     OW11228   7.057   7.713   3.406  0.1647 -0.6681  0.2956
31079SOL    HW111229   6.986   7.757   3.452  0.7667  0.7301 -0.0576
31079SOL    HW211230   7.115   7.681   3.476  1.3278  1.8680  0.6082
31080SOL     OW11231   1.652   4.592   4.154  0.3568  0.6593  0.5088
31080SOL    HW111232   1.570   4.555   4.121 -0.4875  1.5127  1.5706
31080SOL    HW211233   1.645   4.581   4.249  1.3000  1.1128  0.6318
31081SOL     OW11234  10.881   5.328   9.209  0.4363 -1.0514 -0.4393
31081SOL    HW111235  10.966   5.369   9.220  0.0412 -0.0255 -1.0798
31081SOL    HW211236  10.855   5.303   9.298  0.4116  0.6896  0.0840
31082SOL     OW11237   0.909   2.475   6.541  0.3905 -0.1964 -0.1661
31082SOL    HW111238   0.873   2.528   6.469  0.5369  0.3730  0.1714
31082SOL    HW211239   0.886   2.524   6.620 -1.2016 -1.6285  0.3151
31083SOL     OW11240   9.596   5.086   1.227 -0.1746 -0.1949 -0.5005
31083SOL    HW111241   9.576   4.993   1.211  2.1793 -0.7663 -0.5266
31083SOL    HW211242   9.528   5.133   1.179 -0.9761 -1.8985 -1.1437
31084SOL     OW11243   2.213  11.848  12.705 -0.1319  0.3048  0.2750
31084SOL    HW111244   2.195  11.763  12.666 -2.5150  0.4531  0.8976
31084SOL    HW211245   2.288  11.882  12.656  0.3227 -1.7532 -0.5483
31085SOL     OW11246  12.339   6.702   3.606 -0.4747  0.1852  0.0269
31085SOL    HW111247  12.402   6.764   3.643  1.1831 -0.2215 -1.9304
31085SOL    HW211248  12.326   6.637   3.674  3.5795 -1.3441 -0.3712
31086SOL     OW11249   7.200  12.086   5.370  0.4263  0.1973  0.7486
31086SOL    HW111250   7.237  12.108   5.284  0.4085  0.0366  0.6998
31086SOL    HW211251   7.240  12.149   5.430  3.1231 -1.8056  1.2349
31087SOL     OW11252   0.430   0.117   4.177 -0.7719  0.0059 -0.3381
31087SOL    HW111253   0.339   0.087   4.175 -0.0065 -2.4572 -0.6986
31087SOL    HW211254   0.444   0.143   4.268 -1.3829 -1.1400  0.1074
31088SOL     OW11255   9.210  10.921   7.846  0.0941  0.3081  0.0334
31088SOL    HW111256   9.194  10.882   7.931 -1.4827  0.8650  0.0208
31088SOL    HW211257   9.228  11.013   7.865  0.8516  0.2040 -0.1564
31089SOL     OW11258   7.719   2.987  10.579  0.3534  0.3366 -0.0062
31089SOL    HW111259   7.797   2.968  10.528  0.4013 -1.1708  0.5871
31089SOL    HW211260   7.688   2.902  10.609 -0.0959  1.0844  1.8378
31090SOL     OW11261   4.562   1.766   0.040 -0.1883  0.1744 -0.3119
31090SOL    HW111262   4.645   1.814   0.045  0.2382 -0.5954  0.1486
31090SOL    HW211263   4.516   1.805  -0.035  1.2326 -0.3951 -1.5215
31091SOL     OW11264   6.538  11.964   6.720  0.5651 -0.1118 -0.0937
31091SOL    HW111265   6.618  11.968   6.774  1.3859 -1.4041 -1.1671
31091SOL    HW211266   6.504  11.876   6.735  1.3113 -0.8323 -2.3268
31092SOL     OW11267  13.086   4.287  10.779  0.6891 -0.5788 -0.1379
31092SOL    HW111268  13.142   4.324  10.711  0.7135 -0.8534 -0.2678
31092SOL    HW211269  13.115   4.196  10.788  2.9041  0.2826  2.5552
31093SOL     OW11270   6.456   1.824   0.737 -0.1917  0.0541 -0.2283
31093SOL    HW111271   6.502   1.765   0.679 -0.3032 -0.7199  0.4469
31093SOL    HW211272   6.403   1.767   0.793 -1.0437  0.8468 -0.1940
31094SOL     OW11273   0.020   6.785   7.626  0.4596 -0.5282 -0.3533
31094SOL    HW111274  -0.011   6.748   7.708  1.1289 -1.9161 -0.6911
31094SOL    HW211275  -0.035   6.862   7.611  0.5981 -0.0055  1.5808
31095SOL     OW11276   9.529  13.384   7.808 -0.4080  0.2645  0.5065
31095SOL    HW111277   9.463  13.340   7.862 -1.6587 -1.3584 -2.0892
31095SOL    HW211278   9.481  13.410   7.729  0.9561  3.9031  0.6898
31096SOL     OW11279   8.382   7.181  12.930  0.0521 -0.2120 -0.5028
31096SOL    HW111280   8.464   7.229  12.916 -0.6624  1.1440 -0.2578
31096SOL    HW211281   8.314   7.243  12.904 -1.0612  0.0581  2.6648
31097SOL     OW11282   4.700   4.005   4.825 -0.5886  0.1879  0.5219
31097SOL    HW111283   4.630   3.941   4.832 -0.2863 -0.2097 -0.0798
31097SOL    HW211284   4.755   3.989   4.902 -1.0473  0.3795  0.8958
31098SOL     OW11285  11.359   1.007   1.512  0.0734 -0.4382 -0.5316
31098SOL    HW111286  11.425   0.944   1.482  1.8162  0.9923  0.1036
31098SOL    HW211287  11.332   1.053   1.433 -1.3000 -1.9901 -1.0205
31099SOL     OW11288   3.081  11.118   8.701 -0.6246 -0.3827  0.0351
31099SOL    HW111289   2.991  11.089   8.683 -0.8826 -0.5148  1.4757
31099SOL    HW211290   3.071  11.195   8.756  0.1540 -1.1915  1.3508
31100SOL     OW11291   8.937   5.827   9.932 -0.4124 -0.3599  0.4753
31100SOL    HW111292   8.988   5.838  10.013  1.5605  0.3588 -0.7790
31100SOL    HW211293   8.967   5.743   9.896  0.7132  0.5326 -0.7792
31101SOL     OW11294   7.971  12.612  10.486 -0.5321 -0.0739 -0.4303
31101SOL    HW111295   7.919  12.670  10.430 -0.5916 -1.4657 -1.8625
31101SOL    HW211296   8.062  12.636  10.467 -0.4626 -1.8020 -2.6450
31102SOL     OW11297   7.610   0.331   4.938 -0.1880  0.4698 -0.3644
31102SOL    HW111298   7.655   0.251   4.908 -0.8917 -0.4241  0.8669
31102SOL    HW211299   7.583   0.310   5.027 -0.3191  2.1387  0.0047
31103SOL     OW11300   7.913   9.478   7.610 -0.2486 -0.3424 -0.0222
31103SOL    HW111301   7.830   9.449   7.571 -1.9316  2.4948  1.1738
31103SOL    HW211302   7.952   9.536   7.544 -1.4606  1.8022  1.0461
31104SOL     OW11303   8.351   2.535  11.274 -0.2282  0.5779 -0.6540
31104SOL    HW111304   8.307   2.616  11.245  1.1877  1.6133 -0.0057
31104SOL    HW211305   8.435   2.564  11.309 -1.0830 -0.7192  2.9743
31105SOL     OW11306   8.498   5.564   9.785 -0.4502  0.1347  0.5200
31105SOL    HW111307   8.561   5.577   9.714 -0.4844  1.7366  0.7533
31105SOL    HW211308   8.430   5.510   9.747 -0.4749  0.9869 -0.6856
31106SOL     OW11309   1.567  10.195   6.713  0.0271 -0.2884  0.1525
31106SOL    HW111310   1.545  10.179   6.621  0.6588  0.3992 -0.1219
31106SOL    HW211311   1.501  10.146   6.762  0.1749 -1.3403 -0.6672
31107SOL     OW11312  12.797   7.582   4.555  0.3298 -0.3831  0.3174
31107SOL    HW111313  12.798   7.486   4.548 -0.9760 -0.4784  1.1832
31107SOL    HW211314  12.709   7.607   4.529  0.5355  0.5479  0.4960
31108SOL     OW11315   9.198  13.510  10.409  0.1720  0.2721 -0.2631
31108SOL    HW111316   9.146  13.535  10.486  0.6108  2.7226 -0.6839
31108SOL    HW211317   9.255  13.439  10.441 -1.1959 -0.2955  1.0395
31109SOL     OW11318   0.929   4.729   4.407  0.0495 -0.3204 -0.1059
31109SOL    HW111319   0.960   4.818   4.389 -1.1508 -0.1325 -1.4526
31109SOL    HW211320   0.835   4.733   4.390  0.1000 -2.0301 -1.0326
31110SOL     OW11321   0.070   0.169  11.322  0.2359  0.1919 -0.0942
31110SOL    HW111322   0.165   0.169  11.329  0.1589  0.7547  1.2682
31110SOL    HW211323   0.040   0.201  11.408 -1.2117 -1.2205 -0.0418
31111SOL     OW11324   4.815  10.180   5.030  0.5493 -0.7535 -0.2412
31111SOL    HW111325   4.822  10.085   5.036  0.6852 -0.7362 -0.1438
31111SOL    HW211326   4.823  10.199   4.936  2.7402 -0.6545 -0.0827
31112SOL     OW11327   3.330  13.893   2.284 -0.4611 -0.4261 -0.0005
31112SOL    HW111328   3.237  13.899   2.305 -0.4240  1.0648 -0.1546
31112SOL    HW211329   3.368  13.842   2.356 -1.6116 -2.4509 -0.7438
31113SOL     OW11330   0.925   6.743   0.123 -0.6619 -0.0703 -0.4686
31113SOL    HW111331   0.847   6.778   0.166  0.2311  2.4327 -0.7454
31113SOL    HW211332   0.891   6.685   0.055 -2.2262 -0.1140  0.2991
31114SOL     OW11333  11.484   5.356   9.500  0.7805  0.1754  0.7139
31114SOL    HW111334  11.484   5.328   9.592 -0.2856  2.0214  1.3415
31114SOL    HW211335  11.576   5.373   9.480  1.3947 -2.8850  0.4989
31115SOL     OW11336   6.173  10.672   7.105  0.2135  0.9386 -0.6519
31115SOL    HW111337   6.171  10.687   7.010  0.2427  1.2908 -0.5997
31115SOL    HW211338   6.162  10.759   7.143 -1.0568  0.6549 -0.3209
31116SOL     OW11339  12.077   5.659   5.556  0.2846  0.2652 -0.7986
31116SOL    HW111340  12.069   5.581   5.612 -1.0526  0.9293 -0.0006
31116SOL    HW211341  11.990   5.670   5.518  1.0465  0.1067 -2.6985
31117SOL     OW11342  13.128   0.768   7.750  0.0763  0.3845 -0.0219
31117SOL    HW111343  13.082   0.849   7.727 -0.7465  0.7761  2.6123
31117SOL    HW211344  13.215   0.797   7.778 -0.1441  0.3633  0.7111
31118SOL     OW11345   2.017   3.168   2.153 -0.6754  0.2384  0.1827
31118SOL    HW111346   2.072   3.090   2.155 -0.3218  0.5098  1.8025
31118SOL    HW211347   1.932   3.136   2.122 -0.1948 -0.5489 -0.3600
31119SOL     OW11348   5.676  13.281  12.126 -0.1665 -0.2188  0.2805
31119SOL    HW111349   5.674  13.377  12.118 -0.0209 -0.1475  0.9962
31119SOL    HW211350   5.754  13.263  12.178  1.0500 -0.8937 -1.6883
31120SOL     OW11351  13.639   1.432  10.712  0.0765  0.1822 -0.3939
31120SOL    HW111352  13.561   1.450  10.765 -0.2023 -0.0406 -0.7297
31120SOL    HW211353  13.674   1.519  10.692  0.3371  0.2653  0.3777
31121SOL     OW11354   5.687  12.921   6.684 -0.0467 -1.1924 -0.1096
31121SOL    HW111355   5.754  12.953   6.623  1.2669 -1.3504  1.2050
31121SOL    HW211356   5.678  12.991   6.749 -0.7891 -1.3977  0.0210
31122SOL     OW11357   5.727   9.265  10.570 -0.4421 -0.2066 -0.1742
31122SOL    HW111358   5.731   9.325  10.495 -1.4107 -2.0888 -1.8258
31122SOL    HW211359   5.706   9.322  10.644  0.5704  1.7353 -1.2912
31123SOL     OW11360   2.678  13.395   0.828 -0.1064 -0.1377  0.6130
31123SOL    HW111361   2.752  13.343   0.860 -0.4560 -1.1018 -0.0807
31123SOL    HW211362   2.609  13.330   0.812 -1.1248  0.7424  1.2830
31124SOL     OW11363   3.384  13.376   2.093 -0.0976 -0.1691 -0.0346
31124SOL    HW111364   3.439  13.339   2.161 -1.1035 -1.8015 -0.0518
31124SOL    HW211365   3.372  13.467   2.119  0.5030 -0.4544  1.3300
31125SOL     OW11366   9.554   9.089   5.892 -0.3817 -0.2616 -0.2716
31125SOL    HW111367   9.521   9.178   5.893  1.0353  0.3048 -0.8471
31125SOL    HW211368   9.581   9.071   5.982  0.0034  0.1633 -0.3018
31126SOL     OW11369  11.491   4.994  10.316 -0.4301 -0.7045 -0.1670
31126SOL    HW111370  11.531   5.057  10.375 -0.4381  0.5441 -1.4467
31126SOL    HW211371  11.541   4.913  10.330 -1.6762 -1.0637  2.9168
31127SOL     OW11372   0.588   8.630  13.590  0.2549  0.3232 -0.3474
31127SOL    HW111373   0.590   8.716  13.547 -1.1254  0.4916 -0.1231
31127SOL    HW211374   0.509   8.589  13.557  0.8700 -0.8582 -0.4031
31128SOL     OW11375   4.089   0.425  10.633  0.0200  0.4154 -0.0294
31128SOL    HW111376   4.018   0.448  10.573 -0.8599 -0.5170  0.6319
31128SOL    HW211377   4.155   0.383  10.578  0.7694  2.6251 -0.9113
31129SOL     OW11378   2.205   3.459  12.241 -0.5631 -0.8962  0.1935
31129SOL    HW111379   2.215   3.383  12.298  1.5494 -1.2986 -0.6440
31129SOL    HW211380   2.240   3.431  12.156  1.1132  1.2514  0.0974
31130SOL     OW11381  10.225  12.579  13.832 -0.0356 -0.1378 -0.3907
31130SOL    HW111382  10.280  12.657  13.840 -0.6218  0.4197 -1.5036
31130SOL    HW211383  10.285  12.509  13.809  0.4975 -0.0256  0.6105
31131SOL     OW11384  10.962  11.742   2.975  0.4287  0.0712 -0.3613
31131SOL    HW111385  11.053  11.711   2.968  0.8719  1.5261 -1.6759
31131SOL    HW211386  10.965  11.810   3.042  0.8775  1.7736 -1.9930
31132SOL     OW11387  13.771  11.100   8.395  0.1986 -0.6215 -0.3442
31132SOL    HW111388  13.688  11.147   8.390 -0.7793 -2.1290  0.7095
31132SOL    HW211389  13.802  11.096   8.305  0.8673  2.8026 -0.4052
31133SOL     OW11390   1.720   3.800   6.527  0.2339 -0.6355 -0.4237
31133SOL    HW111391   1.655   3.869   6.542 -0.1639 -1.2482  0.7578
31133SOL    HW211392   1.792   3.821   6.585  0.9247 -0.1962 -1.4240
31134SOL     OW11393  10.824   7.861   6.459 -0.0108 -0.3532 -0.3971
31134SOL    HW111394  10.821   7.795   6.529  1.0674 -2.3634 -2.1455
31134SOL    HW211395  10.738   7.856   6.418 -1.4307  2.2827  1.8835
31135SOL     OW11396   6.157   3.924  13.774 -0.1721 -0.0266  0.5731
31135SOL    HW111397   6.244   3.948  13.803 -1.1296  0.8615  2.9201
31135SOL    HW211398   6.123   3.868  13.844 -1.3949 -0.6320 -0.4546
31136SOL     OW11399   0.680   7.599   4.826 -0.7027 -0.1357  0.1194
31136SOL    HW111400   0.669   7.664   4.896  0.3994 -0.4857  0.6363
31136SOL    HW211401   0.666   7.649   4.745 -0.7249  0.5583  0.5419
31137SOL     OW11402   2.332   9.858   4.367 -0.9100 -0.0286  0.0611
31137SOL    HW111403   2.336   9.952   4.380 -1.0942  0.4801 -2.8257
31137SOL    HW211404   2.239   9.840   4.349 -0.5860 -0.3853 -1.4008
31138SOL     OW11405   7.470   5.177  13.424 -0.5748 -0.9136  0.3030
31138SOL    HW111406   7.533   5.232  13.470 -2.2338  0.7818  0.6466
31138SOL    HW211407   7.413   5.239  13.378 -2.5678 -2.3155  0.7632
31139SOL     OW11408  12.470  11.622   0.748  0.5455  0.9038 -1.0854
31139SOL    HW111409  12.476  11.542   0.697  2.4715  1.2752 -1.5381
31139SOL    HW211410  12.465  11.692   0.683 -0.8256  1.1805 -0.7020
31140SOL     OW11411  12.853   8.225   3.663  0.2925 -0.5465  0.1418
31140SOL    HW111412  12.891   8.308   3.633 -0.4193 -0.2773 -0.0452
31140SOL    HW211413  12.763   8.248   3.686  1.1886 -0.3561  4.1042
31141SOL     OW11414   1.160   8.884  10.655 -0.5084  0.0048 -0.5496
31141SOL    HW111415   1.239   8.829  10.658 -0.6566 -0.2131 -0.6363
31141SOL    HW211416   1.165   8.928  10.570 -0.9158 -0.6618 -0.9257
31142SOL     OW11417  12.103  11.753   3.938  0.2121  0.0017 -1.0377
31142SOL    HW111418  12.138  11.669   3.966  2.1516  0.6289 -1.3983
31142SOL    HW211419  12.009  11.747   3.953  0.2152 -2.4469 -1.6421
31143SOL     OW11420   7.747   1.484  10.489  0.2409 -0.3286  0.3348
31143SOL    HW111421   7.807   1.423  10.532 -0.1215 -1.8430 -1.2060
31143SOL    HW211422   7.662   1.465  10.527  0.1683 -0.6254  0.0272
31144SOL     OW11423   6.172  10.273   4.187 -0.1961  0.2082  0.5766
31144SOL    HW111424   6.226  10.348   4.212  0.2933  0.6217 -1.5703
31144SOL    HW211425   6.083  10.297   4.213  0.0668  1.2030  0.5842
31145SOL     OW11426   8.883   8.243   4.676 -0.0705  0.0584  0.2888
31145SOL    HW111427   8.933   8.266   4.754 -1.2145  1.0354  0.7586
31145SOL    HW211428   8.792   8.250   4.703 -0.4830  0.1902 -1.0675
31146SOL     OW11429   5.415   5.660   0.414 -0.0930 -0.4426  0.1084
31146SOL    HW111430   5.421   5.596   0.485 -2.3970  0.0154  0.8032
31146SOL    HW211431   5.355   5.621   0.351  0.8717 -0.2477 -0.9812
31147SOL     OW11432   1.605   5.107  13.759 -0.3031  0.2992  0.1284
31147SOL    HW111433   1.699   5.114  13.743 -0.5659  2.7311 -0.8332
31147SOL    HW211434   1.593   5.142  13.847 -0.2766 -0.5974  0.5023
31148SOL     OW11435   3.506   2.675   0.955 -0.2090 -0.4682  0.1499
31148SOL    HW111436   3.421   2.690   0.914 -0.6120 -1.7561  0.4678
31148SOL    HW211437   3.486   2.621   1.032  0.8800 -0.6968  0.2855
31149SOL     OW11438  12.873   0.817   8.272 -0.0661  0.2980  0.1045
31149SOL    HW111439  12.831   0.829   8.358 -1.0161  0.3107 -0.3488
31149SOL    HW211440  12.807   0.847   8.209  0.5187  0.0304 -0.6437
31150SOL     OW11441   8.933   7.772   4.435 -0.0149  0.1857  0.1501
31150SOL    HW111442   8.929   7.773   4.340 -0.9685  0.2061  0.1781
31150SOL    HW211443   9.026   7.778   4.456  0.3480 -1.6151 -0.7893
31151SOL     OW11444   0.470   1.344   5.291 -0.2055 -0.5734  0.0971
31151SOL    HW111445   0.408   1.414   5.272  0.8020  0.2845 -0.1170
31151SOL    HW211446   0.441   1.310   5.376 -0.6995  0.1023  0.2100
31152SOL     OW11447   4.919   8.273   9.392 -0.2017  0.2832 -0.0944
31152SOL    HW111448   4.995   8.298   9.446 -0.5316 -0.3158  0.6789
31152SOL    HW211449   4.952   8.200   9.339 -0.5043 -0.7025  1.0212
31153SOL     OW11450  10.422   8.669  11.714 -0.1511 -0.6486  0.0934
31153SOL    HW111451  10.425   8.574  11.726  0.3898 -0.4878  1.3898
31153SOL    HW211452  10.329   8.689  11.709 -0.2552 -1.3811 -1.5940
31154SOL     OW11453   1.143  10.831   0.531  0.2725  0.3991 -0.3537
31154SOL    HW111454   1.126  10.876   0.448  2.0675  1.4588 -0.1961
31154SOL    HW211455   1.184  10.749   0.507 -0.3948  0.1122 -0.5396
31155SOL     OW11456  10.867   3.601  13.927 -0.2786  0.1751  0.0969
31155SOL    HW111457  10.820   3.684  13.926  0.3625  0.5455 -0.9838
31155SOL    HW211458  10.959   3.625  13.928 -0.0770 -0.5019 -0.5468
31156SOL     OW11459  10.567   7.839   1.023  0.2410 -0.3084 -0.3002
31156SOL    HW111460  10.619   7.762   1.045  1.9189  0.9200  0.2288
31156SOL    HW211461  10.609   7.875   0.945 -0.5064  0.1000 -0.5283
31157SOL     OW11462  10.385   3.151  10.006 -0.4983  0.2910 -0.3772
31157SOL    HW111463  10.443   3.162  10.081 -0.9097  0.3690 -0.0671
31157SOL    HW211464  10.310   3.207  10.024  0.3275  1.9508 -1.8175
31158SOL     OW11465   3.321   3.719   2.396 -0.4705  0.0678  0.1616
31158SOL    HW111466   3.385   3.649   2.409 -3.0141 -2.5097 -0.2083
31158SOL    HW211467   3.275   3.725   2.480 -1.1981  0.3028 -0.2445
31159SOL     OW11468  10.225  10.745  12.107 -0.3109  0.3122  0.5105
31159SOL    HW111469  10.196  10.660  12.141 -1.7927  0.0739 -1.2005
31159SOL    HW211470  10.161  10.767  12.040  1.6628  1.4117 -1.1119
31160SOL     OW11471  10.444  12.113   0.500  0.4790 -0.1881  0.6976
31160SOL    HW111472  10.481  12.055   0.433 -0.5164  0.4467 -0.4422
31160SOL    HW211473  10.368  12.065   0.533  0.1730  0.0600  0.3763
31161SOL     OW11474   9.146   6.458   1.716 -0.6284 -0.5658 -0.4689
31161SOL    HW111475   9.095   6.534   1.744 -1.2803 -1.0605 -0.2730
31161SOL    HW211476   9.091   6.416   1.650 -0.2637 -0.8569 -0.5887
31162SOL     OW11477  13.867   8.426   3.917  0.7240  0.1812 -0.0945
31162SOL    HW111478  13.819   8.506   3.899  0.2038 -0.1487 -0.1981
31162SOL    HW211479  13.928   8.449   3.988  0.6720  0.6965 -0.2192
31163SOL     OW11480   8.329   6.312  11.106 -0.0285  0.0232  0.6387
31163SOL    HW111481   8.368   6.315  11.019 -1.0429  0.3304  0.1886
31163SOL    HW211482   8.322   6.404  11.132 -1.1351  0.0129  0.4000
31164SOL     OW11483   9.676  14.079   7.913 -0.3406  0.0194 -0.1781
31164SOL    HW111484   9.598  14.079   7.858  0.3916  3.3316 -1.4350
31164SOL    HW211485   9.749  14.070   7.852  0.3638 -0.8049  0.7551
31165SOL     OW11486  12.458  12.914   8.134  0.1442 -0.5049 -0.0345
31165SOL    HW111487  12.465  12.905   8.039 -0.2813 -1.7437  0.0229
31165SOL    HW211488  12.376  12.961   8.148  1.1855  1.4934 -0.3103
31166SOL     OW11489   4.319   8.240  12.638  0.2629  0.0640 -0.1821
31166SOL    HW111490   4.313   8.160  12.690 -1.0692 -0.7627 -1.5341
31166SOL    HW211491   4.319   8.311  12.703 -0.9615 -0.9322  0.9633
31167SOL     OW11492   2.360   9.026  11.879  0.7406  0.0127 -0.4238
31167SOL    HW111493   2.270   9.050  11.858  0.6108 -1.1180 -1.2834
31167SOL    HW211494   2.354   8.981  11.964  0.3853 -0.6433 -0.7892
31168SOL     OW11495   0.083   1.789   3.785 -0.2758 -0.1652  0.2382
31168SOL    HW111496   0.125   1.855   3.841 -1.2905  1.1364 -0.4884
31168SOL    HW211497   0.021   1.745   3.843  0.1925 -0.3011  0.6528
31169SOL     OW11498  13.310   5.162  12.132 -0.5083 -0.1754  0.0914
31169SOL    HW111499  13.234   5.174  12.076 -0.3631  2.4386  0.3497
31169SOL    HW211500  13.308   5.069  12.154 -1.3134 -1.0294 -3.1031
31170SOL     OW11501   9.925   3.376   1.990 -0.0730 -0.2936  0.0701
31170SOL    HW111502   9.990   3.379   2.060 -0.2930 -0.4700  0.2819
31170SOL    HW211503   9.973   3.340   1.915  0.2446  0.1803  0.0329
31171SOL     OW11504   9.916   9.446   7.461  0.3326  0.0838 -0.1538
31171SOL    HW111505  10.002   9.404   7.459  0.1237 -0.3321 -0.7916
31171SOL    HW211506   9.897   9.464   7.369  0.0389  0.8019  0.0410
31172SOL     OW11507   9.380   3.910   5.340 -0.1130  0.5793  0.1598
31172SOL    HW111508   9.328   3.872   5.410 -0.7029 -0.7541 -0.9509
31172SOL    HW211509   9.321   3.973   5.297  1.0311  3.3222  2.3341
31173SOL     OW11510   2.416  11.522   5.746 -0.0055  0.0348 -0.1297
31173SOL    HW111511   2.487  11.578   5.780  0.6190  0.4236 -1.9463
31173SOL    HW211512   2.373  11.489   5.824  2.2641 -0.3249  1.0773
31174SOL     OW11513   6.792  11.373  13.864  0.4548  0.1893 -0.2685
31174SOL    HW111514   6.731  11.380  13.937 -1.3090  0.2031 -1.6714
31174SOL    HW211515   6.823  11.282  13.868  1.6946  0.6386  1.4337
31175SOL     OW11516   4.735  13.470   9.809  0.2360  0.4670  0.7042
31175SOL    HW111517   4.780  13.394   9.846 -1.1083  0.3103  2.1286
31175SOL    HW211518   4.661  13.434   9.761  0.3917  0.8267  0.1803
31176SOL     OW11519   9.019   3.772  13.102  0.3406 -0.2166  0.2643
31176SOL    HW111520   9.045   3.697  13.049  0.0592  0.1476 -0.3970
31176SOL    HW211521   9.100   3.821  13.114  0.8317 -1.3303  1.8961
31177SOL     OW11522   8.445  12.205   3.975  0.2514  0.0977 -0.2901
31177SOL    HW111523   8.518  12.263   3.995 -0.3505  0.6653  0.3080
31177SOL    HW211524   8.421  12.166   4.059  1.0483 -1.5322 -0.7714
31178SOL     OW11525   0.268  12.420   3.940 -0.2165 -0.3318 -0.3249
31178SOL    HW111526   0.189  12.375   3.909  0.1842 -0.3534 -1.3456
31178SOL    HW211527   0.311  12.451   3.860  0.1106  0.8740  0.2842
31179SOL     OW11528   3.080   6.242   3.130 -0.4598  0.2333  0.1491
31179SOL    HW111529   3.017   6.172   3.113  1.8217 -1.6897 -1.0011
31179SOL    HW211530   3.090   6.243   3.226 -1.9539  0.3587  0.3211
31180SOL     OW11531   9.002  13.784   4.421 -0.2078  0.0679  0.0398
31180SOL    HW111532   9.039  13.727   4.489  0.6988 -0.8687 -1.1899
31180SOL    HW211533   8.914  13.749   4.407 -0.6092  0.6209  1.1106
31181SOL     OW11534   5.560   6.808   3.180  0.6026  0.5493  0.1519
31181SOL    HW111535   5.585   6.877   3.241 -1.2072  0.4794  1.0237
31181SOL    HW211536   5.571   6.727   3.231  0.0485  0.4162  0.0637
31182SOL     OW11537   9.480   0.187   1.898  0.6955  0.3065  0.4046
31182SOL    HW111538   9.490   0.280   1.919  0.3074 -0.0033  2.0321
31182SOL    HW211539   9.564   0.163   1.858  0.4876  1.5374 -0.8575
31183SOL     OW11540   6.186   9.931   6.983 -0.1124  0.0411 -0.1998
31183SOL    HW111541   6.234   9.939   7.065  0.4084  0.7750 -0.5672
31183SOL    HW211542   6.094   9.927   7.009  0.1007 -0.8726  0.4809
31184SOL     OW11543   6.977  10.429   8.726 -0.5014  0.7241  0.0627
31184SOL    HW111544   7.068  10.400   8.715 -0.5697 -0.1804  1.5848
31184SOL    HW211545   6.926  10.348   8.721 -0.9602  0.8702  1.7601
31185SOL     OW11546  11.941   6.376   5.204 -0.6135 -0.3847  0.0404
31185SOL    HW111547  12.026   6.375   5.248 -0.7626  1.4488  0.4322
31185SOL    HW211548  11.912   6.467   5.208 -2.1243 -0.7705 -1.0236
31186SOL     OW11549   2.836  10.719   9.814 -0.3687 -0.4395 -0.2624
31186SOL    HW111550   2.759  10.683   9.859 -0.3735  0.2294  0.2829
31186SOL    HW211551   2.876  10.777   9.879  0.4293 -0.5522 -0.6473
31187SOL     OW11552   9.452   2.450   7.078 -0.5218 -0.0115 -0.1540
31187SOL    HW111553   9.433   2.529   7.129 -0.5545  0.0193 -0.2137
31187SOL    HW211554   9.524   2.475   7.021 -0.9627  0.1774 -0.6443
31188SOL     OW11555  12.648  10.203   6.061 -0.1466 -0.2516  0.3470
31188SOL    HW111556  12.700  10.255   6.000 -0.4164 -0.1709  0.1819
31188SOL    HW211557  12.568  10.183   6.012 -0.3833 -0.1512  0.6890
31189SOL     OW11558  11.218   7.967   3.809  0.4545 -0.3254 -0.6947
31189SOL    HW111559  11.300   7.966   3.760 -0.1579  1.0560 -1.8538
31189SOL    HW211560  11.170   7.890   3.778  1.5205 -1.5004  0.4544
31190SOL     OW11561  11.435   5.918   6.819  0.2320  0.4670 -0.1576
31190SOL    HW111562  11.474   5.973   6.752  1.8787 -0.8479 -0.3566
31190SOL    HW211563  11.459   5.829   6.793 -1.6341 -0.3143  0.5905
31191SOL     OW11564  10.645   9.039   2.077  0.1186  0.6987 -0.0814
31191SOL    HW111565  10.677   8.966   2.024  1.4200  2.0042 -1.1822
31191SOL    HW211566  10.561   9.062   2.037 -0.2037 -0.0547  0.1462
31192SOL     OW11567   7.910   5.293   9.663  0.1528 -0.5527 -0.4347
31192SOL    HW111568   7.968   5.292   9.739 -1.8267  1.1198  1.2230
31192SOL    HW211569   7.969   5.281   9.588  2.2505 -1.7021  1.2714
31193SOL     OW11570   9.819   5.067   9.628 -0.2924 -0.2724 -0.2177
31193SOL    HW111571   9.794   4.975   9.635  1.0137 -0.9058 -2.8448
31193SOL    HW211572   9.752   5.107   9.573 -2.2229  1.0672  2.8021
31194SOL     OW11573   8.629   4.578   3.349 -0.3903  0.1448  0.2468
31194SOL    HW111574   8.682   4.498   3.352  1.8496  1.4188 -1.6710
31194SOL    HW211575   8.661   4.630   3.423  0.0401  0.3178 -0.0554
31195SOL     OW11576  12.642   8.258  11.403 -0.0947  0.0683 -0.9857
31195SOL    HW111577  12.605   8.310  11.474  0.2665 -0.6576 -0.2524
31195SOL    HW211578  12.569   8.205  11.372  0.2092 -1.1095  0.2296
31196SOL     OW11579   3.369   5.375   7.302 -0.5848  0.1493  0.4938
31196SOL    HW111580   3.282   5.392   7.268 -1.1391 -1.1779  1.1762
31196SOL    HW211581   3.386   5.447   7.363 -0.1412  1.7854 -1.4654
31197SOL     OW11582   4.577   1.860   7.167  0.3908 -0.3586  0.5261
31197SOL    HW111583   4.636   1.797   7.124  0.1430  0.8965 -1.8731
31197SOL    HW211584   4.562   1.927   7.100 -1.0459  1.1478  2.2543
31198SOL     OW11585   7.373  11.622   2.331  0.4061 -0.1581 -0.0290
31198SOL    HW111586   7.414  11.697   2.375 -0.2777 -0.1258  0.5824
31198SOL    HW211587   7.406  11.546   2.379 -0.7730 -0.0894  0.9332
31199SOL     OW11588  13.178  12.289   9.339  0.3815  0.3563 -0.4977
31199SOL    HW111589  13.214  12.316   9.423  1.1164 -2.3006  0.1370
31199SOL    HW211590  13.234  12.332   9.274  1.4820  0.3740  0.4221
31200SOL     OW11591  13.896  12.661   9.562  0.4752  0.2257  0.0271
31200SOL    HW111592  13.803  12.640   9.553  0.6368 -0.5854  0.1439
31200SOL    HW211593  13.921  12.621   9.645  1.1660 -0.4513 -0.4927
31201SOL     OW11594   3.152   0.017  12.887  0.7978 -0.2372 -0.7668
31201SOL    HW111595   3.143   0.080  12.816  1.0740  0.3263 -0.3107
31201SOL    HW211596   3.134   0.068  12.966  1.1721 -0.6948 -0.3840
31202SOL     OW11597   1.054  10.001  11.578 -0.5934  0.2394  0.1081
31202SOL    HW111598   1.149  10.000  11.570 -0.7098  0.1465 -1.6003
31202SOL    HW211599   1.023   9.948  11.504 -2.0257  1.9654 -0.6001
31203SOL     OW11600  10.162   5.124   1.697 -0.2521  0.7144  0.3252
31203SOL    HW111601  10.244   5.150   1.740 -0.3688 -1.1328  1.7703
31203SOL    HW211602  10.184   5.043   1.651 -0.8383  1.2099 -0.8939
31204SOL     OW11603   4.359  12.589   1.507  0.1917  0.7273 -0.0831
31204SOL    HW111604   4.437  12.619   1.555  0.3221 -0.8808  0.7825
31204SOL    HW211605   4.317  12.527   1.566 -1.8336  1.6349 -0.5000
31205SOL     OW11606   5.728   0.915   9.113  0.1671 -0.9569  0.0493
31205SOL    HW111607   5.703   0.933   9.022 -1.3259 -0.9343  0.4377
31205SOL    HW211608   5.817   0.881   9.107  0.1645 -0.7641 -1.4040
31206SOL     OW11609  13.003   0.069   1.540  0.1188 -0.0885  0.0437
31206SOL    HW111610  13.096   0.075   1.560 -0.3577  2.3868  2.1254
31206SOL    HW211611  12.960   0.078   1.625 -2.0782 -2.9605 -0.5959
31207SOL     OW11612  13.108  13.135   7.206  0.0273 -0.2262  0.3839
31207SOL    HW111613  13.178  13.145   7.141 -1.4727  0.5269 -1.1977
31207SOL    HW211614  13.049  13.208   7.190 -1.9603 -1.6934  0.5818
31208SOL     OW11615  11.866   6.763   8.997 -0.5803 -0.4032  0.4342
31208SOL    HW111616  11.875   6.735   9.088  3.1946  0.6049  0.5327
31208SOL    HW211617  11.872   6.682   8.946  0.8417 -0.6719  1.0011
31209SOL     OW11618  10.382   4.523  13.597  0.1963  0.3005  0.9323
31209SOL    HW111619  10.334   4.442  13.614 -0.3640  0.6779  1.1649
31209SOL    HW211620  10.355   4.549  13.509 -0.7104  0.9662  1.3838
31210SOL     OW11621  11.629  12.608   6.647 -0.5668 -0.2974 -0.2764
31210SOL    HW111622  11.615  12.558   6.567 -0.1258  1.3327 -1.4084
31210SOL    HW211623  11.542  12.634   6.675 -0.7318 -0.9832 -0.1315
31211SOL     OW11624   0.333   1.051   1.496 -0.3959 -0.1713 -0.2566
31211SOL    HW111625   0.323   1.032   1.589  0.7087  0.5629  0.0263
31211SOL    HW211626   0.268   1.118   1.478  0.4874  0.9012  0.3953
31212SOL     OW11627  13.561   7.574  12.343  0.4553 -0.4314 -0.6805
31212SOL    HW111628  13.546   7.537  12.430  2.3872  0.4734  0.0991
31212SOL    HW211629  13.498   7.645  12.336 -0.0926 -0.8639 -0.2594
31213SOL     OW11630  12.591  12.159   2.022 -0.1570 -0.1503 -0.1223
31213SOL    HW111631  12.569  12.244   2.060  2.0080  1.1339 -1.5434
31213SOL    HW211632  12.554  12.162   1.933  1.2350 -0.0226 -0.7254
31214SOL     OW11633   1.482   4.495   2.291  0.3182 -0.3432  0.2799
31214SOL    HW111634   1.464   4.564   2.228  1.0631 -0.1043  0.3124
31214SOL    HW211635   1.467   4.535   2.376  0.4842 -0.3005  0.2898
31215SOL     OW11636  10.486  13.093   3.273  0.5684 -0.0058 -0.3360
31215SOL    HW111637  10.415  13.032   3.296  0.5822  0.0948 -0.0154
31215SOL    HW211638  10.443  13.161   3.221  0.2614  0.4828  0.5278
31216SOL     OW11639   4.621   2.983  14.056  0.4473  0.6638 -0.3170
31216SOL    HW111640   4.628   3.079  14.056  1.8007  0.5757 -0.1595
31216SOL    HW211641   4.677   2.955  13.984 -2.1599  0.0938 -2.2983
31217SOL     OW11642   4.191   3.275   1.282 -0.0269 -0.1824 -0.3125
31217SOL    HW111643   4.227   3.192   1.251  0.1732  0.1711 -1.0407
31217SOL    HW211644   4.181   3.328   1.203 -1.6560 -0.0821 -0.0789
31218SOL     OW11645   8.355   1.048  10.595  0.3068 -0.6418 -0.1529
31218SOL    HW111646   8.413   1.038  10.671 -0.5863 -1.5723  0.4365
31218SOL    HW211647   8.363   1.140  10.571  1.2061 -0.5093  0.5724
31219SOL     OW11648  11.474  12.527   3.040  0.2780 -0.4140 -0.5932
31219SOL    HW111649  11.407  12.583   3.080  0.7682  0.6057 -1.1681
31219SOL    HW211650  11.557  12.569   3.061  0.7389 -1.4664 -0.2109
31220SOL     OW11651   8.307   6.135   5.107 -0.1417 -0.1421  0.3555
31220SOL    HW111652   8.362   6.145   5.185  0.4816 -0.2627 -0.0593
31220SOL    HW211653   8.221   6.111   5.141  0.3111 -0.9263  0.9733
31221SOL     OW11654  14.004   0.373   7.527  0.6713  0.1110  0.3742
31221SOL    HW111655  14.059   0.315   7.473  0.6228 -0.9094  1.3866
31221SOL    HW211656  14.058   0.392   7.604 -0.5866 -1.5083  1.7481
31222SOL     OW11657   7.403   4.436   8.286  0.3060 -0.5809 -0.2414
31222SOL    HW111658   7.438   4.481   8.208  1.1239 -0.2763  0.2842
31222SOL    HW211659   7.412   4.343   8.266  0.4274 -0.5065 -0.5446
31223SOL     OW11660  11.526   2.065   8.976 -0.1229 -0.2957  0.2360
31223SOL    HW111661  11.446   2.067   9.029 -1.4429 -0.3919 -1.6179
31223SOL    HW211662  11.499   2.100   8.891  2.0540  0.4953 -0.1942
31224SOL     OW11663   6.906   3.700  12.782 -0.2726 -0.7402 -0.5142
31224SOL    HW111664   6.892   3.790  12.811  0.5359 -0.3059 -1.4025
31224SOL    HW211665   6.898   3.704  12.687  0.0515 -1.5492 -0.5888
31225SOL     OW11666  11.951   1.410   0.660 -0.2041 -0.5132  0.6532
31225SOL    HW111667  11.860   1.436   0.675  0.2595  1.0950  0.8770
31225SOL    HW211668  11.990   1.485   0.616  1.5489 -0.2804  2.4881
31226SOL     OW11669  12.113   7.105   2.679 -0.5645  0.3875 -0.2293
31226SOL    HW111670  12.062   7.177   2.643 -0.7845  1.6640  2.4078
31226SOL    HW211671  12.139   7.053   2.602 -0.2502  3.3291 -2.2768
31227SOL     OW11672  10.893   0.875   1.432  0.1351  0.0393  0.0185
31227SOL    HW111673  10.837   0.911   1.501 -0.7449 -1.3987  0.0723
31227SOL    HW211674  10.978   0.862   1.475 -0.7853 -2.1956  1.2828
31228SOL     OW11675  12.465  13.932  10.879  0.1925 -0.3211  0.6856
31228SOL    HW111676  12.557  13.950  10.862 -0.0430 -0.3255 -0.7146
31228SOL    HW211677  12.460  13.837  10.888 -0.0394 -0.5933 -1.8510
31229SOL     OW11678   4.244  12.399  12.913  0.1679  0.5036 -0.2843
31229SOL    HW111679   4.288  12.450  12.845 -1.0424  1.6423 -0.2601
31229SOL    HW211680   4.273  12.309  12.899 -0.4870  0.6066 -2.6747
31230SOL     OW11681  12.741   1.788   6.782 -0.2083  0.0137  0.3619
31230SOL    HW111682  12.831   1.813   6.761  0.5778 -0.6387  2.6573
31230SOL    HW211683  12.703   1.866   6.821 -0.5861  0.2043 -0.3612
31231SOL     OW11684   4.421  10.648   5.458  0.2012 -0.0158 -0.0649
31231SOL    HW111685   4.366  10.701   5.400 -0.2276 -0.8816 -0.4670
31231SOL    HW211686   4.471  10.712   5.508  0.2726  0.7665 -1.0985
31232SOL     OW11687  12.855   3.334   5.608 -0.1463 -0.1968 -0.0097
31232SOL    HW111688  12.914   3.396   5.566 -2.3498  2.5889  0.7130
31232SOL    HW211689  12.794   3.309   5.539 -0.3739 -0.0734  0.1444
31233SOL     OW11690  13.540   5.188   7.615  0.1068 -0.3569  0.0517
31233SOL    HW111691  13.569   5.197   7.706  0.8958  0.7609 -0.2899
31233SOL    HW211692  13.444   5.187   7.620  0.1183 -2.7180  1.0831
31234SOL     OW11693   2.521   2.726  12.450 -0.9384 -0.2130  0.2737
31234SOL    HW111694   2.554   2.636  12.446  0.2216  0.1617  0.8464
31234SOL    HW211695   2.441   2.720  12.502 -0.4076 -0.8142  1.0496
31235SOL     OW11696   8.212   5.235   1.307 -0.8959  0.6898  0.2140
31235SOL    HW111697   8.146   5.249   1.239 -0.3131  2.2551 -0.0678
31235SOL    HW211698   8.244   5.146   1.290 -0.9838  0.9247 -1.3743
31236SOL     OW11699   2.084   4.390  13.799 -0.5214  0.6311  0.0907
31236SOL    HW111700   2.017   4.446  13.759 -1.1166 -2.4182 -3.8019
31236SOL    HW211701   2.035   4.315  13.833  0.6486 -0.3555 -0.3199
31237SOL     OW11702   1.739  11.093  12.813 -0.5551 -0.3868  0.0535
31237SOL    HW111703   1.715  11.051  12.895  1.0523  0.2264  0.8631
31237SOL    HW211704   1.661  11.081  12.757 -1.5498 -1.0983  1.5194
31238SOL     OW11705   4.162   0.929   3.604 -0.4148  0.0598  0.2061
31238SOL    HW111706   4.201   0.921   3.691  1.4439 -2.1945 -0.7160
31238SOL    HW211707   4.231   0.968   3.551 -0.1286 -1.9691 -1.0018
31239SOL     OW11708   9.226   8.616   7.472 -0.5059 -0.1091 -0.0846
31239SOL    HW111709   9.222   8.522   7.492  1.1123  0.2399  2.2533
31239SOL    HW211710   9.318   8.640   7.486 -1.1247  2.0650  0.7170
31240SOL     OW11711   5.437   5.322   5.882  0.0381 -0.3266 -0.1759
31240SOL    HW111712   5.498   5.383   5.840  0.5208  0.1277  1.1247
31240SOL    HW211713   5.481   5.238   5.880  1.0974  0.1265  1.3812
31241SOL     OW11714  10.478   9.631  11.759  0.1387  0.2944 -0.5311
31241SOL    HW111715  10.572   9.652  11.764 -0.2987  2.6969 -1.3493
31241SOL    HW211716  10.447   9.639  11.849  0.0388  3.4196 -0.7343
31242SOL     OW11717   4.044   5.735  12.561 -0.0970  0.2313  0.3216
31242SOL    HW111718   3.950   5.720  12.549  0.0633 -0.8346  0.2738
31242SOL    HW211719   4.063   5.703  12.649  0.6512 -1.9397 -0.5600
31243SOL     OW11720   7.775   3.870   7.013  0.3899  0.0045 -0.0323
31243SOL    HW111721   7.854   3.859   7.068 -0.5212  0.5198  1.4530
31243SOL    HW211722   7.734   3.949   7.048 -0.8892 -0.3735 -0.6552
31244SOL     OW11723   9.126   5.032   5.193 -0.1237 -0.0697 -0.1080
31244SOL    HW111724   9.034   5.056   5.202  0.1190  0.7959  0.1612
31244SOL    HW211725   9.124   4.939   5.171 -1.1591  0.4687 -2.6580
31245SOL     OW11726   5.136   5.868  10.766 -0.3931  0.1355  0.5157
31245SOL    HW111727   5.216   5.921  10.767 -1.1331  1.2892  0.4806
31245SOL    HW211728   5.167   5.778  10.767  0.9555  0.5264 -1.4281
31246SOL     OW11729  10.248  10.963   0.780  0.0079  0.2137 -0.5188
31246SOL    HW111730  10.187  10.978   0.852  0.0789  0.2413 -0.4636
31246SOL    HW211731  10.308  11.038   0.784  2.4383 -1.6677  1.8706
31247SOL     OW11732   9.641   9.332  13.538  0.3020  0.6558 -0.1858
31247SOL    HW111733   9.734   9.337  13.561 -0.1116  0.4728  1.7188
31247SOL    HW211734   9.596   9.374  13.612 -1.2610 -1.6905  0.3170
31248SOL     OW11735   8.193   0.882  12.334  0.4552  0.2098 -0.5040
31248SOL    HW111736   8.100   0.870  12.316  0.2055 -0.5643  1.1078
31248SOL    HW211737   8.204   0.977  12.340 -0.6273  0.2816  1.0028
31249SOL     OW11738   9.868   0.960   9.299 -0.2352 -0.2880 -0.0760
31249SOL    HW111739   9.794   1.020   9.309  1.4487  1.6820  1.5264
31249SOL    HW211740   9.902   0.950   9.387  0.5951 -2.3009 -0.5784
31250SOL     OW11741   6.045   2.789   4.923  0.2464 -0.5418 -0.2397
31250SOL    HW111742   6.048   2.702   4.964 -2.2944 -0.4228  0.3848
31250SOL    HW211743   5.953   2.814   4.927  0.7745  1.8368 -1.2041
31251SOL     OW11744   7.575   2.279  12.756  1.1344  0.6135  0.0025
31251SOL    HW111745   7.548   2.347  12.818 -2.8747 -0.7913  0.0787
31251SOL    HW211746   7.557   2.196  12.801 -1.2838 -0.4513 -2.6035
31252SOL     OW11747  13.240   6.461  11.183  0.0661  0.5140  0.0843
31252SOL    HW111748  13.278   6.460  11.095  1.0387 -0.2992  0.4892
31252SOL    HW211749  13.145   6.459  11.169  0.1894 -1.9130 -0.9862
31253SOL     OW11750   9.836  10.610   9.057  0.3444 -0.0052 -0.2277
31253SOL    HW111751   9.767  10.622   9.122  0.8349  2.7677 -0.1175
31253SOL    HW211752   9.791  10.613   8.973  0.2874  2.0372 -0.1669
31254SOL     OW11753   5.964   0.528  12.261  0.7984 -0.2453 -0.2865
31254SOL    HW111754   6.003   0.443  12.278  0.4568 -0.8294 -2.2002
31254SOL    HW211755   5.885   0.509  12.212 -1.4004  0.9771  2.4548
31255SOL     OW11756   5.157   9.157  12.423 -0.0881  0.1749 -0.6269
31255SOL    HW111757   5.062   9.149  12.412 -0.3466  0.8673  0.8844
31255SOL    HW211758   5.169   9.178  12.516  1.4912  1.0290 -0.9898
31256SOL     OW11759   6.264   6.471   6.333  0.2466  0.1876 -0.2752
31256SOL    HW111760   6.292   6.422   6.410 -0.2355  1.1313  0.5279
31256SOL    HW211761   6.171   6.448   6.323  0.4775 -0.4806 -1.0207
31257SOL     OW11762  10.791   8.898   8.548  0.0575 -0.0751  0.5159
31257SOL    HW111763  10.747   8.857   8.622 -0.6495 -0.2928 -0.0249
31257SOL    HW211764  10.732   8.886   8.474  1.7473 -1.8759 -0.6356
31258SOL     OW11765   4.798  13.608   2.770 -0.1472  0.6688  0.4456
31258SOL    HW111766   4.869  13.574   2.715 -0.1574  0.9850  0.2338
31258SOL    HW211767   4.719  13.570   2.733  0.1055 -2.2425  2.5615
31259SOL     OW11768  13.941   7.159   4.632 -0.1412 -0.2302  0.1541
31259SOL    HW111769  13.933   7.118   4.718 -0.1485  1.6482  1.0982
31259SOL    HW211770  14.010   7.225   4.643 -0.7330  0.6201 -1.0167
31260SOL     OW11771   0.587  13.985   6.048 -0.2586 -0.0491 -0.0091
31260SOL    HW111772   0.679  13.977   6.022 -0.1763 -1.2573  0.6010
31260SOL    HW211773   0.589  14.024   6.135 -0.3250 -0.1246  0.0265
31261SOL     OW11774   8.888   3.783   7.931 -0.1023 -0.0396  0.1865
31261SOL    HW111775   8.924   3.819   7.850  0.9125 -0.6848  0.3324
31261SOL    HW211776   8.922   3.694   7.935 -1.0920 -0.4076  0.7456
31262SOL     OW11777   7.219   5.751  12.682 -0.6394 -0.5180 -0.2431
31262SOL    HW111778   7.281   5.814  12.719 -2.1229 -0.1870  1.8670
31262SOL    HW211779   7.220   5.769  12.588  1.7312  0.0950 -0.1684
31263SOL     OW11780   8.391   9.105  13.272 -0.2713  0.1285 -0.0980
31263SOL    HW111781   8.380   9.022  13.225  1.2586 -1.2089  1.7969
31263SOL    HW211782   8.478   9.135  13.248  0.4441 -0.4627  1.6383
31264SOL     OW11783   7.644   7.837   7.659  0.4365 -0.8278 -0.0264
31264SOL    HW111784   7.727   7.811   7.699  0.2457 -2.8749 -0.8538
31264SOL    HW211785   7.662   7.834   7.564  0.1575  1.4001 -0.2066
31265SOL     OW11786  10.089  14.089   8.604  0.4367  0.0205 -0.3034
31265SOL    HW111787  10.147  14.020   8.573  0.8949  0.3750 -0.2515
31265SOL    HW211788  10.136  14.171   8.585 -0.2826  0.3399 -0.7590
31266SOL     OW11789   1.247  13.722  13.331 -0.9224  0.5233  0.0052
31266SOL    HW111790   1.226  13.648  13.274  0.8482 -0.0901  0.0943
31266SOL    HW211791   1.256  13.796  13.272  0.9745 -0.1176 -0.5828
31267SOL     OW11792   9.856   8.873  13.663 -0.5367 -0.1601 -0.3889
31267SOL    HW111793   9.937   8.896  13.710  0.1984  0.9332 -2.1011
31267SOL    HW211794   9.804   8.824  13.727  0.7382  0.6115  1.3080
31268SOL     OW11795   4.002   8.204   6.935 -0.3089  0.1042 -0.1496
31268SOL    HW111796   3.937   8.179   6.870  0.9459 -0.9871 -1.0599
31268SOL    HW211797   4.026   8.122   6.977  1.8743  0.0955 -1.2338
31269SOL     OW11798   1.845   2.290  12.719  0.1982  0.1114  0.3052
31269SOL    HW111799   1.870   2.248  12.802  0.0007  1.4116  1.0380
31269SOL    HW211800   1.918   2.349  12.699 -0.4356  0.9271  0.3549
31270SOL     OW11801   1.320  10.338   1.052 -0.3637 -0.1240 -0.5022
31270SOL    HW111802   1.405  10.376   1.030 -0.4567 -0.2011 -1.0038
31270SOL    HW211803   1.321  10.252   1.009 -1.7257  0.9024 -2.7732
31271SOL     OW11804   3.841   8.715  10.804  0.2246 -0.0730  0.6608
31271SOL    HW111805   3.872   8.805  10.808  0.3626  0.1052 -2.2255
31271SOL    HW211806   3.920   8.663  10.792 -0.0630 -0.1758 -1.0967
31272SOL     OW11807   3.561   0.505  12.801 -0.3550  0.2328 -0.1107
31272SOL    HW111808   3.548   0.435  12.737 -1.3095 -0.2151  0.5439
31272SOL    HW211809   3.509   0.578  12.768  0.8047  0.7150 -0.9000
31273SOL     OW11810   8.515  11.506   1.731 -0.2030  0.4749 -0.5966
31273SOL    HW111811   8.512  11.556   1.812 -0.4269 -0.3762 -0.0614
31273SOL    HW211812   8.600  11.462   1.733 -0.2269  0.4180 -0.8021
31274SOL     OW11813   5.876   2.811   9.171  0.0077  0.0508  0.2555
31274SOL    HW111814   5.867   2.757   9.249 -0.0014 -0.5087 -0.1273
31274SOL    HW211815   5.787   2.818   9.137 -0.1293  1.0454  0.7848
31275SOL     OW11816  11.893   5.605   8.209 -0.3465  0.1715 -0.0427
31275SOL    HW111817  11.857   5.624   8.122 -1.2830 -0.3502  0.2147
31275SOL    HW211818  11.974   5.556   8.191 -0.3358  0.3904 -0.6172
31276SOL     OW11819   3.211   1.347   0.656  0.2501 -0.1058 -0.0113
31276SOL    HW111820   3.257   1.419   0.613 -0.9261  2.3204  2.4441
31276SOL    HW211821   3.126   1.343   0.612  0.5869 -0.5245 -0.6358
31277SOL     OW11822  11.627   2.610   0.833 -0.5193  0.0696 -1.0557
31277SOL    HW111823  11.703   2.559   0.806  1.1740  0.6586  2.1552
31277SOL    HW211824  11.652   2.701   0.820 -1.0187  0.2516 -0.7992
31278SOL     OW11825  12.832   2.369   2.446  0.0500 -0.7978 -0.7233
31278SOL    HW111826  12.765   2.300   2.450  1.5181 -2.2247  0.5219
31278SOL    HW211827  12.835   2.393   2.353 -0.9095 -2.0170 -1.1027
31279SOL     OW11828   0.465   2.419   8.687 -0.5605 -0.3092 -0.4382
31279SOL    HW111829   0.403   2.355   8.652  0.2049 -1.5931  0.4840
31279SOL    HW211830   0.411   2.482   8.733 -1.2320 -1.2897  0.1607
31280SOL     OW11831   7.025   4.043  13.205  0.5770  0.0141 -0.5786
31280SOL    HW111832   7.032   3.960  13.252 -0.0374 -1.2042 -2.5523
31280SOL    HW211833   6.936   4.045  13.172  0.4786  1.6474 -0.2931
31281SOL     OW11834  10.784   4.381   7.059  0.0392  0.4793  0.8890
31281SOL    HW111835  10.843   4.433   7.005 -0.0101  1.4432  1.7400
31281SOL    HW211836  10.815   4.291   7.049  1.3681  0.9094  0.9691
31282SOL     OW11837   2.100  13.491   5.284  0.3348 -0.0429  0.1973
31282SOL    HW111838   2.117  13.585   5.275  0.3524  0.0725  1.3105
31282SOL    HW211839   2.018  13.477   5.237  0.1650  0.5865  0.2973
31283SOL     OW11840  11.480   0.536   1.312  0.2873 -0.0766  0.1070
31283SOL    HW111841  11.453   0.528   1.221  0.8558  2.6128 -0.3654
31283SOL    HW211842  11.568   0.498   1.314  0.8089  1.0133 -0.8022
31284SOL     OW11843  12.171   9.913   7.464 -0.0999 -0.3728 -0.1194
31284SOL    HW111844  12.125   9.831   7.482 -0.0138 -0.4821 -0.3888
31284SOL    HW211845  12.260   9.886   7.442  0.4239 -0.0930  1.5338
31285SOL     OW11846   8.927  12.549   1.283  0.0436  0.6613 -0.1538
31285SOL    HW111847   8.870  12.514   1.352  1.7038  1.1070  1.5490
31285SOL    HW211848   9.013  12.512   1.302  0.4390  0.2311 -2.4727
31286SOL     OW11849  12.633   2.559  11.497  0.4128  0.0907  0.1592
31286SOL    HW111850  12.579   2.537  11.421  1.2412 -3.4695  0.4263
31286SOL    HW211851  12.575   2.545  11.572  0.9775 -1.4548  0.3404
31287SOL     OW11852   3.237   0.094   1.033  0.2655  0.4741 -0.3887
31287SOL    HW111853   3.151   0.127   1.058  0.4987  0.9878 -0.2591
31287SOL    HW211854   3.273   0.161   0.976  0.4358  0.0916 -0.7332
31288SOL     OW11855   2.765   7.284   9.967  0.4041 -0.1573 -0.6673
31288SOL    HW111856   2.739   7.198   9.936 -1.4002  0.6394 -1.5286
31288SOL    HW211857   2.684   7.335   9.966  0.9776  0.9543  1.9181
31289SOL     OW11858   0.881  10.930   7.835 -0.6596 -0.5256 -0.4248
31289SOL    HW111859   0.858  10.905   7.745 -1.3010  1.5279 -0.8809
31289SOL    HW211860   0.851  10.857   7.889 -1.2820 -1.3017 -1.7728
31290SOL     OW11861   8.290  11.218   9.283 -0.4694 -0.0216  0.4262
31290SOL    HW111862   8.246  11.208   9.368 -0.9325  3.0048  0.6428
31290SOL    HW211863   8.302  11.128   9.252 -1.7744 -1.1665  2.9178
31291SOL     OW11864  11.205   1.202   2.865 -0.0334  0.4238 -0.7115
31291SOL    HW111865  11.142   1.199   2.793  0.7947  1.1417 -1.4871
31291SOL    HW211866  11.285   1.165   2.829 -0.3805 -1.9238  0.7203
31292SOL     OW11867   8.456   0.540   6.855 -0.5442 -0.1561  0.3835
31292SOL    HW111868   8.483   0.449   6.855  1.7468  0.4725 -0.2881
31292SOL    HW211869   8.402   0.550   6.777  1.6700 -0.3119 -1.2468
31293SOL     OW11870   4.652   0.732  12.238 -0.8970 -0.3606 -0.2579
31293SOL    HW111871   4.600   0.714  12.160  0.2062  0.0667 -1.1190
31293SOL    HW211872   4.607   0.804  12.281 -1.8684 -1.0198 -0.1475
31294SOL     OW11873   1.637  11.987  10.807 -0.5275  0.0058 -0.2863
31294SOL    HW111874   1.572  11.982  10.877 -0.9012 -0.6598 -0.6683
31294SOL    HW211875   1.611  12.064  10.756 -0.2068  0.5392  0.3445
31295SOL     OW11876  11.078   5.267   6.562  0.6367  0.1186  0.1304
31295SOL    HW111877  11.087   5.239   6.653  0.3091 -2.7816 -0.6407
31295SOL    HW211878  11.152   5.226   6.517 -0.1149  0.1737 -1.1885
31296SOL     OW11879   9.151   2.951   8.139  0.0379 -0.2902  0.6727
31296SOL    HW111880   9.241   2.920   8.148 -0.5893 -2.6798 -0.5192
31296SOL    HW211881   9.110   2.928   8.222  0.1241 -0.7471  0.5930
31297SOL     OW11882   1.611  11.495   5.277 -0.6436  0.2208  0.0341
31297SOL    HW111883   1.569  11.449   5.204 -0.2880 -1.7097  0.9613
31297SOL    HW211884   1.692  11.447   5.292 -0.2335  1.1888  1.0648
31298SOL     OW11885   2.867   7.523  10.083 -1.1980  0.3568  0.3214
31298SOL    HW111886   2.858   7.445  10.027 -0.1439  1.4833 -1.5224
31298SOL    HW211887   2.943   7.505  10.137 -0.7289  0.2230 -0.3618
31299SOL     OW11888   1.629   1.240   3.493 -0.6293 -0.3232  0.7690
31299SOL    HW111889   1.545   1.194   3.498 -0.4770 -1.2165 -2.4071
31299SOL    HW211890   1.694   1.173   3.517 -0.7351  0.3971  3.3319
31300SOL     OW11891   2.484   8.728  12.466  0.2238  0.4401  0.1834
31300SOL    HW111892   2.467   8.708  12.374 -2.2450  0.0590  0.6507
31300SOL    HW211893   2.497   8.823  12.468  0.4818  0.4262 -0.5748
31301SOL     OW11894   2.869   0.412   3.142  0.0141  0.1665  1.0749
31301SOL    HW111895   2.788   0.424   3.192 -1.2054  0.3232 -0.8368
31301SOL    HW211896   2.893   0.501   3.115 -0.0299 -0.0245  0.3891
31302SOL     OW11897   9.918   1.409   7.415  0.1837  0.6468 -0.4959
31302SOL    HW111898   9.969   1.339   7.455 -0.6538 -0.0993 -0.6881
31302SOL    HW211899   9.977   1.484   7.412  0.9787  0.0554  0.0567
31303SOL     OW11900  12.832   8.812   1.496  0.0444 -0.6244 -0.0260
31303SOL    HW111901  12.833   8.882   1.431 -2.0203 -1.0383 -0.5720
31303SOL    HW211902  12.859   8.734   1.448 -0.3711 -0.7176 -0.1098
31304SOL     OW11903   1.030   0.924   3.828 -0.3583 -0.4236 -0.5477
31304SOL    HW111904   0.999   0.884   3.909 -0.5936 -0.2397 -0.5440
31304SOL    HW211905   1.028   1.018   3.846 -0.7742 -0.3650 -0.8946
31305SOL     OW11906   6.253   6.818  10.467 -0.5659 -0.2983 -0.3780
31305SOL    HW111907   6.206   6.858  10.540 -0.5937  0.2735 -0.6976
31305SOL    HW211908   6.248   6.724  10.483 -3.3263 -0.3771 -1.3295
31306SOL     OW11909   4.002   3.814  13.012  0.2002 -0.4377  1.3937
31306SOL    HW111910   3.918   3.839  13.051 -0.2963 -1.7134  1.2034
31306SOL    HW211911   3.999   3.719  13.008  0.8692 -0.4249 -0.3580
31307SOL     OW11912   4.118  10.129   2.071  0.0836 -0.0564  0.1808
31307SOL    HW111913   4.160  10.083   2.143 -1.7705  0.8071  1.9333
31307SOL    HW211914   4.102  10.217   2.105 -0.4421  0.5173 -1.4497
31308SOL     OW11915  13.264   5.093   5.627  0.0120 -0.0021 -0.6115
31308SOL    HW111916  13.325   5.165   5.643 -0.4469  0.2204  0.2131
31308SOL    HW211917  13.281   5.066   5.537  1.7768 -0.3693 -0.2042
31309SOL     OW11918  11.625   7.424  11.267  0.2194  0.4682  0.3495
31309SOL    HW111919  11.687   7.355  11.291  2.0978  1.2404 -1.9237
31309SOL    HW211920  11.587   7.453  11.350  1.5103 -1.3311  1.6229
31310SOL     OW11921   5.267   2.611   1.384 -0.0069  0.0030  0.2052
31310SOL    HW111922   5.358   2.583   1.378  0.4949  1.1837  1.6487
31310SOL    HW211923   5.222   2.539   1.428  0.7094  0.3012  1.4757
31311SOL     OW11924  12.305  11.582   2.597  0.2638 -0.0469  0.2600
31311SOL    HW111925  12.307  11.498   2.642  1.1450 -0.3401 -0.3124
31311SOL    HW211926  12.393  11.619   2.611  1.0758 -0.7765 -2.3887
31312SOL     OW11927   0.996   3.975   5.276  0.3214 -0.1397  0.0837
31312SOL    HW111928   0.981   3.919   5.352  0.4957 -0.8412 -0.3821
31312SOL    HW211929   0.994   3.914   5.202  2.3225  0.1772 -0.2925
31313SOL     OW11930   0.471   0.395  11.416  0.0257 -0.3656  0.3018
31313SOL    HW111931   0.566   0.394  11.401  0.0871 -0.0587  0.6438
31313SOL    HW211932   0.462   0.382  11.511 -0.2825 -0.6267  0.2371
31314SOL     OW11933   9.445   5.482   9.215  0.2311  0.1069 -0.0654
31314SOL    HW111934   9.365   5.514   9.171  0.5574  0.8612 -0.1332
31314SOL    HW211935   9.425   5.489   9.308  0.4734  1.0316 -0.0654
31315SOL     OW11936  11.302  13.963  11.174 -0.1092  0.1774 -0.2660
31315SOL    HW111937  11.234  14.002  11.230  0.1039 -1.5922  1.3113
31315SOL    HW211938  11.352  14.038  11.142 -0.7539  1.3265  1.2814
31316SOL     OW11939   3.299   8.984   6.831 -0.0657  0.1604  0.2861
31316SOL    HW111940   3.252   8.936   6.899  0.1661 -1.3129 -0.5419
31316SOL    HW211941   3.239   9.054   6.805 -0.3917  0.3874  1.5764
31317SOL     OW11942   7.308  12.848   1.875 -0.0793  0.3113  0.2414
31317SOL    HW111943   7.214  12.837   1.887 -0.3172  1.4391 -0.4606
31317SOL    HW211944   7.332  12.915   1.938  0.8403 -1.9819  2.5120
31318SOL     OW11945   0.555   1.971   6.609  0.2837  0.1931 -0.0098
31318SOL    HW111946   0.484   1.909   6.592  1.3118 -0.4277 -2.6174
31318SOL    HW211947   0.614   1.925   6.668 -0.7484  0.1606  1.0219
31319SOL     OW11948   7.179  14.092   6.913 -0.0721  0.1569 -0.1712
31319SOL    HW111949   7.200  14.061   7.001 -4.5585  2.5344  2.1031
31319SOL    HW211950   7.097  14.050   6.892  0.1365  0.8333 -2.5884
31320SOL     OW11951  14.124   9.258   8.707 -0.5851 -0.2129 -0.0619
31320SOL    HW111952  14.067   9.315   8.655 -1.0382 -0.6280 -0.0258
31320SOL    HW211953  14.207   9.257   8.659 -0.5955  0.4199 -0.0958
31321SOL     OW11954   9.209   0.447   7.040  0.3620 -0.6444 -0.0552
31321SOL    HW111955   9.258   0.529   7.041  0.6938 -0.8102 -1.0583
31321SOL    HW211956   9.175   0.438   7.129  1.0317  0.1493  0.2983
31322SOL     OW11957   1.155   8.709   1.872 -0.1099  0.2840  0.5207
31322SOL    HW111958   1.122   8.771   1.806 -0.2376  1.5447  1.7109
31322SOL    HW211959   1.086   8.708   1.939  1.0096  0.8288  1.7289
31323SOL     OW11960   6.151  13.168   7.423 -0.0722 -0.4570  0.0817
31323SOL    HW111961   6.155  13.078   7.457 -0.0324 -1.2004 -1.7851
31323SOL    HW211962   6.241  13.188   7.397 -0.6152 -1.2329 -2.7039
31324SOL     OW11963   3.798   3.657  13.286  0.9523 -0.3394 -0.5095
31324SOL    HW111964   3.870   3.636  13.346 -0.0735 -1.2692  0.4329
31324SOL    HW211965   3.821   3.743  13.250  1.9105 -0.0529  0.7266
31325SOL     OW11966   5.296   4.042   1.413  0.1060 -0.4773  0.3412
31325SOL    HW111967   5.314   4.136   1.423  0.6025 -0.5880  0.4883
31325SOL    HW211968   5.239   4.037   1.336 -0.0070 -0.0468  0.3930
31326SOL     OW11969   4.429   6.113  11.421 -0.3624 -0.8629 -0.5074
31326SOL    HW111970   4.379   6.052  11.366  0.6104 -1.2809 -0.9575
31326SOL    HW211971   4.432   6.194  11.371  2.2835 -1.8335 -2.1418
31327SOL     OW11972   5.482   4.139  13.079 -0.7021  0.4954  0.4493
31327SOL    HW111973   5.529   4.057  13.092  0.6093  1.1473  0.0512
31327SOL    HW211974   5.406   4.133  13.137 -1.3175 -1.5009 -0.5164
31328SOL     OW11975  12.837   1.754   2.332  0.2349 -0.9046  0.1205
31328SOL    HW111976  12.748   1.775   2.362  0.6105 -0.4833  0.9691
31328SOL    HW211977  12.894   1.805   2.389  1.0245 -1.0121 -0.5539
31329SOL     OW11978  12.134   7.194  11.086 -0.5181  0.0456 -0.0727
31329SOL    HW111979  12.176   7.110  11.066  0.1364  0.4571 -0.4672
31329SOL    HW211980  12.051   7.191  11.038 -0.1318 -0.0519 -0.7517
31330SOL     OW11981   4.745   7.748   7.693  0.5735 -0.6448 -0.7586
31330SOL    HW111982   4.728   7.714   7.605 -0.3748 -0.3972 -0.6771
31330SOL    HW211983   4.659   7.760   7.732  0.9944 -1.5093  0.5152
31331SOL     OW11984   7.015  12.257   3.479  0.3184  0.1795 -0.3682
31331SOL    HW111985   7.101  12.216   3.490 -0.4766 -1.4378  0.1436
31331SOL    HW211986   6.955  12.183   3.465 -1.0326  1.2562 -0.4468
31332SOL     OW11987   0.560  13.284   8.896  0.2571  0.1631 -0.1039
31332SOL    HW111988   0.565  13.257   8.988 -0.4069  1.1123  0.2261
31332SOL    HW211989   0.496  13.224   8.857 -0.0610  0.2665  0.2519
31333SOL     OW11990   1.533  13.331   9.229 -0.2578  0.1096 -0.0873
31333SOL    HW111991   1.474  13.274   9.181 -0.7460  1.9591 -1.8572
31333SOL    HW211992   1.573  13.386   9.162  0.3399  1.6953  1.4778
31334SOL     OW11993   3.398   1.449  14.075 -0.1423  0.3220 -0.2123
31334SOL    HW111994   3.426   1.429  13.985 -1.4181  0.3095 -0.6226
31334SOL    HW211995   3.468   1.504  14.110  1.2765 -1.1712 -0.5666
31335SOL     OW11996   0.342   6.263   1.448  0.1869  0.0482 -0.9256
31335SOL    HW111997   0.270   6.237   1.505  1.1796 -1.8306 -0.4382
31335SOL    HW211998   0.415   6.277   1.508  0.7380 -0.0096 -1.5701
31336SOL     OW11999   1.739   4.860   0.729  0.0604  0.4586 -0.0367
31336SOL    HW112000   1.711   4.867   0.638  1.8243  0.7193 -0.5987
31336SOL    HW212001   1.691   4.929   0.775 -0.8632  0.3100 -0.7529
31337SOL     OW12002   4.539   4.632  11.984 -0.6630 -0.4408 -0.4062
31337SOL    HW112003   4.570   4.662  12.070  1.8457 -1.0434 -1.0192
31337SOL    HW212004   4.553   4.538  11.986  1.3969 -0.2261 -2.1730
31338SOL     OW12005   8.700   7.369  11.587  0.0472 -0.6921  0.1872
31338SOL    HW112006   8.719   7.416  11.669  0.0920 -0.9291  0.3126
31338SOL    HW212007   8.615   7.403  11.560  0.7797  0.6245 -0.5604
31339SOL     OW12008   2.561  13.094   7.415  0.0473 -0.1411  0.1400
31339SOL    HW112009   2.466  13.108   7.411 -0.2027 -0.7669  2.5039
31339SOL    HW212010   2.586  13.077   7.324 -2.0752  0.1453 -0.5609
31340SOL     OW12011   8.723   1.701  10.054  0.3886  0.0008  0.5364
31340SOL    HW112012   8.734   1.702   9.959  0.4300 -1.1462  0.5181
31340SOL    HW212013   8.732   1.793  10.079  1.9557  0.1574 -0.3895
31341SOL     OW12014   3.480   9.334  13.184 -0.4447  0.8517 -0.5076
31341SOL    HW112015   3.447   9.263  13.240 -0.1149  0.5606 -0.6787
31341SOL    HW212016   3.462   9.413  13.234  1.3146  0.5099  0.8061
31342SOL     OW12017   3.864  12.939   3.990 -0.0430 -0.2337  0.3854
31342SOL    HW112018   3.918  13.012   3.961  0.0364 -0.0616  0.9558
31342SOL    HW212019   3.926  12.867   4.003  0.0279 -0.0951  0.8430
31343SOL     OW12020  13.732   5.122  10.493  0.4928 -0.2984  0.2181
31343SOL    HW112021  13.657   5.173  10.525  0.1802 -1.0289  0.6903
31343SOL    HW212022  13.794   5.187  10.462 -0.2274  0.3326  0.0790
31344SOL     OW12023   6.990  11.546  13.742  0.0035  0.1187  0.3455
31344SOL    HW112024   6.899  11.519  13.728 -0.3056  0.8824  0.8428
31344SOL    HW212025   7.042  11.472  13.710 -0.7412  0.3429 -1.4995
31345SOL     OW12026   2.503  10.980   2.095  0.2983 -0.6986  0.0127
31345SOL    HW112027   2.486  10.918   2.024  0.4625  0.8762 -1.4283
31345SOL    HW212028   2.586  10.951   2.133  0.4867 -1.2156 -0.7855
31346SOL     OW12029  11.440  10.672  13.323 -0.2607 -0.4198 -0.0748
31346SOL    HW112030  11.462  10.656  13.232 -0.0839  0.1105 -0.1271
31346SOL    HW212031  11.386  10.597  13.349  0.1355 -0.8344 -0.4563
31347SOL     OW12032  10.639   9.589   0.393 -0.7050 -0.9664 -0.0548
31347SOL    HW112033  10.730   9.563   0.407 -0.7629 -0.0496  2.5455
31347SOL    HW212034  10.591   9.506   0.384  0.3669 -1.4520 -1.7663
31348SOL     OW12035   8.059   0.617   1.213  0.3838 -0.0620 -0.3241
31348SOL    HW112036   8.135   0.645   1.264  0.2138  1.1974 -0.7007
31348SOL    HW212037   8.031   0.697   1.167 -0.9300 -0.5932 -0.4957
31349SOL     OW12038   0.847   7.901   7.598  0.5399 -0.3549 -0.1739
31349SOL    HW112039   0.850   7.815   7.556  0.9930 -0.7581  0.6425
31349SOL    HW212040   0.899   7.958   7.541 -0.1683 -0.5039 -0.9740
31350SOL     OW12041   8.553   3.821  12.712 -0.3794 -0.4631 -0.0803
31350SOL    HW112042   8.631   3.768  12.727 -0.1475 -0.4883 -1.2572
31350SOL    HW212043   8.513   3.782  12.634  0.0067  1.3051 -1.2033
31351SOL     OW12044  13.621  13.895   0.323  0.7895 -0.5436 -0.2935
31351SOL    HW112045  13.623  13.955   0.248 -0.2436 -0.2056 -0.0720
31351SOL    HW212046  13.707  13.903   0.363  1.3729 -0.7430 -1.4507
31352SOL     OW12047   4.776  12.632  13.414  0.0363  0.0931 -0.0409
31352SOL    HW112048   4.773  12.697  13.344 -1.5845  2.4921  2.0879
31352SOL    HW212049   4.817  12.556  13.374  1.1781  2.0714 -2.9476
31353SOL     OW12050   0.741  12.063   0.943 -0.2979  0.1793  0.0908
31353SOL    HW112051   0.743  12.157   0.925  2.0650 -0.0515 -1.2570
31353SOL    HW212052   0.700  12.024   0.866 -1.1126  0.0667  0.5705
31354SOL     OW12053   4.633   1.082   2.742  0.5331  0.3114 -0.5813
31354SOL    HW112054   4.599   1.030   2.815  0.9298 -1.5776 -1.6791
31354SOL    HW212055   4.728   1.068   2.745  0.4849 -0.4809 -1.9189
31355SOL     OW12056   1.702  13.885   3.351  0.6568 -0.4894 -0.7717
31355SOL    HW112057   1.614  13.895   3.316  0.8306  1.7735 -0.7360
31355SOL    HW212058   1.698  13.806   3.404 -1.7843  0.3435  0.4326
31356SOL     OW12059   4.940  13.976   3.536  0.7822 -0.0013 -0.3001
31356SOL    HW112060   4.864  13.922   3.515  1.4538 -0.9150 -0.4127
31356SOL    HW212061   5.005  13.915   3.570  1.4892  0.7615 -0.2406
31357SOL     OW12062   8.224  10.671   9.920 -0.0823 -0.8773 -0.5587
31357SOL    HW112063   8.165  10.630   9.982  0.2335 -1.0217 -0.3524
31357SOL    HW212064   8.278  10.600   9.887  0.8328 -0.5626  0.2014
31358SOL     OW12065   6.469   1.286   1.019 -0.0096  0.6232 -0.1439
31358SOL    HW112066   6.507   1.238   0.945  1.0382  1.6176 -0.2804
31358SOL    HW212067   6.424   1.360   0.979  0.0764  0.8546  0.1813
31359SOL     OW12068   1.634  13.338   3.597  0.0897 -0.2835 -0.5319
31359SOL    HW112069   1.625  13.394   3.674  0.9422 -1.1109  0.1845
31359SOL    HW212070   1.586  13.259   3.619  0.3898 -0.5474 -0.8216
31360SOL     OW12071   9.163   0.223   2.795 -0.0550  0.0848 -0.5300
31360SOL    HW112072   9.247   0.201   2.835 -0.8075  0.5560  1.4784
31360SOL    HW212073   9.184   0.285   2.726  1.1582  1.6341  1.1271
31361SOL     OW12074   0.937  10.907  13.149 -0.6491 -0.4244 -0.2460
31361SOL    HW112075   0.998  10.973  13.183 -3.0459  1.3255  0.9697
31361SOL    HW212076   0.937  10.922  13.054  0.8016 -0.4951 -0.2834
31362SOL     OW12077   9.078   9.190   6.533  0.4329 -0.6802 -0.2341
31362SOL    HW112078   9.168   9.162   6.515  0.5853 -1.3583  1.4078
31362SOL    HW212079   9.027   9.109   6.528  0.5839 -1.0765  2.7274
31363SOL     OW12080  12.380   1.606   2.521  0.2988  0.3679  0.4467
31363SOL    HW112081  12.325   1.652   2.457  0.2656  0.0163  0.2219
31363SOL    HW212082  12.465   1.652   2.516  0.3795  0.1779 -0.0410
31364SOL     OW12083   5.007   4.420   6.798  0.0919  0.1497  0.1913
31364SOL    HW112084   5.076   4.356   6.812 -0.7845 -0.7449  0.5921
31364SOL    HW212085   4.926   4.372   6.818 -0.7223  0.8566 -1.2206
31365SOL     OW12086   7.272   5.993   3.867  0.2710 -0.2693  0.5639
31365SOL    HW112087   7.335   5.960   3.931  0.7046  1.5904  1.1682
31365SOL    HW212088   7.296   6.085   3.855 -0.6564 -0.2128 -1.2627
31366SOL     OW12089  12.921   9.295   3.593  0.0696 -0.1820 -0.2092
31366SOL    HW112090  12.949   9.376   3.550  0.6080 -0.0814  0.3295
31366SOL    HW212091  12.953   9.303   3.683  0.3427 -1.1031 -0.2195
31367SOL     OW12092   5.829  13.210   7.991  0.4292 -0.4027  0.5493
31367SOL    HW112093   5.900  13.213   8.056  0.4234 -2.5084  0.7056
31367SOL    HW212094   5.749  13.209   8.043  0.3138  0.3570  0.4079
31368SOL     OW12095   5.773  12.468   8.100 -0.0769 -0.3876  0.2160
31368SOL    HW112096   5.768  12.394   8.039 -1.0906 -0.1481 -0.0147
31368SOL    HW212097   5.702  12.452   8.163 -0.5029  0.5277 -0.0158
31369SOL     OW12098   6.708   3.589   3.746 -0.1094 -0.4282  0.3216
31369SOL    HW112099   6.671   3.665   3.701  1.8891  0.8221  0.6752
31369SOL    HW212100   6.667   3.591   3.833 -1.0488 -0.5501 -0.1085
31370SOL     OW12101  10.429   2.811   6.967 -0.3141 -0.7978  0.1093
31370SOL    HW112102  10.452   2.877   6.902  0.5579  0.4536  1.6174
31370SOL    HW212103  10.449   2.727   6.925  1.3543  0.0258 -0.8130
31371SOL     OW12104  11.970   4.281   0.087 -0.8282  0.0829  0.5254
31371SOL    HW112105  11.988   4.359   0.139 -2.8025  1.5499 -0.8437
31371SOL    HW212106  11.887   4.248   0.121 -0.7829 -0.5364  0.0585
31372SOL     OW12107  12.767  10.382   5.850  0.2275  0.6284  0.1940
31372SOL    HW112108  12.691  10.424   5.891 -1.0736 -0.8860 -0.5311
31372SOL    HW212109  12.781  10.432   5.770 -1.5421 -0.4678 -0.8526
31373SOL     OW12110   2.238   9.268   2.438  0.1014 -0.3282  0.7865
31373SOL    HW112111   2.181   9.343   2.423 -1.9218 -1.9224  0.1357
31373SOL    HW212112   2.326   9.306   2.441 -0.8729  2.1166  1.0111
31374SOL     OW12113  11.487   7.751  10.643  0.6281  0.5735 -0.2110
31374SOL    HW112114  11.560   7.778  10.588  1.7424  2.0525  1.8405
31374SOL    HW212115  11.527   7.717  10.723 -0.9139  0.2842  0.4900
31375SOL     OW12116   0.599   2.579   9.866  0.0120 -0.2151  0.2029
31375SOL    HW112117   0.581   2.524   9.942 -1.3139  0.8780  0.7372
31375SOL    HW212118   0.528   2.559   9.805 -0.3939  0.7364  0.3408
31376SOL     OW12119   9.918   4.949   3.205 -0.3496 -0.8842 -0.0642
31376SOL    HW112120   9.977   4.875   3.217 -0.2322 -0.4783  2.6985
31376SOL    HW212121   9.832   4.909   3.190  0.1146 -1.5228 -1.0797
31377SOL     OW12122   8.916  12.529   5.684 -0.1930  0.0977 -0.5968
31377SOL    HW112123   8.843  12.505   5.742  0.3478  0.4363  0.2361
31377SOL    HW212124   8.875  12.579   5.613 -1.0510 -1.4151 -1.2321
31378SOL     OW12125  13.613  10.314  11.389 -0.5060 -0.1300  0.1781
31378SOL    HW112126  13.654  10.275  11.466 -0.4459  0.8611  0.6584
31378SOL    HW212127  13.560  10.243  11.352  0.2592 -0.9080  0.5482
31379SOL     OW12128   4.463   2.719   1.302 -0.6726 -0.7947 -0.8066
31379SOL    HW112129   4.395   2.657   1.279 -1.2706 -0.7844  0.8123
31379SOL    HW212130   4.425   2.805   1.284 -1.5080 -0.7415  0.9864
31380SOL     OW12131   0.836   0.694   7.056  0.0947  0.2326  0.0088
31380SOL    HW112132   0.887   0.623   7.094 -0.0937  0.4464  0.6803
31380SOL    HW212133   0.752   0.692   7.103  0.2811  1.2306  0.4145
31381SOL     OW12134  10.961   6.005  11.881 -0.9736 -0.1612  0.0527
31381SOL    HW112135  10.905   5.937  11.918 -1.2419 -1.2949 -2.2476
31381SOL    HW212136  11.041   5.959  11.855 -0.7300  0.5978 -0.5892
31382SOL     OW12137   8.342  10.306  12.332 -0.0458  0.4493  0.0115
31382SOL    HW112138   8.285  10.259  12.272  1.6458  0.7123 -1.9313
31382SOL    HW212139   8.374  10.240  12.393 -2.9973  0.4521  1.7290
31383SOL     OW12140  11.141   7.393  10.576 -0.0905 -0.5401 -0.2506
31383SOL    HW112141  11.089   7.330  10.527 -1.0316 -0.1991  0.2808
31383SOL    HW212142  11.216   7.411  10.520 -1.3394  0.1652 -1.7992
31384SOL     OW12143   8.558  12.636   8.947 -0.5730  0.4889  0.1075
31384SOL    HW112144   8.541  12.548   8.981 -0.3683 -0.1968 -1.4908
31384SOL    HW212145   8.596  12.683   9.021 -1.2095 -0.5916  1.1503
31385SOL     OW12146   9.594  10.923   9.430  0.0856 -0.1279  0.0476
31385SOL    HW112147   9.585  10.830   9.448 -0.6006  0.0871  0.8888
31385SOL    HW212148   9.516  10.946   9.380  0.0443  0.0748  0.2013
31386SOL     OW12149  10.530   6.464   0.223  0.3851  0.2405 -0.0783
31386SOL    HW112150  10.528   6.560   0.214  0.9533  0.3516  0.8215
31386SOL    HW212151  10.438   6.439   0.233  0.3580  0.9050  1.5877
31387SOL     OW12152   2.918   5.906  14.139  0.1896  0.2756 -0.2744
31387SOL    HW112153   2.986   5.922  14.204  0.1400 -1.0781  0.1390
31387SOL    HW212154   2.838   5.937  14.181  0.1699 -0.5191  0.3036
31388SOL     OW12155   0.853   6.901   7.625 -0.4513  0.5566  0.8265
31388SOL    HW112156   0.870   6.858   7.709  1.3184 -1.9442 -0.6622
31388SOL    HW212157   0.791   6.843   7.581 -0.4190  1.1898 -0.0697
31389SOL     OW12158   4.254   8.721  10.952  0.1541  0.0380 -0.4996
31389SOL    HW112159   4.178   8.689  11.001 -0.4807  2.3638  0.1764
31389SOL    HW212160   4.327   8.668  10.984 -0.9335 -1.3181 -0.1470
31390SOL     OW12161  12.959   0.351  10.191  0.0080  0.2834  0.3651
31390SOL    HW112162  12.902   0.426  10.208  0.5081  1.4366 -2.5194
31390SOL    HW212163  12.909   0.297  10.130  1.1847  0.3015 -0.6379
31391SOL     OW12164   1.671   2.581   4.391  0.2261 -0.1224 -0.0942
31391SOL    HW112165   1.592   2.601   4.341  0.7728 -2.0489 -1.8493
31391SOL    HW212166   1.672   2.486   4.397  1.8746 -0.0797  0.8353
31392SOL     OW12167   0.552   7.117   2.608  0.1966  0.1925 -0.4967
31392SOL    HW112168   0.520   7.182   2.669 -0.5970 -0.0031 -0.7024
31392SOL    HW212169   0.612   7.165   2.551 -0.9466  0.9187 -1.1201
31393SOL     OW12170   6.996  10.291   5.862  0.1674  0.1360  0.3348
31393SOL    HW112171   7.082  10.262   5.894  0.3856 -2.9637 -2.4825
31393SOL    HW212172   6.933  10.241   5.913  0.0605  1.1593  1.2450
31394SOL     OW12173   9.284   0.887  10.481 -0.0618 -0.2524  0.5097
31394SOL    HW112174   9.316   0.890  10.571  2.2501  1.6038 -0.2630
31394SOL    HW212175   9.346   0.829  10.436 -0.2387  0.1112 -0.2094
31395SOL     OW12176  12.384   5.125   8.018 -0.0665  0.1916 -0.7124
31395SOL    HW112177  12.311   5.079   8.059  0.4204  0.1144  0.0859
31395SOL    HW212178  12.395   5.204   8.071  1.2427 -0.4259 -0.0245
31396SOL     OW12179  11.917   4.808   7.992 -0.0853 -0.0832  0.2690
31396SOL    HW112180  11.897   4.855   8.072 -0.0195  1.7094 -0.7206
31396SOL    HW212181  11.832   4.791   7.951 -0.0515 -0.0389  0.1814
31397SOL     OW12182  12.428   9.860   2.913 -0.5587  0.0458  0.2006
31397SOL    HW112183  12.520   9.836   2.909 -0.7995 -1.0154  0.5920
31397SOL    HW212184  12.386   9.806   2.846 -0.7538  1.3581 -0.7859
31398SOL     OW12185  11.605   8.588   3.364  0.1065  0.0099  0.0436
31398SOL    HW112186  11.677   8.648   3.347 -0.3472  1.2154  2.0201
31398SOL    HW212187  11.644   8.501   3.356  1.5903  0.6158  0.3110
31399SOL     OW12188   2.862   1.530   1.510 -0.2049 -0.2834 -0.2763
31399SOL    HW112189   2.949   1.553   1.479  0.3310  0.7119  1.7503
31399SOL    HW212190   2.865   1.434   1.521  0.5669 -0.2861 -0.4529
31400SOL     OW12191  13.327   6.229  12.024  0.0635 -0.2151 -0.1259
31400SOL    HW112192  13.410   6.187  12.000  2.1671  1.5893  3.2506
31400SOL    HW212193  13.342   6.322  12.008 -1.4279  0.1299  0.3605
31401SOL     OW12194  12.673   1.870   0.875 -0.0772  0.1057  0.3296
31401SOL    HW112195  12.619   1.910   0.943 -0.5671 -0.5516  0.3366
31401SOL    HW212196  12.616   1.865   0.798 -0.0143 -0.5140  0.3125
31402SOL     OW12197   9.671   4.066   5.706 -0.3445 -0.5957  0.3119
31402SOL    HW112198   9.642   3.982   5.670  0.6404  0.1405 -2.4799
31402SOL    HW212199   9.589   4.110   5.732 -1.3197 -0.7538 -2.2266
31403SOL     OW12200  12.261  12.706   9.045 -0.2107 -0.2175 -0.1563
31403SOL    HW112201  12.287  12.798   9.048  0.9136 -0.5415  0.4593
31403SOL    HW212202  12.321  12.661   9.105 -1.3185 -1.2253  0.2460
31404SOL     OW12203   3.680   2.345  11.884 -0.1314  0.2605 -0.5888
31404SOL    HW112204   3.683   2.434  11.851  0.7766  0.5742  0.3150
31404SOL    HW212205   3.586   2.328  11.898 -0.2543  1.3373 -0.0482
31405SOL     OW12206  12.671  13.743   2.988 -0.7128 -0.4117 -0.2996
31405SOL    HW112207  12.646  13.670   3.044 -0.7710  0.8651  1.4456
31405SOL    HW212208  12.726  13.705   2.920 -0.7272 -2.0558  0.5760
31406SOL     OW12209   1.544   3.075  11.376  0.0705 -0.3217 -0.2588
31406SOL    HW112210   1.589   3.143  11.325  0.2013 -1.0056 -1.0787
31406SOL    HW212211   1.612   3.009  11.392  0.0629 -0.0676  0.9269
31407SOL     OW12212   8.282   6.852  12.166 -0.3887  0.5577 -0.2048
31407SOL    HW112213   8.196   6.857  12.209 -1.1296  0.6979 -1.6374
31407SOL    HW212214   8.281   6.926  12.105  0.3037 -0.1076 -1.0306
31408SOL     OW12215  11.273   2.273  12.978  0.1157  0.2698 -0.1414
31408SOL    HW112216  11.179   2.266  12.994  0.0900  0.5393 -0.1701
31408SOL    HW212217  11.313   2.231  13.054 -0.0011  1.6418  0.7119
31409SOL     OW12218   1.914   0.454   5.773  0.3004  0.5903 -0.5470
31409SOL    HW112219   2.005   0.454   5.804  0.3453 -2.5404 -0.3645
31409SOL    HW212220   1.890   0.361   5.770 -3.1694  1.3326  0.1728
31410SOL     OW12221   8.978  11.205   4.293 -0.2469  0.1191  0.2447
31410SOL    HW112222   8.970  11.296   4.323 -0.4222  0.4105 -0.6479
31410SOL    HW212223   8.890  11.183   4.262  0.0973  0.1186 -0.7964
31411SOL     OW12224   3.582   6.280   5.785 -0.7115 -0.0907  0.1796
31411SOL    HW112225   3.617   6.195   5.757 -0.0756  0.3320 -0.3354
31411SOL    HW212226   3.511   6.298   5.723 -0.4212  0.0557 -0.1092
31412SOL     OW12227   7.448   5.798  11.704 -0.5688  0.3419 -0.6292
31412SOL    HW112228   7.375   5.826  11.650 -0.4230 -0.7063 -1.3956
31412SOL    HW212229   7.423   5.711  11.735 -1.1499  1.3394  1.9492
31413SOL     OW12230   1.403   9.818  10.577 -0.0250  0.3730  0.3703
31413SOL    HW112231   1.379   9.874  10.651 -0.3053 -0.6581  1.0645
31413SOL    HW212232   1.447   9.878  10.516 -0.0050  1.2818  1.2515
31414SOL     OW12233  10.125   3.483   8.741  0.3433 -0.2862 -0.5631
31414SOL    HW112234  10.057   3.420   8.715 -2.2133  2.6663 -1.6844
31414SOL    HW212235  10.174   3.501   8.660  1.9873 -1.7314  0.0508
31415SOL     OW12236   2.497   1.600  13.439  0.0646 -0.6756  0.1041
31415SOL    HW112237   2.477   1.506  13.441  2.2549 -1.1977  0.0222
31415SOL    HW212238   2.455   1.634  13.519 -2.3403 -1.2952 -0.7907
31416SOL     OW12239   1.453  11.919   4.967 -0.1850 -0.0147  0.5718
31416SOL    HW112240   1.542  11.900   4.999 -0.4872  0.3082  1.6424
31416SOL    HW212241   1.434  12.006   5.002  0.3202  1.4080 -2.3879
31417SOL     OW12242   1.331   0.144  11.382 -0.5136 -0.3054 -0.4266
31417SOL    HW112243   1.311   0.218  11.440 -0.2290 -1.0841  0.6915
31417SOL    HW212244   1.351   0.185  11.298  1.1594  1.0414  0.5610
31418SOL     OW12245   4.604   5.607   5.737 -0.2300 -0.1470  0.0125
31418SOL    HW112246   4.625   5.536   5.797  1.1305 -0.3058 -0.5993
31418SOL    HW212247   4.510   5.622   5.749 -0.7919 -2.7053 -0.5587
31419SOL     OW12248   8.887   6.873   0.491 -0.0352  0.5476 -0.1029
31419SOL    HW112249   8.917   6.949   0.540  1.3509  0.3728 -0.6320
31419SOL    HW212250   8.798   6.895   0.465 -0.4559  1.0634  1.6043
31420SOL     OW12251  12.338   1.662   6.158 -0.3240 -0.3102  0.4978
31420SOL    HW112252  12.362   1.749   6.127  1.2453 -0.8529  0.1108
31420SOL    HW212253  12.387   1.602   6.102 -4.3557 -1.6790 -1.9616
31421SOL     OW12254   3.026   6.408   9.269 -0.6383  0.2939 -0.5296
31421SOL    HW112255   2.949   6.395   9.214 -0.9748 -1.2726  0.2689
31421SOL    HW212256   2.996   6.467   9.339 -1.4318 -1.1191  0.3561
31422SOL     OW12257   1.637   8.194   6.593  0.6207 -0.1042  0.0857
31422SOL    HW112258   1.725   8.229   6.607  0.2597  0.4572  1.0841
31422SOL    HW212259   1.605   8.239   6.515  0.5029  1.1482  0.8358
31423SOL     OW12260  12.839   0.649   8.949  0.1922 -0.3265 -0.0813
31423SOL    HW112261  12.748   0.653   8.979 -0.0518 -1.6238 -0.5934
31423SOL    HW212262  12.882   0.723   8.993 -1.1785  0.5153 -0.1087
31424SOL     OW12263  10.801   3.274  12.297 -0.0607 -0.1341  0.2475
31424SOL    HW112264  10.712   3.244  12.278  0.4000 -1.1161 -0.4437
31424SOL    HW212265  10.790   3.341  12.364 -1.2414 -0.9794  0.9343
31425SOL     OW12266   2.357   8.225   4.664  0.0174 -0.1368  0.2038
31425SOL    HW112267   2.292   8.279   4.621  1.8073  0.4742 -1.9136
31425SOL    HW212268   2.351   8.139   4.621 -0.4623 -0.5883  1.1376
31426SOL     OW12269   7.281   3.001  12.836  0.1845  0.4994 -0.0389
31426SOL    HW112270   7.195   2.961  12.820  0.4056  0.0861 -0.2212
31426SOL    HW212271   7.277   3.085  12.791  0.5707 -0.3649 -1.8173
31427SOL     OW12272   8.753   4.892   3.364 -0.5465 -0.2045  0.1441
31427SOL    HW112273   8.799   4.958   3.416 -0.4359 -0.1656 -0.0016
31427SOL    HW212274   8.755   4.927   3.275 -2.5273  0.7359  0.4148
31428SOL     OW12275   3.002  10.134  10.243 -0.1376  0.7211 -0.0617
31428SOL    HW112276   2.933  10.185  10.286  0.3552  1.9780 -0.7383
31428SOL    HW212277   2.992  10.153  10.150  0.8789  0.6010 -0.2051
31429SOL     OW12278   7.907   3.261  10.384 -0.4274 -0.0332 -0.1269
31429SOL    HW112279   7.922   3.170  10.412  0.3894 -1.0663 -3.5154
31429SOL    HW212280   7.994   3.297  10.372 -0.7249  0.4012 -1.0562
31430SOL     OW12281  11.336   2.776   7.135  0.1447 -0.2484  0.8423
31430SOL    HW112282  11.244   2.756   7.116  0.0668 -0.1593  1.1136
31430SOL    HW212283  11.379   2.690   7.133  0.0415 -0.2999  0.7886
31431SOL     OW12284   6.238   4.508   9.580  0.0994 -0.1278  0.5447
31431SOL    HW112285   6.184   4.562   9.637 -0.0434 -0.9962  1.2708
31431SOL    HW212286   6.177   4.446   9.541  0.2740  0.1535 -0.1727
31432SOL     OW12287   3.945   1.654   0.320  0.0044 -0.5111  0.4605
31432SOL    HW112288   3.931   1.747   0.303  0.5465 -0.3065  1.0892
31432SOL    HW212289   3.982   1.620   0.238  0.6452  0.0164  0.5245
31433SOL     OW12290   4.018   0.724   0.305  0.2542 -0.2111 -0.1073
31433SOL    HW112291   3.943   0.685   0.261 -0.3700  0.1718  0.5922
31433SOL    HW212292   4.094   0.694   0.255 -0.1822 -2.3280  0.4094
31434SOL     OW12293  11.904   0.274  13.524  0.2400 -0.2311  0.3375
31434SOL    HW112294  11.863   0.212  13.463 -1.7363 -0.1928  1.5471
31434SOL    HW212295  11.957   0.219  13.581 -0.8383 -0.7421  0.8764
31435SOL     OW12296   1.958  11.082  13.338  0.4060  0.4581 -0.2168
31435SOL    HW112297   1.918  11.026  13.272 -0.0225 -1.2717  1.4087
31435SOL    HW212298   1.896  11.155  13.349  1.0848  1.4642 -2.5354
31436SOL     OW12299   2.626  11.047   8.130  0.4793  0.0737 -0.8115
31436SOL    HW112300   2.708  11.021   8.171 -0.2627 -0.4271  0.4096
31436SOL    HW212301   2.622  11.142   8.141  0.1045 -0.0842  0.7256
31437SOL     OW12302   0.814  13.385   9.634 -0.4568  0.0067 -0.5493
31437SOL    HW112303   0.749  13.319   9.658 -0.7342  0.3670 -0.3087
31437SOL    HW212304   0.799  13.457   9.695  0.1139  0.1287 -0.5470
31438SOL     OW12305   4.221  13.801  13.003 -0.4858 -0.2114 -0.0608
31438SOL    HW112306   4.199  13.811  12.911 -0.0579 -0.6473 -0.2138
31438SOL    HW212307   4.317  13.804  13.006 -0.5171  0.6325  0.4723
31439SOL     OW12308   0.783  13.271  11.558  0.6548  0.0097 -0.2962
31439SOL    HW112309   0.845  13.199  11.570 -0.4962 -0.7510  1.4641
31439SOL    HW212310   0.718  13.236  11.497 -0.7291 -1.0909  1.6917
31440SOL     OW12311  11.939   6.176   4.127  0.0584 -0.3482  0.1646
31440SOL    HW112312  11.899   6.191   4.213  1.0028  0.3646  0.4925
31440SOL    HW212313  11.882   6.111   4.086 -0.5814 -0.4781  1.2057
31441SOL     OW12314  11.203   7.708  10.588 -0.0757  0.3197 -0.9147
31441SOL    HW112315  11.296   7.701  10.610 -0.2719  0.3829 -0.0452
31441SOL    HW212316  11.190   7.641  10.521 -0.1284 -2.2178  1.4551
31442SOL     OW12317  11.342   3.183   7.232  0.4266  0.5028 -0.2421
31442SOL    HW112318  11.408   3.117   7.214  1.6598  1.6690 -0.1627
31442SOL    HW212319  11.392   3.263   7.248 -1.0402  1.7623 -1.5639
31443SOL     OW12320   8.461   5.698   9.450  0.8260  0.2974 -0.3755
31443SOL    HW112321   8.478   5.696   9.356  1.8248  0.3517 -0.2089
31443SOL    HW212322   8.536   5.653   9.489  0.4975  0.4094  0.4045
31444SOL     OW12323   8.644   6.648   2.549  0.2198  0.5547  0.1864
31444SOL    HW112324   8.630   6.729   2.599 -0.3315  0.7449 -0.2715
31444SOL    HW212325   8.684   6.588   2.612 -1.5060  0.4099  1.2216
31445SOL     OW12326   3.326   9.033   3.307  0.3014 -0.1768  0.4023
31445SOL    HW112327   3.257   9.093   3.279  0.3830 -0.6356 -0.8557
31445SOL    HW212328   3.389   9.089   3.352  0.3305  0.6941 -0.6569
31446SOL     OW12329  12.301   1.695   3.501 -0.3053  0.3991  0.0826
31446SOL    HW112330  12.210   1.724   3.499 -1.2298 -2.2681 -1.7862
31446SOL    HW212331  12.310   1.650   3.584 -0.4708  1.2394  0.5664
31447SOL     OW12332   3.663   2.745   0.469  0.0059  0.8359 -0.5890
31447SOL    HW112333   3.603   2.775   0.537  1.0507 -1.1333  1.3287
31447SOL    HW212334   3.606   2.699   0.406 -0.9080  2.2075 -0.8072
31448SOL     OW12335   3.064  10.954   6.284  0.4428 -0.0073 -0.0419
31448SOL    HW112336   3.113  10.873   6.273  0.7128  0.2753 -0.9691
31448SOL    HW212337   3.123  11.023   6.256  0.0972  0.4938  0.4266
31449SOL     OW12338   3.219  12.146   8.527 -0.1062 -0.5289 -0.0588
31449SOL    HW112339   3.305  12.118   8.496  0.6651  1.1629  0.4518
31449SOL    HW212340   3.193  12.216   8.467  0.3039  1.1027  1.5922
31450SOL     OW12341  12.616  12.934   2.645  0.1703 -0.5234 -0.2743
31450SOL    HW112342  12.705  12.933   2.681 -0.2645  2.3492  1.1321
31450SOL    HW212343  12.614  13.010   2.588 -1.4265 -0.4219 -0.1337
31451SOL     OW12344  10.109  10.007   0.004  0.3404  0.1721  1.0925
31451SOL    HW112345  10.121  10.098  -0.024 -1.2995  0.5262  1.4442
31451SOL    HW212346  10.129  10.008   0.097 -1.5917  0.6240  1.5356
31452SOL     OW12347   9.568   3.635  11.609 -0.7145  0.3835  0.2463
31452SOL    HW112348   9.555   3.602  11.520  0.2931  1.9007 -0.5007
31452SOL    HW212349   9.582   3.729  11.598 -0.9736  0.6744  2.0616
31453SOL     OW12350   9.575   6.366  10.422  0.2091  0.2006  0.0635
31453SOL    HW112351   9.526   6.290  10.390 -0.0924  0.7690 -0.8490
31453SOL    HW212352   9.516   6.409  10.483  0.7517 -0.8351  1.3633
31454SOL     OW12353   4.942   1.889   0.498 -0.0056 -0.1793 -0.2615
31454SOL    HW112354   4.981   1.976   0.495  0.9491 -0.5977 -0.2701
31454SOL    HW212355   4.847   1.905   0.491  0.2180  0.7829 -1.3938
31455SOL     OW12356  11.150  12.756   8.459  0.1566 -0.5779 -0.0296
31455SOL    HW112357  11.102  12.815   8.517 -0.7893 -2.1325  0.8241
31455SOL    HW212358  11.240  12.791   8.458 -0.4376  1.0398  0.1788
31456SOL     OW12359  13.078   4.025   0.828 -0.4602  0.4100  0.7349
31456SOL    HW112360  13.014   3.967   0.787 -0.2611  1.7984 -1.7498
31456SOL    HW212361  13.095   4.092   0.762  0.4517  2.4408  2.9128
31457SOL     OW12362  10.571  12.794   2.513  0.1867 -0.0844 -0.6793
31457SOL    HW112363  10.625  12.718   2.535 -1.3237 -1.0714 -0.2678
31457SOL    HW212364  10.533  12.822   2.596  1.6730  1.9518 -0.5959
31458SOL     OW12365   4.684   3.797   9.843  0.0039 -0.0486 -0.6362
31458SOL    HW112366   4.676   3.857   9.918 -1.1230 -2.3860  1.2630
31458SOL    HW212367   4.776   3.772   9.841  0.0284 -0.0393  0.0827
31459SOL     OW12368   8.974   8.216   3.703  0.7457 -0.6167  0.2724
31459SOL    HW112369   8.933   8.172   3.629  4.5709 -1.2358 -1.7110
31459SOL    HW212370   8.928   8.300   3.710 -1.0606 -1.3949 -1.4352
31460SOL     OW12371   1.465   6.331   8.269 -0.3996 -0.3807  0.5517
31460SOL    HW112372   1.487   6.330   8.362  0.0941 -1.9473  0.4399
31460SOL    HW212373   1.411   6.253   8.257  1.7407 -1.7454 -0.9504
31461SOL     OW12374  14.090   3.851  10.610 -0.6673 -0.0391  0.7019
31461SOL    HW112375  14.045   3.767  10.616 -1.2155  0.1302 -0.7728
31461SOL    HW212376  14.183   3.827  10.608 -0.7952 -0.5771  0.8364
31462SOL     OW12377   9.110   7.499   6.252 -0.1328 -0.3151 -0.1789
31462SOL    HW112378   9.160   7.479   6.173  0.1529 -0.7796  0.1125
31462SOL    HW212379   9.022   7.520   6.220 -0.2164 -1.1972 -0.5799
31463SOL     OW12380   5.833   2.184   8.520  0.0702  0.0292  0.1169
31463SOL    HW112381   5.895   2.117   8.547  0.6755  1.1103  1.5477
31463SOL    HW212382   5.792   2.149   8.441  1.2024 -1.4887  0.1666
31464SOL     OW12383   9.073  11.705   9.003  0.2398  0.3826 -0.4067
31464SOL    HW112384   9.134  11.779   9.006  0.2585  0.3246  1.2030
31464SOL    HW212385   9.017  11.724   8.927 -0.7485  2.8793  0.8195
31465SOL     OW12386  12.947   4.619   3.934 -0.0268 -0.0160 -0.5336
31465SOL    HW112387  12.853   4.625   3.954 -0.1261 -1.8395 -0.2854
31465SOL    HW212388  12.967   4.702   3.891 -1.8309  0.3009 -0.8726
31466SOL     OW12389   0.645  13.041   4.025 -0.5996  0.2366  0.1513
31466SOL    HW112390   0.555  13.011   4.040 -0.5112 -0.5532 -0.7829
31466SOL    HW212391   0.699  12.963   4.039 -0.1458  0.4899 -0.1603
31467SOL     OW12392   1.321  12.810   1.618 -0.2012 -0.1363 -0.2904
31467SOL    HW112393   1.369  12.741   1.664 -0.3293 -0.0840 -0.0774
31467SOL    HW212394   1.279  12.766   1.545  0.0753 -0.2031 -0.4104
31468SOL     OW12395   5.628  11.115   4.010  0.0840  0.1938  0.3795
31468SOL    HW112396   5.600  11.156   4.092  0.8150  0.8076  0.3218
31468SOL    HW212397   5.722  11.103   4.020  0.0388 -0.5873 -0.0043
31469SOL     OW12398  13.185   0.800   8.613  0.3045 -0.2373 -0.0422
31469SOL    HW112399  13.118   0.746   8.570 -1.4221  0.4027  1.7093
31469SOL    HW212400  13.188   0.880   8.560 -0.9237  0.0492  0.2694
31470SOL     OW12401   8.907  12.104   7.712  0.4443  0.3691  0.1645
31470SOL    HW112402   8.991  12.146   7.729  1.6323 -1.3916 -1.0228
31470SOL    HW212403   8.850  12.134   7.783  2.4247  0.6224  1.7202
31471SOL     OW12404   2.471  10.766   9.119 -0.4819  0.0339  0.3096
31471SOL    HW112405   2.382  10.734   9.102 -0.9616  0.8768  1.1077
31471SOL    HW212406   2.528  10.700   9.080 -1.4578 -0.3598 -0.5246
31472SOL     OW12407  13.929   6.544  12.749  0.0379  0.3053 -0.1448
31472SOL    HW112408  13.893   6.606  12.813 -0.0797  0.0431  0.0438
31472SOL    HW212409  14.023   6.548  12.762 -0.0525 -0.9378  1.1721
31473SOL     OW12410   4.422   0.509   4.000 -0.0456 -0.2454 -0.1693
31473SOL    HW112411   4.507   0.509   3.955  0.6435  0.1888  1.1004
31473SOL    HW212412   4.424   0.429   4.053 -0.3383 -0.1206  0.0281
31474SOL     OW12413  10.830  10.245   5.612 -0.4298  0.1287  0.7718
31474SOL    HW112414  10.736  10.249   5.630 -0.6210 -0.6756  0.0206
31474SOL    HW212415  10.852  10.153   5.621 -0.5040 -0.3437 -2.6879
31475SOL     OW12416   9.151   8.561   2.862  0.0257  0.1318 -0.3254
31475SOL    HW112417   9.243   8.578   2.882 -0.1828  1.8182 -0.5884
31475SOL    HW212418   9.135   8.610   2.781 -1.6973  2.0507  1.0490
31476SOL     OW12419   1.664  12.083  11.480  0.0146  0.0160  0.6293
31476SOL    HW112420   1.726  12.150  11.451  3.2055 -2.4112  1.3573
31476SOL    HW212421   1.629  12.046  11.399 -0.9332  1.6720  0.2159
31477SOL     OW12422   2.648   9.488  13.577 -0.0286 -0.1798  0.4556
31477SOL    HW112423   2.560   9.482  13.615 -0.1575 -2.1687 -0.0376
31477SOL    HW212424   2.704   9.442  13.641  0.4673  0.1349  0.2509
31478SOL     OW12425   8.279   9.146   3.262  0.1970  0.3100  0.0080
31478SOL    HW112426   8.331   9.106   3.331  0.6505 -0.4829 -0.7777
31478SOL    HW212427   8.326   9.227   3.240  0.8440 -0.1533 -0.3508
31479SOL     OW12428   8.353   9.408  11.852  0.5230  0.0776 -0.8284
31479SOL    HW112429   8.423   9.437  11.909 -1.9668  1.1788  1.9485
31479SOL    HW212430   8.335   9.318  11.881  0.0812  0.1938 -0.7342
31480SOL     OW12431   7.587   5.552  10.614  0.1627  0.8256 -0.5460
31480SOL    HW112432   7.615   5.466  10.645 -0.4793  0.5871 -0.6166
31480SOL    HW212433   7.523   5.581  10.678  2.9562  2.8960  1.5366
31481SOL     OW12434   5.538  10.913   2.279  0.3638  0.4010 -0.6002
31481SOL    HW112435   5.513  10.977   2.345  0.4941  1.1061 -1.2193
31481SOL    HW212436   5.492  10.833   2.304  0.7389  0.5331  0.5746
31482SOL     OW12437  12.182  12.443   6.377 -0.0211  0.2685 -0.2425
31482SOL    HW112438  12.175  12.537   6.358  0.1878 -0.0894 -2.3378
31482SOL    HW212439  12.231  12.439   6.459  0.0185  1.9738 -0.1305
31483SOL     OW12440   9.758   6.298   9.720  0.1561 -0.0529 -0.1766
31483SOL    HW112441   9.730   6.260   9.804  0.2505 -0.7771 -0.4667
31483SOL    HW212442   9.782   6.223   9.666 -0.8033  0.3426 -1.1937
31484SOL     OW12443   2.952  13.837  13.755  0.5006 -0.3994  0.9751
31484SOL    HW112444   2.952  13.813  13.662 -0.8313  1.7865  0.3236
31484SOL    HW212445   3.045  13.842  13.778  0.9185  0.4018 -0.6828
31485SOL     OW12446   2.967  14.026   0.258  0.3369  0.1625  0.1544
31485SOL    HW112447   2.917  14.014   0.339 -0.7031  0.3130 -0.4463
31485SOL    HW212448   3.040  13.965   0.267  0.3228  0.2823  1.2714
31486SOL     OW12449  10.953  10.126   3.469 -0.4027 -0.4280 -0.6076
31486SOL    HW112450  10.877  10.171   3.431 -0.1743  0.5685  0.0746
31486SOL    HW212451  11.029  10.171   3.430 -0.1541 -1.1544 -0.9794
31487SOL     OW12452   8.619   3.868   8.015 -0.4087 -0.7977  0.5756
31487SOL    HW112453   8.708   3.835   8.003 -0.3237 -0.9798  1.6098
31487SOL    HW212454   8.589   3.888   7.927  0.2331 -1.8518  0.0895
31488SOL     OW12455   7.439  10.837   3.299 -0.4488  0.3004  0.0563
31488SOL    HW112456   7.466  10.848   3.390 -0.0503 -0.0670 -0.0106
31488SOL    HW212457   7.439  10.925   3.262 -2.2125  0.6620  0.8374
31489SOL     OW12458   3.029  12.144   8.742 -0.5046 -0.0241  0.1515
31489SOL    HW112459   3.048  12.058   8.780  0.4098 -0.4382 -1.1573
31489SOL    HW212460   3.097  12.156   8.675 -1.5220  1.0270 -0.7365
31490SOL     OW12461   5.336  12.937  11.279 -0.2260  0.1853  0.1868
31490SOL    HW112462   5.313  12.990  11.355 -2.2247 -2.6636  1.7944
31490SOL    HW212463   5.430  12.923  11.287 -0.4867 -0.6136  2.6302
31491SOL     OW12464   2.145   1.050   0.395  0.1189  0.3749  0.1012
31491SOL    HW112465   2.072   1.069   0.454 -0.7417 -0.3793 -0.6914
31491SOL    HW212466   2.194   0.981   0.439 -1.0609 -0.8614 -0.4780
31492SOL     OW12467  12.215   7.316   9.496 -0.0688 -0.5737  0.7531
31492SOL    HW112468  12.158   7.240   9.493 -0.1654 -0.5941  2.4772
31492SOL    HW212469  12.200   7.355   9.582  0.7678  0.7826  0.3212
31493SOL     OW12470  12.332  13.116   9.474  0.1957  0.0772  0.0734
31493SOL    HW112471  12.376  13.071   9.401 -0.9226  0.6539 -0.9940
31493SOL    HW212472  12.318  13.205   9.442 -1.5719 -0.0446  0.4360
31494SOL     OW12473   2.687   9.816   6.854 -0.2081 -0.2251 -0.6723
31494SOL    HW112474   2.755   9.772   6.905  2.4840  2.9207 -1.2164
31494SOL    HW212475   2.709   9.796   6.763  0.3368  1.1978 -0.8720
31495SOL     OW12476  13.784  12.952   9.184  0.2575 -0.3167 -0.4342
31495SOL    HW112477  13.858  12.955   9.245  0.0408  1.1245 -0.1997
31495SOL    HW212478  13.743  13.038   9.192 -2.9177 -1.8011  1.2216
31496SOL     OW12479  13.537   8.793   4.335  0.0056  0.3487 -0.0802
31496SOL    HW112480  13.627   8.803   4.301 -0.0949 -0.3957 -0.5904
31496SOL    HW212481  13.548   8.782   4.429  0.4940 -0.2329 -0.1994
31497SOL     OW12482   8.350  12.489  13.498  0.2090  0.9287 -0.4950
31497SOL    HW112483   8.431  12.516  13.541 -0.1960 -0.0087  0.9132
31497SOL    HW212484   8.359  12.393  13.491 -0.4160  0.9116 -1.0952
31498SOL     OW12485   7.276  12.461   2.018  0.0248 -0.2366  0.2341
31498SOL    HW112486   7.273  12.384   2.074 -0.8067 -0.0566  0.4633
31498SOL    HW212487   7.248  12.429   1.932 -1.8638  0.0716  0.6869
31499SOL     OW12488  10.432  12.537   7.434  0.2210 -0.5636 -0.4078
31499SOL    HW112489  10.384  12.484   7.371  0.9495 -0.9837 -0.6219
31499SOL    HW212490  10.499  12.479   7.468  0.2926 -0.1210  0.2239
31500SOL     OW12491  11.579   5.035   6.510 -0.5402 -0.2255  0.0409
31500SOL    HW112492  11.488   5.065   6.501 -0.5452  0.0518  0.9462
31500SOL    HW212493  11.601   5.002   6.423 -2.0581 -1.8178  0.1978
31501SOL     OW12494   7.818  13.136  14.102  0.3484  0.1033  0.0031
31501SOL    HW112495   7.835  13.052  14.145  1.3396 -0.0188 -0.5839
31501SOL    HW212496   7.869  13.200  14.153 -1.4405  0.6205  1.2711
31502SOL     OW12497   8.316   7.135   8.655 -0.9605  0.4310  0.3907
31502SOL    HW112498   8.345   7.211   8.604  0.2653 -0.1791  0.1423
31502SOL    HW212499   8.354   7.060   8.610 -2.1728 -0.3525  0.6226
31503SOL     OW12500   5.927   1.647   4.845 -0.1397  0.0348  0.0206
31503SOL    HW112501   5.875   1.568   4.854 -0.6435  0.4158  0.5388
31503SOL    HW212502   6.012   1.624   4.882  0.0482 -0.5722 -0.7718
31504SOL     OW12503   9.492  12.342   8.557 -0.6616 -0.3072  0.6472
31504SOL    HW112504   9.432  12.294   8.614 -1.4138 -1.1255 -0.7816
31504SOL    HW212505   9.572  12.289   8.558 -1.3610 -1.4483 -0.6222
31505SOL     OW12506   4.897  11.664   2.606 -0.0685  0.1825  0.2927
31505SOL    HW112507   4.907  11.595   2.672  2.1707 -1.5288 -1.6541
31505SOL    HW212508   4.871  11.617   2.526  0.8278  1.6648 -0.9182
31506SOL     OW12509  13.274   7.758   4.683  0.0093  0.2177  0.2554
31506SOL    HW112510  13.227   7.703   4.620  1.4581 -0.9900  0.1626
31506SOL    HW212511  13.340   7.803   4.630 -1.1705  2.1468  0.3258
31507SOL     OW12512   8.402   8.958   8.309  0.3144 -0.3422 -0.4918
31507SOL    HW112513   8.417   8.959   8.214  1.6072  1.7504 -0.3103
31507SOL    HW212514   8.324   9.013   8.321  0.9610  0.5349 -0.2446
31508SOL     OW12515   2.961  10.798   7.051 -0.1683 -0.7708 -0.3253
31508SOL    HW112516   3.030  10.831   7.109 -0.2625  0.3042 -0.7899
31508SOL    HW212517   2.967  10.703   7.057  2.2734 -0.7511 -1.4358
31509SOL     OW12518   8.132   6.658   6.194  0.3807  0.0950  0.3250
31509SOL    HW112519   8.127   6.562   6.195 -0.0579  0.1125  0.2417
31509SOL    HW212520   8.111   6.683   6.104  1.6514  0.2276  0.0443
31510SOL     OW12521   5.248  13.583   3.593  0.0062  0.6895  0.1682
31510SOL    HW112522   5.158  13.558   3.571 -0.5620  1.4640  1.4383
31510SOL    HW212523   5.285  13.506   3.636  0.3388 -0.0106 -1.3335
31511SOL     OW12524  10.539  10.276  10.680 -0.4610 -0.3038 -0.0137
31511SOL    HW112525  10.495  10.249  10.761 -0.7295 -1.5012 -0.5500
31511SOL    HW212526  10.608  10.211  10.667 -0.1836  0.0929 -0.5647
31512SOL     OW12527   8.072   3.402   4.865  0.3528  0.0345  0.5947
31512SOL    HW112528   8.089   3.404   4.959  0.2496  0.2280  0.6104
31512SOL    HW212529   8.030   3.318   4.850 -0.2449  0.2860  0.8328
31513SOL     OW12530   4.528   8.372  13.185  0.2825 -0.2412 -0.2675
31513SOL    HW112531   4.474   8.332  13.117  0.8306 -1.7725  0.1665
31513SOL    HW212532   4.582   8.435  13.138 -0.8671  0.3025 -0.9121
31514SOL     OW12533   5.863  12.980  13.563 -0.1932 -0.4921 -0.0023
31514SOL    HW112534   5.832  12.905  13.512  1.3533 -2.4569  1.7730
31514SOL    HW212535   5.792  12.998  13.624 -0.8071 -0.1007 -0.8093
31515SOL     OW12536  11.977   9.011  10.630  0.3347 -0.1021 -0.0977
31515SOL    HW112537  11.920   9.074  10.674 -1.4940 -1.2228 -0.7206
31515SOL    HW212538  12.033   8.976  10.700 -0.4594  0.2859  0.7598
31516SOL     OW12539  10.693   1.296   8.576 -0.2790  0.2887  0.3541
31516SOL    HW112540  10.786   1.283   8.556 -0.0283 -0.3070  1.7961
31516SOL    HW212541  10.648   1.275   8.494  0.8340  0.2285 -0.2567
31517SOL     OW12542  11.939   3.582   8.601  0.0762  0.2434  0.1908
31517SOL    HW112543  11.968   3.604   8.513 -0.6181 -0.0102 -0.1120
31517SOL    HW212544  11.847   3.558   8.591  0.3288 -1.0659  0.7792
31518SOL     OW12545   1.774   5.880   9.035  0.6400  0.2553 -0.2627
31518SOL    HW112546   1.684   5.913   9.037  0.8317  0.8452 -1.1029
31518SOL    HW212547   1.767   5.793   8.995  0.4827  0.4199 -0.5909
31519SOL     OW12548   8.772   3.674   9.722  0.4027  0.2042 -0.3151
31519SOL    HW112549   8.806   3.623   9.648 -0.3563  0.0240 -0.5507
31519SOL    HW212550   8.839   3.665   9.790 -0.5338 -2.7517  0.3807
31520SOL     OW12551  13.368  10.189   9.787 -0.0205  0.2377  0.0309
31520SOL    HW112552  13.391  10.180   9.695  2.7259  0.8442  0.5544
31520SOL    HW212553  13.419  10.121   9.831 -2.0571 -0.7099  1.0692
31521SOL     OW12554   3.120   8.220   7.616  0.1031  0.4107 -0.3911
31521SOL    HW112555   3.081   8.133   7.616  0.4911  0.2148 -1.4272
31521SOL    HW212556   3.173   8.224   7.696  1.3279 -0.9030 -1.0881
31522SOL     OW12557  13.701   8.019   7.575  0.0579 -0.4708 -0.4670
31522SOL    HW112558  13.656   7.937   7.597  1.6344 -1.1373  0.5186
31522SOL    HW212559  13.775   8.022   7.636 -0.7820  2.4526  0.5648
31523SOL     OW12560  12.565  13.618  11.198 -0.1120  0.2088 -0.0888
31523SOL    HW112561  12.604  13.531  11.205 -1.1225 -0.4493 -2.0074
31523SOL    HW212562  12.640  13.678  11.191  0.5797 -0.6355  0.0422
31524SOL     OW12563   8.616   9.230   3.631 -0.2991 -0.2415 -0.0029
31524SOL    HW112564   8.525   9.259   3.640 -0.5712 -0.6609 -1.2698
31524SOL    HW212565   8.661   9.271   3.705 -1.9864 -2.0306  2.1565
31525SOL     OW12566   5.031   1.468   6.030 -0.2618  0.3262  0.2326
31525SOL    HW112567   5.072   1.387   6.000 -1.1808  0.2317 -0.8374
31525SOL    HW212568   5.066   1.535   5.972  0.2184  0.6469  0.8833
31526SOL     OW12569   8.202   9.300  13.796 -0.2648 -0.7100 -0.0215
31526SOL    HW112570   8.141   9.374  13.797  1.1332  0.4973  0.5626
31526SOL    HW212571   8.223   9.285  13.889 -0.5500 -1.8823 -0.1308
31527SOL     OW12572  12.556   4.778   0.873 -0.4106  0.2688 -1.0349
31527SOL    HW112573  12.640   4.814   0.844 -0.8466  0.8425 -1.6314
31527SOL    HW212574  12.528   4.721   0.801 -0.6918  0.3588 -1.0007
31528SOL     OW12575   7.163   6.029  10.076 -0.3413  0.2798  0.3165
31528SOL    HW112576   7.119   6.100  10.122  1.0141  0.3937  1.5027
31528SOL    HW212577   7.253   6.033  10.106  0.2208 -0.7064 -1.1253
31529SOL     OW12578   2.551   5.858  12.536 -0.1823  0.2824 -0.5599
31529SOL    HW112579   2.566   5.839  12.628 -0.2626  1.7065 -0.2241
31529SOL    HW212580   2.469   5.813  12.515  1.1899 -2.3454 -0.7285
31530SOL     OW12581   6.055  11.562   6.699 -0.8614 -0.2707  0.0712
31530SOL    HW112582   6.118  11.633   6.708  0.1190 -1.1378  0.2196
31530SOL    HW212583   6.074  11.523   6.614 -1.7342 -0.0414 -0.2358
31531SOL     OW12584  14.059   9.342   6.024  0.3999  0.0337  0.1781
31531SOL    HW112585  13.995   9.321   6.092 -0.3738 -0.2604 -0.6084
31531SOL    HW212586  14.043   9.435   6.004  0.9507  0.2483  0.7252
31532SOL     OW12587  10.866  12.278   9.462 -0.7064  0.4486 -0.1770
31532SOL    HW112588  10.819  12.350   9.419 -1.6640 -0.1887 -0.2228
31532SOL    HW212589  10.805  12.245   9.528  1.1178  2.1405  2.5924
31533SOL     OW12590   3.747   3.998   3.055  0.0666 -0.1815  0.3505
31533SOL    HW112591   3.702   3.988   3.138 -1.2328  1.4721 -0.0956
31533SOL    HW212592   3.693   4.059   3.005  0.5627 -1.4402 -1.8988
31534SOL     OW12593   1.062  10.117   0.809  0.1136  1.0644  0.4079
31534SOL    HW112594   0.973  10.145   0.787 -0.4564 -1.8884 -1.6280
31534SOL    HW212595   1.056  10.084   0.899 -1.1909 -0.2546 -0.1393
31535SOL     OW12596   7.492  10.825   7.636  0.2828  0.5231 -0.4141
31535SOL    HW112597   7.583  10.795   7.632  0.6320  1.1205  1.7021
31535SOL    HW212598   7.499  10.920   7.645 -0.5451  0.5515 -0.0374
31536SOL     OW12599   5.252   1.276   0.231  0.1552 -0.1647  0.1621
31536SOL    HW112600   5.296   1.299   0.313  0.4198 -0.4102  0.0908
31536SOL    HW212601   5.169   1.324   0.234  0.8043  1.0174 -0.1089
31537SOL     OW12602   3.270  10.427   7.773  0.3863  0.6143 -0.4974
31537SOL    HW112603   3.210  10.497   7.746  1.3257  1.5064 -0.3231
31537SOL    HW212604   3.246  10.352   7.717 -1.3139  0.7289  0.0139
31538SOL     OW12605   8.038  11.279   6.165 -0.3842  0.0095  0.2230
31538SOL    HW112606   8.076  11.212   6.108  0.7933 -0.2606  1.2787
31538SOL    HW212607   7.945  11.260   6.165 -0.4009 -0.0537 -1.5018
31539SOL     OW12608   5.138  10.074  10.386  0.2963 -0.1727  0.0121
31539SOL    HW112609   5.153  10.024  10.466 -0.1238 -0.7214 -0.2417
31539SOL    HW212610   5.224  10.105  10.360  0.3486  0.6357  1.0754
31540SOL     OW12611   6.858   8.096  12.629 -0.2321  0.2069  0.1911
31540SOL    HW112612   6.879   8.125  12.718 -1.2819  0.0085  0.5135
31540SOL    HW212613   6.941   8.106  12.581 -0.1534  2.3166  0.6554
31541SOL     OW12614   4.822  12.418  12.678  0.3380  0.4914  0.0658
31541SOL    HW112615   4.857  12.506  12.689  1.9848 -0.1690  0.3457
31541SOL    HW212616   4.770  12.422  12.598  0.9805  1.5423 -0.3149
31542SOL     OW12617  13.710   5.196   2.730 -0.0935  0.3412  0.2628
31542SOL    HW112618  13.714   5.100   2.725  0.8146  0.3816 -0.0550
31542SOL    HW212619  13.624   5.219   2.695  0.2248 -0.2810 -0.9724
31543SOL     OW12620   1.205  10.296  11.112 -0.2836  0.1198  0.4108
31543SOL    HW112621   1.115  10.287  11.081 -0.6752 -0.6782  1.6894
31543SOL    HW212622   1.207  10.246  11.193  0.8009  1.7047  1.4306
31544SOL     OW12623   1.531  10.568  10.878 -0.2667 -0.3500 -0.0960
31544SOL    HW112624   1.475  10.492  10.865 -1.1512  0.5336 -1.8619
31544SOL    HW212625   1.618  10.537  10.853 -0.4524 -1.0118  0.0487
31545SOL     OW12626  11.951   1.162  14.125  0.2927  0.0565 -0.4070
31545SOL    HW112627  11.977   1.240  14.174  0.1650 -0.8510  1.1397
31545SOL    HW212628  11.855   1.162  14.128  0.1557  1.2243 -2.6746
31546SOL     OW12629  11.666   8.217   1.434  0.8314 -0.2859 -0.3427
31546SOL    HW112630  11.717   8.161   1.376  0.2297 -0.5856 -0.5949
31546SOL    HW212631  11.677   8.178   1.521 -1.1195 -2.0102 -0.7665
31547SOL     OW12632   4.534   1.239  12.745 -0.1755  0.4563  0.5556
31547SOL    HW112633   4.588   1.235  12.824  0.7730  2.8811  0.1149
31547SOL    HW212634   4.589   1.282  12.680 -1.8943  1.0717 -0.5748
31548SOL     OW12635   1.460   0.755  13.634 -0.5171 -0.1998 -0.7335
31548SOL    HW112636   1.481   0.771  13.727 -0.6770  0.1625 -0.7592
31548SOL    HW212637   1.512   0.820  13.587  0.5485 -1.2020 -0.9832
31549SOL     OW12638   6.635   4.281  11.405 -0.1171 -0.0549 -0.3648
31549SOL    HW112639   6.596   4.250  11.488 -0.0087  0.6957 -0.0255
31549SOL    HW212640   6.726   4.253  11.410 -0.2046 -0.3547 -0.4105
31550SOL     OW12641  10.195  11.251   0.516  0.5767 -0.3168  0.4074
31550SOL    HW112642  10.208  11.256   0.610 -0.5264 -0.1506  0.5662
31550SOL    HW212643  10.100  11.247   0.505  0.7173 -1.2145 -0.6552
31551SOL     OW12644   2.547   9.266   5.559  0.1205 -0.4961 -0.0822
31551SOL    HW112645   2.528   9.286   5.467  1.5276 -0.8389 -0.4677
31551SOL    HW212646   2.474   9.211   5.587 -1.5757  1.5389 -0.2657
31552SOL     OW12647   4.813   4.839   6.597 -0.4504 -0.5811 -0.2696
31552SOL    HW112648   4.817   4.894   6.519  2.0515  0.0858  0.2266
31552SOL    HW212649   4.885   4.870   6.652 -0.7886 -2.4359  1.3513
31553SOL     OW12650  10.717   9.222   7.813  0.3517  0.5967  0.6594
31553SOL    HW112651  10.686   9.157   7.750  0.5664  0.7271  0.4168
31553SOL    HW212652  10.662   9.209   7.891  0.5327 -0.0112  0.6883
31554SOL     OW12653  12.151  12.246   4.377  0.3080 -0.9063  0.1298
31554SOL    HW112654  12.056  12.260   4.383 -0.0343 -2.3984 -1.0169
31554SOL    HW212655  12.183  12.316   4.321 -0.5900 -1.8959 -1.7070
31555SOL     OW12656   2.517  13.851   3.861 -0.1611 -0.7111 -0.3541
31555SOL    HW112657   2.433  13.877   3.897  0.0561  1.1367 -1.0744
31555SOL    HW212658   2.576  13.848   3.936 -0.6511 -1.0749  0.0214
31556SOL     OW12659   4.098   6.218   1.940 -0.1203  0.1981 -0.5379
31556SOL    HW112660   4.175   6.238   1.887  0.8914  0.9943  1.1439
31556SOL    HW212661   4.036   6.181   1.879  1.9512 -1.4275 -1.8071
31557SOL     OW12662   9.462   7.566   3.580 -0.1832  0.7170  0.6091
31557SOL    HW112663   9.464   7.641   3.520  0.2145  0.8065  0.7282
31557SOL    HW212664   9.409   7.501   3.535  0.9950  0.3701 -0.3500
31558SOL     OW12665   5.928   4.470   8.353 -0.2502  0.0839  0.1209
31558SOL    HW112666   5.836   4.481   8.379 -0.2045 -0.6170  0.6099
31558SOL    HW212667   5.939   4.528   8.278 -0.8325  0.9162  0.6592
31559SOL     OW12668  12.118  12.467  11.098  0.1154 -0.6988  0.3896
31559SOL    HW112669  12.047  12.508  11.049  0.4237 -0.0309  0.4913
31559SOL    HW212670  12.094  12.478  11.190 -0.6462 -2.2802  0.4146
31560SOL     OW12671   2.927  10.508  11.976  0.0606  0.2661 -0.0517
31560SOL    HW112672   2.888  10.589  11.944  0.3090  0.5796  0.4176
31560SOL    HW212673   2.908  10.443  11.909 -3.6277 -0.2917  1.3191
31561SOL     OW12674  11.231  13.963   5.108 -0.1508 -0.0272 -0.1613
31561SOL    HW112675  11.259  14.051   5.134  1.6906 -0.0077 -1.9530
31561SOL    HW212676  11.236  13.911   5.189 -1.2156  1.4652  0.9108
31562SOL     OW12677  11.750  13.758   7.598  0.1181 -0.1454 -0.4257
31562SOL    HW112678  11.791  13.843   7.583  1.9256 -0.7673  0.7948
31562SOL    HW212679  11.657  13.779   7.611  0.4184  1.5640 -0.7543
31563SOL     OW12680   5.085   3.831  11.928 -0.5153 -0.0976  0.0543
31563SOL    HW112681   5.068   3.921  11.954 -0.3852  0.2550 -1.0274
31563SOL    HW212682   5.011   3.807  11.873 -0.5137 -0.6288  0.2730
31564SOL     OW12683  11.910  14.025   4.373  0.5573  0.0991  0.4045
31564SOL    HW112684  11.885  14.115   4.392  2.1048  0.4894  0.7315
31564SOL    HW212685  12.005  14.022   4.388  0.9684 -0.9605 -1.9633
31565SOL     OW12686   7.253   6.614   0.493  0.1214  0.3175 -0.3048
31565SOL    HW112687   7.288   6.656   0.415  0.5992 -0.6730 -0.6294
31565SOL    HW212688   7.281   6.671   0.565 -1.0882  1.7419 -0.8879
31566SOL     OW12689  11.059   7.174   7.872  0.5751 -0.1074  0.1944
31566SOL    HW112690  11.057   7.260   7.831 -1.0844  0.0238  0.4751
31566SOL    HW212691  11.070   7.112   7.800  2.2329  0.3272  0.0317
31567SOL     OW12692   6.988   6.260   7.006  0.1181 -0.3176  0.6342
31567SOL    HW112693   7.065   6.314   7.023  0.4330  0.2775 -2.2751
31567SOL    HW212694   6.914   6.317   7.028  0.4773  0.8607 -0.9869
31568SOL     OW12695   4.602   6.438   2.524 -0.1366  0.1444 -0.5220
31568SOL    HW112696   4.618   6.346   2.500 -1.1735 -0.4063  0.7618
31568SOL    HW212697   4.530   6.434   2.587 -0.6770  1.9107 -0.9647
31569SOL     OW12698  12.747   9.780   4.666  0.0359 -0.3764 -0.3357
31569SOL    HW112699  12.689   9.703   4.666  0.4054 -0.6855  0.8280
31569SOL    HW212700  12.835   9.744   4.664  0.2178 -0.0085  0.5123
31570SOL     OW12701   1.246   4.109   7.324 -0.6823  0.1766  0.1372
31570SOL    HW112702   1.310   4.116   7.253 -0.3866 -0.3092  0.3489
31570SOL    HW212703   1.250   4.194   7.369 -0.3335  0.2226  0.0242
31571SOL     OW12704  12.006   3.631   6.700  0.4453  0.4899  0.0916
31571SOL    HW112705  11.969   3.589   6.778 -0.3158 -0.2011 -0.6070
31571SOL    HW212706  11.929   3.655   6.648  0.9410 -0.0285 -0.9170
31572SOL     OW12707  12.912   3.947   2.050 -0.0113 -0.2037 -0.3942
31572SOL    HW112708  12.837   3.991   2.091 -0.7776 -0.7511 -1.1633
31572SOL    HW212709  12.873   3.893   1.981  0.9400 -1.7019  0.1923
31573SOL     OW12710   4.681   0.453   0.216 -0.6567 -0.1661  0.5048
31573SOL    HW112711   4.632   0.402   0.281 -0.7761  1.3309  1.6385
31573SOL    HW212712   4.625   0.451   0.137 -1.0992 -0.9705  0.8219
31574SOL     OW12713   3.756   0.479   8.073 -0.1027  0.5771 -0.6221
31574SOL    HW112714   3.828   0.506   8.131 -0.1442  1.1569 -0.8384
31574SOL    HW212715   3.738   0.389   8.099  1.7842 -0.1608 -1.6345
31575SOL     OW12716   1.977   7.252  13.943  0.6874  0.5892  0.7030
31575SOL    HW112717   1.896   7.267  13.992 -1.2978 -1.8930 -1.5155
31575SOL    HW212718   1.949   7.211  13.862  4.0620  1.5470 -1.1545
31576SOL     OW12719  10.309  13.762  13.932  0.3900  0.1467 -0.2624
31576SOL    HW112720  10.400  13.789  13.920  1.7494 -2.1747  3.0830
31576SOL    HW212721  10.278  13.818  14.004 -1.4489  1.9176 -2.3058
31577SOL     OW12722   6.550  11.382   9.145 -0.4052  0.2218 -0.4252
31577SOL    HW112723   6.599  11.378   9.063 -0.9402  0.4750 -0.7668
31577SOL    HW212724   6.464  11.416   9.119 -1.3695 -1.8695 -0.1199
31578SOL     OW12725   7.405   9.723   6.637 -0.5961 -0.3810  0.2062
31578SOL    HW112726   7.435   9.728   6.547 -0.2238  0.5585  0.3713
31578SOL    HW212727   7.310   9.733   6.631 -0.4656  0.8825 -0.0022
31579SOL     OW12728  13.025   5.358   9.301  0.2813  0.1088  0.1134
31579SOL    HW112729  12.959   5.421   9.270  0.4040  0.1524 -0.0611
31579SOL    HW212730  13.063   5.322   9.221  0.7894  0.4202  0.2124
31580SOL     OW12731  12.451   7.893   8.428  0.4648 -0.0153 -0.5107
31580SOL    HW112732  12.467   7.799   8.436  0.1840  0.0376  0.9094
31580SOL    HW212733  12.525   7.934   8.471 -0.9423  0.3195  1.7605
31581SOL     OW12734   5.149   7.193   6.297  0.4107 -0.3037  0.0360
31581SOL    HW112735   5.190   7.279   6.292 -0.0179 -0.1739 -1.9145
31581SOL    HW212736   5.221   7.134   6.318  1.4143  0.1005 -2.0273
31582SOL     OW12737  13.891   1.361   4.640 -0.3809  0.0749 -0.3422
31582SOL    HW112738  13.800   1.386   4.653 -0.8397 -1.4066 -0.5576
31582SOL    HW212739  13.905   1.288   4.700  1.0495  1.0579  0.5855
31583SOL     OW12740   6.019  12.960  10.579  0.3012 -0.2123  0.1105
31583SOL    HW112741   5.949  12.961  10.514 -0.2930 -1.4828  0.7010
31583SOL    HW212742   6.096  12.992  10.531 -0.3326 -0.2330 -0.9629
31584SOL     OW12743   4.521  14.003   9.471  0.3038 -0.0194  0.1170
31584SOL    HW112744   4.461  14.043   9.534  1.2929  0.4512  0.7915
31584SOL    HW212745   4.589  14.070   9.457 -0.6811  0.5066 -2.6467
31585SOL     OW12746  10.778  14.034  10.976 -0.1878 -0.1243 -0.3950
31585SOL    HW112747  10.764  14.044  11.071  0.0679 -1.0153 -0.2478
31585SOL    HW212748  10.764  13.940  10.961 -1.2253  0.1735 -1.4130
31586SOL     OW12749   2.089   0.667   7.965 -0.0552  0.0950 -0.0700
31586SOL    HW112750   2.009   0.626   7.932 -1.1607  1.4884  0.7669
31586SOL    HW212751   2.116   0.613   8.039 -0.2892 -0.3165 -0.2833
31587SOL     OW12752   4.837   7.378   7.787  0.2934  0.1946  0.0618
31587SOL    HW112753   4.851   7.378   7.881  1.2808  1.2256 -0.0569
31587SOL    HW212754   4.906   7.322   7.752  2.1123  2.4594 -0.2543
31588SOL     OW12755  11.516  10.196   3.191 -0.4159  0.0310 -0.0328
31588SOL    HW112756  11.580  10.135   3.228  0.2411  1.0160  0.5124
31588SOL    HW212757  11.483  10.244   3.267 -0.4935  0.7396 -0.5013
31589SOL     OW12758   9.740   5.768  10.617 -0.3024  0.6528 -0.4924
31589SOL    HW112759   9.697   5.796  10.699  0.4756  1.2256 -0.2680
31589SOL    HW212760   9.803   5.702  10.644 -0.0958  0.7890 -0.6343
31590SOL     OW12761   0.706   5.514  11.864 -0.6358  0.0670 -0.2384
31590SOL    HW112762   0.638   5.554  11.810  0.0478  0.2400 -1.0059
31590SOL    HW212763   0.751   5.588  11.904 -0.0130  0.0314 -0.8546
31591SOL     OW12764  12.251   5.131   7.774  0.2285  0.6629 -0.2330
31591SOL    HW112765  12.307   5.137   7.852 -0.0686  0.9319 -0.0390
31591SOL    HW212766  12.268   5.044   7.739  0.6781  0.6928 -0.1044
31592SOL     OW12767   7.507   6.070  13.959 -0.2223  0.2009  0.2912
31592SOL    HW112768   7.547   6.014  13.892  1.1444 -1.0290  2.0124
31592SOL    HW212769   7.423   6.096  13.922 -0.0717 -1.4613 -1.3847
31593SOL     OW12770  11.534   8.894   7.597 -0.3739  0.2485  0.0674
31593SOL    HW112771  11.586   8.815   7.577 -0.4250  0.1512  0.3131
31593SOL    HW212772  11.443   8.866   7.585 -0.3616  0.5266 -0.7480
31594SOL     OW12773   4.170  10.716  13.447  1.0324 -0.6041  0.0957
31594SOL    HW112774   4.158  10.630  13.407 -0.2711 -0.7591  0.7731
31594SOL    HW212775   4.225  10.699  13.524  1.7930 -0.6251 -0.4395
31595SOL     OW12776   7.306   9.667  11.751 -0.1797  0.4947  0.1889
31595SOL    HW112777   7.289   9.630  11.664 -0.9771  0.2516  0.4362
31595SOL    HW212778   7.396   9.697  11.747 -0.7745  2.2374 -1.3695
31596SOL     OW12779   7.519  10.759   6.717  0.1978 -0.3673 -0.1154
31596SOL    HW112780   7.492  10.679   6.762  0.8309  0.3034  1.5226
31596SOL    HW212781   7.444  10.781   6.661 -0.9668 -0.8103  1.2028
31597SOL     OW12782  11.782   8.209   8.789  0.5015  0.2373  0.4347
31597SOL    HW112783  11.838   8.146   8.744  0.3748  0.0548  0.5284
31597SOL    HW212784  11.718   8.235   8.723  0.2008 -0.1718  0.5582
31598SOL     OW12785   4.628   9.068   1.231  0.1587 -0.2747  0.0635
31598SOL    HW112786   4.596   9.133   1.295  0.1556  0.2264 -0.4369
31598SOL    HW212787   4.549   9.021   1.204  0.3912 -1.7875  1.8136
31599SOL     OW12788  11.077   4.211   4.526  0.1910  0.3554 -0.0437
31599SOL    HW112789  11.165   4.235   4.554  0.5805 -0.3901 -0.5876
31599SOL    HW212790  11.059   4.128   4.570 -0.5427  0.8715  0.6517
31600SOL     OW12791   1.837   8.767  11.872 -0.3094 -0.5984 -0.2597
31600SOL    HW112792   1.819   8.806  11.787 -2.1248  0.0564  0.3700
31600SOL    HW212793   1.925   8.730  11.864  0.4117  1.2901 -1.7327
31601SOL     OW12794   5.418   4.704   0.097 -0.0827 -0.2012  0.0987
31601SOL    HW112795   5.360   4.700   0.173 -0.4859 -1.5757 -0.2554
31601SOL    HW212796   5.492   4.758   0.126 -2.2456  3.1245  0.0369
31602SOL     OW12797   1.637   4.879  12.794  0.9256 -0.4080  0.2258
31602SOL    HW112798   1.595   4.834  12.721  1.1034  0.6343 -0.5365
31602SOL    HW212799   1.565   4.911  12.847  0.7810 -0.4864  0.0772
31603SOL     OW12800   5.393   2.810   1.866  0.1856  0.0435 -0.0130
31603SOL    HW112801   5.455   2.802   1.938  0.4668  0.9168 -0.1367
31603SOL    HW212802   5.444   2.849   1.794 -0.1880 -0.4279 -0.5445
31604SOL     OW12803   7.956   9.313   5.841  0.0782 -0.4075  0.1387
31604SOL    HW112804   7.884   9.257   5.812  0.3950 -0.5002 -0.4950
31604SOL    HW212805   8.035   9.258   5.830  0.4905  0.4122 -1.2879
31605SOL     OW12806   0.116   2.532   1.946 -0.3739  0.1103 -0.0895
31605SOL    HW112807   0.149   2.476   1.875 -1.8006 -0.1608 -0.5716
31605SOL    HW212808   0.036   2.488   1.975 -1.4192  1.7874 -0.3354
31606SOL     OW12809   1.585  11.786  11.498  0.3350 -0.5862  0.4289
31606SOL    HW112810   1.633  11.704  11.502 -0.6992 -1.3966 -2.0095
31606SOL    HW212811   1.643  11.850  11.540  3.3004 -1.6172 -1.8033
31607SOL     OW12812   2.447   1.662   3.326  0.0837 -0.3357 -0.4582
31607SOL    HW112813   2.441   1.696   3.237  0.2246 -2.2374 -1.2440
31607SOL    HW212814   2.395   1.581   3.324 -1.4027  0.4662  1.6798
31608SOL     OW12815  12.567   8.589  12.089  0.2003 -0.4046 -0.3198
31608SOL    HW112816  12.491   8.552  12.133  0.0438  2.4949  2.1334
31608SOL    HW212817  12.582   8.673  12.131  3.1262  0.4200 -2.5909
31609SOL     OW12818  13.881  11.852   0.378  0.2277 -0.2404  0.2129
31609SOL    HW112819  13.913  11.851   0.469  2.1173  0.7154 -0.3752
31609SOL    HW212820  13.952  11.813   0.328  1.3933  3.4852 -1.3947
31610SOL     OW12821   4.591  11.674   0.341 -0.3303 -0.2672  0.2922
31610SOL    HW112822   4.522  11.708   0.398 -0.3427 -0.3199  0.3083
31610SOL    HW212823   4.546  11.652   0.259 -0.1180  0.9184 -0.1671
31611SOL     OW12824  11.643   4.036   9.235  0.0398 -0.8142  0.2843
31611SOL    HW112825  11.607   3.947   9.243  0.2019 -0.9436 -0.3542
31611SOL    HW212826  11.692   4.049   9.317 -0.4801 -1.0794  0.6478
31612SOL     OW12827   0.809  13.520  11.323 -0.3275 -0.0729  0.1747
31612SOL    HW112828   0.843  13.566  11.247  1.4088  0.0045  0.9627
31612SOL    HW212829   0.715  13.537  11.321  0.0624  2.2966 -0.3501
31613SOL     OW12830   7.911   8.714  12.683 -0.0987 -0.1403  0.2058
31613SOL    HW112831   7.854   8.643  12.655  0.8663 -0.8470 -0.0289
31613SOL    HW212832   7.911   8.709  12.778 -2.6088  1.6438  0.3703
31614SOL     OW12833   2.969  13.290  11.983 -0.0270  0.0297 -0.5084
31614SOL    HW112834   3.043  13.314  12.038  1.0346 -0.2713 -1.7508
31614SOL    HW212835   2.957  13.196  11.998 -1.5688  0.4674  1.2962
31615SOL     OW12836  11.035   5.777   4.316 -0.6405 -0.0436 -0.1222
31615SOL    HW112837  11.035   5.746   4.225 -0.8945 -0.9210  0.1727
31615SOL    HW212838  10.961   5.837   4.321 -0.3246  0.4011 -0.6163
31616SOL     OW12839   4.286   7.789  13.309 -0.1162 -0.2948 -0.3491
31616SOL    HW112840   4.347   7.764  13.240 -1.0692 -1.3549 -0.8415
31616SOL    HW212841   4.315   7.740  13.386 -0.7507 -1.3777 -0.7741
31617SOL     OW12842   9.406  12.577   2.927  0.0703  0.0227 -0.2602
31617SOL    HW112843   9.317  12.608   2.943  0.1399 -0.1153  0.4076
31617SOL    HW212844   9.395  12.501   2.869 -0.2676 -0.2202  0.1205
31618SOL     OW12845   8.964   3.437  11.871 -0.3364  0.3916  0.5624
31618SOL    HW112846   8.963   3.342  11.860  0.8047  0.0054  3.1678
31618SOL    HW212847   9.004   3.470  11.790  0.3237 -1.4437  0.0938
31619SOL     OW12848  11.259  13.013  10.793  0.0576 -0.0516 -0.1584
31619SOL    HW112849  11.284  12.920  10.798 -2.3143 -0.8538 -1.7241
31619SOL    HW212850  11.279  13.038  10.703 -2.4722 -0.1157 -0.8143
31620SOL     OW12851  10.904   3.697   4.449 -0.1290 -0.0587 -0.2918
31620SOL    HW112852  10.995   3.669   4.451 -0.1371 -0.1339 -0.8285
31620SOL    HW212853  10.862   3.647   4.519  0.0809 -0.6136 -0.5534
31621SOL     OW12854  11.944   2.132   4.769  0.3777 -0.4575  0.3497
31621SOL    HW112855  11.976   2.044   4.789  0.4627 -0.0750  2.1181
31621SOL    HW212856  11.917   2.128   4.677 -0.0275 -2.4382  0.5096
31622SOL     OW12857  13.847   6.777   4.249  0.2064 -0.5012  0.6662
31622SOL    HW112858  13.889   6.737   4.325  0.3532 -0.7817  0.4366
31622SOL    HW212859  13.761   6.736   4.245  0.1546 -0.4033  0.7449
31623SOL     OW12860   1.216   8.451   7.451  0.3038 -0.1849  0.1880
31623SOL    HW112861   1.214   8.547   7.456  0.3410 -0.2015  0.5336
31623SOL    HW212862   1.212   8.432   7.357  0.7163  0.1636  0.0981
31624SOL     OW12863   5.847   4.940  11.451 -0.1038 -0.3532 -0.2793
31624SOL    HW112864   5.863   4.855  11.492 -0.0238 -0.6118 -0.8311
31624SOL    HW212865   5.932   4.966  11.416 -0.0058  0.2213  0.3738
31625SOL     OW12866  12.028   3.761   1.564  0.0085  0.5429  0.0874
31625SOL    HW112867  12.058   3.682   1.609  1.0966  1.0044  0.2090
31625SOL    HW212868  11.965   3.801   1.625 -0.9545 -0.4793 -0.2028
31626SOL     OW12869  12.548  13.636   2.399 -0.5566 -0.4343 -0.2545
31626SOL    HW112870  12.553  13.722   2.359 -1.3079 -0.2273  0.0799
31626SOL    HW212871  12.609  13.640   2.472 -1.6358  0.3093  0.6385
31627SOL     OW12872   8.146   5.831  13.042 -0.2304  0.0894  0.0679
31627SOL    HW112873   8.191   5.793  13.117 -1.1105 -0.8311  0.1604
31627SOL    HW212874   8.215   5.850  12.979  0.5342  1.0322  1.1612
31628SOL     OW12875   6.984   8.956   9.800 -0.2220 -0.4774 -0.1221
31628SOL    HW112876   6.968   8.863   9.814  0.0504 -0.8803 -2.1252
31628SOL    HW212877   6.942   8.999   9.874 -1.8207 -2.0881 -0.0278
31629SOL     OW12878   2.347  12.485   8.830  0.4551  0.0138  0.7466
31629SOL    HW112879   2.427  12.453   8.871  0.5487 -0.2499  0.3702
31629SOL    HW212880   2.297  12.406   8.809 -0.1340  0.1939  1.4270
31630SOL     OW12881   3.950   9.861   4.886  0.6430  0.3374  0.0038
31630SOL    HW112882   3.873   9.822   4.928  0.7822 -0.2304 -0.2521
31630SOL    HW212883   4.018   9.795   4.896  1.8064  1.7533  2.2967
31631SOL     OW12884   8.716   2.268   5.582  0.0412  0.0599  0.7728
31631SOL    HW112885   8.679   2.322   5.512  1.0829 -0.0556  0.1053
31631SOL    HW212886   8.715   2.179   5.548 -1.2274 -0.2976  1.6823
31632SOL     OW12887   2.491  13.458   6.126  0.0097  0.1581  0.0529
31632SOL    HW112888   2.464  13.367   6.120 -0.0776  0.2259 -0.6840
31632SOL    HW212889   2.559  13.459   6.193 -0.6896 -0.2765  0.7732
31633SOL     OW12890   2.073   3.406  11.199  0.1559 -0.2161  0.0938
31633SOL    HW112891   2.138   3.347  11.237 -0.0547 -1.0711 -0.8538
31633SOL    HW212892   2.117   3.491  11.196  1.6199 -0.9846 -1.4851
31634SOL     OW12893   3.729  13.142   6.758  0.6049  0.2332 -0.7630
31634SOL    HW112894   3.694  13.219   6.803 -0.5681 -0.7468  0.0809
31634SOL    HW212895   3.668  13.127   6.686 -1.5747 -2.1077  1.3266
31635SOL     OW12896   3.621  12.967   8.353 -0.6497 -0.0663  0.0250
31635SOL    HW112897   3.620  12.894   8.291  0.8444 -0.9124  0.9254
31635SOL    HW212898   3.583  13.040   8.305 -2.8228 -1.5581 -0.7190
31636SOL     OW12899   7.831  13.186   5.893 -0.1521  0.3975 -0.3772
31636SOL    HW112900   7.822  13.267   5.843 -0.0339  0.2792 -0.5904
31636SOL    HW212901   7.741  13.163   5.916 -0.2963 -0.1057 -1.4244
31637SOL     OW12902   2.604   7.560   9.788  0.0544  0.0456 -0.2821
31637SOL    HW112903   2.674   7.544   9.852  1.0879 -0.7223 -1.5461
31637SOL    HW212904   2.527   7.579   9.841  0.8051 -0.8594  1.2036
31638SOL     OW12905  10.614   7.682   2.783  0.1710  0.3891  0.6152
31638SOL    HW112906  10.543   7.745   2.766  0.7467  1.2214  1.1894
31638SOL    HW212907  10.673   7.692   2.709 -1.4151 -2.0100 -1.1258
31639SOL     OW12908   8.952   2.944   4.987 -0.1252 -0.1537 -0.1275
31639SOL    HW112909   8.942   2.855   5.020  1.9288 -0.2350  0.4176
31639SOL    HW212910   9.009   2.936   4.911 -1.5576  0.5028 -1.3272
31640SOL     OW12911  12.147   6.538  12.180  0.5098  0.2921 -0.8120
31640SOL    HW112912  12.084   6.554  12.110 -0.2014 -0.2907 -0.3230
31640SOL    HW212913  12.209   6.611  12.174 -0.3492  1.0143 -1.1658
31641SOL     OW12914   7.541   4.439   7.885  0.1883 -0.2460 -0.1032
31641SOL    HW112915   7.543   4.471   7.794 -1.2873 -2.5189 -0.9967
31641SOL    HW212916   7.517   4.516   7.936  1.5645  1.2234 -1.5327
31642SOL     OW12917  13.552   4.114   3.142  0.1651 -0.3001  0.0700
31642SOL    HW112918  13.548   4.190   3.084  0.3926 -0.4478 -0.1391
31642SOL    HW212919  13.499   4.139   3.218 -0.2632 -0.1613 -0.2676
31643SOL     OW12920  10.851   4.975   4.386  0.2173 -0.7019 -0.8479
31643SOL    HW112921  10.930   5.007   4.342  0.4109  0.8900  0.5662
31643SOL    HW212922  10.865   4.881   4.393  3.1454 -0.2492  1.3921
31644SOL     OW12923   7.235  12.739   7.036 -0.3803  0.4355 -0.1476
31644SOL    HW112924   7.244  12.708   7.126 -0.6601 -0.4195 -0.4097
31644SOL    HW212925   7.304  12.805   7.027 -0.6034  0.8163  0.8075
31645SOL     OW12926   4.983  13.544   3.528  0.4546  0.4111  0.8325
31645SOL    HW112927   4.908  13.530   3.586  0.5779  2.0340  1.4339
31645SOL    HW212928   5.019  13.456   3.515 -1.1996 -0.3321  0.9783
31646SOL     OW12929   7.156   9.569   1.254  0.3955 -0.8579  0.3632
31646SOL    HW112930   7.141   9.660   1.227  0.8353 -0.2931  1.8788
31646SOL    HW212931   7.190   9.526   1.177 -2.2247 -0.4132 -1.1760
31647SOL     OW12932  12.981   0.875   9.029  0.5010  0.5417 -0.3955
31647SOL    HW112933  12.932   0.935   8.973  0.2483  0.3228 -0.4137
31647SOL    HW212934  12.930   0.871   9.110  0.0168 -0.3445 -0.7231
31648SOL     OW12935   0.778   6.052  13.684 -0.4127  0.2865  0.2818
31648SOL    HW112936   0.690   6.073  13.715  0.2217 -0.9558  3.2512
31648SOL    HW212937   0.801   5.971  13.729  2.7869  1.3292  0.8114
31649SOL     OW12938   3.661   5.011   6.405  0.7344 -0.1312 -0.3356
31649SOL    HW112939   3.590   5.048   6.458  0.2656 -1.6614  0.1694
31649SOL    HW212940   3.668   5.070   6.330 -0.6756  0.3891 -0.0966
31650SOL     OW12941   5.079   9.779  12.236 -0.3861  0.2343  0.5293
31650SOL    HW112942   5.028   9.844  12.286 -2.9337 -0.9268 -0.3934
31650SOL    HW212943   5.099   9.710  12.300  0.3660  0.8421  0.9729
31651SOL     OW12944  11.445   6.394   5.227  0.4108  0.1276 -0.0231
31651SOL    HW112945  11.522   6.337   5.227  1.0047  0.9209  0.0858
31651SOL    HW212946  11.479   6.480   5.249 -0.4486  0.5796 -0.4291
31652SOL     OW12947   7.713   8.736   5.117 -0.5104  0.3685 -0.4494
31652SOL    HW112948   7.668   8.813   5.153 -0.1603 -0.6768  2.5059
31652SOL    HW212949   7.772   8.771   5.051 -0.0821  2.7387  1.0559
31653SOL     OW12950   2.194   9.837   9.062 -0.0675 -0.3961 -0.2488
31653SOL    HW112951   2.276   9.788   9.072 -0.8351 -1.9077 -1.0684
31653SOL    HW212952   2.148   9.823   9.145  0.4578  0.4135  0.1934
31654SOL     OW12953   9.276   6.863   9.011  0.6618 -0.3335  0.3601
31654SOL    HW112954   9.356   6.914   9.002  0.6091 -0.1550  0.8244
31654SOL    HW212955   9.294   6.780   8.967  1.0602 -0.2525  0.3676
31655SOL     OW12956  11.452   6.293  13.846 -0.5104  0.2174  0.1894
31655SOL    HW112957  11.465   6.268  13.755 -0.0309 -1.5533  0.7043
31655SOL    HW212958  11.368   6.254  13.870 -1.2164  1.6653  0.2109
31656SOL     OW12959   6.844   7.934   1.804  0.3464  0.5476 -0.2775
31656SOL    HW112960   6.924   7.955   1.853  1.0451 -0.0814 -1.1094
31656SOL    HW212961   6.835   7.839   1.813 -0.7283  0.6940  0.4015
31657SOL     OW12962  12.925  10.233   9.931 -0.5360 -0.0931  0.1990
31657SOL    HW112963  13.011  10.275   9.919 -0.8488 -0.0329 -2.3007
31657SOL    HW212964  12.946  10.142   9.952  0.1395  0.1630  0.6823
31658SOL     OW12965   0.152   0.488   2.661 -0.0418  0.1691 -0.1417
31658SOL    HW112966   0.202   0.418   2.702 -0.7074  0.0392  0.4726
31658SOL    HW212967   0.213   0.561   2.654 -0.0225  0.3468  1.5210
31659SOL     OW12968   4.721  11.543   1.499 -0.5336 -0.8667  0.6110
31659SOL    HW112969   4.651  11.499   1.451  0.5924 -0.3228 -1.6602
31659SOL    HW212970   4.800  11.494   1.479  0.2304  0.3230  0.6045
31660SOL     OW12971   6.774   1.753  12.945  1.0786 -0.0066  0.0036
31660SOL    HW112972   6.700   1.796  12.902  1.8886 -0.2211 -1.7132
31660SOL    HW212973   6.848   1.769  12.886  3.1099  2.5008  2.8945
31661SOL     OW12974   1.415  14.022   0.536  0.2673  0.1261 -0.1670
31661SOL    HW112975   1.391  14.085   0.603 -2.6912 -1.3837  0.3906
31661SOL    HW212976   1.510  14.028   0.530  0.4465  1.8769  2.5646
31662SOL     OW12977   5.279  13.796   8.536  0.2872  0.5771  0.2397
31662SOL    HW112978   5.368  13.789   8.500  0.4159  1.5167  0.3667
31662SOL    HW212979   5.249  13.705   8.540  0.9890  0.2958 -0.4309
31663SOL     OW12980  11.154   9.676  10.186 -0.1377 -0.7058  0.4090
31663SOL    HW112981  11.109   9.760  10.180 -2.3685 -1.7487  1.5382
31663SOL    HW212982  11.243   9.699  10.214 -0.9915  1.2093  1.7794
31664SOL     OW12983   8.261  13.359   4.527 -0.5787  0.3435 -0.2742
31664SOL    HW112984   8.333  13.304   4.556 -1.1784  0.2363  1.0944
31664SOL    HW212985   8.185  13.300   4.524 -0.5184  0.2775 -2.3993
31665SOL     OW12986  13.417   8.116  11.559  0.0047  0.8674 -0.5347
31665SOL    HW112987  13.477   8.163  11.617 -0.5535  1.1446 -0.1845
31665SOL    HW212988  13.350   8.180  11.537 -1.6338 -0.1653  1.1880
31666SOL     OW12989   9.892   9.874  11.972 -0.2583 -0.4654  0.2570
31666SOL    HW112990   9.911   9.921  11.890 -0.9319 -0.3521  0.1544
31666SOL    HW212991   9.820   9.816  11.949 -0.0047 -0.9171  0.6093
31667SOL     OW12992  11.739   8.804  12.526  0.1534  0.4363  0.4163
31667SOL    HW112993  11.791   8.825  12.603  1.4754  0.7369 -0.5288
31667SOL    HW212994  11.725   8.709  12.532  0.6291  0.3889  0.7813
31668SOL     OW12995   4.760  14.041   8.753  0.0867  0.0679  0.0746
31668SOL    HW112996   4.670  14.008   8.759 -0.6169  2.0711  1.8538
31668SOL    HW212997   4.794  14.003   8.672 -2.6778 -0.0071 -1.1741
31669SOL     OW12998   0.932   1.431   3.650  0.3548  0.1570  0.2355
31669SOL    HW112999   0.922   1.452   3.743 -2.5609  0.1481  0.0243
31669SOL    HW213000   1.014   1.383   3.645  0.9111  0.7180  2.6989
31670SOL     OW13001   6.836  11.337   8.347  0.5263  0.9440  0.3550
31670SOL    HW113002   6.764  11.377   8.299  0.7393  1.4587  0.4562
31670SOL    HW213003   6.914  11.358   8.295  0.8788  2.2687  1.3509
31671SOL     OW13004   4.311   5.933   5.065 -0.4305  0.5675  0.1947
31671SOL    HW113005   4.266   5.923   4.981 -0.4956  0.6408  0.2208
31671SOL    HW213006   4.283   6.019   5.098  0.1160  0.8389 -0.0253
31672SOL     OW13007  13.193  11.559   5.149 -0.4435  0.0198  0.6021
31672SOL    HW113008  13.115  11.609   5.172  0.3229  1.3685  0.3963
31672SOL    HW213009  13.217  11.591   5.062  1.5338  1.2225  1.5145
31673SOL     OW13010   6.630   1.034   6.461  0.2004 -0.0140 -0.0543
31673SOL    HW113011   6.693   1.093   6.420  1.2459 -0.5566  0.7156
31673SOL    HW213012   6.552   1.041   6.407  1.4611 -0.5979 -2.1089
31674SOL     OW13013   8.900   5.262   4.049  0.0624 -0.3282 -0.1739
31674SOL    HW113014   8.907   5.195   3.982  0.0855 -1.4481  0.9120
31674SOL    HW213015   8.839   5.226   4.113 -0.7705  1.1527 -0.0794
31675SOL     OW13016   1.184   7.551  11.782 -0.5613  0.3565 -0.1320
31675SOL    HW113017   1.169   7.508  11.698 -0.8624 -0.1823  0.1906
31675SOL    HW213018   1.183   7.645  11.762  2.7123  0.2888 -1.3200
31676SOL     OW13019   6.831   6.056   6.394 -0.4016  1.1022  0.5171
31676SOL    HW113020   6.819   6.058   6.489  1.2338  2.1430  0.7421
31676SOL    HW213021   6.782   5.979   6.365 -0.4239  0.4155  2.2843
31677SOL     OW13022   2.838   3.298   1.900 -0.3187 -0.0471  0.1760
31677SOL    HW113023   2.904   3.238   1.866 -1.8402 -1.0395 -1.1959
31677SOL    HW213024   2.770   3.300   1.832 -1.8343  0.6862  1.6303
31678SOL     OW13025  11.918  12.193   0.405 -0.1342  0.0964  0.6866
31678SOL    HW113026  11.943  12.285   0.409  1.3147 -0.2578  0.1992
31678SOL    HW213027  11.867  12.185   0.325  0.3395  0.3470  0.3558
31679SOL     OW13028   5.223   1.289   5.942 -0.0801  0.5254 -0.0041
31679SOL    HW113029   5.184   1.203   5.958  3.7821 -1.8544 -2.0390
31679SOL    HW213030   5.184   1.317   5.859 -0.6878  0.3758  0.2212
31680SOL     OW13031   3.227   0.997   8.324 -0.1801  0.4583 -0.0659
31680SOL    HW113032   3.180   0.977   8.405  0.3243  0.4177  0.2221
31680SOL    HW213033   3.216   0.920   8.269 -0.9150  0.6708 -0.2215
31681SOL     OW13034   9.112  13.154   0.937 -0.2689  0.3143 -0.1464
31681SOL    HW113035   9.147  13.198   1.014 -1.4653  0.0340  0.5755
31681SOL    HW213036   9.026  13.122   0.964 -0.3807 -0.4778 -1.3589
31682SOL     OW13037   6.785  11.709   5.155  0.2276 -0.0483  0.2439
31682SOL    HW113038   6.790  11.630   5.101 -1.2976 -2.5518  3.4271
31682SOL    HW213039   6.876  11.730   5.176  0.6911 -0.4799 -1.2251
31683SOL     OW13040   2.535   3.342  12.670 -0.6344  0.1631 -0.1269
31683SOL    HW113041   2.533   3.359  12.764 -2.9557 -1.0983  0.1226
31683SOL    HW213042   2.447   3.363  12.639  0.2774  1.2441 -2.2041
31684SOL     OW13043   4.678  13.958   7.824  0.1815 -0.5016 -0.3273
31684SOL    HW113044   4.732  13.880   7.841  1.8518  0.1260 -2.2211
31684SOL    HW213045   4.694  14.015   7.898 -2.2989 -2.4669  1.9134
31685SOL     OW13046   0.147   6.569   8.260 -0.2253 -0.2262  0.1457
31685SOL    HW113047   0.228   6.550   8.307 -2.1061 -2.5593  2.7145
31685SOL    HW213048   0.095   6.621   8.321 -1.1666  0.2517 -1.0081
31686SOL     OW13049   6.819   9.233   1.033  0.2418  0.1305 -0.4634
31686SOL    HW113050   6.753   9.299   1.053  0.9318  1.1792 -1.5020
31686SOL    HW213051   6.841   9.249   0.941  0.2665 -1.7034 -0.8123
31687SOL     OW13052   2.593  12.234   6.698 -0.0799  0.3764  0.2237
31687SOL    HW113053   2.545  12.297   6.752  0.7615  0.7534  0.5647
31687SOL    HW213054   2.667  12.208   6.753 -0.1781 -0.5894 -0.0821
31688SOL     OW13055   3.441   3.434   9.856 -0.3791  0.5568 -0.0790
31688SOL    HW113056   3.424   3.380   9.778  0.6305  0.1796 -0.0568
31688SOL    HW213057   3.424   3.375   9.930 -0.7987  0.7445 -0.0270
31689SOL     OW13058   6.867   7.594   8.581 -0.0713  0.2563 -0.0491
31689SOL    HW113059   6.878   7.658   8.510  0.9910 -0.0687 -0.1897
31689SOL    HW213060   6.853   7.511   8.535 -2.5320  0.5001  0.1162
31690SOL     OW13061  12.314  10.082   6.449  0.4592  0.7099  0.1842
31690SOL    HW113062  12.300  10.108   6.358  0.6379  1.2705  0.3073
31690SOL    HW213063  12.286   9.991   6.454 -1.2792  1.1871 -0.0254
31691SOL     OW13064  10.502  13.818   4.101  0.4522 -0.0892 -0.1848
31691SOL    HW113065  10.484  13.882   4.171 -1.3982  0.1344 -0.7930
31691SOL    HW213066  10.567  13.861   4.046  0.5937  0.5046  0.4202
31692SOL     OW13067   2.976   9.673   1.750  0.7933 -0.1424  0.1385
31692SOL    HW113068   2.990   9.593   1.698  0.1618  0.2976 -0.7424
31692SOL    HW213069   3.003   9.744   1.692  0.5814  0.3337  0.6179
31693SOL     OW13070   0.878   2.098   9.344 -0.2580  0.1920  0.6527
31693SOL    HW113071   0.969   2.071   9.329 -0.0399 -0.2947  2.5753
31693SOL    HW213072   0.826   2.032   9.299  0.3261 -0.4128  0.8545
31694SOL     OW13073   5.180  10.275   9.821 -0.0392 -0.4419  0.3035
31694SOL    HW113074   5.193  10.216   9.896  2.6330  1.6552  1.6582
31694SOL    HW213075   5.180  10.363   9.859  1.1928  0.7092 -2.1301
31695SOL     OW13076  13.386   1.934  12.417  0.5887  0.1428  0.3500
31695SOL    HW113077  13.435   2.016  12.412 -0.4086  0.7537  0.4132
31695SOL    HW213078  13.453   1.866  12.413  1.5258  0.9688  1.3991
31696SOL     OW13079   6.014   0.988   9.400 -0.2602  0.1422 -0.8815
31696SOL    HW113080   5.974   0.925   9.340  0.2428 -1.2663  0.2190
31696SOL    HW213081   6.105   0.995   9.371  0.7765 -2.6670  1.2501
31697SOL     OW13082  11.129   9.210   1.543 -0.3064  0.3726 -0.6932
31697SOL    HW113083  11.144   9.262   1.622  1.9035  0.6182 -1.2291
31697SOL    HW213084  11.108   9.274   1.475 -2.1399  0.1642 -0.4008
31698SOL     OW13085   6.324  12.342   3.042 -0.4236 -0.2123  0.2038
31698SOL    HW113086   6.254  12.399   3.074  0.6905  2.0744 -1.1844
31698SOL    HW213087   6.297  12.254   3.068 -2.2847  0.8994  2.3645
31699SOL     OW13088   7.301   9.115   4.648  0.3984 -0.7485  0.3228
31699SOL    HW113089   7.295   9.080   4.737 -2.4723  0.6069  0.7938
31699SOL    HW213090   7.218   9.090   4.607  1.2242 -0.4522 -1.6472
31700SOL     OW13091  13.927   7.674   1.725  0.2778 -0.1485  0.0284
31700SOL    HW113092  13.972   7.717   1.653  0.2104 -2.0233 -1.1882
31700SOL    HW213093  13.834   7.687   1.706  0.2203  1.4084  1.1175
31701SOL     OW13094  11.855   9.254  12.607 -0.1400 -0.0784 -0.2014
31701SOL    HW113095  11.879   9.345  12.624  1.4999 -0.5424  0.1888
31701SOL    HW213096  11.913   9.226  12.536  0.1625 -1.1239  0.4269
31702SOL     OW13097  12.385   2.448   2.503 -0.3802 -0.0283  0.0853
31702SOL    HW113098  12.427   2.404   2.429 -1.0315  2.2869 -1.7807
31702SOL    HW213099  12.300   2.404   2.512 -1.6309  1.5270 -2.6727
31703SOL     OW13100   1.932   8.510  13.373 -0.1213 -0.3017 -0.7963
31703SOL    HW113101   1.897   8.559  13.447 -0.0319  0.7680 -1.4455
31703SOL    HW213102   1.855   8.474  13.329 -0.3202  0.6418 -1.2547
31704SOL     OW13103   2.099   4.654   9.780  0.2219 -0.1567 -0.2752
31704SOL    HW113104   2.031   4.628   9.718  0.9980  0.2166 -1.3087
31704SOL    HW213105   2.124   4.743   9.752 -1.2621  1.1585  2.1884
31705SOL     OW13106   8.102  13.130  12.749 -0.5433  0.4921  0.1371
31705SOL    HW113107   8.090  13.036  12.735 -0.5275  0.2796  1.3981
31705SOL    HW213108   8.107  13.139  12.845  2.6578  1.3865 -0.0026
31706SOL     OW13109  13.787   8.307   7.066 -0.1694  0.1118  0.5099
31706SOL    HW113110  13.698   8.342   7.060 -0.1583  0.7557  3.1146
31706SOL    HW213111  13.822   8.342   7.148  1.5031 -2.3546  0.9700
31707SOL     OW13112  11.127   9.179   8.680  0.0628  0.4189 -0.3645
31707SOL    HW113113  11.051   9.193   8.736 -0.4417 -1.5793 -0.4529
31707SOL    HW213114  11.111   9.233   8.603 -1.1980  0.1703 -0.2997
31708SOL     OW13115  13.213   8.543   6.907  0.0348  0.3595 -0.3202
31708SOL    HW113116  13.184   8.630   6.878  0.5996  0.7692  0.2981
31708SOL    HW213117  13.231   8.554   7.001  1.5750 -0.0229 -0.5466
31709SOL     OW13118   1.207  14.089   2.475 -0.1882  0.2925  0.2293
31709SOL    HW113119   1.251  14.023   2.421 -1.9534 -0.0632 -0.8551
31709SOL    HW213120   1.169  14.150   2.411 -2.7067 -0.3845  0.9723
31710SOL     OW13121  13.249   8.604  13.109  0.4084 -0.5046  0.2152
31710SOL    HW113122  13.161   8.638  13.127  1.3338  3.0443 -1.1434
31710SOL    HW213123  13.276   8.562  13.191 -2.8558 -2.6548  0.3590
31711SOL     OW13124   5.756  11.498   3.204 -0.0071  0.6187  0.2572
31711SOL    HW113125   5.755  11.590   3.176 -1.2988  0.5194 -0.0563
31711SOL    HW213126   5.716  11.499   3.291 -1.0822  0.2302 -0.2102
31712SOL     OW13127   2.763   1.948   2.826 -0.3641  0.0561 -0.2989
31712SOL    HW113128   2.805   1.986   2.749  0.8206 -0.8095 -0.1114
31712SOL    HW213129   2.830   1.952   2.894 -0.5259 -1.4481 -0.0163
31713SOL     OW13130   1.629  12.696   5.010  0.4614  0.7295 -0.4454
31713SOL    HW113131   1.667  12.685   5.097 -1.2061  0.8387  0.3473
31713SOL    HW213132   1.696  12.743   4.960  1.4933  0.5671  0.7347
31714SOL     OW13133  12.079  11.911   6.425 -0.0679  0.2350  0.3738
31714SOL    HW113134  12.019  11.919   6.350 -0.6747  0.2619  0.8552
31714SOL    HW213135  12.124  11.995   6.429  1.7980 -0.5668 -1.4636
31715SOL     OW13136   6.769  14.038   6.560  0.1229 -0.6836  0.0243
31715SOL    HW113137   6.767  14.131   6.538 -0.2412  0.0277  2.6502
31715SOL    HW213138   6.679  14.008   6.549 -0.8897  0.5613  3.4932
31716SOL     OW13139   5.423   7.553  11.158  0.4779 -0.0808  0.4073
31716SOL    HW113140   5.338   7.577  11.195  1.6215  1.8796  1.9731
31716SOL    HW213141   5.487   7.588  11.220  2.4892  1.3187 -2.2529
31717SOL     OW13142   1.518  12.213   4.476  0.3216  0.6248 -0.2987
31717SOL    HW113143   1.553  12.268   4.546 -1.3497  3.5472 -1.5980
31717SOL    HW213144   1.458  12.153   4.519 -0.3640  2.0973  0.8613
31718SOL     OW13145   0.869   8.636   7.660  0.2241 -0.1110  0.1036
31718SOL    HW113146   0.776   8.616   7.648 -0.0111  1.5208 -1.0518
31718SOL    HW213147   0.915   8.572   7.606 -0.3105 -0.0194 -0.4696
31719SOL     OW13148   8.029   6.636   4.663 -0.2920  0.2159 -0.1397
31719SOL    HW113149   8.091   6.657   4.733 -0.8950 -0.5332  0.6366
31719SOL    HW213150   7.965   6.706   4.665 -0.5980 -0.0771  0.4097
31720SOL     OW13151   6.007  11.480   2.438  0.0519 -0.5884 -0.0946
31720SOL    HW113152   5.970  11.455   2.353  0.5411 -0.0905 -0.4653
31720SOL    HW213153   5.942  11.451   2.502 -0.5307 -0.5790 -0.6651
31721SOL     OW13154   9.859  11.001   5.187 -0.4943 -0.3874 -0.4506
31721SOL    HW113155   9.827  10.946   5.258  1.2596 -1.2113 -0.2380
31721SOL    HW213156   9.845  10.950   5.107 -1.3610  0.0287 -0.5721
31722SOL     OW13157   7.625  14.068   4.583  0.0259 -0.2747  0.6043
31722SOL    HW113158   7.652  14.011   4.510 -2.2432 -1.2440  0.4237
31722SOL    HW213159   7.654  14.022   4.661 -0.4099 -0.9334  0.3954
31723SOL     OW13160  11.440   4.757   2.706 -0.1643  0.0654 -0.3673
31723SOL    HW113161  11.429   4.696   2.632  1.7342 -1.6286  0.6535
31723SOL    HW213162  11.473   4.702   2.777 -0.0201  2.0331  1.1472
31724SOL     OW13163   5.811  11.299  10.447 -0.2512 -0.5421 -0.0232
31724SOL    HW113164   5.754  11.225  10.424  0.2297 -0.9947  0.2400
31724SOL    HW213165   5.838  11.282  10.537 -0.3648  0.1049  0.1408
31725SOL     OW13166   1.443  11.711   0.910 -0.1890  0.1140  0.1328
31725SOL    HW113167   1.466  11.766   0.836 -1.0941  0.2833 -0.0382
31725SOL    HW213168   1.453  11.767   0.987 -0.5041  0.3320  0.0159
31726SOL     OW13169  12.338   7.308   5.207 -0.5289 -0.0605  0.7559
31726SOL    HW113170  12.298   7.375   5.263 -1.2806  1.1826 -1.1855
31726SOL    HW213171  12.269   7.284   5.146  0.9053  0.2888 -1.0758
31727SOL     OW13172  13.018   8.075   7.582  0.5248 -0.1807 -0.2803
31727SOL    HW113173  12.965   8.150   7.557 -0.1596 -0.8001 -0.7534
31727SOL    HW213174  13.069   8.055   7.503  1.5563  0.4623  0.1949
31728SOL     OW13175  13.286  12.142   9.622 -0.3562 -0.6344 -0.7438
31728SOL    HW113176  13.228  12.218   9.623  0.2343 -0.1790 -0.5869
31728SOL    HW213177  13.327  12.142   9.709 -1.4887 -2.0368 -0.1447
31729SOL     OW13178  13.802   9.976   5.115 -0.3674  0.3831 -0.5025
31729SOL    HW113179  13.781  10.068   5.102  1.1747  0.7836 -0.3748
31729SOL    HW213180  13.863   9.975   5.189 -1.7647 -0.9362  0.7082
31730SOL     OW13181   5.884  11.468  14.046  0.1312  0.2674  0.1616
31730SOL    HW113182   5.930  11.412  13.983  0.3602 -0.4624  0.9696
31730SOL    HW213183   5.850  11.408  14.112 -0.7015  0.9583  0.3820
31731SOL     OW13184   4.834   3.950  12.433 -0.0624 -0.2322 -0.0105
31731SOL    HW113185   4.771   3.892  12.477 -0.6214 -0.4298 -1.0372
31731SOL    HW213186   4.850   4.019  12.497 -3.2760  1.2075 -0.5520
31732SOL     OW13187  10.314   1.168  10.815  0.2818 -0.1965  0.4014
31732SOL    HW113188  10.395   1.118  10.803 -0.4194 -0.8948 -1.8362
31732SOL    HW213189  10.322   1.241  10.753 -1.6148 -1.4186 -1.3975
31733SOL     OW13190   2.647  14.132  10.586  0.3384 -0.0746  0.0429
31733SOL    HW113191   2.658  14.225  10.608 -1.0039 -0.1598  1.2435
31733SOL    HW213192   2.728  14.091  10.616  1.9856  0.9688 -2.5896
31734SOL     OW13193   0.591   5.878   8.278 -0.4451 -0.0980 -0.1904
31734SOL    HW113194   0.547   5.963   8.282 -1.2552 -0.5429  0.7956
31734SOL    HW213195   0.662   5.885   8.342 -0.5139 -0.1636 -0.1070
31735SOL     OW13196   6.943  12.445   0.319  0.2366 -0.0784  0.7142
31735SOL    HW113197   6.904  12.475   0.401 -2.3954  2.2426 -1.2247
31735SOL    HW213198   6.904  12.358   0.305 -1.9079  0.8800  0.3908
31736SOL     OW13199  11.685  10.131  11.726  0.2542  0.2834  0.5770
31736SOL    HW113200  11.630  10.192  11.775  0.6630  0.7014  0.5198
31736SOL    HW213201  11.737  10.086  11.793  0.8376  0.8788  0.5364
31737SOL     OW13202   3.060   6.551  10.525  0.0144 -0.5567 -0.7568
31737SOL    HW113203   2.998   6.602  10.578 -0.0967 -0.4694 -0.9720
31737SOL    HW213204   3.078   6.606  10.449  1.7882  0.2659  0.1824
31738SOL     OW13205  11.750   9.324   7.781  0.3003 -0.0979  0.5113
31738SOL    HW113206  11.701   9.396   7.740  1.9912  0.6793 -0.2132
31738SOL    HW213207  11.725   9.246   7.730  0.0959  0.3437 -0.0789
31739SOL     OW13208   1.801  11.005   9.078  0.2147 -0.3168  0.5535
31739SOL    HW113209   1.832  11.095   9.079  2.5639 -1.0546  1.4603
31739SOL    HW213210   1.821  10.974   8.990  1.0769 -0.4407  0.7794
31740SOL     OW13211   4.918   0.949  13.701  0.1581  0.3188 -0.3410
31740SOL    HW113212   4.915   1.043  13.719  0.5874  0.4936 -1.0970
31740SOL    HW213213   4.912   0.943  13.605  1.0996 -0.3662 -0.3718
31741SOL     OW13214   5.844  11.811  12.655  0.0797  0.0937 -0.4609
31741SOL    HW113215   5.878  11.808  12.744 -0.4096 -0.6477 -0.2955
31741SOL    HW213216   5.765  11.757  12.656  0.2846 -0.2586 -1.4296
31742SOL     OW13217   1.669   2.926   8.525 -0.3646  1.4938  0.0511
31742SOL    HW113218   1.763   2.905   8.523 -0.5640  0.5617 -0.4170
31742SOL    HW213219   1.658   2.979   8.604  0.1975 -0.2539  1.3681
31743SOL     OW13220  12.160   3.038  12.354 -0.2998 -0.3812  0.5288
31743SOL    HW113221  12.139   3.124  12.392  1.4932  0.3084  0.0368
31743SOL    HW213222  12.173   3.056  12.261  0.2068 -1.1672  0.4406
31744SOL     OW13223   4.411   0.104  12.290  0.6810 -0.1699 -0.3934
31744SOL    HW113224   4.404   0.198  12.270 -0.0428 -0.1859 -0.2505
31744SOL    HW213225   4.504   0.085  12.282  1.2347  1.0964  1.9768
31745SOL     OW13226   7.035  12.991   4.012 -0.5344 -0.3296  0.3661
31745SOL    HW113227   7.087  13.025   3.939  0.5462  0.5543  1.5089
31745SOL    HW213228   6.959  12.951   3.971 -0.2370  0.6590 -1.2117
31746SOL     OW13229  10.773   9.064   3.657  0.0394  0.6397 -0.1466
31746SOL    HW113230  10.780   9.077   3.562  1.3386  2.2117  0.1186
31746SOL    HW213231  10.851   9.107   3.693  0.4651 -1.3822  1.5268
31747SOL     OW13232   8.230  12.795   1.188 -0.1464  0.0726 -0.0683
31747SOL    HW113233   8.149  12.761   1.225 -0.2865  0.3790 -0.0868
31747SOL    HW213234   8.223  12.778   1.094 -0.2074  0.1296 -0.0747
31748SOL     OW13235  11.824   9.551   2.451 -0.4243  0.2056 -0.1857
31748SOL    HW113236  11.757   9.614   2.477  0.2050  1.4344 -1.4206
31748SOL    HW213237  11.816   9.544   2.356  0.8714  0.0104 -0.3052
31749SOL     OW13238  11.548   3.523   0.119 -0.0959 -0.0416  0.2984
31749SOL    HW113239  11.494   3.448   0.096 -0.1869  0.1334 -0.0616
31749SOL    HW213240  11.502   3.564   0.192  0.6642 -1.1225  1.4359
31750SOL     OW13241   6.121   1.561   3.552  0.1441 -0.1313 -0.3973
31750SOL    HW113242   6.135   1.469   3.575 -2.4070 -0.7146 -0.8117
31750SOL    HW213243   6.149   1.609   3.629  0.5137 -1.3370  0.2524
31751SOL     OW13244   9.245   5.197   8.369  0.1416 -0.1315 -0.4419
31751SOL    HW113245   9.155   5.227   8.384  0.0915 -0.4703 -0.0505
31751SOL    HW213246   9.299   5.275   8.382 -0.2085  0.4280 -2.1253
31752SOL     OW13247   1.986   8.645  12.192  0.4923 -0.0755 -0.4525
31752SOL    HW113248   1.960   8.569  12.244 -0.4433  0.8921  0.5552
31752SOL    HW213249   2.051   8.611  12.130  0.1756 -1.6584  0.0387
31753SOL     OW13250   2.101   9.301   8.303  0.1699 -0.4562 -0.1935
31753SOL    HW113251   2.084   9.235   8.371  0.7275 -0.8950 -0.4746
31753SOL    HW213252   2.121   9.250   8.225 -0.2662  0.0495 -0.6407
31754SOL     OW13253   9.119   2.717   1.088  0.0069  0.6769  0.0498
31754SOL    HW113254   9.039   2.717   1.141 -0.6276 -2.0386 -0.7069
31754SOL    HW213255   9.185   2.757   1.143 -0.8437 -1.1054  2.5665
31755SOL     OW13256   3.285  11.904   9.711 -0.5443  0.5127  0.1905
31755SOL    HW113257   3.319  11.835   9.654  0.0357  1.5530 -0.7480
31755SOL    HW213258   3.194  11.878   9.728 -0.2676 -0.6014  0.0488
31756SOL     OW13259   1.476   8.936   7.280 -0.1017  0.3125 -0.0444
31756SOL    HW113260   1.555   8.884   7.263  0.2978  0.8626  0.0976
31756SOL    HW213261   1.420   8.919   7.204 -0.0152 -0.3959  0.0468
31757SOL     OW13262   5.778   5.282  11.299 -0.3271  0.2663 -0.0863
31757SOL    HW113263   5.806   5.300  11.388  0.6920 -0.6435 -0.2023
31757SOL    HW213264   5.734   5.362  11.270 -2.9701 -0.2704  2.0950
31758SOL     OW13265   9.682   0.682   3.056 -0.0211 -0.5942  0.2670
31758SOL    HW113266   9.743   0.673   2.982 -1.6348 -2.2926 -0.9612
31758SOL    HW213267   9.612   0.619   3.036 -1.6005  0.4750  2.1783
31759SOL     OW13268   5.964   8.865  11.060 -0.2304 -0.0490  0.4066
31759SOL    HW113269   5.874   8.831  11.063 -0.7650  1.2910  0.5318
31759SOL    HW213270   6.004   8.822  10.985 -0.4451 -1.8656  1.2775
31760SOL     OW13271   7.328  11.526  12.094  0.4905  0.3735 -0.0476
31760SOL    HW113272   7.294  11.540  12.182  0.7823  0.0503  0.1169
31760SOL    HW213273   7.400  11.464  12.105  0.1443 -0.1359 -0.5883
31761SOL     OW13274   5.448   9.075   2.762  0.0259 -0.0101  0.4650
31761SOL    HW113275   5.517   9.020   2.723 -0.5361 -0.8900  0.6753
31761SOL    HW213276   5.491   9.118   2.835  0.4831 -0.1790  0.3006
31762SOL     OW13277  13.538  14.063   4.265 -0.1725  0.1137 -0.6331
31762SOL    HW113278  13.597  14.138   4.255 -0.6693  0.4222 -1.3698
31762SOL    HW213279  13.542  14.042   4.358  1.5471 -0.2562 -0.7605
31763SOL     OW13280   7.714   3.638   2.593 -0.0567  0.0513 -0.0811
31763SOL    HW113281   7.656   3.638   2.669 -1.3433  1.6309 -1.0011
31763SOL    HW213282   7.736   3.730   2.579 -0.1836 -0.1520 -1.8566
31764SOL     OW13283   0.628   2.564  12.724  0.1668 -0.2544 -0.0900
31764SOL    HW113284   0.704   2.574  12.781 -0.3452 -0.4382  0.6400
31764SOL    HW213285   0.665   2.554  12.637  0.9390  5.0218 -0.7083
31765SOL     OW13286   1.919   3.473   9.117 -0.3871  0.5999 -0.1868
31765SOL    HW113287   1.843   3.425   9.084 -1.4192  2.3233 -0.4417
31765SOL    HW213288   1.949   3.422   9.192 -2.4189  0.3871  0.5397
31766SOL     OW13289   1.429   2.473  11.570  0.1500  0.4077 -0.1795
31766SOL    HW113290   1.408   2.454  11.661  0.7572  2.7471  0.5380
31766SOL    HW213291   1.525   2.472  11.567  0.1850  2.0192 -0.3428
31767SOL     OW13292   0.957   7.749   4.666  0.1425 -0.0380 -0.8668
31767SOL    HW113293   0.921   7.807   4.599 -0.2284 -0.0415 -0.6714
31767SOL    HW213294   1.030   7.705   4.623  2.1912  2.5175 -0.3077
31768SOL     OW13295  13.709   6.844   0.640  0.3800 -0.2976  0.0898
31768SOL    HW113296  13.776   6.896   0.596  0.0171 -0.9029 -1.2358
31768SOL    HW213297  13.746   6.756   0.644 -0.0018 -0.4598  0.0976
31769SOL     OW13298  13.717   3.075   0.754  0.7341 -0.1507  0.3321
31769SOL    HW113299  13.730   3.017   0.828 -1.9780 -2.5870 -0.9221
31769SOL    HW213300  13.624   3.069   0.734  0.6445  3.2944 -1.0669
31770SOL     OW13301   2.859  11.620   8.034  0.4285 -0.0092  0.0888
31770SOL    HW113302   2.906  11.539   8.012  0.2677 -0.3588  0.9530
31770SOL    HW213303   2.807  11.640   7.957 -0.0946 -1.1505  0.1257
31771SOL     OW13304   3.061   2.386   6.339  0.3897 -0.3610 -0.2911
31771SOL    HW113305   3.092   2.425   6.421 -0.2392  0.8154 -0.5824
31771SOL    HW213306   2.983   2.437   6.316  0.5316 -0.6828 -1.5971
31772SOL     OW13307   5.028   2.952  11.055  0.0792 -0.4992 -0.1279
31772SOL    HW113308   5.092   2.899  11.008  1.2981  0.7106  0.1426
31772SOL    HW213309   5.056   3.042  11.042 -0.6484 -0.0326  1.3203
31773SOL     OW13310   4.096   9.768   9.702  0.2517  0.7782  0.3607
31773SOL    HW113311   4.073   9.676   9.713  0.8752  0.6686  0.8141
31773SOL    HW213312   4.025   9.805   9.649 -0.4951  0.2597  0.9868
31774SOL     OW13313  12.602   9.124  12.501  0.0005 -0.3023  0.4207
31774SOL    HW113314  12.569   9.084  12.581 -1.4644  0.2658  0.1344
31774SOL    HW213315  12.559   9.209  12.497 -2.0548 -1.3188 -2.2487
31775SOL     OW13316  10.098   4.582   6.084 -0.0799  0.3207  0.2854
31775SOL    HW113317  10.028   4.644   6.061  0.8919  1.3325 -0.0327
31775SOL    HW213318  10.078   4.554   6.173 -0.7001  0.8712  0.3249
31776SOL     OW13319   9.039  12.218   5.963 -0.1163  0.4633  0.3873
31776SOL    HW113320   9.040  12.255   5.875 -2.5933 -0.8414 -0.2779
31776SOL    HW213321   8.995  12.133   5.953 -1.1109  0.5852  2.9727
31777SOL     OW13322  11.399   1.452  13.974  0.4832 -0.2117  0.4205
31777SOL    HW113323  11.322   1.475  14.026 -0.1118  0.2764 -0.6722
31777SOL    HW213324  11.473   1.483  14.027 -0.0488 -0.5853  1.4258
31778SOL     OW13325   7.607   8.378  10.458 -0.5156  0.7338  0.2798
31778SOL    HW113326   7.546   8.438  10.415  2.2539  2.1725 -1.8918
31778SOL    HW213327   7.671   8.435  10.500  0.8523 -0.7027  0.2013
31779SOL     OW13328   4.119  13.814  11.378  0.0270 -0.1971 -0.8128
31779SOL    HW113329   4.102  13.765  11.459 -2.6347  2.0459  0.1621
31779SOL    HW213330   4.048  13.787  11.319 -1.0957  1.8612 -0.4835
31780SOL     OW13331  12.179  11.437   1.887  0.3964 -0.1636 -0.3180
31780SOL    HW113332  12.136  11.418   1.803  0.3420 -1.5265 -0.0138
31780SOL    HW213333  12.128  11.388   1.951  0.7364  0.4706  0.4502
31781SOL     OW13334  13.010   9.289   4.528  0.0632 -0.1045  0.4427
31781SOL    HW113335  13.069   9.244   4.468  1.5767  0.2260  1.6079
31781SOL    HW213336  12.924   9.283   4.487  0.5123 -2.4655 -0.2962
31782SOL     OW13337  13.407  14.020  12.769 -0.2755 -0.1500 -0.9253
31782SOL    HW113338  13.337  14.082  12.750 -0.1359  0.2310 -0.2505
31782SOL    HW213339  13.487  14.072  12.765 -0.3055  0.2057  1.5882
31783SOL     OW13340   6.753   2.640   3.793 -0.2234 -0.6400  0.6133
31783SOL    HW113341   6.749   2.551   3.829 -1.0383  0.1006  2.4839
31783SOL    HW213342   6.846   2.660   3.790 -0.0683 -1.2865  0.9296
31784SOL     OW13343   4.687   3.473   5.912  0.2646 -0.2393 -0.3365
31784SOL    HW113344   4.593   3.460   5.899  0.1959 -0.7158  0.5271
31784SOL    HW213345   4.717   3.392   5.953  0.9269  0.1515 -0.0296
31785SOL     OW13346   3.740  13.139   1.321  0.3865 -0.0937  0.0114
31785SOL    HW113347   3.721  13.100   1.406 -0.2925 -2.0115 -0.9629
31785SOL    HW213348   3.813  13.089   1.287 -1.5635 -1.7737 -1.9831
31786SOL     OW13349   9.545   1.692  11.229  0.0678  0.0783 -0.1038
31786SOL    HW113350   9.616   1.672  11.168 -0.1810 -0.2005 -0.3065
31786SOL    HW213351   9.524   1.608  11.270  0.8513  0.4273  1.0430
31787SOL     OW13352   1.049   1.014   4.892  0.0223  0.3356  0.5457
31787SOL    HW113353   1.026   0.921   4.897 -0.2277  0.3434 -0.3294
31787SOL    HW213354   0.976   1.059   4.934  0.3025  0.1238  1.2775
31788SOL     OW13355   7.617   3.117   4.419  0.7784  0.0910  0.1858
31788SOL    HW113356   7.704   3.136   4.384  1.5688  1.6531  2.6945
31788SOL    HW213357   7.614   3.164   4.502 -2.1988 -0.5783  0.5772
31789SOL     OW13358   5.826   4.760  10.101 -0.1372 -0.4038 -0.2262
31789SOL    HW113359   5.901   4.712  10.137 -1.7026 -2.2143  0.8725
31789SOL    HW213360   5.772   4.692  10.061 -2.3816  0.4075  1.2195
31790SOL     OW13361   1.967  12.851   5.814  0.0502 -0.0565  0.4955
31790SOL    HW113362   1.896  12.853   5.878 -1.1001  0.3234 -0.7327
31790SOL    HW213363   1.943  12.919   5.750  0.5352 -1.1998 -0.9594
31791SOL     OW13364   4.307  10.816   1.958  0.0148  0.0675 -0.3626
31791SOL    HW113365   4.215  10.804   1.936  0.3104 -3.5072 -0.2723
31791SOL    HW213366   4.311  10.902   2.000 -2.9034  1.1084 -1.9329
31792SOL     OW13367   8.289   8.512  10.565 -0.0825  0.0081  0.2441
31792SOL    HW113368   8.280   8.417  10.559 -0.0957  0.1037 -2.4330
31792SOL    HW213369   8.199   8.543  10.573 -0.1498 -0.1624  0.1662
31793SOL     OW13370  13.350   6.985   0.197  0.5716 -0.1222 -0.5683
31793SOL    HW113371  13.437   6.950   0.217  0.5352  0.0754 -0.0644
31793SOL    HW213372  13.367   7.057   0.137  0.7819  0.1314 -0.2071
31794SOL     OW13373   9.819   6.339   2.822 -0.2785  0.5931 -1.0253
31794SOL    HW113374   9.761   6.276   2.778  0.1724  0.7029 -1.7842
31794SOL    HW213375   9.838   6.298   2.907 -1.3420  0.4884 -0.8245
31795SOL     OW13376  11.818  10.557   4.243 -1.2414  0.0165 -0.0239
31795SOL    HW113377  11.751  10.491   4.225  0.0057 -1.3669  0.2095
31795SOL    HW213378  11.871  10.559   4.164 -0.7641  0.1071  0.2940
31796SOL     OW13379  12.951  10.436   9.167  0.4769  0.4846 -0.5293
31796SOL    HW113380  12.895  10.379   9.114  1.1144  0.4542 -1.1795
31796SOL    HW213381  12.956  10.393   9.252 -1.7633  1.2642  0.0809
31797SOL     OW13382  13.016   5.989   2.323  0.5908 -0.2267 -0.1132
31797SOL    HW113383  13.011   5.898   2.292  1.9534 -0.1539 -0.6014
31797SOL    HW213384  13.108   6.012   2.315  0.0421  1.7722 -1.7027
31798SOL     OW13385   7.449   1.287  10.336  0.1471 -0.1267 -0.1373
31798SOL    HW113386   7.489   1.203  10.360 -1.4339 -0.4122  1.8024
31798SOL    HW213387   7.431   1.329  10.420 -0.8400  1.3158 -1.0287
31799SOL     OW13388   8.346   8.664  10.786  0.4133  0.3379  0.3950
31799SOL    HW113389   8.427   8.712  10.768 -0.1272  0.8760 -0.7090
31799SOL    HW213390   8.333   8.609  10.709 -2.1260  2.9194 -1.2378
31800SOL     OW13391  11.565   1.348  11.839 -0.5379  0.3763 -0.4609
31800SOL    HW113392  11.615   1.376  11.915 -0.2864 -0.0771 -0.4577
31800SOL    HW213393  11.571   1.421  11.778 -0.8891  0.8159  0.0233
31801SOL     OW13394   4.081   0.925  11.111  0.0436 -0.2694  0.6591
31801SOL    HW113395   4.019   0.979  11.161  0.6382  0.5040  0.5796
31801SOL    HW213396   4.139   0.887  11.177  1.1037  1.1025  0.5544
31802SOL     OW13397  12.550   9.570   5.071 -0.2239 -0.1725  0.1520
31802SOL    HW113398  12.637   9.532   5.084 -0.3680 -0.3781  0.5080
31802SOL    HW213399  12.553   9.652   5.120 -0.9990 -1.2686  2.1697
31803SOL     OW13400   4.899   8.042   8.798 -0.3725 -0.0459 -0.1324
31803SOL    HW113401   4.850   7.994   8.864 -1.2050  1.2354  0.2138
31803SOL    HW213402   4.981   8.066   8.841 -1.6385  2.3461  1.1365
31804SOL     OW13403   3.691  10.475  12.530  0.1182  0.0622 -0.0616
31804SOL    HW113404   3.708  10.564  12.499  0.9637  0.1791  0.7033
31804SOL    HW213405   3.649  10.488  12.615  2.6455 -0.2231  1.3290
31805SOL     OW13406  11.185  13.135   2.073  0.3682 -0.7070 -0.1827
31805SOL    HW113407  11.243  13.137   1.998  0.8637 -2.0877  0.1472
31805SOL    HW213408  11.158  13.044   2.081 -2.3286 -0.0344 -0.6739
31806SOL     OW13409   4.161   0.467  13.072 -0.2305 -0.4820 -0.2349
31806SOL    HW113410   4.202   0.542  13.115  1.5930 -2.1281  1.0561
31806SOL    HW213411   4.095   0.436  13.134  1.9606 -2.4634  1.2779
31807SOL     OW13412   0.642   8.929  13.860  0.2282 -0.4007  0.1649
31807SOL    HW113413   0.598   8.925  13.945 -1.3140 -0.9856 -0.6155
31807SOL    HW213414   0.670   9.020  13.852  0.0900 -0.2593  1.1429
31808SOL     OW13415   6.684   9.424   8.671 -0.6066  0.3114  0.0388
31808SOL    HW113416   6.620   9.410   8.741  0.4385  0.3021  1.0149
31808SOL    HW213417   6.711   9.336   8.645  2.2751  0.2351  2.7410
31809SOL     OW13418   0.651   9.834  11.528  0.1842 -0.2689 -0.6919
31809SOL    HW113419   0.584   9.770  11.503 -0.3256  0.1528 -0.4352
31809SOL    HW213420   0.605   9.918  11.524  0.9873  0.1449 -1.5468
31810SOL     OW13421   0.812   3.325  12.537 -0.1188 -0.0026 -0.2262
31810SOL    HW113422   0.726   3.293  12.511 -0.5591  1.6095 -0.8856
31810SOL    HW213423   0.855   3.348  12.455  0.4682  0.3424  0.1685
31811SOL     OW13424  13.977   3.613  10.584  0.4000 -0.3681  0.4438
31811SOL    HW113425  14.006   3.570  10.504 -1.8428  0.1201 -0.7354
31811SOL    HW213426  13.927   3.547  10.631  0.3359 -0.1935  0.6261
31812SOL     OW13427   9.095   3.581  12.068 -0.0812  0.2308 -0.3852
31812SOL    HW113428   9.179   3.589  12.023  0.6034 -1.3870  0.4943
31812SOL    HW213429   9.043   3.523  12.013 -0.2076  0.3269 -0.3681
31813SOL     OW13430   8.424   4.987   9.764 -0.1315 -0.8332 -0.1557
31813SOL    HW113431   8.346   5.002   9.710  0.3521  1.4118 -0.3272
31813SOL    HW213432   8.494   4.968   9.701  0.0931  0.2062 -0.2328
31814SOL     OW13433   7.559   1.069  11.974  0.1443  0.4254  0.2865
31814SOL    HW113434   7.563   1.010  11.899  0.6474  0.0598  0.5963
31814SOL    HW213435   7.511   1.145  11.942  1.9638  1.0962 -0.9627
31815SOL     OW13436   8.488  12.084   2.220 -0.6253 -0.7297 -0.6347
31815SOL    HW113437   8.530  12.003   2.193 -0.3365 -0.7247 -0.2008
31815SOL    HW213438   8.405  12.086   2.171 -0.3533 -0.9812 -1.1137
31816SOL     OW13439   1.294   9.697   7.268  0.2141  0.4257 -0.0206
31816SOL    HW113440   1.351   9.766   7.301  1.3220 -0.6010  0.3324
31816SOL    HW213441   1.314   9.621   7.323  0.2530 -0.6223 -1.4034
31817SOL     OW13442   2.757   0.952   0.736  0.2473 -0.3864  0.1298
31817SOL    HW113443   2.698   1.019   0.770 -0.1101 -0.5008 -0.2494
31817SOL    HW213444   2.844   0.990   0.746  0.2828 -0.9348  2.3254
31818SOL     OW13445  12.370  11.522   9.377  0.0459  1.1080  0.2705
31818SOL    HW113446  12.452  11.568   9.398 -0.8986  2.9249  0.1694
31818SOL    HW213447  12.335  11.497   9.463  1.0486 -0.3578  0.2791
31819SOL     OW13448   1.755   7.100   0.272 -0.0712 -0.0526  0.2391
31819SOL    HW113449   1.660   7.104   0.265 -0.0070  0.2214 -0.5395
31819SOL    HW213450   1.782   7.038   0.205  0.1604 -1.6952  1.7837
31820SOL     OW13451   8.873  13.651  13.368 -0.0659 -0.2889  0.6009
31820SOL    HW113452   8.965  13.628  13.365  0.0816  0.3450 -1.2035
31820SOL    HW213453   8.831  13.589  13.309 -0.4139  0.8370 -0.3883
31821SOL     OW13454   1.387   3.847   1.056 -0.4345 -0.3431  0.0452
31821SOL    HW113455   1.417   3.757   1.052 -1.7741 -0.9438  2.2477
31821SOL    HW213456   1.295   3.843   1.029  0.0814  0.7917 -2.1920
31822SOL     OW13457   4.298   7.666   8.378  0.8954 -0.2785 -0.8546
31822SOL    HW113458   4.227   7.715   8.420 -0.2986 -1.3706 -1.5408
31822SOL    HW213459   4.365   7.659   8.445  0.9005  1.8494 -0.5754
31823SOL     OW13460   5.952  10.817   8.183 -0.5711 -0.6811  0.4507
31823SOL    HW113461   5.964  10.723   8.175 -2.6523 -1.1098  1.7074
31823SOL    HW213462   5.915  10.829   8.271 -2.4475  1.0569 -0.5159
31824SOL     OW13463   3.203  13.325   8.442 -0.6625 -0.2304  0.5672
31824SOL    HW113464   3.284  13.345   8.395 -0.8222  0.4937  0.5873
31824SOL    HW213465   3.143  13.295   8.373 -0.2111 -1.3310  0.6332
31825SOL     OW13466  12.097   7.099   8.096  0.3137 -0.0021 -0.3246
31825SOL    HW113467  12.111   7.085   8.002 -0.4934  1.4098 -0.6898
31825SOL    HW213468  12.049   7.021   8.125 -1.2920  0.4696 -1.5641
31826SOL     OW13469   4.618   2.417   2.179  0.0519  0.1118 -0.2360
31826SOL    HW113470   4.577   2.363   2.112 -2.5205  2.6196 -0.9102
31826SOL    HW213471   4.690   2.461   2.134  1.2326 -1.5721 -0.0596
31827SOL     OW13472   8.809   0.385  10.685 -0.3026 -0.1990 -1.2098
31827SOL    HW113473   8.766   0.406  10.602 -0.6048 -1.3819 -1.3696
31827SOL    HW213474   8.831   0.292  10.678  0.8143 -0.0185 -0.4634
31828SOL     OW13475   6.549   3.672   4.420 -0.3094 -0.4901 -0.4612
31828SOL    HW113476   6.611   3.680   4.493  3.6108 -2.6512 -3.1532
31828SOL    HW213477   6.518   3.761   4.405 -1.4642  0.0325  3.7482
31829SOL     OW13478   7.976  11.359   3.886  0.1279  0.8646 -0.0622
31829SOL    HW113479   8.045  11.351   3.952 -0.5674  1.6276  0.7906
31829SOL    HW213480   7.894  11.348   3.936 -0.3968  1.1692 -0.8434
31830SOL     OW13481  11.428   9.367   3.778  0.1919  0.2396 -0.2318
31830SOL    HW113482  11.446   9.279   3.744  2.3536  1.0615 -1.3853
31830SOL    HW213483  11.420   9.355   3.873  0.6658 -1.1504 -0.3411
31831SOL     OW13484  10.984   7.082  12.300  0.3607  0.4570 -0.0038
31831SOL    HW113485  11.059   7.099  12.357  0.8296 -1.7342  0.1516
31831SOL    HW213486  11.015   7.013  12.241 -0.8543  1.0731 -1.4211
31832SOL     OW13487   2.912   6.452  11.412 -0.2585 -0.1811 -1.1124
31832SOL    HW113488   2.904   6.525  11.350  3.2163 -0.0625 -1.6089
31832SOL    HW213489   2.924   6.375  11.356 -1.0063 -0.7190 -0.5573
31833SOL     OW13490   0.918   2.678   7.531  0.3223  0.6685 -0.0087
31833SOL    HW113491   0.982   2.616   7.568 -0.2134 -0.7871 -1.4417
31833SOL    HW213492   0.865   2.704   7.607  1.1888  0.1526  0.8077
31834SOL     OW13493   9.394   3.428   3.871  0.0237 -0.4123 -0.7552
31834SOL    HW113494   9.390   3.516   3.833 -0.7975 -0.1720 -0.1345
31834SOL    HW213495   9.349   3.372   3.808 -0.1187 -0.2526 -0.7958
31835SOL     OW13496   1.301   0.552   4.353  0.4771 -0.1836 -0.1841
31835SOL    HW113497   1.223   0.542   4.407  0.7265 -0.9303  0.0421
31835SOL    HW213498   1.268   0.587   4.270  0.1997  1.9394  0.7401
31836SOL     OW13499   3.258   6.692  11.511  0.2780  0.2517  0.0215
31836SOL    HW113500   3.235   6.784  11.523 -0.1254  0.0054  1.1949
31836SOL    HW213501   3.331   6.694  11.449  0.4511  1.3745  0.2413
31837SOL     OW13502  12.406   0.245   9.606 -0.2007  0.2602 -0.2879
31837SOL    HW113503  12.427   0.322   9.660  0.0293  1.1463 -1.5866
31837SOL    HW213504  12.311   0.236   9.614 -0.2126  0.5892 -0.0099
31838SOL     OW13505   7.149   5.034  10.585 -0.0808  0.5232  0.3295
31838SOL    HW113506   7.242   5.028  10.562 -0.3308 -0.4713 -0.4804
31838SOL    HW213507   7.135   4.964  10.648 -0.6967 -0.6661 -1.0720
31839SOL     OW13508   8.030  13.635   6.820 -0.4757 -0.3062 -0.0606
31839SOL    HW113509   8.079  13.671   6.894  0.9136 -0.3816 -0.9161
31839SOL    HW213510   7.956  13.695   6.810  0.1605  0.5913  0.4289
31840SOL     OW13511   1.796   9.807   3.133 -0.7871 -0.0790 -0.2842
31840SOL    HW113512   1.880   9.769   3.108 -0.6605 -0.6894  1.0144
31840SOL    HW213513   1.745   9.807   3.052  0.6561  0.9028 -1.2455
31841SOL     OW13514   4.113   0.692   2.553 -0.2997 -0.1864  0.0696
31841SOL    HW113515   4.127   0.742   2.473  0.8850 -0.7384 -0.0902
31841SOL    HW213516   4.042   0.630   2.531  0.3206 -0.6412 -0.7057
31842SOL     OW13517   3.545   5.184   0.474 -0.0433  0.3503  0.0348
31842SOL    HW113518   3.591   5.101   0.489 -1.9010 -0.7133  0.0690
31842SOL    HW213519   3.459   5.172   0.514 -1.5441  1.0648 -2.6917
31843SOL     OW13520   2.188  12.265   4.819 -0.3622  0.2251  0.2636
31843SOL    HW113521   2.188  12.350   4.775 -1.6091  0.0089 -0.1709
31843SOL    HW213522   2.161  12.203   4.752 -3.4617  0.0321  1.5392
31844SOL     OW13523   8.503   1.472  13.319  0.0243 -0.0825 -0.0658
31844SOL    HW113524   8.525   1.405  13.253 -0.0119  0.0440 -0.2077
31844SOL    HW213525   8.481   1.549  13.267  2.5339  0.8475  0.1099
31845SOL     OW13526  10.807   9.110   4.740 -0.3399 -0.1639  0.2517
31845SOL    HW113527  10.813   9.180   4.676  0.8464  0.6770  1.2171
31845SOL    HW213528  10.882   9.053   4.721 -0.2839 -0.1971  0.5645
31846SOL     OW13529  11.280   3.361   9.115  0.2599 -0.0770 -0.6466
31846SOL    HW113530  11.341   3.373   9.042 -0.7970  1.7237 -1.3006
31846SOL    HW213531  11.195   3.390   9.081 -0.3091  0.6061  1.2176
31847SOL     OW13532   8.419   8.872  10.387  0.0494 -0.2932  0.4999
31847SOL    HW113533   8.434   8.964  10.408 -0.1968 -0.1976  0.2699
31847SOL    HW213534   8.368   8.839  10.461  0.0475 -0.2172  0.5338
31848SOL     OW13535  10.755  11.427   6.817 -0.5232  0.3776  0.4843
31848SOL    HW113536  10.667  11.406   6.848 -0.3508 -0.5162  0.4119
31848SOL    HW213537  10.749  11.423   6.722 -0.6470  1.3773  0.4454
31849SOL     OW13538  14.136  12.083   1.179 -0.4650  0.0010 -0.1704
31849SOL    HW113539  14.070  12.077   1.109 -1.6028 -0.2722  0.8887
31849SOL    HW213540  14.218  12.058   1.136 -1.4556 -2.1997 -0.9815
31850SOL     OW13541   2.873   5.647   2.135  0.5859  0.2456  0.0855
31850SOL    HW113542   2.849   5.649   2.227  1.0951 -2.1907  0.3343
31850SOL    HW213543   2.794   5.675   2.089  0.1530  0.9339  1.2111
31851SOL     OW13544  13.177  13.647  10.110 -0.3619  0.5962 -0.3132
31851SOL    HW113545  13.191  13.651  10.015  0.0140 -1.0101 -0.3613
31851SOL    HW213546  13.088  13.613  10.119  0.2136 -0.9220 -0.1293
31852SOL     OW13547   3.052   3.537   4.172  0.4073  0.1850  0.1134
31852SOL    HW113548   3.032   3.513   4.082  0.5115 -0.5797  0.2937
31852SOL    HW213549   2.989   3.606   4.193 -0.6128 -0.6760 -0.0549
31853SOL     OW13550  13.193   2.610  12.491  0.2524 -0.0894 -0.3439
31853SOL    HW113551  13.105   2.647  12.482 -0.4290 -0.8653  2.2077
31853SOL    HW213552  13.212   2.617  12.584  1.8648 -2.1897 -0.4491
31854SOL     OW13553  11.363  10.278  10.897 -0.2780 -0.6343 -0.5182
31854SOL    HW113554  11.444  10.273  10.948 -0.4237 -0.9866 -0.3207
31854SOL    HW213555  11.298  10.235  10.951 -0.7291  0.1454 -0.4219
31855SOL     OW13556   9.160   9.144  13.999 -0.1868 -0.2450  0.4856
31855SOL    HW113557   9.214   9.071  13.969  0.6901  0.3606  0.5799
31855SOL    HW213558   9.097   9.157  13.928 -0.4148 -1.1456  0.5082
31856SOL     OW13559  11.104   2.782   7.682  0.3826  0.0659  0.0980
31856SOL    HW113560  11.095   2.809   7.591  0.3043 -0.0728  0.0641
31856SOL    HW213561  11.029   2.724   7.698  1.6781 -1.9011 -0.4808
31857SOL     OW13562  11.273   3.358  13.265 -0.8525 -0.6565  0.1997
31857SOL    HW113563  11.199   3.418  13.279 -0.5352 -0.1718 -0.1564
31857SOL    HW213564  11.237   3.287  13.212 -1.6532 -1.6580  1.9738
31858SOL     OW13565   3.282   0.686   9.681 -0.4207 -0.2290  0.1146
31858SOL    HW113566   3.314   0.773   9.704 -0.3704 -0.0706 -0.5224
31858SOL    HW213567   3.307   0.630   9.754 -1.1690  0.4488  0.9177
31859SOL     OW13568   5.809  13.753  11.564  0.6294 -0.0024 -0.5509
31859SOL    HW113569   5.878  13.819  11.570 -0.8615  1.5492  0.4479
31859SOL    HW213570   5.786  13.735  11.656  0.0525 -0.8655 -0.8593
31860SOL     OW13571   2.424   4.057   6.744 -0.1072 -0.0584 -0.3578
31860SOL    HW113572   2.466   4.136   6.779  0.2334 -0.2398 -0.3563
31860SOL    HW213573   2.485   3.986   6.764 -1.2214 -0.6208  1.2653
31861SOL     OW13574   7.763  10.093  13.741 -0.1065  0.3057 -0.3681
31861SOL    HW113575   7.793  10.132  13.823 -0.0343 -0.1164 -0.1902
31861SOL    HW213576   7.790  10.155  13.673  1.8258 -0.3936 -0.2907
31862SOL     OW13577   3.793   4.183   4.713 -0.4881 -0.4890 -0.3717
31862SOL    HW113578   3.806   4.127   4.636 -2.9353 -1.0744 -0.4716
31862SOL    HW213579   3.697   4.192   4.719 -0.3038  0.6302  1.8458
31863SOL     OW13580   0.250   5.210  13.880 -0.2992 -0.1414 -0.2711
31863SOL    HW113581   0.311   5.185  13.949 -1.7796 -2.2031  0.3731
31863SOL    HW213582   0.301   5.268  13.823  1.7307 -0.4627  1.1127
31864SOL     OW13583  11.733   3.995  13.702 -0.2144  0.0380  0.3028
31864SOL    HW113584  11.643   4.020  13.726 -0.8006 -1.1147 -0.5707
31864SOL    HW213585  11.784   4.074  13.715 -0.8853  0.1464  3.1125
31865SOL     OW13586   6.198   7.208   6.731  0.0267  0.2132  0.1056
31865SOL    HW113587   6.119   7.237   6.777 -0.8699 -0.7563 -0.7598
31865SOL    HW213588   6.204   7.266   6.655  0.7651  0.9618  0.7109
31866SOL     OW13589  10.633   8.293   6.171 -0.1982 -0.0800 -0.0161
31866SOL    HW113590  10.555   8.237   6.165 -0.3598  0.2371 -1.0774
31866SOL    HW213591  10.674   8.286   6.085  0.4654  0.4655  0.2466
31867SOL     OW13592   5.857  12.791   0.017  0.2152  0.0741  0.3966
31867SOL    HW113593   5.843  12.850   0.091 -0.0847  1.5029 -0.7678
31867SOL    HW213594   5.787  12.726   0.024  1.3905 -1.0918  2.5199
31868SOL     OW13595  13.161   2.269   1.266 -0.2124 -0.2154  0.4262
31868SOL    HW113596  13.175   2.277   1.361  1.7385  1.3754  0.0694
31868SOL    HW213597  13.144   2.359   1.237 -0.1486 -0.5915 -0.8302
31869SOL     OW13598   7.277   5.651   5.738 -0.5879 -0.4050 -0.0108
31869SOL    HW113599   7.267   5.618   5.827 -0.9978 -0.3977 -0.0523
31869SOL    HW213600   7.253   5.743   5.743 -1.7306 -0.6696 -0.3416
31870SOL     OW13601  13.885   4.593  10.119 -0.5066  0.2231 -0.5697
31870SOL    HW113602  13.840   4.632  10.044  1.0975 -0.8130 -2.1607
31870SOL    HW213603  13.967   4.559  10.083  1.3894  1.6207  2.0865
31871SOL     OW13604  13.374  11.353   5.586 -0.2138  0.4308 -0.2513
31871SOL    HW113605  13.461  11.354   5.627 -0.2556  0.8533 -0.1681
31871SOL    HW213606  13.379  11.420   5.518 -0.3732  0.2311 -0.4584
31872SOL     OW13607  11.199  11.583   8.057 -0.0584  0.1171 -0.0212
31872SOL    HW113608  11.261  11.518   8.024 -0.3490  0.3976 -1.1504
31872SOL    HW213609  11.147  11.608   7.981 -2.0318 -0.6149  1.0087
31873SOL     OW13610   7.799   3.078  14.067  0.3075 -0.3331  0.3225
31873SOL    HW113611   7.893   3.057  14.067  0.1227 -1.2314  0.1673
31873SOL    HW213612   7.766   3.035  14.146 -0.0268 -0.2852  0.2059
31874SOL     OW13613  10.627  10.106  13.855 -0.4669  0.6374  0.2824
31874SOL    HW113614  10.555  10.046  13.832  0.0038  0.7297 -1.5961
31874SOL    HW213615  10.603  10.140  13.941 -2.0819 -0.2458  0.2225
31875SOL     OW13616   2.608  13.346   4.700 -0.2304  0.0244 -0.1863
31875SOL    HW113617   2.647  13.275   4.752  0.8051  1.2859  0.8222
31875SOL    HW213618   2.607  13.421   4.759  0.2937  1.3230 -1.7584
31876SOL     OW13619  10.053   2.768   2.895  0.0345  0.1203 -0.0740
31876SOL    HW113620  10.149   2.758   2.891 -0.1516 -1.5331 -1.7611
31876SOL    HW213621  10.036   2.846   2.843  0.3813 -0.4076 -1.0009
31877SOL     OW13622   4.771  11.324   8.909 -0.7112  0.2904  0.5147
31877SOL    HW113623   4.866  11.328   8.913 -0.7531  2.4685  0.7281
31877SOL    HW213624   4.745  11.286   8.993 -0.0280 -2.6580 -0.4930
31878SOL     OW13625   8.308   4.014   7.498  0.6176  0.2415  0.1149
31878SOL    HW113626   8.224   4.057   7.514  1.3453  1.1695  1.6628
31878SOL    HW213627   8.321   4.022   7.404 -0.7113  0.6824 -0.0534
31879SOL     OW13628   1.886   7.273  10.586  0.2133 -0.3267 -0.3905
31879SOL    HW113629   1.816   7.333  10.615  0.6643 -0.1216  0.3128
31879SOL    HW213630   1.964   7.306  10.630  0.4577 -1.4899  0.0813
31880SOL     OW13631   1.564   6.202  12.824  0.3466 -0.2288 -0.0590
31880SOL    HW113632   1.513   6.148  12.884 -0.1881 -0.1100 -0.4016
31880SOL    HW213633   1.602   6.270  12.880 -0.3804  0.0534  0.1079
31881SOL     OW13634   8.623  13.317  11.100 -0.2566  0.7283 -0.4020
31881SOL    HW113635   8.671  13.318  11.018 -1.3599 -2.1113 -1.2138
31881SOL    HW213636   8.687  13.289  11.166  0.1224  0.8850 -0.7014
31882SOL     OW13637   2.142   4.089  13.651  0.4629 -0.2708  0.3130
31882SOL    HW113638   2.085   4.058  13.721  2.3199 -1.1865  1.5094
31882SOL    HW213639   2.208   4.142  13.696  0.6302  0.6941 -1.0071
31883SOL     OW13640   4.539  11.216   2.311  0.6442  0.3640 -0.3714
31883SOL    HW113641   4.485  11.293   2.327 -1.2339 -0.8873 -0.3367
31883SOL    HW213642   4.625  11.238   2.348 -0.0927  2.0877  0.4002
31884SOL     OW13643   6.747   6.229   4.924 -0.3089 -0.2880  0.3037
31884SOL    HW113644   6.675   6.286   4.898  1.4975  1.9514 -0.1993
31884SOL    HW213645   6.752   6.162   4.855 -1.5679 -0.1719  0.0920
31885SOL     OW13646   6.493   2.736   8.138 -0.3976 -0.0904 -0.4225
31885SOL    HW113647   6.573   2.780   8.107 -0.7378 -0.3915 -1.7929
31885SOL    HW213648   6.525   2.665   8.193  0.1956  1.0882  0.8227
31886SOL     OW13649   5.244   2.699  13.551 -0.3959  0.3539  0.2300
31886SOL    HW113650   5.330   2.741  13.555  0.3769 -1.1895  0.6353
31886SOL    HW213651   5.224   2.696  13.457  0.9534 -1.0522 -0.0573
31887SOL     OW13652  10.298  11.313   3.653 -0.1253 -0.0638 -0.0986
31887SOL    HW113653  10.229  11.362   3.698  0.2111 -0.0613  0.4214
31887SOL    HW213654  10.299  11.349   3.564  0.3738  1.1493  0.3770
31888SOL     OW13655  11.994   5.441   5.850  0.2021 -0.1758  0.0455
31888SOL    HW113656  11.976   5.494   5.928  0.2791 -1.5461  1.0209
31888SOL    HW213657  11.909   5.424   5.811  0.1398  0.2799 -0.0217
31889SOL     OW13658   1.759  12.728  12.777  0.0033 -0.5755 -0.4427
31889SOL    HW113659   1.841  12.711  12.731  0.3648 -1.3789  0.4721
31889SOL    HW213660   1.749  12.655  12.837 -0.2269  0.6685  1.0994
31890SOL     OW13661   6.498   5.487   3.363  0.0333  0.6330 -0.3183
31890SOL    HW113662   6.427   5.443   3.317 -0.7289  0.7425  0.7086
31890SOL    HW213663   6.510   5.569   3.316  0.9060 -0.2685 -1.7477
31891SOL     OW13664  12.733   8.787   5.040  0.1638 -0.1899  0.3425
31891SOL    HW113665  12.696   8.806   5.126 -0.4383  1.5368 -0.2564
31891SOL    HW213666  12.658   8.783   4.981  0.6928  0.4830 -0.3993
31892SOL     OW13667  11.617   3.879   7.893 -0.5631  0.0273 -0.8521
31892SOL    HW113668  11.619   3.801   7.947  2.1202 -0.4797 -1.5094
31892SOL    HW213669  11.624   3.952   7.955  1.7172 -0.5114 -0.3739
31893SOL     OW13670  13.274  12.461  11.633  0.6368  0.0166  0.3219
31893SOL    HW113671  13.185  12.434  11.658  0.0678  1.2862 -0.2143
31893SOL    HW213672  13.331  12.392  11.668 -0.5897 -1.0446  0.3133
31894SOL     OW13673   2.363   3.708   6.363  0.1446 -0.7837 -0.0957
31894SOL    HW113674   2.336   3.725   6.453  2.5226 -0.6382  0.6308
31894SOL    HW213675   2.336   3.786   6.315  1.8879  0.7003  1.2055
31895SOL     OW13676   6.804   7.388   5.666  0.5220  0.1613 -0.0477
31895SOL    HW113677   6.875   7.380   5.729  0.1551  1.3157  0.5477
31895SOL    HW213678   6.786   7.482   5.662 -0.3166 -0.0166 -0.9261
31896SOL     OW13679  12.529   2.288   7.520 -0.2252 -0.1090  0.2973
31896SOL    HW113680  12.486   2.253   7.441 -0.3229  2.2304 -0.7620
31896SOL    HW213681  12.582   2.215   7.552  0.0815 -1.0528 -2.1353
31897SOL     OW13682   7.925   5.645   1.135  0.1545  0.3731  0.3301
31897SOL    HW113683   8.004   5.609   1.174 -0.3257 -0.3505  0.6680
31897SOL    HW213684   7.944   5.737   1.122  0.8248  0.3376  1.0014
31898SOL     OW13685   0.419  11.187   8.992  0.5681  0.1133 -0.6618
31898SOL    HW113686   0.368  11.172   9.072  0.2858 -0.3081 -0.9098
31898SOL    HW213687   0.420  11.101   8.949  0.1061  0.4953 -1.4577
31899SOL     OW13688   9.056   4.137   1.889 -0.4711 -0.0482  0.2844
31899SOL    HW113689   9.143   4.101   1.902 -0.5889 -1.2064 -1.7492
31899SOL    HW213690   9.003   4.099   1.958  0.2941 -0.5690  0.5927
31900SOL     OW13691   1.301   2.326   5.262  0.0672 -0.3171  0.0836
31900SOL    HW113692   1.295   2.231   5.269 -1.9496 -0.1792  0.9160
31900SOL    HW213693   1.219   2.358   5.298  0.6858  1.7595 -0.2056
31901SOL     OW13694   7.189   0.793   9.480 -0.1500 -0.6085  0.6840
31901SOL    HW113695   7.170   0.832   9.565 -0.2974 -2.4989  1.5688
31901SOL    HW213696   7.108   0.749   9.454  0.7219 -2.5449  1.0224
31902SOL     OW13697   4.013   4.550   4.717 -0.2828  0.1597  0.0938
31902SOL    HW113698   4.036   4.477   4.774 -0.7744 -0.0898 -0.0124
31902SOL    HW213699   3.918   4.540   4.703 -0.1267  0.0272 -1.0029
31903SOL     OW13700  10.423   0.462  11.744 -0.7319  0.1019  0.1174
31903SOL    HW113701  10.369   0.522  11.692 -1.2178 -1.6563 -1.5344
31903SOL    HW213702  10.475   0.414  11.679  0.5499 -0.4304  1.4671
31904SOL     OW13703   1.464   6.053   6.353  0.1462 -0.1767 -0.3742
31904SOL    HW113704   1.379   6.097   6.340 -0.3975 -1.0104  0.2210
31904SOL    HW213705   1.450   5.997   6.429  0.9261 -1.0865 -0.8745
31905SOL     OW13706  10.833   7.660   9.844 -0.2602 -0.1517  0.2555
31905SOL    HW113707  10.751   7.678   9.798  0.1678 -0.2375 -0.5620
31905SOL    HW213708  10.833   7.565   9.856  0.3185 -0.3365 -0.9604
31906SOL     OW13709   5.160   6.158   7.732 -0.4153  0.2338 -0.0511
31906SOL    HW113710   5.136   6.150   7.824  0.4113  1.9328  0.3516
31906SOL    HW213711   5.128   6.244   7.706 -0.3051 -0.0685 -1.2630
31907SOL     OW13712   1.128  10.162   7.474 -0.5565  0.2792 -0.0070
31907SOL    HW113713   1.119  10.134   7.383 -2.8763  0.0612  0.2425
31907SOL    HW213714   1.069  10.237   7.482 -0.1324  0.4981  1.2476
31908SOL     OW13715   4.891   5.348  11.754  0.2780  0.3852 -0.1175
31908SOL    HW113716   4.820   5.328  11.816  0.4014  0.5597  0.0788
31908SOL    HW213717   4.948   5.408  11.801  2.0363 -1.8097  0.7729
31909SOL     OW13718   6.762  10.219   1.891 -0.4565  0.5337  0.0792
31909SOL    HW113719   6.728  10.136   1.923 -2.7944  1.6819  0.8343
31909SOL    HW213720   6.735  10.222   1.799 -0.8812  0.6951  0.2074
31910SOL     OW13721  13.491  11.978   4.295 -0.1203  0.2281 -0.7042
31910SOL    HW113722  13.541  12.008   4.219  4.1280  0.6020  1.9084
31910SOL    HW213723  13.532  12.022   4.370 -1.9471 -2.4844  2.1316
31911SOL     OW13724  13.081   5.288   1.689 -0.5231  0.3522  0.2518
31911SOL    HW113725  13.014   5.354   1.707 -1.1969  0.5800 -2.5061
31911SOL    HW213726  13.080   5.279   1.593  0.7445 -2.4321  0.3967
31912SOL     OW13727   6.203   3.946   4.437 -0.1731 -0.0212 -0.0494
31912SOL    HW113728   6.140   3.994   4.491  0.0311 -0.4538  0.5801
31912SOL    HW213729   6.163   3.859   4.426  0.5231 -0.4521  0.7475
31913SOL     OW13730   1.151  13.896   2.048  0.0380  0.5657  0.0287
31913SOL    HW113731   1.111  13.816   2.082  0.8487  0.4863  0.8278
31913SOL    HW213732   1.147  13.887   1.953 -0.1115 -0.3059  0.1129
31914SOL     OW13733  11.537   1.265   5.360  0.5983  0.0735 -0.1947
31914SOL    HW113734  11.466   1.308   5.312  0.7539  0.7348  0.1581
31914SOL    HW213735  11.505   1.259   5.450  0.5258 -0.6741 -0.2643
31915SOL     OW13736   6.874   7.121  11.876  0.0973 -0.0867 -0.3045
31915SOL    HW113737   6.914   7.192  11.926  0.0758 -2.2574  3.2060
31915SOL    HW213738   6.780   7.137  11.882 -0.0699 -1.4116  2.5603
31916SOL     OW13739  11.416   3.861   8.392  0.3150 -0.4334  0.1925
31916SOL    HW113740  11.410   3.945   8.345 -1.1606  0.2441  1.4864
31916SOL    HW213741  11.457   3.883   8.475  1.1444 -1.2706  0.0214
31917SOL     OW13742   7.489   1.362   1.885 -0.1564  0.1877  0.1449
31917SOL    HW113743   7.407   1.356   1.934 -0.6741  0.7309 -0.6157
31917SOL    HW213744   7.463   1.347   1.794  0.5752  0.4689 -0.1192
31918SOL     OW13745  13.166   6.695   4.484  0.0597 -0.1743  0.5866
31918SOL    HW113746  13.136   6.772   4.435  0.6463 -0.4271 -0.1875
31918SOL    HW213747  13.192   6.633   4.416  1.4998 -0.2911  1.2159
31919SOL     OW13748   9.352   9.153   9.947  0.0147  0.3886 -0.4514
31919SOL    HW113749   9.438   9.119   9.925  0.7499  1.7276  0.1821
31919SOL    HW213750   9.360   9.248   9.936 -0.7298  0.7502  1.6201
31920SOL     OW13751   1.907   8.052  10.596  0.4515  0.0466 -0.1319
31920SOL    HW113752   1.847   7.991  10.555 -1.4482  1.2669  0.6662
31920SOL    HW213753   1.943   8.104  10.524 -0.5351  0.1990 -0.5290
31921SOL     OW13754   5.781   3.702   1.784 -0.0892  0.5747 -0.2799
31921SOL    HW113755   5.707   3.733   1.731  0.0582  0.2464 -0.6882
31921SOL    HW213756   5.741   3.641   1.847  0.0591 -1.3145 -1.8972
31922SOL     OW13757   2.290  10.796   7.485  0.1405  0.1126 -0.0051
31922SOL    HW113758   2.322  10.710   7.456 -2.1266 -0.2079 -1.9197
31922SOL    HW213759   2.213  10.776   7.539 -0.6677  0.9018 -0.8319
31923SOL     OW13760   6.547   9.881   2.594 -0.1324 -0.3146  0.6697
31923SOL    HW113761   6.453   9.892   2.580  0.2913  1.6521 -1.0627
31923SOL    HW213762   6.578   9.835   2.517  0.5984  0.8330  0.2535
31924SOL     OW13763   6.592   4.720  11.206  0.0473  0.4771  0.5888
31924SOL    HW113764   6.557   4.639  11.242 -0.7627  1.0767  1.2031
31924SOL    HW213765   6.663   4.692  11.148 -0.5750 -0.6970  0.3558
31925SOL     OW13766  10.049   4.642   4.443 -0.0195  0.0603  0.1918
31925SOL    HW113767   9.965   4.667   4.403  0.0963  1.5557  0.8080
31925SOL    HW213768  10.038   4.550   4.465 -1.7547  0.3727  0.8256
31926SOL     OW13769   4.369  11.883   4.998 -0.0393  0.2673  0.0011
31926SOL    HW113770   4.278  11.912   5.007 -0.4357 -0.8806 -0.2204
31926SOL    HW213771   4.364  11.799   4.953  1.0527 -0.3584  0.9839
31927SOL     OW13772   9.905   2.753   4.724  0.7249  0.0650 -0.1455
31927SOL    HW113773   9.814   2.775   4.746  1.2592  0.1637  2.3630
31927SOL    HW213774   9.904   2.733   4.631 -1.9485 -0.3320 -0.1090
31928SOL     OW13775   1.196   8.122   5.133  0.6548  0.1070 -0.0301
31928SOL    HW113776   1.102   8.104   5.136  0.6708  0.1390  1.2087
31928SOL    HW213777   1.218   8.119   5.040 -0.8260  1.4276 -0.4612
31929SOL     OW13778  10.363   9.666   6.227 -0.1483 -0.0970  0.0442
31929SOL    HW113779  10.443   9.637   6.273  1.1131  3.1433  0.1274
31929SOL    HW213780  10.395   9.706   6.147 -1.8160  0.3624 -0.4200
31930SOL     OW13781   0.583  13.692   8.887  0.2914  0.1539 -0.3313
31930SOL    HW113782   0.495  13.676   8.924  0.7163 -0.2896  0.5304
31930SOL    HW213783   0.568  13.751   8.813 -0.7190  0.2073 -0.0978
31931SOL     OW13784   0.197   3.388  12.958  0.3866 -0.3933  0.2298
31931SOL    HW113785   0.270   3.407  13.018  0.4750 -0.2399  0.0737
31931SOL    HW213786   0.129   3.450  12.984  0.8108  0.4131 -0.5284
31932SOL     OW13787   3.392   8.808   8.227 -0.0336 -0.2008 -0.2450
31932SOL    HW113788   3.388   8.828   8.321  0.4429  2.4760 -0.6981
31932SOL    HW213789   3.302   8.785   8.204 -0.2864 -0.2960  0.7714
31933SOL     OW13790   3.593   5.398  12.519  0.2289 -0.0300  0.6163
31933SOL    HW113791   3.603   5.303  12.529  0.0537  0.0409  1.5183
31933SOL    HW213792   3.663   5.422  12.458  1.3300 -0.5137  1.6419
31934SOL     OW13793   3.485   8.581   0.630  0.2448 -0.1943 -0.0701
31934SOL    HW113794   3.405   8.538   0.659 -0.4660  0.1461 -1.4329
31934SOL    HW213795   3.466   8.675   0.638  0.4500 -0.1107 -0.5330
31935SOL     OW13796  11.750  12.376   5.487 -0.1304  0.0287  0.3381
31935SOL    HW113797  11.720  12.286   5.495  1.4005 -0.4086  1.5163
31935SOL    HW213798  11.804  12.391   5.564 -0.7761  2.1454  0.4554
31936SOL     OW13799  12.187  12.144   4.653  0.1454 -0.4900 -0.6030
31936SOL    HW113800  12.125  12.217   4.663 -0.2928 -0.9519  0.0802
31936SOL    HW213801  12.213  12.148   4.561  0.5872  0.9014 -0.4419
31937SOL     OW13802   2.484   3.761  10.637 -0.0486  0.0946 -0.1440
31937SOL    HW113803   2.570   3.752  10.595  0.7800  2.0227  1.0341
31937SOL    HW213804   2.422   3.757  10.564  0.9962 -1.3869 -1.0144
31938SOL     OW13805   2.171   6.037   7.775  0.2213 -0.2408  0.1418
31938SOL    HW113806   2.142   6.118   7.733  1.5151  0.6027  0.7976
31938SOL    HW213807   2.217   5.989   7.706  0.3626  0.0726  0.0174
31939SOL     OW13808   2.396   0.927  13.021 -0.2188  0.0597  0.4531
31939SOL    HW113809   2.462   0.949  13.086 -0.8415  0.0577  1.0998
31939SOL    HW213810   2.364   1.011  12.989 -1.1670  0.0996  1.4541
31940SOL     OW13811   8.584   0.244  11.222  0.1049  0.1094 -0.2780
31940SOL    HW113812   8.562   0.183  11.151  0.0263 -1.8523  1.3430
31940SOL    HW213813   8.639   0.193  11.281  0.3173  1.7449  0.9980
31941SOL     OW13814  13.945   6.582   2.411  0.4875  0.2319 -0.4685
31941SOL    HW113815  13.948   6.644   2.483 -0.3561 -2.0189  1.6291
31941SOL    HW213816  13.852   6.576   2.389  0.7241  0.7975 -1.7051
31942SOL     OW13817   7.204   4.422  10.854 -0.4656  0.3625 -0.3427
31942SOL    HW113818   7.226   4.378  10.771  1.5639 -0.7317  0.6962
31942SOL    HW213819   7.233   4.513  10.841  0.4890  0.0286 -0.6070
31943SOL     OW13820  11.070   3.839  11.143 -0.9086 -0.6282 -0.2436
31943SOL    HW113821  10.999   3.888  11.185  0.7843  1.5312  0.2421
31943SOL    HW213822  11.076   3.758  11.194 -2.7182 -0.6867 -0.0547
31944SOL     OW13823   2.293   8.384   0.125  0.4883 -0.4185  0.2458
31944SOL    HW113824   2.211   8.374   0.175  0.4403 -0.6845  0.1136
31944SOL    HW213825   2.286   8.320   0.055 -0.6182  1.6591 -1.6870
31945SOL     OW13826  11.697   9.142   3.656  0.9967 -0.2613 -0.0760
31945SOL    HW113827  11.677   9.125   3.748  0.9137 -0.0975 -0.0637
31945SOL    HW213828  11.713   9.236   3.652 -1.6262  0.2351 -0.7042
31946SOL     OW13829   5.108  11.453   2.749 -0.0506  0.2404  0.7133
31946SOL    HW113830   5.180  11.465   2.811  0.2977 -0.2389  0.3992
31946SOL    HW213831   5.035  11.423   2.803 -0.3466  1.7366  1.2059
31947SOL     OW13832   6.133  10.946   2.874 -0.2654 -0.3539  0.7551
31947SOL    HW113833   6.131  10.940   2.779  0.7707 -0.0335  0.7040
31947SOL    HW213834   6.124  11.039   2.893  0.3211 -0.3302  0.9376
31948SOL     OW13835   6.518   6.562  11.527  0.3704 -0.4731  0.1057
31948SOL    HW113836   6.534   6.571  11.433 -0.2879  1.5458  0.1490
31948SOL    HW213837   6.429   6.527  11.533  0.2230 -0.1235 -0.0246
31949SOL     OW13838   2.413  12.473  13.085  0.3655 -0.3171  0.1943
31949SOL    HW113839   2.326  12.437  13.102  0.4659 -0.5546  0.2072
31949SOL    HW213840   2.403  12.522  13.004  0.3774 -0.9102 -0.1728
31950SOL     OW13841   4.881   3.355   1.905 -0.0382  0.7336 -0.1176
31950SOL    HW113842   4.971   3.387   1.898  0.4219 -0.4431  0.2145
31950SOL    HW213843   4.856   3.374   1.995 -0.5508  2.0768 -0.5081
31951SOL     OW13844   7.084   3.800   2.617  0.7581 -0.2916 -0.0923
31951SOL    HW113845   7.163   3.747   2.630  0.0360 -1.7067 -1.2523
31951SOL    HW213846   7.054   3.777   2.529  1.3285  3.3097 -1.4082
31952SOL     OW13847  10.131  13.334  12.488  0.0865 -0.1086  0.7323
31952SOL    HW113848  10.109  13.277  12.414 -0.4714 -1.4190  1.8696
31952SOL    HW213849  10.204  13.290  12.532 -0.2319  0.1336  1.5198
31953SOL     OW13850   5.710   2.767  11.328 -0.2574  0.1203 -0.5387
31953SOL    HW113851   5.616   2.783  11.331 -0.6880 -2.2846  1.3153
31953SOL    HW213852   5.749   2.844  11.370 -1.6400 -0.0963  1.2342
31954SOL     OW13853   8.319  13.631   4.536 -0.0070  0.2693 -0.4716
31954SOL    HW113854   8.286  13.542   4.532  0.0244  0.0990  1.6909
31954SOL    HW213855   8.415  13.621   4.533  0.1990 -0.1742  2.8931
31955SOL     OW13856  10.853   7.081   8.638 -0.0504 -0.1972 -0.1298
31955SOL    HW113857  10.780   7.082   8.700  0.2996  0.8771  0.2922
31955SOL    HW213858  10.837   7.005   8.582  0.3554 -2.0728  2.1550
31956SOL     OW13859  13.338   4.102   1.707  0.1270  0.1394  0.3239
31956SOL    HW113860  13.289   4.144   1.636  0.2394 -0.7843 -0.3119
31956SOL    HW213861  13.423   4.081   1.669 -0.3343 -1.7677  0.2192
31957SOL     OW13862   0.842  12.191   5.080 -0.4794  0.0120 -0.0754
31957SOL    HW113863   0.933  12.181   5.108 -0.3750 -0.3655 -0.5468
31957SOL    HW213864   0.801  12.107   5.101 -1.2560  0.8522  2.0567
31958SOL     OW13865  13.735   5.017  11.297 -0.1598  0.2200 -0.3834
31958SOL    HW113866  13.704   5.108  11.291  2.0468  1.0245 -0.4545
31958SOL    HW213867  13.674   4.968  11.243 -0.1026  2.0471 -2.2494
31959SOL     OW13868  12.578   7.193  11.441 -0.4112  0.4548 -0.4557
31959SOL    HW113869  12.528   7.225  11.366 -1.1372 -1.0115 -0.6327
31959SOL    HW213870  12.628   7.119  11.408  0.4923  0.7783  0.1516
31960SOL     OW13871   6.076   3.874  12.164  0.3054 -0.0555 -0.4238
31960SOL    HW113872   6.023   3.947  12.197  1.3544 -1.2310  4.7244
31960SOL    HW213873   6.011   3.807  12.139 -0.7304  0.2167  1.3475
31961SOL     OW13874   1.229   5.367  12.201  0.8022 -0.1945  0.1774
31961SOL    HW113875   1.253   5.367  12.109  1.2496  0.4157  0.2850
31961SOL    HW213876   1.235   5.276  12.228 -0.3592 -0.5448 -0.6461
31962SOL     OW13877   3.106   7.104   0.199  0.1862  0.6784 -0.1807
31962SOL    HW113878   3.130   7.196   0.190  1.5736  0.4645  0.9660
31962SOL    HW213879   3.082   7.076   0.111  1.7329  1.5985 -0.9247
31963SOL     OW13880  10.202   5.596   3.079  0.1518 -0.1767  0.0088
31963SOL    HW113881  10.218   5.565   3.168 -0.5534 -0.7374 -0.0446
31963SOL    HW213882  10.288   5.618   3.045  0.8388 -2.8555 -0.2178
31964SOL     OW13883   2.984   0.311   9.967  0.3024  0.4756  0.1977
31964SOL    HW113884   2.966   0.388  10.021  0.5398  0.3152  0.5091
31964SOL    HW213885   2.978   0.238  10.028 -0.8447  0.1531 -0.2790
31965SOL     OW13886   8.409   2.397   0.409 -0.1665 -0.0092 -0.0695
31965SOL    HW113887   8.432   2.456   0.481  0.0005 -0.6279  0.4005
31965SOL    HW213888   8.405   2.310   0.450  0.8128 -0.5074 -0.9741
31966SOL     OW13889  13.174   9.537  13.189 -0.0970 -0.4044 -0.2767
31966SOL    HW113890  13.225   9.573  13.262  0.0272  0.3715 -0.7357
31966SOL    HW213891  13.143   9.452  13.221  0.9818 -0.6263  0.2335
31967SOL     OW13892   3.866   7.112   4.047 -0.1724  0.0699 -0.1486
31967SOL    HW113893   3.895   7.071   3.966 -2.7915  0.1118 -1.1765
31967SOL    HW213894   3.917   7.067   4.115  1.8888 -0.1461 -1.7129
31968SOL     OW13895  12.823  10.400   6.245  0.2342 -0.5190  0.5495
31968SOL    HW113896  12.755  10.356   6.297  1.3480 -0.5887  2.0219
31968SOL    HW213897  12.887  10.332   6.226  0.2255 -0.3113 -0.2772
31969SOL     OW13898   6.480   6.963  10.145 -0.2852 -0.0742 -0.0107
31969SOL    HW113899   6.513   6.875  10.164 -0.6734  0.1954  2.1326
31969SOL    HW213900   6.483   7.009  10.229 -0.6876  1.7784 -0.9514
31970SOL     OW13901   3.594  11.567   3.485  0.3226 -0.5312  0.0370
31970SOL    HW113902   3.612  11.558   3.579 -0.3866  0.1856  0.2494
31970SOL    HW213903   3.511  11.613   3.481  0.8083  0.2934 -0.9573
31971SOL     OW13904   2.990  11.912   3.270  0.1702  0.4258 -0.5343
31971SOL    HW113905   2.944  11.901   3.353  0.0148 -1.0559 -0.7933
31971SOL    HW213906   3.081  11.890   3.290  0.1496  0.1533 -0.7352
31972SOL     OW13907   7.897   4.839  10.769 -0.2981 -0.0137 -0.3937
31972SOL    HW113908   7.931   4.766  10.718 -1.9893  0.6623 -2.7039
31972SOL    HW213909   7.822   4.803  10.816  0.1233 -0.2194  0.1236
31973SOL     OW13910  13.772   4.837   1.876 -0.2579  0.1499  0.3898
31973SOL    HW113911  13.779   4.900   1.948  0.7929  1.4136 -0.7674
31973SOL    HW213912  13.862   4.805   1.863 -0.4103  0.0316 -0.4275
31974SOL     OW13913  10.485   2.937   3.834  0.5156 -0.1154  0.7855
31974SOL    HW113914  10.437   3.011   3.796  1.0020 -0.0628  0.2724
31974SOL    HW213915  10.538   2.903   3.763 -0.0281 -1.2428  0.9004
31975SOL     OW13916   0.245   0.382   6.549 -0.8130  0.0046 -0.2187
31975SOL    HW113917   0.319   0.347   6.499  0.4010  0.5875  1.1462
31975SOL    HW213918   0.238   0.474   6.522  0.9087  0.7964  1.8306
31976SOL     OW13919  13.014  13.101  13.327 -0.2283  0.0646  0.3898
31976SOL    HW113920  12.933  13.066  13.290  0.7306 -1.2402 -0.6097
31976SOL    HW213921  13.043  13.166  13.263 -1.2563  1.7221  1.5298
31977SOL     OW13922   8.064   2.793  13.221 -0.3503 -0.6467  0.0821
31977SOL    HW113923   8.125   2.867  13.230  0.1180 -1.0104 -0.0585
31977SOL    HW213924   7.990   2.829  13.172 -0.7250  0.0698  1.1450
31978SOL     OW13925  10.165   7.759  13.214 -0.0357 -0.2016 -0.2803
31978SOL    HW113926  10.255   7.739  13.240 -1.0238 -3.2166  1.2165
31978SOL    HW213927  10.143   7.694  13.148 -0.9152  1.0461 -1.2881
31979SOL     OW13928   5.830  11.909  11.725  0.1891 -0.1926 -0.4468
31979SOL    HW113929   5.798  11.854  11.797  0.0755  1.0544  0.4906
31979SOL    HW213930   5.886  11.973  11.768  3.5567 -1.9176 -1.9549
31980SOL     OW13931   0.770   8.245   8.383  0.1566 -0.3967 -0.0849
31980SOL    HW113932   0.786   8.336   8.359  0.3810 -0.5030 -0.3436
31980SOL    HW213933   0.729   8.249   8.469 -0.2804 -0.0290 -0.3125
31981SOL     OW13934  10.074  13.445   1.033  0.5733  0.1557 -0.0763
31981SOL    HW113935  10.106  13.397   1.109 -1.4332 -0.6119  0.3449
31981SOL    HW213936  10.046  13.529   1.067 -1.6329 -0.6851  0.3955
31982SOL     OW13937  12.192  12.667   4.627  0.4639  0.0939 -0.1315
31982SOL    HW113938  12.200  12.759   4.599  0.5749  0.0964 -0.0928
31982SOL    HW213939  12.223  12.617   4.552  0.1820  0.0793 -0.2414
31983SOL     OW13940   6.776   2.025   9.842  0.4503 -0.6072 -0.2255
31983SOL    HW113941   6.684   2.007   9.861  0.2492  0.9599  0.4411
31983SOL    HW213942   6.825   1.966   9.898 -0.1732  0.2405  1.2632
31984SOL     OW13943  11.572   2.183   1.739 -0.3918  0.0368 -0.6914
31984SOL    HW113944  11.584   2.232   1.820  3.7909  1.6801 -2.0388
31984SOL    HW213945  11.535   2.246   1.677 -2.3444 -0.8538 -0.5197
31985SOL     OW13946   7.485   8.769  13.112 -0.1470  0.0288 -0.0342
31985SOL    HW113947   7.504   8.694  13.169  0.0741  0.8099  0.9530
31985SOL    HW213948   7.501   8.737  13.024  3.8669  0.0291  0.5309
31986SOL     OW13949   3.323  10.831  10.992  0.6735 -0.1096  0.3676
31986SOL    HW113950   3.334  10.842  11.086  0.3147  2.6543  0.1653
31986SOL    HW213951   3.326  10.920  10.956 -0.0708 -0.9903 -2.1437
31987SOL     OW13952   9.813  13.244   2.213  0.3785 -0.1223 -0.1232
31987SOL    HW113953   9.840  13.317   2.158  0.8913 -0.1622  0.0737
31987SOL    HW213954   9.895  13.205   2.243  0.1528  1.0187  2.1885
31988SOL     OW13955   3.795   5.191  11.957 -0.2427  0.4730  0.0066
31988SOL    HW113956   3.870   5.137  11.982 -0.6084 -0.0022  0.0906
31988SOL    HW213957   3.719   5.136  11.974 -0.5338  0.2179 -1.8743
31989SOL     OW13958   8.995   9.837   8.174 -0.6484  0.2115 -0.5590
31989SOL    HW113959   9.041   9.858   8.255 -0.0738  1.7834 -1.2445
31989SOL    HW213960   8.944   9.915   8.154 -1.2919 -0.3934 -1.3770
31990SOL     OW13961   9.953   6.828   2.068  0.4885 -0.5904 -0.1395
31990SOL    HW113962   9.869   6.823   2.114 -0.0097  0.3181 -0.9145
31990SOL    HW213963   9.970   6.738   2.040 -0.8306 -0.6129 -0.9865
31991SOL     OW13964   0.332   4.614  13.920 -0.3377 -0.1149  0.6475
31991SOL    HW113965   0.244   4.621  13.958 -0.5931  1.5152 -0.1780
31991SOL    HW213966   0.381   4.686  13.959  0.6724 -1.0337  1.1307
31992SOL     OW13967  11.004   9.167   6.883 -0.2378 -0.0843  0.3073
31992SOL    HW113968  10.992   9.087   6.831 -0.9244  1.2009 -1.5940
31992SOL    HW213969  11.098   9.171   6.900 -0.1093 -0.9572 -0.1259
31993SOL     OW13970  10.592   4.749   0.918  0.0845 -0.2902 -0.1044
31993SOL    HW113971  10.602   4.844   0.907  2.5959 -0.5344 -0.4432
31993SOL    HW213972  10.553   4.719   0.835 -0.6497  0.4149 -0.0239
31994SOL     OW13973   9.111   3.374   0.336 -0.5256 -0.3234 -0.1516
31994SOL    HW113974   9.045   3.379   0.405 -1.2445 -2.0316 -0.6698
31994SOL    HW213975   9.139   3.283   0.336 -1.7482 -0.8021 -3.1782
31995SOL     OW13976   1.021  13.637   2.698 -1.0424  0.2566  0.4247
31995SOL    HW113977   0.992  13.706   2.638 -0.4632  0.2507  0.1337
31995SOL    HW213978   0.960  13.565   2.681 -0.5231  0.0334 -0.6076
31996SOL     OW13979   3.364   3.847  12.551  0.3661  0.4600  0.1208
31996SOL    HW113980   3.426   3.834  12.480 -0.1657  1.2564 -0.4926
31996SOL    HW213981   3.415   3.890  12.620  0.6409  0.5714 -0.1506
31997SOL     OW13982  13.146  12.953  11.185 -0.1717 -0.1788 -0.0154
31997SOL    HW113983  13.226  12.989  11.147  0.6759 -0.6407  1.2523
31997SOL    HW213984  13.151  12.860  11.167 -0.3759 -0.2177  0.1282
31998SOL     OW13985   6.282  11.998   3.383 -0.6214 -0.2077  0.6073
31998SOL    HW113986   6.289  12.028   3.293 -1.2879 -1.3082  0.1718
31998SOL    HW213987   6.223  12.061   3.425 -0.0797  0.4715  0.3622
31999SOL     OW13988   8.571   9.119  12.653 -0.1936  0.1785  0.0628
31999SOL    HW113989   8.506   9.118  12.723 -1.1330  1.1004 -0.7674
31999SOL    HW213990   8.521   9.101  12.573  0.8021 -0.5307 -0.4271
32000SOL     OW13991   9.255   7.903   9.616  0.1141  0.1489  0.5052
32000SOL    HW113992   9.199   7.978   9.639  0.3193  1.0408 -1.7217
32000SOL    HW213993   9.285   7.921   9.527 -1.3227 -3.4506 -0.8935
32001SOL     OW13994   2.085   8.817   0.497 -0.0543  0.1111  0.0680
32001SOL    HW113995   2.094   8.867   0.416  2.0999 -1.1339 -0.5492
32001SOL    HW213996   2.138   8.865   0.561 -3.7001  2.4983  1.6116
32002SOL     OW13997  10.351   7.464   7.005  0.4505 -0.1660 -0.5506
32002SOL    HW113998  10.299   7.461   7.085 -0.3504  0.9091 -1.0028
32002SOL    HW213999  10.327   7.385   6.958  0.0332 -0.2091 -0.2692
32003SOL     OW14000  11.376  14.063   9.755 -0.1614  0.2513 -0.7421
32003SOL    HW114001  11.386  14.106   9.840  0.4311 -0.3433 -0.5115
32003SOL    HW214002  11.461  14.024   9.736  0.0078  1.1653 -2.0611
32004SOL     OW14003   8.443   6.963  13.077 -0.5408 -0.1930  0.0208
32004SOL    HW114004   8.418   6.998  13.162  0.1472  1.4564 -0.4132
32004SOL    HW214005   8.426   7.035  13.015  1.7198 -0.2780 -0.7964
32005SOL     OW14006   6.636   0.463  13.632 -0.0467 -0.5689 -0.0837
32005SOL    HW114007   6.648   0.558  13.637  0.5645 -0.6811  0.7940
32005SOL    HW214008   6.716   0.430  13.592 -0.2837 -0.7153 -0.4460
32006SOL     OW14009  13.473   9.566   3.712  0.2329  0.4343  0.4195
32006SOL    HW114010  13.382   9.552   3.740  0.0991 -1.0140 -0.6324
32006SOL    HW214011  13.506   9.479   3.693  1.3858  1.0642 -0.5985
32007SOL     OW14012  10.705  13.058  11.373 -0.2947  0.1573 -0.7850
32007SOL    HW114013  10.746  12.972  11.365  1.5055  0.9790 -0.7248
32007SOL    HW214014  10.708  13.077  11.466 -1.2777  0.0414 -0.7145
32008SOL     OW14015   7.699   0.055  12.879  0.2073  0.3012 -0.7054
32008SOL    HW114016   7.686   0.146  12.904  0.8412  0.4134 -0.7670
32008SOL    HW214017   7.782   0.054  12.832  1.3856 -0.6664  1.2768
32009SOL     OW14018  10.593   0.093  12.912  0.2931 -0.0897  0.3917
32009SOL    HW114019  10.662   0.085  12.977  1.0438  0.6966 -0.2877
32009SOL    HW214020  10.524   0.143  12.956  1.4342  1.8254  0.1317
32010SOL     OW14021  13.198   4.165   3.923 -0.2174  0.1990 -0.1426
32010SOL    HW114022  13.154   4.097   3.873  0.4727  0.3716 -1.0139
32010SOL    HW214023  13.128   4.223   3.952 -0.6478  0.0342 -0.8288
32011SOL     OW14024   2.794  10.509   5.552  0.8606 -0.0145 -0.3498
32011SOL    HW114025   2.780  10.452   5.628  0.2466  1.1693  0.4641
32011SOL    HW214026   2.877  10.553   5.569  0.5642  0.4951 -0.1913
32012SOL     OW14027  10.144   8.809  12.201 -0.3478  0.3315 -0.0030
32012SOL    HW114028  10.187   8.894  12.200  0.0487  0.1329 -0.3201
32012SOL    HW214029  10.204   8.751  12.153 -0.0444 -0.3979  1.2147
32013SOL     OW14030   3.913  12.978   0.897  0.0648 -0.2513  0.7116
32013SOL    HW114031   3.832  13.017   0.932 -0.0789 -0.5571  0.7187
32013SOL    HW214032   3.914  13.006   0.805 -0.3915 -0.7883  0.5327
32014SOL     OW14033   1.153   9.028   1.355  0.5703 -0.1188  0.1885
32014SOL    HW114034   1.189   8.943   1.380  0.8680 -0.0118  0.1278
32014SOL    HW214035   1.219   9.092   1.385  0.7131  0.0412 -0.4430
32015SOL     OW14036  11.171   4.353   2.951 -0.2716  0.3809 -0.0553
32015SOL    HW114037  11.218   4.411   2.891 -0.5027 -0.9218 -1.5563
32015SOL    HW214038  11.078   4.372   2.935 -0.3347  0.0706 -0.0604
32016SOL     OW14039  13.682   5.696  11.143  0.3763 -0.5681 -1.0143
32016SOL    HW114040  13.724   5.621  11.101 -0.6957 -1.7887  0.0075
32016SOL    HW214041  13.729   5.707  11.226 -0.7185 -1.3813 -0.2677
32017SOL     OW14042  12.116   6.686   5.093  0.0238  0.5573 -0.5840
32017SOL    HW114043  12.037   6.683   5.148  0.0372 -1.4556 -0.5691
32017SOL    HW214044  12.168   6.758   5.129  0.2736 -0.9512  2.4520
32018SOL     OW14045   9.992   8.815   9.561  0.2789  0.4293  0.0570
32018SOL    HW114046  10.055   8.831   9.631  0.0482  0.2987  0.2970
32018SOL    HW214047  10.010   8.726   9.531  0.2468  0.4126  0.0868
32019SOL     OW14048   3.054   3.616   3.642  0.3792  0.9259  0.7657
32019SOL    HW114049   2.962   3.639   3.629  0.2911  0.0123 -0.3474
32019SOL    HW214050   3.092   3.693   3.685 -0.6854  1.6953  0.3756
32020SOL     OW14051  11.611   5.513   9.750  0.0051 -0.1478 -0.5685
32020SOL    HW114052  11.660   5.431   9.744 -2.5184 -1.7374 -1.0858
32020SOL    HW214053  11.519   5.486   9.748 -0.9635  2.5627  1.4326
32021SOL     OW14054   5.826   2.559   3.125  0.6940 -0.3896 -0.2223
32021SOL    HW114055   5.784   2.565   3.210 -0.7557  0.3436 -0.9599
32021SOL    HW214056   5.821   2.647   3.089  0.2821 -0.9185 -1.5190
32022SOL     OW14057   4.296   9.301   9.844  0.8385 -0.6720  0.0311
32022SOL    HW114058   4.215   9.339   9.878  0.3367 -1.7770  0.0958
32022SOL    HW214059   4.329   9.247   9.915  2.2242  0.5840  0.4084
32023SOL     OW14060  12.674   5.334  11.822 -0.1895  0.1304  0.5713
32023SOL    HW114061  12.710   5.275  11.756 -0.2364 -0.3792  0.9961
32023SOL    HW214062  12.742   5.341  11.888  1.0146  2.8281 -0.7955
32024SOL     OW14063   4.174   0.976   2.222  0.4289  0.0922 -0.0481
32024SOL    HW114064   4.181   1.021   2.138  1.5387  0.7483  0.3729
32024SOL    HW214065   4.134   1.040   2.281  0.5441 -0.0206  0.1552
32025SOL     OW14066   9.772   7.865  11.816 -0.0801  0.4022 -0.0755
32025SOL    HW114067   9.787   7.849  11.909  1.3466 -0.0599 -0.3613
32025SOL    HW214068   9.716   7.792  11.788  0.2862  0.0013  0.2180
32026SOL     OW14069   1.995   9.226   9.726 -0.5418  0.1494 -0.5405
32026SOL    HW114070   2.030   9.313   9.739  1.0286 -0.3577 -1.1555
32026SOL    HW214071   1.919   9.221   9.785  0.1577  1.4369  0.5056
32027SOL     OW14072   5.836   0.837   2.194  0.1835  0.2342  0.1963
32027SOL    HW114073   5.741   0.826   2.203 -0.0488 -0.6713 -2.4515
32027SOL    HW214074   5.873   0.760   2.237 -0.4862 -0.9300 -1.2023
32028SOL     OW14075   5.774   1.649   2.704 -0.1582 -0.1794  0.4384
32028SOL    HW114076   5.852   1.658   2.759  0.5875  2.4574 -0.8952
32028SOL    HW214077   5.805   1.605   2.625  0.8886  3.5773 -1.4535
32029SOL     OW14078   1.462   5.585   9.212 -0.3914  0.5659 -0.0316
32029SOL    HW114079   1.434   5.493   9.210  1.5514 -0.0746 -2.4986
32029SOL    HW214080   1.531   5.587   9.278  1.1551 -0.3584 -1.5313
32030SOL     OW14081   3.391   8.052   7.745  0.1552 -0.0367 -0.2866
32030SOL    HW114082   3.435   8.116   7.801  0.4306 -1.5969  1.3644
32030SOL    HW214083   3.398   7.970   7.792 -0.7102 -1.1995 -2.0721
32031SOL     OW14084  13.740   9.010   7.202 -0.2011 -0.1029  0.1348
32031SOL    HW114085  13.774   8.923   7.223 -0.4517 -0.0212  0.9224
32031SOL    HW214086  13.701   9.041   7.284 -0.1178  0.7523 -0.1362
32032SOL     OW14087   7.456   1.074   7.055 -0.6922  0.0389  0.0228
32032SOL    HW114088   7.363   1.084   7.075 -0.5084  2.2490  0.0124
32032SOL    HW214089   7.494   1.160   7.074  1.4212 -0.9171  0.3475
32033SOL     OW14090   6.287   2.881  13.225  0.0239  0.0000 -0.3883
32033SOL    HW114091   6.257   2.807  13.278  1.4489 -0.0919  0.3255
32033SOL    HW214092   6.337   2.840  13.154  0.8529  0.2545  0.0309
32034SOL     OW14093   0.758  13.359   1.326  0.2604  0.5080  0.3388
32034SOL    HW114094   0.690  13.425   1.339  0.6868  0.7759  1.3412
32034SOL    HW214095   0.804  13.387   1.247  0.1456  1.1520  0.4943
32035SOL     OW14096   7.228   8.570   8.902  0.3851 -0.2304 -0.2763
32035SOL    HW114097   7.171   8.647   8.909  1.1905  0.2707  1.0322
32035SOL    HW214098   7.311   8.597   8.940  2.0404 -0.5153 -3.3813
32036SOL     OW14099   2.233  13.351  11.836  0.0465 -0.2451 -0.3498
32036SOL    HW114100   2.199  13.435  11.868  2.6827  0.2934  1.3724
32036SOL    HW214101   2.184  13.285  11.885 -1.8785  0.2110 -1.5391
32037SOL     OW14102   3.894   6.063   0.702  0.1832  0.1002 -0.1831
32037SOL    HW114103   3.890   6.092   0.611 -0.1696  0.5670 -0.0211
32037SOL    HW214104   3.979   6.095   0.733 -0.2468  1.0833  0.0261
32038SOL     OW14105  10.934  13.985   9.459 -0.2182  0.0655 -0.0401
32038SOL    HW114106  10.968  13.986   9.370  2.3938 -1.6631  0.8224
32038SOL    HW214107  11.002  14.029   9.511 -1.2559  0.2219  1.2348
32039SOL     OW14108   1.884   8.406   8.033 -0.0186 -0.2273 -0.1432
32039SOL    HW114109   1.911   8.462   7.960  1.9343  0.0092  0.6992
32039SOL    HW214110   1.955   8.413   8.096 -1.2868 -1.0565  1.4586
32040SOL     OW14111   2.445   1.469  12.153  0.6558 -0.1619 -0.4698
32040SOL    HW114112   2.466   1.553  12.192 -0.0162 -0.3841  0.4023
32040SOL    HW214113   2.527   1.421  12.152  0.5390 -0.4667  1.4815
32041SOL     OW14114   9.020   3.469   2.419  0.4801 -0.4321  0.1249
32041SOL    HW114115   9.051   3.539   2.363 -0.9458 -0.3376 -0.5992
32041SOL    HW214116   9.081   3.397   2.404  1.3212  0.2796  0.0514
32042SOL     OW14117  12.883   1.471  12.519 -0.1844  0.1242  0.3655
32042SOL    HW114118  12.924   1.479  12.433 -0.0710 -0.9905  0.2983
32042SOL    HW214119  12.856   1.379  12.524 -2.1929  0.6817  0.6385
32043SOL     OW14120  12.321   3.390   4.595  0.0913  0.2623  0.4766
32043SOL    HW114121  12.298   3.361   4.507  1.5066  0.0862  0.1436
32043SOL    HW214122  12.358   3.477   4.583 -1.5384  1.1072  1.1561
32044SOL     OW14123   0.889   8.841   7.916  0.4262  0.4783  0.1702
32044SOL    HW114124   0.900   8.780   7.843  1.8190  0.0399  0.7250
32044SOL    HW214125   0.922   8.794   7.992  0.5828  1.5503  0.7845
32045SOL     OW14126  11.291   7.534  13.105 -0.0516  0.2380  0.1255
32045SOL    HW114127  11.329   7.484  13.033  1.0721  0.7856  0.3257
32045SOL    HW214128  11.208   7.566  13.071 -0.2618 -0.8036 -0.3915
32046SOL     OW14129  11.173   8.796   5.476 -0.5850  0.4801 -0.1162
32046SOL    HW114130  11.176   8.784   5.381  0.6182 -0.3492  0.0054
32046SOL    HW214131  11.258   8.835   5.498  1.4283 -3.9223  1.1395
32047SOL     OW14132  11.971   7.588   3.881  0.6387  0.4055 -0.3383
32047SOL    HW114133  12.064   7.576   3.894  1.0277  0.4430 -2.6405
32047SOL    HW214134  11.965   7.661   3.819 -0.8452 -0.2339 -1.0017
32048SOL     OW14135   6.678   4.884  10.931  0.5361  0.1154  0.0014
32048SOL    HW114136   6.764   4.885  10.972  1.1493 -0.3613 -1.2031
32048SOL    HW214137   6.676   4.964  10.878  0.8243 -0.5513 -1.0583
32049SOL     OW14138   1.322  11.164   0.308 -0.0934  0.2773 -0.4994
32049SOL    HW114139   1.315  11.131   0.397  0.2879 -0.8475 -0.8575
32049SOL    HW214140   1.312  11.259   0.316 -2.0029  0.0392  0.5068
32050SOL     OW14141  11.905   1.650   4.627  0.1425 -0.2170  0.4727
32050SOL    HW114142  11.864   1.708   4.692  1.9625  1.3906  0.3180
32050SOL    HW214143  11.899   1.563   4.666 -0.1428  0.4880  2.1273
32051SOL     OW14144   4.915   1.493  13.240  0.1323  0.3766  0.1109
32051SOL    HW114145   4.827   1.501  13.277 -0.2639 -1.5419 -0.3109
32051SOL    HW214146   4.973   1.484  13.316 -0.5232 -2.2023  0.3918
32052SOL     OW14147  10.363   7.486  12.936  0.3852  0.2458 -0.0018
32052SOL    HW114148  10.343   7.448  12.851 -0.6871 -1.1056  0.8024
32052SOL    HW214149  10.449   7.450  12.959  1.7729  2.4201 -1.4540
32053SOL     OW14150  10.196  13.609   8.026  0.3083  0.2233 -0.0592
32053SOL    HW114151  10.271  13.624   7.968 -0.9026  1.1000 -1.4782
32053SOL    HW214152  10.190  13.514   8.034  1.7453  0.1489  0.3410
32054SOL     OW14153   2.761  11.791  13.493  0.0276 -0.5072  0.4711
32054SOL    HW114154   2.844  11.763  13.533 -0.1954 -0.9684  0.6191
32054SOL    HW214155   2.722  11.851  13.556  1.0078  1.0103 -0.3077
32055SOL     OW14156   8.460   7.333   7.943 -0.3150 -0.3585  0.1608
32055SOL    HW114157   8.553   7.328   7.966  0.1201 -0.4898 -1.4495
32055SOL    HW214158   8.416   7.360   8.023  1.2827  0.9953  0.6254
32056SOL     OW14159  10.138   2.871   6.967  0.0277  0.7643  0.0190
32056SOL    HW114160  10.229   2.842   6.973  0.1983  1.4399  1.0483
32056SOL    HW214161  10.096   2.833   7.044 -0.2937  1.3226  0.1258
32057SOL     OW14162   7.149   0.371  12.776 -0.0587  0.1315 -0.3796
32057SOL    HW114163   7.150   0.279  12.804  1.9032  0.3080  0.2871
32057SOL    HW214164   7.224   0.410  12.821 -0.5390  1.9457 -1.0819
32058SOL     OW14165  11.289   2.307   5.089  0.3762 -0.2725  0.0350
32058SOL    HW114166  11.227   2.311   5.162  1.7769 -0.8107  1.2946
32058SOL    HW214167  11.243   2.257   5.021 -1.2005  0.7938  0.2569
32059SOL     OW14168   4.443   9.701  10.414 -0.6406 -0.4087  0.1145
32059SOL    HW114169   4.435   9.780  10.468  1.5530 -0.0265 -0.0505
32059SOL    HW214170   4.517   9.718  10.356  0.4572 -2.9049  0.6454
32060SOL     OW14171  10.628   5.367  10.656 -0.4512 -0.1944  0.2653
32060SOL    HW114172  10.535   5.389  10.651 -0.8546 -1.8042  0.2140
32060SOL    HW214173  10.634   5.281  10.616  1.2909  0.4451 -0.9703
32061SOL     OW14174  12.662   7.222   7.439 -0.2177 -0.1649 -0.4373
32061SOL    HW114175  12.691   7.185   7.356  0.5961  1.6951 -1.0285
32061SOL    HW214176  12.576   7.261   7.419 -0.4583 -0.5341 -0.1486
32062SOL     OW14177  10.987  12.509   8.489 -0.2560 -0.8012 -0.4755
32062SOL    HW114178  11.066  12.564   8.494 -1.8575  1.5825  1.4241
32062SOL    HW214179  11.010  12.438   8.430  3.1538  0.0193 -0.3240
32063SOL     OW14180   3.918  12.108   6.274 -0.5865 -0.1002  0.9802
32063SOL    HW114181   3.968  12.026   6.284 -0.1158 -0.0581 -0.8115
32063SOL    HW214182   3.984  12.173   6.249 -1.4877 -0.0205 -1.3419
32064SOL     OW14183   5.723   9.817   1.350 -0.2432  0.3090 -0.5737
32064SOL    HW114184   5.672   9.755   1.297 -1.2575 -0.2726  1.0196
32064SOL    HW214185   5.659   9.855   1.410  0.8292  1.1482  0.0653
32065SOL     OW14186   2.587   7.271   5.723 -0.3910  0.3515 -0.0691
32065SOL    HW114187   2.642   7.253   5.647  1.4274  0.7754  1.0792
32065SOL    HW214188   2.558   7.362   5.710 -0.3049  0.3387 -0.3732
32066SOL     OW14189   3.636   6.331   0.178  0.3293  0.2270 -0.4252
32066SOL    HW114190   3.546   6.339   0.149 -0.2196 -0.1418  1.0808
32066SOL    HW214191   3.645   6.393   0.250  0.2373 -2.0118  1.6781
32067SOL     OW14192  12.103   0.830  11.347  0.2208 -0.2347  0.2936
32067SOL    HW114193  12.189   0.792  11.366  0.0045  0.1929  2.4075
32067SOL    HW214194  12.048   0.802  11.421 -1.3787 -0.2170 -0.8476
32068SOL     OW14195   9.211   2.787   8.814 -0.1074 -0.0075 -0.1344
32068SOL    HW114196   9.117   2.799   8.831 -0.3806 -0.7292 -1.0455
32068SOL    HW214197   9.234   2.710   8.866  0.1456  0.5748  0.6265
32069SOL     OW14198   9.004   9.821   3.764  0.3743  0.7938  0.0992
32069SOL    HW114199   8.983   9.858   3.850  2.8629  1.5990  0.4707
32069SOL    HW214200   9.008   9.896   3.705 -0.5854  0.3358 -0.5719
32070SOL     OW14201   8.811  13.231  11.259 -0.0616  0.1805 -0.1493
32070SOL    HW114202   8.853  13.163  11.206 -0.5865 -0.3252  0.0764
32070SOL    HW214203   8.840  13.213  11.348 -2.3370 -1.4348  0.3334
32071SOL     OW14204   2.218   1.579   9.920 -0.8211 -0.3535 -0.0047
32071SOL    HW114205   2.143   1.519   9.929 -2.0484  1.0570 -0.3668
32071SOL    HW214206   2.255   1.558   9.835  0.0518 -1.9413  0.7075
32072SOL     OW14207  13.504   5.872  10.572  0.1156  0.2758  0.2352
32072SOL    HW114208  13.445   5.940  10.603 -0.2573 -0.0206  0.1830
32072SOL    HW214209  13.531   5.825  10.651 -0.6624 -0.3411  0.1492
32073SOL     OW14210   7.088  13.596  12.799 -0.2520 -0.1542  0.3508
32073SOL    HW114211   7.130  13.510  12.809 -0.5859 -0.3925 -0.2471
32073SOL    HW214212   7.011  13.591  12.856  0.7163  0.4297  1.7681
32074SOL     OW14213  10.104   7.045   7.920  0.0572  0.8884  0.2746
32074SOL    HW114214  10.192   7.013   7.935  0.0809  0.5556 -0.5098
32074SOL    HW214215  10.071   7.069   8.007  0.6153  0.2364  0.6704
32075SOL     OW14216  13.541   5.782   7.979 -0.3839  0.2047 -0.5103
32075SOL    HW114217  13.594   5.841   7.924  0.3595  2.0084  1.9925
32075SOL    HW214218  13.464   5.833   8.003 -1.0346 -0.7960 -0.3961
32076SOL     OW14219   2.751  14.100   6.539  0.1082 -0.3075 -0.2280
32076SOL    HW114220   2.692  14.029   6.565 -0.0911  0.4465  1.5553
32076SOL    HW214221   2.700  14.180   6.554  1.7245  0.4117  2.0334
32077SOL     OW14222  13.587   6.725  10.639  0.4300 -0.4785 -0.0657
32077SOL    HW114223  13.661   6.784  10.653  0.4209 -0.7448  1.2327
32077SOL    HW214224  13.511   6.783  10.628  0.6000 -0.2339  0.0510
32078SOL     OW14225   7.026  11.316   5.513 -0.4723 -0.0990  0.0640
32078SOL    HW114226   7.120  11.330   5.524 -0.2668 -1.2489 -0.1016
32078SOL    HW214227   7.007  11.351   5.426 -0.4872  1.3990  0.6426
32079SOL     OW14228   1.611  10.856   4.560 -0.3979  0.7272 -0.5386
32079SOL    HW114229   1.637  10.881   4.649  0.3493 -0.8210 -0.2824
32079SOL    HW214230   1.691  10.866   4.508 -0.6736  1.0356 -0.9074
32080SOL     OW14231   4.100   7.101   0.316 -0.0721 -0.6376 -0.1646
32080SOL    HW114232   4.178   7.097   0.372 -0.4224  1.4691  0.5797
32080SOL    HW214233   4.029   7.065   0.369 -0.8864  3.3809  1.8364
32081SOL     OW14234   9.902  10.055  11.132  0.8663 -0.1541  0.1220
32081SOL    HW114235   9.811  10.065  11.158  1.3653  0.7834  1.6636
32081SOL    HW214236   9.944  10.013  11.207  1.8170  0.0064 -0.3085
32082SOL     OW14237  13.460   2.551   8.084 -0.4442 -0.0948  0.1239
32082SOL    HW114238  13.408   2.481   8.124 -2.4134  0.5295 -1.1802
32082SOL    HW214239  13.423   2.560   7.996  1.3489  1.0068 -0.5766
32083SOL     OW14240   7.841   7.092   0.435 -0.3086  0.6182 -0.3289
32083SOL    HW114241   7.749   7.105   0.412 -0.2438  1.2685 -0.2210
32083SOL    HW214242   7.890   7.125   0.359 -0.1800 -3.0635 -2.0866
32084SOL     OW14243   0.152   7.484   1.715 -0.0155 -0.1594  0.1622
32084SOL    HW114244   0.098   7.558   1.744 -0.7446 -0.2130 -0.9839
32084SOL    HW214245   0.161   7.497   1.621  1.3843 -0.5554  0.2192
32085SOL     OW14246  11.586   9.924   6.706 -0.3653  0.3099 -0.1217
32085SOL    HW114247  11.505   9.871   6.707 -0.5089  0.5281  0.8246
32085SOL    HW214248  11.655   9.861   6.726 -0.4501  0.3370  0.2690
32086SOL     OW14249   2.196  11.511   1.558 -0.7963  0.0800 -0.3221
32086SOL    HW114250   2.279  11.532   1.517 -0.2403 -1.0983  0.1399
32086SOL    HW214251   2.180  11.582   1.620  0.5384 -0.3268  0.5244
32087SOL     OW14252   6.175   8.185   2.770  0.2482 -0.6926 -1.0965
32087SOL    HW114253   6.114   8.164   2.699 -1.5666  0.8327 -0.0924
32087SOL    HW214254   6.236   8.248   2.732  1.2212 -2.1815 -2.0976
32088SOL     OW14255   2.804   5.519   7.854  0.4983 -0.3401  0.3419
32088SOL    HW114256   2.791   5.489   7.944 -3.2132 -0.5482 -0.0722
32088SOL    HW214257   2.736   5.586   7.841  2.6192  1.6533 -1.5714
32089SOL     OW14258   7.966   8.087   7.738 -0.3086 -0.0878 -0.4409
32089SOL    HW114259   7.975   8.011   7.681 -0.4934  0.4555 -1.2089
32089SOL    HW214260   7.909   8.058   7.809 -0.4595 -0.6372 -0.7857
32090SOL     OW14261   1.795  11.693  11.913 -0.1906  0.0873 -0.3020
32090SOL    HW114262   1.790  11.607  11.870 -0.0493  1.2479 -2.8479
32090SOL    HW214263   1.703  11.718  11.927 -0.4294  0.9990 -2.9414
32091SOL     OW14264   9.335   5.120   9.343 -0.5050 -0.0069  0.4560
32091SOL    HW114265   9.249   5.161   9.332 -0.3078 -0.1453 -2.4480
32091SOL    HW214266   9.314   5.028   9.363 -1.0705 -0.0998 -0.4845
32092SOL     OW14267   2.905   2.388  13.114  0.1801 -0.1102  0.1276
32092SOL    HW114268   2.961   2.448  13.163  1.1019 -1.7005  1.0992
32092SOL    HW214269   2.869   2.328  13.180  0.5803 -1.6322 -0.9786
32093SOL     OW14270   2.811  13.281  12.783  0.3286 -0.3548  0.2845
32093SOL    HW114271   2.770  13.267  12.698 -1.6229  0.8941  0.9634
32093SOL    HW214272   2.878  13.212  12.789  0.5162 -0.4863 -2.2151
32094SOL     OW14273   4.637  11.531   2.035  0.0683  0.1415 -0.0045
32094SOL    HW114274   4.727  11.549   2.010  0.2191 -1.1948 -0.4872
32094SOL    HW214275   4.622  11.440   2.010 -1.2770  0.1997  0.4739
32095SOL     OW14276  12.643  10.528   7.715  0.2248 -0.6570 -0.0485
32095SOL    HW114277  12.675  10.529   7.805 -0.9721 -1.7357  0.4122
32095SOL    HW214278  12.548  10.531   7.723  0.1055  0.7315 -1.3373
32096SOL     OW14279  14.047   8.854   1.421  0.6196  0.0702  0.1487
32096SOL    HW114280  14.020   8.777   1.372 -0.4943  0.0121  0.8161
32096SOL    HW214281  14.142   8.857   1.412  0.5310 -0.5083 -1.1412
32097SOL     OW14282  11.842   8.517   0.116 -0.0337  0.5665 -0.0486
32097SOL    HW114283  11.893   8.508   0.197 -0.0891 -1.0734 -0.1705
32097SOL    HW214284  11.761   8.470   0.133  0.5060 -0.9596 -1.5017
32098SOL     OW14285   6.645   1.420  11.829  0.5628  0.0473 -0.0311
32098SOL    HW114286   6.577   1.398  11.892  0.6803  1.4632  0.6478
32098SOL    HW214287   6.727   1.406  11.877  0.6388  1.8556  0.4435
32099SOL     OW14288   7.576   5.414  13.821 -0.7151  0.2377  0.4814
32099SOL    HW114289   7.592   5.354  13.748  1.4628 -0.3267  1.3489
32099SOL    HW214290   7.640   5.484  13.809 -0.5330  0.2986  1.6599
32100SOL     OW14291   2.775   3.827   7.741 -0.4638  0.5219 -0.7591
32100SOL    HW114292   2.758   3.769   7.667 -1.8567  0.6223 -0.5326
32100SOL    HW214293   2.718   3.902   7.726 -0.7649  0.5373  0.4232
32101SOL     OW14294  12.769  14.078   4.367  0.3882 -0.2561 -0.6268
32101SOL    HW114295  12.864  14.063   4.358  0.1847 -0.8139 -2.0513
32101SOL    HW214296  12.760  14.124   4.451  1.8477 -0.8621 -0.1048
32102SOL     OW14297  12.825   3.565  13.344  0.6680  0.0206 -0.5180
32102SOL    HW114298  12.875   3.541  13.266  0.0251  0.1294 -0.9628
32102SOL    HW214299  12.740   3.595  13.311 -0.6229 -2.4246  0.3120
32103SOL     OW14300   9.532   5.695  13.912  0.7358  0.0153  0.5860
32103SOL    HW114301   9.551   5.627  13.848  0.8939 -2.2791  2.9064
32103SOL    HW214302   9.447   5.671  13.948  1.2821  0.3976  2.2157
32104SOL     OW14303   1.200   2.762  10.466 -0.4240  0.0847  0.1999
32104SOL    HW114304   1.116   2.717  10.470  0.7093 -2.0620  2.0609
32104SOL    HW214305   1.244   2.740  10.548  1.4697  2.2007 -0.1188
32105SOL     OW14306   6.287  11.501   6.944  0.0555 -0.2167  0.0710
32105SOL    HW114307   6.220  11.445   6.983 -1.4794  0.6325 -1.2006
32105SOL    HW214308   6.365  11.445   6.938 -0.8867 -1.6273  0.4758
32106SOL     OW14309   8.429  14.062   1.217  0.8218  0.0877  0.9436
32106SOL    HW114310   8.348  14.066   1.167  2.0054 -1.0846 -1.2107
32106SOL    HW214311   8.458  14.153   1.224 -0.0881  0.4013  0.7424
32107SOL     OW14312   9.201   2.995  12.040  0.0869  0.2280 -0.4684
32107SOL    HW114313   9.246   2.942  12.106 -0.4769 -1.1471 -1.1447
32107SOL    HW214314   9.261   2.997  11.966  0.0203  0.3851 -0.5196
32108SOL     OW14315   6.494   1.373   5.469  0.5484 -0.0369  0.3070
32108SOL    HW114316   6.403   1.400   5.476  1.0507  1.8296  0.3293
32108SOL    HW214317   6.536   1.443   5.420  1.7341 -1.5098 -0.8721
32109SOL     OW14318   5.058  12.207  12.155  0.3904 -0.5355 -0.0156
32109SOL    HW114319   5.128  12.267  12.181 -0.1772  0.5728 -0.9465
32109SOL    HW214320   4.993  12.214  12.225 -0.1515  0.7706 -0.6203
32110SOL     OW14321  10.127   0.499   0.317  0.6649 -0.0307  0.4640
32110SOL    HW114322  10.220   0.516   0.304  0.5359  0.7747  0.5273
32110SOL    HW214323  10.098   0.568   0.377 -0.1533  0.2562 -0.2319
32111SOL     OW14324   2.996   1.797  14.126  0.1556 -0.2626  0.3173
32111SOL    HW114325   2.956   1.794  14.040 -1.0507  0.4897  0.8359
32111SOL    HW214326   3.074   1.741  14.118  0.0824 -0.1794 -1.2475
32112SOL     OW14327   2.585   2.039  11.296  0.6626  0.2611 -0.1290
32112SOL    HW114328   2.544   2.029  11.210 -1.6967  0.1033  0.9592
32112SOL    HW214329   2.668   2.083  11.277  2.1640 -3.2270 -2.9066
32113SOL     OW14330   5.318   4.721  13.271  0.1183  0.1064  0.3186
32113SOL    HW114331   5.257   4.737  13.199  1.2601  1.5651 -0.3756
32113SOL    HW214332   5.363   4.640  13.246 -1.2994 -0.8414  0.7149
32114SOL     OW14333   7.754   2.295   4.824  0.2042  0.0689 -0.2101
32114SOL    HW114334   7.755   2.239   4.746  1.5191  1.5264 -1.2906
32114SOL    HW214335   7.806   2.247   4.889  2.4844  0.5633 -1.5710
32115SOL     OW14336   9.202   3.164   7.951 -0.2619 -0.5655 -0.0252
32115SOL    HW114337   9.188   3.082   7.999  1.7406 -1.6602 -1.1886
32115SOL    HW214338   9.121   3.178   7.903 -1.6096 -0.4259  2.1625
32116SOL     OW14339   7.142  10.165  13.124 -0.2109  0.2198 -0.0143
32116SOL    HW114340   7.195  10.197  13.051 -0.0752 -1.0963 -0.5141
32116SOL    HW214341   7.137  10.240  13.184 -1.4182  1.7716 -1.9271
32117SOL     OW14342   8.046   9.443   1.354  0.1210 -0.1019 -0.3187
32117SOL    HW114343   7.998   9.458   1.273 -2.2569 -0.1026  0.9834
32117SOL    HW214344   8.107   9.372   1.334 -0.0069  0.2881 -2.2256
32118SOL     OW14345   9.102   2.694  12.081  0.1266 -0.2215  0.3184
32118SOL    HW114346   9.013   2.662  12.064 -0.0790  0.3247  0.3433
32118SOL    HW214347   9.099   2.786  12.056  0.8499 -0.3479 -0.2221
32119SOL     OW14348  10.675   8.660   9.318 -0.5820 -0.5688 -0.0001
32119SOL    HW114349  10.700   8.568   9.323 -1.5153 -0.7888  2.3730
32119SOL    HW214350  10.752   8.705   9.286  2.5494 -1.3966  5.1481
32120SOL     OW14351   2.033  10.122  13.906  0.1569 -0.5658  0.1327
32120SOL    HW114352   1.955  10.067  13.906 -0.5068  0.3188 -0.5910
32120SOL    HW214353   2.052  10.135  13.813  1.0958 -0.6743  0.3072
32121SOL     OW14354   7.564  13.131   5.310  0.7945 -0.1595  0.3012
32121SOL    HW114355   7.545  13.224   5.297 -0.3663  0.0043  2.6259
32121SOL    HW214356   7.612  13.128   5.393  3.1748 -1.4534 -1.0204
32122SOL     OW14357  13.582  12.111  12.361  0.0215 -0.5091 -0.7929
32122SOL    HW114358  13.532  12.029  12.365  1.6006 -1.4696  1.7561
32122SOL    HW214359  13.531  12.173  12.414  0.1834 -0.6974 -0.4108
32123SOL     OW14360   0.012   6.486   1.619 -0.0350 -0.2028  0.6459
32123SOL    HW114361  -0.039   6.559   1.584  0.3671 -0.2727 -0.1043
32123SOL    HW214362   0.103   6.516   1.615  0.1965 -0.9825 -0.2955
32124SOL     OW14363   4.198  11.070  13.990 -0.3163  0.5547  0.0340
32124SOL    HW114364   4.281  11.118  13.994 -0.9369  1.6674  0.0616
32124SOL    HW214365   4.216  10.987  14.033  0.7459  0.8438  0.1703
32125SOL     OW14366   3.086   3.074   6.231 -0.2108  0.6754 -0.6432
32125SOL    HW114367   3.179   3.074   6.255  0.0602 -2.9843 -1.1645
32125SOL    HW214368   3.085   3.105   6.141  0.3474  1.5851 -0.3574
32126SOL     OW14369  11.143   1.432   0.286 -0.2203  0.1537 -1.2480
32126SOL    HW114370  11.068   1.387   0.247 -1.2463  0.0427  0.7232
32126SOL    HW214371  11.175   1.371   0.353 -0.4651  1.5453  0.2031
32127SOL     OW14372  12.992   4.376   0.049 -0.3497 -0.6180 -0.3322
32127SOL    HW114373  12.945   4.455   0.071 -0.6750 -0.8381 -0.2301
32127SOL    HW214374  13.038   4.396  -0.032 -0.0031 -0.1545 -0.0279
32128SOL     OW14375  11.846  13.964   1.391  0.3993 -0.4623  0.0905
32128SOL    HW114376  11.824  13.905   1.464  0.0294 -0.1364  0.2516
32128SOL    HW214377  11.792  14.042   1.407  0.3533 -0.3669 -0.5067
32129SOL     OW14378  13.296  13.291   0.220  0.7066 -0.3662 -0.2598
32129SOL    HW114379  13.363  13.348   0.259  0.6471 -1.4638  1.5634
32129SOL    HW214380  13.237  13.271   0.292  0.1847 -1.9614 -1.0789
32130SOL     OW14381   3.472   8.850   7.450 -0.1384 -0.2043 -0.0300
32130SOL    HW114382   3.535   8.778   7.457 -1.0442 -1.0223  0.0749
32130SOL    HW214383   3.525   8.928   7.440  0.8773 -0.9102 -0.3099
32131SOL     OW14384  11.688   3.640  11.995 -0.0166 -0.2807  0.4807
32131SOL    HW114385  11.769   3.656  11.947  0.6250  0.5282  1.8032
32131SOL    HW214386  11.620   3.638  11.927  0.8174  1.1490 -0.4412
32132SOL     OW14387   8.940   6.650   0.617  0.2405 -0.1150  0.4951
32132SOL    HW114388   8.969   6.693   0.698  0.3740 -0.4524  0.6285
32132SOL    HW214389   8.917   6.722   0.559 -1.0799  0.1204  1.2792
32133SOL     OW14390   3.404   7.264  14.155  0.5581  0.2685  0.0193
32133SOL    HW114391   3.398   7.327  14.084  0.1702 -0.1337 -0.3122
32133SOL    HW214392   3.408   7.318  14.234 -1.0848  0.7139 -0.1632
32134SOL     OW14393  11.242  10.310   7.644  0.3725 -0.2040  0.1913
32134SOL    HW114394  11.213  10.358   7.722 -1.2961 -0.6792 -0.1061
32134SOL    HW214395  11.244  10.218   7.672  0.0900 -0.3417 -0.2333
32135SOL     OW14396   3.570   1.906   4.142 -0.1734 -0.0793 -0.3611
32135SOL    HW114397   3.611   1.992   4.154 -0.7246  0.4726 -2.1449
32135SOL    HW214398   3.643   1.845   4.136  0.2504  0.3948 -0.0984
32136SOL     OW14399   8.813  13.997   1.656 -0.0796  0.0385 -0.4763
32136SOL    HW114400   8.894  13.975   1.610  0.0780 -2.8255  0.9812
32136SOL    HW214401   8.828  13.970   1.746 -2.4682 -0.0865 -0.0496
32137SOL     OW14402  13.096  10.852   1.107 -0.1093 -0.0465 -0.0290
32137SOL    HW114403  13.057  10.908   1.174  3.4161  2.0519  0.5262
32137SOL    HW214404  13.173  10.814   1.149  0.6816 -0.8810 -2.0801
32138SOL     OW14405   9.715  13.394   4.158  0.3965  0.0453  0.0813
32138SOL    HW114406   9.771  13.452   4.106  1.9605 -0.1076  1.5092
32138SOL    HW214407   9.741  13.306   4.130  0.2264 -0.0186  0.1249
32139SOL     OW14408  11.747   1.808  13.003  0.2991 -0.1427  0.3695
32139SOL    HW114409  11.816   1.860  13.045 -1.2761  0.2456  2.6336
32139SOL    HW214410  11.728   1.738  13.066 -1.5393 -0.0837 -0.0633
32140SOL     OW14411  11.032   9.211   9.771  0.1138 -0.2851  0.0245
32140SOL    HW114412  10.940   9.206   9.743 -0.5723 -1.2558  2.2796
32140SOL    HW214413  11.054   9.303   9.761 -1.2758  0.0645 -0.0851
32141SOL     OW14414  11.309   7.252   2.579  0.1901 -0.0820 -0.4884
32141SOL    HW114415  11.354   7.283   2.657 -1.4054 -0.3120  0.5735
32141SOL    HW214416  11.337   7.161   2.569 -0.8320 -0.5670  0.8098
32142SOL     OW14417   8.393   6.316  10.666  0.0173 -0.2558  0.2732
32142SOL    HW114418   8.429   6.359  10.588 -0.9817  0.2020  0.0507
32142SOL    HW214419   8.457   6.333  10.735  2.0186 -2.4800 -0.9033
32143SOL     OW14420  12.838   1.152   4.011  0.1250  0.6846 -0.1916
32143SOL    HW114421  12.890   1.229   4.032  0.8217 -0.5163  2.9810
32143SOL    HW214422  12.754   1.167   4.055  0.0602 -0.1205 -0.0327
32144SOL     OW14423   6.970   6.217   9.141  0.0457 -0.2562 -0.1990
32144SOL    HW114424   7.038   6.283   9.151  0.2423 -0.3292 -0.9855
32144SOL    HW214425   6.920   6.222   9.222  0.3303  0.5469 -0.0617
32145SOL     OW14426  13.700   0.009  12.171 -0.2867 -0.2173 -0.0465
32145SOL    HW114427  13.635  -0.005  12.239 -0.8788 -1.8736 -0.8827
32145SOL    HW214428  13.781  -0.026  12.207 -0.4707 -0.5623  0.0388
32146SOL     OW14429   5.465  10.096   0.435 -0.0441 -0.0686 -0.4177
32146SOL    HW114430   5.417  10.042   0.499 -0.9074  0.9947 -0.1398
32146SOL    HW214431   5.530  10.143   0.486  0.6915 -0.8041 -0.6572
32147SOL     OW14432  13.197  12.847  12.670 -0.1009 -0.1471  0.0455
32147SOL    HW114433  13.144  12.902  12.612 -0.3096 -1.0264 -0.6150
32147SOL    HW214434  13.164  12.758  12.656 -0.4264 -0.3398  1.8250
32148SOL     OW14435   2.575   7.561   0.982 -0.7169  0.3125  0.0385
32148SOL    HW114436   2.525   7.603   0.912  0.0980  1.3922  0.0657
32148SOL    HW214437   2.553   7.611   1.061  0.5257  0.9626  0.0093
32149SOL     OW14438   0.789  11.166   6.327  0.7109  0.3730 -0.0998
32149SOL    HW114439   0.780  11.074   6.350 -0.5301  0.3568 -0.5670
32149SOL    HW214440   0.849  11.166   6.252 -1.6250 -0.4351 -2.1276
32150SOL     OW14441  10.457   8.110   5.291 -0.5357  0.2841  0.3792
32150SOL    HW114442  10.397   8.158   5.235  0.5355 -0.2056 -1.2506
32150SOL    HW214443  10.441   8.018   5.270 -0.6833  0.0355  1.4944
32151SOL     OW14444   6.178  11.416   1.394  0.1084  0.3746  0.5559
32151SOL    HW114445   6.238  11.483   1.424  0.5957  0.3481 -0.3436
32151SOL    HW214446   6.136  11.384   1.474 -0.0003  1.6066  1.0107
32152SOL     OW14447   8.198  10.589  13.226 -0.0686  0.1916  0.2222
32152SOL    HW114448   8.232  10.572  13.314  0.0719 -1.1512 -0.0711
32152SOL    HW214449   8.250  10.663  13.194 -0.3280  0.8949  1.3714
32153SOL     OW14450  13.381   6.432  10.225 -0.4100 -0.2818 -0.0493
32153SOL    HW114451  13.434   6.491  10.278  1.0556 -1.8344  0.3094
32153SOL    HW214452  13.407   6.450  10.135 -0.9584  0.5276 -0.0521
32154SOL     OW14453   6.828  10.097   5.936 -1.1951  0.6080  0.4665
32154SOL    HW114454   6.789  10.038   6.000  1.0811 -1.0594  0.4343
32154SOL    HW214455   6.777  10.083   5.856 -0.9906 -0.9781  0.5957
32155SOL     OW14456   0.299   7.131   6.468 -0.2310  0.6937 -0.0748
32155SOL    HW114457   0.306   7.221   6.436  0.5353  0.4522 -0.5934
32155SOL    HW214458   0.389   7.099   6.473 -0.4684  0.0759  0.4793
32156SOL     OW14459   9.305  10.427  13.051  0.4355  0.0327  0.0373
32156SOL    HW114460   9.390  10.386  13.039 -0.1892 -1.8237  1.4580
32156SOL    HW214461   9.307  10.462  13.140 -0.5974 -1.0025  0.5117
32157SOL     OW14462   0.277  12.869  11.806  0.9869 -0.0851 -0.3632
32157SOL    HW114463   0.292  12.845  11.715  0.5179 -0.8425 -0.2477
32157SOL    HW214464   0.212  12.940  11.801 -0.0497 -1.0235 -0.5711
32158SOL     OW14465   4.296  12.981  13.124  0.0157  0.3963  0.1662
32158SOL    HW114466   4.302  13.060  13.177 -0.3973  0.6034 -0.0883
32158SOL    HW214467   4.277  12.911  13.187 -2.9911  1.0050  0.1023
32159SOL     OW14468   6.763   0.142  12.852 -0.4718 -0.2547 -0.2006
32159SOL    HW114469   6.694   0.078  12.869 -0.3587 -0.4940 -0.6278
32159SOL    HW214470   6.717   0.221  12.826 -0.7584  0.6857  2.7909
32160SOL     OW14471   4.720   9.607   8.042  0.3360  0.3493 -0.2443
32160SOL    HW114472   4.678   9.524   8.018  0.7126 -0.3305  1.3328
32160SOL    HW214473   4.762   9.637   7.961 -0.8422 -0.3651 -1.1471
32161SOL     OW14474   5.439   2.045  11.208  0.0093 -0.7117  0.0007
32161SOL    HW114475   5.533   2.037  11.226  0.3482  2.3913  0.0926
32161SOL    HW214476   5.433   2.046  11.112 -0.1142 -2.0395 -0.0304
32162SOL     OW14477   0.884  12.430   8.485  0.6145 -0.8288 -0.7818
32162SOL    HW114478   0.809  12.481   8.453  0.4269  0.4634  1.4801
32162SOL    HW214479   0.861  12.339   8.468 -1.0123 -0.3849 -1.0886
32163SOL     OW14480   1.622   0.612   8.193 -0.5424 -0.2208 -0.4557
32163SOL    HW114481   1.642   0.699   8.159 -3.4864  0.7115 -0.1211
32163SOL    HW214482   1.604   0.626   8.286 -0.3878 -1.3262 -0.2409
32164SOL     OW14483   7.659   7.137   7.413  0.5082  0.2302 -0.0317
32164SOL    HW114484   7.654   7.231   7.426  0.0775  0.0512  1.2170
32164SOL    HW214485   7.731   7.109   7.470  0.3479 -0.2499 -0.0608
32165SOL     OW14486  11.990   1.028  11.657 -0.1561 -0.0102 -0.6599
32165SOL    HW114487  11.928   1.063  11.720  1.8119  1.2816  0.6873
32165SOL    HW214488  12.066   1.002  11.710  1.7805  1.5661 -2.4497
32166SOL     OW14489   2.448   7.026   7.245  0.2782 -0.6705  0.9182
32166SOL    HW114490   2.459   6.940   7.206  0.1935 -0.3797  0.2465
32166SOL    HW214491   2.393   7.074   7.183  1.2804  0.2473  0.7220
32167SOL     OW14492  13.719   0.294   5.853  0.3801 -0.1983  0.5532
32167SOL    HW114493  13.775   0.220   5.878  1.4848 -0.0270 -1.2330
32167SOL    HW214494  13.658   0.257   5.789  0.7722  0.3440 -0.1566
32168SOL     OW14495   8.175  13.689  11.584  0.7932 -0.1959  0.1455
32168SOL    HW114496   8.175  13.714  11.676  0.1448 -2.4960  0.8492
32168SOL    HW214497   8.258  13.642  11.572  1.3828  1.0113 -0.7791
32169SOL     OW14498  11.070   9.937   8.440 -0.7788 -0.5970 -0.2228
32169SOL    HW114499  11.026  10.004   8.492  3.3595  1.6894  0.7821
32169SOL    HW214500  11.106   9.984   8.365 -0.5855 -2.4211 -1.3321
32170SOL     OW14501   7.021   0.161   3.044 -0.4809 -0.1708  0.8137
32170SOL    HW114502   7.116   0.151   3.039 -0.5694 -1.3095  1.0040
32170SOL    HW214503   6.995   0.186   2.955 -0.0924 -0.8205  0.5065
32171SOL     OW14504   7.389   7.264  14.060 -0.3109 -0.7461 -0.5395
32171SOL    HW114505   7.305   7.307  14.046  0.0844  0.5781  0.8917
32171SOL    HW214506   7.369   7.194  14.124  0.2623  2.3235  3.4097
32172SOL     OW14507   2.760   0.829   6.456  0.4001  0.2382 -0.1808
32172SOL    HW114508   2.665   0.839   6.469 -0.0415 -1.4649 -1.7292
32172SOL    HW214509   2.771   0.738   6.431  2.3775  0.5983 -0.7868
32173SOL     OW14510   8.590  12.165   5.780  0.0897  0.0545  0.1521
32173SOL    HW114511   8.593  12.119   5.695  0.9887  2.0599 -0.9636
32173SOL    HW214512   8.497  12.172   5.799 -0.1354 -0.3589 -0.7130
32174SOL     OW14513   9.764  10.025   3.755  0.2835 -0.0709 -0.0207
32174SOL    HW114514   9.839   9.998   3.702  0.2090 -0.6532  0.1659
32174SOL    HW214515   9.770   9.972   3.835 -0.1512  0.0976  0.1281
32175SOL     OW14516   8.513   8.092   5.467 -0.0944  0.0149 -0.0107
32175SOL    HW114517   8.450   8.158   5.436 -0.9398 -1.0862 -0.7080
32175SOL    HW214518   8.492   8.081   5.560 -0.3834  0.2517 -0.0444
32176SOL     OW14519  13.350   2.796   3.187  0.0111  0.2537  0.4327
32176SOL    HW114520  13.348   2.874   3.132  0.0897 -0.4870 -0.6500
32176SOL    HW214521  13.263   2.757   3.177  0.8298 -1.2530 -1.2285
32177SOL     OW14522   9.048   6.862   4.283 -0.4354  0.4011  0.1308
32177SOL    HW114523   9.091   6.939   4.322 -0.2768  0.9477 -1.0823
32177SOL    HW214524   9.095   6.787   4.320 -1.2154  0.7912  2.1001
32178SOL     OW14525   8.158   1.072   8.944  0.4207  0.1083  0.0090
32178SOL    HW114526   8.137   1.153   8.899 -2.2604 -0.3085  0.3369
32178SOL    HW214527   8.096   1.008   8.907  0.7102 -1.1322  1.5818
32179SOL     OW14528   4.443   0.203   6.808 -0.0887 -0.2546 -0.7492
32179SOL    HW114529   4.536   0.222   6.798 -0.0262 -0.7477 -1.0875
32179SOL    HW214530   4.406   0.212   6.720  0.0564 -2.3061 -1.0623
32180SOL     OW14531  11.196   3.557   8.196  0.3796 -0.6222  0.1915
32180SOL    HW114532  11.104   3.574   8.178  0.6167  1.5767  0.8161
32180SOL    HW214533  11.196   3.471   8.239 -1.7991  0.6078  2.9897
32181SOL     OW14534   2.434   1.577   9.098  0.1049  0.6015 -0.0490
32181SOL    HW114535   2.338   1.571   9.094 -0.0045  2.2375 -0.4284
32181SOL    HW214536   2.452   1.671   9.098  1.6456  0.3654  1.8812
32182SOL     OW14537   5.927  10.624  12.430 -0.2706  0.5734 -0.0019
32182SOL    HW114538   5.850  10.603  12.484 -1.2470 -0.7015 -1.7855
32182SOL    HW214539   5.983  10.546  12.438  0.9379  1.5249  1.3516
32183SOL     OW14540   2.458   4.917   4.556  0.5377 -0.3981 -0.2021
32183SOL    HW114541   2.515   4.917   4.479  0.8156 -1.4385 -0.0095
32183SOL    HW214542   2.498   4.979   4.616  0.2681  0.4991 -0.9170
32184SOL     OW14543   2.984   6.784  11.916 -0.6059  0.4407  0.7893
32184SOL    HW114544   2.912   6.760  11.858  0.1810  0.2943 -0.1451
32184SOL    HW214545   2.967   6.735  11.997  0.2539 -2.3582 -0.5854
32185SOL     OW14546  13.763  12.247   6.483  0.5466 -0.0215 -0.3457
32185SOL    HW114547  13.676  12.288   6.476 -0.0409 -0.9471  1.0612
32185SOL    HW214548  13.763  12.179   6.416  0.4267  0.3708 -0.7523
32186SOL     OW14549   8.102   7.463   3.664  0.3564  0.3172  0.1451
32186SOL    HW114550   8.081   7.420   3.581 -0.4002 -1.2279  1.0798
32186SOL    HW214551   8.165   7.531   3.641  1.9451 -1.5464 -1.4382
32187SOL     OW14552   9.840   0.715   6.711 -0.2398  0.4839 -0.6159
32187SOL    HW114553   9.748   0.707   6.687  0.1321 -0.4785 -1.7958
32187SOL    HW214554   9.853   0.652   6.782 -0.0613 -0.8833 -1.8114
32188SOL     OW14555  12.078   1.406   8.992  0.8968 -0.1952 -0.0059
32188SOL    HW114556  12.030   1.400   8.910 -1.8323  0.0450  1.4481
32188SOL    HW214557  12.070   1.319   9.031  0.6026  0.1850  0.8019
32189SOL     OW14558  10.097   8.728   6.418  0.2566  0.6535 -0.2124
32189SOL    HW114559  10.134   8.777   6.491 -0.8949 -0.4117  1.1253
32189SOL    HW214560  10.168   8.671   6.389  1.2526  2.2350 -1.0635
32190SOL     OW14561   3.928   5.136  10.763 -0.2063  0.2235  0.0398
32190SOL    HW114562   3.905   5.150  10.855 -2.6714  0.1021 -0.4991
32190SOL    HW214563   3.852   5.167  10.714  1.6005  1.6209 -2.0786
32191SOL     OW14564   1.839  11.789   7.110 -0.4688 -0.6786 -0.0624
32191SOL    HW114565   1.923  11.799   7.065 -0.8482  2.5476 -0.2920
32191SOL    HW214566   1.861  11.744   7.192  1.7226  1.0698  0.3959
32192SOL     OW14567  13.388  12.609   2.421  0.7674  0.2868  0.0287
32192SOL    HW114568  13.465  12.568   2.382  0.1826 -0.7028 -0.1111
32192SOL    HW214569  13.354  12.668   2.353  1.3016  0.6017  0.0337
32193SOL     OW14570  11.697   6.985   5.292 -0.1537 -0.5040 -0.1427
32193SOL    HW114571  11.698   6.969   5.386  1.8195 -2.3815 -0.4044
32193SOL    HW214572  11.789   7.001   5.269 -0.3838 -1.5002 -1.9385
32194SOL     OW14573   1.263  12.062  10.636 -0.4041 -0.3854  0.0724
32194SOL    HW114574   1.324  12.088  10.705 -2.6714  0.2286  1.9894
32194SOL    HW214575   1.191  12.125  10.644 -1.3673 -1.1550 -2.0002
32195SOL     OW14576   7.000   4.621   0.423 -0.6268 -0.7399  0.5779
32195SOL    HW114577   6.946   4.695   0.453  0.4412 -0.1542  1.0915
32195SOL    HW214578   7.085   4.660   0.403 -0.8691 -1.3278 -1.9432
32196SOL     OW14579  13.062   8.516   4.012  0.0035  0.0602  0.5536
32196SOL    HW114580  13.015   8.443   3.974  0.2385 -0.3882  1.1096
32196SOL    HW214581  13.155   8.492   4.003  0.0916  0.3960  0.5318
32197SOL     OW14582  10.346  14.156   6.551  0.3312  0.3039  0.6860
32197SOL    HW114583  10.344  14.194   6.463  2.1655 -1.7602 -0.3208
32197SOL    HW214584  10.404  14.215   6.600 -1.2347  1.8552  0.7973
32198SOL     OW14585   6.310  12.347   6.630 -0.1083  0.2377  0.1998
32198SOL    HW114586   6.249  12.418   6.649  0.9099  1.3654 -0.6412
32198SOL    HW214587   6.330  12.356   6.537 -0.4756 -1.5895 -0.1122
32199SOL     OW14588  11.703   6.340  12.393 -0.2375  0.4324 -0.4292
32199SOL    HW114589  11.703   6.436  12.386 -0.9661  0.5027  0.2922
32199SOL    HW214590  11.634   6.322  12.457 -1.8611 -0.7208 -2.4032
32200SOL     OW14591   1.645  11.472   9.386  0.7475  0.8616 -0.0109
32200SOL    HW114592   1.730  11.465   9.430  0.9074 -1.0871 -0.5345
32200SOL    HW214593   1.597  11.394   9.415  0.6169 -0.1696 -2.7150
32201SOL     OW14594   8.729   1.450  11.163  0.0785 -0.3648  0.4588
32201SOL    HW114595   8.715   1.356  11.177 -0.3014 -0.5578 -1.0506
32201SOL    HW214596   8.812   1.468  11.207 -0.2901 -1.2101  1.5381
32202SOL     OW14597   4.434   7.717   2.705 -0.3001  0.2846  0.2787
32202SOL    HW114598   4.373   7.661   2.657 -1.1142  0.9778  0.4769
32202SOL    HW214599   4.426   7.803   2.664 -0.5397  0.7345  1.2330
32203SOL     OW14600   2.829  11.421   5.199  0.0763  0.1344 -0.0977
32203SOL    HW114601   2.758  11.443   5.260  0.2034  0.3659 -0.0325
32203SOL    HW214602   2.904  11.472   5.230  0.5523 -0.8628  0.4322
32204SOL     OW14603   4.217  12.799   3.590  0.1756 -0.0612  0.4869
32204SOL    HW114604   4.139  12.758   3.627 -0.1773  0.6579  0.5558
32204SOL    HW214605   4.282  12.730   3.589 -0.8623 -1.0941 -0.8800
32205SOL     OW14606   1.279   2.082   8.821 -0.1317 -0.2999 -0.4436
32205SOL    HW114607   1.357   2.100   8.873  0.7087 -0.5254 -1.5899
32205SOL    HW214608   1.228   2.021   8.874  0.4231 -0.0891  0.3513
32206SOL     OW14609  12.740   3.763   7.985 -0.5109 -0.8801  0.3884
32206SOL    HW114610  12.758   3.694   7.921 -0.9110 -0.4533 -0.1796
32206SOL    HW214611  12.826   3.783   8.023 -0.1794 -0.7072 -0.4400
32207SOL     OW14612   0.440  11.189  12.003 -0.4771 -0.0079  0.0422
32207SOL    HW114613   0.370  11.211  12.066  1.9127  1.9251  2.2469
32207SOL    HW214614   0.495  11.267  12.001  1.2960 -1.2180 -2.1307
32208SOL     OW14615  10.408   7.097   3.531  0.4715  0.2460 -0.4967
32208SOL    HW114616  10.425   7.006   3.557  2.7165  0.5968 -0.5811
32208SOL    HW214617  10.313   7.101   3.521 -0.2249 -1.0064  3.5348
32209SOL     OW14618   3.795   2.087  11.071  0.4663 -0.5254 -0.5732
32209SOL    HW114619   3.870   2.100  11.130  1.5697 -1.4390 -1.7126
32209SOL    HW214620   3.720   2.077  11.129  1.3169 -0.1209  0.6255
32210SOL     OW14621  13.355  12.307   4.296 -0.2874  0.3243  0.0493
32210SOL    HW114622  13.432  12.359   4.319 -0.7386  0.3700  1.5880
32210SOL    HW214623  13.313  12.357   4.226  0.5456  0.8035 -0.1272
32211SOL     OW14624  10.039   9.013  13.449 -0.2758 -0.4924 -0.9116
32211SOL    HW114625  10.016   8.921  13.437 -1.4969 -0.1680 -1.2296
32211SOL    HW214626  10.051   9.022  13.543  0.1968 -1.0514 -0.9129
32212SOL     OW14627   0.490   8.524   1.207  0.1307 -0.0467 -0.7595
32212SOL    HW114628   0.482   8.477   1.291  0.5025 -1.5407 -1.5304
32212SOL    HW214629   0.456   8.611   1.226 -0.1670 -0.4719  0.8536
32213SOL     OW14630   8.938   2.817   0.140  0.2663 -0.3348 -0.1717
32213SOL    HW114631   8.987   2.885   0.186  0.4310  1.0821 -2.2916
32213SOL    HW214632   8.847   2.831   0.164  0.1356  1.5359 -1.5701
32214SOL     OW14633   1.252   1.754   7.282  0.1625 -0.0497 -0.4908
32214SOL    HW114634   1.321   1.819   7.297  1.6888 -1.4908 -1.0638
32214SOL    HW214635   1.220   1.773   7.194 -1.0330  1.3400  0.1914
32215SOL     OW14636   4.554   0.220  10.554  0.1383 -0.4482  0.2116
32215SOL    HW114637   4.584   0.140  10.512  0.2104  0.0784 -0.7674
32215SOL    HW214638   4.634   0.265  10.580  0.1069 -0.4830  0.3718
32216SOL     OW14639   1.596  13.003   3.229 -0.3659 -0.1414  0.1414
32216SOL    HW114640   1.625  12.912   3.238  0.7534  0.0742 -0.9925
32216SOL    HW214641   1.671  13.048   3.189 -0.7390  1.3828  1.0605
32217SOL     OW14642  13.367   6.108   2.901 -0.2544  0.1116  0.8471
32217SOL    HW114643  13.422   6.053   2.957  1.4381  1.9391  1.0721
32217SOL    HW214644  13.408   6.104   2.815 -0.3907  0.6300  0.7539
32218SOL     OW14645  13.979   9.301   9.519 -0.3549  0.7562  0.2471
32218SOL    HW114646  13.985   9.376   9.578  0.7668  1.2338 -0.4261
32218SOL    HW214647  13.967   9.340   9.432  0.3685  0.1708 -0.1277
32219SOL     OW14648   8.618   6.757  13.171  0.1712 -0.0406 -0.2701
32219SOL    HW114649   8.558   6.809  13.117  1.1162  1.9761  0.5263
32219SOL    HW214650   8.586   6.667  13.162 -2.4157  0.8229 -0.5908
32220SOL     OW14651  13.120  13.654  13.564 -0.3762 -0.2372  0.2280
32220SOL    HW114652  13.173  13.692  13.634 -1.9951 -0.8756  1.8848
32220SOL    HW214653  13.180  13.596  13.517  0.6476 -0.1667  1.3991
32221SOL     OW14654   2.637  12.579  11.960  0.1078  0.0506 -0.5716
32221SOL    HW114655   2.575  12.563  12.031  2.2706  2.8506  2.2195
32221SOL    HW214656   2.712  12.523  11.980  0.9076  1.1762 -0.3195
32222SOL     OW14657   7.424   9.400   3.196 -0.2052 -0.1506  0.2900
32222SOL    HW114658   7.333   9.394   3.228  0.3979 -0.3461  2.0838
32222SOL    HW214659   7.470   9.447   3.266  0.9530  0.5815 -0.9165
32223SOL     OW14660   1.998   5.863  10.113 -0.3481  0.9470  0.0144
32223SOL    HW114661   1.905   5.856  10.135 -0.5138 -0.0275 -0.8801
32223SOL    HW214662   2.025   5.773  10.096  1.0902  1.0592  1.4437
32224SOL     OW14663   9.042   1.404   9.249  0.0399 -0.9116  0.2228
32224SOL    HW114664   9.052   1.463   9.324  0.9545 -1.1270  0.2716
32224SOL    HW214665   8.953   1.368   9.259 -0.3719  0.1200  0.4264
32225SOL     OW14666   7.468   4.737   0.130  0.1137  0.1349 -0.0038
32225SOL    HW114667   7.469   4.825   0.169 -0.2492  0.5395 -0.8579
32225SOL    HW214668   7.545   4.735   0.074  1.2367 -0.8347  1.5119
32226SOL     OW14669  12.862   4.264   5.917  0.5426 -0.0082  0.2874
32226SOL    HW114670  12.923   4.295   5.984  1.0431 -0.1352 -0.1042
32226SOL    HW214671  12.877   4.169   5.913 -0.2214 -0.1561  0.7201
32227SOL     OW14672   0.612   3.121   9.617  0.3422 -0.8614 -0.0988
32227SOL    HW114673   0.567   3.125   9.702  0.2278 -0.3183 -0.1818
32227SOL    HW214674   0.545   3.087   9.557 -0.7918  2.1436 -0.7312
32228SOL     OW14675   0.925  11.715   2.018  0.7779  0.1016  0.3237
32228SOL    HW114676   0.954  11.771   2.090 -0.7972  0.9966  0.3118
32228SOL    HW214677   0.950  11.763   1.939  2.7901 -1.0275  0.2090
32229SOL     OW14678   5.994   4.018   5.602  0.2979  0.0199 -0.6141
32229SOL    HW114679   5.923   3.972   5.648  0.3018  0.3666 -0.2575
32229SOL    HW214680   6.053   4.045   5.672 -0.1124  1.2864 -0.7398
32230SOL     OW14681   8.689   8.266   9.531  0.1021 -0.5588  0.0974
32230SOL    HW114682   8.706   8.172   9.538  0.8193 -0.3851  0.9821
32230SOL    HW214683   8.605   8.279   9.575 -1.3587 -1.1208 -2.3557
32231SOL     OW14684   9.453   0.754   4.576  0.2459 -0.7924 -0.1395
32231SOL    HW114685   9.505   0.778   4.499 -2.2211 -0.7955 -1.9182
32231SOL    HW214686   9.468   0.825   4.638  0.4874  0.4498 -1.5575
32232SOL     OW14687   3.213   5.205   0.848  0.0335 -1.4185 -0.2614
32232SOL    HW114688   3.147   5.173   0.788 -0.9947 -0.5235  0.3528
32232SOL    HW214689   3.182   5.292   0.875 -0.1719 -2.2259  2.4383
32233SOL     OW14690   6.901  13.136   3.363 -0.3508  0.0966 -0.5205
32233SOL    HW114691   6.934  13.194   3.295  2.5927 -1.4796 -0.6019
32233SOL    HW214692   6.958  13.153   3.439 -0.1105 -1.8438 -0.2103
32234SOL     OW14693   2.011   4.706  10.907 -0.2644  0.0984  0.0233
32234SOL    HW114694   2.073   4.650  10.861 -0.9372 -0.4591 -0.2175
32234SOL    HW214695   2.045   4.711  10.996 -0.9916 -1.9336  0.4562
32235SOL     OW14696  12.580  13.051  12.315 -0.1419 -0.4019  0.1234
32235SOL    HW114697  12.516  13.115  12.346 -1.1337 -0.7683 -1.0991
32235SOL    HW214698  12.529  12.974  12.292  0.7064 -0.6566 -0.9974
32236SOL     OW14699  11.134   6.869   7.569 -0.1030  0.1673  0.5790
32236SOL    HW114700  11.067   6.883   7.502  1.8816 -1.9438 -2.0259
32236SOL    HW214701  11.201   6.935   7.552 -0.6679  1.2323  2.1728
32237SOL     OW14702   8.586   8.354   5.830 -0.0900 -0.1894  0.3858
32237SOL    HW114703   8.547   8.438   5.804  0.6286  0.6196  1.7966
32237SOL    HW214704   8.679   8.363   5.808  0.3553  0.1562  2.2161
32238SOL     OW14705   6.728   0.914  12.413 -0.9311  0.6271  0.3203
32238SOL    HW114706   6.788   0.961  12.471 -1.5769  1.4645  0.3222
32238SOL    HW214707   6.724   0.826  12.449 -0.6548  0.9009  1.0337
32239SOL     OW14708   8.754   8.027   7.241  0.9682  0.3332 -0.0728
32239SOL    HW114709   8.840   8.026   7.283  0.1319 -0.1958  1.7143
32239SOL    HW214710   8.694   8.061   7.307 -0.8269 -2.8442  0.1639
32240SOL     OW14711   7.714  13.022  12.446  0.1539 -0.3184 -0.1388
32240SOL    HW114712   7.703  12.969  12.525 -0.5819  2.2079  1.5903
32240SOL    HW214713   7.787  12.982  12.400  0.3943 -2.0980  1.6509
32241SOL     OW14714   3.531  13.765   5.322 -0.2075  0.0262 -0.4054
32241SOL    HW114715   3.573  13.849   5.307 -0.1047  0.1436  0.4629
32241SOL    HW214716   3.479  13.778   5.401  1.2581 -1.2119  0.8324
32242SOL     OW14717  12.835   6.377   8.322 -0.1453  0.1870  0.3295
32242SOL    HW114718  12.906   6.365   8.386  0.0035 -2.8058 -0.2828
32242SOL    HW214719  12.767   6.424   8.371  0.4236 -0.9691  2.3509
32243SOL     OW14720  11.016  11.156   2.117  0.1123  0.5452 -0.1357
32243SOL    HW114721  11.086  11.220   2.121 -1.5427  2.3784  1.5707
32243SOL    HW214722  10.982  11.163   2.028  0.7124  1.1722 -0.3183
32244SOL     OW14723   0.227   4.521   3.008  0.3327 -0.8025 -0.0990
32244SOL    HW114724   0.195   4.559   2.926  1.9766  2.3587  0.5517
32244SOL    HW214725   0.267   4.438   2.982 -1.7225 -1.3173 -1.9676
32245SOL     OW14726  13.150   0.294   5.992 -0.2157 -0.3826 -0.0031
32245SOL    HW114727  13.160   0.262   6.081 -2.3681  1.6115  1.0820
32245SOL    HW214728  13.190   0.381   5.993 -1.2841  0.1429 -0.6118
32246SOL     OW14729  12.189   5.848   0.832  0.3082 -0.0426 -0.6058
32246SOL    HW114730  12.247   5.857   0.907 -0.0499  0.1497 -0.3495
32246SOL    HW214731  12.181   5.937   0.797  2.1648 -0.4311 -2.1640
32247SOL     OW14732   5.282  13.472   6.909  0.3230 -0.2128  0.3837
32247SOL    HW114733   5.338  13.549   6.921  0.2261  0.3134 -2.0625
32247SOL    HW214734   5.335  13.400   6.944  1.1639  0.7019  1.0774
32248SOL     OW14735  13.169  13.807  13.127  0.2130 -0.2733 -0.2817
32248SOL    HW114736  13.162  13.715  13.152  0.4780  0.0320  0.9716
32248SOL    HW214737  13.078  13.833  13.108 -0.1942 -0.2236  1.5449
32249SOL     OW14738   3.869   6.039  11.190  0.0549 -0.4000  0.0261
32249SOL    HW114739   3.912   5.965  11.233 -0.8522 -0.6075  0.5909
32249SOL    HW214740   3.795   6.001  11.143  0.2404  0.0077 -0.6153
32250SOL     OW14741   6.381  14.087  11.033  0.1792  0.1341 -0.0100
32250SOL    HW114742   6.455  14.063  10.978  1.1062 -0.0663  1.2801
32250SOL    HW214743   6.317  14.125  10.973  0.4137 -1.6662 -1.4840
32251SOL     OW14744  11.208   1.973  13.581 -0.3354  0.0303  0.3546
32251SOL    HW114745  11.205   1.892  13.631 -1.4862  0.4102  0.9384
32251SOL    HW214746  11.235   2.039  13.645 -0.1724  0.2337  0.0738
32252SOL     OW14747  10.053   4.464   0.751  0.1657  0.2543  0.0839
32252SOL    HW114748  10.128   4.467   0.692  0.2101  2.7305  0.1326
32252SOL    HW214749  10.057   4.378   0.792  1.2961 -0.7550 -2.0208
32253SOL     OW14750  13.982   7.828  10.770  0.1671 -0.1550  0.1786
32253SOL    HW114751  13.894   7.859  10.751 -0.0430 -0.8965 -0.1043
32253SOL    HW214752  13.979   7.804  10.862 -0.5078 -1.9695 -0.2671
32254SOL     OW14753  11.861   8.232   2.100  0.1421  1.0616 -0.1989
32254SOL    HW114754  11.897   8.262   2.017  0.8094 -1.5971 -0.9499
32254SOL    HW214755  11.823   8.146   2.081  0.2462  0.4011  2.2125
32255SOL     OW14756   1.614   0.036  13.931 -0.0452  0.3594  0.0778
32255SOL    HW114757   1.571  -0.002  14.007 -0.0706 -1.4930 -0.8063
32255SOL    HW214758   1.543   0.078  13.883 -0.3410  0.0218  0.2120
32256SOL     OW14759   0.412   7.173  11.919 -0.0567  0.2436  0.0447
32256SOL    HW114760   0.453   7.220  11.992 -1.5213  1.4032  0.1622
32256SOL    HW214761   0.356   7.238  11.877 -0.8267 -0.9610 -0.8588
32257SOL     OW14762   9.522   8.445   8.307  0.0115  0.0719  0.3364
32257SOL    HW114763   9.586   8.374   8.311  0.6200  0.5006 -1.1118
32257SOL    HW214764   9.567   8.521   8.345  0.9161  0.7079 -1.8094
32258SOL     OW14765   5.807   6.374   6.137 -0.0510  0.5331  0.0424
32258SOL    HW114766   5.747   6.333   6.200 -1.8318 -0.7156 -2.2863
32258SOL    HW214767   5.846   6.300   6.090 -1.4371  1.3774 -2.5909
32259SOL     OW14768  11.845  13.951  12.381  0.2072  0.2563  0.5850
32259SOL    HW114769  11.866  13.981  12.470  0.3293 -0.5074  0.8193
32259SOL    HW214770  11.861  14.027  12.326 -0.2488  0.8632  1.2630
32260SOL     OW14771   5.268   8.944   3.594 -0.3017 -0.0822  0.6435
32260SOL    HW114772   5.259   8.910   3.505 -0.9097 -1.1332  1.0868
32260SOL    HW214773   5.182   8.982   3.613 -0.0346  0.5355  0.6319
32261SOL     OW14774   7.477  11.116  11.434  0.2036 -0.4518 -0.7296
32261SOL    HW114775   7.439  11.151  11.514  1.3719 -0.2135 -0.2681
32261SOL    HW214776   7.417  11.144  11.365  0.8702  2.1748 -0.3389
32262SOL     OW14777   0.505  10.165   6.407 -0.4323  0.2681 -0.3664
32262SOL    HW114778   0.558  10.240   6.435 -0.6941 -0.1486  1.3191
32262SOL    HW214779   0.569  10.100   6.378 -0.0837  0.2594  0.4111
32263SOL     OW14780  12.776   0.761   1.020  0.3875 -0.7651  0.2594
32263SOL    HW114781  12.832   0.689   1.051 -0.8625 -2.0162 -0.2327
32263SOL    HW214782  12.808   0.779   0.932  0.3366 -1.1251  0.1648
32264SOL     OW14783   4.997   9.455  12.614 -0.1374 -0.2853 -0.3977
32264SOL    HW114784   4.994   9.408  12.698  2.2030 -1.7904 -1.0420
32264SOL    HW214785   5.044   9.536  12.633 -0.0268 -0.4078 -0.1413
32265SOL     OW14786   2.589   9.458  14.076 -0.0951  0.3448  0.5419
32265SOL    HW114787   2.678   9.472  14.044 -0.2712 -1.8129 -1.1728
32265SOL    HW214788   2.534   9.512  14.020  0.1382  2.4053  2.2015
32266SOL     OW14789  10.730   2.005   6.393 -0.8043  0.1831 -0.2905
32266SOL    HW114790  10.746   1.913   6.414 -0.3313  0.4265  0.4362
32266SOL    HW214791  10.768   2.016   6.306 -0.9121 -0.3146 -0.4082
32267SOL     OW14792   0.403   6.244   0.268  0.0041  0.1845 -0.1760
32267SOL    HW114793   0.460   6.175   0.303 -0.1150  1.2257  2.2941
32267SOL    HW214794   0.461   6.320   0.260 -0.5315  0.6392  0.1979
32268SOL     OW14795   9.319   2.598   4.676 -0.6105  0.1400 -0.0260
32268SOL    HW114796   9.298   2.691   4.682  2.1113  0.8001  0.8324
32268SOL    HW214797   9.327   2.569   4.768  4.1699  0.6397 -0.0527
32269SOL     OW14798   0.751   3.490   9.277 -0.3735 -0.2575 -0.2585
32269SOL    HW114799   0.714   3.439   9.349 -0.2648 -0.3559 -0.2705
32269SOL    HW214800   0.789   3.567   9.319  1.0720 -1.0547 -0.0039
32270SOL     OW14801  10.238   8.235   5.411 -0.2254 -0.4341  0.0798
32270SOL    HW114802  10.274   8.304   5.354 -0.6616 -0.4859 -0.2559
32270SOL    HW214803  10.262   8.153   5.367 -1.1226 -0.4633 -0.3759
32271SOL     OW14804  12.237   3.096   5.369 -0.0362  0.2432  0.5856
32271SOL    HW114805  12.257   3.095   5.276  0.2290 -0.9775  0.6419
32271SOL    HW214806  12.150   3.057   5.376  0.6325 -1.2111  0.9825
32272SOL     OW14807   7.931   3.710  11.016  0.5211  0.3186  0.3926
32272SOL    HW114808   7.919   3.761  10.936 -0.3223  0.2985  0.4977
32272SOL    HW214809   7.937   3.619  10.986  0.6393  0.3542  0.3118
32273SOL     OW14810   7.564   9.130  12.304  0.2024 -0.4317 -0.0501
32273SOL    HW114811   7.617   9.131  12.383 -0.4726  1.1142  0.4118
32273SOL    HW214812   7.543   9.222  12.287 -1.9019 -0.9367 -0.4918
32274SOL     OW14813   2.491   0.071   8.885  0.3196 -0.3895 -0.2531
32274SOL    HW114814   2.577   0.047   8.851  0.8111  1.3928 -0.3845
32274SOL    HW214815   2.458  -0.009   8.925  0.8258 -1.8745 -2.6144
32275SOL     OW14816   6.430  13.061   0.827  0.7088  0.3833  0.0709
32275SOL    HW114817   6.472  13.131   0.778 -0.0662  0.0257 -1.1458
32275SOL    HW214818   6.502  13.014   0.868  1.6028 -0.6005 -2.4469
32276SOL     OW14819   1.422   3.528  13.282 -0.4255 -0.0108 -0.1830
32276SOL    HW114820   1.466   3.581  13.349 -0.4653  1.8575 -1.5667
32276SOL    HW214821   1.493   3.497  13.225 -0.4573 -1.0740  0.3268
32277SOL     OW14822  11.121   6.160  11.078 -0.1349 -0.2638 -0.6997
32277SOL    HW114823  11.040   6.191  11.120 -0.6900 -2.1325 -0.2828
32277SOL    HW214824  11.093   6.087  11.023  0.7233  1.4782 -3.6944
32278SOL     OW14825   5.356   1.780   6.732 -0.5341 -0.0066 -0.5761
32278SOL    HW114826   5.266   1.749   6.742 -0.1502 -0.6698  1.3321
32278SOL    HW214827   5.402   1.741   6.806  1.3242  0.3583 -1.4924
32279SOL     OW14828   9.614  11.004  13.412 -0.1535 -0.6898 -0.0583
32279SOL    HW114829   9.529  11.025  13.374 -0.0461  0.2298  0.2014
32279SOL    HW214830   9.677  11.048  13.356 -0.0144  0.9780  1.3485
32280SOL     OW14831   0.847   8.000  14.134  0.5251  1.1467 -0.1767
32280SOL    HW114832   0.913   7.939  14.102 -1.0985  0.8764 -3.3276
32280SOL    HW214833   0.898   8.074  14.169  2.4688 -0.7794  1.3646
32281SOL     OW14834  11.921   1.160   1.167 -0.0164 -0.1444 -0.1533
32281SOL    HW114835  11.921   1.092   1.235 -0.1275  0.5676  0.5697
32281SOL    HW214836  11.846   1.215   1.187  0.4043  0.5383 -0.3870
32282SOL     OW14837   8.777   8.683  12.333  0.0518  0.5610 -0.3994
32282SOL    HW114838   8.817   8.644  12.255 -2.1486 -1.7341 -0.4820
32282SOL    HW214839   8.842   8.670  12.402  0.0906 -1.8791 -0.8041
32283SOL     OW14840   3.998   4.346   7.699  0.5053 -0.1892 -0.8158
32283SOL    HW114841   3.991   4.440   7.681  0.1209 -0.1365 -0.4118
32283SOL    HW214842   3.927   4.307   7.648 -2.5212  0.2501  2.5786
32284SOL     OW14843  10.623   7.213   1.762 -0.0522  0.2224  0.1946
32284SOL    HW114844  10.549   7.232   1.820 -0.6908  1.0217 -0.8375
32284SOL    HW214845  10.693   7.271   1.793  0.6048 -1.4654  1.9923
32285SOL     OW14846   0.066   3.196   4.368 -0.1761 -0.3092 -0.6952
32285SOL    HW114847   0.008   3.269   4.393  1.0446  0.4317  0.0713
32285SOL    HW214848   0.017   3.118   4.392 -0.8017  0.3019  0.0931
32286SOL     OW14849   9.416   8.500  12.904 -0.1526 -0.5788 -0.2426
32286SOL    HW114850   9.470   8.546  12.840 -1.4995 -0.2427 -1.1872
32286SOL    HW214851   9.433   8.407  12.889  0.3048 -0.4733 -0.3901
32287SOL     OW14852  10.389  10.037   4.589 -0.1546 -0.2634 -0.2750
32287SOL    HW114853  10.331   9.968   4.556 -1.0047  0.2431  0.1156
32287SOL    HW214854  10.349  10.119   4.559 -0.4902  0.1698  1.2725
32288SOL     OW14855   4.625   2.613  12.049 -0.0320 -0.2644 -0.3252
32288SOL    HW114856   4.543   2.658  12.031  0.2619  0.1497 -0.6542
32288SOL    HW214857   4.653   2.645  12.135 -1.0413 -1.6550  0.5689
32289SOL     OW14858  13.657   5.165   5.802  0.0682 -0.0514 -0.3962
32289SOL    HW114859  13.591   5.187   5.867  0.6180  0.8646 -0.1220
32289SOL    HW214860  13.615   5.102   5.744 -0.7350 -0.1634  0.2992
32290SOL     OW14861   2.775   3.555   0.795 -0.2672 -0.1518  0.1794
32290SOL    HW114862   2.867   3.567   0.772 -0.5362  1.9866  0.0458
32290SOL    HW214863   2.727   3.594   0.721 -1.2880 -0.8895  0.4295
32291SOL     OW14864   5.463  14.069  12.753 -0.3802 -0.4686 -0.3819
32291SOL    HW114865   5.550  14.093  12.784  1.0052 -2.4453 -2.4180
32291SOL    HW214866   5.441  13.990  12.801  0.5021 -1.8733 -2.1493
32292SOL     OW14867   3.519  13.695   5.034 -0.4944  0.5048 -0.1212
32292SOL    HW114868   3.520  13.697   5.130 -1.1641  1.0477 -0.1201
32292SOL    HW214869   3.558  13.611   5.012 -0.0289  0.5186  0.6228
32293SOL     OW14870   0.097   8.916   2.680 -0.5729 -0.3584 -0.0208
32293SOL    HW114871   0.148   8.877   2.752  0.3100 -2.3552 -1.6355
32293SOL    HW214872   0.025   8.856   2.666 -2.9585  1.9257  1.5439
32294SOL     OW14873   0.102   6.859   0.156  0.3746 -0.3244 -0.2195
32294SOL    HW114874   0.150   6.793   0.207 -0.1251  0.4518  1.3323
32294SOL    HW214875   0.010   6.843   0.176  0.2615  1.1319  0.6442
32295SOL     OW14876   1.634   3.312   5.042 -0.1318  0.1894 -0.7475
32295SOL    HW114877   1.564   3.369   5.072 -1.6494 -2.1323  0.4062
32295SOL    HW214878   1.649   3.338   4.951 -0.5376  2.5335 -0.1987
32296SOL     OW14879   7.616  10.665  11.588  0.1865 -0.1569 -0.4223
32296SOL    HW114880   7.583  10.728  11.523 -0.1623  0.6016  0.4795
32296SOL    HW214881   7.672  10.606  11.536 -0.0933  0.4201 -1.4199
32297SOL     OW14882   9.624   4.132   8.561 -0.0423 -0.5879 -0.3693
32297SOL    HW114883   9.713   4.103   8.538 -0.6623 -2.2115 -0.8636
32297SOL    HW214884   9.596   4.071   8.630 -0.4307  0.5259  0.4863
32298SOL     OW14885   1.166   1.987   3.565  0.0125 -0.0490  0.2571
32298SOL    HW114886   1.120   2.051   3.619  0.1799 -0.6665  1.1665
32298SOL    HW214887   1.168   2.025   3.477 -0.0190  1.1118  0.7468
32299SOL     OW14888   2.889   2.316   7.505 -0.2432  0.0177 -0.5200
32299SOL    HW114889   2.823   2.350   7.566  1.4287  0.3616  1.2129
32299SOL    HW214890   2.846   2.243   7.461 -1.7998  0.2775  0.4829
32300SOL     OW14891   7.983   5.342  12.423  0.5960 -0.3669  0.0816
32300SOL    HW114892   7.895   5.369  12.400  2.2382  2.7442 -3.6221
32300SOL    HW214893   7.998   5.379  12.510 -0.2086  3.7435 -1.2988
32301SOL     OW14894  12.804   4.354  11.139  0.5611 -0.1759  0.0217
32301SOL    HW114895  12.830   4.281  11.083 -1.6892 -0.1884 -1.1400
32301SOL    HW214896  12.810   4.431  11.082 -0.2939  0.0380  0.2015
32302SOL     OW14897   4.301   9.083   6.004 -0.1320 -0.7823 -0.2565
32302SOL    HW114898   4.280   9.106   5.913  0.0746 -0.2515 -0.1719
32302SOL    HW214899   4.357   9.154   6.034  0.4876 -1.3868  0.0242
32303SOL     OW14900  13.234   2.473   5.926  0.6471 -0.1905 -0.0162
32303SOL    HW114901  13.286   2.475   5.845  1.3935  1.1713  0.4602
32303SOL    HW214902  13.150   2.435   5.899  1.2028 -0.6373 -1.2253
32304SOL     OW14903   1.845   2.742   7.764 -0.1278 -0.3210  0.3440
32304SOL    HW114904   1.752   2.719   7.763  0.3963 -2.7548 -0.5139
32304SOL    HW214905   1.862   2.767   7.855 -1.6596  0.5712  0.4352
32305SOL     OW14906   5.952   3.186   8.096 -0.9175  0.2037 -0.0819
32305SOL    HW114907   5.941   3.157   8.006 -2.0301 -0.3351  0.2175
32305SOL    HW214908   5.869   3.226   8.120 -0.0953  1.8612  0.1868
32306SOL     OW14909   4.511  12.296   4.091 -0.6455 -0.5814  0.4788
32306SOL    HW114910   4.503  12.310   4.186  0.8283 -0.1815  0.5644
32306SOL    HW214911   4.528  12.203   4.082  0.2774 -0.4436  0.7006
32307SOL     OW14912   0.268   4.368   1.647  0.2023  0.3423  0.0133
32307SOL    HW114913   0.190   4.324   1.613  0.3553 -0.6271  0.8632
32307SOL    HW214914   0.327   4.373   1.571 -0.0918 -0.3133 -0.2683
32308SOL     OW14915   6.774   2.067  10.869 -0.1760  0.1332  0.1277
32308SOL    HW114916   6.765   2.161  10.889 -0.6722  0.0981  0.0860
32308SOL    HW214917   6.835   2.064  10.796 -0.7537  0.4799 -0.3743
32309SOL     OW14918   4.071   0.536   4.486  0.2418 -0.0547  0.3122
32309SOL    HW114919   4.109   0.531   4.399 -1.3744  0.2748 -0.4495
32309SOL    HW214920   4.140   0.506   4.544  1.5216  0.1950 -1.0254
32310SOL     OW14921   9.841   6.756  10.738  0.0600  0.3836  0.2706
32310SOL    HW114922   9.922   6.800  10.762  1.1083 -1.7593  0.8700
32310SOL    HW214923   9.865   6.700  10.664 -1.2681  0.8821 -0.5842
32311SOL     OW14924  12.863  11.746  10.738  0.7371  0.4191 -0.1833
32311SOL    HW114925  12.939  11.799  10.762 -1.0827  2.6299  1.1519
32311SOL    HW214926  12.823  11.722  10.822 -0.1532 -0.5150 -0.8472
32312SOL     OW14927   5.324  12.807  12.668  0.6080  0.0256  0.3848
32312SOL    HW114928   5.315  12.788  12.575  1.0723  1.4390  0.0305
32312SOL    HW214929   5.356  12.897  12.672 -0.2534  0.3149  1.9307
32313SOL     OW14930  12.171   6.775   0.474  0.1232 -0.1421  0.3207
32313SOL    HW114931  12.170   6.810   0.563  0.3559 -0.1104  0.3118
32313SOL    HW214932  12.242   6.711   0.475 -1.1874 -1.6648  0.7414
32314SOL     OW14933   5.078   3.811  10.357 -0.1491 -0.0624 -0.3916
32314SOL    HW114934   5.090   3.900  10.391 -1.0741 -0.2118  0.3308
32314SOL    HW214935   5.165   3.770  10.367  0.3727  0.8452 -1.0321
32315SOL     OW14936   6.026   7.021   2.421 -0.1662 -0.0642  0.0232
32315SOL    HW114937   6.066   6.976   2.497  0.0726  0.5191  0.2481
32315SOL    HW214938   5.942   6.977   2.409 -0.6677  0.4916  1.2756
32316SOL     OW14939   9.767   3.540  10.590  0.2355 -0.2996  0.3261
32316SOL    HW114940   9.824   3.617  10.590  1.2217 -1.0062  0.0269
32316SOL    HW214941   9.687   3.569  10.547  0.3302  0.7402  0.8345
32317SOL     OW14942   3.679  12.313   4.669  0.7764  0.2257  0.4681
32317SOL    HW114943   3.724  12.274   4.744  1.1533 -1.0830 -0.4073
32317SOL    HW214944   3.750  12.341   4.611  0.4868 -0.5359 -0.2681
32318SOL     OW14945  13.665   6.538   4.597 -0.0958  0.1162  0.0104
32318SOL    HW114946  13.640   6.457   4.552 -0.1354  0.1308  0.0069
32318SOL    HW214947  13.609   6.605   4.559 -1.3775 -0.1583  1.3137
32319SOL     OW14948   7.811   7.178   2.383  0.1444  0.2922 -0.1158
32319SOL    HW114949   7.867   7.244   2.341 -0.2684 -0.3496 -1.7894
32319SOL    HW214950   7.750   7.229   2.435  0.2010  1.2205 -0.9133
32320SOL     OW14951   4.200  11.158  11.180 -0.0727  0.0293  0.1230
32320SOL    HW114952   4.274  11.099  11.190 -0.2394 -0.4871 -1.4318
32320SOL    HW214953   4.178  11.154  11.087 -1.7084  0.5900  0.4418
32321SOL     OW14954   5.841  10.768   0.044 -0.4403  0.1102 -0.2011
32321SOL    HW114955   5.769  10.745  -0.016  0.3968 -1.3481 -0.6964
32321SOL    HW214956   5.919  10.736  -0.000  0.7211  2.8042 -0.2719
32322SOL     OW14957   6.245   0.935  13.141 -0.9992  0.2576  0.3516
32322SOL    HW114958   6.296   0.911  13.063 -0.1792 -0.0673  0.9580
32322SOL    HW214959   6.242   1.030  13.140 -0.5139  0.2752  0.2112
32323SOL     OW14960   4.551   0.686  11.274 -0.0469 -0.6039  0.2091
32323SOL    HW114961   4.555   0.617  11.340  0.2750 -0.8453 -0.0581
32323SOL    HW214962   4.642   0.699  11.247 -0.3224 -1.8327 -1.5273
32324SOL     OW14963   4.136   0.808  12.119 -0.6405 -0.2066  0.1629
32324SOL    HW114964   4.060   0.764  12.157 -0.0951 -1.8172 -0.4891
32324SOL    HW214965   4.198   0.737  12.102  0.7288  0.9760  0.0323
32325SOL     OW14966  11.542   5.576   7.729  0.4396 -0.1795  0.2725
32325SOL    HW114967  11.613   5.513   7.742 -0.8001 -1.6081  0.5350
32325SOL    HW214968  11.533   5.583   7.634  1.7502  1.0271  0.2130
32326SOL     OW14969   6.958   0.596   8.095  0.0644 -0.1367 -0.1760
32326SOL    HW114970   6.993   0.664   8.037  1.8354 -2.2486 -1.7640
32326SOL    HW214971   7.020   0.593   8.168 -1.6155  1.8279  1.4645
32327SOL     OW14972   0.102   9.405   1.638 -0.0717 -0.0089 -0.0401
32327SOL    HW114973   0.113   9.468   1.566 -1.4152  0.8188  0.4419
32327SOL    HW214974   0.180   9.417   1.691  0.2599  0.3917 -0.6023
32328SOL     OW14975  12.293  13.332   9.131 -0.1971 -0.3279  0.5083
32328SOL    HW114976  12.229  13.357   9.064 -0.3121 -0.0580  0.7167
32328SOL    HW214977  12.248  13.346   9.214 -0.0828 -0.7413  0.6430
32329SOL     OW14978   8.919   8.564   8.102 -0.0460  0.2577  0.1081
32329SOL    HW114979   8.968   8.620   8.162 -0.2301  1.8115 -1.1327
32329SOL    HW214980   8.986   8.530   8.041 -0.0296 -0.3674  0.4692
32330SOL     OW14981   5.992   1.569   9.182 -0.2610  0.2436  0.2709
32330SOL    HW114982   5.988   1.662   9.203  2.8795  0.4279  0.5094
32330SOL    HW214983   5.970   1.525   9.264 -0.1748  0.7918  0.5948
32331SOL     OW14984   1.945   4.337   5.279  0.4661  0.4028 -0.6396
32331SOL    HW114985   1.957   4.388   5.359 -1.2058  1.6341 -1.1047
32331SOL    HW214986   1.882   4.269   5.302  2.1803 -1.1294 -0.2024
32332SOL     OW14987  12.692  10.031   0.933 -0.1936  0.0982  0.4212
32332SOL    HW114988  12.635  10.055   0.859  0.8556 -0.2409 -0.5321
32332SOL    HW214989  12.738   9.952   0.903 -1.3399 -1.3823  2.3007
32333SOL     OW14990   1.984   2.993   5.091 -0.4392 -0.0271 -0.4693
32333SOL    HW114991   1.977   3.038   5.007  1.9663  0.8440 -0.2794
32333SOL    HW214992   1.919   3.035   5.147  0.0373  1.5154 -1.0233
32334SOL     OW14993  10.298  14.011   9.541  0.1388  0.1576  0.5751
32334SOL    HW114994  10.328  14.049   9.624  1.5703 -0.0944  0.1954
32334SOL    HW214995  10.301  14.084   9.479  1.2532 -0.1594  0.2388
32335SOL     OW14996  10.208   5.536   3.907  0.4731 -0.1429  0.6231
32335SOL    HW114997  10.219   5.515   3.999  0.1559 -0.8960  0.4961
32335SOL    HW214998  10.135   5.599   3.905  0.9281  0.3986  0.9385
32336SOL     OW14999   2.571   8.998   8.544 -0.3972 -0.5384  0.3994
32336SOL    HW115000   2.511   9.071   8.554  0.1118 -0.1067  0.3211
32336SOL    HW215001   2.562   8.948   8.626  0.1850  0.3124  1.0042
32337SOL     OW15002   2.877   7.001  10.909 -0.4666  0.0211  0.1501
32337SOL    HW115003   2.888   6.996  10.814 -1.0842  0.6260  0.0347
32337SOL    HW215004   2.931   6.930  10.944  0.7354  0.5411 -0.5800
32338SOL     OW15005  12.117   8.344   3.883  0.6903 -0.4444  0.2196
32338SOL    HW115006  12.066   8.360   3.963  0.0712 -0.9997 -0.0586
32338SOL    HW215007  12.208   8.341   3.913  0.6014  0.8028  0.6907
32339SOL     OW15008  13.220   8.220  13.488 -0.3216 -0.3590  0.0778
32339SOL    HW115009  13.315   8.222  13.477  0.1165  0.3501  3.1765
32339SOL    HW215010  13.195   8.311  13.499 -1.0247 -0.6983  1.4479
32340SOL     OW15011   1.478   6.508   5.122 -0.4199 -0.1819  0.4999
32340SOL    HW115012   1.553   6.567   5.119 -1.0994  0.6678 -0.5100
32340SOL    HW215013   1.515   6.422   5.137  0.6107  0.4745  1.8498
32341SOL     OW15014  13.163   8.335   4.432 -0.0137  0.4441 -0.3839
32341SOL    HW115015  13.106   8.320   4.507  1.0175  2.1900  0.8300
32341SOL    HW215016  13.146   8.425   4.406  0.0362  0.0358 -1.9431
32342SOL     OW15017   0.974   3.400  13.430 -0.1670  0.3206  0.3076
32342SOL    HW115018   1.017   3.322  13.394  1.0592  1.0119  0.2199
32342SOL    HW215019   1.029   3.473  13.401 -1.2091  1.2065  0.5274
32343SOL     OW15020   7.477  11.578  13.587 -0.0126  0.1431  0.6601
32343SOL    HW115021   7.423  11.501  13.604 -1.6286  1.5491  2.2383
32343SOL    HW215022   7.532  11.587  13.665  1.7478 -0.5891 -0.4286
32344SOL     OW15023   2.734   5.598  12.447  0.4087 -0.3118  0.8355
32344SOL    HW115024   2.668   5.648  12.398  0.1741 -2.7192 -1.5804
32344SOL    HW215025   2.685   5.555  12.517 -0.5201 -1.5154 -0.5086
32345SOL     OW15026   0.920  13.641   1.382 -0.5957 -0.1242 -0.0251
32345SOL    HW115027   0.895  13.731   1.360 -0.5833  0.0656  0.7166
32345SOL    HW215028   0.944  13.602   1.298  0.2239  0.8323 -0.2549
32346SOL     OW15029   9.870  10.098   0.261  0.5826  0.1964 -0.0045
32346SOL    HW115030   9.817  10.173   0.289  0.5726 -0.0428  0.6269
32346SOL    HW215031   9.861  10.097   0.165 -1.7122 -0.6939  0.1779
32347SOL     OW15032   4.742  13.602   1.274  0.1079 -0.2441 -0.0674
32347SOL    HW115033   4.786  13.576   1.193 -1.0016  1.6673 -1.3765
32347SOL    HW215034   4.760  13.532   1.336  0.7327 -1.9302 -2.0776
32348SOL     OW15035  12.812   9.511   5.126  0.0507  0.0972  0.1092
32348SOL    HW115036  12.793   9.446   5.193 -2.2297 -0.1147 -0.6471
32348SOL    HW215037  12.871   9.466   5.065 -1.5975 -1.3866 -0.4800
32349SOL     OW15038   4.825   6.445   7.430 -0.2916  0.1017 -0.3523
32349SOL    HW115039   4.796   6.533   7.406  0.6057  0.1490 -1.3420
32349SOL    HW215040   4.791   6.389   7.360 -0.5516 -0.2948  0.0843
32350SOL     OW15041   9.567  12.548   9.661  0.4890 -0.1929  0.1279
32350SOL    HW115042   9.568  12.599   9.741  0.5927 -0.4329  0.2817
32350SOL    HW215043   9.523  12.604   9.597 -0.8556 -0.5444  0.7102
32351SOL     OW15044   8.313   7.065   5.238  0.1175 -0.1474 -0.2187
32351SOL    HW115045   8.367   7.101   5.308 -1.5365  2.8843 -0.3464
32351SOL    HW215046   8.360   6.986   5.211  2.1662 -0.0433  2.5124
32352SOL     OW15047   4.272   6.193   1.346  0.7864  0.3472 -0.1084
32352SOL    HW115048   4.322   6.273   1.363  2.1293 -0.2841 -0.8878
32352SOL    HW215049   4.195   6.221   1.298  0.6524  1.2893  0.6274
32353SOL     OW15050  10.616   0.062   6.316  0.5145 -0.0635  0.0757
32353SOL    HW115051  10.627   0.034   6.225 -0.7193  0.0105 -0.1065
32353SOL    HW215052  10.663  -0.005   6.367  0.7881 -0.3812 -0.5754
32354SOL     OW15053   9.498   6.345   9.696 -0.5606 -0.1648 -0.8318
32354SOL    HW115054   9.461   6.417   9.646  1.8694  1.6138 -0.2194
32354SOL    HW215055   9.591   6.345   9.675 -0.2759 -2.4062  0.0955
32355SOL     OW15056  12.409   4.736   4.366 -0.2280  0.6184 -0.5804
32355SOL    HW115057  12.402   4.677   4.442 -1.2329  0.6531 -0.6351
32355SOL    HW215058  12.342   4.803   4.382  1.6963  2.4972  0.1020
32356SOL     OW15059   1.030   0.492   7.120 -0.3913 -0.0412 -0.2883
32356SOL    HW115060   1.023   0.420   7.182 -1.0983  1.0395  0.9524
32356SOL    HW215061   1.096   0.550   7.158  0.6384 -0.3190 -1.5937
32357SOL     OW15062   8.594   5.312   9.122  0.1028  0.9496 -0.5770
32357SOL    HW115063   8.556   5.286   9.038 -1.2426  2.0799 -0.3538
32357SOL    HW215064   8.645   5.391   9.103  2.0263 -0.2709 -0.7802
32358SOL     OW15065  10.099   4.802  10.357 -0.1491  0.1738  0.1286
32358SOL    HW115066  10.055   4.887  10.352  1.0130  0.8424  0.6255
32358SOL    HW215067  10.099   4.769  10.267 -4.3472 -1.3762  0.4668
32359SOL     OW15068  11.921  13.715   1.821 -0.5522  0.6035 -0.8724
32359SOL    HW115069  11.967  13.636   1.851 -1.8208 -0.6316 -2.0094
32359SOL    HW215070  11.906  13.766   1.900 -3.2517 -2.2064  0.6466
32360SOL     OW15071   6.074   4.450  11.121  0.0643 -0.1283  0.5242
32360SOL    HW115072   6.073   4.382  11.054  0.3857 -0.2054  0.5957
32360SOL    HW215073   6.115   4.409  11.197  2.8847  0.9345 -0.3035
32361SOL     OW15074  10.852   3.728  13.206  0.4913 -0.4526 -0.4308
32361SOL    HW115075  10.898   3.781  13.271  0.7000 -1.6307  0.4197
32361SOL    HW215076  10.875   3.768  13.122 -2.1608  2.9566  0.2511
32362SOL     OW15077   4.434   6.098   1.088 -0.1867  0.0917  0.0241
32362SOL    HW115078   4.369   6.030   1.072 -1.1844  1.2741 -1.2313
32362SOL    HW215079   4.402   6.143   1.166  1.4385 -1.9116  1.9718
32363SOL     OW15080   9.119   8.492   4.542  0.2461  0.3156  0.4697
32363SOL    HW115081   9.030   8.519   4.564 -0.1396 -0.1238 -0.5195
32363SOL    HW215082   9.173   8.528   4.613 -0.9554 -1.2126  2.2576
32364SOL     OW15083  13.344   3.427   1.070 -0.2157  0.0940  0.4943
32364SOL    HW115084  13.348   3.517   1.039 -0.1046 -0.4925 -1.3366
32364SOL    HW215085  13.433   3.406   1.098 -0.0027  0.2394 -0.0658
32365SOL     OW15086  12.796   9.503  11.229 -0.4184  0.1920  0.0624
32365SOL    HW115087  12.843   9.423  11.249  1.0702  0.8891 -0.5005
32365SOL    HW215088  12.831   9.567  11.292  1.9723  1.5865 -2.4743
32366SOL     OW15089   4.144  10.844   9.949 -0.5802  0.0744 -0.5139
32366SOL    HW115090   4.185  10.927   9.923 -0.7151  0.2818 -0.0603
32366SOL    HW215091   4.168  10.783   9.878 -1.2122  0.7113 -1.2966
32367SOL     OW15092   2.502   9.224   7.010 -0.2377  0.0639  0.0368
32367SOL    HW115093   2.509   9.135   7.046  0.2540 -0.2340 -0.7758
32367SOL    HW215094   2.436   9.217   6.941 -1.3234  0.6795  0.9704
32368SOL     OW15095   8.019   5.431  12.713  0.1479 -0.4696  0.5200
32368SOL    HW115096   8.019   5.515  12.760 -0.4689 -0.1251 -0.0792
32368SOL    HW215097   7.970   5.372  12.769 -1.7031  0.2768 -0.2457
32369SOL     OW15098   1.282   3.698  10.628  0.1303 -0.6907  0.1422
32369SOL    HW115099   1.267   3.694  10.533  0.2765  0.0008  0.0915
32369SOL    HW215100   1.375   3.681  10.638  0.0847 -0.9274  0.1776
32370SOL     OW15101  10.336   3.155  13.633 -0.2014 -0.1182 -0.8736
32370SOL    HW115102  10.310   3.076  13.585 -1.6799  1.6593 -3.2499
32370SOL    HW215103  10.366   3.215  13.565 -0.3578  1.8330  0.6918
32371SOL     OW15104   1.666   7.533   6.238 -0.1529 -0.1516 -0.4461
32371SOL    HW115105   1.688   7.612   6.286  1.5780 -0.6419 -0.3755
32371SOL    HW215106   1.745   7.512   6.188 -0.8103 -1.4513 -0.9891
32372SOL     OW15107  13.582  10.398   8.669  0.3028 -0.2048  0.2141
32372SOL    HW115108  13.621  10.386   8.756 -0.5557 -0.5066  0.5695
32372SOL    HW215109  13.565  10.309   8.638  0.8187 -0.1079 -0.3747
32373SOL     OW15110  11.244   6.510   9.694 -0.2640  0.6624 -0.1971
32373SOL    HW115111  11.294   6.437   9.730 -0.4011 -1.0909 -3.2382
32373SOL    HW215112  11.260   6.582   9.755 -0.9376 -2.0561  3.5179
32374SOL     OW15113   6.823  10.517   8.097  0.3239 -0.0026  0.5570
32374SOL    HW115114   6.799  10.571   8.173  0.0457  0.5268  0.1031
32374SOL    HW215115   6.765  10.441   8.103 -0.1781  0.3709  0.4970
32375SOL     OW15116  13.426   0.984   1.061 -0.3551  0.0212 -0.2800
32375SOL    HW115117  13.361   0.992   0.991 -0.6822  1.6535  0.1721
32375SOL    HW215118  13.434   1.072   1.097  1.3870 -0.3456  0.3465
32376SOL     OW15119   3.533   7.008   5.806  0.2449  0.4154  0.1360
32376SOL    HW115120   3.491   7.076   5.858  1.4754  3.1735 -2.2047
32376SOL    HW215121   3.576   6.951   5.870  0.1320  2.5210  2.1895
32377SOL     OW15122  10.890  11.136  10.941  0.5699 -0.1868 -0.0970
32377SOL    HW115123  10.980  11.161  10.961  0.3450 -0.3082  1.1373
32377SOL    HW215124  10.888  11.041  10.954  0.5118 -0.3463 -1.1590
32378SOL     OW15125  11.542  10.286  11.889 -0.3703 -0.5955 -0.0163
32378SOL    HW115126  11.546  10.319  11.978 -1.4915  0.1434 -0.2181
32378SOL    HW215127  11.458  10.240  11.885 -1.5069  1.4443 -1.3429
32379SOL     OW15128   5.035  13.866   0.305  0.0065  0.1612  0.1396
32379SOL    HW115129   5.056  13.937   0.366  0.4283 -0.2087  0.4333
32379SOL    HW215130   5.110  13.806   0.311 -0.4781 -0.4624  0.1326
32380SOL     OW15131  10.370  12.223   7.725  0.3051  0.1307 -0.2521
32380SOL    HW115132  10.336  12.224   7.814  2.6160 -3.5772  0.8758
32380SOL    HW215133  10.455  12.266   7.732  0.7024 -0.6008 -0.5596
32381SOL     OW15134   2.863   9.152   0.123  0.2424  0.5510  0.1545
32381SOL    HW115135   2.770   9.153   0.100  0.4674 -0.5672 -0.9589
32381SOL    HW215136   2.866   9.111   0.210 -0.2597 -0.2011 -0.1648
32382SOL     OW15137   5.904   8.347   2.422 -0.2395 -1.0816 -0.4705
32382SOL    HW115138   5.963   8.383   2.488  0.2688 -2.2802 -0.2301
32382SOL    HW215139   5.816   8.371   2.451  0.1102  1.5302 -1.3142
32383SOL     OW15140  10.698   3.269   0.473 -0.7493 -0.1666  0.0522
32383SOL    HW115141  10.771   3.227   0.428 -0.8561  0.0810 -0.3634
32383SOL    HW215142  10.703   3.361   0.446 -1.4339 -0.2206 -0.2746
32384SOL     OW15143   0.875  12.474  11.353 -0.2351 -0.0912  0.2381
32384SOL    HW115144   0.860  12.567  11.337  0.1950 -0.4211 -2.6968
32384SOL    HW215145   0.788  12.438  11.370 -0.6099  0.5964 -0.1749
32385SOL     OW15146   5.869  13.109  13.120 -0.5617  0.2093 -0.1213
32385SOL    HW115147   5.824  13.187  13.086  1.0654  0.4846 -1.8344
32385SOL    HW215148   5.845  13.039  13.059  2.4812  0.7283 -2.1305
32386SOL     OW15149  11.841   5.343  12.984 -0.3733  0.4437  0.1647
32386SOL    HW115150  11.790   5.289  13.045  1.5192 -0.2293  1.2288
32386SOL    HW215151  11.908   5.384  13.039  1.4917 -0.3002 -1.4443
32387SOL     OW15152  12.099   2.556   8.186  0.2203  0.3008  0.2203
32387SOL    HW115153  12.082   2.649   8.201  0.2919  0.3603 -0.0541
32387SOL    HW215154  12.100   2.517   8.273  0.2906  0.5748  0.3421
32388SOL     OW15155  12.259  12.906   6.144 -0.2185  0.1901 -0.4419
32388SOL    HW115156  12.177  12.949   6.170 -0.0321 -0.5632  1.4955
32388SOL    HW215157  12.231  12.822   6.107 -0.3649  0.3744 -0.7569
32389SOL     OW15158   2.590   9.023   5.352  0.3192  0.0526  0.0094
32389SOL    HW115159   2.618   8.994   5.438 -0.2218 -0.6067 -0.0279
32389SOL    HW215160   2.500   8.992   5.344 -0.0960  1.2929 -0.2543
32390SOL     OW15161  12.059  10.873  13.475 -0.2596  0.3727  0.1742
32390SOL    HW115162  12.103  10.789  13.480  0.6835  0.7931 -0.6577
32390SOL    HW215163  11.989  10.868  13.541 -0.4842 -1.1900 -0.1481
32391SOL     OW15164   1.482   5.120   2.668  0.2763  0.6405 -0.0517
32391SOL    HW115165   1.416   5.148   2.605 -0.1712  2.3018  1.1062
32391SOL    HW215166   1.514   5.200   2.707  0.3196 -0.3338  2.0528
32392SOL     OW15167   8.925   4.778   2.374 -0.0976 -0.1529 -0.1286
32392SOL    HW115168   8.913   4.873   2.373  1.6448  0.1050  0.8933
32392SOL    HW215169   8.961   4.758   2.287  0.1073  0.2115 -0.1303
32393SOL     OW15170  10.452   1.362   6.605  0.2227 -0.1601 -0.1602
32393SOL    HW115171  10.470   1.310   6.683  0.3078 -0.7496 -0.5664
32393SOL    HW215172  10.356   1.369   6.603  0.2642  0.9019  0.6596
32394SOL     OW15173   5.125  10.797   0.595 -0.4145  0.0862  0.0570
32394SOL    HW115174   5.127  10.893   0.602  1.7356  0.0833  0.1540
32394SOL    HW215175   5.059  10.769   0.658 -2.2770  1.5658 -1.1404
32395SOL     OW15176  11.436   7.383   2.359 -0.7489 -0.1240 -0.6172
32395SOL    HW115177  11.462   7.296   2.328  0.1561 -0.4463  0.8995
32395SOL    HW215178  11.364   7.365   2.420 -0.3838  0.1503 -0.1009
32396SOL     OW15179   6.405  11.750   6.855  0.0864 -0.0260 -0.7268
32396SOL    HW115180   6.327  11.790   6.894  0.4858  2.1207 -1.9825
32396SOL    HW215181   6.372  11.671   6.812 -1.0404 -0.1889  0.3676
32397SOL     OW15182   2.272   4.455   9.658  0.7096  0.2305  0.3326
32397SOL    HW115183   2.347   4.441   9.717  0.4523  0.3604  0.6982
32397SOL    HW215184   2.215   4.515   9.707  1.4299  1.9616 -0.8781
32398SOL     OW15185   7.432  12.743  10.328  0.1615 -0.3144  0.0049
32398SOL    HW115186   7.431  12.755  10.233 -1.8643 -1.5704 -0.1903
32398SOL    HW215187   7.384  12.818  10.362 -0.7239 -0.7980 -0.1407
32399SOL     OW15188  14.157  11.701  10.555  0.1391  0.1900 -0.6294
32399SOL    HW115189  14.247  11.681  10.531  0.9282  2.4274  0.2138
32399SOL    HW215190  14.153  11.797  10.557 -1.4694  0.1770  2.0506
32400SOL     OW15191   6.373   1.591   5.195  0.4191  0.7030 -0.5700
32400SOL    HW115192   6.462   1.586   5.230  0.1034 -1.3699  0.0721
32400SOL    HW215193   6.328   1.652   5.253  0.5408 -0.8724  1.2970
32401SOL     OW15194  12.005   1.494   3.444  0.0259  0.4989  0.0863
32401SOL    HW115195  12.001   1.408   3.485 -1.0535  1.1779  1.5361
32401SOL    HW215196  12.008   1.477   3.350 -0.9954 -1.1073  0.3126
32402SOL     OW15197  12.812   1.909   8.128  0.0403 -0.4879 -0.2409
32402SOL    HW115198  12.722   1.881   8.140  0.3969 -2.4728 -1.6887
32402SOL    HW215199  12.857   1.880   8.208 -0.5908  0.6002  0.5291
32403SOL     OW15200  11.649   8.463   7.966 -0.0377 -0.0573 -0.3233
32403SOL    HW115201  11.632   8.390   8.026  0.6792  0.4738  0.5480
32403SOL    HW215202  11.715   8.429   7.905 -0.5784 -0.5170 -0.6585
32404SOL     OW15203  11.115   9.732   2.214 -0.4520 -0.0203  0.4455
32404SOL    HW115204  11.126   9.640   2.187  0.1521  0.5681 -1.4574
32404SOL    HW215205  11.051   9.767   2.152  0.4286  1.2345  0.2222
32405SOL     OW15206   1.403  11.059   4.935  0.0263 -0.1141 -0.3629
32405SOL    HW115207   1.383  11.142   4.891  1.5969  0.9008  0.7267
32405SOL    HW215208   1.331  11.001   4.911 -1.5461  1.8103 -0.5243
32406SOL     OW15209   4.437   9.064   0.339  0.1994 -0.7953 -0.0273
32406SOL    HW115210   4.465   9.154   0.323  1.7444 -1.2507 -0.0655
32406SOL    HW215211   4.356   9.055   0.289  0.8719  0.0946 -1.3577
32407SOL     OW15212   3.322   0.757  10.010 -0.6584 -0.4832  0.0445
32407SOL    HW115213   3.245   0.700  10.010 -0.7810 -0.4074  2.2671
32407SOL    HW215214   3.296   0.832   9.958 -1.1177 -1.6472 -1.4627
32408SOL     OW15215   5.497  11.378   0.770 -0.1561 -0.0702  0.7738
32408SOL    HW115216   5.569  11.441   0.762 -1.2405  1.0609 -0.7431
32408SOL    HW215217   5.533  11.297   0.735  0.4675  0.4318  0.2134
32409SOL     OW15218   6.737   9.081   6.736 -0.5023 -0.4617  0.2399
32409SOL    HW115219   6.772   8.996   6.709 -0.0976 -0.3124  0.2965
32409SOL    HW215220   6.729   9.075   6.831  0.6258 -0.0314  0.3804
32410SOL     OW15221  11.429   3.922   6.237  0.3518 -0.2311  0.1331
32410SOL    HW115222  11.348   3.973   6.236  0.5602  0.1284  0.9338
32410SOL    HW215223  11.434   3.887   6.326  1.6457  0.6712  0.4353
32411SOL     OW15224   9.158   3.062   1.836 -0.6052  0.2867 -0.0406
32411SOL    HW115225   9.172   2.968   1.847 -1.4395  0.2715  1.0957
32411SOL    HW215226   9.245   3.101   1.841 -0.3174 -0.3733  0.0908
32412SOL     OW15227   7.298  10.286   0.017  0.1388 -0.4826 -0.0191
32412SOL    HW115228   7.246  10.218   0.059  0.3224  0.5371  1.9737
32412SOL    HW215229   7.382  10.243  -0.004  0.2306 -0.9086  1.1463
32413SOL     OW15230  12.224   7.617  10.777 -0.9192  0.3938 -0.0003
32413SOL    HW115231  12.180   7.608  10.862 -0.4495  1.1289  0.3349
32413SOL    HW215232  12.252   7.528  10.756 -0.3028  0.3230  1.0324
32414SOL     OW15233   5.042  12.046   4.629 -0.1094  0.3945  0.4326
32414SOL    HW115234   5.007  11.986   4.696 -2.2992  1.2970  0.1977
32414SOL    HW215235   4.989  12.125   4.638  1.7015  1.7602 -0.2735
32415SOL     OW15236   9.290   8.969  12.246 -0.4343 -0.2831 -0.3974
32415SOL    HW115237   9.195   8.973  12.250 -0.4722  0.2807 -1.5461
32415SOL    HW215238   9.320   9.008  12.329 -1.1753  1.8162 -1.0580
32416SOL     OW15239   0.111   4.093   0.528 -0.4041  0.0072  0.2534
32416SOL    HW115240   0.158   4.177   0.526  1.3019 -0.8981 -1.5541
32416SOL    HW215241   0.068   4.088   0.443 -1.5346 -0.4261  0.8368
32417SOL     OW15242  10.982  12.314   0.774 -0.1895  0.3115 -0.2954
32417SOL    HW115243  11.028  12.239   0.811 -1.3793 -0.8510 -1.0902
32417SOL    HW215244  10.892  12.305   0.804 -0.1996  1.8783  0.2481
32418SOL     OW15245   4.477   2.283  10.384  0.0842  0.4265  0.3090
32418SOL    HW115246   4.476   2.209  10.444  0.6070  0.8423  0.8462
32418SOL    HW215247   4.525   2.251  10.308 -0.6338 -0.1229  0.0778
32419SOL     OW15248   5.088   7.599  11.622 -0.6533 -0.0163  0.1381
32419SOL    HW115249   5.158   7.645  11.576 -0.5573 -0.8382 -0.5589
32419SOL    HW215250   5.008   7.644  11.594 -0.5742 -0.3448 -0.6629
32420SOL     OW15251   9.440  13.885   5.435  0.1969 -0.3713 -0.0132
32420SOL    HW115252   9.397  13.883   5.349 -0.1385  0.5338  0.1122
32420SOL    HW215253   9.439  13.978   5.459  0.8563 -0.5409  0.6874
32421SOL     OW15254  12.495   5.866   8.575 -0.2073  0.0507  0.8636
32421SOL    HW115255  12.445   5.933   8.623 -0.9773  1.3642 -1.5834
32421SOL    HW215256  12.579   5.908   8.556 -0.9901  0.7739 -1.3974
32422SOL     OW15257   0.380   2.778  11.504  0.3789  0.0624 -0.4480
32422SOL    HW115258   0.433   2.854  11.478 -0.8184  0.5396 -1.5947
32422SOL    HW215259   0.443   2.718  11.545  1.9968  0.2362 -2.5027
32423SOL     OW15260   8.415   1.381   5.658  0.0827  0.5438  0.5568
32423SOL    HW115261   8.471   1.309   5.629 -0.2898  0.9060 -1.1797
32423SOL    HW215262   8.397   1.362   5.750  1.3216 -0.6968  0.5723
32424SOL     OW15263   5.620   7.217   1.103 -0.5251  0.9040 -0.3885
32424SOL    HW115264   5.707   7.191   1.074 -1.0822 -0.0192 -1.3027
32424SOL    HW215265   5.599   7.155   1.173 -0.7794  0.5843 -0.7446
32425SOL     OW15266   1.122  13.796   9.154  0.1208  0.7159 -0.0559
32425SOL    HW115267   1.127  13.876   9.205  0.8155  0.7924 -0.2319
32425SOL    HW215268   1.129  13.825   9.063 -2.6388  0.7301 -0.3295
32426SOL     OW15269   3.542   3.731  13.414  0.1851 -0.2579  0.6931
32426SOL    HW115270   3.626   3.705  13.375 -0.4514  1.2346 -1.9241
32426SOL    HW215271   3.560   3.816  13.455 -0.3219  0.8708 -1.3029
32427SOL     OW15272   9.729   7.117   5.065  0.2394 -0.9701 -0.2388
32427SOL    HW115273   9.717   7.052   5.134 -0.2922 -1.1336 -0.4772
32427SOL    HW215274   9.821   7.109   5.039  0.0736 -1.9214 -0.5572
32428SOL     OW15275  11.221  12.292  12.314  0.3783 -0.0182 -0.1893
32428SOL    HW115276  11.128  12.273  12.309  0.4157 -0.0657 -0.6902
32428SOL    HW215277  11.225  12.383  12.345  0.1547  0.2461 -0.9314
32429SOL     OW15278   7.640   2.261   0.861  0.3746  0.2347 -0.3410
32429SOL    HW115279   7.574   2.207   0.817  0.6782  0.5816 -1.2347
32429SOL    HW215280   7.663   2.328   0.797  0.1581  1.3055  0.6667
32430SOL     OW15281   7.567   4.337   6.678 -0.2019  0.8779 -0.4111
32430SOL    HW115282   7.552   4.274   6.607  0.0196  0.6337 -0.2452
32430SOL    HW215283   7.617   4.288   6.743  0.8607  1.5221 -0.7244
32431SOL     OW15284   8.291   2.719  13.742 -0.5515 -0.3113  0.3761
32431SOL    HW115285   8.198   2.725  13.760 -0.5767 -0.5596  0.3258
32431SOL    HW215286   8.297   2.709  13.647 -0.3874  1.9096  0.1058
32432SOL     OW15287   5.538   6.577   1.476 -0.3349  0.3145 -0.3282
32432SOL    HW115288   5.491   6.653   1.442 -0.2137 -0.4532 -2.3163
32432SOL    HW215289   5.470   6.522   1.515 -0.4730  1.2153  0.7698
32433SOL     OW15290   1.138  10.181   0.545 -0.1444 -0.3451 -0.1086
32433SOL    HW115291   1.087  10.111   0.504 -0.9598  0.2093 -0.0664
32433SOL    HW215292   1.120  10.173   0.638 -0.2782 -0.0462 -0.1078
32434SOL     OW15293   9.815   7.156  11.158 -0.2233  0.0014 -0.0531
32434SOL    HW115294   9.750   7.227  11.159 -1.1703 -0.8405  0.4584
32434SOL    HW215295   9.880   7.184  11.094 -1.8018  0.2537 -1.6254
32435SOL     OW15296  11.872   5.737   9.616 -0.3109  0.1174  0.1057
32435SOL    HW115297  11.938   5.677   9.650 -0.0869  0.7983  0.9083
32435SOL    HW215298  11.880   5.816   9.671 -0.7351  0.8006 -0.7849
32436SOL     OW15299   1.442  10.650   6.297 -0.7209 -0.3772  0.5738
32436SOL    HW115300   1.473  10.723   6.243  0.9759 -0.3170  1.5327
32436SOL    HW215301   1.521  10.597   6.313 -1.0981 -0.3241  3.0303
32437SOL     OW15302   3.687  10.796  13.237 -0.5126  0.0985 -0.5240
32437SOL    HW115303   3.725  10.708  13.241  1.9841  1.1295 -0.1887
32437SOL    HW215304   3.719  10.832  13.154 -0.0676  1.2810  0.1399
32438SOL     OW15305  10.102   6.120   8.884 -0.2275 -0.1821  0.2667
32438SOL    HW115306  10.084   6.111   8.791  0.6518 -2.5500  0.2538
32438SOL    HW215307  10.018   6.102   8.926 -1.0326  2.4968 -0.0278
32439SOL     OW15308  12.175   8.395  13.323  0.0605 -0.5302  0.0128
32439SOL    HW115309  12.240   8.394  13.394 -1.3167  0.1611  1.3350
32439SOL    HW215310  12.160   8.488  13.307 -0.3374 -0.6858 -0.5284
32440SOL     OW15311  11.190   7.941  12.975 -0.0557 -0.2195 -0.1581
32440SOL    HW115312  11.283   7.937  12.950  0.1614  0.8116  0.4076
32440SOL    HW215313  11.154   7.858  12.945  0.8038 -0.1955 -1.3669
32441SOL     OW15314   2.010  12.508   5.572  0.0618 -0.4336  0.2545
32441SOL    HW115315   2.064  12.580   5.540  0.6586  0.9729  3.9589
32441SOL    HW215316   1.924  12.548   5.586  0.3519 -0.3618  2.1671
32442SOL     OW15317   3.985   9.650  11.906  0.4513 -0.0751 -0.7345
32442SOL    HW115318   3.924   9.688  11.843 -1.4410 -4.9306 -2.2836
32442SOL    HW215319   4.058   9.618  11.853  1.9465  1.1198  0.4916
32443SOL     OW15320   4.689   3.620  13.751  0.4828  0.2107 -0.2168
32443SOL    HW115321   4.720   3.711  13.757  1.5837 -0.0071 -1.9103
32443SOL    HW215322   4.682   3.591  13.842  0.4473  1.8659  0.3462
32444SOL     OW15323  10.574  13.999   5.227 -0.4216 -0.2139  0.2289
32444SOL    HW115324  10.532  13.929   5.276 -3.0423  0.5811 -0.7408
32444SOL    HW215325  10.570  13.972   5.136 -0.3252  0.6300 -0.0372
32445SOL     OW15326  11.282   3.197   2.473 -0.1768  0.1558 -0.1700
32445SOL    HW115327  11.249   3.147   2.399 -1.4907 -0.1724  0.5919
32445SOL    HW215328  11.248   3.286   2.460  2.0117  0.8733 -1.4322
32446SOL     OW15329   9.775  11.976  11.955 -0.8431 -0.6909 -0.1055
32446SOL    HW115330   9.858  11.948  11.917 -1.2584 -0.5185 -1.1722
32446SOL    HW215331   9.786  11.964  12.049  0.7783  0.3920 -0.1270
32447SOL     OW15332   0.087  10.526   5.473  0.8563 -0.2244 -0.0112
32447SOL    HW115333   0.109  10.523   5.379 -0.1562 -1.1974 -0.2431
32447SOL    HW215334   0.033  10.604   5.482 -1.2322 -1.4867 -0.7975
32448SOL     OW15335   7.459   2.091   9.514 -0.3537  0.0133  0.5652
32448SOL    HW115336   7.495   2.017   9.562  1.1364  0.5480  0.3328
32448SOL    HW215337   7.430   2.152   9.581  0.3762  0.1243  0.7924
32449SOL     OW15338  11.994   3.781  11.333  0.3339 -0.2480  0.0934
32449SOL    HW115339  12.010   3.841  11.406 -2.1809  1.0621 -0.3390
32449SOL    HW215340  11.900   3.761  11.337  0.7911 -3.0919 -0.6505
32450SOL     OW15341   2.282   6.885   0.050 -0.5984  0.0104 -0.0106
32450SOL    HW115342   2.244   6.830   0.118 -0.2400  0.5631  0.6555
32450SOL    HW215343   2.210   6.941   0.022 -0.1456  1.7044  1.9069
32451SOL     OW15344  13.385   6.555   7.253 -0.4831 -0.3396 -0.0272
32451SOL    HW115345  13.363   6.648   7.260 -1.0700 -0.3378 -1.4641
32451SOL    HW215346  13.404   6.528   7.343  0.9964  1.4676  0.2777
32452SOL     OW15347  11.430   2.469   3.010  0.7320  0.5581 -0.4659
32452SOL    HW115348  11.372   2.413   3.062  1.1457  0.3133 -0.2670
32452SOL    HW215349  11.469   2.410   2.946  1.8828  0.4220  0.3399
32453SOL     OW15350   9.566  12.722  11.840 -0.0951 -0.1643  0.0813
32453SOL    HW115351   9.618  12.711  11.920  0.7524  0.0103 -0.4338
32453SOL    HW215352   9.627  12.705  11.769 -0.6311  0.4784 -0.5558
32454SOL     OW15353  14.100  10.094   8.557  0.2202  0.8475  0.5224
32454SOL    HW115354  14.162  10.087   8.630  0.5641  0.2072  0.1746
32454SOL    HW215355  14.128  10.173   8.511 -1.6881  2.8903  2.6197
32455SOL     OW15356   1.136  11.493   7.478  0.6560  0.1723  0.2370
32455SOL    HW115357   1.085  11.446   7.412  1.1633  0.3552 -0.2907
32455SOL    HW215358   1.125  11.441   7.558  2.3203 -1.6465 -0.6369
32456SOL     OW15359   0.426  11.632   3.455 -0.1802 -0.3991 -0.2284
32456SOL    HW115360   0.499  11.612   3.514  0.2991 -0.8843 -0.9568
32456SOL    HW215361   0.469  11.660   3.374 -0.8130 -0.6494 -0.6573
32457SOL     OW15362   4.138   1.368  12.079 -0.7625  0.1877  0.2273
32457SOL    HW115363   4.222   1.414  12.082 -0.5017 -0.2646 -0.1008
32457SOL    HW215364   4.150   1.299  12.014 -2.1075  1.5492 -1.5638
32458SOL     OW15365   6.367  13.944  12.933  0.2005 -0.1251 -0.4369
32458SOL    HW115366   6.293  13.985  12.977  0.3476 -0.0676 -0.2419
32458SOL    HW215367   6.428  13.922  13.004  0.8167  0.7298 -0.6780
32459SOL     OW15368   5.536  11.861  12.306 -0.9522  0.0540 -0.5051
32459SOL    HW115369   5.503  11.774  12.286 -2.0404 -0.4468  2.9520
32459SOL    HW215370   5.631  11.852  12.306 -1.0376 -0.9069 -0.9614
32460SOL     OW15371   7.559   5.708   3.507 -0.3015  0.2491  0.1689
32460SOL    HW115372   7.635   5.666   3.467 -0.0944  0.9354 -0.1601
32460SOL    HW215373   7.581   5.714   3.600 -0.0744  0.1906  0.1186
32461SOL     OW15374   2.374  10.523   1.112  0.9125 -0.5291 -0.1894
32461SOL    HW115375   2.323  10.463   1.057  0.0722  0.2981 -0.3326
32461SOL    HW215376   2.323  10.603   1.114  0.8662 -0.5671  1.8961
32462SOL     OW15377   3.818   8.986   8.913  0.0651 -0.6223  0.2654
32462SOL    HW115378   3.870   9.067   8.917  1.0475 -1.1668 -0.9182
32462SOL    HW215379   3.733   9.011   8.949  0.3484  0.9479 -0.0734
32463SOL     OW15380   5.957   5.808   9.744 -0.2338 -0.3810 -0.0467
32463SOL    HW115381   5.981   5.716   9.742 -0.8601 -0.5938  1.0898
32463SOL    HW215382   6.038   5.855   9.763  0.0469 -0.7173 -0.4279
32464SOL     OW15383  10.101   5.934   1.003  0.1724 -0.4549 -0.1106
32464SOL    HW115384  10.140   5.955   0.919 -0.0908 -0.3554 -0.2091
32464SOL    HW215385  10.101   6.017   1.051 -2.3621  0.1958 -1.1013
32465SOL     OW15386  12.815   6.326  13.089  0.2619  0.0312 -0.2401
32465SOL    HW115387  12.863   6.407  13.076 -0.6345  0.5458 -0.4158
32465SOL    HW215388  12.883   6.259  13.098  1.0160  0.8324  0.1751
32466SOL     OW15389   3.632  12.023  11.024 -0.0721  0.2949 -0.4073
32466SOL    HW115390   3.601  11.951  10.969 -0.7206 -0.3486  0.7592
32466SOL    HW215391   3.621  12.101  10.970 -3.0399  0.0060 -0.3922
32467SOL     OW15392   2.030   8.296   4.736 -0.3853 -0.5009  0.4583
32467SOL    HW115393   1.964   8.341   4.683 -0.2767 -0.3019  0.4904
32467SOL    HW215394   2.070   8.232   4.678 -0.8890 -0.9069  0.5470
32468SOL     OW15395   3.160   2.291   6.706  0.2947  0.3205 -0.0283
32468SOL    HW115396   3.157   2.380   6.671 -1.9025  0.0386 -0.7179
32468SOL    HW215397   3.144   2.234   6.631  1.7244 -0.6864  0.3873
32469SOL     OW15398   1.003   5.030  11.133  0.2040  0.3132  0.2960
32469SOL    HW115399   1.094   5.029  11.106  0.3383  1.2225  0.6860
32469SOL    HW215400   0.975   5.121  11.122 -0.5157  0.1476  0.6519
32470SOL     OW15401   6.034  10.096   2.136 -0.2981  0.2298  0.0196
32470SOL    HW115402   6.127  10.115   2.128 -0.4489  1.0848  0.1057
32470SOL    HW215403   6.027  10.001   2.132  0.7304  0.0560  1.5153
32471SOL     OW15404  14.042   7.206   9.280  0.3594  0.2691  0.6340
32471SOL    HW115405  13.951   7.236   9.287 -0.0620 -0.9880  0.7732
32471SOL    HW215406  14.059   7.203   9.186  0.4331  0.9822  0.6181
32472SOL     OW15407   6.929   2.086  10.658  0.2396 -0.6021  0.0869
32472SOL    HW115408   7.025   2.086  10.656  0.2309 -0.7963 -0.3411
32472SOL    HW215409   6.904   2.152  10.593  0.0943  0.4477  1.1579
32473SOL     OW15410   9.365  12.526  13.084 -0.7091 -0.1068  0.3080
32473SOL    HW115411   9.309  12.496  13.013 -0.5903  0.2620  0.0545
32473SOL    HW215412   9.403  12.608  13.052 -1.1724  0.4200  1.0451
32474SOL     OW15413   6.002  10.961  11.659 -0.0520 -0.5638  0.2746
32474SOL    HW115414   6.060  10.889  11.685  0.1392 -0.3033  0.5887
32474SOL    HW215415   6.010  10.966  11.564  1.5563  0.3723  0.4229
32475SOL     OW15416  12.150   2.257   8.815 -0.4958  0.1549 -0.0324
32475SOL    HW115417  12.187   2.262   8.727 -0.3242  0.0704  0.0339
32475SOL    HW215418  12.126   2.347   8.836  0.3032  0.3269  0.1890
32476SOL     OW15419  11.559   3.051   2.434 -0.5693  0.1524  0.4257
32476SOL    HW115420  11.649   3.084   2.431 -0.5042  0.0473  0.9991
32476SOL    HW215421  11.510   3.120   2.479 -0.5777 -0.2043  0.9760
32477SOL     OW15422   0.093  12.379   8.857 -0.4757 -0.4887  0.1846
32477SOL    HW115423   0.105  12.349   8.947  0.2062 -0.4503  0.1092
32477SOL    HW215424   0.118  12.471   8.859  0.3273 -0.6845 -0.2010
32478SOL     OW15425   5.882   4.931  11.821 -0.1241 -0.0665 -0.0927
32478SOL    HW115426   5.849   4.888  11.742  0.8578 -0.0996 -0.4985
32478SOL    HW215427   5.956   4.984  11.790 -0.7483  1.2205  0.5453
32479SOL     OW15428  11.849   3.005  10.646  0.0887  0.2397  0.2620
32479SOL    HW115429  11.783   2.966  10.703  1.6114  0.0371  1.9790
32479SOL    HW215430  11.828   3.099  10.647 -1.7579 -0.0673 -1.4558
32480SOL     OW15431  10.930   5.975   5.297 -0.2531  0.2591  0.1201
32480SOL    HW115432  10.851   6.016   5.334  0.4645 -0.8485  3.1397
32480SOL    HW215433  10.987   6.049   5.277 -1.0151  0.9663  0.4821
32481SOL     OW15434   4.673  10.680   7.015  0.6399  0.3840 -0.2749
32481SOL    HW115435   4.588  10.721   7.032 -1.1643 -3.6611  1.6406
32481SOL    HW215436   4.726  10.703   7.092  0.2098  0.3731  0.0301
32482SOL     OW15437   1.501   9.204  12.084  0.1203 -0.1286  0.3361
32482SOL    HW115438   1.446   9.145  12.137 -0.0565  1.2118  1.7252
32482SOL    HW215439   1.573   9.228  12.142  0.8319  0.0831 -0.6211
32483SOL     OW15440   7.666   4.100   7.101 -0.6322 -0.3254  0.0161
32483SOL    HW115441   7.670   4.194   7.121 -1.0145 -0.5248  1.1053
32483SOL    HW215442   7.574   4.077   7.113 -0.9987 -0.4005 -2.4675
32484SOL     OW15443   7.559  13.376  12.324 -0.0299  0.1556  0.1295
32484SOL    HW115444   7.513  13.459  12.339 -0.2467 -0.1063  0.9452
32484SOL    HW215445   7.504  13.310  12.365  1.4595 -0.0630  1.8969
32485SOL     OW15446  13.162   9.134   5.954 -0.3832  0.1712 -0.1327
32485SOL    HW115447  13.205   9.087   5.882  1.6215 -0.7313  1.5422
32485SOL    HW215448  13.224   9.204   5.976 -0.2393 -0.4663  1.6433
32486SOL     OW15449   7.515  10.494   1.683  0.0510  0.1747 -0.3387
32486SOL    HW115450   7.585  10.499   1.618  0.8538 -1.7446  0.3078
32486SOL    HW215451   7.555  10.526   1.764  0.3621 -1.3477  0.1369
32487SOL     OW15452   7.692   7.517   6.818  0.6732  0.3083 -0.0874
32487SOL    HW115453   7.736   7.585   6.869  2.4054  0.2482 -1.4322
32487SOL    HW215454   7.600   7.525   6.843  1.3603  0.5316  2.7270
32488SOL     OW15455   2.858  10.487   0.091  0.0892  0.7363 -0.0125
32488SOL    HW115456   2.906  10.560   0.130 -1.6933  1.8027  0.3238
32488SOL    HW215457   2.826  10.436   0.166 -0.5627  0.9061 -0.1689
32489SOL     OW15458  12.270   9.883   8.567 -0.1685 -0.3102  0.5264
32489SOL    HW115459  12.232   9.965   8.597  0.6802 -0.2773  1.5771
32489SOL    HW215460  12.223   9.815   8.617 -1.4136 -0.5650 -0.8944
32490SOL     OW15461  10.343   0.973   4.126  0.3402  0.0833 -0.2940
32490SOL    HW115462  10.334   0.881   4.150 -0.3019 -0.2524 -1.7653
32490SOL    HW215463  10.429   0.999   4.161 -0.3222 -0.4760  1.9158
32491SOL     OW15464   7.153   8.354  11.757 -0.1829 -0.0668  0.0786
32491SOL    HW115465   7.168   8.357  11.662 -0.6935  1.2397  0.0204
32491SOL    HW215466   7.206   8.280  11.787  1.6668  0.7913 -0.9315
32492SOL     OW15467   0.018   6.514  12.252 -0.0989 -0.4064  0.5785
32492SOL    HW115468   0.078   6.467  12.310 -0.6100  1.6671  2.9928
32492SOL    HW215469   0.074   6.550  12.183  1.1640 -0.0566  1.7428
32493SOL     OW15470   7.772   1.323  13.996 -0.0731  0.0032  0.1984
32493SOL    HW115471   7.834   1.358  13.932  0.4974 -0.8908  0.2421
32493SOL    HW215472   7.820   1.324  14.079 -0.5683  0.4982  0.4911
32494SOL     OW15473   5.862   3.407  12.812 -0.1092 -0.0400  0.3147
32494SOL    HW115474   5.896   3.324  12.845 -0.4097 -0.2394  0.1274
32494SOL    HW215475   5.896   3.473  12.873 -0.2663 -0.3546  0.7502
32495SOL     OW15476   3.557   0.203  12.126 -0.1893  0.3126 -0.5510
32495SOL    HW115477   3.601   0.282  12.094  0.3499 -0.0879 -0.8107
32495SOL    HW215478   3.520   0.162  12.048 -0.8127  0.5092 -0.3675
32496SOL     OW15479   9.063  11.830   7.756  0.1064 -0.3232  0.3163
32496SOL    HW115480   9.060  11.925   7.741 -0.1664 -0.3916 -0.0846
32496SOL    HW215481   8.971  11.802   7.753  0.1242 -0.5055  1.1007
32497SOL     OW15482  13.275   2.615  13.574 -0.4926  0.7754  0.1575
32497SOL    HW115483  13.240   2.545  13.628  1.1705 -0.6982 -0.5687
32497SOL    HW215484  13.281   2.690  13.633 -1.2488  0.0089  1.2608
32498SOL     OW15485   9.880   7.332   6.811 -0.0993  0.1954  0.2559
32498SOL    HW115486   9.938   7.338   6.888 -1.4910 -0.9294  1.4615
32498SOL    HW215487   9.931   7.370   6.740  1.9050 -0.2364  1.3662
32499SOL     OW15488   2.196   6.125   9.257 -0.0589 -0.0333 -0.3012
32499SOL    HW115489   2.148   6.049   9.225  0.4407 -0.6776  0.4452
32499SOL    HW215490   2.133   6.197   9.253 -0.9361 -0.7564  0.1923
32500SOL     OW15491   2.765  11.167   9.446  0.0286 -0.0917  0.3090
32500SOL    HW115492   2.742  11.076   9.429  0.5200  0.1441 -1.9407
32500SOL    HW215493   2.687  11.217   9.421  1.0609  0.3354 -2.3148
32501SOL     OW15494  12.287   4.427   2.446  0.5469 -0.0647  0.5851
32501SOL    HW115495  12.205   4.475   2.456  0.9621  0.7098  0.3671
32501SOL    HW215496  12.355   4.493   2.458  1.1367 -0.6061  0.3015
32502SOL     OW15497  10.677  11.680   1.605  0.1138  0.5709  0.4371
32502SOL    HW115498  10.662  11.772   1.627  0.8324  1.0099 -0.7940
32502SOL    HW215499  10.727  11.645   1.680  2.1572  1.9078 -0.2316
32503SOL     OW15500  13.121  10.233  13.471 -0.2738  0.0639  0.2285
32503SOL    HW115501  13.161  10.208  13.554 -3.6696 -2.0406  1.4641
32503SOL    HW215502  13.158  10.172  13.407 -1.2198 -1.7341  1.3071
32504SOL     OW15503   6.447   0.465  12.533  0.3631  0.6587  0.0640
32504SOL    HW115504   6.443   0.394  12.469  0.7704 -1.7169  2.5209
32504SOL    HW215505   6.360   0.503  12.532 -0.8139 -1.8419  0.7126
32505SOL     OW15506   2.473   9.868   7.589 -0.0789 -0.4048  0.2535
32505SOL    HW115507   2.418   9.896   7.662  0.6973 -0.9625  1.0782
32505SOL    HW215508   2.433   9.908   7.512 -1.5637 -0.7061  0.8364
32506SOL     OW15509   9.705   1.484  13.992  0.1799  0.6382 -0.1429
32506SOL    HW115510   9.700   1.392  13.963  0.3914  0.3162  0.8009
32506SOL    HW215511   9.621   1.522  13.964 -0.6760 -0.3164  0.9801
32507SOL     OW15512  10.147   3.640  12.804  0.8979 -0.3348 -0.4051
32507SOL    HW115513  10.213   3.576  12.830 -0.0998 -1.0665  0.4364
32507SOL    HW215514  10.069   3.587  12.785  0.4219  0.5377 -0.9487
32508SOL     OW15515  10.993  12.678   1.528  0.9045  0.1013  0.2040
32508SOL    HW115516  10.900  12.699   1.537  1.0273  0.1249  1.6858
32508SOL    HW215517  11.020  12.654   1.617  2.1184 -0.7243 -0.3680
32509SOL     OW15518   7.469   3.923   7.337 -0.3057 -0.2039  0.3547
32509SOL    HW115519   7.551   3.886   7.369  0.6298  1.4040 -0.0363
32509SOL    HW215520   7.413   3.847   7.320  1.5637 -1.4495 -0.6151
32510SOL     OW15521   9.265   9.010   7.059 -0.3669  0.1558  0.0699
32510SOL    HW115522   9.314   8.993   6.978 -1.3613 -0.9805 -0.3271
32510SOL    HW215523   9.218   8.929   7.075  0.7299 -0.0772  2.4913
32511SOL     OW15524   5.041   4.709   3.251 -0.3268  0.5799 -0.2615
32511SOL    HW115525   5.086   4.781   3.207  1.2249 -0.5135 -0.5719
32511SOL    HW215526   5.058   4.724   3.344  2.5726 -0.8796 -0.4388
32512SOL     OW15527   0.376  12.507   1.054  0.3311  0.1058 -0.1725
32512SOL    HW115528   0.406  12.596   1.036 -1.1783  0.6046 -0.3704
32512SOL    HW215529   0.371  12.465   0.968 -0.8828  0.4863 -0.2991
32513SOL     OW15530   0.092   7.432  11.932 -0.4292 -0.6402  0.5534
32513SOL    HW115531   0.060   7.520  11.954  0.0508 -0.7090  1.5955
32513SOL    HW215532   0.150   7.409  12.005  0.8564 -1.0960 -0.5833
32514SOL     OW15533   0.647  14.119   6.278  0.7685 -0.5832 -0.1864
32514SOL    HW115534   0.626  14.161   6.362  2.2215 -0.5888  0.2189
32514SOL    HW215535   0.672  14.192   6.221  1.3843 -0.7095 -0.0880
32515SOL     OW15536  11.959  10.288   0.463 -0.4617  0.3198 -0.2947
32515SOL    HW115537  11.985  10.353   0.397  0.1908  0.2437 -0.1245
32515SOL    HW215538  11.913  10.221   0.413 -0.8475  0.7493 -0.5251
32516SOL     OW15539   4.465   2.756  13.550 -0.3705  0.9292 -0.7310
32516SOL    HW115540   4.525   2.831  13.548 -0.8919  1.3481 -2.2448
32516SOL    HW215541   4.486   2.711  13.631  1.4586  1.4974 -0.8409
32517SOL     OW15542   9.477   4.995  10.396  0.4782 -0.5171 -0.3026
32517SOL    HW115543   9.474   5.083  10.433 -0.5280 -1.0229  0.8788
32517SOL    HW215544   9.548   4.952  10.443  1.5606 -0.1110 -1.4929
32518SOL     OW15545   2.929  10.413   4.117  0.0033  0.5664  0.1644
32518SOL    HW115546   2.929  10.399   4.023  1.1818  0.4862  0.1572
32518SOL    HW215547   2.846  10.377   4.147 -0.3613  0.5465 -0.8284
32519SOL     OW15548  11.551   5.187   8.325 -0.2636  0.5023  0.2087
32519SOL    HW115549  11.585   5.098   8.338 -1.7636  0.2496  3.3282
32519SOL    HW215550  11.476   5.175   8.266  0.7744  0.0426 -1.0476
32520SOL     OW15551  11.278   8.453   2.924 -0.1241 -0.7066 -0.3228
32520SOL    HW115552  11.286   8.376   2.867 -0.2199 -0.4892 -0.6326
32520SOL    HW215553  11.368   8.478   2.944 -0.0880 -0.7439 -0.4359
32521SOL     OW15554   7.104   5.850   6.643  0.2630  0.3055 -0.2743
32521SOL    HW115555   7.112   5.896   6.560 -2.1744  1.8645  0.2460
32521SOL    HW215556   7.086   5.918   6.707  2.0060 -0.8673  1.5776
32522SOL     OW15557  13.663   2.709  12.270 -0.2188  0.0746  0.3428
32522SOL    HW115558  13.601   2.719  12.197  0.9893  0.2155 -0.6892
32522SOL    HW215559  13.613   2.736  12.347 -0.7260  2.5291 -0.7591
32523SOL     OW15560   7.749  13.822   4.704 -0.8978  0.0008  0.0743
32523SOL    HW115561   7.692  13.758   4.662  0.9471 -2.6056  1.2942
32523SOL    HW215562   7.730  13.815   4.798 -1.6987  2.3919  0.1620
32524SOL     OW15563  11.045   3.403   7.450  0.3597 -0.3295  0.0021
32524SOL    HW115564  11.084   3.372   7.532 -1.0117 -0.6711  0.5599
32524SOL    HW215565  10.973   3.342   7.434  1.1379 -0.7890 -1.9413
32525SOL     OW15566   6.820   6.916   2.705 -0.3215  0.0024  0.2813
32525SOL    HW115567   6.853   6.895   2.792 -1.6826  1.9868  1.3620
32525SOL    HW215568   6.827   7.011   2.699 -1.9121  0.0872 -1.0404
32526SOL     OW15569   1.888   2.356   3.499  0.1014  0.6710  0.1999
32526SOL    HW115570   1.906   2.359   3.593  0.4709  1.0966  0.1127
32526SOL    HW215571   1.916   2.441   3.466  2.8241 -0.5341 -0.8144
32527SOL     OW15572   5.913  10.378   7.594  0.0232 -0.4309 -0.3506
32527SOL    HW115573   5.860  10.335   7.527  0.5923  0.7125 -1.5750
32527SOL    HW215574   5.918  10.314   7.665 -1.4728 -1.2635 -0.9488
32528SOL     OW15575   7.787   7.628   1.886  0.0961  0.2249  0.0232
32528SOL    HW115576   7.737   7.627   1.804 -1.1350 -1.5001  0.7468
32528SOL    HW215577   7.850   7.699   1.874 -0.7112  0.6742 -2.0168
32529SOL     OW15578   0.675   9.917  13.232  0.6104  0.3013  0.1773
32529SOL    HW115579   0.752   9.913  13.174  0.4442  2.5415 -0.2850
32529SOL    HW215580   0.708   9.890  13.317  1.5443 -0.2551 -0.3398
32530SOL     OW15581   7.106   5.747   9.683 -0.1769 -0.2514  1.0752
32530SOL    HW115582   7.081   5.790   9.601 -0.2657  2.2519  2.3257
32530SOL    HW215583   7.166   5.677   9.656  1.5458  1.8647 -1.0267
32531SOL     OW15584   0.651   2.136  12.613  0.2266 -0.4315 -0.2737
32531SOL    HW115585   0.562   2.164  12.635 -0.0718  0.4047 -2.3599
32531SOL    HW215586   0.707   2.184  12.674 -0.5491  1.8756 -1.2645
32532SOL     OW15587  11.597  13.002   1.202  0.5427 -0.2802  0.4160
32532SOL    HW115588  11.594  12.939   1.274 -0.2669 -1.7828 -0.8658
32532SOL    HW215589  11.687  13.035   1.203  0.9128 -1.2636  1.2872
32533SOL     OW15590   0.063   2.693  10.180 -0.2547  0.4726 -0.1557
32533SOL    HW115591   0.023   2.764  10.131 -1.2388  0.3395  0.4391
32533SOL    HW215592   0.074   2.622  10.116 -1.3566  0.3623 -0.2422
32534SOL     OW15593   3.173   2.556  12.264  0.5110 -0.5450 -0.4029
32534SOL    HW115594   3.261   2.527  12.287  1.4025  0.1433 -2.6033
32534SOL    HW215595   3.166   2.644  12.301  0.2365 -1.0956  0.8742
32535SOL     OW15596   4.197   6.847  12.715  0.1577 -0.3536  0.2959
32535SOL    HW115597   4.229   6.906  12.647 -0.7964 -0.4420 -0.2643
32535SOL    HW215598   4.254   6.862  12.790  2.0426 -1.1464 -0.8992
32536SOL     OW15599   3.485  11.641   0.550 -0.3927 -0.0628  0.5539
32536SOL    HW115600   3.450  11.724   0.582 -2.4241  1.3579 -4.3991
32536SOL    HW215601   3.413  11.579   0.559 -1.4256  0.6545 -1.8908
32537SOL     OW15602   7.554  10.776   9.699 -0.5932  0.2361  0.2490
32537SOL    HW115603   7.555  10.743   9.609  2.0443  1.4072 -0.2464
32537SOL    HW215604   7.557  10.871   9.690  1.5974  0.3660  1.4585
32538SOL     OW15605   2.770   2.072  10.096  0.0792  0.0036 -0.0735
32538SOL    HW115606   2.823   2.014  10.151  0.1284 -0.2467 -0.3785
32538SOL    HW215607   2.732   2.135  10.157  1.0814  0.4612  0.1128
32539SOL     OW15608  10.696  13.416   3.989 -0.2250 -0.0058 -0.2322
32539SOL    HW115609  10.740  13.332   3.981 -0.1794  0.0323 -0.3795
32539SOL    HW215610  10.606  13.399   3.960 -0.0484  0.1441 -0.8743
32540SOL     OW15611   8.371   5.066   1.118 -0.2743 -0.3080  0.4194
32540SOL    HW115612   8.346   4.975   1.131  0.2689 -0.4432  0.5571
32540SOL    HW215613   8.348   5.085   1.027  1.8444 -1.3472 -0.4061
32541SOL     OW15614   2.131  13.353  10.626 -0.3026 -0.3333  0.4079
32541SOL    HW115615   2.044  13.321  10.648 -0.5756  1.1667  1.6777
32541SOL    HW215616   2.120  13.401  10.544 -0.8282  0.4719  0.9419
32542SOL     OW15617  11.445   6.353   7.932  0.1642 -0.0051  0.0546
32542SOL    HW115618  11.359   6.357   7.974  0.9401  0.6677  1.6207
32542SOL    HW215619  11.434   6.404   7.852 -0.2097  2.3865  1.5430
32543SOL     OW15620  10.980   9.118   6.515 -0.3534  0.5917  0.3678
32543SOL    HW115621  11.049   9.067   6.471  1.2425  2.1884  0.8875
32543SOL    HW215622  10.959   9.067   6.593  0.9331  0.4755  0.6746
32544SOL     OW15623   2.977  12.157   6.293  0.5944 -0.4263  0.3237
32544SOL    HW115624   2.945  12.067   6.286 -1.5825  0.3370 -0.4137
32544SOL    HW215625   3.022  12.173   6.210 -1.8022  0.0914 -0.9867
32545SOL     OW15626  10.820   0.341  14.157  0.7950  0.1835 -0.1293
32545SOL    HW115627  10.806   0.251  14.128  1.0240  0.5720 -1.5055
32545SOL    HW215628  10.734   0.370  14.186  0.5589 -0.2362 -0.3905
32546SOL     OW15629   0.653  10.008   0.317 -0.6123 -0.2078 -0.4158
32546SOL    HW115630   0.698  10.092   0.323 -0.8838 -0.0802 -0.0936
32546SOL    HW215631   0.560  10.030   0.321 -0.6898 -0.6306  1.7459
32547SOL     OW15632  11.194  12.760   1.269 -0.5086 -0.2992  0.3832
32547SOL    HW115633  11.200  12.825   1.199  1.4710 -1.3063 -0.4653
32547SOL    HW215634  11.150  12.806   1.341 -1.8745  1.0137 -1.1966
32548SOL     OW15635   3.936  11.701   8.151  0.5782  0.0947  0.2369
32548SOL    HW115636   3.937  11.795   8.137 -1.0034 -0.0205 -1.0912
32548SOL    HW215637   4.011  11.683   8.206  2.8679  1.7336 -2.1101
32549SOL     OW15638  11.017   5.479   9.472 -0.8144 -0.0424 -0.0052
32549SOL    HW115639  10.971   5.548   9.519 -2.0752 -0.3459 -0.7432
32549SOL    HW215640  11.057   5.425   9.541 -2.0053 -0.0648  0.6921
32550SOL     OW15641   1.951   9.005  10.920  0.4135  0.0194 -0.3642
32550SOL    HW115642   1.877   9.020  10.979 -0.6256 -0.8545 -1.3923
32550SOL    HW215643   1.959   9.085  10.869 -0.8273 -0.4200 -1.2860
32551SOL     OW15644  10.789  12.407   3.558 -0.0998 -0.4596  0.2485
32551SOL    HW115645  10.766  12.346   3.487  0.2891 -0.9015  0.4946
32551SOL    HW215646  10.774  12.357   3.638 -1.6019  0.4034  0.5297
32552SOL     OW15647  13.254  13.885   2.477  0.1080 -0.2865  0.4004
32552SOL    HW115648  13.349  13.878   2.477  0.0439 -2.8123  2.6430
32552SOL    HW215649  13.225  13.815   2.418 -0.3576 -0.1232  0.4292
32553SOL     OW15650  12.932  14.008   6.460  0.0191  0.3627 -0.1394
32553SOL    HW115651  12.880  13.947   6.408  0.7327 -0.2069 -0.2070
32553SOL    HW215652  12.882  14.090   6.458 -1.0209 -0.2520  0.0721
32554SOL     OW15653   5.776   6.593   3.659 -0.2139 -0.4423 -0.2706
32554SOL    HW115654   5.749   6.618   3.570 -0.0870  0.5377 -0.0476
32554SOL    HW215655   5.702   6.542   3.693  0.0109 -1.3984 -1.1677
32555SOL     OW15656   7.242   8.427  13.584  0.2174  0.2632  1.0133
32555SOL    HW115657   7.235   8.519  13.608  1.4480  0.8948 -0.8377
32555SOL    HW215658   7.332   8.417  13.553 -0.6761 -0.8665 -1.4938
32556SOL     OW15659   8.858  12.834   2.160 -0.0477  0.0431 -0.0029
32556SOL    HW115660   8.837  12.838   2.254 -0.4643  1.7571 -0.1243
32556SOL    HW215661   8.847  12.742   2.137 -3.3797  0.0618  0.9022
32557SOL     OW15662  11.659   2.134   2.265  0.6158  0.2199 -0.3472
32557SOL    HW115663  11.725   2.132   2.334 -0.3192  0.4935  0.5828
32557SOL    HW215664  11.693   2.076   2.197  0.5900 -1.7817  1.2558
32558SOL     OW15665   6.440   2.182   6.200 -0.3718 -0.6556  0.6848
32558SOL    HW115666   6.416   2.222   6.117 -0.9337  0.3752  1.3230
32558SOL    HW215667   6.467   2.093   6.177  1.7074  0.2920 -0.8651
32559SOL     OW15668   9.585  12.468   2.311  0.5610  0.7460  0.4351
32559SOL    HW115669   9.552  12.379   2.316  2.4178 -0.1680 -1.8267
32559SOL    HW215670   9.514  12.522   2.345 -0.9702 -1.4943  0.9939
32560SOL     OW15671  12.101  13.950  10.240  0.0919 -0.3710  0.3561
32560SOL    HW115672  12.115  13.882  10.174  0.6587 -1.1411  1.2333
32560SOL    HW215673  12.189  13.981  10.261  0.2152 -1.9875  2.5980
32561SOL     OW15674   1.097  13.779   4.431 -0.1792  0.2554 -0.0978
32561SOL    HW115675   1.073  13.686   4.432 -0.3181  0.2954  0.1790
32561SOL    HW215676   1.066  13.810   4.346  0.3473 -0.0770 -0.4211
32562SOL     OW15677  11.003  12.481  11.989  0.3410  0.1320 -0.7449
32562SOL    HW115678  11.068  12.411  11.976  0.2682  0.4341 -3.2275
32562SOL    HW215679  11.036  12.554  11.938 -1.5365  0.5570 -1.4316
32563SOL     OW15680   0.579   9.855  10.759  0.2875 -0.4794  0.1875
32563SOL    HW115681   0.673   9.834  10.764  0.0873 -1.1116  1.9761
32563SOL    HW215682   0.557   9.888  10.846 -1.0742  0.0634 -0.3412
32564SOL     OW15683   1.040   1.552   0.392 -0.0689 -0.4962 -0.2072
32564SOL    HW115684   1.128   1.515   0.381 -0.2545 -0.7507 -0.9306
32564SOL    HW215685   0.983   1.475   0.399 -0.3379 -0.3433 -0.6812
32565SOL     OW15686   8.914  13.393   6.553 -0.1198 -0.4431 -0.1244
32565SOL    HW115687   8.893  13.357   6.639 -3.7802  1.3217 -0.1055
32565SOL    HW215688   8.888  13.324   6.492 -1.6119 -0.1186  0.1060
32566SOL     OW15689   0.686  13.198  11.235 -0.0497 -0.3716  0.4559
32566SOL    HW115690   0.642  13.147  11.302  0.6440 -2.2601 -0.4604
32566SOL    HW215691   0.616  13.248  11.193 -0.9586 -1.5561  0.5331
32567SOL     OW15692   1.715   5.048  10.964  0.0027 -0.6360 -0.0882
32567SOL    HW115693   1.717   4.959  10.928  0.4677 -0.7614  0.2362
32567SOL    HW215694   1.749   5.103  10.894  0.7863 -0.8644  0.0945
32568SOL     OW15695   8.134   0.889   3.614 -0.4849 -0.2762  0.0248
32568SOL    HW115696   8.225   0.862   3.601 -1.1613 -2.0213 -1.5103
32568SOL    HW215697   8.099   0.823   3.674 -0.7510  0.4163  0.6430
32569SOL     OW15698   4.495   9.824  12.717 -0.1755 -0.1393 -0.9467
32569SOL    HW115699   4.569   9.879  12.743  0.0197 -0.2170 -1.3298
32569SOL    HW215700   4.533   9.737  12.703 -0.6255 -0.6090  0.5207
32570SOL     OW15701   0.953  11.146   8.975 -0.4002  0.6737 -0.6382
32570SOL    HW115702   0.861  11.157   8.951 -0.5962 -0.2104 -0.3252
32570SOL    HW215703   0.979  11.065   8.931 -0.1135  0.2757  0.2501
32571SOL     OW15704   8.257   6.898   9.928 -0.0744 -0.7184  0.2528
32571SOL    HW115705   8.196   6.876   9.998 -0.9431  1.1852  0.1299
32571SOL    HW215706   8.201   6.920   9.853  0.8266 -1.6812 -0.7432
32572SOL     OW15707  12.683   5.821  10.456  0.2198 -0.7623  0.4752
32572SOL    HW115708  12.669   5.906  10.498  1.7575  0.7968 -1.9850
32572SOL    HW215709  12.777   5.806  10.461  0.1437 -1.6568 -0.3447
32573SOL     OW15710   9.859   2.614   0.059  0.7344 -0.0527 -0.4647
32573SOL    HW115711   9.934   2.628   0.001  1.0753  0.7588  0.1694
32573SOL    HW215712   9.894   2.621   0.147 -0.1182  0.5239 -0.1564
32574SOL     OW15713   1.073   6.841   9.601 -0.2986  0.6226  0.4592
32574SOL    HW115714   1.082   6.774   9.669 -0.0885  3.3515  3.3107
32574SOL    HW215715   0.979   6.857   9.596 -0.3405  0.2471 -0.1693
32575SOL     OW15716   5.194   6.468   5.655  0.5470  0.1729  0.0093
32575SOL    HW115717   5.261   6.476   5.587  2.0833 -1.3083  1.2423
32575SOL    HW215718   5.238   6.421   5.726 -1.7218 -0.5336  1.0486
32576SOL     OW15719   2.951   9.894   4.218  0.5382 -0.1574 -0.4328
32576SOL    HW115720   3.034   9.847   4.227  0.7228  0.1272 -0.6163
32576SOL    HW215721   2.975   9.977   4.177  0.3350  0.4535  0.6404
32577SOL     OW15722   4.922   1.709  10.464 -0.1902 -0.0563  0.0393
32577SOL    HW115723   4.860   1.773  10.501 -0.3539 -0.4415  0.4426
32577SOL    HW215724   4.975   1.681  10.539 -0.8193 -1.1799  0.0881
32578SOL     OW15725   6.588   4.510  12.948  0.0797  0.2343 -0.1547
32578SOL    HW115726   6.526   4.469  12.888 -0.7968 -1.3492  1.7099
32578SOL    HW215727   6.638   4.437  12.986  0.9238  1.2055  0.6855
32579SOL     OW15728   7.786   6.162   9.035  0.0980 -0.4781  0.3576
32579SOL    HW115729   7.833   6.243   9.016 -1.6409  0.4296 -0.2577
32579SOL    HW215730   7.830   6.126   9.112  2.9339 -0.6434 -1.1650
32580SOL     OW15731   6.216   0.679   4.712 -0.2980  0.2842 -0.2320
32580SOL    HW115732   6.142   0.663   4.653 -0.6632  0.6438  0.1294
32580SOL    HW215733   6.178   0.673   4.800 -0.0330  1.1186 -0.0564
32581SOL     OW15734  10.632   6.700   2.467  0.1310  0.0388  0.1702
32581SOL    HW115735  10.663   6.740   2.548 -1.4588  1.0677  0.3125
32581SOL    HW215736  10.629   6.606   2.486  1.3605  0.0896  0.7168
32582SOL     OW15737  11.233  10.238   1.353  0.7166 -0.3207  0.4102
32582SOL    HW115738  11.179  10.199   1.423  0.2649  0.8298  0.7334
32582SOL    HW215739  11.251  10.327   1.384  0.5458  0.1982 -0.9211
32583SOL     OW15740  10.081  10.887   4.640  0.1253  0.4774 -0.2647
32583SOL    HW115741   9.989  10.884   4.615 -0.2222 -2.3835  0.9987
32583SOL    HW215742  10.086  10.958   4.705 -1.0197  1.0583 -0.7772
32584SOL     OW15743  12.498   2.259  10.621 -0.6343 -0.0267 -0.3380
32584SOL    HW115744  12.573   2.271  10.680 -0.2342 -0.5406 -0.7296
32584SOL    HW215745  12.431   2.217  10.676 -1.3421  2.0529  0.5157
32585SOL     OW15746  11.637   5.321   6.193  0.1244 -0.2408 -0.0123
32585SOL    HW115747  11.548   5.288   6.199 -0.2576  0.3376 -1.8251
32585SOL    HW215748  11.687   5.250   6.153  0.5062 -0.5586  0.9854
32586SOL     OW15749  12.954   0.491   0.362 -0.3110  0.5451  0.2179
32586SOL    HW115750  12.902   0.471   0.284 -1.4518  0.9192  0.8608
32586SOL    HW215751  12.944   0.414   0.418 -2.2638  1.5663  1.4049
32587SOL     OW15752  11.062   3.903   5.812  0.3484 -0.4561 -0.0367
32587SOL    HW115753  11.008   3.913   5.733 -2.0853  2.7624  1.7570
32587SOL    HW215754  11.096   3.991   5.828  2.2857 -1.4398  1.5520
32588SOL     OW15755   5.851  11.414  11.818 -0.2593 -0.3473  0.2828
32588SOL    HW115756   5.919  11.449  11.762  0.7791 -1.2408  0.9492
32588SOL    HW215757   5.787  11.377  11.757 -0.1026  0.3848 -0.3415
32589SOL     OW15758   5.769   0.267   1.891 -0.9631 -0.4264 -0.3220
32589SOL    HW115759   5.772   0.177   1.860 -0.8971  0.0331 -1.7470
32589SOL    HW215760   5.723   0.314   1.821  1.4290  1.1409 -0.9531
32590SOL     OW15761   6.643  11.639   8.965  0.4009  0.0772 -0.8723
32590SOL    HW115762   6.695  11.717   8.946  0.0337  0.1673 -1.5337
32590SOL    HW215763   6.694  11.567   8.926  0.2215  0.1188 -1.1865
32591SOL     OW15764  11.895  10.852   9.255  0.0438 -0.7108 -0.4406
32591SOL    HW115765  11.975  10.819   9.296  1.1741  1.1013 -1.0980
32591SOL    HW215766  11.825  10.823   9.314  1.3261 -0.8596  1.0756
32592SOL     OW15767   1.306  14.122   1.459 -0.3285  0.1319 -0.5476
32592SOL    HW115768   1.325  14.157   1.372 -1.1628  0.9062 -0.4351
32592SOL    HW215769   1.285  14.200   1.512 -0.6924 -0.4050  0.1122
32593SOL     OW15770  13.019  13.942  11.146  0.0492  0.0621 -0.5447
32593SOL    HW115771  12.941  13.996  11.159 -0.4585 -0.0598 -2.7376
32593SOL    HW215772  13.060  13.938  11.233  0.1616  3.9592 -0.2319
32594SOL     OW15773  11.919  13.853  14.000 -0.4328  0.0498 -0.1958
32594SOL    HW115774  12.006  13.843  14.041 -0.7768 -0.1458  0.5108
32594SOL    HW215775  11.859  13.858  14.074 -0.9442  1.0846 -0.6575
32595SOL     OW15776   9.542  11.714   3.122  0.7881  0.2473  0.3245
32595SOL    HW115777   9.457  11.750   3.148  0.1604 -0.2724 -0.9127
32595SOL    HW215778   9.526  11.621   3.109  1.8645 -0.0952  1.2768
32596SOL     OW15779   9.882   8.532   4.302  0.2935 -0.3639  0.1251
32596SOL    HW115780   9.957   8.557   4.248 -0.3081 -0.5197 -0.7873
32596SOL    HW215781   9.915   8.539   4.392  1.2001  0.2130 -0.2366
32597SOL     OW15782  12.616   8.055   6.680 -0.1057  0.2588 -0.2556
32597SOL    HW115783  12.627   8.142   6.718  0.8978  0.7394 -1.5371
32597SOL    HW215784  12.587   8.072   6.590  0.2110 -0.7188 -0.5575
32598SOL     OW15785  10.961   2.452   1.177 -0.6322  0.3870  0.1314
32598SOL    HW115786  10.911   2.532   1.160 -2.0879 -0.5141  0.0080
32598SOL    HW215787  10.894   2.384   1.188  0.5748 -0.9288 -0.3770
32599SOL     OW15788  10.952   8.691   4.427 -0.3089  0.4957  0.5488
32599SOL    HW115789  11.031   8.642   4.406 -0.6083 -0.4502  1.5636
32599SOL    HW215790  10.948   8.759   4.359  2.0856  1.4481  1.2643
32600SOL     OW15791   9.621   7.089  11.710  0.0582 -0.0578 -0.3024
32600SOL    HW115792   9.704   7.054  11.744  1.0289  0.7837 -1.6818
32600SOL    HW215793   9.582   7.134  11.784  0.5450 -0.9724  0.5368
32601SOL     OW15794   0.745   7.456   1.563  0.1244 -0.2015  0.0483
32601SOL    HW115795   0.767   7.533   1.615 -0.4927  0.9315 -1.3133
32601SOL    HW215796   0.651   7.444   1.575 -0.0410  0.1234 -0.8551
32602SOL     OW15797   8.113   2.830   4.723  0.1883  0.1994  0.1786
32602SOL    HW115798   8.181   2.826   4.656  0.4450 -3.0229  0.4541
32602SOL    HW215799   8.157   2.798   4.802 -0.8339  1.2568  1.2065
32603SOL     OW15800  11.558   5.709   5.364  0.0388 -0.1399  0.1436
32603SOL    HW115801  11.610   5.778   5.323 -0.9937  0.1548 -0.7213
32603SOL    HW215802  11.486   5.756   5.407 -0.8263 -0.6606 -0.6799
32604SOL     OW15803  13.186   7.267   9.336  0.2830  0.5705  0.5513
32604SOL    HW115804  13.206   7.246   9.427 -1.2626 -0.8416  0.6155
32604SOL    HW215805  13.184   7.363   9.333  3.9131  0.8287  1.1223
32605SOL     OW15806   7.260   5.172   0.179 -0.3359  0.8047  0.3596
32605SOL    HW115807   7.178   5.157   0.227 -2.0748 -2.0472 -3.0375
32605SOL    HW215808   7.325   5.119   0.226 -1.5737 -0.5746  0.6124
32606SOL     OW15809   9.101  10.053   7.628  0.0029  0.0103  0.1054
32606SOL    HW115810   9.155  10.056   7.708  0.3794 -0.7011 -0.1148
32606SOL    HW215811   9.106   9.962   7.599  1.2857  0.5774 -1.6781
32607SOL     OW15812  12.768   0.468   6.441 -0.0409 -0.5387 -0.3091
32607SOL    HW115813  12.774   0.539   6.504 -0.5662  0.1769 -1.0550
32607SOL    HW215814  12.835   0.488   6.376  0.8802 -1.5672  0.2887
32608SOL     OW15815   3.894  13.672   7.163 -0.3145  0.2024 -0.3059
32608SOL    HW115816   3.915  13.749   7.111  1.8800  0.9709  1.5944
32608SOL    HW215817   3.819  13.699   7.216 -0.0738  0.7439 -0.2359
32609SOL     OW15818   8.042   9.556  13.728  0.0045  0.4957  0.4809
32609SOL    HW115819   7.978   9.569  13.797  0.2978 -0.4362  0.9373
32609SOL    HW215820   8.119   9.607  13.757  0.3752 -0.4417  1.1970
32610SOL     OW15821  10.294   5.752   7.630  0.2343 -0.4119 -0.1053
32610SOL    HW115822  10.218   5.795   7.590 -1.1738 -2.4795  0.1851
32610SOL    HW215823  10.342   5.714   7.557  0.5068  0.1309 -0.2150
32611SOL     OW15824   4.046   6.501   0.085  0.1554  0.1222  0.2796
32611SOL    HW115825   3.959   6.505   0.046  0.4392  2.3808 -0.2066
32611SOL    HW215826   4.092   6.434   0.034 -0.8504 -0.1158 -0.3434
32612SOL     OW15827   1.425  13.943  11.584  0.7658  0.1899 -0.3479
32612SOL    HW115828   1.472  13.929  11.502  0.2054  1.6846 -0.9537
32612SOL    HW215829   1.493  13.970  11.646  1.2432 -1.2666 -0.1923
32613SOL     OW15830  13.159   6.431  11.756 -0.2368  0.0527  0.4217
32613SOL    HW115831  13.134   6.498  11.692  0.3420  0.3173  0.4626
32613SOL    HW215832  13.205   6.480  11.825 -0.2140 -0.3248  0.6726
32614SOL     OW15833  12.395  11.647   1.415  0.0961  0.6870 -0.3196
32614SOL    HW115834  12.484  11.613   1.428 -0.5362 -0.2771  2.1089
32614SOL    HW215835  12.366  11.607   1.333  1.7289  0.7076 -0.9583
32615SOL     OW15836   3.723   7.176   1.329  0.5843  0.3950  0.4207
32615SOL    HW115837   3.766   7.244   1.381 -0.6039  0.7913  0.9145
32615SOL    HW215838   3.728   7.209   1.239  1.2673  0.4506  0.4725
32616SOL     OW15839   7.216   9.706   9.194  0.3302 -0.2344  0.6318
32616SOL    HW115840   7.231   9.619   9.156  0.8889 -0.3463  1.1058
32616SOL    HW215841   7.224   9.765   9.120 -2.5500 -0.7391 -0.2484
32617SOL     OW15842   3.130  11.049   1.625 -0.4171  0.1104 -0.5177
32617SOL    HW115843   3.122  11.143   1.639  0.9415 -0.0266  1.6742
32617SOL    HW215844   3.118  11.038   1.531 -0.2517  2.5154 -0.8928
32618SOL     OW15845  10.202  11.320   0.787  0.3372  0.4767  0.6577
32618SOL    HW115846  10.113  11.289   0.802 -0.4377  1.7768 -0.9608
32618SOL    HW215847  10.209  11.399   0.839  0.8132 -0.0100  1.3480
32619SOL     OW15848   2.595  12.997   7.725  0.3017  0.2176 -0.5400
32619SOL    HW115849   2.520  12.944   7.696 -0.2621  1.1699 -0.8804
32619SOL    HW215850   2.557  13.082   7.748  1.3681  0.9990 -1.5193
32620SOL     OW15851  10.409   9.974   9.116 -0.0650  0.2372 -0.0536
32620SOL    HW115852  10.331   9.921   9.129  0.3714 -0.4737 -0.2488
32620SOL    HW215853  10.418  10.025   9.196 -1.6450  1.5598 -0.6714
32621SOL     OW15854   9.973   8.232  11.260 -0.5020 -0.3011  0.4132
32621SOL    HW115855  10.058   8.274  11.270 -1.7819  2.0171  3.0559
32621SOL    HW215856   9.960   8.185  11.343 -1.2826 -1.6836 -0.4570
32622SOL     OW15857   8.234   7.876  10.055 -0.5305  0.4807 -0.1050
32622SOL    HW115858   8.307   7.934  10.077  0.2041 -0.9139  1.3839
32622SOL    HW215859   8.228   7.880   9.960  1.3325  0.8248 -0.2555
32623SOL     OW15860  13.200   1.936   8.690 -0.0982  0.1271 -0.7268
32623SOL    HW115861  13.127   1.896   8.738 -0.6733  0.1029 -1.5892
32623SOL    HW215862  13.233   1.866   8.634  0.1116  0.3437 -0.8758
32624SOL     OW15863   3.483   3.664  13.961 -0.9760 -0.4212  0.5099
32624SOL    HW115864   3.524   3.724  14.024 -1.0639 -0.4071  0.5546
32624SOL    HW215865   3.526   3.580  13.976  2.3896  0.5023 -2.5623
32625SOL     OW15866  13.846   1.716  14.000  0.8058 -0.3875  0.1563
32625SOL    HW115867  13.784   1.788  14.013  0.4409 -0.7549  0.5392
32625SOL    HW215868  13.837   1.663  14.080  0.9466 -0.9410 -0.1900
32626SOL     OW15869   9.551  12.977   3.620 -0.2523 -0.9711 -0.3764
32626SOL    HW115870   9.545  13.072   3.614  1.6384 -0.8131 -0.6621
32626SOL    HW215871   9.487  12.944   3.558  0.9977  0.2105 -2.3997
32627SOL     OW15872   8.427  11.005   2.591  0.1562 -0.3722  0.0659
32627SOL    HW115873   8.403  10.948   2.519  0.1875  0.3416 -0.5173
32627SOL    HW215874   8.420  10.949   2.669 -1.4121 -0.7101 -0.2991
32628SOL     OW15875  11.315   0.512   2.196  0.3924  0.3185 -0.1962
32628SOL    HW115876  11.341   0.580   2.258  1.3423 -0.7196  0.5771
32628SOL    HW215877  11.344   0.545   2.111  1.3234  0.6358  0.2379
32629SOL     OW15878  13.037  12.895   6.985  0.1610  0.2527 -0.1319
32629SOL    HW115879  13.075  12.865   6.902  0.0238  1.5160 -0.6685
32629SOL    HW215880  13.101  12.871   7.051 -0.0976 -1.5264 -0.4722
32630SOL     OW15881   6.465   9.825   0.193 -0.7448 -0.3724  0.5100
32630SOL    HW115882   6.528   9.835   0.264  1.1733 -0.1814 -1.1382
32630SOL    HW215883   6.481   9.900   0.136 -3.0901  0.1517  0.4564
32631SOL     OW15884  10.804   7.845   1.539 -0.2003  0.6988 -0.1072
32631SOL    HW115885  10.895   7.822   1.558 -0.3773  0.3686  0.3633
32631SOL    HW215886  10.804   7.873   1.447  0.5599  1.6873  0.1827
32632SOL     OW15887  13.110   4.789   1.983  0.1126  0.0595  0.2336
32632SOL    HW115888  13.171   4.751   2.046  0.0736  0.2184  0.3684
32632SOL    HW215889  13.032   4.810   2.035  0.5084  1.2627  0.3780
32633SOL     OW15890   4.247  11.383  11.319 -0.1966  0.1951 -0.8635
32633SOL    HW115891   4.236  11.294  11.286 -1.8706  0.0092  0.1082
32633SOL    HW215892   4.341  11.402  11.306  0.1668 -1.6473 -1.1699
32634SOL     OW15893  10.778   8.581   5.329  0.5549  0.2086  0.2392
32634SOL    HW115894  10.864   8.541   5.317  2.2134  2.9864  1.6839
32634SOL    HW215895  10.754   8.559   5.419  0.1880  0.1652  0.1302
32635SOL     OW15896   9.566  11.799   8.028  0.2667  0.3866  0.0434
32635SOL    HW115897   9.617  11.776   7.950  0.1784 -1.2597  0.4295
32635SOL    HW215898   9.513  11.722   8.045 -0.4695  1.1116  1.1548
32636SOL     OW15899   0.321  11.210  13.564  0.3823  0.2464 -0.2230
32636SOL    HW115900   0.350  11.229  13.475 -0.3852 -0.1330 -0.5635
32636SOL    HW215901   0.281  11.291  13.594  0.0181  0.1611 -0.4789
32637SOL     OW15902   8.944   6.349   4.036  0.0868 -0.3808  0.0352
32637SOL    HW115903   9.004   6.414   4.075 -0.5103 -0.7809  1.6883
32637SOL    HW215904   9.002   6.286   3.994  0.7142  0.6351 -0.6893
32638SOL     OW15905  12.337  11.960   7.349 -0.1599  0.0660  0.4301
32638SOL    HW115906  12.256  12.004   7.374  1.0650  1.8026  1.6199
32638SOL    HW215907  12.376  11.933   7.432  0.1272 -1.4659 -0.1728
32639SOL     OW15908  10.698   1.915   2.146  0.0863 -0.2873 -0.0883
32639SOL    HW115909  10.740   1.991   2.106 -1.1624 -0.1025 -1.1267
32639SOL    HW215910  10.628   1.892   2.085 -0.4047 -1.4521  0.8801
32640SOL     OW15911  10.844   6.668  10.754  0.4247  0.1106  0.1104
32640SOL    HW115912  10.772   6.651  10.816  0.6746  1.0185  0.6699
32640SOL    HW215913  10.802   6.667  10.668 -0.0665 -0.4314  0.3490
32641SOL     OW15914   8.621   2.337   8.979 -0.8239  0.1131 -0.1511
32641SOL    HW115915   8.533   2.374   8.986 -0.8548 -0.3038  2.8164
32641SOL    HW215916   8.662   2.357   9.063  1.6074 -0.5347 -1.1041
32642SOL     OW15917   0.250  10.921   5.489  0.5277 -0.0099  0.1205
32642SOL    HW115918   0.238  10.927   5.584  1.9769 -0.9158  0.3877
32642SOL    HW215919   0.286  10.834   5.474  1.4109  0.5331 -1.1360
32643SOL     OW15920  10.442   9.677   4.964 -0.3966  0.1548  0.3714
32643SOL    HW115921  10.457   9.607   4.900 -1.6598  0.8187 -0.7281
32643SOL    HW215922  10.448   9.635   5.049 -0.5011 -1.1621 -0.2531
32644SOL     OW15923   3.586  11.243   7.512 -0.0662 -0.4403  0.3417
32644SOL    HW115924   3.651  11.301   7.552  1.6471 -1.0502 -1.4074
32644SOL    HW215925   3.632  11.204   7.438 -1.5795 -3.0333  0.6692
32645SOL     OW15926   6.790   3.701   5.400  0.0255  0.4700 -0.5919
32645SOL    HW115927   6.757   3.639   5.334 -0.5977  1.7626 -1.5491
32645SOL    HW215928   6.717   3.712   5.461  0.5807 -0.6771  0.3220
32646SOL     OW15929  12.899  12.041   6.436 -0.1011 -0.2158 -0.5032
32646SOL    HW115930  12.920  12.013   6.525  0.4188  1.7238  0.0554
32646SOL    HW215931  12.969  12.005   6.382  0.4984 -0.0684  0.1590
32647SOL     OW15932  12.962   6.931  10.784  0.0366  0.4530  0.3055
32647SOL    HW115933  12.987   6.850  10.740 -1.3214  0.1705  0.0080
32647SOL    HW215934  13.037   6.989  10.771  0.1492 -0.0142 -1.3971
32648SOL     OW15935  12.625   8.781   7.074  0.0824  0.3641 -0.2714
32648SOL    HW115936  12.622   8.694   7.035 -1.0734  0.8126 -1.2251
32648SOL    HW215937  12.674   8.769   7.155  0.9084 -0.9549 -0.9220
32649SOL     OW15938   0.549   6.579   1.450  0.2039 -0.2961 -0.2103
32649SOL    HW115939   0.544   6.634   1.372  0.6627  1.3282  0.8609
32649SOL    HW215940   0.616   6.514   1.430  0.2095  0.0143 -1.2225
32650SOL     OW15941  12.790  10.523   0.338  0.0717  0.2461 -0.0608
32650SOL    HW115942  12.867  10.580   0.328 -0.8149  1.5938  0.6431
32650SOL    HW215943  12.728  10.574   0.389 -0.4850 -1.6397  1.2481
32651SOL     OW15944   4.995   1.448  11.310  0.1505 -0.9273  0.0338
32651SOL    HW115945   4.946   1.519  11.352  0.4693 -1.3946  1.2656
32651SOL    HW215946   4.976   1.457  11.217 -0.4449  0.2836  0.2491
32652SOL     OW15947  13.595   9.816   1.911  0.1469 -0.0040  0.2729
32652SOL    HW115948  13.646   9.757   1.966  0.6907 -0.0995 -0.3283
32652SOL    HW215949  13.617   9.790   1.821  0.4333  1.1551  0.0013
32653SOL     OW15950   9.850   3.949   0.874 -0.2311 -0.3507 -0.5810
32653SOL    HW115951   9.884   3.866   0.907  2.5255  1.5837  1.9842
32653SOL    HW215952   9.893   3.960   0.789  0.3978 -0.9461 -0.3471
32654SOL     OW15953   1.902   8.296   6.629 -0.3792  0.2912 -0.1449
32654SOL    HW115954   1.880   8.337   6.712  0.1555  0.5299 -0.1189
32654SOL    HW215955   1.978   8.241   6.648 -2.1479 -2.2130  0.2593
32655SOL     OW15956  11.042  13.118   0.863  0.2842 -0.0921  0.2867
32655SOL    HW115957  11.068  13.209   0.849 -0.3762 -0.1337 -1.4201
32655SOL    HW215958  11.102  13.067   0.808  0.5832 -0.7085  1.1519
32656SOL     OW15959   9.342   4.420   3.905 -0.4689  0.1914  0.0964
32656SOL    HW115960   9.367   4.499   3.857  1.2629  0.4189  1.3216
32656SOL    HW215961   9.246   4.422   3.905 -0.5201  3.2126  1.5504
32657SOL     OW15962   2.538  11.234   5.913 -0.3264 -0.4713  0.1829
32657SOL    HW115963   2.595  11.255   5.839  0.0279 -1.1398  0.2515
32657SOL    HW215964   2.598  11.198   5.979 -0.9335 -2.1130 -0.1055
32658SOL     OW15965  13.988   7.556  14.137  0.2071 -0.1283  0.4371
32658SOL    HW115966  13.994   7.646  14.168  0.5744 -0.5618  1.6875
32658SOL    HW215967  13.900   7.529  14.161  0.3196 -0.3061  0.6526
32659SOL     OW15968   9.218   9.583   8.591  0.3178  0.5551  0.5691
32659SOL    HW115969   9.226   9.488   8.582 -0.0926  0.5364  0.3871
32659SOL    HW215970   9.256   9.619   8.511  0.8465  0.5619  0.8198
32660SOL     OW15971   9.487   5.954  13.955  0.1504 -0.1748 -0.1846
32660SOL    HW115972   9.580   5.978  13.958  0.7443 -2.2632 -0.6842
32660SOL    HW215973   9.487   5.861  13.934 -2.0764 -0.2252 -0.1299
32661SOL     OW15974   0.061   2.173   6.066  0.5138 -0.5230 -0.1072
32661SOL    HW115975   0.145   2.128   6.076  1.7978  1.9378  0.9461
32661SOL    HW215976   0.082   2.254   6.019 -1.3065  0.0813  0.0412
32662SOL     OW15977   0.839   7.193   6.062  0.8470  0.3581 -0.3085
32662SOL    HW115978   0.900   7.202   6.135  1.2777 -1.6938 -0.3666
32662SOL    HW215979   0.833   7.099   6.047 -0.6354  0.6385 -1.7560
32663SOL     OW15980   1.543   8.895   3.249 -0.0981  0.6529  0.1960
32663SOL    HW115981   1.606   8.925   3.315  0.2182  1.8146 -0.6091
32663SOL    HW215982   1.587   8.823   3.205  1.0275  1.9564 -0.8817
32664SOL     OW15983   3.565   7.871  11.617  0.6569  0.0596 -0.0067
32664SOL    HW115984   3.525   7.801  11.668  0.6108 -0.1769 -0.3720
32664SOL    HW215985   3.659   7.861  11.632  0.7180 -0.7331 -0.9107
32665SOL     OW15986  12.270  10.195   5.681 -0.0735  0.1746  0.6474
32665SOL    HW115987  12.296  10.249   5.606 -1.3821 -0.8808 -0.6166
32665SOL    HW215988  12.240  10.113   5.642  0.2041 -0.8103  2.4203
32666SOL     OW15989   0.161  10.956   6.776 -0.6028  0.2391 -0.5084
32666SOL    HW115990   0.205  11.039   6.790 -0.3824  0.0414  0.0030
32666SOL    HW215991   0.209  10.894   6.830 -1.9186  0.1459  0.6118
32667SOL     OW15992  10.794   6.410   2.302  0.0132  0.3252 -0.0262
32667SOL    HW115993  10.801   6.485   2.244 -1.1246 -0.3972 -1.1355
32667SOL    HW215994  10.728   6.436   2.367  0.1474  0.5470  0.0233
32668SOL     OW15995   2.310  10.713   0.778 -0.3204 -0.2607  0.8646
32668SOL    HW115996   2.286  10.622   0.794  0.1806 -0.5815 -0.1325
32668SOL    HW215997   2.264  10.736   0.697 -0.8239  0.5336  1.3628
32669SOL     OW15998   1.827   2.623   6.084 -0.3769  0.1000  0.1743
32669SOL    HW115999   1.752   2.566   6.064  0.4408 -1.2946  0.9528
32669SOL    HW216000   1.789   2.697   6.131 -1.3510 -0.2093 -0.0958
32670SOL     OW16001   8.364   0.606   3.401 -0.1016 -0.3587 -0.5953
32670SOL    HW116002   8.377   0.670   3.471  0.3926  0.4909 -1.4452
32670SOL    HW216003   8.415   0.640   3.327  2.2014 -2.9163 -0.3689
32671SOL     OW16004  11.360  12.736   3.829  0.0773 -0.5706  0.0546
32671SOL    HW116005  11.397  12.726   3.917 -0.4311  1.6812  0.5984
32671SOL    HW216006  11.269  12.762   3.844 -1.1617 -3.6059 -1.2411
32672SOL     OW16007  12.222   6.150   2.025 -0.7112 -0.0459 -0.1538
32672SOL    HW116008  12.147   6.112   1.979 -0.5871 -1.0166  0.4174
32672SOL    HW216009  12.217   6.113   2.113  0.1913  0.2276  0.0195
32673SOL     OW16010  10.066   7.569  13.887 -0.5326 -0.0604 -0.1467
32673SOL    HW116011   9.989   7.524  13.922 -0.1112  0.3916  1.4539
32673SOL    HW216012  10.033   7.652  13.853 -0.8650 -0.2219 -0.2209
32674SOL     OW16013   8.838   0.045   0.708  0.0369  0.2053  0.0199
32674SOL    HW116014   8.814   0.070   0.618  0.6735  1.6452  0.2317
32674SOL    HW216015   8.790   0.107   0.763  0.1075 -0.3043  0.6605
32675SOL     OW16016   2.977  11.880   2.872  0.6708 -0.2274  0.0521
32675SOL    HW116017   3.057  11.910   2.915  0.7538  0.4143 -0.5309
32675SOL    HW216018   2.933  11.826   2.938 -0.0800  2.1547  1.6338
32676SOL     OW16019   5.268   7.261  12.779  0.5111 -0.4553 -0.5085
32676SOL    HW116020   5.196   7.318  12.805  1.1885  0.3884 -0.4371
32676SOL    HW216021   5.284   7.207  12.857  1.4697  0.9573  0.3356
32677SOL     OW16022  13.550   3.235   6.234  0.0168  0.2417 -0.3362
32677SOL    HW116023  13.508   3.298   6.174 -0.4902  0.9761  0.7630
32677SOL    HW216024  13.513   3.151   6.209  1.3050  0.2129 -2.3726
32678SOL     OW16025   6.051   7.084   1.661 -0.2719 -0.2912 -0.7072
32678SOL    HW116026   6.086   7.030   1.590 -0.1760 -1.7760  0.4266
32678SOL    HW216027   5.957   7.090   1.642 -0.4408 -1.6080 -0.4157
32679SOL     OW16028  11.055   4.911  12.810  0.0388 -0.1714  0.3348
32679SOL    HW116029  11.043   4.839  12.749  0.0629  0.8158 -0.8609
32679SOL    HW216030  11.138   4.951  12.785 -0.2909  0.6792  0.5424
32680SOL     OW16031   9.861   4.279   3.381 -0.1186 -0.3066  0.6540
32680SOL    HW116032   9.891   4.199   3.339 -1.6852  0.0000 -1.1921
32680SOL    HW216033   9.904   4.349   3.333 -0.5735  0.0224  0.7185
32681SOL     OW16034  10.709  12.320   0.698  0.5156 -0.0090  0.4950
32681SOL    HW116035  10.634  12.379   0.709  2.1185  1.7921  2.8082
32681SOL    HW216036  10.685  12.241   0.748 -0.4736 -0.1565 -0.1875
32682SOL     OW16037   8.695   6.695  10.320  0.2762 -0.3438 -0.4909
32682SOL    HW116038   8.646   6.714  10.241  1.2946  1.6330 -0.7249
32682SOL    HW216039   8.686   6.774  10.373 -1.0278 -1.8924  1.7708
32683SOL     OW16040  13.915  11.641  10.701 -0.3353 -0.0175 -0.1865
32683SOL    HW116041  13.915  11.547  10.682  1.2381 -0.6205  2.2905
32683SOL    HW216042  13.989  11.675  10.650  0.4034 -0.5754  0.4661
32684SOL     OW16043   9.111   6.064   6.584 -0.0738 -0.2995 -0.6799
32684SOL    HW116044   9.173   6.129   6.619 -0.8929 -0.4146  1.0879
32684SOL    HW216045   9.154   6.031   6.505  1.9191 -0.0553  0.2332
32685SOL     OW16046   5.561   3.799  12.856  0.2809  0.2780 -0.8968
32685SOL    HW116047   5.570   3.749  12.937  0.4457  0.5791 -0.7283
32685SOL    HW216048   5.501   3.870  12.878  1.4611  1.2186 -0.6235
32686SOL     OW16049   5.481   6.412   6.118  0.3373 -0.0237  0.2083
32686SOL    HW116050   5.531   6.358   6.180  0.4852  0.1765  0.2633
32686SOL    HW216051   5.534   6.491   6.106  0.6675 -0.3752 -0.7389
32687SOL     OW16052   1.253  10.064   3.150 -0.1153  0.3303 -0.2336
32687SOL    HW116053   1.324  10.001   3.166 -0.7780 -0.1222  0.9979
32687SOL    HW216054   1.290  10.149   3.174  0.7871  0.4510 -1.9082
32688SOL     OW16055   1.309   5.455   2.468 -0.2853  0.1012  0.2050
32688SOL    HW116056   1.232   5.493   2.510 -0.0166  0.2747  0.5503
32688SOL    HW216057   1.382   5.510   2.498 -0.2204  0.9468 -1.3860
32689SOL     OW16058   3.828   8.262   0.217  0.1701 -0.1588 -0.1275
32689SOL    HW116059   3.850   8.337   0.272 -0.3574 -0.4845  0.5404
32689SOL    HW216060   3.874   8.188   0.255  1.3586 -0.0516 -1.2710
32690SOL     OW16061  10.726   5.316   2.707  0.3118  0.3573  0.9898
32690SOL    HW116062  10.723   5.325   2.612 -0.0846 -0.1281  0.9531
32690SOL    HW216063  10.768   5.397   2.738  0.3779  0.5453  0.4113
32691SOL     OW16064   0.643   0.484  12.535  0.0999 -0.4091  0.2218
32691SOL    HW116065   0.580   0.542  12.579 -1.2300 -0.1586 -1.8670
32691SOL    HW216066   0.687   0.541  12.472  0.4348 -1.1699 -0.2435
32692SOL     OW16067   9.783   5.123  13.126 -0.0848  0.1371  0.3488
32692SOL    HW116068   9.691   5.102  13.110  0.3071  0.0737 -2.3478
32692SOL    HW216069   9.819   5.044  13.167 -0.9413 -0.3767  0.1365
32693SOL     OW16070   1.372   7.985   8.415  0.2876  0.4189 -0.5219
32693SOL    HW116071   1.342   7.901   8.452 -0.7825  0.8652 -0.3538
32693SOL    HW216072   1.391   7.965   8.324  1.6269 -0.3734 -0.1089
32694SOL     OW16073  12.061   6.816   9.228 -0.3503 -0.2148  0.8751
32694SOL    HW116074  12.124   6.760   9.273 -1.8697 -2.7213  0.0158
32694SOL    HW216075  12.090   6.816   9.137 -2.0290 -2.1539  0.2857
32695SOL     OW16076  10.211   6.600   7.041 -0.6116  0.0746 -0.3014
32695SOL    HW116077  10.246   6.648   6.967  1.4503  0.5156  0.8786
32695SOL    HW216078  10.146   6.541   7.003 -2.6625  3.0979 -1.9211
32696SOL     OW16079  12.527   9.298  14.112  0.2833  0.0944  0.1924
32696SOL    HW116080  12.528   9.378  14.165  0.0237 -0.9249  1.7777
32696SOL    HW216081  12.482   9.325  14.031  1.4379  1.8900  0.0871
32697SOL     OW16082  12.339   4.173   6.117 -0.2566 -0.0881  0.0794
32697SOL    HW116083  12.377   4.117   6.185  0.6324 -0.8718 -1.0220
32697SOL    HW216084  12.245   4.170   6.134 -0.2954 -2.3621 -0.2145
32698SOL     OW16085   4.304   2.072   0.852  0.4136  0.0109 -0.1561
32698SOL    HW116086   4.350   2.018   0.916  0.5517  0.0514 -0.2209
32698SOL    HW216087   4.276   2.010   0.784 -0.8176 -0.2374  0.5443
32699SOL     OW16088   9.815   9.047   0.299  0.0434  0.0694  0.3471
32699SOL    HW116089   9.761   8.990   0.354  1.1840 -0.2852  1.1301
32699SOL    HW216090   9.800   9.015   0.210 -2.5551  1.2450  0.2646
32700SOL     OW16091  12.721   3.459   3.703 -0.1897  0.0721 -0.4414
32700SOL    HW116092  12.685   3.530   3.650  0.2361  1.3881  0.9409
32700SOL    HW216093  12.816   3.463   3.690  0.2651  2.3076  2.4517
32701SOL     OW16094  12.949   6.038   1.135 -0.0311 -0.1124 -0.2335
32701SOL    HW116095  12.986   6.065   1.051  0.3163 -0.5069 -0.2113
32701SOL    HW216096  12.947   6.118   1.187 -0.1762  0.1181 -0.5909
32702SOL     OW16097   9.277   8.639   1.174  0.2971  0.6548  0.2091
32702SOL    HW116098   9.243   8.681   1.253 -1.5430  0.2332 -0.3137
32702SOL    HW216099   9.341   8.575   1.206 -0.6894  0.2330  1.3898
32703SOL     OW16100  11.300   2.530   4.887 -0.5625  0.2154  0.3531
32703SOL    HW116101  11.393   2.527   4.864 -0.4802  1.0958  0.5236
32703SOL    HW216102  11.289   2.460   4.951 -0.2806 -0.6894 -0.5663
32704SOL     OW16103   4.884  11.511   9.302  0.3765  0.1069 -0.4965
32704SOL    HW116104   4.915  11.438   9.249  0.7886 -1.1999  1.4231
32704SOL    HW216105   4.831  11.563   9.243  0.2914 -1.6084 -2.0239
32705SOL     OW16106  11.233  12.468   8.862 -0.0330  0.3026 -0.3790
32705SOL    HW116107  11.184  12.539   8.821 -0.0782  1.3935  1.4268
32705SOL    HW216108  11.275  12.422   8.790 -0.1132  2.1024 -1.6218
32706SOL     OW16109   9.241  13.145  10.360 -0.0549  0.2318  0.4663
32706SOL    HW116110   9.166  13.200  10.337  0.3764  1.1584  1.2164
32706SOL    HW216111   9.203  13.066  10.397 -0.6684  1.0873  1.7241
32707SOL     OW16112   2.584  13.805   1.482 -0.3791 -0.1573  0.6420
32707SOL    HW116113   2.585  13.752   1.403 -0.5129  0.7426  0.0141
32707SOL    HW216114   2.677  13.822   1.501 -0.3452 -0.4191  0.7077
32708SOL     OW16115  13.677   6.325   5.834 -0.6030 -0.7919  0.4460
32708SOL    HW116116  13.748   6.331   5.771 -0.8673  0.1129  0.2211
32708SOL    HW216117  13.613   6.268   5.792 -0.7647 -0.2184 -0.0997
32709SOL     OW16118  13.665  12.163  10.040  0.1692 -0.3093 -0.0597
32709SOL    HW116119  13.678  12.085   9.987  0.9262 -0.4250  0.2789
32709SOL    HW216120  13.689  12.136  10.129 -0.8782 -0.0623  0.3124
32710SOL     OW16121   7.388   0.057   9.350 -0.7024 -0.1292 -0.0579
32710SOL    HW116122   7.304   0.013   9.337 -0.8980 -0.8430  2.9590
32710SOL    HW216123   7.451  -0.014   9.363 -0.2935  0.4236  1.1045
32711SOL     OW16124  10.471   5.059  10.020 -0.1842 -0.0351 -0.0245
32711SOL    HW116125  10.415   4.986   9.992  0.8246 -0.0914 -2.0711
32711SOL    HW216126  10.457   5.127   9.954  0.3034  0.9098  0.8213
32712SOL     OW16127   3.038  11.670   2.617 -0.0001  0.3729 -0.0819
32712SOL    HW116128   3.069  11.713   2.696 -2.6284  1.9897  0.1890
32712SOL    HW216129   2.989  11.594   2.649 -0.5552  0.6902 -0.1589
32713SOL     OW16130  12.736   8.412  10.319 -0.0502 -0.0348  0.3644
32713SOL    HW116131  12.735   8.507  10.330  0.7394 -0.0189  0.3411
32713SOL    HW216132  12.698   8.379  10.401  0.1099  0.2833  0.5703
32714SOL     OW16133  12.905  13.552  10.205  0.6444 -0.0434 -0.1322
32714SOL    HW116134  12.938  13.495  10.274 -0.4621 -0.0615  0.3900
32714SOL    HW216135  12.908  13.640  10.242  0.6606  0.0302 -0.3044
32715SOL     OW16136  11.238   0.969  13.075 -0.3787 -0.4163 -0.4035
32715SOL    HW116137  11.328   0.978  13.107 -0.7227  0.4072  0.3853
32715SOL    HW216138  11.247   0.946  12.983  0.6428 -1.0020 -0.1703
32716SOL     OW16139  10.696  13.909   8.133  0.0268  0.2236  0.5317
32716SOL    HW116140  10.776  13.949   8.100  1.0970 -3.1846 -1.5227
32716SOL    HW216141  10.704  13.914   8.228  1.2042  2.4731  0.3895
32717SOL     OW16142   6.904  12.801  12.003 -0.0297 -0.4367  0.2895
32717SOL    HW116143   6.993  12.829  12.024  0.9342 -2.3694 -0.9421
32717SOL    HW216144   6.876  12.750  12.079  0.2880 -0.6127  0.2908
32718SOL     OW16145  10.618   4.841   9.433 -0.6343 -0.3450 -0.2639
32718SOL    HW116146  10.552   4.910   9.433  1.9315  2.3233  0.4989
32718SOL    HW216147  10.686   4.873   9.374  2.0789 -0.5628  2.4684
32719SOL     OW16148  12.263   4.328   9.113 -0.0358 -0.2999 -0.5230
32719SOL    HW116149  12.339   4.367   9.157 -0.8709  0.4690  0.2785
32719SOL    HW216150  12.291   4.239   9.091  1.0143 -0.1118 -0.0116
32720SOL     OW16151  13.935  11.480   0.848 -0.7468 -0.2003  0.3334
32720SOL    HW116152  13.979  11.442   0.925  1.4914 -0.9189 -1.2107
32720SOL    HW216153  13.854  11.430   0.840 -0.2340 -1.2322  1.2643
32721SOL     OW16154   9.419   7.555   0.055 -0.6204  0.0997  0.2002
32721SOL    HW116155   9.439   7.517  -0.030 -0.0212  1.4646 -0.2845
32721SOL    HW216156   9.426   7.481   0.116  0.9522 -0.4952 -0.6419
32722SOL     OW16157  13.935   4.298  10.503  0.5223  0.1579 -0.3927
32722SOL    HW116158  13.865   4.318  10.565  0.2519 -0.1163 -0.6040
32722SOL    HW216159  13.980   4.381  10.489  2.5775 -0.3164  2.5794
32723SOL     OW16160  12.822   9.147  13.386 -0.2980 -0.1952  0.0169
32723SOL    HW116161  12.860   9.227  13.424  0.6383 -0.6965  0.1796
32723SOL    HW216162  12.822   9.084  13.459  3.2460 -1.7770 -1.0844
32724SOL     OW16163   8.949   3.028   4.315 -0.7221  0.5295 -0.1523
32724SOL    HW116164   8.927   3.082   4.239  1.3256  0.8667 -0.5848
32724SOL    HW216165   9.002   3.086   4.370  0.4518 -0.6124 -0.0159
32725SOL     OW16166   2.074   5.483   6.606 -0.2555  0.5213  0.3363
32725SOL    HW116167   2.016   5.411   6.631  0.8697 -0.5726 -0.0973
32725SOL    HW216168   2.041   5.512   6.521  0.0572 -0.3859 -0.1152
32726SOL     OW16169   0.223   4.250  11.525  0.7187  0.5132  0.2262
32726SOL    HW116170   0.186   4.166  11.498  1.7879 -0.0590  0.4997
32726SOL    HW216171   0.251   4.291  11.444 -1.0824  1.2733 -0.0728
32727SOL     OW16172  10.127   8.331  11.673 -0.2498  0.4064  0.0187
32727SOL    HW116173  10.126   8.341  11.768  2.0058  0.1503  0.1110
32727SOL    HW216174  10.131   8.237  11.658 -2.1144  0.3536 -0.4131
32728SOL     OW16175   5.529   8.857   8.815  0.8535 -0.0029 -0.0163
32728SOL    HW116176   5.542   8.952   8.810  0.5738  0.0236 -0.2486
32728SOL    HW216177   5.457   8.846   8.877  0.3515 -0.0174 -0.5897
32729SOL     OW16178   5.268   9.810   3.477 -0.0512  0.2813 -0.1487
32729SOL    HW116179   5.264   9.892   3.428 -0.7507  0.0824 -0.4428
32729SOL    HW216180   5.361   9.791   3.484  0.1013  0.8657 -0.4745
32730SOL     OW16181   6.722   0.948   3.001  0.0886  0.3323 -0.1468
32730SOL    HW116182   6.801   0.969   3.051  0.6774 -0.7571 -0.5799
32730SOL    HW216183   6.741   0.863   2.962 -1.2664  0.1126 -0.3560
32731SOL     OW16184  11.522  11.933  12.772  0.5150 -0.4169 -0.1475
32731SOL    HW116185  11.459  11.864  12.753  1.9826 -1.7101 -0.5465
32731SOL    HW216186  11.496  12.006  12.716 -0.6961 -0.8647 -0.1881
32732SOL     OW16187   8.790  13.710   5.040 -0.1742 -0.1092 -0.2519
32732SOL    HW116188   8.713  13.716   4.983  0.4925 -1.3504 -1.3175
32732SOL    HW216189   8.852  13.773   5.003  0.0217 -0.4480 -0.4929
32733SOL     OW16190  13.540   6.131   7.633  0.1452  0.2317  0.2865
32733SOL    HW116191  13.611   6.131   7.697 -0.0130  3.3151  0.6351
32733SOL    HW216192  13.471   6.079   7.674  0.8927  0.2006  1.5759
32734SOL     OW16193   4.111  12.737   3.236  0.0781  0.2763 -0.2430
32734SOL    HW116194   4.140  12.716   3.147 -1.6018  1.6096 -1.1746
32734SOL    HW216195   4.154  12.821   3.255  0.4934 -0.0441  0.2517
32735SOL     OW16196   7.433   7.915  12.452 -0.0558 -0.3783 -0.4468
32735SOL    HW116197   7.489   7.879  12.520 -0.2697  0.3886  0.1580
32735SOL    HW216198   7.345   7.886  12.474 -0.4977  1.7998  1.0311
32736SOL     OW16199  11.242  11.458   8.843 -0.4641 -0.4432 -0.7799
32736SOL    HW116200  11.281  11.375   8.870 -2.3723 -0.9211  0.6604
32736SOL    HW216201  11.201  11.493   8.922 -1.8716  0.6389 -1.9299
32737SOL     OW16202   5.093  13.907  11.598  0.6318 -0.1768  0.1625
32737SOL    HW116203   5.125  13.917  11.688  1.1085 -0.0256 -0.0222
32737SOL    HW216204   5.077  13.813  11.589 -0.2184 -0.0938  0.6704
32738SOL     OW16205   4.737   1.637   0.589  0.7506 -0.5767 -0.2972
32738SOL    HW116206   4.738   1.561   0.531 -0.7944 -1.4657  0.7762
32738SOL    HW216207   4.668   1.694   0.554  0.4113 -0.7030  0.1633
32739SOL     OW16208   1.999  13.201   2.503  0.1367  0.1566  0.3438
32739SOL    HW116209   2.069  13.217   2.566  0.0726 -0.0160  0.4576
32739SOL    HW216210   2.044  13.187   2.420  0.1724  1.7015  0.0715
32740SOL     OW16211   8.004   4.266   0.011  0.2400  0.8055  0.0273
32740SOL    HW116212   7.926   4.250  -0.043 -0.3851 -0.4059  1.2350
32740SOL    HW216213   8.071   4.208  -0.026  0.1957  0.9365 -0.2573
32741SOL     OW16214   9.273   7.706  13.726 -0.7115  0.3529  0.4428
32741SOL    HW116215   9.291   7.792  13.763  1.7188 -0.4564  1.3399
32741SOL    HW216216   9.206   7.668  13.783 -2.2786  1.8204 -0.3364
32742SOL     OW16217   5.114   0.137   6.768 -0.7138 -1.1354 -0.0552
32742SOL    HW116218   5.072   0.056   6.740 -0.1445 -1.6962  0.6831
32742SOL    HW216219   5.171   0.111   6.841 -0.0286 -0.1814 -0.2351
32743SOL     OW16220   1.302   3.669  12.418 -0.3333 -0.0395  0.4737
32743SOL    HW116221   1.366   3.722  12.466  0.2993  0.8719 -1.3002
32743SOL    HW216222   1.328   3.578  12.436  0.0817  0.2803  1.5653
32744SOL     OW16223   3.705  10.503  12.129 -0.2988  0.0732 -0.5114
32744SOL    HW116224   3.678  10.548  12.209  1.4217 -0.8139  0.6452
32744SOL    HW216225   3.636  10.522  12.065 -2.6272 -0.5965  1.6553
32745SOL     OW16226   0.201  10.411  11.946  0.2915  0.3777  0.5319
32745SOL    HW116227   0.194  10.505  11.958  1.0650  0.5525 -0.2712
32745SOL    HW216228   0.141  10.373  12.010  1.0018  1.3725  1.8247
32746SOL     OW16229   0.720   1.579   5.502  0.6335  0.0150  0.0984
32746SOL    HW116230   0.757   1.629   5.575 -2.8028  0.4417  1.7416
32746SOL    HW216231   0.737   1.633   5.425  2.4918  0.5865  0.8403
32747SOL     OW16232   7.896   0.823   7.322  0.0958 -0.0372  0.3300
32747SOL    HW116233   7.816   0.870   7.298 -0.1922 -0.1956  0.9454
32747SOL    HW216234   7.864   0.741   7.360  0.5804 -0.5746 -0.3820
32748SOL     OW16235   8.946   3.085   3.442  0.1361  0.3289 -0.3246
32748SOL    HW116236   8.884   3.055   3.376  0.1204 -0.9806  0.2564
32748SOL    HW216237   8.987   3.005   3.474  1.1348  1.0619  0.2791
32749SOL     OW16238   9.950  10.076   6.159  0.3065 -0.0997 -0.4484
32749SOL    HW116239   9.891  10.032   6.220 -0.7447  0.9461 -0.6963
32749SOL    HW216240  10.018  10.114   6.215  1.1744 -1.8531 -0.2133
32750SOL     OW16241   5.390  10.622  12.875 -0.1701 -0.1928  0.2027
32750SOL    HW116242   5.423  10.574  12.951  1.1447 -0.1866 -0.3370
32750SOL    HW216243   5.374  10.555  12.809  0.4245 -0.0232 -0.1166
32751SOL     OW16244   6.724   0.075   9.568 -0.1260  0.2645 -0.2686
32751SOL    HW116245   6.725   0.051   9.661 -0.1770  0.8792 -0.1000
32751SOL    HW216246   6.652   0.025   9.531  2.8166 -3.8413 -1.0844
32752SOL     OW16247   3.735   3.091   4.812 -0.6466  0.1419 -0.1589
32752SOL    HW116248   3.733   3.021   4.747  2.5849 -2.9291  2.7004
32752SOL    HW216249   3.649   3.088   4.854 -0.4622 -2.4799  0.1641
32753SOL     OW16250   1.779   7.992   1.278 -0.0827 -0.1626 -0.0543
32753SOL    HW116251   1.748   7.978   1.368 -0.9026 -1.8689 -0.5621
32753SOL    HW216252   1.841   8.065   1.286  0.9922 -1.1916  2.1571
32754SOL     OW16253  13.680  12.435   0.791 -0.1783  0.1880 -0.0802
32754SOL    HW116254  13.655  12.463   0.879 -1.6376 -2.0157  0.2806
32754SOL    HW216255  13.775  12.421   0.798  0.1131  2.1354  0.4765
32755SOL     OW16256  13.067   8.308  11.227 -0.0720 -0.2079 -0.7145
32755SOL    HW116257  13.052   8.215  11.210 -0.4700 -0.2583 -0.1040
32755SOL    HW216258  13.120   8.309  11.307  0.0337  0.0894 -0.7879
32756SOL     OW16259   3.579  11.029   6.226  0.3151  0.2722 -0.0143
32756SOL    HW116260   3.614  10.976   6.298 -0.3218  0.6496  0.5781
32756SOL    HW216261   3.484  11.029   6.240  0.2132  0.6009 -0.6815
32757SOL     OW16262  11.645   4.120   5.502 -0.1793 -0.5846  0.7516
32757SOL    HW116263  11.620   4.101   5.592  0.1317  0.0223  0.9689
32757SOL    HW216264  11.649   4.034   5.460  0.0170 -0.8994  1.4005
32758SOL     OW16265   3.692   5.001   2.975  0.4849 -0.4183  0.4480
32758SOL    HW116266   3.709   4.916   3.016 -2.1334  0.0308  2.8045
32758SOL    HW216267   3.657   4.980   2.889 -1.9036 -1.9169  1.6790
32759SOL     OW16268   7.799  12.129   3.662  0.1106  0.9949 -0.3676
32759SOL    HW116269   7.753  12.203   3.704 -0.2863  1.1578 -1.0736
32759SOL    HW216270   7.783  12.141   3.569  1.3125  0.8461 -0.6017
32760SOL     OW16271   3.360   1.851  10.144 -0.1976 -0.0134  0.3200
32760SOL    HW116272   3.402   1.824  10.225  0.1609 -0.0972  0.1100
32760SOL    HW216273   3.424   1.907  10.100 -0.8014  0.9211  0.5873
32761SOL     OW16274   9.463   8.733   0.556  0.1487 -0.3609 -0.7635
32761SOL    HW116275   9.543   8.695   0.592 -0.5825  0.0001  1.3979
32761SOL    HW216276   9.473   8.723   0.462  3.3420  0.8778 -0.6875
32762SOL     OW16277   8.659   6.163   6.272  0.1494  0.1848  0.7616
32762SOL    HW116278   8.646   6.070   6.254  0.2889  0.5129 -1.2718
32762SOL    HW216279   8.752   6.178   6.258  0.4154  0.3700  2.5400
32763SOL     OW16280   6.758   6.303   3.179 -0.3450  0.2030 -0.4304
32763SOL    HW116281   6.800   6.222   3.148 -1.9879 -0.4279 -1.1053
32763SOL    HW216282   6.768   6.364   3.106 -1.5997 -0.3349 -1.0868
32764SOL     OW16283   5.081  13.270   3.801 -0.3290  0.2450 -0.1563
32764SOL    HW116284   5.026  13.222   3.740  1.1235 -0.8083 -0.7036
32764SOL    HW216285   5.153  13.303   3.747  1.0498 -0.8163  0.9665
32765SOL     OW16286   9.571  10.011  12.678  0.3031 -0.3132  0.7381
32765SOL    HW116287   9.534   9.925  12.660 -0.7930  0.1304  0.7814
32765SOL    HW216288   9.652  10.014  12.627  0.2928 -1.3151  0.6429
32766SOL     OW16289   5.882   0.888   9.873 -0.1128  0.4757 -0.5471
32766SOL    HW116290   5.827   0.958   9.909 -0.0536  1.6767 -2.6246
32766SOL    HW216291   5.828   0.848   9.805  0.6472 -0.0762 -0.8435
32767SOL     OW16292  11.172   2.708   5.425 -0.6517 -0.4394  0.1509
32767SOL    HW116293  11.180   2.736   5.334 -0.9769  1.1628  0.5774
32767SOL    HW216294  11.262   2.702   5.456 -0.5681  1.0238  0.2672
32768SOL     OW16295   9.876   7.098   1.829 -0.2250  0.2360  0.1958
32768SOL    HW116296   9.917   7.183   1.845 -1.4734  0.6012  1.7946
32768SOL    HW216297   9.814   7.088   1.902  1.0469 -2.7881  1.0226
32769SOL     OW16298  11.734   1.247   6.336 -0.7719  0.3475 -0.3138
32769SOL    HW116299  11.657   1.275   6.287  0.2301  1.9296 -1.0850
32769SOL    HW216300  11.700   1.215   6.419 -2.2392  1.4545 -0.4420
32770SOL     OW16301   4.125   8.180   2.198 -0.0874 -0.0938 -0.0260
32770SOL    HW116302   4.162   8.269   2.199 -0.6854  0.1730 -0.5370
32770SOL    HW216303   4.188   8.129   2.148 -0.2708  0.3083 -0.6940
32771SOL     OW16304   7.193  10.672   2.897 -0.2084  0.1326 -0.4549
32771SOL    HW116305   7.162  10.665   2.806 -3.4356  1.5746  0.3701
32771SOL    HW216306   7.222  10.763   2.905  1.4009 -0.3613 -0.3491
32772SOL     OW16307  12.303  11.172   8.293 -0.1828  0.3912 -0.7194
32772SOL    HW116308  12.373  11.143   8.353  0.0268  0.2358 -1.0400
32772SOL    HW216309  12.264  11.247   8.338 -0.0635  0.2406 -0.3566
32773SOL     OW16310   2.978   8.578   9.843  0.3995 -0.0026  0.4342
32773SOL    HW116311   2.925   8.511   9.886 -0.9253  0.2455 -0.7506
32773SOL    HW216312   3.050   8.594   9.904 -1.4560  0.4455  2.6469
32774SOL     OW16313   6.904   8.553   0.890 -0.0605 -0.0002 -0.0789
32774SOL    HW116314   6.994   8.524   0.879 -0.6370 -2.0640  0.2595
32774SOL    HW216315   6.870   8.499   0.962 -1.6206  0.5967 -0.3260
32775SOL     OW16316  13.488   4.486  11.300  0.4262  0.6916 -0.0640
32775SOL    HW116317  13.488   4.577  11.330  0.3157  0.9279 -0.7532
32775SOL    HW216318  13.443   4.489  11.215  0.6909  0.0397 -0.2337
32776SOL     OW16319  12.312   5.988   4.674  0.0524 -0.1069  0.4128
32776SOL    HW116320  12.271   6.023   4.754 -1.7141 -1.7625  0.3046
32776SOL    HW216321  12.384   6.048   4.656 -0.8385  1.5627  2.0285
32777SOL     OW16322   7.297   3.596   8.057  0.1152  0.4513 -0.1347
32777SOL    HW116323   7.369   3.659   8.060  1.4814 -0.8564 -2.5156
32777SOL    HW216324   7.218   3.649   8.064  1.2560  2.1691  0.2935
32778SOL     OW16325  10.337  12.814   2.341  0.6026 -0.3268 -0.1986
32778SOL    HW116326  10.315  12.875   2.411 -1.8683 -1.9653  0.6036
32778SOL    HW216327  10.410  12.763   2.376 -0.4647 -0.9836  1.1613
32779SOL     OW16328   9.675   9.812   1.343 -0.7553  0.3379 -0.5514
32779SOL    HW116329   9.737   9.740   1.352 -0.3281  0.6638 -0.8898
32779SOL    HW216330   9.596   9.771   1.307 -0.4956  0.0432 -0.7901
32780SOL     OW16331   1.875  11.913   1.053 -0.0294 -0.8204  0.1237
32780SOL    HW116332   1.838  11.827   1.074  1.6531 -1.4977  0.4517
32780SOL    HW216333   1.950  11.894   0.996 -0.9626  0.6037 -1.7123
32781SOL     OW16334  13.860   6.362   5.630 -0.2848  0.1545 -0.3328
32781SOL    HW116335  13.948   6.399   5.638  0.1314 -0.9492  0.5844
32781SOL    HW216336  13.874   6.276   5.591 -1.0595  0.3310 -1.0141
32782SOL     OW16337   9.257   6.023   2.518 -0.2327 -0.0652  0.5716
32782SOL    HW116338   9.320   5.975   2.465 -0.8833 -1.5992  1.1392
32782SOL    HW216339   9.277   6.115   2.501  1.4730 -0.5108 -0.0450
32783SOL     OW16340  13.837   1.549   0.262  0.3820  0.2222  0.7207
32783SOL    HW116341  13.851   1.498   0.341 -0.0073 -2.4914 -0.8288
32783SOL    HW216342  13.784   1.624   0.290 -2.0966 -2.0686  2.6317
32784SOL     OW16343  11.948  11.785  11.138 -0.0611  0.2315 -0.1572
32784SOL    HW116344  11.963  11.693  11.113  0.6594  0.5153 -0.7779
32784SOL    HW216345  11.878  11.780  11.203  1.2293 -0.9210  1.1948
32785SOL     OW16346   3.858   2.719   3.583 -0.4782 -0.1886 -0.0444
32785SOL    HW116347   3.928   2.655   3.594 -0.4231 -0.0409  0.5141
32785SOL    HW216348   3.858   2.768   3.665 -0.7134  0.3348 -0.3525
32786SOL     OW16349   1.059   0.775   5.954 -0.0473 -0.0499  0.5436
32786SOL    HW116350   1.078   0.759   6.046  0.4807  0.4413  0.5233
32786SOL    HW216351   1.140   0.749   5.908 -0.8764 -1.9166  0.0413
32787SOL     OW16352   0.811   4.077   6.955  0.0182 -0.4890  0.0472
32787SOL    HW116353   0.730   4.035   6.981  0.5586 -0.6712  1.5001
32787SOL    HW216354   0.838   4.127   7.032 -0.0207  1.6412 -1.2463
32788SOL     OW16355   1.412   8.004   2.714  0.1172  0.8447  0.2783
32788SOL    HW116356   1.392   7.913   2.735  1.2889  0.9304  1.9647
32788SOL    HW216357   1.343   8.030   2.652 -2.4143 -0.0874  2.5124
32789SOL     OW16358   6.603   4.301   0.338 -0.5062  0.8066 -0.8794
32789SOL    HW116359   6.660   4.371   0.369  0.5754 -0.5224  0.2444
32789SOL    HW216360   6.532   4.298   0.402 -0.5133  0.8348 -0.8862
32790SOL     OW16361   1.941   2.980   5.669 -0.0213 -0.1143 -0.2823
32790SOL    HW116362   1.961   2.982   5.762 -0.6038 -0.1212 -0.1488
32790SOL    HW216363   1.884   3.056   5.655  0.9653  0.5296 -0.8534
32791SOL     OW16364   5.651   1.439   6.267 -0.2458  0.6389 -0.6455
32791SOL    HW116365   5.728   1.494   6.280  0.2947 -0.1278 -0.5458
32791SOL    HW216366   5.669   1.390   6.187  0.3868 -1.1544  0.5148
32792SOL     OW16367   1.752  11.458   7.549  0.4610 -0.1311 -0.2647
32792SOL    HW116368   1.698  11.512   7.608  1.5573 -0.5399  1.1862
32792SOL    HW216369   1.735  11.493   7.462 -4.2226 -1.9608 -0.3591
32793SOL     OW16370   9.303   7.678   3.290 -0.1048  0.1980 -0.2232
32793SOL    HW116371   9.349   7.759   3.269 -1.0766  0.8235  0.0221
32793SOL    HW216372   9.211   7.696   3.271 -0.6304 -0.1559  1.7679
32794SOL     OW16373   9.916  13.611   8.443 -0.5469 -0.2569  0.4703
32794SOL    HW116374   9.886  13.674   8.509 -1.8414 -0.1449 -0.1823
32794SOL    HW216375   9.948  13.664   8.371  0.7590 -0.3797  0.9465
32795SOL     OW16376   9.244  11.511   1.854  0.0284  0.0926 -0.0222
32795SOL    HW116377   9.289  11.469   1.927 -0.1879  0.2555  0.2079
32795SOL    HW216378   9.255  11.451   1.780 -0.6963 -0.6073  0.4225
32796SOL     OW16379   5.325   6.875  12.893 -0.4494  0.7150  0.1478
32796SOL    HW116380   5.329   6.925  12.974 -0.1340 -1.0230  1.2508
32796SOL    HW216381   5.248   6.819  12.904 -1.8138  2.0514 -1.7781
32797SOL     OW16382   4.037   4.657   9.167  0.0597  0.1340  0.6738
32797SOL    HW116383   4.094   4.708   9.109 -0.3371  0.8506  0.9051
32797SOL    HW216384   4.069   4.567   9.158  1.9620  0.6730  1.6472
32798SOL     OW16385  13.602   9.322   3.676  0.2920  0.3088  0.1003
32798SOL    HW116386  13.654   9.247   3.648  0.1407 -0.0875  0.8505
32798SOL    HW216387  13.665   9.392   3.689  0.7019 -0.2721  1.3658
32799SOL     OW16388   3.710   4.705  11.540  0.0335 -0.1485  0.7873
32799SOL    HW116389   3.691   4.754  11.620 -1.3815 -0.2166  0.5076
32799SOL    HW216390   3.641   4.730  11.479  1.2586  0.1137 -0.5296
32800SOL     OW16391   8.055   3.955   2.105 -0.1632  0.3956 -0.3042
32800SOL    HW116392   8.142   3.916   2.109  0.1662  1.1012 -0.4708
32800SOL    HW216393   8.071   4.049   2.098 -0.9425  0.6288  0.7063
32801SOL     OW16394   7.009   8.440  14.068  0.1376  0.8449 -0.2134
32801SOL    HW116395   7.083   8.458  14.010 -0.0090  1.3821 -0.2312
32801SOL    HW216396   6.998   8.345  14.063  0.7054  0.7819 -0.3587
32802SOL     OW16397   9.893  11.258  12.892 -0.3327  0.3201  0.0765
32802SOL    HW116398   9.848  11.175  12.903 -0.5984  0.6955  2.4656
32802SOL    HW216399   9.953  11.263  12.967 -0.6759  2.4475  0.2920
32803SOL     OW16400   0.780   7.705   2.175 -0.4786 -0.6573 -0.1580
32803SOL    HW116401   0.749   7.763   2.244 -1.0604 -0.2644 -0.7361
32803SOL    HW216402   0.761   7.752   2.094  1.0142 -0.7173 -0.5694
32804SOL     OW16403   5.145   8.312  12.829 -0.2647  0.5313 -0.1988
32804SOL    HW116404   5.065   8.270  12.860  0.8702 -1.0018  0.8108
32804SOL    HW216405   5.145   8.397  12.872  1.0177 -1.3132  4.0521
32805SOL     OW16406   0.732   9.993  10.006  0.1233 -0.0078 -0.3645
32805SOL    HW116407   0.792   9.948  10.066 -0.4197  0.0067  0.1917
32805SOL    HW216408   0.708   9.926   9.942  1.1995  0.1428 -0.9571
32806SOL     OW16409   4.808  11.693  12.696  0.0669 -0.0212  0.1127
32806SOL    HW116410   4.796  11.607  12.656 -0.3408 -0.8809  1.9668
32806SOL    HW216411   4.902  11.709  12.692  0.0267  0.0412 -1.3268
32807SOL     OW16412   4.763   2.677  11.652  0.5315 -0.3107 -0.2851
32807SOL    HW116413   4.758   2.582  11.642 -0.2845 -0.0943 -2.3773
32807SOL    HW216414   4.853   2.699  11.626  0.5740 -0.4634 -0.2684
32808SOL     OW16415   5.258  11.453  11.357  0.4529 -0.2108  0.4664
32808SOL    HW116416   5.342  11.486  11.325  0.1283  0.8475  0.6466
32808SOL    HW216417   5.261  11.467  11.452 -1.2054  3.1374  0.1903
32809SOL     OW16418   9.744   3.835   3.301 -0.1252  0.3018  0.3443
32809SOL    HW116419   9.819   3.892   3.319  0.0767  0.2595 -0.3247
32809SOL    HW216420   9.746   3.769   3.370  1.8897 -1.1392 -0.9814
32810SOL     OW16421  12.333   6.970  13.671  0.5757  0.4670  0.1861
32810SOL    HW116422  12.295   6.904  13.612 -1.1518  0.2244  1.4733
32810SOL    HW216423  12.298   7.053  13.640 -1.0848  0.2506  1.3283
32811SOL     OW16424   1.583   7.761  11.812 -0.2683  0.2409  0.2713
32811SOL    HW116425   1.675   7.761  11.787  0.0649  0.9226  1.4007
32811SOL    HW216426   1.536   7.780  11.731  0.5354 -0.6305 -0.4187
32812SOL     OW16427  12.797  10.312  12.422 -1.1489 -0.6547  0.5869
32812SOL    HW116428  12.726  10.252  12.397 -0.1174 -1.1337 -1.3691
32812SOL    HW216429  12.872  10.285  12.369 -0.2079  1.4240  0.7459
32813SOL     OW16430   8.063   4.838   6.085 -0.2398  0.4219  0.3870
32813SOL    HW116431   8.074   4.916   6.138 -0.4987  1.9635 -1.6914
32813SOL    HW216432   7.984   4.855   6.033  0.8674 -0.2211 -1.6505
32814SOL     OW16433   3.360   6.789  13.875 -0.7801 -0.1710  0.0150
32814SOL    HW116434   3.374   6.830  13.790 -0.9081  1.0900  0.5795
32814SOL    HW216435   3.400   6.849  13.938 -0.6751 -1.0839  0.8557
32815SOL     OW16436   7.812  10.549  11.456  0.1249  0.8932  0.1184
32815SOL    HW116437   7.856  10.630  11.429  3.7331 -1.1383 -0.7142
32815SOL    HW216438   7.862  10.479  11.413 -1.0838 -1.9398  2.9246
32816SOL     OW16439   4.241   2.086   4.366  0.1846  0.0208  0.6465
32816SOL    HW116440   4.312   2.150   4.369  0.5263 -0.3230  0.1950
32816SOL    HW216441   4.179   2.122   4.302  0.5938 -0.3083  0.0568
32817SOL     OW16442  12.495   0.382   6.061  0.7292  0.3457  0.8123
32817SOL    HW116443  12.553   0.453   6.091 -0.1217  0.5845  1.9447
32817SOL    HW216444  12.418   0.426   6.026  1.8581  0.0997 -2.2962
32818SOL     OW16445   2.714  11.288  13.789 -0.0851 -0.1305  0.0581
32818SOL    HW116446   2.711  11.237  13.870 -1.3261 -0.2915 -0.0758
32818SOL    HW216447   2.664  11.237  13.726  0.5027  0.2054 -0.6941
32819SOL     OW16448   2.880   7.400   7.877 -0.0239  0.0612 -0.0297
32819SOL    HW116449   2.830   7.473   7.841  0.3078  1.1148  1.5436
32819SOL    HW216450   2.864   7.404   7.971  0.0953 -1.8483  0.1202
32820SOL     OW16451  10.191   7.139  13.881 -1.0519 -0.1150 -0.4813
32820SOL    HW116452  10.192   7.234  13.890 -2.3761 -0.1379  0.2536
32820SOL    HW216453  10.120   7.110  13.939  0.8771 -1.7749  1.2098
32821SOL     OW16454   6.560  10.783   1.367  0.2159  0.0672  0.4369
32821SOL    HW116455   6.634  10.723   1.357  0.4499  0.3460  0.4872
32821SOL    HW216456   6.490  10.743   1.316  0.0387 -0.7994  1.3425
32822SOL     OW16457   8.780   7.092   6.674  0.2150  0.5743  0.1415
32822SOL    HW116458   8.715   7.156   6.645 -1.0249  0.8212  3.0963
32822SOL    HW216459   8.733   7.008   6.673  0.2260  0.5456  1.0261
32823SOL     OW16460   7.523   5.030  11.681  0.3353  0.0176 -0.0701
32823SOL    HW116461   7.590   5.027  11.614  1.1298  1.8689  0.5723
32823SOL    HW216462   7.571   5.043  11.763 -0.5718 -2.6562  0.9986
32824SOL     OW16463   3.939   0.776   3.694  0.2321 -0.2343 -0.3848
32824SOL    HW116464   3.863   0.833   3.679  0.2617  0.1429  0.7514
32824SOL    HW216465   4.014   0.834   3.681  0.2820 -0.2206 -0.0472
32825SOL     OW16466  12.565  10.837  11.113  0.6965  0.0416 -0.5751
32825SOL    HW116467  12.520  10.814  11.032  0.5972 -2.3161  0.0803
32825SOL    HW216468  12.645  10.786  11.111  1.5419  1.2905  0.0512
32826SOL     OW16469  10.017   0.798  11.530 -0.2447 -0.8912 -0.2717
32826SOL    HW116470   9.998   0.860  11.460  0.6099 -1.4511 -1.0079
32826SOL    HW216471   9.945   0.811  11.593 -0.8659 -0.1904 -1.1035
32827SOL     OW16472  13.792   8.808   4.838  0.6085  0.5614 -0.2551
32827SOL    HW116473  13.871   8.851   4.869  1.9379 -2.0494  0.2472
32827SOL    HW216474  13.720   8.856   4.880  1.8616  3.1121 -0.8841
32828SOL     OW16475   5.183  13.833   3.985  0.0607  0.2837  0.2389
32828SOL    HW116476   5.114  13.815   4.049 -0.6093  0.3675 -0.4458
32828SOL    HW216477   5.194  13.751   3.938  1.6311 -0.2442  1.4390
32829SOL     OW16478   3.872   0.550  11.123 -0.2536 -0.4592  0.4117
32829SOL    HW116479   3.789   0.507  11.103 -0.2871  0.1347 -0.8103
32829SOL    HW216480   3.927   0.530  11.047  0.7667 -0.9361  1.2493
32830SOL     OW16481   5.880   6.922  10.471 -0.1263 -0.1659  0.1460
32830SOL    HW116482   5.955   6.908  10.529  0.5953  1.0309 -0.4536
32830SOL    HW216483   5.915   6.908  10.383 -0.2729  1.5746 -0.2220
32831SOL     OW16484   5.969   9.686   9.759 -0.0708  0.8167 -0.1018
32831SOL    HW116485   5.933   9.597   9.764  0.6979  0.4674 -0.5157
32831SOL    HW216486   6.064   9.673   9.765  0.2772  1.3250 -3.0068
32832SOL     OW16487   3.219   5.003  10.464 -0.6093  0.5320  0.1723
32832SOL    HW116488   3.173   4.920  10.481  1.7206 -0.6335  1.2335
32832SOL    HW216489   3.179   5.036  10.384 -2.3208 -1.0953  0.2827
32833SOL     OW16490   6.913   8.312  11.880 -0.0801 -0.7069  0.1863
32833SOL    HW116491   6.992   8.303  11.828 -0.4020  0.9649 -0.6509
32833SOL    HW216492   6.913   8.235  11.937  0.9557 -1.9069 -1.3601
32834SOL     OW16493  12.296  13.571  12.672  0.0034  0.3339  0.3597
32834SOL    HW116494  12.380  13.571  12.718  0.3387  0.1645 -0.2281
32834SOL    HW216495  12.318  13.539  12.584 -0.6427  0.5008  0.1341
32835SOL     OW16496  11.801   8.761   3.394  0.2610 -0.1646  0.0492
32835SOL    HW116497  11.746   8.839   3.391 -0.3273 -0.5228  1.2669
32835SOL    HW216498  11.871   8.783   3.456  0.1834 -0.5458  0.2732
32836SOL     OW16499   6.251  10.042   0.744 -0.2454 -0.2083  0.1668
32836SOL    HW116500   6.296   9.958   0.743 -0.3634 -0.2675 -0.6493
32836SOL    HW216501   6.221  10.052   0.835  0.8528 -0.4559  0.5788
32837SOL     OW16502   9.189   9.921  11.247  0.0059 -0.5706 -0.5441
32837SOL    HW116503   9.176   9.959  11.160 -3.1816 -0.8848 -0.3472
32837SOL    HW216504   9.195   9.997  11.306  1.0143 -0.3651 -0.9049
32838SOL     OW16505  13.878   9.841  10.189  0.3341  0.1636 -0.5073
32838SOL    HW116506  13.901   9.914  10.131  2.7905  0.6908  0.9888
32838SOL    HW216507  13.954   9.784  10.186 -1.2740 -2.0621 -1.1172
32839SOL     OW16508  12.811  10.309   0.484  0.1899  0.4688 -0.2479
32839SOL    HW116509  12.892  10.258   0.475 -0.8307 -0.8814 -3.0277
32839SOL    HW216510  12.814  10.372   0.413 -0.9463  0.7604 -0.0575
32840SOL     OW16511   4.063   4.882   5.398 -0.3768  0.2767 -0.1971
32840SOL    HW116512   4.032   4.794   5.423  0.6150  0.0298  0.2349
32840SOL    HW216513   4.080   4.925   5.482 -1.7712  1.2358 -0.3904
32841SOL     OW16514  10.959   4.228   3.557  0.4855  0.5422  0.0013
32841SOL    HW116515  10.900   4.176   3.504 -1.1401  0.5731  1.6713
32841SOL    HW216516  11.032   4.170   3.577 -0.6306 -0.6640  0.6907
32842SOL     OW16517  10.135   6.656   7.522  0.1445  0.0404  0.1671
32842SOL    HW116518  10.101   6.727   7.577 -0.2523 -0.3983  0.5023
32842SOL    HW216519  10.229   6.671   7.516 -0.1335  1.5147 -1.1031
32843SOL     OW16520   3.609   9.728   1.880 -0.0465  0.0474  0.6166
32843SOL    HW116521   3.550   9.791   1.838  0.2692 -0.2090 -0.2190
32843SOL    HW216522   3.551   9.657   1.907 -0.0096 -0.6957 -1.1399
32844SOL     OW16523   7.225  11.895   7.730  0.3737  0.1909  0.7743
32844SOL    HW116524   7.274  11.941   7.662 -0.4235 -1.9630 -1.3877
32844SOL    HW216525   7.135  11.926   7.721  0.0466 -0.9149  0.0418
32845SOL     OW16526  11.954   0.794   7.458  0.8375  0.0932 -0.1300
32845SOL    HW116527  12.028   0.760   7.508  1.1030 -3.1177 -2.3996
32845SOL    HW216528  11.976   0.775   7.367 -2.4015 -0.2597 -0.9546
32846SOL     OW16529   3.383  13.655   0.102 -0.1330  0.2037 -0.5567
32846SOL    HW116530   3.373  13.618   0.014  0.9880 -1.5080  0.0059
32846SOL    HW216531   3.419  13.584   0.155 -0.9702  1.1414  1.3627
32847SOL     OW16532  12.076   4.949   7.485 -0.1833 -0.2332  0.3139
32847SOL    HW116533  12.154   4.902   7.455  1.0968  1.6390  0.5158
32847SOL    HW216534  12.095   5.041   7.465 -2.2005  0.3131  0.7194
32848SOL     OW16535  11.721   1.864   1.786  0.0307  0.1935  0.1750
32848SOL    HW116536  11.754   1.776   1.764 -0.2038  0.0381  0.4350
32848SOL    HW216537  11.633   1.866   1.751  0.6823  1.0124 -1.5073
32849SOL     OW16538   7.131   4.948   4.792 -0.1224  0.0556  0.2646
32849SOL    HW116539   7.193   4.877   4.776 -0.0296  0.2540 -0.3068
32849SOL    HW216540   7.169   4.997   4.865  0.9063  0.7215 -0.6777
32850SOL     OW16541   1.720   2.606   8.363 -0.2947 -0.1966  0.2223
32850SOL    HW116542   1.763   2.564   8.288  2.3789  1.4188  0.7072
32850SOL    HW216543   1.627   2.587   8.351  0.4380 -4.0036 -0.9271
32851SOL     OW16544   3.246   1.946   7.377  0.7444  0.1085 -0.7350
32851SOL    HW116545   3.205   1.935   7.292  1.8311 -1.3116 -1.1133
32851SOL    HW216546   3.272   1.858   7.403 -0.4319  0.3673  1.5398
32852SOL     OW16547   6.818  11.375   9.864 -0.7400  0.8765 -0.3856
32852SOL    HW116548   6.886  11.307   9.869 -3.3335 -1.8587  1.5401
32852SOL    HW216549   6.850  11.446   9.920  1.3384  0.5701 -1.1151
32853SOL     OW16550   0.974   6.390  12.162  0.0955  0.7787 -0.2141
32853SOL    HW116551   0.963   6.348  12.076 -1.4809 -0.9603  0.7533
32853SOL    HW216552   1.038   6.336  12.207  1.9211  2.4397 -0.6677
32854SOL     OW16553   9.775   0.108   9.188  0.4925  1.2062  0.5040
32854SOL    HW116554   9.747   0.152   9.107  3.1554 -0.7299 -1.6834
32854SOL    HW216555   9.866   0.135   9.200  0.3358  0.9825  2.5844
32855SOL     OW16556   6.492  13.885   1.560 -0.3464  0.2675 -0.2882
32855SOL    HW116557   6.586  13.877   1.542 -0.3054  2.1367 -1.1703
32855SOL    HW216558   6.487  13.895   1.655  0.1531 -1.6041 -0.0199
32856SOL     OW16559  10.450  10.066   4.131  0.6124  0.5383 -0.0992
32856SOL    HW116560  10.446   9.979   4.093 -1.9269 -0.2053  1.6347
32856SOL    HW216561  10.537  10.070   4.172  0.5470 -1.4411  0.3289
32857SOL     OW16562  10.564   0.147  10.252 -0.2313 -0.2159 -0.0549
32857SOL    HW116563  10.635   0.084  10.244 -0.2005 -0.2441  0.4049
32857SOL    HW216564  10.486   0.094  10.264 -0.0412 -0.1787  1.6429
32858SOL     OW16565   4.386   1.774   0.537 -0.3350  0.2428 -0.0995
32858SOL    HW116566   4.327   1.700   0.520  0.3548 -0.1760 -0.7536
32858SOL    HW216567   4.432   1.788   0.454  1.9816 -0.8075  0.9079
32859SOL     OW16568   8.622   4.746   3.543 -0.2049  0.4537  0.9504
32859SOL    HW116569   8.554   4.797   3.588 -1.2207  0.4603 -0.5110
32859SOL    HW216570   8.669   4.810   3.490 -1.4496 -0.0418 -0.8511
32860SOL     OW16571  12.781  13.824   0.995  0.2428  0.5375  0.2331
32860SOL    HW116572  12.866  13.781   1.007 -0.3650 -0.9265 -0.4649
32860SOL    HW216573  12.774  13.884   1.069  1.2241 -0.4460  1.1628
32861SOL     OW16574   0.318  11.478   8.823 -0.5185 -0.5375 -0.4155
32861SOL    HW116575   0.237  11.513   8.783 -1.1580 -0.7489  0.6633
32861SOL    HW216576   0.353  11.419   8.757  1.3953  3.0742 -2.9835
32862SOL     OW16577   3.998   0.711  13.994 -0.2804  0.0535 -0.4592
32862SOL    HW116578   3.937   0.784  13.998  0.4516  0.6663 -0.2962
32862SOL    HW216579   4.076   0.743  14.038  0.2822 -0.6063 -0.9633
32863SOL     OW16580   1.850   2.468   1.886  0.0350 -0.4870  0.4964
32863SOL    HW116581   1.944   2.486   1.894  0.5111 -2.6523  0.3558
32863SOL    HW216582   1.815   2.490   1.972  0.6845  0.1948  0.6029
32864SOL     OW16583   1.989   0.733  10.298 -0.2282  1.0630  0.0339
32864SOL    HW116584   1.909   0.709  10.252 -0.5126 -1.6863  1.7180
32864SOL    HW216585   1.974   0.704  10.388  2.4968  0.8171  0.4888
32865SOL     OW16586   8.964   6.330   3.611 -0.2840 -0.4250  0.2728
32865SOL    HW116587   8.996   6.247   3.647  0.2268 -0.7092 -0.7909
32865SOL    HW216588   9.029   6.353   3.545 -0.3922  0.8659  0.5993
32866SOL     OW16589  13.532   6.351   5.263 -0.4781 -0.1459 -0.4631
32866SOL    HW116590  13.528   6.440   5.298  1.2741 -0.2518  0.1039
32866SOL    HW216591  13.456   6.345   5.205 -1.1470  1.4040  0.1831
32867SOL     OW16592   6.094  10.432   8.927 -0.2496 -0.0788 -0.2953
32867SOL    HW116593   6.020  10.482   8.893 -0.6081 -0.9422 -0.7864
32867SOL    HW216594   6.152  10.420   8.852  1.5302  2.5046  0.5149
32868SOL     OW16595  11.767  10.281   6.693 -0.6966 -0.4051 -0.4907
32868SOL    HW116596  11.728  10.325   6.618 -1.4041  1.5254  0.9434
32868SOL    HW216597  11.850  10.328   6.708 -0.0819 -1.4113 -0.6259
32869SOL     OW16598  13.040   4.595   9.226  0.7600  0.2672  0.2447
32869SOL    HW116599  13.107   4.644   9.274 -0.1436 -0.7351  2.7220
32869SOL    HW216600  13.086   4.520   9.189  1.1943  0.1107  1.0871
32870SOL     OW16601   2.841  13.241   9.873 -0.2117 -0.1786  0.4276
32870SOL    HW116602   2.911  13.211   9.931 -1.4789 -3.1773  0.5962
32870SOL    HW216603   2.853  13.188   9.793  0.1201  2.2234 -1.2059
32871SOL     OW16604   0.456   1.056   3.210  0.5971 -0.0227  0.1578
32871SOL    HW116605   0.428   1.051   3.118 -1.2827  0.5943  0.6495
32871SOL    HW216606   0.386   1.014   3.259  0.6546  1.2845  1.4551
32872SOL     OW16607   9.265   5.386   7.914  0.0227 -0.0486 -0.0715
32872SOL    HW116608   9.253   5.477   7.940 -0.5380 -0.4245  1.1015
32872SOL    HW216609   9.357   5.368   7.932  0.1926  0.3423 -0.5264
32873SOL     OW16610  11.589   5.456   0.685 -0.1582  0.1035  0.3679
32873SOL    HW116611  11.508   5.427   0.644  0.4833 -0.1410 -0.8031
32873SOL    HW216612  11.613   5.535   0.636 -0.0205  0.5283  1.1170
32874SOL     OW16613   4.082  14.126  10.759 -0.0428  0.0748 -0.0807
32874SOL    HW116614   4.147  14.147  10.692  1.0393 -1.1311  0.5349
32874SOL    HW216615   4.016  14.074  10.714  1.0927 -1.4148 -0.0931
32875SOL     OW16616   2.772   6.931  12.796  0.3133 -0.0973  0.7702
32875SOL    HW116617   2.806   6.980  12.721  0.4417 -0.0777  0.8415
32875SOL    HW216618   2.683   6.964  12.807  0.4128  0.1516  0.8439
32876SOL     OW16619   8.672   4.303   5.846  0.2302 -0.3753  0.2494
32876SOL    HW116620   8.746   4.363   5.849  1.0247 -1.3261  0.1101
32876SOL    HW216621   8.601   4.350   5.890  1.3349 -0.0155  1.7271
32877SOL     OW16622  12.565   8.688   2.133  0.6222 -0.2783  0.4048
32877SOL    HW116623  12.574   8.772   2.087 -0.1430 -0.1996  0.3817
32877SOL    HW216624  12.654   8.655   2.140  1.2284  1.5663  2.3498
32878SOL     OW16625  10.886   7.194   2.354  0.0789 -0.0801 -0.3641
32878SOL    HW116626  10.962   7.154   2.395 -0.6064 -1.1329 -0.0891
32878SOL    HW216627  10.849   7.125   2.299 -1.1543  0.1293  0.1585
32879SOL     OW16628   4.974  12.512   4.919  0.2866 -0.5103  0.2650
32879SOL    HW116629   4.997  12.603   4.902 -0.0699 -0.3855  0.4543
32879SOL    HW216630   5.058  12.466   4.916  0.4018 -0.2697 -0.3772
32880SOL     OW16631   5.463   7.314   0.015 -0.4147  0.1499  0.1489
32880SOL    HW116632   5.433   7.304  -0.075 -1.8517  0.7735  0.5327
32880SOL    HW216633   5.385   7.300   0.068  0.2172  0.7047  1.2529
32881SOL     OW16634   6.964   0.968   0.720 -0.1409  0.1714 -0.2125
32881SOL    HW116635   6.944   1.061   0.710 -2.4338  0.0031  1.7884
32881SOL    HW216636   6.879   0.925   0.717  0.9768 -2.2220 -3.2610
32882SOL     OW16637   2.122   0.372   9.348  0.1802  0.4276 -0.4973
32882SOL    HW116638   2.209   0.410   9.358 -0.5003  2.0545 -0.4068
32882SOL    HW216639   2.069   0.443   9.312 -1.3156 -0.2449  0.2946
32883SOL     OW16640   4.919   2.428   7.629  0.0280 -0.1115 -0.3658
32883SOL    HW116641   4.991   2.437   7.566  0.4934 -1.3036 -0.0319
32883SOL    HW216642   4.876   2.513   7.628  0.9689  0.3795 -1.1548
32884SOL     OW16643   3.447  12.948   0.460  0.5606 -0.7390 -0.0624
32884SOL    HW116644   3.444  12.943   0.556 -0.3436  1.1787  0.0598
32884SOL    HW216645   3.519  13.008   0.441 -0.8444  0.9221 -0.4165
32885SOL     OW16646   4.236   6.323   0.008  0.6626  0.5457 -0.4809
32885SOL    HW116647   4.207   6.250  -0.048  0.7424  0.1332  0.0091
32885SOL    HW216648   4.303   6.368  -0.045 -1.0679  1.7282 -1.7609
32886SOL     OW16649   3.636  10.188   6.024  0.4756 -0.1000  0.4773
32886SOL    HW116650   3.616  10.221   6.112 -0.5824 -0.9007  0.5466
32886SOL    HW216651   3.709  10.127   6.038  1.1799  0.7548  0.6069
32887SOL     OW16652   0.247   2.814   4.960 -0.0931  0.1204 -0.0893
32887SOL    HW116653   0.299   2.749   5.008 -1.7516 -0.4892  0.9698
32887SOL    HW216654   0.236   2.776   4.873 -1.1342 -1.1389  0.5487
32888SOL     OW16655   0.992   3.519   1.731 -0.2392 -0.2041 -0.0624
32888SOL    HW116656   0.997   3.469   1.813  1.1018 -1.0159 -0.5935
32888SOL    HW216657   1.077   3.562   1.725 -0.9541  1.2431 -0.2015
32889SOL     OW16658  12.398   5.398   8.045 -0.1991  0.3660 -0.0280
32889SOL    HW116659  12.364   5.487   8.044  1.8982  1.2481  1.3437
32889SOL    HW216660  12.466   5.396   7.978  1.1025  0.4329  1.2284
32890SOL     OW16661   0.522   7.321   8.584 -0.0225 -0.3933  0.1852
32890SOL    HW116662   0.492   7.412   8.576  0.2458 -0.4240 -1.3177
32890SOL    HW216663   0.446   7.268   8.560  0.5371 -0.5079 -1.4079
32891SOL     OW16664   8.900   0.131   1.990  0.0930  0.2653  0.4221
32891SOL    HW116665   8.909   0.097   1.901 -1.3843  1.1017 -0.0827
32891SOL    HW216666   8.984   0.174   2.007  0.3765  0.1608 -0.5997
32892SOL     OW16667   9.004  10.887   9.189 -0.1841  0.0474 -0.0413
32892SOL    HW116668   9.093  10.854   9.196 -0.0649  0.3982  0.1560
32892SOL    HW216669   8.954  10.835   9.252 -0.1689 -0.3077 -0.3194
32893SOL     OW16670   8.463   4.646   7.285  0.1298 -0.2745 -0.3420
32893SOL    HW116671   8.410   4.581   7.331 -0.5855  0.2081 -0.4783
32893SOL    HW216672   8.489   4.709   7.352  0.2263 -0.3088 -0.3460
32894SOL     OW16673   4.846  12.884   5.117  0.0218 -0.2103  0.2167
32894SOL    HW116674   4.790  12.924   5.183  0.2783 -0.4941  0.6048
32894SOL    HW216675   4.934  12.918   5.135  0.4670 -1.8044  1.2760
32895SOL     OW16676   0.607   8.260   1.203 -0.0580  0.6078 -0.9093
32895SOL    HW116677   0.694   8.226   1.182  0.3866  1.3892 -0.3913
32895SOL    HW216678   0.613   8.354   1.187 -0.7455  0.6980 -0.6706
32896SOL     OW16679   8.922  11.651   6.105 -0.4967 -0.2883  0.5012
32896SOL    HW116680   8.876  11.655   6.189 -3.0348  0.8991 -0.8527
32896SOL    HW216681   8.879  11.581   6.056 -0.8380  0.7704 -0.7697
32897SOL     OW16682   2.467  11.505   6.731  0.8853 -0.8935  0.1672
32897SOL    HW116683   2.561  11.497   6.714  1.3406  0.2772  1.9025
32897SOL    HW216684   2.453  11.451   6.809  1.0669  2.3634  2.6500
32898SOL     OW16685   5.539   5.657   6.638 -0.3607  0.6696 -0.2238
32898SOL    HW116686   5.451   5.694   6.625 -0.4609  0.7300  0.6059
32898SOL    HW216687   5.525   5.582   6.695  0.2232  1.1445  0.5597
32899SOL     OW16688   0.872   1.753   7.144  0.0520  0.1128  0.0724
32899SOL    HW116689   0.846   1.667   7.177 -1.6188  0.4733 -0.2091
32899SOL    HW216690   0.823   1.815   7.198  0.7943  0.8750 -0.1047
32900SOL     OW16691   0.931   3.561   2.132 -0.0851  0.6201  0.2735
32900SOL    HW116692   0.922   3.617   2.055 -0.5972  0.5791  0.2957
32900SOL    HW216693   0.935   3.472   2.097  2.4197  0.7356  0.1273
32901SOL     OW16694   1.014   4.138   0.688 -0.5213 -0.0871 -0.1146
32901SOL    HW116695   1.066   4.063   0.660 -0.5847  0.2484 -1.1836
32901SOL    HW216696   0.964   4.162   0.610 -0.8335  0.7915  0.3490
32902SOL     OW16697   0.080   3.112   1.723  0.2660 -0.3766  0.1863
32902SOL    HW116698  -0.012   3.091   1.705 -0.2529  0.7815  1.2842
32902SOL    HW216699   0.082   3.125   1.818  0.9012  2.5741 -0.1474
32903SOL     OW16700   2.733   0.684  11.502 -0.1932  0.2117 -0.8357
32903SOL    HW116701   2.654   0.636  11.527  0.2723  0.4491  1.3738
32903SOL    HW216702   2.712   0.724  11.418 -3.3272  2.1743  0.6906
32904SOL     OW16703  13.405  12.192   9.893 -0.0709  0.6404 -0.1784
32904SOL    HW116704  13.393  12.278   9.934  1.8171  0.6720  0.4075
32904SOL    HW216705  13.478  12.204   9.832 -0.6262 -0.2520 -1.0522
32905SOL     OW16706   6.916   2.511  12.999 -0.3173  0.1253 -0.0575
32905SOL    HW116707   6.956   2.569  13.064 -0.5610  1.0114 -0.6743
32905SOL    HW216708   6.965   2.429  13.006  0.5792  0.6750  0.2719
32906SOL     OW16709   0.249   0.644  12.846  0.4424  0.2338 -0.0560
32906SOL    HW116710   0.166   0.599  12.827 -0.2537  1.9448 -1.4351
32906SOL    HW216711   0.239   0.676  12.935 -1.0143  1.5433 -0.6225
32907SOL     OW16712   0.522  11.404   4.759  0.5625  0.0679  0.3404
32907SOL    HW116713   0.578  11.471   4.721 -0.6853  1.0275  0.1232
32907SOL    HW216714   0.440  11.449   4.778 -1.0665 -1.8259 -1.6827
32908SOL     OW16715   3.275   1.230  13.407 -0.3673  0.3869 -0.4701
32908SOL    HW116716   3.312   1.147  13.376 -0.3280  0.8385 -1.6784
32908SOL    HW216717   3.266   1.283  13.328  0.1114  1.7456  0.3562
32909SOL     OW16718   4.812   6.673   8.381  0.1092  0.5776 -0.3621
32909SOL    HW116719   4.871   6.600   8.363 -1.7063 -0.9065 -0.6246
32909SOL    HW216720   4.825   6.692   8.474 -0.1441 -0.8283 -0.0133
32910SOL     OW16721  13.270  13.807   2.784  0.3312 -0.0392  0.1393
32910SOL    HW116722  13.196  13.765   2.828 -0.1457  1.1593  0.5065
32910SOL    HW216723  13.232  13.846   2.705  1.1493 -2.0288 -1.3494
32911SOL     OW16724   6.062   2.716   9.370 -0.4916  0.2384  0.1909
32911SOL    HW116725   6.144   2.671   9.348  0.1283  0.3341  2.1225
32911SOL    HW216726   6.000   2.644   9.383 -0.6888  0.1566 -1.0860
32912SOL     OW16727  10.177   0.415   8.864  0.0159  0.2417  0.0200
32912SOL    HW116728  10.188   0.371   8.948 -0.0918 -1.8432 -0.9728
32912SOL    HW216729  10.258   0.396   8.816  0.7310  2.6985  0.1549
32913SOL     OW16730   8.572  11.546   6.065 -1.0700 -0.7314  0.5493
32913SOL    HW116731   8.488  11.516   6.030 -1.7515 -1.7381  2.9049
32913SOL    HW216732   8.628  11.469   6.062 -0.1043 -0.0225 -1.1744
32914SOL     OW16733  12.991   0.589   1.006  0.3843  0.4145 -0.0518
32914SOL    HW116734  13.081   0.613   0.983  1.1018 -2.5422 -0.7966
32914SOL    HW216735  12.960   0.541   0.930 -1.9228  1.4721  0.1556
32915SOL     OW16736   7.885   3.606   8.755 -0.3807 -0.9283  0.0069
32915SOL    HW116737   7.881   3.619   8.850 -0.2205  0.2162 -0.1311
32915SOL    HW216738   7.806   3.556   8.735 -1.6079  0.7621  0.4573
32916SOL     OW16739   2.237   5.156  10.107  0.0804  0.1571 -0.5470
32916SOL    HW116740   2.160   5.101  10.120  0.3584 -0.2773 -0.7175
32916SOL    HW216741   2.300   5.100  10.061  0.5681  0.4455 -0.2458
32917SOL     OW16742  10.237   8.213  10.557 -0.5602 -0.4758 -0.1963
32917SOL    HW116743  10.303   8.171  10.502 -0.9989 -2.6167  0.7964
32917SOL    HW216744  10.154   8.192  10.515 -0.7343  2.2295 -1.4567
32918SOL     OW16745   3.931  12.349   8.521 -0.1135 -0.4651 -0.0626
32918SOL    HW116746   3.894  12.273   8.476 -0.9032 -0.5558  0.7107
32918SOL    HW216747   3.866  12.419   8.506  0.1230 -0.2143  0.0754
32919SOL     OW16748   1.962   8.714   4.407  0.1298 -0.0784 -0.0495
32919SOL    HW116749   1.991   8.772   4.477 -0.6558  0.0468  0.1860
32919SOL    HW216750   1.982   8.761   4.326 -0.1317  0.3405  0.1275
32920SOL     OW16751   1.282   9.738   3.315  0.0124  0.1432  0.5095
32920SOL    HW116752   1.343   9.812   3.313  0.6000 -0.3402  0.1523
32920SOL    HW216753   1.328   9.668   3.269 -1.9326  0.6151 -2.3729
32921SOL     OW16754   4.611   0.378  13.223  0.0355 -0.1676 -0.5769
32921SOL    HW116755   4.597   0.298  13.173  1.7753 -2.8241  2.7469
32921SOL    HW216756   4.702   0.372  13.253  0.4857  3.5139 -0.7978
32922SOL     OW16757   1.559   7.777  12.387  0.4727 -0.1869  0.2569
32922SOL    HW116758   1.642   7.823  12.376 -0.0700  0.7712  0.0485
32922SOL    HW216759   1.495   7.832  12.341  0.0964 -2.0781 -1.6291
32923SOL     OW16760   8.040  12.462   2.094  0.3488 -0.2155 -0.1390
32923SOL    HW116761   8.044  12.551   2.060  0.4208  0.1296  0.7460
32923SOL    HW216762   7.950  12.453   2.125  0.0270 -0.8351 -1.2126
32924SOL     OW16763   1.581   1.419   0.233  0.3456  0.1816 -0.5568
32924SOL    HW116764   1.527   1.355   0.186  0.1742  1.0482 -1.5930
32924SOL    HW216765   1.653   1.439   0.172 -0.0472  1.5602 -0.6066
32925SOL     OW16766   4.779  10.581   0.391  0.0698 -0.3356 -0.1154
32925SOL    HW116767   4.835  10.523   0.340  0.4063 -0.7437  0.6990
32925SOL    HW216768   4.737  10.524   0.455 -0.7364  0.0837 -0.2561
32926SOL     OW16769   0.142   6.613  14.061 -0.1816 -0.6591 -0.7470
32926SOL    HW116770   0.232   6.622  14.092 -0.4443  1.1101 -0.3865
32926SOL    HW216771   0.098   6.562  14.129  0.6341 -1.9575 -1.1607
32927SOL     OW16772   4.810  10.409  11.095 -0.3136 -0.2396  0.2320
32927SOL    HW116773   4.778  10.328  11.137 -0.0839  0.9310  2.8644
32927SOL    HW216774   4.902  10.392  11.076 -0.3349 -0.6871  0.5211
32928SOL     OW16775   5.112   1.159   8.811 -0.2412  0.5429 -0.3327
32928SOL    HW116776   5.045   1.149   8.743 -1.3628 -0.6410  0.9040
32928SOL    HW216777   5.171   1.085   8.797 -0.8814 -0.1228  0.4018
32929SOL     OW16778  10.542   9.826   5.229 -0.1864  0.6776 -0.5222
32929SOL    HW116779  10.450   9.836   5.208 -0.4336 -0.0784  0.1298
32929SOL    HW216780  10.568   9.910   5.267 -0.8559  0.5824  0.1637
32930SOL     OW16781  12.895   3.988   4.063  0.3094  0.3210 -0.1001
32930SOL    HW116782  12.953   3.915   4.040 -0.9964 -1.8587  2.9463
32930SOL    HW216783  12.946   4.040   4.126 -0.0141  0.0288  0.4050
32931SOL     OW16784   7.871   9.104  10.023 -0.1227 -0.3310 -0.1819
32931SOL    HW116785   7.903   9.171  10.082  1.0895 -0.2566 -0.8756
32931SOL    HW216786   7.907   9.128   9.937 -1.3006 -0.7767 -0.8324
32932SOL     OW16787   3.847   3.623  12.090  0.2725  0.0137  0.3326
32932SOL    HW116788   3.889   3.617  12.177 -0.0371 -2.0546  0.3833
32932SOL    HW216789   3.843   3.717  12.072  3.5177  0.3967  1.0112
32933SOL     OW16790   9.413   4.826   0.178 -0.0360  0.1958 -0.0935
32933SOL    HW116791   9.337   4.882   0.194  0.0771  0.3696 -0.1610
32933SOL    HW216792   9.485   4.888   0.160  0.2880  0.0505  0.6945
32934SOL     OW16793   5.765   3.959  10.266  0.2356  0.3592  0.2146
32934SOL    HW116794   5.704   3.890  10.293 -1.3097  1.5511 -0.0856
32934SOL    HW216795   5.839   3.952  10.327 -0.9416 -0.0910  1.6396
32935SOL     OW16796   9.240   3.788   1.794 -0.0685  0.1045  0.1204
32935SOL    HW116797   9.163   3.837   1.764 -1.4408 -2.3679 -0.7226
32935SOL    HW216798   9.252   3.720   1.728  1.4397 -0.9699  1.4369
32936SOL     OW16799   5.673  12.568  14.124  0.5683 -0.2908  0.0359
32936SOL    HW116800   5.652  12.475  14.135 -2.1793  0.3029  0.4697
32936SOL    HW216801   5.640  12.590  14.037 -1.8179  0.9576  1.1858
32937SOL     OW16802   5.155   7.326   0.358 -0.0838 -0.1126  0.8106
32937SOL    HW116803   5.062   7.305   0.355 -0.2045  0.4283  0.6915
32937SOL    HW216804   5.158   7.420   0.371  0.3936  0.3562 -1.9272
32938SOL     OW16805  11.046  12.830   6.644 -0.3206  0.0062  0.1832
32938SOL    HW116806  11.130  12.789   6.666 -0.4396 -0.6283 -0.4980
32938SOL    HW216807  11.067  12.923   6.636  0.0179  0.0475  1.4339
32939SOL     OW16808   8.313  12.833   5.671 -0.0262 -0.0590  0.4212
32939SOL    HW116809   8.294  12.751   5.625 -1.8935  0.2408  0.5637
32939SOL    HW216810   8.408  12.842   5.666  0.1166 -1.6606 -0.5623
32940SOL     OW16811  11.486  10.463  12.824  0.1478 -0.1060 -0.2938
32940SOL    HW116812  11.392  10.471  12.807 -0.4422 -3.3289  0.7646
32940SOL    HW216813  11.503  10.369  12.824  3.0755  0.2968  1.1900
32941SOL     OW16814   7.293   1.991  13.902  0.1792  0.1642 -0.2825
32941SOL    HW116815   7.383   2.000  13.935  0.4588  1.1959 -1.2527
32941SOL    HW216816   7.304   1.979  13.808 -0.7191  0.7488 -0.4719
32942SOL     OW16817  12.966   0.094  13.758  0.1428  0.3299 -0.5527
32942SOL    HW116818  12.938   0.031  13.693 -0.5523 -0.8798  0.8635
32942SOL    HW216819  12.887   0.145  13.778 -0.7375 -1.7711  1.9810
32943SOL     OW16820   7.593   3.275   0.889  0.0977 -0.0324 -0.3161
32943SOL    HW116821   7.520   3.242   0.835  0.7998 -0.2927 -1.1300
32943SOL    HW216822   7.648   3.198   0.904  0.3591  0.2215  0.0417
32944SOL     OW16823   8.657   0.984  13.478 -0.5249  0.1347 -0.2251
32944SOL    HW116824   8.648   1.022  13.566  0.3335 -1.0106  0.3854
32944SOL    HW216825   8.670   1.059  13.421  1.2314  0.7971  0.9621
32945SOL     OW16826   0.941   0.943   1.263 -0.4892  0.3288  0.5905
32945SOL    HW116827   0.846   0.953   1.275 -0.7817 -0.9963 -0.3989
32945SOL    HW216828   0.955   0.961   1.170  0.2497  0.5833  0.7499
32946SOL     OW16829   5.871   8.013   4.928 -0.5586 -0.0556 -0.1874
32946SOL    HW116830   5.803   8.066   4.887 -0.3549 -0.9182 -1.7139
32946SOL    HW216831   5.824   7.940   4.969 -0.8771  1.3984  2.2415
32947SOL     OW16832  10.213   9.890  11.665  0.2004 -0.1966  0.4553
32947SOL    HW116833  10.212   9.968  11.721  0.7667 -0.8561  1.4096
32947SOL    HW216834  10.232   9.924  11.577  2.7713  0.5556  1.2242
32948SOL     OW16835   9.330   7.748   4.883  0.2525 -0.6679 -0.0198
32948SOL    HW116836   9.264   7.687   4.918  0.2729 -0.1212  1.0240
32948SOL    HW216837   9.295   7.835   4.903 -0.1962 -0.2683 -2.2621
32949SOL     OW16838   4.618   5.205   7.165  0.6571 -0.1050  0.6018
32949SOL    HW116839   4.543   5.209   7.224 -0.5390 -0.3565 -0.8417
32949SOL    HW216840   4.657   5.119   7.182 -0.6745 -0.8758 -0.1231
32950SOL     OW16841   5.654   7.396   2.333 -0.1329 -0.0801  0.2691
32950SOL    HW116842   5.721   7.447   2.286  0.6729  0.0759  1.5379
32950SOL    HW216843   5.698   7.367   2.413 -0.9183 -1.8405  0.1171
32951SOL     OW16844   2.414   6.029  10.800  0.0639  0.6017  0.4287
32951SOL    HW116845   2.493   6.047  10.852  0.2610 -0.6754  0.5972
32951SOL    HW216846   2.361   5.973  10.857  0.4285 -1.1155 -0.8517
32952SOL     OW16847  10.382   4.889  12.408 -0.5701  0.0702  0.2203
32952SOL    HW116848  10.333   4.856  12.333 -0.7191  1.2410 -0.2219
32952SOL    HW216849  10.400   4.980  12.387 -0.5620  0.4135  1.5854
32953SOL     OW16850   9.218  14.051  11.047  0.1596 -0.5522 -0.3339
32953SOL    HW116851   9.138  14.048  11.099  0.1574 -2.1374 -0.3736
32953SOL    HW216852   9.283  14.090  11.105 -0.1862 -1.0153  0.3779
32954SOL     OW16853   0.369   2.907  12.905  0.3911 -0.1432 -0.4274
32954SOL    HW116854   0.376   2.860  12.822  0.6574  0.6524 -0.8639
32954SOL    HW216855   0.356   2.999  12.880  0.2263  0.0734  0.4089
32955SOL     OW16856   8.078   0.678   2.587 -0.2376  0.4312 -0.0965
32955SOL    HW116857   8.161   0.697   2.542  0.1037 -0.3563  0.1875
32955SOL    HW216858   8.092   0.593   2.628 -0.6233  1.0378  1.3232
32956SOL     OW16859   2.600   1.433   4.941  0.0275 -0.4451  0.1033
32956SOL    HW116860   2.594   1.443   4.846  0.5270 -0.7722  0.0337
32956SOL    HW216861   2.534   1.494   4.976 -1.2184 -1.4055 -0.4950
32957SOL     OW16862   9.588   3.860   7.202 -0.2492 -0.6053 -0.0814
32957SOL    HW116863   9.614   3.938   7.251 -0.6442 -1.1509  1.0283
32957SOL    HW216864   9.576   3.792   7.269  1.2228 -1.9604 -1.1059
32958SOL     OW16865   9.423  10.750  11.193  0.1950  0.3273 -0.2188
32958SOL    HW116866   9.352  10.732  11.255 -0.1187 -1.5959 -1.0872
32958SOL    HW216867   9.387  10.819  11.136 -1.1690 -0.8828 -0.8830
32959SOL     OW16868   9.544   0.725   6.638 -0.0745 -0.3603 -0.3138
32959SOL    HW116869   9.576   0.804   6.595  0.2345  0.4631  1.3652
32959SOL    HW216870   9.513   0.670   6.566  1.7203  0.3451 -1.6990
32960SOL     OW16871  12.700  13.930   9.572  0.4898  0.4642 -0.0028
32960SOL    HW116872  12.629  13.971   9.622 -0.1285  2.7774 -2.5083
32960SOL    HW216873  12.658  13.860   9.523  0.7931 -0.7584  1.4028
32961SOL     OW16874  11.469   4.804  12.884 -0.1198 -0.2175 -0.1495
32961SOL    HW116875  11.419   4.822  12.964  0.0163 -4.5784  1.1518
32961SOL    HW216876  11.413   4.745  12.834  0.7895  0.5939 -2.2237
32962SOL     OW16877  10.680   4.140  11.999 -0.1617 -0.0888  0.4595
32962SOL    HW116878  10.732   4.088  11.937 -1.0913 -0.2461 -0.2196
32962SOL    HW216879  10.667   4.224  11.954 -0.1848  0.0809  0.7823
32963SOL     OW16880   5.260   9.699   9.088  0.1711  0.3227  0.3162
32963SOL    HW116881   5.230   9.669   9.174  1.5776  1.7064  1.3681
32963SOL    HW216882   5.315   9.627   9.056  2.1736  0.9544  2.0515
32964SOL     OW16883  12.759   2.505   6.117  0.5591 -0.1624 -0.1074
32964SOL    HW116884  12.802   2.589   6.105  0.8836 -0.4237 -0.8223
32964SOL    HW216885  12.748   2.497   6.212  3.3874 -0.6868  0.2742
32965SOL     OW16886   8.944   4.525   9.292 -0.0355 -0.1791  0.7181
32965SOL    HW116887   8.968   4.586   9.362 -1.7312  1.2525  0.1339
32965SOL    HW216888   8.848   4.527   9.290 -0.0603 -1.0612 -0.8794
32966SOL     OW16889  13.863   8.272  11.736  0.1459 -0.3263 -0.3381
32966SOL    HW116890  13.941   8.312  11.698  1.0713 -1.0214  0.7580
32966SOL    HW216891  13.890   8.183  11.757 -1.3218 -0.9729 -1.0519
32967SOL     OW16892   2.200  11.487   6.871 -0.0912 -0.1844  0.4869
32967SOL    HW116893   2.214  11.551   6.800 -3.1307 -0.5248 -0.5711
32967SOL    HW216894   2.219  11.403   6.830  1.2473 -0.1841  1.0716
32968SOL     OW16895  13.998   8.469   4.465  0.4763  0.1021  0.2886
32968SOL    HW116896  14.087   8.483   4.431  0.0875  0.9298 -0.4234
32968SOL    HW216897  13.995   8.521   4.545  1.5556 -2.2432  1.9502
32969SOL     OW16898   2.969   2.056   9.853 -0.1232 -0.4381 -0.3797
32969SOL    HW116899   3.027   2.008   9.912 -0.6855 -0.9340 -0.2177
32969SOL    HW216900   2.886   2.063   9.901 -0.5853 -0.8349 -1.0871
32970SOL     OW16901  14.068  12.745   3.051  0.1472 -0.5666 -0.4854
32970SOL    HW116902  14.163  12.749   3.034  0.0955  3.6854 -0.9407
32970SOL    HW216903  14.045  12.835   3.074 -3.5923 -1.7691  1.1539
32971SOL     OW16904  10.233   8.784   0.497 -0.3705 -0.2428 -1.0040
32971SOL    HW116905  10.182   8.751   0.572  1.3786 -1.2646 -0.1954
32971SOL    HW216906  10.253   8.874   0.520 -0.9088 -0.1590 -0.8395
32972SOL     OW16907   2.753   3.687   3.591 -0.6053 -1.1562  0.5860
32972SOL    HW116908   2.751   3.739   3.671 -1.6947 -0.4394  0.1197
32972SOL    HW216909   2.815   3.733   3.534 -0.6635 -1.0484  0.6102
32973SOL     OW16910  12.828  11.656  12.479 -0.2486  0.0341  0.3610
32973SOL    HW116911  12.749  11.643  12.426 -0.7730  3.2354  0.1343
32973SOL    HW216912  12.897  11.612  12.430 -1.5380 -1.1015 -0.4992
32974SOL     OW16913   1.815   6.491  12.744  0.2372 -0.4440  0.2551
32974SOL    HW116914   1.840   6.514  12.655  1.3991  1.5549  1.0211
32974SOL    HW216915   1.888   6.521  12.798 -0.8707 -0.6637  1.9756
32975SOL     OW16916   0.539   3.646   6.402 -0.5445  0.0171  0.0094
32975SOL    HW116917   0.551   3.552   6.384 -1.7425  0.0109 -0.8902
32975SOL    HW216918   0.564   3.656   6.494 -0.4127 -1.1852  0.1221
32976SOL     OW16919   1.428  12.451   8.430  0.5070  0.0340  0.8592
32976SOL    HW116920   1.453  12.435   8.339  1.2297 -1.6943  1.3237
32976SOL    HW216921   1.332  12.454   8.428  0.5287  1.7612 -0.1826
32977SOL     OW16922   6.945   1.407   2.170 -0.2712  0.2090 -0.1505
32977SOL    HW116923   6.856   1.435   2.146  0.0790  1.6949  0.2158
32977SOL    HW216924   6.968   1.341   2.104 -1.9561 -0.8278  0.2365
32978SOL     OW16925   7.095  10.613   2.636  0.5750 -0.3355 -0.1300
32978SOL    HW116926   7.179  10.567   2.637  1.1246  0.6401  0.2766
32978SOL    HW216927   7.038  10.556   2.585  0.5454 -2.6149  2.1848
32979SOL     OW16928   3.835  10.030   6.490  0.4575 -0.6478  0.5123
32979SOL    HW116929   3.917  10.074   6.513  1.0883 -2.1869  1.3213
32979SOL    HW216930   3.769  10.071   6.546  0.8114  0.0384  0.4369
32980SOL     OW16931   6.949  12.946   5.367 -0.4735 -0.2338 -0.2004
32980SOL    HW116932   6.912  12.882   5.427 -1.0034 -0.6585 -0.9595
32980SOL    HW216933   7.042  12.925   5.363 -0.3347  0.1278  0.8574
32981SOL     OW16934  12.707  11.240  14.152 -0.3560  0.0473 -0.0595
32981SOL    HW116935  12.686  11.333  14.161  0.9419  0.2787  0.9350
32981SOL    HW216936  12.719  11.227  14.058  3.4591  1.9012 -0.0157
32982SOL     OW16937   7.148  10.909  10.081 -0.6476  0.3495  0.1619
32982SOL    HW116938   7.211  10.883  10.013 -0.0764 -0.1194  0.8470
32982SOL    HW216939   7.178  10.995  10.110  0.8820 -0.6729  1.8263
32983SOL     OW16940   0.457   7.736  12.901 -0.1502  0.0337  0.2778
32983SOL    HW116941   0.523   7.739  12.971  0.2330 -0.7025 -0.0473
32983SOL    HW216942   0.374   7.749  12.947  0.1472  0.1556  0.7967
32984SOL     OW16943  11.918   6.397   6.360  0.3844  0.4686  0.1565
32984SOL    HW116944  11.838   6.345   6.359  0.7510 -0.1476  1.1123
32984SOL    HW216945  11.966   6.365   6.437  2.1300 -0.0763 -1.0812
32985SOL     OW16946  12.154   0.669   3.094 -0.1606  0.5611 -0.4690
32985SOL    HW116947  12.155   0.675   2.998  1.7868 -0.5677 -0.5682
32985SOL    HW216948  12.242   0.693   3.120  0.4571 -2.6268  0.7457
32986SOL     OW16949  12.281  12.540   4.374  0.3441  0.7587 -0.4930
32986SOL    HW116950  12.220  12.555   4.302 -0.6292 -2.0898 -0.4199
32986SOL    HW216951  12.367  12.556   4.337 -0.2358  0.9756 -1.8147
32987SOL     OW16952  11.457   7.928   9.968  0.2691  0.0390  0.0281
32987SOL    HW116953  11.416   7.909   9.884 -1.7433  0.5657  0.8112
32987SOL    HW216954  11.388   7.909  10.032  1.1811  1.2276  1.4238
32988SOL     OW16955  11.558  13.751   6.167  0.0980 -0.0868 -0.5727
32988SOL    HW116956  11.504  13.694   6.112  0.9608 -1.9725  0.4225
32988SOL    HW216957  11.648  13.737   6.135  0.2620  1.3216 -0.7875
32989SOL     OW16958  11.437   7.737   3.781  0.0341 -0.0558  0.0155
32989SOL    HW116959  11.521   7.699   3.754 -0.3707 -2.1028  1.3658
32989SOL    HW216960  11.460   7.797   3.851  0.3101 -1.8747  1.5732
32990SOL     OW16961  10.052   4.955   6.282 -0.4389 -0.1249  0.4816
32990SOL    HW116962   9.998   4.983   6.208  0.1608 -1.0070 -0.3106
32990SOL    HW216963  10.015   5.001   6.357  1.3174  3.9516 -0.8768
32991SOL     OW16964  13.279  12.962   1.244  0.2580  0.2778 -0.1209
32991SOL    HW116965  13.328  12.920   1.173 -0.2512 -1.9498  0.7748
32991SOL    HW216966  13.188  12.955   1.218  0.0657 -0.5924  0.7519
32992SOL     OW16967   3.175   6.961   5.489  0.3220 -0.0722 -0.1834
32992SOL    HW116968   3.175   6.895   5.558  2.2505 -1.5912 -1.5095
32992SOL    HW216969   3.243   7.023   5.515  0.8711 -0.5040 -0.5692
32993SOL     OW16970   1.658   8.394   0.246 -0.6348 -0.1554 -0.3796
32993SOL    HW116971   1.739   8.443   0.232 -0.4852  0.0507  1.0406
32993SOL    HW216972   1.633   8.362   0.159  0.6298  0.3082 -0.9282
32994SOL     OW16973   4.143  12.845  12.905 -0.6565  0.3521  0.2327
32994SOL    HW116974   4.116  12.789  12.978  0.1820 -0.1955  0.1317
32994SOL    HW216975   4.217  12.895  12.939  1.3322 -1.6271 -0.9044
32995SOL     OW16976  12.516   4.605   3.113 -0.5827  0.0105 -0.4316
32995SOL    HW116977  12.507   4.685   3.165 -0.7498 -0.4292  0.2309
32995SOL    HW216978  12.611   4.590   3.109 -0.5168  0.5720 -1.0811
32996SOL     OW16979   4.275   1.496   8.235 -0.5362  0.0245  0.3870
32996SOL    HW116980   4.252   1.510   8.143  0.2393 -0.4929  0.1053
32996SOL    HW216981   4.220   1.422   8.262 -1.3563  0.6882  0.5869
32997SOL     OW16982   3.082  12.074   0.553 -0.1249 -0.5314 -0.0844
32997SOL    HW116983   2.999  12.064   0.507 -0.0211  0.3332 -0.4746
32997SOL    HW216984   3.058  12.103   0.641 -0.2250  0.0504 -0.3015
32998SOL     OW16985  10.453  12.184   5.303 -0.0301 -0.8681  0.1205
32998SOL    HW116986  10.507  12.207   5.228  0.5643 -0.2009  0.7451
32998SOL    HW216987  10.454  12.088   5.305  1.0184 -0.8644  0.0456
32999SOL     OW16988  10.496   7.666  10.281 -0.4894  0.3259 -0.5465
32999SOL    HW116989  10.466   7.745  10.326  2.6846  2.5850 -2.0108
32999SOL    HW216990  10.573   7.638  10.330 -0.2659 -0.5138 -1.3534
33000SOL     OW16991  10.408   2.005   8.354  0.1313 -0.0097 -0.3356
33000SOL    HW116992  10.459   1.973   8.428 -2.0404  0.2119  1.3584
33000SOL    HW216993  10.415   2.101   8.359 -2.2171  0.1652  1.3834
33001SOL     OW16994  13.250  10.715   8.868  0.0591 -0.6079 -0.4442
33001SOL    HW116995  13.258  10.779   8.938 -0.5877 -1.7160  0.6740
33001SOL    HW216996  13.178  10.747   8.813 -1.7578 -1.4441  1.3368
33002SOL     OW16997  10.638  11.287   4.897  0.0331 -0.3613  0.0686
33002SOL    HW116998  10.570  11.321   4.840  0.5589  0.3626 -0.1437
33002SOL    HW216999  10.717  11.286   4.842  0.3470 -0.5175  0.5111
33003SOL     OW17000  10.030   7.299  11.412  0.7832  0.1885  0.1024
33003SOL    HW117001  10.013   7.217  11.459  0.0391  0.6808  0.7250
33003SOL    HW217002  10.105   7.280  11.356 -0.0161 -1.2285 -0.5371
33004SOL     OW17003  11.541  12.976   8.629 -0.7863  0.4365  0.2433
33004SOL    HW117004  11.577  12.994   8.542 -0.8650  1.8780  0.4766
33004SOL    HW217005  11.598  12.909   8.666 -1.2591 -0.8274 -1.2335
33005SOL     OW17006   2.349   1.367  13.410 -0.4783  0.9720 -0.4791
33005SOL    HW117007   2.285   1.434  13.432  0.4870  1.2452  1.7939
33005SOL    HW217008   2.316   1.287  13.452  0.4415  1.0460  0.4498
33006SOL     OW17009   8.460  11.657   6.339  0.0404 -0.5319  0.5828
33006SOL    HW117010   8.380  11.679   6.292  0.8683 -0.3233 -0.7606
33006SOL    HW217011   8.442  11.573   6.380 -0.5838 -0.8882 -0.3976
33007SOL     OW17012   2.837   1.655   2.649 -0.0749 -0.2273  0.1446
33007SOL    HW117013   2.930   1.649   2.631  0.1355  0.1366  1.0645
33007SOL    HW217014   2.819   1.749   2.654 -0.3855 -0.2978  0.4386
33008SOL     OW17015  13.014   7.625   7.638 -0.5114  0.0432  0.3435
33008SOL    HW117016  12.952   7.557   7.612 -0.6746 -0.0997  1.0774
33008SOL    HW217017  13.076   7.580   7.695  0.5333  0.0884 -0.7179
33009SOL     OW17018   8.669   5.454   7.213  0.0878 -0.1220 -0.0686
33009SOL    HW117019   8.708   5.403   7.284 -2.6946 -0.3908  1.4447
33009SOL    HW217020   8.667   5.544   7.247 -1.5478 -0.3038  0.4547
33010SOL     OW17021   9.922   0.963  13.230  0.1121 -0.1381 -0.1550
33010SOL    HW117022   9.880   1.048  13.244  0.8645  0.0564  1.1598
33010SOL    HW217023   9.925   0.923  13.318  1.1239 -0.8652 -0.4924
33011SOL     OW17024   4.633  11.879  10.488  0.6718  0.0764 -0.2029
33011SOL    HW117025   4.614  11.972  10.499  0.9780 -0.0037  1.2697
33011SOL    HW217026   4.548  11.836  10.498  0.5670  0.1810 -0.6454
33012SOL     OW17027  12.288  13.967  11.188 -0.5524  0.2302  0.2536
33012SOL    HW117028  12.314  13.936  11.102  0.1907  0.5151  0.3625
33012SOL    HW217029  12.273  13.888  11.239 -2.3998  0.0345 -0.5107
33013SOL     OW17030  14.145   7.338  13.334  0.1061  0.0986  0.3045
33013SOL    HW117031  14.149   7.270  13.267 -2.4964  1.3860 -1.3229
33013SOL    HW217032  14.148   7.290  13.417  1.8862 -1.6514 -0.6915
33014SOL     OW17033   7.803   0.846   3.570  0.4645  0.2517 -0.0378
33014SOL    HW117034   7.858   0.785   3.618  1.5303  0.2030 -1.2760
33014SOL    HW217035   7.860   0.921   3.551 -0.6891  1.4867  1.0891
33015SOL     OW17036   8.921   5.272   2.992 -0.6406  0.5565  0.5274
33015SOL    HW117037   9.004   5.285   2.947 -0.7753 -0.5722 -0.0803
33015SOL    HW217038   8.928   5.325   3.071  0.3201  1.1365  0.0679
33016SOL     OW17039   8.937  10.933  11.789 -0.9857  0.0302 -0.1354
33016SOL    HW117040   8.902  10.929  11.878 -0.8837  0.9269 -0.0472
33016SOL    HW217041   8.949  11.026  11.772  1.7377 -0.2292 -0.0261
33017SOL     OW17042   6.860   6.980   4.263 -0.4824  0.2543  0.2083
33017SOL    HW117043   6.869   6.959   4.170  1.5703 -0.5364  0.5203
33017SOL    HW217044   6.816   6.905   4.301  0.1322 -0.1647  0.1125
33018SOL     OW17045   1.843   1.328   7.961  0.0799 -0.3335 -0.1786
33018SOL    HW117046   1.923   1.281   7.982 -0.5425 -1.7546 -0.9020
33018SOL    HW217047   1.872   1.418   7.945  1.3044 -0.4666  1.1127
33019SOL     OW17048  10.307   0.608   6.217  0.2957 -0.0238 -0.6699
33019SOL    HW117049  10.307   0.583   6.125 -2.6243 -3.1907 -0.0027
33019SOL    HW217050  10.215   0.629   6.237  1.0843  2.0830  1.2402
33020SOL     OW17051  12.755   5.825   9.378  0.2312 -0.2792 -0.1393
33020SOL    HW117052  12.661   5.811   9.368 -0.1716  1.1963  1.0868
33020SOL    HW217053  12.771   5.813   9.472  1.5103 -1.6833 -0.4998
33021SOL     OW17054  11.244   0.129   4.560  0.4227 -0.2362  0.4842
33021SOL    HW117055  11.305   0.136   4.633  0.5741  0.8345  0.2742
33021SOL    HW217056  11.162   0.163   4.594  0.0466 -1.2684  0.6352
33022SOL     OW17057   5.238   6.971   1.123  0.1119  0.4816  0.3205
33022SOL    HW117058   5.267   6.921   1.199  0.8305  1.1975  0.5270
33022SOL    HW217059   5.179   7.038   1.158 -0.6817 -0.0742  0.0688
33023SOL     OW17060   1.267   0.707   4.782  0.4002 -0.8007  0.0002
33023SOL    HW117061   1.172   0.709   4.776  0.3358 -0.4788  0.8817
33023SOL    HW217062   1.295   0.794   4.752  0.3136 -0.4236  0.9627
33024SOL     OW17063   7.069   3.384   6.114  0.4107 -0.4249  0.7816
33024SOL    HW117064   7.133   3.336   6.167  0.3913  0.7632  1.9307
33024SOL    HW217065   7.115   3.400   6.031  1.6981  0.5251  1.6378
33025SOL     OW17066   3.829  12.951  10.097 -0.0259 -0.5370  0.1035
33025SOL    HW117067   3.793  12.863  10.112 -0.2461 -0.5142 -0.2848
33025SOL    HW217068   3.764  12.995  10.042  0.2577 -0.2580 -0.0137
33026SOL     OW17069  12.927  11.031  10.099 -0.2970  0.3420  0.1519
33026SOL    HW117070  12.972  11.107  10.136 -0.5732  0.4567  0.2524
33026SOL    HW217071  12.975  11.011  10.019  0.1393  0.2574  0.4329
33027SOL     OW17072  11.605   3.246  10.168 -0.2060 -0.2888  0.0175
33027SOL    HW117073  11.616   3.161  10.212 -0.1516 -0.8105 -0.9842
33027SOL    HW217074  11.638   3.310  10.232  2.7873 -1.2517 -0.3987
33028SOL     OW17075   7.618   3.335  14.079 -0.0981  0.1064  0.4493
33028SOL    HW117076   7.548   3.272  14.060  0.8866 -0.5539 -1.1852
33028SOL    HW217077   7.585   3.418  14.045 -0.6352  0.0849  0.9091
33029SOL     OW17078   0.317  11.857   2.378 -0.2110 -0.7495  0.3883
33029SOL    HW117079   0.401  11.849   2.424  0.0637  0.2185  0.0780
33029SOL    HW217080   0.251  11.842   2.447  0.2006 -0.3861  0.8702
33030SOL     OW17081   6.254  13.857   9.175 -0.2549  0.3148  0.3069
33030SOL    HW117082   6.288  13.946   9.176  1.8793 -0.4207  1.9119
33030SOL    HW217083   6.232  13.839   9.267  0.7040 -1.2581  0.2577
33031SOL     OW17084   6.115   1.234   2.986  0.5965  0.0461 -1.0588
33031SOL    HW117085   6.112   1.141   2.966 -0.9654 -0.3304  0.6240
33031SOL    HW217086   6.172   1.241   3.062 -0.7319  0.1739 -0.0381
33032SOL     OW17087  12.803  10.171   2.281  0.5273 -0.2758  0.0419
33032SOL    HW117088  12.882  10.156   2.333 -0.6149 -0.8834  1.6640
33032SOL    HW217089  12.776  10.084   2.253  0.1056 -0.1306 -0.0031
33033SOL     OW17090   2.414   8.241   8.178 -0.7471 -0.2715 -0.0388
33033SOL    HW117091   2.442   8.234   8.087 -0.1702 -0.0737  0.1143
33033SOL    HW217092   2.343   8.178   8.187 -0.8417 -0.2530 -0.6382
33034SOL     OW17093   8.766  12.646   3.177  0.7308  0.6929  0.0823
33034SOL    HW117094   8.766  12.736   3.144  0.0373 -0.4085 -3.2514
33034SOL    HW217095   8.727  12.652   3.264  1.5191  3.6876  0.3304
33035SOL     OW17096   7.828  10.914   9.003 -0.6349  0.7098  0.2740
33035SOL    HW117097   7.878  10.992   8.977 -0.6219  0.9408  0.9606
33035SOL    HW217098   7.889  10.841   8.993 -0.5546  0.8279 -0.0901
33036SOL     OW17099  12.827  12.886  11.009 -0.4800 -0.3486  0.4379
33036SOL    HW117100  12.892  12.905  10.942 -1.3337 -0.5857 -0.4830
33036SOL    HW217101  12.865  12.920  11.090  0.6896 -0.3138 -0.1143
33037SOL     OW17102   7.972  13.281   5.310  0.8196  0.2081  0.0277
33037SOL    HW117103   8.015  13.196   5.310  0.6278  0.1105  0.2257
33037SOL    HW217104   7.929  13.286   5.395  1.5634  0.8723  0.3681
33038SOL     OW17105  11.177  11.543   1.331  0.5979  0.1025 -0.1242
33038SOL    HW117106  11.205  11.560   1.241 -0.2697 -0.3587 -0.4889
33038SOL    HW217107  11.132  11.623   1.358  0.7391  0.1898 -0.1488
33039SOL     OW17108   7.674   4.828   9.179  0.1759 -0.7094 -0.0720
33039SOL    HW117109   7.704   4.762   9.116 -1.4019  0.4984 -2.2212
33039SOL    HW217110   7.708   4.911   9.145 -2.6054  0.2706 -0.6979
33040SOL     OW17111  12.918  12.413  13.023  0.2958  0.8277 -0.3131
33040SOL    HW117112  12.834  12.415  12.978  0.6738  3.4832 -1.0746
33040SOL    HW217113  12.906  12.471  13.099  1.2016  0.5270  0.0762
33041SOL     OW17114   8.741   1.250  10.075  0.7391  0.0498 -0.6693
33041SOL    HW117115   8.797   1.174  10.089  1.0347  0.1318 -1.3909
33041SOL    HW217116   8.783   1.320  10.124 -0.3240 -0.5762  1.2509
33042SOL     OW17117   9.796   4.558   2.747 -0.3218 -0.1588 -0.5047
33042SOL    HW117118   9.701   4.545   2.738 -0.1939 -1.9194  0.3601
33042SOL    HW217119   9.810   4.562   2.841  0.4620  0.2383 -0.6323
33043SOL     OW17120   1.761   1.026  14.107  0.0481  0.1784 -0.0106
33043SOL    HW117121   1.789   1.034  14.016  0.2390  2.1355  0.1697
33043SOL    HW217122   1.809   0.950  14.141  1.5365  0.6473 -0.9974
33044SOL     OW17123  10.221   7.703   7.561  0.4071  0.0028 -0.0345
33044SOL    HW117124  10.149   7.754   7.600  1.3658  0.4266  1.2626
33044SOL    HW217125  10.258   7.655   7.635 -0.3352 -2.5000 -1.1894
33045SOL     OW17126   5.049   2.944  13.351  0.4716  0.5203  0.3580
33045SOL    HW117127   5.134   2.901  13.356  0.2224  0.0578  0.7265
33045SOL    HW217128   5.003   2.898  13.281  0.4874  0.7065  0.2234
33046SOL     OW17129   9.079   4.955   7.016  0.0003  0.2846  0.3666
33046SOL    HW117130   9.092   4.882   7.077  0.2418  0.3689  0.4189
33046SOL    HW217131   9.167   4.984   6.994 -0.0654 -0.3975 -0.8298
33047SOL     OW17132   3.441  10.459  13.341 -0.7189  0.1429 -0.2402
33047SOL    HW117133   3.478  10.371  13.338 -0.7330  0.0563  1.2793
33047SOL    HW217134   3.432  10.484  13.250  1.3231 -0.5656 -0.6878
33048SOL     OW17135   9.474  10.331  11.051 -0.2922 -0.1617 -0.4592
33048SOL    HW117136   9.534  10.391  11.095 -1.0736  0.3073 -0.0150
33048SOL    HW217137   9.396  10.384  11.032 -1.1245 -1.0922  0.2364
33049SOL     OW17138  11.731   3.523   4.756 -0.0952 -0.4227  0.1222
33049SOL    HW117139  11.785   3.596   4.787  1.8374 -1.9233  0.4283
33049SOL    HW217140  11.655   3.566   4.716  1.4110  1.8100 -0.5749
33050SOL     OW17141   9.695   3.672  11.868 -0.5426 -0.0172 -0.3388
33050SOL    HW117142   9.650   3.605  11.816 -0.8953 -0.9863  1.1498
33050SOL    HW217143   9.635   3.746  11.870 -1.7205 -0.9641  0.8747
33051SOL     OW17144   0.661  12.031  10.813 -0.1804  0.0648 -0.6569
33051SOL    HW117145   0.595  12.070  10.870 -1.5006 -3.7865  0.8034
33051SOL    HW217146   0.622  12.036  10.725 -1.1975  0.2340 -0.2117
33052SOL     OW17147  13.811   3.545  12.458  0.1512  0.1583 -0.1820
33052SOL    HW117148  13.830   3.455  12.487  1.1161 -0.3825 -2.2907
33052SOL    HW217149  13.726   3.538  12.414  0.1612  0.2969 -0.2232
33053SOL     OW17150  13.239   6.619   3.479  0.6542 -0.2532  0.2148
33053SOL    HW117151  13.219   6.530   3.452  0.4002  0.0488 -0.6239
33053SOL    HW217152  13.316   6.643   3.427 -1.5097  1.3572 -2.5909
33054SOL     OW17153  11.729   1.864   1.375  0.1775 -0.4654 -0.4326
33054SOL    HW117154  11.789   1.936   1.392  2.2383 -1.9996 -0.8170
33054SOL    HW217155  11.717   1.822   1.460  0.9570 -1.0993 -0.6250
33055SOL     OW17156   3.755   6.703   1.453 -0.3589  0.2046 -0.0051
33055SOL    HW117157   3.850   6.716   1.453 -0.4248  0.7655  0.6794
33055SOL    HW217158   3.743   6.614   1.486 -0.1672  1.3924  3.7505
33056SOL     OW17159  13.037  10.403   8.819 -0.2038  0.3230  0.7728
33056SOL    HW117160  13.088  10.482   8.838  0.8858 -0.0515 -0.3879
33056SOL    HW217161  12.950  10.436   8.795  0.7808  1.4170 -1.7077
33057SOL     OW17162   2.486  11.744  10.527  0.3209 -0.3458  0.0060
33057SOL    HW117163   2.552  11.797  10.572  0.6158  0.2645 -1.1098
33057SOL    HW217164   2.468  11.672  10.587  2.5870 -0.9658  0.0182
33058SOL     OW17165   4.518   0.284   4.663 -0.2646  0.1157 -0.0666
33058SOL    HW117166   4.612   0.268   4.672 -0.4463 -1.1602 -0.1675
33058SOL    HW217167   4.484   0.201   4.631 -1.4316  0.5734 -0.0316
33059SOL     OW17168  11.880   9.104  13.164  0.2001 -0.1030 -0.0572
33059SOL    HW117169  11.914   9.015  13.158  2.3648  0.4868  1.9017
33059SOL    HW217170  11.882   9.137  13.074 -0.9230 -2.0692 -0.8621
33060SOL     OW17171  10.748   1.522   2.928  0.3217  0.0319 -0.0211
33060SOL    HW117172  10.660   1.487   2.946  0.1084  0.3506 -0.4289
33060SOL    HW217173  10.807   1.455   2.963 -0.0759  0.0298  0.6851
33061SOL     OW17174   0.548   5.438   8.635  0.3178 -0.4382 -0.0435
33061SOL    HW117175   0.531   5.405   8.547  2.6839 -0.8587 -0.4144
33061SOL    HW217176   0.514   5.370   8.693 -0.4487 -0.5746 -0.6323
33062SOL     OW17177  14.121   7.216   3.242  0.4215 -1.0456 -0.0058
33062SOL    HW117178  14.142   7.308   3.257  0.0608 -1.0082  0.2932
33062SOL    HW217179  14.201   7.178   3.207  1.0947 -0.9882  1.3967
33063SOL     OW17180   2.791  10.598   3.800 -0.1432  0.0657  0.1989
33063SOL    HW117181   2.822  10.647   3.876 -0.3195  1.6147 -0.6804
33063SOL    HW217182   2.699  10.625   3.791 -0.1177 -0.0903 -0.5690
33064SOL     OW17183   9.292  11.073   9.310 -0.1431 -0.4937  0.0184
33064SOL    HW117184   9.293  10.987   9.269  0.4079 -0.2185 -0.5440
33064SOL    HW217185   9.204  11.080   9.347  0.0054 -1.5515  0.6187
33065SOL     OW17186   4.242   5.703   6.928  0.3896 -0.1689 -0.0940
33065SOL    HW117187   4.217   5.778   6.982  0.0219 -0.5185  0.2270
33065SOL    HW217188   4.311   5.659   6.978 -0.0775 -0.5954  0.1755
33066SOL     OW17189  13.725   7.260  10.934 -0.3459  0.4634 -0.2104
33066SOL    HW117190  13.685   7.196  10.876 -0.0063 -0.7396  0.8413
33066SOL    HW217191  13.819   7.240  10.932  0.1213  2.4752 -1.7041
33067SOL     OW17192   7.408   1.136   0.858 -0.3087  0.2934 -0.0119
33067SOL    HW117193   7.495   1.174   0.870 -1.7200  3.6634  0.7936
33067SOL    HW217194   7.389   1.148   0.765 -0.5922  1.3109  0.1642
33068SOL     OW17195  11.651  10.888   9.000  0.1436  0.2102  0.0490
33068SOL    HW117196  11.738  10.917   9.028  0.7450 -1.4987  0.0667
33068SOL    HW217197  11.597  10.899   9.078  0.9749 -1.1260  0.8616
33069SOL     OW17198   7.650  12.467   4.037 -0.6847  0.3199  0.4742
33069SOL    HW117199   7.573  12.484   4.093 -0.2574  0.4137  1.0451
33069SOL    HW217200   7.618  12.481   3.948 -0.8017  2.5634  0.7923
33070SOL     OW17201   7.356   6.383   8.491  0.3018  0.0235 -0.3060
33070SOL    HW117202   7.373   6.314   8.554 -0.8077 -0.8856 -0.9574
33070SOL    HW217203   7.428   6.444   8.502  2.0173 -1.8544 -0.5565
33071SOL     OW17204   7.872  10.172   3.213 -0.3938  0.1490  0.8520
33071SOL    HW117205   7.964  10.197   3.204 -0.3051 -0.4839 -0.1654
33071SOL    HW217206   7.826  10.226   3.149 -0.8760  1.1217  1.9889
33072SOL     OW17207   1.957   6.469   4.112  0.0566  0.4957  0.2450
33072SOL    HW117208   1.878   6.415   4.111  0.6870 -0.5022 -2.3274
33072SOL    HW217209   2.014   6.427   4.176 -0.7945  0.2110  0.8418
33073SOL     OW17210   4.604   3.288  12.048  0.2443  0.1409  0.1016
33073SOL    HW117211   4.555   3.327  11.976  0.2441  1.2280  0.6703
33073SOL    HW217212   4.583   3.195  12.045 -2.4064  0.6611  0.7627
33074SOL     OW17213   7.755  12.343  14.131 -0.7448  0.0161 -0.0364
33074SOL    HW117214   7.666  12.332  14.164 -0.5245 -0.0936  0.5145
33074SOL    HW217215   7.808  12.284  14.184 -0.0211  1.5457  1.0002
33075SOL     OW17216  12.598  11.556   0.361 -0.4565  0.3939  0.2790
33075SOL    HW117217  12.660  11.581   0.293  0.5557 -0.7132  0.7491
33075SOL    HW217218  12.624  11.468   0.386  0.4016  1.3746  3.3658
33076SOL     OW17219  11.563  10.503   4.938  0.0987 -0.2145  0.3236
33076SOL    HW117220  11.617  10.479   4.863  0.6216  0.3701  0.4977
33076SOL    HW217221  11.556  10.599   4.933 -1.4931 -0.3272 -0.0720
33077SOL     OW17222   6.790   9.008  12.324  0.3955 -0.8178 -0.3315
33077SOL    HW117223   6.782   9.078  12.259 -1.5881 -1.0042 -0.3438
33077SOL    HW217224   6.873   9.027  12.369  1.1720  0.0542 -2.0139
33078SOL     OW17225  10.985   8.593  10.192 -0.4307  0.0371  0.0474
33078SOL    HW117226  10.994   8.688  10.181 -1.6939  0.1364 -0.3249
33078SOL    HW217227  10.977   8.560  10.103  0.7592 -0.5227  0.1339
33079SOL     OW17228   7.041   9.993  11.268  0.1851  0.3607 -0.3780
33079SOL    HW117229   7.048  10.069  11.210 -0.1424  1.0723  0.4861
33079SOL    HW217230   6.947   9.984  11.285  0.2488 -0.0634 -0.2443
33080SOL     OW17231   7.340  11.946   1.502  0.0005  0.1718  0.0239
33080SOL    HW117232   7.258  11.904   1.528  1.2614 -1.5357  1.5148
33080SOL    HW217233   7.379  11.976   1.585  0.5083  1.7204 -0.7410
33081SOL     OW17234  13.296   5.821   7.087  0.0449  0.2707  0.3484
33081SOL    HW117235  13.364   5.757   7.111  1.3076  1.3377 -0.2542
33081SOL    HW217236  13.218   5.768   7.071  1.1280 -1.1540 -0.4325
33082SOL     OW17237   8.929  13.535   5.468 -0.2213 -0.3351 -0.7556
33082SOL    HW117238   9.004  13.516   5.524  1.2039 -3.3159 -3.3384
33082SOL    HW217239   8.853  13.530   5.526  1.1730 -2.8859  1.0344
33083SOL     OW17240   8.532   8.701  13.563  0.3290 -0.0353  0.0254
33083SOL    HW117241   8.627   8.700  13.579  0.4494  1.1348 -0.5045
33083SOL    HW217242   8.522   8.655  13.480  0.2907 -1.1804  0.6400
33084SOL     OW17243   4.993   1.631   5.689  0.2402  0.5617 -0.7263
33084SOL    HW117244   4.957   1.643   5.601 -0.2976 -0.6618 -0.6920
33084SOL    HW217245   4.977   1.715   5.732 -1.3680  0.5230 -1.1637
33085SOL     OW17246   4.558   8.398  13.665 -0.0133  0.0173  0.3927
33085SOL    HW117247   4.572   8.423  13.574  1.0401  0.9262  0.7714
33085SOL    HW217248   4.571   8.304  13.667 -0.7595 -0.1181 -0.5136
33086SOL     OW17249  10.101   4.784   7.140  0.2310  0.1003 -0.2171
33086SOL    HW117250  10.013   4.748   7.129  0.8028 -0.8648 -2.0929
33086SOL    HW217251  10.136   4.789   7.051  2.5655 -0.7647  0.5797
33087SOL     OW17252   1.870   4.552  12.650  0.0182  0.3847 -0.1186
33087SOL    HW117253   1.919   4.487  12.701  0.6397  0.6008 -0.4223
33087SOL    HW217254   1.875   4.520  12.560 -0.4678  0.3725 -0.1431
33088SOL     OW17255   9.145   8.551   9.080 -0.0642 -0.0296 -0.3169
33088SOL    HW117256   9.079   8.619   9.094  0.5761  0.6624 -0.5769
33088SOL    HW217257   9.184   8.538   9.167 -1.0517 -1.0103  0.0091
33089SOL     OW17258   0.596   4.227   1.995 -0.1410 -0.0647 -0.3262
33089SOL    HW117259   0.613   4.269   2.079 -0.7376 -0.8593  0.1991
33089SOL    HW217260   0.683   4.204   1.962  0.1243  0.6442 -0.1448
33090SOL     OW17261   1.342   8.155  12.783  0.2537 -0.9495  0.4762
33090SOL    HW117262   1.392   8.162  12.864  0.3015  3.9639  0.2750
33090SOL    HW217263   1.253   8.178  12.807 -0.0968 -1.1135 -0.6100
33091SOL     OW17264   2.089  10.441   7.288 -0.9637 -0.5244 -0.1825
33091SOL    HW117265   2.047  10.527   7.292 -0.5510 -0.3071 -0.4348
33091SOL    HW217266   2.029  10.382   7.333 -1.7665 -0.3075 -0.9463
33092SOL     OW17267   0.662   8.433  11.075 -0.0770  0.5225 -0.2627
33092SOL    HW117268   0.599   8.502  11.094  0.9284  1.2213  0.6824
33092SOL    HW217269   0.634   8.397  10.991 -1.6431  0.8897  0.0705
33093SOL     OW17270  12.992   4.342   3.985 -0.1500 -0.4575  0.3116
33093SOL    HW117271  12.899   4.319   3.971 -0.2768  0.3801 -0.2816
33093SOL    HW217272  12.994   4.437   3.979  0.9110 -0.5252 -0.7116
33094SOL     OW17273  10.328   7.582  10.836 -0.6447 -0.2717 -0.0504
33094SOL    HW117274  10.276   7.514  10.794  0.1445 -0.2852 -1.0259
33094SOL    HW217275  10.418   7.548  10.835 -0.4132  0.3026  0.4532
33095SOL     OW17276  10.103  12.780   5.311 -0.0022 -0.0890  0.0587
33095SOL    HW117277  10.068  12.696   5.282 -1.2850 -0.1112  1.5642
33095SOL    HW217278  10.197  12.765   5.320  0.3107 -0.4271 -2.7262
33096SOL     OW17279   0.829   6.414   1.459 -0.4919  0.2861  1.0723
33096SOL    HW117280   0.791   6.448   1.378  1.3887 -0.9962 -0.4432
33096SOL    HW217281   0.759   6.362   1.499 -1.3620  0.7164  0.1500
33097SOL     OW17282   8.822   5.625   1.651  0.3859  0.3671  0.1937
33097SOL    HW117283   8.770   5.638   1.572  0.7171  0.1674 -0.0588
33097SOL    HW217284   8.763   5.646   1.723 -0.4003 -0.9394 -0.0359
33098SOL     OW17285  13.964   2.511  10.082  0.0384  0.5828 -0.3027
33098SOL    HW117286  13.885   2.496  10.135  1.7637  0.1126  2.3401
33098SOL    HW217287  13.948   2.594  10.038 -1.1977  1.4847  1.6952
33099SOL     OW17288   4.565   9.455   9.773  0.2676  0.3622  0.1071
33099SOL    HW117289   4.559   9.550   9.771  1.1307  0.4448  0.6576
33099SOL    HW217290   4.482   9.426   9.810  0.3429  0.9637  0.7673
33100SOL     OW17291  11.029   9.888  11.171 -0.1104  0.1122  1.1224
33100SOL    HW117292  11.061   9.806  11.208  1.0944 -1.4809 -2.8983
33100SOL    HW217293  10.935   9.887  11.188  0.2204 -0.8778  3.1935
33101SOL     OW17294   0.873  10.022  11.133 -0.0353 -0.4300  0.5049
33101SOL    HW117295   0.903  10.113  11.137  2.7572 -1.2511  0.8953
33101SOL    HW217296   0.791  10.021  11.182  0.4717  1.6552  1.4971
33102SOL     OW17297  11.308  11.673  13.246 -0.1982 -0.1531 -0.3463
33102SOL    HW117298  11.299  11.588  13.203  1.2085 -0.9339  0.8354
33102SOL    HW217299  11.253  11.666  13.324 -0.0039 -0.0121 -0.1958
33103SOL     OW17300   1.080   6.530  13.949 -0.1728  0.3076 -0.1276
33103SOL    HW117301   1.146   6.464  13.928 -1.2216 -0.8621  0.0926
33103SOL    HW217302   1.128   6.598  13.995  0.7079 -1.0132  0.9999
33104SOL     OW17303  12.173   6.278   0.263  0.1125  0.0412  0.8554
33104SOL    HW117304  12.209   6.343   0.201 -0.7266  0.1076  0.4288
33104SOL    HW217305  12.134   6.331   0.332 -0.4393 -0.0053  0.5835
33105SOL     OW17306   5.425   6.820  13.427 -0.0670 -0.1547 -0.5936
33105SOL    HW117307   5.409   6.737  13.381  1.3088 -2.3727  2.5563
33105SOL    HW217308   5.515   6.844  13.404 -0.9082  1.4083 -2.6297
33106SOL     OW17309   7.036  11.307   9.034 -0.1863  0.0050 -0.1316
33106SOL    HW117310   6.971  11.237   9.041 -0.4279  0.0546 -1.5124
33106SOL    HW217311   7.066  11.321   9.123 -0.1655 -1.8332  0.1878
33107SOL     OW17312   7.727  12.621   2.736  0.3401  0.1755 -0.6239
33107SOL    HW117313   7.633  12.602   2.738 -0.0760  2.0271 -0.6876
33107SOL    HW217314   7.759  12.575   2.658 -1.2919  2.5672 -2.8461
33108SOL     OW17315  10.802  14.056   4.698  0.0745  0.3731 -0.3430
33108SOL    HW117316  10.881  14.003   4.707  0.5465  1.0168 -0.5905
33108SOL    HW217317  10.820  14.136   4.748 -1.0661 -0.1514  0.9791
33109SOL     OW17318   6.401  11.629   4.149 -0.5332  0.6570  0.3470
33109SOL    HW117319   6.488  11.664   4.170 -0.4451 -0.1441  1.3910
33109SOL    HW217320   6.351  11.637   4.231 -0.3959 -1.9275  0.7713
33110SOL     OW17321   5.553   6.009   6.808 -0.2520 -0.4354  0.2992
33110SOL    HW117322   5.610   6.072   6.764 -0.2395  0.7252  1.8980
33110SOL    HW217323   5.464   6.035   6.784 -0.2085 -0.5083  0.0593
33111SOL     OW17324   1.922  10.505   7.925 -0.8138 -0.2776 -0.5589
33111SOL    HW117325   1.902  10.599   7.926 -0.1332 -0.1249  0.7761
33111SOL    HW217326   1.877  10.472   7.847 -1.3957  1.0800 -0.8300
33112SOL     OW17327   5.317  12.976   7.956 -0.2612 -0.1188  0.0851
33112SOL    HW117328   5.236  12.924   7.959 -1.3658  1.5807  1.2833
33112SOL    HW217329   5.377  12.931   8.015 -1.4419  0.2904  1.6623
33113SOL     OW17330   2.660   1.663   0.535  0.2816 -0.2782  0.4779
33113SOL    HW117331   2.620   1.599   0.476 -0.9036 -0.2763  1.2516
33113SOL    HW217332   2.663   1.744   0.485  0.8376 -0.6710 -0.1465
33114SOL     OW17333   6.025   5.095   8.274 -0.2772 -0.8207  0.3005
33114SOL    HW117334   6.052   5.117   8.363  0.4354  1.5126 -0.4191
33114SOL    HW217335   5.933   5.121   8.269 -0.7215 -2.2035  0.6926
33115SOL     OW17336   8.050   7.845   8.073  0.1580  0.6286 -0.4135
33115SOL    HW117337   8.091   7.887   8.148  0.2531 -0.4341  0.1520
33115SOL    HW217338   8.016   7.762   8.107 -2.9088  1.6484 -0.7175
33116SOL     OW17339   3.524  12.006   5.056 -0.0550 -0.2910  0.3838
33116SOL    HW117340   3.430  12.022   5.053  0.0256  0.0916 -1.0460
33116SOL    HW217341   3.559  12.074   5.114 -0.7449 -1.0221  1.6967
33117SOL     OW17342   4.669   7.698  11.188  0.4037 -0.2904  0.4268
33117SOL    HW117343   4.645   7.611  11.157 -1.1501  0.5955 -1.0161
33117SOL    HW217344   4.723   7.734  11.118 -3.5427  1.9259 -1.8238
33118SOL     OW17345   2.166  11.152  12.567  0.5047 -0.0138 -0.0171
33118SOL    HW117346   2.138  11.119  12.653  1.3212 -1.4366 -0.2594
33118SOL    HW217347   2.086  11.153  12.515  0.1192  0.2265  0.5652
33119SOL     OW17348   6.128   6.896   0.590  0.2558 -0.5801 -0.5562
33119SOL    HW117349   6.049   6.886   0.537  0.0634 -0.5088 -0.2848
33119SOL    HW217350   6.196   6.924   0.528  0.1007 -0.7684 -0.8113
33120SOL     OW17351   5.820   0.505   7.055  0.7388  0.1982  0.1827
33120SOL    HW117352   5.819   0.538   6.965  1.3874 -0.3765 -0.0511
33120SOL    HW217353   5.799   0.581   7.109 -1.3844  0.1801 -0.5366
33121SOL     OW17354  13.408   7.789   4.355 -0.5206 -0.0324  0.4021
33121SOL    HW117355  13.401   7.876   4.318  1.6541  0.5155  1.1694
33121SOL    HW217356  13.454   7.737   4.289 -0.8862 -0.3308  0.3760
33122SOL     OW17357   6.097   8.005   0.396  0.3243 -0.4334 -0.7594
33122SOL    HW117358   6.015   8.023   0.441  0.3402  0.8831 -1.2121
33122SOL    HW217359   6.145   8.087   0.399  1.8854 -1.3281 -0.0249
33123SOL     OW17360   7.309   5.475  12.667  0.1542  0.3550 -0.3434
33123SOL    HW117361   7.239   5.411  12.661  1.8020 -1.8143  1.7918
33123SOL    HW217362   7.265   5.560  12.658 -2.4401 -0.9635 -0.8401
33124SOL     OW17363   4.276  10.963   3.799 -0.2928  0.6622 -0.4855
33124SOL    HW117364   4.192  11.008   3.801  0.3611  1.9152  0.5599
33124SOL    HW217365   4.333  11.020   3.747  0.2927  0.5865  0.0527
33125SOL     OW17366   9.662   2.182   5.575  0.1712  0.0984  0.3159
33125SOL    HW117367   9.658   2.248   5.506 -0.3573  0.4515  0.6797
33125SOL    HW217368   9.690   2.102   5.530 -0.8848  0.1403 -0.4532
33126SOL     OW17369  13.007   4.335  10.361 -0.4167  0.1063 -0.8238
33126SOL    HW117370  12.925   4.291  10.383  0.0363 -0.3183  0.0882
33126SOL    HW217371  12.983   4.426  10.348 -1.1241 -0.1210 -1.1454
33127SOL     OW17372   1.425   0.059   8.360 -0.1314 -0.3965 -0.1901
33127SOL    HW117373   1.450   0.139   8.313  1.7618  0.4251  2.0608
33127SOL    HW217374   1.467  -0.012   8.311  0.1544  0.2250 -0.8623
33128SOL     OW17375  12.938   3.714   7.653  0.7899 -0.0135  0.1963
33128SOL    HW117376  12.843   3.706   7.655  0.8041  0.0224  1.3015
33128SOL    HW217377  12.962   3.743   7.741  1.8152  0.0779 -0.1003
33129SOL     OW17378  12.078   9.464   4.564  0.3513 -0.2467  0.7581
33129SOL    HW117379  11.999   9.451   4.616 -0.6496  0.7339 -0.4423
33129SOL    HW217380  12.140   9.399   4.597 -0.6378 -0.4374  2.3406
33130SOL     OW17381  11.738   4.757   5.862 -0.0927  0.4378 -0.5993
33130SOL    HW117382  11.731   4.724   5.772  1.8187 -0.5149 -0.4304
33130SOL    HW217383  11.653   4.736   5.902 -0.1184 -1.2924 -1.4854
33131SOL     OW17384   4.589   2.938   8.202 -0.0687 -0.6432 -0.7071
33131SOL    HW117385   4.645   2.916   8.277 -0.9740  2.2260  0.9915
33131SOL    HW217386   4.599   3.032   8.191 -0.0283 -0.9286 -4.2838
33132SOL     OW17387  11.620   5.875  10.298 -0.6595  0.2270  0.2086
33132SOL    HW117388  11.642   5.785  10.274  0.8124  0.0633  2.0321
33132SOL    HW217389  11.543   5.867  10.354 -0.5504  0.1158  0.3405
33133SOL     OW17390   3.672   5.668   4.783 -0.0231  0.0572  0.2259
33133SOL    HW117391   3.610   5.622   4.726 -1.5834 -1.9519  3.2704
33133SOL    HW217392   3.729   5.599   4.818  2.2045  1.5003 -0.3735
33134SOL     OW17393   4.496   9.060  13.705  0.3187 -0.1646  0.0108
33134SOL    HW117394   4.572   9.002  13.714  0.3102 -0.3736 -1.1303
33134SOL    HW217395   4.420   9.001  13.713  0.3115 -0.3572 -1.3214
33135SOL     OW17396   0.673   7.668   9.318 -0.4132  0.3135 -0.4122
33135SOL    HW117397   0.701   7.577   9.326  1.3863  0.8443 -0.3443
33135SOL    HW217398   0.611   7.681   9.390  1.6990 -0.0133  1.5630
33136SOL     OW17399   2.704   9.478   9.234 -0.0347 -0.2525 -0.2164
33136SOL    HW117400   2.635   9.545   9.230 -0.7393 -0.7886  1.7202
33136SOL    HW217401   2.656   9.395   9.240  0.7201 -0.6012  1.6652
33137SOL     OW17402   4.326   7.065  13.345 -0.1284 -0.2801 -0.0363
33137SOL    HW117403   4.310   7.102  13.432  1.2042  1.9748 -0.6638
33137SOL    HW217404   4.394   6.999  13.359 -0.3718 -0.3782  0.7232
33138SOL     OW17405   0.185   2.410   2.667 -0.0444  0.6758  0.0301
33138SOL    HW117406   0.276   2.399   2.695 -0.2119  0.2016  0.4004
33138SOL    HW217407   0.190   2.466   2.589  0.5217  1.0688  0.3395
33139SOL     OW17408   4.904  10.656  12.440  0.9811  0.2806 -0.5626
33139SOL    HW117409   4.871  10.591  12.379  0.3213 -0.0899  0.1715
33139SOL    HW217410   4.999  10.646  12.437  0.8834 -0.9435 -0.2305
33140SOL     OW17411   9.165   4.878  11.127  0.6738  0.1374  0.1358
33140SOL    HW117412   9.145   4.867  11.034  0.1564 -1.3591  0.3888
33140SOL    HW217413   9.260   4.892  11.129  0.6266  0.6447 -0.6457
33141SOL     OW17414   5.820  12.806   0.871 -0.1746  0.0136 -0.1155
33141SOL    HW117415   5.822  12.902   0.873  1.3390  0.0464  2.7625
33141SOL    HW217416   5.729  12.785   0.849 -0.3892  2.0559 -1.4852
33142SOL     OW17417   4.486   5.803   6.212  0.4063  0.0015  0.5006
33142SOL    HW117418   4.442   5.797   6.297  1.9313 -0.3112  1.2980
33142SOL    HW217419   4.478   5.895   6.188  0.3574  0.1856  1.2007
33143SOL     OW17420   7.795   6.903   3.747  0.4776  0.1731 -0.3478
33143SOL    HW117421   7.880   6.924   3.707  0.2509 -2.2291 -2.3461
33143SOL    HW217422   7.732   6.915   3.676 -0.5311 -0.3473  0.4396
33144SOL     OW17423  12.678   4.395   7.007 -0.0135 -0.6049  0.2338
33144SOL    HW117424  12.687   4.446   7.088 -1.1824 -1.0354  0.6566
33144SOL    HW217425  12.717   4.451   6.939  0.6480 -0.0795  1.0224
33145SOL     OW17426  12.480   0.396   2.967  0.0050 -0.4613 -0.1396
33145SOL    HW117427  12.423   0.336   3.015  0.3030 -0.9532 -0.3893
33145SOL    HW217428  12.568   0.361   2.980  0.1523 -0.2293 -0.5035
33146SOL     OW17429  13.750   3.329   6.615  0.0093 -0.0233  0.2875
33146SOL    HW117430  13.752   3.284   6.700  1.8854  0.8559  0.7538
33146SOL    HW217431  13.827   3.296   6.568 -0.9410 -0.4100 -1.0610
33147SOL     OW17432   0.114   6.832   5.514  0.2968  0.5494  0.4166
33147SOL    HW117433   0.071   6.809   5.432  0.3207 -0.1240  0.5863
33147SOL    HW217434   0.054   6.800   5.582  1.8805 -2.1535  0.6818
33148SOL     OW17435   3.739  10.268   5.314  0.2277  0.3346 -0.5072
33148SOL    HW117436   3.707  10.178   5.317  0.2331  0.1592 -3.1892
33148SOL    HW217437   3.832  10.262   5.334  0.2802 -0.3047 -0.9267
33149SOL     OW17438   8.630  12.865   8.801  0.0047 -0.2581  0.0528
33149SOL    HW117439   8.555  12.909   8.762 -0.7710 -2.8272 -1.6457
33149SOL    HW217440   8.592  12.807   8.867  0.7980  0.2084  0.9474
33150SOL     OW17441  13.635   9.191   6.234  0.2920  0.2087  0.1314
33150SOL    HW117442  13.622   9.125   6.302  0.1415 -0.0589 -0.1515
33150SOL    HW217443  13.726   9.219   6.245  0.5042 -0.3925 -0.0447
33151SOL     OW17444   2.544   5.471  10.769 -0.3118 -0.0928 -0.1580
33151SOL    HW117445   2.620   5.447  10.823  0.7340  0.0375 -1.5298
33151SOL    HW217446   2.485   5.515  10.830  0.0706 -1.4230  1.2597
33152SOL     OW17447  11.696   5.705   7.183  0.7138  0.6751 -0.4331
33152SOL    HW117448  11.755   5.633   7.207  0.5263  0.6790  0.0377
33152SOL    HW217449  11.735   5.782   7.223  2.0607  1.2240 -2.6417
33153SOL     OW17450   4.210   5.509   8.273 -0.0975  0.1267  0.8352
33153SOL    HW117451   4.131   5.548   8.235 -0.0599 -0.3585  0.2421
33153SOL    HW217452   4.282   5.557   8.233 -0.0362 -0.8554 -0.2710
33154SOL     OW17453   4.504   8.126   3.916  0.2265  0.5679  0.1676
33154SOL    HW117454   4.555   8.048   3.938  0.4239  0.6473 -0.0073
33154SOL    HW217455   4.463   8.152   3.999 -0.6267 -0.2932  0.0200
33155SOL     OW17456  11.915  13.000   0.235  0.2150  0.6040  0.6974
33155SOL    HW117457  11.995  12.996   0.287  0.3361 -0.5126  0.4571
33155SOL    HW217458  11.878  12.912   0.243  1.1535 -0.2169 -2.5084
33156SOL     OW17459   2.423  14.130  13.394  0.2554  0.0026  0.5224
33156SOL    HW117460   2.416  14.105  13.486 -0.5691  0.8250  0.7020
33156SOL    HW217461   2.441  14.224  13.397  0.2364  0.0276 -0.1638
33157SOL     OW17462  12.492  10.210  10.533  0.3527  1.0264  0.1771
33157SOL    HW117463  12.518  10.232  10.623  2.8841 -1.0854  0.1002
33157SOL    HW217464  12.561  10.248  10.478 -0.2911  0.9130 -0.7242
33158SOL     OW17465   1.369   0.136   7.110 -0.1802 -0.7927  0.1389
33158SOL    HW117466   1.433   0.190   7.156 -0.5582 -1.9728  2.2189
33158SOL    HW217467   1.313   0.198   7.064  1.9166  0.3025 -1.0649
33159SOL     OW17468   4.816   1.962   9.148  0.2326 -0.1737 -0.4006
33159SOL    HW117469   4.727   1.963   9.114 -0.1460 -1.7281  0.4556
33159SOL    HW217470   4.807   1.986   9.240  0.7031 -0.3246 -0.3120
33160SOL     OW17471   0.676   7.016  12.499  0.4605  0.0693  0.1103
33160SOL    HW117472   0.724   7.099  12.497  0.1968  0.2656  1.0611
33160SOL    HW217473   0.656   6.997  12.408 -1.1625  2.0581 -0.0195
33161SOL     OW17474   1.127   3.545   3.247 -0.6224 -0.1135  0.0269
33161SOL    HW117475   1.150   3.594   3.168  1.9706  0.2234  0.9003
33161SOL    HW217476   1.168   3.460   3.236 -0.5157 -0.1795  0.8679
33162SOL     OW17477   1.494  13.402   9.590  0.2713  0.2398 -0.2473
33162SOL    HW117478   1.565  13.374   9.532  0.8474 -0.2597  0.6713
33162SOL    HW217479   1.450  13.472   9.542  0.7577 -0.1327 -1.2631
33163SOL     OW17480   2.695   4.290   4.111 -0.6870  0.1262 -0.0243
33163SOL    HW117481   2.768   4.237   4.143 -1.8684 -0.5790  1.6528
33163SOL    HW217482   2.735   4.354   4.053  1.0908 -1.0754 -0.1979
33164SOL     OW17483   4.553   1.483   4.173  0.0185 -0.4524 -0.4307
33164SOL    HW117484   4.477   1.539   4.153  0.2576 -0.0737 -0.2862
33164SOL    HW217485   4.545   1.410   4.112 -0.6908 -0.6284 -0.1482
33165SOL     OW17486   7.398  11.663   5.389 -0.4303 -0.4079  0.4008
33165SOL    HW117487   7.416  11.736   5.329  1.0900 -1.5580 -0.6201
33165SOL    HW217488   7.356  11.597   5.334  0.5884 -1.3103  0.6782
33166SOL     OW17489   9.652  11.479   5.671 -0.0068  0.3155  0.3324
33166SOL    HW117490   9.637  11.469   5.765 -0.4808 -0.4207  0.1817
33166SOL    HW217491   9.745  11.460   5.659 -0.0076  0.1327  0.6158
33167SOL     OW17492   4.443  10.331   3.417  0.3810  0.0279 -0.5497
33167SOL    HW117493   4.470  10.240   3.433  0.6931 -0.4255 -3.1729
33167SOL    HW217494   4.511  10.384   3.457 -0.5574 -0.7710  2.3517
33168SOL     OW17495  13.977   1.155   3.635 -0.9642  0.3172  0.1151
33168SOL    HW117496  13.985   1.062   3.656 -1.9653 -0.3031 -2.0122
33168SOL    HW217497  14.045   1.198   3.688  0.8273 -1.8364 -0.3185
33169SOL     OW17498   0.629   0.223   9.150 -0.0773  0.3305 -0.1685
33169SOL    HW117499   0.706   0.169   9.165  0.1363  1.0353  1.4634
33169SOL    HW217500   0.578   0.216   9.231 -1.6361  0.0625 -1.1150
33170SOL     OW17501   6.500   8.782   2.996  0.4152 -0.0838  0.2316
33170SOL    HW117502   6.529   8.795   3.086  1.2549 -1.2611  0.1470
33170SOL    HW217503   6.566   8.828   2.943 -0.9588  2.0435  0.2319
33171SOL     OW17504  10.401  12.748   7.213 -0.4773  0.4520  0.1076
33171SOL    HW117505  10.405  12.734   7.307  0.0519 -0.4198 -0.0331
33171SOL    HW217506  10.310  12.770   7.195 -0.5797  0.6172  0.8190
33172SOL     OW17507   6.496  13.599   8.494 -0.2081 -0.1713 -0.2472
33172SOL    HW117508   6.524  13.662   8.561 -1.0030  0.1597 -0.2065
33172SOL    HW217509   6.521  13.514   8.528  2.5522  0.1920 -1.1124
33173SOL     OW17510   4.732   0.582  11.625  0.0627  0.3783  0.2010
33173SOL    HW117511   4.804   0.526  11.653  1.6976  1.9590 -0.6178
33173SOL    HW217512   4.694   0.536  11.550  0.4518 -0.3181  0.4251
33174SOL     OW17513  12.658  12.209   7.862  0.0800 -0.6557  0.4350
33174SOL    HW117514  12.580  12.261   7.884 -0.3552 -0.4975 -1.2848
33174SOL    HW217515  12.645  12.126   7.908 -1.6113 -0.9825 -0.5292
33175SOL     OW17516   7.087   7.458   6.854  0.0023  0.1218  0.2120
33175SOL    HW117517   7.076   7.495   6.941  0.9465  0.3984  0.2197
33175SOL    HW217518   7.180   7.467   6.835 -0.3362  0.9620 -1.2251
33176SOL     OW17519   8.972   1.209  11.565 -0.4946  0.3136 -0.3424
33176SOL    HW117520   8.984   1.302  11.582  0.1247  0.2338 -0.3186
33176SOL    HW217521   8.987   1.198  11.472  0.3174  0.1061 -0.1927
33177SOL     OW17522   1.591   3.501   9.313 -0.3699 -0.6707 -0.2879
33177SOL    HW117523   1.631   3.575   9.268  0.3577 -0.9030 -0.0406
33177SOL    HW217524   1.653   3.429   9.300 -0.0263 -0.6817  1.2596
33178SOL     OW17525   9.819   3.852   6.059 -0.0042  0.2378  0.6149
33178SOL    HW117526   9.913   3.847   6.074  0.1100  1.3142  0.3525
33178SOL    HW217527   9.809   3.855   5.964 -0.3060  0.0562  0.6383
33179SOL     OW17528   0.819   1.046   7.234 -0.2295  0.1013  0.3276
33179SOL    HW117529   0.736   1.086   7.208  0.2869  1.0571  0.0726
33179SOL    HW217530   0.799   0.954   7.250 -0.9779 -0.0786 -1.4900
33180SOL     OW17531  10.234   5.711   8.706  0.6379 -0.8667  0.4632
33180SOL    HW117532  10.323   5.685   8.731  1.3753  0.0657 -0.9867
33180SOL    HW217533  10.232   5.806   8.719  0.1287 -0.7658 -0.2460
33181SOL     OW17534   6.535   8.548  14.023 -0.2992  0.5936 -0.2024
33181SOL    HW117535   6.615   8.575  13.977  0.5526 -1.2391  0.1078
33181SOL    HW217536   6.478   8.513  13.954  0.6005 -1.2858 -0.0546
33182SOL     OW17537   0.003  13.266   5.895  0.1112  0.6723  0.1434
33182SOL    HW117538  -0.080  13.271   5.847  0.5543 -1.3820 -0.9991
33182SOL    HW217539  -0.017  13.296   5.983 -1.4548  1.7264 -0.5333
33183SOL     OW17540   7.953  13.448   8.685 -0.1960 -0.3435 -0.2442
33183SOL    HW117541   8.028  13.405   8.728 -0.4218 -0.4365  0.0668
33183SOL    HW217542   7.914  13.379   8.631  0.5672 -0.0051 -1.2368
33184SOL     OW17543   9.914   0.236  12.951 -0.1972  0.1886 -0.6710
33184SOL    HW117544   9.961   0.170  12.900 -0.3848 -0.7791  0.3560
33184SOL    HW217545   9.878   0.296  12.886 -0.4211 -1.0015 -1.6807
33185SOL     OW17546  11.648   0.602   8.608 -0.5424  0.3706  0.3258
33185SOL    HW117547  11.704   0.542   8.558 -2.0424 -0.0927 -0.8805
33185SOL    HW217548  11.573   0.619   8.551 -3.2404 -1.5106  2.9620
33186SOL     OW17549   0.550   2.871   7.644  0.0280  0.0707 -0.2127
33186SOL    HW117550   0.542   2.838   7.555 -1.4012  0.0181 -0.1016
33186SOL    HW217551   0.546   2.967   7.635  1.1788  0.1143 -0.3013
33187SOL     OW17552   3.882  11.932   3.113  0.6054  0.2289  0.1707
33187SOL    HW117553   3.908  11.983   3.036 -0.4101  0.0587 -0.2878
33187SOL    HW217554   3.892  11.993   3.186  2.4982  0.1147  0.0634
33188SOL     OW17555  13.508   4.721  10.104 -0.0177  0.3760 -0.6464
33188SOL    HW117556  13.517   4.791  10.040 -1.9220  0.0257 -1.3456
33188SOL    HW217557  13.543   4.643  10.060 -0.3387  0.3508 -0.8560
33189SOL     OW17558   2.814  10.739   6.467 -0.0982 -0.1004 -0.5713
33189SOL    HW117559   2.720  10.737   6.483 -0.1360 -1.1295 -0.9078
33189SOL    HW217560   2.850  10.679   6.532  0.4986  1.3839  0.5515
33190SOL     OW17561   7.750   1.456   8.355  0.0364 -0.2615 -0.6622
33190SOL    HW117562   7.690   1.415   8.292 -3.4218  1.0069  1.5030
33190SOL    HW217563   7.783   1.383   8.408 -1.3568 -0.8428 -0.5514
33191SOL     OW17564   2.088   6.059   5.178 -0.3608  0.2320 -0.3514
33191SOL    HW117565   2.078   6.004   5.100 -0.0576 -0.8045  0.3173
33191SOL    HW217566   2.049   6.007   5.249 -1.9021  1.7390 -0.0232
33192SOL     OW17567   8.761   7.043   9.752  0.2067  0.4432 -1.1868
33192SOL    HW117568   8.669   7.039   9.778  0.1999  0.8203 -1.1566
33192SOL    HW217569   8.762   7.010   9.662  0.3233 -1.5953 -0.5023
33193SOL     OW17570   9.875  10.802  14.072 -0.5125  0.2827 -0.1991
33193SOL    HW117571   9.960  10.768  14.101 -0.1994 -1.6691 -2.9197
33193SOL    HW217572   9.866  10.886  14.116  2.7748  0.5174  0.2846
33194SOL     OW17573   5.440   7.798   7.184 -0.2794 -0.4756  0.1150
33194SOL    HW117574   5.445   7.740   7.108 -1.1289  0.0683 -0.3673
33194SOL    HW217575   5.407   7.742   7.255  1.2071 -1.1659  0.3010
33195SOL     OW17576   1.113   8.915   8.585 -0.2295  0.2162  0.5014
33195SOL    HW117577   1.109   8.827   8.623  0.0788 -1.3400 -2.7233
33195SOL    HW217578   1.058   8.910   8.506  0.0716  2.8393  0.0249
33196SOL     OW17579  11.228   3.676  12.251  0.4595  0.3465 -0.0381
33196SOL    HW117580  11.323   3.668  12.241  0.4055 -0.2247 -0.1388
33196SOL    HW217581  11.207   3.618  12.325  0.1006 -0.0865 -0.4760
33197SOL     OW17582   6.294   2.927   4.943 -0.0858 -0.0772  0.6607
33197SOL    HW117583   6.211   2.886   4.918  0.8652 -0.7384 -1.6222
33197SOL    HW217584   6.302   3.002   4.883  0.0053  1.2583  2.2729
33198SOL     OW17585  12.176   6.416  13.328  0.5180 -0.2581  0.4774
33198SOL    HW117586  12.141   6.494  13.285 -0.7571 -2.0375 -1.9458
33198SOL    HW217587  12.242   6.382  13.267 -0.8255 -2.4854  0.1675
33199SOL     OW17588   8.522   0.956   4.243  0.0659  0.0136 -0.1318
33199SOL    HW117589   8.513   1.043   4.203 -1.7686  1.1140  2.3357
33199SOL    HW217590   8.588   0.968   4.311  2.3325 -1.5231 -1.9259
33200SOL     OW17591   0.379   5.924  11.327 -0.4784  0.1229 -0.3404
33200SOL    HW117592   0.308   5.863  11.344  0.6797 -1.1888 -0.0562
33200SOL    HW217593   0.449   5.897  11.387  0.0580  1.7668 -0.1575
33201SOL     OW17594  12.870   4.704   6.326  0.4822  0.1341  0.2314
33201SOL    HW117595  12.852   4.748   6.243  0.3615 -0.7779 -0.2415
33201SOL    HW217596  12.965   4.707   6.335  0.4676  0.5763  0.2556
33202SOL     OW17597   5.031   4.689   8.864  0.1326 -0.2678  0.3448
33202SOL    HW117598   5.041   4.769   8.915 -2.0513  0.4255 -0.2010
33202SOL    HW217599   5.084   4.704   8.786 -0.3435  0.7174  0.1900
33203SOL     OW17600   4.341   2.995   3.022  0.5212 -0.1725 -0.0990
33203SOL    HW117601   4.401   2.927   2.994 -0.4900  0.1791 -3.6127
33203SOL    HW217602   4.254   2.959   3.004 -0.1933  0.7498  1.3140
33204SOL     OW17603  10.692  12.034  11.990 -0.7367 -0.4399  0.0641
33204SOL    HW117604  10.756  12.101  11.966 -1.4764  1.7019  3.3644
33204SOL    HW217605  10.611  12.082  12.005 -1.1323 -1.8585  3.2988
33205SOL     OW17606  10.547   7.931  14.106 -0.4777  0.5615  0.1439
33205SOL    HW117607  10.508   7.966  14.187 -0.5997  1.7956 -0.4187
33205SOL    HW217608  10.603   7.860  14.136 -1.1508  0.4567  1.2381
33206SOL     OW17609   8.529  13.038   4.389  0.6210  0.1751  0.0071
33206SOL    HW117610   8.550  13.093   4.465  0.5366  1.9468 -1.2008
33206SOL    HW217611   8.457  13.084   4.345 -0.1511 -1.4477 -0.5185
33207SOL     OW17612  10.437   3.926   1.316  0.2393  0.1789  0.2717
33207SOL    HW117613  10.518   3.930   1.366 -0.7046  0.8690  1.8100
33207SOL    HW217614  10.458   3.967   1.232  1.7381 -0.6021  0.2288
33208SOL     OW17615   5.751   3.088  11.428  0.3037 -0.3852  0.0747
33208SOL    HW117616   5.769   3.181  11.420 -0.1460 -0.2510  0.5652
33208SOL    HW217617   5.751   3.056  11.337  1.7530 -0.1765 -0.0256
33209SOL     OW17618   5.305  10.499   9.265 -0.4917 -0.3003  0.7636
33209SOL    HW117619   5.290  10.429   9.201 -0.4363  0.1505  0.2487
33209SOL    HW217620   5.387  10.476   9.307 -1.0373 -1.1437  1.4036
33210SOL     OW17621   1.039   7.586   2.192  0.4929 -0.6275 -0.7042
33210SOL    HW117622   0.958   7.625   2.224  1.0807  0.2100 -0.2017
33210SOL    HW217623   1.062   7.639   2.115  0.3894 -1.0805 -1.0529
33211SOL     OW17624   9.858   3.643   7.969  0.0469 -0.5155 -0.0367
33211SOL    HW117625   9.894   3.669   7.884 -0.5635 -0.4600 -0.2855
33211SOL    HW217626   9.863   3.723   8.022  0.7679 -0.6488  0.0985
33212SOL     OW17627   0.628  12.741   5.731  0.3535 -0.4979  0.4647
33212SOL    HW117628   0.585  12.659   5.756 -2.3085  0.2077 -1.3739
33212SOL    HW217629   0.622  12.742   5.635  0.0731  1.9453  0.4519
33213SOL     OW17630   8.583   3.350   8.481  0.6176 -0.1706 -0.0896
33213SOL    HW117631   8.561   3.296   8.405 -0.4777 -0.2089  0.2330
33213SOL    HW217632   8.504   3.349   8.534  0.5920  1.7013 -0.0320
33214SOL     OW17633  13.588   2.958  11.978 -0.1892  0.0075  0.0806
33214SOL    HW117634  13.534   2.879  11.981 -0.3464  0.1247  0.4282
33214SOL    HW217635  13.617   2.970  12.069 -0.2707  0.4174  0.0545
33215SOL     OW17636  13.714   3.499  11.173 -0.3174  0.4180 -0.0605
33215SOL    HW117637  13.717   3.452  11.256  1.5045 -0.6420 -0.6543
33215SOL    HW217638  13.754   3.584  11.191 -0.2046  0.3044  0.2258
33216SOL     OW17639   2.039   7.410  11.234  0.3181 -0.5638  0.1122
33216SOL    HW117640   2.132   7.391  11.221  0.2048 -1.3250  0.3800
33216SOL    HW217641   2.016   7.365  11.315 -0.2506 -0.2516  0.1318
33217SOL     OW17642  10.574   1.308  11.151 -0.1342  0.1217 -0.2513
33217SOL    HW117643  10.535   1.221  11.153  0.1690 -0.0397 -1.0237
33217SOL    HW217644  10.505   1.364  11.113 -0.0631  0.0704 -0.4590
33218SOL     OW17645   0.704   0.494   8.044  0.6288  0.1596 -0.0163
33218SOL    HW117646   0.646   0.560   8.007 -1.0542 -0.3320  1.5944
33218SOL    HW217647   0.656   0.412   8.033  2.6885 -0.9115 -2.0277
33219SOL     OW17648   3.469   0.763  13.862 -0.2114  0.0089 -0.4989
33219SOL    HW117649   3.399   0.762  13.926 -0.6266 -3.1044 -0.8166
33219SOL    HW217650   3.546   0.794  13.910 -0.6177 -1.7850  1.4673
33220SOL     OW17651  10.620   0.825   9.704  0.4897  0.4895  0.4267
33220SOL    HW117652  10.703   0.784   9.726 -0.5400 -1.4836  0.9180
33220SOL    HW217653  10.642   0.916   9.683  2.9502 -0.3755 -1.0632
33221SOL     OW17654   3.303  12.188  11.328  0.3805 -0.5174 -0.1362
33221SOL    HW117655   3.308  12.262  11.268  0.1362 -1.1929 -1.0041
33221SOL    HW217656   3.391  12.183  11.367 -0.0260  1.1561  1.0964
33222SOL     OW17657  12.729   4.305   3.988  0.5063 -0.0897  0.9020
33222SOL    HW117658  12.706   4.217   4.018  0.1660 -0.2425  0.2077
33222SOL    HW217659  12.668   4.363   4.033 -0.5577 -0.3928 -0.0976
33223SOL     OW17660   5.683   9.289   1.159 -0.4802 -0.7617 -0.4297
33223SOL    HW117661   5.609   9.241   1.121 -0.3431 -1.2552 -0.0814
33223SOL    HW217662   5.747   9.292   1.088 -1.2894  0.7263 -1.1384
33224SOL     OW17663   5.852   0.506  10.752  0.2761  0.7466 -0.3870
33224SOL    HW117664   5.910   0.484  10.826 -0.3635  0.2141 -0.0284
33224SOL    HW217665   5.900   0.478  10.675 -0.0900 -1.1042 -0.0066
33225SOL     OW17666   1.730   6.282   4.226 -1.0626 -0.5004 -0.4655
33225SOL    HW117667   1.697   6.283   4.315 -1.0006  0.5800 -0.4339
33225SOL    HW217668   1.761   6.193   4.212 -0.4898 -0.5100  0.8031
33226SOL     OW17669   2.225   3.247  12.418 -0.3883  0.2861 -0.0134
33226SOL    HW117670   2.221   3.275  12.510  0.2908  0.1863  0.0482
33226SOL    HW217671   2.140   3.205  12.403 -1.1846  1.8014  0.0680
33227SOL     OW17672   1.125   1.652  11.712  0.1833 -0.5800  0.6988
33227SOL    HW117673   1.209   1.692  11.691  0.4399 -0.6630  1.5329
33227SOL    HW217674   1.111   1.672  11.805 -1.4926  0.8220  0.1923
33228SOL     OW17675   4.416   0.009  12.598  0.2118 -0.4529  0.1431
33228SOL    HW117676   4.427   0.058  12.516  0.2147 -2.0016 -0.8150
33228SOL    HW217677   4.330  -0.033  12.589  0.4050 -0.9900  0.7499
33229SOL     OW17678  13.608  13.450   0.122  0.7695  0.2400 -0.3468
33229SOL    HW117679  13.570  13.399   0.050 -0.3940 -0.9682  1.0450
33229SOL    HW217680  13.701  13.457   0.100  0.5902 -0.8082 -1.5648
33230SOL     OW17681   6.561  13.872  11.271  0.6455 -0.1791 -0.4185
33230SOL    HW117682   6.647  13.874  11.313  1.2452 -0.4106 -1.6041
33230SOL    HW217683   6.579  13.857  11.179 -0.7213 -1.2863 -0.5491
33231SOL     OW17684   2.433   3.007   4.905 -0.7094 -0.1827 -0.0297
33231SOL    HW117685   2.429   2.997   5.000 -0.9767  0.2576  0.0078
33231SOL    HW217686   2.397   3.094   4.888  1.7691  0.8646 -0.3205
33232SOL     OW17687  11.253  13.727  10.799  0.0784  0.1171 -0.0343
33232SOL    HW117688  11.221  13.763  10.882 -1.9776 -1.4229 -0.0752
33232SOL    HW217689  11.299  13.647  10.823 -1.6016 -1.0209 -0.3742
33233SOL     OW17690  12.625   9.255   9.691 -0.3697  0.4421 -0.1170
33233SOL    HW117691  12.577   9.177   9.718 -3.4456  2.6799  1.5068
33233SOL    HW217692  12.671   9.284   9.770 -0.3353  0.9982 -0.3363
33234SOL     OW17693   5.932   0.191  11.590  0.7388  0.0241 -0.3821
33234SOL    HW117694   5.901   0.275  11.558  3.5468  1.2117 -0.3234
33234SOL    HW217695   5.994   0.214  11.660 -1.5247 -2.2799  2.6261
33235SOL     OW17696   6.247   0.374  11.568  0.2432  0.2604 -0.6399
33235SOL    HW117697   6.336   0.355  11.541  0.4716  1.1091 -0.5269
33235SOL    HW217698   6.192   0.327  11.505  0.7621 -0.5810 -0.4717
33236SOL     OW17699  12.984   2.378   4.543  0.0168  0.1653 -0.6143
33236SOL    HW117700  12.964   2.379   4.450 -1.2895 -0.7309 -0.3694
33236SOL    HW217701  12.899   2.372   4.586  0.6225  0.1414  0.6167
33237SOL     OW17702  10.421   2.108   5.549 -1.4685  0.1816 -0.0745
33237SOL    HW117703  10.352   2.173   5.567 -2.1312 -0.7682  0.9916
33237SOL    HW217704  10.389   2.028   5.591  0.9893  0.0857  1.8139
33238SOL     OW17705  12.123  12.400   7.545  0.1860  0.0984  0.0491
33238SOL    HW117706  12.140  12.488   7.578 -0.9826 -0.0703  1.1845
33238SOL    HW217707  12.111  12.346   7.623 -1.8987 -0.4903 -0.5902
33239SOL     OW17708   0.271   9.877  14.111 -0.1789 -0.0632 -0.2842
33239SOL    HW117709   0.269   9.806  14.174  1.9674 -0.4535 -0.5720
33239SOL    HW217710   0.203   9.855  14.047 -0.8708 -0.7985  0.6755
33240SOL     OW17711  10.489  11.950   4.988  0.5096  0.4422 -0.1622
33240SOL    HW117712  10.488  12.045   4.997  1.4533  0.3563  1.0594
33240SOL    HW217713  10.577  11.930   4.957  1.0441 -0.1674  1.6314
33241SOL     OW17714   5.223  14.092   6.960 -0.1468 -0.4800  0.4347
33241SOL    HW117715   5.280  14.123   7.030  0.1095 -0.9600  0.4400
33241SOL    HW217716   5.283  14.065   6.890 -0.4087  1.1909 -0.4958
33242SOL     OW17717  12.667  11.165   0.601 -0.3891  0.5774  0.3035
33242SOL    HW117718  12.727  11.140   0.670 -1.0221 -0.7674  0.3965
33242SOL    HW217719  12.630  11.082   0.570 -0.4318  1.1773 -1.3564
33243SOL     OW17720   0.789  14.081  10.567 -0.1867 -0.0770 -0.0386
33243SOL    HW117721   0.837  14.161  10.545  0.0648 -0.0596  0.5524
33243SOL    HW217722   0.856  14.013  10.567 -0.3435 -0.2316 -0.2151
33244SOL     OW17723   3.351   6.262  13.297 -0.1729  0.0476  0.4017
33244SOL    HW117724   3.399   6.308  13.228 -0.9561 -1.0146 -0.8896
33244SOL    HW217725   3.295   6.330  13.336  1.1895  0.9405  0.8819
33245SOL     OW17726   7.666   3.551  10.025 -0.3896 -0.0954 -0.3184
33245SOL    HW117727   7.698   3.474  10.071  0.1873 -0.5916 -1.5152
33245SOL    HW217728   7.679   3.532   9.933 -0.3260  1.3965 -0.6515
33246SOL     OW17729   5.008   3.207   3.644  0.8860 -0.1294  0.1345
33246SOL    HW117730   4.928   3.156   3.647  1.1708 -0.9665 -3.0230
33246SOL    HW217731   5.073   3.152   3.688 -0.0231  0.1763  1.9329
33247SOL     OW17732   7.269  12.459   5.971 -0.1007  0.2110 -0.2688
33247SOL    HW117733   7.199  12.444   6.034 -1.2558  1.7273 -1.1218
33247SOL    HW217734   7.306  12.373   5.955 -2.7239 -0.8909 -0.8502
33248SOL     OW17735   2.401   5.421  10.402  0.4659  0.8031 -0.1223
33248SOL    HW117736   2.374   5.370  10.479  0.4585  0.1222 -0.5697
33248SOL    HW217737   2.488   5.453  10.424  2.0740 -2.3744 -1.1800
33249SOL     OW17738  10.830   0.896  10.069  0.2090  0.6728 -0.1216
33249SOL    HW117739  10.764   0.827  10.073 -1.1710  2.0021  1.8706
33249SOL    HW217740  10.793   0.962  10.010 -0.2684  1.4033  0.9664
33250SOL     OW17741   7.852   6.680  13.299  0.5695  0.1702 -0.1606
33250SOL    HW117742   7.767   6.669  13.256 -0.1457  0.5231  1.1081
33250SOL    HW217743   7.916   6.677  13.227 -0.3700 -1.7190 -0.9806
33251SOL     OW17744  10.580   0.973  14.098 -0.4222 -0.0893  0.2859
33251SOL    HW117745  10.589   0.960  14.004 -1.3831 -1.4657  0.3426
33251SOL    HW217746  10.491   1.007  14.109 -0.7720 -1.1021  0.7592
33252SOL     OW17747  10.772   4.066  13.133 -0.0141  0.2205  0.6303
33252SOL    HW117748  10.759   3.999  13.200  0.7671 -0.2542  0.3205
33252SOL    HW217749  10.695   4.122  13.139  0.0191  0.1437  1.8723
33253SOL     OW17750   2.915   9.728   6.990 -0.1302 -0.5367  0.1301
33253SOL    HW117751   3.000   9.718   6.948  0.8353  0.0638  1.8763
33253SOL    HW217752   2.927   9.692   7.078 -1.0608  1.4503  1.1246
33254SOL     OW17753   3.729  13.424  13.675  0.1691  0.0270  0.1059
33254SOL    HW117754   3.653  13.406  13.620  0.7123 -0.3443 -0.5462
33254SOL    HW217755   3.767  13.337  13.692  0.3614  0.1942  0.5535
33255SOL     OW17756   2.799   1.770   4.147  0.0362  0.0794 -0.4812
33255SOL    HW117757   2.869   1.774   4.213 -0.4550 -0.1715  0.0597
33255SOL    HW217758   2.834   1.818   4.073  0.5503  0.4748  0.0079
33256SOL     OW17759  11.310   2.473  13.764  0.3500  0.4231 -0.3816
33256SOL    HW117760  11.270   2.390  13.740  1.5601  0.0392 -1.1923
33256SOL    HW217761  11.236   2.533  13.777 -0.4928 -0.3703 -1.3306
33257SOL     OW17762   7.619   2.446   4.381 -0.0451  0.1238  0.6469
33257SOL    HW117763   7.619   2.368   4.436 -1.0517 -0.6919 -0.4579
33257SOL    HW217764   7.587   2.516   4.437 -1.8174 -0.8550  0.8991
33258SOL     OW17765   7.616  10.194  10.215  0.1313  0.1898 -0.5520
33258SOL    HW117766   7.563  10.115  10.227  0.0944  0.1631 -0.8810
33258SOL    HW217767   7.571  10.243  10.147 -0.5518  1.1112  0.5363
33259SOL     OW17768   2.592  14.116   9.683  0.1151  0.2312  0.0592
33259SOL    HW117769   2.602  14.037   9.735 -0.6796  0.6485  0.8778
33259SOL    HW217770   2.681  14.138   9.655  0.2128 -1.6654 -1.3239
33260SOL     OW17771  10.236   8.576  10.541  0.6748 -0.1506  0.1882
33260SOL    HW117772  10.215   8.662  10.504  1.2367 -0.0743  0.0414
33260SOL    HW217773  10.218   8.586  10.635  0.0734 -0.0906  0.0754
33261SOL     OW17774   3.813  12.604   9.424 -0.3789 -0.3861  0.4241
33261SOL    HW117775   3.795  12.584   9.332 -1.4372 -1.6180  0.8686
33261SOL    HW217776   3.751  12.674   9.446 -0.0309  0.0055  0.1752
33262SOL     OW17777  13.507   5.386  12.710  0.5507 -0.5344  0.2398
33262SOL    HW117778  13.538   5.411  12.623 -0.0648  1.4820  0.5585
33262SOL    HW217779  13.412   5.386  12.702  0.4344  0.9720  1.1974
33263SOL     OW17780   5.242   9.456   9.416  0.3787  0.2747  0.0255
33263SOL    HW117781   5.219   9.412   9.335 -1.1966 -1.2392  1.1966
33263SOL    HW217782   5.336   9.472   9.410  0.8691 -2.4379 -0.9067
33264SOL     OW17783   7.794   7.601   0.480  0.4096  0.8613 -0.3721
33264SOL    HW117784   7.764   7.544   0.410  0.3166 -1.0659  1.1456
33264SOL    HW217785   7.873   7.559   0.514  0.5610  1.8321  0.5677
33265SOL     OW17786   0.498  11.609  10.094 -0.6134 -0.3614 -0.0385
33265SOL    HW117787   0.435  11.543  10.122 -1.1722  0.1410 -0.1084
33265SOL    HW217788   0.531  11.576  10.010  0.5386 -1.5070  0.8269
33266SOL     OW17789   3.636   4.793  11.127 -0.1855 -0.2883 -0.2231
33266SOL    HW117790   3.566   4.824  11.185  0.6025  0.7472  0.1961
33266SOL    HW217791   3.681   4.725  11.177  1.3693  1.5617  0.9922
33267SOL     OW17792  13.678   5.244   3.653  0.1404  0.3782 -0.4069
33267SOL    HW117793  13.675   5.242   3.748  0.7763 -1.7563 -0.3970
33267SOL    HW217794  13.768   5.269   3.632  0.5597 -1.0596 -0.4099
33268SOL     OW17795   0.414   1.822   3.486  0.1117  0.2489  0.3689
33268SOL    HW117796   0.403   1.728   3.472 -1.2490  0.5172 -0.5369
33268SOL    HW217797   0.352   1.863   3.426  0.3946  1.7238  1.0337
33269SOL     OW17798   2.950   0.703  11.115 -0.0401  0.4967 -0.1835
33269SOL    HW117799   2.887   0.753  11.062  0.3156  2.0592  0.8134
33269SOL    HW217800   2.906   0.620  11.131 -0.8448  0.6342 -1.5141
33270SOL     OW17801  10.199   6.675   8.638  0.0265  0.4202 -0.3378
33270SOL    HW117802  10.139   6.744   8.609  0.2651  0.7766  0.0131
33270SOL    HW217803  10.271   6.721   8.680 -0.2350 -0.0781  0.6935
33271SOL     OW17804   9.983  10.353  11.062  0.5136  0.1127  0.3258
33271SOL    HW117805   9.929  10.404  11.002 -0.7025 -1.6283 -0.1164
33271SOL    HW217806   9.982  10.264  11.027  2.0880 -0.3730  1.3938
33272SOL     OW17807  13.825   3.187   6.226 -0.7164  0.1408  0.0127
33272SOL    HW117808  13.808   3.093   6.217  1.0342 -0.2819  0.6446
33272SOL    HW217809  13.739   3.226   6.238 -1.3756 -1.5819  1.2693
33273SOL     OW17810   6.325   0.713   0.190  0.3801 -0.2027  0.2674
33273SOL    HW117811   6.336   0.686   0.099  2.0657 -0.3602  0.4869
33273SOL    HW217812   6.335   0.632   0.240  2.5863  0.3034  0.7476
33274SOL     OW17813  12.116  11.528   0.684  0.4604 -0.5132  0.5924
33274SOL    HW117814  12.169  11.456   0.648  1.8436  0.1778  1.1590
33274SOL    HW217815  12.157  11.607   0.648  0.3260  0.0736  1.7032
33275SOL     OW17816   1.414  13.790   1.904  0.5916 -0.0560  0.7409
33275SOL    HW117817   1.376  13.865   1.859  0.4396  0.2622  1.3890
33275SOL    HW217818   1.502  13.819   1.928  1.5335 -1.0051 -1.3147
33276SOL     OW17819  12.254   6.400   2.164 -0.4191  0.2353 -0.9031
33276SOL    HW117820  12.306   6.336   2.213 -1.2554  0.5742  0.4806
33276SOL    HW217821  12.260   6.371   2.073 -0.8601 -1.8956 -0.3116
33277SOL     OW17822  11.885  12.562  10.506  0.2696 -0.8429 -0.1624
33277SOL    HW117823  11.903  12.648  10.469  0.6935 -1.1745 -0.7495
33277SOL    HW217824  11.838  12.580  10.587 -0.2559 -0.0848 -0.6208
33278SOL     OW17825   9.527   7.761   0.532  0.1009 -0.1399 -0.2198
33278SOL    HW117826   9.517   7.770   0.437  1.3597 -1.8442 -0.5571
33278SOL    HW217827   9.453   7.707   0.559 -1.1207  1.5821  0.0594
33279SOL     OW17828   9.471   2.013   1.746 -0.7125  0.0678 -0.2160
33279SOL    HW117829   9.467   2.103   1.780  0.5789 -0.0211  0.1925
33279SOL    HW217830   9.485   2.024   1.652 -0.4731  0.2902 -0.1543
33280SOL     OW17831  12.251   8.699   7.209 -0.0664 -0.2893 -0.0719
33280SOL    HW117832  12.171   8.733   7.249 -1.2171 -1.7816 -1.0319
33280SOL    HW217833  12.277   8.767   7.147 -0.2815  0.4297  0.6035
33281SOL     OW17834  13.444   1.328   4.486 -0.0865 -0.0649 -0.2873
33281SOL    HW117835  13.470   1.241   4.455  2.2800 -0.2774  1.9126
33281SOL    HW217836  13.468   1.387   4.415  0.5581 -0.9754 -0.8498
33282SOL     OW17837   0.725   7.424   5.898 -0.3053 -0.0627  0.1332
33282SOL    HW117838   0.734   7.330   5.915 -1.0750  0.0464  1.2191
33282SOL    HW217839   0.767   7.467   5.972  3.0838  0.5531 -1.9320
33283SOL     OW17840   7.468   8.373   3.109  0.5704 -0.4812 -0.1618
33283SOL    HW117841   7.468   8.446   3.048 -0.5045 -0.9995 -0.8046
33283SOL    HW217842   7.445   8.411   3.194 -1.4134 -0.2539 -0.7535
33284SOL     OW17843   1.934  10.014   9.694  0.0466  0.0026 -0.6476
33284SOL    HW117844   1.867   9.965   9.646  1.9685 -2.0498 -1.4167
33284SOL    HW217845   2.006  10.022   9.632  0.3790  2.6265 -0.0250
33285SOL     OW17846   8.367   0.134   2.524 -0.5481 -0.1228  0.3827
33285SOL    HW117847   8.437   0.161   2.465 -0.5957  0.0496  0.4042
33285SOL    HW217848   8.286   0.155   2.477 -0.6245  2.0333  1.3691
33286SOL     OW17849  13.840  13.204   3.409 -0.0417  0.0054  0.3961
33286SOL    HW117850  13.910  13.145   3.380  0.3399  1.3324 -1.6578
33286SOL    HW217851  13.886  13.283   3.438 -0.6146  0.1994  0.7898
33287SOL     OW17852  14.027   3.750   8.889 -0.2615  0.0139 -0.0135
33287SOL    HW117853  13.952   3.758   8.830  0.2752  1.0173 -0.5824
33287SOL    HW217854  14.075   3.674   8.855  1.4351  2.0626 -2.5541
33288SOL     OW17855  12.737   2.507  10.956  0.1618  0.1149  0.5999
33288SOL    HW117856  12.767   2.467  11.037  1.4747 -0.8139 -0.2966
33288SOL    HW217857  12.704   2.593  10.982  0.5511 -0.1594  2.1047
33289SOL     OW17858   3.725   7.978   8.680  0.5410  0.7563  0.7201
33289SOL    HW117859   3.784   7.905   8.698  0.5020  0.0182 -1.8266
33289SOL    HW217860   3.779   8.041   8.634 -0.4089  0.4718 -0.8339
33290SOL     OW17861  11.555   1.003  11.566  0.7094 -0.1929  0.0343
33290SOL    HW117862  11.615   0.947  11.516 -0.5165 -0.7273 -0.9130
33290SOL    HW217863  11.527   1.069  11.504 -0.2955 -0.4363  0.2120
33291SOL     OW17864  11.741   8.913   9.390 -0.0126 -0.2170 -0.2183
33291SOL    HW117865  11.671   8.941   9.449 -1.1355  0.5364 -1.8247
33291SOL    HW217866  11.774   8.832   9.428 -0.7518  0.1937  1.3766
33292SOL     OW17867  10.941   1.595   9.572  0.7158  0.2182  0.1434
33292SOL    HW117868  11.032   1.569   9.585  0.9282 -0.2942 -1.9838
33292SOL    HW217869  10.914   1.550   9.492 -0.8499  1.7546 -0.2617
33293SOL     OW17870   9.389   9.343  13.727 -0.1702  0.7932 -0.2065
33293SOL    HW117871   9.416   9.330  13.818  1.4168  1.6864 -0.5144
33293SOL    HW217872   9.307   9.392  13.733  0.7030  2.2126  0.7584
33294SOL     OW17873   2.670   9.232  10.495 -0.7863  0.3106  0.1890
33294SOL    HW117874   2.636   9.277  10.573  0.5702 -0.0893  1.0564
33294SOL    HW217875   2.613   9.156  10.484 -1.7200  1.0153  0.0623
33295SOL     OW17876   1.001   8.722   1.027 -0.7597 -0.4392  0.1488
33295SOL    HW117877   1.014   8.651   1.090  1.0684  0.5382  0.9533
33295SOL    HW217878   1.075   8.715   0.966  1.5452  2.6756  2.2335
33296SOL     OW17879   0.400   4.360  13.581  0.7105  0.7955  0.0022
33296SOL    HW117880   0.352   4.344  13.499  0.0579  1.4700  0.2406
33296SOL    HW217881   0.369   4.293  13.640 -0.1267  1.3565  0.2217
33297SOL     OW17882   0.875  12.021  10.215  0.7438  0.4778  0.0452
33297SOL    HW117883   0.799  12.037  10.272 -1.8297 -0.1574 -2.9388
33297SOL    HW217884   0.876  11.926  10.203  1.6390  0.5446 -0.4645
33298SOL     OW17885   1.200   4.205   6.162  0.3816  0.0656 -0.7878
33298SOL    HW117886   1.279   4.156   6.141  0.8465  1.0253 -1.3256
33298SOL    HW217887   1.137   4.138   6.190  0.7931 -0.8960 -2.0966
33299SOL     OW17888   7.257   9.973   4.745  0.4458 -0.3164  0.1802
33299SOL    HW117889   7.188  10.023   4.786  0.2365 -0.8606  0.5014
33299SOL    HW217890   7.289  10.029   4.674 -0.5090 -0.1739 -0.1509
33300SOL     OW17891   1.123   1.101   6.111  0.2396 -0.8168  0.1887
33300SOL    HW117892   1.060   1.032   6.130  0.4033 -0.8620  0.5921
33300SOL    HW217893   1.115   1.162   6.185  0.5638 -0.7524  0.1725
33301SOL     OW17894   0.357   3.327   5.404 -0.6800  0.3527 -0.1173
33301SOL    HW117895   0.270   3.302   5.374 -0.3512 -0.7177 -0.2185
33301SOL    HW217896   0.372   3.274   5.483  0.0226  0.2419 -0.3132
33302SOL     OW17897   2.869   2.440  11.755  0.6289  0.1151  0.2148
33302SOL    HW117898   2.941   2.503  11.748 -0.7886  1.9827  1.5560
33302SOL    HW217899   2.880   2.402  11.843  0.8932 -0.7938 -0.2053
33303SOL     OW17900   8.546  10.745  12.070 -0.6618  0.8789 -0.4718
33303SOL    HW117901   8.625  10.716  12.025 -1.4764 -0.7768 -0.9540
33303SOL    HW217902   8.502  10.663  12.095 -2.5640  1.7260 -0.8748
33304SOL     OW17903  13.768   4.589   9.222  0.3098 -0.2017 -0.5057
33304SOL    HW117904  13.823   4.612   9.297 -0.9684  0.6641  0.1953
33304SOL    HW217905  13.809   4.510   9.186  0.0024 -1.6693  2.1447
33305SOL     OW17906   8.276   1.850  10.388 -0.2014  0.1312 -0.3573
33305SOL    HW117907   8.371   1.838  10.379  0.1306  0.8145  1.8058
33305SOL    HW217908   8.259   1.931  10.340  0.7130  1.1775  0.9923
33306SOL     OW17909   3.939   0.659   5.559 -0.0095 -0.0126  0.1987
33306SOL    HW117910   4.010   0.721   5.577 -0.4745  0.6905 -0.3160
33306SOL    HW217911   3.907   0.633   5.645 -1.5066  2.4725  0.5025
33307SOL     OW17912   8.720   1.655   9.059 -0.7831 -0.5380 -0.3783
33307SOL    HW117913   8.742   1.593   8.989  2.2349  0.6155 -0.6296
33307SOL    HW217914   8.701   1.600   9.135  0.8491 -1.8247 -0.8427
33308SOL     OW17915   8.156   9.205  10.367 -1.0855 -0.4581  0.1421
33308SOL    HW117916   8.148   9.214  10.462 -2.4180 -3.0379  0.3780
33308SOL    HW217917   8.237   9.154  10.355 -1.2321 -0.6488 -0.0529
33309SOL     OW17918  11.279   9.340   7.307 -0.9307 -0.0250 -0.6141
33309SOL    HW117919  11.198   9.331   7.358 -1.1099  0.5934 -0.7844
33309SOL    HW217920  11.328   9.408   7.353  0.4308 -1.7995  0.6912
33310SOL     OW17921   3.652   5.092   1.034 -0.5232  0.0496  0.2112
33310SOL    HW117922   3.584   5.125   0.976  1.3527  0.7380 -1.6929
33310SOL    HW217923   3.647   4.997   1.024  0.4322  0.1789 -1.9452
33311SOL     OW17924   0.027   4.173  10.755 -0.1810  0.1787 -0.1550
33311SOL    HW117925   0.026   4.084  10.791 -1.0948  0.0299 -0.5164
33311SOL    HW217926  -0.062   4.204  10.768 -0.6320  0.0353 -2.4885
33312SOL     OW17927   1.726  12.351  12.505 -0.5186 -0.1731 -1.1698
33312SOL    HW117928   1.635  12.351  12.475 -0.7424  0.6737 -0.5313
33312SOL    HW217929   1.764  12.429  12.464  0.2594 -1.1358 -2.3663
33313SOL     OW17930   1.534  12.254  13.341 -0.7564 -0.3832 -0.4227
33313SOL    HW117931   1.615  12.301  13.320 -0.2384 -1.0242  0.1066
33313SOL    HW217932   1.480  12.266  13.263 -0.1774  0.0923 -0.7690
33314SOL     OW17933  10.080   2.383   1.031 -0.4594 -0.0735  0.0043
33314SOL    HW117934  10.083   2.466   0.983 -0.6990  0.7732  1.4286
33314SOL    HW217935  10.031   2.402   1.110  1.6654 -0.9027  1.6184
33315SOL     OW17936  13.795   1.502  12.657  0.3112 -0.2321  0.5034
33315SOL    HW117937  13.828   1.413  12.672  0.2295 -0.5599 -1.1022
33315SOL    HW217938  13.706   1.501  12.692  0.7219 -0.4042  1.5914
33316SOL     OW17939   8.619   3.527   0.064  0.1899  0.3206  0.3068
33316SOL    HW117940   8.618   3.466   0.138  1.1111  0.5143  0.4949
33316SOL    HW217941   8.578   3.479  -0.008  0.6948 -0.4369  0.5193
33317SOL     OW17942   6.909   3.604   6.236  0.0662  0.3633 -0.7480
33317SOL    HW117943   6.956   3.530   6.197 -0.5576  1.1805 -3.2205
33317SOL    HW217944   6.938   3.680   6.186 -0.0013  1.6989  1.1344
33318SOL     OW17945   3.975   1.934   8.743 -0.2861  0.8874 -0.0719
33318SOL    HW117946   3.916   2.006   8.765 -1.1228 -0.1378  1.1842
33318SOL    HW217947   3.918   1.857   8.735  0.7177  0.1307 -0.2413
33319SOL     OW17948   3.058   7.780   1.553  0.0888  0.8317  0.0950
33319SOL    HW117949   3.105   7.732   1.484  1.6351  0.9780  0.9870
33319SOL    HW217950   3.031   7.862   1.512  0.6514  0.7478 -0.4499
33320SOL     OW17951   5.290   6.780  10.264  0.2823  0.3422  0.0153
33320SOL    HW117952   5.323   6.690  10.261  0.3997  0.3578  0.7446
33320SOL    HW217953   5.200   6.773  10.231 -0.0070 -0.1860  0.8873
33321SOL     OW17954   8.849   1.118   9.791  0.1613 -0.5348 -0.0587
33321SOL    HW117955   8.757   1.127   9.818 -0.0512  1.2696 -1.1609
33321SOL    HW217956   8.898   1.112   9.872 -0.7649  0.8527  0.6590
33322SOL     OW17957   4.574  11.555   8.575 -0.6497 -0.0189  0.1929
33322SOL    HW117958   4.513  11.602   8.517 -0.7768 -0.2041  0.1773
33322SOL    HW217959   4.604  11.481   8.523  1.3723  1.3048 -0.6644
33323SOL     OW17960  11.891   5.414  12.396  0.1452  0.2823 -0.1440
33323SOL    HW117961  11.975   5.430  12.354 -0.0244 -2.1585 -1.6100
33323SOL    HW217962  11.910   5.420  12.490  2.1610 -0.9017 -0.4210
33324SOL     OW17963  12.684  10.919  12.454 -0.2876  0.1179 -0.2634
33324SOL    HW117964  12.750  10.964  12.507 -0.7838  1.6253 -0.8637
33324SOL    HW217965  12.649  10.851  12.511  0.9338  0.0695  0.4682
33325SOL     OW17966  13.294  10.474   6.532  0.0180  0.1192 -0.2762
33325SOL    HW117967  13.284  10.480   6.437 -0.0083  0.2624 -0.2638
33325SOL    HW217968  13.207  10.451   6.565  0.4647 -2.1300 -0.4751
33326SOL     OW17969   4.856   9.076   6.014  0.3112 -0.0129 -0.5683
33326SOL    HW117970   4.894   9.049   5.931  0.6556 -0.6427 -0.2090
33326SOL    HW217971   4.767   9.040   6.013  0.5649 -0.6457 -0.3473
33327SOL     OW17972   0.223   0.938   3.364 -0.2890  0.3570 -0.1898
33327SOL    HW117973   0.176   0.889   3.296  0.0938 -0.9905  0.4970
33327SOL    HW217974   0.180   0.914   3.445  1.1732 -0.4474  0.3917
33328SOL     OW17975   4.452   7.423   9.360 -0.1962  0.0279 -0.0437
33328SOL    HW117976   4.370   7.407   9.313  0.2050 -0.4375 -0.5897
33328SOL    HW217977   4.477   7.512   9.334  0.2268 -0.3674 -1.0391
33329SOL     OW17978  10.178   4.579   8.243 -0.9031  0.1163  0.2669
33329SOL    HW117979  10.149   4.670   8.240  2.0081  1.1445 -0.2691
33329SOL    HW217980  10.208   4.565   8.333  0.2677  0.2911 -0.0796
33330SOL     OW17981   2.765   4.259   2.069 -0.3434  0.3162  0.0840
33330SOL    HW117982   2.686   4.245   2.017  0.1305  0.2136 -0.6343
33330SOL    HW217983   2.786   4.172   2.104 -0.8921  0.4635  0.7993
33331SOL     OW17984  14.025   0.417   9.382  0.1360 -0.3284 -0.3648
33331SOL    HW117985  13.963   0.488   9.364 -0.9919 -0.8238  1.2926
33331SOL    HW217986  13.972   0.349   9.425  1.2214 -2.0947 -1.6620
33332SOL     OW17987   8.525   0.633   0.270  0.3483 -0.5597  0.3761
33332SOL    HW117988   8.498   0.668   0.185 -0.0527 -0.7426  0.4275
33332SOL    HW217989   8.605   0.681   0.291 -0.6475  0.9600  0.8489
33333SOL     OW17990   7.275   9.269   8.133  0.3114 -0.3531 -0.1964
33333SOL    HW117991   7.208   9.306   8.190  1.2078 -2.7014  2.6707
33333SOL    HW217992   7.318   9.345   8.093 -1.5704  1.3343  0.8177
33334SOL     OW17993   7.011   5.612   8.679 -0.2195  0.2907 -0.0727
33334SOL    HW117994   7.083   5.674   8.675  0.1993 -0.2234 -0.7093
33334SOL    HW217995   6.937   5.663   8.712  0.3753  0.8705  0.3752
33335SOL     OW17996  10.287   0.941   2.727 -0.1638 -0.1029  0.5982
33335SOL    HW117997  10.335   0.892   2.660  0.7466  0.9282  0.4635
33335SOL    HW217998  10.288   1.032   2.695  0.7376  0.5011  2.2420
33336SOL     OW17999  13.163   9.002   2.430  0.2176 -0.2825 -0.0791
33336SOL    HW118000  13.165   8.921   2.480  0.1090  0.3667  1.0284
33336SOL    HW218001  13.070   9.016   2.410  0.3520 -0.9780 -1.2173
33337SOL     OW18002   5.904   4.430  11.994 -1.0357 -0.1476 -0.1540
33337SOL    HW118003   5.931   4.339  12.002 -0.1401  0.0629 -0.6760
33337SOL    HW218004   5.924   4.453  11.903 -2.3103  0.2396 -0.3491
33338SOL     OW18005  12.334  14.084   4.790  0.3228  0.3883 -0.3528
33338SOL    HW118006  12.428  14.080   4.809  0.3227 -0.3728 -0.4980
33338SOL    HW218007  12.310  13.994   4.768 -0.3476  0.6617 -0.7677
33339SOL     OW18008  10.569   8.490   1.821 -0.7367 -0.5176 -0.3604
33339SOL    HW118009  10.546   8.447   1.739 -0.2652 -0.8072 -0.3438
33339SOL    HW218010  10.662   8.473   1.832 -0.4772  0.7588 -0.4906
33340SOL     OW18011   2.372  10.164  10.368  0.0782 -0.1176  0.1247
33340SOL    HW118012   2.410  10.077  10.355  1.9746  0.7545 -0.4769
33340SOL    HW218013   2.383  10.181  10.462 -1.5733 -1.0505  0.5271
33341SOL     OW18014   9.726   4.517   6.045  0.2566  0.0663  0.1653
33341SOL    HW118015   9.746   4.438   6.094 -1.3451  1.0736  2.5865
33341SOL    HW218016   9.759   4.589   6.100 -0.2855  1.1933 -0.9272
33342SOL     OW18017  10.454   8.461   2.740 -0.3262  0.1735 -0.1397
33342SOL    HW118018  10.463   8.497   2.828  0.6736 -0.7603  0.1603
33342SOL    HW218019  10.442   8.538   2.684  1.8967  1.0415  0.4622
33343SOL     OW18020   1.641  11.112   5.702  0.0433 -0.1865  0.2330
33343SOL    HW118021   1.660  11.196   5.660 -0.1070 -1.4552 -2.6361
33343SOL    HW218022   1.545  11.110   5.710 -0.1764 -0.9168 -1.8521
33344SOL     OW18023  13.609   7.126  12.260 -0.6169 -0.4559  0.0925
33344SOL    HW118024  13.556   7.058  12.302 -0.5090 -1.2565 -1.0119
33344SOL    HW218025  13.637   7.183  12.332 -1.4182 -1.0930  0.9309
33345SOL     OW18026   5.124   4.157   7.879  0.0624  0.1807 -0.5273
33345SOL    HW118027   5.201   4.203   7.913  0.1427  0.1758 -0.7003
33345SOL    HW218028   5.062   4.157   7.952  0.7380 -1.0123  0.0797
33346SOL     OW18029   8.597   7.344   5.205  0.3197 -0.0412 -0.6453
33346SOL    HW118030   8.634   7.428   5.233 -0.1667  0.3942 -1.2692
33346SOL    HW218031   8.618   7.284   5.276  1.5290  0.3744 -0.6244
33347SOL     OW18032   9.476  13.540   0.179 -0.1152  0.3095  0.0847
33347SOL    HW118033   9.464  13.455   0.221 -0.3894 -0.8709 -2.2357
33347SOL    HW218034   9.541  13.584   0.234 -0.8597 -0.8795  2.0245
33348SOL     OW18035  13.593  13.650  11.179 -0.2705  0.0218 -0.0625
33348SOL    HW118036  13.555  13.730  11.214 -0.6129 -0.0748 -0.2102
33348SOL    HW218037  13.640  13.612  11.253 -0.3556  0.2051  0.0887
33349SOL     OW18038   7.094   5.135   0.393  0.4071  0.3179 -0.7072
33349SOL    HW118039   7.133   5.085   0.465  1.8165  1.8761 -0.3093
33349SOL    HW218040   7.054   5.211   0.436  1.9630  1.6954 -1.5351
33350SOL     OW18041  13.018  11.830   8.904 -0.4330 -0.1771 -0.1071
33350SOL    HW118042  13.083  11.890   8.940  1.7251 -1.6459 -1.3323
33350SOL    HW218043  12.957  11.887   8.856  0.9631  1.1426 -0.3966
33351SOL     OW18044   6.678   5.140  10.797 -0.8037  0.2356 -0.2256
33351SOL    HW118045   6.714   5.101  10.717  1.1876  0.9119  0.2873
33351SOL    HW218046   6.742   5.206  10.822 -1.9386  0.7904  1.3383
33352SOL     OW18047   4.789   3.503   8.665  0.1963  0.0835 -0.2836
33352SOL    HW118048   4.755   3.531   8.750 -0.7774  1.6667 -1.1271
33352SOL    HW218049   4.726   3.438   8.634 -0.0710  0.3288 -0.2619
33353SOL     OW18050  10.388  10.675  12.634 -0.1047 -0.3884  0.0332
33353SOL    HW118051  10.352  10.718  12.556  3.3161  0.6064 -1.2040
33353SOL    HW218052  10.340  10.713  12.707 -1.8918  0.3259 -1.4311
33354SOL     OW18053   7.547   3.007   8.116  0.0520  0.0173  0.2843
33354SOL    HW118054   7.457   3.024   8.090  0.4056  0.3247 -0.8170
33354SOL    HW218055   7.598   3.026   8.037  1.1070  0.1305  0.9788
33355SOL     OW18056  14.105   7.564   5.133 -0.0479 -0.1589  0.2793
33355SOL    HW118057  14.036   7.627   5.153 -0.8520 -0.6915 -0.6873
33355SOL    HW218058  14.186   7.615   5.133 -0.4065  0.4340  1.6343
33356SOL     OW18059   9.902  13.187   0.681 -0.0642  0.2676  0.4299
33356SOL    HW118060   9.881  13.100   0.715  0.1277 -0.6391 -1.6527
33356SOL    HW218061   9.987  13.208   0.721 -0.2004 -0.3938  1.0960
33357SOL     OW18062  12.297   4.546  10.613 -0.5943  0.2299 -0.0613
33357SOL    HW118063  12.299   4.454  10.589 -1.9303  0.2780 -0.4036
33357SOL    HW218064  12.208   4.575  10.593  0.2104  1.9625 -1.3752
33358SOL     OW18065   8.033   2.004   5.188  0.2264  0.1727 -0.3427
33358SOL    HW118066   7.967   2.036   5.250  2.2099  0.7400  1.5901
33358SOL    HW218067   8.035   1.909   5.203  0.7936  0.3238  0.5803
33359SOL     OW18068   4.909  11.974  12.862 -0.0421 -0.1561  0.2889
33359SOL    HW118069   4.842  11.906  12.869 -1.5606  1.3442  1.2128
33359SOL    HW218070   4.879  12.030  12.790  1.6909 -0.9323 -1.1051
33360SOL     OW18071   7.515   8.213   1.947 -0.3186 -0.0778  0.4628
33360SOL    HW118072   7.547   8.201   2.036  0.9220  1.7289  0.3030
33360SOL    HW218073   7.449   8.282   1.953  0.5634  0.8483 -0.1389
33361SOL     OW18074  12.908   2.676  10.233  0.0159  0.6048 -0.4199
33361SOL    HW118075  12.855   2.722  10.299 -0.5398  0.0977 -0.5035
33361SOL    HW218076  12.984   2.733  10.219 -0.6459  1.4943 -0.5017
33362SOL     OW18077   1.154   2.372  12.357 -0.1207  0.0848 -0.1370
33362SOL    HW118078   1.155   2.396  12.450  1.6849 -2.0318  0.4729
33362SOL    HW218079   1.225   2.309  12.347 -0.4990 -0.0420 -2.9091
33363SOL     OW18080   6.289  13.712   8.372 -0.1730  0.0597 -0.7875
33363SOL    HW118081   6.350  13.652   8.415 -1.3540 -0.0195  0.8648
33363SOL    HW218082   6.292  13.687   8.279  1.3181 -0.7782 -0.5490
33364SOL     OW18083   9.794   5.725  12.997  0.3097  0.2997  0.8391
33364SOL    HW118084   9.743   5.725  13.078  2.0015  1.3988  1.9567
33364SOL    HW218085   9.781   5.637  12.961 -0.8410 -0.0705  2.0479
33365SOL     OW18086  11.476   2.279   4.662 -0.8216  0.1331  0.1012
33365SOL    HW118087  11.381   2.280   4.650 -0.8922  0.9337  0.6394
33365SOL    HW218088  11.511   2.263   4.574 -1.4415  0.6640 -0.2554
33366SOL     OW18089  10.013  10.419   1.937  0.5172 -0.1536 -0.2185
33366SOL    HW118090   9.960  10.451   2.010 -0.3188 -0.7822 -0.5264
33366SOL    HW218091   9.984  10.329   1.924  1.3651 -0.3704 -0.6859
33367SOL     OW18092   3.314  11.923  11.266 -0.3003 -0.3045  0.3359
33367SOL    HW118093   3.388  11.909  11.206 -1.8283  0.3497 -1.8029
33367SOL    HW218094   3.319  12.016  11.288 -1.4059  0.1361 -1.1610
33368SOL     OW18095   0.281  12.151  13.885  0.3306 -0.0771 -0.5667
33368SOL    HW118096   0.226  12.229  13.895  0.9104  0.2213  0.5332
33368SOL    HW218097   0.267  12.122  13.795 -2.1242 -0.4072 -0.1387
33369SOL     OW18098   0.300   3.440  13.771 -0.1680  0.4880  0.6890
33369SOL    HW118099   0.385   3.416  13.809 -0.3912  0.6342  1.2924
33369SOL    HW218100   0.322   3.505  13.704  0.2100  0.4374  0.7598
33370SOL     OW18101   6.285   8.611   3.861  0.2668  0.2185  0.3674
33370SOL    HW118102   6.219   8.588   3.927 -0.3842  0.3075 -0.2387
33370SOL    HW218103   6.326   8.690   3.895  0.6864 -0.3392  1.1844
33371SOL     OW18104   1.915   5.279   6.683 -0.2491 -0.2110 -0.0764
33371SOL    HW118105   1.835   5.226   6.691 -0.6363  0.1405 -1.3585
33371SOL    HW218106   1.977   5.220   6.640 -0.4795  0.1634 -0.9328
33372SOL     OW18107   5.966   0.806   9.119  0.3970 -0.2795 -0.3287
33372SOL    HW118108   5.967   0.711   9.110  1.2860 -0.2380 -0.7811
33372SOL    HW218109   6.044   0.835   9.072 -1.1515  0.8776 -2.3563
33373SOL     OW18110   9.205   0.860   3.422  0.1896  0.2203 -0.3558
33373SOL    HW118111   9.236   0.841   3.511  0.5967 -0.4045 -0.6238
33373SOL    HW218112   9.188   0.773   3.384 -0.2663  0.4919 -0.7930
33374SOL     OW18113   4.745  11.888   2.531  0.1576  0.3924  0.4241
33374SOL    HW118114   4.722  11.854   2.444 -1.0930 -0.9754  1.2515
33374SOL    HW218115   4.791  11.816   2.574 -0.5590  0.5077  1.4245
33375SOL     OW18116   2.779  10.137   7.725  0.5431  0.5691  0.6080
33375SOL    HW118117   2.722  10.208   7.753  1.5161  1.2183  0.9939
33375SOL    HW218118   2.744  10.059   7.769  0.0925  0.9949  1.0076
33376SOL     OW18119   3.399   8.542  10.194  0.1444  0.4829 -0.4896
33376SOL    HW118120   3.381   8.635  10.210  0.2556  0.5557 -0.7849
33376SOL    HW218121   3.478   8.541  10.140 -0.3623  0.2553 -1.2422
33377SOL     OW18122   8.995   5.194   4.864  0.4486 -0.2435  0.8141
33377SOL    HW118123   9.074   5.211   4.812 -0.4721  1.3126 -0.1666
33377SOL    HW218124   8.993   5.264   4.928 -0.4176  0.0821  0.4540
33378SOL     OW18125  10.327   4.585   4.463  0.1835 -0.4896  0.3668
33378SOL    HW118126  10.240   4.619   4.485  0.3863  0.3827 -0.1015
33378SOL    HW218127  10.310   4.516   4.399 -0.2394 -1.3145  1.3417
33379SOL     OW18128   7.597   2.977   1.896 -0.2080  0.1680 -0.4174
33379SOL    HW118129   7.664   2.931   1.845  0.0486 -0.1339  0.1813
33379SOL    HW218130   7.547   2.907   1.938 -0.2039  0.4124  0.0034
33380SOL     OW18131  12.953   2.059  13.109  0.6180 -0.1838 -0.0449
33380SOL    HW118132  12.900   2.118  13.163  0.3234 -0.7530  0.2840
33380SOL    HW218133  12.978   1.988  13.167  1.2787 -0.2106 -0.3501
33381SOL     OW18134   0.397  10.663   9.713  0.9994 -0.2586  0.1383
33381SOL    HW118135   0.487  10.694   9.711  1.0305  0.4505  4.0379
33381SOL    HW218136   0.403  10.570   9.736  0.7176 -0.5895 -1.0615
33382SOL     OW18137  10.773   4.472   8.313  0.1013  0.3195 -0.3596
33382SOL    HW118138  10.708   4.540   8.326 -0.5899 -0.6969  1.9177
33382SOL    HW218139  10.831   4.478   8.389 -1.2820 -2.9468  1.1134
33383SOL     OW18140  10.348  14.154   5.822  0.6347 -0.6494 -0.0217
33383SOL    HW118141  10.364  14.124   5.911 -1.8811 -1.1396  0.3422
33383SOL    HW218142  10.253  14.170   5.818  0.6031 -0.9519 -2.6900
33384SOL     OW18143   2.452   7.438   1.810  0.3779 -0.5808  0.1929
33384SOL    HW118144   2.538   7.444   1.851 -0.2379 -0.0492  1.4460
33384SOL    HW218145   2.423   7.349   1.831 -0.6933  0.2478  2.5600
33385SOL     OW18146  13.773   7.254   0.641 -0.1223  0.1468  0.4727
33385SOL    HW118147  13.846   7.232   0.700  1.3328  0.8189 -1.0058
33385SOL    HW218148  13.759   7.347   0.654  0.8352  0.5047 -0.8657
33386SOL     OW18149   9.009   1.341  13.368 -0.4999 -0.4453 -0.8422
33386SOL    HW118150   9.044   1.277  13.430 -1.8793 -0.8785 -0.4770
33386SOL    HW218151   9.014   1.424  13.414 -0.3608 -0.5699 -0.6272
33387SOL     OW18152   7.970  11.526   4.269 -0.6118 -0.2872 -0.0460
33387SOL    HW118153   7.880  11.509   4.243 -1.2616  1.7529  0.6902
33387SOL    HW218154   7.964  11.597   4.333  1.4467 -0.7171  0.7166
33388SOL     OW18155   9.264   5.678  12.870  0.2361  0.8958  0.0565
33388SOL    HW118156   9.316   5.718  12.939 -1.9941  2.7536  0.7858
33388SOL    HW218157   9.256   5.746  12.803 -0.6775  0.4377 -0.3211
33389SOL     OW18158   4.072   5.051   3.151 -0.2599 -0.0716 -0.0004
33389SOL    HW118159   4.054   5.066   3.059  1.3339  1.3272 -0.1339
33389SOL    HW218160   4.024   5.119   3.198  0.1071  0.1428  0.0724
33390SOL     OW18161  10.361   8.013   7.150  0.1224 -0.1226  0.8082
33390SOL    HW118162  10.449   7.979   7.166 -0.5977 -3.7882 -1.7576
33390SOL    HW218163  10.305   7.965   7.211 -0.2326  1.7678  2.0310
33391SOL     OW18164   7.377   1.120  10.773 -0.0052  0.2787  0.6094
33391SOL    HW118165   7.332   1.038  10.790 -0.7146 -0.1282 -2.5519
33391SOL    HW218166   7.323   1.164  10.707  0.7544  2.9638  1.6577
33392SOL     OW18167  13.530  13.662   4.539 -0.8911 -0.2497  0.0555
33392SOL    HW118168  13.504  13.659   4.631  0.0551 -0.9509  0.3178
33392SOL    HW218169  13.514  13.753   4.512  0.2464  0.3568  1.3402
33393SOL     OW18170   4.001   2.982   8.328 -0.2372  0.2836  0.2130
33393SOL    HW118171   4.032   3.054   8.272 -0.0207 -0.8272 -1.1567
33393SOL    HW218172   3.969   2.916   8.266  1.0491 -1.4796  1.3403
33394SOL     OW18173   5.410   4.739   6.656 -0.1677  0.9158  0.0784
33394SOL    HW118174   5.428   4.716   6.565  0.7208 -0.1506  0.4949
33394SOL    HW218175   5.340   4.679   6.683 -0.1088  0.9126  0.2289
33395SOL     OW18176  11.659   4.648  11.245 -0.6210  0.1055  0.4623
33395SOL    HW118177  11.676   4.561  11.282  0.5653  0.5019  0.8910
33395SOL    HW218178  11.637   4.702  11.320 -0.5600  0.3570  0.3015
33396SOL     OW18179   4.539   6.208  11.003  0.1756  0.8704  0.0783
33396SOL    HW118180   4.481   6.135  11.023 -1.1708  1.7426 -0.5223
33396SOL    HW218181   4.620   6.167  10.973 -0.3963 -0.3650  0.1919
33397SOL     OW18182  10.183   2.947  13.053  0.0322  0.1524 -0.1573
33397SOL    HW118183  10.162   2.861  13.089  0.8181  0.1320  0.2701
33397SOL    HW218184  10.275   2.960  13.073  0.8532 -0.3577 -3.1554
33398SOL     OW18185   0.215   0.156   5.300 -0.5260 -0.1491 -0.6299
33398SOL    HW118186   0.221   0.106   5.218 -0.8419 -1.3500  0.0634
33398SOL    HW218187   0.194   0.245   5.271  0.2420 -0.3527 -1.9053
33399SOL     OW18188   2.893   2.954   3.233 -0.3275  0.0428  0.0115
33399SOL    HW118189   2.806   2.956   3.274 -0.2081  2.5617  0.3155
33399SOL    HW218190   2.920   3.046   3.230  0.8391 -0.2568 -3.2615
33400SOL     OW18191  12.069  13.836   3.446 -0.2072  0.4951  0.6475
33400SOL    HW118192  12.058  13.931   3.456  0.0485  0.4070  1.9033
33400SOL    HW218193  12.081  13.804   3.535  0.5218 -0.6239  0.1605
33401SOL     OW18194   2.513  10.203   9.742 -0.1483  0.0287  0.9588
33401SOL    HW118195   2.585  10.184   9.803 -0.7254 -0.1069  1.6143
33401SOL    HW218196   2.491  10.295   9.758  1.2267  0.6986 -0.7048
33402SOL     OW18197   9.783   6.776  13.129 -0.0531 -0.0131  0.1341
33402SOL    HW118198   9.847   6.713  13.097 -1.1028 -1.0381 -0.0188
33402SOL    HW218199   9.814   6.798  13.217  0.6175 -0.3254 -0.0131
33403SOL     OW18200   4.484  10.904  11.831  0.1977  0.6092  0.0702
33403SOL    HW118201   4.517  10.972  11.889  0.4706  0.3521  0.2198
33403SOL    HW218202   4.419  10.858  11.884  0.2881  0.5144  0.1006
33404SOL     OW18203  10.297  11.282   4.878 -0.1553 -0.1302 -0.1379
33404SOL    HW118204  10.354  11.308   4.806 -0.8140 -0.1460 -0.6772
33404SOL    HW218205  10.299  11.355   4.938 -0.4014  0.3268 -0.6723
33405SOL     OW18206   5.861   7.149   1.001  0.1902  0.0275 -0.0411
33405SOL    HW118207   5.917   7.081   1.039 -0.3805  0.4612  1.7079
33405SOL    HW218208   5.897   7.164   0.914  2.0794 -0.5524  0.5712
33406SOL     OW18209  11.772   8.186   2.947  0.2076 -0.3776 -0.2524
33406SOL    HW118210  11.797   8.276   2.966 -2.4979  0.6334 -1.0467
33406SOL    HW218211  11.842   8.153   2.890 -0.1390  2.2373 -2.3731
33407SOL     OW18212   0.233   9.507   1.425 -0.2656 -0.3069 -0.5600
33407SOL    HW118213   0.289   9.568   1.473 -0.3407 -1.0079  0.4248
33407SOL    HW218214   0.214   9.553   1.343  1.0897  0.2705 -0.5785
33408SOL     OW18215  10.284   5.319   3.760  0.0701  1.4152  0.7517
33408SOL    HW118216  10.259   5.407   3.789  2.3383  2.1623  0.6478
33408SOL    HW218217  10.348   5.289   3.824 -3.2696 -1.8317  2.9470
33409SOL     OW18218   3.204  13.712   9.124  0.9044 -0.2127  0.0464
33409SOL    HW118219   3.218  13.617   9.123 -1.5392 -0.6518  0.3016
33409SOL    HW218220   3.286  13.748   9.156  0.8101 -2.5436  3.5840
33410SOL     OW18221   9.210  11.594   4.990  0.2520  0.5277 -0.1521
33410SOL    HW118222   9.127  11.641   4.987 -0.4354 -0.4600  1.8669
33410SOL    HW218223   9.186  11.502   4.985  1.0529  0.1530  1.8825
33411SOL     OW18224   6.488   9.597   5.944 -0.3729 -0.6683  0.7928
33411SOL    HW118225   6.502   9.588   5.850 -1.9561 -2.1330  0.6412
33411SOL    HW218226   6.392   9.601   5.954 -0.2580 -1.0223  2.3689
33412SOL     OW18227   4.041  10.858  10.907 -0.0041 -0.1672 -0.0284
33412SOL    HW118228   4.120  10.809  10.930  0.1404 -0.7527 -1.5997
33412SOL    HW218229   4.015  10.821  10.822 -0.5643  1.6853 -0.7040
33413SOL     OW18230   5.207  11.315   1.514 -0.0324 -0.2897 -0.3424
33413SOL    HW118231   5.189  11.228   1.479 -1.1962 -0.5797  0.8979
33413SOL    HW218232   5.291  11.305   1.560 -0.7456 -1.0916  0.8271
33414SOL     OW18233   7.775   0.489  11.895 -0.0566  0.2695  0.4834
33414SOL    HW118234   7.774   0.422  11.827 -1.7799 -0.9017  1.5938
33414SOL    HW218235   7.811   0.566  11.852  1.2230 -1.1046 -1.0639
33415SOL     OW18236   6.932   7.675   0.667  0.0232  0.2646 -1.0183
33415SOL    HW118237   6.917   7.646   0.577 -0.5318  1.1844 -1.2413
33415SOL    HW218238   7.011   7.730   0.661 -0.3584  0.8211 -1.0707
33416SOL     OW18239   7.432   9.741   6.379 -0.0270 -0.3269  0.0871
33416SOL    HW118240   7.466   9.660   6.343  2.3440  0.7470 -0.2714
33416SOL    HW218241   7.350   9.756   6.331 -0.8324 -2.7162  0.5718
33417SOL     OW18242   3.018   0.663   4.895  0.3340  0.1577 -0.6274
33417SOL    HW118243   3.056   0.576   4.897 -4.0527 -2.0168 -0.2147
33417SOL    HW218244   2.977   0.674   4.981  1.1625  2.9076 -0.4852
33418SOL     OW18245   2.475   7.958   0.442  0.6619  0.8095 -0.2189
33418SOL    HW118246   2.516   7.953   0.529 -2.1543  0.5485  1.2059
33418SOL    HW218247   2.433   7.873   0.430 -0.9360  1.6464 -0.7830
33419SOL     OW18248   4.839  11.943  12.394 -0.4038  0.0678  0.6198
33419SOL    HW118249   4.815  12.015  12.452  1.8420  2.2287 -0.9274
33419SOL    HW218250   4.931  11.927  12.411 -0.5862 -1.7422  0.1424
33420SOL     OW18251  10.857  11.606   5.798  0.0787  0.5592  0.1966
33420SOL    HW118252  10.834  11.513   5.797  1.1010  0.2988 -0.5002
33420SOL    HW218253  10.914  11.618   5.721 -0.7792  1.9545 -0.2676
33421SOL     OW18254   6.161   8.125   5.410  0.3894  0.1386  0.2061
33421SOL    HW118255   6.236   8.131   5.469 -0.1082  0.8477  0.7867
33421SOL    HW218256   6.090   8.168   5.457 -0.0175  0.7433 -0.9180
33422SOL     OW18257   2.968  10.661   0.248 -0.5656  0.0289  0.1908
33422SOL    HW118258   3.016  10.721   0.192 -0.4301 -1.1243 -0.9788
33422SOL    HW218259   2.995  10.684   0.337  1.3298  0.1157 -0.3628
33423SOL     OW18260   8.692  12.528   7.919 -0.0787  0.4380 -0.4387
33423SOL    HW118261   8.643  12.605   7.946  0.5542  0.2461  1.4026
33423SOL    HW218262   8.648  12.455   7.962  2.0863  0.3251  1.8061
33424SOL     OW18263   6.789  13.767   4.920  0.0077 -0.2186  0.0592
33424SOL    HW118264   6.716  13.710   4.942 -0.7369  1.0880  1.1420
33424SOL    HW218265   6.777  13.788   4.827  1.1283 -2.9094 -0.8004
33425SOL     OW18266   0.139   2.865   5.944 -0.0975 -0.3730 -0.2778
33425SOL    HW118267   0.162   2.779   5.909  0.0552 -1.1314  1.5677
33425SOL    HW218268   0.220   2.916   5.937  0.0729 -0.6766 -0.5616
33426SOL     OW18269  11.953   3.259  12.149 -0.7720  0.3659  0.7857
33426SOL    HW118270  11.874   3.269  12.095 -0.6242  3.1428  0.8980
33426SOL    HW218271  11.977   3.167  12.141 -0.6850  0.5558 -4.0210
33427SOL     OW18272   0.936   8.420  10.268  0.1620 -0.2290 -0.2354
33427SOL    HW118273   0.867   8.425  10.334 -0.1208  2.5026 -0.6071
33427SOL    HW218274   1.017   8.437  10.316  0.3625 -1.4843 -0.1085
33428SOL     OW18275   1.638   8.563  10.201 -0.1748 -0.8226  0.4887
33428SOL    HW118276   1.684   8.629  10.254  0.2333  0.5160 -1.3996
33428SOL    HW218277   1.547   8.568  10.230 -0.9665  3.2871 -1.9117
33429SOL     OW18278  11.028  12.440   4.657  0.3869  0.1971 -0.4837
33429SOL    HW118279  10.974  12.499   4.605 -0.9330 -1.0036 -0.5449
33429SOL    HW218280  11.044  12.487   4.739  0.7445  1.2733 -1.1605
33430SOL     OW18281  13.147   9.580   4.241 -0.1988 -0.0805  0.1465
33430SOL    HW118282  13.092   9.580   4.319  0.6402  0.5530  0.7641
33430SOL    HW218283  13.228   9.623   4.269  1.2950 -2.4351 -0.2518
33431SOL     OW18284   2.030   7.983   3.744 -0.0641  0.0158  0.4929
33431SOL    HW118285   1.987   7.970   3.828 -1.1880  0.5447  0.0281
33431SOL    HW218286   2.123   7.991   3.765 -0.3204  0.0710  1.6665
33432SOL     OW18287   3.692  12.218   0.674 -0.0573 -0.1743 -0.3044
33432SOL    HW118288   3.646  12.198   0.593 -0.5638  0.3289 -0.1473
33432SOL    HW218289   3.742  12.298   0.655 -1.1029  0.6293  0.2115
33433SOL     OW18290  13.714   3.599   4.080  0.2699  0.4078  0.0543
33433SOL    HW118291  13.683   3.526   4.028  0.4233 -1.3758  2.3376
33433SOL    HW218292  13.640   3.623   4.136  0.5843  1.2839  0.1225
33434SOL     OW18293   4.220  11.649   7.876  0.3520  0.1232  0.2146
33434SOL    HW118294   4.300  11.629   7.826 -1.3340 -2.4340 -1.7678
33434SOL    HW218295   4.205  11.742   7.862  1.8103  0.1762 -1.2554
33435SOL     OW18296   2.075  12.652   1.731 -0.6307 -0.0293 -0.2380
33435SOL    HW118297   2.081  12.742   1.698 -2.7273  0.2518  0.0459
33435SOL    HW218298   2.121  12.600   1.666  1.3760  1.3035  0.0097
33436SOL     OW18299   4.972  11.131  11.335 -0.2620 -0.4606 -0.0634
33436SOL    HW118300   5.053  11.081  11.336 -0.0858 -0.1883 -0.5507
33436SOL    HW218301   4.903  11.065  11.343 -0.1231 -0.9825 -2.5643
33437SOL     OW18302  10.649  11.461   3.598  0.1656 -0.2770  0.4844
33437SOL    HW118303  10.650  11.512   3.517 -0.1056  0.2392  0.8065
33437SOL    HW218304  10.618  11.374   3.571 -1.6080  0.3671  0.3086
33438SOL     OW18305   3.705   9.849   1.082  0.0374 -0.0033 -0.5671
33438SOL    HW118306   3.711   9.772   1.027 -0.9791 -0.3350 -0.2298
33438SOL    HW218307   3.643   9.906   1.037 -0.2641  0.0255 -0.1150
33439SOL     OW18308   4.236  10.233   8.646 -0.4878  0.6552 -0.0458
33439SOL    HW118309   4.249  10.158   8.705 -3.2502  0.6926  0.7716
33439SOL    HW218310   4.263  10.309   8.698 -0.0401  0.4452  0.0359
33440SOL     OW18311  13.958   7.153  11.241 -0.0170  0.4972 -0.4398
33440SOL    HW118312  13.992   7.216  11.304 -0.7329  1.3267 -0.8652
33440SOL    HW218313  14.037   7.112  11.204  0.4484  0.9348  0.0373
33441SOL     OW18314   3.567   7.094   4.080  0.1052  0.4124 -0.8039
33441SOL    HW118315   3.660   7.076   4.093  0.0845 -0.4205 -1.6852
33441SOL    HW218316   3.523   7.017   4.116 -0.2600  0.9388 -0.1209
33442SOL     OW18317   2.165   4.743  11.633 -0.4850  0.1422  0.3716
33442SOL    HW118318   2.132   4.706  11.552  1.2316 -3.4889  1.1240
33442SOL    HW218319   2.195   4.831  11.610 -0.7625 -0.4875 -2.6965
33443SOL     OW18320  12.219   1.341  10.683  0.1599 -0.2555  0.0063
33443SOL    HW118321  12.235   1.249  10.703  0.6861 -0.1928 -0.1269
33443SOL    HW218322  12.168   1.340  10.602 -0.6787 -0.4591  0.5290
33444SOL     OW18323  13.810   1.224  10.976  0.2273 -0.2858  0.0445
33444SOL    HW118324  13.785   1.297  10.919  0.5711  0.0829  0.3656
33444SOL    HW218325  13.881   1.180  10.928  0.4107 -0.0687  0.1156
33445SOL     OW18326   7.539   2.758   8.204 -0.0984  0.2545 -0.2988
33445SOL    HW118327   7.629   2.725   8.212  0.1458  0.8530 -0.5510
33445SOL    HW218328   7.548   2.842   8.160 -0.6824  0.8537  0.6966
33446SOL     OW18329   9.957   2.073  10.679 -0.3681  0.8473 -0.5552
33446SOL    HW118330   9.960   2.120  10.596  1.2619  0.8939 -0.4953
33446SOL    HW218331   9.872   2.029  10.678 -1.2132  2.4076 -1.3573
33447SOL     OW18332  10.669   8.019  10.400  0.5270  0.0062 -0.4903
33447SOL    HW118333  10.691   7.997  10.309 -0.8678  0.4116 -0.9442
33447SOL    HW218334  10.626   7.940  10.433  3.5612 -1.2754  0.7994
33448SOL     OW18335  10.880   0.297   5.931  0.3979 -0.2910 -0.5769
33448SOL    HW118336  10.969   0.331   5.931  0.2605  0.0643 -0.1515
33448SOL    HW218337  10.862   0.278   5.838  0.5430  0.6106 -0.8028
33449SOL     OW18338   0.845  10.249  13.177  0.2165 -0.0997  0.1284
33449SOL    HW118339   0.835  10.179  13.241  0.4993 -0.8533 -0.6240
33449SOL    HW218340   0.797  10.218  13.100  1.5258 -0.1395 -0.7128
33450SOL     OW18341   3.793  13.353   9.709 -0.1454  0.2886  0.2513
33450SOL    HW118342   3.703  13.380   9.723  0.0265  1.9503 -1.4264
33450SOL    HW218343   3.845  13.432   9.727  0.9023 -0.3760  0.2602
33451SOL     OW18344   0.491  12.146   5.351 -0.3374  0.0467  0.5788
33451SOL    HW118345   0.557  12.135   5.282 -1.2247  0.9418 -0.4660
33451SOL    HW218346   0.454  12.059   5.363 -0.1583 -0.1234 -0.0642
33452SOL     OW18347  10.846   4.909   3.494  0.1131 -0.3932 -0.0113
33452SOL    HW118348  10.931   4.952   3.490 -0.2685  0.3453 -0.4383
33452SOL    HW218349  10.847   4.846   3.421 -0.1162  0.4001 -0.7083
33453SOL     OW18350  13.383   1.397  10.355 -0.6004  0.8291  0.4097
33453SOL    HW118351  13.300   1.362  10.386 -0.8622  1.2014  0.1431
33453SOL    HW218352  13.447   1.371  10.422 -1.2696  2.1835  1.6427
33454SOL     OW18353   1.331   3.174  12.719  0.3694 -0.6592  0.5153
33454SOL    HW118354   1.387   3.175  12.642 -0.6322 -0.9151 -0.2385
33454SOL    HW218355   1.315   3.267  12.739 -2.2176 -0.4828 -1.7728
33455SOL     OW18356   9.679   7.513  10.403 -0.1298  0.6317  0.2604
33455SOL    HW118357   9.659   7.513  10.309  2.1299 -1.0035 -0.2946
33455SOL    HW218358   9.634   7.436  10.437  2.8055 -1.5735 -0.5009
33456SOL     OW18359   0.841   0.872   9.041  0.5777  0.1872 -0.4849
33456SOL    HW118360   0.787   0.837   8.970 -1.4375  0.8392  0.6278
33456SOL    HW218361   0.865   0.960   9.012 -0.3920  0.5201 -0.3127
33457SOL     OW18362   8.801   4.555   4.049 -0.0259 -0.3405 -0.2847
33457SOL    HW118363   8.717   4.537   4.008 -0.9588  1.4853  0.6976
33457SOL    HW218364   8.782   4.622   4.114  2.2210  0.2316 -0.1373
33458SOL     OW18365   2.112   6.283   0.496  0.1246 -0.0945  1.2532
33458SOL    HW118366   2.161   6.283   0.578  0.6719 -0.9689  0.9416
33458SOL    HW218367   2.114   6.191   0.467  1.1201  0.4026 -0.4278
33459SOL     OW18368   7.721   1.823  11.804  0.1260  0.1088  0.1866
33459SOL    HW118369   7.743   1.770  11.727 -0.3721 -0.1049  0.1877
33459SOL    HW218370   7.795   1.811  11.863 -0.2410 -1.0603  0.4343
33460SOL     OW18371   8.261  10.956  14.066  0.2470 -0.0693  0.5710
33460SOL    HW118372   8.170  10.940  14.088 -0.2873  1.6596 -0.2450
33460SOL    HW218373   8.302  10.870  14.071 -1.6738 -1.0847 -0.1920
33461SOL     OW18374   7.689   4.936   0.838 -0.2350 -0.0408  0.1981
33461SOL    HW118375   7.744   4.858   0.849  3.2344  2.1468 -0.1327
33461SOL    HW218376   7.667   4.938   0.745  2.3717  0.9084 -0.4664
33462SOL     OW18377   4.061  13.408   2.736 -0.0699 -0.3338  0.3770
33462SOL    HW118378   3.982  13.458   2.757  0.0750  0.1017 -0.0995
33462SOL    HW218379   4.132  13.457   2.776  0.1289  0.1238 -0.5034
33463SOL     OW18380   7.627   3.052   2.167  0.7901 -0.2356  0.4013
33463SOL    HW118381   7.604   3.041   2.075 -0.7246  1.7832  0.4656
33463SOL    HW218382   7.590   2.975   2.210  1.3879 -1.1254 -0.6338
33464SOL     OW18383   7.368   5.553  11.472 -0.3175  0.6098  0.1525
33464SOL    HW118384   7.458   5.535  11.445 -0.5879  0.2424 -0.5437
33464SOL    HW218385   7.339   5.473  11.515  0.0778  1.1590  1.4783
33465SOL     OW18386   7.542  10.184  14.105 -0.0462  0.3476 -0.4868
33465SOL    HW118387   7.556  10.095  14.072 -2.8133  0.0384 -1.0835
33465SOL    HW218388   7.586  10.185  14.190  0.4699 -1.4291 -0.6915
33466SOL     OW18389  10.398   1.746   8.301 -0.1253  0.2840 -0.2776
33466SOL    HW118390  10.357   1.742   8.214 -0.3392  0.8765 -0.2128
33466SOL    HW218391  10.408   1.840   8.318  0.9653  0.1561 -0.1462
33467SOL     OW18392   0.435   2.001   8.485 -0.3750  0.4391  0.0296
33467SOL    HW118393   0.528   1.976   8.482 -0.4102  0.0997  1.2671
33467SOL    HW218394   0.434   2.091   8.452  0.8704  1.6315  2.9126
33468SOL     OW18395  11.906   9.456   4.127 -0.5887  0.3715 -0.7521
33468SOL    HW118396  11.956   9.510   4.189  0.1347 -2.0632  0.9692
33468SOL    HW218397  11.856   9.519   4.075  3.2988  2.9797 -1.8270
33469SOL     OW18398   4.080  10.909   3.548 -0.0162 -0.2375  0.4912
33469SOL    HW118399   4.124  10.880   3.469  1.0831  0.0253  0.9924
33469SOL    HW218400   4.091  10.837   3.610 -0.4347 -0.2339  0.5775
33470SOL     OW18401   7.907   2.703   3.639  0.0631  0.0866 -0.4659
33470SOL    HW118402   7.976   2.748   3.591  1.5551 -1.0439  0.5405
33470SOL    HW218403   7.952   2.662   3.713 -2.0291  1.1967  1.5444
33471SOL     OW18404   6.773  11.627   1.137  0.5314  0.1836 -0.0242
33471SOL    HW118405   6.835  11.606   1.067  2.5161  1.3754  1.2730
33471SOL    HW218406   6.746  11.542   1.171 -1.3696 -0.4993 -2.8395
33472SOL     OW18407   2.808   3.731   2.742 -0.4436  0.0154 -0.5816
33472SOL    HW118408   2.858   3.649   2.746 -0.9082 -0.2411  0.0212
33472SOL    HW218409   2.857   3.792   2.797 -0.8003 -0.2418  0.0254
33473SOL     OW18410   0.702   9.870   9.583 -0.5670  0.2681  0.1726
33473SOL    HW118411   0.715   9.941   9.646  1.3093 -1.6847  2.1584
33473SOL    HW218412   0.652   9.804   9.631  1.7043 -1.6721  0.1007
33474SOL     OW18413   0.592   9.536   2.242  0.5336  0.2118 -0.1139
33474SOL    HW118414   0.595   9.632   2.248  0.0040  0.1878  0.6296
33474SOL    HW218415   0.554   9.508   2.325  0.9634 -0.6667 -0.1987
33475SOL     OW18416  11.222   8.924   1.918 -0.4345 -0.0867  0.0869
33475SOL    HW118417  11.179   8.839   1.926  0.9462 -0.7131  1.1420
33475SOL    HW218418  11.159   8.977   1.869 -0.8145 -2.0565 -1.7432
33476SOL     OW18419  13.910   5.909   6.564  0.1516  0.2464 -0.0722
33476SOL    HW118420  13.830   5.961   6.554 -0.4627 -0.4538  1.0386
33476SOL    HW218421  13.917   5.894   6.658  2.2163  1.2321 -0.0072
33477SOL     OW18422   6.328   6.276   0.741 -0.5484  0.7466  0.4238
33477SOL    HW118423   6.290   6.219   0.807  1.2669  0.1974  1.0646
33477SOL    HW218424   6.290   6.362   0.758  0.0371  0.6593  2.3385
33478SOL     OW18425  13.215   8.187  12.135  0.5604  0.0417  0.3062
33478SOL    HW118426  13.288   8.197  12.074  1.6198  0.8858  1.6694
33478SOL    HW218427  13.229   8.101  12.175  0.6213  0.0727  0.3483
33479SOL     OW18428   2.364  12.879   6.590  0.4265  0.2348 -0.0801
33479SOL    HW118429   2.318  12.813   6.642  3.5211 -1.5413  0.6623
33479SOL    HW218430   2.402  12.939   6.654  2.6333 -0.8343 -0.3049
33480SOL     OW18431   0.894  12.807   0.780  0.1011  0.0911  0.2606
33480SOL    HW118432   0.929  12.872   0.719  0.2837  0.1760  0.4559
33480SOL    HW218433   0.802  12.832   0.790 -0.2435 -0.6261 -0.9006
33481SOL     OW18434   0.402   1.449  12.880  0.1369 -0.1906  0.7035
33481SOL    HW118435   0.382   1.434  12.788 -1.5648  1.0321  0.8245
33481SOL    HW218436   0.347   1.386  12.927 -0.1772  0.2255  0.9066
33482SOL     OW18437  10.617   3.550   5.799 -0.6953 -0.4082 -0.0069
33482SOL    HW118438  10.598   3.506   5.883 -0.1750  0.0149  0.3374
33482SOL    HW218439  10.702   3.592   5.813  0.5351 -2.2372 -1.5065
33483SOL     OW18440  11.225   2.451   4.617 -0.2003  0.0725  0.1793
33483SOL    HW118441  11.155   2.508   4.585 -2.4549 -1.8360  1.3255
33483SOL    HW218442  11.239   2.479   4.708  2.3477  1.9839 -0.6883
33484SOL     OW18443   9.261  13.939   4.353  0.1519 -0.1893 -0.1839
33484SOL    HW118444   9.355  13.943   4.372  0.0142 -0.7858  0.7065
33484SOL    HW218445   9.240  13.846   4.358 -0.5167 -0.0425 -0.2164
33485SOL     OW18446  11.538   9.132   5.629  0.3219  0.1470  0.2324
33485SOL    HW118447  11.532   9.227   5.619  1.2346  0.1215 -0.8387
33485SOL    HW218448  11.622   9.118   5.674  0.0275 -0.1347  0.6966
33486SOL     OW18449   8.233   9.914   4.630 -0.1302 -0.3895 -0.5349
33486SOL    HW118450   8.237   9.914   4.725  1.1501 -0.6225 -0.5751
33486SOL    HW218451   8.199   9.828   4.607 -1.1161 -0.0877 -0.2927
33487SOL     OW18452  10.192   3.232  10.595 -0.3356 -0.2828 -0.5270
33487SOL    HW118453  10.130   3.305  10.601 -0.2735 -0.2500 -0.2847
33487SOL    HW218454  10.259   3.252  10.660  0.4883  0.2168 -1.4929
33488SOL     OW18455  12.638   7.543   5.674  0.0317 -0.4481 -0.2820
33488SOL    HW118456  12.617   7.578   5.588 -1.0158 -1.3990 -0.4354
33488SOL    HW218457  12.600   7.606   5.736  0.5410  0.0850 -0.4979
33489SOL     OW18458   2.010  11.875  10.315  0.1181  0.1562 -0.0024
33489SOL    HW118459   1.956  11.951  10.296  0.5256  0.3460 -0.4195
33489SOL    HW218460   1.949  11.802  10.318 -0.2224  0.4421  0.0000
33490SOL     OW18461   9.517   8.862   5.431  0.2598  0.2576 -0.1268
33490SOL    HW118462   9.486   8.857   5.522  1.0086  0.8138  0.1706
33490SOL    HW218463   9.611   8.879   5.439  0.2735  0.6358 -1.0065
33491SOL     OW18464  10.959  11.429  12.133 -0.2527 -0.0663  0.2407
33491SOL    HW118465  10.969  11.452  12.226  1.0115 -0.8916  0.3386
33491SOL    HW218466  11.047  11.438  12.097 -0.3319 -1.6024 -0.4243
33492SOL     OW18467   8.698   0.031  12.826  0.4712 -0.6918 -0.2282
33492SOL    HW118468   8.750  -0.045  12.853  0.7214 -0.9030 -1.2468
33492SOL    HW218469   8.739   0.060  12.744  0.4818  0.6492  0.2175
33493SOL     OW18470   2.257   5.417   1.148 -0.2638  0.5958 -0.1570
33493SOL    HW118471   2.250   5.360   1.071 -2.4126  1.6952 -0.8625
33493SOL    HW218472   2.211   5.370   1.217 -2.0950  1.4170 -0.7564
33494SOL     OW18473   6.836   2.030   5.070 -0.3468 -1.0024 -0.1489
33494SOL    HW118474   6.788   1.989   5.142 -1.0476  0.1738  0.0781
33494SOL    HW218475   6.785   2.009   4.992  0.1778 -1.9093 -0.2647
33495SOL     OW18476  12.935   7.819  10.288 -0.3690 -0.1849  0.0297
33495SOL    HW118477  12.993   7.886  10.323 -1.2633  0.1515  0.9156
33495SOL    HW218478  12.886   7.862  10.218  0.3846 -0.4491 -0.6703
33496SOL     OW18479  12.296   0.221  11.571 -0.8014 -0.1050 -0.3212
33496SOL    HW118480  12.370   0.241  11.513 -0.5562 -0.3763 -0.0997
33496SOL    HW218481  12.290   0.126  11.571 -1.6804 -0.0689 -1.0056
33497SOL     OW18482  10.305  12.366  11.753 -0.1566 -0.2445 -0.6872
33497SOL    HW118483  10.259  12.382  11.671 -1.0644  2.6247  0.2454
33497SOL    HW218484  10.353  12.448  11.770  0.5935 -1.0241  1.2687
33498SOL     OW18485   4.000  13.006   5.860  0.3363 -0.4424  0.0812
33498SOL    HW118486   3.932  13.009   5.794 -0.7585  1.6292  1.1936
33498SOL    HW218487   4.079  13.037   5.816 -0.3726  0.8841 -0.2844
33499SOL     OW18488   6.474   1.340   3.563 -0.2680 -0.4051 -0.0707
33499SOL    HW118489   6.464   1.389   3.482  0.9876 -2.4273 -1.5359
33499SOL    HW218490   6.387   1.303   3.580 -0.5458  0.0626 -0.4768
33500SOL     OW18491   1.283  11.725   2.615  0.0481 -0.3977 -0.0829
33500SOL    HW118492   1.319  11.709   2.702 -0.4522 -1.5027 -0.0683
33500SOL    HW218493   1.190  11.704   2.623 -0.3203  0.9748 -0.5034
33501SOL     OW18494   3.143  13.262  12.782  0.0764 -0.0268 -0.0956
33501SOL    HW118495   3.236  13.255  12.803  0.4093 -0.4491 -1.6331
33501SOL    HW218496   3.138  13.331  12.716 -0.5240 -0.8737 -0.9691
33502SOL     OW18497   7.134   9.663   6.618  0.6115 -0.4542  0.4331
33502SOL    HW118498   7.040   9.649   6.627  0.7285 -2.1875 -0.5709
33502SOL    HW218499   7.148   9.673   6.524  1.3415  0.7486  0.6449
33503SOL     OW18500   3.476   5.337   4.866  0.9127  0.4815 -0.0045
33503SOL    HW118501   3.452   5.404   4.930  0.4793 -0.0733  0.4183
33503SOL    HW218502   3.502   5.386   4.788 -2.8685  1.1698 -1.0410
33504SOL     OW18503   5.550   6.695   9.494 -0.1507  0.1775  0.0880
33504SOL    HW118504   5.634   6.660   9.466 -0.2631 -1.4458  1.6232
33504SOL    HW218505   5.572   6.756   9.565 -0.1511  1.3768 -0.9043
33505SOL     OW18506   7.724  10.659   7.834  0.5032  0.6086  0.5833
33505SOL    HW118507   7.776  10.698   7.904 -0.1108  1.1078  0.7623
33505SOL    HW218508   7.689  10.578   7.872 -0.5205  1.3042  1.1346
33506SOL     OW18509  12.857   7.108   8.313 -0.0893  0.4722  0.1154
33506SOL    HW118510  12.882   7.015   8.312  1.3288  0.7129  3.0998
33506SOL    HW218511  12.762   7.107   8.299 -0.0170 -1.3697 -0.5567
33507SOL     OW18512   3.541   3.838   6.952 -0.1621  0.3880 -0.5228
33507SOL    HW118513   3.447   3.833   6.938 -0.0071 -0.0252 -1.5137
33507SOL    HW218514   3.577   3.862   6.866  0.8426 -2.2855 -0.9579
33508SOL     OW18515   0.716   4.909  11.563  0.0185 -0.1333  0.5411
33508SOL    HW118516   0.720   4.887  11.470 -3.0933  0.2297  0.2157
33508SOL    HW218517   0.767   4.990  11.571  1.9595 -1.1881 -0.4073
33509SOL     OW18518   2.020  12.791  12.776 -0.0447 -0.0726  0.6799
33509SOL    HW118519   2.009  12.776  12.870  0.4304 -1.9643  0.4713
33509SOL    HW218520   2.032  12.886  12.768 -0.5866  0.1788  2.4661
33510SOL     OW18521  13.330   4.115  13.907  0.0706  0.7561 -0.0213
33510SOL    HW118522  13.356   4.069  13.827 -0.8964 -1.2086  0.7295
33510SOL    HW218523  13.281   4.191  13.876 -1.1383 -0.5024 -1.3171
33511SOL     OW18524   6.492   3.539   6.491  0.1437  0.0854  0.1183
33511SOL    HW118525   6.567   3.515   6.437 -0.4113 -1.3591 -0.0541
33511SOL    HW218526   6.523   3.532   6.581  0.5189  0.5873  0.0307
33512SOL     OW18527   5.132  10.992   1.575  0.3793  0.1059  0.3863
33512SOL    HW118528   5.063  10.954   1.521  1.5063 -0.7512 -0.5250
33512SOL    HW218529   5.199  11.020   1.512  1.0428  0.5378  1.2560
33513SOL     OW18530  12.884   2.008   2.738  0.2757  0.2201 -0.5169
33513SOL    HW118531  12.866   1.920   2.772  1.3106  0.9810  2.2243
33513SOL    HW218532  12.800   2.054   2.747  0.0377 -0.1357 -0.8644
33514SOL     OW18533  11.914   1.048   7.712  0.1257 -0.2450 -0.6389
33514SOL    HW118534  11.961   0.967   7.727  0.8971  0.3677  0.4000
33514SOL    HW218535  11.917   1.061   7.617 -0.8835 -1.9190 -0.9346
33515SOL     OW18536  13.686   6.064   6.507  0.2670  0.1050  0.7521
33515SOL    HW118537  13.670   6.158   6.519 -1.0894 -0.1021  0.7107
33515SOL    HW218538  13.636   6.022   6.577 -0.6943 -0.6754 -0.3680
33516SOL     OW18539   5.995  10.321   4.449  0.2169  0.0655 -0.1992
33516SOL    HW118540   5.941  10.362   4.381  0.9838  0.1982 -0.7294
33516SOL    HW218541   6.083  10.355   4.434  1.0059 -2.1708 -0.9888
33517SOL     OW18542   0.893   2.852   4.038 -0.6286 -0.8111 -0.0174
33517SOL    HW118543   0.956   2.854   3.966 -0.6544 -1.1163 -0.0504
33517SOL    HW218544   0.818   2.901   4.006  0.6533  2.0529  1.0465
33518SOL     OW18545   4.891   3.168  11.802  0.2799  0.3469 -0.3987
33518SOL    HW118546   4.955   3.239  11.799 -0.7935  1.3569 -0.0320
33518SOL    HW218547   4.879   3.150  11.895  1.6205 -1.3706 -0.4959
33519SOL     OW18548  12.236   3.864   6.023 -0.0509 -0.5419  0.0839
33519SOL    HW118549  12.312   3.902   6.067  0.0612  0.5119 -0.9677
33519SOL    HW218550  12.221   3.921   5.948 -1.5099 -1.0976 -0.0745
33520SOL     OW18551   9.480  10.267  12.600  0.4433 -0.0543  0.1408
33520SOL    HW118552   9.511  10.187  12.642 -0.9931 -0.2358  0.9297
33520SOL    HW218553   9.493  10.252  12.506 -0.0223 -1.3166  0.2646
33521SOL     OW18554   0.640   9.206   3.777  0.0086 -0.3148 -0.2499
33521SOL    HW118555   0.611   9.251   3.857  0.8054 -1.7046  0.8727
33521SOL    HW218556   0.734   9.221   3.774  0.4380 -2.5015  0.6011
33522SOL     OW18557   0.835   1.978   4.221  0.3254 -0.2071  0.6651
33522SOL    HW118558   0.757   1.967   4.166 -0.2361 -0.7129  1.5543
33522SOL    HW218559   0.818   1.925   4.298  0.5712  1.4535  1.9074
33523SOL     OW18560   8.803   6.240   4.332  0.2206 -0.5605 -0.5276
33523SOL    HW118561   8.836   6.280   4.412  0.1142  0.2515 -0.8732
33523SOL    HW218562   8.865   6.170   4.312 -0.2769 -1.4204  0.7770
33524SOL     OW18563   8.300   3.375  10.704  0.0768  0.1189  0.8208
33524SOL    HW118564   8.223   3.318  10.717 -0.6202  0.5812 -0.9298
33524SOL    HW218565   8.269   3.463  10.726 -0.7121  0.6916 -2.1242
33525SOL     OW18566   9.036   3.202  10.130  0.1848 -0.2811 -0.2598
33525SOL    HW118567   9.006   3.122  10.174  0.2576 -0.4607 -0.5325
33525SOL    HW218568   8.956   3.247  10.104  0.1482 -0.4584 -0.4504
33526SOL     OW18569   1.167   7.826  11.711 -0.3267 -0.1464 -0.0178
33526SOL    HW118570   1.193   7.847  11.621  0.7952  1.2969  0.6120
33526SOL    HW218571   1.198   7.899  11.763 -1.8744 -0.4553  1.4324
33527SOL     OW18572  12.604  10.912   9.844  0.3991 -0.5388 -0.0400
33527SOL    HW118573  12.528  10.871   9.884 -1.7795  1.3160 -1.9879
33527SOL    HW218574  12.665  10.839   9.828 -2.0711 -2.6004 -0.7813
33528SOL     OW18575   5.572  13.678   6.675  0.5416  0.1060 -0.4424
33528SOL    HW118576   5.630  13.652   6.747  0.4313  2.7672  0.7221
33528SOL    HW218577   5.590  13.771   6.663 -3.6613  1.2083  0.2324
33529SOL     OW18578   9.512   2.415   4.358 -0.2056 -0.2588  0.3149
33529SOL    HW118579   9.542   2.340   4.307  1.1812  0.1829  0.4102
33529SOL    HW218580   9.473   2.475   4.294 -0.2961 -0.5738  0.0748
33530SOL     OW18581   9.965   0.317   0.421  0.3800 -0.1434 -0.0844
33530SOL    HW118582  10.029   0.373   0.377  2.8371 -1.1211  1.9583
33530SOL    HW218583   9.983   0.229   0.386 -1.2021 -0.2071 -0.8481
33531SOL     OW18584  13.073   6.764   5.194  0.2020  0.4892  0.1454
33531SOL    HW118585  13.147   6.704   5.185 -0.4679 -0.3081 -0.2200
33531SOL    HW218586  13.078   6.820   5.117  0.3541  0.3509  0.0541
33532SOL     OW18587   2.171   7.999  11.125 -0.3483  0.0366 -0.2018
33532SOL    HW118588   2.093   7.986  11.071 -0.4537 -0.4349  0.0624
33532SOL    HW218589   2.137   8.006  11.215 -0.0517 -0.6171 -0.0350
33533SOL     OW18590  13.774   1.499   8.055 -1.0751 -0.2178 -0.3120
33533SOL    HW118591  13.866   1.522   8.047 -1.0094 -0.8034 -1.3634
33533SOL    HW218592  13.770   1.406   8.031 -2.1327  0.1702 -1.7982
33534SOL     OW18593  12.352   0.791  12.539 -0.2605  0.0212  0.3265
33534SOL    HW118594  12.437   0.834  12.529 -0.1477 -0.4890 -1.3620
33534SOL    HW218595  12.364   0.730  12.612  1.1886 -0.7957 -0.5366
33535SOL     OW18596   8.327   4.852   8.878  0.4874 -0.3816  0.1913
33535SOL    HW118597   8.355   4.774   8.925  1.5910  0.3420  0.7839
33535SOL    HW218598   8.403   4.876   8.824 -0.3582 -0.5465 -1.1285
33536SOL     OW18599   5.671   0.812  12.182  0.1607  0.6844 -0.3301
33536SOL    HW118600   5.719   0.874  12.127  0.7353  1.7209  1.2915
33536SOL    HW218601   5.579   0.832  12.164  0.3376  2.1480  0.2925
33537SOL     OW18602   6.991  13.987   2.127 -0.4876 -0.8297 -0.0958
33537SOL    HW118603   6.948  14.071   2.112 -0.3489 -0.7463 -0.0242
33537SOL    HW218604   7.023  13.960   2.041 -1.7076 -1.4550 -0.3739
33538SOL     OW18605   9.335  10.615   7.295 -0.3347  0.1431  0.0072
33538SOL    HW118606   9.355  10.677   7.225  0.3703  0.6370  0.6254
33538SOL    HW218607   9.403  10.548   7.288 -1.1124 -0.5965 -0.6766
33539SOL     OW18608   5.315   6.452   1.505  0.1940  0.2789 -0.1268
33539SOL    HW118609   5.305   6.384   1.572  1.3043 -0.5387 -0.7496
33539SOL    HW218610   5.244   6.514   1.523 -0.4300 -0.6815  0.8854
33540SOL     OW18611  13.254  12.872  11.624  0.4284 -0.2062 -0.1029
33540SOL    HW118612  13.338  12.842  11.589 -1.0165 -1.9499 -2.3215
33540SOL    HW218613  13.193  12.801  11.604 -1.6178  0.9962  1.4658
33541SOL     OW18614   1.416   9.939  12.871 -0.3945  0.1066  0.1443
33541SOL    HW118615   1.498   9.890  12.865 -1.5138 -2.1971  1.9708
33541SOL    HW218616   1.433  10.007  12.936 -0.2861 -1.3017  1.6530
33542SOL     OW18617   8.815   0.244   4.422  0.2359 -0.6835  0.0758
33542SOL    HW118618   8.725   0.230   4.451 -0.0620 -0.5744 -0.7431
33542SOL    HW218619   8.807   0.307   4.349  0.6734 -2.7325 -1.8502
33543SOL     OW18620   3.666   7.875   4.992 -0.1598 -0.4291  0.2377
33543SOL    HW118621   3.572   7.888   4.983 -0.3870 -1.2108  1.2296
33543SOL    HW218622   3.705   7.958   4.965 -1.0458 -0.4870 -1.3248
33544SOL     OW18623   5.300   4.853   7.728 -0.2831 -0.0184  0.4211
33544SOL    HW118624   5.344   4.858   7.813 -2.6383 -0.1287  1.7176
33544SOL    HW218625   5.345   4.918   7.675 -0.2738  1.8117  2.5063
33545SOL     OW18626  11.185   3.718  11.949  0.8847 -0.5408 -0.7118
33545SOL    HW118627  11.173   3.694  12.041 -1.4520  1.3536 -0.4478
33545SOL    HW218628  11.211   3.810  11.951  1.7750 -0.7274 -1.9680
33546SOL     OW18629   2.132   7.417   0.224 -0.1935  0.0402  0.3385
33546SOL    HW118630   2.046   7.415   0.266  0.2777  0.3804  1.3573
33546SOL    HW218631   2.140   7.507   0.191  0.8328  0.8548  2.6142
33547SOL     OW18632   1.754   9.208   5.175  0.0093  0.0716  0.2857
33547SOL    HW118633   1.805   9.286   5.199  0.7447  0.1174 -1.2589
33547SOL    HW218634   1.819   9.141   5.158 -0.5044 -0.2498 -0.4721
33548SOL     OW18635   5.490   4.544   0.731  0.1165 -0.0966  0.8547
33548SOL    HW118636   5.557   4.601   0.768 -1.7495  1.5894  1.8381
33548SOL    HW218637   5.513   4.537   0.638  2.0180 -0.1808  1.2951
33549SOL     OW18638  11.497   0.088   9.470 -0.9724 -0.4753 -0.0452
33549SOL    HW118639  11.455   0.031   9.534 -1.2522 -1.2682 -0.9173
33549SOL    HW218640  11.561   0.137   9.521 -0.0390 -2.2442  0.5775
33550SOL     OW18641   8.998   3.083   1.596  0.6227  0.4268 -0.1679
33550SOL    HW118642   9.028   3.060   1.684  0.1498 -0.5198 -0.2374
33550SOL    HW218643   8.971   3.000   1.557 -0.4364  0.9944 -0.7182
33551SOL     OW18644   4.559   8.195   6.860  0.2141 -0.3249 -0.0687
33551SOL    HW118645   4.475   8.220   6.821  0.1502  0.1157  0.3388
33551SOL    HW218646   4.559   8.099   6.857 -0.7523 -0.3679  0.8355
33552SOL     OW18647  12.478   2.535  11.975  0.2556 -0.2707  0.2699
33552SOL    HW118648  12.478   2.621  12.016 -0.2529 -0.8896  1.6455
33552SOL    HW218649  12.559   2.494  12.005  0.9718  0.0447 -1.1472
33553SOL     OW18650   4.281  10.619   2.919 -0.3414  0.1016 -0.0629
33553SOL    HW118651   4.281  10.655   2.830 -1.1324  0.2454 -0.0184
33553SOL    HW218652   4.335  10.541   2.913  1.8076  1.5035 -0.0637
33554SOL     OW18653   5.774   8.867   0.436 -0.2976 -0.2164  0.1914
33554SOL    HW118654   5.862   8.902   0.449 -0.2085 -0.5707  0.5768
33554SOL    HW218655   5.762   8.805   0.507 -0.6320 -0.6203 -0.2086
33555SOL     OW18656   4.344   5.120   4.741  0.1016 -0.5861  0.1742
33555SOL    HW118657   4.274   5.175   4.704 -3.9426 -2.2887  4.1918
33555SOL    HW218658   4.343   5.041   4.689 -1.5255 -0.7906  0.4405
33556SOL     OW18659  10.936   2.504   8.559 -0.7396 -0.5286 -0.0269
33556SOL    HW118660  10.907   2.530   8.472  0.3260 -1.2459 -0.6217
33556SOL    HW218661  10.880   2.430   8.582 -0.3018 -1.0369 -0.5813
33557SOL     OW18662   2.178   1.370   1.925  0.0217 -0.1721  0.1896
33557SOL    HW118663   2.233   1.293   1.939  0.4389  0.0499 -0.1852
33557SOL    HW218664   2.203   1.402   1.838 -0.7215 -0.0781  0.0023
33558SOL     OW18665   2.251   8.962  10.418 -0.1397  0.0190  0.1543
33558SOL    HW118666   2.346   8.972  10.413 -0.1089  0.4007  1.2962
33558SOL    HW218667   2.218   9.001  10.336  0.6338  0.5821  0.1053
33559SOL     OW18668   1.787   0.542   8.513 -0.5196 -0.0582 -0.4315
33559SOL    HW118669   1.814   0.628   8.546 -1.1671  0.0636 -0.1908
33559SOL    HW218670   1.812   0.542   8.421  3.0149 -1.0956  0.3900
33560SOL     OW18671   4.982   1.295  13.042 -0.2326 -0.1744  0.3874
33560SOL    HW118672   4.994   1.207  13.078 -0.8849  0.3347  1.9274
33560SOL    HW218673   4.940   1.344  13.112  0.2435  1.4177 -0.3890
33561SOL     OW18674  13.476   2.859  10.682  0.2260 -0.3926  0.1296
33561SOL    HW118675  13.534   2.928  10.714  1.2300 -1.3578  0.4536
33561SOL    HW218676  13.518   2.777  10.710  0.0065 -1.2047 -1.7558
33562SOL     OW18677  10.728   2.967  10.420 -0.0657  0.3783  0.1229
33562SOL    HW118678  10.760   2.913  10.348  0.6003  1.3474 -0.3208
33562SOL    HW218679  10.673   3.033  10.379 -1.0034 -0.0367  0.6802
33563SOL     OW18680  11.064   0.751  13.721 -0.5127  0.2327  0.6607
33563SOL    HW118681  11.066   0.847  13.724 -0.3585  0.2462  0.0859
33563SOL    HW218682  11.064   0.725  13.813 -0.5964  0.7850  0.8214
33564SOL     OW18683  10.302   9.927   5.688 -0.2691 -0.0014 -0.0418
33564SOL    HW118684  10.300   9.936   5.783  0.4609  0.7575 -0.0938
33564SOL    HW218685  10.281  10.014   5.655  0.1999 -0.0834 -0.5754
33565SOL     OW18686   3.647  11.646   5.630 -0.3029 -0.0570 -0.1025
33565SOL    HW118687   3.678  11.718   5.576 -2.0426  0.4523 -0.5035
33565SOL    HW218688   3.703  11.647   5.707  1.4129  0.0101 -1.2856
33566SOL     OW18689   4.372   9.144  11.616 -0.1904  0.1670 -0.5914
33566SOL    HW118690   4.299   9.095  11.655  1.6032 -0.5000  2.1810
33566SOL    HW218691   4.428   9.166  11.690  0.5895  3.9910 -2.0820
33567SOL     OW18692   6.431   5.280   4.500  0.3803 -0.2838 -0.4874
33567SOL    HW118693   6.386   5.333   4.434  0.8946  0.0179 -0.5931
33567SOL    HW218694   6.424   5.330   4.581  0.0489 -0.4977 -0.3765
33568SOL     OW18695   0.179   0.003   2.499 -0.7414 -0.3286 -0.1472
33568SOL    HW118696   0.265   0.026   2.533 -1.3571 -0.1422  1.3403
33568SOL    HW218697   0.187  -0.089   2.473 -0.4370 -0.6809  1.1629
33569SOL     OW18698   0.770   3.147   3.220  0.0619  0.9278 -0.0395
33569SOL    HW118699   0.706   3.189   3.278  0.3606  0.7168  0.4479
33569SOL    HW218700   0.834   3.215   3.200 -0.5869  1.2860 -0.9460
33570SOL     OW18701   1.964   0.995   6.097 -0.2799 -0.6420  0.8431
33570SOL    HW118702   2.005   0.955   6.021  1.2874  0.8345  0.8486
33570SOL    HW218703   1.995   0.943   6.171  1.4673  0.2745  0.8181
33571SOL     OW18704   8.437   3.229   0.234  0.0155 -0.1518  0.0348
33571SOL    HW118705   8.485   3.258   0.312 -0.0580 -1.0797  0.4358
33571SOL    HW218706   8.361   3.286   0.230 -0.0180 -0.1429  0.6872
33572SOL     OW18707  11.293   5.363  12.806  0.1214 -0.7999 -0.1012
33572SOL    HW118708  11.345   5.338  12.882  0.2287 -2.2730 -0.6181
33572SOL    HW218709  11.306   5.457  12.798  0.5786 -0.7123  1.3396
33573SOL     OW18710   6.974  13.519   4.452  0.1249 -0.6084 -0.0259
33573SOL    HW118711   6.880  13.504   4.460 -0.1495 -0.3727 -2.2999
33573SOL    HW218712   6.983  13.609   4.422  1.1809 -0.1544  1.5221
33574SOL     OW18713  12.344   0.370   3.239 -0.2242 -0.2080 -0.2891
33574SOL    HW118714  12.358   0.355   3.332 -0.8769 -0.7330 -0.2686
33574SOL    HW218715  12.422   0.418   3.210 -0.3097  0.5164  0.6512
33575SOL     OW18716  12.098  10.919   3.521 -0.4359  0.3809  0.1229
33575SOL    HW118717  12.084  11.012   3.538  0.1957  0.4207  0.4945
33575SOL    HW218718  12.014  10.877   3.540 -0.0048  0.5254  2.7418
33576SOL     OW18719  11.060  10.089  14.015  0.0288 -0.2630  0.1406
33576SOL    HW118720  11.019  10.066  13.932  1.1899 -2.1546  0.0455
33576SOL    HW218721  11.044  10.014  14.072  0.6344  0.3151  1.0993
33577SOL     OW18722   9.303   8.034  13.931 -0.4806  0.5632  0.5300
33577SOL    HW118723   9.344   8.069  13.853  0.1351 -0.0286  0.5809
33577SOL    HW218724   9.374   7.991  13.979 -1.1996 -0.7825  0.4468
33578SOL     OW18725  12.016  11.148  11.537  0.9460 -1.1384  1.0677
33578SOL    HW118726  11.939  11.125  11.484  1.4943  1.5085 -1.0687
33578SOL    HW218727  12.088  11.151  11.475  2.2405 -0.8632  2.5392
33579SOL     OW18728   4.332   4.119  10.317  0.0506  0.5641  0.1789
33579SOL    HW118729   4.281   4.162  10.385  0.9765 -0.6774  1.7343
33579SOL    HW218730   4.309   4.165  10.236 -2.4841  0.9038  1.0052
33580SOL     OW18731  12.895   4.517   2.907  0.1760 -0.7781  0.4784
33580SOL    HW118732  12.813   4.479   2.876  0.2511 -1.0522  0.6159
33580SOL    HW218733  12.943   4.538   2.828 -0.7838  1.0748  0.3298
33581SOL     OW18734   9.070   7.133   9.745  0.4860 -0.6932 -0.0224
33581SOL    HW118735   9.052   7.107   9.655  0.5336  0.4316 -0.3746
33581SOL    HW218736   8.987   7.122   9.791 -0.3917  1.5293 -0.9162
33582SOL     OW18737   0.389  12.660   8.282 -0.2095 -0.0610 -0.0520
33582SOL    HW118738   0.340  12.721   8.226  0.3456  0.3670 -0.0824
33582SOL    HW218739   0.361  12.681   8.371 -0.1508  0.1205 -0.0757
33583SOL     OW18740   0.711  10.782   8.203  0.5520 -0.2428  0.3256
33583SOL    HW118741   0.635  10.839   8.217  0.3658 -0.4694  0.2409
33583SOL    HW218742   0.763  10.827   8.136 -0.3880 -0.9409 -0.8992
33584SOL     OW18743   9.918  13.729   5.577 -0.1896 -0.2257 -0.2816
33584SOL    HW118744   9.847  13.783   5.543  1.1175  0.4774 -1.9970
33584SOL    HW218745   9.984  13.792   5.605  0.5218 -0.8992 -0.4260
33585SOL     OW18746   1.361   1.422   3.707  0.0172  0.5863 -0.0420
33585SOL    HW118747   1.352   1.440   3.614  1.1306  1.2044 -0.0429
33585SOL    HW218748   1.279   1.377   3.731 -0.5953  1.0896 -1.1411
33586SOL     OW18749   9.244   1.585  11.875  0.3332 -0.1837 -0.3937
33586SOL    HW118750   9.176   1.518  11.871  0.3446 -0.5316  2.7679
33586SOL    HW218751   9.320   1.541  11.914  1.7969  0.6951 -2.0614
33587SOL     OW18752   8.855   8.224   4.396 -0.4731 -0.5614 -0.4120
33587SOL    HW118753   8.922   8.284   4.362  0.8286 -1.7773 -0.1005
33587SOL    HW218754   8.885   8.203   4.484 -0.8168 -1.7680 -0.5639
33588SOL     OW18755  12.187   7.495   5.298 -0.1429 -0.1361  0.1698
33588SOL    HW118756  12.150   7.581   5.317  0.8651  0.0955  1.2021
33588SOL    HW218757  12.111   7.439   5.283 -0.8136  0.8963 -0.3744
33589SOL     OW18758   2.219   4.107   1.670 -0.5251  0.5719 -0.0294
33589SOL    HW118759   2.312   4.096   1.690 -0.5715  0.7307  0.2867
33589SOL    HW218760   2.201   4.041   1.604  0.3370  2.0274 -1.8066
33590SOL     OW18761   7.105  11.940   6.017 -0.1073 -0.0649 -0.1390
33590SOL    HW118762   7.082  11.939   5.924  2.0549 -0.9783 -0.7369
33590SOL    HW218763   7.195  11.974   6.018 -1.3223  3.6255  2.0007
33591SOL     OW18764  11.326   5.567  10.394  0.6014  0.2194 -0.0553
33591SOL    HW118765  11.293   5.563  10.484  1.9588 -2.1067  0.4349
33591SOL    HW218766  11.300   5.484  10.355  0.6452  0.9026 -1.6028
33592SOL     OW18767   0.696  11.156   3.260  0.4995 -0.2048  0.2894
33592SOL    HW118768   0.762  11.196   3.316 -0.0584  0.3972  0.5288
33592SOL    HW218769   0.636  11.228   3.239  0.1411 -0.6530 -0.2497
33593SOL     OW18770  14.027   2.093   1.097  0.2827  0.4540  0.5095
33593SOL    HW118771  14.050   2.008   1.061  0.1132  0.4787  0.3459
33593SOL    HW218772  14.109   2.142   1.097  0.1537  0.6824 -0.4571
33594SOL     OW18773   6.846   3.658   8.458 -0.6333 -0.0931 -0.3354
33594SOL    HW118774   6.908   3.708   8.511 -1.3639  1.5745 -0.9935
33594SOL    HW218775   6.901   3.608   8.398  0.1364 -0.6341  0.7764
33595SOL     OW18776   0.951  10.901   4.371 -0.1277 -0.4538 -0.3000
33595SOL    HW118777   0.955  10.805   4.373 -1.7959 -0.5496 -0.2906
33595SOL    HW218778   0.925  10.922   4.282 -0.7844 -0.0773 -0.0274
33596SOL     OW18779  11.242   3.745  13.455 -0.1044 -0.1452 -0.7244
33596SOL    HW118780  11.300   3.775  13.525 -1.2291  0.2354  0.0619
33596SOL    HW218781  11.175   3.693  13.499 -1.2949  0.7637 -1.4043
33597SOL     OW18782  14.059   8.088   4.412  0.8437  0.0248 -0.5055
33597SOL    HW118783  14.121   8.148   4.370  1.8641 -1.1046 -0.6973
33597SOL    HW218784  13.973   8.127   4.397  1.4040  1.0007 -1.3443
33598SOL     OW18785  12.223   7.456  11.092  0.3269  0.2583  0.0392
33598SOL    HW118786  12.154   7.511  11.056 -1.5672 -0.4878  2.3174
33598SOL    HW218787  12.188   7.367  11.088  1.6117 -0.2830  0.2515
33599SOL     OW18788  10.062  10.815   5.910 -0.0698  0.2037  0.1384
33599SOL    HW118789  10.045  10.751   5.979  0.0506 -1.3292 -1.2044
33599SOL    HW218790   9.976  10.850   5.887 -0.3771 -0.9034 -0.4347
33600SOL     OW18791   6.805  14.157   0.918 -1.0642 -0.3097  0.2366
33600SOL    HW118792   6.721  14.189   0.883 -1.2492 -0.6493  0.3637
33600SOL    HW218793   6.831  14.224   0.981 -0.0616  0.9931 -1.4777
33601SOL     OW18794   5.328   7.078  12.463  0.2014 -0.0463 -0.1472
33601SOL    HW118795   5.247   7.126  12.476  1.3033  1.9645 -0.3846
33601SOL    HW218796   5.307   7.013  12.395 -1.4315 -0.2478  0.5141
33602SOL     OW18797   8.755   6.127   9.819  0.3266  0.6718 -0.1692
33602SOL    HW118798   8.773   6.092   9.907 -1.0730  1.0745  0.2966
33602SOL    HW218799   8.662   6.145   9.819  0.6005  2.2593 -1.1901
33603SOL     OW18800   4.501   4.396  11.137  0.1466 -0.0955  0.4604
33603SOL    HW118801   4.493   4.352  11.222 -0.5135 -0.1657  0.3688
33603SOL    HW218802   4.494   4.326  11.073  1.0444 -0.0928  0.3493
33604SOL     OW18803   9.880   6.811   4.704  0.8798 -0.1417  0.6030
33604SOL    HW118804   9.855   6.896   4.666  0.3472  0.5644  2.4230
33604SOL    HW218805   9.907   6.759   4.629  1.0596  1.5793 -0.6035
33605SOL     OW18806   2.064   1.924   5.581 -0.0267 -0.3304  0.0462
33605SOL    HW118807   2.008   1.859   5.623  0.7504 -1.0336  0.0408
33605SOL    HW218808   2.153   1.900   5.608  0.4377 -0.3804 -1.4182
33606SOL     OW18809   9.406   4.179   0.624  0.4112  0.4904 -0.8064
33606SOL    HW118810   9.408   4.221   0.710 -0.2760 -0.8894 -0.0790
33606SOL    HW218811   9.321   4.201   0.588  0.1656 -0.0259 -0.5488
33607SOL     OW18812   7.726   4.541   5.714 -0.2104  0.1005 -0.7641
33607SOL    HW118813   7.685   4.546   5.801  0.5905 -0.2824 -0.3590
33607SOL    HW218814   7.659   4.501   5.658 -1.0165  1.0640 -0.5123
33608SOL     OW18815   3.577   9.449  11.549  0.4396 -0.1504 -0.7107
33608SOL    HW118816   3.606   9.399  11.473  1.8406 -1.6376  0.7050
33608SOL    HW218817   3.581   9.386  11.622 -1.4375  1.0331  0.5128
33609SOL     OW18818   7.642  11.228  11.900  0.2008  0.4512  0.0031
33609SOL    HW118819   7.671  11.303  11.848 -0.2928  0.6790  0.0451
33609SOL    HW218820   7.719  11.202  11.950 -0.4271  3.1397  2.6554
33610SOL     OW18821   5.218   8.284   5.520  0.0780  0.4165 -0.1054
33610SOL    HW118822   5.227   8.377   5.538  0.4911  0.4265 -0.3351
33610SOL    HW218823   5.171   8.279   5.437 -1.6955  0.3729  0.8681
33611SOL     OW18824   8.331   2.295  12.553 -0.3697  0.0349  0.9254
33611SOL    HW118825   8.340   2.276  12.647 -0.4475  2.3522  1.4741
33611SOL    HW218826   8.279   2.376  12.551  0.7511  0.7580 -1.0566
33612SOL     OW18827  13.893  13.983   4.560  0.6140 -0.1613 -0.3623
33612SOL    HW118828  13.868  13.896   4.529  0.0280  0.1948 -0.9087
33612SOL    HW218829  13.883  14.039   4.483  0.7472  0.4337  0.0549
33613SOL     OW18830   5.402  10.125  10.393  0.4206 -0.2531  0.1839
33613SOL    HW118831   5.468  10.153  10.456  1.8791 -0.4453 -1.2150
33613SOL    HW218832   5.446  10.059  10.339 -0.8389 -0.2158 -0.9411
33614SOL     OW18833  12.065   9.542  14.024 -0.8316  0.2831 -0.2443
33614SOL    HW118834  11.994   9.601  13.997 -1.0202  1.7158  2.9782
33614SOL    HW218835  12.021   9.458  14.040 -0.6181 -0.8850 -4.4818
33615SOL     OW18836   6.710  13.957   4.224 -0.1858 -0.6665 -0.4963
33615SOL    HW118837   6.736  14.033   4.274  1.8964  1.2392 -4.0898
33615SOL    HW218838   6.648  13.991   4.158  0.4263 -2.1023 -1.8902
33616SOL     OW18839  11.268  13.370  10.732  0.2156 -0.0978  0.4195
33616SOL    HW118840  11.310  13.456  10.735 -2.3165  1.3433 -1.4956
33616SOL    HW218841  11.322  13.319  10.672  0.0969  1.2653 -0.9302
33617SOL     OW18842   6.258   8.894   2.626 -0.0106  0.5355 -0.6868
33617SOL    HW118843   6.351   8.879   2.606 -0.1684  0.1453 -1.1529
33617SOL    HW218844   6.211   8.847   2.557 -0.5656  0.1034 -0.0238
33618SOL     OW18845  11.231   1.647   6.585 -0.3796  0.1243  0.3139
33618SOL    HW118846  11.158   1.691   6.629 -1.3209 -1.6445  0.5831
33618SOL    HW218847  11.287   1.617   6.656 -0.7869 -0.8530  0.2320
33619SOL     OW18848   8.814   9.226  12.755 -0.5660 -0.1335  0.1274
33619SOL    HW118849   8.870   9.235  12.678 -0.8257 -0.2797 -0.0824
33619SOL    HW218850   8.729   9.200  12.719 -1.2585  1.7459  0.2847
33620SOL     OW18851   9.812   5.583   9.742  0.4472  0.4544 -0.4192
33620SOL    HW118852   9.774   5.614   9.824 -1.7960  1.4436 -1.7345
33620SOL    HW218853   9.889   5.637   9.728 -0.7457  2.2513 -0.3199
33621SOL     OW18854  11.010   2.795   3.665  0.3013 -0.3173  0.1425
33621SOL    HW118855  11.062   2.724   3.628 -0.7163 -0.4598 -1.0927
33621SOL    HW218856  11.036   2.799   3.757  1.1821 -1.5400 -0.0318
33622SOL     OW18857   6.529   5.648  10.678 -0.6923 -0.1351 -0.2418
33622SOL    HW118858   6.460   5.618  10.619  0.1099 -1.6443 -0.4531
33622SOL    HW218859   6.607   5.599  10.652  0.6067  1.8173 -0.2833
33623SOL     OW18860  14.049  13.761   6.633 -0.2684  0.2259  0.2604
33623SOL    HW118861  13.971  13.779   6.581  0.7907  0.0938 -1.4434
33623SOL    HW218862  14.114  13.824   6.601  0.9317 -1.0206  0.1830
33624SOL     OW18863  12.297   4.738   1.650 -0.2557  0.1051  0.6559
33624SOL    HW118864  12.261   4.667   1.597  0.6659  0.5359 -0.5757
33624SOL    HW218865  12.220   4.790   1.676 -0.8054 -0.6281  0.5475
33625SOL     OW18866   5.577   7.024   1.323 -0.4540 -0.3787 -0.7314
33625SOL    HW118867   5.491   6.981   1.330 -0.3913 -0.4110 -0.0588
33625SOL    HW218868   5.640   6.955   1.338 -0.2271 -0.7141 -2.9266
33626SOL     OW18869  10.446   4.600   6.525 -0.2942 -0.0112  0.1305
33626SOL    HW118870  10.421   4.547   6.450 -1.1562 -0.8146  0.9613
33626SOL    HW218871  10.403   4.685   6.510 -0.0841 -0.0091 -0.4945
33627SOL     OW18872   3.057   9.772  13.937  0.3230 -0.0605  0.1053
33627SOL    HW118873   3.106   9.841  13.893  0.3551 -0.8473 -1.1324
33627SOL    HW218874   3.100   9.691  13.910 -1.4131 -0.7488 -0.7108
33628SOL     OW18875  13.204  12.967   7.909 -0.2114  0.2342  0.2633
33628SOL    HW118876  13.296  12.989   7.897 -0.0533 -0.6866 -0.3361
33628SOL    HW218877  13.180  12.919   7.829 -1.2027  0.4411  0.4209
33629SOL     OW18878  13.939   2.213   1.574  0.5595  0.5532  0.3506
33629SOL    HW118879  13.957   2.159   1.496  0.4224 -1.0683  1.3954
33629SOL    HW218880  13.870   2.273   1.545 -0.3860 -0.8438 -0.4691
33630SOL     OW18881   2.726  10.676   3.313  0.5646 -0.9383 -0.0908
33630SOL    HW118882   2.641  10.714   3.335 -0.6298 -1.5531 -3.1113
33630SOL    HW218883   2.783  10.752   3.299 -0.3068 -0.3831 -0.7837
33631SOL     OW18884   0.780  10.902   7.596  0.1849  0.0990 -0.0187
33631SOL    HW118885   0.736  10.823   7.564 -0.0014 -0.0868  0.6852
33631SOL    HW218886   0.837  10.928   7.524  1.2204 -1.4228  0.2070
33632SOL     OW18887   0.677   3.990   8.844 -0.2661 -0.3145 -0.2932
33632SOL    HW118888   0.746   3.961   8.784  1.3911  1.2668  0.7442
33632SOL    HW218889   0.670   3.919   8.908 -0.3693 -0.9583 -1.0075
33633SOL     OW18890   7.405   6.297  10.728  0.6272 -0.9097 -0.0521
33633SOL    HW118891   7.366   6.221  10.685 -2.0118 -0.8285  1.9109
33633SOL    HW218892   7.485   6.264  10.768  0.4533 -2.2021 -0.7162
33634SOL     OW18893   0.968   2.782   2.170  0.1201 -0.3862  0.3794
33634SOL    HW118894   0.938   2.852   2.113  4.4000 -0.1159 -1.8833
33634SOL    HW218895   0.935   2.702   2.128 -1.0842  0.0098  0.5193
33635SOL     OW18896   4.308  13.628   5.404 -0.2447 -0.1244  0.1071
33635SOL    HW118897   4.348  13.713   5.386 -2.4079  1.0264  0.3229
33635SOL    HW218898   4.317  13.579   5.322  0.3154  0.6334 -0.2948
33636SOL     OW18899   9.820   2.402   7.822 -0.3291 -0.2948  0.4047
33636SOL    HW118900   9.767   2.333   7.783 -1.8657  0.3580  1.2369
33636SOL    HW218901   9.756   2.466   7.854  0.9925  0.8071  0.9473
33637SOL     OW18902  13.256   2.241  11.975  0.3245 -0.4302 -0.2401
33637SOL    HW118903  13.331   2.229  12.034  0.2677 -1.5928 -0.3875
33637SOL    HW218904  13.296   2.262  11.891  0.3927  2.2748  0.3618
33638SOL     OW18905  14.114   1.776   4.958 -0.9079  0.2315  0.7089
33638SOL    HW118906  14.140   1.685   4.968  0.3868  0.5569  0.5088
33638SOL    HW218907  14.117   1.812   5.046  1.4676  0.7836  0.4734
33639SOL     OW18908   3.399   8.705   2.971  0.7310  0.6127  0.3711
33639SOL    HW118909   3.355   8.774   2.923  0.0531 -0.6778 -0.9241
33639SOL    HW218910   3.491   8.730   2.971  0.7042  0.8027 -1.3599
33640SOL     OW18911   2.218  12.215   6.129  0.1731  0.0829  0.4847
33640SOL    HW118912   2.204  12.304   6.095  1.3348  0.1003  0.0232
33640SOL    HW218913   2.130  12.176   6.130 -0.0805  0.4985 -1.4010
33641SOL     OW18914   7.472   8.633   3.763  0.1491  0.2857  0.3602
33641SOL    HW118915   7.468   8.564   3.829 -1.0625 -2.1344 -2.0437
33641SOL    HW218916   7.380   8.657   3.748  0.4252  0.9989 -0.2618
33642SOL     OW18917   5.239  11.531   1.341 -0.6567 -0.4804 -0.3416
33642SOL    HW118918   5.231  11.480   1.260 -0.5035 -0.1613 -0.5616
33642SOL    HW218919   5.248  11.466   1.410 -0.4391 -0.7498 -0.6220
33643SOL     OW18920   8.676   3.075   3.677 -0.2094 -0.5280 -0.1228
33643SOL    HW118921   8.645   3.134   3.608 -0.9810 -1.8992 -0.9976
33643SOL    HW218922   8.672   2.988   3.638  0.6166 -1.2051  1.2281
33644SOL     OW18923   2.705   1.559   1.029 -0.1407  0.0137 -0.2766
33644SOL    HW118924   2.745   1.598   1.107  0.1176 -0.7465 -0.0199
33644SOL    HW218925   2.612   1.555   1.050  0.1048 -1.7699  0.7408
33645SOL     OW18926   3.671   8.385   8.539 -0.5892 -0.1578 -0.0828
33645SOL    HW118927   3.685   8.401   8.632  1.5050  1.6748 -0.6306
33645SOL    HW218928   3.747   8.332   8.513  0.0009  1.1489 -1.1263
33646SOL     OW18929   2.121  11.906   9.799 -0.5132  0.4821 -0.2609
33646SOL    HW118930   2.046  11.887   9.856  0.7805 -0.0945  1.3247
33646SOL    HW218931   2.157  11.988   9.833  0.8392 -0.3607  0.3831
33647SOL     OW18932   2.650   6.057  12.191 -0.1062 -0.6715 -0.0584
33647SOL    HW118933   2.717   6.004  12.147 -0.8666 -0.7664 -1.1336
33647SOL    HW218934   2.588   6.079  12.122 -1.5967 -1.2211  1.0568
33648SOL     OW18935  13.861   4.204   7.155  0.1688 -0.0061  0.0426
33648SOL    HW118936  13.939   4.258   7.162  0.0646 -0.0483  2.0915
33648SOL    HW218937  13.788   4.264   7.172 -0.1596 -0.2733 -0.3774
33649SOL     OW18938   1.869   0.099   4.090 -0.2324  0.1617  0.0578
33649SOL    HW118939   1.790   0.099   4.145 -0.1012 -0.9921  0.2702
33649SOL    HW218940   1.894   0.191   4.085 -1.2964  0.4921  0.4181
33650SOL     OW18941   7.776  10.887  13.468  0.2656 -0.0864 -0.2531
33650SOL    HW118942   7.762  10.955  13.402 -2.6725 -0.1638  0.1661
33650SOL    HW218943   7.793  10.808  13.417 -0.7489  0.0996 -0.9156
33651SOL     OW18944  11.908   8.953  11.189  0.5890  0.3337 -0.0798
33651SOL    HW118945  11.947   8.955  11.277  0.4899  1.1173 -0.0400
33651SOL    HW218946  11.831   9.010  11.197  0.5768  0.4006 -0.6767
33652SOL     OW18947  10.154   1.669   4.804 -0.4674 -0.1382 -0.3206
33652SOL    HW118948  10.177   1.752   4.762  1.1412  0.0092  0.7419
33652SOL    HW218949  10.104   1.621   4.738 -2.2327  2.0131 -0.6462
33653SOL     OW18950   1.319   4.229   7.740 -0.9718 -0.0089  0.7402
33653SOL    HW118951   1.242   4.172   7.733 -0.6863 -0.2695 -0.4771
33653SOL    HW218952   1.301   4.285   7.816 -2.3118 -0.1389  0.5360
33654SOL     OW18953   3.237  10.527   5.880  0.3857  0.3554  0.0841
33654SOL    HW118954   3.202  10.600   5.828  0.9252  1.5777  1.3813
33654SOL    HW218955   3.328  10.520   5.854  0.0955 -0.5360 -0.7551
33655SOL     OW18956  11.081   1.290  10.170  0.3453 -1.5250 -0.2364
33655SOL    HW118957  11.140   1.308  10.097 -1.0030 -0.9967 -1.2428
33655SOL    HW218958  11.055   1.199  10.159 -0.3422 -1.2713 -0.8095
33656SOL     OW18959   1.569  11.593   1.359  0.0696 -0.0722 -0.1077
33656SOL    HW118960   1.516  11.568   1.435 -0.0118  1.1535  0.2714
33656SOL    HW218961   1.628  11.520   1.344 -1.5372 -1.3732 -0.3637
33657SOL     OW18962   4.187  11.216   0.215  0.2702  0.3588  0.5340
33657SOL    HW118963   4.166  11.189   0.305 -0.1712 -1.0142  0.0407
33657SOL    HW218964   4.110  11.192   0.164  0.7742  0.5281 -0.3271
33658SOL     OW18965   4.911   0.129   8.777 -0.1296 -0.4582  0.2701
33658SOL    HW118966   4.863   0.048   8.758 -0.1346 -0.1946 -0.9611
33658SOL    HW218967   4.870   0.164   8.856 -2.4953  0.1063 -1.1051
33659SOL     OW18968   9.902  12.558   4.055 -0.1431  0.6407  0.5440
33659SOL    HW118969   9.859  12.625   4.002 -0.8752  0.0189  0.3420
33659SOL    HW218970   9.842  12.484   4.055  0.7525 -0.1110  0.5816
33660SOL     OW18971  11.158  13.490   9.527  0.1154  0.1035 -0.2837
33660SOL    HW118972  11.143  13.577   9.492  0.7264  0.0276 -0.7562
33660SOL    HW218973  11.201  13.504   9.611 -1.9632  0.3056  0.8082
33661SOL     OW18974  11.825   8.273  10.975 -0.3155  0.4683  0.5246
33661SOL    HW118975  11.850   8.364  10.957 -1.2251  0.6201 -0.0165
33661SOL    HW218976  11.808   8.272  11.069  0.4649  0.6586  0.6827
33662SOL     OW18977   4.954   7.866  13.358  0.4749 -0.3077 -0.2941
33662SOL    HW118978   4.889   7.804  13.325 -2.0402  0.8869  2.0142
33662SOL    HW218979   5.004   7.816  13.423  0.4222 -0.6573 -0.5182
33663SOL     OW18980   9.764   4.295   6.168  0.5904  0.1003 -0.3820
33663SOL    HW118981   9.844   4.270   6.215  1.7820  1.2227 -1.7259
33663SOL    HW218982   9.733   4.213   6.128  1.0599 -0.3443  0.1465
33664SOL     OW18983   3.779   1.742   7.567 -0.3502  0.4774 -0.3678
33664SOL    HW118984   3.802   1.655   7.600  1.7130  1.7710  1.9481
33664SOL    HW218985   3.689   1.756   7.594  0.0020 -0.1243  1.1849
33665SOL     OW18986   3.390   0.051  12.554  0.3207  0.1545  0.0749
33665SOL    HW118987   3.378   0.107  12.478 -0.9444  0.0564  0.1848
33665SOL    HW218988   3.354   0.101  12.628  1.3628  0.1731  0.5948
33666SOL     OW18989   9.651   3.290  12.021 -0.5485 -0.3664 -0.2175
33666SOL    HW118990   9.703   3.227  11.971 -0.4247 -0.6964  0.3183
33666SOL    HW218991   9.561   3.259  12.011 -0.7382  0.5352 -1.6272
33667SOL     OW18992  13.854   4.568   5.586  0.3731 -0.0365 -0.1853
33667SOL    HW118993  13.804   4.604   5.660 -2.3030 -1.9728 -0.9077
33667SOL    HW218994  13.799   4.585   5.510  2.1525  0.1372 -1.4748
33668SOL     OW18995  12.001  10.627  11.975 -0.0703 -0.5148 -0.1198
33668SOL    HW118996  11.976  10.569  12.047 -2.5938 -2.2750 -2.2502
33668SOL    HW218997  11.966  10.713  12.001  0.4386 -0.7214  1.3937
33669SOL     OW18998   5.189   0.927  11.012 -0.6679 -0.1473  0.5327
33669SOL    HW118999   5.097   0.920  10.987 -1.3611  1.9048  2.2111
33669SOL    HW219000   5.232   0.856  10.965 -3.0762 -1.1074 -0.3804
33670SOL     OW19001  12.282   1.062   6.264  0.4558 -0.0847 -0.1504
33670SOL    HW119002  12.226   1.010   6.206 -1.3650  2.8247 -1.2398
33670SOL    HW219003  12.353   1.092   6.207 -0.3093  1.2437 -0.4405
33671SOL     OW19004   2.757  12.305   5.290 -0.4827 -0.1637 -0.0079
33671SOL    HW119005   2.704  12.277   5.215  1.1197  0.4422 -1.4075
33671SOL    HW219006   2.843  12.265   5.276 -0.2256 -0.3250  1.7125
33672SOL     OW19007  14.072  11.388   1.300  0.6252 -0.3107 -0.2733
33672SOL    HW119008  14.147  11.398   1.359  0.1442  0.7125  0.1981
33672SOL    HW219009  14.035  11.476   1.294 -1.2251 -1.0056  0.4177
33673SOL     OW19010   0.486   8.952   2.728  0.4680  0.0050  0.5046
33673SOL    HW119011   0.581   8.950   2.719  0.3809  0.9059 -0.9089
33673SOL    HW219012   0.456   8.877   2.676  0.4140 -0.8286  1.6833
33674SOL     OW19013   5.576   2.456   2.130  0.0558  0.2604 -0.1503
33674SOL    HW119014   5.629   2.456   2.051  1.6383 -2.5234  0.7534
33674SOL    HW219015   5.636   2.486   2.199  0.2354 -1.9500  0.7234
33675SOL     OW19016   7.030   5.125   6.311 -0.3236 -0.2292 -0.2509
33675SOL    HW119017   7.023   5.184   6.236  0.3313  0.4459  0.2030
33675SOL    HW219018   6.949   5.139   6.360  0.6904  1.8707  0.9494
33676SOL     OW19019   3.445   5.157   5.223  0.3129 -0.2180  0.6043
33676SOL    HW119020   3.391   5.109   5.160 -1.0986 -0.3714  1.8544
33676SOL    HW219021   3.387   5.225   5.257  1.6452  1.0890  0.3549
33677SOL     OW19022   3.482  13.544   7.103 -0.4340 -0.0324 -0.4029
33677SOL    HW119023   3.555  13.507   7.153 -0.1940 -1.5002 -1.7744
33677SOL    HW219024   3.502  13.637   7.095  0.5410 -0.1578  0.4743
33678SOL     OW19025   7.721   7.085   2.679 -0.5296  0.0168 -0.6122
33678SOL    HW119026   7.690   7.152   2.618 -1.7749 -0.5214 -0.5984
33678SOL    HW219027   7.681   7.004   2.649 -1.5586 -0.1919  1.1497
33679SOL     OW19028   9.279   2.536   1.946 -0.2928  0.9501 -0.5687
33679SOL    HW119029   9.277   2.532   1.851  2.0328  1.8834 -0.7341
33679SOL    HW219030   9.370   2.557   1.967 -0.7813  0.9594  1.8592
33680SOL     OW19031  13.689  12.548  10.020  0.1200  0.5213  0.1186
33680SOL    HW119032  13.676  12.516  10.109 -0.6831 -0.3556 -0.2931
33680SOL    HW219033  13.781  12.532  10.002  0.1513  0.1530  0.5848
33681SOL     OW19034  13.871  11.245   7.913 -0.1288  0.5475  0.4648
33681SOL    HW119035  13.881  11.248   7.818  0.8186  0.1549  0.5480
33681SOL    HW219036  13.843  11.334   7.937  0.4062  0.8752 -0.0968
33682SOL     OW19037   5.559   1.526   4.984 -0.2027  0.1580 -0.2462
33682SOL    HW119038   5.564   1.560   5.073 -0.4000  2.7427 -1.1578
33682SOL    HW219039   5.650   1.506   4.961  0.0391  0.8782  0.0461
33683SOL     OW19040   3.961   7.620   9.120 -0.1028  0.4581 -0.4328
33683SOL    HW119041   3.927   7.706   9.143 -0.4466  1.0659 -2.8702
33683SOL    HW219042   4.022   7.637   9.047  0.3539 -1.2846 -0.5055
33684SOL     OW19043  11.777   0.988   1.332 -0.4769  0.2115 -0.2127
33684SOL    HW119044  11.691   0.946   1.335  0.7106 -2.3884 -0.0711
33684SOL    HW219045  11.774   1.055   1.400 -2.0215 -0.6025  0.5738
33685SOL     OW19046   2.818  13.327   6.046 -0.0505 -0.6742 -0.1389
33685SOL    HW119047   2.787  13.308   5.957  0.5842  2.9311 -1.2873
33685SOL    HW219048   2.739  13.352   6.094 -0.1305 -0.5377 -0.3391
33686SOL     OW19049   4.921  12.724   5.574  0.4695 -0.3302 -0.2097
33686SOL    HW119050   4.948  12.670   5.499 -1.1351 -0.3357 -0.8068
33686SOL    HW219051   4.842  12.681   5.607  0.3919  0.4533  0.6484
33687SOL     OW19052   1.634   6.521   9.921 -0.1306 -0.7884  0.7515
33687SOL    HW119053   1.634   6.432   9.886 -0.5021 -0.4810 -0.0590
33687SOL    HW219054   1.603   6.575   9.848  1.7184  0.2345  0.6443
33688SOL     OW19055  13.878  12.390   4.497 -0.0959 -0.2017 -0.0852
33688SOL    HW119056  13.913  12.458   4.439 -0.2274 -1.0007 -1.1268
33688SOL    HW219057  13.819  12.437   4.555 -0.5264  0.5273 -1.0758
33689SOL     OW19058   5.191   1.772  12.409 -0.3731  0.3437 -0.3086
33689SOL    HW119059   5.256   1.801  12.473 -1.3660 -0.6717  1.2477
33689SOL    HW219060   5.170   1.850  12.358 -1.4246  1.9005  2.3238
33690SOL     OW19061   1.683   9.403  13.655  0.0822 -0.2035 -0.1125
33690SOL    HW119062   1.637   9.438  13.731 -3.0345 -0.6484 -1.6320
33690SOL    HW219063   1.633   9.435  13.580  1.5607 -1.7897 -1.8793
33691SOL     OW19064   0.507   7.540   6.964 -0.1022  0.2168  0.5072
33691SOL    HW119065   0.507   7.502   7.052 -0.7362 -1.6006 -0.2306
33691SOL    HW219066   0.415   7.554   6.944 -0.0115 -0.0207 -0.1122
33692SOL     OW19067   0.347  11.479   7.415 -0.0487 -0.0032  0.5229
33692SOL    HW119068   0.254  11.456   7.419 -0.5396  1.1157 -2.2458
33692SOL    HW219069   0.392  11.394   7.415 -1.2018 -0.6447  0.0096
33693SOL     OW19070  12.617   0.862   7.107 -0.5756  0.8971 -0.3561
33693SOL    HW119071  12.661   0.894   7.186 -1.6028 -0.4464  0.8405
33693SOL    HW219072  12.664   0.781   7.085 -0.8489  0.7970 -0.5756
33694SOL     OW19073   1.559  10.813   9.871  0.6357 -0.1403 -0.1220
33694SOL    HW119074   1.635  10.872   9.879  2.2166 -2.0431 -0.2265
33694SOL    HW219075   1.595  10.733   9.832 -1.3902 -1.2262  0.1060
33695SOL     OW19076   2.117   4.938   5.171 -0.3174 -0.1634  0.5154
33695SOL    HW119077   2.205   4.964   5.197 -0.0898  2.4175 -2.2125
33695SOL    HW219078   2.127   4.849   5.138  0.8396 -0.6066  1.9512
33696SOL     OW19079  11.164   4.560   7.630 -0.0652  0.0337  0.5842
33696SOL    HW119080  11.208   4.532   7.711 -1.4887 -0.8667  1.0837
33696SOL    HW219081  11.163   4.656   7.636 -0.6322 -0.0354  1.9208
33697SOL     OW19082  13.728  10.944   0.893  0.7572  0.3021  0.1197
33697SOL    HW119083  13.732  10.848   0.896  0.2376  0.2993  0.9038
33697SOL    HW219084  13.764  10.967   0.807  1.9850 -0.5294  0.3850
33698SOL     OW19085  13.357  10.621   2.526 -0.5442  0.2732 -0.6314
33698SOL    HW119086  13.387  10.712   2.523 -2.7720  1.0493 -2.8965
33698SOL    HW219087  13.311  10.608   2.443 -1.3261 -2.5662  0.1367
33699SOL     OW19088   3.669  12.112   6.410 -0.0179  0.0208 -0.0776
33699SOL    HW119089   3.608  12.085   6.341  0.1664  0.1310 -0.2869
33699SOL    HW219090   3.755  12.109   6.368  0.0006  0.9690 -0.1191
33700SOL     OW19091   3.924  13.013   1.165  0.4596  0.3277  0.1975
33700SOL    HW119092   4.006  12.971   1.191  0.3974  0.5055  0.6698
33700SOL    HW219093   3.917  12.994   1.071  1.5426  1.1555 -0.0770
33701SOL     OW19094   4.154   3.820   5.074  0.4766 -0.2222 -0.3565
33701SOL    HW119095   4.155   3.728   5.047  1.3501  0.1512 -1.7096
33701SOL    HW219096   4.152   3.817   5.169  0.4844 -1.6492 -0.3803
33702SOL     OW19097   5.999   1.343   1.916 -0.0070  0.2865 -0.3436
33702SOL    HW119098   6.020   1.385   2.000 -0.1273 -0.2905 -0.0212
33702SOL    HW219099   5.903   1.345   1.912  0.0199  1.2133 -0.9401
33703SOL     OW19100   5.358   3.241   6.846  0.0167 -0.1902  0.1437
33703SOL    HW119101   5.405   3.271   6.768  0.5764  1.0672  0.9243
33703SOL    HW219102   5.387   3.150   6.858  1.4165  0.2015 -0.0357
33704SOL     OW19103  11.121   4.003   0.688 -0.3023  0.3609  0.0882
33704SOL    HW119104  11.076   4.087   0.677 -1.1688  0.2018  1.9859
33704SOL    HW219105  11.076   3.962   0.762  1.5551 -0.8148  0.6132
33705SOL     OW19106   8.569   7.277   9.627 -0.0251  0.5140 -0.1584
33705SOL    HW119107   8.638   7.335   9.659 -0.0814  0.0611  0.8257
33705SOL    HW219108   8.611   7.225   9.558  0.9198 -0.4516  1.1137
33706SOL     OW19109   9.255   0.927   5.556  0.1757  0.3707  0.4938
33706SOL    HW119110   9.329   0.889   5.603  1.3004 -0.4858 -1.8206
33706SOL    HW219111   9.184   0.864   5.568  0.6168 -0.1222  0.5599
33707SOL     OW19112   1.770   6.086   3.838  0.1284  0.3777  0.2852
33707SOL    HW119113   1.677   6.082   3.861  0.2602  1.0567  0.9784
33707SOL    HW219114   1.771   6.081   3.742 -0.6627  0.8483  0.2434
33708SOL     OW19115  14.070   4.321  13.594  0.2733 -0.3984 -0.9477
33708SOL    HW119116  14.077   4.333  13.499  2.3259  0.3506 -0.7491
33708SOL    HW219117  14.047   4.407  13.628 -0.4517 -0.6625 -0.7631
33709SOL     OW19118   2.072   7.377   7.617 -0.4804 -0.8498 -0.3947
33709SOL    HW119119   2.085   7.291   7.575  2.7991 -0.8328  0.3043
33709SOL    HW219120   2.117   7.438   7.559 -2.4058  0.4079 -0.6453
33710SOL     OW19121   4.309   1.093  10.123 -0.6615  0.4577  0.5665
33710SOL    HW119122   4.323   1.055  10.036  0.5903  1.6355  0.2361
33710SOL    HW219123   4.397   1.108  10.157 -1.0098  3.6766  0.3760
33711SOL     OW19124   6.138   9.169  11.483 -0.1795 -0.1061  0.7760
33711SOL    HW119125   6.165   9.145  11.394  0.4234 -0.1770  0.9773
33711SOL    HW219126   6.043   9.153  11.484 -0.2635  0.2845  0.0213
33712SOL     OW19127  11.709   3.320  13.895 -0.0533  0.1983 -0.5222
33712SOL    HW119128  11.676   3.234  13.921  0.7772  0.7667  2.7898
33712SOL    HW219129  11.800   3.320  13.923 -0.0334  2.1422 -0.4943
33713SOL     OW19130   1.745   3.337   0.114  0.0105 -0.5556 -0.1627
33713SOL    HW119131   1.765   3.376   0.199 -2.5466 -1.2664  0.8446
33713SOL    HW219132   1.726   3.411   0.057  0.1113 -0.1327  0.3457
33714SOL     OW19133  12.646   6.548   2.236 -0.2906 -0.2371 -0.0668
33714SOL    HW119134  12.567   6.594   2.206 -1.0198 -0.4898  1.3694
33714SOL    HW219135  12.684   6.606   2.302 -0.5405 -1.1121  0.8762
33715SOL     OW19136   6.528   9.636  10.390  0.2589 -0.3185 -0.8011
33715SOL    HW119137   6.582   9.699  10.437 -1.2438  0.4125  0.0009
33715SOL    HW219138   6.575   9.621  10.308  1.3277  0.7914 -0.4219
33716SOL     OW19139   4.826  11.002   1.135  0.7349 -0.1399  0.1332
33716SOL    HW119140   4.773  11.057   1.077  1.0933  2.4250  2.0615
33716SOL    HW219141   4.825  11.048   1.219  1.1759 -3.0929  1.8910
33717SOL     OW19142   2.821   0.217   0.646  0.0668  0.0933 -0.4205
33717SOL    HW119143   2.782   0.302   0.628  1.5418  0.5800 -1.4791
33717SOL    HW219144   2.876   0.198   0.569  0.5628 -1.3311  0.2427
33718SOL     OW19145   1.746  10.205   4.892 -0.3642 -0.0846  0.3159
33718SOL    HW119146   1.767  10.297   4.908 -2.1277  0.2212  1.1239
33718SOL    HW219147   1.661  10.207   4.849  0.2498 -1.3190 -1.0625
33719SOL     OW19148   1.369   8.319  13.728  0.0373 -0.1575 -0.7021
33719SOL    HW119149   1.394   8.236  13.769 -0.6288 -0.9389 -1.8309
33719SOL    HW219150   1.274   8.325  13.743  0.0406  0.2802 -0.8399
33720SOL     OW19151  10.064   4.476  10.745 -0.4964 -0.3864  0.1727
33720SOL    HW119152  10.030   4.531  10.674 -0.0220 -0.3286 -0.0161
33720SOL    HW219153  10.132   4.529  10.787 -1.6460  0.0883  1.5085
33721SOL     OW19154   1.639   0.840   1.961  0.6107 -0.1747 -0.4854
33721SOL    HW119155   1.632   0.838   2.057 -2.5638 -0.5455 -0.6164
33721SOL    HW219156   1.676   0.755   1.937  1.3397 -0.1163  0.3868
33722SOL     OW19157   2.975   9.065  12.495 -0.0384  0.1211  0.1630
33722SOL    HW119158   3.054   9.069  12.549  0.6752 -0.3812 -0.8142
33722SOL    HW219159   2.915   9.127  12.537  0.9017  0.5819  0.8809
33723SOL     OW19160   3.765   5.951  12.793 -0.4690  0.1007 -0.1377
33723SOL    HW119161   3.806   5.958  12.879 -2.0110 -2.6314  0.9620
33723SOL    HW219162   3.675   5.983  12.806 -0.7179 -0.3390 -0.6996
33724SOL     OW19163  11.443   0.814  10.398 -0.1500 -0.2578  0.7340
33724SOL    HW119164  11.453   0.745  10.463  0.2497 -0.4802  0.4416
33724SOL    HW219165  11.531   0.830  10.366 -0.5220 -1.3885 -1.0045
33725SOL     OW19166   3.329   0.727  13.000 -0.1265 -0.1706  0.6597
33725SOL    HW119167   3.267   0.777  12.948 -0.4753 -0.7126  0.5448
33725SOL    HW219168   3.415   0.763  12.976  0.0402 -2.2844 -2.5640
33726SOL     OW19169  11.505   8.832   2.587  0.5567 -0.2440  0.1208
33726SOL    HW119170  11.438   8.786   2.537  0.0579  0.3827  0.2053
33726SOL    HW219171  11.532   8.904   2.530  2.4305 -1.4863 -0.6580
33727SOL     OW19172   0.513   9.223   8.790 -0.0031 -0.2887  0.0901
33727SOL    HW119173   0.472   9.186   8.711 -0.2188 -1.5464  0.7588
33727SOL    HW219174   0.545   9.309   8.762  1.6481 -1.4684 -1.9079
33728SOL     OW19175   1.786   8.177  13.597 -0.2110 -0.4520  0.2120
33728SOL    HW119176   1.758   8.148  13.684 -0.8550  1.4864  0.7138
33728SOL    HW219177   1.873   8.216  13.611 -0.7597  0.8330  0.2494
33729SOL     OW19178  12.485  11.365   7.859 -0.1149 -0.0822 -0.3210
33729SOL    HW119179  12.542  11.416   7.802  1.9008 -0.0146  1.6437
33729SOL    HW219180  12.497  11.274   7.830 -2.1840  0.2475 -2.5115
33730SOL     OW19181  10.761   6.903  10.203 -0.7124 -0.4762 -0.8527
33730SOL    HW119182  10.783   6.988  10.241 -1.5137 -0.6959  0.1418
33730SOL    HW219183  10.826   6.890  10.135 -0.5647  0.9295 -1.0164
33731SOL     OW19184   6.874   8.980  10.309  0.0996 -0.3572 -0.0470
33731SOL    HW119185   6.786   9.016  10.320  0.5264  0.8690 -0.4606
33731SOL    HW219186   6.928   9.056  10.287  0.9960 -1.2965 -1.2086
33732SOL     OW19187   6.103   1.961   3.244  0.3686  0.3042  0.4531
33732SOL    HW119188   6.168   1.901   3.208  0.6896  0.8144  0.1712
33732SOL    HW219189   6.095   2.030   3.179  0.0711  0.6178  0.8154
33733SOL     OW19190   0.908   9.437   3.942 -0.3253 -0.2878  0.1508
33733SOL    HW119191   0.832   9.486   3.974  0.5335  1.7545 -0.7795
33733SOL    HW219192   0.983   9.490   3.967  0.5425 -0.0245 -2.6542
33734SOL     OW19193  10.090   2.880   5.575 -0.0461  0.1892  0.5066
33734SOL    HW119194  10.179   2.908   5.555  0.8970 -2.8695 -0.2468
33734SOL    HW219195  10.090   2.865   5.670  0.5217 -0.5668  0.3955
33735SOL     OW19196   2.440   8.169   0.701 -0.3709 -0.7586 -0.0961
33735SOL    HW119197   2.365   8.113   0.720 -1.7945  1.4938  1.4760
33735SOL    HW219198   2.425   8.200   0.611 -0.2528 -1.8225 -0.4952
33736SOL     OW19199  10.605   2.299  11.820  0.1922  0.6609 -0.6566
33736SOL    HW119200  10.573   2.241  11.889  0.1955 -0.1931 -1.3603
33736SOL    HW219201  10.535   2.300  11.755  1.4400 -1.0987 -2.1453
33737SOL     OW19202   2.620   1.242  11.693 -0.1295 -0.3260 -0.4751
33737SOL    HW119203   2.642   1.167  11.637  2.3675 -0.3741  0.4360
33737SOL    HW219204   2.536   1.218  11.733  0.1164 -2.2061 -0.9700
33738SOL     OW19205  11.270  11.492  12.783  0.0576  0.2446 -0.4795
33738SOL    HW119206  11.330  11.442  12.728  0.5912 -0.8733  1.0738
33738SOL    HW219207  11.214  11.426  12.824  0.8296  0.8586  1.6772
33739SOL     OW19208   1.776   0.844  12.922 -0.3896  0.5058  0.2371
33739SOL    HW119209   1.870   0.855  12.933  0.0657 -2.3499 -0.0857
33739SOL    HW219210   1.744   0.930  12.894  2.1180  1.4939  0.2320
33740SOL     OW19211   1.946   1.309   8.809  0.1025  0.1327  0.0335
33740SOL    HW119212   1.997   1.347   8.880  1.3788 -0.6526 -0.4122
33740SOL    HW219213   2.009   1.253   8.762 -1.5337 -2.1997  0.4215
33741SOL     OW19214   6.834   5.389  10.408  0.7076  0.1955  0.1210
33741SOL    HW119215   6.782   5.450  10.356 -1.5691 -1.3330  0.4752
33741SOL    HW219216   6.923   5.400  10.375 -0.0238  1.9476 -1.4832
33742SOL     OW19217  13.678   7.844   7.948 -0.4171 -0.2183  0.0816
33742SOL    HW119218  13.733   7.882   7.879 -1.4206  1.8454  0.3230
33742SOL    HW219219  13.620   7.915   7.973  1.9650  0.3364  5.3843
33743SOL     OW19220   8.015  10.801   9.264  0.3065  0.0114  0.3103
33743SOL    HW119221   7.989  10.714   9.295  1.3724 -0.2019  0.6470
33743SOL    HW219222   7.937  10.855   9.276  0.1489 -0.4878  1.7372
33744SOL     OW19223   7.926  12.137   5.184  0.3480 -0.2169  0.4515
33744SOL    HW119224   7.958  12.192   5.255  1.2559 -3.1860  2.5439
33744SOL    HW219225   7.831  12.140   5.193  0.3138  1.6431 -0.0878
33745SOL     OW19226   8.487   6.617   1.470  0.0638  0.6548  0.0380
33745SOL    HW119227   8.445   6.583   1.391 -0.0565 -1.8222  1.0960
33745SOL    HW219228   8.416   6.625   1.534  0.5078  0.5562  0.5525
33746SOL     OW19229   9.672   1.737   8.675 -0.0382  0.0190 -0.4917
33746SOL    HW119230   9.716   1.807   8.626 -1.2031  0.5671 -0.7966
33746SOL    HW219231   9.582   1.768   8.684 -0.5631 -1.4440 -0.5843
33747SOL     OW19232  10.212  11.945   2.464 -0.2502  0.5042 -0.4951
33747SOL    HW119233  10.304  11.969   2.452 -0.0696  0.6112  0.8763
33747SOL    HW219234  10.162  12.021   2.435  0.1448  0.8851 -0.1805
33748SOL     OW19235   2.297   5.463   5.920  0.0418  0.9888 -0.0237
33748SOL    HW119236   2.214   5.444   5.876  0.3078  1.2492 -0.6505
33748SOL    HW219237   2.329   5.377   5.948  0.4591  0.6695 -1.4239
33749SOL     OW19238   4.512  14.144  12.989 -0.2786  0.1450  0.1692
33749SOL    HW119239   4.483  14.065  12.943  1.6133 -0.4115 -0.1679
33749SOL    HW219240   4.558  14.195  12.922  0.7064  0.3093  0.9508
33750SOL     OW19241  13.924   6.972  11.428 -0.2898  0.2606 -1.0841
33750SOL    HW119242  13.850   7.013  11.473 -0.9976 -0.0919 -1.8885
33750SOL    HW219243  13.939   7.028  11.352 -1.5211 -1.1223 -2.4166
33751SOL     OW19244   6.441   4.400   9.826  0.1967 -0.5833 -0.1120
33751SOL    HW119245   6.500   4.336   9.865  0.4159 -1.0668 -1.2087
33751SOL    HW219246   6.353   4.363   9.839  0.3908 -1.7790 -1.8615
33752SOL     OW19247   7.785   4.239  13.994 -0.2613 -0.3159 -0.5077
33752SOL    HW119248   7.764   4.152  13.959 -0.7315 -0.0280 -0.9550
33752SOL    HW219249   7.700   4.277  14.015 -0.1180  0.3596 -1.0978
33753SOL     OW19250   5.221   4.279  11.782 -0.4261  0.8002  0.5240
33753SOL    HW119251   5.177   4.355  11.746 -2.5061 -0.5468 -0.0035
33753SOL    HW219252   5.279   4.314  11.850 -0.3856  2.9107 -0.5299
33754SOL     OW19253  11.731   6.768  11.131 -0.1965  0.2530 -0.1336
33754SOL    HW119254  11.818   6.761  11.093  0.3103  0.4192  0.9530
33754SOL    HW219255  11.731   6.706  11.203 -0.6666  0.8952  0.4354
33755SOL     OW19256   5.893   7.316  10.025  0.2848  0.0214 -0.6500
33755SOL    HW119257   5.884   7.338  10.118  1.8220 -2.0484  0.0554
33755SOL    HW219258   5.965   7.373   9.995  0.2483  0.2068 -0.3980
33756SOL     OW19259  13.392   1.366   5.359 -0.7198  0.2373 -0.1960
33756SOL    HW119260  13.393   1.430   5.430 -0.2376  1.7274 -1.4884
33756SOL    HW219261  13.451   1.403   5.293 -2.6002 -0.1241 -2.1872
33757SOL     OW19262   8.867   4.804   0.572 -0.3776 -0.6048  0.3627
33757SOL    HW119263   8.817   4.784   0.493 -0.8276 -1.6386  0.8812
33757SOL    HW219264   8.808   4.780   0.644 -0.2522  0.9883  1.0305
33758SOL     OW19265   0.756   2.538  12.478 -0.0547  0.0146  0.6874
33758SOL    HW119266   0.836   2.589  12.485 -0.2582  0.1380  2.4115
33758SOL    HW219267   0.775   2.473  12.410 -0.1384  2.8802 -2.3434
33759SOL     OW19268  10.448  10.087   6.582 -0.0196  0.2376 -0.1499
33759SOL    HW119269  10.501  10.167   6.579  1.9091 -0.9277  0.7439
33759SOL    HW219270  10.508  10.017   6.555  0.5563 -1.8890  5.3872
33760SOL     OW19271   2.491  10.376  12.973  0.4252 -0.8037 -0.1772
33760SOL    HW119272   2.433  10.426  13.030  1.5186 -1.4385  1.5916
33760SOL    HW219273   2.530  10.441  12.915 -1.0379 -0.1968 -0.5245
33761SOL     OW19274   8.081  11.270   4.331  0.1461  0.0986 -0.2186
33761SOL    HW119275   8.046  11.199   4.276 -1.2177  0.0238  0.6966
33761SOL    HW219276   8.075  11.348   4.277  1.5878 -0.4239 -1.2122
33762SOL     OW19277   7.422   3.297   7.343 -0.1752  0.1905 -0.3043
33762SOL    HW119278   7.505   3.265   7.379  0.4412  0.0902 -1.7223
33762SOL    HW219279   7.411   3.384   7.381 -1.4981 -1.2663  3.0224
33763SOL     OW19280  12.563  10.439   3.867 -0.4296  0.1321  0.1474
33763SOL    HW119281  12.524  10.376   3.928  0.9912  0.2194  1.2003
33763SOL    HW219282  12.641  10.395   3.834 -1.0008  0.2205 -1.3903
33764SOL     OW19283  11.231   5.971   1.803  0.4616 -0.2198 -0.1574
33764SOL    HW119284  11.182   5.905   1.851  1.6925 -0.5359  0.6974
33764SOL    HW219285  11.191   5.972   1.716  0.7753 -2.5137 -0.3823
33765SOL     OW19286   8.604   1.022   2.396 -0.4758  0.1368  0.5540
33765SOL    HW119287   8.626   0.977   2.478  1.1113  1.0006  0.6569
33765SOL    HW219288   8.613   0.954   2.329 -1.5108 -0.5079  1.0457
33766SOL     OW19289   3.227   0.702   0.647  0.1097  0.2227  0.3019
33766SOL    HW119290   3.153   0.648   0.619  0.5088  0.1609 -0.6741
33766SOL    HW219291   3.208   0.725   0.738 -0.4201 -0.9546  0.4962
33767SOL     OW19292   1.825   8.425  11.365 -0.4057  0.1630  0.1850
33767SOL    HW119293   1.784   8.511  11.373 -0.8753 -0.1915  1.9245
33767SOL    HW219294   1.757   8.364  11.391 -0.4011 -0.8536 -2.0086
33768SOL     OW19295   2.205   7.826   6.594  0.2360  0.2687 -0.5380
33768SOL    HW119296   2.177   7.894   6.655 -2.8908  0.9613 -2.5435
33768SOL    HW219297   2.260   7.872   6.530 -1.8822  1.0721 -1.8972
33769SOL     OW19298  10.828   1.808   7.532  0.7895  0.3385  0.4378
33769SOL    HW119299  10.801   1.899   7.520  1.0883  0.5930  1.5470
33769SOL    HW219300  10.746   1.758   7.529  0.6993  0.5361 -0.9319
33770SOL     OW19301   4.200   3.683   3.167 -0.0260  0.5028  0.2681
33770SOL    HW119302   4.110   3.712   3.181  0.4990  2.4012 -0.0786
33770SOL    HW219303   4.232   3.663   3.256 -0.0529  2.1576  0.6729
33771SOL     OW19304   7.007   4.993   6.627 -0.0847 -0.5547 -0.1808
33771SOL    HW119305   7.003   4.920   6.566 -1.5655 -0.4667 -0.2170
33771SOL    HW219306   6.950   5.060   6.590 -0.5866 -0.2895  1.0146
33772SOL     OW19307   2.435   6.172  14.068 -0.2175  0.1208 -0.0502
33772SOL    HW119308   2.440   6.260  14.105  1.0358  0.6661 -1.3982
33772SOL    HW219309   2.400   6.185  13.980 -2.9345 -1.1162  0.7173
33773SOL     OW19310   0.435   3.665  11.668 -0.4965 -0.4840 -0.6412
33773SOL    HW119311   0.488   3.642  11.744 -1.6722  2.6033  1.2867
33773SOL    HW219312   0.347   3.681  11.703 -1.2718  0.3117 -2.7562
33774SOL     OW19313   2.463   9.999  13.951  0.1360 -0.3099  0.5412
33774SOL    HW119314   2.537   9.973  13.896  0.1770 -0.7178  0.7875
33774SOL    HW219315   2.390  10.007  13.889  0.6506  1.3099  0.1019
33775SOL     OW19316   8.407   0.539   7.638  0.0088 -0.2230  0.1821
33775SOL    HW119317   8.378   0.564   7.550  0.3276 -1.4227 -0.2931
33775SOL    HW219318   8.502   0.537   7.633  0.0127 -1.0421  0.3152
33776SOL     OW19319  13.086  10.973   2.643  0.5615 -0.3785 -0.2716
33776SOL    HW119320  13.118  10.985   2.733 -0.6143 -0.8301  0.2269
33776SOL    HW219321  13.148  10.912   2.603  0.3919 -1.1691  0.6453
33777SOL     OW19322  10.687  10.924   3.227 -0.0213 -0.0936  0.1264
33777SOL    HW119323  10.697  10.834   3.260  0.8016  0.2713  0.9119
33777SOL    HW219324  10.720  10.921   3.137  0.2112 -0.5312  0.2235
33778SOL     OW19325   5.252  12.380   5.863  0.1956 -0.7230  0.7699
33778SOL    HW119326   5.262  12.414   5.952 -0.5028 -0.4186  0.7407
33778SOL    HW219327   5.190  12.441   5.821  0.5922 -0.8079  0.0484
33779SOL     OW19328   6.159  10.135   7.479 -0.2895 -0.0729  0.4567
33779SOL    HW119329   6.219  10.060   7.481 -0.2661 -0.1279 -0.9424
33779SOL    HW219330   6.211  10.206   7.440 -0.9024  0.0904 -0.0741
33780SOL     OW19331  11.996   8.966  11.448 -0.9780  0.3736 -0.2363
33780SOL    HW119332  11.961   9.049  11.480  1.2680  1.3133 -0.0665
33780SOL    HW219333  12.084   8.961  11.484 -0.3124 -1.1234 -1.8874
33781SOL     OW19334  13.034  12.403   4.304 -0.6849  0.1921  0.0063
33781SOL    HW119335  13.076  12.329   4.347 -0.3361 -0.0489 -0.7298
33781SOL    HW219336  13.092  12.425   4.231 -1.4384  0.3492 -0.5647
33782SOL     OW19337   4.157  10.441   8.895 -0.1032  0.6472 -0.3147
33782SOL    HW119338   4.185  10.355   8.925 -1.6013  0.7396  1.5490
33782SOL    HW219339   4.238  10.489   8.879  0.7658 -0.4113  0.7705
33783SOL     OW19340   1.260   1.890   5.529 -0.3108 -0.2970 -0.0854
33783SOL    HW119341   1.292   1.810   5.486 -1.1953 -1.2807  1.0379
33783SOL    HW219342   1.170   1.870   5.554 -0.4347  0.9314  0.5297
33784SOL     OW19343   2.141   4.800   7.178 -0.0633 -0.0120  0.0153
33784SOL    HW119344   2.134   4.821   7.271 -1.0726 -2.1716  0.4773
33784SOL    HW219345   2.234   4.780   7.165  0.4350  1.9530  0.0977
33785SOL     OW19346   8.422   5.478  12.250 -0.5088  0.3243  0.1929
33785SOL    HW119347   8.349   5.423  12.222 -0.5142  0.7203 -0.6057
33785SOL    HW219348   8.493   5.416  12.268 -0.7602  0.0019  0.0851
33786SOL     OW19349   9.716   7.533  10.951  0.1212 -0.7653  0.7059
33786SOL    HW119350   9.805   7.569  10.950 -0.4361  0.7129  0.9796
33786SOL    HW219351   9.660   7.610  10.942 -1.1220 -1.8057 -0.8834
33787SOL     OW19352   8.225   6.310  13.493 -0.6451 -0.0815  0.6669
33787SOL    HW119353   8.313   6.330  13.524 -0.4915 -1.5457  1.2435
33787SOL    HW219354   8.219   6.354  13.408 -0.0609  1.6093  1.4459
33788SOL     OW19355   7.609   7.299   2.559 -0.4896  0.4846 -0.5143
33788SOL    HW119356   7.549   7.320   2.487 -0.2565  2.0629 -0.2861
33788SOL    HW219357   7.574   7.346   2.634  0.9834  1.4110 -0.3637
33789SOL     OW19358  13.664   5.495   6.326 -0.1809  0.3811 -0.2205
33789SOL    HW119359  13.608   5.536   6.260  0.1882  0.4742 -0.4759
33789SOL    HW219360  13.642   5.539   6.407 -0.4019  0.4913 -0.3399
33790SOL     OW19361   4.478   7.273  14.066  0.5736 -0.0942 -0.1530
33790SOL    HW119362   4.393   7.260  14.110  0.7602  0.4531  0.3924
33790SOL    HW219363   4.457   7.272  13.973  0.1847 -1.3882 -0.0644
33791SOL     OW19364  13.602   1.139   5.707 -0.1534  0.3296 -0.0977
33791SOL    HW119365  13.547   1.204   5.750 -1.8703 -1.6486  0.8748
33791SOL    HW219366  13.648   1.094   5.778 -0.8850 -1.1134 -0.4873
33792SOL     OW19367   0.251  13.649  11.209 -0.6035  0.3250 -0.4142
33792SOL    HW119368   0.325  13.709  11.198  1.2384 -1.7165  0.1145
33792SOL    HW219369   0.242  13.606  11.124  1.1750 -1.8535  0.3746
33793SOL     OW19370   2.654   6.796   6.907 -0.1910 -0.3295  0.1574
33793SOL    HW119371   2.591   6.803   6.979  0.3703 -0.4605  0.6744
33793SOL    HW219372   2.600   6.794   6.828 -0.8017  0.2920  0.5413
33794SOL     OW19373  10.366   9.450   0.536  0.0468 -0.1118 -0.2683
33794SOL    HW119374  10.332   9.426   0.622 -1.0888 -0.9825 -0.9408
33794SOL    HW219375  10.291   9.486   0.489  0.5986  0.1402 -0.9811
33795SOL     OW19376  12.903   9.466   3.945  0.2583 -0.6624  0.4436
33795SOL    HW119377  12.859   9.504   3.869 -1.5214 -0.5833  1.4619
33795SOL    HW219378  12.856   9.503   4.021  1.6367 -1.1468  1.5698
33796SOL     OW19379   4.606  12.826   4.442  0.1366  0.0219  0.1546
33796SOL    HW119380   4.627  12.777   4.362 -0.1516 -2.7011  1.6287
33796SOL    HW219381   4.675  12.892   4.447  2.1331 -1.8347 -0.7186
33797SOL     OW19382   2.467   8.081  12.454  0.4664 -0.2585  0.4092
33797SOL    HW119383   2.543   8.095  12.511  0.5787  0.0021  0.2005
33797SOL    HW219384   2.396   8.057  12.513  0.2006  1.4421  0.8482
33798SOL     OW19385   0.400   8.531   3.355 -0.2798 -0.3059  0.1634
33798SOL    HW119386   0.348   8.535   3.274 -0.2500  1.2416  0.1968
33798SOL    HW219387   0.489   8.513   3.325 -0.3939 -0.4434 -0.0988
33799SOL     OW19388   1.911   6.914   3.868  0.4498 -0.2041  0.2468
33799SOL    HW119389   1.874   6.834   3.831 -0.3532  0.4999 -0.5163
33799SOL    HW219390   2.005   6.906   3.852  0.2337 -0.3611 -1.1066
33800SOL     OW19391  10.386   0.532  10.099 -0.2938  0.5453 -0.0638
33800SOL    HW119392  10.374   0.463  10.034  0.0739 -1.3806  1.7812
33800SOL    HW219393  10.383   0.486  10.183 -1.3791  2.9932  1.3502
33801SOL     OW19394  14.031   3.726   5.209 -0.0240  0.1652  0.0639
33801SOL    HW119395  13.969   3.795   5.183 -0.9230 -0.7056 -0.1792
33801SOL    HW219396  14.061   3.752   5.296  2.1860  2.5779 -1.2790
33802SOL     OW19397   1.405   0.008  13.445 -0.6130 -0.5724 -0.9099
33802SOL    HW119398   1.397   0.102  13.431  0.7678 -0.1398  0.7917
33802SOL    HW219399   1.494  -0.013  13.416 -0.2092 -0.9464  0.5270
33803SOL     OW19400   8.011   7.261   7.176  0.1707 -0.8626 -0.5357
33803SOL    HW119401   7.927   7.305   7.160 -1.0014 -1.5896  2.7589
33803SOL    HW219402   8.050   7.310   7.248  2.1368 -1.1833 -1.3361
33804SOL     OW19403   6.862   3.951  12.826 -0.0621  0.0323 -0.3863
33804SOL    HW119404   6.788   4.011  12.820 -0.2792 -0.3192 -1.3748
33804SOL    HW219405   6.939   4.005  12.811 -0.1392  0.3177  0.2008
33805SOL     OW19406   3.098   9.834   1.583  0.3867 -0.4223  0.3472
33805SOL    HW119407   3.162   9.845   1.652  1.2698 -1.5858 -0.2475
33805SOL    HW219408   3.146   9.792   1.511 -0.0319  2.3286 -1.6981
33806SOL     OW19409   4.725   3.133   7.362 -0.3655  0.4307 -0.2124
33806SOL    HW119410   4.681   3.216   7.379 -0.9534 -0.3291  2.3519
33806SOL    HW219411   4.669   3.067   7.403  0.8332 -1.0916 -0.9248
33807SOL     OW19412  10.028   5.173   5.411 -0.1410 -0.0596 -0.1073
33807SOL    HW119413  10.051   5.193   5.502  0.2170  1.1652 -0.4462
33807SOL    HW219414  10.072   5.241   5.360 -1.9756  0.4941 -1.0332
33808SOL     OW19415   4.124   2.588   6.130 -0.1846  0.2874 -0.6164
33808SOL    HW119416   4.131   2.611   6.037  0.5217  1.0098 -0.3953
33808SOL    HW219417   4.041   2.625   6.158 -0.6549 -0.3865 -1.0751
33809SOL     OW19418  12.116   1.932  10.748  0.0281  0.1025  1.3055
33809SOL    HW119419  12.103   1.890  10.833  1.8796 -0.4288  1.3733
33809SOL    HW219420  12.028   1.940  10.711 -1.0341  1.7427  3.8932
33810SOL     OW19421  14.044  12.541  12.098  0.0236  0.5506  0.1744
33810SOL    HW119422  14.103  12.486  12.047 -0.0596 -0.8021  1.4537
33810SOL    HW219423  14.048  12.626  12.056 -2.1202 -1.0587 -3.7793
33811SOL     OW19424   0.230   4.440   1.052 -0.5439  0.0296 -0.1850
33811SOL    HW119425   0.148   4.453   1.004 -1.5647 -1.0091  1.2016
33811SOL    HW219426   0.280   4.520   1.035 -0.1913 -0.8114 -4.1068
33812SOL     OW19427   8.142  11.341   9.062 -0.4938  0.2818  0.1653
33812SOL    HW119428   8.191  11.318   9.141 -1.4837  1.9581  1.3200
33812SOL    HW219429   8.192  11.411   9.022 -0.1341 -0.3865 -0.5756
33813SOL     OW19430   2.149   9.686   8.315 -0.3696 -0.0071  0.1627
33813SOL    HW119431   2.212   9.758   8.318  1.1483 -1.3050  0.0603
33813SOL    HW219432   2.068   9.727   8.283  0.0830  1.9046  1.3234
33814SOL     OW19433   6.724  13.102   1.995 -0.0141 -0.4350 -0.1904
33814SOL    HW119434   6.698  13.063   1.912  1.8729 -0.9676 -0.5808
33814SOL    HW219435   6.790  13.167   1.971 -2.0153  2.0385  0.5952
33815SOL     OW19436  12.164  13.682  10.003  0.0622 -0.3089 -0.3289
33815SOL    HW119437  12.180  13.616  10.070 -0.1578 -1.2640 -1.2079
33815SOL    HW219438  12.249  13.696   9.962  0.1437  0.0985 -0.0406
33816SOL     OW19439   3.895  10.788   5.228  0.0025  0.3693  0.6832
33816SOL    HW119440   3.942  10.830   5.157 -0.5733 -0.8260 -0.4414
33816SOL    HW219441   3.839  10.724   5.185 -0.9370  0.1520  2.1590
33817SOL     OW19442   0.889   5.910   6.274  0.4203 -0.1053  0.2160
33817SOL    HW119443   0.873   5.816   6.268 -0.7784  0.1445 -1.0908
33817SOL    HW219444   0.805   5.950   6.251  0.7677  1.2999  1.2231
33818SOL     OW19445   2.166  12.438   3.471 -0.4181 -0.2592 -0.1160
33818SOL    HW119446   2.079  12.451   3.432  0.0425 -0.6173 -1.2913
33818SOL    HW219447   2.148  12.400   3.557 -1.4153 -0.5832 -0.4577
33819SOL     OW19448   3.594   8.028   6.162  0.1809  0.2291  0.6620
33819SOL    HW119449   3.592   7.935   6.140 -0.2210  0.6731 -1.4598
33819SOL    HW219450   3.671   8.039   6.218  1.2916 -1.1023 -0.5366
33820SOL     OW19451   6.948  12.235   8.330 -0.3718  0.2344 -0.3808
33820SOL    HW119452   6.898  12.313   8.357 -3.0655 -1.4276 -0.1897
33820SOL    HW219453   7.031  12.242   8.378 -0.8375  2.5791  0.2217
33821SOL     OW19454   9.143  13.724   4.675 -0.4790  0.5848 -0.3370
33821SOL    HW119455   9.119  13.817   4.679 -0.0306  0.6578  1.4927
33821SOL    HW219456   9.083  13.681   4.735  0.6262  0.0263  0.4072
33822SOL     OW19457   9.879   8.780  10.206  0.0269  0.2144 -0.0124
33822SOL    HW119458   9.918   8.838  10.272 -0.1021 -0.1561  0.3985
33822SOL    HW219459   9.917   8.694  10.225  0.4584  0.2207 -0.8113
33823SOL     OW19460   1.106   8.937   0.224 -0.6356  0.0668  0.7879
33823SOL    HW119461   1.170   8.992   0.178 -0.3319  0.3226  1.5079
33823SOL    HW219462   1.021   8.974   0.200 -0.6138 -0.8951 -1.0046
33824SOL     OW19463   2.239   2.731   9.019  0.1199  0.1172  0.2745
33824SOL    HW119464   2.278   2.654   9.062  0.8288  0.2472 -0.1290
33824SOL    HW219465   2.261   2.804   9.076 -0.7671 -0.0066  0.7865
33825SOL     OW19466  11.377  13.002  10.186 -0.5383 -0.3000  0.5984
33825SOL    HW119467  11.358  13.033  10.098  2.1878  0.2573  0.0973
33825SOL    HW219468  11.341  13.069  10.244 -2.1582 -0.5574 -0.0602
33826SOL     OW19469   5.874   0.019   7.531  0.6898  0.5256  0.0635
33826SOL    HW119470   5.871  -0.063   7.581  0.7824  0.3822 -0.1659
33826SOL    HW219471   5.784   0.053   7.536  0.0302 -0.7619 -1.7750
33827SOL     OW19472   5.651  13.099   8.176 -0.8510  0.4047 -0.0901
33827SOL    HW119473   5.572  13.142   8.207 -1.4893  0.3644 -1.5578
33827SOL    HW219474   5.625  13.007   8.164 -1.6343  0.9198 -3.5962
33828SOL     OW19475  12.623   0.423  14.096  0.6334 -0.4162 -0.2649
33828SOL    HW119476  12.592   0.503  14.138 -1.9223 -1.3622 -0.1647
33828SOL    HW219477  12.670   0.453  14.018 -0.6692  1.1660 -0.4822
33829SOL     OW19478   4.005   2.635  12.236 -0.3944 -0.0102  0.0942
33829SOL    HW119479   3.937   2.578  12.271  0.1603 -0.9446 -0.3324
33829SOL    HW219480   4.079   2.622  12.295  0.1938 -0.7880 -0.8164
33830SOL     OW19481   2.523   2.659   9.662 -0.0393  0.2229  0.5333
33830SOL    HW119482   2.573   2.673   9.582  1.3272 -1.2103  1.0932
33830SOL    HW219483   2.569   2.709   9.729  0.3430 -0.6595  0.9429
33831SOL     OW19484   9.962   8.700   2.453 -0.0027 -0.0736  0.0263
33831SOL    HW119485  10.049   8.739   2.448  0.1795 -0.5937 -1.5891
33831SOL    HW219486   9.932   8.718   2.542  1.7534  0.0959  0.6143
33832SOL     OW19487  11.332  12.727  10.777 -0.3489  0.2591  0.5521
33832SOL    HW119488  11.245  12.708  10.812 -0.2587 -1.6040 -0.1323
33832SOL    HW219489  11.378  12.643  10.780  0.9378  0.8902 -0.4855
33833SOL     OW19490   9.752   3.008   8.602 -0.4695 -0.1266 -0.2039
33833SOL    HW119491   9.793   2.950   8.666 -1.5659  0.2645  0.8846
33833SOL    HW219492   9.730   3.087   8.651 -1.2237  0.2318 -1.0923
33834SOL     OW19493   8.473  11.280   6.834  0.1408  0.1677  0.0836
33834SOL    HW119494   8.449  11.287   6.927 -1.9915 -0.8973 -0.3134
33834SOL    HW219495   8.449  11.365   6.797 -0.7634 -0.0425  0.1709
33835SOL     OW19496  14.057   9.238   1.221  0.1208 -0.0873  0.0386
33835SOL    HW119497  13.974   9.201   1.251  1.0003 -1.4223  0.9391
33835SOL    HW219498  14.121   9.167   1.235  1.3426  0.7805 -0.9715
33836SOL     OW19499   2.422   9.209  13.476 -0.1278 -0.1417 -0.2985
33836SOL    HW119500   2.419   9.284  13.534 -0.3364 -0.9276  0.7411
33836SOL    HW219501   2.477   9.237  13.403  1.2919  0.4263  0.9378
33837SOL     OW19502  11.248   3.383   5.160  0.0311 -0.5247 -0.1970
33837SOL    HW119503  11.225   3.291   5.174  0.2706 -0.4224  0.9488
33837SOL    HW219504  11.343   3.383   5.153  0.1947 -0.1518  1.6939
33838SOL     OW19505  10.904  11.986   5.815  0.6163  0.0865  0.0152
33838SOL    HW119506  10.886  11.929   5.890  0.3626 -0.6065 -0.5575
33838SOL    HW219507  10.822  12.033   5.800  0.1439 -0.9394 -0.7903
33839SOL     OW19508  11.757   1.807   8.022  0.1697  0.1299 -0.0501
33839SOL    HW119509  11.748   1.728   7.970  2.0215  0.2336 -0.5807
33839SOL    HW219510  11.819   1.784   8.092  0.9770  1.1664 -0.3905
33840SOL     OW19511  10.644  12.257   3.760  0.0509 -0.3598 -0.2743
33840SOL    HW119512  10.563  12.210   3.736  0.5499 -0.7464 -1.2611
33840SOL    HW219513  10.620  12.349   3.757 -1.3270 -0.4657  3.0223
33841SOL     OW19514   4.312   6.057   2.282 -0.6057 -0.0435 -0.3803
33841SOL    HW119515   4.283   6.004   2.207  0.0133  1.4209 -1.7113
33841SOL    HW219516   4.402   6.030   2.297 -0.7131 -0.3006 -0.1900
33842SOL     OW19517   1.872  11.130   7.834 -0.5444 -0.4934  0.1896
33842SOL    HW119518   1.848  11.102   7.922 -1.8757  1.3831  0.4713
33842SOL    HW219519   1.789  11.145   7.790  0.1137 -0.9818 -1.2787
33843SOL     OW19520   9.613   6.328  10.974 -0.3057  0.2623  0.0520
33843SOL    HW119521   9.626   6.419  11.003  0.9315  0.5472 -1.3232
33843SOL    HW219522   9.644   6.327  10.884  0.1429 -1.6584  0.1977
33844SOL     OW19523   3.037   8.983   7.416  0.1647  0.3868 -0.1291
33844SOL    HW119524   3.109   9.036   7.383  1.4379 -0.9574  0.3781
33844SOL    HW219525   3.023   8.916   7.349  1.7837 -1.4645  1.2600
33845SOL     OW19526  11.389   3.436   1.291 -0.0058 -0.4713  0.3016
33845SOL    HW119527  11.432   3.513   1.328 -0.6008  0.4372 -0.8231
33845SOL    HW219528  11.444   3.411   1.217 -0.4796 -0.3725 -0.0838
33846SOL     OW19529   3.525   1.772  10.318 -0.2293  0.7771  0.3338
33846SOL    HW119530   3.599   1.833  10.328  0.5903 -0.0851 -0.2634
33846SOL    HW219531   3.544   1.701  10.380 -0.6294  0.6164  0.2750
33847SOL     OW19532   2.617   6.640  13.373  0.0290  0.6297  0.9554
33847SOL    HW119533   2.699   6.690  13.382  0.5821  0.0374 -0.5463
33847SOL    HW219534   2.644   6.549  13.375  0.0746  0.3092 -3.6351
33848SOL     OW19535  13.696   8.824   3.100 -0.3339 -0.3816  0.4964
33848SOL    HW119536  13.676   8.895   3.039 -1.7364 -1.5553 -0.4990
33848SOL    HW219537  13.709   8.747   3.044  0.1586 -1.1242  1.5883
33849SOL     OW19538  13.813   4.756  12.207  0.2390  0.4697  0.4280
33849SOL    HW119539  13.871   4.713  12.269 -1.5121  0.2073  2.0030
33849SOL    HW219540  13.838   4.722  12.122  3.3932  1.5736  0.7784
33850SOL     OW19541  10.138   2.698  12.264 -0.4373  1.0431 -0.0694
33850SOL    HW119542  10.063   2.732  12.313 -0.8199 -0.2912  0.2981
33850SOL    HW219543  10.107   2.615  12.228  0.8722  0.4471  0.1392
33851SOL     OW19544   6.025   0.119  10.107 -0.1592  0.1152 -0.0970
33851SOL    HW119545   6.062   0.170  10.035  0.2782 -0.3525 -0.2098
33851SOL    HW219546   6.048   0.168  10.185 -0.0712  0.2945 -0.2345
33852SOL     OW19547   9.190  11.811   3.911  0.4413  0.7750 -0.3242
33852SOL    HW119548   9.099  11.812   3.941 -0.1146 -0.3579 -1.8559
33852SOL    HW219549   9.236  11.866   3.974 -1.0550  0.3221  1.2535
33853SOL     OW19550  11.421   1.635  12.321 -0.1262 -0.5101 -0.3467
33853SOL    HW119551  11.469   1.629  12.238 -0.3943  0.2016 -0.5600
33853SOL    HW219552  11.445   1.555  12.367  1.0988 -0.2919 -0.5425
33854SOL     OW19553   2.590  10.270  13.278  0.2107 -0.0690 -0.5563
33854SOL    HW119554   2.581  10.354  13.232 -1.9333 -0.2518 -0.5448
33854SOL    HW219555   2.616  10.208  13.210 -0.6105  0.1388 -1.0721
33855SOL     OW19556   9.489   4.109  11.817  0.4226  0.0221 -0.5069
33855SOL    HW119557   9.451   4.191  11.848 -2.5977 -1.7748  1.0313
33855SOL    HW219558   9.498   4.121  11.722  0.5651  2.2674 -0.2653
33856SOL     OW19559   2.330  11.785   6.367  0.3031 -0.0348 -0.7818
33856SOL    HW119560   2.294  11.696   6.365  3.3509 -1.4453  0.2997
33856SOL    HW219561   2.375  11.791   6.452  0.2647  2.5507 -0.8552
33857SOL     OW19562   9.902   8.720   4.908  0.5126 -0.2851 -0.0144
33857SOL    HW119563   9.942   8.805   4.886 -0.9831  0.4520  0.0191
33857SOL    HW219564   9.844   8.739   4.981 -0.1662 -1.2621 -0.2841
33858SOL     OW19565   3.033   5.705   3.097 -0.3844  0.3882  0.1517
33858SOL    HW119566   3.116   5.746   3.123  1.1317 -1.5226 -1.3332
33858SOL    HW219567   3.005   5.658   3.175 -0.9814  2.3308  1.1747
33859SOL     OW19568  10.296   7.198   6.876  0.2432 -0.0060 -0.2882
33859SOL    HW119569  10.273   7.109   6.904 -2.0324 -0.3620 -2.9047
33859SOL    HW219570  10.378   7.186   6.828  0.9316 -0.3410  0.9204
33860SOL     OW19571   8.685  11.793   9.038  0.7739 -0.6276 -0.6182
33860SOL    HW119572   8.591  11.799   9.021  0.8709  1.1757 -0.7832
33860SOL    HW219573   8.723  11.770   8.954  0.5432 -0.4270 -0.7805
33861SOL     OW19574   6.220   3.725  13.157 -0.6783 -0.3984 -0.1347
33861SOL    HW119575   6.221   3.790  13.087 -0.9169  0.5449  0.7156
33861SOL    HW219576   6.292   3.665  13.136 -0.7017 -0.0913 -1.1343
33862SOL     OW19577  10.820   3.330   3.002  0.3572 -0.0210  0.1380
33862SOL    HW119578  10.913   3.333   2.981  0.7320  0.6141  1.7548
33862SOL    HW219579  10.817   3.307   3.095 -1.1091 -0.0369  0.1113
33863SOL     OW19580  11.795   2.842   3.727 -0.0793 -0.1517  0.8077
33863SOL    HW119581  11.704   2.818   3.742 -0.9721  3.2350  1.5171
33863SOL    HW219582  11.797   2.875   3.637  0.3418  0.2139  0.9460
33864SOL     OW19583   0.432  13.991   1.798 -0.4299 -0.0410 -0.6143
33864SOL    HW119584   0.506  14.021   1.746  0.2628  0.3897  0.5784
33864SOL    HW219585   0.359  14.046   1.770  0.0039  0.3888 -0.9077
33865SOL     OW19586   1.084   2.865   9.415  0.6740  0.0644  0.0996
33865SOL    HW119587   1.051   2.809   9.344  0.0067 -0.9614  1.1899
33865SOL    HW219588   1.007   2.883   9.468  1.0476  1.3717  0.2237
33866SOL     OW19589   1.208   7.329  10.994  0.3989 -0.0277  0.2770
33866SOL    HW119590   1.241   7.338  11.084  0.2453 -0.9041  0.4293
33866SOL    HW219591   1.142   7.260  11.000  0.9220 -0.6259 -0.6558
33867SOL     OW19592   7.863   6.160   9.321  0.7594  0.4381  0.6380
33867SOL    HW119593   7.938   6.107   9.349  0.6405  0.7659  1.6148
33867SOL    HW219594   7.896   6.250   9.320  1.5198  0.2800 -2.8512
33868SOL     OW19595   8.895   3.117   5.190  0.0953  0.0622 -0.2633
33868SOL    HW119596   8.903   3.056   5.117 -0.5836  0.3120 -0.5537
33868SOL    HW219597   8.852   3.067   5.259  2.8849 -0.9372  0.8937
33869SOL     OW19598  13.702   0.468   2.380  0.5749  0.0650 -0.3102
33869SOL    HW119599  13.662   0.439   2.298  0.8765  3.1889 -1.7025
33869SOL    HW219600  13.650   0.425   2.448 -0.6592 -1.4448 -2.0822
33870SOL     OW19601   0.852   7.926   3.329 -0.4407  0.1798  0.3121
33870SOL    HW119602   0.782   7.944   3.392 -0.7722  1.2723 -0.3477
33870SOL    HW219603   0.816   7.952   3.245 -0.1580 -1.6573 -0.4326
33871SOL     OW19604   1.937   8.424   1.254  0.1587  0.1695 -0.0461
33871SOL    HW119605   1.912   8.414   1.162 -0.4344 -1.8182  0.2722
33871SOL    HW219606   1.922   8.516   1.274 -1.2420  0.2958 -1.5164
33872SOL     OW19607   5.286  12.402  11.851 -0.5868 -0.6455  0.0328
33872SOL    HW119608   5.207  12.419  11.902 -0.4945  0.3300 -0.1276
33872SOL    HW219609   5.355  12.447  11.898 -0.1082 -1.5157  0.1854
33873SOL     OW19610  13.264   6.146  13.047 -0.3899  0.0723 -0.4154
33873SOL    HW119611  13.317   6.092  12.987  0.0730 -1.0868  0.9861
33873SOL    HW219612  13.293   6.235  13.030 -0.8914 -0.1074 -2.5156
33874SOL     OW19613   6.483  14.085   7.873 -0.2456 -0.6856 -0.5704
33874SOL    HW119614   6.489  14.099   7.967 -1.4567  1.6415 -0.7890
33874SOL    HW219615   6.567  14.046   7.850  0.2660 -0.8495  1.3827
33875SOL     OW19616  11.676  12.773  14.109  0.0111 -0.0808  0.0857
33875SOL    HW119617  11.750  12.833  14.120 -1.0755  1.4362 -0.5824
33875SOL    HW219618  11.716  12.692  14.077  1.2977  1.0741 -1.3972
33876SOL     OW19619   6.909  12.861   2.315  0.1544 -0.2875  0.4664
33876SOL    HW119620   6.866  12.785   2.274  2.1761 -0.8296 -0.7582
33876SOL    HW219621   6.906  12.842   2.409 -1.7907 -0.5233  0.4082
33877SOL     OW19622   7.213   8.203  10.849  0.2978  0.1112  0.0937
33877SOL    HW119623   7.242   8.158  10.928  0.8510  1.0893  0.4776
33877SOL    HW219624   7.126   8.168  10.831  0.8556 -1.3541  0.1520
33878SOL     OW19625  13.616   9.070   4.079  0.1228 -0.3030 -0.2274
33878SOL    HW119626  13.680   9.129   4.118  0.0227 -0.2093 -0.2047
33878SOL    HW219627  13.663   8.987   4.069  0.0884 -0.3911  0.2923
33879SOL     OW19628   7.047   6.476  12.291 -0.1403  0.0775  0.2145
33879SOL    HW119629   7.006   6.392  12.312  1.0170 -0.3690  0.7901
33879SOL    HW219630   7.043   6.526  12.373 -0.9013  0.6281 -0.1486
33880SOL     OW19631   4.704   8.822  13.012 -0.3619  0.0076  0.0774
33880SOL    HW119632   4.643   8.897  13.009 -1.3786 -0.8377 -2.0696
33880SOL    HW219633   4.699   8.792  13.103 -1.2394  1.4975  0.5667
33881SOL     OW19634   8.500   5.250   7.140 -0.5468 -0.8715 -0.0575
33881SOL    HW119635   8.433   5.277   7.078 -1.0704  0.7826  1.1690
33881SOL    HW219636   8.558   5.326   7.148  0.6542 -1.7520  0.0238
33882SOL     OW19637   4.799   6.547   9.750  0.3859 -0.1685 -0.5423
33882SOL    HW119638   4.792   6.562   9.656  0.6009  0.7283 -0.4264
33882SOL    HW219639   4.889   6.518   9.763  0.1237 -1.0932 -0.7013
33883SOL     OW19640   1.310  10.805   8.453 -0.0420  0.4507 -0.3818
33883SOL    HW119641   1.218  10.834   8.452  0.5234  2.6060  1.3690
33883SOL    HW219642   1.314  10.737   8.386 -2.5213  1.5244 -1.7844
33884SOL     OW19643   4.710   5.543   1.724  0.2202  0.1498 -0.0358
33884SOL    HW119644   4.755   5.628   1.725 -0.1809  0.3599  0.2526
33884SOL    HW219645   4.774   5.483   1.685 -0.2107  0.9843 -2.1376
33885SOL     OW19646   4.726  10.783  11.753 -0.2467 -0.3534  0.2562
33885SOL    HW119647   4.709  10.769  11.660 -0.0288 -0.5791  0.2494
33885SOL    HW219648   4.648  10.751  11.797 -1.0749  1.2960  0.0559
33886SOL     OW19649   6.077  12.967  11.696 -0.2211  0.0529 -0.2666
33886SOL    HW119650   6.154  12.946  11.749 -0.1778 -0.0271 -0.3613
33886SOL    HW219651   6.069  12.894  11.635  0.1341  0.4793 -0.8269
33887SOL     OW19652   4.184  10.319  10.194  0.2734  0.2456  0.5708
33887SOL    HW119653   4.127  10.386  10.158  1.0349  1.0211  0.7828
33887SOL    HW219654   4.195  10.255  10.123  1.3979  1.5254 -0.4556
33888SOL     OW19655   4.869   9.881   5.567  0.2283  0.3019  0.2421
33888SOL    HW119656   4.931   9.809   5.572 -0.1685  0.0408  1.6207
33888SOL    HW219657   4.884   9.932   5.646 -1.7067 -0.1092  0.9326
33889SOL     OW19658   2.582  12.449   9.401 -0.4256 -0.2485  0.3205
33889SOL    HW119659   2.509  12.387   9.401 -0.2174 -0.4964  0.2135
33889SOL    HW219660   2.611  12.452   9.492  0.6796 -1.6459  0.0632
33890SOL     OW19661   3.862   0.764   1.681  0.6224  0.1721 -0.1320
33890SOL    HW119662   3.887   0.775   1.772  2.3552 -1.6414 -0.3311
33890SOL    HW219663   3.937   0.796   1.631  1.0353 -1.7831 -0.8276
33891SOL     OW19664   5.899  11.611  12.456 -0.1978  0.0875 -0.2444
33891SOL    HW119665   5.877  11.688  12.508 -1.8069 -1.9278  2.3691
33891SOL    HW219666   5.990  11.592  12.479  0.6316  1.8158 -1.8759
33892SOL     OW19667   7.265   0.897  10.859  0.1203  0.9366  0.2476
33892SOL    HW119668   7.282   0.804  10.841 -0.7869  0.8298 -0.0690
33892SOL    HW219669   7.280   0.905  10.953 -1.0777  0.1701  0.5266
33893SOL     OW19670   1.162   5.087   2.216 -0.4828  0.6241 -0.3636
33893SOL    HW119671   1.177   5.087   2.122  0.2799  0.2416 -0.2522
33893SOL    HW219672   1.122   5.002   2.235  0.3502  0.2531 -0.2096
33894SOL     OW19673   7.594   9.769   2.034 -0.1486  0.6304 -0.5551
33894SOL    HW119674   7.620   9.806   2.118  0.5710 -0.6401 -0.1918
33894SOL    HW219675   7.505   9.800   2.021 -0.0627  1.3232  0.3918
33895SOL     OW19676  10.775   8.618   6.964 -0.2331  0.2757 -0.1380
33895SOL    HW119677  10.832   8.648   6.893 -0.7624 -0.0410 -0.7081
33895SOL    HW219678  10.829   8.625   7.043  0.5384  0.1289 -0.6447
33896SOL     OW19679  12.533  10.304  11.259  0.3561 -0.3282 -0.0494
33896SOL    HW119680  12.610  10.355  11.233 -0.0385 -0.2909 -1.2170
33896SOL    HW219681  12.567  10.216  11.273  0.5655 -0.4133 -0.9804
33897SOL     OW19682   2.324  13.401   0.864 -0.6412  0.2682 -0.8887
33897SOL    HW119683   2.398  13.448   0.904 -0.7283 -0.2813 -0.0502
33897SOL    HW219684   2.328  13.424   0.772  0.8776 -0.1272 -0.9499
33898SOL     OW19685   2.033  13.586   9.931  0.3145  0.3108  0.5651
33898SOL    HW119686   1.974  13.660   9.945  0.2522  0.6275 -1.1018
33898SOL    HW219687   1.991  13.536   9.861  0.6489 -1.0077  1.2689
33899SOL     OW19688  11.059   2.293   0.294  0.7689  0.6246  0.3829
33899SOL    HW119689  10.988   2.234   0.271  3.3301 -2.6679  0.2290
33899SOL    HW219690  11.101   2.315   0.211  0.1486  2.4080  0.4863
33900SOL     OW19691   1.950   6.504   0.362 -0.2263  0.1775 -0.1770
33900SOL    HW119692   1.882   6.478   0.424 -1.2378  0.2884 -1.2064
33900SOL    HW219693   2.003   6.425   0.351 -2.3725 -1.1382 -2.1281
33901SOL     OW19694   8.544   8.000  10.635  0.0364  0.5908  0.0034
33901SOL    HW119695   8.511   7.912  10.652  0.2714  0.0245 -2.2834
33901SOL    HW219696   8.593   8.022  10.715 -0.3180 -1.1798  0.7696
33902SOL     OW19697   6.061  11.078   8.041  0.1489 -0.2204  0.0935
33902SOL    HW119698   6.097  11.013   8.102 -1.0322 -2.2164 -1.1992
33902SOL    HW219699   6.114  11.069   7.962 -0.3044  0.0811 -0.2506
33903SOL     OW19700   1.207   3.639   9.070  0.3115  0.2684  0.6020
33903SOL    HW119701   1.241   3.685   9.147  0.4878  1.5663 -0.2160
33903SOL    HW219702   1.207   3.706   9.001  1.0976 -1.1084 -0.7805
33904SOL     OW19703  11.033   3.340  10.292 -0.1560 -0.0573 -0.0994
33904SOL    HW119704  11.023   3.277  10.364  1.6983  1.5354  1.6784
33904SOL    HW219705  11.123   3.329  10.263 -0.4491  0.3480 -1.2111
33905SOL     OW19706   9.914  10.935   9.393  0.5600 -0.3758  0.2881
33905SOL    HW119707   9.914  10.852   9.440  2.6905  0.4279  1.8618
33905SOL    HW219708   9.856  10.921   9.319  0.3325 -3.0346  0.8874
33906SOL     OW19709   3.243   3.752   0.053 -0.3912  0.7599  0.1974
33906SOL    HW119710   3.178   3.702   0.004  1.1597 -1.7808  0.5317
33906SOL    HW219711   3.281   3.688   0.114  3.1148  1.7346 -0.7314
33907SOL     OW19712   3.971   7.310   5.785  0.6107 -0.0208 -0.0051
33907SOL    HW119713   3.936   7.341   5.869 -1.0387 -0.9059 -0.3277
33907SOL    HW219714   3.986   7.217   5.798  0.3923 -0.1535 -0.6810
33908SOL     OW19715  12.041   1.029   6.935 -0.4394 -0.3211 -0.4627
33908SOL    HW119716  11.970   0.967   6.949  0.9067 -1.9980 -0.7476
33908SOL    HW219717  12.113   0.976   6.899  0.9522  1.3021 -0.2209
33909SOL     OW19718   6.374   1.200  13.849  0.8964 -0.5607  0.4847
33909SOL    HW119719   6.449   1.244  13.809  0.2167  0.6782  0.5311
33909SOL    HW219720   6.408   1.114  13.874  1.6579 -0.9534 -1.6790
33910SOL     OW19721   1.311   8.121   6.988  0.2268 -0.2042  0.5359
33910SOL    HW119722   1.393   8.163   6.962 -0.1622  0.2959  0.0949
33910SOL    HW219723   1.338   8.036   7.023  1.0836  0.6315  2.0063
33911SOL     OW19724   2.384  12.898   8.752  0.0507  0.3762 -0.1367
33911SOL    HW119725   2.475  12.871   8.739 -0.1789 -0.5122  0.0009
33911SOL    HW219726   2.389  12.975   8.809  0.6879 -0.0695  0.4253
33912SOL     OW19727   2.175  12.720   5.415  0.0584 -0.0251  0.1553
33912SOL    HW119728   2.188  12.787   5.482  1.0574 -2.3217  2.4170
33912SOL    HW219729   2.263  12.687   5.395 -0.4550 -1.2499 -0.2276
33913SOL     OW19730   9.675   9.952  12.931 -0.1937 -0.4165  0.1673
33913SOL    HW119731   9.617  10.012  12.978  0.5505  0.1413  0.3764
33913SOL    HW219732   9.646   9.958  12.840 -2.3265 -2.2707  0.6199
33914SOL     OW19733   8.075  10.854  13.500 -0.3021  0.0016  0.2709
33914SOL    HW119734   8.082  10.772  13.549  1.4850 -0.2337 -0.3128
33914SOL    HW219735   7.982  10.859  13.476 -0.9329 -0.6341  2.3174
33915SOL     OW19736  12.621   1.485   4.490  0.8066 -0.0420  0.0956
33915SOL    HW119737  12.577   1.417   4.438 -0.3065  2.2583 -2.2632
33915SOL    HW219738  12.555   1.513   4.553  0.6961 -0.0718 -0.0057
33916SOL     OW19739   4.287  13.951   8.501 -0.3877 -0.2983 -0.0173
33916SOL    HW119740   4.247  13.878   8.549 -0.3373 -0.7665 -0.6666
33916SOL    HW219741   4.213  14.009   8.480 -0.2408  0.5934  1.7331
33917SOL     OW19742  11.327   9.214  13.726  0.0297  0.3305  0.1557
33917SOL    HW119743  11.253   9.156  13.707 -0.1460  0.4758  0.3908
33917SOL    HW219744  11.392   9.192  13.660 -0.2472  0.2436 -0.0882
33918SOL     OW19745   0.413   4.163   9.742  0.2777 -0.2789 -0.0429
33918SOL    HW119746   0.452   4.207   9.818  0.5930  0.5058 -0.6416
33918SOL    HW219747   0.481   4.168   9.674 -0.2894 -0.2648 -0.6187
33919SOL     OW19748   5.459   8.878   2.122  0.4337 -0.7455 -0.4558
33919SOL    HW119749   5.388   8.814   2.117  1.0055 -1.2991 -3.1483
33919SOL    HW219750   5.427   8.953   2.073  0.1703  0.7439  1.8370
33920SOL     OW19751   7.694   5.088  12.700 -0.4098 -0.1324  0.1180
33920SOL    HW119752   7.696   5.027  12.773 -0.6589 -0.3095 -0.0230
33920SOL    HW219753   7.642   5.162  12.730 -2.3762 -1.1567 -0.6158
33921SOL     OW19754  11.239   1.702  10.227  0.6454 -0.3178 -0.7457
33921SOL    HW119755  11.330   1.674  10.232  0.2060 -2.4894 -2.9105
33921SOL    HW219756  11.199   1.670  10.308  1.5801 -0.0884 -0.1737
33922SOL     OW19757  13.618  10.227   7.084  0.1586 -0.4677 -0.1432
33922SOL    HW119758  13.689  10.285   7.058  0.3473 -0.4250  0.4528
33922SOL    HW219759  13.575  10.272   7.156 -0.0669 -0.7879 -0.0741
33923SOL     OW19760   0.992   4.771   1.355  0.4172 -0.0344  0.1856
33923SOL    HW119761   1.012   4.740   1.444 -0.3858 -0.1202  0.3485
33923SOL    HW219762   0.992   4.692   1.301  3.5223  0.2709 -0.4627
33924SOL     OW19763   8.168  12.590  12.667  1.2424 -0.1558 -0.2549
33924SOL    HW119764   8.120  12.531  12.727  0.7373  0.0518 -0.4482
33924SOL    HW219765   8.170  12.543  12.584 -0.8162  0.8527 -0.9470
33925SOL     OW19766  11.589   7.234   7.126  0.0639 -0.0026 -0.2197
33925SOL    HW119767  11.630   7.302   7.072 -0.8726  1.0657  0.3590
33925SOL    HW219768  11.507   7.214   7.081  0.0588 -0.3106 -0.0736
33926SOL     OW19769  11.370  12.269   3.842  0.2466  0.1106 -0.6509
33926SOL    HW119770  11.449  12.229   3.806 -0.1674  0.4362 -1.9910
33926SOL    HW219771  11.335  12.322   3.770 -0.7290  0.6455  0.1895
33927SOL     OW19772  13.257   3.649   6.833  0.1043  0.6378  0.9301
33927SOL    HW119773  13.336   3.669   6.782 -1.7141  1.7126 -1.7285
33927SOL    HW219774  13.192   3.711   6.801 -2.8822 -2.5165  0.1878
33928SOL     OW19775   5.393   0.993  12.395 -0.0033  0.1508 -0.5532
33928SOL    HW119776   5.408   0.949  12.311 -1.2953 -0.0020 -0.7318
33928SOL    HW219777   5.315   1.046  12.380 -0.9602 -0.7830  0.8589
33929SOL     OW19778   6.645   9.923   0.362 -0.5039  0.1396 -0.0922
33929SOL    HW119779   6.704   9.896   0.433  0.2445  0.4369 -0.5977
33929SOL    HW219780   6.593   9.993   0.401 -0.2961  0.1070  0.2548
33930SOL     OW19781   9.408   2.560   6.062 -0.1155  0.1320 -0.3844
33930SOL    HW119782   9.313   2.561   6.076 -0.6019 -0.4037 -3.1755
33930SOL    HW219783   9.433   2.468   6.072 -0.0290  0.1464 -0.4635
33931SOL     OW19784   7.317  12.192   4.227  0.1959 -0.0255  0.7717
33931SOL    HW119785   7.259  12.265   4.249 -0.3806 -0.5324  0.9870
33931SOL    HW219786   7.402  12.232   4.213 -0.0422  0.6491  1.1934
33932SOL     OW19787  12.225   3.161  14.147 -0.2635 -0.1684 -0.5406
33932SOL    HW119788  12.217   3.222  14.221 -1.1757 -0.4638 -0.3859
33932SOL    HW219789  12.179   3.204  14.075 -2.1727 -1.2556 -0.0417
33933SOL     OW19790  11.748  13.794   0.063 -0.0982 -0.1429 -0.2441
33933SOL    HW119791  11.813  13.799   0.133 -1.0867 -3.2521  1.0354
33933SOL    HW219792  11.685  13.863   0.084  0.9467  0.6521  0.4077
33934SOL     OW19793   8.278   5.108   5.507 -0.7821  0.5784  0.3068
33934SOL    HW119794   8.237   5.054   5.575 -1.9629 -0.3201 -1.0582
33934SOL    HW219795   8.286   5.050   5.432  1.4918  1.2418 -0.0383
33935SOL     OW19796   4.118  13.328   0.079 -0.5620  0.0995  0.0960
33935SOL    HW119797   4.080  13.269   0.014  0.3922  0.3600 -0.7146
33935SOL    HW219798   4.213  13.319   0.067 -0.3997  1.9781 -0.2094
33936SOL     OW19799   3.965  12.637  11.711 -0.2342  0.2748 -0.2608
33936SOL    HW119800   3.909  12.584  11.655  0.4355  1.0539 -1.7286
33936SOL    HW219801   4.012  12.574  11.765 -0.8757 -0.4989 -0.5843
33937SOL     OW19802   4.259   4.735   4.268  0.0925  0.5746  0.3157
33937SOL    HW119803   4.222   4.719   4.354 -1.1943  1.2723 -0.0802
33937SOL    HW219804   4.315   4.660   4.251  0.7845  0.6907  1.9701
33938SOL     OW19805  11.928   2.906  10.257 -0.1914 -0.4280 -0.1061
33938SOL    HW119806  11.908   2.916  10.164  2.8317 -1.6719 -1.0046
33938SOL    HW219807  11.980   2.983  10.279 -0.4933 -0.3762  0.4462
33939SOL     OW19808   3.841  12.600   6.745  0.4276  0.2902  0.2841
33939SOL    HW119809   3.849  12.587   6.651  1.9214  0.6869  0.3287
33939SOL    HW219810   3.836  12.695   6.756 -0.8074  0.2023  0.5412
33940SOL     OW19811   1.579   7.904   8.760 -0.4619 -0.3811  0.2033
33940SOL    HW119812   1.500   7.897   8.706  0.1440 -0.4184 -0.7052
33940SOL    HW219813   1.605   7.996   8.753  0.7007 -0.7692 -1.1928
33941SOL     OW19814  10.272   2.437  11.099  0.8626  0.2122 -0.4043
33941SOL    HW119815  10.307   2.498  11.164  1.4105 -1.1211  0.6009
33941SOL    HW219816  10.341   2.429  11.034  2.5817 -2.3245  1.5150
33942SOL     OW19817   4.620   0.448  11.397  0.2097 -0.0788 -0.2391
33942SOL    HW119818   4.682   0.385  11.360  0.5299  0.7143 -1.0941
33942SOL    HW219819   4.543   0.395  11.420  0.3537 -0.7529 -1.2056
33943SOL     OW19820  12.192   1.071  10.723  0.7419  0.3841  0.2045
33943SOL    HW119821  12.206   1.023  10.641  0.3214  1.0796 -0.2804
33943SOL    HW219822  12.259   1.037  10.782  0.8249 -0.3792 -0.3164
33944SOL     OW19823  11.885  13.523   7.720 -0.2351  0.0136 -0.2423
33944SOL    HW119824  11.954  13.555   7.779 -0.5356  0.0584  0.0865
33944SOL    HW219825  11.874  13.594   7.657  0.3404 -0.1836 -0.5784
33945SOL     OW19826   5.706   3.525  13.677  0.3934 -0.2457 -0.3073
33945SOL    HW119827   5.792   3.540  13.717 -0.3586  0.6510  1.0932
33945SOL    HW219828   5.670   3.450  13.726 -0.6670  1.0603  1.0395
33946SOL     OW19829  13.654   1.275   7.189 -0.3939  0.0931  0.4968
33946SOL    HW119830  13.627   1.336   7.257  2.6780 -0.2465  2.1840
33946SOL    HW219831  13.688   1.199   7.236  2.9373  0.3160 -1.2606
33947SOL     OW19832   2.076  13.830   4.077  0.0651  0.1828 -0.7522
33947SOL    HW119833   2.006  13.865   4.022 -0.5835 -1.2494 -0.8764
33947SOL    HW219834   2.041  13.833   4.166  0.7120  1.5106 -0.5152
33948SOL     OW19835   4.215   3.816  12.392 -0.0691 -0.0192 -0.0390
33948SOL    HW119836   4.133   3.858  12.365  0.1658  1.5526  1.5144
33948SOL    HW219837   4.256   3.790  12.310 -0.9754  1.4436 -1.0145
33949SOL     OW19838  11.365   1.246   9.656 -0.0156  0.0411  0.8576
33949SOL    HW119839  11.407   1.301   9.723  2.1479 -1.9555  1.2565
33949SOL    HW219840  11.275   1.279   9.651  0.4614  1.8833  2.9332
33950SOL     OW19841   2.103  10.767   1.661  0.2477  0.3565 -0.3114
33950SOL    HW119842   2.044  10.779   1.587  0.5234 -0.1085 -0.6088
33950SOL    HW219843   2.190  10.789   1.627  0.4883 -0.6211 -0.3527
33951SOL     OW19844   9.292   2.701  10.456  0.1978 -0.3179  0.0893
33951SOL    HW119845   9.218   2.710  10.517 -0.0602 -0.0701 -0.2526
33951SOL    HW219846   9.361   2.659  10.507 -0.5499 -1.5425  0.1150
33952SOL     OW19847  10.687   7.383   7.252 -0.1344 -0.2228 -0.1545
33952SOL    HW119848  10.710   7.307   7.198 -1.2278 -0.9550  0.3805
33952SOL    HW219849  10.593   7.375   7.265 -0.2306  1.1481  0.0538
33953SOL     OW19850   5.953  11.859   0.291 -0.9273  0.2418 -0.2636
33953SOL    HW119851   6.019  11.924   0.269 -1.3574  0.0909 -2.1576
33953SOL    HW219852   5.917  11.831   0.207 -1.8314 -1.3247  0.5842
33954SOL     OW19853   4.818   9.288   6.652  0.2881 -0.5428 -0.3314
33954SOL    HW119854   4.760   9.357   6.686  0.8225  0.3017 -1.0811
33954SOL    HW219855   4.900   9.334   6.633  0.9814 -1.5845  0.0572
33955SOL     OW19856  10.650  12.270   7.956 -0.2755 -0.0838  0.0785
33955SOL    HW119857  10.608  12.325   8.021 -0.2808  0.0716 -0.0556
33955SOL    HW219858  10.681  12.331   7.889  2.5690  0.1470  1.4361
33956SOL     OW19859  10.211  11.979   6.728  0.0132  0.0963  0.0590
33956SOL    HW119860  10.141  12.036   6.698 -0.3804 -0.2612  0.2999
33956SOL    HW219861  10.233  11.926   6.652 -1.4143 -1.2476  0.5489
33957SOL     OW19862   9.045  13.206   5.484 -0.0539 -0.0489  0.4079
33957SOL    HW119863   9.098  13.269   5.435 -0.3852  1.0248  1.3804
33957SOL    HW219864   9.086  13.121   5.467  0.0445  0.3269 -1.4103
33958SOL     OW19865  13.158   5.653  11.252  0.3262  0.1693  0.4627
33958SOL    HW119866  13.079   5.681  11.206  1.1478  0.1398 -1.0064
33958SOL    HW219867  13.128   5.586  11.313 -0.8161  0.3292  0.0959
33959SOL     OW19868   2.342   4.979   0.079 -0.7982  0.1350  0.5834
33959SOL    HW119869   2.358   4.909   0.142 -0.1950 -0.6575 -0.4340
33959SOL    HW219870   2.350   5.059   0.131 -1.4892 -0.5264  1.7555
33960SOL     OW19871  12.737   7.371  11.572 -0.3905  0.1943 -0.1127
33960SOL    HW119872  12.692   7.287  11.561  0.7687 -0.3115 -1.2558
33960SOL    HW219873  12.781   7.364  11.657  0.5839 -0.8059 -0.6790
33961SOL     OW19874  12.217   1.853   0.336  0.4509 -0.0756  0.3849
33961SOL    HW119875  12.202   1.765   0.303 -0.5851 -0.6033  2.1142
33961SOL    HW219876  12.308   1.852   0.366  1.7260  0.7083 -3.0921
33962SOL     OW19877  12.455   0.785  13.109 -0.0914  0.1983  0.4423
33962SOL    HW119878  12.417   0.843  13.044 -1.3609 -0.4535  0.5518
33962SOL    HW219879  12.446   0.833  13.192 -1.0180 -0.0693  0.5143
33963SOL     OW19880   7.305   3.588   4.096  0.2518  0.4677 -0.5384
33963SOL    HW119881   7.298   3.595   4.001 -0.9199  0.4507 -0.4724
33963SOL    HW219882   7.335   3.499   4.112  0.9006  0.6209 -0.9081
33964SOL     OW19883   1.315  10.019   5.669  0.0575 -0.1526 -0.5578
33964SOL    HW119884   1.315  10.047   5.761  1.9648 -1.4740 -0.0765
33964SOL    HW219885   1.355  10.093   5.622  2.4847 -0.8119  0.2846
33965SOL     OW19886   7.694  12.380   0.824 -0.2986 -0.5421 -0.6496
33965SOL    HW119887   7.696  12.284   0.834  2.4718 -0.5119 -0.1618
33965SOL    HW219888   7.634  12.395   0.751 -1.1031 -2.6059 -0.4899
33966SOL     OW19889   8.496  12.178   6.125 -0.3374  0.0918 -0.3015
33966SOL    HW119890   8.591  12.189   6.128 -0.1924 -1.1192  1.1462
33966SOL    HW219891   8.468  12.226   6.047  1.5918 -0.4743 -1.4137
33967SOL     OW19892  13.595  12.683   5.950  0.1904  0.1193 -0.2293
33967SOL    HW119893  13.656  12.747   5.914 -0.3588  0.4921 -0.5114
33967SOL    HW219894  13.651  12.613   5.984  0.9713  1.8770  2.4381
33968SOL     OW19895   7.250   1.624  11.249  0.2364 -0.3304  0.3165
33968SOL    HW119896   7.323   1.570  11.279  1.8854  0.8715 -1.2987
33968SOL    HW219897   7.291   1.693  11.196 -1.8755  1.6868  1.1057
33969SOL     OW19898   0.967  13.662   7.839 -0.3911 -0.2151 -0.6924
33969SOL    HW119899   1.049  13.645   7.885 -0.5330  0.0499 -0.3344
33969SOL    HW219900   0.993  13.708   7.759 -0.1018 -1.1216 -1.1300
33970SOL     OW19901   9.651  13.511   6.892  0.1298 -0.1015  0.3226
33970SOL    HW119902   9.667  13.493   6.799  0.8350 -0.1398  0.4449
33970SOL    HW219903   9.559  13.487   6.906  0.0680 -0.2547 -0.3277
33971SOL     OW19904   1.378   9.234   0.301  0.1293  0.0532 -0.1194
33971SOL    HW119905   1.290   9.259   0.330  1.7150  4.2116  1.8903
33971SOL    HW219906   1.392   9.285   0.222  0.6702 -0.7903 -0.5768
33972SOL     OW19907   2.331   4.026   6.042  0.2707 -0.2249 -0.2329
33972SOL    HW119908   2.290   4.023   6.128 -0.6147 -1.5583 -0.6682
33972SOL    HW219909   2.339   3.934   6.016  0.5922  0.1509 -1.5430
33973SOL     OW19910  11.342  12.258   5.342  0.0664  0.3723 -0.6183
33973SOL    HW119911  11.420  12.314   5.339  0.9730 -0.7888  0.0244
33973SOL    HW219912  11.337  12.219   5.255  1.1498 -0.7288 -0.2175
33974SOL     OW19913   7.367   8.778   8.703 -0.1483 -0.4985  0.2176
33974SOL    HW119914   7.278   8.772   8.668  0.1495 -0.2379 -0.6135
33974SOL    HW219915   7.400   8.862   8.670  1.2047 -1.6264 -1.4271
33975SOL     OW19916   4.908   7.270   8.063 -0.0748 -0.2397 -0.0876
33975SOL    HW119917   4.849   7.315   8.124 -1.2294 -0.3089 -1.0955
33975SOL    HW219918   4.895   7.177   8.082  0.7930 -0.2211  0.6392
33976SOL     OW19919   9.616  13.074   7.109  0.2533 -0.1638 -0.3898
33976SOL    HW119920   9.693  13.090   7.163 -0.1536  0.4520  0.0215
33976SOL    HW219921   9.545  13.059   7.171 -0.1379  0.1442 -0.7527
33977SOL     OW19922  10.420  13.451   7.022 -0.0958  0.1954  0.4261
33977SOL    HW119923  10.412  13.530   6.969  0.4345  1.0663  1.6181
33977SOL    HW219924  10.514  13.433   7.025 -0.0314  0.7234  1.8754
33978SOL     OW19925   0.252   4.339   4.467 -0.0368  0.1855 -0.3140
33978SOL    HW119926   0.166   4.345   4.510 -0.0738 -0.7278 -0.2252
33978SOL    HW219927   0.309   4.300   4.533  0.0855 -0.5419 -0.8358
33979SOL     OW19928  13.236  14.143   5.611 -0.1638 -0.1143  0.3949
33979SOL    HW119929  13.198  14.135   5.698 -0.1890  1.0970  0.5054
33979SOL    HW219930  13.161  14.147   5.552 -0.4005  3.7277  0.7233
33980SOL     OW19931   2.294   4.723  11.873  0.4025 -0.2551  0.3908
33980SOL    HW119932   2.247   4.736  11.790  0.3115 -1.0557  0.3104
33980SOL    HW219933   2.337   4.807  11.889 -0.8964  0.4405  0.3803
33981SOL     OW19934  13.760  12.863  11.183  0.2286 -0.1991  0.4074
33981SOL    HW119935  13.773  12.927  11.112  0.3807 -0.4890  0.1726
33981SOL    HW219936  13.829  12.798  11.169 -1.7503 -2.0593 -1.1444
33982SOL     OW19937   7.087   1.748  12.002  0.3959 -0.1264  0.1641
33982SOL    HW119938   7.109   1.665  11.961 -0.3087 -0.3063  0.1412
33982SOL    HW219939   7.006   1.731  12.050  0.1476  0.5924  0.0118
33983SOL     OW19940  12.582   9.827   0.508  0.5229 -0.2069 -0.0666
33983SOL    HW119941  12.546   9.815   0.420 -0.2101 -2.1338  0.4348
33983SOL    HW219942  12.613   9.917   0.510 -1.9891  0.7615 -1.3776
33984SOL     OW19943   5.540   4.918   4.658  0.0751 -0.5331  0.3713
33984SOL    HW119944   5.521   4.830   4.628 -0.0653 -0.4327  0.1612
33984SOL    HW219945   5.513   4.975   4.586  1.1281 -0.3790  0.0832
33985SOL     OW19946   1.259  10.658   3.534 -0.2457  0.3453  0.0921
33985SOL    HW119947   1.194  10.704   3.587 -0.4382 -0.3313  0.4496
33985SOL    HW219948   1.296  10.726   3.478 -1.3571  0.7279 -0.2192
33986SOL     OW19949  13.997   9.721   7.012 -0.1946  0.0430  0.2765
33986SOL    HW119950  14.002   9.756   6.923  0.1064  1.4397  0.8090
33986SOL    HW219951  13.914   9.674   7.016 -1.2010  1.6957 -0.1722
33987SOL     OW19952   1.890  11.260  13.047 -0.3701  0.0802 -0.4498
33987SOL    HW119953   1.868  11.172  13.079 -1.6924  1.1671  1.9173
33987SOL    HW219954   1.806  11.297  13.021  0.2226  0.5563 -1.7622
33988SOL     OW19955   9.886   9.549   7.209  0.6958  0.1835  0.2253
33988SOL    HW119956   9.850   9.491   7.142  0.8283  0.9308 -0.5173
33988SOL    HW219957   9.857   9.637   7.182  1.1466  0.5470  0.8932
33989SOL     OW19958   6.516   8.469   4.780  0.5742 -0.3571  0.5559
33989SOL    HW119959   6.477   8.507   4.859  0.0791  2.4966 -0.9166
33989SOL    HW219960   6.610   8.473   4.795  0.4781  0.0154  1.0695
33990SOL     OW19961   6.706  11.466   3.421 -0.5114 -0.1129  0.2608
33990SOL    HW119962   6.651  11.426   3.354 -0.6561 -0.3929  0.5389
33990SOL    HW219963   6.683  11.418   3.501 -0.0868 -0.0207  0.4372
33991SOL     OW19964  11.238   5.223   8.263 -0.0503  0.5842 -0.2739
33991SOL    HW119965  11.227   5.128   8.264 -0.2941  0.6117  0.0079
33991SOL    HW219966  11.267   5.244   8.174 -5.1202  0.8194 -2.1838
33992SOL     OW19967   5.344   8.594   4.229  0.3963 -0.0940  0.3374
33992SOL    HW119968   5.275   8.627   4.286 -0.0663 -0.0686 -0.2297
33992SOL    HW219969   5.300   8.573   4.147  1.3750  1.8792 -0.7742
33993SOL     OW19970  12.064   2.911   3.544 -0.2490 -0.3897  0.1932
33993SOL    HW119971  12.014   2.964   3.481 -0.7480 -0.8273  0.2152
33993SOL    HW219972  12.054   2.958   3.627  0.1643  0.0288  0.0130
33994SOL     OW19973   4.196   7.346  10.766  0.4880  0.2602  0.4314
33994SOL    HW119974   4.150   7.294  10.832 -1.1390 -1.5514 -1.9829
33994SOL    HW219975   4.127   7.373  10.705  2.2478 -0.3033 -1.9017
33995SOL     OW19976   1.643   0.564  12.254 -0.0632  0.0666 -0.1713
33995SOL    HW119977   1.719   0.603  12.297 -0.7526  1.2929 -0.0096
33995SOL    HW219978   1.579   0.552  12.325 -0.5322  0.3835 -0.5340
33996SOL     OW19979   9.058  10.844  10.079 -0.2890 -1.0891 -0.3312
33996SOL    HW119980   8.985  10.902  10.103 -0.3117 -1.0440 -0.5130
33996SOL    HW219981   9.136  10.890  10.112 -0.2506 -0.6735 -0.9907
33997SOL     OW19982  11.586   1.994   9.636  0.5247  0.4499  0.3055
33997SOL    HW119983  11.499   2.033   9.626 -0.3547 -0.6497  2.7630
33997SOL    HW219984  11.604   1.952   9.552 -0.9278  1.4132 -0.5278
33998SOL     OW19985   6.242   5.955   1.285 -0.1661  0.0112  0.0767
33998SOL    HW119986   6.264   5.961   1.192 -2.4667 -0.7253 -0.5913
33998SOL    HW219987   6.184   5.879   1.290 -0.1976  0.1360  2.1085
33999SOL     OW19988   7.569   1.038  10.390 -0.1545 -0.1868 -0.6116
33999SOL    HW119989   7.557   0.966  10.452  0.5757  0.0862 -0.1423
33999SOL    HW219990   7.612   0.997  10.315 -0.6697 -0.4410 -0.7687
34000SOL     OW19991  12.396   1.934   5.349  0.0225  0.6547  0.0254
34000SOL    HW119992  12.436   1.909   5.265  1.1013  0.9163  0.4505
34000SOL    HW219993  12.367   2.024   5.335 -1.1754  0.2158 -0.5354
34001SOL     OW19994   6.714  11.709   9.995 -0.2647 -0.0854 -0.4406
34001SOL    HW119995   6.799  11.666   9.993  0.3865  1.0935  0.4666
34001SOL    HW219996   6.687  11.705  10.087 -1.5172 -1.0379 -0.8364
34002SOL     OW19997  11.742   4.805  12.899  0.4856  0.4810  0.1878
34002SOL    HW119998  11.649   4.792  12.914  0.8260 -1.0983  1.1000
34002SOL    HW219999  11.750   4.898  12.876 -1.4717  0.3171 -1.4381
34003SOL     OW20000   1.390   3.220  13.380 -0.4191  0.0119 -0.1571
34003SOL    HW120001   1.385   3.313  13.358 -1.0802  0.0842  0.2679
34003SOL    HW220002   1.327   3.178  13.320  0.4742 -0.2858 -0.9256
34004SOL     OW20003  11.307  14.107   1.084  0.1771  0.4309 -0.4231
34004SOL    HW120004  11.287  14.018   1.112 -1.7127  0.2854 -2.0364
34004SOL    HW220005  11.300  14.105   0.989 -1.7473  2.6464 -0.4265
34005SOL     OW20006  12.267   1.105   0.221  0.6617 -0.0463  0.6734
34005SOL    HW120007  12.176   1.086   0.246  0.1159 -0.7425 -1.6537
34005SOL    HW220008  12.308   1.018   0.213  0.1468 -0.1035 -2.9240
34006SOL     OW20009  13.954   3.220   6.466 -0.4912  0.2563 -0.5743
34006SOL    HW120010  13.921   3.205   6.378 -2.0378  1.7898 -0.3016
34006SOL    HW220011  13.994   3.137   6.491  1.0673  0.1408 -3.1366
34007SOL     OW20012  12.485   7.766   3.258 -0.2371 -0.3900  0.0158
34007SOL    HW120013  12.500   7.848   3.305  0.4198 -0.5345  0.0773
34007SOL    HW220014  12.517   7.698   3.318 -0.8530 -0.7039  0.0018
34008SOL     OW20015   5.187   3.637   5.813  1.0313  0.0311  0.0609
34008SOL    HW120016   5.221   3.598   5.733 -0.1264 -0.5453 -0.1683
34008SOL    HW220017   5.143   3.716   5.785 -1.0150 -1.1315 -0.1557
34009SOL     OW20018   7.592  13.832  10.742  0.2967  0.2153 -0.2838
34009SOL    HW120019   7.555  13.761  10.795 -0.8471  1.8780  1.2816
34009SOL    HW220020   7.522  13.855  10.681  0.4789  0.3156 -0.4549
34010SOL     OW20021   0.341  11.857   5.336  0.1399  0.0147 -0.0088
34010SOL    HW120022   0.284  11.790   5.299  0.5213 -0.4831  0.2970
34010SOL    HW220023   0.285  11.907   5.395 -0.7927  1.5575 -2.0715
34011SOL     OW20024  12.407   2.005   5.722 -0.6825 -0.2083  0.2115
34011SOL    HW120025  12.322   2.014   5.679 -0.7321 -0.4959  0.2490
34011SOL    HW220026  12.449   2.090   5.709 -0.8728 -0.1481 -0.0281
34012SOL     OW20027   5.263   5.871   7.987  0.4222  0.0389  0.2072
34012SOL    HW120028   5.231   5.832   7.906  1.9883 -1.2814  0.1854
34012SOL    HW220029   5.197   5.937   8.009 -1.5914 -1.6105 -0.5411
34013SOL     OW20030   3.309   5.163  10.004 -0.3275 -0.4804  0.1571
34013SOL    HW120031   3.353   5.097  10.057 -1.8800 -0.7017  1.2038
34013SOL    HW220032   3.216   5.140  10.007 -0.7248  0.8596 -0.7392
34014SOL     OW20033   5.956   7.091   2.717  0.2281 -0.2136 -0.1138
34014SOL    HW120034   6.021   7.026   2.691  0.4349 -0.1274  0.1945
34014SOL    HW220035   5.953   7.086   2.812 -0.6710 -0.6630 -0.1542
34015SOL     OW20036   8.263  11.059   0.929 -0.1975 -0.0922  0.1351
34015SOL    HW120037   8.294  10.973   0.959 -0.6824 -0.7252 -1.1199
34015SOL    HW220038   8.321  11.121   0.972  0.1694 -1.0396  1.0720
34016SOL     OW20039   3.583   1.382   3.752 -0.4399 -0.2508  0.0063
34016SOL    HW120040   3.587   1.448   3.822  1.4327 -1.4536  1.1290
34016SOL    HW220041   3.491   1.383   3.724 -0.8241  1.6513  1.1008
34017SOL     OW20042  10.310  11.099  13.752  0.0782  0.2293 -0.0796
34017SOL    HW120043  10.321  11.035  13.822 -1.3185 -0.0885 -0.1281
34017SOL    HW220044  10.389  11.090  13.698  0.6544 -0.2880  0.8159
34018SOL     OW20045   1.914   7.860  10.241 -0.4897  0.2193 -0.3062
34018SOL    HW120046   1.899   7.946  10.202 -1.3820 -0.5569 -1.8051
34018SOL    HW220047   1.990   7.871  10.297 -0.0968  1.7978 -1.1004
34019SOL     OW20048   4.775  13.722   4.169  0.0475 -0.0807  0.0927
34019SOL    HW120049   4.725  13.656   4.121  0.4325  0.3665 -0.9359
34019SOL    HW220050   4.716  13.798   4.174  0.0317 -0.1041  0.2729
34020SOL     OW20051   0.724   2.674   7.737 -0.3456  0.4339 -0.2107
34020SOL    HW120052   0.726   2.650   7.830  0.4962 -0.8164 -0.5246
34020SOL    HW220053   0.661   2.746   7.732  0.6228  1.4640  1.5372
34021SOL     OW20054   6.178   9.856   2.842 -0.1595 -0.0806 -0.7026
34021SOL    HW120055   6.206   9.857   2.750  0.2729  1.1323 -0.5718
34021SOL    HW220056   6.090   9.894   2.841  0.5940  1.7533 -0.4109
34022SOL     OW20057   2.902   3.438   3.264  0.2996  0.1168  0.4763
34022SOL    HW120058   2.856   3.359   3.294  3.0469 -1.3843  1.1288
34022SOL    HW220059   2.975   3.447   3.325  1.2758  1.9372 -0.8829
34023SOL     OW20060  13.657  11.811  12.591 -0.8508 -0.1815  0.1237
34023SOL    HW120061  13.682  11.753  12.519  1.1440  1.1908 -0.3596
34023SOL    HW220062  13.740  11.838  12.630 -1.8203  0.6793  1.6898
34024SOL     OW20063   0.570   6.945   7.456 -0.2274 -0.4291  0.1624
34024SOL    HW120064   0.489   6.897   7.441 -0.5980  0.7237 -1.8837
34024SOL    HW220065   0.635   6.902   7.401  0.1714 -0.3796  0.5873
34025SOL     OW20066  11.422   8.232  12.289  0.0390 -0.2164 -0.3142
34025SOL    HW120067  11.490   8.207  12.227  0.0760  0.3091 -0.4856
34025SOL    HW220068  11.381   8.309  12.251  2.0578  2.0316  1.6882
34026SOL     OW20069   9.630   9.367   6.294  0.2396 -0.0994  0.1671
34026SOL    HW120070   9.717   9.399   6.275 -0.0728  0.1330 -0.9418
34026SOL    HW220071   9.585   9.440   6.336  0.9692 -0.6515  1.9771
34027SOL     OW20072   5.961   0.638   2.865 -0.2126  1.0266 -0.3636
34027SOL    HW120073   6.024   0.569   2.843 -0.2422  1.2411 -1.1702
34027SOL    HW220074   5.894   0.630   2.797 -2.5675 -1.0161  2.0253
34028SOL     OW20075  10.659   3.491  13.695 -0.2188 -0.1900 -0.3958
34028SOL    HW120076  10.689   3.401  13.698 -1.8835 -0.7605  0.9168
34028SOL    HW220077  10.663   3.520  13.787 -0.8670  0.6413 -0.6160
34029SOL     OW20078   9.374   7.676   5.569 -0.5251  0.4074 -0.2475
34029SOL    HW120079   9.410   7.739   5.507  0.4837  0.3970  0.3072
34029SOL    HW220080   9.432   7.682   5.646 -2.2463  1.0673  1.0685
34030SOL     OW20081  10.709   9.670  10.532 -0.1295  0.9320 -0.5041
34030SOL    HW120082  10.781   9.701  10.587  0.3467 -1.3457  0.2417
34030SOL    HW220083  10.633   9.718  10.564  0.5252  1.2265  0.6800
34031SOL     OW20084   6.258   4.365  10.120  0.7568 -0.5476  0.3750
34031SOL    HW120085   6.188   4.385  10.058  1.4756 -3.2021 -1.4490
34031SOL    HW220086   6.217   4.376  10.206 -0.8538  1.3127 -0.5549
34032SOL     OW20087   7.882  11.977   2.282 -0.0771  0.0259 -0.0402
34032SOL    HW120088   7.881  11.929   2.199  2.0110  2.5837 -1.6981
34032SOL    HW220089   7.837  12.060   2.262  0.0891  0.5181  1.4974
34033SOL     OW20090   2.647  10.834   3.047 -0.2988  0.0676 -0.1146
34033SOL    HW120091   2.562  10.875   3.032  0.1896  1.0560 -0.2862
34033SOL    HW220092   2.708  10.907   3.052  0.7558 -0.6919 -1.3872
34034SOL     OW20093  10.071   0.905   6.251 -0.1423 -0.2336 -0.6067
34034SOL    HW120094  10.074   0.956   6.332 -0.2801  0.2618 -0.9125
34034SOL    HW220095  10.071   0.970   6.181  1.4921 -0.6816 -1.0667
34035SOL     OW20096   8.781  13.705  11.486  0.2046  0.4159  0.9000
34035SOL    HW120097   8.791  13.665  11.400 -0.6085 -0.7349  1.3192
34035SOL    HW220098   8.864  13.750  11.501 -0.0439  1.6152 -0.9505
34036SOL     OW20099   0.705  10.351  13.825 -0.6607  0.7670 -0.1292
34036SOL    HW120100   0.652  10.345  13.904  0.0854  2.3758  0.5373
34036SOL    HW220101   0.758  10.271  13.826 -1.6498  0.1005  0.2331
34037SOL     OW20102   7.492   2.775   2.087 -0.1401  0.5132 -0.6542
34037SOL    HW120103   7.538   2.745   2.165  0.5578  0.7379 -0.9722
34037SOL    HW220104   7.472   2.695   2.039 -1.0707  0.3251  0.0120
34038SOL     OW20105   2.464  10.487  11.424 -0.6964  0.8185  0.0030
34038SOL    HW120106   2.504  10.455  11.505  0.8096  0.4714 -0.8250
34038SOL    HW220107   2.378  10.446  11.422 -1.3283  1.9328  2.0725
34039SOL     OW20108   3.082  11.177  10.341  0.4631  0.4183 -1.4095
34039SOL    HW120109   3.023  11.112  10.379  2.0378 -1.0164 -1.3159
34039SOL    HW220110   3.029  11.256  10.334 -1.4450 -0.7978 -1.3060
34040SOL     OW20111   3.076   1.154   8.804  0.9630 -0.8708 -0.3163
34040SOL    HW120112   3.043   1.215   8.869 -0.6669 -0.8440 -1.1130
34040SOL    HW220113   3.103   1.210   8.730 -3.0644 -1.0581 -2.1842
34041SOL     OW20114   0.922   8.070  12.685  0.2932  0.0957 -1.0026
34041SOL    HW120115   0.974   8.122  12.746 -0.5145  2.2653 -2.0690
34041SOL    HW220116   0.937   8.111  12.600 -0.5841 -1.2866 -1.8585
34042SOL     OW20117  10.659   6.154   3.058 -0.7973 -0.3222  0.0412
34042SOL    HW120118  10.691   6.245   3.062 -0.1869 -0.2912 -3.1801
34042SOL    HW220119  10.564   6.162   3.050 -0.9193 -0.0970  1.3854
34043SOL     OW20120  11.682   2.121  13.764  0.1581  0.4853 -0.3192
34043SOL    HW120121  11.621   2.164  13.824 -2.4360 -1.5040 -1.3217
34043SOL    HW220122  11.677   2.172  13.683 -0.8517 -0.1353 -0.6602
34044SOL     OW20123  13.459   3.755   6.649  0.6160 -0.1744  0.0153
34044SOL    HW120124  13.522   3.759   6.577 -0.9299  0.4504 -1.3600
34044SOL    HW220125  13.497   3.810   6.717  0.5370  2.1155 -1.6726
34045SOL     OW20126   0.212   6.182  12.849 -0.2244  0.3668  0.1298
34045SOL    HW120127   0.194   6.203  12.941 -2.3565 -0.7913  0.0512
34045SOL    HW220128   0.126   6.185  12.808  0.5713 -0.1285 -1.6325
34046SOL     OW20129   6.132   1.241  13.716 -0.2397 -0.0651  0.0180
34046SOL    HW120130   6.211   1.220  13.765  0.0668 -1.5647 -1.0611
34046SOL    HW220131   6.114   1.163  13.663 -0.4135  1.5064 -2.4082
34047SOL     OW20132   4.867   6.730  13.512 -0.0125 -0.2680 -0.0793
34047SOL    HW120133   4.883   6.763  13.601 -0.6215 -1.9725  0.7146
34047SOL    HW220134   4.803   6.790  13.475 -0.4088 -0.0205  0.9649
34048SOL     OW20135   0.531   8.187   8.272 -0.1410  0.8876 -0.0800
34048SOL    HW120136   0.619   8.215   8.296 -0.0216  0.4599 -0.0163
34048SOL    HW220137   0.498   8.256   8.215  0.3930  0.8401 -0.4477
34049SOL     OW20138   0.500  12.287  11.429 -0.2470 -0.5788  0.0176
34049SOL    HW120139   0.507  12.315  11.338  0.2719 -0.9583 -0.0632
34049SOL    HW220140   0.567  12.220  11.439  1.2838  1.0443  1.2770
34050SOL     OW20141   0.566  14.100   0.443  0.6112 -0.0378  0.0587
34050SOL    HW120142   0.648  14.055   0.424  1.2997  0.9451  0.6142
34050SOL    HW220143   0.514  14.035   0.492  0.8227 -0.8472 -0.7624
34051SOL     OW20144  13.315   1.402   2.009 -0.0094 -0.3589 -0.0123
34051SOL    HW120145  13.391   1.423   2.063 -0.4722  2.0405 -0.1979
34051SOL    HW220146  13.331   1.446   1.926 -1.5994  0.2068 -0.0512
34052SOL     OW20147   2.189  10.228   3.024 -0.2447  0.0624  0.6271
34052SOL    HW120148   2.108  10.184   3.051 -0.8551  0.5429 -0.3661
34052SOL    HW220149   2.207  10.291   3.093  0.0216 -0.9507  1.5086
34053SOL     OW20150   7.049   4.533   1.766 -0.0125  0.0835  0.3073
34053SOL    HW120151   7.131   4.489   1.787  0.3260  0.2527 -0.6481
34053SOL    HW220152   7.043   4.604   1.830  1.4341  1.1356 -0.6822
34054SOL     OW20153   9.274   9.600   0.372  0.5522 -0.3909 -0.2085
34054SOL    HW120154   9.191   9.599   0.325  0.9177 -0.3431 -0.8684
34054SOL    HW220155   9.277   9.686   0.414  0.1248 -0.5176  0.0791
34055SOL     OW20156   5.015  13.244   8.321  0.4901  0.3856 -0.0678
34055SOL    HW120157   4.929  13.285   8.312  0.7703  0.9116 -0.3884
34055SOL    HW220158   5.004  13.181   8.392  0.0984  1.1578  0.5784
34056SOL     OW20159   3.450   0.727   8.878 -0.3226 -0.6444 -0.5785
34056SOL    HW120160   3.520   0.686   8.929  1.7988 -0.2263 -2.9419
34056SOL    HW220161   3.370   0.691   8.915  0.9069  0.3903  3.6404
34057SOL     OW20162   8.164  12.098   0.203 -0.0339 -0.1685 -0.2898
34057SOL    HW120163   8.229  12.097   0.273  0.5486 -1.5585 -0.8057
34057SOL    HW220164   8.213  12.120   0.124 -0.5500  0.6594 -0.3877
34058SOL     OW20165   9.421   3.223   1.422  1.0332  0.5442 -0.2212
34058SOL    HW120166   9.459   3.225   1.510  2.3403  1.9664 -0.7599
34058SOL    HW220167   9.483   3.274   1.369  0.7119 -0.9957 -2.1570
34059SOL     OW20168   9.394   0.531   0.967 -0.6469 -0.1696  0.3351
34059SOL    HW120169   9.433   0.499   1.048  0.9084  0.2051 -0.2284
34059SOL    HW220170   9.460   0.588   0.929 -2.5575  2.1942  0.3392
34060SOL     OW20171   9.296   4.023   9.356  0.0795  0.3366  0.4776
34060SOL    HW120172   9.217   3.992   9.314  0.8723 -0.3849 -0.5163
34060SOL    HW220173   9.344   3.944   9.381  0.6514  0.7566  0.7504
34061SOL     OW20174   5.456   0.814   7.477  0.3106 -0.0533  0.5838
34061SOL    HW120175   5.362   0.832   7.471  0.3643 -0.0963 -0.6537
34061SOL    HW220176   5.490   0.833   7.389  0.8554 -3.3565 -0.0768
34062SOL     OW20177   9.841  11.032   3.894 -0.0879 -0.1819  0.3067
34062SOL    HW120178   9.908  11.096   3.872  1.3277 -0.8135  2.5308
34062SOL    HW220179   9.760  11.083   3.902 -0.0448  0.5597 -2.6025
34063SOL     OW20180  12.754   1.321  13.353 -0.1998  0.4094  0.6154
34063SOL    HW120181  12.841   1.294  13.323  0.7358  0.2268  3.2507
34063SOL    HW220182  12.700   1.243  13.345 -0.1916  0.5355 -1.0881
34064SOL     OW20183   4.515   0.703  10.261  0.3097  0.0621 -0.1579
34064SOL    HW120184   4.521   0.613  10.293  1.6099 -0.6031 -2.0991
34064SOL    HW220185   4.517   0.757  10.340 -1.9384 -1.5941  1.1576
34065SOL     OW20186  13.799   7.758   7.198  0.1041  0.1844  0.2699
34065SOL    HW120187  13.820   7.851   7.197 -0.1769  0.2541  0.4761
34065SOL    HW220188  13.884   7.714   7.193  0.2439  0.4524  0.2477
34066SOL     OW20189   8.392  10.752   6.754 -0.2884  0.4866 -0.2825
34066SOL    HW120190   8.402  10.840   6.790 -1.1135  0.3520  0.2929
34066SOL    HW220191   8.426  10.694   6.822  0.6664  0.3736 -0.8396
34067SOL     OW20192   1.554   1.898  10.114  0.2493 -0.7286 -0.2169
34067SOL    HW120193   1.632   1.952  10.130  0.4200 -0.9747 -0.2252
34067SOL    HW220194   1.520   1.880  10.201  0.9804 -1.7720 -0.1241
34068SOL     OW20195   8.677  10.693  11.177 -0.3989 -0.3979  0.2974
34068SOL    HW120196   8.757  10.713  11.128  0.0646 -1.9048  0.3835
34068SOL    HW220197   8.632  10.777  11.186  0.4104  0.2167 -1.1135
34069SOL     OW20198  12.483   7.585   9.909  0.0799  0.2486  0.2261
34069SOL    HW120199  12.531   7.533   9.844  1.3782  1.2069  0.3650
34069SOL    HW220200  12.457   7.522   9.976 -0.6803 -0.6373 -0.8715
34070SOL     OW20201   0.572   0.953  11.797  0.4202 -0.0082  0.3409
34070SOL    HW120202   0.528   0.983  11.718 -0.4198  0.2724  0.8985
34070SOL    HW220203   0.509   0.893  11.838 -0.1658  1.6375  1.9814
34071SOL     OW20204   3.032  13.844   7.745  0.3629  0.0215 -0.0563
34071SOL    HW120205   3.080  13.761   7.753 -0.1679 -0.4744 -1.6294
34071SOL    HW220206   3.067  13.885   7.667 -0.7842  0.3113 -0.4463
34072SOL     OW20207   8.860   3.612   7.401  0.1034 -0.0697  0.5156
34072SOL    HW120208   8.817   3.554   7.337 -0.9545 -0.8161  1.8433
34072SOL    HW220209   8.904   3.678   7.347 -0.6507 -0.7293 -0.9887
34073SOL     OW20210   8.777   0.907   7.385 -0.2984  0.2307  0.7273
34073SOL    HW120211   8.764   0.814   7.367  0.0972  0.4382 -0.8257
34073SOL    HW220212   8.844   0.909   7.453 -0.9226 -0.6225  1.3941
34074SOL     OW20213  11.676  10.329   6.414  0.6394  0.3829 -0.2114
34074SOL    HW120214  11.762  10.335   6.372  1.0923 -1.5762  0.3578
34074SOL    HW220215  11.646  10.240   6.395 -0.2448  0.2785  1.5072
34075SOL     OW20216   7.146   9.038  11.836 -0.4510  0.1511  0.5221
34075SOL    HW120217   7.215   9.100  11.814 -1.4459  1.2589  0.4276
34075SOL    HW220218   7.143   9.039  11.932  0.3453 -0.7044  0.5774
34076SOL     OW20219   5.458  12.704   5.898 -0.5039 -0.1100  0.3625
34076SOL    HW120220   5.430  12.719   5.807  1.2024 -0.4771 -0.2599
34076SOL    HW220221   5.553  12.716   5.896 -0.6186  1.6912  2.4965
34077SOL     OW20222   9.288   4.309   9.976  0.4083 -0.6468  0.1115
34077SOL    HW120223   9.242   4.228   9.954  3.3695 -2.1042 -1.3148
34077SOL    HW220224   9.357   4.281  10.036  1.8457  0.7059 -0.8467
34078SOL     OW20225  13.863   8.910   2.431  0.5146  0.2761  0.3097
34078SOL    HW120226  13.807   8.846   2.387 -1.5432  1.9336  0.3794
34078SOL    HW220227  13.908   8.860   2.499 -1.2184 -1.0430  0.5378
34079SOL     OW20228  13.907   1.194  12.965  0.0155  0.0872 -0.5239
34079SOL    HW120229  13.851   1.257  13.011 -0.0270  0.3991 -0.9987
34079SOL    HW220230  13.996   1.222  12.986 -0.0013  0.4629 -0.9372
34080SOL     OW20231   5.369   9.807  11.766  0.3941 -0.5254 -0.2929
34080SOL    HW120232   5.443   9.844  11.815  1.9570 -1.8347 -1.5369
34080SOL    HW220233   5.397   9.810  11.675 -1.9520  0.7226 -1.0352
34081SOL     OW20234   2.463  13.146   3.023 -0.0724 -0.6414 -0.0083
34081SOL    HW120235   2.399  13.098   3.076 -0.1737 -0.1096  0.3674
34081SOL    HW220236   2.547  13.106   3.046 -0.1256 -0.4799  0.4929
34082SOL     OW20237   1.647  13.923   7.843  0.9531  0.2332 -0.5205
34082SOL    HW120238   1.726  13.978   7.844  0.4942  0.9012 -0.6742
34082SOL    HW220239   1.618  13.925   7.751  0.1479  0.8860 -0.2655
34083SOL     OW20240   4.518  11.377   9.667  0.5745 -0.1442 -0.0130
34083SOL    HW120241   4.499  11.331   9.749 -0.9441 -0.4334 -0.4895
34083SOL    HW220242   4.435  11.420   9.644  1.3486  1.0346 -0.7189
34084SOL     OW20243   7.667   6.607   4.655  0.9709 -0.4468 -0.6142
34084SOL    HW120244   7.597   6.639   4.598 -2.5669 -1.7350  2.5940
34084SOL    HW220245   7.689   6.521   4.618 -3.8788 -2.9907  1.4602
34085SOL     OW20246  11.854   2.708  12.028 -0.5003 -0.4128 -0.1176
34085SOL    HW120247  11.936   2.751  12.005 -0.8434 -0.7982 -2.2252
34085SOL    HW220248  11.809   2.770  12.086  1.7431 -0.6981  2.1248
34086SOL     OW20249   5.775   9.703   3.169 -0.2022  0.3114 -0.4350
34086SOL    HW120250   5.811   9.765   3.232  0.6132  0.2501 -0.8266
34086SOL    HW220251   5.698   9.747   3.133 -1.1856 -0.0114  1.2168
34087SOL     OW20252  13.078   6.692   3.686 -0.1266  0.1098 -0.1965
34087SOL    HW120253  12.991   6.658   3.663  0.6323 -1.7650 -0.5187
34087SOL    HW220254  13.131   6.672   3.609  0.8138  0.3696  0.3790
34088SOL     OW20255  10.398   8.762   8.304  0.3324  0.9817  0.1114
34088SOL    HW120256  10.382   8.744   8.397 -1.5879 -1.4545 -0.5801
34088SOL    HW220257  10.400   8.676   8.263 -0.1318  2.0411 -2.2912
34089SOL     OW20258  13.625   6.898   6.612 -0.2263 -0.4773  0.0702
34089SOL    HW120259  13.712   6.931   6.591 -0.7932 -0.4359 -2.4441
34089SOL    HW220260  13.642   6.816   6.658  1.1306 -0.4336 -0.3017
34090SOL     OW20261   7.479   6.586   2.267  0.0841  0.3672 -0.0322
34090SOL    HW120262   7.441   6.529   2.200 -0.8940  0.8314  0.1204
34090SOL    HW220263   7.462   6.675   2.235  0.2257  0.5876  0.4961
34091SOL     OW20264  13.804  10.685  10.711 -0.4285  0.0553 -0.3825
34091SOL    HW120265  13.866  10.639  10.768  0.4838  0.9637 -0.6087
34091SOL    HW220266  13.743  10.617  10.681 -0.7220 -0.5122  1.3820
34092SOL     OW20267   8.112   0.329  11.218  0.0381 -0.2591  0.0709
34092SOL    HW120268   8.027   0.298  11.250  0.0501 -0.7259 -0.3474
34092SOL    HW220269   8.152   0.253  11.176  0.1079  0.2793 -0.8832
34093SOL     OW20270   8.207   7.729  12.459  0.9332 -0.1197  0.2052
34093SOL    HW120271   8.268   7.753  12.389  0.0771  0.0810 -0.4932
34093SOL    HW220272   8.145   7.669  12.417 -0.6547  1.3945  0.3045
34094SOL     OW20273   9.047  13.906   8.220 -0.0835 -0.1740 -0.6189
34094SOL    HW120274   8.991  13.850   8.167  0.2419 -0.3274 -0.7998
34094SOL    HW220275   9.112  13.847   8.257  0.0102  0.0182 -0.4770
34095SOL     OW20276  12.829   6.365  10.681  0.5541  0.5724  0.1428
34095SOL    HW120277  12.752   6.417  10.704  0.8833  1.2210 -0.1768
34095SOL    HW220278  12.870   6.343  10.764 -0.6250 -0.8156  0.3953
34096SOL     OW20279   4.362   8.432  13.862 -0.3248  0.6438 -0.4759
34096SOL    HW120280   4.355   8.347  13.905 -2.6680  0.7939 -0.4399
34096SOL    HW220281   4.424   8.418  13.791  0.7760 -0.5740  0.6806
34097SOL     OW20282   5.197   4.048   1.951  0.1824 -0.1639  0.3533
34097SOL    HW120283   5.221   3.961   1.981 -2.0734 -0.6601  0.9128
34097SOL    HW220284   5.150   4.087   2.024 -0.2300  0.9172 -0.4478
34098SOL     OW20285   0.633   0.939   5.131 -0.1103 -0.0795  0.1392
34098SOL    HW120286   0.561   1.001   5.120  0.4216  1.1239  2.6450
34098SOL    HW220287   0.644   0.933   5.226  3.5324  0.2942 -0.1376
34099SOL     OW20288   7.606   0.805  10.189  0.2990 -0.1551  0.0481
34099SOL    HW120289   7.608   0.732  10.251  1.9937 -1.6818 -1.7173
34099SOL    HW220290   7.579   0.766  10.106  1.8081  1.0778 -1.0812
34100SOL     OW20291  13.887  10.309   8.529  0.4812  0.2423 -0.2513
34100SOL    HW120292  13.884  10.225   8.574 -1.7570 -0.0586 -0.8583
34100SOL    HW220293  13.913  10.288   8.440 -1.0488  0.0207 -0.6714
34101SOL     OW20294  12.490  14.143   2.997 -0.0136 -0.4398 -0.0790
34101SOL    HW120295  12.400  14.162   3.026 -0.2117  0.6398 -1.3313
34101SOL    HW220296  12.481  14.069   2.937  0.0929 -1.0569  0.6474
34102SOL     OW20297   7.081   9.919   5.856 -0.0138 -0.4425  0.7510
34102SOL    HW120298   7.100   9.886   5.768  1.5330  0.1706  0.8278
34102SOL    HW220299   6.991   9.951   5.851  0.3819  0.4863 -0.8924
34103SOL     OW20300   0.102   8.206  13.731 -0.2900  0.3382 -0.2245
34103SOL    HW120301   0.138   8.151  13.661 -0.6212 -1.2199  0.7728
34103SOL    HW220302   0.050   8.272  13.685  1.3281  0.7593 -1.5336
34104SOL     OW20303   1.061   5.049   8.771  0.2273  0.4028 -0.1379
34104SOL    HW120304   1.147   5.089   8.786 -0.1976  1.8252 -1.2610
34104SOL    HW220305   1.063   5.021   8.680 -0.2843 -0.1574  0.0145
34105SOL     OW20306   0.709   0.598   5.364  0.0874 -0.5007 -0.6886
34105SOL    HW120307   0.711   0.502   5.363 -1.4857 -0.5809  0.0229
34105SOL    HW220308   0.668   0.622   5.281 -0.2946 -0.4841 -0.4952
34106SOL     OW20309   7.860   2.692   2.396 -0.2126  0.3835 -0.1257
34106SOL    HW120310   7.857   2.670   2.303 -0.0555 -0.5906  0.0895
34106SOL    HW220311   7.877   2.609   2.440  1.4742  1.1092  0.6591
34107SOL     OW20312   9.373  14.096  12.294  0.6685  0.4701  1.0199
34107SOL    HW120313   9.457  14.091  12.340  1.1999  0.6363  0.0869
34107SOL    HW220314   9.307  14.087  12.363  1.4331 -2.4005  1.5260
34108SOL     OW20315   3.615   0.846   0.239 -0.0293  0.9023  0.0912
34108SOL    HW120316   3.643   0.908   0.307  0.1383  1.0213 -0.0847
34108SOL    HW220317   3.605   0.763   0.285 -0.5448  1.1235  0.3915
34109SOL     OW20318   8.532   4.627   1.408 -0.5356  0.4932  0.5052
34109SOL    HW120319   8.559   4.593   1.323 -1.1767  0.6366  0.2414
34109SOL    HW220320   8.545   4.553   1.468  0.5103  0.5823  0.4099
34110SOL     OW20321   6.437   3.249   4.102 -0.0477 -0.3011  0.7360
34110SOL    HW120322   6.462   3.331   4.146 -0.7438  0.1961  0.2322
34110SOL    HW220323   6.347   3.265   4.073  0.5372 -0.4552 -1.2477
34111SOL     OW20324  12.380   4.063   1.336 -0.5696  0.2285 -0.5330
34111SOL    HW120325  12.430   4.026   1.263  1.4882 -2.2521  1.9085
34111SOL    HW220326  12.308   4.002   1.349 -0.9580  0.6880 -0.5117
34112SOL     OW20327   4.951  10.085   2.969  0.1791 -0.1527  0.3225
34112SOL    HW120328   4.989  10.004   3.002 -0.2921 -0.3036  0.5095
34112SOL    HW220329   4.876  10.057   2.916 -0.0623  0.1619  0.4938
34113SOL     OW20330   0.833   4.453  11.252 -0.2602  0.3856 -0.7115
34113SOL    HW120331   0.766   4.491  11.194 -0.8201 -0.1042 -0.4012
34113SOL    HW220332   0.790   4.450  11.338 -1.0449 -2.8236 -1.0781
34114SOL     OW20333  10.327   7.490   3.970  0.3634 -0.1903  0.6919
34114SOL    HW120334  10.395   7.551   3.999  0.6422 -0.7895  1.3409
34114SOL    HW220335  10.261   7.545   3.928  0.8805  0.4875  0.7570
34115SOL     OW20336   5.716  10.551  10.974 -0.3053 -0.3506 -0.4991
34115SOL    HW120337   5.764  10.545  10.891 -0.9680  1.4983 -1.0575
34115SOL    HW220338   5.665  10.632  10.967 -0.3954 -0.1562  1.7195
34116SOL     OW20339  10.932  13.026   0.403 -0.7378  0.7456  0.1810
34116SOL    HW120340  11.023  13.019   0.374 -0.5756  2.6148  0.1139
34116SOL    HW220341  10.909  12.937   0.431  1.0445  0.1984  0.0441
34117SOL     OW20342   0.876   5.232  12.812 -0.0426 -0.4517  0.5011
34117SOL    HW120343   0.907   5.211  12.724 -1.3971 -1.7242  0.2960
34117SOL    HW220344   0.831   5.315  12.802  0.8792  0.0309  0.2534
34118SOL     OW20345   0.329   4.309   7.679 -0.5992  0.7365  0.8670
34118SOL    HW120346   0.264   4.258   7.727 -1.5553  1.3620  0.2822
34118SOL    HW220347   0.396   4.332   7.744 -0.4160 -0.7902  1.2503
34119SOL     OW20348   8.438   9.679  11.246  0.7393  0.5517  0.4652
34119SOL    HW120349   8.349   9.713  11.255 -0.1368 -0.5513 -2.5750
34119SOL    HW220350   8.442   9.604  11.305 -0.0613  1.0875  1.2132
34120SOL     OW20351   6.851  11.056   9.467 -0.0733 -0.0069  0.1949
34120SOL    HW120352   6.889  11.139   9.436 -0.3045 -0.4838 -1.4884
34120SOL    HW220353   6.921  10.991   9.453  0.1504 -0.1116  1.6147
34121SOL     OW20354  10.791   2.542   2.450 -0.3937  0.0773 -0.0527
34121SOL    HW120355  10.744   2.535   2.533 -0.9629  0.1972 -0.3566
34121SOL    HW220356  10.840   2.624   2.457  1.2913 -0.9775  1.0103
34122SOL     OW20357   6.937  13.477  11.576 -0.0723 -0.1293  0.0908
34122SOL    HW120358   6.990  13.405  11.611 -2.5021 -0.6021  3.2313
34122SOL    HW220359   6.975  13.556  11.615 -1.9473 -0.5393  3.0510
34123SOL     OW20360  13.087   8.093   4.291  0.3565  0.1576  0.3032
34123SOL    HW120361  13.102   8.188   4.292  0.5325  0.1297  0.3396
34123SOL    HW220362  13.161   8.056   4.338 -0.9169  0.1440  2.4099
34124SOL     OW20363  12.201   7.627   1.356  0.5105 -0.3356 -0.1300
34124SOL    HW120364  12.216   7.556   1.294 -1.4099 -0.5725 -0.3954
34124SOL    HW220365  12.250   7.702   1.321  1.0059 -0.9966 -0.8650
34125SOL     OW20366   4.254   7.808   2.257  0.1590 -0.1443 -0.1290
34125SOL    HW120367   4.288   7.728   2.298  1.1623  0.7334  0.8112
34125SOL    HW220368   4.277   7.878   2.318 -2.1425  0.7017 -0.1201
34126SOL     OW20369   3.619  11.244   8.384 -0.6508  0.4513 -0.0184
34126SOL    HW120370   3.700  11.203   8.414 -0.9396 -1.1485 -1.2822
34126SOL    HW220371   3.636  11.266   8.293 -2.1730 -1.5205 -0.8354
34127SOL     OW20372   1.067   5.142  13.415 -0.0517  0.1106  0.7808
34127SOL    HW120373   1.147   5.089  13.411 -0.4455 -0.4827  0.7412
34127SOL    HW220374   1.046   5.147  13.509 -1.6533 -2.3113  0.6393
34128SOL     OW20375  11.410   5.707   6.604  0.1256 -0.2764  0.4328
34128SOL    HW120376  11.419   5.612   6.592  2.8211 -0.1724  1.0825
34128SOL    HW220377  11.395   5.741   6.515 -0.9005 -1.2667  0.1955
34129SOL     OW20378   7.592   6.338   1.238 -0.0198  0.3403  0.3629
34129SOL    HW120379   7.626   6.331   1.328  0.2409 -0.5484  0.1996
34129SOL    HW220380   7.664   6.309   1.183 -0.2379  0.7317 -0.1301
34130SOL     OW20381   5.588  11.871   7.079 -0.6104 -0.6686 -0.0587
34130SOL    HW120382   5.658  11.819   7.118 -0.0401  0.0552 -0.0879
34130SOL    HW220383   5.559  11.820   7.004  0.3262 -0.6905 -0.4185
34131SOL     OW20384   0.360   1.468   8.175 -0.1183  0.6000  0.4238
34131SOL    HW120385   0.349   1.486   8.081  0.6695  1.4011  0.4744
34131SOL    HW220386   0.347   1.553   8.217  2.2688  0.8294  0.7996
34132SOL     OW20387   7.048   4.896   1.445  0.2653  0.0297 -0.2111
34132SOL    HW120388   7.082   4.956   1.511  0.7043  0.8332 -1.1574
34132SOL    HW220389   7.019   4.820   1.495  0.7807  0.5393  0.8880
34133SOL     OW20390  10.062  10.730   9.178  0.5166  0.1566 -0.2327
34133SOL    HW120391  10.088  10.763   9.092 -0.0432  0.6042 -0.2400
34133SOL    HW220392   9.972  10.699   9.165 -0.4550  2.3048  0.6738
34134SOL     OW20393   7.633   3.226   4.655 -0.1152  0.4464  0.2144
34134SOL    HW120394   7.619   3.199   4.746  1.2318  0.7816  0.5447
34134SOL    HW220395   7.592   3.312   4.649  0.2306  0.6420  0.6470
34135SOL     OW20396  11.616  12.676   9.816  0.5075  0.5392  0.3741
34135SOL    HW120397  11.550  12.713   9.874  0.7833  0.3808  0.7988
34135SOL    HW220398  11.643  12.749   9.760 -1.6289  0.0983 -1.3561
34136SOL     OW20399  11.785   7.798  13.648  0.0338  0.1676 -0.3235
34136SOL    HW120400  11.768   7.893  13.642  1.1424  0.4324  0.4170
34136SOL    HW220401  11.860   7.784  13.590  0.3726 -0.1146  0.1815
34137SOL     OW20402   5.010  10.670   8.328  0.3257 -0.7041 -0.1599
34137SOL    HW120403   4.980  10.739   8.387  2.5983  0.7086 -0.4974
34137SOL    HW220404   5.071  10.618   8.380  0.5621 -0.8806 -0.6035
34138SOL     OW20405  10.620   9.114   1.376  0.5715 -0.0638 -0.9928
34138SOL    HW120406  10.579   9.054   1.439 -1.6995  1.2098 -1.1738
34138SOL    HW220407  10.711   9.085   1.372 -0.0176 -2.3358  0.2843
34139SOL     OW20408   4.420   0.129  11.636 -0.8359  0.2038  0.0236
34139SOL    HW120409   4.426   0.214  11.591  2.1684  0.5660  0.9119
34139SOL    HW220410   4.409   0.065  11.565 -1.7386  1.1864 -0.7616
34140SOL     OW20411   6.314   8.023   3.111  0.5427  0.0577  0.0096
34140SOL    HW120412   6.237   8.079   3.124  1.2793  1.1047 -0.0264
34140SOL    HW220413   6.325   7.978   3.194  1.6341  2.1495  1.0604
34141SOL     OW20414  11.283   3.174  10.872  0.0435  0.0138 -0.3865
34141SOL    HW120415  11.371   3.212  10.875  0.0325  0.0357 -0.3380
34141SOL    HW220416  11.296   3.088  10.833  0.0286  0.1813 -0.7652
34142SOL     OW20417  13.095   2.665   0.464 -0.5098 -0.2125  0.2829
34142SOL    HW120418  13.071   2.735   0.404  2.3731  0.8095  0.1388
34142SOL    HW220419  13.115   2.590   0.407  1.2544  0.4556 -0.0651
34143SOL     OW20420  11.170  13.813   5.322 -0.2778 -0.1661  0.7991
34143SOL    HW120421  11.119  13.847   5.395  0.0444 -1.5130  1.6784
34143SOL    HW220422  11.235  13.756   5.362  0.6647 -0.0333 -0.4549
34144SOL     OW20423   6.178   5.203   0.276 -0.2323  0.2233 -0.5651
34144SOL    HW120424   6.151   5.206   0.184  0.3747  0.6843 -0.7349
34144SOL    HW220425   6.271   5.225   0.274 -0.6012  2.1322  0.3192
34145SOL     OW20426  11.414   4.384  12.464  0.2583  0.3189  0.1791
34145SOL    HW120427  11.322   4.377  12.441 -0.3209 -0.0846  2.3898
34145SOL    HW220428  11.440   4.471  12.434 -0.1765 -0.3800 -2.4533
34146SOL     OW20429  10.058   8.007   4.923  0.2759  0.1608  0.0090
34146SOL    HW120430  10.084   7.915   4.914  1.6630  0.1853  2.6826
34146SOL    HW220431  10.109   8.053   4.856  1.0887 -0.7765 -0.0381
34147SOL     OW20432   5.531   0.038   1.038  0.1597 -0.1425  0.0311
34147SOL    HW120433   5.554   0.130   1.046  0.5481 -0.3790  3.5692
34147SOL    HW220434   5.436   0.036   1.043  0.1752  0.0811  0.5345
34148SOL     OW20435   9.483  11.065  12.638 -0.7430 -0.0448  0.4670
34148SOL    HW120436   9.531  11.059  12.721 -0.3108 -0.0288  0.2222
34148SOL    HW220437   9.539  11.119  12.582  0.5345 -2.6094 -0.9143
34149SOL     OW20438   3.672   8.415   0.888  0.0564 -0.2289 -0.2916
34149SOL    HW120439   3.696   8.415   0.981 -1.3210 -1.4526  0.1178
34149SOL    HW220440   3.658   8.507   0.866  0.1069  0.0521  0.8019
34150SOL     OW20441   0.163   9.675  10.622 -0.1463 -0.3431  0.6465
34150SOL    HW120442   0.161   9.711  10.710  0.0625  1.5104 -0.0557
34150SOL    HW220443   0.234   9.722  10.578  2.2471 -3.7781  0.4570
34151SOL     OW20444   9.126   1.907   3.783  0.2382  0.3016 -0.1702
34151SOL    HW120445   9.209   1.860   3.776  0.2023 -0.2110  2.1561
34151SOL    HW220446   9.067   1.860   3.723  1.8014  1.3376 -2.7158
34152SOL     OW20447  10.522   7.045   0.508  0.8671 -0.0245 -0.0048
34152SOL    HW120448  10.520   7.080   0.597  1.7105 -0.1452  0.0720
34152SOL    HW220449  10.495   6.953   0.518  0.8777 -0.0156  0.1105
34153SOL     OW20450  13.012  11.422  11.244 -0.6997 -0.5890  0.0404
34153SOL    HW120451  13.037  11.330  11.248  0.4786 -0.3644 -1.3055
34153SOL    HW220452  13.025  11.455  11.333  0.2905 -1.3769  0.2019
34154SOL     OW20453   7.551  12.305   0.170  0.0752  0.0787  0.6485
34154SOL    HW120454   7.463  12.310   0.209 -0.2108 -0.9949  0.1837
34154SOL    HW220455   7.592  12.231   0.215  1.0605  1.0811  1.4485
34155SOL     OW20456   7.354   3.149   8.394  0.1299  0.3341 -0.5653
34155SOL    HW120457   7.443   3.113   8.396  0.2130  0.5434 -0.4720
34155SOL    HW220458   7.298   3.073   8.383  0.2271  0.0354  0.7364
34156SOL     OW20459   1.752   2.915  10.735  0.7617 -0.4513  0.3175
34156SOL    HW120460   1.795   3.001  10.737  1.0581 -0.5875  0.0231
34156SOL    HW220461   1.743   2.890  10.826  0.7188 -0.1283  0.4032
34157SOL     OW20462   2.623   5.585   8.479  0.5230 -0.1269 -0.2781
34157SOL    HW120463   2.674   5.600   8.558  2.0655 -0.8375 -1.0802
34157SOL    HW220464   2.569   5.508   8.499  1.0264 -0.4017  0.0384
34158SOL     OW20465   2.374   2.410   6.660 -0.2051 -0.5902 -0.3260
34158SOL    HW120466   2.351   2.415   6.753 -0.7704 -1.1650 -0.4318
34158SOL    HW220467   2.416   2.494   6.642  0.2064 -0.6022  0.5254
34159SOL     OW20468  12.075  11.709   5.527  0.2924 -0.1245  0.1227
34159SOL    HW120469  12.157  11.757   5.543  0.2284  0.2414 -0.6222
34159SOL    HW220470  12.007  11.766   5.560  0.2039  0.3947 -0.9013
34160SOL     OW20471  12.696   7.378   5.982 -0.7478  0.2222 -0.6156
34160SOL    HW120472  12.640   7.301   5.975 -0.0377 -0.2587 -1.0864
34160SOL    HW220473  12.738   7.385   5.896  0.5818  0.0662  0.0082
34161SOL     OW20474  10.303   2.108  11.789 -0.1205 -0.1874  0.0865
34161SOL    HW120475  10.341   2.179  11.737  1.2995  0.7731  2.2908
34161SOL    HW220476  10.210   2.130  11.796  0.1477  1.0109  0.0394
34162SOL     OW20477   7.958   6.608  11.641 -0.1644 -0.2224 -0.1277
34162SOL    HW120478   7.907   6.680  11.678 -1.6114 -0.9289 -0.6744
34162SOL    HW220479   8.049   6.634  11.656 -0.5211  2.7572 -2.1777
34163SOL     OW20480   1.279   9.485   3.109  0.1411  0.4068  0.1189
34163SOL    HW120481   1.258   9.409   3.055 -1.3707  0.9401 -0.0683
34163SOL    HW220482   1.217   9.552   3.083 -0.4692  0.7870  2.3022
34164SOL     OW20483  14.022  11.651   3.506 -0.4339  0.0384 -1.1899
34164SOL    HW120484  14.064  11.693   3.430  0.8077 -1.0748 -1.1479
34164SOL    HW220485  13.993  11.725   3.560  1.7674  0.9014 -1.0741
34165SOL     OW20486   0.534   0.471  10.636  0.5472  0.3600 -0.6403
34165SOL    HW120487   0.564   0.526  10.562 -3.8328  2.2568 -1.3285
34165SOL    HW220488   0.531   0.383  10.600 -0.6788  1.1123 -2.5378
34166SOL     OW20489   0.085   0.824   4.296  0.5513 -0.3048  0.2877
34166SOL    HW120490   0.092   0.907   4.248 -0.3472  0.3521  1.2436
34166SOL    HW220491   0.136   0.762   4.244  0.2697  0.5660 -1.0889
34167SOL     OW20492   7.552   7.751   3.586  0.3886 -0.0080  0.7637
34167SOL    HW120493   7.610   7.730   3.512  0.6084  1.6936  0.4146
34167SOL    HW220494   7.522   7.666   3.617  2.3407 -0.9001  0.3670
34168SOL     OW20495  10.744  11.726  12.335 -0.0068 -0.4591 -0.6280
34168SOL    HW120496  10.824  11.701  12.290  0.8597 -0.3300  0.7932
34168SOL    HW220497  10.735  11.820  12.319  0.5390 -0.3273 -0.1947
34169SOL     OW20498  13.638   2.456   7.515 -0.2150  0.3300  0.5861
34169SOL    HW120499  13.610   2.419   7.599  2.4292 -0.0395  1.4158
34169SOL    HW220500  13.614   2.391   7.450 -0.9558 -0.0746  1.2455
34170SOL     OW20501   7.183   5.864   3.631 -0.4061  1.1585  0.2908
34170SOL    HW120502   7.227   5.884   3.714  0.7583  2.5612 -0.5952
34170SOL    HW220503   7.230   5.918   3.566 -1.3237  0.1630 -1.2655
34171SOL     OW20504   8.602   1.199   6.725 -0.2456 -0.0118  0.8269
34171SOL    HW120505   8.625   1.114   6.687 -1.0496  0.6073 -1.1315
34171SOL    HW220506   8.683   1.230   6.766  1.3402  0.2241 -2.2136
34172SOL     OW20507   4.169   9.607  10.365 -0.3335  0.0199 -0.4139
34172SOL    HW120508   4.257   9.635  10.392 -1.3493  2.5152  0.6047
34172SOL    HW220509   4.171   9.613  10.270  0.3559  0.9604 -0.3620
34173SOL     OW20510   0.562   4.369   7.818 -0.4526  0.0416 -0.3915
34173SOL    HW120511   0.546   4.366   7.912 -1.7716 -0.1768 -0.6067
34173SOL    HW220512   0.601   4.456   7.803  0.9765 -0.4086  0.5071
34174SOL     OW20513   6.446   6.029   7.837  0.0208  0.7608 -0.1375
34174SOL    HW120514   6.531   6.021   7.793  0.2725  1.6186  0.1669
34174SOL    HW220515   6.382   6.023   7.766  0.3451  0.2441 -0.3873
34175SOL     OW20516  10.858  12.314   2.154  0.4592 -0.2117  0.0835
34175SOL    HW120517  10.782  12.361   2.119  1.6819  1.3642 -0.5767
34175SOL    HW220518  10.887  12.257   2.083 -0.7151 -1.6315  0.7063
34176SOL     OW20519  14.113   1.949   9.255  0.0622  0.1659  0.3406
34176SOL    HW120520  14.183   1.890   9.228  0.3110  0.7608 -0.3231
34176SOL    HW220521  14.059   1.960   9.177 -0.4616  0.1445  0.6970
34177SOL     OW20522   3.910  13.414  10.731 -0.4071 -0.6044  0.1304
34177SOL    HW120523   4.002  13.387  10.725 -0.4363 -1.1842  1.7475
34177SOL    HW220524   3.861  13.339  10.698 -0.3799 -1.4641  1.9593
34178SOL     OW20525   6.360  12.089   6.006  0.6626  0.0034  0.0861
34178SOL    HW120526   6.273  12.117   6.034  0.8598  1.4372 -0.5950
34178SOL    HW220527   6.375  12.137   5.924  1.6913 -0.9898 -0.3361
34179SOL     OW20528   5.526   9.020  10.778 -0.2363  0.2657  0.1463
34179SOL    HW120529   5.471   9.037  10.854  1.0554  2.2606  0.7024
34179SOL    HW220530   5.515   8.926  10.761 -1.1213 -0.0746  2.3198
34180SOL     OW20531  13.483  12.207   3.022  0.3863  0.0546  0.6647
34180SOL    HW120532  13.404  12.185   2.972  0.2793  0.6938  0.5539
34180SOL    HW220533  13.542  12.248   2.959  0.4118  0.4957  0.9732
34181SOL     OW20534   8.362  11.958   2.480 -0.4502 -0.2515 -0.5507
34181SOL    HW120535   8.421  12.019   2.435 -0.3804  0.1211  0.0433
34181SOL    HW220536   8.400  11.872   2.462  0.0880 -0.0408 -0.4557
34182SOL     OW20537   3.910   4.125   2.857 -0.2792 -0.5023 -0.3221
34182SOL    HW120538   3.872   4.199   2.905 -1.1088 -0.1201 -1.5027
34182SOL    HW220539   3.872   4.047   2.897 -1.2819 -0.1735 -0.5955
34183SOL     OW20540  11.373   5.052   3.517 -0.1147 -0.6789  0.2455
34183SOL    HW120541  11.389   5.130   3.571 -0.9465 -0.5563  0.3174
34183SOL    HW220542  11.368   5.086   3.427 -1.8694 -0.4345  0.4060
34184SOL     OW20543   6.185   1.264  11.480  0.4441 -0.3617 -0.2588
34184SOL    HW120544   6.140   1.347  11.495 -1.1471 -0.7462 -2.4535
34184SOL    HW220545   6.200   1.228  11.567 -0.1984  1.5000  0.6660
34185SOL     OW20546  14.010   7.329   8.598  0.1675  0.0385 -0.2448
34185SOL    HW120547  14.086   7.374   8.636 -0.6784  0.9542  0.3985
34185SOL    HW220548  14.022   7.338   8.504  2.5229 -2.6157 -0.3446
34186SOL     OW20549   5.531   3.073  11.634 -0.0709 -0.4264 -0.5754
34186SOL    HW120550   5.568   3.081  11.546  0.5062 -1.6970 -0.4716
34186SOL    HW220551   5.456   3.013  11.623 -0.3639 -0.1170 -0.2957
34187SOL     OW20552   2.703   3.296   6.610 -0.8356 -0.7746  0.2949
34187SOL    HW120553   2.653   3.219   6.582  0.7637 -0.7150 -3.1935
34187SOL    HW220554   2.779   3.260   6.655 -1.3751 -1.0527  1.0221
34188SOL     OW20555  12.916   3.335   6.272  0.0199  0.1623  0.5717
34188SOL    HW120556  12.960   3.358   6.189 -1.0282 -0.3170 -0.1339
34188SOL    HW220557  12.973   3.269   6.311  0.0200 -0.3571 -0.2729
34189SOL     OW20558   9.102   9.932   4.207 -0.3691  0.4539 -0.0797
34189SOL    HW120559   9.190   9.939   4.245 -0.7869  1.1704  0.7834
34189SOL    HW220560   9.070   9.847   4.238 -0.0949  0.3238 -0.1511
34190SOL     OW20561  11.209   3.747   5.532 -0.2338  0.7532  0.3648
34190SOL    HW120562  11.202   3.661   5.489 -2.7323  1.9627 -1.9519
34190SOL    HW220563  11.271   3.796   5.477  2.5791  0.0764  2.6549
34191SOL     OW20564   2.676  13.147  12.568  0.2510  0.4724  0.3266
34191SOL    HW120565   2.711  13.064  12.600  0.0705 -0.2618 -1.3168
34191SOL    HW220566   2.720  13.161  12.484  0.5945  2.2701  0.7490
34192SOL     OW20567   8.287  13.246  12.040  0.0659 -0.0637 -0.6549
34192SOL    HW120568   8.212  13.280  12.088  2.6180  4.0189  1.0158
34192SOL    HW220569   8.286  13.292  11.956  0.7319  0.1626 -0.5490
34193SOL     OW20570   7.614   3.157  10.769 -0.1283  0.2016 -0.0583
34193SOL    HW120571   7.680   3.221  10.796 -1.2806  1.8168 -0.9160
34193SOL    HW220572   7.657   3.103  10.703  1.2823 -0.8519  1.6208
34194SOL     OW20573   8.229  11.264  11.214 -0.3468  0.0349 -0.1798
34194SOL    HW120574   8.258  11.355  11.207 -1.0896  0.3605  0.7345
34194SOL    HW220575   8.283  11.227  11.285 -1.3647  0.3266  0.7682
34195SOL     OW20576  10.149   6.372   5.727 -0.1101  0.0032  0.4971
34195SOL    HW120577  10.211   6.300   5.715 -0.2322 -0.3085  1.6462
34195SOL    HW220578  10.117   6.391   5.639  2.6950  1.1663 -0.3508
34196SOL     OW20579   6.895  11.313   0.798  0.8787 -0.1200  0.1271
34196SOL    HW120580   6.985  11.320   0.830  1.2323 -0.8993 -0.6704
34196SOL    HW220581   6.846  11.280   0.873  1.5624 -1.2387  0.1103
34197SOL     OW20582   6.640   9.911   1.793 -0.1059  0.5814  0.1046
34197SOL    HW120583   6.610   9.947   1.876  0.4782  0.1661  0.5033
34197SOL    HW220584   6.619   9.979   1.729  1.6949  2.0114  0.9518
34198SOL     OW20585   7.612  11.919   2.037  0.1262 -0.2544  0.3360
34198SOL    HW120586   7.645  11.890   1.952  0.2875 -0.4615  0.4692
34198SOL    HW220587   7.633  12.012   2.040 -1.0086  0.0484 -0.3823
34199SOL     OW20588   5.588   2.381   7.443 -0.3558  0.4240  0.4342
34199SOL    HW120589   5.606   2.421   7.528  0.6740  0.2392  0.3245
34199SOL    HW220590   5.675   2.369   7.404 -0.8372  0.8802 -0.8196
34200SOL     OW20591  12.118   7.774   5.314  0.4237 -0.7162 -0.0409
34200SOL    HW120592  12.029   7.797   5.288  0.2257 -1.7906 -0.3820
34200SOL    HW220593  12.151   7.851   5.360 -0.6256 -0.2524 -0.0444
34201SOL     OW20594   7.191   1.965   8.357  0.4841  0.0908 -0.1866
34201SOL    HW120595   7.185   2.030   8.428  0.1492 -0.0980 -0.0414
34201SOL    HW220596   7.281   1.973   8.325  0.5645  0.3474  0.0984
34202SOL     OW20597   3.632   1.413   1.833  0.0026  0.0005  0.0218
34202SOL    HW120598   3.648   1.359   1.911  0.6873 -1.7958 -1.2984
34202SOL    HW220599   3.711   1.402   1.780 -0.5332  1.0506 -1.0309
34203SOL     OW20600   8.554  13.294   5.226  0.2319 -0.6943 -0.2278
34203SOL    HW120601   8.637  13.299   5.273  1.5544  1.2827 -2.5481
34203SOL    HW220602   8.504  13.370   5.257  0.4741 -0.2744 -0.8426
34204SOL     OW20603  12.488   9.280   8.645  0.0225  0.2109  0.4641
34204SOL    HW120604  12.487   9.265   8.551 -1.4045  3.1927 -0.1190
34204SOL    HW220605  12.434   9.211   8.682  0.5033 -0.9324 -0.8944
34205SOL     OW20606  13.328  10.814   7.893  0.6176 -0.2031 -0.2043
34205SOL    HW120607  13.401  10.871   7.869 -0.2598  1.8713  1.6149
34205SOL    HW220608  13.369  10.732   7.921  2.0059 -0.1808 -2.0211
34206SOL     OW20609  11.581   8.101   2.612  0.8016  0.2532 -0.3908
34206SOL    HW120610  11.568   8.053   2.693 -0.8366  2.4197  0.7313
34206SOL    HW220611  11.676   8.108   2.603  1.0190 -0.0533  1.3554
34207SOL     OW20612   3.537   2.671   5.717  0.7546  0.1101 -0.5487
34207SOL    HW120613   3.444   2.674   5.695  0.7464 -0.0861 -0.5422
34207SOL    HW220614   3.580   2.653   5.633  0.8764  1.3413 -0.7645
34208SOL     OW20615   7.472   8.010  13.032  0.3865 -0.1496 -0.4024
34208SOL    HW120616   7.424   7.938  12.989  1.6676 -1.1239 -0.2596
34208SOL    HW220617   7.413   8.039  13.102 -0.5085 -0.4883 -0.9906
34209SOL     OW20618  12.544   6.563   9.699 -0.0201  0.5015  0.1297
34209SOL    HW120619  12.479   6.535   9.764 -2.5641  1.9829 -1.5924
34209SOL    HW220620  12.537   6.500   9.628 -0.7930  1.5745 -0.7708
34210SOL     OW20621   9.375   9.455   5.180  0.1963  0.0675  0.3141
34210SOL    HW120622   9.444   9.412   5.231 -0.1349  0.0879  0.7821
34210SOL    HW220623   9.357   9.536   5.227 -0.4460 -0.1372  0.4347
34211SOL     OW20624   5.560   2.700   7.382  0.0745 -0.2993 -0.5564
34211SOL    HW120625   5.511   2.778   7.357 -0.3588 -0.4920 -0.3099
34211SOL    HW220626   5.646   2.711   7.340  0.2353  0.6013 -0.0145
34212SOL     OW20627  12.866   2.697   0.667 -0.2551  0.5281  0.2907
34212SOL    HW120628  12.881   2.628   0.732 -0.9067 -0.1506 -0.2578
34212SOL    HW220629  12.943   2.694   0.610 -0.7233 -0.4381 -0.3205
34213SOL     OW20630  10.124   6.461   9.354 -0.1774  0.4156 -0.3972
34213SOL    HW120631  10.098   6.411   9.277 -1.2993  0.1236  0.1543
34213SOL    HW220632  10.097   6.407   9.428  1.0333  0.6156  0.2214
34214SOL     OW20633   0.310  13.210  12.920 -0.4280  0.3145 -0.4817
34214SOL    HW120634   0.388  13.260  12.945 -0.5821  0.5814 -0.5298
34214SOL    HW220635   0.310  13.211  12.825  0.1572 -0.7025 -0.5104
34215SOL     OW20636  13.943   1.501   0.020 -0.7265  0.0618 -0.4284
34215SOL    HW120637  13.985   1.416   0.034 -0.5507 -0.1736 -2.1982
34215SOL    HW220638  13.921   1.531   0.109 -0.9767 -1.9104  0.2419
34216SOL     OW20639  13.692  12.866   2.824 -0.2903  0.5153  0.1802
34216SOL    HW120640  13.657  12.806   2.758 -1.5864  0.8974  0.4846
34216SOL    HW220641  13.782  12.837   2.837 -1.1428 -1.9980  1.0362
34217SOL     OW20642   3.961  11.986   8.749 -0.2303  0.2141 -0.1522
34217SOL    HW120643   3.954  12.076   8.780 -0.3205  0.2491 -0.2718
34217SOL    HW220644   3.873  11.965   8.717 -0.7763 -0.6055  1.7439
34218SOL     OW20645  13.591   9.044   2.848 -0.4936  0.0873 -0.0826
34218SOL    HW120646  13.531   9.072   2.917  0.4098  0.9941  0.3529
34218SOL    HW220647  13.539   9.050   2.768 -1.3572 -0.3673  0.4218
34219SOL     OW20648   6.056   8.510   5.362  0.0510  0.2601  0.3054
34219SOL    HW120649   5.961   8.499   5.362 -0.2183  2.2304 -0.3907
34219SOL    HW220650   6.082   8.496   5.453 -1.2512  2.1628  1.0258
34220SOL     OW20651   3.569  12.031   6.171  0.2241  0.5355  0.4794
34220SOL    HW120652   3.563  11.969   6.098  0.2709  1.6602 -0.5297
34220SOL    HW220653   3.478  12.055   6.190  0.2795  1.7689 -0.6237
34221SOL     OW20654  13.682   8.778   7.518  0.0012  0.1192 -0.4086
34221SOL    HW120655  13.638   8.802   7.599 -0.3947 -0.9987 -0.2740
34221SOL    HW220656  13.619   8.723   7.471  0.6221 -0.1211 -0.9887
34222SOL     OW20657   9.869   6.653   3.502 -0.3882  0.3990 -0.5294
34222SOL    HW120658   9.872   6.638   3.597  0.2444  0.4775 -0.5337
34222SOL    HW220659   9.955   6.689   3.481 -1.0374  1.8138 -0.8993
34223SOL     OW20660  10.461   8.779   0.004  0.3542 -0.2767 -0.3512
34223SOL    HW120661  10.531   8.843   0.001 -1.0021  1.2720 -0.2964
34223SOL    HW220662  10.443   8.767   0.097 -0.6699  0.7770 -0.3837
34224SOL     OW20663  11.687  12.185   9.985  0.4828 -0.2176  0.0773
34224SOL    HW120664  11.783  12.187   9.981  0.4702  0.4255  0.0900
34224SOL    HW220665  11.659  12.217   9.899  0.2823  0.7876  0.5030
34225SOL     OW20666   3.169   7.358   3.317 -0.3168 -0.0377 -0.0713
34225SOL    HW120667   3.203   7.270   3.301 -0.0319  0.1744 -0.6633
34225SOL    HW220668   3.118   7.349   3.397 -0.4997 -0.7955 -0.2600
34226SOL     OW20669   0.615   2.539  13.856 -0.2723 -0.0213  0.3683
34226SOL    HW120670   0.602   2.632  13.874 -1.4083 -0.3526  1.4213
34226SOL    HW220671   0.661   2.537  13.773 -0.1046  1.4878  0.3897
34227SOL     OW20672  11.427   1.196   4.160 -0.5276  0.0511 -0.0778
34227SOL    HW120673  11.445   1.235   4.245 -0.9468 -0.2413  0.1468
34227SOL    HW220674  11.389   1.110   4.180 -3.1483  1.0199 -0.4967
34228SOL     OW20675   9.680   6.056   2.324  0.5079  0.1100  0.4552
34228SOL    HW120676   9.658   6.089   2.236  0.8264 -0.2720  0.2314
34228SOL    HW220677   9.635   5.972   2.330 -0.0267  0.4248  0.8993
34229SOL     OW20678   7.564   4.537  13.813 -0.1270 -0.1868 -0.3786
34229SOL    HW120679   7.526   4.605  13.758 -0.9063 -0.3381 -0.0505
34229SOL    HW220680   7.648   4.517  13.773  1.1787  2.5388  0.7543
34230SOL     OW20681   5.347  12.332   9.666  0.3564 -0.1352  0.7546
34230SOL    HW120682   5.421  12.389   9.650  0.1647  0.5069  2.0185
34230SOL    HW220683   5.356  12.261   9.602 -1.5209  3.1620 -3.6841
34231SOL     OW20684   6.535   8.918   0.729 -0.6557 -0.5199  0.6995
34231SOL    HW120685   6.572   8.831   0.745 -0.9185 -0.6800  0.4355
34231SOL    HW220686   6.531   8.925   0.634 -0.0296  0.0392  0.7036
34232SOL     OW20687   4.888  11.011   5.978 -0.4795 -0.3936  0.7458
34232SOL    HW120688   4.904  11.096   6.018 -0.2470  0.1755 -0.5100
34232SOL    HW220689   4.926  10.948   6.039 -1.5512  0.3001  2.1996
34233SOL     OW20690   0.694   2.741   4.678  0.2712 -0.1961  0.1971
34233SOL    HW120691   0.634   2.815   4.667 -0.2036 -0.4070  1.2213
34233SOL    HW220692   0.756   2.771   4.744 -0.2392 -0.8800  1.0108
34234SOL     OW20693  13.866  10.315   3.956 -0.0562  0.1748  0.1603
34234SOL    HW120694  13.784  10.333   3.911 -0.3257  2.6145  1.4277
34234SOL    HW220695  13.912  10.399   3.955  0.9533 -0.2821  2.3105
34235SOL     OW20696  11.918   2.583   3.448  0.0476  0.3560  0.3136
34235SOL    HW120697  11.970   2.599   3.527 -1.0292  0.7988  0.9492
34235SOL    HW220698  11.945   2.653   3.388  1.4167 -0.4233 -0.0139
34236SOL     OW20699   9.058   0.688  13.317 -0.0880 -0.0890  0.3555
34236SOL    HW120700   9.036   0.615  13.259 -1.2071  0.0661  0.5633
34236SOL    HW220701   9.004   0.674  13.394 -1.3421  1.6546 -0.1320
34237SOL     OW20702   3.478  12.666   4.345  0.2968  0.0686 -0.0213
34237SOL    HW120703   3.569  12.638   4.328 -0.5786 -2.5322 -0.8700
34237SOL    HW220704   3.462  12.641   4.436 -0.1125 -1.3059 -0.4356
34238SOL     OW20705   0.096   1.236   6.628  0.3824 -0.3538  0.2668
34238SOL    HW120706   0.169   1.292   6.602  0.8580 -2.1431 -2.7772
34238SOL    HW220707   0.136   1.166   6.679  0.8146 -1.1198 -1.0675
34239SOL     OW20708   2.300   4.812   8.391 -0.0377 -0.3519  0.2973
34239SOL    HW120709   2.268   4.897   8.360  2.6628  0.7307  0.1452
34239SOL    HW220710   2.305   4.822   8.486 -1.8478 -1.2155  0.5224
34240SOL     OW20711  13.221   3.035  10.974 -0.1780  0.4333  0.0887
34240SOL    HW120712  13.273   2.977  11.030 -3.1749 -0.4924  2.1820
34240SOL    HW220713  13.273   3.115  10.966  2.2545 -1.0017  0.5511
34241SOL     OW20714   6.815   2.333  14.007 -0.3996  0.5439 -0.1694
34241SOL    HW120715   6.819   2.264  14.074  1.6819 -0.5859 -1.3781
34241SOL    HW220716   6.778   2.289  13.930 -0.4547  1.1744 -0.5082
34242SOL     OW20717   3.018  12.786   4.177  0.0357  0.2488 -0.1341
34242SOL    HW120718   3.011  12.741   4.093  1.4102  0.3790 -0.3373
34242SOL    HW220719   2.961  12.736   4.236 -1.1188  0.2880 -1.1720
34243SOL     OW20720   6.185   7.718  10.262  0.4951  0.2959  0.2281
34243SOL    HW120721   6.263   7.663  10.261  0.6505  0.5071  0.5679
34243SOL    HW220722   6.187   7.762  10.347  0.2251  0.6137  0.0753
34244SOL     OW20723   8.645   0.370   3.948  0.2656 -0.1548 -0.0660
34244SOL    HW120724   8.618   0.461   3.961 -3.9741 -1.0516 -0.9911
34244SOL    HW220725   8.643   0.358   3.853 -0.8252 -1.5420  0.0994
34245SOL     OW20726  12.612  13.602   5.624  0.2436  0.4755  0.2727
34245SOL    HW120727  12.677  13.579   5.691  0.4421  0.9096  0.2294
34245SOL    HW220728  12.620  13.697   5.615  1.6031  0.2181 -1.7915
34246SOL     OW20729  10.383   1.988  13.953 -0.5178 -0.1405 -0.0117
34246SOL    HW120730  10.410   1.974  13.862 -2.0925  0.0269 -0.5229
34246SOL    HW220731  10.296   2.027  13.947 -1.6206 -2.1743  1.5913
34247SOL     OW20732  12.999  13.031   4.014  0.1530 -0.0419 -0.2242
34247SOL    HW120733  13.076  13.009   4.067 -0.1029  0.0141  0.1783
34247SOL    HW220734  12.967  12.946   3.983 -2.6556 -0.7804  3.8549
34248SOL     OW20735  11.793   8.006   1.282 -0.1561 -0.3839  0.3872
34248SOL    HW120736  11.857   7.935   1.275  0.0653 -0.0374 -1.3257
34248SOL    HW220737  11.708   7.963   1.274 -0.0009 -0.3851 -1.9280
34249SOL     OW20738  10.748   4.705   4.923 -0.4706 -0.0358  0.1544
34249SOL    HW120739  10.819   4.704   4.987  0.5799  2.0684 -0.8565
34249SOL    HW220740  10.780   4.654   4.850 -0.8006 -0.6675  0.4439
34250SOL     OW20741  11.754   6.233   9.317  0.1854  0.2955  0.0929
34250SOL    HW120742  11.807   6.263   9.244  0.2303  0.9954  0.4066
34250SOL    HW220743  11.684   6.298   9.324  0.0825  0.1386  0.5565
34251SOL     OW20744   8.490  10.478   4.516  0.1720 -0.3338 -0.5344
34251SOL    HW120745   8.435  10.531   4.458 -2.5627 -0.8756  1.3791
34251SOL    HW220746   8.446  10.394   4.521  2.0171 -1.3301 -0.0343
34252SOL     OW20747   7.237  13.084   5.900  0.6038  0.4311 -0.1891
34252SOL    HW120748   7.268  12.994   5.913  2.6922  1.2339  0.7814
34252SOL    HW220749   7.216  13.115   5.988 -1.3277  0.5346 -0.6439
34253SOL     OW20750  10.093   9.820   6.478 -0.3939  0.3787  0.3075
34253SOL    HW120751  10.023   9.768   6.440  1.8298 -1.0208 -2.2154
34253SOL    HW220752  10.094   9.901   6.427  1.2232 -0.6053 -1.3572
34254SOL     OW20753  10.449   8.398  13.308 -0.5639  0.4461  0.2398
34254SOL    HW120754  10.529   8.446  13.327 -0.7830  0.4402  1.1927
34254SOL    HW220755  10.459   8.314  13.354  0.2900 -0.9374 -2.2538
34255SOL     OW20756   4.192   8.990  13.327  0.1856  0.0981 -0.0700
34255SOL    HW120757   4.115   8.972  13.273 -0.0979  2.4024 -0.5574
34255SOL    HW220758   4.156   9.013  13.413  0.5718 -2.2452  0.7896
34256SOL     OW20759  11.914  12.299   7.363  0.6393  0.1925 -0.2208
34256SOL    HW120760  11.999  12.331   7.332  0.4628  0.5654 -0.3293
34256SOL    HW220761  11.875  12.375   7.407  0.2991  0.0677 -0.3057
34257SOL     OW20762   5.920   3.238   9.617 -0.0374  0.1195  0.1303
34257SOL    HW120763   5.971   3.288   9.682 -0.1191 -0.3699  0.5741
34257SOL    HW220764   5.947   3.147   9.630 -1.6512 -0.2776  0.9741
34258SOL     OW20765  13.083   4.768   5.628  0.0948 -0.5100 -0.4026
34258SOL    HW120766  13.154   4.763   5.692 -1.2193 -0.2040  1.1702
34258SOL    HW220767  13.046   4.855   5.640  0.5022 -0.0278 -2.4027
34259SOL     OW20768   6.448  12.599  10.270 -0.4203 -0.0044  0.0227
34259SOL    HW120769   6.485  12.582  10.183  0.6299  1.0026  0.2548
34259SOL    HW220770   6.354  12.594  10.257 -0.2575 -1.6043 -0.8110
34260SOL     OW20771   2.545   6.857   0.051 -0.5096  0.1293 -0.5108
34260SOL    HW120772   2.560   6.806   0.130  0.2214  1.0877 -0.0049
34260SOL    HW220773   2.454   6.885   0.056 -0.9718 -1.2410 -0.8836
34261SOL     OW20774   0.774   5.351  14.034 -0.1764  0.5556  0.2362
34261SOL    HW120775   0.770   5.439  14.071 -3.3947  0.4387  0.3994
34261SOL    HW220776   0.750   5.362  13.942 -0.7765 -0.1406  0.3018
34262SOL     OW20777   4.198   1.114  12.464 -0.2705  0.0681 -0.0080
34262SOL    HW120778   4.197   1.119  12.559 -2.5122  0.0117  0.0446
34262SOL    HW220779   4.156   1.195  12.435  0.8999  0.3484 -0.9846
34263SOL     OW20780  13.895  11.791  12.708  0.3356  0.4775 -0.3747
34263SOL    HW120781  13.884  11.814  12.800  2.4928 -1.2405  0.3950
34263SOL    HW220782  13.917  11.698  12.709  2.1276  0.7957 -2.4597
34264SOL     OW20783   1.522  14.069   4.798  0.1166 -0.0884 -0.3565
34264SOL    HW120784   1.445  14.034   4.751 -1.7552 -0.1140  2.4884
34264SOL    HW220785   1.510  14.164   4.794  0.9075 -0.0091 -1.3222
34265SOL     OW20786   7.076   0.522   0.940  0.3292 -0.5088 -0.2897
34265SOL    HW120787   7.001   0.467   0.921  0.5507 -1.1322  0.5840
34265SOL    HW220788   7.054   0.566   1.023  0.2516  0.5503 -0.8555
34266SOL     OW20789  13.411  11.462   6.611  0.1678  0.0859  0.6563
34266SOL    HW120790  13.343  11.399   6.634 -0.2748 -0.3388 -1.5335
34266SOL    HW220791  13.376  11.547   6.638 -1.6385 -0.0346 -1.0607
34267SOL     OW20792  13.924   9.738   6.449 -0.2685  0.0154  0.1650
34267SOL    HW120793  13.847   9.717   6.396 -0.1135  1.3599 -0.6319
34267SOL    HW220794  13.937   9.832   6.437  0.9898 -0.0279  0.9820
34268SOL     OW20795   0.775   2.117   3.741  0.1485  0.8305  0.3130
34268SOL    HW120796   0.722   2.121   3.661  1.3927 -1.6247 -0.7480
34268SOL    HW220797   0.745   2.037   3.785  1.1944  0.7976  0.9977
34269SOL     OW20798  12.572   3.318  12.540 -0.4382  0.1930 -0.4088
34269SOL    HW120799  12.519   3.394  12.519 -1.1377 -0.9107 -3.0165
34269SOL    HW220800  12.557   3.257  12.468  1.3669 -1.7623  0.7418
34270SOL     OW20801  11.630   8.140   4.626 -0.1710  0.2612  0.4045
34270SOL    HW120802  11.589   8.098   4.701  0.3856 -1.4961 -0.2322
34270SOL    HW220803  11.561   8.195   4.589 -0.3029  1.6160  2.4791
34271SOL     OW20804  11.621  10.434  12.132 -0.2785 -0.2205  0.0159
34271SOL    HW120805  11.644  10.518  12.172 -0.5142  0.1767 -0.6699
34271SOL    HW220806  11.629  10.371  12.204 -0.4153  0.4285  0.6198
34272SOL     OW20807   6.387   8.547   6.473 -0.6404  0.1209  0.1805
34272SOL    HW120808   6.406   8.639   6.492  1.3605  0.0150 -1.0094
34272SOL    HW220809   6.346   8.514   6.552 -0.6983  1.8510  0.9141
34273SOL     OW20810   5.161  11.079   6.514  0.1372 -0.0793  0.3208
34273SOL    HW120811   5.107  11.001   6.529  1.7186 -1.0361  1.3877
34273SOL    HW220812   5.221  11.054   6.444 -1.9347  1.6428 -2.2565
34274SOL     OW20813   8.691   7.462   5.549 -0.0800  0.5802 -0.1535
34274SOL    HW120814   8.767   7.509   5.515 -0.2129  0.3810 -0.7442
34274SOL    HW220815   8.727   7.385   5.592  0.0708  0.6334 -0.1854
34275SOL     OW20816  13.075   9.796  13.231 -0.3594  0.1374 -0.2704
34275SOL    HW120817  12.980   9.797  13.240 -0.1911  1.1648  2.1496
34275SOL    HW220818  13.095   9.710  13.193 -2.1941 -0.4095 -0.0681
34276SOL     OW20819   7.689   4.369   2.857 -0.0270  0.0116  0.8321
34276SOL    HW120820   7.708   4.355   2.764 -0.5511 -0.0990  0.7374
34276SOL    HW220821   7.725   4.292   2.901 -0.2706 -0.2044  0.6544
34277SOL     OW20822  12.621   4.832   5.868  0.3064 -0.1081  0.1180
34277SOL    HW120823  12.604   4.909   5.813 -1.3282 -0.7056 -0.2878
34277SOL    HW220824  12.712   4.808   5.849  0.2723  0.6485 -1.1319
34278SOL     OW20825   1.603   6.279   1.266 -0.6358 -0.0096 -0.4297
34278SOL    HW120826   1.508   6.274   1.263 -0.7912  1.7278  0.3206
34278SOL    HW220827   1.623   6.368   1.235  0.7702 -0.4701 -0.9422
34279SOL     OW20828  10.682   7.004  10.560  0.6003 -0.6319 -0.2219
34279SOL    HW120829  10.695   7.063  10.634  2.3049  0.7938 -1.5568
34279SOL    HW220830  10.587   6.991  10.556  0.4549 -0.8234  2.1912
34280SOL     OW20831  10.240  13.465   8.365  0.9266 -0.4923  0.1459
34280SOL    HW120832  10.196  13.445   8.448  1.6613 -0.8221  0.4651
34280SOL    HW220833  10.287  13.547   8.382  0.1704  0.0565 -0.3060
34281SOL     OW20834   9.153   2.556  13.396  0.3560  0.1103  0.1703
34281SOL    HW120835   9.143   2.464  13.418  1.8293  0.2065  1.3820
34281SOL    HW220836   9.072   2.597  13.428  0.7804 -0.3759  1.9546
34282SOL     OW20837  11.545   0.660   4.345 -0.0863  0.0348  0.6245
34282SOL    HW120838  11.488   0.653   4.421  0.0227  0.0100  0.7042
34282SOL    HW220839  11.624   0.703   4.378 -0.5767  1.2889  0.2337
34283SOL     OW20840   6.546  14.057   0.167 -0.0783 -0.0711  0.5304
34283SOL    HW120841   6.468  14.030   0.120 -0.8058 -0.4909  1.9349
34283SOL    HW220842   6.564  13.985   0.227  0.7430  0.5102  0.9990
34284SOL     OW20843   6.473   6.594   1.457 -0.0187  0.1942  0.2458
34284SOL    HW120844   6.427   6.525   1.410 -1.9503  1.7211 -0.2255
34284SOL    HW220845   6.538   6.628   1.395 -2.6700  2.3296 -1.5814
34285SOL     OW20846   9.365   2.096   3.009  0.1746 -0.0687 -0.0428
34285SOL    HW120847   9.311   2.175   3.003  0.4742  0.0729 -1.0427
34285SOL    HW220848   9.317   2.030   2.959  0.1482 -0.3959  0.4081
34286SOL     OW20849   4.735   6.906  12.047  0.4139 -0.6935 -0.6418
34286SOL    HW120850   4.822   6.925  12.011  0.5610 -0.3208 -0.1053
34286SOL    HW220851   4.748   6.828  12.101  0.7508  0.1821  0.6065
34287SOL     OW20852   6.093   0.542  13.757 -0.0854  0.4303 -0.5279
34287SOL    HW120853   6.172   0.539  13.703 -0.8827  2.0941 -1.8747
34287SOL    HW220854   6.026   0.500  13.703 -0.4552  0.3189  0.0121
34288SOL     OW20855   8.744   6.199   8.454 -0.3982 -0.1067  0.4373
34288SOL    HW120856   8.767   6.288   8.482 -0.5726 -0.1793  0.8238
34288SOL    HW220857   8.666   6.211   8.399 -0.8253 -0.0827  1.0437
34289SOL     OW20858  11.528   2.948   7.236  0.3131 -0.2068 -0.0616
34289SOL    HW120859  11.576   2.897   7.301 -1.3748 -0.1871  1.2709
34289SOL    HW220860  11.473   2.883   7.191  0.7466 -0.0719 -0.7875
34290SOL     OW20861   5.043   3.694   4.236  0.8269 -0.3043 -0.2687
34290SOL    HW120862   5.135   3.692   4.264  1.5925 -1.5940 -2.6163
34290SOL    HW220863   4.994   3.691   4.318  2.8663 -0.2359  1.0524
34291SOL     OW20864  13.678   7.810   0.899 -0.5368  0.5612 -0.1617
34291SOL    HW120865  13.649   7.799   0.990 -2.6264  0.2759 -0.8110
34291SOL    HW220866  13.717   7.726   0.877 -1.0238  0.2426  0.1495
34292SOL     OW20867   0.713   8.749   8.475  0.1810  0.3488  0.0051
34292SOL    HW120868   0.766   8.672   8.494  0.4637  0.6095  0.2892
34292SOL    HW220869   0.725   8.764   8.381  1.0211  0.7005  0.1613
34293SOL     OW20870  12.579   3.745  11.845  0.1098  0.3159 -0.1750
34293SOL    HW120871  12.642   3.765  11.775 -0.6006  0.7801 -0.6933
34293SOL    HW220872  12.628   3.761  11.926  0.6701  0.6532 -0.5689
34294SOL     OW20873   7.005   4.707   6.204  0.0262  0.5421 -0.0856
34294SOL    HW120874   6.986   4.674   6.292  1.0001 -0.1800 -0.1418
34294SOL    HW220875   7.057   4.786   6.219 -1.3154  1.4455  0.0131
34295SOL     OW20876   5.035   4.104  13.374 -0.4619 -0.0098  0.0723
34295SOL    HW120877   5.003   4.045  13.443 -0.9670  0.3526  0.1587
34295SOL    HW220878   4.992   4.188  13.393 -1.3589 -0.1529 -1.2297
34296SOL     OW20879   6.853   2.500   2.973 -0.1666 -0.3725  0.1181
34296SOL    HW120880   6.775   2.551   2.951  0.1783 -0.2961 -1.0236
34296SOL    HW220881   6.926   2.560   2.955  0.2810 -1.4412 -1.9135
34297SOL     OW20882  12.270  12.450   3.234 -0.4840  0.1965 -0.6505
34297SOL    HW120883  12.222  12.437   3.316 -0.1799  0.0797 -0.4886
34297SOL    HW220884  12.362  12.442   3.259 -0.4205 -1.8548 -1.3375
34298SOL     OW20885  13.059   9.198   1.189  0.0037 -0.2243 -0.1971
34298SOL    HW120886  13.083   9.105   1.186  2.9091  0.3919  0.5105
34298SOL    HW220887  13.067   9.221   1.281 -1.1788  0.6300 -0.2963
34299SOL     OW20888  13.545   9.095   5.731  0.1724  0.1852 -0.0887
34299SOL    HW120889  13.530   9.176   5.780 -0.3564 -0.3954  0.7220
34299SOL    HW220890  13.461   9.048   5.735  0.1742  0.0361 -1.3948
34300SOL     OW20891  12.821   0.678  12.515 -0.3153  0.2407 -0.1302
34300SOL    HW120892  12.792   0.586  12.513  0.0285  0.1378 -0.9556
34300SOL    HW220893  12.869   0.687  12.597 -0.4127 -0.3041 -0.0116
34301SOL     OW20894   9.738  13.166   7.760  0.7003 -0.2610  0.0774
34301SOL    HW120895   9.691  13.248   7.772  0.5695 -0.1535 -1.0473
34301SOL    HW220896   9.717  13.115   7.838 -0.1158  0.3491  0.2751
34302SOL     OW20897   6.681  11.583   4.489  0.2078 -0.0566 -0.1430
34302SOL    HW120898   6.765  11.596   4.445 -0.6442  2.6685 -1.1732
34302SOL    HW220899   6.669  11.662   4.542 -1.3568 -0.7493  0.5952
34303SOL     OW20900   2.023   2.133  11.478  0.7356  0.1849 -0.6017
34303SOL    HW120901   2.042   2.222  11.446 -0.1846  0.4022 -0.5741
34303SOL    HW220902   1.964   2.146  11.552 -1.7188 -0.5048 -2.2878
34304SOL     OW20903  13.109  11.698  11.697  0.3918 -0.6101 -0.0688
34304SOL    HW120904  13.053  11.740  11.762 -0.9471 -1.7813 -0.3899
34304SOL    HW220905  13.198  11.712  11.728  0.0453  2.3124 -0.1254
34305SOL     OW20906   0.145   5.169   5.265  0.3117  0.0714 -0.0566
34305SOL    HW120907   0.059   5.210   5.252 -0.4724 -1.1925  0.8529
34305SOL    HW220908   0.207   5.229   5.223 -1.1042  0.5344 -1.6036
34306SOL     OW20909   4.451  10.348   9.563 -0.0912  0.6124 -0.2298
34306SOL    HW120910   4.459  10.262   9.605 -3.1033  0.6811  0.7807
34306SOL    HW220911   4.540  10.382   9.559  0.9191 -1.5932  1.4615
34307SOL     OW20912   6.805  12.230  12.015  0.2176 -0.5930 -0.5956
34307SOL    HW120913   6.804  12.177  12.095  0.9779  0.6593  0.2746
34307SOL    HW220914   6.898  12.239  11.994  0.2397  1.7214  0.2097
34308SOL     OW20915  14.143   7.941   7.681  0.1900  0.2988 -0.1542
34308SOL    HW120916  14.186   7.871   7.631 -0.2528  0.9977 -1.5868
34308SOL    HW220917  14.214   8.000   7.706  0.3697  0.1686 -0.3530
34309SOL     OW20918   5.778  11.526  12.038 -0.4628  0.2956  0.0917
34309SOL    HW120919   5.720  11.465  12.083 -0.4138  0.4954  0.4335
34309SOL    HW220920   5.808  11.479  11.960 -0.5909 -0.0352  0.2410
34310SOL     OW20921  12.010  12.255   4.973  0.4802 -0.3779 -0.2490
34310SOL    HW120922  12.022  12.176   5.028  0.1345  0.1321  0.5803
34310SOL    HW220923  12.023  12.224   4.884 -0.3527 -1.5321  0.0064
34311SOL     OW20924  10.919   8.936  12.260  0.5460 -0.0323  0.2658
34311SOL    HW120925  10.913   8.965  12.169  0.8079  1.1051  0.5904
34311SOL    HW220926  11.008   8.903  12.269 -0.1647 -2.3349 -0.4717
34312SOL     OW20927   2.055  12.267   5.448 -0.0362  0.1073 -0.7391
34312SOL    HW120928   2.015  12.337   5.499 -1.1740  0.7016 -2.3763
34312SOL    HW220929   2.109  12.313   5.383 -0.2341 -0.5536 -1.3776
34313SOL     OW20930  13.066   5.738   2.284 -0.5228 -0.3014  0.0714
34313SOL    HW120931  13.067   5.682   2.361 -0.5676  0.1490  0.4001
34313SOL    HW220932  13.134   5.702   2.227 -0.7232 -0.8391  0.1701
34314SOL     OW20933  12.246   7.825   7.105 -0.2919  0.0374 -1.3211
34314SOL    HW120934  12.196   7.745   7.124 -0.9018  0.4514 -1.1269
34314SOL    HW220935  12.190   7.875   7.045  0.2615  0.1361 -1.7551
34315SOL     OW20936  12.085   6.990  12.622  0.3833 -0.4337  0.6299
34315SOL    HW120937  12.096   6.930  12.695  0.4421 -1.2480 -0.0308
34315SOL    HW220938  12.154   6.964  12.560  0.3856  0.2921  0.3187
34316SOL     OW20939   1.300   5.183   6.183  0.2893  0.3032 -0.1449
34316SOL    HW120940   1.290   5.278   6.179 -0.4340  0.2838  0.8779
34316SOL    HW220941   1.394   5.169   6.172  0.7222  1.3029  1.8585
34317SOL     OW20942  13.158   8.867   9.859  0.1445 -0.3381 -0.1968
34317SOL    HW120943  13.138   8.892   9.769 -1.8928  0.7470  0.5070
34317SOL    HW220944  13.124   8.778   9.867 -0.2120 -0.2154 -0.3350
34318SOL     OW20945  10.314  11.520  13.246  0.0915  0.4041 -0.2272
34318SOL    HW120946  10.284  11.496  13.334 -0.0572  0.4929 -0.2520
34318SOL    HW220947  10.332  11.436  13.203  1.7859  0.3809  0.4313
34319SOL     OW20948   8.141   2.472   9.449 -0.5699  0.2529 -0.0379
34319SOL    HW120949   8.076   2.505   9.511  0.7243  2.7894  0.0983
34319SOL    HW220950   8.208   2.539   9.447  1.5251 -1.7456 -1.0318
34320SOL     OW20951   0.223  10.856   9.613  0.4627 -0.3620  0.1505
34320SOL    HW120952   0.278  10.818   9.681  1.3169 -2.0349 -1.3980
34320SOL    HW220953   0.253  10.815   9.532 -1.5227  0.4181 -1.0548
34321SOL     OW20954   7.933   7.471  12.928 -1.0305 -0.4135 -0.7429
34321SOL    HW120955   7.889   7.457  12.843 -0.9773 -1.0625 -0.6709
34321SOL    HW220956   7.883   7.541  12.969 -2.4196 -1.5532 -0.3964
34322SOL     OW20957   1.321  10.090   0.353 -0.3386 -0.1670  0.1410
34322SOL    HW120958   1.282  10.149   0.288  0.6731  1.0922  0.6441
34322SOL    HW220959   1.274  10.110   0.434 -1.4656 -1.6011 -0.1168
34323SOL     OW20960   5.214  12.579   3.041  0.0032  0.8440 -0.5269
34323SOL    HW120961   5.298  12.595   2.998  0.4827 -1.5642 -0.6102
34323SOL    HW220962   5.165  12.525   2.978 -0.5693  0.0412  0.5766
34324SOL     OW20963   4.814   6.610  12.956 -1.0566  0.3680 -0.5936
34324SOL    HW120964   4.854   6.536  12.912  0.4033  0.3827  0.6171
34324SOL    HW220965   4.790   6.577  13.042  1.1686  1.6241  0.6224
34325SOL     OW20966   4.886   5.662  10.822 -0.1774  0.1815  0.1139
34325SOL    HW120967   4.809   5.716  10.839 -1.1621 -1.2719  0.4061
34325SOL    HW220968   4.912   5.686  10.732 -1.8098 -0.2918 -0.5173
34326SOL     OW20969   0.398   8.005   5.743  0.1591  0.2226  0.4127
34326SOL    HW120970   0.372   8.026   5.653 -3.7536 -0.3173  1.2539
34326SOL    HW220971   0.444   8.083   5.773 -0.6030  1.4030 -1.2916
34327SOL     OW20972   9.541   9.633   1.128 -0.2768  0.5419 -0.3153
34327SOL    HW120973   9.548   9.612   1.035  0.0969 -0.2834 -0.1170
34327SOL    HW220974   9.619   9.592   1.167 -1.8189 -1.5517  0.7681
34328SOL     OW20975   0.581  12.785   8.116 -0.3006  0.5147  0.6545
34328SOL    HW120976   0.533  12.734   8.051 -0.6024  1.4175  0.1434
34328SOL    HW220977   0.567  12.739   8.198 -0.8454 -0.0332  0.2664
34329SOL     OW20978   0.729   1.531  11.789 -0.2577  0.0794 -0.3849
34329SOL    HW120979   0.812   1.557  11.749 -1.4152  0.8737 -2.4022
34329SOL    HW220980   0.746   1.444  11.826  1.1984 -0.2083 -1.6364
34330SOL     OW20981   7.832  11.165   2.800  0.0101  0.1743  0.3866
34330SOL    HW120982   7.882  11.141   2.722 -1.6119 -1.8251 -0.1415
34330SOL    HW220983   7.889  11.223   2.849  2.2360 -0.8208 -0.8813
34331SOL     OW20984   3.669   0.357  11.127  0.2068 -0.4307 -0.4259
34331SOL    HW120985   3.600   0.320  11.072 -2.9788  0.7329  2.4597
34331SOL    HW220986   3.728   0.283  11.144  0.5489 -1.1622 -4.0306
34332SOL     OW20987  12.143  12.910  12.290 -0.3783 -0.8078  0.4905
34332SOL    HW120988  12.079  12.899  12.219 -0.7612 -0.3267  0.7514
34332SOL    HW220989  12.107  12.861  12.363 -1.1027  0.4624  1.0324
34333SOL     OW20990   9.066  13.537  10.641 -0.3421 -0.2225  0.1839
34333SOL    HW120991   8.986  13.541  10.590 -0.4385  0.4901  0.3831
34333SOL    HW220992   9.055  13.461  10.698 -1.1369  0.2235  0.6392
34334SOL     OW20993   3.142  10.431   9.550  0.0883  0.3259 -0.6092
34334SOL    HW120994   3.112  10.341   9.567 -0.0810  0.3838 -0.5979
34334SOL    HW220995   3.062  10.479   9.530  0.3287  0.1696 -2.0079
34335SOL     OW20996   3.946   3.715   4.135 -0.4788  0.2275  0.1902
34335SOL    HW120997   3.993   3.631   4.127 -1.9429 -0.5080 -1.2769
34335SOL    HW220998   3.890   3.718   4.058 -3.5730  0.5839  2.2638
34336SOL     OW20999   7.153  12.689   8.247 -0.1713 -0.0590 -0.3795
34336SOL    HW121000   7.205  12.610   8.264 -1.1429 -0.3830  1.3217
34336SOL    HW221001   7.084  12.659   8.187 -1.6187 -1.0452  1.6323
34337SOL     OW21002   7.256   2.071   6.641  0.4781  0.2698 -0.4689
34337SOL    HW121003   7.293   2.105   6.560  2.6616  0.4421  0.5092
34337SOL    HW221004   7.279   2.138   6.707 -2.7632  1.0250  0.0646
34338SOL     OW21005   4.074   8.583   1.246  0.0037 -0.1096 -0.2345
34338SOL    HW121006   4.035   8.641   1.180  2.7493  1.1625 -0.8660
34338SOL    HW221007   4.152   8.548   1.204  0.0340 -1.9246  1.2291
34339SOL     OW21008   1.238   5.940   5.770 -0.2665 -0.2422 -0.6027
34339SOL    HW121009   1.309   5.962   5.830  0.4185  0.7132 -1.7246
34339SOL    HW221010   1.282   5.918   5.688 -1.1292 -2.3281 -0.5784
34340SOL     OW21011   8.602   3.082   1.553 -0.3025 -0.0746 -0.1639
34340SOL    HW121012   8.525   3.041   1.593 -1.9175  1.1397 -1.8623
34340SOL    HW221013   8.645   3.011   1.505 -0.5745 -0.6777  0.4612
34341SOL     OW21014   2.790   4.372   5.639  0.1081  0.2081  0.2068
34341SOL    HW121015   2.778   4.331   5.553 -0.4240  1.4579 -0.3392
34341SOL    HW221016   2.737   4.452   5.635  0.7490  0.7134  1.3975
34342SOL     OW21017   2.893   9.184   7.057  0.2388 -0.1879 -0.3870
34342SOL    HW121018   2.938   9.266   7.075 -2.4562  1.4573 -0.5920
34342SOL    HW221019   2.835   9.171   7.132 -0.4575 -1.1138 -1.0540
34343SOL     OW21020  11.554  13.943   0.598  0.0461  0.2191  0.1946
34343SOL    HW121021  11.583  13.974   0.512  1.2797  2.0504  1.2044
34343SOL    HW221022  11.566  13.848   0.594  0.4046  0.2996 -1.5238
34344SOL     OW21023   3.331  11.497   2.046  0.2869  0.5340 -0.2027
34344SOL    HW121024   3.396  11.453   2.101 -0.4804  0.9921  1.1191
34344SOL    HW221025   3.248  11.455   2.068  0.1310 -0.2774 -2.1206
34345SOL     OW21026  10.902   2.089   4.952 -0.0738 -0.4285 -0.4672
34345SOL    HW121027  10.889   1.995   4.939 -1.1283 -0.0411 -2.9231
34345SOL    HW221028  10.817   2.128   4.928  0.7561  1.2036 -0.8866
34346SOL     OW21029   2.300   6.559  13.019 -0.0423 -0.1813 -0.4913
34346SOL    HW121030   2.328   6.609  13.095  0.7120 -1.0168 -0.1959
34346SOL    HW221031   2.345   6.474  13.028 -2.2978 -1.4385 -0.2393
34347SOL     OW21032   4.172  11.584  10.176 -0.3832 -0.1268  0.1106
34347SOL    HW121033   4.108  11.529  10.132 -0.5553 -0.0278  0.2344
34347SOL    HW221034   4.122  11.630  10.244  0.2227 -1.7830  1.7913
34348SOL     OW21035   3.552   6.560  13.909  0.3932 -0.1829  0.1916
34348SOL    HW121036   3.567   6.644  13.951 -0.3364 -0.2518  0.6215
34348SOL    HW221037   3.547   6.580  13.816  0.6398  0.1856  0.2576
34349SOL     OW21038  13.769   6.532   4.999 -0.1764 -0.0348 -0.3543
34349SOL    HW121039  13.722   6.458   4.962 -0.5202 -0.9872  1.8777
34349SOL    HW221040  13.807   6.499   5.080 -0.3420  2.2082  0.7122
34350SOL     OW21041  10.621   8.082   1.137  0.5242 -0.2406  0.7130
34350SOL    HW121042  10.603   7.999   1.092 -0.5072 -1.0483  2.5109
34350SOL    HW221043  10.541   8.133   1.126 -0.3110 -1.0056  2.7061
34351SOL     OW21044   1.304   4.945  13.768 -0.0939  0.4591  0.0126
34351SOL    HW121045   1.355   4.981  13.695 -1.4507  0.6996 -0.8380
34351SOL    HW221046   1.262   4.867  13.732 -0.2101  0.1672  0.7606
34352SOL     OW21047   0.504   9.929   7.340 -0.0328  0.2936  0.4774
34352SOL    HW121048   0.476   9.910   7.250 -2.0955  1.6969  0.7752
34352SOL    HW221049   0.578   9.869   7.354 -0.9493 -1.4377 -1.4272
34353SOL     OW21050   9.380  10.853  10.591  0.1703 -0.5770  0.3172
34353SOL    HW121051   9.382  10.945  10.617  0.1456 -0.0527 -1.4068
34353SOL    HW221052   9.419  10.852  10.503  1.0776 -2.3579  0.6915
34354SOL     OW21053  13.222   9.041  11.891 -0.1672  0.7326 -0.0596
34354SOL    HW121054  13.240   9.094  11.968 -0.1544 -0.7068  0.9753
34354SOL    HW221055  13.301   8.989  11.878 -0.2317  0.8487 -0.9398
34355SOL     OW21056   6.306  10.893  13.782 -0.3467  0.2491  0.1883
34355SOL    HW121057   6.388  10.887  13.831 -1.5477  1.8560  2.5832
34355SOL    HW221058   6.331  10.927  13.697  1.6935 -1.3559  0.0735
34356SOL     OW21059   6.317  11.338  10.710  0.2151  0.2247  0.1295
34356SOL    HW121060   6.390  11.397  10.730 -1.1013  1.5714  1.2354
34356SOL    HW221061   6.240  11.384  10.742 -1.0668 -1.4455 -0.4021
34357SOL     OW21062   6.467  13.446  12.874 -0.1397  0.0129  0.5335
34357SOL    HW121063   6.504  13.513  12.932  0.1633 -0.3548  0.7633
34357SOL    HW221064   6.436  13.496  12.798 -0.6644  0.5171  1.0634
34358SOL     OW21065   6.595   9.816  13.775 -0.4580  0.2781  0.1496
34358SOL    HW121066   6.620   9.786  13.862  0.8797 -1.3712 -0.7602
34358SOL    HW221067   6.608   9.911  13.779  1.2046  0.0583  1.2583
34359SOL     OW21068   4.752   1.524   5.858 -0.3062  0.4189  0.1957
34359SOL    HW121069   4.831   1.515   5.804  1.0698  1.5356  1.9199
34359SOL    HW221070   4.710   1.438   5.852  0.7716 -0.0637 -1.1605
34360SOL     OW21071   4.765   4.492  12.623 -0.2789  0.6840 -0.1311
34360SOL    HW121072   4.815   4.550  12.565  1.0767  0.6315  0.9338
34360SOL    HW221073   4.726   4.428  12.564  0.4125  1.0990 -1.0683
34361SOL     OW21074   8.177   4.285   3.336  0.2216  0.0399 -0.4643
34361SOL    HW121075   8.188   4.202   3.383 -0.2013  1.2397  1.9133
34361SOL    HW221076   8.234   4.347   3.382 -1.8170  1.7949 -0.1195
34362SOL     OW21077   1.623  11.868   8.086  0.3129 -0.2231  0.3840
34362SOL    HW121078   1.584  11.954   8.070  1.0372  0.3193  1.3720
34362SOL    HW221079   1.717  11.882   8.080  0.4272 -1.0746  0.0040
34363SOL     OW21080  12.059  12.497   7.040 -0.4422  0.0609  0.0958
34363SOL    HW121081  12.023  12.435   6.976  0.9335 -0.4577 -0.2140
34363SOL    HW221082  12.125  12.546   6.992 -0.4725  0.7520  0.7343
34364SOL     OW21083  13.753   7.652  13.546  0.5545  0.6417 -0.3874
34364SOL    HW121084  13.742   7.557  13.537 -1.6419  0.9119 -0.9039
34364SOL    HW221085  13.722   7.671  13.635  1.3403  0.8706 -0.1457
34365SOL     OW21086   0.286   0.579   7.255 -0.4010  0.4532 -0.4430
34365SOL    HW121087   0.325   0.653   7.207  2.0650 -0.2248  0.3446
34365SOL    HW221088   0.195   0.578   7.227  0.2084  1.8941 -2.8413
34366SOL     OW21089   1.112   7.798   1.998 -0.2640 -0.2550 -0.0523
34366SOL    HW121090   1.133   7.859   1.928 -0.6005 -0.0316  0.0398
34366SOL    HW221091   1.063   7.850   2.062  1.9168  0.1126  1.4280
34367SOL     OW21092   0.874   0.792  11.345  0.0043  0.0461 -0.5811
34367SOL    HW121093   0.917   0.717  11.387 -0.1930 -0.4613 -1.2539
34367SOL    HW221094   0.785   0.761  11.327  0.2084  0.0810 -1.7422
34368SOL     OW21095   5.510   8.300   3.201  0.0127 -0.1151  0.3943
34368SOL    HW121096   5.601   8.289   3.172 -0.0087 -0.3102  0.4005
34368SOL    HW221097   5.513   8.281   3.295 -0.1036 -0.5011  0.3209
34369SOL     OW21098   2.549  11.239   7.442 -0.3647 -0.5827  0.3044
34369SOL    HW121099   2.488  11.176   7.481 -2.7016  0.8998 -0.7360
34369SOL    HW221100   2.580  11.292   7.516  0.6051 -2.0234  0.9949
34370SOL     OW21101   1.260   5.022  11.771 -0.2360 -0.6301  0.2195
34370SOL    HW121102   1.208   4.945  11.751  0.5127 -1.3058  0.8427
34370SOL    HW221103   1.202   5.077  11.824 -0.7231 -0.8149 -0.1167
34371SOL     OW21104   7.575   2.364   3.607 -0.4944  0.7897 -0.4320
34371SOL    HW121105   7.577   2.288   3.548  2.3751  0.9687 -0.7272
34371SOL    HW221106   7.644   2.421   3.574  0.5086  1.4091  2.4553
34372SOL     OW21107   5.248   2.182   5.292 -0.1419 -0.6034  0.0305
34372SOL    HW121108   5.188   2.145   5.356  0.2880 -1.2398  0.0725
34372SOL    HW221109   5.304   2.109   5.266  0.6166 -0.0242 -0.0050
34373SOL     OW21110   1.913   9.533   0.079  0.2444 -0.2433  0.3579
34373SOL    HW121111   1.888   9.528   0.171  0.0506 -1.4805  0.2607
34373SOL    HW221112   1.955   9.618   0.069 -1.7602  0.9077  1.0849
34374SOL     OW21113   1.311   1.978   1.536 -0.3823 -0.3850  0.1462
34374SOL    HW121114   1.230   1.988   1.586 -0.4981 -0.0521 -0.1030
34374SOL    HW221115   1.292   2.020   1.452  0.1267 -0.0945  0.1740
34375SOL     OW21116  12.838  10.559   5.680 -0.1897 -0.1821 -0.4239
34375SOL    HW121117  12.925  10.562   5.720 -0.2112  0.3955 -0.4166
34375SOL    HW221118  12.820  10.650   5.655 -1.5007  0.0078  1.0838
34376SOL     OW21119   7.761  13.216   4.441 -0.0761 -0.4228 -0.7859
34376SOL    HW121120   7.720  13.258   4.517  0.1443 -2.1837  0.3584
34376SOL    HW221121   7.765  13.285   4.375 -0.7536  1.0208  0.6154
34377SOL     OW21122   2.715   3.342   8.916  0.3215  0.3542 -0.2742
34377SOL    HW121123   2.623   3.346   8.890 -0.8153 -3.3692  2.3347
34377SOL    HW221124   2.744   3.255   8.889  1.8704  0.0212  2.1235
34378SOL     OW21125   3.482   4.708   5.835  0.4614  0.1065  0.2422
34378SOL    HW121126   3.512   4.618   5.823 -2.0518 -0.8064  0.0963
34378SOL    HW221127   3.475   4.719   5.930  1.3653  0.3692  0.2794
34379SOL     OW21128   6.082   6.601   3.603  0.1387  0.0258 -0.5242
34379SOL    HW121129   6.164   6.554   3.587 -0.2156 -0.2654 -1.5289
34379SOL    HW221130   6.095   6.642   3.689  1.1636 -0.3792 -0.4678
34380SOL     OW21131   1.562  12.975  12.441  0.3032  0.1795  0.0038
34380SOL    HW121132   1.655  12.975  12.418  0.3838 -0.5142  0.2974
34380SOL    HW221133   1.553  12.902  12.501 -0.2999  0.7007  0.5556
34381SOL     OW21134   6.151   3.739   0.431 -0.4004 -0.1588  0.4176
34381SOL    HW121135   6.220   3.677   0.457  0.7312  1.6815  2.1366
34381SOL    HW221136   6.173   3.764   0.341  1.0348  0.1794  0.8445
34382SOL     OW21137   3.852  11.125   9.433  0.2920 -0.0480 -0.3062
34382SOL    HW121138   3.830  11.207   9.479  1.3099  0.6730 -1.0537
34382SOL    HW221139   3.895  11.072   9.500 -0.9707 -0.2765  0.3692
34383SOL     OW21140   8.550   2.131  10.057  0.0312  0.5016  0.5240
34383SOL    HW121141   8.634   2.128  10.104 -0.4373  0.0083  1.3578
34383SOL    HW221142   8.572   2.167   9.971  1.1358  0.1670  0.6497
34384SOL     OW21143   0.843   7.522  13.193  0.1805 -0.0428  0.2970
34384SOL    HW121144   0.803   7.586  13.134  0.4482  0.7602  0.9705
34384SOL    HW221145   0.804   7.438  13.167 -0.2875  0.4100 -0.4986
34385SOL     OW21146  10.675   8.229   5.872  0.1666 -0.5866 -0.1476
34385SOL    HW121147  10.600   8.253   5.818 -0.4632  0.5235  1.1564
34385SOL    HW221148  10.651   8.145   5.910 -0.4551 -0.2371  0.2672
34386SOL     OW21149   0.486  13.925   2.091 -0.2129 -0.1286 -0.2663
34386SOL    HW121150   0.414  13.956   2.036  0.0457  0.5394 -0.2368
34386SOL    HW221151   0.542  14.002   2.103 -0.9523  0.1209  2.0599
34387SOL     OW21152   5.199   9.753   8.288  0.2481 -0.2622 -0.2206
34387SOL    HW121153   5.179   9.696   8.214  0.0493  0.1619 -0.4989
34387SOL    HW221154   5.224   9.837   8.248 -0.1039  0.0464  0.1951
34388SOL     OW21155  12.527   3.134   1.913 -0.5548  0.2757 -0.2690
34388SOL    HW121156  12.490   3.067   1.856 -1.2801  0.7966 -0.4315
34388SOL    HW221157  12.619   3.141   1.885  0.6101 -3.0824  2.0710
34389SOL     OW21158  10.713   2.796  10.984 -0.2998 -0.4350 -0.4867
34389SOL    HW121159  10.726   2.733  11.054  0.5374  0.2828  0.0184
34389SOL    HW221160  10.701   2.880  11.028 -1.0453 -0.1689 -1.1590
34390SOL     OW21161   4.934   6.641  13.258 -0.2512 -0.0489 -0.4057
34390SOL    HW121162   4.947   6.677  13.346 -1.6559 -0.2945 -0.0750
34390SOL    HW221163   4.922   6.547  13.272  2.1846 -0.5532 -1.1498
34391SOL     OW21164   1.141   1.290  12.691 -0.0812 -0.3494  0.3804
34391SOL    HW121165   1.226   1.260  12.723 -0.4084 -0.6197  1.0066
34391SOL    HW221166   1.088   1.301  12.770 -0.6571 -0.2649 -0.0121
34392SOL     OW21167  13.648  12.586   7.572 -0.3729  0.1377  0.4760
34392SOL    HW121168  13.597  12.505   7.562 -2.3769  1.5282 -1.5626
34392SOL    HW221169  13.606  12.632   7.645 -0.4061  0.1563  0.4452
34393SOL     OW21170  11.265   6.134   8.683  0.2699 -0.1748  0.3900
34393SOL    HW121171  11.305   6.059   8.726 -1.3820  1.0305  4.5008
34393SOL    HW221172  11.218   6.097   8.609  2.8745 -2.5270 -0.2545
34394SOL     OW21173   6.180  12.943  12.585  0.0853  0.1276 -0.6992
34394SOL    HW121174   6.103  12.907  12.630 -0.2980  0.4729 -1.0742
34394SOL    HW221175   6.181  12.899  12.500  1.2347 -1.0763 -0.0931
34395SOL     OW21176   3.785   5.705   9.317  0.4342 -0.2134 -0.1347
34395SOL    HW121177   3.779   5.801   9.315 -1.1859 -0.2628  0.4266
34395SOL    HW221178   3.726   5.677   9.247  1.2434 -0.8183 -0.5930
34396SOL     OW21179  10.820   9.762   7.985  0.4013  0.1308  0.3646
34396SOL    HW121180  10.824   9.811   7.903  0.0979  0.6195  0.6360
34396SOL    HW221181  10.902   9.713   7.989 -0.6024 -1.8438 -1.4411
34397SOL     OW21182   4.028  13.440   8.137  0.0019  0.4316  0.7554
34397SOL    HW121183   4.026  13.469   8.229  1.4522 -0.8837  1.2403
34397SOL    HW221184   4.117  13.409   8.123 -0.8458 -1.7122 -0.3521
34398SOL     OW21185   2.075   8.308   5.143  0.0425 -0.2029  0.1564
34398SOL    HW121186   2.138   8.290   5.074 -0.0542 -0.0799  0.0345
34398SOL    HW221187   2.106   8.389   5.184 -0.7546  0.6124 -0.7750
34399SOL     OW21188   4.389   0.938   9.632  0.2644  0.2932  0.1568
34399SOL    HW121189   4.412   0.864   9.689 -1.1108 -0.0499  0.3075
34399SOL    HW221190   4.294   0.948   9.643  0.2784  1.4593 -0.6157
34400SOL     OW21191  12.063   9.649   4.806  0.2642 -0.3647  0.0795
34400SOL    HW121192  12.152   9.613   4.810  0.4848  0.3030  2.2583
34400SOL    HW221193  12.070   9.735   4.847 -1.5206 -0.5857  0.9303
34401SOL     OW21194   9.750   7.777  12.539  0.0086  0.2403  0.0568
34401SOL    HW121195   9.717   7.787  12.628  2.2118  2.7236  0.7207
34401SOL    HW221196   9.672   7.760  12.486 -1.5176  0.0255  2.2590
34402SOL     OW21197   6.287  11.840   6.329  0.8579  0.5529 -0.6163
34402SOL    HW121198   6.348  11.913   6.336  1.1171  0.2831 -0.0586
34402SOL    HW221199   6.212  11.877   6.283  1.0550  1.1251 -0.4908
34403SOL     OW21200   9.213   7.598   4.612 -0.4126 -0.1128  0.8860
34403SOL    HW121201   9.285   7.636   4.663 -0.7666 -0.3138  1.5442
34403SOL    HW221202   9.201   7.658   4.539 -1.2372  1.2947  2.1183
34404SOL     OW21203   4.980  11.938  13.118  0.5571 -0.0774 -0.0767
34404SOL    HW121204   5.002  11.851  13.084 -0.3190 -0.0739 -0.6948
34404SOL    HW221205   4.952  11.987  13.041 -0.4500  0.2686  0.4849
34405SOL     OW21206   9.815  11.502   6.049 -0.2648  0.4547  0.7080
34405SOL    HW121207   9.861  11.498   6.133 -0.9355 -1.5118  1.0215
34405SOL    HW221208   9.735  11.452   6.063  0.5415 -1.7043 -1.6478
34406SOL     OW21209   4.344   4.791  11.681  0.4691 -0.4945 -0.1572
34406SOL    HW121210   4.394   4.842  11.618 -0.5977  0.0022 -0.6312
34406SOL    HW221211   4.338   4.848  11.758 -0.0124 -0.2309 -0.3837
34407SOL     OW21212   0.067   9.911   8.178  0.4630  0.3988  0.6007
34407SOL    HW121213  -0.028   9.916   8.166  0.7128  0.3210 -1.8125
34407SOL    HW221214   0.102   9.984   8.126  1.8520 -1.3209 -1.0273
34408SOL     OW21215   4.777   9.635   0.924 -0.1018  0.0999 -0.4009
34408SOL    HW121216   4.684   9.641   0.900 -0.2265  1.2309  0.2686
34408SOL    HW221217   4.824   9.651   0.842 -0.5180  3.8952 -0.0792
34409SOL     OW21218  11.258   4.449   4.551 -0.3963 -0.0220 -0.5354
34409SOL    HW121219  11.215   4.512   4.608  3.3728  1.1488  1.3253
34409SOL    HW221220  11.225   4.469   4.463 -2.7880  1.3124  0.5657
34410SOL     OW21221   7.633   5.318   5.169  0.0777  0.1191  0.2942
34410SOL    HW121222   7.550   5.327   5.215  0.5660  0.9941  1.0406
34410SOL    HW221223   7.633   5.229   5.135 -1.4022  0.2805 -0.1922
34411SOL     OW21224   6.970   1.399   8.057  0.2510  0.2382  0.0502
34411SOL    HW121225   7.013   1.421   8.140 -0.4433 -1.4642  0.8908
34411SOL    HW221226   6.974   1.481   8.007 -0.1721  1.6099  2.1135
34412SOL     OW21227   3.720   8.047  10.729  0.3107 -0.3548  0.0695
34412SOL    HW121228   3.806   8.083  10.709 -0.6404  1.5617 -0.8817
34412SOL    HW221229   3.702   7.986  10.657  0.3430  0.2155 -0.4232
34413SOL     OW21230   1.348   3.163  11.794  0.5260 -0.1070 -0.8700
34413SOL    HW121231   1.303   3.102  11.853 -1.6905  2.1429 -0.0521
34413SOL    HW221232   1.387   3.228  11.853 -0.6864  1.5091 -1.7672
34414SOL     OW21233   3.213  10.193   9.818  0.4500 -0.3478  0.1876
34414SOL    HW121234   3.200  10.280   9.855 -1.6045 -0.4235 -0.2327
34414SOL    HW221235   3.297  10.163   9.855  0.4834  1.2072  1.4783
34415SOL     OW21236   8.900   7.646   6.146  0.2682  0.1494  0.6940
34415SOL    HW121237   8.824   7.611   6.100  0.5297  0.7121 -0.1949
34415SOL    HW221238   8.863   7.693   6.221 -0.1936 -0.3435  0.7845
34416SOL     OW21239   6.056  13.139   1.929 -0.0142  0.0250 -0.0882
34416SOL    HW121240   6.138  13.185   1.911  0.3860 -0.4674  0.4259
34416SOL    HW221241   6.082  13.049   1.946 -0.6838 -0.1749 -0.0909
34417SOL     OW21242   8.409   4.008   4.776  0.1769 -0.6410 -0.0879
34417SOL    HW121243   8.352   4.009   4.853 -1.8165 -0.9707 -1.4670
34417SOL    HW221244   8.405   4.097   4.742 -1.9704 -1.2967 -1.7999
34418SOL     OW21245  11.908   8.548   6.418 -0.2708 -0.2002  0.4066
34418SOL    HW121246  11.927   8.622   6.361  0.7556 -0.9926 -0.3118
34418SOL    HW221247  11.986   8.537   6.472  0.1810 -1.6257 -0.4833
34419SOL     OW21248   2.610  10.707  11.714 -0.3950  0.2631 -0.0086
34419SOL    HW121249   2.613  10.777  11.649 -1.6970  2.5582  2.2350
34419SOL    HW221250   2.558  10.638  11.671 -2.4896  2.2835 -0.9460
34420SOL     OW21251   7.003   9.710   4.126  0.2399 -0.2347 -0.2027
34420SOL    HW121252   7.088   9.735   4.091  0.2900 -0.9577 -0.6079
34420SOL    HW221253   7.022   9.670   4.210  0.4526 -1.7395 -0.9367
34421SOL     OW21254   0.535   4.365  11.365  0.2621  0.5691 -0.0045
34421SOL    HW121255   0.576   4.443  11.328 -0.8072  0.6343 -1.1008
34421SOL    HW221256   0.441   4.381  11.358  0.0180 -0.9595 -0.6075
34422SOL     OW21257   1.047  13.849  13.080 -0.6540  0.0082  0.1709
34422SOL    HW121258   1.133  13.890  13.078  0.1223 -1.5453  0.1698
34422SOL    HW221259   0.986  13.921  13.099  0.4965  1.3263 -0.9370
34423SOL     OW21260   8.856  13.387   6.147  0.3231 -0.1740 -0.5018
34423SOL    HW121261   8.859  13.362   6.239 -0.9396 -0.8423 -0.6218
34423SOL    HW221262   8.763  13.387   6.125  0.5505  0.7977 -1.5625
34424SOL     OW21263   9.815  12.012   6.413  0.7015  0.1081 -0.1199
34424SOL    HW121264   9.742  12.073   6.397  1.6701  2.1629  2.5972
34424SOL    HW221265   9.873  12.025   6.338  0.3066  1.7043 -0.2017
34425SOL     OW21266  12.824   1.428   3.169  0.1429 -0.3003 -0.1358
34425SOL    HW121267  12.839   1.378   3.249  0.1831 -1.1588 -0.6639
34425SOL    HW221268  12.758   1.378   3.122  0.5370 -0.1168 -0.8980
34426SOL     OW21269   7.141   2.030  10.265  0.0167 -0.7161 -0.2310
34426SOL    HW121270   7.169   2.117  10.236 -1.4268 -0.2859 -0.3922
34426SOL    HW221271   7.137   1.978  10.184  0.8118 -0.9287 -0.1441
34427SOL     OW21272  12.681   1.591   7.019  0.1593  0.1057 -0.3234
34427SOL    HW121273  12.621   1.563   6.950 -1.6732 -2.3316  2.0142
34427SOL    HW221274  12.737   1.657   6.978 -2.8173  1.0861 -3.2210
34428SOL     OW21275   6.733   6.466   4.437  0.0180 -0.2772 -0.8659
34428SOL    HW121276   6.739   6.508   4.522 -2.6725 -0.0856 -0.6913
34428SOL    HW221277   6.818   6.424   4.425  1.2012  1.4368  0.9420
34429SOL     OW21278  13.651   2.284   6.250  0.0007  0.0360  0.0822
34429SOL    HW121279  13.742   2.291   6.222  0.2991 -1.4467  0.5789
34429SOL    HW221280  13.646   2.332   6.332  0.4564 -0.3202  0.3160
34430SOL     OW21281   6.643   7.926  10.734 -0.3616  0.3503  0.0075
34430SOL    HW121282   6.593   7.928  10.816 -0.2442 -1.4269  0.1746
34430SOL    HW221283   6.630   8.012  10.695 -0.4695  1.2248  1.8712
34431SOL     OW21284   6.196   1.539   7.663  0.0661 -0.2746 -0.2753
34431SOL    HW121285   6.143   1.465   7.693 -0.0782  0.3024  0.9568
34431SOL    HW221286   6.142   1.616   7.681  0.5366  0.1877 -0.8066
34432SOL     OW21287   5.232   2.445  12.198  0.4199 -0.1308  0.0299
34432SOL    HW121288   5.307   2.498  12.170  0.5263 -0.4525 -0.2960
34432SOL    HW221289   5.268   2.385  12.263  0.2294  0.4226  0.6666
34433SOL     OW21290   4.186   1.896   5.020 -0.2326 -0.5926 -0.0150
34433SOL    HW121291   4.257   1.837   5.045  0.1243 -0.3188 -0.3634
34433SOL    HW221292   4.155   1.861   4.936  2.5595  1.8724 -2.2600
34434SOL     OW21293   8.922   8.392   2.535 -0.0438 -0.3808  0.0478
34434SOL    HW121294   8.991   8.345   2.489  0.7352  0.2780  0.5323
34434SOL    HW221295   8.946   8.388   2.627 -0.1019  0.7165  0.1318
34435SOL     OW21296   2.254  12.626   5.677  0.0321  0.2273  0.2271
34435SOL    HW121297   2.208  12.685   5.737  1.7174  0.8115  1.0079
34435SOL    HW221298   2.235  12.539   5.710 -0.2472  0.4773  0.7350
34436SOL     OW21299   3.972   3.101  11.571 -0.4220  0.7130  0.0259
34436SOL    HW121300   3.963   3.012  11.537 -0.0185 -1.0727  4.0455
34436SOL    HW221301   3.887   3.141  11.556 -1.2330 -1.0193 -0.2560
34437SOL     OW21302  13.949   5.058   4.866 -0.0135  0.2902 -0.0395
34437SOL    HW121303  13.936   4.994   4.935 -0.8789  0.8244  0.3077
34437SOL    HW221304  14.017   5.020   4.810 -1.0385 -1.2835 -0.2736
34438SOL     OW21305   5.524  13.685   9.013  0.0720  0.0895 -0.1578
34438SOL    HW121306   5.526  13.640   8.929  1.2289  0.5134 -0.3735
34438SOL    HW221307   5.595  13.748   9.008  0.1907  0.0866  1.1584
34439SOL     OW21308   8.831  13.942   6.191 -0.5503 -0.2254  0.1712
34439SOL    HW121309   8.756  13.945   6.251 -1.0566  0.3028 -0.4663
34439SOL    HW221310   8.798  13.982   6.110  0.8114  1.2754  0.2997
34440SOL     OW21311   2.699   8.099   4.188 -0.1692  0.1674 -0.1852
34440SOL    HW121312   2.750   8.027   4.150 -0.7813 -0.2395 -0.2480
34440SOL    HW221313   2.628   8.056   4.236  0.0710  0.7052  0.6739
34441SOL     OW21314  12.408   8.561   4.881  0.8408  0.5616 -0.5353
34441SOL    HW121315  12.318   8.588   4.902  0.7551  1.6273 -2.0793
34441SOL    HW221316  12.439   8.517   4.960 -0.3233  1.9944  0.7807
34442SOL     OW21317   6.574   1.763   2.722  0.0131  0.1036 -0.1675
34442SOL    HW121318   6.548   1.690   2.665  1.1718 -0.8263  0.4360
34442SOL    HW221319   6.492   1.794   2.761 -0.5107 -0.8358 -0.4848
34443SOL     OW21320   3.505   3.462   6.798  0.1201 -0.0958 -0.1985
34443SOL    HW121321   3.513   3.546   6.844 -1.0887 -0.7504  1.3111
34443SOL    HW221322   3.488   3.486   6.707 -0.5547  1.3289  0.2698
34444SOL     OW21323   7.282   9.603  10.852  0.1499  0.4641 -0.2593
34444SOL    HW121324   7.193   9.591  10.819  0.0678 -0.4701  0.2664
34444SOL    HW221325   7.274   9.599  10.947  0.8466 -0.5111 -0.2158
34445SOL     OW21326   5.231  10.923   9.195 -0.3331 -0.1387 -0.0585
34445SOL    HW121327   5.302  10.965   9.145 -1.3058  0.3083 -1.1167
34445SOL    HW221328   5.205  10.989   9.259 -0.9299  0.3591 -0.8025
34446SOL     OW21329   4.364   8.601  11.975  0.0586 -0.1679 -0.6724
34446SOL    HW121330   4.294   8.537  11.987 -1.1259  0.0967 -4.6016
34446SOL    HW221331   4.422   8.561  11.909  0.5969  1.7781 -1.4579
34447SOL     OW21332  12.339   7.284   8.104 -0.1791  0.2404 -0.1127
34447SOL    HW121333  12.408   7.340   8.068 -0.6845  0.1623 -1.2674
34447SOL    HW221334  12.260   7.309   8.055 -0.3878 -1.5656 -0.8013
34448SOL     OW21335   3.241  13.891   2.027  0.2383 -0.3374  0.5127
34448SOL    HW121336   3.309  13.923   1.968  0.9334 -1.6884  0.5332
34448SOL    HW221337   3.280  13.897   2.114 -0.4124  0.7120  0.7444
34449SOL     OW21338   3.415   9.022   4.475  0.0487  0.2940  0.5962
34449SOL    HW121339   3.440   9.088   4.540  2.4474  0.6124 -0.5442
34449SOL    HW221340   3.490   8.963   4.470 -1.6866 -2.1111  0.9571
34450SOL     OW21341   7.962   5.971  10.240 -0.4649 -0.2296  0.6900
34450SOL    HW121342   7.997   5.882  10.241  0.0277 -0.1074 -1.2435
34450SOL    HW221343   7.893   5.968  10.174  1.8988  1.5441 -2.1535
34451SOL     OW21344   1.127   1.480   7.427  0.7142  0.4833 -0.2010
34451SOL    HW121345   1.125   1.575   7.437  0.1207  0.3579  1.1313
34451SOL    HW221346   1.039   1.457   7.397 -0.0663  0.1556  2.1020
34452SOL     OW21347  11.403   0.014   7.623  0.2929 -0.3403  0.0581
34452SOL    HW121348  11.455   0.028   7.544 -0.7214 -1.6577 -0.8878
34452SOL    HW221349  11.317  -0.013   7.591 -0.5759  0.4398  1.6085
34453SOL     OW21350  10.372   6.164   0.931  0.3335 -0.3249 -0.2261
34453SOL    HW121351  10.285   6.162   0.970  0.6887 -0.6530  0.5707
34453SOL    HW221352  10.357   6.185   0.839 -0.6856 -1.7086 -0.3906
34454SOL     OW21353   9.572   5.758  10.841  0.0530 -0.0415 -0.0301
34454SOL    HW121354   9.579   5.807  10.923 -0.3135 -0.3772  0.1978
34454SOL    HW221355   9.608   5.672  10.861 -0.9110 -0.4316  0.0303
34455SOL     OW21356   5.684   4.470   4.783  0.3051 -0.1794 -0.0876
34455SOL    HW121357   5.624   4.395   4.793 -0.5142  0.7381  2.6043
34455SOL    HW221358   5.749   4.457   4.852  0.2504  1.4538  0.3025
34456SOL     OW21359   4.635   4.083  13.170  0.2870 -0.3939 -0.8385
34456SOL    HW121360   4.582   4.079  13.090 -0.7009 -1.4155 -0.1619
34456SOL    HW221361   4.571   4.087  13.241  1.1520  0.5094 -0.0738
34457SOL     OW21362  11.112   1.907   7.818  0.3655 -0.2141 -0.3510
34457SOL    HW121363  11.123   1.878   7.728 -0.0719  0.6633 -0.7045
34457SOL    HW221364  11.074   1.832   7.864  0.1759 -0.5188 -0.9963
34458SOL     OW21365  12.488  10.944   4.491  0.4008  0.2606 -0.0550
34458SOL    HW121366  12.442  10.960   4.573 -0.1457 -1.6105  0.0593
34458SOL    HW221367  12.565  10.893   4.517  0.4427  0.0078 -0.6456
34459SOL     OW21368   6.998   3.126  12.868 -0.1264 -0.4292  0.2084
34459SOL    HW121369   7.027   3.200  12.922  1.6815  0.8709 -2.3176
34459SOL    HW221370   6.946   3.166  12.798 -2.6728 -2.0910  1.0114
34460SOL     OW21371   5.578  11.037   1.849  0.0564  0.0716  0.1445
34460SOL    HW121372   5.607  10.972   1.913  1.1759  1.1038  0.7265
34460SOL    HW221373   5.486  11.016   1.834  0.4717 -1.8610  0.0342
34461SOL     OW21374  11.150   3.278   0.838  0.2038 -0.0360  0.2257
34461SOL    HW121375  11.215   3.321   0.782  0.1555  1.1722  1.0644
34461SOL    HW221376  11.182   3.291   0.927  0.6911 -2.6324  0.4984
34462SOL     OW21377   8.776   1.382   0.326  0.1220  0.4561 -0.1472
34462SOL    HW121378   8.804   1.364   0.415 -0.9219 -0.5000  0.0155
34462SOL    HW221379   8.842   1.442   0.291  1.0066  0.1703  0.9818
34463SOL     OW21380  10.635  11.475   3.880  0.8667 -0.5023 -0.4442
34463SOL    HW121381  10.623  11.482   3.785  0.3137  1.3435 -0.2680
34463SOL    HW221382  10.548  11.453   3.913  0.4559  1.3522 -0.1824
34464SOL     OW21383   0.742   2.424   7.602  0.7095 -0.0143  0.2006
34464SOL    HW121384   0.733   2.513   7.638  1.8885  0.9047 -1.6201
34464SOL    HW221385   0.653   2.390   7.602  0.0761  1.5441  0.0651
34465SOL     OW21386   2.036   1.158   9.741 -0.0955  0.1973  0.3221
34465SOL    HW121387   2.114   1.182   9.691 -0.9789  1.9627 -0.3021
34465SOL    HW221388   2.069   1.104   9.812  1.3621 -1.2680 -1.3765
34466SOL     OW21389   0.413  10.441  13.918 -0.1198  0.4595 -0.6085
34466SOL    HW121390   0.384  10.489  13.995  0.0661 -0.3679 -0.0021
34466SOL    HW221391   0.425  10.351  13.949  0.6624  0.2625 -1.4273
34467SOL     OW21392   4.489  11.485  11.233  0.0879 -0.0633 -0.1633
34467SOL    HW121393   4.478  11.576  11.203 -1.7980 -0.3799 -0.5755
34467SOL    HW221394   4.579  11.481  11.266 -0.3799  2.5354  1.7985
34468SOL     OW21395   4.797   2.537  13.374 -0.2120 -0.4496 -0.2755
34468SOL    HW121396   4.821   2.565  13.462 -1.6571  0.4913 -0.1414
34468SOL    HW221397   4.754   2.453  13.386 -0.7409 -0.1510 -0.0118
34469SOL     OW21398   5.581   4.298   8.643 -0.0039  0.1476 -0.0189
34469SOL    HW121399   5.546   4.317   8.731  0.4245 -0.5620  0.3149
34469SOL    HW221400   5.550   4.209   8.624  1.9036 -0.6656  0.4543
34470SOL     OW21401   4.114   0.115  13.521  0.4796  0.2343 -0.1324
34470SOL    HW121402   4.175   0.089  13.452  2.0335  0.3371  1.1623
34470SOL    HW221403   4.033   0.067  13.500  0.4140  1.2970 -2.7638
34471SOL     OW21404   1.786   8.408   1.032  0.8346  0.1078 -0.0829
34471SOL    HW121405   1.697   8.404   1.068  0.5044 -0.4089 -0.9372
34471SOL    HW221406   1.795   8.328   0.980  1.5390  0.5138 -0.6125
34472SOL     OW21407   9.022  11.049   0.070 -0.3016 -0.2696 -0.3582
34472SOL    HW121408   8.939  11.019   0.108  0.6135 -1.0467  1.1034
34472SOL    HW221409   9.068  11.091   0.142  0.7463 -0.1859 -1.0530
34473SOL     OW21410  11.659   5.375   3.756  0.5799 -0.4713  0.2657
34473SOL    HW121411  11.584   5.374   3.815 -0.3893  0.8816 -0.8720
34473SOL    HW221412  11.732   5.343   3.810 -0.5332 -0.5749  1.7846
34474SOL     OW21413  13.676  12.308  11.347 -0.4293 -0.0397 -0.2099
34474SOL    HW121414  13.759  12.337  11.309 -0.3588  0.3690  0.2424
34474SOL    HW221415  13.619  12.385  11.341 -0.8251 -0.3732 -0.6701
34475SOL     OW21416   0.902   9.788   1.031 -0.7131 -0.4719 -0.0108
34475SOL    HW121417   0.832   9.808   0.969  1.4429  1.5058 -1.9972
34475SOL    HW221418   0.920   9.871   1.075 -0.4920 -1.2743  1.4820
34476SOL     OW21419   2.808   3.978   9.826 -0.2240 -0.0074 -0.0108
34476SOL    HW121420   2.776   3.888   9.816  0.4001 -0.2167 -0.1478
34476SOL    HW221421   2.740   4.022   9.878  0.0093 -0.8482  1.0296
34477SOL     OW21422   2.360  12.758   4.704 -0.3324 -0.1403  0.1842
34477SOL    HW121423   2.435  12.814   4.684 -0.0538 -0.7377 -0.5051
34477SOL    HW221424   2.382  12.674   4.664 -0.1389 -1.1740  2.3224
34478SOL     OW21425   9.835   6.358  12.803  0.0595  0.4545 -0.1086
34478SOL    HW121426   9.819   6.449  12.825 -0.3243 -0.2666  3.0464
34478SOL    HW221427   9.751   6.325  12.773 -0.2559  0.7118  0.4819
34479SOL     OW21428   5.448   9.251  13.616 -0.0577 -0.0517  0.6707
34479SOL    HW121429   5.368   9.296  13.643 -0.8447 -1.6479  1.1420
34479SOL    HW221430   5.419   9.162  13.594  1.3979 -0.3039 -0.3791
34480SOL     OW21431  10.661   5.956   0.071 -0.5086 -0.3252  0.3492
34480SOL    HW121432  10.718   5.987   0.000 -0.7583 -0.0287  0.2721
34480SOL    HW221433  10.693   6.002   0.149  0.7293 -1.7705  0.7470
34481SOL     OW21434   2.341  12.841  12.967  0.1100 -0.1655  0.6649
34481SOL    HW121435   2.288  12.907  12.922  0.6117  0.1197  0.4837
34481SOL    HW221436   2.408  12.816  12.903 -0.5838 -1.4949  0.4081
34482SOL     OW21437  11.445   6.953  13.523 -0.3487 -0.0503 -0.0101
34482SOL    HW121438  11.465   6.889  13.455 -0.3981  1.3704 -1.4171
34482SOL    HW221439  11.528   6.967  13.568 -0.1865 -0.5798 -0.1364
34483SOL     OW21440   3.996   7.806  13.852  0.8848  0.3603  0.0707
34483SOL    HW121441   4.035   7.889  13.880 -0.4390  0.6718  1.1072
34483SOL    HW221442   4.055   7.774  13.783  2.2995  1.3610  0.7526
34484SOL     OW21443   1.753   3.754   7.570 -0.2177 -0.0292  0.2521
34484SOL    HW121444   1.813   3.791   7.505 -1.1317  1.7314  0.3403
34484SOL    HW221445   1.810   3.729   7.643  0.4392  1.9514  0.4992
34485SOL     OW21446   1.958   2.236  10.306 -0.0997  0.2979  0.0175
34485SOL    HW121447   1.919   2.187  10.234  0.2448  0.6342 -0.4024
34485SOL    HW221448   2.006   2.171  10.356 -1.4299 -0.1874  0.7226
34486SOL     OW21449   6.233   9.918  14.071  0.1704 -0.2314 -0.0514
34486SOL    HW121450   6.214   9.931  14.163 -0.6840 -0.1852 -0.2196
34486SOL    HW221451   6.226  10.005  14.032 -1.1042 -0.4717 -0.4193
34487SOL     OW21452  13.123  11.990  12.345 -0.3189  0.0636 -0.2096
34487SOL    HW121453  13.172  11.924  12.394  1.3869  1.8555  0.6180
34487SOL    HW221454  13.031  11.966  12.359  0.2138 -1.4843  0.9637
34488SOL     OW21455   9.884  10.558   5.030  0.5258  0.2362  0.2785
34488SOL    HW121456   9.911  10.468   5.015  3.2936  0.9508  0.3826
34488SOL    HW221457   9.962  10.600   5.066 -0.3773  2.9047 -0.6670
34489SOL     OW21458   0.964   4.377  10.168 -0.1623  0.3102  0.5974
34489SOL    HW121459   0.969   4.352  10.260 -1.4725  1.1584  0.9130
34489SOL    HW221460   1.028   4.447  10.159  0.7033 -0.4532  0.6043
34490SOL     OW21461   9.502  11.399   9.057 -0.0255  0.3378  0.7115
34490SOL    HW121462   9.501  11.448   8.975  2.1400  0.0970  0.4764
34490SOL    HW221463   9.546  11.457   9.120  1.0093 -0.5954  0.8865
34491SOL     OW21464   0.269  11.952   9.488  0.4184  0.0687  0.4512
34491SOL    HW121465   0.242  11.888   9.422 -1.7293  0.6630  0.6711
34491SOL    HW221466   0.189  11.999   9.510  1.7652  2.3165  0.8920
34492SOL     OW21467   2.592   3.079  10.673  0.1802  0.2737 -0.1266
34492SOL    HW121468   2.630   3.017  10.610 -0.0696  0.8925 -0.9004
34492SOL    HW221469   2.519   3.031  10.712  0.5983 -0.2645  0.0039
34493SOL     OW21470  13.251   8.359   0.527  0.2199 -0.1584  0.0146
34493SOL    HW121471  13.284   8.321   0.609 -0.8367 -0.6208  0.2371
34493SOL    HW221472  13.319   8.340   0.463  0.4486 -0.9872  0.4854
34494SOL     OW21473   4.112   5.615  11.680  0.2456 -0.6149  0.2180
34494SOL    HW121474   4.132   5.606  11.587  0.5413 -1.2747  0.3410
34494SOL    HW221475   4.093   5.708  11.692  1.2921 -0.3206 -0.2847
34495SOL     OW21476   9.969   2.491  12.227  0.0490  0.0518  0.4227
34495SOL    HW121477   9.945   2.423  12.290 -1.9126 -1.0418 -1.4133
34495SOL    HW221478   9.893   2.499  12.170  1.6123  1.2599 -1.6036
34496SOL     OW21479   4.809   5.897  12.891  0.0052  0.0796  0.2239
34496SOL    HW121480   4.868   5.958  12.847  0.0273  1.3960  1.9311
34496SOL    HW221481   4.865   5.849  12.951 -0.5210  1.0219  1.5351
34497SOL     OW21482   7.797   5.871  11.477  0.3358  0.4381  0.7293
34497SOL    HW121483   7.892   5.866  11.481  0.6994  2.3167 -2.1129
34497SOL    HW221484   7.775   5.950  11.526  0.8889  2.7888 -2.5054
34498SOL     OW21485   8.747   0.115  13.466  0.1749  0.3803  0.3616
34498SOL    HW121486   8.803   0.193  13.474  1.2469 -0.3256 -0.1282
34498SOL    HW221487   8.800   0.044  13.501 -0.3845 -0.3185 -0.1892
34499SOL     OW21488   3.693   9.310   9.961 -0.0878 -0.2401  0.0815
34499SOL    HW121489   3.740   9.377  10.011 -0.0061  0.0965 -0.4286
34499SOL    HW221490   3.683   9.237  10.021 -2.0525  1.0028  1.3827
34500SOL     OW21491  13.280   0.188  12.899  0.0996 -0.6229  0.4655
34500SOL    HW121492  13.201   0.180  12.952 -1.2382 -0.4313 -1.4231
34500SOL    HW221493  13.264   0.134  12.822  2.1799 -1.2629  0.4023
34501SOL     OW21494   9.171   4.985   0.038 -0.2047 -0.3811  0.2935
34501SOL    HW121495   9.162   5.011   0.130 -1.1809 -1.3526  0.5002
34501SOL    HW221496   9.129   4.899   0.034  1.1812 -1.0514 -0.7473
34502SOL     OW21497  11.127  13.324   4.505 -0.3382  0.2719  0.5099
34502SOL    HW121498  11.143  13.416   4.485  1.5151  0.1196  1.1416
34502SOL    HW221499  11.106  13.284   4.420  2.3197  0.6279 -0.4121
34503SOL     OW21500   0.468   1.541  12.077 -0.3032  0.0155  0.1916
34503SOL    HW121501   0.391   1.485  12.067  0.0278 -0.7018  1.5421
34503SOL    HW221502   0.477   1.554  12.171  1.4725 -0.2721  0.0970
34504SOL     OW21503   8.909   5.347  12.044 -0.1663 -0.1637 -0.4271
34504SOL    HW121504   9.005   5.349  12.037  0.0136 -0.6213  1.5289
34504SOL    HW221505   8.880   5.409  11.977  1.6428  2.4311  0.9862
34505SOL     OW21506   1.115   2.395   0.789 -0.2015 -0.5391 -0.3597
34505SOL    HW121507   1.119   2.420   0.697 -0.8505  0.4934 -0.1278
34505SOL    HW221508   1.134   2.301   0.789 -0.0928 -0.5352 -1.5320
34506SOL     OW21509   8.886   3.692  13.571 -0.4105  0.5170 -0.7991
34506SOL    HW121510   8.944   3.739  13.631  0.0159  0.1957 -0.9538
34506SOL    HW221511   8.894   3.740  13.489 -0.4846  0.5663 -0.7773
34507SOL     OW21512  13.215  11.339   8.270 -0.7145  0.2103 -0.0771
34507SOL    HW121513  13.203  11.391   8.349 -1.6451 -1.6783  1.0992
34507SOL    HW221514  13.200  11.249   8.298  1.1939 -0.7655 -1.9376
34508SOL     OW21515   0.416   3.141  11.447  0.6229 -0.0147 -0.4768
34508SOL    HW121516   0.387   3.226  11.479  1.5103  0.8189 -1.8145
34508SOL    HW221517   0.350   3.080  11.481 -0.4451  1.2819 -0.1177
34509SOL     OW21518  11.123   8.427   3.772 -0.2558 -0.0932 -0.4097
34509SOL    HW121519  11.204   8.441   3.821  1.3475 -1.7387 -2.4118
34509SOL    HW221520  11.077   8.358   3.820  1.0735 -1.3799 -0.9501
34510SOL     OW21521   0.855   1.373   4.584 -0.4231 -0.7720 -0.3288
34510SOL    HW121522   0.863   1.339   4.494 -0.1500 -0.2966 -0.4897
34510SOL    HW221523   0.762   1.392   4.595 -0.6021 -1.7184 -0.1817
34511SOL     OW21524  10.545   4.436   2.382 -0.2227 -0.1273  0.6381
34511SOL    HW121525  10.457   4.473   2.368 -0.9512 -2.4397 -1.7655
34511SOL    HW221526  10.599   4.475   2.314  0.2610  0.1713  1.1835
34512SOL     OW21527   2.413   7.919   2.283  0.6069 -0.2805  1.0812
34512SOL    HW121528   2.359   7.998   2.275  1.3998  0.2678  0.9957
34512SOL    HW221529   2.429   7.892   2.193 -0.2274 -0.9520  1.1180
34513SOL     OW21530  13.055   8.895  12.887 -0.0940  0.5641 -0.2519
34513SOL    HW121531  13.100   8.974  12.855  0.4984  0.4975  0.3818
34513SOL    HW221532  13.075   8.893  12.981  1.0044 -1.0465 -0.4867
34514SOL     OW21533   5.995   9.666  13.626 -0.4300  0.0239  0.1006
34514SOL    HW121534   5.958   9.743  13.583  0.7046  0.2386 -0.5347
34514SOL    HW221535   5.959   9.592  13.577 -0.1097  0.2278 -0.4555
34515SOL     OW21536   1.822   6.191   5.497  0.8134  0.2225 -0.1069
34515SOL    HW121537   1.781   6.108   5.520 -1.7936  1.6527  0.8447
34515SOL    HW221538   1.837   6.187   5.403 -1.3990 -0.5032 -0.4737
34516SOL     OW21539   4.202  11.275  12.031  0.0377  0.2836 -0.5033
34516SOL    HW121540   4.222  11.365  12.005  0.6090  0.1578 -0.5210
34516SOL    HW221541   4.134  11.284  12.098  0.2072  0.7401 -0.3844
34517SOL     OW21542   5.153   0.785   3.875  0.3949 -0.2135  0.8571
34517SOL    HW121543   5.102   0.860   3.845  1.3608  0.6235  1.2459
34517SOL    HW221544   5.088   0.724   3.911 -0.4663  0.1296 -0.0637
34518SOL     OW21545   9.385   8.553   5.624  0.5001  0.0327 -0.2897
34518SOL    HW121546   9.403   8.567   5.716 -0.4820  1.8364 -0.3171
34518SOL    HW221547   9.299   8.511   5.622 -0.5342  2.0113 -0.3646
34519SOL     OW21548   3.976   1.752   3.168 -0.8536 -0.1767 -0.3299
34519SOL    HW121549   4.008   1.671   3.130  0.6817  0.5919 -0.7394
34519SOL    HW221550   3.932   1.725   3.249  0.2591 -1.3541 -0.0828
34520SOL     OW21551   6.822  12.684   7.334 -0.0556  0.1784  0.6684
34520SOL    HW121552   6.882  12.615   7.305  0.0032  0.4653  0.0997
34520SOL    HW221553   6.787  12.651   7.417 -1.9906 -1.7622 -0.7883
34521SOL     OW21554  12.424   8.467  13.584  0.7154  0.1130  0.6896
34521SOL    HW121555  12.454   8.487  13.672 -0.1343  1.3961  0.7263
34521SOL    HW221556  12.329   8.478  13.588  0.3448 -2.4361  0.2486
34522SOL     OW21557   5.977   7.624  11.614 -0.4535 -0.5373 -0.4042
34522SOL    HW121558   6.036   7.698  11.626  0.1451 -1.1383  0.4574
34522SOL    HW221559   6.034   7.549  11.600 -0.9424 -1.3598  1.7161
34523SOL     OW21560  12.250  11.908   1.015 -0.8733 -0.1759  0.1336
34523SOL    HW121561  12.336  11.866   1.008 -1.8048 -2.1227 -0.5012
34523SOL    HW221562  12.268  12.002   1.011  1.2052 -0.5383 -0.0240
34524SOL     OW21563  10.926   5.679  12.688 -0.1328 -0.0104  0.6216
34524SOL    HW121564  11.021   5.665  12.690 -0.2798 -1.0927  0.2607
34524SOL    HW221565  10.889   5.597  12.718 -0.9275  1.3712  3.8360
34525SOL     OW21566  12.863   3.129   4.737  0.1117  0.2708 -0.0725
34525SOL    HW121567  12.782   3.176   4.761  2.0333  2.6463  2.3685
34525SOL    HW221568  12.911   3.192   4.683  1.4020 -0.0923  0.6266
34526SOL     OW21569   8.904   9.265   1.239  0.3208  0.2828  0.0722
34526SOL    HW121570   8.847   9.342   1.236  2.3812  1.8545 -0.5007
34526SOL    HW221571   8.992   9.299   1.226  1.3556 -2.1548  0.1343
34527SOL     OW21572   9.917   3.930   2.128  0.2541  0.2431 -0.1353
34527SOL    HW121573   9.952   4.017   2.146  0.3756  0.2251 -0.2913
34527SOL    HW221574   9.987   3.884   2.083  0.2776 -0.0166  0.1621
34528SOL     OW21575   6.787   1.736   4.436  0.1513 -0.1716 -0.1394
34528SOL    HW121576   6.851   1.732   4.507  1.0459 -1.4849 -0.9798
34528SOL    HW221577   6.713   1.783   4.473 -0.2184 -2.4992  2.3393
34529SOL     OW21578  10.388   2.200   2.800 -0.8531 -0.5415  1.1048
34529SOL    HW121579  10.477   2.192   2.834  0.6866  0.7954 -2.1558
34529SOL    HW221580  10.388   2.146   2.721 -2.3941  0.7485  0.1618
34530SOL     OW21581   2.681   5.806  10.664 -0.2589  0.4337  1.0795
34530SOL    HW121582   2.761   5.843  10.702 -0.0487 -0.5588  1.6322
34530SOL    HW221583   2.701   5.713  10.654 -2.1832 -0.2981  3.4251
34531SOL     OW21584  13.037   5.977  11.691  0.2046 -0.3305  0.0854
34531SOL    HW121585  13.109   6.040  11.697  0.1503 -0.4448  3.2321
34531SOL    HW221586  12.965   6.027  11.652  0.7025  1.0611  0.8769
34532SOL     OW21587   2.679   8.035   1.583 -0.0176  0.3313 -0.1750
34532SOL    HW121588   2.752   8.017   1.643 -2.2452 -0.9820  2.3038
34532SOL    HW221589   2.639   8.114   1.618 -2.7403 -1.7051  1.6468
34533SOL     OW21590  10.989   2.815  10.886 -0.0532 -0.0095  0.5844
34533SOL    HW121591  11.040   2.762  10.947  3.5496  0.1144 -2.0159
34533SOL    HW221592  10.898   2.797  10.910  1.0538 -2.8905  3.4437
34534SOL     OW21593   6.195  11.318   6.234  0.4469  0.0062 -0.3216
34534SOL    HW121594   6.287  11.305   6.255  0.5314  1.8698  0.6851
34534SOL    HW221595   6.193  11.397   6.179 -0.4256 -0.9294 -1.7025
34535SOL     OW21596  13.748   6.089   1.148 -0.2746  0.1150  0.3942
34535SOL    HW121597  13.773   6.072   1.238  0.0025  1.4149  0.5781
34535SOL    HW221598  13.830   6.100   1.101 -0.4263  1.6953  0.4552
34536SOL     OW21599  10.448   5.684   7.179  0.6035  0.5366  0.3949
34536SOL    HW121600  10.396   5.723   7.108  1.3792 -0.1270 -0.5550
34536SOL    HW221601  10.523   5.742   7.187  0.7000  0.4056  0.4242
34537SOL     OW21602   1.470   7.031   8.376 -0.0768  0.2384 -0.2117
34537SOL    HW121603   1.505   6.942   8.383 -4.5854 -2.1108 -3.2537
34537SOL    HW221604   1.399   7.034   8.440 -0.5202  1.3771 -0.7327
34538SOL     OW21605   3.751   7.263   1.088  0.6919 -0.2521  0.2022
34538SOL    HW121606   3.746   7.201   1.015  1.2485 -0.6417  0.4891
34538SOL    HW221607   3.683   7.328   1.069  0.1876 -0.8799 -0.1677
34539SOL     OW21608   4.720  11.605   0.068 -0.0198 -0.2952  0.2912
34539SOL    HW121609   4.708  11.625   0.161  1.4025  0.5498  0.3201
34539SOL    HW221610   4.701  11.687   0.023  0.7023 -0.2870 -0.0250
34540SOL     OW21611  14.002   6.337  11.142 -0.1457 -0.2991  0.2472
34540SOL    HW121612  13.985   6.402  11.211  1.9361  1.2104 -0.5692
34540SOL    HW221613  14.031   6.259  11.189  2.1518  0.9978  1.1232
34541SOL     OW21614   2.386  13.607   0.074 -0.2572 -0.8289 -0.1886
34541SOL    HW121615   2.373  13.702   0.062 -0.5559 -0.4702  2.4150
34541SOL    HW221616   2.469  13.600   0.119 -1.2236 -1.6130  1.5486
34542SOL     OW21617   0.706   2.783   2.527  0.4227 -0.6821  0.3886
34542SOL    HW121618   0.647   2.716   2.492 -0.1662  0.6192 -1.2667
34542SOL    HW221619   0.670   2.805   2.612 -0.3485 -1.2729  0.2255
34543SOL     OW21620   1.441  12.659   5.440  0.0399  0.0574 -0.3690
34543SOL    HW121621   1.408  12.716   5.371 -0.2054  1.2767  0.7295
34543SOL    HW221622   1.400  12.690   5.520 -0.2910 -1.8215  0.2551
34544SOL     OW21623   0.932   5.861   9.564  0.9065  0.0446 -0.2548
34544SOL    HW121624   0.930   5.797   9.492 -0.5347 -0.0368 -0.1807
34544SOL    HW221625   0.980   5.936   9.528 -0.2150  0.2106 -1.5088
34545SOL     OW21626  13.104  12.467   1.608 -0.2355 -0.3169 -0.5824
34545SOL    HW121627  13.021  12.436   1.571 -1.8036  1.2259  1.4565
34545SOL    HW221628  13.150  12.387   1.633 -0.7196 -1.2363 -2.4480
34546SOL     OW21629   6.069  12.196  13.828  0.2273 -0.2077 -0.0055
34546SOL    HW121630   6.118  12.278  13.825 -1.4845  0.8858  0.1959
34546SOL    HW221631   6.071  12.170  13.920  1.5549 -0.9176 -0.2187
34547SOL     OW21632   5.406   4.993   5.164 -0.0875  0.0759  0.1142
34547SOL    HW121633   5.451   4.983   5.080  2.6397  2.8330  1.0801
34547SOL    HW221634   5.355   5.074   5.154 -2.0974 -1.1158  0.2408
34548SOL     OW21635  10.409   1.922   8.735  0.2783 -0.0859 -0.0447
34548SOL    HW121636  10.368   1.976   8.803 -0.2773 -1.8333  1.0839
34548SOL    HW221637  10.340   1.861   8.709  1.0838 -0.6810 -0.8071
34549SOL     OW21638   1.534   9.632   1.906  0.0414  0.4020 -0.5803
34549SOL    HW121639   1.534   9.669   1.995 -0.7413  0.2651 -0.5168
34549SOL    HW221640   1.498   9.702   1.851 -1.0945 -0.1099 -0.5176
34550SOL     OW21641   5.613   9.095   0.474 -0.0298 -0.4187 -0.2270
34550SOL    HW121642   5.667   9.026   0.435 -1.0066 -0.7179 -1.1012
34550SOL    HW221643   5.599   9.157   0.402 -0.0945  0.1228  0.2442
34551SOL     OW21644  12.017  12.849  11.741  0.4789 -0.3150 -0.0712
34551SOL    HW121645  12.046  12.758  11.745 -0.9138 -0.8356 -1.1456
34551SOL    HW221646  12.088  12.895  11.697  1.3366 -0.7942  0.7667
34552SOL     OW21647   0.649   3.395   4.981 -0.9348  0.3182  0.1266
34552SOL    HW121648   0.563   3.356   4.999 -0.9289 -0.1117 -0.7654
34552SOL    HW221649   0.632   3.460   4.913 -0.5668  0.2855  0.0030
34553SOL     OW21650   8.274   0.993   0.225  0.1422  0.1038  0.4682
34553SOL    HW121651   8.311   1.050   0.158  0.8793 -0.5400  0.3167
34553SOL    HW221652   8.302   1.031   0.308 -1.7686  1.5990  0.5001
34554SOL     OW21653   9.754  11.991   9.071 -0.5527  0.2088  0.2618
34554SOL    HW121654   9.691  12.033   9.129 -0.4248  2.2538 -0.9614
34554SOL    HW221655   9.706  11.979   8.989  0.4858  1.5513 -0.6008
34555SOL     OW21656   3.718   5.410  12.111  1.0535 -0.0358 -0.2873
34555SOL    HW121657   3.633   5.441  12.079  0.3442  0.7315  2.1289
34555SOL    HW221658   3.728   5.323  12.073 -0.7475 -0.0956 -0.7063
34556SOL     OW21659   3.473   6.781   1.482  0.5691  0.5319 -0.5025
34556SOL    HW121660   3.472   6.861   1.430  1.4139 -0.3024 -1.8635
34556SOL    HW221661   3.566   6.759   1.490  0.4046  0.1866  0.6710
34557SOL     OW21662   8.259   2.247   3.435  0.0185 -0.3852  0.0684
34557SOL    HW121663   8.301   2.312   3.378  1.6121 -1.9911 -0.6632
34557SOL    HW221664   8.175   2.287   3.458  1.6618  2.7751  1.2225
34558SOL     OW21665   1.579  12.061   4.182 -0.2434  0.0370 -0.0702
34558SOL    HW121666   1.532  12.006   4.119  0.5182 -0.0398 -0.5854
34558SOL    HW221667   1.651  12.006   4.213 -0.1381  0.3581  0.2637
34559SOL     OW21668   8.128   4.831  14.129 -0.2310  0.0706 -0.5599
34559SOL    HW121669   8.105   4.923  14.116 -1.6379 -0.0055  1.1001
34559SOL    HW221670   8.176   4.829  14.212  1.0809 -0.5386 -1.2923
34560SOL     OW21671   9.054  11.195  13.754  0.0070 -0.2623 -0.0204
34560SOL    HW121672   9.077  11.242  13.834 -1.8175 -0.4808  0.6641
34560SOL    HW221673   9.056  11.103  13.779  1.1344 -0.4518 -0.7149
34561SOL     OW21674   8.691   1.802  10.850  0.1121 -0.0365 -0.4442
34561SOL    HW121675   8.764   1.742  10.865 -0.0961 -0.0239  0.7216
34561SOL    HW221676   8.618   1.763  10.899 -0.0618  1.0952  0.2292
34562SOL     OW21677   1.025   8.788  13.069 -0.3527 -0.6114 -0.5954
34562SOL    HW121678   0.985   8.852  13.010  0.0692 -0.8253 -1.1204
34562SOL    HW221679   1.082   8.840  13.126 -0.5253 -0.4424 -0.5749
34563SOL     OW21680   1.221   1.178   8.774  0.1244 -0.0842 -0.2314
34563SOL    HW121681   1.199   1.271   8.764  0.2481  0.3211  2.5439
34563SOL    HW221682   1.313   1.172   8.747  0.0943  0.5846 -0.5036
34564SOL     OW21683  14.022   4.541   7.243 -0.2721  0.2574 -0.2424
34564SOL    HW121684  13.972   4.473   7.288  2.1331 -1.3208  0.2387
34564SOL    HW221685  13.975   4.622   7.262 -2.2016 -1.0084  0.7514
34565SOL     OW21686  12.294  12.343   5.068 -0.0311  0.4915  0.6530
34565SOL    HW121687  12.200  12.326   5.074  0.1072 -0.1909  0.9785
34565SOL    HW221688  12.308  12.367   4.976 -0.7115  1.8684  0.8851
34566SOL     OW21689   6.254   5.134  10.828  0.3846  0.4839  0.4593
34566SOL    HW121690   6.248   5.039  10.826 -0.1604  0.5155 -1.4077
34566SOL    HW221691   6.343   5.153  10.859  0.4807 -0.6137  0.8759
34567SOL     OW21692  13.532   6.595  10.404 -0.2779 -0.3924 -0.2099
34567SOL    HW121693  13.584   6.650  10.345 -0.3865  1.6430  1.4752
34567SOL    HW221694  13.558   6.622  10.492 -2.6473 -0.7962  0.6926
34568SOL     OW21695   7.959   0.751   5.959 -0.4113  0.8512 -0.2879
34568SOL    HW121696   7.953   0.832   5.910  1.8246  1.0396 -0.3558
34568SOL    HW221697   7.871   0.713   5.954 -1.2743  2.8066 -0.9948
34569SOL     OW21698  13.577   9.123  13.633  0.1005 -0.0163  0.0624
34569SOL    HW121699  13.521   9.108  13.709  1.0466 -0.7530  0.6360
34569SOL    HW221700  13.531   9.190  13.582 -1.5763 -1.0015  0.2204
34570SOL     OW21701   4.395  10.078  12.881 -0.0158 -0.3082 -0.0264
34570SOL    HW121702   4.460  10.067  12.950 -0.3627 -0.1664  0.3249
34570SOL    HW221703   4.394   9.994  12.834 -0.6401 -0.8259  0.8872
34571SOL     OW21704   8.736   6.671   9.329 -0.4195 -0.3291  0.3739
34571SOL    HW121705   8.735   6.742   9.393  2.8529 -1.0845  1.4357
34571SOL    HW221706   8.788   6.706   9.256  0.1200 -1.1498  0.3503
34572SOL     OW21707   9.961  13.788   8.193 -0.5586 -0.2684 -0.2092
34572SOL    HW121708   9.979  13.742   8.111  1.1995  2.3845 -1.4811
34572SOL    HW221709   9.875  13.828   8.179 -0.4039 -0.0821 -0.6530
34573SOL     OW21710   4.788   7.461   5.007  0.0836  0.0261  0.2326
34573SOL    HW121711   4.809   7.374   5.039  0.2864  0.1818  0.5333
34573SOL    HW221712   4.824   7.464   4.918  0.7059  0.0498  0.4876
34574SOL     OW21713  10.713  12.306   1.594 -0.3258  0.1580  0.1740
34574SOL    HW121714  10.720  12.339   1.683 -0.4765 -0.3960  0.3951
34574SOL    HW221715  10.633  12.347   1.560 -0.4145  0.1597  0.3807
34575SOL     OW21716   4.857   9.809   4.613 -0.0372  0.2857 -0.2667
34575SOL    HW121717   4.833   9.729   4.568  1.6278  0.2073 -1.0787
34575SOL    HW221718   4.883   9.781   4.701 -1.6372  0.2394  0.2220
34576SOL     OW21719  13.977   0.580   3.703  0.1460  0.1382  0.4044
34576SOL    HW121720  14.030   0.565   3.625 -1.0749 -1.0847 -0.2323
34576SOL    HW221721  13.890   0.601   3.669 -0.3565 -0.2156  1.4259
34577SOL     OW21722   5.684   6.797  12.536  0.1520  0.4434 -0.0968
34577SOL    HW121723   5.606   6.760  12.577  0.1196  0.2437 -0.3400
34577SOL    HW221724   5.719   6.857  12.602  0.8343 -0.8436  0.7381
34578SOL     OW21725  10.805   3.963  11.822  0.2041 -0.5522 -0.4770
34578SOL    HW121726  10.814   3.880  11.869 -1.1574 -1.2559 -1.4040
34578SOL    HW221727  10.827   3.941  11.731 -0.3279  0.0738 -0.7592
34579SOL     OW21728   3.563   4.628  12.780 -0.2499 -0.7658  0.2570
34579SOL    HW121729   3.472   4.657  12.770  0.4103  2.3049  1.9022
34579SOL    HW221730   3.613   4.684  12.721  0.7453 -1.2877  0.5687
34580SOL     OW21731   0.912   1.770   3.146 -0.2079 -0.7227 -0.6410
34580SOL    HW121732   0.972   1.789   3.074  0.2328  0.5038  0.0129
34580SOL    HW221733   0.963   1.717   3.207  0.5333  0.9810  0.2928
34581SOL     OW21734  11.108  11.721   9.540  0.0139  0.3101  0.3169
34581SOL    HW121735  11.041  11.761   9.596 -1.4052 -0.6278 -0.6391
34581SOL    HW221736  11.188  11.725   9.593 -0.9625  0.6989  1.8546
34582SOL     OW21737   3.210   6.409   9.998  0.1209  0.0361 -0.1251
34582SOL    HW121738   3.143   6.402   9.930  0.4000 -0.0329 -0.3944
34582SOL    HW221739   3.248   6.495   9.986  0.2579 -0.0261 -0.1384
34583SOL     OW21740  14.075  13.136   7.554  0.2085  0.7544 -0.6333
34583SOL    HW121741  13.991  13.092   7.539  0.2986  1.1086 -2.3471
34583SOL    HW221742  14.073  13.212   7.496  0.6012  2.3388  1.3023
34584SOL     OW21743   3.407   0.297   2.281  0.1931 -0.0055 -0.0588
34584SOL    HW121744   3.466   0.256   2.344 -0.2026  0.6264  0.7363
34584SOL    HW221745   3.448   0.381   2.260 -0.6560  0.6527  0.8715
34585SOL     OW21746  13.167  10.772   6.449 -0.1813 -0.1805 -0.3924
34585SOL    HW121747  13.104  10.707   6.419 -0.9125  1.0315 -1.6384
34585SOL    HW221748  13.162  10.842   6.384  2.0300  0.2418 -0.1949
34586SOL     OW21749   7.309   6.483   6.343  0.3361 -0.7406 -0.3037
34586SOL    HW121750   7.392   6.519   6.310  0.0238  1.0662  0.7596
34586SOL    HW221751   7.282   6.421   6.276  2.8059 -1.8006 -0.4516
34587SOL     OW21752  12.834   6.798   4.667 -0.3391 -0.2669  0.2135
34587SOL    HW121753  12.911   6.846   4.638  1.0972 -1.0892  2.4057
34587SOL    HW221754  12.813   6.836   4.752 -3.7545  1.3893 -1.1493
34588SOL     OW21755   6.019   2.371  11.344 -0.2739 -0.0157  0.0054
34588SOL    HW121756   5.998   2.462  11.322 -0.6635  0.0446  0.5938
34588SOL    HW221757   6.046   2.374  11.435 -0.1235 -0.4700 -0.0215
34589SOL     OW21758   7.124   7.168  11.709 -0.4287 -0.1427 -0.3626
34589SOL    HW121759   7.164   7.190  11.793  0.2214 -0.2593 -0.6383
34589SOL    HW221760   7.030   7.160  11.729 -0.5875  1.8885 -0.0474
34590SOL     OW21761  10.027  11.406   3.507  0.2976 -0.4858 -0.3075
34590SOL    HW121762  10.105  11.416   3.452  0.1740 -0.4106 -0.4708
34590SOL    HW221763  10.026  11.314   3.532  0.6194 -0.4185 -0.0363
34591SOL     OW21764   0.416  11.765   8.767 -0.2323 -0.4923  0.4227
34591SOL    HW121765   0.377  11.685   8.800  1.5462 -1.0241  1.3761
34591SOL    HW221766   0.478  11.791   8.835  1.0151  0.3216 -0.9675
34592SOL     OW21767  11.492  13.343   7.544 -0.0977 -0.3832 -0.1133
34592SOL    HW121768  11.493  13.247   7.545 -2.5838 -0.5010 -1.1203
34592SOL    HW221769  11.412  13.366   7.496  0.5875  2.2109 -0.1760
34593SOL     OW21770   4.450   0.514   9.482  0.4477  0.4403  0.2880
34593SOL    HW121771   4.377   0.563   9.519  0.6417  0.6874  0.3495
34593SOL    HW221772   4.501   0.488   9.559 -0.7522 -1.6639  0.4339
34594SOL     OW21773   6.457   3.544  10.156 -0.2805 -0.3617 -0.0671
34594SOL    HW121774   6.485   3.634  10.141  1.9317 -0.9240  0.3113
34594SOL    HW221775   6.451   3.507  10.068  0.0157 -0.1710 -0.1717
34595SOL     OW21776  12.978  11.965   6.699 -0.0648  0.3337 -0.3165
34595SOL    HW121777  12.943  11.894   6.752 -3.2941  1.7388 -0.3256
34595SOL    HW221778  13.044  12.006   6.754  0.6242 -1.5520  0.3451
34596SOL     OW21779   2.709  13.017   3.754 -0.0755 -0.2902 -0.4490
34596SOL    HW121780   2.699  13.108   3.726 -2.1528 -0.5611 -0.7480
34596SOL    HW221781   2.622  12.979   3.741  0.8546 -2.4336 -0.7166
34597SOL     OW21782   9.509   1.654  10.874 -0.2397 -0.2792  0.4193
34597SOL    HW121783   9.430   1.706  10.855 -0.1651  0.2384  1.4591
34597SOL    HW221784   9.581   1.709  10.842 -0.1789  0.1423  1.2684
34598SOL     OW21785  13.324   3.732   4.798  0.7378 -0.4181  0.1836
34598SOL    HW121786  13.372   3.690   4.869  2.0537 -1.1766 -1.0943
34598SOL    HW221787  13.388   3.738   4.726 -0.5694  0.2160 -0.9770
34599SOL     OW21788  12.725   2.613   2.240  0.1843  0.0096 -0.6714
34599SOL    HW121789  12.751   2.643   2.327 -2.3901  0.5133  0.0270
34599SOL    HW221790  12.802   2.570   2.204  2.6345  3.3631  0.1690
34600SOL     OW21791   8.182   4.062   5.838  0.8752 -0.9167 -0.7166
34600SOL    HW121792   8.255   4.012   5.875  2.9083  1.5542 -1.1163
34600SOL    HW221793   8.209   4.081   5.748  0.8166  1.8177 -0.2590
34601SOL     OW21794   4.762   5.542  10.085 -0.0384 -0.2059 -0.6464
34601SOL    HW121795   4.808   5.611  10.133  0.6335 -0.7824 -0.4467
34601SOL    HW221796   4.691   5.588  10.040  0.3220  0.5953 -0.4219
34602SOL     OW21797  13.743   4.357   6.891  0.0691 -0.6915  0.6800
34602SOL    HW121798  13.824   4.357   6.839 -2.0303  0.4636 -2.9850
34602SOL    HW221799  13.702   4.273   6.872 -1.4856  0.3718 -1.0416
34603SOL     OW21800   6.405   3.167   6.110  0.5576 -0.0399  0.7119
34603SOL    HW121801   6.485   3.217   6.123  0.1589  1.2945 -1.4295
34603SOL    HW221802   6.346   3.227   6.065 -0.4340 -1.9968 -0.7749
34604SOL     OW21803   9.588   7.334   1.310  0.2079 -0.5593 -0.3218
34604SOL    HW121804   9.551   7.357   1.224 -1.5320 -0.1188  0.5049
34604SOL    HW221805   9.680   7.316   1.292  0.0570  0.2579 -2.1672
34605SOL     OW21806   0.024   9.904  13.978  0.3098  0.5414 -0.4083
34605SOL    HW121807   0.056   9.904  13.888  0.8011 -0.4238 -0.2444
34605SOL    HW221808  -0.003   9.814  13.994  1.9991  0.2311  1.0207
34606SOL     OW21809   7.142   6.997  10.747 -0.0163 -0.3401 -0.3671
34606SOL    HW121810   7.157   7.050  10.669 -1.7111  0.7832  0.0221
34606SOL    HW221811   7.230   6.972  10.777  0.7656  1.1548 -1.2968
34607SOL     OW21812   4.615   3.999   0.199  0.4097  0.1923 -0.3439
34607SOL    HW121813   4.558   4.061   0.152 -1.8319 -2.1777 -0.9604
34607SOL    HW221814   4.559   3.959   0.265  0.5021 -3.8723 -2.4013
34608SOL     OW21815   5.158   3.233   3.143 -0.4226  0.6904 -0.2896
34608SOL    HW121816   5.096   3.263   3.209  1.6837  3.1504  0.7230
34608SOL    HW221817   5.223   3.182   3.192  0.5062  1.5304 -0.6047
34609SOL     OW21818  10.793  12.082   5.098  0.4418  0.1939 -0.1531
34609SOL    HW121819  10.824  11.994   5.075  0.4421 -0.0489  0.7350
34609SOL    HW221820  10.792  12.083   5.194 -0.3981  0.8624 -0.1544
34610SOL     OW21821   6.600   0.357  13.979 -0.3717 -0.2744  0.0390
34610SOL    HW121822   6.685   0.342  13.937 -0.4421 -0.7892  0.0750
34610SOL    HW221823   6.579   0.273  14.019 -0.3284  0.1941  1.0655
34611SOL     OW21824   4.280   2.184   3.766  0.5108  0.0577  0.2184
34611SOL    HW121825   4.201   2.235   3.749 -1.0249 -2.1112  0.5641
34611SOL    HW221826   4.321   2.175   3.679  0.5021  1.2928  0.0592
34612SOL     OW21827  11.107  13.358  13.350  0.3230 -0.2470  0.5043
34612SOL    HW121828  11.018  13.388  13.330 -0.0974 -1.5853  0.3103
34612SOL    HW221829  11.117  13.377  13.443 -0.6802 -1.2986  0.8519
34613SOL     OW21830  12.823   3.192  14.128 -0.2839  0.0637 -0.0718
34613SOL    HW121831  12.791   3.145  14.050 -2.5627 -0.7626  1.2754
34613SOL    HW221832  12.825   3.125  14.196 -0.1042  1.1643  1.0216
34614SOL     OW21833   3.809   4.872  13.539 -0.3844  0.0292 -1.3656
34614SOL    HW121834   3.717   4.868  13.562 -0.3692 -0.8177 -1.3985
34614SOL    HW221835   3.846   4.790  13.573  0.5993  0.8692 -0.3419
34615SOL     OW21836   6.317  11.296   8.829 -0.4055  0.3667  0.5787
34615SOL    HW121837   6.227  11.321   8.806  0.1744  0.9610 -1.2404
34615SOL    HW221838   6.345  11.241   8.756 -0.5585 -3.2249  2.9777
34616SOL     OW21839   2.298   4.478  11.407  0.1878 -0.1971 -0.1233
34616SOL    HW121840   2.227   4.454  11.467 -0.3534  1.1297 -0.2071
34616SOL    HW221841   2.255   4.488  11.322  0.6371 -0.2775 -0.3611
34617SOL     OW21842   5.116   5.719   9.894 -0.1509  0.3891  0.0634
34617SOL    HW121843   5.177   5.737   9.966 -1.1579 -0.5510  1.2042
34617SOL    HW221844   5.165   5.664   9.833  0.6879  1.1076  0.0817
34618SOL     OW21845   9.745  13.147   6.143  0.5450 -0.6158 -0.5334
34618SOL    HW121846   9.716  13.230   6.105  1.6008 -0.1004 -0.2320
34618SOL    HW221847   9.665  13.107   6.176 -0.0843 -0.0809 -1.3682
34619SOL     OW21848   0.355   3.033   5.264 -0.3367 -0.1567 -0.5875
34619SOL    HW121849   0.379   3.025   5.172 -0.1490 -0.2381 -0.5321
34619SOL    HW221850   0.260   3.045   5.263 -0.1436  1.5320 -0.8897
34620SOL     OW21851   8.773  11.188   2.133  0.7410 -0.1662  0.8357
34620SOL    HW121852   8.821  11.147   2.206  0.4387 -0.8162  0.6766
34620SOL    HW221853   8.815  11.152   2.055  1.0559  0.5213  0.6850
34621SOL     OW21854  13.130   8.560   3.333  0.2386 -0.4903  1.2892
34621SOL    HW121855  13.040   8.568   3.301  0.4177 -2.1810  0.2112
34621SOL    HW221856  13.160   8.650   3.345 -1.2536  0.1207  0.6717
34622SOL     OW21857   9.435   8.593  12.265 -0.4499  0.5817  0.6792
34622SOL    HW121858   9.503   8.652  12.231 -0.4725  2.0879  3.0184
34622SOL    HW221859   9.451   8.510  12.220  0.5835  1.9203 -1.5781
34623SOL     OW21860   5.336   9.678   2.053 -0.0049 -0.0095 -0.0765
34623SOL    HW121861   5.244   9.703   2.041 -0.8622 -2.9357 -0.3789
34623SOL    HW221862   5.344   9.595   2.007  3.1456  0.6956 -1.0091
34624SOL     OW21863  13.687   3.833   8.046 -0.3512 -0.3029  0.1847
34624SOL    HW121864  13.665   3.745   8.017 -0.3682  0.0798 -1.0579
34624SOL    HW221865  13.737   3.870   7.973  1.8329 -0.1075  1.6849
34625SOL     OW21866  11.785  13.557   2.615 -0.3561 -0.2957 -0.2514
34625SOL    HW121867  11.876  13.586   2.608 -0.5800 -0.0021 -2.6360
34625SOL    HW221868  11.760  13.534   2.526 -2.1121 -2.0303  0.6208
34626SOL     OW21869   5.944  10.818  10.706  0.0631 -0.1669  0.3912
34626SOL    HW121870   5.851  10.808  10.689  0.1487 -1.3544  0.5761
34626SOL    HW221871   5.951  10.901  10.754 -0.8857 -0.0464  0.3241
34627SOL     OW21872  12.619  12.695  12.446 -0.1152 -0.1865 -0.0337
34627SOL    HW121873  12.538  12.743  12.428  0.1820 -0.7176 -3.3245
34627SOL    HW221874  12.591  12.619  12.497 -1.1942  1.1431  1.4662
34628SOL     OW21875   3.153   1.644  12.651  0.1115 -0.3033  0.1378
34628SOL    HW121876   3.239   1.677  12.626  0.7514 -1.8830  0.1097
34628SOL    HW221877   3.123   1.595  12.574  0.0795 -1.3909  0.8172
34629SOL     OW21878  11.955  11.882  11.453 -0.5198 -0.2741 -0.6650
34629SOL    HW121879  11.925  11.861  11.541 -0.8333  1.5848 -0.2945
34629SOL    HW221880  11.887  11.847  11.395 -0.3441 -1.4377 -0.2012
34630SOL     OW21881  12.938  13.972   1.958  0.9299 -0.4360 -0.4461
34630SOL    HW121882  12.884  13.976   1.879 -0.1069  0.8453  0.2911
34630SOL    HW221883  12.903  13.898   2.008  0.3630 -0.0974 -0.3382
34631SOL     OW21884   1.137   0.047   4.069  0.0902 -0.0199  0.9532
34631SOL    HW121885   1.046   0.076   4.069 -0.4060 -1.5181  0.5238
34631SOL    HW221886   1.153   0.017   3.979  0.5662 -1.0628  1.3660
34632SOL     OW21887   9.320   2.252   7.178 -0.3972  0.0970  0.1017
34632SOL    HW121888   9.387   2.204   7.227 -1.2382 -0.3922  0.7852
34632SOL    HW221889   9.368   2.326   7.139  1.0815 -1.6051 -1.5365
34633SOL     OW21890   9.231   4.228  13.164 -0.4013  0.1211 -0.0172
34633SOL    HW121891   9.296   4.235  13.094 -0.7590 -1.4924 -0.5473
34633SOL    HW221892   9.164   4.291  13.141  0.6452  1.3544  0.1968
34634SOL     OW21893  10.725  12.781   3.151  0.0685  0.7051 -0.1527
34634SOL    HW121894  10.782  12.825   3.088  0.7341  1.9536  1.2400
34634SOL    HW221895  10.662  12.848   3.177 -0.1723  0.2265  0.5228
34635SOL     OW21896   9.372   5.470  13.535 -0.2252  0.4097  0.3834
34635SOL    HW121897   9.278   5.474  13.517  0.2338  0.7684 -2.5438
34635SOL    HW221898   9.395   5.559  13.560 -0.4990  0.6144 -0.0711
34636SOL     OW21899  11.804  14.032   7.232  0.2460 -0.0597 -0.1104
34636SOL    HW121900  11.879  14.089   7.244  0.5972 -0.7830  1.3848
34636SOL    HW221901  11.829  13.950   7.276  0.0031 -1.6056 -2.6399
34637SOL     OW21902   3.250   3.179  10.708 -0.3766 -0.0867 -0.3780
34637SOL    HW121903   3.239   3.236  10.783 -1.3785 -1.7836  0.8369
34637SOL    HW221904   3.233   3.235  10.632 -1.4308  1.1967  0.7525
34638SOL     OW21905   8.178   7.476  14.035  0.6791 -0.0508 -0.4837
34638SOL    HW121906   8.148   7.535  13.966  1.5457  2.0548  0.8228
34638SOL    HW221907   8.115   7.404  14.035 -2.0313  2.1369 -0.4945
34639SOL     OW21908   5.361   5.383   3.853 -0.2169  0.8888 -0.0309
34639SOL    HW121909   5.417   5.317   3.894  0.0294 -0.2390 -2.0406
34639SOL    HW221910   5.278   5.376   3.901  0.5470  0.8234  1.3454
34640SOL     OW21911   3.202   7.933   7.577 -0.2489  0.3538  0.0329
34640SOL    HW121912   3.227   7.842   7.589 -0.9907  0.4150  2.5967
34640SOL    HW221913   3.264   7.982   7.631 -0.3809  1.2917 -0.6481
34641SOL     OW21914   9.753   0.032   4.852 -0.8201  0.2592  0.5288
34641SOL    HW121915   9.749   0.107   4.792 -1.4921 -1.2781 -1.4310
34641SOL    HW221916   9.846   0.007   4.853 -0.7452  0.5303  0.4443
34642SOL     OW21917   6.331   6.258   5.825 -0.4142 -0.0775 -0.0267
34642SOL    HW121918   6.325   6.225   5.915  0.1141  0.8710  0.3702
34642SOL    HW221919   6.303   6.185   5.771 -0.4742 -0.7546  0.8978
34643SOL     OW21920   5.504   4.810  10.678 -0.1694 -1.0091 -0.2441
34643SOL    HW121921   5.530   4.864  10.603  0.0700 -0.6400  0.0967
34643SOL    HW221922   5.409   4.807  10.673 -0.1214 -1.4888 -0.9034
34644SOL     OW21923   9.224  11.376   0.360  0.5211  0.0318  0.1683
34644SOL    HW121924   9.313  11.379   0.394  0.6431 -0.0044 -0.1487
34644SOL    HW221925   9.218  11.450   0.299  0.1230  0.4518  0.6966
34645SOL     OW21926   7.445  12.710   5.693  0.4074  0.2610  0.5385
34645SOL    HW121927   7.489  12.794   5.686  0.1034  0.5011  1.3302
34645SOL    HW221928   7.397  12.701   5.611  2.3498 -0.2775 -0.5967
34646SOL     OW21929  11.427   1.684   3.443 -0.0211 -0.4576  0.0126
34646SOL    HW121930  11.367   1.621   3.401 -0.2589 -0.2361  0.0221
34646SOL    HW221931  11.458   1.638   3.521 -1.4971  0.0677  0.9378
34647SOL     OW21932   8.387   7.698  14.050 -0.0534 -0.2882 -0.0971
34647SOL    HW121933   8.373   7.791  14.032  0.2102 -0.3126 -0.4367
34647SOL    HW221934   8.309   7.655  14.016 -0.5034 -0.1249  0.6945
34648SOL     OW21935   9.708  12.266   6.275  0.2876  0.5290  0.1653
34648SOL    HW121936   9.738  12.213   6.201  1.2256  1.8396 -0.4317
34648SOL    HW221937   9.615  12.283   6.257  0.2114 -0.1271 -0.0925
34649SOL     OW21938   4.106   6.476   9.525 -0.4345 -0.2983 -0.0027
34649SOL    HW121939   4.169   6.445   9.590 -2.2345 -1.0434  1.5024
34649SOL    HW221940   4.150   6.548   9.481  0.9540  0.1598  1.9701
34650SOL     OW21941  10.382   8.805   7.899  0.6224 -0.1509 -0.0506
34650SOL    HW121942  10.470   8.839   7.883 -0.1328  2.2462  0.5095
34650SOL    HW221943  10.324   8.871   7.862 -0.9647 -1.0853  0.6849
34651SOL     OW21944   9.219  12.444   0.861  0.4637 -0.5333 -0.0908
34651SOL    HW121945   9.306  12.405   0.849  1.3575  1.2033  0.4211
34651SOL    HW221946   9.232  12.511   0.927 -1.5795 -1.0847  0.9518
34652SOL     OW21947   1.376   7.970   5.705  0.1838 -0.0343  0.0098
34652SOL    HW121948   1.410   8.037   5.646 -1.2061 -0.5152 -1.4264
34652SOL    HW221949   1.307   7.926   5.654  0.6585 -2.1672  1.0886
34653SOL     OW21950  10.050  11.672   6.721  0.0998  0.3289  0.3186
34653SOL    HW121951   9.975  11.636   6.768  0.1394  0.1146  0.2170
34653SOL    HW221952  10.051  11.765   6.745 -1.3940  0.8088 -1.2040
34654SOL     OW21953   3.226   9.939   9.440 -0.0200  0.1256 -0.4791
34654SOL    HW121954   3.315   9.931   9.406  0.0490  1.8265 -0.7700
34654SOL    HW221955   3.171   9.900   9.373  0.3821  0.5609 -1.0765
34655SOL     OW21956  10.456   5.822   9.362 -0.2616  0.1250 -0.0800
34655SOL    HW121957  10.471   5.851   9.452 -1.5514  0.1308  0.1532
34655SOL    HW221958  10.460   5.727   9.366  0.3453  0.1429 -0.1531
34656SOL     OW21959   8.940   8.725  11.678  0.6022  0.0502 -0.0428
34656SOL    HW121960   8.949   8.631  11.662 -1.6707 -0.4454  1.1592
34656SOL    HW221961   8.888   8.731  11.758  1.0674  2.3586  0.1668
34657SOL     OW21962  13.954  12.919   2.487 -0.3314  0.7938 -0.3792
34657SOL    HW121963  13.917  12.941   2.401  1.4036 -0.2632 -1.4708
34657SOL    HW221964  13.889  12.861   2.527 -1.3147  1.5654 -0.8331
34658SOL     OW21965   8.501   5.938  13.126 -0.3329 -0.1408  0.1406
34658SOL    HW121966   8.581   5.891  13.102  1.0674  1.9344  0.4386
34658SOL    HW221967   8.440   5.920  13.055  0.4351 -1.6452 -0.1890
34659SOL     OW21968   9.952   3.819   9.552  0.5023  0.3472 -0.0526
34659SOL    HW121969  10.021   3.812   9.486  1.6904  1.0047  1.0801
34659SOL    HW221970   9.930   3.912   9.553 -1.5221 -0.0494 -1.4608
34660SOL     OW21971   7.303   7.553   7.897  0.0993 -0.0873  0.0376
34660SOL    HW121972   7.244   7.561   7.822 -2.1861  0.2776  1.7744
34660SOL    HW221973   7.366   7.624   7.886 -2.2768  2.2075  0.1442
34661SOL     OW21974   7.949  12.920   0.081 -0.0118 -0.2253  0.0628
34661SOL    HW121975   8.033  12.922   0.035  0.0976  1.0834  0.2847
34661SOL    HW221976   7.947  12.834   0.122  0.0873 -1.2731 -1.9917
34662SOL     OW21977   5.922  10.599   0.332  0.5479  0.1680 -0.4629
34662SOL    HW121978   6.002  10.615   0.380  1.3718  0.5377 -1.8974
34662SOL    HW221979   5.908  10.680   0.282  0.1101 -0.4547 -1.3637
34663SOL     OW21980  10.623  12.110   0.867  0.3651  0.4148  0.1791
34663SOL    HW121981  10.563  12.050   0.823 -0.7233  2.1396 -0.8020
34663SOL    HW221982  10.621  12.084   0.959  1.1221 -1.9957 -0.4156
34664SOL     OW21983   7.479   2.918  11.766 -0.1909  0.0456 -0.1111
34664SOL    HW121984   7.563   2.928  11.721 -0.4757  2.6620 -0.1910
34664SOL    HW221985   7.413   2.926  11.696 -0.5515  0.4701  0.2731
34665SOL     OW21986   4.095  11.017  12.113  0.1430 -0.7821  0.5708
34665SOL    HW121987   4.091  10.966  12.031  0.2926 -1.1975  0.8199
34665SOL    HW221988   4.149  11.093  12.091  0.9763 -1.3702  0.5400
34666SOL     OW21989   2.571  12.910   4.127  0.2618  0.2465 -0.5868
34666SOL    HW121990   2.655  12.923   4.082 -0.1524  0.4495 -1.3255
34666SOL    HW221991   2.510  12.968   4.081 -0.3093  0.0161 -0.1323
34667SOL     OW21992   5.282   9.933   8.117  0.1793  0.0757  0.0965
34667SOL    HW121993   5.366   9.969   8.145  1.0558 -2.5336  1.0933
34667SOL    HW221994   5.239  10.005   8.070  2.9030  1.5077 -0.3549
34668SOL     OW21995   4.996  14.045   3.793  0.2065 -0.0994 -0.2444
34668SOL    HW121996   4.950  13.980   3.845 -0.6810  0.2530 -0.5711
34668SOL    HW221997   4.965  14.030   3.703  0.0045  0.7556 -0.3246
34669SOL     OW21998   3.980   0.049   1.864  0.4278  0.3245 -0.5051
34669SOL    HW121999   4.044  -0.022   1.866  0.1754  0.1063  0.0513
34669SOL    HW222000   3.917   0.023   1.798 -0.3909 -0.6267  0.5950
34670SOL     OW22001   0.634   3.441   3.678  0.2075 -0.2100  0.0896
34670SOL    HW122002   0.724   3.409   3.682  0.2796  0.0864  1.0700
34670SOL    HW222003   0.610   3.457   3.769 -0.0498  1.8729 -0.2940
34671SOL     OW22004  11.638   7.083   1.980 -0.0418  0.0967 -0.2865
34671SOL    HW122005  11.630   7.178   1.994  1.8385  0.2269  0.1601
34671SOL    HW222006  11.584   7.044   2.049  1.3542  0.8442  1.2933
34672SOL     OW22007   6.773   0.334   2.983 -0.1201  0.0726  0.0395
34672SOL    HW122008   6.709   0.319   2.914 -0.1093  1.1751 -0.2385
34672SOL    HW222009   6.801   0.425   2.970  0.3938  0.0768  1.0679
34673SOL     OW22010   6.567   0.087   4.517  0.1486 -0.1770 -0.4802
34673SOL    HW122011   6.656   0.054   4.529 -0.0455  0.3477  4.1788
34673SOL    HW222012   6.579   0.166   4.464  2.4872 -0.0657  0.0824
34674SOL     OW22013   8.524  12.672   5.004  0.0517 -0.0077 -0.5975
34674SOL    HW122014   8.503  12.729   4.931  0.7710 -0.7332 -1.3918
34674SOL    HW222015   8.612  12.697   5.030 -0.2458  0.3332  0.1156
34675SOL     OW22016  10.660   9.662   8.328  0.8439  0.6781  0.1962
34675SOL    HW122017  10.653   9.575   8.368  0.1337  0.8016  0.3554
34675SOL    HW222018  10.717   9.711   8.387 -1.4539  1.3489  1.9988
34676SOL     OW22019   5.409   5.996   7.690 -0.5236  0.0068 -0.1071
34676SOL    HW122020   5.318   6.021   7.679 -0.7502 -0.4261  0.6979
34676SOL    HW222021   5.441   6.048   7.764 -0.3156 -0.3307  0.0462
34677SOL     OW22022   4.585  11.412   7.115  0.3444 -0.4156 -0.3749
34677SOL    HW122023   4.571  11.505   7.095  0.3764  0.0731  1.6524
34677SOL    HW222024   4.676  11.408   7.146  0.2983 -1.1017 -0.3198
34678SOL     OW22025   3.178   2.279   1.586  0.1812  0.0896 -0.0984
34678SOL    HW122026   3.255   2.241   1.545  0.7563 -1.0525  1.8693
34678SOL    HW222027   3.151   2.349   1.528  0.8809 -1.4249 -2.3845
34679SOL     OW22028   4.052   6.212   9.123  0.2828 -0.3671  1.0028
34679SOL    HW122029   3.967   6.186   9.089  0.4735  0.7892 -0.5023
34679SOL    HW222030   4.109   6.137   9.107  0.0108 -0.3914  0.0839
34680SOL     OW22031  12.180   1.470   0.845  0.4045  0.3613 -0.3480
34680SOL    HW122032  12.115   1.403   0.826  0.1552 -0.2287  2.1677
34680SOL    HW222033  12.233   1.433   0.915  1.2614  2.1918  0.0510
34681SOL     OW22034  13.469   4.416   6.884  0.2298 -0.1376  0.4260
34681SOL    HW122035  13.555   4.376   6.901 -0.2571 -1.3611  0.0718
34681SOL    HW222036  13.488   4.485   6.821  1.0115 -0.1556  0.6210
34682SOL     OW22037   9.306  10.858  14.070  0.0616 -0.0412  0.4551
34682SOL    HW122038   9.328  10.932  14.127 -0.6714  0.7127 -0.2102
34682SOL    HW222039   9.364  10.787  14.099  0.1829  0.5265  1.6698
34683SOL     OW22040   2.079   1.179  13.334  0.0866  0.2605  0.4032
34683SOL    HW122041   2.103   1.087  13.344 -0.7439 -0.0511 -0.3240
34683SOL    HW222042   1.985   1.181  13.349 -0.2707  0.6347 -1.6928
34684SOL     OW22043   4.564   5.805   3.248  0.2922 -0.0633  0.4906
34684SOL    HW122044   4.505   5.877   3.231 -0.1478 -0.2807  1.0867
34684SOL    HW222045   4.601   5.822   3.334  1.8529  0.5754 -0.2548
34685SOL     OW22046   6.274   1.287   5.798  0.2489  0.0927 -0.3359
34685SOL    HW122047   6.345   1.351   5.789  1.0858 -0.5138  1.4352
34685SOL    HW222048   6.199   1.339   5.826  0.6970  0.4349  0.2680
34686SOL     OW22049   2.739   5.406  11.512  0.7329 -0.2337  0.4221
34686SOL    HW122050   2.645   5.415  11.498  0.8414  0.5054  0.1255
34686SOL    HW222051   2.747   5.335  11.575 -0.0678  0.2383  1.0700
34687SOL     OW22052   7.333   4.230  12.279  0.0051  0.2291 -0.2826
34687SOL    HW122053   7.387   4.220  12.202  1.0785  1.3213  0.2982
34687SOL    HW222054   7.277   4.305  12.260 -1.5320 -1.0372 -0.9767
34688SOL     OW22055  12.899   9.082   3.140  0.1855  0.5508  0.0533
34688SOL    HW122056  12.817   9.107   3.183  0.1879 -0.2416  0.5431
34688SOL    HW222057  12.937   9.015   3.197  0.5625  0.0189 -0.7929
34689SOL     OW22058   1.660   7.744   4.014 -0.4978 -0.1615  0.0128
34689SOL    HW122059   1.715   7.794   4.074 -0.8368  0.0964  0.1182
34689SOL    HW222060   1.687   7.773   3.927  0.5142 -1.0922  0.0035
34690SOL     OW22061  11.645   8.012   7.345  1.0578  0.5877  0.2726
34690SOL    HW122062  11.677   8.036   7.433  0.0809 -0.5514  0.9574
34690SOL    HW222063  11.635   8.096   7.300  1.0610  1.2324  1.4293
34691SOL     OW22064  12.673   8.151   9.318 -0.1053  0.2299 -0.5123
34691SOL    HW122065  12.665   8.235   9.363  0.8959  0.0871 -0.0419
34691SOL    HW222066  12.765   8.127   9.328 -0.6724 -1.6254  0.6656
34692SOL     OW22067   2.699   0.575   1.375 -0.4512 -0.0665 -0.5903
34692SOL    HW122068   2.715   0.658   1.419 -1.0226 -0.5168  0.5126
34692SOL    HW222069   2.607   0.580   1.347  0.0779  0.4667 -2.3278
34693SOL     OW22070  10.836  10.041   8.183 -0.1078 -0.2682  0.0829
34693SOL    HW122071  10.833  10.039   8.279 -1.3923 -0.1114  0.0709
34693SOL    HW222072  10.766   9.981   8.156  0.5572 -0.6706 -0.7604
34694SOL     OW22073  12.544   1.000   3.131 -0.3001  0.5285 -0.2611
34694SOL    HW122074  12.531   1.091   3.158  0.6132  0.3263  0.9439
34694SOL    HW222075  12.635   0.997   3.102 -0.1587 -0.1278  0.2444
34695SOL     OW22076  11.601   8.883   8.962  0.6490 -0.3746  0.2535
34695SOL    HW122077  11.682   8.907   8.918  0.2349 -1.1957 -1.0043
34695SOL    HW222078  11.630   8.826   9.034  1.2709  0.3392  0.5788
34696SOL     OW22079  10.276  10.262   5.902  0.1202 -0.9573 -0.1792
34696SOL    HW122080  10.223  10.237   5.826 -0.5851  1.3845 -0.5422
34696SOL    HW222081  10.280  10.357   5.898  0.5470 -0.7882  2.4081
34697SOL     OW22082   6.109  12.542   1.054 -0.0207  0.4648 -0.5245
34697SOL    HW122083   6.170  12.469   1.044  1.0638  1.5710 -2.7014
34697SOL    HW222084   6.023  12.501   1.049  0.5556 -0.7390 -1.1019
34698SOL     OW22085   2.689   9.557  10.509 -0.1111  0.1364 -0.5048
34698SOL    HW122086   2.676   9.466  10.485  0.8913 -0.4217  0.9006
34698SOL    HW222087   2.601   9.590  10.527 -0.6959  0.0868 -3.0249
34699SOL     OW22088   1.229  12.126   5.971 -0.5029  0.1214 -0.7821
34699SOL    HW122089   1.243  12.039   6.007 -0.2880 -0.3721 -1.9904
34699SOL    HW222090   1.151  12.117   5.916 -0.6594  0.7718 -0.6754
34700SOL     OW22091   5.433  12.930  11.874  0.6852 -0.1802  0.1522
34700SOL    HW122092   5.517  12.975  11.876 -0.0147  1.7852 -3.8059
34700SOL    HW222093   5.372  12.992  11.914  0.8449 -1.2349  2.1934
34701SOL     OW22094   0.318   1.407   1.532 -0.3995 -0.1114 -0.1876
34701SOL    HW122095   0.257   1.363   1.592  0.0015 -0.8546 -0.3154
34701SOL    HW222096   0.398   1.418   1.582 -0.0198 -0.8506 -0.6133
34702SOL     OW22097   1.359   5.560   6.901  0.0846  0.7217  0.8114
34702SOL    HW122098   1.331   5.475   6.933 -0.0242  0.6512  0.5375
34702SOL    HW222099   1.280   5.601   6.866  0.7229 -0.7360 -2.8275
34703SOL     OW22100  11.130   4.990  13.400  0.0185  0.4420 -0.3965
34703SOL    HW122101  11.087   4.985  13.485 -0.4939  0.2838 -0.6607
34703SOL    HW222102  11.125   5.083  13.375 -1.5126  0.1977 -1.0988
34704SOL     OW22103  13.150   6.079   3.769 -0.3847 -0.4500  0.2657
34704SOL    HW122104  13.101   5.997   3.765  0.1615 -0.7462 -0.6733
34704SOL    HW222105  13.169   6.101   3.677  2.1302 -0.9069  0.5963
34705SOL     OW22106  14.106  11.416  12.046 -0.0722 -0.4745  0.0642
34705SOL    HW122107  14.191  11.445  12.012 -1.2670  0.6756 -2.1796
34705SOL    HW222108  14.123  11.395  12.138  2.2661  1.4117  0.1684
34706SOL     OW22109   2.919   3.229  11.377  0.0525  0.5522 -0.3705
34706SOL    HW122110   2.955   3.157  11.326  0.0844 -0.0978  0.5495
34706SOL    HW222111   2.978   3.302  11.361  1.4794 -0.3316  0.6573
34707SOL     OW22112  14.021  11.924   6.685  0.3344 -0.4200  0.0352
34707SOL    HW122113  13.955  11.859   6.709  1.2348 -1.0931  0.7208
34707SOL    HW222114  14.034  11.912   6.591  0.2937 -1.0380  0.1097
34708SOL     OW22115   6.754   5.335  11.662 -0.3737 -0.0200 -0.0911
34708SOL    HW122116   6.710   5.337  11.577 -2.2327  0.2123  0.8242
34708SOL    HW222117   6.683   5.326  11.726  0.8625  0.9900  1.5219
34709SOL     OW22118   8.894  11.437   0.288  0.1705  0.2339  0.4281
34709SOL    HW122119   8.809  11.395   0.278 -0.3304  1.0373  1.1832
34709SOL    HW222120   8.935  11.428   0.203 -0.6285 -0.2556  0.0830
34710SOL     OW22121   2.097   6.348   8.301  0.3575 -0.2350  0.8540
34710SOL    HW122122   2.074   6.268   8.348 -1.8892  0.3152  0.7936
34710SOL    HW222123   2.046   6.417   8.342 -1.0313  0.4229 -1.7436
34711SOL     OW22124   9.949  11.489   6.283  0.5692 -0.1681  0.1233
34711SOL    HW122125   9.978  11.569   6.326  0.7422 -0.5272  0.6823
34711SOL    HW222126   9.983  11.418   6.337 -0.3581 -0.6147  0.1497
34712SOL     OW22127   5.462   9.725   6.282  0.1817 -0.1621  0.3572
34712SOL    HW122128   5.436   9.642   6.243  1.8132 -0.6419  0.2481
34712SOL    HW222129   5.403   9.789   6.242  1.8940 -0.5738 -3.1363
34713SOL     OW22130  12.349  14.062   5.747  0.2734 -0.0077 -0.0309
34713SOL    HW122131  12.351  14.132   5.682 -0.3946 -1.5888 -1.8321
34713SOL    HW222132  12.271  14.080   5.800 -1.9601 -1.1748 -2.6832
34714SOL     OW22133   2.746   6.174  11.890  0.1886  0.4865  0.0629
34714SOL    HW122134   2.804   6.229  11.837 -0.1013  0.3272 -0.4178
34714SOL    HW222135   2.788   6.088  11.889 -1.4022 -0.3588 -2.5368
34715SOL     OW22136   8.437   2.641   8.530 -0.3931  0.4292 -0.4671
34715SOL    HW122137   8.415   2.733   8.542 -1.7997  0.2469 -1.3855
34715SOL    HW222138   8.356   2.601   8.496  0.1575 -1.1558 -0.0126
34716SOL     OW22139  13.260   1.706  11.513  0.2951  0.2582  0.1522
34716SOL    HW122140  13.271   1.622  11.468 -0.4476  0.7707 -1.0021
34716SOL    HW222141  13.307   1.769  11.459 -0.8293  0.9254 -0.0751
34717SOL     OW22142   7.672   1.615   8.551  0.1979 -0.2928  0.4485
34717SOL    HW122143   7.679   1.558   8.475  1.2389  3.0412 -2.1966
34717SOL    HW222144   7.748   1.593   8.605  1.3813 -0.4691 -1.2113
34718SOL     OW22145   4.024  13.876   6.998 -0.0255 -0.2824 -0.2544
34718SOL    HW122146   4.036  13.918   7.083  0.1645 -1.2673  0.2154
34718SOL    HW222147   4.113  13.854   6.969 -0.1390 -0.5250 -0.4183
34719SOL     OW22148  13.942  10.643   8.891 -0.0559  0.5297 -0.6144
34719SOL    HW122149  13.985  10.717   8.847  1.1703 -0.3553 -0.9568
34719SOL    HW222150  13.950  10.571   8.829  0.7788 -0.4813  0.6358
34720SOL     OW22151   2.069  10.289   0.144  0.5268 -0.0297 -0.0699
34720SOL    HW122152   2.076  10.206   0.096 -0.1174 -0.2443  0.1869
34720SOL    HW222153   1.999  10.336   0.099 -1.2529 -0.9227  1.5978
34721SOL     OW22154  12.071   4.362  12.339  0.3254 -0.3865 -0.1665
34721SOL    HW122155  12.017   4.392  12.412  0.7238  0.6890 -0.2952
34721SOL    HW222156  12.161   4.366  12.371  0.3561 -1.9641 -0.0257
34722SOL     OW22157  12.458   0.684   5.270 -0.1878  0.4798  0.8061
34722SOL    HW122158  12.404   0.761   5.288 -0.5358  0.6077 -0.7081
34722SOL    HW222159  12.396   0.612   5.264  0.0229  0.2743  1.0406
34723SOL     OW22160   2.443   6.595  10.857 -0.5624  0.6709  0.5263
34723SOL    HW122161   2.395   6.549  10.789  0.9719 -0.0352 -0.1221
34723SOL    HW222162   2.434   6.688  10.835  0.5553  0.4316 -1.1261
34724SOL     OW22163   0.217   6.800   1.401 -0.1384  0.0653  0.0419
34724SOL    HW122164   0.179   6.744   1.333  2.0603 -0.1419 -1.1132
34724SOL    HW222165   0.239   6.881   1.356 -1.8277  1.3132  1.3519
34725SOL     OW22166   2.066   4.642   5.365  0.1943  0.4229 -0.6106
34725SOL    HW122167   1.989   4.683   5.325 -1.5743 -0.8904  1.2599
34725SOL    HW222168   2.139   4.671   5.310 -1.5967  1.7158 -2.4842
34726SOL     OW22169   5.848  13.812  13.625  0.4809  0.3545  0.9401
34726SOL    HW122170   5.886  13.748  13.564 -1.4262 -0.5358  0.6285
34726SOL    HW222171   5.819  13.884  13.569 -0.1516  0.0888  0.9151
34727SOL     OW22172   0.321  10.209   6.123 -0.8355  0.8377 -0.1696
34727SOL    HW122173   0.396  10.150   6.132 -1.2240  0.1529 -1.2900
34727SOL    HW222174   0.361  10.295   6.109 -0.2149  0.2930 -2.0150
34728SOL     OW22175   9.609  11.735  13.849 -0.5438 -0.5150 -0.4889
34728SOL    HW122176   9.609  11.807  13.785 -0.9377  1.8873  2.0537
34728SOL    HW222177   9.660  11.768  13.923  1.6027 -3.9434 -0.2057
34729SOL     OW22178   0.200   4.662   0.734 -0.1590 -0.1920 -0.1226
34729SOL    HW122179   0.164   4.676   0.646  0.2649  1.6434 -0.0387
34729SOL    HW222180   0.135   4.608   0.778 -0.4860 -0.9689 -1.4787
34730SOL     OW22181  11.581   8.346   2.787  0.4786 -0.7960 -0.5638
34730SOL    HW122182  11.635   8.320   2.862 -0.2204 -1.3814 -0.2567
34730SOL    HW222183  11.502   8.293   2.794  0.4377 -0.9258 -1.7738
34731SOL     OW22184  11.576  13.802  13.892 -0.4245 -0.2833 -0.1625
34731SOL    HW122185  11.627  13.878  13.924 -1.1115  0.0237  0.2177
34731SOL    HW222186  11.640  13.731  13.888 -0.3495 -0.4087  2.1604
34732SOL     OW22187   8.420   9.366   2.497  0.1364  0.0931 -0.3911
34732SOL    HW122188   8.490   9.302   2.482  0.3151  0.3973 -0.8895
34732SOL    HW222189   8.464   9.441   2.537 -0.2304 -0.4498  1.0932
34733SOL     OW22190  12.488   6.355  10.731 -0.1118 -0.6057 -0.0761
34733SOL    HW122191  12.500   6.325  10.641  0.6806 -0.5722  0.0142
34733SOL    HW222192  12.393   6.350  10.745 -0.1519 -1.5300 -0.5876
34734SOL     OW22193   5.973   3.869   4.142  0.2542  0.2593  1.0370
34734SOL    HW122194   5.896   3.917   4.173 -0.8539 -0.4283 -0.4863
34734SOL    HW222195   5.982   3.894   4.050  0.7284 -1.0578  0.6938
34735SOL     OW22196   5.030  13.408  12.115  0.1301  0.3123  0.4938
34735SOL    HW122197   5.117  13.383  12.148  0.8667  1.3447 -0.5766
34735SOL    HW222198   4.995  13.327  12.079  0.0165 -0.4480  2.1900
34736SOL     OW22199   0.246   8.205   5.535  0.4040 -0.6668 -0.1031
34736SOL    HW122200   0.295   8.127   5.510  0.0943 -0.7454 -0.4650
34736SOL    HW222201   0.154   8.180   5.527  0.3003 -0.4574  0.3825
34737SOL     OW22202   3.851   9.496  10.103 -0.5925  0.0013 -0.2394
34737SOL    HW122203   3.874   9.576  10.054  2.6624  0.1258  1.2253
34737SOL    HW222204   3.801   9.528  10.178 -0.4943  0.5043 -0.3787
34738SOL     OW22205   3.954  11.691  13.656  0.0011 -0.0238 -0.1552
34738SOL    HW122206   3.960  11.671  13.563 -1.6756 -0.2474 -0.2572
34738SOL    HW222207   3.907  11.775  13.659  0.0873  0.0042  0.4846
34739SOL     OW22208  10.800   7.445   3.959 -0.4536  0.0808 -0.4654
34739SOL    HW122209  10.766   7.382   4.022 -0.8584  0.1272 -0.6357
34739SOL    HW222210  10.863   7.497   4.009  0.3959 -0.8866 -0.4894
34740SOL     OW22211   8.990   2.287   6.670  0.3700  0.4544 -0.2470
34740SOL    HW122212   9.083   2.301   6.688  0.0800  0.9615  0.9115
34740SOL    HW222213   8.973   2.198   6.701  0.4344  0.4107 -0.3355
34741SOL     OW22214   2.353   7.263   9.689 -0.3892 -0.4182 -0.5756
34741SOL    HW122215   2.275   7.314   9.710  0.8594  1.0092  0.8354
34741SOL    HW222216   2.406   7.321   9.635  0.2927 -0.8718 -0.4106
34742SOL     OW22217   6.805   9.016  13.655 -0.0615 -0.1375 -0.6377
34742SOL    HW122218   6.748   9.020  13.732 -0.5452 -0.4189 -0.9817
34742SOL    HW222219   6.805   9.106  13.621 -0.9370 -0.2955 -1.0896
34743SOL     OW22220   8.882   3.593   4.677 -0.4798 -0.7503  0.1382
34743SOL    HW122221   8.873   3.500   4.698 -0.9728 -0.5629  0.8328
34743SOL    HW222222   8.792   3.622   4.662 -0.3631 -0.3211  0.2573
34744SOL     OW22223   8.311  12.566   2.617 -0.0570  0.5146  0.2463
34744SOL    HW122224   8.262  12.494   2.656 -0.8988  1.3230  0.7079
34744SOL    HW222225   8.327  12.538   2.527 -0.0727 -0.3953  0.5184
34745SOL     OW22226   1.856   2.089   7.601 -0.4839 -0.4059 -0.2427
34745SOL    HW122227   1.802   2.127   7.532 -0.7319 -0.0266  0.1559
34745SOL    HW222228   1.829   1.997   7.605  0.3615 -0.7363 -1.4439
34746SOL     OW22229  10.777   4.391   3.722 -0.2892  0.4738 -0.2559
34746SOL    HW122230  10.765   4.483   3.701  2.7927  0.9325 -0.5872
34746SOL    HW222231  10.814   4.352   3.643  0.6560 -0.4615  0.6013
34747SOL     OW22232   9.384  13.542  10.215 -0.6316  0.0043 -0.4211
34747SOL    HW122233   9.383  13.446  10.218  0.5216  0.0033  0.6839
34747SOL    HW222234   9.295  13.567  10.241 -1.1511 -0.7489 -1.3597
34748SOL     OW22235  10.071  12.316   8.514 -0.2500 -0.2371 -0.0087
34748SOL    HW122236  10.019  12.396   8.503 -2.4837 -1.2128  2.2987
34748SOL    HW222237  10.148  12.344   8.563 -0.1471  0.7406 -0.6980
34749SOL     OW22238   3.853   8.052   6.265 -0.0935  0.3654  0.1690
34749SOL    HW122239   3.931   8.069   6.318  1.2245  0.6949 -1.7553
34749SOL    HW222240   3.885   8.053   6.174 -1.8702 -2.0647 -0.6006
34750SOL     OW22241   9.246   8.009   7.523 -0.2497 -0.7812  0.0470
34750SOL    HW122242   9.228   7.937   7.584  1.2813 -0.1691  1.2682
34750SOL    HW222243   9.257   8.086   7.579 -0.1354  0.0610 -1.1089
34751SOL     OW22244  12.605  12.039   6.449  0.2403  0.1445 -0.5298
34751SOL    HW122245  12.700  12.042   6.457  0.1448  1.1007  0.4125
34751SOL    HW222246  12.573  12.087   6.525 -1.0002 -0.1550 -0.8442
34752SOL     OW22247   1.573   9.096  13.670 -0.0967 -0.3757 -0.5113
34752SOL    HW122248   1.545   9.033  13.736 -0.7418 -0.7373 -1.1138
34752SOL    HW222249   1.641   9.148  13.713  0.4267 -1.4624  0.0111
34753SOL     OW22250   8.075   4.668  12.301 -0.0216 -0.4224  0.0850
34753SOL    HW122251   8.064   4.693  12.393  2.3943  0.6611  0.1251
34753SOL    HW222252   8.017   4.727  12.253  1.7556  1.8579  0.6125
34754SOL     OW22253   7.860   5.417   7.553 -0.0062  0.1386  0.6676
34754SOL    HW122254   7.955   5.421   7.539  0.0420 -2.5987 -0.3564
34754SOL    HW222255   7.823   5.477   7.489  0.9503 -1.2149 -1.2475
34755SOL     OW22256   3.956   4.050   5.759 -0.0532  0.4665  0.3749
34755SOL    HW122257   4.023   4.116   5.739 -3.0059  3.3420 -0.9873
34755SOL    HW222258   3.944   4.057   5.854  1.0016  0.4452  0.5299
34756SOL     OW22259  10.395  12.230   1.219 -0.2567  0.4417  0.5736
34756SOL    HW122260  10.428  12.261   1.135 -0.5313 -1.8012 -0.4260
34756SOL    HW222261  10.302  12.252   1.218 -0.4468 -0.3326 -0.1161
34757SOL     OW22262   4.541   2.189   0.542 -0.1812  0.1704  0.4979
34757SOL    HW122263   4.464   2.222   0.588  0.6074  0.7359  1.4180
34757SOL    HW222264   4.566   2.259   0.482 -0.6038 -0.1750 -0.1059
34758SOL     OW22265   2.762   5.170   4.289  0.0223 -0.1460 -0.3547
34758SOL    HW122266   2.729   5.089   4.328 -0.8225  0.5596  0.4440
34758SOL    HW222267   2.826   5.141   4.223 -0.9284 -1.4870 -0.7232
34759SOL     OW22268  12.356   3.104  12.663 -0.6591  0.4150 -0.1857
34759SOL    HW122269  12.300   3.070  12.733  0.0240  2.2026  1.3054
34759SOL    HW222270  12.396   3.183  12.700  0.5817  0.8208 -2.2292
34760SOL     OW22271   7.046   2.513   0.628 -0.0064 -0.2072  0.0292
34760SOL    HW122272   7.109   2.442   0.636  0.8944  0.7378  1.9361
34760SOL    HW222273   7.100   2.592   0.619 -0.8966  0.5776  1.2850
34761SOL     OW22274  11.863  12.338   8.579  0.1698  0.0979  0.1216
34761SOL    HW122275  11.857  12.275   8.507 -1.3287  0.0024  0.2934
34761SOL    HW222276  11.907  12.414   8.541 -0.2017 -0.1243 -0.7737
34762SOL     OW22277  11.097  13.959   9.766  0.1103  0.7059  1.0244
34762SOL    HW122278  11.171  13.957   9.827  0.1004 -0.5927  1.0272
34762SOL    HW222279  11.119  14.028   9.704  1.4571  0.1744  0.8745
34763SOL     OW22280   8.358  13.172   7.187  0.2375 -0.0275  0.0448
34763SOL    HW122281   8.406  13.133   7.260 -0.3875 -0.8861  0.0121
34763SOL    HW222282   8.419  13.172   7.114  0.8630  0.8216  0.5479
34764SOL     OW22283   2.580  10.302   0.240  0.3686 -0.5488  0.1162
34764SOL    HW122284   2.516  10.373   0.244  0.6756 -0.2658  0.0312
34764SOL    HW222285   2.558  10.255   0.159 -1.1369 -1.8077  1.1919
34765SOL     OW22286   1.194  11.477  11.647  0.4879  0.1789 -0.1642
34765SOL    HW122287   1.256  11.442  11.582 -0.2268 -0.0528 -0.7369
34765SOL    HW222288   1.167  11.401  11.697  1.7291  0.4888  1.0365
34766SOL     OW22289   5.688  10.338   6.496 -0.4134  0.3431 -0.4259
34766SOL    HW122290   5.619  10.313   6.558  0.6522  0.1420  0.7050
34766SOL    HW222291   5.695  10.433   6.504 -1.3584  0.5225 -1.4303
34767SOL     OW22292  10.402   2.069  10.601  0.2735  0.0049  0.1490
34767SOL    HW122293  10.474   2.070  10.537  0.4262 -0.3750  0.3110
34767SOL    HW222294  10.329   2.111  10.555  0.7965  1.0282  0.2171
34768SOL     OW22295   7.544   6.938  12.945  0.1514  0.1436  0.1064
34768SOL    HW122296   7.634   6.910  12.931  0.4948  1.8959 -1.4935
34768SOL    HW222297   7.551   7.008  13.010 -0.0858  0.1639  0.1106
34769SOL     OW22298   9.404   3.685  12.323  0.6259 -0.3857  0.4119
34769SOL    HW122299   9.446   3.626  12.261 -0.6780 -1.0273  0.1046
34769SOL    HW222300   9.344   3.630  12.373 -0.6035  0.6529  0.1444
34770SOL     OW22301   2.964   2.740   3.075  0.2744  0.1692  0.0227
34770SOL    HW122302   2.917   2.808   3.123  0.2856 -0.5653  1.1107
34770SOL    HW222303   3.035   2.714   3.133  0.5050 -0.4913 -0.5434
34771SOL     OW22304   3.188   6.244   7.001 -0.1790 -0.1436  0.5846
34771SOL    HW122305   3.176   6.331   6.963  1.1092 -1.0189 -2.1235
34771SOL    HW222306   3.102   6.220   7.034 -0.6430  1.9815  1.1032
34772SOL     OW22307   6.092   9.081  11.179 -0.3380 -0.0335 -0.7590
34772SOL    HW122308   6.184   9.080  11.150 -0.4676  1.0949 -1.2598
34772SOL    HW222309   6.053   9.004  11.138  0.0515  0.2487 -1.6894
34773SOL     OW22310   2.148   2.481   6.028  0.0823 -0.0991 -0.2217
34773SOL    HW122311   2.150   2.429   6.109 -0.4080  0.5152  0.1930
34773SOL    HW222312   2.208   2.554   6.046 -0.0490  0.0513 -0.4026
34774SOL     OW22313   3.545   2.419   8.678  0.1815 -0.2783 -0.5808
34774SOL    HW122314   3.540   2.344   8.737 -1.6094  0.4070  0.2103
34774SOL    HW222315   3.559   2.381   8.592 -0.6163 -1.5232 -0.1836
34775SOL     OW22316  12.916  13.522   7.664  0.4470 -0.0977  0.4073
34775SOL    HW122317  12.824  13.548   7.661  1.2947  3.2017 -0.5311
34775SOL    HW222318  12.922  13.451   7.600 -1.1917  0.6669 -0.6686
34776SOL     OW22319   1.100  10.895   6.049  0.2120  0.0040  0.6525
34776SOL    HW122320   1.164  10.963   6.072 -1.4748  1.9097  0.0473
34776SOL    HW222321   1.122  10.821   6.104  1.4639  1.4434  2.1935
34777SOL     OW22322  10.864   1.410   9.921 -0.2164 -0.0104 -0.0247
34777SOL    HW122323  10.939   1.469   9.920 -0.7156  0.6448 -0.7730
34777SOL    HW222324  10.793   1.463   9.959 -0.6740 -0.1188 -0.7089
34778SOL     OW22325   8.586   2.978   8.836 -0.0397 -0.2377  0.3390
34778SOL    HW122326   8.500   2.983   8.792  1.5341  1.1583 -2.9351
34778SOL    HW222327   8.636   3.051   8.799  3.0969 -1.9511  0.8411
34779SOL     OW22328   9.714  11.287  10.121  0.0332 -0.0616  0.2527
34779SOL    HW122329   9.752  11.368  10.086 -0.7084  0.7336  1.2151
34779SOL    HW222330   9.769  11.266  10.197 -0.9632  0.6729  1.1971
34780SOL     OW22331   9.094  10.595   4.188 -0.0577  0.6115 -0.0593
34780SOL    HW122332   9.164  10.660   4.187  1.4822 -0.9570 -1.6541
34780SOL    HW222333   9.105  10.547   4.106 -4.9163  2.1400 -1.9337
34781SOL     OW22334   2.530  12.691   5.587 -0.2587  0.1605  0.0547
34781SOL    HW122335   2.449  12.659   5.625 -0.8079  2.5199  1.0145
34781SOL    HW222336   2.526  12.663   5.495 -1.5282 -0.8469  0.3850
34782SOL     OW22337   0.543  13.618   1.666 -0.2392 -0.3346 -0.3358
34782SOL    HW122338   0.476  13.653   1.608 -1.5768 -0.9191  0.7840
34782SOL    HW222339   0.524  13.524   1.671  0.3942 -0.4421  0.3410
34783SOL     OW22340  11.660  11.861   6.297  0.5826  0.0351  0.0735
34783SOL    HW122341  11.748  11.824   6.292  0.2226 -0.8203 -0.1584
34783SOL    HW222342  11.603  11.790   6.269 -0.1474  0.7366 -0.2621
34784SOL     OW22343  11.820   9.622  12.047  0.8013 -0.4601  0.4937
34784SOL    HW122344  11.817   9.712  12.015 -0.1422 -0.8397 -0.5490
34784SOL    HW222345  11.729   9.600  12.066  0.9003 -1.4678 -0.0969
34785SOL     OW22346  11.059   5.363   2.773 -0.0513  0.1644 -0.5535
34785SOL    HW122347  11.025   5.378   2.685 -1.6454  0.8003  0.1293
34785SOL    HW222348  11.094   5.448   2.800 -0.8595  0.3494 -0.0575
34786SOL     OW22349   1.255  13.699   4.825 -0.0976  0.2941  0.6269
34786SOL    HW122350   1.289  13.670   4.910  1.0255 -0.0878  0.0596
34786SOL    HW222351   1.199  13.627   4.795  0.4410 -0.0748  0.5073
34787SOL     OW22352   5.590   1.187   4.382 -0.0962  1.0313  0.6377
34787SOL    HW122353   5.560   1.100   4.409 -0.4215  0.8377 -0.2877
34787SOL    HW222354   5.662   1.170   4.321 -0.2554  1.3982  0.3387
34788SOL     OW22355   5.562  11.601   6.230 -0.3143 -0.1430  0.0666
34788SOL    HW122356   5.546  11.542   6.304  0.3350 -0.7483 -0.2681
34788SOL    HW222357   5.542  11.550   6.152  2.3476 -0.7015 -0.3370
34789SOL     OW22358   7.679   4.227   5.022 -0.1345  0.1559 -0.2704
34789SOL    HW122359   7.731   4.221   5.102  0.8017 -0.6232 -0.9149
34789SOL    HW222360   7.743   4.221   4.952 -1.1457 -1.4436 -1.1096
34790SOL     OW22361  11.606   3.066   1.902  0.4528  0.2239 -0.4494
34790SOL    HW122362  11.617   2.971   1.913  3.2882  0.3389 -1.5896
34790SOL    HW222363  11.572   3.096   1.986  2.5195 -1.4142  1.0749
34791SOL     OW22364   6.354   1.805   1.400  0.4160  0.4825 -0.3324
34791SOL    HW122365   6.262   1.825   1.383  0.4638  1.2829  0.2923
34791SOL    HW222366   6.380   1.746   1.329 -0.3612  0.8864 -0.9601
34792SOL     OW22367   7.828   1.467  12.023  0.2333  0.0435 -0.2037
34792SOL    HW122368   7.868   1.548  11.992  1.9795 -0.5959  0.2407
34792SOL    HW222369   7.743   1.494  12.057  0.8766  1.7390  0.1639
34793SOL     OW22370   3.898   9.588   8.351 -0.4494  0.3555 -0.5410
34793SOL    HW122371   3.803   9.590   8.353 -0.4889 -0.6507 -0.7825
34793SOL    HW222372   3.923   9.578   8.443 -0.6550 -1.1553 -0.6288
34794SOL     OW22373  12.324   4.369   4.369 -0.4423 -0.1844 -0.3703
34794SOL    HW122374  12.315   4.442   4.432 -0.1856 -0.9827  0.6164
34794SOL    HW222375  12.240   4.323   4.375 -1.0323  0.6473 -1.8178
34795SOL     OW22376  10.912  12.504  13.585 -0.6395  0.9582  0.0520
34795SOL    HW122377  10.888  12.467  13.670 -2.8110  0.3966 -0.7301
34795SOL    HW222378  10.829  12.530  13.546  0.3330  1.5851 -1.7397
34796SOL     OW22379  13.471  10.192   8.509  0.2075  0.2607  0.0068
34796SOL    HW122380  13.448  10.107   8.471  0.3152 -0.5363  1.6382
34796SOL    HW222381  13.400  10.210   8.570  1.0088  0.5580  0.8610
34797SOL     OW22382   2.003   7.021   5.720  0.3051  0.8326 -0.1291
34797SOL    HW122383   2.088   7.002   5.680 -0.0700  0.1607 -0.6325
34797SOL    HW222384   1.973   6.936   5.753  1.3934  1.6091  3.2430
34798SOL     OW22385   1.155  10.055   6.692 -0.6709  1.1670 -0.1744
34798SOL    HW122386   1.244  10.062   6.728 -0.2339  0.9404 -1.1873
34798SOL    HW222387   1.102  10.112   6.748  0.1455  1.4439  0.3337
34799SOL     OW22388   0.207   3.832   7.466 -0.5518  0.3346  0.1047
34799SOL    HW122389   0.157   3.787   7.534  0.3076 -0.3933  0.2869
34799SOL    HW222390   0.194   3.778   7.388 -1.3243  1.0226 -0.2448
34800SOL     OW22391   7.539   5.027   3.528  0.6294 -0.0613 -0.2007
34800SOL    HW122392   7.629   4.993   3.529  1.3063  1.5793  1.7787
34800SOL    HW222393   7.529   5.066   3.441  0.4941 -3.2823 -1.8221
34801SOL     OW22394   2.994   5.884   7.324 -0.0094 -0.0133  0.3607
34801SOL    HW122395   3.080   5.886   7.283  0.4497  0.3847  1.3217
34801SOL    HW222396   2.965   5.793   7.315  0.7920 -0.2963  0.6086
34802SOL     OW22397   7.385  11.852  11.456  0.5198  0.4330  0.2205
34802SOL    HW122398   7.328  11.819  11.525 -2.2718  1.0583 -1.5873
34802SOL    HW222399   7.372  11.947  11.458  1.8785  0.6378  0.0485
34803SOL     OW22400  10.941   4.444   6.839 -0.3092  0.3087  0.0852
34803SOL    HW122401  10.983   4.520   6.879 -0.6714 -0.1790  1.4404
34803SOL    HW222402  11.013   4.383   6.824 -0.0763  0.7517 -0.6323
34804SOL     OW22403   9.547  12.765   6.359  0.2452 -0.4847  0.1373
34804SOL    HW122404   9.609  12.772   6.287 -0.0965  0.7897 -0.0514
34804SOL    HW222405   9.570  12.838   6.417 -2.1051  1.0702 -0.7694
34805SOL     OW22406   2.286  11.910  10.420  0.4745 -0.1182 -0.3716
34805SOL    HW122407   2.319  11.840  10.476 -0.0841 -2.2108 -2.4903
34805SOL    HW222408   2.191  11.898  10.419  0.3108  1.0596 -0.2970
34806SOL     OW22409   6.396  13.167   9.268  0.5072 -0.0617 -0.8407
34806SOL    HW122410   6.356  13.182   9.182 -2.7212 -2.9647 -0.0944
34806SOL    HW222411   6.345  13.222   9.328  1.3345  0.3649 -0.5207
34807SOL     OW22412  12.992  11.262  10.967 -0.0098  0.2898 -0.1009
34807SOL    HW122413  12.973  11.214  11.047  0.4176 -0.3299 -0.3597
34807SOL    HW222414  12.906  11.275  10.926  0.0183 -2.4127 -1.2172
34808SOL     OW22415   6.990   5.439   7.821 -0.0134 -0.2135 -0.0490
34808SOL    HW122416   6.917   5.457   7.762 -1.3301 -0.8151  1.3446
34808SOL    HW222417   6.991   5.514   7.881  1.5191  0.5552 -0.9771
34809SOL     OW22418  13.213   4.759   7.122 -0.1216 -0.4838  0.1627
34809SOL    HW122419  13.122   4.754   7.091 -0.0667  2.0330 -0.6590
34809SOL    HW222420  13.207   4.809   7.204  0.4685 -0.7736  0.3858
34810SOL     OW22421   9.408   2.857  11.396 -0.5596  0.0195 -0.4548
34810SOL    HW122422   9.383   2.768  11.421 -1.7144  0.2298 -0.7736
34810SOL    HW222423   9.457   2.890  11.471 -2.7631  0.1644  1.0362
34811SOL     OW22424  13.293   6.593   5.175 -0.3918  0.1072 -0.3999
34811SOL    HW122425  13.337   6.600   5.261  0.4296 -2.2661 -0.5581
34811SOL    HW222426  13.358   6.551   5.119 -1.5643  0.0187 -1.7237
34812SOL     OW22427   2.487  11.165   8.535  0.6854  0.0456  0.0837
34812SOL    HW122428   2.553  11.234   8.534 -0.8646  1.6300  1.7592
34812SOL    HW222429   2.454  11.161   8.446 -0.5266  2.8764  0.3137
34813SOL     OW22430   0.281   4.781   9.252 -0.6101 -0.1844  0.1757
34813SOL    HW122431   0.229   4.772   9.332  1.5060 -1.3035  1.5014
34813SOL    HW222432   0.292   4.875   9.240 -1.1608 -0.0027  1.0503
34814SOL     OW22433  12.088   3.758  12.761  0.2839  0.2030  0.3251
34814SOL    HW122434  12.121   3.742  12.850  0.6246  1.5306  0.4563
34814SOL    HW222435  12.019   3.692  12.749  0.1552  0.0763  1.6128
34815SOL     OW22436   7.326   8.582   7.590  0.0284  0.3656  0.4240
34815SOL    HW122437   7.377   8.662   7.608  0.6557  0.3035 -0.9607
34815SOL    HW222438   7.315   8.582   7.495 -2.8041  0.4878  0.6769
34816SOL     OW22439   6.824   3.031   9.013  0.0643  0.2085  0.6127
34816SOL    HW122440   6.797   3.075   8.932  0.1145 -0.6693  0.0943
34816SOL    HW222441   6.832   2.939   8.987  2.3369  0.2323  1.0396
34817SOL     OW22442   7.732   9.693   4.356 -0.5852 -0.0997 -0.7600
34817SOL    HW122443   7.759   9.782   4.332  0.6314 -0.6779 -1.6817
34817SOL    HW222444   7.708   9.699   4.448 -3.4489  1.8113 -1.4889
34818SOL     OW22445  12.733   9.226   9.051 -0.2478  0.1577 -0.7319
34818SOL    HW122446  12.669   9.290   9.021 -0.2450  1.0107  0.9894
34818SOL    HW222447  12.790   9.274   9.110  0.8555 -1.0304 -0.7735
34819SOL     OW22448  10.103  11.944   5.833 -0.0146  0.0412  0.4151
34819SOL    HW122449  10.098  11.856   5.872 -1.9981 -0.0332  0.0910
34819SOL    HW222450  10.158  11.993   5.894 -0.5157 -0.9043  1.6944
34820SOL     OW22451   9.309   5.589  12.369 -0.4476  0.4649  0.5973
34820SOL    HW122452   9.306   5.508  12.420 -0.6162  0.2879  0.3111
34820SOL    HW222453   9.221   5.627  12.379 -1.1162 -0.5268 -1.0800
34821SOL     OW22454  10.996  10.595  11.157 -0.4227  0.7726  0.2513
34821SOL    HW122455  11.057  10.523  11.170  1.0327  1.8241 -0.4517
34821SOL    HW222456  11.012  10.654  11.230 -1.6716  0.3708  0.8760
34822SOL     OW22457   6.198   1.255  11.211  0.2206  0.5279  0.5909
34822SOL    HW122458   6.290   1.244  11.186  0.6468  1.9813  1.3919
34822SOL    HW222459   6.200   1.263  11.306 -0.3468  3.4777  0.4429
34823SOL     OW22460  12.841   2.723   3.080 -0.2063  0.3662 -0.1038
34823SOL    HW122461  12.800   2.658   3.024 -0.3809  1.1872 -0.9408
34823SOL    HW222462  12.776   2.739   3.149 -0.0192 -0.5861  0.3198
34824SOL     OW22463   2.259  12.176   9.053  0.0677  0.1948 -0.0249
34824SOL    HW122464   2.299  12.178   9.139  1.4562  0.7473 -0.6443
34824SOL    HW222465   2.294  12.097   9.012  0.8742  0.8846 -0.7101
34825SOL     OW22466   4.690   1.025   1.599  0.5878 -0.0050 -0.1554
34825SOL    HW122467   4.694   1.023   1.503  1.9598  1.9703 -0.2031
34825SOL    HW222468   4.626   1.092   1.619  0.0743 -0.6293  0.3444
34826SOL     OW22469  14.037   3.992  13.444  0.1642 -0.5221 -0.3686
34826SOL    HW122470  14.040   3.934  13.368  1.3503 -1.3164  0.2366
34826SOL    HW222471  14.124   3.984  13.483 -0.5629 -0.5466  1.3603
34827SOL     OW22472   0.324   3.897   2.989  0.3544 -0.2781  0.2749
34827SOL    HW122473   0.300   3.808   3.016  1.5152 -0.3699  1.1213
34827SOL    HW222474   0.258   3.922   2.926 -1.1897 -0.9715  1.5477
34828SOL     OW22475  13.135   9.268  13.257 -0.1676 -0.8258 -0.7247
34828SOL    HW122476  13.209   9.215  13.229  1.2747  0.4902  0.4338
34828SOL    HW222477  13.123   9.246  13.350 -0.2139  0.0964 -0.4993
34829SOL     OW22478   5.468   7.836   4.596  0.0244 -0.0591 -0.5858
34829SOL    HW122479   5.420   7.841   4.679 -3.3479 -0.5994 -2.3219
34829SOL    HW222480   5.479   7.928   4.570 -2.5341  0.1123 -1.3349
34830SOL     OW22481   3.894   4.933   9.599  0.1233  0.1089  0.8786
34830SOL    HW122482   3.894   4.936   9.504  0.9143  1.5912  0.9035
34830SOL    HW222483   3.968   4.877   9.622 -0.6251 -1.0193  0.6399
34831SOL     OW22484   7.265   8.192   7.106 -0.0605 -0.2899  0.0716
34831SOL    HW122485   7.346   8.168   7.061  0.5034  1.0858  0.2932
34831SOL    HW222486   7.257   8.287   7.093 -2.2128 -0.5423 -0.8668
34832SOL     OW22487   8.177   3.002   6.700 -0.2440  0.2035 -1.0528
34832SOL    HW122488   8.107   3.013   6.763 -0.7283  0.8701 -1.6833
34832SOL    HW222489   8.252   3.047   6.739 -0.8665  1.6626 -1.4433
34833SOL     OW22490   2.931  11.496   7.742  0.0661  0.2230 -0.2222
34833SOL    HW122491   3.003  11.463   7.795 -0.7728 -0.3137  0.6079
34833SOL    HW222492   2.889  11.418   7.706 -2.1045  0.2248  1.9878
34834SOL     OW22493  12.408   2.201  10.353  0.3266 -0.1548 -0.3128
34834SOL    HW122494  12.487   2.208  10.300 -0.3192  2.8175 -1.0642
34834SOL    HW222495  12.435   2.231  10.440  0.0801  0.7449 -0.5387
34835SOL     OW22496   9.315   9.931   7.791  0.2548  0.0280 -0.4705
34835SOL    HW122497   9.251   9.875   7.834 -0.4466  0.8632 -0.4005
34835SOL    HW222498   9.400   9.893   7.814 -0.2077 -1.5795 -1.2425
34836SOL     OW22499   0.316   9.151   1.684 -0.0718  0.2494  0.1133
34836SOL    HW122500   0.397   9.168   1.733 -0.6192  1.1898  0.7151
34836SOL    HW222501   0.246   9.162   1.748 -0.6750 -1.0856 -0.2669
34837SOL     OW22502   0.723   9.506   3.546 -0.1835 -0.3091  0.0108
34837SOL    HW122503   0.751   9.438   3.607 -0.7771  0.6318  1.4051
34837SOL    HW222504   0.733   9.467   3.459  2.2359 -1.1375  0.5882
34838SOL     OW22505  10.720   7.991   3.682 -0.2018  0.1747  0.2925
34838SOL    HW122506  10.673   8.073   3.700  0.2494  0.7666 -1.0712
34838SOL    HW222507  10.740   7.995   3.589 -1.7522 -2.3362 -0.2412
34839SOL     OW22508  12.089  13.151  12.489 -0.0935 -0.6341  0.1294
34839SOL    HW122509  12.093  13.097  12.409 -0.8710 -1.4424  0.6177
34839SOL    HW222510  12.079  13.240  12.457 -0.8813 -0.9943 -0.6791
34840SOL     OW22511   7.497  11.411   6.219  0.2174 -0.8818 -0.1135
34840SOL    HW122512   7.490  11.405   6.124 -0.9656 -0.8088 -0.0435
34840SOL    HW222513   7.458  11.495   6.241 -0.9707 -1.5849  0.5601
34841SOL     OW22514   2.671  11.840   3.260 -0.3074 -0.0762 -0.0950
34841SOL    HW122515   2.681  11.931   3.290  2.4233 -0.3074 -0.0011
34841SOL    HW222516   2.628  11.848   3.175 -3.3025  0.9800  1.3743
34842SOL     OW22517   8.542   6.632   5.788  0.8092 -0.0176  0.0278
34842SOL    HW122518   8.582   6.679   5.715 -0.7755  0.2604 -0.6921
34842SOL    HW222519   8.502   6.701   5.842  0.2656 -0.3686  0.0807
34843SOL     OW22520   0.908   2.429   9.307 -0.1741  0.4898 -0.0728
34843SOL    HW122521   0.962   2.362   9.266 -0.4559  0.8769 -1.1032
34843SOL    HW222522   0.950   2.512   9.284  0.2392  0.6894  1.2838
34844SOL     OW22523   0.182   4.700   2.470  0.1090 -0.4494  0.0758
34844SOL    HW122524   0.117   4.688   2.401 -1.9555 -0.4698  1.9231
34844SOL    HW222525   0.266   4.690   2.426 -1.0710  0.7436 -2.6472
34845SOL     OW22526  11.184   1.174   7.698  0.2726 -0.2150 -0.4241
34845SOL    HW122527  11.242   1.099   7.685  1.6538  0.7168  0.2149
34845SOL    HW222528  11.096   1.137   7.688  0.8036 -2.3499  1.7777
34846SOL     OW22529   8.212   4.165  12.599  0.2154 -0.1973  0.4411
34846SOL    HW122530   8.119   4.177  12.621  0.5255  1.5214  0.8995
34846SOL    HW222531   8.226   4.071  12.610 -1.1347 -0.2929  1.7860
34847SOL     OW22532   2.191   0.906   8.550 -0.0740  0.0137 -0.8977
34847SOL    HW122533   2.118   0.904   8.488 -0.2076  1.9913 -0.8531
34847SOL    HW222534   2.182   0.825   8.600  0.1386 -1.7627 -3.5131
34848SOL     OW22535   8.983   3.671  11.520 -0.0449 -0.6129  0.3443
34848SOL    HW122536   9.005   3.597  11.576  0.9090 -0.3458  0.3497
34848SOL    HW222537   9.068   3.702  11.488 -0.4659  0.1953 -0.0146
34849SOL     OW22538   8.377   5.270   5.708  0.4475 -0.0806 -0.3313
34849SOL    HW122539   8.319   5.239   5.639  1.3378 -1.4786 -0.4718
34849SOL    HW222540   8.465   5.254   5.675  0.9341 -2.4152  1.7672
34850SOL     OW22541   9.887   4.228  13.837 -0.0365  0.1474 -0.2088
34850SOL    HW122542   9.941   4.273  13.902 -1.5564  0.4937  0.8764
34850SOL    HW222543   9.898   4.279  13.757 -0.1807  1.3005  0.4834
34851SOL     OW22544  10.110  12.715  14.066  0.0990 -0.1525  0.2973
34851SOL    HW122545  10.190  12.689  14.021 -0.9596 -0.8546 -1.2696
34851SOL    HW222546  10.127  12.804  14.096  1.7839 -0.6157  0.8597
34852SOL     OW22547   0.572   9.735  11.944  0.0533  0.2318 -0.0090
34852SOL    HW122548   0.490   9.743  11.992  1.3826 -0.1161  2.4851
34852SOL    HW222549   0.640   9.752  12.009  2.0335 -1.3115 -1.5429
34853SOL     OW22550   7.381  11.077   1.138 -0.1123 -0.2597  0.0212
34853SOL    HW122551   7.452  11.014   1.140  0.5169  0.2894 -2.4358
34853SOL    HW222552   7.326  11.050   1.065 -0.1602  1.6380 -0.7094
34854SOL     OW22553   7.061  11.130  11.849 -0.4274 -0.3319  0.5767
34854SOL    HW122554   7.083  11.065  11.782 -2.1943 -1.0303  0.6071
34854SOL    HW222555   7.061  11.213  11.802 -2.7959 -0.9444 -0.6540
34855SOL     OW22556   3.168  13.726   3.900  0.2348 -0.0851  0.1675
34855SOL    HW122557   3.169  13.795   3.833  0.9274  1.0058  1.2597
34855SOL    HW222558   3.077  13.724   3.930  0.0302 -0.2381 -0.4431
34856SOL     OW22559   2.421   8.038  13.556  0.9214  0.2445 -0.3028
34856SOL    HW122560   2.347   8.006  13.607  0.3944  1.0906 -0.5096
34856SOL    HW222561   2.483   8.070  13.621  0.6653  0.4520 -0.1578
34857SOL     OW22562   2.002   2.804   4.842  0.5156 -0.6430 -0.2785
34857SOL    HW122563   1.978   2.895   4.857 -1.7800 -1.3584  0.7492
34857SOL    HW222564   2.097   2.802   4.854  0.7681  1.7544 -1.3093
34858SOL     OW22565   9.387   6.486   9.495 -0.0221  0.6235 -0.1222
34858SOL    HW122566   9.448   6.518   9.428 -0.6089 -0.8717 -1.4518
34858SOL    HW222567   9.302   6.519   9.467 -0.0127  1.7559  1.1013
34859SOL     OW22568  10.397   1.889   0.270  0.8362  0.2122  0.0246
34859SOL    HW122569  10.443   1.966   0.235  0.7411  0.4268  0.3573
34859SOL    HW222570  10.395   1.904   0.365  0.5093 -0.0322  0.0584
34860SOL     OW22571   0.367   1.384   2.588  0.0192  0.7298 -0.4428
34860SOL    HW122572   0.300   1.409   2.650 -1.2099 -1.8174 -0.6075
34860SOL    HW222573   0.448   1.420   2.623 -0.8510  0.5257  1.9162
34861SOL     OW22574  11.287  13.606  12.718  0.5573 -0.2435  0.0614
34861SOL    HW122575  11.380  13.628  12.709  0.2794  0.1607 -2.8187
34861SOL    HW222576  11.287  13.515  12.749  1.8838 -0.0078  0.8252
34862SOL     OW22577  10.438   1.097   1.748 -0.0793 -0.1796  0.2858
34862SOL    HW122578  10.360   1.046   1.723 -1.1815  1.0665  1.0203
34862SOL    HW222579  10.429   1.110   1.842 -0.1620  1.8246  0.0530
34863SOL     OW22580   9.385   9.899   8.388 -0.2944 -0.0493  0.2499
34863SOL    HW122581   9.399   9.978   8.439 -0.8096 -1.1020  2.1077
34863SOL    HW222582   9.469   9.852   8.393 -0.3622 -0.1798  0.1603
34864SOL     OW22583   7.332   2.121  12.075  0.4106 -0.3882  0.3088
34864SOL    HW122584   7.329   2.026  12.081  1.2888 -0.3821  1.1769
34864SOL    HW222585   7.415   2.140  12.030  0.5273 -0.0337  0.6595
34865SOL     OW22586   0.201   3.340   2.840 -0.2957 -0.0178  0.0023
34865SOL    HW122587   0.274   3.317   2.782 -0.3799 -0.7490  0.1789
34865SOL    HW222588   0.229   3.309   2.926 -1.1445 -1.0133 -0.0695
34866SOL     OW22589   0.247   3.978   0.760  0.3081 -0.1202  0.0928
34866SOL    HW122590   0.318   4.033   0.792 -1.5543  1.1295  2.3061
34866SOL    HW222591   0.194   4.035   0.705  0.6230 -0.8863 -1.0562
34867SOL     OW22592   0.580   8.370  11.531 -0.1780  0.5049  0.3752
34867SOL    HW122593   0.494   8.382  11.491  0.2927 -1.2935 -1.3677
34867SOL    HW222594   0.638   8.428  11.481 -0.2160  1.0237  0.9302
34868SOL     OW22595   7.403   8.598  10.788 -0.2174  0.0921 -0.1842
34868SOL    HW122596   7.464   8.577  10.859  0.3659 -0.5186 -0.8425
34868SOL    HW222597   7.417   8.529  10.723 -0.2661  0.9825 -1.1798
34869SOL     OW22598   4.227   3.616  13.857  0.1166  0.1500 -0.7978
34869SOL    HW122599   4.165   3.546  13.878 -1.0570  1.4313  0.1759
34869SOL    HW222600   4.290   3.615  13.929 -0.6785  0.9287 -0.0666
34870SOL     OW22601   8.181   7.935   1.692 -0.1971  0.1455 -0.0734
34870SOL    HW122602   8.174   7.952   1.598 -0.4064  1.1459  0.1144
34870SOL    HW222603   8.164   8.019   1.734 -0.9670 -0.4613  0.8977
34871SOL     OW22604   2.268   4.091   9.371  0.5105  0.1416  0.4465
34871SOL    HW122605   2.222   4.018   9.414 -1.8265  0.0351 -1.9595
34871SOL    HW222606   2.317   4.133   9.442 -0.8814 -1.6221  2.6218
34872SOL     OW22607   4.110  13.075  12.008 -0.4498  0.0155  0.4636
34872SOL    HW122608   4.088  13.153  11.958  1.8995 -0.0992 -0.9192
34872SOL    HW222609   4.078  13.002  11.955  0.2793 -0.0308  0.0606
34873SOL     OW22610   4.826  12.886   2.497  0.6487 -0.0711 -0.0181
34873SOL    HW122611   4.847  12.974   2.467  0.0233  0.2244  0.3934
34873SOL    HW222612   4.766  12.851   2.432 -0.1817  0.3213  0.5304
34874SOL     OW22613   2.181   4.547  13.158 -0.1468 -0.0740  0.2119
34874SOL    HW122614   2.258   4.599  13.178 -0.4426  0.9438 -1.1878
34874SOL    HW222615   2.183   4.476  13.222  2.3606 -0.5230 -0.2791
34875SOL     OW22616   2.564  11.633  11.708 -0.1866  0.0713  0.3063
34875SOL    HW122617   2.563  11.538  11.695  0.3577  0.0370  0.4546
34875SOL    HW222618   2.641  11.648  11.763  0.2642  0.6868 -0.4700
34876SOL     OW22619  13.065   6.796   1.957  0.4584 -0.0748  0.2181
34876SOL    HW122620  13.108   6.790   1.871 -0.2640 -0.8395 -0.0967
34876SOL    HW222621  12.986   6.847   1.940  0.8983  0.7911  0.6786
34877SOL     OW22622   0.011   5.347   5.826  0.2739 -0.2860  0.3943
34877SOL    HW122623  -0.035   5.301   5.756  0.7255 -0.0633 -0.0575
34877SOL    HW222624  -0.053   5.353   5.897 -0.7304  0.9101 -0.5726
34878SOL     OW22625   6.627   7.071   7.933  0.1804  0.4870  0.2480
34878SOL    HW122626   6.693   7.057   8.001  0.4268  2.1226  0.3854
34878SOL    HW222627   6.549   7.101   7.981 -0.1285  0.1788 -0.0572
34879SOL     OW22628   5.163   8.426  12.221  0.1972 -0.2604  0.0356
34879SOL    HW122629   5.086   8.373  12.242 -0.2484  0.1473 -0.5375
34879SOL    HW222630   5.163   8.494  12.288  0.3100 -0.5076  0.2918
34880SOL     OW22631  14.157   6.779   9.808  0.0417  0.0115 -0.0545
34880SOL    HW122632  14.137   6.721   9.735  0.6931 -0.6946  0.3081
34880SOL    HW222633  14.222   6.731   9.859 -0.8261  0.2408  1.3032
34881SOL     OW22634   8.062  11.770   0.802 -0.3987  0.0837 -0.2888
34881SOL    HW122635   7.989  11.792   0.744  0.1335  0.3463 -0.8815
34881SOL    HW222636   8.023  11.760   0.888 -0.7012  3.7998  0.1657
34882SOL     OW22637   5.070   7.506  10.886 -0.3208  0.0741  0.3301
34882SOL    HW122638   5.021   7.428  10.912 -0.1154 -0.2117 -0.1227
34882SOL    HW222639   5.101   7.544  10.968 -1.9223  0.6833  0.7003
34883SOL     OW22640   4.512  10.015   2.454  0.5716 -0.1148  0.0277
34883SOL    HW122641   4.452   9.946   2.425  1.1962 -0.9746  0.7345
34883SOL    HW222642   4.585  10.010   2.393 -0.6646  1.9252 -1.7792
34884SOL     OW22643  11.872   5.066  11.149  0.0592 -1.0468 -0.4051
34884SOL    HW122644  11.938   5.051  11.217  0.4956  1.0979 -0.2760
34884SOL    HW222645  11.801   5.113  11.194  1.5619  3.0028 -1.8096
34885SOL     OW22646  11.819  12.506   3.061 -0.4440  0.4665 -1.0516
34885SOL    HW122647  11.789  12.591   3.096 -0.2744  0.2985 -0.4820
34885SOL    HW222648  11.788  12.442   3.125  0.2387  0.1917 -0.9840
34886SOL     OW22649  11.227   8.947  13.978  0.9411 -0.1896 -0.0266
34886SOL    HW122650  11.217   9.005  14.053  0.9384  0.9085 -0.8609
34886SOL    HW222651  11.313   8.967  13.942  2.2952 -2.8446  1.4203
34887SOL     OW22652  11.009  13.729   5.116 -0.0136  0.1272 -0.1938
34887SOL    HW122653  11.066  13.751   5.189 -1.9679 -0.0222  1.4739
34887SOL    HW222654  10.962  13.651   5.145  0.9539 -1.5012 -2.6917
34888SOL     OW22655   0.940   7.350  11.618  0.4732  0.1554  0.1116
34888SOL    HW122656   0.894   7.430  11.594  1.9978  0.7001 -1.1928
34888SOL    HW222657   1.030   7.365  11.591  1.3739 -1.0007  2.2596
34889SOL     OW22658   2.696   3.983   2.223 -0.7923  0.2398  0.0619
34889SOL    HW122659   2.613   3.974   2.270 -1.0321  0.3075 -0.3422
34889SOL    HW222660   2.684   3.930   2.144 -0.4731  0.3014 -0.0285
34890SOL     OW22661   9.364  14.140  11.990 -0.5430  0.3450  0.0351
34890SOL    HW122662   9.291  14.197  11.966 -1.7464 -1.0514  0.2140
34890SOL    HW222663   9.351  14.123  12.084 -0.5496 -0.6698 -0.1409
34891SOL     OW22664   2.228  10.902   9.863  0.3066  0.2984  1.0198
34891SOL    HW122665   2.294  10.900   9.794 -0.1257 -2.0867  0.6054
34891SOL    HW222666   2.279  10.892   9.944  0.4953 -2.5604  0.6485
34892SOL     OW22667   7.953   8.028   8.581  0.3775  0.0392  0.1163
34892SOL    HW122668   7.867   8.065   8.561  0.9876  1.4140 -0.0822
34892SOL    HW222669   7.966   8.048   8.674  1.6337  2.4473 -0.4683
34893SOL     OW22670  10.300   4.643   4.127 -0.3118 -0.0379  0.0295
34893SOL    HW122671  10.249   4.563   4.142 -0.0782 -0.7512 -2.5222
34893SOL    HW222672  10.334   4.633   4.038 -0.1223  2.8244 -0.3010
34894SOL     OW22673   0.927   0.162   9.721 -0.0839 -0.2249  0.6632
34894SOL    HW122674   0.872   0.187   9.647  0.8088 -0.6689 -0.1694
34894SOL    HW222675   0.977   0.241   9.741 -0.1180 -0.1896  0.6089
34895SOL     OW22676   4.280   8.168   6.774 -0.2577  0.0063 -0.6563
34895SOL    HW122677   4.189   8.175   6.802  0.6144 -1.5401  3.1092
34895SOL    HW222678   4.293   8.074   6.759  0.8684  0.1240 -0.5197
34896SOL     OW22679   9.882  11.226   1.428 -0.0926 -0.2003 -0.4304
34896SOL    HW122680   9.788  11.242   1.417  0.0856  1.4140  0.1600
34896SOL    HW222681   9.887  11.149   1.485 -1.1207  1.0359  1.4369
34897SOL     OW22682  12.400   9.696  10.548 -1.0275  0.1972  0.6022
34897SOL    HW122683  12.472   9.723  10.604 -0.0006 -0.2241 -0.4688
34897SOL    HW222684  12.340   9.771  10.547 -1.6575 -0.1885  3.1132
34898SOL     OW22685   9.552   8.060   3.685 -0.5264  0.0524  0.0532
34898SOL    HW122686   9.488   8.043   3.754 -1.6283  0.6801 -0.7887
34898SOL    HW222687   9.519   8.137   3.640  1.2459  0.8653  0.0725
34899SOL     OW22688   8.076   2.024  10.804  0.0656 -0.1596 -0.6229
34899SOL    HW122689   8.017   1.973  10.749  0.5704 -0.1158 -1.2199
34899SOL    HW222690   8.018   2.079  10.858 -0.5735 -2.5168  1.2457
34900SOL     OW22691  10.004   4.404   7.308  0.8155 -0.3079  0.0215
34900SOL    HW122692  10.052   4.486   7.319  2.7118 -1.1733 -1.1863
34900SOL    HW222693  10.065   4.336   7.337 -0.4898 -1.3435  0.4369
34901SOL     OW22694   0.067   0.930   7.464 -0.1427 -0.0881  0.4610
34901SOL    HW122695   0.058   1.013   7.511 -1.0402 -0.7039  1.4567
34901SOL    HW222696   0.125   0.877   7.519 -0.2412 -0.4052  0.2649
34902SOL     OW22697  10.632   9.394   8.380 -0.2399 -0.8770 -0.0830
34902SOL    HW122698  10.539   9.378   8.361 -0.3121  0.2715 -0.7755
34902SOL    HW222699  10.666   9.308   8.405 -1.4515 -1.3501  0.0254
34903SOL     OW22700   6.104   2.990   5.968 -0.1441  0.1679 -0.4114
34903SOL    HW122701   6.193   3.023   5.969  0.4548 -1.1793 -2.6094
34903SOL    HW222702   6.049   3.069   5.969  1.0773  1.0388 -0.1451
34904SOL     OW22703  10.636   5.880   1.918  0.6318  0.4364  0.0147
34904SOL    HW122704  10.727   5.902   1.895  0.4146  0.2928 -1.0669
34904SOL    HW222705  10.592   5.965   1.925  0.8673  0.5113  0.6550
34905SOL     OW22706   3.058   9.146   0.478 -0.2174 -0.0766  0.7062
34905SOL    HW122707   2.987   9.088   0.448  0.8347 -1.8886  1.5546
34905SOL    HW222708   3.063   9.214   0.411 -1.3572 -1.0979 -0.4697
34906SOL     OW22709   8.566   6.859   2.260 -0.4201  0.0695 -0.3654
34906SOL    HW122710   8.598   6.862   2.170  1.2394 -2.4228  0.0405
34906SOL    HW222711   8.645   6.862   2.314 -1.1464 -1.5039  0.8760
34907SOL     OW22712  12.175   6.097   5.688  0.5962 -0.3126 -0.4377
34907SOL    HW122713  12.244   6.155   5.655 -2.1677  4.9336  1.9040
34907SOL    HW222714  12.098   6.119   5.636 -0.6206 -2.0536  0.5266
34908SOL     OW22715  11.422   0.474   0.147  0.6257  0.2942 -0.1425
34908SOL    HW122716  11.483   0.401   0.162 -2.6445 -2.9258 -1.1305
34908SOL    HW222717  11.444   0.506   0.059  1.2756 -0.3468 -0.2271
34909SOL     OW22718   4.959   9.109  13.415  0.2898  0.0715 -0.0991
34909SOL    HW122719   5.000   9.036  13.369  0.6142 -0.3599  0.8624
34909SOL    HW222720   5.032   9.159  13.450  0.0792  1.0139 -0.9568
34910SOL     OW22721  11.277   8.818  12.077 -0.0013  0.1383 -0.5563
34910SOL    HW122722  11.316   8.790  12.160  0.4978  1.2083 -0.4214
34910SOL    HW222723  11.210   8.751  12.059  0.0229 -0.2263  0.5978
34911SOL     OW22724   9.532   5.769  12.037  0.1320  0.2244 -0.1223
34911SOL    HW122725   9.438   5.756  12.028  0.3177 -1.1290 -0.2011
34911SOL    HW222726   9.568   5.681  12.049  1.5367  0.5835 -1.4398
34912SOL     OW22727   4.438   4.826  10.552  0.3361  0.0868  0.3981
34912SOL    HW122728   4.347   4.844  10.576 -0.3234 -2.7447  0.4579
34912SOL    HW222729   4.433   4.795  10.462  1.2696  0.1698  0.3132
34913SOL     OW22730   1.987   2.587   3.428 -0.0164  0.6569 -0.4302
34913SOL    HW122731   1.959   2.626   3.345  0.9980  0.8203 -0.6968
34913SOL    HW222732   2.052   2.647   3.463 -0.4265  0.5854  0.4902
34914SOL     OW22733   1.640   5.281   2.031  0.2278  0.2170 -0.0127
34914SOL    HW122734   1.578   5.210   2.017 -0.5452  0.8708  0.0296
34914SOL    HW222735   1.586   5.354   2.060  1.1358  0.5221  0.9599
34915SOL     OW22736   8.583  14.004   6.814 -0.2012 -0.4332  0.0174
34915SOL    HW122737   8.620  13.928   6.768 -2.0407 -2.9487  2.3460
34915SOL    HW222738   8.496  14.014   6.776 -0.0393  0.4514 -0.1377
34916SOL     OW22739   1.563   7.589  13.252  0.1004  0.0905  0.3688
34916SOL    HW122740   1.478   7.590  13.207 -1.2641 -1.7791  2.6648
34916SOL    HW222741   1.620   7.643  13.197 -2.1822  0.2897 -1.9957
34917SOL     OW22742   3.444   7.896   0.960 -0.1648  0.0883  0.2767
34917SOL    HW122743   3.361   7.882   0.915  0.4310  0.5048 -0.9905
34917SOL    HW222744   3.503   7.930   0.893  1.3980 -1.3245  0.8626
34918SOL     OW22745   9.668   2.065  10.708 -0.4887 -0.0022  0.2757
34918SOL    HW122746   9.623   2.106  10.782 -0.6140  0.4807 -0.0603
34918SOL    HW222747   9.669   1.972  10.729 -1.1314  0.0491  0.5637
34919SOL     OW22748  11.079  11.684   4.664  0.5222  0.7016 -0.1663
34919SOL    HW122749  11.058  11.745   4.734  0.1835  0.0954  0.2745
34919SOL    HW222750  11.171  11.660   4.680  0.4754  0.6401  0.0238
34920SOL     OW22751   3.651  10.821   5.583  0.1099 -0.3504  0.1581
34920SOL    HW122752   3.638  10.902   5.633  2.3478 -1.3260  2.5728
34920SOL    HW222753   3.742  10.826   5.553 -0.3115 -1.1497 -1.3920
34921SOL     OW22754   2.579   0.923   9.112 -0.0051  0.5245  0.5696
34921SOL    HW122755   2.586   0.831   9.084  0.1956  0.7716 -0.2213
34921SOL    HW222756   2.633   0.928   9.191  1.0415  0.2395 -0.0996
34922SOL     OW22757   4.898   0.004   0.915 -0.0348  0.0366  0.0666
34922SOL    HW122758   4.948  -0.062   0.867  0.0559  0.1363  0.0237
34922SOL    HW222759   4.808  -0.031   0.916  0.0769 -0.2487  0.3386
34923SOL     OW22760   8.961   5.785   1.341 -0.1616  0.2985  0.2636
34923SOL    HW122761   9.026   5.821   1.402 -1.0977  1.7841  0.4456
34923SOL    HW222762   8.987   5.694   1.330  0.9655  0.4047  1.6426
34924SOL     OW22763   4.793   9.246   3.261 -0.2808 -0.0295 -0.0228
34924SOL    HW122764   4.791   9.150   3.264  2.2015 -0.1411 -0.3644
34924SOL    HW222765   4.822   9.272   3.348  0.0510  0.3665 -0.2528
34925SOL     OW22766   1.620   2.439   3.469  0.2778  0.0836 -0.5569
34925SOL    HW122767   1.584   2.376   3.407  0.1623 -1.3427  0.8903
34925SOL    HW222768   1.711   2.412   3.480  0.1277 -0.0699  0.3613
34926SOL     OW22769  10.078   0.857  13.890  0.3911 -0.0941  0.3079
34926SOL    HW122770  10.039   0.908  13.961 -1.3693  0.1545 -0.7721
34926SOL    HW222771  10.009   0.794  13.866  0.8273  0.0377 -1.3742
34927SOL     OW22772   0.086  10.684   3.033  0.0250 -0.0170  0.2148
34927SOL    HW122773   0.100  10.776   3.012  0.5702 -0.2555 -0.5547
34927SOL    HW222774   0.014  10.683   3.096  1.3689  1.0739  1.8415
34928SOL     OW22775   3.474   7.560  11.514  0.1142 -0.1668  0.0047
34928SOL    HW122776   3.566   7.583  11.527  0.2560 -0.9062  0.4079
34928SOL    HW222777   3.477   7.470  11.482 -0.4695 -0.1654 -0.0598
34929SOL     OW22778  11.363  10.717   2.818 -0.1599 -0.1319 -0.3218
34929SOL    HW122779  11.324  10.630   2.812  0.8555 -0.5567 -0.9496
34929SOL    HW222780  11.449  10.702   2.858 -0.2804  0.6819  0.2725
34930SOL     OW22781   6.758  12.289   7.727  0.0731  0.0380 -0.7113
34930SOL    HW122782   6.705  12.321   7.801 -2.6405  2.2496 -3.3802
34930SOL    HW222783   6.746  12.194   7.729 -0.2901  0.0741  1.3772
34931SOL     OW22784   6.409  10.389   3.661  0.1489  0.1275 -0.4497
34931SOL    HW122785   6.461  10.444   3.602 -0.5416 -1.2372 -2.4449
34931SOL    HW222786   6.326  10.377   3.615 -0.4812 -0.8828  0.8985
34932SOL     OW22787  12.712   2.153  10.419  0.1487  0.9544  0.1883
34932SOL    HW122788  12.786   2.194  10.464 -0.0291  0.6506  0.7729
34932SOL    HW222789  12.640   2.159  10.482 -0.6424  2.2505 -0.7823
34933SOL     OW22790   5.547   7.320   6.459 -0.0329 -0.3965 -0.1198
34933SOL    HW122791   5.602   7.248   6.431 -0.5773 -0.1107 -2.0172
34933SOL    HW222792   5.504   7.351   6.380  0.6475  2.4306  0.4920
34934SOL     OW22793   7.544   1.144   5.663  0.1848 -0.2054 -0.0281
34934SOL    HW122794   7.520   1.197   5.739 -2.4065 -0.0087 -0.9065
34934SOL    HW222795   7.621   1.187   5.627  0.6028  0.5209  1.6511
34935SOL     OW22796   6.538   8.696   9.488  0.1515  0.3240  0.1511
34935SOL    HW122797   6.560   8.681   9.580 -3.0621  0.8128  1.1404
34935SOL    HW222798   6.590   8.772   9.463  2.6656 -1.0555  0.8197
34936SOL     OW22799   9.548   3.777   1.092 -0.4652 -0.3833 -0.1356
34936SOL    HW122800   9.460   3.815   1.097 -0.4185 -0.4058  1.3365
34936SOL    HW222801   9.606   3.853   1.096 -0.3632 -0.1842 -3.0903
34937SOL     OW22802   8.028   9.050   9.348 -0.3925 -0.3703 -0.0853
34937SOL    HW122803   8.123   9.043   9.334 -0.4213 -0.9489 -0.0519
34937SOL    HW222804   8.007   9.140   9.327  0.4346  0.2253  1.4689
34938SOL     OW22805  11.297   9.574   7.055  0.2582 -0.0879 -0.2429
34938SOL    HW122806  11.376   9.604   7.100 -0.2121  1.1077 -0.1702
34938SOL    HW222807  11.280   9.487   7.091  0.1001  0.6755  1.6644
34939SOL     OW22808   5.485   8.003   5.239  0.5237  0.3037  0.2788
34939SOL    HW122809   5.471   8.028   5.331 -3.1356 -0.7890  0.1609
34939SOL    HW222810   5.513   8.084   5.197 -1.2990  1.8127  1.7420
34940SOL     OW22811  11.917  11.010   1.961  0.3190 -0.3025  0.5505
34940SOL    HW122812  11.882  11.082   1.908  0.9169 -0.6263 -0.3104
34940SOL    HW222813  11.894  11.033   2.051 -0.9214  0.1465  0.1363
34941SOL     OW22814  11.429   1.202   3.898  0.0116 -0.2593  0.0471
34941SOL    HW122815  11.362   1.267   3.876 -0.6029 -0.8094  0.2877
34941SOL    HW222816  11.427   1.197   3.994  0.1094 -0.5852  0.0321
34942SOL     OW22817  12.710  12.699   5.406 -0.9460  0.0066 -0.5000
34942SOL    HW122818  12.655  12.658   5.473  1.0551 -0.2955  1.0574
34942SOL    HW222819  12.784  12.736   5.455 -0.2641  1.3081 -2.3861
34943SOL     OW22820   3.313   9.515   5.018 -0.1685 -0.1067 -0.1713
34943SOL    HW122821   3.236   9.460   5.037  0.1784 -0.6400 -0.2903
34943SOL    HW222822   3.336   9.554   5.102 -0.0144 -0.6704  0.0489
34944SOL     OW22823   4.656   5.867   5.831 -0.1198 -0.3279  0.3263
34944SOL    HW122824   4.654   5.772   5.820 -0.4293 -0.3960  0.9164
34944SOL    HW222825   4.680   5.901   5.745  2.3642 -1.0430  0.6601
34945SOL     OW22826   9.582   4.333   3.214  0.1960  0.1339  0.0415
34945SOL    HW122827   9.554   4.244   3.235 -0.0664  0.4439  1.0854
34945SOL    HW222828   9.677   4.327   3.205  0.2842 -0.1058  0.9797
34946SOL     OW22829   0.015   5.125   8.983  0.4591 -1.1837 -0.4822
34946SOL    HW122830   0.106   5.135   9.010  0.3437 -0.7145 -0.2605
34946SOL    HW222831   0.018   5.129   8.887  0.6106 -0.6634 -0.4567
34947SOL     OW22832  11.489   7.850   2.348 -0.3170 -0.2236 -0.2917
34947SOL    HW122833  11.396   7.838   2.367 -0.1260  0.4438  1.2809
34947SOL    HW222834  11.534   7.805   2.420  0.5978 -0.8349 -1.2170
34948SOL     OW22835   9.625   5.890   8.354  0.7666  0.4659  0.1815
34948SOL    HW122836   9.618   5.797   8.333 -2.8775  0.6175  0.0447
34948SOL    HW222837   9.655   5.931   8.273 -0.7390 -0.3296 -0.8255
34949SOL     OW22838   8.719  12.550  12.423 -0.3295 -0.4169  0.1189
34949SOL    HW122839   8.811  12.568  12.439  0.1127 -2.2745 -0.0428
34949SOL    HW222840   8.716  12.520  12.332 -1.2468  0.4893 -0.1626
34950SOL     OW22841  11.759   5.320   2.943 -0.1438 -0.3831 -0.2219
34950SOL    HW122842  11.738   5.347   3.033  1.6746  0.2375  0.0428
34950SOL    HW222843  11.680   5.341   2.893  0.2319  3.2115  0.4232
34951SOL     OW22844   4.873   1.941   5.194 -0.6389  0.1742 -0.0136
34951SOL    HW122845   4.964   1.936   5.162 -0.5896 -0.2127  0.1790
34951SOL    HW222846   4.872   1.883   5.270 -1.3735 -0.8809 -0.7926
34952SOL     OW22847   6.440   3.946  13.318  0.0027  0.0893 -0.0522
34952SOL    HW122848   6.467   3.934  13.409 -0.5346  1.0462  0.2435
34952SOL    HW222849   6.347   3.924  13.317  0.3445 -1.4404 -0.7039
34953SOL     OW22850   1.633   9.071   0.348  0.7335 -0.1418  0.6048
34953SOL    HW122851   1.596   9.144   0.299  1.1279 -0.0348  0.4654
34953SOL    HW222852   1.558   9.015   0.367  0.0803  1.2521  2.3919
34954SOL     OW22853  11.098   3.962   1.471 -0.7953 -0.2635  0.4914
34954SOL    HW122854  11.118   4.012   1.550  0.3944 -0.2103  0.1722
34954SOL    HW222855  11.047   3.887   1.503 -2.6393  1.1166  0.9702
34955SOL     OW22856  12.349  11.873  12.907 -0.1750  0.2255 -0.2930
34955SOL    HW122857  12.314  11.784  12.913 -1.5007  0.3592 -3.7161
34955SOL    HW222858  12.426  11.864  12.850  0.8380  1.0406  0.9007
34956SOL     OW22859   1.120   9.727  12.504  0.1222  0.2828  0.7987
34956SOL    HW122860   1.100   9.817  12.479  1.1562 -0.2073 -2.1907
34956SOL    HW222861   1.038   9.679  12.490  0.1856  0.3653  0.1336
34957SOL     OW22862   5.134  10.976  14.038 -0.4433  0.0847 -0.1979
34957SOL    HW122863   5.163  11.067  14.033 -2.0278  0.6054 -0.3420
34957SOL    HW222864   5.146  10.952  14.130  0.5596  0.2221 -0.2819
34958SOL     OW22865   9.328   7.271  12.651  0.2841  0.1594 -0.2706
34958SOL    HW122866   9.290   7.252  12.566 -0.7168  1.8362 -0.2510
34958SOL    HW222867   9.410   7.316  12.632  0.2817  0.1275 -0.3542
34959SOL     OW22868   7.549   7.942   5.775 -0.5646  0.3691 -0.3723
34959SOL    HW122869   7.533   8.033   5.751  1.1964  0.6566 -0.5705
34959SOL    HW222870   7.480   7.893   5.731 -1.6443  1.6127 -0.1117
34960SOL     OW22871  11.070   4.806   8.093  0.0363 -0.3840  0.1368
34960SOL    HW122872  11.028   4.722   8.111 -0.0032 -0.1189  1.3963
34960SOL    HW222873  11.009   4.853   8.037  0.6029 -1.6541 -1.6070
34961SOL     OW22874   6.479  12.026   4.165 -0.2481 -0.1441 -0.4544
34961SOL    HW122875   6.518  12.074   4.092  0.3173 -0.1432 -0.1586
34961SOL    HW222876   6.544  12.033   4.235  0.1465 -1.8969 -0.6057
34962SOL     OW22877   4.292   8.316   2.527 -0.5588 -0.0369  0.0474
34962SOL    HW122878   4.255   8.314   2.439 -1.2776 -1.1761  0.3536
34962SOL    HW222879   4.294   8.224   2.554  2.9533 -0.1187 -0.1115
34963SOL     OW22880  12.769  13.215   0.555  0.1469  0.1703 -0.0031
34963SOL    HW122881  12.851  13.255   0.585  1.2540 -1.0521 -1.2199
34963SOL    HW222882  12.736  13.167   0.630  0.8095  0.2907  0.3707
34964SOL     OW22883   5.845  12.350   5.542  0.3694 -0.0253  0.4796
34964SOL    HW122884   5.855  12.444   5.529 -1.7872  0.2381  0.3055
34964SOL    HW222885   5.862  12.312   5.456  1.1553  0.2084  0.5279
34965SOL     OW22886   7.885   1.201   7.448 -0.2143  0.1895 -0.7737
34965SOL    HW122887   7.940   1.128   7.473  1.7942  1.5244 -1.0864
34965SOL    HW222888   7.877   1.194   7.353 -1.1568 -0.3653 -0.6633
34966SOL     OW22889   2.164   1.460  12.269 -0.7132  0.2934  0.4599
34966SOL    HW122890   2.248   1.430  12.232 -0.3303  1.3351  0.4531
34966SOL    HW222891   2.099   1.402  12.230  0.0780 -1.1075  1.1393
34967SOL     OW22892   0.812   0.876  10.875  0.5417  0.2777  0.9121
34967SOL    HW122893   0.899   0.854  10.841 -0.6630 -0.7404 -1.8188
34967SOL    HW222894   0.818   0.968  10.900  2.3922  0.2092  0.8622
34968SOL     OW22895  11.333   0.634   1.553  1.0331  0.2158  0.1229
34968SOL    HW122896  11.289   0.565   1.603  1.2286 -0.6162 -0.8441
34968SOL    HW222897  11.424   0.607   1.549  1.2096  0.7897  0.1660
34969SOL     OW22898  12.495   3.311   4.899  0.6480 -0.1752  0.3572
34969SOL    HW122899  12.440   3.381   4.935 -0.5285  0.6182 -2.6590
34969SOL    HW222900  12.434   3.241   4.877  1.6638 -1.7304  2.1442
34970SOL     OW22901  10.818   9.904   3.339  0.0114  0.2396 -0.2905
34970SOL    HW122902  10.889   9.846   3.314  0.3367  1.4423 -2.3967
34970SOL    HW222903  10.854   9.956   3.411  0.6357 -0.3370 -0.1810
34971SOL     OW22904  12.803   2.031   6.108 -0.4080 -0.0024  0.3287
34971SOL    HW122905  12.766   2.110   6.070 -2.3861 -0.5084  1.0719
34971SOL    HW222906  12.898   2.040   6.097 -0.6036  2.3651  0.2363
34972SOL     OW22907   8.490  10.227   2.779 -0.1180 -0.4579 -0.0906
34972SOL    HW122908   8.562  10.196   2.723  0.4261  0.1411  0.2644
34972SOL    HW222909   8.449  10.297   2.729  0.9069  0.6691  0.5830
34973SOL     OW22910   7.208  13.854   5.950  0.6055 -0.9174  0.4083
34973SOL    HW122911   7.284  13.845   6.006  0.3551  0.1015  0.9456
34973SOL    HW222912   7.243  13.855   5.861  1.2809  0.0728  0.6737
34974SOL     OW22913   2.256  10.853   3.029 -0.3374 -0.2525 -0.2639
34974SOL    HW122914   2.206  10.870   2.949 -0.2616  1.7314  0.0661
34974SOL    HW222915   2.259  10.937   3.074 -0.8701 -1.4419  2.1537
34975SOL     OW22916   7.683   1.646   5.420  0.0748 -0.3687 -0.4187
34975SOL    HW122917   7.620   1.593   5.371 -1.5095 -0.0202  1.1600
34975SOL    HW222918   7.697   1.723   5.366  1.7627 -1.9058 -2.3604
34976SOL     OW22919   4.924   5.441   6.133  0.4286  0.0789 -0.3171
34976SOL    HW122920   4.891   5.530   6.122 -0.2209 -0.0386  0.5425
34976SOL    HW222921   5.018   5.449   6.123  0.4369  0.9744  0.3124
34977SOL     OW22922  11.314   6.372   8.795  0.4520  0.4489  0.0339
34977SOL    HW122923  11.312   6.285   8.756 -1.5195  1.2140 -1.7635
34977SOL    HW222924  11.388   6.370   8.856  2.3202 -1.5254 -2.1497
34978SOL     OW22925   3.822   9.724  11.659 -0.3540 -0.1568  0.0799
34978SOL    HW122926   3.801   9.744  11.568  2.0246  2.5859 -0.0245
34978SOL    HW222927   3.900   9.669  11.653  0.2462  0.6429  0.4272
34979SOL     OW22928  10.428   8.321   5.788 -0.3910  0.6177  0.1248
34979SOL    HW122929  10.378   8.246   5.755  1.0976 -0.3960  0.1003
34979SOL    HW222930  10.424   8.385   5.716 -0.0542 -0.2105 -0.6497
34980SOL     OW22931   0.171  11.085   5.232  0.0580  0.3917  0.1819
34980SOL    HW122932   0.151  11.031   5.309 -1.9541  0.9378  0.1027
34980SOL    HW222933   0.085  11.107   5.196  0.8720  2.4684 -0.6126
34981SOL     OW22934   4.802  11.735  13.737 -0.2058  0.6192  0.3926
34981SOL    HW122935   4.728  11.753  13.795 -2.3470  0.6197 -2.1324
34981SOL    HW222936   4.833  11.821  13.711 -0.4745  0.6244  0.0885
34982SOL     OW22937   5.412   6.714  13.698 -0.2400  0.0392 -0.0882
34982SOL    HW122938   5.382   6.769  13.625 -0.4435  1.0344  0.7281
34982SOL    HW222939   5.437   6.631  13.656 -1.6873  0.0750 -1.1165
34983SOL     OW22940   6.284   8.907   3.394  0.6613  0.3364 -0.0605
34983SOL    HW122941   6.229   8.985   3.394 -0.3104 -0.3403 -0.4470
34983SOL    HW222942   6.257   8.857   3.317  2.6791  0.5689 -1.0014
34984SOL     OW22943   8.619  10.308   1.289 -0.0290 -0.3955  0.0622
34984SOL    HW122944   8.631  10.329   1.196 -1.0147  1.1952  0.2618
34984SOL    HW222945   8.703  10.272   1.317 -0.5055 -3.6399 -2.0989
34985SOL     OW22946   1.301  12.652  12.159  0.2431  0.3995 -0.0941
34985SOL    HW122947   1.366  12.709  12.119  0.0751 -0.3428 -1.4642
34985SOL    HW222948   1.332  12.639  12.249  0.7963  1.8273 -0.0497
34986SOL     OW22949   8.326   8.461  14.151  0.3754 -0.2365  0.3347
34986SOL    HW122950   8.369   8.457  14.066  2.3369 -2.0535  1.3155
34986SOL    HW222951   8.291   8.373  14.165  0.1985 -0.0091  1.4433
34987SOL     OW22952   6.741   6.778   4.368  0.0196  0.2096 -0.2486
34987SOL    HW122953   6.666   6.833   4.391  1.5713  2.1580  0.4181
34987SOL    HW222954   6.704   6.690   4.360 -1.9326  0.6406  2.4610
34988SOL     OW22955   3.884   5.540  13.512  0.0917  0.4553  0.2787
34988SOL    HW122956   3.915   5.532  13.422 -0.8016  0.1131 -0.0046
34988SOL    HW222957   3.874   5.634  13.526 -0.3289  0.4814 -0.1779
34989SOL     OW22958  11.266  13.699   8.438  0.0238 -0.2449 -0.4060
34989SOL    HW122959  11.293  13.789   8.421  2.8013 -0.9317 -0.0597
34989SOL    HW222960  11.200  13.681   8.370 -0.8599  2.0971 -0.2633
34990SOL     OW22961   0.155   1.513   4.564 -0.3218  0.1601  0.4639
34990SOL    HW122962   0.186   1.564   4.639 -0.4176  1.2447 -0.1939
34990SOL    HW222963   0.061   1.532   4.559 -0.4912 -0.6167  0.5959
34991SOL     OW22964   9.461  13.562   3.808 -0.8497 -0.9236 -0.5024
34991SOL    HW122965   9.472  13.652   3.777 -1.1246 -0.5120  0.5369
34991SOL    HW222966   9.367  13.553   3.823 -0.5416 -0.2844  2.4347
34992SOL     OW22967   9.313  11.890   8.982  0.2308  0.2258 -0.2335
34992SOL    HW122968   9.342  11.925   8.897  1.0391 -0.5921 -0.3103
34992SOL    HW222969   9.392  11.854   9.021 -0.5736 -1.6945 -0.2604
34993SOL     OW22970  13.072   9.405   0.294 -0.1985 -0.2355 -0.5443
34993SOL    HW122971  13.087   9.322   0.340 -1.4697 -0.7425 -1.0016
34993SOL    HW222972  13.155   9.452   0.302  1.4078 -2.5113 -2.2437
34994SOL     OW22973   3.375  12.602   2.881 -0.1123  0.2408 -0.2903
34994SOL    HW122974   3.346  12.554   2.959  0.1029  2.3403  1.1629
34994SOL    HW222975   3.330  12.558   2.808 -1.4000 -0.9498  1.1404
34995SOL     OW22976  10.723   7.180   1.497 -0.3941 -0.3166 -0.0590
34995SOL    HW122977  10.713   7.224   1.581  0.1916 -1.0098  0.3932
34995SOL    HW222978  10.807   7.134   1.504 -1.3443 -2.1761 -0.1855
34996SOL     OW22979  10.974   1.227  10.823  0.3840 -0.2638  0.9051
34996SOL    HW122980  10.911   1.232  10.894  0.3566 -0.9145  0.9308
34996SOL    HW222981  11.056   1.198  10.864  0.6128  0.2555  0.8198
34997SOL     OW22982  10.511  11.098   4.282  0.1211 -0.0181  0.3618
34997SOL    HW122983  10.423  11.068   4.261  0.6035 -2.2083  1.2291
34997SOL    HW222984  10.568  11.024   4.262  1.5402  0.6604  1.6180
34998SOL     OW22985   6.979   0.269  11.674  0.6305  0.1072 -0.2102
34998SOL    HW122986   6.933   0.225  11.603  1.9354 -1.1155 -0.3394
34998SOL    HW222987   6.984   0.361  11.647  0.2898 -0.1741 -1.2497
34999SOL     OW22988   3.156  13.508   1.210 -0.1482 -0.1363  0.4200
34999SOL    HW122989   3.138  13.441   1.144  0.2548  0.1022  0.0568
34999SOL    HW222990   3.246  13.535   1.192 -1.0396  2.2091 -1.0170
35000SOL     OW22991   3.589   0.307  11.411  0.2134 -0.4615  0.2434
35000SOL    HW122992   3.533   0.359  11.469  0.0942 -1.1420  0.7576
35000SOL    HW222993   3.567   0.336  11.323 -1.2773 -1.0214  0.4002
35001SOL     OW22994   8.063   4.611   1.795  0.0983  0.4349 -0.3182
35001SOL    HW122995   8.111   4.585   1.874  0.2315 -0.2907 -0.6367
35001SOL    HW222996   7.979   4.643   1.828  0.7043  1.5281  0.2271
35002SOL     OW22997   5.333   4.344   7.662 -0.2398  0.2454  0.3398
35002SOL    HW122998   5.422   4.336   7.627  0.6346  0.8987  2.2621
35002SOL    HW222999   5.321   4.437   7.677 -1.8080  0.3221 -1.1504
35003SOL     OW23000   2.691   3.410  13.783 -0.5411 -0.6795 -0.3769
35003SOL    HW123001   2.604   3.377  13.805 -1.3171  0.5845 -1.4154
35003SOL    HW223002   2.728   3.345  13.724 -1.3535 -0.5581 -1.0303
35004SOL     OW23003  11.520  13.224  11.834  0.4802 -0.0392 -0.1996
35004SOL    HW123004  11.530  13.129  11.844  1.4088  0.0728 -0.0597
35004SOL    HW223005  11.567  13.262  11.907 -1.1076  0.5210  0.5911
35005SOL     OW23006   4.011  13.618   3.577  0.5253  0.2125  0.1221
35005SOL    HW123007   4.042  13.707   3.565  0.6443  0.4041  1.6384
35005SOL    HW223008   4.076  13.564   3.533 -0.1344  0.8962 -1.7737
35006SOL     OW23009   7.153  10.742   4.451 -0.3654  0.0070 -0.4055
35006SOL    HW123010   7.122  10.751   4.541 -1.3345  2.1509 -0.8824
35006SOL    HW223011   7.248  10.752   4.458 -0.4849  0.7726  0.3518
35007SOL     OW23012  11.695   8.506   5.239  0.6747  0.6609  0.2734
35007SOL    HW123013  11.714   8.595   5.210  1.1143  0.9855  1.4843
35007SOL    HW223014  11.607   8.489   5.205  0.5254  1.6157  0.1371
35008SOL     OW23015  11.804   4.089  10.486  1.0373 -0.0037 -0.3626
35008SOL    HW123016  11.781   4.179  10.507  0.9654  0.0569 -0.6961
35008SOL    HW223017  11.848   4.056  10.565 -0.7482 -0.3228  0.5612
35009SOL     OW23018   8.235   6.054   3.534 -0.0579  0.1541 -0.0252
35009SOL    HW123019   8.143   6.040   3.511 -0.2847  0.4905  0.6437
35009SOL    HW223020   8.247   6.007   3.616  0.2535  0.4605  0.1086
35010SOL     OW23021   8.209  12.518  11.684  0.0687  0.3059  0.1687
35010SOL    HW123022   8.249  12.485  11.603  0.9521  0.4381  0.5345
35010SOL    HW223023   8.192  12.440  11.736  0.8151  0.3065  0.4319
35011SOL     OW23024   7.807  13.285   0.742  0.6080  0.0111 -0.1907
35011SOL    HW123025   7.773  13.237   0.666 -0.2157  0.1697  0.0617
35011SOL    HW223026   7.881  13.233   0.773  0.1043 -0.7748 -0.2855
35012SOL     OW23027   1.374   2.800   4.575  0.8210  0.3508  0.1099
35012SOL    HW123028   1.427   2.857   4.520  1.9446 -0.1686  0.6175
35012SOL    HW223029   1.316   2.755   4.514  0.4638  1.4420 -0.3813
35013SOL     OW23030  11.796   0.209   1.615 -0.0828  0.2506 -0.1092
35013SOL    HW123031  11.816   0.127   1.659  1.2794  0.9298  0.5876
35013SOL    HW223032  11.703   0.224   1.632 -0.4923 -1.4005 -0.7131
35014SOL     OW23033   0.317   1.748   2.566 -0.6753  0.0500  0.1732
35014SOL    HW123034   0.308   1.724   2.659  1.2013 -1.6232  0.0070
35014SOL    HW223035   0.227   1.767   2.537 -1.2970  0.6859  2.3203
35015SOL     OW23036  11.625   8.732   9.188  0.5161 -0.0055  0.2994
35015SOL    HW123037  11.574   8.667   9.236  1.0956 -0.5842  0.1306
35015SOL    HW223038  11.689   8.764   9.252  0.7853 -0.2160  0.1355
35016SOL     OW23039  11.435  12.141  10.157  0.0501  0.1090 -0.5928
35016SOL    HW123040  11.444  12.224  10.203  1.3009 -0.9193  1.1323
35016SOL    HW223041  11.510  12.137  10.098 -0.0170  0.1935 -0.6848
35017SOL     OW23042   3.080   9.714  13.577 -0.2000 -0.2641  0.1775
35017SOL    HW123043   3.034   9.791  13.610  0.6982  0.0132  0.8455
35017SOL    HW223044   3.168   9.746  13.557  0.0174 -0.9952 -0.0546
35018SOL     OW23045  10.248   7.398  13.992 -0.2480  0.3151 -0.6732
35018SOL    HW123046  10.189   7.470  13.971 -0.5994  0.6790  1.3608
35018SOL    HW223047  10.302   7.432  14.064 -0.0587 -1.2493 -0.0393
35019SOL     OW23048   2.920   6.461  12.953 -0.4535 -0.4475 -0.1400
35019SOL    HW123049   2.842   6.498  12.993  0.0094 -1.0576  1.4094
35019SOL    HW223050   2.947   6.525  12.887 -0.8220  0.9967  1.0661
35020SOL     OW23051  12.483   0.706  12.117 -0.2710 -0.3298 -0.0029
35020SOL    HW123052  12.472   0.650  12.041 -0.1547 -0.0638 -0.2167
35020SOL    HW223053  12.571   0.685  12.150 -0.3385 -0.4738  0.0795
35021SOL     OW23054  12.966   5.600   7.627 -0.1674 -0.6829 -0.3336
35021SOL    HW123055  12.954   5.515   7.670 -0.8151 -0.1635  0.5674
35021SOL    HW223056  13.056   5.625   7.648 -0.0566 -1.0380 -0.3887
35022SOL     OW23057  12.047   8.223   5.492 -0.0691 -0.0516 -0.2972
35022SOL    HW123058  12.013   8.203   5.579  0.9075  2.0276  0.6371
35022SOL    HW223059  11.971   8.256   5.444 -0.8989 -2.4134 -0.7233
35023SOL     OW23060   5.130   7.577   8.344 -0.1426  0.0920  0.8419
35023SOL    HW123061   5.040   7.609   8.350  0.0882  0.6974  1.2257
35023SOL    HW223062   5.137   7.510   8.411 -0.4688 -0.3727  0.4191
35024SOL     OW23063   0.930   7.524   9.688  0.0462  0.3548  0.3352
35024SOL    HW123064   1.023   7.507   9.673 -0.5473 -2.0953 -1.0624
35024SOL    HW223065   0.918   7.506   9.782  0.8862  0.1945  0.4226
35025SOL     OW23066   2.200   4.334   0.324  0.6487 -0.0843  0.1678
35025SOL    HW123067   2.159   4.413   0.359  2.2564  0.6504  0.4657
35025SOL    HW223068   2.142   4.263   0.353 -1.3407  1.0063 -0.8840
35026SOL     OW23069   3.852   0.286   5.242 -0.0926 -0.4652 -0.1988
35026SOL    HW123070   3.849   0.270   5.337  1.5432 -0.1640 -0.0615
35026SOL    HW223071   3.917   0.224   5.209 -0.1491 -0.1072 -1.0107
35027SOL     OW23072   5.721   3.287   3.492  0.8038 -0.1154  0.3350
35027SOL    HW123073   5.720   3.365   3.547  0.5546  0.7848 -0.9073
35027SOL    HW223074   5.653   3.231   3.529 -0.8951  1.4115 -0.3124
35028SOL     OW23075   1.840   9.256   2.019 -0.2383  0.3556 -1.1051
35028SOL    HW123076   1.863   9.345   1.992 -0.1967  0.4353 -0.8178
35028SOL    HW223077   1.923   9.220   2.052  0.2696 -0.5570 -3.2490
35029SOL     OW23078  13.779   4.727   3.599  0.3373 -0.3214  0.1609
35029SOL    HW123079  13.743   4.669   3.666 -1.1020  1.1879  0.7845
35029SOL    HW223080  13.705   4.784   3.576  1.3334  0.3894 -1.3636
35030SOL     OW23081   0.081   1.324   3.964 -0.2298  0.3990 -0.1719
35030SOL    HW123082   0.101   1.348   3.874  0.2093  1.5393  0.2143
35030SOL    HW223083  -0.014   1.308   3.964  0.1448 -2.3605 -1.4061
35031SOL     OW23084   7.128   9.280   1.686  0.2557  0.0119  0.7753
35031SOL    HW123085   7.170   9.195   1.674 -0.9790 -0.7409  1.5932
35031SOL    HW223086   7.151   9.329   1.607  0.5349 -1.2754  0.0289
35032SOL     OW23087   0.960  11.523  14.126 -0.5486 -0.3642 -0.4159
35032SOL    HW123088   1.024  11.497  14.060 -0.8072  1.7193 -1.5809
35032SOL    HW223089   0.930  11.609  14.098 -2.1840 -0.2803  1.3528
35033SOL     OW23090  13.893   9.686   5.228  1.2291 -0.3408  0.2586
35033SOL    HW123091  13.925   9.731   5.150  0.3178 -3.1435 -1.9027
35033SOL    HW223092  13.800   9.673   5.212  0.9083 -0.5854  2.0832
35034SOL     OW23093   5.045  10.387   7.874  0.1003  0.1922  0.0497
35034SOL    HW123094   5.061  10.460   7.814  1.8386  1.9720  2.4710
35034SOL    HW223095   5.018  10.428   7.956 -0.2903 -1.9986  1.1042
35035SOL     OW23096   8.368  12.050   7.982  0.0392  0.4441  0.7314
35035SOL    HW123097   8.459  12.032   8.006 -0.1052 -1.3864  0.0380
35035SOL    HW223098   8.341  12.119   8.042  2.7057  3.0673 -0.7590
35036SOL     OW23099   8.317   0.523   4.136 -0.4778 -0.0318 -0.1450
35036SOL    HW123100   8.382   0.592   4.122  0.6398 -1.0561 -0.1234
35036SOL    HW223101   8.234   0.562   4.108 -0.0223  1.6239  0.7025
35037SOL     OW23102  13.768  11.494   8.646  0.1924 -0.6616  0.4872
35037SOL    HW123103  13.779  11.456   8.733 -1.2244 -0.0981  0.9422
35037SOL    HW223104  13.729  11.424   8.594  0.2385 -0.7242  0.5372
35038SOL     OW23105   5.364   4.686   8.925 -0.4978 -0.3012  0.3498
35038SOL    HW123106   5.311   4.741   8.983 -2.4272 -0.5565 -1.0494
35038SOL    HW223107   5.354   4.726   8.839  0.1109 -1.4241 -0.2730
35039SOL     OW23108   2.877   0.755   5.108  0.3977 -0.5863 -0.1886
35039SOL    HW123109   2.857   0.849   5.106 -0.0176 -0.6746 -0.3267
35039SOL    HW223110   2.797   0.713   5.078 -0.0180 -1.0858  1.5480
35040SOL     OW23111  10.121   0.282  11.587 -0.0859 -0.3718 -0.1989
35040SOL    HW123112  10.041   0.330  11.565  0.3926  0.0498 -1.0690
35040SOL    HW223113  10.115   0.267  11.681 -0.3185  1.2818  0.0743
35041SOL     OW23114   3.521   9.966   7.102  0.5325 -0.1394  0.7147
35041SOL    HW123115   3.529   9.886   7.049 -0.0945  1.1124 -1.3898
35041SOL    HW223116   3.550   9.940   7.189  4.3445 -1.6968 -0.8004
35042SOL     OW23117  12.770   8.853  13.132 -0.2471 -0.6197  1.1450
35042SOL    HW123118  12.682   8.828  13.163 -1.1372  1.3210  0.3800
35042SOL    HW223119  12.813   8.887  13.211 -0.3686 -1.0746  1.4151
35043SOL     OW23120   2.877   0.797   9.923 -0.4040 -0.2007  0.4969
35043SOL    HW123121   2.866   0.886   9.890 -0.5354 -0.1520  0.6724
35043SOL    HW223122   2.801   0.782   9.978 -0.1856 -0.2809  0.7786
35044SOL     OW23123   0.152   2.529  11.487 -0.0152  0.1579 -0.0092
35044SOL    HW123124   0.228   2.556  11.435  0.5434  0.2307  0.8291
35044SOL    HW223125   0.094   2.485  11.424  1.6445 -1.7579 -0.3134
35045SOL     OW23126   6.154   1.728   3.762  0.7137  0.4903 -0.1609
35045SOL    HW123127   6.095   1.802   3.751  0.2818  0.3932  1.2745
35045SOL    HW223128   6.240   1.761   3.736  0.4658  1.4117  0.1626
35046SOL     OW23129  11.230   0.665  11.824 -0.0983  0.6111 -0.8088
35046SOL    HW123130  11.213   0.756  11.801  0.3650  0.5897 -1.2440
35046SOL    HW223131  11.175   0.614  11.764  0.0712  0.5889 -0.9440
35047SOL     OW23132   6.163   4.857   2.799  0.0819 -0.6521 -0.0676
35047SOL    HW123133   6.193   4.795   2.734 -0.9850  0.9253 -2.1960
35047SOL    HW223134   6.069   4.841   2.807 -0.0041 -0.0766  0.1784
35048SOL     OW23135   0.259   8.260  10.340 -0.3229 -0.0376  0.1517
35048SOL    HW123136   0.294   8.270  10.428 -1.0052  1.7341  0.2552
35048SOL    HW223137   0.166   8.241  10.353  0.0101 -2.2115 -0.1802
35049SOL     OW23138   3.609   8.979   8.397 -0.1446 -0.2998 -0.5453
35049SOL    HW123139   3.626   8.885   8.390 -1.6998 -0.6992  0.3622
35049SOL    HW223140   3.566   9.002   8.315 -2.6381 -1.1289  0.4392
35050SOL     OW23141  13.447   4.785  10.613  0.5268  0.0656  0.4943
35050SOL    HW123142  13.482   4.811  10.527  1.8674  0.3315  1.0927
35050SOL    HW223143  13.359   4.753  10.594  0.3340  1.2438 -0.8251
35051SOL     OW23144   4.092   3.197  12.575 -0.3829 -0.1077  0.6424
35051SOL    HW123145   4.182   3.199  12.542  0.1949  1.5308  2.1912
35051SOL    HW223146   4.101   3.176  12.668 -1.6635 -0.4732  0.6978
35052SOL     OW23147   3.679   3.925   5.854  0.2411  0.1916  0.6152
35052SOL    HW123148   3.701   3.841   5.896  3.1449  0.3540 -0.4309
35052SOL    HW223149   3.757   3.979   5.865 -0.3992  1.6523 -1.4805
35053SOL     OW23150  10.711   3.087  11.041  0.2356  0.2688 -0.9601
35053SOL    HW123151  10.724   3.106  10.948  0.7249  0.3563 -0.8769
35053SOL    HW223152  10.730   3.170  11.085  2.5541 -0.3944 -0.5734
35054SOL     OW23153   5.521   9.810   6.526  0.5034  0.1637 -0.0449
35054SOL    HW123154   5.603   9.773   6.557  0.7924 -0.5443 -1.5634
35054SOL    HW223155   5.507   9.769   6.440 -0.5113  1.6285 -0.6202
35055SOL     OW23156   5.981  11.064   6.714 -0.2017 -0.2785  0.6153
35055SOL    HW123157   6.043  11.000   6.749  0.9987  0.8673  0.6820
35055SOL    HW223158   5.895  11.025   6.729  0.4360 -1.3540  1.6877
35056SOL     OW23159   4.282  10.135   5.609  0.3519 -0.1651 -0.6703
35056SOL    HW123160   4.274  10.223   5.573  0.6388  0.6600  1.1663
35056SOL    HW223161   4.226  10.081   5.553 -1.7562  1.6275 -0.4345
35057SOL     OW23162  12.628   6.934   9.839  0.6975  0.7329 -0.1041
35057SOL    HW123163  12.659   7.024   9.827 -3.2728  2.1310 -1.3347
35057SOL    HW223164  12.612   6.926   9.933 -1.4726  2.4102 -0.2465
35058SOL     OW23165   8.013  10.102  11.678 -0.4326  0.0428 -0.2995
35058SOL    HW123166   8.017  10.191  11.714 -0.7081 -0.0555 -0.0150
35058SOL    HW223167   8.022  10.113  11.584  0.6153  0.2848 -0.1832
35059SOL     OW23168   6.657   9.164   9.846 -1.5657 -0.5063  0.3675
35059SOL    HW123169   6.720   9.135   9.912 -0.7457  0.0266 -0.1726
35059SOL    HW223170   6.606   9.085   9.826 -0.0315 -1.3450 -0.3382
35060SOL     OW23171  12.444  10.594   6.998  0.5715  0.1452 -0.2127
35060SOL    HW123172  12.462  10.534   7.071  0.6681  0.4757  0.0416
35060SOL    HW223173  12.430  10.679   7.041 -1.3015 -0.0239 -0.4191
35061SOL     OW23174  13.159   4.829   9.960 -0.2611 -0.2892  0.2025
35061SOL    HW123175  13.075   4.848   9.920  0.5378  1.9448 -0.5527
35061SOL    HW223176  13.170   4.895  10.028  0.3605 -1.3126  1.1381
35062SOL     OW23177   0.448  13.019   2.430  0.1875 -0.0320  0.8987
35062SOL    HW123178   0.406  13.105   2.425  2.9090  1.3301 -1.4228
35062SOL    HW223179   0.501  13.023   2.509 -2.7859 -1.3122  3.1618
35063SOL     OW23180   5.990   0.683  11.508 -0.4329 -0.4396 -0.0171
35063SOL    HW123181   6.010   0.749  11.574 -1.9028  0.7065 -0.6675
35063SOL    HW223182   6.060   0.692  11.443  0.1890 -0.5508  0.6228
35064SOL     OW23183   0.331  12.240   5.116  0.1013  0.1556 -0.4285
35064SOL    HW123184   0.357  12.195   5.196  0.3522  0.6636 -0.2235
35064SOL    HW223185   0.367  12.185   5.046  1.2617  0.5406 -0.1640
35065SOL     OW23186   2.653   0.348   3.768 -0.7632 -0.6684  0.5208
35065SOL    HW123187   2.584   0.283   3.763 -1.7224  0.3565  0.1497
35065SOL    HW223188   2.673   0.370   3.677 -0.7386 -0.1535  0.6459
35066SOL     OW23189  10.852  10.587   6.452 -0.2135  0.1768  0.3462
35066SOL    HW123190  10.780  10.530   6.425 -1.5889  2.0868 -0.2544
35066SOL    HW223191  10.930  10.547   6.414 -1.5117  0.2976 -2.7855
35067SOL     OW23192  11.873   4.487   2.979 -0.6096 -0.1025  1.0058
35067SOL    HW123193  11.858   4.436   3.059 -0.6489  1.0820  1.7831
35067SOL    HW223194  11.919   4.565   3.009  1.9381 -0.9050 -0.5367
35068SOL     OW23195  10.561   7.304  12.262  0.3511  0.4751 -0.0995
35068SOL    HW123196  10.567   7.232  12.198  1.8801 -0.8356  1.4296
35068SOL    HW223197  10.530   7.262  12.342  1.6903  1.4376  0.9520
35069SOL     OW23198   4.797   9.314   5.152 -0.1874 -0.2970 -0.1974
35069SOL    HW123199   4.758   9.386   5.103  0.7634  0.0692 -0.4344
35069SOL    HW223200   4.869   9.355   5.201 -0.2303 -0.9175  0.3999
35070SOL     OW23201   7.976   3.286   6.613  0.6966  0.0130 -0.0905
35070SOL    HW123202   7.952   3.195   6.626  0.7690 -0.0595 -0.4713
35070SOL    HW223203   7.907   3.335   6.657  0.6521 -0.2240  0.1054
35071SOL     OW23204   3.945   0.060   3.256 -0.3667  0.0222  0.4659
35071SOL    HW123205   3.881   0.056   3.186  1.1487 -0.0771 -0.9634
35071SOL    HW223206   3.925   0.140   3.303  1.0767  2.3824 -2.6183
35072SOL     OW23207  10.722  13.336   8.092 -0.5650 -0.6084 -0.0381
35072SOL    HW123208  10.668  13.326   8.171  2.2019  1.1076  2.2912
35072SOL    HW223209  10.779  13.411   8.111  2.3495 -1.9859 -2.3886
35073SOL     OW23210   0.140   2.546   1.358  0.4777  0.9085  0.3915
35073SOL    HW123211   0.090   2.465   1.355  0.0225  1.2133 -0.6018
35073SOL    HW223212   0.093   2.606   1.301  2.5642  0.8473 -1.5632
35074SOL     OW23213   1.593  13.546  11.760  0.7747  0.0991  0.6424
35074SOL    HW123214   1.573  13.639  11.763  0.1414 -0.0092  0.1731
35074SOL    HW223215   1.554  13.510  11.840  0.2914  0.1099  0.4145
35075SOL     OW23216   1.255   0.700  13.400  0.7115  0.2158 -0.6578
35075SOL    HW123217   1.314   0.718  13.473  0.8155 -0.4866 -0.5588
35075SOL    HW223218   1.258   0.605  13.389 -1.2489  0.0081  0.0716
35076SOL     OW23219   9.813   6.927  13.697 -0.1690 -0.2526 -0.2306
35076SOL    HW123220   9.796   6.993  13.764  2.5460  1.1767 -0.8363
35076SOL    HW223221   9.838   6.849  13.746  2.1882  0.8901  0.5352
35077SOL     OW23222   9.468  10.943   3.066  0.5163 -0.4945 -0.2721
35077SOL    HW123223   9.465  10.930   3.161  0.3288 -2.0196 -0.4623
35077SOL    HW223224   9.382  10.980   3.045  1.0438  1.1373  0.2950
35078SOL     OW23225   0.343   4.254   0.788  0.6284  0.4227 -0.6198
35078SOL    HW123226   0.414   4.313   0.814 -0.6160  1.1223  1.3987
35078SOL    HW223227   0.293   4.239   0.868 -1.5216 -0.0450 -1.9561
35079SOL     OW23228   1.907   0.950   1.049 -0.3042 -0.1914  0.1320
35079SOL    HW123229   1.999   0.971   1.037 -0.4434 -0.4382 -1.5090
35079SOL    HW223230   1.904   0.903   1.132  1.4361 -2.3941 -0.9664
35080SOL     OW23231   1.515   2.362   2.302  0.2293 -0.5123  0.7161
35080SOL    HW123232   1.530   2.317   2.219  1.9396 -0.9688  1.2318
35080SOL    HW223233   1.422   2.383   2.301  0.1832 -0.6025 -1.2584
35081SOL     OW23234   8.678   7.612  11.739  0.2197 -0.1230  0.3361
35081SOL    HW123235   8.644   7.644  11.655  2.9643 -0.7567 -1.1636
35081SOL    HW223236   8.609   7.632  11.802 -1.0900  2.3951 -1.6671
35082SOL     OW23237   7.355  13.952  12.417 -0.2144 -0.2478  0.1345
35082SOL    HW123238   7.449  13.936  12.410 -0.2131 -0.2896  0.2495
35082SOL    HW223239   7.348  14.035  12.463 -0.2543 -0.8654  1.2699
35083SOL     OW23240   7.243   9.288  10.540  0.3867  0.1034  0.1272
35083SOL    HW123241   7.162   9.251  10.503  0.2660  0.4806  0.0110
35083SOL    HW223242   7.268   9.357  10.479  0.9827 -0.2289 -0.0133
35084SOL     OW23243   9.887  13.497   3.953  0.1115 -0.2102  0.1905
35084SOL    HW123244   9.980  13.503   3.931  0.2065  1.5992  0.9132
35084SOL    HW223245   9.843  13.489   3.869  0.8822 -0.7796 -0.1739
35085SOL     OW23246   0.535   9.268   7.623  0.0364 -0.0136  0.2863
35085SOL    HW123247   0.466   9.326   7.590  0.2650 -0.1411 -0.4313
35085SOL    HW223248   0.539   9.287   7.717  1.6229  2.7358 -0.2407
35086SOL     OW23249   8.906   5.723   7.167 -0.1931  0.4863  0.1750
35086SOL    HW123250   8.929   5.653   7.228  2.5329 -0.0841 -1.3396
35086SOL    HW223251   8.885   5.798   7.223  1.2551 -0.2888  1.8392
35087SOL     OW23252   2.185   2.768   3.661  0.2449 -0.0575  0.3566
35087SOL    HW123253   2.239   2.740   3.587  2.3073  0.3642  1.6179
35087SOL    HW223254   2.157   2.857   3.640 -0.5206 -0.4998 -0.5770
35088SOL     OW23255   9.402  12.662  10.404  0.0029  0.5503 -0.8007
35088SOL    HW123256   9.381  12.724  10.334  1.2983  1.4031 -0.4769
35088SOL    HW223257   9.416  12.717  10.481  3.5951  0.2236 -1.0262
35089SOL     OW23258   7.808   5.407  11.975  0.1258  0.0530 -0.1509
35089SOL    HW123259   7.873   5.460  12.021  0.4646 -0.8761  0.4435
35089SOL    HW223260   7.783   5.339  12.037 -0.2524 -0.5414 -0.9399
35090SOL     OW23261   9.037   7.130  10.923 -0.2479 -0.2684 -0.5378
35090SOL    HW123262   9.122   7.130  10.966 -0.3131  1.1229 -0.3616
35090SOL    HW223263   8.981   7.077  10.980  0.0600  0.2565  0.2635
35091SOL     OW23264   9.325   5.982  10.913  0.0133  0.0681 -0.3738
35091SOL    HW123265   9.262   5.975  10.841  0.0859  1.8668 -0.6433
35091SOL    HW223266   9.403   6.019  10.874  0.1017  0.9592  0.5944
35092SOL     OW23267  14.038   0.128   6.128  0.1242  0.1613 -0.5215
35092SOL    HW123268  13.972   0.177   6.178 -0.2054  0.6215 -1.3975
35092SOL    HW223269  13.989   0.086   6.058  0.4601 -1.1617 -0.0006
35093SOL     OW23270   5.993   5.658  11.963  0.3543  0.3699  0.1685
35093SOL    HW123271   5.937   5.729  11.931 -0.1691  0.1536  0.6044
35093SOL    HW223272   5.978   5.586  11.901 -0.6861 -0.0603  0.8840
35094SOL     OW23273  13.101  10.651   6.672  0.1890  0.6004  0.1841
35094SOL    HW123274  13.007  10.654   6.653  0.0676 -1.4898  0.1947
35094SOL    HW223275  13.142  10.695   6.597 -0.7511  0.5922 -0.3571
35095SOL     OW23276   4.643   1.032   1.309 -0.1696  0.2535 -0.3401
35095SOL    HW123277   4.575   1.091   1.341  0.8976  0.9320  0.7796
35095SOL    HW223278   4.674   1.072   1.228 -1.5479 -0.4390 -1.2566
35096SOL     OW23279  10.900   4.986   8.310 -0.5455 -0.4165 -0.0373
35096SOL    HW123280  10.910   4.903   8.356 -1.1369 -1.0876 -1.0691
35096SOL    HW223281  10.899   5.052   8.379 -1.7103 -1.4153  0.9498
35097SOL     OW23282   1.074  11.453   3.187  0.3514 -0.0655  0.6447
35097SOL    HW123283   0.982  11.466   3.163  0.6746 -1.0244 -1.2929
35097SOL    HW223284   1.075  11.459   3.282 -2.0998 -2.1093  0.8945
35098SOL     OW23285   9.003   5.173   4.506 -0.3647  0.0194  0.2563
35098SOL    HW123286   9.094   5.142   4.501 -0.2492 -0.0830  2.1738
35098SOL    HW223287   9.008   5.265   4.480  0.5779  0.4137  1.6641
35099SOL     OW23288   3.144   7.309  13.168 -0.1176 -0.2730  0.0141
35099SOL    HW123289   3.145   7.364  13.090 -1.1704 -0.5710 -0.2262
35099SOL    HW223290   3.125   7.370  13.239 -0.8102 -0.2507 -0.1866
35100SOL     OW23291   1.536   7.668  12.629 -0.0744  0.4279  0.3100
35100SOL    HW123292   1.548   7.722  12.551  0.6226 -1.4565 -0.9526
35100SOL    HW223293   1.501   7.586  12.596  1.8194 -1.0401  1.7437
35101SOL     OW23294  11.623  12.798  13.044 -0.2636 -0.2108 -0.4454
35101SOL    HW123295  11.675  12.723  13.071 -0.5613  0.0187  0.7862
35101SOL    HW223296  11.556  12.762  12.986  0.4336 -0.6901 -0.9675
35102SOL     OW23297   2.275   3.687  10.269 -0.2108 -0.0118  0.2133
35102SOL    HW123298   2.251   3.731  10.351 -0.4682  1.9165 -0.8304
35102SOL    HW223299   2.333   3.617  10.296  0.9841  1.5421  1.9508
35103SOL     OW23300  10.640   6.092   8.337  0.0930 -0.2293 -0.1775
35103SOL    HW123301  10.722   6.042   8.339  1.6683  2.0334 -1.6118
35103SOL    HW223302  10.642   6.145   8.417  0.6891  0.6720 -0.7607
35104SOL     OW23303   4.313   0.368   0.320  0.2605  0.1192  0.2496
35104SOL    HW123304   4.245   0.305   0.343 -0.7168  1.0305 -0.0835
35104SOL    HW223305   4.358   0.328   0.245 -0.9694  0.2248 -0.5693
35105SOL     OW23306  13.762   4.687  13.890 -0.0917  0.3730  0.1685
35105SOL    HW123307  13.715   4.616  13.846  1.8953 -1.6005  1.0691
35105SOL    HW223308  13.746   4.673  13.983  0.3163  1.1429  0.3660
35106SOL     OW23309  13.230   9.278  10.031 -0.2621 -0.3411 -0.0411
35106SOL    HW123310  13.195   9.195  10.061 -0.6028 -0.1577  0.0685
35106SOL    HW223311  13.199   9.342  10.095 -0.6875 -0.0023 -0.5697
35107SOL     OW23312   4.909   8.520  13.344 -0.3663  0.5857 -0.2839
35107SOL    HW123313   4.963   8.556  13.274 -1.1919  0.4225 -1.0233
35107SOL    HW223314   4.934   8.569  13.422  1.1057  0.2603 -0.5223
35108SOL     OW23315  10.890   7.526   5.865  0.4524  0.0669  0.5226
35108SOL    HW123316  10.871   7.554   5.776 -1.8693  2.3686  1.5905
35108SOL    HW223317  10.931   7.440   5.856 -2.2440 -1.0770 -2.6622
35109SOL     OW23318   2.788   5.702  13.237  0.4965 -0.2466 -0.2483
35109SOL    HW123319   2.880   5.728  13.238  0.2955  0.5844 -1.3449
35109SOL    HW223320   2.758   5.724  13.149 -0.2158 -2.4464 -0.6006
35110SOL     OW23321  12.709   7.329  11.848  0.2401  0.4093 -0.1850
35110SOL    HW123322  12.754   7.288  11.922 -0.7120  0.9720  0.7453
35110SOL    HW223323  12.656   7.259  11.809  0.8955  0.0628 -0.4624
35111SOL     OW23324   5.193   3.450   6.039  0.2781 -0.4296 -0.1661
35111SOL    HW123325   5.217   3.366   6.000 -1.2395 -0.2526 -1.6376
35111SOL    HW223326   5.169   3.504   5.963  0.5085  1.0915  0.8112
35112SOL     OW23327   0.558  13.465   0.736  0.4508 -0.4480  0.0423
35112SOL    HW123328   0.473  13.498   0.706  0.3873  0.0473  0.7361
35112SOL    HW223329   0.562  13.490   0.828  1.5392 -0.0671 -0.0880
35113SOL     OW23330   0.712  10.137   9.701  0.8652  0.3236  0.0922
35113SOL    HW123331   0.675  10.170   9.783 -0.0771 -0.4701  0.0003
35113SOL    HW223332   0.802  10.170   9.701  0.2757  2.0613  0.4577
35114SOL     OW23333   8.485   1.274  12.704  0.4944  0.3085 -0.3162
35114SOL    HW123334   8.451   1.364  12.711 -1.3174 -0.2405 -1.3647
35114SOL    HW223335   8.428   1.222  12.759  2.2432 -0.0907  1.2166
35115SOL     OW23336   7.380  13.025   2.051  0.0791  0.2565  0.5599
35115SOL    HW123337   7.342  13.075   2.124 -0.6916  0.6443 -0.0846
35115SOL    HW223338   7.473  13.049   2.051  0.6050 -1.4829  2.7951
35116SOL     OW23339   5.256   9.063   7.789 -0.4767  0.4702  0.1164
35116SOL    HW123340   5.220   9.093   7.873 -3.0979 -3.2298  0.5249
35116SOL    HW223341   5.340   9.023   7.813 -0.4184  0.9129  0.6921
35117SOL     OW23342  11.798   3.165   5.204 -0.4659 -0.1451 -0.5166
35117SOL    HW123343  11.802   3.132   5.115 -1.2906 -0.8362 -0.3121
35117SOL    HW223344  11.713   3.209   5.210 -2.2704 -3.4759  0.9914
35118SOL     OW23345   1.420   5.993  10.022  0.4809 -0.1310  0.1964
35118SOL    HW123346   1.334   5.950  10.017 -0.4863  1.7871 -0.6458
35118SOL    HW223347   1.426   6.022  10.113 -0.4610  1.0027 -0.0736
35119SOL     OW23348   4.434   9.888  10.613  0.3887  0.2576  0.0569
35119SOL    HW123349   4.375   9.963  10.622 -2.5088 -1.7900 -0.4622
35119SOL    HW223350   4.452   9.860  10.703  1.6991  1.6285  0.2651
35120SOL     OW23351   9.695   2.364  12.292 -0.4680 -0.2341  0.2658
35120SOL    HW123352   9.636   2.410  12.351  0.0763  0.1247  0.5313
35120SOL    HW223353   9.665   2.389  12.204 -1.1075 -0.5611  0.3779
35121SOL     OW23354  12.156   8.178   1.746  0.1124 -0.1347  0.4465
35121SOL    HW123355  12.209   8.102   1.768  0.7224 -0.0622 -0.7361
35121SOL    HW223356  12.069   8.142   1.728  0.8237 -0.8158 -1.9084
35122SOL     OW23357  10.214   0.622  11.621 -0.0110  0.3925 -0.3918
35122SOL    HW123358  10.149   0.681  11.582  0.1257  0.9014  0.1542
35122SOL    HW223359  10.200   0.539  11.575 -0.3483  0.7806 -1.0121
35123SOL     OW23360  13.183   8.595  11.134 -0.2458 -0.4681  0.6138
35123SOL    HW123361  13.100   8.563  11.170  0.5676 -1.7917  1.3916
35123SOL    HW223362  13.157   8.664  11.072 -1.8802 -0.4657  1.2429
35124SOL     OW23363   7.737   0.157   0.004  0.3570 -0.0811  0.1222
35124SOL    HW123364   7.769   0.246  -0.014  0.1744  0.1920  1.1104
35124SOL    HW223365   7.809   0.100  -0.023  0.8363  0.4192  0.3297
35125SOL     OW23366   8.718   6.448   1.016  0.3240 -0.2919  0.5998
35125SOL    HW123367   8.679   6.361   1.029 -0.3407 -0.2517 -0.8486
35125SOL    HW223368   8.803   6.430   0.976  0.7114 -0.2987  1.4087
35126SOL     OW23369   2.089   9.565   0.808 -0.2483 -0.0806  0.4412
35126SOL    HW123370   2.029   9.522   0.747  1.2611 -1.5758 -0.0795
35126SOL    HW223371   2.036   9.580   0.887 -1.6697 -0.0324 -0.4887
35127SOL     OW23372   2.618   0.361  12.817  0.9131 -0.0793  0.0196
35127SOL    HW123373   2.680   0.312  12.872  1.6134  0.6711 -0.0852
35127SOL    HW223374   2.672   0.420  12.766  0.3824 -1.5173 -2.3429
35128SOL     OW23375   5.459  13.624   4.625  0.1725 -0.1302 -0.0745
35128SOL    HW123376   5.532  13.641   4.684  0.1802 -1.1467  0.2268
35128SOL    HW223377   5.389  13.681   4.657  0.7044  0.5729 -0.1378
35129SOL     OW23378  13.129   6.990   3.154  0.0389  0.1729 -0.3745
35129SOL    HW123379  13.038   7.013   3.135 -0.1239 -0.7723 -0.7474
35129SOL    HW223380  13.125   6.942   3.237  0.1825  0.0014 -0.4669
35130SOL     OW23381  13.187   3.707   4.199 -0.0398 -0.1134  0.1155
35130SOL    HW123382  13.149   3.662   4.274 -0.4341 -0.2765 -0.1794
35130SOL    HW223383  13.225   3.787   4.236 -2.0905  0.8823  0.2086
35131SOL     OW23384   5.988   4.533   3.188  0.2995  0.1184  0.1867
35131SOL    HW123385   5.992   4.628   3.172 -0.0569  0.0513 -0.3187
35131SOL    HW223386   5.947   4.525   3.274 -0.1586  0.4079 -0.0045
35132SOL     OW23387   5.926  13.848   0.733 -0.0548  0.2112 -0.0103
35132SOL    HW123388   5.916  13.851   0.638 -1.0014  0.8105  0.1028
35132SOL    HW223389   5.838  13.838   0.767 -0.2174  3.5406  0.9180
35133SOL     OW23390   2.592   4.052   5.912  0.1948 -0.0602 -0.0882
35133SOL    HW123391   2.517   4.061   5.971 -0.9995  0.2720 -1.6187
35133SOL    HW223392   2.581   3.966   5.871  0.8452 -0.1517 -0.0917
35134SOL     OW23393  12.025   1.042   3.830 -0.3887  0.6698  0.3282
35134SOL    HW123394  11.983   1.020   3.747 -1.7900 -0.8077  1.3597
35134SOL    HW223395  12.081   0.967   3.850 -1.2906  0.2652  1.4533
35135SOL     OW23396  13.975   8.822   4.490  0.1246 -0.6037  0.1933
35135SOL    HW123397  13.894   8.771   4.496 -0.5046  0.3416 -0.0052
35135SOL    HW223398  13.965   8.872   4.409  0.1143  0.8214  1.0549
35136SOL     OW23399   4.749   2.343   7.428 -0.3478  0.1894  0.0204
35136SOL    HW123400   4.801   2.336   7.508  0.6715 -1.1676 -0.7352
35136SOL    HW223401   4.666   2.299   7.450  0.3714 -1.2224 -0.0131
35137SOL     OW23402   1.904   4.032   5.782  0.8433 -0.2046 -0.1833
35137SOL    HW123403   1.811   4.033   5.803  0.8890  1.2701  0.0374
35137SOL    HW223404   1.945   4.079   5.854  1.7417 -0.5910 -0.4235
35138SOL     OW23405   4.909  12.504   9.466 -0.4050  0.0340  0.2868
35138SOL    HW123406   4.889  12.457   9.384  1.2669  0.9432 -0.6890
35138SOL    HW223407   5.003  12.523   9.460 -0.1456 -0.2683  2.6468
35139SOL     OW23408   8.279  10.233  12.983  0.2298  0.0756  1.0864
35139SOL    HW123409   8.348  10.236  12.917  0.7983  0.6359  1.6994
35139SOL    HW223410   8.239  10.320  12.981  0.0728  0.0100  1.2903
35140SOL     OW23411   1.952  13.954  11.749 -0.1705  0.4781  0.0374
35140SOL    HW123412   1.864  13.977  11.721  1.3135  2.7693 -3.4136
35140SOL    HW223413   1.968  13.868  11.709 -0.5170  0.4691 -0.0854
35141SOL     OW23414  13.583   3.410   9.289  0.2606 -0.4970  0.2635
35141SOL    HW123415  13.525   3.439   9.219 -0.8924  0.8918  1.7158
35141SOL    HW223416  13.638   3.343   9.248 -0.8132 -0.2308 -1.7652
35142SOL     OW23417  14.139   6.516   6.524  0.1216 -0.1045 -0.7805
35142SOL    HW123418  14.120   6.423   6.514  0.3582 -0.4459  1.4130
35142SOL    HW223419  14.227   6.519   6.561  0.7873  1.1006 -2.3179
35143SOL     OW23420  10.924   4.489  13.669  0.8042  1.0388  0.1425
35143SOL    HW123421  10.834   4.478  13.638  1.0046  0.5912 -0.2940
35143SOL    HW223422  10.942   4.409  13.718  2.0946 -0.5435 -2.6161
35144SOL     OW23423   8.614   0.542   1.547 -0.0239 -0.0451 -0.7095
35144SOL    HW123424   8.578   0.457   1.519 -1.6025 -0.1193  1.2826
35144SOL    HW223425   8.537   0.598   1.555  0.6962  0.8111  0.4428
35145SOL     OW23426   6.229   2.474   8.169 -0.3231 -0.2343 -0.0254
35145SOL    HW123427   6.171   2.455   8.095  0.4344  0.9665 -0.9609
35145SOL    HW223428   6.304   2.417   8.156 -0.4508 -0.4443  0.1497
35146SOL     OW23429   2.884  11.677   7.383 -0.3071  1.0039 -0.2474
35146SOL    HW123430   2.829  11.601   7.401  0.5692 -0.1114 -2.0175
35146SOL    HW223431   2.822  11.750   7.377 -1.1689  0.4841  1.4556
35147SOL     OW23432  13.255  10.508   3.388  0.6684 -0.3570 -0.3476
35147SOL    HW123433  13.278  10.533   3.477  0.6773  0.8622 -0.6847
35147SOL    HW223434  13.169  10.548   3.372 -0.9054 -3.2074  0.1957
35148SOL     OW23435   0.965   0.787   9.561  0.1263 -0.7938  0.6670
35148SOL    HW123436   1.044   0.835   9.585  0.4726 -1.7504  1.5258
35148SOL    HW223437   0.951   0.808   9.468  1.6994 -1.0209  0.3527
35149SOL     OW23438  10.332   7.385  11.902 -0.0326 -0.7105  0.3783
35149SOL    HW123439  10.370   7.467  11.933  0.8542 -0.0753 -2.1665
35149SOL    HW223440  10.241   7.407  11.880  0.3938 -0.1940 -0.9464
35150SOL     OW23441  12.895   7.761  12.601  0.7478  0.1960 -0.1825
35150SOL    HW123442  12.829   7.778  12.669 -0.8562 -0.2550 -1.5639
35150SOL    HW223443  12.974   7.740  12.650 -0.2934  0.1079  1.5599
35151SOL     OW23444   5.118   1.899   4.750  0.4270  0.7437  0.3263
35151SOL    HW123445   5.104   1.959   4.676  0.7189 -1.0035 -1.2173
35151SOL    HW223446   5.208   1.916   4.778  0.5123  0.9960 -0.0941
35152SOL     OW23447   6.276  12.025   9.385 -0.2648 -0.0041  0.2698
35152SOL    HW123448   6.242  12.099   9.335  0.6408 -0.1504 -0.5874
35152SOL    HW223449   6.318  11.969   9.320  0.5777 -0.4184  1.1412
35153SOL     OW23450  10.147   5.224  10.878 -0.0445  0.2862  0.3740
35153SOL    HW123451  10.143   5.317  10.903 -2.4353  0.3953 -0.2082
35153SOL    HW223452  10.056   5.195  10.879  0.3684 -1.3705 -1.9603
35154SOL     OW23453   8.842   4.515   2.081 -0.3751 -1.1683 -0.4154
35154SOL    HW123454   8.929   4.485   2.053 -0.8463 -1.0349 -2.1744
35154SOL    HW223455   8.845   4.610   2.069 -1.0290 -1.2523 -1.3800
35155SOL     OW23456   4.859   1.499  10.036 -0.1400  0.4688  0.6297
35155SOL    HW123457   4.849   1.456  10.121 -1.8908  1.8296  1.1709
35155SOL    HW223458   4.789   1.461   9.982 -0.7275  1.5180  0.6405
35156SOL     OW23459  11.850  11.356   3.901  0.3347  0.1032 -0.1106
35156SOL    HW123460  11.800  11.353   3.819 -1.4732  2.3927  0.7940
35156SOL    HW223461  11.925  11.297   3.886 -0.2799 -0.0634 -3.1295
35157SOL     OW23462  12.851   8.278   0.428  0.4455 -0.4646  0.3961
35157SOL    HW123463  12.896   8.346   0.479 -0.8176 -0.2574  1.2861
35157SOL    HW223464  12.790   8.237   0.490 -0.7724 -0.5561 -0.7980
35158SOL     OW23465  10.376   5.800   0.256 -0.0904  0.5903 -0.6167
35158SOL    HW123466  10.448   5.769   0.312  0.2247 -1.0211 -1.8226
35158SOL    HW223467  10.313   5.727   0.257 -0.1967  0.6388 -2.1250
35159SOL     OW23468   9.484  10.176  11.270  0.0159 -0.2431  0.6357
35159SOL    HW123469   9.434  10.210  11.343 -0.0782 -0.5886  0.7355
35159SOL    HW223470   9.450  10.222  11.193 -1.1585 -1.1700  0.5600
35160SOL     OW23471   2.191  11.728   8.974 -0.1737 -0.5089  0.0518
35160SOL    HW123472   2.224  11.817   8.974 -2.2776  0.3393  1.3070
35160SOL    HW223473   2.225  11.690   8.893 -0.8185  2.0654 -1.5455
35161SOL     OW23474  11.373   0.698   4.154  0.6575 -0.4769  0.0780
35161SOL    HW123475  11.336   0.611   4.137 -0.6243 -0.3195  1.7015
35161SOL    HW223476  11.450   0.681   4.208  1.5960 -0.6733 -1.2675
35162SOL     OW23477   8.678   9.756  13.499 -0.3008 -0.1303  0.0891
35162SOL    HW123478   8.698   9.737  13.591 -2.4624  0.6187  0.7733
35162SOL    HW223479   8.735   9.829  13.476 -0.0094 -0.0802  0.9534
35163SOL     OW23480  13.349   6.351  11.447 -0.3367 -0.3769  0.4473
35163SOL    HW123481  13.333   6.393  11.362 -0.8354  0.0668  0.7562
35163SOL    HW223482  13.391   6.418  11.499  1.6010 -1.1914  0.0033
35164SOL     OW23483   5.997  11.445   8.239  0.1397 -0.1035 -0.5115
35164SOL    HW123484   5.971  11.353   8.227 -1.5972  0.5682 -2.5693
35164SOL    HW223485   5.915  11.491   8.256  0.3279  1.5601 -3.3818
35165SOL     OW23486  12.093  12.942   5.203 -0.2920  0.5128  0.0888
35165SOL    HW123487  12.064  12.876   5.266 -0.2593  1.2070  0.8446
35165SOL    HW223488  12.094  12.896   5.119  1.2905 -0.9337  0.8294
35166SOL     OW23489   4.022   3.199   8.140 -0.1993 -0.7728  0.0389
35166SOL    HW123490   4.046   3.165   8.053  2.4165  0.9159 -0.0148
35166SOL    HW223491   4.009   3.293   8.127 -0.7426 -0.6495  1.3067
35167SOL     OW23492   3.567  10.452   3.338 -0.1345 -0.5497 -0.4165
35167SOL    HW123493   3.508  10.495   3.276 -1.8056 -1.3482  0.5357
35167SOL    HW223494   3.531  10.473   3.424  3.0221  1.8498  0.4952
35168SOL     OW23495  10.241  10.689   7.465  0.2432  0.4425  0.4215
35168SOL    HW123496  10.325  10.685   7.418  0.4399  0.4630  0.7634
35168SOL    HW223497  10.259  10.748   7.538 -0.0873  0.4850  0.4667
35169SOL     OW23498   3.527   2.788  11.055  0.3687 -0.1018  0.1937
35169SOL    HW123499   3.548   2.795  10.962 -1.2568  1.2792 -0.1210
35169SOL    HW223500   3.584   2.852  11.098  1.3230 -0.9406  0.2252
35170SOL     OW23501   7.972   2.736  14.004 -0.4524 -0.2105 -0.0598
35170SOL    HW123502   8.029   2.670  14.042  0.6568  0.8362  0.1507
35170SOL    HW223503   7.984   2.813  14.060  2.3721  1.8902 -3.1736
35171SOL     OW23504   8.102   9.484  12.177  0.4843 -0.3430 -0.1164
35171SOL    HW123505   8.052   9.554  12.219 -0.6202 -1.4128  0.4051
35171SOL    HW223506   8.184   9.526  12.151 -0.6150  1.4392 -0.9053
35172SOL     OW23507   6.990  10.317  12.634  0.4777  0.0704  0.2375
35172SOL    HW123508   6.897  10.338  12.625  0.6514  0.0011 -2.4168
35172SOL    HW223509   6.999  10.229  12.597  1.4803 -0.3915  1.4683
35173SOL     OW23510   1.829   6.047   0.568 -0.8060  0.3052 -0.0076
35173SOL    HW123511   1.851   6.008   0.483 -1.2980  0.0434 -0.0219
35173SOL    HW223512   1.909   6.039   0.620  0.3316  2.7445 -1.2457
35174SOL     OW23513   8.375   3.936   0.198  0.3007  0.2872 -0.3376
35174SOL    HW123514   8.313   3.881   0.149 -0.5469  0.7365  0.2222
35174SOL    HW223515   8.460   3.891   0.186 -0.3440 -1.0833  0.0003
35175SOL     OW23516   9.502   3.845  11.913  0.4647 -0.0803 -0.4240
35175SOL    HW123517   9.494   3.935  11.883  0.9050  0.1669  0.1770
35175SOL    HW223518   9.477   3.849  12.005  0.8227 -0.5086 -0.3051
35176SOL     OW23519   3.432  13.008   1.865 -0.1452 -0.3715 -0.1816
35176SOL    HW123520   3.410  13.101   1.863  1.3349  0.0517  1.4167
35176SOL    HW223521   3.347  12.964   1.865 -0.8979  1.0085  0.2114
35177SOL     OW23522   6.781   0.652  12.173  0.5355  0.6691 -0.6422
35177SOL    HW123523   6.850   0.691  12.120  1.2128  0.1695 -0.1403
35177SOL    HW223524   6.827   0.602  12.240 -0.3163 -0.5323 -0.9241
35178SOL     OW23525   0.398  11.174  12.742 -0.4052  0.9565 -0.0265
35178SOL    HW123526   0.481  11.184  12.788 -0.9560  0.8957  0.9963
35178SOL    HW223527   0.418  11.113  12.670 -0.0098 -0.6613  1.3883
35179SOL     OW23528   4.050   1.813  11.650 -0.0079  0.2620  0.1883
35179SOL    HW123529   4.015   1.733  11.689 -1.1043  0.6398  0.0173
35179SOL    HW223530   4.145   1.801  11.652 -0.1257 -0.6690  0.9417
35180SOL     OW23531  12.312  11.503   5.429 -0.2300  0.2096 -0.2464
35180SOL    HW123532  12.373  11.576   5.429 -0.6038  0.5272  0.1856
35180SOL    HW223533  12.231  11.538   5.467 -0.2549 -0.5456  0.4519
35181SOL     OW23534  12.054   9.551   3.174  0.0112 -0.2456 -0.1929
35181SOL    HW123535  12.029   9.629   3.125 -0.5945 -0.5334 -0.3625
35181SOL    HW223536  12.059   9.482   3.107  2.1144 -0.0379 -0.2925
35182SOL     OW23537  10.652  12.070   8.203 -0.3030 -0.1394  0.3812
35182SOL    HW123538  10.559  12.050   8.199 -0.4809  0.8043 -1.0997
35182SOL    HW223539  10.663  12.146   8.145  1.0850  0.9635  1.9835
35183SOL     OW23540  10.936   3.992   9.854  0.2370 -0.4441 -0.3128
35183SOL    HW123541  10.922   4.034   9.939  0.1039  0.5663 -0.8117
35183SOL    HW223542  11.030   4.004   9.837  0.0602  0.3107 -0.7843
35184SOL     OW23543   6.076   6.856   3.091 -0.3515 -0.4571 -0.5044
35184SOL    HW123544   6.150   6.808   3.055  2.2602  1.9295  1.2645
35184SOL    HW223545   6.049   6.805   3.168  3.4073  1.2949  2.2915
35185SOL     OW23546   9.222   8.126   8.055  0.5229 -0.3672 -0.4539
35185SOL    HW123547   9.156   8.195   8.065  0.1822 -0.8000  0.4432
35185SOL    HW223548   9.183   8.050   8.098  1.9697 -0.3856  0.8910
35186SOL     OW23549   0.782  14.116   3.902 -0.5701  0.0519  0.1100
35186SOL    HW123550   0.841  14.041   3.893 -0.1326  0.0396  2.4440
35186SOL    HW223551   0.809  14.176   3.834  0.8490 -0.7922 -0.1132
35187SOL     OW23552   9.771   9.272  11.741 -0.1795 -0.6969  0.0382
35187SOL    HW123553   9.793   9.233  11.826  0.1437  0.1359  0.3374
35187SOL    HW223554   9.680   9.245  11.726  0.2731 -2.2570 -0.1506
35188SOL     OW23555   9.470   1.397   2.173 -0.3719 -0.7689  0.4386
35188SOL    HW123556   9.452   1.397   2.079 -0.7507 -0.8892  0.5133
35188SOL    HW223557   9.385   1.389   2.215 -0.3512  0.6664  0.8197
35189SOL     OW23558   9.179   3.379   6.229  0.0874  0.3555 -0.2770
35189SOL    HW123559   9.194   3.431   6.151  1.8694 -0.3755 -0.4867
35189SOL    HW223560   9.237   3.417   6.295  0.4917 -0.5645 -0.0781
35190SOL     OW23561  14.052  10.640   3.373  0.4995 -0.5855  0.0915
35190SOL    HW123562  14.120  10.600   3.427 -1.5085 -2.3233  1.4792
35190SOL    HW223563  13.985  10.668   3.436 -0.4221  0.4066 -1.2802
35191SOL     OW23564   5.825   8.410   7.606 -0.2990  0.1803 -0.0958
35191SOL    HW123565   5.745   8.463   7.610  1.0545  2.2588  1.6365
35191SOL    HW223566   5.891   8.469   7.570  0.8956 -0.8541  0.3400
35192SOL     OW23567  14.053  14.112   1.136 -0.3570 -0.3998 -0.2516
35192SOL    HW123568  14.030  14.068   1.053 -0.6870 -1.3189  0.3123
35192SOL    HW223569  14.148  14.122   1.131 -0.3712 -0.4448 -0.7479
35193SOL     OW23570   5.732   1.968  11.177  0.6034  0.9535 -0.1277
35193SOL    HW123571   5.763   1.883  11.148  1.1129  0.9023  0.5479
35193SOL    HW223572   5.770   2.030  11.115  1.8122  0.8580  0.4885
35194SOL     OW23573   4.674   5.120   5.742  0.2823  0.2718  0.1591
35194SOL    HW123574   4.620   5.044   5.720 -0.4748  0.9636 -0.4496
35194SOL    HW223575   4.615   5.178   5.791  0.8392  0.4938  0.5859
35195SOL     OW23576   1.175   5.208   7.305 -0.4274  0.7555 -0.3423
35195SOL    HW123577   1.151   5.245   7.220  0.1728  1.2148 -0.3190
35195SOL    HW223578   1.269   5.189   7.297 -0.7545 -0.9914 -0.4370
35196SOL     OW23579   1.633   6.404   3.787 -0.3226 -0.2731 -0.1823
35196SOL    HW123580   1.642   6.384   3.694 -1.9888 -1.5261 -0.1345
35196SOL    HW223581   1.620   6.318   3.828  0.8076  0.2166  1.2834
35197SOL     OW23582  12.824   1.029   4.393  0.8506  0.5180  0.4537
35197SOL    HW123583  12.881   0.991   4.326 -2.7169  0.3964 -2.8994
35197SOL    HW223584  12.818   1.121   4.370 -1.9437  0.1200 -0.8509
35198SOL     OW23585   0.531   0.692   7.894 -0.0417  0.0441  0.1018
35198SOL    HW123586   0.497   0.776   7.861 -0.8690 -0.6074 -0.7853
35198SOL    HW223587   0.506   0.691   7.986 -2.3106 -0.2920 -0.4580
35199SOL     OW23588   0.489   6.650   4.442 -0.3967 -0.3967  0.5416
35199SOL    HW123589   0.573   6.651   4.488 -0.2104  0.5351  0.2110
35199SOL    HW223590   0.496   6.577   4.380  0.7972  0.5855 -0.5621
35200SOL     OW23591  13.167   4.957  10.743  0.5433  0.0629  0.5629
35200SOL    HW123592  13.188   4.873  10.702 -2.1211 -1.3202  1.7901
35200SOL    HW223593  13.226   4.961  10.818  0.1891 -1.1191  0.9343
35201SOL     OW23594   9.937   8.733  13.420  0.1464  0.1947 -0.0702
35201SOL    HW123595   9.872   8.683  13.469 -0.4066  1.4574  0.5304
35201SOL    HW223596   9.920   8.711  13.328  0.5713 -1.4548  0.2100
35202SOL     OW23597  10.148   8.692  13.593  0.1787  0.3325 -0.0903
35202SOL    HW123598  10.105   8.632  13.653  1.3334 -0.9473 -0.4886
35202SOL    HW223599  10.080   8.713  13.528 -0.6363  0.5624  0.8118
35203SOL     OW23600  10.574   8.528   6.012  0.3322 -0.1600 -0.1838
35203SOL    HW123601  10.562   8.459   6.077  0.1150  0.7741  0.7997
35203SOL    HW223602  10.549   8.488   5.929 -2.3348 -0.5490  0.7096
35204SOL     OW23603   1.767   6.192   0.146  0.0364 -0.0531  0.0591
35204SOL    HW123604   1.799   6.113   0.191 -0.1061 -1.1980 -1.7553
35204SOL    HW223605   1.840   6.218   0.090 -0.0130  0.9897  0.4587
35205SOL     OW23606   0.924   3.858   8.222  0.2850 -0.2011  0.2090
35205SOL    HW123607   0.989   3.891   8.159 -0.9870  0.5411 -0.7662
35205SOL    HW223608   0.853   3.825   8.167  0.0756 -1.5620  1.2423
35206SOL     OW23609  13.658  11.182   9.118 -0.1508  0.2631 -0.2675
35206SOL    HW123610  13.634  11.135   9.038  0.4079 -1.7695  0.6772
35206SOL    HW223611  13.747  11.152   9.138 -0.7698 -0.3814  1.8302
35207SOL     OW23612   9.399  11.248   4.258  0.4664 -0.0155  0.6175
35207SOL    HW123613   9.492  11.230   4.262  0.3598 -0.2953  2.3190
35207SOL    HW223614   9.360  11.166   4.227  0.7630  0.0683  0.0117
35208SOL     OW23615   3.625   4.991   1.981  0.3638  0.2879 -0.0144
35208SOL    HW123616   3.675   4.910   1.970 -0.8760 -0.3837 -0.9035
35208SOL    HW223617   3.689   5.061   1.966  1.5895 -0.4859  1.3835
35209SOL     OW23618   9.710  10.289   0.324  0.0547 -0.2181 -0.3831
35209SOL    HW123619   9.670  10.371   0.293 -1.9611 -0.9883  0.0553
35209SOL    HW223620   9.764  10.317   0.399  1.7409  1.0657 -1.9608
35210SOL     OW23621   6.667   2.336   4.345 -0.0042 -0.8212 -0.4433
35210SOL    HW123622   6.713   2.408   4.301 -0.1774 -0.6733 -0.3845
35210SOL    HW223623   6.600   2.379   4.397 -0.0497 -1.0219 -0.3352
35211SOL     OW23624  11.783  14.119  12.108 -0.0895  0.0485  0.4469
35211SOL    HW123625  11.744  14.051  12.054 -0.3145  0.1614  0.4645
35211SOL    HW223626  11.733  14.198  12.086 -0.6055 -0.0295  1.2765
35212SOL     OW23627   0.942  12.290  12.793 -0.3620  0.4129  0.3797
35212SOL    HW123628   1.030  12.256  12.811 -1.3951 -1.6227  2.0823
35212SOL    HW223629   0.906  12.308  12.880 -1.6972  1.0852 -0.2901
35213SOL     OW23630  11.406   3.180   0.268 -0.2241  0.3753 -0.3924
35213SOL    HW123631  11.331   3.160   0.211 -2.4696 -0.9754  2.7383
35213SOL    HW223632  11.458   3.099   0.268 -2.0105 -0.8905  1.8262
35214SOL     OW23633  12.116   6.034  10.919 -0.6793  0.1465  0.0238
35214SOL    HW123634  12.106   6.076  11.004 -0.3788  0.1577  0.0535
35214SOL    HW223635  12.026   6.026  10.886 -0.8233 -0.1320  0.4735
35215SOL     OW23636   8.282   4.848   0.217 -0.7991 -0.1839 -0.1845
35215SOL    HW123637   8.324   4.769   0.253 -0.4091  0.1280  0.0541
35215SOL    HW223638   8.355   4.906   0.197 -1.1069  0.2715  0.0097
35216SOL     OW23639   4.338   4.571   2.120  0.0828 -0.5714 -0.0450
35216SOL    HW123640   4.244   4.554   2.126  0.2041 -1.2900 -0.1201
35216SOL    HW223641   4.364   4.533   2.036  0.5543 -0.9407  0.2638
35217SOL     OW23642   5.509  12.843   8.166  0.7619 -0.4723 -0.1135
35217SOL    HW123643   5.483  12.763   8.120  0.9343  0.4344 -1.8401
35217SOL    HW223644   5.509  12.817   8.259 -1.8323 -1.7379 -0.3732
35218SOL     OW23645  12.090   3.607  12.276  0.7717 -0.3899 -0.2612
35218SOL    HW123646  12.144   3.674  12.318 -0.6590 -0.4338  1.7323
35218SOL    HW223647  12.004   3.647  12.268  0.3760 -1.3197 -0.8353
35219SOL     OW23648   3.871  13.689  12.216 -0.3276  0.3883  0.1194
35219SOL    HW123649   3.786  13.679  12.174 -0.5206 -0.5511  0.7205
35219SOL    HW223650   3.916  13.606  12.201  0.0380  0.4581  0.7809
35220SOL     OW23651   7.797   9.978   9.147  0.3923 -0.0247 -0.0925
35220SOL    HW123652   7.710   9.954   9.180  0.0651 -1.2081 -1.7190
35220SOL    HW223653   7.787  10.068   9.117  0.4645  0.7735  2.1093
35221SOL     OW23654  12.731   3.114   9.038  0.2533 -0.6672  0.5778
35221SOL    HW123655  12.818   3.079   9.021  0.0669 -0.3884 -1.1299
35221SOL    HW223656  12.690   3.049   9.095  0.3525 -2.6836 -1.4930
35222SOL     OW23657  13.356  11.757   8.972  0.1830  0.3051  0.6141
35222SOL    HW123658  13.434  11.799   9.008  0.4056  0.2824  0.1625
35222SOL    HW223659  13.296  11.828   8.952  0.4753  0.3963  0.0490
35223SOL     OW23660  11.868   6.368   2.050 -0.0120  0.4592 -0.2762
35223SOL    HW123661  11.872   6.461   2.075  0.0678 -0.1817  2.3623
35223SOL    HW223662  11.852   6.322   2.132  0.0716 -1.9039 -1.5125
35224SOL     OW23663   2.414   7.059   8.102 -0.3602 -0.2517  0.2612
35224SOL    HW123664   2.483   7.117   8.135 -0.2873  0.0753 -0.4382
35224SOL    HW223665   2.454   7.013   8.029 -1.6414  1.9929 -1.9970
35225SOL     OW23666   4.935   6.456   1.706 -0.2000  0.3180  0.4303
35225SOL    HW123667   4.884   6.535   1.686  1.7888  1.4318 -0.5866
35225SOL    HW223668   4.869   6.390   1.727 -2.2182  1.1520 -2.5525
35226SOL     OW23669  13.868   9.297  12.761  0.0825 -0.5657  0.3645
35226SOL    HW123670  13.884   9.376  12.709  1.0107 -0.1490  1.2355
35226SOL    HW223671  13.951   9.282  12.808 -0.8780 -0.5893  2.1340
35227SOL     OW23672  11.890   0.545   8.970 -0.3116 -0.3969  0.2887
35227SOL    HW123673  11.900   0.456   8.936 -1.1850 -1.3124  2.3035
35227SOL    HW223674  11.942   0.547   9.050 -1.5259  0.4118  1.0980
35228SOL     OW23675  10.681   0.444  13.493 -0.3343 -0.3209 -0.1137
35228SOL    HW123676  10.694   0.537  13.472 -0.8740 -0.2963 -0.3437
35228SOL    HW223677  10.701   0.438  13.587 -2.5565  0.4854  0.4811
35229SOL     OW23678   4.610   3.365   7.455 -0.4046 -0.2941  0.6109
35229SOL    HW123679   4.681   3.415   7.495 -1.0164  0.4357  0.8163
35229SOL    HW223680   4.537   3.375   7.517 -0.7188 -0.9472  0.3529
35230SOL     OW23681   5.620   7.950   9.391 -0.4391  0.4527  0.0205
35230SOL    HW123682   5.549   7.980   9.334 -0.7541  1.2494  0.7991
35230SOL    HW223683   5.640   8.026   9.445  1.1850  0.3243 -0.3421
35231SOL     OW23684  11.493  12.653   7.767  0.4830 -0.2683  0.4301
35231SOL    HW123685  11.428  12.722   7.781 -1.1169 -1.6959  0.4454
35231SOL    HW223686  11.537  12.678   7.686 -0.6853  0.3221 -0.0538
35232SOL     OW23687   6.862   8.745   8.107  0.0179  0.4615  0.2354
35232SOL    HW123688   6.900   8.826   8.073  1.5049 -0.3875 -0.1930
35232SOL    HW223689   6.856   8.687   8.032  1.0923 -0.6017  0.9291
35233SOL     OW23690   5.920  10.731   7.310  0.2180  0.1066 -0.1633
35233SOL    HW123691   6.015  10.739   7.318  0.1201  1.3688 -0.1323
35233SOL    HW223692   5.900  10.764   7.223 -0.1310 -0.9438 -0.5050
35234SOL     OW23693  10.049   0.187   2.334 -0.6831 -0.0481 -0.0349
35234SOL    HW123694  10.121   0.158   2.278  0.1449 -0.7421  1.3341
35234SOL    HW223695  10.022   0.108   2.380 -3.8359 -0.3107 -2.0838
35235SOL     OW23696   9.372  11.593   3.900 -0.3291 -0.2355  0.2091
35235SOL    HW123697   9.383  11.547   3.983 -0.5596  0.3541  0.5711
35235SOL    HW223698   9.301  11.655   3.915  1.2162  1.6041  0.3515
35236SOL     OW23699   1.570  12.712   2.089 -0.3560  0.4924  0.4215
35236SOL    HW123700   1.550  12.620   2.075  2.6033 -0.1507 -0.1149
35236SOL    HW223701   1.579  12.721   2.184 -1.0257  0.3392  0.5018
35237SOL     OW23702   9.827   8.431   6.573 -0.1927  0.1629  0.3726
35237SOL    HW123703   9.864   8.431   6.661 -1.2751  1.6032  0.8587
35237SOL    HW223704   9.734   8.412   6.586 -0.7734  2.3537 -0.2180
35238SOL     OW23705   0.898   3.822  13.004 -0.0073  0.1621 -0.0239
35238SOL    HW123706   0.846   3.899  12.980 -0.5451 -0.6058 -1.4294
35238SOL    HW223707   0.955   3.807  12.929 -0.1020 -0.9572  0.1118
35239SOL     OW23708   4.634   8.578   2.130 -0.2132  0.4610 -0.0882
35239SOL    HW123709   4.635   8.660   2.179 -1.2303  0.9046 -0.7686
35239SOL    HW223710   4.699   8.591   2.061  0.3550  0.2963  0.4076
35240SOL     OW23711  13.148   8.200  12.765  0.3838  0.1718 -0.0940
35240SOL    HW123712  13.162   8.116  12.808 -0.6076  0.2655  0.4344
35240SOL    HW223713  13.197   8.263  12.818 -0.5551  0.2338  0.7396
35241SOL     OW23714   6.958   6.794   0.423 -0.2147  0.4853 -0.0713
35241SOL    HW123715   7.047   6.804   0.459 -0.8930 -1.6571  2.4381
35241SOL    HW223716   6.919   6.724   0.474 -3.0980  0.7421 -1.7388
35242SOL     OW23717   1.441   0.257   6.554  0.1738 -0.1537 -0.2476
35242SOL    HW123718   1.394   0.335   6.583  2.5998  1.0679  0.6166
35242SOL    HW223719   1.377   0.209   6.500 -2.9501  0.0376  2.8859
35243SOL     OW23720   4.684   1.960   0.408 -0.2285  0.1320  0.5441
35243SOL    HW123721   4.661   2.037   0.460 -1.3909 -0.1333  0.4634
35243SOL    HW223722   4.666   1.985   0.318 -1.5159 -0.5145  0.5981
35244SOL     OW23723  12.473   5.612   8.482 -0.0769 -0.1134  0.1225
35244SOL    HW123724  12.459   5.704   8.504  3.1592  0.5133 -0.0388
35244SOL    HW223725  12.504   5.573   8.564 -1.4747 -1.1229  0.2021
35245SOL     OW23726   8.008   8.743  10.047 -0.0195  0.0991  0.4781
35245SOL    HW123727   7.949   8.815  10.067  0.7610  0.8105  0.2624
35245SOL    HW223728   7.959   8.664  10.073 -0.7796  0.7073  0.9463
35246SOL     OW23729   9.709   4.639  12.419  0.4185 -0.2705 -0.1892
35246SOL    HW123730   9.765   4.716  12.407  0.1794  0.1566  1.2337
35246SOL    HW223731   9.753   4.588  12.487  0.4541 -1.3068 -0.9539
35247SOL     OW23732   5.018   2.055   1.212 -0.2532 -0.6981 -0.0444
35247SOL    HW123733   5.038   2.055   1.118  1.2863  0.4063  0.2233
35247SOL    HW223734   5.055   1.973   1.245  0.7973 -0.2997 -0.1621
35248SOL     OW23735   4.195  12.907  13.910  0.2503 -0.2774 -0.4592
35248SOL    HW123736   4.276  12.915  13.960  0.4990  0.6680 -0.9770
35248SOL    HW223737   4.217  12.849  13.837  0.1976 -0.7565 -0.0975
35249SOL     OW23738  12.007   1.961   9.291 -0.1653 -0.2868 -0.2245
35249SOL    HW123739  12.026   2.055   9.287  1.8325 -0.6763 -1.0410
35249SOL    HW223740  12.080   1.924   9.339 -0.9203 -1.4602  0.0664
35250SOL     OW23741   0.746   2.057  13.127 -0.1629 -0.1824  0.4742
35250SOL    HW123742   0.788   2.085  13.208 -0.4985 -1.1661  1.0052
35250SOL    HW223743   0.761   1.963  13.123 -0.1491 -0.1439 -0.6150
35251SOL     OW23744   1.107   4.116   8.561  0.3567  0.1414 -0.2617
35251SOL    HW123745   1.190   4.126   8.608  0.3174  2.3985 -0.5636
35251SOL    HW223746   1.108   4.186   8.495 -1.0560 -0.8464 -1.4171
35252SOL     OW23747   1.530   2.437  11.988  0.5156 -0.1914 -0.8755
35252SOL    HW123748   1.451   2.466  12.033  2.3455 -0.0244  2.6392
35252SOL    HW223749   1.556   2.513  11.935 -1.4071 -0.1365 -1.8309
35253SOL     OW23750   3.596   2.609   3.602  0.2470 -0.8442  0.0886
35253SOL    HW123751   3.614   2.554   3.526 -0.0221 -1.7027  0.6357
35253SOL    HW223752   3.669   2.672   3.603 -0.6551  0.3358 -1.8888
35254SOL     OW23753  11.796   2.762   1.102 -0.3947 -0.4881 -0.5528
35254SOL    HW123754  11.733   2.726   1.164 -0.3220  0.2285 -0.0475
35254SOL    HW223755  11.859   2.809   1.157  0.3646 -0.8667 -1.0785
35255SOL     OW23756   6.673   5.100   8.676 -0.0957  0.0912  0.1560
35255SOL    HW123757   6.680   5.128   8.767 -2.2252  2.5957 -0.3286
35255SOL    HW223758   6.581   5.113   8.654  0.1965 -1.2215 -2.1484
35256SOL     OW23759   0.884  11.082   8.518  0.0510  0.0526 -0.3445
35256SOL    HW123760   0.823  11.039   8.577  1.2065 -0.3196  0.6165
35256SOL    HW223761   0.892  11.171   8.553 -1.0385  0.5709 -1.3370
35257SOL     OW23762   8.465  10.306   3.883 -0.4189 -0.0827 -0.7028
35257SOL    HW123763   8.559  10.325   3.885 -0.5232  0.3482  0.3283
35257SOL    HW223764   8.424  10.385   3.849 -0.5431  0.2908  0.3074
35258SOL     OW23765  10.027   7.923   1.926 -0.2542  0.3057  0.5039
35258SOL    HW123766  10.039   7.953   1.835 -0.4521 -0.5320  0.1913
35258SOL    HW223767  10.115   7.921   1.962 -0.0842 -0.1115  0.0771
35259SOL     OW23768   5.977   1.983   0.235  0.2052  0.3065  0.3553
35259SOL    HW123769   5.925   2.059   0.260  1.5080  2.3898 -2.6635
35259SOL    HW223770   5.921   1.932   0.177 -0.5611 -1.0008  2.1412
35260SOL     OW23771   0.991   6.950   2.243  0.2422  0.2819  0.1831
35260SOL    HW123772   1.020   6.987   2.327  0.5068 -0.3092  0.3558
35260SOL    HW223773   0.906   6.992   2.226  0.4920  0.8908  0.4219
35261SOL     OW23774   6.878   6.535   2.627 -0.0543  0.1524  0.2532
35261SOL    HW123775   6.947   6.514   2.689  0.3907 -0.4888 -0.4332
35261SOL    HW223776   6.804   6.480   2.653  0.9261 -2.0189 -1.2034
35262SOL     OW23777   9.561   1.187  10.791  0.1336  1.0011  0.4749
35262SOL    HW123778   9.624   1.136  10.842 -0.0160  0.5138  0.1875
35262SOL    HW223779   9.497   1.218  10.856  0.8827  1.8508  0.8302
35263SOL     OW23780   5.726  12.983   9.645 -0.2254 -0.4523 -0.1245
35263SOL    HW123781   5.718  12.891   9.670  3.3239 -0.8681 -0.0025
35263SOL    HW223782   5.698  13.032   9.722 -0.6157 -1.4416  0.3762
35264SOL     OW23783  10.699  12.695   6.120  0.4196  0.0670  0.2700
35264SOL    HW123784  10.751  12.728   6.192  1.7859 -2.0139  0.3269
35264SOL    HW223785  10.761  12.647   6.065 -0.8972  0.1336 -1.3531
35265SOL     OW23786   5.371  12.382   3.418  0.0486  0.0341  0.1324
35265SOL    HW123787   5.450  12.328   3.421 -0.5313 -1.1057 -2.2772
35265SOL    HW223788   5.373  12.432   3.500  2.5375 -0.9279  0.7666
35266SOL     OW23789   6.808   3.987   4.561 -0.3059 -0.1375 -0.1450
35266SOL    HW123790   6.871   4.037   4.613 -0.0982 -1.1912  0.6592
35266SOL    HW223791   6.740   4.050   4.538 -0.5772  0.3238  1.7230
35267SOL     OW23792  11.305   3.848   9.123  0.8254  0.1018 -0.2012
35267SOL    HW123793  11.244   3.818   9.056  3.3358 -2.7104 -1.5085
35267SOL    HW223794  11.273   3.809   9.204 -1.6049  2.5907  0.1732
35268SOL     OW23795   9.430  10.139   2.657 -0.2187  0.3591 -0.2557
35268SOL    HW123796   9.435  10.194   2.578 -1.5446 -0.0508 -0.6533
35268SOL    HW223797   9.336  10.125   2.670  0.0670 -1.1628  0.2950
35269SOL     OW23798   7.332   7.508   1.453  0.4728 -0.0733 -0.3020
35269SOL    HW123799   7.328   7.421   1.493  0.6360  0.4584  0.9165
35269SOL    HW223800   7.275   7.563   1.508  0.8893  0.7372 -0.6580
35270SOL     OW23801   0.296   9.299  10.033  0.0922  0.4684 -0.4726
35270SOL    HW123802   0.322   9.208  10.049  1.0181  0.5743 -1.2785
35270SOL    HW223803   0.237   9.294   9.958 -0.0600  0.5050 -0.3549
35271SOL     OW23804  12.109  13.679  11.764 -0.0521 -0.1892  0.8028
35271SOL    HW123805  12.018  13.650  11.752 -0.3897  1.0404  0.2587
35271SOL    HW223806  12.161  13.612  11.719 -0.6790 -0.8845  1.0775
35272SOL     OW23807   0.659   2.576   2.944 -0.2226  0.0706  0.4009
35272SOL    HW123808   0.743   2.577   2.990  0.1124  0.3181 -0.2019
35272SOL    HW223809   0.652   2.487   2.910 -0.1480  0.0837  0.3505
35273SOL     OW23810   7.019  13.770   3.783  0.1192  0.1233  0.2821
35273SOL    HW123811   6.949  13.817   3.739 -2.7122 -1.5325  2.6363
35273SOL    HW223812   7.063  13.836   3.837 -1.9866  0.6698  1.4357
35274SOL     OW23813   6.712  11.645   7.651  0.4060 -0.2263  0.2797
35274SOL    HW123814   6.759  11.562   7.647 -0.5055 -0.8856  2.1336
35274SOL    HW223815   6.672  11.655   7.564  1.4532 -1.1384 -0.3282
35275SOL     OW23816  11.929   6.131   3.541 -0.3298 -0.0497  0.3107
35275SOL    HW123817  11.934   6.207   3.483 -0.0516 -1.0143 -0.9863
35275SOL    HW223818  11.872   6.159   3.613 -0.4886  1.2719 -0.3021
35276SOL     OW23819   5.429   6.914  12.042 -0.0019  0.2905 -0.4226
35276SOL    HW123820   5.431   7.004  12.009  0.2165  0.8172  0.9605
35276SOL    HW223821   5.377   6.919  12.123 -0.2167 -0.8786 -0.4670
35277SOL     OW23822  14.016   1.001  13.800  0.0272 -0.1061  0.3054
35277SOL    HW123823  14.009   0.965  13.712  0.6597 -0.7744  0.5219
35277SOL    HW223824  14.110   1.009  13.816 -0.0827  0.2843  0.8116
35278SOL     OW23825   9.109   4.490   3.217 -0.4520 -0.0648 -0.6096
35278SOL    HW123826   9.155   4.517   3.137  1.0896 -0.0044  0.2555
35278SOL    HW223827   9.045   4.559   3.232  0.1459  0.6139 -1.0833
35279SOL     OW23828  12.760   1.732   7.307 -0.4223  0.0086 -0.2838
35279SOL    HW123829  12.812   1.658   7.338 -1.9063 -1.8966 -2.0168
35279SOL    HW223830  12.825   1.796   7.276  0.9073 -0.3910  1.5358
35280SOL     OW23831   7.618   1.461   0.248  0.4551 -0.0514 -0.2579
35280SOL    HW123832   7.698   1.410   0.257  0.1148 -0.6662 -0.6519
35280SOL    HW223833   7.633   1.516   0.171  0.0646 -1.0064 -1.0371
35281SOL     OW23834  10.416   4.039   3.822 -1.0076 -0.3021  0.0669
35281SOL    HW123835  10.352   3.970   3.840 -2.3767  1.1597  1.0866
35281SOL    HW223836  10.364   4.119   3.815  0.7124  1.0029  1.2243
35282SOL     OW23837   4.435   9.172   3.298 -0.2447 -0.5815  0.0222
35282SOL    HW123838   4.506   9.218   3.252  0.2339  0.1080  1.3940
35282SOL    HW223839   4.360   9.179   3.239 -0.1466  1.8223  0.0519
35283SOL     OW23840   9.106   7.661   5.564  0.3170  0.3800 -0.3690
35283SOL    HW123841   9.194   7.693   5.582  0.4105  0.6117 -1.1842
35283SOL    HW223842   9.109   7.631   5.473 -0.7658  1.5720 -0.8381
35284SOL     OW23843   2.904   2.889   6.995  0.0797 -0.0411 -0.4772
35284SOL    HW123844   2.992   2.894   6.958  0.6728 -1.3732  0.6523
35284SOL    HW223845   2.916   2.914   7.087 -0.7797  0.0471 -0.3864
35285SOL     OW23846  10.002   6.260   4.920  0.1315 -0.1884  0.4288
35285SOL    HW123847  10.024   6.175   4.960  1.1962 -0.2126 -0.1815
35285SOL    HW223848   9.998   6.320   4.994  1.8667 -0.2782  0.6360
35286SOL     OW23849   0.064   9.205   7.585 -0.2664 -0.3836 -0.9562
35286SOL    HW123850   0.070   9.273   7.652 -0.6265  0.9039 -2.1810
35286SOL    HW223851   0.090   9.125   7.630 -0.8227  0.3731  0.8082
35287SOL     OW23852   4.838   7.483   4.718 -0.5745 -0.0086 -0.3688
35287SOL    HW123853   4.927   7.510   4.696 -0.3683 -0.6896 -0.3917
35287SOL    HW223854   4.786   7.503   4.640 -0.5592  0.9215 -0.1481
35288SOL     OW23855   4.137  13.411   5.908 -0.4115  0.0940  0.0361
35288SOL    HW123856   4.071  13.367   5.853  0.1927  1.1229 -1.5982
35288SOL    HW223857   4.199  13.447   5.845 -0.1473  2.0829  1.3764
35289SOL     OW23858   7.666  10.234   5.710 -0.3135  0.3143  0.0741
35289SOL    HW123859   7.749  10.234   5.757 -1.1154 -0.7028  1.6154
35289SOL    HW223860   7.601  10.218   5.778 -1.7687  0.9857 -1.1043
35290SOL     OW23861   0.849  12.574   0.932 -0.4041  0.1050 -0.6282
35290SOL    HW123862   0.903  12.521   0.872  0.1760 -1.1125  0.8894
35290SOL    HW223863   0.850  12.661   0.894  2.6993  0.1625 -0.7074
35291SOL     OW23864   2.298  12.064   5.557 -0.0626  0.4712 -0.6230
35291SOL    HW123865   2.240  12.072   5.633  0.4656  0.5957 -0.2259
35291SOL    HW223866   2.301  12.152   5.520  1.3506  0.9262  0.4735
35292SOL     OW23867  13.607  14.051  11.938  0.0844 -0.2875  0.5227
35292SOL    HW123868  13.654  14.111  11.996 -0.9083 -0.2901  1.3558
35292SOL    HW223869  13.676  14.001  11.894  0.8776  0.2979  1.0769
35293SOL     OW23870  10.496   1.671   4.225  0.1990  0.8337 -0.5386
35293SOL    HW123871  10.561   1.739   4.243 -0.8777  1.5299  0.9298
35293SOL    HW223872  10.420   1.718   4.192 -0.0676  0.1816 -0.8655
35294SOL     OW23873   0.202   7.487   7.144  0.2656  0.6914  0.2797
35294SOL    HW123874   0.240   7.399   7.150 -0.7555  0.2022 -0.0874
35294SOL    HW223875   0.230   7.520   7.059 -2.1409 -0.6960 -1.1582
35295SOL     OW23876   3.869   4.508   3.738  0.2953 -0.5987 -0.3223
35295SOL    HW123877   3.851   4.513   3.832  0.9237 -0.2219 -0.2152
35295SOL    HW223878   3.788   4.475   3.699 -0.4828  0.6989  0.1736
35296SOL     OW23879  13.618  14.052   0.103  0.5179  0.2348 -0.1941
35296SOL    HW123880  13.682  14.120   0.085  1.5514 -0.6684 -0.0435
35296SOL    HW223881  13.551  14.064   0.036  0.5314  1.5549 -0.0028
35297SOL     OW23882   8.742  13.051   6.994 -0.1651 -0.7291 -0.2650
35297SOL    HW123883   8.672  13.097   7.039  0.1401  1.3873 -1.8229
35297SOL    HW223884   8.714  12.959   6.993 -1.4220 -0.4373  1.7819
35298SOL     OW23885   6.040   7.806   9.007  0.0418  0.5077 -0.1390
35298SOL    HW123886   6.059   7.899   9.005 -0.8993  0.7053 -0.2595
35298SOL    HW223887   5.945   7.800   8.996  0.2691 -0.5349 -1.9548
35299SOL     OW23888   9.032  11.616  12.618  0.0856 -0.4000 -0.4585
35299SOL    HW123889   9.078  11.666  12.684 -0.7799 -0.6638  0.3711
35299SOL    HW223890   9.003  11.681  12.553  0.8035 -0.1232 -0.5063
35300SOL     OW23891   6.588   1.443   9.722  0.1071 -0.2217 -0.1651
35300SOL    HW123892   6.614   1.431   9.814 -0.3084  1.8946  0.2866
35300SOL    HW223893   6.493   1.431   9.722 -0.6989  4.3152  0.7383
35301SOL     OW23894   8.015   3.590  13.294 -0.2750 -0.8325  0.4936
35301SOL    HW123895   7.991   3.647  13.221 -0.1863 -0.4180  0.7827
35301SOL    HW223896   8.098   3.626  13.326 -0.6168 -0.6379  1.1788
35302SOL     OW23897   9.761   1.355   1.174  0.2799 -0.2106 -0.2461
35302SOL    HW123898   9.738   1.266   1.148 -1.1528 -0.4013  1.4587
35302SOL    HW223899   9.856   1.360   1.160  0.3631 -1.9273 -0.5798
35303SOL     OW23900   4.340  13.806   6.928 -0.2292  0.1478 -0.4410
35303SOL    HW123901   4.344  13.731   6.868 -1.0212 -0.3403  0.0934
35303SOL    HW223902   4.354  13.882   6.872 -0.5406 -0.3299 -1.1839
35304SOL     OW23903  10.694   2.091   4.423 -0.1504 -0.7757 -0.0073
35304SOL    HW123904  10.639   2.083   4.501 -2.0392 -0.3483 -1.2212
35304SOL    HW223905  10.757   2.160   4.444 -1.7560  0.5754  0.5676
35305SOL     OW23906   8.122   2.967  12.449  0.0223  0.3712  0.2945
35305SOL    HW123907   8.207   2.954  12.491 -1.0715 -0.4297  2.4166
35305SOL    HW223908   8.079   2.881  12.454 -0.8209  0.6965 -0.9645
35306SOL     OW23909   5.940   6.407   3.463  0.0885  0.1950  0.1881
35306SOL    HW123910   6.002   6.434   3.396  0.2154  0.1924  0.3033
35306SOL    HW223911   5.967   6.454   3.542  0.5512 -0.5552  0.4910
35307SOL     OW23912   4.702   2.282   4.719 -0.1336  0.3544  0.3852
35307SOL    HW123913   4.627   2.260   4.663 -0.0990 -0.2123  0.5590
35307SOL    HW223914   4.756   2.203   4.719 -0.8077 -0.1562  2.3353
35308SOL     OW23915   9.555   2.630  13.884  0.3907  0.3831  0.1869
35308SOL    HW123916   9.492   2.597  13.821  0.3362  1.4915 -0.3585
35308SOL    HW223917   9.638   2.636  13.835  1.1196 -1.6826  1.0659
35309SOL     OW23918   7.613  13.710  11.656  0.4076  0.4486  0.4174
35309SOL    HW123919   7.557  13.706  11.734  0.1933  2.0118  0.3746
35309SOL    HW223920   7.559  13.753  11.590  0.3487 -1.4368 -0.8629
35310SOL     OW23921   5.838  11.122   7.594  0.3659  0.7961 -0.0696
35310SOL    HW123922   5.923  11.151   7.562  0.9095  0.6631  1.1748
35310SOL    HW223923   5.857  11.044   7.646 -0.8248 -0.6545 -1.6958
35311SOL     OW23924   4.826   8.868  10.535  0.1508  0.0426  0.2197
35311SOL    HW123925   4.901   8.920  10.506  1.3956 -1.4487  0.6081
35311SOL    HW223926   4.835   8.866  10.631 -0.1887 -0.4082  0.2439
35312SOL     OW23927   9.951   4.312   1.111  0.0045  0.1354  0.3422
35312SOL    HW123928   9.978   4.343   1.025  1.5335 -0.2694  0.6472
35312SOL    HW223929   9.949   4.391   1.166  0.4701  0.1944  0.2799
35313SOL     OW23930   9.756  10.248   8.767  0.1324 -0.0006 -0.1531
35313SOL    HW123931   9.724  10.252   8.677 -0.5484  1.1866  0.1256
35313SOL    HW223932   9.841  10.291   8.764  0.6674 -1.0349 -0.4361
35314SOL     OW23933  13.303   6.062   6.332  0.5178 -0.0878 -0.2960
35314SOL    HW123934  13.321   6.153   6.309 -0.0352 -0.0187 -0.4748
35314SOL    HW223935  13.282   6.064   6.425  2.4951 -0.3303  0.1807
35315SOL     OW23936   1.698   4.176   1.607  0.3968  0.2635 -0.0018
35315SOL    HW123937   1.725   4.163   1.516  0.9822  1.0228  0.0487
35315SOL    HW223938   1.766   4.233   1.644 -0.9366  1.7246  0.3109
35316SOL     OW23939  12.356   4.233   3.579  0.3456 -0.0104  0.5744
35316SOL    HW123940  12.292   4.163   3.590  1.2015 -1.0602 -0.7877
35316SOL    HW223941  12.431   4.205   3.632  0.9592 -0.5116 -0.5252
35317SOL     OW23942  13.535  11.811   0.045 -0.2801  0.0232  0.1218
35317SOL    HW123943  13.630  11.823   0.041 -0.2046 -0.1473  1.2458
35317SOL    HW223944  13.508  11.857   0.124 -0.8255 -1.7875  1.0412
35318SOL     OW23945   2.737   1.899   0.419 -0.2860  0.5887 -0.3232
35318SOL    HW123946   2.716   1.992   0.432  0.9575  0.5488  2.4984
35318SOL    HW223947   2.831   1.897   0.406  0.4392 -0.5010  3.9105
35319SOL     OW23948  13.748   7.365   7.354  0.7338  0.9846 -0.2353
35319SOL    HW123949  13.689   7.307   7.305  0.5572  1.8744 -1.1187
35319SOL    HW223950  13.835   7.340   7.324  0.8039 -0.1297  0.8473
35320SOL     OW23951   7.436   0.532   0.143  0.1050 -0.4339 -0.2571
35320SOL    HW123952   7.520   0.566   0.174  0.2339 -1.2087  0.2580
35320SOL    HW223953   7.458   0.479   0.066  0.3233 -2.0146  0.8405
35321SOL     OW23954   9.078   7.979   5.473 -0.3042  0.0066 -0.0361
35321SOL    HW123955   9.108   8.069   5.490 -0.3428  0.2363 -1.0899
35321SOL    HW223956   9.088   7.969   5.378  0.1339 -1.2688  0.1380
35322SOL     OW23957   6.603  12.713   6.358 -0.6476 -0.4420  0.4358
35322SOL    HW123958   6.633  12.643   6.417 -2.4058 -0.5723  1.2488
35322SOL    HW223959   6.537  12.672   6.303  0.5289 -0.1579 -1.2712
35323SOL     OW23960   3.555   4.256   5.452  0.1905  0.6381  0.1680
35323SOL    HW123961   3.597   4.258   5.366  1.2209  1.7811  0.6557
35323SOL    HW223962   3.620   4.216   5.509 -1.0895 -1.5821  0.1574
35324SOL     OW23963   6.839   9.778   0.602 -0.1284 -0.8236  0.0762
35324SOL    HW123964   6.833   9.694   0.558  0.8106 -1.7922  1.6917
35324SOL    HW223965   6.906   9.826   0.552  0.5686 -1.7037  0.1341
35325SOL     OW23966   7.472   5.657   7.960  0.4052 -0.2270 -0.1898
35325SOL    HW123967   7.422   5.682   7.882 -0.5703  1.0909  0.8055
35325SOL    HW223968   7.502   5.739   7.997  1.4645 -0.8783  0.4584
35326SOL     OW23969   1.377   4.679   8.849  0.4765  0.3114 -0.3530
35326SOL    HW123970   1.429   4.602   8.830 -1.0226 -1.0481  0.7821
35326SOL    HW223971   1.309   4.681   8.782  1.3987  1.5676 -1.2981
35327SOL     OW23972   8.625   2.783   2.893  0.5060 -0.2343  0.1918
35327SOL    HW123973   8.686   2.854   2.911  0.6534 -0.0226 -1.1168
35327SOL    HW223974   8.679   2.709   2.868  0.2408  0.0539 -1.3136
35328SOL     OW23975  12.659  12.584   8.563 -0.2679 -0.6740  0.4296
35328SOL    HW123976  12.731  12.612   8.507 -1.2538 -0.0625 -0.5763
35328SOL    HW223977  12.635  12.498   8.530  0.5632 -1.2796  1.3469
35329SOL     OW23978   8.854   9.767   5.127  0.1987 -0.0584  0.1723
35329SOL    HW123979   8.824   9.849   5.087 -0.8798  0.2948  1.6264
35329SOL    HW223980   8.823   9.699   5.067  1.6368  0.5786 -1.3749
35330SOL     OW23981   0.657   1.326  11.197 -0.0316  0.4209  0.0549
35330SOL    HW123982   0.659   1.329  11.292  1.4340 -1.1173  0.1026
35330SOL    HW223983   0.745   1.352  11.170 -0.3315  0.5141 -0.8662
35331SOL     OW23984  10.959  13.605   6.368 -0.2912 -0.1418 -0.2002
35331SOL    HW123985  11.043  13.610   6.322 -0.4280  0.3105 -0.4048
35331SOL    HW223986  10.897  13.648   6.309 -0.3996  0.7880  0.5655
35332SOL     OW23987  12.170   4.177  10.470 -0.1991 -0.1531  0.0058
35332SOL    HW123988  12.111   4.204  10.540 -0.2288  0.3798 -0.2196
35332SOL    HW223989  12.112   4.159  10.396 -0.0913  0.2823 -0.1882
35333SOL     OW23990   1.696   5.394   1.790 -0.7336  0.6633  0.4172
35333SOL    HW123991   1.658   5.333   1.853 -0.0889 -0.9154 -0.6486
35333SOL    HW223992   1.724   5.469   1.843 -1.9101  0.2331  1.7161
35334SOL     OW23993  13.984  11.655   1.280  0.1802 -0.4717 -0.2930
35334SOL    HW123994  13.935  11.666   1.362  1.0043 -1.1560  0.3065
35334SOL    HW223995  14.041  11.731   1.276  1.0704 -1.0761  0.4471
35335SOL     OW23996   0.701  12.257   4.000 -0.3713  0.2053  0.4359
35335SOL    HW123997   0.721  12.347   3.974  1.6451  0.0376  1.1932
35335SOL    HW223998   0.640  12.266   4.074  0.1767  0.9797  0.8052
35336SOL     OW23999   1.972   9.875   2.413 -0.3539 -0.2381  0.2447
35336SOL    HW124000   1.922   9.862   2.494 -0.7854  0.5043  0.1109
35336SOL    HW224001   1.932   9.814   2.350  0.0140 -0.8496  0.6036
35337SOL     OW24002   1.260  11.783   6.503 -0.2333 -0.4788 -0.2756
35337SOL    HW124003   1.286  11.874   6.520  0.7030 -1.1493  2.3149
35337SOL    HW224004   1.173  11.790   6.464 -0.5541  1.5169  0.6762
35338SOL     OW24005   9.135   3.966  11.933  0.2491 -0.4453 -0.3243
35338SOL    HW124006   9.073   3.951  12.005  1.5168 -1.0662  0.6876
35338SOL    HW224007   9.221   3.960  11.975  1.0009  0.6650 -1.6386
35339SOL     OW24008   4.676   9.538   2.866  0.0680 -0.1623 -0.0826
35339SOL    HW124009   4.692   9.574   2.779  0.4477 -2.6473 -1.1263
35339SOL    HW224010   4.761   9.502   2.893 -0.4951 -1.1474  0.4280
35340SOL     OW24011  12.523  14.008   3.383  0.3692  0.1365 -0.0137
35340SOL    HW124012  12.489  14.072   3.445  0.4692 -1.6603  2.0065
35340SOL    HW224013  12.563  14.060   3.314  1.3817  2.2720  2.0483
35341SOL     OW24014   9.501  13.654   2.747 -0.4635 -0.5958 -0.5643
35341SOL    HW124015   9.524  13.746   2.761 -1.5000 -0.5190  0.8152
35341SOL    HW224016   9.417  13.643   2.791  0.1547 -2.4694  0.2713
35342SOL     OW24017   5.675   8.455   8.916 -0.0376 -0.1337  0.2380
35342SOL    HW124018   5.734   8.382   8.932  1.0492  0.7055  0.1867
35342SOL    HW224019   5.715   8.529   8.962 -0.5363  0.6734 -0.5882
35343SOL     OW24020   8.978   7.397  12.640  0.1616 -0.5198 -0.3048
35343SOL    HW124021   8.916   7.324  12.640  1.1094 -1.3611 -1.4106
35343SOL    HW224022   9.064   7.356  12.634  1.1560  0.4652  3.9987
35344SOL     OW24023  10.809   6.300  10.780 -0.1495  0.1078 -0.2459
35344SOL    HW124024  10.805   6.348  10.863  0.2658 -1.5014  0.7512
35344SOL    HW224025  10.786   6.365  10.714 -0.0270  1.5608  1.0734
35345SOL     OW24026   2.318   8.772   2.103 -0.3689 -0.0714 -0.7798
35345SOL    HW124027   2.392   8.726   2.063  0.1628  1.6728 -1.9164
35345SOL    HW224028   2.291   8.836   2.038 -0.1597  2.1940  1.2238
35346SOL     OW24029   9.539  12.423   5.093 -0.4537 -0.5568 -0.1701
35346SOL    HW124030   9.462  12.439   5.039  0.4997 -0.9835 -1.7203
35346SOL    HW224031   9.577  12.509   5.107  0.3720 -0.5936 -1.9047
35347SOL     OW24032   5.300  14.075   3.573  0.0960  0.2272  0.0337
35347SOL    HW124033   5.388  14.058   3.539 -0.0238  0.1199 -0.2259
35347SOL    HW224034   5.281  13.998   3.627 -0.8276 -0.9696 -1.9078
35348SOL     OW24035   5.943  12.374  11.478  0.0741 -0.2810 -0.3604
35348SOL    HW124036   5.943  12.279  11.469  0.3057 -0.2728 -0.4638
35348SOL    HW224037   6.035  12.396  11.491 -0.0306 -0.1130  0.1156
35349SOL     OW24038   8.042  12.437  12.840  0.2870 -0.1027 -0.1849
35349SOL    HW124039   8.082  12.459  12.924  2.1820  0.1142 -1.0721
35349SOL    HW224040   8.040  12.342  12.838  1.4149 -0.1328 -0.3855
35350SOL     OW24041   8.760   9.262   5.221  0.2791  0.2164 -0.6147
35350SOL    HW124042   8.797   9.316   5.291  1.0177  0.2339 -1.0127
35350SOL    HW224043   8.673   9.239   5.253  1.0419 -0.7905  0.8541
35351SOL     OW24044  13.095  10.904  11.265  0.0005  0.4956  0.0823
35351SOL    HW124045  13.130  10.850  11.195 -0.4554  0.3438 -0.0308
35351SOL    HW224046  13.015  10.860  11.293 -0.0435  0.7757  0.4155
35352SOL     OW24047   9.092  12.038   3.365  0.0226 -0.3163 -0.1009
35352SOL    HW124048   9.066  11.962   3.417  1.3677 -0.2130  0.8141
35352SOL    HW224049   9.188  12.036   3.368  0.0928  0.6636 -1.1851
35353SOL     OW24050  11.023  13.698  10.072  0.0485  0.0513  0.0325
35353SOL    HW124051  11.044  13.607  10.095  0.4174  0.1967  0.2812
35353SOL    HW224052  11.024  13.699   9.976  0.6788 -0.0622  0.0370
35354SOL     OW24053   0.914   3.065   1.273  0.7717 -0.0156  0.5862
35354SOL    HW124054   1.007   3.047   1.290  0.3739 -1.4266  1.3805
35354SOL    HW224055   0.900   3.037   1.183  0.7389 -1.4360  1.0169
35355SOL     OW24056   0.770   2.511   4.844 -0.2455  0.1880 -0.4572
35355SOL    HW124057   0.741   2.598   4.818  0.4522  0.2195 -1.2075
35355SOL    HW224058   0.826   2.482   4.771  1.6438  0.1851  0.9166
35356SOL     OW24059   4.368   0.281   9.821  0.7358 -0.2860  0.5898
35356SOL    HW124060   4.291   0.228   9.840  1.7826 -2.1417 -0.1082
35356SOL    HW224061   4.362   0.300   9.728  1.1590 -0.5114  0.5157
35357SOL     OW24062   6.035   6.741   4.092  0.2688 -0.1565 -0.2896
35357SOL    HW124063   5.966   6.680   4.065 -0.7825  0.4094  1.0111
35357SOL    HW224064   6.096   6.687   4.141 -0.5041 -0.2525  0.5999
35358SOL     OW24065  10.019   1.232   8.162  0.2580 -0.5661 -0.3355
35358SOL    HW124066  10.073   1.208   8.237 -0.6687 -0.6212  0.3362
35358SOL    HW224067  10.027   1.327   8.156 -1.6381 -0.2122  1.4575
35359SOL     OW24068   3.618   4.272   5.969 -0.0984  0.7717  0.1034
35359SOL    HW124069   3.563   4.231   5.902 -0.2058  0.3654  0.4332
35359SOL    HW224070   3.556   4.295   6.039  0.2420 -0.3338  0.7870
35360SOL     OW24071   6.011  11.555  11.637  0.1347  0.0871  0.0332
35360SOL    HW124072   6.026  11.628  11.697 -1.5457  0.4985 -0.0058
35360SOL    HW224073   6.008  11.595  11.551  0.6270 -0.2399 -0.1421
35361SOL     OW24074   2.139   3.484  13.538  0.1737  0.6279  0.0598
35361SOL    HW124075   2.068   3.423  13.521 -0.0980  0.2468  2.3272
35361SOL    HW224076   2.097   3.570  13.536 -0.2095  0.4579  0.6201
35362SOL     OW24077   8.592   9.163   6.033  0.0753 -0.1645  0.3621
35362SOL    HW124078   8.571   9.161   5.940 -1.2961  0.3432  0.6375
35362SOL    HW224079   8.637   9.247   6.046 -0.1730 -0.0090  0.2329
35363SOL     OW24080   9.480   6.002  11.493  0.0879  0.6049 -0.7381
35363SOL    HW124081   9.517   6.089  11.475  1.0825  0.2040 -0.6720
35363SOL    HW224082   9.524   5.974  11.573 -0.1999  0.0181 -0.7854
35364SOL     OW24083   6.632   2.765  10.761 -0.3738  0.3321  0.2052
35364SOL    HW124084   6.680   2.686  10.787  1.9292  0.9144 -1.9078
35364SOL    HW224085   6.594   2.743  10.676 -1.4724  0.8636  0.5371
35365SOL     OW24086  13.626   4.873   2.295 -0.0974  0.3567  0.0471
35365SOL    HW124087  13.648   4.780   2.293 -2.1972 -0.1952 -1.3398
35365SOL    HW224088  13.582   4.886   2.379  0.3048  0.1102  0.2932
35366SOL     OW24089   8.641   0.926   9.246 -0.0625  0.2045 -0.1900
35366SOL    HW124090   8.624   0.917   9.153 -1.0548 -1.1892  0.0946
35366SOL    HW224091   8.572   0.875   9.288 -0.6118  2.0972  1.3789
35367SOL     OW24092   9.644   3.124   7.460  0.0981  0.1733 -0.1128
35367SOL    HW124093   9.625   3.201   7.513 -0.1187 -1.1940  1.9160
35367SOL    HW224094   9.735   3.103   7.480 -0.5501 -1.5257  1.4376
35368SOL     OW24095   8.202   2.805  11.208 -0.2294 -0.0399 -0.2886
35368SOL    HW124096   8.163   2.798  11.121  0.2060  0.2524 -0.5116
35368SOL    HW224097   8.276   2.865  11.197 -0.5980  0.5705  0.4240
35369SOL     OW24098   7.374  10.995   2.547 -0.2730  0.1058 -0.3193
35369SOL    HW124099   7.459  11.032   2.571 -0.5402  1.0201 -0.7327
35369SOL    HW224100   7.392  10.902   2.531  0.0955 -0.3613  2.4132
35370SOL     OW24101  10.640   6.541   9.052  0.9522 -0.4670 -0.4839
35370SOL    HW124102  10.578   6.586   8.995  0.7632 -0.3757 -0.2123
35370SOL    HW224103  10.704   6.502   8.993  0.4976 -0.7723 -0.7854
35371SOL     OW24104   4.458   1.963  10.246  0.6448 -0.1429 -0.1104
35371SOL    HW124105   4.546   1.925  10.236  0.2102 -1.4447  0.6949
35371SOL    HW224106   4.421   1.917  10.321  0.5048  2.7764  1.7742
35372SOL     OW24107   4.530  11.435   4.285 -0.0655 -0.2035 -0.6396
35372SOL    HW124108   4.509  11.435   4.378  0.4010  1.2683 -0.5071
35372SOL    HW224109   4.501  11.350   4.254  0.2112 -0.9193  0.9478
35373SOL     OW24110  11.053  13.819   3.351 -0.1291  0.4325 -0.0549
35373SOL    HW124111  11.119  13.886   3.366 -0.1840  0.3323  0.6432
35373SOL    HW224112  11.080  13.746   3.407 -1.8541  1.0811  1.7388
35374SOL     OW24113   6.208  10.982   6.202 -0.1488 -1.0344  0.3375
35374SOL    HW124114   6.187  11.061   6.252  0.4056 -1.6839  1.6558
35374SOL    HW224115   6.133  10.924   6.215  0.3411 -1.5133  1.1058
35375SOL     OW24116   0.949  11.881   5.347  0.0939  0.2180 -0.0386
35375SOL    HW124117   0.854  11.884   5.354 -0.0365 -1.9437 -0.3380
35375SOL    HW224118   0.977  11.833   5.425  1.0942  1.9410  0.7310
35376SOL     OW24119  11.410  11.431   0.284  0.1297 -0.3112 -0.1133
35376SOL    HW124120  11.321  11.414   0.255  0.1833  0.0821 -0.5072
35376SOL    HW224121  11.420  11.526   0.279  1.2530 -0.4752 -2.1780
35377SOL     OW24122   6.581  11.007  12.848 -0.0466 -0.6192 -0.3352
35377SOL    HW124123   6.636  11.080  12.819  0.0157  0.4792  2.2701
35377SOL    HW224124   6.590  10.942  12.779  3.6006 -0.0387 -0.6265
35378SOL     OW24125  11.206  10.626   8.782  0.1651 -0.2141  0.0364
35378SOL    HW124126  11.242  10.549   8.737 -0.5697 -0.9863  0.7390
35378SOL    HW224127  11.218  10.608   8.875  1.1999  1.1439  0.2091
35379SOL     OW24128  12.403  12.344   4.548  0.3079 -0.1407 -0.2598
35379SOL    HW124129  12.492  12.343   4.514  0.3040  1.2563 -0.3737
35379SOL    HW224130  12.350  12.380   4.477 -0.1510  0.1663  0.2288
35380SOL     OW24131   0.156   0.042   5.047  0.1288 -0.4803 -0.0863
35380SOL    HW124132   0.209   0.078   4.976 -0.3823  2.7981  1.0023
35380SOL    HW224133   0.066   0.061   5.022 -0.2521 -1.8047  0.2080
35381SOL     OW24134   8.529   8.570   8.129 -0.3405  0.1803 -0.0847
35381SOL    HW124135   8.533   8.474   8.127 -2.1294 -0.0252  1.9781
35381SOL    HW224136   8.582   8.598   8.054  3.6844 -2.2466  1.5179
35382SOL     OW24137   6.063  10.960  13.922  0.1895  0.2874  0.1883
35382SOL    HW124138   5.993  10.900  13.896  0.7917 -0.0222 -0.7694
35382SOL    HW224139   6.128  10.953  13.852  0.5692  1.5757  0.3744
35383SOL     OW24140   8.355   1.241  13.764  0.0669 -0.4342  0.6632
35383SOL    HW124141   8.321   1.330  13.753 -0.0368 -0.5357  0.1153
35383SOL    HW224142   8.445   1.245  13.731  0.2885 -0.3782  1.2632
35384SOL     OW24143   8.042   5.800   0.599  0.0092 -0.8033  0.1486
35384SOL    HW124144   8.079   5.842   0.677  1.4393 -0.9341 -0.4291
35384SOL    HW224145   8.048   5.706   0.616 -3.3616 -0.9113  1.5194
35385SOL     OW24146   1.061  10.489   7.078 -0.0498  0.1026 -0.8740
35385SOL    HW124147   1.116  10.543   7.021 -0.8405  2.4018  0.4179
35385SOL    HW224148   1.006  10.439   7.018  1.0106  0.3811 -2.1261
35386SOL     OW24149   6.022   9.271   3.988  0.2681 -0.0418 -0.3806
35386SOL    HW124150   5.936   9.265   4.029  0.4191  0.6185  0.0388
35386SOL    HW224151   6.048   9.180   3.974  0.5941 -0.3447  1.8241
35387SOL     OW24152   0.278  11.373   9.517  0.1102 -0.1655 -0.4971
35387SOL    HW124153   0.187  11.379   9.488  0.2084 -0.1390 -0.7995
35387SOL    HW224154   0.296  11.278   9.519 -1.0100 -0.4228  2.9481
35388SOL     OW24155  12.318   3.699   7.114 -0.5349  0.4386 -0.3489
35388SOL    HW124156  12.390   3.742   7.160  0.8272 -1.9147 -0.1544
35388SOL    HW224157  12.358   3.627   7.066 -2.4405  0.5554 -2.2951
35389SOL     OW24158  13.019   7.678   2.045  0.0187  0.4497 -0.4248
35389SOL    HW124159  12.995   7.617   1.975  0.4263  0.3835 -0.5067
35389SOL    HW224160  12.940   7.684   2.099  0.4495 -1.3082  0.4475
35390SOL     OW24161   9.232   7.265  11.814  0.3401  0.3056  0.4457
35390SOL    HW124162   9.245   7.360  11.812  2.4941  0.0654  0.6265
35390SOL    HW224163   9.309   7.231  11.860 -0.4040 -1.5263  0.4167
35391SOL     OW24164   2.668  10.594  11.309 -0.5040 -0.5246  0.5348
35391SOL    HW124165   2.590  10.562  11.354  1.2114 -3.1479  1.9555
35391SOL    HW224166   2.733  10.606  11.379  0.6235  0.7748 -0.6689
35392SOL     OW24167   0.676   6.170   0.040  0.1572  0.1011 -0.3329
35392SOL    HW124168   0.596   6.129   0.008  0.4949 -0.2970 -0.6898
35392SOL    HW224169   0.676   6.258   0.002 -0.0947  0.0946 -0.3468
35393SOL     OW24170   8.032  12.887   8.062 -0.0940 -0.0364  0.1919
35393SOL    HW124171   8.032  12.907   7.968 -1.6043 -0.3013  0.1047
35393SOL    HW224172   8.033  12.972   8.105 -0.2780  0.1145 -0.0942
35394SOL     OW24173   7.411   7.282  12.625  0.2850  0.2419  0.1857
35394SOL    HW124174   7.391   7.210  12.685 -2.0952  0.9296  0.3399
35394SOL    HW224175   7.366   7.259  12.544  1.5370  0.4290 -0.5863
35395SOL     OW24176  10.336   5.768   1.870 -0.1494  0.0639 -0.0679
35395SOL    HW124177  10.419   5.814   1.885  0.4344 -0.7939 -0.5790
35395SOL    HW224178  10.288   5.778   1.953 -0.3040  2.0727 -0.3477
35396SOL     OW24179   3.835   3.735  12.707 -0.1946  0.1002  0.2522
35396SOL    HW124180   3.814   3.685  12.786 -1.0654 -0.6608 -0.4326
35396SOL    HW224181   3.922   3.705  12.682 -0.5903 -0.8857  0.0140
35397SOL     OW24182  12.488   4.966   0.508 -0.0547  0.1225  0.2633
35397SOL    HW124183  12.431   4.940   0.435  0.9847  1.2195 -0.9979
35397SOL    HW224184  12.429   4.978   0.582 -1.5017  1.2621 -1.0107
35398SOL     OW24185   9.167   6.840  10.945 -0.2881  0.1028  0.8079
35398SOL    HW124186   9.091   6.840  11.003 -0.1802  0.1300  0.9511
35398SOL    HW224187   9.238   6.877  10.998  0.1719 -1.1987  1.1341
35399SOL     OW24188   9.067  13.785   1.237 -0.0328 -0.7332 -0.5906
35399SOL    HW124189   9.003  13.772   1.167  1.9820 -0.2541 -2.6355
35399SOL    HW224190   9.041  13.723   1.305 -2.7093 -0.4477 -1.2533
35400SOL     OW24191   2.350  11.235   9.852 -0.3501  0.0661 -0.0438
35400SOL    HW124192   2.387  11.255   9.938 -0.8581 -2.0095  0.7365
35400SOL    HW224193   2.410  11.275   9.789  1.2207 -0.1558  1.2468
35401SOL     OW24194  12.217  12.245   7.755  0.2554  0.1540 -0.5734
35401SOL    HW124195  12.144  12.229   7.814 -0.9358 -0.3300 -2.1111
35401SOL    HW224196  12.247  12.158   7.729  0.4387  0.3613 -1.0702
35402SOL     OW24197   3.756   1.988   1.178 -0.1530 -0.3313  0.0870
35402SOL    HW124198   3.748   1.926   1.105  0.9462  2.2776 -2.4476
35402SOL    HW224199   3.670   2.031   1.182 -0.7057 -1.5073  1.4103
35403SOL     OW24200  10.376   5.388  11.911 -0.2288 -0.2771  0.2008
35403SOL    HW124201  10.416   5.437  11.839 -0.7872 -0.7149 -0.4208
35403SOL    HW224202  10.409   5.430  11.990  1.0139 -0.2754 -0.2984
35404SOL     OW24203   6.950   7.166  12.593 -0.0639  0.2129 -0.2020
35404SOL    HW124204   7.005   7.096  12.628 -1.7533  0.0332  2.3489
35404SOL    HW224205   6.891   7.122  12.532  0.5758 -0.1148 -0.5931
35405SOL     OW24206   5.829   5.666  12.885 -0.4295  0.0670  0.0119
35405SOL    HW124207   5.907   5.652  12.832 -0.9185  1.5390 -1.1490
35405SOL    HW224208   5.835   5.757  12.914  0.0662 -0.7961  2.9580
35406SOL     OW24209   0.722   1.329   9.210  0.0910 -0.8829 -0.4331
35406SOL    HW124210   0.680   1.255   9.253  0.8607 -1.1091 -0.0465
35406SOL    HW224211   0.779   1.290   9.145  1.7420 -0.7532  0.8688
35407SOL     OW24212   2.254  11.002   6.667  0.4610  0.0111 -0.1357
35407SOL    HW124213   2.323  10.937   6.679 -0.8769 -1.6765 -1.1185
35407SOL    HW224214   2.180  10.953   6.632 -1.2522  1.7635  0.8188
35408SOL     OW24215   9.167   4.620   2.971  0.1023  0.0995 -0.0027
35408SOL    HW124216   9.205   4.583   2.891  0.8631 -0.9010  0.7792
35408SOL    HW224217   9.189   4.713   2.968 -0.0078  0.1011 -1.0171
35409SOL     OW24218   1.346  11.209  11.083 -0.6868  0.4944  1.0695
35409SOL    HW124219   1.302  11.293  11.098 -0.7164  0.6040  0.3927
35409SOL    HW224220   1.439  11.229  11.091 -0.6920  0.6003  0.8732
35410SOL     OW24221   2.061  11.002  14.028 -0.0536 -0.1012 -0.0310
35410SOL    HW124222   2.095  11.091  14.039 -0.4966  0.3542 -2.0071
35410SOL    HW224223   2.009  10.987  14.107  0.7666  1.0361  0.7628
35411SOL     OW24224  12.257   1.090   8.455  1.0331  0.4288  0.9745
35411SOL    HW124225  12.177   1.038   8.466  1.1894  0.2151  1.1323
35411SOL    HW224226  12.234   1.177   8.487  0.2852  0.9178 -0.7680
35412SOL     OW24227   7.456  13.149  12.422 -0.3496 -0.6040 -0.1861
35412SOL    HW124228   7.530  13.088  12.413  0.5055  0.3950 -0.0913
35412SOL    HW224229   7.453  13.168  12.516  0.5700  0.8957 -0.4281
35413SOL     OW24230   3.770   4.575   4.356  0.3888 -0.1144  0.2247
35413SOL    HW124231   3.686   4.615   4.331 -0.2706 -1.6888 -0.2688
35413SOL    HW224232   3.748   4.515   4.428  1.5348  1.1722  1.7061
35414SOL     OW24233   5.693   5.223   5.059 -0.2961  0.6201  0.1360
35414SOL    HW124234   5.643   5.168   5.000  0.1388 -0.3808  0.6807
35414SOL    HW224235   5.767   5.254   5.006 -0.1801  0.1345  0.0130
35415SOL     OW24236   0.399   7.339   4.144 -0.7086  0.0231  0.2287
35415SOL    HW124237   0.451   7.268   4.182 -1.9260 -0.8175  0.3849
35415SOL    HW224238   0.404   7.409   4.209  1.6468  0.6611 -0.5477
35416SOL     OW24239   9.347   2.961   0.603  0.5727 -0.4649 -0.5065
35416SOL    HW124240   9.387   2.887   0.558 -0.2345 -0.6946 -0.8687
35416SOL    HW224241   9.260   2.929   0.630 -0.0345  0.5309 -1.2124
35417SOL     OW24242  10.946  12.560   2.241  0.0112  0.4207  0.0898
35417SOL    HW124243  10.966  12.556   2.334  0.5966  1.0797  0.0030
35417SOL    HW224244  10.925  12.470   2.217  1.5674 -0.0904  0.4891
35418SOL     OW24245  10.043   1.060  12.890  1.0413  0.8540  0.4107
35418SOL    HW124246   9.982   1.090  12.958  0.2667  0.3302 -0.0292
35418SOL    HW224247  10.095   0.992  12.933  0.1675  0.1188  0.3458
35419SOL     OW24248   6.478   2.180  10.673 -0.5673 -0.4502  0.7152
35419SOL    HW124249   6.492   2.090  10.700  1.6322 -0.0994  0.8898
35419SOL    HW224250   6.518   2.186  10.586  0.3339  0.6217  1.1843
35420SOL     OW24251   5.036   0.957  12.161 -0.1163 -0.2646  0.0327
35420SOL    HW124252   5.025   1.039  12.209 -0.7324 -0.6947  0.6307
35420SOL    HW224253   5.106   0.911  12.208  0.6156  0.1438 -0.6272
35421SOL     OW24254  13.134   4.730   0.682  0.4577  0.3981  0.2271
35421SOL    HW124255  13.103   4.656   0.734 -0.7508  0.2706 -0.6272
35421SOL    HW224256  13.186   4.690   0.613  0.9810  0.4651  0.5788
35422SOL     OW24257   1.218   5.430   9.459  0.1962  0.0583  0.2273
35422SOL    HW124258   1.184   5.452   9.546  0.7965  0.8464  0.2755
35422SOL    HW224259   1.187   5.500   9.402 -0.0781 -0.3824 -0.1685
35423SOL     OW24260  12.229   7.690   5.787  0.6224 -0.1971 -0.0749
35423SOL    HW124261  12.154   7.682   5.845  0.1648 -1.6645 -0.8379
35423SOL    HW224262  12.193   7.723   5.704  0.6027 -1.9345 -0.7952
35424SOL     OW24263   6.128   0.706   6.830 -0.3212  0.1166 -0.0666
35424SOL    HW124264   6.073   0.770   6.876 -1.3349 -0.1526 -0.8587
35424SOL    HW224265   6.166   0.652   6.899  1.5755  2.3226  0.7172
35425SOL     OW24266   3.709   1.118   4.669 -0.6446  0.2850 -0.0417
35425SOL    HW124267   3.792   1.122   4.620 -0.4946 -0.8764  0.1045
35425SOL    HW224268   3.647   1.165   4.614 -0.2718 -0.2654 -0.9527
35426SOL     OW24269  11.307   1.742   8.113  0.3679  0.0250  0.3118
35426SOL    HW124270  11.219   1.780   8.110  2.2005  4.8739 -1.9557
35426SOL    HW224271  11.338   1.761   8.201  0.2176  1.2583  0.1166
35427SOL     OW24272  10.455   2.539   9.817  0.4334 -0.3860  0.0999
35427SOL    HW124273  10.523   2.502   9.873  1.6113  2.9281  1.1280
35427SOL    HW224274  10.500   2.606   9.765 -1.7655  1.0520 -0.1252
35428SOL     OW24275   7.732   7.554  13.313  0.3400  0.4424 -0.3217
35428SOL    HW124276   7.685   7.545  13.230  1.3333 -1.0801 -0.7589
35428SOL    HW224277   7.732   7.648  13.330 -0.4353  0.7287 -1.7223
35429SOL     OW24278  13.202   9.510   1.413  0.0140  0.3219 -0.0769
35429SOL    HW124279  13.115   9.543   1.389 -0.4290 -1.1755 -0.6361
35429SOL    HW224280  13.187   9.419   1.439  1.2004  0.4856  1.3369
35430SOL     OW24281   7.400  11.134  11.983  0.8350 -0.2656 -0.0733
35430SOL    HW124282   7.487  11.165  11.958  1.8692 -0.4664  2.7732
35430SOL    HW224283   7.406  11.038  11.974  1.5744 -0.4340  1.6465
35431SOL     OW24284   0.027   1.180  11.837 -0.2637 -0.3977 -0.0008
35431SOL    HW124285   0.077   1.256  11.807 -1.3755  0.8683  1.1918
35431SOL    HW224286   0.033   1.117  11.765  1.8037  0.2587 -0.4758
35432SOL     OW24287   8.496  11.547   3.244 -0.9147  0.2684 -0.7741
35432SOL    HW124288   8.550  11.537   3.165  1.1761 -0.0099  0.6230
35432SOL    HW224289   8.506  11.464   3.290 -1.4875  0.7095  0.1717
35433SOL     OW24290   9.137  10.177   3.866  0.4944  0.2325  0.2444
35433SOL    HW124291   9.088  10.103   3.900 -2.8687  1.3898 -1.5466
35433SOL    HW224292   9.137  10.165   3.771  0.9188  1.8883 -0.0076
35434SOL     OW24293   8.384  13.951   6.050  0.4114  0.1106  0.3612
35434SOL    HW124294   8.363  14.043   6.063 -0.0377  0.5555 -2.6446
35434SOL    HW224295   8.335  13.905   6.119 -0.4307  2.0217  1.1010
35435SOL     OW24296   6.811   9.206  11.629  0.1253 -0.4093  0.1239
35435SOL    HW124297   6.756   9.278  11.661 -0.0575 -0.1667 -0.7234
35435SOL    HW224298   6.764   9.172  11.553  0.2805 -1.3420  0.4395
35436SOL     OW24299  11.183  12.870   2.900 -0.3490 -0.6844  0.3272
35436SOL    HW124300  11.167  12.887   2.993  2.0500 -2.2136  1.1053
35436SOL    HW224301  11.132  12.792   2.880 -1.0810 -0.1976  0.2787
35437SOL     OW24302   3.426  12.538   8.786 -0.1462 -0.6640 -0.3364
35437SOL    HW124303   3.420  12.522   8.692 -2.3125  0.8531 -0.5354
35437SOL    HW224304   3.338  12.517   8.820 -0.6970  2.5687  0.6216
35438SOL     OW24305   2.221   6.194   7.362 -0.0881  0.5160 -0.3828
35438SOL    HW124306   2.181   6.141   7.293 -0.2395 -0.2952  0.3027
35438SOL    HW224307   2.308   6.156   7.375 -0.0004  0.7616 -0.2489
35439SOL     OW24308   9.718   3.161  12.319 -0.5911 -0.2954  0.5188
35439SOL    HW124309   9.690   3.119  12.237 -0.6739 -3.0906  1.8864
35439SOL    HW224310   9.638   3.203  12.352 -0.6847  0.4068 -0.5181
35440SOL     OW24311  11.004  13.939   6.410  0.7576 -0.0330  0.3943
35440SOL    HW124312  11.031  13.883   6.482  0.4654 -0.6908  0.0070
35440SOL    HW224313  10.909  13.929   6.407  0.7671 -0.0127 -0.0700
35441SOL     OW24314   9.194   7.353   1.056  0.2923 -0.3501 -0.1063
35441SOL    HW124315   9.219   7.286   0.991  0.0029 -2.0491  1.4456
35441SOL    HW224316   9.176   7.303   1.136 -1.8761  1.4008  0.6060
35442SOL     OW24317   4.647   6.144   3.454 -0.2368  0.1799 -0.3451
35442SOL    HW124318   4.629   6.052   3.471  0.2360 -0.1137 -1.3250
35442SOL    HW224319   4.623   6.157   3.362  1.8749  0.4225 -0.9217
35443SOL     OW24320   0.433   4.828   4.905  0.6930  0.3485 -0.1523
35443SOL    HW124321   0.478   4.856   4.985  0.1625 -1.7089  0.9185
35443SOL    HW224322   0.501   4.787   4.852  0.4768 -1.2041  0.7101
35444SOL     OW24323   3.026   8.907   5.514  0.2186  0.3516  0.0347
35444SOL    HW124324   3.008   8.897   5.608  1.6074  1.1360  0.4138
35444SOL    HW224325   2.945   8.882   5.471  0.4007 -2.9970  1.2947
35445SOL     OW24326   6.942   3.123  10.669  0.5782 -0.0263  0.0374
35445SOL    HW124327   6.897   3.047  10.706 -0.8352 -0.3259 -2.1336
35445SOL    HW224328   6.879   3.195  10.678  1.5655  0.7439  1.2655
35446SOL     OW24329  10.187   6.385  12.481 -0.2650 -0.0321  0.0117
35446SOL    HW124330  10.226   6.369  12.395 -0.9339  0.4616 -0.3912
35446SOL    HW224331  10.250   6.349  12.543 -1.0920 -3.1639 -0.7632
35447SOL     OW24332   3.888   8.995   4.437  0.2430  0.3086 -0.5955
35447SOL    HW124333   3.894   9.090   4.426  1.1376  0.2510 -0.6842
35447SOL    HW224334   3.979   8.967   4.452 -0.1730 -0.3680  0.8139
35448SOL     OW24335  11.339   3.812   0.545 -0.0614 -0.1048  0.1859
35448SOL    HW124336  11.379   3.855   0.621 -0.4585  1.4072 -0.4305
35448SOL    HW224337  11.278   3.877   0.510 -2.0049 -1.8145  0.2406
35449SOL     OW24338   3.192   8.478   9.032  0.1220 -0.6716 -0.7765
35449SOL    HW124339   3.284   8.468   9.058 -0.4094 -1.0355  1.1788
35449SOL    HW224340   3.143   8.460   9.113 -1.6160  0.9212 -1.4151
35450SOL     OW24341   1.304   5.804  12.062 -0.5160 -0.5529 -0.2351
35450SOL    HW124342   1.329   5.737  12.125  0.0673  0.9294  1.1941
35450SOL    HW224343   1.375   5.805  11.997  1.7158  1.4160  2.0169
35451SOL     OW24344   0.307  13.203  11.048  0.0597 -0.4306  0.3344
35451SOL    HW124345   0.393  13.234  11.075 -0.3367 -1.6307  3.3717
35451SOL    HW224346   0.245  13.250  11.103 -1.0732 -1.0833 -0.3318
35452SOL     OW24347   3.879   2.545  12.878 -1.3516  0.3708  0.1310
35452SOL    HW124348   3.924   2.594  12.809  2.9264 -0.9078  1.6534
35452SOL    HW224349   3.843   2.468  12.833  2.3799 -1.0781 -0.7786
35453SOL     OW24350   5.500   9.787   3.975  0.5381  0.1068  0.3398
35453SOL    HW124351   5.481   9.750   3.889 -0.9650 -0.3099  0.8246
35453SOL    HW224352   5.508   9.711   4.032  0.4335  0.4207  0.7747
35454SOL     OW24353   2.003   3.265   9.298  0.0482 -0.9641 -0.2043
35454SOL    HW124354   2.006   3.193   9.235 -0.2195 -0.9260 -0.2626
35454SOL    HW224355   2.088   3.263   9.341 -0.9653 -3.2657  1.9708
35455SOL     OW24356   0.967   3.797   0.485  0.0942 -0.6074  0.2682
35455SOL    HW124357   1.042   3.853   0.463 -0.6635  0.1188 -0.5795
35455SOL    HW224358   0.952   3.813   0.578  0.0915  0.3687  0.1119
35456SOL     OW24359   4.547  13.098   5.919  0.3253  0.3456  0.1934
35456SOL    HW124360   4.483  13.162   5.951  0.7741  0.2579  1.3256
35456SOL    HW224361   4.614  13.094   5.988 -1.5002 -4.0122  2.1567
35457SOL     OW24362   4.063   1.863  10.476  0.0580 -0.7436 -0.5207
35457SOL    HW124363   4.104   1.948  10.461 -0.5717 -0.3721 -0.1937
35457SOL    HW224364   4.087   1.810  10.400  0.0341 -0.1087 -0.9749
35458SOL     OW24365   6.767   5.922   3.880 -0.0011 -0.3054  0.0656
35458SOL    HW124366   6.846   5.923   3.933 -0.1835  0.8628  0.3463
35458SOL    HW224367   6.799   5.912   3.790  0.2771 -2.8264  0.3791
35459SOL     OW24368  11.014   6.725  10.505  0.1727 -0.6217  0.2087
35459SOL    HW124369  11.039   6.644  10.551  2.5356 -0.2346 -0.2423
35459SOL    HW224370  10.919   6.723  10.503  0.0860 -2.3193  2.1294
35460SOL     OW24371   4.501   9.315   0.301  0.0636 -0.8271 -0.3267
35460SOL    HW124372   4.576   9.313   0.241 -0.7217 -0.1938 -1.3781
35460SOL    HW224373   4.518   9.388   0.359  0.9636 -1.6066  0.4297
35461SOL     OW24374   7.256  11.611  12.766  0.4085  0.6383 -0.5907
35461SOL    HW124375   7.187  11.558  12.805  0.8120  1.1252  0.8670
35461SOL    HW224376   7.336  11.585  12.813  0.6953  2.1560 -0.1732
35462SOL     OW24377   8.174   8.738  11.461  0.4842  0.0804  0.4582
35462SOL    HW124378   8.136   8.791  11.390 -1.1656  0.1839  1.3718
35462SOL    HW224379   8.268   8.746  11.448  0.2513  1.5174 -0.7012
35463SOL     OW24380   5.544   5.941  11.852  0.0122  0.4402 -0.5068
35463SOL    HW124381   5.469   5.981  11.896  0.7754  0.9585  0.3698
35463SOL    HW224382   5.573   6.007  11.788  1.0015  1.1619  0.6353
35464SOL     OW24383  11.264  12.585   2.263 -0.5304  0.3089  0.5793
35464SOL    HW124384  11.169  12.602   2.262 -0.3764  1.2192  0.6958
35464SOL    HW224385  11.299  12.647   2.326  0.0698 -0.5134  1.0627
35465SOL     OW24386   7.633   3.323   3.307 -0.1089  0.2029  0.3360
35465SOL    HW124387   7.545   3.345   3.337 -0.3052 -0.2721  0.1274
35465SOL    HW224388   7.649   3.236   3.344  1.5335  1.5401  3.0442
35466SOL     OW24389   8.752   6.708   1.437 -0.2407 -0.3946 -0.1049
35466SOL    HW124390   8.671   6.667   1.467 -1.1167  1.3408  0.0647
35466SOL    HW224391   8.729   6.800   1.425  1.3933 -0.0815 -1.2720
35467SOL     OW24392  12.108   3.507  11.372 -0.1658  0.2487  0.0971
35467SOL    HW124393  12.146   3.495  11.459  1.6540 -2.3278 -0.9288
35467SOL    HW224394  12.064   3.591  11.377 -1.4333 -0.4340  3.9535
35468SOL     OW24395   5.594  14.091   6.238  0.1524  0.0207  0.7544
35468SOL    HW124396   5.618  14.019   6.296  2.7420  0.4152  0.2829
35468SOL    HW224397   5.551  14.154   6.296 -1.5038 -1.5363  1.3080
35469SOL     OW24398   6.522   8.004  12.006 -0.4612  0.8323 -0.4788
35469SOL    HW124399   6.557   7.918  12.027 -0.9746  0.6278 -0.4506
35469SOL    HW224400   6.557   8.061  12.074 -1.5783  0.3002  0.5803
35470SOL     OW24401   3.778   2.854   4.672 -0.3735  0.0684 -0.5268
35470SOL    HW124402   3.848   2.839   4.609  1.3671 -1.3684  1.5957
35470SOL    HW224403   3.697   2.853   4.621  1.0221  0.1577 -2.8306
35471SOL     OW24404  12.728   6.993   2.257  0.4016 -0.1274  0.4776
35471SOL    HW124405  12.702   6.921   2.315 -1.6846  1.0165  1.0434
35471SOL    HW224406  12.691   6.969   2.172  0.0576  0.0603  0.5709
35472SOL     OW24407   3.045  10.521   6.837  0.2345 -0.0075 -0.5946
35472SOL    HW124408   3.000  10.493   6.917 -0.7738 -0.6836 -1.3729
35472SOL    HW224409   3.111  10.583   6.867  0.6153 -1.0711  0.8796
35473SOL     OW24410   3.812  10.470   9.980 -0.4793 -0.5738 -0.0999
35473SOL    HW124411   3.746  10.473  10.049  1.7606 -0.5538  2.1939
35473SOL    HW224412   3.792  10.545   9.924 -1.7997  0.0010  1.0908
35474SOL     OW24413   1.590  13.492   4.983 -0.3880 -0.0549  0.0707
35474SOL    HW124414   1.606  13.403   4.952 -0.2083  0.1265 -0.3533
35474SOL    HW224415   1.569  13.542   4.905  2.1373  0.8892 -0.0898
35475SOL     OW24416   6.365   3.750   6.753 -0.3598 -0.0835  0.1976
35475SOL    HW124417   6.326   3.664   6.767 -0.5553 -0.1371 -0.6230
35475SOL    HW224418   6.345   3.771   6.662  0.8705  0.2335 -0.0208
35476SOL     OW24419   0.296   1.432   6.560  0.5084 -0.0445  0.0560
35476SOL    HW124420   0.314   1.523   6.586 -0.3633 -0.0405  0.6544
35476SOL    HW224421   0.244   1.441   6.480 -0.3807  0.0038  0.6313
35477SOL     OW24422   2.849   6.297  11.647 -0.0151  0.2042  0.0618
35477SOL    HW124423   2.865   6.203  11.643 -3.0059 -0.4688  1.3387
35477SOL    HW224424   2.856   6.327  11.556 -0.3450 -1.4945 -0.5450
35478SOL     OW24425   1.134  10.357   8.596  0.1262 -0.1817  0.4669
35478SOL    HW124426   1.046  10.380   8.566 -0.3990  0.2505  2.1927
35478SOL    HW224427   1.161  10.433   8.648  2.1482  0.3195 -1.1985
35479SOL     OW24428  11.824   1.003   5.015 -0.6091  0.3361 -0.6396
35479SOL    HW124429  11.897   1.012   4.954 -0.5440  2.1770 -0.3597
35479SOL    HW224430  11.833   0.916   5.052  0.9173  0.1979 -1.2760
35480SOL     OW24431   8.958   0.471  12.893  0.1503 -0.3493  0.0617
35480SOL    HW124432   9.034   0.413  12.889 -0.2182 -1.1480  2.6435
35480SOL    HW224433   8.995   0.558  12.881  1.4400 -0.7540  0.7780
35481SOL     OW24434   1.797   1.047   3.600  0.4143 -0.1568 -0.4377
35481SOL    HW124435   1.856   1.073   3.671  0.0347  0.9163 -0.4923
35481SOL    HW224436   1.784   0.953   3.612 -0.2722  0.1410  1.4065
35482SOL     OW24437  13.593   6.916   0.307 -0.4668  0.0301 -0.4992
35482SOL    HW124438  13.551   6.868   0.379 -1.0798  0.8036 -0.3282
35482SOL    HW224439  13.664   6.859   0.279 -0.4749 -0.4677  0.4516
35483SOL     OW24440   9.630   5.117   0.446  0.5137 -0.2349 -0.1240
35483SOL    HW124441   9.685   5.057   0.396  1.0196 -1.1499  1.4584
35483SOL    HW224442   9.692   5.169   0.497 -0.0128 -0.0916  0.3739
35484SOL     OW24443   3.079  11.681   0.718 -0.4968 -0.0010 -0.5895
35484SOL    HW124444   3.167  11.645   0.733  0.1354  0.6759 -2.3938
35484SOL    HW224445   3.072  11.753   0.780  0.1789 -0.1245 -0.3570
35485SOL     OW24446   0.871  13.959   6.021  0.3327  0.5096  0.0300
35485SOL    HW124447   0.937  14.023   5.994  2.0774 -1.0563  0.2950
35485SOL    HW224448   0.883  13.951   6.116  1.9474 -1.9422 -0.2835
35486SOL     OW24449   7.013   8.851  13.765 -1.1326 -0.3760 -0.1205
35486SOL    HW124450   6.941   8.903  13.729 -0.1278  0.6977 -0.6327
35486SOL    HW224451   7.041   8.900  13.842  0.5876  0.5294 -1.2608
35487SOL     OW24452   9.954   7.517  10.224  0.6207 -0.6080 -0.3789
35487SOL    HW124453  10.020   7.519  10.154  0.5618 -1.8191 -0.4864
35487SOL    HW224454   9.870   7.520  10.177  0.5877 -0.3851 -0.3067
35488SOL     OW24455   5.175   9.851   2.343 -0.3626  0.4287 -0.7624
35488SOL    HW124456   5.094   9.803   2.324 -0.2313 -0.5615  0.9641
35488SOL    HW224457   5.243   9.798   2.302 -0.3128 -0.4136  0.3606
35489SOL     OW24458   1.271   9.319   2.546 -0.5092  0.4069  0.0956
35489SOL    HW124459   1.362   9.310   2.518  0.1560  2.3072  1.3827
35489SOL    HW224460   1.273   9.297   2.639 -1.2016  1.1652  0.2994
35490SOL     OW24461  13.610  12.036   2.161 -0.1970  0.2777  0.0956
35490SOL    HW124462  13.684  12.069   2.111  0.2796 -0.8798 -0.0028
35490SOL    HW224463  13.553  11.995   2.095 -0.2820  0.0249  0.3211
35491SOL     OW24464   6.927   6.060  10.374  0.2918  0.1017  0.5157
35491SOL    HW124465   7.000   6.021  10.423  1.0406  2.2796  1.2401
35491SOL    HW224466   6.872   6.100  10.441 -1.4593 -1.2472 -0.0577
35492SOL     OW24467   9.644  10.396   6.955  0.2299 -0.2799  0.8200
35492SOL    HW124468   9.616  10.332   7.020  0.7489  0.7598  2.1115
35492SOL    HW224469   9.695  10.460   7.005 -0.5870  1.3484 -0.3524
35493SOL     OW24470  12.600   3.209   4.491  0.5165 -0.2092 -0.5375
35493SOL    HW124471  12.630   3.282   4.545  0.2340 -0.6364  0.2141
35493SOL    HW224472  12.536   3.163   4.546 -1.7227  0.7838 -2.1155
35494SOL     OW24473  10.328   2.440   3.747  0.0861  0.5918 -0.0538
35494SOL    HW124474  10.272   2.363   3.744 -0.3883  0.8498  1.4347
35494SOL    HW224475  10.343   2.463   3.655  1.3762 -2.0354 -0.5778
35495SOL     OW24476   3.001   8.558   9.550  0.2806  0.2324 -0.4883
35495SOL    HW124477   3.021   8.556   9.644  0.3400 -0.6094 -0.5087
35495SOL    HW224478   2.976   8.468   9.529  1.0260  0.2257 -1.4399
35496SOL     OW24479   1.421  10.391   9.549 -0.4297 -0.6333 -0.4363
35496SOL    HW124480   1.473  10.467   9.523 -2.2449 -0.0928 -2.7895
35496SOL    HW224481   1.485  10.320   9.559  1.1058  0.7790  0.1882
35497SOL     OW24482  13.895  12.700   2.125 -0.6209  0.3275 -0.8268
35497SOL    HW124483  13.881  12.629   2.064 -0.4456  0.6772 -1.2805
35497SOL    HW224484  13.985  12.688   2.156 -0.7819  0.0226 -0.4591
35498SOL     OW24485   1.260   9.206   8.173  0.6005 -0.4468  0.0434
35498SOL    HW124486   1.325   9.252   8.121  1.6016 -2.1987 -0.3421
35498SOL    HW224487   1.287   9.220   8.264  0.3338  0.4884 -0.0119
35499SOL     OW24488   5.725  14.013   0.964  0.0062  0.3202 -0.3229
35499SOL    HW124489   5.655  14.075   0.985 -0.7742 -0.8745  0.7325
35499SOL    HW224490   5.685  13.954   0.900  0.2966  0.0930 -0.2964
35500SOL     OW24491   6.272   4.088   1.502 -0.3363  0.7209  0.4253
35500SOL    HW124492   6.244   4.148   1.432 -0.7534  0.7273  0.5948
35500SOL    HW224493   6.274   4.002   1.460  0.4446  0.8711  0.1316
35501SOL     OW24494   3.138  14.061  11.414  0.2176 -0.3327 -0.1337
35501SOL    HW124495   3.060  14.036  11.464  0.4379  1.4845  1.2189
35501SOL    HW224496   3.202  14.086  11.480  0.8734  1.1741 -1.2731
35502SOL     OW24497  11.306  12.142   5.097 -1.0462  0.3614  0.1017
35502SOL    HW124498  11.224  12.093   5.099 -1.3265  0.7742  3.1818
35502SOL    HW224499  11.372  12.080   5.127 -0.7415  0.8291  0.4001
35503SOL     OW24500   8.333   8.950   1.801 -0.7934  0.1725 -0.8593
35503SOL    HW124501   8.242   8.976   1.812 -1.5851 -1.6260 -2.4208
35503SOL    HW224502   8.354   8.897   1.878 -0.3147  2.3277  0.5603
35504SOL     OW24503   0.869   9.637   1.250  0.3732 -0.5197 -0.1464
35504SOL    HW124504   0.854   9.707   1.187  2.5234 -0.1256 -0.2974
35504SOL    HW224505   0.872   9.557   1.197 -0.0354 -0.4702 -0.2460
35505SOL     OW24506  10.740   7.937   8.962 -0.2304 -0.0967 -0.1879
35505SOL    HW124507  10.765   7.848   8.986 -0.2606  0.2477  1.1791
35505SOL    HW224508  10.644   7.935   8.957 -0.1825 -0.3750 -1.1749
35506SOL     OW24509  13.679   0.908   1.361  0.1289 -0.4511 -0.2150
35506SOL    HW124510  13.753   0.847   1.365 -0.5497 -1.2594  2.9035
35506SOL    HW224511  13.697   0.972   1.430 -0.2641  1.6465 -1.9596
35507SOL     OW24512   3.753  10.698   1.786 -0.3082  0.1627  0.0807
35507SOL    HW124513   3.672  10.671   1.828 -0.4226  0.1752 -0.1308
35507SOL    HW224514   3.793  10.616   1.755 -1.2595  0.3173 -1.6597
35508SOL     OW24515   7.788   1.863   4.015  0.2308  0.1018 -0.3978
35508SOL    HW124516   7.870   1.817   4.028 -0.1693 -0.4627  0.1684
35508SOL    HW224517   7.766   1.900   4.101 -0.5926 -0.5767 -0.3037
35509SOL     OW24518  13.811  11.838   0.038 -0.9528  0.3805 -0.3242
35509SOL    HW124519  13.835  11.746   0.033  1.2169  0.8475  0.3572
35509SOL    HW224520  13.877  11.883  -0.015 -1.1812  1.6574  0.4180
35510SOL     OW24521  13.542   5.515   9.479  0.4479 -0.0514 -0.0984
35510SOL    HW124522  13.577   5.430   9.452  2.1809  0.2619  0.9746
35510SOL    HW224523  13.451   5.498   9.501  0.4112 -1.3441 -1.1636
35511SOL     OW24524   7.258   5.070   0.913 -0.5631  0.5577  0.0792
35511SOL    HW124525   7.310   5.124   0.854 -0.6062  1.9066  1.2171
35511SOL    HW224526   7.293   4.981   0.902  0.0508  0.9383 -1.2436
35512SOL     OW24527   4.265   4.971  10.291  0.1760  0.2324  0.2206
35512SOL    HW124528   4.291   5.063  10.296 -0.4753  0.3863  0.9212
35512SOL    HW224529   4.220   4.954  10.374 -1.0491 -0.2949 -0.5202
35513SOL     OW24530   4.995   9.003  12.145  0.7022  0.0283 -0.2511
35513SOL    HW124531   4.904   8.973  12.141  0.3889  0.9602 -0.3459
35513SOL    HW224532   5.033   8.974  12.062  0.2397  0.4137 -0.6036
35514SOL     OW24533   7.877  11.126  10.162 -0.2599 -0.0921 -0.8028
35514SOL    HW124534   7.823  11.126  10.242 -0.0637 -0.6591 -0.6598
35514SOL    HW224535   7.820  11.164  10.095 -0.1260  1.2109 -0.2116
35515SOL     OW24536   3.142   9.897  10.305  0.2035 -0.0283 -0.5684
35515SOL    HW124537   3.107   9.973  10.259  0.8105  0.5510 -0.0678
35515SOL    HW224538   3.234   9.916  10.318 -0.2611  0.5637  2.3510
35516SOL     OW24539   0.887   2.815   4.491 -0.2432 -0.1640  0.0133
35516SOL    HW124540   0.963   2.768   4.523 -0.2955 -0.0659  0.2853
35516SOL    HW224541   0.817   2.794   4.554 -0.8315 -1.4021 -1.0088
35517SOL     OW24542   5.143   8.560   3.582 -0.2626  0.3352  0.1230
35517SOL    HW124543   5.059   8.533   3.619  0.0792  2.1790  2.4697
35517SOL    HW224544   5.208   8.526   3.644  0.4702  1.8278  0.2114
35518SOL     OW24545   8.851   5.282  12.871 -0.2501 -0.3339  0.7932
35518SOL    HW124546   8.874   5.352  12.809 -0.6000 -0.1669  0.8479
35518SOL    HW224547   8.928   5.226  12.873  0.1677  0.2330  1.0075
35519SOL     OW24548   6.982   0.735   7.225 -0.2242  0.1517  0.6280
35519SOL    HW124549   6.955   0.643   7.226 -0.5002  0.2153 -0.2697
35519SOL    HW224550   6.972   0.762   7.134 -0.5963  1.2067  0.9714
35520SOL     OW24551  11.183   7.628  13.612  0.2089  0.6220  0.7797
35520SOL    HW124552  11.225   7.660  13.691  1.5261  0.1567  0.2914
35520SOL    HW224553  11.137   7.549  13.639 -1.2704  1.6936  1.5344
35521SOL     OW24554  11.912   3.865   4.509  0.6424 -0.1707  0.0547
35521SOL    HW124555  11.987   3.834   4.560  1.2038  0.4535 -0.3822
35521SOL    HW224556  11.920   3.820   4.425 -2.1581 -3.9234  1.4952
35522SOL     OW24557  11.763  10.774   8.248 -0.3045 -0.0168  0.1333
35522SOL    HW124558  11.717  10.761   8.330  1.0038  1.3996  1.1494
35522SOL    HW224559  11.840  10.717   8.254 -0.5103 -0.3705 -0.4025
35523SOL     OW24560   6.938   9.626   9.969 -0.1020 -0.0685 -0.2395
35523SOL    HW124561   6.865   9.688   9.976  1.3697  1.5548  1.9039
35523SOL    HW224562   6.996   9.664   9.904  0.0675 -0.0181 -0.0575
35524SOL     OW24563   3.310   8.788   1.512  0.2659  0.4261 -0.3920
35524SOL    HW124564   3.346   8.875   1.528 -1.0951  1.2170 -1.3914
35524SOL    HW224565   3.230   8.785   1.565  0.7546 -0.5578  0.3092
35525SOL     OW24566   8.076   9.542   9.326  0.4442  0.6257 -0.6352
35525SOL    HW124567   8.054   9.528   9.418  1.4864 -0.3427 -0.5067
35525SOL    HW224568   8.159   9.591   9.329 -0.2869  1.9674 -1.0867
35526SOL     OW24569  13.849   6.837   1.679 -0.5016 -0.2284  0.1701
35526SOL    HW124570  13.792   6.761   1.684  0.9568 -1.2924  1.9244
35526SOL    HW224571  13.794   6.911   1.705 -1.3049 -1.0843  0.9795
35527SOL     OW24572   7.687  10.926  11.099 -0.3043 -0.4488 -0.3425
35527SOL    HW124573   7.680  10.832  11.080 -2.2692 -0.4357  0.0334
35527SOL    HW224574   7.678  10.931  11.195 -1.3665  0.1840 -0.4634
35528SOL     OW24575   7.637   5.738  10.440  0.4744 -0.1886 -0.0432
35528SOL    HW124576   7.731   5.731  10.420  0.6297  0.1377  0.5544
35528SOL    HW224577   7.616   5.658  10.487  0.8355  0.4778  1.2836
35529SOL     OW24578   7.280  13.717   6.477  1.0871 -0.3165  0.1616
35529SOL    HW124579   7.307  13.730   6.568  3.0421  2.4527 -0.6957
35529SOL    HW224580   7.206  13.656   6.483  1.5258 -0.7346  3.5078
35530SOL     OW24581  11.203   4.374   7.433  0.1017  0.0832  0.1074
35530SOL    HW124582  11.207   4.442   7.500  2.8271 -0.5692  0.7253
35530SOL    HW224583  11.193   4.292   7.483  1.3512 -0.3359 -0.2992
35531SOL     OW24584   3.902   4.909   8.971  0.1564  0.4036  0.1863
35531SOL    HW124585   3.930   4.998   8.953  2.4983 -0.1085  0.9105
35531SOL    HW224586   3.969   4.854   8.932 -1.1237 -1.0632 -0.0585
35532SOL     OW24587  10.755   0.689   9.422  0.4857  0.0604 -0.1983
35532SOL    HW124588  10.809   0.758   9.461  0.4656 -0.3218  0.5169
35532SOL    HW224589  10.684   0.736   9.378  0.3978  0.4944  0.3933
35533SOL     OW24590   1.575   7.182   9.085 -0.0171  0.7081  0.4053
35533SOL    HW124591   1.484   7.186   9.116 -0.4593  1.3245 -0.9119
35533SOL    HW224592   1.627   7.210   9.160 -0.8526 -0.2965  1.4006
35534SOL     OW24593   8.114   3.004  13.510 -0.0168  0.2383 -0.2075
35534SOL    HW124594   8.046   2.936  13.517  1.1562 -1.2290 -2.1162
35534SOL    HW224595   8.065   3.085  13.495 -1.3865 -0.5929 -0.4230
35535SOL     OW24596   2.104   3.612   5.585  0.2623 -0.5292 -0.4916
35535SOL    HW124597   2.178   3.671   5.591 -0.9409  0.9241  0.9104
35535SOL    HW224598   2.027   3.670   5.579 -0.9412 -1.9267  0.6588
35536SOL     OW24599  11.437   5.863   9.927  0.1250  0.1229  0.1478
35536SOL    HW124600  11.385   5.901   9.857 -1.6470 -1.6634  0.4281
35536SOL    HW224601  11.411   5.912  10.005  0.3910  0.5724 -0.0399
35537SOL     OW24602   0.018   4.500   0.893 -0.2122  1.0886  0.1321
35537SOL    HW124603  -0.006   4.427   0.835  1.7374 -0.8879  1.6171
35537SOL    HW224604  -0.064   4.522   0.938 -0.3095 -2.8568  2.3523
35538SOL     OW24605   0.644   9.530   4.088  0.0413 -0.3424 -0.0560
35538SOL    HW124606   0.608   9.612   4.053  1.6010  0.0317 -0.8769
35538SOL    HW224607   0.669   9.552   4.178 -2.0301 -0.7219  0.6788
35539SOL     OW24608  12.121   5.162   5.898  0.3258  0.0823 -0.2057
35539SOL    HW124609  12.049   5.105   5.925  0.6681 -0.0311  0.4948
35539SOL    HW224610  12.086   5.250   5.905 -0.4660 -0.0374 -2.0551
35540SOL     OW24611  10.117  11.161   5.767 -0.2756  0.1762 -0.3170
35540SOL    HW124612  10.178  11.211   5.713 -1.8361  0.4010 -1.9881
35540SOL    HW224613  10.095  11.220   5.839  1.3560  0.1237  0.2523
35541SOL     OW24614   2.081   6.362   8.997 -0.0246  0.5004 -0.3014
35541SOL    HW124615   2.074   6.280   8.947  1.2103 -0.1461  0.5357
35541SOL    HW224616   2.103   6.428   8.931  0.2103 -0.0791 -0.8221
35542SOL     OW24617  12.452  11.407   0.610  0.1609  0.7364 -0.3996
35542SOL    HW124618  12.388  11.349   0.570  0.3117 -0.0536  0.4713
35542SOL    HW224619  12.529  11.352   0.624  0.7147  1.4414 -0.6084
35543SOL     OW24620   9.688   0.401  10.139  0.5031  0.4705 -0.4523
35543SOL    HW124621   9.779   0.384  10.161 -0.0354  0.9222  2.5519
35543SOL    HW224622   9.644   0.317  10.150  0.7495 -0.2220 -3.7640
35544SOL     OW24623   7.654   3.547   0.874  0.0671 -0.7572  0.4994
35544SOL    HW124624   7.564   3.578   0.867  0.1484 -0.7081 -0.4647
35544SOL    HW224625   7.647   3.452   0.871  0.1994 -0.7841 -2.5827
35545SOL     OW24626   9.171   1.880   0.897  0.0100  0.7821 -0.4994
35545SOL    HW124627   9.219   1.962   0.886  3.1869 -1.0110 -1.2866
35545SOL    HW224628   9.097   1.887   0.837  0.7369  2.6881 -1.2560
35546SOL     OW24629   7.359   7.804   5.659  0.3557 -0.0192  0.0330
35546SOL    HW124630   7.336   7.869   5.593  2.4115  1.3350  0.5767
35546SOL    HW224631   7.367   7.722   5.611  0.5202  0.6780 -1.1544
35547SOL     OW24632  11.040   9.124   4.919 -0.5336  0.1633 -0.3059
35547SOL    HW124633  11.019   9.207   4.876  0.0131  0.7152  0.4626
35547SOL    HW224634  11.048   9.146   5.012 -1.8955 -1.0385  0.1409
35548SOL     OW24635   7.528   7.922  10.821  0.1168  0.3772 -0.0975
35548SOL    HW124636   7.576   8.003  10.804 -1.0684  0.8819 -1.1364
35548SOL    HW224637   7.485   7.901  10.739 -0.5829 -0.6534  0.5029
35549SOL     OW24638   8.662   5.940   1.021 -0.1508 -0.1055 -0.3065
35549SOL    HW124639   8.695   5.876   0.958  1.4434 -1.4125  1.7066
35549SOL    HW224640   8.675   5.898   1.106 -1.9974  1.6573  0.9334
35550SOL     OW24641   3.499  11.892   3.598 -0.1063  0.3377  0.0615
35550SOL    HW124642   3.552  11.910   3.521  0.0088  0.1449  0.0961
35550SOL    HW224643   3.509  11.970   3.653 -1.3864  1.1472 -0.7828
35551SOL     OW24644   7.148   7.551   5.122 -0.4220 -0.2403 -0.5065
35551SOL    HW124645   7.205   7.547   5.198  1.3291 -1.6664 -1.8087
35551SOL    HW224646   7.158   7.641   5.089  1.5778 -0.5919 -1.0097
35552SOL     OW24647   5.338   4.458   2.610 -0.1702 -0.2457  0.8580
35552SOL    HW124648   5.327   4.516   2.535  0.4371  1.5742  2.1095
35552SOL    HW224649   5.430   4.433   2.608  0.3863  1.5209  2.1210
35553SOL     OW24650   8.151   5.917   1.540 -0.0776  0.5065 -0.2877
35553SOL    HW124651   8.219   5.983   1.531  0.0968  0.4495  0.5036
35553SOL    HW224652   8.071   5.960   1.507 -0.2063  1.5275  1.2482
35554SOL     OW24653  13.716  11.184  14.071  0.2587  0.1139 -0.1934
35554SOL    HW124654  13.622  11.171  14.084  0.5785 -2.3625 -0.0055
35554SOL    HW224655  13.723  11.230  13.987 -1.0685 -0.8229 -0.8351
35555SOL     OW24656   9.838  12.941  10.225  0.1967  0.1881 -0.2736
35555SOL    HW124657   9.834  13.000  10.149 -1.2131  1.3257  0.6277
35555SOL    HW224658   9.769  12.973  10.283  1.4323 -0.4748  1.6306
35556SOL     OW24659   2.681   0.037   1.002 -0.0834  0.3212 -0.6070
35556SOL    HW124660   2.728   0.002   1.078 -0.6112 -1.3239 -0.9777
35556SOL    HW224661   2.715   0.125   0.990  3.8402 -1.1227 -1.5636
35557SOL     OW24662  10.540   2.922   4.722 -0.3090 -0.2589 -0.0614
35557SOL    HW124663  10.468   2.921   4.659  0.8141 -0.4939 -1.4008
35557SOL    HW224664  10.599   2.991   4.691  0.8390 -1.1615  0.0349
35558SOL     OW24665  11.997   6.354   9.617  0.2681 -0.3298  0.6659
35558SOL    HW124666  11.960   6.409   9.549 -0.3928 -1.3695  0.1594
35558SOL    HW224667  12.088   6.341   9.590  0.1458 -0.3263  0.2455
35559SOL     OW24668   0.143   1.924   0.377  0.4671 -0.4623 -0.0810
35559SOL    HW124669   0.089   1.973   0.315  0.6909 -2.9945 -2.4819
35559SOL    HW224670   0.103   1.837   0.380  1.9670 -1.1638  1.4350
35560SOL     OW24671   0.985  10.869   0.745  0.1540  0.3008  0.2058
35560SOL    HW124672   0.929  10.791   0.745  0.3679  0.1408 -0.8983
35560SOL    HW224673   1.033  10.865   0.663  0.3689  1.4670  0.2549
35561SOL     OW24674   1.230  10.342   7.252 -0.3946  0.2473  0.3047
35561SOL    HW124675   1.229  10.248   7.234  0.8997 -0.0444  1.5409
35561SOL    HW224676   1.166  10.379   7.192 -3.6393 -1.8442  2.1587
35562SOL     OW24677   5.455   8.933   8.537 -0.2175 -0.1027  0.0986
35562SOL    HW124678   5.512   8.919   8.613 -1.9174 -0.2374  1.4036
35562SOL    HW224679   5.414   8.848   8.522 -2.5674  0.7527  1.3185
35563SOL     OW24680  13.587   4.985   6.767  0.3360  0.4803 -0.6442
35563SOL    HW124681  13.532   5.009   6.842  2.4208  2.0838  0.4615
35563SOL    HW224682  13.541   5.023   6.692 -0.4939  1.0657  0.1252
35564SOL     OW24683  10.960   0.922   1.151 -0.3918  0.1672 -0.0467
35564SOL    HW124684  11.055   0.918   1.163 -0.4171 -1.3809 -0.2577
35564SOL    HW224685  10.924   0.890   1.233 -0.6756 -1.4611 -0.7737
35565SOL     OW24686  13.892   6.978   4.875 -0.7172 -0.1373  0.2083
35565SOL    HW124687  13.960   6.937   4.928 -1.4241 -0.3671  0.9532
35565SOL    HW224688  13.821   6.914   4.874 -1.3133  0.5238  0.2736
35566SOL     OW24689   3.979   6.637   7.206 -0.1804 -0.7383 -0.1403
35566SOL    HW124690   4.029   6.560   7.182 -0.6520 -1.9641  2.4371
35566SOL    HW224691   3.916   6.648   7.136 -0.8450 -3.4182 -0.0651
35567SOL     OW24692  10.139   8.668   8.819 -0.0991  0.4973 -0.3569
35567SOL    HW124693  10.185   8.689   8.900  1.4626  0.3185 -1.1641
35567SOL    HW224694  10.162   8.577   8.801 -1.2547  0.2079 -0.4965
35568SOL     OW24695   2.191   5.193   9.607  0.7428 -0.2128  0.4764
35568SOL    HW124696   2.205   5.248   9.685 -1.5410  0.1850  0.6660
35568SOL    HW224697   2.279   5.178   9.573  1.7216  0.5653  2.4727
35569SOL     OW24698   1.927   9.354  12.434  0.2108 -0.2655 -0.2999
35569SOL    HW124699   1.932   9.348  12.529 -2.1948 -0.0175 -0.1046
35569SOL    HW224700   1.957   9.268  12.403  1.6489 -0.1299  0.5923
35570SOL     OW24701   3.923   5.587  11.226  0.1171 -0.2166  0.2314
35570SOL    HW124702   3.915   5.551  11.315 -3.7346  2.8490  1.4241
35570SOL    HW224703   3.843   5.558  11.181  0.7631  0.3892 -1.3731
35571SOL     OW24704   4.905   2.269   2.693 -0.6980  0.1180 -0.0704
35571SOL    HW124705   4.878   2.350   2.737  0.9510  1.1653 -0.8659
35571SOL    HW224706   4.842   2.204   2.722 -1.5005  1.4614  1.3828
35572SOL     OW24707  11.295   1.165   8.083 -0.4077  0.5882  0.4200
35572SOL    HW124708  11.385   1.162   8.050  0.4984 -1.8420  2.8031
35572SOL    HW224709  11.246   1.207   8.013  2.1861  0.0824 -1.8740
35573SOL     OW24710   8.179  11.475   2.516  0.4579  0.3859  0.6024
35573SOL    HW124711   8.263  11.478   2.562  0.3764 -1.2545  0.9175
35573SOL    HW224712   8.147  11.565   2.519  1.9140  0.9198  1.0127
35574SOL     OW24713  13.210   3.946   2.600  0.0600  0.4660 -0.0077
35574SOL    HW124714  13.169   3.981   2.521 -0.7261  0.9431  0.5927
35574SOL    HW224715  13.138   3.904   2.648  0.7765 -1.0489 -0.1820
35575SOL     OW24716   2.707   0.653   2.460  0.7201 -0.0405 -0.1358
35575SOL    HW124717   2.759   0.703   2.522  1.0611 -2.3582  1.5662
35575SOL    HW224718   2.760   0.576   2.440 -1.1330 -1.4344  0.0245
35576SOL     OW24719  12.067   7.499   3.357  0.0432  0.2635  0.6726
35576SOL    HW124720  12.144   7.480   3.411  0.3841  0.0853  0.1332
35576SOL    HW224721  12.070   7.594   3.344 -0.5546  0.4340  1.7268
35577SOL     OW24722  10.471   3.407   5.130 -0.6071 -0.2079  0.0947
35577SOL    HW124723  10.418   3.442   5.201 -0.2243  2.4330 -0.8240
35577SOL    HW224724  10.407   3.386   5.061 -0.7526 -0.4744  0.3071
35578SOL     OW24725   3.017   3.180   8.431 -0.1283 -0.2804  0.1690
35578SOL    HW124726   3.073   3.126   8.375 -0.9009  0.2213 -1.1477
35578SOL    HW224727   3.027   3.143   8.519  2.2128 -0.2376 -0.0242
35579SOL     OW24728   5.268   7.897   0.136  0.2750 -0.2623 -0.0535
35579SOL    HW124729   5.234   7.907   0.047 -2.3747  1.9526  1.0566
35579SOL    HW224730   5.279   7.987   0.168 -0.9702 -0.9391  2.5435
35580SOL     OW24731   2.234   9.334   5.296  0.2709 -0.1225  0.4936
35580SOL    HW124732   2.326   9.348   5.317  0.0270 -0.0082  1.5426
35580SOL    HW224733   2.187   9.401   5.346 -0.2169  1.8702 -2.3401
35581SOL     OW24734   6.881   1.618   0.711 -0.6170 -0.3744 -0.2677
35581SOL    HW124735   6.798   1.612   0.662  0.3553  0.2144 -2.0853
35581SOL    HW224736   6.885   1.710   0.739 -0.3853 -0.2978 -0.5501
35582SOL     OW24737   4.291  12.302  13.784 -0.1276  0.3528 -0.1753
35582SOL    HW124738   4.294  12.383  13.835  2.1274 -0.2838  0.8075
35582SOL    HW224739   4.290  12.232  13.849  1.6216 -0.4525 -0.9579
35583SOL     OW24740  12.763   7.890   7.452  0.4214  0.8496  0.1387
35583SOL    HW124741  12.830   7.895   7.521  1.4727  0.1884 -0.8040
35583SOL    HW224742  12.688   7.849   7.494  0.8269  1.0153  1.0500
35584SOL     OW24743   4.680   2.819   7.089 -0.3500  0.1396  0.1049
35584SOL    HW124744   4.640   2.804   7.175 -0.9181 -1.1691 -0.3546
35584SOL    HW224745   4.773   2.806   7.103 -0.3962  0.3084  0.5943
35585SOL     OW24746   8.104   2.531   9.181  0.2228  0.0075  0.0745
35585SOL    HW124747   8.050   2.610   9.181  2.8523  1.9432  0.4197
35585SOL    HW224748   8.091   2.494   9.269 -2.7705 -1.3851 -0.8052
35586SOL     OW24749   9.993   5.547   3.653  0.0843 -0.0443  0.2486
35586SOL    HW124750  10.085   5.562   3.633 -0.0156  1.7509  0.9254
35586SOL    HW224751   9.983   5.576   3.743 -0.7562 -2.1139  0.8759
35587SOL     OW24752  12.733  13.837   5.747 -0.2647  0.2770  0.6462
35587SOL    HW124753  12.813  13.875   5.711 -0.6349  0.6904  0.2500
35587SOL    HW224754  12.763  13.789   5.825  0.3280  0.6833  0.6810
35588SOL     OW24755  12.639   0.942  12.527 -0.1491 -0.2297  0.6799
35588SOL    HW124756  12.588   0.962  12.448  2.0574 -2.7019 -1.6014
35588SOL    HW224757  12.711   0.888  12.495  1.6409 -0.2453  4.2839
35589SOL     OW24758   0.187   2.656   4.354 -0.2537 -0.0380  0.2473
35589SOL    HW124759   0.203   2.605   4.275 -0.6444  0.0343  0.1214
35589SOL    HW224760   0.162   2.592   4.420  0.0073 -0.0908  0.2982
35590SOL     OW24761   3.840   0.110   0.560 -0.3988 -0.1792  0.0968
35590SOL    HW124762   3.866   0.199   0.580 -2.3217  0.5056 -0.2535
35590SOL    HW224763   3.922   0.063   0.548  0.6613  1.7714 -0.6816
35591SOL     OW24764  10.797   7.147   9.377  0.1713 -0.7455  0.4828
35591SOL    HW124765  10.703   7.144   9.361  0.5630 -0.6720 -2.3679
35591SOL    HW224766  10.829   7.218   9.321  2.0511 -1.4870  0.5289
35592SOL     OW24767  12.161  13.115  10.494  0.1891 -0.0042  0.2329
35592SOL    HW124768  12.128  13.087  10.580 -1.4830 -1.4209 -0.8145
35592SOL    HW224769  12.149  13.039  10.438  1.0224  0.9869 -1.3531
35593SOL     OW24770   2.258   2.732   7.250 -0.4224  0.3172  0.2839
35593SOL    HW124771   2.295   2.644   7.251 -2.0778 -0.4176  1.0520
35593SOL    HW224772   2.287   2.770   7.333 -0.5821  0.1070  0.4372
35594SOL     OW24773   4.487   6.847   5.577 -0.3196  0.3968 -0.3226
35594SOL    HW124774   4.443   6.794   5.511 -0.3741 -1.8040  1.3626
35594SOL    HW224775   4.520   6.783   5.641  0.7417  2.3322  1.1673
35595SOL     OW24776   7.851   0.023   6.974 -0.0012 -0.2136 -0.5413
35595SOL    HW124777   7.840   0.061   7.061  0.0476 -0.5562 -0.3819
35595SOL    HW224778   7.763   0.022   6.937 -0.3238 -1.6930  0.2007
35596SOL     OW24779  11.026   6.047   8.555 -0.2820 -0.2793  0.0161
35596SOL    HW124780  10.965   5.975   8.568 -0.3743 -0.3157 -0.6232
35596SOL    HW224781  10.970   6.123   8.540 -0.1703 -0.3474 -0.7538
35597SOL     OW24782  11.760   6.274  13.577 -0.7379  0.3181 -0.0995
35597SOL    HW124783  11.799   6.187  13.582  2.6866  1.7551  3.5705
35597SOL    HW224784  11.814   6.320  13.512 -1.5168  0.1959 -0.8489
35598SOL     OW24785   3.599   0.139  10.438 -0.4621 -0.1723  0.6668
35598SOL    HW124786   3.630   0.222  10.403 -1.3116 -0.5028 -0.9201
35598SOL    HW224787   3.679   0.087  10.449 -0.1760 -0.1618 -1.0955
35599SOL     OW24788   0.065  12.074  11.253 -0.3604  0.2303 -0.4897
35599SOL    HW124789   0.065  12.111  11.341 -0.3509 -0.7508 -0.0674
35599SOL    HW224790  -0.028  12.064  11.231 -0.4167 -2.1270  0.5569
35600SOL     OW24791   1.404   1.836   8.152  0.5049 -0.5815  0.2878
35600SOL    HW124792   1.454   1.783   8.090  1.7843  0.1603  0.6509
35600SOL    HW224793   1.377   1.773   8.220  0.1657 -1.1565 -0.3652
35601SOL     OW24794   1.381   4.568   9.814 -0.2663  0.0627  0.2313
35601SOL    HW124795   1.305   4.541   9.763  0.5379 -0.0492 -0.9335
35601SOL    HW224796   1.376   4.664   9.815 -0.3709  0.0590  0.0684
35602SOL     OW24797  12.838  13.256   1.441  0.3399  0.2068  0.1869
35602SOL    HW124798  12.862  13.164   1.429 -0.1091 -0.0744  1.3255
35602SOL    HW224799  12.922  13.301   1.449  0.5850  0.0294 -1.1504
35603SOL     OW24800  10.692   1.510   2.183 -0.0203 -0.1725  0.7770
35603SOL    HW124801  10.627   1.574   2.213  0.4165 -0.0827  1.5559
35603SOL    HW224802  10.774   1.560   2.178 -0.4029  0.3568 -2.5388
35604SOL     OW24803   4.412  10.311  10.885 -0.1007  0.4360 -0.3001
35604SOL    HW124804   4.388  10.246  10.818 -0.0362 -0.8267  0.8569
35604SOL    HW224805   4.328  10.337  10.924  0.0592 -1.8727  1.8260
35605SOL     OW24806   6.845   3.520   0.361  0.2277  0.1930  0.2207
35605SOL    HW124807   6.838   3.602   0.410 -1.1208 -0.0524  0.4882
35605SOL    HW224808   6.764   3.517   0.310  0.5294 -0.7071 -0.2133
35606SOL     OW24809   9.766   7.920   2.034  0.1478 -0.6058 -0.0181
35606SOL    HW124810   9.711   7.950   1.962  1.2945  1.6988 -0.0396
35606SOL    HW224811   9.853   7.912   1.995  0.2753 -2.0419  0.5157
35607SOL     OW24812   0.030  11.989   0.035  0.3767 -0.7499 -0.2927
35607SOL    HW124813   0.019  12.073   0.080  0.0448 -1.6872  1.4865
35607SOL    HW224814  -0.040  11.987  -0.030  0.4309  0.3714 -0.3958
35608SOL     OW24815   9.483   0.385  12.700 -0.1596 -0.0418 -0.0530
35608SOL    HW124816   9.493   0.311  12.639  0.3537  0.3222 -0.4125
35608SOL    HW224817   9.555   0.444  12.679 -0.1701  0.2461  0.6941
35609SOL     OW24818  11.361   3.017   6.546 -0.1587  0.0248  0.0910
35609SOL    HW124819  11.287   2.959   6.533 -1.7117  1.7016  1.0083
35609SOL    HW224820  11.323   3.099   6.576  1.8753  1.6811 -1.4665
35610SOL     OW24821  10.208   9.506   4.996 -0.6996  0.5212  0.2916
35610SOL    HW124822  10.240   9.483   5.084  2.7052  1.7642 -0.4757
35610SOL    HW224823  10.250   9.590   4.977  1.0365 -0.9832 -3.5706
35611SOL     OW24824   4.695   3.889  10.852 -0.7771  0.4390 -0.0765
35611SOL    HW124825   4.626   3.855  10.796  0.0908  0.1093 -0.9716
35611SOL    HW224826   4.771   3.835  10.832 -0.7235 -0.5093  2.2968
35612SOL     OW24827   5.936   0.614   8.771 -0.1369 -0.3705  0.7436
35612SOL    HW124828   5.889   0.535   8.795  2.0662 -1.5193  1.6184
35612SOL    HW224829   5.887   0.650   8.697 -1.2025 -2.5634  0.2939
35613SOL     OW24830  12.358  12.603   0.416  0.1348 -0.0055  0.9483
35613SOL    HW124831  12.361  12.518   0.460 -0.0188 -1.2730 -1.3004
35613SOL    HW224832  12.450  12.625   0.401  0.1865 -0.9696 -0.4490
35614SOL     OW24833   7.851   9.768   6.462 -0.1640  0.1587  0.0572
35614SOL    HW124834   7.919   9.800   6.521  0.4548 -0.5035 -0.2863
35614SOL    HW224835   7.801   9.846   6.438  0.1373  0.5680  0.7412
35615SOL     OW24836  12.374   0.199   4.688  0.6000 -0.1766  0.0311
35615SOL    HW124837  12.360   0.123   4.745  0.8101 -0.8210 -0.7611
35615SOL    HW224838  12.467   0.195   4.665  0.8114  0.8176  0.6678
35616SOL     OW24839   6.505   0.934  12.587  0.2616 -0.1660 -0.3307
35616SOL    HW124840   6.437   0.891  12.536 -0.9633  0.8543  0.3783
35616SOL    HW224841   6.574   0.955  12.523 -0.1393 -1.0803 -1.0832
35617SOL     OW24842  12.684   4.164   8.670  0.3737  0.4413 -0.2325
35617SOL    HW124843  12.688   4.102   8.742 -0.6105  0.7107  0.0744
35617SOL    HW224844  12.693   4.110   8.591 -0.9567 -0.1808  0.0076
35618SOL     OW24845  13.190  12.951   9.874 -0.2635 -0.0933  0.6921
35618SOL    HW124846  13.160  12.870   9.915  0.1201  0.8266  2.9221
35618SOL    HW224847  13.133  13.018   9.911  0.1840  0.8118 -0.2383
35619SOL     OW24848   6.863  10.411   8.424  0.2032 -0.1211  0.5597
35619SOL    HW124849   6.852  10.506   8.426  0.1879 -0.1243  0.6340
35619SOL    HW224850   6.899  10.389   8.510 -0.2642 -0.2382  0.7318
35620SOL     OW24851   5.551  10.821   1.996 -0.4534  0.3089 -0.0812
35620SOL    HW124852   5.540  10.727   1.982  2.1571 -0.0515 -0.3747
35620SOL    HW224853   5.562  10.830   2.091 -0.0308  0.1981 -0.1156
35621SOL     OW24854   9.994   9.212  13.012 -0.4977 -0.1454  0.6057
35621SOL    HW124855   9.949   9.166  12.942  1.5864 -2.3361  0.5487
35621SOL    HW224856  10.063   9.263  12.968  0.5017 -1.1419  0.9505
35622SOL     OW24857  11.548  11.918   8.652 -0.6543  0.5714  0.7060
35622SOL    HW124858  11.634  11.946   8.685 -0.1062  1.8811 -1.6575
35622SOL    HW224859  11.507  11.874   8.727  0.7885  2.6931  2.8652
35623SOL     OW24860  10.236  12.309  10.049 -0.0904  0.0713  0.1925
35623SOL    HW124861  10.297  12.248  10.008  0.5493  0.7013  0.1981
35623SOL    HW224862  10.186  12.255  10.110 -0.3552 -0.6753 -0.6608
35624SOL     OW24863   4.287   7.493  13.429 -0.5063  0.4162  0.4858
35624SOL    HW124864   4.299   7.476  13.335 -2.4249  2.1068 -0.1410
35624SOL    HW224865   4.203   7.451  13.450 -2.0102  3.1682  0.4461
35625SOL     OW24866   5.845  13.640  13.366 -0.0118 -0.1788 -0.1504
35625SOL    HW124867   5.833  13.557  13.320  1.7156 -1.2132  1.1212
35625SOL    HW224868   5.756  13.675  13.377 -0.7223 -1.5377 -1.2544
35626SOL     OW24869   3.045  10.237   5.969  0.0299 -0.5558  0.2148
35626SOL    HW124870   3.052  10.320   5.922 -0.6640 -1.2400 -1.1414
35626SOL    HW224871   2.966  10.246   6.022 -0.1152 -0.3945 -0.0294
35627SOL     OW24872  13.362   1.109   3.185  0.5000 -0.4741 -0.5169
35627SOL    HW124873  13.393   1.100   3.095  1.1521  0.8476 -0.4494
35627SOL    HW224874  13.269   1.129   3.176  0.7222  0.4424 -0.9624
35628SOL     OW24875   8.515   6.113   5.619 -0.3296 -0.5867  0.4536
35628SOL    HW124876   8.422   6.137   5.621 -0.4267 -0.9552  0.4674
35628SOL    HW224877   8.561   6.197   5.619 -0.6721 -0.3925 -0.1618
35629SOL     OW24878   7.067   3.168   9.420  0.6470 -0.1361  0.0206
35629SOL    HW124879   7.059   3.121   9.337  0.5874 -2.3700  1.2230
35629SOL    HW224880   6.985   3.217   9.427  1.3993  1.5782 -2.0361
35630SOL     OW24881   7.734   4.974   1.857  0.6942  0.0624  0.3210
35630SOL    HW124882   7.662   5.020   1.813  0.6873  0.9274  1.2299
35630SOL    HW224883   7.809   5.032   1.847  0.6415  0.3694  1.6315
35631SOL     OW24884   0.165   6.387   8.546  0.1708 -0.2600  0.5636
35631SOL    HW124885   0.089   6.392   8.488  1.4021 -0.1554 -1.1119
35631SOL    HW224886   0.173   6.475   8.583  0.2732  0.1087 -0.3211
35632SOL     OW24887   2.462   9.079   7.719  0.3002  0.4848 -0.1653
35632SOL    HW124888   2.528   9.122   7.665  0.0274  3.1079  1.3688
35632SOL    HW224889   2.496   9.085   7.809 -0.4900 -1.2323  0.2985
35633SOL     OW24890  11.728   1.566   9.556 -0.3119  0.1109  0.1725
35633SOL    HW124891  11.778   1.517   9.621  0.3381  1.4733  0.7457
35633SOL    HW224892  11.784   1.640   9.534 -1.8334  1.3910  0.4269
35634SOL     OW24893  11.420  12.974   7.228  0.2573  0.3204 -0.2513
35634SOL    HW124894  11.496  13.028   7.210 -0.3308  1.0578 -0.5512
35634SOL    HW224895  11.356  13.034   7.267 -0.3444 -0.1870 -0.4350
35635SOL     OW24896   7.712   8.036  12.916  0.4888 -0.3484  0.3104
35635SOL    HW124897   7.624   8.038  12.952  0.6305  1.0991  0.6346
35635SOL    HW224898   7.768   8.013  12.990  0.6776  1.7178  0.8823
35636SOL     OW24899   5.090  13.027   0.482 -0.2686 -0.5007  0.3932
35636SOL    HW124900   5.155  12.980   0.534  0.2382  0.1118  0.3220
35636SOL    HW224901   5.070  12.967   0.409  2.0292  0.2554 -0.9448
35637SOL     OW24902   2.585   9.294   3.160 -0.3632  0.1892  0.3241
35637SOL    HW124903   2.655   9.357   3.174 -0.8665  0.7117  0.5268
35637SOL    HW224904   2.629   9.215   3.128  0.4435  0.0949  1.5979
35638SOL     OW24905  13.462   8.994  12.937 -0.1647 -0.8929 -0.0179
35638SOL    HW124906  13.455   8.962  12.848 -2.4852  0.1212 -0.2699
35638SOL    HW224907  13.480   9.088  12.927  0.5652 -0.9538  0.6122
35639SOL     OW24908   3.050  13.111   2.572  0.6144  0.7978 -0.0320
35639SOL    HW124909   3.132  13.160   2.568  0.7446  0.5623 -0.3077
35639SOL    HW224910   2.985  13.171   2.536  0.4268  1.4455  1.3208
35640SOL     OW24911   3.057  13.945   2.278  0.0094 -0.0032  0.1407
35640SOL    HW124912   2.964  13.943   2.255  0.0296  0.3360  0.0144
35640SOL    HW224913   3.088  14.028   2.242  0.0846  0.4621  1.2372
35641SOL     OW24914   5.418   4.854   5.652 -0.0987 -0.4698  0.2617
35641SOL    HW124915   5.478   4.792   5.692 -1.4141 -2.1798 -0.2625
35641SOL    HW224916   5.438   4.851   5.558  0.7913  1.0383  0.3749
35642SOL     OW24917   1.603   3.286  10.392 -0.6241 -0.1995 -0.4387
35642SOL    HW124918   1.658   3.213  10.363  1.0662  0.2114  1.5023
35642SOL    HW224919   1.624   3.357  10.332  1.3882  0.0851  0.5157
35643SOL     OW24920   3.737  13.239  12.903  0.2795  0.0130  0.0020
35643SOL    HW124921   3.731  13.298  12.979 -1.5858  1.9811 -1.5343
35643SOL    HW224922   3.776  13.159  12.938 -0.6145  0.7628  3.0689
35644SOL     OW24923  12.683   9.755   2.406  0.4875 -0.4277 -0.1836
35644SOL    HW124924  12.735   9.686   2.447 -0.2726 -0.8127  0.1652
35644SOL    HW224925  12.745   9.806   2.354  1.7596  0.8745  2.4382
35645SOL     OW24926   8.393   2.225   8.219  0.1478  0.4975 -0.2401
35645SOL    HW124927   8.437   2.170   8.283  0.4942  0.8648 -0.1612
35645SOL    HW224928   8.463   2.259   8.164  0.1095  2.0819  0.6535
35646SOL     OW24929  11.661  12.813   4.048 -0.1364 -0.5313  0.0749
35646SOL    HW124930  11.730  12.861   4.095 -0.1976  0.1824 -0.5428
35646SOL    HW224931  11.606  12.776   4.117 -0.0315  0.2217  0.5754
35647SOL     OW24932   5.576  10.370  11.979  0.4430  0.0050  0.4841
35647SOL    HW124933   5.656  10.371  12.031  1.9471 -0.3124 -1.6524
35647SOL    HW224934   5.576  10.453  11.931  0.0426 -0.4229 -0.2916
35648SOL     OW24935   8.504   5.930   5.257 -0.5287 -0.2543  0.4674
35648SOL    HW124936   8.470   5.912   5.169  0.2298  0.7880 -0.0558
35648SOL    HW224937   8.571   5.863   5.271  0.3381  0.4274 -0.3349
35649SOL     OW24938   9.614   6.314   7.559 -0.3046 -0.4015  0.0209
35649SOL    HW124939   9.522   6.298   7.579 -0.4488  0.4237  0.0763
35649SOL    HW224940   9.652   6.342   7.643 -0.2309  0.1724 -0.1964
35650SOL     OW24941  10.380   6.260   4.947 -0.0718  0.2546 -0.6372
35650SOL    HW124942  10.345   6.254   4.858  1.0643  0.0966 -1.0885
35650SOL    HW224943  10.328   6.329   4.988 -1.0885 -0.1678 -1.1872
35651SOL     OW24944  13.369   0.080   5.951 -0.3580  0.1628  0.2759
35651SOL    HW124945  13.311   0.156   5.960 -0.5893 -0.1203  1.3448
35651SOL    HW224946  13.339   0.019   6.019 -0.5060 -1.1122 -0.8835
35652SOL     OW24947   9.724  11.115  10.742  0.0669  0.3905  0.0654
35652SOL    HW124948   9.739  11.096  10.835  2.7744 -2.7005 -0.8134
35652SOL    HW224949   9.776  11.193  10.725  2.0793 -0.7659  0.6091
35653SOL     OW24950   1.096   8.496  10.779 -0.8328 -0.3499 -0.3496
35653SOL    HW124951   1.024   8.559  10.773 -2.3643 -2.1511 -2.6381
35653SOL    HW224952   1.067   8.421  10.727  2.8224 -1.0996 -1.6124
35654SOL     OW24953  12.275   2.449   9.085  0.5370 -0.0195 -0.1397
35654SOL    HW124954  12.312   2.488   9.163 -0.1699 -1.1626  0.8060
35654SOL    HW224955  12.349   2.442   9.024  1.3741 -0.2030  0.8671
35655SOL     OW24956   0.567  10.414   5.870  0.1162 -0.7031  0.1494
35655SOL    HW124957   0.614  10.464   5.936  3.4194 -4.1272  0.7477
35655SOL    HW224958   0.555  10.327   5.910 -2.7015 -1.3612 -1.8174
35656SOL     OW24959  12.278   0.310   8.885 -0.0328 -0.4732  0.6724
35656SOL    HW124960  12.290   0.246   8.955 -1.4252 -0.1228  1.2779
35656SOL    HW224961  12.251   0.257   8.809 -0.4276 -0.6912  0.9567
35657SOL     OW24962  12.899  10.937  12.657  0.0246  0.2686  0.0965
35657SOL    HW124963  12.964  10.915  12.591 -0.4010  0.2266 -0.3072
35657SOL    HW224964  12.913  10.873  12.727  1.5636  1.2914  0.8067
35658SOL     OW24965   4.538   9.016   9.731  0.0770 -0.1324  0.2417
35658SOL    HW124966   4.487   9.057   9.661  0.7473 -1.3907 -1.0500
35658SOL    HW224967   4.598   9.085   9.761 -1.6118  1.0423  1.0464
35659SOL     OW24968   9.104  10.764   9.807 -0.0927 -0.1202 -0.1115
35659SOL    HW124969   9.085  10.800   9.894 -2.0614  3.7712 -1.9161
35659SOL    HW224970   9.195  10.788   9.790  0.1337 -0.4263  0.6137
35660SOL     OW24971   4.834   5.758  11.527 -0.8414  0.3145  0.1521
35660SOL    HW124972   4.809   5.847  11.500 -0.1985  0.8749  1.3445
35660SOL    HW224973   4.922   5.768  11.564 -0.8342 -0.7950  0.4509
35661SOL     OW24974   7.722   4.683   1.545  0.7190 -0.3675 -0.1364
35661SOL    HW124975   7.811   4.705   1.573 -0.4081  1.1838  2.5956
35661SOL    HW224976   7.702   4.746   1.475  1.4582 -0.1778 -0.1831
35662SOL     OW24977  14.114   2.566  11.905  0.4024  0.5730  0.0388
35662SOL    HW124978  14.164   2.492  11.940  1.5294  1.6758  0.8395
35662SOL    HW224979  14.094   2.540  11.815  1.6453 -0.2919 -0.0196
35663SOL     OW24980  12.836   0.316   5.255  0.4028 -0.6589 -0.0436
35663SOL    HW124981  12.899   0.290   5.322 -0.0659 -0.8558  0.3253
35663SOL    HW224982  12.760   0.261   5.271  0.6811 -1.4835 -1.4300
35664SOL     OW24983   9.075   2.139   9.544 -0.1477  0.0252 -0.3975
35664SOL    HW124984   9.026   2.144   9.462 -1.0132 -0.2352  0.0942
35664SOL    HW224985   9.103   2.048   9.549  0.2143  0.1254 -0.5760
35665SOL     OW24986   4.259   8.482   8.252  0.4614  0.2143 -0.1252
35665SOL    HW124987   4.178   8.443   8.285  0.5230 -1.4428 -1.7423
35665SOL    HW224988   4.320   8.474   8.325 -0.0272 -1.2235  0.1682
35666SOL     OW24989  11.982   5.379   6.581 -0.5749  0.0533  0.5344
35666SOL    HW124990  11.911   5.398   6.521  0.6922 -1.0436 -1.4458
35666SOL    HW224991  11.966   5.289   6.610 -1.0210  0.4752  1.6846
35667SOL     OW24992   0.787   7.654  12.254  0.0524  0.0086  0.1610
35667SOL    HW124993   0.774   7.699  12.338  2.3065  0.0387  0.5515
35667SOL    HW224994   0.742   7.709  12.190 -1.0863  0.3741  1.2392
35668SOL     OW24995  11.909   4.304  11.337 -0.1441 -0.6532  0.1504
35668SOL    HW124996  11.942   4.384  11.378 -0.4702 -0.9994  1.1133
35668SOL    HW224997  11.815   4.318  11.328 -0.0267 -0.4181 -0.8895
35669SOL     OW24998  10.796   1.887   4.607  0.5406  0.5449 -0.5210
35669SOL    HW124999  10.763   1.830   4.539  0.2226  0.6039 -0.4164
35669SOL    HW225000  10.888   1.901   4.584  1.4903 -2.3376  0.9917
35670SOL     OW25001   3.326   6.391  12.012 -0.4708 -0.0076  0.3021
35670SOL    HW125002   3.235   6.412  12.035 -0.6267 -0.0411 -0.2555
35670SOL    HW225003   3.318   6.332  11.937 -0.0344 -1.6823  1.5219
35671SOL     OW25004   3.133   0.179   9.168  0.2611  0.1787  0.2990
35671SOL    HW125005   3.169   0.267   9.172  0.5206  0.1176 -0.4540
35671SOL    HW225006   3.071   0.183   9.094  0.5724 -0.3743  0.0074
35672SOL     OW25007   7.306   4.728  10.588  0.0689 -0.1652  0.1370
35672SOL    HW125008   7.324   4.691  10.674 -0.7420 -0.4984  0.1734
35672SOL    HW225009   7.214   4.706  10.571 -0.6802  2.3900  0.4466
35673SOL     OW25010  11.238   2.136   2.868  0.1243  0.5636  0.2675
35673SOL    HW125011  11.260   2.173   2.782 -1.9422  1.0979 -0.0799
35673SOL    HW225012  11.264   2.044   2.862 -2.1018 -0.0238 -1.8285
35674SOL     OW25013   8.716  13.930  12.566  0.0199  0.3518  0.0197
35674SOL    HW125014   8.703  13.904  12.474 -0.3439 -1.4724  0.5570
35674SOL    HW225015   8.685  14.021  12.569 -1.2069  0.0282 -1.3916
35675SOL     OW25016   1.108  10.456   9.057  0.3184  0.3935 -0.0560
35675SOL    HW125017   1.167  10.528   9.036  0.8893  0.0142  0.2102
35675SOL    HW225018   1.034  10.467   8.997  2.0859 -0.9120 -2.6852
35676SOL     OW25019   2.357  13.108   2.347 -0.1144 -0.1887 -0.4164
35676SOL    HW125020   2.312  13.047   2.406  0.6073  0.2008  0.5727
35676SOL    HW225021   2.305  13.189   2.352  0.5324  0.1852  0.5400
35677SOL     OW25022  12.028  12.991  10.692  0.0337  0.3576 -0.0670
35677SOL    HW125023  12.008  12.903  10.723  0.8160  0.1833 -0.0203
35677SOL    HW225024  12.023  13.046  10.771 -0.3657  0.3408 -0.0798
35678SOL     OW25025   0.556   7.371  12.073  0.5707 -1.0650  1.1063
35678SOL    HW125026   0.523   7.453  12.038  2.5891 -1.4374 -2.0764
35678SOL    HW225027   0.614   7.396  12.144  0.6807  0.2000  0.5880
35679SOL     OW25028   2.503   0.486   4.166 -0.1961 -0.9384  0.3518
35679SOL    HW125029   2.488   0.401   4.208  1.1069 -0.5553  1.6755
35679SOL    HW225030   2.582   0.472   4.113  0.3585 -0.4302  1.0200
35680SOL     OW25031   5.349   7.631   0.182  0.2154  0.0054 -0.2490
35680SOL    HW125032   5.376   7.581   0.105  3.2164 -0.5823  1.0532
35680SOL    HW225033   5.319   7.714   0.147 -0.6458 -1.0468 -2.1684
35681SOL     OW25034   7.963   9.724   6.770 -0.3055 -0.3499  0.1499
35681SOL    HW125035   7.949   9.819   6.765  0.6946 -0.1143  1.2763
35681SOL    HW225036   8.020   9.705   6.695  2.0872  0.5282  1.5951
35682SOL     OW25037  14.068   7.873   9.800  0.0129  0.1606  0.2162
35682SOL    HW125038  13.978   7.856   9.772  0.1175 -0.4297  0.2409
35682SOL    HW225039  14.075   7.969   9.800 -0.6757  0.2163  0.4129
35683SOL     OW25040   6.917   6.708   2.419 -0.0836 -0.0194  0.1594
35683SOL    HW125041   6.896   6.654   2.495  1.9008 -0.5440  0.3754
35683SOL    HW225042   6.869   6.668   2.347 -1.6116  0.2026  0.9926
35684SOL     OW25043   8.379   8.042   2.077  0.3599 -0.5394  0.0322
35684SOL    HW125044   8.386   7.948   2.088  1.7121 -0.3393  1.1478
35684SOL    HW225045   8.362   8.055   1.984  1.7462 -1.8188 -0.4202
35685SOL     OW25046   8.195  12.222   9.526  0.4144  0.1619 -0.2525
35685SOL    HW125047   8.232  12.279   9.459 -1.7308  1.1935 -0.6759
35685SOL    HW225048   8.221  12.263   9.609  2.1937 -0.5242 -0.4465
35686SOL     OW25049   7.963   6.217   0.906  0.2377 -0.7308 -0.5622
35686SOL    HW125050   7.993   6.305   0.928 -1.2783 -0.3851  0.3527
35686SOL    HW225051   7.907   6.229   0.829 -2.2210 -0.3532  1.1350
35687SOL     OW25052   7.410  11.089   4.720  0.0647  0.1811 -0.5873
35687SOL    HW125053   7.369  11.170   4.751  0.3738 -0.0801  0.5535
35687SOL    HW225054   7.490  11.117   4.677  0.7312  0.4271  0.7743
35688SOL     OW25055   8.097   5.110   7.562  0.1234 -0.2430  0.1198
35688SOL    HW125056   8.072   5.172   7.630  0.8976  0.1766  0.0376
35688SOL    HW225057   8.028   5.117   7.496 -0.3780 -0.3027  0.6433
35689SOL     OW25058   9.985   8.176   9.737  0.2675  0.0640 -0.1766
35689SOL    HW125059  10.003   8.230   9.814  1.3236 -0.8021  0.2146
35689SOL    HW225060  10.061   8.117   9.731 -0.7162 -1.1909 -0.7396
35690SOL     OW25061   3.449   2.367   7.334 -0.0505  0.5446  0.3459
35690SOL    HW125062   3.380   2.427   7.306  1.0845  1.8300  0.1790
35690SOL    HW225063   3.403   2.290   7.366 -1.5187  0.8275 -0.9807
35691SOL     OW25064   3.015   1.425   7.331 -0.0648  0.4606  0.5188
35691SOL    HW125065   2.961   1.354   7.297  0.0451  0.7721 -0.3498
35691SOL    HW225066   3.073   1.384   7.395 -1.5499  0.1766  1.7477
35692SOL     OW25067   7.001   0.669  10.982 -0.0183  0.2272  0.6493
35692SOL    HW125068   6.981   0.584  11.020  1.6489 -0.4323  0.1274
35692SOL    HW225069   7.083   0.657  10.936 -1.2196  1.3476 -2.0197
35693SOL     OW25070   4.256   6.097  12.341  0.0563 -0.1218 -0.7206
35693SOL    HW125071   4.175   6.120  12.386  1.6234 -0.4837  2.5812
35693SOL    HW225072   4.248   6.003  12.324 -0.3155 -0.1110 -0.6169
35694SOL     OW25073   6.823   5.084  11.137 -0.0874 -0.5092  1.1212
35694SOL    HW125074   6.884   5.060  11.207  0.8877  1.0064  0.8518
35694SOL    HW225075   6.879   5.101  11.061 -0.8980  0.1961  0.6565
35695SOL     OW25076   8.902   9.024   1.378 -0.4866 -0.3734  0.5199
35695SOL    HW125077   8.991   9.000   1.406  1.3274  0.8835 -3.4134
35695SOL    HW225078   8.903   9.120   1.375 -1.6917 -0.3692 -0.3649
35696SOL     OW25079  10.140   7.577   0.308 -0.4275 -0.5904 -0.4026
35696SOL    HW125080  10.133   7.639   0.381 -0.7382  0.4185 -1.2639
35696SOL    HW225081  10.127   7.491   0.348  0.3450 -0.1313  0.8731
35697SOL     OW25082   1.174   0.286   6.402  0.1459 -0.1408  0.0638
35697SOL    HW125083   1.180   0.299   6.308  1.3582 -0.5599  0.0735
35697SOL    HW225084   1.204   0.368   6.440  0.5402 -0.2958  0.0883
35698SOL     OW25085  11.877   2.160  14.009  0.4958  0.3881  0.1271
35698SOL    HW125086  11.909   2.110  13.934 -0.3204 -0.4582  0.3235
35698SOL    HW225087  11.859   2.247  13.974 -1.6540 -0.4994 -1.1297
35699SOL     OW25088  11.984  11.451   5.525 -0.2377 -0.2348  0.4409
35699SOL    HW125089  12.005  11.535   5.564 -2.1780 -0.3144  1.7703
35699SOL    HW225090  12.021  11.386   5.585 -2.2681 -0.3431  1.6349
35700SOL     OW25091   7.179  11.547   9.617  0.0024 -0.1096 -0.9339
35700SOL    HW125092   7.264  11.527   9.577 -0.2241 -1.5977 -0.7298
35700SOL    HW225093   7.200  11.605   9.690  0.6786  0.6676 -1.7111
35701SOL     OW25094  12.973  11.812   1.755 -0.4808 -0.3380 -0.0652
35701SOL    HW125095  12.949  11.891   1.706 -0.5137 -0.2798  0.0458
35701SOL    HW225096  12.946  11.830   1.845  1.3071  0.3221  0.3760
35702SOL     OW25097   8.406   3.897   5.903  0.2656 -0.0427  0.2906
35702SOL    HW125098   8.432   3.824   5.959  0.7958  0.3455  0.5664
35702SOL    HW225099   8.487   3.948   5.893 -0.3891  1.2429  1.2197
35703SOL     OW25100   2.667   4.841   6.741 -0.8084 -0.5109  0.2808
35703SOL    HW125101   2.661   4.936   6.746 -0.7956 -0.4837 -0.1842
35703SOL    HW225102   2.684   4.822   6.649 -1.6889 -1.0063  0.2077
35704SOL     OW25103   9.376  13.647   9.040  0.5378 -0.2605  0.7017
35704SOL    HW125104   9.394  13.741   9.035  0.4609 -0.0986  2.5906
35704SOL    HW225105   9.395  13.613   8.953  0.0446  1.5917 -0.1646
35705SOL     OW25106   2.779   7.006   0.948 -0.4482 -0.3154  0.0443
35705SOL    HW125107   2.829   6.955   1.011 -0.5525 -1.2380 -0.5977
35705SOL    HW225108   2.700   6.955   0.932  0.2131 -0.8439 -1.8792
35706SOL     OW25109   7.534   4.214   7.618  0.1569  0.3789  0.1779
35706SOL    HW125110   7.625   4.204   7.589  0.3181  1.6495  0.1678
35706SOL    HW225111   7.482   4.181   7.545  0.5870 -1.7969  0.7770
35707SOL     OW25112   2.112   1.656   6.813  0.0438  0.3497 -0.0048
35707SOL    HW125113   2.124   1.575   6.863 -0.4813 -1.5815 -2.7641
35707SOL    HW225114   2.195   1.670   6.769 -0.0163  1.1147  0.0975
35708SOL     OW25115   6.548  11.253  11.182  0.0037 -0.0786  0.4063
35708SOL    HW125116   6.460  11.223  11.158 -1.0193  1.4008  2.0236
35708SOL    HW225117   6.554  11.236  11.276  1.6757 -0.6174  0.2322
35709SOL     OW25118  13.527   3.935   7.597  0.3818  0.5905 -0.4016
35709SOL    HW125119  13.452   3.991   7.578  0.4128  1.4061  1.5692
35709SOL    HW225120  13.489   3.851   7.622  0.3169 -0.2088 -2.9622
35710SOL     OW25121   3.533   1.593   5.029 -0.2785 -0.1675  0.0767
35710SOL    HW125122   3.503   1.525   5.090 -1.7520 -1.0241 -1.5048
35710SOL    HW225123   3.573   1.544   4.957 -0.7382  0.6702 -0.7694
35711SOL     OW25124  12.857   3.200   6.860 -0.1749  0.9229  0.0414
35711SOL    HW125125  12.883   3.289   6.882  0.0850  0.5470  1.3565
35711SOL    HW225126  12.909   3.144   6.918 -0.8927 -0.0431 -0.2030
35712SOL     OW25127   2.376   4.210   9.580 -0.0857 -0.4249 -0.3442
35712SOL    HW125128   2.356   4.302   9.566 -1.0358 -0.5388  0.1913
35712SOL    HW225129   2.364   4.196   9.674  0.8216 -0.9235 -0.2860
35713SOL     OW25130   5.791  13.490   1.727 -0.4584  0.6836 -0.3857
35713SOL    HW125131   5.881  13.522   1.717 -0.0714 -0.6318 -1.4764
35713SOL    HW225132   5.799  13.411   1.779 -0.9161  0.3154 -0.8573
35714SOL     OW25133   3.899   9.176   6.299 -0.0687 -0.0813  0.3174
35714SOL    HW125134   3.867   9.108   6.358 -0.3192  0.5764  0.9560
35714SOL    HW225135   3.956   9.231   6.353 -0.1265  0.4031 -0.1002
35715SOL     OW25136  11.302   4.257   8.502 -0.4877 -0.7460  0.0163
35715SOL    HW125137  11.331   4.205   8.577  0.2799  0.6795  0.7527
35715SOL    HW225138  11.339   4.345   8.518  0.1502 -0.5260 -2.2685
35716SOL     OW25139   7.843  10.342   3.015  0.0052  0.0598  0.3865
35716SOL    HW125140   7.820  10.400   2.942 -0.8752 -0.0066  0.6041
35716SOL    HW225141   7.842  10.400   3.092  1.2592  0.2032  0.3154
35717SOL     OW25142   9.889   1.842   8.514 -0.1157 -0.2395  0.2410
35717SOL    HW125143   9.927   1.875   8.596 -0.8134  0.5530  0.2619
35717SOL    HW225144   9.869   1.922   8.464 -1.0372 -0.6703 -0.0877
35718SOL     OW25145   4.176   6.957   5.033 -0.3043 -0.0850  0.4741
35718SOL    HW125146   4.159   6.880   5.088 -1.1432 -0.7605 -0.6723
35718SOL    HW225147   4.214   6.920   4.952  0.4935  0.8374  0.4105
35719SOL     OW25148   3.844   9.179  13.118 -0.1650 -0.1072  0.8123
35719SOL    HW125149   3.811   9.267  13.140 -0.4799 -0.2518  0.9239
35719SOL    HW225150   3.765   9.125  13.114 -0.1952  0.0141 -1.2705
35720SOL     OW25151   3.000   4.414   5.792 -0.0979 -0.1729 -0.1145
35720SOL    HW125152   3.006   4.510   5.795 -0.9315 -0.1084 -0.3110
35720SOL    HW225153   2.911   4.397   5.760 -1.1610 -1.0300  2.9616
35721SOL     OW25154   3.096   7.728   4.901  0.3870  0.6241 -0.0449
35721SOL    HW125155   3.040   7.804   4.885  0.1773  0.5393  0.2926
35721SOL    HW225156   3.072   7.698   4.988  0.9782  0.6017  0.1120
35722SOL     OW25157   2.858   9.865   9.673 -0.6538 -0.3312  0.2774
35722SOL    HW125158   2.832   9.890   9.762 -0.3956  3.2300 -0.4839
35722SOL    HW225159   2.944   9.906   9.662 -0.0972 -1.7992 -1.2437
35723SOL     OW25160   6.800   4.505  10.102  0.5499  0.1271  0.2778
35723SOL    HW125161   6.835   4.450  10.032  0.9668  1.7781 -0.8429
35723SOL    HW225162   6.708   4.478  10.109  0.6032 -0.3368 -0.6158
35724SOL     OW25163   5.403   0.530   4.837  0.2014 -0.1367  0.0109
35724SOL    HW125164   5.319   0.490   4.862  0.0112  0.5165  0.4703
35724SOL    HW225165   5.452   0.460   4.794 -0.9392 -0.2835 -1.0938
35725SOL     OW25166   7.784  12.598  12.501 -0.1660  0.1526  0.1983
35725SOL    HW125167   7.709  12.656  12.513  0.6261  1.0306  1.1908
35725SOL    HW225168   7.825  12.595  12.588 -1.2533 -3.4814  0.7263
35726SOL     OW25169  12.025   6.833   2.598 -0.2773  0.1165  1.4134
35726SOL    HW125170  11.945   6.868   2.636 -1.1260 -0.0177 -0.1303
35726SOL    HW225171  11.994   6.762   2.541  0.6464  1.5119 -0.9923
35727SOL     OW25172   1.848   9.947  11.667 -0.1752  0.0005  0.0419
35727SOL    HW125173   1.758   9.943  11.697 -0.1126 -0.5071  0.1766
35727SOL    HW225174   1.859   9.868  11.614 -0.3181  0.9415 -1.4312
35728SOL     OW25175   3.017  10.011  11.594  0.5273  0.0568 -0.5611
35728SOL    HW125176   3.079  10.023  11.666  0.6531  2.7786 -0.9983
35728SOL    HW225177   2.977   9.926  11.610  0.1669  0.7540  3.0233
35729SOL     OW25178  10.382   9.122   8.407 -0.2129  0.4745  0.6739
35729SOL    HW125179  10.384   9.207   8.362 -1.1245 -0.4019 -1.1317
35729SOL    HW225180  10.290   9.111   8.432  0.0712  0.4062  1.7005
35730SOL     OW25181   2.782   2.800   1.610  0.3304 -0.1656  0.6682
35730SOL    HW125182   2.703   2.805   1.664 -0.3465  0.8679 -0.3619
35730SOL    HW225183   2.811   2.710   1.619 -1.4406 -0.7989  0.4489
35731SOL     OW25184  10.080   0.294  11.872  0.3862  0.0401 -0.0771
35731SOL    HW125185  10.072   0.387  11.892  1.3705  0.3533 -1.0235
35731SOL    HW225186  10.164   0.268  11.909  1.2437  0.1391 -1.8110
35732SOL     OW25187  12.588  11.640   2.606  0.0367 -0.2028  0.5986
35732SOL    HW125188  12.621  11.696   2.536  1.1455 -2.3142 -0.6826
35732SOL    HW225189  12.615  11.683   2.687  1.2122  0.8638 -0.3296
35733SOL     OW25190   1.462   3.723   4.943  0.0718 -0.2108  0.2469
35733SOL    HW125191   1.371   3.751   4.955  0.0712  0.0960 -0.4406
35733SOL    HW225192   1.462   3.677   4.859  0.8670  1.2928 -0.6247
35734SOL     OW25193   5.244  13.200   3.202  0.3675  0.3603  0.3665
35734SOL    HW125194   5.231  13.294   3.220  0.8144 -0.0068  3.0772
35734SOL    HW225195   5.198  13.156   3.273  2.2443 -1.3984  0.5791
35735SOL     OW25196   2.850  13.862  10.016 -0.8603 -0.4292 -0.0176
35735SOL    HW125197   2.865  13.790   9.954  1.8785 -0.6279  0.7563
35735SOL    HW225198   2.836  13.819  10.100 -0.8715 -0.0866  0.1570
35736SOL     OW25199  11.496   4.396  10.084 -0.2082  0.0025 -0.1407
35736SOL    HW125200  11.448   4.368  10.162 -0.6335 -0.5725 -0.6045
35736SOL    HW225201  11.490   4.492  10.085  1.2902  0.1301  1.4821
35737SOL     OW25202   2.806   2.217   0.720 -0.5948 -0.3433 -0.8528
35737SOL    HW125203   2.816   2.137   0.771  1.9697  0.0895 -0.5544
35737SOL    HW225204   2.799   2.286   0.785 -1.1766 -0.1455 -1.1149
35738SOL     OW25205   4.336  12.774   1.718 -0.2776  0.2036  0.3328
35738SOL    HW125206   4.294  12.731   1.793  1.5308 -0.8226  0.8449
35738SOL    HW225207   4.394  12.839   1.757  0.4293 -0.1054 -0.1671
35739SOL     OW25208   4.295  10.294  13.209 -0.5295  0.2345 -0.2649
35739SOL    HW125209   4.291  10.199  13.215  0.3725  0.2648  1.2864
35739SOL    HW225210   4.386  10.312  13.185 -0.9150  0.6845 -1.4273
35740SOL     OW25211   8.033   8.477   1.621 -0.1144 -0.0861  0.2531
35740SOL    HW125212   8.017   8.564   1.656 -1.2933  0.5166 -1.5706
35740SOL    HW225213   8.024   8.488   1.526  1.6250 -1.8279 -0.1753
35741SOL     OW25214  11.428   4.924   1.457  0.0047 -0.4018  0.2402
35741SOL    HW125215  11.494   4.954   1.521 -0.5017  1.3472  0.0129
35741SOL    HW225216  11.355   4.985   1.469  0.0589  0.2478 -2.2567
35742SOL     OW25217   0.594  11.277   8.419 -0.2299  0.6623  0.3076
35742SOL    HW125218   0.678  11.320   8.404 -0.1708  0.3665 -0.2422
35742SOL    HW225219   0.554  11.271   8.332 -0.2934 -0.2738  0.3907
35743SOL     OW25220   5.471   6.500  11.254  0.3006 -0.3001 -0.5686
35743SOL    HW125221   5.486   6.449  11.174  0.8001 -2.5537  0.8888
35743SOL    HW225222   5.547   6.481  11.309  0.2895  1.7294  0.2345
35744SOL     OW25223   7.340   9.930  13.844  0.2783  0.6222  0.3481
35744SOL    HW125224   7.432   9.918  13.820 -0.2650  1.3201 -2.4699
35744SOL    HW225225   7.311   9.844  13.874  1.0900 -0.4564 -1.7733
35745SOL     OW25226   7.693   0.559   1.924 -1.0133 -0.0686 -0.2636
35745SOL    HW125227   7.781   0.555   1.886 -0.6755 -0.8715  0.5729
35745SOL    HW225228   7.665   0.468   1.929  0.2375 -0.4280  4.2969
35746SOL     OW25229  12.000   7.500   8.411 -0.8287  0.0420 -0.3379
35746SOL    HW125230  12.018   7.568   8.475  2.8860  0.5428 -1.6789
35746SOL    HW225231  11.993   7.546   8.328  2.1190 -1.0242 -1.3253
35747SOL     OW25232   9.457   5.332  12.761 -0.1955 -0.0902 -0.0326
35747SOL    HW125233   9.385   5.316  12.822 -0.0246  0.0518  0.2056
35747SOL    HW225234   9.453   5.426  12.744 -1.9313 -0.4694 -2.3332
35748SOL     OW25235   7.427   1.445   3.641 -0.0713  0.9309 -0.1121
35748SOL    HW125236   7.345   1.479   3.677 -0.8203  0.5357 -1.3908
35748SOL    HW225237   7.474   1.411   3.717 -2.7089 -2.2805  0.3016
35749SOL     OW25238   9.959   8.121   5.165 -0.1829 -0.1444 -0.4976
35749SOL    HW125239  10.007   8.097   5.244 -0.1033 -0.2647 -0.5830
35749SOL    HW225240  10.014   8.091   5.093 -0.7765 -1.0427 -0.5885
35750SOL     OW25241  13.391   6.982   8.721 -0.0063 -0.5136 -0.4363
35750SOL    HW125242  13.398   6.979   8.816  0.2788  0.8419 -0.4062
35750SOL    HW225243  13.318   6.923   8.701 -1.0881  0.3578  0.7430
35751SOL     OW25244  13.556   7.212   2.796 -0.1044 -0.2987  0.0972
35751SOL    HW125245  13.476   7.194   2.845  0.8887 -0.8032  1.6261
35751SOL    HW225246  13.553   7.305   2.778 -1.8052 -0.5976 -1.3351
35752SOL     OW25247   0.846  13.194   9.084 -1.3097 -0.3579 -0.1519
35752SOL    HW125248   0.931  13.153   9.100 -1.0410  0.5188  0.6842
35752SOL    HW225249   0.852  13.226   8.993 -0.0431  1.3225  0.4677
35753SOL     OW25250  10.370  13.607   4.014  0.1960  0.1378  0.5620
35753SOL    HW125251  10.383  13.594   3.920 -2.7550  1.7021 -0.1822
35753SOL    HW225252  10.408  13.693   4.032 -0.9980  0.7342  0.3203
35754SOL     OW25253  13.819   2.230   1.034  0.4080 -0.6657 -0.2210
35754SOL    HW125254  13.847   2.291   0.965  1.3860 -0.4082  0.3807
35754SOL    HW225255  13.901   2.196   1.070 -0.0573 -0.1326  1.4028
35755SOL     OW25256   9.657   7.210   8.307 -0.7904 -0.1119  0.7012
35755SOL    HW125257   9.632   7.302   8.296 -0.7994 -0.2345 -0.4501
35755SOL    HW225258   9.665   7.177   8.217 -0.6164 -1.1895  1.1038
35756SOL     OW25259   3.138   4.326  11.199 -0.1008  0.1690  0.0641
35756SOL    HW125260   3.090   4.248  11.229  0.9663 -0.8322 -0.7060
35756SOL    HW225261   3.224   4.318  11.238 -0.7706  2.4983  2.2723
35757SOL     OW25262   8.152   9.358   2.531 -0.1305 -0.3173  0.0102
35757SOL    HW125263   8.240   9.333   2.504 -0.6722 -1.0394 -1.1465
35757SOL    HW225264   8.163   9.445   2.571  1.1285 -0.5020  0.1012
35758SOL     OW25265   2.673   5.462  13.051  0.0248 -0.0105  0.0110
35758SOL    HW125266   2.579   5.443  13.054  0.0824 -0.2116  1.6133
35758SOL    HW225267   2.678   5.554  13.025 -0.5257 -0.4196 -1.6604
35759SOL     OW25268   3.198  12.501  11.382 -0.4823 -0.0200 -0.0403
35759SOL    HW125269   3.153  12.423  11.412  0.9777 -1.3889 -1.1829
35759SOL    HW225270   3.252  12.471  11.309  0.7429  1.9003 -0.0179
35760SOL     OW25271   8.737  13.350   8.021  0.1765 -1.2434  0.5509
35760SOL    HW125272   8.814  13.313   7.977 -0.7102 -1.3677 -0.9689
35760SOL    HW225273   8.766  13.367   8.110  2.6517  0.6993 -0.4919
35761SOL     OW25274   1.192   1.874   9.272 -0.2243  0.0793  0.8241
35761SOL    HW125275   1.264   1.935   9.290 -2.2185  1.7742  4.1351
35761SOL    HW225276   1.174   1.885   9.179  1.5700  2.1755  0.6420
35762SOL     OW25277   3.940  10.725  11.921 -0.5205 -0.3207  0.1742
35762SOL    HW125278   3.869  10.768  11.969  0.2645 -0.1963  1.2490
35762SOL    HW225279   4.007  10.706  11.987  0.1373 -1.1119 -0.6865
35763SOL     OW25280   8.984  11.326   8.911 -0.2045 -0.2168 -0.2171
35763SOL    HW125281   8.971  11.250   8.854  0.6887  0.1629 -0.9624
35763SOL    HW225282   8.942  11.398   8.865  0.7975  0.1575 -0.5897
35764SOL     OW25283   5.177   2.546   9.291  0.2533  0.2963 -0.1947
35764SOL    HW125284   5.188   2.464   9.340 -0.2495  1.2050  1.5097
35764SOL    HW225285   5.266   2.572   9.268  0.4681 -0.3294 -0.0891
35765SOL     OW25286  11.135   7.581   0.655  0.3377  0.2250 -0.2612
35765SOL    HW125287  11.207   7.518   0.662 -0.2489 -0.3323  1.0707
35765SOL    HW225288  11.086   7.553   0.578 -0.5748 -1.6893  0.9650
35766SOL     OW25289   6.247   5.355  10.552  0.1866 -0.7781 -0.0821
35766SOL    HW125290   6.338   5.325  10.547  0.2005 -1.3993  2.3323
35766SOL    HW225291   6.252   5.440  10.596 -0.3702 -0.6490 -0.2567
35767SOL     OW25292   5.336   4.777  13.541  0.2648 -0.1148  0.5203
35767SOL    HW125293   5.347   4.872  13.527  0.6678 -0.1051  0.8869
35767SOL    HW225294   5.329   4.741  13.453 -1.0157  0.3816  0.4008
35768SOL     OW25295   7.841   4.887  11.740 -0.2051 -0.0838  0.1446
35768SOL    HW125296   7.805   4.973  11.761 -0.3909 -0.0862 -0.1602
35768SOL    HW225297   7.895   4.902  11.663 -1.3097 -0.4796 -0.7361
35769SOL     OW25298   0.431   3.404   8.967  0.3217 -0.0434 -0.6101
35769SOL    HW125299   0.446   3.328   9.022  0.4006  0.8505  0.6358
35769SOL    HW225300   0.515   3.449   8.964  0.2910 -0.0206 -1.3869
35770SOL     OW25301   6.616  12.013  12.445 -0.0824  0.0647 -0.2342
35770SOL    HW125302   6.577  11.941  12.395 -2.9081  0.6402  0.9223
35770SOL    HW225303   6.665  11.971  12.515  0.1386 -0.7129 -0.8419
35771SOL     OW25304   9.551   9.646  10.099  0.1118 -0.3722  0.6572
35771SOL    HW125305   9.480   9.612  10.045 -0.1162 -0.8940  1.2698
35771SOL    HW225306   9.534   9.610  10.186  0.7924 -0.0138  0.9463
35772SOL     OW25307  13.144   8.794  10.872 -0.9610 -0.3027  0.9499
35772SOL    HW125308  13.053   8.797  10.841 -0.5869  2.3096 -0.1776
35772SOL    HW225309  13.194   8.771  10.794 -0.5589 -0.2967  1.2068
35773SOL     OW25310  11.675   5.622  11.996  0.1768 -0.2485 -0.4957
35773SOL    HW125311  11.584   5.608  12.021 -0.0640  0.3668 -0.9971
35773SOL    HW225312  11.672   5.642  11.903  0.6719  1.1324 -0.2397
35774SOL     OW25313   2.708  12.903  13.240 -0.0861 -0.3207 -0.1121
35774SOL    HW125314   2.736  12.952  13.317 -0.5046  0.4444 -0.4337
35774SOL    HW225315   2.734  12.957  13.165  0.8119 -1.3123 -0.5449
35775SOL     OW25316   3.382  13.172  11.812 -0.3871  0.8243  0.2025
35775SOL    HW125317   3.317  13.104  11.826 -0.3667  0.9323  0.8256
35775SOL    HW225318   3.432  13.142  11.736 -1.1870  0.7607 -0.3066
35776SOL     OW25319  10.183  12.628   1.233 -0.2596  0.3786  0.2186
35776SOL    HW125320  10.167  12.684   1.310 -0.0048 -0.1301  0.6493
35776SOL    HW225321  10.137  12.547   1.253  0.6368 -0.1214  0.2810
35777SOL     OW25322  10.804   9.336   5.608 -0.1564  0.0332  0.1462
35777SOL    HW125323  10.799   9.277   5.683 -2.1078  1.0741  0.8992
35777SOL    HW225324  10.717   9.375   5.602  1.1438  3.2629  0.0676
35778SOL     OW25325   1.065   1.567   6.455  0.2167  0.5053 -0.4174
35778SOL    HW125326   1.159   1.569   6.435  0.1806 -0.9669 -0.8736
35778SOL    HW225327   1.056   1.497   6.519 -0.5580  0.7426 -0.2632
35779SOL     OW25328  10.435   6.910  13.486  0.0209  0.4188 -0.6979
35779SOL    HW125329  10.446   6.981  13.423  0.1861  1.8970  0.9234
35779SOL    HW225330  10.369   6.942  13.547 -1.2242 -1.5680 -0.8947
35780SOL     OW25331   8.085   7.539   7.870  0.1659 -0.5931 -0.7137
35780SOL    HW125332   8.052   7.488   7.944 -3.0069  0.7911 -1.0046
35780SOL    HW225333   8.105   7.474   7.803 -0.2040 -1.6456  0.1612
35781SOL     OW25334   4.996  13.410   6.830  0.2304 -0.0545  0.0707
35781SOL    HW125335   4.991  13.330   6.882  0.3902 -0.4172 -0.4627
35781SOL    HW225336   5.082  13.448   6.852  0.2007 -0.0847  0.2390
35782SOL     OW25337   2.418  10.874   8.180  0.0503  0.4554  0.2299
35782SOL    HW125338   2.491  10.924   8.144 -0.2962  1.5631  1.0000
35782SOL    HW225339   2.375  10.934   8.241 -1.3137 -0.2770  0.0449
35783SOL     OW25340   8.631  11.899   2.837 -0.0474 -0.6339 -0.3243
35783SOL    HW125341   8.696  11.966   2.858 -0.2009 -0.8809  1.0446
35783SOL    HW225342   8.548  11.935   2.867  0.0616 -1.9689  1.8765
35784SOL     OW25343   9.384   5.809   0.091 -0.3881 -0.0654 -0.3719
35784SOL    HW125344   9.392   5.867   0.016  1.3274  0.6197  0.2786
35784SOL    HW225345   9.329   5.737   0.061 -0.0588  0.3885 -2.1520
35785SOL     OW25346   3.753   2.815   2.686  0.2604 -0.0750 -0.5864
35785SOL    HW125347   3.736   2.874   2.759  2.0682 -1.0359  0.7027
35785SOL    HW225348   3.799   2.869   2.622  1.6544  0.0308  0.4575
35786SOL     OW25349   7.751   2.214  10.315  0.6894  0.1328 -0.0085
35786SOL    HW125350   7.731   2.173  10.399  2.9292 -0.2072  0.4478
35786SOL    HW225351   7.737   2.308  10.330 -1.8821 -0.1452 -0.2488
35787SOL     OW25352  10.862   3.801   7.866  0.0451 -0.3270  0.4109
35787SOL    HW125353  10.905   3.718   7.845 -1.4859 -0.6663 -1.7085
35787SOL    HW225354  10.789   3.806   7.805 -0.5105  2.1256  1.1722
35788SOL     OW25355   5.458   8.162   5.476 -0.0456  0.7799  1.0336
35788SOL    HW125356   5.493   8.243   5.439 -1.2791  0.6526 -0.5702
35788SOL    HW225357   5.364   8.179   5.484 -0.5754 -0.9521 -0.7694
35789SOL     OW25358   3.620   7.778   6.018  0.0537  0.2498  1.3722
35789SOL    HW125359   3.529   7.754   6.003  0.4074  1.0540 -3.8596
35789SOL    HW225360   3.667   7.694   6.015 -0.2143  0.1163 -0.3736
35790SOL     OW25361   0.313   2.141   9.449  0.1448  0.1523  0.2884
35790SOL    HW125362   0.218   2.142   9.443  0.0652 -0.0745  1.3424
35790SOL    HW225363   0.340   2.064   9.400 -0.1727  0.4866 -0.4251
35791SOL     OW25364   9.722   6.977   9.559  0.0057  0.1751 -0.3033
35791SOL    HW125365   9.699   6.956   9.649 -0.2738  0.2021 -0.3706
35791SOL    HW225366   9.639   6.994   9.516  0.2171  1.4291 -0.2537
35792SOL     OW25367   8.689   4.769   0.779 -0.3966 -0.0244 -0.4586
35792SOL    HW125368   8.643   4.686   0.779 -1.5395  0.5413  1.4591
35792SOL    HW225369   8.643   4.822   0.844  2.7915  0.6831  1.4237
35793SOL     OW25370   5.816   6.747   3.434  0.0663  0.0472 -0.1598
35793SOL    HW125371   5.862   6.792   3.505  0.6579 -1.9896  0.8376
35793SOL    HW225372   5.749   6.809   3.406  0.7038  1.4511  1.2411
35794SOL     OW25373   8.063   1.782  13.673 -0.2270  0.3332 -0.4826
35794SOL    HW125374   7.980   1.791  13.718 -0.7611 -0.4788 -1.2788
35794SOL    HW225375   8.045   1.722  13.600  1.3154 -0.8296  0.0252
35795SOL     OW25376   0.744  13.760  13.853 -0.4866  0.2944  0.2871
35795SOL    HW125377   0.688  13.804  13.917 -2.3706 -1.9724  0.3182
35795SOL    HW225378   0.829  13.752  13.898 -0.9385  1.2825  1.3615
35796SOL     OW25379   2.203   0.108   0.127 -0.0190 -0.4006 -0.0501
35796SOL    HW125380   2.245   0.043   0.072 -1.6781 -1.3331 -0.3006
35796SOL    HW225381   2.187   0.063   0.210 -1.4815 -0.4788 -0.3354
35797SOL     OW25382  13.975   0.082   5.675  0.1229 -0.2199 -0.3987
35797SOL    HW125383  14.062   0.109   5.647 -0.1976  0.6585 -0.5726
35797SOL    HW225384  13.944   0.025   5.605  0.0095  0.5920 -1.0228
35798SOL     OW25385   7.877   3.146   5.022 -0.0089 -0.3937  0.2544
35798SOL    HW125386   7.868   3.060   5.062  0.9100 -0.7241 -0.2220
35798SOL    HW225387   7.788   3.169   4.995 -0.1860 -1.4370 -0.1024
35799SOL     OW25388   5.309   9.334   8.814  0.2025 -0.2586 -0.1671
35799SOL    HW125389   5.333   9.397   8.747 -0.1128 -1.3417 -1.3412
35799SOL    HW225390   5.214   9.346   8.825  0.0379 -0.9019 -0.8159
35800SOL     OW25391   1.929  11.716  10.614  0.0348  0.1735  0.0150
35800SOL    HW125392   2.016  11.676  10.611  0.1288  0.0378  2.3695
35800SOL    HW225393   1.892  11.684  10.697 -1.2291  2.2731  0.3161
35801SOL     OW25394   4.459   1.453   8.433  0.4845  0.0945  0.1760
35801SOL    HW125395   4.515   1.385   8.395  0.8791  0.0086  0.8894
35801SOL    HW225396   4.389   1.465   8.369 -0.6225 -2.2945  0.8281
35802SOL     OW25397   5.684   8.130   4.217  0.1486  0.0472  0.5235
35802SOL    HW125398   5.623   8.057   4.230 -1.4398  0.9480 -1.2351
35802SOL    HW225399   5.654   8.197   4.277  0.0674  0.1103  0.4142
35803SOL     OW25400  10.556  14.064   3.599  0.8715 -0.3527 -0.7190
35803SOL    HW125401  10.489  14.058   3.531  0.5396 -2.6944 -0.2751
35803SOL    HW225402  10.579  14.157   3.603 -1.1259  0.2473 -2.0525
35804SOL     OW25403   4.747  11.905  11.467 -0.1194 -0.1249 -0.1050
35804SOL    HW125404   4.839  11.883  11.453  0.4784  2.5215 -0.9404
35804SOL    HW225405   4.750  11.988  11.516 -2.0312  0.4788 -0.9340
35805SOL     OW25406   9.950   0.111   1.496  0.3429 -0.1119  0.4274
35805SOL    HW125407   9.927   0.089   1.586 -1.5545  0.8139  0.2242
35805SOL    HW225408   9.960   0.026   1.453  0.5310 -0.5641  1.3360
35806SOL     OW25409   9.551   4.266   4.627 -0.3725  0.1486  0.1936
35806SOL    HW125410   9.515   4.354   4.633 -0.1401  0.1952  1.0615
35806SOL    HW225411   9.504   4.216   4.693  0.4949 -0.0108  0.7136
35807SOL     OW25412   5.041  11.124   0.893  0.2125 -0.3163 -0.3621
35807SOL    HW125413   5.032  11.154   0.983 -0.3399 -0.0009 -0.5216
35807SOL    HW225414   5.124  11.162   0.863  0.8084 -1.0923  0.2662
35808SOL     OW25415   7.405  11.324   4.196 -0.5023  0.9327 -0.2420
35808SOL    HW125416   7.483  11.379   4.210 -0.9647  1.3534  0.7514
35808SOL    HW225417   7.438  11.234   4.203  0.2698  1.0427 -1.9321
35809SOL     OW25418   1.944   3.758   0.322  0.1067  0.7779  0.5140
35809SOL    HW125419   2.008   3.724   0.384 -0.4734 -0.7086  0.3459
35809SOL    HW225420   1.988   3.753   0.237  0.7538  2.4300  0.7160
35810SOL     OW25421   8.836  10.831   3.421 -0.0471  0.0132 -0.3050
35810SOL    HW125422   8.860  10.773   3.349  1.6711  0.5217 -0.2042
35810SOL    HW225423   8.889  10.801   3.495  1.3301  1.9722 -0.4014
35811SOL     OW25424   4.519   7.814  10.278 -0.0178 -0.0751  0.3953
35811SOL    HW125425   4.557   7.896  10.309  0.8787 -0.0309 -0.7186
35811SOL    HW225426   4.425   7.827  10.285  0.0279  1.7593 -1.3865
35812SOL     OW25427   4.393   9.142  10.742 -0.2673 -0.0414 -0.5103
35812SOL    HW125428   4.304   9.161  10.771  0.2612  1.6009  0.1880
35812SOL    HW225429   4.384   9.076  10.674 -1.8896 -1.0697  0.6613
35813SOL     OW25430   1.160   3.620  10.870  0.1261 -0.0206 -0.5481
35813SOL    HW125431   1.236   3.620  10.928  0.2511  1.2722 -0.6875
35813SOL    HW225432   1.197   3.633  10.782 -0.2514  0.6958 -0.6070
35814SOL     OW25433   5.704   3.947   5.668  0.0869 -0.1168 -0.9938
35814SOL    HW125434   5.689   3.983   5.581  3.1958  0.1649 -1.5434
35814SOL    HW225435   5.695   4.022   5.728 -0.3525  0.0636 -1.2865
35815SOL     OW25436  11.115   9.093  10.705  0.0665 -0.0449 -0.2445
35815SOL    HW125437  11.089   9.155  10.774  0.8902  0.0309  0.0128
35815SOL    HW225438  11.122   9.009  10.751 -0.2835 -0.1784 -0.4325
35816SOL     OW25439   0.232   6.232   6.498  0.2885  0.8591  0.2341
35816SOL    HW125440   0.138   6.222   6.510  0.5462  1.1682  3.1116
35816SOL    HW225441   0.271   6.163   6.552  1.7399  1.4292 -0.0288
35817SOL     OW25442   3.771   5.123  13.444 -0.2213 -0.3495  0.7276
35817SOL    HW125443   3.790   5.104  13.353 -3.4662  2.2245 -0.7102
35817SOL    HW225444   3.782   5.040  13.489  2.3360 -1.5289 -1.7631
35818SOL     OW25445   0.005   2.691   1.162  0.4359 -0.1181  0.0083
35818SOL    HW125446  -0.089   2.707   1.159  0.1873 -1.0373  1.6482
35818SOL    HW225447   0.044   2.767   1.118 -1.0200  0.6947  0.0659
35819SOL     OW25448   2.801  10.798   0.506  0.4966 -0.6169  0.4269
35819SOL    HW125449   2.832  10.886   0.482 -1.5498 -0.4642 -2.2802
35819SOL    HW225450   2.878  10.752   0.537  1.3118  2.6901  4.0983
35820SOL     OW25451   3.746   5.089   1.578  0.5427 -0.5757 -0.0019
35820SOL    HW125452   3.680   5.030   1.615  0.7165 -0.6025  0.2664
35820SOL    HW225453   3.725   5.092   1.484 -0.5385  0.3200  0.2445
35821SOL     OW25454   9.421  10.062  11.870  0.0459  0.3580  0.1293
35821SOL    HW125455   9.400  10.140  11.922  0.3221 -0.6981  1.8949
35821SOL    HW225456   9.482  10.094  11.803 -2.6482  2.3674 -1.6154
35822SOL     OW25457   8.684  10.870  11.719  0.0129 -0.0842 -0.0172
35822SOL    HW125458   8.772  10.897  11.745  0.4692 -0.3321 -1.2115
35822SOL    HW225459   8.687  10.774  11.716 -0.6814 -0.1685  1.1405
35823SOL     OW25460   5.161  13.542  10.374  0.4415 -0.3710  0.4184
35823SOL    HW125461   5.130  13.631  10.354  1.0971 -0.0862  0.6367
35823SOL    HW225462   5.126  13.524  10.462 -0.5831 -0.7561 -0.0522
35824SOL     OW25463   6.972  11.284   9.365 -0.2501  0.1857 -0.2602
35824SOL    HW125464   7.054  11.335   9.361  0.0371 -0.3377 -1.4731
35824SOL    HW225465   6.904  11.350   9.378  0.3064  0.6818  0.2228
35825SOL     OW25466   0.223   9.475   8.210 -0.1704 -0.2661 -0.1853
35825SOL    HW125467   0.313   9.467   8.244 -0.9087  0.3769  2.1553
35825SOL    HW225468   0.187   9.387   8.217 -0.5001 -0.0417  1.4566
35826SOL     OW25469   3.587   5.233   7.882  0.6534  0.2802 -0.3839
35826SOL    HW125470   3.518   5.279   7.930 -0.6604  1.1442 -2.8920
35826SOL    HW225471   3.669   5.262   7.922 -0.3164  1.6542  0.6977
35827SOL     OW25472   9.797  12.718   5.572  0.3524 -0.1245 -0.3869
35827SOL    HW125473   9.792  12.641   5.515  0.2849 -0.8576  0.5991
35827SOL    HW225474   9.718  12.714   5.625  0.0535  0.9520 -0.7067
35828SOL     OW25475   8.335  14.034   2.647 -0.2800  0.0045  0.2304
35828SOL    HW125476   8.331  14.089   2.569 -0.5080  0.1849  0.3690
35828SOL    HW225477   8.300  14.089   2.718  0.4868  0.0473  0.5815
35829SOL     OW25478  13.278   1.449   6.225  0.1529 -0.9566 -0.1734
35829SOL    HW125479  13.288   1.494   6.141 -1.0383 -0.8182 -0.2681
35829SOL    HW225480  13.367   1.434   6.256  0.5965 -0.4958 -1.1909
35830SOL     OW25481   8.052  10.415   7.626  0.6652 -0.9141  0.6324
35830SOL    HW125482   7.998  10.371   7.560  1.6081 -2.2581  0.7250
35830SOL    HW225483   8.118  10.350   7.650  2.3910  0.7152  0.4666
35831SOL     OW25484   4.287   1.117  12.720 -0.2159  0.1652 -1.0392
35831SOL    HW125485   4.374   1.158  12.720  1.1262 -2.4539 -1.1242
35831SOL    HW225486   4.274   1.090  12.811 -1.2796  1.0797 -0.8928
35832SOL     OW25487  13.202  13.839   9.299  0.0698  0.2116 -0.2512
35832SOL    HW125488  13.116  13.812   9.333  1.6061 -2.5671  1.7644
35832SOL    HW225489  13.215  13.926   9.337 -1.7542  0.6511 -0.5016
35833SOL     OW25490  14.128   7.000  10.974 -0.2694 -0.5704  0.5731
35833SOL    HW125491  14.122   6.984  11.068  1.0535  4.1094  1.7651
35833SOL    HW225492  14.220   7.021  10.960 -0.9340  1.6653 -1.0378
35834SOL     OW25493   7.575   2.327   9.419  0.0938 -0.1733  0.4200
35834SOL    HW125494   7.536   2.335   9.332 -0.7236 -0.0514  0.7811
35834SOL    HW225495   7.543   2.243   9.452  2.2130 -1.3140 -0.2445
35835SOL     OW25496   6.815  11.486  13.136  0.1750  0.5157 -0.1863
35835SOL    HW125497   6.755  11.488  13.210 -0.3322  0.1162 -0.5857
35835SOL    HW225498   6.873  11.562  13.150 -1.8477  2.3057 -1.0065
35836SOL     OW25499  13.905  12.680   4.810 -0.5593 -0.0161  0.4440
35836SOL    HW125500  13.849  12.610   4.776 -0.5444 -0.9736  2.3127
35836SOL    HW225501  13.958  12.639   4.877  1.0556  1.3197  0.0570
35837SOL     OW25502  11.242   3.872   4.984  0.5247  0.1478 -0.1890
35837SOL    HW125503  11.273   3.882   5.074 -1.3563 -1.8762  0.7767
35837SOL    HW225504  11.321   3.856   4.932  1.5737  0.6645  1.2088
35838SOL     OW25505  13.139  12.977   5.012  0.1639  0.1533 -0.5646
35838SOL    HW125506  13.233  12.957   5.019 -0.4427 -2.7262  0.6389
35838SOL    HW225507  13.123  13.039   5.083  0.8774 -0.6069  0.2920
35839SOL     OW25508   5.258  12.825  13.335  0.3819  0.5146  0.1032
35839SOL    HW125509   5.288  12.832  13.245 -0.4566  0.4691 -0.1872
35839SOL    HW225510   5.268  12.733  13.357 -0.6510  0.2687 -0.3975
35840SOL     OW25511  13.507   1.546   6.952 -0.0575  0.5229 -0.2906
35840SOL    HW125512  13.479   1.571   7.041 -1.0888  1.2140 -0.7802
35840SOL    HW225513  13.435   1.576   6.896  1.3956  1.8064 -1.5706
35841SOL     OW25514   8.497   1.739   8.792  0.1165 -0.3210 -0.1384
35841SOL    HW125515   8.474   1.670   8.730  1.0833  0.5338 -1.4933
35841SOL    HW225516   8.590   1.755   8.777  0.0986  0.7117  0.7332
35842SOL     OW25517  13.030  12.346   1.270  0.6175 -0.1910  0.4254
35842SOL    HW125518  13.104  12.405   1.257  1.1312 -1.0976 -0.9897
35842SOL    HW225519  13.064  12.259   1.248 -0.7977 -0.6596 -0.0414
35843SOL     OW25520   8.830   9.382   9.279  0.6515 -0.3433  0.1426
35843SOL    HW125521   8.784   9.312   9.234  1.1700  0.2443 -1.3798
35843SOL    HW225522   8.767   9.455   9.281  1.5596  0.6244 -2.3744
35844SOL     OW25523   2.416   0.409   1.036 -0.1677 -0.0945  0.0695
35844SOL    HW125524   2.439   0.359   1.114  0.7370  1.2988  0.7331
35844SOL    HW225525   2.336   0.456   1.060 -0.1853 -0.0696 -0.0340
35845SOL     OW25526   9.799   5.961   6.727  0.0581  0.1336  0.5526
35845SOL    HW125527   9.874   5.908   6.754  0.1551 -0.4916 -0.8549
35845SOL    HW225528   9.746   5.902   6.673 -1.8233  0.3610  2.0563
35846SOL     OW25529  12.308   2.143   4.543 -0.3488  0.1249 -0.0241
35846SOL    HW125530  12.299   2.058   4.500 -0.0917 -0.5535  1.1965
35846SOL    HW225531  12.238   2.197   4.506 -1.4827 -1.0991  0.2868
35847SOL     OW25532   5.808   8.763  11.622 -0.1045  0.8671  0.1181
35847SOL    HW125533   5.727   8.806  11.593 -0.9648  0.7548  2.2259
35847SOL    HW225534   5.854   8.830  11.672  2.0574  1.5107 -2.4742
35848SOL     OW25535   9.820  12.438  11.816  0.0420 -0.7467  0.2979
35848SOL    HW125536   9.778  12.357  11.847 -0.8771 -0.5518 -0.3993
35848SOL    HW225537   9.809  12.436  11.721  1.4214 -0.5613  0.1204
35849SOL     OW25538   3.451   4.772   6.095  0.6814 -0.4964 -0.5930
35849SOL    HW125539   3.545   4.755   6.106  0.3485 -2.0832  0.0587
35849SOL    HW225540   3.444   4.868   6.097  2.1835 -0.3625  0.2983
35850SOL     OW25541   4.017  13.410  11.353 -0.0300  0.2600 -0.3130
35850SOL    HW125542   3.958  13.345  11.316 -0.0637  0.5895 -0.8445
35850SOL    HW225543   4.012  13.396  11.448  0.1757 -0.6876 -0.4358
35851SOL     OW25544   3.457   8.809   8.752  0.8349 -0.0837  0.5814
35851SOL    HW125545   3.471   8.788   8.845  1.3554 -1.3855  0.2164
35851SOL    HW225546   3.545   8.830   8.719  0.5234  1.3783  0.5916
35852SOL     OW25547   8.904   6.262   2.687  0.1480  0.2700  0.0861
35852SOL    HW125548   8.876   6.318   2.614  0.2901 -1.2448 -1.1821
35852SOL    HW225549   8.996   6.243   2.668  0.1216 -0.3189  0.5504
35853SOL     OW25550   0.316   3.336   6.343 -0.2139  0.1688  0.1098
35853SOL    HW125551   0.267   3.358   6.264 -1.9281 -0.4652  0.9560
35853SOL    HW225552   0.288   3.248   6.366 -1.3473  1.0601  2.5399
35854SOL     OW25553  13.727  13.189   8.810 -0.1282 -0.4588  0.9117
35854SOL    HW125554  13.639  13.170   8.842  0.3044 -2.0894  1.2034
35854SOL    HW225555  13.751  13.271   8.853 -2.1934  1.0618 -0.6238
35855SOL     OW25556   1.760  14.043  12.717 -0.0972 -0.3918 -0.2090
35855SOL    HW125557   1.824  13.998  12.772 -0.6325  1.2226  1.8619
35855SOL    HW225558   1.697  14.080  12.778 -1.8147 -0.0661 -2.0541
35856SOL     OW25559  10.349   5.573  13.064 -0.0095  0.1155  0.4571
35856SOL    HW125560  10.265   5.609  13.093 -0.1607 -0.2262  0.4400
35856SOL    HW225561  10.411   5.646  13.074 -0.6439  0.9486 -1.2144
35857SOL     OW25562  11.568   1.047   4.442  0.7422 -0.6004  0.3032
35857SOL    HW125563  11.511   1.004   4.379  0.9607  0.7819 -0.8830
35857SOL    HW225564  11.564   0.992   4.520  1.4878 -3.0724 -1.3030
35858SOL     OW25565   1.458   8.172   8.057 -0.1321  0.2886  0.2384
35858SOL    HW125566   1.426   8.241   8.116  0.3330  0.6784  0.0396
35858SOL    HW225567   1.521   8.217   8.000  0.5156 -0.3980  0.4030
35859SOL     OW25568  11.527  12.789   2.912 -0.1502  0.1587  0.2851
35859SOL    HW125569  11.458  12.732   2.946  0.4607 -0.0170  1.2456
35859SOL    HW225570  11.492  12.878   2.924 -0.4089  0.0546  0.3058
35860SOL     OW25571  11.389   5.935  10.704  0.5453 -0.5824 -0.1636
35860SOL    HW125572  11.351   5.939  10.792  1.0867 -0.5700  0.0725
35860SOL    HW225573  11.439   6.016  10.696 -1.2952  0.4891 -1.3247
35861SOL     OW25574   8.283   4.220   8.536 -0.5680  0.1255  0.0784
35861SOL    HW125575   8.347   4.209   8.606 -0.5488 -1.7365 -0.1939
35861SOL    HW225576   8.320   4.289   8.481  0.8908 -0.4465  0.2915
35862SOL     OW25577   9.170  14.007   0.239 -0.0373 -0.2048  0.5256
35862SOL    HW125578   9.231  13.975   0.172 -0.4190 -0.3430  0.2374
35862SOL    HW225579   9.214  14.083   0.278  0.9591 -1.1683  1.3353
35863SOL     OW25580   3.027   9.808   8.062  0.0492 -0.3387  0.0412
35863SOL    HW125581   3.062   9.879   8.007 -0.0639 -1.3486 -1.4006
35863SOL    HW225582   3.066   9.729   8.025 -1.0939 -1.1728  0.5856
35864SOL     OW25583   6.304   5.770   7.200  0.0656 -0.0834 -0.0467
35864SOL    HW125584   6.294   5.848   7.255  0.0573 -0.6493  0.7680
35864SOL    HW225585   6.381   5.789   7.146 -0.1437  0.6272 -0.1132
35865SOL     OW25586  13.122   3.365   5.055  0.4448  0.1869 -0.0719
35865SOL    HW125587  13.073   3.338   4.977 -0.7554  1.2690  0.2805
35865SOL    HW225588  13.116   3.460   5.056 -0.0122  0.1733  1.6214
35866SOL     OW25589   0.102   6.867   2.568 -0.0449  0.0888  0.2134
35866SOL    HW125590   0.015   6.908   2.572 -0.0101  0.3853 -1.3824
35866SOL    HW225591   0.163   6.939   2.588 -0.1357 -0.0741  1.1324
35867SOL     OW25592   9.755  10.990   0.128  0.3178 -0.1988  0.2375
35867SOL    HW125593   9.685  11.054   0.125  1.3770  1.0196  0.4832
35867SOL    HW225594   9.830  11.038   0.164  1.3171 -1.3970 -0.1652
35868SOL     OW25595   6.978   7.433  12.623  0.5793  0.5061 -0.0897
35868SOL    HW125596   6.899   7.482  12.647  0.5428  0.9625 -1.0914
35868SOL    HW225597   6.950   7.342  12.622  0.1391  0.6389 -0.1325
35869SOL     OW25598   1.766   5.218  11.646 -0.2123 -0.4369 -0.6267
35869SOL    HW125599   1.851   5.173  11.638 -0.2935 -0.6235 -0.4472
35869SOL    HW225600   1.753   5.226  11.740  0.1424  0.6142 -0.6596
35870SOL     OW25601   7.612  13.973  11.301 -0.2742 -0.4685  0.1508
35870SOL    HW125602   7.533  14.027  11.298 -0.2112 -0.3951 -0.3995
35870SOL    HW225603   7.675  14.023  11.352 -0.1131  0.1263 -0.6080
35871SOL     OW25604   6.835   9.129   4.769 -0.1695 -0.4013  0.3237
35871SOL    HW125605   6.911   9.070   4.766 -1.2449 -1.8363  0.2226
35871SOL    HW225606   6.819   9.143   4.862 -0.1842 -0.6468  0.3591
35872SOL     OW25607  12.374   0.421   5.184 -0.4636  0.1205  0.1401
35872SOL    HW125608  12.359   0.340   5.234  4.6187 -0.4022  1.4079
35872SOL    HW225609  12.368   0.393   5.092  0.7341 -1.7039  0.5477
35873SOL     OW25610   7.655   5.924  12.020  0.1804 -0.3294  0.2766
35873SOL    HW125611   7.566   5.959  12.024  0.4163  0.3374 -0.0553
35873SOL    HW225612   7.698   5.958  12.099  0.2776 -0.2549  0.1924
35874SOL     OW25613  11.411  10.150   3.443  0.1291 -0.3169  0.4469
35874SOL    HW125614  11.460  10.077   3.406  1.3116  0.9266 -0.5192
35874SOL    HW225615  11.379  10.117   3.527  0.3389 -2.0382 -0.1110
35875SOL     OW25616  13.902   6.925   1.325 -0.2573  0.0607  0.1222
35875SOL    HW125617  13.852   7.002   1.354 -0.6808  0.3725 -1.3597
35875SOL    HW225618  13.983   6.928   1.377  0.0755  1.9495 -0.4373
35876SOL     OW25619  12.715   5.290  12.376 -0.1907 -0.0126  0.1500
35876SOL    HW125620  12.796   5.314  12.422 -0.5369  0.1334  0.6910
35876SOL    HW225621  12.745   5.256  12.292  0.4697 -0.4970  0.5652
35877SOL     OW25622   3.885  10.694   3.154 -0.2379  0.4807  0.1711
35877SOL    HW125623   3.941  10.714   3.079 -1.0537  0.6154 -0.4147
35877SOL    HW225624   3.796  10.713   3.124 -0.6124  0.2078  1.0609
35878SOL     OW25625  10.404   2.479  10.863  0.1557  0.3219 -0.6036
35878SOL    HW125626  10.477   2.419  10.850 -1.0417 -1.0309 -1.3155
35878SOL    HW225627  10.443   2.566  10.852  1.7724 -0.3276 -0.2998
35879SOL     OW25628  11.551  10.530   1.310  0.4001 -0.2473 -0.5371
35879SOL    HW125629  11.588  10.602   1.361  2.9904 -2.7742  1.4541
35879SOL    HW225630  11.466  10.513   1.350  0.7894  0.1861  0.4938
35880SOL     OW25631   8.062   5.593  12.005  0.1371 -0.1951  0.0337
35880SOL    HW125632   8.104   5.651  12.069 -0.6723 -1.3844  1.7058
35880SOL    HW225633   8.102   5.507  12.020 -0.8621 -0.7361 -0.3019
35881SOL     OW25634  11.219   7.658  11.533  0.1588 -0.3770  0.0387
35881SOL    HW125635  11.265   7.607  11.600  2.9596 -0.0895 -1.5402
35881SOL    HW225636  11.181   7.593  11.475  0.0752 -0.6269  0.3670
35882SOL     OW25637   2.804   7.643   0.610 -0.0909  0.0623  0.3124
35882SOL    HW125638   2.863   7.569   0.620 -1.1327 -0.6752  1.2263
35882SOL    HW225639   2.856   7.719   0.637  0.7745 -0.4110  0.0195
35883SOL     OW25640   6.114  10.238  12.705 -0.1499  0.6823  0.2529
35883SOL    HW125641   6.144  10.229  12.795  3.7663 -2.2615 -1.0632
35883SOL    HW225642   6.049  10.168  12.694 -1.1124  1.4563  0.8868
35884SOL     OW25643   9.416  13.915   7.345 -0.5278 -0.6707  0.2905
35884SOL    HW125644   9.408  13.982   7.277 -1.8813  0.4304  1.4572
35884SOL    HW225645   9.444  13.964   7.423 -1.7364 -1.4062  1.2179
35885SOL     OW25646   4.037   4.992  10.068 -0.1768 -0.0909 -0.4007
35885SOL    HW125647   4.086   4.975  10.148 -0.7267 -0.2498 -0.0958
35885SOL    HW225648   4.104   4.993   9.999  0.0541 -2.1673 -0.2627
35886SOL     OW25649   6.753   0.579   2.593  0.7088  0.0258  0.0035
35886SOL    HW125650   6.781   0.487   2.593  1.1119  0.1490 -0.1838
35886SOL    HW225651   6.756   0.605   2.686 -0.2983 -0.4136  0.1800
35887SOL     OW25652   1.209   8.780   7.450 -0.6912  0.0827  0.5717
35887SOL    HW125653   1.209   8.723   7.374 -0.6990  0.5192  0.2391
35887SOL    HW225654   1.233   8.866   7.416  1.0698 -0.0678  1.3506
35888SOL     OW25655   6.679   1.404  11.554  0.2523 -0.3150  0.2993
35888SOL    HW125656   6.664   1.434  11.644  0.8643 -2.0040  0.9912
35888SOL    HW225657   6.631   1.467  11.500  0.2179  0.9789  1.7718
35889SOL     OW25658  13.904  13.767  10.907 -0.0378  0.4875 -0.4793
35889SOL    HW125659  13.958  13.838  10.872 -1.4695  2.5671  1.2633
35889SOL    HW225660  13.950  13.740  10.987  0.8959 -1.1499 -1.5219
35890SOL     OW25661   0.208   3.960   4.511  0.3208 -0.1792  0.3330
35890SOL    HW125662   0.258   3.940   4.432 -0.2462 -0.3258  0.0055
35890SOL    HW225663   0.275   3.979   4.577  0.8270 -1.1863  0.1261
35891SOL     OW25664  10.752   0.840  11.071 -0.1729 -0.2395  0.3323
35891SOL    HW125665  10.690   0.899  11.026 -0.8081  0.0452  1.5341
35891SOL    HW225666  10.730   0.753  11.037  0.4006  0.1297 -1.0483
35892SOL     OW25667   1.055  13.363  12.219 -0.2649 -0.1242  0.7016
35892SOL    HW125668   1.090  13.341  12.306 -1.1844 -1.4322  0.7713
35892SOL    HW225669   1.116  13.322  12.158 -0.7864 -1.0533  0.7897
35893SOL     OW25670  13.899   5.278   8.754  0.3689  0.2371  0.0175
35893SOL    HW125671  13.966   5.217   8.784  2.8039  1.9574 -1.5307
35893SOL    HW225672  13.840   5.224   8.701  1.2090 -1.1462  0.4391
35894SOL     OW25673   8.947  12.492   3.480 -0.2231 -0.0154 -0.6275
35894SOL    HW125674   8.959  12.409   3.432  0.3328 -0.1633 -0.2504
35894SOL    HW225675   8.903  12.466   3.560  0.5408 -0.0549 -0.2070
35895SOL     OW25676   1.840   6.561   7.744 -0.5940 -0.2340  0.0979
35895SOL    HW125677   1.774   6.630   7.734  0.9321  1.2205 -0.5751
35895SOL    HW225678   1.906   6.599   7.802  0.4223 -1.0215 -0.5066
35896SOL     OW25679  11.243   9.421   8.169 -0.3406  0.4427  0.2728
35896SOL    HW125680  11.184   9.410   8.095  0.0405  0.5582 -0.0529
35896SOL    HW225681  11.201   9.488   8.224 -1.5340 -0.9221  1.1096
35897SOL     OW25682   3.802  10.855   7.296 -0.3880 -0.3819  0.0578
35897SOL    HW125683   3.747  10.923   7.258  0.1638 -0.6839 -1.3302
35897SOL    HW225684   3.848  10.816   7.221 -0.6332 -2.2321  0.8188
35898SOL     OW25685   2.293   5.467   7.103 -0.5267 -0.8798  0.1827
35898SOL    HW125686   2.242   5.547   7.095 -0.7308 -1.0157  0.1205
35898SOL    HW225687   2.380   5.490   7.070 -0.7967 -0.8844 -0.5378
35899SOL     OW25688   0.661  11.106   4.237 -0.3214 -0.1424  0.1143
35899SOL    HW125689   0.741  11.158   4.230  0.7885 -1.6554  0.9742
35899SOL    HW225690   0.602  11.160   4.289  0.2663  0.8417 -0.2126
35900SOL     OW25691   6.973  11.733   0.168  0.2568  0.1261  0.0646
35900SOL    HW125692   6.902  11.779   0.123 -0.2515  0.2746  0.9993
35900SOL    HW225693   6.934  11.651   0.197  0.1737  0.6337  1.4465
35901SOL     OW25694   5.286   7.493   1.640 -0.1270  0.0007  0.0211
35901SOL    HW125695   5.309   7.479   1.732 -1.8945 -1.1489  0.3329
35901SOL    HW225696   5.250   7.581   1.636  0.1521  0.1298  0.3907
35902SOL     OW25697   6.629   3.426   2.943 -0.2128  0.6586  0.3402
35902SOL    HW125698   6.561   3.361   2.959 -2.3561  2.3249 -1.3123
35902SOL    HW225699   6.622   3.488   3.015 -1.6658  1.7154 -0.6537
35903SOL     OW25700   0.318   0.796   5.298  0.1335  0.1823 -0.1782
35903SOL    HW125701   0.297   0.751   5.381  0.8364  1.0997  0.5144
35903SOL    HW225702   0.233   0.810   5.256 -0.1613 -1.1260 -0.0636
35904SOL     OW25703   8.750   1.273  13.399 -0.3241 -0.2117 -0.0219
35904SOL    HW125704   8.697   1.319  13.334 -0.2016 -1.6329 -1.1731
35904SOL    HW225705   8.840   1.281  13.367 -0.4585 -2.6501 -1.2112
35905SOL     OW25706   2.360   9.231   8.551 -0.1660  0.3842 -0.0396
35905SOL    HW125707   2.395   9.275   8.628  0.4757  0.1277 -0.1790
35905SOL    HW225708   2.355   9.298   8.483  2.1413 -0.0240 -0.6813
35906SOL     OW25709   9.089   5.632   0.904 -0.0412 -0.0987 -0.0527
35906SOL    HW125710   9.128   5.594   0.825  1.0584 -1.4376  1.0792
35906SOL    HW225711   9.146   5.707   0.925 -1.5926  1.6486 -1.6835
35907SOL     OW25712   7.051  11.141  12.170 -0.2518  0.3734 -0.2212
35907SOL    HW125713   7.136  11.149  12.213 -0.7204 -0.5739  0.9341
35907SOL    HW225714   7.065  11.176  12.082  1.3555  0.1520 -0.0805
35908SOL     OW25715   7.754   6.506   0.977 -0.2153  0.6923  0.2365
35908SOL    HW125716   7.842   6.515   1.012  0.3516  0.0434 -0.9792
35908SOL    HW225717   7.722   6.423   1.012  0.3188  0.0842 -0.6916
35909SOL     OW25718  13.594  11.132   3.329  0.0856  0.6884  0.3020
35909SOL    HW125719  13.595  11.227   3.329 -1.2935  0.7568  2.0740
35909SOL    HW225720  13.504  11.109   3.304  0.2552 -0.1340  0.4159
35910SOL     OW25721   0.451   5.972   1.557  0.9861 -0.3239 -0.0840
35910SOL    HW125722   0.389   5.990   1.487 -0.5848 -0.7794  1.1425
35910SOL    HW225723   0.481   6.058   1.585 -2.4761  0.3123  2.2175
35911SOL     OW25724   2.618   7.541  10.925  0.3744  0.0967 -0.2918
35911SOL    HW125725   2.637   7.479  10.854  1.9351  0.2687 -0.0709
35911SOL    HW225726   2.529   7.521  10.951  0.5249 -1.4510 -0.8422
35912SOL     OW25727  13.725   9.015  11.647  0.0867  0.4744 -0.3563
35912SOL    HW125728  13.720   8.921  11.632  1.4817  0.4088 -0.5446
35912SOL    HW225729  13.743   9.053  11.561 -0.7319  0.9510 -0.3274
35913SOL     OW25730   2.526  12.463   0.160 -0.4611 -0.0807 -0.0172
35913SOL    HW125731   2.617  12.433   0.155  0.4151  2.3948 -0.6469
35913SOL    HW225732   2.495  12.463   0.070 -1.3479 -1.5371  0.2642
35914SOL     OW25733   4.516   0.541   6.704  0.3917  0.2676  0.7141
35914SOL    HW125734   4.487   0.463   6.657 -0.3697  1.5973 -1.1470
35914SOL    HW225735   4.611   0.541   6.695  0.3487 -0.1513  0.2119
35915SOL     OW25736  10.176   1.166   4.040  0.6905 -0.4163  0.5768
35915SOL    HW125737  10.246   1.128   4.093  0.7961  0.6209  1.2122
35915SOL    HW225738  10.127   1.090   4.008  1.9571 -1.1480  0.3025
35916SOL     OW25739  10.754   1.602   5.415 -0.4038 -0.4437 -0.2574
35916SOL    HW125740  10.717   1.545   5.483  0.1075 -1.1148 -0.5182
35916SOL    HW225741  10.679   1.648   5.377 -0.7252 -0.2634  0.5772
35917SOL     OW25742   2.473   4.090  12.953  0.3533  0.1714 -0.4850
35917SOL    HW125743   2.378   4.082  12.962  0.1333  1.2537 -1.5720
35917SOL    HW225744   2.487   4.182  12.930  1.7374  0.2048  0.3707
35918SOL     OW25745  12.267   0.510   3.994 -0.1844 -0.6276 -0.0243
35918SOL    HW125746  12.213   0.505   3.915 -0.4490 -1.5462  0.2028
35918SOL    HW225747  12.257   0.424   4.035  0.4906 -0.3898  0.6553
35919SOL     OW25748   4.478   5.728   1.231 -0.6156 -0.0278  0.3434
35919SOL    HW125749   4.441   5.802   1.279 -1.0110  0.2244 -0.3272
35919SOL    HW225750   4.543   5.767   1.173 -0.8418 -0.1988 -0.0300
35920SOL     OW25751   7.514  11.305   7.237 -0.2405  0.5490 -0.4334
35920SOL    HW125752   7.566  11.302   7.317 -0.5010 -0.6731 -0.2971
35920SOL    HW225753   7.429  11.267   7.261 -0.0331 -0.6751 -1.4823
35921SOL     OW25754   5.940   4.753   3.616 -0.3286 -0.3466  0.1348
35921SOL    HW125755   5.960   4.846   3.626  0.8136 -0.0780 -3.3360
35921SOL    HW225756   5.892   4.748   3.534 -0.2367 -2.8628  0.1729
35922SOL     OW25757   1.767   5.619  10.547 -0.0559  0.1428 -0.0063
35922SOL    HW125758   1.821   5.551  10.588  0.8866 -0.5193 -2.1928
35922SOL    HW225759   1.829   5.676  10.502 -0.9899  1.2441  0.0494
35923SOL     OW25760   8.055  13.765   4.276 -0.3111  0.7175 -0.2194
35923SOL    HW125761   8.022  13.717   4.353  3.3562  1.0181  1.7763
35923SOL    HW225762   8.114  13.702   4.233 -1.0235  1.1286 -1.8282
35924SOL     OW25763  11.450  10.170   1.744 -0.2401  0.4057 -0.5132
35924SOL    HW125764  11.537  10.142   1.774  0.1633  0.3641 -1.6784
35924SOL    HW225765  11.433  10.250   1.794 -0.0284 -0.1735  0.5282
35925SOL     OW25766   9.968   9.317   0.134  0.6344  0.0584 -0.7267
35925SOL    HW125767   9.962   9.288   0.044 -0.4538  0.0949 -0.6749
35925SOL    HW225768   9.942   9.409   0.132  0.7731  0.1092 -0.3999
35926SOL     OW25769   2.601  11.366  11.715 -0.2125  0.2277  1.0478
35926SOL    HW125770   2.540  11.296  11.691  0.1789  0.9119 -2.4031
35926SOL    HW225771   2.597  11.369  11.811 -0.8394 -3.9439  1.3494
35927SOL     OW25772   3.575   4.982  10.486 -0.3513 -0.1506 -0.2183
35927SOL    HW125773   3.527   5.010  10.408 -0.5406 -2.1770 -0.8913
35927SOL    HW225774   3.644   5.047  10.496 -1.1215  0.8770 -1.2995
35928SOL     OW25775   9.675   6.518   8.460  0.4265 -0.5118 -0.0494
35928SOL    HW125776   9.634   6.519   8.373 -1.2595  0.3414  0.7227
35928SOL    HW225777   9.652   6.432   8.496 -0.4625 -0.1529  0.2609
35929SOL     OW25778   4.998   8.035   9.239  0.1338  0.1123 -0.0147
35929SOL    HW125779   5.002   8.030   9.143  0.9473  0.5325 -0.0116
35929SOL    HW225780   5.086   8.010   9.268 -0.5971 -1.8001  0.7259
35930SOL     OW25781   0.702  11.669   6.105  0.0885  0.9256 -0.1567
35930SOL    HW125782   0.665  11.581   6.110 -0.0932  0.9072 -1.4923
35930SOL    HW225783   0.626  11.727   6.116  0.1620  0.9137  0.4155
35931SOL     OW25784   6.635  13.868  11.006  0.4101 -0.2597 -0.0952
35931SOL    HW125785   6.729  13.855  10.994  0.8317  1.3968  1.0979
35931SOL    HW225786   6.605  13.902  10.922  1.5995  2.5260  0.4869
35932SOL     OW25787   3.908   8.056   6.604 -0.1049 -0.1589  0.1173
35932SOL    HW125788   3.916   7.961   6.601  2.3239 -0.2703  3.5287
35932SOL    HW225789   3.855   8.073   6.682 -0.2799  1.2997 -0.2903
35933SOL     OW25790  12.469   6.129   1.876  0.1893 -0.3959 -0.3648
35933SOL    HW125791  12.391   6.128   1.932 -0.4169  1.1978 -1.1282
35933SOL    HW225792  12.526   6.196   1.915 -0.6728  1.4809 -2.1236
35934SOL     OW25793  11.641  12.617   2.619  0.3140 -0.0085  0.4147
35934SOL    HW125794  11.731  12.639   2.591  0.2549 -0.4028 -0.1117
35934SOL    HW225795  11.619  12.684   2.684  0.3975  1.0738 -0.6237
35935SOL     OW25796  12.474   3.325   6.261  0.1321 -0.0339 -0.1216
35935SOL    HW125797  12.403   3.360   6.315  0.2801 -0.5195  0.4051
35935SOL    HW225798  12.554   3.352   6.308  0.3072  0.5985 -0.7605
35936SOL     OW25799   5.561   3.412  11.242  0.2239  0.0843 -0.1176
35936SOL    HW125800   5.474   3.453  11.236 -0.5138 -1.2179  0.9923
35936SOL    HW225801   5.622   3.485  11.242 -1.0610  1.2894  2.3327
35937SOL     OW25802   9.972  12.924   0.634  0.0835 -0.1369  0.4102
35937SOL    HW125803  10.048  12.964   0.592  0.3064 -0.8407  0.1210
35937SOL    HW225804  10.005  12.893   0.719  0.4352 -1.4794 -0.1912
35938SOL     OW25805  13.102   6.253   4.074  0.3977  0.8900 -0.5296
35938SOL    HW125806  13.048   6.330   4.092  0.6031  0.8511  0.3165
35938SOL    HW225807  13.152   6.277   3.996  0.0357  1.3903 -0.6171
35939SOL     OW25808   5.903   1.254   1.197 -0.3979  0.4640  0.3311
35939SOL    HW125809   5.904   1.269   1.291 -0.5811  0.5877  0.3130
35939SOL    HW225810   5.979   1.198   1.181 -0.6670  0.0096  0.6222
35940SOL     OW25811   1.378   2.320   7.839  0.0808 -0.5245 -0.4215
35940SOL    HW125812   1.407   2.410   7.826 -0.6709 -0.0284  1.0944
35940SOL    HW225813   1.407   2.298   7.928  0.9752 -2.0905 -1.0464
35941SOL     OW25814   6.961  11.204   4.860  0.2089  0.7402 -0.6816
35941SOL    HW125815   6.978  11.224   4.768 -1.9781 -1.1606 -1.5939
35941SOL    HW225816   7.018  11.129   4.879 -1.1156 -0.4993 -1.3355
35942SOL     OW25817   3.983   7.964  10.642  0.0611  0.0186 -0.1723
35942SOL    HW125818   3.981   7.876  10.679  2.1486 -0.0288 -0.0677
35942SOL    HW225819   4.009   8.020  10.715 -0.1535  0.5582 -0.5076
35943SOL     OW25820   5.795   1.186  13.447  0.3625 -0.7362 -0.4061
35943SOL    HW125821   5.779   1.197  13.541  0.5027 -1.1513 -0.3335
35943SOL    HW225822   5.868   1.125  13.442 -1.5712 -3.2004 -0.8083
35944SOL     OW25823   8.462   4.914  12.116  0.2752  0.0723 -0.7126
35944SOL    HW125824   8.489   4.885  12.029  1.5693 -1.3578  0.1112
35944SOL    HW225825   8.481   4.839  12.173  1.7256  1.7753  1.1952
35945SOL     OW25826   4.576  11.704   4.508 -0.2976 -0.0921  0.1867
35945SOL    HW125827   4.514  11.639   4.538 -0.3049  0.4222  1.3478
35945SOL    HW225828   4.590  11.761   4.584  0.6001  0.5591 -0.4392
35946SOL     OW25829   3.656  13.408   7.335  0.1614  0.1982  0.1790
35946SOL    HW125830   3.597  13.444   7.402  0.8933  1.0640  0.3673
35946SOL    HW225831   3.730  13.468   7.333  1.1337 -0.9764  0.0617
35947SOL     OW25832   6.355   2.339   5.099  0.3336 -0.1825 -0.4799
35947SOL    HW125833   6.400   2.254   5.104 -1.9866 -1.4789  0.3218
35947SOL    HW225834   6.282   2.330   5.161  0.9995  3.0901  0.9895
35948SOL     OW25835   3.602   8.144   7.020 -0.3686 -0.0741 -0.8713
35948SOL    HW125836   3.515   8.134   7.059  0.7780 -1.7367  1.5214
35948SOL    HW225837   3.605   8.236   6.993 -2.4678  0.3113 -0.0136
35949SOL     OW25838   4.519   1.961  12.226  0.3139  0.0598  0.5094
35949SOL    HW125839   4.600   2.002  12.255 -0.5618  0.8251  1.9628
35949SOL    HW225840   4.489   2.016  12.154  0.4628  0.4945  0.7753
35950SOL     OW25841   4.677   6.160   1.524 -0.1524  0.0228  0.5035
35950SOL    HW125842   4.769   6.143   1.504 -0.6183 -1.1689 -0.8190
35950SOL    HW225843   4.642   6.198   1.443 -0.1360  3.6446  2.0148
35951SOL     OW25844   7.080  12.630   4.377 -0.1064  0.0514  0.2833
35951SOL    HW125845   6.997  12.656   4.338 -1.2450  0.1210  2.5536
35951SOL    HW225846   7.082  12.676   4.461  1.8053 -0.6829  0.6965
35952SOL     OW25847   2.117   0.844   0.200  0.0019 -0.2054 -0.1574
35952SOL    HW125848   2.166   0.769   0.234  1.1973  0.2835 -0.7318
35952SOL    HW225849   2.152   0.919   0.249  0.2207  0.2188 -0.9497
35953SOL     OW25850  12.124   0.413   0.829 -0.7135 -0.1244 -0.0817
35953SOL    HW125851  12.119   0.436   0.736 -0.2852 -1.8156 -0.5638
35953SOL    HW225852  12.131   0.497   0.874  0.8067  0.6933 -1.6981
35954SOL     OW25853  13.424   7.868   0.584 -0.1978 -0.0518  0.0459
35954SOL    HW125854  13.438   7.778   0.612  0.2251  0.4784  1.6901
35954SOL    HW225855  13.370   7.907   0.653 -0.1747  1.0130 -0.5052
35955SOL     OW25856   7.037  14.106   4.154  0.5221  0.2586 -0.0176
35955SOL    HW125857   6.957  14.156   4.172  0.4661  0.1017  0.1731
35955SOL    HW225858   7.079  14.097   4.240  0.8142  0.4613 -0.1394
35956SOL     OW25859   2.280   5.873   7.574 -0.1938 -0.3565  0.5505
35956SOL    HW125860   2.192   5.851   7.546 -0.5910  0.3101  1.2307
35956SOL    HW225861   2.332   5.872   7.494 -0.7673 -0.9935  0.1818
35957SOL     OW25862   7.117   8.497   7.781  0.0731  0.3875  0.0422
35957SOL    HW125863   7.171   8.513   7.859 -2.2381  0.5902  1.7118
35957SOL    HW225864   7.171   8.527   7.708  2.4120  0.0386  1.5207
35958SOL     OW25865   7.134  13.400  10.210 -1.0347 -0.2377  0.1129
35958SOL    HW125866   7.197  13.468  10.234 -0.5434 -0.1902 -1.2280
35958SOL    HW225867   7.071  13.444  10.154 -0.9824 -0.7760 -0.3756
35959SOL     OW25868  10.850  13.836   6.772 -0.2273 -0.6692 -0.5356
35959SOL    HW125869  10.939  13.828   6.737 -0.1648  0.1880 -0.5982
35959SOL    HW225870  10.862  13.864   6.862 -0.4319 -0.0121 -0.7029
35960SOL     OW25871   3.600   1.385  11.325  0.1539 -0.1102  0.0014
35960SOL    HW125872   3.514   1.344  11.328  1.1456 -2.2824  1.8519
35960SOL    HW225873   3.608   1.430  11.410  0.8338  0.0777 -0.1522
35961SOL     OW25874   5.012   2.885  14.121 -0.3970  0.1747 -0.4335
35961SOL    HW125875   4.953   2.811  14.106 -1.9873  1.6849 -2.1366
35961SOL    HW225876   4.993   2.946  14.050  3.7432  0.5076 -1.5100
35962SOL     OW25877   8.226   2.195   5.151  0.8068 -0.0455 -0.1272
35962SOL    HW125878   8.302   2.155   5.193  0.7222 -0.8734 -0.7490
35962SOL    HW225879   8.158   2.129   5.155  1.2884 -0.8477 -3.0440
35963SOL     OW25880   5.302   2.236  12.378  0.8781  0.7183 -0.1122
35963SOL    HW125881   5.348   2.178  12.317  0.4641  1.3787 -1.0757
35963SOL    HW225882   5.283   2.180  12.454  1.6197 -0.0511 -0.4710
35964SOL     OW25883   6.686   1.553   4.754 -0.1911  0.3157  0.4004
35964SOL    HW125884   6.644   1.597   4.827  0.2974  0.6615  0.4783
35964SOL    HW225885   6.680   1.460   4.775  0.4007  0.4362  1.1410
35965SOL     OW25886   1.901   2.795  12.478  0.2224 -0.0297  0.1481
35965SOL    HW125887   1.981   2.784  12.426  0.5624 -0.9608  0.8578
35965SOL    HW225888   1.912   2.881  12.520  1.3449 -0.6014  1.0744
35966SOL     OW25889   9.363   7.055  10.819 -0.5135 -0.3194  1.1774
35966SOL    HW125890   9.386   7.080  10.909 -0.6195 -0.3277  1.2079
35966SOL    HW225891   9.267   7.051  10.820 -0.7218  2.4618  0.3422
35967SOL     OW25892   2.855  13.760   9.461 -0.1826 -0.0110  0.3789
35967SOL    HW125893   2.811  13.827   9.407  0.3646  1.2256  1.4105
35967SOL    HW225894   2.882  13.693   9.398 -0.1280  1.0703 -0.8059
35968SOL     OW25895   0.452   6.343   4.741 -0.0227  0.0244 -0.2462
35968SOL    HW125896   0.403   6.317   4.819 -1.1139 -0.6842 -1.1347
35968SOL    HW225897   0.414   6.428   4.717 -2.9633 -1.7825 -2.5731
35969SOL     OW25898  11.268   5.189   7.763 -0.3093 -0.3750  0.5644
35969SOL    HW125899  11.308   5.220   7.682  1.6254 -0.5739  1.3976
35969SOL    HW225900  11.174   5.205   7.751  0.0086  0.2438 -1.4115
35970SOL     OW25901   9.464   3.737  10.379 -0.6013  0.6466  0.3780
35970SOL    HW125902   9.398   3.805  10.367 -0.4005  0.6409 -0.9324
35970SOL    HW225903   9.515   3.739  10.298  1.2435  0.8876  1.4980
35971SOL     OW25904   7.586   5.961   9.022  0.5076  0.7175  0.7327
35971SOL    HW125905   7.673   6.000   9.022  0.0275  1.9003 -0.4745
35971SOL    HW225906   7.591   5.891   8.956  0.4176  1.1367  0.2730
35972SOL     OW25907  13.161   0.669   9.392  0.6461 -0.0751  0.3151
35972SOL    HW125908  13.166   0.592   9.335  0.4581 -0.1733  0.4339
35972SOL    HW225909  13.073   0.666   9.429 -0.8977  2.3275 -2.6951
35973SOL     OW25910  10.551   0.701   0.906  0.3818 -0.5614 -0.3785
35973SOL    HW125911  10.643   0.697   0.931  0.4991 -0.4040 -0.7822
35973SOL    HW225912  10.549   0.673   0.815  0.2282  0.7933 -0.8262
35974SOL     OW25913   3.593  11.594  12.453 -0.0164  0.8504  0.2370
35974SOL    HW125914   3.501  11.576  12.436 -0.8120  1.8115  3.0272
35974SOL    HW225915   3.632  11.602  12.366 -2.2421 -0.9059 -1.0440
35975SOL     OW25916   5.517  11.679   6.873  0.0858  1.3866 -0.0422
35975SOL    HW125917   5.515  11.593   6.914 -0.5541  2.3965  2.1529
35975SOL    HW225918   5.484  11.663   6.784  0.1946 -0.6441  0.2252
35976SOL     OW25919   1.806   6.636   3.817 -0.1818 -0.0232  0.6764
35976SOL    HW125920   1.890   6.591   3.813 -0.3840 -0.3724  0.2814
35976SOL    HW225921   1.741   6.566   3.813 -0.5022  0.2938  0.2558
35977SOL     OW25922   1.668  12.008  10.253 -0.6851  0.4497  0.2876
35977SOL    HW125923   1.672  11.915  10.234  0.5791  0.5425  0.0593
35977SOL    HW225924   1.574  12.026  10.264 -1.3662 -0.0774 -3.4255
35978SOL     OW25925   1.820   8.850  10.549 -0.3503 -0.8343  0.2656
35978SOL    HW125926   1.740   8.892  10.518 -0.7321 -1.0559  0.9311
35978SOL    HW225927   1.867   8.919  10.594  0.9618 -0.0923 -2.0849
35979SOL     OW25928   7.006   3.757  10.815 -0.1525 -0.1514 -0.1772
35979SOL    HW125929   6.994   3.755  10.720  0.2041  0.4119 -0.2370
35979SOL    HW225930   7.080   3.817  10.828  0.9262 -1.5342  0.3293
35980SOL     OW25931   7.039   9.604   9.667 -0.1153 -1.1021  0.1930
35980SOL    HW125932   6.964   9.558   9.703 -2.5216  2.1074 -0.2125
35980SOL    HW225933   7.022   9.610   9.574 -1.8899  3.3663  0.5565
35981SOL     OW25934   1.055  10.708   8.705  0.2434 -0.1372 -0.1974
35981SOL    HW125935   1.143  10.671   8.707  0.7244  0.9088  2.4941
35981SOL    HW225936   1.003  10.648   8.759  0.1347  1.0029  1.0015
35982SOL     OW25937   0.398   1.380   9.539 -0.0488 -0.5004  0.3572
35982SOL    HW125938   0.486   1.417   9.530  0.0255 -0.6157  0.5894
35982SOL    HW225939   0.377   1.347   9.452  0.4767 -1.2067  0.4844
35983SOL     OW25940   0.295   6.531   5.140  0.6630 -0.1462  0.6573
35983SOL    HW125941   0.330   6.604   5.191 -0.1456 -0.1135  1.1809
35983SOL    HW225942   0.239   6.572   5.074  0.4953 -0.2785  0.7176
35984SOL     OW25943   9.083  11.787   5.329 -0.1585 -0.5294 -0.2615
35984SOL    HW125944   9.125  11.830   5.254  0.1222  1.3076  0.8656
35984SOL    HW225945   9.148  11.723   5.359  0.5846  0.1500 -0.3778
35985SOL     OW25946   2.805   1.313   0.979 -0.4565 -0.0236  0.7983
35985SOL    HW125947   2.871   1.292   1.045  0.1689 -0.8119 -0.0480
35985SOL    HW225948   2.755   1.386   1.017 -0.0001 -0.3372  2.0468
35986SOL     OW25949   3.318   3.480   8.376  0.1676 -0.9799 -0.1257
35986SOL    HW125950   3.355   3.467   8.464  0.2137 -1.0024 -0.1481
35986SOL    HW225951   3.224   3.465   8.387  0.1288 -0.6844 -0.0163
35987SOL     OW25952  11.391   3.758   4.774  0.4243 -0.3445  0.0843
35987SOL    HW125953  11.433   3.695   4.716  1.0207  0.2938 -0.1976
35987SOL    HW225954  11.406   3.843   4.732 -1.3756 -0.1108 -0.1450
35988SOL     OW25955   3.674  13.515   2.649 -0.2195  0.2989  0.1102
35988SOL    HW125956   3.644  13.543   2.735 -1.0945  1.4691 -0.5436
35988SOL    HW225957   3.737  13.581   2.622  1.2980 -0.9310  0.5055
35989SOL     OW25958   8.686  12.488   6.181  0.7667  0.3287 -0.5557
35989SOL    HW125959   8.745  12.552   6.221  0.2673  0.8817 -0.6794
35989SOL    HW225960   8.602  12.501   6.226  1.0411 -1.3090  0.4974
35990SOL     OW25961   0.562  12.606   5.041 -0.3250  0.0310 -0.0687
35990SOL    HW125962   0.656  12.589   5.041 -0.0883  1.1724 -1.2544
35990SOL    HW225963   0.532  12.575   4.956 -1.0589 -0.4628  0.3624
35991SOL     OW25964   4.838   1.824   7.798 -0.0018  0.2267  0.3085
35991SOL    HW125965   4.875   1.834   7.711  0.4670 -1.4503  0.2790
35991SOL    HW225966   4.747   1.799   7.783  0.4270 -1.4059  0.2297
35992SOL     OW25967   8.337   8.793   7.049 -0.5288  0.0358  0.2184
35992SOL    HW125968   8.337   8.856   6.977 -0.1527 -0.0814  0.1144
35992SOL    HW225969   8.266   8.823   7.106 -0.0414  0.8498  0.4181
35993SOL     OW25970   0.324   7.820   7.883 -0.3452 -0.2015 -0.2306
35993SOL    HW125971   0.256   7.878   7.848 -0.7709 -1.1817 -1.0962
35993SOL    HW225972   0.364   7.870   7.954 -0.7169  1.1330 -0.9216
35994SOL     OW25973   5.347  12.196  11.057  0.1903  0.2663 -0.1641
35994SOL    HW125974   5.317  12.166  11.142 -0.2050  1.3235  0.0845
35994SOL    HW225975   5.269  12.190  11.001  0.7857 -1.7699 -0.8479
35995SOL     OW25976   6.579  12.879   6.580 -0.1652  0.7899 -0.4304
35995SOL    HW125977   6.503  12.865   6.637  1.3332  2.6264  2.2668
35995SOL    HW225978   6.565  12.819   6.506 -2.5120 -1.4244  1.5933
35996SOL     OW25979   2.667   9.902  13.522 -0.0751 -0.1985 -0.3504
35996SOL    HW125980   2.719   9.840  13.472  1.4884 -0.3843  1.3855
35996SOL    HW225981   2.703   9.988  13.501  1.2951 -0.3560  1.1381
35997SOL     OW25982  13.153   6.784  13.291 -0.1109 -0.7883  0.2511
35997SOL    HW125983  13.057   6.782  13.284 -0.5209  2.2684  2.8097
35997SOL    HW225984  13.172   6.739  13.373  0.4478  0.1077  0.6269
35998SOL     OW25985   0.820  13.263   5.618  0.0419 -0.1863  0.3381
35998SOL    HW125986   0.906  13.233   5.591  0.7514  0.2462  1.9929
35998SOL    HW225987   0.778  13.186   5.656 -0.4568 -0.4790 -0.7640
35999SOL     OW25988  14.113   7.394  12.931  0.0864  0.3101  0.6832
35999SOL    HW125989  14.029   7.382  12.976  0.0027  1.2649  0.8045
35999SOL    HW225990  14.164   7.448  12.991  0.0274  1.4897 -0.3055
36000SOL     OW25991  12.031   2.827   0.930  0.5177 -0.3402  0.1645
36000SOL    HW125992  12.012   2.871   1.013 -0.7129 -0.5741  0.0126
36000SOL    HW225993  12.098   2.882   0.890 -0.6301  1.1530  0.2073
36001SOL     OW25994   2.620   1.675   9.680 -0.3213  0.5604  0.0175
36001SOL    HW125995   2.587   1.764   9.670  0.3363  0.7060 -1.0279
36001SOL    HW225996   2.560   1.621   9.630 -0.8873  0.3665  0.8922
36002SOL     OW25997   7.639  13.101  10.962 -0.1702  0.2334  0.0087
36002SOL    HW125998   7.618  13.194  10.963  0.0993  0.3032 -0.4231
36002SOL    HW225999   7.693  13.090  10.883 -3.5003 -0.9890 -2.3502
36003SOL     OW26000  11.720  10.391  12.396 -0.0853  0.3909  0.3557
36003SOL    HW126001  11.647  10.437  12.437 -0.4843  0.3637 -0.3027
36003SOL    HW226002  11.715  10.302  12.431 -0.8323  0.1827 -0.2476
36004SOL     OW26003  11.741   6.727  12.953  0.0279  0.3266 -0.2787
36004SOL    HW126004  11.739   6.633  12.971 -0.3995 -0.0713 -2.1455
36004SOL    HW226005  11.667   6.741  12.894 -0.6965  2.0848  0.9567
36005SOL     OW26006   7.121  11.619   3.280  0.5365  1.1141 -0.2996
36005SOL    HW126007   7.140  11.612   3.374  0.3460 -3.8547 -0.3368
36005SOL    HW226008   7.031  11.586   3.271  1.2451 -0.5006 -2.2957
36006SOL     OW26009   3.957  10.617   0.774  0.3665 -0.0119  0.3549
36006SOL    HW126010   3.991  10.535   0.809  2.4662  0.8563  0.5174
36006SOL    HW226011   3.907  10.592   0.697 -1.2805 -1.6408  1.8540
36007SOL     OW26012   4.099   2.353   6.756 -0.3563  0.2219 -0.4221
36007SOL    HW126013   4.010   2.362   6.723  0.0139 -0.1625 -1.5948
36007SOL    HW226014   4.117   2.259   6.749  0.2761  0.3512 -0.5799
36008SOL     OW26015   4.245   1.954   8.351 -0.5423 -0.4029  0.5729
36008SOL    HW126016   4.243   2.041   8.312  2.1110  0.2197  1.5905
36008SOL    HW226017   4.221   1.968   8.443 -0.4080 -0.7967  0.6712
36009SOL     OW26018   9.289   1.867  12.053 -0.1077  0.2700 -0.0728
36009SOL    HW126019   9.286   1.855  11.958 -0.2984  0.0393 -0.0363
36009SOL    HW226020   9.198   1.876  12.079 -0.2631 -2.0132  0.3910
36010SOL     OW26021   0.581   1.682   2.490 -0.1003  0.1770  0.2408
36010SOL    HW126022   0.486   1.678   2.484  0.0113 -0.2804 -2.7376
36010SOL    HW226023   0.602   1.644   2.575 -2.5809  1.0283  1.3136
36011SOL     OW26024   3.896   1.109   9.417 -0.2260 -0.3386 -0.0066
36011SOL    HW126025   3.863   1.075   9.500 -2.1976 -2.6426 -1.6057
36011SOL    HW226026   3.819   1.141   9.372  0.5903 -0.3650 -1.4735
36012SOL     OW26027   7.994   0.947   2.559 -0.5249 -0.3792 -0.0980
36012SOL    HW126028   8.003   0.860   2.598 -1.0141 -0.2965  0.2055
36012SOL    HW226029   8.064   0.998   2.600 -0.3959 -0.5618 -0.0869
36013SOL     OW26030  14.017   5.990   2.223 -0.3453  0.2538  0.0360
36013SOL    HW126031  14.097   6.027   2.186  1.0955 -0.4100  2.2223
36013SOL    HW226032  13.952   5.996   2.153  1.9160 -0.2201 -2.2532
36014SOL     OW26033   3.106  10.858  14.006  0.4594 -0.3515 -0.1818
36014SOL    HW126034   3.197  10.873  13.984  0.1868  0.8390 -0.5363
36014SOL    HW226035   3.079  10.786  13.950  0.5047  0.9165 -1.8981
36015SOL     OW26036  12.175   7.128  10.389 -0.0599 -0.1178 -0.2587
36015SOL    HW126037  12.191   7.145  10.297 -1.9677 -1.0148 -0.7964
36015SOL    HW226038  12.213   7.203  10.434  2.0394 -0.2662 -1.6279
36016SOL     OW26039   7.205   2.407  12.740  0.5179 -0.4192 -0.2556
36016SOL    HW126040   7.218   2.313  12.753 -1.3088 -0.5683  0.6835
36016SOL    HW226041   7.113   2.422  12.760  0.9405  1.6978  0.3272
36017SOL     OW26042   8.152  12.887   6.894  0.0247  0.5717 -0.2635
36017SOL    HW126043   8.070  12.935   6.881  0.7210  2.3919  1.4921
36017SOL    HW226044   8.167  12.843   6.811 -3.4454 -1.0768 -0.2206
36018SOL     OW26045   5.536   5.172  12.612 -0.1843  0.2068  0.2074
36018SOL    HW126046   5.527   5.096  12.670  1.1813 -0.0171  0.1676
36018SOL    HW226047   5.488   5.242  12.656  1.3852  0.2360  1.9998
36019SOL     OW26048  11.216  11.631   3.033  0.3355  0.4381 -0.3791
36019SOL    HW126049  11.285  11.662   2.975  0.4816  2.2206  0.6770
36019SOL    HW226050  11.169  11.565   2.982  0.8233  1.4889 -2.2766
36020SOL     OW26051  13.093   2.072   1.087 -0.3041  0.2955 -0.2322
36020SOL    HW126052  13.120   2.150   1.136 -1.0257  0.0533  0.5836
36020SOL    HW226053  13.034   2.105   1.020 -1.3062  0.3866  0.6607
36021SOL     OW26054   5.779   1.186   6.264  0.0242  0.2333  0.3795
36021SOL    HW126055   5.755   1.096   6.284  0.8421 -0.3247 -1.0212
36021SOL    HW226056   5.702   1.237   6.289 -2.0024 -1.2667 -2.1557
36022SOL     OW26057   8.039   9.878  12.188 -0.5994 -0.1913  0.3342
36022SOL    HW126058   7.967   9.819  12.207 -0.1450 -0.5741  0.9092
36022SOL    HW226059   8.045   9.880  12.093 -1.5963  0.1325  0.2711
36023SOL     OW26060  12.704   2.865   2.851 -0.0883 -0.3219  0.0392
36023SOL    HW126061  12.674   2.936   2.795 -2.0770 -0.5329  0.7563
36023SOL    HW226062  12.674   2.890   2.939  1.3231 -0.8914  0.7185
36024SOL     OW26063  12.282   1.995  10.214  0.4611 -0.8405 -0.0196
36024SOL    HW126064  12.311   2.045  10.291 -0.2453  1.3328 -1.0844
36024SOL    HW226065  12.291   2.056  10.141 -1.2233 -2.0072 -1.2784
36025SOL     OW26066  11.425  11.092   7.181  0.3564  0.0052 -0.0465
36025SOL    HW126067  11.510  11.050   7.168  0.2276 -0.4515  0.5492
36025SOL    HW226068  11.403  11.073   7.272  0.1619  1.1360  0.1554
36026SOL     OW26069  10.917  11.442   8.881  0.3141  0.0498  0.0368
36026SOL    HW126070  10.975  11.369   8.899 -0.4628 -0.7367 -0.5748
36026SOL    HW226071  10.937  11.469   8.792  0.4285  0.4234  0.1732
36027SOL     OW26072   8.028   1.760   4.099 -0.0941 -0.0482  0.3290
36027SOL    HW126073   8.093   1.756   4.169 -0.9633  0.8489  1.2167
36027SOL    HW226074   8.047   1.684   4.044  1.8785  0.3423  0.4003
36028SOL     OW26075   6.283   0.430  10.666  0.4153  0.3896  0.1634
36028SOL    HW126076   6.197   0.440  10.626 -0.7441 -0.5828  2.2752
36028SOL    HW226077   6.333   0.378  10.604 -1.0490 -0.3877 -0.3940
36029SOL     OW26078   0.689   7.868   4.957 -0.3164  0.2380  0.7701
36029SOL    HW126079   0.715   7.957   4.935 -2.7669  0.7663 -0.2677
36029SOL    HW226080   0.768   7.816   4.941  0.1504  1.6779 -2.3792
36030SOL     OW26081   7.341   5.735  13.837 -0.1403  0.0007 -0.2427
36030SOL    HW126082   7.393   5.752  13.916 -1.4331  0.5505  0.5296
36030SOL    HW226083   7.363   5.645  13.813 -0.4483 -0.5316  1.3371
36031SOL     OW26084   0.588   9.938   4.051 -0.1612  0.0774  0.6928
36031SOL    HW126085   0.616  10.017   4.096  0.0710  0.8008 -0.6573
36031SOL    HW226086   0.668   9.888   4.037  0.0491  0.6976 -0.4536
36032SOL     OW26087   8.551   3.352  10.835 -0.7217  0.4125 -0.3534
36032SOL    HW126088   8.474   3.347  10.779 -1.0506  0.4466  0.0870
36032SOL    HW226089   8.602   3.424  10.800 -0.9185  0.4230 -0.6192
36033SOL     OW26090  12.938  10.191  10.290 -0.6018 -0.5632 -0.3691
36033SOL    HW126091  12.999  10.262  10.269 -0.2367 -1.1321 -1.2909
36033SOL    HW226092  12.945  10.131  10.215 -0.5264 -1.8205  0.6236
36034SOL     OW26093   4.700   4.789   4.866  0.4763  0.7785  0.3896
36034SOL    HW126094   4.652   4.714   4.901  2.5974 -0.9493 -0.2044
36034SOL    HW226095   4.686   4.784   4.771 -0.4393  1.9624  0.4352
36035SOL     OW26096  10.771  13.579   3.268 -0.1249  0.1899  0.1419
36035SOL    HW126097  10.833  13.542   3.331 -1.0092 -1.6721  0.0156
36035SOL    HW226098  10.825  13.619   3.200  0.9279 -0.7945  0.3736
36036SOL     OW26099   3.636   3.515   4.316 -0.5297 -0.6787 -0.2213
36036SOL    HW126100   3.572   3.515   4.244 -0.1127 -0.4030 -0.5946
36036SOL    HW226101   3.585   3.540   4.393 -1.4414 -2.9752  0.0084
36037SOL     OW26102   7.512  10.062   4.817  0.2569 -0.8254 -0.2514
36037SOL    HW126103   7.547  10.030   4.901 -3.3412  0.0526  1.7926
36037SOL    HW226104   7.437  10.004   4.799 -0.3095  0.3167 -1.7494
36038SOL     OW26105  12.772   8.529   8.209  0.2067  0.0301 -0.6328
36038SOL    HW126106  12.862   8.544   8.181  0.1872 -0.8827 -1.2058
36038SOL    HW226107  12.780   8.502   8.301  0.3644  1.7064 -0.1232
36039SOL     OW26108   2.226  11.245   3.046 -0.4991 -0.4634 -0.5474
36039SOL    HW126109   2.147  11.194   3.064 -1.2988  0.6319 -0.7911
36039SOL    HW226110   2.298  11.185   3.064 -1.3349 -0.9995  1.3179
36040SOL     OW26111  13.241   5.603   6.765  0.3443 -0.0881 -0.4076
36040SOL    HW126112  13.181   5.541   6.807  0.7792 -1.2458 -1.4171
36040SOL    HW226113  13.325   5.557   6.766  0.9574  1.0188 -0.0797
36041SOL     OW26114   7.005   7.201   7.535  1.1248 -0.2067  0.3583
36041SOL    HW126115   7.007   7.184   7.629  1.1360 -1.1630  0.2013
36041SOL    HW226116   7.040   7.121   7.496  1.7710  0.4404 -0.4360
36042SOL     OW26117  12.379   7.318  12.230 -0.6062 -0.0575  0.1627
36042SOL    HW126118  12.364   7.346  12.140 -0.2378 -2.2280 -0.6468
36042SOL    HW226119  12.326   7.238  12.239 -1.2927  0.5734  2.1624
36043SOL     OW26120   5.231   9.103   9.423  0.0031  0.2148 -0.2279
36043SOL    HW126121   5.257   9.121   9.333 -0.5598 -1.6001 -0.7789
36043SOL    HW226122   5.252   9.184   9.470  3.1338  0.1890 -1.3528
36044SOL     OW26123   6.388  13.887   7.245  0.3992 -0.1560  0.0238
36044SOL    HW126124   6.320  13.827   7.277 -0.0305  0.4264  0.2143
36044SOL    HW226125   6.374  13.967   7.295  0.8893  0.1503 -0.3286
36045SOL     OW26126   0.369   4.479  11.684  0.1036  0.5797 -0.2805
36045SOL    HW126127   0.379   4.492  11.590  1.9849  0.5494 -0.1143
36045SOL    HW226128   0.421   4.549  11.724  2.5086 -1.6290  0.6799
36046SOL     OW26129   1.845  12.282   4.664  0.2926 -0.3092  0.0431
36046SOL    HW126130   1.857  12.204   4.718  1.2135 -0.1357  0.1069
36046SOL    HW226131   1.754  12.308   4.680  0.1627 -1.0072  0.4986
36047SOL     OW26132   3.021   3.062   4.335 -0.2634  0.1533 -0.1911
36047SOL    HW126133   2.958   2.991   4.322 -1.5486  1.1766  0.1703
36047SOL    HW226134   3.071   3.065   4.254  0.6610 -1.9346  0.2498
36048SOL     OW26135  11.981   9.875   6.419 -0.0279 -0.4896 -0.9519
36048SOL    HW126136  11.967   9.957   6.370 -1.2406 -0.0427  0.0775
36048SOL    HW226137  11.916   9.815   6.382 -0.6120 -0.3020 -0.2467
36049SOL     OW26138  12.254  11.369  10.786 -0.0219  0.5577  0.4150
36049SOL    HW126139  12.193  11.325  10.726  0.7793 -0.8558  0.5951
36049SOL    HW226140  12.332  11.385  10.733 -0.5426  2.4898  0.1485
36050SOL     OW26141   9.922   9.481  10.061  0.0095 -0.1921  0.7630
36050SOL    HW126142   9.876   9.501   9.979  0.9226 -0.7558  0.0933
36050SOL    HW226143  10.005   9.527  10.054 -0.6649  1.3681  2.2588
36051SOL     OW26144  14.039   8.079  11.465  0.0794  0.2758 -0.3276
36051SOL    HW126145  14.122   8.119  11.489 -0.4152  1.7901 -1.0532
36051SOL    HW226146  14.042   7.992  11.506  2.1793  0.1223 -0.6859
36052SOL     OW26147   7.539   6.206   6.755 -0.2718  0.8411  0.8431
36052SOL    HW126148   7.575   6.282   6.709  0.2833 -0.0244 -0.2012
36052SOL    HW226149   7.462   6.181   6.704  0.7214 -0.5247 -0.0366
36053SOL     OW26150  11.708  10.612   8.738  0.0444  0.0664  0.1317
36053SOL    HW126151  11.705  10.516   8.743 -1.4469  0.0838 -0.0138
36053SOL    HW226152  11.682  10.641   8.826 -0.8111  0.3325 -0.2034
36054SOL     OW26153   9.796  10.761   7.635  0.1038 -0.5061  0.2838
36054SOL    HW126154   9.708  10.732   7.613 -0.2358  1.0718 -0.5580
36054SOL    HW226155   9.829  10.802   7.555  1.4340 -0.6644  0.7205
36055SOL     OW26156  13.619   4.641  12.774  0.2601  0.5082  0.1664
36055SOL    HW126157  13.573   4.669  12.695  2.4049 -0.4277 -1.5245
36055SOL    HW226158  13.575   4.688  12.845 -1.7150  1.4482 -1.5501
36056SOL     OW26159   3.679   9.295   9.678  0.7576 -0.5878 -0.4070
36056SOL    HW126160   3.676   9.379   9.631 -2.9137 -0.2033  0.2131
36056SOL    HW226161   3.678   9.320   9.771 -0.8767 -1.2677 -0.2155
36057SOL     OW26162   6.798  10.088   1.547 -0.1785  0.5260  0.0212
36057SOL    HW126163   6.855  10.163   1.530 -0.0344 -0.0866 -2.6307
36057SOL    HW226164   6.783  10.049   1.461 -5.0185  0.8862  0.4470
36058SOL     OW26165   0.088   3.315  13.455  0.1694 -0.7514 -0.2205
36058SOL    HW126166   0.038   3.242  13.419  0.0073 -1.0314  0.5611
36058SOL    HW226167   0.120   3.284  13.539  0.4021 -0.0478 -0.0384
36059SOL     OW26168  13.069   9.025   4.698  0.4518 -0.3802  0.3345
36059SOL    HW126169  13.097   9.010   4.608 -1.0684  1.8567 -0.5971
36059SOL    HW226170  12.993   8.968   4.710  0.5273 -0.5232  0.1354
36060SOL     OW26171   1.251  10.645  12.598 -0.2716 -0.4599  0.7597
36060SOL    HW126172   1.224  10.683  12.515  2.4257 -0.3787 -0.1965
36060SOL    HW226173   1.183  10.582  12.619 -1.4086  0.0519 -1.1357
36061SOL     OW26174   4.524   3.369   4.550  0.2261 -0.3397  0.8888
36061SOL    HW126175   4.595   3.367   4.614  1.9639  0.1458 -0.9334
36061SOL    HW226176   4.522   3.459   4.519  2.5510 -1.3720 -2.9196
36062SOL     OW26177   8.904   5.347   7.483 -0.0495  0.1110 -0.1243
36062SOL    HW126178   8.989   5.334   7.525 -0.6063 -0.5824  0.8381
36062SOL    HW226179   8.895   5.442   7.474  0.8937  0.1770 -0.3940
36063SOL     OW26180   8.526  10.366   2.158 -0.3552  0.0759  0.1536
36063SOL    HW126181   8.488  10.286   2.193  0.4246  0.0504  0.9872
36063SOL    HW226182   8.555  10.343   2.070  0.7898 -0.8688  0.7532
36064SOL     OW26183   1.992   5.875   5.341  0.0611 -0.3659 -0.1460
36064SOL    HW126184   1.909   5.895   5.383  1.1795  1.3252  1.4373
36064SOL    HW226185   2.024   5.797   5.386 -0.0926 -0.2708  0.1304
36065SOL     OW26186  14.026   9.365   6.440  0.5299  0.8263 -0.1187
36065SOL    HW126187  14.044   9.389   6.531 -1.7234  2.3206  0.0089
36065SOL    HW226188  14.091   9.413   6.389  1.5195  0.3440  0.6514
36066SOL     OW26189   8.621  13.881   8.402  0.0289  0.0695 -0.1660
36066SOL    HW126190   8.645  13.789   8.397 -0.1426 -0.0890  1.3989
36066SOL    HW226191   8.598  13.905   8.313 -2.3653 -2.0916 -0.2450
36067SOL     OW26192  12.524   7.437   3.418  0.4740  0.1263  0.0805
36067SOL    HW126193  12.567   7.392   3.345 -1.5952 -0.3388 -0.9451
36067SOL    HW226194  12.586   7.431   3.490  1.9606 -0.7598 -1.1951
36068SOL     OW26195   9.524  10.750  12.650 -0.0451  0.3767  0.1895
36068SOL    HW126196   9.430  10.735  12.636  0.0924 -0.3710  0.0626
36068SOL    HW226197   9.530  10.844  12.665 -0.5902  0.7397 -1.6602
36069SOL     OW26198   8.359   1.812   6.075 -0.3758  0.0288  0.5494
36069SOL    HW126199   8.428   1.758   6.037 -0.1362  1.1582 -0.6702
36069SOL    HW226200   8.344   1.774   6.162  0.6937 -1.1722  0.2343
36070SOL     OW26201  10.251   6.179   0.089 -0.1172 -0.2646 -0.5275
36070SOL    HW126202  10.289   6.095   0.065  0.3213 -0.5758  1.1670
36070SOL    HW226203  10.302   6.244   0.040  0.2632 -0.9001 -0.9786
36071SOL     OW26204   5.007   7.616  12.633  0.2092  0.5042  0.0220
36071SOL    HW126205   4.980   7.555  12.702 -2.5593 -0.2237 -1.5465
36071SOL    HW226206   5.051   7.687  12.679 -3.2404  1.0834  2.8803
36072SOL     OW26207  13.746   2.124   0.622 -0.5021 -0.4362 -0.0645
36072SOL    HW126208  13.800   2.174   0.684 -1.3969 -1.6474  1.7940
36072SOL    HW226209  13.713   2.050   0.674 -2.3984 -0.7736 -1.6494
36073SOL     OW26210  12.886  12.624  13.213 -0.6038  0.4087  0.1378
36073SOL    HW126211  12.873  12.691  13.146 -0.0056  1.0331  0.6284
36073SOL    HW226212  12.829  12.650  13.285 -0.2003  0.5362  0.4198
36074SOL     OW26213   9.098   6.074   3.668 -0.2214  0.2089 -0.4259
36074SOL    HW126214   9.120   6.053   3.577 -0.3895 -2.2447  0.0384
36074SOL    HW226215   9.005   6.056   3.675  0.2839 -2.4232  0.8530
36075SOL     OW26216   7.338   0.770   1.369  0.2715 -0.2154 -0.2847
36075SOL    HW126217   7.243   0.753   1.374 -0.4293  2.3600 -2.3976
36075SOL    HW226218   7.372   0.698   1.316 -0.6252 -0.8126 -0.0724
36076SOL     OW26219  11.719   9.661   3.638  0.2708  0.5953 -0.5397
36076SOL    HW126220  11.697   9.754   3.631  0.8517  0.6970 -1.0397
36076SOL    HW226221  11.764   9.640   3.556  0.3171 -0.0833 -0.3492
36077SOL     OW26222   1.350  13.470   8.323 -0.3601  0.1894 -0.0833
36077SOL    HW126223   1.438  13.449   8.291 -0.0094  0.2429  0.8237
36077SOL    HW226224   1.297  13.395   8.296  0.0988 -0.1349 -0.1146
36078SOL     OW26225  13.341   0.098   1.384 -0.0186  0.1674  0.2801
36078SOL    HW126226  13.271   0.036   1.405 -0.9573  1.2027  0.2850
36078SOL    HW226227  13.411   0.044   1.347  0.1777 -1.2144  2.5417
36079SOL     OW26228   5.565  11.690  10.553 -0.5168 -0.0658 -0.6394
36079SOL    HW126229   5.656  11.692  10.583 -0.3459  1.9252 -1.1857
36079SOL    HW226230   5.550  11.598  10.529  0.8050 -0.7785  1.0166
36080SOL     OW26231  13.589  10.322   2.920  0.5327  0.1307  0.1299
36080SOL    HW126232  13.546  10.389   2.973  1.6053  0.6856  0.3149
36080SOL    HW226233  13.583  10.354   2.830 -2.3923 -1.3874 -0.3492
36081SOL     OW26234  10.112   9.686   4.228 -0.4831 -0.3376  0.5886
36081SOL    HW126235  10.104   9.674   4.323 -1.5050  0.5365  0.6393
36081SOL    HW226236  10.198   9.726   4.216 -0.3827 -0.3685  1.1596
36082SOL     OW26237   8.976   9.622   7.693  0.0822 -0.1062 -0.0790
36082SOL    HW126238   8.907   9.576   7.741 -0.5047  0.9522  0.1269
36082SOL    HW226239   9.039   9.554   7.670 -1.1625 -1.1647 -0.5202
36083SOL     OW26240   1.648  10.357   9.185 -0.1099  0.6058  0.3802
36083SOL    HW126241   1.673  10.429   9.243 -0.6294  1.3966 -0.3495
36083SOL    HW226242   1.553  10.362   9.181 -0.1373 -0.0511  0.2288
36084SOL     OW26243   4.170   1.272   3.599 -0.3748  0.1103  0.2005
36084SOL    HW126244   4.254   1.318   3.598 -0.1786 -0.2245 -1.1129
36084SOL    HW226245   4.106   1.339   3.622  0.1519  0.5662  0.3661
36085SOL     OW26246   0.825   2.266   4.264  0.5088 -0.0521 -0.4330
36085SOL    HW126247   0.743   2.217   4.266  1.3442 -1.6984 -2.4258
36085SOL    HW226248   0.829   2.303   4.176  2.0582 -0.3267 -0.5031
36086SOL     OW26249   7.403   2.177   8.070  0.3848 -0.0417  0.1653
36086SOL    HW126250   7.491   2.213   8.074  0.6284 -0.6610  0.6432
36086SOL    HW226251   7.356   2.235   8.010  0.9338  0.6666  0.4065
36087SOL     OW26252   4.021   4.258   6.169 -0.3010 -0.2291  0.6572
36087SOL    HW126253   4.087   4.200   6.206  0.2718 -0.3232 -0.4763
36087SOL    HW226254   4.071   4.328   6.127 -0.9434  0.2005  0.5916
36088SOL     OW26255   2.687   0.750  12.603 -0.5519 -0.3884 -0.1587
36088SOL    HW126256   2.619   0.697  12.644 -1.5088  0.1378 -1.0236
36088SOL    HW226257   2.640   0.817  12.554  0.5949  0.0670 -0.6904
36089SOL     OW26258   8.192   9.985   4.912  0.4664 -0.1609  0.2446
36089SOL    HW126259   8.127   9.965   4.979 -0.7874  0.1038 -0.8617
36089SOL    HW226260   8.191  10.080   4.905 -0.7483 -0.2674 -1.4078
36090SOL     OW26261  12.048   8.421   2.908  0.1018  0.7958  0.0510
36090SOL    HW126262  12.098   8.489   2.863  0.1840  0.6946 -0.0122
36090SOL    HW226263  11.965   8.462   2.931  0.9931  1.6362  2.0190
36091SOL     OW26264   7.762   3.426   6.733 -0.0285  0.1994 -0.1044
36091SOL    HW126265   7.765   3.502   6.676 -0.8715  0.3535  0.0394
36091SOL    HW226266   7.747   3.461   6.820  2.0043  0.0162  0.3646
36092SOL     OW26267   4.465   0.593   8.148  0.1414 -0.3080  0.5163
36092SOL    HW126268   4.394   0.599   8.084 -0.5647  0.3461  1.3489
36092SOL    HW226269   4.545   0.593   8.095 -0.4400  0.0006 -0.3771
36093SOL     OW26270   0.201  12.730   2.643 -0.5187  0.0199  0.4518
36093SOL    HW126271   0.224  12.685   2.562  0.9696 -0.9697  1.3638
36093SOL    HW226272   0.158  12.811   2.615  1.9407  0.8160 -1.4222
36094SOL     OW26273   7.979  13.214   1.113  0.1984 -0.4840 -0.1567
36094SOL    HW126274   7.884  13.225   1.112  0.1501 -0.8805 -1.3280
36094SOL    HW226275   8.014  13.302   1.102 -0.0242 -0.3047  0.5439
36095SOL     OW26276  12.584   1.108   1.377  0.1546  0.4163  0.0964
36095SOL    HW126277  12.501   1.153   1.361 -0.1695 -0.5381 -0.9953
36095SOL    HW226278  12.622   1.096   1.290  0.9234 -0.1381  0.4966
36096SOL     OW26279   1.244   5.004   8.045 -0.0934 -0.9898  0.2982
36096SOL    HW126280   1.275   5.026   7.957 -1.9261  0.0322 -0.1402
36096SOL    HW226281   1.168   4.948   8.031 -1.5769  0.7034  1.1051
36097SOL     OW26282   7.217   2.985   5.442 -0.1276  0.2369 -0.4163
36097SOL    HW126283   7.226   3.026   5.356 -0.3073 -1.4906 -1.2945
36097SOL    HW226284   7.158   2.911   5.428  1.9131 -1.7000  0.6005
36098SOL     OW26285   1.084   5.030   7.499 -0.1380 -0.1443 -0.9230
36098SOL    HW126286   1.103   5.079   7.418 -0.0395 -0.6262 -1.1958
36098SOL    HW226287   0.994   5.000   7.488 -0.0536 -0.3891 -0.9475
36099SOL     OW26288   3.009  10.396  12.996 -0.1323  0.1224  0.2723
36099SOL    HW126289   3.058  10.453  12.938  0.8770  0.3414  1.3153
36099SOL    HW226290   3.060  10.315  13.000 -0.4656 -0.0829  0.4539
36100SOL     OW26291   5.428   7.303   4.482 -0.5903 -0.6223 -0.0398
36100SOL    HW126292   5.476   7.315   4.400 -0.7225  0.5355  0.0376
36100SOL    HW226293   5.443   7.212   4.506 -0.0790 -0.8106 -1.0553
36101SOL     OW26294  10.325   6.425   9.786  0.0682 -0.2347  0.0795
36101SOL    HW126295  10.394   6.444   9.722  0.8955  0.0388  1.0254
36101SOL    HW226296  10.362   6.454   9.870 -1.2190 -0.0414  0.6009
36102SOL     OW26297   5.864   8.228   3.592  0.4312 -0.0698  0.0069
36102SOL    HW126298   5.841   8.280   3.515  0.5829 -1.3109 -0.9003
36102SOL    HW226299   5.883   8.293   3.660 -0.7043  1.0449 -0.6888
36103SOL     OW26300   6.596  10.998  11.375 -0.1198 -0.3773 -0.4441
36103SOL    HW126301   6.521  10.939  11.371  0.4581 -1.3124  1.1170
36103SOL    HW226302   6.655  10.967  11.307 -0.7983 -0.1455 -1.1426
36104SOL     OW26303  14.079   0.613  11.660  0.6781 -0.4671  0.8204
36104SOL    HW126304  14.099   0.555  11.733 -3.1359 -0.3269  2.2106
36104SOL    HW226305  14.163   0.626  11.616  2.4265 -3.7492  2.7823
36105SOL     OW26306   4.519   8.527  10.794 -0.3569  0.4382 -0.2242
36105SOL    HW126307   4.584   8.499  10.859 -0.6260 -0.2410 -0.2351
36105SOL    HW226308   4.510   8.621  10.808 -0.7233  0.2383  1.0052
36106SOL     OW26309   8.975   2.452  13.623 -0.8781 -0.3115 -0.3199
36106SOL    HW126310   8.884   2.425  13.606 -1.3738  1.9014 -1.4711
36106SOL    HW226311   8.969   2.506  13.702 -1.0092  1.7353 -1.6477
36107SOL     OW26312   5.144  10.948   4.859  0.3477 -0.3580  0.0401
36107SOL    HW126313   5.056  10.910   4.863  0.9233 -1.7057  1.2408
36107SOL    HW226314   5.144  11.016   4.926  0.0339  0.0940 -0.4158
36108SOL     OW26315   3.531   6.873   0.550 -0.0250 -0.1625  0.1773
36108SOL    HW126316   3.480   6.868   0.469  0.1152 -2.9397  0.1963
36108SOL    HW226317   3.621   6.855   0.523  0.0061 -1.2086  0.9281
36109SOL     OW26318  11.343   8.450  10.137 -0.1141 -0.4791  0.0690
36109SOL    HW126319  11.380   8.366  10.164 -0.8179 -1.0419 -0.6365
36109SOL    HW226320  11.310   8.434  10.048 -1.4496  0.1662  0.4194
36110SOL     OW26321   7.967   5.077  12.686  0.0541  0.4423 -0.6048
36110SOL    HW126322   7.991   5.123  12.605 -1.2568 -1.2170 -2.0002
36110SOL    HW226323   7.876   5.103  12.703 -0.0783 -0.1573 -0.3540
36111SOL     OW26324  12.607   0.859   0.536  0.2866 -0.3754  0.0772
36111SOL    HW126325  12.617   0.953   0.550  0.9060 -0.2753 -0.9939
36111SOL    HW226326  12.572   0.827   0.620 -0.4192  0.8710  0.2922
36112SOL     OW26327  10.385   8.611   2.522  0.3204 -0.1184  0.2354
36112SOL    HW126328  10.344   8.696   2.539  0.6468  0.1371 -0.2298
36112SOL    HW226329  10.430   8.623   2.438 -0.3530 -1.0128 -0.2737
36113SOL     OW26330   4.077  11.962   5.334  0.2177  0.3705 -0.7228
36113SOL    HW126331   3.984  11.979   5.348  0.3691 -0.2088  1.3857
36113SOL    HW226332   4.120  12.002   5.409  1.4979 -0.8432 -0.7632
36114SOL     OW26333   9.490   5.470   4.679  0.1315 -0.0596  0.1046
36114SOL    HW126334   9.540   5.458   4.760 -0.1256 -0.5154  0.2042
36114SOL    HW226335   9.469   5.563   4.677 -0.5027 -0.1675  0.9585
36115SOL     OW26336   5.405   3.657   2.763  0.9709  0.4011 -0.0856
36115SOL    HW126337   5.477   3.646   2.701  1.1874  1.1132  0.0232
36115SOL    HW226338   5.349   3.724   2.723  1.1438  0.9089  0.4958
36116SOL     OW26339  11.838   5.515   8.708 -0.0562  0.1797 -0.0008
36116SOL    HW126340  11.834   5.479   8.797  0.0329 -1.7143 -0.7177
36116SOL    HW226341  11.795   5.601   8.715 -0.1189  0.0444  1.8403
36117SOL     OW26342   8.817   0.059   3.197  0.3246  0.1234 -0.3166
36117SOL    HW126343   8.744   0.082   3.139  0.5896 -3.1769 -2.2524
36117SOL    HW226344   8.785   0.077   3.285 -2.2775  0.2178 -1.1865
36118SOL     OW26345  13.953   6.116   4.083  0.5953  1.1448 -0.4046
36118SOL    HW126346  13.935   6.105   3.990  1.6621 -2.2862 -0.3451
36118SOL    HW226347  13.867   6.110   4.125  0.3252  0.4110 -1.0376
36119SOL     OW26348   5.850  12.701   2.021  0.1013 -0.1446 -0.1111
36119SOL    HW126349   5.893  12.629   2.067 -0.0851  0.2763  0.7376
36119SOL    HW226350   5.768  12.715   2.069  0.3873  0.9935  0.0895
36120SOL     OW26351   8.916  10.410  10.760  0.1843 -0.0901  0.1634
36120SOL    HW126352   8.956  10.433  10.844 -0.5468  0.0739  0.4768
36120SOL    HW226353   8.836  10.462  10.757 -0.1340 -0.5982 -0.3378
36121SOL     OW26354  13.504   0.831   8.639  0.1804 -0.1098 -0.2106
36121SOL    HW126355  13.427   0.871   8.597  0.7214  0.0683 -1.0506
36121SOL    HW226356  13.467   0.768   8.701 -0.6741  0.8813  0.3235
36122SOL     OW26357   4.507  12.364   6.469 -0.4736 -0.3032 -0.4623
36122SOL    HW126358   4.576  12.426   6.494 -1.0500  0.2757 -0.2691
36122SOL    HW226359   4.435  12.383   6.530 -0.7457 -1.0105 -0.5527
36123SOL     OW26360   2.714   9.420   1.304 -0.5190  0.0129  0.2652
36123SOL    HW126361   2.660   9.374   1.368  1.0754 -1.2551  0.7629
36123SOL    HW226362   2.723   9.358   1.231 -2.3079  1.4297 -1.2646
36124SOL     OW26363   0.585   6.760  12.014 -0.0657 -0.2374 -0.8129
36124SOL    HW126364   0.560   6.805  12.095 -2.6429 -1.8332 -0.6205
36124SOL    HW226365   0.529   6.799  11.947  1.3474  0.3641 -1.7006
36125SOL     OW26366   0.757  12.789   2.104 -0.0248  0.0127  0.1083
36125SOL    HW126367   0.779  12.749   2.188 -1.0604  0.3429  0.5547
36125SOL    HW226368   0.721  12.718   2.052 -1.9518  0.3408  0.9315
36126SOL     OW26369  12.629  13.246   8.775  0.3165  0.1697 -0.3662
36126SOL    HW126370  12.598  13.336   8.765 -0.7042 -0.1614 -0.3176
36126SOL    HW226371  12.634  13.212   8.686  0.1640  0.0958 -0.3458
36127SOL     OW26372  11.733   7.719   2.471 -0.0979  0.3022 -0.6326
36127SOL    HW126373  11.757   7.786   2.535 -0.8988 -0.5486  0.6108
36127SOL    HW226374  11.791   7.735   2.396 -0.7072  2.7564 -0.6519
36128SOL     OW26375   9.992   3.764   3.592  0.1502 -0.1150  0.0006
36128SOL    HW126376  10.060   3.801   3.534 -0.4685  4.3916  1.6900
36128SOL    HW226377  10.037   3.695   3.640  2.2039 -0.3551 -2.0664
36129SOL     OW26378  12.871   3.992   5.916  0.6998  0.3207  0.1669
36129SOL    HW126379  12.944   3.930   5.910  0.0521 -0.4314 -0.2510
36129SOL    HW226380  12.848   3.993   6.009 -0.3987 -1.4509 -0.0247
36130SOL     OW26381  10.784  10.592   3.751 -0.4605 -0.3151  0.8811
36130SOL    HW126382  10.782  10.554   3.838  1.4362  0.6078  1.3836
36130SOL    HW226383  10.817  10.681   3.764  2.0606 -0.8705 -0.9642
36131SOL     OW26384  12.385   7.824   3.024  0.2845  0.5254 -0.7016
36131SOL    HW126385  12.400   7.809   3.117  0.5953  0.8602 -0.6927
36131SOL    HW226386  12.473   7.830   2.986  0.1613  0.5564 -0.9890
36132SOL     OW26387   4.003  10.634   9.497  0.1488  0.0640  0.1029
36132SOL    HW126388   4.081  10.581   9.480 -0.3081 -1.0679  1.3545
36132SOL    HW226389   3.933  10.589   9.449  0.0563  0.4400 -0.1151
36133SOL     OW26390   9.629   8.790   5.968  0.0657 -0.5424  0.5346
36133SOL    HW126391   9.676   8.770   6.049 -0.4371 -0.7029  0.7918
36133SOL    HW226392   9.693   8.833   5.912  0.4737 -0.6246  0.9401
36134SOL     OW26393   6.586   2.871  13.420 -0.2265 -0.0107 -0.0432
36134SOL    HW126394   6.531   2.795  13.399 -0.2113  0.9520 -4.6523
36134SOL    HW226395   6.675   2.835  13.425 -0.4299 -0.5537 -0.2261
36135SOL     OW26396  10.569   4.443   4.945  0.4797  0.5294  0.0975
36135SOL    HW126397  10.608   4.356   4.941 -0.7899 -0.0526 -0.1406
36135SOL    HW226398  10.639   4.500   4.978  1.1249 -0.7027  0.9190
36136SOL     OW26399   8.630  13.603   6.382  0.2799  0.0815  1.0162
36136SOL    HW126400   8.537  13.594   6.363 -0.0707  1.8990  1.6826
36136SOL    HW226401   8.646  13.698   6.380  2.4132 -0.2192 -0.4551
36137SOL     OW26402  13.070  13.923   9.629  0.3021  0.1050  0.0466
36137SOL    HW126403  12.999  13.979   9.658  0.9062  0.6608  0.4728
36137SOL    HW226404  13.033  13.874   9.555  0.3708  2.5690 -1.7584
36138SOL     OW26405   1.067  13.000  13.458 -0.3966  0.1149  0.5245
36138SOL    HW126406   0.983  12.958  13.440 -0.2382 -0.5359  1.2586
36138SOL    HW226407   1.043  13.084  13.498 -0.7042 -0.4048  1.4625
36139SOL     OW26408  11.123   0.689   8.424  0.7135 -0.5555  0.8212
36139SOL    HW126409  11.063   0.623   8.458 -0.2392  0.8208  1.9473
36139SOL    HW226410  11.067   0.745   8.369  1.6759 -1.1509 -0.8422
36140SOL     OW26411   6.471  11.909   7.269  0.2909 -0.1013  0.3704
36140SOL    HW126412   6.383  11.902   7.305  0.9591 -0.6331  2.0165
36140SOL    HW226413   6.458  11.927   7.176 -1.5668 -2.0166  0.1909
36141SOL     OW26414   8.393   1.581  12.458  0.2285 -0.4427  0.0555
36141SOL    HW126415   8.462   1.516  12.446  0.0069 -0.9041  1.2202
36141SOL    HW226416   8.318   1.531  12.491  0.0265  0.3889  0.8872
36142SOL     OW26417   6.782   4.757  12.866 -0.1667  0.2382 -0.2903
36142SOL    HW126418   6.739   4.673  12.848 -1.8562  1.0176 -0.0666
36142SOL    HW226419   6.712   4.821  12.859  1.3867  1.8687 -2.0505
36143SOL     OW26420   7.318  10.462   5.178  0.2971  0.0065 -0.0771
36143SOL    HW126421   7.359  10.380   5.150  0.5810  0.5360 -1.2852
36143SOL    HW226422   7.343  10.471   5.270  2.0681 -0.2109 -0.4995
36144SOL     OW26423   4.076   1.337   6.662  0.4459 -0.3714  0.2891
36144SOL    HW126424   4.086   1.248   6.695 -1.0307 -0.0772  1.6727
36144SOL    HW226425   4.152   1.385   6.698 -0.3578 -0.4042  2.1374
36145SOL     OW26426   9.589   9.326   8.694  0.3599  0.5632  0.0856
36145SOL    HW126427   9.673   9.350   8.732  0.7956 -0.7084 -0.0443
36145SOL    HW226428   9.606   9.244   8.647 -0.9657  0.2329  0.1430
36146SOL     OW26429  10.250   4.520   7.385  0.2374  0.0069 -1.1182
36146SOL    HW126430  10.229   4.449   7.446 -0.8223  1.4025  0.2307
36146SOL    HW226431  10.298   4.477   7.314  0.3966 -1.9006  0.0587
36147SOL     OW26432   8.546   3.837   5.659  0.1409  0.4868 -0.3678
36147SOL    HW126433   8.557   3.909   5.597 -2.2929  1.9028  0.6969
36147SOL    HW226434   8.451   3.823   5.663  0.2637 -0.1888  2.2750
36148SOL     OW26435   9.613  12.962   3.197  0.4338 -0.2566 -0.0692
36148SOL    HW126436   9.652  13.041   3.160  2.8912  0.1288  2.9080
36148SOL    HW226437   9.582  12.912   3.122  1.7131  2.0411 -2.2673
36149SOL     OW26438  11.846  11.515  11.166 -0.0872 -0.1196 -0.4464
36149SOL    HW126439  11.841  11.429  11.125 -0.3199  0.6994 -2.2536
36149SOL    HW226440  11.916  11.506  11.231 -0.1296 -1.6703 -0.5752
36150SOL     OW26441   5.420   0.942  13.104 -0.1941  0.0749 -0.2097
36150SOL    HW126442   5.473   0.916  13.179 -0.7303 -0.8492 -0.1359
36150SOL    HW226443   5.457   0.894  13.030 -0.2016  0.3288 -0.3808
36151SOL     OW26444   2.535  11.347   1.720  0.8141  0.2339  0.0208
36151SOL    HW126445   2.489  11.362   1.638  0.2081 -1.4480  0.0084
36151SOL    HW226446   2.586  11.426   1.734  0.3756  0.8441 -1.6042
36152SOL     OW26447   8.892  11.573  11.087  0.1628  0.1914  0.2385
36152SOL    HW126448   8.975  11.571  11.134 -0.8114 -1.1195  2.0201
36152SOL    HW226449   8.826  11.588  11.154 -1.1594 -0.1867 -0.9276
36153SOL     OW26450   8.708   5.481  10.454  0.1796 -0.1979 -0.0357
36153SOL    HW126451   8.691   5.415  10.386  1.6970 -1.4378  0.7163
36153SOL    HW226452   8.670   5.443  10.533 -1.6244  1.2623 -0.1512
36154SOL     OW26453   2.079  11.609  12.011  0.5917 -0.1194  0.0286
36154SOL    HW126454   2.106  11.689  11.966 -0.9797  0.1488 -0.5096
36154SOL    HW226455   1.993  11.589  11.974 -0.6703 -0.0611  2.7343
36155SOL     OW26456  10.126  10.588   1.188 -0.0419 -0.1262  0.1561
36155SOL    HW126457  10.195  10.648   1.215  2.0996 -1.2089 -2.4916
36155SOL    HW226458  10.097  10.621   1.103 -2.0769 -0.3231  0.7174
36156SOL     OW26459   6.883  13.905  14.151 -0.0038 -0.0462 -0.2298
36156SOL    HW126460   6.930  13.850  14.213 -0.8690 -0.3695  0.1562
36156SOL    HW226461   6.826  13.959  14.205 -0.1703  0.2507 -0.6950
36157SOL     OW26462  13.075  10.648   8.374  0.1254  0.4815  0.3392
36157SOL    HW126463  13.059  10.569   8.426 -0.1283 -0.2262 -0.7782
36157SOL    HW226464  13.124  10.618   8.298 -0.7924  1.2275 -0.5860
36158SOL     OW26465   2.800   2.601   1.358 -0.1109 -0.5664  0.3162
36158SOL    HW126466   2.793   2.697   1.353 -2.7128 -0.6967 -0.5731
36158SOL    HW226467   2.894   2.583   1.356  0.4448  1.9515  0.2274
36159SOL     OW26468   7.588   3.964   0.595  0.0556 -0.1726 -0.7096
36159SOL    HW126469   7.576   4.034   0.658 -2.4926 -1.8126  0.8059
36159SOL    HW226470   7.681   3.967   0.572  0.2214  3.0359 -0.0410
36160SOL     OW26471   7.428   6.281   7.178 -0.6999 -0.3581  0.1836
36160SOL    HW126472   7.502   6.276   7.118 -1.4257  0.2744 -0.8030
36160SOL    HW226473   7.428   6.198   7.225  1.2422  0.0269  0.9703
36161SOL     OW26474  12.428   3.598  12.783  0.1645  0.5278 -0.0906
36161SOL    HW126475  12.395   3.530  12.842 -0.1413  0.0127 -0.8399
36161SOL    HW226476  12.381   3.583  12.701  0.5538  1.2593 -0.4562
36162SOL     OW26477  13.091   3.570   9.492  0.2762 -0.2622  0.6903
36162SOL    HW126478  13.065   3.661   9.509  0.0763 -0.1821 -0.0055
36162SOL    HW226479  13.019   3.534   9.442  0.6446 -0.6138  0.4080
36163SOL     OW26480   6.164  11.801  11.115 -0.2861  0.3706  0.0815
36163SOL    HW126481   6.208  11.723  11.147 -1.5225  0.2118  1.4873
36163SOL    HW226482   6.085  11.768  11.072 -1.2420  0.8532  1.4040
36164SOL     OW26483  10.609   7.397   1.281  0.2853  0.3067 -0.2805
36164SOL    HW126484  10.558   7.442   1.348 -0.2332 -0.6090 -0.0414
36164SOL    HW226485  10.670   7.342   1.331 -0.8574 -1.2404 -0.5044
36165SOL     OW26486   3.842  10.337   5.914 -0.0261 -0.3002 -0.5459
36165SOL    HW126487   3.777  10.358   5.981  0.2547 -2.1112  0.3561
36165SOL    HW226488   3.794  10.340   5.831 -0.9195 -0.2080 -0.0329
36166SOL     OW26489  11.848   4.522  13.055 -0.0867 -0.8190 -0.0159
36166SOL    HW126490  11.810   4.439  13.084 -0.2904 -0.7024  0.0593
36166SOL    HW226491  11.773   4.572  13.022  0.0467 -0.6939 -0.1278
36167SOL     OW26492   3.061   0.396   0.189 -0.2273 -0.1438 -0.5372
36167SOL    HW126493   2.977   0.367   0.152  0.3229 -0.3943 -1.6408
36167SOL    HW226494   3.069   0.347   0.271 -0.2195 -1.7317 -1.4288
36168SOL     OW26495  12.243   9.143   5.347  0.2951  0.0490 -0.2030
36168SOL    HW126496  12.308   9.083   5.311 -0.9567 -1.5938  0.1652
36168SOL    HW226497  12.217   9.198   5.273  0.3822 -0.8628 -0.9194
36169SOL     OW26498   2.841   6.803   2.748  0.5281 -0.0578 -0.2546
36169SOL    HW126499   2.896   6.729   2.773  0.6205  0.1397  0.1361
36169SOL    HW226500   2.825   6.791   2.654 -1.5410 -1.9560  0.2498
36170SOL     OW26501   7.343   8.905   5.840 -0.0498 -0.3785 -0.4063
36170SOL    HW126502   7.321   8.993   5.871  0.5203 -0.5248  0.4424
36170SOL    HW226503   7.278   8.848   5.882 -0.9527 -0.2870 -1.6232
36171SOL     OW26504  11.948   8.301   2.509 -0.6580  0.0402 -0.1185
36171SOL    HW126505  12.034   8.333   2.482 -0.9632 -0.0156 -1.1892
36171SOL    HW226506  11.886   8.340   2.447 -1.5262  0.8141  1.1899
36172SOL     OW26507  13.176  10.230  13.898 -0.7408 -0.0081  0.4176
36172SOL    HW126508  13.246  10.181  13.940  0.6101  1.8666  0.5071
36172SOL    HW226509  13.130  10.166  13.843  2.5141 -0.9385 -1.4897
36173SOL     OW26510   0.374   6.777   9.449  0.7852 -0.1317 -0.3872
36173SOL    HW126511   0.460   6.744   9.476  0.3573 -0.4122  0.7134
36173SOL    HW226512   0.354   6.847   9.512  0.3644  0.1810 -0.8543
36174SOL     OW26513  12.291   3.334   8.683  0.5119 -0.0586  0.6445
36174SOL    HW126514  12.334   3.258   8.645  0.4001  0.6329 -0.9451
36174SOL    HW226515  12.197   3.318   8.669  0.3041 -0.6967  2.4407
36175SOL     OW26516   4.937   7.807  12.179  0.0744  0.0617 -0.6612
36175SOL    HW126517   4.966   7.892  12.212 -0.9501  1.1727 -2.4438
36175SOL    HW226518   4.987   7.743  12.230  1.2850  1.7251  0.3486
36176SOL     OW26519   5.866   5.623   9.514 -0.6613 -1.2561  0.3366
36176SOL    HW126520   5.931   5.615   9.584  0.4296 -0.9594 -0.6119
36176SOL    HW226521   5.855   5.717   9.502  2.9576 -1.0111 -3.1782
36177SOL     OW26522  13.030   4.182  12.809  0.5310 -0.3844  0.8540
36177SOL    HW126523  12.997   4.235  12.736  1.1284  0.5521  1.2340
36177SOL    HW226524  13.026   4.092  12.778  1.2009  0.0320 -0.5150
36178SOL     OW26525  10.950   8.203   6.311 -0.2129  0.4972  0.0726
36178SOL    HW126526  10.864   8.240   6.332 -0.6583  0.2295 -1.2079
36178SOL    HW226527  10.988   8.183   6.396 -2.3466 -1.4653  0.6701
36179SOL     OW26528  13.013   1.923   2.464  0.1640 -0.3462  0.4132
36179SOL    HW126529  12.974   1.951   2.547 -0.5352  0.3588 -0.1429
36179SOL    HW226530  13.103   1.900   2.487 -0.0417 -0.2301  1.3825
36180SOL     OW26531  11.504   9.771   2.132 -0.1745 -0.5361 -0.3667
36180SOL    HW126532  11.437   9.804   2.192 -0.5442 -2.0232  0.0879
36180SOL    HW226533  11.580   9.756   2.187 -0.0093 -0.4557 -0.5699
36181SOL     OW26534   5.654  11.329   7.631 -0.3639 -0.0034  0.3675
36181SOL    HW126535   5.711  11.406   7.627 -0.6603  0.3747  2.3373
36181SOL    HW226536   5.713  11.255   7.617 -0.0310  0.5484 -1.3022
36182SOL     OW26537  11.569   3.520   6.045  0.0463 -0.6814  0.2053
36182SOL    HW126538  11.553   3.612   6.025 -0.7409 -1.0742 -1.0791
36182SOL    HW226539  11.657   3.519   6.083  0.7058  0.4342 -1.1917
36183SOL     OW26540   1.387   0.393   3.362  0.2324  0.1874 -0.3103
36183SOL    HW126541   1.470   0.426   3.395  0.1613 -0.5929  0.6938
36183SOL    HW226542   1.410   0.317   3.309  0.2442  0.6590 -0.9856
36184SOL     OW26543   9.397   9.376  12.500 -0.2944 -0.4580 -0.0050
36184SOL    HW126544   9.335   9.340  12.563 -0.2530 -1.3089 -0.4455
36184SOL    HW226545   9.370   9.468  12.490 -1.4265 -0.7913 -0.1325
36185SOL     OW26546   7.477  14.027   3.011 -0.6154  0.3320  0.4058
36185SOL    HW126547   7.411  13.988   3.069 -1.0189  0.5416  0.0899
36185SOL    HW226548   7.559  13.985   3.038 -0.7733  0.5124  1.2125
36186SOL     OW26549   1.718   7.446   1.168  0.3696 -0.1945  0.2835
36186SOL    HW126550   1.793   7.435   1.109 -0.4995 -0.4372 -0.7946
36186SOL    HW226551   1.752   7.501   1.239  1.4487  0.0778 -0.4215
36187SOL     OW26552   4.944   3.724   4.937  0.0925  0.5159  0.2333
36187SOL    HW126553   4.875   3.748   4.999  0.2871  0.6938  0.3799
36187SOL    HW226554   4.897   3.684   4.864 -0.1932  0.9095  0.1972
36188SOL     OW26555  10.201   9.685   3.897 -0.7671  0.0162 -0.5701
36188SOL    HW126556  10.218   9.603   3.942 -0.0841  0.8893  0.8223
36188SOL    HW226557  10.282   9.735   3.906 -1.7201  1.5205  0.1250
36189SOL     OW26558  12.206   4.179  11.465 -0.2637 -0.0742 -0.0609
36189SOL    HW126559  12.156   4.235  11.405 -2.5766 -1.1131  0.7639
36189SOL    HW226560  12.253   4.240  11.521  0.2554  0.9426 -1.5464
36190SOL     OW26561   1.646   2.808  12.313 -0.1599 -0.3461  0.5509
36190SOL    HW126562   1.588   2.734  12.298 -2.6635  0.7620  3.6110
36190SOL    HW226563   1.698   2.781  12.389  1.4079 -0.2095 -0.4276
36191SOL     OW26564  12.142  12.145   2.489 -0.3918  0.3069 -0.2237
36191SOL    HW126565  12.164  12.128   2.581 -0.5028  2.2573  0.2236
36191SOL    HW226566  12.073  12.082   2.469  0.6377 -1.1321  0.5516
36192SOL     OW26567  10.381   6.371  14.090 -0.3481  0.2080  0.1080
36192SOL    HW126568  10.389   6.464  14.108 -0.9949  0.7482 -2.1374
36192SOL    HW226569  10.469   6.344  14.064 -0.1345  0.1401  0.8708
36193SOL     OW26570   1.483  10.887  13.602 -0.1560 -0.1725  0.2285
36193SOL    HW126571   1.452  10.869  13.513  0.5983 -0.5933  0.0439
36193SOL    HW226572   1.481  10.983  13.608 -0.0028 -0.1278 -0.3230
36194SOL     OW26573  12.630  11.484   3.422  0.3036 -0.2415 -0.1347
36194SOL    HW126574  12.614  11.550   3.355  0.7113 -1.3320 -1.3382
36194SOL    HW226575  12.611  11.401   3.379  0.7685 -0.9797  1.0444
36195SOL     OW26576  12.661   1.780   6.088  0.3257  0.2582 -0.4494
36195SOL    HW126577  12.612   1.783   6.005 -0.0296 -1.6979 -0.3462
36195SOL    HW226578  12.687   1.871   6.103 -0.0789  0.7523 -2.4203
36196SOL     OW26579  13.665  11.710   3.888  0.2201  0.1893  0.7794
36196SOL    HW126580  13.650  11.791   3.840 -2.1580  0.6217  2.0992
36196SOL    HW226581  13.693  11.647   3.822  0.6684  1.7015 -0.5140
36197SOL     OW26582   2.740  11.731  11.489  0.6189  0.2189  0.3939
36197SOL    HW126583   2.690  11.675  11.548  1.3129  1.3798  2.1538
36197SOL    HW226584   2.793  11.670  11.437  0.1601 -0.8316  1.1279
36198SOL     OW26585   2.785  14.050  13.694  0.1304 -0.2412 -0.6299
36198SOL    HW126586   2.781  14.060  13.599 -0.3737 -2.0236 -0.8413
36198SOL    HW226587   2.849  13.980  13.708  0.7837  0.5496  0.3991
36199SOL     OW26588  11.718  10.228   2.412 -0.2668 -0.1701 -0.7416
36199SOL    HW126589  11.652  10.275   2.362 -0.6541  0.1901  0.1013
36199SOL    HW226590  11.677  10.210   2.496  1.6448  2.6828  0.9725
36200SOL     OW26591   9.065   3.142   9.816  0.6668  0.2681 -0.4419
36200SOL    HW126592   9.048   3.091   9.894 -0.2949  0.4960 -0.4972
36200SOL    HW226593   8.995   3.119   9.755  0.7583  0.9332 -0.8189
36201SOL     OW26594   0.561   5.443   0.695  0.7048  0.7278  0.3599
36201SOL    HW126595   0.580   5.390   0.772  1.0577  0.8531  0.3557
36201SOL    HW226596   0.466   5.455   0.698  0.7264  0.7933  0.8116
36202SOL     OW26597   9.914   4.104   9.643  0.0446  0.0622  0.2984
36202SOL    HW126598   9.888   4.093   9.735  1.0409  2.9563  1.0503
36202SOL    HW226599   9.846   4.160   9.605 -0.4016 -1.1737 -0.7907
36203SOL     OW26600   9.905  13.315   5.481  0.2879  0.2954  0.4377
36203SOL    HW126601   9.916  13.319   5.576 -0.0162 -0.8459  0.5345
36203SOL    HW226602   9.865  13.230   5.465 -0.7275  0.9308 -0.6150
36204SOL     OW26603   0.698   1.867   6.839 -0.1289  0.0845 -0.2957
36204SOL    HW126604   0.672   1.778   6.864 -0.8288  0.6768  1.2587
36204SOL    HW226605   0.789   1.858   6.810 -0.0882 -1.0931  0.1316
36205SOL     OW26606   0.788  12.785   4.399 -0.0450 -0.5575 -0.1902
36205SOL    HW126607   0.808  12.771   4.491  1.2800  0.6807 -0.2566
36205SOL    HW226608   0.693  12.777   4.393 -0.3938  1.3304  1.6676
36206SOL     OW26609   2.410   4.429  10.329  0.3841 -0.1163  0.2562
36206SOL    HW126610   2.340   4.386  10.379 -0.8407 -0.3777 -1.5937
36206SOL    HW226611   2.487   4.424  10.386 -1.0416  0.0206  2.2930
36207SOL     OW26612  13.242   3.678  13.560  0.2733  0.1113  0.0359
36207SOL    HW126613  13.210   3.596  13.598  3.0083 -0.0809  2.2439
36207SOL    HW226614  13.326   3.656  13.521  0.5518  1.6610 -0.3084
36208SOL     OW26615  10.456   2.250  12.227 -0.5725 -0.8585 -0.7720
36208SOL    HW126616  10.454   2.192  12.150 -3.2527  0.2209 -1.6305
36208SOL    HW226617  10.468   2.338  12.191  0.1595 -0.5214  0.2476
36209SOL     OW26618  13.920   7.571   2.291 -0.1541  0.2271 -0.6996
36209SOL    HW126619  13.998   7.611   2.331  1.1227 -0.0389 -2.7992
36209SOL    HW226620  13.953   7.492   2.249 -1.8937 -0.7973 -0.2388
36210SOL     OW26621   8.332   7.711   1.777  0.0064 -0.4240  0.1172
36210SOL    HW126622   8.260   7.774   1.788 -0.9004 -1.1887 -1.2068
36210SOL    HW226623   8.405   7.763   1.744 -0.7987 -0.0750 -1.1751
36211SOL     OW26624  11.150   9.212   2.270 -0.0181  0.5298  0.2428
36211SOL    HW126625  11.080   9.161   2.231 -1.1279  1.0955  1.4106
36211SOL    HW226626  11.218   9.147   2.291 -0.9986 -0.3457  0.8389
36212SOL     OW26627  10.577  10.868   6.554 -0.5220  0.5115 -0.1105
36212SOL    HW126628  10.565  10.795   6.494 -1.1416 -0.8833  1.6361
36212SOL    HW226629  10.489  10.906   6.563 -0.8602 -0.5601  1.4287
36213SOL     OW26630   2.516   7.575   2.212 -0.6912 -0.1992  0.0538
36213SOL    HW126631   2.589   7.564   2.152  0.6753  1.2986  1.3309
36213SOL    HW226632   2.439   7.584   2.156  0.0007 -2.1490 -1.3193
36214SOL     OW26633   0.450   2.357   4.228  0.0860  0.3012  0.1329
36214SOL    HW126634   0.468   2.305   4.150 -1.4455 -1.4248  0.8534
36214SOL    HW226635   0.372   2.408   4.205 -0.4658 -0.3334  0.5560
36215SOL     OW26636   2.095   7.994   5.193  0.3944 -0.3300  0.3021
36215SOL    HW126637   2.012   7.979   5.237 -1.0393 -0.4437 -2.2681
36215SOL    HW226638   2.095   8.087   5.172  0.5612 -0.4728 -0.3633
36216SOL     OW26639   7.282  10.534   0.168 -0.3532 -0.1230 -0.2082
36216SOL    HW126640   7.211  10.595   0.145 -0.6206 -0.6617 -0.8703
36216SOL    HW226641   7.305  10.493   0.084 -2.3890 -3.2962  0.6394
36217SOL     OW26642   9.930  12.446  13.688  0.0499 -0.5044  0.1435
36217SOL    HW126643   9.843  12.411  13.706  0.1973 -0.3695  1.1763
36217SOL    HW226644   9.989  12.386  13.734  0.4746 -0.2912 -0.1196
36218SOL     OW26645  13.376   2.679   4.279 -0.0193  0.4652 -0.0381
36218SOL    HW126646  13.282   2.695   4.279  0.0648  0.9787  0.6558
36218SOL    HW226647  13.413   2.749   4.225 -0.0625  0.0489 -0.6200
36219SOL     OW26648   8.478   6.082   4.468 -0.3521 -0.2805  0.2668
36219SOL    HW126649   8.541   6.153   4.482 -0.9211  0.3760 -0.3894
36219SOL    HW226650   8.410   6.097   4.533 -0.3393 -0.3827  0.3035
36220SOL     OW26651   9.438   2.776   6.877  0.1622 -0.3843  0.6536
36220SOL    HW126652   9.531   2.798   6.886  0.0856 -0.3760  1.5419
36220SOL    HW226653   9.393   2.860   6.881  0.1852 -0.2322 -1.2914
36221SOL     OW26654  13.218  10.683  13.573 -0.1611  0.2338  0.2905
36221SOL    HW126655  13.260  10.613  13.523  0.4406  2.0027 -1.7885
36221SOL    HW226656  13.127  10.682  13.544 -0.4166 -0.3315  1.0618
36222SOL     OW26657   4.594   4.263  10.094 -0.2422  0.3059  0.3101
36222SOL    HW126658   4.499   4.268  10.107 -0.7133 -0.4022 -2.2930
36222SOL    HW226659   4.615   4.340  10.042  0.8548  1.0134  1.7183
36223SOL     OW26660  11.035   9.597   6.278 -0.1739 -0.8147  0.8075
36223SOL    HW126661  10.991   9.531   6.331 -1.1406 -0.2489  0.7403
36223SOL    HW226662  10.974   9.615   6.207  0.5206 -0.5762  0.2559
36224SOL     OW26663   5.691  10.987   8.061 -0.2723  0.0132  0.0241
36224SOL    HW126664   5.786  10.977   8.071 -0.3382  0.3347  1.0175
36224SOL    HW226665   5.654  10.944   8.138 -0.8901  0.7247  0.1307
36225SOL     OW26666   0.745   5.556   6.659  0.2108 -0.7425 -0.2395
36225SOL    HW126667   0.837   5.547   6.633  0.5824 -1.6810  1.2567
36225SOL    HW226668   0.747   5.558   6.755 -1.3092 -0.3465 -0.1853
36226SOL     OW26669   8.244   7.331   0.094  0.2558  0.0155  0.4767
36226SOL    HW126670   8.293   7.374   0.165  1.3089 -1.8094  0.9182
36226SOL    HW226671   8.207   7.403   0.043  1.4176  1.4143  1.5361
36227SOL     OW26672   7.886   2.623   8.690 -0.1338  0.1649 -0.0013
36227SOL    HW126673   7.981   2.629   8.695 -0.1230  0.5476 -0.6101
36227SOL    HW226674   7.856   2.642   8.779  0.3901 -0.8655  0.4059
36228SOL     OW26675   6.803   3.081   2.895  0.6072 -0.6380 -0.0945
36228SOL    HW126676   6.783   3.027   2.818 -1.0179 -0.4172  0.1472
36228SOL    HW226677   6.787   3.022   2.969  1.6202 -0.6749  0.1086
36229SOL     OW26678   5.297  11.059   1.373  0.0003 -0.6761  0.9191
36229SOL    HW126679   5.292  11.133   1.311 -2.0179  1.0638  2.9652
36229SOL    HW226680   5.384  11.023   1.360  0.0683  0.2856 -2.1253
36230SOL     OW26681   1.071   3.142   7.604  0.2604 -0.2862 -0.1793
36230SOL    HW126682   1.072   3.102   7.517  0.9838 -0.6763  0.0029
36230SOL    HW226683   1.007   3.213   7.597  0.8030  0.1241 -1.2226
36231SOL     OW26684   6.195  10.422   2.389 -0.0410 -0.2444 -0.2719
36231SOL    HW126685   6.170  10.510   2.414  2.9720  1.0328 -1.2681
36231SOL    HW226686   6.279  10.407   2.433  0.6241 -1.6952 -1.8889
36232SOL     OW26687   3.411   9.129   8.535 -0.1227  0.0668 -0.4149
36232SOL    HW126688   3.406   9.102   8.627  0.1833 -0.7108 -0.6246
36232SOL    HW226689   3.486   9.082   8.500  0.0176  0.6802 -0.9625
36233SOL     OW26690   9.784  13.032   5.094 -0.4408  0.5881 -0.1840
36233SOL    HW126691   9.822  12.966   5.152  0.3582  1.1515 -0.0566
36233SOL    HW226692   9.757  12.984   5.016  1.0689  0.2579 -0.5224
36234SOL     OW26693   3.050  10.919   0.112  0.3409  0.0927  0.2495
36234SOL    HW126694   3.138  10.934   0.147  0.4982 -0.1417 -0.0396
36234SOL    HW226695   3.063  10.906   0.018  0.1956 -1.5325  0.4138
36235SOL     OW26696   0.867   0.157   5.863 -0.6075  0.0247 -0.5978
36235SOL    HW126697   0.880   0.232   5.921 -1.3111 -0.4192  0.1498
36235SOL    HW226698   0.810   0.191   5.793 -0.4427  0.3427 -0.5790
36236SOL     OW26699   6.197   5.913   4.780  0.4954  0.0339  0.3413
36236SOL    HW126700   6.113   5.870   4.765  1.4498 -1.8166 -0.0267
36236SOL    HW226701   6.195   5.991   4.725 -2.1725  1.7997  2.7085
36237SOL     OW26702   3.021   1.755  12.339 -0.2839 -0.2977  0.5488
36237SOL    HW126703   2.964   1.806  12.397 -0.7501  1.5456 -1.3988
36237SOL    HW226704   2.961   1.697  12.292 -0.3300  0.3186 -0.1708
36238SOL     OW26705   1.447  12.448   2.136  0.2952 -0.8411 -0.5232
36238SOL    HW126706   1.361  12.467   2.099  0.6713  2.0605 -0.1056
36238SOL    HW226707   1.429  12.418   2.225 -0.3296  2.6837  0.6931
36239SOL     OW26708  13.470   3.881   9.590 -0.3970  0.0352  0.2048
36239SOL    HW126709  13.484   3.961   9.640 -1.4498  0.2086  0.2426
36239SOL    HW226710  13.413   3.828   9.646  0.2136 -0.7134  0.1394
36240SOL     OW26711  12.581   8.344   7.512 -0.3244 -0.5882  0.0089
36240SOL    HW126712  12.670   8.347   7.547 -0.0864  1.4103 -0.6590
36240SOL    HW226713  12.526   8.329   7.589  0.5197 -0.9249  0.5573
36241SOL     OW26714   0.252   4.816  10.626 -0.5475  0.3487  0.1959
36241SOL    HW126715   0.243   4.755  10.553 -0.1144  1.4225 -0.7783
36241SOL    HW226716   0.210   4.771  10.699 -0.9210 -0.7859 -0.6784
36242SOL     OW26717   6.677   6.907   9.075  0.1234 -0.4710 -0.3252
36242SOL    HW126718   6.586   6.907   9.103  0.1224 -0.2550 -0.3244
36242SOL    HW226719   6.692   6.819   9.042  0.0147 -0.6108 -0.0036
36243SOL     OW26720   0.105   6.292   7.324  0.6202 -0.2091  0.4500
36243SOL    HW126721   0.119   6.234   7.399 -0.3830 -0.0986  0.7475
36243SOL    HW226722   0.012   6.282   7.304  1.4123 -2.5454 -2.7421
36244SOL     OW26723  13.260  13.490  12.193 -0.7538  0.1224  0.1867
36244SOL    HW126724  13.292  13.447  12.272 -0.0932  1.2852  0.5727
36244SOL    HW226725  13.336  13.535  12.157 -1.4405  1.0569 -0.1390
36245SOL     OW26726   9.684   3.879   2.256  0.1517 -0.4691 -0.5163
36245SOL    HW126727   9.619   3.851   2.191 -1.2342 -0.9278  0.9806
36245SOL    HW226728   9.759   3.907   2.205 -1.0443 -0.3871 -2.3244
36246SOL     OW26729   7.435  13.449   1.694  0.0441 -0.1511  0.3896
36246SOL    HW126730   7.357  13.435   1.748 -0.7816 -1.4766 -1.0393
36246SOL    HW226731   7.485  13.368   1.703 -0.3587 -0.6166 -1.1373
36247SOL     OW26732   1.817   4.869  12.984  0.3083 -0.1221 -0.3454
36247SOL    HW126733   1.757   4.874  12.910 -0.4835 -0.7063  0.2320
36247SOL    HW226734   1.810   4.778  13.015 -2.0641  0.8627  2.5488
36248SOL     OW26735   8.426  11.365   6.407 -0.2260 -0.0873 -0.9441
36248SOL    HW126736   8.499  11.306   6.427 -0.7477 -0.4921 -0.1834
36248SOL    HW226737   8.385  11.328   6.329 -1.9449 -2.0946  0.8094
36249SOL     OW26738   9.406   4.783   3.157 -0.2339 -0.0114  0.2204
36249SOL    HW126739   9.404   4.848   3.227  0.7147  0.7742 -0.4630
36249SOL    HW226740   9.484   4.731   3.175 -1.9304 -2.2073  1.8054
36250SOL     OW26741  13.252   3.306   8.626  0.2098 -0.0904 -0.3235
36250SOL    HW126742  13.223   3.218   8.651  2.2684 -0.2872  1.7048
36250SOL    HW226743  13.306   3.293   8.549  0.2010 -0.5454 -0.2533
36251SOL     OW26744  10.116   0.520   3.764 -0.1181  0.5509 -0.0143
36251SOL    HW126745  10.033   0.476   3.748  0.7860 -1.7882  1.2613
36251SOL    HW226746  10.098   0.581   3.836 -0.4247 -1.1219  1.3804
36252SOL     OW26747  12.454   7.112   8.992 -0.3378  0.0042  0.5805
36252SOL    HW126748  12.394   7.099   8.919 -0.7936 -0.7274  1.0757
36252SOL    HW226749  12.532   7.149   8.951 -0.4086 -0.8165 -0.3624
36253SOL     OW26750   4.105  11.290   4.530  0.4241 -0.2963 -0.1165
36253SOL    HW126751   4.052  11.316   4.606 -0.5340 -2.3234 -0.0283
36253SOL    HW226752   4.115  11.370   4.479 -1.7549  0.4085  0.4650
36254SOL     OW26753   1.072  11.012  13.998  0.2178 -0.0529  0.0467
36254SOL    HW126754   1.132  11.059  14.056  0.5244 -0.2987 -0.0723
36254SOL    HW226755   1.015  11.080  13.962  1.1054  0.3242 -0.6613
36255SOL     OW26756  11.678   3.533   1.621  0.0503  0.4067  0.2841
36255SOL    HW126757  11.718   3.464   1.675  0.0989 -1.3393 -1.8709
36255SOL    HW226758  11.741   3.548   1.551 -0.3557  2.1005  0.2488
36256SOL     OW26759   0.599  11.455   8.850  0.2121 -0.5553  1.0431
36256SOL    HW126760   0.581  11.508   8.929  0.1919  0.0521  0.6389
36256SOL    HW226761   0.512  11.426   8.821  0.1658 -0.3152  0.9339
36257SOL     OW26762   1.782   7.452   8.276  0.0821 -0.2031  0.0135
36257SOL    HW126763   1.818   7.541   8.281  0.2980 -0.2696 -0.2905
36257SOL    HW226764   1.697   7.463   8.234 -0.0591 -0.0992  0.3179
36258SOL     OW26765   7.572   4.433   3.088 -0.5815  0.3498  0.6036
36258SOL    HW126766   7.508   4.498   3.057 -1.1544 -0.1288  0.7693
36258SOL    HW226767   7.638   4.430   3.019 -0.2955  1.4487  0.8034
36259SOL     OW26768   8.461   1.024   1.537 -0.1169 -0.2484  0.1226
36259SOL    HW126769   8.475   0.997   1.628  0.4145  1.2689  0.5179
36259SOL    HW226770   8.545   1.061   1.509 -0.1931 -0.9175 -1.0850
36260SOL     OW26771   0.458  10.171   7.803 -0.2763  0.2671 -0.3629
36260SOL    HW126772   0.391  10.148   7.738  0.6624 -0.0601 -1.2311
36260SOL    HW226773   0.422  10.247   7.848 -0.8180  0.6820 -1.4628
36261SOL     OW26774   6.519   7.283   0.054 -0.2200 -0.1890  0.0919
36261SOL    HW126775   6.609   7.276   0.025 -0.0115 -0.4392  0.7726
36261SOL    HW226776   6.484   7.194   0.046  0.2146 -0.5458  1.7403
36262SOL     OW26777   4.683   1.008  11.011  0.0201  0.0356  0.2231
36262SOL    HW126778   4.645   1.081  11.061 -0.5151 -1.7414  2.5843
36262SOL    HW226779   4.770   0.997  11.048 -0.2008 -1.0005  0.4732
36263SOL     OW26780   6.215   0.512   1.637 -0.0140  0.1106 -0.5720
36263SOL    HW126781   6.125   0.482   1.621 -0.1059 -0.0556  0.1879
36263SOL    HW226782   6.252   0.526   1.550 -1.4002  2.0621 -0.8969
36264SOL     OW26783   5.459   9.561  13.491  0.3947  0.0275  0.2260
36264SOL    HW126784   5.526   9.517  13.542 -1.3395 -1.9817  0.9341
36264SOL    HW226785   5.451   9.508  13.411 -0.6375 -0.0589  0.3667
36265SOL     OW26786   6.810   6.210   8.217  0.1548  0.0289  0.0543
36265SOL    HW126787   6.725   6.185   8.254  0.4765  0.5309  1.1703
36265SOL    HW226788   6.799   6.197   8.123 -1.0594 -0.2125  0.2036
36266SOL     OW26789   9.249  11.154   5.301  0.5038  0.0449  0.4553
36266SOL    HW126790   9.336  11.117   5.287  1.0263  1.4221 -0.2152
36266SOL    HW226791   9.266  11.241   5.337 -0.6445 -0.0655  1.3122
36267SOL     OW26792  11.764   2.907  12.222 -0.1556 -0.2190 -0.0498
36267SOL    HW126793  11.794   2.893  12.312 -1.9394 -1.4082  0.4121
36267SOL    HW226794  11.674   2.937  12.231  0.1516  1.2426 -1.4353
36268SOL     OW26795   7.847   1.224   8.842  0.5788  0.1275 -0.1925
36268SOL    HW126796   7.886   1.257   8.923 -1.0981  1.6339  0.0760
36268SOL    HW226797   7.874   1.133   8.838  1.3166  0.2120  1.6929
36269SOL     OW26798   1.403   0.637  10.363 -0.8310 -0.0563 -0.2419
36269SOL    HW126799   1.417   0.548  10.331  0.8144  0.2677 -0.4827
36269SOL    HW226800   1.314   0.659  10.335 -2.1781 -2.4318  1.8350
36270SOL     OW26801   3.534  12.748   9.757  0.4425  0.5920 -0.9869
36270SOL    HW126802   3.554  12.744   9.850  1.5152 -0.4240 -1.2281
36270SOL    HW226803   3.467  12.681   9.744 -0.0654  1.0697 -0.8815
36271SOL     OW26804   5.544   6.880   3.627 -0.0824 -0.1002 -0.1374
36271SOL    HW126805   5.581   6.951   3.574  2.5201 -1.3305 -0.1193
36271SOL    HW226806   5.534   6.808   3.565 -0.9135 -0.3156  0.2356
36272SOL     OW26807  10.820  13.063   9.006 -0.3345  0.7368 -0.3847
36272SOL    HW126808  10.821  13.052   9.101 -2.6349 -0.6367 -0.4418
36272SOL    HW226809  10.911  13.046   8.979  0.0028 -0.5963  1.4062
36273SOL     OW26810   0.635   7.194   4.175 -0.3441  0.1708  0.6821
36273SOL    HW126811   0.622   7.147   4.092  0.6692 -2.2355  1.7822
36273SOL    HW226812   0.717   7.242   4.163 -0.4327  0.1925  0.1465
36274SOL     OW26813  10.005   0.766   8.590 -0.1839  0.5031 -0.0812
36274SOL    HW126814   9.927   0.759   8.536 -0.1932 -0.6169  0.0666
36274SOL    HW226815   9.994   0.699   8.657  1.4618 -0.4731 -0.7516
36275SOL     OW26816  13.935   1.962   3.323  0.5556  1.1276  0.5677
36275SOL    HW126817  14.015   1.923   3.359 -0.4396  0.1753  1.8978
36275SOL    HW226818  13.867   1.897   3.342 -0.4976  1.8237 -0.7063
36276SOL     OW26819  10.491   3.920   3.070  0.4509  0.0550 -0.1478
36276SOL    HW126820  10.466   3.828   3.057  0.6053  0.0906 -0.7368
36276SOL    HW226821  10.485   3.959   2.983  0.4037  0.6044  0.0969
36277SOL     OW26822  11.219  12.162  11.536  0.2823  0.0200  0.2742
36277SOL    HW126823  11.146  12.113  11.573 -1.5219  1.1674 -1.5591
36277SOL    HW226824  11.259  12.207  11.611  0.6427 -2.4475  1.6525
36278SOL     OW26825  10.572   9.693   8.774 -0.0017 -0.0309  0.4616
36278SOL    HW126826  10.647   9.634   8.778 -0.1032 -0.1940  0.0474
36278SOL    HW226827  10.516   9.666   8.846  0.5869  0.4421  1.1074
36279SOL     OW26828  13.421   9.891   3.950 -0.3831 -0.0403 -0.1103
36279SOL    HW126829  13.443   9.982   3.971 -0.3564 -0.4901  2.0266
36279SOL    HW226830  13.325   9.889   3.949 -0.3874 -0.0211  0.0972
36280SOL     OW26831   9.414  13.932   0.103 -0.3932 -0.0394  0.0627
36280SOL    HW126832   9.505  13.904   0.088 -0.2622 -0.6549  1.7563
36280SOL    HW226833   9.422  14.010   0.158 -0.8892 -0.1203  0.2554
36281SOL     OW26834   1.078  10.250   5.449 -0.4928  0.1395 -0.2935
36281SOL    HW126835   1.105  10.269   5.539  0.0175 -0.9201 -0.2047
36281SOL    HW226836   1.080  10.155   5.443 -2.0484  0.1241 -0.9771
36282SOL     OW26837   0.243   8.985   3.639 -0.1118  0.1540  0.0177
36282SOL    HW126838   0.308   9.051   3.613  1.1373 -1.1527 -0.3033
36282SOL    HW226839   0.162   9.014   3.599  0.6002  1.0426 -0.8248
36283SOL     OW26840   4.149  10.377   5.798 -0.2944  0.5787  0.1077
36283SOL    HW126841   4.203  10.453   5.822  0.6928 -0.1921  0.3980
36283SOL    HW226842   4.137  10.330   5.881  2.5862 -1.7687 -0.6583
36284SOL     OW26843   0.410   0.656  12.625  0.1556  0.5212 -0.3493
36284SOL    HW126844   0.344   0.629  12.690 -1.8554 -1.8528 -3.1371
36284SOL    HW226845   0.360   0.703  12.558  1.7275  0.7264 -1.4319
36285SOL     OW26846   8.523   4.389   1.545  0.3140  0.4050  0.0091
36285SOL    HW126847   8.575   4.324   1.592 -0.5266 -0.7498 -0.6278
36285SOL    HW226848   8.443   4.396   1.596 -0.1557 -0.0623 -0.6580
36286SOL     OW26849  10.005   9.064   4.210 -0.6851 -0.3500 -0.2213
36286SOL    HW126850   9.968   9.153   4.210 -1.3282 -0.5779  1.1493
36286SOL    HW226851  10.079   9.068   4.150  1.2448  1.9953  2.0440
36287SOL     OW26852   6.062   1.796  13.434  0.2548  0.0215 -0.1401
36287SOL    HW126853   6.098   1.770  13.350 -0.3964 -2.1223  0.1896
36287SOL    HW226854   5.970   1.768  13.431  0.3083 -0.4341  1.4109
36288SOL     OW26855   2.071   6.499   2.373 -0.0454 -0.2215  0.0905
36288SOL    HW126856   2.037   6.481   2.285 -0.2837 -1.7268  0.4647
36288SOL    HW226857   2.006   6.557   2.412 -0.0661  0.2496 -0.6340
36289SOL     OW26858   4.516   9.497   3.568  0.6633  0.1076  0.0788
36289SOL    HW126859   4.441   9.513   3.625  0.8505  1.1083  0.0507
36289SOL    HW226860   4.586   9.550   3.605  1.8463 -2.0188  1.0382
36290SOL     OW26861   6.463   3.112   8.903  0.7157 -0.2433 -0.4223
36290SOL    HW126862   6.555   3.121   8.876  1.7079  1.0026  2.8166
36290SOL    HW226863   6.460   3.025   8.944 -0.1457 -1.1134 -2.2107
36291SOL     OW26864  10.176   4.826  10.992  0.0612  0.4468  0.0350
36291SOL    HW126865  10.111   4.849  10.926 -1.4635  0.1509  1.3509
36291SOL    HW226866  10.195   4.733  10.976 -1.1442  0.0703  0.6428
36292SOL     OW26867   1.459  10.987  14.136  0.2063 -0.1687 -0.1443
36292SOL    HW126868   1.478  11.010  14.045 -0.2491  0.6754 -0.0418
36292SOL    HW226869   1.369  11.015  14.150 -0.2635 -1.7307  0.1310
36293SOL     OW26870   5.640   9.345   6.471  0.6559  0.1409  0.2396
36293SOL    HW126871   5.661   9.420   6.415 -0.1914 -0.2189 -0.5865
36293SOL    HW226872   5.582   9.291   6.418  1.4103 -1.2198  0.7487
36294SOL     OW26873   8.412  12.389  12.531 -0.2121 -0.3183  0.2916
36294SOL    HW126874   8.375  12.426  12.451  1.4991 -0.0123 -0.4051
36294SOL    HW226875   8.359  12.311  12.548 -0.9297 -0.1033 -0.8426
36295SOL     OW26876   9.031  13.796   2.485  0.2110  0.0400 -0.3638
36295SOL    HW126877   9.088  13.829   2.554  0.1656 -1.5153  0.4663
36295SOL    HW226878   8.943  13.822   2.512  0.3877  1.5024 -1.0933
36296SOL     OW26879  12.507  10.773   1.027  0.5612  0.2814 -0.1308
36296SOL    HW126880  12.482  10.712   1.096 -0.7697  1.6562  0.6626
36296SOL    HW226881  12.589  10.738   0.993 -0.6517 -2.5071 -0.4351
36297SOL     OW26882   3.929   0.704   2.229  0.2108  0.2470 -0.7240
36297SOL    HW126883   3.887   0.651   2.297  1.5173  0.6644  0.4584
36297SOL    HW226884   3.886   0.789   2.234  0.6800  0.4500 -0.0106
36298SOL     OW26885   3.400  11.656   6.188 -0.6027 -0.1466  0.2654
36298SOL    HW126886   3.422  11.730   6.245  1.3978 -1.6400  1.5531
36298SOL    HW226887   3.326  11.614   6.230 -1.4167  0.7617 -0.1990
36299SOL     OW26888   9.553   0.392   7.472  0.1775 -0.5206  0.7531
36299SOL    HW126889   9.514   0.320   7.422 -0.0600  0.5184 -0.6434
36299SOL    HW226890   9.627   0.352   7.518  0.9685 -1.3905 -1.1576
36300SOL     OW26891  13.986  10.093   3.857 -0.2504 -0.2876  0.2339
36300SOL    HW126892  13.899  10.092   3.899 -0.1922 -0.3981  0.3529
36300SOL    HW226893  14.007  10.186   3.849 -0.6889 -0.2384 -0.4406
36301SOL     OW26894   7.425   1.564   8.672 -0.1972  0.0803 -0.0063
36301SOL    HW126895   7.505   1.610   8.644 -0.2066 -0.0845 -0.3052
36301SOL    HW226896   7.409   1.500   8.603  0.0520 -0.6593  0.6178
36302SOL     OW26897   7.048  11.856   1.537  0.3091 -0.8506 -0.0773
36302SOL    HW126898   6.953  11.866   1.529  0.2708 -0.9997  0.1739
36302SOL    HW226899   7.059  11.780   1.594  0.5826 -1.1409 -0.5134
36303SOL     OW26900  12.620   1.413   6.587  0.2905 -0.4606  0.2445
36303SOL    HW126901  12.658   1.436   6.502 -0.4386 -1.4856 -0.3962
36303SOL    HW226902  12.530   1.387   6.566 -0.1480  0.0041  1.4453
36304SOL     OW26903   9.803   4.477   5.801  0.2252 -0.0351  0.2257
36304SOL    HW126904   9.876   4.538   5.806  0.9656 -0.9120  0.3068
36304SOL    HW226905   9.774   4.466   5.891  1.6570 -1.6383  0.5334
36305SOL     OW26906  12.891   0.242   5.923 -0.0676 -0.3710  0.1049
36305SOL    HW126907  12.875   0.229   6.016  0.2081  1.6706  0.4807
36305SOL    HW226908  12.984   0.264   5.917 -0.1744 -0.0672 -0.6052
36306SOL     OW26909   7.727   0.429  13.544 -0.0951  0.2568  0.0618
36306SOL    HW126910   7.749   0.513  13.505  0.9682  0.4171  0.9685
36306SOL    HW226911   7.717   0.369  13.470 -0.3689  1.0615 -0.5577
36307SOL     OW26912   6.907  11.949   2.445  0.1209  0.1039  0.1979
36307SOL    HW126913   6.974  11.917   2.385  0.0301 -1.7853  1.0281
36307SOL    HW226914   6.825  11.938   2.397  0.1830  0.0903  0.0943
36308SOL     OW26915   6.779   8.708   9.921  0.3370  0.2429  0.0387
36308SOL    HW126916   6.742   8.635   9.970  0.8686  0.3383  0.6049
36308SOL    HW226917   6.868   8.680   9.899  0.1781  0.2888 -0.6872
36309SOL     OW26918   4.345  14.079   6.835 -0.0325  0.3573  0.2362
36309SOL    HW126919   4.381  14.165   6.854  2.0543 -0.4730  0.2771
36309SOL    HW226920   4.341  14.075   6.739 -0.3202  0.5485  0.2370
36310SOL     OW26921   6.310   4.666   6.543 -0.3210 -0.7487  0.6227
36310SOL    HW126922   6.248   4.654   6.615 -0.8642 -0.0331  0.2768
36310SOL    HW226923   6.358   4.583   6.539 -0.7792 -1.0546  1.3402
36311SOL     OW26924   3.343   7.132  13.250  0.4467  0.2604  0.1237
36311SOL    HW126925   3.420   7.187  13.236  0.9781 -0.9371 -2.0778
36311SOL    HW226926   3.269   7.185  13.219  0.6439  0.6018  0.2379
36312SOL     OW26927   1.593   6.315   5.872 -0.0988  0.3687  0.3053
36312SOL    HW126928   1.605   6.386   5.808  0.5508  1.0716  1.1833
36312SOL    HW226929   1.564   6.241   5.819  2.5161  0.2599 -1.1817
36313SOL     OW26930   8.023  13.882   5.580  0.3766 -0.5678 -0.3485
36313SOL    HW126931   7.976  13.815   5.531 -0.5991 -0.2309  0.0849
36313SOL    HW226932   7.966  13.959   5.574  0.7263 -0.2397  0.4734
36314SOL     OW26933  11.148   1.137  11.594 -0.3116 -0.1880  0.2871
36314SOL    HW126934  11.229   1.134  11.645 -0.5618  1.8746  0.8791
36314SOL    HW226935  11.153   1.219  11.546 -1.9243 -0.1709  0.1026
36315SOL     OW26936   9.789   1.911   0.746 -0.1672 -0.1022 -0.7578
36315SOL    HW126937   9.808   2.004   0.762  0.3065 -0.0869 -1.3620
36315SOL    HW226938   9.849   1.864   0.803 -0.3958 -0.0357 -0.4629
36316SOL     OW26939   5.276   4.725   2.186 -0.1494 -0.4169  0.7321
36316SOL    HW126940   5.333   4.696   2.257  1.5993  0.3785 -0.2680
36316SOL    HW226941   5.335   4.768   2.124 -1.5823 -1.1385 -1.2508
36317SOL     OW26942  11.642   9.712   4.641 -0.2428  0.4456 -0.0158
36317SOL    HW126943  11.565   9.670   4.679 -0.5493 -0.3222 -1.4503
36317SOL    HW226944  11.687   9.751   4.716 -1.3725 -0.1438  0.9958
36318SOL     OW26945  12.028   2.603  10.693 -0.5224  0.0900 -0.6501
36318SOL    HW126946  12.105   2.547  10.695 -1.0628 -0.6420  0.0790
36318SOL    HW226947  12.054   2.678  10.639  0.6471 -0.2068 -0.5160
36319SOL     OW26948   9.270   4.082   0.115  0.1226 -0.2226 -0.1639
36319SOL    HW126949   9.359   4.105   0.086  0.1210  0.7743  0.5602
36319SOL    HW226950   9.277   4.072   0.210 -0.3800 -0.9778 -0.1944
36320SOL     OW26951   6.286   3.905   4.846  0.4141 -0.4411 -0.2520
36320SOL    HW126952   6.198   3.887   4.813 -0.6078 -0.5234  2.3430
36320SOL    HW226953   6.287   3.870   4.935  2.9841 -0.1210 -0.0635
36321SOL     OW26954   6.815   4.868   8.060 -0.0510 -0.0069 -0.2088
36321SOL    HW126955   6.752   4.822   8.004  0.1981 -0.0445 -0.4603
36321SOL    HW226956   6.875   4.911   7.998  0.0587  0.1811  0.0284
36322SOL     OW26957   8.661   2.438  12.595  0.2188 -0.3509 -0.5639
36322SOL    HW126958   8.633   2.351  12.625  2.0802 -1.2237 -1.2014
36322SOL    HW226959   8.741   2.456  12.645 -0.4698  1.3043  0.0097
36323SOL     OW26960  13.598   3.384   3.949  0.7557 -0.3305 -0.1904
36323SOL    HW126961  13.644   3.329   3.886 -0.3716 -0.8987 -0.5378
36323SOL    HW226962  13.513   3.342   3.961  0.0261  1.0995 -0.1333
36324SOL     OW26963   0.501   1.850  13.333 -0.1124 -0.0744 -0.9294
36324SOL    HW126964   0.592   1.847  13.360 -0.4603  1.5049  0.6264
36324SOL    HW226965   0.475   1.942  13.346 -2.3103 -0.7763  0.1872
36325SOL     OW26966   9.966   2.764   0.293  0.3904  0.3757  0.2966
36325SOL    HW126967  10.001   2.698   0.352  2.2079 -1.6371 -2.7284
36325SOL    HW226968  10.035   2.829   0.285  0.7700 -0.1198 -0.6366
36326SOL     OW26969   4.164   2.187   2.110  0.6532 -0.0471 -0.7323
36326SOL    HW126970   4.135   2.231   2.189  1.7140  1.1077 -0.9554
36326SOL    HW226971   4.242   2.139   2.136  1.1637  0.5537 -1.1141
36327SOL     OW26972   4.885   8.035   0.181  0.4964  0.2112  0.0820
36327SOL    HW126973   4.790   8.031   0.184  0.4956 -0.7319 -0.5427
36327SOL    HW226974   4.912   8.034   0.273 -0.0345 -3.3599  0.3730
36328SOL     OW26975  10.793   9.341   2.120  0.2138 -0.6732 -0.3476
36328SOL    HW126976  10.763   9.352   2.030  0.4660  0.5639 -0.2933
36328SOL    HW226977  10.729   9.282   2.159 -0.6164 -0.2216 -0.9854
36329SOL     OW26978   3.923  12.022  10.104 -0.6269 -0.5858  0.1224
36329SOL    HW126979   3.870  12.073  10.043 -1.1829 -0.1664  0.9364
36329SOL    HW226980   3.901  11.931  10.085 -0.4185 -0.4877 -0.6265
36330SOL     OW26981   3.233  11.819  10.405  0.0566 -0.6168  0.4102
36330SOL    HW126982   3.213  11.797  10.314  2.4226  1.1348 -0.6427
36330SOL    HW226983   3.272  11.739  10.441  1.5921 -0.5715 -1.0082
36331SOL     OW26984   8.192  11.392   6.872 -0.4487  0.0171  0.1698
36331SOL    HW126985   8.171  11.302   6.848  3.3731 -1.0188  0.1124
36331SOL    HW226986   8.240  11.385   6.954 -0.1657  2.0221  0.2273
36332SOL     OW26987   9.564   1.694  13.103  0.2347  0.1159 -0.0348
36332SOL    HW126988   9.542   1.776  13.148 -1.6052  0.0146 -0.6552
36332SOL    HW226989   9.640   1.716  13.050 -2.0268  2.4554 -2.6862
36333SOL     OW26990   6.942  10.608   3.832 -0.0800 -0.1937 -0.4765
36333SOL    HW126991   6.867  10.662   3.856  0.2787 -0.0070  0.2701
36333SOL    HW226992   7.008  10.628   3.898  0.4077 -0.8211 -0.7574
36334SOL     OW26993   7.723  13.727   6.509  0.1298 -0.5674 -0.6297
36334SOL    HW126994   7.656  13.679   6.460 -1.1630  1.2929 -0.7799
36334SOL    HW226995   7.717  13.693   6.598 -2.3318  0.7462 -0.1893
36335SOL     OW26996  13.245   9.622   6.525 -0.1675  0.2626  0.2530
36335SOL    HW126997  13.206   9.691   6.579  0.0312  0.1881  0.4945
36335SOL    HW226998  13.172   9.587   6.474 -0.4231  0.0888  0.7343
36336SOL     OW26999   3.368   1.821   5.058 -0.1560  0.7155 -0.3108
36336SOL    HW127000   3.310   1.754   5.094  0.8018  0.7036  1.3500
36336SOL    HW227001   3.438   1.772   5.014 -0.4941  0.6876 -0.8234
36337SOL     OW27002   1.148  11.402   5.171  0.3111  0.4150  0.0494
36337SOL    HW127003   1.242  11.393   5.153  0.6941  0.4287  1.8801
36337SOL    HW227004   1.143  11.465   5.242 -1.0778  0.1884  0.1750
36338SOL     OW27005   4.358   4.574   3.780  0.4434  0.1768  0.0369
36338SOL    HW127006   4.395   4.573   3.869 -0.3181 -0.2194  0.3672
36338SOL    HW227007   4.263   4.571   3.794  0.2937  0.8349 -0.7884
36339SOL     OW27008   4.340   3.961  11.933 -0.0264 -0.1010  0.1723
36339SOL    HW127009   4.419   3.981  11.984 -0.3502  0.9712  0.2933
36339SOL    HW227010   4.348   3.869  11.911  0.8737 -0.2050  0.8636
36340SOL     OW27011  13.695  10.479   4.757  0.1636  0.1642  0.0543
36340SOL    HW127012  13.713  10.535   4.682 -0.4219  1.0489  0.5577
36340SOL    HW227013  13.747  10.400   4.741  0.8191  0.7489 -0.7782
36341SOL     OW27014   7.046   0.599   3.165 -0.6760 -0.2302  0.3189
36341SOL    HW127015   6.983   0.602   3.093 -0.8105 -2.6034  0.2712
36341SOL    HW227016   7.129   0.624   3.125 -0.6297 -2.0773 -0.8693
36342SOL     OW27017  10.934   5.753   8.092 -0.8667  0.0761  0.2296
36342SOL    HW127018  10.990   5.814   8.045  0.6112 -1.1070  0.3971
36342SOL    HW227019  10.890   5.702   8.023  0.0932 -0.5946  0.1035
36343SOL     OW27020   2.104   1.380  13.141 -0.1545  0.0765  0.7673
36343SOL    HW127021   2.111   1.338  13.226 -1.0189 -1.3046  0.1972
36343SOL    HW227022   2.088   1.308  13.080 -1.7864  1.2171 -0.2499
36344SOL     OW27023  12.461  13.529   5.206 -0.1817 -0.4165  0.0870
36344SOL    HW127024  12.455  13.572   5.291 -1.7437 -0.4246  0.0029
36344SOL    HW227025  12.420  13.444   5.219 -0.2495 -0.4988 -0.6217
36345SOL     OW27026   7.286   4.578   1.064 -0.2051  0.2631  0.0632
36345SOL    HW127027   7.208   4.533   1.033  0.9332 -1.8201  0.0094
36345SOL    HW227028   7.353   4.559   0.998  1.2866 -1.2136  1.8523
36346SOL     OW27029   2.717   2.612   9.057 -0.4932  0.9622 -0.4238
36346SOL    HW127030   2.668   2.577   8.982  0.5453 -0.2077 -0.5960
36346SOL    HW227031   2.792   2.657   9.017 -0.7202  1.6167 -0.1238
36347SOL     OW27032   1.454   4.200   9.638 -0.2214 -0.0860 -0.1695
36347SOL    HW127033   1.433   4.280   9.591  0.3043 -0.8830 -1.8340
36347SOL    HW227034   1.380   4.186   9.696 -0.5783  1.2896 -0.2572
36348SOL     OW27035   3.062   1.873   7.159  0.6446 -0.1831 -0.3089
36348SOL    HW127036   3.000   1.945   7.144  0.0124 -1.1458 -2.6923
36348SOL    HW227037   3.008   1.794   7.154  1.5162 -0.9250  1.2033
36349SOL     OW27038   8.604  10.870  12.354 -0.2162 -0.6077 -0.3815
36349SOL    HW127039   8.610  10.805  12.284 -1.0916 -0.8782 -0.2128
36349SOL    HW227040   8.687  10.919  12.349 -0.2985 -0.5757 -1.6438
36350SOL     OW27041  11.084   8.056   2.625 -0.3154  0.1257  0.4314
36350SOL    HW127042  11.051   8.001   2.554  2.8658 -1.0664 -0.3270
36350SOL    HW227043  11.067   8.146   2.597  0.5992 -0.3258 -1.7966
36351SOL     OW27044   4.399   5.182   8.367  0.1429 -0.0769  0.4689
36351SOL    HW127045   4.478   5.215   8.325 -0.1418  0.3003  0.2295
36351SOL    HW227046   4.363   5.257   8.414  0.3907 -0.4634  1.2953
36352SOL     OW27047   9.770  10.740   5.850  0.3920  0.0663 -0.2789
36352SOL    HW127048   9.741  10.743   5.941 -0.2644 -0.7965 -0.4556
36352SOL    HW227049   9.782  10.832   5.826  0.6386  0.2994  0.6948
36353SOL     OW27050  10.211  12.975   6.188  0.0398  0.2285  0.3357
36353SOL    HW127051  10.240  13.051   6.138 -2.7909  0.5432 -1.0176
36353SOL    HW227052  10.229  12.998   6.279  1.6300  1.3643 -0.2206
36354SOL     OW27053   6.872  10.557   2.147  0.1815 -0.3548 -0.0152
36354SOL    HW127054   6.852  10.603   2.229  2.0243 -2.6332  1.8952
36354SOL    HW227055   6.960  10.588   2.124 -0.5771  0.7565 -1.5797
36355SOL     OW27056  12.089   8.554   5.309 -0.3709  0.3273 -0.3751
36355SOL    HW127057  12.157   8.520   5.367  0.2609  0.0833 -1.2440
36355SOL    HW227058  12.136   8.587   5.233 -1.2199  0.1984 -0.9730
36356SOL     OW27059   5.811   3.054  10.874  0.5046  0.2400 -0.0309
36356SOL    HW127060   5.901   3.050  10.842  0.1988  1.0110 -1.0017
36356SOL    HW227061   5.758   3.014  10.805  0.1973 -1.1581  0.9797
36357SOL     OW27062  11.149  10.721  13.993 -0.1548 -0.1766  0.3396
36357SOL    HW127063  11.220  10.658  14.002 -0.4770 -0.5152  0.5257
36357SOL    HW227064  11.150  10.770  14.075  0.9268  0.9441 -0.3080
36358SOL     OW27065  11.197   4.807  10.511 -0.0075  0.4144 -0.2455
36358SOL    HW127066  11.285   4.772  10.496 -0.6602 -1.5774  0.3224
36358SOL    HW227067  11.168   4.835  10.424  0.3710 -0.9333 -0.8340
36359SOL     OW27068   9.314   9.877   8.129  0.2143 -0.1495  0.5338
36359SOL    HW127069   9.359   9.870   8.213 -0.0065  2.5147  0.9475
36359SOL    HW227070   9.250   9.946   8.141  0.7111  0.8768 -2.0256
36360SOL     OW27071   5.671  12.924   2.748  0.1172  0.3507  0.1014
36360SOL    HW127072   5.616  12.846   2.757  0.3638  0.3471  2.0271
36360SOL    HW227073   5.613  12.997   2.770  0.1520  0.6281 -0.7021
36361SOL     OW27074  10.020   2.782  13.328 -0.7210  0.4386  0.0427
36361SOL    HW127075   9.949   2.843  13.306 -0.4115  0.8258  0.1066
36361SOL    HW227076  10.036   2.734  13.247 -0.6198  0.8023 -0.1562
36362SOL     OW27077   9.839  12.799   1.704  0.0113 -0.3896 -0.0108
36362SOL    HW127078   9.882  12.799   1.790 -1.2922  1.1014  0.7027
36362SOL    HW227079   9.877  12.873   1.657  1.4495 -1.8018 -1.1597
36363SOL     OW27080   6.574   3.818  11.194 -0.9295  0.2967 -0.2078
36363SOL    HW127081   6.518   3.882  11.151 -0.7827 -1.1551 -2.7389
36363SOL    HW227082   6.528   3.734  11.184 -0.6968 -0.2061  2.2351
36364SOL     OW27083  13.244   0.982  11.133  0.0346  0.2816  0.1816
36364SOL    HW127084  13.278   0.934  11.057 -1.4896  1.1397 -1.1050
36364SOL    HW227085  13.162   0.937  11.155  0.6541 -0.1902  1.5813
36365SOL     OW27086  13.365   2.274   6.600  0.2681  0.1050  0.5289
36365SOL    HW127087  13.328   2.189   6.622 -2.4844  0.4882 -1.9513
36365SOL    HW227088  13.342   2.330   6.674  0.8542 -0.9271  1.5312
36366SOL     OW27089   8.245   5.460   9.691  0.3397 -0.0701  0.2914
36366SOL    HW127090   8.205   5.395   9.748  0.9776  1.7064  2.9292
36366SOL    HW227091   8.298   5.409   9.629 -0.9887 -2.1033  0.7491
36367SOL     OW27092   8.913   5.802  12.205  0.1492 -0.0182  0.6453
36367SOL    HW127093   8.831   5.803  12.155 -0.1719 -0.8085  1.1376
36367SOL    HW227094   8.975   5.850  12.150 -0.6333  0.5821  0.2553
36368SOL     OW27095   4.939   3.890   8.197 -0.6226  0.3859 -0.1886
36368SOL    HW127096   4.866   3.937   8.238 -0.5301 -0.7162  1.2865
36368SOL    HW227097   4.923   3.798   8.216  0.4743  0.0037 -0.9769
36369SOL     OW27098   0.936   1.696   0.567  0.1473  0.2861 -0.0045
36369SOL    HW127099   0.980   1.780   0.559  2.2924 -0.7860 -0.0972
36369SOL    HW227100   0.969   1.644   0.494 -0.1034 -1.0609  0.8108
36370SOL     OW27101  10.795  12.710   8.490  0.3738  0.0201 -0.3049
36370SOL    HW127102  10.864  12.644   8.492  1.9595  1.5172 -1.9483
36370SOL    HW227103  10.763  12.709   8.400  0.4589  1.4897 -0.3696
36371SOL     OW27104   6.890   5.046   7.495  0.4791 -0.4860  0.0867
36371SOL    HW127105   6.830   4.972   7.492  0.7024 -0.6500 -0.3332
36371SOL    HW227106   6.857   5.101   7.566  0.2490 -0.9314  0.3241
36372SOL     OW27107   1.369  11.579   9.503  0.7502 -0.1694  0.0992
36372SOL    HW127108   1.445  11.529   9.473  0.2489  0.0114 -1.5263
36372SOL    HW227109   1.396  11.615   9.588  2.3570 -0.3525 -0.3162
36373SOL     OW27110   2.779   5.098   2.970 -0.0837 -0.0337 -0.3275
36373SOL    HW127111   2.825   5.076   3.051  3.4489  1.7522 -1.6129
36373SOL    HW227112   2.798   5.026   2.911 -1.4505 -0.6473 -0.0561
36374SOL     OW27113  11.737   3.779  10.412  0.2220 -0.8466  0.0234
36374SOL    HW127114  11.753   3.730  10.492  0.7745 -0.9098 -0.1189
36374SOL    HW227115  11.688   3.856  10.440  0.2783 -0.9452  0.4006
36375SOL     OW27116   7.592   9.505   3.953  0.0501  0.3927  0.3676
36375SOL    HW127117   7.581   9.489   4.047 -2.1598  1.1508  0.2870
36375SOL    HW227118   7.601   9.600   3.945 -2.0247  0.5693 -0.3242
36376SOL     OW27119   2.077   0.461   6.684 -0.1583 -0.1725 -0.4571
36376SOL    HW127120   2.041   0.375   6.666 -1.4104  0.2502 -0.1151
36376SOL    HW227121   2.029   0.520   6.624 -4.2177  1.2364  3.5678
36377SOL     OW27122   6.862   5.547  10.134  0.3615  0.1769  0.0002
36377SOL    HW127123   6.890   5.637  10.153 -0.5214  0.4273  0.1391
36377SOL    HW227124   6.936   5.509  10.087 -0.0544  1.6231 -1.9764
36378SOL     OW27125   6.553   2.184  14.117 -0.0332 -0.4720  0.1605
36378SOL    HW127126   6.489   2.251  14.093 -0.3535 -0.4180  1.1326
36378SOL    HW227127   6.547   2.119  14.047 -1.1271 -0.4471  0.2178
36379SOL     OW27128   7.342   6.743  12.963  0.3127 -0.3083 -0.5238
36379SOL    HW127129   7.416   6.803  12.969 -0.2090  0.2869  0.1580
36379SOL    HW227130   7.265   6.796  12.985  0.0410 -1.6516  2.2609
36380SOL     OW27131   9.527   5.100  12.868 -0.0399 -0.4821  0.1084
36380SOL    HW127132   9.520   5.038  12.795 -0.3234  0.0099 -0.2870
36380SOL    HW227133   9.508   5.185  12.830 -2.1126 -0.4269  1.1182
36381SOL     OW27134  13.759   7.642  12.939 -0.4920 -0.3574  0.1852
36381SOL    HW127135  13.672   7.622  12.974 -1.4368  2.1691 -0.5469
36381SOL    HW227136  13.767   7.585  12.862 -2.6404  1.1506 -1.2592
36382SOL     OW27137   7.452  13.269   0.764  0.3959  0.5113  0.1118
36382SOL    HW127138   7.364  13.279   0.727  0.6521  1.9048 -0.1570
36382SOL    HW227139   7.452  13.327   0.840  1.0194  0.3454  0.2395
36383SOL     OW27140  10.376   5.562   0.644 -0.5719 -0.7459  0.0491
36383SOL    HW127141  10.344   5.497   0.582 -1.5347  0.4567 -0.7444
36383SOL    HW227142  10.345   5.646   0.610  2.5424  0.4389 -0.2502
36384SOL     OW27143   1.849  12.403  13.530 -0.3183 -0.2220 -0.2852
36384SOL    HW127144   1.809  12.420  13.615  0.2757  2.2306 -0.4354
36384SOL    HW227145   1.942  12.397  13.548 -0.1918  0.2999 -0.7484
36385SOL     OW27146   2.402   6.660  13.631 -0.0373 -0.6226  0.2307
36385SOL    HW127147   2.385   6.656  13.537  0.0144  1.0642  0.1187
36385SOL    HW227148   2.320   6.633  13.671 -0.8703  0.9622 -0.3211
36386SOL     OW27149   3.879   5.560   7.733  0.1998  0.2471  0.0211
36386SOL    HW127150   3.912   5.586   7.647  0.7295 -0.8526 -0.1204
36386SOL    HW227151   3.784   5.553   7.721  0.1069  1.4520 -0.0945
36387SOL     OW27152   6.765   4.808   7.558  0.0943  0.4807  0.0169
36387SOL    HW127153   6.811   4.748   7.617  0.4260  1.6657  1.0019
36387SOL    HW227154   6.680   4.766   7.544  0.1060  0.0335  1.1344
36388SOL     OW27155  10.142  13.246   4.604  1.1940 -0.0463  0.1392
36388SOL    HW127156  10.198  13.324   4.596  2.5921 -0.8121  1.9349
36388SOL    HW227157  10.075  13.271   4.667  0.0562  0.5291 -1.2481
36389SOL     OW27158  14.146   8.061   0.494 -0.4084 -0.0904 -0.4797
36389SOL    HW127159  14.081   8.058   0.423  0.2653 -0.3979 -1.0871
36389SOL    HW227160  14.214   8.120   0.462 -0.1547 -0.1399 -0.0349
36390SOL     OW27161  13.706   2.387   4.821  0.0683  0.1227 -0.0285
36390SOL    HW127162  13.673   2.384   4.911 -0.7696  1.6236 -0.2614
36390SOL    HW227163  13.692   2.298   4.788  0.4473 -0.4697  1.3307
36391SOL     OW27164   5.683  12.963   4.410  0.0314  0.3462  0.3936
36391SOL    HW127165   5.765  12.959   4.459 -0.0643 -1.0824  0.4831
36391SOL    HW227166   5.618  12.925   4.469 -0.9361  2.3797  0.7242
36392SOL     OW27167  13.250   3.561   8.744  0.0873 -0.1234 -0.1167
36392SOL    HW127168  13.159   3.567   8.774 -0.2545 -0.7461 -0.9928
36392SOL    HW227169  13.255   3.477   8.698  0.5590  0.8321 -1.9013
36393SOL     OW27170  11.989  13.432  12.570 -0.2062  0.3689 -0.1602
36393SOL    HW127171  12.007  13.388  12.653  0.1403  1.7133  0.5047
36393SOL    HW227172  11.953  13.517  12.596  0.5134  1.0636 -1.3851
36394SOL     OW27173  11.304   1.911   2.254  0.4382  0.0456  0.1394
36394SOL    HW127174  11.359   1.989   2.251  0.2880  0.3257  2.4157
36394SOL    HW227175  11.275   1.897   2.164  0.1785  2.8250 -0.2717
36395SOL     OW27176  13.265  12.354   3.788 -0.1813 -0.3564 -0.5033
36395SOL    HW127177  13.288  12.285   3.727 -1.2376 -0.5508 -0.7029
36395SOL    HW227178  13.177  12.382   3.760  0.2993  1.1815 -0.5367
36396SOL     OW27179  10.635   0.982   1.580  0.1468 -0.3697  0.2865
36396SOL    HW127180  10.571   1.014   1.644  0.2354 -0.0945  0.2410
36396SOL    HW227181  10.668   1.062   1.538 -0.2529 -0.5804 -0.4316
36397SOL     OW27182   8.164  13.144  13.268  0.6086 -0.1536 -0.3539
36397SOL    HW127183   8.077  13.183  13.263  0.4987 -0.4532 -0.8936
36397SOL    HW227184   8.166  13.101  13.353 -0.2484 -1.2267 -0.8451
36398SOL     OW27185   6.519  10.638   6.051 -0.3261  0.1582 -0.5913
36398SOL    HW127186   6.594  10.692   6.076 -0.5495  0.1719  0.0777
36398SOL    HW227187   6.519  10.639   5.956  0.9380 -0.4111 -0.6203
36399SOL     OW27188   9.399   0.480   1.964 -0.1023 -0.1005  0.8943
36399SOL    HW127189   9.319   0.488   2.016 -0.6330 -1.1676  0.2888
36399SOL    HW227190   9.368   0.460   1.876  0.8142  0.3946  0.4531
36400SOL     OW27191   7.350   9.358   7.512 -0.0236  0.0571  0.1539
36400SOL    HW127192   7.296   9.279   7.519  0.9673 -0.6854 -0.3142
36400SOL    HW227193   7.292   9.423   7.474 -1.1957 -0.0952  1.6325
36401SOL     OW27194   1.985  11.088   8.139 -0.2487  0.1041 -0.5455
36401SOL    HW127195   2.037  11.159   8.178 -0.3556 -0.8587  1.4552
36401SOL    HW227196   2.050  11.026   8.106 -0.1666  0.5711 -1.3139
36402SOL     OW27197   0.418  10.811   7.763 -0.2301  0.3539 -0.0917
36402SOL    HW127198   0.477  10.882   7.789 -0.3047  0.4856 -0.2859
36402SOL    HW227199   0.405  10.823   7.669 -0.4320  0.2252 -0.0811
36403SOL     OW27200   4.644  14.131   0.917  0.2546 -0.3170  0.2119
36403SOL    HW127201   4.622  14.180   0.837  0.5502  0.4808  0.6043
36403SOL    HW227202   4.564  14.132   0.968 -0.0589 -1.1857 -0.2406
36404SOL     OW27203  10.914   5.177   2.964 -0.2562  0.0050 -0.2445
36404SOL    HW127204  10.943   5.195   2.875 -1.2553 -1.1580 -0.8172
36404SOL    HW227205  10.913   5.263   3.007  1.1662  0.4490 -1.0487
36405SOL     OW27206   3.140   6.518   3.348 -0.2468  0.0119  0.2992
36405SOL    HW127207   3.207   6.499   3.283 -0.5853  0.6138 -0.2360
36405SOL    HW227208   3.109   6.432   3.376 -0.2280 -0.2572 -0.4768
36406SOL     OW27209  10.070  13.715  13.309  0.2484  0.0637 -0.0846
36406SOL    HW127210  10.164  13.708  13.326  0.3760  0.6693 -0.5168
36406SOL    HW227211  10.064  13.735  13.216 -0.3722 -1.3656 -0.3846
36407SOL     OW27212  12.404   7.311   1.528 -0.5275 -0.1417 -0.5118
36407SOL    HW127213  12.341   7.350   1.589 -2.1556 -0.4908 -1.9046
36407SOL    HW227214  12.392   7.359   1.446 -0.0085 -1.1782 -1.2192
36408SOL     OW27215   2.179  13.865  13.977  0.5632  0.0898 -0.7196
36408SOL    HW127216   2.104  13.854  13.919  1.1148  0.9061 -1.6282
36408SOL    HW227217   2.145  13.915  14.051  0.3022  0.8772 -1.3568
36409SOL     OW27218  11.458   2.150   8.660 -0.0780  0.0393  0.1721
36409SOL    HW127219  11.532   2.159   8.600 -0.7640 -0.2436 -0.7609
36409SOL    HW227220  11.427   2.240   8.673 -1.1688 -0.0090 -1.5935
36410SOL     OW27221   9.375   2.790   3.402  0.2885  0.2055  0.3305
36410SOL    HW127222   9.299   2.732   3.396  0.5916 -0.6234  3.2902
36410SOL    HW227223   9.448   2.733   3.426  1.5961  1.2287 -0.9497
36411SOL     OW27224   3.324   7.186   4.205 -0.1316  0.1557 -0.5671
36411SOL    HW127225   3.411   7.213   4.176  0.9678 -0.1370  2.2048
36411SOL    HW227226   3.269   7.263   4.190  1.0956  1.0977 -0.3867
36412SOL     OW27227   6.939   8.216  10.595  0.1893  0.1649 -0.0322
36412SOL    HW127228   6.895   8.231  10.678  2.2394  0.2495  1.1171
36412SOL    HW227229   6.922   8.294  10.543 -0.4489  0.4616  0.6110
36413SOL     OW27230  10.676  10.532  10.977  0.1118  0.0726 -0.7227
36413SOL    HW127231  10.623  10.606  11.007 -1.8046 -0.8783 -1.6231
36413SOL    HW227232  10.663  10.530  10.882  0.2899 -1.2955 -0.7369
36414SOL     OW27233   1.456   6.968  11.204  0.0157  0.7083 -0.0948
36414SOL    HW127234   1.548   6.944  11.195 -0.0990 -0.4134  1.3087
36414SOL    HW227235   1.412   6.923  11.131  0.2939 -0.6680  0.5447
36415SOL     OW27236  13.899   4.693   9.448 -0.9144  0.2782 -0.0430
36415SOL    HW127237  13.987   4.666   9.471 -1.5113 -1.0009  0.8136
36415SOL    HW227238  13.902   4.789   9.449  0.2710  0.2470  0.6875
36416SOL     OW27239   0.165   1.834   1.674 -0.5477  0.0541 -0.8805
36416SOL    HW127240   0.181   1.751   1.627 -0.7277  0.3504 -1.4820
36416SOL    HW227241   0.252   1.874   1.681 -0.4247 -0.2961 -0.3719
36417SOL     OW27242  10.155   2.120  12.145  0.2597 -0.0180  0.3414
36417SOL    HW127243  10.120   2.193  12.094  1.3790  3.4265  4.0814
36417SOL    HW227244  10.246   2.112  12.116 -0.2679 -1.1763 -1.1838
36418SOL     OW27245   2.836   2.846   6.697  0.1608 -0.4299 -0.3101
36418SOL    HW127246   2.877   2.782   6.754 -0.1327  0.7616  1.3014
36418SOL    HW227247   2.766   2.798   6.653  0.2871 -1.3437  0.4723
36419SOL     OW27248  12.151   7.110  11.621 -0.2124 -0.2204  0.1048
36419SOL    HW127249  12.184   7.163  11.549  0.7003  0.7421  1.1890
36419SOL    HW227250  12.198   7.142  11.698 -2.5835  0.1962  1.5033
36420SOL     OW27251   7.026  10.576   5.468 -0.0946  0.3520 -0.5936
36420SOL    HW127252   7.046  10.558   5.560 -1.1413  0.9823 -0.2174
36420SOL    HW227253   7.100  10.628   5.437 -0.4433  1.4571  0.3530
36421SOL     OW27254   7.000  11.969   4.843  0.3360 -0.8026 -0.4592
36421SOL    HW127255   7.028  12.055   4.812 -0.2030  0.0888  1.3838
36421SOL    HW227256   7.039  11.962   4.931 -0.1892 -2.1513 -0.3208
36422SOL     OW27257  13.500   1.517  10.129  0.2962  0.3485  0.1005
36422SOL    HW127258  13.553   1.568  10.190  1.1351 -0.5588  0.1577
36422SOL    HW227259  13.451   1.457  10.185 -0.2574  0.6958 -0.0058
36423SOL     OW27260   2.970   5.578   3.355 -0.5628 -0.0527  0.1195
36423SOL    HW127261   3.061   5.553   3.334 -1.1970 -0.6593 -2.2059
36423SOL    HW227262   2.925   5.495   3.368 -1.2399  0.1342 -0.9235
36424SOL     OW27263   9.783  10.128   3.329  0.3689 -0.3651 -0.2229
36424SOL    HW127264   9.862  10.074   3.337  0.5248  0.1486  2.6295
36424SOL    HW227265   9.813  10.217   3.350 -0.7753  0.0136 -0.1464
36425SOL     OW27266  12.199   3.248   2.281 -0.5867  0.8036 -0.2804
36425SOL    HW127267  12.209   3.229   2.188  0.1925 -0.4389  0.0360
36425SOL    HW227268  12.258   3.186   2.325 -0.8375  1.4585  1.0323
36426SOL     OW27269  12.221   5.456  11.419 -0.1434  0.0514 -0.0365
36426SOL    HW127270  12.312   5.479  11.434  0.0958 -1.8517  1.9827
36426SOL    HW227271  12.202   5.486  11.331  2.4811  0.3536 -0.5626
36427SOL     OW27272   9.275   2.134   4.964 -0.0026 -0.2077  0.1514
36427SOL    HW127273   9.336   2.179   5.023  0.1118  0.9472 -0.8119
36427SOL    HW227274   9.210   2.200   4.942 -0.5598 -0.8916 -0.2959
36428SOL     OW27275   8.940   6.985   9.976 -0.0199  0.4684 -0.5726
36428SOL    HW127276   8.902   6.969  10.062  1.4424  0.8202  0.1661
36428SOL    HW227277   8.865   6.984   9.916 -0.8895 -1.2638  0.4800
36429SOL     OW27278   0.200   9.243  10.533  0.3677 -0.4867 -0.2245
36429SOL    HW127279   0.113   9.239  10.493 -0.6625  0.9380  1.6671
36429SOL    HW227280   0.193   9.314  10.597  3.3973  0.6853 -1.0239
36430SOL     OW27281  13.928   8.156  12.047  0.0706 -0.3023  0.0186
36430SOL    HW127282  13.928   8.080  12.105  1.4680 -1.1798 -1.0656
36430SOL    HW227283  13.938   8.119  11.959  0.4166  1.1174 -0.5668
36431SOL     OW27284   5.921  10.877   0.279 -0.2555  0.0028  0.6237
36431SOL    HW127285   5.999  10.931   0.267 -1.3749  1.3253 -1.2825
36431SOL    HW227286   5.893  10.855   0.190 -1.8345 -0.7682  1.2651
36432SOL     OW27287   6.039   3.863  11.361 -0.1267  0.0907 -0.1693
36432SOL    HW127288   6.026   3.879  11.268 -1.7747 -0.3102 -0.0452
36432SOL    HW227289   6.108   3.924  11.386 -0.8031  1.3994 -1.3245
36433SOL     OW27290   1.323  10.379   4.498 -0.2494 -0.1950  0.5104
36433SOL    HW127291   1.281  10.444   4.440 -0.9148  0.4372  1.6610
36433SOL    HW227292   1.415  10.405   4.500 -0.5158  0.7609  0.9831
36434SOL     OW27293   2.847  13.546  10.989  0.0755  0.1295 -0.6873
36434SOL    HW127294   2.756  13.540  11.017  0.0725 -1.4052 -0.9746
36434SOL    HW227295   2.850  13.500  10.906  1.0192  0.6102 -0.9336
36435SOL     OW27296   1.499   7.329  10.571  0.3001  0.2322  0.1961
36435SOL    HW127297   1.544   7.389  10.631 -0.3305  0.7056  0.2071
36435SOL    HW227298   1.438   7.281  10.627  0.8324 -0.4790  0.1976
36436SOL     OW27299   3.313  11.296  10.291  0.2028 -0.1473 -0.6971
36436SOL    HW127300   3.391  11.296  10.347  1.6345 -0.2255 -2.6019
36436SOL    HW227301   3.246  11.253  10.344  1.4579 -0.1527  0.9776
36437SOL     OW27302   0.543  12.128   6.527 -0.0642 -0.4274  0.3820
36437SOL    HW127303   0.500  12.129   6.441 -2.2860 -0.9394  1.4049
36437SOL    HW227304   0.582  12.041   6.533  1.1779  0.0450 -0.5760
36438SOL     OW27305   2.620   8.074   8.506 -0.5786  0.0875 -0.2286
36438SOL    HW127306   2.557   8.007   8.534 -0.2419 -0.1380 -0.0041
36438SOL    HW227307   2.575   8.157   8.524 -0.8936 -0.0734 -0.2624
36439SOL     OW27308   4.384  11.685   3.143 -0.1771 -0.3001 -0.3098
36439SOL    HW127309   4.451  11.749   3.117  0.8496 -1.3028 -0.2015
36439SOL    HW227310   4.382  11.691   3.238  0.5036 -0.9696 -0.2396
36440SOL     OW27311  11.094   2.009   5.207  0.2625  0.1402 -0.1022
36440SOL    HW127312  11.166   1.971   5.258  0.6864  1.0776  0.0152
36440SOL    HW227313  11.131   2.026   5.121 -0.6352 -2.0462 -0.9862
36441SOL     OW27314  12.612   7.279  10.495 -0.0649 -0.5775  0.2237
36441SOL    HW127315  12.695   7.257  10.538  0.3896 -1.3642 -1.0114
36441SOL    HW227316  12.622   7.371  10.471 -0.1266 -0.2685  1.3140
36442SOL     OW27317  13.958   4.958   9.545  0.0419 -0.3662 -0.3536
36442SOL    HW127318  13.955   5.027   9.612 -0.8042 -0.6829 -0.0537
36442SOL    HW227319  14.004   4.886   9.587  0.3797 -0.2055 -0.4504
36443SOL     OW27320  12.019  11.739   8.958  0.0019  0.1282 -0.2683
36443SOL    HW127321  12.104  11.736   9.001 -0.1806 -1.5037  0.0418
36443SOL    HW227322  11.956  11.751   9.029 -0.0644  1.0513 -0.4687
36444SOL     OW27323  10.334   7.031   1.496  0.0623 -0.7208  0.2682
36444SOL    HW127324  10.307   7.119   1.523  3.1641  1.1343 -2.0313
36444SOL    HW227325  10.372   6.992   1.574  1.0636  1.0902  0.7351
36445SOL     OW27326  11.504   3.787   4.265  0.1269 -0.6176  0.1806
36445SOL    HW127327  11.414   3.811   4.245  0.1691 -0.6088  0.0010
36445SOL    HW227328  11.553   3.869   4.257  0.5720 -1.0453 -2.1098
36446SOL     OW27329  13.456   8.388   5.106  0.0803 -0.4648 -0.6280
36446SOL    HW127330  13.372   8.345   5.123 -1.1980  2.1715  0.3261
36446SOL    HW227331  13.514   8.357   5.176 -1.5674  1.2031  1.6097
36447SOL     OW27332   4.471  12.800   0.121 -0.2581  0.2471 -0.1838
36447SOL    HW127333   4.411  12.734   0.155  0.7123 -0.1593  0.7773
36447SOL    HW227334   4.535  12.751   0.070  2.3847 -0.0773  3.1458
36448SOL     OW27335   9.871  14.050  13.448  0.0220 -0.3334  0.2587
36448SOL    HW127336   9.824  14.004  13.378  0.3471  0.7174 -0.6817
36448SOL    HW227337   9.963  14.048  13.421  0.0948  0.4702  0.4147
36449SOL     OW27338  12.747   2.432  13.553  0.3953 -0.0963 -0.1137
36449SOL    HW127339  12.792   2.505  13.596  0.9947  0.9239 -2.3201
36449SOL    HW227340  12.817   2.370  13.531  0.1618 -0.3780 -0.0748
36450SOL     OW27341  11.614  11.315   3.732  0.5065  0.1576 -0.4901
36450SOL    HW127342  11.617  11.283   3.642  0.1146 -1.6152  0.0996
36450SOL    HW227343  11.556  11.392   3.728 -0.4965 -0.6265 -1.5552
36451SOL     OW27344   7.967  13.071   0.770 -0.0460  0.3330  0.4736
36451SOL    HW127345   8.013  13.078   0.853  0.3283 -1.4211  0.4415
36451SOL    HW227346   8.035  13.086   0.704 -0.0314  0.2223  0.4632
36452SOL     OW27347   3.526   2.492  13.139  0.3143 -0.0358 -0.2347
36452SOL    HW127348   3.602   2.548  13.122  0.8749 -1.0315 -1.1287
36452SOL    HW227349   3.470   2.544  13.196  0.9671  1.3131 -0.7891
36453SOL     OW27350   7.482   2.773  13.770 -0.2571 -0.0080 -0.2191
36453SOL    HW127351   7.415   2.841  13.762 -1.1490 -1.0806 -3.3474
36453SOL    HW227352   7.437   2.701  13.814  0.1831  0.7316  1.5311
36454SOL     OW27353  12.343   1.063  12.605  0.7656  0.3317 -0.4689
36454SOL    HW127354  12.254   1.093  12.587  0.8357  1.6136  1.0782
36454SOL    HW227355  12.338   0.968  12.603 -0.6116  0.3979 -0.5464
36455SOL     OW27356  10.609   9.837   1.428  0.7466 -0.1453  0.4539
36455SOL    HW127357  10.704   9.848   1.431  0.6517  0.7872  0.3490
36455SOL    HW227358  10.579   9.903   1.365  0.1754 -1.5169 -0.7666
36456SOL     OW27359   5.077  12.405   3.789 -0.2973 -0.1414 -0.1612
36456SOL    HW127360   5.004  12.359   3.749 -0.1814 -0.1508 -0.3636
36456SOL    HW227361   5.089  12.484   3.736  0.9404 -0.9854 -1.2046
36457SOL     OW27362  11.330   6.566   5.638 -0.0317 -0.7617 -0.0264
36457SOL    HW127363  11.238   6.588   5.648 -0.0853 -1.3564  0.8362
36457SOL    HW227364  11.371   6.647   5.607 -0.9319 -0.6641 -0.9868
36458SOL     OW27365   5.375  10.535  11.319 -0.0316 -0.0684  0.2499
36458SOL    HW127366   5.399  10.616  11.274 -0.4332  0.5262  1.0896
36458SOL    HW227367   5.393  10.552  11.411  1.0798 -1.3857  0.3084
36459SOL     OW27368  10.634   6.302   9.808  0.3671 -0.1238 -0.1289
36459SOL    HW127369  10.600   6.338   9.727 -0.3121  0.2005  0.2924
36459SOL    HW227370  10.568   6.239   9.836 -0.1884  0.8989  0.9741
36460SOL     OW27371  13.775  10.727   4.632  0.1184  0.4597  0.1106
36460SOL    HW127372  13.693  10.764   4.665 -2.2908 -4.4667  0.5468
36460SOL    HW227373  13.782  10.762   4.543 -3.5655 -0.2346 -0.6183
36461SOL     OW27374   3.917  10.721   5.802  0.3558  0.0759  0.2113
36461SOL    HW127375   3.896  10.781   5.731  0.8790  0.5052  0.4067
36461SOL    HW227376   4.011  10.733   5.816 -0.0194  1.2312  2.0735
36462SOL     OW27377  10.528  10.162   3.689  0.2484  0.4526 -0.2227
36462SOL    HW127378  10.440  10.140   3.719  0.3532 -0.1724 -0.3806
36462SOL    HW227379  10.576  10.080   3.691  0.2539  0.3606 -2.1475
36463SOL     OW27380   5.868  11.199  11.580 -0.5692  1.0199 -0.3158
36463SOL    HW127381   5.890  11.242  11.662 -0.3842  1.8922 -0.8170
36463SOL    HW227382   5.910  11.112  11.586  0.5797  1.5726 -0.0401
36464SOL     OW27383   5.107   0.887   9.897  0.1885 -0.0126 -0.0222
36464SOL    HW127384   5.100   0.867   9.804 -1.1551 -1.8139  0.4133
36464SOL    HW227385   5.194   0.853   9.922 -1.2111 -3.9388  0.2520
36465SOL     OW27386   4.007   8.485   8.723  0.8653 -0.4766  0.0853
36465SOL    HW127387   4.038   8.571   8.750 -3.7926  0.8761  2.1038
36465SOL    HW227388   4.035   8.425   8.792  0.2095  0.3792  1.1062
36466SOL     OW27389  12.112   1.180   8.153  0.5173  0.2755 -0.4627
36466SOL    HW127390  12.099   1.253   8.214  0.1027 -1.3570  1.4849
36466SOL    HW227391  12.053   1.111   8.185  1.7861 -1.3543 -1.5101
36467SOL     OW27392   1.468   0.936   6.430 -0.0387  0.6342 -0.2071
36467SOL    HW127393   1.473   1.012   6.488  1.4910 -0.2106  0.8559
36467SOL    HW227394   1.380   0.938   6.394 -0.8076  1.6104  1.6078
36468SOL     OW27395   2.430   0.120  13.095  0.5468 -0.5269 -0.0333
36468SOL    HW127396   2.516   0.088  13.123  0.2886 -1.9597 -0.8136
36468SOL    HW227397   2.401   0.176  13.167  0.7483 -2.5442  1.7069
36469SOL     OW27398  10.545   1.420   4.039  0.0448  0.4713 -0.9294
36469SOL    HW127399  10.557   1.438   3.945  0.6184  1.9976 -0.5851
36469SOL    HW227400  10.465   1.468   4.062 -0.5434 -0.5383 -0.7713
36470SOL     OW27401   3.030   2.946  13.365  0.2310  0.1945 -0.0491
36470SOL    HW127402   3.047   3.010  13.434  0.2574  0.2816 -0.1357
36470SOL    HW227403   3.118   2.917  13.338  0.1972 -1.4807  1.4775
36471SOL     OW27404   5.162   2.803  11.266 -0.0993  0.0484 -0.1502
36471SOL    HW127405   5.102   2.850  11.208 -1.3929 -0.7771  0.4667
36471SOL    HW227406   5.174   2.718  11.225 -2.2067 -1.1107  1.4196
36472SOL     OW27407  12.470   7.489   6.351  0.2480  0.5215  0.0750
36472SOL    HW127408  12.495   7.581   6.343  0.9595  0.2317 -1.1868
36472SOL    HW227409  12.376   7.488   6.333  0.7349  0.6693 -2.8594
36473SOL     OW27410   5.675  14.154   9.050 -0.0568 -0.3031  0.0100
36473SOL    HW127411   5.661  14.066   9.014  1.0245  0.1674 -1.6893
36473SOL    HW227412   5.720  14.139   9.133 -0.0777 -1.3571 -0.1517
36474SOL     OW27413   9.963   0.782   7.807  0.2183  0.0225 -0.3698
36474SOL    HW127414   9.944   0.758   7.716  0.2437 -0.5126 -0.2332
36474SOL    HW227415  10.056   0.808   7.805  0.1549  0.2434 -0.5419
36475SOL     OW27416   0.552   9.487   8.720  0.2642 -0.4365  0.4320
36475SOL    HW127417   0.471   9.537   8.730 -0.3103 -1.3929  0.7019
36475SOL    HW227418   0.606   9.514   8.794  0.1332  0.0857  0.3420
36476SOL     OW27419   8.516  10.380   8.656 -0.0321 -0.4236  0.1638
36476SOL    HW127420   8.575  10.321   8.609 -1.4822 -0.6818 -1.4221
36476SOL    HW227421   8.574  10.450   8.689  1.2856 -1.1494 -0.5049
36477SOL     OW27422   4.797  10.175  11.212  0.1332 -0.1774 -0.2698
36477SOL    HW127423   4.776  10.095  11.164 -0.3693  0.2835 -0.8302
36477SOL    HW227424   4.758  10.163  11.298  1.4915 -1.2362  0.2324
36478SOL     OW27425   5.120   2.491   7.471  0.2016 -0.7694 -0.3664
36478SOL    HW127426   5.214   2.505   7.477  0.3201 -1.4790 -0.4499
36478SOL    HW227427   5.086   2.569   7.426  0.7258 -0.4497 -0.2109
36479SOL     OW27428   8.580  13.478   1.842 -0.1163 -0.2640  0.1133
36479SOL    HW127429   8.620  13.552   1.887 -0.0442  0.4324 -1.0464
36479SOL    HW227430   8.635  13.403   1.864  1.6000  0.5794 -1.0515
36480SOL     OW27431   3.688   9.812   6.569  0.1151  0.1552  0.1001
36480SOL    HW127432   3.748   9.886   6.558 -0.5209  0.6911  0.1992
36480SOL    HW227433   3.733   9.754   6.631 -0.2964  1.4697  1.6983
36481SOL     OW27434  10.832   7.555   5.587  0.6210  0.1800 -0.3291
36481SOL    HW127435  10.766   7.581   5.522 -0.1410  0.5790  0.5891
36481SOL    HW227436  10.831   7.459   5.584  0.3043  0.1879 -0.6175
36482SOL     OW27437  10.034   9.949   1.159 -0.1184 -0.6241 -0.2659
36482SOL    HW127438  10.052   9.881   1.224 -0.8548 -0.4279  0.1608
36482SOL    HW227439  10.116   9.998   1.152  0.3811 -1.4700 -0.4875
36483SOL     OW27440   5.891   4.429   2.251  1.0120 -0.8121 -0.1294
36483SOL    HW127441   5.842   4.510   2.261 -1.2329 -2.0511 -0.4557
36483SOL    HW227442   5.907   4.399   2.341  0.4947 -0.7505 -0.0135
36484SOL     OW27443   2.161   1.459   9.650  0.0565  0.2235  0.1031
36484SOL    HW127444   2.210   1.379   9.631  0.9596  1.0115 -1.0517
36484SOL    HW227445   2.191   1.522   9.585  0.7047  2.0737  2.0606
36485SOL     OW27446   3.692   0.895   9.560  0.4512  0.2165  0.2689
36485SOL    HW127447   3.627   0.926   9.624  0.3877 -2.2164  1.5059
36485SOL    HW227448   3.641   0.840   9.500  1.0249 -0.0797  0.0520
36486SOL     OW27449   2.386  14.115   2.242 -0.4565  0.1511 -0.1724
36486SOL    HW127450   2.355  14.203   2.260 -0.2718  0.2051 -0.1215
36486SOL    HW227451   2.338  14.059   2.303  0.5741  0.3976  0.8854
36487SOL     OW27452   7.648   6.357   9.979 -0.2369  0.0912  0.3121
36487SOL    HW127453   7.706   6.431   9.998  0.3146 -0.5568  1.2003
36487SOL    HW227454   7.689   6.282  10.022 -1.2598 -0.5635  0.1809
36488SOL     OW27455   4.526   7.765   4.797  0.5170 -0.0422  0.1265
36488SOL    HW127456   4.450   7.808   4.757  1.2618  0.2509 -1.0332
36488SOL    HW227457   4.513   7.777   4.891 -1.1568 -0.5105 -0.0135
36489SOL     OW27458   1.587  11.394   4.772 -0.8210 -0.0421  0.1181
36489SOL    HW127459   1.622  11.397   4.682 -1.3530 -0.7323 -0.1185
36489SOL    HW227460   1.617  11.476   4.811  1.8249 -0.9264  0.2024
36490SOL     OW27461  11.273   2.028  10.406 -0.2836 -0.2143 -0.4164
36490SOL    HW127462  11.317   2.106  10.440 -0.0345 -1.5399  2.6266
36490SOL    HW227463  11.342   1.978  10.363  0.1909 -0.0450  0.1336
36491SOL     OW27464   7.398   9.641  12.703 -0.3470 -0.3458  0.2711
36491SOL    HW127465   7.491   9.618  12.707 -0.0418  0.7893 -0.0497
36491SOL    HW227466   7.358   9.591  12.774  0.4105 -1.2755  0.0647
36492SOL     OW27467   8.792  12.079   8.547  0.3327 -0.2805 -0.2821
36492SOL    HW127468   8.734  12.137   8.498  0.0206  0.9374  1.4453
36492SOL    HW227469   8.733  12.016   8.588  0.3686  0.1076  0.3641
36493SOL     OW27470   0.204   7.791  13.924 -0.6745 -0.0592 -0.4037
36493SOL    HW127471   0.183   7.699  13.940  0.3663  0.2030  3.5615
36493SOL    HW227472   0.282   7.807  13.976 -0.4608  2.9616 -1.4546
36494SOL     OW27473   6.565  12.800   4.434 -0.4727 -0.3189  0.1410
36494SOL    HW127474   6.598  12.845   4.512  0.9426 -0.9679 -0.0406
36494SOL    HW227475   6.474  12.778   4.455  0.1315 -1.2523  1.9851
36495SOL     OW27476   8.730   1.022  10.443  0.2120  0.0257  0.1243
36495SOL    HW127477   8.811   1.051  10.484  0.0501  1.3838 -0.4771
36495SOL    HW227478   8.663   1.080  10.478 -0.5326 -1.0926  0.6249
36496SOL     OW27479   4.978  10.452   9.089  0.0162  0.4274 -0.2786
36496SOL    HW127480   5.009  10.363   9.070 -0.2562  0.4754 -0.9517
36496SOL    HW227481   4.986  10.460   9.184  2.6503  0.6499 -0.4480
36497SOL     OW27482   0.970  13.724   8.148 -0.1988  0.4781  0.5976
36497SOL    HW127483   0.975  13.686   8.060 -1.3903 -1.4523  1.2880
36497SOL    HW227484   1.061  13.745   8.170  0.2230  0.2215 -0.7674
36498SOL     OW27485   4.153   9.770   1.452  0.1595  0.3086 -0.0712
36498SOL    HW127486   4.081   9.771   1.515  0.6783  0.8969  0.5280
36498SOL    HW227487   4.215   9.706   1.486 -0.4959 -0.9494 -1.1079
36499SOL     OW27488   4.131   0.062  12.654 -0.3316 -0.3457 -0.0868
36499SOL    HW127489   4.083   0.135  12.694 -1.2298 -0.9182 -0.0780
36499SOL    HW227490   4.075   0.035  12.581  0.6659 -0.1419 -0.9496
36500SOL     OW27491  10.175  13.082  13.031 -0.3806 -0.3333  0.5460
36500SOL    HW127492  10.193  13.143  13.102  0.0094 -1.3810  1.3633
36500SOL    HW227493  10.091  13.111  12.995 -0.3003  0.5471  1.0539
36501SOL     OW27494   9.551   0.044  10.525  0.2198  0.0427  0.1068
36501SOL    HW127495   9.476   0.025  10.582  0.0124  0.8170  0.1038
36501SOL    HW227496   9.617   0.082  10.583  1.3440 -2.2702  0.4600
36502SOL     OW27497  11.983  13.939  11.790  0.2179  0.0341 -0.5216
36502SOL    HW127498  11.990  13.844  11.782 -1.5939 -0.0954 -0.9314
36502SOL    HW227499  11.930  13.966  11.715  0.0074  1.2641  0.0472
36503SOL     OW27500   4.862   3.535   6.466 -0.1644  0.2317 -0.0333
36503SOL    HW127501   4.877   3.624   6.498 -0.5433  0.1531  0.3658
36503SOL    HW227502   4.942   3.513   6.418 -0.7289  1.4344 -1.6285
36504SOL     OW27503   0.678   6.478   8.728 -0.1081 -0.0540 -0.0690
36504SOL    HW127504   0.591   6.456   8.695 -0.4659  2.9261 -1.4997
36504SOL    HW227505   0.732   6.485   8.649  0.2855  2.3403  0.3501
36505SOL     OW27506   7.499   9.375  12.204 -0.2497  0.1954  0.2121
36505SOL    HW127507   7.521   9.456  12.250  0.6676 -0.3947  0.8626
36505SOL    HW227508   7.536   9.386  12.117  1.7592 -0.3231  0.9400
36506SOL     OW27509   1.726   7.387   2.539 -1.0683 -0.3081  0.2996
36506SOL    HW127510   1.726   7.300   2.578 -1.5184  0.2617  1.6642
36506SOL    HW227511   1.639   7.422   2.559 -1.3468  0.0045 -1.3122
36507SOL     OW27512   5.663   3.247   0.955 -0.0058  0.1607 -0.1384
36507SOL    HW127513   5.572   3.241   0.927  0.4421  0.2552 -1.7740
36507SOL    HW227514   5.699   3.159   0.938  0.2066  0.1288  0.4744
36508SOL     OW27515   5.713  11.583   0.374  0.2622  0.3301  0.6017
36508SOL    HW127516   5.678  11.493   0.375  2.6657 -0.6829  1.4856
36508SOL    HW227517   5.806  11.572   0.392  1.6588  2.6237 -3.8313
36509SOL     OW27518   5.322   3.915   8.784  0.3374  0.4085  0.4845
36509SOL    HW127519   5.345   3.905   8.877 -0.0052 -1.3479  0.4261
36509SOL    HW227520   5.227   3.901   8.782  0.6872 -2.6386 -0.4167
36510SOL     OW27521   7.187  10.835   1.872 -0.0679 -0.2698 -0.1874
36510SOL    HW127522   7.257  10.879   1.920  1.0910 -0.4547 -1.6311
36510SOL    HW227523   7.227  10.754   1.841 -0.3050  0.4844 -2.6314
36511SOL     OW27524  10.410  13.011  12.879 -0.0868 -0.2577  0.8880
36511SOL    HW127525  10.325  13.024  12.921 -0.6269 -0.0364 -0.2202
36511SOL    HW227526  10.434  13.099  12.848 -0.2724 -0.5921 -0.2596
36512SOL     OW27527  11.154  13.366   5.423 -0.0385  0.1016  0.3792
36512SOL    HW127528  11.112  13.286   5.454  1.1939 -0.8525 -0.3445
36512SOL    HW227529  11.203  13.339   5.345  1.9595  1.1357  1.2192
36513SOL     OW27530   0.505   8.380  12.175  0.6705  0.1296  0.6117
36513SOL    HW127531   0.501   8.294  12.218  0.2080 -0.9431 -1.4158
36513SOL    HW227532   0.590   8.415  12.198  2.7521 -2.7966 -1.8030
36514SOL     OW27533   0.774  10.306   0.783 -0.6590 -0.1566 -0.1351
36514SOL    HW127534   0.720  10.385   0.777 -2.5175 -1.2028  1.5959
36514SOL    HW227535   0.742  10.249   0.713  0.2708  0.3453 -0.9958
36515SOL     OW27536   9.368   3.275   2.955 -0.4904 -0.3954  0.1162
36515SOL    HW127537   9.354   3.208   3.022 -1.9920  0.1090  0.3354
36515SOL    HW227538   9.463   3.285   2.951 -0.3185 -1.4185  1.1848
36516SOL     OW27539   9.214   2.327   2.745  0.2905  0.5087  0.0623
36516SOL    HW127540   9.195   2.308   2.653  0.1781  2.2386 -0.3069
36516SOL    HW227541   9.261   2.410   2.743  1.7264 -0.2088  1.4778
36517SOL     OW27542   5.134   8.653  12.336  0.3890  0.2239 -0.1090
36517SOL    HW127543   5.160   8.746  12.337 -0.7296  0.7461 -3.6081
36517SOL    HW227544   5.038   8.656  12.335  0.3459 -0.9827  0.0259
36518SOL     OW27545   0.938  10.316  11.027 -0.4056 -0.5205  0.5123
36518SOL    HW127546   0.931  10.402  11.067 -1.3917 -1.3630  2.3005
36518SOL    HW227547   0.921  10.331  10.934 -2.1533  1.0149  1.0220
36519SOL     OW27548   5.751   8.493   4.202  0.5392 -0.4395 -0.3511
36519SOL    HW127549   5.811   8.452   4.139 -0.2463 -0.7409 -0.9230
36519SOL    HW227550   5.778   8.458   4.287  0.8644 -0.9425 -0.6564
36520SOL     OW27551   8.330  13.412  11.827  0.5157 -0.1065  0.4560
36520SOL    HW127552   8.347  13.421  11.733  2.6754  1.8577  0.9318
36520SOL    HW227553   8.345  13.500  11.862 -0.0114 -0.8432  2.7027
36521SOL     OW27554  14.013   8.686   3.681  0.0764 -0.3071  0.3725
36521SOL    HW127555  13.981   8.757   3.626 -0.5004 -0.1187  0.9321
36521SOL    HW227556  14.071   8.635   3.625 -2.9045 -1.9884 -1.4356
36522SOL     OW27557   5.109   5.438  12.223  0.2790  0.1362 -0.9243
36522SOL    HW127558   5.073   5.407  12.306  0.4627 -0.1573 -0.9500
36522SOL    HW227559   5.174   5.371  12.200  0.0694  0.1051 -1.4158
36523SOL     OW27560   3.668  12.271   7.156  0.2258 -0.6257  0.5639
36523SOL    HW127561   3.675  12.182   7.121  0.2814 -0.3387 -0.1748
36523SOL    HW227562   3.745  12.281   7.213  1.0198 -0.5630 -0.4875
36524SOL     OW27563   9.084   1.063   3.591  0.5513  0.2585 -0.1465
36524SOL    HW127564   9.001   1.021   3.615  0.2929  0.7322 -0.1969
36524SOL    HW227565   9.109   1.021   3.508 -1.3778  2.4096 -1.9615
36525SOL     OW27566  10.066  12.757   8.453 -0.2827 -0.1561 -0.4693
36525SOL    HW127567  10.119  12.706   8.515 -0.3414  1.0103  0.5500
36525SOL    HW227568  10.116  12.751   8.371  0.9293  0.0822  0.2211
36526SOL     OW27569   2.703   5.309   5.370 -0.1458 -0.0027 -0.5323
36526SOL    HW127570   2.655   5.257   5.434 -0.5541  0.1556 -0.7033
36526SOL    HW227571   2.672   5.277   5.285 -1.0011  1.0562 -0.6365
36527SOL     OW27572   0.267   6.580   1.554  0.3708  0.0658  0.0769
36527SOL    HW127573   0.250   6.634   1.477 -0.3275 -1.7434 -1.0911
36527SOL    HW227574   0.346   6.531   1.532 -0.4975 -1.3342 -0.0123
36528SOL     OW27575   1.626  11.387   8.977  0.2769 -0.3135  0.2617
36528SOL    HW127576   1.668  11.404   8.893 -1.2752  1.3024 -0.2578
36528SOL    HW227577   1.547  11.336   8.954  0.0353 -0.1803  0.7763
36529SOL     OW27578   4.826  10.923   7.264 -0.0770  0.5343  0.1408
36529SOL    HW127579   4.868  10.876   7.192 -0.7885  0.3993 -0.1954
36529SOL    HW227580   4.821  10.858   7.335  0.8213  0.7327  0.3980
36530SOL     OW27581  10.482   4.855  11.001  0.0867  0.7462 -0.7132
36530SOL    HW127582  10.440   4.804  10.932  0.7199 -0.1593 -0.4548
36530SOL    HW227583  10.411   4.902  11.044 -0.6325 -0.5288 -0.4639
36531SOL     OW27584   6.163   6.449  12.745 -0.0629  0.6163  0.2621
36531SOL    HW127585   6.251   6.414  12.731  0.3420  0.2601  3.1223
36531SOL    HW227586   6.109   6.372  12.764 -1.0493  0.8330 -1.4383
36532SOL     OW27587  13.380   8.782   0.477 -0.0114 -0.2503  0.2122
36532SOL    HW127588  13.467   8.757   0.448  0.5652  2.3199 -0.5083
36532SOL    HW227589  13.379   8.762   0.571  2.1387  1.5248  0.6836
36533SOL     OW27590   4.707   9.241  13.445  0.4360 -0.8464  0.4998
36533SOL    HW127591   4.783   9.193  13.411  0.4968  0.8145 -2.0121
36533SOL    HW227592   4.744   9.316  13.490  0.3505  0.2346 -1.1573
36534SOL     OW27593   3.879   5.994  12.560  0.0119  0.5518  0.0039
36534SOL    HW127594   3.832   5.990  12.643 -0.0944  0.4558 -0.0600
36534SOL    HW227595   3.947   5.927  12.568  1.3303  1.9505  0.8223
36535SOL     OW27596   6.456   8.962  13.149 -0.1322 -0.4511  0.2094
36535SOL    HW127597   6.532   9.014  13.176 -1.5446  0.3776  2.9675
36535SOL    HW227598   6.451   8.976  13.054  2.7407 -0.0513  0.0125
36536SOL     OW27599  12.854   6.588   1.463 -0.2219  0.2659  0.3231
36536SOL    HW127600  12.854   6.583   1.368 -0.9551 -1.4300  0.3745
36536SOL    HW227601  12.799   6.515   1.491  2.7749 -1.5422  2.0976
36537SOL     OW27602  13.129  13.609   3.657  0.3913 -0.3693  0.6390
36537SOL    HW127603  13.150  13.645   3.571  0.3924 -1.8072  0.0042
36537SOL    HW227604  13.033  13.612   3.661  0.3912 -0.3084  0.5888
36538SOL     OW27605   7.905   7.998   8.979  0.1719  0.3827 -0.1390
36538SOL    HW127606   7.822   8.045   8.970  0.3614  0.6620 -0.4794
36538SOL    HW227607   7.879   7.906   8.986 -0.1492  0.4054 -0.8462
36539SOL     OW27608  11.408   8.498   1.779 -0.1383  0.1135 -0.4680
36539SOL    HW127609  11.494   8.532   1.801 -0.1997  0.8338 -1.2992
36539SOL    HW227610  11.423   8.404   1.764  0.1976 -0.0800  0.8996
36540SOL     OW27611   2.378   2.605  10.299  0.3013  0.0049 -0.0708
36540SOL    HW127612   2.410   2.641  10.217  1.5618 -0.4440  0.2119
36540SOL    HW227613   2.456   2.585  10.349 -0.4053 -1.5730  0.4532
36541SOL     OW27614  11.079  12.529  10.636 -0.3999 -0.4501  0.8311
36541SOL    HW127615  11.054  12.494  10.722 -1.4185 -0.3861  0.5785
36541SOL    HW227616  11.032  12.474  10.574  0.3781 -0.5310  0.3001
36542SOL     OW27617   0.449  12.891   8.816  0.2284  0.6574 -0.0732
36542SOL    HW127618   0.363  12.888   8.772 -0.8911  0.4684  1.9853
36542SOL    HW227619   0.499  12.955   8.766 -0.4515 -0.5610 -2.4304
36543SOL     OW27620   0.199   8.608   6.855 -0.5117  0.0471  0.4289
36543SOL    HW127621   0.194   8.655   6.772  0.6367  0.1781  0.4148
36543SOL    HW227622   0.108   8.593   6.879 -0.8887  1.2906 -0.1203
36544SOL     OW27623   7.556   9.897   7.213  0.3545  0.4564  0.1702
36544SOL    HW127624   7.479   9.938   7.174  0.7692  0.8700 -0.2355
36544SOL    HW227625   7.620   9.969   7.221  0.3726  0.3159  1.3687
36545SOL     OW27626  10.132   5.230   1.376 -0.0979 -0.1031 -0.2926
36545SOL    HW127627  10.155   5.318   1.405  0.4291 -0.6150  0.9541
36545SOL    HW227628  10.047   5.213   1.416  0.8275 -0.9770  1.4788
36546SOL     OW27629  12.965   0.959  10.464 -0.2972  0.1921  0.6129
36546SOL    HW127630  12.997   0.990  10.379 -0.5787  0.4539  0.6024
36546SOL    HW227631  12.967   1.036  10.520  1.0069 -0.2273  1.1837
36547SOL     OW27632   6.922  12.318   6.278  0.0785  0.0272  0.1295
36547SOL    HW127633   6.920  12.410   6.302 -1.0284  0.1504 -0.3817
36547SOL    HW227634   6.841  12.304   6.228 -0.6065 -1.5795  1.5689
36548SOL     OW27635   6.694  10.144  11.502 -0.1982 -0.1993  0.6195
36548SOL    HW127636   6.641  10.222  11.519 -1.0317 -0.5594 -0.2336
36548SOL    HW227637   6.719  10.152  11.410 -0.2976 -0.9427  0.5231
36549SOL     OW27638   1.336   8.724   7.844 -0.4616 -0.1946 -0.1802
36549SOL    HW127639   1.367   8.709   7.754 -1.0558 -0.5346 -0.3316
36549SOL    HW227640   1.286   8.805   7.839  0.3030  0.3042  0.0466
36550SOL     OW27641  13.506   5.902   6.272  0.1062 -0.1186 -0.0217
36550SOL    HW127642  13.438   5.969   6.268  0.7039  0.5419  0.7473
36550SOL    HW227643  13.506   5.873   6.363  0.3290 -0.6819 -0.1947
36551SOL     OW27644   8.204  13.076   5.716  0.0450 -0.0691  0.1725
36551SOL    HW127645   8.241  12.988   5.712  0.1454 -0.0399  0.4331
36551SOL    HW227646   8.275  13.133   5.688  0.0351 -0.0566  0.1737
36552SOL     OW27647  10.321   1.838   7.381  0.6218  0.3041 -0.5148
36552SOL    HW127648  10.409   1.863   7.351  1.4062  0.2650  1.6361
36552SOL    HW227649  10.288   1.916   7.426  1.2022 -0.8751  2.1438
36553SOL     OW27650   9.176  14.125   9.211  0.0864  0.1215  0.2509
36553SOL    HW127651   9.231  14.072   9.269 -2.0076 -0.4477  1.8272
36553SOL    HW227652   9.089  14.121   9.250 -1.0661  1.1547 -2.0269
36554SOL     OW27653   5.131   0.677  12.009 -0.0473 -0.1607 -0.1201
36554SOL    HW127654   5.038   0.661  11.994 -0.0389 -2.4327  1.7019
36554SOL    HW227655   5.134   0.725  12.092  0.3971 -3.7606  2.1640
36555SOL     OW27656   3.744   6.812  10.824 -0.5256 -0.2247 -0.7843
36555SOL    HW127657   3.664   6.842  10.868  0.0107  0.6238 -0.3344
36555SOL    HW227658   3.791   6.893  10.804  0.7047 -0.7392 -0.0854
36556SOL     OW27659   0.449   7.133   0.162  0.0238  0.0586 -0.0705
36556SOL    HW127660   0.448   7.169   0.251  0.0580 -0.9575  0.3584
36556SOL    HW227661   0.541   7.125   0.140  0.0390  2.1670 -1.0093
36557SOL     OW27662   9.576   3.562   6.656 -0.0310 -0.1130  0.3251
36557SOL    HW127663   9.535   3.609   6.729  0.1711 -0.0005  0.3648
36557SOL    HW227664   9.595   3.475   6.692  0.9963  0.2684  0.7141
36558SOL     OW27665  13.811   5.251  11.132  0.3989 -0.5021  0.5493
36558SOL    HW127666  13.887   5.198  11.109 -0.3157 -1.8172  1.0907
36558SOL    HW227667  13.835   5.291  11.216  0.8437 -0.1677  0.2660
36559SOL     OW27668   5.613   2.989   1.858  0.2301 -0.2562 -0.3542
36559SOL    HW127669   5.682   3.025   1.914 -0.0559 -1.9174  1.1484
36559SOL    HW227670   5.573   3.066   1.817  3.0207  0.7724 -1.4419
36560SOL     OW27671  13.083  11.444   4.816  0.1366  0.3428  0.5855
36560SOL    HW127672  13.011  11.497   4.852 -0.0770 -1.1466  2.5375
36560SOL    HW227673  13.106  11.385   4.887  2.9945  0.4127 -0.1685
36561SOL     OW27674   0.454   7.919  11.949  0.3031  0.6233 -0.0224
36561SOL    HW127675   0.394   7.863  11.899  0.5539  1.1969 -0.9797
36561SOL    HW227676   0.446   8.005  11.909  0.9496  0.9672  0.5630
36562SOL     OW27677  11.048   5.237   5.450  0.3654 -0.7542  0.4820
36562SOL    HW127678  11.039   5.229   5.355  1.5228 -0.7593  0.3636
36562SOL    HW227679  10.985   5.304   5.474  1.2631  0.4965 -0.5317
36563SOL     OW27680  14.040   6.789  14.046 -0.0086 -0.5792 -0.3252
36563SOL    HW127681  13.954   6.806  14.085  0.2117  2.5030 -0.9084
36563SOL    HW227682  14.069   6.707  14.086 -2.7809 -1.2155  0.5910
36564SOL     OW27683  10.389   1.167   1.370  0.0766  0.3419  0.7495
36564SOL    HW127684  10.413   1.075   1.367  1.4926  0.7174 -0.6398
36564SOL    HW227685  10.341   1.182   1.288 -0.2721  0.8082  1.0345
36565SOL     OW27686  12.402   2.591   4.871 -0.0004 -0.6297  0.0425
36565SOL    HW127687  12.314   2.559   4.891 -0.8071  1.2342 -0.2997
36565SOL    HW227688  12.406   2.677   4.912  2.0736 -1.1063  0.9411
36566SOL     OW27689   8.531   8.212   2.596 -0.4127  0.1221  0.3656
36566SOL    HW127690   8.498   8.301   2.585  1.4870  0.8535  0.1101
36566SOL    HW227691   8.559   8.186   2.508  0.2894 -0.1798  0.6676
36567SOL     OW27692  12.568   3.134   9.351 -0.7017 -0.6101 -0.1585
36567SOL    HW127693  12.654   3.176   9.356 -1.2652  0.6350 -0.4471
36567SOL    HW227694  12.578   3.054   9.402  0.2019  0.2670  1.1185
36568SOL     OW27695   0.654   5.308  11.243 -0.1233 -0.3180 -0.3312
36568SOL    HW127696   0.622   5.218  11.248 -0.4145 -0.2359 -0.6764
36568SOL    HW227697   0.601   5.357  11.305  0.2180 -0.4357  0.0556
36569SOL     OW27698   8.021   4.283  11.935  0.2031  0.1472  0.2155
36569SOL    HW127699   8.063   4.265  11.851 -1.5108  1.0253 -0.8676
36569SOL    HW227700   8.094   4.288  11.997  1.5377 -0.1089 -1.2672
36570SOL     OW27701   8.284   5.716   7.061  0.2497 -0.2856  0.8293
36570SOL    HW127702   8.285   5.801   7.018  1.4541  0.0210  1.4117
36570SOL    HW227703   8.373   5.682   7.051  0.0815 -0.9936  1.5269
36571SOL     OW27704   4.983   6.019   3.448 -1.2320 -0.4809 -0.1062
36571SOL    HW127705   4.938   5.935   3.450 -0.0264 -1.1353  0.1348
36571SOL    HW227706   5.065   6.004   3.495 -0.8488  0.7458 -0.3419
36572SOL     OW27707   7.871   1.521   8.750  0.5218  0.1535 -0.0089
36572SOL    HW127708   7.823   1.550   8.827 -1.3463  1.2974 -1.5144
36572SOL    HW227709   7.854   1.427   8.745 -0.3533  0.2827  0.3334
36573SOL     OW27710   8.315  13.798  10.129 -0.4798 -0.1843  0.0285
36573SOL    HW127711   8.309  13.816  10.223  1.0756 -0.1526  0.1426
36573SOL    HW227712   8.324  13.702  10.124 -1.6574 -0.3011 -0.1715
36574SOL     OW27713   7.061  11.375   5.200  0.6895  0.1240  0.0558
36574SOL    HW127714   7.052  11.279   5.199 -0.6292  0.2172 -1.8227
36574SOL    HW227715   6.972  11.407   5.213  1.0837  1.1243  0.3446
36575SOL     OW27716   6.628  14.126   7.134  0.1868 -0.1913 -0.5295
36575SOL    HW127717   6.543  14.150   7.098 -0.1106 -1.2984 -0.6177
36575SOL    HW227718   6.611  14.111   7.227  0.7158  1.5269 -0.1188
36576SOL     OW27719  10.696  12.947   7.778  0.0218 -0.3134 -0.0175
36576SOL    HW127720  10.647  13.019   7.738 -0.0426 -0.4673 -0.2156
36576SOL    HW227721  10.734  12.985   7.857  0.5121  0.1085 -0.4562
36577SOL     OW27722   5.931   0.109   7.277 -0.6269 -0.1205 -0.2283
36577SOL    HW127723   5.922   0.070   7.364  0.2821  1.8743  0.8368
36577SOL    HW227724   5.982   0.044   7.228  0.5530 -0.4863  1.3511
36578SOL     OW27725  12.999   8.260   3.908  0.1606 -0.3372 -0.5681
36578SOL    HW127726  12.971   8.260   3.816 -0.9408 -2.2111 -0.2604
36578SOL    HW227727  12.921   8.236   3.957  0.9658 -0.2431  0.7965
36579SOL     OW27728  10.950  11.938  11.172  0.1265 -0.0723 -0.1595
36579SOL    HW127729  11.014  12.008  11.156 -0.5741  0.4158 -0.9247
36579SOL    HW227730  10.899  11.934  11.091 -0.7710 -0.4857  0.4147
36580SOL     OW27731   1.687   4.540   8.099  0.3678  0.4021  0.1885
36580SOL    HW127732   1.655   4.618   8.053 -0.2502 -0.7300 -1.4055
36580SOL    HW227733   1.634   4.535   8.178 -0.7869  0.6805 -0.5360
36581SOL     OW27734  13.755  10.211   4.736 -0.3163 -0.1709 -0.0071
36581SOL    HW127735  13.809  10.134   4.748  2.5929  1.7007 -0.1913
36581SOL    HW227736  13.717  10.228   4.822  0.0590 -1.0258  0.3362
36582SOL     OW27737   3.307  12.158   6.253 -0.5365 -0.3161 -0.2690
36582SOL    HW127738   3.276  12.206   6.330 -0.6801 -0.5302 -0.1924
36582SOL    HW227739   3.339  12.225   6.194  0.4988 -0.1951  0.3906
36583SOL     OW27740  12.964  11.744   9.603 -0.4782  0.8244 -0.1331
36583SOL    HW127741  13.007  11.659   9.598 -3.7227 -1.2263  2.2978
36583SOL    HW227742  12.944  11.766   9.512 -0.4764 -1.5871 -0.7962
36584SOL     OW27743   4.266   3.187   4.329  0.4076 -0.4235 -0.2150
36584SOL    HW127744   4.358   3.178   4.306  1.0940  1.2264  1.6112
36584SOL    HW227745   4.238   3.266   4.283 -0.1871 -1.0422 -0.9431
36585SOL     OW27746  10.490   4.465   8.137  0.0538 -0.0606  0.0232
36585SOL    HW127747  10.512   4.520   8.213 -2.2737 -0.2941  0.9257
36585SOL    HW227748  10.491   4.526   8.063 -0.8764  0.8870  0.7576
36586SOL     OW27749   0.599   2.572   3.315  0.2584 -0.4597 -0.2826
36586SOL    HW127750   0.606   2.477   3.307 -0.9171 -0.5317 -0.6078
36586SOL    HW227751   0.663   2.595   3.383  0.4568 -1.4944 -0.1031
36587SOL     OW27752   4.947   0.990   7.194 -0.2012  0.0562  0.0524
36587SOL    HW127753   4.920   0.911   7.240 -1.6432 -0.5140 -1.6804
36587SOL    HW227754   5.018   1.026   7.248  0.5082 -2.4036  0.8730
36588SOL     OW27755   3.401  13.235   3.402 -0.2370 -0.0703 -0.0299
36588SOL    HW127756   3.480  13.192   3.367  0.3617  1.8951 -1.2524
36588SOL    HW227757   3.420  13.248   3.495  1.5312  1.5594 -0.5434
36589SOL     OW27758   6.305   9.942   8.465  0.0687  0.3822 -0.4876
36589SOL    HW127759   6.213   9.968   8.463 -0.0744 -0.1512 -1.7619
36589SOL    HW227760   6.304   9.848   8.445  1.0080  0.7760 -2.6105
36590SOL     OW27761   6.335   1.695  12.884  0.4739 -0.0675 -0.3281
36590SOL    HW127762   6.317   1.774  12.934  0.0265 -0.7090  0.5380
36590SOL    HW227763   6.379   1.636  12.945 -1.3245 -1.3932 -0.2354
36591SOL     OW27764  11.943   8.568   5.013 -0.1697 -0.6031  0.1933
36591SOL    HW127765  11.877   8.579   4.944  1.2168 -0.0733 -1.0980
36591SOL    HW227766  11.943   8.652   5.060 -1.0494 -0.9321  0.8117
36592SOL     OW27767   7.292  11.109   9.222  0.0416 -0.5491  0.1325
36592SOL    HW127768   7.227  11.080   9.285 -0.1472 -0.5781 -0.0756
36592SOL    HW227769   7.374  11.111   9.272  0.7371 -4.4393 -0.5521
36593SOL     OW27770   9.327  13.951   0.617  0.9755  0.2140  0.0632
36593SOL    HW127771   9.251  14.009   0.614 -0.1783 -1.2689 -0.4560
36593SOL    HW227772   9.370  13.964   0.532  0.8125  0.4098  0.0107
36594SOL     OW27773   9.869   7.201   9.388 -0.2699  0.3464  0.7551
36594SOL    HW127774   9.799   7.180   9.449 -1.8920  1.2193 -0.7013
36594SOL    HW227775   9.922   7.266   9.434 -1.9014  1.5681  1.0106
36595SOL     OW27776   2.861  11.223   1.356  0.0450  0.6538 -0.0588
36595SOL    HW127777   2.882  11.131   1.345  1.2170  0.6872  1.5159
36595SOL    HW227778   2.771  11.232   1.323 -0.3673 -1.1975  0.4759
36596SOL     OW27779   7.160  11.880   1.292  0.0123  0.1539  0.0022
36596SOL    HW127780   7.203  11.798   1.270  0.2951  0.0635  0.8634
36596SOL    HW227781   7.128  11.868   1.381  0.5602  1.1727  0.3581
36597SOL     OW27782   8.497   7.274   0.597 -0.3078 -0.0995  0.3178
36597SOL    HW127783   8.477   7.230   0.514 -1.1920 -1.6531  1.2889
36597SOL    HW227784   8.533   7.359   0.572  0.5364 -0.9805 -1.6654
36598SOL     OW27785   6.159   9.310   0.193 -0.1995 -1.0650  0.1427
36598SOL    HW127786   6.088   9.281   0.135 -0.9868 -0.5975  0.8429
36598SOL    HW227787   6.138   9.401   0.212  2.1226 -0.0056 -1.8790
36599SOL     OW27788  12.603   2.793   3.220 -0.8364 -0.4360  0.9307
36599SOL    HW127789  12.617   2.885   3.198  0.3897 -0.5246  1.2267
36599SOL    HW227790  12.581   2.794   3.314 -1.6898 -0.3832  0.7321
36600SOL     OW27791   5.854   7.590  10.997  0.5400  0.2395  0.6510
36600SOL    HW127792   5.815   7.651  10.934  0.8357 -0.8115 -0.5775
36600SOL    HW227793   5.940   7.627  11.015  1.7880 -1.0909 -2.0929
36601SOL     OW27794   7.444   2.655   1.270 -0.3488 -0.5812  0.3304
36601SOL    HW127795   7.498   2.578   1.249  1.1847  0.0679  1.6777
36601SOL    HW227796   7.466   2.718   1.202 -0.3455 -0.7434  0.1790
36602SOL     OW27797   7.332  12.309  12.364  0.0492 -0.4639 -0.5160
36602SOL    HW127798   7.349  12.251  12.290 -0.1210 -2.7755  1.1531
36602SOL    HW227799   7.265  12.369  12.332  0.3150 -1.0828 -2.3608
36603SOL     OW27800   0.641   1.957   0.374  0.1629 -0.0138 -0.3154
36603SOL    HW127801   0.554   1.977   0.337 -0.0928  0.8389  0.7102
36603SOL    HW227802   0.657   1.866   0.348  0.2132  0.6521 -2.9041
36604SOL     OW27803  10.897  11.142  12.983 -0.0314  0.3674 -0.0144
36604SOL    HW127804  10.825  11.191  12.943  1.7156  2.3128 -0.9842
36604SOL    HW227805  10.870  11.131  13.074 -0.4950  3.4526  0.3517
36605SOL     OW27806   3.231   1.262   0.945  0.3162  0.4590 -0.0985
36605SOL    HW127807   3.326   1.264   0.959  0.1216  2.4780  1.4382
36605SOL    HW227808   3.221   1.282   0.851  1.3931  0.2202 -0.2841
36606SOL     OW27809   0.068   0.390   1.578  0.6625  0.2283  0.1821
36606SOL    HW127810   0.088   0.393   1.484 -0.4108  2.7403 -0.0507
36606SOL    HW227811  -0.021   0.357   1.582  0.3705  1.0161  0.2355
36607SOL     OW27812  13.742   5.317   4.598 -0.2805  0.1484 -0.1517
36607SOL    HW127813  13.833   5.288   4.605 -0.7158 -1.2913 -0.2171
36607SOL    HW227814  13.691   5.236   4.599 -1.6350  0.9734  0.9632
36608SOL     OW27815   4.592   3.986  10.444  0.0814 -0.3219  0.1406
36608SOL    HW127816   4.520   4.014  10.387  1.9892  3.1002 -0.7929
36608SOL    HW227817   4.548   3.960  10.525 -2.2976  0.4922 -0.7808
36609SOL     OW27818   2.116  11.934  13.322  0.3325 -0.0023  0.0879
36609SOL    HW127819   2.130  11.847  13.361 -0.3370  0.0699  0.5157
36609SOL    HW227820   2.059  11.918  13.247 -0.2566  0.1293  0.5014
36610SOL     OW27821   4.839   2.769  11.904  0.3077 -0.0436  0.1513
36610SOL    HW127822   4.799   2.721  11.831  0.7780  0.3222 -0.3504
36610SOL    HW227823   4.846   2.703  11.973 -0.5820 -0.2794  0.0449
36611SOL     OW27824   3.102  10.236   4.784  0.0135 -0.2016 -0.2278
36611SOL    HW127825   3.111  10.326   4.754 -2.3913  0.3833  0.5412
36611SOL    HW227826   3.181  10.219   4.835  1.6926  0.5470 -2.4534
36612SOL     OW27827   7.222   4.393  11.908  0.4365  0.0799  0.0238
36612SOL    HW127828   7.132   4.371  11.931  0.1180 -0.3551 -1.5230
36612SOL    HW227829   7.275   4.340  11.968 -0.3222 -0.1086  0.5517
36613SOL     OW27830   2.154   8.123  12.233  0.1007  0.2869  0.3768
36613SOL    HW127831   2.122   8.130  12.143 -0.8133 -0.9158  0.5749
36613SOL    HW227832   2.202   8.040  12.235  1.2227  0.9216  0.6960
36614SOL     OW27833  10.127   6.942  12.286  0.0400 -0.1555 -0.1465
36614SOL    HW127834  10.122   6.850  12.259 -1.8063  0.5414 -2.5931
36614SOL    HW227835  10.210   6.949  12.334  0.8177 -2.8198 -0.9334
36615SOL     OW27836  13.433  10.862   0.957 -0.3026  0.2330 -0.5421
36615SOL    HW127837  13.410  10.907   1.038 -1.8224  0.7734 -1.2382
36615SOL    HW227838  13.507  10.806   0.981 -0.3856  0.7662  1.0839
36616SOL     OW27839  11.960   2.904   2.859 -0.5899 -0.1272  0.0563
36616SOL    HW127840  11.918   2.827   2.896  3.2938 -1.7546  1.6022
36616SOL    HW227841  11.988   2.877   2.772 -2.6794  0.9944 -1.0276
36617SOL     OW27842   1.543  10.586  12.331 -0.0126 -0.1309 -0.4582
36617SOL    HW127843   1.542  10.562  12.239 -0.1950  0.2656 -0.5622
36617SOL    HW227844   1.459  10.555  12.365  0.3839 -0.9887 -0.2346
36618SOL     OW27845   1.623   9.708   4.213  0.5339 -0.0334  0.1288
36618SOL    HW127846   1.546   9.731   4.161 -0.7596 -1.5162  1.3184
36618SOL    HW227847   1.629   9.778   4.278  0.2708  0.1447 -0.0355
36619SOL     OW27848   6.583   5.330   3.577 -0.2981 -0.0220 -0.7494
36619SOL    HW127849   6.493   5.352   3.601 -0.2073  0.1944 -0.6020
36619SOL    HW227850   6.595   5.370   3.491 -0.3197  0.0123 -0.7367
36620SOL     OW27851   6.752  11.059   7.308  0.0676  0.1223 -0.2570
36620SOL    HW127852   6.719  11.089   7.393  1.0900  1.3557 -0.2651
36620SOL    HW227853   6.809  11.130   7.279  2.3268 -1.6772 -0.4744
36621SOL     OW27854   1.364  12.796  14.090 -0.0134  0.1591 -0.3346
36621SOL    HW127855   1.411  12.828  14.012  0.6454 -0.1284 -0.0663
36621SOL    HW227856   1.308  12.726  14.058  0.1070  0.1747 -0.5825
36622SOL     OW27857   3.523   6.688   0.302  0.3129  0.3081 -0.4765
36622SOL    HW127858   3.527   6.632   0.379  1.5139  1.6901  0.5243
36622SOL    HW227859   3.615   6.700   0.276 -0.0524  0.1324 -1.9509
36623SOL     OW27860  10.390   5.960   0.039  0.0227 -0.0558  0.1522
36623SOL    HW127861  10.367   5.897   0.108  0.4900 -1.5326 -0.9945
36623SOL    HW227862  10.482   5.981   0.056 -0.0812  0.1701  0.4308
36624SOL     OW27863  10.196  13.115   1.725 -0.5116  0.7055 -0.1898
36624SOL    HW127864  10.275  13.119   1.671 -0.6617 -0.6028 -0.5440
36624SOL    HW227865  10.214  13.172   1.799  0.7703  0.4202 -0.2697
36625SOL     OW27866  12.954  10.426   2.363  0.2805 -0.1575 -0.4039
36625SOL    HW127867  12.873  10.422   2.311 -0.4902 -1.0638  0.8163
36625SOL    HW227868  12.929  10.394   2.450  1.6586  0.8209  0.3951
36626SOL     OW27869   0.278  10.901   1.494 -0.5972 -0.5347 -0.3158
36626SOL    HW127870   0.329  10.940   1.422  0.1440 -0.5203  0.2121
36626SOL    HW227871   0.188  10.929   1.476 -0.0901  1.6509  0.1436
36627SOL     OW27872   3.309   4.954  11.782  0.2018  0.0493  0.0971
36627SOL    HW127873   3.398   4.987  11.772  0.0011  0.2017 -1.4313
36627SOL    HW227874   3.305   4.923  11.873  2.1567 -0.9917 -0.1122
36628SOL     OW27875   4.553  10.691   4.942  0.4804 -0.1501 -0.3628
36628SOL    HW127876   4.530  10.676   4.850  0.7912 -1.7073 -0.2219
36628SOL    HW227877   4.631  10.637   4.956  0.1416 -0.3377  0.9388
36629SOL     OW27878  11.686   9.279   4.133  0.0811  0.0529  0.1612
36629SOL    HW127879  11.631   9.344   4.176  0.3826  0.8458 -0.6086
36629SOL    HW227880  11.763   9.329   4.104 -0.6337 -0.1676 -2.3033
36630SOL     OW27881   6.508   2.281   8.404 -0.2391  1.1593  0.7188
36630SOL    HW127882   6.480   2.303   8.493 -0.9574  2.6898  0.1552
36630SOL    HW227883   6.501   2.364   8.356 -2.5295 -0.1578 -1.4412
36631SOL     OW27884  12.386   0.990   9.885  0.4157  0.2391 -0.0274
36631SOL    HW127885  12.340   0.912   9.915  0.3265 -0.9211 -2.8585
36631SOL    HW227886  12.371   1.055   9.954 -3.6841 -0.6909  0.2180
36632SOL     OW27887   3.971   5.549   7.025 -0.3880  0.1337 -0.2585
36632SOL    HW127888   3.993   5.641   7.008  0.8728 -0.4107 -1.8180
36632SOL    HW227889   3.892   5.553   7.078 -0.4987  2.1164 -0.4836
36633SOL     OW27890  14.120  12.571  13.743 -0.2644 -0.0476 -0.0263
36633SOL    HW127891  14.075  12.595  13.823  1.1256  0.3641  0.6589
36633SOL    HW227892  14.051  12.568  13.676 -1.1635  1.3821  0.8005
36634SOL     OW27893  10.622  10.677   5.217 -0.2808  0.5994  0.2290
36634SOL    HW127894  10.592  10.601   5.168  2.9705 -0.4270 -0.4410
36634SOL    HW227895  10.589  10.663   5.306 -1.1268 -0.7170 -0.2658
36635SOL     OW27896   3.234   2.568  10.110 -0.2278 -0.5839 -0.0168
36635SOL    HW127897   3.243   2.663  10.109  0.4224 -0.6381  0.0728
36635SOL    HW227898   3.323   2.535  10.095 -0.5332 -1.1777 -0.5542
36636SOL     OW27899   4.088  12.136  10.970 -0.2710  0.3509  0.0404
36636SOL    HW127900   4.152  12.205  10.952  0.9404 -0.5713  0.7002
36636SOL    HW227901   4.049  12.160  11.054 -0.7627  0.8614 -0.3176
36637SOL     OW27902   9.113   9.439  13.863  0.7110  0.6991  0.3945
36637SOL    HW127903   9.088   9.405  13.949  3.4086 -0.2661  0.9207
36637SOL    HW227904   9.159   9.521  13.883 -1.3699  2.1300 -0.4539
36638SOL     OW27905   2.745   4.698   4.661 -0.7749  0.0476 -0.2791
36638SOL    HW127906   2.795   4.744   4.594  0.4996  0.6166  0.9958
36638SOL    HW227907   2.717   4.767   4.722 -0.6614 -0.5966  0.5278
36639SOL     OW27908   6.876  10.085   9.690 -0.2651 -0.0352 -1.1654
36639SOL    HW127909   6.805  10.025   9.665 -1.1143  0.9896 -1.2858
36639SOL    HW227910   6.885  10.144   9.615 -0.4273  0.8619 -0.5020
36640SOL     OW27911   5.830   6.360  12.139 -0.3326 -0.2014  0.2791
36640SOL    HW127912   5.920   6.334  12.117  0.1197  2.1817 -0.9949
36640SOL    HW227913   5.838   6.400  12.226  0.0691  0.8909 -0.2368
36641SOL     OW27914   0.430   5.873  12.652  0.0437  0.2319  0.4544
36641SOL    HW127915   0.409   5.950  12.600 -0.9505  0.1412  0.6963
36641SOL    HW227916   0.496   5.903  12.715  0.5736  0.5640 -0.2525
36642SOL     OW27917   7.951   2.513   0.972 -0.3564  0.7815 -0.0102
36642SOL    HW127918   8.029   2.558   0.940  0.2156 -0.7323 -0.8618
36642SOL    HW227919   7.958   2.425   0.935 -2.1751  0.4398  0.3809
36643SOL     OW27920   3.225   7.493  10.939  0.0063 -0.0780  0.0203
36643SOL    HW127921   3.283   7.507  10.864 -0.9660  1.1662 -0.5476
36643SOL    HW227922   3.202   7.582  10.968  0.8433 -0.5332  2.2067
36644SOL     OW27923  13.367  12.027   2.579 -0.1802 -0.0924 -0.6603
36644SOL    HW127924  13.443  11.982   2.614  0.5106  0.3875 -1.5133
36644SOL    HW227925  13.312  11.958   2.541 -1.0241 -0.6397  1.4477
36645SOL     OW27926   0.941  13.057   8.518 -0.1744  0.2654 -0.3644
36645SOL    HW127927   0.964  13.099   8.601 -2.2715  1.9345 -0.5301
36645SOL    HW227928   1.017  13.071   8.462  0.3906  1.1161  0.5772
36646SOL     OW27929   2.083  12.029   5.289 -0.5577 -0.5535 -0.5319
36646SOL    HW127930   2.136  12.060   5.215 -1.1703 -0.6798 -1.0431
36646SOL    HW227931   2.040  12.108   5.322 -0.8750 -0.6030 -0.8104
36647SOL     OW27932   3.980   4.921   9.309 -0.4249  0.5987  0.0878
36647SOL    HW127933   4.008   5.003   9.268 -1.3645  1.6851  1.4977
36647SOL    HW227934   3.937   4.872   9.239 -2.0576  2.4166 -0.2681
36648SOL     OW27935  13.040   6.828  12.370  0.3677 -0.0569 -0.3214
36648SOL    HW127936  13.088   6.895  12.419  1.3138 -0.4078 -0.7248
36648SOL    HW227937  12.960   6.814  12.420  1.2169 -0.2710  1.0544
36649SOL     OW27938   1.680   6.489  13.520  0.0640 -0.1947  0.5395
36649SOL    HW127939   1.682   6.585  13.524 -0.3519 -0.1725  0.2869
36649SOL    HW227940   1.680   6.462  13.612 -2.7112  0.1371  0.7347
36650SOL     OW27941   0.749  13.818   8.295 -0.0061 -0.3723  0.1395
36650SOL    HW127942   0.818  13.778   8.241  0.6949  1.0336 -0.0479
36650SOL    HW227943   0.788  13.826   8.382  0.6990  1.8664 -0.3283
36651SOL     OW27944  11.121   9.553   0.604  0.3524  0.2097  0.1094
36651SOL    HW127945  11.213   9.562   0.629 -0.1638  1.3820  1.7517
36651SOL    HW227946  11.078   9.516   0.682 -0.9222  1.6980  0.1595
36652SOL     OW27947   4.170   3.380   5.605  0.6036  0.6681  0.3422
36652SOL    HW127948   4.133   3.467   5.622 -0.7781 -0.0569  1.1668
36652SOL    HW227949   4.097   3.329   5.572  1.4897 -0.1059 -0.4615
36653SOL     OW27950   4.815   0.796  14.077 -0.0046 -0.0081  0.2357
36653SOL    HW127951   4.775   0.712  14.058 -0.7714 -0.0061  1.6940
36653SOL    HW227952   4.760   0.860  14.031  1.4025 -0.3432 -2.0643
36654SOL     OW27953   3.812   4.186  10.757 -0.1855 -0.4100  0.1060
36654SOL    HW127954   3.864   4.260  10.726  0.2070 -0.8847 -0.3780
36654SOL    HW227955   3.768   4.219  10.835  0.2691  0.2253  0.0999
36655SOL     OW27956   2.420  12.578  10.128  0.6645  0.0639 -0.3707
36655SOL    HW127957   2.388  12.664  10.099 -0.0286 -0.1816 -0.3716
36655SOL    HW227958   2.514  12.581  10.113  0.7604  1.0899  0.3082
36656SOL     OW27959   3.726  12.800   7.962  0.1249  0.6305  0.8237
36656SOL    HW127960   3.820  12.787   7.966  0.0535 -0.4614 -0.3848
36656SOL    HW227961   3.714  12.895   7.963  1.3435  0.8255 -0.7170
36657SOL     OW27962   1.641   7.680   6.673 -0.3966  0.3713  0.1818
36657SOL    HW127963   1.564   7.629   6.649 -0.3513  0.0813  0.6505
36657SOL    HW227964   1.619   7.770   6.651 -1.0429  0.3544  0.7480
36658SOL     OW27965   7.316   2.186   3.575  0.1131 -0.0720 -0.0830
36658SOL    HW127966   7.243   2.135   3.541  0.2215 -0.7774  0.7027
36658SOL    HW227967   7.379   2.190   3.503 -0.8011  0.7839 -0.8582
36659SOL     OW27968  13.418  11.655   9.538  0.2366 -0.6724  0.2019
36659SOL    HW127969  13.352  11.596   9.574  0.3324  0.6055  2.6300
36659SOL    HW227970  13.373  11.739   9.528  1.4019  0.1661  1.7230
36660SOL     OW27971   9.132   5.337  14.127  0.6374 -0.3453 -0.5643
36660SOL    HW127972   9.124   5.293  14.211  1.4380  1.9818  0.8383
36660SOL    HW227973   9.120   5.268  14.062 -4.8297 -1.5794  1.2647
36661SOL     OW27974   5.058  12.488  12.044 -0.6905  0.3039  0.0233
36661SOL    HW127975   4.970  12.465  12.072 -0.2043 -1.1696  0.4119
36661SOL    HW227976   5.112  12.481  12.122 -0.1530  0.8480 -0.2837
36662SOL     OW27977   8.296   1.739   7.050 -0.6611  0.0549  0.2683
36662SOL    HW127978   8.229   1.807   7.041 -1.4326 -0.6451  0.5430
36662SOL    HW227979   8.317   1.739   7.144 -1.2614 -0.6187  0.4145
36663SOL     OW27980  11.165  10.130   3.927  0.2507 -0.0029  0.1115
36663SOL    HW127981  11.250  10.103   3.960  0.8706  2.2203  0.5327
36663SOL    HW227982  11.107  10.127   4.004  0.5726  0.7922  0.3993
36664SOL     OW27983   9.829   2.889  13.861 -0.0192 -0.5566 -0.2206
36664SOL    HW127984   9.812   2.808  13.812 -1.3135 -0.4849  0.0752
36664SOL    HW227985   9.882   2.942  13.801  0.9067 -1.6361 -0.3894
36665SOL     OW27986  13.775   2.956   7.593  0.1239  0.1022  0.4804
36665SOL    HW127987  13.859   2.975   7.634 -0.0528 -0.2763  1.0312
36665SOL    HW227988  13.740   3.041   7.568 -0.6168  0.5532  2.8030
36666SOL     OW27989   8.634   2.007  12.932 -0.0710  0.3638 -0.2817
36666SOL    HW127990   8.729   1.998  12.921  0.0449  0.6160  0.4582
36666SOL    HW227991   8.597   1.969  12.852  0.6439  0.0224 -0.4613
36667SOL     OW27992  12.004   0.771   7.788  0.5536  0.0360 -0.2505
36667SOL    HW127993  11.992   0.781   7.882 -0.4211 -0.6969 -0.2725
36667SOL    HW227994  11.933   0.711   7.762 -0.8812  2.2894 -1.8568
36668SOL     OW27995   1.600   9.337   6.017 -0.4771 -0.2361 -0.0122
36668SOL    HW127996   1.536   9.393   5.974  0.1851  1.0627  0.6346
36668SOL    HW227997   1.561   9.314   6.101 -0.9293 -1.1293 -0.4519
36669SOL     OW27998   7.563   2.129   7.702 -0.1605  0.0436 -0.1499
36669SOL    HW127999   7.566   2.138   7.607 -2.4240  1.7863 -0.1534
36669SOL    HW228000   7.542   2.037   7.716  0.2548 -0.2544 -1.3290
36670SOL     OW28001   6.572   8.822   7.881  0.1942  0.4517  0.1073
36670SOL    HW128002   6.562   8.727   7.875 -0.4912  0.4768  0.6951
36670SOL    HW228003   6.489   8.857   7.850 -0.5705  0.7665  2.3389
36671SOL     OW28004   8.050   8.856  14.050  0.3046  0.3258 -0.0791
36671SOL    HW128005   8.141   8.880  14.031  1.0936 -0.3424  2.4859
36671SOL    HW228006   8.056   8.773  14.097 -1.9220 -1.5036 -2.7066
36672SOL     OW28007  13.122   7.666   4.974 -0.0435 -0.9930  0.5595
36672SOL    HW128008  13.054   7.697   4.914  0.4633  1.2854  1.0755
36672SOL    HW228009  13.173   7.604   4.922 -0.5456 -0.2522 -0.8748
36673SOL     OW28010  13.641  13.953  10.161 -0.4057  0.2586  0.0719
36673SOL    HW128011  13.596  13.959  10.077 -0.1326  0.5386 -0.0618
36673SOL    HW228012  13.719  13.899  10.142 -0.4494  0.1542  0.1922
36674SOL     OW28013  10.308   4.813   8.891  0.3592 -0.1823  0.3381
36674SOL    HW128014  10.223   4.779   8.920  0.0532 -2.4801 -2.7034
36674SOL    HW228015  10.372   4.765   8.942 -0.1680 -1.5591 -0.2519
36675SOL     OW28016   4.588   7.423   2.482 -0.8553 -0.0338  0.1784
36675SOL    HW128017   4.619   7.473   2.558 -0.9374  0.6309 -0.2190
36675SOL    HW228018   4.583   7.333   2.513  0.7149 -0.0347  0.4802
36676SOL     OW28019   9.702  10.201   6.787 -0.2251  0.5289  0.2910
36676SOL    HW128020   9.687  10.280   6.839 -1.0453  0.0429  0.8224
36676SOL    HW228021   9.691  10.129   6.849 -2.2475 -0.1232 -0.7239
36677SOL     OW28022   3.701   2.780   0.034 -0.0130 -0.0486  0.1997
36677SOL    HW128023   3.746   2.780  -0.051  1.2750  1.6109  0.8248
36677SOL    HW228024   3.638   2.851   0.028 -1.4044 -1.2481 -0.0428
36678SOL     OW28025   4.034   5.879   0.333 -0.2376 -0.4329  0.2407
36678SOL    HW128026   4.010   5.825   0.257 -1.2699  1.1324 -0.5982
36678SOL    HW228027   4.076   5.818   0.393 -0.2786 -1.9249 -1.1678
36679SOL     OW28028  13.895  14.108   4.297 -0.0977 -0.2701 -0.0105
36679SOL    HW128029  13.910  14.197   4.266  0.6983 -0.4578 -0.1835
36679SOL    HW228030  13.884  14.056   4.217  0.3326 -0.4762  0.0605
36680SOL     OW28031   8.722  11.466   9.088 -0.1326  0.0069  0.7925
36680SOL    HW128032   8.810  11.454   9.124  0.4292 -0.6329 -0.7029
36680SOL    HW228033   8.677  11.520   9.153  1.1619 -0.1620  1.8847
36681SOL     OW28034  10.360  10.529   2.188  0.3870  0.2764  0.3538
36681SOL    HW128035  10.434  10.582   2.218  1.2717 -0.8355  0.2106
36681SOL    HW228036  10.294  10.537   2.257 -1.1449  4.5746 -1.2729
36682SOL     OW28037   2.552   8.396   5.318  0.2926 -0.1359  0.1009
36682SOL    HW128038   2.562   8.398   5.223 -0.0324  0.4503  0.0774
36682SOL    HW228039   2.632   8.354   5.349  0.1367 -0.8808 -0.4655
36683SOL     OW28040  13.079  10.582   9.509  0.2923 -0.0296 -0.7542
36683SOL    HW128041  13.030  10.503   9.484  0.0427  0.4668 -1.9102
36683SOL    HW228042  13.157  10.548   9.553 -0.5274 -0.8674  0.1080
36684SOL     OW28043  13.346   5.071   4.320  0.2008  0.2373 -0.0808
36684SOL    HW128044  13.296   4.993   4.343 -0.2988  0.1487 -1.3738
36684SOL    HW228045  13.279   5.139   4.309  0.5927  0.7343  0.5686
36685SOL     OW28046   5.838  10.799   9.487 -0.5280  0.0896  0.0271
36685SOL    HW128047   5.883  10.769   9.408  1.0830  2.0902  0.0965
36685SOL    HW228048   5.788  10.875   9.459  2.0987  2.4795  1.2383
36686SOL     OW28049   0.149   0.402   0.995 -0.1707  0.3859 -0.0483
36686SOL    HW128050   0.184   0.353   1.069 -2.4319  0.3725  1.0870
36686SOL    HW228051   0.150   0.493   1.025 -1.0093  0.3899 -0.0159
36687SOL     OW28052   9.177   4.275   2.928 -0.2956 -0.0804 -0.5931
36687SOL    HW128053   9.140   4.337   2.865 -1.6034 -0.4022 -0.1718
36687SOL    HW228054   9.174   4.191   2.883 -2.2553 -0.5137  0.2131
36688SOL     OW28055   9.500  13.875  13.011 -0.2368 -0.9042  0.2646
36688SOL    HW128056   9.453  13.889  12.930  0.0377  1.0262  0.3984
36688SOL    HW228057   9.440  13.903  13.080  1.4839  3.1562  0.3595
36689SOL     OW28058  13.434  11.839  10.419  0.5901  0.2449 -0.3109
36689SOL    HW128059  13.518  11.806  10.451  0.1490 -0.9949 -0.3729
36689SOL    HW228060  13.418  11.918  10.471  1.9956  0.7690 -0.6181
36690SOL     OW28061  12.453   1.326   0.542 -0.0898 -0.2560 -0.0823
36690SOL    HW128062  12.400   1.273   0.601  1.8298 -0.6741  1.3372
36690SOL    HW228063  12.544   1.305   0.564  0.7740  3.0718  0.0623
36691SOL     OW28064   1.617  13.769   5.928 -0.2372  0.0411 -0.6085
36691SOL    HW128065   1.542  13.761   5.988  0.1521  3.8180  0.6343
36691SOL    HW228066   1.692  13.742   5.980 -0.3232 -0.4812 -0.7455
36692SOL     OW28067   7.416   4.322   2.819 -1.2597  0.1624 -0.4401
36692SOL    HW128068   7.504   4.358   2.829 -1.2026 -0.4836  1.8745
36692SOL    HW228069   7.412   4.292   2.728  1.7674 -1.9964 -0.0038
36693SOL     OW28070   5.455   6.155  11.193 -0.1626  0.6535  0.1254
36693SOL    HW128071   5.464   6.217  11.121 -0.4168 -1.0726 -1.4544
36693SOL    HW228072   5.538   6.108  11.196 -0.0636  0.8592  1.1343
36694SOL     OW28073   4.356   8.953  14.125  0.2243 -0.2144  0.7236
36694SOL    HW128074   4.347   9.046  14.102  2.3523  0.1621  1.1833
36694SOL    HW228075   4.350   8.907  14.042  0.6051  0.4729  0.3065
36695SOL     OW28076  14.043  10.005   7.871 -0.0493  0.3112  0.0524
36695SOL    HW128077  14.006   9.926   7.911 -2.4035  1.3657  0.1180
36695SOL    HW228078  14.128   9.977   7.837 -0.4227 -2.0148  0.8693
36696SOL     OW28079   1.197  10.585  11.152 -0.0658  0.4497  0.2037
36696SOL    HW128080   1.127  10.616  11.094 -0.9424  1.2431  1.6447
36696SOL    HW228081   1.204  10.491  11.133 -0.5259  0.6296 -0.9661
36697SOL     OW28082   1.887   7.223   5.202  0.2628 -1.2459 -0.2006
36697SOL    HW128083   1.867   7.290   5.267  2.0320  0.9352 -1.7446
36697SOL    HW228084   1.801   7.194   5.171 -0.5721 -0.8476  1.6254
36698SOL     OW28085  12.750  13.159   3.388 -0.1172  0.3827 -0.1475
36698SOL    HW128086  12.752  13.242   3.340 -0.4628  1.2563  1.2784
36698SOL    HW228087  12.824  13.109   3.353 -0.3535  0.9751 -1.5462
36699SOL     OW28088  13.598   7.718   9.084 -0.1541  0.3320  0.3839
36699SOL    HW128089  13.551   7.801   9.080 -0.0758  0.3216 -1.6125
36699SOL    HW228090  13.636   7.716   9.172 -1.3328  1.7375  0.9582
36700SOL     OW28091   4.460   9.152   8.380  0.0556 -0.0002 -0.2027
36700SOL    HW128092   4.545   9.195   8.385 -0.7259  1.6864 -0.5824
36700SOL    HW228093   4.397   9.224   8.380 -1.2719 -1.0460 -2.5771
36701SOL     OW28094  12.007   4.083  11.246 -0.3253 -0.8314 -0.0771
36701SOL    HW128095  11.961   4.163  11.272 -0.1289 -0.5939 -0.4530
36701SOL    HW228096  12.019   4.035  11.328 -0.7869 -0.6598  0.0977
36702SOL     OW28097   1.992   0.173   0.940  0.5859 -0.0848 -0.3228
36702SOL    HW128098   1.969   0.197   1.030 -1.1347 -0.0529 -0.7391
36702SOL    HW228099   1.941   0.095   0.922 -0.2919  0.7729 -1.7611
36703SOL     OW28100   4.717   4.787   1.420 -0.3195 -0.5428  0.0749
36703SOL    HW128101   4.726   4.722   1.351  1.1917 -1.1015  0.7493
36703SOL    HW228102   4.714   4.871   1.373  1.0539 -0.8846 -0.6912
36704SOL     OW28103  13.656  12.264   6.036  0.3631  0.4383 -0.7626
36704SOL    HW128104  13.725  12.241   6.098 -1.2193  0.7846  1.2449
36704SOL    HW228105  13.610  12.181   6.019 -0.6820  0.7041  0.5203
36705SOL     OW28106   3.341   2.904   1.485  0.2650  0.4837  0.6167
36705SOL    HW128107   3.402   2.971   1.454 -0.0633  0.5752  0.1541
36705SOL    HW228108   3.274   2.899   1.417 -0.5616  0.8128  1.3788
36706SOL     OW28109   1.210   4.533   6.852  0.6600 -0.4757 -0.1666
36706SOL    HW128110   1.286   4.587   6.830  0.1081  1.8217  2.8799
36706SOL    HW228111   1.180   4.497   6.768  2.1347  2.5780 -2.1554
36707SOL     OW28112   8.829   4.994   4.402 -1.2213  0.2144  0.1523
36707SOL    HW128113   8.855   4.911   4.442 -0.2362  0.8500  0.8511
36707SOL    HW228114   8.889   5.058   4.438  0.3838  0.7120 -3.0200
36708SOL     OW28115   1.564   4.071   1.140 -0.5892 -0.0288  0.2587
36708SOL    HW128116   1.523   3.996   1.096 -1.9508  2.3143 -2.7945
36708SOL    HW228117   1.493   4.112   1.189 -0.6541  0.9637 -0.6267
36709SOL     OW28118  11.356   3.079   2.697  0.0526  0.1990 -0.6440
36709SOL    HW128119  11.282   3.022   2.716 -1.1539  2.2586  1.3252
36709SOL    HW228120  11.326   3.136   2.626  0.1601  0.2726 -0.6316
36710SOL     OW28121  10.521   3.551   9.610  0.2970  0.2601 -0.3528
36710SOL    HW128122  10.560   3.522   9.528  1.5461  2.0615 -0.4412
36710SOL    HW228123  10.513   3.646   9.602  0.7849  0.5424  1.7323
36711SOL     OW28124  10.060   7.763   1.054  0.0768  0.3228 -0.2026
36711SOL    HW128125  10.014   7.683   1.078  1.1700 -0.2086  0.2070
36711SOL    HW228126  10.149   7.750   1.087  1.3439  0.0892 -3.2975
36712SOL     OW28127   2.387   2.530   3.144  0.4881 -0.1017 -0.1984
36712SOL    HW128128   2.373   2.598   3.210  1.2343  1.0504 -1.1681
36712SOL    HW228129   2.447   2.468   3.185  1.3628  0.8684  0.0554
36713SOL     OW28130   0.679   4.002   0.567 -0.7500  0.0256 -0.2114
36713SOL    HW128131   0.667   4.010   0.662  1.1275 -0.6943  0.1223
36713SOL    HW228132   0.686   3.908   0.551 -2.0582  0.0686 -1.2381
36714SOL     OW28133   3.363  11.814   7.351  0.5271  0.3310 -0.2224
36714SOL    HW128134   3.296  11.756   7.390  1.7063 -0.2021  1.0870
36714SOL    HW228135   3.333  11.902   7.371  0.8617  0.0726  1.5426
36715SOL     OW28136   9.473   2.126   8.225 -0.0913  0.0062 -0.2392
36715SOL    HW128137   9.537   2.056   8.237  0.4566  0.6074  0.4082
36715SOL    HW228138   9.388   2.084   8.241  0.3833  0.0719  3.2157
36716SOL     OW28139   2.810   2.909   0.839 -0.4050  0.2347  0.1763
36716SOL    HW128140   2.744   2.916   0.908 -1.0864  0.4233 -0.4850
36716SOL    HW228141   2.872   2.980   0.858 -0.3157 -0.0231  0.8720
36717SOL     OW28142   6.144   6.830  13.349  0.6677 -0.0942 -0.6350
36717SOL    HW128143   6.204   6.777  13.402 -2.1366 -0.8555  2.0709
36717SOL    HW228144   6.101   6.767  13.292 -0.7822 -0.3753  0.7169
36718SOL     OW28145  13.893  13.866  12.214  0.3970  0.1537  0.0461
36718SOL    HW128146  13.928  13.781  12.186 -0.0782 -0.6242  1.6729
36718SOL    HW228147  13.929  13.929  12.151  1.1000 -1.1910 -0.9493
36719SOL     OW28148  12.975   0.895   3.272 -0.3232 -0.1559 -0.3848
36719SOL    HW128149  12.995   0.823   3.213  0.6025 -1.5353  1.5104
36719SOL    HW228150  13.040   0.889   3.342 -2.3031  0.3714  1.6493
36720SOL     OW28151   9.035   4.388  13.405  0.1748 -0.2021 -0.4515
36720SOL    HW128152   9.052   4.412  13.314 -0.3695 -0.6234 -0.6725
36720SOL    HW228153   8.961   4.327  13.400  1.3209 -1.6869  0.1190
36721SOL     OW28154   9.789   5.631  11.771 -0.2288 -0.1155 -0.2038
36721SOL    HW128155   9.771   5.610  11.862  0.1702 -1.0220 -0.3270
36721SOL    HW228156   9.763   5.723  11.762  0.1627  0.1185  0.9277
36722SOL     OW28157   9.867   4.568   3.174 -0.8473 -0.0704  0.1255
36722SOL    HW128158   9.862   4.492   3.115 -0.1997 -0.7750  0.9361
36722SOL    HW228159   9.952   4.608   3.154 -1.5074  0.8984 -0.8137
36723SOL     OW28160   5.584   5.115  10.701 -0.1311  0.3813 -0.2389
36723SOL    HW128161   5.551   5.034  10.740  2.1965 -0.2778  0.5144
36723SOL    HW228162   5.564   5.182  10.766  1.8535 -0.3724  1.2401
36724SOL     OW28163   4.534   5.549   6.141 -0.3046  0.1654 -0.6280
36724SOL    HW128164   4.542   5.643   6.157  0.3319 -0.1380  1.0357
36724SOL    HW228165   4.510   5.512   6.226  0.4735 -1.3002 -1.0032
36725SOL     OW28166   6.748   8.839   8.562  0.3310  0.3157  0.4070
36725SOL    HW128167   6.763   8.862   8.470 -2.6319 -1.4070 -0.6611
36725SOL    HW228168   6.764   8.745   8.566 -0.5756  0.1821  1.3874
36726SOL     OW28169   6.363   1.223   4.784  0.4810 -0.3505  0.8632
36726SOL    HW128170   6.335   1.244   4.874  0.8493 -0.9959  1.1317
36726SOL    HW228171   6.458   1.233   4.786  0.6632 -1.9037  0.9729
36727SOL     OW28172  10.713   1.280  10.719 -0.4268 -0.0129  0.2915
36727SOL    HW128173  10.808   1.283  10.733 -0.2114 -1.6543 -0.6443
36727SOL    HW228174  10.683   1.210  10.776 -1.2335  1.0464  1.2086
36728SOL     OW28175  12.489   3.170   1.106 -0.1953  0.0151 -0.0096
36728SOL    HW128176  12.457   3.236   1.168 -0.9242 -0.3705  0.0411
36728SOL    HW228177  12.512   3.095   1.161 -1.6693 -0.6519 -0.2510
36729SOL     OW28178   5.300   2.868  13.174 -0.1339  0.4004 -0.3089
36729SOL    HW128179   5.382   2.902  13.208 -1.0193  0.4917  1.8694
36729SOL    HW228180   5.270   2.934  13.112  0.0231  1.7955  1.0531
36730SOL     OW28181  10.727   8.075   2.567  0.4267  0.0137  0.0388
36730SOL    HW128182  10.708   8.113   2.652 -1.2876 -0.5331 -0.0683
36730SOL    HW228183  10.766   7.990   2.586  0.4885  0.0962  0.2813
36731SOL     OW28184  12.439  12.625   9.233  0.2372  0.2909 -0.2921
36731SOL    HW128185  12.525  12.600   9.265 -0.0057 -0.6733 -0.3596
36731SOL    HW228186  12.389  12.645   9.313 -0.0469 -1.0628 -0.1055
36732SOL     OW28187   7.315   9.866  10.979  0.4567 -0.5674 -0.0497
36732SOL    HW128188   7.349   9.791  10.930  0.4103 -1.1163  0.7435
36732SOL    HW228189   7.228   9.838  11.008  0.4818 -0.2412  0.3454
36733SOL     OW28190   1.239  12.531   5.933 -0.2900  0.1833  0.3116
36733SOL    HW128191   1.197  12.598   5.987 -1.3721 -1.1279  1.1685
36733SOL    HW228192   1.274  12.468   5.996 -0.2894 -0.6294 -0.4819
36734SOL     OW28193   2.822  12.771   1.954 -0.1215  0.0534 -0.1950
36734SOL    HW128194   2.728  12.759   1.946  0.1697 -2.1192 -1.0483
36734SOL    HW228195   2.832  12.854   2.001 -2.4475  0.0563  0.4026
36735SOL     OW28196   9.119   0.340  10.456  0.1384 -0.1697  0.8108
36735SOL    HW128197   9.024   0.327  10.455  0.0220  0.5368 -0.5860
36735SOL    HW228198   9.131   0.431  10.431  1.2202 -0.6507 -0.5804
36736SOL     OW28199   9.143   7.412  12.176  0.0025  0.4351 -0.0142
36736SOL    HW128200   9.076   7.420  12.244  0.8510  0.0229  0.9009
36736SOL    HW228201   9.100   7.442  12.096 -0.8288  1.5560  0.8175
36737SOL     OW28202   3.765   1.709   6.703 -0.3344  0.1812  0.1432
36737SOL    HW128203   3.765   1.799   6.669  0.7028  0.7221  1.4632
36737SOL    HW228204   3.772   1.654   6.625  1.8104  1.3533 -0.5617
36738SOL     OW28205   6.513   4.251   4.714 -0.6344  0.2894 -0.8607
36738SOL    HW128206   6.434   4.278   4.760 -0.6549  1.2673 -1.4449
36738SOL    HW228207   6.513   4.155   4.721 -1.6800  0.2977 -0.5651
36739SOL     OW28208  12.359  14.148  13.640 -0.8115 -0.0674 -0.2125
36739SOL    HW128209  12.425  14.159  13.709 -0.5627 -1.9507 -0.1116
36739SOL    HW228210  12.292  14.093  13.680 -1.6064  0.3887 -0.8890
36740SOL     OW28211  13.967   8.418  10.228  0.7307 -0.1384  0.4698
36740SOL    HW128212  13.944   8.354  10.160  1.1657  0.1775  0.0182
36740SOL    HW228213  14.037   8.469  10.189  0.9653  0.0670  1.1546
36741SOL     OW28214   2.581   0.299   1.946  0.2543 -0.0859  0.1774
36741SOL    HW128215   2.602   0.392   1.947  3.6803 -0.7093 -0.1600
36741SOL    HW228216   2.579   0.276   1.853 -0.2176 -0.4085  0.2671
36742SOL     OW28217   2.221   8.647  11.419 -0.6344 -0.9336 -0.5018
36742SOL    HW128218   2.162   8.722  11.435 -0.9849 -1.6446  2.0101
36742SOL    HW228219   2.179   8.599  11.348 -1.5849  0.1054 -0.6786
36743SOL     OW28220   3.960   2.204   2.742  0.2324  0.1662  0.1541
36743SOL    HW128221   3.868   2.230   2.742  0.5639  1.3750 -0.2516
36743SOL    HW228222   3.960   2.117   2.700 -0.6372  0.4608 -0.4850
36744SOL     OW28223   5.779  10.331  12.434 -0.7453 -1.1423  0.0614
36744SOL    HW128224   5.863  10.310  12.474 -0.7402  0.2552  0.8537
36744SOL    HW228225   5.714  10.293  12.493 -0.6879 -1.4120 -0.0487
36745SOL     OW28226  11.671   8.732   2.221 -0.2688  0.1358  0.2882
36745SOL    HW128227  11.607   8.669   2.255 -0.1190  0.1498  0.5971
36745SOL    HW228228  11.751   8.713   2.270 -0.7151  1.8231  1.7710
36746SOL     OW28229  11.397   2.408   8.701 -0.2574 -0.1689  0.2611
36746SOL    HW128230  11.474   2.462   8.687 -0.1521 -0.7279 -1.6465
36746SOL    HW228231  11.328   2.451   8.650  0.4007 -2.9244 -3.4162
36747SOL     OW28232   5.416  10.661  13.685 -0.0255  0.0520  0.3275
36747SOL    HW128233   5.362  10.671  13.607 -2.6795  0.6806  2.0924
36747SOL    HW228234   5.396  10.572  13.716 -0.5331  0.4801  1.2841
36748SOL     OW28235  10.352  13.507   8.637  0.0051 -0.5736 -1.1176
36748SOL    HW128236  10.270  13.509   8.686  1.0429  1.4783  0.7066
36748SOL    HW228237  10.404  13.439   8.681  0.6363  0.7135  0.1965
36749SOL     OW28238  13.382   7.792   1.051 -0.0784  0.1695 -0.1036
36749SOL    HW128239  13.433   7.740   1.113 -0.7297  1.0693  1.2521
36749SOL    HW228240  13.346   7.728   0.989 -0.1127 -0.8843  0.9697
36750SOL     OW28241   6.747  13.933   8.538  0.3749  0.6751 -0.2775
36750SOL    HW128242   6.801  14.001   8.497  1.3117 -0.0061 -0.1915
36750SOL    HW228243   6.663  13.939   8.492  1.6046 -0.5532 -2.8656
36751SOL     OW28244   7.168   8.110   9.105  0.8563 -0.3957  0.4392
36751SOL    HW128245   7.179   8.091   9.012 -0.7149 -0.0477  0.1450
36751SOL    HW228246   7.103   8.181   9.107  0.6466 -0.6056  1.8084
36752SOL     OW28247  11.322   2.232   8.912  0.0023  0.2293  0.5719
36752SOL    HW128248  11.326   2.319   8.951  2.7458 -0.1042  1.2510
36752SOL    HW228249  11.360   2.243   8.825  1.4726 -0.4689  1.1048
36753SOL     OW28250   3.446  12.152   4.111  0.3143  0.5342  0.6077
36753SOL    HW128251   3.408  12.209   4.178  0.2868 -0.3152  1.3292
36753SOL    HW228252   3.439  12.203   4.030 -2.1118  0.5198  0.7546
36754SOL     OW28253   9.967  14.053  13.844 -0.4673 -0.0630  0.3481
36754SOL    HW128254  10.031  14.073  13.913 -1.1736  0.4199  0.8749
36754SOL    HW228255   9.925  14.136  13.824 -0.1697 -0.1695 -0.7946
36755SOL     OW28256  10.061   1.636   4.404  0.2926 -0.3252  0.2001
36755SOL    HW128257  10.095   1.712   4.451 -1.2368  0.6546 -0.2130
36755SOL    HW228258  10.084   1.561   4.459  0.4058  0.5837  1.4243
36756SOL     OW28259  10.010  12.353   2.670  0.1120 -0.3814 -0.4149
36756SOL    HW128260   9.921  12.375   2.698  0.5734  0.8089  0.1675
36756SOL    HW228261  10.060  12.345   2.751  0.8676  0.4205 -0.7868
36757SOL     OW28262   5.285   8.889  12.602  0.3070 -0.3056  0.3259
36757SOL    HW128263   5.301   8.908  12.510  0.8318  0.5192  0.5681
36757SOL    HW228264   5.325   8.963  12.649 -0.5837 -0.3371  1.1789
36758SOL     OW28265  11.549  11.682   4.267 -0.4509  0.0495  0.0309
36758SOL    HW128266  11.578  11.591   4.269  0.1123  0.2064  2.8356
36758SOL    HW228267  11.454  11.678   4.258 -0.4644 -0.8343  0.5252
36759SOL     OW28268  12.975   2.984  11.149 -0.3244  0.2922  0.1270
36759SOL    HW128269  13.013   3.004  11.063 -0.8502 -0.4537 -0.3003
36759SOL    HW228270  13.022   3.039  11.210  0.1049  0.7951 -0.6429
36760SOL     OW28271   1.973   4.292   8.353 -0.1253  0.3304  0.4280
36760SOL    HW128272   1.991   4.346   8.276 -1.7451  1.3836  0.7388
36760SOL    HW228273   1.878   4.277   8.350  0.0194 -0.9372  1.3815
36761SOL     OW28274   9.198  10.036  10.916  0.5443  0.7421  0.8968
36761SOL    HW128275   9.279  10.079  10.887 -0.9214  3.9849  1.2109
36761SOL    HW228276   9.175  10.081  10.997 -1.6908  0.1131  0.6741
36762SOL     OW28277  11.178   2.142   4.604  0.1288 -0.2758 -0.3833
36762SOL    HW128278  11.216   2.186   4.528  1.5865 -1.2789 -0.2732
36762SOL    HW228279  11.133   2.066   4.567  0.3032 -0.4222 -0.2930
36763SOL     OW28280  10.768   0.839  12.356 -0.6446  0.8292 -0.1239
36763SOL    HW128281  10.775   0.932  12.379 -2.3274  1.1916 -0.9214
36763SOL    HW228282  10.676   0.827  12.331  0.0564 -0.5142 -2.3232
36764SOL     OW28283   9.541   9.955  11.131  0.2257 -0.6266  0.3473
36764SOL    HW128284   9.537  10.030  11.191  2.8840 -0.5871  0.6341
36764SOL    HW228285   9.493   9.983  11.054  1.3428  1.5491  0.3496
36765SOL     OW28286  12.640  12.420   9.919  0.5836 -0.3188  0.2843
36765SOL    HW128287  12.545  12.410   9.913  0.7844 -1.9116 -0.5536
36765SOL    HW228288  12.666  12.453   9.833  0.8573 -0.3783  0.3439
36766SOL     OW28289   3.965  10.089   5.916 -0.0518  0.3266 -0.0144
36766SOL    HW128290   3.901  10.053   5.854  0.5283 -0.6479 -0.0584
36766SOL    HW228291   3.945  10.183   5.918 -0.8108  0.2005 -0.8117
36767SOL     OW28292   5.015   9.080  14.053  0.8269  0.4546  0.0318
36767SOL    HW128293   5.109   9.063  14.049  0.5468 -1.1754 -0.6837
36767SOL    HW228294   4.997   9.134  13.977  1.3694  1.9403  0.9274
36768SOL     OW28295  12.713   4.601   7.214  0.2339 -0.1204 -0.0594
36768SOL    HW128296  12.636   4.654   7.233  0.9062  0.2799  1.7372
36768SOL    HW228297  12.707   4.526   7.273  1.5972  0.3332  0.7094
36769SOL     OW28298   7.660  10.943   6.013 -0.4745 -0.1987 -0.9212
36769SOL    HW128299   7.704  11.020   6.050  1.1775 -1.9570  0.9997
36769SOL    HW228300   7.568  10.953   6.040 -0.0509  0.5388  0.3553
36770SOL     OW28301   7.588   8.926   9.032 -0.6205  0.1552 -0.1698
36770SOL    HW128302   7.664   8.925   8.973 -0.8737  1.4279 -0.5589
36770SOL    HW228303   7.625   8.917   9.119 -0.1914 -1.1785 -0.4638
36771SOL     OW28304   2.959   0.865   7.758 -0.3709 -0.0733 -0.4471
36771SOL    HW128305   2.960   0.863   7.854 -1.1470 -1.1321 -0.4416
36771SOL    HW228306   3.011   0.790   7.731 -0.3211  0.1033 -0.8549
36772SOL     OW28307  13.988   8.104  12.672  0.0777  0.3152  0.1262
36772SOL    HW128308  14.039   8.173  12.630 -1.4860  0.5508 -1.4756
36772SOL    HW228309  13.987   8.033  12.609 -0.9176  0.0188  0.4574
36773SOL     OW28310   6.309  12.359   8.498 -0.3197 -0.0514 -0.1642
36773SOL    HW128311   6.260  12.296   8.446  1.1226 -0.9893 -0.4436
36773SOL    HW228312   6.396  12.361   8.459  0.4241  0.1849  1.4081
36774SOL     OW28313   1.899   0.941   1.630  0.2864 -0.2976  0.2924
36774SOL    HW128314   1.970   0.889   1.667  0.3421  0.8119  1.8461
36774SOL    HW228315   1.943   1.013   1.586  0.1525  0.1020  0.8014
36775SOL     OW28316   2.968  10.585  12.597  0.5104 -0.0073 -0.3679
36775SOL    HW128317   2.998  10.544  12.515  0.9811 -1.0669  0.3028
36775SOL    HW228318   2.903  10.524  12.631  0.7786  0.0994  0.3503
36776SOL     OW28319  13.793   4.725   7.584 -0.2409 -0.0100  0.2710
36776SOL    HW128320  13.781   4.669   7.507 -2.8307 -1.0274  1.2789
36776SOL    HW228321  13.718   4.785   7.582  1.8502  2.7441 -0.1365
36777SOL     OW28322   9.962   0.012   6.160 -0.5826  0.2484 -0.1663
36777SOL    HW128323   9.991  -0.076   6.186  2.6334  0.9644 -0.9049
36777SOL    HW228324   9.972   0.065   6.238  0.4580  0.5633 -0.5015
36778SOL     OW28325   9.869   7.668   3.799 -0.1388 -0.1891 -0.5056
36778SOL    HW128326   9.902   7.581   3.774  3.1252  1.1191 -1.2674
36778SOL    HW228327   9.881   7.722   3.721 -1.8959  1.0448  0.0160
36779SOL     OW28328   0.523  12.214   6.241  0.0020  0.9234  0.0561
36779SOL    HW128329   0.568  12.288   6.200 -2.6321  1.9141 -1.2341
36779SOL    HW228330   0.482  12.167   6.168  1.3974 -1.7891  0.8492
36780SOL     OW28331   5.310  10.239  11.549 -0.2341 -0.3144  0.6483
36780SOL    HW128332   5.396  10.232  11.591 -0.1093  1.2177  0.6967
36780SOL    HW228333   5.270  10.317  11.588 -1.1733 -0.3382 -0.2191
36781SOL     OW28334   3.888   8.814  12.716 -0.3708 -0.0395 -0.1885
36781SOL    HW128335   3.835   8.877  12.668  2.3492  1.8511 -0.9746
36781SOL    HW228336   3.895   8.739  12.657 -0.1102  0.7469 -1.1939
36782SOL     OW28337   7.159  11.033   7.953  0.2590 -0.0017  0.4502
36782SOL    HW128338   7.192  10.997   7.871  1.4756  2.4794 -0.2548
36782SOL    HW228339   7.231  11.019   8.015  0.2773  0.1781  0.4705
36783SOL     OW28340   0.518   9.617   9.673 -0.2830 -0.1418 -0.2623
36783SOL    HW128341   0.510   9.645   9.764 -0.4795 -1.2814  0.0893
36783SOL    HW228342   0.456   9.545   9.664 -2.8625  2.1086 -2.2622
36784SOL     OW28343  12.450  11.189   1.301  0.4537  0.5121 -0.5631
36784SOL    HW128344  12.369  11.217   1.258 -0.1103  2.6618  1.6472
36784SOL    HW228345  12.442  11.094   1.309 -2.8793  0.8126  1.3932
36785SOL     OW28346  13.027   1.018   1.598  0.1475 -0.3930  0.4315
36785SOL    HW128347  13.020   1.094   1.655 -0.0488  0.3859 -0.5841
36785SOL    HW228348  13.118   0.990   1.606 -0.0809 -0.8117  1.7319
36786SOL     OW28349   6.233  13.052   5.052 -0.2093  0.0172  0.1575
36786SOL    HW128350   6.243  13.097   4.968  1.4828 -0.1799  0.2202
36786SOL    HW228351   6.155  13.091   5.091 -0.1030  1.2476 -0.8046
36787SOL     OW28352  11.905   8.313   5.949  0.3257  0.5013 -0.2310
36787SOL    HW128353  11.995   8.346   5.949 -0.1357  1.8138 -1.1216
36787SOL    HW228354  11.903   8.251   6.022  2.1372 -0.0942 -0.6273
36788SOL     OW28355   4.525  10.266  10.542 -0.1400  0.5198  0.0601
36788SOL    HW128356   4.614  10.230  10.553 -0.2642 -0.7502 -2.4054
36788SOL    HW228357   4.537  10.361  10.540  0.8723  0.4654  1.6998
36789SOL     OW28358   1.573   1.779   2.446  0.4873  0.3232  0.1028
36789SOL    HW128359   1.525   1.802   2.366  1.8375  0.6736 -0.6466
36789SOL    HW228360   1.630   1.707   2.419  0.2273 -0.2330  1.0235
36790SOL     OW28361   9.471   2.339   8.419 -0.2426 -0.3477 -0.3116
36790SOL    HW128362   9.402   2.399   8.388 -1.4398 -0.9153  1.1306
36790SOL    HW228363   9.462   2.261   8.364  1.2980  0.7048 -2.1738
36791SOL     OW28364  13.037  10.673   1.823  0.6611  0.2412  0.1754
36791SOL    HW128365  12.953  10.666   1.869  1.3354  2.0017  1.8237
36791SOL    HW228366  13.065  10.582   1.811 -0.8836 -0.3512  0.7055
36792SOL     OW28367  10.331  13.780   6.438  0.0056 -0.1099  0.1825
36792SOL    HW128368  10.289  13.714   6.382 -1.3994 -0.3962  1.5161
36792SOL    HW228369  10.263  13.806   6.499  0.9441  1.6200  0.5492
36793SOL     OW28370  11.924  11.650   8.088 -0.2720 -0.0573 -0.1070
36793SOL    HW128371  11.997  11.702   8.053 -1.2900  0.2908 -1.8102
36793SOL    HW228372  11.885  11.706   8.155  0.4393  0.1453  0.1485
36794SOL     OW28373   0.108   9.731  11.143 -0.1677  0.4964  0.5363
36794SOL    HW128374   0.068   9.648  11.115  0.4355  0.5626 -0.6188
36794SOL    HW228375   0.034   9.791  11.152 -0.4329  0.3914 -0.7208
36795SOL     OW28376  11.802   8.607   5.820 -0.6193 -0.3717 -0.1844
36795SOL    HW128377  11.805   8.538   5.753 -0.9126  0.6015 -1.2227
36795SOL    HW228378  11.889   8.646   5.818 -0.6750 -0.2429 -0.0969
36796SOL     OW28379   7.553   7.572   4.159 -0.3478 -0.2977 -0.2627
36796SOL    HW128380   7.613   7.639   4.193  0.0601 -0.5210 -0.5406
36796SOL    HW228381   7.512   7.535   4.237 -0.6398  0.3283 -0.1059
36797SOL     OW28382   1.267  13.599  13.072 -0.0576  0.5283  0.0886
36797SOL    HW128383   1.231  13.688  13.070  1.3095  1.1070 -2.1004
36797SOL    HW228384   1.359  13.611  13.096  0.8878  0.1221 -2.8816
36798SOL     OW28385   8.129  12.845  13.307 -0.6318 -0.1903  0.3145
36798SOL    HW128386   8.113  12.892  13.389 -0.6325 -1.9822  1.3963
36798SOL    HW228387   8.086  12.760  13.319  0.5892 -1.0458 -0.9669
36799SOL     OW28388  12.372   8.220   5.766  0.3804 -0.0292  0.1651
36799SOL    HW128389  12.409   8.184   5.846 -0.7392 -0.5140  0.4861
36799SOL    HW228390  12.433   8.195   5.697  1.2858  0.2811  0.8362
36800SOL     OW28391   2.394   7.267   0.225 -0.2970 -0.4069 -0.7967
36800SOL    HW128392   2.452   7.233   0.157  0.2768  1.7704 -1.4886
36800SOL    HW228393   2.308   7.273   0.183 -0.3667 -0.8489 -0.7181
36801SOL     OW28394   2.922   7.624  12.214  0.8632  0.2838 -0.6005
36801SOL    HW128395   2.901   7.578  12.295  1.1163 -0.8316 -1.1524
36801SOL    HW228396   2.880   7.710  12.224 -0.1883 -0.2982  0.1689
36802SOL     OW28397  13.900   3.729   0.352  0.4988  0.1588 -0.0908
36802SOL    HW128398  13.872   3.818   0.334 -0.1587  0.0617  0.4173
36802SOL    HW228399  13.847   3.674   0.293  0.3287  0.0475  0.1641
36803SOL     OW28400   9.054   5.719   4.199  0.1728  0.4128  0.0270
36803SOL    HW128401   9.091   5.797   4.156 -0.0519 -0.5888 -2.1217
36803SOL    HW228402   9.100   5.645   4.157 -0.5036 -0.6645  1.1260
36804SOL     OW28403   3.361   6.541  10.474  0.3611  0.0543  0.5437
36804SOL    HW128404   3.271   6.527  10.446  0.3957 -0.5039  0.6900
36804SOL    HW228405   3.361   6.628  10.513 -0.4483 -0.4999  1.8598
36805SOL     OW28406   2.358   3.975   8.253  0.0706  0.0019  0.0452
36805SOL    HW128407   2.410   4.045   8.214  0.1879  0.6770  1.3395
36805SOL    HW228408   2.273   4.014   8.271 -0.9292 -1.0846 -2.0003
36806SOL     OW28409   1.995   9.746   8.871  0.2539 -0.1408 -0.0521
36806SOL    HW128410   2.066   9.762   8.934 -0.0800 -0.6825  0.4836
36806SOL    HW228411   1.982   9.651   8.875  1.0673 -0.3734 -1.8793
36807SOL     OW28412  12.845   6.349   5.948  0.1232  0.7368 -0.1985
36807SOL    HW128413  12.919   6.357   5.887  1.3801 -0.5054  1.0677
36807SOL    HW228414  12.841   6.255   5.968 -1.4909  0.8577  0.1570
36808SOL     OW28415   1.812  12.803   4.837  0.3621  0.4196 -0.2067
36808SOL    HW128416   1.889  12.841   4.880 -0.9492 -0.1019  2.9003
36808SOL    HW228417   1.843  12.721   4.800  1.1066 -0.5938  2.4062
36809SOL     OW28418   0.108   8.204   9.999 -0.6909  0.5487 -0.6931
36809SOL    HW128419   0.088   8.174   9.910 -0.5694  0.0843 -0.5691
36809SOL    HW228420   0.187   8.155  10.023 -1.8312 -0.8502  0.4164
36810SOL     OW28421  13.390   9.716  13.037  0.4500  0.1295  0.6061
36810SOL    HW128422  13.441   9.652  12.988 -0.5444  0.2126 -0.5595
36810SOL    HW228423  13.331   9.664  13.091  0.5512  0.0624  0.6534
36811SOL     OW28424   9.510  13.015   6.205 -0.6300  0.5263  0.4693
36811SOL    HW128425   9.483  12.933   6.247 -0.9446  1.2452  1.7371
36811SOL    HW228426   9.453  13.081   6.244 -1.6118  1.1288 -1.8609
36812SOL     OW28427   3.555  10.740   5.335 -0.3593  0.1337  0.0130
36812SOL    HW128428   3.592  10.764   5.420  0.4643  0.6543 -0.4744
36812SOL    HW228429   3.545  10.824   5.290 -0.2379 -0.1938 -0.6236
36813SOL     OW28430   1.016  10.206   8.254  0.3603 -0.4423 -0.3350
36813SOL    HW128431   1.021  10.140   8.185 -2.3980  0.8445 -1.9961
36813SOL    HW228432   0.941  10.261   8.228  0.8818  1.7451  2.3122
36814SOL     OW28433  12.959   6.063  14.068 -0.6020 -0.3887  0.2116
36814SOL    HW128434  12.953   6.139  14.010  2.6568 -1.7954 -2.3250
36814SOL    HW228435  13.014   6.092  14.141 -0.9676  0.1918  0.2558
36815SOL     OW28436  12.118   0.472   4.832  0.0903 -0.1327 -0.6786
36815SOL    HW128437  12.207   0.486   4.799  1.0728 -2.3625  0.7294
36815SOL    HW228438  12.127   0.483   4.927 -0.7914 -1.7943 -0.3791
36816SOL     OW28439  12.614   1.813   7.509 -0.0207 -0.1975 -0.0774
36816SOL    HW128440  12.594   1.740   7.567 -2.2547  0.4484  0.0566
36816SOL    HW228441  12.673   1.777   7.443 -0.7219 -1.9921  0.2406
36817SOL     OW28442   3.922   3.554   1.182 -0.0254  0.0732  0.3244
36817SOL    HW128443   3.955   3.489   1.119  0.3263  0.8919 -0.3586
36817SOL    HW228444   4.000   3.585   1.228 -0.2403 -0.2631  0.9214
36818SOL     OW28445   9.472   0.442   1.223  0.0759 -0.1876 -0.0368
36818SOL    HW128446   9.565   0.420   1.232  0.2587  1.2782  2.6559
36818SOL    HW228447   9.426   0.362   1.248  0.6154 -0.4500  0.1295
36819SOL     OW28448   6.876   7.297  13.197 -0.0321 -0.3352 -0.1243
36819SOL    HW128449   6.900   7.372  13.251 -2.0948  0.4999 -0.2758
36819SOL    HW228450   6.913   7.316  13.111  1.0834 -0.4331  0.3278
36820SOL     OW28451   7.730   8.539   9.830 -0.2298 -0.1088  0.2265
36820SOL    HW128452   7.638   8.519   9.816  0.1008 -1.7690  0.2023
36820SOL    HW228453   7.746   8.521   9.922 -0.3705  2.2447  0.7776
36821SOL     OW28454   5.959  11.884   3.681  0.4031 -0.5968 -0.4894
36821SOL    HW128455   5.870  11.907   3.656 -0.1623  0.2920  2.0809
36821SOL    HW228456   6.014  11.947   3.634 -0.6511  1.5351  0.9498
36822SOL     OW28457   8.609   4.736   3.131 -0.0497 -0.7224  0.5146
36822SOL    HW128458   8.694   4.748   3.088 -1.1561 -0.9525 -1.9119
36822SOL    HW228459   8.622   4.662   3.190  1.6860 -0.0590  1.0624
36823SOL     OW28460   5.251   0.962   3.380 -0.1625  0.1147 -0.6630
36823SOL    HW128461   5.274   0.918   3.461  0.1638  1.0148 -0.2493
36823SOL    HW228462   5.322   0.941   3.320  0.3444  0.6161 -0.2543
36824SOL     OW28463  11.219  12.750   6.003 -0.2217  0.0654  0.0675
36824SOL    HW128464  11.190  12.662   5.980  1.7058 -0.9200  1.1125
36824SOL    HW228465  11.151  12.808   5.968 -1.0397 -1.7485 -1.5279
36825SOL     OW28466  13.042   2.169   9.389 -0.2205 -0.0553  0.5072
36825SOL    HW128467  13.034   2.115   9.311  0.0552 -0.9245  1.0677
36825SOL    HW228468  12.952   2.190   9.413 -0.3745 -0.9096  0.7151
36826SOL     OW28469   1.315   2.257  11.424  0.0067 -0.1100  0.2126
36826SOL    HW128470   1.356   2.326  11.477 -0.9290 -1.3460  2.7279
36826SOL    HW228471   1.333   2.176  11.472  0.6267 -1.6186 -2.3797
36827SOL     OW28472   1.315  12.918  13.620  0.3243  0.0185  0.7900
36827SOL    HW128473   1.243  12.889  13.676  0.3659 -1.1514  0.2646
36827SOL    HW228474   1.271  12.962  13.547  0.1626 -0.2161  0.7438
36828SOL     OW28475   6.918   7.751   4.755  0.6124  0.1258  0.3831
36828SOL    HW128476   6.836   7.726   4.714  0.8881 -1.6830  0.8283
36828SOL    HW228477   6.895   7.770   4.846  0.5142  0.8407  0.2150
36829SOL     OW28478   1.642   1.183  13.822 -0.4302  0.0543  0.1990
36829SOL    HW128479   1.658   1.273  13.794 -0.7968 -0.3197 -1.3177
36829SOL    HW228480   1.729   1.142  13.822 -0.0881  0.6906  2.0878
36830SOL     OW28481   3.092   3.884   3.743  0.4716 -0.6665 -0.0243
36830SOL    HW128482   3.027   3.888   3.813  1.0716  0.3154  0.4967
36830SOL    HW228483   3.084   3.967   3.698  2.4896  0.2151  1.1146
36831SOL     OW28484  12.336   1.723   8.217 -0.1168  0.1065  0.2981
36831SOL    HW128485  12.354   1.652   8.279 -2.7560 -1.9851 -1.1099
36831SOL    HW228486  12.262   1.770   8.257  0.9352  1.4833  0.7052
36832SOL     OW28487  13.529   1.748   3.214  0.5398 -0.2659 -0.1971
36832SOL    HW128488  13.533   1.829   3.265  1.5865 -0.5304  0.1624
36832SOL    HW228489  13.438   1.743   3.184  0.4432  0.9904 -0.1547
36833SOL     OW28490   8.543   2.036  13.242 -0.2342 -0.4236 -0.4557
36833SOL    HW128491   8.587   2.086  13.173 -0.4740  0.7943  0.2287
36833SOL    HW228492   8.488   2.101  13.286  0.1904 -1.0779  1.1001
36834SOL     OW28493   3.358   5.162   8.172  0.7506 -0.1963 -0.4064
36834SOL    HW128494   3.274   5.118   8.163  1.3107 -0.9346 -2.5183
36834SOL    HW228495   3.370   5.172   8.267 -0.3992 -2.6368  0.0524
36835SOL     OW28496   3.051   6.822   6.900  0.2231 -0.2783  0.1237
36835SOL    HW128497   3.091   6.805   6.815  1.9256 -0.1360  0.8665
36835SOL    HW228498   2.972   6.768   6.901  0.6545 -0.9635 -1.1795
36836SOL     OW28499   1.215   0.741   1.661  0.2565  0.0426 -0.1313
36836SOL    HW128500   1.263   0.820   1.687 -0.2780  0.1542  0.5236
36836SOL    HW228501   1.282   0.686   1.621  0.5185  1.0849 -1.2113
36837SOL     OW28502   7.736   6.429   5.983  0.0944 -0.9648  0.4624
36837SOL    HW128503   7.780   6.453   5.901 -0.2659 -0.9294  0.2777
36837SOL    HW228504   7.689   6.508   6.010  1.2915 -0.5542  1.4225
36838SOL     OW28505  10.224   4.440   9.282 -0.5991  0.4950  0.3248
36838SOL    HW128506  10.129   4.437   9.291 -0.7342 -0.0284 -0.9996
36838SOL    HW228507  10.240   4.410   9.193  0.8526 -0.1229  0.7700
36839SOL     OW28508   3.402   1.478  10.845  0.4710 -0.0674  0.1739
36839SOL    HW128509   3.385   1.397  10.796  2.2884  0.2233 -1.0292
36839SOL    HW228510   3.467   1.454  10.911  0.0700  0.1423  0.6505
36840SOL     OW28511   0.823   3.976   6.479 -0.2022 -0.4772 -0.1970
36840SOL    HW128512   0.751   4.035   6.503 -0.9787 -1.0218 -1.0988
36840SOL    HW228513   0.812   3.901   6.537 -0.7020 -0.7963 -0.6938
36841SOL     OW28514   1.041  12.989   0.603  0.5391 -0.0743 -0.4429
36841SOL    HW128515   1.125  13.033   0.614  1.1873 -1.0322 -1.2991
36841SOL    HW228516   1.060  12.918   0.541 -0.3790 -1.7143  1.0528
36842SOL     OW28517   2.258   3.770  13.006  0.7503 -0.5358 -0.2389
36842SOL    HW128518   2.322   3.729  12.948  0.6679  1.4306 -1.8721
36842SOL    HW228519   2.299   3.767  13.093  0.8786 -3.5845 -0.2959
36843SOL     OW28520  13.783  12.201   7.612  0.3470 -0.1284 -0.3755
36843SOL    HW128521  13.796  12.112   7.645 -1.8118 -0.8785 -1.3563
36843SOL    HW228522  13.695  12.224   7.641  0.3630  1.1541 -1.2988
36844SOL     OW28523   1.263   2.004  14.091 -0.5074 -0.2789  0.2261
36844SOL    HW128524   1.183   1.964  14.056 -1.7169  1.2872  1.0506
36844SOL    HW228525   1.272   2.085  14.042  1.6039 -1.1915 -1.0452
36845SOL     OW28526   8.246  12.239   3.770  0.3829 -0.2247  0.1429
36845SOL    HW128527   8.327  12.224   3.817  0.4043 -0.7424 -0.0440
36845SOL    HW228528   8.196  12.299   3.825 -0.2645 -2.0353  1.6266
36846SOL     OW28529   5.048   0.848   1.344  0.3200 -0.5686 -0.6169
36846SOL    HW128530   4.984   0.795   1.393  0.8983 -0.9572 -0.2749
36846SOL    HW228531   5.131   0.804   1.359  0.8853  0.6727  0.0164
36847SOL     OW28532  13.216  13.743   0.761  0.7919 -0.6205 -0.5601
36847SOL    HW128533  13.224  13.696   0.678 -0.1983  0.3074 -1.1979
36847SOL    HW228534  13.246  13.832   0.741 -0.1716 -0.1850 -0.1306
36848SOL     OW28535   6.822  11.514   0.189 -0.2501  0.3463 -0.0234
36848SOL    HW128536   6.781  11.501   0.103  1.2512  0.4839 -0.7829
36848SOL    HW228537   6.751  11.496   0.251 -1.2629 -0.1696 -1.2663
36849SOL     OW28538  13.490  11.653   2.650 -0.0757 -0.6005  0.6897
36849SOL    HW128539  13.410  11.664   2.600  1.2018 -2.2529 -1.9211
36849SOL    HW228540  13.532  11.740   2.647  0.1813 -0.7336 -1.6454
36850SOL     OW28541  11.482  11.080   1.382  0.1918  0.5709 -0.2066
36850SOL    HW128542  11.513  11.167   1.360 -0.2951  0.7476 -0.1928
36850SOL    HW228543  11.484  11.077   1.478 -0.9246  0.9879 -0.1593
36851SOL     OW28544   8.028  13.606   3.530  0.0012  0.1378  0.0630
36851SOL    HW128545   7.986  13.541   3.473  0.4420  0.3076 -0.4612
36851SOL    HW228546   7.955  13.654   3.569 -0.3142 -0.2983  0.0134
36852SOL     OW28547   8.719   9.077  12.372  0.1472 -0.1300 -0.0998
36852SOL    HW128548   8.769   9.097  12.293  1.1109 -0.5443  0.3892
36852SOL    HW228549   8.631   9.058  12.341  0.9773 -2.2892 -1.3039
36853SOL     OW28550   8.461  10.769   7.155  0.5597 -0.6098  0.3282
36853SOL    HW128551   8.504  10.750   7.238 -0.6976  0.7642  1.3370
36853SOL    HW228552   8.389  10.707   7.149  2.8354 -3.3496 -1.6663
36854SOL     OW28553   8.290   7.278   6.106 -0.0665  0.3274 -0.3558
36854SOL    HW128554   8.229   7.351   6.109  0.3205  0.6835 -1.0613
36854SOL    HW228555   8.241   7.207   6.065  0.0724  0.7019 -1.1897
36855SOL     OW28556  12.273   9.149   9.983 -0.1529 -0.3793  0.0854
36855SOL    HW128557  12.242   9.238  10.001  1.1563  1.0091 -3.6848
36855SOL    HW228558  12.327   9.127  10.060 -0.3151  2.1649  1.0311
36856SOL     OW28559   7.041   5.475   1.323  0.1623 -0.1771  0.7423
36856SOL    HW128560   7.054   5.506   1.233 -0.2414 -1.9101  0.0416
36856SOL    HW228561   7.056   5.380   1.318  0.0533 -0.3182  2.4938
36857SOL     OW28562  10.686  12.010  12.257 -0.8135 -0.5702 -0.0877
36857SOL    HW128563  10.635  12.089  12.276 -0.5173  0.0907 -1.9117
36857SOL    HW228564  10.679  11.998  12.163 -0.1954 -2.2888  0.0491
36858SOL     OW28565  11.910   0.609   9.822 -0.7085  0.2587  0.2220
36858SOL    HW128566  11.935   0.700   9.837 -0.1663  0.2312 -0.4956
36858SOL    HW228567  11.841   0.613   9.757 -0.2341  0.1181 -0.2942
36859SOL     OW28568  11.362   9.146   8.806  0.0305 -0.0603  0.0663
36859SOL    HW128569  11.400   9.232   8.791 -2.5793  1.1727 -0.0267
36859SOL    HW228570  11.278   9.148   8.758 -0.6120 -2.2495  0.9606
36860SOL     OW28571   0.640   4.658  12.292 -0.3593  0.2498  0.7972
36860SOL    HW128572   0.586   4.700  12.226  0.3397 -1.1022 -0.6916
36860SOL    HW228573   0.661   4.572  12.256 -0.2332 -0.6852  2.9311
36861SOL     OW28574  10.407   1.231  12.977 -0.6738 -0.1356  0.0683
36861SOL    HW128575  10.387   1.140  12.956 -0.6152 -0.4868  1.4446
36861SOL    HW228576  10.492   1.228  13.020  0.6123  0.9035 -2.2355
36862SOL     OW28577   8.871  11.480   1.132  0.1507 -0.0885  0.1777
36862SOL    HW128578   8.947  11.425   1.110  0.0596 -0.0954 -0.1257
36862SOL    HW228579   8.854  11.529   1.052  0.7498  1.0035  0.7076
36863SOL     OW28580   0.594   8.613   7.678  0.0273 -0.0446  0.3846
36863SOL    HW128581   0.530   8.543   7.666  0.7119 -0.8853  1.3885
36863SOL    HW228582   0.546   8.683   7.723 -0.8493  0.4576 -1.2638
36864SOL     OW28583   8.563   3.828   8.399  0.1056  0.1950 -0.0856
36864SOL    HW128584   8.545   3.737   8.376 -2.4417  0.3023  1.1274
36864SOL    HW228585   8.620   3.822   8.476  1.5335 -0.2729 -1.1234
36865SOL     OW28586   2.009  12.163   4.434  0.0715  0.1512  0.3117
36865SOL    HW128587   2.098  12.143   4.463  0.0566  1.0562  1.0378
36865SOL    HW228588   1.973  12.218   4.503 -0.9473  0.0639 -0.1304
36866SOL     OW28589  13.498   9.716   6.552 -0.1995 -0.0339  0.3340
36866SOL    HW128590  13.485   9.805   6.518 -0.8437 -0.1249  0.3369
36866SOL    HW228591  13.418   9.669   6.529  0.7995 -1.0977 -1.1297
36867SOL     OW28592   7.854  13.792   3.365 -0.1526  0.0599  0.0958
36867SOL    HW128593   7.786  13.806   3.431 -0.3499  0.1400 -0.1226
36867SOL    HW228594   7.851  13.698   3.346 -0.1856  0.0592  0.1057
36868SOL     OW28595   0.059  13.021   2.952 -0.0340 -0.6814  0.0011
36868SOL    HW128596  -0.035  13.036   2.965  0.0142 -0.4406  0.0804
36868SOL    HW228597   0.082  13.079   2.879 -0.0726 -1.1930 -0.4186
36869SOL     OW28598   3.836   1.561  13.535  0.1683  0.1684  0.5223
36869SOL    HW128599   3.828   1.618  13.458  1.8366 -0.3498 -0.0711
36869SOL    HW228600   3.914   1.593  13.580 -0.0478 -0.3777  1.2986
36870SOL     OW28601  11.556   4.197   6.427 -0.3300  0.3307 -0.0319
36870SOL    HW128602  11.518   4.284   6.413  1.6278  0.9774 -1.9081
36870SOL    HW228603  11.549   4.153   6.342 -1.3175 -1.3952  0.8996
36871SOL     OW28604  13.924   8.723   9.659  0.1369 -0.3789  0.1833
36871SOL    HW128605  14.005   8.683   9.690 -1.8533 -2.2365  3.5193
36871SOL    HW228606  13.917   8.805   9.706 -0.6673 -1.0244  1.2374
36872SOL     OW28607  12.289   1.011  12.284 -0.5048 -0.1050  0.2665
36872SOL    HW128608  12.282   1.102  12.255  0.7908 -0.9705 -3.2007
36872SOL    HW228609  12.382   0.992  12.284 -0.7862 -1.6342  0.2498
36873SOL     OW28610   3.490  13.244   9.072  0.6648 -0.1475 -0.1463
36873SOL    HW128611   3.461  13.204   9.155  0.4967 -2.6814 -1.3169
36873SOL    HW228612   3.411  13.243   9.018  0.4438  2.6912  0.0103
36874SOL     OW28613   0.654  11.174   4.895 -0.2338  0.5144  0.4418
36874SOL    HW128614   0.617  11.244   4.841 -0.8876 -0.0363  0.1622
36874SOL    HW228615   0.697  11.220   4.967  2.0128  1.3651 -1.3119
36875SOL     OW28616  13.807   3.748  11.360  0.6872  0.0295  0.0261
36875SOL    HW128617  13.894   3.708  11.366  1.0541  0.1589 -2.8210
36875SOL    HW228618  13.806   3.789  11.274 -3.7039 -3.8313 -2.2109
36876SOL     OW28619   9.509   4.164  11.529  0.1995  0.7631 -0.6261
36876SOL    HW128620   9.532   4.257  11.530 -0.5535  0.9765 -1.5949
36876SOL    HW228621   9.451   4.154  11.454  0.0333 -0.4421 -0.3653
36877SOL     OW28622   2.216  10.222   0.992 -0.0106 -0.2787 -0.6513
36877SOL    HW128623   2.136  10.214   1.044  0.6268 -1.1056  0.2339
36877SOL    HW228624   2.232  10.134   0.958 -0.8362  0.3822 -2.9634
36878SOL     OW28625   3.053   2.393  10.046 -0.0701 -0.8587  0.5026
36878SOL    HW128626   3.104   2.469  10.075 -0.0149  0.7958 -3.2713
36878SOL    HW228627   2.962   2.417  10.065  0.0770 -0.7645  1.1177
36879SOL     OW28628   4.784   0.202   0.534 -0.1865 -0.2190 -0.4787
36879SOL    HW128629   4.796   0.114   0.498 -0.1126 -0.5208  0.2501
36879SOL    HW228630   4.705   0.235   0.492  0.3162 -0.2549 -1.4685
36880SOL     OW28631  12.786   3.813   5.068 -0.0359  0.1484  0.3470
36880SOL    HW128632  12.735   3.734   5.085 -2.1735  1.1289 -1.0103
36880SOL    HW228633  12.784   3.824   4.973 -0.0679  1.9599  0.5052
36881SOL     OW28634   3.758  13.117   8.697  0.5363 -0.0511  0.1200
36881SOL    HW128635   3.784  13.164   8.776  0.3602 -0.9460  0.7283
36881SOL    HW228636   3.838  13.075   8.667  0.5547  0.1029 -0.0472
36882SOL     OW28637  13.209   5.652   2.024 -0.0931  0.0325  0.7354
36882SOL    HW128638  13.247   5.583   2.079  0.0598 -0.3043  0.2124
36882SOL    HW228639  13.270   5.659   1.950  0.1751  1.0867  1.0403
36883SOL     OW28640  11.018  13.285  10.655  0.3333  0.1924  0.6665
36883SOL    HW128641  11.105  13.314  10.682 -0.3840  2.1899  1.0034
36883SOL    HW228642  10.988  13.352  10.595 -0.8335 -0.6764  0.2403
36884SOL     OW28643  11.956   1.766   3.929  0.0488 -0.1409  0.1006
36884SOL    HW128644  11.953   1.853   3.888  1.3430  0.9427  2.0838
36884SOL    HW228645  11.883   1.767   3.991 -1.0926 -1.2526 -1.1683
36885SOL     OW28646   4.197   3.136   2.800  0.0270 -0.1577 -0.2236
36885SOL    HW128647   4.157   3.215   2.762  1.0179  0.1716 -0.6088
36885SOL    HW228648   4.273   3.119   2.744  1.4439  0.2594  1.4971
36886SOL     OW28649   1.344   5.146  13.029  0.2771  0.7118  0.0685
36886SOL    HW128650   1.258   5.139  12.989 -0.1548  2.9040  0.4683
36886SOL    HW228651   1.329   5.196  13.109  1.8249  0.5937  0.4649
36887SOL     OW28652   8.398  10.658   0.410  0.2392  0.1127 -0.1936
36887SOL    HW128653   8.447  10.577   0.397  0.3486 -0.3766  2.5601
36887SOL    HW228654   8.347  10.668   0.330  1.2582 -1.9192 -1.1929
36888SOL     OW28655   8.807   1.130  12.386 -0.0972 -0.5400 -0.8367
36888SOL    HW128656   8.714   1.106  12.387 -0.3423 -0.0169 -3.6118
36888SOL    HW228657   8.813   1.206  12.444 -2.1155  1.4081 -2.9367
36889SOL     OW28658  10.229  11.246  12.641 -0.1963 -0.4602  0.2344
36889SOL    HW128659  10.262  11.334  12.656 -0.5936 -0.4641  1.1878
36889SOL    HW228660  10.197  11.247  12.550  0.4545  0.1549  0.0073
36890SOL     OW28661   6.783   4.083  12.114  0.0654  0.7488 -0.6934
36890SOL    HW128662   6.821   4.162  12.153  1.8210  0.3284 -1.4886
36890SOL    HW228663   6.838   4.011  12.147 -2.6743 -0.4774  1.6523
36891SOL     OW28664   2.925  12.194   5.630 -0.3841  0.5785 -0.3786
36891SOL    HW128665   2.834  12.165   5.623 -0.2862 -0.3704  1.7465
36891SOL    HW228666   2.976  12.113   5.636  0.3483  1.1129  0.9355
36892SOL     OW28667   8.574  10.126   8.274 -0.4307  0.2934 -0.0810
36892SOL    HW128668   8.480  10.137   8.264 -0.3023  2.2264  0.4339
36892SOL    HW228669   8.591  10.036   8.245 -2.6517 -0.7336  1.4878
36893SOL     OW28670   9.085  12.631   6.939 -0.5501 -0.1413  0.2280
36893SOL    HW128671   8.992  12.611   6.949 -0.9648 -0.0834 -2.7427
36893SOL    HW228672   9.115  12.573   6.869  1.0812  1.4417 -0.4592
36894SOL     OW28673   2.943   1.273  12.457 -0.1749  0.5073 -0.6092
36894SOL    HW128674   2.948   1.266  12.362 -0.1180 -0.9387 -0.5076
36894SOL    HW228675   2.898   1.357  12.472 -0.8915  0.3842 -1.9185
36895SOL     OW28676  11.539   8.859   6.641 -0.3527 -0.2234 -0.2922
36895SOL    HW128677  11.487   8.785   6.609 -0.8695 -0.2867  0.6570
36895SOL    HW228678  11.629   8.825   6.641 -0.4386 -0.4692 -0.9374
36896SOL     OW28679   1.133   5.199   8.182  0.3047  0.2369  0.1452
36896SOL    HW128680   1.074   5.242   8.120 -0.5551 -1.7961 -0.5490
36896SOL    HW228681   1.191   5.146   8.128 -0.9889 -2.2172  1.0097
36897SOL     OW28682   6.873   3.967   5.423 -0.2194  0.1760  0.1732
36897SOL    HW128683   6.852   3.881   5.385  0.8752  0.6705 -1.6517
36897SOL    HW228684   6.806   4.025   5.387  0.3500  0.4934 -0.3958
36898SOL     OW28685   7.029   4.361   4.428 -0.0145 -0.6084  0.1473
36898SOL    HW128686   7.000   4.449   4.454 -3.1689 -1.5168  0.1484
36898SOL    HW228687   7.045   4.316   4.511  1.0783 -0.2365  0.1564
36899SOL     OW28688  11.468   6.646   5.898  0.5437  0.0956  0.2524
36899SOL    HW128689  11.376   6.632   5.873  0.4348 -1.3803  1.3249
36899SOL    HW228690  11.515   6.652   5.815 -0.4598  0.3612 -0.3112
36900SOL     OW28691  13.640   0.296  11.777 -0.5094 -0.0745 -0.1800
36900SOL    HW128692  13.639   0.368  11.840 -1.6201 -0.7699  0.6323
36900SOL    HW228693  13.615   0.337  11.694  1.6962  0.9894 -0.3910
36901SOL     OW28694  12.269   1.423   7.173  0.0376 -0.1557 -0.0712
36901SOL    HW128695  12.330   1.495   7.190  0.3723 -0.1426 -1.2407
36901SOL    HW228696  12.188   1.450   7.216 -0.1385  1.3916 -1.2695
36902SOL     OW28697  10.714   3.373   8.292 -0.2285  0.0645  0.2652
36902SOL    HW128698  10.645   3.370   8.225 -0.3600 -0.9434  0.4289
36902SOL    HW228699  10.666   3.374   8.375 -0.0582  0.6357  0.3559
36903SOL     OW28700  11.450   9.693   0.170  0.1521  0.0462 -0.1186
36903SOL    HW128701  11.380   9.703   0.235  1.4264 -0.3930  1.3595
36903SOL    HW228702  11.450   9.600   0.148 -0.8155  0.3217 -1.4205
36904SOL     OW28703  11.605  13.706   2.741  0.5143 -1.1034  0.2074
36904SOL    HW128704  11.659  13.637   2.702  0.7473  0.0026 -1.5202
36904SOL    HW228705  11.660  13.784   2.737 -1.3903  0.2329 -2.2955
36905SOL     OW28706   9.495   7.034   8.993 -0.4942 -0.8293 -0.1138
36905SOL    HW128707   9.533   7.088   8.924 -1.0467 -2.1653 -1.5172
36905SOL    HW228708   9.569   6.990   9.034 -0.2376 -0.6837 -0.4243
36906SOL     OW28709  12.980   6.366   6.578 -0.3307 -0.0485 -0.6117
36906SOL    HW128710  12.928   6.439   6.543 -0.3925  0.5179  0.6214
36906SOL    HW228711  12.935   6.340   6.658  0.9447  0.0712  0.1805
36907SOL     OW28712   2.901   9.215   4.038 -0.2006  0.0827 -0.2779
36907SOL    HW128713   2.842   9.172   4.100 -0.0442  0.3658  0.0729
36907SOL    HW228714   2.985   9.221   4.085  0.0513 -0.1201 -0.6911
36908SOL     OW28715   1.140   1.223   0.187 -1.2062  0.2656  0.4281
36908SOL    HW128716   1.087   1.224   0.108 -2.2995  1.0362  1.1451
36908SOL    HW228717   1.119   1.140   0.229  0.0634 -0.5640 -0.5120
36909SOL     OW28718  11.483   3.024   8.265 -0.1198 -0.6799 -0.2699
36909SOL    HW128719  11.474   3.080   8.188 -1.4483 -0.9194 -0.3177
36909SOL    HW228720  11.560   2.970   8.247  0.9603  0.8420 -0.3826
36910SOL     OW28721   8.097   6.190   4.428  0.3601  0.1930  0.2254
36910SOL    HW128722   8.174   6.141   4.456  0.2643 -0.8569 -1.2156
36910SOL    HW228723   8.089   6.261   4.491  0.5310 -1.6164  2.4183
36911SOL     OW28724  10.506   5.704  11.335  0.2320  0.2842 -0.0152
36911SOL    HW128725  10.553   5.640  11.283 -0.6965  0.3537 -0.9765
36911SOL    HW228726  10.480   5.657  11.414  0.5024 -0.2145 -0.2229
36912SOL     OW28727   3.105   8.318   1.368  0.2378  0.3186 -0.2006
36912SOL    HW128728   3.111   8.344   1.276 -0.5457  2.5834  0.3396
36912SOL    HW228729   3.196   8.313   1.397  0.4864 -0.2131 -1.0131
36913SOL     OW28730   3.831   0.469  13.742 -0.2309 -0.0659  0.0191
36913SOL    HW128731   3.774   0.437  13.812  0.8203  0.2100  1.0362
36913SOL    HW228732   3.804   0.560  13.728 -1.2255 -0.4733 -0.7715
36914SOL     OW28733   5.237   5.871  13.893 -0.3617  0.7561  0.4249
36914SOL    HW128734   5.218   5.958  13.929  1.4222  2.0278 -1.4285
36914SOL    HW228735   5.152   5.836  13.868 -1.1090  2.0273  1.0656
36915SOL     OW28736  10.890   4.033   4.789 -0.3299  0.6302  0.0630
36915SOL    HW128737  10.824   4.008   4.725  0.0155  1.0796 -0.4790
36915SOL    HW228738  10.973   4.023   4.742  0.0028 -0.0726  0.7757
36916SOL     OW28739   7.165  13.035   3.468 -0.2355  0.3366  0.4364
36916SOL    HW128740   7.221  13.083   3.406 -1.6590  0.0870 -1.1171
36916SOL    HW228741   7.181  12.943   3.446 -0.7204  0.2464  0.4728
36917SOL     OW28742  13.171   5.467   7.438  0.0475 -0.0242  0.1011
36917SOL    HW128743  13.204   5.503   7.521  1.9842 -0.9659 -0.2225
36917SOL    HW228744  13.137   5.381   7.462 -0.9003  0.3426  0.1577
36918SOL     OW28745   3.217  11.131   4.618 -0.2664 -0.1449  0.8009
36918SOL    HW128746   3.233  11.061   4.682 -0.3223 -1.9258 -1.0345
36918SOL    HW228747   3.137  11.104   4.573  0.3597  0.4838 -0.7392
36919SOL     OW28748  11.875   0.144  12.468  0.2763  0.1693 -0.0871
36919SOL    HW128749  11.960   0.134  12.424  0.4379  2.0262 -0.3004
36919SOL    HW228750  11.888   0.106  12.555  0.4942 -1.9636 -1.0062
36920SOL     OW28751  11.481   1.118   2.486 -0.1160  0.2774  0.1024
36920SOL    HW128752  11.434   1.196   2.458 -0.5575 -0.3940 -1.0565
36920SOL    HW228753  11.495   1.132   2.580  2.0069  2.8951 -0.4762
36921SOL     OW28754   5.711  11.981  10.759 -0.2381  0.2340 -0.4446
36921SOL    HW128755   5.731  12.024  10.676 -0.4225  0.3068 -0.4516
36921SOL    HW228756   5.654  12.043  10.805 -0.7018 -0.1134 -0.5557
36922SOL     OW28757   0.527   9.296   4.005  0.1120  0.7219 -0.6110
36922SOL    HW128758   0.436   9.327   4.003 -0.2642  0.1951  2.7559
36922SOL    HW228759   0.574   9.366   4.051 -0.1909 -1.8702  4.4185
36923SOL     OW28760   0.471   7.894  13.502  0.0630 -0.6976  0.3276
36923SOL    HW128761   0.456   7.832  13.574  0.5623 -1.8705 -0.5436
36923SOL    HW228762   0.558   7.930  13.518  0.4747 -1.4932 -0.0468
36924SOL     OW28763   1.244   1.440   7.900  0.5427 -0.1869  0.3565
36924SOL    HW128764   1.281   1.418   7.985 -1.4480 -2.7231  0.6789
36924SOL    HW228765   1.305   1.505   7.863  2.2009 -0.0650  3.0753
36925SOL     OW28766   4.497   9.964   7.865  0.0346  0.1440 -0.4582
36925SOL    HW128767   4.474  10.001   7.779 -1.0694 -0.0354 -0.2482
36925SOL    HW228768   4.506   9.870   7.849 -2.2280 -0.2022 -0.0055
36926SOL     OW28769   2.933   4.402  10.872 -0.2527  0.1292  0.0568
36926SOL    HW128770   3.004   4.345  10.843 -0.2632  0.0637  0.1581
36926SOL    HW228771   2.856   4.345  10.870  0.0534 -0.4183  2.0203
36927SOL     OW28772   6.696   1.867   5.884  0.1712 -0.5296 -0.5105
36927SOL    HW128773   6.701   1.772   5.883  0.6035 -0.5127 -1.7150
36927SOL    HW228774   6.787   1.896   5.886  0.1323 -0.1702 -2.2428
36928SOL     OW28775  13.690  12.001   3.070  0.6756 -0.6395 -0.0533
36928SOL    HW128776  13.756  12.065   3.042  0.2384 -1.2833 -2.8089
36928SOL    HW228777  13.607  12.048   3.066  0.7122 -0.3476  1.6760
36929SOL     OW28778  10.185   8.865  11.625  0.1236  0.1136  0.0717
36929SOL    HW128779  10.175   8.952  11.586  0.2151 -0.5341 -1.4549
36929SOL    HW228780  10.095   8.836  11.641 -0.1424 -0.8453 -2.5921
36930SOL     OW28781   4.750   3.988   4.391  0.1607 -0.2852 -0.4523
36930SOL    HW128782   4.724   3.906   4.431  0.1389  0.4393  1.1044
36930SOL    HW228783   4.819   3.964   4.329  1.2106 -1.3154  1.0545
36931SOL     OW28784   3.446   9.678  11.980  0.1521 -0.1173 -0.0911
36931SOL    HW128785   3.482   9.688  11.892  0.2326 -1.9643 -0.2984
36931SOL    HW228786   3.427   9.585  11.988  0.0127  0.0366  1.8042
36932SOL     OW28787  11.367   9.475  13.520  0.1758  0.1238  0.4176
36932SOL    HW128788  11.410   9.394  13.545  0.7073  0.6797  1.3851
36932SOL    HW228789  11.422   9.511  13.450  0.1057 -0.1921  0.1975
36933SOL     OW28790   9.646  11.538   5.007 -0.0347 -0.1103  0.0729
36933SOL    HW128791   9.693  11.473   5.060  1.5320  0.1364 -0.9413
36933SOL    HW228792   9.573  11.490   4.969  1.0116 -1.2664 -0.5425
36934SOL     OW28793  12.745  13.548   1.894 -0.0639 -0.1887  0.6605
36934SOL    HW128794  12.713  13.459   1.912  0.6438 -0.6480 -0.2600
36934SOL    HW228795  12.692  13.578   1.821 -0.1579  0.0613  0.8325
36935SOL     OW28796   3.041   8.644   1.127 -0.5521 -0.1164  0.4812
36935SOL    HW128797   3.076   8.555   1.121 -1.2682 -0.5081  1.8054
36935SOL    HW228798   2.957   8.635   1.171 -1.4056  1.0443 -0.8369
36936SOL     OW28799  10.582  10.595   9.630  0.1710 -0.1046 -0.1318
36936SOL    HW128800  10.603  10.605   9.537 -3.0399  2.1218 -0.7851
36936SOL    HW228801  10.604  10.680   9.668  2.0608 -1.2038  1.3640
36937SOL     OW28802   8.910  12.206   1.872  0.2958  0.3126 -0.3773
36937SOL    HW128803   8.897  12.124   1.919  1.9050 -0.0927 -0.6006
36937SOL    HW228804   8.883  12.186   1.782  1.7487 -0.3334 -0.6948
36938SOL     OW28805   4.221   6.552   3.455 -0.1914 -0.1218  0.1009
36938SOL    HW128806   4.218   6.468   3.501 -4.3665  0.2648  0.9068
36938SOL    HW228807   4.267   6.610   3.515  0.5117 -1.2415  0.6725
36939SOL     OW28808   1.391  14.053   1.179  0.0681 -0.4216  0.4042
36939SOL    HW128809   1.312  14.098   1.150 -0.1101 -0.7423  0.3858
36939SOL    HW228810   1.360  13.968   1.212  0.2471 -0.0167  1.6631
36940SOL     OW28811   7.101   4.908  13.250 -0.2304 -0.6976 -0.4274
36940SOL    HW128812   7.047   4.919  13.328 -0.4890 -1.8357 -0.4318
36940SOL    HW228813   7.063   4.968  13.186  0.7476  1.2179  0.6588
36941SOL     OW28814  12.569   8.674   8.078 -0.3199 -0.1947 -0.4005
36941SOL    HW128815  12.637   8.620   8.118 -0.5808 -1.6492 -1.8197
36941SOL    HW228816  12.603   8.695   7.991 -1.7021 -1.0296 -1.1707
36942SOL     OW28817   4.870   6.939  11.674  0.2857  0.2308  0.1659
36942SOL    HW128818   4.926   6.971  11.602  1.4382  0.4928  1.1464
36942SOL    HW228819   4.803   7.006  11.683 -0.9484 -0.6408 -1.7958
36943SOL     OW28820   1.819   2.717  10.582 -0.1003 -0.0242 -0.1071
36943SOL    HW128821   1.771   2.643  10.618  0.9007 -1.3202 -1.3313
36943SOL    HW228822   1.808   2.787  10.647 -0.4405 -1.4682  1.4535
36944SOL     OW28823   1.309   6.580   7.711 -0.0436 -0.0717 -0.4781
36944SOL    HW128824   1.327   6.525   7.787 -0.6096 -0.4640 -0.6205
36944SOL    HW228825   1.394   6.617   7.687 -0.0557  1.0576  1.0919
36945SOL     OW28826   9.301  11.325  10.291  0.4671  0.4596 -0.2297
36945SOL    HW128827   9.350  11.247  10.317 -0.1815  0.8584  2.4782
36945SOL    HW228828   9.225  11.291  10.245 -0.3819 -0.6423  1.8797
36946SOL     OW28829   4.618   3.522   6.294  0.0865  0.3715  0.4524
36946SOL    HW128830   4.697   3.513   6.346 -0.5920  2.2834  1.9187
36946SOL    HW228831   4.630   3.603   6.245 -0.2015 -0.2971 -0.7878
36947SOL     OW28832   2.711   3.321   9.592 -0.1773  0.1749 -0.4377
36947SOL    HW128833   2.676   3.401   9.632  0.1962  0.9096 -1.5283
36947SOL    HW228834   2.698   3.333   9.498 -0.8618 -1.4220 -0.5847
36948SOL     OW28835  10.879   2.090   5.869 -0.2534 -0.4737  0.5299
36948SOL    HW128836  10.932   2.153   5.821  0.9711 -0.3052  2.0170
36948SOL    HW228837  10.846   2.030   5.802  1.4766 -0.3178 -0.5084
36949SOL     OW28838   5.165   2.514   1.039  0.4413 -0.3581 -0.5252
36949SOL    HW128839   5.163   2.431   1.087  2.7853 -0.3436 -0.2743
36949SOL    HW228840   5.257   2.539   1.039 -0.1539  2.0772 -0.9272
36950SOL     OW28841   9.671   7.633   6.713 -0.3041 -0.3234  0.0402
36950SOL    HW128842   9.689   7.651   6.806 -0.9745 -0.8545  0.2807
36950SOL    HW228843   9.589   7.681   6.696 -1.5590 -2.2194  0.4139
36951SOL     OW28844   1.573   0.841  12.409  0.1106  0.0745 -0.4060
36951SOL    HW128845   1.579   0.910  12.344  0.5877 -0.7472 -1.2460
36951SOL    HW228846   1.653   0.790  12.399  1.2313  1.1110  2.2272
36952SOL     OW28847   2.564  10.154   0.014 -0.3851  0.7084  0.3246
36952SOL    HW128848   2.601  10.067   0.026 -0.8178  0.8390  3.5032
36952SOL    HW228849   2.502  10.145  -0.058  0.9762 -1.0899 -0.7093
36953SOL     OW28850   3.418   9.320   8.893 -0.4633 -0.3778  0.2403
36953SOL    HW128851   3.363   9.368   8.954  1.9194  0.4962  1.8830
36953SOL    HW228852   3.457   9.387   8.837  1.1282 -0.5567  1.0533
36954SOL     OW28853   2.919   6.294   2.435 -0.1416 -0.1803  0.8929
36954SOL    HW128854   2.839   6.250   2.405 -0.0715  0.1079  0.2738
36954SOL    HW228855   2.927   6.269   2.527  0.2181 -1.9595  0.4137
36955SOL     OW28856   7.040   2.796   9.526 -0.1997  0.1893 -0.7276
36955SOL    HW128857   7.077   2.880   9.552 -0.5108 -0.3618  1.7841
36955SOL    HW228858   7.114   2.736   9.527 -0.7871 -0.7432  3.5064
36956SOL     OW28859  11.940   5.771   2.583 -0.2761  0.2620  0.5756
36956SOL    HW128860  12.015   5.823   2.612  0.7375 -0.7329 -0.1693
36956SOL    HW228861  11.908   5.727   2.662  1.0381 -0.6571  0.6318
36957SOL     OW28862   7.559   4.737  11.918 -0.1816  0.2002  0.1118
36957SOL    HW128863   7.641   4.770  11.954 -0.2648  0.7629 -0.2150
36957SOL    HW228864   7.530   4.672  11.982  0.8502 -0.4866 -0.0895
36958SOL     OW28865  10.444   7.169   3.237 -0.4909  0.1041 -0.1829
36958SOL    HW128866  10.428   7.134   3.325 -3.2431  0.2059 -0.5606
36958SOL    HW228867  10.491   7.251   3.252 -2.5254  1.0591  1.3543
36959SOL     OW28868  11.255   8.467   2.056 -0.1035  0.4580 -0.1348
36959SOL    HW128869  11.282   8.455   1.965 -1.6608  0.4188 -0.6072
36959SOL    HW228870  11.279   8.557   2.077 -0.7487  0.8161 -0.9388
36960SOL     OW28871   7.978  10.452  13.296  0.1993  0.8477  0.2384
36960SOL    HW128872   7.985  10.371  13.246 -0.1693  0.0312  1.4654
36960SOL    HW228873   8.062  10.496  13.282 -0.4039  1.3390 -2.2042
36961SOL     OW28874   0.024   6.965   2.306 -0.5032 -0.1686 -0.0033
36961SOL    HW128875   0.118   6.982   2.318 -0.7987  0.3143  1.9207
36961SOL    HW228876   0.014   6.872   2.327 -0.2515 -0.6586 -1.8345
36962SOL     OW28877   3.527   2.513  11.238 -0.3996 -0.0838 -0.1873
36962SOL    HW128878   3.492   2.601  11.254  1.8591  0.9135 -0.4368
36962SOL    HW228879   3.492   2.490  11.152 -0.0304  1.1373 -0.7019
36963SOL     OW28880   5.893   4.325   3.034  0.4123  0.0235 -0.4522
36963SOL    HW128881   5.803   4.346   3.058 -0.4805 -1.3490 -2.3269
36963SOL    HW228882   5.946   4.390   3.079 -1.4393  0.3519  1.3597
36964SOL     OW28883   1.361   0.988   1.698 -0.8731  0.0787 -0.0328
36964SOL    HW128884   1.341   1.079   1.722  1.3113  0.3461  1.0205
36964SOL    HW228885   1.428   0.996   1.630 -0.8491 -0.7631 -0.1123
36965SOL     OW28886   5.638   5.479   9.400  0.5625  0.7482  0.1265
36965SOL    HW128887   5.660   5.570   9.383 -1.5178  1.1608 -0.5416
36965SOL    HW228888   5.632   5.473   9.496  0.9858  1.2256  0.1840
36966SOL     OW28889   7.223   4.263   5.384  0.1279  0.4808  0.4821
36966SOL    HW128890   7.213   4.201   5.312 -0.4550  3.2248 -1.9697
36966SOL    HW228891   7.176   4.222   5.457 -0.8025 -1.6367 -1.1946
36967SOL     OW28892   3.668  10.973   5.225  0.3481 -0.0597  0.1578
36967SOL    HW128893   3.700  11.028   5.154  2.1327 -0.7076  0.4259
36967SOL    HW228894   3.666  11.030   5.301  2.7120 -0.4423  0.5598
36968SOL     OW28895   6.064  13.901   7.637 -0.2031 -0.2442  0.5542
36968SOL    HW128896   6.108  13.824   7.672 -0.2050 -1.1302 -1.2338
36968SOL    HW228897   5.989  13.914   7.694 -0.6569 -2.0969  0.4614
36969SOL     OW28898  10.923   8.084   1.604 -0.5259  0.2094 -0.4411
36969SOL    HW128899  10.855   8.020   1.582  0.1209 -1.5496  2.2108
36969SOL    HW228900  11.004   8.033   1.604  0.4648  1.7130 -1.0625
36970SOL     OW28901   2.376  13.391  13.233 -0.2972  0.2463  0.3856
36970SOL    HW128902   2.338  13.427  13.153 -0.7108  1.3848  1.0749
36970SOL    HW228903   2.396  13.300  13.211 -0.2167  0.5892 -1.0699
36971SOL     OW28904   3.444   9.327   1.869  0.4699 -0.2063 -0.3299
36971SOL    HW128905   3.490   9.361   1.946  0.9383  0.5093 -0.9097
36971SOL    HW228906   3.406   9.404   1.828 -1.4276 -0.7957  0.2190
36972SOL     OW28907   1.626  10.186   9.557 -0.2323 -0.3795 -0.1601
36972SOL    HW128908   1.688  10.206   9.627 -1.2201  0.4680  0.4878
36972SOL    HW228909   1.585  10.104   9.584 -0.1049 -0.4271 -0.1072
36973SOL     OW28910   1.390   1.691  13.134 -0.1575 -0.0080  0.5861
36973SOL    HW128911   1.405   1.703  13.227  0.4051  2.0024  0.2863
36973SOL    HW228912   1.302   1.725  13.119  0.3909  1.2939  0.1514
36974SOL     OW28913   6.201   4.120   9.648  0.5400  0.3947 -0.1097
36974SOL    HW128914   6.179   4.178   9.575  0.4207 -0.6906 -0.9594
36974SOL    HW228915   6.118   4.076   9.669  0.4573  1.0542  1.0215
36975SOL     OW28916   9.003   6.114  12.198 -0.7825 -0.4519 -0.7470
36975SOL    HW128917   9.058   6.048  12.156  2.3669  1.4235  0.1594
36975SOL    HW228918   9.039   6.122  12.286 -1.7421  1.7568 -0.5102
36976SOL     OW28919   3.592  13.640   2.087 -0.1020 -0.4097 -0.4025
36976SOL    HW128920   3.520  13.651   2.149  0.1910  1.1203 -0.2905
36976SOL    HW228921   3.668  13.623   2.142  0.1174  0.7340 -0.3242
36977SOL     OW28922  13.869   1.212   1.414  0.1709  0.1912 -0.1350
36977SOL    HW128923  13.831   1.155   1.481 -0.0554  1.4013  0.8110
36977SOL    HW228924  13.805   1.282   1.403 -0.7438 -0.9352 -3.0960
36978SOL     OW28925  13.492   3.481  13.675 -0.1133 -0.1018 -0.2605
36978SOL    HW128926  13.499   3.566  13.631 -0.5070  0.2358  0.3137
36978SOL    HW228927  13.568   3.478  13.733 -1.2333  0.8419  1.3497
36979SOL     OW28928   9.915   2.379   1.263 -0.4169 -0.0003 -0.3629
36979SOL    HW128929  10.005   2.362   1.291 -0.4351  0.9883  0.3504
36979SOL    HW228930   9.865   2.389   1.344 -1.2215 -0.7535 -0.7487
36980SOL     OW28931   8.496  13.282  12.802 -0.1161 -0.3544 -0.4118
36980SOL    HW128932   8.483  13.188  12.790  0.1017 -0.2030 -2.1684
36980SOL    HW228933   8.427  13.308  12.863  0.6415 -1.8440  1.1900
36981SOL     OW28934  11.762   6.223   5.799 -0.5157  0.3459  0.2811
36981SOL    HW128935  11.785   6.252   5.887  1.1753  0.0444 -0.0295
36981SOL    HW228936  11.715   6.297   5.761 -1.2659  0.4766  1.4186
36982SOL     OW28937   8.923  13.921   4.038 -0.4087  0.3425  0.1517
36982SOL    HW128938   8.883  13.988   3.983  0.5206  1.4539  0.7894
36982SOL    HW228939   8.849  13.864   4.063 -1.3388  1.4987  0.1240
36983SOL     OW28940   6.853   9.564  11.713 -0.0375  0.3364 -0.3347
36983SOL    HW128941   6.907   9.492  11.747 -0.6859  0.2332  0.5234
36983SOL    HW228942   6.904   9.643  11.731 -1.0607  0.4505  2.4815
36984SOL     OW28943  13.946  12.745   2.786  0.6855  0.4280  0.0256
36984SOL    HW128944  13.974  12.735   2.877 -0.2101 -0.6555  0.2048
36984SOL    HW228945  14.002  12.685   2.737 -1.3961 -2.0389  0.4347
36985SOL     OW28946   9.495   9.870   5.420 -0.1735 -0.4068  0.0831
36985SOL    HW128947   9.421   9.872   5.480 -1.3269 -1.0744 -1.2610
36985SOL    HW228948   9.553   9.803   5.456 -0.9979 -1.0218  0.2925
36986SOL     OW28949   9.092  11.807  12.832  0.0616 -0.3831 -0.2126
36986SOL    HW128950   9.033  11.757  12.888 -0.0746  0.4558  0.4195
36986SOL    HW228951   9.038  11.876  12.795  0.5099  0.0487 -0.0791
36987SOL     OW28952   5.836   9.849  13.462  0.3354 -0.4161 -0.3724
36987SOL    HW128953   5.775   9.776  13.466  0.9060 -0.8864 -0.2128
36987SOL    HW228954   5.831   9.880  13.372  0.4899 -0.9891 -0.5774
36988SOL     OW28955  10.068   9.704  12.565  0.1981  0.1812  0.1634
36988SOL    HW128956  10.160   9.695  12.588  0.1866 -0.3418  0.0213
36988SOL    HW228957  10.025   9.733  12.646  0.9007  3.2153 -0.4417
36989SOL     OW28958   0.814   5.616   0.016 -0.1877 -0.1632 -0.4383
36989SOL    HW128959   0.793   5.707   0.036 -1.5457 -0.3127 -1.0617
36989SOL    HW228960   0.900   5.619  -0.026 -0.5939  0.9305 -1.2303
36990SOL     OW28961   6.105   2.772   0.499  0.0666 -0.1397  0.1118
36990SOL    HW128962   6.057   2.697   0.535 -1.1932  0.4673 -0.2672
36990SOL    HW228963   6.142   2.739   0.417  0.9582 -0.8237  0.7574
36991SOL     OW28964   6.561   6.186   4.176  0.3951  0.1222  0.5938
36991SOL    HW128965   6.606   6.205   4.258 -0.7703  0.5872  1.1614
36991SOL    HW228966   6.473   6.223   4.188  0.4501  0.9226 -1.1777
36992SOL     OW28967   2.676   7.553   5.300 -0.0031  0.3868  0.1638
36992SOL    HW128968   2.724   7.471   5.294 -0.3702  0.2400 -1.1132
36992SOL    HW228969   2.621   7.544   5.378  1.4911  0.2797  1.2244
36993SOL     OW28970   6.696   5.019   0.832 -0.1371 -0.9672 -0.1268
36993SOL    HW128971   6.647   5.030   0.751  1.7006 -2.0928 -1.4522
36993SOL    HW228972   6.738   4.934   0.824  2.9646  0.3763  0.3684
36994SOL     OW28973   0.894   4.815   4.789  0.3832 -0.4778 -0.0125
36994SOL    HW128974   0.962   4.872   4.753 -1.3730  2.5713  1.2105
36994SOL    HW228975   0.900   4.826   4.884 -1.0887 -1.0554  0.1751
36995SOL     OW28976  11.385   2.738  13.247  0.0608 -0.5155  0.1574
36995SOL    HW128977  11.480   2.743  13.263  0.3603 -0.7737 -1.3506
36995SOL    HW228978  11.367   2.645  13.241 -0.4005 -0.4842  0.9235
36996SOL     OW28979   5.065  11.278  10.543 -0.5603  0.0363  0.4973
36996SOL    HW128980   5.069  11.340  10.616 -1.1902  0.0676  0.5027
36996SOL    HW228981   5.060  11.192  10.585 -1.8091  0.1002  0.5052
36997SOL     OW28982   9.310   7.426  10.727  0.0603  0.7508 -0.0934
36997SOL    HW128983   9.223   7.443  10.762  0.5978  1.0667  1.1559
36997SOL    HW228984   9.313   7.474  10.645 -2.0038 -1.7360 -1.7904
36998SOL     OW28985  10.666   8.239   5.411  0.6100  0.0100  0.0102
36998SOL    HW128986  10.721   8.260   5.335 -1.4164  1.9071 -1.0491
36998SOL    HW228987  10.588   8.197   5.373  0.4986 -0.9627  1.2704
36999SOL     OW28988  12.499   1.089   3.666  0.0852 -0.0830 -0.0948
36999SOL    HW128989  12.514   1.075   3.573  1.9681  1.0694 -0.0312
36999SOL    HW228990  12.561   1.030   3.709  0.8683  1.0158  0.3422
37000SOL     OW28991   8.310   7.405   7.688  0.1054  0.2769  0.0919
37000SOL    HW128992   8.356   7.472   7.637  0.6729 -0.6369 -0.6364
37000SOL    HW228993   8.363   7.395   7.768  1.1981 -0.7409 -0.7220
37001SOL     OW28994   5.433   8.998   6.148  0.0817  0.2332 -0.1493
37001SOL    HW128995   5.446   8.970   6.058 -1.2862  0.5673 -0.4768
37001SOL    HW228996   5.414   8.918   6.196 -1.8378  0.3025 -0.6986
37002SOL     OW28997   9.587   0.936  11.516  0.2067 -0.6707 -0.0709
37002SOL    HW128998   9.662   0.913  11.571 -1.3710 -0.3974  2.3463
37002SOL    HW228999   9.524   0.866  11.531 -0.9965  0.3790 -0.0475
37003SOL     OW29000   7.646  11.488   1.208 -0.4940  0.1654 -0.1728
37003SOL    HW129001   7.578  11.484   1.141  0.8039 -0.1016 -1.5269
37003SOL    HW229002   7.632  11.410   1.261 -1.2050  0.0929 -0.4596
37004SOL     OW29003   7.656   2.453   1.074 -0.3163  0.2452  0.0329
37004SOL    HW129004   7.653   2.377   1.017  0.6325  1.3017 -1.4891
37004SOL    HW229005   7.697   2.522   1.021 -0.0972  1.4921  1.7317
37005SOL     OW29006   7.782  12.128  12.878  0.0180 -0.2624  0.3826
37005SOL    HW129007   7.873  12.152  12.894  0.6470 -1.4637 -1.1584
37005SOL    HW229008   7.769  12.048  12.930 -0.2936  0.1023  0.8828
37006SOL     OW29009  11.281   8.489  12.673 -0.4832  0.1251 -0.3809
37006SOL    HW129010  11.326   8.551  12.731 -0.5373  0.8296 -1.0722
37006SOL    HW229011  11.223   8.439  12.731  0.0431  0.2711  0.2822
37007SOL     OW29012   6.600  13.121   0.599  0.4414  0.1854 -0.0424
37007SOL    HW129013   6.542  13.056   0.559 -1.2740  1.7579 -0.2410
37007SOL    HW229014   6.583  13.201   0.549  0.8626  1.3263  1.5881
37008SOL     OW29015  12.334   7.905  10.071  0.7034 -0.2247  0.2466
37008SOL    HW129016  12.246   7.893  10.106  0.5968  0.2986  0.1734
37008SOL    HW229017  12.364   7.988  10.109  0.6347  0.2929 -0.7715
37009SOL     OW29018   3.322   7.359   7.918 -0.4947  0.2254  0.4300
37009SOL    HW129019   3.247   7.309   7.886 -1.6047  1.8240  0.3810
37009SOL    HW229020   3.304   7.372   8.012 -0.1346  0.3764  0.4803
37010SOL     OW29021   1.765   0.755   8.735  0.1052  0.2908  0.3763
37010SOL    HW129022   1.748   0.734   8.827 -0.0439  0.8944  0.4912
37010SOL    HW229023   1.678   0.760   8.696  0.1843 -0.4095  0.0957
37011SOL     OW29024   7.065  10.535  10.978  0.1960  0.5517 -0.1757
37011SOL    HW129025   6.998  10.545  10.911 -0.7195  1.0845  0.7721
37011SOL    HW229026   7.022  10.565  11.059  1.4828  0.6178  0.5138
37012SOL     OW29027  10.511   6.505   9.583 -0.2239  0.1418  0.0036
37012SOL    HW129028  10.478   6.595   9.577 -0.9258 -0.0593  0.7390
37012SOL    HW229029  10.536   6.483   9.494  2.3169  1.9311  0.1687
37013SOL     OW29030   1.956   4.983  13.997 -0.4097 -0.5067 -0.2472
37013SOL    HW129031   1.903   4.961  13.921 -0.1206 -0.2599 -0.5234
37013SOL    HW229032   2.034   4.927  13.990 -1.3573 -2.0658  1.0293
37014SOL     OW29033   3.514   3.234   2.953  0.1268  0.1700  0.1760
37014SOL    HW129034   3.565   3.316   2.953 -1.1361  1.0284 -1.7462
37014SOL    HW229035   3.428   3.260   2.986 -0.0017 -0.5981  0.4478
37015SOL     OW29036   6.485   8.492   7.149 -0.0582  0.6091 -0.3277
37015SOL    HW129037   6.557   8.547   7.118  1.0590 -1.1356 -0.9881
37015SOL    HW229038   6.470   8.520   7.238 -0.8417  3.2689 -1.2229
37016SOL     OW29039  11.605   6.905   5.040  0.0423  0.3024 -0.1522
37016SOL    HW129040  11.578   6.922   5.130 -1.0348  0.0547 -0.4062
37016SOL    HW229041  11.601   6.991   4.997  2.2968  0.7662  0.4243
37017SOL     OW29042   3.629   4.302   7.674 -0.1869 -0.1562  0.2546
37017SOL    HW129043   3.544   4.312   7.631  0.2498  3.3293 -0.1094
37017SOL    HW229044   3.687   4.268   7.606 -0.6304  0.3951 -0.4073
37018SOL     OW29045   7.324   7.190   7.501 -0.4245 -0.3013  0.1445
37018SOL    HW129046   7.260   7.119   7.513 -0.0379 -0.5349  0.8209
37018SOL    HW229047   7.305   7.224   7.413 -0.8900 -0.9629 -0.0175
37019SOL     OW29048  10.362   5.401   8.666  0.0456 -0.5501 -0.1417
37019SOL    HW129049  10.278   5.380   8.626  0.0453  0.0685 -0.4889
37019SOL    HW229050  10.370   5.341   8.740 -1.2529  0.1803  0.6241
37020SOL     OW29051  11.249   8.525   5.487 -0.2746 -0.0191  0.0776
37020SOL    HW129052  11.223   8.616   5.469 -0.5365  0.2504  1.7171
37020SOL    HW229053  11.194   8.473   5.428 -1.9105  0.7547  0.8623
37021SOL     OW29054   7.489   7.791   1.541  0.2579 -0.2579 -0.1437
37021SOL    HW129055   7.554   7.860   1.532  0.7516 -0.8482 -1.2183
37021SOL    HW229056   7.425   7.826   1.603  1.2130  0.6130  0.3680
37022SOL     OW29057   2.152  12.439   1.536 -0.1890  0.4538  0.0166
37022SOL    HW129058   2.061  12.415   1.518 -0.0906  0.0961 -0.0126
37022SOL    HW229059   2.198  12.355   1.546  0.4086  0.6012 -1.3229
37023SOL     OW29060   3.236   8.532   8.509  0.0413  0.2740 -1.1881
37023SOL    HW129061   3.274   8.489   8.433  1.4517 -0.4976 -0.0933
37023SOL    HW229062   3.156   8.483   8.527 -0.4802  0.6643 -2.3305
37024SOL     OW29063   7.711   7.343   4.810 -0.7410 -0.2078  0.1385
37024SOL    HW129064   7.726   7.403   4.738 -2.5207  0.4307  0.2499
37024SOL    HW229065   7.759   7.381   4.884  0.5146 -0.5011 -0.4970
37025SOL     OW29066   6.589  12.853  11.387  0.1839  0.0574  0.3579
37025SOL    HW129067   6.504  12.811  11.401  0.8312 -1.6714 -0.4952
37025SOL    HW229068   6.568  12.941  11.357 -1.2975 -0.1429  0.7343
37026SOL     OW29069  13.360  10.243   3.457 -0.0638 -0.3431 -0.0851
37026SOL    HW129070  13.446  10.273   3.486 -0.9152  1.0287  1.1175
37026SOL    HW229071  13.324  10.316   3.409 -0.3670 -1.1110 -1.0600
37027SOL     OW29072  10.090   2.747   5.834  0.0447 -0.4808 -0.4485
37027SOL    HW129073  10.025   2.795   5.884 -0.8305 -1.3744 -0.6942
37027SOL    HW229074  10.042   2.674   5.795  1.4243 -1.9630  0.4462
37028SOL     OW29075   4.037  12.630  12.739 -0.4372  0.3186 -0.9556
37028SOL    HW129076   4.104  12.685  12.780 -0.8654 -1.1136  1.9232
37028SOL    HW229077   4.085  12.574  12.678  0.7607  0.3759 -0.0854
37029SOL     OW29078  13.900  10.002  12.046  0.1320  0.4087 -0.5004
37029SOL    HW129079  13.837  10.072  12.028 -0.4371 -0.0013 -0.1533
37029SOL    HW229080  13.888   9.939  11.975  0.3713  0.4744 -0.6017
37030SOL     OW29081   2.064   1.785   2.712  0.0605  0.2920 -0.2878
37030SOL    HW129082   2.065   1.860   2.771  0.5939  1.1602 -1.3569
37030SOL    HW229083   2.002   1.724   2.751  0.8945  0.5438  1.5059
37031SOL     OW29084   9.490   1.092   4.454  0.4277  0.1440  0.0950
37031SOL    HW129085   9.501   1.083   4.549 -0.8949  2.1189  0.4934
37031SOL    HW229086   9.398   1.113   4.442  0.5183 -0.2859 -1.6784
37032SOL     OW29087   0.738   7.690   6.914  0.3738 -0.3493 -0.6600
37032SOL    HW129088   0.653   7.657   6.940  0.2033  0.5940  0.0464
37032SOL    HW229089   0.732   7.785   6.928  1.9910 -0.4024  0.7735
37033SOL     OW29090   9.081   8.153   6.814  0.4721 -0.0841  0.0097
37033SOL    HW129091   9.151   8.101   6.775 -0.1061 -0.2130 -0.8808
37033SOL    HW229092   9.042   8.200   6.741  0.5636  1.1220  0.7071
37034SOL     OW29093   8.753   4.578   6.979 -0.0557  0.0096 -0.8891
37034SOL    HW129094   8.714   4.492   6.996  1.1204 -0.7771 -1.9712
37034SOL    HW229095   8.840   4.573   7.020 -0.3227  1.0480 -0.1424
37035SOL     OW29096   7.878   9.777  11.085  0.1634  0.3886 -0.0612
37035SOL    HW129097   7.924   9.860  11.100 -0.3486  0.6845 -0.0930
37035SOL    HW229098   7.921   9.740  11.008  0.9500  0.2145  0.4563
37036SOL     OW29099   3.729   9.575  13.349 -0.2420 -0.2196 -0.7751
37036SOL    HW129100   3.761   9.661  13.320  0.9522 -0.9040 -1.5737
37036SOL    HW229101   3.714   9.527  13.268  1.6544 -1.6518 -0.3400
37037SOL     OW29102   2.449   3.488   7.413 -0.2852 -0.4193  0.1015
37037SOL    HW129103   2.413   3.456   7.496 -0.6307 -2.1077 -0.6525
37037SOL    HW229104   2.464   3.581   7.428 -0.3534 -0.6644  2.0551
37038SOL     OW29105  11.875  11.608  12.433  0.4432 -0.3294 -0.0728
37038SOL    HW129106  11.867  11.581  12.341  0.9624  0.1562 -0.2654
37038SOL    HW229107  11.909  11.697  12.429 -0.0506 -0.1037  0.5864
37039SOL     OW29108   1.108   1.837   2.968  0.0108  0.3640 -0.2923
37039SOL    HW129109   1.147   1.794   2.892 -1.5518  0.8619 -1.4146
37039SOL    HW229110   1.075   1.920   2.935 -0.7866  0.5570  0.9208
37040SOL     OW29111   3.019   7.293  12.485  0.0026  0.0229 -0.4642
37040SOL    HW129112   2.972   7.376  12.487  0.1530  0.1485 -1.6001
37040SOL    HW229113   3.105   7.314  12.448  0.7028 -0.3389  0.8798
37041SOL     OW29114   5.338   3.736   4.118 -0.4951 -0.0778 -0.2738
37041SOL    HW129115   5.332   3.769   4.208  1.7344  1.6261 -0.6750
37041SOL    HW229116   5.261   3.773   4.074 -0.5045  0.7949  0.4439
37042SOL     OW29117   0.099  10.477   0.884 -0.1926  0.2932 -0.3095
37042SOL    HW129118   0.143  10.467   0.969 -1.1917 -1.5235  0.0611
37042SOL    HW229119   0.038  10.550   0.897 -0.4540 -0.0763  0.6002
37043SOL     OW29120   9.092  13.146   2.442 -0.5214 -0.0078  0.1620
37043SOL    HW129121   9.125  13.208   2.377  1.3506 -0.1459  0.9197
37043SOL    HW229122   9.098  13.193   2.525 -3.4918  0.4038  0.2637
37044SOL     OW29123   4.841  14.024   7.618  0.0658  0.7636 -0.1125
37044SOL    HW129124   4.787  14.019   7.697  0.1476  0.8819 -0.0493
37044SOL    HW229125   4.931  14.017   7.650  0.0456 -0.7875 -0.3326
37045SOL     OW29126  12.150   0.011   3.966 -0.2228 -0.2452  0.0452
37045SOL    HW129127  12.128   0.083   4.026 -0.5606 -1.7319  1.8099
37045SOL    HW229128  12.079  -0.052   3.979  0.8469 -1.5525 -0.3215
37046SOL     OW29129  11.091   2.411   5.409 -0.3389 -0.1642 -0.3662
37046SOL    HW129130  10.997   2.393   5.414 -0.4865  0.7373  0.6455
37046SOL    HW229131  11.097   2.491   5.357 -0.4771  1.6663  2.1974
37047SOL     OW29132   3.724  13.267   8.945  0.1058  0.0277  0.4123
37047SOL    HW129133   3.643  13.243   8.991 -0.0399  0.4939  0.4028
37047SOL    HW229134   3.773  13.319   9.009  0.1155  0.2817  0.1967
37048SOL     OW29135   9.556   2.610   8.237 -0.6199  0.3037  0.6303
37048SOL    HW129136   9.489   2.666   8.276 -1.0815  0.5668 -0.5052
37048SOL    HW229137   9.596   2.564   8.311 -1.4065  0.8586  1.4042
37049SOL     OW29138  12.584   5.077  11.918  0.5831 -0.2743  0.0754
37049SOL    HW129139  12.598   5.070  11.823  0.1360  0.0808 -0.0216
37049SOL    HW229140  12.548   4.993  11.943  0.2379 -0.1992 -0.1588
37050SOL     OW29141   8.075   9.951   9.197  0.2021  0.2399  0.1115
37050SOL    HW129142   8.131   9.876   9.176  0.1981 -0.0165  0.9771
37050SOL    HW229143   7.996   9.936   9.146  0.4975  0.0454 -0.2998
37051SOL     OW29144   2.502   0.229   0.522  0.1883  0.2244 -0.3323
37051SOL    HW129145   2.416   0.271   0.527  0.3228  0.4460  0.2160
37051SOL    HW229146   2.483   0.136   0.508 -0.2174 -0.0244  1.5100
37052SOL     OW29147  10.776   2.458  11.702  0.3044  0.0978  0.5337
37052SOL    HW129148  10.705   2.407  11.740 -0.6076  0.4795 -0.5999
37052SOL    HW229149  10.734   2.534  11.663  1.5469  1.2921  1.4045
37053SOL     OW29150   9.080   4.512  14.044  0.2349 -0.2330 -0.0619
37053SOL    HW129151   9.156   4.543  14.094  0.1626 -0.3586  0.1266
37053SOL    HW229152   9.008   4.569  14.073 -0.1225 -1.1963  1.0190
37054SOL     OW29153   1.307  10.927  10.444  0.5050  0.0129 -0.2927
37054SOL    HW129154   1.369  10.865  10.481  0.4697 -0.4248 -0.9424
37054SOL    HW229155   1.226  10.913  10.492  0.9605  0.7439  0.7138
37055SOL     OW29156   6.148   9.111   1.742  0.5139 -0.4097 -0.2622
37055SOL    HW129157   6.213   9.124   1.673  0.6719 -0.2306 -0.0845
37055SOL    HW229158   6.073   9.073   1.698 -0.5660  2.4993 -1.1390
37056SOL     OW29159   1.887   4.359  13.230  0.4385  0.4404 -0.2240
37056SOL    HW129160   1.896   4.268  13.203 -1.6426  0.0913  0.0583
37056SOL    HW229161   1.951   4.370  13.300 -0.4451 -1.3332  0.9344
37057SOL     OW29162   7.087   5.753   1.371  0.2935  0.1221 -0.0896
37057SOL    HW129163   7.071   5.660   1.383  0.5304 -0.0816 -1.2728
37057SOL    HW229164   7.142   5.758   1.293  1.1088  1.1853  0.5243
37058SOL     OW29165   5.155  13.807   7.800 -0.4009  0.4331  0.1697
37058SOL    HW129166   5.145  13.732   7.859 -0.3961  0.1636 -0.1726
37058SOL    HW229167   5.239  13.794   7.757  0.4954  1.5956  1.4577
37059SOL     OW29168   6.013  13.907  12.351  0.2416 -0.3651 -0.3063
37059SOL    HW129169   6.001  13.940  12.262  3.2782 -3.6540 -2.1931
37059SOL    HW229170   6.098  13.941  12.378  1.2636 -2.6543 -0.4457
37060SOL     OW29171  10.876  13.883   8.384  0.3926  0.4380  0.3040
37060SOL    HW129172  10.915  13.797   8.368  0.3836  0.3721  0.6242
37060SOL    HW229173  10.951  13.941   8.398  0.4040 -0.0469  2.7915
37061SOL     OW29174  11.969   0.634  12.319  0.6917 -0.2803 -0.0631
37061SOL    HW129175  11.896   0.677  12.275  0.5741 -0.4806 -0.0662
37061SOL    HW229176  12.043   0.644  12.259  1.3927  2.2832  1.0942
37062SOL     OW29177   4.724  10.045  13.550 -0.0636  0.0114 -0.4661
37062SOL    HW129178   4.636  10.052  13.513 -0.7939 -1.6489  0.8352
37062SOL    HW229179   4.716  10.074  13.640  1.0535  1.1738 -0.7110
37063SOL     OW29180  12.877   3.175   1.921  0.0290  0.7258  0.1990
37063SOL    HW129181  12.931   3.242   1.965 -1.1060  1.4160  0.5797
37063SOL    HW229182  12.809   3.225   1.876  0.8745  0.0075 -2.0099
37064SOL     OW29183   7.107  13.941   8.553  0.3756 -0.3442  0.2500
37064SOL    HW129184   7.022  13.942   8.596  0.1403 -2.5826 -0.0249
37064SOL    HW229185   7.168  13.971   8.620 -0.4167 -0.3394  0.9931
37065SOL     OW29186   5.129   6.113  12.495  0.0386 -0.0656  0.1519
37065SOL    HW129187   5.091   6.179  12.437  0.0950  1.1708  1.4825
37065SOL    HW229188   5.116   6.030  12.448 -2.8771  0.4657 -0.1678
37066SOL     OW29189  10.870  13.196   2.265 -0.6158  0.1252  0.2893
37066SOL    HW129190  10.947  13.245   2.235 -0.0957 -0.3125  0.8919
37066SOL    HW229191  10.851  13.233   2.352 -1.5621  0.7586 -0.1580
37067SOL     OW29192   7.910  11.339  12.515 -0.2764  0.0987  0.5224
37067SOL    HW129193   7.834  11.283  12.496  0.2611 -0.1935 -0.8658
37067SOL    HW229194   7.894  11.418  12.464  0.7761 -0.3359 -0.5135
37068SOL     OW29195  11.327  13.180   2.726 -0.4412 -0.3948 -0.1708
37068SOL    HW129196  11.247  13.232   2.724  0.3126  0.7656 -0.7496
37068SOL    HW229197  11.300  13.094   2.692 -2.0269 -0.9309  2.1597
37069SOL     OW29198   7.979  10.814   7.938  0.6400  0.6145  0.0698
37069SOL    HW129199   8.071  10.837   7.925  0.9138 -0.0861  0.6807
37069SOL    HW229200   7.970  10.729   7.896  0.3535  0.5262  0.3084
37070SOL     OW29201   7.428  13.056   4.099  0.0186 -0.0654  0.0595
37070SOL    HW129202   7.517  13.025   4.083 -0.2203 -0.0852 -1.2812
37070SOL    HW229203   7.376  12.977   4.105 -0.1885 -0.0160 -0.9286
37071SOL     OW29204  11.539  12.473   0.554  0.3870  0.0251  0.2933
37071SOL    HW129205  11.486  12.552   0.541  0.8883 -0.0868 -3.9745
37071SOL    HW229206  11.477  12.407   0.583 -0.6068  1.2456  1.0607
37072SOL     OW29207   6.369   6.953   2.740  1.0804  0.1276 -0.2515
37072SOL    HW129208   6.463   6.971   2.731  1.0039  1.4420  1.2448
37072SOL    HW229209   6.349   6.973   2.831 -0.6426 -0.2929 -0.5030
37073SOL     OW29210   3.151  10.339  10.415 -0.2321  0.0554 -0.2333
37073SOL    HW129211   3.074  10.289  10.388 -0.3181 -0.0044  0.1057
37073SOL    HW229212   3.124  10.383  10.496  0.8772 -2.0882  1.4231
37074SOL     OW29213   4.336  12.429   9.274 -0.0287  0.2122 -0.4493
37074SOL    HW129214   4.333  12.383   9.358  0.6317  1.9755  0.6103
37074SOL    HW229215   4.277  12.504   9.286 -0.1793  0.3057 -1.6833
37075SOL     OW29216   0.450   1.328   6.772 -0.7678 -0.7705  0.4023
37075SOL    HW129217   0.405   1.362   6.694  0.9827 -0.9376 -0.7277
37075SOL    HW229218   0.417   1.239   6.781 -0.5677 -0.9578 -0.5310
37076SOL     OW29219   7.753   6.607   9.346  0.7906 -0.5211 -0.4122
37076SOL    HW129220   7.695   6.591   9.421  0.6177  1.4986 -0.0596
37076SOL    HW229221   7.695   6.645   9.279  1.5927  1.2411 -0.1644
37077SOL     OW29222   5.012  14.100   6.631 -0.2268 -0.4433  0.1689
37077SOL    HW129223   5.030  14.008   6.649 -1.5702 -0.6482  0.5843
37077SOL    HW229224   4.917  14.108   6.641 -0.1745  0.9071 -0.2372
37078SOL     OW29225  10.659   1.163  10.458 -0.1140  0.1768 -0.4845
37078SOL    HW129226  10.642   1.209  10.540 -0.9257 -0.1382 -0.4716
37078SOL    HW229227  10.658   1.231  10.391 -1.7002  0.1549 -0.5152
37079SOL     OW29228  13.448   7.476  12.655  0.3499 -0.1948  0.0086
37079SOL    HW129229  13.541   7.460  12.667  0.6181 -0.6506 -2.1697
37079SOL    HW229230  13.404   7.406  12.703  1.1089 -0.0883  0.8806
37080SOL     OW29231   9.021   0.688   8.799  0.6821 -0.5129 -0.3125
37080SOL    HW129232   9.072   0.766   8.821 -0.7225  0.2844  0.2989
37080SOL    HW229233   9.059   0.656   8.717  0.0633  1.9947 -1.6728
37081SOL     OW29234   7.311   7.115   6.246  0.1801 -0.0533  0.2083
37081SOL    HW129235   7.286   7.029   6.280 -1.2126  0.6046  0.9510
37081SOL    HW229236   7.335   7.166   6.324  1.2197  0.1839 -0.2435
37082SOL     OW29237   0.459  10.972  13.234  0.2855  0.0028 -0.1122
37082SOL    HW129238   0.415  10.976  13.149  0.5177  0.2647 -0.2220
37082SOL    HW229239   0.502  10.887  13.236  0.5416  0.1262 -0.3865
37083SOL     OW29240   6.091  13.555  11.447  0.0718  0.3750  0.2098
37083SOL    HW129241   6.091  13.651  11.443  0.0469  0.3592 -0.1930
37083SOL    HW229242   6.002  13.530  11.419  0.8603  0.1378 -2.3128
37084SOL     OW29243   7.831   9.495   4.906 -0.0376  0.2880 -0.7683
37084SOL    HW129244   7.735   9.499   4.904 -0.1200 -0.5843  0.2171
37084SOL    HW229245   7.850   9.431   4.974  1.2442 -0.0549 -1.4180
37085SOL     OW29246  12.372   2.733   6.351 -0.0791 -0.0108  0.1431
37085SOL    HW129247  12.280   2.717   6.330 -0.0848  1.1519 -0.8358
37085SOL    HW229248  12.419   2.667   6.301 -0.3893 -0.9987  1.1176
37086SOL     OW29249   3.843   0.040  10.535 -0.1650  0.0345  0.2723
37086SOL    HW129250   3.875  -0.045  10.565  1.8277  0.5775 -0.1568
37086SOL    HW229251   3.855   0.098  10.611 -0.9456  0.0629  0.3752
37087SOL     OW29252   4.965   4.648  10.983 -0.3230  0.1891  0.2433
37087SOL    HW129253   4.898   4.715  10.971  0.2331  0.6876 -0.1121
37087SOL    HW229254   4.937   4.576  10.927 -0.8231  0.1887  0.4855
37088SOL     OW29255   0.634   7.206  13.921  0.3240 -0.4439 -0.6374
37088SOL    HW129256   0.716   7.180  13.879 -0.1081 -0.6290 -1.3768
37088SOL    HW229257   0.625   7.299  13.900  1.7371  0.3173  1.7879
37089SOL     OW29258  11.333  10.742   4.881 -0.0990  0.1201 -0.2050
37089SOL    HW129259  11.256  10.685   4.884 -0.4283  0.6029  0.9241
37089SOL    HW229260  11.305  10.823   4.923  0.5398  0.9218 -1.2635
37090SOL     OW29261   3.728   3.345   7.438  0.8590  0.1836 -0.0360
37090SOL    HW129262   3.684   3.406   7.378  0.1255 -0.4628 -0.1731
37090SOL    HW229263   3.659   3.315   7.497  1.5541  0.7217  1.0805
37091SOL     OW29264  10.801  10.494  13.939 -0.5974 -0.4141  1.1004
37091SOL    HW129265  10.719  10.457  13.973 -0.1068 -1.7693  0.8482
37091SOL    HW229266  10.858  10.498  14.016 -0.6217 -0.2290  1.1102
37092SOL     OW29267   0.885   4.196   6.345 -0.9780 -0.0839 -0.7850
37092SOL    HW129268   0.875   4.118   6.400  2.9870  0.2506  0.7319
37092SOL    HW229269   0.884   4.269   6.407  0.7311  0.5641 -1.4729
37093SOL     OW29270   8.357  13.685   0.663 -0.5443 -0.0850 -0.2653
37093SOL    HW129271   8.447  13.696   0.696 -0.1977 -2.1330 -0.4241
37093SOL    HW229272   8.302  13.704   0.739  0.1040 -0.5682  0.3411
37094SOL     OW29273   6.923  11.040   9.110 -0.3829 -0.4831  0.1331
37094SOL    HW129274   6.994  10.980   9.133 -0.9521 -1.6039 -0.9005
37094SOL    HW229275   6.869  11.046   9.189  0.0503 -0.8124  0.4575
37095SOL     OW29276   6.336   0.512  13.644  0.2858 -0.6955  0.3141
37095SOL    HW129277   6.421   0.469  13.632  0.8594  0.1736  1.1392
37095SOL    HW229278   6.300   0.518  13.556  0.6697 -1.8899  0.0596
37096SOL     OW29279  10.665  11.062   0.489  0.4623  0.2629  0.3506
37096SOL    HW129280  10.599  11.118   0.447  0.6157 -0.4166 -0.8459
37096SOL    HW229281  10.634  11.052   0.579  0.3159  2.0789  0.5399
37097SOL     OW29282   0.168   1.774   9.221  0.8866 -0.3519 -0.2159
37097SOL    HW129283   0.206   1.761   9.308  0.4446  0.8632  0.1690
37097SOL    HW229284   0.227   1.835   9.178  1.0865 -0.9273 -0.7718
37098SOL     OW29285  10.449   8.658  12.600 -0.3724  0.1521  0.3684
37098SOL    HW129286  10.476   8.588  12.541  0.3175  0.1894  0.6251
37098SOL    HW229287  10.386   8.617  12.660 -0.5912 -0.0398  0.0050
37099SOL     OW29288  13.305   9.514   5.163  0.1029  0.0362 -0.5248
37099SOL    HW129289  13.248   9.522   5.239  0.4845 -0.7004 -0.1511
37099SOL    HW229290  13.321   9.604   5.135 -0.0379  0.3137  0.2702
37100SOL     OW29291  11.987   0.050   2.479 -0.1846  0.2231  0.4813
37100SOL    HW129292  11.942   0.085   2.556  0.1339  0.7291  0.4381
37100SOL    HW229293  11.981  -0.045   2.489  0.1093  0.2807  1.2876
37101SOL     OW29294   6.976   1.873  13.284  0.5476 -0.0639  0.9166
37101SOL    HW129295   6.909   1.808  13.264  0.9099 -0.4114  0.7960
37101SOL    HW229296   7.042   1.825  13.334  0.4095  0.4231  1.5754
37102SOL     OW29297  12.649   5.644   5.250  0.6287  0.5170 -0.0675
37102SOL    HW129298  12.582   5.661   5.184  1.9184 -0.4581 -1.7046
37102SOL    HW229299  12.606   5.586   5.313 -0.2645  0.4294 -0.7336
37103SOL     OW29300  11.969   2.039   0.890  0.1833  0.0208 -0.1951
37103SOL    HW129301  12.037   1.971   0.894  0.6293  0.5219  1.8670
37103SOL    HW229302  11.889   1.990   0.871  0.6795 -0.9325  0.0636
37104SOL     OW29303   5.675   5.399  12.464  0.2464 -0.0279 -0.1409
37104SOL    HW129304   5.702   5.342  12.537 -0.0330 -0.1877 -0.1619
37104SOL    HW229305   5.754   5.406  12.410  0.8506  1.1681  0.8566
37105SOL     OW29306   1.324   6.529   3.233  0.3530 -0.4008 -0.5886
37105SOL    HW129307   1.296   6.443   3.203 -1.1581 -0.4441  0.7816
37105SOL    HW229308   1.382   6.512   3.307 -1.0635 -0.3033  0.6095
37106SOL     OW29309   4.007   8.349   2.576 -0.0592 -0.0744 -0.4554
37106SOL    HW129310   4.033   8.266   2.535 -0.9927 -0.0980 -1.0472
37106SOL    HW229311   4.025   8.337   2.669  0.2611 -0.7710 -0.6037
37107SOL     OW29312   8.019   0.673   9.545 -0.4885  0.3738 -0.0994
37107SOL    HW129313   8.110   0.643   9.536 -0.9138 -1.4735  1.1218
37107SOL    HW229314   8.026   0.756   9.592  0.5882  0.4401 -0.3393
37108SOL     OW29315   0.853   7.997   6.346 -0.0706  0.3811  0.2312
37108SOL    HW129316   0.905   7.920   6.366  1.1517  1.2102  0.3825
37108SOL    HW229317   0.914   8.070   6.357 -1.8260  1.6255  2.7143
37109SOL     OW29318   6.843   7.066   8.151 -0.1090  0.0181 -0.1470
37109SOL    HW129319   6.815   7.072   8.243 -0.6410  1.7249 -0.3935
37109SOL    HW229320   6.900   6.989   8.149  0.2624  0.1825  1.7090
37110SOL     OW29321  11.867   1.190  10.491 -0.9219  0.4377 -0.0057
37110SOL    HW129322  11.829   1.171  10.405 -2.6238  0.6265  0.6633
37110SOL    HW229323  11.857   1.109  10.540 -1.4671  0.8128  0.5184
37111SOL     OW29324   7.080   7.857  12.289 -0.0708 -0.1330  0.4920
37111SOL    HW129325   7.000   7.905  12.309 -0.8790 -0.9751 -0.5821
37111SOL    HW229326   7.123   7.910  12.221  0.5604  0.5667  1.4031
37112SOL     OW29327  11.736   1.278   9.395  0.1063 -0.3859  0.1856
37112SOL    HW129328  11.742   1.343   9.465  1.8787 -1.5777  1.2139
37112SOL    HW229329  11.763   1.325   9.316  0.0504  0.4695  0.6648
37113SOL     OW29330  11.874  14.116   1.788 -0.1608 -0.3190 -0.2544
37113SOL    HW129331  11.952  14.169   1.805 -1.5115  1.6210  0.2726
37113SOL    HW229332  11.876  14.047   1.854  0.4862  0.4056  0.5003
37114SOL     OW29333   4.140   3.217   6.765  0.2433 -0.0863  0.1121
37114SOL    HW129334   4.137   3.124   6.789  0.8004 -0.3302 -0.7199
37114SOL    HW229335   4.048   3.244   6.761  0.0190 -0.9268 -0.8389
37115SOL     OW29336  12.642   8.009   3.809 -0.1645 -0.2849 -0.0408
37115SOL    HW129337  12.629   8.084   3.751  0.0171 -1.7517 -2.0777
37115SOL    HW229338  12.555   7.971   3.821 -0.2645  0.2226  1.0295
37116SOL     OW29339  14.004   2.566   8.657  0.2869  0.0323  0.2727
37116SOL    HW129340  14.056   2.555   8.737  1.5211  3.8918  0.2128
37116SOL    HW229341  14.060   2.531   8.588  0.4197 -0.7974  0.7837
37117SOL     OW29342  10.044   1.639   7.400  0.7506 -0.1550 -0.1739
37117SOL    HW129343  10.039   1.702   7.327  0.0717  0.5859  0.4776
37117SOL    HW229344  10.080   1.690   7.472  0.6805 -0.6679  0.2243
37118SOL     OW29345  13.329   6.180   5.127 -0.6833  0.5857  0.2477
37118SOL    HW129346  13.234   6.175   5.139 -0.5599 -0.6654  0.8456
37118SOL    HW229347  13.342   6.150   5.037 -0.7265 -1.1727  0.7909
37119SOL     OW29348   5.475   7.276  13.163  0.6424 -0.0638  0.1027
37119SOL    HW129349   5.445   7.314  13.246 -0.1006  0.4842 -0.4161
37119SOL    HW229350   5.510   7.350  13.113  2.9483 -0.6731  0.6902
37120SOL     OW29351   3.028   9.202   6.202  0.0247  0.8678  0.5427
37120SOL    HW129352   2.988   9.116   6.219  0.7416  0.3405 -0.3055
37120SOL    HW229353   2.997   9.258   6.273 -1.5458  0.2704  0.3573
37121SOL     OW29354  11.060   8.338  10.265  0.0194  0.3850 -0.1345
37121SOL    HW129355  11.041   8.431  10.252  0.9077  0.4279 -1.2942
37121SOL    HW229356  11.007   8.313  10.341 -1.5931  1.4029 -0.8633
37122SOL     OW29357   0.391   7.043   9.224  0.0933 -0.1462  0.6692
37122SOL    HW129358   0.410   6.950   9.213 -0.7490 -0.1028 -1.6412
37122SOL    HW229359   0.309   7.045   9.273 -1.6997 -0.8141 -2.0926
37123SOL     OW29360  10.900  13.286   5.890 -0.0869 -0.7155 -0.1537
37123SOL    HW129361  10.981  13.254   5.852  0.3378 -0.6378  0.6728
37123SOL    HW229362  10.886  13.371   5.848  0.2170 -0.7603 -0.3507
37124SOL     OW29363   1.412   6.762   8.155  0.1407  0.2288 -0.2644
37124SOL    HW129364   1.475   6.817   8.108 -1.3924  2.5974  0.2695
37124SOL    HW229365   1.458   6.739   8.236  1.1047  0.0260 -0.8491
37125SOL     OW29366   1.105   0.470  12.663  0.1607 -0.0683  0.0431
37125SOL    HW129367   1.054   0.430  12.734 -1.5784 -0.3958 -1.3109
37125SOL    HW229368   1.184   0.502  12.706 -1.8081  1.8534  2.6117
37126SOL     OW29369  11.468   2.055   6.132  0.2677 -0.6027  0.0935
37126SOL    HW129370  11.415   1.982   6.100 -2.1384  1.4466 -0.9820
37126SOL    HW229371  11.435   2.071   6.221  0.2489 -0.3427  0.0384
37127SOL     OW29372  11.385   2.076   6.377  0.1146  0.3035 -0.0421
37127SOL    HW129373  11.444   2.050   6.448  0.5581  1.1829 -0.0736
37127SOL    HW229374  11.298   2.052   6.409  0.4262 -0.4081  0.2860
37128SOL     OW29375   6.904   8.100  10.183  0.3588  0.0272 -0.8862
37128SOL    HW129376   6.859   8.036  10.238  2.1088  0.4641  1.2122
37128SOL    HW229377   6.894   8.066  10.094 -0.1306 -2.3054 -0.0227
37129SOL     OW29378  12.461  13.459  10.327 -0.0505 -0.2041 -0.6851
37129SOL    HW129379  12.402  13.511  10.382  0.4868  0.7438 -0.9875
37129SOL    HW229380  12.457  13.371  10.365 -0.0188  0.3315  0.6188
37130SOL     OW29381   8.441  13.894   2.901 -0.1402  0.1308  0.3189
37130SOL    HW129382   8.518  13.840   2.921 -1.1338 -0.9138  1.5664
37130SOL    HW229383   8.385  13.837   2.849 -0.2561  0.7369 -0.2285
37131SOL     OW29384   0.293   1.110   6.840 -0.6359 -0.0179 -0.0783
37131SOL    HW129385   0.222   1.051   6.864 -1.5421  1.1264  0.1233
37131SOL    HW229386   0.349   1.113   6.918 -1.2288  0.2984  0.3433
37132SOL     OW29387  10.835   3.096   6.787 -0.2804  0.5115  0.2336
37132SOL    HW129388  10.930   3.088   6.777 -0.3608 -4.1856  0.6311
37132SOL    HW229389  10.802   3.111   6.698  0.7530 -2.8782 -0.8764
37133SOL     OW29390  12.383   0.037  10.496 -0.5354 -0.0428  0.4093
37133SOL    HW129391  12.379   0.003  10.586 -2.7676 -0.5923  0.1635
37133SOL    HW229392  12.390  -0.042  10.441 -0.4060  0.2274  0.0324
37134SOL     OW29393   2.977   7.642  13.225  0.3022  0.1516 -0.1246
37134SOL    HW129394   2.941   7.581  13.161  2.5862 -1.0048 -0.4006
37134SOL    HW229395   2.906   7.656  13.288 -1.1054 -0.7570 -1.4527
37135SOL     OW29396  10.441   5.491  11.481  0.2216  0.0159  0.1237
37135SOL    HW129397  10.376   5.457  11.543  1.7089  0.8953  2.2800
37135SOL    HW229398  10.418   5.450  11.398 -1.2267 -2.0722  1.4605
37136SOL     OW29399  12.104   8.294  10.425  0.1145 -0.2464  0.2103
37136SOL    HW129400  12.166   8.235  10.383 -0.5406 -1.6999  1.2023
37136SOL    HW229401  12.018   8.261  10.400 -0.2752  0.6186  0.3584
37137SOL     OW29402   8.441   6.070   0.961  0.2081  0.0868 -0.1088
37137SOL    HW129403   8.514   6.014   0.988  1.0103  0.8219 -0.6938
37137SOL    HW229404   8.429   6.051   0.868 -0.0776  0.2691 -0.1101
37138SOL     OW29405  10.271   2.656  10.076 -0.2630  0.5482 -0.9003
37138SOL    HW129406  10.356   2.643  10.033  0.3361  0.3896  0.3075
37138SOL    HW229407  10.269   2.589  10.144 -1.0611  1.0142 -0.4631
37139SOL     OW29408   3.521  10.743   3.445 -0.4090 -0.2191 -0.1851
37139SOL    HW129409   3.443  10.798   3.435  0.4298  0.9370 -0.6935
37139SOL    HW229410   3.570  10.785   3.515  0.4731 -0.0266 -0.9038
37140SOL     OW29411   2.550  11.201   4.538 -0.0867  0.1925  0.2999
37140SOL    HW129412   2.507  11.123   4.573 -1.1998  1.0345  0.8803
37140SOL    HW229413   2.629  11.211   4.590  0.3401 -0.8433 -0.1369
37141SOL     OW29414   7.274  12.976   9.342 -0.2479  0.8432 -0.6300
37141SOL    HW129415   7.194  13.027   9.351 -0.9645 -0.4885  1.0565
37141SOL    HW229416   7.343  13.042   9.332 -1.2959  2.1117  0.1737
37142SOL     OW29417   6.035  11.277   8.836 -0.1003 -0.2252 -0.6699
37142SOL    HW129418   6.040  11.185   8.864  0.3461 -0.5055 -1.6238
37142SOL    HW229419   5.979  11.319   8.901  1.9083 -0.5554  1.4045
37143SOL     OW29420   0.121   4.593  10.176  0.0725  0.4433  0.7474
37143SOL    HW129421   0.092   4.515  10.130 -1.3393  0.4918  1.5024
37143SOL    HW229422   0.152   4.561  10.261  1.6398  0.4777  0.2248
37144SOL     OW29423   3.010   1.135   7.709 -0.5014 -0.1835 -0.6789
37144SOL    HW129424   3.010   1.039   7.710  0.4463 -0.2667 -2.8064
37144SOL    HW229425   2.925   1.159   7.672 -0.2505 -0.2605 -1.3144
37145SOL     OW29426  12.892   4.189  13.253  0.2705 -0.8009 -0.1545
37145SOL    HW129427  12.986   4.180  13.238  0.1154  0.2180 -2.1884
37145SOL    HW229428  12.852   4.142  13.180 -0.7547 -0.1366 -0.0382
37146SOL     OW29429  13.411   6.245  10.992 -0.4296  0.0306  0.0189
37146SOL    HW129430  13.462   6.165  10.982 -0.2164  0.2212 -0.4483
37146SOL    HW229431  13.476   6.311  11.020 -0.5289  0.1383 -0.0052
37147SOL     OW29432   4.539  12.847   5.779 -0.2919 -0.4225 -0.1781
37147SOL    HW129433   4.518  12.932   5.817 -0.3669 -0.0706 -0.9765
37147SOL    HW229434   4.563  12.793   5.854  1.2664  0.7421  0.2349
37148SOL     OW29435   5.899   9.136  13.156 -0.1950  0.4546  0.1162
37148SOL    HW129436   5.819   9.120  13.207 -0.4209 -0.3091 -0.4659
37148SOL    HW229437   5.970   9.117  13.218 -0.4568 -1.7490 -0.1876
37149SOL     OW29438   3.673  11.744   5.335 -0.8490  0.3755  0.0967
37149SOL    HW129439   3.671  11.823   5.388 -2.0239  0.3762  0.0778
37149SOL    HW229440   3.583  11.735   5.303 -0.4958 -0.4236 -0.7026
37150SOL     OW29441   1.706   1.214   6.728 -0.1190  0.2018  0.4364
37150SOL    HW129442   1.781   1.229   6.670  0.5048 -2.5183  0.3730
37150SOL    HW229443   1.738   1.242   6.814  0.4130  0.5178  0.1466
37151SOL     OW29444   7.396  12.261   1.625  0.1884 -0.3140 -0.1907
37151SOL    HW129445   7.394  12.234   1.534 -1.3115 -2.7268  0.4708
37151SOL    HW229446   7.408  12.180   1.674 -3.8110  0.0891  1.9270
37152SOL     OW29447  10.325   5.881   9.037 -0.0127  0.2257 -0.5891
37152SOL    HW129448  10.382   5.810   9.010  0.1230  0.3476 -0.6268
37152SOL    HW229449  10.261   5.841   9.096 -0.6019 -0.1364 -1.4575
37153SOL     OW29450   9.685   8.229   9.709 -0.4066 -0.5427  0.0480
37153SOL    HW129451   9.627   8.156   9.731 -0.6797 -0.4069 -0.2228
37153SOL    HW229452   9.773   8.192   9.711 -0.5436 -0.8705 -0.0482
37154SOL     OW29453  11.305   0.552  12.400 -0.1693 -0.7455  0.2874
37154SOL    HW129454  11.364   0.600  12.341 -1.8378  0.4649 -0.4656
37154SOL    HW229455  11.336   0.574  12.488  1.3127 -1.2300 -0.0851
37155SOL     OW29456  12.533  13.831   0.523  0.1070 -0.0603 -0.1194
37155SOL    HW129457  12.599  13.892   0.554 -0.8234  0.6244  0.5865
37155SOL    HW229458  12.578  13.747   0.517  0.3517 -0.3026  3.2991
37156SOL     OW29459   9.467   5.354   7.654  0.4269  0.0199 -0.3104
37156SOL    HW129460   9.529   5.287   7.626  1.3996  0.2438  1.1762
37156SOL    HW229461   9.450   5.333   7.746 -0.7563  0.6908 -0.3654
37157SOL     OW29462   7.955   1.231   3.801 -0.3745 -0.0808  0.5530
37157SOL    HW129463   7.873   1.218   3.849 -1.1134  0.7015 -0.4230
37157SOL    HW229464   7.980   1.321   3.821 -0.4393  0.0953 -0.1193
37158SOL     OW29465   7.627   3.537   8.495 -0.1963 -0.2436  0.2453
37158SOL    HW129466   7.648   3.451   8.459  1.0012 -0.8865  2.2602
37158SOL    HW229467   7.650   3.530   8.588 -1.3608  1.8424  0.7575
37159SOL     OW29468   0.470  12.493   4.565 -0.0436  0.0360  0.4460
37159SOL    HW129469   0.382  12.527   4.582  0.3920  1.5777 -0.1911
37159SOL    HW229470   0.470  12.473   4.471 -0.1878 -1.4932  0.7484
37160SOL     OW29471  12.633   1.535   1.783 -0.2398  0.5150  0.5564
37160SOL    HW129472  12.668   1.470   1.722  0.6782  1.2020  0.3340
37160SOL    HW229473  12.694   1.535   1.856 -0.4405  0.8772  0.7245
37161SOL     OW29474   4.177   0.454  14.108 -0.5394  0.4361 -0.3876
37161SOL    HW129475   4.180   0.439  14.014 -1.0502 -0.6594 -0.2468
37161SOL    HW229476   4.086   0.436  14.132  0.0616 -1.4209  0.6376
37162SOL     OW29477   6.785   1.209  11.420 -0.4770  0.1844 -0.3822
37162SOL    HW129478   6.875   1.199  11.450 -0.0144 -0.9946 -2.0046
37162SOL    HW229479   6.749   1.281  11.473  1.3287  0.5341  0.4302
37163SOL     OW29480  11.005  11.873   1.693 -0.5938  0.1280  0.4710
37163SOL    HW129481  10.959  11.862   1.777 -2.3562 -1.8545 -0.6463
37163SOL    HW229482  11.054  11.792   1.682  0.2781  0.7114 -0.0579
37164SOL     OW29483  13.471  11.428   9.361  0.0907  0.5783  0.4900
37164SOL    HW129484  13.474  11.515   9.401  1.0697  0.4706  0.6694
37164SOL    HW229485  13.538  11.430   9.293 -1.4546  0.7070 -1.1053
37165SOL     OW29486   5.993   0.507   3.516  0.6282 -0.4983 -0.4614
37165SOL    HW129487   6.061   0.525   3.451 -0.4108  1.2033 -1.1638
37165SOL    HW229488   6.011   0.568   3.587  0.1024 -0.3371 -0.4616
37166SOL     OW29489  10.334   9.617   9.144 -0.4408 -0.2628 -0.1636
37166SOL    HW129490  10.338   9.615   9.239  0.6429  0.6056 -0.1715
37166SOL    HW229491  10.423   9.600   9.115 -0.3379  1.3846 -0.9650
37167SOL     OW29492  11.462   5.217  13.130  0.1312 -0.8694  0.0115
37167SOL    HW129493  11.486   5.263  13.050  2.7962 -1.0174  0.6465
37167SOL    HW229494  11.371   5.190  13.116 -0.1078  0.7919 -2.1278
37168SOL     OW29495   0.587   3.248   8.125 -0.2158 -0.2485 -0.1809
37168SOL    HW129496   0.673   3.205   8.118 -1.0714 -2.1400  0.3392
37168SOL    HW229497   0.586   3.310   8.052  1.2117 -0.8906 -0.7986
37169SOL     OW29498   6.136   5.846   8.536  0.0610  0.0541 -1.0488
37169SOL    HW129499   6.157   5.768   8.588  0.4376  1.0901  0.4078
37169SOL    HW229500   6.068   5.891   8.586  0.9974  1.4895 -1.0245
37170SOL     OW29501   5.800  11.346   3.720 -0.0863  0.0998  0.1371
37170SOL    HW129502   5.855  11.386   3.788 -0.5883 -0.2122  0.7330
37170SOL    HW229503   5.712  11.347   3.757 -0.3552 -0.1157 -0.4933
37171SOL     OW29504   1.135   4.581  12.369 -0.2174  0.4632 -0.0649
37171SOL    HW129505   1.051   4.599  12.410  0.4584  1.4439  0.9595
37171SOL    HW229506   1.168   4.667  12.342  1.4433  0.4200  1.5946
37172SOL     OW29507   9.370   6.138   9.797  0.5778  0.3335 -0.0671
37172SOL    HW129508   9.304   6.168   9.859  0.8633  0.4059  0.2031
37172SOL    HW229509   9.404   6.218   9.758  1.2179  0.3605  0.5301
37173SOL     OW29510  12.166   1.550   0.351  0.3475  0.0034  0.1578
37173SOL    HW129511  12.208   1.550   0.438 -0.5405  0.3190  0.5983
37173SOL    HW229512  12.239   1.541   0.290  1.2277  1.9086  0.8319
37174SOL     OW29513   2.658   7.972   4.583 -0.1286  0.0728  0.6485
37174SOL    HW129514   2.718   8.044   4.603  0.5558 -0.6638  1.3552
37174SOL    HW229515   2.594   7.974   4.654  0.0930 -0.2141  0.8611
37175SOL     OW29516   5.428  11.887  10.746 -0.7165  0.2922 -0.1715
37175SOL    HW129517   5.439  11.829  10.671 -1.3204 -0.3537  0.2278
37175SOL    HW229518   5.514  11.928  10.757 -0.2974 -0.4659 -0.5108
37176SOL     OW29519   1.438   7.377  13.778  0.5745 -0.4813  0.1239
37176SOL    HW129520   1.419   7.285  13.759  0.2462 -0.3089 -0.4057
37176SOL    HW229521   1.372   7.403  13.843  1.1643 -0.8361  0.8727
37177SOL     OW29522   8.631   2.505  10.240  0.1964  0.4793 -0.6205
37177SOL    HW129523   8.703   2.568  10.246 -0.2903  1.1715 -1.7125
37177SOL    HW229524   8.611   2.501  10.146 -0.4229 -0.5787 -0.4540
37178SOL     OW29525   4.353  12.625   0.314  0.0640  0.0393  0.0634
37178SOL    HW129526   4.375  12.690   0.381  0.6096  1.3877 -1.3691
37178SOL    HW229527   4.265  12.596   0.337  0.4527  0.0192  1.6897
37179SOL     OW29528  12.084   8.597   0.881  0.2971  0.3081  0.3113
37179SOL    HW129529  12.058   8.558   0.965  2.2231  0.1233  0.8753
37179SOL    HW229530  12.017   8.663   0.864  1.2418  2.3069  3.4187
37180SOL     OW29531  12.833   2.242   5.609  0.0417 -0.0395  0.0955
37180SOL    HW129532  12.821   2.220   5.517  2.2798  0.9884 -0.5147
37180SOL    HW229533  12.838   2.158   5.654  2.0497 -0.6828 -1.2188
37181SOL     OW29534   3.555  14.026   2.191  0.2017 -0.0984 -0.2078
37181SOL    HW129535   3.581  14.089   2.258  3.4463 -1.6036  0.1246
37181SOL    HW229536   3.486  13.975   2.233  0.7217  0.3182  1.2311
37182SOL     OW29537  10.552   5.665   0.414 -0.2640  0.7882 -0.2671
37182SOL    HW129538  10.641   5.698   0.408 -0.4540  1.0471 -2.3260
37182SOL    HW229539  10.533   5.663   0.508  2.7162 -1.5248  0.4516
37183SOL     OW29540   4.396   0.076   9.054 -0.3604 -0.0327 -0.0591
37183SOL    HW129541   4.422   0.149   8.998 -0.4506  0.3889  0.4406
37183SOL    HW229542   4.478   0.048   9.096 -0.1331 -0.9254 -1.0518
37184SOL     OW29543   1.368   2.841   0.761 -0.1535  0.0552  0.5692
37184SOL    HW129544   1.398   2.751   0.750  0.6087  0.5137 -1.4247
37184SOL    HW229545   1.304   2.836   0.832 -1.4692 -2.3652 -0.6525
37185SOL     OW29546   6.464   3.768   9.606  0.0020  0.1547 -0.4303
37185SOL    HW129547   6.436   3.690   9.558 -0.2648  1.5020 -2.5830
37185SOL    HW229548   6.558   3.774   9.590  0.7109 -1.4181  2.4146
37186SOL     OW29549   8.984  11.320  10.771  0.2150  0.4855  0.1515
37186SOL    HW129550   9.020  11.240  10.734 -1.0759 -1.1780  2.2547
37186SOL    HW229551   8.947  11.367  10.696 -0.2739 -1.5963 -0.9803
37187SOL     OW29552   4.096  10.876  11.589 -0.6298 -0.4390  0.2526
37187SOL    HW129553   4.145  10.794  11.586  1.0500  0.5321 -1.2979
37187SOL    HW229554   4.157  10.942  11.554 -1.6690  1.6159  2.0753
37188SOL     OW29555   2.279  13.636   4.045 -0.3046  0.0732 -0.1516
37188SOL    HW129556   2.237  13.708   4.093 -0.7917  0.0126 -0.4783
37188SOL    HW229557   2.320  13.583   4.113 -1.1218 -0.0969  0.2237
37189SOL     OW29558  10.383  13.103  12.073  0.1205  0.0306  0.4094
37189SOL    HW129559  10.354  13.042  12.141 -1.0971  1.4639  1.2632
37189SOL    HW229560  10.350  13.066  11.991 -2.0210  0.2956  1.0766
37190SOL     OW29561  13.321   4.068   1.260  0.7716  0.1475  0.2478
37190SOL    HW129562  13.392   4.126   1.232 -0.7774  1.2232 -1.6826
37190SOL    HW229563  13.242   4.122   1.254 -0.4610 -1.5493  0.4935
37191SOL     OW29564  13.299   2.223   9.411 -0.1387  0.3646  0.0249
37191SOL    HW129565  13.209   2.199   9.390 -0.4729  1.2603  0.3784
37191SOL    HW229566  13.291   2.300   9.468  0.8143 -0.3120  1.1156
37192SOL     OW29567   6.340  10.714   2.108 -0.5646  0.1558 -0.0315
37192SOL    HW129568   6.333  10.761   2.191 -0.5910  0.8996 -0.4466
37192SOL    HW229569   6.269  10.650   2.110  0.8900 -1.5130  1.5651
37193SOL     OW29570   6.683   4.652   5.216 -0.2397  0.6302  0.0865
37193SOL    HW129571   6.764   4.619   5.256 -0.8551 -0.7651  0.2369
37193SOL    HW229572   6.693   4.635   5.123 -0.4028  0.3656  0.1175
37194SOL     OW29573  13.319   3.308   1.388  0.0629  0.3201 -0.4757
37194SOL    HW129574  13.343   3.322   1.479  1.7114  0.8785 -0.9680
37194SOL    HW229575  13.239   3.360   1.376  0.4709  1.1646  0.3595
37195SOL     OW29576   7.107  12.031   4.287 -0.1367 -0.8449  0.3235
37195SOL    HW129577   7.188  12.076   4.312  0.7255 -2.2867  0.2414
37195SOL    HW229578   7.059  12.021   4.369 -0.6129  0.6489  0.2732
37196SOL     OW29579   7.728  11.149   0.792 -0.5086 -0.3074 -0.4141
37196SOL    HW129580   7.823  11.148   0.807 -0.5901 -1.0500  0.0751
37196SOL    HW229581   7.697  11.067   0.829 -1.1509 -0.7476 -1.8553
37197SOL     OW29582  10.363  10.372  13.359  0.4207  0.1324  0.1534
37197SOL    HW129583  10.328  10.436  13.420  0.1669 -0.6350  0.8230
37197SOL    HW229584  10.359  10.416  13.274 -0.4267  0.7373  0.4903
37198SOL     OW29585  12.967   3.364  11.824  0.4929 -0.2230  0.1954
37198SOL    HW129586  13.047   3.312  11.833  0.6412 -0.4177 -1.7981
37198SOL    HW229587  12.997   3.449  11.791 -0.1517 -0.5289 -1.2332
37199SOL     OW29588   1.598   0.054   4.502 -0.2797  0.2046 -0.3663
37199SOL    HW129589   1.563  -0.028   4.468 -0.8848  0.1372  0.3905
37199SOL    HW229590   1.523   0.113   4.506 -0.0884  0.4221  0.1998
37200SOL     OW29591   2.466  12.145  13.648 -0.0896  0.2015  0.2336
37200SOL    HW129592   2.381  12.187  13.637 -0.3194 -0.1635  0.5696
37200SOL    HW229593   2.528  12.217  13.660 -0.2363  0.4992 -0.7059
37201SOL     OW29594  13.567   8.979  12.411  0.4903 -0.0176  0.1434
37201SOL    HW129595  13.526   9.065  12.409  0.4990 -0.0061 -2.0480
37201SOL    HW229596  13.494   8.918  12.401  0.6450 -0.1688 -0.0746
37202SOL     OW29597   6.324   3.216   9.102  0.2583  0.2050 -0.2013
37202SOL    HW129598   6.370   3.173   9.174  0.1122  0.7192  0.2035
37202SOL    HW229599   6.361   3.177   9.023 -0.3709 -1.1826  0.1649
37203SOL     OW29600   0.756   2.119   6.044 -0.2373 -0.9576 -0.1014
37203SOL    HW129601   0.710   2.035   6.045 -0.5862 -0.7800 -0.6599
37203SOL    HW229602   0.847   2.097   6.064 -0.1541 -1.5767 -1.1101
37204SOL     OW29603  11.795   0.881   8.652 -0.3263 -0.1284 -0.3522
37204SOL    HW129604  11.784   0.787   8.640 -1.4888 -0.0170 -0.2069
37204SOL    HW229605  11.707   0.918   8.643  0.0762  0.9243 -0.1857
37205SOL     OW29606  13.266   6.936   5.455 -0.3317 -0.0947  0.7915
37205SOL    HW129607  13.353   6.905   5.429  0.2992  1.9384  0.3143
37205SOL    HW229608  13.257   7.022   5.413 -2.8960 -0.5524  0.2339
37206SOL     OW29609   6.488   5.402   1.569  0.0516  0.1048 -0.4568
37206SOL    HW129610   6.438   5.326   1.539  0.1198 -0.5349  0.9761
37206SOL    HW229611   6.422   5.463   1.601  0.0889 -0.1089  0.0393
37207SOL     OW29612   9.780   1.383  10.480 -0.3941 -0.2415  0.1557
37207SOL    HW129613   9.743   1.429  10.555 -0.4173 -0.7050  0.4373
37207SOL    HW229614   9.832   1.312  10.519  0.4271  0.1300 -0.2430
37208SOL     OW29615  13.059   7.073   0.722 -0.5510  0.3410 -0.1475
37208SOL    HW129616  13.102   7.148   0.762 -2.0688 -0.0850  2.4979
37208SOL    HW229617  13.075   7.083   0.628  3.7492  1.0871  0.4569
37209SOL     OW29618   6.279  10.177   7.217 -0.3319  0.2454  0.9459
37209SOL    HW129619   6.352  10.233   7.191  0.2952 -1.3620 -1.0488
37209SOL    HW229620   6.202  10.233   7.210  0.0339  0.5443 -2.7252
37210SOL     OW29621   1.842   0.864   0.200  0.2113 -0.3472 -0.0050
37210SOL    HW129622   1.935   0.843   0.193  0.1409 -0.3970 -0.9059
37210SOL    HW229623   1.837   0.931   0.268  0.7590 -1.2056  0.9053
37211SOL     OW29624   8.293  12.318  10.030  0.7037 -0.0526 -0.4239
37211SOL    HW129625   8.256  12.392  10.078  1.2701  0.4663 -0.7679
37211SOL    HW229626   8.307  12.250  10.096  0.6155  0.3182 -0.0227
37212SOL     OW29627  12.244  12.373  10.727 -0.3834  0.1491  0.0662
37212SOL    HW129628  12.198  12.302  10.771 -1.9478  1.0180 -0.1253
37212SOL    HW229629  12.285  12.423  10.797  0.0670 -0.4741  0.2545
37213SOL     OW29630  11.189   7.933   0.253  0.0911  0.6579 -0.3338
37213SOL    HW129631  11.104   7.909   0.219 -0.3988  1.0473  0.5628
37213SOL    HW229632  11.212   7.863   0.314  0.3670  0.6063 -0.4928
37214SOL     OW29633   2.974  13.524   6.137  0.0362 -0.2299 -0.1769
37214SOL    HW129634   2.942  13.444   6.095  1.7965 -0.4772 -1.1445
37214SOL    HW229635   2.989  13.584   6.065 -0.4621  0.7039  0.4739
37215SOL     OW29636   1.155   7.293   9.094 -0.3283 -0.5924  0.0435
37215SOL    HW129637   1.213   7.271   9.021 -1.0009  0.5905 -0.8914
37215SOL    HW229638   1.106   7.369   9.063 -1.1206 -0.4836  1.4848
37216SOL     OW29639   8.938   2.656   3.160 -0.1027  0.2632 -0.1180
37216SOL    HW129640   8.848   2.672   3.189 -0.3563  1.6493 -1.5302
37216SOL    HW229641   8.986   2.635   3.240 -1.7320 -0.8289  0.6287
37217SOL     OW29642   3.435  12.085   8.359  0.6016  0.2645 -0.4627
37217SOL    HW129643   3.365  12.061   8.299  0.8488  0.5229 -0.8578
37217SOL    HW229644   3.512  12.039   8.326  0.2469 -1.4931  1.0226
37218SOL     OW29645   8.268   2.965  13.274 -0.3655  0.2754 -0.2290
37218SOL    HW129646   8.347   2.990  13.225  0.6854 -1.4431  0.5238
37218SOL    HW229647   8.256   3.036  13.337  0.7072  0.4549 -0.2060
37219SOL     OW29648   6.644   3.529  13.878  0.4388 -0.5940 -0.5549
37219SOL    HW129649   6.676   3.587  13.809  0.4209 -0.0107 -0.0811
37219SOL    HW229650   6.611   3.452  13.831 -0.7046  0.3128 -1.3115
37220SOL     OW29651   1.789  10.896   0.675 -0.4508 -0.4333 -0.0478
37220SOL    HW129652   1.745  10.938   0.600  0.2735 -0.3019 -0.4018
37220SOL    HW229653   1.820  10.813   0.641 -1.0959 -0.8775  0.4171
37221SOL     OW29654   4.448   3.431   4.134 -0.1491  0.0265  0.2241
37221SOL    HW129655   4.355   3.444   4.152  0.1771 -0.0872  2.2049
37221SOL    HW229656   4.473   3.357   4.189  1.4012  0.9129  0.7667
37222SOL     OW29657   6.295   2.627   3.141  0.0267  0.5424  0.7021
37222SOL    HW129658   6.378   2.660   3.177 -0.2040  1.4100  0.4735
37222SOL    HW229659   6.263   2.699   3.086 -1.2333  0.5152  1.3620
37223SOL     OW29660   2.512   6.848   3.561 -0.5422 -0.1942 -0.2307
37223SOL    HW129661   2.460   6.778   3.522 -1.2363 -0.3047  0.8530
37223SOL    HW229662   2.451   6.922   3.565 -0.2307  0.0551 -0.0986
37224SOL     OW29663   8.728  12.557   8.423 -0.1301  0.0324  0.0796
37224SOL    HW129664   8.751  12.537   8.514  1.4513  1.3277 -0.0025
37224SOL    HW229665   8.743  12.651   8.414 -0.0073 -0.1128 -1.6040
37225SOL     OW29666   2.737  12.211   1.613  0.2265 -0.0656  0.1133
37225SOL    HW129667   2.816  12.208   1.559 -0.7574 -1.9773 -1.3445
37225SOL    HW229668   2.701  12.298   1.597  0.7216 -0.0807 -1.2239
37226SOL     OW29669   8.734  10.007  11.478  1.0709  0.4306  0.6509
37226SOL    HW129670   8.750   9.993  11.571 -0.2367 -0.7739  0.7221
37226SOL    HW229671   8.672  10.080  11.475  0.6767  0.1022  0.7598
37227SOL     OW29672   3.168   6.243  12.589  0.3479  0.7217 -1.1326
37227SOL    HW129673   3.182   6.154  12.622 -2.2538  0.6523 -0.0234
37227SOL    HW229674   3.206   6.299  12.657 -0.0726  0.4924 -0.7048
37228SOL     OW29675  13.774   1.791   3.463 -0.3422 -0.2284 -0.0511
37228SOL    HW129676  13.699   1.849   3.451 -0.8473 -1.1666 -1.8306
37228SOL    HW229677  13.735   1.705   3.480  0.3335 -0.5654 -0.1758
37229SOL     OW29678   3.936  13.644   9.722  0.2292  0.3203 -0.3469
37229SOL    HW129679   3.950  13.625   9.630  0.5224  0.2649 -0.2934
37229SOL    HW229680   4.024  13.646   9.760  0.1420  0.7641 -0.1532
37230SOL     OW29681   9.420   6.938   5.468 -0.1255 -0.2626  0.7152
37230SOL    HW129682   9.464   6.857   5.491 -2.3171 -1.8271 -0.2316
37230SOL    HW229683   9.350   6.948   5.532 -0.1135  0.6863  0.6048
37231SOL     OW29684   3.425   4.257   4.142  0.4188 -0.6096 -0.0334
37231SOL    HW129685   3.383   4.184   4.097 -0.2716 -0.9931  1.1898
37231SOL    HW229686   3.491   4.288   4.080  0.2079 -1.7743 -0.8829
37232SOL     OW29687  12.846   8.811   6.483  0.2765  0.5095 -0.2199
37232SOL    HW129688  12.821   8.740   6.424 -0.8680  0.4096  0.3579
37232SOL    HW229689  12.940   8.824   6.467  0.0836  0.1959 -1.7343
37233SOL     OW29690  11.046   2.119   9.502  0.6013  0.5346 -0.1487
37233SOL    HW129691  11.006   2.032   9.504  1.3588  0.1911  1.1052
37233SOL    HW229692  11.108   2.115   9.428 -0.0835  0.3517 -0.7205
37234SOL     OW29693   7.673  11.763   4.782 -0.2292  0.9067  0.3580
37234SOL    HW129694   7.708  11.833   4.727 -0.7186 -0.4019 -1.7693
37234SOL    HW229695   7.613  11.716   4.724 -0.1340 -1.0869  1.7864
37235SOL     OW29696   1.699  12.140   7.778  0.1188  0.4780  0.3366
37235SOL    HW129697   1.664  12.114   7.693 -0.2242  1.5651  0.1286
37235SOL    HW229698   1.783  12.181   7.758 -0.2151  1.2323  0.4635
37236SOL     OW29699   4.049  13.716   7.778  0.5697 -0.2874 -0.3110
37236SOL    HW129700   4.077  13.807   7.769  1.4810 -0.7703 -3.6877
37236SOL    HW229701   4.112  13.677   7.838 -0.6204  1.4945  2.2877
37237SOL     OW29702   3.212   3.042   7.284  0.2928 -0.1328  0.1301
37237SOL    HW129703   3.191   2.952   7.308 -0.7105  0.2885  0.8893
37237SOL    HW229704   3.305   3.050   7.305 -0.1900 -0.2369  2.6067
37238SOL     OW29705   1.101   3.783   3.629 -0.0743  0.3459  0.0491
37238SOL    HW129706   1.155   3.764   3.552 -0.4052  1.0494 -0.3691
37238SOL    HW229707   1.092   3.699   3.673  2.4271  0.4243  0.8605
37239SOL     OW29708   3.891   2.364  13.274  0.3942  0.2988  0.4417
37239SOL    HW129709   3.979   2.360  13.236  0.1420 -1.7429 -0.0464
37239SOL    HW229710   3.876   2.457  13.290  1.5713  0.9863 -2.0057
37240SOL     OW29711   4.129  13.941   5.543 -0.6241  0.1098 -0.4116
37240SOL    HW129712   4.192  13.928   5.472  1.1912 -1.2079  1.3314
37240SOL    HW229713   4.166  14.013   5.595 -0.7132 -0.4231  0.4202
37241SOL     OW29714   6.365  10.502  11.382 -0.4914  0.2199  0.1341
37241SOL    HW129715   6.274  10.520  11.358 -1.6892 -0.6967  3.4412
37241SOL    HW229716   6.392  10.432  11.322 -2.6789 -0.8746  0.3054
37242SOL     OW29717   5.952  11.628   3.533 -0.1388 -0.2518 -0.2204
37242SOL    HW129718   5.879  11.577   3.566 -0.9377  0.3388 -1.0331
37242SOL    HW229719   5.936  11.717   3.564  0.5767 -0.2328  0.1248
37243SOL     OW29720  12.479   7.687  12.522  0.1205  0.1409  0.4088
37243SOL    HW129721  12.395   7.732  12.529 -0.8616 -1.6595  0.8282
37243SOL    HW229722  12.515   7.691  12.611  0.2962  0.5679  0.3199
37244SOL     OW29723   3.618   8.584   6.337  0.3401  0.4315  0.5041
37244SOL    HW129724   3.594   8.591   6.430  1.0536 -0.8020  0.8144
37244SOL    HW229725   3.702   8.629   6.331  0.3475  0.4141  0.4794
37245SOL     OW29726   2.166  11.434   4.293 -0.2712 -0.1036  0.6688
37245SOL    HW129727   2.091  11.379   4.272 -0.2679  0.9417 -2.5006
37245SOL    HW229728   2.128  11.515   4.327 -0.5171 -0.1240  0.4416
37246SOL     OW29729   7.482   1.196   6.800 -0.8142  0.2222  0.4826
37246SOL    HW129730   7.444   1.154   6.878 -1.9774 -1.9284 -1.1337
37246SOL    HW229731   7.576   1.196   6.817 -0.8700 -2.0225  1.1106
37247SOL     OW29732   6.576   8.806   4.075  0.5186 -0.0995 -0.0280
37247SOL    HW129733   6.633   8.738   4.111  0.3168 -0.1163  0.2679
37247SOL    HW229734   6.561   8.865   4.149 -0.5644 -0.5704  0.1491
37248SOL     OW29735  11.902   5.802   6.703  0.8629 -0.0636 -0.3681
37248SOL    HW129736  11.817   5.783   6.664  1.0506 -0.3737 -0.6387
37248SOL    HW229737  11.907   5.745   6.779  0.8187 -0.0329 -0.3426
37249SOL     OW29738  11.394   7.500   8.296 -0.5065 -0.2367 -0.1449
37249SOL    HW129739  11.483   7.502   8.331 -0.3816  1.7463 -0.4135
37249SOL    HW229740  11.406   7.509   8.201 -0.9819 -0.4328 -0.2247
37250SOL     OW29741   4.766  11.541  10.944  0.0363  0.1142  0.3740
37250SOL    HW129742   4.794  11.612  11.002  0.9541 -0.7105  0.9921
37250SOL    HW229743   4.780  11.574  10.856 -0.0842  0.8951  0.6414
37251SOL     OW29744  10.879  11.311   4.087 -0.3093 -0.7109 -0.3797
37251SOL    HW129745  10.802  11.280   4.135  0.4550 -2.1654 -0.0653
37251SOL    HW229746  10.914  11.382   4.142 -0.0185 -1.6935  0.7350
37252SOL     OW29747   5.959   4.866  10.582  0.4004 -0.0449  0.1682
37252SOL    HW129748   6.004   4.902  10.658 -0.2841  1.4137 -0.0902
37252SOL    HW229749   5.998   4.913  10.507 -0.1121 -0.2470 -0.2299
37253SOL     OW29750   9.460   1.453  11.289 -0.0375  0.5439 -0.3538
37253SOL    HW129751   9.371   1.476  11.316 -1.0259  0.0125 -2.8028
37253SOL    HW229752   9.479   1.371  11.335 -0.6635  0.8690  0.4937
37254SOL     OW29753   0.752   3.466   0.688 -0.0763  0.3582 -1.0006
37254SOL    HW129754   0.665   3.441   0.658 -0.6332 -0.0598  0.8288
37254SOL    HW229755   0.809   3.451   0.612 -1.5428  0.4343 -2.1580
37255SOL     OW29756   4.274   7.465  10.197  0.2290 -0.1908  0.0596
37255SOL    HW129757   4.332   7.427  10.261  0.5608 -1.4568 -0.9640
37255SOL    HW229758   4.309   7.438  10.112 -1.1868 -0.0380 -0.6161
37256SOL     OW29759   8.511   6.999   7.017 -0.8120  0.5585  0.4032
37256SOL    HW129760   8.600   6.969   6.999 -0.6617  0.6278  1.0136
37256SOL    HW229761   8.474   7.018   6.931  0.0317  1.2773  0.1930
37257SOL     OW29762   5.017  12.766  12.009  0.5364 -0.2444 -0.4434
37257SOL    HW129763   4.982  12.781  11.921  0.7158 -0.2880 -0.5237
37257SOL    HW229764   5.023  12.671  12.016 -1.5153 -0.3642  0.4240
37258SOL     OW29765   9.719   9.664   4.384  0.2482 -0.4274  0.4433
37258SOL    HW129766   9.666   9.614   4.446  0.5170 -1.2125  0.0474
37258SOL    HW229767   9.660   9.734   4.355  0.1742  0.0580  1.6918
37259SOL     OW29768   4.858   8.080   7.295  0.4850  0.0236 -0.1398
37259SOL    HW129769   4.780   8.025   7.290  1.7511 -1.7183 -2.5714
37259SOL    HW229770   4.847   8.129   7.377 -1.9384 -1.9719  0.8649
37260SOL     OW29771   0.221  11.195  12.165 -0.5475  0.0451 -0.7973
37260SOL    HW129772   0.166  11.264  12.202 -1.4283 -1.0446 -0.0200
37260SOL    HW229773   0.215  11.123  12.228  3.0498  0.4001  0.1893
37261SOL     OW29774   5.545  14.063   7.710 -0.2239  0.1295  0.1312
37261SOL    HW129775   5.574  14.114   7.635 -0.8476  1.6061  0.8430
37261SOL    HW229776   5.551  14.124   7.784  0.7201 -1.3924  1.3574
37262SOL     OW29777  11.958  13.333  10.545  0.3590  0.0983  0.2883
37262SOL    HW129778  11.994  13.391  10.613  0.2845 -0.8295  1.1520
37262SOL    HW229779  12.030  13.274  10.523 -0.2413 -1.0178  1.1802
37263SOL     OW29780   3.449  14.058   7.440  0.8255  0.3683 -0.0369
37263SOL    HW129781   3.442  14.074   7.345  0.2165 -0.9487 -0.2399
37263SOL    HW229782   3.376  14.108   7.477  0.8440  0.5998 -0.3036
37264SOL     OW29783   9.216   7.127   7.766  0.2346 -0.4379  0.1266
37264SOL    HW129784   9.171   7.188   7.708 -1.6671 -0.2572  1.7054
37264SOL    HW229785   9.151   7.104   7.833  1.4673 -2.7634  0.6466
37265SOL     OW29786   6.200   6.112   6.598 -0.5893  0.2819  0.7344
37265SOL    HW129787   6.210   6.095   6.691 -2.5591 -1.1807  0.7267
37265SOL    HW229788   6.110   6.144   6.588 -0.6289 -0.1909 -0.7209
37266SOL     OW29789  12.612  11.399   1.714 -0.0068  0.7136 -0.5839
37266SOL    HW129790  12.622  11.416   1.808  1.4087  1.4043 -0.8415
37266SOL    HW229791  12.558  11.320   1.710  1.7949 -0.6890  0.8762
37267SOL     OW29792   2.389   6.734   3.901  0.1334  0.3029  0.2643
37267SOL    HW129793   2.472   6.752   3.946  0.9173 -0.0302 -0.9999
37267SOL    HW229794   2.415   6.702   3.814 -1.3206  1.8312 -0.7991
37268SOL     OW29795   7.396   0.463  13.034 -0.2611 -0.2067  0.2309
37268SOL    HW129796   7.406   0.368  13.028  0.2426 -0.1516  0.1721
37268SOL    HW229797   7.447   0.498  12.961 -0.7905  0.0928 -0.0009
37269SOL     OW29798   3.957  12.406   1.731  0.0872  0.2276 -0.3397
37269SOL    HW129799   3.920  12.355   1.659  1.1185 -2.1451  0.7074
37269SOL    HW229800   3.937  12.355   1.810  2.5696  0.5415  0.6089
37270SOL     OW29801   0.135   1.640  13.869 -0.5774 -0.0269 -0.2400
37270SOL    HW129802   0.066   1.700  13.899 -0.3049  0.0483  0.2477
37270SOL    HW229803   0.096   1.594  13.795 -2.1958 -2.0381  1.7293
37271SOL     OW29804   4.832  12.797   2.751 -0.0448  0.0619 -0.2222
37271SOL    HW129805   4.844  12.838   2.665  0.1693  1.1502  0.3228
37271SOL    HW229806   4.889  12.720   2.748  2.6400  1.8940  0.1420
37272SOL     OW29807  12.900  11.724   0.755 -0.3961 -0.5457 -0.1344
37272SOL    HW129808  12.892  11.630   0.765 -0.1212 -0.6956 -1.1863
37272SOL    HW229809  12.858  11.744   0.671  0.7369  0.0683 -0.5826
37273SOL     OW29810   7.485   2.805   0.721 -0.1697 -0.3746  0.7597
37273SOL    HW129811   7.523   2.766   0.642 -0.7199 -0.3456  0.4753
37273SOL    HW229812   7.391   2.812   0.701 -0.1708  0.5084  1.0513
37274SOL     OW29813   5.107   9.294   2.689 -0.4345  0.0378 -0.4674
37274SOL    HW129814   5.185   9.244   2.665  1.4403  1.8547  1.5136
37274SOL    HW229815   5.101   9.362   2.622 -0.1258  0.1077 -0.4225
37275SOL     OW29816   6.451   3.042   9.925 -0.1636  0.4813 -0.2315
37275SOL    HW129817   6.404   2.963   9.951 -0.6651  0.6370 -0.6353
37275SOL    HW229818   6.517   3.055   9.993 -0.7259  0.2739  0.3625
37276SOL     OW29819   7.951   6.678   1.289  0.2155 -0.4109  0.4754
37276SOL    HW129820   7.944   6.769   1.316 -1.5705 -0.1849 -0.5967
37276SOL    HW229821   8.032   6.674   1.239 -0.5660  1.0194 -0.9748
37277SOL     OW29822   0.439   3.450   8.275 -0.0123 -0.1949 -0.1420
37277SOL    HW129823   0.486   3.522   8.318 -2.1775  1.7721 -0.8193
37277SOL    HW229824   0.506   3.403   8.226  2.1218 -1.0217  3.2489
37278SOL     OW29825   5.457  13.543   7.368 -0.5049  0.2247 -0.8393
37278SOL    HW129826   5.530  13.524   7.309 -0.4892 -0.2198 -0.6802
37278SOL    HW229827   5.458  13.471   7.431 -0.3818  0.8108 -0.1593
37279SOL     OW29828  11.916  11.868   5.669  0.3780 -0.0658 -0.1243
37279SOL    HW129829  11.839  11.842   5.722 -0.3094 -0.3235 -1.2172
37279SOL    HW229830  11.931  11.959   5.692 -0.8603  0.2723 -0.5938
37280SOL     OW29831  10.031  10.009   9.679  0.6072 -0.0961  0.5592
37280SOL    HW129832   9.949  10.054   9.656  0.5454 -0.8619 -0.8330
37280SOL    HW229833  10.009   9.916   9.678  0.8261 -0.2179  3.0452
37281SOL     OW29834  12.707   2.901   0.529 -0.0317  0.2002 -0.2303
37281SOL    HW129835  12.771   2.927   0.596 -0.3527  1.5396 -0.4178
37281SOL    HW229836  12.661   2.827   0.568  0.0887  0.6818  0.8651
37282SOL     OW29837   0.333   3.218  11.157  0.3246 -0.4107  0.1976
37282SOL    HW129838   0.241   3.191  11.152  0.5879 -1.1332 -1.3064
37282SOL    HW229839   0.331   3.312  11.136 -0.0445 -0.4939 -0.1565
37283SOL     OW29840   1.244   9.884  11.866  0.0215 -0.2206  0.7348
37283SOL    HW129841   1.159   9.845  11.886  0.2789 -0.4218  1.4830
37283SOL    HW229842   1.231   9.978  11.876 -0.0864 -0.2595  0.9729
37284SOL     OW29843  12.045   8.432   8.255  0.3935 -0.0598 -0.9126
37284SOL    HW129844  11.994   8.459   8.179 -0.4013  1.8455  0.2286
37284SOL    HW229845  12.029   8.501   8.320  1.7547 -1.1669  0.6639
37285SOL     OW29846  12.836  10.927  10.993 -0.6446  0.4638  0.1213
37285SOL    HW129847  12.819  10.833  10.992  0.2600  0.2720 -1.9753
37285SOL    HW229848  12.814  10.954  11.082  0.0500 -1.9060  1.1012
37286SOL     OW29849  12.129   2.680  11.899  0.5054  0.2649 -0.3543
37286SOL    HW129850  12.116   2.762  11.851  0.9247 -0.2642 -1.3987
37286SOL    HW229851  12.223   2.661  11.890  0.2645 -0.7616 -0.8561
37287SOL     OW29852  12.468   5.673   5.050 -0.0925  0.1224 -0.0335
37287SOL    HW129853  12.485   5.619   4.972 -1.9041  0.6862 -0.8939
37287SOL    HW229854  12.372   5.673   5.057 -0.0717  2.1635  0.7002
37288SOL     OW29855   6.889   9.232   7.814  0.6024 -0.1347 -0.0861
37288SOL    HW129856   6.895   9.297   7.884 -2.7965  0.1767  0.0896
37288SOL    HW229857   6.833   9.163   7.849  1.1357 -1.3826 -1.5573
37289SOL     OW29858   5.853   0.487  10.078  0.0529 -0.5302 -0.2038
37289SOL    HW129859   5.763   0.476  10.048  0.3833 -0.1403 -1.3988
37289SOL    HW229860   5.898   0.408  10.050 -0.0942 -1.1200  1.1602
37290SOL     OW29861   4.525  12.883   2.710  0.3592  0.0319  0.3317
37290SOL    HW129862   4.599  12.824   2.721 -1.2704 -2.2827 -0.2786
37290SOL    HW229863   4.527  12.907   2.618  0.4840  0.1498  0.3655
37291SOL     OW29864   7.989  11.646   7.276  0.5413  0.8698  0.3421
37291SOL    HW129865   7.928  11.716   7.251  0.8432  0.7387 -0.7784
37291SOL    HW229866   7.994  11.589   7.200  0.7298 -0.0873  1.0529
37292SOL     OW29867   3.735   9.784  12.967 -0.4302 -0.4051  0.2772
37292SOL    HW129868   3.725   9.693  12.940  0.2299 -1.0263  1.9945
37292SOL    HW229869   3.810   9.816  12.916 -0.7147 -0.7950 -0.3862
37293SOL     OW29870   5.310   8.863  13.193  0.6665 -0.1402  0.5584
37293SOL    HW129871   5.347   8.782  13.228  0.4294 -0.0470  1.0198
37293SOL    HW229872   5.299   8.845  13.099  0.1779 -0.8064  0.7374
37294SOL     OW29873   0.751   9.184  13.840 -0.3409  0.0014 -0.0349
37294SOL    HW129874   0.747   9.226  13.754 -0.6470  0.3575  0.1495
37294SOL    HW229875   0.795   9.247  13.896 -2.2023  0.7810  0.6267
37295SOL     OW29876   3.123   2.889  11.611  0.6000 -0.1670 -0.6473
37295SOL    HW129877   3.032   2.912  11.593 -0.5554 -3.6808 -0.1007
37295SOL    HW229878   3.168   2.895  11.527 -0.0350  1.8266 -0.8765
37296SOL     OW29879   6.843  11.187   0.066  0.1962 -0.0250 -0.5518
37296SOL    HW129880   6.937  11.205   0.075  0.2033  0.4785 -1.4368
37296SOL    HW229881   6.808  11.264   0.022 -0.0288 -1.5092 -3.2374
37297SOL     OW29882   2.637   0.636   9.083  0.3089 -0.1477  0.0258
37297SOL    HW129883   2.608   0.557   9.037 -0.4283  0.4758 -0.6082
37297SOL    HW229884   2.732   0.626   9.090  0.0965 -1.7343  1.1968
37298SOL     OW29885  12.314   2.156  11.086 -0.2448 -0.3878  0.6227
37298SOL    HW129886  12.391   2.100  11.093  2.0708  2.3763 -0.6320
37298SOL    HW229887  12.333   2.229  11.145 -1.6958  0.5806 -0.0602
37299SOL     OW29888   4.969  10.965   9.902  0.3650  0.1621  0.2219
37299SOL    HW129889   5.038  10.991   9.963  0.2489  1.7983 -0.3121
37299SOL    HW229890   5.015  10.950   9.820  0.2071  0.3896  0.0915
37300SOL     OW29891   5.294   3.655   8.219  0.1125  0.2404  0.2113
37300SOL    HW129892   5.373   3.600   8.212 -0.1119  0.0491 -0.9169
37300SOL    HW229893   5.275   3.657   8.313  2.6630  2.0066  0.8042
37301SOL     OW29894   4.161  10.607   4.450 -0.0769 -0.0586 -0.3963
37301SOL    HW129895   4.164  10.517   4.418 -0.1641 -0.7451  1.3826
37301SOL    HW229896   4.250  10.626   4.480 -0.6233 -0.5862  1.7438
37302SOL     OW29897   5.630   7.239   3.599 -0.0004  0.0396 -0.5333
37302SOL    HW129898   5.651   7.173   3.665  1.5286  1.4873  0.4992
37302SOL    HW229899   5.638   7.194   3.515 -0.9825 -1.5753  0.1959
37303SOL     OW29900   8.304   9.947   3.773 -0.4328 -0.0222  0.1868
37303SOL    HW129901   8.368  10.008   3.737  1.9474 -1.7686  1.2019
37303SOL    HW229902   8.322   9.946   3.867 -1.4922 -1.1017  0.4030
37304SOL     OW29903  12.924   5.597  13.347 -0.1617  0.0170  0.3734
37304SOL    HW129904  13.002   5.544  13.332  0.8845  1.5401  0.2218
37304SOL    HW229905  12.895   5.621  13.259 -1.6325 -1.6304  0.3543
37305SOL     OW29906   0.182   0.978  13.608 -0.8674 -0.5525 -0.1276
37305SOL    HW129907   0.089   0.961  13.592 -0.8067 -0.6048 -0.4266
37305SOL    HW229908   0.183   1.029  13.688 -1.1900 -0.1130 -0.4003
37306SOL     OW29909  10.316   9.939  12.575  0.3785  0.0533 -0.3613
37306SOL    HW129910  10.351   9.955  12.662  0.0112  0.0900 -0.2184
37306SOL    HW229911  10.334   9.846  12.558  1.3815  0.2906 -0.6760
37307SOL     OW29912   8.665   5.794  11.999 -0.3425  0.0848  0.0583
37307SOL    HW129913   8.614   5.817  12.077 -1.4503 -0.0637 -0.6046
37307SOL    HW229914   8.600   5.789  11.929  0.4808 -0.8683 -0.6579
37308SOL     OW29915  10.560   3.689   8.426  0.2634  0.6878 -0.4146
37308SOL    HW129916  10.558   3.751   8.498  1.0714  1.0966 -0.7300
37308SOL    HW229917  10.585   3.606   8.466 -3.0686 -0.0451  0.4019
37309SOL     OW29918   9.431   9.594   6.392 -0.1968  0.1798 -0.2500
37309SOL    HW129919   9.390   9.621   6.474 -1.8598 -0.0696 -0.9485
37309SOL    HW229920   9.462   9.676   6.353  2.1057  0.1457  1.3252
37310SOL     OW29921  10.222   0.827   8.426 -0.3736 -1.3495 -0.3839
37310SOL    HW129922  10.143   0.833   8.480 -0.4785 -0.3038 -0.6341
37310SOL    HW229923  10.231   0.734   8.407 -1.5269 -1.4893 -0.3141
37311SOL     OW29924  13.688  10.252   7.497  0.0134 -0.7027  0.4573
37311SOL    HW129925  13.678  10.343   7.527  0.5829 -0.2792 -0.5678
37311SOL    HW229926  13.685  10.200   7.577  1.3940  0.3659  1.2557
37312SOL     OW29927   4.338   9.343   1.355 -0.1106 -0.1979 -0.1587
37312SOL    HW129928   4.327   9.430   1.392  0.5632  0.5621 -1.6806
37312SOL    HW229929   4.339   9.357   1.260  0.2180 -1.8326 -0.4245
37313SOL     OW29930  11.142   1.423   8.071  0.0117 -0.0080 -0.6918
37313SOL    HW129931  11.086   1.392   7.999 -1.4188  1.3810 -0.2607
37313SOL    HW229932  11.081   1.470   8.128  1.3470 -0.0385  0.7922
37314SOL     OW29933   7.800   9.741   9.920 -0.6478  0.0419 -0.3647
37314SOL    HW129934   7.745   9.677   9.876 -0.4035  1.0817 -2.2959
37314SOL    HW229935   7.889   9.709   9.907 -0.6376 -0.3260  0.5513
37315SOL     OW29936   7.071  10.926   3.780  0.0051 -0.5395 -0.5748
37315SOL    HW129937   7.108  10.972   3.705 -0.6109  0.5835 -0.2061
37315SOL    HW229938   7.000  10.982   3.810  0.1286 -1.0593  0.7489
37316SOL     OW29939  10.265   4.162  12.342  0.4941 -0.5843 -0.0630
37316SOL    HW129940  10.266   4.191  12.250  1.9637  0.2608  0.1861
37316SOL    HW229941  10.177   4.184  12.372  0.7831  1.5008 -0.5779
37317SOL     OW29942   5.966   5.768  10.724  0.2298 -0.5328  0.7340
37317SOL    HW129943   5.885   5.726  10.752  0.5705 -0.8894  1.2191
37317SOL    HW229944   5.942   5.821  10.648 -0.1952 -1.6854  0.0350
37318SOL     OW29945   3.707   4.243   3.447  0.3875 -0.7504  0.1284
37318SOL    HW129946   3.685   4.316   3.388 -0.3059 -1.6763 -0.7781
37318SOL    HW229947   3.680   4.274   3.533 -4.3702 -1.6326 -0.7944
37319SOL     OW29948   3.259   7.479   8.681  0.3593 -0.0089 -0.4222
37319SOL    HW129949   3.353   7.464   8.677  0.1850 -0.8239 -3.0257
37319SOL    HW229950   3.249   7.574   8.673  0.9475  0.2958  1.7018
37320SOL     OW29951  12.419   9.963  11.004 -0.1564 -0.6325 -0.3243
37320SOL    HW129952  12.342   9.954  10.947  0.0228 -2.2774 -0.3686
37320SOL    HW229953  12.473  10.030  10.962 -0.9640 -0.3750 -0.9825
37321SOL     OW29954   9.108   9.649  11.182  0.4069 -0.7505 -0.5695
37321SOL    HW129955   9.144   9.724  11.230 -0.1386  0.1338 -1.5045
37321SOL    HW229956   9.058   9.688  11.110  0.3877 -2.0214 -1.2783
37322SOL     OW29957   4.992   2.805   3.503 -0.2199  0.5234  0.5374
37322SOL    HW129958   5.021   2.714   3.512 -0.5111  0.0716 -2.1981
37322SOL    HW229959   5.073   2.856   3.502 -0.0328  0.2666  1.6508
37323SOL     OW29960   2.560   8.961   0.587 -0.2773 -0.2611  0.3971
37323SOL    HW129961   2.593   9.001   0.506 -0.1227 -2.3359 -0.6461
37323SOL    HW229962   2.637   8.921   0.627 -0.6205 -0.5964  0.7337
37324SOL     OW29963  10.881   3.236   0.934 -0.5862  0.7827 -0.4442
37324SOL    HW129964  10.971   3.261   0.913 -0.3141  0.6532  0.5268
37324SOL    HW229965  10.854   3.178   0.862  0.4520  0.0270 -0.2408
37325SOL     OW29966   8.513  14.018  13.899  0.3671 -0.2060 -0.0407
37325SOL    HW129967   8.508  14.113  13.908  0.2065 -0.0872 -1.2399
37325SOL    HW229968   8.436  13.985  13.946 -0.1360  0.3220 -0.4941
37326SOL     OW29969  12.588   6.453  10.302  0.4587  0.4458 -0.3289
37326SOL    HW129970  12.606   6.538  10.342 -0.5137  0.5003  0.0168
37326SOL    HW229971  12.493   6.446  10.303  0.5104 -0.4308 -0.8181
37327SOL     OW29972   7.264   5.117  11.750  0.3823  0.0839  0.0191
37327SOL    HW129973   7.358   5.101  11.738  0.9572  1.8168  1.6839
37327SOL    HW229974   7.254   5.211  11.732 -1.0163 -0.0459  0.0293
37328SOL     OW29975   8.417  12.254   1.158 -0.0073 -0.5641  0.5326
37328SOL    HW129976   8.335  12.266   1.205 -0.2043 -0.0448  0.0703
37328SOL    HW229977   8.464  12.336   1.170  0.2439 -0.6906  0.4201
37329SOL     OW29978  13.499  12.294   9.427 -0.3634 -0.3248  0.2947
37329SOL    HW129979  13.433  12.290   9.496 -0.8300 -0.8649 -0.1704
37329SOL    HW229980  13.450  12.325   9.350  0.0107 -0.3548  0.0453
37330SOL     OW29981  10.513  10.125  13.313  0.1385 -0.0412 -0.2836
37330SOL    HW129982  10.486  10.203  13.362  0.3322  0.3243 -0.7540
37330SOL    HW229983  10.431  10.077  13.300  0.4466 -1.7367  3.0511
37331SOL     OW29984   0.341  13.246   4.081  0.4796  0.6843 -0.2161
37331SOL    HW129985   0.408  13.314   4.071  0.9849  0.3144  0.5373
37331SOL    HW229986   0.391  13.165   4.087 -0.0928  0.2969 -0.6307
37332SOL     OW29987   2.032   0.918   6.763 -0.3176  0.1687 -0.2133
37332SOL    HW129988   2.091   0.850   6.730  0.1214 -0.4086  1.6119
37332SOL    HW229989   1.953   0.910   6.710  0.7446  0.0848 -1.8422
37333SOL     OW29990   9.575  11.101   6.542  0.2673  0.4368  0.0046
37333SOL    HW129991   9.548  11.014   6.514  1.6129 -0.2183  0.6313
37333SOL    HW229992   9.652  11.086   6.598  0.0590  1.9656  0.7751
37334SOL     OW29993   9.044  13.324  12.257  0.5118 -0.0632  0.6924
37334SOL    HW129994   8.971  13.262  12.262  1.1926 -0.8611  0.9224
37334SOL    HW229995   9.119  13.276  12.292  2.1713 -0.7704 -3.3025
37335SOL     OW29996   5.829   4.490   0.788  0.2532  0.0932  0.2886
37335SOL    HW129997   5.775   4.561   0.823  1.2398  0.3435  1.3599
37335SOL    HW229998   5.895   4.534   0.734 -0.2810 -0.1696 -0.5905
37336SOL     OW29999  10.277   1.746   1.286  0.9167  0.0272  0.4363
37336SOL    HW130000  10.213   1.795   1.235 -1.3306 -1.3679  1.7272
37336SOL    HW230001  10.352   1.805   1.294 -0.3735  1.9397 -0.7591
37337SOL     OW30002  11.730   1.444   4.151 -0.2316 -0.8228  0.3010
37337SOL    HW130003  11.700   1.361   4.188  2.1766 -2.7977 -1.7812
37337SOL    HW230004  11.662   1.467   4.086 -2.4968  0.6552  2.9655
37338SOL     OW30005  12.406   9.084   3.963  0.0013  0.2340  0.5330
37338SOL    HW130006  12.331   9.142   3.975  0.6892  0.9958  1.2826
37338SOL    HW230007  12.393   9.015   4.028  1.1052  1.6200  2.3162
37339SOL     OW30008   6.659   1.443   7.840  0.8574  0.1594  0.6473
37339SOL    HW130009   6.644   1.519   7.896 -0.1888  0.7109 -0.3480
37339SOL    HW230010   6.708   1.478   7.765 -0.5073  0.1093 -0.3194
37340SOL     OW30011   9.273   0.895   4.991  0.1621  0.5371 -0.3875
37340SOL    HW130012   9.361   0.898   5.028  0.1349  1.0148 -0.3549
37340SOL    HW230013   9.245   0.804   5.001  1.1040  0.1168 -1.4493
37341SOL     OW30014   6.859  10.831   0.057 -0.1880 -0.3241  0.0210
37341SOL    HW130015   6.857  10.926   0.066 -1.3849 -0.2797 -0.6059
37341SOL    HW230016   6.894  10.816  -0.031 -1.5003 -0.4131 -0.4984
37342SOL     OW30017  12.478   9.838   8.414  0.5694  0.1740  0.1158
37342SOL    HW130018  12.520   9.753   8.402 -2.3184 -1.1552 -1.6058
37342SOL    HW230019  12.410   9.823   8.480  0.7046  1.4523  0.5888
37343SOL     OW30020   9.334  12.693   5.188  0.1982  0.0577 -0.0127
37343SOL    HW130021   9.394  12.745   5.241  1.2060 -0.7467 -0.3493
37343SOL    HW230022   9.360  12.602   5.202  0.7150 -0.1714 -2.1072
37344SOL     OW30023   6.069   7.696   7.097 -0.0442  0.2182  0.1631
37344SOL    HW130024   6.149   7.741   7.121  0.7285 -0.3357 -1.2895
37344SOL    HW230025   6.075   7.683   7.003 -0.5759 -2.2389  0.4014
37345SOL     OW30026   8.003  11.698  11.016  0.4905  0.1555  0.0235
37345SOL    HW130027   8.097  11.709  11.030  0.2413  0.9819  1.1429
37345SOL    HW230028   7.972  11.784  10.988  0.2628 -0.4462 -1.7624
37346SOL     OW30029   0.328  10.602  11.310  0.2291 -0.3540 -0.1741
37346SOL    HW130030   0.260  10.658  11.273 -2.1764 -1.9997  1.4592
37346SOL    HW230031   0.360  10.551  11.236 -2.7729 -1.9163 -0.5282
37347SOL     OW30032  10.825   5.863   6.812 -0.2110  0.5105 -0.4888
37347SOL    HW130033  10.887   5.830   6.746 -0.1918 -1.7175  0.5295
37347SOL    HW230034  10.743   5.874   6.764 -0.1525 -0.9021 -0.9691
37348SOL     OW30035   0.275   4.212   9.177 -0.2577  0.0492 -0.6288
37348SOL    HW130036   0.246   4.166   9.098 -1.4570  0.7200 -0.5991
37348SOL    HW230037   0.226   4.171   9.248  0.3796 -0.1545 -0.2996
37349SOL     OW30038   9.965   2.208   3.676 -0.4005 -0.5571  0.0723
37349SOL    HW130039   9.952   2.303   3.684  0.5400 -0.4691  0.7963
37349SOL    HW230040   9.878   2.173   3.660 -0.3607  0.8161 -4.6864
37350SOL     OW30041   8.272   8.945   2.693 -0.5073  0.0631  0.0124
37350SOL    HW130042   8.274   8.991   2.777 -2.0719  1.1812 -0.5338
37350SOL    HW230043   8.254   8.854   2.716 -0.1201  0.2013  0.9228
37351SOL     OW30044   9.894  14.020  12.293  0.1084 -0.1413  0.4742
37351SOL    HW130045   9.850  13.938  12.270 -0.4818 -0.8667  3.6579
37351SOL    HW230046   9.968  14.025  12.233 -1.7179 -1.2337 -2.0429
37352SOL     OW30047   1.835   2.310   1.664  0.4512  0.2376  0.7724
37352SOL    HW130048   1.832   2.365   1.742  2.1469 -0.8302  1.6518
37352SOL    HW230049   1.867   2.226   1.696  2.2346  0.0826 -1.2307
37353SOL     OW30050   2.814   6.937   4.078  0.1331 -0.1116 -0.2661
37353SOL    HW130051   2.866   6.921   3.999 -1.6230  1.3286 -1.7936
37353SOL    HW230052   2.819   7.032   4.091 -0.9823 -0.1263  0.3743
37354SOL     OW30053   5.637  13.835  13.342  0.2899  0.3972  0.7002
37354SOL    HW130054   5.594  13.879  13.269  0.7018  0.4424  0.4786
37354SOL    HW230055   5.570  13.829  13.410 -0.2488 -0.0686  0.1473
37355SOL     OW30056  12.493   9.308  13.826  0.2298 -0.4159  0.7858
37355SOL    HW130057  12.541   9.330  13.747  1.0816 -1.4538  0.9818
37355SOL    HW230058  12.480   9.391  13.871 -1.8440  0.4667 -1.2576
37356SOL     OW30059  11.288   4.407  11.900  0.1444 -0.6435  0.5787
37356SOL    HW130060  11.194   4.422  11.909 -0.0151 -1.4537  0.4117
37356SOL    HW230061  11.329   4.489  11.927 -0.6900  0.7209 -1.9606
37357SOL     OW30062  11.282   8.231  11.243 -0.3304  0.0337  0.2732
37357SOL    HW130063  11.194   8.268  11.251 -0.9028 -1.2173  0.1379
37357SOL    HW230064  11.272   8.159  11.181  0.5073 -0.9433  1.2225
37358SOL     OW30065   1.010   4.072   7.230  0.1088  0.2362 -0.2990
37358SOL    HW130066   0.958   4.152   7.241 -0.4402  0.0064 -1.1616
37358SOL    HW230067   1.095   4.094   7.269 -1.0558  0.1124  2.5065
37359SOL     OW30068   8.116   7.528   3.153 -0.1241  0.1863 -0.1578
37359SOL    HW130069   8.134   7.622   3.159  0.9506  0.0071 -0.4876
37359SOL    HW230070   8.093   7.514   3.061 -2.1421  0.4220  0.2604
37360SOL     OW30071   5.652  10.962   0.155 -0.2131 -0.1265  0.0093
37360SOL    HW130072   5.561  10.969   0.127 -0.6402 -1.9828  0.8459
37360SOL    HW230073   5.686  10.887   0.108  0.3766 -0.4968  0.9993
37361SOL     OW30074   7.028   5.445  13.968  0.1751  0.8487  0.3307
37361SOL    HW130075   7.030   5.511  14.037  1.2297  0.7898  0.3676
37361SOL    HW230076   6.935   5.437  13.946 -0.1743  0.9605  1.6470
37362SOL     OW30077  13.555  13.628   1.930  0.6569 -0.4739  0.0108
37362SOL    HW130078  13.484  13.660   1.875 -0.8991 -1.8292  1.1550
37362SOL    HW230079  13.573  13.699   1.991 -1.8511 -1.1507  1.6680
37363SOL     OW30080   1.333   2.185  10.899 -0.1773  0.1900 -0.1085
37363SOL    HW130081   1.239   2.205  10.894 -0.1971  0.6051  1.4106
37363SOL    HW230082   1.353   2.186  10.993  0.9980 -1.6099 -0.2919
37364SOL     OW30083  10.061   6.593   3.877 -0.0810  0.4437 -0.5587
37364SOL    HW130084  10.030   6.523   3.820 -0.7776  0.8575 -0.6976
37364SOL    HW230085  10.130   6.636   3.827  0.1890  0.0101 -0.5652
37365SOL     OW30086   8.166  11.224  10.916 -0.2701  0.5700 -0.1143
37365SOL    HW130087   8.177  11.264  11.002 -0.8889  0.7975 -0.1339
37365SOL    HW230088   8.074  11.240  10.894  0.1290  1.3921 -1.2607
37366SOL     OW30089  10.579   5.143   6.705  0.2708 -0.2003  0.1362
37366SOL    HW130090  10.670   5.169   6.720  0.4185  0.5752 -1.8767
37366SOL    HW230091  10.572   5.129   6.611 -1.2761 -1.9896  0.4526
37367SOL     OW30092  13.472  14.003  11.640 -0.1441 -0.5666 -0.3132
37367SOL    HW130093  13.508  13.918  11.663 -3.0782 -1.8556 -0.0568
37367SOL    HW230094  13.397  14.015  11.698  1.0186  2.9467  0.6967
37368SOL     OW30095  10.575  13.957  13.904  0.0830 -0.0059  0.0109
37368SOL    HW130096  10.598  14.018  13.834 -1.4128  0.4440 -0.1418
37368SOL    HW230097  10.554  14.012  13.979  0.4079 -0.4199  0.4072
37369SOL     OW30098  12.291   5.068  10.136  0.2106  0.3440  0.0813
37369SOL    HW130099  12.372   5.096  10.093  0.6868  0.8452  1.2714
37369SOL    HW230100  12.297   5.103  10.224 -0.4101 -1.2968  0.8138
37370SOL     OW30101  12.591   2.542   4.700  0.1673  0.3269  0.0844
37370SOL    HW130102  12.545   2.574   4.777 -0.4460  2.5608 -1.1348
37370SOL    HW230103  12.523   2.498   4.648  0.5967 -1.2532  0.7765
37371SOL     OW30104  12.911   8.274  13.837 -0.2684  0.3979 -0.1064
37371SOL    HW130105  12.857   8.348  13.864  0.0759  0.3595  0.7411
37371SOL    HW230106  12.867   8.198  13.874 -0.1273  0.2746 -0.1935
37372SOL     OW30107   5.852   7.099   7.716  0.0182  0.4185  0.3026
37372SOL    HW130108   5.827   7.175   7.663  0.4458 -0.2586 -0.9128
37372SOL    HW230109   5.812   7.115   7.801 -0.7867  1.4976 -0.2514
37373SOL     OW30110  11.382   0.649   3.267 -0.2254  0.7584 -0.6888
37373SOL    HW130111  11.398   0.743   3.275 -1.4721  1.1372 -2.3116
37373SOL    HW230112  11.468   0.612   3.244  0.0953  1.6042 -0.8832
37374SOL     OW30113   7.182   0.180   3.739  0.2692 -0.0190 -0.1422
37374SOL    HW130114   7.141   0.160   3.654  0.4854 -1.3397  0.0475
37374SOL    HW230115   7.256   0.236   3.717  1.1646 -1.4759 -1.0035
37375SOL     OW30116  12.052   5.300  10.818  0.0642 -0.0651  0.2135
37375SOL    HW130117  12.015   5.221  10.856 -1.5911  0.6421  0.1651
37375SOL    HW230118  12.096   5.344  10.891  0.5487 -0.7538  0.3488
37376SOL     OW30119   9.407  12.006   3.962 -0.1791 -0.1960  0.0597
37376SOL    HW130120   9.405  12.096   3.994 -0.6557 -0.0761 -0.2867
37376SOL    HW230121   9.499  11.979   3.971  0.4079  1.0172 -1.6978
37377SOL     OW30122   7.964   7.954   2.896  0.5169  0.5453 -0.0518
37377SOL    HW130123   8.055   7.926   2.888  0.2203 -0.8184  0.9938
37377SOL    HW230124   7.928   7.942   2.808  1.2758  0.8778 -0.4184
37378SOL     OW30125  13.940   0.301   3.774 -0.1790  0.0896 -0.7732
37378SOL    HW130126  13.956   0.391   3.746  0.2643  0.1494 -0.3331
37378SOL    HW230127  14.026   0.262   3.780 -0.1038  0.4989  1.8741
37379SOL     OW30128   0.359   5.128  10.108 -0.1454  0.1374 -0.0185
37379SOL    HW130129   0.357   5.222  10.126 -0.6028 -0.1840  1.8445
37379SOL    HW230130   0.296   5.115  10.038  0.5634  1.3069 -0.9195
37380SOL     OW30131  13.554  11.307   1.628  0.0084  0.8269  0.3153
37380SOL    HW130132  13.487  11.239   1.640  0.7527  0.3077  1.7333
37380SOL    HW230133  13.505  11.382   1.593 -1.2092  0.2700  0.7516
37381SOL     OW30134   2.418   5.050  10.612 -0.0019 -0.4516  0.5668
37381SOL    HW130135   2.398   4.996  10.689 -1.2136 -0.8714 -0.0122
37381SOL    HW230136   2.364   5.012  10.542 -0.0347  0.8374 -0.1257
37382SOL     OW30137  11.593   1.125   0.085 -0.1667  0.0378 -0.3171
37382SOL    HW130138  11.547   1.047   0.054  0.9470 -0.5893 -0.4254
37382SOL    HW230139  11.547   1.150   0.164  0.0098 -1.2711  0.2225
37383SOL     OW30140   4.200   7.972   9.792  0.0654  0.0573 -0.1356
37383SOL    HW130141   4.183   7.943   9.702 -0.0669 -0.0556 -0.0753
37383SOL    HW230142   4.130   8.034   9.811 -1.4995 -1.8842  0.8054
37384SOL     OW30143  11.754   1.182   4.274  0.2942  0.1719 -0.6249
37384SOL    HW130144  11.691   1.152   4.340  1.0040  1.6109  0.7948
37384SOL    HW230145  11.727   1.139   4.193 -0.4079 -1.9726  0.6596
37385SOL     OW30146   0.232   5.057  12.949  0.5093  0.2125  0.5247
37385SOL    HW130147   0.165   5.074  12.883  0.7537 -2.1282 -0.4260
37385SOL    HW230148   0.219   5.126  13.014 -1.8983  0.6656 -0.3181
37386SOL     OW30149   5.417   1.614   6.172 -0.3774 -0.1533  0.2824
37386SOL    HW130150   5.397   1.531   6.216  1.6630 -1.6777 -1.4712
37386SOL    HW230151   5.509   1.608   6.150 -0.5175  2.0035 -1.1652
37387SOL     OW30152   2.111  10.175   7.156  0.1212  0.0695 -0.0937
37387SOL    HW130153   2.021  10.176   7.122  0.5025  1.2599 -1.1563
37387SOL    HW230154   2.122  10.262   7.195  0.8630 -0.0110 -0.1185
37388SOL     OW30155  13.299   3.015  14.124  0.1021 -0.3949  0.5288
37388SOL    HW130156  13.341   2.935  14.154  1.0284  0.3311  1.2489
37388SOL    HW230157  13.236   3.037  14.192  0.8127  0.2017  1.0081
37389SOL     OW30158   5.401   3.048   6.492  0.0544  0.1477  0.2837
37389SOL    HW130159   5.445   2.986   6.550 -0.7457  0.2082  0.9931
37389SOL    HW230160   5.427   3.022   6.404 -0.6368 -1.5117  0.5292
37390SOL     OW30161   9.423  12.010   2.790 -0.0529  0.0949  0.1750
37390SOL    HW130162   9.476  12.065   2.733  1.7598 -0.9943  0.7161
37390SOL    HW230163   9.408  11.930   2.741  1.5847 -0.8815  1.1951
37391SOL     OW30164   7.096   1.766   3.466  0.5118 -0.0832  0.5673
37391SOL    HW130165   7.093   1.735   3.376  0.2466  1.1591  0.1382
37391SOL    HW230166   7.144   1.697   3.513  0.3160 -0.9261 -0.4318
37392SOL     OW30167   9.520   4.859  10.144  0.3371  0.2408  0.4926
37392SOL    HW130168   9.502   4.919  10.216 -1.4214  0.9331 -0.4471
37392SOL    HW230169   9.590   4.803  10.176 -0.1535  0.7437  2.5972
37393SOL     OW30170   0.397   7.325  12.465  0.3958  0.0954 -0.1071
37393SOL    HW130171   0.350   7.391  12.414 -0.0232  0.8796  1.2275
37393SOL    HW230172   0.489   7.339  12.444  0.1760 -0.2230 -1.3424
37394SOL     OW30173   4.502   5.346   4.739 -0.0703 -0.0273 -0.1281
37394SOL    HW130174   4.456   5.362   4.657  3.0916 -1.4200 -2.3266
37394SOL    HW230175   4.482   5.255   4.760  2.6115 -1.1308 -1.9028
37395SOL     OW30176  12.394   8.254   3.990  0.9052 -0.1290  0.2169
37395SOL    HW130177  12.476   8.299   4.010 -0.5434  0.9963  4.8220
37395SOL    HW230178  12.400   8.171   4.038  0.4875 -1.4754 -1.9307
37396SOL     OW30179   5.450   7.236   2.261  0.0907  0.3048  0.3071
37396SOL    HW130180   5.526   7.292   2.278 -0.1907  0.8006 -0.0157
37396SOL    HW230181   5.455   7.215   2.168 -1.4822  2.4181 -0.3454
37397SOL     OW30182   7.880   4.749   2.515  0.2274  0.5214 -0.1227
37397SOL    HW130183   7.813   4.732   2.582  0.7292 -0.1425  0.2217
37397SOL    HW230184   7.949   4.686   2.534  0.2623  0.1406 -1.4406
37398SOL     OW30185   7.426   6.373   3.316 -0.0149  0.1592  0.5088
37398SOL    HW130186   7.426   6.360   3.411 -0.2072 -0.8584  0.3708
37398SOL    HW230187   7.509   6.337   3.287  0.2422  0.8684  0.3275
37399SOL     OW30188  13.059   8.019   6.086 -0.0858 -0.6590 -0.3293
37399SOL    HW130189  13.132   8.054   6.136 -0.4724 -0.4985  0.1257
37399SOL    HW230190  13.060   8.069   6.004  0.0352 -0.3507 -0.1395
37400SOL     OW30191  10.895   1.739   6.114  0.5061  0.5799  0.4370
37400SOL    HW130192  10.850   1.816   6.147 -0.0492  0.2303  0.5085
37400SOL    HW230193  10.935   1.699   6.192  0.0464  0.3115  0.5389
37401SOL     OW30194   9.319   4.554  12.275  0.1268 -0.3024  0.1314
37401SOL    HW130195   9.345   4.466  12.249 -1.0923 -0.6863  0.1777
37401SOL    HW230196   9.357   4.611  12.209  1.5735 -0.7762  0.5198
37402SOL     OW30197   4.979  11.894   5.366  0.5913  0.2196  0.1282
37402SOL    HW130198   4.931  11.958   5.418  1.3774  0.9273  0.0114
37402SOL    HW230199   4.917  11.823   5.351 -0.1485  0.7415  0.6614
37403SOL     OW30200  11.956   8.876   8.452 -0.3927  0.4278  0.2226
37403SOL    HW130201  11.877   8.897   8.404 -0.4734  1.4399  0.7836
37403SOL    HW230202  12.027   8.905   8.395 -0.4203 -0.3567 -0.2211
37404SOL     OW30203  11.348  13.640   2.750  0.8527 -0.2910  0.0076
37404SOL    HW130204  11.320  13.729   2.771  0.3500 -0.4953  0.2198
37404SOL    HW230205  11.443  13.644   2.751  0.8369  0.2922 -0.1921
37405SOL     OW30206   3.425  12.555   0.735 -0.6118  0.3793 -0.4793
37405SOL    HW130207   3.366  12.495   0.689 -0.5117 -0.2366  0.1781
37405SOL    HW230208   3.368  12.627   0.762 -1.2617 -0.5466  0.7872
37406SOL     OW30209   8.214   7.232  11.781  0.2463  0.1352  0.0390
37406SOL    HW130210   8.142   7.274  11.733 -0.4210  0.9200  1.6338
37406SOL    HW230211   8.187   7.237  11.873  1.6257 -1.0056  0.5377
37407SOL     OW30212   0.465  10.525   7.366  0.4802  0.0365  0.0240
37407SOL    HW130213   0.406  10.506   7.440  0.4192  0.0293 -0.0261
37407SOL    HW230214   0.504  10.440   7.344  2.3849  0.4261  1.6379
37408SOL     OW30215   9.693   0.185   2.831 -0.2227  0.0533 -0.9423
37408SOL    HW130216   9.711   0.135   2.751 -1.0304  1.7848 -2.2742
37408SOL    HW230217   9.667   0.119   2.895  0.7598 -1.4224 -2.0004
37409SOL     OW30218   6.523   9.541   6.777  0.2668  0.2714  0.3883
37409SOL    HW130219   6.442   9.588   6.797 -1.3621 -2.4965  0.7971
37409SOL    HW230220   6.525   9.538   6.681 -0.8759 -0.7479  0.3686
37410SOL     OW30221   2.988   2.536  11.350 -0.2846 -0.1016  0.0827
37410SOL    HW130222   2.928   2.466  11.325 -0.2486 -0.1310  0.0783
37410SOL    HW230223   3.074   2.495  11.351 -0.3286 -0.1954  0.6235
37411SOL     OW30224   6.667  11.344   8.893 -0.0404 -0.3519  0.9432
37411SOL    HW130225   6.705  11.257   8.882  1.0438  0.1745  0.4722
37411SOL    HW230226   6.604  11.352   8.821  1.1132 -0.0891 -0.0674
37412SOL     OW30227   7.735  11.281   4.017  0.2722  0.8881 -0.6257
37412SOL    HW130228   7.752  11.198   4.062 -0.2869  0.4902 -1.1453
37412SOL    HW230229   7.732  11.345   4.088 -1.1106  0.1916 -0.0232
37413SOL     OW30230  13.295   5.451   9.618 -0.3218 -0.8710 -0.1883
37413SOL    HW130231  13.266   5.508   9.689 -0.3184 -0.7918 -0.2509
37413SOL    HW230232  13.349   5.385   9.661  1.0587  0.1291 -0.3105
37414SOL     OW30233  11.420   8.534   7.107 -0.3930 -0.3016 -0.0204
37414SOL    HW130234  11.342   8.586   7.088 -0.1059  0.6901  1.4014
37414SOL    HW230235  11.437   8.486   7.026  0.5913  3.4317 -2.2824
37415SOL     OW30236  10.775   3.332   2.351  0.2841 -0.1079 -0.2030
37415SOL    HW130237  10.796   3.267   2.418 -0.0971  0.3329  0.3627
37415SOL    HW230238  10.821   3.411   2.380  1.3447 -0.3198 -1.2768
37416SOL     OW30239  10.362  10.485   6.431  0.2704  0.4239 -0.0619
37416SOL    HW130240  10.433  10.542   6.403 -0.1411  1.1843  0.4099
37416SOL    HW230241  10.334  10.440   6.351  0.5576  0.9351 -0.4539
37417SOL     OW30242  10.492  12.477   8.031  0.0560 -0.0720 -0.2391
37417SOL    HW130243  10.490  12.509   7.941 -0.3247 -0.0025 -0.2061
37417SOL    HW230244  10.401  12.475   8.058  0.1146 -0.6974 -0.0708
37418SOL     OW30245   9.143  13.033   7.884  0.2715  0.3618  0.1761
37418SOL    HW130246   9.128  13.127   7.877  0.3767  0.4268  0.7521
37418SOL    HW230247   9.093  13.006   7.961 -0.2127 -0.1582 -0.3092
37419SOL     OW30248   6.241   8.793   5.629  0.6412  0.0593 -0.0999
37419SOL    HW130249   6.268   8.830   5.712 -0.7392 -0.1546  0.4759
37419SOL    HW230250   6.238   8.698   5.645  0.2944  0.0232 -0.3576
37420SOL     OW30251   6.718  12.308  10.192  0.3437  0.6275  0.1714
37420SOL    HW130252   6.766  12.228  10.210 -0.5029 -0.9284 -3.4934
37420SOL    HW230253   6.784  12.368  10.155  0.6661  1.0677  1.4174
37421SOL     OW30254   5.149   1.900   5.397  0.1353  0.6984  0.1053
37421SOL    HW130255   5.086   1.972   5.398 -0.1666  0.4402  1.0301
37421SOL    HW230256   5.096   1.821   5.402  0.4408  0.3733 -1.3830
37422SOL     OW30257   2.014   1.420  10.167 -0.1573  0.2790  1.1177
37422SOL    HW130258   1.961   1.352  10.126  0.5734  0.5136 -0.2768
37422SOL    HW230259   1.965   1.500  10.155  0.4568  0.4928 -0.1546
37423SOL     OW30260  10.837   9.564   8.768  0.9071  0.0274 -0.3812
37423SOL    HW130261  10.832   9.471   8.751 -0.6027  0.0479 -0.1854
37423SOL    HW230262  10.918   9.575   8.818 -0.1683 -1.5621  1.8508
37424SOL     OW30263   3.152   3.083   4.057 -0.4052  0.5983  0.6357
37424SOL    HW130264   3.173   3.140   3.982 -0.5065  0.8743  0.8148
37424SOL    HW230265   3.190   2.999   4.034 -0.9225  0.5228  0.0157
37425SOL     OW30266   5.578  11.066   9.852 -0.4671 -0.7032 -0.4504
37425SOL    HW130267   5.670  11.081   9.874  0.3221 -1.0383 -3.1097
37425SOL    HW230268   5.530  11.104   9.925  1.7582  0.3688  0.5853
37426SOL     OW30269  13.648   5.277   7.142  0.2127 -0.2461 -0.5820
37426SOL    HW130270  13.556   5.250   7.139 -0.5007  1.5062  2.1063
37426SOL    HW230271  13.691   5.211   7.195  0.4951 -0.9157 -1.6110
37427SOL     OW30272   1.792  12.828   9.360  0.2846  0.2120 -0.3288
37427SOL    HW130273   1.753  12.772   9.293  1.4753  0.4404 -1.2479
37427SOL    HW230274   1.886  12.812   9.354  0.4862  0.8296  0.7570
37428SOL     OW30275  12.200  13.490   3.780 -0.5722 -0.9197  0.7482
37428SOL    HW130276  12.263  13.557   3.810 -0.5089 -0.9196  0.6140
37428SOL    HW230277  12.129  13.541   3.741 -0.5527 -0.9294  0.7009
37429SOL     OW30278   2.843   6.042  13.491  0.3219 -0.1464 -0.5636
37429SOL    HW130279   2.880   6.116  13.540  0.4886 -0.1515 -0.6813
37429SOL    HW230280   2.763   6.019  13.539  2.1096 -2.2488  1.6116
37430SOL     OW30281   9.651   4.064   3.515 -0.0184 -0.2312  0.3175
37430SOL    HW130282   9.718   4.009   3.557  0.4065  0.5531  0.6844
37430SOL    HW230283   9.700   4.137   3.478 -0.7511  0.8682  1.4220
37431SOL     OW30284   9.772   9.454   9.617  0.7430 -0.3479  0.0028
37431SOL    HW130285   9.755   9.509   9.540  1.1659  0.0067  0.1497
37431SOL    HW230286   9.808   9.373   9.581 -0.0824 -0.6162 -0.2304
37432SOL     OW30287   7.742   0.325   6.233  0.2435  0.6346 -0.0185
37432SOL    HW130288   7.699   0.380   6.168  1.3703  0.1607 -1.2130
37432SOL    HW230289   7.681   0.322   6.307 -0.5954  2.0541 -0.6185
37433SOL     OW30290   7.409  11.416   9.513 -0.3328 -0.1224 -0.2066
37433SOL    HW130291   7.465  11.363   9.456 -0.6807  0.2962 -0.9544
37433SOL    HW230292   7.435  11.392   9.602  0.3924 -0.6078 -0.5436
37434SOL     OW30293   6.661   3.488   8.206  0.3319  0.1831  0.3533
37434SOL    HW130294   6.590   3.460   8.264 -2.2363  1.8721 -1.7115
37434SOL    HW230295   6.640   3.447   8.122  1.4882  1.1650 -0.4441
37435SOL     OW30296   0.160   4.853   7.816  0.0033  0.1520  0.5029
37435SOL    HW130297   0.177   4.836   7.908  0.8586 -0.0549  0.3142
37435SOL    HW230298   0.137   4.767   7.779 -0.1036  0.1917  0.4774
37436SOL     OW30299  12.369  14.094   9.997  0.0068  0.1129  0.0324
37436SOL    HW130300  12.280  14.057  10.003  0.2580 -0.3947  0.8445
37436SOL    HW230301  12.356  14.188  10.006 -0.5221  0.1293 -0.7336
37437SOL     OW30302   3.793   2.163  10.436  0.6638  0.3971  0.1798
37437SOL    HW130303   3.847   2.242  10.435  1.3471 -0.0450  0.9420
37437SOL    HW230304   3.716   2.188  10.488  1.1617  0.4022  0.9447
37438SOL     OW30305  13.062   3.086   2.351  0.1411  0.4817  1.0682
37438SOL    HW130306  13.070   3.046   2.264  0.6514 -0.0628  1.3596
37438SOL    HW230307  13.026   3.017   2.406  3.1120 -0.3860  2.1050
37439SOL     OW30308  12.131   9.720   6.960  0.4346  0.2266 -0.3647
37439SOL    HW130309  12.074   9.788   6.995  0.8304 -0.8641  2.6159
37439SOL    HW230310  12.073   9.665   6.907 -0.3852  1.4233 -0.7616
37440SOL     OW30311   1.983   9.188   2.375 -0.0070  0.4302  0.0488
37440SOL    HW130312   2.073   9.196   2.408  1.1918  0.8746 -3.0452
37440SOL    HW230313   1.972   9.262   2.316 -2.1905 -0.0445 -0.2193
37441SOL     OW30314  10.881  10.100   0.613  0.0736  0.1505  0.1707
37441SOL    HW130315  10.952  10.133   0.668 -0.8212  1.8130  0.3722
37441SOL    HW230316  10.836  10.036   0.668  0.1885  0.5749  0.7619
37442SOL     OW30317   3.911   6.301  13.512  0.3022  0.2017 -0.4887
37442SOL    HW130318   3.847   6.336  13.449 -1.1272  0.4428  1.0135
37442SOL    HW230319   3.986   6.359  13.504  0.5868 -0.3763 -2.6571
37443SOL     OW30320   6.162  13.349   4.558  0.3133 -0.7412 -0.0304
37443SOL    HW130321   6.105  13.414   4.517 -1.8002 -1.1380  2.0912
37443SOL    HW230322   6.225  13.401   4.608 -0.2966 -0.3156  0.3045
37444SOL     OW30323  12.531   4.091   8.100  0.1624 -0.6625  0.3800
37444SOL    HW130324  12.527   4.186   8.115  0.8387 -0.6289  0.3528
37444SOL    HW230325  12.624   4.072   8.089 -0.0578 -1.1604 -0.7314
37445SOL     OW30326   3.050   7.829   6.611 -0.3900  0.2222  0.2723
37445SOL    HW130327   3.123   7.814   6.671  0.4595  2.1627 -0.2081
37445SOL    HW230328   2.981   7.867   6.665 -0.2201  0.4569  0.3275
37446SOL     OW30329   3.473   4.455   4.330  0.0137  0.6879 -0.0341
37446SOL    HW130330   3.470   4.543   4.292  3.3225  0.6361 -0.7565
37446SOL    HW230331   3.453   4.397   4.257 -3.8975  0.7102  0.8048
37447SOL     OW30332   3.574   8.156   8.946 -0.9144 -0.4438 -0.1833
37447SOL    HW130333   3.630   8.191   8.876 -1.5322  3.8953  1.1755
37447SOL    HW230334   3.601   8.204   9.024 -3.2416 -1.8325  1.5961
37448SOL     OW30335  10.673   4.715  11.759 -0.6049 -0.0477 -0.0341
37448SOL    HW130336  10.701   4.804  11.781 -0.0063 -0.5399  1.2669
37448SOL    HW230337  10.722   4.693  11.680  2.3213 -0.6458  1.8287
37449SOL     OW30338   4.787  10.001   2.610  0.2063  0.2801  0.0949
37449SOL    HW130339   4.769   9.926   2.553  0.5337 -0.7269  1.2582
37449SOL    HW230340   4.713  10.002   2.671  0.9467 -0.0300  1.0167
37450SOL     OW30341  12.330  13.685   2.659  0.0225 -0.1146 -0.0521
37450SOL    HW130342  12.409  13.665   2.709 -0.5248 -2.0537  0.1170
37450SOL    HW230343  12.356  13.677   2.568 -0.2795 -2.4270 -0.0115
37451SOL     OW30344  10.731   1.109   0.432  0.8055 -0.5668  0.2145
37451SOL    HW130345  10.744   1.112   0.527  0.2934  1.1060  0.2701
37451SOL    HW230346  10.784   1.181   0.398  1.2061 -1.3232 -0.8139
37452SOL     OW30347   7.651   6.585  13.532  0.4241  0.6899  0.1446
37452SOL    HW130348   7.595   6.660  13.512 -0.9936  0.0177  1.3781
37452SOL    HW230349   7.597   6.508  13.514  1.2758 -0.0107  0.4636
37453SOL     OW30350   8.968   0.284   5.384 -0.4514  0.0945 -0.6361
37453SOL    HW130351   8.994   0.192   5.377  0.1405  0.2908 -1.1262
37453SOL    HW230352   9.007   0.313   5.467 -1.5018 -0.3570  0.0375
37454SOL     OW30353   5.443  13.159   5.227  0.2584  0.0168 -0.4673
37454SOL    HW130354   5.517  13.215   5.253  0.5900 -0.3304 -0.6481
37454SOL    HW230355   5.467  13.127   5.140 -0.7639  1.0424 -1.1579
37455SOL     OW30356   7.190   9.179   9.038 -0.2371 -0.3970  0.2077
37455SOL    HW130357   7.248   9.248   9.069  1.2243 -1.3669 -0.2524
37455SOL    HW230358   7.249   9.112   9.004 -1.6848 -0.8748 -1.4896
37456SOL     OW30359   9.695  11.721  13.206 -0.2405  0.5622  0.3475
37456SOL    HW130360   9.702  11.636  13.162  0.2039  1.0420 -0.5287
37456SOL    HW230361   9.609  11.754  13.182 -0.6882  0.0774  1.2322
37457SOL     OW30362  10.420   1.229   6.869 -0.4145  0.0768 -0.4571
37457SOL    HW130363  10.390   1.141   6.845  0.5026 -0.6413  0.8765
37457SOL    HW230364  10.341   1.282   6.872 -0.7439 -0.0222 -3.8147
37458SOL     OW30365   8.640   6.593   6.940  0.3274 -0.2460  0.1998
37458SOL    HW130366   8.618   6.546   6.860  1.6261  0.7214 -0.7770
37458SOL    HW230367   8.678   6.676   6.910  1.7103 -0.2372  1.7927
37459SOL     OW30368   6.209   8.441  12.609  0.1504 -0.2564 -0.9332
37459SOL    HW130369   6.240   8.388  12.535  0.9439  0.2721 -0.9857
37459SOL    HW230370   6.114   8.441  12.599  0.1184 -1.7971 -0.8340
37460SOL     OW30371   7.414  12.687   6.723 -0.0126 -0.6868  0.5903
37460SOL    HW130372   7.499  12.659   6.756 -0.0071 -0.6424  0.6140
37460SOL    HW230373   7.405  12.643   6.639  1.9020  2.5773 -1.5114
37461SOL     OW30374   5.049  11.163  13.222 -0.1644 -0.5725  0.1041
37461SOL    HW130375   4.957  11.137  13.234 -0.3423 -0.2281 -0.4660
37461SOL    HW230376   5.085  11.098  13.162  0.1340 -1.0523  0.7915
37462SOL     OW30377   0.095  13.970   9.864  0.1447  0.0112 -0.8328
37462SOL    HW130378   0.126  14.061   9.866 -0.9945  0.4127 -1.0839
37462SOL    HW230379   0.175  13.918   9.866  0.8171  1.0195 -0.8086
37463SOL     OW30380  11.876  13.539   6.443  0.5117  0.5926  0.1217
37463SOL    HW130381  11.795  13.533   6.494  0.1678  0.1765 -0.4585
37463SOL    HW230382  11.926  13.461   6.469 -0.3357 -0.4625 -1.2904
37464SOL     OW30383   2.275  12.158   7.587  0.0448 -0.6753  0.5817
37464SOL    HW130384   2.356  12.193   7.549 -0.8866  1.3531  0.3237
37464SOL    HW230385   2.304  12.093   7.651  1.9647  1.0999  1.6072
37465SOL     OW30386   1.115   8.089   1.900  0.0839  0.0510 -0.0121
37465SOL    HW130387   1.134   8.162   1.841  1.1497  0.1563  0.4403
37465SOL    HW230388   1.181   8.096   1.969 -0.5698 -0.6227  0.6938
37466SOL     OW30389   6.998   4.688   9.780  0.8219  0.1377  0.2313
37466SOL    HW130390   7.030   4.598   9.785  0.2874 -0.0270  1.0754
37466SOL    HW230391   6.991   4.716   9.872 -0.6429  0.4297  0.0637
37467SOL     OW30392  12.597   0.312   7.274 -0.2647 -0.0157  0.1613
37467SOL    HW130393  12.570   0.342   7.360  0.5498  0.3965  0.2766
37467SOL    HW230394  12.607   0.392   7.222 -0.2245 -0.2263 -0.1623
37468SOL     OW30395  10.100  12.674   2.726  0.2524  1.5109 -0.4564
37468SOL    HW130396  10.041  12.725   2.782  0.4748  0.1713  1.0787
37468SOL    HW230397  10.056  12.589   2.716  1.3538  0.8847 -0.2236
37469SOL     OW30398   3.050   8.614  12.222 -0.0943  0.1985  0.3172
37469SOL    HW130399   3.107   8.691  12.224  0.8724 -0.4890  0.2153
37469SOL    HW230400   3.060   8.581  12.133  0.2167 -0.5553  0.6262
37470SOL     OW30401   7.537   5.399   6.055 -0.5523 -0.1495 -0.3156
37470SOL    HW130402   7.570   5.379   5.967  0.5919  0.8302 -0.1356
37470SOL    HW230403   7.451   5.439   6.039 -0.5110 -0.3105 -0.9709
37471SOL     OW30404   0.099   1.917  13.513  0.0006 -0.3830  0.0867
37471SOL    HW130405   0.183   1.960  13.506 -0.3020  0.4599  1.3113
37471SOL    HW230406   0.083   1.881  13.426  0.9507  0.6854 -0.5563
37472SOL     OW30407   6.532   5.150   3.310 -0.3297  0.6342  0.4937
37472SOL    HW130408   6.475   5.227   3.312 -0.4158  0.5707  0.4643
37472SOL    HW230409   6.472   5.076   3.317 -0.3697  0.5069 -0.9904
37473SOL     OW30410  11.172   0.798  11.442 -0.8059 -0.9764 -0.7097
37473SOL    HW130411  11.218   0.795  11.358 -1.9748  1.3541 -1.5146
37473SOL    HW230412  11.088   0.839  11.421 -0.8620  0.2739  1.7086
37474SOL     OW30413   0.000  12.248   0.663  0.0399 -0.1056 -0.4701
37474SOL    HW130414  -0.029  12.216   0.577 -1.2882  0.4885 -0.2723
37474SOL    HW230415  -0.058  12.322   0.682 -0.8406 -1.2495  1.6818
37475SOL     OW30416  12.098  13.563   0.140 -0.3106  0.0331 -0.3805
37475SOL    HW130417  12.171  13.520   0.185  0.9667  1.5102 -0.9313
37475SOL    HW230418  12.079  13.640   0.194 -0.7997  0.1924 -0.7772
37476SOL     OW30419   3.977  12.760  12.157  0.3416  0.4369 -0.1556
37476SOL    HW130420   3.927  12.831  12.118 -1.0516  0.1033  0.9516
37476SOL    HW230421   3.927  12.734  12.234  2.2256  0.0641  1.0144
37477SOL     OW30422   6.052  10.407   6.464  0.4070  0.2729  0.4048
37477SOL    HW130423   6.090  10.440   6.545 -0.3301  1.2525  0.3814
37477SOL    HW230424   6.012  10.324   6.487  0.6352  0.3087  0.9260
37478SOL     OW30425   3.335   9.456   7.798  0.4551 -0.6283 -0.1930
37478SOL    HW130426   3.394   9.410   7.738 -2.6268 -3.0333 -1.6408
37478SOL    HW230427   3.302   9.530   7.747 -1.2920 -2.0229 -1.1994
37479SOL     OW30428   4.944  10.757   1.877  0.4862 -0.2882 -0.0089
37479SOL    HW130429   4.865  10.704   1.862  0.9716 -0.7785 -0.9199
37479SOL    HW230430   5.016  10.694   1.876  0.9900  0.2802 -0.2168
37480SOL     OW30431  12.858   9.578  10.308 -0.5627  0.1483 -0.3961
37480SOL    HW130432  12.868   9.504  10.249 -1.5989  0.4443 -0.9800
37480SOL    HW230433  12.769   9.610  10.290 -0.1670  1.4662 -0.0960
37481SOL     OW30434   0.636   9.814   9.058 -0.0475  0.4299  0.0827
37481SOL    HW130435   0.606   9.873   8.989 -0.5953 -0.9770 -0.9397
37481SOL    HW230436   0.729   9.833   9.067 -0.0016  0.7601 -0.9423
37482SOL     OW30437   7.492   7.745   7.880 -0.2757  0.3027  0.5568
37482SOL    HW130438   7.552   7.758   7.806 -0.7389  1.5156  0.3615
37482SOL    HW230439   7.547   7.709   7.950  0.3652  0.0235 -0.0762
37483SOL     OW30440   1.508   2.447   4.076  0.3954  0.1800  0.1911
37483SOL    HW130441   1.546   2.414   4.157  0.0013 -1.1337 -0.1320
37483SOL    HW230442   1.443   2.511   4.105  0.5934  0.0764  0.8874
37484SOL     OW30443   7.756  12.486   1.077 -0.4486 -0.0473  0.4388
37484SOL    HW130444   7.678  12.462   1.126 -1.2944 -0.9548 -1.2792
37484SOL    HW230445   7.750  12.437   0.995  1.5438  0.4386 -0.0687
37485SOL     OW30446   3.078   8.354   4.667 -0.1609 -0.1587 -0.4265
37485SOL    HW130447   2.998   8.311   4.697  0.4788 -0.4911  0.8761
37485SOL    HW230448   3.120   8.289   4.611  0.1662 -0.7852  0.5090
37486SOL     OW30449  11.485  12.010   9.023 -0.3772  0.5113 -0.0126
37486SOL    HW130450  11.565  11.966   9.049 -0.5405 -0.0726 -0.4754
37486SOL    HW230451  11.446  12.041   9.105  0.9734  1.9781  0.1361
37487SOL     OW30452   4.479   7.261   8.726 -0.3367 -0.3503  0.0076
37487SOL    HW130453   4.546   7.301   8.781  0.6964  1.1692 -2.1912
37487SOL    HW230454   4.399   7.311   8.744  0.2477  0.8444 -0.5810
37488SOL     OW30455   7.302   0.212  12.216  0.1661  0.3524 -0.0865
37488SOL    HW130456   7.269   0.240  12.130  0.7441 -0.3414 -0.5466
37488SOL    HW230457   7.372   0.273  12.236 -1.0942  1.6066  0.7249
37489SOL     OW30458  11.265   4.870   7.249  0.8414  0.0749  0.3083
37489SOL    HW130459  11.348   4.830   7.275  1.2589  1.0522  0.5439
37489SOL    HW230460  11.226   4.900   7.332 -0.1418 -1.1008  0.2835
37490SOL     OW30461  10.287  13.187   8.409 -0.5302  0.2175 -0.4149
37490SOL    HW130462  10.203  13.226   8.385 -0.8393 -0.2311 -0.0609
37490SOL    HW230463  10.269  13.136   8.487  0.3395  1.1641  0.4445
37491SOL     OW30464  13.463  10.687   9.851 -0.3940  0.8249 -0.0724
37491SOL    HW130465  13.535  10.741   9.818 -1.0169  0.3020 -2.5265
37491SOL    HW230466  13.500  10.599   9.858 -0.8087  0.4694 -1.7361
37492SOL     OW30467  12.069   4.295  13.995 -0.3409  0.0259  0.6087
37492SOL    HW130468  12.162   4.276  14.012 -0.5619 -1.6542  0.1295
37492SOL    HW230469  12.023   4.256  14.070 -0.7101  0.1706  0.4582
37493SOL     OW30470   0.740   6.543  11.967 -0.2556  0.9328 -0.5727
37493SOL    HW130471   0.822   6.577  11.930  0.2601 -0.4641 -0.7905
37493SOL    HW230472   0.693   6.621  11.997  1.5488  1.7302  0.3960
37494SOL     OW30473   5.744   2.695   6.782  0.2908  0.3936  0.3004
37494SOL    HW130474   5.687   2.675   6.856 -0.7458 -0.6684 -0.7352
37494SOL    HW230475   5.832   2.671   6.811 -0.0527  0.3241  1.3024
37495SOL     OW30476   2.331   7.774   1.022 -0.5984 -0.1400 -0.2140
37495SOL    HW130477   2.325   7.711   0.950 -0.4377 -0.9094  0.4335
37495SOL    HW230478   2.423   7.774   1.048 -0.4906  0.7565 -0.5400
37496SOL     OW30479   6.427   5.333   5.951 -0.1299 -0.2527  0.3550
37496SOL    HW130480   6.420   5.343   5.857 -0.9091 -0.4439  0.3862
37496SOL    HW230481   6.372   5.257   5.972 -2.6397  1.6965  1.3364
37497SOL     OW30482   4.008   5.641  10.455  0.2062  0.1468 -0.0228
37497SOL    HW130483   4.064   5.671  10.526 -1.3858  0.5352  1.1077
37497SOL    HW230484   3.949   5.578  10.496  0.1255 -0.6389 -1.2949
37498SOL     OW30485  12.647  11.602   4.544 -0.0810 -0.8421  0.3773
37498SOL    HW130486  12.581  11.647   4.491  0.5067 -0.4373 -0.0193
37498SOL    HW230487  12.624  11.625   4.634 -0.3202 -0.4891  0.2299
37499SOL     OW30488   7.829   8.379  13.714  0.6603  0.6639 -0.0028
37499SOL    HW130489   7.871   8.348  13.634 -1.1644 -0.4382 -0.5941
37499SOL    HW230490   7.868   8.328  13.784  0.9771  0.3334 -0.4191
37500SOL     OW30491  13.801   1.381  12.344  0.1344 -0.0756 -0.6085
37500SOL    HW130492  13.786   1.429  12.426 -1.1065 -0.1403 -0.7765
37500SOL    HW230493  13.844   1.444  12.287  0.0383  0.3054 -0.2649
37501SOL     OW30494  13.418  12.353   0.485  0.0639  0.2715 -0.4223
37501SOL    HW130495  13.408  12.273   0.536 -0.8788  1.1254  0.8061
37501SOL    HW230496  13.413  12.325   0.394  0.1345 -1.0931 -0.0263
37502SOL     OW30497   3.690   7.986  12.027  0.3236  0.0731  0.1427
37502SOL    HW130498   3.684   8.079  12.006 -0.3550 -0.4268 -2.1620
37502SOL    HW230499   3.783   7.966  12.023  0.4386  0.5628  0.3003
37503SOL     OW30500  11.186  11.640   7.540  0.3954 -0.5753 -0.0918
37503SOL    HW130501  11.131  11.632   7.617 -0.0521 -0.4025 -0.3915
37503SOL    HW230502  11.274  11.654   7.575  0.1981 -0.5015  0.3847
37504SOL     OW30503   8.526  11.481   3.593  0.8816  0.7590 -0.1544
37504SOL    HW130504   8.442  11.439   3.613  0.6655  0.8136 -0.9532
37504SOL    HW230505   8.590  11.431   3.644  0.5433 -0.1425 -0.6048
37505SOL     OW30506  12.300   8.540  14.045  0.3295 -0.3538  0.0034
37505SOL    HW130507  12.239   8.467  14.053  0.3627 -0.3271  0.4998
37505SOL    HW230508  12.271   8.603  14.111 -0.4916  0.6443 -1.2393
37506SOL     OW30509   6.450   0.073  11.908 -0.2605  0.0547 -0.3004
37506SOL    HW130510   6.468   0.126  11.985 -3.3746  0.5883  0.1734
37506SOL    HW230511   6.457   0.135  11.835  1.0084 -0.0628 -0.2950
37507SOL     OW30512  12.909   7.182   5.518 -0.2970  0.1298 -0.2005
37507SOL    HW130513  12.993   7.225   5.537 -0.2424 -0.6127  1.3619
37507SOL    HW230514  12.932   7.112   5.457  0.4089 -0.6968  0.9759
37508SOL     OW30515  11.941  10.120  13.794  0.5693 -0.3202  0.8855
37508SOL    HW130516  11.916  10.210  13.771  0.0696 -0.4036  1.0783
37508SOL    HW230517  11.989  10.129  13.876 -0.5023 -0.3338  1.5306
37509SOL     OW30518  13.932  10.170  13.254 -0.4372 -0.1012 -0.4085
37509SOL    HW130519  13.992  10.194  13.325 -1.0221  1.3819 -0.3717
37509SOL    HW230520  13.957  10.081  13.230  0.9480  0.0284  0.4450
37510SOL     OW30521   7.953   9.215   5.486  0.2610 -0.4895 -0.3461
37510SOL    HW130522   7.922   9.150   5.423  2.0465 -1.5776 -0.1758
37510SOL    HW230523   7.921   9.184   5.571 -1.5920  0.6336 -0.5538
37511SOL     OW30524  10.308  12.098   3.930 -1.0753 -0.0900  0.3905
37511SOL    HW130525  10.228  12.047   3.926 -1.5751  0.7179 -0.3526
37511SOL    HW230526  10.347  12.090   3.843 -0.5415 -0.1753  0.6307
37512SOL     OW30527  13.371   1.868   8.910 -0.8646 -0.5282 -0.0131
37512SOL    HW130528  13.430   1.852   8.836  0.7299  1.0855  0.8348
37512SOL    HW230529  13.291   1.903   8.870 -0.0455  0.2751 -0.9951
37513SOL     OW30530  13.514   5.008   3.890 -0.3228  0.5569  0.1374
37513SOL    HW130531  13.595   4.957   3.886  0.6451  2.1360 -1.3654
37513SOL    HW230532  13.447   4.943   3.914  0.8652 -1.4042 -1.4682
37514SOL     OW30533   1.325   5.561   1.820 -0.1770  0.6439 -0.2639
37514SOL    HW130534   1.293   5.651   1.828  0.7909  0.9129  0.7737
37514SOL    HW230535   1.357   5.539   1.908  0.0295 -0.5503 -0.6226
37515SOL     OW30536  11.733   4.012   1.515 -0.0920  0.0916  0.1640
37515SOL    HW130537  11.710   3.956   1.589  0.0924 -3.1854 -2.0073
37515SOL    HW230538  11.650   4.049   1.487 -0.4425 -0.0886  0.9343
37516SOL     OW30539   0.781  13.461   4.591 -0.3102 -0.2937  0.1766
37516SOL    HW130540   0.762  13.436   4.501 -0.0383 -1.4310  0.4198
37516SOL    HW230541   0.807  13.553   4.585  1.0815 -0.7243 -1.1116
37517SOL     OW30542   2.137   9.095   9.228 -0.4514  0.2513  0.7710
37517SOL    HW130543   2.131   9.002   9.249 -3.4616  0.3014  0.5831
37517SOL    HW230544   2.093   9.139   9.302  0.1128  1.4596  0.4175
37518SOL     OW30545   5.657   4.353   6.415 -0.2286  0.6406 -0.0021
37518SOL    HW130546   5.736   4.321   6.459 -0.1257  1.3725  0.3621
37518SOL    HW230547   5.658   4.310   6.329 -0.9945 -1.6588  1.0608
37519SOL     OW30548   6.620   4.097   5.132  0.3602 -0.2960  0.5441
37519SOL    HW130549   6.670   4.016   5.142  2.1286  1.0072  3.5727
37519SOL    HW230550   6.670   4.148   5.068 -0.9851 -1.6297 -1.6984
37520SOL     OW30551  13.126  12.833   5.845 -0.2416 -0.0031 -0.0523
37520SOL    HW130552  13.157  12.910   5.892 -0.3328  0.2960 -0.4770
37520SOL    HW230553  13.206  12.784   5.824 -0.0901  0.4787 -0.6470
37521SOL     OW30554  12.016   9.174   5.029  0.2647  0.0089 -0.0770
37521SOL    HW130555  12.027   9.084   5.060 -1.5377 -0.6339 -1.1747
37521SOL    HW230556  12.000   9.166   4.935  1.2354  1.5911 -0.4224
37522SOL     OW30557   1.473   2.787   5.771 -0.5918 -0.7090 -0.2171
37522SOL    HW130558   1.389   2.779   5.724  0.9429 -2.3208 -2.9465
37522SOL    HW230559   1.508   2.699   5.772  2.0276  0.2443 -1.0836
37523SOL     OW30560   4.561   2.900   4.209 -0.3354 -1.2144  0.1482
37523SOL    HW130561   4.524   2.983   4.178  1.5241 -0.1963  0.5578
37523SOL    HW230562   4.486   2.854   4.247 -1.4260  0.2232 -0.1737
37524SOL     OW30563   3.717   7.893   8.976  0.2239 -0.2303 -0.3702
37524SOL    HW130564   3.694   7.980   8.943  0.5354  0.0682  0.1694
37524SOL    HW230565   3.720   7.837   8.899  0.7001  0.3919 -0.8088
37525SOL     OW30566   0.834  10.421   5.632  0.5064  0.3397  0.5526
37525SOL    HW130567   0.784  10.423   5.551  1.5522  0.3290 -0.1127
37525SOL    HW230568   0.849  10.513   5.654  0.0267  0.3448  0.8630
37526SOL     OW30569   3.912   9.009   9.990 -0.2720  0.2632  0.0308
37526SOL    HW130570   3.991   9.046  10.028  0.1652 -0.3724 -0.2438
37526SOL    HW230571   3.860   8.982  10.065 -0.1390  0.4877  0.2075
37527SOL     OW30572  12.150   6.678   9.556  0.0711 -0.1242  0.2689
37527SOL    HW130573  12.095   6.603   9.577 -0.8353  0.4870  0.1070
37527SOL    HW230574  12.177   6.712   9.642 -0.9702  0.4166  0.3991
37528SOL     OW30575   7.555   2.731   0.225  0.5415  0.2652  0.8263
37528SOL    HW130576   7.461   2.747   0.216  0.5455 -0.0043  0.3135
37528SOL    HW230577   7.562   2.673   0.302  0.3708  1.0602  1.4570
37529SOL     OW30578   0.691   5.765   0.972 -0.0913 -0.1818 -0.1927
37529SOL    HW130579   0.619   5.806   0.923 -0.8512 -2.1638 -0.8420
37529SOL    HW230580   0.663   5.768   1.063  0.2923  1.5020 -0.0963
37530SOL     OW30581   7.081   0.062   7.728 -0.2775 -0.2770  0.0621
37530SOL    HW130582   7.048   0.138   7.775  0.1958  0.6436 -1.0581
37530SOL    HW230583   7.029   0.059   7.648 -0.1687 -1.0288  0.0142
37531SOL     OW30584   1.600  13.231   4.583 -0.1957 -0.0088 -0.2268
37531SOL    HW130585   1.604  13.141   4.615 -1.0561 -0.5314 -1.4936
37531SOL    HW230586   1.536  13.274   4.639 -0.1184 -0.3080  0.0936
37532SOL     OW30587   9.076   9.130  12.942 -0.0550  0.2920 -0.3475
37532SOL    HW130588   8.989   9.091  12.928  0.2109  0.0207 -1.3545
37532SOL    HW230589   9.136   9.055  12.938  0.2004  0.4169  0.7905
37533SOL     OW30590   6.277  10.643  10.326 -0.0580 -0.0500 -0.2005
37533SOL    HW130591   6.274  10.714  10.262 -0.9959  0.0332 -0.0753
37533SOL    HW230592   6.348  10.587  10.296  0.4508  0.7345 -0.5175
37534SOL     OW30593  11.402   1.103   6.888 -0.5655  0.1643  0.4665
37534SOL    HW130594  11.373   1.105   6.797 -1.3094 -0.6144  0.6756
37534SOL    HW230595  11.323   1.123   6.939 -0.4233 -0.5492  0.9821
37535SOL     OW30596   6.509   1.133  13.340 -0.0672 -0.1301  0.4919
37535SOL    HW130597   6.417   1.155  13.324  0.7160  3.5757  0.0843
37535SOL    HW230598   6.526   1.058  13.283 -2.6083 -0.3718 -0.0755
37536SOL     OW30599   1.319  10.739   9.510  0.6838  0.1694  0.2160
37536SOL    HW130600   1.256  10.798   9.551  1.0733  0.5189  0.3203
37536SOL    HW230601   1.332  10.775   9.422  2.0233  1.1186  0.7594
37537SOL     OW30602   9.833  13.402  12.097 -0.3054 -0.0739 -0.1618
37537SOL    HW130603   9.859  13.330  12.040 -1.4781 -0.4088 -0.2979
37537SOL    HW230604   9.843  13.368  12.186  2.4402  0.7598 -0.0643
37538SOL     OW30605  10.248   1.165   8.718  0.8005  0.2025 -0.1104
37538SOL    HW130606  10.204   1.218   8.785  0.9518  0.4852 -0.2308
37538SOL    HW230607  10.200   1.083   8.717  0.5604  0.3390  0.0793
37539SOL     OW30608   2.876   1.810  10.279 -0.2716 -0.3313 -0.6433
37539SOL    HW130609   2.947   1.797  10.342  0.2134  3.4061 -0.1874
37539SOL    HW230610   2.796   1.790  10.329  0.2473 -0.6683  0.0688
37540SOL     OW30611  10.342   6.629  11.677 -0.0032 -0.3870  0.3687
37540SOL    HW130612  10.273   6.640  11.612  1.7487  3.0384 -1.1331
37540SOL    HW230613  10.310   6.675  11.754 -0.3660 -0.9267  0.5507
37541SOL     OW30614   9.079   5.097   1.741 -0.7774  0.3015  0.4477
37541SOL    HW130615   9.085   5.192   1.730  1.3242  0.0114 -1.8481
37541SOL    HW230616   9.030   5.067   1.665  1.8652 -0.6725 -1.0167
37542SOL     OW30617   4.054  12.679  11.341 -1.0788 -0.3942 -0.1341
37542SOL    HW130618   4.121  12.611  11.345 -0.7056 -0.1788 -2.0707
37542SOL    HW230619   3.991  12.647  11.276 -1.1387  0.8915 -0.7288
37543SOL     OW30620   4.539   3.169   4.348 -0.0074 -0.0634  0.1651
37543SOL    HW130621   4.634   3.174   4.331 -0.4981  0.4025 -3.1082
37543SOL    HW230622   4.529   3.207   4.435  2.7298  0.6930  0.2661
37544SOL     OW30623   6.041   0.094  13.681 -0.0930  0.3263 -0.0526
37544SOL    HW130624   5.973   0.132  13.625 -1.8707  0.1873  1.8928
37544SOL    HW230625   6.075   0.168  13.731 -0.9028 -0.0137  1.0432
37545SOL     OW30626   0.993  10.624   4.375  0.4758 -0.7058 -0.7492
37545SOL    HW130627   0.907  10.608   4.412 -0.0574  0.9810 -1.1684
37545SOL    HW230628   1.054  10.607   4.447 -0.4003  0.6395  0.3625
37546SOL     OW30629   4.085   4.006   6.770  0.3858 -0.4850  1.0280
37546SOL    HW130630   4.008   4.046   6.730  0.5423 -1.4229 -0.2613
37546SOL    HW230631   4.125   4.077   6.820  0.5948  0.9874 -1.0819
37547SOL     OW30632  12.024   5.820   8.735  0.3489  0.3379  0.1448
37547SOL    HW130633  12.049   5.774   8.655  2.7244 -1.2138  1.6432
37547SOL    HW230634  12.048   5.911   8.719 -0.3842  0.3012 -1.3190
37548SOL     OW30635   7.726  13.348   2.428  0.2151  0.2207  0.6569
37548SOL    HW130636   7.800  13.400   2.460  1.3482 -0.1726 -1.1850
37548SOL    HW230637   7.662  13.413   2.399  1.1080  0.6134 -0.5000
37549SOL     OW30638   9.296  13.114   0.453 -0.5287  0.0709 -0.3518
37549SOL    HW130639   9.240  13.119   0.531 -0.0875  0.4100 -0.0528
37549SOL    HW230640   9.337  13.027   0.459 -2.4761 -1.0197 -1.5987
37550SOL     OW30641  14.130  10.572   4.852 -0.1185 -0.0356 -0.0985
37550SOL    HW130642  14.219  10.598   4.878 -1.0124  0.8036  2.3564
37550SOL    HW230643  14.081  10.654   4.848 -1.2981 -0.6686  0.7752
37551SOL     OW30644   8.930  12.497   6.372 -0.3263 -0.2758 -0.1527
37551SOL    HW130645   8.887  12.440   6.436  0.7398  0.3431  1.1382
37551SOL    HW230646   9.004  12.446   6.340  0.2346  0.1127  0.5067
37552SOL     OW30647  10.022   2.931   1.132 -0.0145 -0.0582 -0.1378
37552SOL    HW130648   9.962   3.002   1.112  1.2208  1.0103 -0.1834
37552SOL    HW230649  10.109   2.971   1.130  0.6542 -1.3670  0.7241
37553SOL     OW30650   0.125   4.434   9.220 -0.2876  0.3781 -0.1603
37553SOL    HW130651   0.059   4.365   9.222 -0.3827  0.3401 -2.2505
37553SOL    HW230652   0.208   4.388   9.208  0.0735  0.4745  1.6643
37554SOL     OW30653   1.143  10.468   5.093 -0.5132  0.0988  0.1430
37554SOL    HW130654   1.085  10.537   5.062 -1.1055 -0.7492 -0.7116
37554SOL    HW230655   1.116  10.390   5.044  1.3358 -0.3341 -0.2911
37555SOL     OW30656   4.168  11.190  10.182 -0.0837  0.7646 -0.3933
37555SOL    HW130657   4.119  11.178  10.264 -1.1000  0.6942 -0.9952
37555SOL    HW230658   4.227  11.115  10.178  0.4753  1.1291  0.6127
37556SOL     OW30659  12.188  13.541   5.946 -0.4207 -0.1465 -0.4923
37556SOL    HW130660  12.127  13.543   6.019 -0.4441  1.0741 -0.5149
37556SOL    HW230661  12.145  13.592   5.877  0.8704  1.3133 -0.2746
37557SOL     OW30662   7.692   1.522   7.159  0.0553  0.3855 -0.3274
37557SOL    HW130663   7.728   1.444   7.117 -1.1783 -0.1354 -0.4800
37557SOL    HW230664   7.768   1.577   7.178  0.8321 -0.2977 -1.3440
37558SOL     OW30665  12.863   4.309  13.842 -0.2454  0.1217  0.0866
37558SOL    HW130666  12.857   4.325  13.748  0.2264 -0.6968 -0.0927
37558SOL    HW230667  12.801   4.371  13.881 -0.7886  0.1547 -0.7964
37559SOL     OW30668   8.305   9.050   9.294 -0.1944  0.0700  0.7150
37559SOL    HW130669   8.398   9.029   9.284 -0.6811 -1.4668 -1.1018
37559SOL    HW230670   8.303   9.145   9.305  1.4959  0.3371 -0.7772
37560SOL     OW30671   4.932   9.058   8.238 -0.0924  0.1241  0.2995
37560SOL    HW130672   4.973   9.141   8.264  1.7557 -1.4058  2.6891
37560SOL    HW230673   4.840   9.067   8.262  0.0503  1.4979  0.3932
37561SOL     OW30674   2.266   2.407   4.481  0.4458 -0.5721 -0.5638
37561SOL    HW130675   2.209   2.330   4.469 -0.3434 -0.1920  0.5766
37561SOL    HW230676   2.338   2.393   4.419  0.6903 -2.5828  0.0872
37562SOL     OW30677   3.830   1.687   3.389  0.5325 -0.1037  0.1927
37562SOL    HW130678   3.875   1.677   3.473  0.1975 -1.5486  0.2107
37562SOL    HW230679   3.741   1.715   3.412  0.9834  1.4189  0.2102
37563SOL     OW30680   9.630   9.670   8.717 -0.1879  0.6937 -0.1705
37563SOL    HW130681   9.678   9.625   8.786  0.5619 -2.8076 -2.6908
37563SOL    HW230682   9.658   9.761   8.723  2.2645 -0.0877  2.1035
37564SOL     OW30683  11.261   0.947  10.809  0.4233  0.3664 -0.5241
37564SOL    HW130684  11.304   1.019  10.762  1.7547 -0.2187 -0.2388
37564SOL    HW230685  11.317   0.931  10.885  2.0636 -3.1177 -2.2289
37565SOL     OW30686   2.462   5.076   1.497 -0.1158 -0.3264 -0.0249
37565SOL    HW130687   2.437   5.103   1.585  2.5806 -0.4433  0.8609
37565SOL    HW230688   2.425   4.989   1.486  1.2536 -1.1867  1.8441
37566SOL     OW30689  11.210   7.254  12.072  0.0666 -0.8243  0.0508
37566SOL    HW130690  11.161   7.337  12.071 -0.2606 -0.9930  1.0104
37566SOL    HW230691  11.302   7.281  12.070 -0.0179 -0.3929  1.1242
37567SOL     OW30692  12.264  12.737   5.641  0.0714 -0.0808 -0.5662
37567SOL    HW130693  12.233  12.786   5.717 -1.1253 -2.0840  0.2953
37567SOL    HW230694  12.359  12.754   5.639  0.6346 -1.9277  2.9482
37568SOL     OW30695   9.008   4.294  12.141  0.5089  0.7152  0.4176
37568SOL    HW130696   9.009   4.387  12.119  0.2009  0.8831  1.1042
37568SOL    HW230697   9.020   4.291  12.236  1.2606  0.0196  0.3123
37569SOL     OW30698  12.267   0.775   6.541 -0.6672  0.0274  0.0970
37569SOL    HW130699  12.316   0.830   6.603 -2.2977  1.4735  0.1799
37569SOL    HW230700  12.177   0.809   6.545 -1.0077 -0.3817 -2.4343
37570SOL     OW30701   8.661   6.305   2.123  0.1175  0.5895 -0.1450
37570SOL    HW130702   8.651   6.387   2.170 -2.5909 -0.4898  1.3794
37570SOL    HW230703   8.637   6.238   2.187  2.5185 -1.4782 -1.2297
37571SOL     OW30704   1.563  13.780   8.801  0.1655 -0.4346  0.5265
37571SOL    HW130705   1.473  13.750   8.787 -0.0592  1.3605 -3.1640
37571SOL    HW230706   1.554  13.860   8.853 -0.5688  0.3172 -0.6882
37572SOL     OW30707  11.991   4.257   2.827  0.2208 -0.0055  0.1038
37572SOL    HW130708  11.908   4.284   2.868  0.2459 -1.0051  0.8573
37572SOL    HW230709  12.056   4.269   2.895  0.7171  0.7864 -0.4939
37573SOL     OW30710   8.769  12.152   2.923 -0.4397  0.0121 -0.0676
37573SOL    HW130711   8.736  12.207   2.994 -0.2683 -0.7159  0.5866
37573SOL    HW230712   8.778  12.212   2.848 -0.0451  0.9182  0.6934
37574SOL     OW30713  10.817   6.210   7.097 -0.0650 -0.0483  0.3302
37574SOL    HW130714  10.860   6.207   7.012 -0.7300 -1.9645 -0.0033
37574SOL    HW230715  10.723   6.208   7.077 -0.3133  2.0081  1.0808
37575SOL     OW30716   5.102  12.523   0.401  0.1125 -0.2763 -0.0774
37575SOL    HW130717   5.165  12.499   0.468  0.2228  0.0486 -0.0605
37575SOL    HW230718   5.017  12.511   0.443  0.1763 -0.2437  0.0630
37576SOL     OW30719   4.735   6.579   2.875 -0.8727  0.1610  0.5468
37576SOL    HW130720   4.795   6.505   2.881 -0.4539  0.5681  1.8365
37576SOL    HW230721   4.783   6.644   2.822 -0.4086  0.2477  1.0577
37577SOL     OW30722   5.532   6.843   8.469  0.0593 -0.2315  0.3256
37577SOL    HW130723   5.578   6.824   8.551  1.6957 -1.3303 -0.7647
37577SOL    HW230724   5.529   6.759   8.423  0.7471  0.6604 -1.4722
37578SOL     OW30725  12.698  13.724   6.728  0.6756  0.0387  0.3449
37578SOL    HW130726  12.779  13.740   6.775  1.2593 -1.7364 -0.0186
37578SOL    HW230727  12.665  13.812   6.707  1.4617  0.8202  2.2020
37579SOL     OW30728   5.267   2.381  10.793 -0.2170 -0.1927 -0.0927
37579SOL    HW130729   5.176   2.355  10.794 -0.1358 -0.5496  2.2480
37579SOL    HW230730   5.270   2.461  10.846  0.5820  0.9111 -1.6891
37580SOL     OW30731   5.154   8.003  11.778 -0.2614 -0.0974 -0.1933
37580SOL    HW130732   5.092   7.935  11.804 -0.1482 -0.2861 -0.4079
37580SOL    HW230733   5.100   8.075  11.747 -0.3759 -0.6965 -1.4762
37581SOL     OW30734   8.930   8.491   3.593 -0.0943  0.2035  0.3355
37581SOL    HW130735   8.953   8.534   3.511  2.4590  1.0887  1.4188
37581SOL    HW230736   8.879   8.556   3.641 -0.2815  0.2607  0.0576
37582SOL     OW30737   3.301  12.433   8.206  0.0581  0.1694  0.6653
37582SOL    HW130738   3.341  12.476   8.130 -2.0497  0.2147 -0.5107
37582SOL    HW230739   3.332  12.342   8.201 -0.1988  0.1166 -0.4206
37583SOL     OW30740   3.426   7.435   0.215 -0.3508  0.6994  0.0296
37583SOL    HW130741   3.347   7.487   0.228 -0.1430  0.9233  0.4280
37583SOL    HW230742   3.498   7.498   0.225 -0.1338  0.6597 -1.0759
37584SOL     OW30743   3.827   7.869   3.753 -0.1529  0.1177 -0.5285
37584SOL    HW130744   3.882   7.928   3.804 -0.2533 -0.6474  0.4949
37584SOL    HW230745   3.741   7.872   3.796 -0.1813 -0.6947 -0.5179
37585SOL     OW30746  11.260  13.098  12.486 -0.0439 -0.5694 -0.0162
37585SOL    HW130747  11.300  13.075  12.402  0.7650 -1.2021  0.5286
37585SOL    HW230748  11.276  13.022  12.542  0.2152  0.2031  0.9849
37586SOL     OW30749   9.271  10.348   0.175 -0.2246  0.2304  1.0666
37586SOL    HW130750   9.351  10.379   0.217  0.3355 -0.6808  0.7168
37586SOL    HW230751   9.302  10.290   0.105 -1.1872 -0.0384  0.8487
37587SOL     OW30752   5.144   4.545  11.859  0.2906 -0.0520  0.0214
37587SOL    HW130753   5.050   4.537  11.841 -0.1174  0.1077  1.8063
37587SOL    HW230754   5.183   4.570  11.776 -1.6202  2.5256 -0.2115
37588SOL     OW30755   9.268   4.181   8.239 -0.2552 -0.7032 -0.1893
37588SOL    HW130756   9.362   4.161   8.230 -0.1603 -0.3812  0.0811
37588SOL    HW230757   9.251   4.176   8.333 -0.0895  1.0395 -0.0271
37589SOL     OW30758   7.320  10.656   7.278 -0.2414 -0.3634  0.3374
37589SOL    HW130759   7.288  10.673   7.367 -0.2425 -0.7243  0.4105
37589SOL    HW230760   7.352  10.740   7.247 -0.9889 -0.0605  0.3765
37590SOL     OW30761  10.152   4.183   4.687 -0.1407  0.0946  0.0738
37590SOL    HW130762  10.232   4.235   4.689 -0.0003 -0.1388  0.8763
37590SOL    HW230763  10.182   4.093   4.696 -0.5476  0.0736  1.3398
37591SOL     OW30764  12.470   0.832   8.805 -0.0463  0.2036 -0.6212
37591SOL    HW130765  12.413   0.760   8.781  0.2226 -0.1979 -0.0801
37591SOL    HW230766  12.459   0.841   8.900  0.0145  0.7907 -0.6661
37592SOL     OW30767  13.126  11.503  12.773  0.2140  0.1345  0.6119
37592SOL    HW130768  13.111  11.503  12.679 -2.0852 -0.0394  0.9130
37592SOL    HW230769  13.193  11.569  12.788  0.0022  0.7573 -1.0560
37593SOL     OW30770   4.608  11.950   3.487  0.2510 -0.4107  0.5856
37593SOL    HW130771   4.566  11.903   3.415  0.5803  0.2838 -0.0659
37593SOL    HW230772   4.640  11.880   3.545  2.5537 -1.1484 -1.3862
37594SOL     OW30773   0.554   9.371   3.072 -0.2636 -0.1762  0.4209
37594SOL    HW130774   0.555   9.283   3.034 -0.0811  0.0935 -0.2129
37594SOL    HW230775   0.479   9.414   3.031  0.0870  0.2017  0.1683
37595SOL     OW30776  13.692   2.113  13.582 -0.5114  0.4242  0.2968
37595SOL    HW130777  13.642   2.137  13.660 -0.7564  0.4472  0.1347
37595SOL    HW230778  13.706   2.018  13.592  0.3099  0.5957  0.8523
37596SOL     OW30779   6.561   5.344   6.979  0.2485  0.4575 -0.2212
37596SOL    HW130780   6.574   5.392   6.898 -1.0157  0.9643 -0.1491
37596SOL    HW230781   6.469   5.317   6.977  0.5738 -0.8107  0.3628
37597SOL     OW30782  11.226   8.242  12.026 -0.3282 -0.0022  0.3218
37597SOL    HW130783  11.197   8.278  12.110  0.3501  0.2250  0.4571
37597SOL    HW230784  11.219   8.314  11.964 -0.5842 -0.1006  0.2334
37598SOL     OW30785   6.291   9.853   2.565  0.5007  0.0511 -0.1602
37598SOL    HW130786   6.294   9.877   2.472  0.9953 -2.0835 -0.7531
37598SOL    HW230787   6.251   9.766   2.565 -1.0076  0.6801  1.8073
37599SOL     OW30788   8.898  12.926   1.897 -0.1312  0.1093  0.0321
37599SOL    HW130789   8.805  12.942   1.888 -0.0009  2.3019  1.7285
37599SOL    HW230790   8.907  12.885   1.983  0.4647 -0.1933 -0.1671
37600SOL     OW30791   9.098   0.608  10.402 -0.3712  0.0139 -0.4845
37600SOL    HW130792   9.075   0.604  10.310 -0.0432  0.5527 -0.5958
37600SOL    HW230793   9.024   0.653  10.443 -0.2740  0.2667 -0.5794
37601SOL     OW30794   6.759   7.653  12.698 -0.4162 -0.4482  0.2460
37601SOL    HW130795   6.799   7.621  12.778  0.0179  1.2334  0.7345
37601SOL    HW230796   6.727   7.574  12.654  2.3551 -1.7831  0.3970
37602SOL     OW30797   7.199   5.338  12.343  0.2788 -0.0434  0.0774
37602SOL    HW130798   7.162   5.426  12.351  0.0457 -0.1578  0.2694
37602SOL    HW230799   7.291   5.353  12.322  0.2086  0.2459 -0.0339
37603SOL     OW30800  10.882   1.361   0.251  0.2666  0.2611 -0.3376
37603SOL    HW130801  10.931   1.301   0.195  0.4678 -1.4349  1.5515
37603SOL    HW230802  10.852   1.430   0.191  1.3470 -0.8819 -2.3112
37604SOL     OW30803   1.277  13.924  11.339 -0.4678 -0.0863 -0.0722
37604SOL    HW130804   1.189  13.918  11.375  0.0605 -0.3281  1.2626
37604SOL    HW230805   1.272  13.993  11.273 -1.7088 -0.2951 -0.2158
37605SOL     OW30806   0.926   9.462   1.022 -0.3593 -0.2632  0.0616
37605SOL    HW130807   0.884   9.526   0.964 -0.2082  1.1861  1.4898
37605SOL    HW230808   0.869   9.385   1.017 -3.3085  1.5811  1.8585
37606SOL     OW30809   1.824   5.487  11.067  0.6799 -0.2892 -0.2687
37606SOL    HW130810   1.905   5.438  11.051  1.1332 -0.3051  1.8242
37606SOL    HW230811   1.853   5.579  11.069  0.7472 -0.3267  0.9327
37607SOL     OW30812   2.532   0.790   0.216  0.1848 -0.4984  0.5562
37607SOL    HW130813   2.472   0.815   0.285  0.5026 -0.5412  0.8490
37607SOL    HW230814   2.478   0.745   0.151 -0.1556 -0.2242  0.6516
37608SOL     OW30815  11.538   0.310   3.320 -0.2330 -0.0908 -0.3919
37608SOL    HW130816  11.483   0.247   3.274  0.9836 -1.3738 -0.1644
37608SOL    HW230817  11.551   0.381   3.257 -0.3430 -0.8132 -1.2577
37609SOL     OW30818  13.480  11.058  13.730 -0.4642 -0.1231  0.2852
37609SOL    HW130819  13.461  11.102  13.647  0.7298 -0.7138 -0.3311
37609SOL    HW230820  13.568  11.022  13.718 -0.4811 -0.6604  1.6282
37610SOL     OW30821   5.398  12.155  12.089  0.0213  0.7421  0.3135
37610SOL    HW130822   5.368  12.140  12.179  1.0489  0.5663  0.6388
37610SOL    HW230823   5.328  12.208  12.049 -0.6315  0.4821  1.0875
37611SOL     OW30824  12.235   7.178  11.386  0.0003 -0.2551  0.6677
37611SOL    HW130825  12.221   7.190  11.292  1.0334  1.5227  0.6789
37611SOL    HW230826  12.320   7.135  11.393 -0.7990 -1.8608  0.7809
37612SOL     OW30827   7.059  12.053  13.571 -0.4021  0.2783 -0.4263
37612SOL    HW130828   6.970  12.070  13.601  0.3774  1.3458  1.4548
37612SOL    HW230829   7.094  11.991  13.635  0.4994  0.5947 -0.5990
37613SOL     OW30830  10.060   0.244   2.660  0.4742  0.5541  0.1533
37613SOL    HW130831   9.999   0.318   2.657  1.6417  1.6069  1.1777
37613SOL    HW230832  10.095   0.247   2.749  1.1341 -0.7614 -0.0504
37614SOL     OW30833  13.509   3.682   8.748 -0.2726 -0.5236  0.5219
37614SOL    HW130834  13.426   3.635   8.745 -0.1602 -0.6772 -0.6868
37614SOL    HW230835  13.548   3.668   8.661  0.5746  0.3406  0.7420
37615SOL     OW30836  13.262   6.758   3.853 -0.1586  0.0156  0.3808
37615SOL    HW130837  13.320   6.779   3.780 -0.7544  0.1498 -0.0602
37615SOL    HW230838  13.176   6.750   3.814 -0.7190  1.3839  1.2514
37616SOL     OW30839  11.676  13.602   9.041 -0.0583  0.1349  0.4572
37616SOL    HW130840  11.708  13.667   8.978 -0.1749 -0.6790 -0.4516
37616SOL    HW230841  11.640  13.532   8.988 -0.4540 -0.4288  1.4405
37617SOL     OW30842  13.669   5.437   4.952  0.0924 -0.4268 -0.4561
37617SOL    HW130843  13.625   5.488   5.020  2.1091 -0.1348  0.6989
37617SOL    HW230844  13.624   5.462   4.871 -3.4514 -2.0076  0.8549
37618SOL     OW30845   8.653   2.813   0.218 -0.1997 -0.1955 -0.4046
37618SOL    HW130846   8.697   2.831   0.301  0.9085 -0.4875 -0.9078
37618SOL    HW230847   8.605   2.731   0.233  0.0604 -0.2888 -0.0736
37619SOL     OW30848   1.671   3.844   0.749 -0.0621 -0.3005  0.7713
37619SOL    HW130849   1.656   3.750   0.755  0.8061 -0.4788  0.3700
37619SOL    HW230850   1.670   3.863   0.655 -0.8054  0.1998  0.8700
37620SOL     OW30851   5.821   8.017   0.713  0.8817 -0.5182 -0.3594
37620SOL    HW130852   5.799   7.965   0.791 -1.2331  1.2192  0.3032
37620SOL    HW230853   5.887   8.079   0.743  1.4471 -1.0438 -0.4777
37621SOL     OW30854  13.202   7.257   1.893 -0.1393  0.4905  0.1122
37621SOL    HW130855  13.157   7.339   1.872 -1.4810 -0.1149  0.4964
37621SOL    HW230856  13.251   7.276   1.973 -1.5093  0.5821  0.9654
37622SOL     OW30857  12.300  12.406   6.615  0.1451 -0.1267  0.0900
37622SOL    HW130858  12.343  12.321   6.621  0.4500 -0.1266 -1.5101
37622SOL    HW230859  12.300  12.440   6.704  2.1954 -0.7486  0.3711
37623SOL     OW30860   6.993   2.894   3.429  0.3558 -0.0858  0.2519
37623SOL    HW130861   6.991   2.863   3.338  1.4474  1.4444 -0.3343
37623SOL    HW230862   6.901   2.906   3.452 -0.1380 -3.1217  0.3632
37624SOL     OW30863   3.025  11.992   9.736  0.0692  0.1828 -0.1167
37624SOL    HW130864   2.954  11.951   9.785 -0.1126  0.5064 -0.1062
37624SOL    HW230865   2.986  12.015   9.651 -0.0119  0.9194  0.1147
37625SOL     OW30866   9.119  10.134  13.630  0.1834  0.5474  0.3124
37625SOL    HW130867   9.072  10.145  13.547  0.5425  1.2978  0.1937
37625SOL    HW230868   9.050  10.121  13.695 -0.1341  0.5815 -0.0147
37626SOL     OW30869   2.620  12.266   5.760  0.1814 -0.0680 -0.0256
37626SOL    HW130870   2.632  12.360   5.748  1.9167 -0.2975 -0.2732
37626SOL    HW230871   2.595  12.233   5.674 -2.3794  0.3845  0.4560
37627SOL     OW30872   2.608   1.641   6.505 -0.1770 -0.7721 -0.0114
37627SOL    HW130873   2.535   1.626   6.444 -0.9555 -3.2024  1.3601
37627SOL    HW230874   2.570   1.692   6.576 -0.4028 -1.4295  0.3566
37628SOL     OW30875  11.083  11.296  12.863  0.2099  0.1232  0.3381
37628SOL    HW130876  11.024  11.229  12.899  0.9932  0.8308  3.2134
37628SOL    HW230877  11.171  11.258  12.873  0.5693  1.0556  0.8859
37629SOL     OW30878  13.504   4.154   6.167 -0.0492 -0.2381 -0.1520
37629SOL    HW130879  13.491   4.078   6.224  1.0958 -1.4974 -1.4891
37629SOL    HW230880  13.598   4.168   6.167  0.0382 -0.5586 -2.0322
37630SOL     OW30881   8.755   3.308   6.704 -0.7853 -0.4268  0.6965
37630SOL    HW130882   8.834   3.320   6.757 -0.9778 -1.0230  1.1313
37630SOL    HW230883   8.744   3.214   6.698  0.9908 -0.5683 -3.1011
37631SOL     OW30884  11.637  12.074   4.568 -0.3294  0.8306 -0.1908
37631SOL    HW130885  11.669  12.131   4.637 -0.0924  0.9301 -0.3843
37631SOL    HW230886  11.576  12.128   4.518  0.3337  1.0925 -0.7242
37632SOL     OW30887   6.732   6.116   4.552  0.0281  0.0013 -0.6510
37632SOL    HW130888   6.642   6.129   4.521  0.0403  1.5820 -0.0945
37632SOL    HW230889   6.786   6.162   4.488  0.3547 -0.0306 -0.3960
37633SOL     OW30890  12.194   4.708   8.586 -0.3318 -0.1442  0.3276
37633SOL    HW130891  12.278   4.722   8.630 -0.5456  1.5675  0.2525
37633SOL    HW230892  12.187   4.780   8.523 -1.7658 -0.3665  0.1892
37634SOL     OW30893   9.650  12.121   7.506  0.4094  0.3561  0.1922
37634SOL    HW130894   9.584  12.056   7.483 -2.6116  2.4894  1.9950
37634SOL    HW230895   9.729  12.070   7.524 -1.1522 -2.5495 -0.5630
37635SOL     OW30896   2.827   6.105   1.653  0.1502 -0.8302 -0.3183
37635SOL    HW130897   2.909   6.101   1.703 -0.3402  0.7248  0.7065
37635SOL    HW230898   2.854   6.106   1.562  1.2322 -1.1590 -0.0105
37636SOL     OW30899   7.233   7.002   0.626 -0.1562  0.4971  0.5034
37636SOL    HW130900   7.302   7.064   0.646 -0.2454  0.6995  0.1868
37636SOL    HW230901   7.258   6.922   0.672  0.6701  0.3316 -0.2188
37637SOL     OW30902  12.256  12.401   3.783  0.6165  0.0246  0.0085
37637SOL    HW130903  12.238  12.448   3.865  0.9149  0.7390 -0.3244
37637SOL    HW230904  12.247  12.309   3.806 -1.2808  0.2513  0.3956
37638SOL     OW30905   0.313   3.555   6.922 -0.4450 -0.6403  0.3869
37638SOL    HW130906   0.376   3.615   6.882 -0.6343 -1.1753 -0.7628
37638SOL    HW230907   0.353   3.468   6.915 -2.0343 -1.2906 -2.1299
37639SOL     OW30908  10.757  10.435  11.511  0.1905  0.8953  0.3758
37639SOL    HW130909  10.852  10.430  11.502  0.2481  1.3346  0.7072
37639SOL    HW230910  10.723  10.413  11.424  0.5545 -0.4106  0.5500
37640SOL     OW30911   3.770  11.878  13.707  0.1555  0.3051  0.0006
37640SOL    HW130912   3.687  11.832  13.717  0.1464  0.1460 -0.7496
37640SOL    HW230913   3.751  11.948  13.644  0.6807  0.0265 -0.4766
37641SOL     OW30914   0.766  13.285   3.137 -0.3257 -0.4032  0.1916
37641SOL    HW130915   0.792  13.366   3.180  0.0786 -0.4759  0.0928
37641SOL    HW230916   0.677  13.268   3.169 -0.3610  0.0020  0.3183
37642SOL     OW30917   0.097  13.755   0.733 -0.2097 -0.3401 -0.6773
37642SOL    HW130918   0.048  13.686   0.778  1.8074 -1.2914  0.1813
37642SOL    HW230919   0.182  13.756   0.776  1.4419 -0.5013 -3.7046
37643SOL     OW30920   4.306   7.150   0.493  0.2586  0.5193  0.3499
37643SOL    HW130921   4.399   7.138   0.476  0.0058 -1.3565  0.0533
37643SOL    HW230922   4.285   7.083   0.558 -1.3655 -0.7989 -1.4147
37644SOL     OW30923  11.437  10.532   6.321  0.1800  0.3756  0.1021
37644SOL    HW130924  11.376  10.486   6.378  1.6689 -0.8233  0.7865
37644SOL    HW230925  11.452  10.472   6.248 -0.1441  1.0525 -0.5388
37645SOL     OW30926   5.610   2.082   6.041 -0.6449 -0.0620 -0.2160
37645SOL    HW130927   5.661   2.142   5.986 -0.2349 -0.1509  0.0586
37645SOL    HW230928   5.598   2.004   5.987 -0.6675  0.0375 -0.3561
37646SOL     OW30929   6.204  11.091   4.690 -0.6089 -0.5104 -0.5028
37646SOL    HW130930   6.115  11.077   4.724 -0.6762  0.1669 -0.3886
37646SOL    HW230931   6.261  11.050   4.755 -0.8871 -2.2874 -1.3165
37647SOL     OW30932   1.630  12.980  11.679 -0.6931 -0.6492 -0.1924
37647SOL    HW130933   1.678  12.898  11.668  1.0937  0.2355  0.6036
37647SOL    HW230934   1.620  13.014  11.590  2.0005  0.1083 -0.2793
37648SOL     OW30935   4.973  10.281   8.659 -0.2840 -0.8011 -0.5762
37648SOL    HW130936   5.014  10.367   8.650 -1.9010 -0.0529 -1.2992
37648SOL    HW230937   4.925  10.269   8.577 -1.5476 -1.5613  0.2404
37649SOL     OW30938   2.074   3.434  11.919  0.4322  0.1053 -0.4752
37649SOL    HW130939   2.055   3.524  11.894 -1.5424  0.1987  1.0589
37649SOL    HW230940   2.102   3.391  11.838  0.0958  1.7628 -1.5122
37650SOL     OW30941   7.452  13.750   4.816  0.5544  0.0103  0.2768
37650SOL    HW130942   7.426  13.724   4.904 -0.4772  0.6037  0.1639
37650SOL    HW230943   7.374  13.793   4.779  1.4111  1.0421 -0.4130
37651SOL     OW30944  12.398   6.961   8.146 -0.0520 -0.6404  0.0285
37651SOL    HW130945  12.316   7.009   8.147 -0.1406 -0.7954  0.5784
37651SOL    HW230946  12.399   6.917   8.060 -1.5546 -2.3321  0.7981
37652SOL     OW30947   1.890   5.853   8.133  0.1127 -0.0751  0.1177
37652SOL    HW130948   1.921   5.942   8.114 -0.2326 -0.1390 -0.7904
37652SOL    HW230949   1.951   5.796   8.087  0.3911 -0.3252  0.7773
37653SOL     OW30950   2.901   2.956   3.976 -0.7018 -0.1659 -0.2572
37653SOL    HW130951   2.980   3.009   3.979 -1.4520  1.0718 -1.1168
37653SOL    HW230952   2.861   2.978   3.891 -2.8408  0.6165  0.8741
37654SOL     OW30953   3.712  12.435  13.524 -0.3299 -0.7682  0.8788
37654SOL    HW130954   3.713  12.466  13.615  0.1499 -0.1218  0.6602
37654SOL    HW230955   3.792  12.470  13.486 -0.9734 -0.2625 -0.0416
37655SOL     OW30956  13.302   5.720   2.752  0.8233 -0.1299 -0.0577
37655SOL    HW130957  13.250   5.640   2.758  1.3778 -0.6246 -1.4257
37655SOL    HW230958  13.253   5.785   2.801  1.0088 -1.6204  2.2223
37656SOL     OW30959  12.212  10.382   4.269  0.0044  0.6886  0.3015
37656SOL    HW130960  12.178  10.424   4.190 -1.6067  0.5145  0.8659
37656SOL    HW230961  12.298  10.423   4.283 -0.4559  2.0064 -0.5316
37657SOL     OW30962   0.162   1.421   2.780  0.4787 -0.6435  0.4436
37657SOL    HW130963   0.119   1.336   2.770  0.4195 -0.5471 -0.1329
37657SOL    HW230964   0.210   1.414   2.862 -0.3351 -0.8876  0.9194
37658SOL     OW30965   3.268   6.385   4.958 -0.1344  0.2355  0.1263
37658SOL    HW130966   3.335   6.374   4.890  0.7849  0.6403  0.9370
37658SOL    HW230967   3.216   6.305   4.953  1.8005 -1.1541  0.9440
37659SOL     OW30968   3.055   8.939   3.194 -0.1095 -0.2383 -0.5301
37659SOL    HW130969   3.031   9.032   3.204 -0.7672 -0.4264 -0.3232
37659SOL    HW230970   3.086   8.914   3.281  0.6658 -0.0565 -0.7400
37660SOL     OW30971   2.207   6.224   5.488  0.3386  0.2512  0.3247
37660SOL    HW130972   2.187   6.273   5.568 -0.6389  0.0505  0.2174
37660SOL    HW230973   2.183   6.134   5.509  1.2720 -0.0314  0.2169
37661SOL     OW30974   6.667   0.721  13.671 -0.1308 -0.2073  0.0483
37661SOL    HW130975   6.693   0.801  13.626 -1.6883  0.8794  1.0016
37661SOL    HW230976   6.726   0.716  13.747  0.5173 -0.4362 -0.4586
37662SOL     OW30977   6.793  13.993   9.355  0.1605 -0.1120 -0.5150
37662SOL    HW130978   6.824  14.075   9.394  0.4330  0.7050 -2.3525
37662SOL    HW230979   6.707  14.013   9.320  0.6467 -0.2747 -1.8866
37663SOL     OW30980  13.658  10.795   3.927 -0.5425  0.3891 -0.3176
37663SOL    HW130981  13.742  10.825   3.962 -0.2993 -0.2961 -0.3015
37663SOL    HW230982  13.646  10.846   3.846  0.3146 -0.1252 -0.7832
37664SOL     OW30983   7.648   5.504   1.049  0.3481  0.0443 -0.2788
37664SOL    HW130984   7.729   5.473   1.089  0.3661  0.0889 -0.2794
37664SOL    HW230985   7.652   5.599   1.060 -0.1653 -0.0219  0.5923
37665SOL     OW30986   6.760   2.902  11.693 -0.1464  0.0222 -0.0995
37665SOL    HW130987   6.761   2.899  11.788  2.3104  1.3943 -0.0047
37665SOL    HW230988   6.668   2.917  11.671 -0.6047  0.9252  2.1163
37666SOL     OW30989  10.177   5.029  10.689  0.0845  0.2963  0.1976
37666SOL    HW130990  10.108   4.975  10.729  0.2095  0.5154  0.7243
37666SOL    HW230991  10.172   5.112  10.737  0.3075  0.5316 -0.1829
37667SOL     OW30992   5.562   6.475   3.772  0.2505  0.1260  0.1640
37667SOL    HW130993   5.605   6.405   3.821  1.0324  2.0735  2.5282
37667SOL    HW230994   5.475   6.442   3.753  0.9221 -1.8226  0.3306
37668SOL     OW30995   5.167  11.706   6.960  0.1269  0.0849  0.4352
37668SOL    HW130996   5.110  11.685   6.886  1.0229 -2.6379  0.3983
37668SOL    HW230997   5.243  11.747   6.920 -0.0880  0.0926  0.0267
37669SOL     OW30998  12.836  13.240   4.915  0.3968  0.3267 -0.2358
37669SOL    HW130999  12.755  13.287   4.891  0.2813 -0.0573 -0.6194
37669SOL    HW231000  12.866  13.284   4.995 -1.0092 -0.4860  0.7884
37670SOL     OW31001   8.032  13.809   4.638  0.5640  0.1763 -0.1125
37670SOL    HW131002   7.975  13.795   4.714  3.0783 -0.5966  1.8024
37670SOL    HW231003   8.017  13.732   4.583 -0.7469  0.3606 -0.0531
37671SOL     OW31004  10.879   5.951   2.690  0.1264  0.6876  0.5587
37671SOL    HW131005  10.970   5.980   2.694  1.0543 -1.3071 -2.5539
37671SOL    HW231006  10.837   6.012   2.630 -0.4753  1.2319  1.5080
37672SOL     OW31007  13.266   8.136  11.809 -0.2372 -0.0880 -0.5334
37672SOL    HW131008  13.181   8.092  11.817 -0.2535 -0.4247 -2.1612
37672SOL    HW231009  13.287   8.131  11.715  0.9730  1.1337 -0.3638
37673SOL     OW31010   5.143   8.036  14.063  0.3252  0.5881 -0.1023
37673SOL    HW131011   5.051   8.061  14.061 -0.3525 -1.1856  3.0110
37673SOL    HW231012   5.188   8.113  14.097 -0.8161 -0.0424  3.1520
37674SOL     OW31013   8.243   8.935   5.032 -0.6852  0.4127  0.0256
37674SOL    HW131014   8.261   9.016   4.983  0.4632  0.9418  1.2820
37674SOL    HW231015   8.207   8.876   4.966 -0.6632  1.6260 -1.1289
37675SOL     OW31016  12.884  12.202   1.977  0.5572 -0.8189 -0.2419
37675SOL    HW131017  12.840  12.242   2.052  2.2139 -1.3327  1.0585
37675SOL    HW231018  12.847  12.247   1.901 -0.5487  0.3144  0.9185
37676SOL     OW31019   4.597   9.786   8.547 -0.1191 -0.0032  0.2334
37676SOL    HW131020   4.560   9.726   8.482  1.3880 -3.0613  1.9443
37676SOL    HW231021   4.522   9.821   8.594 -1.0584 -1.6706  0.0483
37677SOL     OW31022  11.317   6.520  11.314 -0.2111  0.9967  0.7001
37677SOL    HW131023  11.345   6.561  11.232  0.6334 -1.9795 -0.6776
37677SOL    HW231024  11.222   6.517  11.309 -0.1465  0.2151 -0.5954
37678SOL     OW31025   8.601   7.758  10.779 -0.3022  0.1023 -0.0384
37678SOL    HW131026   8.690   7.758  10.742 -0.2482  0.3928  0.0960
37678SOL    HW231027   8.572   7.667  10.770 -0.6551  0.3390 -1.6742
37679SOL     OW31028   1.880  13.453   5.129 -0.5869  0.3288  0.6517
37679SOL    HW131029   1.837  13.386   5.183 -0.3866 -0.1445  0.2346
37679SOL    HW231030   1.810  13.514   5.106 -0.4402  1.2896  2.5301
37680SOL     OW31031   7.520  11.445   5.953  0.4416  0.0538  0.5524
37680SOL    HW131032   7.523  11.540   5.965  1.7625 -0.1273  1.9196
37680SOL    HW231033   7.553  11.431   5.864 -1.4292  0.9280 -0.3581
37681SOL     OW31034  11.582   9.457   2.916  0.3762  0.0234 -0.5720
37681SOL    HW131035  11.517   9.468   2.847  0.2698  1.8071 -0.2584
37681SOL    HW231036  11.655   9.514   2.890 -0.6416  2.6722  1.8242
37682SOL     OW31037   2.866   7.650   9.184 -0.5896  0.2115 -0.0991
37682SOL    HW131038   2.778   7.637   9.149 -0.5348 -2.6450  0.5889
37682SOL    HW231039   2.870   7.743   9.205 -2.1479  1.1692 -3.4060
37683SOL     OW31040   1.021   1.805   4.792 -0.1343  0.1147 -0.2515
37683SOL    HW131041   0.954   1.830   4.856  2.1356  0.1268  2.2677
37683SOL    HW231042   0.986   1.725   4.752 -0.4790 -1.6466  3.1590
37684SOL     OW31043  12.553   1.209   9.138 -0.2389 -0.2623  0.3242
37684SOL    HW131044  12.620   1.228   9.073 -0.3989 -0.8974 -0.0385
37684SOL    HW231045  12.593   1.145   9.197  0.0672  0.6528  1.1378
37685SOL     OW31046  10.431  11.909   4.680 -0.3377  0.3504  0.5773
37685SOL    HW131047  10.504  11.971   4.677 -0.4095  0.5219 -3.2189
37685SOL    HW231048  10.369  11.948   4.741  1.0652  2.2587  0.8794
37686SOL     OW31049  10.868  11.158   1.898  0.2540  0.1616 -0.1140
37686SOL    HW131050  10.822  11.084   1.859 -0.1474  0.7698 -0.8242
37686SOL    HW231051  10.805  11.230   1.896  1.0169  0.8434 -0.5429
37687SOL     OW31052   7.803  12.032   8.947 -0.0469  0.8810  0.4682
37687SOL    HW131053   7.856  12.095   8.898  0.2144  1.0008  0.8926
37687SOL    HW231054   7.858  12.009   9.022 -0.3875  0.6056  0.6340
37688SOL     OW31055  12.809   3.022  11.520  0.3907 -0.1688  0.0153
37688SOL    HW131056  12.853   2.941  11.545  0.6996 -0.4271 -1.2666
37688SOL    HW231057  12.876   3.090  11.527 -0.1563  0.2112  2.1718
37689SOL     OW31058  12.865  10.905  11.675 -0.4729 -0.0150  0.0481
37689SOL    HW131059  12.926  10.936  11.742 -2.0266  1.4775  0.8343
37689SOL    HW231060  12.807  10.844  11.721  0.6161 -1.7674 -0.7931
37690SOL     OW31061  12.965   5.398  11.168  0.1507  0.1072 -0.1756
37690SOL    HW131062  12.879   5.381  11.131  0.7687 -1.3883 -0.9874
37690SOL    HW231063  12.994   5.479  11.127 -0.9069  0.6911  0.2060
37691SOL     OW31064  10.727  12.814   8.876  0.3011 -0.2311  0.4373
37691SOL    HW131065  10.750  12.844   8.788 -0.5536  0.4503  0.4386
37691SOL    HW231066  10.782  12.867   8.934 -1.0532  1.2592  0.4291
37692SOL     OW31067   7.953   0.841  12.259  0.2072 -0.5136 -0.1355
37692SOL    HW131068   7.886   0.901  12.226  1.6223  0.1900 -1.8627
37692SOL    HW231069   7.930   0.756  12.221  0.3698 -0.2495 -0.8326
37693SOL     OW31070   2.025   3.532  13.138 -0.2444 -0.2088  0.1511
37693SOL    HW131071   1.976   3.453  13.163 -0.4921  0.2106  1.0341
37693SOL    HW231072   2.109   3.522  13.182 -0.1443 -0.1439 -0.0261
37694SOL     OW31073  11.521   5.460  11.720  0.1224 -0.3997 -0.3154
37694SOL    HW131074  11.453   5.393  11.712  0.2717 -0.4696 -1.0215
37694SOL    HW231075  11.583   5.440  11.650  0.1382  0.5142 -0.5707
37695SOL     OW31076   1.398  10.019   7.780 -0.1766 -0.2667  0.3160
37695SOL    HW131077   1.405   9.985   7.869 -1.9666  1.3736  1.1619
37695SOL    HW231078   1.483  10.058   7.763  0.2310 -0.7002  1.2717
37696SOL     OW31079   9.770   6.682   8.662  0.4254 -0.6311 -1.1410
37696SOL    HW131080   9.803   6.599   8.697  1.1529 -0.1348 -0.5994
37696SOL    HW231081   9.714   6.657   8.589 -0.9822 -1.7080  0.2527
37697SOL     OW31082  10.820   3.123   2.524 -0.0874 -0.4419  0.1401
37697SOL    HW131083  10.869   3.048   2.558  0.3754 -0.9719 -1.6087
37697SOL    HW231084  10.798   3.174   2.602  0.3436 -1.9294  1.2868
37698SOL     OW31085   2.373   6.349  13.450  0.6628 -0.1150 -0.2966
37698SOL    HW131086   2.410   6.294  13.380  0.9812 -1.1214  0.6239
37698SOL    HW231087   2.413   6.315  13.530 -0.7293  0.0985  0.5221
37699SOL     OW31088   9.030   8.358   9.669  0.2574 -0.1777 -0.3773
37699SOL    HW131089   9.006   8.266   9.672 -0.5034  0.0359  1.1340
37699SOL    HW231090   9.059   8.378   9.758  0.9358  0.9188 -0.8188
37700SOL     OW31091   2.281  13.971  12.699  0.1027 -0.0188 -0.1131
37700SOL    HW131092   2.358  13.916  12.710  0.5959  0.7610  0.4471
37700SOL    HW231093   2.287  14.035  12.770 -0.4734  0.7267 -0.7248
37701SOL     OW31094  11.100   9.145  14.141 -0.3520 -0.7633  0.2521
37701SOL    HW131095  11.060   9.219  14.188 -0.1922 -1.1706  1.0412
37701SOL    HW231096  11.039   9.128  14.069 -0.9056 -0.4979  0.6425
37702SOL     OW31097   4.867   3.738  11.750  0.1235  0.0614  0.2500
37702SOL    HW131098   4.805   3.707  11.816  0.3204  0.3249  0.5603
37702SOL    HW231099   4.833   3.704  11.667 -0.9239  0.9308  0.3049
37703SOL     OW31100   1.011   1.902  12.378  0.5828 -0.3191 -0.2963
37703SOL    HW131101   0.963   1.983  12.363 -0.9976 -0.6559  2.2129
37703SOL    HW231102   1.091   1.928  12.422 -0.8015 -0.1350  2.2798
37704SOL     OW31103  11.180   2.593  14.037 -0.6977  0.1767  0.2803
37704SOL    HW131104  11.254   2.588  14.097 -0.4278  0.2011 -0.0474
37704SOL    HW231105  11.187   2.680  13.997 -0.1670 -0.2975 -0.6819
37705SOL     OW31106   3.150   6.787   2.026 -0.4019  0.1357  0.2540
37705SOL    HW131107   3.216   6.727   1.993 -1.4225 -2.0877  1.9344
37705SOL    HW231108   3.087   6.796   1.954  0.8727  0.9923 -0.7856
37706SOL     OW31109  10.029  13.461  11.164  0.4747 -0.0718  0.0806
37706SOL    HW131110   9.966  13.396  11.133  1.0161 -0.4304 -0.2727
37706SOL    HW231111   9.989  13.496  11.243  0.4947 -1.3382  0.6826
37707SOL     OW31112   3.919   1.064  12.398  0.1379  0.1502 -0.1067
37707SOL    HW131113   3.937   1.138  12.341  0.4446  1.4263  1.5833
37707SOL    HW231114   4.002   1.017  12.404  0.5392  0.9191  0.5280
37708SOL     OW31115   0.640   8.122  12.278  0.0853  0.5455  0.3280
37708SOL    HW131116   0.639   8.029  12.256  0.6580  0.6341 -0.1233
37708SOL    HW231117   0.726   8.136  12.318  0.1348  0.9472  0.0857
37709SOL     OW31118   5.820  13.572   1.212  0.3023  0.1116  0.1592
37709SOL    HW131119   5.843  13.637   1.146  0.5501 -0.9911 -0.8844
37709SOL    HW231120   5.901  13.558   1.261  0.0310  1.1764  0.9309
37710SOL     OW31121   7.152  11.006   4.925  0.1477  0.1400 -0.4881
37710SOL    HW131122   7.143  10.949   5.001 -0.8720  1.2083  0.2139
37710SOL    HW231123   7.247  11.006   4.907  0.7399  1.6086  2.1763
37711SOL     OW31124  11.803   3.592  12.459 -0.4228  0.8324 -0.0551
37711SOL    HW131125  11.860   3.518  12.439 -0.6615  0.8019 -0.6486
37711SOL    HW231126  11.824   3.657  12.392 -2.2576  0.1743 -1.3538
37712SOL     OW31127   8.859   5.989   4.823  0.2408 -0.3836  0.3299
37712SOL    HW131128   8.878   5.899   4.850  0.5781 -0.1933  0.7384
37712SOL    HW231129   8.784   5.981   4.763  1.4525 -1.1283 -1.1658
37713SOL     OW31130   7.005   9.241   1.249  0.1422  0.1469  0.3364
37713SOL    HW131131   6.945   9.288   1.190  0.7567  1.5776  0.7891
37713SOL    HW231132   7.074   9.208   1.192 -1.3226 -2.0243 -0.2744
37714SOL     OW31133   9.520   7.416   7.393 -0.0451  0.1127 -0.5428
37714SOL    HW131134   9.513   7.446   7.302 -1.3627  0.2641 -0.4097
37714SOL    HW231135   9.444   7.359   7.406  0.7404 -0.8087  0.1439
37715SOL     OW31136   2.839   0.981   8.772 -0.6720 -0.7831  0.2166
37715SOL    HW131137   2.912   1.035   8.804 -0.3861 -1.0133 -0.0352
37715SOL    HW231138   2.774   1.044   8.742  0.7947 -0.4967 -2.6993
37716SOL     OW31139  10.953  10.928   2.275  0.1470 -0.2770  0.3469
37716SOL    HW131140  10.858  10.932   2.268  0.2608  0.8071 -1.4829
37716SOL    HW231141  10.982  11.015   2.247  1.6464 -0.1207  2.2211
37717SOL     OW31142  11.902  11.850  12.320 -0.3472  0.1778 -0.1084
37717SOL    HW131143  11.986  11.831  12.279  0.9906  1.8577  1.6637
37717SOL    HW231144  11.869  11.928  12.276 -0.3504  0.2622  0.0416
37718SOL     OW31145  12.912   0.050  10.662  0.2131 -0.1194 -0.0179
37718SOL    HW131146  12.956   0.036  10.578  0.0749 -1.5218  0.1220
37718SOL    HW231147  12.980   0.031  10.728  0.6261  1.9425  0.2454
37719SOL     OW31148   0.416  12.956   4.117 -0.0767  0.9511  0.1738
37719SOL    HW131149   0.394  12.871   4.079  0.4121  1.1324 -0.5524
37719SOL    HW231150   0.361  12.964   4.195 -0.6925  0.3107 -0.1912
37720SOL     OW31151  10.546   7.589   4.835  0.1619 -0.0990 -0.3645
37720SOL    HW131152  10.522   7.546   4.753  1.3046 -0.8904 -0.3084
37720SOL    HW231153  10.478   7.656   4.848 -1.9726 -2.1685 -0.2028
37721SOL     OW31154   3.840   1.394  11.199  0.2607 -0.4632  0.0663
37721SOL    HW131155   3.757   1.367  11.239 -0.2557  0.9145 -0.0021
37721SOL    HW231156   3.847   1.487  11.220  1.2240 -0.2944 -0.9143
37722SOL     OW31157   1.791   3.342   1.648  0.4335  0.2291 -0.5138
37722SOL    HW131158   1.805   3.427   1.691  0.8997  0.7986 -1.7573
37722SOL    HW231159   1.867   3.330   1.591 -0.8142  0.1665 -2.2444
37723SOL     OW31160   5.649   6.722  14.123 -0.2903 -0.6141 -0.0828
37723SOL    HW131161   5.560   6.691  14.105  0.0461 -1.9592  0.4629
37723SOL    HW231162   5.637   6.794  14.184 -1.1038  0.5027 -1.4951
37724SOL     OW31163  14.124  10.603   9.970  0.1791 -0.0004 -0.2068
37724SOL    HW131164  14.064  10.646   9.909 -0.3221  0.3098  0.4916
37724SOL    HW231165  14.110  10.648  10.053  0.4337 -0.8001  0.2766
37725SOL     OW31166   8.918   1.504   8.520  0.3115 -0.3761  0.5567
37725SOL    HW131167   8.994   1.539   8.566  2.7858 -3.4284 -0.8771
37725SOL    HW231168   8.886   1.433   8.576 -0.3684 -0.2988  0.2851
37726SOL     OW31169   7.446  14.075  10.362 -0.0734  0.2580 -0.2208
37726SOL    HW131170   7.388  14.034  10.298  0.0854  0.6267 -0.6084
37726SOL    HW231171   7.534  14.053  10.332 -0.0059 -0.7675  0.6752
37727SOL     OW31172  11.605  13.926   9.729  0.2311  0.2989  0.6920
37727SOL    HW131173  11.667  13.867   9.772  0.0496 -0.9439 -0.6553
37727SOL    HW231174  11.640  13.937   9.640 -0.8401  0.5545  0.2868
37728SOL     OW31175   3.831  12.546   9.855  0.4614  0.3520  0.5875
37728SOL    HW131176   3.817  12.490   9.779  0.2628  0.8931  0.2156
37728SOL    HW231177   3.776  12.508   9.923  2.2600 -1.4105  1.1437
37729SOL     OW31178  10.506   4.506  11.083  0.2722 -0.6342 -0.1223
37729SOL    HW131179  10.482   4.457  11.004  0.3623 -0.2193 -0.4118
37729SOL    HW231180  10.592   4.542  11.063 -0.3182  0.6539 -0.3905
37730SOL     OW31181  11.388   3.384   1.875 -0.0089  0.0729  0.6255
37730SOL    HW131182  11.311   3.332   1.900  0.4261 -0.9936 -0.1659
37730SOL    HW231183  11.355   3.445   1.809 -0.4090  0.4248  1.1460
37731SOL     OW31184   2.799   9.897   9.948  0.1857 -0.0260  0.1125
37731SOL    HW131185   2.753   9.860  10.024  0.7872  1.0348  1.0062
37731SOL    HW231186   2.891   9.900   9.974  0.1221  2.4161  0.2186
37732SOL     OW31187  10.391   4.152   6.724 -0.0563  0.1207  0.7806
37732SOL    HW131188  10.363   4.064   6.701  0.7459  0.7442 -3.6344
37732SOL    HW231189  10.311   4.198   6.749 -1.0727 -1.0245 -0.2766
37733SOL     OW31190   4.474   0.355  11.961 -0.7139 -0.1949  0.2718
37733SOL    HW131191   4.426   0.373  12.042 -0.3853  0.5097  0.3127
37733SOL    HW231192   4.406   0.336  11.896 -0.9663 -1.1537  0.7931
37734SOL     OW31193   4.604   3.497  11.386  0.6890 -0.0225 -0.3256
37734SOL    HW131194   4.518   3.469  11.355  0.3061  0.8428 -0.0873
37734SOL    HW231195   4.649   3.529  11.308  0.0758  1.2814 -0.1711
37735SOL     OW31196  11.504   4.625   6.244  0.4134 -0.1545 -0.0831
37735SOL    HW131197  11.485   4.555   6.306  0.2206  0.1598  0.2189
37735SOL    HW231198  11.585   4.664   6.277  0.8683 -0.6440 -0.6148
37736SOL     OW31199   4.980   9.384   5.823 -0.4278 -0.2239 -0.6829
37736SOL    HW131200   5.034   9.448   5.870 -0.4979 -1.1666  0.7240
37736SOL    HW231201   4.921   9.348   5.889 -1.2357 -0.8524 -1.7152
37737SOL     OW31202  12.649  11.309   2.987 -0.3893  0.4030 -0.1683
37737SOL    HW131203  12.632  11.333   2.896 -1.0987  0.5600  0.0019
37737SOL    HW231204  12.676  11.391   3.029 -2.8415  0.9818  0.4204
37738SOL     OW31205  12.892   0.241   4.574  0.6310  0.2957 -0.0381
37738SOL    HW131206  12.932   0.200   4.497  1.0840 -1.3348  1.0171
37738SOL    HW231207  12.887   0.334   4.551  0.2552 -0.2007 -2.2378
37739SOL     OW31208   4.946   2.842  10.490 -0.3051 -0.1347  0.2242
37739SOL    HW131209   5.009   2.834  10.562 -0.4914  1.3603  0.5737
37739SOL    HW231210   4.975   2.776  10.426  0.3461 -0.9232  1.3029
37740SOL     OW31211   6.031  12.429   4.428 -0.3159  0.2175  0.0998
37740SOL    HW131212   5.963  12.369   4.399 -1.2264  1.0679  0.4445
37740SOL    HW231213   6.056  12.397   4.514  0.4361 -0.6724 -0.4260
37741SOL     OW31214   4.533   2.741   5.396  0.1273 -0.3948  0.2420
37741SOL    HW131215   4.523   2.766   5.304 -0.4413 -1.0485  0.1148
37741SOL    HW231216   4.565   2.820   5.440 -0.2487  0.1167 -0.4019
37742SOL     OW31217  10.225   1.179   0.255  0.2070 -0.0849  0.1871
37742SOL    HW131218  10.131   1.194   0.250  0.0894 -0.5312  0.9308
37742SOL    HW231219  10.264   1.264   0.235 -0.3926  0.6456  1.9478
37743SOL     OW31220   0.150   1.181   0.944 -0.5008 -0.7342 -0.3809
37743SOL    HW131221   0.151   1.202   1.037 -1.7049 -1.3736 -0.2073
37743SOL    HW231222   0.062   1.147   0.928  0.5844 -3.4212 -1.1292
37744SOL     OW31223   0.473   8.617   0.018  0.1755 -0.1087  0.1097
37744SOL    HW131224   0.556   8.654  -0.013  0.9160  0.3083  2.4458
37744SOL    HW231225   0.452   8.549  -0.046  1.8308  0.3961 -1.0370
37745SOL     OW31226   7.339   7.679  11.250  0.3094  0.2073 -1.0265
37745SOL    HW131227   7.260   7.652  11.202 -1.2848 -0.7282  1.8769
37745SOL    HW231228   7.396   7.717  11.183 -3.2054  2.4174 -3.0772
37746SOL     OW31229   2.097   0.651   2.741 -0.0735  0.1240 -0.0851
37746SOL    HW131230   2.058   0.626   2.657 -0.0315 -2.3550  0.5732
37746SOL    HW231231   2.070   0.582   2.802  2.3868  0.2173  1.2362
37747SOL     OW31232   0.984   6.752  12.549 -0.3273  0.5216  0.3150
37747SOL    HW131233   1.001   6.662  12.522 -0.6139 -0.8154  3.9737
37747SOL    HW231234   1.037   6.806  12.490  3.8582 -2.3717  0.9772
37748SOL     OW31235   7.617   9.384   5.893 -0.1944 -0.0783  0.1789
37748SOL    HW131236   7.647   9.302   5.932  0.3793  0.7914  1.6588
37748SOL    HW231237   7.605   9.443   5.967 -0.9636  1.0722 -0.8161
37749SOL     OW31238  10.270   2.023   8.933  0.5017 -0.2269  0.5667
37749SOL    HW131239  10.297   2.016   9.024 -0.5281  0.6374  0.9620
37749SOL    HW231240  10.287   2.114   8.909  1.3995 -0.6059 -0.3344
37750SOL     OW31241   0.418   0.046  12.917 -0.0569 -0.2352  0.4637
37750SOL    HW131242   0.385   0.113  12.978 -0.4283 -0.8977  1.0044
37750SOL    HW231243   0.417  -0.035  12.968  1.0384 -0.5424  0.0314
37751SOL     OW31244  12.374   9.211   3.540 -0.2484  0.1713 -1.1050
37751SOL    HW131245  12.285   9.246   3.530 -0.4234 -0.4259 -1.6651
37751SOL    HW231246  12.431   9.287   3.527 -0.5631  0.0531 -3.6461
37752SOL     OW31247   5.233   4.838   3.078  0.1247  0.2583  0.2381
37752SOL    HW131248   5.277   4.923   3.069 -0.1359  0.2554 -1.3367
37752SOL    HW231249   5.304   4.775   3.087  0.3713  0.4527 -0.3474
37753SOL     OW31250   9.923   2.334   7.451 -0.3902  0.0588  0.8095
37753SOL    HW131251  10.014   2.305   7.444  0.1742  0.9308  3.3595
37753SOL    HW231252   9.928   2.429   7.459 -1.8161  0.4613 -1.8200
37754SOL     OW31253  12.059   3.570   8.351  0.0243  0.0435  0.0501
37754SOL    HW131254  12.085   3.624   8.276  2.2485  0.7947  1.2437
37754SOL    HW231255  12.143   3.545   8.391 -0.9766 -3.1277  0.3971
37755SOL     OW31256   3.706  11.741   0.967 -0.4894  0.0906  0.0548
37755SOL    HW131257   3.715  11.755   1.062 -1.7193 -0.4818  0.2692
37755SOL    HW231258   3.660  11.819   0.935  0.9778  0.8515 -0.2919
37756SOL     OW31259  12.681   5.242   9.917  0.0483  0.2885 -0.4129
37756SOL    HW131260  12.726   5.171   9.963  0.2450  0.0512 -0.9587
37756SOL    HW231261  12.748   5.277   9.857 -0.6487 -0.4674 -1.6797
37757SOL     OW31262   4.770   7.851   1.145 -0.1731 -0.4017  0.7690
37757SOL    HW131263   4.855   7.820   1.114  0.0111 -1.2533  2.0540
37757SOL    HW231264   4.710   7.779   1.126 -0.8714  0.6093 -1.1183
37758SOL     OW31265   7.492   2.190  13.018  0.3457  0.5954 -0.3223
37758SOL    HW131266   7.577   2.217  13.052 -1.0499  1.3377  3.0591
37758SOL    HW231267   7.483   2.098  13.044  0.6280  0.0855 -1.9257
37759SOL     OW31268   9.928   3.280   9.388  0.1999  0.0364 -0.2402
37759SOL    HW131269   9.898   3.205   9.336 -1.5023  1.7903 -1.9843
37759SOL    HW231270   9.960   3.342   9.322  0.6751  1.2086  1.0638
37760SOL     OW31271   3.101   5.047   2.820  0.0592  0.2079 -0.6787
37760SOL    HW131272   3.176   5.095   2.785  1.3451 -0.3047  1.2050
37760SOL    HW231273   3.074   5.097   2.898  1.5575 -2.0569  1.4511
37761SOL     OW31274  13.873  11.977   7.757  0.2467  0.2454  0.0589
37761SOL    HW131275  13.887  11.976   7.852  0.6946  1.3100  0.0273
37761SOL    HW231276  13.947  11.927   7.722 -0.9349 -1.7976  0.3373
37762SOL     OW31277   5.078  11.795  12.713 -0.0989 -0.3191 -0.0618
37762SOL    HW131278   5.052  11.859  12.779 -1.4098  0.0160 -0.8633
37762SOL    HW231279   5.103  11.847  12.637 -0.6004 -0.7303 -0.5178
37763SOL     OW31280   7.378   1.023  12.257  0.6937 -0.2877 -0.0274
37763SOL    HW131281   7.410   1.084  12.323 -0.0736  0.2662 -0.1466
37763SOL    HW231282   7.361   1.078  12.180 -1.1738 -0.4104  0.2416
37764SOL     OW31283   0.283  10.052   2.468  0.0921  0.2913 -0.1097
37764SOL    HW131284   0.271  10.121   2.403 -1.3628  1.5159  1.3700
37764SOL    HW231285   0.355  10.082   2.523 -0.6742  0.7750  0.6581
37765SOL     OW31286   6.648   1.609   0.590  0.4713 -0.0135 -0.1381
37765SOL    HW131287   6.575   1.630   0.534  1.1988  0.5869 -0.8834
37765SOL    HW231288   6.691   1.534   0.548  1.1132  0.5394 -0.4921
37766SOL     OW31289   3.196   0.208  12.336 -0.0679 -0.2194  0.4452
37766SOL    HW131290   3.141   0.155  12.395 -0.4012 -0.5166 -0.1254
37766SOL    HW231291   3.134   0.265  12.291  0.0007 -0.9650 -0.6393
37767SOL     OW31292   3.906   8.843   0.410  0.0120 -0.4801 -0.3140
37767SOL    HW131293   3.894   8.937   0.404 -0.4797 -0.4790  0.6438
37767SOL    HW231294   3.820   8.806   0.394 -0.0353 -0.7144  0.4439
37768SOL     OW31295   2.424   9.408   2.745  0.0133  0.0785 -0.2216
37768SOL    HW131296   2.398   9.462   2.819  0.1227  1.1542 -0.9331
37768SOL    HW231297   2.349   9.352   2.728  0.2828 -0.7405  1.1759
37769SOL     OW31298   0.284   4.213  11.809 -0.5302  0.1243 -0.2806
37769SOL    HW131299   0.207   4.188  11.759 -0.5081  0.9249 -0.7317
37769SOL    HW231300   0.324   4.284  11.758  0.2824 -0.0180  0.1466
37770SOL     OW31301   0.756   7.830  12.487  0.0942  0.0271 -0.2124
37770SOL    HW131302   0.756   7.752  12.543 -1.8287  0.3830  0.3306
37770SOL    HW231303   0.707   7.896  12.536  0.2871  1.0633 -1.3618
37771SOL     OW31304   4.535   6.122  12.323 -0.0335  0.1433  0.2235
37771SOL    HW131305   4.587   6.162  12.393 -0.4266 -0.1398  0.6770
37771SOL    HW231306   4.446   6.117  12.358 -0.4500  0.9088 -0.6597
37772SOL     OW31307  12.187   8.369   5.901 -0.5128  0.0236 -0.1164
37772SOL    HW131308  12.171   8.344   5.810  0.4862 -2.0476  0.2231
37772SOL    HW231309  12.282   8.369   5.910 -0.6020 -0.3672  1.0560
37773SOL     OW31310   7.227   3.211   3.418  0.1056 -0.2680 -0.0295
37773SOL    HW131311   7.231   3.283   3.355  1.5756 -1.1576 -0.9956
37773SOL    HW231312   7.179   3.142   3.373  0.3846 -0.5935  0.1673
37774SOL     OW31313   3.303  13.601   2.886 -0.1052 -0.0054  0.0966
37774SOL    HW131314   3.301  13.508   2.909  1.9018  0.0204  0.5639
37774SOL    HW231315   3.218  13.617   2.845 -1.3191 -1.5425  1.8276
37775SOL     OW31316   8.572  12.942  11.941 -0.1852  0.3844  0.6564
37775SOL    HW131317   8.528  12.997  11.876  0.0067  0.5339  0.6529
37775SOL    HW231318   8.531  12.856  11.930 -0.3108  0.4634  0.4911
37776SOL     OW31319   0.560  13.465   2.252 -0.1809 -0.2237  0.2263
37776SOL    HW131320   0.603  13.517   2.184  1.4861 -1.0426  0.5927
37776SOL    HW231321   0.529  13.387   2.207  0.8692 -0.7375  0.3608
37777SOL     OW31322  12.336   8.578   5.649  0.3622  0.1814  0.1182
37777SOL    HW131323  12.321   8.499   5.597  0.0412 -0.6479  1.4207
37777SOL    HW231324  12.327   8.650   5.587  0.3407 -0.7919 -1.0323
37778SOL     OW31325   2.135   6.793   9.771  0.3837 -0.3349 -0.1975
37778SOL    HW131326   2.149   6.825   9.860 -1.6433 -0.3208  0.1706
37778SOL    HW231327   2.149   6.699   9.776 -0.1475 -0.3932  0.2402
37779SOL     OW31328   5.727   8.235   8.462 -0.0499  0.7962  0.7531
37779SOL    HW131329   5.817   8.266   8.471  0.4244 -0.4155  0.4466
37779SOL    HW231330   5.674   8.314   8.459  1.0150  1.5316  0.8459
37780SOL     OW31331   6.396   4.501  11.517  0.2791  0.3709  0.1172
37780SOL    HW131332   6.472   4.551  11.547 -0.1644 -0.2583  2.4630
37780SOL    HW231333   6.395   4.423  11.572 -0.9823 -0.5854 -1.1806
37781SOL     OW31334  13.986   6.186   4.735 -0.1196  0.2972  0.4203
37781SOL    HW131335  14.081   6.203   4.736 -0.0861  0.0983  1.6680
37781SOL    HW231336  13.955   6.220   4.819 -0.7880 -1.6808  1.0264
37782SOL     OW31337   4.911   0.598   9.737 -0.4035  0.0729  0.1858
37782SOL    HW131338   4.912   0.509   9.772 -1.0260 -0.3460 -0.8303
37782SOL    HW231339   4.991   0.604   9.685 -1.4730 -0.7191 -1.6630
37783SOL     OW31340  13.931   6.209   6.270  0.1807  0.2255  0.3015
37783SOL    HW131341  13.983   6.235   6.345  1.2390  0.3382 -0.4459
37783SOL    HW231342  13.920   6.289   6.219  1.5864 -0.3064 -0.8991
37784SOL     OW31343   6.062   9.043   8.670 -0.1689 -0.3121  0.0286
37784SOL    HW131344   6.134   9.028   8.609 -0.7528 -1.1524 -0.4743
37784SOL    HW231345   6.101   9.093   8.742  0.6726  0.1259 -0.7186
37785SOL     OW31346   4.483   6.981  14.028 -0.0422  0.3100 -0.0062
37785SOL    HW131347   4.522   7.044  14.088  0.3192 -0.8076  0.9794
37785SOL    HW231348   4.492   7.021  13.942 -0.5030  1.9256  0.6495
37786SOL     OW31349   5.013   4.279   6.506 -0.2116  0.4856  0.7910
37786SOL    HW131350   4.991   4.195   6.546 -0.9312  0.0642 -0.4694
37786SOL    HW231351   5.102   4.267   6.473  0.2718  0.7373  1.9298
37787SOL     OW31352   8.264   1.451   9.944 -0.1066  0.5590 -0.2337
37787SOL    HW131353   8.358   1.433   9.941 -0.2398 -0.0792 -1.6110
37787SOL    HW231354   8.253   1.510  10.018  1.5366  1.5336 -0.7057
37788SOL     OW31355   9.626  12.795  11.327  0.2106 -0.2279  0.0705
37788SOL    HW131356   9.691  12.729  11.300  0.1250 -0.4171  0.3308
37788SOL    HW231357   9.546  12.745  11.341  0.0037  0.0072 -0.2531
37789SOL     OW31358   6.961   0.475   4.763 -0.0751  0.1345 -0.2798
37789SOL    HW131359   6.920   0.388   4.762  0.1521 -0.1173  2.4901
37789SOL    HW231360   6.896   0.533   4.724 -1.3107 -0.9141  0.1233
37790SOL     OW31361   8.148  11.011   6.551  0.8532  0.9415 -0.4711
37790SOL    HW131362   8.121  11.103   6.544 -1.3595  0.6841  2.6676
37790SOL    HW231363   8.187  11.004   6.638 -0.7829 -1.3962  0.1755
37791SOL     OW31364  10.037   2.128   0.429 -0.1198  0.0240 -0.5572
37791SOL    HW131365  10.022   2.123   0.523  1.3255 -0.2069 -0.3288
37791SOL    HW231366   9.961   2.083   0.391  0.2629 -1.6997  0.5837
37792SOL     OW31367  12.129   6.083   6.192  0.2145 -0.0979  0.1509
37792SOL    HW131368  12.099   6.035   6.115 -0.5669  1.6461 -0.6843
37792SOL    HW231369  12.129   6.175   6.165 -2.6193  0.8955  2.9748
37793SOL     OW31370  11.865   9.638   7.888 -0.0306 -0.0685 -0.2004
37793SOL    HW131371  11.779   9.670   7.913  0.4958  0.7385  0.6639
37793SOL    HW231372  11.870   9.550   7.926 -0.7041 -0.3656 -0.7924
37794SOL     OW31373   2.365   8.542   2.382  0.7797 -0.1628 -0.0048
37794SOL    HW131374   2.312   8.480   2.331  0.9714 -0.6955  0.4328
37794SOL    HW231375   2.321   8.627   2.369 -0.3695 -0.6428  0.5965
37795SOL     OW31376   5.422  12.546  10.984 -0.0503 -0.8984 -0.3225
37795SOL    HW131377   5.351  12.601  10.952  1.4405  1.7327  0.5000
37795SOL    HW231378   5.389  12.508  11.065 -0.3089  0.9485  0.4886
37796SOL     OW31379  11.443   9.627   4.798  0.0468 -0.0122 -0.3981
37796SOL    HW131380  11.370   9.688   4.793 -0.0900 -0.1428 -0.0572
37796SOL    HW231381  11.440   9.593   4.888 -0.7750 -1.6219 -0.9861
37797SOL     OW31382   1.750  13.890   1.945 -0.4683  0.7608  0.6543
37797SOL    HW131383   1.694  13.922   1.874 -0.8344  1.8399  1.4170
37797SOL    HW231384   1.839  13.906   1.914 -0.5909  0.2071 -0.0212
37798SOL     OW31385   2.299   9.529   0.353 -0.0143 -0.6697  0.3869
37798SOL    HW131386   2.271   9.496   0.268  2.2979 -0.4755 -0.5057
37798SOL    HW231387   2.267   9.619   0.356 -0.4565 -0.8060 -0.0791
37799SOL     OW31388   0.487  12.236   8.539  0.1340  0.0153  0.0607
37799SOL    HW131389   0.428  12.163   8.560  0.8054 -1.1029 -1.6584
37799SOL    HW231390   0.450  12.273   8.458  0.7089  0.5551  0.0407
37800SOL     OW31391   4.097   9.005   6.664 -0.6762 -0.2882  0.4003
37800SOL    HW131392   4.148   8.992   6.744  0.9960 -1.5891 -0.8175
37800SOL    HW231393   4.129   9.087   6.628 -0.3842 -0.4283  0.3352
37801SOL     OW31394   5.203   7.816  11.473 -0.8626 -0.0748 -0.3965
37801SOL    HW131395   5.278   7.830  11.531 -1.3419 -1.0850  0.5010
37801SOL    HW231396   5.196   7.897  11.423  0.9264 -0.0093 -0.6230
37802SOL     OW31397   9.336   0.642   9.569  0.1243 -0.2034  0.3250
37802SOL    HW131398   9.253   0.668   9.528  0.6674  0.2707 -0.5101
37802SOL    HW231399   9.403   0.686   9.517  0.8808 -0.1422  1.3341
37803SOL     OW31400   7.292  12.961   5.398  0.2389  0.0849  0.5746
37803SOL    HW131401   7.380  12.975   5.363  0.0428  0.7330  0.3225
37803SOL    HW231402   7.264  13.048   5.428 -0.6740  0.0747 -0.1966
37804SOL     OW31403   6.491   7.275  13.027 -0.3998 -0.7043 -0.0448
37804SOL    HW131404   6.432   7.213  13.069  0.2164  0.7142  3.2074
37804SOL    HW231405   6.444   7.304  12.949 -2.2762 -2.4824  0.3385
37805SOL     OW31406   4.308   2.452   5.298 -0.0652 -0.6129  0.2830
37805SOL    HW131407   4.390   2.449   5.249  0.3631  1.4550  0.7648
37805SOL    HW231408   4.335   2.449   5.390 -0.5308  0.0640  0.4468
37806SOL     OW31409   0.501   0.647   1.324  0.0163 -0.0789 -0.3190
37806SOL    HW131410   0.446   0.723   1.304 -0.5764 -1.0251 -2.5067
37806SOL    HW231411   0.490   0.635   1.419 -2.9984  0.2230 -0.5250
37807SOL     OW31412  10.458   3.746   6.059  0.1356  0.9457  0.1103
37807SOL    HW131413  10.448   3.688   6.134  1.4200  0.9562  0.3122
37807SOL    HW231414  10.552   3.745   6.040 -0.1900  0.6933 -1.6955
37808SOL     OW31415   3.497   2.947   0.295 -0.0838 -0.5346 -0.0055
37808SOL    HW131416   3.539   2.862   0.286  0.7592 -0.0423 -0.8975
37808SOL    HW231417   3.559   3.009   0.256 -1.1008  0.3653 -0.2462
37809SOL     OW31418  13.770   3.968   9.408  0.0004 -0.1078 -0.3637
37809SOL    HW131419  13.743   3.880   9.432 -0.8023  0.3541  0.4976
37809SOL    HW231420  13.760   4.019   9.489  3.6381  0.0946  0.1298
37810SOL     OW31421   0.486  11.874  12.072 -0.1040 -0.0992  0.0004
37810SOL    HW131422   0.496  11.941  12.140 -0.0165 -1.0396  0.9245
37810SOL    HW231423   0.391  11.865  12.062 -0.1239 -0.4110  0.4531
37811SOL     OW31424   5.830   5.286   6.209  0.1886 -0.3076  0.1529
37811SOL    HW131425   5.912   5.335   6.216  0.4140 -0.6136 -0.3218
37811SOL    HW231426   5.777   5.338   6.149  0.3576 -0.5497 -0.2057
37812SOL     OW31427  13.223  12.425   4.088  0.3233 -0.9302  0.6032
37812SOL    HW131428  13.216  12.395   3.997  2.1353  0.2379  0.0021
37812SOL    HW231429  13.231  12.520   4.081 -1.6085 -0.5942  2.1724
37813SOL     OW31430  12.442   6.818   3.885 -0.2175  0.1101 -0.0392
37813SOL    HW131431  12.481   6.870   3.955 -0.3726 -1.1238  0.9996
37813SOL    HW231432  12.362   6.865   3.861  0.2256  0.9371  0.0727
37814SOL     OW31433  13.404   9.647   1.699 -0.3949  0.8192  0.3742
37814SOL    HW131434  13.461   9.598   1.759 -0.8176 -1.1261 -0.7041
37814SOL    HW231435  13.461   9.673   1.627 -0.4974  0.4257  0.1468
37815SOL     OW31436  14.024   0.835   3.372  0.2629  0.2693 -0.3008
37815SOL    HW131437  14.065   0.815   3.457  1.8262  1.7469 -0.6596
37815SOL    HW231438  13.965   0.908   3.391  0.2760  0.3055 -0.4004
37816SOL     OW31439  13.566  10.050   1.656  0.0200  0.6741 -0.4065
37816SOL    HW131440  13.622  10.074   1.582 -0.1183  0.0879 -0.7062
37816SOL    HW231441  13.487  10.016   1.616  0.2839 -0.4634 -0.0026
37817SOL     OW31442   6.978   3.293   1.278 -0.3098  0.2799  0.2889
37817SOL    HW131443   6.945   3.280   1.367 -1.4617 -1.1402 -0.3020
37817SOL    HW231444   6.964   3.386   1.261  1.3570  0.9371  2.1062
37818SOL     OW31445   4.650  12.803   0.468 -0.1505  0.4298 -0.0871
37818SOL    HW131446   4.706  12.880   0.456  0.4233  0.1525  0.7258
37818SOL    HW231447   4.580  12.834   0.525 -0.8031  0.7529 -1.0308
37819SOL     OW31448  12.388   8.852  10.764  0.2079 -0.6948 -0.2823
37819SOL    HW131449  12.330   8.928  10.773  0.0966 -0.6455 -1.3459
37819SOL    HW231450  12.445   8.856  10.842 -0.8267 -0.4234  0.4819
37820SOL     OW31451  13.689   3.282   2.935 -0.2255 -0.3790 -0.2014
37820SOL    HW131452  13.626   3.210   2.921 -0.5062 -0.0933 -0.4274
37820SOL    HW231453  13.715   3.273   3.026  0.6856 -1.5204 -0.5499
37821SOL     OW31454   1.018  13.135   4.088 -0.5649  0.1055  0.1087
37821SOL    HW131455   1.104  13.143   4.131 -0.2120 -2.5810  0.0767
37821SOL    HW231456   1.003  13.221   4.048  1.9975  0.7387  0.3330
37822SOL     OW31457  11.108   0.413   6.434 -0.7217  0.5440 -0.3796
37822SOL    HW131458  11.112   0.321   6.458  1.5663  0.7065  0.1068
37822SOL    HW231459  11.053   0.453   6.502 -0.0623 -0.1386  0.5807
37823SOL     OW31460   4.875   9.578   4.014  0.0347  0.5048 -0.1456
37823SOL    HW131461   4.916   9.630   4.083 -1.3109  0.3424  0.8176
37823SOL    HW231462   4.838   9.643   3.954  1.3616  0.6482 -0.8342
37824SOL     OW31463   0.052   6.246   0.106 -0.0488 -0.7825 -0.1497
37824SOL    HW131464  -0.009   6.312   0.141 -1.6600 -1.5838 -1.2793
37824SOL    HW231465   0.075   6.192   0.181 -0.4229 -0.2253  0.3803
37825SOL     OW31466  13.458   5.785  11.817 -0.4261  0.5729 -0.0104
37825SOL    HW131467  13.500   5.860  11.857 -0.8740  0.2157  1.1879
37825SOL    HW231468  13.457   5.804  11.723  0.1158  1.7115  0.2069
37826SOL     OW31469   8.630  13.107   5.492  0.0160  0.1701 -0.4308
37826SOL    HW131470   8.601  13.060   5.414 -0.3642  0.0902 -0.2411
37826SOL    HW231471   8.694  13.171   5.459 -1.0934  1.0216 -1.0011
37827SOL     OW31472   6.507  13.891   3.327  0.1748 -0.0792  0.3109
37827SOL    HW131473   6.592  13.934   3.333  0.6366 -1.0371  1.0159
37827SOL    HW231474   6.507  13.848   3.242  0.9191 -1.0815  0.7944
37828SOL     OW31475  10.093  13.546   0.550 -0.6875 -0.3002 -0.2503
37828SOL    HW131476  10.022  13.609   0.559 -0.6690 -0.0208 -1.8345
37828SOL    HW231477  10.153  13.568   0.621 -1.6274  0.1788  0.4283
37829SOL     OW31478   0.628   0.290   3.497 -0.6093  0.2854  0.3515
37829SOL    HW131479   0.618   0.384   3.483 -0.4939  0.4264  1.1540
37829SOL    HW231480   0.662   0.283   3.586  1.5479 -0.3985 -0.4450
37830SOL     OW31481  10.538   7.825  13.121  0.7446 -0.5888 -0.1346
37830SOL    HW131482  10.551   7.915  13.149 -0.1459 -0.0604 -1.3558
37830SOL    HW231483  10.504   7.781  13.200  1.4996  0.0470  0.5589
37831SOL     OW31484   4.610   0.967   5.984 -0.3235  0.1747  0.1349
37831SOL    HW131485   4.539   0.969   6.048 -0.4064  0.6650  0.0320
37831SOL    HW231486   4.624   1.059   5.961 -0.4248 -0.0133 -0.6991
37832SOL     OW31487   6.924   9.247   0.760  0.1061  0.2856  0.0750
37832SOL    HW131488   6.975   9.290   0.692  0.8540  0.6875  0.8747
37832SOL    HW231489   6.917   9.156   0.730  2.6169 -0.1697  0.6514
37833SOL     OW31490  11.429   7.287  13.189  0.4735 -0.2482 -0.4755
37833SOL    HW131491  11.506   7.342  13.208  0.6388 -0.6484  0.0147
37833SOL    HW231492  11.416   7.298  13.094 -0.2316  1.5882 -0.2231
37834SOL     OW31493   6.013   3.018   8.959  0.1813 -0.1584  0.3665
37834SOL    HW131494   5.943   2.960   8.932  1.2869 -1.3534 -0.0583
37834SOL    HW231495   6.074   2.962   9.007  2.4720  0.0075 -2.0912
37835SOL     OW31496   2.008   5.286  13.247 -0.0950 -0.2662  0.2288
37835SOL    HW131497   1.923   5.244  13.261 -0.0699 -1.0558 -1.6435
37835SOL    HW231498   1.988   5.361  13.191  0.6097 -1.6563 -2.0433
37836SOL     OW31499   6.135   0.617  12.832 -0.5083  0.0436 -0.2116
37836SOL    HW131500   6.081   0.686  12.871  0.2098  0.6168 -0.2232
37836SOL    HW231501   6.073   0.546  12.814 -1.0001  0.0601  1.2613
37837SOL     OW31502   0.406   6.993  10.434  0.0785  0.3326 -0.0935
37837SOL    HW131503   0.495   7.019  10.412 -1.1131  2.1837 -3.3552
37837SOL    HW231504   0.384   7.046  10.512  1.8724 -0.4403  0.9857
37838SOL     OW31505  10.446   3.559   0.156  0.0273 -0.7504 -0.4347
37838SOL    HW131506  10.383   3.552   0.084 -0.4478 -0.9137 -0.0091
37838SOL    HW231507  10.394   3.544   0.235  0.1314  1.4283  0.1137
37839SOL     OW31508   9.474   0.814   9.833 -0.4561 -0.3174  0.2806
37839SOL    HW131509   9.435   0.737   9.874 -0.5529 -0.8181 -0.7193
37839SOL    HW231510   9.568   0.806   9.852 -0.6746  0.2731  1.6916
37840SOL     OW31511   6.720   3.279   3.604  0.3675  0.3705  0.5043
37840SOL    HW131512   6.733   3.339   3.677 -0.7907 -1.4316  2.2897
37840SOL    HW231513   6.705   3.194   3.645 -1.4680 -0.5097 -1.7717
37841SOL     OW31514   3.291   7.421  13.459 -0.1698 -0.4683  0.1478
37841SOL    HW131515   3.329   7.496  13.504 -0.0336  0.0067 -0.7335
37841SOL    HW231516   3.343   7.346  13.487  1.1874  0.1081 -0.7394
37842SOL     OW31517  12.691   8.652   7.297  0.4410  0.4373 -0.8081
37842SOL    HW131518  12.606   8.691   7.319 -0.2324 -1.2033 -0.3744
37842SOL    HW231519  12.675   8.558   7.297  2.3961  0.0617 -0.1979
37843SOL     OW31520   8.569   6.901   7.445 -0.0716 -0.3076 -0.3922
37843SOL    HW131521   8.496   6.948   7.403 -0.1306 -0.9889 -1.0767
37843SOL    HW231522   8.646   6.955   7.427  0.1411 -1.2432 -2.6146
37844SOL     OW31523   7.193   2.714  10.072  0.0479  0.2568  0.4744
37844SOL    HW131524   7.174   2.764  10.152 -2.3590  0.4377 -0.1219
37844SOL    HW231525   7.115   2.660  10.059  1.6178 -2.0244 -0.1706
37845SOL     OW31526   4.949   6.227  11.717 -0.2112 -0.1172 -0.1340
37845SOL    HW131527   5.017   6.197  11.657 -0.3057 -1.7378  0.5295
37845SOL    HW231528   4.877   6.255  11.660  0.2352 -0.2895 -0.7897
37846SOL     OW31529  13.689   3.590  10.915  0.3241  0.9601  0.0507
37846SOL    HW131530  13.600   3.583  10.881  0.3227  0.8638  0.0734
37846SOL    HW231531  13.689   3.537  10.994 -0.7361  4.1707  2.4173
37847SOL     OW31532   2.575   1.954   9.959  0.4218 -0.2257 -0.7615
37847SOL    HW131533   2.650   1.975  10.014  0.2600 -1.4522 -0.0190
37847SOL    HW231534   2.540   1.873   9.996 -0.4694 -0.4015 -1.9032
37848SOL     OW31535   3.552  12.833   5.371 -0.6002 -0.4239 -0.2158
37848SOL    HW131536   3.579  12.896   5.438 -0.0327 -0.1863 -0.6595
37848SOL    HW231537   3.578  12.748   5.406 -1.9027 -0.4977  0.6564
37849SOL     OW31538   7.391  10.668  13.111  0.2694  0.3614  0.4014
37849SOL    HW131539   7.299  10.671  13.085  0.2387  1.0656  0.5777
37849SOL    HW231540   7.405  10.749  13.160  0.9341  0.1649  0.5462
37850SOL     OW31541  10.790   6.791   0.107  0.2683 -0.4596  0.2569
37850SOL    HW131542  10.715   6.740   0.136 -0.0344 -1.6739 -2.3805
37850SOL    HW231543  10.753   6.873   0.073  0.3748 -0.1020  0.9926
37851SOL     OW31544   6.092   8.039   7.294 -0.1180  0.4803  0.5095
37851SOL    HW131545   6.156   7.969   7.279  0.6006  1.4440 -1.2652
37851SOL    HW231546   6.024   7.999   7.348  1.8752 -0.6349  2.3501
37852SOL     OW31547  12.915   2.555  13.176  0.1137 -0.0589  0.4417
37852SOL    HW131548  12.855   2.480  13.182 -0.5205  0.4381  0.3619
37852SOL    HW231549  12.980   2.539  13.246  0.6436 -1.2434 -0.2888
37853SOL     OW31550   1.221   4.331   7.504 -0.8410 -0.2121  0.2971
37853SOL    HW131551   1.282   4.290   7.565 -1.5130 -0.8301  0.5675
37853SOL    HW231552   1.141   4.345   7.555 -0.9981  0.4113 -0.1046
37854SOL     OW31553   5.540  11.409   7.244 -0.1018 -0.5384  0.3348
37854SOL    HW131554   5.590  11.461   7.307 -0.9781  1.5765 -0.6149
37854SOL    HW231555   5.454  11.398   7.285 -0.4365  0.2144 -0.1291
37855SOL     OW31556   2.496   3.221   0.772 -0.1986 -0.2475  0.3292
37855SOL    HW131557   2.445   3.236   0.851 -0.5970  0.1408  0.0071
37855SOL    HW231558   2.435   3.240   0.700  1.2093  3.4669 -0.1214
37856SOL     OW31559  11.781   4.564   2.381 -0.0995  0.4494  0.2225
37856SOL    HW131560  11.861   4.538   2.336  0.0908  1.3161  0.0424
37856SOL    HW231561  11.765   4.494   2.444 -0.0080 -0.4635 -0.7307
37857SOL     OW31562   0.645   0.154  11.079  0.0858 -0.1906  0.2133
37857SOL    HW131563   0.616   0.187  10.994 -0.1486  0.5484  0.5724
37857SOL    HW231564   0.718   0.096  11.058 -0.6807 -0.9079 -0.5894
37858SOL     OW31565   9.873   9.392   3.953 -0.0410 -0.1356 -0.3161
37858SOL    HW131566   9.871   9.470   4.008 -2.1917 -0.6167  0.3620
37858SOL    HW231567   9.965   9.363   3.956  0.8053  2.2639 -0.5213
37859SOL     OW31568   8.815   0.686  12.360 -0.0595 -0.4604  0.0194
37859SOL    HW131569   8.875   0.708  12.432  0.7953  1.3457 -1.1848
37859SOL    HW231570   8.769   0.768  12.341  1.1454 -0.3321 -2.7541
37860SOL     OW31571   1.253  11.917   9.777 -0.2676 -0.0130 -0.3985
37860SOL    HW131572   1.161  11.921   9.752 -0.0426  1.3479 -1.1068
37860SOL    HW231573   1.264  11.990   9.838 -0.0626 -1.3311  1.2259
37861SOL     OW31574   3.898   6.533   0.658  1.0113 -0.3606 -0.2644
37861SOL    HW131575   3.970   6.597   0.651  0.7507 -0.1803 -1.7436
37861SOL    HW231576   3.935   6.452   0.623  1.0635 -0.8021  0.7760
37862SOL     OW31577   5.404   0.545   0.207 -0.0327  0.0146 -0.1332
37862SOL    HW131578   5.354   0.466   0.188  0.4582 -0.2284 -0.4060
37862SOL    HW231579   5.495   0.517   0.212  0.0014  0.2910  1.3217
37863SOL     OW31580   5.396   2.658  12.021 -0.2624  0.8343  0.5056
37863SOL    HW131581   5.306   2.687  12.007 -0.5097  0.0734  0.4834
37863SOL    HW231582   5.430   2.640  11.934  0.4086  2.5144  0.3850
37864SOL     OW31583  12.593  13.473   9.476 -0.2645  0.5071 -0.1844
37864SOL    HW131584  12.574  13.450   9.567  1.0696  2.7760  0.7373
37864SOL    HW231585  12.648  13.401   9.444 -2.0082 -1.0872  0.2480
37865SOL     OW31586  10.210   4.822   1.920  0.3852  0.1553 -0.0932
37865SOL    HW131587  10.277   4.847   1.856  0.3461  1.5888  0.3912
37865SOL    HW231588  10.258   4.780   1.991  0.5172 -0.6956 -0.6675
37866SOL     OW31589   1.239   5.592   9.719 -0.3626  0.0856  0.4950
37866SOL    HW131590   1.238   5.681   9.683  4.3632 -0.0436 -0.5625
37866SOL    HW231591   1.293   5.597   9.797  0.7764 -1.9315 -0.0710
37867SOL     OW31592  10.500  11.921   5.290  0.5338 -0.0407 -0.1803
37867SOL    HW131593  10.423  11.864   5.295 -0.2022  0.9396 -0.0830
37867SOL    HW231594  10.525  11.920   5.197 -1.6803  2.2970 -0.8813
37868SOL     OW31595  13.067   4.035  13.543 -0.0445 -0.0083 -0.0654
37868SOL    HW131596  13.031   3.957  13.501  1.2375 -0.9965  0.5966
37868SOL    HW231597  13.016   4.107  13.507 -0.0371 -0.9523 -2.1107
37869SOL     OW31598  12.262   0.809   6.894 -0.4696  0.1417  0.1249
37869SOL    HW131599  12.293   0.818   6.984 -0.5684 -1.8227  0.3987
37869SOL    HW231600  12.332   0.846   6.840 -0.3245  1.1507  0.9649
37870SOL     OW31601  12.114   3.225   6.343  0.0963 -0.6078 -0.3407
37870SOL    HW131602  12.183   3.283   6.373  1.2322 -1.5428 -1.0628
37870SOL    HW231603  12.102   3.162   6.414 -1.4583  0.7172  0.6413
37871SOL     OW31604   3.347  10.952  12.831 -0.4864  0.0002 -0.3691
37871SOL    HW131605   3.269  10.935  12.778 -0.0307  0.4192 -1.1807
37871SOL    HW231606   3.352  11.047  12.837  0.6154  0.0236 -1.3284
37872SOL     OW31607   2.992   6.028  13.916 -0.1292  0.1232  0.2024
37872SOL    HW131608   2.910   6.058  13.875  0.7779 -0.4506 -2.2121
37872SOL    HW231609   2.963   5.967  13.984 -1.7442 -0.0634 -0.5853
37873SOL     OW31610  11.223   5.792  13.134 -0.4486  0.1842  0.5137
37873SOL    HW131611  11.222   5.711  13.185 -1.5505  1.1362  2.0752
37873SOL    HW231612  11.306   5.833  13.156 -0.8275  0.4915  1.4130
37874SOL     OW31613  12.467  13.517  11.893  0.0879 -0.2729 -0.0606
37874SOL    HW131614  12.411  13.521  11.816 -0.5335 -2.2773  0.2362
37874SOL    HW231615  12.419  13.565  11.960 -0.8861 -1.2458 -0.0507
37875SOL     OW31616  12.973   9.804   6.255 -0.1433  0.2020  0.8209
37875SOL    HW131617  13.041   9.871   6.262 -0.6653  0.7739  0.5183
37875SOL    HW231618  12.894   9.852   6.231 -1.0023 -0.2382  2.5639
37876SOL     OW31619   7.273   4.734  11.920 -0.9263 -0.3012 -0.3960
37876SOL    HW131620   7.357   4.780  11.911 -1.0765  0.1823  0.5081
37876SOL    HW231621   7.267   4.680  11.841  0.8743 -1.3902  0.1341
37877SOL     OW31622  11.488   7.220  11.850  0.5389  0.0607 -0.0305
37877SOL    HW131623  11.538   7.191  11.773  0.8011 -2.2348  0.9195
37877SOL    HW231624  11.397   7.206  11.825  0.5361  0.8055 -0.4645
37878SOL     OW31625   2.742   6.559   8.072 -0.4572 -0.0934 -0.1047
37878SOL    HW131626   2.778   6.519   8.150 -0.7427  0.7927  0.4886
37878SOL    HW231627   2.654   6.521   8.064 -0.7984  0.5375  0.5633
37879SOL     OW31628   3.952  11.689   5.009 -0.3240  0.3889  0.1446
37879SOL    HW131629   3.990  11.606   4.981 -1.2833 -0.1743  0.4657
37879SOL    HW231630   4.027  11.744   5.030  0.3750  0.1621 -1.5887
37880SOL     OW31631  11.124   2.610   0.292 -0.2952  0.4268  0.0226
37880SOL    HW131632  11.029   2.610   0.297 -0.2291  0.2768  1.4908
37880SOL    HW231633  11.148   2.517   0.292 -0.1635  0.4405 -1.1649
37881SOL     OW31634   5.180  12.501   1.243 -0.0136  0.5054 -0.0020
37881SOL    HW131635   5.152  12.541   1.325 -1.2537  0.1923 -0.2516
37881SOL    HW231636   5.244  12.562   1.207  2.0567 -0.2839  2.1167
37882SOL     OW31637   6.534   5.959  11.368 -0.1288  0.1434 -0.2328
37882SOL    HW131638   6.501   6.041  11.406  1.0707  0.8375 -0.6403
37882SOL    HW231639   6.623   5.950  11.403 -0.0822 -0.7592 -0.5488
37883SOL     OW31640   3.214  10.975   9.866  0.6148  0.0739 -0.0384
37883SOL    HW131641   3.251  10.956   9.952  0.8095 -0.3024 -0.2030
37883SOL    HW231642   3.290  10.983   9.808  0.4715  0.0189 -0.2358
37884SOL     OW31643   1.154  10.338   9.511 -0.0299 -0.3163  0.4133
37884SOL    HW131644   1.119  10.395   9.442  1.7258 -0.4660 -0.6575
37884SOL    HW231645   1.240  10.374   9.531 -0.2761 -0.6137  2.1804
37885SOL     OW31646  12.331   0.617  11.368  0.4389 -0.5165 -0.8996
37885SOL    HW131647  12.325   0.530  11.330  0.9527  0.4456 -3.3774
37885SOL    HW231648  12.423   0.626  11.393  0.5356 -0.4490 -1.2734
37886SOL     OW31649   3.122   1.319  10.105  0.5893  0.1106 -0.2950
37886SOL    HW131650   3.192   1.339  10.043  0.1717  0.5160 -0.6461
37886SOL    HW231651   3.140   1.230  10.133  1.0934  0.1139 -0.5850
37887SOL     OW31652   3.202   1.289  12.520  0.7325  0.1936  0.9193
37887SOL    HW131653   3.114   1.261  12.547  1.1353 -3.9460 -1.1913
37887SOL    HW231654   3.189   1.329  12.434  0.7462  1.6720  1.5823
37888SOL     OW31655  13.525   0.721   8.310  0.1282  0.2487 -0.2244
37888SOL    HW131656  13.504   0.814   8.318  0.3420  0.3435 -0.7008
37888SOL    HW231657  13.543   0.709   8.217 -3.8226 -1.1378 -0.9823
37889SOL     OW31658  11.232  12.065   4.692 -0.6061  0.4058 -0.4103
37889SOL    HW131659  11.138  12.080   4.701 -1.3775 -2.7950 -1.5882
37889SOL    HW231660  11.249  12.078   4.599  0.7966  3.6342  0.1915
37890SOL     OW31661  12.983   9.916   2.883  0.6033  0.1468 -0.3372
37890SOL    HW131662  12.997   9.954   2.796 -0.5441  0.7167 -0.2962
37890SOL    HW231663  13.067   9.878   2.907  0.7725 -0.6169 -1.9879
37891SOL     OW31664  11.140  12.707   8.774 -0.1723  0.2904 -0.1935
37891SOL    HW131665  11.144  12.753   8.690 -1.7444  0.2821 -0.3044
37891SOL    HW231666  11.106  12.773   8.835 -0.5401 -0.1484  0.0795
37892SOL     OW31667   0.135  12.556   7.837  0.2970  0.2135  0.3968
37892SOL    HW131668   0.050  12.588   7.808  0.3429  0.1618  0.2002
37892SOL    HW231669   0.197  12.624   7.810  0.8037 -1.2660 -2.6686
37893SOL     OW31670   7.149  12.271   8.599  0.4499  0.0187 -0.1187
37893SOL    HW131671   7.117  12.353   8.635  0.8824 -0.0571  0.4473
37893SOL    HW231672   7.232  12.255   8.643  0.7860 -0.2987 -0.8365
37894SOL     OW31673  11.911   3.020   2.082 -0.2485  0.0173  0.1088
37894SOL    HW131674  11.899   3.115   2.080  3.8248  0.8214  3.1482
37894SOL    HW231675  11.852   2.990   2.151 -1.4229  0.2263 -0.7478
37895SOL     OW31676  10.716   4.683   3.632  0.6029 -0.4483  0.2361
37895SOL    HW131677  10.641   4.716   3.681 -0.5343 -0.2278 -1.5710
37895SOL    HW231678  10.744   4.757   3.578  0.1202 -1.4166 -1.4050
37896SOL     OW31679   7.420   0.556  10.605 -0.0070 -0.2916  0.3255
37896SOL    HW131680   7.401   0.547  10.698 -0.5423 -0.4180  0.2034
37896SOL    HW231681   7.422   0.467  10.571  1.7868 -0.3761  0.5121
37897SOL     OW31682   2.933   3.179   7.888 -0.5586 -0.0498 -0.8515
37897SOL    HW131683   2.951   3.119   7.815  0.1225 -1.1368  0.1654
37897SOL    HW231684   2.900   3.122   7.958 -0.2211  0.8022  0.0255
37898SOL     OW31685  12.106   6.050   2.554  0.6934 -0.3094  0.4248
37898SOL    HW131686  12.128   6.002   2.633 -1.0196 -1.5223  0.2282
37898SOL    HW231687  12.034   6.108   2.580  2.0450  1.4753  0.4113
37899SOL     OW31688   6.710   7.798   9.986  0.1788  0.3268 -0.3650
37899SOL    HW131689   6.717   7.759   9.899 -1.1692  1.5383 -1.0681
37899SOL    HW231690   6.746   7.886   9.977  1.8404 -0.1748  0.8320
37900SOL     OW31691   2.925  12.520   6.062 -0.4403  0.2649  0.1600
37900SOL    HW131692   2.898  12.463   5.990  0.0869 -0.6520  0.6743
37900SOL    HW231693   2.863  12.594   6.058 -2.1198 -1.0540  0.3978
37901SOL     OW31694  11.726   3.670  13.417  0.4050  0.0109  0.0683
37901SOL    HW131695  11.714   3.611  13.491  0.3438 -0.1624 -0.0781
37901SOL    HW231696  11.819   3.667  13.398  0.2296 -1.0028 -0.7236
37902SOL     OW31697   7.606  10.439   0.903  0.3196 -0.0677 -0.1742
37902SOL    HW131698   7.667  10.495   0.951 -0.0209 -0.3746  0.6385
37902SOL    HW231699   7.522  10.483   0.911  0.1617 -0.3952 -0.0343
37903SOL     OW31700  13.730   6.581   0.393 -0.4018 -0.0773 -0.0591
37903SOL    HW131701  13.768   6.561   0.479  0.1544 -2.5262 -0.8038
37903SOL    HW231702  13.719   6.496   0.351  0.1379  1.0731 -2.7740
37904SOL     OW31703  10.203   3.417  12.204  0.1777  0.1280 -0.2640
37904SOL    HW131704  10.150   3.470  12.145 -0.4422 -1.1055 -0.8615
37904SOL    HW231705  10.156   3.417  12.287 -0.2042 -0.0639 -0.4762
37905SOL     OW31706   2.127   9.300   7.117  0.3122 -0.2366 -0.1322
37905SOL    HW131707   2.039   9.287   7.083  0.1546  0.1665  0.1262
37905SOL    HW231708   2.122   9.379   7.170  0.3271 -1.3250  1.5920
37906SOL     OW31709   9.435   3.629   9.895  0.0960 -1.1644 -0.0545
37906SOL    HW131710   9.526   3.641   9.921  0.0569 -1.4247  0.2025
37906SOL    HW231711   9.387   3.696   9.944  0.3330 -0.0207 -1.3259
37907SOL     OW31712   6.204   1.114   0.111  0.3857  0.3673 -0.2110
37907SOL    HW131713   6.187   1.095   0.019 -3.9513 -4.0625  1.0481
37907SOL    HW231714   6.137   1.179   0.135  0.2872  0.1509  0.1156
37908SOL     OW31715   7.236   0.249   5.594 -0.3630  0.2961  0.2358
37908SOL    HW131716   7.279   0.252   5.680  0.9715 -0.8218 -0.3586
37908SOL    HW231717   7.147   0.218   5.612 -0.1357  0.1947  1.2298
37909SOL     OW31718   7.687   8.054  11.754 -0.5176  0.1293 -0.3115
37909SOL    HW131719   7.706   8.001  11.677 -2.1274  1.4604 -1.6957
37909SOL    HW231720   7.708   8.143  11.728 -2.4403  0.7862  0.2658
37910SOL     OW31721  11.275   7.025  10.910  0.8629  0.1455  0.4452
37910SOL    HW131722  11.342   7.088  10.884  0.7663  0.1905  0.2982
37910SOL    HW231723  11.195   7.057  10.868  1.1342 -0.9721 -1.0308
37911SOL     OW31724  10.700  10.820  13.039 -0.1202 -0.4744 -0.1766
37911SOL    HW131725  10.678  10.771  12.960  0.6675  0.3002 -0.9053
37911SOL    HW231726  10.787  10.856  13.021  1.1113 -2.1604  1.9495
37912SOL     OW31727   3.610  10.534   6.356  0.0604  0.2598  0.3631
37912SOL    HW131728   3.699  10.556   6.383 -0.0660  1.0453  0.1840
37912SOL    HW231729   3.553  10.587   6.413 -0.3386 -1.0308  1.1957
37913SOL     OW31730   6.845   8.467  10.476 -0.1513  0.1516  0.1650
37913SOL    HW131731   6.907   8.539  10.488 -0.2600  0.1556  0.7548
37913SOL    HW231732   6.861   8.435  10.387  1.1141 -0.2328  0.5069
37914SOL     OW31733  10.569   1.946  12.511  0.6031  0.0561 -0.1199
37914SOL    HW131734  10.520   1.900  12.579  2.7104 -1.5331  0.4509
37914SOL    HW231735  10.568   1.886  12.437  1.0844  0.3172 -0.3388
37915SOL     OW31736  12.732   6.723   7.336 -0.9364  0.0996  0.1987
37915SOL    HW131737  12.648   6.754   7.302 -1.8268 -0.3814  1.8523
37915SOL    HW231738  12.742   6.769   7.419  0.5301  0.2491 -0.0408
37916SOL     OW31739   9.281   8.398  11.798  0.6616 -0.5606 -0.0239
37916SOL    HW131740   9.243   8.347  11.870 -0.9785 -0.4865 -0.7754
37916SOL    HW231741   9.318   8.333  11.739 -1.8027 -1.0125 -1.1924
37917SOL     OW31742   9.350  12.351   2.706 -0.1526  0.0243  0.4111
37917SOL    HW131743   9.410  12.285   2.670 -1.2368 -0.9766  0.3822
37917SOL    HW231744   9.353  12.423   2.642 -2.0550 -1.7195 -1.8247
37918SOL     OW31745   7.978   3.952   7.765  0.6231 -0.1052 -0.1669
37918SOL    HW131746   7.898   4.003   7.776 -1.2656 -2.6955 -0.9088
37918SOL    HW231747   8.046   4.003   7.808 -1.4197  2.2088  0.4787
37919SOL     OW31748   7.636   4.818   7.994  0.2246 -0.2952  0.0034
37919SOL    HW131749   7.679   4.777   7.919 -1.4447 -1.7010 -0.2566
37919SOL    HW231750   7.644   4.754   8.064 -1.8022 -0.8547 -0.1987
37920SOL     OW31751   6.013   5.374   6.718 -0.4799  0.3709  0.3164
37920SOL    HW131752   6.106   5.393   6.712 -0.5403  1.3428  1.8821
37920SOL    HW231753   5.999   5.349   6.810 -1.5189 -1.2050 -0.2149
37921SOL     OW31754   5.502   1.775  13.273  0.3531  0.1564 -0.6248
37921SOL    HW131755   5.502   1.695  13.326 -3.7623  1.2854  1.4784
37921SOL    HW231756   5.514   1.846  13.337 -0.4109  1.3971 -1.8180
37922SOL     OW31757   6.891  12.507   8.371 -0.0424  0.0359 -0.9003
37922SOL    HW131758   6.938  12.587   8.395  2.9799 -2.4366  2.6861
37922SOL    HW231759   6.830  12.493   8.443  0.2146 -1.3130 -0.9150
37923SOL     OW31760   4.820   0.082   4.438 -0.3104  0.0194  0.3111
37923SOL    HW131761   4.846   0.133   4.362 -2.7302 -0.2442 -0.8079
37923SOL    HW231762   4.875   0.003   4.435  0.6133  0.6806 -0.3104
37924SOL     OW31763  10.302   4.828   6.467 -0.3326  0.1000  0.1153
37924SOL    HW131764  10.220   4.851   6.424 -1.5914 -0.3932  2.1049
37924SOL    HW231765  10.290   4.855   6.558  1.4995 -0.4873  0.5767
37925SOL     OW31766   8.713   1.791   5.282  0.7527 -0.1771 -0.5435
37925SOL    HW131767   8.747   1.746   5.205  1.4149  0.1246 -0.4284
37925SOL    HW231768   8.757   1.750   5.356  0.5741 -0.0529 -0.3650
37926SOL     OW31769   6.156   3.189   7.343 -0.5289  0.1899  0.2216
37926SOL    HW131770   6.150   3.148   7.429  1.2765  1.5129  1.0447
37926SOL    HW231771   6.216   3.263   7.355  0.0676  0.2229 -2.2510
37927SOL     OW31772   6.057   0.097   9.124  0.0434 -0.3126  0.0210
37927SOL    HW131773   6.010   0.048   9.191  0.3535  1.0819  1.3324
37927SOL    HW231774   5.992   0.159   9.091  0.1077 -0.4796 -0.4168
37928SOL     OW31775  11.477   2.351   1.520  0.1769  0.6052  0.2644
37928SOL    HW131776  11.407   2.296   1.486  0.8905  0.8793 -1.7935
37928SOL    HW231777  11.431   2.428   1.556 -0.7089 -0.5204  1.6306
37929SOL     OW31778  12.313   4.422   8.052 -0.2659 -0.0187  0.2427
37929SOL    HW131779  12.226   4.451   8.027 -0.0500 -0.0514 -0.5925
37929SOL    HW231780  12.370   4.453   7.981  0.2801 -0.6743  0.3820
37930SOL     OW31781   2.624   1.513  10.978 -0.5001  0.1237  0.0998
37930SOL    HW131782   2.544   1.533  11.026  0.1545 -0.9945  1.7576
37930SOL    HW231783   2.617   1.420  10.957  0.0907  0.1580 -0.2773
37931SOL     OW31784   2.540   7.259   6.931 -0.3692  0.5663  0.4537
37931SOL    HW131785   2.523   7.351   6.955 -0.7641  0.5613  0.1897
37931SOL    HW231786   2.461   7.212   6.958 -0.5468  0.4512 -0.2527
37932SOL     OW31787   3.702   2.034   4.403 -0.4264  0.0115 -0.0518
37932SOL    HW131788   3.713   2.075   4.317  1.6337  1.7248  0.9438
37932SOL    HW231789   3.607   2.029   4.414 -0.7550 -0.0015 -2.2858
37933SOL     OW31790  10.268  11.933  11.197  0.6034 -0.0183 -0.4214
37933SOL    HW131791  10.356  11.913  11.163  1.1960  0.4215  0.7739
37933SOL    HW231792  10.214  11.942  11.119  1.6912 -0.0157 -1.2095
37934SOL     OW31793   0.597  11.721   1.934  0.5711 -0.2579 -0.0051
37934SOL    HW131794   0.513  11.706   1.891  0.6176 -1.0348  0.1646
37934SOL    HW231795   0.637  11.634   1.940  0.9027 -0.0520  0.9017
37935SOL     OW31796  13.657   2.223   2.733 -0.4797  0.2240 -0.4325
37935SOL    HW131797  13.582   2.252   2.681 -1.9289 -3.2387 -0.5500
37935SOL    HW231798  13.732   2.233   2.675 -1.6871 -1.0819 -2.3656
37936SOL     OW31799   7.942   3.664   3.275  0.3292  0.5911 -0.4271
37936SOL    HW131800   7.994   3.744   3.267  0.0897  0.6141 -2.2122
37936SOL    HW231801   7.980   3.605   3.209 -0.9848  0.1003 -0.7774
37937SOL     OW31802  11.660  10.541   6.571 -0.3222 -0.5182  0.0591
37937SOL    HW131803  11.627  10.625   6.541  0.1610  0.1683  1.3951
37937SOL    HW231804  11.609  10.477   6.521 -0.7699  0.5505 -0.8968
37938SOL     OW31805   1.035  10.645  10.905  0.0543  0.5523 -0.7516
37938SOL    HW131806   1.038  10.730  10.947  2.1893  1.1292 -1.9437
37938SOL    HW231807   1.120  10.635  10.863  0.4038 -2.7323  0.3923
37939SOL     OW31808   4.789  11.639   4.716  0.2501  0.1387 -0.3484
37939SOL    HW131809   4.713  11.616   4.662  0.6533 -1.2078 -0.3823
37939SOL    HW231810   4.831  11.555   4.735  0.5016  0.6550  1.5242
37940SOL     OW31811  11.922   8.357   0.786 -0.0570  0.3320 -0.1723
37940SOL    HW131812  11.938   8.448   0.809  1.0652 -0.1001  0.8264
37940SOL    HW231813  11.991   8.336   0.723  1.1637 -0.4738  1.3679
37941SOL     OW31814   8.358  11.127   3.027  0.0681  0.0768 -0.2213
37941SOL    HW131815   8.327  11.149   2.940  1.1436 -1.9544 -1.2055
37941SOL    HW231816   8.324  11.039   3.043  1.3069 -0.2762  0.6606
37942SOL     OW31817   9.547   2.055   9.685 -0.0086  0.0172  0.6924
37942SOL    HW131818   9.499   2.134   9.712  1.3356  0.2992  2.4071
37942SOL    HW231819   9.518   2.039   9.595 -1.4789  1.5510  0.8396
37943SOL     OW31820   9.149   7.589   0.355 -0.5270  0.1744 -0.0169
37943SOL    HW131821   9.067   7.615   0.313 -1.5162 -1.2480  0.9438
37943SOL    HW231822   9.190   7.528   0.294 -1.0422 -0.4325  0.2301
37944SOL     OW31823  12.838  13.320  14.076 -0.0238 -0.3044  0.1540
37944SOL    HW131824  12.834  13.393  14.139 -0.3726 -1.6192  1.7140
37944SOL    HW231825  12.921  13.277  14.095  1.3889  1.0194 -2.4062
37945SOL     OW31826   7.884  13.899   0.186 -0.4638 -0.1464  0.3369
37945SOL    HW131827   7.943  13.969   0.157  0.0136 -0.6363  0.1051
37945SOL    HW231828   7.797  13.932   0.165 -0.1758 -0.1515 -0.9792
37946SOL     OW31829   3.893  12.735   5.434 -0.5797 -0.9963 -0.2164
37946SOL    HW131830   3.933  12.678   5.369  1.0603 -0.8371  0.5927
37946SOL    HW231831   3.908  12.690   5.517  1.5884  0.9610  0.5582
37947SOL     OW31832  11.016   7.860  13.555  0.2708  0.1774  0.3377
37947SOL    HW131833  11.074   7.788  13.577  0.9753  0.5317 -0.3165
37947SOL    HW231834  11.025   7.870  13.460 -2.2330 -0.9391 -0.0917
37948SOL     OW31835  10.121   1.808   2.922  0.2045 -0.4882  0.1179
37948SOL    HW131836  10.041   1.857   2.901  0.1016  0.4474  2.4693
37948SOL    HW231837  10.090   1.721   2.946 -0.0215 -0.3967  0.1637
37949SOL     OW31838  11.676   4.986   9.001  0.4471  0.1514 -0.3844
37949SOL    HW131839  11.698   4.965   9.092 -2.0443  1.5806  0.6288
37949SOL    HW231840  11.654   5.079   9.002 -1.2126 -0.1589 -2.1008
37950SOL     OW31841   3.090   7.320  11.908 -0.3268 -0.9630  0.1202
37950SOL    HW131842   3.005   7.350  11.941 -1.0146 -0.5824 -1.8405
37950SOL    HW231843   3.083   7.225  11.908 -0.4235 -0.9606  0.7618
37951SOL     OW31844   1.527   8.172  10.431  0.0154 -0.3605  0.7377
37951SOL    HW131845   1.467   8.208  10.496 -0.1066  0.6579  0.0819
37951SOL    HW231846   1.489   8.088  10.407  0.1478 -0.8301  2.0885
37952SOL     OW31847   0.017  12.364   8.598  0.1501 -0.1203 -0.1492
37952SOL    HW131848   0.010  12.460   8.604  0.8534 -0.0375 -0.5740
37952SOL    HW231849   0.049  12.337   8.684  3.1644  0.3698 -0.9988
37953SOL     OW31850  12.718   4.563   9.550 -0.2517  0.3027  0.2475
37953SOL    HW131851  12.640   4.513   9.525 -0.0777  0.2156 -0.1267
37953SOL    HW231852  12.790   4.500   9.544 -0.2453  0.1786  1.3188
37954SOL     OW31853  12.022   9.822  12.333 -0.1109 -0.2077  0.8818
37954SOL    HW131854  12.046   9.743  12.284 -0.4457  0.0691  0.2661
37954SOL    HW231855  12.058   9.894  12.282 -0.2486  0.0752  1.1768
37955SOL     OW31856   2.715   6.917   0.541 -0.7157 -0.3185 -0.5572
37955SOL    HW131857   2.704   6.968   0.621  0.2837  1.1702 -1.3087
37955SOL    HW231858   2.677   6.971   0.472 -0.8069 -1.1905 -1.2158
37956SOL     OW31859   2.621   6.190   5.506 -0.1623 -0.6730  0.6218
37956SOL    HW131860   2.693   6.252   5.515 -0.9711  0.4156 -0.1460
37956SOL    HW231861   2.559   6.215   5.574 -1.9782  1.5456 -1.6275
37957SOL     OW31862  13.485   4.055   5.497  0.2859 -0.2035 -0.0175
37957SOL    HW131863  13.403   4.008   5.480 -0.6293  1.6897 -1.0643
37957SOL    HW231864  13.482   4.073   5.591  0.5168 -1.8993  0.3593
37958SOL     OW31865   0.818  14.097  14.150  0.4459 -0.3350 -0.5788
37958SOL    HW131866   0.841  14.128  14.062  1.0112  0.2986 -0.2177
37958SOL    HW231867   0.902  14.081  14.193  0.1824 -0.3000 -0.0368
37959SOL     OW31868  11.250  11.447   2.028  0.0915 -0.2710 -0.2658
37959SOL    HW131869  11.304  11.503   1.971  1.3304 -1.2567 -0.1005
37959SOL    HW231870  11.271  11.358   2.001  0.0457 -0.7322  1.1496
37960SOL     OW31871   2.706   4.998  12.818 -0.5082  0.3724 -0.1535
37960SOL    HW131872   2.710   5.091  12.798  2.2620  0.3027 -0.3316
37960SOL    HW231873   2.793   4.965  12.797 -1.1519 -2.1129  0.6856
37961SOL     OW31874   9.154   4.745   1.529  0.0437 -0.0533 -0.6667
37961SOL    HW131875   9.159   4.671   1.590 -1.2114 -0.7611 -1.3755
37961SOL    HW231876   9.060   4.758   1.515  0.2689 -0.8364 -3.5206
37962SOL     OW31877  10.582  12.071  11.256 -0.3578 -0.1571 -0.1605
37962SOL    HW131878  10.579  12.029  11.170 -0.5191 -0.4501 -0.0142
37962SOL    HW231879  10.568  11.999  11.318 -1.4196  0.2323  0.0680
37963SOL     OW31880   3.620   7.283   2.442 -0.1682  0.3708  0.2650
37963SOL    HW131881   3.704   7.266   2.399 -0.6570 -1.2057 -0.1080
37963SOL    HW231882   3.573   7.339   2.380 -0.5900 -1.3115 -0.9838
37964SOL     OW31883  12.691   8.681  10.375 -0.2599 -0.3492 -0.5970
37964SOL    HW131884  12.735   8.653  10.456 -0.4264 -1.2214 -0.8032
37964SOL    HW231885  12.626   8.745  10.405 -0.3292 -0.6753 -0.0334
37965SOL     OW31886   9.598  12.837   8.767  0.2088  0.4453 -0.0389
37965SOL    HW131887   9.637  12.923   8.753  2.2626  0.4010  4.1329
37965SOL    HW231888   9.651  12.778   8.713  0.9659  1.3607 -0.3344
37966SOL     OW31889   5.758   7.273   3.933 -0.2531 -0.4447  0.2719
37966SOL    HW131890   5.673   7.315   3.923 -0.2032 -0.5507 -0.7386
37966SOL    HW231891   5.746   7.185   3.898  0.1946 -0.5651  0.4094
37967SOL     OW31892   6.817  12.308  12.406 -0.2169  0.0603  0.2060
37967SOL    HW131893   6.762  12.362  12.349  1.1259  1.0756 -0.1547
37967SOL    HW231894   6.861  12.247  12.347  0.0355  0.1125  0.3392
37968SOL     OW31895   2.914  10.173   5.638  0.0825 -0.6231 -0.0977
37968SOL    HW131896   2.911  10.109   5.567 -1.0621  2.8691 -3.5268
37968SOL    HW231897   3.000  10.214   5.629 -0.5935  0.7648 -0.4162
37969SOL     OW31898   0.122  12.711   5.193  0.4415 -0.3062  0.6293
37969SOL    HW131899   0.209  12.719   5.233  0.5853 -0.4055  0.3323
37969SOL    HW231900   0.087  12.630   5.229  0.5288 -0.3424  0.6328
37970SOL     OW31901   0.219   7.382  11.345  0.1201  0.7830  0.1706
37970SOL    HW131902   0.278   7.306  11.341 -0.0220  0.6367  0.7522
37970SOL    HW231903   0.190   7.395  11.255  0.1755  0.1712  0.0626
37971SOL     OW31904  13.513  11.691  13.540 -0.1852  0.4205 -0.2573
37971SOL    HW131905  13.579  11.708  13.607  0.4041 -1.8637 -0.1659
37971SOL    HW231906  13.563  11.668  13.462 -0.8837  1.6491 -1.0969
37972SOL     OW31907  12.081   4.563   7.977 -0.2345  0.3881  0.3066
37972SOL    HW131908  12.039   4.497   8.032 -1.4386 -0.8188 -1.9028
37972SOL    HW231909  12.013   4.629   7.962 -0.6873 -0.3891 -1.3797
37973SOL     OW31910   0.384  13.457  11.999 -0.7388 -0.5758 -0.0004
37973SOL    HW131911   0.383  13.519  11.926 -0.1912  1.2415  1.4465
37973SOL    HW231912   0.292  13.436  12.014 -0.9490  0.0187 -0.4050
37974SOL     OW31913  10.202  11.150   2.678 -0.0371  0.1204 -0.0985
37974SOL    HW131914  10.192  11.172   2.771  0.7322 -2.9597  0.8306
37974SOL    HW231915  10.294  11.166   2.659 -0.2254  0.8854 -0.4004
37975SOL     OW31916   9.563   5.925   1.101  0.0656  0.3539  0.4034
37975SOL    HW131917   9.568   6.020   1.106  0.2632  0.4079 -0.6381
37975SOL    HW231918   9.653   5.896   1.088 -0.1551  0.1269 -0.6740
37976SOL     OW31919  13.037  13.289   3.280  0.1001 -0.2205 -0.1586
37976SOL    HW131920  13.028  13.296   3.375 -1.2848 -0.1782 -0.2796
37976SOL    HW231921  12.960  13.333   3.245  0.5740 -0.2636 -1.3130
37977SOL     OW31922  11.750  10.829  11.839 -0.1398 -0.5086  0.1093
37977SOL    HW131923  11.843  10.848  11.829 -0.1709 -0.9113 -1.0850
37977SOL    HW231924  11.715  10.833  11.750 -1.2335 -0.5570  0.5197
37978SOL     OW31925   3.796   0.769   5.137  0.5891  0.2534  0.3724
37978SOL    HW131926   3.813   0.699   5.200  0.7146  0.0712  0.1390
37978SOL    HW231927   3.725   0.820   5.176  1.2904  0.6995  1.1075
37979SOL     OW31928   6.472   9.256  10.687 -0.3680 -0.0441  0.0080
37979SOL    HW131929   6.406   9.201  10.644 -0.5898  1.2558 -1.4370
37979SOL    HW231930   6.521   9.197  10.744 -1.7105 -1.3614 -0.1684
37980SOL     OW31931  12.730   5.128   0.809 -0.2880 -0.2119 -0.3380
37980SOL    HW131932  12.689   5.141   0.895 -0.3742 -0.9539 -0.2599
37980SOL    HW231933  12.764   5.215   0.785 -2.5027  0.6300 -0.7175
37981SOL     OW31934   9.199  10.447   6.085 -0.6855  0.5391  0.1529
37981SOL    HW131935   9.227  10.424   6.174 -1.0084 -2.3088 -0.4099
37981SOL    HW231936   9.276  10.432   6.031 -1.1360  0.0610 -0.3608
37982SOL     OW31937   3.826   1.299   0.664  0.0456  0.2333  0.1672
37982SOL    HW131938   3.834   1.225   0.723  0.1540  0.6878  0.7336
37982SOL    HW231939   3.759   1.355   0.704  0.0316  0.4905 -0.2043
37983SOL     OW31940   7.979   7.441   2.926 -0.1023 -0.8685  0.0274
37983SOL    HW131941   7.892   7.441   2.965 -0.4237 -1.1784 -0.6626
37983SOL    HW231942   7.967   7.401   2.840  0.8331 -1.5114  0.1708
37984SOL     OW31943   1.260  11.286   3.521 -0.2970  0.2785 -0.1976
37984SOL    HW131944   1.306  11.208   3.549  1.3935  0.7984 -1.4059
37984SOL    HW231945   1.300  11.310   3.437 -2.3541  1.1232 -1.0179
37985SOL     OW31946   6.667  11.605   2.725 -0.4372 -0.3298  0.3681
37985SOL    HW131947   6.681  11.698   2.704 -0.4001  0.0068  1.7819
37985SOL    HW231948   6.587  11.604   2.778 -0.2381 -1.0571  0.6707
37986SOL     OW31949   0.033   3.930   3.794 -0.2218  0.0584 -0.1494
37986SOL    HW131950   0.015   4.020   3.819  1.6766  0.1320  1.1846
37986SOL    HW231951   0.008   3.924   3.702  1.6037  2.5934 -0.9136
37987SOL     OW31952   4.923   5.594  11.228  0.5060  0.3199 -0.3269
37987SOL    HW131953   4.937   5.503  11.205 -0.7992 -0.2641  1.0217
37987SOL    HW231954   4.902   5.593  11.322 -0.2410  1.9054 -0.4305
37988SOL     OW31955   7.530   8.695   0.488  0.4197  0.0568 -0.3875
37988SOL    HW131956   7.489   8.772   0.529 -0.4349 -0.9273  0.7028
37988SOL    HW231957   7.608   8.680   0.541 -0.1876 -0.6595  0.3363
37989SOL     OW31958  12.970   4.166   2.757  0.3010 -0.5118  0.4788
37989SOL    HW131959  12.885   4.208   2.742  0.1394 -0.8015  0.5735
37989SOL    HW231960  13.008   4.158   2.670 -1.3609 -3.7185 -0.1148
37990SOL     OW31961  11.655  13.498   4.195  0.2420  0.4888 -0.5680
37990SOL    HW131962  11.667  13.429   4.260 -0.0303 -0.0158 -1.0417
37990SOL    HW231963  11.583  13.551   4.229  0.8794  0.9317  0.1172
37991SOL     OW31964   8.867   8.544   4.922  0.0358 -0.3117 -0.7972
37991SOL    HW131965   8.876   8.634   4.953  2.2128 -0.2203 -1.5299
37991SOL    HW231966   8.868   8.551   4.827  3.2608 -1.2218 -0.9613
37992SOL     OW31967  13.400   9.011  13.831 -0.1041  0.2681  0.3059
37992SOL    HW131968  13.359   8.974  13.753  1.3769  0.2631 -0.5053
37992SOL    HW231969  13.327   9.045  13.882 -1.2632 -1.2057 -0.2712
37993SOL     OW31970   3.822   8.602   8.105 -0.4261  0.3286 -0.1145
37993SOL    HW131971   3.787   8.686   8.077  1.1605  1.0216 -0.1206
37993SOL    HW231972   3.880   8.574   8.034  1.9038  1.0348  1.3778
37994SOL     OW31973   0.011  12.469   4.143 -0.0426 -0.0710  0.5459
37994SOL    HW131974   0.096  12.450   4.183 -1.3141 -0.6469  3.2367
37994SOL    HW231975   0.021  12.557   4.106  2.0497 -0.6091 -0.3139
37995SOL     OW31976  13.982  12.434  10.000  0.2485  0.1316  0.0872
37995SOL    HW131977  14.010  12.517  10.037 -0.6268  0.5974 -0.2840
37995SOL    HW231978  13.998  12.443   9.906  0.7652 -0.3711  0.1192
37996SOL     OW31979   1.433   1.281  12.807 -0.3352  0.2953 -0.0745
37996SOL    HW131980   1.446   1.303  12.714 -0.6707 -1.2770 -0.5247
37996SOL    HW231981   1.397   1.361  12.845 -0.9733  0.7188 -1.4794
37997SOL     OW31982  13.308   1.715   3.047  0.0589  0.4546  0.5268
37997SOL    HW131983  13.359   1.714   2.966 -0.9826  0.0600 -0.1551
37997SOL    HW231984  13.292   1.623   3.067 -2.1736  0.5454 -0.4995
37998SOL     OW31985   9.468   5.455   1.652  0.5108 -0.4384 -0.5761
37998SOL    HW131986   9.450   5.502   1.571  1.6489  0.4035 -0.3568
37998SOL    HW231987   9.504   5.522   1.711 -1.5523 -0.7054  1.1044
37999SOL     OW31988   5.930   2.917   6.969  0.3996  0.3510 -0.4220
37999SOL    HW131989   5.923   2.990   7.030  0.0959  0.2355 -0.3157
37999SOL    HW231990   5.848   2.921   6.919  0.6094  0.3940 -0.7646
38000SOL     OW31991   7.794  13.347  10.584 -0.4298  0.0068 -0.2422
38000SOL    HW131992   7.883  13.355  10.619 -0.5645 -0.7379  0.2956
38000SOL    HW231993   7.806  13.346  10.489  0.3040 -1.6726 -0.1744
38001SOL     OW31994   1.541   9.863   6.302 -1.1974  0.0811 -0.3869
38001SOL    HW131995   1.450   9.834   6.312 -0.7433 -0.7169  2.3289
38001SOL    HW231996   1.593   9.791   6.340  0.6350  0.3305 -2.2337
38002SOL     OW31997  11.055  12.085  13.423  0.4152  0.2723 -0.0732
38002SOL    HW131998  11.091  12.162  13.467 -0.8008 -0.1390  1.7566
38002SOL    HW231999  11.116  12.015  13.445  0.1012  0.1785  0.5087
38003SOL     OW32000   1.045   2.481  10.978  0.1135 -0.1750 -0.3834
38003SOL    HW132001   1.027   2.476  11.071 -1.3395 -1.9872 -0.7012
38003SOL    HW232002   1.067   2.392  10.952 -0.7808  0.0193 -1.9764
38004SOL     OW32003   4.542  11.796   4.041  0.2776  0.3353  0.5380
38004SOL    HW132004   4.583  11.765   3.960  0.6081 -1.0904  1.2225
38004SOL    HW232005   4.467  11.738   4.054 -0.1084  0.9105  0.9729
38005SOL     OW32006   8.424   0.270  10.545 -0.7448  0.1376  0.4902
38005SOL    HW132007   8.356   0.302  10.486 -0.3784  0.6893  0.3561
38005SOL    HW232008   8.377   0.216  10.608 -1.3084  0.4872  0.3821
38006SOL     OW32009  11.413   5.172   6.276  0.2691 -0.4376  0.6580
38006SOL    HW132010  11.341   5.154   6.337 -0.3100 -1.3570 -0.2435
38006SOL    HW232011  11.379   5.143   6.191  0.5815  1.9548 -0.3524
38007SOL     OW32012   0.024   5.602   5.647 -0.2420  0.7388  0.4166
38007SOL    HW132013   0.118   5.593   5.659 -0.2506  0.1811  0.1321
38007SOL    HW232014  -0.014   5.539   5.709 -0.3637 -0.3295 -0.7101
38008SOL     OW32015  11.064  12.286  11.352 -0.1407 -0.4613  0.1598
38008SOL    HW132016  11.123  12.249  11.417  0.3884 -2.0291 -1.1496
38008SOL    HW232017  11.026  12.363  11.395  0.9048 -0.8878  1.9438
38009SOL     OW32018   9.887   3.570  10.001  0.6084 -0.0686  0.0163
38009SOL    HW132019   9.816   3.633   9.987 -0.0398 -0.7403  0.2409
38009SOL    HW232020   9.874   3.503   9.934  1.9502  0.5888 -0.9260
38010SOL     OW32021  13.101   6.225  12.196 -0.1072 -0.0705 -0.0426
38010SOL    HW132022  13.149   6.167  12.255 -1.8933 -2.9607 -1.2216
38010SOL    HW232023  13.161   6.241  12.123  0.8359  0.6306  0.8566
38011SOL     OW32024   9.427   3.098  13.487 -0.0388 -0.7862 -0.1758
38011SOL    HW132025   9.512   3.066  13.517  0.1375 -0.4816 -0.3441
38011SOL    HW232026   9.447   3.156  13.414 -0.4631 -1.5039 -0.8879
38012SOL     OW32027   8.797   6.218  10.490 -0.7686  0.4898  0.1328
38012SOL    HW132028   8.774   6.170  10.411 -0.4621 -0.0750  0.3819
38012SOL    HW232029   8.887   6.247  10.476 -0.9275  0.9495  0.0133
38013SOL     OW32030  12.557   9.506  12.132 -0.1242  0.0272 -0.2361
38013SOL    HW132031  12.471   9.502  12.090  0.2289  0.3076 -1.0016
38013SOL    HW232032  12.568   9.599  12.153  0.4202  0.1514 -1.0542
38014SOL     OW32033   6.680   0.283   7.402 -0.5220 -0.3478  0.0094
38014SOL    HW132034   6.723   0.351   7.455 -0.3800 -0.9387  0.6774
38014SOL    HW232035   6.620   0.240   7.464 -0.2328 -1.1607 -0.2661
38015SOL     OW32036   4.151  12.298   1.197  0.0645  0.6985  0.3254
38015SOL    HW132037   4.241  12.275   1.178  0.2689  0.3377  1.6192
38015SOL    HW232038   4.128  12.365   1.132  1.4895  1.3134  0.4256
38016SOL     OW32039  12.989  10.159   1.626  0.2563 -0.1263 -0.4891
38016SOL    HW132040  13.017  10.133   1.714  1.1514 -1.4966 -1.1471
38016SOL    HW232041  12.961  10.250   1.636  0.8031 -0.0989  1.1106
38017SOL     OW32042   0.219  10.763  13.898  0.1068 -0.1095 -0.1057
38017SOL    HW132043   0.146  10.817  13.867  0.3664  0.5612  0.4224
38017SOL    HW232044   0.239  10.705  13.825  0.5002  1.2114 -1.0882
38018SOL     OW32045   5.983   1.328   1.441 -0.2902  0.3875 -0.0531
38018SOL    HW132046   6.075   1.313   1.461 -1.1833 -2.0685  3.0806
38018SOL    HW232047   5.959   1.404   1.494 -0.4327 -0.0934  0.5880
38019SOL     OW32048  12.106   0.775   5.321  0.5601 -0.2088 -0.0761
38019SOL    HW132049  12.079   0.736   5.238  1.3246  0.3034 -0.5711
38019SOL    HW232050  12.024   0.799   5.364  0.1845  2.6345 -2.1654
38020SOL     OW32051  11.190   3.593   6.054 -0.6946 -0.2718  0.1060
38020SOL    HW132052  11.241   3.624   5.979  0.7293  0.1575  1.2061
38020SOL    HW232053  11.148   3.672   6.088 -3.2799 -0.7980 -1.5585
38021SOL     OW32054   9.689   4.537   9.697  0.3242  0.4979  0.1425
38021SOL    HW132055   9.634   4.594   9.751 -0.0794 -0.8568  1.2174
38021SOL    HW232056   9.778   4.561   9.720  0.1696 -0.4599  1.9236
38022SOL     OW32057   4.491   3.229   3.001  0.8036 -0.0903  0.7730
38022SOL    HW132058   4.455   3.141   2.997  1.3987 -0.3005 -0.2736
38022SOL    HW232059   4.429   3.278   3.055 -0.2097 -0.8345  0.3069
38023SOL     OW32060   8.859   7.628   3.301 -0.3022  0.8083  0.0798
38023SOL    HW132061   8.777   7.673   3.280 -2.4552 -2.5224  0.5845
38023SOL    HW232062   8.883   7.661   3.387 -2.0971  0.7115  0.6713
38024SOL     OW32063   8.157  11.816   4.229  0.6105  0.5626 -0.1685
38024SOL    HW132064   8.185  11.755   4.298 -0.6753 -0.9093 -0.8871
38024SOL    HW232065   8.062  11.809   4.229  0.5489  1.1710 -1.5408
38025SOL     OW32066   0.240   6.881   8.651  0.7805  0.0814  0.3790
38025SOL    HW132067   0.312   6.934   8.684  1.6314 -0.2879 -0.8206
38025SOL    HW232068   0.169   6.943   8.636  1.3085  0.6696  0.2841
38026SOL     OW32069   8.636   9.146   2.582  0.4995 -0.9332  0.0886
38026SOL    HW132070   8.704   9.124   2.645  1.1829 -2.0450 -0.9986
38026SOL    HW232071   8.678   9.138   2.496 -0.7696 -0.8388 -0.5767
38027SOL     OW32072  10.981   1.228   2.666 -0.3682  0.3942  0.0688
38027SOL    HW132073  10.951   1.319   2.670 -2.6164 -0.2854  0.0793
38027SOL    HW232074  10.905   1.177   2.692  0.6887 -1.5417 -0.4573
38028SOL     OW32075   5.080   0.402  13.648  0.7017 -0.0536  0.0931
38028SOL    HW132076   5.064   0.487  13.689  1.5296  1.2528 -2.0936
38028SOL    HW232077   5.175   0.401  13.632  0.7895 -1.6504  0.5459
38029SOL     OW32078   6.336   6.667  13.454 -0.0304  0.2525 -0.2041
38029SOL    HW132079   6.423   6.669  13.413 -0.3950  0.1099 -1.0214
38029SOL    HW232080   6.338   6.588  13.508  0.0386 -0.2824 -0.9643
38030SOL     OW32081  14.114  14.105  12.872  0.6487 -0.2454  0.6413
38030SOL    HW132082  14.069  14.103  12.788  0.5552  0.6052  0.6645
38030SOL    HW232083  14.137  14.013  12.889  0.9528 -0.3887 -0.4553
38031SOL     OW32084   0.529   0.708   2.849  0.3104  0.0365 -0.3176
38031SOL    HW132085   0.520   0.722   2.943 -1.5348  0.3217 -0.4902
38031SOL    HW232086   0.494   0.620   2.834  0.0117  0.2301 -0.7907
38032SOL     OW32087   4.359   4.252   3.201 -0.2556 -0.0907  0.0141
38032SOL    HW132088   4.313   4.224   3.280 -0.2747  1.5603  0.6205
38032SOL    HW232089   4.318   4.335   3.177  1.9346  1.1036  0.2001
38033SOL     OW32090  12.350  10.074  13.385 -0.0418  0.2054  0.0525
38033SOL    HW132091  12.348  10.097  13.292  0.6020 -0.0480 -0.0352
38033SOL    HW232092  12.414  10.134  13.423  0.7423 -0.6044  0.0505
38034SOL     OW32093   8.626   7.590   1.178  0.0933  0.0438  0.1122
38034SOL    HW132094   8.532   7.573   1.183  0.2047 -0.7625 -0.3425
38034SOL    HW232095   8.646   7.637   1.259 -0.7744  0.6236  0.0050
38035SOL     OW32096   3.356   8.758   0.267 -0.2470  0.2956  0.4529
38035SOL    HW132097   3.285   8.695   0.258  0.1223  0.0503 -0.9251
38035SOL    HW232098   3.417   8.736   0.197  2.3489 -0.9488  2.8977
38036SOL     OW32099   8.689   9.945   8.721  0.8048 -0.2137 -0.2600
38036SOL    HW132100   8.642   9.992   8.790  2.1601  0.6774  0.0952
38036SOL    HW232101   8.682  10.002   8.645 -1.0654 -1.3969 -1.0469
38037SOL     OW32102   6.633  11.806   6.171  0.0361 -0.2166 -0.6199
38037SOL    HW132103   6.714  11.857   6.174 -0.4051  0.4573  0.4814
38037SOL    HW232104   6.638  11.748   6.247 -1.2477  1.0348  0.4689
38038SOL     OW32105   1.771   2.277  10.582  0.2084 -0.4955 -0.0469
38038SOL    HW132106   1.728   2.194  10.560 -0.2693 -0.5840  1.1574
38038SOL    HW232107   1.703   2.327  10.627  1.1400 -0.3408  1.2319
38039SOL     OW32108   8.018  11.885   5.334  0.4289 -0.1966 -0.1224
38039SOL    HW132109   7.930  11.880   5.372  0.8171 -0.7908  0.7370
38039SOL    HW232110   8.018  11.966   5.283 -0.3170  0.3177  0.6681
38040SOL     OW32111  12.332  10.342   8.685 -0.1654  0.0624 -0.5170
38040SOL    HW132112  12.280  10.408   8.730 -0.5274 -1.0383  0.7385
38040SOL    HW232113  12.386  10.392   8.623  0.0934  1.5915  0.8799
38041SOL     OW32114   3.096  10.579   5.564  0.0565 -0.3117 -0.1647
38041SOL    HW132115   3.166  10.605   5.505  0.3017 -0.5261  0.0321
38041SOL    HW232116   3.118  10.489   5.590  0.7956  0.2998  1.4882
38042SOL     OW32117   3.593  11.408   9.745 -0.1780  0.2780  0.0783
38042SOL    HW132118   3.542  11.382   9.669 -1.2727 -1.9676  1.4905
38042SOL    HW232119   3.535  11.467   9.794  0.0722  0.7673 -0.2034
38043SOL     OW32120   9.677  13.420   9.166 -0.1043 -0.0457 -0.2809
38043SOL    HW132121   9.590  13.445   9.196 -0.1539 -0.8082  0.2257
38043SOL    HW232122   9.705  13.351   9.226  0.5137 -0.3829 -0.9364
38044SOL     OW32123   3.094  11.385   8.349  0.3045 -0.6044  0.0204
38044SOL    HW132124   3.105  11.459   8.409  0.9865 -0.2119 -0.5647
38044SOL    HW232125   3.004  11.394   8.316  0.3625 -0.0555 -0.0029
38045SOL     OW32126   4.363   3.399  13.674  0.1131  0.1346 -0.2704
38045SOL    HW132127   4.372   3.391  13.580 -1.9403 -0.5678 -0.4608
38045SOL    HW232128   4.321   3.485  13.687  1.0167  0.5382  0.0715
38046SOL     OW32129  13.695   2.878   5.438  0.7152  0.2751  0.0121
38046SOL    HW132130  13.741   2.809   5.390  0.6815 -0.2264  0.6873
38046SOL    HW232131  13.754   2.901   5.510  0.9919  1.3775 -0.5344
38047SOL     OW32132  12.538   8.934  10.963 -0.4940 -0.1817 -0.3542
38047SOL    HW132133  12.609   8.871  10.955 -0.7567 -0.9271  2.1843
38047SOL    HW232134  12.572   9.014  10.923  0.8327 -1.1702 -1.3091
38048SOL     OW32135   0.678  11.153   1.019  0.2102  0.7927 -0.3106
38048SOL    HW132136   0.594  11.129   1.058 -0.0371  2.9190  0.6111
38048SOL    HW232137   0.692  11.088   0.950 -0.8305 -1.2800  1.2882
38049SOL     OW32138  13.454  11.102   2.355  0.1883  0.2750 -0.0446
38049SOL    HW132139  13.513  11.088   2.281  0.5554 -0.2242  0.3429
38049SOL    HW232140  13.447  11.198   2.361  1.9824  0.3903  0.7048
38050SOL     OW32141   3.598   5.837  11.361  0.1437  0.1411  0.7113
38050SOL    HW132142   3.662   5.892  11.406 -0.3477  2.2447 -0.9656
38050SOL    HW232143   3.607   5.861  11.268 -2.5144 -0.0444  0.3249
38051SOL     OW32144   7.231  11.380  10.551  0.3539  0.2596  1.2903
38051SOL    HW132145   7.180  11.410  10.626  0.4465 -1.1672  1.9541
38051SOL    HW232146   7.220  11.285  10.551  3.5853 -0.2350  1.9350
38052SOL     OW32147   9.854   8.673   6.146 -0.0129  0.1273  0.3020
38052SOL    HW132148   9.943   8.682   6.180 -0.7426  0.0699  2.4069
38052SOL    HW232149   9.798   8.676   6.224 -1.7943 -0.9184 -0.8476
38053SOL     OW32150   5.882   2.859   2.500  0.2698  0.1861  0.4569
38053SOL    HW132151   5.976   2.846   2.496  0.4015  0.7110  1.5551
38053SOL    HW232152   5.856   2.825   2.586 -0.6874 -0.7674 -0.1788
38054SOL     OW32153   5.386   7.025   0.888 -0.1729 -0.2709 -0.2253
38054SOL    HW132154   5.358   7.014   0.979  1.7228  1.3290  0.6340
38054SOL    HW232155   5.372   7.118   0.870  1.9859  0.0271 -0.6052
38055SOL     OW32156   3.012   0.775  11.751 -0.1655  0.1680  0.3894
38055SOL    HW132157   2.953   0.841  11.787  0.8200  1.0633  0.4201
38055SOL    HW232158   3.092   0.782  11.804  0.0158 -0.9652  0.3090
38056SOL     OW32159   8.142   0.918  10.991 -0.4064 -0.5419  0.3336
38056SOL    HW132160   8.110   0.835  10.957 -0.4001 -1.1101  1.6408
38056SOL    HW232161   8.125   0.913  11.085  2.0454 -0.2212  0.8615
38057SOL     OW32162   4.348   6.003   0.690  0.3560  0.5740  0.8071
38057SOL    HW132163   4.432   5.968   0.718  0.2223 -1.3876 -0.9961
38057SOL    HW232164   4.325   5.952   0.612 -1.4191  2.6064 -0.1185
38058SOL     OW32165   6.643   6.140  11.639 -0.0584  0.1805 -0.1327
38058SOL    HW132166   6.727   6.146  11.683 -0.3508  2.0429  0.2458
38058SOL    HW232167   6.586   6.201  11.687 -2.4883 -2.9409  1.4117
38059SOL     OW32168  11.203   0.148   4.037  0.1817  0.0700  0.3454
38059SOL    HW132169  11.205   0.241   4.016 -0.2956 -0.1065 -0.5067
38059SOL    HW232170  11.174   0.145   4.129 -1.1166  0.6999 -0.0191
38060SOL     OW32171   5.627   9.534   4.386 -0.0518 -0.2424  0.3588
38060SOL    HW132172   5.623   9.556   4.293  0.5468 -0.6386  0.2374
38060SOL    HW232173   5.619   9.618   4.431  1.6559  0.1882 -0.0889
38061SOL     OW32174   9.386   1.698   8.797  0.8958 -1.1667 -0.1861
38061SOL    HW132175   9.356   1.626   8.852  1.0791 -1.0661  0.0477
38061SOL    HW232176   9.370   1.777   8.849  0.2582 -0.9982 -0.6304
38062SOL     OW32177   8.965   3.825  10.923 -0.1001  0.2978 -0.3467
38062SOL    HW132178   9.058   3.808  10.905 -0.6366 -0.0197 -3.2166
38062SOL    HW232179   8.949   3.911  10.885 -1.1057  0.1585 -0.2607
38063SOL     OW32180   6.389   7.549   9.437 -0.4194  0.1529  0.9496
38063SOL    HW132181   6.315   7.589   9.483 -1.5455 -0.6810 -0.0777
38063SOL    HW232182   6.379   7.576   9.346 -1.6811 -2.9253  0.0293
38064SOL     OW32183   6.476   4.685   7.668  0.4617 -0.2700 -0.3422
38064SOL    HW132184   6.386   4.657   7.686  0.0602  1.3952  0.4216
38064SOL    HW232185   6.480   4.691   7.572 -0.7733  1.1278 -0.3545
38065SOL     OW32186   4.559  11.762   8.254 -0.0985  0.0287  0.6884
38065SOL    HW132187   4.519  11.687   8.211  0.7243 -0.6929  1.1313
38065SOL    HW232188   4.495  11.790   8.319 -0.9011  0.4629 -0.2682
38066SOL     OW32189  10.165   7.205   0.541 -0.1737  0.2825 -0.1325
38066SOL    HW132190  10.210   7.169   0.616  0.7778  1.8042  0.0763
38066SOL    HW232191  10.235   7.234   0.482 -0.8972 -0.1211 -1.2343
38067SOL     OW32192   8.524  13.253  13.991  0.1709 -0.3549  0.2102
38067SOL    HW132193   8.586  13.267  14.063  0.4824 -0.3426 -0.0597
38067SOL    HW232194   8.569  13.286  13.914 -1.7073  3.5947  0.5423
38068SOL     OW32195   2.323   7.422  11.269  0.3153  0.4272  0.0860
38068SOL    HW132196   2.390   7.359  11.244  1.2059  2.0623 -1.9825
38068SOL    HW232197   2.332   7.431  11.364  2.3663 -0.1370 -0.0141
38069SOL     OW32198   3.386   6.035   5.822 -0.1795 -0.0638 -0.6068
38069SOL    HW132199   3.481   6.037   5.807 -0.1087  1.6133 -0.2025
38069SOL    HW232200   3.349   6.087   5.750 -0.7334 -0.2089 -0.4310
38070SOL     OW32201   3.001   2.197  14.115 -0.6244  0.0804  0.6294
38070SOL    HW132202   2.983   2.141  14.039 -1.0019  0.1925  0.6332
38070SOL    HW232203   2.982   2.142  14.190 -2.2056  0.5769  0.6327
38071SOL     OW32204   0.628   7.429   4.436 -0.2357 -0.0020 -1.0032
38071SOL    HW132205   0.590   7.451   4.521  0.3634  0.0381 -0.7436
38071SOL    HW232206   0.653   7.337   4.444  1.1964  0.3883 -0.6014
38072SOL     OW32207  12.678   8.207   7.800 -0.0445 -0.0279  0.6994
38072SOL    HW132208  12.604   8.239   7.851 -0.9856  0.1285 -0.7202
38072SOL    HW232209  12.732   8.285   7.786  0.0264  0.0021  1.1107
38073SOL     OW32210   3.277   6.895   9.792 -0.2253  0.0083  0.3491
38073SOL    HW132211   3.264   6.937   9.707  0.6091 -0.1655  0.1220
38073SOL    HW232212   3.212   6.936   9.849 -1.0164 -0.1045 -0.4460
38074SOL     OW32213  12.745   9.940  13.991 -0.1381 -0.1380  0.3863
38074SOL    HW132214  12.709   9.917  13.905  0.8676 -0.2837 -0.0114
38074SOL    HW232215  12.690  10.013  14.021 -0.4955 -0.0733 -0.3816
38075SOL     OW32216   0.219  13.325   5.049  0.2553  0.7727 -0.8743
38075SOL    HW132217   0.313  13.340   5.056  0.3606 -0.2095 -0.0670
38075SOL    HW232218   0.181  13.380   5.118  0.1760  1.5094 -1.4800
38076SOL     OW32219   5.610   2.300   1.793  0.1175  0.2315 -0.0108
38076SOL    HW132220   5.628   2.394   1.799 -0.1523  0.2155  1.2624
38076SOL    HW232221   5.537   2.294   1.731 -0.8243  1.0149  0.9733
38077SOL     OW32222  13.807   3.658  12.887  0.6732  0.3203 -0.3082
38077SOL    HW132223  13.733   3.606  12.856  1.3334 -0.7202 -0.2051
38077SOL    HW232224  13.774   3.747  12.891 -0.4026 -0.0374 -0.8133
38078SOL     OW32225   3.868   4.320  12.817  0.0578 -0.3026 -0.2337
38078SOL    HW132226   3.799   4.377  12.852 -0.7015 -1.3197 -0.0032
38078SOL    HW232227   3.845   4.309  12.725  0.0066 -0.4986 -0.1986
38079SOL     OW32228  13.404   8.525  12.216 -0.5920  0.5464  0.1914
38079SOL    HW132229  13.467   8.459  12.188  1.1829  2.9833 -2.1389
38079SOL    HW232230  13.409   8.525  12.311 -1.2838 -3.0770  0.3908
38080SOL     OW32231   4.240   0.403  13.583  0.9599 -0.8236  0.2201
38080SOL    HW132232   4.266   0.330  13.527 -1.8588 -2.6538  1.0853
38080SOL    HW232233   4.149   0.421  13.558  0.7933  0.7187  1.7530
38081SOL     OW32234   0.506   6.357   9.641  0.1585 -0.5767 -0.3602
38081SOL    HW132235   0.596   6.379   9.618  0.6723 -1.4091  0.7460
38081SOL    HW232236   0.473   6.305   9.568  0.5233 -0.1474 -0.8306
38082SOL     OW32237   2.484   2.379   6.113  0.0808 -0.0000 -0.2177
38082SOL    HW132238   2.458   2.394   6.022 -3.0947 -0.7023  0.4674
38082SOL    HW232239   2.434   2.444   6.163  1.7086  0.3235  1.0816
38083SOL     OW32240   1.592  11.506  13.345  0.3269 -0.0941 -0.3293
38083SOL    HW132241   1.613  11.599  13.354 -0.6539  0.0881  0.2555
38083SOL    HW232242   1.662  11.461  13.393  0.3486  0.3875  0.1026
38084SOL     OW32243   9.324   9.609   6.044  0.5868  0.0604 -0.8941
38084SOL    HW132244   9.388   9.661   5.994  0.4055  0.7839 -0.3894
38084SOL    HW232245   9.374   9.533   6.074  1.5135  1.0823  0.3103
38085SOL     OW32246   5.577  10.601   6.840 -0.4893 -0.1145  0.4282
38085SOL    HW132247   5.578  10.529   6.903 -0.6932  0.1102  0.6924
38085SOL    HW232248   5.600  10.678   6.892 -1.3154  0.1839  0.3702
38086SOL     OW32249   2.186   3.990   0.297  0.1303  0.3413  0.2543
38086SOL    HW132250   2.112   3.955   0.248  0.8590 -1.5103  0.3862
38086SOL    HW232251   2.216   4.065   0.246 -0.2866 -0.4131 -1.1398
38087SOL     OW32252   9.443   4.399   2.979  0.2972 -0.4001 -0.4571
38087SOL    HW132253   9.482   4.369   3.061 -0.5620  0.3263  0.2463
38087SOL    HW232254   9.349   4.387   2.992 -0.0080  1.4720 -0.5618
38088SOL     OW32255   9.400  11.426  12.511 -0.1981  0.6456 -0.1932
38088SOL    HW132256   9.348  11.363  12.561  0.1930  0.2141 -0.3291
38088SOL    HW232257   9.480  11.379  12.490 -0.7414  0.4864 -2.0707
38089SOL     OW32258   1.016   8.221   2.757  0.1951  0.0233  0.5746
38089SOL    HW132259   1.020   8.172   2.839  0.6113  0.0874  0.5904
38089SOL    HW232260   1.030   8.312   2.781  1.9217 -0.1259  0.2565
38090SOL     OW32261   8.468  11.557  12.250 -0.0358  0.6275  0.5631
38090SOL    HW132262   8.538  11.619  12.271  0.5945 -0.7658  2.9484
38090SOL    HW232263   8.489  11.480  12.302 -0.2980 -2.0035 -2.8755
38091SOL     OW32264  12.851  12.182   4.449 -0.2000 -0.1465  0.5916
38091SOL    HW132265  12.836  12.095   4.485  1.4938 -0.0199  1.7619
38091SOL    HW232266  12.921  12.171   4.386 -0.3848  0.2750  0.3071
38092SOL     OW32267  10.954   6.027   7.510 -0.0494  0.0735 -0.4515
38092SOL    HW132268  10.924   5.994   7.425  0.6153  0.5315 -0.8663
38092SOL    HW232269  10.926   6.118   7.512  2.7575  1.0613 -1.5998
38093SOL     OW32270   6.364   1.739   6.912 -0.2303  0.2124 -0.2045
38093SOL    HW132271   6.440   1.740   6.968 -0.0986 -2.5369 -0.1780
38093SOL    HW232272   6.372   1.657   6.862 -0.1054  2.5637 -4.6072
38094SOL     OW32273   6.831  12.030   5.617 -0.2382  0.1092 -0.3330
38094SOL    HW132274   6.792  12.007   5.533 -0.2936 -3.0844  0.4431
38094SOL    HW232275   6.757  12.031   5.678  0.1064  0.0099  0.0911
38095SOL     OW32276  10.353  12.815   1.632 -0.0993  0.3464 -0.2079
38095SOL    HW132277  10.411  12.868   1.688  0.3153  0.3748 -0.6599
38095SOL    HW232278  10.293  12.774   1.694  0.9639 -0.3854  0.3715
38096SOL     OW32279   5.120   7.374   5.756 -0.2967 -0.5730  0.3249
38096SOL    HW132280   5.038   7.387   5.707 -0.0352  1.1490  0.2804
38096SOL    HW232281   5.118   7.282   5.781 -1.0570 -1.2020 -1.8142
38097SOL     OW32282  12.493   4.136   2.986 -0.0622 -0.2013 -0.6038
38097SOL    HW132283  12.420   4.192   2.963  0.2231  0.3903 -0.1061
38097SOL    HW232284  12.512   4.087   2.906 -0.4509  0.2607 -0.9852
38098SOL     OW32285   6.941   6.805   1.273  0.4677  0.6313  0.2303
38098SOL    HW132286   7.025   6.794   1.228  0.6502  0.7838  0.5276
38098SOL    HW232287   6.942   6.896   1.304 -0.5865  1.2174 -1.3200
38099SOL     OW32288   7.802  13.355  10.307 -0.3052 -0.2435  0.2225
38099SOL    HW132289   7.715  13.349  10.267 -0.6903 -1.8982  1.2194
38099SOL    HW232290   7.860  13.310  10.246 -0.3803 -0.3167  0.2049
38100SOL     OW32291   2.151   4.339   2.872  0.0433  0.1698 -0.2851
38100SOL    HW132292   2.226   4.376   2.825  1.7226 -1.3567  1.0453
38100SOL    HW232293   2.131   4.258   2.825 -0.1776  0.1115 -0.0923
38101SOL     OW32294   6.211   9.649  11.821 -0.1529  0.1732  0.0236
38101SOL    HW132295   6.251   9.734  11.799  0.7310 -0.1671  0.2578
38101SOL    HW232296   6.213   9.646  11.916  0.0470 -0.2082  0.0099
38102SOL     OW32297  14.129   2.226   2.635 -0.8998  0.2246 -0.3041
38102SOL    HW132298  14.141   2.164   2.562 -0.0727  0.4727 -0.3814
38102SOL    HW232299  14.197   2.292   2.622 -0.1622 -0.2097  1.1971
38103SOL     OW32300  12.721   3.868  11.605 -0.0366  0.2091 -0.0008
38103SOL    HW132301  12.657   3.847  11.537 -1.3974 -0.2531  1.3907
38103SOL    HW232302  12.797   3.813  11.583 -0.2923  0.3654 -1.3626
38104SOL     OW32303   9.281   0.377  11.614  0.1444  0.5781  0.2745
38104SOL    HW132304   9.232   0.430  11.550 -0.6629  0.3194  0.6569
38104SOL    HW232305   9.355   0.343  11.565  0.4132  1.6600 -0.1116
38105SOL     OW32306  14.037   2.589  10.389  0.6976 -0.1554 -0.7187
38105SOL    HW132307  14.082   2.622  10.312  1.8889  0.3028  0.1353
38105SOL    HW232308  14.063   2.648  10.460  1.2377 -1.6974  0.4406
38106SOL     OW32309   2.912  11.666  10.758 -0.3515  0.5485  0.5080
38106SOL    HW132310   2.836  11.609  10.768 -0.9074  1.0841 -0.4942
38106SOL    HW232311   2.986  11.605  10.751 -0.7370  0.0089  0.9613
38107SOL     OW32312   1.495   0.180   2.449 -0.6113 -0.2910  0.0213
38107SOL    HW132313   1.471   0.212   2.362 -0.2157  1.0847  0.3906
38107SOL    HW232314   1.520   0.259   2.498  1.0990 -1.2284  0.7725
38108SOL     OW32315   5.928   9.498   3.165  0.0153  0.3934 -0.6573
38108SOL    HW132316   5.862   9.568   3.159  0.5042  0.8214 -1.1749
38108SOL    HW232317   5.954   9.497   3.257 -0.6603  0.2645 -0.4579
38109SOL     OW32318   0.284   8.769   3.237 -0.6350  0.2852 -0.8917
38109SOL    HW132319   0.356   8.791   3.295 -2.1749 -0.5962  1.4991
38109SOL    HW232320   0.273   8.847   3.182 -0.6784  2.2730  1.7120
38110SOL     OW32321   9.560   7.745  11.991  0.0979 -0.3071  0.4193
38110SOL    HW132322   9.524   7.664  12.028 -1.0084 -1.1388 -2.2586
38110SOL    HW232323   9.643   7.758  12.038  0.3386 -3.0194  0.8954
38111SOL     OW32324   2.240   0.797   6.194  0.2114 -0.3986  0.2107
38111SOL    HW132325   2.269   0.758   6.112  2.0298  0.5325  0.3532
38111SOL    HW232326   2.173   0.738   6.227 -0.3280 -0.9436 -1.7841
38112SOL     OW32327   2.680  12.439   2.874  0.0289 -0.5050 -0.3754
38112SOL    HW132328   2.586  12.457   2.865  0.3137  0.3097 -2.2873
38112SOL    HW232329   2.719  12.482   2.798  2.1875  0.6843  1.3350
38113SOL     OW32330   2.148   7.525   7.185 -0.0572  0.1536 -0.8815
38113SOL    HW132331   2.231   7.531   7.137  2.2210 -1.1320  2.5069
38113SOL    HW232332   2.106   7.447   7.151  1.7923 -1.0997 -0.4345
38114SOL     OW32333   3.091   9.412  13.265  0.0888 -0.0562 -0.2624
38114SOL    HW132334   3.098   9.506  13.279 -2.0201  0.0049  0.8360
38114SOL    HW232335   3.138   9.373  13.338  0.4373  0.1367 -0.3799
38115SOL     OW32336   0.613   0.703  11.320  0.0026  0.4520  0.5250
38115SOL    HW132337   0.590   0.610  11.323 -0.5726  0.5023 -1.0739
38115SOL    HW232338   0.584   0.732  11.233 -0.4276  2.2870  1.2329
38116SOL     OW32339   8.620   4.769   0.084 -0.2072  0.0809  0.0457
38116SOL    HW132340   8.525   4.778   0.075 -0.0799  0.0619 -1.7065
38116SOL    HW232341   8.654   4.856   0.065  0.2409 -0.5504 -2.4051
38117SOL     OW32342   3.588   8.465   8.022 -0.3774  0.2452  0.3750
38117SOL    HW132343   3.665   8.514   8.050  0.8325 -0.5822 -1.3741
38117SOL    HW232344   3.518   8.530   8.018  0.8718  1.5624 -0.6046
38118SOL     OW32345   2.869   4.311   9.638 -0.0533 -0.4657  0.5402
38118SOL    HW132346   2.963   4.318   9.652 -0.2251  0.2704  1.4421
38118SOL    HW232347   2.860   4.255   9.561  1.2398  2.0616 -1.6322
38119SOL     OW32348   6.612   4.960  11.337  0.4304 -0.3651 -0.3053
38119SOL    HW132349   6.632   5.027  11.272 -1.4026 -1.3414 -1.9636
38119SOL    HW232350   6.608   4.879  11.287 -1.9599 -1.0165  0.8318
38120SOL     OW32351   0.210  11.900   4.870 -1.1030  0.3575  0.4524
38120SOL    HW132352   0.218  11.834   4.802  0.0680 -0.0840  1.0000
38120SOL    HW232353   0.157  11.970   4.829 -0.4036  0.1253 -0.9155
38121SOL     OW32354   8.457   2.283   0.083  0.0098 -0.0902 -0.0741
38121SOL    HW132355   8.463   2.189   0.099 -0.7507  0.0984  1.5670
38121SOL    HW232356   8.377   2.294   0.032 -1.5395 -0.1256  2.2139
38122SOL     OW32357   3.810   5.570   6.766 -0.4953  0.4780  0.4445
38122SOL    HW132358   3.743   5.606   6.824  0.5439 -1.0238  2.7192
38122SOL    HW232359   3.867   5.644   6.746 -1.0390  1.0925  1.1171
38123SOL     OW32360   3.966  12.502   6.159 -0.6285 -0.2345  0.0889
38123SOL    HW132361   4.007  12.518   6.074 -3.3838  0.0080 -1.2877
38123SOL    HW232362   3.872  12.511   6.143 -1.2781 -0.6020  3.0895
38124SOL     OW32363   3.557   0.038  11.287  0.4235  0.2402  0.0593
38124SOL    HW132364   3.553   0.123  11.330 -1.4731 -0.2041  0.8397
38124SOL    HW232365   3.478   0.035  11.233 -0.5367 -1.7534  1.4823
38125SOL     OW32366  11.203   3.983   0.350 -0.0885  0.5386  0.0074
38125SOL    HW132367  11.208   3.956   0.258  0.7413 -0.6535  0.3808
38125SOL    HW232368  11.110   3.994   0.367 -0.6913 -3.3681  0.1311
38126SOL     OW32369   8.135  12.883   1.759 -0.2757 -0.7212  0.2269
38126SOL    HW132370   8.118  12.793   1.732 -1.8290 -0.4397  0.1738
38126SOL    HW232371   8.074  12.936   1.708  1.7015  0.5728 -0.9503
38127SOL     OW32372   7.677   9.781   8.825  0.2617 -0.0396 -0.2116
38127SOL    HW132373   7.619   9.828   8.885  0.1900  0.9448 -1.0354
38127SOL    HW232374   7.718   9.713   8.880  0.7299  1.2745  1.1429
38128SOL     OW32375   8.709   5.326   9.659  0.0152 -0.2478  0.2464
38128SOL    HW132376   8.738   5.304   9.571  1.3906  0.2516  0.5457
38128SOL    HW232377   8.615   5.308   9.659  0.5527 -3.5366 -0.2958
38129SOL     OW32378   0.986   5.296   7.941 -0.3151 -0.4232 -0.0074
38129SOL    HW132379   0.971   5.231   7.872 -1.0917 -1.3699  1.0086
38129SOL    HW232380   0.915   5.359   7.930  0.0230 -0.1282 -0.5507
38130SOL     OW32381  10.207   6.370  10.325 -0.2011  0.5497 -0.3600
38130SOL    HW132382  10.303   6.364  10.326 -0.2724 -0.8696  0.4192
38130SOL    HW232383  10.178   6.283  10.295 -1.2651  0.3203  1.2519
38131SOL     OW32384  10.987   4.877   7.162 -0.0874 -0.1223  0.5421
38131SOL    HW132385  10.952   4.965   7.157  2.0527  0.7245 -1.1308
38131SOL    HW232386  11.078   4.888   7.191  0.8661 -1.5060 -1.5917
38132SOL     OW32387   9.930   3.381   1.634  0.1547 -0.0642 -0.2982
38132SOL    HW132388   9.959   3.295   1.664 -4.2721 -1.3096  1.0798
38132SOL    HW232389   9.954   3.384   1.542  0.9543 -2.4911 -0.2351
38133SOL     OW32390   4.752  11.537  13.025  0.0616  0.2363  0.1565
38133SOL    HW132391   4.822  11.473  13.042  0.1760  0.2088 -0.4264
38133SOL    HW232392   4.703  11.500  12.952  0.9583  1.4839 -1.1250
38134SOL     OW32393   7.154  11.855  12.106  0.2172  0.1942 -0.0830
38134SOL    HW132394   7.170  11.917  12.035  1.4937 -0.0631 -0.0463
38134SOL    HW232395   7.179  11.902  12.186  1.2233 -0.3712 -0.0583
38135SOL     OW32396   2.926   5.844   6.652 -0.1764  0.3914  0.0182
38135SOL    HW132397   2.890   5.786   6.719  0.3237 -0.7781 -0.7083
38135SOL    HW232398   3.013   5.809   6.634  1.0783  2.6863  1.1591
38136SOL     OW32399   5.842   0.583   4.993  0.0632 -0.1730  0.2927
38136SOL    HW132400   5.780   0.590   4.921 -0.9272 -0.6065  1.0811
38136SOL    HW232401   5.790   0.602   5.071  1.5219  2.2051  0.7747
38137SOL     OW32402   7.258   5.761  10.458 -0.2578 -0.4867 -0.0021
38137SOL    HW132403   7.294   5.729  10.375  0.4350  1.9139 -0.7146
38137SOL    HW232404   7.166   5.733  10.456 -0.0615 -1.1410 -1.2201
38138SOL     OW32405   5.778   0.470   0.910  0.3070 -0.3401 -0.2786
38138SOL    HW132406   5.861   0.510   0.885 -0.0683  0.9610  0.4457
38138SOL    HW232407   5.712   0.537   0.889 -0.3914 -0.7240  0.6030
38139SOL     OW32408   2.872   0.461   1.565 -0.3247 -0.7030  0.1416
38139SOL    HW132409   2.870   0.366   1.554  3.4866 -0.8507 -0.5621
38139SOL    HW232410   2.821   0.494   1.491  0.5177 -2.1835 -1.1548
38140SOL     OW32411   5.821  13.938  12.528 -0.3372 -0.4159 -0.2856
38140SOL    HW132412   5.895  13.936  12.468  1.5187  1.9295  1.7111
38140SOL    HW232413   5.744  13.944  12.471  1.2681  1.1872 -2.4646
38141SOL     OW32414   5.065   2.196  12.996 -0.0144 -0.4613 -0.0802
38141SOL    HW132415   5.155   2.172  13.015  0.3252 -0.8858 -2.0103
38141SOL    HW232416   5.045   2.265  13.059  1.5776 -0.4894  0.5048
38142SOL     OW32417  11.606   7.089   4.540  0.3978 -0.6709  0.4672
38142SOL    HW132418  11.688   7.077   4.492  1.0914 -2.7492  2.0099
38142SOL    HW232419  11.580   7.000   4.565 -1.7537  0.0425  0.9813
38143SOL     OW32420   7.809   5.018   2.267 -0.5899 -0.1556 -0.2396
38143SOL    HW132421   7.859   5.055   2.195 -0.8331 -1.0782 -0.9110
38143SOL    HW232422   7.737   4.971   2.224  0.0476 -1.9062  0.5144
38144SOL     OW32423  13.466   1.649   9.902 -0.1426  0.2265  0.0481
38144SOL    HW132424  13.408   1.592   9.852 -0.8445  0.4445  0.5924
38144SOL    HW232425  13.465   1.612   9.991  0.9158 -0.0354 -0.0342
38145SOL     OW32426   0.529   9.007   6.077  0.0911  0.0751 -0.0089
38145SOL    HW132427   0.492   9.072   6.137  1.5703  1.1761 -0.2332
38145SOL    HW232428   0.515   8.923   6.121  0.1303  0.7525  1.3490
38146SOL     OW32429  12.942  13.480   9.513 -0.3319  0.1321  0.0209
38146SOL    HW132430  12.886  13.466   9.589 -1.2953  0.9523 -0.5141
38146SOL    HW232431  12.911  13.417   9.448 -2.0265  1.8959 -0.9818
38147SOL     OW32432   7.726   2.643  13.873  0.2003  0.0281  0.5075
38147SOL    HW132433   7.784   2.683  13.937 -0.1231  0.1156  0.7479
38147SOL    HW232434   7.671   2.715  13.842  0.4521  0.0148  0.0236
38148SOL     OW32435   8.457   7.597   0.854 -0.2356 -0.3282 -0.4619
38148SOL    HW132436   8.405   7.554   0.786  0.5922 -1.7793 -0.2234
38148SOL    HW232437   8.544   7.607   0.815 -0.5188  1.6675 -0.6964
38149SOL     OW32438   2.828   9.632   2.233  0.6089  0.4253  0.5218
38149SOL    HW132439   2.863   9.689   2.164 -0.0976 -1.1064 -1.1885
38149SOL    HW232440   2.888   9.644   2.306  5.3426 -2.5153 -2.3743
38150SOL     OW32441  10.817   2.532   3.925 -0.7063 -0.6743 -0.4619
38150SOL    HW132442  10.728   2.504   3.947 -0.4372 -2.5774 -1.5342
38150SOL    HW232443  10.812   2.627   3.919 -2.5581 -0.7136 -0.0385
38151SOL     OW32444  13.951   2.828   0.017 -0.2314  0.1098  0.1087
38151SOL    HW132445  14.041   2.859   0.030  0.2919 -0.9061 -0.8812
38151SOL    HW232446  13.923   2.797   0.103 -0.6550  2.8709  1.0754
38152SOL     OW32447  12.086  12.655   9.740 -0.1124  0.0184 -0.1985
38152SOL    HW132448  12.177  12.663   9.713  0.6516  1.0208  2.4201
38152SOL    HW232449  12.037  12.708   9.676  1.2496  0.3327 -1.0160
38153SOL     OW32450   9.159  13.528   8.535 -0.3701  0.3576 -0.4951
38153SOL    HW132451   9.171  13.449   8.482 -2.3895  0.9746 -2.0396
38153SOL    HW232452   9.097  13.581   8.484  0.5638  2.7521  0.6933
38154SOL     OW32453   2.086   6.012   5.655  0.1341  0.3780  0.3226
38154SOL    HW132454   2.041   5.963   5.586  0.8078 -0.3686  0.4053
38154SOL    HW232455   2.016   6.045   5.711 -0.2989 -1.6477  1.0475
38155SOL     OW32456   4.118   9.398  12.547 -0.8160  0.4955  0.0996
38155SOL    HW132457   4.213   9.397  12.547 -0.8059  1.1955  0.6134
38155SOL    HW232458   4.094   9.460  12.478 -0.8825  0.9358  0.5103
38156SOL     OW32459   3.554   7.173  13.482 -0.4220 -0.1560  0.0306
38156SOL    HW132460   3.598   7.101  13.436  0.6723  1.0871 -0.9527
38156SOL    HW232461   3.610   7.249  13.467 -1.0198  0.7215  1.8744
38157SOL     OW32462   8.126   9.845   2.368  0.2611  0.5569 -0.2635
38157SOL    HW132463   8.073   9.798   2.303  0.4862 -0.0114 -0.0472
38157SOL    HW232464   8.214   9.808   2.358 -0.1924 -1.4275  2.0572
38158SOL     OW32465   1.244  10.403   1.644 -0.2964 -0.5544 -0.3619
38158SOL    HW132466   1.327  10.450   1.645 -0.5413  0.0254 -2.4328
38158SOL    HW232467   1.242  10.359   1.559 -1.9693 -0.7996 -0.2321
38159SOL     OW32468  11.851   4.002  11.834 -0.8420 -0.6411  0.0422
38159SOL    HW132469  11.781   3.982  11.771 -1.9696  2.1855  0.2401
38159SOL    HW232470  11.874   4.093  11.815  0.0502 -0.2722  2.5431
38160SOL     OW32471   8.847  12.016   2.074  0.0013 -0.3394  0.0215
38160SOL    HW132472   8.812  12.060   2.151 -1.1516 -0.4864 -0.3854
38160SOL    HW232473   8.902  11.946   2.109 -0.1091 -0.0927  0.6972
38161SOL     OW32474   2.594   4.267   6.844  0.7501 -0.3289  0.3208
38161SOL    HW132475   2.686   4.272   6.869  0.6508  1.6290  0.5149
38161SOL    HW232476   2.551   4.332   6.900 -0.5483 -0.3638 -0.5799
38162SOL     OW32477   3.214   3.801   2.622 -0.2565  0.4315  0.1632
38162SOL    HW132478   3.268   3.867   2.665  0.8816 -1.5878  2.0693
38162SOL    HW232479   3.189   3.741   2.693 -1.1598 -1.2140 -1.4656
38163SOL     OW32480   4.726   5.855  10.437  0.2843  0.0168  0.0527
38163SOL    HW132481   4.637   5.820  10.433  0.0972  0.4003  0.6344
38163SOL    HW232482   4.772   5.796  10.497 -0.1083  0.8931  1.2583
38164SOL     OW32483   0.850   3.048   2.022 -0.4545 -0.2916  0.1190
38164SOL    HW132484   0.860   3.105   1.946  0.1873  2.1584  1.9434
38164SOL    HW232485   0.810   2.969   1.986  0.8146  0.2922 -2.9312
38165SOL     OW32486   8.144   0.776   0.124  0.0181 -0.6107  0.1302
38165SOL    HW132487   8.093   0.845   0.082  0.0385 -1.2935 -1.0348
38165SOL    HW232488   8.206   0.824   0.180  0.3412  0.3383 -0.9993
38166SOL     OW32489  13.373   1.524   9.254 -0.1948  0.2954 -0.6951
38166SOL    HW132490  13.297   1.492   9.303 -0.6587 -0.2519 -1.7474
38166SOL    HW232491  13.426   1.446   9.237  1.5593  0.8746  1.5239
38167SOL     OW32492  11.732   3.404   6.553 -0.0143 -0.4416 -0.3199
38167SOL    HW132493  11.797   3.350   6.508 -1.0228 -0.6367 -1.6231
38167SOL    HW232494  11.648   3.378   6.514 -0.9975 -0.7860  1.8997
38168SOL     OW32495   2.752   3.324   0.948  0.0423  0.1978  0.0263
38168SOL    HW132496   2.674   3.276   0.921  0.1055  0.4162 -0.5520
38168SOL    HW232497   2.746   3.408   0.902  0.4688  0.3282  0.2057
38169SOL     OW32498   5.006  13.732   1.079  0.0373  0.5973 -0.9492
38169SOL    HW132499   4.919  13.767   1.062 -0.3389 -0.0950 -0.4918
38169SOL    HW232500   5.046  13.724   0.992 -1.1765 -1.1829 -1.3869
38170SOL     OW32501   0.888  13.483   2.328  0.0996  0.4220  0.0473
38170SOL    HW132502   0.907  13.401   2.282 -1.6742 -0.9924  1.6986
38170SOL    HW232503   0.793  13.489   2.329  0.1710  2.3072  0.3886
38171SOL     OW32504   0.226   0.015   8.918  0.7007 -0.6928  0.1134
38171SOL    HW132505   0.154   0.045   8.973  0.2786 -0.6963 -0.4322
38171SOL    HW232506   0.300   0.069   8.944 -0.1687  1.2463 -1.2187
38172SOL     OW32507   0.998  12.271   0.278  0.3254 -0.1113  0.7064
38172SOL    HW132508   0.975  12.326   0.352  0.3305  1.1731 -0.2027
38172SOL    HW232509   1.074  12.314   0.239 -0.5725  0.1047 -0.9001
38173SOL     OW32510  13.448  10.026   3.151 -0.4478  0.3908  0.8157
38173SOL    HW132511  13.420  10.022   3.242 -0.7421  0.3217  0.7244
38173SOL    HW232512  13.482   9.938   3.133  0.7423  0.7586  1.2101
38174SOL     OW32513  12.650   0.112   9.526  0.1968  0.0044 -0.1568
38174SOL    HW132514  12.566   0.109   9.571  1.3331  0.1848  2.0946
38174SOL    HW232515  12.683   0.200   9.541  1.0170 -0.2103 -0.5913
38175SOL     OW32516   2.751   0.385  13.509 -0.1148 -0.0790  0.1079
38175SOL    HW132517   2.767   0.307  13.562  1.4491  0.6271  0.7400
38175SOL    HW232518   2.692   0.438  13.563  0.1859 -0.0776  0.4442
38176SOL     OW32519   4.489   1.769   1.145  0.1238  0.4861  0.4330
38176SOL    HW132520   4.510   1.725   1.063 -0.7743  0.3358  0.2759
38176SOL    HW232521   4.424   1.713   1.187 -0.6671  1.4110  0.4675
38177SOL     OW32522  14.028  11.313   1.044 -0.7726 -0.2571  0.8828
38177SOL    HW132523  14.023  11.342   1.136 -1.2167  1.3409  0.3840
38177SOL    HW232524  13.945  11.269   1.028 -0.6096 -0.7238  1.3088
38178SOL     OW32525   2.153   1.385   1.388 -0.4347 -0.5331 -0.3030
38178SOL    HW132526   2.071   1.414   1.350  0.5045  0.3237 -1.7516
38178SOL    HW232527   2.214   1.379   1.314  1.1421  0.0471  0.8847
38179SOL     OW32528  11.386   9.215  12.710 -0.2187 -0.0883 -0.3091
38179SOL    HW132529  11.445   9.140  12.699  0.9505  0.6240  0.8278
38179SOL    HW232530  11.427   9.284  12.658  0.7480  0.8159  1.5856
38180SOL     OW32531   6.471  13.771  12.403 -0.1056  0.0359  0.1011
38180SOL    HW132532   6.540  13.718  12.364  1.5171  1.9865  0.1561
38180SOL    HW232533   6.516  13.826  12.467 -2.0686 -0.1197  1.7367
38181SOL     OW32534   8.868   7.230  10.646 -0.3304 -0.3957 -0.2735
38181SOL    HW132535   8.817   7.180  10.710  2.8972 -2.2295  1.0659
38181SOL    HW232536   8.959   7.209  10.666  0.9432  1.0199 -3.8621
38182SOL     OW32537  10.386   1.528   8.009  0.6915  0.3149 -0.2006
38182SOL    HW132538  10.317   1.594   8.011  0.5877  0.2027 -0.0986
38182SOL    HW232539  10.343   1.447   8.037  1.4795  0.8095  2.8052
38183SOL     OW32540   1.932   8.157   1.422  0.1686  0.5815 -0.5647
38183SOL    HW132541   1.912   8.251   1.431  0.1297  0.8090 -2.5304
38183SOL    HW232542   1.972   8.133   1.505 -0.8205  2.0801  0.3969
38184SOL     OW32543   5.465   9.676   3.731  0.2152 -0.4226  0.2949
38184SOL    HW132544   5.498   9.588   3.710 -0.2785  0.1066 -3.5747
38184SOL    HW232545   5.534   9.735   3.701 -0.3320  0.5348  0.9031
38185SOL     OW32546  11.955   2.253   2.890  0.5742 -0.1082 -0.2788
38185SOL    HW132547  11.893   2.325   2.874  0.1698 -0.1737  0.9098
38185SOL    HW232548  11.915   2.202   2.960  1.9353 -0.2101  0.4502
38186SOL     OW32549   8.107  12.911   4.971 -0.0683  0.2597  0.1590
38186SOL    HW132550   8.081  12.823   4.998  2.2336 -0.1525  1.2405
38186SOL    HW232551   8.025  12.954   4.949 -1.2943 -2.0437 -0.1051
38187SOL     OW32552   4.918   4.413   5.358 -0.2102 -0.2493  0.6364
38187SOL    HW132553   4.937   4.500   5.323 -1.0577 -0.6419 -0.9316
38187SOL    HW232554   4.842   4.384   5.308  0.1006 -1.9158  1.0696
38188SOL     OW32555   2.369   8.580   3.610  0.3545  0.4120 -0.0854
38188SOL    HW132556   2.284   8.581   3.565 -0.3487  2.3943  1.1506
38188SOL    HW232557   2.417   8.654   3.572  1.3418 -0.3457 -0.3696
38189SOL     OW32558   4.000  10.427   0.006 -0.0929  0.2592 -0.0935
38189SOL    HW132559   3.913  10.468   0.006 -0.3987 -0.3435 -1.4001
38189SOL    HW232560   4.059  10.496  -0.022 -0.6429 -0.1578 -2.5678
38190SOL     OW32561   6.329  10.225   6.898  0.0737  0.4304 -0.3187
38190SOL    HW132562   6.244  10.268   6.893 -0.2182 -0.2605 -2.6161
38190SOL    HW232563   6.308  10.132   6.911  0.3740  0.1280 -1.7431
38191SOL     OW32564  14.054  11.164  11.888  0.6852 -0.0332  0.3053
38191SOL    HW132565  14.066  11.223  11.962  1.5560 -0.2927  0.3837
38191SOL    HW232566  14.132  11.109  11.889  1.3066  0.7435 -1.5181
38192SOL     OW32567   8.386   9.171   1.091  0.3506  0.3161 -0.0962
38192SOL    HW132568   8.356   9.256   1.059  1.2486 -0.2238 -2.6323
38192SOL    HW232569   8.474   9.187   1.124  0.4113  0.4346 -0.3128
38193SOL     OW32570   0.193   5.769   5.233 -0.1673  0.3436  0.3501
38193SOL    HW132571   0.213   5.807   5.318  1.1081  2.3025 -0.7374
38193SOL    HW232572   0.117   5.713   5.249  0.7615 -0.3088  2.9639
38194SOL     OW32573  13.126   4.556   0.334  0.6506  0.0549 -0.4880
38194SOL    HW132574  13.087   4.540   0.248 -0.4828  0.4328 -0.0560
38194SOL    HW232575  13.072   4.624   0.373  0.0835 -1.3075  1.2240
38195SOL     OW32576  13.386   2.581  11.009 -0.2124  0.3507 -0.2968
38195SOL    HW132577  13.381   2.676  11.024  0.4342  0.2092  0.9608
38195SOL    HW232578  13.374   2.542  11.096 -1.8248 -0.8010 -0.9877
38196SOL     OW32579   1.103  12.982   3.034  1.0026  0.0604  0.3738
38196SOL    HW132580   1.080  13.046   2.966 -0.0366  0.1075  0.7541
38196SOL    HW232581   1.041  13.000   3.105  1.8931 -0.1775  1.2190
38197SOL     OW32582   3.439  13.291   9.600 -0.3000  0.0013 -0.2982
38197SOL    HW132583   3.464  13.282   9.692 -0.6372  1.2429 -0.0569
38197SOL    HW232584   3.521  13.314   9.556 -0.1531 -0.5128 -0.2972
38198SOL     OW32585  11.828   5.949   3.986 -0.3485 -0.4696  0.4714
38198SOL    HW132586  11.898   5.895   3.949  1.0257 -0.2022  2.5381
38198SOL    HW232587  11.747   5.912   3.949  0.6373 -3.0594  0.7292
38199SOL     OW32588  11.293   5.038  12.721  0.3878 -0.2703 -0.2242
38199SOL    HW132589  11.380   5.000  12.707  0.7195  0.2013  0.4671
38199SOL    HW232590  11.311   5.131  12.735 -0.0787 -0.3913  1.3228
38200SOL     OW32591  11.672   9.903   7.227 -0.3215  0.5578 -0.1897
38200SOL    HW132592  11.749   9.884   7.174  0.0178  0.3122  0.3822
38200SOL    HW232593  11.649   9.993   7.205 -0.2335  0.4327 -0.8068
38201SOL     OW32594  11.214   1.062   4.473  0.2334  0.1932  0.6130
38201SOL    HW132595  11.119   1.068   4.464  0.1593 -1.7499 -0.5199
38201SOL    HW232596  11.230   1.060   4.567 -0.8842  0.0993  0.8119
38202SOL     OW32597  13.938   0.545  13.523  0.0685  0.0177  0.1965
38202SOL    HW132598  14.000   0.606  13.563 -0.2969  0.4445  0.1165
38202SOL    HW232599  13.940   0.469  13.581  0.4191  0.1582  0.3773
38203SOL     OW32600   1.982   0.277   7.022  0.4441  0.5688 -0.1928
38203SOL    HW132601   2.048   0.207   7.019  1.3140  1.3178  0.9069
38203SOL    HW232602   1.921   0.255   6.951  0.6280 -1.3675  0.1923
38204SOL     OW32603   5.273  10.883   3.161  0.0105  0.2723  0.5317
38204SOL    HW132604   5.297  10.964   3.116  1.7329 -0.3066  0.3442
38204SOL    HW232605   5.220  10.835   3.097 -1.1033  1.2483  0.6762
38205SOL     OW32606   5.531   9.929   0.081 -0.4029  0.2549  0.3760
38205SOL    HW132607   5.558   9.922   0.172 -0.7833 -2.6714  0.3322
38205SOL    HW232608   5.613   9.938   0.032 -0.0654 -0.2691  0.8404
38206SOL     OW32609   3.392   1.881   9.226  0.3372 -0.6212 -0.3483
38206SOL    HW132610   3.367   1.896   9.135  1.8149  1.0051 -0.5298
38206SOL    HW232611   3.418   1.967   9.258 -0.1139 -1.1748  1.6199
38207SOL     OW32612   4.637  10.854  10.903  0.1275  0.0530  0.2523
38207SOL    HW132613   4.588  10.935  10.921  0.2730  0.0258  0.7792
38207SOL    HW232614   4.699  10.847  10.975  0.1186 -0.5301  0.2047
38208SOL     OW32615  12.259   2.558   3.923 -0.0661  0.5284  0.2368
38208SOL    HW132616  12.333   2.512   3.963 -1.2707 -2.2252 -0.4308
38208SOL    HW232617  12.298   2.633   3.878  2.3906 -1.0718 -0.4845
38209SOL     OW32618   7.925   9.242   0.069  0.3732 -0.3234  0.3561
38209SOL    HW132619   7.937   9.170   0.130 -1.4230 -2.3079 -1.4739
38209SOL    HW232620   7.830   9.248   0.057  0.3330  3.0816  1.1598
38210SOL     OW32621   7.050   6.290   3.187  1.0065 -0.0872 -0.1113
38210SOL    HW132622   6.989   6.365   3.190 -0.6864 -1.4003 -0.1238
38210SOL    HW232623   7.074   6.276   3.278  2.4238  1.2727 -0.2316
38211SOL     OW32624   4.504   4.995   3.310  0.0443 -0.3078 -0.1762
38211SOL    HW132625   4.562   4.950   3.249 -0.0977 -1.1727  0.3047
38211SOL    HW232626   4.432   5.027   3.256  1.1035  1.0602 -0.8269
38212SOL     OW32627  10.041   2.341  13.299 -0.3177 -0.2079  0.0311
38212SOL    HW132628  10.128   2.336  13.337  0.2799  1.2404 -1.0896
38212SOL    HW232629   9.983   2.308  13.369  1.1375 -1.8117  0.5620
38213SOL     OW32630  12.943   2.898   3.740  0.4764 -0.1481  0.2573
38213SOL    HW132631  12.889   2.962   3.693  0.6071  1.0631  1.7033
38213SOL    HW232632  13.006   2.869   3.674  1.2987  2.2640 -0.1407
38214SOL     OW32633   0.003   2.455   6.213 -0.5205 -0.7401 -0.2856
38214SOL    HW132634   0.040   2.418   6.133  0.5831 -0.0125 -0.1174
38214SOL    HW232635   0.056   2.419   6.283  1.0142  1.5826 -0.1452
38215SOL     OW32636  12.500   4.552  13.456 -0.2928 -0.1101  0.1603
38215SOL    HW132637  12.430   4.495  13.423  0.0659  0.0672 -0.9624
38215SOL    HW232638  12.457   4.635  13.473 -0.8238 -0.6753  1.8188
38216SOL     OW32639  10.070  11.410   2.620 -0.1727  0.6157 -0.1331
38216SOL    HW132640  10.150  11.453   2.651  1.1915 -1.3647 -0.6948
38216SOL    HW232641  10.052  11.450   2.536  0.9020  0.3166 -0.5168
38217SOL     OW32642   7.304   6.055   0.591 -0.5916 -0.2799 -0.3369
38217SOL    HW132643   7.374   6.117   0.574 -0.3534 -0.3613  0.3416
38217SOL    HW232644   7.325   5.979   0.537  0.6516 -0.9013  0.9826
38218SOL     OW32645   1.058   4.852  11.596 -0.0958  0.0721 -0.3005
38218SOL    HW132646   1.009   4.923  11.554  1.6529  1.6051  0.0779
38218SOL    HW232647   1.048   4.778  11.536 -0.8786  1.0400 -1.4278
38219SOL     OW32648   5.608  13.293  10.842  0.4396  0.1307  0.0716
38219SOL    HW132649   5.663  13.371  10.836 -1.0370  1.1647 -1.1578
38219SOL    HW232650   5.637  13.248  10.921  1.9421  1.4505  0.3151
38220SOL     OW32651   5.743   3.617   2.886  0.3471 -0.1058  0.6567
38220SOL    HW132652   5.816   3.566   2.852  1.0401 -0.5261  2.6403
38220SOL    HW232653   5.775   3.708   2.885  0.6630 -0.2113  0.9100
38221SOL     OW32654   7.015   0.628  11.794  0.1182  0.3864  0.0515
38221SOL    HW132655   6.972   0.571  11.858 -1.6633 -1.5713 -2.6756
38221SOL    HW232656   6.950   0.694  11.772  0.3981  0.5264 -0.3764
38222SOL     OW32657   5.901   8.275  11.529 -0.2521 -0.6836  0.2516
38222SOL    HW132658   5.842   8.311  11.463 -2.1988 -1.7476  1.3246
38222SOL    HW232659   5.926   8.351  11.582 -2.5085 -0.4556  1.1249
38223SOL     OW32660   6.789  12.620   2.279  0.1708  0.1920 -0.4074
38223SOL    HW132661   6.820  12.530   2.291  1.6555  0.7475  0.2607
38223SOL    HW232662   6.712  12.613   2.223 -0.4825 -1.6006  0.6626
38224SOL     OW32663   3.651  13.012   6.129  0.5536  0.2155  0.0456
38224SOL    HW132664   3.621  12.940   6.185  1.2230 -0.4812 -0.4646
38224SOL    HW232665   3.571  13.057   6.102  0.0009 -1.1659 -0.7090
38225SOL     OW32666   8.203  12.735  10.391 -0.6210  0.1828  0.3219
38225SOL    HW132667   8.177  12.799  10.325 -0.8563  0.1743  0.4064
38225SOL    HW232668   8.237  12.787  10.464 -1.3116  0.2373  0.6108
38226SOL     OW32669   0.123   6.561   3.652  0.2336 -0.6682  0.2227
38226SOL    HW132670   0.062   6.590   3.584 -0.3478 -0.9855  0.6047
38226SOL    HW232671   0.077   6.577   3.734  1.0742  0.0421  0.5699
38227SOL     OW32672  13.684   9.099   9.662  0.1208 -0.3271 -0.6124
38227SOL    HW132673  13.669   9.192   9.676 -1.2021 -0.6448  0.2996
38227SOL    HW232674  13.699   9.091   9.568  0.1478  0.7804 -0.7192
38228SOL     OW32675   0.002  14.063   5.403  0.2395 -0.1825 -0.2693
38228SOL    HW132676  -0.019  14.140   5.350  1.8045  0.5349  0.1147
38228SOL    HW232677  -0.081  14.042   5.446 -0.9291 -0.4280 -2.4885
38229SOL     OW32678   4.851  12.822   8.006 -0.1859 -0.3400 -0.4152
38229SOL    HW132679   4.763  12.855   7.986 -0.4525 -0.7183  0.1099
38229SOL    HW232680   4.882  12.878   8.078  0.3803  0.3916 -1.2139
38230SOL     OW32681   8.952   3.194  11.325  0.0522  0.1575  0.1167
38230SOL    HW132682   9.014   3.230  11.388 -0.5102 -0.8827  1.3195
38230SOL    HW232683   8.988   3.108  11.302 -1.3736 -0.9157  1.6161
38231SOL     OW32684   4.078  11.449   6.145 -0.6330  0.2692  0.4624
38231SOL    HW132685   3.997  11.498   6.130 -0.0502  0.5194 -2.3354
38231SOL    HW232686   4.049  11.363   6.176 -1.8907  0.7138  0.5882
38232SOL     OW32687   2.030   0.359  10.555  0.0576  0.2177 -0.5509
38232SOL    HW132688   2.008   0.364  10.462  0.7893  0.9800 -0.6974
38232SOL    HW232689   1.970   0.293  10.590 -0.8251  0.5420 -1.3857
38233SOL     OW32690   3.508   2.460   1.207 -0.0166  0.3194  0.0323
38233SOL    HW132691   3.462   2.479   1.288 -0.4384 -1.6027  0.2920
38233SOL    HW232692   3.505   2.364   1.199  0.5275  0.4135 -1.9435
38234SOL     OW32693  10.810  13.115   7.949 -0.2333 -0.2237  0.6968
38234SOL    HW132694  10.765  13.194   7.979  1.3195  0.8123  0.4349
38234SOL    HW232695  10.894  13.117   7.995 -0.5756 -2.3173  1.4960
38235SOL     OW32696   3.093  10.761   5.792  0.5991  0.3857 -0.0758
38235SOL    HW132697   3.057  10.718   5.715  0.5824  0.9000 -0.3570
38235SOL    HW232698   3.020  10.812   5.828  0.8091  0.7526 -0.1593
38236SOL     OW32699   0.282  11.397   2.398  0.0667 -0.3188  0.3109
38236SOL    HW132700   0.309  11.316   2.354 -1.4840 -0.0898 -1.1644
38236SOL    HW232701   0.340  11.464   2.361  1.3448 -0.7112  1.5265
38237SOL     OW32702   9.283   5.120   1.242 -0.1837 -0.0871  0.6764
38237SOL    HW132703   9.274   5.097   1.335 -2.4857  2.0460  1.0841
38237SOL    HW232704   9.225   5.060   1.196 -0.2516 -0.1171  0.8010
38238SOL     OW32705   8.189   1.254   7.758  0.3994 -0.1585 -0.0993
38238SOL    HW132706   8.152   1.167   7.744 -0.8368  0.7395 -3.3751
38238SOL    HW232707   8.216   1.283   7.671  1.4555  2.4581  0.9918
38239SOL     OW32708   5.408   1.956   5.421 -0.1597  0.4985  0.4560
38239SOL    HW132709   5.412   2.006   5.503 -1.3806  0.9555  0.2576
38239SOL    HW232710   5.318   1.925   5.417 -0.3154  1.0641 -1.0445
38240SOL     OW32711   8.701   9.185  13.374 -0.4117  0.4381  0.0644
38240SOL    HW132712   8.685   9.135  13.454 -2.2958  1.7245  0.5464
38240SOL    HW232713   8.752   9.261  13.403 -1.7040  1.2785  0.2176
38241SOL     OW32714   8.802  11.645   2.899 -0.8100 -0.2908 -0.2668
38241SOL    HW132715   8.861  11.695   2.955 -1.0898 -0.4371  0.1559
38241SOL    HW232716   8.737  11.709   2.870  0.4760  0.2818 -2.0867
38242SOL     OW32717   4.970   0.053  11.603  0.5916  0.0835  0.1761
38242SOL    HW132718   5.040   0.033  11.540  1.1264 -1.3511  1.1778
38242SOL    HW232719   5.016   0.068  11.686 -0.0691  2.4521  0.1658
38243SOL     OW32720  11.259   8.686  10.022  0.0796  0.3495  0.2448
38243SOL    HW132721  11.183   8.733  10.055 -0.1332 -0.5288  1.0528
38243SOL    HW232722  11.265   8.608  10.078  0.2552 -0.7317 -1.2224
38244SOL     OW32723   9.537  10.112   4.847  0.3581  0.2110 -0.2720
38244SOL    HW132724   9.610  10.096   4.907  0.3888 -1.6275 -0.7376
38244SOL    HW232725   9.566  10.186   4.793  0.0851  2.3148  2.2835
38245SOL     OW32726   9.511   5.594  12.679 -0.9814 -0.0255  0.1754
38245SOL    HW132727   9.581   5.597  12.614 -1.3256  0.5969 -0.1754
38245SOL    HW232728   9.499   5.685  12.706 -2.7024  0.1152 -0.9037
38246SOL     OW32729   0.093   6.635   4.965  0.0062 -0.4793  0.3991
38246SOL    HW132730   0.125   6.691   4.895  0.7775 -0.1682  0.9918
38246SOL    HW232731   0.034   6.691   5.016  1.3852  0.0575  1.4540
38247SOL     OW32732  11.299   7.795   0.462  0.0839 -0.5632 -0.1568
38247SOL    HW132733  11.223   7.796   0.521 -0.3490  0.5579 -0.7012
38247SOL    HW232734  11.369   7.756   0.513 -0.7630 -1.2820  0.4878
38248SOL     OW32735   9.537  11.746   9.062  0.3280 -0.1854 -0.2300
38248SOL    HW132736   9.527  11.741   8.967  0.0279 -0.0174 -0.2080
38248SOL    HW232737   9.626  11.715   9.078  0.3099 -0.4068 -0.5482
38249SOL     OW32738   7.763   1.009  10.843  0.4855 -0.1745  0.5072
38249SOL    HW132739   7.711   1.054  10.777 -0.2666  0.8490  1.7660
38249SOL    HW232740   7.801   1.079  10.896  0.8903 -0.9728  1.2983
38250SOL     OW32741   2.765  11.152   9.787 -0.3828  0.1114 -0.1786
38250SOL    HW132742   2.797  11.157   9.697  1.4920  1.7755  0.4996
38250SOL    HW232743   2.835  11.110   9.836 -0.7343  0.5750  0.7636
38251SOL     OW32744   5.212   5.090  10.093 -0.7664 -0.7899 -0.6902
38251SOL    HW132745   5.305   5.106  10.079 -0.9942  0.7381 -0.6791
38251SOL    HW232746   5.179   5.069  10.006 -0.8893  1.5837 -1.3020
38252SOL     OW32747   4.997   4.247   1.357  0.2376 -0.5134  0.0140
38252SOL    HW132748   5.002   4.259   1.452  0.5242 -0.5231 -0.0007
38252SOL    HW232749   4.903   4.255   1.337  0.3058  0.8994  0.1143
38253SOL     OW32750  14.098  10.893   0.717 -0.5105 -0.1183  0.3579
38253SOL    HW132751  14.127  10.982   0.735 -0.6463  0.0437 -0.2089
38253SOL    HW232752  14.045  10.900   0.638 -0.4489 -0.7160  0.2562
38254SOL     OW32753  13.841   3.075  14.150  0.5324 -0.0527  0.5193
38254SOL    HW132754  13.753   3.043  14.130 -0.2899  1.4249  1.5919
38254SOL    HW232755  13.896   2.996  14.146 -1.2480 -1.5149  2.3235
38255SOL     OW32756   9.371   6.488   7.423 -0.1137  0.1843 -0.3446
38255SOL    HW132757   9.452   6.460   7.381  0.6006  1.6508  0.0083
38255SOL    HW232758   9.395   6.565   7.474 -1.4261 -0.2171  0.9670
38256SOL     OW32759   6.977   5.015   0.159 -0.1087 -0.1329  0.3176
38256SOL    HW132760   6.954   5.102   0.124 -0.4172 -0.5697 -0.5932
38256SOL    HW232761   7.010   5.033   0.247  0.6100  1.0003 -0.1494
38257SOL     OW32762   5.827   8.190   5.168  0.4151 -0.8241 -0.3599
38257SOL    HW132763   5.887   8.264   5.159 -0.9076  0.2559 -0.5882
38257SOL    HW232764   5.863   8.122   5.110  1.5579 -0.3206 -0.2645
38258SOL     OW32765   9.374   9.289   7.701 -0.0241 -0.4832 -0.0131
38258SOL    HW132766   9.308   9.343   7.658  1.2427  0.5101 -0.8030
38258SOL    HW232767   9.329   9.249   7.775 -0.8485  2.3131  1.1240
38259SOL     OW32768   8.075  12.096   8.365 -0.0353  0.1643 -0.8850
38259SOL    HW132769   8.025  12.125   8.442  0.9746 -0.1155 -0.0946
38259SOL    HW232770   8.027  12.019   8.333 -0.9783  0.8297 -1.1096
38260SOL     OW32771   4.883   0.606  10.299  0.0348 -0.0369  0.2537
38260SOL    HW132772   4.900   0.671  10.368 -1.3679  1.1144 -0.4218
38260SOL    HW232773   4.903   0.653  10.217  0.6686 -1.0409 -0.1802
38261SOL     OW32774  13.898  11.734  12.027  0.0168  0.1699  0.2082
38261SOL    HW132775  13.906  11.656  11.972  1.5170  1.4445 -1.5065
38261SOL    HW232776  13.979  11.735  12.078 -0.2748  0.2817  0.6656
38262SOL     OW32777   9.890   8.093  12.964  0.1936 -0.8715  0.3653
38262SOL    HW132778   9.896   8.121  13.055  1.0699  2.3595 -0.5494
38262SOL    HW232779   9.946   8.016  12.958 -0.6559 -1.7549  2.6871
38263SOL     OW32780   4.342   1.628   9.483 -0.1931 -0.1995 -0.4312
38263SOL    HW132781   4.289   1.552   9.504  0.2539 -0.0921  1.1952
38263SOL    HW232782   4.376   1.658   9.567 -0.1933  1.6797 -1.0470
38264SOL     OW32783  11.547  10.767  12.008 -0.1502 -0.5544 -0.1155
38264SOL    HW132784  11.592  10.816  11.938  0.6952  0.3899  1.0416
38264SOL    HW232785  11.616  10.748  12.072 -0.9208 -1.3473  0.4979
38265SOL     OW32786   0.178   3.087   2.373 -0.4794  0.1095  0.6932
38265SOL    HW132787   0.094   3.098   2.418 -1.3025  2.1647 -1.1827
38265SOL    HW232788   0.239   3.142   2.422 -1.1272  1.5055 -0.0096
38266SOL     OW32789   5.154  11.388  12.262 -0.1866  0.4262  0.8374
38266SOL    HW132790   5.143  11.293  12.272 -0.2738  0.2705 -0.6030
38266SOL    HW232791   5.246  11.403  12.282  0.1631 -0.1679 -0.2431
38267SOL     OW32792  12.927   8.361  10.726  0.4128  0.4504  0.2385
38267SOL    HW132793  12.976   8.359  10.808  1.4931  0.8239 -0.3768
38267SOL    HW232794  12.844   8.317  10.747  1.6449 -1.7280  0.9145
38268SOL     OW32795  11.288   3.994   9.456 -0.2466  0.8875  0.1035
38268SOL    HW132796  11.363   3.945   9.489 -0.6487  0.4345  0.3561
38268SOL    HW232797  11.215   3.931   9.458 -0.8889  1.6344  0.9040
38269SOL     OW32798  12.858   9.583   2.502  0.2081 -0.3376 -0.2431
38269SOL    HW132799  12.811   9.504   2.527  1.3027 -0.5672  1.1803
38269SOL    HW232800  12.934   9.552   2.454 -0.3564 -0.0240 -1.3887
38270SOL     OW32801  10.426   3.841   8.274  0.2309  0.4508 -0.3729
38270SOL    HW132802  10.365   3.797   8.214  0.8084 -0.4766 -0.2881
38270SOL    HW232803  10.478   3.771   8.312  0.1291  1.0639  0.9506
38271SOL     OW32804  13.911   8.028   1.799  0.2137 -0.0528 -0.0274
38271SOL    HW132805  13.884   8.060   1.885  2.3706  1.1350  0.2698
38271SOL    HW232806  14.007   8.023   1.804  0.4369  0.5110 -2.5084
38272SOL     OW32807   8.928  12.515   4.924 -0.1248  0.2828 -0.0634
38272SOL    HW132808   8.976  12.586   4.965 -0.7934  1.1872 -0.8002
38272SOL    HW232809   8.980  12.437   4.942  0.9783  1.0530  0.1644
38273SOL     OW32810  12.080  13.921  11.015  0.5319 -0.3544 -0.0975
38273SOL    HW132811  12.119  13.835  10.996  0.8503 -0.3442  0.5011
38273SOL    HW232812  12.096  13.934  11.108  2.5953  1.3900 -0.6166
38274SOL     OW32813   9.643  10.188   1.869 -0.0773  0.2933  0.6431
38274SOL    HW132814   9.630  10.280   1.893 -0.4593  0.5003 -0.3070
38274SOL    HW232815   9.555  10.150   1.869  0.0082  0.0939  0.3683
38275SOL     OW32816   8.136  12.758   4.548  0.1499  0.3687 -0.1397
38275SOL    HW132817   8.071  12.792   4.487  0.4439  1.8802  0.3485
38275SOL    HW232818   8.197  12.830   4.560  0.1171  0.1004  1.9064
38276SOL     OW32819  12.345  12.311   1.437  0.4324 -0.0875  0.4186
38276SOL    HW132820  12.419  12.294   1.496 -0.4067  0.1544  1.5633
38276SOL    HW232821  12.286  12.237   1.450  0.4032 -0.2274 -0.4143
38277SOL     OW32822   3.963   6.923   8.996  0.2966 -0.1764  0.0005
38277SOL    HW132823   4.048   6.878   9.000  1.5390  1.7752 -1.8807
38277SOL    HW232824   3.937   6.917   8.905 -0.6887  0.8119  0.1985
38278SOL     OW32825   2.092   0.552   6.186  0.4327  0.1911 -0.5638
38278SOL    HW132826   2.111   0.477   6.130  0.3871 -0.9592  0.9168
38278SOL    HW232827   1.996   0.557   6.187  0.3601 -0.8759  0.7446
38279SOL     OW32828  13.141   5.585   4.002  0.2979  0.2940 -0.2661
38279SOL    HW132829  13.145   5.532   3.923  6.0558 -3.3826  1.8123
38279SOL    HW232830  13.194   5.662   3.982 -2.2598  1.9384 -1.1785
38280SOL     OW32831  13.025   0.600   6.379  0.2870 -0.2249  0.3218
38280SOL    HW132832  13.112   0.624   6.346 -0.0202  0.4284 -0.0364
38280SOL    HW232833  13.036   0.511   6.411  1.3151  0.1547  1.1023
38281SOL     OW32834   1.082  13.462  13.255  0.1893  0.2454  0.3121
38281SOL    HW132835   1.099  13.436  13.346  1.9997  1.5388  0.4026
38281SOL    HW232836   1.133  13.400  13.203  0.8039  0.7392  0.3080
38282SOL     OW32837   0.261   9.982   4.072  0.3964 -0.0596  0.8805
38282SOL    HW132838   0.240  10.052   4.135 -0.7690  0.2977  0.1090
38282SOL    HW232839   0.357   9.983   4.068  0.4206  1.1641  1.2583
38283SOL     OW32840   4.017   3.971   1.270  0.2325  0.6176  0.2209
38283SOL    HW132841   3.944   4.027   1.243 -0.3874 -0.4240 -0.3189
38283SOL    HW232842   4.095   4.020   1.247 -0.2909  0.6670 -1.5912
38284SOL     OW32843   6.969  11.682   5.607 -0.2725 -0.1562 -0.2487
38284SOL    HW132844   7.054  11.658   5.644  0.8465  0.3664 -2.3156
38284SOL    HW232845   6.908  11.618   5.645  1.2367 -1.2995  0.3848
38285SOL     OW32846   9.151  10.745  13.870 -0.0907  0.3028  0.9198
38285SOL    HW132847   9.205  10.764  13.947  0.9016 -0.2355  0.3766
38285SOL    HW232848   9.186  10.663  13.836  0.4286  1.2381 -0.9182
38286SOL     OW32849  10.028  10.293   8.741 -0.5882  0.1439  0.0808
38286SOL    HW132850   9.991  10.374   8.707 -0.0999  1.5036  2.6176
38286SOL    HW232851  10.051  10.312   8.831  4.6357 -1.1218 -0.6751
38287SOL     OW32852   2.976  11.851  12.004 -0.1646 -0.2967 -0.2660
38287SOL    HW132853   2.910  11.893  12.059 -0.4485 -1.4138  0.2652
38287SOL    HW232854   3.059  11.869  12.048 -0.3238 -0.6069  0.1696
38288SOL     OW32855   5.360   5.676   4.802 -0.5138 -0.0775  0.0572
38288SOL    HW132856   5.314   5.757   4.781  1.0769  1.0125  0.5677
38288SOL    HW232857   5.435   5.675   4.743  0.4173 -0.2823  1.1944
38289SOL     OW32858  13.721   1.693   5.091  0.1152 -0.4147 -0.2384
38289SOL    HW132859  13.753   1.701   5.181 -0.9648  0.5591  0.0748
38289SOL    HW232860  13.787   1.638   5.047  1.1007 -0.1901  0.9128
38290SOL     OW32861   5.396   0.135   0.781  0.2544 -0.0563 -0.3614
38290SOL    HW132862   5.412   0.168   0.693  1.6449  0.2628 -0.0091
38290SOL    HW232863   5.458   0.182   0.836 -0.7425 -0.0923  0.8356
38291SOL     OW32864   9.287   2.563  11.465 -0.7618 -0.0522 -0.9970
38291SOL    HW132865   9.233   2.562  11.386  2.2907  0.6312 -3.2554
38291SOL    HW232866   9.318   2.473  11.475 -1.3375 -0.1939 -0.3593
38292SOL     OW32867   3.976   3.456   8.025 -0.3388 -0.1502  0.1004
38292SOL    HW132868   3.915   3.522   8.059  0.9564 -0.1141  2.5984
38292SOL    HW232869   4.021   3.500   7.953  0.5747  1.8626  1.7668
38293SOL     OW32870  12.758  11.643   7.895 -0.4163 -0.3497  0.3653
38293SOL    HW132871  12.722  11.575   7.952  1.0281 -2.0199 -0.6136
38293SOL    HW232872  12.682  11.676   7.845 -1.1950 -0.9807  1.1122
38294SOL     OW32873   9.083   9.069   2.933  0.7089  0.2140  0.1467
38294SOL    HW132874   9.112   9.100   2.847 -0.4873  0.1163 -0.3051
38294SOL    HW232875   9.089   8.974   2.926 -0.1268  0.1744 -0.1053
38295SOL     OW32876   1.872   3.459  12.254 -0.5867 -0.1694 -0.3542
38295SOL    HW132877   1.919   3.378  12.237  0.3131  0.4810 -1.1371
38295SOL    HW232878   1.928   3.507  12.315 -1.2860 -0.2840  0.3895
38296SOL     OW32879   5.733   2.136  10.502  0.8166 -0.0525 -0.1719
38296SOL    HW132880   5.713   2.111  10.592 -0.0343 -0.3235 -0.4296
38296SOL    HW232881   5.782   2.218  10.511  0.3527  0.1618  0.5207
38297SOL     OW32882   0.912   6.348   9.158  0.0469 -0.1874  0.3105
38297SOL    HW132883   0.931   6.439   9.178  1.3350 -0.2262 -0.5849
38297SOL    HW232884   0.891   6.347   9.065 -2.0705 -0.5346  0.7391
38298SOL     OW32885   5.977   0.175  10.456  0.3360 -0.1781 -0.1980
38298SOL    HW132886   6.057   0.141  10.415 -0.8329 -0.9251 -1.9498
38298SOL    HW232887   5.972   0.129  10.540  2.7098  1.2851  0.8884
38299SOL     OW32888   6.972   5.698   2.593  0.1503 -0.2633 -0.3364
38299SOL    HW132889   6.947   5.679   2.502  0.3776 -1.2947 -0.1919
38299SOL    HW232890   7.045   5.639   2.610 -0.5709 -0.8361  0.8597
38300SOL     OW32891   3.557   8.499  12.368  0.3298  0.6546 -0.1924
38300SOL    HW132892   3.501   8.549  12.428  0.2446  0.2819  0.0444
38300SOL    HW232893   3.600   8.565  12.315 -2.3892  0.9309 -2.2929
38301SOL     OW32894   1.578   1.926   8.334  0.4073 -0.4710  0.2236
38301SOL    HW132895   1.537   1.906   8.250  1.4135 -0.9027 -0.1812
38301SOL    HW232896   1.506   1.956   8.389 -0.2768 -0.2155 -0.7777
38302SOL     OW32897  10.518  12.242   4.050  0.4756  0.5817 -0.2406
38302SOL    HW132898  10.584  12.176   4.069 -1.4941 -1.3816  0.1809
38302SOL    HW232899  10.450  12.195   4.002 -1.8467  1.8186  1.5930
38303SOL     OW32900   4.740   9.902   7.466  0.1217 -0.0040  0.0316
38303SOL    HW132901   4.655   9.877   7.502 -0.9657  2.4860 -0.5285
38303SOL    HW232902   4.744   9.858   7.381 -0.8646  0.2331 -0.1525
38304SOL     OW32903   3.091   3.721  12.473 -0.2695 -0.0454 -0.6722
38304SOL    HW132904   3.061   3.644  12.521 -1.5418  1.6160  1.3916
38304SOL    HW232905   3.182   3.732  12.500 -0.6469  0.2297  0.5980
38305SOL     OW32906   7.920   8.488  10.321 -0.8220  0.2233  0.3570
38305SOL    HW132907   8.004   8.449  10.296 -0.9089 -0.2498  0.8031
38305SOL    HW232908   7.941   8.542  10.397 -0.9309  0.0713  0.4943
38306SOL     OW32909   7.531   8.775  12.214 -0.1113 -0.2579 -0.8197
38306SOL    HW132910   7.490   8.708  12.160 -0.4589  0.4467 -1.4353
38306SOL    HW232911   7.514   8.857  12.168 -2.4449  0.6895  1.4864
38307SOL     OW32912   7.826   6.489   1.416  0.0342  0.6294  0.3804
38307SOL    HW132913   7.869   6.563   1.372 -1.6130  0.6230 -1.3423
38307SOL    HW232914   7.742   6.524   1.444 -2.0542 -1.1774 -3.0098
38308SOL     OW32915  10.427   6.007   7.257 -0.7148  0.3717 -0.4673
38308SOL    HW132916  10.444   5.979   7.347  1.1194  3.5468  0.3503
38308SOL    HW232917  10.333   5.994   7.245 -1.0141 -0.1819  1.9036
38309SOL     OW32918  10.646   5.462   0.885  0.2252  0.2865 -0.1532
38309SOL    HW132919  10.586   5.391   0.908  1.5514 -0.1266  2.4548
38309SOL    HW232920  10.617   5.492   0.799 -3.4364 -0.1415  0.7867
38310SOL     OW32921  10.077  14.105   2.680  0.1174  0.0647  0.2690
38310SOL    HW132922  10.057  14.073   2.768 -0.2938  2.2009  0.9904
38310SOL    HW232923  10.053  14.197   2.681 -0.0971  0.1090 -2.1668
38311SOL     OW32924   1.012  11.881   1.842 -0.3889  0.3767 -0.4547
38311SOL    HW132925   1.101  11.884   1.808 -0.0988 -0.7226  0.1730
38311SOL    HW232926   0.958  11.860   1.766 -0.0786  0.7236 -0.7745
38312SOL     OW32927   6.876  10.190   8.942 -0.2237  0.1947 -0.6785
38312SOL    HW132928   6.948  10.154   8.993 -0.1265 -1.2844 -1.7887
38312SOL    HW232929   6.800  10.137   8.966 -0.8336  1.3478  0.0251
38313SOL     OW32930   4.337  11.563   6.129  0.0294 -0.9948  0.5762
38313SOL    HW132931   4.244  11.541   6.138  0.0585 -1.0362  0.7899
38313SOL    HW232932   4.381  11.478   6.119 -0.0415 -0.9280 -0.3620
38314SOL     OW32933   5.220   7.369   9.947 -0.0323 -0.3940 -0.4773
38314SOL    HW132934   5.208   7.298   9.883 -0.5337 -1.1709  0.4413
38314SOL    HW232935   5.218   7.324  10.032 -0.8885  0.7974  0.1461
38315SOL     OW32936  10.473  10.166   0.802 -0.2275 -0.6412 -0.2239
38315SOL    HW132937  10.494  10.244   0.853 -1.5072 -0.7727  0.5774
38315SOL    HW232938  10.453  10.198   0.715  0.4841 -0.2279 -0.2384
38316SOL     OW32939  10.339   6.414   4.008 -0.3882  0.1924 -0.5074
38316SOL    HW132940  10.428   6.387   4.028 -0.6239 -0.5322 -0.3825
38316SOL    HW232941  10.300   6.337   3.965 -0.6672  0.8277 -1.4170
38317SOL     OW32942  13.828   2.547   0.014  0.8658  0.2007  0.3726
38317SOL    HW132943  13.814   2.562   0.108  2.3443  0.3405  0.5925
38317SOL    HW232944  13.851   2.633  -0.020 -0.2758  0.2805 -0.2708
38318SOL     OW32945   5.875  11.580   6.918 -0.0513  0.0821  0.4361
38318SOL    HW132946   5.809  11.598   6.851  0.5400  0.3572 -0.0920
38318SOL    HW232947   5.956  11.566   6.868  0.0854 -1.3034  0.9997
38319SOL     OW32948   2.275   1.148  12.948 -0.0180  0.3397 -0.7171
38319SOL    HW132949   2.275   1.244  12.948  1.4385  0.3788  0.8189
38319SOL    HW232950   2.257   1.124  12.857 -0.7743  2.0504 -1.0578
38320SOL     OW32951  13.052   2.325   6.911 -0.0057 -0.1373  0.0912
38320SOL    HW132952  13.048   2.310   7.006 -1.3445  1.3946  0.3165
38320SOL    HW232953  13.031   2.418   6.901  0.3384 -0.2294 -1.7102
38321SOL     OW32954   9.468  10.224   4.352  0.3083 -0.2399 -0.6247
38321SOL    HW132955   9.443  10.159   4.287 -1.2748  0.8106 -1.1422
38321SOL    HW232956   9.426  10.195   4.433  1.2892 -0.9157 -0.3464
38322SOL     OW32957   5.359   3.984   5.753  0.4067 -0.0347  0.3466
38322SOL    HW132958   5.346   4.058   5.694  0.9850 -0.4883 -0.3711
38322SOL    HW232959   5.443   3.947   5.726  0.3461 -0.6717  1.0074
38323SOL     OW32960   7.048  11.360   1.816 -1.0391  0.3099  0.1541
38323SOL    HW132961   7.129  11.384   1.860 -2.0025  1.0738  1.5913
38323SOL    HW232962   7.054  11.265   1.805 -0.6876  0.1054  1.8295
38324SOL     OW32963   6.179  11.406   1.140  0.0392 -0.3733 -0.2926
38324SOL    HW132964   6.260  11.447   1.112 -0.7983  1.8698  0.3745
38324SOL    HW232965   6.191  11.390   1.233  0.4285 -1.9096 -0.5808
38325SOL     OW32966  10.689   6.127   3.416  0.3612  0.3581  0.2404
38325SOL    HW132967  10.672   6.062   3.348 -1.1147  0.9834 -0.0353
38325SOL    HW232968  10.670   6.211   3.374  0.2066  0.8142  1.1954
38326SOL     OW32969  10.633  11.311  11.451  0.0428 -0.0533 -0.3640
38326SOL    HW132970  10.640  11.246  11.382  0.0706 -0.1996 -0.2231
38326SOL    HW232971  10.589  11.266  11.523 -0.8885  0.3780 -0.6428
38327SOL     OW32972  13.737   2.739   3.293 -0.4029  0.3115 -0.1366
38327SOL    HW132973  13.745   2.829   3.261 -3.6538  0.2234 -1.5941
38327SOL    HW232974  13.738   2.685   3.214  0.4455 -0.8680  0.6456
38328SOL     OW32975   7.700   8.936   0.611 -0.5856  0.0251 -0.5780
38328SOL    HW132976   7.612   8.971   0.623  0.0186  1.6992 -0.7387
38328SOL    HW232977   7.729   8.973   0.528  0.6417  0.3303 -0.0363
38329SOL     OW32978   7.361   9.113   3.082  0.0309 -0.0969 -0.1463
38329SOL    HW132979   7.276   9.117   3.126 -0.0933 -0.0382 -0.3895
38329SOL    HW232980   7.397   9.201   3.093 -0.7732  0.4640 -1.6825
38330SOL     OW32981   6.302   8.440   3.157 -0.4721  0.0516  0.3528
38330SOL    HW132982   6.231   8.420   3.096  0.1857 -0.9152 -0.1241
38330SOL    HW232983   6.299   8.535   3.168 -0.4902  0.2732 -1.3375
38331SOL     OW32984  13.784   9.940   4.419 -0.1251 -0.1903 -0.7406
38331SOL    HW132985  13.796  10.016   4.362  1.3006  0.2210  0.0528
38331SOL    HW232986  13.845   9.954   4.491 -0.2964 -1.7851 -0.2355
38332SOL     OW32987  12.730  13.006   1.967  0.0307  0.0339  0.5118
38332SOL    HW132988  12.761  13.033   1.880  0.5535  0.6008  0.8635
38332SOL    HW232989  12.672  12.932   1.950 -0.6157  0.7283 -0.4061
38333SOL     OW32990  13.574   7.163  14.021 -0.0126 -0.1759 -0.3680
38333SOL    HW132991  13.598   7.233  13.960 -1.6314 -0.2013 -1.0841
38333SOL    HW232992  13.626   7.087  13.993  1.2762  0.5425  0.0167
38334SOL     OW32993   1.684   0.988   9.073 -0.1103  0.2459 -0.0901
38334SOL    HW132994   1.729   1.044   9.010 -1.1399  0.1220 -0.9609
38334SOL    HW232995   1.627   0.932   9.020  0.1167 -0.9058  0.8469
38335SOL     OW32996   8.707   3.944  10.478  0.3792 -0.3898 -0.5470
38335SOL    HW132997   8.711   3.925  10.384 -1.0966 -1.6042 -0.4032
38335SOL    HW232998   8.784   3.901  10.514 -0.0109 -1.5107 -0.9888
38336SOL     OW32999   2.154   5.861   1.466  0.2782  0.2033  0.0464
38336SOL    HW133000   2.229   5.906   1.505  0.2883 -1.1081  1.6164
38336SOL    HW233001   2.192   5.788   1.417  0.1294  0.7194 -0.8716
38337SOL     OW33002  10.229  11.936   4.508  0.2705 -0.2054  0.3091
38337SOL    HW133003  10.168  12.007   4.529 -0.5310 -0.4947 -0.9042
38337SOL    HW233004  10.302  11.949   4.568  0.1442  1.6516  0.1369
38338SOL     OW33005   4.505   7.414   7.984  0.0833  0.2298 -0.5257
38338SOL    HW133006   4.428   7.368   7.951 -0.6567 -0.3363  1.8090
38338SOL    HW233007   4.501   7.403   8.079  1.8931  2.0280 -0.1694
38339SOL     OW33008  13.566  12.905   2.011  0.3343 -0.2330  0.3858
38339SOL    HW133009  13.586  12.838   2.077 -1.7812 -0.3227  0.9948
38339SOL    HW233010  13.593  12.866   1.928 -0.7096 -1.7853  0.7482
38340SOL     OW33011  13.229  11.697   3.458  0.2828 -0.1425 -0.0800
38340SOL    HW133012  13.300  11.675   3.398 -0.0615  1.0308 -0.9575
38340SOL    HW233013  13.227  11.625   3.521  1.9536 -0.4044 -0.2986
38341SOL     OW33014   9.217  12.684   3.366  0.4341  0.4571  0.1785
38341SOL    HW133015   9.149  12.659   3.302  0.8605  2.0624 -0.9715
38341SOL    HW233016   9.259  12.602   3.390 -0.6909 -0.3523 -0.5106
38342SOL     OW33017  11.488   9.170   8.555  0.2240 -0.1610 -0.0314
38342SOL    HW133018  11.580   9.144   8.567  0.0555 -1.7858 -1.8557
38342SOL    HW233019  11.445   9.141   8.635  0.9256 -1.3363 -0.0575
38343SOL     OW33020   9.637   1.062  10.529 -0.1424  0.4658  0.3749
38343SOL    HW133021   9.730   1.079  10.544 -0.2730 -0.3758  2.4971
38343SOL    HW233022   9.592   1.111  10.597 -1.1185 -0.6103  0.5348
38344SOL     OW33023  12.509   6.360  13.763  0.3964  0.6236 -0.0982
38344SOL    HW133024  12.433   6.363  13.706  0.5797 -0.4485 -0.4092
38344SOL    HW233025  12.505   6.274  13.804  1.8142  0.2749 -0.6473
38345SOL     OW33026  10.049   7.692  10.397 -0.5649  0.1620  0.0628
38345SOL    HW133027  10.034   7.609  10.352 -0.0430  0.0007  0.1811
38345SOL    HW233028  10.108   7.740  10.338 -0.0095  0.0161  0.4963
38346SOL     OW33029  11.355  12.451   4.968  0.3830  0.2018  0.1176
38346SOL    HW133030  11.298  12.374   4.962  0.8199 -0.0463 -0.9027
38346SOL    HW233031  11.444  12.416   4.966  0.5877  0.7096  0.1146
38347SOL     OW33032  11.434   8.879   1.589  0.1353  0.3494 -0.0412
38347SOL    HW133033  11.518   8.914   1.619  0.2216  1.4176 -1.4515
38347SOL    HW233034  11.457   8.814   1.523 -0.1581  1.6476 -1.4516
38348SOL     OW33035  10.981  13.165  11.195  0.0517  0.3227  0.1246
38348SOL    HW133036  11.056  13.224  11.201  0.2681 -0.0395  0.9929
38348SOL    HW233037  10.992  13.121  11.110  0.9932  0.0288  0.3939
38349SOL     OW33038  14.018   5.701   0.580 -0.7237 -0.4244  0.5176
38349SOL    HW133039  13.978   5.777   0.623 -0.8928 -0.7660  0.9756
38349SOL    HW233040  13.946   5.660   0.532 -0.4068  0.3052 -0.6221
38350SOL     OW33041   6.039   6.361   9.601 -0.4610  0.0811 -0.2712
38350SOL    HW133042   6.058   6.454   9.618 -0.0120  0.1666 -1.1612
38350SOL    HW233043   6.036   6.355   9.505 -3.5833 -0.2222 -0.2672
38351SOL     OW33044   2.880  13.104   4.167  0.0362  0.4049 -0.1020
38351SOL    HW133045   2.844  13.052   4.095  2.2553 -1.3052 -0.1183
38351SOL    HW233046   2.973  13.114   4.145  0.7145  0.1268  2.2855
38352SOL     OW33047   3.320   9.025   1.065  0.0587 -0.3930  0.2780
38352SOL    HW133048   3.408   9.009   1.029  0.1061 -1.4106  0.8033
38352SOL    HW233049   3.303   8.949   1.121 -2.1744 -1.5134 -1.7216
38353SOL     OW33050   2.577   4.395   0.197 -0.2717 -0.7276 -0.2917
38353SOL    HW133051   2.637   4.328   0.231  2.0107  0.1070 -2.3072
38353SOL    HW233052   2.587   4.388   0.102 -2.2565  0.5234 -0.6346
38354SOL     OW33053   6.435  11.866   8.406  0.3286  0.1778 -0.7226
38354SOL    HW133054   6.462  11.956   8.388 -0.6444  0.1609 -2.5510
38354SOL    HW233055   6.452  11.819   8.324 -0.0937 -1.0717 -0.1191
38355SOL     OW33056  11.014   1.858   9.251  0.6815  0.3198  0.1118
38355SOL    HW133057  11.092   1.913   9.259  0.6758  0.3804 -0.2193
38355SOL    HW233058  10.953   1.912   9.200  0.3676  0.3318  0.4968
38356SOL     OW33059   8.598  11.449   8.037  0.8774 -0.1487  0.1558
38356SOL    HW133060   8.626  11.527   8.084 -0.5832 -0.9467  2.5304
38356SOL    HW233061   8.642  11.377   8.082 -1.2958 -1.0205  1.0462
38357SOL     OW33062   3.776   1.289   8.586  0.5174  0.5214  0.4241
38357SOL    HW133063   3.848   1.228   8.578 -1.8955 -2.3333 -1.6736
38357SOL    HW233064   3.756   1.289   8.680  1.5497 -0.7262  0.6759
38358SOL     OW33065   0.450  10.627  12.980  0.2849 -0.0354 -0.5987
38358SOL    HW133066   0.507  10.564  13.024  0.1734 -0.2859 -0.8196
38358SOL    HW233067   0.366  10.583  12.974 -0.5449  1.0774  1.5924
38359SOL     OW33068  12.331  13.397   0.229 -0.3858  0.1996 -0.0130
38359SOL    HW133069  12.278  13.318   0.224 -1.6809  1.0701 -0.4752
38359SOL    HW233070  12.420  13.366   0.247 -0.9569 -1.3166  0.2635
38360SOL     OW33071   2.030  12.375  12.914 -0.6067 -0.5436 -0.0701
38360SOL    HW133072   1.958  12.422  12.958  1.4344 -0.2317  3.3171
38360SOL    HW233073   2.108  12.402  12.962  1.8864 -0.8284 -3.6053
38361SOL     OW33074   7.300  10.479   8.019  0.2230 -0.4999 -0.2071
38361SOL    HW133075   7.276  10.506   8.108 -1.1002 -0.0855 -0.6783
38361SOL    HW233076   7.344  10.395   8.031  0.4790 -0.2311  0.8777
38362SOL     OW33077  13.299   2.555   6.551  0.1495  0.1285 -0.7718
38362SOL    HW133078  13.344   2.509   6.622  0.8571  1.2116 -0.4814
38362SOL    HW233079  13.224   2.596   6.594  1.7733  2.6393 -0.0741
38363SOL     OW33080   6.644  11.981   2.378  0.3046 -0.8335 -0.1581
38363SOL    HW133081   6.595  12.020   2.450  1.5457 -0.7311  0.6576
38363SOL    HW233082   6.611  12.026   2.300  1.5608  1.7958  0.7150
38364SOL     OW33083   7.595   9.724   0.453  0.5685 -0.4591  0.0332
38364SOL    HW133084   7.607   9.653   0.517 -0.4346 -0.1483  0.5858
38364SOL    HW233085   7.683   9.741   0.419  0.8772 -1.7333  0.1418
38365SOL     OW33086   4.889   4.633   1.773  0.1026 -0.1884  0.5182
38365SOL    HW133087   4.842   4.614   1.854 -3.2744  0.3540 -1.1263
38365SOL    HW233088   4.899   4.547   1.731 -2.3225 -0.0687 -0.4687
38366SOL     OW33089   0.478  11.453   5.747 -0.1352  0.5920 -0.1090
38366SOL    HW133090   0.400  11.506   5.766 -0.2470  0.7826 -1.0721
38366SOL    HW233091   0.446  11.363   5.745 -0.0532  0.5280  0.9471
38367SOL     OW33092   0.805  11.346   3.469 -0.8379  0.5310 -0.2385
38367SOL    HW133093   0.857  11.426   3.464 -0.0570  0.0458 -0.1056
38367SOL    HW233094   0.743  11.362   3.540 -1.1517  1.2745 -0.6726
38368SOL     OW33095   3.195  12.458   2.382  0.4106 -0.3023  0.5143
38368SOL    HW133096   3.225  12.541   2.344  0.9136 -1.3590 -1.5155
38368SOL    HW233097   3.129  12.427   2.321  3.6269 -3.7639 -1.5819
38369SOL     OW33098   2.217   7.008   6.442  0.1204  0.7011 -0.0723
38369SOL    HW133099   2.239   7.040   6.530 -2.2968 -0.2820  0.9874
38369SOL    HW233100   2.132   6.964   6.453  1.1676 -2.2023 -2.2924
38370SOL     OW33101   1.549  13.351  11.276  0.2226 -0.1931  0.3007
38370SOL    HW133102   1.635  13.327  11.310  0.7872  2.5372  1.1096
38370SOL    HW233103   1.518  13.419  11.336 -1.1684  0.9723 -1.6046
38371SOL     OW33104   9.969   3.738  12.302 -0.2065  0.0197 -0.1235
38371SOL    HW133105   9.990   3.800  12.233 -0.4739  1.1593  0.7826
38371SOL    HW233106   9.912   3.673  12.260  0.4496  0.1142 -1.1940
38372SOL     OW33107   3.060   4.156  13.384  0.5991  0.4875  0.9462
38372SOL    HW133108   3.126   4.101  13.427  0.3329  1.1910  2.3301
38372SOL    HW233109   3.107   4.236  13.361  0.8763 -0.0971 -0.6508
38373SOL     OW33110   0.583   5.273   9.934 -0.2176  0.3763 -0.0699
38373SOL    HW133111   0.618   5.228   9.856  1.4919  1.2252  0.1549
38373SOL    HW233112   0.519   5.211   9.970  0.2337 -0.7925 -1.1733
38374SOL     OW33113   7.342  10.107   6.471  1.1490  0.1537 -0.3450
38374SOL    HW133114   7.392  10.057   6.536  2.8140  0.9356 -0.9529
38374SOL    HW233115   7.374  10.197   6.480  0.2607  0.5656 -1.1753
38375SOL     OW33116  11.206   7.006   3.752  0.1415 -0.0813  0.3221
38375SOL    HW133117  11.281   7.038   3.703  0.1576  0.5755  0.7730
38375SOL    HW233118  11.220   7.036   3.841 -0.1549 -0.8106  0.6251
38376SOL     OW33119   2.287   0.724   5.468  0.2268  0.2270 -0.1986
38376SOL    HW133120   2.255   0.731   5.378 -2.3411 -0.7246  0.5506
38376SOL    HW233121   2.223   0.773   5.520  1.6343  0.7111  1.1389
38377SOL     OW33122   4.414  10.166  10.316  0.5629 -0.1801  0.0069
38377SOL    HW133123   4.346  10.223  10.281  0.0419 -0.0926  1.1214
38377SOL    HW233124   4.457  10.218  10.384  2.3383  0.0784 -1.2132
38378SOL     OW33125   2.771  14.055   1.697  0.0300  0.7410 -0.1313
38378SOL    HW133126   2.773  13.977   1.641 -0.2467  0.2019  0.5951
38378SOL    HW233127   2.845  14.108   1.666  2.2025 -1.2219  1.3538
38379SOL     OW33128  11.366   9.771  10.371 -0.1990 -0.1289 -0.0276
38379SOL    HW133129  11.422   9.815  10.307 -0.3339 -0.6585 -0.5146
38379SOL    HW233130  11.379   9.678  10.355 -0.0422 -0.2774  0.8841
38380SOL     OW33131   2.613  13.486   4.250  0.6402  0.5602  0.0998
38380SOL    HW133132   2.697  13.474   4.206  0.7514  1.5027  0.0308
38380SOL    HW233133   2.586  13.398   4.275  1.4884  0.2135 -0.1748
38381SOL     OW33134   3.978   2.100  11.268 -0.0057 -0.0394  0.2529
38381SOL    HW133135   3.952   2.055  11.348 -2.0090 -1.8873 -1.3111
38381SOL    HW233136   4.072   2.085  11.262  0.2362  0.3379  2.3261
38382SOL     OW33137   6.893   5.012   9.978  0.2056 -0.4454  0.1219
38382SOL    HW133138   6.907   4.921  10.002 -0.0848 -0.5412 -0.0628
38382SOL    HW233139   6.851   5.009   9.892 -1.0535 -0.2012  0.6937
38383SOL     OW33140   5.593  13.223   4.542  0.5910 -0.2717  0.1410
38383SOL    HW133141   5.648  13.166   4.487 -1.1321 -0.9749 -0.9265
38383SOL    HW233142   5.617  13.200   4.632  2.4169 -0.1600 -0.2639
38384SOL     OW33143   5.332   3.753   9.445  0.7508 -0.1939  0.2120
38384SOL    HW133144   5.397   3.820   9.466 -0.2538  1.0749 -0.5658
38384SOL    HW233145   5.248   3.792   9.471  0.2919 -1.9094  1.4671
38385SOL     OW33146  13.042   3.140   9.339  0.4143 -0.1082  0.6075
38385SOL    HW133147  12.996   3.223   9.345  0.1270 -0.1800 -0.4491
38385SOL    HW233148  13.097   3.137   9.417 -0.6316  0.4253  1.3868
38386SOL     OW33149   1.034  11.248  10.286  0.2600 -0.0831  0.0557
38386SOL    HW133150   1.121  11.230  10.250  0.8133  0.8395  0.8751
38386SOL    HW233151   1.024  11.343  10.279 -0.2178 -0.0487  0.9697
38387SOL     OW33152   6.088  14.039   7.237 -0.1002  0.2493 -0.4312
38387SOL    HW133153   6.135  14.025   7.319 -0.5833  0.6181 -0.0861
38387SOL    HW233154   6.022  13.970   7.234 -0.9556  1.0188  0.1444
38388SOL     OW33155   6.358   7.531  11.726 -0.5748 -0.1103  0.2261
38388SOL    HW133156   6.287   7.587  11.758 -0.1858  0.7042 -0.2968
38388SOL    HW233157   6.329   7.504  11.639 -1.5157 -2.1098  1.0956
38389SOL     OW33158   9.169   1.884   9.671  0.0603  0.4051 -0.1765
38389SOL    HW133159   9.248   1.888   9.725 -1.4764 -1.2960  2.4278
38389SOL    HW233160   9.150   1.791   9.664 -1.8509  0.7773 -0.4598
38390SOL     OW33161   3.946  11.085   7.048  0.2933 -0.6449 -0.6002
38390SOL    HW133162   4.029  11.059   7.009  1.3007  0.5961  0.6085
38390SOL    HW233163   3.969  11.117   7.135 -1.2577  1.0196 -0.7343
38391SOL     OW33164  10.071   0.673   6.575  0.1027 -0.1356  0.2353
38391SOL    HW133165   9.990   0.695   6.620 -0.6258 -1.3528 -0.4427
38391SOL    HW233166  10.130   0.642   6.644 -0.1757  0.2609  0.6568
38392SOL     OW33167   1.624  10.004   8.547 -0.2880  0.3876 -0.2325
38392SOL    HW133168   1.552   9.981   8.606 -0.1720 -1.8148 -0.8516
38392SOL    HW233169   1.694  10.033   8.604 -0.3081 -1.3348  0.7461
38393SOL     OW33170   4.242  12.180   3.653 -0.0534 -0.6516 -0.2090
38393SOL    HW133171   4.321  12.126   3.658  1.0508  0.9603  0.4502
38393SOL    HW233172   4.221  12.183   3.560  1.8574  0.5260 -0.6423
38394SOL     OW33173  11.909   6.380  11.149 -0.1756 -0.2572  0.4034
38394SOL    HW133174  11.856   6.302  11.164 -0.5974 -0.1390 -0.4572
38394SOL    HW233175  11.852   6.440  11.102 -0.2857  1.1085  2.1650
38395SOL     OW33176   6.580   8.951   7.121 -0.4953 -0.3685 -0.2339
38395SOL    HW133177   6.625   8.870   7.096 -0.8013 -0.4208 -0.6328
38395SOL    HW233178   6.650   9.009   7.151 -0.2932 -0.8390  0.2098
38396SOL     OW33179  11.743  12.206   0.190  0.3541  0.6858  0.5967
38396SOL    HW133180  11.679  12.276   0.184 -0.8837 -0.4504 -0.1249
38396SOL    HW233181  11.706  12.135   0.137  2.1103 -0.0973  0.3188
38397SOL     OW33182   9.554   6.197  11.956 -0.1547 -0.2433  0.0348
38397SOL    HW133183   9.587   6.108  11.946 -2.3426 -0.8887 -2.6753
38397SOL    HW233184   9.612   6.251  11.903 -0.7726 -0.6371 -1.0673
38398SOL     OW33185  10.624   7.393   3.240 -0.3197 -0.1054 -0.1622
38398SOL    HW133186  10.712   7.383   3.275 -0.3807 -1.1733 -0.2749
38398SOL    HW233187  10.576   7.440   3.308 -0.0558 -0.8622  0.5625
38399SOL     OW33188   2.814  13.825   3.356  0.4150  0.3565 -0.4853
38399SOL    HW133189   2.846  13.781   3.435 -0.2643  0.2168 -0.2798
38399SOL    HW233190   2.724  13.793   3.345 -0.2506  1.9846 -0.1035
38400SOL     OW33191   0.459   2.193   9.660  0.5952 -0.4526  0.2579
38400SOL    HW133192   0.410   2.171   9.580 -0.5657 -3.1049  1.5777
38400SOL    HW233193   0.421   2.275   9.690  1.2022  0.7298 -1.9417
38401SOL     OW33194  13.090   6.405   9.443 -0.4658  0.0535  0.4521
38401SOL    HW133195  13.088   6.363   9.529  0.7679 -1.7578 -0.3429
38401SOL    HW233196  13.127   6.339   9.384 -0.6942  1.4487 -1.3689
38402SOL     OW33197   6.597   6.014   9.919  0.3179  0.9788  0.0724
38402SOL    HW133198   6.516   6.016   9.971 -0.1457  1.0383 -0.6338
38402SOL    HW233199   6.664   6.049   9.977 -0.2344  1.2529  0.5519
38403SOL     OW33200   4.098  13.959  14.133  0.4473  0.8687  0.2033
38403SOL    HW133201   4.106  14.050  14.106  2.9418  0.9544  1.0542
38403SOL    HW233202   4.155  13.911  14.073 -1.3044 -0.2949 -0.6462
38404SOL     OW33203  10.932   6.418   5.399 -0.3676 -0.0004 -0.0777
38404SOL    HW133204  10.847   6.376   5.389  0.2260 -1.4655  0.7312
38404SOL    HW233205  10.954   6.405   5.491  0.7531  0.3206 -0.2910
38405SOL     OW33206  13.530   5.857   9.238 -0.7193  0.0730 -0.0880
38405SOL    HW133207  13.584   5.909   9.298 -0.0452  0.7750 -1.2543
38405SOL    HW233208  13.440   5.885   9.257 -0.4822  0.5860  0.3165
38406SOL     OW33209   2.695   8.566  12.077 -0.0268 -0.1193  0.2347
38406SOL    HW133210   2.718   8.637  12.018  1.2531 -1.6908 -1.2668
38406SOL    HW233211   2.778   8.542  12.119 -1.0517  1.6599  3.6480
38407SOL     OW33212   3.962   8.173  10.115  0.1186 -0.1533 -0.2530
38407SOL    HW133213   3.993   8.118  10.186  0.2501  0.9438  0.5667
38407SOL    HW233214   3.876   8.203  10.144  0.9015  1.7146  0.2773
38408SOL     OW33215   8.951   9.694   1.940 -0.6738  0.1003 -0.4203
38408SOL    HW133216   8.969   9.701   1.846  1.8766 -1.7401 -0.1624
38408SOL    HW233217   9.032   9.724   1.982 -0.9655 -1.1851  1.1266
38409SOL     OW33218   8.661  13.630   5.284 -0.5185  0.4215 -0.2174
38409SOL    HW133219   8.706  13.642   5.368  0.4780  0.2939 -0.7240
38409SOL    HW233220   8.731  13.626   5.219 -1.1602 -1.2766 -0.8646
38410SOL     OW33221   7.447   3.840   1.096 -0.3969  0.4879  0.1400
38410SOL    HW133222   7.397   3.780   1.042 -1.0417  0.5610  0.6407
38410SOL    HW233223   7.400   3.843   1.179 -0.1026  1.3027  0.2930
38411SOL     OW33224   5.844   3.898   2.820 -0.8461  0.1660 -0.1492
38411SOL    HW133225   5.927   3.935   2.851 -0.3938 -0.1691 -0.9556
38411SOL    HW233226   5.790   3.974   2.800  0.5189  0.4977 -3.0250
38412SOL     OW33227   9.925  11.255   4.894  0.0842  0.2164 -0.1568
38412SOL    HW133228   9.874  11.331   4.921  2.1718  2.0329 -1.0005
38412SOL    HW233229   9.928  11.262   4.798  1.7919  0.1427 -0.1377
38413SOL     OW33230  12.285   1.997   6.988  0.4766 -0.2659  0.2682
38413SOL    HW133231  12.342   1.927   7.021 -0.4942 -0.6441  1.1978
38413SOL    HW233232  12.289   1.988   6.892  1.5614 -0.6053  0.3306
38414SOL     OW33233   4.830  12.626   9.087  0.3473  0.1093 -0.6185
38414SOL    HW133234   4.763  12.569   9.126 -0.5073  1.7611  0.4430
38414SOL    HW233235   4.814  12.619   8.992 -0.8471 -0.1225 -0.4211
38415SOL     OW33236   1.656   3.237   1.405 -0.3680  0.1741  0.6437
38415SOL    HW133237   1.690   3.293   1.475  1.9743 -1.8685  1.2928
38415SOL    HW233238   1.656   3.149   1.442  0.5484 -0.9350 -1.7363
38416SOL     OW33239  10.450  12.706  11.345  0.0235  0.9834 -0.3701
38416SOL    HW133240  10.536  12.684  11.382 -0.4873 -0.3442  0.0729
38416SOL    HW233241  10.447  12.802  11.349  1.2153  1.0240  0.2193
38417SOL     OW33242   5.891   6.275  10.922  0.2043 -0.2175  0.1260
38417SOL    HW133243   5.902   6.244  11.011  0.4946  0.6050  0.3873
38417SOL    HW233244   5.980   6.297  10.893  0.2609 -1.5012 -0.7616
38418SOL     OW33245  11.942   0.248  14.127  0.1672 -0.0048 -0.1325
38418SOL    HW133246  11.960   0.317  14.063  1.6704 -0.7687 -0.5668
38418SOL    HW233247  12.009   0.259  14.195 -0.3520 -0.2768  0.4395
38419SOL     OW33248   9.120   8.354   2.035  0.3208 -0.2683 -0.0817
38419SOL    HW133249   9.126   8.281   2.097 -1.2357 -0.9246 -0.6389
38419SOL    HW233250   9.135   8.314   1.949 -0.3785  0.0750 -0.3763
38420SOL     OW33251   6.120  13.139  10.102  0.1358  0.2475  0.0260
38420SOL    HW133252   6.201  13.115  10.056  0.0445  1.9150 -1.0971
38420SOL    HW233253   6.148  13.202  10.168 -0.3718  2.1109 -1.4456
38421SOL     OW33254   2.649  12.058   6.503  0.1489 -0.5500 -0.2070
38421SOL    HW133255   2.628  12.096   6.417  0.8464 -0.4254 -0.3284
38421SOL    HW233256   2.640  12.130   6.564 -0.7014 -0.7239 -0.1219
38422SOL     OW33257   0.252  10.679   2.337 -0.1006  0.3058  0.4873
38422SOL    HW133258   0.254  10.768   2.370 -1.1285  0.0898  1.2186
38422SOL    HW233259   0.220  10.687   2.247 -4.4064  0.4876  1.7726
38423SOL     OW33260   5.371   2.315   1.962 -0.6476  0.1141 -0.4066
38423SOL    HW133261   5.432   2.363   2.017 -2.3617 -0.2045  1.9075
38423SOL    HW233262   5.349   2.375   1.891  0.9495  0.8794 -0.2834
38424SOL     OW33263   9.192   2.261   1.246  0.2253 -0.5808 -0.1632
38424SOL    HW133264   9.225   2.317   1.176 -0.7822 -0.7395 -0.8030
38424SOL    HW233265   9.099   2.285   1.254  0.4495 -0.1399  1.5524
38425SOL     OW33266  13.684   2.693  10.718  0.1121  0.0230 -0.0007
38425SOL    HW133267  13.719   2.604  10.717 -1.0885 -0.4938  0.9206
38425SOL    HW233268  13.733   2.738  10.787  1.2169  0.3164 -0.9473
38426SOL     OW33269   0.237  10.881   4.835  0.4191 -0.8538  0.3445
38426SOL    HW133270   0.232  10.786   4.830 -0.4313 -0.9082  1.7439
38426SOL    HW233271   0.230  10.901   4.928 -0.8355  0.6344 -0.0181
38427SOL     OW33272   0.582   3.938   7.117  0.3138  0.0250  0.0885
38427SOL    HW133273   0.526   3.871   7.156  0.2531 -0.3153 -0.5731
38427SOL    HW233274   0.621   3.983   7.192 -0.2682 -0.2216  0.5453
38428SOL     OW33275  11.976   7.640   0.328  0.4692  0.9236 -0.0854
38428SOL    HW133276  11.985   7.721   0.279  2.4684  1.8247  1.6345
38428SOL    HW233277  12.049   7.586   0.300  2.0162  1.6929  2.1728
38429SOL     OW33278  13.377  13.413   2.782  0.7110  0.6413 -0.9170
38429SOL    HW133279  13.303  13.437   2.725  0.4628 -0.7175 -1.2137
38429SOL    HW233280  13.382  13.318   2.775  0.7881  0.4415  1.2187
38430SOL     OW33281   8.397   6.926  10.477  0.5717  0.5083  0.0760
38430SOL    HW133282   8.423   6.947  10.387  0.6219  2.3222  0.4598
38430SOL    HW233283   8.304   6.905  10.471  0.5464  0.7495 -0.3999
38431SOL     OW33284   5.033   4.406  10.645  0.3823  0.1432  0.5915
38431SOL    HW133285   5.033   4.341  10.575  1.3197 -0.0527  0.7553
38431SOL    HW233286   4.984   4.480  10.610 -0.2004 -0.4261  0.1882
38432SOL     OW33287   2.610   3.294   1.722 -0.6255 -0.1440 -0.0210
38432SOL    HW133288   2.522   3.279   1.756 -0.9828  0.4212 -0.6835
38432SOL    HW233289   2.598   3.354   1.649  0.0034 -2.1718 -1.8843
38433SOL     OW33290   8.342  13.373   3.226  0.1963 -0.4739  0.0198
38433SOL    HW133291   8.406  13.442   3.211  0.4306 -0.7710 -0.3481
38433SOL    HW233292   8.295  13.401   3.306  0.8555 -0.3182  0.3559
38434SOL     OW33293  13.859   4.656   6.400  0.7436  0.5110  0.0052
38434SOL    HW133294  13.841   4.562   6.400  2.3931  0.1528  0.7108
38434SOL    HW233295  13.955   4.662   6.402  0.7961  2.2174 -2.7541
38435SOL     OW33296  12.877  13.484   5.429  0.1414  0.5107 -0.0203
38435SOL    HW133297  12.803  13.426   5.449  0.3069  0.0231 -0.7904
38435SOL    HW233298  12.921  13.496   5.513  0.7956 -1.4607 -0.0237
38436SOL     OW33299   1.203  10.670   6.922 -0.3476  0.1678 -0.1351
38436SOL    HW133300   1.227  10.742   6.981 -2.3972  0.5622  0.3115
38436SOL    HW233301   1.157  10.713   6.850  0.0583 -0.5337 -0.8251
38437SOL     OW33302  13.556   2.776   2.171  0.2006 -0.1230  0.1544
38437SOL    HW133303  13.648   2.793   2.192  0.5553 -0.9784 -0.6531
38437SOL    HW233304  13.523   2.728   2.246  1.0925 -1.9676 -0.5707
38438SOL     OW33305  13.245   2.000  14.131 -0.2351 -0.2120 -0.0059
38438SOL    HW133306  13.263   2.048  14.212  1.3832  0.7520 -0.8654
38438SOL    HW233307  13.249   2.067  14.063 -2.2688 -0.8840 -0.8414
38439SOL     OW33308   1.082   0.394   9.749 -0.0355 -0.1257  0.1576
38439SOL    HW133309   1.162   0.445   9.740 -0.3655  0.1830 -1.2459
38439SOL    HW233310   1.012   0.453   9.721 -0.4469 -1.2474 -1.2979
38440SOL     OW33311   6.760   5.116   2.629  0.0406  0.5128  0.7721
38440SOL    HW133312   6.705   5.095   2.705 -1.0608  0.5803  0.0222
38440SOL    HW233313   6.830   5.172   2.664  1.7514 -2.4341  2.4023
38441SOL     OW33314   7.973   6.976  13.004 -0.0472  0.3531  0.1946
38441SOL    HW133315   8.032   6.998  12.932 -0.7952  1.5565 -0.0839
38441SOL    HW233316   8.026   6.991  13.083  0.3704  0.3032 -0.0706
38442SOL     OW33317  11.902   1.700   0.101  0.2367  0.0424  0.0263
38442SOL    HW133318  11.882   1.741   0.017 -0.9495  1.4735  0.9708
38442SOL    HW233319  11.817   1.693   0.145  1.0827  1.1563  1.9179
38443SOL     OW33320   0.462   9.173  12.934  0.4348 -0.3999 -0.4517
38443SOL    HW133321   0.497   9.100  12.985  0.8492 -1.3006 -1.9702
38443SOL    HW233322   0.485   9.251  12.985 -2.4200 -1.3497  2.6294
38444SOL     OW33323   0.392   0.762  13.559 -0.0919  0.0355  0.4811
38444SOL    HW133324   0.357   0.687  13.607  2.0801 -0.4150  1.4878
38444SOL    HW233325   0.315   0.816  13.539 -1.4210 -1.2338  1.8822
38445SOL     OW33326  10.191   8.231   8.000 -0.1326 -0.4014 -0.0477
38445SOL    HW133327  10.279   8.198   8.019 -0.5942 -0.6552  1.7950
38445SOL    HW233328  10.204   8.325   7.986  0.4598 -0.4820 -0.0917
38446SOL     OW33329  11.799   5.442   7.787  0.2642 -0.2598  0.0199
38446SOL    HW133330  11.768   5.357   7.754 -0.0855 -0.3790  0.6403
38446SOL    HW233331  11.872   5.465   7.729 -0.3080 -0.4849 -0.7963
38447SOL     OW33332  10.544   1.639   3.477 -0.1363 -0.1628  0.2947
38447SOL    HW133333  10.610   1.652   3.409 -0.2336  1.1212  0.4249
38447SOL    HW233334  10.464   1.678   3.440 -1.5613 -3.7688 -0.8759
38448SOL     OW33335   2.527  13.553  10.689 -0.1790  0.0279 -0.1497
38448SOL    HW133336   2.554  13.461  10.696 -0.8830 -0.2595 -1.0646
38448SOL    HW233337   2.437  13.554  10.719  0.0208  0.5365  0.4479
38449SOL     OW33338   5.633   5.707  12.684 -0.1568  0.0769 -0.3019
38449SOL    HW133339   5.694   5.718  12.611  1.0836  1.8670  0.9109
38449SOL    HW233340   5.681   5.654  12.748 -0.2224  0.6306  0.2272
38450SOL     OW33341  13.063   1.401   4.392 -0.1398  0.6357 -0.0474
38450SOL    HW133342  13.084   1.411   4.485 -1.2429  1.4837  0.1406
38450SOL    HW233343  12.982   1.451   4.381 -1.8588 -2.1040 -0.7786
38451SOL     OW33344   1.892   4.993   9.983  0.3185 -0.0949 -0.4854
38451SOL    HW133345   1.807   5.029   9.957 -0.0767 -1.3327 -1.0005
38451SOL    HW233346   1.946   4.999   9.904  1.4903  2.7149  0.4046
38452SOL     OW33347  13.855   1.046   3.397  0.1314 -0.5323  0.9597
38452SOL    HW133348  13.890   1.107   3.461 -1.4836  2.1283 -0.5116
38452SOL    HW233349  13.799   1.099   3.341  0.1462 -3.0112 -1.6620
38453SOL     OW33350  13.572   3.179   2.139 -0.0111 -0.4575 -0.3572
38453SOL    HW133351  13.487   3.137   2.128 -0.8141  1.2322 -0.9675
38453SOL    HW233352  13.565   3.261   2.090  2.8056 -1.3123 -2.4290
38454SOL     OW33353   8.989  11.487   9.172  0.1192  0.0755  0.1625
38454SOL    HW133354   9.027  11.550   9.111  0.6917  0.2153  0.6438
38454SOL    HW233355   8.990  11.532   9.256 -1.2795  0.1294  0.1638
38455SOL     OW33356   9.002   3.152  11.890 -0.1985  0.0257  0.7198
38455SOL    HW133357   9.079   3.136  11.945 -1.3912 -2.3784  1.8610
38455SOL    HW233358   9.009   3.086  11.820 -0.5495  0.7066  0.0250
38456SOL     OW33359   1.804  12.000   1.866 -0.3695 -0.0761  0.0022
38456SOL    HW133360   1.773  11.981   1.954  1.2166  0.8722  0.8121
38456SOL    HW233361   1.766  12.085   1.845  0.6517  0.5149  0.4998
38457SOL     OW33362  13.806  11.366   2.853  0.5268  0.2482  0.1416
38457SOL    HW133363  13.802  11.310   2.930  2.0260  1.5828  1.2515
38457SOL    HW233364  13.899  11.374   2.834  0.2312  0.7836 -1.1924
38458SOL     OW33365   8.751  12.347   0.549 -0.0570 -0.0358 -0.1271
38458SOL    HW133366   8.745  12.434   0.588  1.8805  0.5879 -1.0992
38458SOL    HW233367   8.800  12.296   0.614  1.9530  0.6267 -1.0400
38459SOL     OW33368  12.331  10.583   7.737 -0.0280 -0.6324 -0.3250
38459SOL    HW133369  12.262  10.522   7.709  0.4881 -1.4363  0.1333
38459SOL    HW233370  12.286  10.642   7.799 -0.8273  0.2678 -1.6944
38460SOL     OW33371   8.600   1.589   5.747  0.8561  0.3389  0.1868
38460SOL    HW133372   8.514   1.581   5.705  1.4260 -0.2148 -0.9297
38460SOL    HW233373   8.619   1.501   5.781  0.6189  0.6650  1.1890
38461SOL     OW33374   1.975  11.105   3.049 -0.2900 -0.5572  0.4084
38461SOL    HW133375   1.919  11.071   2.980 -0.0041  0.2402 -0.2370
38461SOL    HW233376   1.945  11.195   3.063  0.0391 -0.5185  0.9124
38462SOL     OW33377  12.992   8.674  13.168 -0.2230 -0.2504 -0.6486
38462SOL    HW133378  12.958   8.690  13.256 -2.5384 -1.6605 -1.1807
38462SOL    HW233379  12.931   8.721  13.111  0.0947 -0.9567 -1.5878
38463SOL     OW33380   0.240  11.560   5.881  0.4224  0.5912 -0.5892
38463SOL    HW133381   0.187  11.639   5.892  0.1369  0.0597  2.5129
38463SOL    HW233382   0.190  11.491   5.922  1.8735 -0.7021 -0.8961
38464SOL     OW33383   8.256   2.646   5.372 -0.6507  0.4797  0.4532
38464SOL    HW133384   8.190   2.715   5.362 -0.4986  0.7929  1.4777
38464SOL    HW233385   8.251   2.596   5.291 -1.6613  0.9248  0.2255
38465SOL     OW33386  11.243  12.621   2.622  0.3705  0.2566  0.5190
38465SOL    HW133387  11.290  12.642   2.542  0.0165  0.8786  0.4700
38465SOL    HW233388  11.288  12.544   2.657  1.2820  0.7094  0.3577
38466SOL     OW33389   2.338  11.971  11.519  0.2372 -0.5836 -0.8834
38466SOL    HW133390   2.293  11.887  11.525 -0.3567 -0.3525 -1.8357
38466SOL    HW233391   2.270  12.033  11.494  0.6037  0.2586  0.1558
38467SOL     OW33392   6.497   2.124   0.216  0.1204 -0.3172  0.8927
38467SOL    HW133393   6.499   2.152   0.124  3.1419 -2.9272 -0.0172
38467SOL    HW233394   6.429   2.057   0.219 -1.1490  0.9375  1.0254
38468SOL     OW33395   0.160   4.292  13.987  0.2488 -0.8910  0.4303
38468SOL    HW133396   0.100   4.343  14.042  0.0705  0.1188 -0.6619
38468SOL    HW233397   0.116   4.208  13.974 -0.1992 -0.7387  0.9419
38469SOL     OW33398  11.704   2.726   5.908 -0.2668  0.0517 -0.2239
38469SOL    HW133399  11.768   2.681   5.963  0.3320  0.7141 -0.3632
38469SOL    HW233400  11.744   2.811   5.889 -0.3215 -0.2721 -1.9362
38470SOL     OW33401   7.056   2.581   0.060  0.5933  0.3405  1.0737
38470SOL    HW133402   7.123   2.650   0.062  0.0755  0.9750 -1.0011
38470SOL    HW233403   7.072   2.534  -0.022 -1.5455  0.5854  0.4537
38471SOL     OW33404   2.263  11.108   1.302 -0.3207 -0.1929 -0.5191
38471SOL    HW133405   2.312  11.032   1.269  0.3907 -0.0633  0.1961
38471SOL    HW233406   2.302  11.183   1.257  1.4026  0.1070  1.3292
38472SOL     OW33407  14.060   8.913   4.945 -0.0205  0.7836 -0.3111
38472SOL    HW133408  14.119   8.913   4.869  0.7036  0.5543  0.2446
38472SOL    HW233409  14.103   8.858   5.009 -0.5341  1.1404  0.3531
38473SOL     OW33410   0.282   2.775   9.035 -0.0497  0.3114  0.6404
38473SOL    HW133411   0.203   2.737   8.997  0.7107  0.0240 -0.7125
38473SOL    HW233412   0.323   2.702   9.082  0.1566  0.0803  0.1057
38474SOL     OW33413   5.310   8.874   0.882 -0.4117  0.2229  0.5194
38474SOL    HW133414   5.403   8.896   0.892 -0.7534  1.1209  2.1820
38474SOL    HW233415   5.301   8.845   0.792  1.5197 -0.0514  0.3806
38475SOL     OW33416   4.268   0.517   8.543  0.4169 -0.2693 -0.5776
38475SOL    HW133417   4.316   0.473   8.473  1.3260  0.0398 -0.1643
38475SOL    HW233418   4.292   0.609   8.535  1.6534 -0.4192  0.9836
38476SOL     OW33419  10.911   1.529   3.723 -0.3421  0.0485  0.3728
38476SOL    HW133420  10.963   1.571   3.654 -1.6391 -0.5185 -0.9906
38476SOL    HW233421  10.879   1.602   3.777  0.1723  0.5409  0.0281
38477SOL     OW33422   4.243   8.707   1.763  0.1069 -0.7832  0.0493
38477SOL    HW133423   4.275   8.774   1.703 -2.0933 -0.6603 -1.1027
38477SOL    HW233424   4.295   8.719   1.842  0.8445  1.2389 -0.6679
38478SOL     OW33425   3.358   0.587  11.050 -0.0409  0.0603 -1.1974
38478SOL    HW133426   3.342   0.612  10.959  0.8195  0.9297 -1.1268
38478SOL    HW233427   3.403   0.663  11.088  0.2894 -0.5908 -0.2567
38479SOL     OW33428   1.669  12.015   0.777 -0.1087 -0.1970 -0.0147
38479SOL    HW133429   1.589  12.062   0.754  0.5482  0.9752  0.0250
38479SOL    HW233430   1.735  12.047   0.714  0.4802 -0.6839  0.3421
38480SOL     OW33431  12.982   2.146   6.714  0.2277  0.1228 -0.0413
38480SOL    HW133432  13.014   2.216   6.771  1.2120  0.8994 -1.4838
38480SOL    HW233433  12.989   2.182   6.625 -1.7215 -0.8657 -0.6529
38481SOL     OW33434   3.084   5.511   0.845 -0.1641 -0.1593  0.1308
38481SOL    HW133435   3.048   5.596   0.821 -0.8349 -0.9569 -1.7949
38481SOL    HW233436   3.024   5.447   0.808  0.6467 -1.5040  1.0414
38482SOL     OW33437   3.287   5.520  13.125 -0.5855  0.3698 -0.0614
38482SOL    HW133438   3.364   5.475  13.159  0.5093  1.5318 -0.8934
38482SOL    HW233439   3.274   5.483  13.038 -0.5043  0.7188 -0.2214
38483SOL     OW33440   7.676   8.162   7.727 -0.1506 -0.1178 -0.6019
38483SOL    HW133441   7.720   8.152   7.811 -0.3098  0.9148 -0.3820
38483SOL    HW233442   7.584   8.175   7.750  0.0535  2.1077 -0.7791
38484SOL     OW33443  12.079   0.823  12.502 -0.2204  0.4481  0.1679
38484SOL    HW133444  12.173   0.818  12.523 -0.0083  2.3785 -0.1150
38484SOL    HW233445  12.070   0.772  12.421  0.7810  1.0304 -0.3369
38485SOL     OW33446   4.860   8.863   9.910 -0.0711 -0.3162  0.3502
38485SOL    HW133447   4.826   8.806   9.841 -0.6212 -1.1655  1.2936
38485SOL    HW233448   4.785   8.880   9.967  0.3363  0.4999  0.6604
38486SOL     OW33449  10.199   1.354   6.459 -0.0155 -0.7035  0.1656
38486SOL    HW133450  10.137   1.393   6.397  0.3849  0.6033  0.5520
38486SOL    HW233451  10.275   1.332   6.406  0.4172  0.6231  0.1997
38487SOL     OW33452  10.632   9.160  12.968  0.2066 -0.1677 -0.0366
38487SOL    HW133453  10.619   9.097  13.038  1.9727 -0.5232  0.0242
38487SOL    HW233454  10.726   9.154  12.948  0.0407  1.0747 -1.3259
38488SOL     OW33455  13.429  11.076   3.582 -0.5096 -0.0203 -0.0188
38488SOL    HW133456  13.431  11.055   3.488  1.5326 -3.7013  0.6313
38488SOL    HW233457  13.477  11.159   3.589 -2.6421  1.5446 -2.3317
38489SOL     OW33458  11.869   1.655   6.836 -0.2664 -0.3240 -0.0114
38489SOL    HW133459  11.827   1.583   6.883  0.3548  1.0124  2.8476
38489SOL    HW233460  11.939   1.613   6.786  0.1239 -1.7737  1.6289
38490SOL     OW33461   2.800   3.364   5.403 -0.3652  0.3666  0.1376
38490SOL    HW133462   2.797   3.380   5.497  1.0177 -0.7358  0.3872
38490SOL    HW233463   2.764   3.445   5.364 -2.5054  0.2027  1.6088
38491SOL     OW33464   2.914   1.408  11.181  0.1177  0.0179 -0.5212
38491SOL    HW133465   2.871   1.347  11.240 -0.2858 -1.3880 -2.1907
38491SOL    HW233466   2.843   1.460  11.143 -0.0669 -1.3197 -2.1718
38492SOL     OW33467  11.535   6.033   0.078  0.9865 -0.0044 -0.5131
38492SOL    HW133468  11.588   6.082   0.014  0.1108  0.4068 -0.9496
38492SOL    HW233469  11.525   5.947   0.038  2.8719 -0.7193  0.4453
38493SOL     OW33470   5.538  10.186   7.142  0.1181 -0.0656  0.0971
38493SOL    HW133471   5.492  10.112   7.181 -0.7123  0.3656 -0.0360
38493SOL    HW233472   5.479  10.217   7.073  1.1344 -0.2284 -0.8740
38494SOL     OW33473   1.948   4.429  13.515 -0.2613  0.3302 -0.3492
38494SOL    HW133474   1.867   4.455  13.471 -1.2347 -0.1298  1.1193
38494SOL    HW233475   1.920   4.375  13.588  1.2989  1.1605  0.9244
38495SOL     OW33476  10.531   8.606   2.998  0.3188  0.2012  0.2392
38495SOL    HW133477  10.602   8.559   3.042 -0.2803  1.1623  2.3750
38495SOL    HW233478  10.574   8.657   2.930  1.5828  0.1463  0.9729
38496SOL     OW33479   7.213  12.202   1.400 -0.1282 -0.0437  0.1287
38496SOL    HW133480   7.216  12.297   1.416  0.9452 -0.2540  1.2910
38496SOL    HW233481   7.127  12.188   1.360  0.4081  1.6731 -1.8707
38497SOL     OW33482  10.195   4.083   2.700 -0.8571 -0.0737 -0.0516
38497SOL    HW133483  10.249   4.153   2.662  0.8460 -0.4847  1.4832
38497SOL    HW233484  10.168   4.031   2.625 -0.6579  1.1991 -1.0469
38498SOL     OW33485  10.284  12.986   6.992  0.4036  0.4799  0.0592
38498SOL    HW133486  10.271  13.078   6.968 -0.1752  0.5198  0.5087
38498SOL    HW233487  10.356  12.988   7.055  0.8085  0.5538 -0.3996
38499SOL     OW33488   7.259  13.936  12.156  0.1921 -0.1902  0.0929
38499SOL    HW133489   7.229  13.851  12.124 -0.1075  0.2917 -0.9383
38499SOL    HW233490   7.285  13.919  12.247  1.4331 -1.6644 -0.4952
38500SOL     OW33491  10.922  13.373  13.578 -0.1582 -0.0449  0.3951
38500SOL    HW133492  10.868  13.295  13.593  0.8379 -0.5212  1.6242
38500SOL    HW233493  10.985  13.373  13.650 -0.5574  2.2779  0.8026
38501SOL     OW33494   8.589   8.252   1.559 -0.1475  0.2335 -0.4199
38501SOL    HW133495   8.542   8.317   1.506 -0.7482  0.4477  0.3597
38501SOL    HW233496   8.681   8.279   1.553 -0.5788  2.5056  1.6355
38502SOL     OW33497  12.750   1.854   0.451  0.8573  0.2012 -0.4034
38502SOL    HW133498  12.737   1.902   0.369 -0.0753 -0.1806 -0.4914
38502SOL    HW233499  12.803   1.913   0.506  1.9157  0.2596 -1.4464
38503SOL     OW33500   4.805  13.135  11.292 -0.2987 -0.6353  0.2738
38503SOL    HW133501   4.776  13.055  11.336 -2.0125 -1.8237 -2.6928
38503SOL    HW233502   4.867  13.104  11.226 -0.2967  0.5765 -0.3160
38504SOL     OW33503   2.832   4.044  11.101  0.5236 -0.3138  0.0419
38504SOL    HW133504   2.775   4.119  11.086 -0.6357 -0.9095  1.2253
38504SOL    HW233505   2.891   4.072  11.171  0.8675 -0.1101 -0.3304
38505SOL     OW33506   8.522   2.132  13.576 -0.6963  0.2722  0.0499
38505SOL    HW133507   8.427   2.142  13.573 -1.0173 -1.8488  1.0593
38505SOL    HW233508   8.546   2.158  13.665 -0.2146  1.3183 -0.3599
38506SOL     OW33509   4.769   4.210   6.881 -0.0835 -0.7151 -0.5144
38506SOL    HW133510   4.690   4.158   6.865 -1.4146  0.9467  0.3051
38506SOL    HW233511   4.772   4.220   6.976 -0.9162  2.1313 -0.7049
38507SOL     OW33512   0.690   2.570   1.540 -0.2400  0.0794 -0.2464
38507SOL    HW133513   0.654   2.497   1.488 -0.5604 -0.5919  0.8760
38507SOL    HW233514   0.614   2.607   1.584  0.0382  0.5937 -0.1983
38508SOL     OW33515  13.778   5.069  14.057  0.0574  0.1390 -0.4516
38508SOL    HW133516  13.853   5.090  14.112 -1.4809 -0.2710  1.9786
38508SOL    HW233517  13.747   5.153  14.025  1.5091  0.3106 -1.5147
38509SOL     OW33518   9.221  12.669   1.033 -0.5144 -0.3421 -0.4349
38509SOL    HW133519   9.299  12.639   1.078 -0.5123 -0.1115 -0.2801
38509SOL    HW233520   9.195  12.748   1.080 -0.9302 -0.5036 -0.3844
38510SOL     OW33521   5.509   4.368   4.482 -0.1965 -0.4359  0.1486
38510SOL    HW133522   5.428   4.386   4.434 -0.4961  2.7968  1.5819
38510SOL    HW233523   5.479   4.342   4.570  0.3045 -0.2089  0.3874
38511SOL     OW33524  12.877  10.749   6.066 -0.3840 -0.0357  0.6545
38511SOL    HW133525  12.963  10.710   6.052 -0.9555 -1.2812  0.5076
38511SOL    HW233526  12.854  10.724   6.156 -0.8943 -0.3157  0.4474
38512SOL     OW33527   6.954   5.245  12.421  0.3666 -0.1775  0.4490
38512SOL    HW133528   7.008   5.266  12.346 -1.4328  0.7304 -0.6420
38512SOL    HW233529   6.912   5.327  12.445 -1.2321 -1.0319  0.6804
38513SOL     OW33530   0.427  12.611   6.025 -0.0622 -0.0213  0.2591
38513SOL    HW133531   0.446  12.564   5.943  1.2598  0.1495  0.4315
38513SOL    HW233532   0.348  12.570   6.058 -0.4769 -0.2751 -0.9735
38514SOL     OW33533   4.422  10.226   9.243  0.5644 -0.0323 -0.5645
38514SOL    HW133534   4.378  10.141   9.239 -1.4425  0.9564 -0.6021
38514SOL    HW233535   4.443  10.237   9.336  1.8037 -1.0000 -0.7047
38515SOL     OW33536   2.411   8.003  10.834  0.1915 -0.0660  0.1722
38515SOL    HW133537   2.419   8.095  10.860  0.7878  0.6961 -2.4368
38515SOL    HW233538   2.371   7.961  10.910 -1.2725  2.5681  1.0101
38516SOL     OW33539   9.039  13.142  13.760 -0.4247  0.4591 -0.3743
38516SOL    HW133540   9.007  13.227  13.790  0.0917  0.0347  1.5055
38516SOL    HW233541   9.001  13.079  13.822 -0.1773 -0.6015 -1.2674
38517SOL     OW33542   1.741  13.354   9.422 -0.0266 -0.7839  0.1648
38517SOL    HW133543   1.692  13.374   9.342  0.5699 -2.9476 -0.8322
38517SOL    HW233544   1.730  13.259   9.433  0.2335 -0.5920  2.4566
38518SOL     OW33545   4.275   9.077   0.610 -0.4900  0.0793  0.1081
38518SOL    HW133546   4.256   8.986   0.634 -0.0919  0.1995  0.9303
38518SOL    HW233547   4.323   9.071   0.528  0.5529 -0.5330  0.7460
38519SOL     OW33548   5.937   0.333   8.435  0.1122  0.5472 -0.0748
38519SOL    HW133549   6.012   0.391   8.449 -0.0695  0.6036  0.7051
38519SOL    HW233550   5.869   0.391   8.399  0.0621  0.7404  0.3241
38520SOL     OW33551  10.486   0.637   6.419 -0.4839  0.1503  0.1808
38520SOL    HW133552  10.425   0.646   6.345 -1.7847 -0.8754  1.0865
38520SOL    HW233553  10.500   0.543   6.426  1.7878  0.3986 -0.4291
38521SOL     OW33554   1.470  10.587  10.401  0.0679 -0.0119  0.0734
38521SOL    HW133555   1.471  10.617  10.311 -0.3353  0.7894  0.3191
38521SOL    HW233556   1.561  10.593  10.430  0.2727 -0.7142 -0.4128
38522SOL     OW33557   2.396   1.146   5.784 -0.0874  0.2229 -0.5265
38522SOL    HW133558   2.473   1.155   5.841 -0.6364 -0.0380  0.2785
38522SOL    HW233559   2.344   1.077   5.825  0.3197 -1.2019 -2.3213
38523SOL     OW33560  12.036   5.982   5.951  0.3708 -0.2579 -0.3646
38523SOL    HW133561  11.945   5.983   5.919 -0.4494  0.6215  1.7990
38523SOL    HW233562  12.075   5.905   5.910 -2.4177 -2.7858  1.3172
38524SOL     OW33563   1.220  13.260   1.271  0.2892 -0.0891 -0.5259
38524SOL    HW133564   1.234  13.345   1.230 -0.2358 -0.5512 -1.7027
38524SOL    HW233565   1.280  13.259   1.346 -0.6803  1.8505  0.3482
38525SOL     OW33566   8.897   1.486   7.347 -0.6323 -0.1007 -0.0497
38525SOL    HW133567   8.980   1.441   7.334  0.1090  0.7626  1.4285
38525SOL    HW233568   8.832   1.416   7.352  0.0610 -0.8152 -0.6840
38526SOL     OW33569  12.958   3.498   8.161 -0.0308 -0.3553 -0.6524
38526SOL    HW133570  12.978   3.538   8.076  0.6832  0.6666 -0.0321
38526SOL    HW233571  12.934   3.573   8.217 -0.8243 -1.0463 -0.0345
38527SOL     OW33572   6.546   1.168   0.770  0.2034 -0.3248 -0.9197
38527SOL    HW133573   6.452   1.180   0.756  0.4752 -0.1762 -2.8955
38527SOL    HW233574   6.575   1.116   0.695  1.3604 -2.2360  0.7445
38528SOL     OW33575  10.046   8.076   2.831  0.2223  0.0532  0.2922
38528SOL    HW133576  10.073   8.134   2.760 -1.1874 -0.3495 -0.6186
38528SOL    HW233577  10.079   8.117   2.910  0.4876  1.3383 -0.4667
38529SOL     OW33578   9.541  11.529   1.175 -0.2200 -0.1434  0.2882
38529SOL    HW133579   9.617  11.585   1.156 -0.0904 -0.3741  0.1273
38529SOL    HW233580   9.467  11.577   1.137 -0.1041 -0.0938  0.1231
38530SOL     OW33581   1.302   7.603   9.261  0.1584  0.5565 -0.1460
38530SOL    HW133582   1.381   7.575   9.307 -1.7442 -0.9826  2.4652
38530SOL    HW233583   1.290   7.538   9.192  0.8926  0.5531 -0.2830
38531SOL     OW33584   2.932   0.220  10.478  0.1419 -0.4743  0.5184
38531SOL    HW133585   2.845   0.211  10.517 -0.6602  1.2068 -0.7451
38531SOL    HW233586   2.982   0.267  10.544 -0.4567  0.1367  0.5538
38532SOL     OW33587  11.394  10.403   1.863  0.6589 -0.0556  0.2908
38532SOL    HW133588  11.445  10.467   1.912 -1.0827 -0.9321  3.5097
38532SOL    HW233589  11.303  10.433   1.871  0.1665 -0.8944 -1.5139
38533SOL     OW33590   6.015   0.109  12.454  0.2364  0.3100 -0.3489
38533SOL    HW133591   5.929   0.111  12.413  0.6711 -0.2898 -1.3294
38533SOL    HW233592   6.061   0.184  12.418 -0.1966  1.2431  0.9604
38534SOL     OW33593   5.369   1.258   5.441 -0.3867  0.1354  0.3084
38534SOL    HW133594   5.445   1.281   5.494  2.1519 -0.0558 -2.9698
38534SOL    HW233595   5.349   1.336   5.390 -0.6779 -0.6180 -0.7821
38535SOL     OW33596   1.476   8.261   5.855  0.1493 -0.2804  0.3713
38535SOL    HW133597   1.403   8.247   5.794 -0.3793 -0.3857  1.0127
38535SOL    HW233598   1.513   8.174   5.868 -0.5577 -0.4740  1.1906
38536SOL     OW33599   9.438   2.771   9.207 -0.2000  0.2264  0.3541
38536SOL    HW133600   9.390   2.723   9.140  2.0293  0.6509 -1.6927
38536SOL    HW233601   9.392   2.751   9.289 -2.2265 -1.4215 -1.0874
38537SOL     OW33602  12.750   9.675   1.986  0.1048 -0.0119 -0.6949
38537SOL    HW133603  12.808   9.724   1.928  0.6847 -0.2350 -0.3196
38537SOL    HW233604  12.806   9.606   2.023 -0.2702  0.0671  0.0508
38538SOL     OW33605  11.311  11.829   8.202  0.3485  0.9692 -0.2370
38538SOL    HW133606  11.372  11.775   8.152  0.4995  0.6101  0.3265
38538SOL    HW233607  11.231  11.829   8.150  0.2982  0.0763 -0.1727
38539SOL     OW33608   9.553   8.403   0.140  0.5684 -0.1282  0.4740
38539SOL    HW133609   9.637   8.360   0.157 -0.3561 -1.0002  3.5401
38539SOL    HW233610   9.489   8.331   0.142 -0.3655  0.6048 -1.1182
38540SOL     OW33611  12.119  13.687   5.520 -0.1261  0.0572  0.2264
38540SOL    HW133612  12.069  13.639   5.454  0.7865  0.5517 -0.8522
38540SOL    HW233613  12.211  13.675   5.495  0.2522  0.1197  1.5066
38541SOL     OW33614   6.249   8.971   6.512 -0.6419  0.2510  0.5119
38541SOL    HW133615   6.284   8.932   6.432  0.7636 -2.2103  2.2085
38541SOL    HW233616   6.154   8.969   6.500 -0.4500  0.9313 -1.4799
38542SOL     OW33617   5.933   4.253   5.463 -0.3777 -0.2735 -0.0075
38542SOL    HW133618   5.860   4.292   5.512  0.4854  0.0163  1.0834
38542SOL    HW233619   5.953   4.173   5.511  1.0153  0.4254  0.6086
38543SOL     OW33620  10.305   7.794  12.892  0.4021  0.1556  0.2462
38543SOL    HW133621  10.368   7.738  12.937  0.9330 -1.0303 -1.8311
38543SOL    HW233622  10.330   7.883  12.915  2.3481 -0.3262  0.1046
38544SOL     OW33623   6.148  13.117   8.524  0.6971 -0.0462 -0.0900
38544SOL    HW133624   6.189  13.068   8.595  0.7965  2.5728  1.8224
38544SOL    HW233625   6.069  13.067   8.502 -1.2763  0.6785  4.3700
38545SOL     OW33626   0.274   2.589   4.781  0.1795  0.1138 -0.0110
38545SOL    HW133627   0.320   2.536   4.846  0.5728 -0.3807 -0.6721
38545SOL    HW233628   0.335   2.593   4.707  0.8716  2.8469  0.5723
38546SOL     OW33629   7.971   8.815   8.579  0.7473  0.5380  0.2603
38546SOL    HW133630   7.989   8.778   8.493  0.3108  0.2521  0.2872
38546SOL    HW233631   8.014   8.756   8.640  0.7723  0.5534  0.2569
38547SOL     OW33632   9.622   7.011   9.847 -0.1345  0.3804 -0.2700
38547SOL    HW133633   9.698   6.978   9.894  0.0991  1.0130 -0.2039
38547SOL    HW233634   9.556   6.942   9.857  0.1959  0.1375  0.2478
38548SOL     OW33635  12.257   4.861  13.779 -0.3720  0.4589  0.4508
38548SOL    HW133636  12.237   4.943  13.733 -0.2261 -0.7231 -1.8649
38548SOL    HW233637  12.220   4.873  13.866 -0.3208  2.9901  0.1964
38549SOL     OW33638  10.998   7.762   8.560  0.1920 -0.0802  0.0056
38549SOL    HW133639  11.054   7.798   8.629 -0.9816 -0.8683  1.4080
38549SOL    HW233640  10.925   7.721   8.606 -0.1859 -1.4127 -1.6587
38550SOL     OW33641   1.799  12.812   9.982 -0.4307 -0.1466 -0.1191
38550SOL    HW133642   1.837  12.895  10.008  2.3509 -1.1488 -0.5621
38550SOL    HW233643   1.819  12.752  10.054 -2.7363 -0.3965  0.3789
38551SOL     OW33644   5.452   7.906   2.643 -0.0921  0.0424 -0.4719
38551SOL    HW133645   5.418   7.942   2.725  1.1622  1.0331 -0.3685
38551SOL    HW233646   5.456   7.812   2.658  1.9413  0.3506  1.3551
38552SOL     OW33647   6.381  12.063   6.519  0.9579  0.0983 -0.3987
38552SOL    HW133648   6.454  12.023   6.567  0.9069  0.7158  0.1976
38552SOL    HW233649   6.308  12.061   6.580  0.8690  0.8199 -0.4739
38553SOL     OW33650   2.825   2.753  12.633  0.1525  0.0268  0.5965
38553SOL    HW133651   2.811   2.658  12.634 -0.1704  0.0276 -1.0475
38553SOL    HW233652   2.868   2.769  12.549  0.7870  1.2655  1.1473
38554SOL     OW33653  10.372  13.517  13.114 -0.0444  0.1324  0.4536
38554SOL    HW133654  10.392  13.598  13.161  0.8664  0.1782  0.0199
38554SOL    HW233655  10.436  13.454  13.147 -0.8077 -0.4456  0.8579
38555SOL     OW33656  11.559   1.563  11.683 -0.0414  0.4447 -0.3753
38555SOL    HW133657  11.645   1.564  11.640 -0.0379 -0.0765 -0.3853
38555SOL    HW233658  11.517   1.643  11.653  0.9073  1.3329  0.5880
38556SOL     OW33659   3.495   7.243   0.422  0.1711  0.0402  0.2285
38556SOL    HW133660   3.438   7.170   0.398  0.4468 -0.5053  1.1991
38556SOL    HW233661   3.494   7.300   0.345 -0.6077 -0.6297 -0.2749
38557SOL     OW33662   6.207   5.128  11.843 -0.2987  0.1379 -0.3141
38557SOL    HW133663   6.245   5.212  11.815 -1.9974  0.9658 -0.2509
38557SOL    HW233664   6.209   5.074  11.764 -0.3769  0.6949 -0.7042
38558SOL     OW33665  12.577   5.126   4.604 -0.0807  0.5051 -0.3552
38558SOL    HW133666  12.651   5.176   4.637  0.0397  1.3604 -1.8496
38558SOL    HW233667  12.559   5.163   4.518 -2.2124  0.2863 -0.0653
38559SOL     OW33668  13.377   7.257   7.869  0.4094  0.3919  0.3301
38559SOL    HW133669  13.441   7.191   7.843  1.0992  1.0397  0.3597
38559SOL    HW233670  13.419   7.305   7.941 -0.1807  0.7033  0.4783
38560SOL     OW33671   3.279   9.185   6.034  0.0805 -0.1062 -0.1287
38560SOL    HW133672   3.201   9.171   6.087  1.2263  1.0464  1.9853
38560SOL    HW233673   3.352   9.161   6.090  1.3038 -0.9028 -1.9569
38561SOL     OW33674   8.218   7.706   9.016  0.3828  0.4851  0.3166
38561SOL    HW133675   8.257   7.644   8.953  0.5413  0.7227  0.1801
38561SOL    HW233676   8.274   7.783   9.011  1.2541 -0.0092  1.8023
38562SOL     OW33677   7.111   5.189   1.298  0.2528  0.3704  0.1807
38562SOL    HW133678   7.061   5.149   1.226  0.0479 -0.4025  0.7396
38562SOL    HW233679   7.199   5.201   1.261  0.2598 -0.3951 -0.0858
38563SOL     OW33680  11.387   9.512   5.053 -0.3035  0.1577  0.8523
38563SOL    HW133681  11.314   9.452   5.035  0.0561 -0.5179  1.5657
38563SOL    HW233682  11.352   9.574   5.117 -0.7863  0.9542 -0.1552
38564SOL     OW33683   4.039   7.677  13.374 -0.1541 -0.5908 -0.0985
38564SOL    HW133684   4.067   7.601  13.425  0.5501  1.1652  2.2772
38564SOL    HW233685   4.118   7.707  13.330 -0.0272 -0.1591  0.4252
38565SOL     OW33686   8.769   5.521  11.858 -0.1029  0.1781  0.1593
38565SOL    HW133687   8.798   5.571  11.781 -1.0954 -0.3966 -0.6176
38565SOL    HW233688   8.673   5.521  11.852 -0.1693 -0.4543  1.0283
38566SOL     OW33689  11.608   6.781   7.019 -0.1300  0.0212 -0.5040
38566SOL    HW133690  11.618   6.875   7.032  0.8052 -0.0104 -0.8767
38566SOL    HW233691  11.689   6.755   6.974  0.3496 -1.2383  1.0111
38567SOL     OW33692  13.960   9.423   5.237 -0.3928  0.6106  0.4568
38567SOL    HW133693  13.911   9.381   5.166 -0.5174  0.0063  0.8886
38567SOL    HW233694  13.972   9.513   5.208  0.4279  0.1360 -0.7864
38568SOL     OW33695  10.598   7.861   6.293 -0.0672  0.4169 -0.2289
38568SOL    HW133696  10.622   7.897   6.207 -2.5621  0.5795 -0.9295
38568SOL    HW233697  10.529   7.919   6.324 -0.0014 -0.3352  1.3810
38569SOL     OW33698  11.343  10.867   7.841  0.0314  0.0922  0.5776
38569SOL    HW133699  11.269  10.898   7.893  0.4606  0.9701  0.6935
38569SOL    HW233700  11.359  10.778   7.872 -0.6474  0.0756  0.9056
38570SOL     OW33701   7.503   7.255   7.969  0.4595  0.1775  0.2512
38570SOL    HW133702   7.487   7.216   7.883  2.0132  1.4614 -0.6752
38570SOL    HW233703   7.592   7.228   7.991 -0.6875 -2.1204  2.6339
38571SOL     OW33704   0.756   2.968   5.462  0.2732 -0.2194  0.4779
38571SOL    HW133705   0.790   2.878   5.456 -0.1888 -0.4034  0.5534
38571SOL    HW233706   0.713   2.971   5.547  1.9541  0.6701  1.3463
38572SOL     OW33707   3.929  11.710   6.408 -0.3305  0.1663 -0.0081
38572SOL    HW133708   3.941  11.704   6.313  0.5805  0.7875  0.0557
38572SOL    HW233709   3.843  11.750   6.419 -0.2718  0.4554 -0.5714
38573SOL     OW33710   4.803   5.072   2.695 -0.2304  0.3947 -0.0885
38573SOL    HW133711   4.788   5.005   2.762  1.7649  0.1138  0.1483
38573SOL    HW233712   4.727   5.066   2.637 -0.7855 -1.0773  0.7379
38574SOL     OW33713   0.336   8.192  12.430  0.7552  0.1774  0.1281
38574SOL    HW133714   0.424   8.222  12.451  1.2459 -0.2879 -1.1747
38574SOL    HW233715   0.346   8.099  12.409  0.0776  0.2755 -0.6878
38575SOL     OW33716  14.008  13.116  11.971 -0.0083 -0.0661 -0.2180
38575SOL    HW133717  14.017  13.106  12.066 -0.0475 -0.2455 -0.2337
38575SOL    HW233718  13.913  13.120  11.957 -0.1778 -3.0009 -0.5531
38576SOL     OW33719  12.623  12.189   1.412  0.5569 -0.1735  0.1341
38576SOL    HW133720  12.660  12.157   1.330 -0.3088  0.3069 -0.4484
38576SOL    HW233721  12.558  12.124   1.436  0.5370 -0.1139  0.2431
38577SOL     OW33722   2.693   9.037   3.999  0.9756 -0.0608 -0.0108
38577SOL    HW133723   2.657   8.977   4.064  1.9901 -2.0595 -1.1856
38577SOL    HW233724   2.620   9.056   3.940 -0.1577  2.3508  1.9659
38578SOL     OW33725   8.636  12.136  10.090 -0.2086  0.7301  0.0796
38578SOL    HW133726   8.608  12.060  10.038 -0.1758  1.1849 -0.6205
38578SOL    HW233727   8.558  12.163  10.137 -0.1317  0.0441  0.6152
38579SOL     OW33728   2.991  12.472  10.615 -0.4280  0.4967 -0.5864
38579SOL    HW133729   2.967  12.449  10.525 -0.6413 -0.3270 -0.3201
38579SOL    HW233730   3.082  12.501  10.608 -0.1607 -0.4015 -0.9356
38580SOL     OW33731   7.502   1.677   2.550  0.5854  0.4427 -0.0523
38580SOL    HW133732   7.474   1.765   2.576 -0.4316 -0.1947  1.0804
38580SOL    HW233733   7.422   1.634   2.521  1.0077 -0.2469 -0.2289
38581SOL     OW33734  10.025   0.443   7.387 -0.4009  0.5439  0.4698
38581SOL    HW133735   9.995   0.471   7.300  2.5176  1.5703 -0.3530
38581SOL    HW233736  10.003   0.350   7.392 -2.2884  0.8839 -0.5536
38582SOL     OW33737   5.454   9.658   5.561  0.1722  0.7549  0.2049
38582SOL    HW133738   5.431   9.587   5.621  1.6040  1.0181  1.0932
38582SOL    HW233739   5.425   9.737   5.605 -1.3034  0.7872 -0.7298
38583SOL     OW33740   4.183   0.956   0.992  0.0214  0.0462  0.0178
38583SOL    HW133741   4.193   0.972   0.898  0.5364  1.6381  0.3156
38583SOL    HW233742   4.224   1.031   1.034  1.2005 -1.3936  1.5608
38584SOL     OW33743   5.758   6.348   9.420 -0.2080 -0.3139 -0.2738
38584SOL    HW133744   5.807   6.383   9.346 -1.3011  1.8258 -0.0614
38584SOL    HW233745   5.825   6.323   9.483  0.7540 -2.4471 -2.0183
38585SOL     OW33746  11.702  13.022  13.292 -0.3038  0.2325 -0.6758
38585SOL    HW133747  11.717  13.112  13.265  0.0511  0.5373  0.4845
38585SOL    HW233748  11.789  12.989  13.316 -0.5771 -0.0458 -0.0178
38586SOL     OW33749   7.936   0.980   0.025  0.1044 -0.4337  0.1565
38586SOL    HW133750   7.881   0.941   0.093 -0.6157  0.2609 -0.0154
38586SOL    HW233751   7.878   0.987  -0.051 -0.0864  1.8343  0.4620
38587SOL     OW33752  10.572   2.223   9.086  0.2375 -0.5203  0.2420
38587SOL    HW133753  10.609   2.238   9.173  0.1675 -1.4419  0.4400
38587SOL    HW233754  10.500   2.162   9.100 -0.5003  0.2140 -0.3218
38588SOL     OW33755   1.976   9.671  13.932  0.4417  0.1423 -0.1122
38588SOL    HW133756   1.913   9.659  13.860  0.4776 -0.5937 -0.0332
38588SOL    HW233757   2.054   9.705  13.889 -0.1349  1.4838 -0.1524
38589SOL     OW33758  11.429   8.341   9.097  0.0866  0.2587 -0.5025
38589SOL    HW133759  11.369   8.394   9.045  0.3028 -0.3211 -1.3626
38589SOL    HW233760  11.516   8.375   9.076  0.0831  1.1955  0.8533
38590SOL     OW33761  12.934  11.837   7.603 -0.0013 -0.6286 -0.1751
38590SOL    HW133762  12.841  11.854   7.611  0.3799  1.4180  0.4710
38590SOL    HW233763  12.953  11.846   7.510 -0.4143 -0.9117 -0.2872
38591SOL     OW33764  13.660  13.628   8.396  0.3330  0.2090  0.0585
38591SOL    HW133765  13.694  13.635   8.485  0.0465 -0.9898  0.2831
38591SOL    HW233766  13.641  13.535   8.385  1.4450  0.1547 -1.6685
38592SOL     OW33767  12.748   6.589  13.474  0.2449 -0.6864  0.0036
38592SOL    HW133768  12.809   6.602  13.401  1.4464 -0.5482  1.0005
38592SOL    HW233769  12.722   6.678  13.499 -0.5639 -0.7509 -0.5505
38593SOL     OW33770  10.744  10.291   3.387  0.5202 -0.0210 -0.0594
38593SOL    HW133771  10.650  10.279   3.401  0.0548  1.3311 -1.7160
38593SOL    HW233772  10.763  10.379   3.420  1.2264 -0.2924  0.2847
38594SOL     OW33773   9.346   3.041   5.709  0.0536 -0.4380  0.5962
38594SOL    HW133774   9.313   3.012   5.624  1.5835  1.4058 -0.7409
38594SOL    HW233775   9.420   2.983   5.728 -0.4838 -1.0497  0.8434
38595SOL     OW33776  11.057  13.690   2.547 -0.2543  0.2957  0.0839
38595SOL    HW133777  11.116  13.733   2.609  1.3759 -0.5471 -0.8270
38595SOL    HW233778  10.980  13.747   2.543  0.4137  1.3283  1.4437
38596SOL     OW33779   7.091   4.837   1.185 -0.1047 -0.6557 -0.0498
38596SOL    HW133780   7.062   4.850   1.276 -0.8180  0.0062 -0.3549
38596SOL    HW233781   7.183   4.814   1.192 -0.1875 -0.7490  0.8545
38597SOL     OW33782   0.324   6.215  13.984 -0.0454  0.1188  1.1100
38597SOL    HW133783   0.356   6.280  14.046  0.1224  0.8247  0.3056
38597SOL    HW233784   0.348   6.250  13.898 -1.5314 -0.1154  0.5698
38598SOL     OW33785  11.654   8.892  10.809  0.8640 -0.5580 -0.4003
38598SOL    HW133786  11.596   8.967  10.823  2.0744  0.5593 -1.1082
38598SOL    HW233787  11.678   8.898  10.716  0.6497 -2.0766 -0.5688
38599SOL     OW33788  13.308   4.078   4.850 -0.1557 -0.0681 -0.7981
38599SOL    HW133789  13.344   4.079   4.761 -0.1155  2.2346 -0.8335
38599SOL    HW233790  13.224   4.124   4.842  0.1914  0.8348  0.4515
38600SOL     OW33791  13.886  13.801   3.102  0.4942  0.1452  0.5890
38600SOL    HW133792  13.860  13.730   3.043  0.0065  0.3645  0.5372
38600SOL    HW233793  13.961  13.765   3.150 -0.1496 -0.6482  1.0307
38601SOL     OW33794   2.291   8.027   3.794 -0.3067  0.3014  0.9435
38601SOL    HW133795   2.339   7.957   3.838 -0.6955  0.0342  0.9572
38601SOL    HW233796   2.345   8.050   3.718  0.3637  0.7607  1.5492
38602SOL     OW33797   7.016   8.177  13.158  0.0996 -0.1992  0.2509
38602SOL    HW133798   6.931   8.138  13.178 -0.8947  1.7469  0.0354
38602SOL    HW233799   7.015   8.262  13.201  1.9010 -0.0606  0.1206
38603SOL     OW33800   7.161   6.302   0.226 -0.1683 -0.2189 -0.3844
38603SOL    HW133801   7.116   6.310   0.142 -1.6895  0.0965  0.4271
38603SOL    HW233802   7.176   6.208   0.236 -2.0379 -0.5273 -0.0203
38604SOL     OW33803   5.024   5.958   6.027  0.2499 -0.0686 -0.0785
38604SOL    HW133804   4.932   5.978   6.045  0.5455  1.8238 -0.4677
38604SOL    HW233805   5.024   5.919   5.940 -0.0912  0.9959 -0.5695
38605SOL     OW33806   4.277   1.786   7.176  0.0866  0.4965 -0.3275
38605SOL    HW133807   4.257   1.779   7.083  0.3992  0.7714 -0.4181
38605SOL    HW233808   4.362   1.830   7.179  1.0386 -1.2944  0.0170
38606SOL     OW33809   3.730  13.997   4.548 -0.8614 -0.2495  0.1778
38606SOL    HW133810   3.648  13.988   4.597 -1.2778 -0.4487 -0.5354
38606SOL    HW233811   3.776  13.915   4.563 -1.1142 -0.4238  0.0145
38607SOL     OW33812   2.558   2.528   7.315 -0.7195  0.2737  0.3836
38607SOL    HW133813   2.579   2.622   7.309 -1.1742  0.2950 -2.6540
38607SOL    HW233814   2.468   2.522   7.282 -0.0648 -1.3827 -1.2389
38608SOL     OW33815   3.252   6.763  12.502  0.1989  0.0180  0.3448
38608SOL    HW133816   3.193   6.828  12.541 -0.4321  0.5618 -1.4129
38608SOL    HW233817   3.310   6.814  12.445  0.3425 -0.8372 -0.2954
38609SOL     OW33818  13.820   6.452   6.259 -0.4251  0.0140 -0.2848
38609SOL    HW133819  13.832   6.534   6.307 -0.9825  0.5525 -1.0456
38609SOL    HW233820  13.725   6.437   6.263 -0.2446 -1.0380  0.5537
38610SOL     OW33821   7.445   0.174   9.599  0.7649  0.0334  0.0771
38610SOL    HW133822   7.378   0.239   9.619  1.1450  0.0210  1.4741
38610SOL    HW233823   7.433   0.154   9.506 -0.7211  0.5207  0.1518
38611SOL     OW33824   0.960   2.096   5.547  0.4159  0.2809  0.2318
38611SOL    HW133825   0.986   2.006   5.566 -2.1501 -0.8524 -1.1188
38611SOL    HW233826   0.879   2.108   5.597  1.6931  2.6001  1.9566
38612SOL     OW33827  11.578   5.037   7.008  0.4710  0.7095  0.3652
38612SOL    HW133828  11.668   5.031   7.041  0.7106 -0.6475 -0.4223
38612SOL    HW233829  11.556   4.947   6.982 -1.1413  0.9997  0.5926
38613SOL     OW33830  10.574  12.516  12.028 -0.5157  0.2912  0.3298
38613SOL    HW133831  10.627  12.596  12.023  1.6008 -0.9790  1.2535
38613SOL    HW233832  10.596  12.478  12.113 -2.4323 -0.6813  0.4472
38614SOL     OW33833  12.879  11.229   6.763  0.4438 -0.5204 -0.3932
38614SOL    HW133834  12.864  11.264   6.675  1.0702  0.4369 -0.1325
38614SOL    HW233835  12.936  11.154   6.750  1.7867  0.5077 -0.7028
38615SOL     OW33836   8.941   8.791  11.188 -0.6435  0.0408 -0.4052
38615SOL    HW133837   8.845   8.781  11.190 -0.7709  0.8537  1.9327
38615SOL    HW233838   8.954   8.884  11.166 -0.4032 -0.0426 -0.6098
38616SOL     OW33839   4.009  13.916   8.938 -0.5631 -0.4871  0.5950
38616SOL    HW133840   4.018  13.826   8.969 -0.7265 -1.1662 -1.2005
38616SOL    HW233841   4.015  13.969   9.017 -0.7652 -2.0819  1.7382
38617SOL     OW33842   9.570   1.437   1.898  0.2919  0.1375  0.3286
38617SOL    HW133843   9.618   1.409   1.820 -1.0493  0.3131 -0.6084
38617SOL    HW233844   9.597   1.528   1.912  1.6053 -0.3320  0.9411
38618SOL     OW33845   9.588   9.512   3.127  0.3788  0.3811  0.5891
38618SOL    HW133846   9.586   9.606   3.113 -0.2412  0.5162  1.5038
38618SOL    HW233847   9.583   9.501   3.222  1.6100 -0.5479  0.5876
38619SOL     OW33848   7.634   5.911  13.790 -0.3140  0.2409  0.1894
38619SOL    HW133849   7.622   5.970  13.716 -0.0705  1.7500  1.3193
38619SOL    HW233850   7.729   5.908  13.804 -0.3895  0.3465  0.7464
38620SOL     OW33851   6.101   8.526   9.572 -0.5668 -0.0247 -0.2518
38620SOL    HW133852   6.061   8.450   9.529  0.7149 -0.3247 -0.9481
38620SOL    HW233853   6.125   8.494   9.659  0.2227 -0.5245 -0.6375
38621SOL     OW33854   9.793   8.318   0.130 -0.3961 -0.2459 -0.0535
38621SOL    HW133855   9.754   8.262   0.063 -0.5826 -0.0454 -0.1097
38621SOL    HW233856   9.800   8.261   0.207 -0.4214 -0.3995 -0.1642
38622SOL     OW33857  10.904  10.539   7.274  0.3493 -0.0982  0.2441
38622SOL    HW133858  10.943  10.478   7.337  0.6248  1.3578  1.5339
38622SOL    HW233859  10.829  10.577   7.320  1.5457  2.2537  0.3893
38623SOL     OW33860  11.835  12.905   5.769  0.8410 -0.2144 -0.2037
38623SOL    HW133861  11.822  12.816   5.735 -1.8046 -0.0149  0.0455
38623SOL    HW233862  11.795  12.962   5.703  0.8059  0.6226  0.5264
38624SOL     OW33863   7.887   4.641  12.740 -0.5565  0.0593 -0.1178
38624SOL    HW133864   7.893   4.675  12.829  2.1222  2.3145 -1.0152
38624SOL    HW233865   7.803   4.675  12.707 -0.0054  2.2285  0.5038
38625SOL     OW33866   3.739   4.407  13.178  0.0352  0.2996 -0.3251
38625SOL    HW133867   3.833   4.394  13.169 -0.1958 -0.6404 -1.6924
38625SOL    HW233868   3.722   4.402  13.272  1.2064 -0.5061 -0.1432
38626SOL     OW33869   1.895   5.959   9.657  0.4319 -0.0305 -0.0037
38626SOL    HW133870   1.948   5.975   9.736  1.5017 -1.3895 -0.4032
38626SOL    HW233871   1.881   6.046   9.620  0.9317  0.5188  1.0448
38627SOL     OW33872   3.169   3.463   0.471 -0.2581 -0.1709 -0.0702
38627SOL    HW133873   3.229   3.536   0.458 -2.1419  1.2833 -1.0548
38627SOL    HW233874   3.175   3.412   0.391 -0.8123  0.3491 -0.4474
38628SOL     OW33875   4.496   3.783   6.216  0.3023 -0.0330 -0.5872
38628SOL    HW133876   4.526   3.843   6.147  0.4750  0.0382 -0.4522
38628SOL    HW233877   4.522   3.826   6.297  2.3364 -1.2798 -0.5244
38629SOL     OW33878  13.337   7.433   7.591  0.2918 -0.1415  0.0150
38629SOL    HW133879  13.343   7.355   7.646  1.3936  0.3264  0.6063
38629SOL    HW233880  13.310   7.503   7.651 -2.0608 -0.2870 -0.7723
38630SOL     OW33881   1.731  10.688  11.871 -0.1198 -0.6207  0.1946
38630SOL    HW133882   1.675  10.699  11.794  0.3316 -0.1979 -0.0828
38630SOL    HW233883   1.748  10.777  11.902 -0.1218 -0.7775  0.6572
38631SOL     OW33884  12.427   3.195  11.816  0.3329  0.3211 -0.1850
38631SOL    HW133885  12.395   3.281  11.787 -0.6197 -0.1334 -0.5349
38631SOL    HW233886  12.437   3.145  11.735 -0.0456 -0.1974  0.0829
38632SOL     OW33887   1.012  12.068   9.173  0.1839  0.1559 -0.0790
38632SOL    HW133888   1.028  12.162   9.164 -0.6418  0.1691 -1.6645
38632SOL    HW233889   1.099  12.029   9.175  0.5137  0.8480 -0.6647
38633SOL     OW33890   0.412   5.120  13.469  0.1571 -1.0484 -0.4529
38633SOL    HW133891   0.330   5.121  13.519 -0.0088  0.3481 -0.6972
38633SOL    HW233892   0.415   5.033  13.430 -0.6910 -1.4810  0.3931
38634SOL     OW33893   9.973  13.175  12.036 -1.1143  0.4947  0.3308
38634SOL    HW133894   9.944  13.092  11.998 -0.4042  0.4875 -0.2205
38634SOL    HW233895  10.061  13.188  12.000 -0.6311  0.7593  1.5541
38635SOL     OW33896   1.692  11.975   6.064  0.3872 -0.2472 -0.2575
38635SOL    HW133897   1.745  11.897   6.045 -2.4143 -2.2776 -0.3503
38635SOL    HW233898   1.631  11.980   5.990  1.5959  3.2039 -1.1967
38636SOL     OW33899  10.682  12.488   6.721 -0.2968 -0.3520 -0.0635
38636SOL    HW133900  10.760  12.446   6.757 -1.2014 -0.6679  1.6463
38636SOL    HW233901  10.622  12.494   6.796 -1.1773  1.6362 -0.8731
38637SOL     OW33902  10.319   7.070   0.731  0.5983  0.4658  0.2125
38637SOL    HW133903  10.407   7.106   0.730  1.4939 -1.5861  0.4099
38637SOL    HW233904  10.331   6.975   0.724 -1.6426  0.1862 -0.8501
38638SOL     OW33905   4.082  13.181   7.246  0.0776 -0.0977 -0.5317
38638SOL    HW133906   4.051  13.271   7.242  2.2985  0.7427 -0.1802
38638SOL    HW233907   4.126  13.167   7.162 -1.2908 -1.3173 -1.0958
38639SOL     OW33908   3.819   7.058   3.707 -0.4652  0.2217 -0.4602
38639SOL    HW133909   3.860   7.002   3.772 -1.9763  1.5388  1.7483
38639SOL    HW233910   3.889   7.118   3.679  0.4404 -0.9743 -0.8231
38640SOL     OW33911  12.007   2.742   4.943 -0.4690  0.3569  0.1695
38640SOL    HW133912  11.925   2.751   4.992 -0.8316  0.3585 -0.4356
38640SOL    HW233913  11.980   2.720   4.854  0.2445 -1.6176  0.3997
38641SOL     OW33914  14.061  12.357  10.696 -0.0805  0.4323 -0.3708
38641SOL    HW133915  13.976  12.401  10.699 -0.7336 -0.7939 -0.0691
38641SOL    HW233916  14.092  12.357  10.786 -0.9264 -1.2549 -0.0444
38642SOL     OW33917   3.255  12.870  10.370 -0.0730  0.1061 -0.2368
38642SOL    HW133918   3.273  12.918  10.452  1.3026 -0.9428  0.0993
38642SOL    HW233919   3.223  12.937  10.310 -0.1414  1.0777  0.8444
38643SOL     OW33920  13.023  12.665   9.867  0.3906 -0.0882 -0.3917
38643SOL    HW133921  13.023  12.583   9.817 -0.3782 -0.6497  0.4833
38643SOL    HW233922  12.931  12.693   9.867  0.7040  0.9669 -0.9719
38644SOL     OW33923  12.938   5.505   8.338 -0.6332 -0.1535  0.5498
38644SOL    HW133924  12.903   5.591   8.361 -0.7460 -0.1527  0.3805
38644SOL    HW233925  12.989   5.479   8.414  0.1314  0.4482  0.2505
38645SOL     OW33926   7.910   0.161   8.036  0.2242 -0.0993 -0.0810
38645SOL    HW133927   7.930   0.072   8.067 -2.5253 -1.1770 -1.0615
38645SOL    HW233928   7.903   0.152   7.941  1.0025  1.4562 -0.3126
38646SOL     OW33929   6.494  12.641   2.482  0.1381  0.0999 -0.1016
38646SOL    HW133930   6.482  12.553   2.519 -0.9888  0.0981 -0.4211
38646SOL    HW233931   6.586  12.661   2.497  0.0463 -0.4809  1.4235
38647SOL     OW33932  11.766   8.893  10.497  0.0065  0.3123 -0.1938
38647SOL    HW133933  11.773   8.805  10.459 -0.8565 -0.4993  1.4391
38647SOL    HW233934  11.850   8.906  10.542  0.3977  0.6219 -0.9893
38648SOL     OW33935  10.115   4.129   6.759  0.2343  0.2386  0.0136
38648SOL    HW133936  10.037   4.170   6.720  0.2394 -1.7363 -2.3547
38648SOL    HW233937  10.108   4.037   6.733  2.1520 -0.4769  1.8285
38649SOL     OW33938   9.130  10.376   2.650 -0.3739  0.4035 -0.5473
38649SOL    HW133939   9.216  10.380   2.609  0.6813 -0.4067  1.4337
38649SOL    HW233940   9.147  10.395   2.742 -2.7063  2.8517 -0.4960
38650SOL     OW33941   3.036   8.655   5.316  0.7378 -0.0667  0.0267
38650SOL    HW133942   2.989   8.737   5.303  1.7004  0.3689 -0.8616
38650SOL    HW233943   2.967   8.588   5.316 -0.0902  0.7413  1.0586
38651SOL     OW33944  12.300  10.469  11.647  0.2358  0.3705 -0.0397
38651SOL    HW133945  12.341  10.550  11.676  0.7917 -0.2668  1.0190
38651SOL    HW233946  12.232  10.452  11.712  1.7422 -1.2710  1.2168
38652SOL     OW33947   9.885   9.103   3.803 -0.1096  0.1741  0.7768
38652SOL    HW133948   9.935   9.151   3.869 -0.7321  3.9777 -1.2401
38652SOL    HW233949   9.802   9.151   3.797 -0.8370 -1.2345 -1.3991
38653SOL     OW33950   8.702   7.658  13.170 -0.5448 -0.2268 -0.0534
38653SOL    HW133951   8.624   7.690  13.126 -0.5699 -0.5181 -0.2226
38653SOL    HW233952   8.744   7.736  13.205 -1.8324 -0.2002  1.5697
38654SOL     OW33953  11.730  10.301   4.194 -0.2321 -0.9381 -0.0410
38654SOL    HW133954  11.682  10.236   4.142 -0.3733 -3.2714  2.6913
38654SOL    HW233955  11.671  10.322   4.266  0.1534  1.7435 -0.4042
38655SOL     OW33956   0.908   7.054   1.524  0.3572  0.0213  0.5955
38655SOL    HW133957   0.816   7.027   1.518  0.3449  0.1769  0.0160
38655SOL    HW233958   0.905   7.149   1.519  0.6553 -0.0250 -1.1543
38656SOL     OW33959  10.694   1.376   9.708  0.6121 -0.4303 -0.4163
38656SOL    HW133960  10.693   1.386   9.803  0.6123 -0.6382 -0.3936
38656SOL    HW233961  10.608   1.407   9.679  0.3518 -1.0005 -0.2787
38657SOL     OW33962   5.290   8.547   9.116 -0.2611 -0.1963 -0.3761
38657SOL    HW133963   5.218   8.485   9.111 -0.2121 -0.2466 -0.4600
38657SOL    HW233964   5.369   8.493   9.107 -0.2462  0.0066 -1.7246
38658SOL     OW33965   5.198   8.520   6.376 -0.5486  0.0578  0.5481
38658SOL    HW133966   5.210   8.604   6.332 -0.9511 -0.1308  0.0666
38658SOL    HW233967   5.261   8.521   6.448  0.7302  0.0263 -0.5311
38659SOL     OW33968   1.858   4.970   2.220  0.0593  0.2084  0.5627
38659SOL    HW133969   1.944   4.935   2.243 -0.7148 -0.5093  2.4979
38659SOL    HW233970   1.832   4.919   2.143  2.0376  1.6169 -1.1849
38660SOL     OW33971   5.578   4.649   4.572 -0.7067 -0.0511 -0.2886
38660SOL    HW133972   5.591   4.624   4.481 -0.0941  0.9670 -0.4852
38660SOL    HW233973   5.592   4.568   4.621 -1.3765 -0.6875 -1.1059
38661SOL     OW33974   6.261  13.812   6.182  0.0806 -0.1375 -0.5384
38661SOL    HW133975   6.342  13.761   6.189  0.8125  0.8328 -1.5634
38661SOL    HW233976   6.231  13.798   6.092 -0.6504 -0.1054 -0.3108
38662SOL     OW33977   1.105  12.902   2.728 -1.0227  0.3767  1.1092
38662SOL    HW133978   1.195  12.883   2.701 -0.9053  0.8241  1.1779
38662SOL    HW233979   1.109  12.990   2.766 -1.8901  1.3548 -0.9057
38663SOL     OW33980   0.550   5.537   0.419 -0.1694 -0.1646  0.4098
38663SOL    HW133981   0.620   5.600   0.401  0.4039 -0.9869 -0.2729
38663SOL    HW233982   0.574   5.497   0.503 -0.2601  0.1367  0.5829
38664SOL     OW33983  12.553   7.075  11.793 -0.0852  0.1778  0.0159
38664SOL    HW133984  12.520   7.015  11.727  2.5209  0.8217 -1.9909
38664SOL    HW233985  12.645   7.053  11.803  0.0395  1.3300  2.1299
38665SOL     OW33986  12.619  12.843   4.651  0.1400 -0.4011 -0.1403
38665SOL    HW133987  12.655  12.900   4.719  0.0353  1.4409 -1.5423
38665SOL    HW233988  12.538  12.887   4.624 -0.0708 -1.3435 -1.1127
38666SOL     OW33989   2.706   4.481  12.655 -0.6018 -0.0415 -0.2794
38666SOL    HW133990   2.689   4.569  12.689  1.5257  0.2496  0.1721
38666SOL    HW233991   2.686   4.422  12.728 -0.3278  0.2155  0.0037
38667SOL     OW33992  10.828   1.205   9.134 -0.0214  0.0101  0.3548
38667SOL    HW133993  10.762   1.189   9.066 -0.9049 -1.4036  1.4715
38667SOL    HW233994  10.777   1.216   9.214  1.0284  0.9953  0.9213
38668SOL     OW33995  12.537   2.929   5.983 -0.0506 -0.2566 -0.1713
38668SOL    HW133996  12.459   2.891   6.023 -0.4369  0.1504 -0.5251
38668SOL    HW233997  12.572   2.859   5.928 -1.1082  0.0592 -1.3096
38669SOL     OW33998   9.802   4.023   6.306  0.7646  0.0081 -0.1116
38669SOL    HW133999   9.713   4.048   6.331  0.8466 -0.5826  0.8136
38669SOL    HW234000   9.791   3.951   6.244  0.5930  0.0811 -0.1645
38670SOL     OW34001   6.243  10.176  13.961  0.2624 -0.3041 -0.0420
38670SOL    HW134002   6.325  10.208  13.923  0.8983 -1.9536 -0.1399
38670SOL    HW234003   6.182  10.175  13.888  0.7529 -1.0266 -0.4544
38671SOL     OW34004   9.258   5.693   3.166  0.4904 -0.7180  0.6929
38671SOL    HW134005   9.288   5.608   3.134 -0.4308 -1.3113  1.3590
38671SOL    HW234006   9.208   5.730   3.094  0.8066 -0.7818  0.4384
38672SOL     OW34007   1.819   9.977   2.616  0.4516  0.1780 -0.2878
38672SOL    HW134008   1.843  10.061   2.575  0.8751 -0.1051 -0.6213
38672SOL    HW234009   1.779  10.002   2.699  1.3134  0.6912 -0.0101
38673SOL     OW34010  10.141  11.509  10.407  0.5800  0.8171  0.1401
38673SOL    HW134011  10.104  11.542  10.489  1.5551  2.4651 -0.0557
38673SOL    HW234012  10.067  11.509  10.346  0.5315  2.6802  0.1506
38674SOL     OW34013   1.209   4.210   3.611  0.6279 -0.4007 -0.1763
38674SOL    HW134014   1.233   4.166   3.693  1.0105  1.2384  0.6487
38674SOL    HW234015   1.211   4.141   3.545  1.1594 -1.6049  1.0390
38675SOL     OW34016   4.776  13.985  13.691 -0.3038  0.5108  0.3904
38675SOL    HW134017   4.856  13.941  13.718 -1.0422 -0.4350  1.1029
38675SOL    HW234018   4.806  14.057  13.636  0.9303 -1.0671 -1.1115
38676SOL     OW34019   6.305   7.941   3.384  0.4985 -0.1540  0.3334
38676SOL    HW134020   6.351   7.938   3.468 -0.1737  1.1633  0.7838
38676SOL    HW234021   6.247   8.017   3.392 -0.9991 -1.1614 -0.5947
38677SOL     OW34022  12.738   3.638   2.154 -0.0930  0.1487  0.4809
38677SOL    HW134023  12.762   3.630   2.247 -0.4898 -2.0130  0.4586
38677SOL    HW234024  12.649   3.672   2.155  0.8975  2.9293  0.7469
38678SOL     OW34025   8.536   9.536   6.312 -0.0589  0.2695  0.0015
38678SOL    HW134026   8.483   9.611   6.286  0.3202 -0.5035 -3.5641
38678SOL    HW234027   8.479   9.483   6.367 -2.3382  0.5455 -1.9252
38679SOL     OW34028   7.501  13.273   7.338 -0.0229 -0.0841 -0.4678
38679SOL    HW134029   7.504  13.181   7.311 -1.1587 -0.6797  1.2232
38679SOL    HW234030   7.591  13.303   7.332  0.4311 -1.4195 -0.7407
38680SOL     OW34031   5.380   4.817   7.087  0.2312 -0.1677  0.1566
38680SOL    HW134032   5.320   4.795   7.016  1.1575  1.4456 -1.2223
38680SOL    HW234033   5.436   4.741   7.096  0.8912  0.0379 -1.7513
38681SOL     OW34034  11.589   6.181   1.964  0.1253 -0.0432  0.5140
38681SOL    HW134035  11.618   6.149   2.050 -0.0746 -0.1172  0.5554
38681SOL    HW234036  11.619   6.114   1.903 -0.4191 -0.3916  0.6176
38682SOL     OW34037   9.732   8.839  13.168 -0.9349 -0.3395  0.7956
38682SOL    HW134038   9.692   8.753  13.184  1.0371 -1.9105 -1.8454
38682SOL    HW234039   9.824   8.819  13.149 -0.4985  2.3100 -0.2476
38683SOL     OW34040   5.248   3.183   7.814 -0.5144 -0.0106  0.2606
38683SOL    HW134041   5.281   3.256   7.762 -0.8065  0.7450  1.1125
38683SOL    HW234042   5.213   3.121   7.750  0.3240  0.2998 -0.5036
38684SOL     OW34043  12.551   6.179  10.223  0.6571 -0.0440  0.1302
38684SOL    HW134044  12.554   6.137  10.309  1.0649 -0.9310 -0.3001
38684SOL    HW234045  12.568   6.272  10.241 -0.3030 -0.0460  1.1031
38685SOL     OW34046   8.971   1.995   9.011  0.2998 -0.5833 -0.0643
38685SOL    HW134047   9.002   1.905   9.022  1.3841 -0.0920  1.1466
38685SOL    HW234048   9.037   2.049   9.055 -1.3596  0.6575  1.0140
38686SOL     OW34049   9.669   3.317   1.701  0.2694 -0.3237 -0.4151
38686SOL    HW134050   9.666   3.245   1.638  1.1711 -0.6737 -0.0701
38686SOL    HW234051   9.760   3.345   1.702 -0.0171  0.6390 -0.3332
38687SOL     OW34052   4.726   9.856   1.616 -0.0580  0.0363 -0.1025
38687SOL    HW134053   4.666   9.785   1.594  1.0970 -1.5620  1.5818
38687SOL    HW234054   4.781   9.866   1.539  0.1055 -1.3018 -0.1802
38688SOL     OW34055   7.313   5.205   3.572  0.0886 -0.2476  0.1815
38688SOL    HW134056   7.387   5.147   3.555 -0.0455 -0.3481 -0.0644
38688SOL    HW234057   7.281   5.230   3.486 -0.0219 -0.0203  0.2863
38689SOL     OW34058  10.958  10.138   1.265  0.5077 -0.4047  0.4645
38689SOL    HW134059  11.031  10.136   1.327  1.2340 -0.1981 -0.3727
38689SOL    HW234060  10.937  10.231   1.256  0.1757 -0.4590  0.6517
38690SOL     OW34061   4.155   7.275  12.301  0.2295  0.1897 -0.1833
38690SOL    HW134062   4.237   7.304  12.340 -0.8158  0.8166  1.7215
38690SOL    HW234063   4.156   7.312  12.213  1.9260  0.2688 -0.1619
38691SOL     OW34064  11.525  11.141   9.850  0.9016 -0.2593 -0.0321
38691SOL    HW134065  11.470  11.063   9.853  0.4040  0.0428 -0.8570
38691SOL    HW234066  11.614  11.107   9.838  0.5225 -0.6807 -1.9000
38692SOL     OW34067  10.933   1.210   8.103  0.7114 -0.2528  0.2823
38692SOL    HW134068  10.943   1.170   8.189 -0.7596  1.8468  1.5206
38692SOL    HW234069  10.957   1.302   8.116 -0.3744  0.3030 -1.3282
38693SOL     OW34070   9.058   9.038   5.581  0.5882  0.9052  0.2731
38693SOL    HW134071   9.097   9.036   5.493 -0.2015 -0.4954 -0.0704
38693SOL    HW234072   9.013   9.122   5.585  0.0724  0.7101 -0.9359
38694SOL     OW34073   7.229   7.638   1.006 -0.3488 -0.0489  0.0197
38694SOL    HW134074   7.195   7.622   1.093 -0.5177  1.7635  0.3364
38694SOL    HW234075   7.282   7.561   0.985 -0.7117 -0.7217  1.5029
38695SOL     OW34076   2.724  12.526   3.718  0.3116  0.1360 -0.2129
38695SOL    HW134077   2.727  12.431   3.735 -1.0642  0.2426  0.8023
38695SOL    HW234078   2.647  12.538   3.662  0.1707  0.7142  0.1009
38696SOL     OW34079   5.321   1.516  10.232  0.1465  0.4233  0.0048
38696SOL    HW134080   5.280   1.430  10.227 -1.3433  1.1196 -0.1744
38696SOL    HW234081   5.279   1.567  10.162 -2.4856  2.7021  2.9710
38697SOL     OW34082  11.697   8.430  11.690  0.3266  0.1030  0.3809
38697SOL    HW134083  11.657   8.513  11.662  0.9567  0.3095  0.0725
38697SOL    HW234084  11.732   8.393  11.610 -1.4432 -1.3216  0.2015
38698SOL     OW34085   0.914   4.900   0.178 -0.6857 -0.3610  0.0140
38698SOL    HW134086   0.883   4.979   0.133 -0.7793  0.3798  1.3364
38698SOL    HW234087   0.865   4.828   0.137 -0.1156  0.1554 -1.6806
38699SOL     OW34088   0.996   6.586   6.378  0.0657  0.2899  0.0862
38699SOL    HW134089   1.020   6.592   6.286 -0.2760 -0.4582 -0.0609
38699SOL    HW234090   1.010   6.674   6.413  1.3588  0.2971 -0.3899
38700SOL     OW34091   9.728   0.134  13.170 -0.2619 -0.2882 -0.1360
38700SOL    HW134092   9.665   0.071  13.136  0.5009 -1.3044  0.2727
38700SOL    HW234093   9.792   0.144  13.099  0.6775 -1.4943  0.5078
38701SOL     OW34094  11.288   8.130   7.147 -0.0450 -0.8462 -0.5969
38701SOL    HW134095  11.265   8.202   7.206  1.2767 -0.6069 -0.3407
38701SOL    HW234096  11.369   8.159   7.105 -0.1182 -1.7031 -1.3523
38702SOL     OW34097  10.597   5.048   6.064 -0.4055  0.0298 -0.6717
38702SOL    HW134098  10.579   5.136   6.031  0.1101  0.2806 -0.2851
38702SOL    HW234099  10.683   5.055   6.105 -0.9088 -0.3580  0.4701
38703SOL     OW34100   4.441  13.725  10.328 -0.5544 -0.4674  0.4096
38703SOL    HW134101   4.508  13.771  10.379 -1.1231 -1.1862  1.8582
38703SOL    HW234102   4.412  13.654  10.385 -0.1586 -2.2606 -1.5256
38704SOL     OW34103   8.626   1.748  12.135 -0.4127  0.0107 -0.1003
38704SOL    HW134104   8.711   1.714  12.106  0.0520  0.2152  0.9923
38704SOL    HW234105   8.639   1.842  12.144 -0.4563 -0.0765  1.0222
38705SOL     OW34106   3.246  11.545   6.401  0.3249  0.0014  0.6266
38705SOL    HW134107   3.202  11.462   6.382  1.1582 -0.8946  2.4123
38705SOL    HW234108   3.191  11.586   6.468  0.4525  0.4408  0.4633
38706SOL     OW34109  10.253   0.541  11.979  0.5247 -0.3118 -0.2671
38706SOL    HW134110  10.322   0.500  11.926 -0.2401 -0.3123 -1.2840
38706SOL    HW234111  10.175   0.538  11.924 -0.7084 -1.7400  1.4535
38707SOL     OW34112   7.281   8.278   5.164 -0.1505  0.2505 -0.1434
38707SOL    HW134113   7.335   8.332   5.106 -0.2105  1.4167  0.8600
38707SOL    HW234114   7.198   8.324   5.170 -0.1014  0.2173  0.9602
38708SOL     OW34115   6.805  13.860   5.918  0.3157  0.2860 -0.5842
38708SOL    HW134116   6.879  13.891   5.969  1.8486 -1.6397 -1.4805
38708SOL    HW234117   6.740  13.929   5.925  1.0806  0.8229  2.5536
38709SOL     OW34118   0.473   6.136   8.262  0.1051  0.2852 -0.4886
38709SOL    HW134119   0.421   6.216   8.257  0.8146  0.9587  1.8005
38709SOL    HW234120   0.549   6.153   8.206 -0.7540  0.3531 -1.6693
38710SOL     OW34121   5.910  12.747  10.850 -0.6172  0.5531  0.0167
38710SOL    HW134122   5.971  12.744  10.923 -0.6910 -1.0237  0.0488
38710SOL    HW234123   5.859  12.666  10.858 -3.6061  2.3533  0.7325
38711SOL     OW34124   1.030  13.265   7.603 -0.0215 -0.6857  0.3105
38711SOL    HW134125   0.977  13.259   7.683  0.6274 -1.0333  0.7213
38711SOL    HW234126   0.998  13.345   7.560  1.4589  1.0978  2.2883
38712SOL     OW34127  12.378  12.448   2.124 -0.5672 -0.3407  0.1602
38712SOL    HW134128  12.356  12.360   2.152  0.9795 -1.1676 -1.0179
38712SOL    HW234129  12.325  12.462   2.045 -0.3955 -0.4550  0.0230
38713SOL     OW34130   7.444  12.558   7.002  0.5937 -0.0063  0.3147
38713SOL    HW134131   7.495  12.563   6.921 -1.5443 -2.8658 -1.4129
38713SOL    HW234132   7.360  12.597   6.979  0.7780  1.6021  2.0911
38714SOL     OW34133  13.021  12.611   5.965 -0.1253  0.1820  0.7026
38714SOL    HW134134  12.969  12.568   5.898  0.6842 -0.1503  0.2871
38714SOL    HW234135  13.040  12.698   5.929 -0.9415  0.5603  1.1390
38715SOL     OW34136  12.249  10.052   9.962 -0.6133 -0.0743 -0.6848
38715SOL    HW134137  12.212  10.135   9.932  2.4268  2.9659  2.9435
38715SOL    HW234138  12.343  10.058   9.943 -0.1791 -2.4215  0.2369
38716SOL     OW34139   7.255   3.309   9.600 -0.2954  0.2634  0.2096
38716SOL    HW134140   7.166   3.273   9.591 -0.4661  0.9288 -1.0470
38716SOL    HW234141   7.244   3.403   9.587  0.6070  0.3454 -0.0310
38717SOL     OW34142   1.242   5.569   0.475  0.3020  0.1163  0.3721
38717SOL    HW134143   1.190   5.641   0.511 -0.6820 -0.8287  0.8732
38717SOL    HW234144   1.262   5.514   0.551  1.7705  0.2761  0.1320
38718SOL     OW34145  10.703   0.973   5.767 -0.0144 -0.0095 -0.0972
38718SOL    HW134146  10.799   0.976   5.770  0.0954 -1.2610 -1.4944
38718SOL    HW234147  10.680   0.887   5.801 -0.5369 -0.3396 -1.2445
38719SOL     OW34148   5.386  11.943   9.048  0.2891  0.3779 -0.4852
38719SOL    HW134149   5.299  11.948   9.008 -0.1996 -2.0186  0.1365
38719SOL    HW234150   5.441  11.906   8.979  0.1852 -0.6247 -0.0480
38720SOL     OW34151   3.102   8.687   5.016 -0.3022  0.1044  0.3623
38720SOL    HW134152   3.116   8.666   5.108  1.3320  0.2754  0.1753
38720SOL    HW234153   3.053   8.612   4.981  0.6758 -0.8220  0.9519
38721SOL     OW34154   5.030  10.646  11.548  0.3795  0.1542  0.6322
38721SOL    HW134155   5.030  10.731  11.505  0.0254  0.1738  0.6724
38721SOL    HW234156   4.973  10.591  11.495  0.7579 -0.1181  0.4968
38722SOL     OW34157   8.248  10.430   1.960  0.2329 -0.6447  0.2155
38722SOL    HW134158   8.178  10.464   2.016  1.1059 -0.1823  1.0633
38722SOL    HW234159   8.215  10.346   1.929 -2.0863  0.9700 -2.0884
38723SOL     OW34160   3.073   7.931   4.247 -0.3249 -0.4820  0.0031
38723SOL    HW134161   3.016   7.952   4.321  0.1179 -0.5463  0.3707
38723SOL    HW234162   3.161   7.930   4.285 -0.0327  0.0433 -0.6422
38724SOL     OW34163  10.305   0.957   0.400 -0.1974 -0.2933 -0.5338
38724SOL    HW134164  10.399   0.951   0.380 -0.4238  0.7243 -2.1119
38724SOL    HW234165  10.281   1.045   0.371 -1.6592 -0.5589 -0.1935
38725SOL     OW34166   9.080   7.197   5.752  0.1462  0.0135 -0.0529
38725SOL    HW134167   9.158   7.254   5.751 -0.2682  0.6287  0.8708
38725SOL    HW234168   9.112   7.112   5.723  1.0505  0.4016 -0.2369
38726SOL     OW34169   3.564   6.347   6.982  0.0327  0.1518  0.0013
38726SOL    HW134170   3.521   6.365   7.065 -0.9054  0.0702 -0.4520
38726SOL    HW234171   3.519   6.402   6.918 -1.6286 -2.2769 -1.0656
38727SOL     OW34172   1.183   3.156   9.879 -0.4706 -0.0287  0.1789
38727SOL    HW134173   1.126   3.227   9.908 -2.2775 -0.1668 -2.6128
38727SOL    HW234174   1.218   3.118   9.959 -2.9952  1.1614  1.9711
38728SOL     OW34175  13.442   7.535   1.612 -0.1776 -0.1060 -0.1497
38728SOL    HW134176  13.419   7.449   1.577 -1.1856 -0.1821  0.6465
38728SOL    HW234177  13.393   7.541   1.694 -0.8205  1.5839 -0.6192
38729SOL     OW34178  10.879  10.144   9.344  0.2706 -0.5251  0.2212
38729SOL    HW134179  10.880  10.238   9.363 -0.1857 -0.6531  0.8996
38729SOL    HW234180  10.915  10.103   9.422 -1.2588 -1.0227  0.6965
38730SOL     OW34181   8.176  11.889  13.979  0.2597 -0.1804  0.1801
38730SOL    HW134182   8.119  11.875  14.055  1.1312  1.2242  1.1282
38730SOL    HW234183   8.252  11.834  13.996  0.0607 -0.5643 -0.1430
38731SOL     OW34184   9.513   2.981   1.656 -0.3211  0.5456  0.7230
38731SOL    HW134185   9.554   2.919   1.716  1.3665  1.8615  1.0032
38731SOL    HW234186   9.477   3.050   1.713  0.4054  1.2822  0.3248
38732SOL     OW34187  11.296   4.255  11.239 -0.0101  1.0759  0.4143
38732SOL    HW134188  11.290   4.254  11.144 -0.7068 -1.7170  0.3965
38732SOL    HW234189  11.289   4.347  11.263 -2.3791  1.6918 -2.1070
38733SOL     OW34190  10.094   4.228   3.180 -0.1002  0.1202  0.0259
38733SOL    HW134191  10.126   4.148   3.221  0.2118 -0.7166 -1.7359
38733SOL    HW234192  10.139   4.298   3.226  0.4225 -0.7665  0.9190
38734SOL     OW34193   0.579  12.570   2.948  0.1209  0.5257  0.0058
38734SOL    HW134194   0.585  12.598   3.040 -2.0877 -2.2502  1.1484
38734SOL    HW234195   0.501  12.616   2.915  0.5482  1.0383 -0.2947
38735SOL     OW34196  11.898   6.252  10.218 -0.4824 -0.3603 -0.0202
38735SOL    HW134197  11.839   6.200  10.163 -2.2899  1.5337  0.0105
38735SOL    HW234198  11.964   6.285  10.158  0.0394 -1.7160 -0.2353
38736SOL     OW34199   1.378   0.409   4.971 -0.2011 -0.1802  0.7542
38736SOL    HW134200   1.336   0.430   5.055  0.2307  0.1057  0.9004
38736SOL    HW234201   1.431   0.486   4.951 -1.2685  0.2910 -0.4087
38737SOL     OW34202  11.772   1.031   0.247 -0.2065  0.3696  0.2287
38737SOL    HW134203  11.727   0.947   0.241 -1.3278  0.9809 -0.2197
38737SOL    HW234204  11.733   1.084   0.177 -0.4865  1.7059  1.3612
38738SOL     OW34205   9.801   1.582   6.818  0.0116 -0.1373 -0.4932
38738SOL    HW134206   9.758   1.499   6.836 -1.0919  0.3880 -0.6301
38738SOL    HW234207   9.861   1.595   6.892 -0.1904 -0.8039 -0.2118
38739SOL     OW34208   9.006   1.483  11.267 -0.2476  0.0502 -0.1013
38739SOL    HW134209   9.054   1.414  11.220 -0.6508  0.1594 -0.6757
38739SOL    HW234210   9.052   1.564  11.244 -1.4777  0.3293 -1.7233
38740SOL     OW34211   7.159   7.820   5.077 -0.4498  0.0565  0.8740
38740SOL    HW134212   7.117   7.859   5.154 -0.1829  0.7545  0.6800
38740SOL    HW234213   7.184   7.895   5.023 -2.1466 -0.4661 -0.7272
38741SOL     OW34214   0.375  10.228  12.087 -0.5206 -0.2548  0.1233
38741SOL    HW134215   0.348  10.312  12.052 -0.5364 -0.5526 -0.5882
38741SOL    HW234216   0.354  10.232  12.180  0.4835  0.9405  0.3193
38742SOL     OW34217   8.618  11.600  13.431 -0.1856  0.3066 -0.4311
38742SOL    HW134218   8.651  11.617  13.520 -1.0572  0.5775 -0.1505
38742SOL    HW234219   8.584  11.684  13.401 -0.1619  0.1477 -0.9108
38743SOL     OW34220  11.438   6.546   3.016  0.1122 -0.3085  0.2661
38743SOL    HW134221  11.435   6.450   3.019 -0.6337 -0.3765 -1.7112
38743SOL    HW234222  11.400   6.569   2.932  3.8819  1.5662 -1.1827
38744SOL     OW34223   3.388   9.244  10.716  0.5317  0.4680 -0.1208
38744SOL    HW134224   3.475   9.262  10.752  0.9182  0.3573 -0.9857
38744SOL    HW234225   3.341   9.201  10.788  0.7857  1.6066  0.7612
38745SOL     OW34226   5.260   6.922  11.473  0.3855 -0.2693 -0.0267
38745SOL    HW134227   5.238   6.960  11.557 -0.8900  1.2783 -1.0138
38745SOL    HW234228   5.344   6.960  11.450  0.0594  0.4215 -0.0914
38746SOL     OW34229  13.175  12.502  13.012  0.0493 -0.2128 -0.2157
38746SOL    HW134230  13.086  12.472  12.996  0.1021 -0.8033  0.4920
38746SOL    HW234231  13.176  12.594  12.985 -0.3697 -0.6036 -1.5937
38747SOL     OW34232   6.911   6.437  11.596  0.1858 -0.4918  0.0583
38747SOL    HW134233   6.836   6.468  11.647 -0.6077 -1.2072 -0.6513
38747SOL    HW234234   6.888   6.458  11.505  0.8761 -0.6600 -0.1575
38748SOL     OW34235   3.653   9.667   1.614 -0.2510  0.7073 -0.3211
38748SOL    HW134236   3.644   9.573   1.630 -0.0569  0.9199  1.1354
38748SOL    HW234237   3.678   9.704   1.699  1.7189  1.8178 -1.3191
38749SOL     OW34238   3.956   9.324   3.704 -0.4552  0.3084 -0.0131
38749SOL    HW134239   4.036   9.288   3.666 -0.6512 -0.1360 -0.0139
38749SOL    HW234240   3.955   9.415   3.676  0.3977  0.5007  0.5616
38750SOL     OW34241  10.437  11.482   8.244  0.3992  0.2128  0.3344
38750SOL    HW134242  10.495  11.482   8.321  0.8560  0.2181 -0.0018
38750SOL    HW234243  10.385  11.403   8.253  0.4241  0.2334  0.6712
38751SOL     OW34244  12.231   8.802   4.568  0.2822  0.2897  0.0611
38751SOL    HW134245  12.167   8.777   4.502 -0.5587  1.1962  0.5027
38751SOL    HW234246  12.194   8.769   4.650  1.4500 -1.0761  0.0766
38752SOL     OW34247   6.509   8.048  13.124  0.1129  0.8063  0.2152
38752SOL    HW134248   6.487   7.966  13.168 -2.7230 -0.4196 -2.9529
38752SOL    HW234249   6.425   8.094  13.116  1.2282  2.9041 -0.1817
38753SOL     OW34250  13.540   5.835   1.454  0.1617 -0.2243  0.3519
38753SOL    HW134251  13.570   5.838   1.545 -3.1509 -1.1432  1.6263
38753SOL    HW234252  13.547   5.743   1.429  0.6906 -0.0400 -0.2141
38754SOL     OW34253   8.477   8.057   3.530  0.6324 -0.0522 -0.5258
38754SOL    HW134254   8.480   8.151   3.545  1.5521  0.4692 -3.3862
38754SOL    HW234255   8.566   8.027   3.551  0.7316 -0.0453 -0.9369
38755SOL     OW34256  13.063   8.251   1.098 -0.1371  0.7595 -0.5989
38755SOL    HW134257  13.001   8.282   1.164  1.9457  1.1621  1.2763
38755SOL    HW234258  13.118   8.188   1.144 -0.4494 -1.2092 -2.7680
38756SOL     OW34259   4.543   3.362  12.331  0.2224  0.9777 -0.0001
38756SOL    HW134260   4.618   3.337  12.385  0.1595  0.7023 -0.0423
38756SOL    HW234261   4.579   3.374  12.243  0.1096  0.2436 -0.1508
38757SOL     OW34262   5.209   6.416   8.961 -0.2967  0.4085  0.7932
38757SOL    HW134263   5.279   6.449   8.904 -0.5162  0.6668  0.6707
38757SOL    HW234264   5.229   6.455   9.047 -1.2701  1.9355  0.3683
38758SOL     OW34265  10.140  10.306   3.510  0.5088 -0.4874 -0.1782
38758SOL    HW134266  10.107  10.301   3.600 -1.7022 -0.6470 -0.9267
38758SOL    HW234267  10.205  10.376   3.512 -1.1266  1.1047  1.1269
38759SOL     OW34268  11.381   5.221   4.254  0.1723  0.1242  0.9458
38759SOL    HW134269  11.402   5.131   4.228 -0.1522  0.3380 -0.1130
38759SOL    HW234270  11.300   5.241   4.207  1.1282  1.5439 -0.2061
38760SOL     OW34271  13.902   4.150   8.411 -0.0496 -0.3426  0.0408
38760SOL    HW134272  13.992   4.181   8.403 -0.4986  1.1146  0.4134
38760SOL    HW234273  13.894   4.082   8.344  1.2563 -0.3350 -0.1462
38761SOL     OW34274  11.081   3.697   0.575  0.4250  0.4725  0.5102
38761SOL    HW134275  11.161   3.748   0.564  0.2576  0.8142  0.8273
38761SOL    HW234276  11.100   3.636   0.647  0.0807  1.2346  1.2668
38762SOL     OW34277   4.612   3.262  14.134  0.2058  0.0385  0.3390
38762SOL    HW134278   4.681   3.327  14.146 -0.9792  1.1401  1.7033
38762SOL    HW234279   4.587   3.271  14.042  0.2512  1.3691  0.4252
38763SOL     OW34280   6.448   1.915  10.701  0.4883 -0.8048 -0.1934
38763SOL    HW134281   6.484   1.832  10.668 -0.7158 -1.6012  0.4321
38763SOL    HW234282   6.423   1.896  10.791 -1.5873 -0.3284 -0.6258
38764SOL     OW34283   7.304  11.900   8.028  0.0483 -0.0678 -0.1759
38764SOL    HW134284   7.398  11.912   8.011 -0.2838  1.1384 -1.4125
38764SOL    HW234285   7.263  11.914   7.942 -1.1463 -2.4372 -0.0740
38765SOL     OW34286  10.731  12.664   5.464 -0.3646 -0.2278  0.2465
38765SOL    HW134287  10.662  12.641   5.401 -1.3426 -0.3341  1.3169
38765SOL    HW234288  10.749  12.582   5.510 -0.6366  0.1310  1.0116
38766SOL     OW34289   7.819  12.964  10.554  0.9223 -0.3344 -0.4534
38766SOL    HW134290   7.746  13.014  10.520  1.2793  1.6050  1.4246
38766SOL    HW234291   7.820  12.884  10.501 -0.8076  0.7982 -2.3470
38767SOL     OW34292   1.839  12.579  12.354  0.3076 -0.3711 -0.4443
38767SOL    HW134293   1.819  12.673  12.352 -1.1945 -0.6498  0.1333
38767SOL    HW234294   1.793  12.544  12.278  1.7155 -0.5205 -1.2660
38768SOL     OW34295   7.167   1.781  13.448 -0.1556  0.4667  0.6427
38768SOL    HW134296   7.222   1.846  13.404  1.0132 -1.3787 -0.7615
38768SOL    HW234297   7.219   1.752  13.523  1.0855 -1.5619 -0.9032
38769SOL     OW34298  12.494  13.886   7.682 -0.1622  0.4995  0.1149
38769SOL    HW134299  12.478  13.945   7.757  0.3028  0.0369  0.5927
38769SOL    HW234300  12.586  13.861   7.692  0.1039  0.9780 -1.0142
38770SOL     OW34301   2.806  13.938   3.721  0.2810  0.7407 -0.2197
38770SOL    HW134302   2.880  13.961   3.665  0.2634  0.8856 -0.1845
38770SOL    HW234303   2.786  14.019   3.768  0.2870  0.6245 -0.0154
38771SOL     OW34304   4.281   9.254   8.569 -0.5117  0.0540 -0.1645
38771SOL    HW134305   4.193   9.239   8.536 -0.2383  0.4439 -1.1320
38771SOL    HW234306   4.313   9.168   8.596 -1.8455  0.1700  1.9801
38772SOL     OW34307   4.700  11.775   7.218  0.3120  0.4484 -0.0642
38772SOL    HW134308   4.781  11.728   7.198 -0.6419 -2.9283  3.0746
38772SOL    HW234309   4.631  11.718   7.184 -0.9049  2.6280 -1.4835
38773SOL     OW34310   8.993   7.533   9.016  0.0762  0.0117  0.0691
38773SOL    HW134311   8.967   7.622   9.042 -1.9787  0.2875 -2.4977
38773SOL    HW234312   9.084   7.542   8.988  0.3590  0.9646  1.2252
38774SOL     OW34313   0.465   0.046   2.608 -0.5878  0.0986  0.6887
38774SOL    HW134314   0.514   0.129   2.606 -0.8972  0.2853  0.8064
38774SOL    HW234315   0.516  -0.010   2.667 -0.1551  0.0610  0.2857
38775SOL     OW34316   9.192   4.073   0.420 -0.3536  0.4706 -0.2903
38775SOL    HW134317   9.120   4.071   0.482 -1.2401  1.3022 -1.2675
38775SOL    HW234318   9.231   3.985   0.426  2.0346  1.5464  4.1647
38776SOL     OW34319   1.633   1.558   2.933  0.0704 -0.4715 -0.0880
38776SOL    HW134320   1.585   1.478   2.953  0.9558 -0.2075  3.8811
38776SOL    HW234321   1.569   1.613   2.887 -1.8646 -1.9501  0.6891
38777SOL     OW34322   0.746  10.867   0.452  0.1178  1.0813 -0.4492
38777SOL    HW134323   0.699  10.894   0.373 -0.1911 -1.2014 -1.0930
38777SOL    HW234324   0.836  10.895   0.438  0.4363 -0.7070 -2.3882
38778SOL     OW34325   9.509  12.246   4.233 -0.0617 -0.2474  0.5212
38778SOL    HW134326   9.565  12.177   4.268 -1.3529 -1.4954  0.2235
38778SOL    HW234327   9.434  12.248   4.292  0.0192  1.0106  0.5988
38779SOL     OW34328   0.789   2.322   2.066 -0.1973  0.2196  0.2466
38779SOL    HW134329   0.724   2.337   2.135 -0.6094  1.7940 -0.4396
38779SOL    HW234330   0.786   2.228   2.051 -2.2573  0.2234  0.3020
38780SOL     OW34331   3.172  12.999   2.247 -0.2331  0.2274  0.3905
38780SOL    HW134332   3.198  13.086   2.277  2.1195 -0.4444  0.4313
38780SOL    HW234333   3.147  13.012   2.156 -2.9803  1.4440  1.1890
38781SOL     OW34334   8.308  11.629   9.685 -0.3614 -0.0423  0.0925
38781SOL    HW134335   8.217  11.660   9.688 -0.2106  0.3723  0.6077
38781SOL    HW234336   8.302  11.538   9.657 -0.7851  0.5585 -1.9170
38782SOL     OW34337   5.632  10.325   5.384 -0.0081  0.4052 -0.1789
38782SOL    HW134338   5.682  10.381   5.325  0.4552 -0.1429 -0.3078
38782SOL    HW234339   5.544  10.364   5.384  0.6112  1.9085  0.7389
38783SOL     OW34340   9.520   1.597   5.256  0.3275 -0.1022  0.4596
38783SOL    HW134341   9.426   1.582   5.247  0.7349 -1.6676 -2.5616
38783SOL    HW234342   9.554   1.513   5.288  0.7579  0.4324  1.4594
38784SOL     OW34343   1.402  13.492   4.187 -0.3426  0.2423  0.0480
38784SOL    HW134344   1.408  13.487   4.282 -2.1240  1.3929  0.2623
38784SOL    HW234345   1.462  13.425   4.156 -0.2550 -0.6455  1.9867
38785SOL     OW34346   2.212   2.176   4.788  0.0544  0.0719 -0.2970
38785SOL    HW134347   2.268   2.113   4.743  0.8284  0.1783  0.5083
38785SOL    HW234348   2.253   2.261   4.771 -1.1256  0.4237 -1.5965
38786SOL     OW34349   5.562   9.808  13.124  0.2127 -0.4115 -0.5120
38786SOL    HW134350   5.484   9.829  13.072  0.1018 -0.4316 -0.3539
38786SOL    HW234351   5.569   9.713  13.120  0.6401 -0.3614 -1.1165
38787SOL     OW34352   4.609   4.796   0.028 -0.4684  0.0140 -0.9340
38787SOL    HW134353   4.613   4.797   0.123  1.0053  1.1633 -0.9620
38787SOL    HW234354   4.520   4.823   0.007 -0.6060  0.4272  0.1263
38788SOL     OW34355  13.561  10.443   6.578  0.1119 -0.0317  0.5884
38788SOL    HW134356  13.466  10.434   6.581  0.2808 -2.1480  1.6685
38788SOL    HW234357  13.594  10.353   6.572  2.0346  0.7322 -3.3628
38789SOL     OW34358   3.423   8.609   9.652  0.3137  0.1605 -0.2629
38789SOL    HW134359   3.475   8.624   9.731  0.9447 -0.3692 -0.5614
38789SOL    HW234360   3.446   8.681   9.594  0.8085 -0.1267 -0.4325
38790SOL     OW34361   7.046  11.197   1.076  0.4100  0.6877 -0.1681
38790SOL    HW134362   6.960  11.239   1.081  0.2170  0.2153  0.9031
38790SOL    HW234363   7.101  11.258   1.028 -0.9227  0.3089 -2.3165
38791SOL     OW34364   5.584  12.228   7.647  0.3767 -0.2918  0.0756
38791SOL    HW134365   5.595  12.296   7.580 -0.7444  0.1443  0.3125
38791SOL    HW234366   5.576  12.147   7.597  1.0668 -0.1734 -0.2422
38792SOL     OW34367  12.836  11.398   4.587 -0.3652 -0.2513  0.5237
38792SOL    HW134368  12.758  11.445   4.558  2.0282  3.1930 -0.9612
38792SOL    HW234369  12.851  11.428   4.676  0.9259  1.6696 -0.2804
38793SOL     OW34370   1.282   1.694   2.491  0.5080 -0.0991  0.1534
38793SOL    HW134371   1.283   1.617   2.435  3.6567 -0.6454  0.7788
38793SOL    HW234372   1.336   1.758   2.445  0.3964  0.6514  1.0339
38794SOL     OW34373   5.945   6.016  13.779  0.7194 -0.1797 -0.1513
38794SOL    HW134374   5.972   5.965  13.702  4.0167 -0.0208  0.7216
38794SOL    HW234375   5.906   6.095  13.743  1.7031 -0.3431 -1.6912
38795SOL     OW34376   7.576  10.946   1.725  0.0661 -0.2734  0.0243
38795SOL    HW134377   7.611  10.965   1.812 -1.2088  0.8941  0.3344
38795SOL    HW234378   7.553  11.032   1.689  0.0608 -0.7772 -1.2458
38796SOL     OW34379  13.709   3.508   6.992  0.4294  0.3562  0.7277
38796SOL    HW134380  13.678   3.451   7.062 -0.0121 -0.1089  0.1643
38796SOL    HW234381  13.645   3.496   6.921  0.2304  1.6848  0.6586
38797SOL     OW34382   6.744   0.276  10.420 -0.2893 -0.0988 -1.3764
38797SOL    HW134383   6.695   0.195  10.437  3.0596 -2.5570 -2.4640
38797SOL    HW234384   6.753   0.279  10.325  2.0671 -0.0643 -1.1908
38798SOL     OW34385  12.999   1.489   6.994 -0.3112  0.4567 -0.0096
38798SOL    HW134386  13.056   1.437   6.937 -0.7543 -0.9648  0.7982
38798SOL    HW234387  12.924   1.511   6.939  0.7798  2.0117 -0.9636
38799SOL     OW34388   2.891  10.355   3.867 -0.0289 -0.9201 -0.3108
38799SOL    HW134389   2.924  10.308   3.790  0.2654 -0.0469 -0.7337
38799SOL    HW234390   2.843  10.429   3.830  1.0552  0.1402  0.3533
38800SOL     OW34391   1.711   5.189   6.932 -0.4577 -0.2194 -0.0286
38800SOL    HW134392   1.679   5.181   6.843  0.8812 -1.2974 -0.4470
38800SOL    HW234393   1.643   5.238   6.978 -0.7517  1.1842 -1.8421
38801SOL     OW34394   1.512   2.764  11.634 -0.3801 -0.0480  0.4939
38801SOL    HW134395   1.577   2.832  11.617  0.4413 -0.8732  0.2700
38801SOL    HW234396   1.475   2.743  11.549 -1.8793  1.3116  0.7724
38802SOL     OW34397   9.436   4.038  10.596  0.0801 -0.3790  0.3348
38802SOL    HW134398   9.347   4.003  10.596  0.4213 -1.3686 -1.4112
38802SOL    HW234399   9.426   4.130  10.617 -1.2679 -0.6400  0.9423
38803SOL     OW34400   4.112   9.230  13.116 -0.2743  0.0250 -0.2372
38803SOL    HW134401   4.018   9.214  13.118 -0.8845  2.7367 -1.9306
38803SOL    HW234402   4.151   9.146  13.090 -2.3943 -0.7112 -1.2461
38804SOL     OW34403   0.580  11.969   7.494 -0.4413 -0.2616 -0.1711
38804SOL    HW134404   0.511  11.986   7.430  1.1813  0.1081 -1.9460
38804SOL    HW234405   0.598  11.876   7.486 -0.3779 -0.2548 -0.1083
38805SOL     OW34406  11.230   9.783   4.780  0.0376 -0.2906 -0.4433
38805SOL    HW134407  11.142   9.820   4.768 -0.0244 -0.8835 -2.0508
38805SOL    HW234408  11.289   9.852   4.747  0.0248 -0.8050 -1.5938
38806SOL     OW34409   4.159   1.197  11.860 -0.3886 -0.3163 -0.3128
38806SOL    HW134410   4.095   1.127  11.845  0.1651 -1.1908  1.1518
38806SOL    HW234411   4.243   1.158  11.841  0.0115 -0.3806  1.3679
38807SOL     OW34412   8.440  13.204   4.624 -0.2670 -0.4159  0.1501
38807SOL    HW134413   8.429  13.156   4.707 -0.1092 -1.9083 -0.6646
38807SOL    HW234414   8.519  13.257   4.638 -1.1805  0.6732  1.5311
38808SOL     OW34415   0.525   9.915  11.011 -0.3895  0.1192 -0.2649
38808SOL    HW134416   0.521   9.828  11.051 -0.9960 -1.0178 -2.6588
38808SOL    HW234417   0.553   9.972  11.083 -2.4607 -1.5723  2.0742
38809SOL     OW34418   9.448   7.387   6.882  0.8571 -0.6337  0.3227
38809SOL    HW134419   9.369   7.340   6.907 -0.2949  1.4274  0.7173
38809SOL    HW234420   9.461   7.364   6.790 -1.0482  0.0706 -0.1676
38810SOL     OW34421   2.126   5.020   6.078 -0.4383  0.2031 -0.2968
38810SOL    HW134422   2.105   5.068   5.998 -0.3014 -0.8215 -0.9762
38810SOL    HW234423   2.158   5.087   6.139 -2.7315  1.3613 -0.2628
38811SOL     OW34424  10.009   6.402   0.463 -0.0516  0.3546  0.3791
38811SOL    HW134425  10.012   6.497   0.455  2.2224  0.4269  1.3466
38811SOL    HW234426   9.952   6.374   0.391 -0.6084  2.4134 -0.0508
38812SOL     OW34427  10.479  11.112   2.139  0.0269  0.8301 -0.0904
38812SOL    HW134428  10.421  11.127   2.213  0.2147  3.1040 -0.3341
38812SOL    HW234429  10.431  11.143   2.063  0.6911  0.6016 -0.6224
38813SOL     OW34430  10.624   9.824  13.156 -0.3453  0.2543  0.0277
38813SOL    HW134431  10.649   9.786  13.240 -0.2921  1.3207  0.5093
38813SOL    HW234432  10.575   9.904  13.179 -0.1565  0.6693 -0.9499
38814SOL     OW34433   9.306  12.697   6.210  0.3824  0.3466  0.1112
38814SOL    HW134434   9.393  12.683   6.246 -0.6278 -1.3087  2.0842
38814SOL    HW234435   9.260  12.749   6.277 -0.2162  1.0663 -0.8270
38815SOL     OW34436   0.873   8.465   3.598 -0.2514 -0.1747  0.2067
38815SOL    HW134437   0.865   8.457   3.693 -1.1467 -0.3684  0.1274
38815SOL    HW234438   0.800   8.413   3.564  0.2800 -0.4099 -0.6007
38816SOL     OW34439  12.519   1.144   2.834 -0.4629  0.0746 -0.0379
38816SOL    HW134440  12.599   1.113   2.876 -1.8898 -0.6939  2.2643
38816SOL    HW234441  12.545   1.227   2.792  1.0129  1.1039  2.6851
38817SOL     OW34442   0.076   3.583   9.305 -0.3876  0.1137 -0.3364
38817SOL    HW134443   0.064   3.636   9.384 -0.5870  0.0229 -0.3038
38817SOL    HW234444   0.003   3.609   9.248 -0.1913  0.2459 -0.5287
38818SOL     OW34445   8.035   9.517   6.020  0.3579  0.5727 -0.2176
38818SOL    HW134446   7.987   9.466   5.954  1.9558 -0.1691 -0.8582
38818SOL    HW234447   7.967   9.570   6.063 -0.9785 -0.2040 -1.2726
38819SOL     OW34448  10.743   4.073   2.259  0.2455  0.1110  0.6352
38819SOL    HW134449  10.809   4.142   2.250 -1.2793  1.5559  0.0053
38819SOL    HW234450  10.752   4.020   2.180 -0.5738  1.4518 -0.3988
38820SOL     OW34451  13.417   2.496   5.690  0.9002  0.4978  0.2709
38820SOL    HW134452  13.484   2.540   5.638  4.2314 -1.0087  2.9624
38820SOL    HW234453  13.455   2.412   5.714 -1.6486 -0.1462  2.6311
38821SOL     OW34454   1.143   9.360   9.318  0.3110 -0.2883  0.1280
38821SOL    HW134455   1.176   9.357   9.229  0.0529  2.0003 -0.1153
38821SOL    HW234456   1.047   9.360   9.308  0.2764  0.6783  0.3229
38822SOL     OW34457   3.055   3.808   0.383  0.6251  1.0617 -0.4681
38822SOL    HW134458   3.062   3.899   0.413 -0.1338  0.7133  0.8267
38822SOL    HW234459   3.144   3.775   0.386  0.4700  0.7052  2.6178
38823SOL     OW34460  10.464  11.226   0.428 -0.0422 -0.4435 -0.2049
38823SOL    HW134461  10.409  11.293   0.469 -0.3789 -1.7847  1.7132
38823SOL    HW234462  10.402  11.168   0.384  0.2349  0.3372 -1.7019
38824SOL     OW34463  10.163   2.949   1.524  0.1602  0.1346 -0.2668
38824SOL    HW134464  10.236   2.958   1.464  0.2015  0.9729 -0.1065
38824SOL    HW234465  10.118   3.033   1.521 -0.9898 -0.4617 -0.5908
38825SOL     OW34466   6.196   7.742   9.226  0.1000 -0.2330  0.2796
38825SOL    HW134467   6.127   7.746   9.293 -1.4975  3.0962 -1.3275
38825SOL    HW234468   6.150   7.760   9.144  2.6835  0.5021 -1.0958
38826SOL     OW34469  11.641   7.383   1.169 -0.6832 -0.0777 -0.3201
38826SOL    HW134470  11.648   7.301   1.217 -1.7120  0.3182  0.5346
38826SOL    HW234471  11.726   7.393   1.126 -0.5857 -1.6342 -0.5278
38827SOL     OW34472  13.986   2.033   1.369  0.0670  0.2083  0.1643
38827SOL    HW134473  14.081   2.023   1.366  0.3467  2.4845 -0.1468
38827SOL    HW234474  13.961   2.051   1.278 -0.3159  1.9028  0.5660
38828SOL     OW34475   4.403   1.840  14.006  0.4042 -0.0774 -0.2159
38828SOL    HW134476   4.369   1.751  14.016  0.1486  0.0127 -0.2678
38828SOL    HW234477   4.325   1.896  14.007  0.6653  0.4312  2.7855
38829SOL     OW34478   9.534   6.811   4.078  0.2965 -0.5712 -0.4115
38829SOL    HW134479   9.520   6.883   4.016 -1.4035 -1.0470 -0.6455
38829SOL    HW234480   9.510   6.847   4.163  4.1881  0.5918  0.3886
38830SOL     OW34481   9.271   5.335   4.982 -0.4766 -0.2332  0.0281
38830SOL    HW134482   9.187   5.348   5.027  0.1245 -0.5551  1.3178
38830SOL    HW234483   9.256   5.261   4.924 -0.6827 -1.3546  1.4457
38831SOL     OW34484   0.052   4.035  13.985  0.1178  0.2882 -0.0713
38831SOL    HW134485  -0.017   4.027  14.050 -0.6615  2.6605 -0.5171
38831SOL    HW234486   0.030   3.969  13.919  0.1087 -1.1349  1.2872
38832SOL     OW34487  12.837   4.199   4.710  0.1784  0.0075  0.6076
38832SOL    HW134488  12.767   4.263   4.706  0.5035  0.3929  1.0414
38832SOL    HW234489  12.858   4.179   4.618  0.4981  0.9810  0.4631
38833SOL     OW34490   2.076   1.453   4.718  0.1588  0.4293  0.3229
38833SOL    HW134491   2.160   1.408   4.713 -0.1895 -0.1013 -1.3087
38833SOL    HW234492   2.011   1.383   4.711 -0.3933  1.0128 -0.5955
38834SOL     OW34493   3.061  13.778  13.497 -0.1656 -0.4450  0.1398
38834SOL    HW134494   3.082  13.866  13.466 -0.2473 -0.4645  0.0274
38834SOL    HW234495   2.999  13.744  13.432  0.6840 -0.9909 -0.4273
38835SOL     OW34496   3.803  12.769  12.846  0.0313 -0.5771  0.1746
38835SOL    HW134497   3.746  12.808  12.780  1.1366  1.5288  0.3617
38835SOL    HW234498   3.887  12.759  12.803  0.8647  1.1431  1.2887
38836SOL     OW34499  10.730   5.007  11.816  0.4358 -0.4017 -0.6883
38836SOL    HW134500  10.811   5.028  11.770  0.1450  2.1376 -0.1593
38836SOL    HW234501  10.664   5.063  11.775 -0.6593 -1.0270  0.1630
38837SOL     OW34502  10.603   9.153   4.979 -0.3346 -0.0083 -0.1967
38837SOL    HW134503  10.687   9.139   4.937 -1.0422  2.3479 -2.7257
38837SOL    HW234504  10.558   9.069   4.972  1.1217 -0.7978 -0.4399
38838SOL     OW34505   8.365   6.332   8.783  0.2389  1.0107 -0.4474
38838SOL    HW134506   8.401   6.418   8.802  1.2322  0.2308  1.5577
38838SOL    HW234507   8.436   6.271   8.803 -0.3172 -0.2691 -2.1675
38839SOL     OW34508   8.098   2.483  11.023  0.5088 -0.3413  0.2834
38839SOL    HW134509   8.019   2.523  10.985  1.0028 -0.2872 -0.7368
38839SOL    HW234510   8.166   2.549  11.010  0.5835 -0.0713  1.8497
38840SOL     OW34511  14.124  10.294  10.969  0.4449  0.6086  0.5446
38840SOL    HW134512  14.062  10.257  11.032 -0.9647  1.0054 -0.5561
38840SOL    HW234513  14.150  10.378  11.008 -0.2880  0.7766  0.6981
38841SOL     OW34514  11.991   7.636   0.631  0.0927  0.1584  0.1754
38841SOL    HW134515  12.086   7.648   0.643  0.4434 -1.3356 -0.7552
38841SOL    HW234516  11.978   7.644   0.537 -0.8150  0.9358  0.3578
38842SOL     OW34517   8.134  12.931  11.606 -0.3057  0.3455  0.5037
38842SOL    HW134518   8.192  12.963  11.538  0.3798 -0.9682  0.4322
38842SOL    HW234519   8.047  12.959  11.579  0.0109  0.2611 -0.6659
38843SOL     OW34520  13.773   2.920   6.221 -0.0478  0.6603 -0.1527
38843SOL    HW134521  13.720   2.940   6.298 -0.0640 -0.1213  0.0488
38843SOL    HW234522  13.728   2.846   6.180  0.1371  0.8671 -0.7337
38844SOL     OW34523   4.407  12.750   3.910 -0.6098  0.4082  0.0567
38844SOL    HW134524   4.346  12.706   3.969 -0.9536 -0.6091 -1.0143
38844SOL    HW234525   4.475  12.785   3.967 -0.2090 -1.6944  0.9783
38845SOL     OW34526   2.080  13.354   3.770 -0.2208 -1.2175 -0.1615
38845SOL    HW134527   2.115  13.440   3.795  1.4884 -1.8878 -0.0846
38845SOL    HW234528   2.011  13.337   3.834 -1.9982  0.9203 -1.3657
38846SOL     OW34529   4.833  10.932   0.100  0.2937 -0.6151  0.4424
38846SOL    HW134530   4.844  10.863   0.165  1.4805 -1.3309 -0.4823
38846SOL    HW234531   4.849  10.889   0.016  0.0028  0.5518 -0.2329
38847SOL     OW34532  11.586   0.946  13.562  0.0543 -0.8871  0.0362
38847SOL    HW134533  11.624   0.988  13.639  0.6204 -1.9205  0.3467
38847SOL    HW234534  11.515   1.004  13.535  0.5431  0.0304  0.6919
38848SOL     OW34535  13.295   2.867   7.560 -0.2668 -0.3216  0.0495
38848SOL    HW134536  13.217   2.905   7.601 -0.2457 -0.6345  0.3892
38848SOL    HW234537  13.363   2.874   7.627  0.2472  0.7644 -0.5588
38849SOL     OW34538   4.892  10.117   9.199 -0.2517 -0.6069 -0.3494
38849SOL    HW134539   4.972  10.155   9.162 -0.7122  0.0814 -0.6662
38849SOL    HW234540   4.822  10.172   9.163 -0.7442 -0.0907  1.3337
38850SOL     OW34541  10.956   7.576  13.834 -0.3065  0.6723 -0.3714
38850SOL    HW134542  10.941   7.669  13.824  0.2856  0.8757  0.4442
38850SOL    HW234543  10.872   7.541  13.864 -0.4722  0.9839 -0.4702
38851SOL     OW34544   9.963   9.880   4.797  0.2523  0.0024 -0.2204
38851SOL    HW134545  10.052   9.880   4.830 -0.1175  1.6701  0.9182
38851SOL    HW234546   9.915   9.823   4.858  0.1855  0.5689  0.2595
38852SOL     OW34547  13.470   3.267  11.935 -0.6728  0.2980 -0.5204
38852SOL    HW134548  13.525   3.274  11.858  1.2027 -0.3396  0.6843
38852SOL    HW234549  13.519   3.209  11.994 -0.9881  2.3640  1.9784
38853SOL     OW34550   7.087   0.194  11.039 -0.1788 -0.0476 -0.4102
38853SOL    HW134551   6.996   0.219  11.025 -0.5479 -1.9624 -1.8220
38853SOL    HW234552   7.135   0.232  10.965  0.7262  3.1277  1.6183
38854SOL     OW34553   2.508   4.409  13.091 -0.1021 -0.5502  0.2574
38854SOL    HW134554   2.414   4.412  13.108 -0.3759  1.6878 -1.2413
38854SOL    HW234555   2.519   4.452  13.006  2.1683 -1.9168 -0.2202
38855SOL     OW34556   9.639  11.122  11.636  0.2382 -0.9630 -0.1501
38855SOL    HW134557   9.662  11.215  11.638 -2.6117 -0.1637  1.0956
38855SOL    HW234558   9.580  11.115  11.560 -0.0525 -1.5966  0.1317
38856SOL     OW34559   5.651   3.176  13.546 -0.3430  0.2612  0.3370
38856SOL    HW134560   5.654   3.215  13.634 -0.5107  1.1213 -0.0279
38856SOL    HW234561   5.558   3.158  13.531 -0.2838 -0.1500  0.4369
38857SOL     OW34562   7.733   1.070   9.338  0.1721 -0.2095 -0.1866
38857SOL    HW134563   7.745   1.160   9.307 -0.5339  0.2056  0.6947
38857SOL    HW234564   7.644   1.046   9.312  0.2387 -0.5301 -0.1273
38858SOL     OW34565   3.641   7.291   5.727  0.0514 -0.3158  0.0965
38858SOL    HW134566   3.640   7.197   5.747 -0.6106 -0.5719 -1.0424
38858SOL    HW234567   3.611   7.333   5.807 -1.1113 -1.1939  0.1516
38859SOL     OW34568   7.535   1.794  10.483  0.3715  0.5283  0.1725
38859SOL    HW134569   7.555   1.748  10.564 -1.3971 -0.2701  0.1864
38859SOL    HW234570   7.441   1.781  10.469 -0.2129  3.8674  0.0076
38860SOL     OW34571   5.617   9.978  12.807 -0.1539  0.3988 -0.6845
38860SOL    HW134572   5.589   9.927  12.731  0.8198  1.6009 -1.9186
38860SOL    HW234573   5.702   9.941  12.830  0.1001  0.8053 -0.9552
38861SOL     OW34574   6.995  13.953   9.036 -0.0010  0.0418 -0.7180
38861SOL    HW134575   6.930  13.924   9.100  1.2136  0.6184  0.8580
38861SOL    HW234576   6.944  13.996   8.967 -1.3381 -0.2977  0.0376
38862SOL     OW34577   8.973  10.895   5.465  0.0585 -0.0102  0.2607
38862SOL    HW134578   9.016  10.815   5.495  0.0978 -0.1572 -0.1765
38862SOL    HW234579   9.011  10.912   5.379 -4.9512 -3.6455 -3.2836
38863SOL     OW34580   1.150  13.492  12.847  0.7533 -0.1312 -0.5348
38863SOL    HW134581   1.198  13.533  12.919 -1.1148  1.0974  0.1043
38863SOL    HW234582   1.215  13.478  12.779  2.4370 -0.6330  1.1027
38864SOL     OW34583  12.432  12.567  11.761 -0.2511  0.0996 -0.2428
38864SOL    HW134584  12.377  12.502  11.715 -2.2246  1.4372  0.0968
38864SOL    HW234585  12.435  12.535  11.851 -0.0267 -0.2474 -0.3696
38865SOL     OW34586   7.591   8.499   1.763 -0.0237  0.0433  0.0651
38865SOL    HW134587   7.507   8.491   1.807  0.8072 -0.0407  1.7224
38865SOL    HW234588   7.569   8.523   1.673 -1.7546  1.4517  0.8177
38866SOL     OW34589   8.538  11.153  13.422  0.0426 -0.4712  0.5029
38866SOL    HW134590   8.489  11.134  13.502 -0.2844 -1.0986  0.1594
38866SOL    HW234591   8.485  11.115  13.352 -0.1228  0.8434 -0.1174
38867SOL     OW34592   8.707   3.863   6.752  0.2898 -0.0809 -0.0970
38867SOL    HW134593   8.626   3.813   6.757  0.7891 -1.0169 -1.0398
38867SOL    HW234594   8.700   3.927   6.823 -1.6961  0.5137 -0.7704
38868SOL     OW34595   0.794   7.754   8.711 -0.4757  0.0753 -0.0345
38868SOL    HW134596   0.742   7.721   8.638 -3.5752  2.0371  1.0980
38868SOL    HW234597   0.744   7.731   8.789  2.1951 -0.9937  1.5206
38869SOL     OW34598   6.410   8.631  12.683  0.2278  0.3904  0.4280
38869SOL    HW134599   6.410   8.652  12.776  0.3770 -1.0602  0.7707
38869SOL    HW234600   6.340   8.567  12.672  0.5760  0.1306 -0.3537
38870SOL     OW34601   2.125   9.705  10.306 -0.2233  0.0881 -0.1885
38870SOL    HW134602   2.146   9.721  10.214  0.7729  0.3393  0.0714
38870SOL    HW234603   2.133   9.792  10.347  0.3029 -0.1892  0.3074
38871SOL     OW34604   0.446   8.870   9.947  0.1884 -0.6360  0.4449
38871SOL    HW134605   0.427   8.788   9.994 -1.1440 -0.8735 -0.4457
38871SOL    HW234606   0.401   8.937   9.998  0.3715 -0.6128  0.5775
38872SOL     OW34607   4.883  12.955  13.739 -0.4933  0.5219 -0.6918
38872SOL    HW134608   4.818  13.009  13.784 -0.0913  1.0721 -0.7523
38872SOL    HW234609   4.839  12.926  13.660 -1.5166 -1.2125  0.4648
38873SOL     OW34610  13.638   7.822   9.346  0.3437  0.0075  0.3536
38873SOL    HW134611  13.563   7.792   9.398 -0.8065 -0.2452 -1.3667
38873SOL    HW234612  13.625   7.916   9.337  0.5265  0.0469  0.5004
38874SOL     OW34613   6.831   9.060   7.174  0.4669  0.1919  0.4237
38874SOL    HW134614   6.884   9.128   7.133 -0.0960  1.3752  1.5750
38874SOL    HW234615   6.833   9.082   7.268  0.8681 -1.8094  0.9315
38875SOL     OW34616  14.157   7.349   9.502  0.2737 -0.2129 -0.1043
38875SOL    HW134617  14.214   7.423   9.483  1.3741 -0.8304  0.7183
38875SOL    HW234618  14.130   7.317   9.416  2.2624 -0.7360 -0.5883
38876SOL     OW34619   8.689   7.686   0.754  0.0492  0.9922 -0.2525
38876SOL    HW134620   8.781   7.671   0.735  0.0856  1.7575 -0.7105
38876SOL    HW234621   8.668   7.769   0.711 -1.0040  0.5519 -0.6365
38877SOL     OW34622  10.476   5.483   8.433 -0.3648  0.2707 -0.1225
38877SOL    HW134623  10.441   5.443   8.512 -0.2117  1.0831  0.3601
38877SOL    HW234624  10.423   5.561   8.418  1.9281  2.2714  1.3624
38878SOL     OW34625   2.141  13.449   4.953  0.4988  0.3481 -0.3578
38878SOL    HW134626   2.074  13.420   5.015  1.9140 -1.7052  0.3392
38878SOL    HW234627   2.161  13.371   4.902  2.3498  0.8834 -0.5217
38879SOL     OW34628   2.296  10.391   8.892 -0.3394  0.1218  0.0209
38879SOL    HW134629   2.210  10.360   8.864 -0.8766  1.1814  0.4419
38879SOL    HW234630   2.284  10.416   8.983  0.6267 -0.4605  0.3191
38880SOL     OW34631   5.768   8.704   1.922  0.1726  0.1766  0.1093
38880SOL    HW134632   5.813   8.672   1.844 -1.2506 -0.3744 -0.5231
38880SOL    HW234633   5.675   8.692   1.902 -0.2384  0.6977  1.6139
38881SOL     OW34634   1.500  12.323   3.035  0.0080 -0.3891 -0.8669
38881SOL    HW134635   1.528  12.401   3.083  1.5434 -0.0796 -2.1692
38881SOL    HW234636   1.441  12.357   2.968 -0.4191 -0.5441 -0.5749
38882SOL     OW34637  14.045   4.318   0.724  0.1072  0.3410 -0.5732
38882SOL    HW134638  14.064   4.358   0.639 -0.3529  2.2091  0.1550
38882SOL    HW234639  13.952   4.296   0.720  0.2174 -0.1279 -0.7386
38883SOL     OW34640   3.159  10.932  12.646  0.2058 -0.4612 -0.1509
38883SOL    HW134641   3.074  10.931  12.689  0.1111 -3.9320 -0.1480
38883SOL    HW234642   3.146  10.984  12.567 -1.3717  0.5616  0.7268
38884SOL     OW34643  12.066   1.370  10.437  0.6348 -0.2652 -0.2100
38884SOL    HW134644  12.033   1.446  10.390  0.7407  1.1584  1.9158
38884SOL    HW234645  11.989   1.315  10.451  0.0009  0.8143  0.6811
38885SOL     OW34646   2.755  13.730   0.067  0.1138  0.5308 -0.5875
38885SOL    HW134647   2.763  13.725  -0.028 -0.5322  1.0116 -0.6776
38885SOL    HW234648   2.726  13.820   0.084 -0.2170  0.3192  0.0266
38886SOL     OW34649   3.128   0.832   9.211 -0.3412 -0.1870 -0.2699
38886SOL    HW134650   3.037   0.859   9.200 -0.6407 -1.2441 -0.5949
38886SOL    HW234651   3.125   0.763   9.277  0.3643  0.4499  0.4455
38887SOL     OW34652   6.630   2.474  10.504 -0.2046 -0.2400  0.1507
38887SOL    HW134653   6.679   2.540  10.454 -1.4587  0.1405 -0.6139
38887SOL    HW234654   6.693   2.403  10.519  1.0346  0.8947  0.5611
38888SOL     OW34655   3.750  11.530   1.822  1.1239 -0.5216 -0.3866
38888SOL    HW134656   3.699  11.505   1.745  2.9555 -1.0605 -1.4776
38888SOL    HW234657   3.800  11.607   1.795  0.6644  0.2172  0.7785
38889SOL     OW34658   2.785   2.039   2.320  0.4791  0.3470 -0.6002
38889SOL    HW134659   2.845   2.075   2.255 -1.1222  1.3772 -1.5734
38889SOL    HW234660   2.700   2.078   2.299 -0.2993 -0.0731  1.5024
38890SOL     OW34661   7.500   1.674  10.743  0.3933  0.0104  0.4348
38890SOL    HW134662   7.508   1.770  10.744  1.7047 -0.0719  1.6630
38890SOL    HW234663   7.508   1.648  10.834 -0.1030 -1.2758  0.1360
38891SOL     OW34664   8.418   9.209   1.757 -0.0462  0.0470  0.7418
38891SOL    HW134665   8.348   9.194   1.693  0.0521  0.3113  0.5740
38891SOL    HW234666   8.444   9.121   1.785 -0.9061 -0.0406  1.3017
38892SOL     OW34667   1.462   1.241   7.118  0.4194  0.9145  0.4014
38892SOL    HW134668   1.418   1.308   7.170 -0.9306 -0.1655  0.7094
38892SOL    HW234669   1.392   1.199   7.068  1.0783 -0.8691  0.9050
38893SOL     OW34670  12.022   8.072   8.079 -0.0831  0.1362  0.2105
38893SOL    HW134671  12.094   8.134   8.090  0.1561 -0.3563  1.5703
38893SOL    HW234672  12.010   8.067   7.984  2.0453 -0.1859 -0.1046
38894SOL     OW34673   3.919   6.498   3.488 -0.1748 -0.2442 -0.3084
38894SOL    HW134674   3.885   6.429   3.432 -1.5483 -0.2884  0.5306
38894SOL    HW234675   4.011   6.476   3.501 -0.7103 -2.2706  0.4357
38895SOL     OW34676   0.303  12.269   1.181 -0.7590  0.4633 -0.3279
38895SOL    HW134677   0.260  12.209   1.119 -0.5813  0.0623 -0.0640
38895SOL    HW234678   0.332  12.342   1.126  2.9212 -1.6329 -1.5155
38896SOL     OW34679   5.091  11.212   4.710  0.2826  0.2251  0.0399
38896SOL    HW134680   5.011  11.162   4.692 -0.1860  0.1991  1.9557
38896SOL    HW234681   5.162  11.158   4.675 -0.3683 -0.9157  0.4320
38897SOL     OW34682  11.628   9.331  11.466 -0.3845 -0.3900  0.4894
38897SOL    HW134683  11.690   9.392  11.506 -0.5550  0.2695 -0.2401
38897SOL    HW234684  11.683   9.270  11.417 -0.1989 -0.9753  1.3981
38898SOL     OW34685  11.845   6.092  11.885 -0.3348 -0.6109  0.1726
38898SOL    HW134686  11.772   6.100  11.824 -0.1811 -0.8179 -0.0430
38898SOL    HW234687  11.804   6.086  11.971 -0.5401 -0.0011  0.1206
38899SOL     OW34688  10.994   8.068   0.951 -0.5459 -0.0748  0.0807
38899SOL    HW134689  11.068   8.125   0.971 -0.1198 -1.1933  1.9382
38899SOL    HW234690  10.917   8.123   0.966 -0.1292  0.6049 -0.2162
38900SOL     OW34691   5.309   5.059  13.502  0.3842  0.3047  0.3013
38900SOL    HW134692   5.311   5.125  13.433 -1.8637 -0.5963 -0.7567
38900SOL    HW234693   5.370   5.091  13.569  0.4100  2.7136 -0.7722
38901SOL     OW34694   5.322   4.199   0.538 -0.0200  0.2502  0.3666
38901SOL    HW134695   5.352   4.281   0.500 -0.3998  0.1745 -0.1161
38901SOL    HW234696   5.349   4.202   0.629 -2.3448  2.1012  1.1018
38902SOL     OW34697  10.689   0.874   4.149 -0.0034 -0.2526 -0.2269
38902SOL    HW134698  10.625   0.804   4.162  0.8444 -0.9562  0.2995
38902SOL    HW234699  10.700   0.914   4.235  0.1351 -0.0219 -0.3503
38903SOL     OW34700   9.176  13.226   3.084  0.7415 -0.1854 -0.3344
38903SOL    HW134701   9.159  13.147   3.033  1.9264 -0.5179 -0.2496
38903SOL    HW234702   9.091  13.250   3.121 -0.1132 -0.0526 -2.2838
38904SOL     OW34703   7.908   0.115   8.863  0.5184  0.4069  0.3909
38904SOL    HW134704   7.833   0.097   8.805 -0.0607  2.8946  0.2176
38904SOL    HW234705   7.869   0.123   8.950  0.7108  0.8526  0.4379
38905SOL     OW34706   7.653   8.008   3.172 -0.0925  0.0434  0.5260
38905SOL    HW134707   7.724   8.072   3.162 -0.9493  1.1684  1.3009
38905SOL    HW234708   7.681   7.933   3.119  1.9021  0.2346  1.2106
38906SOL     OW34709  13.263   6.238   8.968 -0.6842  0.0030 -0.6382
38906SOL    HW134710  13.277   6.144   8.980 -1.2928 -0.0313 -0.1849
38906SOL    HW234711  13.316   6.260   8.892  0.2628 -0.5125 -0.1519
38907SOL     OW34712   5.265  11.818  13.309  0.2340  0.0416 -0.1210
38907SOL    HW134713   5.252  11.754  13.378  1.1434  1.5436  1.5212
38907SOL    HW234714   5.265  11.767  13.228 -2.4282 -1.6039  0.7896
38908SOL     OW34715   0.629   8.023   9.699 -0.8573  0.2138  0.1814
38908SOL    HW134716   0.684   7.948   9.678 -1.2980  0.3458 -1.5548
38908SOL    HW234717   0.546   7.985   9.729 -1.0934 -0.0152 -0.7310
38909SOL     OW34718   0.570   5.457  13.086  0.4734  0.4554  0.0001
38909SOL    HW134719   0.503   5.442  13.153 -0.5297  0.9745 -0.8632
38909SOL    HW234720   0.570   5.377  13.033 -0.1854  0.8402 -0.5981
38910SOL     OW34721   0.153   6.451   6.892 -0.0750 -0.3150 -0.0588
38910SOL    HW134722   0.154   6.506   6.971 -1.8214  0.8434 -0.7833
38910SOL    HW234723   0.200   6.501   6.827  1.6772 -1.4295  0.2844
38911SOL     OW34724   4.656   5.866   9.856 -0.1940  0.1563 -0.1460
38911SOL    HW134725   4.602   5.789   9.874  0.8081 -0.5460 -0.0313
38911SOL    HW234726   4.601   5.940   9.879 -0.3387 -0.5878  2.2680
38912SOL     OW34727   2.053   3.170  14.125 -0.0991  0.4849 -0.1944
38912SOL    HW134728   2.059   3.184  14.030 -0.1202 -1.8095 -0.6090
38912SOL    HW234729   1.960   3.151  14.140  0.0284  0.1303  0.1581
38913SOL     OW34730   0.368   8.574   5.953 -0.3434  0.4481 -0.6145
38913SOL    HW134731   0.461   8.593   5.946 -0.1845 -0.6448 -1.6849
38913SOL    HW234732   0.336   8.576   5.863 -1.0748 -0.4725 -0.3877
38914SOL     OW34733   0.260   4.897   9.921  0.4231 -0.4462 -0.4252
38914SOL    HW134734   0.167   4.909   9.938  0.4426 -0.4406 -0.3191
38914SOL    HW234735   0.301   4.900  10.008  0.5126 -0.5232 -0.4637
38915SOL     OW34736   6.202   6.525   8.386 -0.0730  0.4854 -0.0955
38915SOL    HW134737   6.226   6.557   8.299 -0.3608  0.8782 -0.0303
38915SOL    HW234738   6.209   6.601   8.443  0.5714  0.1302  0.3213
38916SOL     OW34739   3.287   3.590  10.479 -0.1295  0.3041 -0.1859
38916SOL    HW134740   3.278   3.494  10.480 -4.0331  0.4632 -1.9482
38916SOL    HW234741   3.242   3.619  10.558 -0.4667  0.7348 -0.5369
38917SOL     OW34742   6.924  11.617   7.363  0.4988  0.5454  0.3973
38917SOL    HW134743   7.015  11.593   7.348  0.3162  0.5626 -0.8541
38917SOL    HW234744   6.875  11.569   7.297 -0.2955  1.2833  0.4324
38918SOL     OW34745   0.069   5.742   4.879  0.4772  0.0816  0.9154
38918SOL    HW134746   0.017   5.790   4.944  0.9171  2.4483 -0.3563
38918SOL    HW234747   0.154   5.786   4.881  0.1315  1.1162 -2.0820
38919SOL     OW34748   4.349  12.722  11.424 -0.0484  0.5046 -0.3970
38919SOL    HW134749   4.297  12.789  11.469 -0.9689  1.2586 -2.4538
38919SOL    HW234750   4.297  12.643  11.431 -0.6223  0.8314 -0.9047
38920SOL     OW34751  12.107  12.918   0.437 -0.0378  0.0699 -0.7263
38920SOL    HW134752  12.171  12.983   0.464 -0.8630  0.3338  0.6661
38920SOL    HW234753  12.143  12.835   0.468 -0.8492  0.3401  1.0681
38921SOL     OW34754   2.214   3.061   1.072 -0.2502 -0.1965 -0.3559
38921SOL    HW134755   2.121   3.068   1.051  0.1282  3.7069 -1.4495
38921SOL    HW234756   2.215   3.040   1.166 -2.3160  1.4930  0.1252
38922SOL     OW34757  10.121   8.062  14.016 -0.0226  0.0926 -0.1580
38922SOL    HW134758  10.195   8.040  14.072  0.7242  0.7154 -0.8829
38922SOL    HW234759  10.090   8.146  14.050 -0.2720 -0.0636  0.0081
38923SOL     OW34760   2.165  12.350   6.536 -0.0817 -0.3632  0.3805
38923SOL    HW134761   2.208  12.277   6.491  1.1238  0.6622 -0.1931
38923SOL    HW234762   2.144  12.412   6.467 -0.7284  0.0168  0.9083
38924SOL     OW34763  12.621  12.412   6.776 -0.1281  0.1427  0.3935
38924SOL    HW134764  12.585  12.485   6.726  0.5391  0.4090  0.2894
38924SOL    HW234765  12.605  12.436   6.867 -0.5839  0.0549  0.3422
38925SOL     OW34766   0.980  10.464   1.256  0.0952  0.1084 -0.1218
38925SOL    HW134767   0.895  10.467   1.213  0.4555 -0.3972 -0.8978
38925SOL    HW234768   0.964  10.498   1.344 -0.7118  0.8927 -0.5606
38926SOL     OW34769   1.716   5.986   5.996 -0.3421  0.1712 -0.0395
38926SOL    HW134770   1.720   6.032   6.080  0.0888  1.8857 -0.9585
38926SOL    HW234771   1.622   5.976   5.979 -0.4342 -0.0801  0.5664
38927SOL     OW34772   4.321   6.484   2.635  0.6316 -0.0748  0.1692
38927SOL    HW134773   4.271   6.524   2.706 -1.8658 -0.1429 -1.4459
38927SOL    HW234774   4.322   6.391   2.656 -0.4265 -0.1469 -0.0498
38928SOL     OW34775  10.932   3.005   9.891  0.0880 -0.0608  0.0699
38928SOL    HW134776  11.016   3.042   9.864  0.2657  0.7993  1.6160
38928SOL    HW234777  10.946   2.911   9.893  1.2698  0.1070  0.9875
38929SOL     OW34778   5.669   6.243   1.692  0.5811 -0.0204  0.4536
38929SOL    HW134779   5.630   6.309   1.749  1.6418 -0.4764  1.7614
38929SOL    HW234780   5.724   6.294   1.632 -2.1662  0.6646 -1.6700
38930SOL     OW34781   8.136   8.714   9.784  0.1820 -0.4080 -0.3221
38930SOL    HW134782   8.168   8.802   9.805  1.4515 -1.0051  0.3648
38930SOL    HW234783   8.100   8.682   9.867  2.8249 -1.7803  0.4201
38931SOL     OW34784   1.559   9.691   7.906 -0.9674 -0.1153 -0.5928
38931SOL    HW134785   1.510   9.623   7.860 -0.2792 -0.2280 -1.1788
38931SOL    HW234786   1.594   9.647   7.984 -0.9954 -0.2844 -0.6757
38932SOL     OW34787   2.899  12.484   4.443  0.2743  0.0042 -0.7212
38932SOL    HW134788   2.992  12.483   4.468  0.2356  0.8229 -0.5004
38932SOL    HW234789   2.897  12.443   4.357  0.7447 -0.6738 -0.4185
38933SOL     OW34790  12.091   8.208   3.440 -0.6533  0.3321  0.1428
38933SOL    HW134791  12.034   8.167   3.506  1.4061 -1.1640  1.0921
38933SOL    HW234792  12.163   8.244   3.491  2.0881 -2.6696 -1.2836
38934SOL     OW34793  10.524  11.093   9.595 -0.8511 -0.2265  0.2582
38934SOL    HW134794  10.429  11.098   9.597 -0.8634 -0.2722 -0.2375
38934SOL    HW234795  10.553  11.184   9.591 -0.9414 -0.2428 -2.3009
38935SOL     OW34796   7.594   0.921  11.768 -0.0425  0.3142  0.3551
38935SOL    HW134797   7.676   0.872  11.781 -1.4761 -1.6929  2.7288
38935SOL    HW234798   7.543   0.866  11.709  0.0172  1.2006 -0.5391
38936SOL     OW34799   6.664   3.463   1.935  0.1757 -0.4050 -0.5656
38936SOL    HW134800   6.668   3.452   1.840 -1.2906 -0.1628 -0.6685
38936SOL    HW234801   6.755   3.455   1.963  0.6021 -0.7691 -1.9534
38937SOL     OW34802   2.010  13.524  12.737  0.2908 -0.2862 -0.2580
38937SOL    HW134803   2.091  13.477  12.755 -0.6957 -2.0709 -0.2628
38937SOL    HW234804   2.030  13.615  12.756  1.4350 -1.0544  2.7901
38938SOL     OW34805  11.490   7.726   9.567  0.1308 -0.7576 -0.0541
38938SOL    HW134806  11.477   7.668   9.642 -0.0859 -0.3573  0.2198
38938SOL    HW234807  11.494   7.667   9.492 -1.9847 -1.0359 -0.0175
38939SOL     OW34808   9.306  10.732   9.604  0.0995  0.0400 -0.4542
38939SOL    HW134809   9.373  10.693   9.548 -0.2755  0.1582 -0.9968
38939SOL    HW234810   9.342  10.727   9.692  0.6169 -0.3293 -0.6824
38940SOL     OW34811   0.013   1.006   9.140  0.6521 -0.4050 -0.6459
38940SOL    HW134812  -0.040   1.057   9.201  2.6664  0.5897  0.3900
38940SOL    HW234813  -0.009   1.041   9.053  0.3519  0.6771 -0.1504
38941SOL     OW34814   5.795  10.178  13.027 -0.3286  0.0152  0.1881
38941SOL    HW134815   5.833  10.266  13.018 -1.8492  0.6882 -0.1328
38941SOL    HW234816   5.829  10.130  12.951  2.2094 -0.3930  1.4826
38942SOL     OW34817   3.600   7.598  10.261 -0.0374  0.9639 -0.0392
38942SOL    HW134818   3.688   7.635  10.272  0.4442  0.5496 -2.2113
38942SOL    HW234819   3.614   7.504  10.249 -0.8378  0.8240  0.0408
38943SOL     OW34820   2.943   2.283  11.533  0.2722 -0.5245  0.2803
38943SOL    HW134821   3.025   2.234  11.541 -0.6109 -1.9207  1.4170
38943SOL    HW234822   2.902   2.275  11.619 -0.3835  1.4400  0.1977
38944SOL     OW34823   7.517  11.118  13.731 -0.0220 -0.4826 -0.2485
38944SOL    HW134824   7.487  11.161  13.811 -2.3636 -2.6556  0.1705
38944SOL    HW234825   7.482  11.174  13.661  0.3739  0.3868  0.2266
38945SOL     OW34826   1.368   7.990   9.888  0.3084 -0.0382  0.0205
38945SOL    HW134827   1.303   8.024   9.826  0.6405 -1.5730 -1.2293
38945SOL    HW234828   1.452   8.017   9.852  0.4922 -0.6749 -0.0382
38946SOL     OW34829  11.181   6.098  13.853  0.2378 -0.1371  0.1831
38946SOL    HW134830  11.133   6.063  13.777 -0.1266  1.1297 -0.1847
38946SOL    HW234831  11.114   6.142  13.905  0.8915  1.1035 -0.0139
38947SOL     OW34832  10.464   7.944   8.945 -0.0927 -0.3985  0.4014
38947SOL    HW134833  10.396   7.887   8.910 -0.1146 -0.0855 -0.0663
38947SOL    HW234834  10.421   8.028   8.960  0.8291  0.7684 -2.7601
38948SOL     OW34835   7.866   3.916   2.557  0.5918  0.4602 -0.0161
38948SOL    HW134836   7.882   3.904   2.464 -0.0293 -1.8423  0.1299
38948SOL    HW234837   7.857   4.011   2.567  1.1005  0.7981 -2.1996
38949SOL     OW34838  13.307   0.621   0.539  0.6942  0.4606 -0.4042
38949SOL    HW134839  13.251   0.543   0.546  0.4923  0.6509  0.1068
38949SOL    HW234840  13.246   0.694   0.537  0.9281  0.6818  0.3631
38950SOL     OW34841   2.092   0.076   2.314 -0.4081 -0.8278  0.0798
38950SOL    HW134842   2.007   0.102   2.351 -0.2610 -2.3495  1.5962
38950SOL    HW234843   2.071   0.046   2.226 -1.3294 -0.4965  0.1745
38951SOL     OW34844   2.422   6.354  10.422  0.6994  0.3680  0.3812
38951SOL    HW134845   2.469   6.418  10.369  2.0439  0.0912  1.1942
38951SOL    HW234846   2.391   6.289  10.359  1.9553  0.2329 -0.1269
38952SOL     OW34847   3.056   5.601   2.826 -0.2227  0.0465  0.0642
38952SOL    HW134848   3.086   5.684   2.863  0.4345  0.4610 -1.3170
38952SOL    HW234849   3.096   5.534   2.882 -2.5367  0.5752  2.5728
38953SOL     OW34850   1.590   0.213   7.562 -0.3308  0.0004  0.3518
38953SOL    HW134851   1.566   0.196   7.471 -0.6420  2.4417 -0.0761
38953SOL    HW234852   1.671   0.162   7.575 -1.2067 -1.7651 -0.7059
38954SOL     OW34853   7.878   8.993  13.904  0.3231 -0.2393  0.6019
38954SOL    HW134854   7.917   8.994  13.817  0.5593 -1.0092  0.6888
38954SOL    HW234855   7.942   8.948  13.959  0.0314 -0.0549  1.1045
38955SOL     OW34856  11.810   7.402   8.149  0.3002  0.3381  0.1558
38955SOL    HW134857  11.751   7.431   8.219  0.6477  1.8844 -0.1551
38955SOL    HW234858  11.812   7.306   8.158 -2.0084  0.2453  0.3438
38956SOL     OW34859   7.562   0.296   9.297 -0.6505  0.2716  0.3608
38956SOL    HW134860   7.608   0.303   9.380 -1.5781  0.7601  0.8529
38956SOL    HW234861   7.470   0.284   9.321 -1.0123  0.9726 -0.5796
38957SOL     OW34862   3.266   2.984  13.229  0.0807  0.0313  0.2915
38957SOL    HW134863   3.329   3.047  13.192  0.5608 -1.3316 -1.3131
38957SOL    HW234864   3.315   2.939  13.297  0.1476  0.4783  0.5436
38958SOL     OW34865   9.114   8.251   5.907  0.1048 -0.8060  0.2831
38958SOL    HW134866   9.085   8.190   5.975 -1.7587  1.2277  1.4393
38958SOL    HW234867   9.181   8.304   5.950 -0.7802  0.2109  0.4503
38959SOL     OW34868   4.222   1.463  10.741 -0.5135 -0.0865  0.0411
38959SOL    HW134869   4.264   1.501  10.664 -0.3471 -1.6627 -0.6743
38959SOL    HW234870   4.149   1.522  10.760 -0.1557  0.6839 -0.9019
38960SOL     OW34871   5.845  10.355   0.429 -0.3938  0.3580  0.1778
38960SOL    HW134872   5.923  10.376   0.480  1.2269 -1.2217 -1.4941
38960SOL    HW234873   5.837  10.426   0.366  0.3393  0.0232 -0.3084
38961SOL     OW34874   1.973   4.567   1.054  0.3518 -0.1260 -0.1078
38961SOL    HW134875   2.034   4.640   1.052 -0.4451  0.5419 -2.1183
38961SOL    HW234876   2.023   4.494   1.090  1.9702  0.6970 -0.6385
38962SOL     OW34877  13.027  10.997   6.707 -0.2065 -0.8003  0.2825
38962SOL    HW134878  12.970  10.978   6.633 -0.1488 -1.0380  0.2992
38962SOL    HW234879  13.115  10.975   6.676 -0.2762 -1.6835  0.6903
38963SOL     OW34880   6.878   4.957  12.379  0.0146  0.1777  0.1401
38963SOL    HW134881   6.901   5.049  12.395  0.2818 -0.0463  1.1191
38963SOL    HW234882   6.961   4.910  12.387 -0.1379 -0.1581 -0.2445
38964SOL     OW34883   3.404  13.401   8.239 -1.0829 -0.3073  0.0790
38964SOL    HW134884   3.443  13.322   8.201 -1.6780 -0.3189 -0.5306
38964SOL    HW234885   3.363  13.446   8.165 -1.2654  0.2673  0.5192
38965SOL     OW34886  10.469   7.475   2.574 -0.0751 -0.5505  0.7393
38965SOL    HW134887  10.501   7.508   2.658 -0.7013  0.4925  0.5834
38965SOL    HW234888  10.508   7.388   2.566  5.0390  1.4424 -0.6214
38966SOL     OW34889   1.669   0.413   8.931  0.5102 -0.1970 -0.1658
38966SOL    HW134890   1.618   0.360   8.869  1.8467 -1.2924 -0.3794
38966SOL    HW234891   1.759   0.407   8.899  1.0174  0.3715  1.0987
38967SOL     OW34892  10.646   3.071   1.776 -0.8937 -0.0332  0.2074
38967SOL    HW134893  10.627   2.985   1.813  0.0573 -0.2710  0.1623
38967SOL    HW234894  10.696   3.116   1.843 -0.2910  0.0152 -0.2668
38968SOL     OW34895  10.604   5.800   3.587  0.5402  0.0893 -0.1484
38968SOL    HW134896  10.647   5.735   3.643 -1.8723 -1.0259  0.5280
38968SOL    HW234897  10.658   5.803   3.508  1.2142 -2.0916  0.1671
38969SOL     OW34898  12.607   2.872   5.545 -0.0064  0.1911 -0.5451
38969SOL    HW134899  12.688   2.897   5.590 -0.4110  2.4079 -0.9247
38969SOL    HW234900  12.636   2.825   5.467  0.7242 -3.2485  1.5740
38970SOL     OW34901   4.411   7.887   8.200 -0.0650  0.7925 -0.0386
38970SOL    HW134902   4.319   7.863   8.197 -0.0263  0.5684  0.5176
38970SOL    HW234903   4.455   7.812   8.240  0.5947  0.2054 -1.7660
38971SOL     OW34904   0.266   0.593   4.606 -0.2964  0.3639 -0.1795
38971SOL    HW134905   0.313   0.559   4.682 -0.9569  1.6371  0.8441
38971SOL    HW234906   0.235   0.515   4.560 -0.9110 -0.4553  1.5350
38972SOL     OW34907   7.190   1.472   9.372 -0.0092  0.0276 -0.2142
38972SOL    HW134908   7.105   1.427   9.368 -0.7340  1.3705 -1.1737
38972SOL    HW234909   7.208   1.482   9.465 -1.5289  0.7778  0.0297
38973SOL     OW34910   3.810  10.376  13.835 -0.3106 -0.4173  0.3367
38973SOL    HW134911   3.828  10.289  13.799 -1.1981  0.6801 -3.1464
38973SOL    HW234912   3.886  10.429  13.809 -0.1550  0.0780  1.7131
38974SOL     OW34913  12.385   6.641  12.449 -0.0773  0.6737 -0.2430
38974SOL    HW134914  12.449   6.663  12.516  0.8692 -1.1400 -0.4964
38974SOL    HW234915  12.313   6.600  12.498 -0.8417  2.1991 -0.0249
38975SOL     OW34916   2.899  11.579   7.068  0.1080 -0.3291 -0.2785
38975SOL    HW134917   2.831  11.590   7.135 -0.6424 -0.2231 -1.0484
38975SOL    HW234918   2.867  11.627   6.992  0.3782 -1.4270 -1.1250
38976SOL     OW34919   0.969   2.945  11.185 -0.1271 -0.3604  0.0680
38976SOL    HW134920   0.904   2.998  11.139  1.2367  1.1761 -0.1693
38976SOL    HW234921   0.993   2.876  11.123 -1.1527 -0.6530 -0.0177
38977SOL     OW34922   1.866  10.296  12.150  0.7198  0.1140 -0.6010
38977SOL    HW134923   1.880  10.205  12.122 -1.7464 -0.3700 -0.5173
38977SOL    HW234924   1.954  10.330  12.167  1.6759 -2.7114  0.7461
38978SOL     OW34925   5.472   5.948  12.700 -0.1237  0.2108  0.0406
38978SOL    HW134926   5.465   5.965  12.606  0.7891  1.5949  0.1904
38978SOL    HW234927   5.524   5.868  12.707 -0.1516  0.1308 -0.6201
38979SOL     OW34928   9.293   5.860   1.134  0.4024 -0.6504  0.1430
38979SOL    HW134929   9.356   5.932   1.130 -0.4552  0.0632 -2.6459
38979SOL    HW234930   9.208   5.903   1.139 -0.0196 -1.5873  2.0543
38980SOL     OW34931   6.534  12.042   7.708  0.6891  0.1583 -0.0812
38980SOL    HW134932   6.445  12.071   7.687 -0.8071 -2.5252  1.9910
38980SOL    HW234933   6.579  12.042   7.624 -0.8744  2.5813 -1.0514
38981SOL     OW34934  10.001   8.815  10.612  0.4074 -0.3298  0.6612
38981SOL    HW134935  10.061   8.829  10.685  0.4812 -2.4721  1.0904
38981SOL    HW234936   9.944   8.744  10.642 -2.6315  1.7827  0.4310
38982SOL     OW34937  12.048  11.991   5.033 -0.3403 -0.1425  0.2029
38982SOL    HW134938  12.140  11.966   5.042 -0.5021 -0.0923  2.6391
38982SOL    HW234939  12.003  11.908   5.018 -0.1362 -0.5327  1.5578
38983SOL     OW34940   9.119   8.890   7.293  0.5098 -0.0697 -1.0150
38983SOL    HW134941   9.191   8.827   7.293 -0.7912 -1.7110 -2.7981
38983SOL    HW234942   9.041   8.836   7.281 -1.0426  1.6572  0.7034
38984SOL     OW34943   6.575  12.443   4.505  0.3336 -0.2602 -0.4751
38984SOL    HW134944   6.525  12.407   4.431  1.0042 -0.2314 -0.9551
38984SOL    HW234945   6.614  12.523   4.470  1.3976 -0.7161 -0.3823
38985SOL     OW34946   0.724   3.405  13.226 -0.3032  0.2775  0.3969
38985SOL    HW134947   0.799   3.434  13.174  0.0621 -1.5092 -0.1589
38985SOL    HW234948   0.763   3.374  13.308 -0.4490 -0.4424  0.1978
38986SOL     OW34949   4.142  13.495   2.212  0.7926 -0.9100 -0.2636
38986SOL    HW134950   4.083  13.445   2.269  0.4258 -1.8418 -1.4197
38986SOL    HW234951   4.094  13.576   2.193  0.4522 -1.0826 -0.1496
38987SOL     OW34952   3.953   5.582  14.010  0.3627 -0.2648 -0.0771
38987SOL    HW134953   3.927   5.492  13.988  0.2728  0.1976 -1.9726
38987SOL    HW234954   3.907   5.637  13.947 -1.0301  1.3283  2.1649
38988SOL     OW34955  12.355   2.441   4.542  0.3453 -0.0774  0.1269
38988SOL    HW134956  12.275   2.397   4.572  1.3740 -1.8354  0.4316
38988SOL    HW234957  12.325   2.527   4.513 -1.6387 -0.6243  0.3712
38989SOL     OW34958   8.893   4.916  12.156 -0.5286 -0.1626 -0.0388
38989SOL    HW134959   8.975   4.934  12.203 -0.2688 -1.2959 -0.0276
38989SOL    HW234960   8.916   4.931  12.064 -0.4257 -0.0809 -0.0017
38990SOL     OW34961   5.676   4.715   2.591 -0.1608  0.2488 -0.4342
38990SOL    HW134962   5.627   4.692   2.512 -0.2546  1.4910 -0.7476
38990SOL    HW234963   5.761   4.673   2.579 -0.2473  0.2520 -1.0966
38991SOL     OW34964  12.173  11.400   5.918  0.0680 -0.2862  0.0495
38991SOL    HW134965  12.225  11.473   5.951 -0.7788  0.3589  0.0008
38991SOL    HW234966  12.087  11.438   5.901 -0.5556 -1.4193  0.5584
38992SOL     OW34967  13.228   7.104   4.408  0.7104 -0.5266  0.0672
38992SOL    HW134968  13.235   7.199   4.407  1.7331 -0.5869 -1.6219
38992SOL    HW234969  13.318   7.073   4.393  0.3133 -1.7610  0.1076
38993SOL     OW34970  10.954   8.890  10.400 -0.5144 -0.3965  0.1971
38993SOL    HW134971  11.043   8.870  10.429  1.4853  2.1033 -3.3993
38993SOL    HW234972  10.915   8.939  10.472  1.1592 -1.0780  1.6431
38994SOL     OW34973   4.866   5.983  13.628  0.0622  0.2906 -0.3937
38994SOL    HW134974   4.847   6.019  13.541 -0.3445 -0.6847 -0.7218
38994SOL    HW234975   4.847   6.054  13.689 -0.4777  0.7055 -1.0420
38995SOL     OW34976  10.063   2.306  13.606  0.1771  0.9323  0.4740
38995SOL    HW134977   9.976   2.331  13.636  0.6946  2.7548  0.6210
38995SOL    HW234978  10.117   2.307  13.685  0.2028 -0.9354  0.5096
38996SOL     OW34979  13.258  11.373   5.820 -0.8392 -0.2235  0.2367
38996SOL    HW134980  13.238  11.466   5.806 -3.0048 -0.6911 -0.0782
38996SOL    HW234981  13.293  11.344   5.736  0.5302  0.4376  0.5495
38997SOL     OW34982  11.521   6.064   9.712  0.3022  0.5217  0.1695
38997SOL    HW134983  11.469   6.070   9.792 -1.0649 -0.7292 -0.5809
38997SOL    HW234984  11.463   6.022   9.648  2.3860 -1.5007 -0.5374
38998SOL     OW34985   2.451   5.851   7.892  0.3016 -0.1088 -0.3808
38998SOL    HW134986   2.373   5.820   7.938 -0.6743 -0.8260 -2.4128
38998SOL    HW234987   2.516   5.862   7.961 -1.0572 -1.1662  1.1564
38999SOL     OW34988  10.426   8.649   9.772  0.2439 -0.1119 -0.0187
38999SOL    HW134989  10.472   8.657   9.855 -1.5802  1.8065  0.9085
38999SOL    HW234990  10.487   8.684   9.707  1.4957 -1.1814  0.5431
39000SOL     OW34991  12.871  12.027   8.744 -0.2579 -0.1624 -0.2205
39000SOL    HW134992  12.942  12.092   8.752 -0.9875  0.5519  0.6672
39000SOL    HW234993  12.809  12.068   8.684 -0.1125 -0.6154 -0.6829
39001SOL     OW34994   1.214   5.717  12.526  0.0183 -0.2369  0.1705
39001SOL    HW134995   1.152   5.658  12.568 -0.3107  1.3843  2.1355
39001SOL    HW234996   1.158   5.784  12.486  0.4396  0.2146  0.3299
39002SOL     OW34997   0.910   6.058   6.494  0.3464  0.0700  0.1008
39002SOL    HW134998   0.908   6.003   6.415 -2.3307  0.2799 -0.0708
39002SOL    HW234999   0.897   6.147   6.462 -0.5278  0.1836  0.7512
39003SOL     OW35000   9.634   2.380   5.403  0.2234  0.3897 -0.1211
39003SOL    HW135001   9.654   2.396   5.310  3.0762  0.1125  0.3744
39003SOL    HW235002   9.631   2.467   5.442 -2.9986  0.6804 -0.7170
39004SOL     OW35003   6.331   6.973   6.685  0.3892  0.2426  0.2215
39004SOL    HW135004   6.297   7.055   6.649  0.2294 -0.7931 -2.1757
39004SOL    HW235005   6.263   6.909   6.667  1.3132 -0.7889  0.2992
39005SOL     OW35006  13.946   1.818  12.160  0.4781  0.0540 -0.2451
39005SOL    HW135007  13.960   1.912  12.176  1.2705  0.0527 -0.8555
39005SOL    HW235008  13.955   1.809  12.065 -0.2617 -0.5368 -0.2647
39006SOL     OW35009   8.366  13.345  11.027 -0.1600 -0.5644  0.5078
39006SOL    HW135010   8.313  13.370  11.103  1.5524  2.2447  0.9506
39006SOL    HW235011   8.455  13.337  11.062  0.4154 -0.7314 -0.9319
39007SOL     OW35012  11.985   4.129   1.672  0.2968 -0.0023  0.1272
39007SOL    HW135013  11.939   4.195   1.723  0.8672  1.5355 -1.2604
39007SOL    HW235014  11.925   4.054   1.669 -1.2202  1.1833  0.0725
39008SOL     OW35015  10.021   2.566   7.690 -0.0350  0.1156  0.0488
39008SOL    HW135016   9.968   2.646   7.699 -0.3692  0.0027 -0.8028
39008SOL    HW235017   9.961   2.495   7.714  0.5498  0.1671  1.7900
39009SOL     OW35018   8.683   9.646  13.257  0.2233  0.4262 -0.1836
39009SOL    HW135019   8.674   9.670  13.349  1.7321  0.4905 -0.0403
39009SOL    HW235020   8.759   9.695  13.226 -0.5436  0.7797 -1.6019
39010SOL     OW35021   5.769   6.219   8.673  0.5335 -0.1927  0.1094
39010SOL    HW135022   5.738   6.309   8.661  1.2764  0.2808  1.5199
39010SOL    HW235023   5.690   6.167   8.678  0.1008  0.2564 -1.4541
39011SOL     OW35024   8.901  13.599   3.923 -0.0469 -0.1997  0.1972
39011SOL    HW135025   8.871  13.625   3.836  1.3741  0.5321 -0.1053
39011SOL    HW235026   8.849  13.652   3.983  0.4363  0.8892 -0.3075
39012SOL     OW35027   0.740   3.193   0.545 -0.0537 -0.1077  0.1786
39012SOL    HW135028   0.655   3.158   0.571 -0.8552  0.1950 -1.8168
39012SOL    HW235029   0.790   3.116   0.519 -0.6181 -0.1134 -0.9710
39013SOL     OW35030   9.632  14.002   5.242 -0.0113  0.4602 -0.1634
39013SOL    HW135031   9.690  14.074   5.218 -0.4424  1.0075  0.4227
39013SOL    HW235032   9.545  14.040   5.241 -0.0518  0.5357  2.3413
39014SOL     OW35033   6.125  14.044   1.483 -0.3246 -0.5146  0.2835
39014SOL    HW135034   6.166  14.072   1.565 -0.3784 -0.6981  0.3748
39014SOL    HW235035   6.113  13.949   1.494  1.2882 -0.8779 -0.6208
39015SOL     OW35036  13.886   6.763   5.637  0.0851  0.0720 -0.2341
39015SOL    HW135037  13.869   6.848   5.595  1.8957  1.3083  1.3856
39015SOL    HW235038  13.850   6.699   5.576  1.2679  1.8375 -2.9733
39016SOL     OW35039   7.728  13.440   8.950  0.0022  0.2916 -0.5615
39016SOL    HW135040   7.740  13.533   8.965  1.6746 -0.3933  3.8437
39016SOL    HW235041   7.638  13.431   8.919 -0.7601  3.2263  0.5236
39017SOL     OW35042   6.398   5.437   5.702  0.2467 -0.3381  0.5349
39017SOL    HW135043   6.425   5.518   5.659 -0.9517  0.1393  0.6383
39017SOL    HW235044   6.345   5.391   5.636  0.5904 -0.8532  0.6128
39018SOL     OW35045   4.944  10.488  10.226  0.6155  0.4821  0.0849
39018SOL    HW135046   4.895  10.555  10.178  0.0989 -1.0441 -1.5846
39018SOL    HW235047   5.013  10.537  10.270 -2.2423  2.7420  2.5173
39019SOL     OW35048   6.951  10.523   5.070  0.2568  0.4610  0.1998
39019SOL    HW135049   6.887  10.460   5.036  0.2722  0.1568  0.7268
39019SOL    HW235050   6.932  10.529   5.164  1.8067 -0.6171  0.6207
39020SOL     OW35051   6.439   0.879  13.555 -0.4843 -0.5216 -0.2194
39020SOL    HW135052   6.489   0.961  13.560  0.8618 -0.8893 -4.2924
39020SOL    HW235053   6.504   0.810  13.567 -0.9204 -1.0081 -0.6072
39021SOL     OW35054   8.297   7.378   1.768 -0.2845  0.5303 -0.6529
39021SOL    HW135055   8.224   7.439   1.780 -0.4595  0.0596  0.8742
39021SOL    HW235056   8.255   7.295   1.744 -0.4118 -0.1009  1.5435
39022SOL     OW35057  12.414  12.082   1.195 -0.1476  0.5239 -0.2634
39022SOL    HW135058  12.508  12.093   1.211  0.0073  0.2762 -0.9606
39022SOL    HW235059  12.391  12.002   1.242 -0.0839  0.7792  0.2022
39023SOL     OW35060   4.739   1.672   8.957 -0.0371  0.4223  0.6598
39023SOL    HW135061   4.813   1.732   8.950 -0.9070  1.5956  1.2192
39023SOL    HW235062   4.759   1.602   8.894  0.5699  1.7535 -0.6903
39024SOL     OW35063  13.202  14.065   1.931 -0.0036  0.3607  0.1381
39024SOL    HW135064  13.219  14.061   1.837  0.6897 -1.1710  0.3173
39024SOL    HW235065  13.113  14.030   1.941  0.1141  0.0474  0.0989
39025SOL     OW35066  13.698   0.333   0.129 -0.0957  0.5837 -0.7038
39025SOL    HW135067  13.730   0.249   0.097  1.4380  0.9982 -0.3823
39025SOL    HW235068  13.621   0.352   0.077 -1.4625 -1.7725  0.3222
39026SOL     OW35069  11.414   7.560   1.184  0.3060 -0.2200 -0.1863
39026SOL    HW135070  11.446   7.607   1.107 -0.1693  0.6555  0.1368
39026SOL    HW235071  11.457   7.475   1.180  0.0141 -0.3167 -1.6117
39027SOL     OW35072   3.541   9.441  10.380  0.1474  0.6125 -0.7974
39027SOL    HW135073   3.476   9.488  10.433 -1.9631  0.2720 -2.8946
39027SOL    HW235074   3.603   9.508  10.353 -0.7252  1.4849 -0.7056
39028SOL     OW35075  12.854   9.081   0.343  0.6741  0.1093  0.4080
39028SOL    HW135076  12.941   9.095   0.381  1.2685  2.2742 -1.5260
39028SOL    HW235077  12.867   9.011   0.278  0.7496 -0.1787  0.7288
39029SOL     OW35078  10.097   5.075   8.101 -0.0099 -0.2227 -0.2248
39029SOL    HW135079  10.070   5.098   8.012 -0.7183 -0.5953 -0.1123
39029SOL    HW235080  10.152   5.149   8.129 -0.3166  0.2049 -0.7340
39030SOL     OW35081  10.206   7.397   3.660 -0.7455  0.6029 -0.3349
39030SOL    HW135082  10.268   7.385   3.732 -0.2712 -0.2348 -0.8667
39030SOL    HW235083  10.253   7.367   3.582 -0.8583  2.4831 -1.1906
39031SOL     OW35084  10.494   0.710   0.606 -0.1730 -0.3053 -0.5995
39031SOL    HW135085  10.541   0.763   0.542 -1.2997  0.7412 -0.5807
39031SOL    HW235086  10.443   0.773   0.657 -2.2664 -1.4662 -1.1732
39032SOL     OW35087   5.911   8.028   7.060  0.0543  0.3574  0.3888
39032SOL    HW135088   5.821   8.021   7.093 -0.1993 -2.7492 -0.7137
39032SOL    HW235089   5.964   7.986   7.128 -0.0874 -2.9905 -1.3900
39033SOL     OW35090  13.604   2.572  13.242 -0.7187 -0.9777  0.5984
39033SOL    HW135091  13.666   2.599  13.175 -0.9712 -1.9384 -0.0449
39033SOL    HW235092  13.549   2.648  13.257  0.2927 -0.2746  0.8106
39034SOL     OW35093   5.122  12.039   9.476 -0.4587 -0.0328  0.2393
39034SOL    HW135094   5.160  11.994   9.400  0.7414  1.9584 -0.4136
39034SOL    HW235095   5.055  12.097   9.440  0.7737  1.6440  0.5071
39035SOL     OW35096  11.694  10.469   2.663 -0.1757  0.7527 -0.2563
39035SOL    HW135097  11.764  10.488   2.725 -1.9024  2.1250  1.3482
39035SOL    HW235098  11.674  10.376   2.677  1.5119  0.2298 -1.0173
39036SOL     OW35099   8.971   2.870   2.440 -0.7811  0.6994 -1.2806
39036SOL    HW135100   9.002   2.956   2.469 -1.6927  1.1589 -1.6182
39036SOL    HW235101   8.983   2.871   2.345 -0.2298  0.2057 -1.2240
39037SOL     OW35102  10.983   1.796  10.909 -0.0903  0.1589 -0.5039
39037SOL    HW135103  11.024   1.879  10.883 -1.6376  1.0885 -0.1036
39037SOL    HW235104  11.001   1.789  11.003  0.0222  0.0393 -0.5333
39038SOL     OW35105  14.021   7.289   3.511  0.2232  0.0377 -0.2577
39038SOL    HW135106  14.015   7.248   3.424 -0.9187 -0.8703  0.2249
39038SOL    HW235107  13.934   7.327   3.525 -0.4376 -1.9462  1.4737
39039SOL     OW35108   2.634  10.776   7.189  0.3794 -0.3532 -0.4413
39039SOL    HW135109   2.717  10.729   7.194  0.4131 -0.3204 -0.6977
39039SOL    HW235110   2.658  10.868   7.179  0.3135 -0.3439 -0.5178
39040SOL     OW35111   7.533   1.346  13.877 -0.1563 -0.5615 -0.7300
39040SOL    HW135112   7.523   1.428  13.926 -1.6406 -0.6832 -0.7711
39040SOL    HW235113   7.598   1.296  13.926  2.3260  1.4033 -1.7763
39041SOL     OW35114   5.027   8.881  11.263 -0.0715 -0.0332  0.4839
39041SOL    HW135115   5.083   8.868  11.340  2.1726 -0.2204 -1.0683
39041SOL    HW235116   5.031   8.975  11.246  0.0704 -0.0972  0.1578
39042SOL     OW35117  10.838   8.245   5.181  0.6167 -1.2357 -0.0328
39042SOL    HW135118  10.822   8.256   5.087  0.2216  1.0261  0.2328
39042SOL    HW235119  10.910   8.306   5.200  1.1644 -2.1800  1.0172
39043SOL     OW35120  10.316   2.267   4.099 -0.1471  0.1692 -0.2379
39043SOL    HW135121  10.269   2.213   4.036  1.1867 -0.2445 -0.9168
39043SOL    HW235122  10.405   2.232   4.100 -0.9052 -2.6385  4.9230
39044SOL     OW35123   4.500   1.735   2.213 -0.1942 -0.8900 -0.4378
39044SOL    HW135124   4.455   1.667   2.263 -1.2532 -1.2380 -1.8123
39044SOL    HW235125   4.478   1.817   2.259  0.7049 -1.3960  0.9504
39045SOL     OW35126   4.848   7.267   8.737  0.3056  0.1091  0.2376
39045SOL    HW135127   4.779   7.206   8.715  1.1861 -1.0681  0.6305
39045SOL    HW235128   4.851   7.328   8.664 -0.9655  0.0392  0.1069
39046SOL     OW35129   1.412   0.869   8.138 -0.1512 -0.5878 -0.4085
39046SOL    HW135130   1.386   0.815   8.212 -0.2631 -0.8709 -0.6515
39046SOL    HW235131   1.421   0.957   8.174 -1.8194 -0.4030 -0.3932
39047SOL     OW35132   8.626   4.472  12.387  0.0307 -0.4678  0.0770
39047SOL    HW135133   8.683   4.540  12.350 -0.5528  0.4122  0.7478
39047SOL    HW235134   8.651   4.468  12.479 -0.2776 -0.8249  0.1470
39048SOL     OW35135   8.777   9.431   6.511  0.2645  0.3113  0.1471
39048SOL    HW135136   8.744   9.361   6.454  0.7210 -0.1469  0.4414
39048SOL    HW235137   8.751   9.512   6.467 -0.0053 -0.0441 -0.3522
39049SOL     OW35138   9.257  13.367  13.979 -0.3370  0.5434  0.3365
39049SOL    HW135139   9.259  13.460  13.956  1.0200  0.6936  0.9380
39049SOL    HW235140   9.274  13.321  13.897 -1.2712  0.7946 -0.0141
39050SOL     OW35141   9.910   1.203   2.312  0.3444 -0.4478 -0.4684
39050SOL    HW135142   9.855   1.245   2.246  1.5356  0.9965 -0.5852
39050SOL    HW235143   9.907   1.110   2.289  0.6164 -0.0081 -2.4989
39051SOL     OW35144  11.328  11.431   1.711  0.1509  0.3951 -0.1009
39051SOL    HW135145  11.284  11.395   1.634  1.3826 -0.4141 -0.4570
39051SOL    HW235146  11.418  11.400   1.704  0.4836  0.9666  1.2616
39052SOL     OW35147   7.249  10.272   2.453  0.7588 -0.5818 -0.0854
39052SOL    HW135148   7.195  10.323   2.392 -0.8042  0.5798  2.1399
39052SOL    HW235149   7.292  10.207   2.398 -1.7803 -0.6170 -2.2124
39053SOL     OW35150  13.902  12.935   9.640 -0.5691 -0.0385 -0.5865
39053SOL    HW135151  13.892  12.841   9.624 -0.0848 -0.0476 -0.8447
39053SOL    HW235152  13.825  12.958   9.691  0.0676 -0.8883  0.8349
39054SOL     OW35153  12.209   8.470   4.673 -0.3493  0.1528 -0.0837
39054SOL    HW135154  12.192   8.528   4.747  2.4807 -0.3627  1.0715
39054SOL    HW235155  12.287   8.421   4.698  0.3813 -0.4677 -3.1848
39055SOL     OW35156  13.309   0.259   3.629 -0.0135  0.6253 -0.1147
39055SOL    HW135157  13.302   0.351   3.653  0.1056  0.2603  1.4846
39055SOL    HW235158  13.282   0.212   3.708  0.5627 -0.7090 -0.6772
39056SOL     OW35159   2.575   7.489  13.403 -1.3323 -0.0056  0.7522
39056SOL    HW135160   2.486   7.497  13.436 -2.8618 -0.8262 -2.6858
39056SOL    HW235161   2.584   7.396  13.380  0.7505 -0.1143  1.7335
39057SOL     OW35162   1.368  13.466   3.609 -0.3798 -0.5238  0.1680
39057SOL    HW135163   1.418  13.477   3.528 -1.9619 -0.3522 -0.8092
39057SOL    HW235164   1.402  13.385   3.647 -0.3741 -1.2069 -1.2349
39058SOL     OW35165  14.043  10.118   3.327 -0.8067  0.1867 -0.9986
39058SOL    HW135166  14.050  10.061   3.404 -0.1100 -0.5730 -1.6066
39058SOL    HW235167  13.999  10.196   3.360 -1.2803 -0.4629 -0.0135
39059SOL     OW35168   4.056  10.062   3.091  0.1845 -0.0901  0.4920
39059SOL    HW135169   4.030  10.022   3.174  0.9906  1.9361  1.7987
39059SOL    HW235170   4.106   9.993   3.046 -2.5019 -2.1218  0.4017
39060SOL     OW35171   1.540   1.916   5.667 -0.3177 -0.7154  0.2844
39060SOL    HW135172   1.516   2.007   5.647  1.1599  0.0992  1.8457
39060SOL    HW235173   1.461   1.878   5.705 -0.9098 -0.0416 -0.2364
39061SOL     OW35174   1.638   5.483  11.342 -0.1086 -0.1642 -0.4047
39061SOL    HW135175   1.582   5.430  11.398  1.1153  0.6331  1.7012
39061SOL    HW235176   1.679   5.420  11.282 -0.7365 -1.1916  0.2127
39062SOL     OW35177   5.465  13.489   1.831  0.0629 -0.0744 -0.1717
39062SOL    HW135178   5.421  13.515   1.750  0.1161  0.1709 -0.1250
39062SOL    HW235179   5.413  13.530   1.900  0.6323  0.6205 -0.1411
39063SOL     OW35180   7.528   7.011  11.307 -0.3395 -0.1245  0.0542
39063SOL    HW135181   7.437   7.038  11.298 -0.6978 -0.9738  0.9042
39063SOL    HW235182   7.532   6.971  11.394  0.9638  0.3538  0.2377
39064SOL     OW35183   9.073  13.112   1.333 -0.0250 -0.1549  0.3714
39064SOL    HW135184   9.131  13.181   1.365  0.6632 -1.7599  2.7803
39064SOL    HW235185   9.011  13.098   1.404 -1.9141 -0.1793 -1.1969
39065SOL     OW35186  11.090   0.298   2.308  0.4653  0.1398  0.3291
39065SOL    HW135187  11.020   0.235   2.326 -2.5303  2.1956 -2.6988
39065SOL    HW235188  11.101   0.346   2.390 -4.0921  1.7164  0.3094
39066SOL     OW35189   7.925   6.019   1.412  0.2209 -0.2095 -0.3236
39066SOL    HW135190   7.931   6.069   1.330 -0.0870 -1.7785 -1.3634
39066SOL    HW235191   7.835   5.985   1.411  0.7384 -1.6265 -0.1956
39067SOL     OW35192  12.975   0.660  12.268  0.0623  0.4158 -0.2634
39067SOL    HW135193  13.016   0.627  12.348 -0.3711 -0.0478 -0.2286
39067SOL    HW235194  13.032   0.630  12.197 -0.0369  0.0656 -0.1928
39068SOL     OW35195   3.950   5.220   1.671 -0.0718  0.4292  0.0955
39068SOL    HW135196   4.029   5.178   1.637 -0.0878  1.7683 -1.7745
39068SOL    HW235197   3.878   5.168   1.635 -0.0638  0.4843 -0.0004
39069SOL     OW35198   1.533   7.870   1.737 -0.7490  0.6446  0.1521
39069SOL    HW135199   1.580   7.887   1.818 -1.0579 -0.0209  0.4813
39069SOL    HW235200   1.475   7.946   1.726 -0.5960  0.8091  0.4690
39070SOL     OW35201  13.243   4.789   1.175 -0.0887 -0.1439  0.0919
39070SOL    HW135202  13.273   4.797   1.084  0.4015 -2.1323  0.0227
39070SOL    HW235203  13.239   4.694   1.190 -1.0004  0.1390  1.8827
39071SOL     OW35204  11.205  10.460  13.103 -0.1389  0.4660  0.1419
39071SOL    HW135205  11.267  10.447  13.175  1.7626  0.8657 -1.3230
39071SOL    HW235206  11.171  10.548  13.117 -1.9715 -0.4517  2.0438
39072SOL     OW35207   1.195   8.342   5.299  0.5124  0.0069  0.2813
39072SOL    HW135208   1.181   8.284   5.225  0.0751  2.3374 -1.5836
39072SOL    HW235209   1.159   8.295   5.374 -1.8588 -1.2411 -1.5051
39073SOL     OW35210   5.811   4.829   0.662  0.3272 -0.6746 -0.7799
39073SOL    HW135211   5.854   4.765   0.605 -1.0629 -0.5860 -1.9848
39073SOL    HW235212   5.847   4.913   0.635  1.9648 -0.8717  0.6299
39074SOL     OW35213   0.461   5.850   9.887  0.1213  0.1413  0.4819
39074SOL    HW135214   0.490   5.883   9.802 -2.3781 -0.7162 -0.8057
39074SOL    HW235215   0.529   5.787   9.912  0.6706  0.0446 -1.1085
39075SOL     OW35216   9.684   0.796   1.975  0.0641  0.1429 -0.6665
39075SOL    HW135217   9.678   0.718   2.029  2.4285 -0.8081 -1.6026
39075SOL    HW235218   9.658   0.767   1.887  1.5222  0.1917 -1.1487
39076SOL     OW35219  11.814   3.943   8.908 -0.1205 -0.1470 -0.5741
39076SOL    HW135220  11.737   3.898   8.941 -0.8458  1.1056 -0.5141
39076SOL    HW235221  11.810   4.030   8.946  0.9243  0.1836 -1.1709
39077SOL     OW35222   9.794  10.363   7.764  0.2777 -0.2574  0.1886
39077SOL    HW135223   9.769  10.436   7.820 -0.2189 -0.9016  0.8214
39077SOL    HW235224   9.719  10.303   7.767  0.8261 -0.9721 -0.0087
39078SOL     OW35225   3.759   1.872  12.715  0.6659 -0.1108  0.4417
39078SOL    HW135226   3.721   1.786  12.697 -1.0095  0.3294  1.5776
39078SOL    HW235227   3.853   1.858  12.712  0.4322 -2.0190  0.7670
39079SOL     OW35228   2.999   0.180   9.570  0.1432  0.3286  0.0485
39079SOL    HW135229   2.993   0.202   9.663  1.2014 -1.0908  0.4903
39079SOL    HW235230   2.907   0.176   9.541 -0.2319  0.1071  1.2043
39080SOL     OW35231   8.186   3.718   3.435 -0.4303  0.1087  0.0826
39080SOL    HW135232   8.198   3.772   3.357  0.2116 -1.0433 -0.6489
39080SOL    HW235233   8.092   3.698   3.436 -0.4314  0.0733 -0.4380
39081SOL     OW35234   6.552   3.202  12.263 -0.1833 -0.2013  0.3880
39081SOL    HW135235   6.532   3.255  12.185  0.4870  0.9842  0.9785
39081SOL    HW235236   6.570   3.115  12.229 -1.5625 -0.1297 -0.6063
39082SOL     OW35237   4.788   4.153   4.624 -0.3950  0.2440 -0.2436
39082SOL    HW135238   4.764   4.094   4.553  0.5477 -0.5929  0.0985
39082SOL    HW235239   4.773   4.101   4.704  0.3124  0.5133  0.0702
39083SOL     OW35240   3.108  14.119   0.687  0.2208 -0.5047 -0.1469
39083SOL    HW135241   3.113  14.211   0.713 -1.7958  1.3077 -4.9532
39083SOL    HW235242   3.197  14.096   0.662  0.9552 -0.3260  2.1231
39084SOL     OW35243  14.065  13.439  14.107 -0.2915 -0.4917 -0.2670
39084SOL    HW135244  13.980  13.461  14.145  0.6216  1.0697  0.9906
39084SOL    HW235245  14.126  13.502  14.146  1.7175 -2.4608  0.0022
39085SOL     OW35246   0.380   5.077   4.108  0.0907 -0.5384 -0.2672
39085SOL    HW135247   0.407   5.130   4.033 -1.3544 -0.2342 -0.6184
39085SOL    HW235248   0.397   4.987   4.081  2.2584 -0.3144  0.2022
39086SOL     OW35249  13.791   6.534  10.739 -0.1490  0.2485 -0.6239
39086SOL    HW135250  13.716   6.592  10.729 -0.8510 -0.4047  0.6451
39086SOL    HW235251  13.823   6.551  10.827  0.1832 -0.6651 -0.5565
39087SOL     OW35252   8.849   5.537  12.761 -0.3664 -0.1669  0.2959
39087SOL    HW135253   8.859   5.604  12.694 -0.7644 -1.6047 -1.2734
39087SOL    HW235254   8.909   5.563  12.830  0.6365  0.9801 -0.9496
39088SOL     OW35255   4.044   8.453   7.939  0.4736  1.1512 -0.0862
39088SOL    HW135256   4.113   8.517   7.956 -0.0734  1.5983  0.4869
39088SOL    HW235257   4.022   8.419   8.026 -1.0155  2.0501 -0.0802
39089SOL     OW35258   5.444   7.707  11.906  0.9584  0.0346 -0.2557
39089SOL    HW135259   5.499   7.659  11.968  0.6168 -1.4513 -1.0606
39089SOL    HW235260   5.377   7.749  11.960  1.0457 -0.7083  0.4420
39090SOL     OW35261  13.087   6.446  13.125 -0.3168 -0.2438  1.0231
39090SOL    HW135262  13.134   6.416  13.203  0.5827  1.2762  1.1032
39090SOL    HW235263  13.151   6.439  13.054 -0.7033 -0.3214  0.6765
39091SOL     OW35264  13.103  12.236  12.170 -0.2312 -0.3208 -0.6905
39091SOL    HW135265  13.169  12.209  12.106 -0.0677  0.2223 -0.7547
39091SOL    HW235266  13.075  12.154  12.212  1.1723 -0.4599  0.0198
39092SOL     OW35267   2.253   3.238  11.355  0.0163  0.5595  0.1826
39092SOL    HW135268   2.260   3.234  11.450  1.3067 -0.5175  0.0624
39092SOL    HW235269   2.321   3.300  11.328  0.5275 -0.1160 -0.1126
39093SOL     OW35270   0.499   0.827  12.826  0.5845  0.4625  0.0095
39093SOL    HW135271   0.475   0.909  12.784 -0.7327  0.5180  0.8056
39093SOL    HW235272   0.481   0.760  12.760 -0.3327  0.6450  0.0637
39094SOL     OW35273  11.862   6.614   2.146 -0.6939  0.2127 -0.0873
39094SOL    HW135274  11.932   6.668   2.183 -1.2467 -0.0824  1.4456
39094SOL    HW235275  11.805   6.675   2.100 -1.6408  1.0869  2.1162
39095SOL     OW35276   9.074   6.124   4.727 -0.3707  0.4220 -0.0169
39095SOL    HW135277   9.150   6.066   4.738  1.8106  3.2286  1.0990
39095SOL    HW235278   9.004   6.081   4.775  1.0006 -1.5050  0.3949
39096SOL     OW35279   4.987  14.101  12.315  0.2778 -0.2451 -0.3784
39096SOL    HW135280   5.074  14.108  12.275  1.8232 -1.3846  2.4601
39096SOL    HW235281   4.966  14.008  12.310 -1.4251  0.1740 -2.1133
39097SOL     OW35282   1.297  12.350   7.403  0.4587 -0.5762 -0.3856
39097SOL    HW135283   1.244  12.331   7.325 -1.3128 -2.6289  1.1958
39097SOL    HW235284   1.386  12.325   7.378  0.2189  0.1554 -2.1638
39098SOL     OW35285   0.298   8.126   7.446 -0.3197 -0.2099  0.1481
39098SOL    HW135286   0.252   8.112   7.364  0.0528 -1.1418  0.0822
39098SOL    HW235287   0.266   8.057   7.504  0.7666 -0.7027  0.1923
39099SOL     OW35288   6.800   2.128   1.109 -0.2648  0.3367 -0.4972
39099SOL    HW135289   6.762   2.118   1.022 -0.7060 -0.1021 -0.2630
39099SOL    HW235290   6.854   2.049   1.121  0.8343  1.0169 -0.8775
39100SOL     OW35291  13.479   3.076   5.829  0.3220  0.1266 -0.2694
39100SOL    HW135292  13.491   3.170   5.812  2.0976  0.0973  0.6147
39100SOL    HW235293  13.429   3.045   5.754 -0.5496  1.8247 -0.4458
39101SOL     OW35294   5.150  10.680  10.391 -0.7930 -0.2995 -0.5854
39101SOL    HW135295   5.141  10.585  10.402  3.2216 -0.7464  0.5292
39101SOL    HW235296   5.120  10.716  10.474 -1.3061 -0.6792 -0.5991
39102SOL     OW35297  13.142  10.809   8.610  0.1492  0.0471 -0.7124
39102SOL    HW135298  13.126  10.732   8.556  1.5218  0.2394 -1.4112
39102SOL    HW235299  13.055  10.830   8.646 -0.1909 -2.0902 -0.1006
39103SOL     OW35300  12.584   5.860   4.064  0.2114  0.4849 -0.2896
39103SOL    HW135301  12.548   5.835   3.980  0.5668  0.2656 -0.3784
39103SOL    HW235302  12.577   5.782   4.118  0.7538  0.3684 -0.3770
39104SOL     OW35303   9.433   0.631   8.304 -0.1505  0.1381 -0.8439
39104SOL    HW135304   9.471   0.544   8.319 -0.3909  0.0237 -0.9041
39104SOL    HW235305   9.424   0.668   8.391 -0.7098 -0.1771 -0.7610
39105SOL     OW35306   2.742   8.471  13.754  0.0040  0.1584 -0.6787
39105SOL    HW135307   2.823   8.471  13.805  0.0079 -1.1946 -0.6628
39105SOL    HW235308   2.672   8.463  13.819 -0.0246 -0.8628 -0.8193
39106SOL     OW35309   6.086  13.938   8.040  0.1697 -0.6000 -0.4721
39106SOL    HW135310   6.151  13.919   7.972  1.2499 -0.5352  0.5195
39106SOL    HW235311   6.022  13.867   8.032  0.8099 -1.1371 -0.9242
39107SOL     OW35312   8.472  12.675   6.849  0.0323 -0.1512  0.4419
39107SOL    HW135313   8.388  12.682   6.804 -0.0815  0.6044  0.7534
39107SOL    HW235314   8.494  12.582   6.845 -0.1729 -0.1595 -0.8054
39108SOL     OW35315   2.473  11.953   1.406  0.5257 -0.1005  0.3698
39108SOL    HW135316   2.556  11.986   1.372  0.3817  0.3721  0.4752
39108SOL    HW235317   2.425  12.031   1.433  1.0025 -0.4760  2.5085
39109SOL     OW35318   0.254   3.664   2.689 -0.2419  0.0742  0.2199
39109SOL    HW135319   0.173   3.614   2.697 -0.2128 -0.6896 -2.7780
39109SOL    HW235320   0.257   3.690   2.597  1.9557  1.8199  0.6953
39110SOL     OW35321  10.704   8.567   5.589  0.2805  0.2874 -0.2230
39110SOL    HW135322  10.743   8.623   5.656 -0.0603 -1.8716  1.9153
39110SOL    HW235323  10.760   8.490   5.586 -0.4794 -0.2486 -1.4896
39111SOL     OW35324   7.592  10.908   1.157 -0.1332  0.4826 -0.2957
39111SOL    HW135325   7.629  10.908   1.069  0.0493 -0.5191 -0.2287
39111SOL    HW235326   7.664  10.881   1.214 -0.2472  1.1328  0.1704
39112SOL     OW35327   8.540   7.302   6.211  0.1194 -0.0580 -0.4092
39112SOL    HW135328   8.449   7.284   6.186  0.0681 -0.5467  0.1085
39112SOL    HW235329   8.584   7.218   6.204  0.2454 -0.0774  0.5000
39113SOL     OW35330   5.736   6.211   6.652 -0.2439 -0.1990  0.2327
39113SOL    HW135331   5.688   6.229   6.571  0.3304  0.8157  0.1026
39113SOL    HW235332   5.821   6.253   6.639 -1.3690  3.4375  2.7960
39114SOL     OW35333   0.654   3.047  13.318  0.2597 -0.3295 -0.3126
39114SOL    HW135334   0.566   3.051  13.279  0.9111  1.6352 -1.7698
39114SOL    HW235335   0.712   3.034  13.244  1.3410  0.3807  0.3865
39115SOL     OW35336   5.386   9.460   9.047  0.1879 -0.5945 -0.2096
39115SOL    HW135337   5.367   9.412   9.128  3.2900 -0.0378  1.0096
39115SOL    HW235338   5.365   9.398   8.977 -1.7559 -1.4212  1.0162
39116SOL     OW35339   0.360   3.161  12.830 -0.0229 -0.5214 -0.3515
39116SOL    HW135340   0.449   3.194  12.822  0.2759 -0.8174  1.3889
39116SOL    HW235341   0.316   3.224  12.886 -0.2387 -1.5783  0.6959
39117SOL     OW35342  10.707  13.021   1.427  0.3044 -0.4468  0.0209
39117SOL    HW135343  10.768  13.014   1.354  0.9653 -2.4662  0.7093
39117SOL    HW235344  10.620  13.024   1.386  0.7323  3.4198 -1.0212
39118SOL     OW35345  13.254  11.686   7.020 -0.1000  0.2706  0.0675
39118SOL    HW135346  13.269  11.708   7.112  0.2491  1.2551 -0.2101
39118SOL    HW235347  13.221  11.597   7.022 -1.4038  0.7336  1.2490
39119SOL     OW35348   4.230   3.109   0.591 -0.4147 -0.2730 -0.2861
39119SOL    HW135349   4.138   3.105   0.618 -0.4802 -0.3339 -0.5182
39119SOL    HW235350   4.227   3.108   0.495 -0.2058  0.3114 -0.3068
39120SOL     OW35351  12.136   3.361  12.391  0.0881  0.6221  0.6630
39120SOL    HW135352  12.142   3.440  12.337 -0.0789  0.1562 -0.0549
39120SOL    HW235353  12.043   3.340  12.393  0.3932 -1.4083 -1.9400
39121SOL     OW35354   3.510   6.014  10.336  0.3314  0.2289 -0.0459
39121SOL    HW135355   3.426   6.048  10.308 -0.6946 -0.9499  1.4402
39121SOL    HW235356   3.528   5.942  10.275  0.4585  0.7015 -0.5798
39122SOL     OW35357  14.157   9.538  12.183  0.3944  0.1799  0.1070
39122SOL    HW135358  14.077   9.586  12.203  1.1349  1.0138  1.1555
39122SOL    HW235359  14.200   9.525  12.268  0.9025 -1.1259 -0.3138
39123SOL     OW35360   6.290   8.965   7.936  0.1310 -0.8857  0.1160
39123SOL    HW135361   6.260   9.038   7.991 -0.4013 -0.5097 -0.6662
39123SOL    HW235362   6.279   8.888   7.992 -2.1250 -0.7541 -0.0504
39124SOL     OW35363   4.970   5.027   1.400 -0.0059 -0.1704  0.5531
39124SOL    HW135364   5.054   5.052   1.362 -0.9156 -0.2816 -1.6972
39124SOL    HW235365   4.990   4.949   1.452  1.3066 -0.1035  0.1952
39125SOL     OW35366  11.011  12.475  11.039  0.1813 -0.6323 -0.0752
39125SOL    HW135367  11.083  12.518  11.084 -0.3551 -0.9079  1.0734
39125SOL    HW235368  11.052  12.405  10.988  0.7279 -0.7477  0.5199
39126SOL     OW35369   6.096   3.848  12.574 -0.6700  0.5461  0.0746
39126SOL    HW135370   6.115   3.942  12.577 -0.7106  0.6359 -1.5727
39126SOL    HW235371   6.182   3.806  12.566 -0.7487  0.5653 -0.9792
39127SOL     OW35372   9.841  11.415   9.887  0.6443 -0.1637  0.6813
39127SOL    HW135373   9.802  11.502   9.879  0.0431 -0.3916  1.0003
39127SOL    HW235374   9.774  11.356   9.851  0.5985 -0.5828  1.4216
39128SOL     OW35375  12.865   0.962   7.765 -0.3610  0.3249 -0.6906
39128SOL    HW135376  12.782   0.997   7.733 -0.7709 -0.4105 -0.4642
39128SOL    HW235377  12.895   0.904   7.695 -0.3999  0.0468 -0.4815
39129SOL     OW35378   4.865  10.148   9.746  0.2361  0.7370  0.0019
39129SOL    HW135379   4.863  10.053   9.749  0.0317  0.7769  1.5190
39129SOL    HW235380   4.842  10.169   9.655 -1.8362 -0.6060  0.1520
39130SOL     OW35381  10.921   3.993  10.230 -0.2319  0.8066 -0.3199
39130SOL    HW135382  10.960   3.918  10.185  0.5664  1.1166 -0.1489
39130SOL    HW235383  10.950   4.069  10.180 -2.2910  0.9358 -1.4169
39131SOL     OW35384   4.913   6.367   2.872 -0.3188  0.0321 -0.2334
39131SOL    HW135385   4.991   6.350   2.820  0.1824 -2.2996  1.1529
39131SOL    HW235386   4.946   6.394   2.958 -1.1152  2.4304 -0.6211
39132SOL     OW35387  13.960   4.699   3.925 -0.0583 -0.7912  0.8301
39132SOL    HW135388  13.953   4.670   4.016  1.5682 -0.3258  1.1316
39132SOL    HW235389  14.054   4.703   3.907 -0.3131  0.2122 -0.5141
39133SOL     OW35390  13.972   6.221  12.503  0.0694 -0.2810 -0.4540
39133SOL    HW135391  13.961   6.176  12.419 -0.1197 -0.4840 -0.3235
39133SOL    HW235392  13.942   6.311  12.487  0.1538 -0.2860 -0.6369
39134SOL     OW35393   6.234   4.010   8.083  0.0545  0.3325 -0.1226
39134SOL    HW135394   6.257   3.962   8.162 -1.3825  1.4370  1.0339
39134SOL    HW235395   6.199   3.943   8.024 -2.0872 -0.1347  1.5192
39135SOL     OW35396   2.782   5.329   8.580 -0.1074 -0.5556  0.5340
39135SOL    HW135397   2.784   5.342   8.675  0.4893  0.2717  0.4185
39135SOL    HW235398   2.690   5.313   8.560 -0.5873  1.4108  0.9995
39136SOL     OW35399   7.276  10.624   3.945  0.0329  0.2731 -0.2052
39136SOL    HW135400   7.263  10.611   3.851 -0.3318  1.1180 -0.2847
39136SOL    HW235401   7.245  10.543   3.985  0.1893 -0.0952 -0.8106
39137SOL     OW35402   5.739  12.311   5.778 -0.0166 -0.2707 -0.1650
39137SOL    HW135403   5.654  12.356   5.784 -0.5345 -1.2171 -0.2598
39137SOL    HW235404   5.767  12.327   5.687  0.0667  0.3002 -0.0470
39138SOL     OW35405   5.320   6.019   2.664  0.6923  0.4191 -0.3080
39138SOL    HW135406   5.300   6.077   2.590  2.0774  0.8862 -0.3416
39138SOL    HW235407   5.400   6.055   2.702  0.1841 -0.0080  1.2329
39139SOL     OW35408   3.104  13.914  12.787  0.4569 -0.0936  0.2256
39139SOL    HW135409   3.017  13.949  12.768  0.1708 -1.2369 -0.7353
39139SOL    HW235410   3.140  13.972  12.854 -0.9872  0.4814  0.5306
39140SOL     OW35411   8.113   8.739   9.070  0.1734 -0.3121  0.2975
39140SOL    HW135412   8.156   8.739   9.156  0.3809  0.9818  0.2138
39140SOL    HW235413   8.048   8.669   9.076  1.2452 -1.2746  0.9575
39141SOL     OW35414   5.427  13.409   2.239  0.1116  0.2218 -0.1523
39141SOL    HW135415   5.445  13.354   2.316 -0.2590 -2.3234 -1.7771
39141SOL    HW235416   5.343  13.450   2.258  0.6111  0.6411  1.3026
39142SOL     OW35417   5.226   1.287   6.872  0.4004 -0.0094  0.2169
39142SOL    HW135418   5.136   1.283   6.838  0.8132  1.2054 -1.1660
39142SOL    HW235419   5.266   1.205   6.844 -0.0258 -0.1680  0.0593
39143SOL     OW35420   3.738  11.494  10.848  0.6105 -0.1722 -0.5635
39143SOL    HW135421   3.664  11.526  10.796  1.2890 -1.5646 -2.4970
39143SOL    HW235422   3.711  11.508  10.939 -0.9899  1.5626 -1.2459
39144SOL     OW35423  13.664  10.435   6.039 -0.6795  0.1333 -0.3070
39144SOL    HW135424  13.749  10.452   6.080 -0.3740  0.0947 -0.9177
39144SOL    HW235425  13.683  10.430   5.945 -1.0168 -1.7891 -0.3263
39145SOL     OW35426   6.160   6.909   1.490  0.0436 -0.1536  0.1527
39145SOL    HW135427   6.254   6.908   1.504 -0.1192 -3.2670  2.0043
39145SOL    HW235428   6.147   6.854   1.412 -0.2089  2.5014 -1.8434
39146SOL     OW35429   1.419   0.146   9.786  0.2485 -0.0847  0.2972
39146SOL    HW135430   1.458   0.116   9.868 -0.2747 -2.2542 -0.1664
39146SOL    HW235431   1.439   0.239   9.782  2.0187 -0.3386  1.9097
39147SOL     OW35432   9.577   3.845  10.791  0.0872  0.1541  0.3945
39147SOL    HW135433   9.529   3.912  10.742  1.7652 -0.0539 -1.6822
39147SOL    HW235434   9.655   3.828  10.737  0.5764 -2.2046  1.7448
39148SOL     OW35435   7.743   8.316   4.888  0.4545  0.4079 -0.3003
39148SOL    HW135436   7.686   8.247   4.923  1.5323 -1.0339 -1.3119
39148SOL    HW235437   7.812   8.325   4.953  1.8473 -1.4924 -1.4274
39149SOL     OW35438  12.648   0.513   2.674 -0.0538 -0.6493  0.2034
39149SOL    HW135439  12.695   0.431   2.689  1.6758  0.1167 -0.7966
39149SOL    HW235440  12.689   0.551   2.596 -0.2167  1.5773  1.1184
39150SOL     OW35441   8.581   5.713   2.967 -0.0623 -0.5838  0.3223
39150SOL    HW135442   8.664   5.701   3.014 -0.3074 -1.9549  0.4681
39150SOL    HW235443   8.601   5.773   2.896  0.6560  0.4223  1.3397
39151SOL     OW35444   3.403  11.386  10.932 -0.0633  0.0111  0.3421
39151SOL    HW135445   3.472  11.372  10.997 -2.1668 -3.3885  2.1483
39151SOL    HW235446   3.325  11.406  10.984 -1.2966 -0.3672 -1.2854
39152SOL     OW35447  11.242   2.771   8.380  0.3019 -0.7797  0.0215
39152SOL    HW135448  11.290   2.740   8.303 -0.6405 -0.5974 -0.6613
39152SOL    HW235449  11.183   2.838   8.346 -0.5123 -1.0715  0.8088
39153SOL     OW35450   2.926   2.947   0.195 -0.3831  0.1589 -0.1580
39153SOL    HW135451   2.944   2.868   0.144  0.7034 -0.6461  1.3991
39153SOL    HW235452   3.011   2.991   0.201 -0.7969  0.9916 -0.2307
39154SOL     OW35453   5.292  13.081   2.958 -0.5480  0.2258 -0.4964
39154SOL    HW135454   5.250  13.099   3.042 -0.9783  0.6070 -0.7897
39154SOL    HW235455   5.224  13.096   2.893  0.2129  1.5687 -1.0360
39155SOL     OW35456   7.655   5.411   9.596 -0.2178  0.0388  0.2008
39155SOL    HW135457   7.676   5.319   9.606 -0.7800 -0.1217 -0.0420
39155SOL    HW235458   7.693   5.436   9.511 -2.0023 -0.5685 -0.8387
39156SOL     OW35459   1.054   9.788   7.304  0.2386 -0.3000  1.0307
39156SOL    HW135460   1.057   9.876   7.266  0.2192  0.1189  1.9692
39156SOL    HW235461   1.142   9.753   7.293 -0.1638 -0.8324 -0.8374
39157SOL     OW35462   7.309   0.494   2.935 -0.2644 -0.0205 -0.1829
39157SOL    HW135463   7.395   0.482   2.894 -0.6861  0.5529 -1.2768
39157SOL    HW235464   7.283   0.406   2.962  1.3131 -0.0300  1.5578
39158SOL     OW35465   6.807   7.448  13.813  0.6420 -0.1326  0.5556
39158SOL    HW135466   6.745   7.375  13.802 -0.7184  1.1805 -0.9924
39158SOL    HW235467   6.888   7.415  13.775 -0.1584 -0.6147 -0.8226
39159SOL     OW35468  13.820   2.593   7.722 -0.3149 -0.0259  0.2631
39159SOL    HW135469  13.825   2.629   7.634 -1.7271 -0.7713 -0.1561
39159SOL    HW235470  13.727   2.599   7.745  0.4230  3.5605  3.1993
39160SOL     OW35471   3.863   4.509   4.013 -0.5560 -0.5279 -0.2535
39160SOL    HW135472   3.887   4.592   4.052 -0.3408 -0.1296 -1.1992
39160SOL    HW235473   3.893   4.443   4.075  1.4856  0.0021 -0.5905
39161SOL     OW35474   1.646   1.870  10.887 -0.6567 -0.6684 -0.3339
39161SOL    HW135475   1.693   1.942  10.930 -0.4115 -0.7562 -0.4500
39161SOL    HW235476   1.625   1.810  10.958  1.4205 -1.7490 -0.5355
39162SOL     OW35477  11.456  12.610   4.065 -0.4379  0.3652 -0.3026
39162SOL    HW135478  11.380  12.553   4.064  1.3145 -2.2039  0.5798
39162SOL    HW235479  11.461  12.643   4.155 -1.3390  1.8438 -0.7623
39163SOL     OW35480  11.798   4.748   1.030 -0.1192 -0.0586 -0.0483
39163SOL    HW135481  11.734   4.677   1.026  0.7340 -0.8485 -0.1038
39163SOL    HW235482  11.804   4.781   0.941  1.6326 -1.9205 -0.6990
39164SOL     OW35483   6.773  12.515   0.541  0.7407  0.3066 -0.1372
39164SOL    HW135484   6.790  12.578   0.611  0.1879 -0.1989  0.4664
39164SOL    HW235485   6.738  12.438   0.586  1.0159 -0.2789 -0.9057
39165SOL     OW35486   5.336  13.078   5.815 -0.0582 -0.3334  0.1271
39165SOL    HW135487   5.307  13.147   5.875  0.5632  0.1450 -0.1123
39165SOL    HW235488   5.260  13.021   5.805 -0.5346  0.2386  0.4414
39166SOL     OW35489  13.166   5.333   9.880 -0.1320  0.4203  0.2653
39166SOL    HW135490  13.231   5.264   9.895  0.4271  1.3150  2.2922
39166SOL    HW235491  13.214   5.415   9.892 -0.6740  1.2742 -2.5686
39167SOL     OW35492   2.297   9.699  10.086 -0.0124  0.1521 -0.1189
39167SOL    HW135493   2.379   9.656  10.111 -0.1549 -0.0102  0.0708
39167SOL    HW235494   2.260   9.642  10.019 -0.3398 -0.1719  0.3327
39168SOL     OW35495  13.595   4.853   1.033 -0.0343  0.3357 -0.0724
39168SOL    HW135496  13.657   4.906   0.983  1.1016 -1.8547 -1.1357
39168SOL    HW235497  13.509   4.872   0.994  0.1663  2.0579  0.2389
39169SOL     OW35498   5.080   4.501   7.585  0.0136  0.7538 -0.1657
39169SOL    HW135499   4.995   4.533   7.615 -0.4485  0.1395 -0.7801
39169SOL    HW235500   5.074   4.406   7.593  0.7759  0.7259  0.1249
39170SOL     OW35501   9.730   7.476   4.310 -0.7162  0.2778 -0.6728
39170SOL    HW135502   9.737   7.465   4.216 -0.5279  0.4886 -0.6858
39170SOL    HW235503   9.768   7.562   4.327 -0.8629  0.2955 -0.4193
39171SOL     OW35504   1.319   2.440   0.148 -0.0564 -0.2414 -0.3157
39171SOL    HW135505   1.257   2.508   0.174 -0.2005 -1.2686  2.4166
39171SOL    HW235506   1.403   2.485   0.146 -0.3627  0.3637 -0.1539
39172SOL     OW35507  11.265   0.575   3.837 -0.1826 -0.0855  0.1858
39172SOL    HW135508  11.243   0.572   3.744 -1.2184  0.1660  0.4114
39172SOL    HW235509  11.356   0.545   3.841  1.7495  4.5412 -1.4568
39173SOL     OW35510  12.541   7.377   1.105 -0.2804  0.7294 -0.0871
39173SOL    HW135511  12.561   7.308   1.169 -2.6960  0.0237 -0.0016
39173SOL    HW235512  12.623   7.389   1.057  0.5704 -1.3087  0.7138
39174SOL     OW35513  12.347   4.517  12.129 -0.3184 -0.1263 -0.1115
39174SOL    HW135514  12.294   4.442  12.103  0.9985 -1.3161  0.4725
39174SOL    HW235515  12.437   4.491  12.111  0.2758  0.8238  1.2348
39175SOL     OW35516  11.795   1.438   8.852  0.3586 -0.2614  0.2518
39175SOL    HW135517  11.715   1.476   8.890  0.9347 -1.2606  2.6359
39175SOL    HW235518  11.798   1.349   8.887  1.7208 -0.7636 -1.0574
39176SOL     OW35519   0.778   0.739   7.362 -0.0028  0.1479 -0.0994
39176SOL    HW135520   0.726   0.660   7.356 -0.0480  0.1525  0.1883
39176SOL    HW235521   0.828   0.729   7.444 -1.0809  1.0528  0.7046
39177SOL     OW35522   8.265  11.794   1.696  0.1797 -0.6822  0.5738
39177SOL    HW135523   8.258  11.875   1.748 -1.9882 -0.0225 -0.6509
39177SOL    HW235524   8.263  11.724   1.762  2.0359  0.1837  1.6551
39178SOL     OW35525   0.350  11.244   5.067  0.2433 -0.3005  0.1747
39178SOL    HW135526   0.301  11.189   5.127  0.6813 -0.4114  0.4391
39178SOL    HW235527   0.333  11.333   5.096 -0.4766 -0.2880 -0.2618
39179SOL     OW35528   0.415  10.527  12.187  1.0204  0.1440  0.3147
39179SOL    HW135529   0.500  10.536  12.228  1.5804  0.4722 -0.8719
39179SOL    HW235530   0.425  10.566  12.100 -0.8722  2.0026  0.8413
39180SOL     OW35531   3.559   9.193   6.397 -0.2921 -0.0569  0.2792
39180SOL    HW135532   3.565   9.136   6.474  0.1127  0.6686  0.8050
39180SOL    HW235533   3.475   9.237   6.407 -0.2274  0.0569  0.3229
39181SOL     OW35534   4.755   1.747  10.776  0.6627  0.3798  0.0554
39181SOL    HW135535   4.674   1.743  10.827  0.4126 -0.1535 -0.3752
39181SOL    HW235536   4.823   1.768  10.841  0.7397 -2.5401  1.1033
39182SOL     OW35537  12.165  13.021   5.478  0.7294  0.1956 -0.2077
39182SOL    HW135538  12.245  13.003   5.428  0.7742  1.9834 -0.8561
39182SOL    HW235539  12.105  13.059   5.414  0.8070  2.6332  1.0306
39183SOL     OW35540   0.276   4.587  13.648  0.1152  0.8434 -0.0382
39183SOL    HW135541   0.323   4.503  13.652 -0.5287  0.4004 -1.2762
39183SOL    HW235542   0.278   4.619  13.738  1.8236  0.3160  0.1445
39184SOL     OW35543   6.254  14.098   2.216  0.0334  0.1008 -0.4271
39184SOL    HW135544   6.257  14.191   2.239 -0.5078  0.2721 -1.0116
39184SOL    HW235545   6.207  14.096   2.132  2.5665 -0.3919 -1.9612
39185SOL     OW35546   8.199   8.437   6.586  0.0743  0.7594  0.6119
39185SOL    HW135547   8.213   8.485   6.667  0.0116  1.0454  0.4522
39185SOL    HW235548   8.207   8.345   6.612 -1.0002  0.8064  1.1565
39186SOL     OW35549   3.899  11.067   1.785  0.2786  0.2437  0.6061
39186SOL    HW135550   3.807  11.083   1.765  0.4969 -0.6643 -1.4117
39186SOL    HW235551   3.945  11.089   1.704  1.9999  1.7179  1.9165
39187SOL     OW35552   3.913   8.794  13.415  0.2723 -0.6792 -0.2156
39187SOL    HW135553   3.838   8.735  13.416  0.8767 -1.4724 -0.4765
39187SOL    HW235554   3.926   8.815  13.322  0.4338 -0.6198 -0.1797
39188SOL     OW35555   7.010   9.132   6.287 -0.1463 -0.3035  0.7718
39188SOL    HW135556   6.955   9.061   6.252 -1.4551  0.3460  1.4621
39188SOL    HW235557   7.099   9.100   6.275 -0.6432 -1.3121 -0.5592
39189SOL     OW35558   9.720   5.159   6.775  0.0769  0.2715  0.3050
39189SOL    HW135559   9.740   5.248   6.805 -1.7369  0.2545  1.7919
39189SOL    HW235560   9.786   5.104   6.817 -0.3559  0.6547  1.5329
39190SOL     OW35561   5.135  10.556   8.612  0.1740  0.0837  0.1049
39190SOL    HW135562   5.045  10.582   8.629 -0.7296 -2.0693 -0.9736
39190SOL    HW235563   5.186  10.593   8.684 -1.3576  2.3380  0.0969
39191SOL     OW35564   4.357   4.025   5.610  0.5467 -0.0098 -0.3017
39191SOL    HW135565   4.436   4.071   5.638  0.9447 -0.4858 -0.6345
39191SOL    HW235566   4.287   4.090   5.619  1.1454  0.7644 -1.0547
39192SOL     OW35567  10.450  11.424  12.276 -0.4372  0.2086  0.5319
39192SOL    HW135568  10.539  11.458  12.270 -0.2241  0.0655  2.4436
39192SOL    HW235569  10.404  11.486  12.332 -1.1637 -0.4580  0.6865
39193SOL     OW35570   5.549   2.742  10.451 -0.1792  0.4538 -0.1363
39193SOL    HW135571   5.542   2.679  10.522 -0.8097 -0.8030 -1.2690
39193SOL    HW235572   5.638   2.731  10.417 -0.4301 -0.1594 -0.6126
39194SOL     OW35573   3.655   7.969   1.115  0.0931  0.1919  0.3429
39194SOL    HW135574   3.576   7.939   1.069  1.0374 -0.8799 -0.6698
39194SOL    HW235575   3.723   7.907   1.088  0.5826 -0.9675  3.8116
39195SOL     OW35576  13.493  13.469   6.409  0.2744 -0.0844  0.0444
39195SOL    HW135577  13.433  13.404   6.372  0.3317 -0.4407  0.5681
39195SOL    HW235578  13.575  13.421   6.421  0.5483  0.2978 -0.3032
39196SOL     OW35579   0.591  14.001   2.745 -0.0662  0.0643 -0.4798
39196SOL    HW135580   0.650  13.953   2.686  0.1663 -0.8816  0.4901
39196SOL    HW235581   0.626  13.984   2.832 -1.4383 -0.0346  0.0683
39197SOL     OW35582  13.943   5.373   2.880 -0.2557  0.1480  0.3818
39197SOL    HW135583  13.912   5.329   2.959  0.3244 -1.8751 -0.4528
39197SOL    HW235584  13.873   5.361   2.816 -0.0275  0.3104  0.0958
39198SOL     OW35585  14.040   9.144   3.855 -0.3438 -0.0812 -0.0809
39198SOL    HW135586  14.013   9.233   3.878  1.8748  0.8349 -0.7724
39198SOL    HW235587  14.113   9.125   3.914  1.2850 -0.1481 -2.0023
39199SOL     OW35588   1.009   7.792  10.304  0.0826 -0.2071 -0.0741
39199SOL    HW135589   0.920   7.780  10.337 -0.0802  0.9272 -0.0807
39199SOL    HW235590   1.056   7.713  10.332 -0.3798  0.1221  1.7309
39200SOL     OW35591  11.564  11.245   0.545  0.6550  0.7114  0.0914
39200SOL    HW135592  11.509  11.196   0.606  1.7218  0.1522  0.6280
39200SOL    HW235593  11.515  11.244   0.463  0.6831 -1.3689  0.0470
39201SOL     OW35594  11.786   4.457  10.351 -0.0309 -0.3404 -0.4518
39201SOL    HW135595  11.806   4.371  10.313 -1.0511 -0.0814 -1.6210
39201SOL    HW235596  11.757   4.437  10.440  0.0424 -1.1750 -0.6051
39202SOL     OW35597  11.588   4.837  10.811 -0.3156  0.5062  0.3173
39202SOL    HW135598  11.681   4.819  10.820 -0.2582  0.1728 -0.8150
39202SOL    HW235599  11.549   4.798  10.890  0.7092  2.6135  1.9682
39203SOL     OW35600   6.894   9.828   3.864  0.0807  0.0583  0.1516
39203SOL    HW135601   6.925   9.902   3.811 -0.5715  0.9255  0.9520
39203SOL    HW235602   6.961   9.816   3.930  0.2031 -0.0871  0.0008
39204SOL     OW35603   8.569  14.090  11.144 -0.6947 -0.0346  0.3653
39204SOL    HW135604   8.605  14.117  11.229 -0.5152  0.3279  0.1777
39204SOL    HW235605   8.564  13.995  11.149 -0.9332  0.0044  0.8802
39205SOL     OW35606   7.696   3.133  12.916 -0.0908 -0.0989  0.1322
39205SOL    HW135607   7.603   3.136  12.938  0.0158  0.5738  0.5186
39205SOL    HW235608   7.729   3.220  12.939  0.9008 -0.7422  1.2488
39206SOL     OW35609  10.883   2.090  12.475  0.2952 -0.7258  0.4500
39206SOL    HW135610  10.857   2.013  12.526  1.7627  0.4726  3.2447
39206SOL    HW235611  10.830   2.162  12.510 -0.0694 -0.1522 -1.1586
39207SOL     OW35612   7.186  12.409   1.735  0.8509  0.0307 -0.7517
39207SOL    HW135613   7.106  12.363   1.761 -0.7902  3.1736  0.2459
39207SOL    HW235614   7.245  12.340   1.706 -1.4028 -2.6478  0.5956
39208SOL     OW35615   9.313   3.216  13.201  0.0501 -0.0590 -0.3931
39208SOL    HW135616   9.349   3.127  13.202 -0.2845 -0.1964  0.5726
39208SOL    HW235617   9.256   3.219  13.279 -0.2926  0.8541 -0.6749
39209SOL     OW35618   2.902  13.031   9.673 -0.8433 -0.0435 -0.5117
39209SOL    HW135619   2.882  13.044   9.580 -0.1777 -0.0254 -0.6617
39209SOL    HW235620   2.833  12.973   9.705 -1.5924  0.6727 -0.7955
39210SOL     OW35621   6.945   2.351   7.600  0.2139  0.6587  0.0116
39210SOL    HW135622   6.878   2.398   7.551 -2.1482 -0.8991  1.5378
39210SOL    HW235623   6.932   2.378   7.691 -1.7710 -3.2051  1.1056
39211SOL     OW35624   5.176  13.699   8.798 -0.7829 -0.7579  0.2035
39211SOL    HW135625   5.158  13.628   8.736 -0.9704 -0.7827  0.2856
39211SOL    HW235626   5.189  13.655   8.882  1.0863 -0.8734 -0.1037
39212SOL     OW35627   6.437  13.123  12.660 -0.1622 -0.0791  0.5518
39212SOL    HW135628   6.500  13.149  12.727 -0.1373 -1.6294  1.1652
39212SOL    HW235629   6.352  13.137  12.700 -0.1492 -0.8084  0.8557
39213SOL     OW35630   1.395   2.231   9.504 -0.2763  0.6993 -0.0778
39213SOL    HW135631   1.485   2.255   9.482 -0.4655  2.2419  0.6321
39213SOL    HW235632   1.359   2.311   9.544 -2.0825  0.2518 -0.7194
39214SOL     OW35633   2.466   9.212   4.195 -0.2184 -0.2931 -0.3124
39214SOL    HW135634   2.501   9.277   4.135  0.4162 -0.3880 -0.0542
39214SOL    HW235635   2.542   9.184   4.247 -0.5943 -0.8203 -0.0384
39215SOL     OW35636   4.125  13.858  10.932  0.2484  0.3339 -0.2250
39215SOL    HW135637   4.136  13.835  10.839  0.8518  0.6110 -0.2275
39215SOL    HW235638   4.214  13.876  10.962 -0.0221  0.9034  0.2344
39216SOL     OW35639  11.841  12.201   2.666 -0.8907  0.2527 -0.7231
39216SOL    HW135640  11.859  12.280   2.717  0.1021 -1.7051  2.2460
39216SOL    HW235641  11.924  12.152   2.668 -2.1416 -2.0077 -0.1316
39217SOL     OW35642   3.258   9.747   3.172 -0.3277  0.3528 -0.3751
39217SOL    HW135643   3.334   9.804   3.182  0.1642 -0.5001  1.0736
39217SOL    HW235644   3.188   9.793   3.219  0.5577 -1.0255  2.5317
39218SOL     OW35645   4.384  11.923   8.010 -0.2391  0.5212 -0.0889
39218SOL    HW135646   4.464  11.869   8.014 -0.8718 -0.4235  0.1330
39218SOL    HW235647   4.416  12.013   8.012  0.8291  0.1556 -0.0247
39219SOL     OW35648   2.255   9.190  12.773 -0.5237  0.0326 -0.0808
39219SOL    HW135649   2.340   9.156  12.800 -1.6775 -2.5222  0.7191
39219SOL    HW235650   2.259   9.192  12.677  1.2884  2.6363 -0.0527
39220SOL     OW35651   7.485  13.492  10.011 -0.7385  0.7662  0.1904
39220SOL    HW135652   7.455  13.504   9.921  0.8473  0.9154 -0.3589
39220SOL    HW235653   7.459  13.572  10.056 -2.2437  0.3579  0.0956
39221SOL     OW35654   4.228  11.040   9.725  0.0959  0.4427  0.1791
39221SOL    HW135655   4.159  11.093   9.685  0.0170  0.3007  0.1235
39221SOL    HW235656   4.256  10.981   9.654  0.2155  0.4427  0.2270
39222SOL     OW35657  13.386   2.272  11.760 -0.9489 -0.1616 -0.1736
39222SOL    HW135658  13.386   2.177  11.754 -0.6180 -0.1419 -0.4679
39222SOL    HW235659  13.468   2.299  11.720 -1.4322  0.2959 -0.8882
39223SOL     OW35660   3.390  12.076   5.320  0.0137 -0.7605 -0.4710
39223SOL    HW135661   3.473  12.121   5.303  0.3160 -1.1000  0.1109
39223SOL    HW235662   3.335  12.099   5.244  0.2331  0.4160 -0.3002
39224SOL     OW35663   4.188   6.493   2.892  0.8476 -0.3511 -0.0347
39224SOL    HW135664   4.115   6.431   2.895  1.3195 -0.8838  1.0642
39224SOL    HW235665   4.254   6.455   2.950  0.9605  1.4188  1.0627
39225SOL     OW35666   3.602   0.757   3.060  0.1835  0.2722  0.5040
39225SOL    HW135667   3.515   0.721   3.079 -0.0946  0.9587  0.5736
39225SOL    HW235668   3.593   0.850   3.079  0.4919  0.6251 -0.9780
39226SOL     OW35669   7.134  13.718  12.030 -0.2692  0.2850  0.0222
39226SOL    HW135670   7.078  13.656  12.075  0.0531  0.8426  1.2330
39226SOL    HW235671   7.175  13.667  11.960 -0.2625 -0.7691  0.7779
39227SOL     OW35672   4.197   9.180  12.348  1.0388  0.6968  0.1136
39227SOL    HW135673   4.246   9.140  12.420 -0.3570 -0.7906  0.3020
39227SOL    HW235674   4.132   9.235  12.391  0.3315 -0.0370 -0.0100
39228SOL     OW35675  13.531  12.482   4.543  0.5445 -0.0939  0.0445
39228SOL    HW135676  13.561  12.460   4.456  1.2550  0.9949 -0.0080
39228SOL    HW235677  13.447  12.437   4.552  1.7513 -2.5155 -0.1245
39229SOL     OW35678  10.355   8.671   1.761 -0.1575 -0.6485  0.3042
39229SOL    HW135679  10.419   8.611   1.797  0.7015  0.6678  1.0473
39229SOL    HW235680  10.317   8.715   1.837 -1.8203 -1.2602 -0.1326
39230SOL     OW35681   2.882   2.827   9.452 -0.1897 -0.5120 -0.6363
39230SOL    HW135682   2.941   2.880   9.506 -1.9184  0.2052  0.6482
39230SOL    HW235683   2.938   2.792   9.383  1.9093 -0.5849  0.9906
39231SOL     OW35684   6.041   2.061   2.768  0.1493  0.2340 -0.0182
39231SOL    HW135685   6.080   1.974   2.770 -0.5104 -0.0743 -0.2540
39231SOL    HW235686   5.977   2.057   2.697  0.3772  1.0303 -0.2856
39232SOL     OW35687   1.854  13.021  10.870 -0.0343 -0.2149 -0.1247
39232SOL    HW135688   1.814  13.108  10.863 -0.6259 -0.5711 -1.4670
39232SOL    HW235689   1.907  13.012  10.791  0.7964 -0.7073  0.4715
39233SOL     OW35690  12.047   9.839   6.663  0.1986  0.2647 -0.3789
39233SOL    HW135691  12.034   9.857   6.570 -1.7731  0.2135 -0.1374
39233SOL    HW235692  12.105   9.762   6.664 -0.0401  0.0485 -1.5725
39234SOL     OW35693   9.156   7.803   8.611 -0.2078  0.2439  0.7714
39234SOL    HW135694   9.216   7.875   8.632  0.3841 -0.0495  0.0981
39234SOL    HW235695   9.174   7.782   8.520 -1.7273  0.5204  0.3744
39235SOL     OW35696  10.899   0.383   8.008  0.5008 -0.7913  0.1458
39235SOL    HW135697  10.986   0.422   8.007  0.4315 -0.6321  0.1814
39235SOL    HW235698  10.849   0.438   8.069  0.3239 -0.7639 -0.0207
39236SOL     OW35699  11.407   3.676   1.052 -0.0505 -0.4086 -0.4394
39236SOL    HW135700  11.425   3.677   1.146 -2.5772 -0.0497  0.0934
39236SOL    HW235701  11.379   3.765   1.032 -1.0283 -0.8683 -1.1902
39237SOL     OW35702   8.926  10.337   9.652  0.4874  0.4180  0.1925
39237SOL    HW135703   8.924  10.340   9.747  1.6926  0.6801  0.2269
39237SOL    HW235704   8.959  10.423   9.626  0.8839  0.0844 -0.4280
39238SOL     OW35705   8.035   2.809  10.982 -0.2198  0.1204  0.3727
39238SOL    HW135706   8.014   2.762  10.901 -1.5916 -1.8841  1.7891
39238SOL    HW235707   7.966   2.875  10.990  0.2753  0.7420 -0.3779
39239SOL     OW35708  11.128  11.626   1.759 -0.3791  0.1761  0.0022
39239SOL    HW135709  11.039  11.598   1.782 -0.6285  1.5726  0.8352
39239SOL    HW235710  11.172  11.545   1.734 -1.3846 -0.8016  1.2363
39240SOL     OW35711   4.594  12.392   6.074  0.0473 -0.4017  0.5585
39240SOL    HW135712   4.662  12.385   6.007 -0.3009  1.0055  0.0120
39240SOL    HW235713   4.597  12.309   6.121 -0.5822 -2.0051 -2.0480
39241SOL     OW35714  12.844   6.891   6.435  0.2351  0.0807  0.3552
39241SOL    HW135715  12.793   6.972   6.426 -0.0428  0.0708  1.6762
39241SOL    HW235716  12.920   6.904   6.379  0.2804  1.3323  0.6769
39242SOL     OW35717   9.900   0.613  12.890  0.4866  0.3022 -0.0271
39242SOL    HW135718   9.857   0.695  12.864  1.6141  0.8537 -0.2273
39242SOL    HW235719   9.881   0.605  12.984  2.1204  1.9317  0.4910
39243SOL     OW35720  10.517  13.999   4.332 -0.3650 -0.1919  0.6378
39243SOL    HW135721  10.440  14.020   4.385 -0.8431  0.2831 -0.2239
39243SOL    HW235722  10.517  14.065   4.262  0.2290 -0.8294  0.0202
39244SOL     OW35723   3.047   4.780   9.843 -0.8269  0.0111 -0.0613
39244SOL    HW135724   3.017   4.711   9.901 -2.6146 -1.6316 -2.7295
39244SOL    HW235725   3.098   4.735   9.776  0.1448  1.6490 -0.4993
39245SOL     OW35726   1.669   3.529  13.143  0.2673  0.5186  0.3431
39245SOL    HW135727   1.701   3.587  13.212 -1.4555  2.5530 -0.4696
39245SOL    HW235728   1.699   3.570  13.061 -0.2184 -0.2438 -0.2290
39246SOL     OW35729  13.405  12.444  13.105  0.1137 -0.5118  0.0351
39246SOL    HW135730  13.317  12.460  13.071  0.6494 -0.2599 -1.2770
39246SOL    HW235731  13.394  12.372  13.167 -1.2989  0.7047  1.2806
39247SOL     OW35732  12.108  11.979   1.845  0.4053 -0.2912 -0.1960
39247SOL    HW135733  12.191  11.937   1.822  0.8660  0.9931 -0.9970
39247SOL    HW235734  12.044  11.908   1.846  1.5411 -1.3397  0.6629
39248SOL     OW35735   5.546   9.417   9.766  0.1275 -0.5295 -0.2896
39248SOL    HW135736   5.453   9.397   9.761 -0.2548  0.8269  0.9670
39248SOL    HW235737   5.554   9.483   9.834  2.1295 -1.3151  0.3352
39249SOL     OW35738   9.338   7.986   6.971  0.4497 -0.2626  0.3775
39249SOL    HW135739   9.364   7.899   7.002 -1.2302 -0.6450  0.7993
39249SOL    HW235740   9.344   7.980   6.875  0.2332 -0.8857  0.3982
39250SOL     OW35741   1.799   8.179  11.617 -0.6661  0.2407 -0.3559
39250SOL    HW135742   1.872   8.234  11.590 -1.1431  0.0189 -2.1821
39250SOL    HW235743   1.725   8.208  11.564 -1.5457 -0.5397  0.3927
39251SOL     OW35744   0.073  11.223   6.950 -0.6316  0.0659  0.1222
39251SOL    HW135745  -0.005  11.177   6.919  0.5743 -2.1437  0.1916
39251SOL    HW235746   0.132  11.223   6.874 -0.2279  0.6193  0.4307
39252SOL     OW35747  12.738   7.636  13.105 -0.4258  0.0223 -0.0889
39252SOL    HW135748  12.687   7.717  13.104 -0.0248  0.2961  0.7473
39252SOL    HW235749  12.699   7.584  13.176  0.3416  0.1744  0.4599
39253SOL     OW35750   8.588   8.095   4.697 -0.0888  0.6377  0.3877
39253SOL    HW135751   8.577   8.014   4.747 -0.9902 -0.2162 -1.1178
39253SOL    HW235752   8.545   8.162   4.751 -0.5960 -0.1459  0.9874
39254SOL     OW35753   5.954   7.218   6.857  0.3857 -0.5822 -0.0793
39254SOL    HW135754   5.870   7.259   6.837 -0.0159 -0.9518  0.8026
39254SOL    HW235755   5.948   7.131   6.817 -0.7525 -1.6448  2.2310
39255SOL     OW35756   5.701   7.110   6.341  0.2444  0.3185 -0.1294
39255SOL    HW135757   5.666   7.021   6.342 -1.0922  0.8043 -0.7735
39255SOL    HW235758   5.727   7.125   6.250  1.3785  0.2647  0.1722
39256SOL     OW35759  11.306   3.937  10.000  0.3609 -0.0692 -0.2353
39256SOL    HW135760  11.396   3.911   9.982  0.4859  0.0653  0.1749
39256SOL    HW235761  11.275   3.975   9.918  1.1169  1.1058  0.0030
39257SOL     OW35762   8.514   4.588   6.510  0.0374 -0.5098  0.5486
39257SOL    HW135763   8.513   4.619   6.601 -2.7170 -0.9193  0.7249
39257SOL    HW235764   8.500   4.667   6.458  0.9550 -0.3782  0.4707
39258SOL     OW35765   4.056  11.558  13.226 -0.3926  0.0036  0.1759
39258SOL    HW135766   4.127  11.504  13.192  0.7453  1.4421  0.1641
39258SOL    HW235767   4.100  11.629  13.272 -1.8452  0.7067  0.5381
39259SOL     OW35768   7.160   6.261   6.160 -0.0367  0.3364  0.4329
39259SOL    HW135769   7.137   6.341   6.112  0.1168 -0.0651 -0.3241
39259SOL    HW235770   7.253   6.247   6.141 -0.4619 -0.9707 -0.8857
39260SOL     OW35771   6.090   1.653  10.354 -0.4721  0.3670 -0.4768
39260SOL    HW135772   6.126   1.650  10.443  0.6954 -0.2314 -0.9435
39260SOL    HW235773   6.075   1.746  10.338  0.6412  0.6220 -0.1521
39261SOL     OW35774   0.371   5.573   4.664 -0.6097 -0.6277  0.0842
39261SOL    HW135775   0.388   5.540   4.576  1.5945  1.7023 -0.4626
39261SOL    HW235776   0.350   5.665   4.652  1.0919  0.1005  2.0159
39262SOL     OW35777   3.079   9.053   3.862 -0.1413 -0.2673  0.0073
39262SOL    HW135778   3.097   9.033   3.770 -3.1873 -0.7713 -0.5880
39262SOL    HW235779   3.109   9.143   3.873 -0.3051  0.0303 -1.6837
39263SOL     OW35780   1.792   5.639   8.940  0.4257  0.1949  0.0651
39263SOL    HW135781   1.707   5.602   8.914  0.7940 -0.7779  0.2158
39263SOL    HW235782   1.815   5.591   9.020  0.7630  0.9943  0.4563
39264SOL     OW35783  12.868   2.439   3.722  0.1905 -0.5060  0.1609
39264SOL    HW135784  12.844   2.370   3.660  3.4509 -2.3616  0.7122
39264SOL    HW235785  12.814   2.422   3.799 -0.7846 -0.8981 -0.5895
39265SOL     OW35786  12.029   8.711  10.809  0.4466 -1.0876  0.1886
39265SOL    HW135787  11.994   8.686  10.724  1.0477 -0.7459 -0.1650
39265SOL    HW235788  11.968   8.778  10.841 -0.5950 -2.2409  0.6910
39266SOL     OW35789  12.623  10.254   3.229 -0.1931 -0.0378 -0.1876
39266SOL    HW135790  12.615  10.173   3.178  1.2356 -0.4202  0.1387
39266SOL    HW235791  12.698  10.299   3.190  0.0714  0.3192  0.7095
39267SOL     OW35792   9.272   0.039   8.969  0.1642  0.1711 -0.2185
39267SOL    HW135793   9.226   0.005   9.046  1.5209 -2.3503 -0.4039
39267SOL    HW235794   9.364   0.039   8.995  0.4118  1.8630 -0.9846
39268SOL     OW35795   5.763  13.558   5.156 -0.0487 -0.4547  0.4461
39268SOL    HW135796   5.724  13.626   5.211 -2.1702 -1.1501 -0.0882
39268SOL    HW235797   5.767  13.597   5.069 -2.2687 -1.2466 -0.0990
39269SOL     OW35798   4.539   0.632  13.311 -0.2316 -0.8004  0.1675
39269SOL    HW135799   4.581   0.553  13.276  1.9000  0.0479  0.6666
39269SOL    HW235800   4.520   0.610  13.402 -0.9898 -1.2204 -0.0839
39270SOL     OW35801   5.204   4.352   2.819  0.1584  0.5208 -0.0925
39270SOL    HW135802   5.228   4.382   2.732  1.4590  0.5150  0.2543
39270SOL    HW235803   5.112   4.327   2.811  0.5937 -0.6572 -1.7686
39271SOL     OW35804  13.924   6.010  11.498 -0.1254 -0.0866 -0.2936
39271SOL    HW135805  13.896   6.101  11.494 -2.7297 -0.6399  2.2743
39271SOL    HW235806  13.977   6.004  11.578  1.4971 -0.5462 -1.3507
39272SOL     OW35807   2.438   7.850   1.630 -0.2555 -0.3252  0.0757
39272SOL    HW135808   2.460   7.920   1.569 -3.2780  1.6195  0.9962
39272SOL    HW235809   2.518   7.835   1.679  0.6813  2.0670 -0.5697
39273SOL     OW35810   5.985   2.197  13.943 -0.3794 -0.0806  0.4217
39273SOL    HW135811   6.059   2.174  13.998 -0.2730  0.7595  0.6572
39273SOL    HW235812   5.910   2.194  14.002 -0.2992  0.5858  0.5715
39274SOL     OW35813   4.410   3.305  13.415 -0.4960 -0.5204  0.1001
39274SOL    HW135814   4.396   3.375  13.351  0.2834  1.5629  2.0642
39274SOL    HW235815   4.504   3.287  13.411 -0.3504 -0.0057  0.9797
39275SOL     OW35816   4.438  13.426  12.771 -0.5938 -0.1293 -0.3733
39275SOL    HW135817   4.369  13.359  12.769 -0.6472 -0.1527  1.2355
39275SOL    HW235818   4.519  13.377  12.787 -0.8195  0.2348  2.4195
39276SOL     OW35819   5.341   0.495  11.010 -0.3050 -0.8866  0.1811
39276SOL    HW135820   5.311   0.561  10.948 -0.4904  0.6971  1.8670
39276SOL    HW235821   5.355   0.543  11.091 -0.9648 -3.0143  1.6496
39277SOL     OW35822   8.309   2.184  10.696 -0.2295 -0.0091  0.5529
39277SOL    HW135823   8.221   2.158  10.722  0.0619 -1.2964  0.3253
39277SOL    HW235824   8.365   2.111  10.723  0.5139  0.0010 -0.8793
39278SOL     OW35825  10.151  11.332   9.379 -0.2349 -0.5281 -0.0482
39278SOL    HW135826  10.093  11.371   9.315  1.1415 -0.4949 -1.3438
39278SOL    HW235827  10.145  11.237   9.363  0.4274 -0.4956 -0.5471
39279SOL     OW35828   1.732  10.357   6.888 -0.1807 -0.1970 -0.0618
39279SOL    HW135829   1.763  10.282   6.937 -1.3779 -0.5050  0.2629
39279SOL    HW235830   1.665  10.322   6.829 -0.0938  0.4629 -0.5776
39280SOL     OW35831  12.943   0.178   7.260 -0.3767  0.8675 -0.1479
39280SOL    HW135832  12.851   0.174   7.285 -0.0246 -0.0544  1.0741
39280SOL    HW235833  12.970   0.087   7.252  0.9200  1.0782  1.4037
39281SOL     OW35834   5.453  13.395   6.201 -0.0037  0.1729  0.1396
39281SOL    HW135835   5.546  13.372   6.202  0.2306  1.0528 -0.0221
39281SOL    HW235836   5.424  13.385   6.292  0.2355 -0.1587  0.1790
39282SOL     OW35837   3.861   8.254  13.732  0.4357 -0.4080 -0.3490
39282SOL    HW135838   3.940   8.211  13.762 -0.3941 -1.1985  0.8013
39282SOL    HW235839   3.877   8.347  13.744  1.8485 -0.4261 -1.8383
39283SOL     OW35840  11.031  13.872   3.764  0.2035  0.1039 -0.7111
39283SOL    HW135841  10.994  13.826   3.840  0.7039 -0.0670 -0.5644
39283SOL    HW235842  11.084  13.942   3.803  0.8988 -0.3171 -0.8800
39284SOL     OW35843   6.920   2.683   7.116 -0.5196 -0.4018 -0.0269
39284SOL    HW135844   6.908   2.616   7.183  0.6722 -1.8262 -1.1825
39284SOL    HW235845   6.903   2.766   7.162 -2.3694 -1.4600  1.3556
39285SOL     OW35846   7.190  13.211   5.507 -0.1753 -0.4181  0.7319
39285SOL    HW135847   7.272  13.251   5.535  0.6153 -2.9716  2.4507
39285SOL    HW235848   7.145  13.189   5.589 -2.5244  0.6838 -0.1687
39286SOL     OW35849   8.518   8.127  13.841 -0.3548  0.9091  0.4647
39286SOL    HW135850   8.499   8.205  13.789 -0.5839 -0.6665 -1.9731
39286SOL    HW235851   8.611   8.112  13.829 -0.6462 -0.1850 -0.6229
39287SOL     OW35852   0.019   2.353   5.057 -0.0137  0.3179 -0.1032
39287SOL    HW135853  -0.007   2.329   4.968  0.9396 -0.8313 -0.0974
39287SOL    HW235854   0.101   2.306   5.072  1.0951  2.3232  0.5455
39288SOL     OW35855   2.682   5.375   0.558 -0.5281 -0.0092  0.0106
39288SOL    HW135856   2.731   5.424   0.492 -1.8897  0.3330 -0.7826
39288SOL    HW235857   2.686   5.284   0.529  1.0637 -0.2744  0.8946
39289SOL     OW35858   9.493   8.260  12.248  0.3440 -0.5537 -0.5729
39289SOL    HW135859   9.466   8.182  12.297 -1.7633  0.1773 -0.4552
39289SOL    HW235860   9.501   8.230  12.158 -2.7551 -0.5684 -0.9759
39290SOL     OW35861   3.210   3.183   9.824 -0.7268  0.0760 -0.2939
39290SOL    HW135862   3.247   3.096   9.832  0.5733  0.5785 -0.6623
39290SOL    HW235863   3.115   3.169   9.818 -0.4850 -1.3318 -1.0072
39291SOL     OW35864  11.551   4.745   8.287 -0.2440 -0.6821 -0.3585
39291SOL    HW135865  11.595   4.816   8.240 -2.0214  1.2668  0.7426
39291SOL    HW235866  11.465   4.739   8.248 -0.6040 -1.2597  0.4890
39292SOL     OW35867   5.620  10.027  11.445 -0.4140 -0.5150  0.6193
39292SOL    HW135868   5.604  10.121  11.436  0.4978 -0.3649  0.5046
39292SOL    HW235869   5.682  10.019  11.517  1.6745 -0.7828 -1.1197
39293SOL     OW35870   8.286   0.256  13.840  0.0183  0.2260 -0.7094
39293SOL    HW135871   8.237   0.299  13.770  1.5477  1.6513 -0.9620
39293SOL    HW235872   8.321   0.327  13.893  1.3384 -0.7463 -0.2091
39294SOL     OW35873   6.399  12.560   1.281 -0.3075  0.6248 -0.2784
39294SOL    HW135874   6.347  12.495   1.235  1.5320 -0.7809 -0.4802
39294SOL    HW235875   6.360  12.564   1.368 -1.3807  0.3788 -0.7380
39295SOL     OW35876  11.441   2.462   9.575 -0.0796 -0.1802 -0.3315
39295SOL    HW135877  11.345   2.462   9.578 -0.1554  2.0605 -1.1522
39295SOL    HW235878  11.467   2.523   9.643  0.8765 -1.8673  0.8754
39296SOL     OW35879   8.359   2.912   3.500  0.1104 -0.4969 -0.5764
39296SOL    HW135880   8.453   2.895   3.501  0.1068 -0.6674  1.5576
39296SOL    HW235881   8.352   3.006   3.483  0.6437 -0.5734 -1.2309
39297SOL     OW35882   3.052   6.696   3.004 -0.2101 -0.3479 -0.1216
39297SOL    HW135883   3.031   6.636   2.932  1.0701 -0.6225 -0.2843
39297SOL    HW235884   3.142   6.722   2.987 -0.8504  1.9766 -0.2991
39298SOL     OW35885   1.106  10.730   9.804 -0.1546 -0.7795 -0.0811
39298SOL    HW135886   1.138  10.798   9.744 -0.6050 -0.8104 -0.3590
39298SOL    HW235887   1.164  10.655   9.788 -0.3359 -0.8233 -0.5518
39299SOL     OW35888   2.983  10.489   1.107  0.0934  0.4372  0.1770
39299SOL    HW135889   2.924  10.413   1.101  0.2729  0.3623 -0.8075
39299SOL    HW235890   3.046  10.476   1.037  0.6633  1.0578  0.5640
39300SOL     OW35891  11.608   2.459   0.512 -0.1024 -0.1025  0.0651
39300SOL    HW135892  11.594   2.371   0.546 -0.0932 -0.0005  0.3330
39300SOL    HW235893  11.673   2.497   0.570  1.6838 -0.7328 -1.4285
39301SOL     OW35894  13.558  11.804   5.339 -0.0014 -0.1998 -0.4079
39301SOL    HW135895  13.653  11.792   5.340  0.0637  0.2859 -0.0084
39301SOL    HW235896  13.523  11.720   5.368  0.3656 -0.0217  0.6033
39302SOL     OW35897   8.873   4.698   3.040  0.2332 -0.5191 -0.0084
39302SOL    HW135898   8.847   4.606   3.032  1.5724 -0.7250 -3.3788
39302SOL    HW235899   8.968   4.698   3.036  0.2910  1.0221  0.3766
39303SOL     OW35900   3.168  10.472  12.125  0.8048  0.2272 -0.5448
39303SOL    HW135901   3.090  10.493  12.075  1.3471  0.0074 -1.5079
39303SOL    HW235902   3.141  10.477  12.216  0.0747  1.8021 -0.8219
39304SOL     OW35903   3.401   9.369   0.109 -0.1533  0.3215  0.1267
39304SOL    HW135904   3.348   9.448   0.098  1.7149  1.7202  0.5151
39304SOL    HW235905   3.438   9.378   0.197  1.4521 -0.0949 -0.4709
39305SOL     OW35906  12.416   4.997   1.305  0.1603 -0.5787  0.0269
39305SOL    HW135907  12.433   4.991   1.211  2.5714  0.7082  0.2954
39305SOL    HW235908  12.374   4.914   1.327  1.9383 -2.0613 -1.7522
39306SOL     OW35909   7.683   5.556   5.326 -0.1225  0.7671  0.0705
39306SOL    HW135910   7.653   5.496   5.257  2.5036 -1.3573  0.5597
39306SOL    HW235911   7.707   5.498   5.398  2.6229  2.3565  0.5692
39307SOL     OW35912   1.733   1.860   2.668 -0.1921  0.3273 -0.1150
39307SOL    HW135913   1.789   1.783   2.671  0.2930  0.6866  0.3532
39307SOL    HW235914   1.679   1.848   2.590  0.3136 -0.1854 -0.3945
39308SOL     OW35915   0.039  11.418   9.418 -0.2651 -0.2062 -0.1710
39308SOL    HW135916  -0.020  11.485   9.384 -0.3282  1.0955  2.3228
39308SOL    HW235917  -0.017  11.342   9.433 -0.5158 -0.2977 -1.4673
39309SOL     OW35918   4.117   9.790   7.155 -0.2164  0.2382 -0.0925
39309SOL    HW135919   4.096   9.698   7.142  0.7100  0.2609 -2.1792
39309SOL    HW235920   4.117   9.827   7.066  0.7361  1.9436  0.5774
39310SOL     OW35921   0.132  10.565   4.437 -0.0289  0.6981  0.2769
39310SOL    HW135922   0.062  10.538   4.496 -0.0596 -1.9397 -0.8527
39310SOL    HW235923   0.212  10.526   4.474  0.4651  1.6441  0.2430
39311SOL     OW35924   9.475  11.563   9.719 -0.0619  0.9906  0.0850
39311SOL    HW135925   9.427  11.514   9.785 -0.2122  1.0125 -0.0087
39311SOL    HW235926   9.451  11.523   9.636  2.6260 -1.2386  0.2123
39312SOL     OW35927   3.870  11.113   1.149  0.2861 -0.3480 -0.3853
39312SOL    HW135928   3.930  11.041   1.168  1.6197  1.3921  2.7902
39312SOL    HW235929   3.793  11.095   1.203  0.4077  0.2760  0.0131
39313SOL     OW35930  12.863  13.399  13.301 -0.0989 -0.3437 -0.0197
39313SOL    HW135931  12.797  13.393  13.233  0.4612 -0.8949 -0.5250
39313SOL    HW235932  12.872  13.309  13.335  0.0526 -0.1879  0.3604
39314SOL     OW35933  13.145  12.109   1.939  0.8628 -0.0613 -0.2195
39314SOL    HW135934  13.151  12.043   2.008  1.5188  1.7853  1.5777
39314SOL    HW235935  13.063  12.155   1.956  1.9423  1.6398  0.5240
39315SOL     OW35936   8.536   2.497   0.875  0.0622  0.0084 -0.3322
39315SOL    HW135937   8.570   2.548   0.948  0.0810 -0.1355 -0.2416
39315SOL    HW235938   8.549   2.406   0.900 -0.7619 -0.0596 -0.1213
39316SOL     OW35939   5.229   1.166   2.675  0.1550 -0.2541  0.0925
39316SOL    HW135940   5.154   1.215   2.709 -0.4452  0.0935 -1.6225
39316SOL    HW235941   5.209   1.075   2.695  0.3609  0.0127  1.6108
39317SOL     OW35942   0.738  12.422   2.811  0.0891  0.1609 -0.0063
39317SOL    HW135943   0.781  12.362   2.872 -1.6041 -1.0543  0.0421
39317SOL    HW235944   0.687  12.481   2.867 -0.3448 -0.0436 -0.1897
39318SOL     OW35945   0.101  10.414   7.347 -0.2064 -0.1511 -0.2428
39318SOL    HW135946   0.071  10.336   7.301  0.2185 -0.3823 -0.1319
39318SOL    HW235947   0.182  10.387   7.391  1.5880  1.0662 -2.5198
39319SOL     OW35948   3.958  10.919   0.212  0.0564  0.1190 -0.1194
39319SOL    HW135949   3.952  10.873   0.128 -1.3445 -1.4692  0.7986
39319SOL    HW235950   4.038  10.885   0.252  0.2781  0.2547 -0.4397
39320SOL     OW35951   0.643  12.255   3.489  0.3928  0.7949  0.4971
39320SOL    HW135952   0.705  12.244   3.562  0.0658 -0.4531  0.6154
39320SOL    HW235953   0.580  12.319   3.521 -0.3215 -0.4799  1.7375
39321SOL     OW35954   7.670   0.777   9.037  0.5584 -0.0545  0.1033
39321SOL    HW135955   7.650   0.702   8.982  1.3542 -0.5170  0.4317
39321SOL    HW235956   7.748   0.817   8.997  0.9921 -0.2448  0.7341
39322SOL     OW35957   7.284   1.748  10.463  0.1217  0.0942  0.4162
39322SOL    HW135958   7.288   1.655  10.481 -0.1995  0.1968  1.0323
39322SOL    HW235959   7.191   1.771  10.469 -0.1573 -0.0135 -2.2132
39323SOL     OW35960   2.863   7.721   4.347 -0.0959  0.1448 -0.4450
39323SOL    HW135961   2.900   7.780   4.281  0.5457 -0.8949 -1.0463
39323SOL    HW235962   2.906   7.637   4.330  0.9404  0.0917  2.0202
39324SOL     OW35963  10.377  12.764   0.774  0.0673  0.4306  0.0513
39324SOL    HW135964  10.391  12.711   0.852  1.4966 -0.9522 -1.0904
39324SOL    HW235965  10.428  12.844   0.789  0.3382  0.1711  0.5122
39325SOL     OW35966   0.718   9.563   8.170 -0.0829 -0.0743 -0.0944
39325SOL    HW135967   0.690   9.511   8.245  1.7789  1.2757  1.6453
39325SOL    HW235968   0.738   9.499   8.102  0.7680 -1.5680  1.4933
39326SOL     OW35969  11.225  13.488  13.942 -0.4696 -0.0333 -0.1470
39326SOL    HW135970  11.290  13.435  13.988 -0.4373 -1.7333 -1.9923
39326SOL    HW235971  11.246  13.476  13.849 -2.0829  1.1680 -0.7147
39327SOL     OW35972   0.171  11.813   9.217 -0.1950  0.5521 -0.4193
39327SOL    HW135973   0.266  11.807   9.218 -0.0775  0.7556 -2.8640
39327SOL    HW235974   0.142  11.728   9.184 -0.8338  0.6582 -0.1490
39328SOL     OW35975  11.965   8.081   7.540  0.0690  0.0672  0.2851
39328SOL    HW135976  11.877   8.116   7.550 -0.0899 -0.0402 -0.6370
39328SOL    HW235977  11.952   7.986   7.533  0.3350 -0.0214  0.9838
39329SOL     OW35978   6.992   4.927  11.336  0.2764 -0.0884 -0.0873
39329SOL    HW135979   6.972   4.834  11.326  1.2974 -0.4937  1.3552
39329SOL    HW235980   6.950   4.952  11.418  1.1382  0.3697  0.2302
39330SOL     OW35981   5.275   4.957   6.520 -0.3854  0.3833  0.2731
39330SOL    HW135982   5.348   4.918   6.569 -0.5324  1.1589  1.1496
39330SOL    HW235983   5.237   4.884   6.472  0.1705 -0.2899  0.8206
39331SOL     OW35984   6.160  10.218   8.369 -0.2450 -0.1005  0.1451
39331SOL    HW135985   6.142  10.275   8.294  0.8441 -1.7208 -1.4401
39331SOL    HW235986   6.172  10.278   8.442 -1.9783  1.5179 -0.8080
39332SOL     OW35987   9.799  11.642   1.121  0.0461 -0.1336  0.3642
39332SOL    HW135988   9.795  11.738   1.117 -0.4236 -0.1356  0.7143
39332SOL    HW235989   9.884  11.620   1.081 -0.5208  0.3352 -1.1951
39333SOL     OW35990   0.498   7.310   2.817  0.3184  0.2375 -0.3832
39333SOL    HW135991   0.423   7.317   2.877  1.5749  0.0410  1.3110
39333SOL    HW235992   0.523   7.400   2.798  0.8641  0.3276  0.6915
39334SOL     OW35993  10.814  13.496   5.629 -0.2206 -0.2944 -0.1784
39334SOL    HW135994  10.752  13.554   5.674 -2.0614 -2.2870  0.0093
39334SOL    HW235995  10.824  13.535   5.542 -0.3010  1.0691  0.4035
39335SOL     OW35996   6.372   0.253   9.381 -0.3102  0.1217 -0.2864
39335SOL    HW135997   6.314   0.307   9.328  0.7962  0.5372 -1.1058
39335SOL    HW235998   6.460   0.269   9.346  0.3124 -0.5218  0.8883
39336SOL     OW35999  12.756   8.647   6.277 -0.1056 -0.3967 -0.5387
39336SOL    HW136000  12.667   8.673   6.252 -0.2183 -2.4719 -2.6840
39336SOL    HW236001  12.755   8.551   6.271  1.2543 -0.8408  3.2626
39337SOL     OW36002  10.621   1.668   6.174 -0.5426 -0.5583  0.0489
39337SOL    HW136003  10.579   1.740   6.127  0.3619  0.8276  1.2680
39337SOL    HW236004  10.689   1.637   6.115  0.9016  1.4817  0.5271
39338SOL     OW36005   4.336   8.447   0.605 -0.2561 -0.4211 -0.4319
39338SOL    HW136006   4.428   8.464   0.625 -0.6388  0.4774  0.6483
39338SOL    HW236007   4.330   8.351   0.599  0.2842 -0.6913  2.0776
39339SOL     OW36008   0.949  12.933   1.192 -0.1320  0.2839 -0.6634
39339SOL    HW136009   0.945  12.978   1.276  0.9513  0.3950 -0.6568
39339SOL    HW236010   0.858  12.921   1.167 -0.4576  0.9558  0.1506
39340SOL     OW36011   7.936  10.245   8.307 -0.2659 -0.0602 -0.0061
39340SOL    HW136012   8.006  10.214   8.364 -1.9806  0.1809  2.3723
39340SOL    HW236013   7.934  10.340   8.321 -0.8390 -0.0245 -0.3160
39341SOL     OW36014   8.517   5.200  13.755 -0.4688 -0.2839 -0.5384
39341SOL    HW136015   8.543   5.252  13.679  0.4510  1.3619  0.8254
39341SOL    HW236016   8.596   5.154  13.782 -0.6980 -0.5722 -0.3436
39342SOL     OW36017   8.083   1.089  10.580  0.2752 -0.4392  0.4502
39342SOL    HW136018   8.171   1.062  10.605  0.0914 -4.5392 -2.3332
39342SOL    HW236019   8.094   1.133  10.496 -0.2098  1.5683  1.3714
39343SOL     OW36020   7.545   7.256   5.551  0.3402 -0.0361 -0.0766
39343SOL    HW136021   7.471   7.201   5.574  1.5067 -1.6729 -0.0839
39343SOL    HW236022   7.596   7.263   5.631  0.0235  1.3834  0.0288
39344SOL     OW36023   5.625   5.443   5.704  0.1490  0.1610 -0.0342
39344SOL    HW136024   5.600   5.474   5.617 -1.5072  0.0976  0.3877
39344SOL    HW236025   5.721   5.439   5.702  0.1058 -0.8107 -2.1801
39345SOL     OW36026   5.525  10.185  11.711  0.2325  0.3281  0.1131
39345SOL    HW136027   5.529  10.230  11.796  1.9102 -2.1166  1.4465
39345SOL    HW236028   5.591  10.117  11.717 -0.2916 -0.5632 -2.8406
39346SOL     OW36029  12.130   0.265   4.587  0.4503 -0.3244  0.2030
39346SOL    HW136030  12.064   0.273   4.656  0.2832 -0.1291  0.0229
39346SOL    HW236031  12.213   0.265   4.633  0.4419  1.7735  0.2942
39347SOL     OW36032   2.875  10.950   1.389 -0.1353  0.1075 -0.3412
39347SOL    HW136033   2.854  10.887   1.320 -1.3855 -0.3305  0.4101
39347SOL    HW236034   2.861  10.902   1.471  0.1397  0.9760  0.2273
39348SOL     OW36035  10.830   8.019   6.141 -0.5837 -0.0631  0.0044
39348SOL    HW136036  10.913   7.973   6.128  0.7117  2.1318  0.0812
39348SOL    HW236037  10.848   8.080   6.213 -1.7715  1.5521 -1.0123
39349SOL     OW36038  10.048   6.584  13.932  0.2155  0.0913 -0.7133
39349SOL    HW136039   9.963   6.614  13.900 -0.4023 -1.1352 -0.2836
39349SOL    HW236040  10.056   6.624  14.019 -0.5707 -0.8987 -0.1708
39350SOL     OW36041   0.987  12.310   9.064  0.8956  0.4231 -0.0634
39350SOL    HW136042   0.966  12.403   9.058 -0.7213 -0.0093 -1.7362
39350SOL    HW236043   0.956  12.272   8.982 -0.8189 -2.0409  1.5732
39351SOL     OW36044   3.781   8.009  11.038 -0.2059 -0.4769  0.1534
39351SOL    HW136045   3.737   8.084  11.078 -0.0710 -0.4435  0.2373
39351SOL    HW236046   3.808   8.040  10.952  0.5354 -0.1853  0.4809
39352SOL     OW36047  12.238  10.882   9.849  0.3584  0.0584  0.6303
39352SOL    HW136048  12.257  10.804   9.901  1.3494 -0.5463 -0.5878
39352SOL    HW236049  12.172  10.853   9.786  1.8193 -0.2804 -0.8263
39353SOL     OW36050   8.784   1.055   8.478 -0.0802 -0.5252 -0.2937
39353SOL    HW136051   8.819   1.011   8.556 -0.0207 -2.7315 -1.4731
39353SOL    HW236052   8.846   1.032   8.409 -1.6916 -1.1568 -1.5912
39354SOL     OW36053   4.696   4.281  11.666 -0.0457  0.4918 -0.1696
39354SOL    HW136054   4.695   4.193  11.702  1.6060  0.9448  1.1118
39354SOL    HW236055   4.608   4.315  11.680 -0.5753 -0.7854 -0.3003
39355SOL     OW36056   9.358  10.596   0.380 -0.2900  0.2088 -0.0707
39355SOL    HW136057   9.324  10.620   0.466  0.5631  1.2223  0.0035
39355SOL    HW236058   9.296  10.633   0.317 -0.1129  0.7840  0.0889
39356SOL     OW36059   7.236   3.552  12.400 -0.0968 -0.3309 -0.7986
39356SOL    HW136060   7.305   3.486  12.405 -0.7520 -0.9384  1.0696
39356SOL    HW236061   7.159   3.509  12.437 -1.2456  0.6295 -2.0224
39357SOL     OW36062   0.925  11.800  11.878  0.0228  0.9864  0.1254
39357SOL    HW136063   0.911  11.887  11.916 -1.4314  0.9656 -0.3206
39357SOL    HW236064   0.959  11.817  11.790  0.6994  1.0667  0.3901
39358SOL     OW36065   1.106   9.511   6.559  0.3307 -0.6194 -0.5114
39358SOL    HW136066   1.090   9.495   6.466 -0.1922 -0.2670 -0.4861
39358SOL    HW236067   1.025   9.550   6.591  0.1500 -1.6559  0.3174
39359SOL     OW36068   5.912   9.268   7.957  0.2102  0.3385  0.2195
39359SOL    HW136069   5.889   9.261   8.050  2.2353  1.2642  0.8452
39359SOL    HW236070   5.889   9.183   7.920 -0.6567 -0.0399  1.5670
39360SOL     OW36071   6.331   2.777   5.335 -0.2054 -0.0209  0.8906
39360SOL    HW136072   6.425   2.797   5.328 -0.5246  1.5814  0.7678
39360SOL    HW236073   6.290   2.830   5.267 -1.3452  0.5599  1.9790
39361SOL     OW36074  11.056   3.848   6.084  0.9233  0.0111  0.1475
39361SOL    HW136075  11.038   3.858   5.990 -0.2156 -0.5227  0.2984
39361SOL    HW236076  11.103   3.928   6.108 -1.4854  1.6252 -0.2204
39362SOL     OW36077   6.280   2.719   0.803  0.3525  0.1260  0.2216
39362SOL    HW136078   6.274   2.634   0.758  0.0764  0.7970 -1.0414
39362SOL    HW236079   6.197   2.727   0.850  0.1910 -0.0984 -0.0234
39363SOL     OW36080   7.133   8.571   0.642 -0.1205 -0.1836  0.0298
39363SOL    HW136081   7.070   8.499   0.634 -1.8757  1.1004  1.3331
39363SOL    HW236082   7.179   8.572   0.558 -2.2943 -0.7974 -1.2498
39364SOL     OW36083   7.708  13.655   0.040 -0.1428  0.5626 -0.6111
39364SOL    HW136084   7.745  13.568   0.054 -1.4977  0.1293  0.5080
39364SOL    HW236085   7.662  13.649  -0.044  0.2898  0.3846 -0.8357
39365SOL     OW36086   7.106  10.676  13.269 -0.0840  0.9334  0.3493
39365SOL    HW136087   7.142  10.762  13.248 -0.9976  1.0156 -1.0125
39365SOL    HW236088   7.013  10.692  13.286 -0.3554  0.1840 -0.3477
39366SOL     OW36089   5.627   9.220  12.355  0.3555 -0.0400  0.4556
39366SOL    HW136090   5.715   9.208  12.320 -0.4762 -0.5059 -1.6020
39366SOL    HW236091   5.600   9.133  12.383 -0.5840 -0.5690 -1.8715
39367SOL     OW36092   5.830  12.355  13.323 -0.3547 -0.0362  0.4948
39367SOL    HW136093   5.797  12.396  13.402  0.7601  0.6914  0.6066
39367SOL    HW236094   5.923  12.337  13.341 -0.1020  0.0647 -0.6009
39368SOL     OW36095  10.980  11.990  10.147  0.2516  0.0182 -0.3625
39368SOL    HW136096  11.058  12.039  10.171  0.4200 -0.4600  0.0733
39368SOL    HW236097  10.995  11.902  10.180 -1.3705  0.4149  1.6565
39369SOL     OW36098   5.349  12.698   5.388 -0.3472 -0.2781  0.1213
39369SOL    HW136099   5.444  12.708   5.379 -0.1421 -0.0110  2.1531
39369SOL    HW236100   5.328  12.620   5.336  1.4386 -1.9509  1.7528
39370SOL     OW36101   3.739   6.813  13.745 -0.2931 -0.4963  0.0806
39370SOL    HW136102   3.796   6.807  13.822 -0.3134  0.1652  0.1464
39370SOL    HW236103   3.796   6.841  13.674 -0.5938  0.5337  0.2288
39371SOL     OW36104  12.728   8.514   5.975 -0.3814  0.4073 -0.1644
39371SOL    HW136105  12.814   8.536   5.941  0.8718 -1.3065  1.6648
39371SOL    HW236106  12.667   8.555   5.914  1.6937  0.3660 -2.4171
39372SOL     OW36107   1.497   1.896  10.409 -0.3763 -0.0400 -0.5006
39372SOL    HW136108   1.472   1.931  10.495  0.0030  1.8892 -1.1405
39372SOL    HW236109   1.449   1.813  10.403 -1.1624  0.2445  1.1648
39373SOL     OW36110  13.883   3.131   4.294 -0.2056  0.2546 -0.4214
39373SOL    HW136111  13.800   3.138   4.340  1.2242  2.7620  2.1476
39373SOL    HW236112  13.883   3.203   4.231 -1.0076 -1.4747 -2.5402
39374SOL     OW36113  13.563   5.863  12.549 -0.0005  0.0130 -0.1546
39374SOL    HW136114  13.573   5.953  12.516  2.0519 -0.0634  0.1686
39374SOL    HW236115  13.645   5.820  12.527 -0.3306 -1.3320  1.1214
39375SOL     OW36116  12.293   0.135   8.378  0.1091 -0.3197 -0.1987
39375SOL    HW136117  12.230   0.127   8.306 -0.2184  0.2153  0.0225
39375SOL    HW236118  12.367   0.081   8.351 -0.1211 -0.3320 -0.8169
39376SOL     OW36119  13.734   6.595   9.976 -0.0092  0.2827  0.0821
39376SOL    HW136120  13.646   6.559   9.986  0.3309 -0.1886  1.5118
39376SOL    HW236121  13.734   6.632   9.887 -1.4405 -0.2463 -0.1686
39377SOL     OW36122   2.421   1.266  10.181 -0.4340 -0.1921  0.5320
39377SOL    HW136123   2.467   1.238  10.102  0.0297 -0.7133  0.9715
39377SOL    HW236124   2.353   1.200  10.194 -1.4662  0.6771 -0.2205
39378SOL     OW36125   9.405   8.479   7.203  0.5772  0.6167 -0.1681
39378SOL    HW136126   9.335   8.509   7.145  1.4897  0.0301 -1.6256
39378SOL    HW236127   9.395   8.384   7.206  1.3744  0.5172 -0.4863
39379SOL     OW36128   7.940   4.634   1.329 -0.6153 -0.2853 -0.1593
39379SOL    HW136129   7.903   4.718   1.353  1.1302  0.7717 -0.9808
39379SOL    HW236130   8.002   4.614   1.400  0.8691  0.4152 -1.2139
39380SOL     OW36131   7.503   7.084  10.569  0.9739 -0.2399 -0.0497
39380SOL    HW136132   7.464   7.060  10.653  1.0055  0.5778  0.2155
39380SOL    HW236133   7.514   7.002  10.523  0.2409 -0.6278  0.4409
39381SOL     OW36134   0.867   2.722  11.521  0.5190  0.3260  0.0066
39381SOL    HW136135   0.958   2.722  11.489  0.7942 -0.7191  0.7342
39381SOL    HW236136   0.843   2.815  11.526  0.3540  0.6073 -3.4536
39382SOL     OW36137   6.189   9.497   9.040  0.3090  0.9497 -0.8279
39382SOL    HW136138   6.118   9.480   8.978  0.2926  1.4604 -0.9534
39382SOL    HW236139   6.233   9.412   9.051 -0.4315  0.5882 -0.6027
39383SOL     OW36140   9.341   4.891   6.559  0.2806  0.0315 -0.1956
39383SOL    HW136141   9.280   4.965   6.559  0.1656 -0.0618 -0.7138
39383SOL    HW236142   9.336   4.855   6.470  0.4422 -0.5120  0.0104
39384SOL     OW36143   5.322   1.936   5.918  0.4549 -0.1688  0.2419
39384SOL    HW136144   5.280   1.852   5.938  2.8038 -1.4556  0.0533
39384SOL    HW236145   5.301   1.952   5.826 -1.2053  0.2347  0.6536
39385SOL     OW36146   4.519   9.311   8.729 -0.6622  0.2750 -0.0655
39385SOL    HW136147   4.497   9.321   8.822  0.0373 -0.2886  0.1675
39385SOL    HW236148   4.435   9.311   8.684 -1.1022 -0.9515  0.7179
39386SOL     OW36149   6.558   2.380   0.593 -0.1444 -0.6387  0.0394
39386SOL    HW136150   6.569   2.438   0.518  0.7415 -0.3038  0.4107
39386SOL    HW236151   6.646   2.345   0.610 -0.4025 -1.0011  0.6798
39387SOL     OW36152  10.249  11.799   5.385 -0.3570 -0.3471  0.1139
39387SOL    HW136153  10.199  11.874   5.353 -0.8975 -1.6153 -2.2892
39387SOL    HW236154  10.202  11.768   5.462 -0.5075  1.3481  0.7269
39388SOL     OW36155   9.040   1.998  14.018  0.3031 -0.2040 -0.4957
39388SOL    HW136156   9.084   2.059  13.960  0.1300 -1.4965 -2.0655
39388SOL    HW236157   8.973   1.956  13.963  0.9033 -2.3288  0.2778
39389SOL     OW36158  13.442   7.149   6.590  0.3297  0.0735 -0.1101
39389SOL    HW136159  13.496   7.201   6.531  0.0338  1.3459  0.7012
39389SOL    HW236160  13.473   7.059   6.578  1.4697  0.5482 -0.8966
39390SOL     OW36161  14.109   9.463   6.832  0.1632  0.4448 -0.0725
39390SOL    HW136162  14.046   9.530   6.808 -0.1836 -0.0653 -0.6148
39390SOL    HW236163  14.192   9.510   6.843  0.0586  0.8798 -1.0309
39391SOL     OW36164   4.984  11.355   3.005 -0.2196  0.2170 -0.3982
39391SOL    HW136165   4.931  11.354   3.084 -1.3377 -0.4883 -1.1141
39391SOL    HW236166   5.071  11.327   3.033 -0.9429 -1.3815  0.3725
39392SOL     OW36167   2.277   2.038   8.188 -0.3370 -0.3075 -0.2345
39392SOL    HW136168   2.368   2.009   8.183 -0.3411 -0.3194 -0.2386
39392SOL    HW236169   2.231   1.966   8.232 -0.0055  0.4816  1.4959
39393SOL     OW36170   7.076  12.294   2.283 -0.3716 -0.0883  0.4316
39393SOL    HW136171   6.989  12.287   2.244 -0.8583 -0.9855  1.6112
39393SOL    HW236172   7.062  12.274   2.376  1.5240 -3.4329  0.1521
39394SOL     OW36173   7.972   3.968   0.125 -0.1834 -0.3031 -0.3852
39394SOL    HW136174   7.906   3.938   0.063  0.2642  0.2333 -1.1222
39394SOL    HW236175   7.956   4.062   0.135 -2.3381 -0.8466  2.8117
39395SOL     OW36176   9.028  12.191   2.639 -0.5587  0.1990 -0.7217
39395SOL    HW136177   9.061  12.122   2.696  0.1288  0.9139 -0.2245
39395SOL    HW236178   9.080  12.184   2.559  2.0134  2.2331  0.5847
39396SOL     OW36179  10.740   3.188  11.895 -0.2497  0.5164  0.0909
39396SOL    HW136180  10.685   3.172  11.971  0.6592  0.9846  0.8644
39396SOL    HW236181  10.780   3.103  11.877  0.2613  0.6110  0.7353
39397SOL     OW36182  10.039   6.204  12.175 -0.5508  0.4109  0.4728
39397SOL    HW136183  10.123   6.244  12.196 -0.3958  1.6082 -2.1292
39397SOL    HW236184  10.054   6.156  12.094 -2.3495  0.5752  0.0003
39398SOL     OW36185  13.587   5.327  12.452 -0.0070  0.0761 -0.4767
39398SOL    HW136186  13.533   5.248  12.455  0.2266 -0.0755 -0.2758
39398SOL    HW236187  13.576   5.360  12.363 -0.5759  0.1471 -0.3843
39399SOL     OW36188   5.908   8.355   0.262 -0.2127  0.2859  0.2976
39399SOL    HW136189   5.814   8.375   0.272 -0.1621  0.1112  1.2392
39399SOL    HW236190   5.909   8.271   0.216 -0.4912  0.7325 -0.5521
39400SOL     OW36191   6.234   7.974   4.568  0.3085  0.1065 -0.1595
39400SOL    HW136192   6.281   7.902   4.526  0.3543 -0.1967  0.4049
39400SOL    HW236193   6.250   7.962   4.661 -0.3876  0.3591 -0.0028
39401SOL     OW36194   9.095   7.932   7.843  0.4509  0.4745  0.0287
39401SOL    HW136195   9.169   7.974   7.887 -0.7708  1.8379  0.8958
39401SOL    HW236196   9.058   7.873   7.909 -0.8791  1.8953  0.6175
39402SOL     OW36197   1.607   3.991  13.113 -0.4670  0.0602 -0.5350
39402SOL    HW136198   1.525   3.974  13.158  0.1848 -0.0162  0.6620
39402SOL    HW236199   1.586   4.058  13.048 -0.9852  1.8907  1.4253
39403SOL     OW36200   3.875   1.532   5.000  0.0140  0.0133 -0.1522
39403SOL    HW136201   3.795   1.489   5.028 -0.5908  0.7851 -0.6720
39403SOL    HW236202   3.936   1.518   5.073 -0.9365  0.3648  0.7275
39404SOL     OW36203   8.758   4.646   5.783  0.4520  0.6033  0.3999
39404SOL    HW136204   8.829   4.625   5.843  0.3763 -0.4058  0.1550
39404SOL    HW236205   8.798   4.646   5.696  0.4250  1.3948  0.3796
39405SOL     OW36206  10.928  11.297   7.029  0.4149 -0.1122  0.6492
39405SOL    HW136207  10.898  11.334   6.946  2.1676  0.2985  0.1583
39405SOL    HW236208  10.866  11.330   7.094 -1.1076 -0.5984 -0.5011
39406SOL     OW36209  13.430  13.766   4.161 -0.0335  0.3008 -0.2076
39406SOL    HW136210  13.455  13.848   4.203  1.2462 -1.0573  1.8664
39406SOL    HW236211  13.391  13.714   4.231 -0.4770 -1.0234 -1.3895
39407SOL     OW36212  12.051   5.293   5.396 -0.2825  0.6047 -0.1839
39407SOL    HW136213  12.085   5.334   5.475 -1.5482  1.9104 -0.2842
39407SOL    HW236214  11.979   5.238   5.427 -0.1744  0.3799 -0.3276
39408SOL     OW36215  12.865   7.912  12.864 -0.4198 -0.3270  0.2937
39408SOL    HW136216  12.896   7.902  12.954  0.0018 -1.7117  0.0247
39408SOL    HW236217  12.830   7.826  12.842  0.8890 -0.4785 -1.3684
39409SOL     OW36218  12.397  12.368  13.066  0.1249  0.3369  0.5732
39409SOL    HW136219  12.398  12.435  13.134 -0.4484 -0.1224  1.0496
39409SOL    HW236220  12.323  12.312  13.089 -0.4791  0.5322 -0.7909
39410SOL     OW36221  11.438   0.270  13.916  0.5883  0.2605  0.4375
39410SOL    HW136222  11.406   0.339  13.859 -0.7093 -0.1198  0.6906
39410SOL    HW236223  11.360   0.222  13.944  1.4288 -1.2187  0.3910
39411SOL     OW36224   2.857  10.249  11.140  0.7017  0.6366  0.0863
39411SOL    HW136225   2.855  10.196  11.220  0.8766  0.4113 -0.0564
39411SOL    HW236226   2.772  10.293  11.139 -0.9033 -2.2289 -1.5204
39412SOL     OW36227   5.809   0.559  13.412  0.5037 -0.2502  0.1285
39412SOL    HW136228   5.832   0.641  13.455  0.6218 -1.2029  1.9790
39412SOL    HW236229   5.770   0.585  13.329  0.8466  1.6552  0.5323
39413SOL     OW36230  12.579  10.418   7.167  0.1603  0.1570  0.1194
39413SOL    HW136231  12.582  10.354   7.096  2.9866  0.6447 -0.3315
39413SOL    HW236232  12.639  10.382   7.233 -1.3625  0.3950  1.7030
39414SOL     OW36233  12.078   9.851  12.942 -0.0170 -0.0431  0.1662
39414SOL    HW136234  12.113   9.786  13.003 -0.9218 -1.8655 -1.1315
39414SOL    HW236235  11.988   9.865  12.972 -0.3043 -0.5745 -0.3981
39415SOL     OW36236  13.296  13.198  11.315  0.4584 -0.0160  0.2531
39415SOL    HW136237  13.386  13.166  11.307  0.4751 -0.2445  1.2433
39415SOL    HW236238  13.247  13.122  11.347 -0.1438  0.0427 -0.4975
39416SOL     OW36239   9.393   0.052  10.745  0.5184 -0.3871  0.1345
39416SOL    HW136240   9.317  -0.006  10.740 -0.3337  0.8042 -2.0880
39416SOL    HW236241   9.361   0.131  10.788  0.9685 -0.5247  0.7353
39417SOL     OW36242  12.484  12.940   4.325  0.0473 -0.2768 -0.1990
39417SOL    HW136243  12.431  12.977   4.395  1.8408 -1.1867  1.7495
39417SOL    HW236244  12.574  12.948   4.356  0.8265 -1.8657 -1.8385
39418SOL     OW36245   2.082   7.747  10.062 -0.1472  0.0060 -0.5495
39418SOL    HW136246   2.172   7.769  10.088 -0.2436 -1.0580  0.7703
39418SOL    HW236247   2.027   7.782  10.132 -0.8300  1.0176 -1.5538
39419SOL     OW36248  13.566  11.021   7.399 -0.7315  0.4898  0.1625
39419SOL    HW136249  13.605  11.006   7.313 -0.4071  0.4352  0.3173
39419SOL    HW236250  13.637  11.055   7.452 -1.1422  1.3628  0.1754
39420SOL     OW36251   6.063  12.020  10.984 -0.0372  0.2397  0.1683
39420SOL    HW136252   6.133  12.043  10.924 -2.0659  0.6601 -2.2065
39420SOL    HW236253   6.090  11.937  11.022  0.2814 -1.4406 -3.3390
39421SOL     OW36254  13.186   1.420  14.095  1.1829 -0.2034  0.4178
39421SOL    HW136255  13.237   1.423  14.176 -1.1583  0.5288  1.9617
39421SOL    HW236256  13.221   1.344  14.048  1.9803 -1.2467  2.5465
39422SOL     OW36257  13.007   1.804   1.173 -0.2154  0.3101 -0.4609
39422SOL    HW136258  13.018   1.887   1.127 -0.8063 -0.2061 -1.5944
39422SOL    HW236259  13.087   1.755   1.153 -0.6995 -0.1215 -1.4471
39423SOL     OW36260   6.162   1.721  11.618  0.3377 -0.5070  0.3600
39423SOL    HW136261   6.224   1.658  11.654 -0.5704 -0.5480  1.9127
39423SOL    HW236262   6.200   1.807  11.638  1.3146 -0.4977 -1.2992
39424SOL     OW36263   9.503   0.048   3.375  0.0971 -0.1813  0.3537
39424SOL    HW136264   9.415   0.052   3.413 -0.4295 -1.0439 -0.7250
39424SOL    HW236265   9.528  -0.044   3.383  1.1715  0.1691  1.2065
39425SOL     OW36266   4.075   7.978  11.302 -0.0721  0.0240  1.0266
39425SOL    HW136267   4.035   8.009  11.383 -1.4142 -0.0167  0.4128
39425SOL    HW236268   4.009   7.922  11.262  1.1941 -1.3007  0.6816
39426SOL     OW36269  13.090  11.163  11.267 -0.0020 -0.5920  0.2970
39426SOL    HW136270  13.084  11.067  11.261  0.2852 -0.5930  0.0115
39426SOL    HW236271  13.184  11.181  11.274  0.0777 -0.2310 -1.4360
39427SOL     OW36272   7.798   2.351   3.847  0.0264 -0.4202 -0.3087
39427SOL    HW136273   7.745   2.342   3.768 -2.1829 -0.4859  1.0979
39427SOL    HW236274   7.777   2.274   3.899  1.3998 -0.3548  0.3930
39428SOL     OW36275   5.342   3.844  13.127  0.5740  0.0092  0.0197
39428SOL    HW136276   5.316   3.932  13.154 -0.5565  0.6426 -2.7580
39428SOL    HW236277   5.260   3.796  13.118  0.9963 -0.6192 -0.6148
39429SOL     OW36278   2.102   1.738  13.377 -0.0494  0.2714  0.6068
39429SOL    HW136279   2.046   1.815  13.390  0.2235  0.6786 -0.4808
39429SOL    HW236280   2.170   1.769  13.318  0.4697 -0.6298  0.7274
39430SOL     OW36281   3.318   9.433   1.468 -0.9897 -0.3765  0.0735
39430SOL    HW136282   3.374   9.501   1.433  0.1042 -0.2884  1.8741
39430SOL    HW236283   3.367   9.352   1.455 -0.6771 -0.3718  1.0795
39431SOL     OW36284   5.551  14.008  10.743 -0.0748 -0.0751 -0.1915
39431SOL    HW136285   5.483  13.979  10.682 -0.2065 -0.7845  0.2775
39431SOL    HW236286   5.632  13.976  10.703 -0.0124  0.7003 -0.7086
39432SOL     OW36287  13.173  12.694   4.001 -0.3988 -0.4359  0.3849
39432SOL    HW136288  13.180  12.765   3.938 -1.2994  0.4151  1.2135
39432SOL    HW236289  13.160  12.737   4.086 -3.5334 -1.5425  0.5986
39433SOL     OW36290  12.086  12.930   4.561 -0.4049 -0.0587 -0.3356
39433SOL    HW136291  12.117  12.997   4.622 -1.1313  0.2974 -0.3407
39433SOL    HW236292  12.078  12.975   4.477 -0.9987 -0.1125 -0.3150
39434SOL     OW36293   0.594   9.935  14.144  0.3609  0.5509 -0.4512
39434SOL    HW136294   0.499   9.939  14.133 -0.0976  1.0584  2.7254
39434SOL    HW236295   0.615  10.009  14.201  2.4984 -0.3182 -0.0045
39435SOL     OW36296   2.220  10.678   4.320  0.2420  0.1708  0.2490
39435SOL    HW136297   2.127  10.659   4.330  0.8587 -3.3122  0.6594
39435SOL    HW236298   2.252  10.610   4.261  2.5368  1.3517  0.0307
39436SOL     OW36299  13.031   4.099   7.592  0.2934  0.3044  0.3892
39436SOL    HW136300  12.972   4.084   7.518 -1.0423  2.5577  0.9120
39436SOL    HW236301  12.976   4.089   7.670  1.1001  0.3998  0.9899
39437SOL     OW36302   2.471   7.095   3.005 -0.0423  0.0435 -0.0320
39437SOL    HW136303   2.488   7.031   3.074 -1.2508  0.3325  0.5675
39437SOL    HW236304   2.454   7.042   2.927  0.4887 -0.3076  0.0844
39438SOL     OW36305   5.759   3.329  10.628 -0.9080 -0.5353  0.4411
39438SOL    HW136306   5.829   3.312  10.691  0.3241  0.0325 -0.7317
39438SOL    HW236307   5.690   3.267  10.651 -0.7469  0.0403  2.6992
39439SOL     OW36308  12.913   6.035  10.265  0.6036 -0.3710  0.0255
39439SOL    HW136309  12.923   6.100  10.334 -1.4681  1.9914 -1.7073
39439SOL    HW236310  12.953   6.076  10.188 -1.1365 -0.9240 -1.2289
39440SOL     OW36311   3.907   7.281   8.873  0.2282  0.3637  0.1203
39440SOL    HW136312   3.989   7.237   8.850 -0.5241 -0.9515 -0.0819
39440SOL    HW236313   3.844   7.252   8.807 -0.9694 -0.3948  1.5440
39441SOL     OW36314   2.352   1.775   6.680 -0.4291  0.3258 -0.3777
39441SOL    HW136315   2.351   1.820   6.764  0.5003 -0.9063  0.3230
39441SOL    HW236316   2.320   1.840   6.618  0.1628  1.7132  0.7091
39442SOL     OW36317  13.292   8.932   8.893 -0.0535 -0.2035  0.4150
39442SOL    HW136318  13.242   8.979   8.960 -1.2336 -1.1604  0.2429
39442SOL    HW236319  13.337   8.863   8.941 -0.0738 -0.2497  0.3669
39443SOL     OW36320   8.642   7.477   6.408 -0.5468  0.7568 -0.6069
39443SOL    HW136321   8.596   7.428   6.340  2.3762 -2.6994 -0.4348
39443SOL    HW236322   8.613   7.437   6.490  0.7883  0.3018 -0.3367
39444SOL     OW36323  13.748   9.814   7.719 -0.0229 -0.2188 -0.2952
39444SOL    HW136324  13.738   9.823   7.813 -0.0895  1.3297 -0.4245
39444SOL    HW236325  13.766   9.721   7.705  1.1138 -0.2803  1.3438
39445SOL     OW36326   0.714   5.508  12.550 -0.4617 -0.1541  0.4576
39445SOL    HW136327   0.726   5.439  12.484  1.6575  0.7745 -0.2374
39445SOL    HW236328   0.623   5.535  12.541 -0.5308 -0.8524 -1.2984
39446SOL     OW36329   8.118   6.145  10.401 -0.3038  0.1314  0.4298
39446SOL    HW136330   8.047   6.168  10.462 -1.8162  3.4415 -2.2455
39446SOL    HW236331   8.079   6.080  10.342  0.5435 -1.6283  1.7259
39447SOL     OW36332   5.666  12.142  10.511 -0.2877  0.0100 -0.0422
39447SOL    HW136333   5.690  12.230  10.537 -1.7877 -0.0333  1.6696
39447SOL    HW236334   5.574  12.149  10.485 -0.0682 -0.8267 -1.1393
39448SOL     OW36335   1.607   4.658   0.817  0.0490  0.3586 -0.9213
39448SOL    HW136336   1.659   4.603   0.875  0.3395  0.2942 -1.2410
39448SOL    HW236337   1.659   4.737   0.805 -0.3022  0.6457 -0.5792
39449SOL     OW36338   7.305  11.031   6.552  0.0759 -0.2586  0.0819
39449SOL    HW136339   7.382  11.047   6.607 -0.5232 -0.7781  1.1098
39449SOL    HW236340   7.274  10.944   6.579 -0.1675 -0.5830 -1.1789
39450SOL     OW36341   6.690  13.321   7.790  0.3880  0.7311  0.4858
39450SOL    HW136342   6.684  13.275   7.873  1.2924  0.5716  0.4735
39450SOL    HW236343   6.705  13.412   7.814  0.1690  0.7643  0.4983
39451SOL     OW36344  13.840   6.415   2.658  0.0931  0.1035 -0.2056
39451SOL    HW136345  13.813   6.325   2.674  1.2625  0.0958  2.0795
39451SOL    HW236346  13.758   6.463   2.649 -0.5781 -0.8488  0.6759
39452SOL     OW36347  12.084   8.085   1.348  0.0270 -0.6307  0.0798
39452SOL    HW136348  12.051   8.173   1.366  0.8156  0.0562 -1.5624
39452SOL    HW236349  12.006   8.031   1.340 -0.5332  0.1669  0.0126
39453SOL     OW36350   2.834   7.602   1.076 -0.3784  0.1543 -0.9864
39453SOL    HW136351   2.799   7.630   1.161 -1.6677 -0.1089 -1.4138
39453SOL    HW236352   2.757   7.592   1.020  0.2313 -2.0481 -1.5046
39454SOL     OW36353   4.164  11.154   5.813  0.0012 -0.2157  0.5907
39454SOL    HW136354   4.192  11.062   5.809 -0.7368 -0.4191 -0.2930
39454SOL    HW236355   4.109  11.158   5.891 -0.8340 -0.7957  0.0530
39455SOL     OW36356   9.630  10.406   3.463  0.0568  0.6023  0.3079
39455SOL    HW136357   9.714  10.383   3.422 -0.1540  2.2256 -1.1414
39455SOL    HW236358   9.653  10.455   3.541  0.4659  0.6109  0.1834
39456SOL     OW36359   5.611   9.573   1.640 -0.5890 -0.2089  0.0493
39456SOL    HW136360   5.701   9.558   1.667  0.2730  0.5463 -2.1315
39456SOL    HW236361   5.596   9.666   1.656 -1.2750 -0.4832  1.1046
39457SOL     OW36362   0.657   6.363   6.316  0.4433 -0.5407  0.4251
39457SOL    HW136363   0.650   6.284   6.264 -1.2003 -0.2663  0.1774
39457SOL    HW236364   0.578   6.364   6.370  0.0846  1.2579 -0.0556
39458SOL     OW36365   8.803  13.677  13.042 -0.1417  0.2327  0.2654
39458SOL    HW136366   8.792  13.592  13.085 -1.3301 -1.6228 -3.2815
39458SOL    HW236367   8.894  13.678  13.014 -0.4946 -0.6094 -0.9757
39459SOL     OW36368   1.135   2.641   5.647  0.3303 -0.4682  0.4485
39459SOL    HW136369   1.118   2.570   5.709  1.1102 -1.1092 -0.0691
39459SOL    HW236370   1.128   2.601   5.561 -2.4859  0.7701 -0.0246
39460SOL     OW36371  10.087  11.178   5.143 -0.7554  0.8609 -0.0276
39460SOL    HW136372  10.009  11.123   5.149  1.0213 -2.1757 -1.9644
39460SOL    HW236373  10.075  11.228   5.063 -0.4205 -0.2184 -0.7731
39461SOL     OW36374   8.349   6.660   8.359  0.4621 -0.4153 -0.2880
39461SOL    HW136375   8.306   6.737   8.322  0.9434 -0.7619 -1.6276
39461SOL    HW236376   8.407   6.696   8.426 -0.4408  0.2332  0.1587
39462SOL     OW36377   0.971  12.957   1.910 -0.7225 -0.3605  0.0691
39462SOL    HW136378   0.937  12.924   1.993 -1.2141  0.9263  0.4061
39462SOL    HW236379   0.896  12.955   1.850 -0.0231 -2.6776 -0.8212
39463SOL     OW36380   1.716   5.558   0.451  0.2221 -0.3042 -0.0500
39463SOL    HW136381   1.673   5.475   0.428  1.6616 -1.2425  0.5123
39463SOL    HW236382   1.648   5.624   0.437 -1.1205 -1.6183 -0.0617
39464SOL     OW36383   8.228   7.942  10.398 -0.3825 -0.4514  0.8409
39464SOL    HW136384   8.298   8.007  10.404 -0.2186 -0.6590  1.2124
39464SOL    HW236385   8.172   7.973  10.326 -0.9458  0.7091  1.7553
39465SOL     OW36386   6.279   9.855  13.104 -0.2519 -0.8518  0.1927
39465SOL    HW136387   6.304   9.926  13.045 -1.1686 -0.6477  0.0403
39465SOL    HW236388   6.314   9.776  13.063 -0.2727 -0.6298 -0.2563
39466SOL     OW36389   4.783   5.690   4.970 -0.7110 -0.0318  0.0879
39466SOL    HW136390   4.806   5.617   4.911  1.7973  0.6259  0.1435
39466SOL    HW236391   4.693   5.672   4.996 -1.7775 -0.6850 -3.4654
39467SOL     OW36392  11.960   9.188   9.584  0.0155  0.2915 -0.0529
39467SOL    HW136393  11.917   9.125   9.641  0.1806 -0.3548 -0.6258
39467SOL    HW236394  12.053   9.183   9.608  0.0864  0.0140 -0.3710
39468SOL     OW36395   7.503  10.490  11.791  0.0236 -0.2353  0.4318
39468SOL    HW136396   7.548  10.528  11.716  1.0575 -0.6853  0.8053
39468SOL    HW236397   7.535  10.400  11.795 -2.9957 -1.4949 -0.9540
39469SOL     OW36398   4.625  12.184   0.898 -0.3749 -0.1092  0.0522
39469SOL    HW136399   4.574  12.134   0.834  1.4205  0.1778 -1.7142
39469SOL    HW236400   4.695  12.124   0.925  0.6301  0.7353 -0.5794
39470SOL     OW36401   6.477  10.090   3.433 -0.1892  0.3743  0.1485
39470SOL    HW136402   6.383  10.097   3.451  0.0378  0.3305  1.4008
39470SOL    HW236403   6.485  10.112   3.340 -1.3241  1.2618  0.2470
39471SOL     OW36404   2.040  10.616  11.960  0.2566  0.5538  0.0674
39471SOL    HW136405   2.098  10.582  11.893 -0.2828  1.7208 -1.0330
39471SOL    HW236406   1.962  10.645  11.912 -1.6456 -1.6986  1.5479
39472SOL     OW36407   5.140   4.553   5.788 -0.2443  0.3514  0.3472
39472SOL    HW136408   5.229   4.528   5.763 -0.4779  0.3531 -0.5191
39472SOL    HW236409   5.148   4.584   5.878  0.6770  0.6223  0.1799
39473SOL     OW36410   9.516   6.781   5.200  0.9153 -0.6124  0.2507
39473SOL    HW136411   9.544   6.771   5.291  0.3273 -3.3586  0.2055
39473SOL    HW236412   9.436   6.833   5.205  1.2775 -0.1262  1.2161
39474SOL     OW36413  13.590   6.162   6.069 -0.4595 -0.2603  0.0409
39474SOL    HW136414  13.630   6.076   6.059  1.6439  0.5849  0.5244
39474SOL    HW236415  13.614   6.209   5.990  0.5761  0.6500  0.8686
39475SOL     OW36416  14.007   1.468   7.609  0.1213 -1.1133 -0.7941
39475SOL    HW136417  13.916   1.479   7.581 -0.2123  1.2037  0.9303
39475SOL    HW236418  14.004   1.393   7.668 -1.0422 -0.0764  0.5345
39476SOL     OW36419   0.708   7.418   2.210  0.1206 -0.1292 -0.4499
39476SOL    HW136420   0.670   7.435   2.124 -2.6339  0.0825  0.7008
39476SOL    HW236421   0.723   7.505   2.248 -1.4954 -0.1867  0.3847
39477SOL     OW36422   6.205   9.957   5.728 -0.1610 -0.0030 -0.3335
39477SOL    HW136423   6.226   9.896   5.657  1.5286  1.6575 -1.3539
39477SOL    HW236424   6.121   9.994   5.704 -0.3241 -0.5778 -0.6687
39478SOL     OW36425   8.170   1.344  10.318 -0.0323 -0.3129 -0.2858
39478SOL    HW136426   8.265   1.349  10.314 -0.0205  1.0477  0.7051
39478SOL    HW236427   8.149   1.254  10.292  1.4336 -0.3425 -1.5016
39479SOL     OW36428  13.923   2.372   9.095  0.4471  0.0184 -0.9025
39479SOL    HW136429  13.903   2.418   9.177 -1.2739 -1.0552 -0.6780
39479SOL    HW236430  13.849   2.313   9.082  2.6502 -2.9221 -1.0062
39480SOL     OW36431   6.822   6.017   6.669  0.6331  0.1848  0.4602
39480SOL    HW136432   6.912   6.028   6.699  0.6924 -0.7689  0.6610
39480SOL    HW236433   6.791   5.937   6.713  0.1898 -0.3510 -0.7747
39481SOL     OW36434  11.080   8.034   7.295 -0.6930 -0.2035  0.5065
39481SOL    HW136435  11.088   8.076   7.381  0.8722 -0.0608  0.3189
39481SOL    HW236436  11.151   8.072   7.243 -0.4392 -1.6485 -0.2646
39482SOL     OW36437   8.059  11.558   2.092 -0.2679 -0.0791 -0.2021
39482SOL    HW136438   7.989  11.494   2.089 -0.1818 -0.3248  1.5801
39482SOL    HW236439   8.137  11.510   2.063 -0.5269 -0.2594 -0.6116
39483SOL     OW36440   1.770  11.154  12.003  1.0494  0.3103 -0.2808
39483SOL    HW136441   1.831  11.177  12.073  0.7679  1.6828 -0.4489
39483SOL    HW236442   1.785  11.222  11.936 -1.4661  1.4134  0.1826
39484SOL     OW36443   3.979  11.986   1.601 -0.3600  0.0197  0.0828
39484SOL    HW136444   4.032  12.065   1.606 -0.5751  0.1203  0.8089
39484SOL    HW236445   4.043  11.916   1.586 -0.1812  0.3334 -0.6642
39485SOL     OW36446   1.631  11.521   8.421 -0.2730  0.4597  0.5732
39485SOL    HW136447   1.546  11.528   8.378 -0.3862 -1.2395  0.4167
39485SOL    HW236448   1.626  11.581   8.496 -1.0777  1.4029 -0.2211
39486SOL     OW36449  12.848   4.277   3.254  0.3978 -0.4233 -0.4463
39486SOL    HW136450  12.753   4.266   3.251  0.0537  2.0447 -0.7052
39486SOL    HW236451  12.872   4.248   3.342 -0.6559 -0.6663 -0.2203
39487SOL     OW36452   4.065  11.863  11.770  0.0265  0.2647 -0.2989
39487SOL    HW136453   4.110  11.877  11.853  0.7848  1.1643 -0.8449
39487SOL    HW236454   4.110  11.788  11.731 -0.0974  0.0653 -0.0610
39488SOL     OW36455   5.573   0.955  10.830 -1.0107 -0.2453 -0.0288
39488SOL    HW136456   5.581   0.911  10.914  0.6984  0.4798  0.2234
39488SOL    HW236457   5.575   1.048  10.851 -0.1178 -0.0497 -0.8832
39489SOL     OW36458   3.200   7.960   9.111  0.2873  0.9487  0.1144
39489SOL    HW136459   3.285   7.947   9.155  0.6177  0.1504 -0.7379
39489SOL    HW236460   3.217   8.031   9.049  1.5125 -1.7657 -2.9134
39490SOL     OW36461  13.654  10.887   9.840 -0.3482 -0.1804  0.4181
39490SOL    HW136462  13.677  10.977   9.861 -2.4667  0.3454  0.7220
39490SOL    HW236463  13.602  10.894   9.761  0.2046 -1.2569 -0.0609
39491SOL     OW36464   0.222   5.956   2.388 -0.2558 -0.0849 -0.2428
39491SOL    HW136465   0.316   5.940   2.390 -0.4960 -1.7428  1.9437
39491SOL    HW236466   0.183   5.869   2.378 -1.6098  0.7354 -3.2926
39492SOL     OW36467  11.727   7.205   3.297 -0.0445 -0.3340  0.6935
39492SOL    HW136468  11.697   7.276   3.353 -1.1732 -0.1705 -0.0822
39492SOL    HW236469  11.770   7.249   3.223  1.7261 -0.5518  1.5261
39493SOL     OW36470  10.094   3.498  14.139 -0.1371 -0.2855 -0.1009
39493SOL    HW136471  10.027   3.566  14.146 -0.9473 -1.0914  0.1842
39493SOL    HW236472  10.151   3.527  14.068 -0.1738  0.9293  0.3459
39494SOL     OW36473   8.714   0.074   8.312  0.0099 -0.2940  0.5801
39494SOL    HW136474   8.776   0.044   8.245  0.1147 -0.8093  0.9012
39494SOL    HW236475   8.742   0.030   8.392  0.0185  0.4835  1.0175
39495SOL     OW36476   7.527   1.422   0.839 -0.2480 -0.3424 -0.3683
39495SOL    HW136477   7.503   1.393   0.751  0.5777  0.9001 -1.0241
39495SOL    HW236478   7.548   1.515   0.829  0.7764 -0.4080  0.9631
39496SOL     OW36479   4.216   2.074  12.899  0.5992  0.0456 -0.1899
39496SOL    HW136480   4.292   2.121  12.865  0.9091  0.9937  1.7166
39496SOL    HW236481   4.145   2.139  12.899 -0.4234 -0.9460 -2.3812
39497SOL     OW36482   5.663   7.585   4.332 -0.6735 -0.2508  0.1465
39497SOL    HW136483   5.652   7.606   4.424  1.9598 -0.7960  0.6611
39497SOL    HW236484   5.645   7.668   4.286  0.6503  0.7605  1.3795
39498SOL     OW36485   9.652   1.093   1.931 -0.4410 -0.6434 -0.4100
39498SOL    HW136486   9.684   1.093   1.841  0.6704 -0.5920 -0.0320
39498SOL    HW236487   9.676   1.007   1.965  0.5737 -0.0859  0.3117
39499SOL     OW36488  13.883   8.863   9.109 -0.1820 -0.5833  0.3191
39499SOL    HW136489  13.905   8.956   9.099 -0.2143 -0.5833  0.2462
39499SOL    HW236490  13.856   8.835   9.021 -1.3464 -0.3542  0.5865
39500SOL     OW36491   6.744   1.854   4.151 -0.4463  0.3802  0.0679
39500SOL    HW136492   6.742   1.949   4.164 -4.1015  0.5474 -0.6828
39500SOL    HW236493   6.751   1.818   4.239 -0.8036  1.3568  0.5133
39501SOL     OW36494   2.228   4.269  10.132 -0.5728 -0.0502 -0.2689
39501SOL    HW136495   2.145   4.313  10.115  0.0524  1.3005  0.0869
39501SOL    HW236496   2.259   4.307  10.214  0.1461 -0.9440 -0.1041
39502SOL     OW36497   2.132   9.722   2.623 -0.2773 -0.4546 -0.2136
39502SOL    HW136498   2.081   9.746   2.701  0.9446 -0.6250  0.6684
39502SOL    HW236499   2.124   9.798   2.565  2.9993  2.1261  2.2570
39503SOL     OW36500  10.716   4.509   5.294 -0.0775 -0.0961  1.2035
39503SOL    HW136501  10.811   4.512   5.296 -0.0679  3.0791  1.0708
39503SOL    HW236502  10.690   4.594   5.258 -2.9265 -2.4059 -3.0732
39504SOL     OW36503   0.729   4.554   9.861  0.4018 -0.8264  0.6697
39504SOL    HW136504   0.735   4.622   9.794 -1.3634 -1.4516 -0.1965
39504SOL    HW236505   0.652   4.579   9.913  0.2238 -1.7018  0.8435
39505SOL     OW36506   2.259   8.438   2.145 -0.2828  0.0461 -0.2187
39505SOL    HW136507   2.248   8.518   2.094 -1.0209 -0.6939 -1.2470
39505SOL    HW236508   2.309   8.379   2.089  0.3794 -0.1867  0.5846
39506SOL     OW36509   3.884  13.524   4.015 -0.2584  0.1950  0.3991
39506SOL    HW136510   3.865  13.564   4.100 -2.4389 -0.5130  0.3116
39506SOL    HW236511   3.951  13.459   4.034 -1.9602 -1.2202  2.0232
39507SOL     OW36512   0.532   6.000   4.151 -0.0250  0.0625 -0.1660
39507SOL    HW136513   0.559   6.079   4.105  0.9537 -0.4546 -0.4983
39507SOL    HW236514   0.509   6.031   4.239 -1.3890  0.9709 -0.8073
39508SOL     OW36515  10.789   0.640   2.969  0.0261  0.3450  0.5134
39508SOL    HW136516  10.774   0.695   2.892  1.8232  0.2837  0.0685
39508SOL    HW236517  10.845   0.694   3.026 -0.1697 -0.1207  1.1566
39509SOL     OW36518  12.279   3.458   6.402 -0.1176 -0.1465 -0.6714
39509SOL    HW136519  12.253   3.527   6.341 -0.5068  0.8128  0.5233
39509SOL    HW236520  12.334   3.503   6.467 -0.0673 -1.0430 -0.0713
39510SOL     OW36521  10.551   5.505  10.909 -0.4343 -0.2131 -0.0856
39510SOL    HW136522  10.463   5.542  10.916 -0.2923 -0.1848  3.8396
39510SOL    HW236523  10.604   5.574  10.869 -1.5398  1.1784  0.7538
39511SOL     OW36524   5.184   8.504   1.252 -0.4536  0.2100  0.3579
39511SOL    HW136525   5.190   8.503   1.348 -2.5585 -1.8867  0.5328
39511SOL    HW236526   5.134   8.583   1.232  0.0329  0.6802  0.9431
39512SOL     OW36527   0.009   1.991   5.208  0.2771 -0.2681  0.2429
39512SOL    HW136528   0.032   1.961   5.296 -3.9691 -1.0973  1.2840
39512SOL    HW236529  -0.071   2.041   5.219 -0.4495 -0.4057 -3.1663
39513SOL     OW36530   2.721  11.973   0.849 -0.2663 -0.4106 -0.3422
39513SOL    HW136531   2.715  12.059   0.891 -0.6826 -0.5760 -0.0511
39513SOL    HW236532   2.783  11.924   0.903 -2.6931 -1.4971  1.7066
39514SOL     OW36533   8.397   5.329   8.653 -0.1180  0.0944  0.0983
39514SOL    HW136534   8.432   5.336   8.742  1.5581 -0.7218 -0.4563
39514SOL    HW236535   8.445   5.395   8.603  1.0421 -1.3545 -0.7776
39515SOL     OW36536  13.518   6.635   1.908 -0.2052  0.0908  0.1893
39515SOL    HW136537  13.474   6.567   1.856  2.3533 -1.3965 -0.2181
39515SOL    HW236538  13.547   6.699   1.843  2.5323 -1.5075 -0.3435
39516SOL     OW36539   6.448   2.069   8.212  0.2193  0.2436 -0.1934
39516SOL    HW136540   6.423   2.111   8.129 -0.2953  1.7621  0.6942
39516SOL    HW236541   6.445   2.140   8.276  1.2842 -0.7617  1.0101
39517SOL     OW36542   1.582   3.506   0.544  0.4504 -0.4856 -0.0503
39517SOL    HW136543   1.586   3.550   0.629 -2.9172 -0.1311  0.0513
39517SOL    HW236544   1.570   3.413   0.565  3.1448 -0.9931 -0.2742
39518SOL     OW36545  11.494   1.322  10.134 -0.2633 -1.0188 -0.4222
39518SOL    HW136546  11.473   1.294  10.223  1.3323 -0.6633  0.1163
39518SOL    HW236547  11.491   1.242  10.082  1.5839 -1.7992  0.5566
39519SOL     OW36548   9.703   2.786   6.923  0.0900 -0.1727  0.1409
39519SOL    HW136549   9.688   2.782   7.017 -0.3516 -0.7161  0.0549
39519SOL    HW236550   9.726   2.696   6.899 -0.8320 -0.2644 -0.4388
39520SOL     OW36551  10.176  14.092  11.312 -0.8185 -0.2612 -0.3820
39520SOL    HW136552  10.164  13.999  11.331  0.1073  0.0372  2.1486
39520SOL    HW236553  10.091  14.131  11.334 -1.0548 -0.4267 -0.9773
39521SOL     OW36554  12.998   6.670  10.717 -0.1922  0.1254 -0.3011
39521SOL    HW136555  13.009   6.575  10.708  0.8147  0.1935  0.0771
39521SOL    HW236556  12.928   6.680  10.782 -0.4384 -0.3490 -0.4844
39522SOL     OW36557   3.035  12.219  13.972  0.0624 -0.0069 -0.1869
39522SOL    HW136558   2.987  12.139  13.993 -0.9188  1.1532  2.4160
39522SOL    HW236559   2.968  12.288  13.972  1.2175  1.1634  0.2093
39523SOL     OW36560   2.827   8.586   9.240  0.6699 -0.2468 -0.4590
39523SOL    HW136561   2.738   8.561   9.264  0.5894  0.1270 -0.3547
39523SOL    HW236562   2.871   8.504   9.221  0.1288 -0.3992 -1.1124
39524SOL     OW36563  13.571  12.303  11.593  0.3534  0.2521 -0.4034
39524SOL    HW136564  13.632  12.352  11.648  0.3114  0.4978 -0.5755
39524SOL    HW236565  13.621  12.282  11.514  0.8424 -1.2452  0.2635
39525SOL     OW36566   2.604  11.154   0.283  0.1092  0.2399  0.2042
39525SOL    HW136567   2.537  11.220   0.301  0.1154  0.2139  0.3242
39525SOL    HW236568   2.687  11.200   0.295  0.1344 -0.1670  1.7710
39526SOL     OW36569   7.458   8.524   7.352 -0.1548 -0.5346  0.2793
39526SOL    HW136570   7.552   8.510   7.345  0.0352  0.8766 -0.1062
39526SOL    HW236571   7.420   8.436   7.345  1.2404 -1.4587  3.0273
39527SOL     OW36572   3.983  11.987  13.071 -0.0954  0.6680 -0.0216
39527SOL    HW136573   3.956  11.896  13.058  0.8564  0.1689  1.2419
39527SOL    HW236574   3.902  12.034  13.089 -0.5863  0.0482 -0.5641
39528SOL     OW36575  13.013   0.058   3.826  0.3063 -0.0738 -0.6588
39528SOL    HW136576  12.952   0.102   3.766  0.0313 -1.0534 -1.1256
39528SOL    HW236577  13.053  -0.011   3.773  1.6285  0.3842 -0.2713
39529SOL     OW36578   3.389   5.682   7.398 -0.1549  0.1156 -0.2029
39529SOL    HW136579   3.346   5.761   7.366 -0.6057  0.1254  0.4155
39529SOL    HW236580   3.382   5.687   7.493  3.1895  1.2442  0.1071
39530SOL     OW36581  13.444  11.926   1.997  0.0759 -0.6455 -0.3864
39530SOL    HW136582  13.439  11.944   1.903  0.3895 -0.6627 -0.4053
39530SOL    HW236583  13.358  11.889   2.018  0.2352 -1.2607 -0.7945
39531SOL     OW36584   6.273   0.944   6.055  0.0053 -0.1799  0.1906
39531SOL    HW136585   6.288   0.952   5.961  0.7992 -1.9117  0.1204
39531SOL    HW236586   6.182   0.915   6.062  0.2657 -1.1454 -0.1482
39532SOL     OW36587   4.433   5.475   8.049  0.4378 -0.4524  0.2310
39532SOL    HW136588   4.413   5.558   8.005  0.8075 -0.4253  0.1086
39532SOL    HW236589   4.370   5.413   8.014  0.8667 -0.4864 -0.5081
39533SOL     OW36590   4.433  13.876   7.490 -0.0049 -0.2061 -0.3267
39533SOL    HW136591   4.491  13.814   7.535 -0.3278  1.7426  3.1278
39533SOL    HW236592   4.347  13.834   7.493 -0.7200  1.0016  4.0716
39534SOL     OW36593   6.510   7.526  13.181 -0.5658  0.7860  0.4859
39534SOL    HW136594   6.551   7.498  13.262  0.3633  2.6044  0.6894
39534SOL    HW236595   6.512   7.449  13.125  1.4605  0.2998  1.1541
39535SOL     OW36596   5.889   0.043   9.717 -0.5038 -0.1479  0.1357
39535SOL    HW136597   5.802   0.034   9.757 -1.0683 -1.1505 -1.2473
39535SOL    HW236598   5.872   0.089   9.634  0.3313 -0.0284  0.0257
39536SOL     OW36599   0.054   9.025   0.322  0.3939 -0.0717 -0.2151
39536SOL    HW136600   0.063   8.930   0.309  0.2582  0.0385 -1.1833
39536SOL    HW236601   0.143   9.058   0.310  0.1158  0.1328 -1.8392
39537SOL     OW36602   5.014   4.204   4.057 -0.6938 -0.0914  0.2938
39537SOL    HW136603   5.001   4.292   4.092  1.3502  0.9336 -1.2751
39537SOL    HW236604   5.101   4.179   4.086 -0.6415 -0.9451 -0.5345
39538SOL     OW36605  11.016   6.062   2.363 -0.6581 -0.7065  0.3192
39538SOL    HW136606  10.988   6.023   2.280 -1.5036 -0.8396  0.6586
39538SOL    HW236607  10.935   6.073   2.413 -0.3360  0.6424  0.5911
39539SOL     OW36608   0.617  13.470   7.567 -0.3363  0.0728  0.4477
39539SOL    HW136609   0.544  13.506   7.618 -0.1388 -0.1441  0.8947
39539SOL    HW236610   0.645  13.393   7.618  1.0612  0.9051  0.9827
39540SOL     OW36611   8.443   7.370   5.491 -0.6806 -0.3285 -0.4712
39540SOL    HW136612   8.533   7.403   5.491 -0.8899  0.3404 -1.9471
39540SOL    HW236613   8.450   7.282   5.527  0.3542  0.1971  0.6987
39541SOL     OW36614   8.117   5.177  13.890 -0.2234  0.6994  0.1275
39541SOL    HW136615   8.059   5.210  13.959 -1.6514  0.9477 -1.1499
39541SOL    HW236616   8.077   5.096  13.860  1.5156 -0.5426  0.9697
39542SOL     OW36617   0.981   3.174   6.112  0.3900 -0.8112  0.7037
39542SOL    HW136618   0.951   3.120   6.039  0.9110 -1.3405  0.8699
39542SOL    HW236619   0.919   3.247   6.115  0.8157 -0.3582 -0.7441
39543SOL     OW36620   1.542   3.889   7.284 -0.0982  0.0775 -0.0453
39543SOL    HW136621   1.562   3.973   7.324  0.3793  0.0570 -0.2364
39543SOL    HW236622   1.451   3.897   7.256  0.3232  0.9948 -1.2314
39544SOL     OW36623  13.492  12.437  13.818  0.1886 -0.8166  0.0763
39544SOL    HW136624  13.437  12.378  13.870 -3.3053 -0.3604 -2.7139
39544SOL    HW236625  13.458  12.524  13.836  0.3624 -0.4534 -1.2423
39545SOL     OW36626  13.047   8.132   8.251  0.3578 -0.1727 -0.2297
39545SOL    HW136627  13.114   8.184   8.295 -0.4859  0.2909  0.5489
39545SOL    HW236628  13.021   8.067   8.317 -1.0064  0.6075  0.0423
39546SOL     OW36629   1.507  12.936   1.412  0.4983 -0.2386 -0.7800
39546SOL    HW136630   1.441  12.931   1.343  0.5983  0.3833 -0.9186
39546SOL    HW236631   1.458  12.918   1.493  0.9218 -4.4636 -1.2388
39547SOL     OW36632   6.222   4.818   4.709 -0.4731 -0.5897  0.3126
39547SOL    HW136633   6.263   4.892   4.665  2.4984 -1.6592  1.0825
39547SOL    HW236634   6.196   4.759   4.638  0.6605 -0.5281 -0.1649
39548SOL     OW36635   1.794  11.515  12.211 -0.5274 -0.2921  0.1824
39548SOL    HW136636   1.706  11.499  12.178  0.4045  0.1432 -2.8270
39548SOL    HW236637   1.804  11.610  12.208 -0.4286 -0.2056  2.0178
39549SOL     OW36638   2.099   1.017   2.240 -0.4274 -1.1265 -0.1202
39549SOL    HW136639   2.039   0.980   2.305  0.4192 -0.5981  0.9980
39549SOL    HW236640   2.121   0.943   2.183 -1.0082 -1.6539  0.3211
39550SOL     OW36641   0.389   8.175   1.082 -0.3140  0.5158 -0.1301
39550SOL    HW136642   0.466   8.195   1.135 -0.0952 -1.2591  0.2883
39550SOL    HW236643   0.325   8.140   1.145 -0.5225 -0.4053 -0.8261
39551SOL     OW36644   6.988   1.180  10.419  0.3192 -0.2439 -0.0164
39551SOL    HW136645   6.998   1.087  10.441 -1.2217 -0.4767 -0.1799
39551SOL    HW236646   6.921   1.181  10.350 -1.0917  1.1258  1.3003
39552SOL     OW36647   3.053   3.525   0.729  0.6681  0.2012 -0.1351
39552SOL    HW136648   3.054   3.523   0.634  1.7466 -1.0652 -0.1155
39552SOL    HW236649   3.132   3.575   0.753 -0.3980  1.8636  0.1125
39553SOL     OW36650   1.265   4.357  11.134  0.0263  0.1417  0.4519
39553SOL    HW136651   1.287   4.294  11.202  0.1411  0.0400  0.3187
39553SOL    HW236652   1.337   4.353  11.072 -0.6719 -0.6731 -0.3346
39554SOL     OW36653   5.732   5.210   1.337 -0.4379  0.0338 -0.3427
39554SOL    HW136654   5.789   5.282   1.311  0.1205 -0.9874 -2.1367
39554SOL    HW236655   5.790   5.148   1.380 -0.4454 -0.3790 -0.9147
39555SOL     OW36656   3.380  14.127   8.190 -0.7009 -0.5073  0.0855
39555SOL    HW136657   3.365  14.035   8.167 -1.0772 -0.5626  0.5403
39555SOL    HW236658   3.319  14.144   8.262 -0.0304 -0.1404  0.5779
39556SOL     OW36659   9.712   9.693  12.273  0.0033  0.0580  0.2654
39556SOL    HW136660   9.789   9.748  12.285  0.3444  0.0395 -1.5724
39556SOL    HW236661   9.654   9.716  12.346  2.1584 -0.7325  2.3485
39557SOL     OW36662  10.856   8.910  11.640 -0.3676  0.4168 -0.1406
39557SOL    HW136663  10.908   8.911  11.720  1.0532 -2.3896 -0.8930
39557SOL    HW236664  10.774   8.867  11.665  0.1273 -0.5790 -0.1627
39558SOL     OW36665   4.947   6.900   1.473 -0.0382 -0.2854 -0.0844
39558SOL    HW136666   4.923   6.913   1.381 -2.5304  2.8681  0.8227
39558SOL    HW236667   5.027   6.951   1.485  0.5938 -1.1335 -0.5544
39559SOL     OW36668  10.049   5.167   7.333  0.0602 -0.2738 -0.1503
39559SOL    HW136669  10.104   5.109   7.281  0.6867 -0.0747  0.2747
39559SOL    HW236670   9.962   5.129   7.328 -0.4841  1.1011 -3.4596
39560SOL     OW36671  12.589  11.880   4.055 -0.3431  0.0010  0.3863
39560SOL    HW136672  12.671  11.876   4.005  0.4709  1.6604  1.5286
39560SOL    HW236673  12.527  11.830   4.001 -0.0724  3.2067 -3.3798
39561SOL     OW36674   1.762   2.626   6.383  0.0457  0.3707  0.1378
39561SOL    HW136675   1.668   2.606   6.382  0.0966  0.0834  0.8310
39561SOL    HW236676   1.800   2.561   6.441  0.4520  1.4109  1.0702
39562SOL     OW36677   5.206   9.753   0.668  0.3730  0.2082 -0.2500
39562SOL    HW136678   5.231   9.818   0.603  0.4331  0.5770  0.1363
39562SOL    HW236679   5.223   9.795   0.752 -0.1729 -0.0719  0.0118
39563SOL     OW36680  13.571  11.753   6.920 -0.4340  0.4912  0.9527
39563SOL    HW136681  13.568  11.661   6.945 -3.3565  0.4009  0.5585
39563SOL    HW236682  13.566  11.801   7.003  0.7098  0.3343  1.1312
39564SOL     OW36683   0.240   8.070   5.052  0.4518 -0.2295  0.1097
39564SOL    HW136684   0.329   8.060   5.087  1.1957  1.2939 -1.2163
39564SOL    HW236685   0.251   8.064   4.957 -0.8247  0.2815 -0.0899
39565SOL     OW36686   7.383  13.387   8.242 -0.5218  0.7007  0.6668
39565SOL    HW136687   7.420  13.300   8.259 -0.0814  0.5291 -1.0398
39565SOL    HW236688   7.313  13.372   8.179 -0.9743  1.5084  0.9583
39566SOL     OW36689  13.153   0.416   0.622 -0.4894 -0.7072  0.6930
39566SOL    HW136690  13.120   0.343   0.571 -1.5616  1.0357 -1.2684
39566SOL    HW236691  13.074   0.459   0.655  0.1078 -0.2756  1.5931
39567SOL     OW36692  13.428   4.157   9.712 -0.5672  0.3784 -0.1017
39567SOL    HW136693  13.424   4.245   9.674  1.2159  0.3124 -0.5444
39567SOL    HW236694  13.520   4.132   9.704 -0.9402 -1.3197  0.5154
39568SOL     OW36695  11.741   8.881   5.901 -0.1999  0.2828  0.3326
39568SOL    HW136696  11.741   8.792   5.868 -1.3226  0.5652 -0.5059
39568SOL    HW236697  11.812   8.884   5.965 -0.5399 -1.3594  0.8162
39569SOL     OW36698   7.701   7.905  11.530 -0.7472  0.3452  1.0375
39569SOL    HW136699   7.615   7.901  11.489  0.0530 -1.9244 -0.6043
39569SOL    HW236700   7.763   7.892  11.458  0.8474 -0.9980  2.5599
39570SOL     OW36701  13.721   9.822   8.018  0.7075  0.6429  0.2672
39570SOL    HW136702  13.682   9.737   8.039 -1.0029  0.9395 -1.3514
39570SOL    HW236703  13.685   9.881   8.083 -2.0790  0.9803 -1.3928
39571SOL     OW36704   5.253   3.506   9.457 -0.4365 -0.4148 -0.2821
39571SOL    HW136705   5.262   3.489   9.551  0.7656 -0.3559 -0.3686
39571SOL    HW236706   5.286   3.596   9.447  1.7465 -1.2486 -1.0788
39572SOL     OW36707   2.105   1.074   6.335  0.4867 -0.3377 -0.5729
39572SOL    HW136708   2.174   1.097   6.398  1.0608 -1.5558 -0.7423
39572SOL    HW236709   2.067   1.158   6.311  0.7431  0.2181  0.8476
39573SOL     OW36710   6.455   0.198   0.270 -0.3265 -0.6550 -0.4515
39573SOL    HW136711   6.386   0.151   0.222 -0.1823 -0.3725 -0.9412
39573SOL    HW236712   6.536   0.153   0.245 -0.2780 -0.6725 -0.2643
39574SOL     OW36713   7.131   2.415  14.014  0.7388 -0.3267 -0.1766
39574SOL    HW136714   7.147   2.339  14.070  1.5133 -0.0831 -0.0458
39574SOL    HW236715   7.099   2.378  13.932  2.6654 -0.9580 -0.7061
39575SOL     OW36716   9.486   6.473   8.232 -0.4048 -0.1517 -0.1163
39575SOL    HW136717   9.403   6.429   8.217 -0.7090 -0.2905  1.7411
39575SOL    HW236718   9.517   6.496   8.145 -2.4141 -0.0286 -0.8487
39576SOL     OW36719   7.114   4.718   3.686 -0.0611  0.4194 -0.1271
39576SOL    HW136720   7.177   4.775   3.728  0.1295 -0.0172  0.1897
39576SOL    HW236721   7.095   4.651   3.751  1.2399 -1.0480 -1.1632
39577SOL     OW36722   0.325  13.100   6.644  0.3687  0.3721 -0.2133
39577SOL    HW136723   0.240  13.138   6.667 -0.0581  0.0639 -1.2587
39577SOL    HW236724   0.312  13.062   6.558  1.3603 -0.3640 -0.0541
39578SOL     OW36725   5.458  12.871   1.522 -0.1788 -0.0523  0.4172
39578SOL    HW136726   5.527  12.806   1.531 -0.6136 -0.6230 -0.2691
39578SOL    HW236727   5.390  12.843   1.584 -0.3775 -0.2694  0.1026
39579SOL     OW36728   8.315   0.332   8.186 -0.4400 -0.0709  0.7455
39579SOL    HW136729   8.368   0.393   8.237  0.0914 -1.2266  1.6082
39579SOL    HW236730   8.267   0.281   8.251 -2.3624  0.6701  0.0014
39580SOL     OW36731   6.342  11.701   0.715  0.2191  0.4293  0.1331
39580SOL    HW136732   6.248  11.707   0.702  0.2375 -0.3929 -0.3989
39580SOL    HW236733   6.379  11.760   0.650  0.0566  1.3238  0.8282
39581SOL     OW36734   7.972   2.493   4.010 -0.2624  0.4156 -0.1032
39581SOL    HW136735   7.906   2.466   3.946 -1.2388  1.9308  0.2206
39581SOL    HW236736   7.949   2.446   4.090 -0.1209 -0.1013 -0.3629
39582SOL     OW36737   6.023   5.955  12.303 -0.3283 -0.0253 -0.1318
39582SOL    HW136738   5.969   6.034  12.292  1.5347  1.0552 -2.0581
39582SOL    HW236739   6.078   5.975  12.379  0.8784  1.0249 -1.2470
39583SOL     OW36740  11.733   3.464   4.301 -0.0584  0.4302 -0.3732
39583SOL    HW136741  11.786   3.460   4.381 -0.8504  0.5404  0.1767
39583SOL    HW236742  11.659   3.406   4.320 -0.2453  0.4509 -1.0373
39584SOL     OW36743  11.813   4.417   7.133  0.4763  0.5288 -0.6237
39584SOL    HW136744  11.755   4.359   7.083  0.9882 -1.0522  0.5298
39584SOL    HW236745  11.771   4.503   7.127 -1.1774 -0.2586 -1.0831
39585SOL     OW36746   7.725   6.692   0.019  0.7232  0.0010  0.0372
39585SOL    HW136747   7.752   6.775   0.058 -0.0199  0.0797  0.4040
39585SOL    HW236748   7.770   6.690  -0.065  1.0856  0.5788  0.2080
39586SOL     OW36749   0.471  13.264   6.296 -0.2842  0.4244 -0.5051
39586SOL    HW136750   0.479  13.169   6.291  1.7954  0.6254 -3.6961
39586SOL    HW236751   0.407  13.287   6.228  1.1119  1.4012 -1.5498
39587SOL     OW36752   6.598  12.563  12.333 -0.9287 -0.2615 -0.0912
39587SOL    HW136753   6.526  12.625  12.329 -1.3067 -0.7454 -2.5961
39587SOL    HW236754   6.561  12.481  12.301  0.4846 -0.7735 -0.4874
39588SOL     OW36755   2.159   1.012  12.000  0.9108 -0.2419 -0.1600
39588SOL    HW136756   2.178   1.078  11.933 -0.1029  1.2386  0.9698
39588SOL    HW236757   2.090   0.958  11.961  2.3648 -1.2683 -1.4478
39589SOL     OW36758   2.283   6.361   6.196  0.1451  0.2670  0.4855
39589SOL    HW136759   2.336   6.323   6.127  1.5988  1.3647  0.9419
39589SOL    HW236760   2.344   6.416   6.246 -1.1942  0.7323  1.6904
39590SOL     OW36761   3.970  13.111   5.473 -0.2441  0.8543  0.6878
39590SOL    HW136762   4.033  13.175   5.507  0.1844  1.2639 -0.8079
39590SOL    HW236763   3.889  13.131   5.518 -0.4794  3.3828 -0.6965
39591SOL     OW36764   3.292  10.605   8.508  0.3285  0.0127 -0.1859
39591SOL    HW136765   3.360  10.585   8.572  0.0153 -1.8580 -0.4065
39591SOL    HW236766   3.339  10.634   8.430  0.8747 -1.1853 -0.3120
39592SOL     OW36767   2.843  11.474  12.883  0.3060 -0.3825 -0.5269
39592SOL    HW136768   2.837  11.421  12.962 -0.0134  0.0745 -0.2434
39592SOL    HW236769   2.839  11.411  12.811  0.0244 -0.7501 -0.1894
39593SOL     OW36770  10.128   2.276   8.737 -0.4997 -0.4515 -0.3740
39593SOL    HW136771  10.200   2.292   8.798 -1.1934 -0.3037  0.4271
39593SOL    HW236772  10.108   2.361   8.699 -0.8948 -0.2982  0.1537
39594SOL     OW36773   0.702   9.370   3.322  0.1273 -0.3923  0.1245
39594SOL    HW136774   0.642   9.369   3.247 -0.1519 -0.6881  0.3490
39594SOL    HW236775   0.719   9.278   3.340 -0.4215 -0.3586  0.9070
39595SOL     OW36776   1.784  14.154  13.643 -1.0997 -0.3750 -0.4531
39595SOL    HW136777   1.879  14.151  13.649 -0.8035  3.3117 -0.5209
39595SOL    HW236778   1.761  14.240  13.680 -4.1638 -0.2027 -2.3985
39596SOL     OW36779  13.978   0.862   0.773 -0.8268  0.3423  0.1757
39596SOL    HW136780  14.027   0.810   0.710 -1.7293  0.6870 -0.8351
39596SOL    HW236781  13.894   0.816   0.783 -0.4318 -0.1176  1.7066
39597SOL     OW36782   0.246   9.890   9.114  0.0239 -0.6193 -0.0704
39597SOL    HW136783   0.170   9.837   9.090 -0.2752 -0.0372 -0.4196
39597SOL    HW236784   0.316   9.826   9.128 -0.5590 -1.1704  0.3834
39598SOL     OW36785  10.381  11.673   1.198 -0.1432 -0.2829  0.0854
39598SOL    HW136786  10.352  11.664   1.289  0.4508 -0.0854  0.2985
39598SOL    HW236787  10.391  11.767   1.185  0.1089 -0.3319 -0.0796
39599SOL     OW36788   9.891   4.009   3.604 -0.3412 -0.3235 -0.1607
39599SOL    HW136789   9.921   4.052   3.684  1.4163  0.7008 -1.2896
39599SOL    HW236790   9.925   3.920   3.610  0.5059 -0.0067 -0.1213
39600SOL     OW36791  11.115   8.645   0.892 -1.0682 -0.2027  0.0282
39600SOL    HW136792  11.125   8.739   0.907 -0.1530 -0.1193 -0.9467
39600SOL    HW236793  11.080   8.611   0.974 -2.2060  1.1013  0.1259
39601SOL     OW36794   3.132   0.196  10.323 -0.0794 -0.5445 -0.2751
39601SOL    HW136795   3.060   0.201  10.385  0.2194 -0.6475  0.0884
39601SOL    HW236796   3.101   0.140  10.253  0.4788 -2.5757  1.0247
39602SOL     OW36797   4.264   1.650   3.199  0.0328 -0.0125 -0.2792
39602SOL    HW136798   4.314   1.647   3.281  1.7321 -1.9102 -1.2923
39602SOL    HW236799   4.233   1.740   3.194  2.7034  1.0894  0.8456
39603SOL     OW36800   7.920   1.341  12.701 -0.4173  0.6673 -0.8121
39603SOL    HW136801   7.977   1.389  12.641  0.0912  1.4802  0.2701
39603SOL    HW236802   7.964   1.258  12.715  0.3939  1.1790 -0.2048
39604SOL     OW36803   3.755   4.242   2.566 -0.0678  0.2427  0.2003
39604SOL    HW136804   3.842   4.208   2.587  0.4741 -0.2704 -2.5170
39604SOL    HW236805   3.707   4.166   2.535 -1.0701  0.7723  0.4351
39605SOL     OW36806   5.596   2.910   7.635  0.6001 -0.6096 -0.0619
39605SOL    HW136807   5.677   2.882   7.591  1.6258  0.6127  0.9652
39605SOL    HW236808   5.568   2.986   7.585  0.9331 -0.1303  0.4666
39606SOL     OW36809   9.449   2.720  13.367  0.8000 -0.3752 -0.8790
39606SOL    HW136810   9.501   2.676  13.300  2.1635 -0.4626  0.1897
39606SOL    HW236811   9.513   2.772  13.416 -0.6324  2.2335 -1.6122
39607SOL     OW36812   4.203   0.699   2.191  0.1385 -0.2778  0.0687
39607SOL    HW136813   4.176   0.790   2.203  1.0354  0.1266 -0.8239
39607SOL    HW236814   4.122   0.651   2.176 -0.1339  1.0463 -3.4837
39608SOL     OW36815  13.528  12.356   8.611  0.2178  0.4771  0.0991
39608SOL    HW136816  13.607  12.302   8.612  0.6391  1.0497 -0.8361
39608SOL    HW236817  13.506  12.368   8.703  1.0035  0.0019  0.3625
39609SOL     OW36818   7.647   8.952  14.068  0.2798  0.0820  0.0250
39609SOL    HW136819   7.728   8.983  14.027  0.2630  1.9945  1.3209
39609SOL    HW236820   7.590   9.029  14.069 -0.9497 -0.8157  0.6249
39610SOL     OW36821   0.541  11.906   5.683 -0.2694  0.2470  0.3805
39610SOL    HW136822   0.553  11.890   5.589 -0.4502 -0.7064  0.5080
39610SOL    HW236823   0.463  11.962   5.688  0.6470  1.6354 -0.1090
39611SOL     OW36824  12.896  13.670   2.341 -0.0843 -0.0122 -0.3158
39611SOL    HW136825  12.990  13.685   2.347  0.0826 -1.1843  0.4507
39611SOL    HW236826  12.857  13.749   2.379  0.6118  0.1814  0.0190
39612SOL     OW36827   0.475   0.353   1.409 -0.0235 -0.2341 -0.3365
39612SOL    HW136828   0.390   0.391   1.389 -0.1425 -0.7026 -0.7380
39612SOL    HW236829   0.534   0.428   1.414 -0.8875  0.3377  2.3852
39613SOL     OW36830  13.914   1.671   9.152  0.5642  0.4542 -0.5090
39613SOL    HW136831  13.964   1.624   9.219  1.2114 -1.8809 -2.4995
39613SOL    HW236832  13.824   1.669   9.185  0.7705 -1.1992  0.0568
39614SOL     OW36833   6.228   8.146   7.493 -0.1245 -0.3219 -0.4343
39614SOL    HW136834   6.185   8.095   7.425  0.2112  0.0274 -0.9179
39614SOL    HW236835   6.166   8.146   7.567 -0.8762  0.0301 -1.0500
39615SOL     OW36836  10.604   3.667  12.138  0.3203  0.1193 -0.1281
39615SOL    HW136837  10.537   3.624  12.191  1.9925  0.3957  2.3593
39615SOL    HW236838  10.665   3.598  12.115  0.0795  0.1778 -1.0045
39616SOL     OW36839   1.005   6.202  13.217 -0.2197 -0.4689 -0.7344
39616SOL    HW136840   1.075   6.219  13.280  0.5816 -2.2721 -1.0559
39616SOL    HW236841   0.928   6.186  13.271 -0.3718  1.2858 -0.3669
39617SOL     OW36842  12.716  14.089  11.116 -0.0222 -0.6566  0.1848
39617SOL    HW136843  12.766  14.157  11.071  1.3934 -2.6362 -1.3979
39617SOL    HW236844  12.764  14.073  11.197  0.1668 -0.4258  0.1192
39618SOL     OW36845   3.631  10.007   1.714 -0.2073  0.3996  0.0177
39618SOL    HW136846   3.706   9.959   1.751  0.2554 -0.1662 -1.5863
39618SOL    HW236847   3.556   9.952   1.733  0.0724 -0.0552 -0.1779
39619SOL     OW36848  10.362   1.596   8.662 -0.1592  0.0057 -0.1654
39619SOL    HW136849  10.292   1.627   8.720 -0.1631 -0.9493  0.3540
39619SOL    HW236850  10.318   1.538   8.601 -0.1379  0.9377 -1.0913
39620SOL     OW36851   8.330   0.264   3.863  0.2623 -0.5764 -0.8829
39620SOL    HW136852   8.370   0.222   3.787  2.6906 -1.3768  0.7052
39620SOL    HW236853   8.399   0.263   3.930 -1.7341  0.1246  1.3262
39621SOL     OW36854  11.135   4.312   6.318  0.1833 -0.1876  0.0137
39621SOL    HW136855  11.067   4.269   6.369 -0.1457  0.0028 -0.2587
39621SOL    HW236856  11.090   4.384   6.274  1.3342  2.7443  3.2153
39622SOL     OW36857   9.721   0.264   7.652 -0.0728  0.2409 -0.1026
39622SOL    HW136858   9.799   0.311   7.681  0.0605 -0.2949  0.4373
39622SOL    HW236859   9.733   0.175   7.686 -1.2842  0.3435  0.6543
39623SOL     OW36860  10.817  12.364   5.257 -0.0388 -0.6995 -0.5466
39623SOL    HW136861  10.900  12.399   5.288  0.6700 -1.3689 -1.5972
39623SOL    HW236862  10.803  12.284   5.308 -0.4507 -0.1564  0.1938
39624SOL     OW36863  13.226  13.600  11.239 -0.4446 -0.0555  0.4082
39624SOL    HW136864  13.291  13.653  11.285 -0.4643  2.9156 -2.6400
39624SOL    HW236865  13.152  13.659  11.226 -1.7292 -1.7834 -0.5732
39625SOL     OW36866   1.206  10.085  13.997 -0.0574 -0.2662  0.1764
39625SOL    HW136867   1.203  10.175  13.965  0.6629 -0.6289 -0.9193
39625SOL    HW236868   1.280  10.084  14.058  0.3092 -0.2588 -0.2643
39626SOL     OW36869   5.491  13.683   1.611  0.1251 -0.4819 -0.1113
39626SOL    HW136870   5.478  13.606   1.554 -0.3703  0.9382 -2.0299
39626SOL    HW236871   5.563  13.731   1.570  0.5998 -0.0469  1.2113
39627SOL     OW36872   1.543   8.043   4.747 -0.5119  0.5525  0.2443
39627SOL    HW136873   1.495   8.110   4.698 -0.5351  0.9904  0.8517
39627SOL    HW236874   1.631   8.079   4.757 -0.4124  0.3132  0.2253
39628SOL     OW36875   0.866   7.592   7.723 -0.4028  0.2063 -0.1640
39628SOL    HW136876   0.951   7.591   7.766 -0.4495 -0.6853 -0.0839
39628SOL    HW236877   0.886   7.601   7.630 -0.2294  0.2536 -0.1222
39629SOL     OW36878  10.556   2.197   6.511 -0.1989  0.1662  0.4807
39629SOL    HW136879  10.631   2.140   6.497  0.3956  0.7201  1.2924
39629SOL    HW236880  10.536   2.233   6.424  0.3651 -0.1146  0.2318
39630SOL     OW36881   8.124  10.277   4.875 -0.1286  0.0433  0.3881
39630SOL    HW136882   8.148  10.368   4.893 -1.3729  0.1325  1.8066
39630SOL    HW236883   8.042  10.264   4.922 -1.2214 -1.1465 -1.6597
39631SOL     OW36884   2.534  11.645  12.554 -0.0918 -0.4464 -0.3888
39631SOL    HW136885   2.579  11.562  12.537 -0.5502 -0.9660  0.7907
39631SOL    HW236886   2.480  11.627  12.632 -2.7248 -0.0120 -1.9894
39632SOL     OW36887  12.913  10.411   1.612 -0.3560  0.4209  0.3827
39632SOL    HW136888  12.918  10.492   1.561  0.8947  0.4725  0.5489
39632SOL    HW236889  12.820  10.389   1.613 -0.5536  1.0609 -0.9101
39633SOL     OW36890   9.709   8.871  11.725  0.1302  0.0559  0.2348
39633SOL    HW136891   9.706   8.874  11.820 -0.3873 -1.3154  0.2871
39633SOL    HW236892   9.649   8.939  11.696  0.1924  0.3919  0.8827
39634SOL     OW36893   8.302   9.045   2.084 -0.5205 -0.1674  0.1981
39634SOL    HW136894   8.273   9.074   2.171  0.4390 -1.8866  1.1500
39634SOL    HW236895   8.261   8.959   2.073  0.6976 -0.7072 -0.2997
39635SOL     OW36896  12.019  10.874   1.146 -0.0282 -0.1284 -0.0603
39635SOL    HW136897  11.977  10.936   1.206 -1.1322 -0.1516 -0.7822
39635SOL    HW236898  12.070  10.929   1.087  1.2424 -0.1190  1.0060
39636SOL     OW36899   1.250   7.104   4.102  0.1674  0.3190  0.3912
39636SOL    HW136900   1.251   7.104   4.197  0.4610 -1.9659  0.4351
39636SOL    HW236901   1.341   7.094   4.076  0.1907  1.7603 -0.1848
39637SOL     OW36902   6.422   9.203   5.870  0.0531  0.3686 -0.1883
39637SOL    HW136903   6.337   9.246   5.860 -1.1805 -1.9273 -0.3326
39637SOL    HW236904   6.450   9.224   5.959 -0.0108  2.1902 -0.5600
39638SOL     OW36905   6.409   9.773  11.333  0.0296  0.1482  0.4816
39638SOL    HW136906   6.464   9.745  11.259  0.2290 -2.2105  1.4492
39638SOL    HW236907   6.320   9.767  11.299  0.1987  0.8449 -0.1105
39639SOL     OW36908   5.719   1.551   1.407 -0.1369 -0.1054  0.3348
39639SOL    HW136909   5.673   1.483   1.356  1.2679 -0.7816 -0.0788
39639SOL    HW236910   5.758   1.607   1.340 -1.0355  0.9608  0.6821
39640SOL     OW36911  10.029  12.487  12.610 -0.2923 -0.4052  0.6100
39640SOL    HW136912  10.018  12.566  12.556 -0.7586 -1.3474 -0.7078
39640SOL    HW236913  10.052  12.521  12.696  0.1670  1.1630 -0.0856
39641SOL     OW36914   1.591  12.697   5.692 -0.0366  0.5964  0.5386
39641SOL    HW136915   1.609  12.741   5.775 -1.1927  3.1638 -0.4511
39641SOL    HW236916   1.496  12.704   5.681  0.2575  2.2986 -1.8956
39642SOL     OW36917   2.067  14.024   2.774  0.0398 -0.3917 -0.6297
39642SOL    HW136918   2.136  13.964   2.748  0.5172 -0.0054 -0.2793
39642SOL    HW236919   2.000  14.014   2.706  0.4578 -0.7369 -1.0000
39643SOL     OW36920   9.290   5.971   4.757  0.0820  0.0310 -0.2482
39643SOL    HW136921   9.346   5.922   4.697 -1.7308 -0.8740 -1.2949
39643SOL    HW236922   9.350   6.012   4.819  1.7766 -2.3180 -0.2227
39644SOL     OW36923   8.735  11.696   6.332 -0.0698 -0.3268  0.5079
39644SOL    HW136924   8.692  11.693   6.417 -0.5076 -1.2977  0.2689
39644SOL    HW236925   8.667  11.669   6.270 -0.2581  1.9351 -0.3843
39645SOL     OW36926   0.557   6.243   4.041 -0.2514 -0.0134  0.6145
39645SOL    HW136927   0.625   6.305   4.068  1.0411 -1.1481  0.0666
39645SOL    HW236928   0.559   6.244   3.945 -1.5286  0.4606  0.5632
39646SOL     OW36929   1.072   5.514   0.954  0.0673 -0.1927 -0.4630
39646SOL    HW136930   1.004   5.476   1.009 -0.9665  0.2315 -1.4289
39646SOL    HW236931   1.038   5.599   0.928  0.6313 -0.2980 -1.5792
39647SOL     OW36932  11.677  11.481   6.323 -0.0666 -0.2533  0.7815
39647SOL    HW136933  11.759  11.454   6.364  0.3365  0.5636  0.5216
39647SOL    HW236934  11.624  11.401   6.322  1.0563 -1.0303  0.1342
39648SOL     OW36935   5.691   9.245  13.493 -0.7650  0.0568 -0.1941
39648SOL    HW136936   5.610   9.245  13.544 -1.0959 -1.2262 -0.6880
39648SOL    HW236937   5.726   9.157  13.503  1.2846  0.9391  1.0647
39649SOL     OW36938   6.947   7.369   2.048 -0.1383 -0.7514  0.3604
39649SOL    HW136939   6.916   7.460   2.055 -0.9223 -0.8963 -0.8767
39649SOL    HW236940   6.947   7.337   2.138  2.2712  1.1187  1.1312
39650SOL     OW36941   5.343  13.471   0.535  0.0138 -0.4420 -0.7162
39650SOL    HW136942   5.298  13.485   0.618 -0.5407  1.0360 -1.2430
39650SOL    HW236943   5.278  13.489   0.468  0.9810  0.3169 -1.4849
39651SOL     OW36944   0.534   6.428   4.289 -0.2571 -0.4247  0.4231
39651SOL    HW136945   0.610   6.409   4.232  0.3421 -1.6819  1.5767
39651SOL    HW236946   0.467   6.366   4.260 -0.1612 -0.6473  0.6705
39652SOL     OW36947   9.017   7.532   0.055  0.0636  0.1667 -0.7356
39652SOL    HW136948   9.057   7.446   0.068  1.6707  1.0125  0.1434
39652SOL    HW236949   8.951   7.539   0.124 -0.4410 -0.5601 -1.1364
39653SOL     OW36950   4.532   0.236   5.963  0.3148  0.1069  0.0520
39653SOL    HW136951   4.586   0.311   5.984  2.0669 -0.7209 -1.1973
39653SOL    HW236952   4.585   0.160   5.988  0.1911 -0.7554 -2.0565
39654SOL     OW36953   3.911   5.948   9.350 -0.5023  0.7019 -0.2365
39654SOL    HW136954   3.945   5.942   9.260  0.9326 -0.9724  0.3675
39654SOL    HW236955   3.982   5.989   9.400 -0.5292 -0.0969  0.4774
39655SOL     OW36956   2.123   1.571   2.299  0.8939 -0.4458  0.6511
39655SOL    HW136957   2.090   1.482   2.313 -0.6372  0.2643  1.7338
39655SOL    HW236958   2.145   1.603   2.386  0.1664  0.7157  0.4276
39656SOL     OW36959   7.187   9.696  10.133 -0.2736 -0.1685 -0.4667
39656SOL    HW136960   7.113   9.709  10.074  0.3813 -0.1802 -1.2928
39656SOL    HW236961   7.180   9.604  10.159  0.1187 -0.4832 -1.4604
39657SOL     OW36962  11.093   9.076  12.737  0.3218  0.7605  0.5232
39657SOL    HW136963  11.075   8.982  12.741 -1.8808  1.1587  1.8993
39657SOL    HW236964  11.146   9.087  12.658 -0.0505 -1.5214 -0.1304
39658SOL     OW36965   2.189  10.995   4.707 -0.1070 -0.4725 -0.1906
39658SOL    HW136966   2.183  10.953   4.621 -0.3685  1.8937 -1.4189
39658SOL    HW236967   2.281  10.988   4.731 -0.3012 -2.5058  0.1133
39659SOL     OW36968   8.888  10.352   5.810 -0.3835  0.2696 -0.1373
39659SOL    HW136969   8.802  10.344   5.770 -1.3722 -1.4709  2.0897
39659SOL    HW236970   8.899  10.446   5.825 -2.4112  0.4516  0.5208
39660SOL     OW36971   7.059   7.553  11.344 -0.0851 -0.4541 -0.1589
39660SOL    HW136972   7.136   7.516  11.300  1.5290  1.3571  1.0046
39660SOL    HW236973   7.026   7.482  11.399 -0.2765 -1.7591 -1.8662
39661SOL     OW36974  13.224  13.894   9.856 -0.2329  0.2521 -0.3490
39661SOL    HW136975  13.152  13.899   9.919 -0.7195 -2.5761 -0.5544
39661SOL    HW236976  13.183  13.915   9.771 -0.6661 -0.6053 -0.3593
39662SOL     OW36977  11.480   0.018  10.594  0.8734  0.2117 -0.1148
39662SOL    HW136978  11.432  -0.063  10.611  0.4766  0.3222 -0.6848
39662SOL    HW236979  11.415   0.076  10.554  1.7818 -0.1008 -2.1818
39663SOL     OW36980   9.819   8.449   0.760 -0.3629 -0.0141  0.4967
39663SOL    HW136981   9.766   8.497   0.697  0.2256 -1.8812 -1.5449
39663SOL    HW236982   9.884   8.512   0.791  1.4252  0.2566 -3.2863
39664SOL     OW36983  13.483   0.172   3.392  0.3558  0.0433 -0.0123
39664SOL    HW136984  13.427   0.226   3.447 -0.3744 -1.1320  0.4367
39664SOL    HW236985  13.562   0.224   3.380 -1.5351  2.6784 -2.3556
39665SOL     OW36986   9.751   8.416  13.016 -0.2076 -0.3668  0.0175
39665SOL    HW136987   9.686   8.385  12.952 -0.2976  0.8841 -0.5264
39665SOL    HW236988   9.835   8.396  12.976 -0.2593  1.0320 -0.8328
39666SOL     OW36989   3.843  10.111   4.972  0.0093  0.1506  0.0136
39666SOL    HW136990   3.829  10.016   4.974  1.1745 -0.0242  1.9623
39666SOL    HW236991   3.927  10.125   5.016 -0.8632  2.1946  1.1976
39667SOL     OW36992  10.892   6.776   9.967 -0.0092 -0.6972 -0.3924
39667SOL    HW136993  10.854   6.756   9.881 -0.3686 -0.6978 -0.2344
39667SOL    HW236994  10.833   6.734  10.029 -1.8639  2.3014  0.0748
39668SOL     OW36995   5.382   9.635   5.293  0.0504 -0.5163  0.1161
39668SOL    HW136996   5.401   9.659   5.384 -0.3046  1.1312 -0.2064
39668SOL    HW236997   5.447   9.684   5.242 -0.6346 -0.3430 -0.5949
39669SOL     OW36998  12.623  12.553   2.552  0.0323  0.2412  0.2957
39669SOL    HW136999  12.554  12.495   2.587 -1.1726  0.4550 -1.5849
39669SOL    HW237000  12.578  12.636   2.537  0.9018  0.6207 -0.2352
39670SOL     OW37001   9.475   9.046  11.616 -0.3542 -0.0287 -0.1648
39670SOL    HW137002   9.403   8.995  11.655  0.1159 -0.3089  0.3653
39670SOL    HW237003   9.478   9.126  11.668  0.9498 -0.8494  1.1276
39671SOL     OW37004  10.806  10.971   4.584 -0.0035  0.0473  0.3376
39671SOL    HW137005  10.838  10.947   4.498 -1.5739 -2.2289  0.2943
39671SOL    HW237006  10.717  11.003   4.569  0.8769  3.0705  0.8031
39672SOL     OW37007   3.263   2.541   0.140  0.0765  0.0034 -0.1783
39672SOL    HW137008   3.213   2.507   0.214 -0.5290 -1.3418 -1.1575
39672SOL    HW237009   3.201   2.541   0.067  1.3199 -1.0943 -1.2797
39673SOL     OW37010   3.988  10.467  11.849 -0.1082  0.2985  0.0189
39673SOL    HW137011   3.986  10.413  11.928  0.9932  0.6150  0.2843
39673SOL    HW237012   3.957  10.553  11.877 -0.8015  0.1183 -0.1614
39674SOL     OW37013   4.515  13.721   4.344  0.5657 -0.2163  0.0030
39674SOL    HW137014   4.505  13.806   4.302  0.8885  0.5912  1.4725
39674SOL    HW237015   4.598  13.728   4.392  0.2227 -1.0828  0.7435
39675SOL     OW37016   5.690   5.413  12.877  0.7669  0.2921 -0.6566
39675SOL    HW137017   5.737   5.387  12.798 -0.4522  2.0655 -2.0419
39675SOL    HW237018   5.739   5.487  12.911 -0.7281  1.9565 -1.9396
39676SOL     OW37019  11.058  10.370   9.715  0.5636  0.0457 -0.9890
39676SOL    HW137020  11.121  10.325   9.771  0.1653  0.0848 -0.5009
39676SOL    HW237021  11.101  10.374   9.630  0.8361 -0.7685 -0.9058
39677SOL     OW37022   8.654   2.515  11.590 -0.0159  0.0764  0.1686
39677SOL    HW137023   8.733   2.528  11.538  1.4480 -0.4233  2.1410
39677SOL    HW237024   8.637   2.601  11.629  0.2914 -0.1070  0.7136
39678SOL     OW37025  10.673   9.956   4.486 -0.1784  0.2587  0.3896
39678SOL    HW137026  10.756   9.927   4.449 -1.3942 -1.0124 -1.5846
39678SOL    HW237027  10.642  10.024   4.425 -0.8424  0.2951  0.7529
39679SOL     OW37028  12.523   3.307  13.065 -0.3858 -0.3986  0.1354
39679SOL    HW137029  12.433   3.324  13.037 -0.1433  0.5542 -0.1002
39679SOL    HW237030  12.569   3.283  12.984 -0.6476 -1.9944  0.4126
39680SOL     OW37031  10.159   4.101   8.517  0.4157  0.0761 -0.3146
39680SOL    HW137032  10.201   4.016   8.528  3.2239  1.5340  1.2924
39680SOL    HW237033  10.185   4.130   8.429  1.1218  0.0979 -0.1022
39681SOL     OW37034  14.132   2.337   7.073 -0.1255  0.1159 -0.3931
39681SOL    HW137035  14.079   2.271   7.118 -2.6604  2.5436  0.4869
39681SOL    HW237036  14.212   2.341   7.125 -0.7109 -0.9390  0.6746
39682SOL     OW37037   1.792   4.144   0.292 -0.5683 -0.4479 -0.2799
39682SOL    HW137038   1.856   4.116   0.358  0.4187  1.6882 -0.2362
39682SOL    HW237039   1.713   4.162   0.343 -1.1072 -2.6198 -0.2658
39683SOL     OW37040   2.074   4.400   3.772  0.6168 -0.6790  0.1859
39683SOL    HW137041   2.126   4.419   3.849 -1.1289  0.5753  1.1139
39683SOL    HW237042   2.089   4.306   3.755  0.1906 -1.2510  2.6957
39684SOL     OW37043   2.767   7.278   7.550  0.1747 -0.7713  0.1226
39684SOL    HW137044   2.747   7.364   7.514  1.7474 -0.5272 -0.2532
39684SOL    HW237045   2.692   7.224   7.526  0.2298 -0.0929 -1.7577
39685SOL     OW37046   8.171   9.147   5.977 -0.0860 -0.6293  0.4278
39685SOL    HW137047   8.263   9.138   5.953 -0.1579 -0.8347  0.2282
39685SOL    HW237048   8.171   9.214   6.046 -0.0311  1.1407 -1.2043
39686SOL     OW37049   9.028   5.553   9.905 -0.7292 -0.0013 -0.0470
39686SOL    HW137050   9.057   5.510   9.986  0.4912 -2.1496 -1.5319
39686SOL    HW237051   8.951   5.503   9.878  0.1709 -0.7417 -1.3279
39687SOL     OW37052  13.246  13.268   5.439 -0.4555 -0.1862 -0.2511
39687SOL    HW137053  13.221  13.184   5.477 -0.3688 -1.0818 -2.0756
39687SOL    HW237054  13.341  13.263   5.429 -0.2208  0.8144  1.1192
39688SOL     OW37055   9.455   1.984  12.249  0.9280  0.4523  0.3109
39688SOL    HW137056   9.409   1.938  12.178  1.6846  0.2318 -0.0569
39688SOL    HW237057   9.543   1.999  12.214  1.1919  0.6982  1.0595
39689SOL     OW37058  13.255  13.657  11.553 -0.0909 -0.4236  0.1769
39689SOL    HW137059  13.258  13.564  11.530 -0.7411 -0.0607 -1.5345
39689SOL    HW237060  13.213  13.659  11.639 -2.2232 -1.5909 -0.7695
39690SOL     OW37061  11.604   1.196  10.871 -0.1952 -0.0393 -0.2765
39690SOL    HW137062  11.591   1.117  10.818 -1.0447 -1.7928  2.3219
39690SOL    HW237063  11.698   1.198  10.887 -0.1731 -0.6098 -0.2837
39691SOL     OW37064   3.805  12.904   5.639 -0.3012 -0.1548  0.2397
39691SOL    HW137065   3.792  12.831   5.699 -0.2707 -0.2317  0.1530
39691SOL    HW237066   3.832  12.863   5.557 -0.8764 -0.0859  0.0169
39692SOL     OW37067   8.860   6.445   5.278 -0.3036  0.2139  0.4403
39692SOL    HW137068   8.944   6.402   5.291  0.8594  2.4880  1.0992
39692SOL    HW237069   8.845   6.441   5.184 -0.2002 -1.4329  0.4618
39693SOL     OW37070   7.442  13.702   2.811  0.1205  0.5868  0.1973
39693SOL    HW137071   7.511  13.679   2.873 -0.1639 -0.9951 -0.0226
39693SOL    HW237072   7.376  13.746   2.864 -0.6705 -1.7886  1.3453
39694SOL     OW37073   7.911   2.690  12.173  0.0928  0.1150  0.2938
39694SOL    HW137074   7.852   2.739  12.116 -0.2171 -0.2241  0.3146
39694SOL    HW237075   7.897   2.727  12.260 -0.2634 -0.1138  0.3384
39695SOL     OW37076   3.855   0.953  10.237  0.5200  0.2146 -0.5491
39695SOL    HW137077   3.933   0.907  10.207  1.9434 -0.5828  3.5979
39695SOL    HW237078   3.885   1.043  10.253  0.4149  0.1050  0.3097
39696SOL     OW37079   5.764  14.004   4.392 -0.2946 -0.0694 -0.5196
39696SOL    HW137080   5.721  13.925   4.424  1.7799 -0.3978  1.7829
39696SOL    HW237081   5.810  13.976   4.313 -0.6405 -0.8325 -0.4582
39697SOL     OW37082   4.979  11.226   7.722 -0.4665  0.0061  0.0184
39697SOL    HW137083   4.889  11.249   7.746 -0.8431 -0.2661 -1.0920
39697SOL    HW237084   4.969  11.159   7.654  0.5535  1.0941 -1.2482
39698SOL     OW37085  13.993   4.424   5.101 -0.1957  0.4609 -0.2703
39698SOL    HW137086  13.936   4.487   5.146  1.7625  0.8463  1.8777
39698SOL    HW237087  14.025   4.472   5.024  1.5738  2.3941  1.5288
39699SOL     OW37088   5.024   4.082   9.924 -0.1206  0.0884  0.3635
39699SOL    HW137089   5.116   4.062   9.909 -0.1399 -0.7111  1.2128
39699SOL    HW237090   4.982   3.996   9.934 -1.1824  0.3717 -1.1436
39700SOL     OW37091   9.172  11.543   7.672 -0.1167 -0.1885  0.1698
39700SOL    HW137092   9.133  11.626   7.699 -1.5059 -0.7220 -0.0908
39700SOL    HW237093   9.128  11.522   7.589  0.6529 -0.8792 -0.0768
39701SOL     OW37094  10.272   7.193   8.192 -0.8828 -0.2413  0.0346
39701SOL    HW137095  10.327   7.171   8.117 -0.1090  2.0257 -0.1454
39701SOL    HW237096  10.254   7.286   8.182 -0.4693  0.2429  2.8248
39702SOL     OW37097  10.975   8.713   4.855  0.0185 -0.2643  0.7600
39702SOL    HW137098  10.959   8.770   4.930  1.2542  0.9354  0.1588
39702SOL    HW237099  11.063   8.679   4.869  0.9683  1.3075 -0.9036
39703SOL     OW37100  12.395   2.773  11.544 -0.0738 -0.1163 -0.3865
39703SOL    HW137101  12.387   2.679  11.560 -0.2112 -0.2364 -1.1197
39703SOL    HW237102  12.358   2.786  11.456 -2.9212  1.0782  0.8802
39704SOL     OW37103  11.976   9.129   7.701 -1.2390 -0.2033  0.6871
39704SOL    HW137104  11.954   9.222   7.699 -1.1863 -0.1937 -0.6175
39704SOL    HW237105  11.930   9.093   7.625  1.0573 -0.6917 -0.5610
39705SOL     OW37106   8.739   0.379   9.756  0.3170  0.3031 -0.5345
39705SOL    HW137107   8.795   0.340   9.689  2.1913  1.7408  0.1031
39705SOL    HW237108   8.728   0.470   9.727  1.1558  0.9422  1.0681
39706SOL     OW37109   1.852  14.007   1.303 -0.0197 -0.1251 -0.2012
39706SOL    HW137110   1.791  13.989   1.231  0.0970 -2.6298  0.2460
39706SOL    HW237111   1.932  14.037   1.260 -1.3240  2.7945 -0.8202
39707SOL     OW37112   0.631   9.152   5.358 -0.0902  0.0412  0.9926
39707SOL    HW137113   0.566   9.223   5.356  1.3904  1.4545 -0.8227
39707SOL    HW237114   0.709   9.193   5.395  0.4808 -0.9418  0.8823
39708SOL     OW37115   5.368   9.973   6.979  0.9181  0.2456 -0.1017
39708SOL    HW137116   5.452   9.996   6.939  1.2772 -0.4525  0.2254
39708SOL    HW237117   5.334   9.903   6.923  0.0893  1.1598 -0.7847
39709SOL     OW37118  10.120   0.330   4.737 -0.0188  0.3221 -0.2468
39709SOL    HW137119  10.116   0.407   4.794 -2.1961  0.2612 -0.2313
39709SOL    HW237120  10.094   0.363   4.651 -3.4372 -0.7004  0.2285
39710SOL     OW37121   5.477   1.557   1.658 -0.0892 -0.7966  0.3519
39710SOL    HW137122   5.484   1.494   1.587 -0.3906  0.0057 -0.4080
39710SOL    HW237123   5.553   1.615   1.646 -0.5489 -0.2141  0.2399
39711SOL     OW37124  12.787   3.444   2.541  0.0886  0.6455  0.6375
39711SOL    HW137125  12.815   3.422   2.630  0.5358  0.3801  0.4294
39711SOL    HW237126  12.865   3.432   2.487 -0.5339 -0.5902 -0.0293
39712SOL     OW37127   9.401   5.928   0.388  0.4018 -0.1673  0.2166
39712SOL    HW137128   9.458   5.927   0.464  0.5058 -3.0357  0.2045
39712SOL    HW237129   9.432   5.856   0.333 -1.2490  0.1915 -1.3151
39713SOL     OW37130   5.223   0.739   0.808 -0.2723 -0.5000 -0.5209
39713SOL    HW137131   5.317   0.726   0.820 -0.2491  0.4625  0.4995
39713SOL    HW237132   5.216   0.786   0.725  0.2835  0.8908  0.1971
39714SOL     OW37133   1.367   5.576   5.434  0.1912 -0.4024  0.0560
39714SOL    HW137134   1.412   5.653   5.468  0.7573 -0.3408 -0.7942
39714SOL    HW237135   1.309   5.549   5.505  0.0324  0.7578  0.3917
39715SOL     OW37136  13.187   0.689  11.350 -0.2653  0.0607  0.0579
39715SOL    HW137137  13.175   0.765  11.293 -2.4220  0.7690  1.3338
39715SOL    HW237138  13.166   0.722  11.438 -1.4097 -2.0226  0.6303
39716SOL     OW37139  10.713   4.092   3.210  0.0894 -0.0210  0.4030
39716SOL    HW137140  10.692   4.164   3.151  0.6540  0.2508  0.5202
39716SOL    HW237141  10.647   4.025   3.192  1.0509 -0.5157 -1.5422
39717SOL     OW37142   4.923   4.548   3.047  0.1772  0.4554 -0.3525
39717SOL    HW137143   4.833   4.547   3.081  0.6573  1.0933  0.9982
39717SOL    HW237144   4.969   4.609   3.103  1.7887 -0.8350 -0.2055
39718SOL     OW37145   7.834  13.838   4.127  0.2818  0.0086 -0.5670
39718SOL    HW137146   7.835  13.799   4.040  2.7029  0.0667 -0.6126
39718SOL    HW237147   7.916  13.812   4.167 -0.6132  0.2937  1.5988
39719SOL     OW37148  10.615  10.315  11.695  0.6566  0.8355 -0.0503
39719SOL    HW137149  10.534  10.355  11.665  0.9036 -0.1493 -2.2365
39719SOL    HW237150  10.684  10.362  11.648  1.2655  0.6958  0.6701
39720SOL     OW37151   1.709   4.020   3.967  0.0134  0.0141  0.2100
39720SOL    HW137152   1.667   3.934   3.960  2.4046 -1.1855 -0.7693
39720SOL    HW237153   1.699   4.044   4.059 -1.1248 -1.0749  0.3990
39721SOL     OW37154   4.235   8.539   9.304 -0.0968 -0.6752  0.3092
39721SOL    HW137155   4.304   8.543   9.239 -0.0420 -2.1789  0.2440
39721SOL    HW237156   4.281   8.531   9.388 -0.1535 -2.3845  0.2100
39722SOL     OW37157  10.359   8.451   0.384 -0.6650 -0.2743 -0.1149
39722SOL    HW137158  10.449   8.441   0.415 -0.5706  1.9121  0.4599
39722SOL    HW237159  10.307   8.459   0.463 -1.0179  0.9372 -0.4529
39723SOL     OW37160   5.439  11.796  11.018 -0.2278 -0.1376 -0.0112
39723SOL    HW137161   5.440  11.808  10.923 -0.2028 -2.7004 -0.4045
39723SOL    HW237162   5.347  11.792  11.041 -0.2518  1.4076  0.2503
39724SOL     OW37163  12.027   5.342  10.090  0.4867 -0.4418 -0.1009
39724SOL    HW137164  12.004   5.320  10.180  1.6583 -0.1185  0.2993
39724SOL    HW237165  12.026   5.438  10.088  0.0619 -0.4479 -0.5566
39725SOL     OW37166   4.550  10.895   9.366  0.0600 -0.3166 -0.1120
39725SOL    HW137167   4.508  10.843   9.434 -0.3428 -1.5561 -1.2456
39725SOL    HW237168   4.532  10.986   9.390 -1.2986 -0.7601  0.6575
39726SOL     OW37169  10.534   1.937   5.864  0.4339 -0.1185  0.1884
39726SOL    HW137170  10.537   2.031   5.879 -1.5203 -0.2352  1.6210
39726SOL    HW237171  10.501   1.900   5.946 -0.5211 -1.8812 -0.9288
39727SOL     OW37172   8.832  13.755   3.088  0.1462 -0.1240  0.0143
39727SOL    HW137173   8.878  13.793   3.013 -0.6523 -0.4182 -0.6470
39727SOL    HW237174   8.796  13.831   3.134  0.4080  0.0446 -0.0526
39728SOL     OW37175  11.806   2.494  13.794  0.0902 -0.2065  0.2358
39728SOL    HW137176  11.716   2.498  13.826  0.1479 -1.8185  0.6747
39728SOL    HW237177  11.859   2.476  13.872  0.6531 -0.4878 -0.2041
39729SOL     OW37178  12.085   5.362   7.765 -0.2116  0.0740  0.0768
39729SOL    HW137179  12.167   5.327   7.800 -0.5794  0.2645  1.1591
39729SOL    HW237180  12.109   5.449   7.732 -0.1751  0.5938  1.4012
39730SOL     OW37181   3.150  10.706   6.282 -0.4731  0.6910 -0.2401
39730SOL    HW137182   3.085  10.640   6.259  1.0142 -0.5808 -0.9645
39730SOL    HW237183   3.198  10.669   6.356  0.0911  1.1640 -0.3593
39731SOL     OW37184   5.429   4.437  14.119 -0.1326 -0.4724  0.1987
39731SOL    HW137185   5.429   4.518  14.170  0.7874  1.1608 -2.2572
39731SOL    HW237186   5.345   4.436  14.074 -0.0351 -0.7807  0.0202
39732SOL     OW37187  13.849   0.617   8.232  0.1504 -0.0163  0.5125
39732SOL    HW137188  13.911   0.672   8.281  1.2907 -1.0986  0.3355
39732SOL    HW237189  13.834   0.665   8.151 -0.2348  0.8589  1.0868
39733SOL     OW37190   1.266   3.955  13.788  0.4233  0.2436  0.2376
39733SOL    HW137191   1.180   3.961  13.747  0.6934 -1.4101 -0.6772
39733SOL    HW237192   1.275   4.036  13.838 -1.5087  0.6070  0.0721
39734SOL     OW37193  10.892   0.169   6.430  0.0862 -0.0550 -0.3765
39734SOL    HW137194  10.875   0.104   6.362  1.9691 -0.1050 -0.8585
39734SOL    HW237195  10.853   0.132   6.510  1.1355 -1.8053 -0.6339
39735SOL     OW37196  12.673  14.072  12.106  0.2414 -0.3702 -0.2903
39735SOL    HW137197  12.618  14.144  12.077  0.2092 -1.3164 -2.8907
39735SOL    HW237198  12.658  14.003  12.041  1.8066 -1.9712  0.9411
39736SOL     OW37199   3.536   3.806   0.212 -0.2753 -0.2011  0.8069
39736SOL    HW137200   3.555   3.771   0.125  0.0767  0.4661  0.6041
39736SOL    HW237201   3.588   3.752   0.272  0.2679 -0.0332  0.5012
39737SOL     OW37202   4.443  11.429   0.619 -0.3729 -0.3673  0.3401
39737SOL    HW137203   4.474  11.507   0.663  1.3331 -1.3315  0.9459
39737SOL    HW237204   4.394  11.461   0.543 -2.3127  1.3093  2.1608
39738SOL     OW37205   1.223  13.682   5.679  0.0188  0.3893  0.3374
39738SOL    HW137206   1.306  13.730   5.669 -0.6213  1.5721  0.4509
39738SOL    HW237207   1.185  13.683   5.591 -0.9711  1.9877  0.7439
39739SOL     OW37208   4.319  13.033   8.109  0.0866  0.3996 -0.2041
39739SOL    HW137209   4.375  12.970   8.065  1.6565  1.2053  0.5747
39739SOL    HW237210   4.250  12.980   8.150  1.4598 -0.8382  0.5940
39740SOL     OW37211   7.806   5.689  13.989 -0.2591  0.3022 -0.4790
39740SOL    HW137212   7.794   5.601  14.024  1.4464 -0.1989 -1.0559
39740SOL    HW237213   7.738   5.742  14.031 -0.7366 -1.0992  0.5494
39741SOL     OW37214   7.319  13.110   1.764  0.1881  0.0375 -0.3776
39741SOL    HW137215   7.292  13.142   1.850  1.1471  1.2526 -0.4848
39741SOL    HW237216   7.329  13.016   1.775 -0.6246  0.0469  0.5800
39742SOL     OW37217  12.341  10.846   0.820 -0.3126 -0.6627 -0.2800
39742SOL    HW137218  12.383  10.932   0.828 -0.7646 -0.2506 -1.8800
39742SOL    HW237219  12.391  10.789   0.877  0.3249  0.5539  0.4129
39743SOL     OW37220  12.373   3.938   6.324  0.0026  0.1461  0.2826
39743SOL    HW137221  12.456   3.973   6.356  0.4529 -1.0797  0.5315
39743SOL    HW237222  12.340   3.884   6.396 -1.1203  0.7680  0.2573
39744SOL     OW37223   6.915   8.237  12.890  0.3859 -0.0583 -0.4294
39744SOL    HW137224   6.949   8.246  12.979  1.2680 -1.1697 -0.6278
39744SOL    HW237225   6.825   8.206  12.902  0.0936  0.9587  0.0791
39745SOL     OW37226   6.246   4.047  11.323  0.2625  0.6379  0.4168
39745SOL    HW137227   6.304   4.028  11.397  1.2166 -0.4590 -0.5586
39745SOL    HW237228   6.300   4.030  11.246 -1.8004 -2.1632 -0.5717
39746SOL     OW37229   6.641   6.822  11.564  0.6224 -0.1331 -0.2191
39746SOL    HW137230   6.599   6.736  11.556  2.1944 -0.8578 -1.1829
39746SOL    HW237231   6.658   6.849  11.474 -0.3149  1.4576  0.0578
39747SOL     OW37232   1.363   0.718   7.441  0.4433 -0.4332 -0.1430
39747SOL    HW137233   1.306   0.706   7.516  2.0158  3.8453  2.0271
39747SOL    HW237234   1.431   0.651   7.451 -0.8302 -1.6462  0.6431
39748SOL     OW37235   8.930   7.479   8.447  0.1609  0.4626 -0.6645
39748SOL    HW137236   8.986   7.471   8.369  0.5612  1.0033 -0.4391
39748SOL    HW237237   8.991   7.475   8.520 -0.3158 -1.1111 -0.3201
39749SOL     OW37238  10.607  12.632  11.622 -0.1970  0.3414  0.1183
39749SOL    HW137239  10.585  12.567  11.556  0.1526 -0.2393  0.5618
39749SOL    HW237240  10.562  12.603  11.701  1.1938 -0.2489  0.7353
39750SOL     OW37241  12.688   7.783   9.888 -0.1349 -0.0536  0.6686
39750SOL    HW137242  12.751   7.712   9.900 -0.4349 -0.8036 -1.6863
39750SOL    HW237243  12.602   7.742   9.903 -0.2182  0.3241  1.2724
39751SOL     OW37244   3.725  13.143   1.022 -0.2572 -0.0211 -0.2701
39751SOL    HW137245   3.736  13.155   1.116  0.8898  0.1868 -0.4112
39751SOL    HW237246   3.631  13.150   1.007 -0.5664 -1.0051  0.9874
39752SOL     OW37247  11.643  12.378   6.849  0.3693 -0.3876 -0.0303
39752SOL    HW137248  11.719  12.372   6.791  1.6603 -0.7477  1.6050
39752SOL    HW237249  11.595  12.455   6.819 -0.0364 -1.5816 -2.6799
39753SOL     OW37250  12.435  11.544   4.243 -0.5034 -0.2080  0.3760
39753SOL    HW137251  12.484  11.623   4.264  0.2132 -0.5094 -0.1176
39753SOL    HW237252  12.442  11.489   4.321  0.9244 -0.7202 -0.0748
39754SOL     OW37253   7.990   5.693  13.269 -0.2323  0.3815 -0.6570
39754SOL    HW137254   7.947   5.770  13.233 -0.6094  1.2774  1.5679
39754SOL    HW237255   7.941   5.619  13.232  0.4439  1.0895 -3.2129
39755SOL     OW37256   0.329  12.015   8.689 -0.2460 -0.1672  0.4159
39755SOL    HW137257   0.327  12.059   8.774  0.5748  1.4139 -0.3404
39755SOL    HW237258   0.379  11.935   8.705  2.2987  1.4029  0.9155
39756SOL     OW37259   3.912   9.618   1.091  0.1780 -0.3023 -0.1949
39756SOL    HW137260   3.902   9.568   1.010  0.6309  1.0160 -1.0833
39756SOL    HW237261   3.935   9.706   1.063 -0.5891  0.4291  1.3400
39757SOL     OW37262   6.048  13.572   3.500 -0.5775 -0.3000  0.2990
39757SOL    HW137263   6.087  13.488   3.474 -1.7374 -0.5946 -0.5668
39757SOL    HW237264   6.073  13.632   3.429 -2.4642 -0.7346 -0.8033
39758SOL     OW37265  10.585   4.884   4.818 -0.0427 -0.3367  0.4987
39758SOL    HW137266  10.560   4.831   4.742  0.9459 -0.0642 -0.0319
39758SOL    HW237267  10.656   4.835   4.859 -0.0711 -0.1073  0.8246
39759SOL     OW37268  12.597  12.633   6.071  0.1320  0.7662  0.5170
39759SOL    HW137269  12.691  12.628   6.088  0.4404  1.1232 -0.9595
39759SOL    HW237270  12.578  12.726   6.067 -0.4735  0.7092  1.6720
39760SOL     OW37271  11.682  12.303   3.282  0.4838 -0.5806  0.5356
39760SOL    HW137272  11.623  12.257   3.222  0.3911  0.6033 -0.3049
39760SOL    HW237273  11.626  12.332   3.354  0.5068 -1.5894  0.9765
39761SOL     OW37274   6.964   5.069  12.059  0.2775  0.0044  0.4731
39761SOL    HW137275   6.990   5.156  12.030 -2.4288  0.8292  0.2941
39761SOL    HW237276   7.005   5.009  11.996  1.1513  1.2170 -0.1431
39762SOL     OW37277  11.632   6.373   0.444  0.5238  0.3501 -0.3435
39762SOL    HW137278  11.698   6.348   0.508  0.5098 -0.8570 -0.7800
39762SOL    HW237279  11.638   6.307   0.375 -1.2987  0.0694 -0.2897
39763SOL     OW37280   7.728  10.755   6.250 -0.3100 -0.2970 -0.4870
39763SOL    HW137281   7.823  10.746   6.241 -0.2645 -0.9045  0.4453
39763SOL    HW237282   7.706  10.831   6.196  1.1355  1.8478  1.7209
39764SOL     OW37283   5.698   7.432   0.166  0.4265  0.4882  0.0172
39764SOL    HW137284   5.777   7.382   0.189  1.0508  1.9760  1.3400
39764SOL    HW237285   5.681   7.409   0.075  2.2346 -0.1067 -0.2234
39765SOL     OW37286  13.651   5.897   5.983  0.2104 -0.1190  0.2133
39765SOL    HW137287  13.701   5.825   6.021  0.0095 -0.2605  0.2147
39765SOL    HW237288  13.562   5.863   5.977 -0.0199  0.3514  0.8098
39766SOL     OW37289  14.074   1.096   5.047 -0.2020 -0.0829  0.0358
39766SOL    HW137290  13.992   1.085   5.095 -1.0747 -1.1130 -1.5982
39766SOL    HW237291  14.120   1.166   5.093 -2.2184  0.8734  0.6937
39767SOL     OW37292   9.448   4.108   7.644 -0.4954 -0.7246  0.5496
39767SOL    HW137293   9.527   4.162   7.642 -0.6841 -0.4632  0.1648
39767SOL    HW237294   9.377   4.169   7.666 -0.5363 -1.0310  1.3140
39768SOL     OW37295   9.824  12.618   2.632  0.2713 -0.3525  0.0939
39768SOL    HW137296   9.833  12.693   2.573 -3.2738 -0.3297 -0.5864
39768SOL    HW237297   9.801  12.657   2.716  0.3989 -0.6057  0.2473
39769SOL     OW37298   4.199   2.718   3.003  0.1513 -0.0097 -0.3605
39769SOL    HW137299   4.284   2.729   3.044  0.7290 -0.9092 -1.2606
39769SOL    HW237300   4.198   2.627   2.973 -0.0525  0.6709 -2.6727
39770SOL     OW37301   0.169   2.789   0.395 -0.7126 -0.3130 -0.0160
39770SOL    HW137302   0.157   2.843   0.473  0.5363  1.5194 -1.0075
39770SOL    HW237303   0.184   2.701   0.429  2.0607  0.7847  2.0353
39771SOL     OW37304   3.417  12.088   0.170 -0.0735  0.6929 -0.0029
39771SOL    HW137305   3.386  12.143   0.098  0.3007 -0.0639 -0.7468
39771SOL    HW237306   3.420  12.000   0.134 -2.4240 -0.1807  1.6737
39772SOL     OW37307   9.053   7.496  10.792  0.1304  0.1632 -0.4065
39772SOL    HW137308   8.973   7.452  10.820  0.8684 -0.6076  0.5719
39772SOL    HW237309   9.065   7.567  10.855  0.2903  0.1909 -0.4666
39773SOL     OW37310  11.972   4.812  10.482 -0.4141  0.1904  0.1370
39773SOL    HW137311  11.972   4.720  10.510 -1.3373  0.6162  1.6539
39773SOL    HW237312  12.063   4.829  10.457 -0.1203 -0.9920  0.3257
39774SOL     OW37313   2.285  10.760  11.829  0.1490 -0.3139 -0.5979
39774SOL    HW137314   2.260  10.676  11.789 -1.9106  1.3899 -3.2982
39774SOL    HW237315   2.201  10.802  11.849  1.1422  0.7727  1.6171
39775SOL     OW37316  10.221   2.482   5.888 -0.3243  0.1708 -0.4572
39775SOL    HW137317  10.291   2.533   5.848  0.4068  0.2201  0.8264
39775SOL    HW237318  10.149   2.545   5.898 -0.8568 -0.0473 -2.4142
39776SOL     OW37319   7.299  10.359   7.324 -0.5140  0.4090  0.3139
39776SOL    HW137320   7.379  10.365   7.272 -0.7473 -2.7469 -0.6434
39776SOL    HW237321   7.256  10.444   7.313  1.0958  1.0287 -1.8669
39777SOL     OW37322   2.762   5.211   3.428  0.3910  0.3443 -0.1123
39777SOL    HW137323   2.749   5.116   3.428  1.2457  0.1722 -2.0540
39777SOL    HW237324   2.853   5.223   3.454  0.6294  0.5254 -0.9826
39778SOL     OW37325   0.332  11.840   4.505  0.1173 -0.4020  0.0216
39778SOL    HW137326   0.398  11.908   4.491 -2.4966  1.9529 -1.9204
39778SOL    HW237327   0.358  11.768   4.447  0.2515  1.1198 -1.9159
39779SOL     OW37328   3.028   9.078  13.308  0.1523  0.6830 -0.1912
39779SOL    HW137329   2.962   9.036  13.253 -0.0221  0.9954 -0.2255
39779SOL    HW237330   2.989   9.162  13.332 -0.5499 -0.1781  1.9348
39780SOL     OW37331   4.994  10.178   1.813 -0.2302  0.0669 -0.5623
39780SOL    HW137332   4.972  10.249   1.752  0.6497  0.5058 -0.3864
39780SOL    HW237333   5.035  10.111   1.757 -0.6759 -0.1298 -0.6608
39781SOL     OW37334  10.077   5.986   9.733  0.7105 -0.2971  0.9112
39781SOL    HW137335  10.042   5.973   9.821  0.0744  0.3533  0.7635
39781SOL    HW237336  10.102   6.078   9.730 -0.5725  0.0574 -0.0267
39782SOL     OW37337   5.963   7.510   4.296 -0.5557  0.1808 -0.2798
39782SOL    HW137338   6.045   7.560   4.296  0.0024 -0.7165 -0.5942
39782SOL    HW237339   5.900   7.568   4.253  0.1553  0.4947 -0.9176
39783SOL     OW37340   8.256   8.598  11.236 -0.1152  0.0004 -0.0741
39783SOL    HW137341   8.296   8.684  11.219 -0.7758  0.5337  0.9768
39783SOL    HW237342   8.200   8.583  11.159 -1.0693  1.1766  0.3561
39784SOL     OW37343   8.559   0.707  10.566 -0.7259  0.5770 -0.6365
39784SOL    HW137344   8.501   0.776  10.534 -1.3274  0.6151  0.4658
39784SOL    HW237345   8.571   0.727  10.659 -2.9118 -2.0557  0.3748
39785SOL     OW37346   2.730   0.921   4.634 -0.3236  0.5726 -0.0465
39785SOL    HW137347   2.698   0.880   4.553  0.0113 -1.4582  0.7809
39785SOL    HW237348   2.651   0.953   4.677 -0.6369  0.6005 -0.6256
39786SOL     OW37349   0.237   1.062  11.293  0.0824 -0.0310 -0.4449
39786SOL    HW137350   0.175   1.034  11.360 -1.7718  1.2203 -1.5572
39786SOL    HW237351   0.213   1.012  11.215  0.0008  0.9745 -1.0789
39787SOL     OW37352   8.942  12.263   3.294  0.1016 -0.2409 -0.7726
39787SOL    HW137353   9.000  12.190   3.317 -0.1972 -0.5771 -1.0762
39787SOL    HW237354   8.986  12.305   3.220  1.0521  0.8277  0.3683
39788SOL     OW37355   9.610   7.091   5.806 -0.4363  0.0455  0.1824
39788SOL    HW137356   9.589   7.171   5.854  0.3621  0.1199  0.4218
39788SOL    HW237357   9.538   7.032   5.825 -2.0316  1.3124 -1.4788
39789SOL     OW37358   9.870  13.715   2.147  0.4435 -0.8826 -0.1754
39789SOL    HW137359   9.914  13.630   2.157  2.6427  0.1433 -0.4698
39789SOL    HW237360   9.789  13.706   2.196  2.0031 -2.2260  2.3628
39790SOL     OW37361  11.924   0.213   2.266  0.5670 -0.0202 -0.8147
39790SOL    HW137362  12.005   0.198   2.218  1.0615  0.0919 -0.0273
39790SOL    HW237363  11.936   0.168   2.350 -0.7299 -1.1966 -1.1984
39791SOL     OW37364   9.355   4.935  13.034  0.1124 -0.0343  0.1902
39791SOL    HW137365   9.391   4.902  13.116 -0.9953 -0.6461  0.4565
39791SOL    HW237366   9.421   4.996  13.001  2.2412 -2.4505 -0.3151
39792SOL     OW37367  10.857   9.061   1.235 -0.1302  0.4368 -0.0415
39792SOL    HW137368  10.944   9.030   1.211 -0.7793 -1.3194 -0.3010
39792SOL    HW237369  10.804   9.047   1.157 -0.4473  2.4812 -0.2442
39793SOL     OW37370   1.263   4.036   6.698  0.4399  0.2323  0.2452
39793SOL    HW137371   1.208   4.093   6.753 -0.1576  1.0033 -1.0928
39793SOL    HW237372   1.203   4.004   6.630  1.8691  2.2001 -2.0803
39794SOL     OW37373   2.020   2.326   6.774  0.4158  0.2554 -0.0968
39794SOL    HW137374   1.994   2.254   6.832  0.0360 -0.3188 -0.9447
39794SOL    HW237375   2.047   2.282   6.693 -0.4245  1.0896 -0.8590
39795SOL     OW37376   7.341   4.296   0.682 -0.0690  0.3587 -0.9832
39795SOL    HW137377   7.353   4.289   0.587 -2.5757 -0.1611 -1.3201
39795SOL    HW237378   7.345   4.206   0.713  0.5539  0.5137 -0.5904
39796SOL     OW37379   0.696  10.962   8.712 -0.5962  0.7653 -0.1545
39796SOL    HW137380   0.601  10.959   8.723 -0.4585 -0.0170  0.9013
39796SOL    HW237381   0.725  11.030   8.773 -0.3737  0.2761  0.2850
39797SOL     OW37382  11.209   0.538   0.864 -0.2121 -0.0742 -0.1622
39797SOL    HW137383  11.200   0.625   0.826 -1.1270  0.0865  0.3770
39797SOL    HW237384  11.225   0.481   0.789 -0.5861  0.4275 -0.6356
39798SOL     OW37385  11.996  12.839   9.550 -0.2874  0.0704 -0.2234
39798SOL    HW137386  12.032  12.923   9.577  3.3628 -1.4635  0.2187
39798SOL    HW237387  12.001  12.841   9.454 -0.1614  0.3432 -0.2117
39799SOL     OW37388   2.072  11.450  11.416  0.0972  0.2069  0.0458
39799SOL    HW137389   1.991  11.403  11.399  0.7563 -1.6471  1.6950
39799SOL    HW237390   2.121  11.444  11.334  0.3284 -2.4533  0.2987
39800SOL     OW37391   1.044  10.727   1.237 -0.3708  0.0280  0.1728
39800SOL    HW137392   0.995  10.646   1.248  2.5782 -2.5133 -3.1865
39800SOL    HW237393   0.987  10.784   1.186 -2.1031 -0.1702  1.7601
39801SOL     OW37394   3.123   3.961   1.965 -0.2663 -0.3239 -0.0010
39801SOL    HW137395   3.073   3.959   2.046  0.0195  0.8648  0.2327
39801SOL    HW237396   3.165   3.875   1.960  0.0791 -0.2630  1.3616
39802SOL     OW37397  11.016  13.651  11.993 -0.5364  0.3348  0.0484
39802SOL    HW137398  10.966  13.694  12.062 -0.4043 -0.5578  0.7136
39802SOL    HW237399  10.978  13.563  11.986  0.3517 -0.0591 -0.0513
39803SOL     OW37400   8.084   6.306  12.403  0.1267  0.1561  0.1855
39803SOL    HW137401   8.036   6.383  12.370 -0.3778 -0.3681 -0.3187
39803SOL    HW237402   8.160   6.298  12.345 -0.9470 -0.9796 -1.1312
39804SOL     OW37403  10.994   0.684   7.059 -0.0641  0.2505 -0.1038
39804SOL    HW137404  10.980   0.712   6.968  1.6248 -0.4699 -0.6381
39804SOL    HW237405  11.090   0.685   7.069 -0.1272 -1.6264  1.0312
39805SOL     OW37406  11.006  12.182   4.327  0.2575 -0.4323  0.1125
39805SOL    HW137407  10.942  12.167   4.396 -0.5623  0.0064 -0.5337
39805SOL    HW237408  11.042  12.269   4.347 -0.3493 -0.0814 -0.2852
39806SOL     OW37409  11.389  13.882   9.487  0.2278  0.0210  0.1343
39806SOL    HW137410  11.379  13.813   9.554 -0.8311 -1.2512 -1.2515
39806SOL    HW237411  11.483  13.891   9.476  0.3967 -0.7172  0.8419
39807SOL     OW37412   1.612   7.353  12.988 -0.1355 -0.0596 -0.4831
39807SOL    HW137413   1.631   7.446  12.980  1.6633 -0.3186  0.2740
39807SOL    HW237414   1.650   7.314  12.909 -0.1868 -0.2438 -0.4165
39808SOL     OW37415  11.669   6.228   4.666 -0.1460 -0.1794  0.3132
39808SOL    HW137416  11.685   6.176   4.588  1.5552 -1.0142  1.1770
39808SOL    HW237417  11.592   6.187   4.706  1.1196 -2.0736  0.9458
39809SOL     OW37418  11.468   0.454   5.460  0.7737  0.8284  0.1182
39809SOL    HW137419  11.484   0.539   5.501  0.5497  1.4884 -1.1195
39809SOL    HW237420  11.411   0.473   5.386  1.3306 -0.2873 -0.6273
39810SOL     OW37421   0.634   2.838  13.789 -0.4098 -0.0451 -0.3486
39810SOL    HW137422   0.701   2.849  13.857 -0.0630 -2.3891 -0.2042
39810SOL    HW237423   0.668   2.886  13.714 -0.2155  1.5915  0.7272
39811SOL     OW37424   5.160   9.999   4.649 -0.4826  0.0047  0.1407
39811SOL    HW137425   5.215   9.954   4.584 -0.6467  0.8781 -0.6256
39811SOL    HW237426   5.075   9.956   4.642  0.0185 -1.2219  1.1917
39812SOL     OW37427   7.478   9.476   1.975 -0.9520  0.3520  0.5449
39812SOL    HW137428   7.478   9.482   1.879 -0.0186 -0.7155  0.4504
39812SOL    HW237429   7.549   9.534   2.002 -0.4673 -0.2098  0.5013
39813SOL     OW37430   3.256   6.793   2.629 -0.4498 -0.2877  0.1565
39813SOL    HW137431   3.332   6.737   2.644  1.0548  1.6259  0.1059
39813SOL    HW237432   3.214   6.755   2.551  0.6162 -1.2292  0.0036
39814SOL     OW37433   7.239   5.052   7.383 -0.0872  0.3419  0.2572
39814SOL    HW137434   7.177   5.106   7.334 -0.0343  0.4187  0.2748
39814SOL    HW237435   7.280   4.997   7.316  1.1168  1.5348 -0.0400
39815SOL     OW37436  11.776   4.302   8.271  0.0900 -0.7422  0.3491
39815SOL    HW137437  11.702   4.362   8.276  0.4563 -0.3329  1.0608
39815SOL    HW237438  11.749   4.227   8.324  1.0793  0.4354  2.7087
39816SOL     OW37439   7.454   6.346   0.306  0.4094  0.2045 -0.1180
39816SOL    HW137440   7.507   6.415   0.267  1.0899 -1.0499 -1.5199
39816SOL    HW237441   7.374   6.343   0.253  0.1647  0.2357  0.2421
39817SOL     OW37442   3.568  10.046   5.756 -0.3073  0.4386  0.0909
39817SOL    HW137443   3.653  10.009   5.733  0.3561  1.0377  1.4603
39817SOL    HW237444   3.587  10.108   5.826 -1.9541  0.1869  0.8083
39818SOL     OW37445   6.030   6.816  10.256  0.2922  0.4000  0.0720
39818SOL    HW137446   6.085   6.872  10.201 -0.6860  0.9214 -0.3903
39818SOL    HW237447   6.083   6.738  10.270  1.0069  0.7353 -0.6773
39819SOL     OW37448   4.495  11.162   0.657 -0.2749 -0.5770  0.0274
39819SOL    HW137449   4.559  11.155   0.586 -0.0187  0.3627  0.1507
39819SOL    HW237450   4.480  11.256   0.667 -2.5951 -0.7892 -0.8012
39820SOL     OW37451   1.175   4.442   1.761 -0.4513 -0.1446 -0.0488
39820SOL    HW137452   1.140   4.354   1.744 -1.5652  0.0014  1.2764
39820SOL    HW237453   1.265   4.427   1.790 -0.7613 -0.8995  0.5571
39821SOL     OW37454  13.998   3.036   3.469  0.1023  0.6539  0.4571
39821SOL    HW137455  14.020   3.128   3.483 -0.3866  0.7824  0.4052
39821SOL    HW237456  13.917   3.023   3.519 -0.5311  0.5876 -0.5615
39822SOL     OW37457   2.882   0.425  14.007  0.6732 -0.1059 -0.0469
39822SOL    HW137458   2.887   0.330  13.995 -0.8370 -0.2268  0.1201
39822SOL    HW237459   2.901   0.438  14.100  1.2846 -0.1942 -0.1531
39823SOL     OW37460   9.415  11.492   7.141 -0.3941 -0.1029 -0.3291
39823SOL    HW137461   9.356  11.416   7.139 -0.1086 -0.3429  0.1686
39823SOL    HW237462   9.426  11.511   7.234  0.3076 -0.0509 -0.4226
39824SOL     OW37463   2.802  12.905   3.982 -0.0587 -0.4618  0.4504
39824SOL    HW137464   2.756  12.939   3.905  0.0352  1.2440  1.1162
39824SOL    HW237465   2.888  12.879   3.948 -0.8777 -2.1409 -0.4823
39825SOL     OW37466   7.897   6.192  10.572  0.0760 -0.2354  0.0776
39825SOL    HW137467   7.922   6.217  10.661 -2.8242  0.0963  0.9175
39825SOL    HW237468   7.910   6.097  10.569 -0.4118 -0.3516  1.1212
39826SOL     OW37469   5.966   1.263  12.698  0.8965  0.1480 -0.3345
39826SOL    HW137470   5.913   1.336  12.668 -0.2988 -1.6099 -2.8133
39826SOL    HW237471   6.043   1.265  12.642  1.4495  0.1914  0.4120
39827SOL     OW37472   9.148   4.702  13.498  0.1909 -0.0379  0.0558
39827SOL    HW137473   9.179   4.712  13.588  1.8155 -1.3710 -0.3056
39827SOL    HW237474   9.200   4.630  13.463 -0.0587  0.7815 -2.1259
39828SOL     OW37475   8.624  13.583  11.234 -0.7738 -0.3863 -0.4732
39828SOL    HW137476   8.630  13.530  11.154 -2.1234 -1.8810  0.3643
39828SOL    HW237477   8.570  13.658  11.208 -2.2217 -1.4626 -0.7062
39829SOL     OW37478   8.258   8.819   6.430  0.3616  0.1128  0.5778
39829SOL    HW137479   8.240   8.781   6.515 -0.0857  0.6077  0.7122
39829SOL    HW237480   8.337   8.775   6.399 -0.5232 -1.4185  0.4171
39830SOL     OW37481  13.159  13.642   8.512 -0.2938  0.1629 -0.0959
39830SOL    HW137482  13.155  13.737   8.509 -0.6793  0.1389 -0.6357
39830SOL    HW237483  13.069  13.614   8.493  0.0896 -0.3179 -1.2971
39831SOL     OW37484  10.946   2.968   1.293  0.1499  0.1194  0.0207
39831SOL    HW137485  10.912   3.053   1.263 -1.9154 -0.0733  1.5845
39831SOL    HW237486  11.010   2.943   1.227  0.3366  2.5848 -0.8279
39832SOL     OW37487   9.974   3.997   0.641  0.9588 -0.2222  0.2309
39832SOL    HW137488  10.064   3.972   0.660  0.4424 -4.0101 -1.4714
39832SOL    HW237489   9.982   4.070   0.579  2.7530  0.5602  1.2931
39833SOL     OW37490   4.820  14.096   6.120 -0.3782 -0.6618 -0.3960
39833SOL    HW137491   4.796  14.070   6.209 -1.8703  0.2613 -0.4799
39833SOL    HW237492   4.882  14.169   6.132  0.0268 -1.0482 -0.1250
39834SOL     OW37493   3.308   6.814   1.697 -0.2429 -0.3435  0.4024
39834SOL    HW137494   3.368   6.796   1.624 -1.5515 -0.4258 -0.6906
39834SOL    HW237495   3.344   6.765   1.771 -0.7200 -3.1042 -1.0623
39835SOL     OW37496  12.496   8.568  10.195  0.1645  0.0248  0.7612
39835SOL    HW137497  12.565   8.632  10.215  0.4484 -0.4434  1.3125
39835SOL    HW237498  12.456   8.550  10.280  0.1894 -0.6502  0.6282
39836SOL     OW37499  13.680   8.310   3.198 -0.1110 -0.0895  0.7115
39836SOL    HW137500  13.697   8.360   3.278  0.6452  2.4376 -0.9432
39836SOL    HW237501  13.729   8.228   3.211 -0.0792  0.1982  2.8284
39837SOL     OW37502  13.902  13.411   8.476  0.0191 -0.5404  0.1426
39837SOL    HW137503  13.858  13.393   8.393  0.5410  0.4898 -0.3749
39837SOL    HW237504  13.875  13.500   8.499  0.7578 -0.4034  0.5126
39838SOL     OW37505   5.324  14.044   3.216 -0.6739 -0.3366 -0.2394
39838SOL    HW137506   5.353  14.121   3.167 -0.7454 -0.3951 -0.3727
39838SOL    HW237507   5.365  13.970   3.172  0.6594 -0.2626  0.8146
39839SOL     OW37508  12.257  10.127   8.121  0.0990 -0.0152  0.0066
39839SOL    HW137509  12.200  10.099   8.193 -0.6661 -1.3138 -1.0601
39839SOL    HW237510  12.346  10.112   8.153 -0.1960  0.1807  0.9666
39840SOL     OW37511   5.449  11.506   2.703  0.1464  0.4822  0.0364
39840SOL    HW137512   5.414  11.497   2.614  1.7493 -3.3688 -0.4192
39840SOL    HW237513   5.503  11.585   2.700  0.3799  0.3113 -2.5080
39841SOL     OW37514  12.850   9.813   0.894 -0.0446 -0.1127  0.2582
39841SOL    HW137515  12.797   9.734   0.904  1.3485 -1.3324 -1.4011
39841SOL    HW237516  12.927   9.796   0.949  0.7880 -0.4645 -0.9633
39842SOL     OW37517  10.441   2.857   6.619 -0.3468  0.1456  0.4790
39842SOL    HW137518  10.490   2.929   6.659 -1.1098  0.6739  0.4796
39842SOL    HW237519  10.500   2.782   6.626  0.4975  0.7804  0.4040
39843SOL     OW37520  12.279   6.256  11.338 -0.3854 -0.4568 -0.6895
39843SOL    HW137521  12.368   6.292  11.336 -0.9791  1.3795  1.3261
39843SOL    HW237522  12.274   6.210  11.421 -1.5602  0.2289 -0.3566
39844SOL     OW37523   5.548  11.928   2.461  0.4448 -0.1284 -0.2276
39844SOL    HW137524   5.504  11.874   2.527  1.2517  0.0254  0.4470
39844SOL    HW237525   5.538  12.017   2.492  3.4187 -0.2192  1.3587
39845SOL     OW37526   7.289  12.214   2.142 -0.0916 -0.1068  0.0659
39845SOL    HW137527   7.275  12.119   2.136  0.1618 -0.2783  1.7239
39845SOL    HW237528   7.208  12.247   2.180  0.2310  0.1939  0.5001
39846SOL     OW37529   5.957   8.471  11.996 -0.8354 -0.4426  0.0379
39846SOL    HW137530   5.879   8.424  12.027 -1.5961  0.6134 -0.2273
39846SOL    HW237531   6.024   8.452  12.062 -1.3664 -1.1987  0.3767
39847SOL     OW37532  12.795   6.476   5.385 -0.2192  0.1522 -0.2149
39847SOL    HW137533  12.886   6.495   5.409 -0.4669  1.2291 -0.0636
39847SOL    HW237534  12.753   6.562   5.382 -1.4374 -0.3926  0.5575
39848SOL     OW37535   0.410  10.696  13.340 -0.8691  0.2962 -0.2118
39848SOL    HW137536   0.443  10.750  13.412 -0.4669 -0.7265  0.3885
39848SOL    HW237537   0.330  10.741  13.312  0.6501  2.5135 -1.3117
39849SOL     OW37538   9.825   0.836  10.414  0.4937 -0.0818 -0.2679
39849SOL    HW137539   9.763   0.842  10.341  0.7167  2.4365 -0.3439
39849SOL    HW237540   9.773   0.857  10.491  0.6414 -1.0296  0.1067
39850SOL     OW37541  12.035   4.271   6.241 -0.1156  0.1025  0.1726
39850SOL    HW137542  11.972   4.200   6.229  0.7355 -0.6721  0.2071
39850SOL    HW237543  12.035   4.318   6.158 -0.5827 -0.0154  0.1047
39851SOL     OW37544  10.352   9.383   4.280  0.5023  0.1841 -0.5501
39851SOL    HW137545  10.396   9.309   4.238 -0.3819  0.3541 -1.8302
39851SOL    HW237546  10.259   9.368   4.263  0.2280  0.9740  0.2128
39852SOL     OW37547   9.407   8.952   1.234  0.0433 -0.5145  0.0298
39852SOL    HW137548   9.479   9.008   1.204  0.6311 -0.1176  2.0368
39852SOL    HW237549   9.434   8.864   1.210  0.9058 -0.2993  0.1626
39853SOL     OW37550   9.603   0.381  13.127 -0.0533 -0.3844 -0.0178
39853SOL    HW137551   9.624   0.290  13.151 -0.6757 -0.5072  0.0779
39853SOL    HW237552   9.688   0.426  13.126  0.0640 -0.4995  1.8706
39854SOL     OW37553   5.464   8.714   3.933  0.4490 -0.3431  0.0984
39854SOL    HW137554   5.398   8.651   3.963  0.2789 -0.2963 -0.1803
39854SOL    HW237555   5.537   8.659   3.902 -0.1092 -0.4299 -1.0994
39855SOL     OW37556   1.206  12.683   6.466 -0.0350 -0.3653 -0.3562
39855SOL    HW137557   1.119  12.690   6.506  0.3494  1.2301  0.2888
39855SOL    HW237558   1.191  12.638   6.384 -0.8518 -3.9641  1.5526
39856SOL     OW37559   4.310   9.594   0.143 -0.0170  0.2447 -0.4784
39856SOL    HW137560   4.349   9.654   0.206 -1.3823  0.4026  0.2643
39856SOL    HW237561   4.271   9.651   0.076 -0.0390  0.1439 -0.5520
39857SOL     OW37562   3.232  10.952  10.287  0.4340  0.1288  0.3051
39857SOL    HW137563   3.184  11.035  10.282 -0.7619 -0.3934  2.1513
39857SOL    HW237564   3.297  10.966  10.356  1.0688 -0.0878 -0.2388
39858SOL     OW37565   0.825  10.087   8.900 -0.3513  0.1581 -0.0232
39858SOL    HW137566   0.911  10.128   8.911 -0.6543  0.7477  0.1638
39858SOL    HW237567   0.845   9.995   8.884  0.3696  0.4406 -0.9094
39859SOL     OW37568   0.202  11.897  11.685  0.0423  0.0656 -0.6427
39859SOL    HW137569   0.281  11.918  11.635  0.3101  0.3574 -0.1017
39859SOL    HW237570   0.140  11.864  11.619  1.1356 -1.6607 -0.8915
39860SOL     OW37571   2.549   0.683   5.810  0.2635  0.1057  0.0160
39860SOL    HW137572   2.617   0.629   5.771 -0.0855  0.9542 -1.8569
39860SOL    HW237573   2.468   0.637   5.791  0.2372 -0.7757  2.0267
39861SOL     OW37574  13.740   2.212   2.141  0.2994  0.0467 -0.2652
39861SOL    HW137575  13.669   2.262   2.101  0.3505 -0.4930 -1.0454
39861SOL    HW237576  13.781   2.273   2.203  0.0803  0.8193 -0.8761
39862SOL     OW37577  14.014  12.013   3.902 -0.3014  0.2481 -0.3851
39862SOL    HW137578  14.036  11.985   3.990  0.7014  0.6491 -0.5028
39862SOL    HW237579  13.952  12.085   3.914 -1.2535 -0.6009 -0.0506
39863SOL     OW37580  12.325   5.890  11.901 -0.1365  0.2361  0.3842
39863SOL    HW137581  12.323   5.802  11.861  0.3827  0.4106 -0.0513
39863SOL    HW237582  12.241   5.928  11.879  0.6712  0.8984 -1.9276
39864SOL     OW37583  10.018   0.329   8.470 -0.0989  0.3303 -0.0363
39864SOL    HW137584   9.979   0.243   8.455 -1.4110  0.6662  1.2721
39864SOL    HW237585   9.998   0.379   8.390 -1.4843  0.1699  0.1900
39865SOL     OW37586  12.682   0.326   7.932  0.1783 -0.7446  0.2328
39865SOL    HW137587  12.664   0.419   7.926 -0.6750 -0.9370 -0.3385
39865SOL    HW237588  12.727   0.304   7.850 -1.7693 -1.2760 -0.7482
39866SOL     OW37589  12.103  12.206   3.967 -0.2744  0.2107 -0.3848
39866SOL    HW137590  12.122  12.156   4.047  0.1753 -0.7180 -1.0612
39866SOL    HW237591  12.086  12.295   3.999 -1.6304 -0.4664  0.8819
39867SOL     OW37592  12.460   5.800   9.236 -0.5493 -0.2697  0.3006
39867SOL    HW137593  12.419   5.714   9.243 -0.0978 -0.5432 -0.2755
39867SOL    HW237594  12.397   5.861   9.275 -0.3738 -1.0036  1.8161
39868SOL     OW37595  12.469   2.046   4.870 -0.2968 -0.7197  0.1138
39868SOL    HW137596  12.563   2.061   4.864 -0.5313  0.8437  0.1173
39868SOL    HW237597  12.455   1.964   4.821  0.6876  0.4786 -2.3426
39869SOL     OW37598   8.936   1.872  10.530 -0.4746 -0.0512 -0.0331
39869SOL    HW137599   8.877   1.905  10.462 -0.4455 -0.6235 -0.3415
39869SOL    HW237600   8.888   1.801  10.571  0.1115 -0.7340 -0.4996
39870SOL     OW37601   9.293   7.270   7.392  0.0310 -0.2413  0.3394
39870SOL    HW137602   9.228   7.259   7.462 -1.3966 -0.0025 -0.9083
39870SOL    HW237603   9.281   7.193   7.337 -1.1378  1.1081 -1.4005
39871SOL     OW37604   2.418   7.313   0.500  0.0778  0.1601  0.0697
39871SOL    HW137605   2.412   7.300   0.405  0.0282  0.0429  0.0885
39871SOL    HW237606   2.342   7.267   0.535  0.9691 -1.1846  0.2945
39872SOL     OW37607   6.923   9.064  12.694 -0.1531  0.4523 -0.0847
39872SOL    HW137608   6.903   9.051  12.787 -3.2649 -1.3676 -0.8633
39872SOL    HW237609   7.019   9.062  12.690  0.0799 -1.2990  2.8476
39873SOL     OW37610   2.468  12.125   4.801 -0.5963 -0.0185  0.1560
39873SOL    HW137611   2.424  12.055   4.753 -2.3387  1.7092 -0.8954
39873SOL    HW237612   2.398  12.185   4.827  1.0810  4.1654 -3.6742
39874SOL     OW37613  14.047   4.769   9.729 -0.0467  0.1715  0.1952
39874SOL    HW137614  14.099   4.819   9.792 -0.4574 -0.2847  0.9109
39874SOL    HW237615  14.073   4.678   9.742 -1.1798 -0.0965  0.7424
39875SOL     OW37616   5.640  11.240  11.378  0.7373 -0.0262  0.1482
39875SOL    HW137617   5.715  11.219  11.435  1.7970 -1.2714 -1.6025
39875SOL    HW237618   5.607  11.155  11.350  0.9339  0.5198 -1.9135
39876SOL     OW37619  11.317   8.743   0.056 -0.2424  0.3808  0.0023
39876SOL    HW137620  11.296   8.729  -0.037 -0.9896  0.6673  0.1261
39876SOL    HW237621  11.396   8.691   0.070 -0.6145 -0.3586 -0.5810
39877SOL     OW37622   5.213  13.823   6.379 -0.4818  0.2468  0.6153
39877SOL    HW137623   5.203  13.763   6.305  1.5581  1.0221 -0.3885
39877SOL    HW237624   5.144  13.798   6.440 -1.3881 -1.3189 -0.9448
39878SOL     OW37625   7.124  10.152   1.227 -0.1524 -0.0245 -0.1333
39878SOL    HW137626   7.133  10.062   1.259 -1.4528  0.4917  1.8783
39878SOL    HW237627   7.189  10.159   1.158  0.5733 -2.2586  0.2322
39879SOL     OW37628  13.224   0.274   8.428 -0.3053 -0.4668  0.1292
39879SOL    HW137629  13.275   0.354   8.412  0.7490 -1.2504 -0.6009
39879SOL    HW237630  13.135   0.297   8.399 -0.3924  0.9067  1.3645
39880SOL     OW37631   1.587   2.224   2.078  0.3338  0.1787  0.4318
39880SOL    HW137632   1.565   2.291   2.013  1.3756  1.3686  1.2585
39880SOL    HW237633   1.575   2.141   2.032  1.8665  0.9847 -1.5850
39881SOL     OW37634   4.481   9.833   7.568 -0.5082 -0.8911 -0.5400
39881SOL    HW137635   4.487   9.795   7.655  0.1641  1.6953  0.6227
39881SOL    HW237636   4.387   9.849   7.556 -0.3974  2.1315  1.4107
39882SOL     OW37637   7.774  11.440  10.074  0.3597  0.5532  0.4759
39882SOL    HW137638   7.867  11.416  10.075  0.4858  1.0111  0.1300
39882SOL    HW237639   7.760  11.484  10.158  0.7135  1.4011  0.1118
39883SOL     OW37640   6.863  10.589   7.837 -0.2521 -0.0471 -0.7066
39883SOL    HW137641   6.778  10.578   7.796  1.0172 -0.8484 -3.3297
39883SOL    HW237642   6.849  10.561   7.928 -2.6815 -0.4075 -1.1195
39884SOL     OW37643   3.671  10.332   8.959 -0.1598 -0.0325  0.1887
39884SOL    HW137644   3.637  10.319   9.048  0.2496  0.5978  0.4437
39884SOL    HW237645   3.750  10.278   8.955 -1.4335 -1.9372 -0.5858
39885SOL     OW37646   8.944   7.346   2.728 -0.1157  0.6821 -0.2114
39885SOL    HW137647   8.890   7.420   2.757 -0.5166 -0.1786  1.3572
39885SOL    HW237648   9.005   7.332   2.800  0.3626 -0.1272 -0.7628
39886SOL     OW37649   1.195  13.512  11.497  0.5397  0.2082  0.2907
39886SOL    HW137650   1.189  13.539  11.589 -0.2294  0.5748  0.1341
39886SOL    HW237651   1.113  13.466  11.480  0.7114  0.0801 -0.1993
39887SOL     OW37652   9.278   5.099   4.437 -0.2022  0.1301 -0.6988
39887SOL    HW137653   9.325   5.182   4.448 -0.4809  0.4250 -1.5838
39887SOL    HW237654   9.279   5.084   4.342 -0.0629 -0.9370 -0.5342
39888SOL     OW37655   8.928  12.330   2.119  0.4945 -0.0714  0.1733
39888SOL    HW137656   8.842  12.295   2.139  1.0099 -1.2019  0.4755
39888SOL    HW237657   8.949  12.295   2.032  0.6493  0.1964  0.1009
39889SOL     OW37658  11.826   5.602   3.445 -0.7249  0.5501  0.1768
39889SOL    HW137659  11.753   5.634   3.392 -1.5082 -0.1556  0.7914
39889SOL    HW237660  11.838   5.512   3.417  1.1880  1.2017 -1.2560
39890SOL     OW37661   4.662  13.090  13.849 -0.2754  0.4225  0.3589
39890SOL    HW137662   4.653  13.046  13.934 -1.3506 -1.0806 -0.4890
39890SOL    HW237663   4.578  13.076  13.806  0.2621  1.1363 -0.9758
39891SOL     OW37664   3.654   9.875   7.332  0.4316  0.7822  0.4159
39891SOL    HW137665   3.630   9.886   7.424 -0.1040  0.6135  0.2983
39891SOL    HW237666   3.688   9.785   7.327 -0.8412  0.2988  0.1781
39892SOL     OW37667  12.144   6.556   4.847 -0.7810  0.1120 -0.0398
39892SOL    HW137668  12.226   6.543   4.895 -0.8451 -1.2999 -0.2734
39892SOL    HW237669  12.092   6.612   4.905 -0.8841 -1.5885  1.6224
39893SOL     OW37670  11.108   5.453  11.912 -0.4397 -0.0507  0.2834
39893SOL    HW137671  11.063   5.521  11.862  0.2250  0.7683  0.7872
39893SOL    HW237672  11.074   5.461  12.001 -0.0812 -0.1288  0.4288
39894SOL     OW37673  12.453  10.740  11.373 -0.7788  0.0563  0.2196
39894SOL    HW137674  12.476  10.760  11.282 -2.4628  0.9545 -0.0502
39894SOL    HW237675  12.394  10.665  11.368 -1.3248  0.4602  0.5201
39895SOL     OW37676  13.086   8.573   4.377 -0.0478 -0.0937 -0.3943
39895SOL    HW137677  13.142   8.630   4.324  1.3138 -0.6250  0.4050
39895SOL    HW237678  13.020   8.541   4.316  0.8623  0.1041 -1.5306
39896SOL     OW37679   6.578  12.051  10.878 -0.3589 -0.2189 -0.2373
39896SOL    HW137680   6.650  11.988  10.883 -0.9095 -0.7889  0.6247
39896SOL    HW237681   6.570  12.069  10.784  0.9668 -0.0577 -0.3491
39897SOL     OW37682   9.047  12.127  13.478 -0.1780  0.4980 -0.4420
39897SOL    HW137683   9.092  12.191  13.533 -1.0036  1.3478 -0.7105
39897SOL    HW237684   9.032  12.173  13.396 -0.8939  0.0023 -0.6003
39898SOL     OW37685   5.590   3.741   4.982 -0.7621  0.2840  0.1354
39898SOL    HW137686   5.644   3.760   5.059  0.1539  2.2033 -0.9258
39898SOL    HW237687   5.519   3.804   4.987 -0.4996  0.6634 -0.7530
39899SOL     OW37688   7.286  12.607   7.748 -0.3458  0.1609  0.5682
39899SOL    HW137689   7.305  12.588   7.839 -2.0108  1.8123  1.3221
39899SOL    HW237690   7.190  12.610   7.743 -0.2778  0.9502 -1.0265
39900SOL     OW37691   7.206   8.797  13.181  0.5257 -0.1843  0.3256
39900SOL    HW137692   7.266   8.865  13.149  0.3636  0.7241  1.8481
39900SOL    HW237693   7.196   8.738  13.107  0.4802  1.5887 -1.1619
39901SOL     OW37694   9.872   7.618  13.551  1.0066 -0.9072  0.6831
39901SOL    HW137695   9.843   7.708  13.568  0.0222 -1.2382  0.8100
39901SOL    HW237696   9.966   7.625  13.539  0.9971  0.0898  1.1096
39902SOL     OW37697   3.080   5.235   3.066  0.2035 -0.0513  0.0605
39902SOL    HW137698   3.036   5.265   3.145 -2.1670 -0.2870 -1.0735
39902SOL    HW237699   3.162   5.197   3.097 -0.3687  0.4127  2.3212
39903SOL     OW37700  11.218   1.170   7.069 -0.3932  0.0074  0.9831
39903SOL    HW137701  11.199   1.082   7.102 -0.2776 -0.1833  0.5471
39903SOL    HW237702  11.253   1.217   7.145 -1.1392 -0.1001  1.4063
39904SOL     OW37703   1.143   0.946   7.186  0.1244 -0.3416 -0.0426
39904SOL    HW137704   1.054   0.974   7.162 -0.1029 -0.7949  0.2395
39904SOL    HW237705   1.177   1.017   7.240  0.5727  0.6117 -1.5112
39905SOL     OW37706   3.234   4.982  12.831  0.7449  0.1885 -0.3287
39905SOL    HW137707   3.327   4.985  12.854  0.8790 -2.9365 -0.1676
39905SOL    HW237708   3.190   5.026  12.904  2.0061  1.0752 -0.0683
39906SOL     OW37709   3.831  12.031   5.382 -0.1785  0.3296 -0.2939
39906SOL    HW137710   3.806  12.121   5.403  3.1387  1.4200 -0.4312
39906SOL    HW237711   3.772  11.977   5.434 -0.3996  2.6394  2.0715
39907SOL     OW37712   1.237   6.973   0.148 -0.2364  0.0389  0.2084
39907SOL    HW137713   1.292   7.042   0.185  0.8907 -0.0081 -1.2718
39907SOL    HW237714   1.163   7.020   0.109  0.7207  0.4823 -1.1360
39908SOL     OW37715  10.012   1.436   2.448 -0.5916  0.1776 -0.5287
39908SOL    HW137716  10.100   1.469   2.429 -0.9329  0.8179 -1.0415
39908SOL    HW237717  10.013   1.346   2.416 -0.0766  0.1219 -0.3743
39909SOL     OW37718   8.599   1.597   1.485  0.2444  0.4135  0.5714
39909SOL    HW137719   8.634   1.597   1.574  0.4827  0.9631  0.4818
39909SOL    HW237720   8.627   1.513   1.448  0.0206  0.1204  1.0598
39910SOL     OW37721   6.496   4.981  10.568 -0.0293  0.4466  0.1911
39910SOL    HW137722   6.487   4.891  10.601  0.0176  0.3730  0.0029
39910SOL    HW237723   6.565   4.976  10.503  1.1964  0.9469  1.3976
39911SOL     OW37724   6.776   7.116  11.327  0.4230 -0.0414 -0.3793
39911SOL    HW137725   6.762   7.147  11.416  0.0509  1.5874 -0.9617
39911SOL    HW237726   6.707   7.052  11.312  0.1802  0.0482  0.3419
39912SOL     OW37727   0.320   7.780   2.053 -0.0206 -0.4022 -0.1953
39912SOL    HW137728   0.364   7.695   2.056  0.2734 -0.2470  0.0569
39912SOL    HW237729   0.227   7.760   2.061  0.1580 -0.5918  2.3833
39913SOL     OW37730  11.451   0.056   7.185 -0.0818 -0.1689 -0.2262
39913SOL    HW137731  11.451   0.152   7.191  1.3461  0.0089 -2.1330
39913SOL    HW237732  11.362   0.033   7.162 -0.0100  0.8955 -1.6947
39914SOL     OW37733  10.010   4.693   5.829 -0.2646 -0.3110 -0.4139
39914SOL    HW137734   9.956   4.771   5.820  1.3739  1.1334  1.6273
39914SOL    HW237735  10.074   4.699   5.757  0.9449  1.1941  0.7403
39915SOL     OW37736   8.833   0.566   6.118 -0.2080 -1.0207  0.1420
39915SOL    HW137737   8.771   0.540   6.186 -0.6825 -0.3248 -0.0093
39915SOL    HW237738   8.809   0.656   6.097  0.2332 -1.0669 -0.6131
39916SOL     OW37739   5.206   2.153  11.290  0.1492 -0.1639 -0.6231
39916SOL    HW137740   5.291   2.117  11.264 -0.1662 -0.1427 -1.7392
39916SOL    HW237741   5.142   2.092  11.253 -0.3679  0.9934 -1.7315
39917SOL     OW37742  12.608  11.622   9.418  0.3776 -0.2788 -0.0026
39917SOL    HW137743  12.636  11.713   9.408  0.0113 -0.0178  1.2079
39917SOL    HW237744  12.671  11.572   9.366  0.9692  0.6123 -0.1605
39918SOL     OW37745   8.472   0.763   8.445  0.4720  0.2890 -0.1383
39918SOL    HW137746   8.455   0.691   8.505  0.0952  0.4788 -0.0177
39918SOL    HW237747   8.566   0.777   8.450  0.5431 -0.1752 -0.1395
39919SOL     OW37748  10.944   8.519   8.991  0.4245 -0.2021  0.2627
39919SOL    HW137749  10.964   8.437   8.946 -1.0414 -0.2466 -0.3398
39919SOL    HW237750  10.955   8.498   9.084  1.3470 -0.7064  0.0506
39920SOL     OW37751  10.772  11.741   0.811 -0.6854  0.0130 -0.2956
39920SOL    HW137752  10.782  11.746   0.906  0.8376 -1.1683 -0.3583
39920SOL    HW237753  10.678  11.728   0.798 -0.9958  0.7607  1.0072
39921SOL     OW37754  10.665  10.579   1.067  0.3300  0.1749  0.1880
39921SOL    HW137755  10.755  10.554   1.044  0.4783 -0.4867  1.3772
39921SOL    HW237756  10.616  10.496   1.061  0.1969  0.1633  1.3241
39922SOL     OW37757   0.422   0.221   5.485 -0.3893  0.2208 -0.0781
39922SOL    HW137758   0.421   0.317   5.475  0.5583  0.1244 -1.2015
39922SOL    HW237759   0.364   0.189   5.416 -0.9234 -0.0194  0.4709
39923SOL     OW37760  12.254  10.458  10.772 -0.3772 -0.1067 -0.0365
39923SOL    HW137761  12.247  10.539  10.823 -1.1529  0.1490 -0.5318
39923SOL    HW237762  12.228  10.484  10.683  2.6951 -0.0956 -1.0466
39924SOL     OW37763   0.643   0.642   5.634  0.1204 -0.5359  0.1792
39924SOL    HW137764   0.680   0.671   5.551  0.6573  0.0771  0.6310
39924SOL    HW237765   0.672   0.707   5.698 -1.2653 -0.3437  0.6466
39925SOL     OW37766  14.122   5.912   7.579 -0.5054  0.2678 -0.2218
39925SOL    HW137767  14.037   5.955   7.581 -0.7044 -0.1493  0.8621
39925SOL    HW237768  14.172   5.955   7.649 -0.3575 -0.5472  0.1806
39926SOL     OW37769  10.161   4.080  10.158  0.3497  0.0878  0.2718
39926SOL    HW137770  10.249   4.090  10.121  0.0228  0.9953 -0.3057
39926SOL    HW237771  10.110   4.040  10.088  0.0742  0.4610  0.2554
39927SOL     OW37772   7.859   7.843  12.556  0.1103 -0.5696  0.2575
39927SOL    HW137773   7.873   7.750  12.538  0.1713 -0.5793  0.3521
39927SOL    HW237774   7.854   7.884  12.470  1.1051 -0.5099  0.2205
39928SOL     OW37775  12.260   2.841   0.551 -0.2863  0.3672 -0.5523
39928SOL    HW137776  12.312   2.806   0.623  0.4098  1.6753 -0.4038
39928SOL    HW237777  12.169   2.830   0.579 -0.0188  2.1711  1.1901
39929SOL     OW37778   2.536  12.657   7.178  0.3144  0.0208  0.2786
39929SOL    HW137779   2.615  12.683   7.132  0.3015 -3.0169 -1.8133
39929SOL    HW237780   2.465  12.679   7.117  0.0907 -1.9420 -0.2440
39930SOL     OW37781   5.794  11.974  11.013  0.4297 -0.1720  0.2604
39930SOL    HW137782   5.757  11.952  10.927  0.3479  0.3396  0.1612
39930SOL    HW237783   5.883  12.005  10.994  0.2611  0.3503  0.3152
39931SOL     OW37784   0.346  14.097   6.192 -0.0668  0.0284  0.4927
39931SOL    HW137785   0.419  14.155   6.170  0.2568  0.7826  3.1875
39931SOL    HW237786   0.270  14.155   6.194 -0.0870 -0.0186  1.2453
39932SOL     OW37787  10.938  12.640   0.233 -0.2377 -0.1446  0.1232
39932SOL    HW137788  10.915  12.609   0.321 -1.5367 -0.8909 -0.4506
39932SOL    HW237789  11.032  12.659   0.238 -0.8171  2.9091  2.5568
39933SOL     OW37790   9.591   4.007  12.261 -0.7196 -0.4460 -0.2417
39933SOL    HW137791   9.532   4.017  12.186 -0.1663 -0.9961 -0.7687
39933SOL    HW237792   9.534   4.007  12.337 -1.1384  2.1271 -0.4815
39934SOL     OW37793   9.425   0.744  11.598  0.8111 -0.0262 -0.0850
39934SOL    HW137794   9.468   0.664  11.566  1.7797  1.2960 -2.3359
39934SOL    HW237795   9.333   0.732  11.576  0.9060 -0.6147 -0.1806
39935SOL     OW37796  12.202  11.052   0.969 -0.2943 -0.3334  0.2156
39935SOL    HW137797  12.144  11.122   0.999  1.1509  0.7372  0.6305
39935SOL    HW237798  12.249  11.090   0.894  2.0703  0.0081  1.7534
39936SOL     OW37799   5.858   4.845  11.001  0.3516 -0.5356  0.3640
39936SOL    HW137800   5.873   4.907  11.073 -0.0233 -1.9753  1.7502
39936SOL    HW237801   5.908   4.880  10.928  0.0962  1.4231  1.0693
39937SOL     OW37802   9.147   1.304   9.831  0.0110 -0.6559  0.0283
39937SOL    HW137803   9.220   1.243   9.820  1.8641  0.8158  2.8267
39937SOL    HW237804   9.154   1.363   9.756  1.9692 -0.3680  0.3775
39938SOL     OW37805   7.765   9.287   2.680  0.2202 -0.7278 -0.0036
39938SOL    HW137806   7.714   9.318   2.756  0.5262  1.1547 -0.5227
39938SOL    HW237807   7.836   9.236   2.719  0.5324  0.4346  1.0288
39939SOL     OW37808   8.478  12.645  10.545  0.0130 -0.1552 -0.2393
39939SOL    HW137809   8.427  12.726  10.537 -0.4599 -0.6104 -2.3277
39939SOL    HW237810   8.413  12.575  10.545  0.4979 -0.6129 -0.2223
39940SOL     OW37811   9.628   8.145   3.190  0.1510 -0.6645  0.1302
39940SOL    HW137812   9.687   8.087   3.238  0.5250  0.8646  1.6140
39940SOL    HW237813   9.670   8.157   3.104  1.4882 -0.4101  0.7989
39941SOL     OW37814  12.266  10.973   7.018  0.2937 -0.3273 -0.0972
39941SOL    HW137815  12.286  11.041   7.081  0.0412 -0.9585  0.6826
39941SOL    HW237816  12.341  10.913   7.022 -0.0614 -0.7629  0.1594
39942SOL     OW37817   4.228   0.399   9.376 -0.1368 -0.5006 -0.9113
39942SOL    HW137818   4.243   0.314   9.336  0.4240 -1.1573  0.6703
39942SOL    HW237819   4.311   0.424   9.415 -0.2957  0.7762 -1.3229
39943SOL     OW37820  12.859   2.610  12.781  0.1884  0.3766 -0.6176
39943SOL    HW137821  12.901   2.696  12.778 -2.8191  2.0443  0.6171
39943SOL    HW237822  12.811   2.604  12.698 -1.3516  0.9474  0.1870
39944SOL     OW37823   3.072  10.402   6.270  0.1984  0.2836  0.0160
39944SOL    HW137824   3.003  10.415   6.335  0.4168  0.8568  0.1396
39944SOL    HW237825   3.146  10.369   6.321  0.5992  1.3995  0.1891
39945SOL     OW37826   8.524   3.697   4.305  0.3503  0.5875  0.1202
39945SOL    HW137827   8.515   3.768   4.368 -1.6460 -0.3119  0.9290
39945SOL    HW237828   8.539   3.619   4.358  2.1375  0.2853 -0.7338
39946SOL     OW37829   0.347  12.021  11.214 -0.5106  0.5796 -0.4786
39946SOL    HW137830   0.268  12.070  11.237 -0.8607  0.3612 -1.1565
39946SOL    HW237831   0.372  12.056  11.129 -0.8865 -0.5281 -1.0769
39947SOL     OW37832   5.612  13.132   3.917 -0.1061 -0.3468  0.5265
39947SOL    HW137833   5.552  13.106   3.847 -0.6297  0.7874  0.5428
39947SOL    HW237834   5.624  13.052   3.969  1.0774 -1.5108 -1.3919
39948SOL     OW37835  11.971   4.423  12.586  0.1610  0.1235 -0.9026
39948SOL    HW137836  11.980   4.505  12.635  1.9319  0.2670 -1.3928
39948SOL    HW237837  11.889   4.386  12.616  0.2525  1.1575  0.7304
39949SOL     OW37838  13.306   4.798   0.893  0.1343  0.1526  0.2876
39949SOL    HW137839  13.349   4.882   0.876  0.3964 -0.0793 -0.1969
39949SOL    HW237840  13.248   4.785   0.818 -1.8287  1.1051  1.5379
39950SOL     OW37841   0.269   5.545  12.840 -0.1270  0.5409 -0.3299
39950SOL    HW137842   0.269   5.582  12.929  0.4884  1.2241 -0.6112
39950SOL    HW237843   0.350   5.495  12.835  0.1581  1.0328 -0.7196
39951SOL     OW37844   0.529   1.692  10.995 -0.5333 -0.4287 -0.2826
39951SOL    HW137845   0.605   1.641  10.969 -0.0655  0.1624 -0.0998
39951SOL    HW237846   0.542   1.708  11.089 -0.2114  0.7857 -0.5202
39952SOL     OW37847   8.383   3.627   7.038  0.4677 -0.2173 -0.2724
39952SOL    HW137848   8.426   3.582   7.110  0.3344  0.6066  0.3372
39952SOL    HW237849   8.402   3.573   6.961  2.1261 -0.1837  0.0657
39953SOL     OW37850  11.031  11.956   4.116 -0.0513  0.4584  0.0551
39953SOL    HW137851  11.019  12.018   4.189 -0.4071 -0.3964  0.7433
39953SOL    HW237852  10.957  11.896   4.124 -0.1776  0.4385 -1.1168
39954SOL     OW37853   9.252   5.462   2.292  0.6407 -0.1073 -0.4090
39954SOL    HW137854   9.327   5.404   2.308 -1.3229 -2.8876 -0.4852
39954SOL    HW237855   9.252   5.476   2.198  1.8851  1.1617 -0.2371
39955SOL     OW37856   1.435   0.867   0.968  0.1735 -0.5014 -0.2172
39955SOL    HW137857   1.365   0.930   0.946 -0.7133 -1.8140 -1.3111
39955SOL    HW237858   1.500   0.919   1.015 -1.6139  0.7497  1.0153
39956SOL     OW37859  13.053   1.961   7.677  0.1909 -0.3280 -0.2007
39956SOL    HW137860  13.130   1.923   7.721  1.2186  0.7186 -1.0413
39956SOL    HW237861  12.985   1.894   7.687  0.9364 -0.9100  1.3328
39957SOL     OW37862   9.394   4.484   1.244  0.3409 -0.8415 -0.3122
39957SOL    HW137863   9.332   4.557   1.249 -0.5207 -1.5540 -0.3254
39957SOL    HW237864   9.376   4.431   1.321  3.3387  0.7242  1.6705
39958SOL     OW37865   6.414   5.531  10.280 -0.5169 -0.3006  0.2087
39958SOL    HW137866   6.485   5.514  10.218 -0.0275 -0.0459  0.6951
39958SOL    HW237867   6.346   5.468  10.256 -0.7300  0.4131 -1.2014
39959SOL     OW37868   4.737  10.080   7.962 -0.6396 -0.1248 -0.0998
39959SOL    HW137869   4.646  10.053   7.948 -0.6504 -0.0731 -0.1312
39959SOL    HW237870   4.766  10.110   7.876 -1.4183  2.3665  0.4361
39960SOL     OW37871   8.099   8.929  13.031  0.3986 -0.0175  0.2347
39960SOL    HW137872   8.125   8.949  13.121  2.2556 -0.1227 -0.2534
39960SOL    HW237873   8.167   8.968  12.977  1.6992 -3.5329 -0.9426
39961SOL     OW37874  12.622   7.689   8.697  0.2552  0.0814  0.2093
39961SOL    HW137875  12.528   7.700   8.707  0.4169  1.7545  0.2791
39961SOL    HW237876  12.633   7.644   8.613 -0.5901  0.2804 -0.0113
39962SOL     OW37877   5.724   9.702   7.103  0.1186 -0.2832 -0.6991
39962SOL    HW137878   5.658   9.706   7.172 -0.4928  0.6061 -1.3069
39962SOL    HW237879   5.761   9.614   7.109 -1.0559 -0.7594 -0.2833
39963SOL     OW37880   4.719   2.836  13.826  0.0291 -0.4585  0.4494
39963SOL    HW137881   4.728   2.776  13.900  2.5039 -1.1962 -0.3605
39963SOL    HW237882   4.684   2.781  13.756  0.3594 -0.4626  0.2868
39964SOL     OW37883  12.983   1.029  12.544  0.2214 -0.0009 -0.0341
39964SOL    HW137884  13.038   0.952  12.552 -0.5814 -0.5455  0.3723
39964SOL    HW237885  12.936   1.016  12.461 -0.1462 -0.1145  0.1872
39965SOL     OW37886   0.495  10.108   3.133  0.4046  0.7430 -0.2238
39965SOL    HW137887   0.464  10.071   3.215 -1.4745 -2.0731 -2.0401
39965SOL    HW237888   0.578  10.063   3.116 -1.6317 -2.6319 -2.1781
39966SOL     OW37889  12.900   9.531   1.207 -0.2728  0.0280  0.0746
39966SOL    HW137890  12.963   9.536   1.135 -1.4545 -0.7365 -1.0507
39966SOL    HW237891  12.830   9.592   1.181  0.3935  1.6050  1.7649
39967SOL     OW37892   0.789  12.613  10.609  0.6345  0.5349  0.0956
39967SOL    HW137893   0.789  12.630  10.515 -0.0778 -0.5686 -0.1186
39967SOL    HW237894   0.861  12.666  10.643  0.9331  0.9042 -1.0741
39968SOL     OW37895  10.206   4.031  10.862 -0.7034 -0.2673 -0.1832
39968SOL    HW137896  10.181   4.123  10.851 -1.7358 -0.4287  0.7090
39968SOL    HW237897  10.286   4.035  10.914  0.5918  0.1993 -2.0933
39969SOL     OW37898   4.499  13.815   8.956  0.0542 -0.2588  0.1370
39969SOL    HW137899   4.501  13.887   8.893 -1.1009 -0.7818 -0.5262
39969SOL    HW237900   4.515  13.737   8.903  0.5056 -0.5777  0.7300
39970SOL     OW37901  11.762   1.083   2.529 -0.0723 -0.4553 -0.3990
39970SOL    HW137902  11.713   1.160   2.502 -0.0528 -0.3232 -0.0615
39970SOL    HW237903  11.724   1.011   2.480 -1.1601 -0.4921  0.4654
39971SOL     OW37904   5.657   6.287   7.409  0.0760 -0.1681 -0.1618
39971SOL    HW137905   5.747   6.283   7.378  0.2246  1.2689  0.0353
39971SOL    HW237906   5.629   6.377   7.393 -1.1933 -0.4707  0.1713
39972SOL     OW37907   6.507   2.772   6.193 -0.2593 -0.0022  0.3395
39972SOL    HW137908   6.600   2.795   6.195 -0.4757  0.8953  0.5247
39972SOL    HW237909   6.500   2.705   6.126  0.8341 -1.5009  1.6321
39973SOL     OW37910   5.734   1.338  11.387 -0.2564 -0.1382 -0.2577
39973SOL    HW137911   5.674   1.287  11.332  0.9180 -0.5316 -1.2259
39973SOL    HW237912   5.819   1.296  11.375  0.8172  2.1097 -1.2705
39974SOL     OW37913   6.273   5.694   8.855 -0.8674  0.1492 -0.0873
39974SOL    HW137914   6.276   5.777   8.903  1.1165 -0.6993  1.4041
39974SOL    HW237915   6.265   5.628   8.924 -1.2602 -0.9572 -1.1737
39975SOL     OW37916   0.487   1.077  10.061  0.2381 -0.1598 -0.1757
39975SOL    HW137917   0.489   1.082  10.157 -1.5135  2.7313 -0.1685
39975SOL    HW237918   0.523   0.990  10.041  1.0012 -0.7321  3.0475
39976SOL     OW37919  12.805   8.793   5.632  0.1554 -0.3409  0.6511
39976SOL    HW137920  12.883   8.750   5.595 -0.2160 -1.1600  0.7948
39976SOL    HW237921  12.732   8.750   5.588 -0.2242  0.4438  0.5028
39977SOL     OW37922   5.193   5.522  13.737 -0.2769  0.4343  0.1054
39977SOL    HW137923   5.158   5.514  13.648 -1.1686  0.2399  0.4634
39977SOL    HW237924   5.144   5.595  13.775 -0.4888 -0.0139  0.7020
39978SOL     OW37925   5.870   1.698   3.998  0.0464 -0.5612 -0.5276
39978SOL    HW137926   5.870   1.604   4.013  0.3789 -0.6033 -0.7709
39978SOL    HW237927   5.950   1.729   4.041 -1.6293  0.1039  2.4132
39979SOL     OW37928  14.080  14.138   7.806 -0.5833  0.1284  0.1049
39979SOL    HW137929  14.069  14.059   7.753 -2.6622  1.0659 -1.0140
39979SOL    HW237930  14.169  14.167   7.787 -0.9040 -0.1403 -2.1591
39980SOL     OW37931   1.090   3.783  14.142 -0.5540  0.1749 -0.3644
39980SOL    HW137932   1.094   3.875  14.116 -2.0596  0.4912  0.4147
39980SOL    HW237933   1.153   3.776  14.214 -0.0867  0.4706 -0.7374
39981SOL     OW37934   4.640   2.752   1.092 -0.4658 -1.0189 -0.1009
39981SOL    HW137935   4.587   2.733   1.169 -1.3011  0.4188 -0.2830
39981SOL    HW237936   4.717   2.796   1.126 -0.9018 -0.2565 -0.0848
39982SOL     OW37937   8.705  10.595   8.752  0.6075  0.2049 -0.5006
39982SOL    HW137938   8.659  10.608   8.835 -0.4497 -1.4753 -0.7731
39982SOL    HW237939   8.739  10.681   8.729 -3.2752  1.8186 -0.8041
39983SOL     OW37940   5.883  13.249  10.616  0.0164 -0.2160 -0.6751
39983SOL    HW137941   5.901  13.229  10.708 -0.8355 -0.6081 -0.5839
39983SOL    HW237942   5.969  13.254  10.575  0.3458 -2.1042 -0.2772
39984SOL     OW37943   0.370   7.632   9.046 -0.3426 -0.1099  0.2884
39984SOL    HW137944   0.305   7.625   8.976 -0.0983 -1.9125  0.2164
39984SOL    HW237945   0.339   7.707   9.099 -1.3609  0.3208 -0.8580
39985SOL     OW37946  11.805   9.046   5.696 -0.7176 -0.8538 -0.0228
39985SOL    HW137947  11.900   9.053   5.699 -0.7963  0.0743  0.6555
39985SOL    HW237948  11.783   8.979   5.761 -0.5224 -1.1606 -0.2727
39986SOL     OW37949   4.415   3.218  10.512  0.5344 -0.8460 -0.0355
39986SOL    HW137950   4.421   3.314  10.510  1.7060 -0.8999  0.4170
39986SOL    HW237951   4.359   3.199  10.587 -0.6774 -0.4920 -0.8248
39987SOL     OW37952   0.957   5.924   2.645 -0.6393  0.1413  0.1262
39987SOL    HW137953   0.983   5.853   2.587  0.0565 -1.0936  1.8920
39987SOL    HW237954   0.861   5.923   2.642 -0.7748 -2.6012  2.0281
39988SOL     OW37955   5.129   8.254   4.927  0.1210 -0.4196 -0.4242
39988SOL    HW137956   5.214   8.218   4.903  0.6664  0.1577  0.5986
39988SOL    HW237957   5.141   8.349   4.921 -0.8170 -0.3495 -1.4776
39989SOL     OW37958   2.913   1.754   9.753  0.0821  0.1041 -0.4083
39989SOL    HW137959   2.924   1.723   9.842  0.6736 -1.2018 -0.9165
39989SOL    HW237960   2.819   1.747   9.736 -0.0301  0.3554  0.1054
39990SOL     OW37961   1.035   8.421  11.903  0.9624  0.5175 -0.3027
39990SOL    HW137962   1.103   8.356  11.884  1.0984  0.9526 -1.3736
39990SOL    HW237963   0.973   8.375  11.960  2.1902  0.1415  0.7582
39991SOL     OW37964   3.647   2.997   1.780  0.1041 -0.1027 -0.8391
39991SOL    HW137965   3.682   3.029   1.697  0.1445 -0.6137 -1.0205
39991SOL    HW237966   3.607   2.913   1.759  0.5345 -0.4639 -0.2475
39992SOL     OW37967   9.620   9.574  12.598 -0.0042  0.1509  0.0977
39992SOL    HW137968   9.619   9.479  12.589  0.7750  0.0737  0.6576
39992SOL    HW237969   9.711   9.598  12.583  0.1767  0.6004  1.6829
39993SOL     OW37970  11.110   9.639   1.585 -0.1810 -0.2928 -0.1775
39993SOL    HW137971  11.084   9.730   1.572 -1.7720 -0.7804 -0.6681
39993SOL    HW237972  11.202   9.643   1.613 -0.5291  1.4988  0.8172
39994SOL     OW37973  10.137   1.683  11.800  0.2495 -0.5057 -0.1122
39994SOL    HW137974  10.098   1.635  11.727 -2.0027  0.3154  0.4592
39994SOL    HW237975  10.103   1.772  11.791 -0.8896 -0.5884  2.4111
39995SOL     OW37976   7.159   2.859  10.329  0.3160  0.7202 -0.0310
39995SOL    HW137977   7.073   2.861  10.288 -0.5416 -0.3015  1.6294
39995SOL    HW237978   7.166   2.941  10.377  0.1702  0.6789  0.0581
39996SOL     OW37979  14.151   5.087   3.132 -0.2357  0.3869  0.1544
39996SOL    HW137980  14.190   5.121   3.051 -1.5563  0.4750 -0.4739
39996SOL    HW237981  14.126   4.997   3.111  1.1691 -0.2561  1.0959
39997SOL     OW37982   6.235   2.585   7.200  0.5000 -0.3247 -0.2891
39997SOL    HW137983   6.296   2.656   7.180  1.6037 -1.2783 -0.4017
39997SOL    HW237984   6.158   2.604   7.146  0.4648  1.1755  0.2381
39998SOL     OW37985   9.083   9.620  14.134  0.1246  0.3472 -0.3831
39998SOL    HW137986   9.124   9.652  14.053  0.1513  0.4606 -0.3235
39998SOL    HW237987   9.064   9.528  14.116 -1.9611  0.9020 -1.3705
39999SOL     OW37988   2.294   4.912  12.494 -0.3981  0.3381  0.3666
39999SOL    HW137989   2.242   4.958  12.429  2.5096  3.0887 -0.2211
39999SOL    HW237990   2.294   4.821  12.465 -3.8258  0.3527 -0.1445
40000SOL     OW37991  13.373   5.463   3.123  0.4503 -0.3940 -0.3199
40000SOL    HW137992  13.359   5.525   3.195 -0.2309  0.1269 -0.8893
40000SOL    HW237993  13.346   5.378   3.159 -1.1210  0.0722 -0.3593
40001SOL     OW37994  12.271   9.193   2.212 -0.2424 -0.3265 -0.2650
40001SOL    HW137995  12.189   9.172   2.166 -0.4641 -1.2824  0.5328
40001SOL    HW237996  12.313   9.258   2.156 -1.2064 -0.3489 -1.0591
40002SOL     OW37997  11.691   3.168   4.435  0.1103  0.3296 -0.0114
40002SOL    HW137998  11.746   3.168   4.357  1.7939 -0.3864  1.1133
40002SOL    HW237999  11.649   3.082   4.435 -0.0149  0.3905 -0.2113
40003SOL     OW38000  11.654   1.705   6.424  0.1988 -0.3127  0.0447
40003SOL    HW138001  11.614   1.695   6.510 -0.1661 -1.1716 -0.2097
40003SOL    HW238002  11.738   1.659   6.430  0.8131  0.8207  0.3451
40004SOL     OW38003   1.379   9.283   0.743 -0.1243  0.4586  0.2532
40004SOL    HW138004   1.300   9.305   0.693 -0.4885 -0.3624  0.4572
40004SOL    HW238005   1.377   9.188   0.750 -0.3633  0.5827  2.3089
40005SOL     OW38006  11.387   3.064   4.304  0.5527  0.3744  0.2376
40005SOL    HW138007  11.317   3.110   4.351 -0.4270  0.9919 -1.6879
40005SOL    HW238008  11.450   3.040   4.372  0.7164  3.7840  1.5061
40006SOL     OW38009   9.226   7.679   9.273  0.0432  0.0669  0.1124
40006SOL    HW138010   9.273   7.761   9.288 -1.1637  0.8132 -0.0999
40006SOL    HW238011   9.277   7.635   9.205  2.6352 -0.9763  2.5242
40007SOL     OW38012   2.603  11.068   7.191  0.1565  0.4042  0.2353
40007SOL    HW138013   2.592  11.123   7.269  1.2347  0.6644  0.2228
40007SOL    HW238014   2.642  11.127   7.126 -0.5314  0.1324 -0.4379
40008SOL     OW38015   0.397  11.703  11.441 -0.0358  0.4444  0.0761
40008SOL    HW138016   0.354  11.784  11.470  0.5247  0.2059  1.6266
40008SOL    HW238017   0.394  11.709  11.345  0.4807  2.5751  0.1303
40009SOL     OW38018   7.255   1.012   9.329 -0.5735 -0.0402 -0.2816
40009SOL    HW138019   7.333   0.998   9.275  0.6155  1.5683  0.8964
40009SOL    HW238020   7.245   0.931   9.379  1.2116  0.1920  0.5394
40010SOL     OW38021   8.316   9.632  13.831  0.0122 -0.4256  1.0306
40010SOL    HW138022   8.312   9.631  13.735  0.6609 -0.0771  0.9938
40010SOL    HW238023   8.291   9.721  13.855 -2.5221 -1.1180  1.3375
40011SOL     OW38024  11.580  12.239   7.248 -0.5310  0.0278  0.1472
40011SOL    HW138025  11.593  12.145   7.260  0.2757  0.0586 -0.4142
40011SOL    HW238026  11.657  12.268   7.198 -0.4871  1.0910  0.8027
40012SOL     OW38027   8.254   7.685   8.348  0.3816 -0.0632 -0.4842
40012SOL    HW138028   8.298   7.696   8.433 -0.4680 -4.4253  0.7480
40012SOL    HW238029   8.323   7.696   8.283  1.6606  0.5068  0.9213
40013SOL     OW38030   6.918   4.291   9.262  0.3500  0.2404 -0.0982
40013SOL    HW138031   6.935   4.318   9.352  0.7943  2.3329 -0.7398
40013SOL    HW238032   6.998   4.247   9.234 -0.1568 -1.3025  0.8044
40014SOL     OW38033   9.029   1.505   3.790  0.1899  0.2962 -0.1644
40014SOL    HW138034   9.112   1.511   3.743  0.2613  0.2361 -0.0446
40014SOL    HW238035   8.964   1.493   3.721  0.2431  0.6697 -0.2801
40015SOL     OW38036   6.612  14.146  13.868 -0.3866  0.1840 -0.2425
40015SOL    HW138037   6.663  14.184  13.940 -0.0822 -1.3023  0.3779
40015SOL    HW238038   6.665  14.162  13.790  1.8415 -2.4576  0.5374
40016SOL     OW38039   8.378   1.250   7.965  0.0508 -0.7305 -0.0354
40016SOL    HW138040   8.315   1.260   7.894 -0.0389  1.4543  0.2970
40016SOL    HW238041   8.453   1.206   7.924 -0.4603 -0.5686 -1.1803
40017SOL     OW38042  11.730   1.606   9.271 -0.3824 -0.6251 -0.0548
40017SOL    HW138043  11.814   1.567   9.247  1.8603  3.6359 -0.0842
40017SOL    HW238044  11.720   1.586   9.364  1.1405 -0.5717  0.1520
40018SOL     OW38045   3.785   0.551   9.549  0.1947  0.6014  0.1230
40018SOL    HW138046   3.708   0.499   9.524  0.3731  0.6628 -0.5604
40018SOL    HW238047   3.764   0.583   9.637  0.8020 -2.0813  1.3714
40019SOL     OW38048   0.988   7.015   7.071  0.2304 -0.5943  0.0868
40019SOL    HW138049   0.971   7.040   7.162 -1.3813 -0.3093 -0.2720
40019SOL    HW238050   1.055   6.946   7.078  0.0397 -0.6699  1.4942
40020SOL     OW38051  11.374   8.427   1.127  0.3701 -0.2374 -0.5707
40020SOL    HW138052  11.461   8.426   1.086  0.1903  0.0333 -0.9723
40020SOL    HW238053  11.370   8.511   1.173  0.5247 -0.4874 -0.0946
40021SOL     OW38054   4.762   2.031  12.670  0.1895  0.1323  0.3428
40021SOL    HW138055   4.694   2.076  12.720 -0.4374  1.1874 -1.3371
40021SOL    HW238056   4.836   2.025  12.730 -0.2764  1.9672  1.1929
40022SOL     OW38057  10.466   4.792   3.714 -0.1037 -0.3011 -0.1238
40022SOL    HW138058  10.393   4.746   3.755 -0.4967  0.5824  0.1935
40022SOL    HW238059  10.485   4.865   3.773  2.7532 -1.9325  1.1886
40023SOL     OW38060  12.552   9.721   5.872  0.1855 -0.0294 -0.0150
40023SOL    HW138061  12.520   9.786   5.809  0.9247 -0.1989 -0.5842
40023SOL    HW238062  12.509   9.639   5.846 -2.0122  0.5024  1.6938
40024SOL     OW38063  13.124   8.377   8.127  0.1570 -0.7964 -0.2052
40024SOL    HW138064  13.191   8.419   8.182 -1.0002 -0.4102  0.9465
40024SOL    HW238065  13.076   8.450   8.089 -0.2547 -1.0733 -0.2163
40025SOL     OW38066   7.951   7.683   5.521 -0.3910  0.5574 -0.0443
40025SOL    HW138067   8.045   7.674   5.532 -0.2076  1.1445 -1.0412
40025SOL    HW238068   7.930   7.765   5.565 -0.7381 -0.4315  1.7207
40026SOL     OW38069   1.651   4.252   0.921 -0.2805 -0.2997  0.1493
40026SOL    HW138070   1.589   4.208   0.862 -0.6767 -0.8986  1.0056
40026SOL    HW238071   1.637   4.212   1.006  0.1644  0.6862  0.7073
40027SOL     OW38072   9.465   3.073   3.378 -0.4904 -0.2062  0.5816
40027SOL    HW138073   9.463   2.981   3.354  0.6623  0.3204 -1.8859
40027SOL    HW238074   9.411   3.116   3.311  0.8589  1.1375  0.3037
40028SOL     OW38075  14.138   1.093   3.153 -0.3634 -0.4352 -0.7497
40028SOL    HW138076  14.181   1.130   3.076  0.7361  0.2602  0.1535
40028SOL    HW238077  14.164   1.001   3.152  2.1201  0.1688  0.3204
40029SOL     OW38078   9.537   5.489  12.233 -0.1256 -0.1558 -0.0336
40029SOL    HW138079   9.609   5.442  12.275 -0.6801 -0.2302  0.8445
40029SOL    HW238080   9.485   5.524  12.305 -1.5270 -0.9452 -0.6206
40030SOL     OW38081   5.637   5.575  13.259  0.1745 -0.1207  0.0315
40030SOL    HW138082   5.718   5.554  13.212  0.0908  0.1555 -0.2323
40030SOL    HW238083   5.659   5.558  13.351  0.1041 -1.3835 -0.1707
40031SOL     OW38084   2.436   0.044   7.553  0.1885 -0.3264  0.1269
40031SOL    HW138085   2.460   0.093   7.632  1.4180 -2.1359  0.9540
40031SOL    HW238086   2.412  -0.043   7.585  0.3007 -0.9737 -1.4622
40032SOL     OW38087  12.538   8.347   5.021 -0.3310  0.0151  0.7149
40032SOL    HW138088  12.627   8.383   5.026  1.0019 -3.1199  2.5496
40032SOL    HW238089  12.547   8.266   4.971 -2.0787 -0.5270  1.2135
40033SOL     OW38090   8.732   8.374   3.408 -0.1705  0.0403 -0.1585
40033SOL    HW138091   8.748   8.280   3.417 -2.0678 -0.1587  2.1749
40033SOL    HW238092   8.794   8.415   3.468 -0.3335  0.1910 -0.0941
40034SOL     OW38093  13.631   6.559   9.336 -0.0665 -0.0155 -0.1132
40034SOL    HW138094  13.597   6.494   9.275 -1.3219  0.3053  0.2206
40034SOL    HW238095  13.666   6.629   9.280  1.1215 -0.8616 -0.4711
40035SOL     OW38096   5.570   5.364  10.866  0.2101 -0.4322 -0.6274
40035SOL    HW138097   5.499   5.345  10.927  0.6862  0.1895  0.1416
40035SOL    HW238098   5.635   5.412  10.918  0.8639 -0.3429 -1.4928
40036SOL     OW38099  10.429  11.921   0.101  0.7366 -0.0294  0.0442
40036SOL    HW138100  10.486  11.932   0.177  1.0073 -0.1682 -0.1353
40036SOL    HW238101  10.383  12.004   0.092  0.7876  0.0230  0.2937
40037SOL     OW38102   4.792   9.642  12.893  0.1351 -0.6457  0.4552
40037SOL    HW138103   4.772   9.631  12.800 -0.4843 -0.9356  0.6140
40037SOL    HW238104   4.769   9.557  12.932  2.9805 -1.4975  0.4652
40038SOL     OW38105  11.615   1.783   2.417  0.1860 -0.2270 -0.3715
40038SOL    HW138106  11.532   1.812   2.378 -0.3337 -1.1830 -0.0312
40038SOL    HW238107  11.621   1.690   2.391  1.3363 -0.0705 -0.6891
40039SOL     OW38108   1.560   4.851  13.974  0.7168 -0.4553 -0.6824
40039SOL    HW138109   1.612   4.780  13.937  0.6713 -0.5234 -0.6156
40039SOL    HW238110   1.520   4.894  13.898  0.1733 -0.9401 -0.6755
40040SOL     OW38111  13.295   9.219   1.800 -0.1596 -0.0201  0.7657
40040SOL    HW138112  13.325   9.269   1.725 -2.8631 -0.1161 -0.5132
40040SOL    HW238113  13.217   9.173   1.769  1.1077 -3.6095  2.4105
40041SOL     OW38114   8.683   2.555   1.388  0.0597 -0.0002  0.2437
40041SOL    HW138115   8.628   2.477   1.388  0.5684 -0.3873 -0.9949
40041SOL    HW238116   8.743   2.542   1.461  0.6963 -1.1946 -0.4635
40042SOL     OW38117   1.491   0.176   1.140 -0.3894 -0.1442  0.1442
40042SOL    HW138118   1.437   0.228   1.081  0.3472  1.3624  0.7579
40042SOL    HW238119   1.478   0.086   1.111 -0.7070  0.4766 -1.7807
40043SOL     OW38120   0.015   3.734   4.171 -0.7699 -0.1707  0.3180
40043SOL    HW138121   0.069   3.720   4.094  1.9571 -1.6259  2.3553
40043SOL    HW238122   0.001   3.829   4.173  1.4558  0.2247 -0.4588
40044SOL     OW38123   9.419  10.560   3.419 -0.1113  0.4243  0.2426
40044SOL    HW138124   9.506  10.521   3.410  0.1797  1.2859 -0.9727
40044SOL    HW238125   9.362  10.503   3.366 -0.0652  0.5005  0.1091
40045SOL     OW38126  12.117   9.489   0.963  1.0086  0.1584  0.1617
40045SOL    HW138127  12.157   9.403   0.976 -0.5690 -0.8105 -1.0224
40045SOL    HW238128  12.027   9.478   0.992  1.2140  1.9357  1.6203
40046SOL     OW38129   5.125  13.708   0.751  0.2858 -0.0828  0.2726
40046SOL    HW138130   5.046  13.673   0.708 -0.1423 -1.1786  1.8804
40046SOL    HW238131   5.176  13.631   0.773  2.2481  0.6457 -1.4297
40047SOL     OW38132   7.960   5.912   1.147  0.0716 -0.4080 -0.2890
40047SOL    HW138133   7.950   5.894   1.241 -1.3431 -0.9898 -0.5268
40047SOL    HW238134   8.053   5.933   1.137  0.3105 -0.6075  1.1951
40048SOL     OW38135   3.706   5.355  13.176 -0.2991 -0.4538  0.1287
40048SOL    HW138136   3.613   5.361  13.197 -0.3145 -0.9970  0.2267
40048SOL    HW238137   3.708   5.355  13.080 -0.3567  0.1015  0.1213
40049SOL     OW38138   9.891   6.997   0.206 -0.0555  0.3323 -0.0246
40049SOL    HW138139   9.886   7.092   0.202 -0.7315  0.4134  1.7587
40049SOL    HW238140   9.799   6.968   0.210  0.1498 -0.2298  1.4186
40050SOL     OW38141   8.483   8.254   8.370 -0.2860  0.0578  0.0155
40050SOL    HW138142   8.549   8.290   8.310  0.4546  0.7705  1.2046
40050SOL    HW238143   8.516   8.275   8.457 -1.1674 -1.2328  0.7009
40051SOL     OW38144   8.807  10.228  12.034 -0.1805  0.2828  0.0958
40051SOL    HW138145   8.747  10.167  11.991 -0.9064  1.1809 -0.2056
40051SOL    HW238146   8.820  10.191  12.122 -1.8829  0.5094  0.4847
40052SOL     OW38147   8.637   3.209  13.501 -0.3161 -0.0498  0.5598
40052SOL    HW138148   8.598   3.242  13.420 -0.0073  1.1117  0.8623
40052SOL    HW238149   8.730   3.199  13.480 -0.4825 -1.3100  0.3097
40053SOL     OW38150  10.641   9.522   1.208  0.2290  0.1700 -0.1689
40053SOL    HW138151  10.601   9.514   1.121  0.0183  2.2222 -0.2950
40053SOL    HW238152  10.567   9.537   1.266  0.4404 -0.4548  0.2688
40054SOL     OW38153   0.235   1.365   7.195 -0.1322 -0.1005  0.4696
40054SOL    HW138154   0.232   1.377   7.290 -0.3475  1.1853  0.3215
40054SOL    HW238155   0.152   1.320   7.175 -0.3739  0.1763  0.8221
40055SOL     OW38156   2.275  13.461   5.584 -0.3139 -0.0436 -0.6339
40055SOL    HW138157   2.196  13.411   5.563 -0.3277 -0.2648 -0.0697
40055SOL    HW238158   2.322  13.407   5.647  0.4551 -0.0616 -1.2100
40056SOL     OW38159   7.552  10.912  11.875 -0.0505 -0.0661 -0.0953
40056SOL    HW138160   7.518  10.957  11.797 -1.7708 -0.4075  0.4014
40056SOL    HW238161   7.647  10.919  11.868 -0.0593 -1.3579 -2.9975
40057SOL     OW38162  11.677   2.415   4.155  0.5525  0.1012  0.4688
40057SOL    HW138163  11.595   2.462   4.169 -0.0667 -0.5058 -0.9822
40057SOL    HW238164  11.736   2.480   4.118  0.6767  0.4862  1.3218
40058SOL     OW38165   7.114   0.697  12.787  0.4579 -0.2904  0.3151
40058SOL    HW138166   7.175   0.685  12.860  0.4414 -0.5663  0.2857
40058SOL    HW238167   7.038   0.644  12.810 -0.4725  1.3043  1.1265
40059SOL     OW38168   1.026   9.547  13.207 -0.4015 -0.4247  0.7504
40059SOL    HW138169   1.114   9.572  13.179 -1.8588  3.3910 -1.0430
40059SOL    HW238170   1.021   9.576  13.298  0.0154 -0.1281  0.6805
40060SOL     OW38171  10.977   1.020   8.333 -0.0793 -0.4864 -0.2257
40060SOL    HW138172  10.984   0.950   8.267 -0.8936  0.9391 -1.9028
40060SOL    HW238173  10.921   0.983   8.401  0.1976 -1.7692 -0.6611
40061SOL     OW38174   6.227   6.836   6.048  0.2273 -0.2263  0.5771
40061SOL    HW138175   6.214   6.767   5.983  0.0029  0.8602 -0.5673
40061SOL    HW238176   6.304   6.808   6.098  2.6353  0.5236 -2.4141
40062SOL     OW38177  11.674   1.379   4.773 -0.5842  0.0306 -0.0590
40062SOL    HW138178  11.585   1.415   4.780 -1.0078 -1.1871  1.1754
40062SOL    HW238179  11.671   1.297   4.821  1.7052  0.8405  1.6526
40063SOL     OW38180   8.145   9.078   2.996  0.1155  0.5682 -0.6250
40063SOL    HW138181   8.138   9.142   2.925 -1.2292  0.7986 -0.3280
40063SOL    HW238182   8.232   9.040   2.987  1.1148  2.7168 -0.5798
40064SOL     OW38183   6.240   6.266  11.401  0.2005  0.5624 -0.4908
40064SOL    HW138184   6.334   6.280  11.389  0.1571  1.7835  0.3830
40064SOL    HW238185   6.219   6.191  11.345  1.6368  0.4457 -0.9033
40065SOL     OW38186  10.780   3.486   8.743  0.0115 -0.0485  0.1950
40065SOL    HW138187  10.823   3.420   8.797  0.4128  0.5446  0.6067
40065SOL    HW238188  10.851   3.542   8.712  0.1148 -1.6430 -2.8213
40066SOL     OW38189   6.058   6.086   7.901 -0.5557  0.2566 -0.6866
40066SOL    HW138190   6.019   6.118   7.982  0.8549  1.2996 -0.3703
40066SOL    HW238191   6.132   6.145   7.886  0.3870 -1.1314 -1.6840
40067SOL     OW38192   0.140  13.013  14.015  0.0399  0.1547 -0.0184
40067SOL    HW138193   0.103  12.969  14.091 -1.0165 -1.9723 -1.6777
40067SOL    HW238194   0.108  13.103  14.021 -1.9077 -0.5573  0.8361
40068SOL     OW38195   8.671   2.983   1.845 -0.4317 -0.2199  0.3137
40068SOL    HW138196   8.583   3.004   1.814 -0.0218 -1.1337 -1.5798
40068SOL    HW238197   8.725   2.984   1.767  1.3331  0.6017  1.4879
40069SOL     OW38198   8.721  10.496   5.014 -0.0997 -0.2868  0.3763
40069SOL    HW138199   8.696  10.505   5.106  1.9018  1.0668  0.8555
40069SOL    HW238200   8.792  10.432   5.015 -0.8716 -1.1878 -0.4281
40070SOL     OW38201   3.180   2.641   2.870 -0.4493  0.0360 -0.5382
40070SOL    HW138202   3.109   2.649   2.933 -1.2878 -0.9290 -1.3321
40070SOL    HW238203   3.225   2.560   2.894  0.7686  0.9167  0.3049
40071SOL     OW38204   6.389  12.697  11.733  0.1109 -0.0257 -0.4092
40071SOL    HW138205   6.322  12.763  11.715  0.7587  0.3138 -1.7411
40071SOL    HW238206   6.365  12.624  11.675  1.2622  0.3793 -1.4378
40072SOL     OW38207   0.194  13.182   0.209 -0.5883 -0.2190 -0.2809
40072SOL    HW138208   0.263  13.150   0.150 -1.2999 -0.2788 -1.0944
40072SOL    HW238209   0.216  13.142   0.294  1.1539  0.8636 -0.1714
40073SOL     OW38210   4.455  13.987   7.262 -0.7493 -0.2944  0.3320
40073SOL    HW138211   4.539  14.029   7.283 -0.3303 -0.6605 -0.5941
40073SOL    HW238212   4.421  13.959   7.347  0.9191 -1.7522  0.5664
40074SOL     OW38213  11.729   8.154   9.073  0.1209 -0.3342  0.4981
40074SOL    HW138214  11.691   8.169   8.987 -2.1271 -0.9583  1.3110
40074SOL    HW238215  11.715   8.236   9.120 -0.6707 -0.7134  0.9434
40075SOL     OW38216   9.173  11.677   6.226  0.6852  0.3857 -0.2873
40075SOL    HW138217   9.233  11.673   6.151 -0.6894 -0.5160 -1.3844
40075SOL    HW238218   9.086  11.665   6.188 -0.1483  0.9078  1.3527
40076SOL     OW38219   6.008   6.310   4.201  0.3717 -1.1465  0.0100
40076SOL    HW138220   5.977   6.260   4.277  1.3653 -1.5894  0.1396
40076SOL    HW238221   6.096   6.338   4.225  0.0791  0.1363 -0.3291
40077SOL     OW38222   8.768   7.750   6.382  0.5404 -0.0552 -0.1531
40077SOL    HW138223   8.736   7.659   6.384 -0.7115  0.3695  1.1661
40077SOL    HW238224   8.789   7.769   6.474  1.9752  0.6125 -0.5945
40078SOL     OW38225  12.876   3.921  11.254  0.2315  0.1084 -0.1395
40078SOL    HW138226  12.865   3.826  11.244  0.4301 -0.3051  2.6501
40078SOL    HW238227  12.788   3.956  11.241  0.4097 -0.2159 -2.6834
40079SOL     OW38228   0.388   8.814   8.438  0.8008  0.0570  0.0186
40079SOL    HW138229   0.311   8.797   8.493 -0.0717  1.1977 -0.7983
40079SOL    HW238230   0.456   8.842   8.500 -0.1383  1.2553  0.5533
40080SOL     OW38231   8.948   2.091   7.589 -0.4681  0.2372  0.1882
40080SOL    HW138232   8.905   2.023   7.537  0.4838  0.7413 -1.3314
40080SOL    HW238233   8.963   2.050   7.674  0.2070 -1.5227 -0.7243
40081SOL     OW38234   7.901   1.124   8.311  0.2379  0.1677 -0.2941
40081SOL    HW138235   7.920   1.103   8.220 -2.0389 -2.1929 -0.3533
40081SOL    HW238236   7.811   1.159   8.310 -1.2661 -3.1534  1.2329
40082SOL     OW38237   5.462  10.655   0.625  0.2923  0.3458  0.1476
40082SOL    HW138238   5.510  10.733   0.653 -1.0267  0.7338  1.4323
40082SOL    HW238239   5.438  10.673   0.535 -0.1625  1.5248  0.4878
40083SOL     OW38240   9.298   3.659  13.614 -0.5754  0.4314  0.6608
40083SOL    HW138241   9.233   3.724  13.587 -1.1942 -0.4928 -0.1544
40083SOL    HW238242   9.312   3.675  13.707 -0.9529  1.5151  0.5382
40084SOL     OW38243   2.530  13.586  13.674 -0.1713 -0.6511  0.6351
40084SOL    HW138244   2.494  13.618  13.757 -1.1973  1.1143 -0.4338
40084SOL    HW238245   2.582  13.510  13.699 -1.8835 -1.2560  2.6859
40085SOL     OW38246   8.104   2.814   7.673 -0.7954  0.3363  0.3829
40085SOL    HW138247   8.068   2.755   7.739 -0.9215 -0.1492 -0.1088
40085SOL    HW238248   8.095   2.901   7.710 -1.5793  0.1316  0.6737
40086SOL     OW38249  12.531   6.729  11.891  0.5100 -0.4608 -0.4454
40086SOL    HW138250  12.608   6.747  11.945  0.3364  0.7922 -0.5989
40086SOL    HW238251  12.566   6.686  11.813  1.0130 -0.2437 -0.3412
40087SOL     OW38252   0.661   1.712  13.823  0.0138 -0.4772  0.3333
40087SOL    HW138253   0.614   1.637  13.785 -1.3509 -0.2569  1.4758
40087SOL    HW238254   0.596   1.782  13.825  0.9471  0.4014  0.3128
40088SOL     OW38255   5.164   0.327   7.685 -0.0062 -0.4664 -0.3382
40088SOL    HW138256   5.254   0.357   7.698 -0.0030 -1.3822  2.4234
40088SOL    HW238257   5.166   0.234   7.710 -1.6738 -0.5437 -0.4170
40089SOL     OW38258  13.210  10.540  11.935  0.5301 -0.6122 -0.0122
40089SOL    HW138259  13.229  10.449  11.957 -0.5935 -0.5889  1.1357
40089SOL    HW238260  13.165  10.575  12.012  0.1075  0.6496 -0.7997
40090SOL     OW38261   2.973   8.591   6.079  0.2803  0.4395  0.1313
40090SOL    HW138262   2.899   8.585   6.018  0.2375 -0.2235  0.2439
40090SOL    HW238263   2.941   8.551   6.160  0.7799  0.0934  0.1626
40091SOL     OW38264   7.358   4.993   2.255 -0.5981 -0.1384 -0.7476
40091SOL    HW138265   7.274   5.034   2.277 -0.9273 -0.0158 -2.1413
40091SOL    HW238266   7.338   4.900   2.248 -0.8643 -0.0058 -2.0471
40092SOL     OW38267   7.501   9.942   2.569  0.4362  0.1308 -0.1122
40092SOL    HW138268   7.596   9.932   2.562  0.6086  0.8412  0.9019
40092SOL    HW238269   7.487   9.972   2.659 -0.5898  1.6854 -0.7440
40093SOL     OW38270  12.661  12.661  12.789  0.2190  0.3490  0.0662
40093SOL    HW138271  12.729  12.630  12.729 -0.3637 -0.1317 -0.3534
40093SOL    HW238272  12.677  12.755  12.796  0.3504  0.3996 -0.7759
40094SOL     OW38273  13.357   1.255  13.961 -0.7839 -0.5213 -0.2911
40094SOL    HW138274  13.351   1.185  14.026 -1.4456 -0.5348 -0.3537
40094SOL    HW238275  13.322   1.215  13.881 -0.6647 -0.2803 -0.4633
40095SOL     OW38276  11.524   1.193  13.955 -0.8535 -0.1672  0.3279
40095SOL    HW138277  11.492   1.281  13.976  2.2170  0.8634  1.1360
40095SOL    HW238278  11.554   1.158  14.038  0.6369 -0.7767 -0.4339
40096SOL     OW38279   9.330   9.259   7.184 -0.2509 -0.2204  0.0215
40096SOL    HW138280   9.309   9.192   7.120 -0.6448 -0.4287  0.3644
40096SOL    HW238281   9.411   9.299   7.151 -0.4864 -0.2743 -0.6360
40097SOL     OW38282  13.877   8.079   9.474 -0.1207 -0.2868  0.3468
40097SOL    HW138283  13.916   8.051   9.392 -1.5867  1.1559 -0.9072
40097SOL    HW238284  13.934   8.043   9.542  2.7363  0.7783 -1.3288
40098SOL     OW38285   5.713   8.617  11.997  0.5399  0.4286  0.0012
40098SOL    HW138286   5.807   8.607  12.015  0.7649 -0.8867 -1.6563
40098SOL    HW238287   5.671   8.556  12.057  0.7438  0.8176  0.5542
40099SOL     OW38288   3.982  12.647   1.131  0.3455  0.0985 -0.1970
40099SOL    HW138289   4.055  12.600   1.090 -0.1511 -0.7682 -0.0980
40099SOL    HW238290   4.025  12.708   1.192  1.1566  2.1720 -2.6668
40100SOL     OW38291   5.931  13.968   6.742  0.2573  0.1960 -0.3151
40100SOL    HW138292   5.863  14.002   6.683  0.4430  0.2129 -0.5214
40100SOL    HW238293   6.011  13.970   6.690 -0.2560 -3.9213 -1.6830
40101SOL     OW38294   7.961   2.423   0.547  0.3829 -0.1181  0.0012
40101SOL    HW138295   8.032   2.486   0.560  0.1912  0.5974 -2.0709
40101SOL    HW238296   7.890   2.455   0.603  0.7863  0.7003  0.0596
40102SOL     OW38297  12.417   1.715   0.874  0.5217  0.0281  0.4447
40102SOL    HW138298  12.420   1.619   0.879  0.4368 -0.0079 -0.2102
40102SOL    HW238299  12.420   1.743   0.966 -0.8826 -0.6448  0.7335
40103SOL     OW38300   8.682  11.292   3.366 -0.3903 -0.0329  0.3609
40103SOL    HW138301   8.627  11.226   3.409  0.3845 -1.1225 -0.2833
40103SOL    HW238302   8.754  11.307   3.427  0.1344 -0.7747 -0.0683
40104SOL     OW38303  13.752  10.705   0.352  0.2189  0.4006 -0.1737
40104SOL    HW138304  13.691  10.658   0.408  0.5133  1.0207  0.6856
40104SOL    HW238305  13.814  10.639   0.322 -0.5186 -0.1225 -0.5895
40105SOL     OW38306   6.710   2.913   8.120 -0.5801  0.0307 -0.6697
40105SOL    HW138307   6.729   2.910   8.214 -0.4914  2.6114 -0.5394
40105SOL    HW238308   6.795   2.926   8.078 -0.9008  2.0356 -0.8100
40106SOL     OW38309   2.739  10.596  10.931 -0.4627  0.3043 -0.3285
40106SOL    HW138310   2.736  10.665  10.998  1.2736  0.3563 -0.2535
40106SOL    HW238311   2.788  10.525  10.972  1.9105  0.8835 -1.9522
40107SOL     OW38312   7.808   2.261   6.604  0.0405 -0.0315 -0.0519
40107SOL    HW138313   7.769   2.286   6.688 -0.9742 -1.3016 -0.1144
40107SOL    HW238314   7.823   2.344   6.559 -2.8640  0.5623 -0.1163
40108SOL     OW38315   4.061   8.920  12.486 -0.4542 -0.8359  0.8935
40108SOL    HW138316   4.128   8.910  12.554  1.1133 -0.2936 -0.4994
40108SOL    HW238317   4.002   8.987  12.520  0.9150  0.2235  1.2841
40109SOL     OW38318   1.489  10.110   6.378  0.0592  0.4759  0.1148
40109SOL    HW138319   1.501  10.017   6.360 -0.8869  0.3550  0.0930
40109SOL    HW238320   1.550  10.154   6.319 -0.3299 -0.0841 -0.7134
40110SOL     OW38321  11.940  11.481   9.473 -0.4283 -0.4267 -0.1832
40110SOL    HW138322  11.939  11.476   9.378  0.7205  0.1690 -0.2285
40110SOL    HW238323  11.861  11.432   9.499  1.9324 -5.4112 -1.2165
40111SOL     OW38324   1.154  12.274   2.780  0.3152  0.3853 -0.2397
40111SOL    HW138325   1.247  12.293   2.762  0.0573  2.0305  0.0253
40111SOL    HW238326   1.143  12.294   2.873  0.1419 -1.8228  0.2672
40112SOL     OW38327   0.320   4.191  13.794 -0.2241 -0.0437  0.2495
40112SOL    HW138328   0.265   4.226  13.865 -0.0190  0.3280  0.2283
40112SOL    HW238329   0.402   4.167  13.836 -0.1007  0.1794  0.1430
40113SOL     OW38330   2.644   8.000  10.293 -0.5615  0.3599 -0.0356
40113SOL    HW138331   2.720   7.944  10.277 -1.0746  0.2064 -2.2846
40113SOL    HW238332   2.580   7.942  10.334  0.6138  0.6133  2.3839
40114SOL     OW38333   5.020  13.884   1.943  0.1452  0.1592 -0.0392
40114SOL    HW138334   5.055  13.863   1.856  0.7898  0.5558  0.1165
40114SOL    HW238335   4.991  13.975   1.936  0.4513  0.2782  0.2357
40115SOL     OW38336   8.169  12.462   8.556 -0.1062  0.6730 -0.1715
40115SOL    HW138337   8.083  12.422   8.569  0.3485 -0.4552 -0.4995
40115SOL    HW238338   8.206  12.415   8.482  0.4264  1.7869 -0.6441
40116SOL     OW38339   8.240   5.480   7.186  0.1663 -0.0951  0.0993
40116SOL    HW138340   8.249   5.574   7.170  1.3271 -0.3521 -0.8843
40116SOL    HW238341   8.276   5.439   7.108 -2.7774 -1.3803 -0.7074
40117SOL     OW38342   9.562  12.772   7.639  0.2088 -0.2655  0.2074
40117SOL    HW138343   9.547  12.865   7.621  0.0614 -0.3596 -0.1591
40117SOL    HW238344   9.519  12.756   7.723  0.1037 -0.0376  0.1973
40118SOL     OW38345   8.780   5.470   6.919 -0.0757 -0.6888  0.1443
40118SOL    HW138346   8.756   5.445   7.008 -0.1766  0.2479  0.3885
40118SOL    HW238347   8.728   5.411   6.863  1.8837 -3.0806  0.6582
40119SOL     OW38348   8.892   3.956   4.541  0.1227  0.6197 -0.0142
40119SOL    HW138349   8.889   4.051   4.526  0.2190  0.7145  0.5575
40119SOL    HW238350   8.804   3.926   4.520 -0.0256  0.8979  0.2073
40120SOL     OW38351   0.639   3.402  10.907 -0.2060  0.0607  0.0373
40120SOL    HW138352   0.720   3.447  10.931  0.7906 -1.9182  0.5553
40120SOL    HW238353   0.577   3.427  10.975 -0.7287  3.1396 -1.3772
40121SOL     OW38354  12.963   8.027   0.085  0.2301 -0.1551 -0.2392
40121SOL    HW138355  12.951   7.933   0.082  0.0414 -0.1088 -1.9278
40121SOL    HW238356  12.879   8.062   0.115 -0.1473 -0.4670 -0.9083
40122SOL     OW38357   6.111  11.718   4.240 -0.6247  0.4248  0.2920
40122SOL    HW138358   6.131  11.805   4.204 -0.5233  0.7007  0.9847
40122SOL    HW238359   6.090  11.735   4.332 -2.0117 -0.1062  0.1061
40123SOL     OW38360   3.662  11.802   1.427  0.2315 -0.6300 -0.7210
40123SOL    HW138361   3.691  11.755   1.506 -1.7024  0.1842  0.5426
40123SOL    HW238362   3.670  11.894   1.450  0.2808 -0.3748 -1.7345
40124SOL     OW38363   8.435  12.541   1.081  0.3485 -0.1177  0.4889
40124SOL    HW138364   8.342  12.520   1.078  0.3407 -0.0086  0.0248
40124SOL    HW238365   8.456  12.572   0.993  0.9129 -0.5319  0.4725
40125SOL     OW38366  11.266   3.303   6.525 -0.7621  0.0974  0.1509
40125SOL    HW138367  11.243   3.346   6.607  0.6200  0.0920  0.5773
40125SOL    HW238368  11.183   3.287   6.481 -1.6160 -0.7101  1.9625
40126SOL     OW38369   9.655  13.715   5.183 -0.4004 -0.3054 -0.0653
40126SOL    HW138370   9.650  13.737   5.090  0.5649 -2.4422 -0.7047
40126SOL    HW238371   9.671  13.799   5.227  1.6039  0.5062 -2.0942
40127SOL     OW38372   5.172   7.005   1.492  0.9035  0.2283 -0.6326
40127SOL    HW138373   5.229   6.941   1.450  0.3956 -1.3006  0.9029
40127SOL    HW238374   5.223   7.037   1.567  0.6626  0.6754 -0.6574
40128SOL     OW38375   3.019  12.683   7.764 -0.0744  0.1344 -0.3613
40128SOL    HW138376   3.058  12.611   7.715  0.1072  1.0300 -1.5777
40128SOL    HW238377   3.087  12.750   7.766 -0.7949  0.8893 -0.6492
40129SOL     OW38378  11.121   8.417  12.882 -0.2263  0.5092 -0.1259
40129SOL    HW138379  11.047   8.478  12.879 -2.4453 -1.9942 -2.9586
40129SOL    HW238380  11.112   8.372  12.966 -1.1343  1.1386  0.1309
40130SOL     OW38381   0.272   9.168   4.880 -0.2970 -0.0622  0.1405
40130SOL    HW138382   0.265   9.104   4.810 -1.4499  0.5312 -0.3125
40130SOL    HW238383   0.340   9.229   4.851 -1.8073  1.0538 -1.2212
40131SOL     OW38384   7.994  11.595   6.850 -0.1619  0.3121 -0.0199
40131SOL    HW138385   8.064  11.533   6.869 -0.0642  0.4549  0.0895
40131SOL    HW238386   7.997  11.606   6.755  1.8849  2.5156  0.1913
40132SOL     OW38387   9.487  10.104  10.604 -0.0083  0.1467  0.3499
40132SOL    HW138388   9.398  10.106  10.569  0.2079  0.9773 -0.1977
40132SOL    HW238389   9.528  10.029  10.561 -0.3254 -0.0094  0.3172
40133SOL     OW38390  10.337   8.228   6.571 -0.6452  0.1301  0.2058
40133SOL    HW138391  10.344   8.292   6.642 -2.9611  0.9100 -0.1789
40133SOL    HW238392  10.317   8.281   6.493  2.6635 -0.6105 -1.3179
40134SOL     OW38393   3.849   0.261   0.946 -0.3639  0.5189  0.6764
40134SOL    HW138394   3.889   0.320   1.010  0.5272 -0.5725  1.1519
40134SOL    HW238395   3.834   0.180   0.994  0.6434 -0.4492 -0.5538
40135SOL     OW38396  11.164   3.244   7.669  0.2672 -0.5433  0.0814
40135SOL    HW138397  11.156   3.289   7.754  1.0789  0.7374 -0.5007
40135SOL    HW238398  11.235   3.182   7.682  0.5620 -0.1736  0.2720
40136SOL     OW38399  13.192   4.680   4.833  0.0793  0.0844 -0.5993
40136SOL    HW138400  13.230   4.764   4.856 -0.1099 -0.0320  0.1617
40136SOL    HW238401  13.267   4.619   4.833 -0.3308 -0.8900  4.2967
40137SOL     OW38402   3.595   1.444   2.684  0.3026 -0.1099 -0.2500
40137SOL    HW138403   3.689   1.433   2.667  0.6826 -0.3148  1.7506
40137SOL    HW238404   3.591   1.498   2.763 -1.2518 -0.5205 -0.0261
40138SOL     OW38405   1.530  11.879  11.262  0.4128 -0.0834  0.1406
40138SOL    HW138406   1.544  11.851  11.353  0.0412  0.8077  0.4829
40138SOL    HW238407   1.520  11.798  11.213  1.1167 -0.5872  0.8147
40139SOL     OW38408   5.844  13.172  10.054 -0.5131  0.1942  0.1873
40139SOL    HW138409   5.820  13.172  10.146  1.2061 -2.5047  0.7477
40139SOL    HW238410   5.940  13.178  10.054 -0.4187 -0.7275 -1.3650
40140SOL     OW38411  11.363  11.501   0.758  0.2248 -0.0015 -0.2726
40140SOL    HW138412  11.455  11.475   0.746  0.6140 -0.2801  2.6150
40140SOL    HW238413  11.367  11.595   0.772  0.1950 -0.1479  0.7550
40141SOL     OW38414   9.562   9.305   5.316  0.6413  0.5084  0.3659
40141SOL    HW138415   9.642   9.254   5.303  0.9376  1.3562 -1.5692
40141SOL    HW238416   9.583   9.365   5.387  0.9679 -0.6899  1.3070
40142SOL     OW38417   2.561  12.237   7.498 -0.3685  0.4681  0.2733
40142SOL    HW138418   2.602  12.289   7.429  0.0769  1.0759  0.9930
40142SOL    HW238419   2.635  12.193   7.541 -0.5215  1.0577  1.1533
40143SOL     OW38420   7.850   8.422   1.839  0.3802 -0.4140  0.0379
40143SOL    HW138421   7.778   8.437   1.778  1.1165 -1.1599 -1.0398
40143SOL    HW238422   7.928   8.446   1.790  1.1230 -2.5082  0.1303
40144SOL     OW38423  11.601  13.139  12.743 -0.6219  0.1977 -0.4261
40144SOL    HW138424  11.674  13.110  12.798 -0.6931  0.6339 -0.0930
40144SOL    HW238425  11.528  13.082  12.766 -1.2608  1.6842  1.4800
40145SOL     OW38426  10.926  10.945  14.027  0.5060 -0.0043  0.9868
40145SOL    HW138427  10.942  10.888  14.103  3.0301  0.2038  0.7048
40145SOL    HW238428  10.893  10.886  13.959 -0.7400 -0.3793  1.8867
40146SOL     OW38429   1.936   9.924   8.633  0.1607 -0.2522  0.4252
40146SOL    HW138430   1.941   9.881   8.718 -1.8775 -0.2021  0.6185
40146SOL    HW238431   1.924  10.017   8.654 -1.7697 -0.4030  0.1657
40147SOL     OW38432  10.231  13.506   5.571  0.3425 -0.4557  0.3459
40147SOL    HW138433  10.219  13.437   5.506 -3.0574  0.9810 -0.7661
40147SOL    HW238434  10.151  13.503   5.624  1.5115  0.6655  2.3025
40148SOL     OW38435   7.535  14.061   6.218 -0.0285  0.7272  0.2986
40148SOL    HW138436   7.523  14.078   6.311 -2.1504  0.8454  0.0368
40148SOL    HW238437   7.614  14.110   6.195  0.5593  0.6594  2.0246
40149SOL     OW38438  12.457   6.642   4.801 -0.2730  0.1613 -0.2531
40149SOL    HW138439  12.518   6.581   4.759 -0.1517  1.0220 -1.4047
40149SOL    HW238440  12.418   6.690   4.728  0.5238  2.2826  0.6312
40150SOL     OW38441  10.719   2.209   9.321  0.2299  0.0305 -0.1867
40150SOL    HW138442  10.793   2.261   9.288  0.7364 -0.5898 -0.0311
40150SOL    HW238443  10.742   2.191   9.412 -0.2139  0.0060 -0.0809
40151SOL     OW38444  12.349  12.527  10.926  0.0139 -0.5552  0.6056
40151SOL    HW138445  12.432  12.568  10.951  0.5099 -0.9279 -0.3841
40151SOL    HW238446  12.295  12.532  11.005  0.1154  1.8051  0.6041
40152SOL     OW38447  10.143   2.146   5.277 -0.3986  0.5158 -0.1939
40152SOL    HW138448  10.235   2.121   5.262 -1.5183 -2.6909 -3.0201
40152SOL    HW238449  10.120   2.103   5.360 -0.2540 -1.9460 -1.3427
40153SOL     OW38450   9.059   1.019  10.868  0.3033  0.0265  0.0808
40153SOL    HW138451   9.089   1.010  10.777 -1.1584 -0.7325 -0.3554
40153SOL    HW238452   9.026   1.109  10.873  1.6771  0.5449  0.2913
40154SOL     OW38453   7.973   3.010   0.598  0.4366 -0.1225 -0.1729
40154SOL    HW138454   8.031   3.041   0.529 -1.1296 -0.8387 -1.9118
40154SOL    HW238455   7.885   3.034   0.569 -0.2968 -0.5819  1.5086
40155SOL     OW38456   4.008   9.099   2.870  0.4289  0.1009  0.3684
40155SOL    HW138457   4.054   9.015   2.872  0.2701  0.0269  1.1760
40155SOL    HW238458   3.925   9.080   2.827  0.9085  0.1214 -0.6052
40156SOL     OW38459   4.757  10.851   0.450 -0.0186  0.3856 -0.2942
40156SOL    HW138460   4.836  10.860   0.503  0.8445 -0.0227 -1.4742
40156SOL    HW238461   4.758  10.760   0.419 -2.8852 -0.8400  2.5826
40157SOL     OW38462   2.310   1.386   3.108  0.0761 -0.5411  0.3499
40157SOL    HW138463   2.375   1.317   3.093 -0.9003 -1.1657 -1.3951
40157SOL    HW238464   2.345   1.462   3.062  0.2905 -0.4253  0.7059
40158SOL     OW38465   0.574  12.640   3.235  0.2737 -0.1069  0.2917
40158SOL    HW138466   0.560  12.687   3.317  0.6816  2.2174 -0.8831
40158SOL    HW238467   0.668  12.621   3.234  0.2722 -0.1168  0.3652
40159SOL     OW38468  14.085   2.225   8.160  0.8311  0.6956 -0.3194
40159SOL    HW138469  14.118   2.304   8.117  4.5354 -0.2697  0.4586
40159SOL    HW238470  14.058   2.255   8.247  1.6271  1.2037 -0.2378
40160SOL     OW38471   5.421   7.798  13.639  0.3192 -0.1097 -0.2020
40160SOL    HW138472   5.456   7.853  13.709 -0.8832  0.6484 -0.1707
40160SOL    HW238473   5.406   7.713  13.681 -0.4418  0.3550  0.4853
40161SOL     OW38474   6.879  13.952   3.550  0.0564  0.6572 -0.5054
40161SOL    HW138475   6.892  13.927   3.459 -1.9294 -0.6748 -0.4881
40161SOL    HW238476   6.802  13.902   3.578 -0.0655  1.8843  1.5733
40162SOL     OW38477   9.320   0.924   6.470  0.6044  0.2863 -0.4506
40162SOL    HW138478   9.334   0.903   6.378  2.8790  1.3226 -0.4025
40162SOL    HW238479   9.348   0.846   6.518 -3.2416 -1.3980 -0.6038
40163SOL     OW38480   2.143  12.142   4.187  0.2132 -0.1395 -0.2127
40163SOL    HW138481   2.225  12.189   4.167  0.0833 -0.4510 -1.5848
40163SOL    HW238482   2.128  12.159   4.279  1.1733  0.9673 -0.2324
40164SOL     OW38483  12.352  10.469   9.196  0.5842 -0.4170  0.3615
40164SOL    HW138484  12.347  10.467   9.291  0.1420  0.5927  0.3735
40164SOL    HW238485  12.262  10.454   9.166  0.7358 -0.8241  0.0967
40165SOL     OW38486   4.957   3.214   7.588  0.0334  0.7357  0.8632
40165SOL    HW138487   5.035   3.168   7.555 -1.1760 -0.7862 -0.0059
40165SOL    HW238488   4.939   3.281   7.522 -0.8913 -0.6406 -0.3414
40166SOL     OW38489   4.456   5.682   2.396  0.1283  0.4693  0.0894
40166SOL    HW138490   4.550   5.690   2.416  0.6446  0.9694 -2.1906
40166SOL    HW238491   4.414   5.748   2.449  1.2868  1.2773  0.0497
40167SOL     OW38492  13.097   2.638   2.041  0.9205 -0.2686  0.4279
40167SOL    HW138493  13.178   2.686   2.022 -0.1093  1.3627 -0.0590
40167SOL    HW238494  13.041   2.653   1.965 -0.4849  0.0866  1.4815
40168SOL     OW38495  10.106   3.545   1.084 -0.7032  1.0364  0.1294
40168SOL    HW138496  10.145   3.632   1.089 -1.1566  1.1934  3.8648
40168SOL    HW238497  10.177   3.485   1.107 -1.2040  0.7914  1.0972
40169SOL     OW38498   8.109   7.502   2.031 -0.0025  0.2313  0.2000
40169SOL    HW138499   8.138   7.421   2.072  0.2255  1.0645  1.7718
40169SOL    HW238500   8.089   7.478   1.941  2.6508 -1.0229 -0.1430
40170SOL     OW38501   7.117  10.174   4.253 -0.0164 -0.5282  0.8477
40170SOL    HW138502   7.186  10.116   4.219 -0.3731 -0.2679 -0.3754
40170SOL    HW238503   7.041  10.156   4.198 -0.6713 -0.1887  1.6267
40171SOL     OW38504   4.625   0.981   0.634 -0.5171 -0.2156  0.3633
40171SOL    HW138505   4.704   0.985   0.689  0.7978  0.3011 -1.4473
40171SOL    HW238506   4.637   0.901   0.583 -0.8772  0.1460 -0.3017
40172SOL     OW38507   5.276  11.764   5.157  0.4054  0.1847 -0.2239
40172SOL    HW138508   5.249  11.695   5.097 -2.3340 -0.0934  1.1747
40172SOL    HW238509   5.371  11.752   5.165  0.3762 -1.8304 -1.9015
40173SOL     OW38510   7.790   9.692   0.712  0.3139  0.3650  0.8657
40173SOL    HW138511   7.713   9.639   0.691  0.8821 -0.5552  1.0594
40173SOL    HW238512   7.773   9.725   0.800 -0.1890  0.7878  0.6157
40174SOL     OW38513  10.845   4.158   1.035 -0.1582 -0.1716 -0.7331
40174SOL    HW138514  10.908   4.120   1.096  3.6316  1.7448 -3.0809
40174SOL    HW238515  10.837   4.094   0.965 -0.4210 -0.1869 -0.6910
40175SOL     OW38516   5.351  12.538   8.202 -0.2557  0.8799  0.5125
40175SOL    HW138517   5.284  12.542   8.133  0.6046 -0.6342 -0.4477
40175SOL    HW238518   5.302  12.515   8.281 -0.7756 -1.5955 -0.4369
40176SOL     OW38519  12.798   1.234   2.406  0.2369  0.0786 -0.1794
40176SOL    HW138520  12.799   1.329   2.398  2.1693  0.2395  1.1149
40176SOL    HW238521  12.755   1.203   2.326 -1.9079  2.0376  0.1170
40177SOL     OW38522   9.578   2.498   7.969  0.3039 -0.1746 -0.0618
40177SOL    HW138523   9.568   2.523   8.061 -1.1467  0.2215 -0.3092
40177SOL    HW238524   9.551   2.575   7.919 -0.2873 -0.8519 -0.8189
40178SOL     OW38525   2.138  10.994   3.658  0.4454 -0.1661 -0.1630
40178SOL    HW138526   2.109  10.950   3.738  0.0805 -0.4733 -0.4613
40178SOL    HW238527   2.223  10.953   3.639  0.6660  0.1048  0.2177
40179SOL     OW38528   8.288   0.534   1.397 -0.1272  0.1199  0.5788
40179SOL    HW138529   8.241   0.451   1.387  0.0156 -0.0276  1.1034
40179SOL    HW238530   8.350   0.536   1.325  0.2880 -0.5177  0.9086
40180SOL     OW38531   5.738   8.627   6.667  0.1719  0.1385  0.0580
40180SOL    HW138532   5.671   8.615   6.733  0.1066  1.5558  0.2782
40180SOL    HW238533   5.793   8.698   6.700 -0.2102  1.2949 -1.6457
40181SOL     OW38534   5.795   1.563   4.455 -0.2791  0.0930 -0.1992
40181SOL    HW138535   5.857   1.551   4.383 -1.0160 -0.1959 -0.7997
40181SOL    HW238536   5.828   1.640   4.502  0.9709 -0.5126 -0.0328
40182SOL     OW38537   7.521  13.038   0.889  0.5033  0.1166  0.2861
40182SOL    HW138538   7.571  12.978   0.834  1.4570 -0.1833  1.4382
40182SOL    HW238539   7.517  13.119   0.838  1.8735  0.0377  0.0021
40183SOL     OW38540  13.207   8.206   5.007  0.2376  0.6073 -0.6509
40183SOL    HW138541  13.128   8.158   4.982  0.8601 -0.1405 -1.2429
40183SOL    HW238542  13.279   8.145   4.988  0.8343  0.0828  2.6149
40184SOL     OW38543   0.180  14.090   1.015  0.1969  0.3276 -0.3688
40184SOL    HW138544   0.263  14.053   1.043 -0.2942 -0.4679  0.0677
40184SOL    HW238545   0.199  14.130   0.929  0.7264 -1.0096 -0.8961
40185SOL     OW38546  11.965  12.288   6.860  0.0766 -0.2548  0.3570
40185SOL    HW138547  11.917  12.206   6.865 -0.0498 -0.2614 -0.6930
40185SOL    HW238548  11.996  12.293   6.769  0.7386  0.4889  0.6008
40186SOL     OW38549   3.546  10.189   1.280 -0.5692  0.6559  0.0108
40186SOL    HW138550   3.550  10.264   1.339  0.0921  1.0661 -0.5286
40186SOL    HW238551   3.528  10.114   1.336  4.0782  0.3043  1.4960
40187SOL     OW38552  12.809   7.898   9.031 -0.5268 -0.8077  0.2441
40187SOL    HW138553  12.835   7.846   8.955  3.7074 -1.7604  2.0048
40187SOL    HW238554  12.819   7.838   9.105 -1.8062  0.8159  1.8117
40188SOL     OW38555  12.918   6.734   6.774  0.3137 -0.4527  0.1649
40188SOL    HW138556  12.913   6.716   6.680  1.5575  1.1335 -0.2567
40188SOL    HW238557  13.000   6.783   6.784  0.6575 -1.3565  2.2203
40189SOL     OW38558   0.093   7.870   6.679  0.0571 -0.5050  0.6666
40189SOL    HW138559   0.075   7.964   6.687  2.4085  0.0647  0.1146
40189SOL    HW238560   0.031   7.840   6.613 -0.1745  0.8760  0.2091
40190SOL     OW38561   6.595   8.331   0.073 -1.0835  0.7623  0.2123
40190SOL    HW138562   6.572   8.344   0.165 -1.5992  0.4578  0.1328
40190SOL    HW238563   6.621   8.417   0.042 -0.0569  0.7000  0.8709
40191SOL     OW38564   4.747   2.899  10.229  0.2255 -0.0307  0.8977
40191SOL    HW138565   4.677   2.915  10.166 -0.0902  0.6381  1.3998
40191SOL    HW238566   4.763   2.985  10.269  1.7559 -0.0351  0.3629
40192SOL     OW38567   7.626  10.956   7.987  0.0473 -0.1928 -0.3290
40192SOL    HW138568   7.591  10.866   7.994  0.0593 -0.1691  0.0801
40192SOL    HW238569   7.691  10.962   8.057  0.1332  0.0992 -0.4318
40193SOL     OW38570  10.888   0.362   3.542  0.5221  0.1853 -0.0999
40193SOL    HW138571  10.868   0.351   3.449  2.4011  3.2938 -1.0461
40193SOL    HW238572  10.940   0.285   3.565  0.3072 -0.4853 -1.7322
40194SOL     OW38573  12.954   5.048   2.031  0.3441 -0.0079 -0.1384
40194SOL    HW138574  12.985   5.038   2.121 -1.3480 -0.2020  0.4695
40194SOL    HW238575  13.025   5.093   1.986  1.0181  0.5895  1.4278
40195SOL     OW38576   0.993   7.125   6.299  0.3030 -0.1568  0.2495
40195SOL    HW138577   1.030   7.155   6.383  0.3986 -0.0522  0.1710
40195SOL    HW238578   1.068   7.124   6.240  0.1824  0.0313  0.0934
40196SOL     OW38579   5.905   8.760   9.979  0.1796  0.1909 -0.2275
40196SOL    HW138580   5.867   8.673   9.967  1.0166 -0.2579  0.2950
40196SOL    HW238581   5.983   8.760   9.922 -0.2233  0.8728 -0.8003
40197SOL     OW38582  12.778   5.395   5.565 -0.1530 -0.1679  0.2123
40197SOL    HW138583  12.828   5.420   5.642  0.2698  0.6461 -0.3059
40197SOL    HW238584  12.840   5.344   5.512  0.1138  0.7153 -0.3601
40198SOL     OW38585   0.229  13.569   7.905 -0.3674 -0.0339  0.6884
40198SOL    HW138586   0.208  13.479   7.931 -1.8871  0.4966  1.4623
40198SOL    HW238587   0.260  13.611   7.986  2.9637 -0.4949 -0.1982
40199SOL     OW38588   9.698  10.930   9.106 -0.2423  0.3334  0.3921
40199SOL    HW138589   9.731  10.927   9.016 -0.1938 -0.0168  0.4204
40199SOL    HW238590   9.669  10.841   9.124  0.2686  0.2703  0.9157
40200SOL     OW38591   8.361  10.827   8.398 -0.0458 -0.1492  0.3648
40200SOL    HW138592   8.394  10.786   8.478  2.0343 -1.6551 -1.1538
40200SOL    HW238593   8.392  10.917   8.402  0.2210 -0.2691  1.1422
40201SOL     OW38594  12.153   2.602  11.178 -0.4018  0.7058  0.0360
40201SOL    HW138595  12.183   2.517  11.145 -0.1449  0.6328  0.4414
40201SOL    HW238596  12.085   2.629  11.117  0.3261  0.7621 -0.7579
40202SOL     OW38597   9.163  11.400  11.167 -0.2249 -0.2005  0.1471
40202SOL    HW138598   9.223  11.420  11.239 -1.5565  0.7313  1.0419
40202SOL    HW238599   9.078  11.388  11.210 -1.5252  2.5435 -1.4488
40203SOL     OW38600   4.600   3.384   9.969  0.1050 -0.2585 -0.4913
40203SOL    HW138601   4.693   3.405   9.983  0.1320 -1.4576  1.4109
40203SOL    HW238602   4.591   3.293   9.996 -1.8810  0.2128  0.6421
40204SOL     OW38603   8.042   3.575   8.527 -0.1942 -0.1557  0.2757
40204SOL    HW138604   8.093   3.653   8.503 -1.0048  0.1754 -0.4216
40204SOL    HW238605   8.006   3.596   8.614 -0.1228  0.0999  0.2443
40205SOL     OW38606  13.958  12.873  12.972 -0.5579  0.0170  0.3578
40205SOL    HW138607  13.983  12.788  13.008 -2.6998  0.2398  2.5917
40205SOL    HW238608  13.866  12.863  12.947 -0.4707  1.3211 -0.5905
40206SOL     OW38609   7.076   7.507   8.222  0.0433  0.2863 -0.1153
40206SOL    HW138610   7.084   7.595   8.184 -0.5970  0.0191 -0.8863
40206SOL    HW238611   7.154   7.461   8.190  1.1017  0.9458  1.3845
40207SOL     OW38612  12.871   8.220  13.558 -0.6203 -0.3816 -0.5655
40207SOL    HW138613  12.918   8.205  13.640  0.0114 -1.3035 -1.0805
40207SOL    HW238614  12.779   8.227  13.584 -0.5358 -1.5873  0.1292
40208SOL     OW38615   0.452   2.610  13.563 -0.0955  0.2638 -0.0581
40208SOL    HW138616   0.530   2.634  13.514 -0.4705 -0.0675 -0.8371
40208SOL    HW238617   0.467   2.519  13.589 -0.2353  0.1870 -0.2423
40209SOL     OW38618   4.945   1.671  13.597  0.1223 -0.1242  0.1846
40209SOL    HW138619   5.020   1.617  13.571  0.1229  0.5884 -1.4123
40209SOL    HW238620   4.966   1.759  13.564 -1.4219  0.0913 -0.3168
40210SOL     OW38621  13.857   0.074   4.828  0.1540 -0.0248 -0.4108
40210SOL    HW138622  13.841   0.075   4.734  0.2977 -0.1823 -0.4363
40210SOL    HW238623  13.787   0.127   4.865 -0.4843 -0.7872 -0.5130
40211SOL     OW38624   4.004   1.550   0.085  0.0696  0.0480  0.4845
40211SOL    HW138625   4.020   1.612   0.014 -1.4938  1.9569  1.6876
40211SOL    HW238626   3.938   1.490   0.051  1.2126 -0.6839 -0.5168
40212SOL     OW38627   7.801   7.134   7.644 -0.0900 -0.8555 -0.5780
40212SOL    HW138628   7.861   7.209   7.642 -0.4530 -0.4087  1.7576
40212SOL    HW238629   7.765   7.135   7.733 -0.8620 -3.2330 -0.7935
40213SOL     OW38630  10.346   3.964  12.809  0.2090 -0.2493  0.6621
40213SOL    HW138631  10.421   3.908  12.830  0.6068 -0.2782 -0.7318
40213SOL    HW238632  10.271   3.915  12.842  0.7450 -0.4569  1.6340
40214SOL     OW38633  13.625  11.392   5.164 -0.1715  0.3525 -0.3631
40214SOL    HW138634  13.689  11.333   5.123 -1.3117  0.4014 -2.3461
40214SOL    HW238635  13.557  11.335   5.198  1.0297  0.2749  2.1016
40215SOL     OW38636   9.555  10.505   6.594 -0.1513  0.1857 -0.9981
40215SOL    HW138637   9.601  10.588   6.607  0.9005 -0.5024 -0.1191
40215SOL    HW238638   9.616  10.438   6.627 -2.3775 -0.6687  1.7674
40216SOL     OW38639   3.979  13.431   3.304  0.9000  0.3073 -0.4428
40216SOL    HW138640   4.051  13.448   3.364 -1.7761  1.2544  2.7808
40216SOL    HW238641   3.914  13.384   3.357 -1.2565  0.3229 -2.8876
40217SOL     OW38642   6.865  10.484   9.727 -0.0863 -0.2049 -0.1315
40217SOL    HW138643   6.887  10.401   9.684  0.0815 -2.1301  3.3260
40217SOL    HW238644   6.770  10.486   9.726 -0.1166 -0.8946  0.4998
40218SOL     OW38645  10.509   4.837  11.980  0.4411  0.4931 -0.5008
40218SOL    HW138646  10.583   4.858  12.038  1.0023  0.7259 -1.2822
40218SOL    HW238647  10.444   4.904  12.000  0.6042  0.5399 -0.1039
40219SOL     OW38648  11.861   4.145  12.371 -0.3435  0.2904 -0.1166
40219SOL    HW138649  11.786   4.176  12.421 -0.3948  1.5403 -0.9314
40219SOL    HW238650  11.863   4.201  12.293  0.1043 -1.1681 -1.2146
40220SOL     OW38651   9.022   8.964   0.479 -0.7685  0.2108  0.0562
40220SOL    HW138652   8.983   8.887   0.437  1.5752 -1.0711  0.0585
40220SOL    HW238653   8.990   9.038   0.428 -1.8592 -0.8759 -0.9233
40221SOL     OW38654   9.714  11.546  13.505 -0.2056 -0.4421 -0.1780
40221SOL    HW138655   9.712  11.634  13.469  1.3461 -0.4413 -0.3311
40221SOL    HW238656   9.782  11.501  13.454 -0.4293 -1.4856  0.4187
40222SOL     OW38657   7.617   6.368   2.113 -1.1356  0.9815  0.3478
40222SOL    HW138658   7.661   6.352   2.197 -0.6974 -1.2739 -0.2505
40222SOL    HW238659   7.542   6.308   2.115 -1.5557  1.4660 -0.5716
40223SOL     OW38660  11.950  11.349   0.473 -0.1120  0.1348 -0.1633
40223SOL    HW138661  11.942  11.312   0.561 -0.3031  0.3718 -0.0798
40223SOL    HW238662  11.871  11.402   0.462 -0.7537 -0.9462 -0.9850
40224SOL     OW38663   0.185  13.935  10.995  0.5156  0.0293  0.0822
40224SOL    HW138664   0.177  13.884  11.075 -0.2090 -0.2325 -0.1504
40224SOL    HW238665   0.148  14.021  11.017 -3.2630 -1.1216 -0.9412
40225SOL     OW38666   3.830   3.528   6.285 -0.1251  0.1846 -0.0300
40225SOL    HW138667   3.760   3.473   6.250 -1.6799  0.1456  2.8635
40225SOL    HW238668   3.891   3.466   6.326 -0.0564  0.4187  0.2254
40226SOL     OW38669  12.440   2.893   8.624  0.3256 -0.1822  0.1612
40226SOL    HW138670  12.530   2.870   8.647  0.6368 -0.5302 -1.2737
40226SOL    HW238671  12.391   2.812   8.636  0.3145 -0.1314  0.4477
40227SOL     OW38672   9.525   6.195   0.262 -0.1222 -0.1846  0.4810
40227SOL    HW138673   9.493   6.138   0.332 -1.2671  0.9406  0.9247
40227SOL    HW238674   9.450   6.251   0.241  1.2348  1.8925  0.8533
40228SOL     OW38675   3.626  13.078   9.923 -0.0608 -0.3421  0.1709
40228SOL    HW138676   3.561  13.050   9.858 -0.1069  0.2014 -0.0256
40228SOL    HW238677   3.574  13.117   9.993 -0.0689 -1.6873  0.9448
40229SOL     OW38678  12.822  10.247  14.148  0.6743 -0.1661 -0.1802
40229SOL    HW138679  12.733  10.217  14.127  0.7202  0.9095 -2.1305
40229SOL    HW238680  12.855  10.283  14.066  2.5921  0.3029  0.7433
40230SOL     OW38681   0.302   9.454   2.581  0.0442  0.0300 -0.4878
40230SOL    HW138682   0.395   9.450   2.562  0.0301 -1.5436 -0.3746
40230SOL    HW238683   0.277   9.545   2.565  1.7099  0.6116  0.0700
40231SOL     OW38684   2.283   9.178   2.786  0.4570  0.2463  0.0969
40231SOL    HW138685   2.306   9.139   2.870  1.3868  0.1003 -0.2111
40231SOL    HW238686   2.365   9.178   2.736 -0.4451 -1.3146 -1.4805
40232SOL     OW38687  13.870   3.619   9.446 -0.3340 -0.1345 -0.3072
40232SOL    HW138688  13.812   3.642   9.372 -0.7209  1.2525  0.3958
40232SOL    HW238689  13.812   3.615   9.521 -0.0011 -1.9253 -0.0988
40233SOL     OW38690  11.981   3.560  14.054 -0.3647  0.7499  0.2094
40233SOL    HW138691  11.994   3.549  14.149  1.6319 -2.1508 -0.2505
40233SOL    HW238692  12.004   3.474  14.018 -1.4549  1.6624 -2.9057
40234SOL     OW38693   2.071   6.839   3.399 -0.0333  0.5104 -0.5795
40234SOL    HW138694   2.130   6.902   3.439 -2.1502  1.7806  0.7502
40234SOL    HW238695   2.067   6.766   3.461  2.7916 -1.3256 -2.3392
40235SOL     OW38696   1.387   1.165   9.021  0.0465  0.0415  0.0511
40235SOL    HW138697   1.343   1.195   8.942 -1.7094  0.1669  1.0139
40235SOL    HW238698   1.476   1.199   9.014 -0.0334 -0.0865 -1.9164
40236SOL     OW38699  10.661   9.916   9.072  0.2426  0.6847 -0.4448
40236SOL    HW138700  10.568   9.935   9.087  0.3532 -0.1859  1.7772
40236SOL    HW238701  10.687   9.865   9.149  2.1456 -0.5560 -1.8309
40237SOL     OW38702  11.078  13.654   7.629 -0.2631  0.2679 -0.0259
40237SOL    HW138703  11.143  13.614   7.686 -0.2495  1.5129  0.8774
40237SOL    HW238704  11.129  13.711   7.571 -0.4539  0.6334  0.1569
40238SOL     OW38705   7.951  13.035   1.613  0.1582 -0.1826 -0.1427
40238SOL    HW138706   7.867  12.996   1.588  0.2266 -0.6616  0.3441
40238SOL    HW238707   7.988  13.067   1.531 -1.5452  2.1726 -0.1249
40239SOL     OW38708   1.307   1.689   5.829  0.4818 -0.1915 -0.1784
40239SOL    HW138709   1.255   1.611   5.845  0.1695 -0.4630 -2.3592
40239SOL    HW238710   1.390   1.656   5.793  1.0444  0.4099  0.5133
40240SOL     OW38711   8.347  10.808   2.373 -0.4132  0.2334  0.1440
40240SOL    HW138712   8.308  10.867   2.308  1.9636  1.1011 -0.6157
40240SOL    HW238713   8.363  10.727   2.325  0.3992  0.5325 -0.1253
40241SOL     OW38714   3.220  12.111   0.898  0.0764 -0.0410 -0.1413
40241SOL    HW138715   3.294  12.148   0.850  0.9385 -0.6238  0.7225
40241SOL    HW238716   3.162  12.186   0.913  0.7257  0.5213 -0.3708
40242SOL     OW38717   9.292   3.267   5.812 -0.5808  0.0381  0.1406
40242SOL    HW138718   9.343   3.331   5.762 -1.6349  0.1102 -0.9034
40242SOL    HW238719   9.312   3.183   5.770  0.1446 -0.2121  0.9647
40243SOL     OW38720   0.400  14.111   9.640 -0.1577  0.1878  0.1358
40243SOL    HW138721   0.339  14.182   9.657  0.2718  0.1993  1.8376
40243SOL    HW238722   0.347  14.042   9.601 -0.4963  1.5609 -1.9722
40244SOL     OW38723   6.956   1.749   9.071  0.0179 -0.3440  0.4459
40244SOL    HW138724   6.922   1.703   8.994  1.0529  0.7225 -0.6829
40244SOL    HW238725   6.933   1.692   9.144 -0.1377 -1.8800 -0.7385
40245SOL     OW38726   8.170   4.623  10.134 -0.6288 -0.2746  0.6339
40245SOL    HW138727   8.216   4.540  10.146 -0.9923 -0.2754  2.1116
40245SOL    HW238728   8.155   4.627  10.039  1.7838 -0.5834  0.1738
40246SOL     OW38729   6.895  12.347  10.729 -0.0586  0.7453  0.5931
40246SOL    HW138730   6.906  12.388  10.644  1.7163  1.8056  1.2780
40246SOL    HW238731   6.978  12.363  10.775 -0.5262 -0.7868  2.1044
40247SOL     OW38732  10.490   2.605   2.192  0.3534  1.1347  0.8188
40247SOL    HW138733  10.427   2.674   2.171  0.3198  0.6239 -0.9829
40247SOL    HW238734  10.463   2.573   2.278 -1.6703  1.1479  0.2459
40248SOL     OW38735   2.458  11.937  12.581 -0.3693  0.1240  0.2863
40248SOL    HW138736   2.538  11.892  12.556  0.5602 -0.0593  3.1960
40248SOL    HW238737   2.447  12.005  12.515  0.8292 -1.3076 -1.5011
40249SOL     OW38738   5.367  11.345   3.570 -0.6036  0.2153 -0.3372
40249SOL    HW138739   5.396  11.314   3.655 -0.3949 -1.3236 -0.9348
40249SOL    HW238740   5.412  11.289   3.507 -0.2169  1.7590 -1.5005
40250SOL     OW38741   0.971   2.057   8.041 -0.0736 -0.0256  0.2399
40250SOL    HW138742   0.884   2.040   8.004 -0.7879  3.4122 -0.0062
40250SOL    HW238743   1.029   2.061   7.965 -0.6003  1.9669 -0.1280
40251SOL     OW38744   2.651  12.481   3.380  0.2306 -0.3608  0.3965
40251SOL    HW138745   2.557  12.491   3.393 -0.1882 -0.6003 -1.9507
40251SOL    HW238746   2.664  12.386   3.373  0.2276 -0.2597 -1.5455
40252SOL     OW38747   7.534   6.625   8.321  0.3312 -0.3541  0.2756
40252SOL    HW138748   7.518   6.552   8.260 -0.9812  0.8410 -0.8830
40252SOL    HW238749   7.558   6.583   8.403 -0.9748 -2.1182 -0.1917
40253SOL     OW38750  13.020   5.235   7.441  0.0849 -0.2896 -0.7077
40253SOL    HW138751  13.008   5.150   7.483  0.4287  0.6225  1.3914
40253SOL    HW238752  12.957   5.236   7.369 -2.0670 -1.1739  1.0602
40254SOL     OW38753   4.516   5.133   6.040 -0.2701 -0.2366  0.3207
40254SOL    HW138754   4.481   5.143   5.952  0.3613 -0.6075  0.0204
40254SOL    HW238755   4.603   5.174   6.037 -0.1441 -0.4618  0.7012
40255SOL     OW38756   4.571  12.741   8.696 -1.0085  0.0591  0.0859
40255SOL    HW138757   4.480  12.711   8.694 -1.2531  0.6141 -2.8104
40255SOL    HW238758   4.568  12.828   8.654  0.8611 -0.0241 -0.3106
40256SOL     OW38759   1.313   8.478   1.440  0.0233  0.0515  0.5004
40256SOL    HW138760   1.311   8.482   1.536  0.8043 -1.7379  0.6264
40256SOL    HW238761   1.405   8.493   1.418 -0.2251  0.8673 -0.0076
40257SOL     OW38762   3.439  10.740   5.749 -0.4040  0.3503  0.1624
40257SOL    HW138763   3.518  10.730   5.696 -0.7764  1.0149 -0.5388
40257SOL    HW238764   3.411  10.830   5.733 -2.5745 -0.5307 -1.4219
40258SOL     OW38765   4.852  12.020   1.002 -0.0766  0.3111  0.5431
40258SOL    HW138766   4.880  12.077   1.073  0.0419 -1.9706  2.4744
40258SOL    HW238767   4.927  12.016   0.943  0.1496  1.5722  0.7199
40259SOL     OW38768  11.405   2.634   6.571  0.3920  0.3509 -0.4978
40259SOL    HW138769  11.464   2.708   6.579  1.3111 -0.1582 -2.0542
40259SOL    HW238770  11.461   2.557   6.580  0.0538 -0.1472 -2.2442
40260SOL     OW38771   1.030   2.486   5.078 -0.1144  0.0465  0.1145
40260SOL    HW138772   0.988   2.460   4.996 -0.7461 -0.8132  0.6966
40260SOL    HW238773   0.996   2.574   5.096  0.3970  0.4421 -0.7795
40261SOL     OW38774  10.709   5.059   0.817  0.3166 -0.1664  0.5652
40261SOL    HW138775  10.794   5.023   0.795 -0.0392 -1.1958  0.8042
40261SOL    HW238776  10.723   5.105   0.900  0.8791  0.6691  0.0206
40262SOL     OW38777   0.133   8.318  14.005 -0.2712  0.0434  0.6984
40262SOL    HW138778   0.148   8.403  13.964 -1.1371 -0.2360 -0.2293
40262SOL    HW238779   0.125   8.257  13.932  1.2453 -1.0147  1.3665
40263SOL     OW38780  13.872   2.777   7.981 -0.2266  0.3670 -0.6177
40263SOL    HW138781  13.784   2.783   7.944  0.5998  0.8913 -2.6376
40263SOL    HW238782  13.917   2.713   7.926  0.3835 -0.7233  1.0627
40264SOL     OW38783   3.648  12.979   1.531  0.0844 -0.4055  0.5313
40264SOL    HW138784   3.586  12.907   1.541  0.0779 -0.5181 -0.2695
40264SOL    HW238785   3.611  13.050   1.584 -0.6975 -0.4935  0.1249
40265SOL     OW38786   0.781   6.434  13.677  0.3728  0.3512  0.1742
40265SOL    HW138787   0.712   6.464  13.618 -0.3664 -1.5694 -0.0072
40265SOL    HW238788   0.851   6.406  13.618  0.2459 -0.1500  0.2609
40266SOL     OW38789   4.928  12.996   9.991 -0.0359 -0.3851 -0.0875
40266SOL    HW138790   4.955  13.041  10.071  1.1362 -1.7375  0.3126
40266SOL    HW238791   4.879  12.920  10.021 -0.4899 -0.3504 -0.7069
40267SOL     OW38792  12.350  14.060   0.981  0.1958  0.0647 -0.0274
40267SOL    HW138793  12.395  14.030   1.060 -0.8514  0.0366  0.5707
40267SOL    HW238794  12.278  13.998   0.969 -0.4154  0.8082 -0.2773
40268SOL     OW38795   4.770  11.534  10.660 -0.2766 -0.4140  0.4157
40268SOL    HW138796   4.727  11.523  10.576  1.7553 -0.5892 -0.6703
40268SOL    HW238797   4.804  11.624  10.658 -0.3862 -0.3495  1.1455
40269SOL     OW38798   1.987  12.447   3.256  0.0494  0.2781  0.0874
40269SOL    HW138799   1.905  12.399   3.246 -0.2454  0.9248 -0.7621
40269SOL    HW238800   2.045  12.410   3.190  0.6650 -0.6080  1.1068
40270SOL     OW38801   8.352   4.657  12.226  0.1665 -0.1831  0.2085
40270SOL    HW138802   8.260   4.682  12.230  0.6900  1.7774  0.5830
40270SOL    HW238803   8.350   4.565  12.198 -1.8208  0.4991 -2.2561
40271SOL     OW38804   2.159   1.688   0.152  0.3877  0.2023  0.3036
40271SOL    HW138805   2.178   1.605   0.195 -1.2091 -0.3131  0.0843
40271SOL    HW238806   2.095   1.731   0.209  1.3859  1.4194  0.5458
40272SOL     OW38807   5.132  12.905   5.631 -0.0060 -0.4580  0.2766
40272SOL    HW138808   5.065  12.837   5.632 -0.0657 -0.4077 -0.1691
40272SOL    HW238809   5.084  12.984   5.606 -0.2477  0.0890  2.2708
40273SOL     OW38810   5.292   5.713  12.998  0.6386  0.4160  0.2474
40273SOL    HW138811   5.210   5.742  12.958 -0.3590 -2.0723  0.2881
40273SOL    HW238812   5.338   5.667  12.927  1.3821  0.6285  0.5799
40274SOL     OW38813   2.819  13.472   5.268  0.3512 -0.7261 -0.5581
40274SOL    HW138814   2.871  13.532   5.214  1.1939 -1.4289 -0.5483
40274SOL    HW238815   2.843  13.385   5.237  0.9625 -1.1598  1.0150
40275SOL     OW38816   1.149   6.661  13.268  0.0247  0.3094 -0.2977
40275SOL    HW138817   1.132   6.578  13.223  0.8725 -0.6678  1.1015
40275SOL    HW238818   1.062   6.691  13.296 -0.3190  0.0595 -1.0484
40276SOL     OW38819   1.924   6.858   5.121 -0.1545 -0.3341 -0.0201
40276SOL    HW138820   1.948   6.765   5.115  1.5188  0.0295  0.3451
40276SOL    HW238821   1.910   6.873   5.215 -1.1781 -0.3715 -0.1569
40277SOL     OW38822   4.780   6.140  11.419 -0.6721  0.1923 -0.3679
40277SOL    HW138823   4.841   6.213  11.409 -2.0050  1.3030 -0.6745
40277SOL    HW238824   4.693   6.180  11.417 -1.4897 -0.7134  4.2072
40278SOL     OW38825   8.744  10.746   1.497 -0.1180  0.4275 -0.3408
40278SOL    HW138826   8.787  10.664   1.522  1.3255  1.3181  0.2675
40278SOL    HW238827   8.658  10.720   1.465 -0.6772 -1.1213  2.1767
40279SOL     OW38828   2.344   0.773   7.504 -0.1710 -0.2685 -0.3398
40279SOL    HW138829   2.389   0.849   7.542 -1.8294  0.9138 -0.6486
40279SOL    HW238830   2.308   0.726   7.579  0.7985 -0.7474 -0.1521
40280SOL     OW38831   9.140   5.140   7.316  0.3222 -0.0946  0.0521
40280SOL    HW138832   9.218   5.164   7.266  2.0273 -0.4832  2.3809
40280SOL    HW238833   9.081   5.215   7.307  1.9458  1.2470  0.1504
40281SOL     OW38834  10.776  10.529   0.157  0.0859 -0.1345 -0.7141
40281SOL    HW138835  10.720  10.452   0.149 -0.3187 -0.0448  0.8899
40281SOL    HW238836  10.859  10.502   0.118  0.3325 -1.8221  0.8228
40282SOL     OW38837   5.388   4.357   3.986 -0.0612 -0.4224 -0.3427
40282SOL    HW138838   5.321   4.414   3.947  0.1573 -0.1331 -0.2983
40282SOL    HW238839   5.389   4.280   3.929  0.3072  0.0283 -0.9693
40283SOL     OW38840   8.971   8.080   7.424  0.1077  0.0561  0.0845
40283SOL    HW138841   9.066   8.065   7.423  0.0575 -0.3802  0.8415
40283SOL    HW238842   8.937   8.012   7.483 -0.9600 -1.4512 -2.1210
40284SOL     OW38843   7.053   3.016   9.183  0.0316  0.1466 -0.6939
40284SOL    HW138844   6.986   3.045   9.121 -0.9894  2.1203  1.1788
40284SOL    HW238845   7.009   2.950   9.237  0.6823 -1.0162 -1.5460
40285SOL     OW38846   1.013   1.116   1.675 -0.2400  0.0703  0.0773
40285SOL    HW138847   1.050   1.095   1.761 -0.0854  0.7286  0.1787
40285SOL    HW238848   1.017   1.034   1.626 -1.0830 -0.5291  0.9663
40286SOL     OW38849  12.722  10.881   7.667 -0.0952 -0.0933 -0.2699
40286SOL    HW138850  12.789  10.873   7.734 -0.3042 -0.1198 -0.0609
40286SOL    HW238851  12.747  10.818   7.599 -1.4611 -2.2973  1.1268
40287SOL     OW38852   1.797  12.682  11.347 -0.4936  0.1965 -0.0663
40287SOL    HW138853   1.874  12.692  11.404 -0.5678  0.4107 -0.0017
40287SOL    HW238854   1.723  12.709  11.402 -0.5710  0.3624 -0.2515
40288SOL     OW38855   3.506   2.052  10.474 -0.1954 -0.8685 -0.5865
40288SOL    HW138856   3.454   1.972  10.477  0.0816 -1.0147  0.3239
40288SOL    HW238857   3.497   2.091  10.561  2.1067 -1.4702 -0.0223
40289SOL     OW38858   1.756   7.316  11.340  0.0434 -0.0787 -0.5349
40289SOL    HW138859   1.691   7.314  11.410  0.9256 -2.0833  0.3136
40289SOL    HW238860   1.826   7.259  11.372  0.5875 -0.8537 -2.9618
40290SOL     OW38861  12.508   7.849   5.064 -0.2749 -0.0521  0.1421
40290SOL    HW138862  12.486   7.847   5.157 -1.5071 -0.1582 -0.1239
40290SOL    HW238863  12.449   7.785   5.024  0.2408 -0.0194 -0.7139
40291SOL     OW38864  10.985   8.867  13.911 -0.7943 -0.2728 -0.3402
40291SOL    HW138865  10.925   8.928  13.954 -1.4467 -1.0890 -0.0676
40291SOL    HW238866  11.070   8.910  13.916 -1.4734  1.3090 -1.5078
40292SOL     OW38867   8.104   5.032   0.732 -0.7020 -0.3620  0.0442
40292SOL    HW138868   8.184   5.061   0.688 -0.5837 -0.4576  0.1940
40292SOL    HW238869   8.033   5.061   0.675 -0.5411 -0.6725 -0.3135
40293SOL     OW38870  11.637  10.118   6.901  0.4704  0.1002  0.1235
40293SOL    HW138871  11.681  10.172   6.836  0.7457 -0.5796 -0.2674
40293SOL    HW238872  11.601  10.045   6.851  0.9684 -0.6078  0.7708
40294SOL     OW38873  13.991  10.849   7.132 -0.6459  0.4207 -0.3006
40294SOL    HW138874  14.045  10.843   7.053 -0.1176  1.3970 -0.0404
40294SOL    HW238875  14.048  10.892   7.196 -0.3903 -2.0309  1.2491
40295SOL     OW38876   2.386  11.997   7.775 -0.0818  0.5784  0.1773
40295SOL    HW138877   2.371  12.003   7.869  1.9355 -0.4840  0.6207
40295SOL    HW238878   2.364  11.906   7.754 -2.8516  1.3903 -0.9145
40296SOL     OW38879   6.380  11.733   3.402  0.0149  0.9349 -0.8811
40296SOL    HW138880   6.350  11.824   3.396  0.2946  1.3656  2.5122
40296SOL    HW238881   6.310  11.688   3.450  1.6958  0.3881  1.1646
40297SOL     OW38882   0.431  11.753   9.290 -0.3096 -0.0091 -0.7415
40297SOL    HW138883   0.466  11.664   9.290 -1.0492 -0.3276 -2.3628
40297SOL    HW238884   0.508  11.809   9.292  0.1887 -0.6781 -0.9134
40298SOL     OW38885   2.089   7.083   9.489 -0.3217 -0.8333 -0.4615
40298SOL    HW138886   2.056   7.165   9.525 -1.9235 -1.0260 -1.3857
40298SOL    HW238887   2.044   7.015   9.539  1.6649 -1.2244  0.9174
40299SOL     OW38888   9.280  12.229   1.395 -0.3781 -0.3255 -0.2777
40299SOL    HW138889   9.280  12.208   1.301  0.3027  0.8057 -0.5616
40299SOL    HW238890   9.363  12.195   1.427 -0.7096 -0.9076 -0.0308
40300SOL     OW38891   6.178   7.226   9.530 -0.2290  0.0639 -0.6136
40300SOL    HW138892   6.233   7.264   9.461 -0.2148 -1.2036 -1.3186
40300SOL    HW238893   6.157   7.138   9.499  0.8843 -1.0608  1.6132
40301SOL     OW38894  12.986   2.678   5.703  0.0232  0.8226  0.3954
40301SOL    HW138895  13.073   2.675   5.664  0.0661 -0.5079  0.5556
40301SOL    HW238896  12.964   2.587   5.721 -1.8955  1.0232 -0.7153
40302SOL     OW38897  10.826   6.185   2.534  0.2693 -0.1347  0.4566
40302SOL    HW138898  10.835   6.267   2.582 -1.6428 -0.7988  2.1051
40302SOL    HW238899  10.765   6.205   2.463  1.2272  0.2753 -0.2689
40303SOL     OW38900   9.116   7.948   5.207  0.3423  0.2960 -0.1361
40303SOL    HW138901   9.061   8.003   5.152 -2.5428 -2.8654 -0.7563
40303SOL    HW238902   9.205   7.964   5.176 -0.8622  0.8200 -3.7566
40304SOL     OW38903  10.193  11.002  11.638 -0.3337  0.1653  0.4505
40304SOL    HW138904  10.243  10.920  11.634  0.3273  0.6119 -1.4510
40304SOL    HW238905  10.131  10.988  11.709  0.6056 -1.4991  1.0128
40305SOL     OW38906  13.295   0.140   0.093 -0.3231 -0.2642 -0.3400
40305SOL    HW138907  13.348   0.187   0.158  0.6131 -1.2587 -0.3599
40305SOL    HW238908  13.277   0.206   0.025 -1.1400  0.7295  0.8024
40306SOL     OW38909   2.939   0.583   7.058 -0.2753  0.6195 -0.2467
40306SOL    HW138910   2.981   0.523   7.120  1.9850  1.2728 -1.0447
40306SOL    HW238911   2.934   0.666   7.106 -0.5407  0.5794 -0.2037
40307SOL     OW38912  11.097  13.529  11.006  0.0952 -0.0798  0.2463
40307SOL    HW138913  11.115  13.623  11.010 -0.2539 -0.0330  0.9345
40307SOL    HW238914  11.003  13.522  11.021 -0.0220 -0.4893 -0.6195
40308SOL     OW38915   2.185   8.835   8.339 -0.4021  0.6526 -0.0723
40308SOL    HW138916   2.252   8.904   8.337  0.8671 -0.5496 -1.1843
40308SOL    HW238917   2.105   8.879   8.310 -0.4849  2.4138  2.4349
40309SOL     OW38918   8.735   8.643   3.052 -0.1065  0.3588 -0.1884
40309SOL    HW138919   8.791   8.676   3.122 -2.5282  0.6081  1.7496
40309SOL    HW238920   8.741   8.548   3.058 -0.2827  0.3811  0.3513
40310SOL     OW38921   4.608  10.604  14.046  0.2614 -0.3633 -0.0433
40310SOL    HW138922   4.669  10.567  13.982 -1.0197 -3.9844  0.5923
40310SOL    HW238923   4.649  10.589  14.131  0.5149  1.5105  0.2134
40311SOL     OW38924   3.376   2.846  13.444 -0.1287  0.4989  0.8376
40311SOL    HW138925   3.324   2.868  13.521  0.0647 -0.1116  1.1512
40311SOL    HW238926   3.455   2.899  13.452 -0.6078  1.2845  0.4611
40312SOL     OW38927   4.127   7.297   3.799  0.2725 -0.1852  0.2799
40312SOL    HW138928   4.150   7.214   3.840 -1.4773 -0.4811  0.7511
40312SOL    HW238929   4.084   7.272   3.717  0.1233  0.2786  0.2151
40313SOL     OW38930   6.186   6.003   7.355  0.4371 -0.0262  0.6032
40313SOL    HW138931   6.209   6.005   7.448  0.6798 -1.3375  0.5807
40313SOL    HW238932   6.090   6.012   7.355 -0.0092 -3.3934  1.2382
40314SOL     OW38933  11.835  12.114   7.652  0.2493  0.2440  0.0052
40314SOL    HW138934  11.850  12.209   7.650  0.0950  0.2692  0.0560
40314SOL    HW238935  11.753  12.102   7.605  0.0872  0.1678  0.3088
40315SOL     OW38936  10.826   4.455  11.609  0.3335 -0.2405  0.0804
40315SOL    HW138937  10.734   4.448  11.584  0.5718 -1.3330 -0.5173
40315SOL    HW238938  10.852   4.542  11.579 -0.1725 -0.4103 -0.8828
40316SOL     OW38939  13.627   4.643   8.219 -0.0691  0.2967 -0.3317
40316SOL    HW138940  13.714   4.604   8.215 -0.8996 -1.7310  0.2611
40316SOL    HW238941  13.571   4.583   8.170 -1.7262 -0.2585  2.0849
40317SOL     OW38942   0.391  10.919  12.589 -0.5211 -0.2754 -0.7011
40317SOL    HW138943   0.422  10.829  12.590  1.0730  0.2481 -0.2128
40317SOL    HW238944   0.331  10.924  12.664  0.1739 -0.6799 -0.1051
40318SOL     OW38945   9.772   9.996  10.351  0.3203 -0.2175  0.5944
40318SOL    HW138946   9.859   9.957  10.344  1.5273  1.6643  3.2913
40318SOL    HW238947   9.780  10.080  10.306 -0.9330 -1.0401 -1.3016
40319SOL     OW38948   6.257   1.670   4.902 -0.3914 -0.6903  0.1515
40319SOL    HW138949   6.264   1.749   4.848 -1.2602 -0.4505  0.3714
40319SOL    HW238950   6.197   1.694   4.972 -0.9149 -1.6373  0.0509
40320SOL     OW38951   8.678   7.617   3.765  0.2467  0.4966 -0.6169
40320SOL    HW138952   8.769   7.647   3.768 -0.0494  1.4487 -0.7482
40320SOL    HW238953   8.627   7.697   3.747 -0.5648 -0.1091 -1.0807
40321SOL     OW38954   0.486   9.947   6.122  0.6914 -0.3606  0.4037
40321SOL    HW138955   0.541   9.986   6.055  1.1672  1.3604  1.7250
40321SOL    HW238956   0.532   9.966   6.205 -0.7608 -0.8354  1.3541
40322SOL     OW38957  10.033   8.224  10.153  0.3425  0.5145 -1.0777
40322SOL    HW138958  10.033   8.137  10.113 -0.9940  0.5694 -1.2210
40322SOL    HW238959   9.971   8.216  10.226  0.4466  1.2716 -0.9053
40323SOL     OW38960  10.109  12.811   0.832  0.5064  0.1605  0.8418
40323SOL    HW138961  10.194  12.796   0.792 -0.3269  0.5814 -1.1980
40323SOL    HW238962  10.127  12.867   0.907  1.8213  2.0927 -0.8226
40324SOL     OW38963   6.152   8.664  13.050  0.0603 -0.0661  0.0954
40324SOL    HW138964   6.162   8.736  13.113  0.2499 -0.7411  0.8597
40324SOL    HW238965   6.161   8.585  13.103 -0.8704 -0.6651 -0.6069
40325SOL     OW38966   0.966   6.426  13.491 -0.1601  0.2063 -0.5474
40325SOL    HW138967   0.919   6.436  13.409  0.0801 -1.1803 -0.8667
40325SOL    HW238968   1.017   6.345  13.481  0.5332  0.4658  0.6402
40326SOL     OW38969   1.591   9.355   8.260 -0.3771  0.0297  0.2845
40326SOL    HW138970   1.627   9.285   8.206 -0.1010 -1.5244  2.3527
40326SOL    HW238971   1.512   9.383   8.214 -0.5574 -1.7362 -0.5445
40327SOL     OW38972   7.774   8.940   5.900 -0.0025 -0.8162 -0.0221
40327SOL    HW138973   7.840   8.892   5.950 -1.0056 -2.0355  0.1879
40327SOL    HW238974   7.746   9.010   5.959  0.7240 -0.5913  0.0751
40328SOL     OW38975   6.068   8.028  13.550 -0.2038 -0.1215  0.2534
40328SOL    HW138976   6.055   7.963  13.482  1.4792 -0.6644  0.4036
40328SOL    HW238977   6.159   8.056  13.540  0.0090  0.0009  2.0550
40329SOL     OW38978   4.375   4.826   2.051 -0.3317  0.2100 -0.2075
40329SOL    HW138979   4.390   4.812   1.958  0.6184 -0.9279  0.0987
40329SOL    HW238980   4.351   4.741   2.085 -0.7428  0.6321  0.5830
40330SOL     OW38981  12.174   4.627   7.069 -0.3444  0.3686  0.5665
40330SOL    HW138982  12.257   4.603   7.028 -1.5810  0.0945 -1.9865
40330SOL    HW238983  12.134   4.543   7.092 -0.6281  0.4067  0.2231
40331SOL     OW38984   9.567   0.989   8.572  0.0013  0.0401  0.4967
40331SOL    HW138985   9.626   0.977   8.497  0.6589 -0.6624  1.1103
40331SOL    HW238986   9.543   1.081   8.569  0.6443  0.1935 -0.1324
40332SOL     OW38987   9.405   9.845   0.838 -0.3946 -0.1264  0.5191
40332SOL    HW138988   9.357   9.913   0.791 -0.2547  0.3413  1.0434
40332SOL    HW238989   9.471   9.892   0.889  1.0796 -0.8003 -0.6961
40333SOL     OW38990   6.734   3.218   6.843 -0.1217  0.1042 -0.0438
40333SOL    HW138991   6.742   3.262   6.759 -2.5466  0.4441 -0.1730
40333SOL    HW238992   6.758   3.285   6.907 -1.8696  1.0780 -0.3378
40334SOL     OW38993   1.927  10.359  14.071 -0.0200  0.6499  0.2230
40334SOL    HW138994   1.882  10.318  13.996  2.1940 -0.6093 -0.5146
40334SOL    HW238995   1.862  10.357  14.141 -1.1866 -0.9328 -0.8196
40335SOL     OW38996  11.924   1.165   7.456 -0.1130 -0.2700 -0.4540
40335SOL    HW138997  11.895   1.256   7.462 -0.0809 -0.3579  1.7840
40335SOL    HW238998  11.938   1.151   7.363 -0.1270  2.0081 -0.8612
40336SOL     OW38999  11.351   5.770   2.679 -0.3567 -0.6407 -0.2320
40336SOL    HW139000  11.267   5.776   2.634 -0.8142 -0.8395  0.5624
40336SOL    HW239001  11.367   5.859   2.711  0.1701 -0.4091 -1.1393
40337SOL     OW39002   9.207   7.743  14.157  0.8702  0.1181  0.0583
40337SOL    HW139003   9.292   7.699  14.166 -0.0186 -1.3523  1.8164
40337SOL    HW239004   9.142   7.674  14.174 -0.7591  0.9242 -2.3624
40338SOL     OW39005   8.249  12.472   3.099 -0.3074 -0.5776 -0.0508
40338SOL    HW139006   8.234  12.389   3.144 -0.4493 -0.3594  0.3098
40338SOL    HW239007   8.321  12.512   3.147 -0.3177 -0.4407 -0.1512
40339SOL     OW39008   2.527   7.308   0.866  0.1604 -0.5565 -0.3266
40339SOL    HW139009   2.536   7.402   0.883  1.0384 -0.8845  1.2802
40339SOL    HW239010   2.434   7.291   0.876 -0.1883  0.3306 -1.8366
40340SOL     OW39011   6.715   6.317  12.354 -0.2041 -0.1679  0.1836
40340SOL    HW139012   6.785   6.322  12.420  0.3929 -0.1527 -0.4330
40340SOL    HW239013   6.735   6.388  12.293 -0.6145 -0.3293 -0.1416
40341SOL     OW39014   8.987   0.805   6.760 -0.1902 -0.0708 -0.3676
40341SOL    HW139015   8.908   0.764   6.724 -0.0756 -0.8673  0.2761
40341SOL    HW239016   9.018   0.861   6.689 -1.9996  1.2165 -0.2197
40342SOL     OW39017  13.565   6.225   0.728 -0.0220 -0.0634 -0.4226
40342SOL    HW139018  13.639   6.173   0.694  0.3086 -0.3591  0.7212
40342SOL    HW239019  13.489   6.192   0.679  0.4994 -0.1804 -1.1775
40343SOL     OW39020   8.001   9.748  13.366 -0.1133 -0.0784  0.0507
40343SOL    HW139021   8.089   9.773  13.338  0.2878 -1.3295  0.1562
40343SOL    HW239022   7.961   9.830  13.394  0.7990  0.6019 -0.5772
40344SOL     OW39023  11.759  12.341   7.082 -0.9324 -0.5769  0.1851
40344SOL    HW139024  11.848  12.355   7.048 -0.7458  1.0113  1.1992
40344SOL    HW239025  11.703  12.345   7.005 -0.2716  0.2589 -0.2744
40345SOL     OW39026   4.438   6.680  11.200  0.0081 -0.2104  0.1765
40345SOL    HW139027   4.498   6.605  11.206 -0.4513 -0.6416 -0.4718
40345SOL    HW239028   4.351   6.642  11.214 -0.2015  0.2557  0.1606
40346SOL     OW39029  13.453   9.465   4.127 -0.1846 -0.2647  0.1606
40346SOL    HW139030  13.468   9.553   4.162  1.4919 -0.9049  1.2000
40346SOL    HW239031  13.442   9.477   4.033 -0.4317  1.0932  0.3530
40347SOL     OW39032   8.485   9.093   4.871  0.1691  0.5831 -0.0328
40347SOL    HW139033   8.429   9.126   4.800 -0.4772 -0.3549  0.0177
40347SOL    HW239034   8.520   9.171   4.912  0.9532  1.1491 -1.6874
40348SOL     OW39035   3.389   1.553   2.133  0.0217 -0.2510  0.1427
40348SOL    HW139036   3.469   1.534   2.182 -0.5806 -0.8205  0.9258
40348SOL    HW239037   3.362   1.468   2.098 -1.3426 -0.4659  1.5952
40349SOL     OW39038   7.192  12.216   9.849 -0.2856 -0.1525  0.3913
40349SOL    HW139039   7.277  12.260   9.846 -0.2826 -0.1674  0.2703
40349SOL    HW239040   7.139  12.272   9.906  1.1772 -2.5124  4.5206
40350SOL     OW39041   8.125   1.106  11.890 -0.3353  0.0177  0.5095
40350SOL    HW139042   8.038   1.141  11.909 -0.1218  0.2965  0.9801
40350SOL    HW239043   8.113   1.052  11.811 -1.0340 -0.3452  0.8570
40351SOL     OW39044   7.079   0.699   1.457 -0.0370 -0.9233 -0.2246
40351SOL    HW139045   7.055   0.750   1.534 -0.0358  0.8481 -1.3528
40351SOL    HW239046   7.068   0.608   1.485 -0.1520 -0.3446  1.8174
40352SOL     OW39047  10.034   5.509  10.704 -0.1538  0.5763  0.3767
40352SOL    HW139048  10.084   5.510  10.786 -2.4440  1.6872  1.8916
40352SOL    HW239049  10.061   5.589  10.659  0.1838  0.6385  0.6797
40353SOL     OW39050   9.297   1.210   5.624  0.0851  0.1055  0.0202
40353SOL    HW139051   9.255   1.125   5.611 -0.8734  0.6373 -0.4290
40353SOL    HW239052   9.371   1.210   5.563 -0.2252 -0.1974 -0.3573
40354SOL     OW39053   4.144   5.659   0.432 -0.4072 -0.2100  0.0742
40354SOL    HW139054   4.179   5.625   0.350  2.0088 -0.9837  1.3059
40354SOL    HW239055   4.101   5.584   0.473 -0.8191 -0.0627 -0.0890
40355SOL     OW39056  10.843  14.135   1.386  0.2165 -0.0471  0.0998
40355SOL    HW139057  10.771  14.112   1.328 -1.0922 -2.0745  2.2961
40355SOL    HW239058  10.811  14.209   1.438  0.5833  0.4490 -0.3740
40356SOL     OW39059  10.940   5.852  12.250 -0.8007 -0.0692  0.4483
40356SOL    HW139060  10.945   5.757  12.239  0.1109  0.1043 -0.8442
40356SOL    HW239061  10.888   5.882  12.174  0.1206  0.5883  0.0616
40357SOL     OW39062   7.221   8.144  13.506 -0.4496 -0.2452  0.4160
40357SOL    HW139063   7.130   8.116  13.517 -1.0538  1.8504  1.1905
40357SOL    HW239064   7.216   8.239  13.502  1.8338 -0.0125  1.7188
40358SOL     OW39065   4.837  12.101   6.709 -0.2978  0.5443 -0.1786
40358SOL    HW139066   4.786  12.172   6.747  0.1675  0.0985  1.3305
40358SOL    HW239067   4.801  12.021   6.749 -0.3838 -0.0347 -1.3572
40359SOL     OW39068   5.494   0.274   3.444  0.5530  0.1221  0.2316
40359SOL    HW139069   5.542   0.191   3.436 -1.8321 -1.6019  2.2623
40359SOL    HW239070   5.562   0.338   3.465  2.1542 -2.0401  2.2603
40360SOL     OW39071   4.866   0.701   9.227 -0.1916 -1.0118 -0.0143
40360SOL    HW139072   4.961   0.691   9.239  0.5257  1.7666 -2.2504
40360SOL    HW239073   4.836   0.744   9.306  1.2010  1.5418 -0.7692
40361SOL     OW39074   0.742   8.440  12.292 -0.1437  0.0095  0.4132
40361SOL    HW139075   0.772   8.375  12.229 -1.3382 -0.8831  0.7271
40361SOL    HW239076   0.767   8.524  12.253  0.2865 -0.5764 -0.6201
40362SOL     OW39077   1.012  11.304   2.575  0.5809 -0.5648 -0.1707
40362SOL    HW139078   0.941  11.301   2.511  0.2107  0.3043  0.1848
40362SOL    HW239079   1.078  11.359   2.534  0.3627 -0.0433  0.1702
40363SOL     OW39080   0.001   3.332   7.142  0.2209 -0.1999  0.7688
40363SOL    HW139081   0.032   3.248   7.110  1.2825  0.6879 -0.6843
40363SOL    HW239082   0.031   3.337   7.232 -0.4756 -1.6459  1.1084
40364SOL     OW39083   9.218   2.025   9.243 -0.4175  0.0535 -0.3930
40364SOL    HW139084   9.226   1.933   9.268  0.0745 -0.4013 -2.0900
40364SOL    HW239085   9.267   2.073   9.310  1.2787 -1.1299 -0.7278
40365SOL     OW39086   3.021   9.289  14.065 -0.3184  0.0030  0.2468
40365SOL    HW139087   3.041   9.229  13.993  1.8632  0.5432  0.3284
40365SOL    HW239088   3.077   9.260  14.137 -1.3252  0.4213  1.2401
40366SOL     OW39089   8.181   1.413   9.687  0.1685 -0.2261  0.2360
40366SOL    HW139090   8.186   1.445   9.777  1.0747  1.0159 -0.2196
40366SOL    HW239091   8.196   1.319   9.694  2.3053  0.1201  1.2398
40367SOL     OW39092   1.485   2.615   6.272 -0.2914  0.8114  0.2292
40367SOL    HW139093   1.444   2.545   6.323 -0.8694 -0.0401 -1.3129
40367SOL    HW239094   1.470   2.694   6.323 -2.5891  0.3041  0.4667
40368SOL     OW39095  11.842   4.557   6.052  0.8610  0.2023  0.2982
40368SOL    HW139096  11.906   4.507   6.001  2.5489  0.9593  1.5788
40368SOL    HW239097  11.807   4.621   5.990  1.5440 -0.0477 -0.3579
40369SOL     OW39098   8.314  12.437  10.555 -0.2454  0.0115 -0.2546
40369SOL    HW139099   8.311  12.402  10.644  0.1238  0.1455 -0.1854
40369SOL    HW239100   8.242  12.395  10.510  0.7669 -1.5988 -0.4440
40370SOL     OW39101  11.857   0.420   1.901 -0.2607  0.6275  0.2342
40370SOL    HW139102  11.859   0.442   1.994 -0.6629 -1.2046  0.7118
40370SOL    HW239103  11.793   0.349   1.895  2.1655 -1.5851 -0.9099
40371SOL     OW39104   0.902  11.213   7.842 -0.5781  0.3074  0.6538
40371SOL    HW139105   0.956  11.225   7.920 -0.8675 -0.6232  1.0130
40371SOL    HW239106   0.904  11.119   7.826 -1.5407  0.3433  0.2782
40372SOL     OW39107   1.732   7.961   8.301  0.7552  0.3518  0.4380
40372SOL    HW139108   1.704   8.049   8.276 -1.3300 -0.5502 -0.6400
40372SOL    HW239109   1.821   7.973   8.334  0.1224  3.0354  1.4626
40373SOL     OW39110   9.896   1.918   2.861  0.1614 -0.0529 -0.3587
40373SOL    HW139111   9.867   1.990   2.917  1.0532  0.4490 -0.5214
40373SOL    HW239112   9.864   1.940   2.774  0.3182  0.0839 -0.3824
40374SOL     OW39113  11.644   1.539   0.021  0.0039 -0.4924 -0.8681
40374SOL    HW139114  11.677   1.467   0.075 -0.3149 -0.9894 -1.3164
40374SOL    HW239115  11.646   1.615   0.078  0.7151 -0.7755 -0.4998
40375SOL     OW39116   2.206   3.862   1.880 -0.5665 -0.3043 -0.1750
40375SOL    HW139117   2.157   3.834   1.802  0.8133 -0.9032 -0.8554
40375SOL    HW239118   2.297   3.869   1.851 -0.3682  1.9291  0.7662
40376SOL     OW39119  10.131   5.377  12.790 -0.2492  0.2676  0.1879
40376SOL    HW139120  10.211   5.349  12.746  0.6626  0.0663  1.8587
40376SOL    HW239121  10.122   5.317  12.864 -2.1135  0.1225 -0.1196
40377SOL     OW39122  13.322  14.139   2.186  0.6765  0.1940  0.4966
40377SOL    HW139123  13.273  14.148   2.103  0.2204  1.4953  0.8789
40377SOL    HW239124  13.260  14.097   2.245  0.0355  1.7092  0.9377
40378SOL     OW39125  13.610   4.061   3.447  0.2009  0.3346  0.5121
40378SOL    HW139126  13.625   3.986   3.504  0.0451  1.0591  1.5255
40378SOL    HW239127  13.677   4.053   3.379 -0.6034 -1.4212 -0.1427
40379SOL     OW39128   7.528   6.302   9.603 -0.3322  0.0476  0.2559
40379SOL    HW139129   7.585   6.229   9.579  0.0560 -0.1434  1.6779
40379SOL    HW239130   7.441   6.264   9.607 -0.6033  0.3101 -1.7928
40380SOL     OW39131  12.712   9.473   7.382 -0.1069 -0.2135  0.3468
40380SOL    HW139132  12.710   9.440   7.292  1.4551 -0.1291  0.2412
40380SOL    HW239133  12.798   9.448   7.415  0.7262  2.6312  0.6599
40381SOL     OW39134   7.984   8.945   6.082 -0.3925  0.6760  0.5591
40381SOL    HW139135   8.046   8.998   6.031  0.7789 -0.7458  0.4305
40381SOL    HW239136   8.024   8.938   6.169 -1.1777  1.0673  0.9604
40382SOL     OW39137   8.878   7.077   2.291  1.1702  0.0066  0.0259
40382SOL    HW139138   8.795   7.124   2.287  0.5947 -0.7054  2.2095
40382SOL    HW239139   8.855   6.989   2.321  2.8016  0.1589  1.9007
40383SOL     OW39140  12.873   3.642   1.905  0.8296 -0.2180  0.3632
40383SOL    HW139141  12.833   3.647   1.991 -0.6957 -1.7293 -0.1963
40383SOL    HW239142  12.957   3.598   1.919  1.7897  1.7770  1.3600
40384SOL     OW39143   0.553   2.548   0.785 -0.5294  0.2825  0.1675
40384SOL    HW139144   0.539   2.605   0.860 -1.3710  0.7275 -0.3065
40384SOL    HW239145   0.643   2.565   0.757  0.4393 -1.2153  2.1509
40385SOL     OW39146   8.944   4.116   1.630  0.0129 -0.0749 -0.5467
40385SOL    HW139147   8.979   4.108   1.719 -1.3551 -1.0447 -0.0705
40385SOL    HW239148   9.012   4.079   1.574  0.5514 -0.1803  0.1631
40386SOL     OW39149   6.580   8.435   0.849  0.0681  0.4439 -0.2504
40386SOL    HW139150   6.623   8.436   0.934 -0.0914  1.4157 -0.1693
40386SOL    HW239151   6.515   8.365   0.856 -1.0629  1.5693  1.0137
40387SOL     OW39152   7.220  13.614  10.621  0.2240  0.4023 -0.3394
40387SOL    HW139153   7.230  13.708  10.639  0.7156  0.0740  1.1962
40387SOL    HW239154   7.155  13.584  10.684 -0.7670 -0.1068 -1.5483
40388SOL     OW39155  12.345   4.891   7.700 -0.0669  0.1487  0.8717
40388SOL    HW139156  12.273   4.854   7.751 -1.7940  0.2686 -1.3328
40388SOL    HW239157  12.323   4.872   7.609  2.1334  1.2089  0.0242
40389SOL     OW39158   1.133  11.396   0.168 -0.2374 -0.0879 -0.2062
40389SOL    HW139159   1.118  11.415   0.260 -1.6315 -2.1772  0.0604
40389SOL    HW239160   1.052  11.421   0.124 -0.8589 -2.1400 -0.3193
40390SOL     OW39161   0.198  12.220  11.020 -0.0935  0.6924  0.1548
40390SOL    HW139162   0.162  12.299  11.060 -0.2279  0.8173 -0.2010
40390SOL    HW239163   0.124  12.158  11.021  0.2769  0.2463  1.2755
40391SOL     OW39164   1.855   9.281  11.007 -0.3273 -0.3645 -0.6235
40391SOL    HW139165   1.826   9.275  10.916 -3.0041  0.2761  0.0813
40391SOL    HW239166   1.799   9.349  11.045 -0.5553 -1.8573  1.9295
40392SOL     OW39167   3.327  11.719   6.656 -0.0006 -0.0925  0.1298
40392SOL    HW139168   3.354  11.739   6.745 -0.9461 -1.1332  0.6815
40392SOL    HW239169   3.247  11.769   6.643 -0.8151 -1.2497  0.5081
40393SOL     OW39170   5.929   2.806  13.031  0.0121 -0.4939 -0.2228
40393SOL    HW139171   5.834   2.806  13.015  0.0404 -0.3972 -0.3936
40393SOL    HW239172   5.959   2.891  12.999 -0.1815  0.4490  1.9715
40394SOL     OW39173   2.635  13.437  10.088  0.0145  0.5461 -0.3149
40394SOL    HW139174   2.560  13.468  10.138  1.1022  0.3346  1.5374
40394SOL    HW239175   2.656  13.509  10.029 -1.0346  0.9731 -0.1927
40395SOL     OW39176   7.464   0.837   0.470 -0.2012  0.2225 -0.1822
40395SOL    HW139177   7.402   0.886   0.524  1.7739 -0.3763  2.9276
40395SOL    HW239178   7.478   0.755   0.518  2.7474  0.2317 -0.8288
40396SOL     OW39179   5.542   4.084  13.410 -0.2802  0.0956 -0.2022
40396SOL    HW139180   5.607   4.035  13.360 -1.0097 -0.7101 -0.3843
40396SOL    HW239181   5.550   4.174  13.378  1.5198  0.2493  0.6046
40397SOL     OW39182   4.928  12.015   1.628 -0.1615  0.0982 -0.3472
40397SOL    HW139183   4.870  11.950   1.667 -0.9648  1.1142  0.2184
40397SOL    HW239184   4.978  11.967   1.561 -1.9418 -0.7245 -1.1388
40398SOL     OW39185   5.268   5.259  10.509  0.2824  0.6487  0.3774
40398SOL    HW139186   5.248   5.173  10.473 -0.0464  1.0770 -0.4781
40398SOL    HW239187   5.308   5.307  10.436  0.1387  1.3387  0.7456
40399SOL     OW39188   9.592   6.970   2.710 -0.7060 -0.2301 -0.5793
40399SOL    HW139189   9.562   7.034   2.775  0.3167 -1.2393  0.9494
40399SOL    HW239190   9.684   6.991   2.696 -0.6225 -0.7459 -0.8208
40400SOL     OW39191  11.926   8.898   7.089 -0.6222 -0.0780  0.4154
40400SOL    HW139192  11.915   8.819   7.036 -0.3521 -0.5447  1.0292
40400SOL    HW239193  11.893   8.872   7.176  0.8973 -0.0181  1.0360
40401SOL     OW39194   6.481   4.771  12.152 -0.0602 -0.3524 -0.0751
40401SOL    HW139195   6.518   4.772  12.240 -1.7640 -0.1706  0.6879
40401SOL    HW239196   6.438   4.856  12.143  2.4218  0.8258 -2.2095
40402SOL     OW39197  11.150   9.485  11.869 -0.0054 -0.4486 -0.6379
40402SOL    HW139198  11.140   9.513  11.778 -0.1455  1.3313 -0.1220
40402SOL    HW239199  11.212   9.412  11.865 -0.3699 -0.7096 -2.1883
40403SOL     OW39200   2.063  11.215   3.526 -0.2034  0.0219 -0.0228
40403SOL    HW139201   2.086  11.134   3.571 -1.7640 -0.0018  0.7963
40403SOL    HW239202   1.977  11.198   3.489  0.2704  0.6804 -1.4887
40404SOL     OW39203  14.003  10.811   9.813 -0.2781  0.5513 -0.0323
40404SOL    HW139204  14.005  10.905   9.797 -0.8797  0.6445  0.4139
40404SOL    HW239205  13.923  10.797   9.864  0.1322 -0.1113  0.4481
40405SOL     OW39206   8.683  10.234  13.112 -0.2771 -0.5027 -0.2283
40405SOL    HW139207   8.601  10.186  13.126 -1.3998  1.3337 -0.0993
40405SOL    HW239208   8.681  10.304  13.177  1.8506 -0.9149  0.3476
40406SOL     OW39209  13.177   4.905   4.997 -0.2487  0.3081  0.4924
40406SOL    HW139210  13.104   4.956   4.962 -0.2787 -0.1498 -0.1264
40406SOL    HW239211  13.238   4.971   5.029 -1.9778  0.7110  3.3243
40407SOL     OW39212   7.754   2.341  10.775 -0.5961  0.4800 -0.3075
40407SOL    HW139213   7.807   2.284  10.721 -0.7704  1.2838 -1.3684
40407SOL    HW239214   7.816   2.401  10.817 -0.5769  0.8378 -0.8367
40408SOL     OW39215   1.004   5.111   2.497  0.2935  0.2344  0.5392
40408SOL    HW139216   1.065   5.050   2.538 -2.7115 -2.7407  0.9016
40408SOL    HW239217   1.014   5.095   2.403 -1.3336 -1.8555  0.6631
40409SOL     OW39218   6.543   9.079  13.563 -0.0528  0.5390  0.0366
40409SOL    HW139219   6.621   9.120  13.526  0.0740  1.1223  0.9179
40409SOL    HW239220   6.577   9.020  13.630 -0.3396  0.4240  0.0795
40410SOL     OW39221   6.864   0.018   3.703  0.1646  0.0516  0.2265
40410SOL    HW139222   6.883  -0.060   3.652  0.0820 -0.2255  0.6182
40410SOL    HW239223   6.924   0.085   3.668 -0.2642  0.0188 -0.5945
40411SOL     OW39224  11.494   4.663  13.379 -0.3172  0.4338  0.1883
40411SOL    HW139225  11.435   4.680  13.453 -1.6541 -2.7161 -0.0129
40411SOL    HW239226  11.555   4.596  13.411  0.6553  0.7857 -0.8506
40412SOL     OW39227   0.700   2.484   5.338  0.0104  0.1218  0.1782
40412SOL    HW139228   0.676   2.483   5.246  2.3344 -0.5895 -0.4905
40412SOL    HW239229   0.664   2.403   5.374  2.5944 -1.7713 -1.1840
40413SOL     OW39230   0.239   0.570   8.933 -0.2167 -0.1624 -0.3549
40413SOL    HW139231   0.309   0.554   8.996 -1.2647 -0.2598  0.7984
40413SOL    HW239232   0.269   0.526   8.853  1.9544  1.4557 -0.5293
40414SOL     OW39233  12.014   5.645   0.099  0.0061  0.0523  0.3576
40414SOL    HW139234  11.981   5.576   0.041 -0.6989  0.1699  0.6132
40414SOL    HW239235  12.071   5.698   0.042  2.4035 -1.9894  0.6659
40415SOL     OW39236   3.909   9.848   2.887 -0.1333 -0.2070  0.5894
40415SOL    HW139237   3.817   9.867   2.905 -0.3207 -0.4534 -0.0897
40415SOL    HW239238   3.935   9.786   2.955 -0.5474 -0.3633  0.6067
40416SOL     OW39239  11.365   5.098   3.850  0.4197 -0.9465 -0.1549
40416SOL    HW139240  11.362   5.146   3.767 -0.9891  0.1384  0.4799
40416SOL    HW239241  11.392   5.010   3.825  2.3398 -0.0720 -1.4596
40417SOL     OW39242   1.747   8.678   4.068 -1.0300 -0.2633  0.2035
40417SOL    HW139243   1.690   8.626   4.124 -2.0231  2.0917  1.5141
40417SOL    HW239244   1.750   8.764   4.110  1.8317  0.3219 -0.9529
40418SOL     OW39245   8.367   4.746  10.531  0.0503  0.1084 -0.0027
40418SOL    HW139246   8.383   4.748  10.437 -0.7166 -1.5806 -0.1930
40418SOL    HW239247   8.452   4.770  10.570  0.5760  0.0912 -1.1066
40419SOL     OW39248   7.623  11.343   8.709  0.3380  0.3121 -0.2099
40419SOL    HW139249   7.709  11.383   8.725  0.2157  0.3369  0.4358
40419SOL    HW239250   7.563  11.395   8.763 -0.2419  0.9073 -1.4001
40420SOL     OW39251   5.480   3.721   3.547  0.0091  0.4386 -0.2694
40420SOL    HW139252   5.485   3.626   3.545  1.3508  0.4796  0.1309
40420SOL    HW239253   5.501   3.749   3.458 -1.3555  0.3485 -0.6403
40421SOL     OW39254   4.349   4.314  10.878  0.0417 -0.3916  0.0076
40421SOL    HW139255   4.257   4.335  10.894 -0.3696 -0.8687 -1.5875
40421SOL    HW239256   4.366   4.236  10.932 -0.2954  0.0622  0.7835
40422SOL     OW39257   5.390   0.642   9.104  0.5412  0.5526 -0.3326
40422SOL    HW139258   5.328   0.696   9.153  1.0562 -0.7847  1.9635
40422SOL    HW239259   5.353   0.554   9.107  1.0805  0.2561 -1.5744
40423SOL     OW39260   8.419   7.515  12.332 -0.1434  0.2062  0.5447
40423SOL    HW139261   8.464   7.446  12.381 -2.1978 -0.1548  2.0674
40423SOL    HW239262   8.487   7.579  12.313  1.6690 -1.8272 -0.2015
40424SOL     OW39263   0.993   4.911   8.984 -0.2163  0.1814 -0.1817
40424SOL    HW139264   0.997   4.960   8.902 -0.6116  0.9522  0.2445
40424SOL    HW239265   0.899   4.899   8.999 -0.1317 -0.3190 -0.0502
40425SOL     OW39266  13.418  12.789  10.835 -0.0893 -0.4241 -0.1194
40425SOL    HW139267  13.489  12.817  10.777 -0.3326 -1.6249 -1.0470
40425SOL    HW239268  13.371  12.723  10.784 -0.4662 -1.3387  1.3665
40426SOL     OW39269  11.187   8.087  10.193 -0.2312 -0.2547  0.2280
40426SOL    HW139270  11.133   8.166  10.203  0.2121 -0.2238  3.8772
40426SOL    HW239271  11.274   8.114  10.221  1.5342 -0.7016 -4.1190
40427SOL     OW39272  13.091   4.229  11.605 -0.2930  0.3510  0.0458
40427SOL    HW139273  13.015   4.173  11.587  0.4342 -0.1881 -1.4337
40427SOL    HW239274  13.161   4.168  11.627  0.6502  0.5845 -2.0862
40428SOL     OW39275   7.618   1.879   8.882  0.2305 -0.5284 -0.1831
40428SOL    HW139276   7.587   1.895   8.793  2.1619  0.4928 -0.7369
40428SOL    HW239277   7.539   1.882   8.936 -1.2643 -2.9650 -1.9995
40429SOL     OW39278   8.139   2.565   3.343  0.5561 -0.3369  0.0479
40429SOL    HW139279   8.205   2.521   3.290  0.6627  1.5776 -1.5449
40429SOL    HW239280   8.055   2.538   3.307  0.6162  0.4962 -0.7656
40430SOL     OW39281   5.343   9.105  11.602 -0.7849  0.0424  0.9790
40430SOL    HW139282   5.317   9.106  11.694  0.2114  1.7448  1.2731
40430SOL    HW239283   5.313   9.189  11.568 -0.3765 -0.2131 -0.0399
40431SOL     OW39284   8.282   6.006   6.345 -0.0637 -0.2917 -0.5543
40431SOL    HW139285   8.346   5.957   6.294 -0.9136 -1.7482 -0.2750
40431SOL    HW239286   8.201   5.956   6.335 -0.5096 -0.0056  1.3135
40432SOL     OW39287   4.896  11.117   7.996 -0.4019  0.7679  0.6424
40432SOL    HW139288   4.986  11.105   8.026 -0.4165 -1.2035  0.0659
40432SOL    HW239289   4.901  11.108   7.901 -0.9015  3.1357  0.3305
40433SOL     OW39290   3.734   7.213   9.575  0.4381 -0.5339 -0.0293
40433SOL    HW139291   3.700   7.299   9.551  0.0796 -0.9881 -1.2143
40433SOL    HW239292   3.816   7.231   9.621 -0.2272  0.4762  0.8197
40434SOL     OW39293   0.016   5.481   8.454  0.1805 -0.1080 -0.0126
40434SOL    HW139294  -0.074   5.451   8.466  0.4371 -0.9094 -0.0309
40434SOL    HW239295   0.020   5.509   8.363  0.8186 -3.2814 -1.0783
40435SOL     OW39296   7.252   5.221   6.839 -0.8862  0.0254 -0.5540
40435SOL    HW139297   7.183   5.287   6.843 -1.0915 -0.2269  0.4004
40435SOL    HW239298   7.270   5.210   6.746 -1.0413  1.2253 -0.7433
40436SOL     OW39299   7.856   6.460   3.407 -0.2897  0.7316  0.4546
40436SOL    HW139300   7.872   6.547   3.372 -1.5821  0.7111 -0.2485
40436SOL    HW239301   7.815   6.412   3.335 -1.2445  0.1004  1.3809
40437SOL     OW39302   4.378   7.339   5.311  0.3969 -0.2266 -0.0941
40437SOL    HW139303   4.320   7.263   5.314 -0.5996  0.5564  1.1915
40437SOL    HW239304   4.335   7.399   5.250  0.3334 -0.0117  0.1648
40438SOL     OW39305   7.547   7.084  12.322 -0.3240 -0.4492  0.3342
40438SOL    HW139306   7.486   7.113  12.255  1.3928  2.6332 -0.0701
40438SOL    HW239307   7.613   7.033  12.273 -0.1018  0.1692 -0.0218
40439SOL     OW39308  11.618  10.748   7.152 -0.6206  0.4239 -0.0225
40439SOL    HW139309  11.594  10.664   7.191 -1.0251  0.3825 -0.3569
40439SOL    HW239310  11.629  10.807   7.226  0.0757 -0.0233  0.2468
40440SOL     OW39311   4.901  11.312   0.729  0.6121  0.2541 -0.4136
40440SOL    HW139312   4.916  11.380   0.795  0.6330  0.5537 -0.7245
40440SOL    HW239313   4.911  11.230   0.777  0.3989  0.4700  0.0092
40441SOL     OW39314   0.418   4.579   7.333 -0.3128 -0.7854 -0.1260
40441SOL    HW139315   0.337   4.557   7.286  0.6068  1.0535 -2.8252
40441SOL    HW239316   0.394   4.653   7.389 -1.0839 -2.0539  1.2938
40442SOL     OW39317   1.551   1.936   9.314 -0.6666  0.3827  0.6465
40442SOL    HW139318   1.541   2.004   9.247 -0.0440  0.0489  0.2034
40442SOL    HW239319   1.578   1.982   9.393  0.4213  0.5854  0.1710
40443SOL     OW39320   1.269   7.184  11.826  0.0301  0.2427  0.5349
40443SOL    HW139321   1.256   7.127  11.750  0.3165  0.0905  0.6027
40443SOL    HW239322   1.180   7.196  11.861  0.1040 -1.2153  1.2970
40444SOL     OW39323   6.084   2.165   3.045 -0.2385 -0.1941  0.0237
40444SOL    HW139324   6.122   2.151   2.959 -1.8242 -0.4212 -0.6879
40444SOL    HW239325   6.082   2.260   3.056 -1.7777 -0.0550 -1.0795
40445SOL     OW39326   6.846  12.511   5.221  0.2513  0.2254 -0.0531
40445SOL    HW139327   6.891  12.491   5.303 -2.5585 -0.7213  1.3547
40445SOL    HW239328   6.761  12.546   5.248 -0.8049 -0.2033 -2.5601
40446SOL     OW39329  12.833  13.938   3.079 -0.1703  0.1333 -0.1605
40446SOL    HW139330  12.779  13.877   3.028  0.0277  0.1038 -0.3357
40446SOL    HW239331  12.916  13.891   3.091 -0.1901  0.1714  0.1243
40447SOL     OW39332   9.521  10.632   5.796  0.3291  0.0157  0.1120
40447SOL    HW139333   9.497  10.550   5.838  2.0273  0.1074  1.3526
40447SOL    HW239334   9.616  10.627   5.783 -0.0418 -0.0162 -3.8684
40448SOL     OW39335   1.847  13.451   1.445  0.4111 -0.1477  0.6758
40448SOL    HW139336   1.818  13.437   1.535  2.1406  1.4769  1.5612
40448SOL    HW239337   1.880  13.366   1.417 -3.0238 -1.5368  0.3329
40449SOL     OW39338   3.092   0.451   6.506  0.4805 -0.0055 -0.0979
40449SOL    HW139339   3.056   0.491   6.585 -1.1116 -0.1552 -0.7190
40449SOL    HW239340   3.139   0.522   6.462  0.6356  0.2909  0.5379
40450SOL     OW39341  12.567   0.636   2.894 -0.6116  0.0162  0.0131
40450SOL    HW139342  12.518   0.559   2.921  0.0591 -0.6247 -0.5518
40450SOL    HW239343  12.600   0.614   2.807  1.2389  0.1456  0.6486
40451SOL     OW39344   1.735   2.197   7.401  0.5946  0.1256  0.1961
40451SOL    HW139345   1.666   2.263   7.410  1.0754  0.7385 -0.4609
40451SOL    HW239346   1.794   2.233   7.334  1.3370 -0.5678  0.4604
40452SOL     OW39347   1.299  10.367   3.148  0.7258 -0.3490  0.2741
40452SOL    HW139348   1.275  10.392   3.238 -1.2205 -0.3068 -0.2035
40452SOL    HW239349   1.293  10.449   3.098  0.8950 -0.5371 -0.0590
40453SOL     OW39350   2.591   7.106   9.559  0.0519  0.2953  0.0193
40453SOL    HW139351   2.511   7.059   9.537  0.5595 -1.1324  1.1220
40453SOL    HW239352   2.567   7.199   9.550 -0.5940 -0.0544 -3.5024
40454SOL     OW39353   6.300  11.780   1.305 -0.1371 -0.0081 -0.2123
40454SOL    HW139354   6.359  11.844   1.345 -2.2190  1.4358  0.7131
40454SOL    HW239355   6.289  11.713   1.372 -0.6976  0.4907  0.2009
40455SOL     OW39356   1.993  10.797  12.205 -0.2456  0.0576  0.2810
40455SOL    HW139357   2.029  10.729  12.148  0.4291  1.1603 -0.6396
40455SOL    HW239358   1.910  10.820  12.165 -0.7154 -0.5407  0.8723
40456SOL     OW39359   8.492   1.520  12.106  0.0306 -0.5493  0.0814
40456SOL    HW139360   8.554   1.486  12.171 -0.1277  0.7555  0.9469
40456SOL    HW239361   8.521   1.610  12.091 -0.2495 -0.6675 -1.2946
40457SOL     OW39362   5.821   6.573  12.612  0.4223  0.3472 -0.1468
40457SOL    HW139363   5.765   6.649  12.594  0.5172  0.4107 -0.1791
40457SOL    HW239364   5.831   6.531  12.527 -1.6364 -1.1175  0.2561
40458SOL     OW39365   7.700   2.569   9.461 -0.2173  0.4558  0.1679
40458SOL    HW139366   7.690   2.626   9.385 -0.1312  0.8155  0.4251
40458SOL    HW239367   7.651   2.490   9.438 -0.2047  0.5678 -0.2544
40459SOL     OW39368   2.278   7.359  13.163  0.3471  0.0251 -0.5096
40459SOL    HW139369   2.310   7.420  13.097 -1.1468  0.4651 -0.8711
40459SOL    HW239370   2.221   7.412  13.219 -0.7393 -0.9612 -0.6515
40460SOL     OW39371   2.878   1.877   6.721  0.2301 -0.3330 -0.1404
40460SOL    HW139372   2.955   1.833   6.686  0.4804  1.2988 -1.8006
40460SOL    HW239373   2.839   1.922   6.646 -0.8774  0.9856  1.1413
40461SOL     OW39374  11.301   6.582  10.069 -0.2902 -0.1860 -0.1742
40461SOL    HW139375  11.260   6.495  10.067 -1.2793  0.2810 -1.6756
40461SOL    HW239376  11.274   6.619  10.154 -1.0215 -0.8105 -0.1246
40462SOL     OW39377   7.903   1.228  11.930  0.1102  0.1770  0.1863
40462SOL    HW139378   7.874   1.235  11.840 -0.3957 -1.9434  0.1106
40462SOL    HW239379   7.878   1.310  11.971 -2.2031  0.0894 -0.9335
40463SOL     OW39380   6.627   8.549  10.569  0.1074 -0.1984  0.4541
40463SOL    HW139381   6.637   8.551  10.664  0.2361  0.2361  0.4348
40463SOL    HW239382   6.709   8.510  10.538  0.9862  1.5693  0.4108
40464SOL     OW39383  11.173  13.329   2.266  0.0571  0.2557 -0.2573
40464SOL    HW139384  11.244  13.315   2.328  0.8229 -0.7562 -1.3074
40464SOL    HW239385  11.194  13.271   2.193 -0.3642  1.9911 -1.8337
40465SOL     OW39386   7.630  12.178  11.644  0.0988 -0.2770 -0.0754
40465SOL    HW139387   7.695  12.248  11.631  0.4618 -0.8092 -1.1546
40465SOL    HW239388   7.632  12.128  11.563 -1.3714 -0.5576  0.0446
40466SOL     OW39389  10.630   3.159   1.529 -0.2597 -0.5351 -0.0773
40466SOL    HW139390  10.717   3.195   1.515 -0.1620 -1.2716 -1.6083
40466SOL    HW239391  10.631   3.127   1.619  0.7723  0.1884  0.1806
40467SOL     OW39392   2.968  11.046   2.811  0.3039  0.1280 -0.0901
40467SOL    HW139393   2.983  11.024   2.903  1.5766  0.2106 -0.2657
40467SOL    HW239394   3.021  10.984   2.762  0.9942  1.1657 -0.7097
40468SOL     OW39395  10.412   2.187  12.947 -0.5506 -0.6490  0.2020
40468SOL    HW139396  10.450   2.206  12.861 -0.6715  0.3346  0.3457
40468SOL    HW239397  10.336   2.246  12.952 -1.0438 -1.3114  0.6378
40469SOL     OW39398   0.047   3.852   2.521 -0.5620  0.9283 -0.3367
40469SOL    HW139399   0.031   3.830   2.430 -3.9544  1.9133 -0.1184
40469SOL    HW239400   0.097   3.933   2.518  1.9194 -0.5030 -1.1751
40470SOL     OW39401   4.899  12.388  13.355 -1.2660 -0.2163  0.6437
40470SOL    HW139402   4.871  12.373  13.265 -0.8084 -1.2992  0.6697
40470SOL    HW239403   4.861  12.315  13.404  2.9128 -2.8648  0.4027
40471SOL     OW39404   5.698  13.167   0.481  0.2440  0.0611 -0.6611
40471SOL    HW139405   5.776  13.223   0.472  1.0453 -0.6435  1.1954
40471SOL    HW239406   5.652  13.203   0.557 -0.5286 -0.3475 -0.9249
40472SOL     OW39407  10.940  11.576   0.058  1.0222 -0.0403 -0.5962
40472SOL    HW139408  10.995  11.645   0.094  1.0187 -0.7964  0.9635
40472SOL    HW239409  10.909  11.528   0.135  0.2118 -1.1590 -1.5841
40473SOL     OW39410   1.918   9.103  12.823 -0.0334  0.0252 -0.6836
40473SOL    HW139411   1.867   9.043  12.878 -1.0445  0.6804 -0.8738
40473SOL    HW239412   1.858   9.176  12.806  1.0911  0.9710 -0.6630
40474SOL     OW39413   3.511  12.147  12.996  0.3081  0.6277 -0.0332
40474SOL    HW139414   3.528  12.181  12.908 -0.8820 -0.2922 -0.6469
40474SOL    HW239415   3.470  12.062  12.981 -2.5687  1.6394  1.3326
40475SOL     OW39416   0.557  13.094  11.487  0.4808 -0.7204 -0.0318
40475SOL    HW139417   0.525  13.021  11.433  1.4682 -1.3299  0.1874
40475SOL    HW239418   0.482  13.117  11.542  0.2924 -1.9174  0.2510
40476SOL     OW39419   2.782   4.360   3.443 -0.2915  0.4671  0.3141
40476SOL    HW139420   2.813   4.436   3.492  0.7346  0.9414 -1.0138
40476SOL    HW239421   2.846   4.291   3.462 -0.2738  0.4478  0.1849
40477SOL     OW39422   6.948   6.053   3.085  0.1510  0.0747  0.5559
40477SOL    HW139423   6.989   5.986   3.140 -0.8539  0.2387  1.5574
40477SOL    HW239424   7.008   6.128   3.090  1.6703 -0.9376 -1.1823
40478SOL     OW39425   3.824   7.568   4.870  0.4590 -0.2357  0.3559
40478SOL    HW139426   3.882   7.590   4.943 -0.1868 -0.7938  1.0585
40478SOL    HW239427   3.735   7.576   4.907  0.0750  0.5631 -0.6833
40479SOL     OW39428  12.865   9.959  11.463 -0.2378 -0.2799  1.0782
40479SOL    HW139429  12.807   9.929  11.393  1.5885  1.5883 -1.4430
40479SOL    HW239430  12.815  10.027  11.509 -0.6469  0.1914 -0.0330
40480SOL     OW39431   4.096   8.228   0.523 -0.4918 -0.2845  0.5740
40480SOL    HW139432   4.050   8.164   0.468 -3.5122  0.3069  2.1773
40480SOL    HW239433   4.049   8.310   0.509  0.5788  0.5719  1.7788
40481SOL     OW39434   5.685   5.332   4.045  0.3206  0.1013  0.1622
40481SOL    HW139435   5.777   5.321   4.066 -0.3110 -1.6174  2.5080
40481SOL    HW239436   5.680   5.415   3.997  3.0877  0.0456 -0.3496
40482SOL     OW39437  11.153   8.806   3.907 -0.3954  0.0584 -0.2187
40482SOL    HW139438  11.122   8.756   3.983  0.8707 -1.6693 -0.7754
40482SOL    HW239439  11.235   8.846   3.937 -0.2781 -0.0151 -0.4392
40483SOL     OW39440   9.090   0.642   4.065  0.2575  0.1058 -0.1461
40483SOL    HW139441   9.012   0.696   4.075  0.6824  0.6550  0.2474
40483SOL    HW239442   9.058   0.552   4.068 -0.3335  0.3278  0.1934
40484SOL     OW39443   2.988   7.103   6.773  0.3369 -0.4933  0.2183
40484SOL    HW139444   2.969   7.149   6.691  0.7654  1.7839  1.3111
40484SOL    HW239445   2.906   7.056   6.793 -0.8422  1.3540 -0.0256
40485SOL     OW39446   8.554   3.802  10.935  0.4432 -0.3110 -0.3674
40485SOL    HW139447   8.554   3.838  10.847  3.1258 -0.2666 -0.4383
40485SOL    HW239448   8.615   3.728  10.931  2.2318  0.9092  1.8347
40486SOL     OW39449   3.701  10.072   8.257  0.2144  0.1496  0.0855
40486SOL    HW139450   3.739   9.985   8.265 -0.5783 -0.2625 -0.4289
40486SOL    HW239451   3.630  10.074   8.320 -0.6190 -0.0729 -0.8124
40487SOL     OW39452  11.280   5.873   1.215  0.3800  0.3441 -0.3920
40487SOL    HW139453  11.201   5.837   1.254 -1.1569  1.4514 -2.2910
40487SOL    HW239454  11.256   5.891   1.124  2.2833  2.2937 -0.5923
40488SOL     OW39455   2.457   7.004   0.697 -0.1175 -0.5798  0.2800
40488SOL    HW139456   2.415   7.000   0.611 -1.8378 -1.0374  1.0837
40488SOL    HW239457   2.453   7.096   0.722 -0.0192 -0.5151  0.0546
40489SOL     OW39458   2.112  10.867   2.431  0.1503  0.1000  0.6122
40489SOL    HW139459   2.142  10.950   2.395 -0.3301 -0.2499 -0.6214
40489SOL    HW239460   2.068  10.823   2.359  1.3298 -1.7165  0.9293
40490SOL     OW39461  10.956   4.660  14.105  1.0247  0.0553  0.4814
40490SOL    HW139462  10.955   4.755  14.115 -1.7361  0.2338 -0.5754
40490SOL    HW239463  10.866   4.633  14.123  2.1398 -2.6814  2.8291
40491SOL     OW39464   4.778   7.584   5.669  0.1281  0.0839  0.0509
40491SOL    HW139465   4.764   7.611   5.578 -0.2100  1.6050  0.5331
40491SOL    HW239466   4.836   7.508   5.662  0.9176  0.7716 -1.3815
40492SOL     OW39467  13.565   4.810   4.400 -0.4323 -0.1201 -0.0104
40492SOL    HW139468  13.598   4.857   4.323  0.5235 -1.2490 -0.3169
40492SOL    HW239469  13.573   4.718   4.377 -1.8978 -0.4572  0.7354
40493SOL     OW39470   3.954  11.243  13.841 -0.3254 -0.1493 -0.5302
40493SOL    HW139471   3.997  11.218  13.759 -0.1487 -1.2794 -0.1256
40493SOL    HW239472   4.011  11.206  13.909  0.2446  1.8743  0.1749
40494SOL     OW39473   3.595  12.201   2.443  0.8144 -0.2567  0.4002
40494SOL    HW139474   3.507  12.230   2.420  0.5346  0.4385  2.1668
40494SOL    HW239475   3.606  12.229   2.534  2.1349 -2.0465  0.8422
40495SOL     OW39476   5.372   1.049   1.951 -0.0203  0.3561 -0.0254
40495SOL    HW139477   5.301   1.021   2.009 -1.3682  2.5013 -0.5436
40495SOL    HW239478   5.403   0.968   1.910 -2.3102 -0.6328  0.0500
40496SOL     OW39479  10.727   5.393   7.553 -0.5165  0.0396 -0.1847
40496SOL    HW139480  10.808   5.342   7.547 -0.2781  0.4182 -0.1954
40496SOL    HW239481  10.753   5.477   7.590 -1.0281 -0.1034  0.5251
40497SOL     OW39482   4.659   2.258  11.063  0.1200  0.5185 -0.1981
40497SOL    HW139483   4.710   2.284  11.140 -1.6787 -2.0822  2.0812
40497SOL    HW239484   4.588   2.322  11.059 -0.1745  0.2797  0.7979
40498SOL     OW39485   3.754   3.679   0.328  0.6454  0.1208  0.0510
40498SOL    HW139486   3.813   3.749   0.355  1.6693 -0.6528 -0.1082
40498SOL    HW239487   3.797   3.639   0.252 -0.2127 -0.3058 -0.2246
40499SOL     OW39488  12.224   9.241   4.655  0.3852  0.2509 -0.4306
40499SOL    HW139489  12.241   9.158   4.699 -1.3759  0.0015 -0.1389
40499SOL    HW239490  12.268   9.307   4.709  1.7492 -0.4608 -0.6327
40500SOL     OW39491   0.620   1.602   7.044  0.4866  0.5352 -0.5604
40500SOL    HW139492   0.561   1.546   7.095 -0.4726  1.6939 -0.3569
40500SOL    HW239493   0.571   1.683   7.031  1.0174  0.5659 -2.6767
40501SOL     OW39494   1.464   6.002  12.313  0.1635  0.1866 -0.3603
40501SOL    HW139495   1.451   5.995  12.408 -1.8684  0.2802 -0.5820
40501SOL    HW239496   1.472   6.097  12.298 -0.1984  0.2220 -0.3454
40502SOL     OW39497   0.387  10.313  11.469 -0.9182 -0.1240 -0.0143
40502SOL    HW139498   0.368  10.395  11.514  1.5996  0.0114  0.9580
40502SOL    HW239499   0.368  10.331  11.377  0.9979  2.1315 -0.0688
40503SOL     OW39500  13.179  10.060  11.265 -0.3023  1.1330 -0.2792
40503SOL    HW139501  13.181   9.997  11.337  0.5138  2.6164  1.0846
40503SOL    HW239502  13.271  10.076  11.244 -0.5041  1.4960 -0.9261
40504SOL     OW39503   9.227  10.178  10.580  0.8204 -0.4634  0.1799
40504SOL    HW139504   9.184  10.263  10.592  0.4258 -0.7856  1.1553
40504SOL    HW239505   9.155  10.115  10.580  1.0962 -0.7933 -0.7290
40505SOL     OW39506  11.653  13.623   7.891  0.3077 -0.7082 -0.0570
40505SOL    HW139507  11.736  13.592   7.853  0.3810 -0.2580 -0.2791
40505SOL    HW239508  11.620  13.686   7.826 -0.4699 -1.2690 -0.2157
40506SOL     OW39509   9.628  12.712  10.123 -0.1968 -0.4288 -0.5930
40506SOL    HW139510   9.587  12.786  10.168 -1.2551 -1.0580 -0.4710
40506SOL    HW239511   9.632  12.738  10.031 -1.1315 -0.4478 -0.6498
40507SOL     OW39512   4.735   9.051   0.906 -0.1664  0.4300 -0.4355
40507SOL    HW139513   4.730   8.988   0.833  1.9587 -0.8765  0.4699
40507SOL    HW239514   4.644   9.061   0.934 -0.6678 -1.6526 -1.1137
40508SOL     OW39515   7.647  13.262   4.737 -0.3187 -0.3796 -0.0321
40508SOL    HW139516   7.629  13.346   4.779 -0.2623 -1.2684  1.8522
40508SOL    HW239517   7.712  13.220   4.794  0.7848 -1.0950 -1.7389
40509SOL     OW39518   9.961   5.715  13.480  0.2446  0.0006 -0.5570
40509SOL    HW139519  10.043   5.760  13.500  0.6122 -1.3970  1.2281
40509SOL    HW239520   9.927   5.762  13.403  2.2332  1.1828 -0.7832
40510SOL     OW39521   3.879  10.791  14.099 -0.4559  0.0065 -0.2940
40510SOL    HW139522   3.836  10.868  14.063 -0.1811  0.4216  0.2529
40510SOL    HW239523   3.956  10.778  14.045  0.4757  1.1920  0.6905
40511SOL     OW39524   8.384  12.037   7.270 -0.0807  0.6746  0.3136
40511SOL    HW139525   8.394  12.132   7.262 -0.5606  0.8003  1.0623
40511SOL    HW239526   8.360  12.024   7.362  0.6930 -0.2353  0.4004
40512SOL     OW39527   6.510  12.130   3.517  0.2836 -0.3510 -0.4516
40512SOL    HW139528   6.542  12.124   3.427 -0.0762 -1.0187 -0.5442
40512SOL    HW239529   6.418  12.105   3.511 -0.0668  0.7938 -0.0722
40513SOL     OW39530   4.382   5.003   7.326  0.0150 -0.5493 -0.6112
40513SOL    HW139531   4.376   4.950   7.406  0.6590 -0.6693 -0.6364
40513SOL    HW239532   4.427   5.083   7.353 -0.9284 -0.0104 -0.5820
40514SOL     OW39533   1.512  10.624   1.088 -0.2512  0.5357 -0.0453
40514SOL    HW139534   1.541  10.709   1.053  0.1427  0.5610  0.3338
40514SOL    HW239535   1.446  10.646   1.153 -1.6565  0.4459 -1.3846
40515SOL     OW39536   0.811   0.649  11.983  0.4130 -0.1467  0.4591
40515SOL    HW139537   0.809   0.745  11.987 -2.2386 -0.0009 -1.5187
40515SOL    HW239538   0.827   0.630  11.890 -2.6459 -1.4611  0.1010
40516SOL     OW39539  12.982  14.121   2.204  0.7371  0.2444  0.0535
40516SOL    HW139540  12.900  14.116   2.252 -0.1269  1.2169 -1.2534
40516SOL    HW239541  12.964  14.074   2.122  1.6158  0.1310 -0.0867
40517SOL     OW39542  11.617  11.847   6.684  0.3473 -0.2510  0.7839
40517SOL    HW139543  11.692  11.804   6.643 -0.7748 -1.4607 -0.0634
40517SOL    HW239544  11.598  11.922   6.627 -0.4276 -1.2004 -0.2185
40518SOL     OW39545  11.601   0.902   3.561  0.0832  0.0719 -0.2764
40518SOL    HW139546  11.523   0.875   3.512  1.5024 -3.5339 -0.9208
40518SOL    HW239547  11.571   0.907   3.652 -1.3072  0.7232 -0.7504
40519SOL     OW39548   9.533   9.747   9.030  0.3435  0.4208 -0.3149
40519SOL    HW139549   9.479   9.820   9.059  0.5786  1.6099 -2.6832
40519SOL    HW239550   9.480   9.703   8.963  0.4553 -1.2695  0.6346
40520SOL     OW39551   2.403  10.380   3.180 -0.2509 -0.0458  0.7652
40520SOL    HW139552   2.381  10.465   3.143  0.9068  0.1937  0.5910
40520SOL    HW239553   2.498  10.374   3.173 -0.3474 -1.5598  0.3326
40521SOL     OW39554   9.508   9.437   4.945 -0.4105 -0.6255  0.6586
40521SOL    HW139555   9.463   9.466   5.024 -1.1622  0.1729 -0.0344
40521SOL    HW239556   9.600   9.434   4.969 -0.4730  0.9710  1.1801
40522SOL     OW39557  13.314   2.809   2.057 -0.4674  0.0866  0.3979
40522SOL    HW139558  13.362   2.804   2.139 -0.9610 -0.6824  0.6559
40522SOL    HW239559  13.374   2.853   1.996  0.0983  0.1937  1.0240
40523SOL     OW39560  10.902   9.932   9.604  0.1573  0.5961 -0.8815
40523SOL    HW139561  10.844   9.916   9.679  0.8921  0.7943 -0.2615
40523SOL    HW239562  10.973   9.986   9.639  1.7454 -1.2129 -1.1825
40524SOL     OW39563   3.156   5.783   9.926  0.0009  0.1154  0.5093
40524SOL    HW139564   3.152   5.800   9.832 -0.3613  0.5100  0.5930
40524SOL    HW239565   3.074   5.736   9.945  1.3700 -2.6466  0.1197
40525SOL     OW39566   5.526   4.905   3.540 -0.1418 -0.0265 -0.0800
40525SOL    HW139567   5.578   4.844   3.488 -2.1091  0.4705 -2.8804
40525SOL    HW239568   5.551   4.992   3.506 -0.2025  0.4812  1.1135
40526SOL     OW39569   0.161   7.842   3.573  0.4501 -0.2743 -0.1198
40526SOL    HW139570   0.123   7.755   3.571 -0.2877  0.0311  0.2982
40526SOL    HW239571   0.132   7.884   3.492 -0.0177 -0.0833  0.1422
40527SOL     OW39572   5.973   8.208   0.800 -0.2893  0.0835 -0.3687
40527SOL    HW139573   6.024   8.132   0.828 -2.0682 -1.1172 -0.2433
40527SOL    HW239574   6.039   8.273   0.776  1.3930 -2.2746 -2.7390
40528SOL     OW39575   0.410  11.667  14.147 -0.0964  0.4339  0.3899
40528SOL    HW139576   0.329  11.631  14.184  0.9482 -1.0771  1.3348
40528SOL    HW239577   0.382  11.747  14.103 -1.7985  1.0972  2.4897
40529SOL     OW39578   7.562  12.217   2.781 -0.0686  0.2397 -0.8428
40529SOL    HW139579   7.642  12.259   2.811  0.0473  0.0740 -0.9185
40529SOL    HW239580   7.539  12.262   2.700 -0.0316  0.2614 -0.8409
40530SOL     OW39581  13.943   2.253   4.529 -0.4793  0.0210 -0.1690
40530SOL    HW139582  13.976   2.256   4.619 -2.3989  0.1774  0.5755
40530SOL    HW239583  14.019   2.278   4.475  0.0710  2.5155  1.5783
40531SOL     OW39584   7.149   8.753   3.734 -0.1484  0.3912 -0.7146
40531SOL    HW139585   7.191   8.823   3.684  2.8893 -1.3511 -0.8893
40531SOL    HW239586   7.132   8.684   3.670  0.8201 -0.6092  0.0615
40532SOL     OW39587   5.720  10.215   7.426 -0.1975 -0.2234  0.4699
40532SOL    HW139588   5.769  10.221   7.344  0.7541  0.5147  1.0731
40532SOL    HW239589   5.650  10.280   7.418 -0.1762 -0.2333  0.2072
40533SOL     OW39590   2.189  10.403  11.470  0.0523 -0.7342  0.5772
40533SOL    HW139591   2.171  10.309  11.473 -0.8352 -0.6489 -0.9796
40533SOL    HW239592   2.104  10.443  11.452  0.6916  0.2185 -0.4949
40534SOL     OW39593   8.443   9.954   7.662 -0.3889  0.5591 -0.0068
40534SOL    HW139594   8.372   9.890   7.670 -0.3554  0.3090 -1.3902
40534SOL    HW239595   8.421  10.022   7.725 -1.2745 -0.0493  0.3664
40535SOL     OW39596   5.251   7.710   7.346 -0.7846  0.3401 -0.4863
40535SOL    HW139597   5.164   7.747   7.334  0.0803  2.8059  0.1290
40535SOL    HW239598   5.247   7.665   7.431 -1.9860 -1.4541 -1.4406
40536SOL     OW39599   2.700  13.652  10.491  0.1969 -0.0196 -0.0693
40536SOL    HW139600   2.688  13.740  10.526 -0.3486  0.5809 -1.6819
40536SOL    HW239601   2.661  13.595  10.556  0.0292  0.9731  0.7258
40537SOL     OW39602  10.618   1.114   2.452 -0.0590 -0.1581  0.1554
40537SOL    HW139603  10.594   1.032   2.407  1.3427 -0.8913  0.6672
40537SOL    HW239604  10.668   1.163   2.387 -1.8898  0.8685 -0.5450
40538SOL     OW39605  12.757   3.745   9.382  0.0126 -0.5570 -0.1128
40538SOL    HW139606  12.776   3.652   9.388  1.7161 -0.1593  1.3957
40538SOL    HW239607  12.683   3.759   9.440  2.0698 -0.4511  2.6740
40539SOL     OW39608   6.420   2.053   1.504  0.0369  0.2443  0.2245
40539SOL    HW139609   6.506   2.066   1.465  0.5413  1.3397  1.6040
40539SOL    HW239610   6.387   1.972   1.465  3.1047 -2.0690  2.0420
40540SOL     OW39611   5.169   1.125   7.308  0.3575 -0.5790 -0.1863
40540SOL    HW139612   5.202   1.137   7.397  0.5391 -0.0828 -0.3143
40540SOL    HW239613   5.232   1.172   7.253  0.8421 -1.7819 -0.6832
40541SOL     OW39614  13.181   8.767   5.871 -0.9265 -0.1849 -0.1530
40541SOL    HW139615  13.270   8.734   5.858 -1.4428 -1.1450 -1.4585
40541SOL    HW239616  13.169   8.769   5.966  0.8460  0.9865  0.0871
40542SOL     OW39617  13.374   0.787   1.928 -0.3516  0.6052  0.0205
40542SOL    HW139618  13.451   0.813   1.977 -1.2338 -0.5628  2.1382
40542SOL    HW239619  13.301   0.832   1.971 -1.1759 -0.5642 -0.1115
40543SOL     OW39620   2.516  10.230   1.826  0.1111  0.0549  0.0197
40543SOL    HW139621   2.584  10.168   1.852 -1.1320 -1.5992 -0.4827
40543SOL    HW239622   2.483  10.196   1.743 -1.9403  0.2321  0.6846
40544SOL     OW39623   0.267   5.477   5.614  0.2053 -0.5497  0.1983
40544SOL    HW139624   0.218   5.399   5.591  0.2758 -0.5810  0.1529
40544SOL    HW239625   0.304   5.508   5.531 -0.1861 -0.2172  0.1444
40545SOL     OW39626   4.314   2.556  12.851  0.4164  0.0814 -0.3527
40545SOL    HW139627   4.265   2.575  12.771  0.5341  0.6827 -0.2860
40545SOL    HW239628   4.403   2.584  12.831  0.1275  1.7407  0.5214
40546SOL     OW39629   4.187  10.697   6.731 -0.7762 -0.1936 -0.8516
40546SOL    HW139630   4.209  10.630   6.795  1.0559 -0.0876 -1.3193
40546SOL    HW239631   4.231  10.775   6.761 -0.6052  0.0799 -1.7732
40547SOL     OW39632   6.800   3.623   9.137 -0.1942 -0.1861 -0.2461
40547SOL    HW139633   6.707   3.608   9.121 -0.5903  1.7164  0.1047
40547SOL    HW239634   6.807   3.629   9.232  0.6694 -2.3248 -0.1078
40548SOL     OW39635   8.797   1.236   7.865 -0.5225  0.0417 -0.6167
40548SOL    HW139636   8.818   1.289   7.788  0.4910  0.7461  0.1206
40548SOL    HW239637   8.861   1.165   7.863 -0.8817 -0.2825 -0.7423
40549SOL     OW39638   5.213  12.517  13.985 -0.6081  0.1697 -0.7623
40549SOL    HW139639   5.222  12.423  13.997 -0.9388  0.2149 -0.1293
40549SOL    HW239640   5.183  12.550  14.070 -2.4617  0.5802 -1.5212
40550SOL     OW39641   0.962   4.154   0.228  0.3702  0.3687 -0.2020
40550SOL    HW139642   0.942   4.185   0.140  0.7671  0.4395 -0.2690
40550SOL    HW239643   1.056   4.136   0.227  0.8318  2.4017  0.8030
40551SOL     OW39644   2.265   2.993   3.508  0.0176  0.0011  0.0218
40551SOL    HW139645   2.292   2.907   3.474  0.0152  0.1045 -0.2394
40551SOL    HW239646   2.205   3.027   3.443 -0.1657  0.1020  0.2414
40552SOL     OW39647   0.893   5.238   6.345 -0.7164 -0.0611 -0.2854
40552SOL    HW139648   0.965   5.178   6.322 -0.4178  0.0044  0.4400
40552SOL    HW239649   0.902   5.311   6.283 -0.1315 -0.0350 -0.1796
40553SOL     OW39650  12.869   9.698   0.149  0.2207  0.1462  0.4475
40553SOL    HW139651  12.931   9.661   0.211 -0.0440 -0.1960  0.5057
40553SOL    HW239652  12.845   9.783   0.187  0.6245  0.2650  0.4421
40554SOL     OW39653   6.199  14.138   8.197 -0.1607 -0.0814  0.0224
40554SOL    HW139654   6.156  14.059   8.163 -0.6810  0.1702  0.0929
40554SOL    HW239655   6.205  14.124   8.292 -0.0585 -0.1281  0.0101
40555SOL     OW39656   4.605   5.527   3.263  0.0136  0.3349  0.0995
40555SOL    HW139657   4.538   5.513   3.330  1.6438 -1.1741  1.5131
40555SOL    HW239658   4.619   5.622   3.263 -1.5327  0.5888  0.3317
40556SOL     OW39659  13.560   4.947   5.365 -0.5938  0.2441  0.1824
40556SOL    HW139660  13.470   4.920   5.350 -0.5192 -1.1235  1.8329
40556SOL    HW239661  13.565   5.035   5.329 -2.0117 -0.3829 -1.7346
40557SOL     OW39662   6.463  11.627   6.361 -0.3439 -0.7234 -0.0037
40557SOL    HW139663   6.403  11.696   6.333  1.5058  0.1007 -2.3057
40557SOL    HW239664   6.539  11.674   6.394  0.3579 -1.6724 -0.2225
40558SOL     OW39665   9.130   6.367   4.558  0.7869  0.0487 -0.0570
40558SOL    HW139666   9.127   6.279   4.594 -2.0878  0.7376  1.7097
40558SOL    HW239667   9.161   6.422   4.630 -1.7609  0.9940  0.4172
40559SOL     OW39668   0.349   1.028   1.809  0.5670  0.1523 -0.0669
40559SOL    HW139669   0.289   1.076   1.866  0.3368 -0.1345 -0.0657
40559SOL    HW239670   0.364   0.945   1.854  0.4434 -0.0470 -0.3873
40560SOL     OW39671   4.495  10.002   4.459  0.1171 -0.0125 -0.1171
40560SOL    HW139672   4.583  10.040   4.464  0.4654 -0.7992 -0.1350
40560SOL    HW239673   4.485   9.953   4.541  0.0490 -0.6617 -0.5086
40561SOL     OW39674  14.109   6.602   3.849 -0.2777  0.2979 -0.5091
40561SOL    HW139675  14.084   6.603   3.941  1.7624  1.0552  0.0852
40561SOL    HW239676  14.071   6.520   3.815  0.0290 -0.6610  1.3260
40562SOL     OW39677   9.545   2.178   7.573  0.1534  0.4614 -0.5451
40562SOL    HW139678   9.572   2.270   7.562  1.9810 -0.1304 -1.3244
40562SOL    HW239679   9.541   2.143   7.484  3.0290 -1.1232 -0.1720
40563SOL     OW39680  10.547   9.215  12.676 -0.1728 -0.1877 -0.1787
40563SOL    HW139681  10.545   9.184  12.767  2.9259 -1.9883 -0.5500
40563SOL    HW239682  10.517   9.140  12.625 -1.1915  0.5628 -0.7064
40564SOL     OW39683   4.621  10.818  13.486 -0.6235  0.0247 -0.2394
40564SOL    HW139684   4.638  10.853  13.574 -0.1706 -0.9012  0.0551
40564SOL    HW239685   4.557  10.878  13.448  0.0919  1.1385  0.2686
40565SOL     OW39686  13.192   4.120   9.023  0.1997  0.3220 -0.2414
40565SOL    HW139687  13.270   4.076   9.058  0.5145  1.2915  0.3049
40565SOL    HW239688  13.144   4.050   8.978  0.9055 -0.4892  0.2220
40566SOL     OW39689  10.597   1.446   2.543 -0.2880  0.1310  0.3958
40566SOL    HW139690  10.690   1.426   2.553  0.0926  0.9388 -1.3102
40566SOL    HW239691  10.572   1.482   2.628  0.6340 -1.2090  1.2874
40567SOL     OW39692   4.506   3.655   4.513  0.0897  0.6240 -0.5196
40567SOL    HW139693   4.481   3.667   4.422  0.2950  2.3151 -0.3771
40567SOL    HW239694   4.426   3.670   4.563  0.0638  0.0770 -0.3832
40568SOL     OW39695   6.087  10.349   5.250 -0.6233  0.0739 -0.1206
40568SOL    HW139696   6.001  10.386   5.268 -0.7732  0.1946 -1.0199
40568SOL    HW239697   6.147  10.424   5.250 -0.9292  0.3637 -1.9579
40569SOL     OW39698   5.045  10.350  12.972  0.3663  0.3841  0.2241
40569SOL    HW139699   5.032  10.268  13.021 -0.4868  0.1144 -0.4329
40569SOL    HW239700   5.134  10.344  12.938  0.3807 -0.1809  0.3512
40570SOL     OW39701   6.974  12.911  12.563 -0.1589  0.4997  0.4817
40570SOL    HW139702   6.888  12.939  12.532  0.8281  0.8323 -2.2047
40570SOL    HW239703   7.002  12.846  12.499  2.4225  1.9037  0.0497
40571SOL     OW39704   2.899   8.773   5.735 -0.0042 -0.2308 -0.8052
40571SOL    HW139705   2.829   8.823   5.776 -0.3253  0.2997 -1.9575
40571SOL    HW239706   2.855   8.697   5.697  0.2050 -0.4408 -0.6291
40572SOL     OW39707   4.540   2.337   3.047 -0.1750 -0.1746  0.4733
40572SOL    HW139708   4.559   2.431   3.040  2.1186 -0.6869 -1.8009
40572SOL    HW239709   4.452   2.333   3.083 -0.0513  2.8275  1.3502
40573SOL     OW39710   4.327   7.448   8.237 -0.3093  0.1993  0.2398
40573SOL    HW139711   4.308   7.534   8.273  1.6179  0.3588  0.9813
40573SOL    HW239712   4.368   7.400   8.310  2.1524 -0.0329 -1.1926
40574SOL     OW39713  12.667   8.521   2.795 -0.2115  0.5135 -0.3878
40574SOL    HW139714  12.719   8.484   2.866  1.1630  2.4703 -0.3009
40574SOL    HW239715  12.576   8.510   2.823  0.2288 -0.5578  0.7073
40575SOL     OW39716  11.905   1.601   6.406  0.4981 -0.6575 -0.0374
40575SOL    HW139717  11.929   1.512   6.431 -1.8497 -1.3754 -0.1150
40575SOL    HW239718  11.886   1.597   6.313 -1.0380 -0.4708  0.2311
40576SOL     OW39719  12.522   4.367  11.238  0.3967  0.0108 -0.1568
40576SOL    HW139720  12.607   4.387  11.200  0.3325 -0.4011 -0.5175
40576SOL    HW239721  12.462   4.362  11.164  0.1287 -0.0661  0.0614
40577SOL     OW39722   7.585   0.122  10.762  0.1494 -0.2658  0.0990
40577SOL    HW139723   7.533   0.101  10.684  0.5894 -0.5845 -0.1102
40577SOL    HW239724   7.524   0.169  10.819 -0.2854 -0.3716 -0.2731
40578SOL     OW39725   3.036   0.886   8.546  0.2018  0.4629 -0.4632
40578SOL    HW139726   2.972   0.918   8.611  0.0657 -0.7894  0.0603
40578SOL    HW239727   3.114   0.865   8.598  0.1435 -0.4102 -0.7099
40579SOL     OW39728  12.439   3.653   2.169 -0.5529  0.3118 -0.0297
40579SOL    HW139729  12.397   3.625   2.251 -2.0537  1.5583 -0.3207
40579SOL    HW239730  12.456   3.571   2.123 -1.2204 -0.3375  0.8249
40580SOL     OW39731   6.441   3.738  13.738 -0.0761 -0.1574 -0.1750
40580SOL    HW139732   6.479   3.781  13.815  0.5654  1.2812 -1.2437
40580SOL    HW239733   6.393   3.664  13.773  1.5352 -0.4970  1.4780
40581SOL     OW39734   2.424   5.082   8.429  0.0816  0.3151  0.1121
40581SOL    HW139735   2.336   5.088   8.391 -0.1243 -2.4759 -0.0098
40581SOL    HW239736   2.428   5.157   8.489 -1.5442  1.7571 -1.4306
40582SOL     OW39737   5.631  11.337  10.212  0.1181  0.3834 -0.6379
40582SOL    HW139738   5.619  11.242  10.201 -2.0474  0.2358  1.9746
40582SOL    HW239739   5.721  11.347  10.242  0.4291 -0.7961 -1.1126
40583SOL     OW39740  11.619   2.672   3.947  0.1585 -0.0839 -0.2455
40583SOL    HW139741  11.580   2.712   3.869 -0.8371  4.4771  2.2448
40583SOL    HW239742  11.545   2.638   3.997  0.1312  1.6007  0.9358
40584SOL     OW39743   4.294   0.648   4.783  0.4751  0.4644  0.1392
40584SOL    HW139744   4.282   0.563   4.826  0.1655  0.8498  0.8346
40584SOL    HW239745   4.376   0.640   4.735  1.3680  0.3482  1.6299
40585SOL     OW39746  10.768   4.559   1.874  0.1566  0.7059 -0.5821
40585SOL    HW139747  10.725   4.475   1.886  1.2139  0.3118  0.6406
40585SOL    HW239748  10.703   4.613   1.829  0.0880 -1.2889 -3.1324
40586SOL     OW39749   8.073  10.213   0.369 -0.1109 -0.6341 -0.3176
40586SOL    HW139750   8.145  10.267   0.400 -0.1637  0.2424 -1.6394
40586SOL    HW239751   8.002  10.275   0.352 -1.0203 -1.4153  0.4600
40587SOL     OW39752   7.893   5.510   3.808 -0.1242 -0.4291 -0.1456
40587SOL    HW139753   7.945   5.572   3.758 -0.6102 -0.8389 -1.1782
40587SOL    HW239754   7.891   5.547   3.897  0.5286  0.4363 -0.4767
40588SOL     OW39755   1.043   8.617   5.622  0.1145 -0.2206 -0.1945
40588SOL    HW139756   1.028   8.523   5.617 -0.1812 -0.1667 -0.3804
40588SOL    HW239757   0.964   8.651   5.666  1.0395 -0.2741  1.6106
40589SOL     OW39758   5.829  11.130   2.696 -0.1229 -0.2491 -0.3131
40589SOL    HW139759   5.844  11.093   2.783 -1.9333 -1.7571 -0.5775
40589SOL    HW239760   5.895  11.088   2.640 -1.1485 -2.0096 -0.2930
40590SOL     OW39761   4.123   4.106   9.056  0.3634  0.4877 -0.6477
40590SOL    HW139762   4.090   4.144   9.137 -2.3066 -1.9068 -0.4490
40590SOL    HW239763   4.133   4.180   8.996  0.9331  2.1160  1.3646
40591SOL     OW39764  11.434   1.374   4.387  0.0466  1.2056 -0.5505
40591SOL    HW139765  11.506   1.436   4.398  1.3654 -0.0970 -1.4601
40591SOL    HW239766  11.453   1.304   4.448  0.2946  0.2136 -1.7311
40592SOL     OW39767  11.127   5.911   7.781  0.1472 -0.1374  1.2843
40592SOL    HW139768  11.130   5.971   7.855  0.2797  0.7964  0.5486
40592SOL    HW239769  11.162   5.829   7.815 -0.1993  0.1489  2.3616
40593SOL     OW39770   2.951   1.912   7.947  0.1416 -0.2334 -0.6562
40593SOL    HW139771   2.918   1.832   7.904 -0.0130 -1.3547  1.4185
40593SOL    HW239772   3.038   1.887   7.980  0.0678  0.4275  0.0566
40594SOL     OW39773  12.068   4.954   4.465  0.3525 -0.4468  0.4126
40594SOL    HW139774  12.002   5.019   4.441  1.3332  0.8402  1.1103
40594SOL    HW239775  12.151   5.001   4.462  1.0382 -1.5413  1.4356
40595SOL     OW39776   2.189   9.685   5.814  0.8206  0.0088 -0.1790
40595SOL    HW139777   2.133   9.624   5.862  0.0676  0.3712 -0.5871
40595SOL    HW239778   2.229   9.632   5.745  0.2515 -0.0615 -0.4658
40596SOL     OW39779   8.587   9.124   4.251  0.1603  0.0347  1.0097
40596SOL    HW139780   8.592   9.034   4.284  1.3870 -0.7338 -1.0487
40596SOL    HW239781   8.494   9.145   4.249 -0.4401 -2.3855 -1.3105
40597SOL     OW39782  11.396  12.715  13.199  0.3748  0.5644  0.2452
40597SOL    HW139783  11.396  12.620  13.188 -0.7351  0.6435 -0.6081
40597SOL    HW239784  11.317  12.744  13.154  0.4865  1.8593  0.8444
40598SOL     OW39785   6.205  10.117   5.143 -0.0958 -0.0404 -0.1453
40598SOL    HW139786   6.170  10.187   5.197  0.4718  0.6343 -0.6313
40598SOL    HW239787   6.146  10.115   5.067  1.5478  1.9540 -1.5882
40599SOL     OW39788   6.346   3.198   6.901 -0.6860  0.1523 -0.1306
40599SOL    HW139789   6.256   3.225   6.921  0.0933  1.4504  1.9555
40599SOL    HW239790   6.396   3.223   6.979  1.2255 -1.9624 -0.5967
40600SOL     OW39791  10.188   7.989   5.996 -0.3773 -0.2660  0.0437
40600SOL    HW139792  10.103   7.973   5.955  0.0857 -2.6329 -0.1255
40600SOL    HW239793  10.252   7.972   5.927  0.3316 -2.3742  1.1322
40601SOL     OW39794  11.213   2.083   9.247 -0.3312  0.2481  0.0750
40601SOL    HW139795  11.303   2.078   9.279  0.5755 -0.1782 -2.3536
40601SOL    HW239796  11.220   2.125   9.162 -2.2516 -1.1642 -0.8568
40602SOL     OW39797   0.984   2.595   5.886  0.0279 -0.8000  0.3687
40602SOL    HW139798   0.991   2.674   5.940  0.3539 -0.1763 -0.5649
40602SOL    HW239799   0.944   2.530   5.944 -0.1448  0.0151  1.1865
40603SOL     OW39800   2.208  13.175   3.347 -0.7670 -0.5479 -0.3673
40603SOL    HW139801   2.233  13.261   3.312  0.1948  0.0306  1.5931
40603SOL    HW239802   2.223  13.114   3.275  2.3120  0.3733 -0.6211
40604SOL     OW39803  13.900  13.088   2.275 -0.0106  0.4495  0.2211
40604SOL    HW139804  13.969  13.058   2.217 -0.0957  0.9580 -0.1507
40604SOL    HW239805  13.845  13.145   2.220  1.4080  3.1612  1.3886
40605SOL     OW39806   4.457  12.275   2.897  0.1168  0.0447 -0.0426
40605SOL    HW139807   4.373  12.286   2.942 -0.1081  0.9295 -0.6566
40605SOL    HW239808   4.455  12.337   2.825  1.2394 -0.0330 -0.1710
40606SOL     OW39809   6.538  13.506   6.132  0.0775 -0.3727 -0.2847
40606SOL    HW139810   6.567  13.597   6.126  1.6532 -0.8623 -0.5258
40606SOL    HW239811   6.509  13.496   6.223 -1.4878  0.7227 -0.6079
40607SOL     OW39812   6.173  10.346   9.223 -0.2736  0.2226  0.4518
40607SOL    HW139813   6.154  10.396   9.143 -1.1310 -0.1012  0.4458
40607SOL    HW239814   6.169  10.411   9.293 -1.5180  0.1627  0.4593
40608SOL     OW39815  10.237   6.294  11.557  0.2348 -0.3534 -0.4344
40608SOL    HW139816  10.144   6.307  11.580 -0.3897 -1.0243 -2.4019
40608SOL    HW239817  10.257   6.364  11.495  1.7724  1.1866  1.6655
40609SOL     OW39818  11.081  11.948  12.286  0.3528  0.2207  0.4216
40609SOL    HW139819  11.051  11.887  12.354 -0.8980 -0.3762 -0.6140
40609SOL    HW239820  11.020  12.021  12.291 -0.5152 -0.3822 -0.8203
40610SOL     OW39821   3.161   1.614   8.217  0.0157  0.5313  0.0117
40610SOL    HW139822   3.078   1.584   8.253  0.1051  0.5803  0.2557
40610SOL    HW239823   3.221   1.616   8.291  0.0515  1.1678 -0.0321
40611SOL     OW39824   1.522  13.679   8.511 -0.1520 -0.2747  0.8394
40611SOL    HW139825   1.555  13.728   8.586  0.7091 -0.3060  0.4931
40611SOL    HW239826   1.442  13.725   8.485  0.5578  0.8791  0.6067
40612SOL     OW39827  10.574   0.594   3.930  0.0904 -0.0597  0.2759
40612SOL    HW139828  10.611   0.520   3.978  1.5940  0.0857 -0.6297
40612SOL    HW239829  10.479   0.585   3.944  0.2561 -1.9215  0.5141
40613SOL     OW39830  13.249  13.366   8.752  0.2696  0.0060  0.3013
40613SOL    HW139831  13.251  13.417   8.671  0.9707  0.4403  0.5871
40613SOL    HW239832  13.282  13.280   8.727  2.0021  0.6049  0.4310
40614SOL     OW39833   3.413   0.830   5.848  0.0349  0.2600  0.1374
40614SOL    HW139834   3.343   0.866   5.903  0.5013  0.1902  0.7828
40614SOL    HW239835   3.489   0.827   5.905  0.1264 -1.3113 -0.0407
40615SOL     OW39836   9.596   7.733   9.284  0.0106  0.0319 -0.3912
40615SOL    HW139837   9.571   7.752   9.374  0.0266 -2.9831  0.3509
40615SOL    HW239838   9.531   7.671   9.253  1.5151 -1.0840 -1.5001
40616SOL     OW39839  12.635  10.196   6.331 -0.0122  0.3426 -0.1222
40616SOL    HW139840  12.640  10.195   6.235  0.3432  1.4774 -0.1261
40616SOL    HW239841  12.543  10.214   6.350 -0.3208 -0.9949 -0.2203
40617SOL     OW39842   4.971  12.666   2.389  0.1891  0.0444  0.2833
40617SOL    HW139843   5.005  12.682   2.300  0.3837  2.0299  0.6659
40617SOL    HW239844   4.920  12.744   2.409 -1.3184 -1.1431  1.2806
40618SOL     OW39845  12.221   5.155  11.439 -0.3343  0.1132  0.1022
40618SOL    HW139846  12.230   5.136  11.346  0.1588  0.0991  0.1497
40618SOL    HW239847  12.261   5.241  11.450 -2.0876  0.9817 -0.0204
40619SOL     OW39848  12.227   6.248   2.711  0.4800  0.5461 -0.2120
40619SOL    HW139849  12.311   6.216   2.742  0.6457 -0.1684 -1.3591
40619SOL    HW239850  12.197   6.182   2.648 -0.8398  0.8892  0.0225
40620SOL     OW39851  11.928   3.454  13.057 -0.3494 -0.0796  0.7606
40620SOL    HW139852  11.868   3.449  12.984  1.8831  0.9790 -1.2843
40620SOL    HW239853  11.875   3.483  13.131 -2.1695  1.7546 -1.1638
40621SOL     OW39854  10.561   7.782   7.108 -0.3338  0.2250 -0.4023
40621SOL    HW139855  10.535   7.793   7.200  0.3246  2.1204 -0.3881
40621SOL    HW239856  10.641   7.834   7.100  0.5747 -1.2889 -1.6677
40622SOL     OW39857   6.696   4.524   6.506  0.5214 -0.2957 -0.5447
40622SOL    HW139858   6.617   4.574   6.526  0.2475 -0.6176 -0.8230
40622SOL    HW239859   6.692   4.510   6.411  0.0700 -1.7333 -0.3313
40623SOL     OW39860   8.673   4.163   1.616 -0.4378  0.4067  0.5480
40623SOL    HW139861   8.667   4.165   1.711 -0.3769  0.1599  0.5586
40623SOL    HW239862   8.765   4.139   1.599 -0.4038  0.6256  0.4277
40624SOL     OW39863   0.963  11.159  11.504  0.0070 -0.2956 -0.1002
40624SOL    HW139864   1.008  11.193  11.427  1.0991 -0.8344  0.2776
40624SOL    HW239865   0.977  11.064  11.501  0.1693 -0.3155  0.8090
40625SOL     OW39866   8.436   3.962   9.007  0.0903 -0.1017  0.1358
40625SOL    HW139867   8.503   4.030   9.008 -1.8893  2.0620 -1.8938
40625SOL    HW239868   8.456   3.908   8.931 -0.3101  0.4122 -0.3427
40626SOL     OW39869   3.255   9.530   8.056 -0.3531 -0.4580  0.1689
40626SOL    HW139870   3.178   9.474   8.064 -0.7539 -0.0335 -0.5599
40626SOL    HW239871   3.312   9.484   7.994  0.0869 -0.8767  0.8727
40627SOL     OW39872   3.720   5.829   3.274 -0.0494 -0.0509 -0.8251
40627SOL    HW139873   3.669   5.877   3.209  1.2499  1.7305 -0.5762
40627SOL    HW239874   3.769   5.896   3.322  0.9978 -1.5323  0.2824
40628SOL     OW39875   8.567   7.760  13.516 -0.1007  0.0040  0.7839
40628SOL    HW139876   8.651   7.803  13.524  0.2118 -0.7012  1.4596
40628SOL    HW239877   8.525   7.774  13.601 -1.1573  1.3208  0.0836
40629SOL     OW39878   0.005   5.166   4.483 -0.0186  0.5266 -0.1744
40629SOL    HW139879   0.023   5.254   4.516 -0.2753  0.4483  0.1844
40629SOL    HW239880   0.088   5.120   4.488 -0.0530  0.5169  0.3685
40630SOL     OW39881   7.182  11.529   8.946  0.0087 -0.2019 -0.1809
40630SOL    HW139882   7.169  11.613   8.990 -0.5530 -0.4016  0.0417
40630SOL    HW239883   7.141  11.465   9.004  2.2252 -0.9204  0.7268
40631SOL     OW39884  11.045  13.597   8.615  0.0991 -0.9657  0.3842
40631SOL    HW139885  11.014  13.537   8.546  0.2763  0.1913 -0.7541
40631SOL    HW239886  11.101  13.659   8.569  3.5645 -2.4454  2.2245
40632SOL     OW39887  13.304  11.093   3.299 -0.1606 -0.0505 -0.6963
40632SOL    HW139888  13.286  11.125   3.210 -0.3365 -0.7997 -0.9376
40632SOL    HW239889  13.223  11.052   3.327  0.0481 -0.2536 -0.3788
40633SOL     OW39890   8.290   4.657   8.535  0.5394 -0.2325  0.1611
40633SOL    HW139891   8.240   4.607   8.471 -0.6683  0.8443  0.2290
40633SOL    HW239892   8.256   4.746   8.529  1.5399  0.2533  1.1564
40634SOL     OW39893  10.977   5.476   2.530  0.2054  0.4241  0.0957
40634SOL    HW139894  10.891   5.444   2.502  0.2156  1.3038 -0.9997
40634SOL    HW239895  10.982   5.565   2.496  1.0149  0.8703  1.3082
40635SOL     OW39896   8.327   3.116  11.455  0.6277 -0.8057  0.2373
40635SOL    HW139897   8.362   3.031  11.479 -0.2558 -0.8397  1.4967
40635SOL    HW239898   8.387   3.179  11.495  0.8588 -0.8345 -0.0583
40636SOL     OW39899   2.708   4.088  11.441  0.3231 -0.4759  0.0481
40636SOL    HW139900   2.656   4.169  11.445  2.3183  0.8677  0.1969
40636SOL    HW239901   2.721   4.064  11.533  1.7969  0.4859  0.1293
40637SOL     OW39902   9.707   1.469   8.406  0.6649  0.3415 -0.1630
40637SOL    HW139903   9.786   1.518   8.427  0.3880  1.2093 -1.0767
40637SOL    HW239904   9.718   1.444   8.314  1.4336 -2.5502  0.6136
40638SOL     OW39905  10.927   7.671  10.937 -0.3102  0.1230 -0.0521
40638SOL    HW139906  10.855   7.733  10.950 -0.9206 -0.2802 -1.3576
40638SOL    HW239907  10.949   7.643  11.026 -2.8844 -0.9508  0.3577
40639SOL     OW39908   1.812   5.574  11.728 -0.2304  0.1277 -0.0739
40639SOL    HW139909   1.755   5.531  11.792 -1.4931  0.0210 -1.2168
40639SOL    HW239910   1.863   5.502  11.690  0.6004  0.2032  0.8383
40640SOL     OW39911   3.032   5.053   6.580 -0.5869 -0.5094 -0.3507
40640SOL    HW139912   3.098   4.984   6.581  2.4069  2.1222  1.8674
40640SOL    HW239913   2.951   5.008   6.605  0.7978 -3.4960 -0.7877
40641SOL     OW39914   8.671  10.839  10.685 -0.2897  0.3039  0.0122
40641SOL    HW139915   8.646  10.879  10.602  0.7042 -1.4097 -1.1765
40641SOL    HW239916   8.589  10.825  10.732 -0.8984  0.9318 -0.8569
40642SOL     OW39917   7.746  10.219   3.596  0.3758  0.4924  0.4686
40642SOL    HW139918   7.768  10.142   3.648  4.1376  0.1072 -1.3766
40642SOL    HW239919   7.703  10.184   3.518  1.9791  0.1603 -0.3133
40643SOL     OW39920   0.733   3.328   1.988 -0.3450 -0.2322  0.1503
40643SOL    HW139921   0.809   3.295   2.036 -0.5358  0.8630  1.2566
40643SOL    HW239922   0.758   3.320   1.896  1.8233  1.5982  0.4829
40644SOL     OW39923   2.084   1.864  10.646 -0.6187 -0.4650 -0.4192
40644SOL    HW139924   2.054   1.844  10.557 -1.5816 -0.3487 -0.1394
40644SOL    HW239925   2.036   1.944  10.670  1.9817  1.3987 -0.9472
40645SOL     OW39926   8.419   9.511   7.987 -0.3047  0.0489 -0.2409
40645SOL    HW139927   8.335   9.531   8.028 -0.2408  1.2311 -0.6311
40645SOL    HW239928   8.441   9.591   7.939  0.2321 -0.8516 -1.5341
40646SOL     OW39929   1.036   1.039   5.384  0.0196  0.3581 -0.1336
40646SOL    HW139930   1.032   1.020   5.290 -0.0297 -1.2804  0.1640
40646SOL    HW239931   1.128   1.028   5.408  0.0448  0.8398  0.0128
40647SOL     OW39932   2.175  13.021  12.865 -0.0097  0.4298  0.1171
40647SOL    HW139933   2.135  13.082  12.803 -0.5236  0.3959  0.4122
40647SOL    HW239934   2.115  13.019  12.940 -0.4471 -1.0559 -0.2269
40648SOL     OW39935  12.815   8.229  12.438 -0.2227  0.3323 -0.2402
40648SOL    HW139936  12.839   8.201  12.526 -0.4581 -2.5381 -1.0077
40648SOL    HW239937  12.898   8.257  12.399  0.0059  0.8660  0.5974
40649SOL     OW39938   4.404  10.293   4.079 -0.2237  0.6161  0.6749
40649SOL    HW139939   4.436  10.335   4.159  0.0073  0.9242  0.4212
40649SOL    HW239940   4.361  10.362   4.030  1.4361  0.9314 -0.4298
40650SOL     OW39941   6.050   0.334   8.856  0.1231  0.1287 -0.2216
40650SOL    HW139942   5.968   0.304   8.896 -0.6031  1.3067 -0.7976
40650SOL    HW239943   6.049   0.429   8.867  0.3886  0.3743 -2.1236
40651SOL     OW39944   8.473   9.065  12.261  0.1058  0.4684 -0.6558
40651SOL    HW139945   8.444   8.995  12.202 -0.7502  0.7963 -0.6316
40651SOL    HW239946   8.393   9.111  12.285  0.5637  0.9290  0.0140
40652SOL     OW39947   1.068   4.528   4.333 -0.1247  0.3835  0.1323
40652SOL    HW139948   1.007   4.469   4.289 -0.1874 -0.8514  1.7880
40652SOL    HW239949   1.016   4.604   4.357 -0.8268 -0.2757  0.7465
40653SOL     OW39950  10.228   1.761  13.207  0.4240 -0.0354 -0.5861
40653SOL    HW139951  10.273   1.827  13.154  0.4368  1.2677  0.9601
40653SOL    HW239952  10.152   1.807  13.243  0.0522 -1.0721 -0.0149
40654SOL     OW39953   2.696   7.304   0.471 -0.2199  0.0056 -0.2098
40654SOL    HW139954   2.755   7.269   0.537 -0.0182 -0.6036 -0.7001
40654SOL    HW239955   2.609   7.283   0.502 -0.3193  2.4397  1.4034
40655SOL     OW39956  11.337  10.851   2.390 -0.3879 -0.0347  0.1172
40655SOL    HW139957  11.376  10.781   2.442  0.4971 -0.1057 -0.6175
40655SOL    HW239958  11.356  10.931   2.440  0.8450 -0.0518 -0.2796
40656SOL     OW39959  11.080   7.311   0.134  0.1997 -0.3622 -0.2018
40656SOL    HW139960  10.993   7.325   0.172  1.2361  2.4300  1.4472
40656SOL    HW239961  11.078   7.356   0.050  0.3086  0.6226  0.3050
40657SOL     OW39962   1.532   6.755  12.161  0.4994  0.6858 -0.0401
40657SOL    HW139963   1.569   6.818  12.099  0.5121  0.0870 -0.6580
40657SOL    HW239964   1.591   6.680  12.157 -0.0190  0.2705 -0.0107
40658SOL     OW39965   0.840   2.400   6.032 -0.2644  0.2702 -0.1968
40658SOL    HW139966   0.770   2.336   6.023  0.7724 -0.7757 -1.1143
40658SOL    HW239967   0.886   2.375   6.112 -0.2817  0.3090 -0.1742
40659SOL     OW39968   5.489  10.728   4.019 -0.0231  0.8280  0.5562
40659SOL    HW139969   5.481  10.633   4.011 -3.6060  1.1102 -1.3346
40659SOL    HW239970   5.467  10.746   4.111  0.1477 -0.1274  0.7945
40660SOL     OW39971   7.622   5.742   9.217  0.3291  0.1832  0.3112
40660SOL    HW139972   7.581   5.826   9.198 -1.3994 -0.6702  0.0748
40660SOL    HW239973   7.549   5.680   9.223  1.5453 -1.2983  0.5223
40661SOL     OW39974  13.076   3.176   8.954 -0.1819 -0.0707 -0.3403
40661SOL    HW139975  13.131   3.146   8.882  0.0076  0.9519 -0.6462
40661SOL    HW239976  13.020   3.243   8.914 -1.2228 -0.6589  0.1027
40662SOL     OW39977   7.069   3.622   5.466  0.4528 -0.0555  0.1587
40662SOL    HW139978   6.983   3.657   5.443  1.1483  1.1248 -0.8260
40662SOL    HW239979   7.127   3.656   5.398  2.3226  2.1119  2.6293
40663SOL     OW39980   1.927   2.138   6.991  1.1051 -0.1392 -0.2602
40663SOL    HW139981   1.971   2.153   7.075 -0.6796 -0.6179  0.7977
40663SOL    HW239982   1.919   2.043   6.985  0.2963 -0.0584 -0.4934
40664SOL     OW39983  12.142   6.495   2.606  0.0331  0.6421  0.0897
40664SOL    HW139984  12.101   6.423   2.558 -0.6341  0.9792  0.1445
40664SOL    HW239985  12.196   6.451   2.672 -1.6968  0.1557  1.2456
40665SOL     OW39986   7.645   6.559   0.243  0.0880 -0.3502 -0.1670
40665SOL    HW139987   7.706   6.599   0.181  2.5227  0.0865  2.3130
40665SOL    HW239988   7.637   6.624   0.313 -1.2213 -1.4913  0.7939
40666SOL     OW39989   0.185  13.961  11.742 -0.5563  0.8314 -0.0941
40666SOL    HW139990   0.216  13.950  11.652  2.0226  1.5110  0.6022
40666SOL    HW239991   0.257  14.007  11.785 -1.1571 -0.5834  2.6176
40667SOL     OW39992   3.234  12.229  14.148 -0.1246 -0.1377 -0.1816
40667SOL    HW139993   3.171  12.234  14.076  0.3173  0.4520 -0.5370
40667SOL    HW239994   3.181  12.244  14.227 -0.4901 -0.0236 -0.4476
40668SOL     OW39995   6.152  10.725   4.444 -0.3865 -0.1503 -0.5449
40668SOL    HW139996   6.202  10.806   4.451  0.0186 -0.4154 -0.3179
40668SOL    HW239997   6.181  10.672   4.518 -0.5071 -0.5778 -0.7985
40669SOL     OW39998  13.330   9.041   0.341 -0.5195  0.0745 -0.1533
40669SOL    HW139999  13.408   9.095   0.332 -0.8953  0.5481 -0.5772
40669SOL    HW240000  13.347   8.987   0.419  1.1533 -1.3739 -1.4469
40670SOL     OW40001   0.068   2.745   9.490  0.2569 -0.3109  0.0698
40670SOL    HW140002   0.030   2.829   9.517 -0.4603  0.4439 -2.9473
40670SOL    HW240003   0.080   2.697   9.573  0.6573  2.6835  1.9062
40671SOL     OW40004  13.136  10.080   5.468 -0.2584  0.2089 -0.6438
40671SOL    HW140005  13.148  10.136   5.391  0.4458  1.3581  0.2838
40671SOL    HW240006  13.210  10.099   5.524 -0.9962 -0.2947  0.5354
40672SOL     OW40007  11.857  13.627   2.192 -0.4468 -0.2539 -0.3467
40672SOL    HW140008  11.801  13.705   2.192 -1.4729 -0.9703 -0.3935
40672SOL    HW240009  11.813  13.567   2.132  0.1435 -1.0081 -0.0323
40673SOL     OW40010  13.570   0.349   5.599 -0.5657  0.5441  0.2506
40673SOL    HW140011  13.527   0.413   5.655  1.0181  1.8602  0.0629
40673SOL    HW240012  13.505   0.280   5.585 -2.0501  1.7181  1.1257
40674SOL     OW40013   9.015   8.980   8.492  0.0309  0.4273  0.1824
40674SOL    HW140014   8.924   9.005   8.505  0.5690  1.8394  1.4656
40674SOL    HW240015   9.041   8.937   8.573  0.7347  0.7781  0.1564
40675SOL     OW40016   9.759  10.667   0.169 -0.3150 -0.1882  0.2989
40675SOL    HW140017   9.800  10.712   0.095 -0.3759 -0.0490  0.3492
40675SOL    HW240018   9.796  10.709   0.246  0.8481 -1.3106  0.3737
40676SOL     OW40019   4.948   1.801   3.429  0.1953 -0.2958  0.1900
40676SOL    HW140020   4.930   1.887   3.390  2.7252  0.2729  0.0850
40676SOL    HW240021   4.953   1.741   3.355 -0.1381 -0.2529  0.1320
40677SOL     OW40022  12.071   7.609   4.131  0.7384 -0.1383  0.2515
40677SOL    HW140023  12.073   7.699   4.163 -0.5318  0.3909 -1.0448
40677SOL    HW240024  11.989   7.603   4.083  0.3453 -2.2949  1.1129
40678SOL     OW40025   3.251   3.252   4.480  0.5845  0.4056  0.6749
40678SOL    HW140026   3.217   3.264   4.569 -0.2815  0.4562  0.3425
40678SOL    HW240027   3.284   3.162   4.479 -0.2455  0.0948  0.7804
40679SOL     OW40028   0.081   4.861  12.208 -0.1951  0.3582  0.1720
40679SOL    HW140029   0.050   4.833  12.294 -1.0064 -1.5742 -0.6909
40679SOL    HW240030   0.025   4.815  12.146 -0.0883  2.2449 -1.4175
40680SOL     OW40031  11.749   2.517   2.592  0.1100  0.3157 -0.1875
40680SOL    HW140032  11.833   2.537   2.551 -0.7078  0.8156 -1.6983
40680SOL    HW240033  11.697   2.597   2.581 -1.3522 -0.7352 -1.4144
40681SOL     OW40034   2.218   5.595  11.467  0.2167  0.3066  0.1086
40681SOL    HW140035   2.136   5.558  11.498  0.5490 -0.3657  0.1993
40681SOL    HW240036   2.243   5.658  11.535 -0.3631  0.7233 -0.0573
40682SOL     OW40037   8.923  13.706   6.364  0.0676  0.1557  0.5352
40682SOL    HW140038   8.862  13.773   6.334 -1.2028 -1.6879 -1.3325
40682SOL    HW240039   8.867  13.640   6.405  0.8147 -1.4045 -0.8672
40683SOL     OW40040   0.477   5.517   5.405 -0.7000 -0.0349  0.3706
40683SOL    HW140041   0.545   5.522   5.472  1.0887 -0.9279 -1.2656
40683SOL    HW240042   0.482   5.601   5.360  0.2944 -0.5626 -0.5703
40684SOL     OW40043   8.459   0.327   5.438  0.2290 -0.3193  0.3634
40684SOL    HW140044   8.553   0.324   5.420  0.1400 -1.1830 -0.0158
40684SOL    HW240045   8.447   0.265   5.510 -0.1131 -0.5648  0.0968
40685SOL     OW40046   7.102   0.943  11.610 -1.0335  0.5957  0.1647
40685SOL    HW140047   7.175   0.936  11.672 -0.6517 -0.5792 -0.3818
40685SOL    HW240048   7.031   0.893  11.651 -0.4694 -1.0186 -0.7434
40686SOL     OW40049   1.675   0.468  10.564 -0.0328  0.2996 -0.3043
40686SOL    HW140050   1.587   0.459  10.600  0.1508 -0.9309 -0.1333
40686SOL    HW240051   1.662   0.501  10.475 -0.6508  0.4146 -0.1702
40687SOL     OW40052  10.886   7.719   1.193 -0.2501 -0.1164 -0.8425
40687SOL    HW140053  10.836   7.787   1.239 -0.1756  0.5328 -1.6965
40687SOL    HW240054  10.940   7.768   1.131  1.3277 -0.8101 -0.0761
40688SOL     OW40055  12.941   6.063   0.349  0.3565  0.2062 -0.7518
40688SOL    HW140056  12.872   6.085   0.286  1.0352  0.4321 -1.4374
40688SOL    HW240057  12.937   5.968   0.358 -0.1623  0.2387 -0.6487
40689SOL     OW40058   2.559   9.441   3.690 -0.4263 -0.1280 -0.1672
40689SOL    HW140059   2.483   9.499   3.693  0.8301  1.5660  0.5401
40689SOL    HW240060   2.569   9.420   3.597 -1.1634  0.4297 -0.3867
40690SOL     OW40061   9.614   4.410   1.708 -0.7513 -0.3192  0.0602
40690SOL    HW140062   9.621   4.505   1.710  0.3089 -0.3916  0.9262
40690SOL    HW240063   9.696   4.381   1.668 -0.7737 -0.8818  0.4105
40691SOL     OW40064  11.688   1.389   0.263 -0.9502 -0.1480  0.1002
40691SOL    HW140065  11.636   1.313   0.239 -2.7217  0.4888  1.6920
40691SOL    HW240066  11.636   1.435   0.329 -0.2838  2.8181 -1.2377
40692SOL     OW40067  13.229  12.705   0.794 -0.2223 -0.3391 -0.6691
40692SOL    HW140068  13.255  12.615   0.812  0.0843  0.0631  1.0182
40692SOL    HW240069  13.312  12.750   0.775  0.0235  0.2285  1.5149
40693SOL     OW40070   4.992  12.519   7.836 -0.1649  0.6951  0.3973
40693SOL    HW140071   4.971  12.427   7.850  1.1269  0.3039 -0.0649
40693SOL    HW240072   4.923  12.567   7.882 -0.1722 -0.5039  1.6974
40694SOL     OW40073  12.589   3.910   1.957  0.0818  0.3909 -0.3928
40694SOL    HW140074  12.514   3.916   2.016 -0.2437 -2.4097 -0.3688
40694SOL    HW240075  12.551   3.911   1.869  0.4922  3.5884 -0.6509
40695SOL     OW40076   1.696   9.827   2.891 -0.0961 -0.0465 -0.5690
40695SOL    HW140077   1.686   9.742   2.849 -1.2899 -0.4058  0.4110
40695SOL    HW240078   1.622   9.879   2.859 -0.6693 -0.1233  0.5796
40696SOL     OW40079  12.931   7.919   9.390 -0.0664 -0.3204  0.8955
40696SOL    HW140080  12.846   7.879   9.378  0.8176 -2.2486  0.7603
40696SOL    HW240081  12.931   7.994   9.330 -2.2021  0.6827  2.0571
40697SOL     OW40082  12.902   1.282   0.699 -0.3512 -0.3949 -0.5233
40697SOL    HW140083  12.885   1.375   0.685  1.7482 -0.1803 -2.2808
40697SOL    HW240084  12.945   1.278   0.785 -1.1471  0.1331 -0.0910
40698SOL     OW40085   4.667  10.467   8.403  0.0268 -0.2180 -0.4450
40698SOL    HW140086   4.604  10.405   8.441 -0.2495 -0.8235 -1.8174
40698SOL    HW240087   4.704  10.419   8.328 -0.0204  1.1927 -1.4000
40699SOL     OW40088  11.162  10.044   8.203 -0.4501 -0.0898  0.2481
40699SOL    HW140089  11.248  10.008   8.181  0.4714  1.8511  0.4689
40699SOL    HW240090  11.103  10.007   8.137  1.0659  0.5937 -1.5932
40700SOL     OW40091   5.061   0.555   3.652  0.0246 -0.0398  0.1877
40700SOL    HW140092   5.138   0.576   3.705  1.6632 -2.4264 -1.0946
40700SOL    HW240093   5.041   0.637   3.606  1.9838  0.5652  0.3072
40701SOL     OW40094   7.952   9.125   3.992  0.0319 -0.0522 -0.4566
40701SOL    HW140095   7.896   9.187   3.945  0.0601  0.5202  0.2650
40701SOL    HW240096   7.992   9.176   4.062  2.1179 -0.2310 -1.4385
40702SOL     OW40097   6.089   6.672  13.834 -0.3956 -0.2100  0.3260
40702SOL    HW140098   5.998   6.698  13.847 -0.3325 -0.2262  0.8261
40702SOL    HW240099   6.102   6.597  13.892 -0.2408 -0.6110 -0.2216
40703SOL     OW40100  11.759   7.111   6.204  0.3067 -0.7899  0.1680
40703SOL    HW140101  11.821   7.176   6.236 -0.1195 -0.3026  0.0144
40703SOL    HW240102  11.673   7.151   6.217  0.1099 -0.6240 -1.4578
40704SOL     OW40103   9.837  14.039   8.347  0.1942  0.1710  0.4572
40704SOL    HW140104   9.785  14.009   8.273 -0.2636  1.7201  0.1175
40704SOL    HW240105   9.927  14.017   8.323 -0.0419 -0.1593 -0.1486
40705SOL     OW40106  12.392   7.005   1.461  0.0796  0.2774 -0.1711
40705SOL    HW140107  12.400   7.095   1.431  0.3059  0.6363  0.9279
40705SOL    HW240108  12.342   7.011   1.542 -1.0029 -0.7231 -0.7236
40706SOL     OW40109  13.969   9.654   0.529 -0.5261  0.1509 -0.3151
40706SOL    HW140110  13.984   9.723   0.465 -1.0969 -0.3784 -1.0332
40706SOL    HW240111  14.057   9.622   0.551 -0.1350  1.9673  1.0449
40707SOL     OW40112   4.704   5.125  11.050  0.2340 -0.2411  0.3321
40707SOL    HW140113   4.638   5.175  11.098  0.5878 -0.2803  0.8670
40707SOL    HW240114   4.779   5.121  11.109  1.7855  2.1701 -1.2446
40708SOL     OW40115  11.260   6.759   9.546  0.2164  0.4055 -0.0474
40708SOL    HW140116  11.349   6.728   9.564  0.3772  1.1718  0.5854
40708SOL    HW240117  11.227   6.701   9.479  1.5638  0.7076 -1.0216
40709SOL     OW40118  13.481   2.175   1.312  0.1860  0.2798  0.1334
40709SOL    HW140119  13.407   2.236   1.307  0.3602  0.4861  0.0155
40709SOL    HW240120  13.555   2.226   1.279  0.6159  0.4511  1.2918
40710SOL     OW40121   6.490  12.142   2.533  0.1806  0.3047 -0.4621
40710SOL    HW140122   6.495  12.167   2.625  1.0333 -0.8099 -0.1759
40710SOL    HW240123   6.460  12.221   2.488  0.6749  1.1533  0.6499
40711SOL     OW40124   6.932   4.208   7.402  0.5228  0.3969 -0.0957
40711SOL    HW140125   6.923   4.134   7.342  0.9386 -0.0690  0.4093
40711SOL    HW240126   6.847   4.253   7.397  0.3323 -0.0056 -0.5440
40712SOL     OW40127   9.534  12.254  13.970  0.4474  0.1388 -0.5751
40712SOL    HW140128   9.504  12.163  13.981  0.8882  0.0256 -0.2995
40712SOL    HW240129   9.490  12.301  14.040  0.2697  0.1271 -0.6776
40713SOL     OW40130   8.448   8.510   2.285  0.4881 -0.3703  0.0955
40713SOL    HW140131   8.482   8.598   2.270  1.4132 -0.7611 -0.1843
40713SOL    HW240132   8.521   8.462   2.324 -0.0474 -0.9771  0.3777
40714SOL     OW40133   3.880   1.858   9.275  0.0783 -0.0149  0.3431
40714SOL    HW140134   3.848   1.798   9.208 -1.0688  0.0506  0.8142
40714SOL    HW240135   3.962   1.818   9.305  0.2216 -0.4324 -0.5542
40715SOL     OW40136   2.862   6.377   7.848 -0.5260  0.1203 -0.3835
40715SOL    HW140137   2.819   6.427   7.918  0.3394  0.9415 -0.4064
40715SOL    HW240138   2.906   6.305   7.893 -1.8282 -0.6804 -0.3524
40716SOL     OW40139  12.770   4.878   0.740 -0.5544 -0.7847 -0.0895
40716SOL    HW140140  12.781   4.884   0.645 -2.7902 -0.2483 -0.3554
40716SOL    HW240141  12.764   4.969   0.769 -2.2117 -0.9707  0.2228
40717SOL     OW40142   6.569   8.254   7.743 -0.1348 -0.2862 -0.4059
40717SOL    HW140143   6.500   8.192   7.765  0.2498 -0.8268 -0.7090
40717SOL    HW240144   6.593   8.293   7.827  0.4508 -1.4162 -0.0262
40718SOL     OW40145  14.001  10.855  10.702 -0.0853 -0.2013  0.6252
40718SOL    HW140146  13.917  10.812  10.721 -0.5614  0.7224  0.6453
40718SOL    HW240147  14.039  10.872  10.788 -0.1198 -0.1532  0.6307
40719SOL     OW40148   6.331  12.967   1.791 -0.1073  0.3299 -0.1991
40719SOL    HW140149   6.422  12.968   1.819 -0.1090  0.0684 -0.1868
40719SOL    HW240150   6.310  12.874   1.779 -0.7776  0.2861  1.1277
40720SOL     OW40151  13.854  12.178   6.967 -0.1028  0.3128  0.2488
40720SOL    HW140152  13.846  12.170   6.872 -0.7291  0.7251  0.2643
40720SOL    HW240153  13.884  12.091   6.995 -0.2345  0.0891 -0.2871
40721SOL     OW40154   8.468   3.706  11.186  0.2752 -0.0243  0.4307
40721SOL    HW140155   8.374   3.700  11.167 -0.1535  1.5271  1.8300
40721SOL    HW240156   8.510   3.692  11.101 -1.3312  1.6092 -0.7340
40722SOL     OW40157  13.852  11.086   4.646  0.3590  0.3193  0.5190
40722SOL    HW140158  13.757  11.084   4.636  0.4877 -0.9120 -0.7848
40722SOL    HW240159  13.883  11.140   4.573  0.7225 -0.4933  0.0465
40723SOL     OW40160  12.975   8.459   3.544  0.3315  0.1829 -0.5239
40723SOL    HW140161  12.966   8.553   3.556  0.6767 -0.0077  1.6052
40723SOL    HW240162  13.064   8.448   3.510  1.0792  0.5228  1.2317
40724SOL     OW40163  13.993  10.442   7.572 -0.0050 -0.2426  0.2778
40724SOL    HW140164  14.015  10.468   7.482  0.5671  0.1923  0.5420
40724SOL    HW240165  13.898  10.451   7.576 -0.2183 -1.6889 -0.7282
40725SOL     OW40166   8.738   1.177  12.763 -0.5783 -0.0159 -0.1543
40725SOL    HW140167   8.661   1.231  12.746 -0.9779 -0.4454  0.2839
40725SOL    HW240168   8.710   1.088  12.743  0.4553  0.0471 -2.1329
40726SOL     OW40169   4.356   1.428  10.246  0.0058  0.1291  0.1004
40726SOL    HW140170   4.380   1.338  10.229 -0.0839 -0.1752  1.4524
40726SOL    HW240171   4.408   1.479  10.185 -0.7508 -0.8756 -1.4408
40727SOL     OW40172  10.371   1.316  10.238  0.8352 -0.0505 -0.2822
40727SOL    HW140173  10.322   1.367  10.173 -0.1016 -0.2951  0.2149
40727SOL    HW240174  10.366   1.226  10.206  2.7765  0.1700 -1.3391
40728SOL     OW40175   4.882   0.021  13.511  0.1875  0.0881  0.0461
40728SOL    HW140176   4.896   0.108  13.475 -2.2609  0.3124 -0.5369
40728SOL    HW240177   4.937  -0.037  13.457  0.8197  1.0866 -0.4095
40729SOL     OW40178  10.730   7.007   7.625 -0.1837  0.2429 -0.4507
40729SOL    HW140179  10.635   7.004   7.614 -0.2302  0.5136 -0.1616
40729SOL    HW240180  10.751   6.934   7.683 -0.2758  0.4590 -0.1398
40730SOL     OW40181   6.758  10.401  12.533  0.4722  0.2877  0.2886
40730SOL    HW140182   6.718  10.482  12.566  1.1583  0.0829  1.7054
40730SOL    HW240183   6.685  10.351  12.498 -0.0151  1.3483 -0.2843
40731SOL     OW40184  10.485   3.659  14.002 -0.6313  0.1489 -0.1682
40731SOL    HW140185  10.475   3.733  14.063  2.1869  0.4891  0.0160
40731SOL    HW240186  10.501   3.584  14.059  0.4492  0.1742 -0.4230
40732SOL     OW40187  12.845  12.808  13.022 -0.5632  0.1620 -0.0539
40732SOL    HW140188  12.819  12.790  12.932 -0.5670 -1.1848  0.2051
40732SOL    HW240189  12.931  12.850  13.014 -1.7191  2.6067 -0.7961
40733SOL     OW40190   9.708   8.615   0.573 -0.3516 -0.1111 -0.8456
40733SOL    HW140191   9.717   8.610   0.477  1.4171 -1.7370 -0.6679
40733SOL    HW240192   9.781   8.671   0.600  0.2999 -1.1547 -0.3597
40734SOL     OW40193   4.372   9.753   8.753 -0.7961 -0.5887 -0.2817
40734SOL    HW140194   4.429   9.719   8.823 -2.0254  1.8943  2.1118
40734SOL    HW240195   4.313   9.680   8.733 -1.0963 -1.0905  2.0891
40735SOL     OW40196   1.838   5.036   1.735 -0.5952  0.1704  0.0703
40735SOL    HW140197   1.762   5.025   1.792 -0.1581 -0.9127  0.4672
40735SOL    HW240198   1.855   4.949   1.700  1.4920  0.0185  1.3149
40736SOL     OW40199  13.976   1.020   7.162 -0.0464 -0.5432 -0.2490
40736SOL    HW140200  14.025   0.947   7.200  0.1133 -0.7473 -0.8328
40736SOL    HW240201  13.904   0.979   7.115 -0.8865 -0.2363  0.7268
40737SOL     OW40202   0.056   8.893   9.867  0.1889 -0.7984 -0.3551
40737SOL    HW140203   0.050   8.940   9.784 -1.8217 -0.5641 -0.1308
40737SOL    HW240204   0.033   8.802   9.844 -0.9582 -0.6202 -0.0121
40738SOL     OW40205   0.169   1.000   9.376  0.3220 -0.5626  0.1459
40738SOL    HW140206   0.138   0.981   9.465 -1.2062  0.4743 -0.1215
40738SOL    HW240207   0.196   1.092   9.379 -0.3868 -0.3221 -0.6099
40739SOL     OW40208   7.917  11.890   1.618 -0.0582 -0.3289  0.1720
40739SOL    HW140209   7.977  11.866   1.547  0.4388  1.3014  0.0131
40739SOL    HW240210   7.924  11.817   1.680  0.3534 -1.2469 -0.9209
40740SOL     OW40211   9.330   9.569   2.599  0.4862 -0.1652  0.1895
40740SOL    HW140212   9.285   9.508   2.657  1.2340  0.6329  1.6832
40740SOL    HW240213   9.370   9.513   2.532  0.7967 -1.2981  1.2703
40741SOL     OW40214   7.666  11.437   0.440 -0.3732  0.1490  0.1039
40741SOL    HW140215   7.712  11.441   0.524 -1.1387 -0.7841  0.5828
40741SOL    HW240216   7.623  11.351   0.439  0.0306 -0.0780 -1.4675
40742SOL     OW40217   3.802  11.719  11.958  0.7320 -0.4907 -0.2908
40742SOL    HW140218   3.895  11.725  11.980  0.7000  0.7484 -0.3954
40742SOL    HW240219   3.799  11.673  11.875  1.4950  1.5937 -1.5571
40743SOL     OW40220   8.127  13.927  10.618  0.0592 -0.0386 -0.1383
40743SOL    HW140221   8.063  13.866  10.655 -0.5221  0.5046 -0.2211
40743SOL    HW240222   8.078  13.974  10.550  1.0846 -0.9431 -1.5466
40744SOL     OW40223   9.629   9.698   5.558 -0.3002 -0.2463 -0.4058
40744SOL    HW140224   9.598   9.607   5.564  1.4042 -0.9818 -1.8891
40744SOL    HW240225   9.656   9.720   5.646 -2.7066 -0.3816  0.4573
40745SOL     OW40226   2.431   9.461   1.924  0.1595  0.0607  0.0727
40745SOL    HW140227   2.417   9.466   1.829 -4.3337  1.5458  0.5510
40745SOL    HW240228   2.496   9.529   1.942  0.9138 -0.0759 -1.8693
40746SOL     OW40229   5.874   4.166  12.882  0.9561  0.0802  0.5963
40746SOL    HW140230   5.874   4.117  12.799  1.8418  0.2870  0.4585
40746SOL    HW240231   5.903   4.254  12.858  2.0013 -0.0725  1.2317
40747SOL     OW40232   6.483   0.814   9.561 -0.6211 -0.1934 -0.2389
40747SOL    HW140233   6.518   0.738   9.608 -3.1799 -2.1032 -1.1789
40747SOL    HW240234   6.408   0.842   9.613 -1.1699  0.1252 -1.1787
40748SOL     OW40235   5.024   5.512   8.386  0.2436  0.2018 -0.1511
40748SOL    HW140236   5.046   5.425   8.354 -0.9237 -0.1743  0.0349
40748SOL    HW240237   5.105   5.545   8.425  0.9743 -0.3777 -1.1466
40749SOL     OW40238   6.991  12.117   3.141 -0.1293  0.4054  0.0514
40749SOL    HW140239   6.988  12.075   3.227  0.0173 -0.5860 -0.4134
40749SOL    HW240240   6.924  12.185   3.144  0.2693  0.7603  1.1428
40750SOL     OW40241   1.012   3.482  10.314  0.1669  0.2262  0.4842
40750SOL    HW140242   1.081   3.445  10.369  1.3502 -0.1511 -1.1824
40750SOL    HW240243   0.952   3.523  10.376  0.4638 -1.7406  2.1872
40751SOL     OW40244   8.360  10.857   1.584  0.0573 -0.2747 -0.4118
40751SOL    HW140245   8.398  10.932   1.538  3.8938 -0.3353  2.1503
40751SOL    HW240246   8.349  10.790   1.516 -0.7798  1.6177 -2.2494
40752SOL     OW40247   7.545   0.852   8.017  0.6152  0.4718  0.1406
40752SOL    HW140248   7.488   0.775   8.025  2.0713 -1.1659 -3.4214
40752SOL    HW240249   7.493   0.915   7.966  1.0157  0.0264 -0.8312
40753SOL     OW40250  11.418   2.760   1.949 -0.1856 -0.3951 -0.6117
40753SOL    HW140251  11.377   2.736   2.033  1.4214 -0.1485  0.2762
40753SOL    HW240252  11.473   2.685   1.927  1.3008  0.5280 -0.1679
40754SOL     OW40253   4.726  10.454  13.859 -0.0606 -0.1613  0.5014
40754SOL    HW140254   4.752  10.452  13.767 -1.0185  2.5751  0.0805
40754SOL    HW240255   4.643  10.407  13.862  0.9497 -2.0490  0.4061
40755SOL     OW40256   2.885  11.995  13.980  0.2313  0.0194 -0.3164
40755SOL    HW140257   2.877  12.027  13.890  0.2511 -1.7844 -0.9862
40755SOL    HW240258   2.946  11.921  13.975  0.0777 -0.2464  1.1504
40756SOL     OW40259   7.704  10.879  13.718 -0.2116 -0.8641 -0.9288
40756SOL    HW140260   7.632  10.941  13.727  2.1451  1.7762  3.6187
40756SOL    HW240261   7.737  10.893  13.629 -3.9682 -0.8813 -2.5060
40757SOL     OW40262   1.022   3.576   8.377  0.1283  0.3898 -0.9413
40757SOL    HW140263   1.067   3.648   8.331  0.9825  0.7281  0.3615
40757SOL    HW240264   1.079   3.556   8.451 -1.9192  0.9088  0.8673
40758SOL     OW40265   9.833  13.897   4.547  0.1806  0.1735  0.0347
40758SOL    HW140266   9.843  13.992   4.543 -0.5510  0.2777  0.5579
40758SOL    HW240267   9.836  13.869   4.456  0.6313  0.6691 -0.1085
40759SOL     OW40268   9.172   0.143  11.967  0.0880  0.3684 -0.3751
40759SOL    HW140269   9.095   0.093  11.994 -0.4314  0.0755 -2.2290
40759SOL    HW240270   9.144   0.190  11.888  1.1138  2.1752  0.2783
40760SOL     OW40271   9.494  11.207   0.794  0.3114 -0.2909 -0.5323
40760SOL    HW140272   9.542  11.247   0.867 -0.8624 -0.3558  0.3066
40760SOL    HW240273   9.520  11.115   0.797  0.0470 -0.3531  0.0004
40761SOL     OW40274   4.634  12.273  13.234 -0.2784 -0.0695 -0.1145
40761SOL    HW140275   4.669  12.358  13.208 -0.9806  0.2416 -0.0608
40761SOL    HW240276   4.541  12.290  13.253 -0.0739 -0.5162  1.4528
40762SOL     OW40277  11.664   8.639   7.570 -0.5212 -0.0800 -0.0158
40762SOL    HW140278  11.758   8.654   7.582 -0.5698  0.6318 -0.5149
40762SOL    HW240279  11.634   8.606   7.656 -0.0911  1.0714  0.5912
40763SOL     OW40280   2.207   6.360   0.228  0.1990 -0.1856  0.0722
40763SOL    HW140281   2.205   6.299   0.302 -0.0254  0.2712  0.4500
40763SOL    HW240282   2.144   6.325   0.166  1.1272 -1.1343 -0.3648
40764SOL     OW40283   3.153   6.590   6.282  0.2767 -0.4241 -0.7327
40764SOL    HW140284   3.125   6.589   6.374 -0.0629 -0.2814 -0.8305
40764SOL    HW240285   3.244   6.560   6.283  0.2698 -0.4275 -0.3516
40765SOL     OW40286   4.520   7.266   9.926  0.1378 -0.2493  0.2833
40765SOL    HW140287   4.591   7.294   9.984 -1.0776  0.3346  1.5252
40765SOL    HW240288   4.471   7.202   9.977 -0.9497  0.2668 -0.0876
40766SOL     OW40289  11.753   0.770   4.515  0.4139  0.0497  0.2523
40766SOL    HW140290  11.845   0.796   4.503  0.7703 -1.4171 -0.4692
40766SOL    HW240291  11.753   0.717   4.594  0.4498 -1.0020 -0.4278
40767SOL     OW40292  11.182   0.437   2.525 -0.1128 -0.1943  0.0585
40767SOL    HW140293  11.193   0.434   2.621 -0.6158  0.1570  0.1311
40767SOL    HW240294  11.209   0.525   2.501  0.4465 -0.4313 -0.1840
40768SOL     OW40295  12.957   0.704  12.772  0.6255 -0.2988  0.7532
40768SOL    HW140296  13.043   0.662  12.764  1.3811  1.3072 -0.1347
40768SOL    HW240297  12.975   0.787  12.815  0.1431  1.6125 -2.3730
40769SOL     OW40298   4.870  11.092   5.726  0.2370 -0.6483 -0.2091
40769SOL    HW140299   4.945  11.053   5.771 -0.6853 -0.1450  1.8971
40769SOL    HW240300   4.865  11.181   5.761  1.4348  1.0437 -3.8258
40770SOL     OW40301   2.516   2.980  12.543  0.1644 -0.6252  0.4151
40770SOL    HW140302   2.519   2.885  12.527 -0.1560 -0.5866  0.1195
40770SOL    HW240303   2.434   2.994  12.590 -0.3761 -0.3450 -0.5828
40771SOL     OW40304   2.884   1.894   6.050 -0.8756 -0.1965 -0.2224
40771SOL    HW140305   2.935   1.879   6.129 -1.5242 -0.5075  0.1485
40771SOL    HW240306   2.902   1.984   6.025 -0.4672 -0.1804  0.1324
40772SOL     OW40307   2.297   8.575   7.991 -0.1426 -0.2187  0.1516
40772SOL    HW140308   2.284   8.664   8.021  0.2300 -0.4793  1.1100
40772SOL    HW240309   2.391   8.560   7.996 -0.2327 -0.7749  0.3415
40773SOL     OW40310  11.945  11.699   5.238  0.0311 -0.0324  0.4633
40773SOL    HW140311  12.000  11.652   5.300 -0.1173  0.3188  0.8660
40773SOL    HW240312  11.993  11.695   5.155 -0.4876 -1.8469  0.2053
40774SOL     OW40313   3.316  13.584  11.220  0.4884  0.4070  1.0823
40774SOL    HW140314   3.293  13.512  11.161 -1.8916  0.5057  1.7497
40774SOL    HW240315   3.333  13.658  11.162 -0.1680  0.0831  0.4496
40775SOL     OW40316   8.561   5.066   6.900 -0.7963  0.1821  0.4895
40775SOL    HW140317   8.627   4.997   6.911  1.3962  2.2863  1.4049
40775SOL    HW240318   8.553   5.106   6.987  0.7828  3.4041 -0.6938
40776SOL     OW40319   2.628   5.296   1.439 -0.9753  0.6809 -0.2788
40776SOL    HW140320   2.688   5.236   1.394  0.4784  0.3370  1.9533
40776SOL    HW240321   2.544   5.249   1.441 -0.6424  0.0186 -1.1638
40777SOL     OW40322  13.237   6.904  12.567  0.2168  0.3373  0.1329
40777SOL    HW140323  13.194   6.952  12.637  0.5146 -0.5749  0.9673
40777SOL    HW240324  13.211   6.813  12.581  0.2811  0.1463 -0.9473
40778SOL     OW40325   6.283  10.884   8.882 -0.2898 -0.5364  0.2760
40778SOL    HW140326   6.327  10.801   8.903 -0.2290 -0.7356 -0.6098
40778SOL    HW240327   6.337  10.950   8.925 -0.1494 -0.9264  0.7133
40779SOL     OW40328   1.551   3.221   0.547 -0.3338  0.1317 -0.4532
40779SOL    HW140329   1.622   3.222   0.482  2.0567 -1.5203  1.8959
40779SOL    HW240330   1.504   3.139   0.529  0.2003 -0.2281 -0.2428
40780SOL     OW40331   0.404   0.309   0.730 -0.2028 -0.0677 -0.2670
40780SOL    HW140332   0.412   0.217   0.755  0.8560 -0.2262 -1.1748
40780SOL    HW240333   0.319   0.314   0.687  0.2749 -0.8981 -1.3489
40781SOL     OW40334  12.471   1.183  13.582 -0.0408 -0.2241  0.3519
40781SOL    HW140335  12.483   1.241  13.657 -3.2570  0.8651  0.1802
40781SOL    HW240336  12.413   1.114  13.613  1.0492 -1.4919 -0.3620
40782SOL     OW40337   0.150   6.132   0.311  0.3707 -0.2219  0.5215
40782SOL    HW140338   0.230   6.183   0.296  1.0914 -1.7560 -1.3643
40782SOL    HW240339   0.180   6.041   0.320 -1.1009 -0.7435  0.5154
40783SOL     OW40340   5.730  10.991   6.724 -0.3688  0.7600  0.0696
40783SOL    HW140341   5.649  11.005   6.675 -1.2868  1.3382  1.6856
40783SOL    HW240342   5.705  10.933   6.796  0.7439  0.6109  0.3534
40784SOL     OW40343   9.185   8.713  12.141  0.5022  0.2923  0.3167
40784SOL    HW140344   9.230   8.787  12.100 -0.4466 -0.0174 -1.4096
40784SOL    HW240345   9.249   8.676  12.201  1.9900  0.8137 -0.8805
40785SOL     OW40346   3.061   3.876  13.650  0.1548  0.4293  0.3959
40785SOL    HW140347   3.005   3.799  13.657  0.3695  0.1107 -0.9970
40785SOL    HW240348   3.049   3.923  13.732 -2.7875  0.8071 -0.1410
40786SOL     OW40349   9.495   4.671   2.485  0.0714 -0.0047 -0.3611
40786SOL    HW140350   9.564   4.647   2.548  1.6473 -0.1494 -2.0565
40786SOL    HW240351   9.506   4.765   2.472  0.3995 -0.1453 -1.1369
40787SOL     OW40352  13.500  11.465   7.172 -0.2062  0.0057 -0.3776
40787SOL    HW140353  13.453  11.383   7.190  0.2663 -0.2662 -0.3710
40787SOL    HW240354  13.439  11.534   7.198 -0.9431 -0.3206 -1.1902
40788SOL     OW40355  11.330   6.295   9.881 -0.4146 -0.0662 -0.1230
40788SOL    HW140356  11.413   6.287   9.929  0.5013  0.5328 -1.5308
40788SOL    HW240357  11.270   6.335   9.943  0.5610  0.1647  0.7038
40789SOL     OW40358  12.453   7.808   3.892  0.0658  0.3693 -0.0357
40789SOL    HW140359  12.476   7.726   3.935  0.7370  1.7516  2.4568
40789SOL    HW240360  12.363   7.825   3.918 -0.6511 -0.3382 -1.9170
40790SOL     OW40361   2.654   7.233   8.631  0.7274 -0.1501  0.0688
40790SOL    HW140362   2.583   7.267   8.578 -0.2470  0.7589  1.8494
40790SOL    HW240363   2.707   7.181   8.571 -1.1434 -0.4234 -1.4210
40791SOL     OW40364   9.711  11.928   1.068  0.1879 -0.6039 -0.1872
40791SOL    HW140365   9.755  12.008   1.098  1.0916 -1.1138 -0.1125
40791SOL    HW240366   9.622  11.937   1.100  0.1337  0.6105 -0.6105
40792SOL     OW40367   5.263  13.716  13.276 -0.0642 -0.3731 -0.9942
40792SOL    HW140368   5.239  13.653  13.343 -0.6671 -0.4543 -1.2848
40792SOL    HW240369   5.325  13.775  13.319 -1.3958  0.3357  0.0178
40793SOL     OW40370   4.674   8.683   0.302 -0.6543  0.0237 -0.1623
40793SOL    HW140371   4.671   8.712   0.210 -0.5261  0.8112  0.0785
40793SOL    HW240372   4.588   8.706   0.336 -0.5300  0.1626  0.0512
40794SOL     OW40373  12.958   6.753   9.224  0.0548 -0.0745 -0.3393
40794SOL    HW140374  13.020   6.728   9.292  0.9557  1.5403 -0.4959
40794SOL    HW240375  12.998   6.723   9.142 -0.3300 -0.7509 -0.2838
40795SOL     OW40376  10.208   5.182   0.218 -0.5793 -0.1996 -0.4727
40795SOL    HW140377  10.259   5.115   0.264 -0.6784 -0.7538 -1.1596
40795SOL    HW240378  10.235   5.174   0.126 -1.1893  0.1582 -0.6874
40796SOL     OW40379   8.221   9.496  10.380  0.2123  0.0588 -0.0106
40796SOL    HW140380   8.146   9.527  10.329 -0.9240 -0.3290  1.3796
40796SOL    HW240381   8.201   9.405  10.400  0.3858  0.3244  1.5182
40797SOL     OW40382   6.857  13.319   2.743  0.7510  0.6505 -0.0369
40797SOL    HW140383   6.796  13.393   2.738  1.1253  0.9895  0.3761
40797SOL    HW240384   6.901  13.317   2.658  0.9375  1.0729  0.0511
40798SOL     OW40385  12.268  13.277  10.898 -0.6489  0.0045 -0.4962
40798SOL    HW140386  12.218  13.200  10.927  1.1212 -1.1671 -0.4163
40798SOL    HW240387  12.357  13.261  10.929 -0.2569  2.1881 -0.3606
40799SOL     OW40388  13.260   7.397   0.014 -0.1238  0.4577  0.4393
40799SOL    HW140389  13.211   7.479   0.025 -1.3225 -0.0160 -1.0504
40799SOL    HW240390  13.299   7.404  -0.073  0.0338 -0.4217  0.4331
40800SOL     OW40391   8.114   4.813   9.727  0.0651  0.3308 -0.1490
40800SOL    HW140392   8.112   4.876   9.800 -1.0500 -0.7363  0.7915
40800SOL    HW240393   8.194   4.763   9.741 -1.0043 -1.0639  1.4772
40801SOL     OW40394   0.702  12.315  10.952  0.0615 -0.0257  0.0581
40801SOL    HW140395   0.755  12.250  10.905  0.0320  1.0645 -1.5718
40801SOL    HW240396   0.763  12.385  10.973 -0.4937  0.7721 -0.9117
40802SOL     OW40397   0.475   1.405   1.959 -0.3160 -0.3029 -0.1183
40802SOL    HW140398   0.554   1.352   1.969  0.2982  0.4924 -0.6353
40802SOL    HW240399   0.464   1.449   2.044  1.5661  1.9360 -0.9313
40803SOL     OW40400   9.739   9.393   0.368  0.0295 -0.1751  0.3599
40803SOL    HW140401   9.812   9.412   0.309 -0.7676  0.8613 -0.3314
40803SOL    HW240402   9.690   9.475   0.372 -3.1197 -1.7410 -2.0299
40804SOL     OW40403   0.348   7.637   3.876  0.2371  0.1186  0.2008
40804SOL    HW140404   0.359   7.725   3.841  1.6969  0.0415  0.3982
40804SOL    HW240405   0.253   7.624   3.880  0.0099  1.5338 -0.1659
40805SOL     OW40406   4.519   6.368   8.907 -0.1448  0.3918 -0.3119
40805SOL    HW140407   4.602   6.356   8.860  0.8400 -1.0849  1.6369
40805SOL    HW240408   4.469   6.289   8.889 -0.3505  0.4538 -0.0301
40806SOL     OW40409  11.962   3.264   1.310  0.0214  0.1346  0.0552
40806SOL    HW140410  11.991   3.182   1.351 -0.1856 -0.0078 -0.0792
40806SOL    HW240411  12.034   3.325   1.325  0.4976 -0.2858 -0.4936
40807SOL     OW40412   5.447   2.034  12.300 -0.3359  1.0311  0.0966
40807SOL    HW140413   5.506   2.085  12.355 -0.9269  1.0476  0.7427
40807SOL    HW240414   5.501   1.964  12.265  0.0882  1.0952  0.6017
40808SOL     OW40415   6.582   7.501   0.384  0.3195 -0.2072 -0.1522
40808SOL    HW140416   6.554   7.480   0.473  0.4738 -0.1579 -0.0920
40808SOL    HW240417   6.569   7.420   0.334  0.3146 -0.2594 -0.0653
40809SOL     OW40418  13.343   0.247   2.224 -0.0735 -0.1525  0.5266
40809SOL    HW140419  13.376   0.162   2.196 -0.7024 -0.5260  0.8940
40809SOL    HW240420  13.303   0.285   2.146 -1.1830 -0.8776  0.7179
40810SOL     OW40421   1.122   2.344   8.485 -0.4956 -0.3307  0.0942
40810SOL    HW140422   1.081   2.287   8.420 -1.1109  2.4487 -2.2161
40810SOL    HW240423   1.050   2.368   8.543 -1.3407  1.3539 -1.5338
40811SOL     OW40424   3.403   0.609   7.254 -0.1991 -0.1096 -0.8623
40811SOL    HW140425   3.437   0.566   7.176  3.0113  0.5755 -0.0124
40811SOL    HW240426   3.477   0.608   7.316 -1.5275  2.2490  0.9571
40812SOL     OW40427  13.120   6.363   3.338 -0.0686  0.2946 -0.0534
40812SOL    HW140428  13.171   6.353   3.257 -0.1712 -0.0639 -0.0726
40812SOL    HW240429  13.035   6.397   3.308  0.7788  2.8326  0.1396
40813SOL     OW40430   1.139  12.168  11.656  0.8612 -0.0592  0.2594
40813SOL    HW140431   1.105  12.257  11.649 -0.2750 -0.4939  0.0023
40813SOL    HW240432   1.179  12.150  11.571 -1.3980 -0.7550 -0.7204
40814SOL     OW40433  13.380   2.721   3.473 -0.0205  0.0390  0.0743
40814SOL    HW140434  13.361   2.747   3.383 -0.9856 -0.5477  0.0908
40814SOL    HW240435  13.425   2.637   3.465  0.7029  0.4126  0.1187
40815SOL     OW40436  12.526  13.409   8.147  0.1437 -0.5081  0.8691
40815SOL    HW140437  12.460  13.351   8.108  0.6648 -1.0313  0.7485
40815SOL    HW240438  12.482  13.450   8.221 -1.2813  1.4451 -0.9398
40816SOL     OW40439   3.867   8.672  10.160  0.3026 -0.4645 -0.3717
40816SOL    HW140440   3.933   8.607  10.182 -0.4144 -1.9321 -2.3583
40816SOL    HW240441   3.910   8.731  10.099  0.0883 -0.8317 -0.8830
40817SOL     OW40442   3.971   2.381   0.161  0.0584 -0.2603 -0.2849
40817SOL    HW140443   4.036   2.443   0.191 -0.0403 -1.1691  1.9874
40817SOL    HW240444   4.019   2.300   0.147 -0.2001 -0.3040 -0.9896
40818SOL     OW40445  12.234   5.910  11.197  0.1537  0.1060  0.0686
40818SOL    HW140446  12.198   5.997  11.179  0.1245 -0.0935 -0.9016
40818SOL    HW240447  12.229   5.902  11.292  1.4996  1.7350  0.3346
40819SOL     OW40448  10.617   8.730   3.478 -0.0735  0.2140  0.5434
40819SOL    HW140449  10.698   8.689   3.447 -0.6582  0.3492 -1.2305
40819SOL    HW240450  10.637   8.823   3.482  0.5431  0.0421  2.3624
40820SOL     OW40451   8.916  10.499  12.826 -0.3069 -0.3402 -0.6257
40820SOL    HW140452   8.937  10.568  12.762 -1.2051 -0.5962 -1.2200
40820SOL    HW240453   8.848  10.538  12.881 -1.6444 -1.1160 -1.6762
40821SOL     OW40454   8.217   0.763  13.675 -0.0052 -0.4936 -0.1082
40821SOL    HW140455   8.247   0.841  13.628 -1.4142  0.1776  0.0368
40821SOL    HW240456   8.182   0.797  13.757  2.4785 -1.6549  1.5569
40822SOL     OW40457   1.820   9.352   6.619  0.0660 -0.3626  0.8076
40822SOL    HW140458   1.846   9.433   6.575 -0.3451 -0.8820 -0.4520
40822SOL    HW240459   1.752   9.379   6.681 -0.3817  0.2006  0.0894
40823SOL     OW40460  10.961   1.858   1.032  0.2065 -0.0790 -0.5868
40823SOL    HW140461  11.035   1.911   1.002  0.3858  0.2353  0.3488
40823SOL    HW240462  10.994   1.812   1.109  0.5928 -2.9643 -2.3263
40824SOL     OW40463   9.647   5.517  10.234 -0.7400  0.0898 -0.7102
40824SOL    HW140464   9.669   5.424  10.243 -0.1305  0.3588  0.9658
40824SOL    HW240465   9.731   5.562  10.244 -1.1765  0.8707 -0.5212
40825SOL     OW40466   4.547   2.407   9.327  0.3546  0.2760  0.3539
40825SOL    HW140467   4.501   2.329   9.359  1.6660 -0.7630 -0.1866
40825SOL    HW240468   4.639   2.392   9.349  0.6247  1.7328  0.3252
40826SOL     OW40469   9.775  10.585  13.922  0.0152  0.2373  0.7523
40826SOL    HW140470   9.833  10.660  13.930  0.6615 -0.3252  1.5137
40826SOL    HW240471   9.766  10.552  14.012 -1.7259  0.4901  0.7100
40827SOL     OW40472  10.004   4.227   6.300  0.1256 -0.0926 -0.5186
40827SOL    HW140473  10.068   4.191   6.239  0.3942  0.0935 -0.3500
40827SOL    HW240474   9.945   4.154   6.321  0.5992 -0.4038 -0.2612
40828SOL     OW40475   2.838   4.288  10.481 -0.0388  0.2759  0.1204
40828SOL    HW140476   2.861   4.381  10.480  0.7883  0.1585  2.3274
40828SOL    HW240477   2.907   4.247  10.532 -0.7220 -1.4601 -0.3038
40829SOL     OW40478   1.102   5.086   0.897  0.2151 -0.4963  0.0180
40829SOL    HW140479   1.189   5.090   0.937 -0.0368  1.3901  0.4308
40829SOL    HW240480   1.051   5.032   0.957  0.7184 -0.4493  0.4979
40830SOL     OW40481  13.821  14.141  10.291  0.8396 -0.2360  0.2937
40830SOL    HW140482  13.739  14.096  10.271  0.6595  0.0103  0.4564
40830SOL    HW240483  13.866  14.084  10.353  0.4987 -0.0768  0.6925
40831SOL     OW40484   0.436   4.388   5.489 -0.6049 -0.2573 -0.2335
40831SOL    HW140485   0.344   4.405   5.468 -0.8234 -0.3834  0.6053
40831SOL    HW240486   0.454   4.444   5.565  0.1242  0.0521 -0.6210
40832SOL     OW40487   4.387   1.380   6.032 -0.2883  0.5364 -0.0648
40832SOL    HW140488   4.376   1.288   6.005 -0.9914  0.5964 -0.0057
40832SOL    HW240489   4.477   1.384   6.066 -0.2518 -0.1365 -0.0535
40833SOL     OW40490   4.027  11.162   3.331  0.0394  0.7211 -0.1423
40833SOL    HW140491   3.971  11.238   3.343 -1.1974  0.0357 -1.2302
40833SOL    HW240492   4.061  11.172   3.242  0.0199  0.1158 -0.2209
40834SOL     OW40493   5.343   5.021  13.129  0.0883 -0.2058  0.5849
40834SOL    HW140494   5.272   4.956  13.131  1.2025 -1.4988  2.9800
40834SOL    HW240495   5.305   5.099  13.172 -0.1838 -0.5677  1.0179
40835SOL     OW40496   0.342   6.182  13.481 -0.3422  0.0102 -0.1532
40835SOL    HW140497   0.433   6.191  13.452  0.1848 -1.3241  0.9749
40835SOL    HW240498   0.312   6.273  13.493  0.2638  0.5126 -2.1538
40836SOL     OW40499   9.307   6.385  13.392 -0.4817  0.1454  1.3265
40836SOL    HW140500   9.318   6.468  13.346  1.4966 -0.1980  1.0961
40836SOL    HW240501   9.247   6.334  13.337  0.4168  0.4204  0.0696
40837SOL     OW40502   1.436  10.764  11.044  0.2954 -0.4662  0.7680
40837SOL    HW140503   1.361  10.705  11.052  1.0494 -1.3394  1.6571
40837SOL    HW240504   1.489  10.727  10.974  1.6592 -1.9255  2.4723
40838SOL     OW40505   2.004   8.298   6.187 -0.0566  0.0741 -0.4392
40838SOL    HW140506   1.958   8.344   6.257 -1.8852 -0.4223 -1.2554
40838SOL    HW240507   1.956   8.215   6.177 -0.0037  0.2284 -2.4144
40839SOL     OW40508  13.959   5.957   0.081 -0.4747 -0.3839 -0.0783
40839SOL    HW140509  13.930   5.882   0.029  0.0686  0.9267 -2.3886
40839SOL    HW240510  14.054   5.960   0.069 -0.2181 -0.4714  1.6601
40840SOL     OW40511   3.644   3.501  13.112 -0.4312 -0.4082  0.4660
40840SOL    HW140512   3.691   3.556  13.175 -1.6491  0.4414  0.6681
40840SOL    HW240513   3.606   3.563  13.050 -2.3356 -0.9367  1.0380
40841SOL     OW40514   1.392  10.318  11.410  0.0522  0.1148  0.0244
40841SOL    HW140515   1.473  10.270  11.389 -1.3288 -1.6994 -1.5296
40841SOL    HW240516   1.386  10.314  11.506  1.0626 -1.0232  0.0636
40842SOL     OW40517   1.016   8.902  13.890  0.3780 -0.3228 -0.4292
40842SOL    HW140518   0.942   8.916  13.950 -0.6702 -0.6206 -1.6065
40842SOL    HW240519   0.997   8.959  13.816  0.0271 -2.1698 -1.8400
40843SOL     OW40520   4.375  10.647  10.006 -0.2500  0.3604 -0.1998
40843SOL    HW140521   4.325  10.590  10.064  0.6233 -0.0238  0.1858
40843SOL    HW240522   4.358  10.736  10.039  1.5326  0.0532  1.7229
40844SOL     OW40523   2.844   9.560   0.516  0.5951  0.5317  0.4318
40844SOL    HW140524   2.876   9.592   0.432  1.0683  1.2630  0.8789
40844SOL    HW240525   2.794   9.481   0.495  1.4640  0.2060 -0.4368
40845SOL     OW40526   8.736   5.154  12.062 -0.3710  0.3074  0.4887
40845SOL    HW140527   8.781   5.070  12.072 -1.6881 -0.4408  0.3574
40845SOL    HW240528   8.804   5.220  12.077  0.6777 -0.7763  0.6249
40846SOL     OW40529  14.001   5.249   7.378 -0.0408  0.1698  0.3951
40846SOL    HW140530  14.054   5.327   7.359  1.9242 -0.3871  2.9178
40846SOL    HW240531  13.975   5.261   7.470 -2.3712 -0.7377 -0.0894
40847SOL     OW40532   2.289   1.776  12.835 -0.0150 -0.0076 -0.0525
40847SOL    HW140533   2.304   1.798  12.743  0.1437 -0.9628 -0.2713
40847SOL    HW240534   2.224   1.840  12.865 -0.7754 -0.2491 -1.0988
40848SOL     OW40535   2.263   8.033  10.618  0.1559 -0.0591 -0.3889
40848SOL    HW140536   2.194   8.070  10.673  0.8700  0.9872 -0.1754
40848SOL    HW240537   2.337   8.019  10.678  0.5258 -0.0612 -0.8423
40849SOL     OW40538   9.874   1.604   1.699  0.6733 -0.8410  0.6080
40849SOL    HW140539   9.800   1.547   1.716 -0.5902  0.4530 -0.3618
40849SOL    HW240540   9.914   1.618   1.785 -0.0296 -1.7569  1.1029
40850SOL     OW40541   7.852   8.437  14.035 -0.7443 -0.1141 -0.2683
40850SOL    HW140542   7.787   8.374  14.067  0.5146 -0.9647  0.7153
40850SOL    HW240543   7.908   8.387  13.977  0.8061 -0.1759  1.2024
40851SOL     OW40544   9.842   2.655  13.708 -0.0099  0.0837  0.8900
40851SOL    HW140545   9.935   2.672  13.691  0.0905 -1.9633 -1.0832
40851SOL    HW240546   9.831   2.562  13.689 -2.6190  0.4581  0.2233
40852SOL     OW40547  10.103   8.515   7.132 -0.3658  0.4286 -0.1090
40852SOL    HW140548  10.034   8.578   7.116 -0.4676  0.6515  1.0678
40852SOL    HW240549  10.103   8.504   7.228  0.6334 -0.2246 -0.1698
40853SOL     OW40550   8.313   3.047  10.469 -0.2717 -0.3876  0.1046
40853SOL    HW140551   8.224   3.011  10.477  0.0334 -1.2107 -0.0310
40853SOL    HW240552   8.309   3.106  10.394 -0.6948 -0.4468  0.0797
40854SOL     OW40553  12.372   4.254  13.962 -0.4998 -0.6221  0.0556
40854SOL    HW140554  12.466   4.242  13.970 -0.4879  0.1656  1.3423
40854SOL    HW240555  12.356   4.255  13.868  1.0624  1.1984 -0.2590
40855SOL     OW40556   0.656   7.501   1.270 -0.2036 -0.0520  0.3275
40855SOL    HW140557   0.657   7.439   1.197  2.2139  1.2957 -0.9115
40855SOL    HW240558   0.598   7.461   1.334  1.1429 -3.5843 -0.4139
40856SOL     OW40559  11.094   7.916   6.014 -0.5498  0.0324 -0.1272
40856SOL    HW140560  11.082   8.007   5.988 -0.7647 -0.0197 -0.2084
40856SOL    HW240561  11.123   7.872   5.934  3.5316  0.7855  0.7412
40857SOL     OW40562   4.458   8.266  10.387  0.2390 -0.4206 -0.2995
40857SOL    HW140563   4.454   8.334  10.454  0.0070 -2.5931  2.0435
40857SOL    HW240564   4.394   8.294  10.320 -1.6649  0.4770  1.7664
40858SOL     OW40565   3.733   2.165  11.577  0.1642  0.5277  0.3301
40858SOL    HW140566   3.709   2.076  11.552 -0.4159  0.7265  0.1788
40858SOL    HW240567   3.781   2.154  11.660 -0.4676  0.1315  0.6509
40859SOL     OW40568   8.651  10.503   3.407  0.5279 -0.0740  0.1114
40859SOL    HW140569   8.633  10.586   3.451  1.7041 -0.0871  0.6843
40859SOL    HW240570   8.670  10.442   3.479  0.4227 -0.6397 -0.3335
40860SOL     OW40571  11.243   4.782  10.020 -0.7596  0.2556  0.7836
40860SOL    HW140572  11.203   4.792  10.106 -3.1057  1.6710 -0.3652
40860SOL    HW240573  11.212   4.858   9.970  0.2363 -0.6867 -1.4199
40861SOL     OW40574  11.203   4.082   6.164  0.1776  0.0274 -0.1668
40861SOL    HW140575  11.188   4.155   6.224 -0.8482 -0.3714  0.0822
40861SOL    HW240576  11.175   4.115   6.078 -0.8713 -0.2684  0.0551
40862SOL     OW40577   9.087   2.679  10.661  0.2891 -0.0046  0.3011
40862SOL    HW140578   9.020   2.730  10.616 -1.1748 -2.4865 -0.5858
40862SOL    HW240579   9.048   2.657  10.745  0.8052  0.1707  0.5866
40863SOL     OW40580  11.785   4.597   5.223 -0.1084  0.6543 -0.5354
40863SOL    HW140581  11.842   4.522   5.205 -0.6766  0.5361 -2.0274
40863SOL    HW240582  11.763   4.631   5.136 -0.7238  1.9007  0.0849
40864SOL     OW40583   4.596   6.107  10.065 -0.0163 -0.0311 -0.3336
40864SOL    HW140584   4.671   6.126  10.009  0.6426 -2.0181 -0.1986
40864SOL    HW240585   4.592   6.181  10.126  1.0211  0.7365 -1.1760
40865SOL     OW40586   4.091   4.741   8.108  0.3505  0.0391 -0.1840
40865SOL    HW140587   4.121   4.831   8.118  0.1685  0.0216  0.5193
40865SOL    HW240588   4.158   4.699   8.054  0.2847  0.6689 -0.7754
40866SOL     OW40589   6.605  10.803   3.123 -0.6492 -0.0099 -0.8559
40866SOL    HW140590   6.554  10.781   3.046 -0.8778 -0.3157 -0.6156
40866SOL    HW240591   6.621  10.719   3.167 -2.6038  0.3725  0.7437
40867SOL     OW40592  13.777   7.328   5.521 -0.8872  0.1941 -0.3126
40867SOL    HW140593  13.715   7.261   5.492 -0.8072 -0.8586  1.7977
40867SOL    HW240594  13.850   7.278   5.559 -0.0489  1.4625 -0.2133
40868SOL     OW40595   4.656   4.649   2.026  0.0080 -0.0536 -0.4227
40868SOL    HW140596   4.655   4.604   2.110  1.3342  1.7864  0.6423
40868SOL    HW240597   4.574   4.698   2.024  0.1676  0.2297 -0.0177
40869SOL     OW40598   8.446   5.894  10.614 -0.4337 -0.3521 -0.1882
40869SOL    HW140599   8.437   5.859  10.703  0.6201  0.0115  0.0746
40869SOL    HW240600   8.436   5.988  10.624  1.4311 -0.1092 -0.1465
40870SOL     OW40601  12.285   5.925   8.288 -0.3484 -0.3404  0.8739
40870SOL    HW140602  12.196   5.913   8.255 -0.1537 -0.5997  0.4434
40870SOL    HW240603  12.279   5.906   8.382 -0.4990 -1.5763  0.6281
40871SOL     OW40604  13.050  10.969   3.404  0.0544  0.5227 -0.1945
40871SOL    HW140605  13.062  10.936   3.493  1.4956  1.1657 -0.1155
40871SOL    HW240606  13.025  10.893   3.352 -1.3017  0.2288  0.8366
40872SOL     OW40607  12.927   4.202   3.495 -0.4866  0.7246  0.4259
40872SOL    HW140608  12.903   4.122   3.541  2.4273 -1.4290 -1.3923
40872SOL    HW240609  12.978   4.253   3.558 -0.4327  0.0167  0.9571
40873SOL     OW40610   7.188   3.419  14.062  0.2703  0.4190  0.0578
40873SOL    HW140611   7.112   3.417  14.004  1.4672 -0.8240 -1.5421
40873SOL    HW240612   7.238   3.496  14.034  0.1693  0.6199  0.4081
40874SOL     OW40613   9.709   6.938   3.355  0.4550  0.6133 -0.5469
40874SOL    HW140614   9.693   6.876   3.284 -1.0011  0.6296 -0.2694
40874SOL    HW240615   9.746   7.015   3.312 -1.2836  0.9922 -1.4500
40875SOL     OW40616   2.120  11.417   8.477 -0.8747 -0.4832 -0.3033
40875SOL    HW140617   2.081  11.484   8.532 -0.1426  0.8931 -1.3791
40875SOL    HW240618   2.215  11.430   8.487 -0.6892  0.4054 -2.4521
40876SOL     OW40619   5.471   3.007  11.909  0.5313 -0.0036  0.6393
40876SOL    HW140620   5.484   3.028  11.817  0.2316 -0.0217  0.5918
40876SOL    HW240621   5.528   3.067  11.957 -0.6622  1.2463  0.5366
40877SOL     OW40622   2.095   7.597   6.658 -0.7374 -0.2040  0.2206
40877SOL    HW140623   2.127   7.683   6.630  0.3960 -0.4674  0.6622
40877SOL    HW240624   2.006   7.593   6.624 -0.5110  0.7962 -0.5483
40878SOL     OW40625   5.059   7.798   0.292 -0.4849 -0.0209  0.1734
40878SOL    HW140626   5.125   7.839   0.237 -0.2126  0.1269  0.6046
40878SOL    HW240627   5.036   7.866   0.356 -0.7218 -0.2247  0.3046
40879SOL     OW40628  10.756   0.758   6.701 -0.0233 -0.4906 -0.2505
40879SOL    HW140629  10.711   0.675   6.687  1.1442 -0.8882 -1.9605
40879SOL    HW240630  10.848   0.735   6.710  0.0952  0.4681  1.3309
40880SOL     OW40631   8.171   8.158   5.356 -0.3568  0.5795  0.2649
40880SOL    HW140632   8.250   8.165   5.303  1.1814  0.3542  2.4254
40880SOL    HW240633   8.191   8.207   5.436 -2.3498  0.3703  0.9499
40881SOL     OW40634   2.780   6.170   5.218  0.2995 -0.2981  0.3681
40881SOL    HW140635   2.736   6.086   5.234 -1.3202  0.4456 -0.0491
40881SOL    HW240636   2.796   6.205   5.306  0.1047 -0.5917  0.5234
40882SOL     OW40637  11.916   5.797   6.356  0.3570  0.4154  0.1036
40882SOL    HW140638  11.906   5.890   6.378  1.9589  0.8174 -0.7369
40882SOL    HW240639  12.010   5.781   6.361  0.3177 -0.6392 -1.7644
40883SOL     OW40640   6.686   2.029  13.671 -0.1643 -0.2170 -0.3292
40883SOL    HW140641   6.676   2.046  13.578 -0.2555  0.1810 -0.2475
40883SOL    HW240642   6.660   1.938  13.682  0.0099 -0.3120 -0.7191
40884SOL     OW40643  12.596   1.550  11.939  0.3493 -0.3939 -0.6114
40884SOL    HW140644  12.655   1.564  11.866 -0.0840  2.4919 -0.5001
40884SOL    HW240645  12.648   1.571  12.017 -0.2618  0.3866 -0.3939
40885SOL     OW40646   3.300   9.957   4.165 -0.5484 -0.3359 -0.2454
40885SOL    HW140647   3.236   9.999   4.108 -0.5878  0.7106  0.5399
40885SOL    HW240648   3.385   9.993   4.139 -0.2054 -1.9312 -1.4742
40886SOL     OW40649  12.022  11.810  10.826  0.3243 -0.2630  0.0643
40886SOL    HW140650  12.044  11.729  10.779  1.3728  0.1697 -0.2144
40886SOL    HW240651  11.960  11.782  10.893 -1.0267 -0.9369 -1.4021
40887SOL     OW40652   6.446   1.500  12.646 -0.3325 -0.5747 -0.3156
40887SOL    HW140653   6.528   1.517  12.692 -0.6530 -0.3212  0.1666
40887SOL    HW240654   6.437   1.405  12.648  0.0840 -0.6197 -0.6046
40888SOL     OW40655   3.856  10.996   9.967  0.4074  0.3261  0.1517
40888SOL    HW140656   3.769  11.020   9.935  0.3176  0.6766  0.6377
40888SOL    HW240657   3.903  11.079   9.974  0.6284  0.1891  0.3228
40889SOL     OW40658   0.023   2.373  10.687  0.3986  0.3384  0.0221
40889SOL    HW140659   0.039   2.447  10.745  1.8512 -1.1063  1.5697
40889SOL    HW240660   0.092   2.378  10.621  0.1534  0.6674 -0.2120
40890SOL     OW40661   9.517   5.702   6.307 -0.0474  0.1644 -0.2086
40890SOL    HW140662   9.452   5.739   6.246 -0.5684  2.0236  1.3562
40890SOL    HW240663   9.465   5.663   6.377  0.5454 -2.1053 -0.9491
40891SOL     OW40664  12.564   2.013  10.789  0.4334  0.5847  0.4189
40891SOL    HW140665  12.593   1.965  10.711  1.8626  2.4754 -0.2955
40891SOL    HW240666  12.469   2.014  10.782  0.4235 -1.0946 -0.1456
40892SOL     OW40667   1.898   3.884   6.708  0.0592  0.0951 -0.0855
40892SOL    HW140668   1.971   3.945   6.697  0.7268 -0.7155 -0.2557
40892SOL    HW240669   1.917   3.838   6.789 -0.8718  0.6733  0.4771
40893SOL     OW40670   8.729   4.192   4.845  0.0815  0.1815  0.3258
40893SOL    HW140671   8.736   4.288   4.854  0.2326  0.2845 -0.7735
40893SOL    HW240672   8.746   4.175   4.753  1.2086 -1.0333  0.7289
40894SOL     OW40673   2.283  10.829   6.316 -0.1973  0.1348  0.3437
40894SOL    HW140674   2.198  10.855   6.282 -1.1724 -0.3813  2.2406
40894SOL    HW240675   2.264  10.786   6.399  1.7807 -1.6087  0.0026
40895SOL     OW40676   1.522   4.313   7.345  0.1343 -0.0950 -0.2474
40895SOL    HW140677   1.582   4.284   7.276 -0.2378 -0.5711 -0.3685
40895SOL    HW240678   1.563   4.393   7.379  0.4175  0.0439 -0.8907
40896SOL     OW40679  12.760  11.398   8.064  0.7188  0.1435  0.6014
40896SOL    HW140680  12.666  11.399   8.084  0.8237 -0.2443  1.1528
40896SOL    HW240681  12.801  11.439   8.140  1.0356 -0.1934  0.6149
40897SOL     OW40682   5.128   0.975   7.773  0.4347 -0.6561  0.3244
40897SOL    HW140683   5.154   1.050   7.828 -0.6704  0.6442 -0.8479
40897SOL    HW240684   5.106   0.906   7.835 -0.8211  0.7724  1.5442
40898SOL     OW40685   2.865   8.958   0.632  0.2699 -0.4588 -0.0112
40898SOL    HW140686   2.846   9.047   0.663 -0.0147 -0.2663 -0.7005
40898SOL    HW240687   2.930   8.925   0.693 -2.5121 -1.3113  2.7733
40899SOL     OW40688   3.268   4.374   8.607 -0.0499  0.2508  0.0788
40899SOL    HW140689   3.312   4.412   8.531 -0.1893  0.1376 -0.0593
40899SOL    HW240690   3.210   4.443   8.638  0.1986  0.3871  0.2388
40900SOL     OW40691   5.645   6.102  12.857  0.4635 -0.3298 -0.0346
40900SOL    HW140692   5.600   6.057  12.785  0.4744 -1.0717  0.4165
40900SOL    HW240693   5.676   6.184  12.818 -1.3794  0.2675 -0.3403
40901SOL     OW40694   2.790  10.413  12.799 -0.2017 -0.0343 -0.2031
40901SOL    HW140695   2.848  10.390  12.871  1.4469  2.2295 -0.6839
40901SOL    HW240696   2.737  10.485  12.833 -0.3108  0.1999 -0.8554
40902SOL     OW40697   3.072   8.104   3.939  0.3801 -0.1841 -0.0098
40902SOL    HW140698   3.085   8.084   4.031 -1.3197  0.5561  0.4221
40902SOL    HW240699   2.992   8.059   3.915  0.9034 -0.5179 -1.1886
40903SOL     OW40700  13.860   7.017   0.036 -0.3020 -0.1296 -0.7606
40903SOL    HW140701  13.858   6.968   0.118  0.5447 -0.1336 -0.7368
40903SOL    HW240702  13.776   6.997  -0.005 -0.8076  0.0137  0.1812
40904SOL     OW40703  13.762   7.872   5.801 -0.1601 -0.1012  0.2944
40904SOL    HW140704  13.756   7.777   5.785 -0.6805 -0.5189  2.5475
40904SOL    HW240705  13.854   7.892   5.791  0.0174 -0.9316  0.1368
40905SOL     OW40706  12.452  13.864   6.928 -0.6031 -0.4442 -0.0807
40905SOL    HW140707  12.450  13.929   6.858 -3.2401  0.6601  0.8879
40905SOL    HW240708  12.532  13.883   6.977 -0.0416  0.4007 -1.2960
40906SOL     OW40709  10.134   5.113   0.530 -0.1517 -0.0676 -0.1082
40906SOL    HW140710  10.218   5.112   0.484 -1.0404 -0.5474 -1.8000
40906SOL    HW240711  10.123   5.024   0.562  0.6117  0.3424  1.3764
40907SOL     OW40712   8.212  12.374   2.756  0.0313  0.5591 -0.5875
40907SOL    HW140713   8.184  12.422   2.834  1.4127  1.3353 -0.5459
40907SOL    HW240714   8.305  12.357   2.769  0.0266 -0.3471 -1.5398
40908SOL     OW40715   4.787   1.004  12.373 -0.4745 -0.1524  0.5134
40908SOL    HW140716   4.827   0.922  12.344 -2.2302 -0.1450 -2.4615
40908SOL    HW240717   4.718   0.977  12.434  2.2201 -0.3314  3.7430
40909SOL     OW40718  10.729   9.190   5.817 -0.6599  0.2246  0.4846
40909SOL    HW140719  10.702   9.113   5.768  0.0736 -0.7189  1.4934
40909SOL    HW240720  10.764   9.155   5.899  1.6263  1.4675  0.1357
40910SOL     OW40721   4.019   2.234   7.168 -0.2938 -0.4068 -0.2765
40910SOL    HW140722   4.077   2.174   7.213  0.2576  0.4356  0.1637
40910SOL    HW240723   3.971   2.180   7.106 -0.2359 -1.3930  0.5136
40911SOL     OW40724   1.143  10.453   3.360 -0.1526 -0.4766 -0.9290
40911SOL    HW140725   1.183  10.522   3.413 -0.5106 -1.2169  0.3257
40911SOL    HW240726   1.050  10.475   3.359 -0.6349 -2.0702  1.3256
40912SOL     OW40727   7.148   1.097   9.073  0.1461 -0.0549  0.0654
40912SOL    HW140728   7.240   1.081   9.049  0.1162 -1.0431  0.5348
40912SOL    HW240729   7.145   1.077   9.167 -0.2876  1.1983  0.3413
40913SOL     OW40730  13.238   6.408   7.490 -0.1273 -0.3645  0.5370
40913SOL    HW140731  13.192   6.352   7.552 -1.7215  0.4027  0.1130
40913SOL    HW240732  13.185   6.488   7.487  0.1547 -0.2117 -1.4789
40914SOL     OW40733  14.074   3.603  12.763 -0.7221  0.1176 -0.1788
40914SOL    HW140734  14.010   3.670  12.788  1.0458  2.5035 -1.6083
40914SOL    HW240735  14.101   3.563  12.846 -1.5482  1.4910  0.7870
40915SOL     OW40736   8.726   7.939   1.405 -0.0863  0.4780 -0.0557
40915SOL    HW140737   8.797   7.875   1.396 -0.8357 -0.6202  1.4741
40915SOL    HW240738   8.650   7.887   1.431 -1.1966  1.7773 -0.5819
40916SOL     OW40739   9.067   7.158   0.506  0.1093  0.5234 -0.5633
40916SOL    HW140740   9.028   7.225   0.562  0.2679 -0.2607  0.5098
40916SOL    HW240741   9.159   7.157   0.531  0.7489  1.8772 -2.5941
40917SOL     OW40742   2.934  11.947  12.393 -0.2484 -0.2380  0.5974
40917SOL    HW140743   2.863  11.933  12.330  1.0411 -0.5440 -0.8306
40917SOL    HW240744   2.926  11.873  12.454  0.4351 -1.7923 -1.1078
40918SOL     OW40745   2.481   3.133   3.417  0.1516 -0.7992  0.2537
40918SOL    HW140746   2.416   3.111   3.483 -0.6668 -0.5668 -0.4596
40918SOL    HW240747   2.444   3.209   3.371  1.9894  0.8643  1.3600
40919SOL     OW40748   7.946   6.550  12.848 -0.2331 -0.1942 -0.0088
40919SOL    HW140749   7.968   6.592  12.932 -0.7481  0.3541 -0.1392
40919SOL    HW240750   7.973   6.614  12.782 -1.3415  0.0995 -0.1974
40920SOL     OW40751   1.331   8.305   1.923 -0.4023 -0.3814  0.2317
40920SOL    HW140752   1.320   8.284   2.015  0.6311  1.3253  0.7795
40920SOL    HW240753   1.404   8.367   1.921  0.3875 -1.2750 -1.8453
40921SOL     OW40754   6.341   9.953   9.728  0.4588  0.5785 -0.2008
40921SOL    HW140755   6.336   9.896   9.651  0.0760 -0.1388  0.3511
40921SOL    HW240756   6.403   9.909   9.786 -1.3304 -0.3377  1.0918
40922SOL     OW40757  11.695   9.833   4.015  0.0013 -0.2179 -0.4845
40922SOL    HW140758  11.741   9.787   4.085 -1.1291 -0.6578 -0.0130
40922SOL    HW240759  11.722   9.925   4.025 -0.8130 -0.1172  1.0846
40923SOL     OW40760  11.965   7.400  10.006 -0.0950  0.5982 -0.2575
40923SOL    HW140761  11.871   7.381  10.012  0.1917 -0.3880  3.9969
40923SOL    HW240762  11.974   7.489  10.042  0.6935  0.2804  0.3472
40924SOL     OW40763  13.392   8.214   7.709  0.0230 -0.0063 -0.3640
40924SOL    HW140764  13.457   8.279   7.680 -0.0928  0.7053  0.9166
40924SOL    HW240765  13.374   8.163   7.630 -0.9516  2.4036 -1.8389
40925SOL     OW40766   2.240   7.907   8.175  0.1595  0.3720  0.3139
40925SOL    HW140767   2.208   7.997   8.176 -2.5346 -0.4653 -1.0876
40925SOL    HW240768   2.303   7.903   8.246 -2.7867  2.3050  3.3220
40926SOL     OW40769   3.496  13.772   6.923  0.0414  0.1769  0.3443
40926SOL    HW140770   3.577  13.757   6.874 -0.4525  0.5179 -0.5904
40926SOL    HW240771   3.426  13.748   6.862 -0.6699  2.7792  0.0511
40927SOL     OW40772   2.690  13.854   9.728  0.5538  0.3331 -0.0266
40927SOL    HW140773   2.711  13.809   9.647  0.1838 -1.3626  0.7838
40927SOL    HW240774   2.774  13.887   9.760  0.6213  1.5754 -1.3742
40928SOL     OW40775   4.973  12.014   2.466 -0.0679  0.1977  0.0741
40928SOL    HW140776   4.972  12.083   2.400  0.4505  0.3536  0.2208
40928SOL    HW240777   4.884  11.980   2.467 -0.3009  0.7962 -0.0705
40929SOL     OW40778   7.290  14.146   6.018 -0.1556 -0.0984 -0.1738
40929SOL    HW140779   7.236  14.070   5.997  2.6864 -1.9003 -1.5515
40929SOL    HW240780   7.350  14.116   6.086  0.5877  1.1203 -0.2602
40930SOL     OW40781   9.804   1.374   4.097  0.9643 -0.4244  0.0754
40930SOL    HW140782   9.868   1.445   4.090  0.0694  0.3660 -0.3135
40930SOL    HW240783   9.800   1.355   4.191 -0.2645  1.4781  0.4670
40931SOL     OW40784  11.373   9.784   6.588  0.9658 -0.3777  0.8486
40931SOL    HW140785  11.309   9.758   6.654 -0.1243 -0.1088 -0.0822
40931SOL    HW240786  11.321   9.806   6.511  2.2476 -1.1684 -0.2860
40932SOL     OW40787   5.567   9.794   9.701 -0.0715  0.4274  0.2382
40932SOL    HW140788   5.476   9.793   9.731 -0.2573  1.0170 -0.2942
40932SOL    HW240789   5.618   9.800   9.782 -0.5516  1.4586  0.4852
40933SOL     OW40790   6.316   2.437   0.698  0.2210  0.1945 -0.9103
40933SOL    HW140791   6.388   2.424   0.637 -0.9723 -1.4210 -2.0666
40933SOL    HW240792   6.240   2.455   0.643 -0.6023  0.2234  0.1824
40934SOL     OW40793   8.881   2.762  14.032  0.4600 -0.3138 -0.1586
40934SOL    HW140794   8.913   2.840  13.986 -0.6296  1.1465  1.3943
40934SOL    HW240795   8.927   2.764  14.116 -0.4131 -0.7117  0.3364
40935SOL     OW40796  12.339   1.420   2.710 -0.1064 -0.1282  0.2774
40935SOL    HW140797  12.248   1.393   2.725 -0.1327  0.3494  0.9979
40935SOL    HW240798  12.333   1.482   2.637 -0.4950  0.6832  0.9838
40936SOL     OW40799   9.877   4.974  12.741  0.3125  0.0225  0.3370
40936SOL    HW140800   9.822   4.969  12.819 -1.3068 -0.7873 -0.7998
40936SOL    HW240801   9.851   5.055  12.698 -2.1236 -1.6632 -1.6317
40937SOL     OW40802   6.131  10.318  11.293 -0.3608 -0.0149  0.0281
40937SOL    HW140803   6.199  10.260  11.327  0.4656  1.3510  0.7532
40937SOL    HW240804   6.050  10.285  11.332  0.1239 -0.5608  0.5863
40938SOL     OW40805   3.299   1.890   0.570  0.0677  0.3305 -0.2570
40938SOL    HW140806   3.318   1.966   0.515  0.0393 -0.0862 -0.8500
40938SOL    HW240807   3.322   1.919   0.659 -2.9640  2.1734  0.0698
40939SOL     OW40808   3.262   9.767   0.285  0.6351 -0.4654  0.0654
40939SOL    HW140809   3.292   9.794   0.371  0.9081 -0.8444  0.0906
40939SOL    HW240810   3.248   9.849   0.237  1.2139 -0.2757  0.2170
40940SOL     OW40811   3.368   9.838   5.236  0.0679 -0.3829  0.1550
40940SOL    HW140812   3.309   9.904   5.271 -0.5276 -0.3345 -0.8982
40940SOL    HW240813   3.350   9.760   5.288 -0.2159 -0.0934  0.4944
40941SOL     OW40814   2.750   4.812  13.820  0.0351 -0.5875 -0.6300
40941SOL    HW140815   2.700   4.893  13.820  0.5825 -0.2448 -1.1916
40941SOL    HW240816   2.688   4.746  13.850 -0.2577  0.1196  0.3708
40942SOL     OW40817  12.600  11.676   6.201  0.3094  0.1667  0.1892
40942SOL    HW140818  12.618  11.582   6.199  0.5932  0.2213  0.1835
40942SOL    HW240819  12.614  11.706   6.112  0.2471  0.2197  0.1973
40943SOL     OW40820   8.401   0.533   5.235 -1.1198  0.5570  0.2775
40943SOL    HW140821   8.316   0.520   5.193 -1.6678 -1.5058  1.8751
40943SOL    HW240822   8.405   0.466   5.303  1.8924  0.4420  0.1272
40944SOL     OW40823  11.277   2.650  12.918  0.3262  0.1144  0.6396
40944SOL    HW140824  11.225   2.729  12.902  1.0372  0.7514  1.4098
40944SOL    HW240825  11.265   2.631  13.011  0.9325 -0.1215  0.6740
40945SOL     OW40826   9.263   8.803   3.290  0.2201  0.4435  0.2645
40945SOL    HW140827   9.316   8.851   3.354  0.9623 -0.0599  0.0400
40945SOL    HW240828   9.285   8.711   3.305  0.1768  0.3033 -0.5158
40946SOL     OW40829   7.937   6.886  11.495 -0.2046 -0.0081  0.5174
40946SOL    HW140830   8.023   6.928  11.496 -0.5444  0.7009  0.4724
40946SOL    HW240831   7.919   6.869  11.588 -1.0625  2.0701  0.8016
40947SOL     OW40832   0.558  10.692   2.970 -0.2282  0.2710 -0.7285
40947SOL    HW140833   0.547  10.598   2.984  1.1483  0.3987  1.6920
40947SOL    HW240834   0.652  10.705   2.961 -0.0248  1.7311  2.3489
40948SOL     OW40835  13.805   4.840   3.201 -0.1012  0.3679 -0.1877
40948SOL    HW140836  13.889   4.799   3.223 -0.1037  0.3370 -0.2379
40948SOL    HW240837  13.746   4.767   3.185 -0.1104  0.3905 -0.2560
40949SOL     OW40838   1.111  13.225  11.604  0.4702 -0.1565 -0.1407
40949SOL    HW140839   1.076  13.269  11.527  0.5559  2.3848  1.1561
40949SOL    HW240840   1.199  13.261  11.615 -0.0679  0.7222  1.9070
40950SOL     OW40841   0.597  11.349  12.328 -0.3616 -0.6333 -0.1465
40950SOL    HW140842   0.540  11.297  12.384  1.3173 -1.3771  0.9695
40950SOL    HW240843   0.641  11.285  12.271 -0.2418 -0.1469 -0.6108
40951SOL     OW40844   5.865   4.714   4.449  0.1157 -0.2444 -0.2265
40951SOL    HW140845   5.884   4.775   4.378  0.4133  1.6448  1.3934
40951SOL    HW240846   5.780   4.676   4.426 -0.2046  0.9798 -1.1711
40952SOL     OW40847   2.165  12.443   0.960  0.3188  0.2833 -0.2703
40952SOL    HW140848   2.112  12.449   1.040  1.4011 -0.6750  0.5519
40952SOL    HW240849   2.100  12.436   0.889 -0.6845 -1.2092  0.7310
40953SOL     OW40850   4.463  12.070   0.715  0.1522 -0.0088  0.2929
40953SOL    HW140851   4.377  12.033   0.735  0.8057 -1.8065 -0.0999
40953SOL    HW240852   4.484  12.038   0.627  0.6410  1.5613 -0.2100
40954SOL     OW40853  13.844   2.238  10.859 -0.1066 -0.0205  0.0839
40954SOL    HW140854  13.932   2.211  10.884 -0.2543 -0.3135  0.2974
40954SOL    HW240855  13.857   2.316  10.804  0.2328  0.5535  0.9531
40955SOL     OW40856   3.136   3.048   1.247  0.2529  0.3922  0.3113
40955SOL    HW140857   3.119   3.098   1.327 -0.1568  2.5833 -1.0641
40955SOL    HW240858   3.103   3.104   1.177  2.1440 -0.6835 -1.5373
40956SOL     OW40859   7.460   9.039   8.602 -0.2484 -0.2256 -0.4465
40956SOL    HW140860   7.455   9.071   8.512  0.7806  0.2212 -0.3540
40956SOL    HW240861   7.535   9.084   8.640  0.1588 -1.4205  0.2347
40957SOL     OW40862   6.796   2.761   1.013  0.3554  0.1562  0.6863
40957SOL    HW140863   6.734   2.822   0.972 -0.5953  0.7010  2.8004
40957SOL    HW240864   6.798   2.687   0.953 -2.0715  0.2951  0.2994
40958SOL     OW40865   6.519   6.572  14.005 -0.1382  0.3524  0.4406
40958SOL    HW140866   6.528   6.667  14.009  0.8953  0.2714  0.2705
40958SOL    HW240867   6.441   6.558  13.951 -1.3469  1.1071  1.9094
40959SOL     OW40868   0.295  13.289   5.446 -0.5244 -0.3593 -0.5150
40959SOL    HW140869   0.248  13.303   5.364  0.5558  2.2640 -0.7886
40959SOL    HW240870   0.226  13.280   5.512 -1.3978 -1.9022 -1.5985
40960SOL     OW40871   7.270  12.807   4.127 -0.1192 -0.0663  0.6337
40960SOL    HW140872   7.313  12.792   4.211  1.0367 -0.4718 -0.0073
40960SOL    HW240873   7.182  12.835   4.150 -0.0774 -0.9453  1.9690
40961SOL     OW40874   0.626   5.975   9.460 -0.3624  0.1908  0.6673
40961SOL    HW140875   0.569   5.904   9.430  0.8327 -1.6793  2.5630
40961SOL    HW240876   0.692   5.932   9.514  0.4641  2.7741  1.8819
40962SOL     OW40877   0.347   1.529  10.189  0.3077 -0.3550  0.0935
40962SOL    HW140878   0.408   1.485  10.130 -1.3862 -2.5953 -0.1222
40962SOL    HW240879   0.265   1.533  10.140 -0.5071 -0.1160  1.4186
40963SOL     OW40880   2.905  10.258   1.614 -0.2950 -0.5668 -0.5237
40963SOL    HW140881   2.934  10.310   1.689  0.8525  2.0729 -2.6512
40963SOL    HW240882   2.938  10.170   1.632  0.8260  0.1989  1.5668
40964SOL     OW40883   1.322   7.225  13.278  0.0796 -0.4626 -0.4517
40964SOL    HW140884   1.336   7.241  13.184 -1.3297 -0.4209 -0.6805
40964SOL    HW240885   1.263   7.149  13.280  0.7577 -0.9795  0.4323
40965SOL     OW40886  13.554   1.281   1.550 -0.2074  0.1041  0.1494
40965SOL    HW140887  13.560   1.368   1.511  0.4126 -0.7491 -1.7814
40965SOL    HW240888  13.610   1.285   1.628 -1.1810  1.7545  0.8093
40966SOL     OW40889  11.340  12.899   6.274 -0.0086 -0.0705 -0.2432
40966SOL    HW140890  11.401  12.872   6.206  0.9284  0.1745  0.4842
40966SOL    HW240891  11.261  12.848   6.256  0.7703 -1.2128 -0.5583
40967SOL     OW40892   4.589   4.284   4.243 -0.3557 -0.1379 -0.3283
40967SOL    HW140893   4.570   4.343   4.171  0.0206  0.5144  0.0998
40967SOL    HW240894   4.562   4.198   4.211 -1.3502  0.3275 -0.7792
40968SOL     OW40895   4.499   3.368   3.884  0.3306 -0.1200  0.2213
40968SOL    HW140896   4.489   3.410   3.969 -1.1273  0.1645 -0.0599
40968SOL    HW240897   4.588   3.332   3.884  0.3952  0.0107  1.7935
40969SOL     OW40898   7.101   4.038   5.234  0.6291 -0.1365 -0.1649
40969SOL    HW140899   7.142   3.958   5.202  1.0302 -0.2204  0.5328
40969SOL    HW240900   7.018   4.010   5.271 -0.6088  0.1671 -2.5233
40970SOL     OW40901   4.772   8.824   3.001  0.6479  0.7668  0.5810
40970SOL    HW140902   4.702   8.890   2.994  0.2199  0.2084 -0.7805
40970SOL    HW240903   4.748   8.771   3.077  0.0340  1.0833  0.6173
40971SOL     OW40904  10.006   9.234   7.137 -0.1935  0.5125 -0.2544
40971SOL    HW140905   9.971   9.232   7.226 -1.7248  0.8168 -0.8240
40971SOL    HW240906   9.950   9.296   7.090  0.6118  0.3927 -1.4326
40972SOL     OW40907   0.424   8.161   9.289 -0.6563 -0.2538 -0.0359
40972SOL    HW140908   0.407   8.091   9.353 -1.8130  0.3140  0.3073
40972SOL    HW240909   0.460   8.115   9.213 -0.2875 -1.0791  0.6124
40973SOL     OW40910   7.610   3.661  10.865 -0.0755 -0.3861 -0.3971
40973SOL    HW140911   7.609   3.642  10.959  0.1936 -1.0370 -0.5243
40973SOL    HW240912   7.683   3.722  10.854 -0.6328  0.3613 -0.0639
40974SOL     OW40913   2.431   2.443  14.133  0.2916  0.2023 -0.1195
40974SOL    HW140914   2.416   2.537  14.146  1.3562  0.6766 -1.9273
40974SOL    HW240915   2.496   2.420  14.199 -0.5508  0.5419  0.8503
40975SOL     OW40916  12.605   8.743   0.031  0.4181  0.1018  0.7011
40975SOL    HW140917  12.579   8.835   0.037  1.1195  0.2430  1.7142
40975SOL    HW240918  12.663   8.740  -0.045 -0.1448  0.3506  0.2487
40976SOL     OW40919  10.045   9.748   2.673 -0.1742 -0.4584  0.1038
40976SOL    HW140920   9.986   9.678   2.699 -1.2546  1.0926  2.1531
40976SOL    HW240921  10.112   9.751   2.742  0.3403 -0.0003 -0.3975
40977SOL     OW40922  12.995  10.598   3.705 -0.2457  0.4200  0.1369
40977SOL    HW140923  12.938  10.618   3.631 -0.8217 -1.2734  0.0826
40977SOL    HW240924  12.936  10.599   3.781 -0.3561 -1.1649  0.1017
40978SOL     OW40925   8.681   1.373   5.884  0.0176  0.1853 -0.1067
40978SOL    HW140926   8.593   1.337   5.897  0.5664 -0.8038  1.0536
40978SOL    HW240927   8.733   1.336   5.955  1.4571  0.4903 -0.9606
40979SOL     OW40928   3.455   1.864  11.745  0.0160 -0.6452 -0.1484
40979SOL    HW140929   3.365   1.849  11.717 -0.6658  3.1475 -0.4898
40979SOL    HW240930   3.508   1.822  11.677 -1.5679  0.1961 -2.0204
40980SOL     OW40931  14.102   6.056  13.510 -0.4423 -0.2649 -0.2135
40980SOL    HW140932  14.064   6.113  13.443 -0.4482 -0.6956 -0.5825
40980SOL    HW240933  14.134   5.980  13.462 -0.2140 -0.4638  0.2432
40981SOL     OW40934   6.216  11.553   3.494 -0.1974  0.4926  0.3420
40981SOL    HW140935   6.252  11.481   3.443  1.4776  1.0950  0.6223
40981SOL    HW240936   6.121  11.542   3.488  0.0181 -1.5316  0.1043
40982SOL     OW40937   0.862  12.040  13.626 -0.0160 -0.0300 -0.3220
40982SOL    HW140938   0.830  12.105  13.689 -0.0367 -0.1319 -0.2280
40982SOL    HW240939   0.787  11.983  13.610 -0.4959  0.9385 -1.6639
40983SOL     OW40940   9.731  10.207   4.258  0.1746 -0.6669 -0.3779
40983SOL    HW140941   9.637  10.189   4.261  0.2306 -0.8610  1.5771
40983SOL    HW240942   9.771  10.121   4.251  0.2340 -0.7490  0.7842
40984SOL     OW40943   8.239   2.307  14.096 -0.9518  0.3152 -0.2428
40984SOL    HW140944   8.221   2.401  14.086 -3.8307 -0.2512 -1.5155
40984SOL    HW240945   8.174   2.264  14.040 -2.0023 -2.5292  2.8156
40985SOL     OW40946   3.106   2.969   2.143 -0.1599  0.2562  0.5643
40985SOL    HW140947   3.021   3.013   2.136 -0.0372  0.5348  0.8242
40985SOL    HW240948   3.143   3.001   2.225  0.7001  1.0251 -0.0912
40986SOL     OW40949  10.731   2.814   1.465  0.1243 -0.0468  0.2667
40986SOL    HW140950  10.758   2.819   1.557  2.2688 -1.9084 -0.1781
40986SOL    HW240951  10.797   2.865   1.418 -0.6221  0.4014 -0.3201
40987SOL     OW40952  13.227  12.613   1.425 -0.4296  0.2291 -0.2470
40987SOL    HW140953  13.164  12.683   1.440  1.9373  2.1223  1.7940
40987SOL    HW240954  13.204  12.546   1.490  0.6667  1.7343  1.7918
40988SOL     OW40955   2.016   6.475   0.984  0.2235 -0.0165  0.1234
40988SOL    HW140956   2.057   6.559   0.963  0.8276  0.0523  1.4733
40988SOL    HW240957   2.011   6.429   0.900  1.1147  0.8324 -0.4159
40989SOL     OW40958   0.869  12.139   0.066 -0.4080  0.2389 -0.0409
40989SOL    HW140959   0.870  12.060   0.119 -2.5152 -0.0397 -0.3204
40989SOL    HW240960   0.922  12.202   0.114 -0.7940 -0.5621  1.4706
40990SOL     OW40961   2.066   8.087  12.488  0.4217  0.2463  0.2397
40990SOL    HW140962   2.101   8.121  12.405  2.1724 -1.6460  0.1217
40990SOL    HW240963   2.144   8.072  12.542 -0.5608 -0.1852  1.6024
40991SOL     OW40964   7.971   4.290  13.563  0.1590 -0.4417 -0.0329
40991SOL    HW140965   8.025   4.365  13.587  1.0643 -1.1847  0.3332
40991SOL    HW240966   8.018   4.214  13.598 -1.2654 -1.1073  0.5291
40992SOL     OW40967   1.459   6.074   0.208  0.0181 -0.6420  0.5849
40992SOL    HW140968   1.523   6.050   0.275 -0.4201 -1.6107  0.6731
40992SOL    HW240969   1.512   6.106   0.135  0.5872 -1.0593  0.8019
40993SOL     OW40970  10.246   7.169   5.148  0.4469 -0.4963  0.7757
40993SOL    HW140971  10.267   7.262   5.156 -0.0338 -0.3624  0.5361
40993SOL    HW240972  10.201   7.162   5.063 -0.6691 -0.7277  1.3645
40994SOL     OW40973  10.071   3.449  12.447 -0.1721 -0.0183  0.2351
40994SOL    HW140974  10.109   3.536  12.433  1.3694 -0.8021 -0.7589
40994SOL    HW240975   9.978   3.461  12.432 -0.7131  2.3049  4.1991
40995SOL     OW40976   0.724   1.374  12.827 -0.1683  0.3399  0.0323
40995SOL    HW140977   0.642   1.408  12.861 -1.7334 -2.2230 -0.8410
40995SOL    HW240978   0.700   1.333  12.744  1.6839 -1.7741  0.4374
40996SOL     OW40979  13.399   1.930   5.550  0.4126  0.2674 -0.0763
40996SOL    HW140980  13.426   1.970   5.633  0.4599  2.6435 -1.1648
40996SOL    HW240981  13.474   1.943   5.491  0.0175 -0.5212 -0.7701
40997SOL     OW40982   4.966  10.817   6.198 -0.0340 -0.2862  0.3561
40997SOL    HW140983   5.058  10.843   6.193 -0.0236 -0.3235  0.3539
40997SOL    HW240984   4.967  10.724   6.176 -0.3143  0.1340 -1.5913
40998SOL     OW40985  13.163   2.341   1.550 -0.1119 -0.3124 -0.0726
40998SOL    HW140986  13.089   2.401   1.551 -0.4050 -0.3426 -4.1355
40998SOL    HW240987  13.222   2.374   1.618 -1.3678  3.1004 -0.4604
40999SOL     OW40988  10.494   5.251  13.582  0.2304  0.1984  0.1448
40999SOL    HW140989  10.446   5.194  13.522 -0.0629  0.3960  0.1863
40999SOL    HW240990  10.585   5.223  13.575  0.3898  0.9645 -1.2716
41000SOL     OW40991  13.823   5.925   3.394 -0.2870  0.1968 -0.0610
41000SOL    HW140992  13.728   5.915   3.387 -0.1524 -1.2981 -0.2149
41000SOL    HW240993  13.836   5.969   3.478 -1.1667  1.9888 -0.8239
41001SOL     OW40994  10.134   2.387  10.425 -0.5208 -0.4804 -0.1757
41001SOL    HW140995  10.139   2.472  10.469 -2.6526 -1.5921  2.5153
41001SOL    HW240996  10.040   2.375  10.407 -0.7586 -3.3643  2.1406
41002SOL     OW40997   6.948   2.553  11.949  0.2928 -0.2394  0.2033
41002SOL    HW140998   7.011   2.604  12.001  0.2860 -0.1228  0.0967
41002SOL    HW240999   6.995   2.473  11.927  0.5837  0.0631 -0.3047
41003SOL     OW41000   7.561   3.664  13.680 -0.1599  0.1221 -0.5563
41003SOL    HW141001   7.590   3.713  13.756 -1.7052 -0.4914  0.4815
41003SOL    HW241002   7.518   3.586  13.716 -2.0866  0.4393 -1.9579
41004SOL     OW41003   9.510  11.498  10.312  0.4148 -0.6091  0.2674
41004SOL    HW141004   9.585  11.441  10.326 -0.0469 -1.7777 -1.6411
41004SOL    HW241005   9.434  11.439  10.311 -0.2606  0.2392 -0.0959
41005SOL     OW41006   9.477  13.178  14.157  0.1318  0.0855 -0.5599
41005SOL    HW141007   9.512  13.149  14.072 -1.7634 -0.7477 -1.1121
41005SOL    HW241008   9.411  13.243  14.135  0.6920  1.0090  0.3968
41006SOL     OW41009  11.796   5.898   5.833  0.1007  0.7055  0.1137
41006SOL    HW141010  11.754   5.812   5.839 -0.6023  0.8827 -1.8832
41006SOL    HW241011  11.725   5.961   5.842  0.3023  1.0474 -0.6665
41007SOL     OW41012   9.833   3.689  13.833  0.0888 -0.3322  0.2998
41007SOL    HW141013   9.771   3.679  13.905 -1.2650  0.3463 -0.7077
41007SOL    HW241014   9.918   3.698  13.875  0.0346 -4.3146  1.6856
41008SOL     OW41015   6.972   3.039  11.223 -0.5335  0.0325 -0.2610
41008SOL    HW141016   7.043   3.101  11.242 -0.2669 -0.0749 -0.8788
41008SOL    HW241017   6.939   3.013  11.309 -0.0048  0.2964  0.0248
41009SOL     OW41018   9.047   1.860   9.973  0.3326  0.5531  0.6943
41009SOL    HW141019   9.140   1.869   9.952  0.2068 -0.5582 -0.4470
41009SOL    HW241020   9.039   1.896  10.062  2.1676 -0.9161  1.5223
41010SOL     OW41021  13.523   3.424   6.792  0.3005  0.0210 -0.0161
41010SOL    HW141022  13.444   3.396   6.748 -0.7878  0.7305  1.3969
41010SOL    HW241023  13.595   3.388   6.740 -0.8656  1.3010 -2.6620
41011SOL     OW41024   0.892   9.929  13.688  0.0019 -0.5216 -0.6301
41011SOL    HW141025   0.924   9.931  13.778 -1.6311  1.1496 -0.0226
41011SOL    HW241026   0.814   9.984  13.689  0.7663  0.7737 -3.4023
41012SOL     OW41027  13.414  13.458  11.064  0.0983  0.2633 -0.2611
41012SOL    HW141028  13.475  13.521  11.102 -0.2182  1.4306 -1.6259
41012SOL    HW241029  13.329  13.480  11.103  0.1501  0.0634 -0.0319
41013SOL     OW41030  11.356   9.084   1.462 -0.3598 -0.4934 -0.3041
41013SOL    HW141031  11.279   9.121   1.504  0.9197 -0.0657  1.7982
41013SOL    HW241032  11.394   9.025   1.527  1.1232 -0.6637 -1.2602
41014SOL     OW41033   0.495   8.107   1.745  0.5566 -0.3490 -0.4932
41014SOL    HW141034   0.531   8.086   1.659  3.8136 -1.0461  0.9176
41014SOL    HW241035   0.488   8.023   1.789  1.3008  0.2311  0.7729
41015SOL     OW41036   9.764  12.378   2.771  0.3349  0.0748 -0.0952
41015SOL    HW141037   9.758  12.455   2.715  3.4073 -0.5731 -1.5578
41015SOL    HW241038   9.794  12.413   2.855  0.4963  0.6132 -0.3688
41016SOL     OW41039   3.028  13.996  12.152  0.1358  0.2006 -0.2520
41016SOL    HW141040   3.065  14.024  12.236  0.1097  3.1690 -1.1357
41016SOL    HW241041   3.089  13.930  12.120  1.0694  0.2543  1.3158
41017SOL     OW41042  12.263   4.819  10.494  0.2565  0.1217  0.4537
41017SOL    HW141043  12.287   4.727  10.506  0.6218  0.2058  0.3922
41017SOL    HW241044  12.311   4.866  10.562  0.3189  0.3015  0.2885
41018SOL     OW41045   4.471   0.163   8.716  0.3530 -0.3973 -0.1675
41018SOL    HW141046   4.515   0.246   8.732  1.1771 -0.9147  0.3136
41018SOL    HW241047   4.378   0.186   8.709  0.6065  0.6020 -0.3807
41019SOL     OW41048   1.692   9.281   6.362 -0.3321  0.3672  1.0837
41019SOL    HW141049   1.698   9.344   6.434  1.6545  0.3494  0.9905
41019SOL    HW241050   1.704   9.195   6.404  1.0229  0.3704  0.7447
41020SOL     OW41051   9.818   3.572   8.695 -0.2346 -0.3558  0.1057
41020SOL    HW141052   9.848   3.496   8.645  1.7375  0.2913  0.2192
41020SOL    HW241053   9.866   3.646   8.658 -2.3457  0.9438 -0.2123
41021SOL     OW41054   7.973   4.866   4.150  0.1860 -0.4469 -0.3588
41021SOL    HW141055   8.045   4.924   4.176 -1.0709  0.5623  0.9784
41021SOL    HW241056   7.956   4.888   4.059 -0.5852  1.6780  0.2559
41022SOL     OW41057   0.897   2.331  11.241  0.9341 -0.2762  0.5366
41022SOL    HW141058   0.880   2.309  11.333 -0.0170  0.0538  0.4509
41022SOL    HW241059   0.942   2.416  11.245 -0.5427  0.5346  0.6601
41023SOL     OW41060   7.348  11.239   5.882 -0.2843 -0.2029  0.1740
41023SOL    HW141061   7.293  11.254   5.959 -0.2304  1.3285 -0.0489
41023SOL    HW241062   7.412  11.310   5.884 -0.6214  0.2015 -1.5700
41024SOL     OW41063   0.877  13.309  12.605 -0.0658  0.2061 -0.7096
41024SOL    HW141064   0.787  13.342  12.599 -1.3021 -3.0028 -2.2953
41024SOL    HW241065   0.876  13.252  12.682 -0.0746 -1.4004 -1.8331
41025SOL     OW41066   2.632   0.017  14.066 -0.8761  0.1738 -1.3130
41025SOL    HW141067   2.656  -0.047  14.133 -3.1454  2.2262  1.7077
41025SOL    HW241068   2.550  -0.015  14.029 -0.9338  0.3054 -1.2996
41026SOL     OW41069   1.801   6.124  13.656  0.0936 -0.2577  0.2124
41026SOL    HW141070   1.727   6.093  13.604  1.8273 -0.4596 -2.3098
41026SOL    HW241071   1.854   6.176  13.596  1.2118  1.2736  2.3533
41027SOL     OW41072  14.082   7.596  12.596 -0.0845  0.1151  0.3660
41027SOL    HW141073  13.994   7.590  12.559 -0.1589  0.6202  0.4509
41027SOL    HW241074  14.072   7.655  12.671  0.0437 -0.9422  1.2512
41028SOL     OW41075  13.614   2.330   0.203  0.0031 -0.7093 -0.4009
41028SOL    HW141076  13.600   2.247   0.249  0.2692  0.2284  1.4385
41028SOL    HW241077  13.699   2.361   0.234 -0.6517  0.8609 -0.0691
41029SOL     OW41078   1.620   6.944   8.032 -0.1356  0.1544 -0.1619
41029SOL    HW141079   1.569   7.025   8.035 -0.8489 -0.2824 -0.1000
41029SOL    HW241080   1.688   6.955   8.098 -1.0062  0.2022  0.7535
41030SOL     OW41081  10.962   9.476   8.241  0.1963  0.4752  0.5389
41030SOL    HW141082  10.966   9.500   8.149 -1.8650  0.6150  0.4172
41030SOL    HW241083  10.904   9.399   8.244  0.9047 -0.0519  1.6397
41031SOL     OW41084   7.301  13.747   9.382 -0.1041  0.1603 -0.3392
41031SOL    HW141085   7.298  13.728   9.288 -0.7462  0.3181 -0.3540
41031SOL    HW241086   7.226  13.805   9.397  0.7031  1.1356  0.0502
41032SOL     OW41087   9.571   5.446   4.246 -0.9426 -0.1057 -0.6096
41032SOL    HW141088   9.652   5.476   4.287 -0.1697 -1.2219 -1.2534
41032SOL    HW241089   9.552   5.512   4.179 -0.3342 -0.0614 -0.7380
41033SOL     OW41090  10.942  11.860   1.963 -0.2538  0.3621 -0.0433
41033SOL    HW141091  10.909  11.941   2.002 -2.1702  0.8204 -2.4011
41033SOL    HW241092  11.037  11.869   1.966 -0.3850  1.6934  1.6936
41034SOL     OW41093   3.606   3.508   0.470  0.1117  0.1733  0.2659
41034SOL    HW141094   3.664   3.563   0.418 -1.7866  0.8810 -1.2252
41034SOL    HW241095   3.588   3.559   0.549  1.0255  0.1956  0.4653
41035SOL     OW41096  11.843   8.183   4.383 -0.0044 -0.0207  0.5391
41035SOL    HW141097  11.908   8.219   4.443  2.5908 -0.1949 -1.9280
41035SOL    HW241098  11.852   8.088   4.393  0.4299 -0.0503 -0.0481
41036SOL     OW41099   1.984   0.856  10.745  0.2526  0.0569  1.0752
41036SOL    HW141100   2.031   0.922  10.694 -0.8534 -0.8015 -1.1829
41036SOL    HW241101   2.028   0.856  10.830  4.2173 -0.5916 -0.7724
41037SOL     OW41102   1.273   0.467   2.356  0.0848 -0.7098  0.2753
41037SOL    HW141103   1.363   0.488   2.333  0.0697 -0.8675  0.0715
41037SOL    HW241104   1.221   0.495   2.280  0.0126 -1.0397  0.2020
41038SOL     OW41105   0.558   1.749   7.950 -0.0525 -0.3214  0.2787
41038SOL    HW141106   0.546   1.654   7.957  0.4752 -0.4846 -0.8696
41038SOL    HW241107   0.470   1.784   7.939 -0.1006 -0.8775 -1.3150
41039SOL     OW41108   9.769   2.994   9.935  0.0110 -0.1276  0.2231
41039SOL    HW141109   9.810   3.052   9.870 -0.5776  0.3249  0.2368
41039SOL    HW241110   9.682   2.976   9.898 -0.8315  1.1753  1.4513
41040SOL     OW41111   5.224   9.392   2.289 -0.3861 -0.5140 -0.2318
41040SOL    HW141112   5.222   9.385   2.194 -0.8305 -1.3269 -0.1757
41040SOL    HW241113   5.303   9.344   2.315 -0.9117 -1.3666 -0.1342
41041SOL     OW41114   0.565   5.075  10.901  0.0015 -0.3743 -0.1951
41041SOL    HW141115   0.547   5.068  10.807 -0.1128 -2.8162 -0.0484
41041SOL    HW241116   0.659   5.059  10.908  0.4494  1.9754 -0.0236
41042SOL     OW41117   9.070   6.176   1.305  0.4125 -0.3381  0.0977
41042SOL    HW141118   9.076   6.271   1.315 -0.3850  0.0044 -2.0270
41042SOL    HW241119   9.091   6.160   1.213 -0.8984 -2.0420  0.0298
41043SOL     OW41120   3.808  11.786   1.696 -0.2164  0.7741  0.6767
41043SOL    HW141121   3.860  11.864   1.676  0.4598  0.3589  0.7813
41043SOL    HW241122   3.869  11.713   1.687 -0.8985  0.2312  0.3551
41044SOL     OW41123   7.649   2.128   1.438 -0.2706  0.6134  0.1364
41044SOL    HW141124   7.573   2.078   1.469 -0.5899  0.5330 -0.7603
41044SOL    HW241125   7.693   2.069   1.377  0.7953  0.4733  1.0009
41045SOL     OW41126   6.815   7.686   5.840 -0.5258  0.0769  0.1827
41045SOL    HW141127   6.736   7.739   5.831 -0.7601 -0.2429  0.3403
41045SOL    HW241128   6.880   7.730   5.784 -0.7686  0.4254  0.1726
41046SOL     OW41129   2.557   7.417   9.534 -0.1290  0.5617  0.2377
41046SOL    HW141130   2.615   7.440   9.607  1.7105  1.4525 -1.4042
41046SOL    HW241131   2.575   7.484   9.467 -2.1505  0.1001 -0.8519
41047SOL     OW41132  10.313  11.223   8.603  0.2930  0.0682  0.3065
41047SOL    HW141133  10.355  11.291   8.656 -1.8287  1.6287  0.1026
41047SOL    HW241134  10.293  11.153   8.665  2.0466 -0.2160  0.6141
41048SOL     OW41135   8.602  11.979  12.019 -0.1576 -0.6581  0.4240
41048SOL    HW141136   8.540  11.931  12.075 -1.2923 -0.6688 -0.7910
41048SOL    HW241137   8.559  12.064  12.004  0.4617 -0.3924  0.1288
41049SOL     OW41138   2.992   7.256   2.476 -0.5535 -0.1127 -0.3195
41049SOL    HW141139   3.058   7.254   2.546  0.1391  0.5745 -0.9400
41049SOL    HW241140   2.988   7.348   2.450 -1.0836 -0.3054 -0.9327
41050SOL     OW41141   7.648   1.418   9.400  0.1503 -0.2957 -0.2633
41050SOL    HW141142   7.583   1.484   9.375  0.7942  0.1779 -0.7150
41050SOL    HW241143   7.706   1.411   9.325  0.7763 -0.5174  0.2291
41051SOL     OW41144  11.505  10.332   6.127  0.6960  0.5736  0.4319
41051SOL    HW141145  11.419  10.328   6.084  0.4200  0.2509  0.9998
41051SOL    HW241146  11.534  10.241   6.129  1.4717  0.7792 -0.5627
41052SOL     OW41147   1.081  13.070   7.407  0.2458 -0.1161 -0.2913
41052SOL    HW141148   1.129  12.996   7.446 -0.6804  0.5430  2.3333
41052SOL    HW241149   1.064  13.128   7.481 -1.0270  1.6476 -1.8916
41053SOL     OW41150   8.972  13.722   2.216 -0.2156 -0.4753 -0.3992
41053SOL    HW141151   8.969  13.758   2.304 -0.5010  1.3895 -1.1336
41053SOL    HW241152   9.051  13.668   2.215  2.2456  2.8423 -0.1824
41054SOL     OW41153   9.467  13.738   1.794  0.2076  0.0088  0.0256
41054SOL    HW141154   9.481  13.784   1.711  0.3697 -2.2062 -1.2383
41054SOL    HW241155   9.551  13.745   1.839  0.2910  0.7625 -0.2255
41055SOL     OW41156   6.963   7.929   9.333  0.3411 -0.0263  0.0739
41055SOL    HW141157   6.999   7.896   9.415  0.5268 -1.7956 -0.6867
41055SOL    HW241158   7.010   7.881   9.264 -2.2423 -1.2330 -0.9859
41056SOL     OW41159   1.202   2.202   7.269  0.5179 -0.3261  0.6908
41056SOL    HW141160   1.282   2.176   7.223 -0.8264 -2.6839 -0.5290
41056SOL    HW241161   1.168   2.120   7.306 -1.6660  0.4390  0.5297
41057SOL     OW41162   6.556  10.965  10.780  0.2715 -0.3959 -0.7584
41057SOL    HW141163   6.544  10.976  10.874  2.5218 -0.3515 -0.4200
41057SOL    HW241164   6.626  11.025  10.757 -0.6477  0.0597 -2.6207
41058SOL     OW41165   4.008  11.752  10.334  0.5454  0.4175  0.0421
41058SOL    HW141166   4.036  11.817  10.398  0.8401  1.7014 -1.3344
41058SOL    HW241167   3.921  11.724  10.365  0.7340  0.9011  1.0568
41059SOL     OW41168   4.872   3.462   4.090 -0.1816  0.2427  0.5214
41059SOL    HW141169   4.920   3.411   4.025  0.7973  0.6130  0.9374
41059SOL    HW241170   4.931   3.533   4.113  0.0527 -0.6238  2.8191
41060SOL     OW41171   5.700   2.061   7.476  0.4869 -0.1139 -0.4064
41060SOL    HW141172   5.737   2.133   7.424 -0.8383  0.4199 -0.6415
41060SOL    HW241173   5.664   2.104   7.554  1.0709 -0.7270  0.2154
41061SOL     OW41174   0.390   2.151   7.411  0.4497 -0.9540 -0.4222
41061SOL    HW141175   0.468   2.132   7.463  0.2942  0.0343  0.2043
41061SOL    HW241176   0.360   2.066   7.380  0.8191 -1.5124  0.7179
41062SOL     OW41177   9.603   9.216   0.154  0.4608 -0.1088 -0.5102
41062SOL    HW141178   9.671   9.206   0.221 -0.4986  1.1880  0.7191
41062SOL    HW241179   9.652   9.224   0.072  1.7015 -1.0093  0.0986
41063SOL     OW41180   9.729   1.237   9.640 -0.5495  0.1853 -0.7715
41063SOL    HW141181   9.762   1.174   9.576 -0.2428 -0.3180 -0.1322
41063SOL    HW241182   9.762   1.205   9.724 -1.2023  0.6613 -0.3245
41064SOL     OW41183  10.637   8.700  11.515  0.6691  1.2823  0.7992
41064SOL    HW141184  10.601   8.782  11.483 -0.3900  1.1742  1.6340
41064SOL    HW241185  10.574   8.671  11.581  1.0793 -0.1457  0.5927
41065SOL     OW41186   8.101   6.129   6.081 -0.4975  0.0281  0.2482
41065SOL    HW141187   8.076   6.189   6.010 -1.0117 -1.4228 -0.8379
41065SOL    HW241188   8.177   6.082   6.048 -1.1630 -1.1573  0.3526
41066SOL     OW41189  13.740   3.956   7.766  0.4600 -0.4043  0.7783
41066SOL    HW141190  13.671   3.964   7.700  0.9131 -1.7358  0.0939
41066SOL    HW241191  13.810   4.014   7.735  0.1257  0.0483  0.8538
41067SOL     OW41192  11.071  11.551  13.017 -0.3311 -0.1179 -0.1439
41067SOL    HW141193  11.063  11.481  12.952 -0.7482 -2.4334  2.2317
41067SOL    HW241194  11.125  11.617  12.974  0.2384 -1.9439 -2.4749
41068SOL     OW41195  13.672   5.724   2.278 -0.0277 -0.4631  0.0449
41068SOL    HW141196  13.736   5.661   2.245  0.4814 -0.8177  1.6329
41068SOL    HW241197  13.724   5.795   2.314 -0.5740  0.1364 -0.3310
41069SOL     OW41198   8.753   9.689   3.197 -0.0944 -0.4155 -0.4006
41069SOL    HW141199   8.736   9.595   3.207 -0.0693 -0.1942  2.8825
41069SOL    HW241200   8.834   9.693   3.146  0.1862 -2.1858 -0.1602
41070SOL     OW41201  11.956   5.121   0.371 -0.6127 -0.4948  0.0809
41070SOL    HW141202  11.941   5.215   0.357  1.1528 -0.2082 -0.2103
41070SOL    HW241203  11.874   5.079   0.345 -1.2119  0.9175 -0.4240
41071SOL     OW41204  10.407  11.275  14.063  0.4871  0.0785 -0.1172
41071SOL    HW141205  10.478  11.267  14.128  0.3409  0.4829  0.0939
41071SOL    HW241206  10.327  11.262  14.113  0.4508 -1.6411 -0.5709
41072SOL     OW41207   0.072   6.642   9.540 -0.6380  0.0016  0.2635
41072SOL    HW141208   0.144   6.655   9.479  1.3340  1.2322  2.6988
41072SOL    HW241209   0.017   6.720   9.529  1.3481  1.7915  2.0328
41073SOL     OW41210   7.262   7.069   6.578 -0.0129  0.7773 -0.0015
41073SOL    HW141211   7.356   7.051   6.571  0.1882  0.6240  2.2622
41073SOL    HW241212   7.226   6.988   6.616 -0.9199  1.1622 -0.0265
41074SOL     OW41213   7.647   5.506  11.340  0.5547  0.7076 -0.1764
41074SOL    HW141214   7.710   5.460  11.285 -0.6916 -0.0168 -1.0705
41074SOL    HW241215   7.700   5.560  11.399  2.0008 -0.2865 -0.5197
41075SOL     OW41216   1.752  11.737  12.446  0.0371  0.3892  0.2018
41075SOL    HW141217   1.757  11.757  12.353 -0.0981 -0.7489 -0.0627
41075SOL    HW241218   1.800  11.808  12.489  0.0704  0.9365 -0.7272
41076SOL     OW41219   5.723  12.740   5.952  0.3815 -0.1461  0.3454
41076SOL    HW141220   5.818  12.734   5.955  0.5324  1.2519 -0.5226
41076SOL    HW241221   5.694  12.704   6.035  1.7594  0.6891  1.2361
41077SOL     OW41222  13.587   0.879   2.090  0.0351  0.4650  0.4016
41077SOL    HW141223  13.572   0.845   2.178  0.0989  2.3838  1.1915
41077SOL    HW241224  13.673   0.920   2.095  1.6982 -2.3825 -1.5617
41078SOL     OW41225   4.670   9.323   5.382 -0.5417  0.3750  0.6411
41078SOL    HW141226   4.709   9.320   5.295 -0.4100 -1.4664  0.7385
41078SOL    HW241227   4.742   9.347   5.440 -0.3613  0.4052  0.4054
41079SOL     OW41228  12.363   9.268  10.543 -0.0165  0.7446 -0.1704
41079SOL    HW141229  12.413   9.317  10.608  0.6266 -0.0832 -0.0208
41079SOL    HW241230  12.294   9.224  10.593  0.1728  0.5046 -0.1182
41080SOL     OW41231  11.677  13.102  11.066 -0.4945 -0.3981 -0.4045
41080SOL    HW141232  11.651  13.090  10.975  0.1137  0.7459 -0.7491
41080SOL    HW241233  11.735  13.178  11.064 -1.2304  0.2219  1.0836
41081SOL     OW41234  11.557   1.710  13.665  0.5362  0.2007 -0.9559
41081SOL    HW141235  11.538   1.767  13.740  0.7742 -2.6630  1.4407
41081SOL    HW241236  11.509   1.750  13.593 -0.3353  2.7142  0.8576
41082SOL     OW41237   5.086   5.525  11.915  0.1084 -0.5826  0.1531
41082SOL    HW141238   5.018   5.579  11.954 -0.4245  0.1104 -1.6373
41082SOL    HW241239   5.157   5.526  11.979  0.2216  2.4483  0.1173
41083SOL     OW41240   7.427   8.487   6.765  0.4327  0.8454  0.8118
41083SOL    HW141241   7.492   8.547   6.729  1.0077 -0.1160  0.2079
41083SOL    HW241242   7.473   8.403   6.771 -0.5807  0.2860  0.9047
41084SOL     OW41243   0.838   2.464  10.300 -0.2626  0.2875  0.6296
41084SOL    HW141244   0.870   2.375  10.312  2.6295  1.5318  3.4417
41084SOL    HW241245   0.859   2.485  10.209  2.8179 -0.6320  1.0285
41085SOL     OW41246  13.268   2.141   2.428  0.6805 -0.2260 -0.3055
41085SOL    HW141247  13.187   2.169   2.472  0.1994  0.1747 -1.4153
41085SOL    HW241248  13.291   2.214   2.371  1.7335 -0.4186 -0.1334
41086SOL     OW41249   5.010  10.634   7.727  0.1795 -0.6186  0.2020
41086SOL    HW141250   5.058  10.701   7.776 -1.3307  0.6505  0.0477
41086SOL    HW241251   5.017  10.662   7.635  1.3741 -1.9150 -0.1306
41087SOL     OW41252   3.122   4.568   8.698 -0.2906 -0.4508 -0.4061
41087SOL    HW141253   3.115   4.564   8.794  1.2980 -0.0983 -0.2496
41087SOL    HW241254   3.047   4.621   8.671 -0.8455 -0.6738  0.6232
41088SOL     OW41255   5.235  11.562  12.091 -0.0368 -0.0521 -0.5955
41088SOL    HW141256   5.304  11.612  12.134 -0.3765  0.1990 -0.3349
41088SOL    HW241257   5.192  11.513  12.161  0.7578 -1.2919 -0.9523
41089SOL     OW41258  11.636  11.150   3.511  0.0994  0.7201 -0.2150
41089SOL    HW141259  11.558  11.110   3.550  0.9657 -1.0833 -0.2763
41089SOL    HW241260  11.628  11.131   3.418  0.6473  0.4933 -0.2136
41090SOL     OW41261   4.957   4.570  10.329 -0.1050  0.1257 -0.1381
41090SOL    HW141262   4.949   4.506  10.259  1.4898  2.7065 -2.9600
41090SOL    HW241263   4.876   4.562  10.379 -0.5807 -2.9749 -1.2050
41091SOL     OW41264   6.004   4.682  12.518  0.3610  0.3050 -0.3880
41091SOL    HW141265   5.961   4.605  12.480 -1.0060  1.2948 -0.9413
41091SOL    HW241266   5.960   4.757  12.477 -0.0021  1.4172  1.8394
41092SOL     OW41267  12.952   0.230   0.576  0.1538 -0.2226  0.0911
41092SOL    HW141268  12.961   0.135   0.582 -2.4543 -0.5477  0.0854
41092SOL    HW241269  12.865   0.248   0.613 -0.0791  1.9815 -1.3280
41093SOL     OW41270   5.938  11.176   8.251  0.3134 -0.2518  0.1985
41093SOL    HW141271   6.011  11.181   8.313  0.8932  2.4392 -0.5532
41093SOL    HW241272   5.978  11.142   8.171  0.5515  0.3192  0.0685
41094SOL     OW41273  11.998   8.859   6.049  0.0961 -0.6019  0.3262
41094SOL    HW141274  12.029   8.932   5.995  0.8133 -1.2097 -0.1055
41094SOL    HW241275  12.077   8.811   6.071 -0.5310 -2.4013 -1.0985
41095SOL     OW41276   3.147  12.711   7.153  0.0617 -0.2957  0.0022
41095SOL    HW141277   3.217  12.766   7.187  1.0284 -1.7161  0.3847
41095SOL    HW241278   3.106  12.674   7.231 -0.9055  0.2526 -0.2322
41096SOL     OW41279   7.919   3.920  12.079 -0.4292  0.0400  0.3937
41096SOL    HW141280   8.011   3.938  12.096  0.6347 -2.8928 -1.4027
41096SOL    HW241281   7.882   4.004  12.051  2.0519  1.0232 -0.1848
41097SOL     OW41282   9.027  11.310   3.815 -0.2043 -0.3669 -0.1367
41097SOL    HW141283   9.069  11.328   3.899  1.2373  1.7057 -1.1929
41097SOL    HW241284   9.098  11.320   3.750 -1.6834  0.2396 -1.7449
41098SOL     OW41285  14.065   3.189   6.086  0.0141  0.7586  0.0318
41098SOL    HW141286  14.130   3.255   6.112  0.5739  0.6836 -1.1025
41098SOL    HW241287  13.987   3.213   6.135  0.4668  1.7497  0.3147
41099SOL     OW41288  11.474   3.472   8.448  0.0747 -0.1335 -0.0004
41099SOL    HW141289  11.426   3.407   8.500 -1.0252 -0.3927 -1.2828
41099SOL    HW241290  11.490   3.428   8.364 -1.9563  1.6753 -1.4305
41100SOL     OW41291   5.921  10.181   6.522  1.1001 -0.3492 -0.3233
41100SOL    HW141292   5.899  10.114   6.586  1.2182 -1.9822 -1.9174
41100SOL    HW241293   5.836  10.212   6.490  1.0477  0.1898  0.3128
41101SOL     OW41294   6.337   0.941  10.096  0.3009  0.1563  0.3542
41101SOL    HW141295   6.275   0.903  10.034  1.5606 -0.2535 -0.7156
41101SOL    HW241296   6.319   0.896  10.178  0.8031 -1.8106 -0.5481
41102SOL     OW41297   5.079   9.602   3.051  0.2623 -0.5402  0.1725
41102SOL    HW141298   4.995   9.576   3.090  0.2414 -0.4296  0.2004
41102SOL    HW241299   5.131   9.521   3.052 -0.6205 -1.1923 -1.8964
41103SOL     OW41300  13.659  12.689   2.226  0.5786  0.3804 -1.2909
41103SOL    HW141301  13.754  12.694   2.212  0.6051 -1.3842 -2.0810
41103SOL    HW241302  13.643  12.597   2.250 -0.8331  0.8586 -0.2766
41104SOL     OW41303   6.249  10.496   6.665  0.0509 -0.6538 -0.1542
41104SOL    HW141304   6.343  10.503   6.682 -0.1243 -0.6095  0.8600
41104SOL    HW241305   6.237  10.535   6.578  0.8063  0.4330  0.2108
41105SOL     OW41306   1.756   6.851   7.741  0.1165 -0.0672  0.3020
41105SOL    HW141307   1.690   6.899   7.691  0.4431 -0.6858 -0.7448
41105SOL    HW241308   1.803   6.919   7.789 -1.6812  0.3345  1.6024
41106SOL     OW41309   0.614  12.619   0.513  0.0292 -0.6677 -0.3584
41106SOL    HW141310   0.642  12.571   0.435  0.7497 -0.1751 -0.4054
41106SOL    HW241311   0.658  12.575   0.585 -0.3205 -0.8694 -0.2633
41107SOL     OW41312   6.046  11.730   5.945  0.4678 -0.4918  1.1422
41107SOL    HW141313   5.988  11.681   5.887  0.4594  0.9702 -0.1224
41107SOL    HW241314   6.021  11.821   5.935  0.4761 -0.1667  3.4704
41108SOL     OW41315   6.063   0.768  10.576  0.3836 -0.0058  0.3286
41108SOL    HW141316   6.011   0.846  10.594  1.1153  0.7727 -0.8114
41108SOL    HW241317   6.001   0.696  10.583 -0.2871  0.6526  1.4925
41109SOL     OW41318  11.667  12.779   4.644  0.0881 -0.2525 -0.3174
41109SOL    HW141319  11.742  12.763   4.587  0.1148 -1.2338 -0.0132
41109SOL    HW241320  11.698  12.844   4.707  0.0215  0.9402 -1.4709
41110SOL     OW41321   0.438  11.329  13.839  0.3697 -0.0314  0.0636
41110SOL    HW141322   0.412  11.293  13.924 -2.2595 -1.0223 -1.0513
41110SOL    HW241323   0.492  11.260  13.800  1.2153  0.2398  0.7183
41111SOL     OW41324   4.998  12.543  12.399  0.0235  0.2290  0.2456
41111SOL    HW141325   5.010  12.567  12.490  0.4683 -0.4746  0.3797
41111SOL    HW241326   4.968  12.623  12.356  1.0590  0.9102  0.7582
41112SOL     OW41327   8.544   7.844   7.185  0.1729  0.4858 -0.1251
41112SOL    HW141328   8.616   7.896   7.221 -0.8347  1.8158  0.0586
41112SOL    HW241329   8.507   7.899   7.116 -0.7849 -0.0849 -0.0882
41113SOL     OW41330   2.777  11.937   7.848  0.0810 -0.0045 -0.3137
41113SOL    HW141331   2.735  11.916   7.932  1.1403 -2.4585 -0.3220
41113SOL    HW241332   2.759  11.861   7.793  0.6902  0.9132 -1.8350
41114SOL     OW41333   1.546   1.635   5.716  0.2018 -0.2716 -0.1156
41114SOL    HW141334   1.618   1.594   5.763  0.8971 -0.3920 -1.2506
41114SOL    HW241335   1.575   1.725   5.702 -0.7909  0.3067  1.2713
41115SOL     OW41336   7.091   8.683  11.601  0.1989 -0.4326 -0.6316
41115SOL    HW141337   7.093   8.692  11.697 -0.1375 -1.3403 -0.5315
41115SOL    HW241338   7.013   8.630  11.584  0.0733  0.0024 -1.4398
41116SOL     OW41339  10.363  14.138   7.071  0.5499 -0.4884 -0.3363
41116SOL    HW141340  10.344  14.094   6.988 -0.5446  0.0184 -0.3696
41116SOL    HW241341  10.449  14.103   7.098  0.7033 -0.9942 -1.4425
41117SOL     OW41342   1.701  14.026   6.592 -0.0575 -0.2910 -0.2811
41117SOL    HW141343   1.680  14.089   6.661  1.6580  0.0085  0.0030
41117SOL    HW241344   1.631  13.961   6.598 -0.9698  0.7091  0.4929
41118SOL     OW41345   4.861  13.109   9.396 -0.0165 -0.1113  0.7391
41118SOL    HW141346   4.877  13.070   9.482  0.8540 -1.4905 -0.0145
41118SOL    HW241347   4.933  13.171   9.384  0.9117 -1.2414  0.2742
41119SOL     OW41348   8.074  11.723   2.427  0.1507  0.6000 -0.0129
41119SOL    HW141349   8.127  11.785   2.478 -0.0356 -0.1307  1.1111
41119SOL    HW241350   8.126  11.706   2.349  0.4302  1.7889 -0.1090
41120SOL     OW41351   3.233   2.020  12.519  0.5018  0.3412  0.9025
41120SOL    HW141352   3.141   1.995  12.520  0.5608  0.0492  2.4722
41120SOL    HW241353   3.278   1.945  12.479 -0.0508  1.0923 -1.2403
41121SOL     OW41354   5.294   9.335  11.472  0.5184 -0.4854 -0.7753
41121SOL    HW141355   5.362   9.400  11.487  0.2371 -0.3743  0.1203
41121SOL    HW241356   5.215   9.386  11.455 -0.2888 -0.4521  2.4592
41122SOL     OW41357  11.430  13.663   4.806  0.3925 -0.1987 -0.2567
41122SOL    HW141358  11.336  13.668   4.828  0.4650  1.5011 -0.1813
41122SOL    HW241359  11.432  13.618   4.722 -0.2766 -2.3867  0.8066
41123SOL     OW41360  11.016  10.678   9.651 -0.5199  0.4742  0.2039
41123SOL    HW141361  10.999  10.592   9.689  0.2913  1.2526  2.4881
41123SOL    HW241362  11.008  10.739   9.724  2.3477  1.9495 -0.5363
41124SOL     OW41363  12.528   0.720   9.810 -0.0282  0.3188  0.5025
41124SOL    HW141364  12.491   0.759   9.731  1.5685  3.2609  1.0500
41124SOL    HW241365  12.467   0.745   9.880  1.4833  3.0051  1.0120
41125SOL     OW41366   3.700   7.986   0.145  0.3374  0.3468  0.0566
41125SOL    HW141367   3.756   7.923   0.100  0.4381  1.5316 -1.5522
41125SOL    HW241368   3.760   8.056   0.173 -0.0105  0.5479  0.3152
41126SOL     OW41369   8.323   9.783  10.950 -0.4330  0.0590  0.6952
41126SOL    HW141370   8.392   9.850  10.953 -1.5146  1.1734  2.2175
41126SOL    HW241371   8.266   9.811  10.879 -0.7677  0.6466  1.1915
41127SOL     OW41372   1.326   6.715  13.496 -0.4876 -0.5980 -0.3955
41127SOL    HW141373   1.242   6.705  13.540 -1.0371  0.2639 -1.2135
41127SOL    HW241374   1.326   6.646  13.429 -0.4604 -0.7110 -0.2799
41128SOL     OW41375  13.541  13.200   5.418  0.2641  0.2094  0.1496
41128SOL    HW141376  13.544  13.177   5.325 -1.1196 -0.7473  0.3074
41128SOL    HW241377  13.632  13.214   5.443  0.7714 -0.7956 -1.0555
41129SOL     OW41378   6.180   2.015   1.171 -0.1865 -0.3545  0.1733
41129SOL    HW141379   6.273   2.036   1.159 -0.7027  0.8154 -2.7724
41129SOL    HW241380   6.177   1.920   1.175  1.1099 -0.4200  0.1202
41130SOL     OW41381   6.242   8.947   8.928 -0.3318  0.2870  0.5045
41130SOL    HW141382   6.327   8.988   8.913  0.1145 -0.7913 -0.0799
41130SOL    HW241383   6.178   9.015   8.908  0.3958  1.1844  1.1839
41131SOL     OW41384   3.188  10.220   1.164  0.0299  0.0395 -0.3328
41131SOL    HW141385   3.168  10.246   1.254 -3.1618  0.7735 -1.1203
41131SOL    HW241386   3.207  10.126   1.170 -0.1846  0.0618  1.0922
41132SOL     OW41387   8.488  10.065   7.387  0.0488 -0.0715 -0.1055
41132SOL    HW141388   8.442  10.049   7.469  0.6529  0.3908  0.3372
41132SOL    HW241389   8.511   9.978   7.355  0.6371 -0.2269  0.7078
41133SOL     OW41390   4.903   3.956   6.228 -0.1290  0.2447  0.7486
41133SOL    HW141391   4.809   3.974   6.234 -0.7538 -1.7303 -1.3580
41133SOL    HW241392   4.938   4.030   6.177 -0.8604  0.1683  0.1213
41134SOL     OW41393  10.387  11.406   7.964 -0.2874 -0.3597  0.2249
41134SOL    HW141394  10.404  11.409   8.058  1.8958  0.4307 -0.1413
41134SOL    HW241395  10.397  11.314   7.941  0.1986 -0.4064  0.6059
41135SOL     OW41396   8.483  11.129  12.571 -0.1339 -0.9438 -0.1060
41135SOL    HW141397   8.455  11.155  12.659 -1.6687 -1.2196 -0.4792
41135SOL    HW241398   8.509  11.210  12.528  1.1850 -0.8750  0.7655
41136SOL     OW41399  13.475  12.745   2.634  0.4711 -0.1850  0.3771
41136SOL    HW141400  13.434  12.680   2.576 -0.2712  0.4585  0.1632
41136SOL    HW241401  13.562  12.759   2.596  0.1822 -0.1492 -0.2922
41137SOL     OW41402   8.892  13.013   8.612 -0.5817 -0.0751  0.5363
41137SOL    HW141403   8.900  13.077   8.682  2.4139 -0.0453  0.2776
41137SOL    HW241404   8.961  12.949   8.629 -0.0353 -0.3248 -2.0943
41138SOL     OW41405  13.383   5.411   0.001  0.3242  0.2120 -0.4126
41138SOL    HW141406  13.467   5.423   0.046  1.5749 -1.6358 -2.0954
41138SOL    HW241407  13.317   5.441   0.064  2.2875  4.0961  0.0926
41139SOL     OW41408   3.701  12.993  11.839 -0.2425 -0.0262 -0.0886
41139SOL    HW141409   3.740  12.960  11.920 -0.7377 -0.7750 -0.1432
41139SOL    HW241410   3.745  13.077  11.823 -1.4411  1.0521  1.9432
41140SOL     OW41411   7.377  10.202   9.630  0.4132 -0.0368  0.2639
41140SOL    HW141412   7.455  10.161   9.593  1.7113  2.5014 -0.0324
41140SOL    HW241413   7.304  10.160   9.584  1.6594 -1.4077 -0.5644
41141SOL     OW41414   2.215  11.120   2.021  0.5661  0.1123 -0.2397
41141SOL    HW141415   2.189  11.036   2.057 -1.4327  0.4571 -0.7950
41141SOL    HW241416   2.219  11.106   1.926  1.4969  0.3323 -0.2477
41142SOL     OW41417   2.322  13.659  10.428  0.2939 -0.1681  0.3900
41142SOL    HW141418   2.357  13.659  10.517  1.1342  0.0373  0.0705
41142SOL    HW241419   2.227  13.657  10.439  0.3767  0.6362  1.2909
41143SOL     OW41420   0.560   3.984   2.905 -0.2668  0.2415 -0.2591
41143SOL    HW141421   0.473   3.964   2.942 -0.3087 -0.2560 -0.6195
41143SOL    HW241422   0.549   4.070   2.865  0.0151  1.2222  1.6315
41144SOL     OW41423  14.089  13.420   5.607 -0.0464  0.2625 -0.5446
41144SOL    HW141424  14.146  13.491   5.578  1.2185 -0.8058 -0.7906
41144SOL    HW241425  14.146  13.343   5.607 -0.8546 -0.3927  1.6515
41145SOL     OW41426   3.235   8.821   3.424  0.0762 -0.6214  0.1922
41145SOL    HW141427   3.193   8.760   3.363 -0.1112  1.3859 -1.8071
41145SOL    HW241428   3.287   8.879   3.368 -0.9019  1.9686  1.7664
41146SOL     OW41429   0.739  11.988  12.309  0.5932 -0.4511  0.1025
41146SOL    HW141430   0.658  11.985  12.359  1.2864  1.3072  1.4342
41146SOL    HW241431   0.724  12.054  12.242  0.9363 -0.0715  0.3942
41147SOL     OW41432  10.641   0.798  10.324  0.5748 -0.1606  0.3906
41147SOL    HW141433  10.657   0.810  10.230  0.9605  0.5212  0.5380
41147SOL    HW241434  10.561   0.746  10.328  0.2440  0.2729 -0.3146
41148SOL     OW41435  11.741  10.307   1.257 -0.1263 -0.4240 -0.5482
41148SOL    HW141436  11.764  10.312   1.164  0.3643 -2.3838 -0.5886
41148SOL    HW241437  11.663  10.362   1.266  0.1235  0.2236 -1.9934
41149SOL     OW41438  11.025   5.940   0.765  0.2057  0.0188 -0.1754
41149SOL    HW141439  10.936   5.918   0.793 -0.0193  0.5661 -0.4379
41149SOL    HW241440  11.055   5.862   0.717 -0.7261  0.3930 -1.4316
41150SOL     OW41441  11.520   4.941   6.071  0.0816  0.0872 -0.7354
41150SOL    HW141442  11.598   4.989   6.044  1.7840 -2.4949 -0.7820
41150SOL    HW241443  11.545   4.902   6.155 -0.6459 -1.8207 -1.3609
41151SOL     OW41444  13.154   5.064   5.860  0.6512 -0.1489  0.0546
41151SOL    HW141445  13.143   5.158   5.871 -0.7355 -0.0873 -1.4886
41151SOL    HW241446  13.198   5.054   5.775  0.6756 -0.8980  0.1436
41152SOL     OW41447   8.339  13.411   9.342  0.1902 -0.1609  0.1457
41152SOL    HW141448   8.426  13.376   9.363  0.5513  0.8043  0.2809
41152SOL    HW241449   8.324  13.383   9.251  0.8800  0.1251 -0.0641
41153SOL     OW41450   4.302   7.143  13.599  0.5121  0.0991  0.3505
41153SOL    HW141451   4.273   7.210  13.661  0.8159  1.4786 -0.9585
41153SOL    HW241452   4.301   7.062  13.650 -1.9023  0.6959  1.4145
41154SOL     OW41453  13.993   4.432   1.521 -0.1997 -0.4782 -0.2913
41154SOL    HW141454  14.001   4.488   1.598  0.1354 -1.0886  0.1270
41154SOL    HW241455  13.902   4.443   1.493 -1.2521 -2.5080  1.9771
41155SOL     OW41456  11.072  11.582   2.177 -0.6401 -0.4685 -0.0632
41155SOL    HW141457  11.139  11.548   2.119  0.4407  1.5502 -0.0517
41155SOL    HW241458  10.993  11.531   2.155  0.1995 -1.0131 -1.9648
41156SOL     OW41459  11.713  12.986   1.862  0.2653  0.1990  0.0463
41156SOL    HW141460  11.636  12.937   1.891  0.0685  0.6171  0.2406
41156SOL    HW241461  11.761  12.925   1.806  0.0499 -0.2314  0.3247
41157SOL     OW41462   0.109   9.553   4.877 -0.1809 -0.0332  0.0053
41157SOL    HW141463   0.175   9.517   4.818  2.3865 -0.4710  2.8931
41157SOL    HW241464   0.072   9.476   4.920  0.9096  0.3873  1.7874
41158SOL     OW41465   6.470  10.877   4.187 -0.5526 -0.0296  0.3262
41158SOL    HW141466   6.526  10.916   4.120  0.6402  0.0498  1.3358
41158SOL    HW241467   6.526  10.812   4.230 -0.3463  1.8096  3.0604
41159SOL     OW41468   1.734   7.452   9.741 -0.4302 -0.3803 -0.4709
41159SOL    HW141469   1.685   7.408   9.810  0.6969  1.6324  1.7322
41159SOL    HW241470   1.822   7.463   9.777 -0.4383  2.9135 -1.1675
41160SOL     OW41471   6.080  11.222  10.368 -0.5142  0.0977 -0.4994
41160SOL    HW141472   5.986  11.230  10.388 -0.5138 -0.8572 -0.0260
41160SOL    HW241473   6.093  11.128  10.356  0.5702  0.1051  0.4395
41161SOL     OW41474  11.864   2.391  10.726  0.1571 -0.3449  0.1566
41161SOL    HW141475  11.875   2.391  10.821  0.8501 -1.1356  0.0872
41161SOL    HW241476  11.919   2.463  10.695 -0.2479  0.0598  0.3660
41162SOL     OW41477   1.851   5.604   4.323 -0.7535  0.2983 -0.2869
41162SOL    HW141478   1.927   5.630   4.375 -0.4771  1.0112 -1.0313
41162SOL    HW241479   1.805   5.686   4.303  0.3033  0.3503 -2.9203
41163SOL     OW41480   7.710   2.989   7.506 -0.3867  0.0431  1.0879
41163SOL    HW141481   7.624   3.016   7.538 -0.0952  1.6529  0.5858
41163SOL    HW241482   7.753   2.950   7.582 -0.2974  2.3706  2.3318
41164SOL     OW41483   2.227   4.955  10.447  0.0305  0.2537 -0.0984
41164SOL    HW141484   2.197   4.984  10.361 -2.7618  0.3145  0.7890
41164SOL    HW241485   2.146   4.942  10.497  1.5094 -1.0274  2.1243
41165SOL     OW41486   6.410   2.059   9.530  0.9544 -0.2645 -0.4144
41165SOL    HW141487   6.397   2.152   9.512 -2.5938 -0.1533  1.8670
41165SOL    HW241488   6.487   2.057   9.587  1.0303  1.2938 -0.4088
41166SOL     OW41489   2.877   0.418  10.201  0.1294  0.1943 -0.3154
41166SOL    HW141490   2.868   0.331  10.239 -0.6936  0.2160 -0.4490
41166SOL    HW241491   2.890   0.476  10.276 -2.0986  0.3206  0.0544
41167SOL     OW41492   1.549   8.869   6.856 -0.3607  0.8337  0.2868
41167SOL    HW141493   1.544   8.963   6.836 -1.9132  0.6013 -0.6049
41167SOL    HW241494   1.545   8.826   6.771  2.8757 -0.0593  0.4641
41168SOL     OW41495   1.138   9.698  12.109  0.1390  0.0577  0.6833
41168SOL    HW141496   1.205   9.751  12.153 -0.7752  0.7536  1.2783
41168SOL    HW241497   1.084   9.762  12.064 -0.7030 -0.4132  1.0103
41169SOL     OW41498   8.082  14.003   7.135  0.1420 -0.2387 -0.1748
41169SOL    HW141499   8.133  14.084   7.134  1.9053 -1.2839  0.4145
41169SOL    HW241500   8.142  13.936   7.103 -0.3834 -1.7679  1.7982
41170SOL     OW41501   6.481   1.374   9.129  0.0103 -0.0305 -0.0702
41170SOL    HW141502   6.394   1.409   9.111 -0.5226 -0.5368  1.4248
41170SOL    HW241503   6.521   1.437   9.190  0.5146 -0.0542 -0.3659
41171SOL     OW41504   4.266   6.338   6.001  0.4625 -0.1436  0.2159
41171SOL    HW141505   4.293   6.344   5.909 -0.6900  0.3076 -0.1155
41171SOL    HW241506   4.332   6.282   6.042  1.0685 -0.2456 -0.8535
41172SOL     OW41507   5.821  12.894   9.984  0.0114  0.1239  0.0822
41172SOL    HW141508   5.855  12.977  10.018  1.0545 -0.7315  1.2131
41172SOL    HW241509   5.853  12.890   9.894  0.0135  0.9100  0.0421
41173SOL     OW41510   6.611  13.798   5.210 -0.0134  0.6075 -0.2732
41173SOL    HW141511   6.680  13.744   5.249  1.0524  1.8033 -0.4265
41173SOL    HW241512   6.606  13.875   5.266 -0.5741  0.9713 -0.8070
41174SOL     OW41513   3.534   0.685   7.635 -0.4416 -0.6715 -0.2560
41174SOL    HW141514   3.608   0.649   7.684 -0.0633 -1.1786 -1.1725
41174SOL    HW241515   3.471   0.712   7.703 -0.1145 -1.7340  0.4955
41175SOL     OW41516   0.452   0.185   4.450  0.2528  0.9981  0.0896
41175SOL    HW141517   0.359   0.196   4.469 -0.1928 -0.7954 -0.8508
41175SOL    HW241518   0.496   0.246   4.509 -1.4192  0.6250  1.8234
41176SOL     OW41519   5.964  12.632   7.074  0.4278 -0.1318 -0.1648
41176SOL    HW141520   5.990  12.655   7.163  0.7055  1.4971 -0.6283
41176SOL    HW241521   5.976  12.713   7.024 -0.7657 -0.7105 -1.4579
41177SOL     OW41522   4.245   5.784   2.671  0.0370  0.2096  0.3254
41177SOL    HW141523   4.290   5.787   2.755 -0.8017  0.9283  0.7612
41177SOL    HW241524   4.253   5.873   2.636 -0.1290  0.0673 -0.0912
41178SOL     OW41525   0.531   6.212  13.105  0.1142  0.2260 -0.0195
41178SOL    HW141526   0.471   6.139  13.090  0.0727 -0.3443  2.4491
41178SOL    HW241527   0.513   6.274  13.034 -3.1226 -0.1028  0.3984
41179SOL     OW41528  12.839   4.112   5.392 -0.4212  0.0785 -0.0626
41179SOL    HW141529  12.819   4.101   5.485  1.6738  1.4609  0.6170
41179SOL    HW241530  12.842   4.207   5.380 -1.0897 -0.0870 -1.6583
41180SOL     OW41531   7.232  13.653  10.992 -0.1834  0.1543  0.1378
41180SOL    HW141532   7.238  13.746  11.014 -1.5692  0.2081  0.3894
41180SOL    HW241533   7.193  13.612  11.069  0.4599 -0.6602  0.0496
41181SOL     OW41534  13.271   1.145  12.614 -0.1947 -0.5343 -0.6183
41181SOL    HW141535  13.185   1.108  12.597  0.3626 -1.3520 -1.8357
41181SOL    HW241536  13.297   1.109  12.699 -1.0254 -0.2946 -0.2536
41182SOL     OW41537  10.644   1.366  10.247  0.5052  0.1234 -0.0810
41182SOL    HW141538  10.554   1.335  10.237 -0.2627  1.6756  1.4956
41182SOL    HW241539  10.635   1.452  10.288  2.6792  0.8295 -0.9857
41183SOL     OW41540   2.185  11.869   6.805  0.0480  0.3575  0.0239
41183SOL    HW141541   2.126  11.871   6.730  1.3093 -0.4790 -1.0667
41183SOL    HW241542   2.223  11.957   6.808  1.1998 -0.0307 -1.4150
41184SOL     OW41543   2.043   6.580  12.896  0.1002 -0.2828 -0.0318
41184SOL    HW141544   2.094   6.531  12.960  0.1082  0.8496  0.8753
41184SOL    HW241545   2.079   6.669  12.898 -0.9611  0.1874 -0.4094
41185SOL     OW41546   2.146   2.924   2.198 -0.0305  0.1709  0.2248
41185SOL    HW141547   2.145   2.856   2.130 -2.1376  0.0478  0.3198
41185SOL    HW241548   2.111   2.880   2.276  1.6831  0.5038  1.2340
41186SOL     OW41549  10.592  13.523   2.332  0.3592  0.5937 -0.1749
41186SOL    HW141550  10.593  13.437   2.289  1.9408 -0.7741  2.2788
41186SOL    HW241551  10.505  13.558   2.315 -0.6478 -1.9130 -0.6057
41187SOL     OW41552  10.327   0.225   4.982 -0.2677 -0.2441 -0.4442
41187SOL    HW141553  10.397   0.161   4.996  0.2265 -0.2217 -2.4742
41187SOL    HW241554  10.353   0.271   4.902 -1.9618  0.6620 -0.5113
41188SOL     OW41555   1.236   0.649   4.101 -0.3699 -0.6292  0.1551
41188SOL    HW141556   1.213   0.741   4.100  0.6394 -0.2441  3.0259
41188SOL    HW241557   1.277   0.633   4.016 -2.2879  1.0336 -1.1461
41189SOL     OW41558  13.261   9.815  10.444 -0.1099  0.0667  0.4134
41189SOL    HW141559  13.260   9.889  10.504 -0.2431 -0.1484  0.6811
41189SOL    HW241560  13.169   9.804  10.418 -0.1724 -0.3167  0.7723
41190SOL     OW41561  13.926   0.253   7.219  0.3163 -0.1031  0.0627
41190SOL    HW141562  13.845   0.233   7.172 -0.9484  1.6861  1.3233
41190SOL    HW241563  13.996   0.224   7.161 -1.1119  1.8185 -2.8702
41191SOL     OW41564  12.859  13.718   9.945 -0.1148 -0.1111  0.3351
41191SOL    HW141565  12.880  13.648  10.007  1.8065 -0.2037 -0.3333
41191SOL    HW241566  12.920  13.788   9.967 -0.4003  0.4183 -0.5242
41192SOL     OW41567   2.956   7.849   5.281  0.4709  0.0571  0.0502
41192SOL    HW141568   2.866   7.842   5.250  0.0164  3.5206  0.1669
41192SOL    HW241569   2.950   7.837   5.376  0.8137 -3.4620 -0.2519
41193SOL     OW41570   6.072  12.516  13.314 -0.3384 -0.4016  0.0765
41193SOL    HW141571   6.099  12.487  13.228 -0.4785 -1.8497  0.4872
41193SOL    HW241572   6.023  12.597  13.298  1.2036  0.3628 -0.9892
41194SOL     OW41573   4.112  10.828   3.273  0.0718  0.3421 -0.0576
41194SOL    HW141574   4.127  10.830   3.179  2.3907 -1.6332  0.1568
41194SOL    HW241575   4.028  10.783   3.284  0.4861 -0.7827 -1.1958
41195SOL     OW41576   6.818   4.321   8.411  0.5584 -0.2100  0.1635
41195SOL    HW141577   6.903   4.337   8.368 -0.0166 -2.5355 -2.0850
41195SOL    HW241578   6.756   4.374   8.361  0.6502  2.1500  2.3220
41196SOL     OW41579   4.274   1.924   9.880  0.1092  0.2838 -0.3512
41196SOL    HW141580   4.202   1.952   9.936 -2.5266  0.3795 -3.5315
41196SOL    HW241581   4.241   1.847   9.834  2.3468 -0.1608 -1.3967
41197SOL     OW41582   5.619   8.610   0.825 -0.2748  0.2985 -0.2390
41197SOL    HW141583   5.566   8.553   0.771  0.0749 -0.0155 -0.2555
41197SOL    HW241584   5.612   8.573   0.913  0.8266 -0.4171 -0.4404
41198SOL     OW41585  13.218   3.111   4.455  0.3486 -0.3497  0.1432
41198SOL    HW141586  13.171   3.084   4.376  2.5010  0.7637 -1.6487
41198SOL    HW241587  13.246   3.030   4.496  1.4801 -1.0006 -1.7702
41199SOL     OW41588   5.901  11.004   4.478  0.4782  0.0661 -0.1979
41199SOL    HW141589   5.899  10.918   4.437  0.9337  0.2480 -0.6117
41199SOL    HW241590   5.994  11.022   4.490  0.3866 -0.8592  2.7595
41200SOL     OW41591   7.733   6.519  10.759 -0.3239  0.3794 -0.1557
41200SOL    HW141592   7.763   6.594  10.708 -0.6069  0.9700  0.5311
41200SOL    HW241593   7.813   6.480  10.793 -0.0495 -0.5637 -1.7455
41201SOL     OW41594  10.293   7.565   0.084 -0.2447 -0.1764 -0.0249
41201SOL    HW141595  10.250   7.640   0.042 -0.6785 -0.9197 -0.9414
41201SOL    HW241596  10.245   7.553   0.166  1.4615  2.1240  1.4386
41202SOL     OW41597   2.870   2.741   5.788  0.1273 -0.0389 -0.3064
41202SOL    HW141598   2.811   2.783   5.851  1.1130  0.4045  0.3459
41202SOL    HW241599   2.924   2.682   5.842 -0.6990 -1.5759 -1.0963
41203SOL     OW41600   3.276  13.263   0.420 -0.7171 -0.1180 -0.3686
41203SOL    HW141601   3.273  13.221   0.506 -0.7898 -0.4422 -0.5303
41203SOL    HW241602   3.198  13.318   0.418  0.1763  1.2752  0.4722
41204SOL     OW41603   6.341   3.299   8.102 -0.0438  0.0842  0.4202
41204SOL    HW141604   6.309   3.212   8.079 -0.0866 -0.5816  2.7514
41204SOL    HW241605   6.424   3.307   8.054  1.4699 -2.4932  2.3548
41205SOL     OW41606   4.351  13.161  12.931 -0.2351  0.2747 -0.1590
41205SOL    HW141607   4.340  13.094  12.999  0.2366  0.8502  0.4872
41205SOL    HW241608   4.444  13.159  12.910 -0.0437  1.3629  0.5286
41206SOL     OW41609   2.070  13.598   8.786  0.1684  0.3284 -0.7783
41206SOL    HW141610   1.994  13.540   8.793  1.2699 -0.9847  1.0940
41206SOL    HW241611   2.050  13.671   8.844 -0.3421  0.8276 -1.5636
41207SOL     OW41612   2.786  10.843  10.163 -0.5472  0.3586  0.1199
41207SOL    HW141613   2.797  10.761  10.212 -1.1804  0.2423  0.0787
41207SOL    HW241614   2.768  10.908  10.230 -2.7390 -0.0392 -0.0078
41208SOL     OW41615   8.257  11.817   5.009  0.2336 -0.4778 -0.0084
41208SOL    HW141616   8.336  11.830   5.062 -0.5214 -0.4818  1.1659
41208SOL    HW241617   8.238  11.723   5.018  1.0668 -0.8576 -1.7513
41209SOL     OW41618  11.318  12.042   9.550 -0.2643 -0.3843 -1.1404
41209SOL    HW141619  11.229  12.067   9.574  0.0861 -0.9979  0.9659
41209SOL    HW241620  11.357  12.011   9.631  1.4487 -1.4224 -2.3006
41210SOL     OW41621  11.223   0.815   6.367 -0.3450 -0.5845 -0.8723
41210SOL    HW141622  11.244   0.726   6.396  0.0413 -0.4707 -0.7906
41210SOL    HW241623  11.247   0.817   6.275 -0.0338 -0.4688 -0.7911
41211SOL     OW41624   9.261   3.993   3.218 -0.8147  0.0562 -0.4166
41211SOL    HW141625   9.213   4.064   3.259 -0.3171 -0.5357  1.2542
41211SOL    HW241626   9.351   4.003   3.249 -0.8403 -1.6139  0.3143
41212SOL     OW41627   8.073   0.768  13.343 -0.3209  0.1345 -0.4648
41212SOL    HW141628   8.167   0.784  13.350 -0.2819 -0.0943 -0.4496
41212SOL    HW241629   8.067   0.683  13.299 -0.5234  0.2409 -0.6469
41213SOL     OW41630  10.857   2.053   9.162 -0.1372  0.8762 -0.1633
41213SOL    HW141631  10.797   2.105   9.214  0.1161  0.7826  0.2201
41213SOL    HW241632  10.845   2.085   9.072 -1.3716  0.2884 -0.2238
41214SOL     OW41633   0.390   6.856   5.011  0.3141 -0.2264  0.0011
41214SOL    HW141634   0.387   6.951   5.022  1.3195 -0.2389  0.4787
41214SOL    HW241635   0.331   6.839   4.939  0.4079  0.8073 -0.3412
41215SOL     OW41636  12.177   4.789   3.640  0.4109  0.3632  0.0046
41215SOL    HW141637  12.259   4.838   3.647  0.6891 -0.0615 -0.2104
41215SOL    HW241638  12.113   4.853   3.610  0.8127  0.5464 -0.4754
41216SOL     OW41639   0.510   2.591   7.291 -0.6530 -0.3936  0.0479
41216SOL    HW141640   0.515   2.503   7.254 -1.4122 -0.6158  0.4678
41216SOL    HW241641   0.601   2.612   7.314 -0.6659 -1.7068  1.4086
41217SOL     OW41642  11.199   5.073   6.390 -0.0730 -0.4515 -0.1091
41217SOL    HW141643  11.176   5.038   6.304  0.5399  0.0617 -0.4920
41217SOL    HW241644  11.178   5.003   6.451  0.4251 -1.2037 -0.7791
41218SOL     OW41645   1.807   9.305   3.030 -0.0567  0.0476 -0.3976
41218SOL    HW141646   1.809   9.216   3.067 -1.7926 -0.5514 -1.6077
41218SOL    HW241647   1.741   9.351   3.081 -2.2729 -0.7059 -2.4007
41219SOL     OW41648   6.505   4.731   7.392  0.3921  0.0632  0.0611
41219SOL    HW141649   6.412   4.729   7.372  0.4447  1.3737 -0.4585
41219SOL    HW241650   6.541   4.794   7.329  1.5853 -0.2759  0.3893
41220SOL     OW41651  10.251   6.538  12.798  0.1083 -0.1585  0.3912
41220SOL    HW141652  10.328   6.595  12.796 -0.8407  1.1772  0.5508
41220SOL    HW241653  10.272   6.467  12.738  1.4530  0.1900  0.4120
41221SOL     OW41654   7.211   8.586   8.339  0.6134  0.4088 -0.1327
41221SOL    HW141655   7.133   8.613   8.387  0.6022 -0.1000  0.1418
41221SOL    HW241656   7.249   8.515   8.392 -0.3390 -1.3645 -1.6945
41222SOL     OW41657   3.458  11.740   7.112 -0.3133  0.2495 -0.0221
41222SOL    HW141658   3.418  11.786   7.185 -1.0450  1.2754 -1.0412
41222SOL    HW241659   3.431  11.649   7.123 -3.6581  0.9626 -1.0427
41223SOL     OW41660  11.578  10.457   7.118 -0.1926  0.1206  0.4142
41223SOL    HW141661  11.608  10.366   7.115  2.0777  0.8472 -1.7041
41223SOL    HW241662  11.502  10.459   7.059 -0.2151 -0.3976  0.4230
41224SOL     OW41663   5.887   8.368   9.250  0.4436  0.2788 -0.0799
41224SOL    HW141664   5.882   8.310   9.174  2.2496  2.9232 -2.4071
41224SOL    HW241665   5.951   8.326   9.308  0.1880 -1.0161 -0.6943
41225SOL     OW41666   4.025   7.212  12.665 -0.0525  0.0803  0.4679
41225SOL    HW141667   3.990   7.299  12.684 -0.1781  0.2264 -0.3887
41225SOL    HW241668   3.991   7.191  12.578 -2.0330 -1.8600  1.5935
41226SOL     OW41669   3.075  13.349   2.179  0.3665 -0.6508  0.1852
41226SOL    HW141670   3.152  13.312   2.221  0.8706  1.8005  1.5925
41226SOL    HW241671   3.107  13.425   2.131 -1.1935  0.9985  1.5649
41227SOL     OW41672  11.382   9.947   8.061 -0.5023 -0.3140  0.0260
41227SOL    HW141673  11.329   9.869   8.048  1.0744 -1.0563 -2.9061
41227SOL    HW241674  11.451   9.920   8.121 -0.4521 -0.9442 -0.3099
41228SOL     OW41675   4.388   6.382   8.395  0.1841  0.5924 -0.0020
41228SOL    HW141676   4.480   6.402   8.413  0.3337 -0.5782  0.6677
41228SOL    HW241677   4.340   6.434   8.459  0.4787  0.0558  0.6786
41229SOL     OW41678   9.420   5.937   5.814  0.2089 -0.2241 -0.2092
41229SOL    HW141679   9.329   5.932   5.783  0.2772  0.5407 -0.5568
41229SOL    HW241680   9.424   6.020   5.862  0.9381  0.1834 -0.9393
41230SOL     OW41681   2.936   3.122   0.951 -0.3855 -0.4574  0.2221
41230SOL    HW141682   3.023   3.161   0.943  0.0742 -1.5724 -0.4813
41230SOL    HW241683   2.877   3.197   0.961  0.5554  0.3622 -0.1948
41231SOL     OW41684   1.362   4.015   4.119  0.1543 -0.1028  0.1671
41231SOL    HW141685   1.438   3.957   4.113 -0.1630 -0.5068 -0.0525
41231SOL    HW241686   1.310   3.979   4.191  0.7768  0.9120  1.1485
41232SOL     OW41687   5.562   2.878   0.307 -0.4225 -0.1183 -0.1314
41232SOL    HW141688   5.583   2.897   0.215 -1.1916 -0.0149 -0.2884
41232SOL    HW241689   5.622   2.934   0.357  1.3135 -1.5102 -0.5184
41233SOL     OW41690   7.363   0.342  10.122  0.1457 -0.0535  0.2801
41233SOL    HW141691   7.436   0.403  10.113  1.1157 -0.9932  1.3971
41233SOL    HW241692   7.354   0.302  10.036  0.3558  0.7027 -0.1010
41234SOL     OW41693   1.276   8.379   0.083 -0.5935  0.7463  0.2046
41234SOL    HW141694   1.198   8.353   0.034 -0.1687 -1.6164  0.6256
41234SOL    HW241695   1.242   8.419   0.163 -1.3771  0.6088 -0.0477
41235SOL     OW41696   1.033   4.091   8.935  0.4640 -0.3573 -0.3838
41235SOL    HW141697   1.017   4.169   8.988  0.5587  0.1172 -1.0473
41235SOL    HW241698   1.000   4.019   8.988 -0.6729  0.2509 -0.2529
41236SOL     OW41699  10.922   0.856   0.368  0.4111 -0.4620 -0.1435
41236SOL    HW141700  11.012   0.841   0.397  1.0415  0.1559 -1.6606
41236SOL    HW241701  10.888   0.920   0.430  0.5981 -1.5890  1.1572
41237SOL     OW41702  10.380   8.484   5.326 -0.3497 -0.2990  0.8803
41237SOL    HW141703  10.338   8.554   5.276  0.0221 -0.5146  0.2427
41237SOL    HW241704  10.458   8.462   5.275 -0.6398 -1.4182  0.8790
41238SOL     OW41705   9.059  10.516   1.297 -0.2349  0.0276  0.0420
41238SOL    HW141706   9.057  10.513   1.202  1.6749  1.2028 -0.0983
41238SOL    HW241707   9.037  10.607   1.319 -0.4372 -0.1739  0.6983
41239SOL     OW41708   0.305   0.734   1.651 -0.3367  0.4639  0.1773
41239SOL    HW141709   0.296   0.827   1.672 -0.1458  0.3848  0.6127
41239SOL    HW241710   0.256   0.723   1.569 -1.4069  0.7076  0.7596
41240SOL     OW41711  14.042   7.292  10.043  0.0548 -0.2094 -0.4466
41240SOL    HW141712  14.084   7.302   9.958  1.1992 -1.0268 -0.0070
41240SOL    HW241713  14.058   7.200  10.067 -1.0571 -0.2494  0.2392
41241SOL     OW41714   1.385   7.045   6.582  0.4150  0.1013  0.4296
41241SOL    HW141715   1.405   7.067   6.491  1.0101 -1.1809  0.2406
41241SOL    HW241716   1.389   7.129   6.628  0.7005  0.6759 -0.6165
41242SOL     OW41717   0.415  10.938   3.008 -0.2249 -0.1246 -0.2223
41242SOL    HW141718   0.323  10.911   2.999 -0.2457 -0.2603  0.3733
41242SOL    HW241719   0.465  10.860   2.982 -0.2700  0.1049 -1.0233
41243SOL     OW41720   8.636  11.221   7.138 -0.0346 -0.4707  0.3271
41243SOL    HW141721   8.574  11.196   7.207  0.3749  0.2714  0.9835
41243SOL    HW241722   8.631  11.150   7.074 -1.6943 -0.3289  0.2663
41244SOL     OW41723   0.310   1.717   0.214 -0.5245  0.3069  0.3241
41244SOL    HW141724   0.310   1.779   0.141  0.7692  0.2769  0.2767
41244SOL    HW241725   0.218   1.693   0.224 -1.2382  2.9736  0.9903
41245SOL     OW41726  10.846   8.219  12.153 -0.3457  0.5893  0.2697
41245SOL    HW141727  10.862   8.312  12.166  2.4949  0.3883 -1.1467
41245SOL    HW241728  10.888   8.177  12.228  1.4265  0.3194 -0.8302
41246SOL     OW41729  10.354   8.991  12.228 -0.3478  0.1423  0.0120
41246SOL    HW141730  10.405   8.917  12.195  1.1600  1.6011 -1.0608
41246SOL    HW241731  10.419   9.055  12.256 -1.5462  2.0669 -1.3649
41247SOL     OW41732  12.012  13.736   2.902 -0.0078  0.2759  0.4478
41247SOL    HW141733  12.032  13.660   2.848  0.4053 -0.5949  1.7804
41247SOL    HW241734  12.002  13.808   2.840 -0.1704 -0.8140 -0.8179
41248SOL     OW41735  13.152   4.396   4.608  0.1950  0.3069 -0.3423
41248SOL    HW141736  13.081   4.401   4.672  0.4642 -0.0157 -0.0163
41248SOL    HW241737  13.157   4.485   4.571 -0.9190  0.1403 -0.9670
41249SOL     OW41738  12.953   7.890  12.368 -0.2376  0.3732 -0.0161
41249SOL    HW141739  12.861   7.883  12.345 -0.2513  0.1266  0.1186
41249SOL    HW241740  12.959   7.855  12.457 -0.2901  1.8872  0.6198
41250SOL     OW41741   5.821  11.816   0.524  0.1619  0.3223  0.0150
41250SOL    HW141742   5.873  11.835   0.446 -0.3627  1.7894 -0.0080
41250SOL    HW241743   5.764  11.743   0.497 -1.0573  1.7427 -1.5200
41251SOL     OW41744  11.499   8.457   6.326 -0.0467 -0.4602 -0.1739
41251SOL    HW141745  11.469   8.546   6.308 -1.2959 -0.5770  1.1251
41251SOL    HW241746  11.594   8.460   6.310 -0.1632  0.9256 -0.7489
41252SOL     OW41747   2.136   8.267   0.616 -0.5232 -0.1098  0.0897
41252SOL    HW141748   2.133   8.353   0.659  0.1055 -0.7264  1.4352
41252SOL    HW241749   2.202   8.277   0.548  1.4944 -0.2111  1.9294
41253SOL     OW41750   6.405   6.348   9.960  0.1621  0.1843 -0.2276
41253SOL    HW141751   6.348   6.405  10.012  1.1592  1.3121 -0.3356
41253SOL    HW241752   6.344   6.295   9.908 -0.8009  1.3258 -0.3077
41254SOL     OW41753  13.245   4.066   6.447 -0.4525 -0.1194 -0.1809
41254SOL    HW141754  13.229   3.995   6.385 -3.0254 -0.0099  0.2111
41254SOL    HW241755  13.180   4.133   6.424  0.4530  1.1518  0.8279
41255SOL     OW41756   2.639  13.201   4.224  0.0373 -0.6056 -0.3353
41255SOL    HW141757   2.717  13.153   4.194  1.1970  0.5853  0.6429
41255SOL    HW241758   2.595  13.139   4.282  0.8039 -0.9548 -0.1080
41256SOL     OW41759   4.148  11.481   3.395 -0.3202 -0.4396  0.3636
41256SOL    HW141760   4.091  11.518   3.462 -0.3420  0.4366 -0.1281
41256SOL    HW241761   4.101  11.496   3.313 -0.1048 -1.1339  0.0977
41257SOL     OW41762  11.490   0.829   1.369 -0.0528  0.1317 -0.3063
41257SOL    HW141763  11.531   0.766   1.429  1.0652  1.7185  0.6862
41257SOL    HW241764  11.515   0.799   1.282  0.6296 -0.6962  0.1548
41258SOL     OW41765   9.126   6.520   3.905  0.7175  0.0354  0.1448
41258SOL    HW141766   9.109   6.590   3.968 -2.2171 -3.0274  3.1671
41258SOL    HW241767   9.051   6.522   3.846  0.8673 -0.3152 -0.0616
41259SOL     OW41768  12.505  10.086   0.751  0.2229 -0.7495 -0.9173
41259SOL    HW141769  12.549  10.090   0.667 -0.8959 -1.7162 -1.5828
41259SOL    HW241770  12.416  10.118   0.733  0.0054 -0.8678 -0.0943
41260SOL     OW41771   9.386   1.768   5.509 -0.3503  0.3939 -0.1493
41260SOL    HW141772   9.358   1.694   5.454 -0.4156  1.5685 -1.7653
41260SOL    HW241773   9.314   1.781   5.570 -2.6000  2.0382 -2.8999
41261SOL     OW41774   2.523   9.663   8.073  0.7795 -0.2377 -0.2250
41261SOL    HW141775   2.612   9.687   8.046  0.9758 -0.8992 -0.1823
41261SOL    HW241776   2.485   9.745   8.105  1.8090 -0.1992  0.9662
41262SOL     OW41777   1.091   4.705   7.764  0.3236  0.4844 -1.0280
41262SOL    HW141778   1.081   4.610   7.761  0.5860  0.4557 -0.9769
41262SOL    HW241779   1.053   4.736   7.682 -2.1434  0.5471  0.0422
41263SOL     OW41780   2.806   1.613  12.218  0.0356 -0.0791  0.1258
41263SOL    HW141781   2.817   1.594  12.125 -0.7870  0.7615 -0.1587
41263SOL    HW241782   2.805   1.527  12.260 -1.3232 -0.5714 -0.8526
41264SOL     OW41783   2.738  11.788   9.059 -0.1877  0.0470  0.0006
41264SOL    HW141784   2.667  11.745   9.011  0.4160 -0.1097 -0.7791
41264SOL    HW241785   2.746  11.738   9.140 -0.5555 -0.3129 -0.1779
41265SOL     OW41786   0.142   9.555   1.087  0.3772 -0.0960  0.5825
41265SOL    HW141787   0.185   9.469   1.081  1.2583  0.3616  0.2461
41265SOL    HW241788   0.062   9.537   1.137  0.6494 -1.0762  0.7041
41266SOL     OW41789   5.355   2.273   5.833  0.1843  0.2194  0.0302
41266SOL    HW141790   5.379   2.361   5.804  2.2854 -0.8475 -1.8084
41266SOL    HW241791   5.360   2.276   5.928 -0.9468  2.3348  0.0868
41267SOL     OW41792   7.414   8.941   2.190  0.2847  0.1195 -0.1550
41267SOL    HW141793   7.329   8.914   2.156  0.3029 -0.0265 -0.0853
41267SOL    HW241794   7.475   8.875   2.156  0.7486  1.4860 -2.1582
41268SOL     OW41795  10.917   5.563  11.086 -1.3141  0.9058  0.5557
41268SOL    HW141796  11.003   5.601  11.072 -1.3526  0.7354 -0.1919
41268SOL    HW241797  10.882   5.550  10.998 -1.2819 -0.8987  0.7768
41269SOL     OW41798  11.264  13.579   5.530  0.1814 -0.0030  0.0904
41269SOL    HW141799  11.198  13.522   5.490  0.9199  0.0204 -1.2098
41269SOL    HW241800  11.242  13.579   5.623 -0.3289 -1.7601  0.0156
41270SOL     OW41801   4.524   4.531  13.276  0.0748 -0.0367 -0.0261
41270SOL    HW141802   4.556   4.506  13.189 -0.5873 -1.4461  0.1156
41270SOL    HW241803   4.443   4.482  13.287  0.4762 -0.3754  1.6446
41271SOL     OW41804   3.382   7.744   8.363  0.0650 -0.1615  0.3496
41271SOL    HW141805   3.341   7.744   8.450 -1.2644 -0.0529 -0.2393
41271SOL    HW241806   3.378   7.653   8.335  0.3968 -0.1788  0.3576
41272SOL     OW41807  12.957   2.190  11.861 -0.5004 -0.4520  0.2598
41272SOL    HW141808  12.989   2.276  11.833 -1.3651 -0.3542 -0.4418
41272SOL    HW241809  13.035   2.134  11.859 -0.1710  0.0154 -0.4770
41273SOL     OW41810  10.964   3.411   6.407 -0.1501 -0.4263  0.0174
41273SOL    HW141811  10.989   3.503   6.403 -2.6587  0.3839  1.4010
41273SOL    HW241812  10.914   3.402   6.487  2.9893 -3.8755  1.9309
41274SOL     OW41813   4.244   2.548   5.582  0.1405  0.2439 -0.1501
41274SOL    HW141814   4.218   2.456   5.579  0.3742  0.1350  0.8829
41274SOL    HW241815   4.178   2.594   5.530 -0.5522 -0.3759  0.1726
41275SOL     OW41816   8.180   7.811   3.177  0.1406  0.2009 -0.0772
41275SOL    HW141817   8.197   7.877   3.244 -0.0895  1.2869 -1.0513
41275SOL    HW241818   8.179   7.860   3.095  0.9771 -1.1762 -0.9569
41276SOL     OW41819   9.997   0.997  14.106 -0.4628  0.0390 -0.3352
41276SOL    HW141820   9.914   1.031  14.138 -0.0863  0.6957 -0.0309
41276SOL    HW241821  10.054   1.074  14.100 -0.0846 -0.2938 -1.2058
41277SOL     OW41822  13.255   2.762   2.807 -0.9562  0.2576  0.3788
41277SOL    HW141823  13.180   2.770   2.866 -0.8804  0.7978  0.4007
41277SOL    HW241824  13.280   2.852   2.785 -1.1352  0.0651 -0.6747
41278SOL     OW41825  10.329   3.143   8.947  0.1488  0.1922 -0.2086
41278SOL    HW141826  10.312   3.155   9.040  2.1137 -0.3964  0.2749
41278SOL    HW241827  10.414   3.098   8.943  0.2098  0.3686 -2.2871
41279SOL     OW41828   9.213  13.510   7.799  0.7693  0.4822  0.1809
41279SOL    HW141829   9.146  13.577   7.802  1.5384  1.2725  0.1835
41279SOL    HW241830   9.169  13.430   7.826 -0.1267  1.0170  0.3247
41280SOL     OW41831   5.382  13.670   7.704 -0.1838  0.1090 -0.1977
41280SOL    HW141832   5.315  13.657   7.636 -2.0374  0.6458  1.4246
41280SOL    HW241833   5.389  13.584   7.746  0.6401 -0.1044 -0.7347
41281SOL     OW41834  13.304   8.306   2.215  0.3825 -0.0249 -0.5301
41281SOL    HW141835  13.354   8.387   2.227 -3.4363  2.4241  0.7975
41281SOL    HW241836  13.300   8.295   2.120 -0.3567  2.4014 -0.8674
41282SOL     OW41837   6.266   1.177  11.707 -0.2182  0.5678 -1.1905
41282SOL    HW141838   6.346   1.172  11.656  0.8110  0.5242  0.3406
41282SOL    HW241839   6.289   1.136  11.791 -2.2020 -0.5443 -1.1226
41283SOL     OW41840  12.599   2.222   0.930  0.6145 -0.3761  0.2893
41283SOL    HW141841  12.569   2.134   0.953 -2.4454  1.2677  3.5686
41283SOL    HW241842  12.583   2.230   0.836 -1.3601 -2.5255  0.3585
41284SOL     OW41843   1.688  10.842   1.591  0.2677 -0.3238 -0.3997
41284SOL    HW141844   1.606  10.890   1.576  0.2450 -0.2356 -0.0234
41284SOL    HW241845   1.688  10.773   1.525 -1.2992 -1.8398  1.0752
41285SOL     OW41846   1.051   5.368   1.858  0.2006 -0.1230 -0.6948
41285SOL    HW141847   0.994   5.440   1.885  0.6367  0.0137 -0.0941
41285SOL    HW241848   1.111   5.358   1.932  1.4671  0.2736 -1.6392
41286SOL     OW41849   9.298  12.419   8.986 -0.2254  0.1949  0.7263
41286SOL    HW141850   9.386  12.400   9.021 -0.2922 -1.8190 -0.0527
41286SOL    HW241851   9.239  12.392   9.056 -0.2509  0.4999  0.8221
41287SOL     OW41852   0.246   9.017   6.487 -0.2229  0.4678 -0.3764
41287SOL    HW141853   0.278   9.106   6.473 -0.0974  0.5676  0.4894
41287SOL    HW241854   0.303   8.962   6.434  1.6525  0.6038  1.3737
41288SOL     OW41855   0.756  11.201   5.924  0.2693  0.4863 -0.3217
41288SOL    HW141856   0.698  11.150   5.868 -0.2164 -0.1289  0.7131
41288SOL    HW241857   0.836  11.147   5.930  0.5548  0.8336 -0.8858
41289SOL     OW41858   1.165  12.061   4.890  0.2705 -0.7240  0.3331
41289SOL    HW141859   1.124  12.147   4.903  0.7649 -0.2314 -1.0908
41289SOL    HW241860   1.240  12.061   4.949 -0.5647 -0.8001  1.4374
41290SOL     OW41861   2.982   7.372  10.573 -0.1791 -0.1409  0.5210
41290SOL    HW141862   3.029   7.291  10.555 -1.7493 -1.0548  0.3702
41290SOL    HW241863   3.011   7.398  10.660  0.9348 -0.4036  0.2509
41291SOL     OW41864   9.289   9.043   0.532 -0.0970 -0.1105 -0.4898
41291SOL    HW141865   9.196   9.023   0.541 -0.1729  0.3828 -0.1301
41291SOL    HW241866   9.334   8.980   0.589 -0.1632 -0.7235 -1.1025
41292SOL     OW41867   2.919   0.128   0.235  0.3539 -0.2191  0.3843
41292SOL    HW141868   2.935   0.034   0.244 -1.2493 -0.6645 -0.9222
41292SOL    HW241869   2.990   0.170   0.285  0.4777 -2.1198  1.8941
41293SOL     OW41870  13.402   4.490   5.586  0.7671 -0.7380  0.4048
41293SOL    HW141871  13.431   4.424   5.649 -1.2105 -2.7286 -0.6163
41293SOL    HW241872  13.453   4.472   5.507  1.9015  0.5452  0.8061
41294SOL     OW41873   9.815   8.295  13.543 -0.2978 -0.1501 -0.4845
41294SOL    HW141874   9.758   8.354  13.493 -0.4088  0.5861  0.4820
41294SOL    HW241875   9.891   8.283  13.487 -1.2573 -0.9323 -1.6789
41295SOL     OW41876   9.843   2.309   8.653 -0.1756 -0.3870 -0.5928
41295SOL    HW141877   9.848   2.403   8.667 -1.5783 -0.5140  1.0240
41295SOL    HW241878   9.922   2.275   8.696  0.9145  0.0998 -2.1313
41296SOL     OW41879  12.896   6.467   0.638 -0.1121 -0.3628  0.1792
41296SOL    HW141880  12.908   6.402   0.569 -1.8531 -0.8235  0.2480
41296SOL    HW241881  12.974   6.522   0.634  0.7267 -1.5777 -0.8369
41297SOL     OW41882   8.575  13.668  12.474 -0.1739 -0.2272  0.5133
41297SOL    HW141883   8.597  13.577  12.455  0.9484 -0.2732  1.8775
41297SOL    HW241884   8.517  13.694  12.403  0.1023 -1.7694 -0.3142
41298SOL     OW41885   8.782  12.939   3.376 -0.3936  0.1157 -0.5231
41298SOL    HW141886   8.822  13.023   3.352 -0.2109  0.2442  0.1961
41298SOL    HW241887   8.854  12.888   3.414 -0.7458  0.0777  0.1133
41299SOL     OW41888  11.143  10.384  11.265 -0.0604 -0.7384  0.4083
41299SOL    HW141889  11.231  10.398  11.301 -0.4260 -0.0707  1.0847
41299SOL    HW241890  11.155  10.319  11.196  1.1794  0.3227 -0.4122
41300SOL     OW41891   7.283  12.872  14.093 -0.2903  0.4483  0.0476
41300SOL    HW141892   7.291  12.842  14.003  0.5319  0.3369  0.1539
41300SOL    HW241893   7.202  12.924  14.094  0.5030  1.7614 -1.1052
41301SOL     OW41894   6.828   0.288  13.873  0.0533  0.3202 -0.1278
41301SOL    HW141895   6.822   0.196  13.847 -0.2166  0.1014  0.6653
41301SOL    HW241896   6.918   0.313  13.854  0.7010 -0.6828  1.4473
41302SOL     OW41897   3.035   6.385   7.409 -0.1625 -0.6416 -0.5589
41302SOL    HW141898   3.045   6.296   7.443 -1.2714  0.0256  1.6820
41302SOL    HW241899   2.990   6.432   7.478  1.6864  2.0890 -1.0625
41303SOL     OW41900  10.331  11.442  10.183 -0.1142  0.4990 -0.3430
41303SOL    HW141901  10.238  11.426  10.197  0.4468 -1.7892  1.2599
41303SOL    HW241902  10.347  11.414  10.093 -0.6617 -0.8928 -0.0287
41304SOL     OW41903   5.112  13.059  11.135 -0.0918 -0.2025  0.6439
41304SOL    HW141904   5.190  13.024  11.093 -1.6579 -2.6911 -0.4194
41304SOL    HW241905   5.102  13.006  11.214 -0.6696  0.1435  0.8096
41305SOL     OW41906   3.700   6.541  11.634 -0.1948  0.2123  0.6488
41305SOL    HW141907   3.694   6.484  11.711  0.0838 -0.0296  0.4891
41305SOL    HW241908   3.632   6.510  11.575  0.8849 -0.8843 -0.0549
41306SOL     OW41909   8.185  11.453  12.114  0.4645 -0.7416 -0.0661
41306SOL    HW141910   8.245  11.474  12.186 -0.2934 -0.1162  0.4039
41306SOL    HW241911   8.147  11.369  12.139  1.5846 -1.4567 -0.6748
41307SOL     OW41912   4.899   0.419  11.023  0.1305  0.1459  0.3602
41307SOL    HW141913   4.965   0.349  11.028  0.6443  0.5679 -0.3932
41307SOL    HW241914   4.825   0.378  10.978  0.5999  0.2014 -0.4855
41308SOL     OW41915   1.987   8.753   0.027 -0.0437 -0.1701 -0.2341
41308SOL    HW141916   2.051   8.798  -0.028  0.1491 -1.0762 -0.7719
41308SOL    HW241917   1.904   8.763  -0.019 -1.2971  4.4633  2.3178
41309SOL     OW41918   5.035  13.722   6.936 -0.3050 -0.2634 -0.1628
41309SOL    HW141919   5.044  13.790   7.003  0.2298  0.5127 -1.0097
41309SOL    HW241920   5.031  13.640   6.986  1.3138  0.1888  0.7648
41310SOL     OW41921  12.757  10.912   4.791  0.1690  0.1227  0.7170
41310SOL    HW141922  12.730  10.852   4.722  1.2500  0.5630 -0.1230
41310SOL    HW241923  12.829  10.961   4.753  1.1519  0.0132  2.3474
41311SOL     OW41924  10.677  13.205   6.251  0.1395  0.0556 -0.4222
41311SOL    HW141925  10.675  13.279   6.313  0.1958  1.4674 -2.0233
41311SOL    HW241926  10.644  13.131   6.301  1.2372  0.8731  1.6243
41312SOL     OW41927   0.908   6.325   6.341  0.0400  0.0001  0.0036
41312SOL    HW141928   0.945   6.413   6.332  1.0972 -0.5901 -2.3341
41312SOL    HW241929   0.813   6.339   6.344  0.2306  1.2581  0.7566
41313SOL     OW41930   4.027  10.346   0.861  0.2588 -0.1137 -0.4995
41313SOL    HW141931   4.009  10.278   0.797 -0.4976 -0.9921  0.5951
41313SOL    HW241932   4.117  10.372   0.845  0.7685 -1.8148 -0.5494
41314SOL     OW41933   6.172   2.413   0.380  0.7614  0.1449 -0.0952
41314SOL    HW141934   6.196   2.377   0.295  0.1800 -0.4028 -0.0397
41314SOL    HW241935   6.082   2.382   0.395 -0.8319  3.7758 -1.2019
41315SOL     OW41936   8.461   8.496  12.797  0.0984 -0.1276 -0.1228
41315SOL    HW141937   8.429   8.463  12.713 -0.8169 -1.0791  0.5791
41315SOL    HW241938   8.534   8.438  12.819  0.7841  0.5423 -0.5612
41316SOL     OW41939   9.330  12.863  11.790 -0.3614 -1.0101  0.4995
41316SOL    HW141940   9.399  12.819  11.840  0.0946 -0.9142 -0.0356
41316SOL    HW241941   9.346  12.957  11.804 -0.0801 -0.9772 -0.0227
41317SOL     OW41942  13.889  11.485   8.270  0.1476 -0.3072  0.0304
41317SOL    HW141943  13.800  11.468   8.239 -0.3249  0.3854  0.9758
41317SOL    HW241944  13.881  11.562   8.325  1.1891 -0.7394  0.8210
41318SOL     OW41945   9.082   1.122  12.775  0.0517 -0.8794 -0.2582
41318SOL    HW141946   9.096   1.050  12.835  1.2835 -0.2646  0.2214
41318SOL    HW241947   9.088   1.201  12.829  1.7155 -0.2871 -1.2390
41319SOL     OW41948  12.101   5.901   2.796  0.0636 -0.0650  0.8685
41319SOL    HW141949  12.081   5.831   2.858  1.2270 -1.0238  0.2226
41319SOL    HW241950  12.118   5.978   2.851  2.4014 -1.1996  1.9064
41320SOL     OW41951   2.491   0.061   5.624 -0.0149  0.1902 -0.1100
41320SOL    HW141952   2.488  -0.011   5.686 -0.2612  0.0137 -0.3236
41320SOL    HW241953   2.494   0.140   5.678  2.5418 -0.0085  0.1675
41321SOL     OW41954   5.816   1.003   1.851 -0.3318 -0.0782 -0.3514
41321SOL    HW141955   5.880   0.934   1.836 -2.2956 -2.3578  1.1455
41321SOL    HW241956   5.861   1.083   1.825  2.6322 -1.6965 -0.6044
41322SOL     OW41957   4.854   9.826   1.850 -0.3221 -0.6366 -0.7459
41322SOL    HW141958   4.790   9.846   1.918  1.3294  1.2931  0.3872
41322SOL    HW241959   4.804   9.828   1.768 -1.9155 -0.4393  0.1899
41323SOL     OW41960   8.385  13.530  10.125 -0.1493 -0.0080 -0.0763
41323SOL    HW141961   8.458  13.576  10.084 -0.2449 -0.0197 -0.2597
41323SOL    HW241962   8.427  13.466  10.183 -0.0147  0.0525 -0.1065
41324SOL     OW41963   2.268  11.188   7.944 -0.1998 -0.7048  0.4587
41324SOL    HW141964   2.223  11.235   7.874  0.1710 -1.6577 -0.4487
41324SOL    HW241965   2.209  11.193   8.019 -0.7443  0.0770 -0.0130
41325SOL     OW41966  11.058  11.774   0.205 -0.3998  0.3452  0.2018
41325SOL    HW141967  11.016  11.857   0.229 -1.9622 -0.3658  0.0392
41325SOL    HW241968  11.116  11.755   0.278 -1.6825  0.5113  1.3137
41326SOL     OW41969  13.481   6.564  13.563  0.3921  0.0875 -0.2764
41326SOL    HW141970  13.517   6.476  13.548  1.0783  0.4955 -1.1108
41326SOL    HW241971  13.386   6.553  13.553  0.4918 -0.5075 -0.6236
41327SOL     OW41972   4.929   8.229  13.822 -0.1598  0.3461  0.4914
41327SOL    HW141973   4.928   8.181  13.904  4.1173 -1.6982 -0.3600
41327SOL    HW241974   4.962   8.316  13.845  0.0327  0.1170  1.0811
41328SOL     OW41975   3.159   1.638  13.292  0.1343 -0.7437 -0.0809
41328SOL    HW141976   3.226   1.604  13.233  2.0305  0.5536  1.2296
41328SOL    HW241977   3.113   1.704  13.239  0.2993 -1.1883 -0.8005
41329SOL     OW41978  10.871   8.620   3.344  0.1032  0.0741  0.0512
41329SOL    HW141979  10.874   8.641   3.251  1.8175  0.5344  0.1763
41329SOL    HW241980  10.877   8.524   3.347  1.5036  0.1349 -0.2949
41330SOL     OW41981  11.488   9.045  11.209  0.0096  0.0406  0.2145
41330SOL    HW141982  11.479   9.054  11.304 -1.3745  0.9657  0.0270
41330SOL    HW241983  11.471   8.952  11.193 -1.6754  0.2156  0.7335
41331SOL     OW41984  11.553   5.188   5.871  0.1669 -0.3290  0.0149
41331SOL    HW141985  11.558   5.160   5.780 -1.4275  0.1304 -0.2588
41331SOL    HW241986  11.640   5.171   5.907  1.0272  0.0872 -1.7574
41332SOL     OW41987  11.019  10.771   4.415  0.1944 -0.9469  0.1309
41332SOL    HW141988  11.012  10.760   4.510  3.8242 -0.4634  0.6338
41332SOL    HW241989  11.054  10.688   4.384  1.4129 -0.2944 -0.3240
41333SOL     OW41990  12.136   8.773  10.469 -0.0239 -0.0348 -0.0684
41333SOL    HW141991  12.158   8.862  10.494 -0.7791  0.3397 -0.7260
41333SOL    HW241992  12.098   8.780  10.382  3.0414 -1.3617 -1.6990
41334SOL     OW41993   0.469  10.340   1.449 -0.6156  0.0858  0.1181
41334SOL    HW141994   0.554  10.305   1.477 -0.7942  0.2769  0.9227
41334SOL    HW241995   0.408  10.266   1.460 -0.7790  0.3045  0.7338
41335SOL     OW41996   4.403   3.479   2.433  0.3002  0.1861  0.6520
41335SOL    HW141997   4.439   3.401   2.475 -0.5207  0.0084  1.0448
41335SOL    HW241998   4.359   3.526   2.503  1.6003  1.5167  0.6215
41336SOL     OW41999  11.112   4.701   5.095  0.4280  0.3176 -0.0920
41336SOL    HW142000  11.195   4.731   5.132 -0.6266  0.7107  2.1365
41336SOL    HW242001  11.085   4.773   5.037  0.4080  1.4019  1.2129
41337SOL     OW42002   4.601   0.524   5.581  0.0450 -0.1646 -0.3171
41337SOL    HW142003   4.656   0.450   5.557  1.2476  0.8076 -0.6158
41337SOL    HW242004   4.512   0.488   5.582  0.5774 -1.5447 -0.6980
41338SOL     OW42005  12.693  11.494   1.973  0.3308 -0.3097 -0.8784
41338SOL    HW142006  12.785  11.517   1.991 -0.0470 -0.7405  2.0533
41338SOL    HW242007  12.650  11.499   2.058 -2.8410  1.6577 -2.4113
41339SOL     OW42008   4.234  13.767   7.206 -0.3212  0.1614  0.0674
41339SOL    HW142009   4.145  13.802   7.208 -0.4257 -0.1280  0.9675
41339SOL    HW242010   4.252  13.741   7.296  1.0171  1.0512  0.0933
41340SOL     OW42011   7.757   6.178  10.167 -0.3097 -0.4046 -0.1894
41340SOL    HW142012   7.753   6.211  10.257 -1.6694  0.2790 -0.4792
41340SOL    HW242013   7.701   6.101  10.168  1.3395 -1.6524  0.0216
41341SOL     OW42014   4.177   5.926  10.574 -0.6932  0.7248 -0.4482
41341SOL    HW142015   4.088   5.943  10.545  0.1442  2.9627 -1.9370
41341SOL    HW242016   4.231   5.933  10.495  0.7642 -1.4981  0.2302
41342SOL     OW42017   2.615  13.861  13.132  0.2434 -0.1328 -0.2809
41342SOL    HW142018   2.533  13.814  13.145  0.4199 -0.4554 -0.3336
41342SOL    HW242019   2.675  13.796  13.096  0.6081  0.0282  0.0267
41343SOL     OW42020  10.040   8.412  13.069 -0.2128  0.2454 -0.0274
41343SOL    HW142021  10.103   8.452  13.129 -1.4165  2.2057  0.0122
41343SOL    HW242022  10.058   8.454  12.984 -1.2161  0.5769 -0.0863
41344SOL     OW42023   8.719   1.500   6.302 -0.1971 -0.5444 -0.6401
41344SOL    HW142024   8.645   1.480   6.245  1.2946 -3.4039 -1.7883
41344SOL    HW242025   8.736   1.419   6.349  3.0935 -0.5568 -1.5833
41345SOL     OW42026  10.903   8.481   1.841  0.1455 -0.2166  0.0108
41345SOL    HW142027  10.877   8.400   1.798 -0.8054  0.7286 -1.2725
41345SOL    HW242028  10.933   8.454   1.928  0.4310 -1.9907 -0.6006
41346SOL     OW42029  12.163  14.111   4.498  0.7164 -0.0960 -0.1513
41346SOL    HW142030  12.197  14.022   4.493 -1.2587 -0.8502 -1.7897
41346SOL    HW242031  12.238  14.167   4.479  2.1592 -1.3347  1.6227
41347SOL     OW42032   7.314  10.154  11.024  0.1839 -0.5895  0.2513
41347SOL    HW142033   7.327  10.066  10.990  1.2606 -0.2587 -0.2086
41347SOL    HW242034   7.291  10.206  10.948 -2.1464 -0.7596  0.7473
41348SOL     OW42035   9.892   4.520   0.091 -0.1524  0.1669  0.3129
41348SOL    HW142036   9.840   4.593   0.059 -1.5687 -0.7484  0.4165
41348SOL    HW242037   9.847   4.442   0.059 -0.4853 -0.7424  2.7153
41349SOL     OW42038   7.035   7.955   2.026  0.0496  0.3413  0.4911
41349SOL    HW142039   7.116   7.908   2.004  0.2138  0.3304  1.1123
41349SOL    HW242040   7.026   7.944   2.121 -1.0874 -0.3061  0.3245
41350SOL     OW42041  14.129   8.210   5.526 -0.2832  0.1382 -0.3273
41350SOL    HW142042  14.073   8.201   5.450 -0.6038  0.5593 -0.1446
41350SOL    HW242043  14.087   8.155   5.593  0.2306 -0.5755 -0.5742
41351SOL     OW42044   2.489  13.769   7.162  0.1945  0.1536  0.2886
41351SOL    HW142045   2.487  13.757   7.067  1.5397  1.1868  0.1039
41351SOL    HW242046   2.398  13.791   7.185 -0.2149 -0.4424 -0.7004
41352SOL     OW42047  12.644   7.848   7.948 -0.1059 -0.1310 -0.1472
41352SOL    HW142048  12.565   7.821   7.902  1.3891 -3.2405 -1.1394
41352SOL    HW242049  12.705   7.873   7.879  0.9431 -1.2742  0.3384
41353SOL     OW42050   0.223   2.839  10.331  0.6223 -0.5771  0.1746
41353SOL    HW142051   0.315   2.835  10.305  0.5629  1.7981 -0.6714
41353SOL    HW242052   0.181   2.766  10.286  1.7651 -0.5085 -1.0396
41354SOL     OW42053   5.275   7.058   1.978 -0.4390 -0.3124  0.2265
41354SOL    HW142054   5.243   7.144   1.951  0.5087  0.2688  0.8659
41354SOL    HW242055   5.197   7.003   1.984 -1.0265  0.4452 -0.4106
41355SOL     OW42056   5.713  13.254  13.533  0.3354 -0.3037  0.0814
41355SOL    HW142057   5.693  13.204  13.613  0.1127 -0.0114  0.2128
41355SOL    HW242058   5.713  13.189  13.463 -0.7570 -0.3768  0.1287
41356SOL     OW42059  10.508   2.928   3.009  0.0851  0.2304 -0.2586
41356SOL    HW142060  10.570   2.860   3.036 -0.5722  0.1758  1.2571
41356SOL    HW242061  10.560   2.989   2.958  0.2937 -2.3227 -3.3653
41357SOL     OW42062   5.768   8.663   0.600  0.6347 -0.1976  0.1602
41357SOL    HW142063   5.743   8.635   0.689  1.8862 -0.5873  0.4153
41357SOL    HW242064   5.793   8.582   0.556 -2.2935 -0.3649 -1.3981
41358SOL     OW42065   0.898  13.128   4.368 -0.3810  0.5957  0.1934
41358SOL    HW142066   0.867  13.177   4.292  3.4706  2.5705 -0.3512
41358SOL    HW242067   0.942  13.051   4.331 -0.2620  0.4816  0.5614
41359SOL     OW42068   3.006  12.166   4.400  0.1101 -0.3613  0.3764
41359SOL    HW142069   3.041  12.143   4.486 -1.0375 -1.5585  0.5485
41359SOL    HW242070   3.058  12.114   4.338 -0.7200 -1.4430  0.5626
41360SOL     OW42071  12.354   4.701  11.703 -0.6429 -0.1530  0.0638
41360SOL    HW142072  12.368   4.728  11.794 -0.8377 -1.4835  0.5121
41360SOL    HW242073  12.419   4.633  11.687  0.3271  1.0355 -1.2714
41361SOL     OW42074  10.280   8.775   7.174 -0.1985 -0.2499  0.1364
41361SOL    HW142075  10.194   8.817   7.175  0.0290  0.2149  0.4478
41361SOL    HW242076  10.337   8.835   7.223  0.1211 -0.9313  0.6247
41362SOL     OW42077  10.960  13.552   6.983  0.4865  0.2560 -0.7195
41362SOL    HW142078  11.045  13.594   6.974  0.7838  0.0470  0.7672
41362SOL    HW242079  10.968  13.498   7.062 -0.0554 -2.1826 -2.2175
41363SOL     OW42080  11.066  10.681   6.643 -0.0138  0.2993  0.4575
41363SOL    HW142081  11.095  10.748   6.581 -2.0226  2.1780  1.4124
41363SOL    HW242082  11.033  10.610   6.588  1.4255  0.3864 -0.5789
41364SOL     OW42083  12.836  14.108   7.967 -0.0751  0.2300  0.6888
41364SOL    HW142084  12.900  14.078   7.903 -0.7219  0.3652 -0.0347
41364SOL    HW242085  12.839  14.043   8.038  0.6644  0.0991  0.5402
41365SOL     OW42086   4.017  10.243  10.418  0.0146 -0.3072  0.5663
41365SOL    HW142087   4.091  10.248  10.357 -0.6171  0.4110 -0.1693
41365SOL    HW242088   3.962  10.318  10.395 -0.0979  0.1538  2.2393
41366SOL     OW42089   0.923   6.026   1.284 -0.4040  0.0471  0.0054
41366SOL    HW142090   0.846   5.970   1.284  1.4766 -2.7840 -0.1796
41366SOL    HW242091   0.960   6.015   1.196 -0.3496  2.2675 -0.3050
41367SOL     OW42092  10.350   6.214   0.644 -0.2087 -0.0411 -0.3529
41367SOL    HW142093  10.289   6.174   0.581 -0.3619  2.2874 -1.8237
41367SOL    HW242094  10.348   6.307   0.622  1.2615  0.5826  1.8810
41368SOL     OW42095  10.484  10.940  10.361  0.5207 -0.6061  0.3179
41368SOL    HW142096  10.438  10.867  10.320  1.6239 -0.5088 -1.2073
41368SOL    HW242097  10.457  11.017  10.311  1.7400 -0.4513 -0.1497
41369SOL     OW42098  12.768   1.843  11.581 -0.0714  0.4425  0.2462
41369SOL    HW142099  12.732   1.858  11.669 -0.3760  1.2039 -0.0016
41369SOL    HW242100  12.838   1.779  11.595 -1.4511 -1.0111  0.7516
41370SOL     OW42101   6.149   0.807   9.958  0.3241 -0.9270  0.6208
41370SOL    HW142102   6.148   0.719   9.921  0.2722 -0.9996  0.7921
41370SOL    HW242103   6.063   0.843   9.936  1.0897 -0.1336 -1.2924
41371SOL     OW42104  13.958  11.062   5.332  0.2134 -0.3864 -0.3408
41371SOL    HW142105  13.969  10.983   5.279 -0.6566 -0.3010 -0.6645
41371SOL    HW242106  14.033  11.062   5.391  0.1594 -1.5210 -0.2540
41372SOL     OW42107   0.231   9.642   0.810 -0.2497  0.0468  0.2303
41372SOL    HW142108   0.289   9.625   0.884  0.2140 -1.0331 -0.3570
41372SOL    HW242109   0.283   9.616   0.733 -1.2081 -0.1410 -0.3690
41373SOL     OW42110   2.092   7.167  11.671  0.2681 -0.7639  0.1689
41373SOL    HW142111   2.018   7.199  11.723 -0.1281  0.5243 -1.1214
41373SOL    HW242112   2.168   7.183  11.726 -0.1002  0.9175  0.2482
41374SOL     OW42113   0.884  10.496  10.536  0.6526  0.1595  0.2360
41374SOL    HW142114   0.949  10.517  10.469  1.5688 -0.0808  1.0266
41374SOL    HW242115   0.871  10.401  10.527 -0.1555  0.3217 -0.4058
41375SOL     OW42116   1.559  12.146  13.683  0.2636  0.3265 -0.2930
41375SOL    HW142117   1.479  12.116  13.726  0.5634 -0.0701 -0.0048
41375SOL    HW242118   1.588  12.220  13.736  1.6810 -1.3369  1.3802
41376SOL     OW42119   4.885  12.536   0.828 -0.9667  0.4005 -0.5511
41376SOL    HW142120   4.889  12.619   0.874  0.0022  0.5631 -0.9068
41376SOL    HW242121   4.976  12.509   0.818 -1.2350 -0.3809 -1.0230
41377SOL     OW42122   7.822   4.431   2.291  0.2733 -0.6629  0.4781
41377SOL    HW142123   7.861   4.428   2.204  2.2589  2.7337  1.0841
41377SOL    HW242124   7.740   4.480   2.278 -0.2087 -1.4783  0.3434
41378SOL     OW42125   9.819   8.413   3.015 -0.1210 -0.5429 -0.7237
41378SOL    HW142126   9.877   8.486   2.996 -0.2182 -0.4237 -0.5611
41378SOL    HW242127   9.868   8.335   2.988 -0.3080 -0.3686 -1.5798
41379SOL     OW42128  10.669   3.165  13.268 -0.1196 -0.0845 -0.0133
41379SOL    HW142129  10.707   3.159  13.180 -0.2546 -0.9186 -0.0290
41379SOL    HW242130  10.707   3.091  13.315 -0.0316  0.3741  0.6426
41380SOL     OW42131  14.073  14.129   1.679  0.3211  0.0029  0.5958
41380SOL    HW142132  14.146  14.190   1.689 -0.4456  1.5441 -1.9696
41380SOL    HW242133  14.045  14.142   1.588 -2.9102 -0.7572  1.3625
41381SOL     OW42134  12.764  13.285  10.386 -0.9262  0.2995 -0.4725
41381SOL    HW142135  12.851  13.324  10.384 -1.8209  2.5568  0.6600
41381SOL    HW242136  12.741  13.273  10.293 -0.3487  1.9973 -0.8754
41382SOL     OW42137  10.014  11.901  13.506  0.6273  0.2464 -0.0982
41382SOL    HW142138   9.984  11.837  13.441 -1.7629 -1.3181  2.3325
41382SOL    HW242139   9.957  11.977  13.494  1.2025  0.5845 -0.7681
41383SOL     OW42140   5.821  11.202   4.647  0.2839 -0.4999 -0.2445
41383SOL    HW142141   5.833  11.131   4.583 -0.9346 -1.1879  0.2603
41383SOL    HW242142   5.878  11.176   4.720  0.5459 -0.4798 -0.4388
41384SOL     OW42143   0.722   1.506   8.016 -0.3280 -0.0234  0.3356
41384SOL    HW142144   0.739   1.529   8.107 -1.1726 -3.1160  1.3950
41384SOL    HW242145   0.806   1.518   7.972  0.4053  0.3940  1.8005
41385SOL     OW42146  11.832   6.038  10.403  0.1391  0.3939  0.7057
41385SOL    HW142147  11.770   5.982  10.356 -0.5186 -0.0867  2.0912
41385SOL    HW242148  11.847   6.112  10.344 -0.4766 -0.3020 -0.3428
41386SOL     OW42149   3.509  11.799  13.666 -0.1103  0.1681 -0.2531
41386SOL    HW142150   3.456  11.741  13.720  1.6594 -0.4681  0.8604
41386SOL    HW242151   3.447  11.867  13.637 -2.2992 -2.2782 -1.7737
41387SOL     OW42152   0.089   0.307   8.648 -0.5074  0.7402 -0.1930
41387SOL    HW142153   0.016   0.312   8.710 -1.6356  1.5688 -1.5123
41387SOL    HW242154   0.078   0.222   8.605 -0.5028  0.7139 -0.1415
41388SOL     OW42155  12.411   9.962  12.284 -0.1770  0.6146  0.2573
41388SOL    HW142156  12.348   9.902  12.244 -0.0025 -1.2913  2.6195
41388SOL    HW242157  12.357  10.023  12.335 -0.2651 -1.7977  3.3265
41389SOL     OW42158   1.171   6.872  12.397  0.3260  1.2651 -0.2575
41389SOL    HW142159   1.249   6.822  12.420  0.4837  0.8412 -1.6684
41389SOL    HW242160   1.204   6.948  12.348 -0.2131  0.2072 -2.3664
41390SOL     OW42161   4.060  13.954   3.203  0.3920 -0.2571  0.6770
41390SOL    HW142162   4.025  14.043   3.211 -1.9070 -1.0330  0.0435
41390SOL    HW242163   4.010  13.902   3.266 -0.6633 -1.6774 -1.2214
41391SOL     OW42164  12.686   2.936   2.282  0.2731 -0.0340  0.2060
41391SOL    HW142165  12.755   2.877   2.250  1.5048  1.1149  0.6406
41391SOL    HW242166  12.729   2.987   2.351 -0.1243  2.8148 -1.5106
41392SOL     OW42167   5.106  13.939  11.891  0.3058  0.0046 -0.4829
41392SOL    HW142168   5.011  13.950  11.896  0.3115 -0.3035  0.5988
41392SOL    HW242169   5.130  13.906  11.978  1.4327  0.3262 -0.6687
41393SOL     OW42170   0.960   6.158   7.612  0.1823  0.0620  0.0774
41393SOL    HW142171   0.981   6.197   7.528  1.9921 -1.5124 -0.2560
41393SOL    HW242172   0.917   6.075   7.591  0.5352 -0.2880  0.6794
41394SOL     OW42173   5.474   5.786   9.733 -0.0779  0.9229 -0.1644
41394SOL    HW142174   5.480   5.710   9.790  0.5167  1.4623  0.5030
41394SOL    HW242175   5.385   5.783   9.698 -0.7703  1.0838  1.5142
41395SOL     OW42176   1.754  13.307   7.035  0.5818 -0.4233 -0.2942
41395SOL    HW142177   1.801  13.247   7.094  0.7435 -0.9034 -0.8982
41395SOL    HW242178   1.678  13.257   7.006  0.3168 -0.0623 -0.2245
41396SOL     OW42179   4.351  13.457   3.131 -0.1866 -0.4167  0.1281
41396SOL    HW142180   4.394  13.424   3.053 -0.5216  2.6154 -1.4913
41396SOL    HW242181   4.257  13.456   3.109 -0.2400  1.0481  0.1842
41397SOL     OW42182   1.365  11.960  10.250  0.1159  0.1585 -0.0123
41397SOL    HW142183   1.335  11.897  10.185  1.1836  1.3140 -1.6849
41397SOL    HW242184   1.285  11.994  10.290 -0.5647 -0.3915 -0.8814
41398SOL     OW42185  12.719   9.267   0.545 -0.1660  0.0197  0.1982
41398SOL    HW142186  12.797   9.213   0.531 -0.0519  0.1767  0.2120
41398SOL    HW242187  12.749   9.357   0.527 -0.3312  0.0866  0.2515
41399SOL     OW42188   1.905  13.142   8.338 -0.1417  0.0140  0.1084
41399SOL    HW142189   1.992  13.174   8.314  0.1774 -0.0986  1.0975
41399SOL    HW242190   1.905  13.050   8.312 -0.6042  0.4367 -1.5277
41400SOL     OW42191   3.696  12.465   6.105 -0.1977  0.5042 -0.4784
41400SOL    HW142192   3.645  12.544   6.124 -0.1699  0.7339 -1.3189
41400SOL    HW242193   3.630  12.397   6.093 -0.1963  0.2185  0.9757
41401SOL     OW42194   1.406   8.241   4.650  0.2340 -0.1218 -0.6455
41401SOL    HW142195   1.367   8.262   4.565  1.1240  0.7496 -0.8566
41401SOL    HW242196   1.358   8.296   4.712  0.5029  0.2649 -0.7765
41402SOL     OW42197  10.995   0.855   4.616  0.1345  0.0511 -0.8655
41402SOL    HW142198  10.970   0.927   4.560  0.0109 -0.3343 -1.3135
41402SOL    HW242199  10.946   0.868   4.697 -1.0723 -0.3719 -1.5095
41403SOL     OW42200   3.565  13.826   7.569  0.7702  0.7841  0.1061
41403SOL    HW142201   3.594  13.854   7.656 -1.1352  0.7820  0.7845
41403SOL    HW242202   3.516  13.900   7.534  0.4270  0.3143 -0.4275
41404SOL     OW42203   4.815   6.652  13.813  0.2802 -0.2323  0.3065
41404SOL    HW142204   4.898   6.682  13.849 -1.0937  0.5251  3.0956
41404SOL    HW242205   4.788   6.580  13.871 -0.4637 -1.2948 -1.2813
41405SOL     OW42206   1.615   2.774   5.485 -0.2496  0.2448  0.0598
41405SOL    HW142207   1.669   2.740   5.556 -1.3456 -1.7795 -0.0018
41405SOL    HW242208   1.661   2.853   5.456  2.2063 -0.8889  0.5665
41406SOL     OW42209   1.900   0.873   5.299 -0.0743 -0.2202  0.2849
41406SOL    HW142210   1.929   0.860   5.389 -0.0233  2.5321  0.7469
41406SOL    HW242211   1.968   0.832   5.246  0.9304 -0.1373  1.4661
41407SOL     OW42212   9.740  13.976   6.146 -0.0373 -0.2079 -0.4976
41407SOL    HW142213   9.814  13.916   6.147 -0.6422 -0.9737  0.0640
41407SOL    HW242214   9.770  14.051   6.095  0.1309 -1.7344 -2.7891
41408SOL     OW42215  10.359   6.297   2.197 -0.3701  0.8938 -0.4242
41408SOL    HW142216  10.403   6.371   2.155  0.4160  2.4309  2.7916
41408SOL    HW242217  10.300   6.337   2.260  0.7031 -1.1718  2.0669
41409SOL     OW42218   1.390   5.721   4.860 -0.3938 -0.4295  0.2791
41409SOL    HW142219   1.458   5.702   4.924 -1.8499 -0.6827  1.8221
41409SOL    HW242220   1.343   5.797   4.896  0.8946  1.7659 -2.2632
41410SOL     OW42221   5.731  10.887   9.080  0.3586 -0.4118  0.5164
41410SOL    HW142222   5.719  10.981   9.095  0.4351 -0.4270  0.6846
41410SOL    HW242223   5.785  10.859   9.154  1.8305 -0.2546 -0.4806
41411SOL     OW42224   3.051  12.396   0.295 -0.5903  0.2123  0.3762
41411SOL    HW142225   3.052  12.311   0.251  0.7819  0.6787 -0.5635
41411SOL    HW242226   2.988  12.385   0.365 -0.8771 -1.4056 -0.0756
41412SOL     OW42227  13.496   9.204  11.027 -0.0498  0.4424 -0.0545
41412SOL    HW142228  13.510   9.110  11.042 -0.4695  0.5856  1.5152
41412SOL    HW242229  13.419   9.224  11.081 -1.1170  1.3313 -1.8347
41413SOL     OW42230   6.605   0.059  10.482  0.6122 -0.3688  0.4164
41413SOL    HW142231   6.609   0.027  10.572  0.1444 -2.4578 -0.2372
41413SOL    HW242232   6.621  -0.019  10.428  0.1313  0.6623 -1.3154
41414SOL     OW42233   1.982  13.916   2.993  0.6568 -0.2786 -0.1644
41414SOL    HW142234   2.030  13.834   3.009  1.2251  0.4271  2.0619
41414SOL    HW242235   2.028  13.957   2.920  1.1613 -1.3292 -0.4561
41415SOL     OW42236   6.101  13.393   8.608  0.6516  0.5100 -0.8734
41415SOL    HW142237   6.057  13.426   8.530 -2.9082 -0.2927  0.5900
41415SOL    HW242238   6.113  13.300   8.590 -0.1917  0.3200 -0.5323
41416SOL     OW42239  12.736   3.962   7.175  0.0249  0.4669 -0.3665
41416SOL    HW142240  12.662   4.020   7.156  0.0104  1.0114  1.2014
41416SOL    HW242241  12.789   4.011   7.239 -0.1697 -1.3528  1.2771
41417SOL     OW42242   5.480  11.329   8.127 -0.2801  0.1388  0.2555
41417SOL    HW142243   5.500  11.238   8.150  1.2864  0.1222 -1.0219
41417SOL    HW242244   5.499  11.335   8.034 -0.7955  1.6825  0.2218
41418SOL     OW42245  11.464   3.610   7.154  0.0345  0.4084 -0.1804
41418SOL    HW142246  11.514   3.679   7.200 -0.0469 -1.0310  2.2646
41418SOL    HW242247  11.471   3.534   7.212 -1.5735 -1.0485 -1.8061
41419SOL     OW42248  13.581   1.256  12.250  0.4276  0.4407 -0.3467
41419SOL    HW142249  13.666   1.266  12.294 -0.1392 -0.1153  0.9311
41419SOL    HW242250  13.595   1.291  12.162  1.6989  1.2970  0.1704
41420SOL     OW42251  11.600  11.420   7.421 -0.8949  0.2310  0.1303
41420SOL    HW142252  11.682  11.432   7.373 -1.0235 -1.2064 -0.4980
41420SOL    HW242253  11.531  11.432   7.355 -1.1175 -0.5179  0.2173
41421SOL     OW42254   7.244   2.978   1.990 -0.0457 -0.4547 -0.1663
41421SOL    HW142255   7.295   3.056   1.968 -0.4719 -0.3762 -0.9107
41421SOL    HW242256   7.262   2.917   1.919  0.2405 -1.0267  0.3822
41422SOL     OW42257  10.219   5.039  11.181 -0.4403  0.0447  0.7396
41422SOL    HW142258  10.198   4.972  11.116  0.1255 -1.2866  1.8716
41422SOL    HW242259  10.291   5.089  11.141 -2.1900  1.3415 -0.9613
41423SOL     OW42260   0.616   1.700   7.405 -0.9056  0.1115 -0.4019
41423SOL    HW142261   0.642   1.612   7.378 -0.9842 -0.3263  0.8836
41423SOL    HW242262   0.530   1.713   7.364 -1.0823 -0.5708 -0.2559
41424SOL     OW42263   1.493  13.411   5.217 -0.2761  0.2436 -0.2641
41424SOL    HW142264   1.541  13.440   5.139 -2.4677 -0.3859 -1.9579
41424SOL    HW242265   1.552  13.348   5.259  0.9264  0.4905 -1.4853
41425SOL     OW42266  10.858   5.958   4.409 -0.0893  0.0029  0.1877
41425SOL    HW142267  10.777   5.958   4.460  0.2942 -0.7576  0.8205
41425SOL    HW242268  10.870   6.050   4.385 -2.0940 -0.0958 -1.4897
41426SOL     OW42269  13.488   2.275  10.440  0.0503  0.1663 -0.3013
41426SOL    HW142270  13.472   2.333  10.365 -0.7249 -0.1106 -0.3639
41426SOL    HW242271  13.401   2.243  10.464  0.2473  0.4970  0.9303
41427SOL     OW42272   1.920  11.005   0.094  0.0722  0.0155 -0.2450
41427SOL    HW142273   1.897  11.093   0.122 -0.2196  0.5511 -2.0614
41427SOL    HW242274   1.840  10.954   0.104  0.2687 -0.0921  0.9037
41428SOL     OW42275  13.553  11.468   6.025 -0.0840  0.0486 -0.4376
41428SOL    HW142276  13.518  11.379   6.029 -2.0894  0.7958 -0.0920
41428SOL    HW242277  13.500  11.512   5.959  2.7546  0.2920 -2.7619
41429SOL     OW42278   1.200  13.803   9.903  0.4001 -0.2968  0.4603
41429SOL    HW142279   1.193  13.709   9.922 -1.4303 -0.2907  0.0042
41429SOL    HW242280   1.177  13.811   9.811  2.5008  0.4311 -0.0688
41430SOL     OW42281   2.042   9.108   8.503  0.2684 -0.1197  0.3340
41430SOL    HW142282   2.036   9.052   8.425  0.3900  0.5732 -0.1763
41430SOL    HW242283   1.952   9.113   8.536  0.2744 -0.7075  0.4516
41431SOL     OW42284   8.713   1.547   4.001  0.5638  0.0678  0.1553
41431SOL    HW142285   8.796   1.508   4.027  0.3725  0.3188  1.1897
41431SOL    HW242286   8.687   1.498   3.924  3.0967  1.8765 -2.0372
41432SOL     OW42287   9.154   5.370   4.628 -0.4641  0.2706  0.0382
41432SOL    HW142288   9.191   5.296   4.675 -1.0529  0.0376  0.1395
41432SOL    HW242289   9.222   5.395   4.565  0.8092  1.2989  1.7440
41433SOL     OW42290   7.791   4.607   7.552 -0.2773 -0.2869 -0.2907
41433SOL    HW142291   7.705   4.589   7.590  0.5537 -0.0820  1.7970
41433SOL    HW242292   7.806   4.700   7.568  0.7224 -0.5251  0.1879
41434SOL     OW42293   2.810  13.520  11.937 -0.2824  0.2420  0.2872
41434SOL    HW142294   2.878  13.453  11.947 -0.2050  0.2987  0.1527
41434SOL    HW242295   2.855  13.592  11.892 -0.5100  0.1582 -0.0737
41435SOL     OW42296  13.543  13.006  10.246  0.2346  0.2577  0.1616
41435SOL    HW142297  13.609  12.969  10.188  0.9229 -0.1479  1.1654
41435SOL    HW242298  13.513  12.932  10.299  1.1638  0.9773  1.7563
41436SOL     OW42299   9.386   4.084   1.801 -0.5885 -0.5294 -0.3391
41436SOL    HW142300   9.361   4.020   1.734 -1.5255 -0.4114 -0.1230
41436SOL    HW242301   9.460   4.044   1.846 -0.8773 -1.2632 -0.5005
41437SOL     OW42302  13.642  13.090   4.252  0.1588 -0.2131  0.0527
41437SOL    HW142303  13.679  13.038   4.324  1.3081 -1.7843 -1.5933
41437SOL    HW242304  13.648  13.033   4.175 -1.2816  1.3045 -1.2636
41438SOL     OW42305  12.015   4.243  13.463  0.6902 -0.1441 -0.3442
41438SOL    HW142306  12.036   4.336  13.457  1.8157 -0.3749 -0.2685
41438SOL    HW242307  12.079   4.200  13.405  0.2353 -0.8756 -0.3241
41439SOL     OW42308   1.599   8.260  11.442 -0.4933  0.1997  0.2605
41439SOL    HW142309   1.580   8.226  11.355 -0.3479  0.0544  0.2840
41439SOL    HW242310   1.517   8.301  11.471 -0.3899  0.7158 -0.1568
41440SOL     OW42311   2.307  12.869   5.139 -0.0076 -0.7154  0.0260
41440SOL    HW142312   2.345  12.954   5.115 -0.0417 -1.3016 -2.3101
41440SOL    HW242313   2.244  12.889   5.208  0.1765  1.1068 -0.2965
41441SOL     OW42314  13.952  12.450   0.657 -0.5385 -0.0553 -0.3061
41441SOL    HW142315  13.937  12.543   0.675 -0.6058 -0.2988  0.9648
41441SOL    HW242316  13.979  12.448   0.565  0.4802  1.3263 -0.0635
41442SOL     OW42317   0.337   5.407   6.153  0.1433 -0.2801 -0.4555
41442SOL    HW142318   0.337   5.398   6.058 -3.8617  0.1518 -0.6932
41442SOL    HW242319   0.340   5.317   6.186  0.4135 -0.4902 -1.0510
41443SOL     OW42320  10.052   3.200   5.510  0.2401  0.1484  0.4889
41443SOL    HW142321   9.969   3.213   5.464  0.1139 -0.0199  0.6639
41443SOL    HW242322  10.049   3.108   5.537  1.2106 -0.3361 -0.9458
41444SOL     OW42323   4.604  11.763   5.965 -0.6531  0.2071  0.1981
41444SOL    HW142324   4.698  11.777   5.976 -0.5474 -0.2943 -0.0711
41444SOL    HW242325   4.565  11.798   6.046 -0.2196  0.1901  0.4146
41445SOL     OW42326  10.727  10.081  10.629  0.5627 -0.5390  0.4653
41445SOL    HW142327  10.805  10.027  10.643  2.7449  2.8844  2.8111
41445SOL    HW242328  10.742  10.122  10.543  1.8449  0.7211  1.2537
41446SOL     OW42329  10.643   0.057   9.902  0.0956 -0.2216  0.1103
41446SOL    HW142330  10.578   0.011   9.849  0.8498 -0.6515 -0.4585
41446SOL    HW242331  10.718  -0.002   9.905  0.1826 -0.0823  1.4238
41447SOL     OW42332   8.877   1.904   2.028  1.0406  0.4760 -0.3301
41447SOL    HW142333   8.942   1.935   2.090  0.3520 -0.1450  0.7365
41447SOL    HW242334   8.879   1.809   2.036  0.9192  0.3905 -1.2428
41448SOL     OW42335   6.533   8.535   7.918  0.4254 -0.3266 -0.2939
41448SOL    HW142336   6.586   8.562   7.993  0.2311  0.1048 -0.3074
41448SOL    HW242337   6.596   8.529   7.846  0.3477  1.0175 -0.5134
41449SOL     OW42338   7.995   2.753  10.699 -0.5850 -0.0694 -0.1271
41449SOL    HW142339   7.965   2.805  10.625  1.9707 -0.0206 -1.2466
41449SOL    HW242340   8.091   2.760  10.696 -0.2971 -2.0588  1.7485
41450SOL     OW42341   9.535   5.769   7.905 -0.8770  0.1503 -0.1474
41450SOL    HW142342   9.531   5.864   7.914 -1.5576  0.1735 -0.6343
41450SOL    HW242343   9.539   5.753   7.810  0.4400 -0.2750 -0.0501
41451SOL     OW42344   4.198   7.525   7.793 -0.1545 -0.1183  0.0886
41451SOL    HW142345   4.125   7.481   7.836  0.5494 -0.9197  0.5068
41451SOL    HW242346   4.211   7.605   7.845 -0.9270  0.1951 -0.1865
41452SOL     OW42347   9.556   1.548   9.991  0.1491  0.3689  0.0423
41452SOL    HW142348   9.642   1.573  10.023  0.0670  1.8346 -0.7673
41452SOL    HW242349   9.569   1.532   9.897 -0.5419  1.1601 -0.2065
41453SOL     OW42350   6.866   7.222   1.219 -0.3489  0.0041 -0.3092
41453SOL    HW142351   6.893   7.177   1.139  0.6399  1.6873 -0.9621
41453SOL    HW242352   6.895   7.165   1.290 -0.3143 -1.0126 -1.1238
41454SOL     OW42353  11.128   0.462   9.019  0.4706  0.3117  0.0066
41454SOL    HW142354  11.111   0.401   8.947 -4.6129 -0.6598  1.6126
41454SOL    HW242355  11.195   0.419   9.072  0.5053 -1.5128 -1.4195
41455SOL     OW42356  11.250   6.513   3.345 -0.0280  0.2408  0.2499
41455SOL    HW142357  11.237   6.533   3.252  0.2016  1.4261  0.4585
41455SOL    HW242358  11.164   6.525   3.385 -0.4345 -1.5061  0.0157
41456SOL     OW42359  12.257   8.055   2.014 -0.0652  0.4922 -0.1352
41456SOL    HW142360  12.290   8.023   2.097  0.7841  0.2919 -0.5435
41456SOL    HW242361  12.240   8.148   2.029  0.4176  0.5321  0.1609
41457SOL     OW42362   7.042  12.867   7.855 -0.0773  0.4649  0.3200
41457SOL    HW142363   7.028  12.773   7.840 -0.4870  0.7397 -1.2113
41457SOL    HW242364   6.971  12.892   7.914 -0.8887  0.0956 -0.4735
41458SOL     OW42365   8.351   9.146  11.915  0.6585 -0.6199 -0.0391
41458SOL    HW142366   8.345   9.072  11.975  1.6994 -0.5507  0.1743
41458SOL    HW242367   8.415   9.118  11.850 -0.9100 -0.9487 -1.5185
41459SOL     OW42368   0.598   6.772   8.360 -0.1298 -0.3653 -0.0041
41459SOL    HW142369   0.654   6.845   8.384  0.5766 -0.8088 -0.2904
41459SOL    HW242370   0.512   6.812   8.345 -0.3712  0.0615  2.2293
41460SOL     OW42371  12.428   2.230   6.007 -0.5247  0.3082  0.1956
41460SOL    HW142372  12.417   2.165   5.938  1.2077  0.5039 -0.3207
41460SOL    HW242373  12.380   2.307   5.975  0.0872  0.3278 -0.7213
41461SOL     OW42374   4.029  12.201  11.234  0.2310  0.3504 -0.1985
41461SOL    HW142375   3.951  12.257  11.234  0.1111  0.2240  1.6594
41461SOL    HW242376   4.070  12.216  11.319  1.1718 -1.0656 -0.3751
41462SOL     OW42377  11.882   7.332   7.382  0.1526 -0.6899  1.2423
41462SOL    HW142378  11.914   7.416   7.414  0.3221 -0.6377  0.9457
41462SOL    HW242379  11.789   7.346   7.366  0.4554 -0.1017 -0.2199
41463SOL     OW42380   9.022   7.133  11.492  0.0006  0.1688  0.3229
41463SOL    HW142381   9.005   7.192  11.565  0.5482  1.3901 -0.5036
41463SOL    HW242382   9.084   7.070  11.526  1.4642  1.6466  0.5130
41464SOL     OW42383   9.129   7.975   0.109  0.2630 -0.3282  0.1983
41464SOL    HW142384   9.149   7.887   0.077 -0.8116 -0.2003 -0.8884
41464SOL    HW242385   9.109   8.025   0.029  2.2564  1.3034  0.6304
41465SOL     OW42386   9.165  11.047  10.397  0.0116 -0.4174  0.3768
41465SOL    HW142387   9.129  11.099  10.326 -0.5117  2.4637  2.5676
41465SOL    HW242388   9.246  11.010  10.361 -0.0288  1.2435 -1.5857
41466SOL     OW42389   1.724   4.229   5.424 -0.1781  0.1271 -0.0537
41466SOL    HW142390   1.726   4.135   5.405 -0.6059 -0.3523  2.0641
41466SOL    HW242391   1.799   4.244   5.481 -0.2566  1.0461 -0.1714
41467SOL     OW42392   0.656   6.096   3.637 -0.1723  0.1154  0.4311
41467SOL    HW142393   0.613   6.010   3.633 -0.6690  0.3904 -0.3700
41467SOL    HW242394   0.695   6.106   3.551  1.4566 -0.0919  1.1206
41468SOL     OW42395  10.727   0.075  11.804  0.1748 -0.5669  1.1066
41468SOL    HW142396  10.808   0.113  11.839  0.3381  0.7650 -0.6116
41468SOL    HW242397  10.743   0.063  11.711 -2.6152  2.9461 -0.0717
41469SOL     OW42398  13.753   6.298   9.767 -0.0376  0.2263 -0.4325
41469SOL    HW142399  13.843   6.287   9.797  0.1367 -0.9414 -1.3513
41469SOL    HW242400  13.760   6.349   9.686 -0.2624  0.6536 -0.1900
41470SOL     OW42401  13.102   5.898   8.963  1.0236 -0.5236  0.1874
41470SOL    HW142402  13.087   5.809   8.930  0.7393 -0.0981 -0.8691
41470SOL    HW242403  13.016   5.925   8.997  1.1206 -0.6646  0.5510
41471SOL     OW42404  12.974   8.933  13.939 -0.1150  0.1295 -0.3149
41471SOL    HW142405  13.023   9.001  13.986  1.6205 -0.6904 -0.8709
41471SOL    HW242406  12.886   8.970  13.929  0.1590  1.3323  1.3837
41472SOL     OW42407   2.797   3.081   8.335 -0.4505  0.3805 -0.0711
41472SOL    HW142408   2.869   3.127   8.378  0.1756 -0.7916  0.1869
41472SOL    HW242409   2.829   3.063   8.247 -0.6142  0.2853 -0.1115
41473SOL     OW42410   2.024  14.144   9.765 -0.1021 -0.5423  0.0161
41473SOL    HW142411   1.991  14.163   9.853  1.5303 -3.0821  1.3314
41473SOL    HW242412   2.111  14.185   9.763  0.9555 -2.6112  0.6598
41474SOL     OW42413   9.559  13.207   2.592  0.0358 -0.1097 -0.3853
41474SOL    HW142414   9.499  13.134   2.604 -0.4491  0.2194 -0.7980
41474SOL    HW242415   9.504  13.285   2.594  0.9077  0.6407  3.9867
41475SOL     OW42416  10.082   0.795   0.821 -0.3709 -0.0443  0.0509
41475SOL    HW142417  10.149   0.728   0.814 -2.1775 -1.8990 -0.3381
41475SOL    HW242418  10.113   0.866   0.764  0.5854 -1.4507 -1.2431
41476SOL     OW42419   2.268  11.674   4.978 -0.4697 -0.2186  0.3196
41476SOL    HW142420   2.239  11.676   4.886 -0.8696  0.3736  0.4536
41476SOL    HW242421   2.350  11.625   4.976 -0.9645 -1.0563 -0.2163
41477SOL     OW42422   5.066  10.480   4.639 -0.4530 -0.0481 -1.0046
41477SOL    HW142423   5.103  10.560   4.602  2.4184  0.2797  2.0708
41477SOL    HW242424   4.978  10.506   4.669 -0.1562  1.5181 -1.4244
41478SOL     OW42425   2.719  12.656   6.718  0.3072  0.0870  0.5112
41478SOL    HW142426   2.703  12.746   6.688 -0.1333  0.1511  0.9181
41478SOL    HW242427   2.811  12.655   6.743  0.9400 -0.2207 -1.6567
41479SOL     OW42428   0.560   0.174   8.688  0.7858 -0.5606 -0.6138
41479SOL    HW142429   0.566   0.210   8.599 -3.2147 -0.0134 -0.8810
41479SOL    HW242430   0.484   0.116   8.684  1.1459 -1.3509  2.2475
41480SOL     OW42431   2.383   5.642   5.728 -0.1991  0.1710 -0.1819
41480SOL    HW142432   2.316   5.697   5.770  1.3363  1.1693  1.0828
41480SOL    HW242433   2.395   5.569   5.788  0.5266  0.5118  0.0988
41481SOL     OW42434   3.102  13.527  11.703 -0.6588 -0.5531  0.0091
41481SOL    HW142435   3.156  13.486  11.771  0.8689  1.7897  0.3101
41481SOL    HW242436   3.110  13.468  11.628  0.9126 -1.1563  0.6005
41482SOL     OW42437   7.361   7.523   2.027 -0.0337 -1.1527 -0.3600
41482SOL    HW142438   7.414   7.469   1.968  1.6596 -1.0865  1.0349
41482SOL    HW242439   7.385   7.493   2.115  0.0847  1.0725  0.4151
41483SOL     OW42440  12.323  11.142   0.733  0.2259  0.6746 -0.2056
41483SOL    HW142441  12.294  11.188   0.655  1.9323  0.7320 -0.8429
41483SOL    HW242442  12.402  11.188   0.761  1.1228 -0.9274  0.0247
41484SOL     OW42443  14.155   5.879   5.686  0.2933  0.1111 -0.1868
41484SOL    HW142444  14.190   5.907   5.771  0.3763  0.9027 -0.4743
41484SOL    HW242445  14.146   5.784   5.694  1.4061  0.0309  0.3033
41485SOL     OW42446   3.738   2.652  13.096  0.2626  0.3318  0.6141
41485SOL    HW142447   3.760   2.665  13.004 -1.5250 -0.1845  0.0779
41485SOL    HW242448   3.821   2.662  13.142  1.3898 -0.4560 -1.1454
41486SOL     OW42449   6.572   3.582  10.439  0.0955 -0.1465  0.8180
41486SOL    HW142450   6.567   3.584  10.343 -0.4851 -0.4321  0.8421
41486SOL    HW242451   6.492   3.539  10.467 -0.3904  1.1489  1.5047
41487SOL     OW42452   6.335   2.025  11.423  0.9631 -0.1960  0.6744
41487SOL    HW142453   6.297   2.018  11.510 -0.4463 -1.3998  0.0075
41487SOL    HW242454   6.428   2.041  11.438  0.8585 -1.0177  2.3825
41488SOL     OW42455   2.396   1.702   7.899 -1.0056 -0.1993 -0.3143
41488SOL    HW142456   2.389   1.693   7.804 -0.0360 -2.0934 -0.2475
41488SOL    HW242457   2.387   1.613   7.932 -0.6625  0.3504  1.3293
41489SOL     OW42458  13.282  11.723   7.276  0.2302 -0.0749 -0.0001
41489SOL    HW142459  13.275  11.816   7.296  2.6422  0.0309  0.7983
41489SOL    HW242460  13.270  11.679   7.361 -3.1214 -0.7406 -0.7050
41490SOL     OW42461   9.609   9.870  10.518  0.1067 -0.0316  0.5625
41490SOL    HW142462   9.678   9.918  10.472  0.3209 -0.6230  0.2585
41490SOL    HW242463   9.571   9.812  10.452 -0.8551  0.4716  0.6703
41491SOL     OW42464   7.799   0.130  12.401 -0.5863 -0.3474 -0.1488
41491SOL    HW142465   7.740   0.200  12.429 -0.3569 -1.1987  2.7969
41491SOL    HW242466   7.875   0.175  12.365 -1.5269  0.8439 -0.6908
41492SOL     OW42467   1.481  10.191   2.663  0.2113 -0.1973 -0.1786
41492SOL    HW142468   1.438  10.266   2.623 -1.5916 -1.5837 -0.9719
41492SOL    HW242469   1.416  10.154   2.723  0.8112 -1.4999 -0.2772
41493SOL     OW42470   4.996   5.047   9.874 -0.1478  0.1342 -0.0520
41493SOL    HW142471   4.906   5.079   9.862 -1.0247 -1.4009  1.8564
41493SOL    HW242472   4.989   4.952   9.865  1.5440  0.0742 -1.0998
41494SOL     OW42473   7.676  12.453   9.960  0.1979 -0.3715 -0.6661
41494SOL    HW142474   7.621  12.525   9.928  0.3150  0.5946  1.1492
41494SOL    HW242475   7.714  12.487  10.042 -0.0239 -2.6150  0.4404
41495SOL     OW42476  10.402   4.295   1.587 -0.0070  0.0653  0.6864
41495SOL    HW142477  10.443   4.222   1.633  0.0284 -0.4034 -0.0806
41495SOL    HW242478  10.339   4.255   1.528  1.8421  0.3952 -1.7028
41496SOL     OW42479   9.373   5.970   3.669  0.4805  0.0380 -0.0575
41496SOL    HW142480   9.281   5.972   3.645  0.8975  0.8127 -1.7440
41496SOL    HW242481   9.395   5.877   3.671 -0.3099 -0.1505  0.3039
41497SOL     OW42482   0.927  11.795   3.214  0.3420 -0.0208 -0.2408
41497SOL    HW142483   0.931  11.891   3.211  0.2319 -0.0364 -1.0356
41497SOL    HW242484   0.884  11.775   3.297 -0.3848  0.6435 -0.4503
41498SOL     OW42485   4.281   4.413   2.932  0.5007 -0.4923  0.0255
41498SOL    HW142486   4.223   4.338   2.924 -0.3906  0.1066  0.7229
41498SOL    HW242487   4.252   4.458   3.011  0.6336  0.9043 -0.6896
41499SOL     OW42488  11.594  13.804   6.931  0.3566  0.6748  0.6110
41499SOL    HW142489  11.668  13.745   6.919 -0.0311 -0.0633  1.6909
41499SOL    HW242490  11.633  13.887   6.957  0.7786  0.0626  1.9828
41500SOL     OW42491   5.056   2.870   7.685  0.4321 -0.3692  0.2924
41500SOL    HW142492   4.970   2.910   7.676  0.7048 -0.0804 -1.1807
41500SOL    HW242493   5.111   2.916   7.623  1.2616 -1.6416  0.0407
41501SOL     OW42494   5.139   1.030   5.930 -0.1422 -0.2631  0.0142
41501SOL    HW142495   5.047   1.008   5.942 -0.0600 -1.4069 -1.1956
41501SOL    HW242496   5.181   1.003   6.012 -0.9196  0.6531  0.7400
41502SOL     OW42497   8.919   1.940   9.752 -0.2569 -0.0505  0.3876
41502SOL    HW142498   8.993   1.963   9.695  0.1987 -2.2910 -0.0198
41502SOL    HW242499   8.959   1.898   9.828 -0.9996  1.0896  1.4518
41503SOL     OW42500   4.946   9.692   6.137  0.3303  0.3099 -0.5956
41503SOL    HW142501   4.950   9.633   6.212  0.9554  1.2224  0.1117
41503SOL    HW242502   4.853   9.709   6.124  0.2051 -0.0802 -0.2092
41504SOL     OW42503  12.490   3.175  13.640 -0.1942  0.7862  0.0595
41504SOL    HW142504  12.506   3.235  13.712 -1.4675  0.8038  0.3387
41504SOL    HW242505  12.523   3.221  13.562  0.2997  1.1607  0.4849
41505SOL     OW42506   2.385  10.567   4.871 -0.1008 -0.3957 -0.3569
41505SOL    HW142507   2.418  10.542   4.785  1.2894 -0.6526  0.2342
41505SOL    HW242508   2.448  10.631   4.904 -0.8948  0.0838  0.2671
41506SOL     OW42509   1.437   9.430   0.113  0.0332 -0.1426 -0.0670
41506SOL    HW142510   1.459   9.497   0.048 -0.1215  1.1723  1.1970
41506SOL    HW242511   1.487   9.353   0.085  1.2762  0.8859 -0.8226
41507SOL     OW42512  13.691   8.414  10.916 -0.1476  0.0530  0.0150
41507SOL    HW142513  13.742   8.445  10.840  0.1128  0.7954  0.4862
41507SOL    HW242514  13.723   8.324  10.931 -1.0500 -0.5576 -1.4875
41508SOL     OW42515   4.058   3.639  10.561 -0.0660  0.0966  0.4468
41508SOL    HW142516   4.041   3.668  10.651 -0.1121  0.3602  0.3540
41508SOL    HW242517   4.146   3.672  10.542  0.0491 -0.1864  0.4877
41509SOL     OW42518  13.965   2.512  13.872 -0.3208  0.1973  0.5922
41509SOL    HW142519  14.052   2.542  13.896 -0.8713 -0.0155  3.1580
41509SOL    HW242520  13.980   2.442  13.807  1.4453 -0.2628  1.4548
41510SOL     OW42521   1.054  10.495  11.977  0.1618 -0.1248  0.0744
41510SOL    HW142522   0.986  10.489  12.044  0.4837 -0.6451  0.3582
41510SOL    HW242523   1.136  10.486  12.025  0.6075  2.8557  0.0922
41511SOL     OW42524   4.575   6.964   8.436 -0.9269 -0.0799 -0.5785
41511SOL    HW142525   4.601   6.956   8.344 -1.2039  0.2457 -0.6881
41511SOL    HW242526   4.555   6.875   8.463  0.1107 -0.3193 -0.5426
41512SOL     OW42527   1.643   5.957   4.902  0.4035  0.3850 -0.5853
41512SOL    HW142528   1.720   5.969   4.846  0.8118  0.5747  0.0175
41512SOL    HW242529   1.618   5.865   4.890  0.7780  0.3009 -0.7055
41513SOL     OW42530  12.847   5.228   9.481  0.2594 -0.2179  0.3323
41513SOL    HW142531  12.927   5.253   9.434  1.7046 -0.3557  2.6011
41513SOL    HW242532  12.875   5.162   9.544 -1.0979  1.4878  2.9085
41514SOL     OW42533  11.118  12.302   7.166 -0.0658 -0.7598 -0.3886
41514SOL    HW142534  11.205  12.336   7.187 -0.4494  0.4923 -0.7141
41514SOL    HW242535  11.126  12.272   7.075 -0.4501  1.2164 -1.1329
41515SOL     OW42536   6.637   7.799   7.198  0.8398 -0.7891 -0.8856
41515SOL    HW142537   6.552   7.843   7.199  1.0841 -0.0848  2.4325
41515SOL    HW242538   6.617   7.708   7.175 -0.2548  0.0275 -3.5742
41516SOL     OW42539   9.874   9.139  11.357 -0.0353  0.2473 -0.4916
41516SOL    HW142540   9.882   9.234  11.356 -0.1443  0.2855  0.5322
41516SOL    HW242541   9.947   9.110  11.413 -1.3852 -0.0712  1.1973
41517SOL     OW42542  12.969   7.249  13.013 -0.4685 -0.1211  0.1592
41517SOL    HW142543  13.042   7.303  12.986 -1.2083  0.4343 -0.7860
41517SOL    HW242544  13.003   7.159  13.011  0.3331  0.1751  0.2970
41518SOL     OW42545   1.331  13.679  13.794 -0.2241 -0.2383 -0.0869
41518SOL    HW142546   1.247  13.637  13.775  0.1714 -0.5706 -1.1743
41518SOL    HW242547   1.320  13.716  13.882 -1.5724 -0.1005 -0.2899
41519SOL     OW42548   1.048   5.774   9.790 -0.1015 -0.0940  0.2170
41519SOL    HW142549   1.010   5.827   9.720  1.7327  1.3831  0.2369
41519SOL    HW242550   0.994   5.695   9.793 -1.1868  0.4972 -1.7797
41520SOL     OW42551   9.052  10.485   4.451 -0.9727  0.3857 -0.1421
41520SOL    HW142552   9.049  10.527   4.365 -0.8451  0.0913 -0.2938
41520SOL    HW242553   8.989  10.413   4.445  0.8757 -1.2862 -0.8979
41521SOL     OW42554  10.397  13.583  13.608 -0.2044  0.1443  0.5954
41521SOL    HW142555  10.310  13.615  13.634  0.1949  3.0175 -1.1427
41521SOL    HW242556  10.380  13.528  13.532 -0.5862  0.0055  0.7805
41522SOL     OW42557  11.560   5.706   9.033 -0.3410 -0.3790 -0.1851
41522SOL    HW142558  11.630   5.763   9.064 -1.2634  0.0807  1.1213
41522SOL    HW242559  11.574   5.701   8.938  0.4835  1.0268 -0.1681
41523SOL     OW42560   6.241  10.183   9.541 -0.4632 -0.1070 -0.1468
41523SOL    HW142561   6.280  10.257   9.588  0.1238 -1.3175  1.3852
41523SOL    HW242562   6.161  10.164   9.590  0.6831 -2.0537  1.1563
41524SOL     OW42563  13.735   7.643  12.044 -0.2544  0.0858  0.2079
41524SOL    HW142564  13.709   7.553  12.023  0.5195 -0.3313  0.9744
41524SOL    HW242565  13.653   7.688  12.062 -0.5368 -1.0110  1.8694
41525SOL     OW42566   8.460   2.640   7.735 -0.0307 -0.2411  0.1251
41525SOL    HW142567   8.442   2.708   7.799 -0.9111 -0.6964  0.3818
41525SOL    HW242568   8.554   2.625   7.741  0.3303  1.5194 -0.5223
41526SOL     OW42569   3.676   8.624  11.032 -0.1256  0.1828  0.5662
41526SOL    HW142570   3.756   8.664  10.999 -0.5025  1.5093  1.1890
41526SOL    HW242571   3.633   8.588  10.954  0.4395  0.6155  0.0418
41527SOL     OW42572  10.578   0.803   9.249  0.1625 -0.3102 -0.3336
41527SOL    HW142573  10.509   0.810   9.183 -0.3116  1.8946  0.3443
41527SOL    HW242574  10.659   0.800   9.198 -0.2889 -0.5203 -1.0543
41528SOL     OW42575   6.081  13.693   5.061 -0.0200  0.3874 -0.3223
41528SOL    HW142576   6.123  13.701   4.975 -1.3057  2.2566 -0.8474
41528SOL    HW242577   6.104  13.605   5.091  0.3017 -0.4012 -2.6597
41529SOL     OW42578   0.473  13.423   9.420 -0.5178 -0.2585 -0.3139
41529SOL    HW142579   0.395  13.383   9.381 -0.4196  0.3220 -1.1246
41529SOL    HW242580   0.546  13.394   9.364 -0.0310 -1.3520  0.8253
41530SOL     OW42581   1.399   1.340  12.509  0.7027  0.2914  0.4694
41530SOL    HW142582   1.324   1.293  12.474  2.5595 -1.5345 -1.3946
41530SOL    HW242583   1.386   1.431  12.483 -1.2993  0.2116  1.0863
41531SOL     OW42584  13.012   3.278   1.569  0.8987  0.4099 -0.0754
41531SOL    HW142585  12.970   3.286   1.655 -0.9685 -1.5990 -0.7111
41531SOL    HW242586  13.081   3.345   1.570  0.4767  0.9358  2.6883
41532SOL     OW42587  10.895   2.182  13.956 -0.1820  0.4490  0.5181
41532SOL    HW142588  10.912   2.260  14.010 -1.1181  0.7990  0.3317
41532SOL    HW242589  10.965   2.122  13.979  0.2671  1.1526  1.0559
41533SOL     OW42590  13.693   3.690   2.269 -0.6540  0.1583  0.2476
41533SOL    HW142591  13.676   3.608   2.223  2.3198 -0.8280  0.6936
41533SOL    HW242592  13.732   3.663   2.352  0.1362  2.0068  0.5183
41534SOL     OW42593   4.202  13.559   1.082  0.5864 -0.1275 -0.3011
41534SOL    HW142594   4.286  13.522   1.109  0.5340  0.2665  0.4170
41534SOL    HW242595   4.191  13.637   1.136 -1.2303 -1.3296  1.1851
41535SOL     OW42596   6.039   2.299  12.348  0.0956  0.6016 -0.0551
41535SOL    HW142597   5.965   2.329  12.295  0.5328  2.3567  0.2333
41535SOL    HW242598   6.005   2.225  12.398 -2.1358  2.5516  1.5418
41536SOL     OW42599   2.705   3.856  10.235  0.5467  0.0881 -0.2489
41536SOL    HW142600   2.733   3.844  10.325 -0.2036 -0.5831 -0.0894
41536SOL    HW242601   2.724   3.948  10.215  0.7239  0.2356  0.5859
41537SOL     OW42602   7.185   9.060   1.124  0.2568  0.5265 -0.4839
41537SOL    HW142603   7.280   9.056   1.110  0.3621  1.3492 -0.1009
41537SOL    HW242604   7.147   9.038   1.040  0.8229  2.1826 -1.2184
41538SOL     OW42605   3.318   9.303  11.116 -0.1483 -0.4971 -0.2908
41538SOL    HW142606   3.405   9.272  11.090  0.3999  0.3722  0.4537
41538SOL    HW242607   3.309   9.275  11.207 -0.7590 -0.7829 -0.4290
41539SOL     OW42608   7.818  12.349  11.534 -0.4571  0.1795  0.1667
41539SOL    HW142609   7.819  12.413  11.462 -0.0064  0.0444  0.0525
41539SOL    HW242610   7.910  12.332  11.552 -0.5744 -0.4736  0.1658
41540SOL     OW42611   8.751   3.607  10.965  0.6032 -0.0367 -0.2798
41540SOL    HW142612   8.803   3.686  10.975  0.4235 -0.0573  1.0168
41540SOL    HW242613   8.812   3.541  10.931  1.4645 -0.0726  1.2370
41541SOL     OW42614   4.292  12.970   4.265  0.1698 -0.4408  0.2045
41541SOL    HW142615   4.304  13.049   4.212 -2.3981  0.5684  0.9565
41541SOL    HW242616   4.306  12.999   4.355 -0.3623 -0.9450  0.4567
41542SOL     OW42617   6.557  11.339   9.423  0.1319  0.4028  0.0398
41542SOL    HW142618   6.593  11.252   9.437  1.7396  0.8890 -0.8059
41542SOL    HW242619   6.564  11.353   9.328 -1.5635  0.8737 -0.0618
41543SOL     OW42620   9.854  12.469  13.279  0.0962 -0.0666 -0.3301
41543SOL    HW142621   9.896  12.517  13.351  0.0971 -2.9986  1.8423
41543SOL    HW242622   9.761  12.490  13.288  0.3590  1.5819 -1.1693
41544SOL     OW42623  10.738   3.138   6.504  0.1196 -0.5134 -0.2091
41544SOL    HW142624  10.807   3.128   6.438  0.0402 -1.8811 -0.1053
41544SOL    HW242625  10.679   3.064   6.489 -0.5490 -0.1743  0.6467
41545SOL     OW42626  11.225   6.073   0.053  0.3808 -0.2804  0.1569
41545SOL    HW142627  11.310   6.085   0.094  0.0365  1.8333  0.3616
41545SOL    HW242628  11.216   5.978   0.043  3.0548 -0.5237 -0.5752
41546SOL     OW42629   6.458   8.797   6.057 -0.4666 -0.1944 -0.2953
41546SOL    HW142630   6.449   8.709   6.093 -1.1090 -0.5002 -1.1716
41546SOL    HW242631   6.546   8.824   6.083 -1.3026  0.1350  2.6178
41547SOL     OW42632  12.276   3.546  13.808  0.2494 -0.0588  0.3520
41547SOL    HW142633  12.299   3.454  13.820 -0.3585 -0.2074  0.4417
41547SOL    HW242634  12.352   3.585  13.765  0.9859 -0.3432  1.3644
41548SOL     OW42635   0.969   2.685  12.218 -0.4722  0.1750  0.2620
41548SOL    HW142636   0.981   2.716  12.307  0.1699  2.3202 -0.5135
41548SOL    HW242637   0.884   2.720  12.191  0.2412  1.2902 -0.6186
41549SOL     OW42638   7.532   8.288   2.657  0.1897 -0.3352  0.2256
41549SOL    HW142639   7.594   8.359   2.641 -1.1448  0.7146 -0.5770
41549SOL    HW242640   7.453   8.332   2.689 -0.7078 -1.4443 -0.3817
41550SOL     OW42641   5.084   3.269   0.633 -0.5984 -0.4270 -0.0160
41550SOL    HW142642   5.001   3.236   0.599 -0.0589 -0.7401 -1.0822
41550SOL    HW242643   5.060   3.315   0.713 -1.5113 -2.6343  1.0938
41551SOL     OW42644   4.510   1.983  12.873 -0.0351  0.0008  0.1033
41551SOL    HW142645   4.485   2.070  12.902 -1.1505 -0.8367  1.7895
41551SOL    HW242646   4.565   1.949  12.944 -1.0857 -1.3125  0.3188
41552SOL     OW42647   6.803   8.397   1.860 -0.1019 -0.3411  0.3615
41552SOL    HW142648   6.805   8.485   1.822  2.9029 -0.7251 -0.6827
41552SOL    HW242649   6.891   8.362   1.843 -1.0633 -3.4181  1.0980
41553SOL     OW42650  11.407  13.474   3.845 -0.6170 -0.2186 -0.4117
41553SOL    HW142651  11.464  13.433   3.909  0.0817 -0.2081 -1.0183
41553SOL    HW242652  11.379  13.556   3.886 -0.0058 -0.1101 -0.2082
41554SOL     OW42653   7.494   1.487   0.532 -0.2051 -0.3454 -0.0599
41554SOL    HW142654   7.472   1.423   0.464  0.6970 -1.0723  0.3110
41554SOL    HW242655   7.465   1.571   0.496 -1.5637 -0.9693 -0.4842
41555SOL     OW42656   0.431  13.653  10.704  0.3727 -0.1691 -0.4329
41555SOL    HW142657   0.389  13.714  10.765 -2.1009 -0.4065 -1.7600
41555SOL    HW242658   0.452  13.706  10.627 -1.6409 -0.8260 -1.5280
41556SOL     OW42659  14.105  10.746   5.478 -0.0556 -0.7168 -0.2281
41556SOL    HW142660  14.023  10.768   5.522  0.1432 -0.8804  0.2311
41556SOL    HW242661  14.164  10.818   5.500 -0.5079  0.1737 -1.7873
41557SOL     OW42662  11.049   0.280   4.706 -0.2177  0.0264  0.4089
41557SOL    HW142663  11.007   0.228   4.774 -0.3048 -0.1879  0.1923
41557SOL    HW242664  11.069   0.363   4.749 -2.6083  0.8927  0.0105
41558SOL     OW42665   8.962  11.744   4.422  0.4395  0.1596 -1.2793
41558SOL    HW142666   9.039  11.708   4.466  1.2550  0.8365 -2.0867
41558SOL    HW242667   8.982  11.838   4.414 -0.6385  0.4018 -1.1769
41559SOL     OW42668   9.391   7.950   2.122 -0.4605 -0.3371  0.0093
41559SOL    HW142669   9.439   7.869   2.136 -1.7395 -0.7301  2.7217
41559SOL    HW242670   9.444   8.017   2.165 -1.1802 -0.3893  1.0097
41560SOL     OW42671   6.008  13.478   3.776  0.3702  0.2551  0.1153
41560SOL    HW142672   6.012  13.387   3.747 -2.4714  0.3836 -0.9804
41560SOL    HW242673   6.021  13.529   3.697  2.6071  0.9081  0.8255
41561SOL     OW42674  13.610   3.975   8.524  0.4676 -0.3456 -0.4036
41561SOL    HW142675  13.678   3.912   8.546 -0.3269 -1.0549  0.1204
41561SOL    HW242676  13.603   4.030   8.602  0.8660  0.1163 -0.6952
41562SOL     OW42677   7.305   5.078   7.744  0.1338  0.4494  0.0515
41562SOL    HW142678   7.317   5.047   7.834 -1.4301 -2.8843 -0.7329
41562SOL    HW242679   7.234   5.025   7.710 -0.0408  2.3403 -2.8898
41563SOL     OW42680   6.911  11.753  13.088 -0.9250  0.5432  0.5051
41563SOL    HW142681   6.867  11.775  13.005 -1.4781  1.1989  0.9630
41563SOL    HW242682   6.907  11.834  13.139  1.3988  0.8285  0.3346
41564SOL     OW42683   6.118   9.036  12.392 -0.3444 -0.6804  0.3688
41564SOL    HW142684   6.198   9.088  12.389 -0.1895 -0.9060  0.4913
41564SOL    HW242685   6.145   8.954  12.434 -0.9372 -0.2536  1.6174
41565SOL     OW42686  13.338   6.668   2.109  0.9699 -0.1041  0.3669
41565SOL    HW142687  13.267   6.712   2.062  0.4059 -1.5851 -0.2296
41565SOL    HW242688  13.409   6.663   2.045  0.5885 -1.1423  0.0031
41566SOL     OW42689   6.628   2.668   7.675 -0.0786 -0.1287  0.2357
41566SOL    HW142690   6.589   2.752   7.651  0.6010  0.6026  1.5795
41566SOL    HW242691   6.555   2.618   7.714 -0.4607 -0.1425 -0.4807
41567SOL     OW42692  12.988   3.665   5.360  0.2691  0.2066  1.0178
41567SOL    HW142693  13.025   3.591   5.409 -1.2010  0.7521  3.0746
41567SOL    HW242694  13.062   3.700   5.311  1.1877 -2.0973  0.6137
41568SOL     OW42695   1.390   5.899   4.556 -0.2390  0.0485 -0.0877
41568SOL    HW142696   1.422   5.820   4.599  1.1273  0.6715  0.1228
41568SOL    HW242697   1.470   5.946   4.530 -1.0063  0.2797 -2.2355
41569SOL     OW42698   9.024  10.892   8.910 -0.3477  0.0061  0.4227
41569SOL    HW142699   9.023  10.930   8.998 -0.5610  2.0422 -0.4057
41569SOL    HW242700   9.088  10.821   8.915  0.4921  0.8229  1.9195
41570SOL     OW42701  11.744   4.023  12.866 -0.2367  0.0823 -0.1790
41570SOL    HW142702  11.839   4.033  12.852 -0.2778 -2.1227 -3.0405
41570SOL    HW242703  11.712   4.113  12.871  1.9300  0.9016  0.4411
41571SOL     OW42704   7.286   5.786   9.092 -0.5886 -0.5551 -0.0045
41571SOL    HW142705   7.327   5.778   9.005  0.3032  0.2479  0.3253
41571SOL    HW242706   7.312   5.705   9.138  0.8955  0.0450  0.2858
41572SOL     OW42707   3.415  10.633   8.040  0.0278  0.2717 -0.2155
41572SOL    HW142708   3.468  10.688   7.983 -0.0583  0.2379 -0.3271
41572SOL    HW242709   3.324  10.654   8.018 -0.0130  0.6832  0.3093
41573SOL     OW42710   3.885   9.057  11.715 -0.4307 -0.0081 -0.1358
41573SOL    HW142711   3.887   8.977  11.768  1.8650 -0.0863 -0.2343
41573SOL    HW242712   3.893   9.128  11.778 -0.1013  0.0202 -0.2091
41574SOL     OW42713   7.336   3.970   9.378 -0.5651 -0.2565 -0.3181
41574SOL    HW142714   7.316   4.058   9.410  0.6653  0.1888 -0.7207
41574SOL    HW242715   7.348   3.980   9.284 -0.4416 -0.8610 -0.3726
41575SOL     OW42716   1.530   9.228  10.524 -0.0592 -0.3462 -0.0425
41575SOL    HW142717   1.551   9.268  10.608  1.3643 -1.9735  0.4256
41575SOL    HW242718   1.551   9.295  10.459 -0.9190  0.8296  0.8646
41576SOL     OW42719   6.505   7.150  11.036  0.0797  0.1952  0.1245
41576SOL    HW142720   6.463   7.201  11.106  0.6211  0.7644  0.0445
41576SOL    HW242721   6.551   7.081  11.083  1.1740  1.0916  0.4264
41577SOL     OW42722   0.802  11.179  13.712 -0.3242  0.3220  0.3134
41577SOL    HW142723   0.819  11.259  13.661  0.4888 -0.4090 -0.6053
41577SOL    HW242724   0.724  11.141  13.672 -1.1999  1.0459  1.2712
41578SOL     OW42725   5.809   3.974  11.692 -0.3217  0.1751 -0.2784
41578SOL    HW142726   5.889   3.943  11.649 -0.7402 -1.8196  0.2821
41578SOL    HW242727   5.752   4.001  11.619  0.4696  0.6479 -0.7328
41579SOL     OW42728  12.104   1.330   2.080 -0.2376 -0.4295  0.4345
41579SOL    HW142729  12.163   1.300   2.149  0.3852 -0.5315 -0.1317
41579SOL    HW242730  12.126   1.276   2.004 -0.1903  0.3772 -0.1471
41580SOL     OW42731  14.139   2.112   2.375  0.2237  0.3563 -0.2689
41580SOL    HW142732  14.122   2.031   2.327 -1.5424  0.8873 -0.6478
41580SOL    HW242733  14.181   2.169   2.310  0.7530  0.0183 -0.2302
41581SOL     OW42734  12.865  13.892  13.147 -0.3438  0.8914  0.5232
41581SOL    HW142735  12.830  13.978  13.173 -0.2352  0.7338  1.2192
41581SOL    HW242736  12.836  13.833  13.218 -0.0212  0.4476  0.2864
41582SOL     OW42737   4.890  13.242   2.215 -0.0563  0.0162  0.3718
41582SOL    HW142738   4.969  13.207   2.173 -0.4137  1.8799 -2.1279
41582SOL    HW242739   4.916  13.256   2.306  1.5546 -2.0649  0.3180
41583SOL     OW42740  13.226   4.081   5.257  0.2363 -1.1460 -0.2821
41583SOL    HW142741  13.234   4.174   5.276  0.8696 -1.0895 -0.8016
41583SOL    HW242742  13.133   4.068   5.237 -0.2332 -0.9923  1.6175
41584SOL     OW42743   8.438   5.237   2.122  0.4748 -0.0160  0.3313
41584SOL    HW142744   8.434   5.161   2.063 -1.0589 -0.0608  0.4592
41584SOL    HW242745   8.433   5.312   2.064 -0.3105 -0.0522  0.3424
41585SOL     OW42746   9.884   3.392   1.112  0.2506  0.3383 -0.2379
41585SOL    HW142747   9.970   3.427   1.088  1.1317 -0.5495  1.4605
41585SOL    HW242748   9.822   3.456   1.076  1.6677  1.8040 -0.2013
41586SOL     OW42749   9.622  11.684   7.637  0.7812  0.2800  0.0039
41586SOL    HW142750   9.647  11.724   7.554 -0.7863 -0.9698 -1.1437
41586SOL    HW242751   9.531  11.713   7.651 -0.8590 -3.5342 -1.4651
41587SOL     OW42752   3.189  11.606   3.251 -0.0006 -0.7027  0.1970
41587SOL    HW142753   3.256  11.665   3.218 -0.1455 -0.3388  0.5390
41587SOL    HW242754   3.237  11.535   3.293  0.1696 -0.4483  0.4327
41588SOL     OW42755  10.408  10.446  12.074  0.2272  0.2974 -0.1623
41588SOL    HW142756  10.431  10.519  12.015  1.2091 -0.4839 -0.7850
41588SOL    HW242757  10.488  10.396  12.081 -0.2681 -0.3782  0.7832
41589SOL     OW42758   0.853   9.876   4.855  0.6950  0.1276  0.0250
41589SOL    HW142759   0.842   9.952   4.798  0.5392 -0.5986 -0.9322
41589SOL    HW242760   0.943   9.847   4.838  0.8265  0.2091  0.5475
41590SOL     OW42761  11.819  11.171  10.072 -0.3582 -0.1731 -0.2155
41590SOL    HW142762  11.785  11.145   9.986 -0.9471 -0.7333  0.1828
41590SOL    HW242763  11.889  11.107  10.089 -1.2896 -1.0539  0.4157
41591SOL     OW42764   4.792   0.909  11.976 -0.3096  0.5834 -0.0501
41591SOL    HW142765   4.833   0.827  12.004  0.0122  0.8665  0.3085
41591SOL    HW242766   4.853   0.978  12.004  0.4473  0.8487 -2.1558
41592SOL     OW42767  12.971   1.231   9.826  0.0036  0.9552  0.4084
41592SOL    HW142768  12.929   1.316   9.813 -0.0828  0.7740 -0.5457
41592SOL    HW242769  13.057   1.251   9.864 -1.3904  1.2851  3.8236
41593SOL     OW42770   3.046   6.050   2.213 -0.4810  0.8528  0.0622
41593SOL    HW142771   3.007   6.051   2.125 -0.5488 -1.0903  0.0305
41593SOL    HW242772   2.981   6.006   2.267  0.3941  0.2532  0.6499
41594SOL     OW42773  14.127  14.057   7.362  0.2810 -0.4467  0.1308
41594SOL    HW142774  14.034  14.067   7.380  0.4050 -0.6824  0.9394
41594SOL    HW242775  14.159  14.146   7.348  0.4365 -0.0892  2.4557
41595SOL     OW42776   0.068  12.890   3.607  0.5987 -0.1055  0.7198
41595SOL    HW142777   0.137  12.859   3.548  0.1602  1.4570 -0.7001
41595SOL    HW242778   0.089  12.983   3.620 -1.0515  0.3191  0.5087
41596SOL     OW42779   3.571   3.854   2.521  0.9693  0.1104  0.1349
41596SOL    HW142780   3.509   3.781   2.519  2.0120 -0.8888  2.0496
41596SOL    HW242781   3.521   3.927   2.559  0.7563 -0.4688  0.9834
41597SOL     OW42782   5.102   6.075   7.117  0.3602  0.1157 -0.1367
41597SOL    HW142783   5.185   6.065   7.163  0.2665 -0.6030 -0.1215
41597SOL    HW242784   5.115   6.030   7.033  0.2689  0.7435 -0.4966
41598SOL     OW42785   5.855   1.512  13.412 -0.0692  0.5025 -0.2010
41598SOL    HW142786   5.842   1.418  13.414 -1.2324  0.6433 -0.6614
41598SOL    HW242787   5.825   1.539  13.325  0.4249  1.2808 -0.1446
41599SOL     OW42788   1.344   4.821   3.498  0.4799  0.2557 -0.1107
41599SOL    HW142789   1.393   4.739   3.507  2.0247  1.1521 -0.0179
41599SOL    HW242790   1.253   4.795   3.510  0.9234 -1.4491 -0.0824
41600SOL     OW42791   7.531   2.375   7.827 -0.3006  0.2174 -0.0420
41600SOL    HW142792   7.526   2.293   7.777 -1.6922 -0.5357  1.2435
41600SOL    HW242793   7.607   2.364   7.884  0.9692  0.8587 -1.5599
41601SOL     OW42794   7.391   3.227   1.907  0.4652  0.4635 -0.2916
41601SOL    HW142795   7.426   3.310   1.940 -0.3146  0.6150  0.1625
41601SOL    HW242796   7.427   3.220   1.818  1.7016  0.5788  0.1804
41602SOL     OW42797  10.472   9.962   7.541  0.3630 -0.2336 -0.2316
41602SOL    HW142798  10.542  10.028   7.545  0.2815 -0.1353 -0.4384
41602SOL    HW242799  10.491   9.913   7.461  0.9392 -1.0353  0.3832
41603SOL     OW42800   9.069   1.915   0.105  0.2101  0.3598  0.6075
41603SOL    HW142801   9.121   1.983   0.148 -2.3202  3.4750 -0.7877
41603SOL    HW242802   9.055   1.948   0.016 -2.2398 -1.3539  0.2499
41604SOL     OW42803   4.349  11.776  10.446 -0.1115  0.0932  0.1954
41604SOL    HW142804   4.260  11.751  10.472 -1.1246  2.8999 -0.1303
41604SOL    HW242805   4.358  11.743  10.357 -1.9487  1.9727 -0.7864
41605SOL     OW42806   9.362   4.783   1.765 -0.7500  0.2830 -0.2468
41605SOL    HW142807   9.292   4.775   1.701 -2.7966 -0.0066  1.8841
41605SOL    HW242808   9.328   4.845   1.830  0.2042 -1.1198  1.7199
41606SOL     OW42809   9.836  13.367   9.981 -0.0029 -0.3775  0.4722
41606SOL    HW142810   9.755  13.416   9.967  0.7656  0.5894 -0.7726
41606SOL    HW242811   9.898  13.404   9.918  1.2158 -1.5590  0.9296
41607SOL     OW42812   4.314  13.208   7.048  0.1909  0.7918  0.3041
41607SOL    HW142813   4.305  13.244   6.959  2.1962 -0.8560 -0.6678
41607SOL    HW242814   4.303  13.284   7.105 -1.7210  1.8209 -1.2866
41608SOL     OW42815  12.945   8.063   0.927  0.4584  0.4977 -0.3885
41608SOL    HW142816  12.990   8.136   0.968  0.2837  0.2484  0.2674
41608SOL    HW242817  12.854   8.091   0.920  0.3720  0.3152 -0.0479
41609SOL     OW42818  12.762  11.143   6.325  0.0469  0.5575  0.1212
41609SOL    HW142819  12.808  11.191   6.393  0.1570  1.1988 -0.3935
41609SOL    HW242820  12.804  11.172   6.243  0.7715 -1.1125 -0.1408
41610SOL     OW42821   5.563   4.594  10.422  0.1161 -0.2772  0.8374
41610SOL    HW142822   5.635   4.542  10.456  0.2876  0.4721  1.6336
41610SOL    HW242823   5.574   4.680  10.462 -0.8448  0.0308  0.4624
41611SOL     OW42824  10.752   6.725  12.306 -0.2564 -0.4310 -0.3506
41611SOL    HW142825  10.731   6.635  12.331 -0.5895  0.0138  1.0252
41611SOL    HW242826  10.723   6.731  12.215  0.3640 -1.8941 -0.6783
41612SOL     OW42827   4.206   8.485   4.384  0.2216 -0.3931 -0.1895
41612SOL    HW142828   4.301   8.499   4.390  0.0407  1.1832 -0.5616
41612SOL    HW242829   4.176   8.484   4.475  0.4660  0.1207 -0.1021
41613SOL     OW42830  13.224   5.545   1.030 -0.1405  0.0415 -0.2360
41613SOL    HW142831  13.163   5.576   1.096 -1.4517 -2.0846 -0.3790
41613SOL    HW242832  13.310   5.566   1.065 -0.8014 -0.8248  2.0475
41614SOL     OW42833  11.662   3.045  13.237 -0.2048  0.3936  0.7317
41614SOL    HW142834  11.631   3.117  13.182 -0.7044  0.2107  0.7609
41614SOL    HW242835  11.710   2.988  13.178  0.8308  1.1182  0.8518
41615SOL     OW42836   3.571  10.667   1.465  0.0707 -0.1627  0.5085
41615SOL    HW142837   3.476  10.681   1.473  0.1938  0.9956  0.1230
41615SOL    HW242838   3.581  10.572   1.467 -1.1277 -0.3146  0.2412
41616SOL     OW42839  11.480   0.273   4.861  0.0013  0.5159 -0.0915
41616SOL    HW142840  11.486   0.193   4.808 -0.0301  1.6597 -1.8993
41616SOL    HW242841  11.570   0.288   4.891 -0.0462 -0.3442  0.5520
41617SOL     OW42842  11.577  11.790   4.753 -0.0445  0.3635  0.4936
41617SOL    HW142843  11.564  11.869   4.701  0.6222 -0.1507 -0.4764
41617SOL    HW242844  11.670  11.791   4.775 -0.3857  0.8029  2.0859
41618SOL     OW42845  14.092  11.066  12.426 -0.2947 -0.4798  1.0591
41618SOL    HW142846  14.179  11.031  12.409 -0.0054  1.2537 -1.7443
41618SOL    HW242847  14.105  11.128  12.498  0.8941  0.0726  0.3910
41619SOL     OW42848   5.004   0.931   5.511 -0.1405  0.3633  0.5786
41619SOL    HW142849   4.960   1.014   5.532 -0.7532  0.0218  0.6753
41619SOL    HW242850   4.939   0.864   5.531 -0.4276 -0.0398 -1.5704
41620SOL     OW42851  10.374  13.678   9.111 -0.0192 -0.4618 -0.9568
41620SOL    HW142852  10.455  13.656   9.065  0.1141 -1.0933 -0.4430
41620SOL    HW242853  10.328  13.738   9.052  0.5881 -0.4956 -1.4772
41621SOL     OW42854   1.310  13.135  13.379 -0.0499  0.0856  0.0322
41621SOL    HW142855   1.219  13.107  13.375  0.5364 -2.0378 -0.0363
41621SOL    HW242856   1.344  13.118  13.291  1.0682 -1.8422  0.7657
41622SOL     OW42857   6.813  11.380  12.118 -0.0599 -0.2763  0.1516
41622SOL    HW142858   6.754  11.319  12.074 -0.9175  0.3280  0.4388
41622SOL    HW242859   6.885  11.394  12.056 -0.2324 -0.9971 -0.2116
41623SOL     OW42860   9.239  13.012  11.544  0.2613  0.5085 -0.4201
41623SOL    HW142861   9.300  12.953  11.587  0.3834  1.5495  0.8876
41623SOL    HW242862   9.187  12.955  11.487  1.4712 -0.5955 -0.4606
41624SOL     OW42863   8.588  13.720   0.379 -0.2225 -0.0910  0.0692
41624SOL    HW142864   8.638  13.767   0.312 -2.3931  2.0174 -0.1867
41624SOL    HW242865   8.605  13.768   0.460 -0.6104 -0.3222  0.2906
41625SOL     OW42866   5.423  13.131   9.481  0.0553 -0.2800  0.2078
41625SOL    HW142867   5.417  13.152   9.388 -1.5922  1.2324  0.6255
41625SOL    HW242868   5.504  13.174   9.510 -0.2393  0.5668 -0.2028
41626SOL     OW42869  13.176  10.172   9.063  0.0203  0.3336  0.1474
41626SOL    HW142870  13.167  10.170   8.967  1.3687 -1.6075  0.0190
41626SOL    HW242871  13.224  10.253   9.080 -0.9660  1.1324 -0.7206
41627SOL     OW42872   5.693   0.194  11.332  0.0940 -0.5095  0.4053
41627SOL    HW142873   5.768   0.166  11.280  0.0797 -0.3722  0.3094
41627SOL    HW242874   5.617   0.171  11.279  0.0853  3.3569 -1.6791
41628SOL     OW42875  10.456  10.424  10.451 -0.4117  0.1028 -0.3477
41628SOL    HW142876  10.471  10.371  10.529  0.3294 -0.8210 -1.1013
41628SOL    HW242877  10.360  10.432  10.446 -0.5540 -1.3553 -0.3466
41629SOL     OW42878  11.293  12.789  13.785 -0.3127 -0.3910 -0.1332
41629SOL    HW142879  11.358  12.748  13.843 -1.7388 -0.7891  1.2566
41629SOL    HW242880  11.325  12.878  13.772  0.5288 -0.5862  0.4856
41630SOL     OW42881   9.238  13.637  13.946 -0.1257  0.2556 -0.1384
41630SOL    HW142882   9.182  13.665  14.019  1.1679  2.4439  0.1033
41630SOL    HW242883   9.269  13.718  13.907  3.5582 -0.7300  0.2879
41631SOL     OW42884  11.246   7.380  10.007 -0.1344 -0.0584  0.1384
41631SOL    HW142885  11.210   7.456   9.961  1.0226  1.0466  0.9548
41631SOL    HW242886  11.193   7.306   9.978 -1.9054  1.1948 -0.0090
41632SOL     OW42887  12.862  12.293  10.386 -0.3543 -0.1337 -0.2359
41632SOL    HW142888  12.846  12.381  10.419 -2.6035 -0.6960  0.3497
41632SOL    HW242889  12.805  12.286  10.309 -0.1666 -1.0713 -0.3023
41633SOL     OW42890   4.163  10.265   1.794  0.1880  0.8611 -0.2823
41633SOL    HW142891   4.212  10.347   1.799  1.1667  0.2013  1.8885
41633SOL    HW242892   4.139  10.245   1.885  0.0412 -1.3122 -0.7392
41634SOL     OW42893   1.644   1.280   1.007 -0.1303 -0.0530 -0.4368
41634SOL    HW142894   1.605   1.353   1.054  0.8034  0.1049  0.1228
41634SOL    HW242895   1.679   1.318   0.927 -0.4057 -0.0501 -0.5572
41635SOL     OW42896  13.484   6.187  10.334  0.6747 -0.1067 -0.1200
41635SOL    HW142897  13.408   6.129  10.329 -0.4385  0.9617  2.4610
41635SOL    HW242898  13.450   6.272  10.307  1.9261 -0.2436 -2.3993
41636SOL     OW42899  12.457   9.136   2.868  0.0646 -0.0908 -0.1619
41636SOL    HW142900  12.418   9.120   2.782 -1.5578 -0.8318  0.6677
41636SOL    HW242901  12.488   9.226   2.864  0.6540 -0.3315 -1.7427
41637SOL     OW42902  11.020   5.794   4.742 -0.1352  0.2121 -0.7894
41637SOL    HW142903  11.090   5.730   4.739 -1.1659 -1.0341  0.5380
41637SOL    HW242904  11.024   5.831   4.830  1.0752  2.7902 -1.8187
41638SOL     OW42905   9.191  10.127  12.147 -0.2702 -0.0056 -0.2986
41638SOL    HW142906   9.226  10.146  12.234 -2.5094  1.4755  0.3923
41638SOL    HW242907   9.245  10.178  12.087 -0.9673  1.9846  0.6745
41639SOL     OW42908  11.723   0.580  12.531 -0.0327  0.3402  0.0111
41639SOL    HW142909  11.785   0.612  12.466  1.4491 -0.6225  0.8787
41639SOL    HW242910  11.765   0.502  12.568 -1.8534 -0.4618  0.5254
41640SOL     OW42911   3.430   2.317  12.334 -0.7211  0.3053 -0.9670
41640SOL    HW142912   3.375   2.293  12.409  2.9287 -0.6730  1.6662
41640SOL    HW242913   3.433   2.412  12.336  1.2284  0.3051  1.8625
41641SOL     OW42914   8.546   9.750   4.525  0.0598 -0.5200 -0.0082
41641SOL    HW142915   8.635   9.718   4.507  0.0377 -0.5545 -0.0549
41641SOL    HW242916   8.528   9.810   4.454 -0.1190 -0.8398 -0.2364
41642SOL     OW42917  12.865   6.063   6.643  0.3891  0.7109 -0.3853
41642SOL    HW142918  12.788   6.110   6.612  0.5129  1.7771  0.8366
41642SOL    HW242919  12.939   6.114   6.610  0.5769  0.1493 -0.8595
41643SOL     OW42920   4.698   9.008   2.030 -0.2254  0.2184  0.0563
41643SOL    HW142921   4.729   8.951   1.959  1.7773  0.6082  0.5658
41643SOL    HW242922   4.776   9.055   2.059 -1.2713  1.0733  1.6176
41644SOL     OW42923   3.703   5.882  13.137 -0.4546 -0.7309  0.3085
41644SOL    HW142924   3.609   5.892  13.120 -0.4474  0.9605  1.0448
41644SOL    HW242925   3.710   5.797  13.181 -1.8094 -0.3983  1.2336
41645SOL     OW42926   7.673   4.995  13.349 -0.0287 -0.3600 -0.1816
41645SOL    HW142927   7.718   5.041  13.278  1.3936 -0.4047  0.6544
41645SOL    HW242928   7.594   5.047  13.365  1.3310  1.6261  0.4662
41646SOL     OW42929  10.511   6.098  11.613 -0.2057  0.0690 -0.3392
41646SOL    HW142930  10.499   6.193  11.618  0.4012  0.2218 -1.4174
41646SOL    HW242931  10.435   6.067  11.564 -0.5953 -0.0621  0.3302
41647SOL     OW42932   2.264   2.605   9.634  0.7872 -0.1566  0.3470
41647SOL    HW142933   2.264   2.612   9.539  0.4214 -0.3993  0.3267
41647SOL    HW242934   2.357   2.600   9.658  1.0017  2.0072  0.1636
41648SOL     OW42935   0.463   3.423   1.309 -0.5795 -0.3729 -0.3689
41648SOL    HW142936   0.491   3.394   1.395  1.8947 -1.1892 -1.3671
41648SOL    HW242937   0.378   3.464   1.324 -0.0254 -0.0882  2.4977
41649SOL     OW42938   5.969   0.573   8.042  0.4861  0.4930  0.0884
41649SOL    HW142939   5.934   0.529   7.965 -0.6080  0.6067  0.5070
41649SOL    HW242940   5.901   0.636   8.067 -0.2732 -1.1778  2.5523
41650SOL     OW42941   2.217   7.808   5.342  0.2108  0.1600  0.0488
41650SOL    HW142942   2.140   7.798   5.397 -0.4976 -2.0671 -1.2388
41650SOL    HW242943   2.189   7.865   5.271 -0.3543 -0.8381 -0.5441
41651SOL     OW42944  10.501   6.318   6.087 -0.0343 -0.5315  0.1259
41651SOL    HW142945  10.425   6.270   6.055  0.7026 -0.1324 -2.4810
41651SOL    HW242946  10.544   6.258   6.148 -0.7138 -1.9983 -0.7904
41652SOL     OW42947   6.659   6.548   4.739 -0.1217  0.2287 -0.3467
41652SOL    HW142948   6.626   6.458   4.746 -1.2727  0.7179  0.8530
41652SOL    HW242949   6.671   6.577   4.829 -0.9972  1.7103 -0.6712
41653SOL     OW42950  11.134   1.294   0.933  0.2586  0.7871 -0.7373
41653SOL    HW142951  11.052   1.315   0.889  0.2877  2.4382 -0.0761
41653SOL    HW242952  11.139   1.356   1.006  1.3829 -0.2593  0.1240
41654SOL     OW42953   8.469  13.154  13.162 -0.0128  0.3426  0.4707
41654SOL    HW142954   8.549  13.192  13.128 -0.3863  0.7899  0.0707
41654SOL    HW242955   8.482  13.148  13.256 -0.0802  1.8038  0.5908
41655SOL     OW42956   9.533   0.744   9.232 -0.1878  0.0482  0.0392
41655SOL    HW142957   9.454   0.795   9.251  0.0232  0.2048  0.4929
41655SOL    HW242958   9.563   0.714   9.317 -0.6220 -1.3077 -0.2572
41656SOL     OW42959   7.240  13.974   5.698  0.4317  0.0272 -0.2985
41656SOL    HW142960   7.239  14.060   5.741  0.9968  0.0618 -0.3497
41656SOL    HW242961   7.156  13.970   5.653 -0.8158 -0.6000  1.9322
41657SOL     OW42962   9.176   1.087   7.967  0.0179  0.2640 -0.0745
41657SOL    HW142963   9.226   1.164   7.992  0.1660  0.3829 -0.7072
41657SOL    HW242964   9.136   1.056   8.048 -2.0126  2.3977 -0.1771
41658SOL     OW42965   6.942   7.256   2.289  0.4181  0.6841  0.1901
41658SOL    HW142966   6.940   7.161   2.299 -2.0082  0.8375  2.0466
41658SOL    HW242967   7.032   7.280   2.311  0.9831 -1.1270  0.0467
41659SOL     OW42968  12.329   0.673   1.213 -0.2894 -0.1628  0.0956
41659SOL    HW142969  12.422   0.697   1.214 -0.0603 -1.0457  0.4319
41659SOL    HW242970  12.284   0.755   1.235  0.4849 -0.0265  1.2945
41660SOL     OW42971   0.452   3.670  13.610  0.1854  0.9698 -0.1787
41660SOL    HW142972   0.422   3.750  13.568 -0.7310  0.7153 -0.0184
41660SOL    HW242973   0.458   3.606  13.539  1.4908  1.3253 -0.4097
41661SOL     OW42974   5.318   1.407   4.913  0.5056 -0.6745 -0.3143
41661SOL    HW142975   5.363   1.489   4.935  0.0791 -0.5629  0.1725
41661SOL    HW242976   5.234   1.435   4.877  0.9896 -0.8729 -1.6488
41662SOL     OW42977   4.966   8.849  12.908 -0.4584  0.2076 -0.1748
41662SOL    HW142978   4.883   8.871  12.951  0.4324 -1.6964  2.8953
41662SOL    HW242979   4.957   8.756  12.886  0.1719  0.4734 -1.6183
41663SOL     OW42980  14.150   0.062  10.102  0.1181 -0.4517 -0.3271
41663SOL    HW142981  14.129  -0.013  10.157 -0.0300 -0.0266  0.1992
41663SOL    HW242982  14.237   0.089  10.131  0.0452 -0.2322 -0.3140
41664SOL     OW42983   4.091  10.616   9.779 -0.0437  0.0794 -0.0927
41664SOL    HW142984   4.032  10.621   9.703 -1.0766  1.3792  0.7377
41664SOL    HW242985   4.174  10.586   9.743 -1.0115 -1.1353 -1.4253
41665SOL     OW42986  13.408   5.810  13.818  1.2385 -0.1527  0.1446
41665SOL    HW142987  13.352   5.733  13.828  1.2831 -0.2362 -0.2591
41665SOL    HW242988  13.497   5.775  13.822  1.2584 -0.1470 -0.2398
41666SOL     OW42989  13.754   5.220  13.357 -0.6448 -0.2739 -0.8814
41666SOL    HW142990  13.750   5.254  13.447  0.9053  2.2767 -1.6613
41666SOL    HW242991  13.721   5.292  13.304  2.4158 -0.0136 -2.6494
41667SOL     OW42992   7.343   8.778   6.828 -0.2361  0.0801 -0.1741
41667SOL    HW142993   7.390   8.708   6.781  0.0348 -0.2938  0.6423
41667SOL    HW242994   7.320   8.739   6.912  1.2915  1.4617  0.9311
41668SOL     OW42995   7.774  13.244   9.387  0.0042 -0.6128 -0.0427
41668SOL    HW142996   7.830  13.321   9.402 -0.0064 -0.5117 -0.5147
41668SOL    HW242997   7.819  13.173   9.433  1.8907 -1.1076 -2.4352
41669SOL     OW42998   4.876   1.453  12.395 -0.1528 -0.4240 -0.3408
41669SOL    HW142999   4.967   1.447  12.366  0.3195 -4.0967  1.3643
41669SOL    HW243000   4.882   1.488  12.484 -0.5019 -0.0022 -0.4797
41670SOL     OW43001   0.670   2.210   7.032 -0.0442 -0.0859 -0.9486
41670SOL    HW143002   0.622   2.232   6.953 -3.9038 -1.4949  0.7511
41670SOL    HW243003   0.643   2.276   7.096  2.2893  0.4966 -0.4819
41671SOL     OW43004   5.898  13.001   4.578 -0.5353 -0.3633 -0.3637
41671SOL    HW143005   5.921  12.942   4.650  0.7520  0.4846 -0.0309
41671SOL    HW243006   5.960  12.978   4.508 -1.6274 -1.0300 -1.1471
41672SOL     OW43007   6.453   3.472  12.349  0.2887 -0.0578  0.3069
41672SOL    HW143008   6.480   3.491  12.259 -0.2009  0.6765  0.3017
41672SOL    HW243009   6.450   3.377  12.354  0.2452 -0.1028 -0.4854
41673SOL     OW43010   9.728  13.068  12.298  0.4708  0.2966  0.2857
41673SOL    HW143011   9.757  13.002  12.236 -0.2238  0.6308 -0.4033
41673SOL    HW243012   9.795  13.067  12.367  1.4218  0.1504 -0.6203
41674SOL     OW43013   7.364   8.727  11.111 -0.0807 -0.3671 -0.2548
41674SOL    HW143014   7.409   8.650  11.075 -1.7030 -2.1114  1.1915
41674SOL    HW243015   7.290   8.690  11.159 -2.8195  2.2544 -2.0705
41675SOL     OW43016   2.764   9.924   1.081  0.5336  0.6789 -0.0889
41675SOL    HW143017   2.735   9.990   1.144 -1.0693 -1.5123  1.6171
41675SOL    HW243018   2.714   9.943   1.002 -0.5739  0.9655  0.6648
41676SOL     OW43019   8.841   3.932   2.925 -0.1249 -0.5595  0.1929
41676SOL    HW143020   8.878   4.004   2.874  0.5050 -1.3329 -0.4863
41676SOL    HW243021   8.876   3.945   3.013  1.6300 -1.1234 -0.3784
41677SOL     OW43022   9.469   5.240   0.628  0.0421  0.7671  0.1004
41677SOL    HW143023   9.501   5.329   0.611  1.9225 -0.0992 -1.2696
41677SOL    HW243024   9.512   5.186   0.562 -0.8336 -1.2211  1.0655
41678SOL     OW43025  12.713  10.487   8.159 -0.2956  0.0859 -0.5062
41678SOL    HW143026  12.625  10.451   8.154 -0.3160  0.1418 -0.5372
41678SOL    HW243027  12.735  10.513   8.070  0.1203 -0.7998 -0.6753
41679SOL     OW43028  12.178   4.060   7.741 -0.7137  0.2105  0.1241
41679SOL    HW143029  12.091   4.024   7.759  0.4220 -2.3580  0.9458
41679SOL    HW243030  12.223   4.057   7.825  0.5000  0.5480 -0.4908
41680SOL     OW43031   9.847   1.536   7.172 -0.4667 -0.5785 -0.0657
41680SOL    HW143032   9.874   1.627   7.184 -0.7207 -0.2734 -1.5946
41680SOL    HW243033   9.879   1.491   7.250  1.8108  0.3408 -0.3942
41681SOL     OW43034  13.483   7.299  10.572 -0.1305 -0.5368 -0.1286
41681SOL    HW143035  13.409   7.338  10.618  0.2146 -0.7232  0.6036
41681SOL    HW243036  13.551   7.367  10.573 -0.6444  0.0500 -1.7724
41682SOL     OW43037   3.830   7.601   7.614  0.4046 -0.1725 -0.1489
41682SOL    HW143038   3.851   7.512   7.585  0.3242 -0.2473  0.0202
41682SOL    HW243039   3.815   7.592   7.708 -0.7960 -0.1989 -0.3276
41683SOL     OW43040   6.048   8.621   8.835  0.0603 -0.9832  0.0825
41683SOL    HW143041   6.135   8.587   8.816  1.3656  1.0573  1.9626
41683SOL    HW243042   6.035   8.603   8.928 -0.5456  0.7614  0.3593
41684SOL     OW43043   0.225  10.841   7.176 -0.1902 -0.8411  0.4853
41684SOL    HW143044   0.165  10.779   7.218 -0.7857 -0.6753 -0.1034
41684SOL    HW243045   0.180  10.925   7.183 -0.1038 -0.7451 -0.1213
41685SOL     OW43046  14.030   0.297  12.163 -0.4634  0.1934  0.0081
41685SOL    HW143047  13.935   0.303  12.163 -0.4735  0.7284 -1.5864
41685SOL    HW243048  14.058   0.370  12.108  0.7564 -0.9211 -0.9281
41686SOL     OW43049  14.023   2.986   5.834 -0.2271 -0.0839 -0.2433
41686SOL    HW143050  13.929   2.999   5.844 -0.6111 -2.0008 -0.9116
41686SOL    HW243051  14.033   2.947   5.748  1.0061 -1.2600  0.3956
41687SOL     OW43052   3.830  10.994   3.502  0.1957 -0.3304 -0.2751
41687SOL    HW143053   3.920  10.963   3.515  0.7064  0.9009 -0.7431
41687SOL    HW243054   3.832  11.039   3.418 -1.0121 -0.7792 -0.5646
41688SOL     OW43055   3.299   0.723   1.673 -0.1678 -0.4381 -0.2642
41688SOL    HW143056   3.267   0.636   1.699  1.3437 -0.9269  0.0266
41688SOL    HW243057   3.314   0.768   1.756 -0.5018 -0.0544 -0.4086
41689SOL     OW43058  13.985   4.559  11.339 -0.2017  0.5392  0.4224
41689SOL    HW143059  13.945   4.640  11.369 -1.1949  0.0593  0.4234
41689SOL    HW243060  14.025   4.581  11.255 -0.2124  1.0942  0.5643
41690SOL     OW43061   0.402  12.452   9.013 -0.4262  0.0738 -0.1505
41690SOL    HW143062   0.400  12.414   9.101 -0.3133  0.7312  0.1465
41690SOL    HW243063   0.317  12.496   9.004  0.0485  1.0873  0.1359
41691SOL     OW43064   5.377   7.725  12.612 -0.0961  0.5833  0.1764
41691SOL    HW143065   5.326   7.645  12.608 -0.7701  0.8799  1.8064
41691SOL    HW243066   5.345   7.778  12.539  0.1268 -0.4632 -0.7127
41692SOL     OW43067   0.846  12.838   4.045  0.2276  0.4854 -0.1585
41692SOL    HW143068   0.925  12.880   4.010  0.7641 -0.0422  0.3922
41692SOL    HW243069   0.877  12.753   4.076 -0.5651  0.2787  0.0700
41693SOL     OW43070   9.199   2.097   8.747  0.8510 -0.1038 -0.0707
41693SOL    HW143071   9.249   2.172   8.717  0.2697  0.1132 -0.5174
41693SOL    HW243072   9.187   2.112   8.841  0.0061  0.8156 -0.3014
41694SOL     OW43073   6.688   1.029   2.623  0.1199  0.2981 -0.5159
41694SOL    HW143074   6.599   0.998   2.603  0.5321 -1.6854  0.5064
41694SOL    HW243075   6.677   1.086   2.699 -0.2096 -0.4932  0.0393
41695SOL     OW43076   7.684   9.748   8.022 -0.0410 -0.1571 -0.2708
41695SOL    HW143077   7.709   9.698   8.099 -0.7194 -0.8347 -0.4757
41695SOL    HW243078   7.731   9.707   7.950 -1.1224 -0.9690 -0.5438
41696SOL     OW43079   9.345   6.563  11.182 -0.6596 -0.0253  0.2158
41696SOL    HW143080   9.315   6.499  11.247  0.1314 -1.2112 -0.5465
41696SOL    HW243081   9.280   6.559  11.112  0.3034 -1.3469 -0.6516
41697SOL     OW43082   4.396  13.533   5.864  0.1017 -0.1643  0.0969
41697SOL    HW143083   4.349  13.611   5.836 -2.4947 -1.7940 -0.3931
41697SOL    HW243084   4.390  13.473   5.790  1.9773 -0.8980  0.4795
41698SOL     OW43085   2.504   2.100  12.721 -0.2839  0.1654 -0.2278
41698SOL    HW143086   2.418   2.120  12.757  0.1356  0.1339  0.8468
41698SOL    HW243087   2.487   2.036  12.652 -1.0759 -0.2408  0.3246
41699SOL     OW43088   2.606   5.782   3.117 -0.1038  0.4363  0.1571
41699SOL    HW143089   2.544   5.855   3.113 -0.7331 -0.0579  0.6602
41699SOL    HW243090   2.663   5.803   3.191  0.4098  0.9422 -0.3701
41700SOL     OW43091   9.487  10.668   6.921  0.3152  0.6424 -0.1629
41700SOL    HW143092   9.567  10.680   6.973  0.4487  0.2607 -0.2739
41700SOL    HW243093   9.497  10.580   6.883  0.7154  1.2990 -1.6656
41701SOL     OW43094  12.396   3.405   7.336 -0.4156 -0.3613  0.3824
41701SOL    HW143095  12.313   3.406   7.288  0.7693  0.8629 -1.8357
41701SOL    HW243096  12.426   3.314   7.329 -1.9854 -1.0702  2.1065
41702SOL     OW43097   1.334  10.348   0.140  0.0803 -0.1429 -0.0411
41702SOL    HW143098   1.269  10.408   0.175  0.7706  0.5946  0.0213
41702SOL    HW243099   1.390  10.404   0.085  1.7249 -0.3771  1.3146
41703SOL     OW43100   0.847  13.936   5.205  0.1328 -0.7799 -0.3052
41703SOL    HW143101   0.807  13.888   5.133  0.6640  0.4509 -1.4714
41703SOL    HW243102   0.826  14.028   5.187  1.1852 -0.3502  0.5288
41704SOL     OW43103  10.071   5.727   2.361  0.2312  0.0373  0.3213
41704SOL    HW143104  10.157   5.734   2.319 -0.9492 -0.1800 -2.3505
41704SOL    HW243105  10.037   5.816   2.360 -0.0287 -0.0611  0.3401
41705SOL     OW43106  12.830   4.037   5.645  0.4047  0.0590  0.3133
41705SOL    HW143107  12.871   4.017   5.730 -0.2610 -0.5739  0.4975
41705SOL    HW243108  12.863   3.969   5.586 -0.3803 -0.4819  0.4726
41706SOL     OW43109  10.780   1.377   6.110  0.2580 -0.0157 -0.1174
41706SOL    HW143110  10.710   1.371   6.045  1.0392  0.2669 -1.0029
41706SOL    HW243111  10.735   1.367   6.194 -0.6562 -1.4018 -0.7178
41707SOL     OW43112   5.060  10.644   3.749  0.1922 -0.3489 -0.6628
41707SOL    HW143113   5.129  10.677   3.807 -0.7726  1.7385 -0.6253
41707SOL    HW243114   4.996  10.605   3.809  0.7691 -1.2758 -0.6200
41708SOL     OW43115  11.401   9.580  13.244  0.4208  0.3044 -0.1099
41708SOL    HW143116  11.486   9.539  13.232 -0.4046 -1.5471  0.0937
41708SOL    HW243117  11.338   9.517  13.209 -1.0043  0.7800  1.4397
41709SOL     OW43118   3.767   0.824  12.698 -0.0260  0.1642 -0.8361
41709SOL    HW143119   3.808   0.780  12.624 -1.0909  0.2061 -1.4708
41709SOL    HW243120   3.750   0.913  12.666 -0.9975  0.0224 -0.7462
41710SOL     OW43121   8.668  12.667   3.650 -0.2901  0.2055 -0.0103
41710SOL    HW143122   8.645  12.702   3.736  0.5039  1.0272 -0.1187
41710SOL    HW243123   8.753  12.624   3.664 -0.3375  0.0133 -0.3037
41711SOL     OW43124   1.299  10.791   2.209 -0.3908 -0.1859 -0.4007
41711SOL    HW143125   1.250  10.816   2.287 -0.5383  2.8145 -1.3234
41711SOL    HW243126   1.389  10.815   2.228 -0.5424  1.2431 -1.3565
41712SOL     OW43127   5.370   2.541   7.473  0.0582 -0.0134  0.0349
41712SOL    HW143128   5.413   2.623   7.450 -0.7562  0.9798  1.8580
41712SOL    HW243129   5.426   2.473   7.435  0.1051  1.3729 -2.5551
41713SOL     OW43130  12.030   2.415   3.916  0.3232 -0.4814  0.6123
41713SOL    HW143131  12.033   2.367   3.999  0.0661 -0.8275  0.4250
41713SOL    HW243132  12.113   2.463   3.913  0.2519 -0.3095  1.1599
41714SOL     OW43133  13.042   9.704   7.085 -0.2018  0.5371 -0.2949
41714SOL    HW143134  12.960   9.663   7.059  1.1766 -1.2459 -2.1934
41714SOL    HW243135  13.058   9.771   7.018 -0.4768  1.4269  0.5157
41715SOL     OW43136   3.468   9.625   0.548 -0.4213  0.2532 -0.7924
41715SOL    HW143137   3.406   9.559   0.516  0.4904 -0.6289 -0.7905
41715SOL    HW243138   3.414   9.700   0.570 -1.2141  0.5963 -3.5562
41716SOL     OW43139  10.237   9.245   1.750 -0.0321 -0.4095  0.0861
41716SOL    HW143140  10.277   9.314   1.803 -0.0884  0.2274 -0.6815
41716SOL    HW243141  10.212   9.288   1.669 -2.5807 -0.6988  0.6173
41717SOL     OW43142   0.949   6.171   8.617  0.4380 -0.2122 -0.0295
41717SOL    HW143143   0.918   6.080   8.620 -0.0512 -0.0407  0.2388
41717SOL    HW243144   0.925   6.207   8.702  1.0328  0.0460  0.0326
41718SOL     OW43145  10.533   5.609   8.068 -0.4808 -0.0679 -0.0185
41718SOL    HW143146  10.475   5.535   8.053 -2.3763  0.6438  2.9068
41718SOL    HW243147  10.475   5.685   8.067  0.4871  0.7667  2.1779
41719SOL     OW43148   3.736   7.150  12.823 -0.6416 -0.3600  0.4683
41719SOL    HW143149   3.755   7.196  12.741  0.4092  1.7059  1.7855
41719SOL    HW243150   3.666   7.202  12.863 -0.9165 -1.1573  1.0421
41720SOL     OW43151   5.914   9.425   2.687 -0.2730  0.4119 -0.6334
41720SOL    HW143152   5.984   9.425   2.622  0.5838 -0.7902  0.2481
41720SOL    HW243153   5.956   9.393   2.767 -0.9615  2.9907  0.8993
41721SOL     OW43154   3.491  10.238   8.779  0.8954 -0.0494 -0.1928
41721SOL    HW143155   3.554  10.173   8.748  0.2230 -0.5541 -0.5346
41721SOL    HW243156   3.539  10.288   8.846  0.7760 -2.3232  1.7326
41722SOL     OW43157   9.576  11.286   8.437  0.0012  0.0892  0.6919
41722SOL    HW143158   9.606  11.263   8.349 -1.8532  1.5116 -0.3857
41722SOL    HW243159   9.643  11.347   8.470  0.4808 -0.0981  0.0837
41723SOL     OW43160   6.225   8.139  13.096 -0.3117  0.0494  0.0493
41723SOL    HW143161   6.159   8.125  13.164 -1.4235  0.3825 -0.9117
41723SOL    HW243162   6.196   8.083  13.024  1.8090 -1.6441  0.4456
41724SOL     OW43163   8.421   6.680  11.347  0.9469 -0.0879 -0.0933
41724SOL    HW143164   8.406   6.631  11.428  0.3777 -1.4695 -0.9830
41724SOL    HW243165   8.364   6.636  11.283  3.0647 -0.5269 -1.7749
41725SOL     OW43166   6.498  10.015   6.622 -0.3518 -0.1395  0.2609
41725SOL    HW143167   6.494  10.104   6.586  0.7403 -0.3730 -0.4939
41725SOL    HW243168   6.568  10.018   6.687 -3.0340  0.5792  3.4116
41726SOL     OW43169   6.284  12.709  10.977  0.3229  0.9016 -0.8040
41726SOL    HW143170   6.335  12.647  11.030  0.2181 -0.2151 -1.9762
41726SOL    HW243171   6.329  12.792  10.989 -0.4417  1.0021  2.0710
41727SOL     OW43172   9.261   1.086   3.274  0.6860 -0.3502 -0.1536
41727SOL    HW143173   9.343   1.122   3.309  0.3438  0.9168 -0.5910
41727SOL    HW243174   9.257   0.997   3.309  2.9267 -0.9679 -1.2181
41728SOL     OW43175  14.137   3.868  13.773 -0.4296  0.0051 -0.2352
41728SOL    HW143176  14.126   3.777  13.748 -1.7222 -0.4797  1.8517
41728SOL    HW243177  14.070   3.915  13.724  0.8248  0.0470 -2.0194
41729SOL     OW43178   7.772   6.086   3.356 -0.5970  0.1595 -0.1201
41729SOL    HW143179   7.838   6.051   3.297  0.8733  1.5630  0.6355
41729SOL    HW243180   7.753   6.173   3.322  0.3831  1.0560  1.4987
41730SOL     OW43181   0.527   8.054   8.649 -0.5596  0.6531 -0.2397
41730SOL    HW143182   0.462   8.059   8.579  0.4182  0.5553 -1.1645
41730SOL    HW243183   0.607   8.024   8.607 -0.1234 -0.0859  1.0445
41731SOL     OW43184   3.472   9.917  12.580  0.1293  0.1056 -0.1706
41731SOL    HW143185   3.553   9.875  12.553 -0.1841  0.4839 -1.8031
41731SOL    HW243186   3.489  10.011  12.569 -0.2517  0.2357  0.3056
41732SOL     OW43187   8.635  11.364   2.322 -0.0222  0.2055  0.0361
41732SOL    HW143188   8.701  11.310   2.279 -0.9132 -1.6492  0.8608
41732SOL    HW243189   8.574  11.300   2.361 -1.6854  1.8245  0.2233
41733SOL     OW43190   3.145   5.526  10.773  0.0670  0.4701 -0.2358
41733SOL    HW143191   3.088   5.457  10.806 -0.8857  0.5881 -1.5549
41733SOL    HW243192   3.088   5.581  10.719  1.3843  0.6795 -1.4822
41734SOL     OW43193   0.829   1.176   1.100 -0.0579  0.0572 -0.2984
41734SOL    HW143194   0.739   1.172   1.134  0.4057 -0.4619  0.9188
41734SOL    HW243195   0.878   1.223   1.167  0.7208 -0.2939 -0.6118
41735SOL     OW43196  13.182   8.001   1.168  0.3033 -0.1039 -0.1946
41735SOL    HW143197  13.256   7.980   1.111 -0.1229 -0.0403 -0.7736
41735SOL    HW243198  13.154   7.916   1.203 -0.2678 -0.3009 -1.1136
41736SOL     OW43199   6.262  11.087  10.816  0.2350  0.2726 -0.1289
41736SOL    HW143200   6.345  11.043  10.795  0.1622  0.6708 -1.3042
41736SOL    HW243201   6.280  11.180  10.798 -0.4308  0.3735 -0.2782
41737SOL     OW43202   9.789   0.749  10.912  0.2585  0.4466  0.3962
41737SOL    HW143203   9.778   0.760  11.006 -3.0740 -1.3458  0.4000
41737SOL    HW243204   9.835   0.666  10.902  1.1821  0.9492  0.4227
41738SOL     OW43205   3.275   4.596  11.082 -0.1362  0.6497 -0.0812
41738SOL    HW143206   3.240   4.522  11.032  0.9883 -0.6390  0.9700
41738SOL    HW243207   3.266   4.671  11.023 -2.3827 -0.0612 -0.7448
41739SOL     OW43208   5.308  12.974   3.512 -0.4788  0.2543 -0.1587
41739SOL    HW143209   5.254  12.895   3.509  1.8237 -1.5670  2.2336
41739SOL    HW243210   5.348  12.979   3.425 -0.1360 -1.6442 -0.1377
41740SOL     OW43211   6.667  12.712   5.006  0.0431  0.2631 -0.5804
41740SOL    HW143212   6.620  12.793   5.024  0.4167  0.7257 -1.6163
41740SOL    HW243213   6.718  12.696   5.086 -0.6559  0.6023 -0.0604
41741SOL     OW43214  12.533   2.961   4.632  0.6046  0.0292  0.1252
41741SOL    HW143215  12.587   2.975   4.709  0.1579  1.5203  0.1985
41741SOL    HW243216  12.558   2.874   4.600 -0.2666 -1.3011  2.7874
41742SOL     OW43217   7.849   2.710   8.149 -0.1740 -0.6454  0.4877
41742SOL    HW143218   7.809   2.700   8.063 -0.0901 -1.1189  0.4988
41742SOL    HW243219   7.900   2.790   8.143 -0.3274 -0.5720  0.1570
41743SOL     OW43220  13.412   7.175   1.728  0.1792  0.2231  0.1769
41743SOL    HW143221  13.336   7.206   1.777 -1.8474 -0.7562 -2.1444
41743SOL    HW243222  13.378   7.156   1.640  3.1192 -0.3019 -0.9605
41744SOL     OW43223   2.428   0.346  11.221  0.4300 -0.1312 -0.3537
41744SOL    HW143224   2.340   0.309  11.219  0.1216  0.2432  2.2405
41744SOL    HW243225   2.458   0.332  11.311  1.3128  3.4830  0.0777
41745SOL     OW43226   8.793   0.911  13.032 -0.0939 -0.0514  0.2160
41745SOL    HW143227   8.839   0.899  12.948  0.1477 -2.1176  0.5918
41745SOL    HW243228   8.862   0.922  13.096 -0.1081 -1.6649  0.5626
41746SOL     OW43229   1.746   4.254   6.623  0.2289  0.5798 -0.2812
41746SOL    HW143230   1.821   4.313   6.631 -0.1121  1.0055 -0.1819
41746SOL    HW243231   1.750   4.199   6.701  1.7373 -0.9404 -1.3612
41747SOL     OW43232  11.531   1.363   6.934  0.2469 -0.3459  0.2141
41747SOL    HW143233  11.513   1.352   7.027 -0.0878 -1.1172  0.0739
41747SOL    HW243234  11.535   1.273   6.900 -1.0323 -0.0722 -0.7645
41748SOL     OW43235  12.898   5.600  13.932  0.0654  0.4458  0.1239
41748SOL    HW143236  12.821   5.593  13.987 -0.3797  1.5570 -0.3254
41748SOL    HW243237  12.945   5.675  13.966  0.3511  0.4764 -0.3280
41749SOL     OW43238   9.401   7.938  13.053 -0.1322  0.1124  0.2942
41749SOL    HW143239   9.340   7.879  13.010 -1.3567  1.1497  0.5475
41749SOL    HW243240   9.456   7.881  13.107 -1.7902 -0.7343  1.1476
41750SOL     OW43241   2.043   9.452   4.896  0.4804 -0.0932  0.3730
41750SOL    HW143242   2.021   9.463   4.804 -0.5457  0.3742  0.6551
41750SOL    HW243243   2.107   9.521   4.914  1.4205 -0.8030 -0.2156
41751SOL     OW43244  13.218   8.601   8.684 -0.3685 -0.3190  0.3871
41751SOL    HW143245  13.140   8.554   8.714 -0.7086  0.8684  1.4538
41751SOL    HW243246  13.203   8.692   8.710  1.5290 -0.1192  0.9527
41752SOL     OW43247   1.460  10.171  10.715 -0.1091 -0.0503 -0.5372
41752SOL    HW143248   1.394  10.161  10.645  0.8671 -3.1262 -1.1866
41752SOL    HW243249   1.542  10.188  10.668  0.5166 -1.9466 -0.2329
41753SOL     OW43250   8.623  14.014  10.192  0.5393 -0.0944  0.1462
41753SOL    HW143251   8.599  13.963  10.269 -0.0173  0.2394  0.1938
41753SOL    HW243252   8.616  14.106  10.221  0.5901  0.0272 -0.2219
41754SOL     OW43253  11.252   0.618   7.478 -0.1926  0.0112 -0.4307
41754SOL    HW143254  11.260   0.522   7.477 -1.5719 -0.1333 -1.6695
41754SOL    HW243255  11.160   0.634   7.459 -0.1079  1.5990  0.3351
41755SOL     OW43256   5.603   6.260  13.688 -0.3317  0.3381  0.1501
41755SOL    HW143257   5.642   6.211  13.615 -0.3600  0.5717 -0.0241
41755SOL    HW243258   5.552   6.196  13.736  2.2594 -0.6229  1.8846
41756SOL     OW43259   2.253   2.232   8.374  0.1196  0.2857  0.3377
41756SOL    HW143260   2.340   2.266   8.353 -1.1304  2.9178 -1.0450
41756SOL    HW243261   2.231   2.175   8.299  0.6127 -0.3682  0.6803
41757SOL     OW43262  13.094  12.081   9.218 -0.1003 -0.0458  0.4219
41757SOL    HW143263  13.152  12.022   9.267  0.0034  0.7725  1.3417
41757SOL    HW243264  13.111  12.167   9.257  1.6344  1.0947 -2.5384
41758SOL     OW43265  12.134  12.614  10.242  0.1431  0.5898 -0.2110
41758SOL    HW143266  12.106  12.699  10.208  0.4250  1.5666  1.8161
41758SOL    HW243267  12.109  12.617  10.335  3.8092  0.1715  0.9401
41759SOL     OW43268   1.771  12.356  13.272 -0.4617 -0.1399 -0.1888
41759SOL    HW143269   1.821  12.351  13.353 -1.3550 -1.1094  0.3286
41759SOL    HW243270   1.801  12.437  13.231 -0.1256  0.4790  1.1988
41760SOL     OW43271   7.628   4.659   3.984  0.5567  0.4308  0.2395
41760SOL    HW143272   7.580   4.576   3.977  0.4093  0.5235  0.1528
41760SOL    HW243273   7.691   4.644   4.055  0.1276  0.4429  0.6290
41761SOL     OW43274   5.563   8.019  12.685  0.5855  0.2523 -0.6036
41761SOL    HW143275   5.590   8.074  12.759 -2.1293  3.0893 -1.4686
41761SOL    HW243276   5.477   7.986  12.711  0.6057 -0.6035 -1.5761
41762SOL     OW43277   9.724  10.681   7.050 -0.1738 -0.1464  0.2813
41762SOL    HW143278   9.738  10.775   7.060  1.0514 -0.2268 -0.4463
41762SOL    HW243279   9.806  10.641   7.077  1.1039 -0.6963 -3.7570
41763SOL     OW43280   8.544  11.160   1.559 -0.6315  0.4466 -0.0914
41763SOL    HW143281   8.487  11.181   1.633 -1.4880  0.8454 -0.8571
41763SOL    HW243282   8.488  11.167   1.482  0.1682 -0.2975 -0.7603
41764SOL     OW43283   4.962   4.522   9.804 -0.6646  0.3276  0.3648
41764SOL    HW143284   4.983   4.475   9.885 -2.7275 -0.2542  0.6246
41764SOL    HW243285   4.975   4.458   9.735 -2.1048 -0.2396  0.5863
41765SOL     OW43286   0.927   2.227  11.994  0.1217  0.3548  0.1047
41765SOL    HW143287   1.005   2.280  11.978 -1.7644  3.0906 -0.7224
41765SOL    HW243288   0.892   2.259  12.078 -0.0345 -0.9880  0.5837
41766SOL     OW43289   3.731   1.690   1.287 -0.9157 -0.3030  0.7754
41766SOL    HW143290   3.783   1.761   1.323 -1.5039  0.4845  0.1133
41766SOL    HW243291   3.795   1.621   1.267  0.0994  1.0714 -1.1055
41767SOL     OW43292   6.108   4.400   9.087  0.4161  0.6348 -0.3635
41767SOL    HW143293   6.196   4.430   9.109  0.3097  2.0686 -1.7125
41767SOL    HW243294   6.122   4.314   9.047  1.1632  0.6530 -0.1638
41768SOL     OW43295   4.378   3.407  11.580  0.6694 -0.0066 -0.5335
41768SOL    HW143296   4.369   3.453  11.497 -0.4406 -0.3065 -0.6105
41768SOL    HW243297   4.312   3.337  11.575  0.0137  0.4561  0.9085
41769SOL     OW43298   6.225   1.740  13.648  0.2809  0.1302  0.0322
41769SOL    HW143299   6.160   1.736  13.578 -0.7073 -0.2479  0.9408
41769SOL    HW243300   6.209   1.661  13.700  0.8883  0.4744  0.7713
41770SOL     OW43301  13.580   6.728   6.877 -0.3380 -0.7528  0.2534
41770SOL    HW143302  13.547   6.800   6.931 -0.1444 -1.0730  0.8191
41770SOL    HW243303  13.583   6.654   6.938 -1.3082 -1.4529 -0.5163
41771SOL     OW43304   4.797   8.017  12.472 -0.2436  0.6794 -0.0838
41771SOL    HW143305   4.707   8.043  12.490 -0.5459  0.6286 -1.3947
41771SOL    HW243306   4.841   8.020  12.557 -1.5621  0.3507  0.6301
41772SOL     OW43307   5.803  13.737   1.504 -0.0144  0.0217  0.0274
41772SOL    HW143308   5.834  13.813   1.555  1.2181  0.3723 -1.2024
41772SOL    HW243309   5.868  13.669   1.520 -0.4946 -0.4159  0.1794
41773SOL     OW43310  11.777   0.694   1.907 -0.5384  0.2606  0.1188
41773SOL    HW143311  11.821   0.609   1.901 -1.1401  0.0219 -1.6593
41773SOL    HW243312  11.684   0.673   1.908 -0.6950  0.8974 -0.4711
41774SOL     OW43313   5.124   6.311   2.737 -0.1877  0.5192  0.0561
41774SOL    HW143314   5.166   6.379   2.684 -1.3134  0.0925 -1.4653
41774SOL    HW243315   5.123   6.234   2.680 -0.8100 -0.1686  0.9658
41775SOL     OW43316   1.035   4.146   7.718  0.1347  0.3163 -0.9699
41775SOL    HW143317   0.974   4.130   7.646 -0.8732  2.4128 -0.6744
41775SOL    HW243318   0.978   4.168   7.792  1.1935  1.5213 -0.4739
41776SOL     OW43319   3.145   7.717   6.262 -0.5622  0.1257  0.2292
41776SOL    HW143320   3.121   7.691   6.173 -0.0969  2.0063 -0.4944
41776SOL    HW243321   3.084   7.787   6.284 -1.1437 -0.7865  1.7164
41777SOL     OW43322   5.800   9.040   8.608  0.0930  0.3551  0.1096
41777SOL    HW143323   5.773   9.114   8.661 -1.1719 -0.3013  0.4205
41777SOL    HW243324   5.889   9.019   8.638 -0.1177  0.7927  1.0573
41778SOL     OW43325   4.637   5.895   1.103  0.4848  0.1819  0.0754
41778SOL    HW143326   4.715   5.911   1.049 -0.1242  2.9600 -0.1298
41778SOL    HW243327   4.581   5.970   1.086 -2.1537 -1.5871  0.4557
41779SOL     OW43328   7.422   3.416  13.778  0.2707 -0.1797 -0.2735
41779SOL    HW143329   7.496   3.390  13.722 -0.4985 -0.1296 -1.3350
41779SOL    HW243330   7.347   3.370  13.741 -0.5412  1.0921 -0.2477
41780SOL     OW43331   2.631   2.066   8.852  0.2407  0.3316 -0.6314
41780SOL    HW143332   2.605   2.156   8.873  1.7856  0.5650  0.4512
41780SOL    HW243333   2.666   2.072   8.763  1.2328  1.0268 -0.2173
41781SOL     OW43334   0.701   7.653  12.686 -0.3340 -0.0550  0.0797
41781SOL    HW143335   0.700   7.561  12.713  0.0557 -0.3721 -0.9646
41781SOL    HW243336   0.611   7.682  12.702 -0.2126 -0.3174  1.3767
41782SOL     OW43337   1.862  12.236   2.321 -0.1715 -0.1476  0.1790
41782SOL    HW143338   1.852  12.310   2.261  0.3704  1.0146  1.4507
41782SOL    HW243339   1.956  12.235   2.342 -0.3426 -0.5287  0.9695
41783SOL     OW43340   2.516   7.209  11.183 -0.4173 -0.3673 -0.2143
41783SOL    HW143341   2.569   7.185  11.108  1.0299  0.5305  0.4795
41783SOL    HW243342   2.566   7.179  11.259 -1.2559 -0.1585  0.4363
41784SOL     OW43343   2.276   0.455   6.343 -0.2837  0.0545 -0.3753
41784SOL    HW143344   2.209   0.480   6.280  0.2726 -0.8694 -1.3668
41784SOL    HW243345   2.359   0.472   6.297  0.1281 -2.7436 -0.8094
41785SOL     OW43346   0.084   2.247   2.168 -0.3270  0.0763  0.0925
41785SOL    HW143347   0.113   2.179   2.107 -0.7131  1.3910 -1.6409
41785SOL    HW243348   0.029   2.305   2.115  0.8927  2.3869  1.1959
41786SOL     OW43349   6.693  12.617   0.077  0.5406  0.3920 -0.3856
41786SOL    HW143350   6.678  12.566   0.157  2.6686 -0.0653 -0.2099
41786SOL    HW243351   6.699  12.551   0.008  1.7464  0.4925 -0.4041
41787SOL     OW43352  14.026  10.493   7.832  0.5376 -0.0238 -0.0799
41787SOL    HW143353  14.005  10.475   7.741 -1.6298  1.1931  0.1072
41787SOL    HW243354  14.022  10.408   7.875 -0.1208 -0.3783 -0.8258
41788SOL     OW43355  11.141  13.191   6.059 -0.8134  0.2927  0.1395
41788SOL    HW143356  11.080  13.171   6.129 -1.5009 -1.3855 -0.8840
41788SOL    HW243357  11.120  13.281   6.034 -2.0156  0.1679  0.6322
41789SOL     OW43358   5.026   7.229   7.692  0.0794 -0.3561 -0.3752
41789SOL    HW143359   5.116   7.262   7.692 -0.4316  1.1225  0.5313
41789SOL    HW243360   5.036   7.134   7.695  1.6108 -0.2256 -0.3582
41790SOL     OW43361   0.909  12.332  13.371  0.2052  0.3978 -0.1250
41790SOL    HW143362   0.928  12.239  13.356 -0.4506  0.0670  1.0121
41790SOL    HW243363   0.995  12.372  13.383  0.4582 -0.2017  0.1235
41791SOL     OW43364   6.440   9.117   2.907 -0.4737 -0.1706 -0.4678
41791SOL    HW143365   6.466   9.149   2.821  0.0009 -0.6064 -0.4948
41791SOL    HW243366   6.369   9.174   2.934 -0.4737  0.1092 -1.0524
41792SOL     OW43367   0.007  12.764  11.601  0.2756  0.1264 -0.2772
41792SOL    HW143368  -0.032  12.689  11.556 -0.8284  1.2277 -1.2592
41792SOL    HW243369   0.090  12.779  11.556  0.8309 -0.8999  0.3747
41793SOL     OW43370   7.218  13.090   0.928 -0.5893  0.3939 -0.3310
41793SOL    HW143371   7.171  13.029   0.985 -0.7163  0.9132  0.1202
41793SOL    HW243372   7.310  13.065   0.936 -0.4207  1.3932  1.2623
41794SOL     OW43373  10.039   9.916   7.460 -0.0643  0.3694 -0.0237
41794SOL    HW143374  10.004   9.828   7.478 -0.2004  0.4071 -0.1067
41794SOL    HW243375  10.118   9.900   7.409  1.6119  0.1366  2.4812
41795SOL     OW43376   8.651   9.708   1.551  0.2743 -0.1466 -0.1949
41795SOL    HW143377   8.729   9.691   1.498 -0.6258 -0.9457 -1.3106
41795SOL    HW243378   8.667   9.660   1.633  1.4965  0.7645  0.1429
41796SOL     OW43379  10.052   4.375   4.459 -1.1324  0.1797 -0.1943
41796SOL    HW143380   9.957   4.368   4.454 -1.0050 -1.2085 -1.5027
41796SOL    HW243381  10.077   4.313   4.528 -1.0918 -0.7541 -1.0187
41797SOL     OW43382   4.432   8.503   1.555 -0.2363 -0.2560 -0.1932
41797SOL    HW143383   4.462   8.501   1.646 -0.7791  0.1819 -0.0038
41797SOL    HW243384   4.434   8.595   1.531 -1.2745 -0.2398 -0.2297
41798SOL     OW43385   6.533   9.339   6.964  0.7254 -0.3173 -0.3915
41798SOL    HW143386   6.604   9.359   7.025 -0.6321 -0.6819  1.3950
41798SOL    HW243387   6.540   9.406   6.896  1.3882  1.0513  0.9581
41799SOL     OW43388   1.054   7.846  14.063 -0.1988 -0.3551  0.2695
41799SOL    HW143389   1.118   7.821  14.130 -0.4108  0.7598  0.9078
41799SOL    HW243390   1.071   7.786  13.990  0.6887 -0.9451  0.9411
41800SOL     OW43391   0.617   2.479  14.144 -0.2004  0.1659 -0.6749
41800SOL    HW143392   0.663   2.531  14.078  2.0834  0.0400  0.7201
41800SOL    HW243393   0.667   2.492  14.224 -2.0202 -0.8785  0.7020
41801SOL     OW43394   1.840  12.810  10.403  0.1852  0.1643  0.0357
41801SOL    HW143395   1.810  12.747  10.468 -0.3776  0.5631  0.1728
41801SOL    HW243396   1.842  12.761  10.321 -0.5067  0.0293  0.0951
41802SOL     OW43397  10.627   8.987   3.404 -0.1651  0.0511 -0.2023
41802SOL    HW143398  10.574   9.059   3.438 -1.2544 -0.2542 -1.1673
41802SOL    HW243399  10.573   8.949   3.335  1.2140 -0.4614 -1.0385
41803SOL     OW43400   7.771  12.440   2.548  0.4716  0.3544 -0.0504
41803SOL    HW143401   7.811  12.356   2.571  1.2323  0.6803 -0.1510
41803SOL    HW243402   7.690  12.416   2.502  0.6397 -0.3243 -0.0070
41804SOL     OW43403   8.069   8.724   1.745  0.3289  0.1487 -0.2381
41804SOL    HW143404   8.082   8.814   1.776  0.0281 -0.5855  2.2210
41804SOL    HW243405   8.105   8.669   1.814 -1.6871 -1.6594 -0.5104
41805SOL     OW43406   2.621  12.540   5.026 -0.6377 -0.3711 -0.3267
41805SOL    HW143407   2.643  12.485   5.101 -2.7623  0.2382  0.8258
41805SOL    HW243408   2.695  12.601   5.019 -0.0225 -0.9593  0.7327
41806SOL     OW43409   3.699   4.971   2.642 -0.3901  0.0228  0.2411
41806SOL    HW143410   3.778   4.925   2.672  0.0083 -0.4376 -1.3727
41806SOL    HW243411   3.731   5.029   2.573 -1.1254  1.6599  1.2384
41807SOL     OW43412   7.012  11.914   3.363 -0.5975  0.0004  0.7816
41807SOL    HW143413   7.003  11.824   3.330  2.2174  0.5185 -1.8765
41807SOL    HW243414   7.069  11.906   3.440 -0.2982 -0.5182  0.5139
41808SOL     OW43415   0.322   7.754   5.290  0.4363 -0.3712  0.3639
41808SOL    HW143416   0.263   7.752   5.214  0.2041  1.9062  0.4195
41808SOL    HW243417   0.275   7.705   5.358 -0.1504 -0.9114 -0.4086
41809SOL     OW43418   0.370   8.486  13.457 -0.6010 -0.6591 -0.1826
41809SOL    HW143419   0.376   8.494  13.362 -0.3673  0.1990 -0.0965
41809SOL    HW243420   0.390   8.394  13.474  1.8572 -0.2959 -0.7772
41810SOL     OW43421  11.518   4.925  13.334 -0.2751 -0.0908 -0.2402
41810SOL    HW143422  11.469   4.945  13.255 -1.6648  1.0237  0.8480
41810SOL    HW243423  11.519   4.829  13.338 -0.3083 -0.1594 -1.5064
41811SOL     OW43424   5.916   6.841  13.564  0.5323  0.2492 -0.3548
41811SOL    HW143425   5.980   6.859  13.495  2.3952  0.2399  1.2796
41811SOL    HW243426   5.885   6.752  13.545  2.0690 -0.3071 -0.4282
41812SOL     OW43427   5.104   5.643   9.185  0.7374  0.8194 -0.1823
41812SOL    HW143428   5.198   5.634   9.199  0.6053 -1.0623 -0.2472
41812SOL    HW243429   5.066   5.567   9.227 -0.7838  1.5632 -0.1460
41813SOL     OW43430  12.800   8.407  11.202 -0.4597  0.8082  0.1438
41813SOL    HW143431  12.765   8.355  11.274 -0.0349 -0.8717 -0.8050
41813SOL    HW243432  12.895   8.394  11.207 -0.4153  0.7458 -0.6514
41814SOL     OW43433  12.592   9.465   9.004  0.2082  0.4383 -0.7498
41814SOL    HW143434  12.560   9.534   8.946 -1.0112  0.0242 -0.5987
41814SOL    HW243435  12.537   9.473   9.082 -0.8418 -1.4862 -1.2311
41815SOL     OW43436   2.328   5.771   8.144  0.1585 -0.0394  0.8329
41815SOL    HW143437   2.383   5.714   8.197  0.1547  0.9078  1.8998
41815SOL    HW243438   2.248   5.720   8.129  0.4943 -0.6340  1.0472
41816SOL     OW43439   0.470  11.263   8.680  0.1337 -0.1862 -0.2747
41816SOL    HW143440   0.522  11.236   8.604 -1.4031  0.5604 -1.6559
41816SOL    HW243441   0.455  11.182   8.728  0.1185 -0.8980 -1.4373
41817SOL     OW43442   5.478   9.229  12.111 -0.4379  0.0206 -0.1249
41817SOL    HW143443   5.569   9.255  12.125 -0.3547 -0.1036 -0.4176
41817SOL    HW243444   5.428   9.279  12.175  0.0013 -1.1353  1.1598
41818SOL     OW43445   4.939  11.589   7.909 -0.6127 -0.1314 -0.0546
41818SOL    HW143446   5.011  11.563   7.850  0.6780  3.2880 -0.2223
41818SOL    HW243447   4.958  11.543   7.991 -0.0492 -1.6965 -1.0060
41819SOL     OW43448  12.448  12.409   7.790 -0.5235  0.5983  0.0389
41819SOL    HW143449  12.358  12.383   7.773 -0.4203  0.1735  0.1285
41819SOL    HW243450  12.471  12.467   7.717 -0.3339 -0.5927 -0.8720
41820SOL     OW43451   0.692   9.585   8.926 -0.1863 -0.0504 -0.8326
41820SOL    HW143452   0.748   9.541   8.990 -1.1103 -0.4583 -0.2636
41820SOL    HW243453   0.676   9.671   8.964  0.8842  0.4629 -1.5048
41821SOL     OW43454   9.305  12.233   6.028  0.0997  0.1019  0.1786
41821SOL    HW143455   9.215  12.259   6.008  0.0481 -1.1006 -1.3326
41821SOL    HW243456   9.296  12.164   6.094  0.0606  1.4675  1.6478
41822SOL     OW43457   3.383   6.924  13.069 -0.5888 -0.2933 -0.1562
41822SOL    HW143458   3.301   6.912  13.020 -0.3599  0.2157 -0.6735
41822SOL    HW243459   3.371   7.007  13.115 -0.4208 -0.2939 -0.1118
41823SOL     OW43460  10.392  13.004   1.415  0.2295 -0.4799  0.4385
41823SOL    HW143461  10.341  12.951   1.476 -0.6239 -0.5151 -0.2893
41823SOL    HW243462  10.408  13.086   1.461 -0.3403 -0.5386  0.7389
41824SOL     OW43463  14.130  13.977   9.595 -0.1803  0.4710  0.9229
41824SOL    HW143464  14.109  14.035   9.668 -0.3183  0.9938  0.4723
41824SOL    HW243465  14.063  13.995   9.529 -0.5739 -0.6126  0.9908
41825SOL     OW43466   0.062   2.420  12.972 -0.1873 -0.4902  0.1546
41825SOL    HW143467   0.095   2.459  12.891 -0.3975 -0.2989  0.1578
41825SOL    HW243468   0.047   2.496  13.030  2.8983 -0.7590  1.5143
41826SOL     OW43469  11.908  13.434   4.643  0.1070 -0.5480 -0.0683
41826SOL    HW143470  11.853  13.377   4.590 -1.8089  2.0373 -1.0583
41826SOL    HW243471  11.925  13.383   4.723 -0.7910 -2.7566 -1.1993
41827SOL     OW43472  11.780  11.744   7.013  0.0506  0.0999  0.5662
41827SOL    HW143473  11.798  11.678   6.945 -0.1302  0.6730 -0.0418
41827SOL    HW243474  11.685  11.755   7.012  0.1470  0.9678  0.0939
41828SOL     OW43475  10.201   2.375  10.739  0.2988 -0.1212  0.4751
41828SOL    HW143476  10.211   2.392  10.646  0.0675 -2.1776  0.0220
41828SOL    HW243477  10.273   2.423  10.780  0.4986  0.6829 -0.7566
41829SOL     OW43478  13.283   1.936  12.020 -0.0424 -0.2720  0.3742
41829SOL    HW143479  13.243   1.898  12.098 -1.3765 -1.5724 -0.8740
41829SOL    HW243480  13.267   2.030  12.028 -0.0656 -0.3660  1.6860
41830SOL     OW43481  11.336  11.941  13.166 -0.2439  0.2885  0.6387
41830SOL    HW143482  11.319  11.977  13.253 -1.9319  0.7806  0.1527
41830SOL    HW243483  11.311  11.849  13.173 -0.9901  0.4772  0.5204
41831SOL     OW43484   7.866   3.752  12.638  0.0277  0.2688  0.1707
41831SOL    HW143485   7.892   3.691  12.707  1.8366  2.2579  1.3781
41831SOL    HW243486   7.775   3.773  12.656  0.2477  0.1237  1.4827
41832SOL     OW43487   0.162   5.477   4.213 -0.3030  0.3606  0.9760
41832SOL    HW143488   0.178   5.516   4.127 -0.4750  1.8437  1.5852
41832SOL    HW243489   0.071   5.449   4.210 -0.3386  0.4981  0.6979
41833SOL     OW43490  12.417   2.502   5.596  0.4261 -0.3265 -0.4858
41833SOL    HW143491  12.386   2.587   5.565  0.1441 -0.2089  0.0949
41833SOL    HW243492  12.512   2.510   5.599  0.5258 -0.6350 -2.1463
41834SOL     OW43493   0.498   3.181  10.810 -0.2836 -0.6004 -0.1710
41834SOL    HW143494   0.437   3.171  10.883 -0.1968 -1.3856 -0.2005
41834SOL    HW243495   0.561   3.246  10.840 -0.4889 -0.6137  0.2965
41835SOL     OW43496   6.191  11.209   2.930 -0.4544 -0.2817 -0.4095
41835SOL    HW143497   6.217  11.249   3.013  0.9895  0.4882 -1.1903
41835SOL    HW243498   6.273  11.176   2.893 -0.8764  0.4196 -2.0455
41836SOL     OW43499   7.789   9.059   6.355  0.3741 -0.2198  0.5261
41836SOL    HW143500   7.827   9.143   6.330 -0.6120 -0.3687 -1.6998
41836SOL    HW243501   7.852   8.994   6.323  0.7914 -0.3881  1.6229
41837SOL     OW43502   2.310   1.422   5.688 -0.2086 -0.7020 -0.0484
41837SOL    HW143503   2.296   1.386   5.775 -0.4688  0.9850  0.6265
41837SOL    HW243504   2.231   1.474   5.670 -0.4901 -1.5910 -1.6042
41838SOL     OW43505   6.619   5.735   3.066 -0.0495  0.2010 -0.6350
41838SOL    HW143506   6.642   5.806   3.006 -0.7443  0.3749 -0.6985
41838SOL    HW243507   6.676   5.662   3.041 -0.3489  0.2644 -1.5239
41839SOL     OW43508   6.631   9.160   9.549  0.2204 -0.3980 -0.3852
41839SOL    HW143509   6.634   9.164   9.645 -2.1332 -1.0276 -0.2321
41839SOL    HW243510   6.703   9.216   9.521  0.0990  0.9409  1.7294
41840SOL     OW43511   6.437  12.038   7.024 -0.3170 -0.6755  0.5538
41840SOL    HW143512   6.419  12.132   7.031  0.8553 -0.4882  1.3228
41840SOL    HW243513   6.450  12.023   6.930  1.1657  0.2907  0.5653
41841SOL     OW43514   8.234   3.735  13.353 -0.2620 -0.3172 -0.0767
41841SOL    HW143515   8.317   3.750  13.398  0.1401  0.1862 -0.9606
41841SOL    HW243516   8.194   3.821  13.345  0.4294 -0.1206 -2.0824
41842SOL     OW43517   1.748  12.238   1.305 -0.4671  0.0246 -0.1527
41842SOL    HW143518   1.777  12.308   1.246  0.6017 -0.6525 -0.4731
41842SOL    HW243519   1.724  12.166   1.246 -0.5417 -0.2371  0.1978
41843SOL     OW43520  13.453   0.611  13.053 -0.5571  0.1866 -0.2650
41843SOL    HW143521  13.447   0.702  13.024 -1.5352  0.1169 -0.2982
41843SOL    HW243522  13.450   0.615  13.148  0.6063  0.2638 -0.2156
41844SOL     OW43523   0.818   2.221   6.651 -0.5732 -0.3193 -0.1048
41844SOL    HW143524   0.843   2.140   6.608 -0.4806 -0.8545  0.9301
41844SOL    HW243525   0.845   2.290   6.591  1.0140 -0.9803 -0.1828
41845SOL     OW43526  14.058   4.055  12.976 -0.3087  0.4010 -0.3178
41845SOL    HW143527  13.969   4.091  12.979 -0.5749 -0.3138  1.4043
41845SOL    HW243528  14.105   4.113  12.916 -2.2350  0.0667 -2.2642
41846SOL     OW43529   2.413  12.038   8.661  0.0834  0.1942  0.7018
41846SOL    HW143530   2.407  11.944   8.643 -0.0898  0.2824  0.2724
41846SOL    HW243531   2.506  12.058   8.654 -0.1298  0.6403 -2.4450
41847SOL     OW43532   3.258   0.351  13.290 -0.7291 -0.4128  0.6041
41847SOL    HW143533   3.282   0.400  13.211 -0.7861  0.4176  1.0895
41847SOL    HW243534   3.337   0.353  13.344 -1.5776  1.7250  1.9068
41848SOL     OW43535   6.790   2.406   7.040  0.2763 -0.6580  0.2927
41848SOL    HW143536   6.733   2.480   7.060 -0.2886 -1.3414  1.2745
41848SOL    HW243537   6.787   2.400   6.944 -1.0820 -0.4862  0.2956
41849SOL     OW43538   2.513   3.256  13.463  0.1651 -0.2611  0.5546
41849SOL    HW143539   2.539   3.289  13.378  0.3161 -1.1401  0.2430
41849SOL    HW243540   2.475   3.331  13.508 -0.3654  0.0992 -0.4678
41850SOL     OW43541  13.984  11.074   2.730  0.0823  0.2894 -0.0410
41850SOL    HW143542  14.031  11.153   2.754  0.4500  0.0351  0.0776
41850SOL    HW243543  13.941  11.046   2.810 -1.2582  1.1741 -0.4106
41851SOL     OW43544  10.551   6.629   6.532 -0.0341 -0.4404 -0.2769
41851SOL    HW143545  10.497   6.655   6.457 -0.8577 -0.2882  0.3587
41851SOL    HW243546  10.551   6.705   6.589  0.4295 -0.6269 -0.0246
41852SOL     OW43547   7.052   4.398   8.329 -0.7780 -0.0510 -0.3573
41852SOL    HW143548   7.068   4.469   8.391 -0.5511  1.2713 -1.8601
41852SOL    HW243549   7.137   4.354   8.321 -0.3055  0.9402 -1.0893
41853SOL     OW43550   5.148   2.675  13.300 -0.3799 -0.1376  0.1612
41853SOL    HW143551   5.136   2.592  13.254 -0.0155 -0.2276  0.2278
41853SOL    HW243552   5.209   2.725  13.246 -0.1880 -0.1225  0.3920
41854SOL     OW43553   1.047   8.046   7.463  0.0962  0.1465 -0.5029
41854SOL    HW143554   1.051   8.119   7.525 -2.2855  1.2544 -1.5353
41854SOL    HW243555   1.088   8.081   7.383  0.0199 -0.0694 -0.6371
41855SOL     OW43556   3.349   1.465   3.654 -0.2047  0.5835 -0.6985
41855SOL    HW143557   3.288   1.397   3.625 -0.6344  0.1629  1.0636
41855SOL    HW243558   3.293   1.530   3.696  0.4938  0.4096  0.5419
41856SOL     OW43559   7.740  10.471   2.357  0.2467  0.3186 -0.2309
41856SOL    HW143560   7.770  10.503   2.442 -0.6804  2.0505 -0.5097
41856SOL    HW243561   7.696  10.388   2.377  2.3154 -0.6302  0.5848
41857SOL     OW43562   9.488   9.368   4.358 -0.9420 -0.0332  0.2445
41857SOL    HW143563   9.401   9.402   4.338 -1.0208 -0.9558 -1.0393
41857SOL    HW243564   9.483   9.275   4.339  0.7393  0.1456 -1.3299
41858SOL     OW43565   5.182   4.380  13.725 -0.1449  0.5868  0.2168
41858SOL    HW143566   5.248   4.433  13.771  0.2054  1.0153 -0.7335
41858SOL    HW243567   5.138   4.442  13.667 -0.4551  0.0393 -0.1467
41859SOL     OW43568   4.532  12.016   6.610  0.0504 -0.4034 -1.0139
41859SOL    HW143569   4.594  11.944   6.595  0.3094 -1.0902  2.5299
41859SOL    HW243570   4.578  12.075   6.670 -0.9729  1.6983 -2.1882
41860SOL     OW43571   4.364  12.331  13.158  0.1675  0.5888  0.2996
41860SOL    HW143572   4.313  12.374  13.090  0.3920 -0.6708 -0.7064
41860SOL    HW243573   4.432  12.395  13.180  0.8124  0.6050 -1.5205
41861SOL     OW43574   8.075  12.022   6.365  0.1878  0.1051  0.0167
41861SOL    HW143575   8.166  12.042   6.346 -0.0706  0.6879 -0.6510
41861SOL    HW243576   8.054  11.948   6.308  0.1498  0.1932 -0.0854
41862SOL     OW43577   6.501   6.373  13.274 -0.0457 -0.3343 -0.5978
41862SOL    HW143578   6.569   6.383  13.341 -0.5635  1.8925 -0.3425
41862SOL    HW243579   6.419   6.376  13.322 -0.4206  1.1511 -1.2865
41863SOL     OW43580   3.208   1.815   8.027 -0.6564  0.7072  0.3748
41863SOL    HW143581   3.182   1.735   8.074  1.9951 -0.1621  0.5456
41863SOL    HW243582   3.276   1.853   8.083  0.6317  1.1300 -1.4165
41864SOL     OW43583  13.763   1.669  10.692  0.1781 -0.1435 -0.6846
41864SOL    HW143584  13.797   1.712  10.613  0.9809  1.5619  0.5338
41864SOL    HW243585  13.729   1.741  10.746  0.9560 -1.0987  1.1628
41865SOL     OW43586  13.198   4.614   4.473 -0.4648 -0.0528  0.2801
41865SOL    HW143587  13.114   4.628   4.428  0.1364  0.4985 -0.7007
41865SOL    HW243588  13.224   4.701   4.503  0.4339  0.0163 -0.6601
41866SOL     OW43589  12.450  13.311  12.424 -0.1713 -0.3419  0.2031
41866SOL    HW143590  12.483  13.381  12.481 -2.9254 -0.6472  2.3846
41866SOL    HW243591  12.428  13.356  12.342  0.0309  0.9274  0.8188
41867SOL     OW43592   2.492  10.574   1.557 -0.0367  0.3662  0.7295
41867SOL    HW143593   2.459  10.487   1.535  0.3188  0.5334 -0.5713
41867SOL    HW243594   2.414  10.630   1.557 -0.4062 -0.0890  2.5063
41868SOL     OW43595  10.481   4.765   7.138 -0.3369 -0.0709 -0.0166
41868SOL    HW143596  10.462   4.672   7.140 -0.3808 -0.1087 -1.2852
41868SOL    HW243597  10.401   4.806   7.104  0.5660  0.1177 -2.0740
41869SOL     OW43598   0.557   1.811   1.126  0.2395 -0.8844  0.6210
41869SOL    HW143599   0.620   1.741   1.146  0.0548 -1.3459 -0.3911
41869SOL    HW243600   0.491   1.770   1.071  1.0251  0.4513 -1.4328
41870SOL     OW43601   4.197   4.714   9.911  0.0593 -0.2633  0.3360
41870SOL    HW143602   4.227   4.805   9.912 -1.1289  0.1364  1.0174
41870SOL    HW243603   4.202   4.686  10.002  0.0967 -0.7913  0.1780
41871SOL     OW43604  12.667   4.560   0.462 -0.1286  0.8632 -0.0845
41871SOL    HW143605  12.756   4.595   0.463 -0.2995  1.3081  0.7237
41871SOL    HW243606  12.631   4.589   0.379 -0.4800  3.2447  0.8191
41872SOL     OW43607   1.648  13.781  12.800 -0.1324  0.3019 -0.1323
41872SOL    HW143608   1.654  13.817  12.888 -0.3775 -0.5952  0.2651
41872SOL    HW243609   1.697  13.843  12.745  3.6346 -1.1716  1.2613
41873SOL     OW43610  12.179  13.921   2.665  0.0958 -0.0360 -0.3444
41873SOL    HW143611  12.256  13.967   2.630  0.2264 -2.7565 -4.2141
41873SOL    HW243612  12.212  13.834   2.688 -1.2786 -0.2305  1.0513
41874SOL     OW43613   3.787  14.155   8.048 -0.2158 -0.0641  0.1921
41874SOL    HW143614   3.709  14.211   8.042 -1.6945 -2.1759 -2.4305
41874SOL    HW243615   3.752  14.068   8.071  1.4473 -0.9234 -0.3678
41875SOL     OW43616   5.420   0.218   8.742 -0.3877 -0.8858 -0.2915
41875SOL    HW143617   5.454   0.169   8.667 -2.7462 -1.4757 -1.0568
41875SOL    HW243618   5.463   0.304   8.735  0.9946 -1.5968 -1.0828
41876SOL     OW43619  12.737   2.904  11.294  0.7519 -0.0505  0.0199
41876SOL    HW143620  12.747   2.959  11.372 -0.1159 -1.3236  1.0649
41876SOL    HW243621  12.822   2.909  11.251  1.2309  0.7521  1.0117
41877SOL     OW43622   3.495   0.261  10.176 -0.4097  0.1708 -0.4660
41877SOL    HW143623   3.437   0.190  10.150 -0.8420 -0.0057  0.8848
41877SOL    HW243624   3.448   0.305  10.247  0.8037  0.4658  0.1767
41878SOL     OW43625   8.630   2.840  12.455 -0.7400  0.2662 -0.2836
41878SOL    HW143626   8.553   2.800  12.414  0.1691 -1.0763 -0.7691
41878SOL    HW243627   8.689   2.858  12.382 -0.4691  1.0323  0.1100
41879SOL     OW43628   0.372  11.199   1.067 -0.4864 -0.4965 -0.1239
41879SOL    HW143629   0.323  11.188   1.149  2.0385 -0.6314  1.4822
41879SOL    HW243630   0.374  11.112   1.028 -1.1756 -0.5644 -0.0151
41880SOL     OW43631  11.832  13.957  11.552  0.0333  0.1938  0.1902
41880SOL    HW143632  11.883  13.895  11.500  1.8688  0.9228  1.0273
41880SOL    HW243633  11.767  13.991  11.491  1.7094  0.5707 -1.4961
41881SOL     OW43634   4.464   9.364   6.804 -0.2573  0.0459  0.5715
41881SOL    HW143635   4.538   9.424   6.796  0.4278 -0.7515  0.6679
41881SOL    HW243636   4.395   9.415   6.846 -0.0948  1.0828 -0.3703
41882SOL     OW43637  12.496   7.699  10.771 -0.3219 -0.2753  0.2392
41882SOL    HW143638  12.494   7.784  10.815 -1.2253 -0.1913  0.0598
41882SOL    HW243639  12.404   7.670  10.771 -0.1997 -0.7012 -0.7538
41883SOL     OW43640   1.976   3.866   6.993  0.3835 -0.2322 -0.3602
41883SOL    HW143641   1.929   3.896   7.071  0.4982  0.8393 -0.6793
41883SOL    HW243642   2.067   3.891   7.009  0.4497 -0.2445 -0.7187
41884SOL     OW43643  13.558  10.848   8.700  0.0137  0.2549  0.0172
41884SOL    HW143644  13.576  10.808   8.615  0.5461 -0.3789  0.4142
41884SOL    HW243645  13.550  10.774   8.760 -0.1309  0.7061  0.5651
41885SOL     OW43646   2.329   1.434   6.414 -0.2447 -0.0880 -0.4802
41885SOL    HW143647   2.332   1.388   6.498 -0.1402 -0.1643 -0.5268
41885SOL    HW243648   2.236   1.442   6.394 -0.3086  0.6989  0.0741
41886SOL     OW43649  10.003  10.419   6.280  0.1367 -0.1734  0.0411
41886SOL    HW143650   9.996  10.509   6.249 -0.4058 -0.1154  0.3296
41886SOL    HW243651   9.944  10.414   6.355  0.6174 -0.6082  0.4030
41887SOL     OW43652   7.596   6.324  12.461 -0.0639  0.5616 -0.1206
41887SOL    HW143653   7.567   6.250  12.514 -2.5450  2.9612  2.2233
41887SOL    HW243654   7.687   6.337  12.486 -0.5992  0.3918  2.1918
41888SOL     OW43655  13.324   9.618  12.194  0.2495 -0.5383 -0.4055
41888SOL    HW143656  13.343   9.595  12.104  0.3345  1.1887 -0.8651
41888SOL    HW243657  13.242   9.574  12.214 -0.8015  0.5927 -1.9999
41889SOL     OW43658   6.081   5.921   4.021 -0.3621 -0.7484  0.5741
41889SOL    HW143659   6.021   5.855   3.985 -1.0311 -1.1971  2.3817
41889SOL    HW243660   6.034   6.004   4.013  0.6818 -0.2912 -2.1757
41890SOL     OW43661   6.581   0.039   2.117 -0.6543 -0.2565 -0.1961
41890SOL    HW143662   6.581  -0.011   2.035  0.0817  0.2819 -0.5377
41890SOL    HW243663   6.528   0.116   2.098 -1.3422 -0.6375  0.1624
41891SOL     OW43664  10.448  12.500   3.784  0.0991  0.5552  0.0207
41891SOL    HW143665  10.377  12.452   3.741 -0.0034  2.1869 -1.7599
41891SOL    HW243666  10.404  12.554   3.850 -0.0573  0.0013  0.3755
41892SOL     OW43667   7.287   4.725   2.311  0.0390 -0.1083  0.4420
41892SOL    HW143668   7.370   4.729   2.357 -0.6379  2.3552  1.6437
41892SOL    HW243669   7.263   4.632   2.312  1.4449 -0.5066  2.4981
41893SOL     OW43670  11.630  11.989   0.010  0.8941  0.3310  0.0828
41893SOL    HW143671  11.541  12.024   0.005  0.9234  0.8144  1.9029
41893SOL    HW243672  11.622  11.898  -0.020 -0.8574 -0.5443  2.7361
41894SOL     OW43673   9.038   9.235   7.094  0.4384  0.1227  0.0728
41894SOL    HW143674   9.105   9.255   7.029  0.8931 -1.1581  0.1252
41894SOL    HW243675   9.061   9.147   7.126 -0.2203  0.4077  1.3939
41895SOL     OW43676   8.756  11.412   4.161 -0.3681  0.4612 -0.1058
41895SOL    HW143677   8.749  11.504   4.187 -3.1195  0.9882 -2.2156
41895SOL    HW243678   8.699  11.365   4.223 -0.9610  0.5900 -0.5426
41896SOL     OW43679   7.719   2.341  11.731 -0.1138  0.4513 -0.4264
41896SOL    HW143680   7.750   2.386  11.652  2.4331  0.6039  0.5625
41896SOL    HW243681   7.710   2.410  11.797 -1.4392  0.2085 -0.3193
41897SOL     OW43682  12.659   3.431   6.039  1.0921  0.1054 -0.6628
41897SOL    HW143683  12.642   3.364   6.105  2.2297  1.2086  0.8434
41897SOL    HW243684  12.574   3.445   5.997  0.8356 -2.2325 -1.0361
41898SOL     OW43685   9.191   8.442   8.624 -0.4116 -0.1923  0.2808
41898SOL    HW143686   9.262   8.379   8.637  0.6634  0.8427 -0.3443
41898SOL    HW243687   9.111   8.391   8.635  0.4156 -1.3155  1.4053
41899SOL     OW43688   5.110   0.910   2.808 -0.2011 -0.3458  0.4892
41899SOL    HW143689   5.043   0.977   2.815 -1.4873 -1.4878 -0.4557
41899SOL    HW243690   5.062   0.827   2.808  1.2624 -1.2308  0.5547
41900SOL     OW43691  13.720   1.978   1.589 -0.1991 -0.2503  0.0850
41900SOL    HW143692  13.806   2.011   1.560  1.0308 -2.4137  1.0488
41900SOL    HW243693  13.681   1.941   1.509  0.3694 -0.4661 -0.1003
41901SOL     OW43694   9.951   3.827  11.761 -0.2450 -0.1788 -0.4947
41901SOL    HW143695   9.999   3.840  11.843 -0.2019 -0.1146 -0.5299
41901SOL    HW243696   9.872   3.881  11.770 -0.2952 -0.2598 -0.4496
41902SOL     OW43697   6.882   2.798  12.161  0.2266 -0.4484 -0.0474
41902SOL    HW143698   6.975   2.780  12.178 -0.3140 -1.6557  2.0523
41902SOL    HW243699   6.864   2.879  12.209 -0.0094 -0.7591  0.3990
41903SOL     OW43700  10.175   0.342   6.553 -0.3203 -0.2357 -0.6167
41903SOL    HW143701  10.132   0.341   6.639  0.0354  1.6340 -0.3667
41903SOL    HW243702  10.113   0.386   6.495 -0.1948 -0.7183 -1.1277
41904SOL     OW43703  10.769   5.330   4.100 -0.4293 -0.2938 -0.2553
41904SOL    HW143704  10.686   5.307   4.141 -0.9503  0.2737 -0.9706
41904SOL    HW243705  10.770   5.426   4.098  0.5618 -0.2661  0.3633
41905SOL     OW43706   5.968  13.416   2.581 -0.7907  0.3645 -0.2813
41905SOL    HW143707   6.008  13.343   2.628 -1.2859 -0.2366 -0.7831
41905SOL    HW243708   5.883  13.383   2.552 -0.9025  1.0469 -0.7620
41906SOL     OW43709   6.236  11.075   9.472  0.2684 -0.1950 -0.0651
41906SOL    HW143710   6.208  11.163   9.496 -1.7293 -0.4387 -1.2560
41906SOL    HW243711   6.327  11.085   9.444 -0.3632  1.8091 -1.6418
41907SOL     OW43712   1.095   5.894   9.330 -0.5248 -0.0217 -0.3281
41907SOL    HW143713   1.065   5.816   9.283 -0.7821 -0.2542  0.2078
41907SOL    HW243714   1.097   5.963   9.264 -0.3445 -0.4659 -0.8003
41908SOL     OW43715  10.566  11.818   7.349 -0.3341 -0.3820  0.5364
41908SOL    HW143716  10.661  11.806   7.354 -0.3420 -1.0101 -0.5004
41908SOL    HW243717  10.543  11.791   7.260 -1.3400  0.8665  0.3883
41909SOL     OW43718   8.382   9.323   8.463 -0.0986 -0.5018  0.3707
41909SOL    HW143719   8.291   9.294   8.474 -0.2271  0.0921  0.9245
41909SOL    HW243720   8.394   9.391   8.529  0.0619  1.0077 -1.1321
41910SOL     OW43721  13.489  10.988   2.802  0.2647  0.0464 -0.1293
41910SOL    HW143722  13.397  10.981   2.828  0.7596  2.0437  2.6559
41910SOL    HW243723  13.493  11.068   2.750  0.5408  0.4270  0.4698
41911SOL     OW43724   9.193   1.918   6.084  0.0852  0.5119 -0.3573
41911SOL    HW143725   9.170   1.873   6.165  3.3406  0.8735  0.9056
41911SOL    HW243726   9.153   1.863   6.015  1.8065 -3.0517  1.2112
41912SOL     OW43727   1.635   5.243  10.026 -0.6472  0.3347 -0.2604
41912SOL    HW143728   1.639   5.187   9.949 -0.7995 -0.9828  0.6493
41912SOL    HW243729   1.548   5.282  10.023 -0.5841  0.4414 -0.8393
41913SOL     OW43730   4.741   5.549   0.054 -0.2595 -0.1688 -0.1055
41913SOL    HW143731   4.674   5.617   0.051  1.1883  1.5724  2.7697
41913SOL    HW243732   4.691   5.467   0.049 -2.4929  1.0490  0.6011
41914SOL     OW43733   9.419   4.158  12.934 -0.1476 -0.8624  0.3552
41914SOL    HW143734   9.456   4.084  12.981  0.3418 -0.5683  0.4407
41914SOL    HW243735   9.487   4.183  12.872 -0.9114 -1.4597 -0.7604
41915SOL     OW43736   7.322  12.437  13.475  0.2083 -0.3531  0.3145
41915SOL    HW143737   7.247  12.378  13.479 -1.2930  1.5192  1.7488
41915SOL    HW243738   7.397  12.383  13.499 -0.9100 -1.9345  0.3646
41916SOL     OW43739   1.992   8.479   5.770  0.0033 -0.3663  0.9223
41916SOL    HW143740   1.919   8.465   5.829 -0.0722 -0.4491  0.8112
41916SOL    HW243741   2.009   8.573   5.773  0.2194 -0.4184  1.3327
41917SOL     OW43742   1.168  11.129   1.764  0.4450  0.7350  1.0019
41917SOL    HW143743   1.185  11.141   1.671  1.8660  1.8090  1.3768
41917SOL    HW243744   1.072  11.133   1.771  0.2657 -0.2049 -0.4957
41918SOL     OW43745  10.864   6.428   5.043 -0.6067  0.3305  0.0586
41918SOL    HW143746  10.848   6.385   5.127 -0.7217 -0.0570 -0.1576
41918SOL    HW243747  10.823   6.370   4.978  0.5733 -0.0407 -0.3890
41919SOL     OW43748   6.145   2.848   2.502 -0.2019 -0.0074 -0.4181
41919SOL    HW143749   6.224   2.875   2.454 -0.7813  2.1226 -0.2896
41919SOL    HW243750   6.176   2.784   2.566  1.4608  0.9030 -0.2697
41920SOL     OW43751   3.666   3.797  11.145 -0.2889 -0.1351 -0.2717
41920SOL    HW143752   3.746   3.773  11.193  0.5187 -2.2784 -2.4732
41920SOL    HW243753   3.604   3.823  11.213  2.0165  0.8728  1.5764
41921SOL     OW43754   5.195   1.206  13.458 -0.3681  0.1968 -0.0506
41921SOL    HW143755   5.232   1.175  13.375 -0.2247 -1.5871  0.6400
41921SOL    HW243756   5.100   1.200  13.444 -0.3502  0.5351 -0.3183
41922SOL     OW43757   6.212   9.428  11.423 -0.1319 -0.1305 -0.2416
41922SOL    HW143758   6.190   9.351  11.476  1.7643 -0.3698  0.2892
41922SOL    HW243759   6.202   9.398  11.333  0.9572 -1.1734 -0.0532
41923SOL     OW43760   5.373  10.974  12.056  0.0306  0.3720  0.6201
41923SOL    HW143761   5.454  10.985  12.006 -0.4225  2.3725  0.2444
41923SOL    HW243762   5.308  11.026  12.009 -1.9533 -2.3815  0.0171
41924SOL     OW43763   0.993   8.426   8.036  0.4103  0.3032  0.0496
41924SOL    HW143764   0.944   8.371   7.975  0.9861  1.2169 -1.2646
41924SOL    HW243765   1.085   8.403   8.020  0.5464 -0.0773  1.2176
41925SOL     OW43766  12.304   5.170  10.733 -0.1558 -0.4512  0.0548
41925SOL    HW143767  12.266   5.247  10.775 -1.2437  0.1893 -2.0031
41925SOL    HW243768  12.398   5.190  10.728 -0.1488 -0.1084  1.2093
41926SOL     OW43769   9.065   1.934   4.851 -0.0088  0.0152  0.4909
41926SOL    HW143770   8.999   1.972   4.792  1.6224 -0.8805 -2.1110
41926SOL    HW243771   9.123   2.007   4.871  0.6632 -0.0845 -0.9260
41927SOL     OW43772  11.304   2.851   9.288  0.2702  0.3033 -0.2343
41927SOL    HW143773  11.346   2.936   9.298 -2.7193  2.1635 -2.0767
41927SOL    HW243774  11.298   2.837   9.194 -1.8394 -0.5434 -0.0308
41928SOL     OW43775   6.529   0.397  11.467 -0.0559 -0.1012 -0.3005
41928SOL    HW143776   6.553   0.313  11.427 -2.1386 -0.6593 -0.5101
41928SOL    HW243777   6.603   0.419  11.523  1.0209 -1.5144 -1.0968
41929SOL     OW43778  11.769  10.748   9.635 -0.1512 -0.0121 -0.0657
41929SOL    HW143779  11.691  10.733   9.688 -0.7652  1.4428 -0.4822
41929SOL    HW243780  11.736  10.750   9.545  0.6365 -0.9499 -0.3896
41930SOL     OW43781   5.760   3.906  13.020  0.4350 -0.0321  0.6871
41930SOL    HW143782   5.737   3.857  12.941  2.2203  0.5662 -0.2520
41930SOL    HW243783   5.817   3.976  12.989 -1.8785  2.5969  2.0191
41931SOL     OW43784  13.412   0.594   0.215  0.2395 -0.5327  0.3438
41931SOL    HW143785  13.452   0.534   0.153  0.8869  0.1109  0.1181
41931SOL    HW243786  13.482   0.614   0.278  0.3191  0.6660 -0.0983
41932SOL     OW43787  10.175  10.522  10.454 -0.2790  0.4505  0.1037
41932SOL    HW143788  10.125  10.453  10.409  1.4209 -0.6276 -0.2281
41932SOL    HW243789  10.171  10.597  10.394 -1.1841  0.2718 -0.0744
41933SOL     OW43790   8.572   8.979   0.570 -0.9930  0.2281 -0.3583
41933SOL    HW143791   8.541   8.933   0.648  0.0505  0.1329  0.0107
41933SOL    HW243792   8.631   9.046   0.603  0.0332 -0.2897 -1.1088
41934SOL     OW43793   7.389   3.543   6.807  0.3460 -0.2032 -0.0036
41934SOL    HW143794   7.470   3.556   6.858 -0.7532  0.0321  1.7612
41934SOL    HW243795   7.355   3.459   6.837  0.3668 -0.7418 -1.4079
41935SOL     OW43796  13.911   3.314   9.397 -0.0641  0.8015  0.0485
41935SOL    HW143797  13.845   3.268   9.345 -0.2328  1.2320 -0.1194
41935SOL    HW243798  13.914   3.402   9.360  0.9008  0.6723 -0.2256
41936SOL     OW43799   5.631   5.284   1.662 -0.4740  0.5665  0.7593
41936SOL    HW143800   5.723   5.305   1.675 -0.2443 -0.1125  0.2391
41936SOL    HW243801   5.603   5.344   1.592  0.4816 -1.4932 -1.5574
41937SOL     OW43802   5.341   8.327   6.193  0.5375  0.4088 -0.2343
41937SOL    HW143803   5.325   8.391   6.262  0.4101  0.8380 -0.6546
41937SOL    HW243804   5.323   8.374   6.112 -0.6027 -0.4600 -0.5145
41938SOL     OW43805  11.711  10.800   2.611  0.7921 -0.3440 -0.2856
41938SOL    HW143806  11.631  10.749   2.615 -1.6126  3.1015  2.7926
41938SOL    HW243807  11.763  10.770   2.686 -1.2244  2.1308  2.3714
41939SOL     OW43808   9.627  11.092   5.710 -0.6438  0.2840  0.5367
41939SOL    HW143809   9.572  11.017   5.689 -0.5501 -0.0715  1.5167
41939SOL    HW243810   9.569  11.153   5.755 -0.7768  0.9076 -0.4638
41940SOL     OW43811   8.287   8.882   4.004  0.1284 -0.0265 -0.2046
41940SOL    HW143812   8.277   8.966   4.049 -0.4524  0.4873 -1.2650
41940SOL    HW243813   8.263   8.817   4.070 -1.2922  0.7340  0.0605
41941SOL     OW43814   2.086   1.438   6.980 -0.6751 -0.0501  0.1717
41941SOL    HW143815   2.071   1.441   7.074  0.1990 -0.5032  0.3347
41941SOL    HW243816   2.083   1.345   6.958 -0.8652  0.0501 -0.2513
41942SOL     OW43817   9.046   2.389   0.869  0.1895 -0.1992  0.0047
41942SOL    HW143818   9.011   2.324   0.808 -2.2947  0.0008  1.0769
41942SOL    HW243819   9.078   2.460   0.813 -0.5233 -0.7180 -1.0974
41943SOL     OW43820   5.026   7.110   5.307  0.5502  0.1717 -0.2498
41943SOL    HW143821   4.974   7.070   5.377 -1.2434  2.6296 -0.0185
41943SOL    HW243822   5.105   7.142   5.351 -0.2285  1.0608  0.5529
41944SOL     OW43823   0.946   2.761   5.132  0.2857  0.8337  0.2646
41944SOL    HW143824   0.880   2.752   5.201 -0.6041 -2.2814 -0.8449
41944SOL    HW243825   1.018   2.807   5.175 -0.2888 -0.7818  3.2782
41945SOL     OW43826  13.014  11.170   0.607  0.1733 -0.2916 -0.2703
41945SOL    HW143827  13.025  11.264   0.593  0.0220 -0.1500  0.5014
41945SOL    HW243828  12.929  11.162   0.651  1.5722 -0.4316  2.6972
41946SOL     OW43829   7.717  13.937   8.072 -0.3782 -0.0640 -0.0428
41946SOL    HW143830   7.651  13.983   8.020 -1.7740 -1.1817  0.6685
41946SOL    HW243831   7.666  13.877   8.127  1.2565 -1.1961  0.2993
41947SOL     OW43832   7.910   5.545   9.985  0.1094 -0.1771  0.3235
41947SOL    HW143833   7.894   5.506  10.070  0.1008 -0.4630  0.1904
41947SOL    HW243834   7.927   5.471   9.927 -0.3168 -0.0148 -0.0172
41948SOL     OW43835   3.299  10.618   9.280  0.3624 -0.3987 -0.0106
41948SOL    HW143836   3.204  10.614   9.285  0.4040 -0.8335  0.4763
41948SOL    HW243837   3.319  10.615   9.187 -0.0251 -2.3259 -0.0589
41949SOL     OW43838  13.739   3.122  11.529  0.0013  0.3876  0.2602
41949SOL    HW143839  13.818   3.068  11.532  0.4271  0.8829 -1.1047
41949SOL    HW243840  13.672   3.066  11.490  0.7357  1.1020 -2.2167
41950SOL     OW43841  11.952  11.506   1.240  0.1742 -0.0455 -0.2530
41950SOL    HW143842  12.004  11.567   1.187 -0.0782  1.0748  0.7708
41950SOL    HW243843  11.888  11.560   1.285 -1.6299 -1.3423 -1.1045
41951SOL     OW43844  11.284  10.057   0.912  0.3456  0.4278  0.4430
41951SOL    HW143845  11.261   9.996   0.981  0.5545  1.1414  1.1551
41951SOL    HW243846  11.362  10.020   0.872  0.2141  0.0061  0.5680
41952SOL     OW43847   9.024   7.034   9.492 -0.0478  0.4329  0.4705
41952SOL    HW143848   8.932   7.055   9.480  0.2576  0.7466 -1.6819
41952SOL    HW243849   9.066   7.060   9.410  2.0768  0.9335  1.6346
41953SOL     OW43850  13.504   4.941   7.985  0.4675  0.1413  0.3602
41953SOL    HW143851  13.532   4.862   7.939  0.1247  0.8063 -1.0334
41953SOL    HW243852  13.414   4.922   8.014  1.1512 -0.7870  2.0152
41954SOL     OW43853  12.067   3.906   1.946  0.0305  0.3152  0.6149
41954SOL    HW143854  12.158   3.878   1.945  0.4934  1.4504  3.2073
41954SOL    HW243855  12.054   3.945   2.033 -1.7205  4.2187 -1.1383
41955SOL     OW43856   6.939  10.110  13.891  0.3153  0.3204  0.0018
41955SOL    HW143857   7.028  10.144  13.877  0.0115  0.8850 -0.5878
41955SOL    HW243858   6.942  10.020  13.860  0.2503  0.8497 -1.6049
41956SOL     OW43859  12.396   1.982   7.477  0.3191 -0.0300 -0.5560
41956SOL    HW143860  12.341   1.955   7.550  0.3088 -0.7517 -0.8217
41956SOL    HW243861  12.465   1.916   7.473 -0.1554 -0.4836 -1.7180
41957SOL     OW43862  10.334   8.838  13.270  0.9875  0.2153 -0.2068
41957SOL    HW143863  10.397   8.876  13.332 -0.9360  0.8471  1.4821
41957SOL    HW243864  10.278   8.912  13.245  0.8759 -0.3358 -1.6435
41958SOL     OW43865  12.426   9.957  11.886  0.0998  0.3615  0.0392
41958SOL    HW143866  12.363  10.027  11.869  0.7983  1.1100  0.4851
41958SOL    HW243867  12.458   9.974  11.975 -0.0133 -0.7540  0.3065
41959SOL     OW43868  11.313  12.958  10.478  0.3377  0.0580  0.5092
41959SOL    HW143869  11.218  12.957  10.484  0.3141 -0.5444  0.1308
41959SOL    HW243870  11.334  12.884  10.421  0.9826  0.7134 -0.1288
41960SOL     OW43871   0.727  13.242   8.211  0.4814 -0.0319 -0.2322
41960SOL    HW143872   0.796  13.308   8.222 -0.2497  1.0988 -1.9751
41960SOL    HW243873   0.675  13.274   8.138 -1.6672 -1.0698  0.7471
41961SOL     OW43874   2.463  12.698  12.675  0.1837  0.6302 -0.3687
41961SOL    HW143875   2.456  12.792  12.660 -0.5841  0.6444  0.0531
41961SOL    HW243876   2.380  12.662  12.644 -0.4521  0.3718  1.5378
41962SOL     OW43877   9.276   8.032   4.303 -0.7504  0.1925  0.3348
41962SOL    HW143878   9.246   8.122   4.318 -0.2201  0.4915 -0.3407
41962SOL    HW243879   9.371   8.040   4.292 -0.8056 -0.3236 -0.6396
41963SOL     OW43880   8.857  10.284   6.883  0.1027 -0.6752 -0.0191
41963SOL    HW143881   8.945  10.294   6.919  0.7388  0.0540 -1.6663
41963SOL    HW243882   8.828  10.374   6.866 -0.5675 -0.9504 -0.3569
41964SOL     OW43883  11.287   1.666   8.939  0.2341  0.1487  0.3913
41964SOL    HW143884  11.279   1.573   8.919  1.6835 -0.2566  1.4522
41964SOL    HW243885  11.298   1.669   9.035  3.4003  1.0570  0.1387
41965SOL     OW43886   3.784  12.211   3.490 -0.2200  0.1910  0.5046
41965SOL    HW143887   3.843  12.230   3.562 -0.3105  1.1724  0.3348
41965SOL    HW243888   3.758  12.297   3.457 -2.0562 -0.1968  0.8241
41966SOL     OW43889   8.446   3.098  11.885  0.0246  0.3276  0.3543
41966SOL    HW143890   8.517   3.097  11.820 -1.0819 -0.0381 -0.8811
41966SOL    HW243891   8.477   3.039  11.954  0.3864 -0.8574 -0.7733
41967SOL     OW43892   3.721  11.343   6.464  0.2796 -0.0426 -0.0668
41967SOL    HW143893   3.638  11.381   6.494 -0.7651 -1.4856 -0.9882
41967SOL    HW243894   3.712  11.339   6.368  1.2558 -0.5948 -0.1506
41968SOL     OW43895   2.118  10.365   5.482  0.3260  0.0057  0.3010
41968SOL    HW143896   2.181  10.294   5.476  1.3091  0.9852 -2.3370
41968SOL    HW243897   2.092  10.382   5.392 -2.3490  0.8766  1.1459
41969SOL     OW43898   7.628   5.268   7.249  0.2498  0.1064 -0.1999
41969SOL    HW143899   7.576   5.254   7.329  0.1536 -1.3327 -0.4918
41969SOL    HW243900   7.567   5.249   7.178  1.2413 -2.0717 -0.5454
41970SOL     OW43901   3.853   7.360   4.247  0.4524  0.1603  0.3279
41970SOL    HW143902   3.864   7.309   4.167  0.6430  0.0817  0.4039
41970SOL    HW243903   3.936   7.350   4.294 -0.1646 -1.0462  1.2582
41971SOL     OW43904   6.362   5.820   9.439  0.0355  0.1297  0.3791
41971SOL    HW143905   6.408   5.882   9.496  0.2455  0.4807 -0.1647
41971SOL    HW243906   6.353   5.741   9.492  2.1696 -0.3050  0.1705
41972SOL     OW43907   8.223  12.154  13.911  0.4551  0.1700  0.0032
41972SOL    HW143908   8.175  12.076  13.940 -1.1897  1.7868  1.9878
41972SOL    HW243909   8.292  12.120  13.855 -0.2773 -2.6936  0.6515
41973SOL     OW43910   2.627  11.005   9.991 -0.0133 -0.3001  0.1525
41973SOL    HW143911   2.688  10.934  10.011 -0.7506 -1.4309 -1.4511
41973SOL    HW243912   2.664  11.048   9.914 -0.5331 -0.1190  0.0015
41974SOL     OW43913  10.626  10.240  13.086  0.0969  0.2078 -0.0767
41974SOL    HW143914  10.580  10.213  13.166 -1.2224  1.8940 -0.1929
41974SOL    HW243915  10.707  10.280  13.117  0.1878 -0.2690  0.3209
41975SOL     OW43916  12.162   6.384  13.910  0.5788 -0.2587  0.1702
41975SOL    HW143917  12.077   6.348  13.883  1.1914 -1.4774 -0.1760
41975SOL    HW243918  12.180   6.452  13.844 -0.8800  1.2109  1.1935
41976SOL     OW43919  11.316   5.892   8.830 -0.0709 -0.2221 -0.5190
41976SOL    HW143920  11.280   5.830   8.767  0.9662 -0.7485 -0.6077
41976SOL    HW243921  11.410   5.892   8.813  0.2112 -0.2401  0.9111
41977SOL     OW43922   8.944  11.398   5.206 -0.2986  0.2255 -0.2177
41977SOL    HW143923   8.896  11.351   5.137  0.1024  0.9624 -1.0243
41977SOL    HW243924   9.027  11.350   5.214 -0.5567 -0.1629  0.1097
41978SOL     OW43925   5.076   9.898  13.487  0.1204 -0.4569  0.2521
41978SOL    HW143926   5.035   9.936  13.564 -1.6770 -1.4746 -0.1538
41978SOL    HW243927   5.170   9.914  13.499 -0.3273  1.4859  1.4588
41979SOL     OW43928   4.340  12.388   9.861  0.3437  0.2758 -0.2724
41979SOL    HW143929   4.249  12.414   9.846 -0.0626 -1.9729 -2.3109
41979SOL    HW243930   4.335  12.332   9.939 -0.2280 -0.5896 -0.9030
41980SOL     OW43931   2.858  13.709  10.235 -0.0187  0.0181  0.4692
41980SOL    HW143932   2.784  13.680  10.288  0.2278 -0.9868  0.2732
41980SOL    HW243933   2.931  13.653  10.261 -0.1730 -1.3279 -1.7536
41981SOL     OW43934   9.261   3.020   4.048  0.0577  0.2034  0.7322
41981SOL    HW143935   9.261   2.959   4.121 -0.0311 -0.1023  0.4779
41981SOL    HW243936   9.342   3.001   4.001  0.3062  0.6604  0.9629
41982SOL     OW43937  12.744  12.747   9.923 -0.1932  0.3591  0.4567
41982SOL    HW143938  12.750  12.842   9.920 -0.7095  0.3817  0.0245
41982SOL    HW243939  12.680  12.729   9.991  1.3242  0.2491  1.9171
41983SOL     OW43940  14.008   0.636   4.868  0.4460  0.1725  0.3225
41983SOL    HW143941  13.981   0.578   4.940 -0.3952 -0.7165 -0.6698
41983SOL    HW243942  13.928   0.651   4.818  1.3284 -0.8088 -1.5168
41984SOL     OW43943   8.193   7.265   0.469 -0.3852  0.0514  0.1619
41984SOL    HW143944   8.285   7.264   0.439 -0.3450 -0.1441  0.2955
41984SOL    HW243945   8.178   7.178   0.504 -0.0507  0.6641  1.8909
41985SOL     OW43946  11.563  10.571   1.670 -0.0617 -0.0993 -0.2219
41985SOL    HW143947  11.655  10.544   1.676 -0.0338 -0.4004 -1.5910
41985SOL    HW243948  11.514  10.498   1.707  0.1813 -0.6457 -0.9531
41986SOL     OW43949   8.336  11.251   6.184  0.1196 -0.4929  0.7283
41986SOL    HW143950   8.253  11.291   6.158  1.0195  1.9913  1.3818
41986SOL    HW243951   8.311  11.169   6.224 -1.8617 -0.7277 -0.8043
41987SOL     OW43952  13.560  11.401   3.381 -0.0532 -0.0026  0.2366
41987SOL    HW143953  13.645  11.445   3.376  1.1643 -2.1825  0.6380
41987SOL    HW243954  13.501  11.458   3.332  1.2538  2.3423  1.1898
41988SOL     OW43955   3.528  14.096  12.187  0.1936  0.1654  0.1578
41988SOL    HW143956   3.593  14.081  12.118  0.5780  2.4460 -0.0400
41988SOL    HW243957   3.524  14.191  12.197 -0.8302 -0.0335  2.3729
41989SOL     OW43958   7.614   3.493   8.779 -0.2400 -0.4881  0.3537
41989SOL    HW143959   7.605   3.574   8.829 -0.4470  0.6617 -1.4316
41989SOL    HW243960   7.605   3.423   8.844  3.0851  0.8404  2.5150
41990SOL     OW43961   3.568  10.174   6.938  0.0481  0.2212 -0.4898
41990SOL    HW143962   3.657  10.193   6.969 -0.7437  0.8997  1.5220
41990SOL    HW243963   3.540  10.099   6.989 -1.1623  1.1282  0.2379
41991SOL     OW43964   9.290   0.093  11.479 -0.7264  0.7188 -0.0989
41991SOL    HW143965   9.307   0.035  11.553  1.1888  1.9478  0.5091
41991SOL    HW243966   9.372   0.142  11.468 -0.6173 -0.0039 -3.5855
41992SOL     OW43967   8.718   9.723  13.774 -0.0756  1.0775 -0.4140
41992SOL    HW143968   8.698   9.698  13.864 -0.9468 -1.6702 -1.2457
41992SOL    HW243969   8.766   9.648  13.738 -0.4511  1.7248 -2.4266
41993SOL     OW43970   3.489  11.540   0.050 -0.1128  1.0855 -0.3587
41993SOL    HW143971   3.490  11.537  -0.045  0.8876 -1.3446 -0.3418
41993SOL    HW243972   3.580  11.526   0.076 -0.4161  1.4084  0.9596
41994SOL     OW43973  14.024   7.732   9.199  0.6767 -0.0511 -0.0788
41994SOL    HW143974  13.971   7.670   9.149  1.4726  0.7698 -2.0316
41994SOL    HW243975  13.969   7.811   9.204  0.8394  0.0691 -0.1947
41995SOL     OW43976   3.333   5.466   6.736  0.1790 -0.0989 -0.1698
41995SOL    HW143977   3.275   5.530   6.779  0.8323  1.1828 -1.1344
41995SOL    HW243978   3.274   5.396   6.707 -0.6128  0.2579  0.5463
41996SOL     OW43979   2.935   8.054  10.809  0.4845  0.2682  0.0721
41996SOL    HW143980   2.884   8.016  10.738  1.8266  0.3328 -0.9704
41996SOL    HW243981   2.975   7.978  10.853 -0.3144  0.2308  0.7458
41997SOL     OW43982   1.345   0.220   2.742 -0.2816 -0.1616 -0.2829
41997SOL    HW143983   1.359   0.281   2.670 -0.9611 -1.2085 -1.3424
41997SOL    HW243984   1.387   0.139   2.712 -1.9197 -1.0836 -0.2243
41998SOL     OW43985   1.875   2.780   1.272  0.5320  0.2525  0.7440
41998SOL    HW143986   1.951   2.725   1.292  2.1276  2.6560  1.7469
41998SOL    HW243987   1.890   2.809   1.182 -0.8319 -1.6324 -0.1549
41999SOL     OW43988  10.072   0.405  10.517 -0.0944  0.0275 -0.8775
41999SOL    HW143989  10.109   0.330  10.470 -2.0862 -0.9981 -0.9052
41999SOL    HW243990  10.057   0.471  10.450  1.0378  0.2278 -0.9581
42000SOL     OW43991   1.546   8.170  10.823 -0.1524 -0.2435 -0.2286
42000SOL    HW143992   1.486   8.098  10.800 -0.7705  0.5293 -1.1282
42000SOL    HW243993   1.544   8.227  10.747  1.7807 -0.2022 -0.2951
42001SOL     OW43994  13.099   0.199   2.804 -0.0003  0.2734  0.1448
42001SOL    HW143995  13.051   0.263   2.857 -0.8666  1.0128 -1.4566
42001SOL    HW243996  13.119   0.127   2.865 -0.8302  1.1325  1.4827
42002SOL     OW43997   2.574   4.533   5.630 -0.0670 -0.5997 -0.3030
42002SOL    HW143998   2.529   4.469   5.685 -0.0268  0.5648  1.1292
42002SOL    HW243999   2.506   4.569   5.574 -0.7566  0.3672  1.1005
42003SOL     OW44000   2.791   5.886   7.625  0.5320  0.1035 -0.1469
42003SOL    HW144001   2.878   5.883   7.586  0.5970 -0.6730  0.0285
42003SOL    HW244002   2.807   5.898   7.719  0.4441  0.1027 -0.1315
42004SOL     OW44003   7.685   0.733   8.253  0.1559  0.1255 -0.1902
42004SOL    HW144004   7.775   0.722   8.224 -0.3879  0.9250 -2.3890
42004SOL    HW244005   7.637   0.759   8.174 -1.6906  1.3884  1.2461
42005SOL     OW44006  12.094   8.376  11.125 -0.2652  0.0140 -0.2489
42005SOL    HW144007  12.076   8.461  11.164 -1.8767 -0.0032 -0.8818
42005SOL    HW244008  12.186   8.381  11.098  0.4018  0.6343  1.9262
42006SOL     OW44009   4.554   9.732   9.799  0.2464 -0.4130  0.5686
42006SOL    HW144010   4.547   9.773   9.886 -0.2061 -0.1533  0.4169
42006SOL    HW244011   4.476   9.763   9.753  0.9520  0.1746 -0.2346
42007SOL     OW44012  12.755   0.807  10.382 -0.4136 -0.1230  0.0975
42007SOL    HW144013  12.691   0.875  10.361 -0.0452 -0.2212 -1.4621
42007SOL    HW244014  12.829   0.855  10.420  0.6159  0.6701 -2.6565
42008SOL     OW44015   0.228  11.275   2.024  0.1910  0.1100  0.4866
42008SOL    HW144016   0.214  11.271   1.929  1.6898 -0.3584  0.2618
42008SOL    HW244017   0.229  11.184   2.052 -0.2329  0.2476  0.9683
42009SOL     OW44018   7.431   9.462   5.681  0.3558 -0.1460  0.2051
42009SOL    HW144019   7.358   9.477   5.740  0.7384 -0.5557  0.7908
42009SOL    HW244020   7.507   9.453   5.738  0.9137  0.5511 -0.4176
42010SOL     OW44021  10.391   5.371   1.636  0.5595  0.5749  0.7114
42010SOL    HW144022  10.423   5.328   1.557 -1.7411  0.0634 -0.0114
42010SOL    HW244023  10.406   5.464   1.620  1.3277  0.3899  0.2750
42011SOL     OW44024   9.464   7.661  12.749 -0.5264  0.0121  0.5703
42011SOL    HW144025   9.541   7.608  12.729 -0.9886 -0.7531  0.7639
42011SOL    HW244026   9.430   7.624  12.831 -1.1361  0.3008  0.4543
42012SOL     OW44027   3.166   4.159   2.252  0.0696 -0.0865  0.5173
42012SOL    HW144028   3.181   4.115   2.336  1.2421 -2.0621 -0.6631
42012SOL    HW244029   3.089   4.115   2.216  0.5321 -0.3595 -0.1471
42013SOL     OW44030   6.004   6.952  14.096  0.2506 -0.0181  0.2805
42013SOL    HW144031   5.932   7.012  14.114  0.1206  0.1227 -0.6310
42013SOL    HW244032   6.039   6.982  14.012  0.7523 -0.6770  0.2473
42014SOL     OW44033  11.151   5.962  12.370  0.2918  0.0115  0.1596
42014SOL    HW144034  11.189   5.959  12.282 -0.8756 -1.5779 -0.3440
42014SOL    HW244035  11.058   5.942  12.357  0.3571 -1.7297  1.8627
42015SOL     OW44036   3.636   7.911  12.554  0.0690 -0.4751  0.4485
42015SOL    HW144037   3.686   7.951  12.625 -0.0649 -0.3294  0.4590
42015SOL    HW244038   3.629   7.981  12.488  1.4125 -1.0193 -0.3268
42016SOL     OW44039  12.010   8.363   3.199 -0.1660  0.3937  0.7630
42016SOL    HW144040  12.025   8.457   3.198  1.8102  0.1080  0.9220
42016SOL    HW244041  12.045   8.333   3.283  1.3319 -0.7687 -0.2287
42017SOL     OW44042  10.558   3.619   8.010 -0.0625 -0.3820 -1.4166
42017SOL    HW144043  10.609   3.548   7.972  0.9808  0.0017 -0.7704
42017SOL    HW244044  10.611   3.650   8.084 -1.1611  0.1300 -0.8204
42018SOL     OW44045  10.333  11.177   3.228 -0.0305  0.2996 -0.3350
42018SOL    HW144046  10.349  11.203   3.138 -0.3331 -0.0244 -0.4847
42018SOL    HW244047  10.419  11.180   3.270  0.5539 -1.9165 -1.2562
42019SOL     OW44048   9.837  10.534  12.807 -0.0488  0.0202  0.5233
42019SOL    HW144049   9.744  10.519  12.828 -1.0966  0.0803 -3.3758
42019SOL    HW244050   9.881  10.453  12.834 -1.4393 -0.5243  1.2601
42020SOL     OW44051  10.614  10.039  11.674 -0.4169  0.1204  0.2560
42020SOL    HW144052  10.562  10.010  11.749 -2.0533 -0.4571 -1.0599
42020SOL    HW244053  10.610  10.135  11.678  0.2447  0.1150  1.3839
42021SOL     OW44054   4.187  12.585   3.019  0.2371 -0.0325 -0.3459
42021SOL    HW144055   4.190  12.539   2.935  0.5761  1.4101 -1.1545
42021SOL    HW244056   4.264  12.555   3.066 -0.3880 -1.4731 -0.1806
42022SOL     OW44057  12.907  12.057   3.216 -0.1136  0.0249 -0.0787
42022SOL    HW144058  12.983  12.035   3.270  0.5190  2.4220  0.1219
42022SOL    HW244059  12.855  11.977   3.214  1.8673 -1.3596  0.6861
42023SOL     OW44060   8.963   6.355   6.506 -0.3244  0.5487  0.4510
42023SOL    HW144061   9.016   6.417   6.456 -0.9122  1.1020  0.4943
42023SOL    HW244062   8.945   6.399   6.589 -0.9150  0.4103  0.4059
42024SOL     OW44063   5.164   1.740   7.099 -0.2726 -0.2666  0.0013
42024SOL    HW144064   5.205   1.660   7.065  0.1511  0.4384 -1.2132
42024SOL    HW244065   5.170   1.732   7.194 -0.1435 -1.6235 -0.1049
42025SOL     OW44066  12.320   5.293   6.526  0.2530  0.5756  0.1895
42025SOL    HW144067  12.372   5.354   6.474  0.5839 -0.6951 -1.0350
42025SOL    HW244068  12.263   5.250   6.463 -2.6922  2.2393  1.5492
42026SOL     OW44069   7.591   0.648   9.797  0.1585 -0.0121 -0.3179
42026SOL    HW144070   7.604   0.711   9.726  1.8682 -0.5218 -0.4872
42026SOL    HW244071   7.511   0.678   9.841  0.1025  1.3831 -1.3157
42027SOL     OW44072  13.043   8.143   9.742  0.2233 -0.4653  0.5140
42027SOL    HW144073  12.989   8.126   9.819 -2.2650 -1.7410 -1.3944
42027SOL    HW244074  13.011   8.227   9.708  1.4019  0.1580  0.8649
42028SOL     OW44075   3.597  12.627   4.770 -0.1780  0.1157  0.3049
42028SOL    HW144076   3.670  12.682   4.743 -0.3281 -0.3531 -1.1024
42028SOL    HW244077   3.635  12.567   4.834  0.7054 -0.2301 -0.5302
42029SOL     OW44078  11.753   0.631   6.806  0.1254  0.5872  0.3265
42029SOL    HW144079  11.695   0.704   6.829  0.2946  0.8167  0.0471
42029SOL    HW244080  11.835   0.674   6.781  0.2206  0.3004  0.1434
42030SOL     OW44081   6.857   3.725   4.018  0.0693 -0.0718  0.7258
42030SOL    HW144082   6.763   3.710   4.010 -0.0094 -0.0204  1.5071
42030SOL    HW244083   6.885   3.670   4.091  0.7771 -0.6055  0.0689
42031SOL     OW44084  10.149   4.466   6.367 -0.2054  0.3173  0.2699
42031SOL    HW144085  10.235   4.440   6.335 -0.2695  0.2599  0.1443
42031SOL    HW244086  10.092   4.391   6.349  0.1079 -0.3756  2.0045
42032SOL     OW44087   4.221   3.651   0.892  0.4246 -0.0041 -0.0147
42032SOL    HW144088   4.251   3.637   0.802 -0.1654 -0.3771 -0.1568
42032SOL    HW244089   4.136   3.694   0.882  0.7768  0.8129  0.3819
42033SOL     OW44090   6.773  11.297   6.820  0.5242 -0.0280 -0.0592
42033SOL    HW144091   6.722  11.352   6.761  1.2292  2.5094  1.5347
42033SOL    HW244092   6.853  11.278   6.772 -0.1913 -0.6726 -1.0491
42034SOL     OW44093  13.482   4.080   5.753 -0.3162 -0.5591  0.2470
42034SOL    HW144094  13.496   4.169   5.785 -3.2185  0.5542 -1.2654
42034SOL    HW244095  13.554   4.029   5.792  0.7885  2.1678  2.0691
42035SOL     OW44096   1.964  11.065  11.531  0.2100  0.2307 -0.2045
42035SOL    HW144097   2.032  11.059  11.464 -1.0827 -0.1364 -1.5280
42035SOL    HW244098   1.884  11.034  11.488 -1.2012  2.3239  0.7479
42036SOL     OW44099   6.067   5.838   8.265  0.5891  0.5311 -0.1099
42036SOL    HW144100   6.069   5.838   8.361 -2.2994  1.7960  0.0501
42036SOL    HW244101   6.063   5.930   8.241  0.4886  0.2053 -1.4274
42037SOL     OW44102   9.302   3.862   8.993 -0.5911  0.2445  0.4372
42037SOL    HW144103   9.256   3.795   8.943  2.6121 -1.2368 -0.7906
42037SOL    HW244104   9.301   3.939   8.937  0.2321 -0.4411 -0.5650
42038SOL     OW44105  10.024   1.816  11.050  0.1956  0.7701 -0.6022
42038SOL    HW144106  10.011   1.897  11.100 -1.3974  0.2543 -0.1206
42038SOL    HW244107  10.075   1.843  10.974  0.0388  2.1594 -0.2443
42039SOL     OW44108   9.515   1.939  13.196 -0.8129 -0.3915 -0.8480
42039SOL    HW144109   9.480   1.962  13.282 -0.2031  0.6479 -0.8562
42039SOL    HW244110   9.488   2.011  13.139  0.7180  0.1062 -0.9960
42040SOL     OW44111  10.602   5.568  10.337 -0.2322 -0.1966  0.2887
42040SOL    HW144112  10.630   5.616  10.259  0.7661 -1.4574 -0.1650
42040SOL    HW244113  10.511   5.544  10.319 -0.3574  0.4761 -0.0007
42041SOL     OW44114   0.582   3.656   0.988 -0.1099 -0.3774  0.5283
42041SOL    HW144115   0.623   3.584   1.037  1.2246 -1.7215 -2.3293
42041SOL    HW244116   0.503   3.617   0.950 -0.2559  0.1482  0.2779
42042SOL     OW44117   3.585   8.622   7.159  0.2298  0.1852  0.3225
42042SOL    HW144118   3.593   8.615   7.254 -0.6994  3.0964  0.7019
42042SOL    HW244119   3.662   8.672   7.132 -1.3554  2.6733  0.1264
42043SOL     OW44120   7.870   0.446   9.630  0.3553  0.0042  0.0888
42043SOL    HW144121   7.920   0.519   9.594  0.0297 -0.3352 -1.1264
42043SOL    HW244122   7.925   0.369   9.615  0.5407 -0.0550  1.0272
42044SOL     OW44123  12.145   5.066   3.502  0.0303  0.5830 -0.2317
42044SOL    HW144124  12.125   5.159   3.492  1.5197  1.3336  2.5688
42044SOL    HW244125  12.206   5.063   3.576  0.0379 -2.6483 -0.2355
42045SOL     OW44126   3.947   8.927  13.144  0.1410  0.1883  0.2547
42045SOL    HW144127   3.888   8.998  13.120  0.9621  0.7777 -0.0603
42045SOL    HW244128   3.924   8.856  13.084 -1.7513 -0.4100  1.5936
42046SOL     OW44129   1.782   0.064  11.461  0.1950  0.4469  0.3758
42046SOL    HW144130   1.868   0.096  11.490  0.6724  0.3286 -0.8500
42046SOL    HW244131   1.792  -0.031  11.460  0.0890  0.4387  0.1250
42047SOL     OW44132   3.403   4.759  12.492  0.1192 -0.2108  0.7079
42047SOL    HW144133   3.459   4.825  12.532  0.2404  1.9000 -2.6006
42047SOL    HW244134   3.461   4.685  12.476  1.4456  1.0319 -0.4925
42048SOL     OW44135   6.542  13.697   7.841  0.0786 -0.1889  0.0176
42048SOL    HW144136   6.630  13.676   7.873 -0.4214 -0.0097  1.5796
42048SOL    HW244137   6.555  13.715   7.748  1.5697 -0.9033  0.0474
42049SOL     OW44138  12.268  10.380   7.246  0.0751 -0.5835 -0.3014
42049SOL    HW144139  12.346  10.348   7.291 -0.6951  0.5809  2.1011
42049SOL    HW244140  12.207  10.307   7.249 -0.2956 -0.2670  1.5722
42050SOL     OW44141   0.524  13.184   5.985 -0.4240  0.3139  0.0780
42050SOL    HW144142   0.558  13.267   5.951  0.7678 -0.6904 -1.3219
42050SOL    HW244143   0.436  13.205   6.015 -1.9873  1.2566 -4.3089
42051SOL     OW44144   8.231  11.734   0.478  0.8887  0.1445 -0.1472
42051SOL    HW144145   8.321  11.721   0.447  1.3091  1.4602  0.4478
42051SOL    HW244146   8.200  11.647   0.500  2.3747 -0.2281  0.5709
42052SOL     OW44147  11.388   3.556   9.659 -0.0673 -0.2996  0.0593
42052SOL    HW144148  11.417   3.502   9.733  0.8834  0.2650  0.1322
42052SOL    HW244149  11.335   3.498   9.605  0.2046 -1.0505  0.5803
42053SOL     OW44150  13.012   7.960   8.479  0.5239 -0.3110  0.1628
42053SOL    HW144151  12.934   7.965   8.534  0.1784  1.1065 -0.3986
42053SOL    HW244152  13.081   8.000   8.532 -0.3312  3.3210 -1.1854
42054SOL     OW44153   2.345  11.072   7.549  0.0084 -0.3043 -0.6509
42054SOL    HW144154   2.275  11.123   7.509 -1.0044  0.7384  2.1963
42054SOL    HW244155   2.309  10.984   7.558 -0.9869  0.1930  0.6707
42055SOL     OW44156   0.721   3.810  12.244 -0.0263 -0.0351  0.1806
42055SOL    HW144157   0.697   3.898  12.273 -0.8264  0.0756 -0.8093
42055SOL    HW244158   0.693   3.806  12.153  0.1164 -1.2788  0.1834
42056SOL     OW44159   0.009  13.693   5.872  0.3370  0.2380 -0.2127
42056SOL    HW144160   0.066  13.769   5.859  0.0113  0.6302  0.5855
42056SOL    HW244161   0.069  13.619   5.876  0.8840  0.7246  1.3496
42057SOL     OW44162  10.318   9.508   2.136  0.6790 -0.4569 -0.1170
42057SOL    HW144163  10.335   9.584   2.191 -0.1698  0.2150 -0.7534
42057SOL    HW244164  10.289   9.545   2.052  1.0987 -1.4659 -0.7296
42058SOL     OW44165  13.521   1.264  10.535  0.6083 -0.8147 -0.6289
42058SOL    HW144166  13.567   1.326  10.593  1.7803 -3.2382  1.1923
42058SOL    HW244167  13.590   1.228  10.480  0.1084 -1.2393 -0.9794
42059SOL     OW44168   5.947  10.414  13.071  0.4463  0.2549 -0.4130
42059SOL    HW144169   5.988  10.487  13.117 -0.7590  0.6363  0.1148
42059SOL    HW244170   5.897  10.456  13.001 -0.8578  0.0449  0.3441
42060SOL     OW44171   9.241   1.096   3.830 -0.1834 -0.0040  0.3078
42060SOL    HW144172   9.246   1.004   3.856 -0.4863 -0.0817  0.1066
42060SOL    HW244173   9.207   1.093   3.740  1.9141  0.1869 -0.5435
42061SOL     OW44174   1.083   0.955   5.712 -0.5846 -0.3939 -0.0188
42061SOL    HW144175   1.051   0.905   5.788 -0.7677  0.3052  0.3695
42061SOL    HW244176   1.073   0.894   5.639 -0.3128 -1.1140  0.5262
42062SOL     OW44177  10.953  14.097   0.078 -0.5954 -0.0525 -0.2325
42062SOL    HW144178  11.001  14.177   0.101 -0.0101 -0.3405 -0.4118
42062SOL    HW244179  10.925  14.061   0.162 -1.8995  0.9471 -0.2084
42063SOL     OW44180   2.232   9.609   3.339 -0.2452  0.4669 -0.3195
42063SOL    HW144181   2.273   9.552   3.275 -0.4392 -2.6365  2.1093
42063SOL    HW244182   2.299   9.623   3.406 -1.0164  1.0110  0.3688
42064SOL     OW44183   6.348   9.100  13.370  0.2102 -0.0269  0.1041
42064SOL    HW144184   6.410   9.101  13.443  0.0955 -0.5281  0.2083
42064SOL    HW244185   6.384   9.036  13.309  0.7017  0.9252 -0.6300
42065SOL     OW44186   3.690   2.250   2.721 -0.0400 -0.4047  0.2575
42065SOL    HW144187   3.670   2.158   2.734  0.1240 -0.3298  1.0678
42065SOL    HW244188   3.630   2.297   2.779  0.2323 -0.0286  0.2451
42066SOL     OW44189   8.568   9.551   9.426 -0.3994 -0.2839 -0.0118
42066SOL    HW144190   8.563   9.543   9.521 -0.2783  0.0356  0.0248
42066SOL    HW244191   8.544   9.464   9.393  0.5337 -0.6895  0.3379
42067SOL     OW44192   0.403   0.835   6.735  0.0556  0.7733 -0.1538
42067SOL    HW144193   0.431   0.924   6.754  0.7445  1.0121 -2.0524
42067SOL    HW244194   0.478   0.795   6.691 -0.0989 -0.8890  0.9672
42068SOL     OW44195   4.922   2.529  12.278 -0.3060  0.0521 -0.3885
42068SOL    HW144196   5.006   2.519  12.323 -1.0960 -1.1614  0.8645
42068SOL    HW244197   4.870   2.585  12.336 -0.5998  0.2577 -0.8435
42069SOL     OW44198  10.483  11.478   1.677 -0.1134  0.2344  0.1596
42069SOL    HW144199  10.469  11.545   1.744  0.7731 -0.1570  0.7506
42069SOL    HW244200  10.541  11.520   1.613 -2.5751  1.3327 -1.5024
42070SOL     OW44201   0.002   2.489  12.545  0.0949  0.2860 -0.1498
42070SOL    HW144202   0.063   2.529  12.607  0.9589 -1.0223 -0.1155
42070SOL    HW244203  -0.076   2.469  12.597 -0.5198  2.2390 -0.2574
42071SOL     OW44204   4.674  13.033   7.014 -0.1067 -0.5088 -0.2189
42071SOL    HW144205   4.740  13.009   7.078 -1.8709  0.1153  1.9399
42071SOL    HW244206   4.708  12.999   6.931  2.9667 -0.0380  0.7368
42072SOL     OW44207   3.674   8.531  12.714  0.0924  1.1463 -0.5499
42072SOL    HW144208   3.693   8.575  12.797  0.0790  0.5250 -0.2047
42072SOL    HW244209   3.587   8.561  12.690 -0.9614 -0.4927  0.9351
42073SOL     OW44210  12.518   7.774   5.774 -0.2706  0.0315 -0.0186
42073SOL    HW144211  12.523   7.816   5.860 -0.3063  0.2376 -0.1182
42073SOL    HW244212  12.425   7.763   5.757 -0.2841  0.6824 -0.3698
42074SOL     OW44213   3.454   2.455  10.978  0.1558  0.6210  0.2364
42074SOL    HW144214   3.417   2.367  10.984  0.1823  0.7186  2.7822
42074SOL    HW244215   3.406   2.496  10.907 -0.7462 -1.0310 -0.1628
42075SOL     OW44216   2.913   0.686   3.052 -0.1930 -0.0547 -0.0122
42075SOL    HW144217   2.905   0.776   3.021 -0.2656 -0.4097 -1.0570
42075SOL    HW244218   2.875   0.633   2.983  0.0495 -0.9127  0.4929
42076SOL     OW44219   8.987   8.018   8.743 -0.4544  0.0829 -0.2217
42076SOL    HW144220   9.046   7.954   8.704  1.0902  0.3799  1.5154
42076SOL    HW244221   9.010   8.101   8.701  0.3221  0.1726  0.3513
42077SOL     OW44222  12.112   0.720   3.780  0.2893 -0.6748 -0.2348
42077SOL    HW144223  12.169   0.796   3.767 -0.6313  0.2440  0.9933
42077SOL    HW244224  12.082   0.697   3.692 -0.1152  0.9357 -0.5339
42078SOL     OW44225  12.120  14.089   1.405 -0.1724 -0.4827  0.3214
42078SOL    HW144226  12.180  14.032   1.452  1.6059  1.4498  0.5029
42078SOL    HW244227  12.036  14.043   1.409  0.8286 -2.3179  1.7811
42079SOL     OW44228  14.085   8.804  13.839  0.3432 -0.3058  0.2388
42079SOL    HW144229  14.136   8.868  13.889 -0.7500  1.1214 -0.4257
42079SOL    HW244230  14.137   8.789  13.760  1.5293 -1.7272  1.2311
42080SOL     OW44231   0.143  11.114   1.226  0.3611  0.4514  0.0664
42080SOL    HW144232   0.051  11.140   1.230 -0.1089 -1.0310 -0.5559
42080SOL    HW244233   0.146  11.045   1.160  1.3261 -1.8510  2.3745
42081SOL     OW44234   9.087   3.168   4.723 -0.0443  0.2339  0.0574
42081SOL    HW144235   9.112   3.179   4.631 -1.5911  0.2930 -0.3904
42081SOL    HW244236   9.080   3.073   4.735 -2.5906  0.2547 -0.7331
42082SOL     OW44237  10.937   3.174   7.296 -0.2988  0.4349  0.4604
42082SOL    HW144238  11.028   3.178   7.324  0.1618  0.3960 -0.9562
42082SOL    HW244239  10.936   3.109   7.226 -1.2773  0.9164  0.0038
42083SOL     OW44240   4.144   8.760   9.645 -0.2527  0.2278 -0.5026
42083SOL    HW144241   4.103   8.683   9.604  1.0223 -0.6800 -0.1420
42083SOL    HW244242   4.193   8.801   9.574  0.8600 -0.5783 -0.2304
42084SOL     OW44243  12.399   4.913   6.922 -0.1424  0.2416  1.0442
42084SOL    HW144244  12.308   4.928   6.947 -2.2387 -0.4948 -4.5629
42084SOL    HW244245  12.421   4.828   6.960 -1.8215  0.4035  2.4842
42085SOL     OW44246   2.099  12.417   5.195 -0.0378 -0.3099  0.0125
42085SOL    HW144247   2.150  12.477   5.139 -0.9212  0.0315 -0.4475
42085SOL    HW244248   2.039  12.374   5.134  0.2550 -1.3083  0.4241
42086SOL     OW44249  11.860  12.598   5.355  0.4553  0.5796  0.0631
42086SOL    HW144250  11.950  12.600   5.390  0.4595  0.7460  0.0419
42086SOL    HW244251  11.817  12.528   5.404  1.1824 -0.9349 -1.3374
42087SOL     OW44252   7.111  11.311   3.445 -0.2671 -0.3890  0.0811
42087SOL    HW144253   7.127  11.327   3.352 -1.0928  0.3831  0.0582
42087SOL    HW244254   7.100  11.398   3.483  0.5495 -0.6716  1.0011
42088SOL     OW44255   3.778   5.084  10.314  0.1149 -0.4539  0.5593
42088SOL    HW144256   3.689   5.109  10.290  0.4149  0.2503  0.1279
42088SOL    HW244257   3.824   5.168  10.323  0.4484 -0.7698  1.9055
42089SOL     OW44258   8.371  10.235   6.135 -0.0573  0.2647  0.0266
42089SOL    HW144259   8.346  10.175   6.065 -0.6701  1.2046 -0.5772
42089SOL    HW244260   8.454  10.273   6.105 -1.2742  2.1272 -1.1656
42090SOL     OW44261   1.990   9.632   1.317 -0.2529  0.4575 -0.3116
42090SOL    HW144262   2.067   9.626   1.261 -1.2070 -1.6997 -1.5480
42090SOL    HW244263   1.938   9.555   1.293 -2.6222  1.6515  0.7251
42091SOL     OW44264  12.093   7.446   4.355  0.5920  0.1073 -0.3927
42091SOL    HW144265  12.075   7.500   4.278 -2.8904 -2.3562 -1.5628
42091SOL    HW244266  12.115   7.509   4.424  0.2904  2.6917 -2.4865
42092SOL     OW44267   2.084  10.340   4.141  0.5850  0.5019 -0.4912
42092SOL    HW144268   2.035  10.289   4.205 -0.9779 -1.0477 -2.7427
42092SOL    HW244269   2.022  10.405   4.109  1.4435  1.4790 -0.2088
42093SOL     OW44270  11.508   1.942   3.327 -0.1452 -0.0862 -0.1365
42093SOL    HW144271  11.597   1.975   3.335 -0.3392  0.8352 -1.3449
42093SOL    HW244272  11.512   1.851   3.356  1.0525  0.1114  0.3681
42094SOL     OW44273   1.611   9.225  13.955 -0.6349  0.0833  0.5781
42094SOL    HW144274   1.556   9.296  13.921 -0.2119  1.1467  2.0120
42094SOL    HW244275   1.698   9.244  13.921 -0.7486 -0.4957 -0.0728
42095SOL     OW44276  12.322   4.056   9.116  0.1386  0.2833 -0.0697
42095SOL    HW144277  12.365   3.977   9.149  1.7182  0.5508 -1.3308
42095SOL    HW244278  12.252   4.023   9.059  0.9625 -0.2322 -0.8064
42096SOL     OW44279   0.320   2.346  10.812 -0.5193 -0.1798  0.1357
42096SOL    HW144280   0.357   2.433  10.827  1.7797 -1.1524  0.5094
42096SOL    HW244281   0.324   2.334  10.717 -0.3929 -0.0524  0.1243
42097SOL     OW44282   7.862   4.720   1.961 -0.3404  0.0094  0.7640
42097SOL    HW144283   7.900   4.740   2.047  1.1448  1.0607 -0.0922
42097SOL    HW244284   7.825   4.803   1.931  2.5679  0.7327 -1.2229
42098SOL     OW44285   6.602  11.834  13.549 -0.4652 -0.2902  0.4189
42098SOL    HW144286   6.531  11.897  13.560 -0.1558 -0.0598  1.1507
42098SOL    HW244287   6.595  11.776  13.625  0.5323  0.1445  0.8599
42099SOL     OW44288  10.609   7.184   7.811 -0.5153 -0.7238 -0.3118
42099SOL    HW144289  10.525   7.208   7.770 -0.7424 -1.6745 -0.4148
42099SOL    HW244290  10.662   7.151   7.740  0.0440  0.0707 -0.2835
42100SOL     OW44291  13.556   8.322   6.035  0.4721  0.5391 -0.1032
42100SOL    HW144292  13.489   8.280   5.981 -0.3155 -0.0612  1.2936
42100SOL    HW244293  13.584   8.398   5.984 -2.8342  2.0851  0.1458
42101SOL     OW44294   9.984   9.511  10.873 -0.5023 -0.1472 -0.1026
42101SOL    HW144295   9.993   9.580  10.938  0.8135  0.1622 -0.5714
42101SOL    HW244296   9.939   9.552  10.799 -3.1133 -0.8146  0.9989
42102SOL     OW44297   6.713   0.382  12.587 -0.2935  0.7347 -0.3058
42102SOL    HW144298   6.727   0.309  12.527  1.5282  1.2546 -0.5598
42102SOL    HW244299   6.624   0.412  12.567 -0.9021 -1.0904 -0.5207
42103SOL     OW44300   8.000   5.679  10.724 -0.6261  0.2221 -0.6443
42103SOL    HW144301   8.053   5.662  10.802 -1.5002 -0.7284 -0.2326
42103SOL    HW244302   7.913   5.648  10.747 -1.2735  1.3469 -1.4675
42104SOL     OW44303  13.056  12.219   8.334 -0.0460  0.0230 -0.1411
42104SOL    HW144304  13.097  12.282   8.393 -0.2109  1.2763 -1.3292
42104SOL    HW244305  13.083  12.247   8.247  0.2394 -1.8246 -0.6908
42105SOL     OW44306   8.792   1.330   6.523 -0.1355 -0.0999 -0.2112
42105SOL    HW144307   8.743   1.248   6.515 -0.9378  0.3391  0.0685
42105SOL    HW244308   8.859   1.311   6.590 -1.3650 -0.0594  1.0825
42106SOL     OW44309   4.534  11.487  13.752  0.0694  0.1723 -0.1183
42106SOL    HW144310   4.551  11.511  13.844  1.0718  0.7486 -0.4377
42106SOL    HW244311   4.590  11.546  13.702 -1.0631  0.4113 -1.1498
42107SOL     OW44312  10.406   4.805   2.483  0.0229  0.5665  0.2978
42107SOL    HW144313  10.401   4.768   2.571 -0.3813  0.7276  0.3414
42107SOL    HW244314  10.316   4.827   2.460  0.2005  1.1014  0.0933
42108SOL     OW44315   0.790  11.611   9.875 -0.2179 -0.1683 -0.2054
42108SOL    HW144316   0.701  11.577   9.885 -0.7556  1.2161 -0.0435
42108SOL    HW244317   0.842  11.535   9.850 -2.0642 -0.5005 -3.7662
42109SOL     OW44318   2.419   9.059   9.516 -0.7712  0.6361  0.1078
42109SOL    HW144319   2.446   9.116   9.444  0.0334  1.6782  1.1895
42109SOL    HW244320   2.414   8.971   9.477 -0.6930  1.2265 -1.2768
42110SOL     OW44321   1.661   4.586   5.828  0.1737 -0.5750 -1.4709
42110SOL    HW144322   1.736   4.646   5.828 -0.2582  0.0517  0.6711
42110SOL    HW244323   1.700   4.500   5.836  0.6875 -0.2529 -0.3690
42111SOL     OW44324   6.660  11.389   4.042 -0.2268 -0.2383  0.1156
42111SOL    HW144325   6.656  11.485   4.045 -3.2461 -0.2900  2.0369
42111SOL    HW244326   6.609  11.366   3.964  1.2671 -0.3463 -0.8772
42112SOL     OW44327   8.859   3.902   9.135  0.1309 -0.6667 -0.2583
42112SOL    HW144328   8.805   3.845   9.189  0.2747 -1.6258 -1.0870
42112SOL    HW244329   8.949   3.882   9.160  0.1528  0.1571  0.3678
42113SOL     OW44330   8.913  11.110  11.174 -0.4444  0.2461  0.0585
42113SOL    HW144331   8.933  11.119  11.268 -0.3611  0.8721 -0.0193
42113SOL    HW244332   8.835  11.163  11.160 -0.4412  0.1752 -0.2394
42114SOL     OW44333  10.012  11.257  13.148  0.5040 -0.3619  0.1866
42114SOL    HW144334   9.962  11.179  13.172  0.3487 -0.0002  1.0610
42114SOL    HW244335  10.099  11.224  13.125  0.4624 -0.7816  0.6325
42115SOL     OW44336  12.036  11.354   2.107 -0.6132 -0.0276  0.5390
42115SOL    HW144337  12.095  11.301   2.161 -0.8129 -1.0198 -0.1884
42115SOL    HW244338  11.959  11.366   2.162 -0.9009 -1.2073  0.4188
42116SOL     OW44339   5.463  11.882  10.357 -0.1017  0.5003 -0.2304
42116SOL    HW144340   5.409  11.952  10.392  0.4282  1.1199 -0.6259
42116SOL    HW244341   5.470  11.818  10.428 -0.7816  0.7334  0.0520
42117SOL     OW44342  10.274  13.927   2.706 -0.6710  0.2087 -0.3007
42117SOL    HW144343  10.206  13.994   2.694  0.0894  1.1105  0.2750
42117SOL    HW244344  10.251  13.886   2.789 -1.8338 -1.1136 -1.2330
42118SOL     OW44345  13.121   6.441   1.691  0.0808 -0.3523  0.7929
42118SOL    HW144346  13.105   6.534   1.673 -0.1539 -0.1145  2.1177
42118SOL    HW244347  13.070   6.395   1.625 -3.1901  0.4189  2.5614
42119SOL     OW44348   9.929   5.486   2.328  0.2216 -0.2272  0.1000
42119SOL    HW144349   9.872   5.487   2.251 -0.2591  2.8500  0.3412
42119SOL    HW244350   9.993   5.556   2.311  1.6809 -1.1694  1.4290
42120SOL     OW44351   4.186   5.230   1.842 -0.2944  0.2686 -0.0395
42120SOL    HW144352   4.216   5.321   1.853 -0.6582  0.4682 -0.5972
42120SOL    HW244353   4.122   5.235   1.770 -0.6966 -0.3510  0.2664
42121SOL     OW44354  14.030  10.968   2.489  0.8706  0.7045  0.6132
42121SOL    HW144355  13.952  10.982   2.435  2.3040  0.1173 -1.7436
42121SOL    HW244356  14.012  11.016   2.570 -3.1544 -1.7914  1.4894
42122SOL     OW44357   2.431   6.984   6.284  0.2104 -0.2574  0.4089
42122SOL    HW144358   2.465   7.073   6.271  0.5958 -0.3329  0.8347
42122SOL    HW244359   2.365   6.994   6.352 -1.6064  0.0967 -1.3250
42123SOL     OW44360   6.404   9.565   0.361 -0.0430 -0.3299 -0.9866
42123SOL    HW144361   6.466   9.579   0.290  0.8247 -1.1063 -0.4119
42123SOL    HW244362   6.318   9.575   0.321  0.4289 -0.9669 -2.1930
42124SOL     OW44363   2.678   0.832   8.561 -0.0395  0.0585 -0.0546
42124SOL    HW144364   2.597   0.882   8.547 -0.7809 -1.1873 -0.3587
42124SOL    HW244365   2.720   0.875   8.635 -0.9703  0.7571  0.0892
42125SOL     OW44366   0.621   7.139   9.112  0.1935  0.1275  0.6649
42125SOL    HW144367   0.530   7.136   9.141  0.4104 -1.6813  1.3014
42125SOL    HW244368   0.667   7.184   9.182  0.0848 -0.7288  1.3065
42126SOL     OW44369  13.885  13.753   2.273  0.0728  0.2817  0.1994
42126SOL    HW144370  13.890  13.717   2.361  1.1083  0.6331  0.2954
42126SOL    HW244371  13.959  13.813   2.267 -0.5504  1.0068 -0.5824
42127SOL     OW44372  11.122   4.796   0.219 -0.8175 -0.0557  0.1211
42127SOL    HW144373  11.198   4.745   0.192 -0.8911 -0.3423  0.4511
42127SOL    HW244374  11.145   4.830   0.305 -1.4192 -0.9044  0.6288
42128SOL     OW44375  10.827   6.122  11.685 -0.2034  1.3230 -0.0654
42128SOL    HW144376  10.880   6.092  11.758 -0.5344  0.7840 -0.0418
42128SOL    HW244377  10.779   6.045  11.656  0.8615  1.2133 -1.6801
42129SOL     OW44378  11.476   3.408  10.848  0.3204 -0.4713 -0.4007
42129SOL    HW144379  11.479   3.483  10.907  2.4032 -0.2850 -0.6668
42129SOL    HW244380  11.406   3.429  10.787 -1.8489 -0.6419  1.8956
42130SOL     OW44381  12.704   7.136   3.394 -0.2193  0.1309  0.3869
42130SOL    HW144382  12.653   7.054   3.398  0.8747 -0.7564 -1.8627
42130SOL    HW244383  12.789   7.113   3.431  0.0427  0.2847 -0.1138
42131SOL     OW44384   6.599   3.073   0.408 -0.4529 -0.7061  0.2841
42131SOL    HW144385   6.619   3.053   0.500 -0.1950  0.5216  0.5139
42131SOL    HW244386   6.680   3.053   0.361 -0.7388 -1.8021  0.2373
42132SOL     OW44387   7.557  12.030   7.096  0.1130 -0.8959  0.2237
42132SOL    HW144388   7.550  12.122   7.122  0.3504  0.2921 -3.3222
42132SOL    HW244389   7.614  11.991   7.162  0.3885  1.6058  1.6095
42133SOL     OW44390   8.019   1.366   5.622  0.4454 -0.4528 -0.3825
42133SOL    HW144391   8.034   1.331   5.710 -0.9636 -1.1695 -0.3974
42133SOL    HW244392   7.962   1.441   5.635  1.4709  0.3746 -0.5697
42134SOL     OW44393   5.493   1.374   8.867  0.0471  0.1822  0.5208
42134SOL    HW144394   5.521   1.287   8.896  0.1618  0.2542  0.6277
42134SOL    HW244395   5.495   1.427   8.947 -1.3976 -0.0634  0.7475
42135SOL     OW44396   5.090   2.158   5.066 -0.6649 -0.3227 -0.3430
42135SOL    HW144397   5.019   2.221   5.074 -1.6837 -1.6241  2.0813
42135SOL    HW244398   5.162   2.197   5.117 -0.7026 -0.3460 -0.2712
42136SOL     OW44399   3.596  11.851   5.975  0.4471 -0.3310  0.0900
42136SOL    HW144400   3.563  11.774   5.928 -1.6005  0.2228  0.5183
42136SOL    HW244401   3.680  11.870   5.933 -0.4057 -0.9881 -2.0962
42137SOL     OW44402   5.956  13.488   4.392  0.2535 -0.3113 -0.0404
42137SOL    HW144403   5.898  13.478   4.467  1.7451  0.7914  1.3447
42137SOL    HW244404   5.899  13.479   4.316 -1.0237 -3.3764  1.1142
42138SOL     OW44405   0.469   5.315   3.255  0.6239  0.1959 -0.1179
42138SOL    HW144406   0.520   5.377   3.203  1.3915 -0.2523  0.0794
42138SOL    HW244407   0.420   5.370   3.317  0.6039  0.6578 -0.5369
42139SOL     OW44408   1.021  10.864  11.070 -0.2203  0.2806  0.3805
42139SOL    HW144409   0.948  10.888  11.126  1.2215  0.7738  2.1444
42139SOL    HW244410   1.093  10.919  11.099  1.0390 -0.6121 -0.8823
42140SOL     OW44411   1.256   5.037  12.497 -0.2064 -0.2761 -0.1500
42140SOL    HW144412   1.194   5.071  12.432 -2.0621  0.5351  1.9145
42140SOL    HW244413   1.317   4.984  12.446 -0.7764  1.3494 -2.7006
42141SOL     OW44414   9.169   1.180   5.152  0.0633 -0.1371 -0.2953
42141SOL    HW144415   9.246   1.129   5.176  0.4044 -0.6641 -2.3190
42141SOL    HW244416   9.203   1.250   5.096 -0.6921  0.9774  0.5863
42142SOL     OW44417  11.767   8.618   1.179 -0.3829 -0.6065  0.4084
42142SOL    HW144418  11.739   8.626   1.088  0.3030 -1.2975  0.1313
42142SOL    HW244419  11.685   8.613   1.229 -0.9376  3.5451  0.2780
42143SOL     OW44420   8.889   3.631   0.686  0.1801 -0.0449 -0.0107
42143SOL    HW144421   8.859   3.605   0.598  1.1792 -0.2202 -0.3107
42143SOL    HW244422   8.886   3.550   0.737 -0.6789  0.1164  0.2022
42144SOL     OW44423   8.210   1.498  11.805  0.1361  0.1810  0.0451
42144SOL    HW144424   8.262   1.417  11.801 -1.9907 -1.2417 -1.6798
42144SOL    HW244425   8.215   1.534  11.716 -2.1268 -0.2945 -0.3421
42145SOL     OW44426   8.570   3.324   1.714  0.1917 -0.4449 -0.2096
42145SOL    HW144427   8.584   3.238   1.673  1.9584  0.1256 -0.9327
42145SOL    HW244428   8.575   3.307   1.808  2.4076 -0.9241 -0.3529
42146SOL     OW44429   8.494   5.342  13.301 -0.1293 -0.4594  0.1457
42146SOL    HW144430   8.408   5.344  13.260  0.1589  0.0390 -0.4430
42146SOL    HW244431   8.534   5.261  13.269  0.3125  0.1966 -1.0455
42147SOL     OW44432   3.528   1.881   3.762 -0.5173  0.2685  0.8378
42147SOL    HW144433   3.599   1.919   3.710  0.2258  0.4197  1.9251
42147SOL    HW244434   3.448   1.921   3.727  0.0371  0.9877  0.3639
42148SOL     OW44435  11.025  12.150   7.993 -0.1035  1.0218 -0.1886
42148SOL    HW144436  11.086  12.224   7.993  1.3430 -0.1101 -0.7181
42148SOL    HW244437  11.059  12.091   7.926 -1.2331 -0.1157  0.1979
42149SOL     OW44438   3.908   0.268   6.468  0.3723 -0.4988 -0.5062
42149SOL    HW144439   3.930   0.278   6.561 -0.2508  1.2754 -0.4951
42149SOL    HW244440   3.862   0.185   6.462 -1.1526  0.1618  1.1260
42150SOL     OW44441   2.869   0.901   7.269  0.2160  0.2047  0.0137
42150SOL    HW144442   2.797   0.878   7.210 -0.3252  3.4499 -0.7498
42150SOL    HW244443   2.939   0.930   7.212  1.3639 -0.8071  0.8605
42151SOL     OW44444   9.659  10.858   2.870  0.3248 -0.2367  0.1067
42151SOL    HW144445   9.592  10.904   2.919  0.9898  1.0451 -0.1366
42151SOL    HW244446   9.728  10.841   2.933  0.4280 -0.1604  0.0156
42152SOL     OW44447   6.012   4.424   3.448 -0.8914 -0.5799  0.4889
42152SOL    HW144448   5.918   4.409   3.457 -1.1851  0.6311 -0.3782
42152SOL    HW244449   6.031   4.495   3.509 -0.8633  0.2645 -0.4707
42153SOL     OW44450   2.985  12.680   2.855  0.0215 -0.1871  0.0640
42153SOL    HW144451   3.024  12.734   2.924 -0.6906 -0.9854  1.1298
42153SOL    HW244452   2.981  12.737   2.779 -2.6593  2.0552  1.6873
42154SOL     OW44453   8.603   4.045  10.744  0.4753  0.2715 -0.2920
42154SOL    HW144454   8.657   4.011  10.672 -0.6735 -1.1354 -0.5504
42154SOL    HW244455   8.523   4.074  10.701 -0.8479 -1.9499  0.4790
42155SOL     OW44456   0.147   0.353   3.289 -0.4894 -0.1979  0.2272
42155SOL    HW144457   0.226   0.406   3.283 -0.2990 -0.4501  0.4522
42155SOL    HW244458   0.125   0.333   3.198 -1.2165  1.2050  0.0767
42156SOL     OW44459   3.489  10.293  11.407 -0.7388  0.1384 -0.1106
42156SOL    HW144460   3.503  10.373  11.458 -0.9897 -0.5716  1.1119
42156SOL    HW244461   3.553  10.231  11.442 -2.4246 -1.0745  0.9438
42157SOL     OW44462  12.522   1.634  11.650  0.0616  0.6313  0.3534
42157SOL    HW144463  12.513   1.684  11.731  0.4983  0.8822  0.2544
42157SOL    HW244464  12.612   1.601  11.652  0.7738  2.3615 -0.9809
42158SOL     OW44465   9.124   2.656  12.388  0.1820  0.2152 -0.0435
42158SOL    HW144466   9.111   2.601  12.311  1.0353  0.1999 -0.1900
42158SOL    HW244467   9.119   2.596  12.462 -0.8750  0.2674 -0.0648
42159SOL     OW44468   6.352  13.814   9.425 -0.5902  0.8877  0.2429
42159SOL    HW144469   6.356  13.878   9.496 -1.7052  0.9959  0.2223
42159SOL    HW244470   6.335  13.730   9.468 -0.2408  0.7802  0.1788
42160SOL     OW44471   9.523  11.675  10.518 -0.2537  0.4155 -0.3354
42160SOL    HW144472   9.528  11.611  10.589  0.1050  0.7279 -0.0761
42160SOL    HW244473   9.549  11.626  10.440 -3.8384 -0.8648 -0.9138
42161SOL     OW44474  13.594   2.672   5.009  0.4985 -0.5808  0.4582
42161SOL    HW144475  13.620   2.757   5.045  2.2344 -0.7748 -0.2195
42161SOL    HW244476  13.643   2.666   4.927 -1.7080 -1.0659 -0.9024
42162SOL     OW44477   0.202   6.578   5.877  0.0882  0.3715 -0.3168
42162SOL    HW144478   0.176   6.489   5.853  0.5327 -0.4193  1.9183
42162SOL    HW244479   0.133   6.609   5.935  0.0632  1.4036 -0.8705
42163SOL     OW44480  11.714   0.196   9.571  0.3752  0.1851 -0.3199
42163SOL    HW144481  11.694   0.149   9.652  1.8944 -0.6479 -0.3898
42163SOL    HW244482  11.781   0.259   9.596  2.6675 -1.6991 -1.3072
42164SOL     OW44483   6.663   9.784  12.444  0.1235  0.0429  0.2021
42164SOL    HW144484   6.727   9.777  12.373 -0.7582 -0.1450 -0.5982
42164SOL    HW244485   6.581   9.755  12.405 -0.4276  0.1508  1.2474
42165SOL     OW44486  13.201   7.350   3.698  0.0368 -0.3368 -0.1354
42165SOL    HW144487  13.106   7.357   3.693 -0.2329 -1.7189  1.8414
42165SOL    HW244488  13.224   7.288   3.628 -0.5489 -0.2846 -0.3804
42166SOL     OW44489   3.420   9.696   8.192 -0.8077 -0.0668  0.1454
42166SOL    HW144490   3.381   9.644   8.122 -1.6366  0.7497 -0.0112
42166SOL    HW244491   3.368   9.776   8.195  2.0063  1.9965 -1.3670
42167SOL     OW44492   2.119   5.621   8.574  0.1120 -0.2506  0.1915
42167SOL    HW144493   2.177   5.602   8.648 -0.1298  0.9361  0.7138
42167SOL    HW244494   2.114   5.539   8.526  2.0407 -0.4442  0.2444
42168SOL     OW44495   5.382   6.024  10.727 -0.3112  0.7455  0.1241
42168SOL    HW144496   5.417   6.063  10.807  1.7837 -1.1846  0.2525
42168SOL    HW244497   5.403   6.086  10.658  2.9141  0.0217  0.3120
42169SOL     OW44498   1.199   5.013  10.697 -0.2169  0.6847 -0.0813
42169SOL    HW144499   1.267   5.029  10.762 -0.3918 -2.3082  1.0261
42169SOL    HW244500   1.139   5.087  10.705  0.3816  0.9757  2.4023
42170SOL     OW44501   7.343   7.030   0.935 -0.1387 -0.1598  0.1143
42170SOL    HW144502   7.366   6.968   0.866 -1.5179 -0.7369  0.1525
42170SOL    HW244503   7.411   7.098   0.929  1.3695 -1.6201  0.0475
42171SOL     OW44504  10.079   3.799  13.918 -0.2366 -0.0062  0.3287
42171SOL    HW144505  10.100   3.885  13.880 -0.7480 -0.6924 -1.6194
42171SOL    HW244506  10.020   3.819  13.991 -0.3229  1.3017 -0.0753
42172SOL     OW44507  12.475   1.851   7.815  0.0220  0.1069  0.5374
42172SOL    HW144508  12.397   1.846   7.760 -0.7346 -1.1174  1.6875
42172SOL    HW244509  12.445   1.884   7.899  1.2920  2.6581  0.1010
42173SOL     OW44510   7.025   5.934   2.736 -0.2009 -0.5771  0.3468
42173SOL    HW144511   7.112   5.937   2.776 -0.4606  0.9325  0.8752
42173SOL    HW244512   7.017   5.845   2.701  0.5077 -1.5784  2.5874
42174SOL     OW44513   7.211   6.047   5.873  0.8080 -0.0231  0.4959
42174SOL    HW144514   7.117   6.040   5.888  0.8155 -0.2231  0.4558
42174SOL    HW244515   7.250   6.043   5.961  0.7463  0.6312  0.5545
42175SOL     OW44516   7.712  14.073  12.288  0.0953  0.0679 -0.0484
42175SOL    HW144517   7.759  14.151  12.320  0.8041 -0.2595 -0.2805
42175SOL    HW244518   7.622  14.103  12.278  0.1548  0.5943  0.8125
42176SOL     OW44519   6.827   9.747   6.604 -0.4067 -0.3993 -0.0754
42176SOL    HW144520   6.842   9.842   6.607  0.5902 -0.5656  1.0991
42176SOL    HW244521   6.732   9.738   6.597 -0.4605  0.6870 -1.1050
42177SOL     OW44522  13.211   7.138   4.084 -0.4736  0.2115  0.9324
42177SOL    HW144523  13.116   7.149   4.092 -0.5972 -0.3530  0.3022
42177SOL    HW244524  13.240   7.217   4.038 -0.5354  0.7136  1.7312
42178SOL     OW44525  10.340  13.777   0.451 -0.1002  0.6966  0.1882
42178SOL    HW144526  10.325  13.800   0.542  0.4701  1.0771  0.1867
42178SOL    HW244527  10.434  13.765   0.444  0.0108  1.9078 -0.6324
42179SOL     OW44528  14.117  12.561   2.627 -0.3423  0.3151  0.0581
42179SOL    HW144529  14.201  12.607   2.627 -1.1205  1.8036  0.9290
42179SOL    HW244530  14.139  12.469   2.644  1.1571  0.5254 -0.6059
42180SOL     OW44531   0.265  13.994   5.404  0.3568  0.4449  0.1456
42180SOL    HW144532   0.315  14.064   5.363  0.2349  2.2128  2.7327
42180SOL    HW244533   0.191  14.039   5.446 -0.0567 -1.2913  1.4143
42181SOL     OW44534   2.846  13.709  13.312 -0.1552  0.5277  0.1674
42181SOL    HW144535   2.817  13.622  13.283 -1.0081  1.3412 -1.5452
42181SOL    HW244536   2.774  13.740  13.367  0.9640 -0.5423  2.4003
42182SOL     OW44537   8.958   8.992   9.871 -0.2182 -0.2330 -0.3364
42182SOL    HW144538   9.022   9.047   9.826 -1.0015  0.2209 -0.9355
42182SOL    HW244539   8.893   9.054   9.904 -1.2880 -0.7892 -1.3073
42183SOL     OW44540  11.646   4.625   1.243 -0.1771  0.1863  0.4037
42183SOL    HW144541  11.736   4.652   1.226 -0.0422  0.4958  1.5334
42183SOL    HW244542  11.623   4.570   1.168  1.7033 -1.7219  1.1432
42184SOL     OW44543   7.124  13.293   2.257  0.0843 -0.0274  0.4409
42184SOL    HW144544   7.193  13.305   2.323  0.2953 -0.8330  0.3749
42184SOL    HW244545   7.159  13.333   2.178 -0.6560  2.0574  1.0839
42185SOL     OW44546   3.356   1.438   3.267  0.1144  0.6585 -0.1728
42185SOL    HW144547   3.262   1.430   3.250  0.1525  0.8112 -0.4540
42185SOL    HW244548   3.378   1.527   3.241  0.2821  0.7154  0.1599
42186SOL     OW44549   7.059   0.366   9.737  0.4723  0.2848 -0.0995
42186SOL    HW144550   7.023   0.278   9.751 -0.3117  0.1384 -2.5949
42186SOL    HW244551   6.994   0.424   9.776  0.0089 -0.1735 -0.1721
42187SOL     OW44552  11.200   8.554   8.602 -0.5292  0.0422  0.2304
42187SOL    HW144553  11.106   8.538   8.598 -0.7087  1.2289 -2.6251
42187SOL    HW244554  11.217   8.573   8.694 -3.0927 -0.1104  0.8065
42188SOL     OW44555  11.799   2.983   7.157  0.1660  0.3791 -0.1855
42188SOL    HW144556  11.856   3.010   7.229 -0.5647 -2.1806  1.5087
42188SOL    HW244557  11.712   2.976   7.196  0.0994 -3.1051 -0.6139
42189SOL     OW44558   6.115   7.272   2.087 -0.4479 -0.2718  0.0439
42189SOL    HW144559   6.021   7.257   2.100 -0.2303 -4.3749 -1.7173
42189SOL    HW244560   6.157   7.223   2.157  0.3977 -0.2961 -0.4758
42190SOL     OW44561  11.751   2.760  10.884  0.0419 -0.2475 -0.2843
42190SOL    HW144562  11.843   2.746  10.907  0.2251  1.1566 -0.0512
42190SOL    HW244563  11.702   2.709  10.948  0.6444 -1.4935 -0.7783
42191SOL     OW44564   9.930  10.695   8.039  0.2330 -0.7949  0.5227
42191SOL    HW144565   9.977  10.723   7.961 -0.5932 -0.0197  0.2696
42191SOL    HW244566   9.857  10.643   8.006  0.1123 -0.8049  0.7967
42192SOL     OW44567   3.290   0.194   5.804  0.4517  0.2938  0.2694
42192SOL    HW144568   3.296   0.279   5.847  2.1852  0.4246 -0.1560
42192SOL    HW244569   3.223   0.147   5.853  0.0826  1.5920  1.0536
42193SOL     OW44570   0.285   8.981  13.740 -0.3877  0.1740  0.0050
42193SOL    HW144571   0.348   8.961  13.671  0.8840 -1.3110  1.5041
42193SOL    HW244572   0.200   8.961  13.701  0.1290  1.0272 -1.6623
42194SOL     OW44573   8.567   3.398   4.333 -0.2572 -0.1407 -0.0253
42194SOL    HW144574   8.476   3.375   4.315 -0.0269 -0.4792 -0.7877
42194SOL    HW244575   8.600   3.327   4.387 -0.4628  0.0192  0.3132
42195SOL     OW44576   6.782   9.012   6.355  0.2719  0.1400 -0.4802
42195SOL    HW144577   6.821   8.931   6.388  0.8940  0.3402 -0.7070
42195SOL    HW244578   6.835   9.081   6.395 -1.1166  0.4878  0.8225
42196SOL     OW44579   0.339   6.422   9.884 -0.1594 -0.2635  0.6307
42196SOL    HW144580   0.378   6.418   9.797 -1.1380 -0.2408  0.1810
42196SOL    HW244581   0.388   6.492   9.929  0.2213 -0.1447  0.0406
42197SOL     OW44582   2.905  10.320   0.568 -0.0210 -0.6290  0.0708
42197SOL    HW144583   2.837  10.261   0.534 -2.1028  1.1696  0.8293
42197SOL    HW244584   2.947  10.356   0.491 -1.5943  0.0030 -0.5288
42198SOL     OW44585   9.735  13.746   1.311 -0.0612 -0.1835  0.0247
42198SOL    HW144586   9.732  13.726   1.218  0.3749  0.3881 -0.1215
42198SOL    HW244587   9.649  13.785   1.330  0.2183  0.6621 -0.3803
42199SOL     OW44588   3.207  12.466   9.456  0.0833  0.6055 -0.2777
42199SOL    HW144589   3.180  12.376   9.474  0.3049  0.5721 -0.1029
42199SOL    HW244590   3.303  12.463   9.455  0.1206  1.0068  0.6527
42200SOL     OW44591   9.258  12.679   5.586  0.5566 -0.0043  0.6644
42200SOL    HW144592   9.211  12.679   5.669 -1.7832  0.0672 -0.5690
42200SOL    HW244593   9.225  12.757   5.540 -1.0776 -1.9339 -1.7587
42201SOL     OW44594   2.801   4.628  11.864  0.0802 -0.0485  0.0502
42201SOL    HW144595   2.848   4.584  11.934 -0.7101  1.4357  1.5969
42201SOL    HW244596   2.709   4.610  11.882 -0.1120 -0.6114 -1.3244
42202SOL     OW44597   9.566  12.711   1.607 -0.2486 -0.5672 -0.2374
42202SOL    HW144598   9.516  12.712   1.688 -0.6599 -0.6676 -0.4906
42202SOL    HW244599   9.649  12.754   1.629 -0.5362 -0.1935  0.1197
42203SOL     OW44600   8.244   2.723  13.456  0.0332  0.5290  0.4649
42203SOL    HW144601   8.229   2.816  13.472  1.7282  0.7094  1.2305
42203SOL    HW244602   8.257   2.717  13.361 -2.7444  0.6073  0.0103
42204SOL     OW44603  11.376   1.614   7.850 -0.1854 -0.2589  0.2114
42204SOL    HW144604  11.409   1.696   7.811 -1.2776 -0.6623 -1.6666
42204SOL    HW244605  11.333   1.642   7.931 -3.4056  1.5935 -1.9156
42205SOL     OW44606  13.149  10.672   7.206 -0.5649  0.7535 -0.2098
42205SOL    HW144607  13.099  10.718   7.273 -3.7209  0.0123 -1.8506
42205SOL    HW244608  13.147  10.580   7.234  0.2269  0.7545 -0.1254
42206SOL     OW44609   3.328   1.756   0.311  0.5581  0.8591 -0.0074
42206SOL    HW144610   3.311   1.810   0.389 -0.4243  0.8585 -0.2064
42206SOL    HW244611   3.380   1.812   0.254  1.0000  0.9809  0.5096
42207SOL     OW44612   7.421  13.114   4.398 -0.0981 -0.1308  0.0278
42207SOL    HW144613   7.365  13.037   4.386  1.0053 -0.9311 -0.0647
42207SOL    HW244614   7.499  13.096   4.346  1.1289  0.0890  1.7080
42208SOL     OW44615   7.801  11.862   3.862 -0.5114 -0.1626 -0.1119
42208SOL    HW144616   7.803  11.837   3.769  0.5766  0.1636 -0.1962
42208SOL    HW244617   7.778  11.955   3.861  1.8811  0.5002 -0.2571
42209SOL     OW44618   3.299   2.212   5.377  0.1917  0.1295  0.1490
42209SOL    HW144619   3.332   2.274   5.441  0.0852 -0.1164  0.4415
42209SOL    HW244620   3.349   2.232   5.297 -0.8086  1.5058 -0.1741
42210SOL     OW44621   1.762  13.147   9.137 -0.4853 -0.4456  0.1450
42210SOL    HW144622   1.677  13.130   9.095 -0.7007 -0.3908  0.5450
42210SOL    HW244623   1.738  13.184   9.223 -0.0454  0.3541 -0.0690
42211SOL     OW44624   7.849  13.916  11.480  0.5998 -0.4385  0.3219
42211SOL    HW144625   7.782  13.949  11.540  0.8630 -2.0918  1.5952
42211SOL    HW244626   7.842  13.821  11.487  2.2352 -0.6409 -0.4968
42212SOL     OW44627   9.875  13.688   0.614 -0.3463 -0.4270 -0.3424
42212SOL    HW144628   9.821  13.644   0.680 -0.3606 -0.8694 -0.6463
42212SOL    HW244629   9.875  13.780   0.641 -2.8327 -0.0342 -1.3789
42213SOL     OW44630   7.096   4.931  11.831 -0.0610 -0.5540  0.1674
42213SOL    HW144631   7.150   4.864  11.874 -0.3225 -1.2498 -0.5618
42213SOL    HW244632   7.158   4.999  11.805  0.5578 -1.5866 -1.1302
42214SOL     OW44633  10.415  12.634  13.097  0.5282 -0.2536  0.2727
42214SOL    HW144634  10.397  12.682  13.017  1.7583  0.1540  0.2191
42214SOL    HW244635  10.337  12.646  13.151 -0.0107  0.0663 -0.5778
42215SOL     OW44636  13.923  11.678  13.326  0.6600  0.1388  0.5379
42215SOL    HW144637  13.973  11.759  13.314  0.0062  0.8215  2.1781
42215SOL    HW244638  13.990  11.610  13.339  1.1949  0.5126 -0.1993
42216SOL     OW44639   4.532  10.871  13.992 -0.2631 -0.6271 -0.6957
42216SOL    HW144640   4.578  10.787  14.002  2.4380  0.9196  1.5790
42216SOL    HW244641   4.445  10.855  14.028  0.9238 -2.0024  1.9031
42217SOL     OW44642   0.512   8.145   4.435  0.4317  0.3820  0.0481
42217SOL    HW144643   0.509   8.174   4.344 -1.2280  1.7670  0.4954
42217SOL    HW244644   0.422   8.153   4.466  0.1856 -3.4281  0.8476
42218SOL     OW44645   4.392   9.099   7.419 -0.2914 -0.1353  0.6535
42218SOL    HW144646   4.413   9.153   7.495 -0.5333 -0.7918  1.2011
42218SOL    HW244647   4.396   9.009   7.451 -0.7128 -0.4109 -0.0318
42219SOL     OW44648   2.933   5.339   4.420 -0.2693 -0.0801 -0.0585
42219SOL    HW144649   2.880   5.409   4.459 -1.1007 -1.1606  0.8381
42219SOL    HW244650   2.868   5.280   4.382  0.3292 -1.0398  0.3825
42220SOL     OW44651  12.404   0.246   2.098  1.0391 -0.0545  0.2172
42220SOL    HW144652  12.418   0.325   2.151 -0.1188 -0.0538  0.5659
42220SOL    HW244653  12.408   0.277   2.008 -2.4078  1.1286  0.2867
42221SOL     OW44654  13.164   4.737   2.934  0.0942  0.0955  0.0203
42221SOL    HW144655  13.199   4.654   2.902  0.3903 -0.0804  0.7854
42221SOL    HW244656  13.178   4.734   3.028  1.6469  1.7322 -0.1084
42222SOL     OW44657   0.399  12.820   2.252 -0.1391 -0.0983  0.4851
42222SOL    HW144658   0.460  12.751   2.277  3.1891  1.6416 -2.0949
42222SOL    HW244659   0.413  12.889   2.317 -0.0830 -0.0456  0.4161
42223SOL     OW44660   2.764   4.835   4.118  0.3434  0.3484  0.0543
42223SOL    HW144661   2.722   4.752   4.140  2.3054 -1.5173 -2.6878
42223SOL    HW244662   2.697   4.884   4.071 -1.0951  0.8061  2.3915
42224SOL     OW44663   5.870  12.785  10.226  0.0860  0.4431 -0.3121
42224SOL    HW144664   5.818  12.713  10.261  1.5435 -0.5021  0.0028
42224SOL    HW244665   5.849  12.787  10.133  1.2639 -1.5589 -0.6886
42225SOL     OW44666   4.288   6.659   5.750 -0.7646  0.0241 -0.0501
42225SOL    HW144667   4.211   6.609   5.776 -1.1215 -0.5608 -2.0959
42225SOL    HW244668   4.362   6.604   5.775 -1.0134  0.2568  1.2513
42226SOL     OW44669   4.876  10.548   3.923 -0.2652 -0.0969 -0.2892
42226SOL    HW144670   4.796  10.591   3.953 -1.6986 -1.8288 -1.4154
42226SOL    HW244671   4.910  10.505   4.002 -0.2593  0.8613  0.2562
42227SOL     OW44672   6.665  14.089   0.616  0.2069  0.3478 -0.4716
42227SOL    HW144673   6.613  14.124   0.688 -1.1777  1.8920 -2.1300
42227SOL    HW244674   6.747  14.061   0.657 -1.4929 -1.2722  2.0932
42228SOL     OW44675  10.339   7.947   6.374 -0.3748 -0.0816 -0.2901
42228SOL    HW144676  10.343   7.939   6.470  2.6358  0.2679 -0.2948
42228SOL    HW244677  10.292   8.029   6.359  0.9357  0.9713  1.0179
42229SOL     OW44678   8.214   9.997   3.243 -0.5141 -0.1548 -0.2822
42229SOL    HW144679   8.252   9.915   3.210 -2.4323 -0.9476 -0.6833
42229SOL    HW244680   8.169   9.971   3.323 -3.5321 -0.1831 -1.8343
42230SOL     OW44681   5.205  10.474   3.575 -0.1498  0.4043 -0.4251
42230SOL    HW144682   5.155  10.543   3.619 -0.2385  0.6789 -0.9447
42230SOL    HW244683   5.178  10.393   3.619  1.2010  0.8435  1.3411
42231SOL     OW44684   1.026   7.299   5.584 -0.7198  0.1487 -0.4764
42231SOL    HW144685   0.930   7.306   5.582 -0.7888  0.4155  1.7513
42231SOL    HW244686   1.053   7.355   5.657  0.9993 -1.2673  0.0474
42232SOL     OW44687   9.890   6.656   5.569 -0.4761  0.4664  0.2901
42232SOL    HW144688   9.907   6.637   5.661 -1.2708  1.5234  0.6744
42232SOL    HW244689   9.974   6.687   5.534  0.0592 -0.8027  0.4089
42233SOL     OW44690  10.375   3.538  10.185 -0.0027 -0.4842 -0.2933
42233SOL    HW144691  10.294   3.522  10.137  0.3348 -0.6439 -0.8111
42233SOL    HW244692  10.431   3.464  10.164  0.6944  0.1817 -0.8222
42234SOL     OW44693  13.700   4.827   3.950  0.6007  0.1660  0.5087
42234SOL    HW144694  13.783   4.792   3.918  0.9099  1.2469  0.0653
42234SOL    HW244695  13.666   4.760   4.008 -0.3388 -2.2493 -2.5700
42235SOL     OW44696  11.157   1.356   6.832 -0.4312  0.3795 -0.5092
42235SOL    HW144697  11.065   1.350   6.806 -0.3155  2.0616 -1.4068
42235SOL    HW244698  11.156   1.348   6.927 -1.1627 -2.7793 -0.6640
42236SOL     OW44699   5.515   4.914  13.823 -0.0242  0.3200  0.4074
42236SOL    HW144700   5.529   4.836  13.769 -1.8440 -0.7117  1.3270
42236SOL    HW244701   5.518   4.987  13.761  1.7343 -0.4316 -0.4768
42237SOL     OW44702   0.434  12.227   0.264  0.3228  0.1135 -0.3626
42237SOL    HW144703   0.412  12.277   0.343  2.1069  0.2218  0.1160
42237SOL    HW244704   0.450  12.138   0.296 -3.9018 -1.2118 -1.3412
42238SOL     OW44705   9.825  12.841  12.114 -0.3748 -0.1591 -0.0269
42238SOL    HW144706   9.918  12.858  12.098 -0.3303  0.8955  1.2285
42238SOL    HW244707   9.811  12.753  12.079  0.6652  0.3369 -1.8179
42239SOL     OW44708   5.016  11.676   7.379 -0.4355 -0.2735 -0.5708
42239SOL    HW144709   4.965  11.732   7.439 -0.3471 -0.1754 -0.5864
42239SOL    HW244710   5.106  11.687   7.407 -0.4101 -0.3480 -0.6254
42240SOL     OW44711  12.456  13.479   8.719 -0.5888  0.0015  0.3027
42240SOL    HW144712  12.443  13.550   8.782 -1.3089  0.4065 -0.2849
42240SOL    HW244713  12.368  13.452   8.695 -0.3345 -0.0012 -0.6808
42241SOL     OW44714   0.513   4.726   8.380  0.4806 -0.3449 -0.1253
42241SOL    HW144715   0.572   4.772   8.319 -0.9895 -0.2494 -1.5589
42241SOL    HW244716   0.564   4.651   8.410  1.0177 -0.8570 -2.1383
42242SOL     OW44717   6.230   8.182  14.138 -0.1658 -0.3882  0.1694
42242SOL    HW144718   6.221   8.180  14.234 -0.9074  0.0877  0.1166
42242SOL    HW244719   6.167   8.248  14.110 -1.0700 -1.6157 -0.7766
42243SOL     OW44720   0.285   8.641   0.963 -0.1010 -0.1978 -0.1144
42243SOL    HW144721   0.259   8.733   0.971 -1.2071 -0.4942 -0.1097
42243SOL    HW244722   0.259   8.616   0.874  0.5103 -0.4181 -0.2366
42244SOL     OW44723   1.198  13.627   4.103  0.1054  0.5719  0.7871
42244SOL    HW144724   1.282  13.595   4.134  0.6288  2.4818  1.4209
42244SOL    HW244725   1.189  13.589   4.015  0.8596 -0.9270  1.3313
42245SOL     OW44726   9.247   5.623  13.980  0.1992  0.8166 -0.2081
42245SOL    HW144727   9.179   5.637  14.046  0.3812  0.5498  0.0397
42245SOL    HW244728   9.228   5.537  13.944 -0.8749  1.6376 -1.6778
42246SOL     OW44729   6.272   5.476   8.284 -0.3365  0.1828  0.0967
42246SOL    HW144730   6.360   5.499   8.253 -0.3522 -0.2735 -0.3040
42246SOL    HW244731   6.214   5.510   8.215 -0.3954 -0.5290 -0.2143
42247SOL     OW44732   1.184   6.919  14.014 -0.0403  0.2147 -1.0237
42247SOL    HW144733   1.245   6.930  13.941  0.5572  1.7909 -0.3316
42247SOL    HW244734   1.210   6.836  14.054 -0.2489 -0.5738 -2.4520
42248SOL     OW44735   8.901   1.661   6.436 -0.0497  0.1207  0.6875
42248SOL    HW144736   8.944   1.633   6.517 -1.1914  2.3792  2.1822
42248SOL    HW244737   8.830   1.597   6.424  0.6508 -0.7338  0.9558
42249SOL     OW44738  13.498   8.724   9.463  0.4938  0.0012 -0.0209
42249SOL    HW144739  13.586   8.708   9.426  0.1196  0.7885 -1.3294
42249SOL    HW244740  13.473   8.809   9.428 -0.3118  0.3502  1.3414
42250SOL     OW44741   8.828  13.972   1.299 -0.3677  0.5936  0.0713
42250SOL    HW144742   8.786  13.958   1.213 -0.3332  0.9160 -0.0008
42250SOL    HW244743   8.856  13.885   1.326  0.0903  0.5596 -0.4883
42251SOL     OW44744   9.038   5.193  10.013  0.2072  0.1096  0.0447
42251SOL    HW144745   9.108   5.241   9.970 -0.4446  1.9468  0.8997
42251SOL    HW244746   9.075   5.166  10.097  0.2596  0.0152 -0.0088
42252SOL     OW44747   4.166  12.777   5.735 -0.3475 -0.2427  0.1247
42252SOL    HW144748   4.177  12.826   5.654 -1.1308  0.6612  0.5375
42252SOL    HW244749   4.225  12.821   5.797 -1.3994  0.5039  0.6216
42253SOL     OW44750   9.015  10.641  11.933  0.0719 -0.1463 -0.8551
42253SOL    HW144751   9.084  10.702  11.958  1.0843 -0.9999 -1.5242
42253SOL    HW244752   9.029  10.625  11.840  1.2228 -3.0742 -0.2748
42254SOL     OW44753   9.611   1.663  12.552  0.4600  0.1465  0.1755
42254SOL    HW144754   9.551   1.590  12.539  0.4930 -0.1896  1.7316
42254SOL    HW244755   9.684   1.645  12.492  0.2554 -0.8515  0.2110
42255SOL     OW44756   5.859   3.977  12.705  0.0399  0.5546 -0.3883
42255SOL    HW144757   5.934   3.964  12.647  0.3188  0.2444  0.0309
42255SOL    HW244758   5.797   3.908  12.681  0.7830 -0.5162  0.6660
42256SOL     OW44759   4.761   6.113   0.472  0.3484  0.8657 -0.1022
42256SOL    HW144760   4.782   6.031   0.427  0.5034  1.0540 -0.3736
42256SOL    HW244761   4.746   6.087   0.563 -2.2001  0.1278 -0.6402
42257SOL     OW44762   9.742   1.507   3.654 -0.2880  0.1018 -0.1730
42257SOL    HW144763   9.684   1.484   3.581 -1.5304  2.1690  0.0639
42257SOL    HW244764   9.818   1.547   3.613  0.1263 -0.9014 -0.4083
42258SOL     OW44765   7.119   1.099   8.391  0.6470 -0.4500  0.0723
42258SOL    HW144766   7.155   1.011   8.401  0.0034 -0.7546 -0.2574
42258SOL    HW244767   7.025   1.088   8.400  0.5343  0.1614 -0.2896
42259SOL     OW44768  11.274   6.426   7.231  0.5476 -0.0159  0.4284
42259SOL    HW144769  11.354   6.415   7.283  1.2380  0.8671 -0.4167
42259SOL    HW244770  11.209   6.457   7.294  0.9884 -0.3030  1.0369
42260SOL     OW44771  12.771   0.303   8.805 -0.0708  0.0515  0.0302
42260SOL    HW144772  12.741   0.227   8.854 -0.3567  0.9827  1.3328
42260SOL    HW244773  12.698   0.365   8.807  0.2710  0.5032 -0.7290
42261SOL     OW44774   4.600   0.457   9.258  0.6182 -0.5980  0.1478
42261SOL    HW144775   4.602   0.553   9.249  0.0372 -0.4774  1.2319
42261SOL    HW244776   4.555   0.441   9.340  0.3931 -1.8306 -0.1970
42262SOL     OW44777  11.653   9.670   5.136 -0.3283  0.4045  0.1740
42262SOL    HW144778  11.625   9.591   5.088 -2.7064  2.7424 -2.6874
42262SOL    HW244779  11.582   9.687   5.198 -0.6726  1.1682 -0.4126
42263SOL     OW44780  10.761   9.799   2.284 -0.2272  0.2578  0.6741
42263SOL    HW144781  10.745   9.787   2.191 -0.6101 -0.1125  0.7840
42263SOL    HW244782  10.745   9.713   2.323 -0.4374  0.4958  1.1274
42264SOL     OW44783   7.494   5.823  12.383  0.0583  0.0295 -0.2041
42264SOL    HW144784   7.588   5.813  12.398  0.0559 -1.5262 -0.9832
42264SOL    HW244785   7.484   5.913  12.351  1.1585  0.4742  0.6591
42265SOL     OW44786   8.487   0.302   2.245  0.2242 -0.6867  0.3262
42265SOL    HW144787   8.483   0.206   2.243 -0.0907 -0.6669 -0.5968
42265SOL    HW244788   8.530   0.325   2.163 -0.9052  0.0137 -0.0861
42266SOL     OW44789  11.482   8.060  14.097 -0.1591 -0.1424  0.1778
42266SOL    HW144790  11.513   8.145  14.067 -1.0085 -0.0721 -0.5563
42266SOL    HW244791  11.461   8.074  14.190  1.1966  0.0100  0.4717
42267SOL     OW44792   7.850   2.393   1.402 -0.0682 -0.0299  0.1788
42267SOL    HW144793   7.917   2.354   1.346  0.6972 -0.8518  1.5937
42267SOL    HW244794   7.794   2.319   1.427 -0.8883  0.4674 -0.1450
42268SOL     OW44795   0.325   9.224   1.413 -0.4900  0.5523 -0.0444
42268SOL    HW144796   0.269   9.302   1.415 -2.0907 -0.5665  1.0516
42268SOL    HW244797   0.327   9.194   1.504 -0.6207 -1.1697 -0.5790
42269SOL     OW44798  12.514   7.459   8.878 -0.2744 -0.0330  0.3027
42269SOL    HW144799  12.441   7.461   8.816  0.1767 -0.4524 -0.2581
42269SOL    HW244800  12.577   7.398   8.838  0.0275 -0.2992  1.1720
42270SOL     OW44801   8.246   4.487  13.262 -0.6259  0.3889  0.4606
42270SOL    HW144802   8.281   4.558  13.315  0.8484 -1.4705  2.1604
42270SOL    HW244803   8.314   4.472  13.195  0.5328 -1.2628  1.9217
42271SOL     OW44804   5.479   8.745  12.303 -0.3334  0.0905 -0.0675
42271SOL    HW144805   5.522   8.662  12.280 -1.4681 -1.0971  1.8012
42271SOL    HW244806   5.388   8.720  12.319 -1.0453  2.0046 -0.9397
42272SOL     OW44807  12.211  10.194   3.798  0.8757  0.2570  0.2909
42272SOL    HW144808  12.126  10.233   3.779  1.2231  0.7366 -0.3452
42272SOL    HW244809  12.261  10.206   3.718  1.6449  0.2554  0.7581
42273SOL     OW44810  13.869   1.268   4.369 -0.0961 -0.2436  0.1457
42273SOL    HW144811  13.875   1.276   4.464  1.1834  1.2337 -0.0129
42273SOL    HW244812  13.927   1.337   4.336 -0.9554 -0.3671 -1.7157
42274SOL     OW44813  10.063   7.681  10.659  0.0050 -0.2167  0.2353
42274SOL    HW144814  10.132   7.745  10.674 -1.3640  1.3634  0.0548
42274SOL    HW244815  10.073   7.656  10.567  1.6038 -1.6188  0.7435
42275SOL     OW44816   5.455   0.995  13.493  0.4974  0.2649 -0.2312
42275SOL    HW144817   5.482   0.948  13.414  0.1742  1.5005 -1.1104
42275SOL    HW244818   5.446   1.086  13.465 -1.1897  0.4728  0.8343
42276SOL     OW44819   1.096  12.030   8.602  0.5921  0.3713  0.3494
42276SOL    HW144820   1.070  12.066   8.517  1.1315 -2.2747 -1.0288
42276SOL    HW244821   1.190  12.043   8.605  0.6766 -0.1849  0.1955
42277SOL     OW44822   9.006   6.673   4.100 -0.4805  0.0072 -0.5136
42277SOL    HW144823   8.914   6.652   4.088 -0.9517  2.3782 -1.7790
42277SOL    HW244824   9.006   6.745   4.163  0.3232  1.1034 -1.7206
42278SOL     OW44825   3.969   1.299   4.868  0.2301  0.4278  0.1968
42278SOL    HW144826   3.964   1.385   4.910 -0.7177  0.3040  0.3734
42278SOL    HW244827   3.976   1.318   4.775 -1.2442  0.7192  0.1231
42279SOL     OW44828   2.433   1.882   0.266  0.1526  0.3641  0.4980
42279SOL    HW144829   2.392   1.947   0.208  1.0485  0.0943 -0.4739
42279SOL    HW244830   2.485   1.934   0.328  0.4163  0.6111  0.0782
42280SOL     OW44831   0.493   7.499   7.239 -0.0330  0.0215  0.6954
42280SOL    HW144832   0.431   7.452   7.294 -1.7290  0.5805 -0.6274
42280SOL    HW244833   0.492   7.589   7.273 -0.7511  0.2640  0.0788
42281SOL     OW44834   0.434  11.466   1.706 -0.9877 -0.4043  0.3215
42281SOL    HW144835   0.431  11.416   1.624  0.0212  2.2323 -1.4795
42281SOL    HW244836   0.351  11.513   1.707 -1.0759 -0.5737  0.9264
42282SOL     OW44837   5.964   3.144  13.493 -0.1783  0.3288  0.2295
42282SOL    HW144838   5.869   3.136  13.484 -0.5214  1.2792  2.2562
42282SOL    HW244839   5.988   3.212  13.430 -1.3117  2.0408  1.5518
42283SOL     OW44840   8.721  11.770   5.930 -0.3887 -0.1821 -0.1455
42283SOL    HW144841   8.656  11.840   5.933 -0.5294 -0.3457  0.8405
42283SOL    HW244842   8.680  11.697   5.977  0.1151 -0.6278 -0.3856
42284SOL     OW44843  11.014  12.885   2.159 -0.2149 -0.1258  0.2646
42284SOL    HW144844  11.007  12.798   2.119 -1.3682  0.8950 -1.9114
42284SOL    HW244845  10.939  12.934   2.124 -0.6293  1.2619  2.8000
42285SOL     OW44846   2.489   8.359  12.332  0.7304 -0.4514 -0.2834
42285SOL    HW144847   2.483   8.383  12.425  1.5714 -0.7189 -0.1526
42285SOL    HW244848   2.470   8.265  12.330 -2.2323  0.0582 -0.7552
42286SOL     OW44849   7.352   8.972   8.953 -0.1823 -0.1381 -0.1464
42286SOL    HW144850   7.363   8.941   8.863  0.9869  0.3176 -0.1787
42286SOL    HW244851   7.441   8.975   8.988 -0.7371 -1.5928  1.4827
42287SOL     OW44852  10.711   5.361  11.432  0.2761  0.0154 -0.1850
42287SOL    HW144853  10.643   5.424  11.456 -0.2240 -0.3745 -0.5481
42287SOL    HW244854  10.706   5.355  11.337  0.9021  0.0669 -0.2252
42288SOL     OW44855   6.824   0.871   0.419  0.2770 -0.2245  0.1640
42288SOL    HW144856   6.844   0.856   0.327 -1.7099  1.5485 -0.6442
42288SOL    HW244857   6.905   0.851   0.465  2.3519  1.8730 -2.2653
42289SOL     OW44858   6.948   9.026   9.161  0.1378 -0.3021  0.1020
42289SOL    HW144859   6.997   8.943   9.163  0.4601 -0.0985  0.7207
42289SOL    HW244860   6.996   9.080   9.099  0.9485  0.0438  1.0119
42290SOL     OW44861   9.549   7.962   9.744  0.4528  0.3187  0.0058
42290SOL    HW144862   9.570   7.901   9.815 -3.4578 -3.2054 -1.5028
42290SOL    HW244863   9.552   7.910   9.664 -2.2839  2.2412 -1.5243
42291SOL     OW44864  11.101  13.048   4.708 -0.1627 -0.3044 -0.0746
42291SOL    HW144865  11.063  13.099   4.780 -1.1574  1.5507 -1.8077
42291SOL    HW244866  11.172  13.103   4.675 -0.3130 -0.7082 -1.0843
42292SOL     OW44867   7.148  11.961   2.979  0.0155 -0.3496  0.1162
42292SOL    HW144868   7.086  11.996   3.044  0.6715 -0.9365  1.0918
42292SOL    HW244869   7.110  11.877   2.953 -0.7324  0.3202 -0.9964
42293SOL     OW44870   4.381   6.433   1.029 -0.1995 -0.0648 -0.0674
42293SOL    HW144871   4.461   6.438   0.977  0.1253 -1.4868  0.2521
42293SOL    HW244872   4.315   6.398   0.969  0.1849 -1.7438  0.4352
42294SOL     OW44873   6.954   4.649   9.163 -0.5537  0.0585  0.2486
42294SOL    HW144874   6.930   4.564   9.125  2.1113 -0.3020 -0.8344
42294SOL    HW244875   6.975   4.629   9.255 -0.9617 -0.2467  0.2793
42295SOL     OW44876   2.424   4.638   5.430 -0.4304 -0.4256  0.0830
42295SOL    HW144877   2.422   4.732   5.413  0.3384 -0.6319 -1.3346
42295SOL    HW244878   2.421   4.598   5.344 -0.3284 -1.6955  0.6449
42296SOL     OW44879   9.538   9.324   0.823  0.3292 -0.0723 -0.0820
42296SOL    HW144880   9.522   9.318   0.729  2.8142 -0.5230 -0.5353
42296SOL    HW244881   9.547   9.418   0.840 -1.2305  0.0915 -0.0476
42297SOL     OW44882   8.999   7.145   8.761 -0.4344 -0.0940 -0.2738
42297SOL    HW144883   9.063   7.074   8.759 -0.3685 -0.0620  0.4456
42297SOL    HW244884   8.920   7.107   8.799  0.4772  0.8618  2.8787
42298SOL     OW44885   3.644   8.891   4.479  1.0165  0.2651  0.1765
42298SOL    HW144886   3.725   8.938   4.457  1.1442 -0.7972 -1.9187
42298SOL    HW244887   3.665   8.799   4.462 -0.6351 -0.0177 -0.5105
42299SOL     OW44888  13.772  13.983  12.456 -0.0916  0.5717 -0.0823
42299SOL    HW144889  13.820  13.971  12.374  1.8202 -0.3709  1.1065
42299SOL    HW244890  13.823  14.048  12.505 -0.4909  0.1821  0.8744
42300SOL     OW44891   7.377   8.165  11.382  0.3100  0.0254  0.3153
42300SOL    HW144892   7.308   8.217  11.424 -1.0952 -1.8476  0.4210
42300SOL    HW244893   7.455   8.222  11.385 -0.4663  1.0660  2.8363
42301SOL     OW44894  13.452   5.350   5.187  0.0057 -0.2846  0.0359
42301SOL    HW144895  13.514   5.416   5.158  1.0314 -0.5236  1.5357
42301SOL    HW244896  13.372   5.398   5.207  0.3696  0.3404  0.0058
42302SOL     OW44897  11.385  10.576  14.084  0.8383  0.0860 -0.5080
42302SOL    HW144898  11.346  10.568  14.171 -3.1186  0.9651 -1.9838
42302SOL    HW244899  11.418  10.489  14.064  0.6533 -0.4471  1.3427
42303SOL     OW44900  10.831   2.012  11.744  0.1730 -0.3393  0.3285
42303SOL    HW144901  10.881   2.062  11.680 -0.0686 -0.5887 -0.0555
42303SOL    HW244902  10.744   2.002  11.706 -0.2170  0.1954  1.0475
42304SOL     OW44903   3.083   9.910   9.149  0.2838  0.2418  0.1821
42304SOL    HW144904   3.051   9.858   9.076 -0.3094 -0.6697  1.0637
42304SOL    HW244905   3.177   9.916   9.136  0.1682  0.1929 -0.7083
42305SOL     OW44906   0.173   6.294   1.824  0.0378 -0.0133  0.1699
42305SOL    HW144907   0.174   6.199   1.817  0.1265  0.0232 -0.3243
42305SOL    HW244908   0.266   6.318   1.836 -0.1582 -0.1314  2.3777
42306SOL     OW44909   7.090  11.952   0.819 -0.3128 -0.0196  0.4911
42306SOL    HW144910   7.004  11.992   0.805 -0.4986 -1.1582 -2.5104
42306SOL    HW244911   7.073  11.880   0.879 -0.4749  2.4804  3.7013
42307SOL     OW44912   0.164  12.414  12.003  0.5637  0.0831 -0.0693
42307SOL    HW144913   0.161  12.334  12.055 -1.0388 -0.9837 -1.7039
42307SOL    HW244914   0.251  12.450  12.020  0.3884 -0.5761  2.7164
42308SOL     OW44915  12.593  12.246   2.600 -0.4975  0.0994 -0.0765
42308SOL    HW144916  12.528  12.245   2.670  0.7410  0.9232  1.1532
42308SOL    HW244917  12.552  12.294   2.529 -1.5522 -0.1973  0.3147
42309SOL     OW44918   3.392   5.406   2.775 -0.1660 -0.0300  0.2953
42309SOL    HW144919   3.330   5.363   2.716  0.7584 -1.6031  0.4160
42309SOL    HW244920   3.478   5.392   2.734  0.1576  2.0959  0.1328
42310SOL     OW44921   3.807   9.089  11.462  0.1744 -0.3485  0.2733
42310SOL    HW144922   3.746   9.015  11.470 -1.2581  0.8146  0.4425
42310SOL    HW244923   3.839   9.104  11.551  0.2391 -0.5639  0.2876
42311SOL     OW44924   2.020  14.026  14.127  0.2635 -0.2289 -0.2158
42311SOL    HW144925   1.991  14.109  14.089 -0.9557  0.0172  1.1663
42311SOL    HW244926   1.939  13.976  14.141  0.5682 -0.1706  2.2860
42312SOL     OW44927   6.279  12.488  11.585 -0.3255 -0.3201  0.6407
42312SOL    HW144928   6.288  12.393  11.588 -3.5449 -0.7734  0.2342
42312SOL    HW244929   6.197  12.505  11.632 -1.7738  1.8350 -2.3747
42313SOL     OW44930   7.658  11.568   0.022 -0.1073 -0.1667  0.0173
42313SOL    HW144931   7.685  11.550  -0.068  0.3029  1.4684 -0.2174
42313SOL    HW244932   7.706  11.504   0.075  0.2568 -0.6272 -0.8534
42314SOL     OW44933   7.293   6.425  13.982  0.2487 -0.4515 -0.5294
42314SOL    HW144934   7.240   6.493  14.024  2.2971  2.2122 -1.9570
42314SOL    HW244935   7.365   6.410  14.042  0.6150 -0.1894 -0.8967
42315SOL     OW44936   5.282   9.624  10.223 -0.1990  0.3476 -0.3491
42315SOL    HW144937   5.316   9.695  10.168 -1.6571  0.7409 -0.8097
42315SOL    HW244938   5.321   9.545  10.186  2.2207  0.9254  0.7648
42316SOL     OW44939   5.059  13.953  12.637 -0.3944  0.3042  0.0568
42316SOL    HW144940   5.016  13.994  12.562 -0.6298  0.8790  0.4982
42316SOL    HW244941   4.994  13.892  12.671 -0.1378 -0.2574 -0.4479
42317SOL     OW44942   7.334   6.557   2.015 -0.3577 -0.5324 -0.0651
42317SOL    HW144943   7.302   6.596   1.934 -0.8149 -1.5454 -0.3841
42317SOL    HW244944   7.278   6.596   2.083  1.1207  1.6304  0.0272
42318SOL     OW44945   4.522  11.421   4.765 -0.3657 -0.5206  0.1594
42318SOL    HW144946   4.469  11.341   4.770 -0.9776 -0.3158 -2.2180
42318SOL    HW244947   4.577  11.409   4.688 -0.1949  1.2066 -0.0069
42319SOL     OW44948   2.640   9.158   7.935  0.3718  0.3015  0.3222
42319SOL    HW144949   2.634   9.231   7.996  1.3077 -1.4883  2.7011
42319SOL    HW244950   2.715   9.108   7.965 -0.2909 -1.6970 -1.1592
42320SOL     OW44951   7.159   9.252   9.816  0.2409 -0.4150 -0.2233
42320SOL    HW144952   7.171   9.157   9.803 -1.0460 -0.6611  0.2890
42320SOL    HW244953   7.205   9.291   9.741  1.1554 -1.4115 -0.2240
42321SOL     OW44954   3.719   3.090   0.267 -0.3983 -0.2421 -0.3855
42321SOL    HW144955   3.683   3.134   0.344 -0.9056 -0.2716 -0.5997
42321SOL    HW244956   3.739   3.160   0.206 -1.4198 -0.3082 -0.8163
42322SOL     OW44957   7.471   7.407   7.615 -0.3069  0.1836 -0.1248
42322SOL    HW144958   7.474   7.379   7.706 -0.8490 -2.0500 -0.7358
42322SOL    HW244959   7.433   7.332   7.568  1.5391  0.5814 -2.4415
42323SOL     OW44960   2.295  12.355   7.805 -0.0235  0.1412 -0.2830
42323SOL    HW144961   2.374  12.401   7.777 -1.0926  1.2568 -1.5731
42323SOL    HW244962   2.279  12.291   7.736 -0.4891  0.1910 -0.2195
42324SOL     OW44963   0.740  12.258   9.158  0.0925  0.4427 -0.3569
42324SOL    HW144964   0.832  12.237   9.139  0.0456 -0.7920  0.6084
42324SOL    HW244965   0.697  12.256   9.073  0.5714 -1.2059 -0.6042
42325SOL     OW44966   2.809   5.041  11.340  0.0625 -0.2557  0.0664
42325SOL    HW144967   2.826   5.073  11.251 -0.3543 -1.2415 -0.3890
42325SOL    HW244968   2.895   5.015  11.373  0.0745 -0.9456 -0.4885
42326SOL     OW44969  10.809   4.434  12.084  0.5491 -0.0063 -0.3598
42326SOL    HW144970  10.900   4.461  12.072  0.8903 -1.0528 -0.2993
42326SOL    HW244971  10.782   4.402  11.998 -0.0898  1.1783 -0.6184
42327SOL     OW44972   4.058   9.229   4.676 -0.1720 -0.4083  0.4931
42327SOL    HW144973   4.122   9.235   4.748 -0.4746  0.5185  0.6921
42327SOL    HW244974   4.028   9.138   4.679 -0.1399 -0.3991  1.5054
42328SOL     OW44975   9.117   3.300  10.385  0.3313 -0.4642  0.2298
42328SOL    HW144976   9.141   3.217  10.425 -1.1851 -0.3759  1.4224
42328SOL    HW244977   9.101   3.279  10.293  0.7267 -1.3346  0.3581
42329SOL     OW44978  12.820   1.296   5.501 -0.5665  0.2176  0.4415
42329SOL    HW144979  12.893   1.234   5.509 -0.2386  0.4823 -0.4070
42329SOL    HW244980  12.790   1.309   5.591  0.2501 -0.1193  0.7749
42330SOL     OW44981   9.714   2.371   3.843  0.2662  0.6125 -0.1534
42330SOL    HW144982   9.712   2.281   3.810  0.8547  0.6183 -0.2200
42330SOL    HW244983   9.749   2.422   3.770  0.5411  0.7964  0.1065
42331SOL     OW44984  13.381   1.962  11.339 -0.1314  0.0358 -0.1181
42331SOL    HW144985  13.286   1.962  11.327 -0.1706  0.2102  0.1858
42331SOL    HW244986  13.416   1.983  11.252 -0.3859  0.5985 -0.0860
42332SOL     OW44987   0.428   7.268   5.471 -0.3765  0.1023 -0.5955
42332SOL    HW144988   0.460   7.308   5.390 -0.3885 -0.4837 -0.8946
42332SOL    HW244989   0.470   7.318   5.541  0.0886  0.2466 -0.9705
42333SOL     OW44990  12.760   2.990   0.178 -0.0121 -0.1313 -0.4928
42333SOL    HW144991  12.779   2.911   0.128  2.2207  0.2004 -0.3108
42333SOL    HW244992  12.692   2.965   0.240  0.6218 -1.9209 -0.4712
42334SOL     OW44993   0.563   6.728  13.901  0.9501  0.4759 -0.0820
42334SOL    HW144994   0.633   6.729  13.835  0.2388  0.2124 -0.8477
42334SOL    HW244995   0.482   6.722  13.851  0.4742 -1.9338  0.8740
42335SOL     OW44996   1.331  12.247   6.382 -0.6663 -0.0628 -0.1190
42335SOL    HW144997   1.412  12.289   6.411  1.0619 -0.9887 -3.1526
42335SOL    HW244998   1.326  12.167   6.434  0.3989 -0.0141  0.0889
42336SOL     OW44999   9.077   0.114   3.286  0.3192  0.3510  0.6369
42336SOL    HW145000   9.088   0.203   3.318  0.0794  0.7508 -0.3560
42336SOL    HW245001   8.993   0.115   3.239  1.1587  0.1047 -0.9564
42337SOL     OW45002   2.870   6.253   9.486 -0.0350  0.2529  0.2333
42337SOL    HW145003   2.878   6.347   9.504  0.3156  0.5068 -1.1590
42337SOL    HW245004   2.952   6.216   9.520  0.1308  0.5524  0.1682
42338SOL     OW45005   3.825   0.532  12.669 -0.3361 -0.6668  0.0370
42338SOL    HW145006   3.749   0.554  12.724  0.4292 -0.7963  1.2013
42338SOL    HW245007   3.899   0.539  12.729  0.5898 -0.4333 -1.1070
42339SOL     OW45008  11.060   4.589   6.168 -0.2308  0.1267  0.6574
42339SOL    HW145009  11.133   4.620   6.222 -0.2260  1.0854  0.1211
42339SOL    HW245010  11.091   4.598   6.078 -1.2386  1.1926  0.3905
42340SOL     OW45011  11.506   3.593   8.849  0.1339  0.0275 -0.3480
42340SOL    HW145012  11.505   3.498   8.840 -0.0369  0.2244 -3.3135
42340SOL    HW245013  11.414   3.619   8.848  0.2140  0.3175 -1.4629
42341SOL     OW45014  10.319   0.007   0.944 -0.4826  0.0390  0.0261
42341SOL    HW145015  10.305   0.091   0.900 -0.7516  0.3408  0.6767
42341SOL    HW245016  10.391  -0.033   0.895  0.6901  1.3244  0.6212
42342SOL     OW45017   7.418   7.594   3.899  0.2311 -0.4964 -0.2707
42342SOL    HW145018   7.337   7.640   3.922 -0.4063 -1.8179  0.2662
42342SOL    HW245019   7.479   7.616   3.969  0.3543  0.4902 -0.6662
42343SOL     OW45020   2.327   0.638   1.803 -0.1139 -0.5650  0.7332
42343SOL    HW145021   2.420   0.660   1.800 -0.4647  1.1233  1.1445
42343SOL    HW245022   2.317   0.588   1.884  0.8098 -2.9022 -0.5037
42344SOL     OW45023   8.305   1.908   5.514  0.2240  0.2215  0.1354
42344SOL    HW145024   8.369   1.858   5.564  0.5382  2.5557  2.2643
42344SOL    HW245025   8.224   1.858   5.521  0.9195 -0.8810  0.5992
42345SOL     OW45026   1.501   9.445   1.027  0.2332  1.2396 -0.1797
42345SOL    HW145027   1.462   9.498   0.957  0.1212  0.7766 -0.4762
42345SOL    HW245028   1.575   9.401   0.986  1.3288  2.4130  0.4845
42346SOL     OW45029   6.741  11.866   3.776  0.4784  0.7360 -0.0549
42346SOL    HW145030   6.669  11.928   3.791  0.4951  0.7104  0.1263
42346SOL    HW245031   6.698  11.791   3.735  0.3149  0.4999  0.5412
42347SOL     OW45032  10.882   6.244   5.985  0.0490 -0.2526  0.0869
42347SOL    HW145033  10.965   6.196   5.990 -0.0240 -1.0402 -3.5909
42347SOL    HW245034  10.903   6.332   6.017  1.8870 -0.8545  0.6670
42348SOL     OW45035   7.658   8.037   9.506  0.4934  0.1017  0.1468
42348SOL    HW145036   7.730   8.031   9.443 -0.4700  2.6587 -1.3468
42348SOL    HW245037   7.641   7.947   9.531  2.1465 -0.8613 -1.8699
42349SOL     OW45038  13.113  12.544  13.364 -0.2303  0.1102  0.4238
42349SOL    HW145039  13.078  12.501  13.442 -0.3567  0.3883  0.5219
42349SOL    HW245040  13.037  12.558  13.308 -0.5207  1.9370  1.2123
42350SOL     OW45041   7.394  10.735   1.265 -0.2139 -0.5891 -0.0446
42350SOL    HW145042   7.483  10.770   1.258 -0.0807 -0.3866  1.9653
42350SOL    HW245043   7.366  10.759   1.354 -1.9815 -1.3438 -0.3568
42351SOL     OW45044  10.604  14.099   2.593  0.7464  0.2620 -0.2445
42351SOL    HW145045  10.660  14.025   2.570  0.2878 -0.3472  0.5494
42351SOL    HW245046  10.539  14.102   2.523 -0.5662 -1.5007  0.8077
42352SOL     OW45047  14.072  11.714   7.430  0.5523 -0.3436 -0.0083
42352SOL    HW145048  14.053  11.775   7.358 -0.6613  0.6098  1.0672
42352SOL    HW245049  14.054  11.628   7.393  1.0676  0.0335 -1.1941
42353SOL     OW45050   4.879   4.963  10.349  0.2416  0.0505  0.2706
42353SOL    HW145051   4.949   4.927  10.404 -1.3779 -1.0925  1.6691
42353SOL    HW245052   4.810   4.988  10.411 -1.2542 -0.3730 -1.1633
42354SOL     OW45053  10.384   5.613   5.272 -0.2570  0.1248 -0.0855
42354SOL    HW145054  10.388   5.519   5.259 -1.7972 -0.0754  0.5987
42354SOL    HW245055  10.305   5.640   5.225 -0.5997  0.8385  0.8646
42355SOL     OW45056   8.337   6.034   1.969  0.0896 -0.0054 -0.3146
42355SOL    HW145057   8.375   5.976   2.035 -2.8709 -1.5985  0.1236
42355SOL    HW245058   8.352   6.122   2.003 -1.0953 -0.7701  2.4191
42356SOL     OW45059  10.053  12.479  11.378  0.2886 -0.1436 -0.1455
42356SOL    HW145060  10.014  12.507  11.295  2.6440 -0.6432 -1.5094
42356SOL    HW245061  10.127  12.538  11.390  0.1796 -0.2988  1.4666
42357SOL     OW45062  13.517  12.674   5.481  0.3744 -0.0100  0.2884
42357SOL    HW145063  13.589  12.624   5.520  0.3565 -0.2679 -0.0075
42357SOL    HW245064  13.538  12.766   5.501  1.2050 -0.0132 -0.4622
42358SOL     OW45065   9.134   2.933   7.252  0.1187 -0.3083  0.3177
42358SOL    HW145066   9.087   3.009   7.287  0.6129 -0.3090  0.9934
42358SOL    HW245067   9.082   2.906   7.176  0.2588  1.0714 -0.2942
42359SOL     OW45068   0.646   5.919   0.625 -0.5572 -0.5770 -0.4725
42359SOL    HW145069   0.669   5.874   0.544 -0.7618  0.5185 -1.1473
42359SOL    HW245070   0.699   5.999   0.625  1.2689 -1.6336  1.6370
42360SOL     OW45071  13.417  10.471   4.660  0.9282  0.6867  0.3615
42360SOL    HW145072  13.436  10.461   4.753 -0.7396  1.1516  0.7802
42360SOL    HW245073  13.352  10.540   4.655 -0.4799 -0.6385 -0.9518
42361SOL     OW45074   4.342   0.752   0.884  0.1610  0.0905  0.1694
42361SOL    HW145075   4.414   0.694   0.911  1.3152  1.5275  0.2742
42361SOL    HW245076   4.305   0.783   0.967  1.8795  2.2699  0.2185
42362SOL     OW45077  10.730  11.298   9.025  0.1437 -0.6437 -0.1726
42362SOL    HW145078  10.713  11.258   8.940  0.4671  0.5904 -0.8332
42362SOL    HW245079  10.779  11.378   9.006  0.6537 -0.5926  1.2091
42363SOL     OW45080   4.385   6.440   6.894 -0.1740  0.5328  0.1670
42363SOL    HW145081   4.472   6.464   6.925 -0.0014 -0.0563  0.1638
42363SOL    HW245082   4.361   6.364   6.947 -0.6704  0.6704  0.1398
42364SOL     OW45083   2.044  13.832   0.901 -0.0147 -0.0589 -0.2559
42364SOL    HW145084   2.116  13.816   0.961  0.9685  0.8541 -1.1441
42364SOL    HW245085   1.965  13.817   0.953  0.8088 -1.2210  0.6900
42365SOL     OW45086   5.761   9.944   8.338  0.0669 -0.2676 -0.4368
42365SOL    HW145087   5.784  10.019   8.393 -0.1579  0.0590 -0.7903
42365SOL    HW245088   5.709   9.888   8.395 -0.5353  0.2788 -0.4433
42366SOL     OW45089   5.380  12.705   8.720 -0.1765  0.3156 -0.3514
42366SOL    HW145090   5.285  12.717   8.720 -0.1551  0.5213 -0.9726
42366SOL    HW245091   5.413  12.775   8.776 -0.3645  0.4705 -0.4339
42367SOL     OW45092  10.252  10.383   8.595 -0.5615  0.1345 -0.1895
42367SOL    HW145093  10.272  10.290   8.606 -0.2031 -0.0002 -1.8225
42367SOL    HW245094  10.202  10.406   8.674 -1.2510 -1.6030 -0.0809
42368SOL     OW45095   1.404   3.797   6.268  0.3529  0.2514 -0.5907
42368SOL    HW145096   1.434   3.883   6.300  1.3746 -0.1503 -0.4359
42368SOL    HW245097   1.313   3.793   6.296  0.3224  1.2388 -0.4886
42369SOL     OW45098   5.299   9.161   2.576 -0.7865 -0.1366 -0.1011
42369SOL    HW145099   5.233   9.096   2.553 -0.9595 -0.0129  0.0477
42369SOL    HW245100   5.352   9.119   2.643 -1.3440  0.1438  0.5202
42370SOL     OW45101  10.702   2.089  13.176 -0.2690  0.6957  0.3864
42370SOL    HW145102  10.765   2.025  13.209  0.4232  2.0705  1.8497
42370SOL    HW245103  10.716   2.089  13.081  0.2257 -0.7624  0.4297
42371SOL     OW45104   9.952   9.740   9.453  0.6264  0.3095  0.5382
42371SOL    HW145105   9.961   9.682   9.378  2.3315 -0.0553  0.9748
42371SOL    HW245106   9.948   9.828   9.415  1.2693  0.1175  0.0045
42372SOL     OW45107  13.908   1.126   2.598  0.6487 -0.1961 -0.2578
42372SOL    HW145108  13.940   1.183   2.668 -1.0015 -0.1746  0.5367
42372SOL    HW245109  13.833   1.173   2.562 -0.5537 -1.6780  0.1978
42373SOL     OW45110   4.991   7.511  10.425  0.2969 -0.3677  0.1011
42373SOL    HW145111   4.977   7.590  10.374  1.0596  0.8484  1.6979
42373SOL    HW245112   4.930   7.518  10.499  1.7876 -0.2275  1.3615
42374SOL     OW45113  12.370   8.423  12.926 -0.2803  0.1901  0.1147
42374SOL    HW145114  12.291   8.469  12.896  0.0423  0.1276 -0.8865
42374SOL    HW245115  12.338   8.355  12.984 -0.8999  0.6265  0.2995
42375SOL     OW45116   8.564   0.227   9.447  0.8135  0.1454  0.0545
42375SOL    HW145117   8.554   0.280   9.368 -1.6455  0.1409  0.2873
42375SOL    HW245118   8.544   0.138   9.418 -1.0179  0.2741  0.8039
42376SOL     OW45119   0.017   8.319  12.014  0.4880 -0.1920 -0.2378
42376SOL    HW145120  -0.014   8.319  11.923 -0.3722 -0.6596  0.0437
42376SOL    HW245121  -0.001   8.230  12.045 -4.1364  1.2014  2.0009
42377SOL     OW45122   9.614   4.740   9.186 -0.0974 -0.1384 -0.2395
42377SOL    HW145123   9.570   4.814   9.227 -0.7399 -0.0707 -1.0156
42377SOL    HW245124   9.673   4.706   9.253 -2.4059 -1.1581  1.4099
42378SOL     OW45125   1.418  13.013   3.941 -0.0303 -0.4859 -0.0175
42378SOL    HW145126   1.367  12.975   4.013  1.8539 -1.8179  0.6828
42378SOL    HW245127   1.485  13.066   3.984  0.3050 -0.2208 -0.8450
42379SOL     OW45128   2.317   7.923  13.803  0.5355 -0.3486 -0.0757
42379SOL    HW145129   2.371   7.849  13.775 -0.1142 -1.2349  0.9034
42379SOL    HW245130   2.229   7.886  13.811  0.0650  0.7140 -0.2575
42380SOL     OW45131   3.044   1.139  11.392  0.0282  0.4438  0.2835
42380SOL    HW145132   3.030   1.055  11.436 -1.6172  0.7510  0.3887
42380SOL    HW245133   2.960   1.161  11.354  0.7237  1.5330 -0.6886
42381SOL     OW45134   5.586   6.760  10.363 -0.1346  0.4965 -0.5242
42381SOL    HW145135   5.513   6.742  10.303 -1.6201 -3.7627  2.1456
42381SOL    HW245136   5.560   6.841  10.408 -0.9440  1.5086 -2.6786
42382SOL     OW45137   0.889   0.988   2.742  0.1841 -0.5131  0.0487
42382SOL    HW145138   0.912   0.954   2.656 -0.6084 -0.9968  0.0126
42382SOL    HW245139   0.967   1.035   2.772 -0.4507  2.1554 -2.1429
42383SOL     OW45140   3.936  12.544   3.788  0.0166 -0.2787 -0.8082
42383SOL    HW145141   3.853  12.539   3.836  0.7089 -1.7800  0.3044
42383SOL    HW245142   3.924  12.617   3.727 -0.4732  2.7547  2.5786
42384SOL     OW45143  10.770   9.305  12.052 -0.1659 -0.1452 -0.7232
42384SOL    HW145144  10.702   9.244  12.022 -0.1309 -1.8829  2.2638
42384SOL    HW245145  10.844   9.249  12.073 -0.0703  0.8508  2.0074
42385SOL     OW45146  11.072   7.121   2.579  0.6144 -0.1972  0.2976
42385SOL    HW145147  11.148   7.160   2.621  1.5603 -1.5403 -0.1168
42385SOL    HW245148  11.064   7.034   2.618 -0.6628 -0.1211  0.2671
42386SOL     OW45149   3.379   3.241  13.174 -0.5625  0.0933  0.1708
42386SOL    HW145150   3.420   3.278  13.253  0.2860  1.4332 -0.8436
42386SOL    HW245151   3.435   3.271  13.103 -0.9856 -1.5714 -0.9120
42387SOL     OW45152   5.707   7.028   3.776 -0.0794  0.2207  0.1916
42387SOL    HW145153   5.648   6.966   3.732  0.5605  0.7408 -1.4944
42387SOL    HW245154   5.791   6.983   3.777  0.0806  0.5225  0.1906
42388SOL     OW45155   4.053   4.683   8.483  0.2300 -0.2661  0.0622
42388SOL    HW145156   4.141   4.721   8.484 -0.0767  0.4536  0.6220
42388SOL    HW245157   4.040   4.651   8.572 -1.4047  2.8426  1.0781
42389SOL     OW45158   9.673   2.105   6.128  0.2944 -0.3713  0.2366
42389SOL    HW145159   9.713   2.061   6.052  0.0649 -0.0247 -0.0872
42389SOL    HW245160   9.595   2.055   6.147 -0.9170  0.8605 -1.2143
42390SOL     OW45161   4.302   3.724   0.232  0.0283  0.0631  0.5596
42390SOL    HW145162   4.252   3.774   0.167 -0.4056  0.7426  1.4020
42390SOL    HW245163   4.328   3.789   0.298  3.5818  0.1369 -0.6997
42391SOL     OW45164   5.211  12.889   8.578 -0.3240 -0.7544  0.7102
42391SOL    HW145165   5.176  12.845   8.501 -0.8680 -1.7581  1.5124
42391SOL    HW245166   5.134  12.904   8.634  0.0971 -0.2380  1.1663
42392SOL     OW45167  12.374   8.243   4.452 -0.7223 -0.1263  0.0742
42392SOL    HW145168  12.460   8.204   4.436 -0.9504 -0.4149 -0.4973
42392SOL    HW245169  12.363   8.238   4.547  0.4548  1.1509  0.2989
42393SOL     OW45170  12.691   3.472   7.080  0.3558  0.9329  0.5417
42393SOL    HW145171  12.774   3.513   7.055  0.3620  0.4890 -0.1917
42393SOL    HW245172  12.716   3.402   7.140  0.4792  1.0373  0.6136
42394SOL     OW45173   2.826  13.484  13.553  0.1531  0.0476  0.2887
42394SOL    HW145174   2.785  13.419  13.610 -0.8302 -1.1166 -1.6748
42394SOL    HW245175   2.760  13.553  13.543 -1.0898 -1.3775 -2.1072
42395SOL     OW45176   0.897  11.129   1.845 -0.2655  0.6011 -0.1373
42395SOL    HW145177   0.819  11.154   1.794 -0.3590 -0.4324 -0.5272
42395SOL    HW245178   0.879  11.039   1.873  2.0590 -0.8411 -2.8225
42396SOL     OW45179   2.265  12.705   6.102  0.1946 -0.0320 -0.5426
42396SOL    HW145180   2.200  12.638   6.080 -1.2663  1.1582 -0.0035
42396SOL    HW245181   2.321  12.710   6.024 -2.3231  1.1792 -2.4228
42397SOL     OW45182   1.746   9.378   8.964  0.2578 -0.0759  0.2657
42397SOL    HW145183   1.696   9.399   9.043 -1.4122  1.3888 -1.0930
42397SOL    HW245184   1.829   9.424   8.975  0.0985  0.0030  1.2216
42398SOL     OW45185   4.640  10.912  13.081 -0.5298 -0.0254 -0.0186
42398SOL    HW145186   4.630  10.923  12.987 -0.8060 -0.6372 -0.0708
42398SOL    HW245187   4.561  10.865  13.108 -1.4227  1.8753  0.8514
42399SOL     OW45188  10.016   7.245  10.974  0.7747 -0.2809 -0.2700
42399SOL    HW145189  10.053   7.194  10.902  1.7710  0.6885 -0.4531
42399SOL    HW245190  10.000   7.332  10.937  1.6278  0.3328  0.7592
42400SOL     OW45191  10.907  12.399   6.385  0.2758 -0.6771 -0.3367
42400SOL    HW145192  10.843  12.355   6.440 -0.3092 -1.0849 -1.3280
42400SOL    HW245193  10.992  12.369   6.418 -0.1007 -1.8780 -0.4442
42401SOL     OW45194   5.488   8.742   9.637  0.6824 -0.3460 -0.1970
42401SOL    HW145195   5.473   8.795   9.559 -1.2152  1.4392  1.2763
42401SOL    HW245196   5.527   8.802   9.700  0.7053 -1.3381  0.7671
42402SOL     OW45197   0.899   4.220   2.612 -0.3875  0.1291 -0.1515
42402SOL    HW145198   0.868   4.146   2.664  1.5269  0.0435  0.9828
42402SOL    HW245199   0.898   4.188   2.522 -2.4809 -0.1866 -0.0626
42403SOL     OW45200   4.886   3.754   1.693 -0.2581  0.7407 -0.4790
42403SOL    HW145201   4.980   3.746   1.710 -0.8118 -0.5671  2.5923
42403SOL    HW245202   4.855   3.663   1.692 -1.5772  1.1828 -0.9939
42404SOL     OW45203  10.989   7.004  13.335 -0.3662  0.3521 -0.5302
42404SOL    HW145204  10.966   7.089  13.296  0.1454  0.5517 -0.4038
42404SOL    HW245205  10.913   6.948  13.317 -1.0363  1.0514  0.0674
42405SOL     OW45206   5.858  10.580   3.637  0.3575  0.2678 -0.6862
42405SOL    HW145207   5.942  10.616   3.663  0.3535  0.9190 -1.4923
42405SOL    HW245208   5.854  10.494   3.677  0.8240  0.7624  0.4571
42406SOL     OW45209   2.986   4.478  12.632  0.2262  0.1898 -0.0756
42406SOL    HW145210   2.902   4.445  12.601  0.8856 -2.3518  0.6113
42406SOL    HW245211   2.968   4.507  12.721 -0.1419  0.7741 -0.3289
42407SOL     OW45212  12.448   1.389   7.857  0.3477  0.3382  0.5829
42407SOL    HW145213  12.427   1.298   7.839  0.0677  0.7634 -1.5393
42407SOL    HW245214  12.366   1.429   7.885 -0.6522  0.8173 -2.6125
42408SOL     OW45215   8.330   0.559   5.793  0.5066 -0.6503 -0.3270
42408SOL    HW145216   8.296   0.622   5.729  1.2884  0.2538  0.1203
42408SOL    HW245217   8.277   0.573   5.871  1.7267  0.6507  0.3191
42409SOL     OW45218   1.393   7.671   5.208  0.1736 -0.0103 -0.4149
42409SOL    HW145219   1.303   7.698   5.193  0.6445  1.8448 -0.1657
42409SOL    HW245220   1.391   7.623   5.291 -0.2489  2.2009  0.9328
42410SOL     OW45221   0.970   6.168   0.998  0.3581  0.4934  0.4233
42410SOL    HW145222   1.010   6.166   0.911  1.2597 -1.9286  0.8103
42410SOL    HW245223   0.876   6.154   0.981  0.7276 -1.7532 -0.1660
42411SOL     OW45224   0.709   8.309  10.127 -0.2378  0.0929 -0.0516
42411SOL    HW145225   0.775   8.368  10.162 -1.5426  0.5846  1.7143
42411SOL    HW245226   0.737   8.293  10.036  1.0527  2.0754 -0.0638
42412SOL     OW45227  13.026   7.846  13.933  0.4177  0.4202  0.0129
42412SOL    HW145228  13.069   7.858  14.017  1.8811  0.1913 -0.6699
42412SOL    HW245229  12.954   7.909  13.933 -0.8503 -0.9087  2.1924
42413SOL     OW45230   7.378  11.885   3.847  0.2728 -0.0843  0.2577
42413SOL    HW145231   7.452  11.889   3.786 -0.8745  1.3144 -1.1087
42413SOL    HW245232   7.375  11.971   3.887 -2.5515  1.1378 -2.1872
42414SOL     OW45233   4.860   0.360   9.837 -0.3372  0.4328 -0.5826
42414SOL    HW145234   4.941   0.314   9.816 -1.3369 -1.2181 -1.0078
42414SOL    HW245235   4.863   0.372   9.932  1.3841  2.4102 -0.8143
42415SOL     OW45236  10.317   9.348   9.939 -0.0911 -0.1488 -0.1708
42415SOL    HW145237  10.260   9.425   9.947  1.6184  1.0417  1.1294
42415SOL    HW245238  10.293   9.293  10.014 -0.9360 -0.6571 -0.7962
42416SOL     OW45239  10.831   3.535   0.791 -0.3346  0.3982  0.0342
42416SOL    HW145240  10.779   3.594   0.736 -0.9632 -0.2697 -0.1022
42416SOL    HW245241  10.784   3.452   0.788  1.7357 -0.8161 -1.6691
42417SOL     OW45242   4.045   6.540   6.654 -0.2492  0.0532  0.1441
42417SOL    HW145243   3.989   6.563   6.579  0.8943 -0.2973 -0.8500
42417SOL    HW245244   4.023   6.448   6.672  0.5573 -0.3338 -0.7682
42418SOL     OW45245   9.218   6.626   4.685  0.2961 -0.1069  0.2191
42418SOL    HW145246   9.288   6.648   4.624  0.1710 -1.4702 -0.4469
42418SOL    HW245247   9.248   6.660   4.769  1.9925 -1.0633  0.0499
42419SOL     OW45248   6.809   8.632   6.238  0.4789  0.1493 -0.0657
42419SOL    HW145249   6.813   8.692   6.313 -1.4525  1.3400 -0.8565
42419SOL    HW245250   6.830   8.686   6.162  0.8454 -0.6811 -0.5685
42420SOL     OW45251   5.814   9.955  12.317 -0.1693 -0.0451 -0.4960
42420SOL    HW145252   5.897   9.907  12.314  0.4338  0.8102  1.0627
42420SOL    HW245253   5.799   9.983  12.227  1.7012  0.5197 -0.6864
42421SOL     OW45254  13.503  13.228   4.051  0.5014  0.6350 -0.5684
42421SOL    HW145255  13.539  13.175   4.122 -1.6649 -0.1741  0.0017
42421SOL    HW245256  13.523  13.178   3.972  2.2413  1.1572 -0.5088
42422SOL     OW45257   5.905   3.649  10.964  0.9428  0.3453  0.3214
42422SOL    HW145258   5.851   3.687  10.895 -0.8694 -0.6131  1.1468
42422SOL    HW245259   5.910   3.556  10.941  0.6162  0.0866  1.2750
42423SOL     OW45260   1.739   3.162   4.485  0.7130  0.2969  0.2811
42423SOL    HW145261   1.819   3.214   4.490  1.3552 -0.5623 -0.6818
42423SOL    HW245262   1.721   3.154   4.391  0.4103 -0.8737  0.4232
42424SOL     OW45263  13.650   2.714  11.085  0.5233  0.3011 -0.3723
42424SOL    HW145264  13.669   2.621  11.082  0.3569  0.2540  0.0234
42424SOL    HW245265  13.685   2.748  11.003 -0.3933 -0.2981 -1.0286
42425SOL     OW45266   5.163  11.832  10.196  0.0511 -0.3232 -0.5394
42425SOL    HW145267   5.211  11.778  10.259 -1.7778  3.0810  4.5078
42425SOL    HW245268   5.074  11.796  10.195 -0.5075  0.9001  0.8172
42426SOL     OW45269  13.119   5.866   2.895  0.0083  0.6221 -0.6444
42426SOL    HW145270  13.076   5.947   2.868  0.5741  1.3803  0.5932
42426SOL    HW245271  13.107   5.864   2.990  0.8791 -0.2295 -0.5377
42427SOL     OW45272  11.700   0.875  11.864 -0.4283 -0.3501 -0.4548
42427SOL    HW145273  11.657   0.868  11.779  0.0834  0.5555 -0.8124
42427SOL    HW245274  11.778   0.820  11.856 -0.6574 -0.6806 -0.3917
42428SOL     OW45275   3.349   7.334  10.298 -0.1482 -0.7168  0.4837
42428SOL    HW145276   3.325   7.247  10.269  2.3893 -1.0287 -0.9804
42428SOL    HW245277   3.440   7.346  10.268  0.5888  1.3290  3.0909
42429SOL     OW45278   6.540   3.007   7.926 -0.1112 -0.6728 -0.7252
42429SOL    HW145279   6.594   2.974   7.997 -1.5327 -1.0300  0.2354
42429SOL    HW245280   6.573   3.095   7.908  0.0031 -0.4181  0.6702
42430SOL     OW45281  10.325  11.690   7.002 -0.1898 -0.6145 -0.2277
42430SOL    HW145282  10.300  11.599   7.018 -3.1393 -0.2260 -1.8906
42430SOL    HW245283  10.269  11.741   7.060  1.2825  0.2068  0.5318
42431SOL     OW45284   6.460   5.183  14.136 -0.2229 -0.0449 -0.1198
42431SOL    HW145285   6.411   5.111  14.175  0.4375 -1.0851 -1.1579
42431SOL    HW245286   6.525   5.206  14.202  0.4710 -1.3635 -0.3027
42432SOL     OW45287   8.500   2.004   0.518 -0.0472  0.3089 -1.1410
42432SOL    HW145288   8.453   1.941   0.573 -0.7986  1.4902 -0.3876
42432SOL    HW245289   8.434   2.035   0.456  0.4842 -0.0913 -1.9301
42433SOL     OW45290   2.509  10.549  10.586 -0.4732 -0.1982 -0.2236
42433SOL    HW145291   2.493  10.573  10.495 -1.2872  0.2458  0.0308
42433SOL    HW245292   2.438  10.489  10.609 -1.1159  0.7973  0.5268
42434SOL     OW45293   5.170  13.856   9.268  0.5810  0.1530 -0.4689
42434SOL    HW145294   5.167  13.823   9.178 -0.4144 -0.6316 -0.1550
42434SOL    HW245295   5.230  13.931   9.263  1.3339 -0.4923 -1.5751
42435SOL     OW45296   6.478  10.518   6.273  0.2554  0.1339 -0.3485
42435SOL    HW145297   6.518  10.434   6.253 -2.0022 -0.8610 -0.9483
42435SOL    HW245298   6.480  10.566   6.189 -1.4418 -0.6660 -0.8848
42436SOL     OW45299   9.590  10.162   1.248  0.0861  0.2220  0.4438
42436SOL    HW145300   9.608  10.194   1.336  3.9861  0.3286 -0.2172
42436SOL    HW245301   9.675  10.135   1.214 -1.2354  0.0905 -3.2797
42437SOL     OW45302   8.620   3.660  13.367  0.3774  0.1284  0.2366
42437SOL    HW145303   8.699   3.714  13.378 -0.0154  1.0799 -1.2832
42437SOL    HW245304   8.552   3.707  13.415  0.4271  0.0313  0.4037
42438SOL     OW45305   6.871   8.587   7.881  0.3178  1.0298  0.2459
42438SOL    HW145306   6.956   8.560   7.847 -0.0559  1.2191 -0.8711
42438SOL    HW245307   6.850   8.522   7.947  0.1609 -0.5220 -1.2679
42439SOL     OW45308   6.430   7.798  12.917 -0.1757  0.1964  0.2742
42439SOL    HW145309   6.511   7.799  12.968  0.8029 -1.6687 -1.1186
42439SOL    HW245310   6.384   7.720  12.947 -2.0785  1.8046  1.8315
42440SOL     OW45311   4.904   7.255   0.151  0.2633 -0.0175 -0.3490
42440SOL    HW145312   4.833   7.294   0.099 -0.1394 -0.5871 -0.2327
42440SOL    HW245313   4.980   7.255   0.093 -0.3976 -1.4320 -1.2468
42441SOL     OW45314   0.893   0.504   0.145 -0.1333 -0.3465 -0.1311
42441SOL    HW145315   0.837   0.561   0.198 -1.1106 -1.8146  0.4717
42441SOL    HW245316   0.975   0.553   0.135 -0.9770  1.2052  0.2436
42442SOL     OW45317  11.439  12.217   6.870  0.0198  0.0389 -0.5703
42442SOL    HW145318  11.511  12.280   6.862 -1.0191  1.2959 -0.4444
42442SOL    HW245319  11.437  12.194   6.963  0.8265 -0.7182 -0.7316
42443SOL     OW45320  13.241  11.153   4.885 -0.2876 -0.5327 -0.5392
42443SOL    HW145321  13.210  11.063   4.890 -2.5328  0.2387  1.7152
42443SOL    HW245322  13.191  11.199   4.952  2.8312  1.8549  0.3932
42444SOL     OW45323  10.927   4.226   7.807 -0.1322  0.5160  0.2556
42444SOL    HW145324  10.974   4.305   7.781  0.1382  0.5941  0.9735
42444SOL    HW245325  10.856   4.257   7.863 -1.1672  0.4147 -0.9601
42445SOL     OW45326  13.951   7.671  11.028  0.7033  0.0917  0.2970
42445SOL    HW145327  13.977   7.741  11.087  0.7545  0.8494 -0.5887
42445SOL    HW245328  13.858   7.656  11.047  0.8188  0.0497  0.8317
42446SOL     OW45329   1.315   1.327  10.801 -0.1738 -0.2633 -0.3208
42446SOL    HW145330   1.289   1.418  10.815 -1.9543 -0.4901 -1.7485
42446SOL    HW245331   1.333   1.321  10.707  0.0353 -1.3653 -0.2272
42447SOL     OW45332   1.181   2.718   3.707 -0.0480  1.3043 -0.7214
42447SOL    HW145333   1.263   2.746   3.748 -0.0938  0.8737 -0.3303
42447SOL    HW245334   1.174   2.626   3.729 -1.5544  1.7494  0.8040
42448SOL     OW45335   8.587   4.556   8.809  0.5218 -0.1121 -0.5852
42448SOL    HW145336   8.646   4.609   8.863  0.7761 -0.1098 -0.8607
42448SOL    HW245337   8.505   4.553   8.858  1.1518 -1.2375  0.4636
42449SOL     OW45338   3.434   3.823   2.163 -0.3671  0.1092 -0.2437
42449SOL    HW145339   3.526   3.798   2.172 -0.2942  0.0903 -0.9476
42449SOL    HW245340   3.393   3.793   2.243  0.3644  0.6685  0.3606
42450SOL     OW45341  11.110   5.835  13.417 -0.2669  0.0560  0.4845
42450SOL    HW145342  11.039   5.830  13.353  0.9055  0.6798 -0.9531
42450SOL    HW245343  11.128   5.744  13.440 -1.4787 -0.1051  0.8142
42451SOL     OW45344   1.205  11.691   8.952 -0.4462 -0.3379  0.0944
42451SOL    HW145345   1.253  11.772   8.968 -0.6246 -0.1080 -0.5181
42451SOL    HW245346   1.214  11.642   9.034 -0.9076  0.5863  0.7156
42452SOL     OW45347   0.499   8.994  13.189  0.1329  0.8474  0.1356
42452SOL    HW145348   0.415   8.951  13.204  0.1373  0.3853 -1.0329
42452SOL    HW245349   0.564   8.930  13.216  0.1873  2.0348  3.2915
42453SOL     OW45350   4.016  13.868  12.383 -0.4170  0.0494  0.2913
42453SOL    HW145351   4.028  13.808  12.457 -1.3693  0.9643  1.2177
42453SOL    HW245352   3.960  13.820  12.322  0.1423 -0.6044  0.2810
42454SOL     OW45353   4.170  12.454   8.336 -0.1727  0.2738  0.1769
42454SOL    HW145354   4.093  12.402   8.359  0.8513 -2.1081 -1.3614
42454SOL    HW245355   4.229  12.444   8.411 -0.1315 -0.5054  0.0456
42455SOL     OW45356   8.907  13.613   1.379 -0.3098 -0.2356  0.0915
42455SOL    HW145357   8.869  13.551   1.441 -0.5266 -0.9437 -0.7471
42455SOL    HW245358   8.834  13.638   1.322  0.1252 -0.4032 -0.5428
42456SOL     OW45359   3.796  12.405   9.624  0.2305  0.6012  0.6396
42456SOL    HW145360   3.704  12.381   9.621 -0.1535  1.6758  2.5323
42456SOL    HW245361   3.809  12.457   9.545  0.1224 -2.2480 -1.4254
42457SOL     OW45362  10.152   7.404   6.723 -0.5530  0.2279  0.3277
42457SOL    HW145363  10.193   7.348   6.790  0.2028 -0.3094 -0.5559
42457SOL    HW245364  10.143   7.489   6.765 -0.7908 -0.2880  1.3675
42458SOL     OW45365  11.135   4.513   0.463  0.3700 -0.0818  0.2932
42458SOL    HW145366  11.182   4.465   0.395 -1.0169 -0.9468 -0.0913
42458SOL    HW245367  11.194   4.586   0.485  1.5326 -0.6735 -0.7043
42459SOL     OW45368   4.237   8.549  11.300 -1.2585  0.9435 -0.7502
42459SOL    HW145369   4.312   8.600  11.270 -0.5291  0.0801 -0.4551
42459SOL    HW245370   4.234   8.475  11.240  0.3378 -0.9142  1.2864
42460SOL     OW45371   1.199   5.893   2.198 -0.1808 -0.5662  0.2520
42460SOL    HW145372   1.175   5.839   2.274 -0.3733 -0.1740  0.4722
42460SOL    HW245373   1.123   5.949   2.184  0.1825 -0.0605  0.2856
42461SOL     OW45374   2.446  10.349  10.164 -0.5457 -0.7480 -0.4305
42461SOL    HW145375   2.531  10.350  10.121  0.2315 -0.9685  1.0597
42461SOL    HW245376   2.460  10.304  10.247 -1.5666  1.2084  0.8947
42462SOL     OW45377   4.117   0.827  10.855 -0.0664 -0.5004  0.3639
42462SOL    HW145378   4.125   0.864  10.942  0.7938 -0.9484  0.4877
42462SOL    HW245379   4.142   0.898  10.796 -0.3652 -0.2859  0.4924
42463SOL     OW45380   0.758   8.695   1.135 -0.2879 -0.3316 -0.5592
42463SOL    HW145381   0.842   8.727   1.104  0.4414 -1.8417 -0.2051
42463SOL    HW245382   0.776   8.660   1.222 -1.0523 -1.6116 -0.8959
42464SOL     OW45383  12.498   0.508   5.677 -0.0719 -0.7920 -0.2598
42464SOL    HW145384  12.593   0.517   5.669  0.0953 -1.8351  0.3925
42464SOL    HW245385  12.475   0.436   5.618 -0.9114  1.3331 -2.7510
42465SOL     OW45386   0.002  13.970   6.499 -0.5720 -0.2943 -0.4506
42465SOL    HW145387   0.002  13.969   6.403 -0.4450  0.2086 -0.4600
42465SOL    HW245388   0.029  14.059   6.522 -1.6983 -0.0568  0.0482
42466SOL     OW45389   6.144  10.429  10.756  0.4563  0.1478 -0.5084
42466SOL    HW145390   6.151  10.401  10.847 -2.9476  0.3566 -0.0568
42466SOL    HW245391   6.158  10.523  10.759 -1.3417  0.4304  0.1438
42467SOL     OW45392  11.206   1.408   8.800 -0.6143  0.5733  0.1312
42467SOL    HW145393  11.120   1.400   8.842 -0.9587  1.2935 -0.4225
42467SOL    HW245394  11.236   1.318   8.790 -0.6924  0.3525  1.5532
42468SOL     OW45395   9.094   7.566  13.905  0.1751 -0.6130 -0.2005
42468SOL    HW145396   9.061   7.477  13.891 -1.0787 -0.1831 -0.1145
42468SOL    HW245397   9.046   7.597  13.982 -0.1725  0.4968 -0.8408
42469SOL     OW45398   0.629   1.976  12.368  0.3054 -0.8481  0.2672
42469SOL    HW145399   0.620   1.927  12.450 -1.2940 -0.4627  0.3685
42469SOL    HW245400   0.547   2.025  12.362  1.8812  1.9913  0.2926
42470SOL     OW45401   1.468   4.905   2.406  0.0978 -0.4979  0.3845
42470SOL    HW145402   1.441   4.857   2.327  2.1534  0.5256 -1.0437
42470SOL    HW245403   1.405   4.879   2.473 -1.3508 -1.9186 -1.4197
42471SOL     OW45404   4.664   4.970   0.952  0.0770 -0.4650 -0.4031
42471SOL    HW145405   4.679   4.973   1.046  3.6423  0.2690 -0.8357
42471SOL    HW245406   4.696   4.884   0.924 -2.1006 -1.1876 -0.8760
42472SOL     OW45407   8.381  10.602  12.749 -0.0674 -0.0449 -0.1056
42472SOL    HW145408   8.326  10.578  12.824 -0.4763 -0.7766 -0.6260
42472SOL    HW245409   8.340  10.559  12.674  0.8112 -0.0183 -0.6211
42473SOL     OW45410   3.790   6.173  12.311 -0.2309 -0.2483 -0.2133
42473SOL    HW145411   3.705   6.155  12.269 -0.4655  1.2141 -0.4125
42473SOL    HW245412   3.784   6.128  12.395 -1.1076 -0.3908 -0.3352
42474SOL     OW45413  12.968   6.944  10.055  0.3564  0.0687  0.1630
42474SOL    HW145414  12.890   6.897  10.086  0.5779 -0.7921 -0.5580
42474SOL    HW245415  12.968   7.025  10.106 -1.1870  0.2334 -0.0441
42475SOL     OW45416   1.074   7.037  13.268 -0.1062  0.3943  0.2719
42475SOL    HW145417   1.043   7.093  13.197 -2.3008 -1.2662 -0.1778
42475SOL    HW245418   1.134   6.975  13.226  2.4395  2.3163  0.7920
42476SOL     OW45419   7.535  10.159  10.681  0.4610 -0.4610  0.5542
42476SOL    HW145420   7.553  10.131  10.771 -0.7029  0.6269  1.1571
42476SOL    HW245421   7.565  10.249  10.678  1.8781 -0.9403 -0.6245
42477SOL     OW45422   4.465   4.938   8.185  0.2949  0.1274  0.3416
42477SOL    HW145423   4.497   4.961   8.098  0.4875  0.4021  0.4848
42477SOL    HW245424   4.529   4.975   8.245  0.3313 -0.3333  0.5925
42478SOL     OW45425   3.780   7.478   5.571 -0.1657 -0.1661  0.5765
42478SOL    HW145426   3.708   7.424   5.601 -1.8468  0.5957 -1.7341
42478SOL    HW245427   3.843   7.416   5.533 -2.2665 -0.6396 -2.4579
42479SOL     OW45428   4.050   1.158   5.842 -0.3897 -0.2050 -0.1456
42479SOL    HW145429   4.119   1.217   5.811  1.3750 -3.1132 -2.3304
42479SOL    HW245430   4.090   1.110   5.915 -1.7389  1.0356  1.4942
42480SOL     OW45431   7.339   2.099   1.083 -0.0498  0.1660  0.2529
42480SOL    HW145432   7.299   2.175   1.126 -1.1046  0.6986 -1.5821
42480SOL    HW245433   7.433   2.113   1.094 -0.2441  1.3918  0.5417
42481SOL     OW45434  12.668   6.330   9.894  0.0943 -0.1853 -0.2572
42481SOL    HW145435  12.576   6.306   9.886 -0.0936  0.3696  0.1421
42481SOL    HW245436  12.667   6.415   9.938  0.8942 -1.0998  1.6381
42482SOL     OW45437   2.644  10.397  11.122  0.7679 -0.7575 -0.1075
42482SOL    HW145438   2.571  10.442  11.080  2.6992  0.0820 -2.8195
42482SOL    HW245439   2.649  10.436  11.209  1.0906  2.9897 -1.6105
42483SOL     OW45440   7.388   4.614  10.812 -0.2860 -0.5134  0.2360
42483SOL    HW145441   7.434   4.530  10.802  0.9311  0.2026 -0.4768
42483SOL    HW245442   7.413   4.645  10.898 -2.4783 -1.8449  1.4490
42484SOL     OW45443   5.224   7.195   0.106  0.0243  0.3537  0.0282
42484SOL    HW145444   5.162   7.212   0.035  1.7121  1.8788 -1.1637
42484SOL    HW245445   5.188   7.241   0.181 -1.0991 -0.1507 -0.1865
42485SOL     OW45446  11.102  12.330   8.324 -0.5521  0.0043  0.8443
42485SOL    HW145447  11.050  12.251   8.310 -1.4127  0.7051 -0.0252
42485SOL    HW245448  11.192  12.299   8.325 -0.9357 -1.1683  1.9030
42486SOL     OW45449   9.549   2.311   8.960  0.5424 -0.1623  0.1101
42486SOL    HW145450   9.509   2.398   8.967 -0.2724 -0.6086  1.5752
42486SOL    HW245451   9.549   2.292   8.867 -0.6866  0.7731 -0.1082
42487SOL     OW45452   9.101  13.727  11.552  0.2817  0.0598 -0.0836
42487SOL    HW145453   9.073  13.701  11.640 -1.4228  0.3635 -0.4930
42487SOL    HW245454   9.163  13.659  11.525  1.3332  0.3181  1.5870
42488SOL     OW45455   5.114   3.877   3.861  0.6493 -0.1004  0.0503
42488SOL    HW145456   5.142   3.940   3.794 -1.1247  0.5886 -0.0957
42488SOL    HW245457   5.030   3.911   3.892 -0.7635 -2.7408 -0.5499
42489SOL     OW45458   7.436   3.260  10.955 -0.0917 -0.2150 -0.9247
42489SOL    HW145459   7.362   3.221  11.003  2.2394 -1.9101  1.6051
42489SOL    HW245460   7.471   3.189  10.903  1.1497 -0.1497 -0.2235
42490SOL     OW45461   9.460   2.510   2.500  0.6046  0.1484 -0.4126
42490SOL    HW145462   9.423   2.423   2.514 -0.1611  0.7193  1.5517
42490SOL    HW245463   9.541   2.511   2.551  2.3168 -0.3887 -2.9780
42491SOL     OW45464  10.948   1.516  13.995 -0.4328  0.0190  0.7204
42491SOL    HW145465  10.874   1.467  13.960  0.7186 -0.2950 -1.4718
42491SOL    HW245466  10.934   1.606  13.966  1.4647 -0.5686 -2.4667
42492SOL     OW45467   5.814  12.850   8.669  0.0912  0.0537 -0.6896
42492SOL    HW145468   5.877  12.781   8.690  1.8229  1.1283 -2.1271
42492SOL    HW245469   5.835  12.921   8.729 -1.1355 -0.2961  0.2056
42493SOL     OW45470   3.169   9.788  12.290 -0.4102  0.3282  0.3109
42493SOL    HW145471   3.080   9.821  12.300  0.7291  3.5825  1.0613
42493SOL    HW245472   3.205   9.839  12.217  1.3792  0.5266  1.2698
42494SOL     OW45473   2.440   3.290   8.240  0.1425  0.9112 -0.2438
42494SOL    HW145474   2.446   3.383   8.262  0.4503  0.6493  0.8479
42494SOL    HW245475   2.346   3.270   8.248  0.2276  0.8516  0.7982
42495SOL     OW45476   7.031  11.169   7.656  0.0851 -0.2660  0.2735
42495SOL    HW145477   7.114  11.122   7.654  0.6160  0.6725  0.0609
42495SOL    HW245478   6.999  11.164   7.565  0.2684  0.0052  0.1935
42496SOL     OW45479  10.979  11.435  10.060  0.3292 -0.4207  0.0062
42496SOL    HW145480  10.977  11.341  10.038  2.3406 -0.3317 -0.8074
42496SOL    HW245481  11.009  11.477   9.979 -1.6332  1.1048 -0.0058
42497SOL     OW45482   2.885  12.619   1.540  0.3191  0.1593 -0.5164
42497SOL    HW145483   2.815  12.554   1.542  1.3055 -0.9135  0.7701
42497SOL    HW245484   2.848  12.693   1.493 -1.0955 -1.0422 -1.3657
42498SOL     OW45485  10.118  12.516   2.362  0.0848 -0.2480 -0.0332
42498SOL    HW145486  10.036  12.488   2.403 -1.2268 -0.4667 -2.6212
42498SOL    HW245487  10.141  12.445   2.303 -1.5705  2.4158 -4.3166
42499SOL     OW45488  10.259   9.717   8.041  0.4643  0.5596 -0.3429
42499SOL    HW145489  10.166   9.736   8.029  1.0930  2.2334 -3.2768
42499SOL    HW245490  10.289   9.780   8.107  0.0155  1.8105 -1.2996
42500SOL     OW45491  13.295   3.852  13.318 -0.1057 -0.0473 -0.0681
42500SOL    HW145492  13.304   3.778  13.378 -1.3607 -0.4840 -0.3838
42500SOL    HW245493  13.356   3.918  13.352  1.3065 -1.3514 -0.0068
42501SOL     OW45494   2.318  13.622   8.699 -0.3084 -0.1024  0.7053
42501SOL    HW145495   2.266  13.667   8.632  0.4166  0.2688  0.3786
42501SOL    HW245496   2.254  13.593   8.764 -0.9854 -0.1576  0.0292
42502SOL     OW45497  10.238   0.026   2.051 -0.3385 -0.2161  0.0973
42502SOL    HW145498  10.152   0.068   2.045 -0.6140 -0.1572  2.8792
42502SOL    HW245499  10.298   0.098   2.071  0.1121 -0.4710 -0.3080
42503SOL     OW45500   8.025   9.975   7.539  0.3494  0.2170  0.1917
42503SOL    HW145501   8.020  10.069   7.559  0.9327  0.4495 -0.6662
42503SOL    HW245502   7.934   9.947   7.531  0.1543  0.5559  1.1026
42504SOL     OW45503   4.309   5.492  10.129 -0.2262 -0.4152  0.1454
42504SOL    HW145504   4.373   5.532  10.070 -0.2651 -0.6748 -0.0710
42504SOL    HW245505   4.258   5.566  10.162  1.9320  0.1544  2.4750
42505SOL     OW45506   2.291   7.590   1.989  0.4338 -0.8278  0.4889
42505SOL    HW145507   2.247   7.657   1.937  0.4794 -0.0331  1.4535
42505SOL    HW245508   2.342   7.540   1.925  0.9874  0.5214 -0.1656
42506SOL     OW45509   3.349   6.482   6.452 -0.0734  0.4238  0.1886
42506SOL    HW145510   3.304   6.460   6.534  0.4301 -0.1433  0.3163
42506SOL    HW245511   3.405   6.556   6.474 -0.3895  0.6619  0.2062
42507SOL     OW45512   6.681   9.090  11.415 -0.6148  0.6364 -0.5315
42507SOL    HW145513   6.734   9.011  11.406 -0.7229  0.3390  1.0877
42507SOL    HW245514   6.600   9.070  11.369 -0.6634 -0.2334 -0.0828
42508SOL     OW45515   5.229   6.590   9.611  0.4723  0.3809 -0.0412
42508SOL    HW145516   5.171   6.622   9.680  1.3837  0.7816  0.5684
42508SOL    HW245517   5.195   6.504   9.588  0.2843  0.1446  1.0720
42509SOL     OW45518  13.114   9.361  11.454  0.3984 -0.0499 -0.1909
42509SOL    HW145519  13.142   9.440  11.409  1.4767 -0.9778 -1.2138
42509SOL    HW245520  13.026   9.344  11.421  0.1341  0.7589  0.0930
42510SOL     OW45521  11.028  13.378   0.804  0.0566 -0.2153  0.6049
42510SOL    HW145522  10.995  13.374   0.715  1.1244  0.5775  0.1410
42510SOL    HW245523  11.124  13.377   0.795  0.1860 -0.3656  1.7494
42511SOL     OW45524  13.346   3.266  10.880 -0.4237  0.2283 -0.4278
42511SOL    HW145525  13.436   3.287  10.903 -0.1967 -0.8901 -0.2114
42511SOL    HW245526  13.347   3.250  10.786 -0.6359  1.3190 -0.6268
42512SOL     OW45527   2.586   9.761   6.391 -0.0735 -0.1519 -0.4085
42512SOL    HW145528   2.668   9.781   6.436 -0.5675  0.1971  0.3541
42512SOL    HW245529   2.521   9.753   6.461 -0.6893 -0.4412 -1.0013
42513SOL     OW45530   4.398   0.527  11.105  0.2109  0.5691 -0.0606
42513SOL    HW145531   4.471   0.575  11.142 -0.5447  1.3234  0.4640
42513SOL    HW245532   4.436   0.442  11.080  0.9432  0.3950  1.5414
42514SOL     OW45533   9.400   6.511   6.832 -0.3502  0.4447  0.2524
42514SOL    HW145534   9.397   6.534   6.739 -0.4516  1.1939  0.4337
42514SOL    HW245535   9.362   6.587   6.877  0.5858  0.5048  0.9755
42515SOL     OW45536   4.902  12.116   5.035  0.1997 -0.4573  0.3401
42515SOL    HW145537   4.986  12.077   5.057  0.4957  0.5516  1.0644
42515SOL    HW245538   4.841  12.042   5.033  0.9189 -1.0746  0.7771
42516SOL     OW45539   8.687   1.220  10.668 -0.2880  0.5021 -0.2192
42516SOL    HW145540   8.653   1.144  10.716 -1.3661  0.2479 -1.3468
42516SOL    HW245541   8.734   1.270  10.735 -0.6629 -0.4821  0.8306
42517SOL     OW45542   5.422  12.093   9.545 -0.8724 -0.1882  0.6684
42517SOL    HW145543   5.500  12.038   9.555 -0.8650 -0.1753  0.6865
42517SOL    HW245544   5.349  12.033   9.556 -0.8695 -0.0289  1.7212
42518SOL     OW45545   5.659  13.983  11.190 -0.2718  0.1749  0.3310
42518SOL    HW145546   5.751  13.970  11.170 -0.2106  1.6961 -0.6099
42518SOL    HW245547   5.639  13.920  11.259  0.5512 -2.7032 -1.8434
42519SOL     OW45548   3.235  11.461   4.220  0.2929  0.1359 -0.1868
42519SOL    HW145549   3.207  11.515   4.294  2.4789 -0.8055  1.4228
42519SOL    HW245550   3.308  11.509   4.181 -1.0588  0.8074 -2.0652
42520SOL     OW45551   9.888  10.991   5.773 -0.0251 -0.2017 -0.4498
42520SOL    HW145552   9.955  11.059   5.774  0.0485 -0.2725  0.7545
42520SOL    HW245553   9.807  11.038   5.754 -0.2443  0.5433  1.9510
42521SOL     OW45554  13.205   7.726  13.580 -0.6301  0.0884  0.4058
42521SOL    HW145555  13.258   7.725  13.659  0.5691  2.0238 -0.3224
42521SOL    HW245556  13.247   7.662  13.522  0.6104  1.1809  0.0553
42522SOL     OW45557   6.561   0.922   4.052 -0.2427 -0.2281 -0.0682
42522SOL    HW145558   6.567   0.843   3.997 -0.7753 -0.8313  0.7221
42522SOL    HW245559   6.532   0.890   4.137  1.9832  0.4777  1.0537
42523SOL     OW45560   7.342   0.220   7.768 -0.0207 -0.1527 -0.0316
42523SOL    HW145561   7.290   0.140   7.763 -1.4178  0.6681  0.8476
42523SOL    HW245562   7.322   0.267   7.687  1.8486 -1.2472 -1.2105
42524SOL     OW45563  13.845   8.809  14.144 -0.0160 -0.0876 -0.2294
42524SOL    HW145564  13.853   8.852  14.059  2.0930  0.5450  0.2345
42524SOL    HW245565  13.930   8.821  14.186 -0.2465 -2.3452  1.0737
42525SOL     OW45566   1.751   1.554   6.967 -0.4143  0.0603  0.2243
42525SOL    HW145567   1.742   1.459   6.967  0.7657 -0.0688  0.8125
42525SOL    HW245568   1.667   1.586   7.000 -0.5596 -0.8123  0.7264
42526SOL     OW45569   3.430  13.286  13.965 -0.2760 -0.3381  0.3876
42526SOL    HW145570   3.417  13.306  13.872 -0.1246 -0.9626  0.2251
42526SOL    HW245571   3.343  13.262  13.997 -0.1821 -0.9656  0.1904
42527SOL     OW45572   1.138  11.331  13.343  0.0568 -0.2637 -0.3061
42527SOL    HW145573   1.052  11.373  13.344 -0.4001 -1.1566 -0.3852
42527SOL    HW245574   1.198  11.396  13.381 -1.0203 -0.4163  1.8179
42528SOL     OW45575   5.801   2.446   7.256  0.0664  0.4668  0.5076
42528SOL    HW145576   5.866   2.403   7.200 -0.7381  1.8730 -1.6076
42528SOL    HW245577   5.824   2.539   7.253 -1.0688  0.7807  1.0824
42529SOL     OW45578   1.963  13.016   0.720  0.0052  0.9911  0.0648
42529SOL    HW145579   2.016  13.079   0.670 -1.2650  0.4863 -2.0441
42529SOL    HW245580   2.013  12.935   0.718  0.7557  1.3982  1.1578
42530SOL     OW45581  12.243   9.009  12.310 -0.2057  0.0111 -0.0510
42530SOL    HW145582  12.315   9.066  12.336 -0.3916  0.6252 -0.8513
42530SOL    HW245583  12.242   9.013  12.214  0.4572 -2.1771 -0.2032
42531SOL     OW45584   9.000  10.415   2.158 -0.5344  0.9564  0.0367
42531SOL    HW145585   8.907  10.424   2.140 -0.7017  1.9711  1.2451
42531SOL    HW245586   9.014  10.467   2.237  0.9212  0.2258  0.2936
42532SOL     OW45587   8.164  10.620  10.693  0.2000  0.1117  0.0781
42532SOL    HW145588   8.170  10.669  10.611 -2.0549 -1.8235 -1.3427
42532SOL    HW245589   8.097  10.666  10.743 -1.8522 -1.3045 -1.2192
42533SOL     OW45590   1.260  12.993   6.726  0.1800  0.1125 -0.0840
42533SOL    HW145591   1.175  12.991   6.682  1.2467 -0.1485 -2.2664
42533SOL    HW245592   1.270  13.083   6.754 -0.9952  0.0500  0.6028
42534SOL     OW45593   0.640   0.260  13.213  0.3386 -0.3955 -0.1931
42534SOL    HW145594   0.630   0.170  13.243 -2.1453 -0.5479 -1.2748
42534SOL    HW245595   0.584   0.311  13.271 -0.9262 -0.0651 -1.6353
42535SOL     OW45596   9.675   4.984  11.320  0.1880 -0.1986 -0.8078
42535SOL    HW145597   9.705   5.014  11.235 -0.1507 -1.0912 -1.2565
42535SOL    HW245598   9.743   4.922  11.349  0.9874  1.0864  0.1991
42536SOL     OW45599   4.143  12.568  13.569  0.4224  0.1147  0.0928
42536SOL    HW145600   4.059  12.587  13.526  0.2649 -0.9818 -0.1142
42536SOL    HW245601   4.125  12.489  13.621  1.3228 -0.0984  0.0822
42537SOL     OW45602  10.507  10.573   8.848 -0.3039  0.3475  0.2408
42537SOL    HW145603  10.499  10.483   8.881 -1.8455 -0.2828 -1.6309
42537SOL    HW245604  10.547  10.562   8.762 -0.5772  1.4490 -0.0338
42538SOL     OW45605  13.154   8.976   4.434  0.2538 -0.5868  0.5115
42538SOL    HW145606  13.181   8.908   4.373 -1.5217  0.5878 -1.7480
42538SOL    HW245607  13.162   9.058   4.385 -1.8713  0.3677  1.5653
42539SOL     OW45608  13.579  11.433   9.066  0.0264 -0.2995  0.3378
42539SOL    HW145609  13.627  11.355   9.095 -0.7103 -1.3171 -1.0275
42539SOL    HW245610  13.496  11.398   9.033 -1.1634  1.2741  1.4786
42540SOL     OW45611   9.009   3.054   8.951  0.4750 -0.3207 -0.2927
42540SOL    HW145612   8.963   3.012   8.879  1.3888 -0.8611 -0.5850
42540SOL    HW245613   9.045   2.980   9.002 -2.7752 -0.1722  2.5858
42541SOL     OW45614  13.534   7.135   8.237  0.2431  0.0749  0.3559
42541SOL    HW145615  13.531   7.156   8.331 -0.2551  1.3730  0.0722
42541SOL    HW245616  13.486   7.053   8.230 -0.1411  0.2083  1.1872
42542SOL     OW45617   1.611   5.462   4.722 -0.5626  0.1559 -0.4194
42542SOL    HW145618   1.616   5.387   4.663 -0.2295 -1.4256  1.5324
42542SOL    HW245619   1.691   5.457   4.774 -1.0394  1.2545  0.4672
42543SOL     OW45620  12.202  12.415   1.896  0.8279  0.0805  0.1795
42543SOL    HW145621  12.109  12.430   1.878  0.8732  0.1170 -0.0217
42543SOL    HW245622  12.223  12.336   1.847  1.5629  1.5246 -1.9585
42544SOL     OW45623   1.818   0.046   5.479 -0.1235  0.0473  0.7568
42544SOL    HW145624   1.728   0.078   5.470 -0.4036 -1.1141 -1.0027
42544SOL    HW245625   1.813  -0.046   5.454  1.6143  0.0183  0.4250
42545SOL     OW45626   9.561   3.613   5.923  0.5907  0.3751  0.1167
42545SOL    HW145627   9.480   3.664   5.932  0.1727  0.0001 -1.3819
42545SOL    HW245628   9.615   3.664   5.863  0.2163 -0.8438 -1.3148
42546SOL     OW45629   0.465   3.981   2.064  0.1602  0.5065 -0.5229
42546SOL    HW145630   0.514   4.059   2.039 -1.2050  1.3965 -0.5462
42546SOL    HW245631   0.374   4.002   2.041 -0.3305 -0.8257  0.1023
42547SOL     OW45632   2.971   2.262   6.905  0.4951  0.2941  0.1905
42547SOL    HW145633   2.946   2.347   6.943 -1.0900 -0.4228  0.8223
42547SOL    HW245634   3.037   2.284   6.839  1.5550  1.8242  1.6756
42548SOL     OW45635   5.961  11.471   4.829 -0.4524 -0.4162  0.3444
42548SOL    HW145636   5.948  11.514   4.913  1.6516  0.5925  0.2264
42548SOL    HW245637   5.995  11.540   4.772  2.5401 -1.9825 -0.0160
42549SOL     OW45638   9.491   3.437   7.965 -0.3815 -0.7449 -0.3751
42549SOL    HW145639   9.489   3.435   7.870 -1.0916  0.4860 -0.4058
42549SOL    HW245640   9.501   3.345   7.991  1.6733 -0.9348 -1.6447
42550SOL     OW45641   0.637   1.474   0.960 -0.0384 -0.1977  0.5147
42550SOL    HW145642   0.725   1.505   0.982 -0.3925  1.5009 -0.3186
42550SOL    HW245643   0.604   1.539   0.898 -0.9024 -2.2008 -1.2235
42551SOL     OW45644  13.535   9.956  13.105  0.1052 -0.4476 -0.0946
42551SOL    HW145645  13.485   9.897  13.049  0.7141 -1.1968  0.1285
42551SOL    HW245646  13.481  10.034  13.113 -0.7266 -0.9875 -0.3822
42552SOL     OW45647   3.810   6.757   6.682 -0.5450 -0.1356 -0.8898
42552SOL    HW145648   3.864   6.739   6.605 -1.1617  0.1242 -1.3883
42552SOL    HW245649   3.738   6.811   6.650 -0.6766  0.1921 -0.0817
42553SOL     OW45650   1.439   9.187   9.822 -0.1384 -0.1786 -0.5964
42553SOL    HW145651   1.454   9.243   9.745  3.5422  2.8383  1.8955
42553SOL    HW245652   1.371   9.233   9.872 -0.8287 -0.8352 -0.9196
42554SOL     OW45653  13.517   8.743  10.428 -0.3739  1.4026 -0.1586
42554SOL    HW145654  13.451   8.685  10.390 -1.8810  2.9118  0.0734
42554SOL    HW245655  13.540   8.803  10.358  0.9221  0.8011 -0.2875
42555SOL     OW45656  13.025   3.640  14.153  0.5191 -0.3878  0.4932
42555SOL    HW145657  13.097   3.704  14.145  0.9113 -0.5938  2.0738
42555SOL    HW245658  12.969   3.677  14.221  0.2165 -1.2444  0.7082
42556SOL     OW45659   1.658   6.759   2.547  0.3166 -0.1826 -0.2510
42556SOL    HW145660   1.610   6.701   2.606  1.4955 -1.0703 -0.1203
42556SOL    HW245661   1.660   6.843   2.591 -0.5767 -0.2838  0.0110
42557SOL     OW45662  10.996  12.271   3.750  0.0415 -0.3758 -0.1525
42557SOL    HW145663  10.927  12.211   3.721 -0.0033  1.1670 -3.7795
42557SOL    HW245664  11.052  12.218   3.806 -1.4011 -3.0827 -1.0903
42558SOL     OW45665   4.458   4.427   9.582 -0.8227  0.7721  0.3055
42558SOL    HW145666   4.411   4.458   9.659 -0.5805 -0.1380  0.8265
42558SOL    HW245667   4.427   4.337   9.569 -0.4747  0.7362 -0.3430
42559SOL     OW45668  11.566  13.629   1.777 -0.2896  0.3904 -0.0616
42559SOL    HW145669  11.526  13.562   1.832  0.4954 -1.4344 -1.6016
42559SOL    HW245670  11.660  13.616   1.786 -0.0641  2.1531  0.5753
42560SOL     OW45671   0.418  10.437   5.654  0.3635 -0.3412  0.4802
42560SOL    HW145672   0.422  10.368   5.588  0.4919 -0.0786  0.2126
42560SOL    HW245673   0.476  10.407   5.724  0.4929 -0.4582  0.3225
42561SOL     OW45674   7.225   2.500   5.055 -0.0895  0.2531 -0.0110
42561SOL    HW145675   7.168   2.486   5.131  0.9409  1.4384  1.0167
42561SOL    HW245676   7.210   2.591   5.030  1.5776  0.6983  0.4959
42562SOL     OW45677   5.807   6.715  11.326  0.1281  0.4724  0.5276
42562SOL    HW145678   5.729   6.732  11.380 -0.2514  1.1434 -0.2001
42562SOL    HW245679   5.777   6.651  11.261  0.2306  0.6122  0.3432
42563SOL     OW45680   9.067   5.157  13.535 -0.5899 -0.7607 -0.1809
42563SOL    HW145681   9.056   5.205  13.454  0.6972 -0.0077  0.0584
42563SOL    HW245682   8.999   5.089  13.533 -2.6491  1.2120 -0.3730
42564SOL     OW45683   5.858  11.339   6.745 -0.4501  0.0242 -0.1673
42564SOL    HW145684   5.906  11.258   6.731  0.2598  0.5469 -0.8510
42564SOL    HW245685   5.921  11.409   6.727 -0.6077  0.7625  1.8964
42565SOL     OW45686   0.292  10.216   5.519  0.3302  0.0470 -0.4287
42565SOL    HW145687   0.303  10.128   5.556 -0.5085  0.3873  0.6910
42565SOL    HW245688   0.243  10.264   5.586 -0.6406  0.9062 -1.6934
42566SOL     OW45689   2.705  10.654   8.020 -0.6491 -0.3788  0.6323
42566SOL    HW145690   2.788  10.702   8.013 -1.1464  0.4518  0.2743
42566SOL    HW245691   2.730  10.562   8.013  0.2128 -0.1238  0.1773
42567SOL     OW45692   0.637   4.257  14.088 -0.1883  0.5496  0.6491
42567SOL    HW145693   0.558   4.306  14.067 -0.5489 -0.4891 -0.5434
42567SOL    HW245694   0.607   4.182  14.139  0.2886  1.2052  1.9381
42568SOL     OW45695   0.907   2.733   8.618 -0.1486  0.0255 -0.2332
42568SOL    HW145696   0.913   2.639   8.635  0.7907 -0.2706 -1.9887
42568SOL    HW245697   0.986   2.769   8.658 -0.6947  0.1535  0.7719
42569SOL     OW45698   5.797   2.640  10.100  0.1198  0.7563 -0.1090
42569SOL    HW145699   5.874   2.588  10.078  2.3846  2.8214  2.2408
42569SOL    HW245700   5.814   2.725  10.060 -1.9021  0.7394 -1.0983
42570SOL     OW45701   4.363   7.470   1.786  0.0439 -0.1405 -0.6234
42570SOL    HW145702   4.417   7.436   1.716  0.7332 -1.4737  0.5012
42570SOL    HW245703   4.425   7.499   1.853 -0.5925  0.2725 -0.1936
42571SOL     OW45704   7.464   5.356  12.283  0.3605  0.3155 -0.0244
42571SOL    HW145705   7.443   5.444  12.252 -1.7776  0.2892  1.1828
42571SOL    HW245706   7.542   5.368  12.338  0.2063  1.4117 -0.0268
42572SOL     OW45707  14.118   0.507   5.320 -0.1269 -0.5923 -0.4759
42572SOL    HW145708  14.100   0.597   5.347 -1.3801 -1.1384  0.6172
42572SOL    HW245709  14.213   0.500   5.322  0.0024  0.7341 -0.7106
42573SOL     OW45710   0.720   1.533   0.625  0.1383 -0.3930  0.4326
42573SOL    HW145711   0.661   1.578   0.685 -0.4442 -0.9234  0.2645
42573SOL    HW245712   0.784   1.600   0.600 -0.1524  0.0770  0.9270
42574SOL     OW45713  10.389   7.678  13.587  0.4552  0.1167 -0.5667
42574SOL    HW145714  10.296   7.676  13.564  0.1808  0.8285  0.4236
42574SOL    HW245715  10.396   7.622  13.665  0.8232  0.1866 -0.5474
42575SOL     OW45716   3.338   2.541   2.215 -0.4658 -0.2426 -0.2778
42575SOL    HW145717   3.376   2.490   2.286  0.3834  0.3882 -0.2668
42575SOL    HW245718   3.277   2.601   2.258 -1.1905 -0.9815 -0.2552
42576SOL     OW45719   1.386   2.625  13.330 -0.3833 -0.5071 -0.1708
42576SOL    HW145720   1.479   2.644  13.340 -0.1844 -0.5851 -1.6864
42576SOL    HW245721   1.383   2.553  13.267 -1.5151  0.5339 -1.3813
42577SOL     OW45722   3.278   8.766  10.889  0.0165  0.2642 -0.6602
42577SOL    HW145723   3.243   8.852  10.865 -0.7666 -0.1270 -0.9356
42577SOL    HW245724   3.370   8.770  10.863  0.0158  1.0675 -0.5485
42578SOL     OW45725  12.026   6.536  14.091 -0.2878  0.7465 -0.3120
42578SOL    HW145726  12.079   6.538  14.171 -1.3265 -1.3197  0.5211
42578SOL    HW245727  12.075   6.482  14.030 -0.1521  1.1586 -0.5724
42579SOL     OW45728   6.308   3.839   6.455  0.3012  0.0863  0.0603
42579SOL    HW145729   6.215   3.841   6.434 -0.0172  3.5997  1.1300
42579SOL    HW245730   6.342   3.762   6.409 -3.3531 -2.3395  1.0409
42580SOL     OW45731  10.634   9.926   3.794  0.4748  0.6892 -0.0941
42580SOL    HW145732  10.618   9.897   3.704  2.3177  1.3349 -0.6726
42580SOL    HW245733  10.702   9.866   3.826 -2.5367 -1.8617  2.1936
42581SOL     OW45734   0.608   2.566   1.238 -0.4447 -0.0420 -0.8274
42581SOL    HW145735   0.534   2.548   1.296  1.7502  0.4687  2.3678
42581SOL    HW245736   0.655   2.483   1.233  1.0549  0.6331  0.8362
42582SOL     OW45737   8.080   9.996   3.508 -0.6056  0.3113 -0.6530
42582SOL    HW145738   8.150  10.053   3.476  0.9988 -1.4674 -0.4439
42582SOL    HW245739   8.069  10.020   3.600  1.2568 -0.7980 -0.0971
42583SOL     OW45740   2.173  12.082   5.838 -0.1020 -0.2929  0.1706
42583SOL    HW145741   2.122  12.118   5.910 -0.2206 -1.5713  0.7663
42583SOL    HW245742   2.175  11.988   5.855  3.0841 -0.2452  0.6099
42584SOL     OW45743  11.303  12.021   9.234 -0.3129 -0.2886  0.5127
42584SOL    HW145744  11.239  11.953   9.255 -0.7597 -0.0546 -0.0511
42584SOL    HW245745  11.259  12.103   9.258 -1.5846  0.1636 -2.7915
42585SOL     OW45746  12.681   4.467  13.657  0.5406 -0.1969 -0.0789
42585SOL    HW145747  12.605   4.499  13.608  0.4152  0.3840  0.4907
42585SOL    HW245748  12.646   4.397  13.712 -0.1282  1.6753  2.0209
42586SOL     OW45749   3.921   1.361   4.607 -0.0852  0.2602 -0.0834
42586SOL    HW145750   3.985   1.431   4.609 -0.6152  0.7627 -0.2857
42586SOL    HW245751   3.839   1.404   4.582 -0.2908 -0.5308 -0.8374
42587SOL     OW45752   2.741   9.730   8.752  0.1760  0.5461  0.1435
42587SOL    HW145753   2.818   9.716   8.697  0.5618 -0.0618  0.8209
42587SOL    HW245754   2.678   9.773   8.694  0.3240 -0.6794 -0.9577
42588SOL     OW45755   1.896  13.093   3.137 -0.2146 -0.2128  0.1257
42588SOL    HW145756   1.951  13.171   3.127  0.2594 -0.3936  1.2009
42588SOL    HW245757   1.948  13.022   3.101 -0.0857 -0.2510  0.3880
42589SOL     OW45758   4.411   9.320   1.701 -0.0901  0.1501  0.4300
42589SOL    HW145759   4.494   9.332   1.748 -0.2932  0.3012  0.7513
42589SOL    HW245760   4.345   9.316   1.770 -0.3321 -0.1582  0.1843
42590SOL     OW45761   7.714  13.539   0.738 -0.0162  0.4403  0.3397
42590SOL    HW145762   7.714  13.444   0.730  1.0136  0.3797  0.8253
42590SOL    HW245763   7.628  13.561   0.774 -0.2268 -0.3177  0.3050
42591SOL     OW45764   1.231   4.348   8.843 -0.1345 -0.3096 -0.5912
42591SOL    HW145765   1.146   4.391   8.837  0.7993  1.7349  0.0258
42591SOL    HW245766   1.256   4.356   8.935  0.8680 -0.6055 -0.8201
42592SOL     OW45767   0.392   5.335  13.252 -0.5561  0.4347  0.2476
42592SOL    HW145768   0.318   5.316  13.193 -0.2114 -0.5824  0.1136
42592SOL    HW245769   0.370   5.289  13.333  0.2505 -0.4817 -0.0359
42593SOL     OW45770   6.680   4.498   2.744  0.1060  0.1209 -0.4830
42593SOL    HW145771   6.698   4.569   2.805 -1.2081  0.0476  0.0282
42593SOL    HW245772   6.730   4.520   2.665  1.4215  0.4760  0.4185
42594SOL     OW45773   0.010   7.683  11.996 -0.3753  0.2745 -0.3927
42594SOL    HW145774  -0.009   7.693  12.089 -1.0660 -0.5534 -0.4422
42594SOL    HW245775   0.008   7.773  11.962 -1.9526  0.4312  0.0405
42595SOL     OW45776   8.598   8.012   8.749 -0.0853 -0.0890 -0.3410
42595SOL    HW145777   8.667   7.977   8.804  1.1398  1.1526 -1.0394
42595SOL    HW245778   8.523   7.953   8.764  0.6410 -0.5843  1.5405
42596SOL     OW45779   6.323  11.309   3.357 -0.2413 -0.7826  0.9350
42596SOL    HW145780   6.265  11.240   3.388 -0.9917 -1.5175 -1.8823
42596SOL    HW245781   6.336  11.291   3.264  1.9843  1.1760  0.7622
42597SOL     OW45782   6.881   9.263  13.083  0.4025 -0.0216  0.0570
42597SOL    HW145783   6.949   9.217  13.033 -1.4957 -2.0275 -0.8365
42597SOL    HW245784   6.930   9.320  13.143  2.8429 -1.0741 -0.7959
42598SOL     OW45785  11.563   2.437  13.336  0.1914 -0.0355 -0.0333
42598SOL    HW145786  11.505   2.396  13.400  0.3111 -2.9184 -1.6327
42598SOL    HW245787  11.609   2.365  13.294 -0.2636  1.6161 -3.7672
42599SOL     OW45788   1.080   2.248   4.701 -0.2150 -0.1745 -0.1108
42599SOL    HW145789   1.111   2.278   4.616  0.8377  0.9963  0.6435
42599SOL    HW245790   1.128   2.167   4.717 -2.0479 -1.6643 -1.5462
42600SOL     OW45791   3.305   9.197   4.719  0.3216 -0.1867  0.4219
42600SOL    HW145792   3.359   9.276   4.721  0.5781 -0.3502  0.1156
42600SOL    HW245793   3.240   9.214   4.651  0.4404 -0.2767  0.2842
42601SOL     OW45794   7.514   0.285   7.455  0.4371 -0.0892  0.3038
42601SOL    HW145795   7.435   0.322   7.494  0.3530 -0.4385  0.4757
42601SOL    HW245796   7.482   0.212   7.402  0.7434 -1.1030  1.4539
42602SOL     OW45797   1.284  10.940   1.410 -0.4374  0.1184 -0.0745
42602SOL    HW145798   1.199  10.982   1.395 -1.1822 -1.2574  0.1423
42602SOL    HW245799   1.305  10.960   1.501  0.3188  1.8864 -0.5978
42603SOL     OW45800   3.271  12.083   5.078 -0.1244 -0.0749  0.6387
42603SOL    HW145801   3.185  12.043   5.087 -0.5275  1.0544  2.1920
42603SOL    HW245802   3.254  12.171   5.045  0.6760 -0.7428 -1.7553
42604SOL     OW45803  11.760   5.115   6.087 -0.1175  0.2521  0.7748
42604SOL    HW145804  11.801   5.077   6.009 -1.2412  0.6546 -0.0396
42604SOL    HW245805  11.806   5.075   6.161 -1.0458 -2.5062 -0.0224
42605SOL     OW45806  12.742   6.086   8.791  0.2023  0.4083 -0.0882
42605SOL    HW145807  12.791   6.147   8.846 -1.2720  1.7951 -0.2186
42605SOL    HW245808  12.701   6.026   8.852 -0.3395  1.1109  0.2554
42606SOL     OW45809  11.567   4.347   1.297 -0.3484  0.6119  0.1916
42606SOL    HW145810  11.571   4.440   1.317 -0.7447  1.1949 -2.0795
42606SOL    HW245811  11.482   4.335   1.253 -1.0539 -1.1740  1.8690
42607SOL     OW45812   2.664   3.818   5.214  0.2386  0.1822  0.3850
42607SOL    HW145813   2.664   3.844   5.306  2.3768 -0.5627  0.6571
42607SOL    HW245814   2.644   3.724   5.216 -2.1524  0.6072 -0.1666
42608SOL     OW45815  14.116   3.270   8.801 -0.1682  0.6224 -0.6620
42608SOL    HW145816  14.028   3.261   8.765  0.4539  1.5414 -2.5870
42608SOL    HW245817  14.114   3.221   8.883 -1.9905 -0.8261 -1.4927
42609SOL     OW45818  10.338   1.615   5.697  0.1215  0.2239 -0.3790
42609SOL    HW145819  10.418   1.641   5.743 -0.7316 -0.7907  1.8173
42609SOL    HW245820  10.326   1.523   5.720 -2.1338  0.5850  0.0929
42610SOL     OW45821   1.164   6.886   8.241 -0.1073  0.0644  0.0907
42610SOL    HW145822   1.240   6.853   8.192 -0.5973  0.7998 -1.2054
42610SOL    HW245823   1.100   6.815   8.237 -1.3553  1.1970 -3.1340
42611SOL     OW45824   3.704   6.869  12.834  0.2219 -0.0936  0.7606
42611SOL    HW145825   3.763   6.870  12.759 -1.1074 -0.4185 -0.3191
42611SOL    HW245826   3.664   6.956  12.833  0.7825  0.1905  1.6004
42612SOL     OW45827  13.095  12.667   9.547  0.3355  0.0087  0.2737
42612SOL    HW145828  13.001  12.655   9.560  0.3180  0.8262  0.9630
42612SOL    HW245829  13.105  12.760   9.527  1.0805  0.0897  0.9907
42613SOL     OW45830  12.041   3.741   4.270  0.2939 -0.0273  0.3880
42613SOL    HW145831  12.055   3.647   4.253  2.2154  0.4377 -0.8348
42613SOL    HW245832  11.982   3.769   4.200  0.6582 -0.0795  0.0578
42614SOL     OW45833   9.184  11.669   0.736 -0.0177 -0.4034  0.5737
42614SOL    HW145834   9.157  11.578   0.726  0.3722 -0.3523 -1.3437
42614SOL    HW245835   9.279  11.667   0.726  0.2781 -0.0154  2.7318
42615SOL     OW45836   2.433  10.162   2.741 -0.2541 -0.1507 -0.1282
42615SOL    HW145837   2.438  10.255   2.717  0.0363 -0.4389 -1.2010
42615SOL    HW245838   2.339  10.146   2.753 -0.3299  0.2049 -0.2155
42616SOL     OW45839   8.828  13.223   0.922  0.0997 -0.4370  0.3367
42616SOL    HW145840   8.823  13.159   0.852  1.2084  1.2798 -1.4206
42616SOL    HW245841   8.737  13.251   0.935 -0.1530 -0.9819 -0.2267
42617SOL     OW45842   8.368   5.085   3.183 -0.8519  0.4319 -0.4194
42617SOL    HW145843   8.445   5.103   3.129 -0.3292 -1.1570 -0.2736
42617SOL    HW245844   8.390   5.003   3.228 -1.0901  1.8205  2.4836
42618SOL     OW45845   4.711   6.584   3.330 -0.4084 -0.5166  0.2102
42618SOL    HW145846   4.706   6.576   3.425 -2.2987 -0.8411  0.1219
42618SOL    HW245847   4.767   6.660   3.315 -2.2118  1.2341  1.6897
42619SOL     OW45848   0.109   9.323  13.451  0.3538  0.2677 -0.0011
42619SOL    HW145849   0.041   9.291  13.393  0.9435 -2.4678  0.6459
42619SOL    HW245850   0.065   9.384  13.510 -0.9438  0.5174 -1.1983
42620SOL     OW45851   3.661   8.758   7.708  0.3168 -0.3917 -0.3839
42620SOL    HW145852   3.725   8.766   7.779  0.6304  0.7835 -0.7787
42620SOL    HW245853   3.631   8.847   7.693 -2.5902 -1.0264  0.8183
42621SOL     OW45854   2.971   3.187   3.144 -0.6512 -0.3411 -0.2068
42621SOL    HW145855   2.990   3.258   3.206 -0.6266 -0.8769  0.4024
42621SOL    HW245856   3.002   3.221   3.060 -0.8026  0.4430  0.0423
42622SOL     OW45857   6.484   1.578   2.545 -0.0974  0.1500  0.1205
42622SOL    HW145858   6.516   1.511   2.484  0.5708  0.3044  0.2906
42622SOL    HW245859   6.394   1.553   2.563  0.2567 -0.9237  0.4764
42623SOL     OW45860   4.163   0.024   0.922 -0.2297  0.6783 -0.0089
42623SOL    HW145861   4.148   0.063   0.836 -1.3375  1.2401  0.4151
42623SOL    HW245862   4.076  -0.005   0.951  0.0305  0.9788  1.1359
42624SOL     OW45863   8.947  13.477   0.919 -0.1530 -0.0365 -0.0426
42624SOL    HW145864   8.924  13.385   0.930 -1.4576  0.4029  1.1814
42624SOL    HW245865   9.015  13.477   0.852 -0.5365 -1.8353 -0.4787
42625SOL     OW45866  11.020  13.973  12.689  0.0228  0.3825  0.2745
42625SOL    HW145867  10.932  13.969  12.726  0.0516 -0.4263  0.2582
42625SOL    HW245868  11.079  13.975  12.765  0.0468 -0.4729  0.2833
42626SOL     OW45869   9.459   5.381   5.448 -0.5782 -0.1485 -0.1759
42626SOL    HW145870   9.401   5.308   5.427  0.1559 -0.4587 -1.2128
42626SOL    HW245871   9.541   5.359   5.404 -0.2137  1.1029 -0.1492
42627SOL     OW45872  11.094  13.815   6.647 -0.5022  0.4816 -0.0879
42627SOL    HW145873  11.150  13.889   6.623 -0.7520  0.7433  0.1345
42627SOL    HW245874  11.155  13.747   6.676 -0.2174  0.2925 -1.1018
42628SOL     OW45875   2.698   0.077  11.937 -0.4019 -0.3444 -0.2541
42628SOL    HW145876   2.704   0.135  11.862 -1.2943 -0.8798 -0.7719
42628SOL    HW245877   2.641   0.005  11.906  0.1094 -1.1228  0.5789
42629SOL     OW45878   4.624   9.225   6.280  0.1080  0.2589  0.1138
42629SOL    HW145879   4.618   9.281   6.357  0.1112  0.8481 -0.3110
42629SOL    HW245880   4.571   9.269   6.214  0.9567  0.3009 -0.5527
42630SOL     OW45881   0.295   2.583  13.960 -0.0552 -0.2163 -0.3150
42630SOL    HW145882   0.337   2.497  13.966  2.0330  0.5974 -2.0777
42630SOL    HW245883   0.337   2.634  14.029 -2.2445 -0.8544  1.6467
42631SOL     OW45884   6.567   7.898   4.905  0.9506 -0.1394  0.3068
42631SOL    HW145885   6.548   7.902   4.999 -0.0992 -1.7872  0.1981
42631SOL    HW245886   6.593   7.987   4.883 -1.0153  0.8674  1.7043
42632SOL     OW45887   8.543   0.003   2.290  0.3047  0.1621 -0.3515
42632SOL    HW145888   8.464  -0.051   2.295 -0.8047  1.6542 -0.9742
42632SOL    HW245889   8.615  -0.060   2.283 -0.8700 -1.2230 -0.4114
42633SOL     OW45890  12.784   6.614   5.677 -0.3776 -0.0615  0.5203
42633SOL    HW145891  12.852   6.664   5.633 -2.2240  1.5832 -0.6152
42633SOL    HW245892  12.768   6.662   5.759 -0.8412  0.1547  0.3095
42634SOL     OW45893   0.005  11.719  12.138 -0.6472  0.2909  0.1682
42634SOL    HW145894   0.044  11.639  12.172 -0.4585  0.2635 -0.1111
42634SOL    HW245895   0.049  11.734  12.054 -1.8958 -0.2600 -0.6180
42635SOL     OW45896   3.249   8.045   7.338 -0.2546 -0.1156  0.0519
42635SOL    HW145897   3.227   8.019   7.428 -0.4517 -0.7430 -0.1725
42635SOL    HW245898   3.287   7.966   7.299 -2.0023 -0.4599 -1.0259
42636SOL     OW45899   1.100   8.355   7.691  0.0666 -0.0622  0.6317
42636SOL    HW145900   1.162   8.366   7.764  0.2703 -2.6606  0.9529
42636SOL    HW245901   1.144   8.396   7.616  2.1168 -1.5657  0.9232
42637SOL     OW45902  12.213   7.209   9.973  0.1474 -0.3202 -0.3833
42637SOL    HW145903  12.134   7.250  10.009  0.9383  1.2364 -0.3289
42637SOL    HW245904  12.230   7.256   9.891  0.9814 -0.6673 -0.4209
42638SOL     OW45905   4.130   0.155   9.874  0.1139  0.3423  0.4846
42638SOL    HW145906   4.188   0.081   9.891 -0.1399 -0.3104 -1.2909
42638SOL    HW245907   4.042   0.119   9.879 -0.1040  1.0069  1.7029
42639SOL     OW45908  11.532  13.433  12.726  0.2159 -0.2732  0.3657
42639SOL    HW145909  11.593  13.383  12.781 -1.5529 -1.2209  1.5553
42639SOL    HW245910  11.545  13.524  12.753  1.7153 -0.3248 -0.0610
42640SOL     OW45911   6.510   9.007   7.570  0.0029 -0.3377  0.3238
42640SOL    HW145912   6.557   8.934   7.529 -0.1198 -0.3704  0.2414
42640SOL    HW245913   6.536   9.084   7.518 -0.8387 -0.5107 -0.3736
42641SOL     OW45914  12.038   1.569   1.410  0.3359 -0.2439 -0.4276
42641SOL    HW145915  12.029   1.608   1.497  1.5824 -0.3883 -0.2125
42641SOL    HW245916  11.949   1.540   1.387 -0.1763  0.6274  0.3861
42642SOL     OW45917   5.689   2.127   0.807  0.4688  0.1636 -0.3868
42642SOL    HW145918   5.639   2.201   0.840  1.3225  0.2447  0.7487
42642SOL    HW245919   5.635   2.092   0.735  0.3702  2.2768 -1.4131
42643SOL     OW45920   6.459   6.996   7.721 -0.1331 -0.1640 -0.6890
42643SOL    HW145921   6.502   7.018   7.803 -0.1744  0.6733 -0.8864
42643SOL    HW245922   6.418   7.077   7.692 -0.9159 -0.6789 -1.0646
42644SOL     OW45923   4.843  12.901   7.217 -0.4282  0.6055 -0.5551
42644SOL    HW145924   4.882  12.854   7.143 -0.3966  0.5141 -0.4802
42644SOL    HW245925   4.811  12.832   7.275 -1.4553  0.6777 -1.0143
42645SOL     OW45926   1.850  11.046   6.830  0.0008  0.1302 -0.1783
42645SOL    HW145927   1.921  11.004   6.877  0.2620  1.0455  0.2684
42645SOL    HW245928   1.811  11.106   6.893 -2.4745 -1.7418  0.2378
42646SOL     OW45929   9.888   7.808   0.583  0.1994  0.1499 -0.1254
42646SOL    HW145930   9.823   7.782   0.649  0.2895 -2.6719 -1.0214
42646SOL    HW245931   9.965   7.833   0.634 -0.3719 -0.0851  0.8813
42647SOL     OW45932  11.746   6.977  13.682 -0.6878  0.0188 -0.4142
42647SOL    HW145933  11.700   7.047  13.727  0.2747 -0.6657  1.7703
42647SOL    HW245934  11.742   6.903  13.743  1.0660 -0.8249 -1.2469
42648SOL     OW45935   4.747   3.621   0.739 -0.3633  0.4362  0.2273
42648SOL    HW145936   4.796   3.619   0.821 -0.7350  2.1998  0.5381
42648SOL    HW245937   4.687   3.547   0.745  1.4398 -1.0892  0.3170
42649SOL     OW45938   2.237  12.976   3.559  0.0778  0.5111 -0.0089
42649SOL    HW145939   2.239  13.039   3.631 -1.7526  0.8616 -0.2106
42649SOL    HW245940   2.238  13.030   3.480 -1.0110  0.2814 -0.1901
42650SOL     OW45941   1.907   7.629   7.277  0.5272 -1.0034  0.6834
42650SOL    HW145942   1.998   7.617   7.249  0.7527  1.8315 -0.0607
42650SOL    HW245943   1.911   7.699   7.342 -1.2936  0.5811 -0.8109
42651SOL     OW45944   5.835  13.583   0.032 -0.1388  0.4993  0.2903
42651SOL    HW145945   5.891  13.508   0.053 -1.3618 -1.0292 -1.5975
42651SOL    HW245946   5.779  13.593   0.109 -0.2372 -0.8369  0.4217
42652SOL     OW45947   9.231   0.144  12.971  0.3647  0.2771  0.2284
42652SOL    HW145948   9.291   0.131  13.045 -0.6079  0.8957  1.1418
42652SOL    HW245949   9.153   0.094  12.994  0.6086 -0.7858 -1.1049
42653SOL     OW45950   9.999   6.507   9.024 -0.5749 -0.4239  0.4887
42653SOL    HW145951  10.080   6.456   9.028 -1.0012 -1.1003  0.8242
42653SOL    HW245952  10.028   6.598   9.022  0.2122 -0.6686 -0.1642
42654SOL     OW45953   2.251   9.828   2.972  0.3787 -0.8378 -0.2010
42654SOL    HW145954   2.162   9.836   2.937  0.8199  1.5592 -0.9080
42654SOL    HW245955   2.250   9.882   3.051  1.5042  0.1310 -0.8350
42655SOL     OW45956   4.736  12.347  11.859  0.0453  0.0170 -0.0223
42655SOL    HW145957   4.722  12.408  11.787  1.1545 -0.0857 -0.3437
42655SOL    HW245958   4.831  12.342  11.868 -0.0581 -0.7732  0.7658
42656SOL     OW45959   0.557   6.446   5.086 -0.3169  0.0390 -0.9793
42656SOL    HW145960   0.600   6.495   5.156  1.6760 -0.4549 -1.7869
42656SOL    HW245961   0.464   6.459   5.102  0.0849  0.8205  1.1227
42657SOL     OW45962  10.199   5.628  11.872 -0.1194  0.0729 -0.7097
42657SOL    HW145963  10.147   5.589  11.801  0.2841 -2.7217  0.3868
42657SOL    HW245964  10.175   5.576  11.949  1.3222  1.3658  0.6595
42658SOL     OW45965   5.233   2.713   6.900 -0.3696 -0.5492 -0.3640
42658SOL    HW145966   5.301   2.780   6.904  0.1986 -1.1665  1.6385
42658SOL    HW245967   5.161   2.749   6.951  0.0932 -1.5601  1.0805
42659SOL     OW45968   0.757  13.939   9.195 -0.0901  0.2965  0.0400
42659SOL    HW145969   0.799  13.931   9.281 -0.4172  1.9248  0.3992
42659SOL    HW245970   0.672  13.897   9.205  0.9473 -2.0464 -0.3665
42660SOL     OW45971   9.363  11.058  10.009 -0.3081  0.3900  0.0159
42660SOL    HW145972   9.347  11.122   9.939 -0.6877  1.8148  1.3536
42660SOL    HW245973   9.458  11.059  10.020 -0.2256 -0.0031 -0.6198
42661SOL     OW45974  10.012   9.980   8.297  0.2693 -0.1468 -0.1034
42661SOL    HW145975  10.028  10.047   8.364 -1.0863 -1.0310  1.1702
42661SOL    HW245976  10.090   9.924   8.300 -0.2946 -0.8899  1.6497
42662SOL     OW45977  10.094   0.244  11.266 -0.5366  0.6592 -0.0353
42662SOL    HW145978  10.127   0.319  11.316 -0.3561  0.2538  0.4618
42662SOL    HW245979  10.065   0.182  11.333 -0.0308 -0.0129 -0.4372
42663SOL     OW45980   8.953   4.066   5.428  0.3521 -0.1335  0.7249
42663SOL    HW145981   9.017   4.013   5.380  1.1213  0.4542  1.0872
42663SOL    HW245982   8.880   4.076   5.367  1.6959  1.4103 -0.7394
42664SOL     OW45983   3.678  10.112   3.614  1.0260 -0.0168  0.2627
42664SOL    HW145984   3.675  10.017   3.608  1.3863 -0.0592  0.7797
42664SOL    HW245985   3.686  10.141   3.522  0.2198 -0.4493  0.0500
42665SOL     OW45986   3.044  13.895   3.036 -0.2744 -0.1576  0.4927
42665SOL    HW145987   2.956  13.930   3.045 -0.6842 -1.3051  1.2527
42665SOL    HW245988   3.031  13.806   3.002  0.5147 -0.6393  1.3755
42666SOL     OW45989   9.821  11.846   0.709  0.5197  0.1546  0.0765
42666SOL    HW145990   9.811  11.821   0.801  0.2115 -1.5617 -0.3922
42666SOL    HW245991   9.881  11.921   0.711 -0.7010  1.1460  1.7713
42667SOL     OW45992   0.202   6.706   9.992 -0.2453  0.0692 -1.2433
42667SOL    HW145993   0.286   6.673   9.962  0.6817  0.0635  1.1330
42667SOL    HW245994   0.223   6.764  10.066 -2.2852  0.3786 -0.8216
42668SOL     OW45995   8.442   1.747   9.919  0.2589  0.0076 -0.3151
42668SOL    HW145996   8.503   1.788   9.858 -0.0351  0.2150 -0.4742
42668SOL    HW245997   8.473   1.657   9.928 -0.6975 -0.5566 -2.1471
42669SOL     OW45998   6.653  12.486   1.023  0.0760  0.4021 -0.1606
42669SOL    HW145999   6.630  12.422   1.091  1.5222 -0.5643 -0.5556
42669SOL    HW246000   6.726  12.535   1.060  1.1925 -0.4505 -1.1747
42670SOL     OW46001  10.421   4.300   5.553 -0.2874  0.5215  0.2637
42670SOL    HW146002  10.351   4.241   5.580  0.6116 -0.6261  0.1617
42670SOL    HW246003  10.501   4.248   5.562  0.3365  1.0085 -1.8476
42671SOL     OW46004  13.734   3.264   5.529 -0.7295  0.1606 -0.3772
42671SOL    HW146005  13.712   3.260   5.436 -0.4903 -0.8173 -0.3990
42671SOL    HW246006  13.818   3.218   5.536 -0.7847  0.1548  0.3331
42672SOL     OW46007   4.948  11.721   0.818  0.0655 -0.2975  0.4401
42672SOL    HW146008   4.882  11.755   0.878 -0.3027 -0.9145  0.3873
42672SOL    HW246009   4.978  11.640   0.858 -0.0061 -0.5888 -0.0802
42673SOL     OW46010  13.593   1.896   7.415  0.0021 -0.0230 -0.3164
42673SOL    HW146011  13.598   1.903   7.510  0.5999 -0.5623 -0.3059
42673SOL    HW246012  13.662   1.954   7.382 -1.3894  1.6328 -0.4944
42674SOL     OW46013   9.980  10.056  10.801  0.1104 -0.4797 -0.4885
42674SOL    HW146014   9.916  10.124  10.778 -0.2221 -0.7993 -0.5195
42674SOL    HW246015   9.977   9.995  10.728  0.5020 -0.4652 -0.5187
42675SOL     OW46016  13.817  13.502  11.708  0.0644 -0.1012 -0.2769
42675SOL    HW146017  13.825  13.428  11.648 -1.6083  1.0134 -1.9809
42675SOL    HW246018  13.723  13.509  11.725  0.1212  1.8287 -0.4719
42676SOL     OW46019  10.589   3.898  11.243 -0.2569  0.4990 -0.5931
42676SOL    HW146020  10.562   3.901  11.152  0.4484  1.7346 -0.7803
42676SOL    HW246021  10.553   3.816  11.276 -2.3620  1.0325 -1.3915
42677SOL     OW46022   8.462   2.865   7.267 -0.3771  0.6662  0.0336
42677SOL    HW146023   8.477   2.774   7.242 -2.1688  0.5657 -0.8249
42677SOL    HW246024   8.450   2.863   7.362  1.8339  0.3677  0.3459
42678SOL     OW46025   7.106  13.327  12.773 -0.4167 -0.4245  0.6066
42678SOL    HW146026   7.047  13.265  12.732  0.4072 -1.4216  0.8939
42678SOL    HW246027   7.175  13.342  12.707 -0.4146 -0.0934  0.6802
42679SOL     OW46028   6.175   8.201   3.433 -0.3845 -0.0421 -0.2477
42679SOL    HW146029   6.260   8.245   3.438 -0.2846 -0.3205  0.6726
42679SOL    HW246030   6.151   8.206   3.340  0.2363  0.7890 -0.3740
42680SOL     OW46031   7.119   9.554   3.512  0.2365  0.2046  0.2368
42680SOL    HW146032   7.150   9.482   3.567 -2.2437 -1.3270 -0.2106
42680SOL    HW246033   7.053   9.599   3.565  0.4336  0.9969 -0.1721
42681SOL     OW46034   9.875   8.723  12.485  0.1315  0.1866 -0.0221
42681SOL    HW146035   9.886   8.656  12.553 -0.3868 -0.4226 -0.5274
42681SOL    HW246036   9.930   8.693  12.412 -0.6725 -0.0852 -0.5301
42682SOL     OW46037  12.996   9.617   8.321  0.3552  0.2642 -0.1699
42682SOL    HW146038  13.081   9.659   8.325  0.7240 -0.1720 -2.2781
42682SOL    HW246039  13.003   9.542   8.380  0.8984  1.0655  0.8097
42683SOL     OW46040   0.358   0.451  11.151  0.2180  0.1063  0.2143
42683SOL    HW146041   0.441   0.457  11.104  2.2073 -2.3109  3.0234
42683SOL    HW246042   0.384   0.441  11.243 -3.0828 -2.4764  1.0593
42684SOL     OW46043   1.310   2.085   8.116  0.3953 -0.1909  0.3212
42684SOL    HW146044   1.259   2.068   8.037  0.8749  1.3134 -0.3511
42684SOL    HW246045   1.349   2.000   8.138 -0.3810 -0.8073 -0.5861
42685SOL     OW46046   7.463   3.730   0.629 -0.0111 -0.4577 -0.1411
42685SOL    HW146047   7.497   3.817   0.609  0.3267 -0.8263 -1.2109
42685SOL    HW246048   7.378   3.746   0.670 -0.1361  0.3546 -0.7026
42686SOL     OW46049   7.427   1.915   8.635  0.1343 -0.2508 -0.4905
42686SOL    HW146050   7.469   1.922   8.549 -0.4191  0.1225 -0.7380
42686SOL    HW246051   7.379   1.833   8.631  0.4595 -0.4463 -0.3791
42687SOL     OW46052   5.525   4.917   5.400 -0.1092  0.4748 -0.1880
42687SOL    HW146053   5.473   4.938   5.322 -1.9083  0.5569  0.9642
42687SOL    HW246054   5.577   4.996   5.417 -0.0887  0.6406 -0.9953
42688SOL     OW46055  12.768   1.100   2.639 -0.0048  0.2050  0.1509
42688SOL    HW146056  12.788   1.131   2.551 -1.6288 -0.7283 -0.5999
42688SOL    HW246057  12.829   1.027   2.654  1.0607  1.0978  0.3030
42689SOL     OW46058   3.552  12.355   2.698  0.3224 -0.2275  0.3202
42689SOL    HW146059   3.462  12.384   2.711  1.1528  1.7948  2.1845
42689SOL    HW246060   3.568  12.294   2.770  0.4940 -0.4885  0.0651
42690SOL     OW46061  11.992   8.888   3.542 -0.2487 -0.5726  0.2135
42690SOL    HW146062  12.065   8.836   3.575 -0.2514 -0.1236  0.9563
42690SOL    HW246063  11.970   8.948   3.614 -0.8122 -0.1413 -0.2995
42691SOL     OW46064   5.504   8.337   4.726  0.1579  0.5436  0.2135
42691SOL    HW146065   5.566   8.394   4.771  0.1158 -0.0169  1.0114
42691SOL    HW246066   5.439   8.396   4.690 -0.0887  0.9919  1.3368
42692SOL     OW46067   6.867  10.594   5.917 -0.8566 -0.5816 -0.0151
42692SOL    HW146068   6.874  10.501   5.939  0.6083 -1.0433 -2.1102
42692SOL    HW246069   6.786  10.601   5.867 -0.8176 -0.7716 -0.1043
42693SOL     OW46070   4.615   4.935  12.226 -0.1387 -0.4313 -0.3594
42693SOL    HW146071   4.653   4.880  12.157  0.1026 -0.5662 -0.1226
42693SOL    HW246072   4.672   4.921  12.301  0.2235  0.5389 -0.4371
42694SOL     OW46073   2.459   6.825  13.019 -0.0418 -0.4131  0.1715
42694SOL    HW146074   2.520   6.790  12.954  0.5121 -0.8367  0.9029
42694SOL    HW246075   2.501   6.905  13.050 -1.5426  1.2692 -1.8667
42695SOL     OW46076   4.375   2.326   6.507  0.4466 -0.6313 -0.3216
42695SOL    HW146077   4.370   2.385   6.583  0.6678 -1.6346  0.4855
42695SOL    HW246078   4.387   2.385   6.433  2.2360  0.2879  0.6300
42696SOL     OW46079   8.069   2.272   3.787 -0.2082  0.0383 -0.1666
42696SOL    HW146080   8.070   2.204   3.854 -0.3417 -0.6379 -0.8412
42696SOL    HW246081   7.989   2.322   3.804 -0.3285 -0.2359  0.0762
42697SOL     OW46082   1.092   8.831   2.160  0.2925  0.1851  0.3674
42697SOL    HW146083   1.053   8.744   2.159  0.2571  0.2028 -0.1851
42697SOL    HW246084   1.024   8.887   2.197 -0.2421  0.2272 -0.6497
42698SOL     OW46085  10.359   2.045   9.472  0.3563 -0.1995  0.1025
42698SOL    HW146086  10.426   1.984   9.504  1.6763  1.9745  1.7915
42698SOL    HW246087  10.276   2.005   9.498  1.2311 -0.6364  2.5068
42699SOL     OW46088  11.215  13.385   8.300 -0.6136 -0.1327 -0.2043
42699SOL    HW146089  11.231  13.410   8.209 -0.0430  1.1230  0.2252
42699SOL    HW246090  11.237  13.292   8.303 -0.6591 -0.1903 -1.3532
42700SOL     OW46091   8.735   5.384   0.203  0.1940  0.2944  0.2383
42700SOL    HW146092   8.723   5.479   0.204 -2.8994 -0.0033  0.1017
42700SOL    HW246093   8.735   5.358   0.295  1.5235  0.4325  0.2954
42701SOL     OW46094   2.913  10.538   7.086  0.2192  0.3653  0.1605
42701SOL    HW146095   2.907  10.557   7.180  0.8984 -0.8534  0.4573
42701SOL    HW246096   2.823  10.516   7.061 -0.1914  1.8007  0.2504
42702SOL     OW46097   8.710   7.923  12.937 -0.3974  0.1114  0.2741
42702SOL    HW146098   8.784   7.966  12.979 -0.4618 -1.2284  1.8734
42702SOL    HW246099   8.633   7.960  12.981 -0.4669 -1.2587  1.3961
42703SOL     OW46100  10.482   0.852   3.868  0.1343  0.3992  0.8075
42703SOL    HW146101  10.542   0.869   3.796 -0.3923  0.1820  0.3097
42703SOL    HW246102  10.506   0.764   3.899 -0.1024  0.2007  0.4319
42704SOL     OW46103   8.328  10.844  12.277  0.1845  0.0181 -0.0540
42704SOL    HW146104   8.409  10.887  12.303  0.0050 -1.3572  3.3941
42704SOL    HW246105   8.356  10.770  12.223  1.0873  0.5335 -0.3080
42705SOL     OW46106   2.895  10.896   3.701 -0.0645 -0.0356 -0.4922
42705SOL    HW146107   2.843  10.917   3.779 -1.2708 -2.9619 -0.3898
42705SOL    HW246108   2.984  10.882   3.735 -0.0217  1.1243 -0.0726
42706SOL     OW46109  11.882   2.436   8.663  0.4783  0.4392  0.1749
42706SOL    HW146110  11.875   2.492   8.740 -1.9840 -0.5778  0.8088
42706SOL    HW246111  11.882   2.347   8.699  2.6616 -0.0548 -0.8880
42707SOL     OW46112   0.272   4.405  11.293 -0.6560  0.2152  0.2161
42707SOL    HW146113   0.252   4.340  11.226 -4.4563  0.7720  0.5633
42707SOL    HW246114   0.288   4.486  11.245  1.5569 -0.3677 -0.1136
42708SOL     OW46115  12.193   6.926   5.212 -0.4572 -0.4272 -0.0790
42708SOL    HW146116  12.288   6.929   5.214 -0.4824  0.5194 -0.2160
42708SOL    HW246117  12.165   6.983   5.283 -0.9262  0.0656 -0.6462
42709SOL     OW46118  11.706   3.281   1.402 -0.1987  0.0194 -0.0912
42709SOL    HW146119  11.692   3.188   1.385  0.3860 -0.3894  1.4611
42709SOL    HW246120  11.775   3.307   1.341 -1.3237 -0.1863 -1.5027
42710SOL     OW46121   3.854   9.544   3.500 -0.3159  0.7047 -0.0424
42710SOL    HW146122   3.883   9.506   3.417  2.5051  0.9660  0.7303
42710SOL    HW246123   3.758   9.543   3.495 -0.2436 -0.7842 -2.5904
42711SOL     OW46124   1.591   8.643   3.839  0.3861  0.2879 -0.8928
42711SOL    HW146125   1.655   8.631   3.908  0.0822  0.1039 -0.6415
42711SOL    HW246126   1.507   8.650   3.884  0.3490  1.7926 -1.1118
42712SOL     OW46127   4.405   6.381   8.121 -0.3799 -0.0132 -0.3808
42712SOL    HW146128   4.425   6.472   8.098  1.4030  0.0383  1.1230
42712SOL    HW246129   4.406   6.381   8.217 -1.8909 -1.3355 -0.3285
42713SOL     OW46130  10.408  12.583  13.456  0.1154 -0.3011 -0.1238
42713SOL    HW146131  10.404  12.593  13.361  0.9439 -1.4323 -0.3019
42713SOL    HW246132  10.317  12.590  13.485  0.0956  3.2872 -0.5825
42714SOL     OW46133  10.835  13.270   0.557 -0.2657  0.3293  0.4588
42714SOL    HW146134  10.859  13.196   0.501  0.4211  0.8272  0.0807
42714SOL    HW246135  10.785  13.230   0.629  1.1783 -0.6868  0.9540
42715SOL     OW46136   3.992   2.954   9.491 -0.1316  0.5492  0.0464
42715SOL    HW146137   3.925   3.012   9.526  0.1950  0.0380  1.6056
42715SOL    HW246138   3.948   2.869   9.482  0.7283 -0.3300  3.0363
42716SOL     OW46139   5.872   5.114   4.572  0.0745  0.1419 -0.3464
42716SOL    HW146140   5.819   5.058   4.516  0.7112 -1.0613  0.2238
42716SOL    HW246141   5.862   5.077   4.660 -0.7478  1.8756  0.3500
42717SOL     OW46142   6.223  10.902   4.135 -0.2413 -0.0817 -0.3086
42717SOL    HW146143   6.161  10.909   4.207 -1.5501 -0.7102 -1.3342
42717SOL    HW246144   6.309  10.895   4.178 -1.0111 -0.8569  1.1988
42718SOL     OW46145   1.170   3.707   8.626  0.4052 -0.3766 -0.4029
42718SOL    HW146146   1.173   3.758   8.545  1.4624  0.0396 -0.1184
42718SOL    HW246147   1.155   3.617   8.597 -1.1851  0.0276 -0.9325
42719SOL     OW46148   7.904   4.087  10.874 -0.0456  0.3634 -0.5184
42719SOL    HW146149   7.884   4.115  10.963 -0.3041  0.6169 -0.6535
42719SOL    HW246150   7.863   4.153  10.818  1.3102  0.9876 -0.8143
42720SOL     OW46151   7.812  13.677   8.722 -0.1771 -0.1482 -0.3184
42720SOL    HW146152   7.840  13.585   8.718 -1.8550 -0.7651  1.0848
42720SOL    HW246153   7.880  13.720   8.774  1.7643 -0.0496 -2.7270
42721SOL     OW46154   9.725   9.323  11.157  0.0707 -0.2956  0.0835
42721SOL    HW146155   9.708   9.247  11.212 -1.2414  1.2080  1.8649
42721SOL    HW246156   9.810   9.356  11.186 -0.8729  0.8332  1.7408
42722SOL     OW46157   8.377   5.195  11.550  0.7367  0.0183  0.3185
42722SOL    HW146158   8.317   5.266  11.527  1.3570  0.1712 -0.9445
42722SOL    HW246159   8.361   5.128  11.483  0.6495 -0.7457  1.0902
42723SOL     OW46160   3.869   1.393  12.764 -0.5626 -0.1096 -0.5570
42723SOL    HW146161   3.962   1.413  12.774  0.0136 -2.3730 -0.8003
42723SOL    HW246162   3.842   1.355  12.847 -1.2710  0.4683 -0.5082
42724SOL     OW46163   6.861   3.822   6.667 -0.5822 -0.3381  0.2387
42724SOL    HW146164   6.789   3.807   6.607  2.1982 -0.0419 -3.5117
42724SOL    HW246165   6.893   3.734   6.689 -0.8172 -0.4318  0.2031
42725SOL     OW46166   8.713   0.179   2.514 -0.1081 -0.4086  0.0124
42725SOL    HW146167   8.709   0.114   2.443  0.9040 -3.0452  2.1828
42725SOL    HW246168   8.796   0.160   2.559 -1.1711  0.4299  2.4941
42726SOL     OW46169   6.032  10.960   2.219  0.2149  0.4000  0.1568
42726SOL    HW146170   6.066  11.033   2.167  0.6598 -0.2081 -0.4172
42726SOL    HW246171   5.989  10.904   2.155 -1.0025  0.6455  0.7295
42727SOL     OW46172  11.702   8.993   8.425 -0.0693 -0.3735  0.2054
42727SOL    HW146173  11.629   8.980   8.364 -2.2833  1.4555  2.2301
42727SOL    HW246174  11.691   8.924   8.491  0.7097 -0.7393 -0.0378
42728SOL     OW46175  13.079   2.982   7.676  0.0127 -0.1904  0.8175
42728SOL    HW146176  13.062   3.062   7.726  2.2971  0.6880  0.2860
42728SOL    HW246177  13.004   2.926   7.695 -1.9423  2.2586  0.7933
42729SOL     OW46178   4.103   9.509   4.688  0.3259  0.0089  0.6394
42729SOL    HW146179   4.084   9.416   4.685 -0.5677  0.1030  2.4882
42729SOL    HW246180   4.196   9.514   4.710  0.8504 -0.4071 -1.2632
42730SOL     OW46181   8.824  11.594   4.920 -0.0828 -0.1135 -0.0265
42730SOL    HW146182   8.823  11.504   4.952 -0.5916  0.4742  1.7570
42730SOL    HW246183   8.743  11.632   4.955 -0.5358  0.6991 -1.8377
42731SOL     OW46184   2.259   0.742   6.711  0.3447 -0.2497  0.2694
42731SOL    HW146185   2.251   0.768   6.803 -0.1116 -1.0509  0.4685
42731SOL    HW246186   2.285   0.650   6.715 -1.6549 -0.8919 -0.3783
42732SOL     OW46187   8.516   7.099   5.503 -0.1483  0.0663  0.0162
42732SOL    HW146188   8.498   7.005   5.496  0.3279 -0.0028 -0.3347
42732SOL    HW246189   8.602   7.110   5.461  0.0477  0.5741  0.5348
42733SOL     OW46190   8.642   7.527  11.006  0.0902 -0.2746  0.2006
42733SOL    HW146191   8.653   7.536  10.911 -1.9260  1.4762  0.0574
42733SOL    HW246192   8.614   7.436  11.018 -0.0200 -0.4044 -0.9220
42734SOL     OW46193   6.339   5.603   9.647 -0.1147  0.3083 -0.7757
42734SOL    HW146194   6.411   5.620   9.708 -0.6243  1.1667 -0.3997
42734SOL    HW246195   6.370   5.531   9.592  0.8802  0.4304 -0.3801
42735SOL     OW46196  12.232  10.527  13.082 -0.0358 -0.1201 -0.5082
42735SOL    HW146197  12.244  10.447  13.030  0.9324 -0.6859  0.5187
42735SOL    HW246198  12.320  10.547  13.115 -0.4658  0.7444  0.1512
42736SOL     OW46199  13.753  10.268   5.253  0.3169 -0.1682  0.5913
42736SOL    HW146200  13.778  10.197   5.313  0.0579 -1.6028 -0.9127
42736SOL    HW246201  13.836  10.310   5.231  0.7383 -1.2974 -0.0313
42737SOL     OW46202   3.654   5.125   5.859 -0.3162  0.5006 -0.1082
42737SOL    HW146203   3.573   5.085   5.828 -0.0534 -0.2840  0.1767
42737SOL    HW246204   3.723   5.086   5.806  0.1359 -0.8613  1.3888
42738SOL     OW46205  10.413   6.150   4.307 -0.1182 -0.3569 -0.9672
42738SOL    HW146206  10.506   6.148   4.283 -0.2852 -0.6535 -1.6158
42738SOL    HW246207  10.395   6.063   4.342  0.5316  0.5551  1.9492
42739SOL     OW46208   9.092   6.253   2.333  0.6181 -0.5225  0.1628
42739SOL    HW146209   9.102   6.259   2.238  1.0815 -1.4618  0.1448
42739SOL    HW246210   9.180   6.234   2.366  0.1615 -2.0085  0.6081
42740SOL     OW46211  12.978   7.701   9.838  0.2283  0.9408 -0.4560
42740SOL    HW146212  13.018   7.775   9.792 -0.1998  0.9872 -0.7516
42740SOL    HW246213  12.922   7.659   9.773  2.0013 -0.8690 -0.9396
42741SOL     OW46214  11.666   9.542   4.436 -0.0705 -0.3905 -0.2048
42741SOL    HW146215  11.709   9.467   4.479 -0.1752 -0.0973  0.4184
42741SOL    HW246216  11.649   9.604   4.507  1.2750  0.8411 -0.9164
42742SOL     OW46217   1.260  12.431   7.891 -0.0233  0.5973  0.0450
42742SOL    HW146218   1.302  12.352   7.924  1.0325  1.5157  1.0031
42742SOL    HW246219   1.252  12.417   7.797 -1.2873 -1.2692  0.3617
42743SOL     OW46220   2.448  10.905   1.196  0.3245  0.3908 -0.0810
42743SOL    HW146221   2.460  10.899   1.101 -2.1893 -0.2037 -0.4483
42743SOL    HW246222   2.497  10.832   1.232 -1.0481 -1.1918 -1.2633
42744SOL     OW46223   6.996   7.265  11.146  0.5468 -0.3722 -0.7525
42744SOL    HW146224   7.086   7.295  11.161 -0.5510  2.6085  0.6753
42744SOL    HW246225   6.985   7.192  11.207  1.3640  0.6904  0.7294
42745SOL     OW46226   3.884   3.840   5.045  0.8861 -0.1823 -0.1369
42745SOL    HW146227   3.979   3.831   5.032  0.6653 -1.8695 -0.8641
42745SOL    HW246228   3.874   3.920   5.096  2.7303 -0.1496  0.2352
42746SOL     OW46229  12.571   3.464  12.239  0.0088 -0.5479 -0.0116
42746SOL    HW146230  12.506   3.412  12.288  0.0242 -1.8103 -1.2722
42746SOL    HW246231  12.542   3.555  12.251 -1.0565 -0.9632  0.7791
42747SOL     OW46232  13.294  11.100  13.485 -0.0777 -0.5004  0.8586
42747SOL    HW146233  13.251  11.183  13.507 -0.5173 -0.3973 -0.3195
42747SOL    HW246234  13.259  11.037  13.549 -2.2220 -0.4769 -0.1840
42748SOL     OW46235   0.126   3.230   5.247 -0.2809  0.7439 -0.7981
42748SOL    HW146236   0.100   3.317   5.216  0.1522  0.6960 -1.3186
42748SOL    HW246237   0.135   3.179   5.166  0.2118  0.4287 -0.5455
42749SOL     OW46238  14.092   5.502   2.198  0.2613 -0.7673 -0.0476
42749SOL    HW146239  14.038   5.433   2.236 -0.7881 -0.4432 -0.8861
42749SOL    HW246240  14.141   5.458   2.128 -0.1780 -0.7287 -0.3825
42750SOL     OW46241   1.426  10.503   2.725 -0.4030  1.1996  0.4989
42750SOL    HW146242   1.449  10.585   2.682  1.7252 -0.4576 -1.7793
42750SOL    HW246243   1.331  10.496   2.714 -0.1796  1.6699 -2.5912
42751SOL     OW46244  13.317   7.563  11.273 -0.2803 -0.4286 -0.2554
42751SOL    HW146245  13.379   7.524  11.211 -1.4541 -1.0899 -1.0572
42751SOL    HW246246  13.239   7.581  11.220 -0.4990  1.1232  0.5514
42752SOL     OW46247   2.069  11.758   2.653  0.0280 -0.2999 -0.4682
42752SOL    HW146248   2.056  11.829   2.716 -0.0332  0.7913 -1.6839
42752SOL    HW246249   2.164  11.753   2.641  0.0565 -0.6746 -0.1242
42753SOL     OW46250   8.637   3.809   0.740  0.0678  0.0910  0.0568
42753SOL    HW146251   8.676   3.885   0.696  1.8190 -0.4981  0.5194
42753SOL    HW246252   8.690   3.797   0.819 -1.3515 -0.4993  0.9450
42754SOL     OW46253   0.494   3.499  10.296 -0.5080  0.3837  0.4609
42754SOL    HW146254   0.579   3.466  10.267 -0.5370  0.4084  0.3482
42754SOL    HW246255   0.497   3.492  10.391  0.1589  1.6894  0.5543
42755SOL     OW46256   9.960   0.946  13.575 -0.4107  0.0780 -0.4465
42755SOL    HW146257  10.011   0.977  13.650 -1.3744 -0.3276  0.3884
42755SOL    HW246258  10.016   0.880  13.534 -0.6428 -1.0597  1.0206
42756SOL     OW46259   2.886   0.660   0.658  0.1826 -0.1426  0.4577
42756SOL    HW146260   2.844   0.745   0.672 -0.4663 -0.4121  0.1894
42756SOL    HW246261   2.861   0.635   0.569 -1.0617 -1.4045  1.1247
42757SOL     OW46262   3.941   1.009   2.779 -0.3709 -0.2338 -0.0078
42757SOL    HW146263   4.017   0.968   2.737  0.1432  2.1341 -1.5839
42757SOL    HW246264   3.968   1.022   2.870  0.5820 -0.6701 -0.2185
42758SOL     OW46265   2.359   1.487  14.116  0.1636  0.1571 -0.5293
42758SOL    HW146266   2.434   1.464  14.170  0.9985  2.2036 -0.7323
42758SOL    HW246267   2.309   1.406  14.108  0.7373 -0.5420  2.1453
42759SOL     OW46268   0.394  12.436   7.138  0.4674  0.0990  0.0373
42759SOL    HW146269   0.485  12.437   7.168  0.9561  0.4269 -1.3934
42759SOL    HW246270   0.398  12.400   7.050 -0.6015  1.4956 -0.6266
42760SOL     OW46271   4.712   3.037   8.664  0.0868  0.5163 -0.9042
42760SOL    HW146272   4.672   3.124   8.661  0.3633  0.6905  0.1734
42760SOL    HW246273   4.758   3.034   8.748  0.5696 -0.4596 -1.1843
42761SOL     OW46274  11.706   4.681   7.194 -0.2751  0.3570 -0.5167
42761SOL    HW146275  11.650   4.721   7.261  0.6005  0.5967  0.0943
42761SOL    HW246276  11.795   4.689   7.229  0.3890  1.8191 -2.3605
42762SOL     OW46277  10.889   8.974   7.842 -0.0516 -0.1156  0.1841
42762SOL    HW146278  10.834   8.991   7.919 -0.5678  0.0047 -0.2092
42762SOL    HW246279  10.910   9.061   7.808 -0.2096 -0.1800 -0.0801
42763SOL     OW46280   1.567   8.886  10.160  0.4347 -0.0557 -0.0343
42763SOL    HW146281   1.641   8.828  10.139 -0.4934 -1.9225  1.5581
42763SOL    HW246282   1.540   8.922  10.075  2.2103 -0.4893 -0.8397
42764SOL     OW46283   4.839   0.842   7.665 -0.2201  0.3179 -0.0084
42764SOL    HW146284   4.817   0.932   7.644 -0.9100  0.2496  0.4080
42764SOL    HW246285   4.892   0.848   7.744 -0.3893  0.3481  0.1029
42765SOL     OW46286   1.126   8.975   0.834 -0.2764  0.4952  0.7904
42765SOL    HW146287   1.156   9.030   0.906  0.7176 -1.5505  2.0165
42765SOL    HW246288   1.033   8.997   0.824 -0.0033  2.0639  1.5056
42766SOL     OW46289  10.033  12.164   4.565  0.9207  0.0566  0.7339
42766SOL    HW146290   9.940  12.141   4.561  1.2052 -1.3400  1.3693
42766SOL    HW246291  10.034  12.257   4.588 -0.3047  0.7719 -1.7781
42767SOL     OW46292   3.830   0.071  13.379  0.8009 -0.3217  0.1750
42767SOL    HW146293   3.841   0.165  13.394  1.2527 -0.3152 -0.1589
42767SOL    HW246294   3.895   0.051  13.311  2.3823 -1.3207  1.9036
42768SOL     OW46295   6.101   8.548   4.031 -0.2555  0.0400  0.3969
42768SOL    HW146296   6.074   8.608   4.101  1.7895 -0.4455  1.7086
42768SOL    HW246297   6.125   8.467   4.078  1.0304 -0.3537 -0.8565
42769SOL     OW46298   8.582  10.683   9.003  0.1028  0.0294  0.8255
42769SOL    HW146299   8.544  10.659   9.088  0.3562 -0.0561  0.9179
42769SOL    HW246300   8.638  10.758   9.023  0.8576 -0.5339  0.9048
42770SOL     OW46301  13.354  12.210   3.298 -0.6631 -0.0028 -0.3989
42770SOL    HW146302  13.261  12.222   3.279 -0.4600 -0.4880 -1.7965
42770SOL    HW246303  13.396  12.204   3.212  0.4614 -1.2292  0.1943
42771SOL     OW46304   0.820   3.741  12.667 -0.0865  0.1458  0.2171
42771SOL    HW146305   0.770   3.819  12.689 -1.1912 -0.1047 -1.2247
42771SOL    HW246306   0.894   3.773  12.615 -0.1886  0.2905  0.1613
42772SOL     OW46307   5.288  14.057   0.789  0.2381  0.2411  0.1749
42772SOL    HW146308   5.330  14.044   0.874  2.4380  0.2102 -0.8551
42772SOL    HW246309   5.312  14.145   0.763  0.0113  0.0704 -0.6405
42773SOL     OW46310  11.311  10.661  11.348  0.2070  0.3444 -0.1324
42773SOL    HW146311  11.225  10.703  11.346  0.0116 -0.0140  0.5873
42773SOL    HW246312  11.302  10.584  11.293 -0.2100 -0.2095  0.7056
42774SOL     OW46313  11.447   2.102   7.560  0.0673 -0.1064 -0.0957
42774SOL    HW146314  11.492   2.158   7.624  1.7853  1.0879 -2.2042
42774SOL    HW246315  11.358   2.138   7.556  0.0472  0.0421  1.3068
42775SOL     OW46316   3.550   7.472   5.219  0.2439 -0.1706 -0.1675
42775SOL    HW146317   3.606   7.532   5.267  0.1203  1.2843 -1.7481
42775SOL    HW246318   3.528   7.519   5.138  1.8355 -3.0582 -2.4952
42776SOL     OW46319   8.607  12.725   3.392  0.2376  0.0704  0.2223
42776SOL    HW146320   8.656  12.804   3.370  1.1222 -0.8138 -1.0899
42776SOL    HW246321   8.611  12.721   3.488  4.1723 -0.7870  0.2049
42777SOL     OW46322   0.625   5.008  13.178  0.6493 -0.4861 -0.4891
42777SOL    HW146323   0.575   5.036  13.101 -0.4574  1.2757  0.8037
42777SOL    HW246324   0.589   4.922  13.200 -2.1089  0.8604  0.5765
42778SOL     OW46325   3.516  13.536   3.181 -0.2289 -0.1245 -0.3446
42778SOL    HW146326   3.475  13.623   3.188 -0.0635  0.1742 -2.3464
42778SOL    HW246327   3.531  13.509   3.271 -2.1710  1.0328  0.3900
42779SOL     OW46328  12.865   6.888   3.721  0.5866 -0.3952 -0.3811
42779SOL    HW146329  12.831   6.885   3.810 -1.6220  0.7989 -1.1092
42779SOL    HW246330  12.928   6.816   3.717 -0.1786 -1.2619  1.7756
42780SOL     OW46331  10.438  12.302  11.235  0.1058  0.2367 -0.2146
42780SOL    HW146332  10.366  12.302  11.298  1.2253  1.6932  1.1404
42780SOL    HW246333  10.497  12.234  11.265 -0.5128 -0.7302 -1.1341
42781SOL     OW46334  12.073   0.999   6.084  0.0143 -0.4368 -0.6053
42781SOL    HW146335  12.067   0.941   6.008 -2.0694 -1.2880  0.1371
42781SOL    HW246336  11.982   1.018   6.108  0.5853 -0.2995  1.7217
42782SOL     OW46337   1.696   4.490   1.032 -0.4421 -0.1497 -0.2823
42782SOL    HW146338   1.788   4.495   1.056 -0.9377  0.9635  1.6324
42782SOL    HW246339   1.685   4.402   0.996  1.4295 -0.1399 -0.9516
42783SOL     OW46340  11.696   5.843   8.317 -0.1027  0.3492  0.3343
42783SOL    HW146341  11.752   5.908   8.360 -0.3052  0.7431  0.0015
42783SOL    HW246342  11.650   5.892   8.249 -1.7657  0.2805  1.3785
42784SOL     OW46343   3.949   1.530   1.252 -0.0729 -0.2066 -0.2913
42784SOL    HW146344   3.960   1.519   1.157 -0.2885 -1.7066 -0.1638
42784SOL    HW246345   4.006   1.464   1.290 -0.5877 -0.1427  0.6115
42785SOL     OW46346   6.836  12.682   2.793 -0.0997  0.2131  0.1653
42785SOL    HW146347   6.797  12.614   2.848  3.0393 -0.1144  2.2221
42785SOL    HW246348   6.852  12.639   2.709  0.4678 -1.1765  0.9549
42786SOL     OW46349   6.640  10.625   7.664  0.1201  0.1968 -0.5288
42786SOL    HW146350   6.620  10.709   7.707 -0.0056 -0.5324  0.9156
42786SOL    HW246351   6.667  10.649   7.575 -0.4196  1.7241 -0.3120
42787SOL     OW46352   7.562   8.210   1.433 -0.1365  0.3457  0.3481
42787SOL    HW146353   7.543   8.197   1.526 -0.9866  1.5232  0.3724
42787SOL    HW246354   7.653   8.238   1.431  0.1584 -0.5689  0.7396
42788SOL     OW46355   4.307  11.997  11.107  0.0365  0.2920  0.2728
42788SOL    HW146356   4.316  12.031  11.197  2.4059 -0.4024  0.3600
42788SOL    HW246357   4.326  12.073  11.052  1.2231  0.1219  0.4202
42789SOL     OW46358   1.744   2.831  11.010  0.3328  0.2913  0.6357
42789SOL    HW146359   1.821   2.799  10.962  0.0314 -1.7862  1.4240
42789SOL    HW246360   1.753   2.793  11.097 -1.4608  0.1989  0.8097
42790SOL     OW46361   5.936   4.866  12.733 -0.1525 -0.6545 -0.3817
42790SOL    HW146362   6.026   4.875  12.762 -0.4710  2.3406 -0.0191
42790SOL    HW246363   5.937   4.789  12.676  2.5605 -0.8054 -0.2687
42791SOL     OW46364  12.899  12.025   1.547  0.4903 -0.5577  0.1655
42791SOL    HW146365  12.988  11.998   1.525  0.5697  0.3356 -0.7183
42791SOL    HW246366  12.884  12.104   1.494 -0.6927 -0.4743  0.5795
42792SOL     OW46367  13.314  13.985   0.350  0.4828  0.1764 -0.1912
42792SOL    HW146368  13.251  14.052   0.322  0.4453  0.3031  0.1782
42792SOL    HW246369  13.391  14.000   0.296 -0.2803 -0.8772 -1.6528
42793SOL     OW46370  10.686   4.534   1.085 -0.5219 -0.5800 -0.4821
42793SOL    HW146371  10.645   4.598   1.027 -0.3899 -0.2668 -0.2352
42793SOL    HW246372  10.764   4.506   1.039 -0.0318  0.2093 -0.1450
42794SOL     OW46373   8.272   7.632  11.682 -0.0407 -0.2626 -0.2116
42794SOL    HW146374   8.261   7.640  11.588  1.1577  1.5240 -0.2364
42794SOL    HW246375   8.190   7.592  11.712 -0.9041  0.1946 -1.8612
42795SOL     OW46376  11.346   6.933   5.443 -0.2305 -0.4803 -0.7742
42795SOL    HW146377  11.301   6.926   5.527 -1.9480  0.4646 -1.5589
42795SOL    HW246378  11.375   7.024   5.439  1.2983 -0.9279 -0.5359
42796SOL     OW46379   9.668   7.644   5.064  0.1069  0.6807 -0.5541
42796SOL    HW146380   9.602   7.612   5.002  0.5841  0.9699 -1.2273
42796SOL    HW246381   9.680   7.572   5.126 -1.5831  1.0103  0.1976
42797SOL     OW46382  10.972  11.084   8.726  0.0964  0.4235 -0.0909
42797SOL    HW146383  11.049  11.027   8.727  0.2101  0.5756 -0.1167
42797SOL    HW246384  10.993  11.151   8.661 -0.8937 -0.6740 -1.6097
42798SOL     OW46385  14.106   2.672   1.638 -0.0620 -0.1434 -0.0548
42798SOL    HW146386  14.035   2.654   1.700 -0.2244  0.6546 -0.0104
42798SOL    HW246387  14.065   2.659   1.552 -0.3703  0.7069 -0.0388
42799SOL     OW46388   2.099   9.538   7.263  0.0341  0.2694 -0.0020
42799SOL    HW146389   2.112   9.624   7.302  0.7046  1.6628 -3.0026
42799SOL    HW246390   2.018   9.546   7.214 -0.4099 -1.1546  0.4579
42800SOL     OW46391   4.706   9.382   4.866  0.2599  0.1659  0.6661
42800SOL    HW146392   4.611   9.368   4.868  0.1840  0.7487  1.6980
42800SOL    HW246393   4.737   9.326   4.795 -0.7272 -0.8341  0.9969
42801SOL     OW46394   7.885   6.686   8.525  0.0706  0.1131 -0.1036
42801SOL    HW146395   7.974   6.719   8.523 -0.1312  0.8488  1.7204
42801SOL    HW246396   7.830   6.764   8.533 -0.5753 -0.4472  1.3241
42802SOL     OW46397   0.505   5.081   3.840 -0.0116  0.2889  0.3251
42802SOL    HW146398   0.484   4.992   3.810  0.2508  0.8580 -1.7184
42802SOL    HW246399   0.471   5.138   3.771 -1.9206  1.9686  2.4860
42803SOL     OW46400   4.192  10.855   3.022 -0.3267  0.0438 -0.3200
42803SOL    HW146401   4.158  10.907   2.950 -5.4441 -0.6702  1.1898
42803SOL    HW246402   4.216  10.772   2.982 -2.8718 -0.2731 -1.3803
42804SOL     OW46403   7.239  13.625  10.353  0.4018 -0.1460  0.3279
42804SOL    HW146404   7.148  13.651  10.334  0.9169  0.6791 -1.2261
42804SOL    HW246405   7.246  13.629  10.448 -1.1886 -0.2124  0.4765
42805SOL     OW46406   5.480   1.135  10.296 -0.2685  0.3533  0.1177
42805SOL    HW146407   5.486   1.208  10.234  0.0571 -1.2834 -1.9038
42805SOL    HW246408   5.402   1.154  10.348 -1.3902  1.1601 -1.7570
42806SOL     OW46409   5.322  12.649   6.348  0.1420 -0.4328  0.3404
42806SOL    HW146410   5.256  12.618   6.410 -0.5584  0.2531 -0.0360
42806SOL    HW246411   5.303  12.599   6.268  0.8855 -1.1386  0.5937
42807SOL     OW46412   5.091   3.739  13.115  0.1008  0.5878  0.0052
42807SOL    HW146413   5.044   3.656  13.120  1.0038  0.0808  0.2891
42807SOL    HW246414   5.024   3.803  13.092 -0.6083 -0.2161 -0.2172
42808SOL     OW46415   2.158   5.557   3.194  0.0733  0.1594  0.2128
42808SOL    HW146416   2.196   5.572   3.281  0.3481 -0.9931  0.3098
42808SOL    HW246417   2.228   5.582   3.133 -0.1714  1.1125  0.3040
42809SOL     OW46418  13.693   2.573   2.066 -0.6747  0.3632  0.1485
42809SOL    HW146419  13.650   2.491   2.045 -0.0371  0.0665 -0.0083
42809SOL    HW246420  13.622   2.631   2.092 -1.0925 -0.3484  0.6268
42810SOL     OW46421  11.937  11.322  12.630 -0.3550 -0.1917 -0.8284
42810SOL    HW146422  11.891  11.337  12.712 -1.8652 -0.4646 -1.5975
42810SOL    HW246423  11.999  11.395  12.623 -0.3475 -0.0552  0.4317
42811SOL     OW46424   1.210   2.015   7.603 -0.3251 -0.2065  0.0988
42811SOL    HW146425   1.299   1.980   7.607 -0.7611 -1.3846 -0.0817
42811SOL    HW246426   1.181   1.998   7.513 -0.0198  2.0663 -0.5095
42812SOL     OW46427   4.731   2.538   4.580  0.5439  0.4322  0.4063
42812SOL    HW146428   4.754   2.450   4.611 -1.0098  0.0612  0.5990
42812SOL    HW246429   4.692   2.522   4.493 -1.3849  0.6944  1.1728
42813SOL     OW46430   9.773   7.195   3.224  0.2799 -0.3827 -0.2646
42813SOL    HW146431   9.682   7.220   3.208  0.4783 -0.1027 -0.9685
42813SOL    HW246432   9.813   7.274   3.262  0.2897 -0.4305 -0.1746
42814SOL     OW46433  13.890   4.531  11.617 -0.0708 -0.1900  0.3437
42814SOL    HW146434  13.800   4.564  11.619 -0.4229 -1.1696  1.4872
42814SOL    HW246435  13.914   4.535  11.524 -1.7955 -1.2018 -0.2008
42815SOL     OW46436   0.202  12.782  13.097 -0.5012  0.1418 -0.2536
42815SOL    HW146437   0.272  12.726  13.063 -0.7062  0.8253 -1.8814
42815SOL    HW246438   0.232  12.807  13.185  0.8925 -0.2599 -0.5900
42816SOL     OW46439   8.221   0.782   6.881 -0.1446  0.2446 -0.2655
42816SOL    HW146440   8.265   0.729   6.947  0.5159 -1.3812 -1.9357
42816SOL    HW246441   8.138   0.807   6.923 -0.2513 -1.6556  0.7955
42817SOL     OW46442   9.399   3.986   1.566  0.0468  0.0823 -0.4755
42817SOL    HW146443   9.409   3.903   1.518  3.2889 -0.4139  0.8284
42817SOL    HW246444   9.453   4.048   1.517  1.2429  0.2321  0.9654
42818SOL     OW46445  13.751   0.478   1.372 -0.1181  0.0674 -0.1995
42818SOL    HW146446  13.785   0.401   1.416 -0.0430 -0.6394 -1.4521
42818SOL    HW246447  13.767   0.462   1.279 -0.0763  1.6053 -0.4832
42819SOL     OW46448   0.144   3.959   3.285  0.4035  0.0346 -0.2504
42819SOL    HW146449   0.236   3.959   3.257  0.0777  1.2588 -1.4240
42819SOL    HW246450   0.095   3.934   3.206 -0.3507  0.6151  0.0213
42820SOL     OW46451   9.762   1.190  11.244 -0.7398  0.0435 -0.1661
42820SOL    HW146452   9.680   1.239  11.244  0.6648  2.5670  0.8413
42820SOL    HW246453   9.779   1.171  11.336 -0.1334 -0.3490 -0.3507
42821SOL     OW46454   8.274   8.421   9.461  0.2862 -0.7779  0.1220
42821SOL    HW146455   8.186   8.413   9.423  0.3478 -1.0291  0.0353
42821SOL    HW246456   8.307   8.332   9.465  1.0519 -0.5686 -1.0624
42822SOL     OW46457   4.240   2.730  13.038  0.4714  0.5886 -0.5294
42822SOL    HW146458   4.303   2.720  13.109 -0.2100  0.0838  0.0153
42822SOL    HW246459   4.270   2.669  12.970 -0.0008 -0.4354  0.1530
42823SOL     OW46460   6.691   8.446   1.396  0.4518 -0.3451 -0.5943
42823SOL    HW146461   6.724   8.535   1.410 -0.3882 -0.2849  1.2837
42823SOL    HW246462   6.765   8.390   1.418  0.6180 -0.1332 -0.6063
42824SOL     OW46463  11.504   1.764   8.747  0.4272  0.5564 -0.3990
42824SOL    HW146464  11.591   1.729   8.730 -0.5910 -1.8445 -1.2198
42824SOL    HW246465  11.471   1.713   8.821 -1.7406 -1.7170 -2.6744
42825SOL     OW46466   8.099  14.123  11.808  0.6094  0.4641  0.5154
42825SOL    HW146467   8.026  14.144  11.865 -0.2044 -1.7541  0.3619
42825SOL    HW246468   8.092  14.029  11.792  0.5915  0.9717 -3.4639
42826SOL     OW46469  11.654   6.716   2.878  0.0428  0.0101  0.0949
42826SOL    HW146470  11.691   6.645   2.824  1.3173  0.1800  0.6963
42826SOL    HW246471  11.603   6.670   2.945 -0.2030 -0.2770 -0.2828
42827SOL     OW46472   3.108   8.310  13.874 -0.0471 -0.5369 -0.0613
42827SOL    HW146473   3.050   8.383  13.894  0.7516 -0.5707  2.8739
42827SOL    HW246474   3.051   8.233  13.879 -0.3660 -0.3241 -0.4046
42828SOL     OW46475   4.509   0.895   2.554  0.1509 -0.1355 -0.6584
42828SOL    HW146476   4.551   0.810   2.562 -0.9991 -0.7770 -1.2185
42828SOL    HW246477   4.550   0.948   2.623  1.6329 -0.7977 -0.9812
42829SOL     OW46478   9.850   1.650   7.792  1.1130 -0.2120 -0.1725
42829SOL    HW146479   9.787   1.579   7.782  1.4214 -0.4911 -0.1520
42829SOL    HW246480   9.819   1.699   7.868  0.4116  0.1908 -0.7109
42830SOL     OW46481   7.443   5.151   2.503 -0.7942 -0.1876  0.4545
42830SOL    HW146482   7.412   5.177   2.417  0.6949 -1.1272 -0.4119
42830SOL    HW246483   7.364   5.128   2.551 -1.5870 -0.6264 -1.0014
42831SOL     OW46484   2.429  13.002  11.833  0.4240 -0.1981  0.3378
42831SOL    HW146485   2.354  12.968  11.881  0.7507  1.1170  1.8768
42831SOL    HW246486   2.505  12.963  11.876  0.6990  0.4390  0.4445
42832SOL     OW46487  12.463   8.029  11.354 -0.0652 -0.1064 -0.3523
42832SOL    HW146488  12.530   7.975  11.311  0.0057  0.0855 -0.4859
42832SOL    HW246489  12.442   7.982  11.434 -0.1326 -0.4225 -0.5530
42833SOL     OW46490   9.463   8.585   5.893  0.2050 -0.2660 -0.4027
42833SOL    HW146491   9.491   8.509   5.944  0.0685  0.8122  1.3583
42833SOL    HW246492   9.527   8.652   5.913 -1.0397  0.8339  0.0500
42834SOL     OW46493  10.895   1.495   5.687  0.1613  0.2209  0.5014
42834SOL    HW146494  10.933   1.560   5.746  0.2439  1.3040 -0.6975
42834SOL    HW246495  10.801   1.513   5.687  0.0629 -0.2627  0.8607
42835SOL     OW46496   8.557   5.049  10.517 -0.2282  0.0292 -0.4459
42835SOL    HW146497   8.494   5.021  10.584  0.1514 -0.4944 -0.3089
42835SOL    HW246498   8.503   5.095  10.452 -0.5857  0.6324  0.2607
42836SOL     OW46499   7.585   8.969   4.591  0.1968 -0.2677 -0.0822
42836SOL    HW146500   7.537   9.024   4.529  0.6794 -0.6095 -0.7743
42836SOL    HW246501   7.643   8.916   4.536  1.2239 -0.0000  0.7163
42837SOL     OW46502   7.064   8.863   7.368  0.1167  0.1464  0.0390
42837SOL    HW146503   6.984   8.897   7.329  0.9515  0.4258 -1.5227
42837SOL    HW246504   7.119   8.940   7.381  0.6896 -0.2067 -0.2643
42838SOL     OW46505   2.049   0.876  12.872 -0.2854 -1.1780 -0.4141
42838SOL    HW146506   2.114   0.927  12.824 -0.2592 -0.9638 -0.1569
42838SOL    HW246507   2.097   0.800  12.904 -0.5884 -1.9618 -1.7654
42839SOL     OW46508   5.303   2.349  11.454 -0.1802  0.1136  0.1290
42839SOL    HW146509   5.212   2.323  11.436 -0.1164  0.5075 -0.8333
42839SOL    HW246510   5.355   2.288  11.402  0.0348  0.9502 -0.6649
42840SOL     OW46511  12.933   0.230   8.007 -0.5494 -0.0877  0.4189
42840SOL    HW146512  12.899   0.141   7.996 -0.8158 -0.1065  1.3656
42840SOL    HW246513  12.855   0.283   8.024 -0.2106  0.0214  1.6760
42841SOL     OW46514   3.071   9.597   7.819 -0.6101 -1.0879 -0.1210
42841SOL    HW146515   3.010   9.527   7.797  0.0791 -2.2930  1.6105
42841SOL    HW246516   3.137   9.556   7.874  0.7522  0.5838 -0.3916
42842SOL     OW46517   3.993   1.261   2.397  0.2362 -0.2017  0.4624
42842SOL    HW146518   3.936   1.194   2.435 -2.5758  3.0722  2.6373
42842SOL    HW246519   4.047   1.290   2.470  0.8634  0.4402 -0.2469
42843SOL     OW46520   7.662   5.572   8.690 -0.3295  0.0434  0.0090
42843SOL    HW146521   7.731   5.543   8.631 -1.1154 -0.2045 -0.7981
42843SOL    HW246522   7.709   5.613   8.763  0.6426  1.7379 -1.4758
42844SOL     OW46523   6.698  12.887   0.070 -0.1373 -0.0748 -0.3469
42844SOL    HW146524   6.693  12.795   0.093 -0.2072  0.0035 -0.0428
42844SOL    HW246525   6.734  12.930   0.148 -0.4251  0.1982 -0.3597
42845SOL     OW46526   9.925   2.696   5.400  0.9207 -0.2411 -0.6358
42845SOL    HW146527   9.920   2.602   5.419 -0.2616 -0.0122  0.2972
42845SOL    HW246528   9.981   2.732   5.470 -2.0547  0.3429  1.6215
42846SOL     OW46529   6.608   1.150  10.599 -0.4764 -0.1618 -0.4050
42846SOL    HW146530   6.687   1.121  10.645 -0.0798  1.0402 -0.3078
42846SOL    HW246531   6.636   1.159  10.508 -1.0753 -1.8282 -0.7972
42847SOL     OW46532   2.064   1.356   7.255 -0.6753 -0.2452 -0.1579
42847SOL    HW146533   2.010   1.279   7.273 -1.1303  0.2441  0.6530
42847SOL    HW246534   2.063   1.405   7.338 -0.1309  0.4663 -0.5660
42848SOL     OW46535   3.956   4.124   3.438  0.5856 -0.8610 -0.2857
42848SOL    HW146536   3.981   4.162   3.522  0.1467 -1.1117 -0.0421
42848SOL    HW246537   3.872   4.166   3.417  1.1462 -0.0812 -1.0615
42849SOL     OW46538   3.385   9.671  12.678 -0.1073  0.1585  0.5122
42849SOL    HW146539   3.430   9.755  12.669 -2.2939  1.3668  0.0983
42849SOL    HW246540   3.393   9.630  12.592  0.4710  0.1921  0.5456
42850SOL     OW46541   1.253   4.311   5.486  0.7089 -0.5636  0.1155
42850SOL    HW146542   1.315   4.307   5.414 -0.6603 -0.7341 -1.1133
42850SOL    HW246543   1.201   4.231   5.478 -1.6672  0.9444 -0.8656
42851SOL     OW46544  13.115   2.683  12.992  0.2433  0.6937  0.0614
42851SOL    HW146545  13.038   2.654  13.042  0.7464 -1.7689 -0.4536
42851SOL    HW246546  13.078   2.731  12.918 -0.6798  1.3433  0.9190
42852SOL     OW46547  10.748   0.908   8.780  0.8098 -0.0448 -0.1610
42852SOL    HW146548  10.808   0.972   8.819  0.8153  0.1728 -0.5184
42852SOL    HW246549  10.661   0.941   8.803  0.7772  0.7709 -1.3672
42853SOL     OW46550   8.419   4.140  10.945  0.1528  0.2338 -0.1391
42853SOL    HW146551   8.397   4.111  10.857 -0.1839 -1.8122  0.5547
42853SOL    HW246552   8.510   4.114  10.957  0.3857  1.0628 -0.0926
42854SOL     OW46553   3.092  13.864  13.161 -0.3093 -0.5062  0.5429
42854SOL    HW146554   3.117  13.940  13.212 -2.0544  0.9143 -0.5836
42854SOL    HW246555   2.998  13.855  13.176 -1.3570  1.1075 -3.6033
42855SOL     OW46556   9.541   9.126   4.270 -0.3684  0.5345  0.2020
42855SOL    HW146557   9.618   9.088   4.312  0.6105  1.0808 -1.0253
42855SOL    HW246558   9.534   9.080   4.186 -2.5918 -0.9026  1.0877
42856SOL     OW46559  12.469  13.952   2.590  0.1338  0.6356 -0.1474
42856SOL    HW146560  12.464  13.937   2.685  0.6114  2.5558  0.2098
42856SOL    HW246561  12.559  13.929   2.567  0.0777  0.3662 -0.1018
42857SOL     OW46562   7.296   2.815   0.294 -0.2516  0.1445 -0.1439
42857SOL    HW146563   7.350   2.893   0.299  0.6799 -0.4577 -0.3944
42857SOL    HW246564   7.264   2.801   0.383  1.2384 -0.3087  0.3568
42858SOL     OW46565   3.488   7.041   1.409 -0.2546 -0.3278  0.1833
42858SOL    HW146566   3.570   7.087   1.387  0.3303 -0.4277  1.9606
42858SOL    HW246567   3.422   7.110   1.412  0.6063  0.5192  2.7897
42859SOL     OW46568   4.646   6.818   1.718  0.1545 -0.1291 -0.5673
42859SOL    HW146569   4.595   6.840   1.795  2.6527  4.5047  0.1450
42859SOL    HW246570   4.608   6.873   1.648  0.1327 -1.6057 -1.7668
42860SOL     OW46571   3.948   5.586   5.788  0.9646 -0.4139  0.3175
42860SOL    HW146572   3.959   5.609   5.880  2.4349  0.2621  0.0090
42860SOL    HW246573   3.941   5.491   5.787 -0.8797 -0.3176  1.2681
42861SOL     OW46574   8.605   9.019  13.583  0.0662 -0.3362 -0.2083
42861SOL    HW146575   8.517   9.055  13.573  0.4120  0.0517 -2.2385
42861SOL    HW246576   8.593   8.925  13.577 -0.2506 -0.3035 -0.1152
42862SOL     OW46577   4.797   1.198  13.718  0.0866 -0.1246  0.1164
42862SOL    HW146578   4.704   1.192  13.699 -0.1412  1.9078  0.4074
42862SOL    HW246579   4.802   1.248  13.800  1.4368  0.5867 -0.3677
42863SOL     OW46580  11.676   1.493   0.746  0.1907 -0.4245  0.2526
42863SOL    HW146581  11.687   1.523   0.836  2.8024  1.2887 -0.5210
42863SOL    HW246582  11.610   1.552   0.709 -0.2008 -0.5312  0.7699
42864SOL     OW46583   4.319   4.168   2.347  0.1214  0.1576  0.2994
42864SOL    HW146584   4.402   4.121   2.351  0.5066  0.7861 -0.2298
42864SOL    HW246585   4.272   4.128   2.274 -0.4122 -0.7656  1.1124
42865SOL     OW46586   1.390  13.500  12.665  0.2761  0.5787 -1.0524
42865SOL    HW146587   1.372  13.593  12.657 -0.6691  0.5228  0.2301
42865SOL    HW246588   1.337  13.459  12.596 -2.6233  0.6667  0.9441
42866SOL     OW46589  11.143   6.741  10.284 -0.1962 -0.2756  0.9193
42866SOL    HW146590  11.077   6.724  10.350 -1.2128 -1.3592 -0.3175
42866SOL    HW246591  11.099   6.795  10.219  0.5142  0.0400  0.6946
42867SOL     OW46592   2.904   2.021   6.980 -0.5992  0.3130 -0.1466
42867SOL    HW146593   2.919   2.108   6.945 -0.3128 -0.1279 -1.1802
42867SOL    HW246594   2.905   1.964   6.902  1.2841 -0.8718  0.6544
42868SOL     OW46595  10.889  14.151   6.168 -0.4641  0.2755 -0.0408
42868SOL    HW146596  10.924  14.062   6.163  1.6680  1.1268 -1.5823
42868SOL    HW246597  10.813  14.150   6.111  0.3749 -0.2470 -1.1930
42869SOL     OW46598   1.960   6.775  10.818  0.1859  0.4592 -0.6128
42869SOL    HW146599   2.035   6.831  10.839  0.1513  0.5089 -0.6183
42869SOL    HW246600   1.982   6.734  10.734  0.2374  0.4189 -0.5790
42870SOL     OW46601   5.566   5.398   7.693 -0.2466 -0.0935  0.4682
42870SOL    HW146602   5.521   5.343   7.757 -1.8316  0.1207 -0.3944
42870SOL    HW246603   5.636   5.441   7.742  0.8203 -2.5649  1.2369
42871SOL     OW46604   0.017  12.961   6.087 -0.0722  0.3929 -0.4361
42871SOL    HW146605  -0.052  12.942   6.023  0.2529 -3.0392  0.0434
42871SOL    HW246606   0.099  12.947   6.039  0.3172  2.3749 -0.4316
42872SOL     OW46607   0.332  13.515   6.447  0.4866  0.3289 -0.4100
42872SOL    HW146608   0.417  13.473   6.434 -0.1297 -0.3983 -2.4846
42872SOL    HW246609   0.339  13.599   6.401  0.0166  0.1792 -0.7594
42873SOL     OW46610   4.548   1.110  13.598 -0.0744  0.0559  0.2126
42873SOL    HW146611   4.566   1.019  13.623  0.6597  0.3969  0.9864
42873SOL    HW246612   4.504   1.103  13.513 -0.7557 -1.0595  0.6208
42874SOL     OW46613   7.348  10.710  10.303  0.3922  0.4132  0.0579
42874SOL    HW146614   7.287  10.711  10.377  0.1889  1.4549 -0.1052
42874SOL    HW246615   7.291  10.719  10.226  0.6643  0.1932 -0.1679
42875SOL     OW46616   6.907  13.868  10.915 -0.1144  0.0203  0.3265
42875SOL    HW146617   6.948  13.940  10.962 -0.3312 -1.0843  2.2972
42875SOL    HW246618   6.977  13.834  10.858 -0.2827  2.3094 -1.3755
42876SOL     OW46619   2.852   1.384   5.304  0.2853  0.6592  0.4174
42876SOL    HW146620   2.903   1.346   5.232 -0.1214  0.5138  0.2001
42876SOL    HW246621   2.842   1.312   5.367  2.4187  1.3547  1.6141
42877SOL     OW46622  13.169   8.644   8.408 -0.4312  0.0734  0.4231
42877SOL    HW146623  13.193   8.627   8.500  0.2181  2.4795  0.7583
42877SOL    HW246624  13.074   8.655   8.410 -0.4622 -0.2112  0.7486
42878SOL     OW46625  12.644  10.088  12.367  0.2391  0.1268  0.0435
42878SOL    HW146626  12.568  10.030  12.375  0.5292 -0.1657  0.7360
42878SOL    HW246627  12.719  10.029  12.363  0.5601  0.4440  1.0267
42879SOL     OW46628   6.479  12.797   3.004 -0.5823  0.6733  0.2773
42879SOL    HW146629   6.445  12.817   3.092 -0.0960  2.0474  0.1782
42879SOL    HW246630   6.563  12.841   3.000 -0.7927  1.0065 -1.0341
42880SOL     OW46631   0.711   6.648   4.600 -0.1009 -0.5735  0.7789
42880SOL    HW146632   0.726   6.741   4.622 -0.5510 -0.5319  0.9161
42880SOL    HW246633   0.722   6.603   4.684 -0.8544 -0.5278  0.9085
42881SOL     OW46634   5.151   0.764  12.298 -0.1457  0.5765 -0.1589
42881SOL    HW146635   5.230   0.717  12.325  0.9334  1.9625 -0.7494
42881SOL    HW246636   5.104   0.782  12.380  0.9243  1.0367  0.3709
42882SOL     OW46637   8.591  12.381   1.957  0.6196  0.8769  0.2832
42882SOL    HW146638   8.583  12.303   1.902 -1.0464  2.4291 -1.8688
42882SOL    HW246639   8.516  12.375   2.017  0.9558  0.4391  0.6621
42883SOL     OW46640   6.651   9.510   1.508  0.2601 -0.1556  0.5285
42883SOL    HW146641   6.557   9.524   1.518  0.2790  1.3962 -1.0922
42883SOL    HW246642   6.675   9.556   1.427  2.4518 -0.3496  0.9848
42884SOL     OW46643  13.897  10.388   0.289  0.3894  0.5797  0.2969
42884SOL    HW146644  13.901  10.449   0.215  1.9493 -0.5480 -0.6306
42884SOL    HW246645  13.857  10.309   0.253  0.8779  0.1216  0.7427
42885SOL     OW46646   4.914   2.756   4.550 -0.1117  0.0200 -0.5192
42885SOL    HW146647   4.858   2.679   4.556 -1.3127  0.9641  1.7337
42885SOL    HW246648   4.865   2.818   4.496  0.2706 -0.3027 -1.2523
42886SOL     OW46649   1.232   6.965  12.936  0.7160  0.5168  0.3801
42886SOL    HW146650   1.262   6.922  13.016  1.7479  2.0495  0.8541
42886SOL    HW246651   1.154   6.916  12.911  1.9146 -1.7285  0.7644
42887SOL     OW46652  10.009   7.602   1.409 -0.1785  0.0220 -0.2616
42887SOL    HW146653  10.019   7.573   1.318 -3.3029  0.2328 -0.7663
42887SOL    HW246654   9.989   7.521   1.457  1.8188 -0.1464  0.3817
42888SOL     OW46655   7.774  12.526   5.038  0.5359  0.1397 -0.4082
42888SOL    HW146656   7.770  12.461   4.968 -0.4512  0.0361 -0.2733
42888SOL    HW246657   7.742  12.480   5.115  0.8634  0.4818 -0.0659
42889SOL     OW46658  10.622  12.401   9.077 -0.5770  0.0099 -0.1779
42889SOL    HW146659  10.564  12.382   9.150 -2.1636 -0.9430 -1.6095
42889SOL    HW246660  10.633  12.317   9.032  1.3909  0.3126 -0.3260
42890SOL     OW46661  13.596   0.719   5.661  0.1048  0.3788  0.1036
42890SOL    HW146662  13.511   0.764   5.659  0.1730  0.5053 -0.0328
42890SOL    HW246663  13.623   0.717   5.569  1.1146  2.0063  0.3163
42891SOL     OW46664   5.081   2.799   4.939 -0.0948 -0.2434 -0.3119
42891SOL    HW146665   5.125   2.721   4.973 -0.7001 -0.4276  0.0617
42891SOL    HW246666   5.009   2.764   4.886 -1.1737  0.0620  0.9187
42892SOL     OW46667   9.621   8.381  12.013 -0.6543 -0.8281  0.2578
42892SOL    HW146668   9.682   8.448  12.044  1.7629 -1.9596 -1.6487
42892SOL    HW246669   9.570   8.425  11.945  0.2724 -0.6587 -0.3431
42893SOL     OW46670   8.909   2.682   1.267 -0.6461 -0.1237  0.8250
42893SOL    HW146671   8.864   2.604   1.233  1.7199 -1.5858  0.8811
42893SOL    HW246672   8.896   2.678   1.362 -0.1075 -0.7405  0.8759
42894SOL     OW46673   3.093   4.043   0.515 -0.0518  0.0691 -0.0863
42894SOL    HW146674   3.029   4.115   0.519 -0.6933 -0.3775 -1.6047
42894SOL    HW246675   3.175   4.086   0.492 -0.4068  0.3608 -0.8710
42895SOL     OW46676   3.962   1.636   9.567  0.2949  0.2578  0.5364
42895SOL    HW146677   4.005   1.567   9.517 -0.1688  1.0293 -1.0051
42895SOL    HW246678   3.869   1.611   9.568  0.4235 -0.2393  1.8791
42896SOL     OW46679  11.571   0.732  14.000 -0.2835 -0.2119 -0.3966
42896SOL    HW146680  11.592   0.649  14.042 -1.1342  0.1565  0.8305
42896SOL    HW246681  11.588   0.717  13.907  0.9156 -1.3087 -0.0372
42897SOL     OW46682  11.828  10.721  10.290  0.2681 -0.1900 -0.4747
42897SOL    HW146683  11.742  10.707  10.250  0.3676  0.0592 -0.7802
42897SOL    HW246684  11.810  10.723  10.384 -0.0225 -0.4028 -0.5241
42898SOL     OW46685   9.405   8.259   8.711 -0.4528 -0.0765 -0.5140
42898SOL    HW146686   9.444   8.294   8.791 -2.1153  0.6062  0.0437
42898SOL    HW246687   9.474   8.265   8.646  0.3266  1.2047  0.3897
42899SOL     OW46688  10.196   1.315   9.901 -0.7528 -0.1705  0.0187
42899SOL    HW146689  10.231   1.399   9.928 -0.7680 -0.3512  0.6036
42899SOL    HW246690  10.273   1.263   9.879 -0.6932 -0.2930  0.5072
42900SOL     OW46691  10.486   9.331   6.215  0.6544 -0.0661 -0.0109
42900SOL    HW146692  10.459   9.250   6.257 -1.7157  0.6106 -0.0897
42900SOL    HW246693  10.434   9.335   6.134  0.8159  1.4437 -0.0757
42901SOL     OW46694   0.655  13.714   1.146  0.0603 -0.0776 -0.1810
42901SOL    HW146695   0.591  13.777   1.177 -0.0627 -1.5612  2.8933
42901SOL    HW246696   0.731  13.767   1.123 -0.7152  1.3451  0.3914
42902SOL     OW46697   5.724   0.358  12.979  0.1358  0.2002 -0.3527
42902SOL    HW146698   5.689   0.289  13.035 -1.4814  0.3217 -1.1622
42902SOL    HW246699   5.803   0.320  12.941 -0.2344 -0.8580 -0.0814
42903SOL     OW46700  13.402   8.037   2.222 -0.2773 -0.0215  0.0084
42903SOL    HW146701  13.380   8.037   2.129  0.6586  0.1139 -0.2253
42903SOL    HW246702  13.337   8.095   2.262 -1.5195 -1.1347 -0.3373
42904SOL     OW46703   8.636   5.054  14.141 -0.1220  0.3984 -0.0192
42904SOL    HW146704   8.544   5.070  14.120 -0.5612  0.9266  2.0928
42904SOL    HW246705   8.682   5.133  14.111 -0.0930 -0.4059 -2.2755
42905SOL     OW46706   3.139   6.521   6.933 -0.2020 -0.4867  0.5012
42905SOL    HW146707   3.215   6.556   6.979 -0.1594  0.2206 -0.0803
42905SOL    HW246708   3.064   6.563   6.974 -0.2070 -0.3878  0.3934
42906SOL     OW46709  13.341  13.747   8.802  0.6566 -0.2338  0.5747
42906SOL    HW146710  13.414  13.708   8.753  1.0174 -0.3567  1.1946
42906SOL    HW246711  13.357  13.841   8.799  0.8639 -0.2630  0.7421
42907SOL     OW46712   2.820   2.120   9.588 -0.3477 -0.2267  0.0876
42907SOL    HW146713   2.749   2.181   9.608 -0.3022  0.2961 -1.2965
42907SOL    HW246714   2.778   2.051   9.537 -0.0072 -0.3342 -0.0463
42908SOL     OW46715   7.542   2.457   4.022  0.4582 -0.2134  0.5468
42908SOL    HW146716   7.588   2.382   3.985 -0.7406 -0.7616  0.1092
42908SOL    HW246717   7.516   2.429   4.110 -0.1696 -0.4114  0.3081
42909SOL     OW46718   1.338   7.540   7.144  0.0122 -0.4573  0.1113
42909SOL    HW146719   1.349   7.485   7.066  0.8141  0.0581 -0.1454
42909SOL    HW246720   1.409   7.513   7.202 -0.5187 -0.7645  0.6362
42910SOL     OW46721   8.997   7.147   4.097  0.0540  0.1855 -0.1192
42910SOL    HW146722   9.019   7.058   4.123 -0.7996  0.5249  1.9646
42910SOL    HW246723   8.927   7.173   4.157  1.4894  2.8742  0.5302
42911SOL     OW46724  11.582   2.831  12.463 -0.0438  0.5393 -0.3893
42911SOL    HW146725  11.586   2.739  12.436  1.0064  0.2675  0.6086
42911SOL    HW246726  11.490   2.847  12.479 -0.2917 -0.2118 -0.9793
42912SOL     OW46727   2.643   2.275   2.853 -0.0405  0.3902 -0.1921
42912SOL    HW146728   2.676   2.246   2.938 -0.3683 -0.9744 -0.4950
42912SOL    HW246729   2.721   2.284   2.799  0.0688 -0.1454 -0.1339
42913SOL     OW46730   3.644   6.144  11.353 -0.2518  0.4021 -0.1498
42913SOL    HW146731   3.703   6.100  11.291  0.6974 -0.2150  1.1281
42913SOL    HW246732   3.697   6.214  11.390 -0.9012  0.9376 -0.2185
42914SOL     OW46733   4.811  11.858   1.844 -0.7070 -0.0755  0.0461
42914SOL    HW146734   4.906  11.870   1.843 -0.6612 -0.3371 -1.5247
42914SOL    HW246735   4.799  11.766   1.866 -0.5244 -0.3414 -0.9012
42915SOL     OW46736   4.467  12.976   6.817 -0.2779 -0.0054  0.2204
42915SOL    HW146737   4.481  12.977   6.912 -1.3798 -0.7391  0.4075
42915SOL    HW246738   4.473  13.068   6.791 -0.3423  0.2427  1.0522
42916SOL     OW46739   7.137  10.146   7.392 -0.3590 -0.7996 -0.6973
42916SOL    HW146740   7.107  10.170   7.480 -0.5247  1.5719 -1.3325
42916SOL    HW246741   7.220  10.194   7.381  0.3761 -2.1642 -1.3430
42917SOL     OW46742   3.406  12.404   8.522 -0.5520  0.0588  0.2005
42917SOL    HW146743   3.420  12.489   8.480 -0.1326  0.3024  0.8147
42917SOL    HW246744   3.439  12.340   8.459 -1.0452  0.3378 -0.3466
42918SOL     OW46745   1.248   4.833   9.074 -0.1514  0.1251 -0.2787
42918SOL    HW146746   1.172   4.877   9.034  0.4008  0.1427 -1.3538
42918SOL    HW246747   1.233   4.740   9.057 -1.1835 -0.1331  1.7606
42919SOL     OW46748   2.256   2.440   0.371 -0.6455  0.7476  0.4770
42919SOL    HW146749   2.202   2.519   0.370 -1.6476  0.1626 -2.2761
42919SOL    HW246750   2.194   2.369   0.388 -0.9413  0.0652 -2.7325
42920SOL     OW46751   9.847   1.697   4.640 -0.3246 -0.1635 -0.1428
42920SOL    HW146752   9.854   1.621   4.583 -1.4337  0.3428 -0.9910
42920SOL    HW246753   9.823   1.769   4.582  0.7662  0.8778  0.6210
42921SOL     OW46754  11.037  11.377   3.658 -1.0722 -0.2465  0.5796
42921SOL    HW146755  11.085  11.458   3.642 -1.3416  0.0910  1.3953
42921SOL    HW246756  11.044  11.365   3.753 -2.3239 -0.3606  0.6702
42922SOL     OW46757   8.722   3.176   8.724  0.1802  0.8144 -0.0334
42922SOL    HW146758   8.808   3.177   8.681  0.1837 -1.1195 -0.1482
42922SOL    HW246759   8.661   3.207   8.656  0.4632 -0.2666 -0.8073
42923SOL     OW46760   9.800  12.267   7.333  0.0364  0.0585 -0.4708
42923SOL    HW146761   9.729  12.242   7.392  0.6767  1.4165  0.9520
42923SOL    HW246762   9.855  12.325   7.385  0.9007  0.9413 -2.2719
42924SOL     OW46763   3.834   9.677  13.877  0.2616  0.1835  0.0229
42924SOL    HW146764   3.752   9.724  13.859  0.2973 -0.1412 -1.0946
42924SOL    HW246765   3.874   9.724  13.950 -0.1832  1.2935 -0.4312
42925SOL     OW46766   3.356   7.248  12.216 -0.0722 -0.3675  0.5566
42925SOL    HW146767   3.312   7.212  12.139 -2.7316  3.1115  0.2131
42925SOL    HW246768   3.443   7.274  12.184 -0.0796 -1.4884 -0.4693
42926SOL     OW46769   5.809   2.748  11.053 -0.0073  0.1145  0.0611
42926SOL    HW146770   5.745   2.805  11.012 -1.0112 -1.1131 -0.1312
42926SOL    HW246771   5.787   2.750  11.146 -0.4129 -0.3951 -0.0193
42927SOL     OW46772  13.645   0.520   6.016  0.2630 -0.1342  0.0453
42927SOL    HW146773  13.552   0.527   6.037  0.3839  1.5301  0.1309
42927SOL    HW246774  13.652   0.438   5.966 -1.0930 -0.7239  0.7731
42928SOL     OW46775   1.425   2.841   1.951  0.8904 -0.3603  0.0332
42928SOL    HW146776   1.436   2.793   1.869  0.1951 -0.6419  0.1057
42928SOL    HW246777   1.470   2.787   2.016  0.1697 -0.8786  0.1025
42929SOL     OW46778   0.633   1.113   1.749  0.3795 -0.7090 -0.5668
42929SOL    HW146779   0.654   1.038   1.693 -0.0646 -1.3011  0.0382
42929SOL    HW246780   0.541   1.101   1.771  0.8031 -1.0741  1.1344
42930SOL     OW46781  10.089  12.746   6.326  0.1400  0.0916  0.4131
42930SOL    HW146782  10.116  12.822   6.275 -1.4960  1.0335  0.8849
42930SOL    HW246783  10.147  12.675   6.296  0.6916  1.1415 -1.1288
42931SOL     OW46784   8.615  10.193   0.740 -0.1832 -0.5988  0.2852
42931SOL    HW146785   8.699  10.239   0.732 -0.6902  0.5084  1.0622
42931SOL    HW246786   8.586  10.180   0.650  0.5102 -0.3997  0.0262
42932SOL     OW46787   2.831  13.358   1.671 -0.5973 -0.4818 -0.2847
42932SOL    HW146788   2.792  13.354   1.758 -0.7130 -1.8377 -0.3634
42932SOL    HW246789   2.768  13.407   1.618 -0.7477 -0.0556  0.2842
42933SOL     OW46790   9.219   7.296   3.995 -0.1760  0.2910  0.4802
42933SOL    HW146791   9.143   7.251   4.033  0.1494 -1.5551 -0.8991
42933SOL    HW246792   9.227   7.259   3.907  0.4615  2.7481 -0.5771
42934SOL     OW46793   9.050   4.056   5.031 -0.1268 -0.4838 -0.0206
42934SOL    HW146794   9.057   4.127   4.968 -1.6803 -0.5933 -0.3709
42934SOL    HW246795   9.074   3.978   4.981 -1.3821 -0.5745 -0.5286
42935SOL     OW46796   6.922  13.833   2.905  0.2060  0.3608 -0.1544
42935SOL    HW146797   6.912  13.755   2.960  2.0857 -0.6862 -1.1694
42935SOL    HW246798   6.926  13.906   2.966 -0.9215 -0.3991  0.8703
42936SOL     OW46799   8.305   6.876   2.286 -0.4576 -0.3804 -0.1100
42936SOL    HW146800   8.396   6.870   2.257 -0.4766  0.2314 -0.3152
42936SOL    HW246801   8.254   6.843   2.212 -0.4949  0.9907 -0.7347
42937SOL     OW46802   6.369   0.998  10.629  0.5431 -0.2140  0.1736
42937SOL    HW146803   6.430   1.066  10.598 -1.5176  1.4596 -0.4089
42937SOL    HW246804   6.382   0.997  10.724  0.7259  0.9100  0.1785
42938SOL     OW46805   3.269   6.556  11.188  0.0411 -0.0710  0.7630
42938SOL    HW146806   3.303   6.644  11.173 -1.4231  0.4966  0.5967
42938SOL    HW246807   3.297   6.535  11.277 -0.6589  1.1163  1.3028
42939SOL     OW46808  11.734   7.143  11.979 -0.4359  0.4955 -0.2589
42939SOL    HW146809  11.741   7.084  11.904  1.1269  0.0998  0.1465
42939SOL    HW246810  11.674   7.212  11.950 -0.1808  0.1435 -1.7226
42940SOL     OW46811  10.194   0.475  11.346 -0.0946  0.1839  0.1928
42940SOL    HW146812  10.274   0.519  11.374 -0.3356 -0.6747  2.5219
42940SOL    HW246813  10.136   0.546  11.318  1.5034  0.7993 -1.7450
42941SOL     OW46814   9.774  10.418   9.607  0.3379 -0.2614  0.3194
42941SOL    HW146815   9.782  10.468   9.688  1.1540 -0.0367  0.1025
42941SOL    HW246816   9.688  10.444   9.572  0.7602  1.0161  0.1949
42942SOL     OW46817  12.381   3.235   9.124  0.3057  0.2319 -0.1125
42942SOL    HW146818  12.299   3.232   9.174  0.1458  1.2966 -0.2712
42942SOL    HW246819  12.445   3.193   9.180 -0.5924 -1.7487 -0.5015
42943SOL     OW46820  11.529   9.173  13.545 -0.2394 -0.0244  0.1857
42943SOL    HW146821  11.514   9.203  13.455 -0.9020 -2.1897 -0.4878
42943SOL    HW246822  11.588   9.099  13.536 -1.4012 -1.1414  1.3786
42944SOL     OW46823   5.260   8.567   8.804  0.5176  0.6814 -0.3471
42944SOL    HW146824   5.176   8.523   8.793  0.7810 -0.3533  1.4138
42944SOL    HW246825   5.252   8.614   8.887  1.5795  0.7561 -0.2693
42945SOL     OW46826   0.915   5.336   1.629  0.1818  0.5958 -0.5243
42945SOL    HW146827   0.977   5.342   1.702  0.0549  0.1047 -0.3654
42945SOL    HW246828   0.914   5.242   1.607 -0.2483  0.6518 -0.7474
42946SOL     OW46829   7.192  10.026   5.107  0.1125 -0.2558  0.7543
42946SOL    HW146830   7.225  10.027   5.196  1.0360 -0.7754  0.4358
42946SOL    HW246831   7.170  10.117   5.088  1.9425  0.2320  0.8017
42947SOL     OW46832  12.882   7.778   0.051  0.0456 -0.4809 -0.5784
42947SOL    HW146833  12.840   7.768  -0.034 -3.3918  1.8079  0.6593
42947SOL    HW246834  12.818   7.745   0.114  1.7360 -0.3996  1.2875
42948SOL     OW46835   9.516   2.816  10.695 -0.0961  0.0909 -0.4814
42948SOL    HW146836   9.461   2.738  10.699  0.2190 -0.0897  0.8139
42948SOL    HW246837   9.596   2.788  10.649 -0.2688 -0.1577 -0.6309
42949SOL     OW46838  11.707   0.566  13.104 -0.6167  0.0633 -0.3118
42949SOL    HW146839  11.656   0.630  13.153  0.9139  1.0418  0.0611
42949SOL    HW246840  11.710   0.489  13.160 -2.1093 -0.2069 -0.5731
42950SOL     OW46841  10.739   5.173   9.021 -0.2446  0.6569  0.0858
42950SOL    HW146842  10.750   5.089   9.065 -1.5879  0.2271 -0.3383
42950SOL    HW246843  10.780   5.237   9.080  0.5882 -0.2556  0.5181
42951SOL     OW46844   1.664  12.067   1.057  0.1994 -0.3563  0.2877
42951SOL    HW146845   1.736  12.004   1.046 -0.5135 -1.1594  0.1308
42951SOL    HW246846   1.609  12.054   0.980  0.0292  0.4432  0.2729
42952SOL     OW46847   5.738   5.867   2.779  0.0931  0.2078  0.2072
42952SOL    HW146848   5.684   5.945   2.770 -0.2051 -0.0171  0.0385
42952SOL    HW246849   5.827   5.901   2.787  0.2759  0.5163 -2.2728
42953SOL     OW46850   6.489   4.340  13.354  0.5781 -1.1205  0.2651
42953SOL    HW146851   6.564   4.285  13.333  0.5971 -1.2077  0.5619
42953SOL    HW246852   6.502   4.419  13.301  0.9412 -1.0838  0.4039
42954SOL     OW46853   6.782  11.125  10.734 -0.4227 -0.0801 -0.2674
42954SOL    HW146854   6.774  11.171  10.818  0.8036 -0.0503 -0.1544
42954SOL    HW246855   6.734  11.181  10.672 -0.7956  0.2239  0.2849
42955SOL     OW46856   9.794  10.364   2.759  0.1619 -0.0987  0.1193
42955SOL    HW146857   9.817  10.457   2.757  0.9224 -0.2948 -1.4719
42955SOL    HW246858   9.729  10.357   2.829  1.2679  1.3517  1.3627
42956SOL     OW46859   4.708   7.794   2.348  0.1816  0.1639 -0.0261
42956SOL    HW146860   4.781   7.759   2.399 -0.8391 -2.1361  0.0038
42956SOL    HW246861   4.734   7.781   2.257  0.4520  0.8020 -0.0419
42957SOL     OW46862  10.796   5.227   0.613 -0.5122  0.1130 -0.9080
42957SOL    HW146863  10.752   5.179   0.683  0.0091  1.7117  0.5841
42957SOL    HW246864  10.846   5.160   0.566 -1.3300 -1.0964 -0.1185
42958SOL     OW46865   3.360   0.644   3.016  0.1862  0.1253  0.2365
42958SOL    HW146866   3.340   0.558   3.053 -1.7266  1.1504  1.8204
42958SOL    HW246867   3.410   0.626   2.937  1.0691 -2.3710  1.2672
42959SOL     OW46868   7.561   2.282  12.278  0.2203  0.4133 -0.3577
42959SOL    HW146869   7.585   2.375  12.275 -1.1415  0.7574 -1.8271
42959SOL    HW246870   7.590   2.247  12.194 -0.7343 -0.0864 -0.4947
42960SOL     OW46871  13.945   4.067   5.483 -0.0663 -0.2054  0.0413
42960SOL    HW146872  13.894   4.089   5.406 -0.6955 -0.4335  0.3856
42960SOL    HW246873  13.935   4.142   5.542  1.3421  0.4836 -0.5376
42961SOL     OW46874   5.655   4.409  12.109  0.1828  0.1642  0.0416
42961SOL    HW146875   5.665   4.494  12.152  0.4488  0.7169 -1.0560
42961SOL    HW246876   5.722   4.409  12.040 -0.9149 -0.1952 -1.0747
42962SOL     OW46877   9.157  11.502  10.876  0.1584 -0.2774  0.1944
42962SOL    HW146878   9.170  11.579  10.821  2.9889  0.1178  1.2416
42962SOL    HW246879   9.105  11.443  10.823  0.4467  1.1697 -1.8139
42963SOL     OW46880   2.511   5.476   4.914  0.3226  0.2894 -0.3867
42963SOL    HW146881   2.520   5.401   4.854  0.6802  0.0936 -0.0938
42963SOL    HW246882   2.438   5.453   4.971 -1.3792  1.3535 -2.0041
42964SOL     OW46883  10.360   8.429   6.767 -0.2919 -0.2097 -0.5054
42964SOL    HW146884  10.290   8.477   6.812  1.0400  1.0863  0.2645
42964SOL    HW246885  10.429   8.420   6.832  0.7801 -0.3111 -1.6107
42965SOL     OW46886  10.690  12.941  11.857 -0.1258 -0.4198 -0.0898
42965SOL    HW146887  10.700  12.846  11.869 -0.4364 -0.3636  0.6513
42965SOL    HW246888  10.667  12.974  11.944 -0.4889  0.2764 -0.4455
42966SOL     OW46889   9.820   0.608   0.566  0.5779 -0.3000 -0.1594
42966SOL    HW146890   9.754   0.587   0.632  1.2298  0.3108  0.7187
42966SOL    HW246891   9.789   0.567   0.486 -0.9217  0.0835  0.2091
42967SOL     OW46892   4.870   5.580   7.922  0.2056 -0.2257 -0.2433
42967SOL    HW146893   4.953   5.545   7.889  0.0095 -0.3403 -0.6182
42967SOL    HW246894   4.864   5.547   8.011  0.5380 -0.2647 -0.2342
42968SOL     OW46895   6.991   9.807   7.495 -0.2906 -0.6766  0.1190
42968SOL    HW146896   6.908   9.811   7.448  0.8567  0.4508 -1.9712
42968SOL    HW246897   6.977   9.862   7.572 -1.1839  0.3633 -0.7431
42969SOL     OW46898   1.150   1.629   1.224  0.2286 -0.3396 -0.0756
42969SOL    HW146899   1.209   1.693   1.185 -0.8037  0.9349  0.3614
42969SOL    HW246900   1.207   1.563   1.263  1.3140  0.0592 -0.9496
42970SOL     OW46901  11.301   5.096   7.095 -0.0300 -0.6023  0.2567
42970SOL    HW146902  11.280   5.019   7.148  0.3189  0.5631  2.1869
42970SOL    HW246903  11.383   5.073   7.051  0.3246 -1.1849  1.1807
42971SOL     OW46904   7.747   4.226   0.563  0.4695 -0.4386  0.1021
42971SOL    HW146905   7.682   4.266   0.505  0.8460 -0.0473 -0.0542
42971SOL    HW246906   7.707   4.232   0.650  0.3586 -0.0655  0.0272
42972SOL     OW46907  11.107   3.681   9.781 -0.1697  0.1380 -0.1198
42972SOL    HW146908  11.058   3.716   9.707 -0.7320  1.1143  0.6939
42972SOL    HW246909  11.145   3.758   9.823  2.6006 -0.6002 -1.0502
42973SOL     OW46910   1.174   6.609   4.300  0.1608  0.0432 -0.2877
42973SOL    HW146911   1.124   6.542   4.347  1.9908 -1.1630  0.0520
42973SOL    HW246912   1.112   6.679   4.285 -1.7505 -1.5949 -0.3622
42974SOL     OW46913   6.226   7.862   2.142  0.4986  0.1249  0.3741
42974SOL    HW146914   6.137   7.843   2.170 -0.4051  2.8319 -0.2825
42974SOL    HW246915   6.231   7.958   2.143  1.9405  0.3240 -3.7581
42975SOL     OW46916   9.898  11.613   2.091 -0.1361  0.1968  0.1284
42975SOL    HW146917   9.912  11.586   2.182 -1.0569 -0.9972 -0.0615
42975SOL    HW246918   9.979  11.588   2.047  0.1188  0.3142  0.5194
42976SOL     OW46919   1.593   6.766   8.387 -0.0367 -0.0278  0.1155
42976SOL    HW146920   1.685   6.746   8.373  0.4006  1.5591  0.4396
42976SOL    HW246921   1.586   6.784   8.481 -0.5094  0.5690 -0.0236
42977SOL     OW46922   3.793  12.067   7.819 -0.0266 -0.3928 -0.0765
42977SOL    HW146923   3.699  12.048   7.828  0.0229 -0.1523  1.0889
42977SOL    HW246924   3.836  11.992   7.861  0.3614 -1.1577 -1.7547
42978SOL     OW46925   3.073  12.948   5.203  0.0565 -0.2102  0.0005
42978SOL    HW146926   3.140  12.987   5.258 -0.2535  1.7409 -0.8721
42978SOL    HW246927   3.120  12.912   5.128  0.1852  1.7912 -0.9699
42979SOL     OW46928   0.764  10.167  12.579 -0.4536  0.8152  0.1907
42979SOL    HW146929   0.852  10.199  12.597 -0.9757  1.4793  1.8296
42979SOL    HW246930   0.716  10.182  12.661 -2.0532  0.3478 -0.6087
42980SOL     OW46931   2.985   8.838   0.957  0.2091  0.2721 -0.3524
42980SOL    HW146932   3.004   8.817   0.866  1.0195  0.2488 -0.1827
42980SOL    HW246933   3.000   8.757   1.005 -4.5628 -1.1549 -0.6909
42981SOL     OW46934  12.640  12.688   7.687 -0.1903 -0.4716 -0.2129
42981SOL    HW146935  12.561  12.643   7.655 -0.7653  0.4986 -0.2142
42981SOL    HW246936  12.681  12.722   7.607  0.2090 -0.9394 -0.2077
42982SOL     OW46937  10.087   4.198   9.183 -0.3029  0.6522 -0.0502
42982SOL    HW146938  10.113   4.271   9.127  0.2838  1.0565  0.7355
42982SOL    HW246939  10.028   4.238   9.248  0.3575  0.5180  0.6418
42983SOL     OW46940   5.606  12.768   2.137  0.0932  0.0914  0.1217
42983SOL    HW146941   5.546  12.817   2.193  0.8847  0.1164  0.9686
42983SOL    HW246942   5.587  12.676   2.158  1.4040  0.1169  1.5600
42984SOL     OW46943  11.682   9.001   3.425 -0.2901  0.0535 -0.0648
42984SOL    HW146944  11.594   8.975   3.453 -0.8071 -0.2036 -1.8534
42984SOL    HW246945  11.710   9.065   3.491 -2.5092  1.4371 -0.3678
42985SOL     OW46946   0.306  12.687   6.580  0.1387 -0.2805 -0.6719
42985SOL    HW146947   0.258  12.618   6.532  0.5620 -1.2854  0.3185
42985SOL    HW246948   0.320  12.755   6.514 -2.6332  0.0654 -1.0197
42986SOL     OW46949   4.387  11.200   4.235  0.3871 -0.1417  0.6349
42986SOL    HW146950   4.352  11.162   4.316  0.4591 -1.8695 -0.0859
42986SOL    HW246951   4.435  11.128   4.194  0.1582  0.6141 -1.0541
42987SOL     OW46952   4.512   6.475  13.085 -0.3782 -0.4245 -0.2301
42987SOL    HW146953   4.467   6.485  13.002 -1.4885 -1.0470  0.2704
42987SOL    HW246954   4.462   6.529  13.147  0.7135  0.4078 -0.0557
42988SOL     OW46955  13.252   1.033   4.133  0.5721  0.2380 -0.2264
42988SOL    HW146956  13.258   1.067   4.043 -1.4501  0.8264 -0.1812
42988SOL    HW246957  13.295   0.948   4.129 -0.0989 -0.0636 -1.9471
42989SOL     OW46958   0.188  11.778   2.617 -0.0346 -0.9765  0.7829
42989SOL    HW146959   0.132  11.830   2.674 -1.7745 -0.1159 -1.5491
42989SOL    HW246960   0.275  11.818   2.626 -0.5315 -0.0943  1.8575
42990SOL     OW46961   8.813   5.834   4.198  0.2418 -0.1044 -0.7202
42990SOL    HW146962   8.773   5.795   4.121  0.7838 -0.4810 -0.8139
42990SOL    HW246963   8.901   5.798   4.201  0.4746  0.4686 -0.3373
42991SOL     OW46964   6.145   6.468   3.305  0.4815  0.6233 -0.1976
42991SOL    HW146965   6.229   6.500   3.337 -0.3747  2.0690  0.7601
42991SOL    HW246966   6.109   6.542   3.256 -1.3432  1.0578  1.6442
42992SOL     OW46967  13.163   9.839   6.661 -0.5078  0.4191 -0.8809
42992SOL    HW146968  13.120   9.924   6.650 -0.5750  0.6570  0.8637
42992SOL    HW246969  13.216   9.850   6.740 -0.8281 -1.2808 -0.3971
42993SOL     OW46970  13.289  12.457   0.835 -0.1286  0.8530 -0.1473
42993SOL    HW146971  13.344  12.389   0.797  0.8893  1.3067  0.4680
42993SOL    HW246972  13.212  12.411   0.868  0.4865  0.0237  0.1509
42994SOL     OW46973   0.518  10.062   8.030  0.1404  0.2065 -0.3169
42994SOL    HW146974   0.486   9.973   8.018 -2.3609  1.0795 -0.6052
42994SOL    HW246975   0.510  10.103   7.944  1.0261  0.7966 -0.1299
42995SOL     OW46976  13.254  12.588  11.942 -0.5201  0.4700 -0.6831
42995SOL    HW146977  13.309  12.509  11.938 -1.1716 -0.0909  0.6660
42995SOL    HW246978  13.314  12.660  11.924  0.8543 -0.0765  1.3098
42996SOL     OW46979   2.586   2.925  11.287 -0.3343 -0.8560  0.4001
42996SOL    HW146980   2.625   2.856  11.341  1.3648  0.1785  0.5549
42996SOL    HW246981   2.610   3.007  11.330 -1.8510 -0.1018 -0.0842
42997SOL     OW46982  12.224   0.840   9.398  0.0589 -0.4652 -0.0798
42997SOL    HW146983  12.225   0.919   9.344 -0.7633  0.4963  1.2445
42997SOL    HW246984  12.135   0.837   9.433  0.3055 -1.5763  0.4816
42998SOL     OW46985   4.963  12.216   3.606 -0.0328 -0.5652 -0.0334
42998SOL    HW146986   4.900  12.175   3.666  0.6562 -1.0705  0.3519
42998SOL    HW246987   4.929  12.195   3.519 -1.7282  1.2035  0.1201
42999SOL     OW46988  12.868   5.944   4.004  0.0061 -0.1034  0.4433
42999SOL    HW146989  12.867   5.972   3.913 -0.1923  1.5592  0.9303
42999SOL    HW246990  12.778   5.916   4.022  0.3496 -1.7708 -0.2228
43000SOL     OW46991   4.468  12.981  13.697 -0.0202 -0.2617  0.3577
43000SOL    HW146992   4.430  13.069  13.700  0.8574  0.2630 -2.0427
43000SOL    HW246993   4.395  12.924  13.673 -0.1320  0.1757 -0.3707
43001SOL     OW46994   7.121   4.832   8.011 -0.2767 -0.5492  0.1702
43001SOL    HW146995   7.209   4.866   7.996 -0.8025 -0.0717 -2.2241
43001SOL    HW246996   7.068   4.872   7.942 -1.9613 -2.3238  0.3653
43002SOL     OW46997  12.643   4.980  10.578  0.5056 -0.2621  0.2531
43002SOL    HW146998  12.559   4.949  10.610  0.2985 -1.2251 -1.1419
43002SOL    HW246999  12.663   5.057  10.632 -1.7329  0.6005 -0.0640
43003SOL     OW47000   9.690   6.912   3.075  0.1621  0.9131  0.1568
43003SOL    HW147001   9.760   6.969   3.045  0.2711  1.0592  0.6675
43003SOL    HW247002   9.729   6.824   3.077  0.0259  0.8325 -0.5251
43004SOL     OW47003   4.447  10.308   8.450 -0.0260 -0.4010  0.3638
43004SOL    HW147004   4.404  10.301   8.535 -0.2089 -2.2497  0.1596
43004SOL    HW247005   4.451  10.218   8.418  1.3474  0.0896 -0.9443
43005SOL     OW47006   1.625  11.771   4.682  0.7077 -0.3003  0.3830
43005SOL    HW147007   1.538  11.808   4.700  1.4140  1.3550  0.6190
43005SOL    HW247008   1.628  11.764   4.587 -0.0559 -1.3675  0.4227
43006SOL     OW47009  11.209   5.699   3.329  0.1479 -0.1614  0.3393
43006SOL    HW147010  11.145   5.667   3.393 -0.5943 -1.2957 -0.9252
43006SOL    HW247011  11.282   5.729   3.382 -0.5353 -0.8589  1.7359
43007SOL     OW47012   0.322  13.658   1.471 -0.2539  0.4470 -0.4330
43007SOL    HW147013   0.256  13.591   1.454 -0.9758  0.9337  0.3764
43007SOL    HW247014   0.273  13.733   1.504  0.6464  1.0365 -0.3862
43008SOL     OW47015  13.855  11.990   1.502  0.1341  0.0055  0.2206
43008SOL    HW147016  13.826  12.079   1.522  1.2106  0.1833  1.0693
43008SOL    HW247017  13.788  11.956   1.443  0.2958  1.7765 -1.0782
43009SOL     OW47018   7.428   3.859   6.594  0.3028  0.2672  0.2644
43009SOL    HW147019   7.383   3.832   6.674  2.2708 -1.5606  0.8586
43009SOL    HW247020   7.437   3.778   6.543  1.3900  0.8947 -0.5871
43010SOL     OW47021   9.099  11.956   1.921 -0.2592  0.1109  0.0266
43010SOL    HW147022   9.140  11.991   1.842  0.6653 -3.1043 -1.0729
43010SOL    HW247023   9.076  11.866   1.898 -1.3075 -0.4848  2.9796
43011SOL     OW47024   9.720   8.532  10.486  0.4007 -0.6755 -0.1465
43011SOL    HW147025   9.800   8.486  10.461  1.2703  1.4815 -1.7024
43011SOL    HW247026   9.652   8.465  10.482  1.9082 -2.3008 -0.0194
43012SOL     OW47027   3.161   3.569  11.747  0.1010  0.3514  0.5906
43012SOL    HW147028   3.074   3.565  11.786  0.2360  1.1454  0.9926
43012SOL    HW247029   3.145   3.588  11.654 -0.1891 -0.7271  0.4089
43013SOL     OW47030   0.767   5.295   9.084  0.1631 -0.0366 -0.4349
43013SOL    HW147031   0.717   5.236   9.140 -2.3467  0.7632 -1.6969
43013SOL    HW247032   0.759   5.256   8.996  1.9849  0.0258 -0.6749
43014SOL     OW47033   8.280   1.966   3.427  0.5037  0.0023  0.0377
43014SOL    HW147034   8.306   2.058   3.437  1.1616 -0.0710 -0.9159
43014SOL    HW247035   8.224   1.949   3.503  0.6514  1.0912  0.4091
43015SOL     OW47036   4.269  13.753  13.513 -0.2296 -0.2407 -0.0429
43015SOL    HW147037   4.204  13.763  13.583 -0.5994 -0.7083 -0.3132
43015SOL    HW247038   4.222  13.781  13.434  0.3030  0.6504 -0.0520
43016SOL     OW47039   9.494  10.014   4.160 -0.1833 -0.2388  0.4603
43016SOL    HW147040   9.522   9.926   4.137 -1.1784 -0.6828  0.9339
43016SOL    HW247041   9.479  10.058   4.076 -0.7889 -0.8808  0.2285
43017SOL     OW47042   2.823  12.867   1.162  0.2813  0.2206 -0.1465
43017SOL    HW147043   2.897  12.889   1.218  0.3540  0.3534 -0.2956
43017SOL    HW247044   2.773  12.804   1.213  1.2378 -0.9430 -0.5799
43018SOL     OW47045   4.930   3.076   4.792 -0.3685 -0.0946 -0.2453
43018SOL    HW147046   5.016   3.105   4.823 -0.4531  0.2300 -0.3094
43018SOL    HW247047   4.888   3.156   4.762 -0.6248 -0.2816 -0.3814
43019SOL     OW47048  10.095   9.881   0.534  0.3702  0.2088 -0.2621
43019SOL    HW147049  10.155   9.847   0.600 -0.6397  1.6020  1.4370
43019SOL    HW247050  10.090   9.975   0.551 -1.0417  0.3711 -1.3834
43020SOL     OW47051   7.524   7.350   9.809  0.1024 -0.2949  0.3151
43020SOL    HW147052   7.491   7.349   9.719  0.5195  1.3815  0.1197
43020SOL    HW247053   7.605   7.298   9.805 -0.0793 -0.5478 -0.1893
43021SOL     OW47054   9.186   5.098  11.670 -0.1814  0.4505 -0.6376
43021SOL    HW147055   9.111   5.053  11.710  0.2973 -0.0359 -0.2819
43021SOL    HW247056   9.147   5.150  11.600 -0.6050 -1.4784 -1.9016
43022SOL     OW47057   8.004   4.827  11.935 -0.0847  0.3255 -0.2859
43022SOL    HW147058   7.965   4.830  11.847  0.1988 -0.7420 -0.4693
43022SOL    HW247059   8.062   4.750  11.932 -0.1154  0.2489  0.8503
43023SOL     OW47060  13.962   5.489   6.289  0.1090  0.1281  0.0356
43023SOL    HW147061  13.972   5.583   6.302 -1.1957  0.4302 -0.9468
43023SOL    HW247062  13.868   5.477   6.270  0.2339 -1.3728  0.2400
43024SOL     OW47063  13.647   2.755   0.477  0.0466  0.3172 -0.0540
43024SOL    HW147064  13.676   2.670   0.510  1.4766  1.0733  0.7450
43024SOL    HW247065  13.577   2.781   0.536  0.8176  0.4817  0.8031
43025SOL     OW47066   6.733  12.838  11.044  0.1955 -0.4556 -0.3075
43025SOL    HW147067   6.810  12.868  10.995 -0.6313 -0.7921 -1.8771
43025SOL    HW247068   6.726  12.745  11.022  0.6785 -1.0199  1.7091
43026SOL     OW47069  10.525  12.839   1.171 -0.0914 -0.2464 -0.7634
43026SOL    HW147070  10.619  12.829   1.161  0.3364  0.6469  1.7418
43026SOL    HW247071  10.507  12.815   1.262 -2.0053  1.3185 -0.6525
43027SOL     OW47072   5.043   0.244  12.101 -0.2588  0.3075  0.6705
43027SOL    HW147073   5.042   0.313  12.167  1.5194  0.8620  0.1754
43027SOL    HW247074   5.121   0.192  12.122 -0.6301 -0.5278  0.0296
43028SOL     OW47075  12.434   9.692   3.199  0.6162  0.4750 -0.1061
43028SOL    HW147076  12.349   9.714   3.236  0.4271 -1.6522  0.8555
43028SOL    HW247077  12.419   9.693   3.104 -0.2051  1.0706  0.0158
43029SOL     OW47078  12.154   4.521   2.729  0.0003  0.1653 -0.5992
43029SOL    HW147079  12.158   4.614   2.706  2.1659 -0.0138 -1.2327
43029SOL    HW247080  12.073   4.490   2.689 -2.9931  2.4924  2.9438
43030SOL     OW47081   1.128   9.257  12.988  0.0481 -0.3797 -0.6163
43030SOL    HW147082   1.206   9.289  13.034  0.9658  0.5610 -2.6898
43030SOL    HW247083   1.101   9.330  12.933 -0.8230 -1.5077 -1.7509
43031SOL     OW47084   1.846   9.650  13.676 -0.3553  0.6988  0.7291
43031SOL    HW147085   1.769   9.624  13.626 -1.8226  1.2361  2.5874
43031SOL    HW247086   1.903   9.693  13.611 -2.4639  2.0055 -0.3939
43032SOL     OW47087   2.856  11.792   1.487  0.0346 -0.7929 -0.0282
43032SOL    HW147088   2.949  11.804   1.510 -0.2283  1.5654  0.0569
43032SOL    HW247089   2.809  11.814   1.568 -0.6362 -0.6093 -0.4649
43033SOL     OW47090   0.224  13.999   8.065 -0.2541  0.1273  0.0256
43033SOL    HW147091   0.134  14.022   8.088 -0.1153  0.7974 -0.0976
43033SOL    HW247092   0.220  13.979   7.972 -0.3954 -0.4771  0.1555
43034SOL     OW47093   5.427   6.174   7.446  0.5860  0.8834  0.4120
43034SOL    HW147094   5.429   6.151   7.539 -1.2760 -1.1098  0.0419
43034SOL    HW247095   5.518   6.193   7.424  1.5475 -1.4636  1.9999
43035SOL     OW47096   1.066   3.886   0.968 -0.3590 -0.3590  0.1046
43035SOL    HW147097   1.031   3.867   0.881  0.6156 -2.4001  0.1212
43035SOL    HW247098   1.032   3.816   1.023 -1.3020  1.1345  1.5026
43036SOL     OW47099   3.238   8.134   9.550  0.1832  0.0272  0.0759
43036SOL    HW147100   3.180   8.070   9.591  1.6531 -0.6818  1.1129
43036SOL    HW247101   3.277   8.087   9.476 -1.6578  0.9741 -1.5801
43037SOL     OW47102  12.436   0.831  10.199  0.3371  0.2709 -0.3544
43037SOL    HW147103  12.471   0.905  10.248 -0.3817 -0.0517  0.6928
43037SOL    HW247104  12.435   0.759  10.263  1.7492 -0.8778 -1.5524
43038SOL     OW47105   6.270   4.831   9.658  1.1770  0.0157  0.1981
43038SOL    HW147106   6.340   4.784   9.703  1.5315 -0.8408 -1.1722
43038SOL    HW247107   6.278   4.803   9.567 -1.9305 -1.3105  0.2119
43039SOL     OW47108   6.852  12.479   0.835 -0.1729  0.0721  0.1384
43039SOL    HW147109   6.860  12.570   0.807 -0.2722  0.3465  0.9778
43039SOL    HW247110   6.771  12.477   0.886  1.5018  0.3180  3.0416
43040SOL     OW47111   0.215  13.866  13.501  0.7540  0.3933 -0.0164
43040SOL    HW147112   0.304  13.881  13.469  1.1241  0.5984  1.0682
43040SOL    HW247113   0.186  13.787  13.455  2.7360 -1.6531  2.0062
43041SOL     OW47114  11.467   9.617   0.987 -0.9588  0.4444 -0.2709
43041SOL    HW147115  11.437   9.552   1.050 -0.6131  1.1145  0.6007
43041SOL    HW247116  11.546   9.654   1.026 -0.4682  0.5446 -1.3204
43042SOL     OW47117   3.236   2.933   0.205 -0.3029 -0.6683 -0.4999
43042SOL    HW147118   3.189   2.907   0.284  1.3859 -0.7101  0.5561
43042SOL    HW247119   3.328   2.911   0.224  0.0812 -1.1941 -2.7028
43043SOL     OW47120   0.635   7.142  13.447  0.8675 -0.0845 -0.3967
43043SOL    HW147121   0.646   7.105  13.534 -0.2273 -0.3373 -0.3559
43043SOL    HW247122   0.542   7.134  13.428  0.6121  2.3002 -0.5316
43044SOL     OW47123   0.674  13.615   0.409  0.1068 -0.1244 -0.3468
43044SOL    HW147124   0.642  13.600   0.320  1.1133 -1.0199 -0.5791
43044SOL    HW247125   0.693  13.527   0.442  2.2777  0.3328 -0.2361
43045SOL     OW47126   5.016  13.945  12.983 -0.5168  0.7449  0.2635
43045SOL    HW147127   4.944  14.006  12.998 -1.6413 -0.5935  0.5514
43045SOL    HW247128   4.974  13.859  12.980  1.0489 -0.0533  0.1810
43046SOL     OW47129   1.425  13.775  12.634  0.2890  0.2862  0.1716
43046SOL    HW147130   1.430  13.870  12.626  1.4918  0.2087 -0.2285
43046SOL    HW247131   1.515  13.747  12.647  0.1427 -0.9113 -1.1190
43047SOL     OW47132  10.933  12.096   2.662  0.0035 -0.3709 -0.4700
43047SOL    HW147133  10.917  12.135   2.576  1.2608  1.3205  0.0120
43047SOL    HW247134  11.005  12.035   2.647  0.1787 -0.1260 -0.6449
43048SOL     OW47135  11.655  12.572  12.563  0.0607  0.2033 -0.5739
43048SOL    HW147136  11.736  12.560  12.512  0.7074 -0.1089  0.4866
43048SOL    HW247137  11.668  12.654  12.609 -0.7437  0.7429 -1.2991
43049SOL     OW47138   7.557  12.319   8.411  0.2807  0.3813  0.5037
43049SOL    HW147139   7.479  12.271   8.436 -0.3712  0.5748 -1.0168
43049SOL    HW247140   7.585  12.279   8.328 -0.2394  2.4628 -0.7704
43050SOL     OW47141   9.933  13.356  10.243 -0.1274  0.0058  0.2707
43050SOL    HW147142   9.894  13.384  10.160  2.4048 -1.5258 -1.5730
43050SOL    HW247143   9.990  13.428  10.268  1.5722 -0.7734 -1.1282
43051SOL     OW47144  12.695   7.710  12.072 -0.1033  0.3972  0.2748
43051SOL    HW147145  12.601   7.694  12.062  0.2589 -2.1741  0.3953
43051SOL    HW247146  12.733   7.680  11.989  0.6980  0.7570  0.5034
43052SOL     OW47147   1.560  13.686   8.222  0.0974  0.3298 -0.2297
43052SOL    HW147148   1.555  13.683   8.317 -0.3540  1.2133 -0.2101
43052SOL    HW247149   1.629  13.750   8.203 -0.4575  0.8799 -0.4736
43053SOL     OW47150   3.882   0.740   3.950 -0.3867 -0.2133  0.1576
43053SOL    HW147151   3.896   0.745   3.856 -0.1449 -1.9217  0.0804
43053SOL    HW247152   3.801   0.691   3.960 -0.3588 -0.1339  0.8480
43054SOL     OW47153   3.846   6.030   1.310  0.6225 -0.1376  0.1288
43054SOL    HW147154   3.799   6.092   1.365  0.8370 -1.7651  2.2690
43054SOL    HW247155   3.780   5.965   1.286  0.8085 -0.0708 -0.6056
43055SOL     OW47156   1.785   5.919   5.500 -0.0765  0.1596  0.1504
43055SOL    HW147157   1.821   5.884   5.582  0.7155 -1.1250 -0.6950
43055SOL    HW247158   1.691   5.902   5.506  0.2632 -2.2402 -0.2146
43056SOL     OW47159  12.917  10.477   6.992  0.8439  0.1978 -0.2292
43056SOL    HW147160  12.947  10.565   6.968  0.0498  0.2509 -1.0607
43056SOL    HW247161  12.826  10.474   6.963 -0.1168  0.1413  2.4778
43057SOL     OW47162  11.586  10.375  10.666  0.3488 -0.0505 -0.3998
43057SOL    HW147163  11.615  10.284  10.673  3.4602  0.9278  1.2283
43057SOL    HW247164  11.491  10.370  10.671  0.3889 -3.2138 -0.6180
43058SOL     OW47165   8.217   9.430   7.072 -0.1440  0.3806 -0.4657
43058SOL    HW147166   8.268   9.352   7.095  0.6897  0.0960 -3.0016
43058SOL    HW247167   8.260   9.501   7.119  0.2671 -0.3956  0.3673
43059SOL     OW47168  13.088   3.697   3.942 -0.1324 -0.0705 -0.3097
43059SOL    HW147169  13.129   3.712   4.027 -0.3311  2.4037 -0.5825
43059SOL    HW247170  13.097   3.602   3.927  2.1557 -0.1773  1.2955
43060SOL     OW47171   9.286   2.667  13.991 -0.1822  0.4259 -0.4954
43060SOL    HW147172   9.381   2.663  13.978 -0.4291 -0.7132 -2.3062
43060SOL    HW247173   9.275   2.663  14.086  1.5940  1.3187 -0.2039
43061SOL     OW47174  10.128   2.596   1.961  0.2736 -0.4118 -0.4675
43061SOL    HW147175  10.168   2.611   1.875 -1.0452  0.8619 -0.8824
43061SOL    HW247176  10.199   2.615   2.023  1.6907 -2.7392 -1.2215
43062SOL     OW47177  11.256   5.251   1.051 -0.0469  0.2028 -0.3425
43062SOL    HW147178  11.306   5.169   1.051  1.6389  1.1990 -0.9802
43062SOL    HW247179  11.216   5.254   1.138 -0.6128 -1.5449 -0.4924
43063SOL     OW47180  11.921  11.081   0.622 -0.5189 -0.0568 -0.0503
43063SOL    HW147181  11.879  11.098   0.537  1.1209 -1.7456 -1.2968
43063SOL    HW247182  11.850  11.051   0.678 -1.6443  1.0501 -0.8287
43064SOL     OW47183  11.834   4.175   2.143  0.1168  0.0631  0.3776
43064SOL    HW147184  11.886   4.188   2.223  1.6681 -1.4072 -0.3307
43064SOL    HW247185  11.869   4.239   2.081  0.5724 -0.3871  0.1564
43065SOL     OW47186  10.635   3.557  12.900  0.7973  0.2288 -0.6572
43065SOL    HW147187  10.716   3.507  12.913 -0.4069 -1.2287  2.2803
43065SOL    HW247188  10.600   3.569  12.988 -1.9876  1.1969 -1.7702
43066SOL     OW47189  12.266  10.982  10.897 -0.1468 -0.4195  0.0522
43066SOL    HW147190  12.250  11.029  10.979  1.0068 -0.9453  0.5992
43066SOL    HW247191  12.180  10.977  10.855 -0.5329  0.9603  0.6262
43067SOL     OW47192   7.239   8.463  13.212 -0.2279 -0.0137 -0.7677
43067SOL    HW147193   7.258   8.496  13.124 -2.7336 -0.2062 -1.4429
43067SOL    HW247194   7.144   8.472  13.221 -0.1380 -0.8270  1.5983
43068SOL     OW47195   8.528   2.135   5.311  0.3449 -0.5837  0.5109
43068SOL    HW147196   8.575   2.092   5.382 -0.4873  0.0472  1.4897
43068SOL    HW247197   8.486   2.064   5.263  2.2305 -1.1606 -0.3853
43069SOL     OW47198  12.160   5.902   6.593 -0.2492 -0.5130  0.6774
43069SOL    HW147199  12.176   5.864   6.507 -0.5805  0.1418  0.3259
43069SOL    HW247200  12.087   5.853   6.628  0.5459 -1.4840  1.0296
43070SOL     OW47201   9.672   5.371   3.205  0.6497  0.5259 -0.1293
43070SOL    HW147202   9.740   5.309   3.230 -0.1695 -0.0320  0.7815
43070SOL    HW247203   9.597   5.317   3.181  0.2883  1.1387 -0.4132
43071SOL     OW47204  11.973  12.773  10.072  0.1692  0.1498  0.3879
43071SOL    HW147205  11.960  12.684  10.039  1.4691  0.1776 -0.2689
43071SOL    HW247206  11.928  12.830  10.009 -1.0489 -0.0342  1.0486
43072SOL     OW47207  13.953   0.381   0.449  0.2172 -0.3029  0.2818
43072SOL    HW147208  13.996   0.300   0.421  1.8822 -0.1330  2.1036
43072SOL    HW247209  13.982   0.446   0.386  1.3594 -0.5463  0.5224
43073SOL     OW47210   5.987   8.478   7.826  0.7148 -0.2427  1.1469
43073SOL    HW147211   6.067   8.501   7.780 -0.7808  2.0915 -0.5022
43073SOL    HW247212   5.933   8.434   7.761  0.6691 -1.9427  2.2793
43074SOL     OW47213  10.078   6.392   8.221 -0.2746  0.2215  0.2780
43074SOL    HW147214  10.162   6.357   8.250  1.2970  2.8406 -0.7094
43074SOL    HW247215  10.029   6.406   8.301  1.3198  1.0885  1.1604
43075SOL     OW47216  12.028   5.989  12.839  0.3279  0.3169  0.6697
43075SOL    HW147217  11.961   5.978  12.907 -0.2982 -1.0325 -0.1187
43075SOL    HW247218  12.038   5.902  12.801  3.8693  0.0041  1.9454
43076SOL     OW47219   3.688   3.038   2.883 -0.2850 -0.0049  0.0232
43076SOL    HW147220   3.768   3.090   2.871 -0.1067 -0.2796  0.0267
43076SOL    HW247221   3.620   3.103   2.901 -0.1523  0.2610 -0.4413
43077SOL     OW47222  12.178  11.388   8.430  0.1299  0.0797  0.0689
43077SOL    HW147223  12.119  11.387   8.355  0.9507  0.1126 -0.5934
43077SOL    HW247224  12.197  11.480   8.445 -1.2321  0.1974  1.3100
43078SOL     OW47225   0.464   8.767  10.578  0.1331  0.3934  0.4845
43078SOL    HW147226   0.436   8.787  10.489 -0.3834 -1.0687  0.2942
43078SOL    HW247227   0.409   8.821  10.634 -0.1258  0.6847 -0.0472
43079SOL     OW47228   0.370   1.495   1.191 -0.0950 -0.1993  0.2750
43079SOL    HW147229   0.440   1.472   1.251 -1.9402  1.0336  3.0897
43079SOL    HW247230   0.301   1.431   1.207 -1.1743  0.9831  0.5782
43080SOL     OW47231   4.014  10.997  10.346 -0.0810  0.3316 -0.0410
43080SOL    HW147232   3.991  10.923  10.290 -1.0759  1.4630 -1.2038
43080SOL    HW247233   4.061  10.959  10.419 -0.2320 -1.3965 -0.8091
43081SOL     OW47234   0.087   3.004   8.910 -0.1160  0.1419  1.0130
43081SOL    HW147235   0.062   2.957   8.989  0.0766 -0.2457  0.8437
43081SOL    HW247236   0.166   3.053   8.935 -1.0908  1.4701  1.5859
43082SOL     OW47237   2.263   3.598   5.149 -0.4079 -0.4388 -0.0094
43082SOL    HW147238   2.344   3.629   5.189 -0.5102 -0.8006  0.4932
43082SOL    HW247239   2.206   3.578   5.223 -1.2928  0.6797 -0.3800
43083SOL     OW47240   6.214  12.897   8.697  0.2552  0.1308 -0.2939
43083SOL    HW147241   6.304  12.866   8.696 -0.2355 -1.3728 -0.3606
43083SOL    HW247242   6.164  12.828   8.653 -0.8041  1.3554 -1.1134
43084SOL     OW47243   6.752   1.654   9.567  0.1080  0.1190 -0.3787
43084SOL    HW147244   6.692   1.591   9.606  0.8568  0.3013  1.1453
43084SOL    HW247245   6.835   1.607   9.560  0.3500  0.5407 -0.4036
43085SOL     OW47246  10.103  13.675   5.068 -0.1795  0.2606  0.1774
43085SOL    HW147247  10.075  13.641   5.153 -2.4151  0.6189 -0.3522
43085SOL    HW247248  10.150  13.756   5.088  3.2074 -1.7919  1.2937
43086SOL     OW47249   4.842   8.581   2.381 -0.2796 -0.5653  0.5006
43086SOL    HW147250   4.766   8.536   2.345  0.6347 -0.9731 -1.0316
43086SOL    HW247251   4.809   8.667   2.408 -1.2943 -0.7670 -0.0628
43087SOL     OW47252  10.364   0.691   0.328  0.6672  0.3150 -0.0802
43087SOL    HW147253  10.393   0.771   0.371  3.7568  1.7397 -4.1158
43087SOL    HW247254  10.399   0.621   0.383  1.1014  1.8066  1.6442
43088SOL     OW47255   9.698   0.815   5.259  0.0157 -0.2558  0.5714
43088SOL    HW147256   9.762   0.747   5.237 -1.2181 -0.7031 -1.9472
43088SOL    HW247257   9.746   0.897   5.244  0.5691 -0.5763  0.5290
43089SOL     OW47258  12.341  10.053   3.453  0.2772  0.6708 -0.4208
43089SOL    HW147259  12.332   9.958   3.446  0.3959  0.7172 -1.4728
43089SOL    HW247260  12.312  10.086   3.368  1.2301  1.4950 -0.4524
43090SOL     OW47261   4.472  12.431   0.537  0.5768 -0.2887  0.5530
43090SOL    HW147262   4.550  12.421   0.591  1.5390 -0.8475 -0.8528
43090SOL    HW247263   4.482  12.517   0.497  0.3953 -0.2898  0.5060
43091SOL     OW47264   1.564   5.539   0.972 -0.0351  0.2037  0.6835
43091SOL    HW147265   1.579   5.612   0.912 -1.3809 -0.3893 -0.4259
43091SOL    HW247266   1.553   5.463   0.915  0.1934 -0.6596  1.7664
43092SOL     OW47267  10.807  12.421   7.753  0.9614  0.2195 -0.2210
43092SOL    HW147268  10.783  12.509   7.781  0.3037  0.0240 -0.1349
43092SOL    HW247269  10.902  12.420   7.754  0.9670  0.7948  0.2019
43093SOL     OW47270   0.236   4.190  10.247 -0.0667  0.1431  0.3019
43093SOL    HW147271   0.256   4.103  10.213 -0.0125  0.9017 -1.8017
43093SOL    HW247272   0.209   4.176  10.337 -1.9883 -2.2895 -0.5406
43094SOL     OW47273  10.163   3.140   5.925  0.1692 -0.6420  0.0375
43094SOL    HW147274  10.190   3.063   5.975 -0.8186 -0.8963  0.2098
43094SOL    HW247275  10.239   3.162   5.872  0.9851 -0.8123  1.1051
43095SOL     OW47276  13.625   5.645  12.810  0.1214 -0.0713 -0.0268
43095SOL    HW147277  13.564   5.707  12.851 -0.6464 -0.5176 -0.4731
43095SOL    HW247278  13.577   5.562  12.810  0.7812 -0.4525 -0.2835
43096SOL     OW47279  12.791   2.869   3.441 -0.4059  0.3444 -0.8010
43096SOL    HW147280  12.877   2.904   3.416 -0.4257  0.1320 -1.1886
43096SOL    HW247281  12.744   2.943   3.478  0.3895  0.1849  0.6030
43097SOL     OW47282  10.387  12.656   1.026 -0.5472 -0.9399 -0.3980
43097SOL    HW147283  10.302  12.653   1.071 -1.0706  1.2744 -1.1260
43097SOL    HW247284  10.441  12.711   1.082 -0.9073  1.0540 -1.9062
43098SOL     OW47285   4.827   8.510  12.400  0.1009  0.5936  0.3942
43098SOL    HW147286   4.797   8.600  12.391  0.8235  0.7734 -0.2880
43098SOL    HW247287   4.764   8.469  12.459 -1.2033  1.0897 -0.6194
43099SOL     OW47288   9.121   0.183   0.815  0.4294 -0.1180 -0.4343
43099SOL    HW147289   9.066   0.126   0.868 -0.6347  1.7435  0.5409
43099SOL    HW247290   9.082   0.270   0.824  2.8479  1.0721 -0.6423
43100SOL     OW47291   6.408   8.651  11.976  0.1672 -0.7416  0.3653
43100SOL    HW147292   6.402   8.555  11.981  2.4463 -0.9365  0.2008
43100SOL    HW247293   6.397   8.680  12.067  0.0249 -1.1911  0.4977
43101SOL     OW47294  10.216   2.627   7.509 -0.0497  0.0058  0.1147
43101SOL    HW147295  10.178   2.666   7.430 -2.6605 -2.8760 -0.3022
43101SOL    HW247296  10.142   2.618   7.569  1.2868 -0.4506  1.7770
43102SOL     OW47297   3.734   7.338  11.264 -0.3093 -0.2377  0.1715
43102SOL    HW147298   3.676   7.323  11.190 -0.4790  1.0200  0.0207
43102SOL    HW247299   3.690   7.296  11.338 -1.7736  1.2235  0.1889
43103SOL     OW47300   8.873  11.610   0.892  0.4898 -0.3999 -0.3138
43103SOL    HW147301   8.811  11.659   0.837 -0.6562 -0.3111  0.9955
43103SOL    HW247302   8.926  11.677   0.933  0.6360 -0.4087 -0.4867
43104SOL     OW47303   6.879   3.413   3.918  0.6189  0.9278 -0.0579
43104SOL    HW147304   6.807   3.384   3.974  0.5350  0.0494 -0.6022
43104SOL    HW247305   6.849   3.496   3.882  0.8430  1.7320  1.4925
43105SOL     OW47306   7.743   0.445  11.062 -0.0190  0.2641 -0.5260
43105SOL    HW147307   7.710   0.535  11.069 -1.7965 -0.3858  0.3188
43105SOL    HW247308   7.770   0.423  11.152 -0.5343 -0.3576 -0.5171
43106SOL     OW47309   2.834  13.278   7.223  0.4151 -0.5092 -0.2174
43106SOL    HW147310   2.835  13.290   7.318 -0.6125 -1.0205 -0.1199
43106SOL    HW247311   2.910  13.223   7.205  0.2987 -0.8813  0.3852
43107SOL     OW47312  10.777   6.636   2.147 -0.2367 -0.4246  0.3149
43107SOL    HW147313  10.701   6.685   2.117  0.2347  0.0721 -0.0828
43107SOL    HW247314  10.833   6.702   2.190 -0.3261 -0.8952  1.1916
43108SOL     OW47315   9.203   5.737   2.412  0.0448  0.6348  0.1684
43108SOL    HW147316   9.260   5.662   2.395 -0.2552  0.6149 -0.8082
43108SOL    HW247317   9.243   5.808   2.362  0.3280  1.1337  1.0880
43109SOL     OW47318   5.244  11.538   7.908 -0.4820  0.1393  0.7969
43109SOL    HW147319   5.224  11.485   7.986  2.6266 -1.7154  0.5318
43109SOL    HW247320   5.229  11.478   7.835 -1.0430  1.0762  0.1346
43110SOL     OW47321   9.379   0.886   2.061  0.3165  0.3048  0.0682
43110SOL    HW147322   9.455   0.935   2.093  0.6872  1.2783 -2.1458
43110SOL    HW247323   9.407   0.852   1.976 -1.6621  0.5406 -0.7130
43111SOL     OW47324   5.857  12.940   0.592  0.1207  0.0749  0.0199
43111SOL    HW147325   5.817  12.985   0.518  0.7008  0.4495 -0.0725
43111SOL    HW247326   5.844  12.998   0.666  1.8655  0.9724 -0.3186
43112SOL     OW47327   9.818   1.098   4.015 -0.2061 -0.0163  0.2481
43112SOL    HW147328   9.846   1.087   3.924  0.4249 -1.5686  0.6023
43112SOL    HW247329   9.849   1.186   4.039 -0.4035  0.4239 -1.0233
43113SOL     OW47330   5.400   4.102  10.076 -0.2064 -0.1501 -0.0034
43113SOL    HW147331   5.383   4.029  10.135  2.7243 -1.2723 -0.3470
43113SOL    HW247332   5.476   4.146  10.115 -0.0507  0.8617 -1.3947
43114SOL     OW47333  12.249   1.356  11.699  0.3421  0.0701  0.8904
43114SOL    HW147334  12.199   1.308  11.765  0.3570 -1.2879 -0.0413
43114SOL    HW247335  12.340   1.339  11.720  0.3445 -0.6783  0.3344
43115SOL     OW47336  10.312   5.922  13.350 -0.7611  0.3947  0.0758
43115SOL    HW147337  10.253   5.874  13.409 -2.9609  0.1612 -2.1641
43115SOL    HW247338  10.267   6.004  13.332  0.9288  1.4488  0.4025
43116SOL     OW47339   9.361   5.454  10.956 -0.1734 -0.6280  0.3657
43116SOL    HW147340   9.324   5.541  10.972  1.7135  0.5426 -1.3393
43116SOL    HW247341   9.353   5.441  10.862  0.8520 -1.7107  0.4063
43117SOL     OW47342   8.897  12.003   3.662 -0.0021  0.7257  0.2882
43117SOL    HW147343   8.854  12.016   3.577  1.3504  1.3417 -0.3326
43117SOL    HW247344   8.830  11.961   3.716 -0.9488  0.4630 -1.0252
43118SOL     OW47345   4.859  12.150   5.429 -0.0619  0.1754 -0.2104
43118SOL    HW147346   4.925  12.202   5.382 -0.6544  0.9691 -0.1725
43118SOL    HW247347   4.783  12.152   5.372  0.2368 -1.5692 -0.7245
43119SOL     OW47348   1.406  13.044   4.904 -0.2660  0.0873 -0.6602
43119SOL    HW147349   1.427  13.131   4.940  1.4149 -0.2445 -0.7490
43119SOL    HW247350   1.346  13.062   4.831  0.4499  1.2337 -0.9926
43120SOL     OW47351   8.368   6.797   6.229  0.0227  0.3030 -0.5671
43120SOL    HW147352   8.285   6.753   6.207  0.1746 -0.7471  0.8199
43120SOL    HW247353   8.414   6.803   6.145 -0.9503 -0.1984 -1.1664
43121SOL     OW47354   9.995   0.136   1.995 -0.0467 -0.5180  0.0449
43121SOL    HW147355   9.924   0.090   1.952  0.5127 -0.4940 -0.9559
43121SOL    HW247356  10.004   0.218   1.945 -0.0955  0.0309  0.9043
43122SOL     OW47357  13.106   4.194   5.613 -0.1895 -0.4693  0.9732
43122SOL    HW147358  13.018   4.226   5.596  0.8630  1.5796 -1.1914
43122SOL    HW247359  13.146   4.187   5.526  1.0385 -3.8624  1.6347
43123SOL     OW47360   9.994   7.617   8.363  0.4795 -0.3932 -0.4426
43123SOL    HW147361   9.957   7.604   8.275  0.3180 -1.4206 -0.2350
43123SOL    HW247362  10.075   7.666   8.348 -0.9282  1.9054 -0.9101
43124SOL     OW47363   9.325   5.832   4.079  0.3149  0.0922  0.0373
43124SOL    HW147364   9.305   5.891   4.153 -0.1556 -1.1844  0.9632
43124SOL    HW247365   9.244   5.829   4.028  0.6201  0.9240 -0.5222
43125SOL     OW47366   7.408   8.291   7.655  0.2234  0.0862 -0.2638
43125SOL    HW147367   7.393   8.327   7.567  0.7513  1.2969  0.1318
43125SOL    HW247368   7.424   8.367   7.710 -1.7051 -0.5092  1.2446
43126SOL     OW47369   7.730   3.635   6.571  0.5207 -0.0942  0.2231
43126SOL    HW147370   7.726   3.686   6.490  1.1029  0.9629  0.8238
43126SOL    HW247371   7.738   3.702   6.640  1.4478 -1.0119  1.0317
43127SOL     OW47372   1.798   2.851   6.967 -0.7023 -0.5768 -0.1925
43127SOL    HW147373   1.863   2.784   6.947  0.2517  0.2003  0.2070
43127SOL    HW247374   1.737   2.809   7.027  1.1494 -0.4703  1.8938
43128SOL     OW47375  10.748   8.060   0.250 -0.3025 -0.4022  0.0723
43128SOL    HW147376  10.792   8.005   0.186 -0.2979  0.4670 -0.6911
43128SOL    HW247377  10.697   8.122   0.198 -2.1893 -1.1571  0.9090
43129SOL     OW47378   6.739  12.878  10.495 -0.1177  0.2476 -0.3219
43129SOL    HW147379   6.745  12.917  10.409  0.3041 -1.0180 -0.8990
43129SOL    HW247380   6.706  12.789  10.479 -1.1610  0.3739  0.9362
43130SOL     OW47381  12.775   8.550  10.616  0.1464 -0.7173  0.3619
43130SOL    HW147382  12.834   8.492  10.664 -0.0488 -1.4096 -0.2252
43130SOL    HW247383  12.698   8.496  10.598  0.1524 -0.4154 -0.5902
43131SOL     OW47384   5.838  11.481   5.236  0.3715  0.4154 -0.3726
43131SOL    HW147385   5.749  11.470   5.269  0.7439 -2.1476 -0.0042
43131SOL    HW247386   5.872  11.392   5.229  3.4483  1.3547  0.9318
43132SOL     OW47387  10.791   5.503   9.785  0.1064  0.0035  0.2602
43132SOL    HW147388  10.841   5.579   9.756 -1.0760  0.7845  0.1975
43132SOL    HW247389  10.850   5.458   9.845  1.3592  0.1722 -0.7908
43133SOL     OW47390  10.215   6.409   8.585  0.5085 -0.4706  0.0271
43133SOL    HW147391  10.182   6.498   8.594 -0.7629 -0.9476  0.2624
43133SOL    HW247392  10.283   6.401   8.652  2.2543  1.0104 -1.4490
43134SOL     OW47393   7.008   0.076  14.149  0.4083  0.1231 -0.3418
43134SOL    HW147394   6.926   0.076  14.099 -1.3260 -0.7148  2.2929
43134SOL    HW247395   7.064   0.138  14.103 -2.2624  1.9629 -1.3504
43135SOL     OW47396  12.769  10.117   4.406  0.1949 -0.0577 -0.1203
43135SOL    HW147397  12.722  10.188   4.362 -1.3330 -1.2869 -0.5679
43135SOL    HW247398  12.838  10.161   4.455 -0.4479  1.6921 -0.6939
43136SOL     OW47399  10.241   8.880   2.941 -0.3287 -0.2432 -0.3675
43136SOL    HW147400  10.166   8.903   2.997 -0.3401  0.4759 -0.6673
43136SOL    HW247401  10.240   8.784   2.939  0.5774 -0.3915  2.1106
43137SOL     OW47402  14.050   6.077  13.983 -0.4214  0.2559 -0.7411
43137SOL    HW147403  14.117   6.070  14.051 -0.9547 -0.5037 -0.2630
43137SOL    HW247404  14.076   6.013  13.917 -0.0383  0.8136 -1.1307
43138SOL     OW47405   1.315   4.858  10.123 -0.3141  0.1330  0.3075
43138SOL    HW147406   1.348   4.875  10.211  2.1350  2.2892 -0.8902
43138SOL    HW247407   1.221   4.876  10.129 -0.3323 -0.3914  2.5637
43139SOL     OW47408   2.500  10.818  10.728 -0.2030 -0.0943  0.4522
43139SOL    HW147409   2.528  10.727  10.718  0.9180  0.2796  0.0769
43139SOL    HW247410   2.407  10.811  10.752 -0.0020 -1.3413  0.9728
43140SOL     OW47411   2.171   1.483   0.347 -0.0097 -0.2417 -0.5106
43140SOL    HW147412   2.198   1.407   0.296  1.3048 -0.9657  1.1666
43140SOL    HW247413   2.124   1.447   0.422 -0.2844  0.6695 -0.2318
43141SOL     OW47414   6.324  11.897  14.145 -0.1055  0.1732 -0.1013
43141SOL    HW147415   6.393  11.959  14.167  1.6351 -1.2936 -1.0787
43141SOL    HW247416   6.327  11.892  14.049 -0.7149 -0.8386 -0.0784
43142SOL     OW47417   9.457   3.990   4.946 -0.0879  0.2047  0.6388
43142SOL    HW147418   9.387   3.932   4.977  0.7788 -2.7267 -2.3570
43142SOL    HW247419   9.522   3.988   5.016 -0.8970 -1.0224  1.3972
43143SOL     OW47420   0.220   0.252   2.820  0.1740 -0.1248  0.1535
43143SOL    HW147421   0.148   0.268   2.881  0.1549 -0.3480  0.1885
43143SOL    HW247422   0.223   0.157   2.809 -0.7428 -0.0239 -1.2928
43144SOL     OW47423   7.512  12.184   5.600  0.1038 -0.4305  0.1815
43144SOL    HW147424   7.432  12.197   5.549  0.5582 -0.6030 -0.5942
43144SOL    HW247425   7.515  12.260   5.659  0.6187  0.9158 -1.4840
43145SOL     OW47426  13.351   2.447   1.715  0.5001 -0.3176  0.0202
43145SOL    HW147427  13.317   2.403   1.792 -0.9683  0.5262 -0.0992
43145SOL    HW247428  13.414   2.510   1.749  0.0694 -0.1476  0.5151
43146SOL     OW47429   8.695  10.175   8.523  0.4587  0.1169  0.0353
43146SOL    HW147430   8.662  10.171   8.433  2.1383  3.7120 -0.9275
43146SOL    HW247431   8.786  10.148   8.517  0.9389  1.5693  0.3563
43147SOL     OW47432  10.180   9.396  12.121 -0.4297  0.5956  0.2363
43147SOL    HW147433  10.145   9.317  12.081 -0.9040  1.7015 -1.6800
43147SOL    HW247434  10.106   9.433  12.171 -0.4955  0.3469  0.3230
43148SOL     OW47435  10.944   1.772  13.665  0.5355 -0.7539 -0.2764
43148SOL    HW147436  11.023   1.806  13.708  0.0142 -1.8146  1.6086
43148SOL    HW247437  10.978   1.715  13.596  1.4100 -0.3705 -0.1878
43149SOL     OW47438  13.526   7.327   3.371 -0.0301  0.0829 -0.0101
43149SOL    HW147439  13.517   7.285   3.285  0.3874  2.3138 -1.2284
43149SOL    HW247440  13.454   7.390   3.375 -1.2315 -1.3216  2.1674
43150SOL     OW47441   6.129   4.675   4.469 -0.3306 -0.7107 -0.6156
43150SOL    HW147442   6.158   4.693   4.380  0.3347 -0.7463 -0.4116
43150SOL    HW247443   6.038   4.703   4.471 -0.0705  0.1923 -1.0422
43151SOL     OW47444  12.602  12.972   9.675  0.0053 -0.1896 -0.0395
43151SOL    HW147445  12.611  12.877   9.664 -1.0632 -0.2259 -0.6884
43151SOL    HW247446  12.625  12.987   9.767 -1.4205 -1.2990  0.5419
43152SOL     OW47447  10.216   2.538   5.232  0.0644 -0.6211  0.0983
43152SOL    HW147448  10.247   2.628   5.242 -0.5771 -0.4540  0.6901
43152SOL    HW247449  10.209   2.504   5.321 -0.5065 -0.9726 -0.0681
43153SOL     OW47450  10.325   4.115   7.752  0.3707 -0.0398 -0.1988
43153SOL    HW147451  10.418   4.127   7.735 -0.2485  2.3156 -2.6959
43153SOL    HW247452  10.308   4.171   7.829  0.6185  1.6981 -1.3486
43154SOL     OW47453   1.034   9.273   1.394  0.0655  0.0498 -0.1005
43154SOL    HW147454   0.940   9.272   1.411  0.3662  0.2274  1.8507
43154SOL    HW247455   1.053   9.188   1.356 -1.0012  0.3438 -1.3216
43155SOL     OW47456   8.747   3.231   1.163 -0.1891  0.6814  0.2386
43155SOL    HW147457   8.839   3.205   1.172 -0.3621  0.0358  0.2155
43155SOL    HW247458   8.715   3.178   1.090 -0.1252  2.1858 -0.9212
43156SOL     OW47459   6.467   7.715   9.124 -0.3360  0.2335 -0.2200
43156SOL    HW147460   6.383   7.735   9.164 -0.5271  1.1086 -1.0480
43156SOL    HW247461   6.488   7.792   9.071  0.5045 -0.3863 -0.8123
43157SOL     OW47462  12.534   8.417   7.263  0.5847  0.3189  0.3763
43157SOL    HW147463  12.439   8.402   7.255  0.5447  0.0252  1.3020
43157SOL    HW247464  12.554   8.397   7.354  1.5873  0.1348  0.1298
43158SOL     OW47465   7.612   8.341  11.375 -0.2553 -0.0036  0.4686
43158SOL    HW147466   7.618   8.437  11.370 -1.6850  0.0669 -0.3632
43158SOL    HW247467   7.678   8.317  11.440 -0.1927  1.5912  1.0545
43159SOL     OW47468   2.215  13.981  11.889  0.3944  0.0081  0.1722
43159SOL    HW147469   2.271  13.995  11.812 -0.2933 -0.4958 -0.4306
43159SOL    HW247470   2.126  13.996  11.857  0.0886 -0.3525  0.8404
43160SOL     OW47471  11.449   1.424  11.274  0.5302 -0.4561  0.2646
43160SOL    HW147472  11.533   1.450  11.237 -0.1535  0.9276 -0.4469
43160SOL    HW247473  11.411   1.366  11.208  0.0493  0.6278 -0.4473
43161SOL     OW47474   7.130   7.506   8.734 -0.1033 -0.1203 -0.6405
43161SOL    HW147475   7.075   7.439   8.774 -0.4882 -0.3765 -1.5804
43161SOL    HW247476   7.071   7.557   8.678  0.4374  0.1648 -0.9660
43162SOL     OW47477   8.220   7.239   5.780  0.6086  0.5227  0.6771
43162SOL    HW147478   8.297   7.288   5.809  1.0845  0.4443 -0.4224
43162SOL    HW247479   8.149   7.271   5.836  0.7319  3.0512 -0.5074
43163SOL     OW47480   1.540   8.126   3.251  0.0798  0.0543 -0.0071
43163SOL    HW147481   1.517   8.095   3.163 -1.0100 -0.8255  0.5619
43163SOL    HW247482   1.633   8.150   3.244  0.2668 -0.8694 -1.1659
43164SOL     OW47483  13.311   4.397   3.164  0.1299  0.7733  0.0724
43164SOL    HW147484  13.254   4.335   3.116  1.5277  0.0811 -0.7670
43164SOL    HW247485  13.295   4.378   3.256 -0.5543  0.1714 -0.1617
43165SOL     OW47486   1.190   9.941   7.627  0.2936  0.1556  0.6596
43165SOL    HW147487   1.272   9.970   7.666  2.3953 -1.7362 -2.0329
43165SOL    HW247488   1.161  10.014   7.573  1.2004  0.1577  0.1735
43166SOL     OW47489   6.329   9.023   8.576 -0.1171  0.1796  0.1837
43166SOL    HW147490   6.389   9.023   8.502  1.1207  1.2646  1.1444
43166SOL    HW247491   6.358   8.950   8.631 -0.8626 -0.4527 -0.2383
43167SOL     OW47492  11.070   1.335   5.487  0.4647 -0.0409 -0.0851
43167SOL    HW147493  10.988   1.349   5.439 -0.3681 -0.4598  1.1690
43167SOL    HW247494  11.084   1.417   5.534  2.2508  1.0715 -2.3382
43168SOL     OW47495   7.756   1.173  10.156  0.5235  0.3831 -0.2834
43168SOL    HW147496   7.796   1.101  10.205 -1.0000 -1.0179 -0.9759
43168SOL    HW247497   7.797   1.170  10.070  0.7835  0.6517 -0.1709
43169SOL     OW47498   1.964   0.473   0.228  0.2771 -0.4177 -0.3974
43169SOL    HW147499   1.967   0.497   0.135 -1.0210 -0.0977 -0.3690
43169SOL    HW247500   2.052   0.441   0.247  0.5602 -0.4958 -1.7410
43170SOL     OW47501   6.054   6.707  12.695 -0.1327 -0.1217  0.1072
43170SOL    HW147502   6.104   6.633  12.730  0.1285 -0.6148 -1.2436
43170SOL    HW247503   5.964   6.674  12.688 -0.4671  0.4162  1.5243
43171SOL     OW47504   0.054   8.731  12.244  0.1439 -0.4114 -0.5907
43171SOL    HW147505   0.025   8.814  12.206  0.4601 -1.3101 -2.9357
43171SOL    HW247506  -0.009   8.713  12.314 -0.1274  1.6105 -0.2741
43172SOL     OW47507   9.545   5.996   9.411 -0.7893  0.1552 -0.0390
43172SOL    HW147508   9.526   6.089   9.420 -0.0153  0.3439 -0.3204
43172SOL    HW247509   9.477   5.953   9.464 -1.2255  0.8646 -0.0073
43173SOL     OW47510   2.254   2.513  11.539  0.7179 -0.7472  0.2622
43173SOL    HW147511   2.329   2.560  11.503  1.0841 -2.4704 -1.4122
43173SOL    HW247512   2.269   2.511  11.633  0.2783  3.0514  0.5492
43174SOL     OW47513   6.835   0.156  11.892 -0.2792 -0.0642 -0.0622
43174SOL    HW147514   6.806   0.087  11.833  1.0997  0.0681 -0.9281
43174SOL    HW247515   6.908   0.198  11.847  1.7753 -0.8546  2.2856
43175SOL     OW47516   8.693   9.178   9.155 -0.1740  0.0160  0.1615
43175SOL    HW147517   8.655   9.186   9.067 -0.2248  0.3414  0.2106
43175SOL    HW247518   8.745   9.098   9.151 -0.4527 -0.1564 -0.0606
43176SOL     OW47519   3.236   5.450   2.972  0.3156  0.2517 -0.1375
43176SOL    HW147520   3.226   5.355   2.979  1.4787  0.1069 -0.3432
43176SOL    HW247521   3.305   5.462   2.908  0.4099  1.2387  0.1394
43177SOL     OW47522  11.430  13.015   3.804 -0.0726  0.2332  0.2310
43177SOL    HW147523  11.504  13.034   3.747 -0.5678  0.2536 -0.4103
43177SOL    HW247524  11.401  12.927   3.779 -1.3098  0.8770 -0.6913
43178SOL     OW47525   2.310   1.480  12.895  0.3338  0.3099  0.1492
43178SOL    HW147526   2.356   1.473  12.978  2.3666  1.3881 -0.8228
43178SOL    HW247527   2.298   1.574  12.881 -0.9165  0.1075 -0.3297
43179SOL     OW47528   0.221   9.891   9.393 -0.2841  0.3571  0.1529
43179SOL    HW147529   0.300   9.931   9.427 -0.5627  0.8574  0.2241
43179SOL    HW247530   0.237   9.883   9.299  0.8152 -1.7791  0.4598
43180SOL     OW47531   7.911   7.047   2.102 -0.1075  0.0547 -0.2612
43180SOL    HW147532   7.868   7.001   2.030 -0.5872 -0.2133  0.1900
43180SOL    HW247533   7.844   7.105   2.138 -0.3245 -0.8689  0.8820
43181SOL     OW47534   1.417   8.843   4.123  0.4982  0.3610  0.1006
43181SOL    HW147535   1.510   8.868   4.121  1.2057 -1.8497  1.2508
43181SOL    HW247536   1.389   8.863   4.212  1.1374 -2.6315  1.1278
43182SOL     OW47537  12.294  10.535   9.490 -0.4187 -0.3754 -0.3016
43182SOL    HW147538  12.254  10.499   9.569 -0.6123 -0.3131 -0.3690
43182SOL    HW247539  12.374  10.578   9.520 -0.9487  0.4360  0.0006
43183SOL     OW47540   6.144   9.154   8.358  0.1460 -0.2262  0.6907
43183SOL    HW147541   6.212   9.192   8.414  0.5555  0.0534  0.0209
43183SOL    HW247542   6.140   9.062   8.385  3.1219 -1.1361 -1.3431
43184SOL     OW47543   7.803  12.898   2.582  0.7771 -0.2947  0.1081
43184SOL    HW147544   7.826  12.818   2.535  2.3017 -0.1121  0.5130
43184SOL    HW247545   7.826  12.881   2.673 -2.7221 -0.8669  1.0226
43185SOL     OW47546   6.277   0.238   9.933 -0.2392  0.2411 -0.0510
43185SOL    HW147547   6.291   0.234   9.839 -1.0040 -0.2411 -0.1495
43185SOL    HW247548   6.238   0.324   9.948  0.0775  0.4041 -0.1375
43186SOL     OW47549   0.003  11.532  13.369  0.2010 -0.1132  0.8640
43186SOL    HW147550  -0.010  11.461  13.432 -1.7593 -1.3338 -0.7843
43186SOL    HW247551   0.003  11.489  13.284 -0.6045  1.8162 -0.1760
43187SOL     OW47552   6.726  12.922  13.435 -0.6770  0.1483  0.2262
43187SOL    HW147553   6.707  13.001  13.484 -0.8909 -0.1811  0.6849
43187SOL    HW247554   6.799  12.881  13.483  1.5213  1.5585 -1.6754
43188SOL     OW47555   2.402  13.705   9.291  0.4172 -0.4193 -0.0917
43188SOL    HW147556   2.425  13.617   9.262 -1.3149 -0.3221 -1.9696
43188SOL    HW247557   2.351  13.692   9.371 -0.4884 -1.2238 -0.7729
43189SOL     OW47558   0.330  11.805   8.445 -0.1982  0.0329  0.8082
43189SOL    HW147559   0.319  11.897   8.420 -1.9471 -0.5873 -0.9465
43189SOL    HW247560   0.362  11.809   8.536 -0.8915  2.3557  1.0284
43190SOL     OW47561  13.120   9.625   5.627  0.1638 -0.1696  0.2918
43190SOL    HW147562  13.207   9.624   5.668  1.8540  1.5685 -2.8165
43190SOL    HW247563  13.091   9.716   5.636 -0.9876 -0.5565  0.5916
43191SOL     OW47564  10.775   0.769   8.004  0.1263  0.2085 -0.0816
43191SOL    HW147565  10.824   0.845   7.972 -3.2170  2.5367 -0.1509
43191SOL    HW247566  10.754   0.718   7.925 -0.3133  0.9543 -0.4493
43192SOL     OW47567   1.167   7.597   6.941  0.0628  0.2482 -0.3926
43192SOL    HW147568   1.169   7.510   6.901  0.8556  0.5500 -1.0299
43192SOL    HW247569   1.216   7.587   7.023  0.5620  0.1967 -0.6939
43193SOL     OW47570   8.072   0.425   8.833  0.3331 -0.5325  0.0438
43193SOL    HW147571   8.109   0.365   8.768 -0.2195 -1.0367  0.1882
43193SOL    HW247572   7.978   0.425   8.816  0.3180  0.2707  0.0741
43194SOL     OW47573   5.980   9.947   0.640  0.1798 -0.2183 -0.3248
43194SOL    HW147574   6.073   9.929   0.628  0.5281  0.4909  1.0909
43194SOL    HW247575   5.970  10.039   0.614  0.2608  0.2557  1.2116
43195SOL     OW47576   4.062   6.217  12.984 -0.2152 -0.3419 -0.1460
43195SOL    HW147577   4.093   6.205  12.894 -0.8668 -0.8043 -0.3187
43195SOL    HW247578   3.996   6.148  12.996  0.2383 -0.6167  0.8669
43196SOL     OW47579   4.221   5.396   5.818 -0.6890  0.3600  0.3318
43196SOL    HW147580   4.240   5.482   5.780 -1.8165  1.8642  2.9411
43196SOL    HW247581   4.137   5.371   5.780 -0.7509  0.7806  0.1885
43197SOL     OW47582   3.245  12.832   9.551 -0.0538 -0.1916  0.0610
43197SOL    HW147583   3.237  12.912   9.603  0.4873 -0.2483  0.2374
43197SOL    HW247584   3.278  12.863   9.466 -1.1556 -0.0706 -0.3402
43198SOL     OW47585   0.232  11.947  12.024 -0.1567 -0.2581  0.6537
43198SOL    HW147586   0.188  11.877  11.975  0.3746 -0.9723  1.1774
43198SOL    HW247587   0.224  12.025  11.968 -0.7882 -0.7305  0.0828
43199SOL     OW47588   1.233  13.774   6.653  0.7026  0.9846  0.0358
43199SOL    HW147589   1.200  13.734   6.572 -1.0036  0.3095  1.0034
43199SOL    HW247590   1.261  13.862   6.627  1.5552  0.2763 -1.5416
43200SOL     OW47591   8.862   5.135   5.639  0.5963 -0.0099  0.2979
43200SOL    HW147592   8.906   5.143   5.555  2.3648 -0.4406  1.1317
43200SOL    HW247593   8.911   5.194   5.697 -1.9097  1.9761  0.5857
43201SOL     OW47594  12.073  11.660   4.998 -0.1393 -0.7801 -0.4477
43201SOL    HW147595  12.140  11.595   4.978 -0.1792 -0.3662 -2.0376
43201SOL    HW247596  12.003  11.643   4.935 -0.6535  0.0697 -0.1233
43202SOL     OW47597   4.720   1.905   2.415  0.4274  0.1483  0.2510
43202SOL    HW147598   4.711   1.947   2.500 -1.7392  0.3499 -0.0282
43202SOL    HW247599   4.703   1.974   2.352  0.2840 -0.3726 -0.2912
43203SOL     OW47600   0.316   3.276   0.849  0.2292 -0.0674  0.3771
43203SOL    HW147601   0.259   3.254   0.776  2.6471 -1.4376 -1.2407
43203SOL    HW247602   0.349   3.364   0.828  0.8791 -0.4382 -0.1847
43204SOL     OW47603  12.830  10.513  10.431  0.1073 -0.3269 -0.5922
43204SOL    HW147604  12.908  10.517  10.485 -0.8589  0.1258  0.8147
43204SOL    HW247605  12.854  10.559  10.350  1.5226 -0.8871 -0.5202
43205SOL     OW47606   9.158  12.765   1.521  0.5968  0.4098 -0.5082
43205SOL    HW147607   9.112  12.785   1.439  0.5137 -2.4967 -1.2830
43205SOL    HW247608   9.111  12.690   1.558  1.0336  1.2343  1.9144
43206SOL     OW47609   1.451   4.715  12.641 -0.3918  0.2154 -0.1761
43206SOL    HW147610   1.481   4.695  12.552 -2.2969  0.2070 -0.8656
43206SOL    HW247611   1.423   4.630  12.676 -2.5046  0.5933 -0.7560
43207SOL     OW47612   1.236  10.804   0.962  0.0901 -0.3072  0.1357
43207SOL    HW147613   1.214  10.728   1.015 -0.3811 -2.2197 -2.5984
43207SOL    HW247614   1.299  10.772   0.898 -1.2619  1.1336 -2.0872
43208SOL     OW47615   3.908  13.393   4.446 -0.2502  0.2504 -0.1673
43208SOL    HW147616   3.909  13.341   4.365  0.1704 -0.3853  0.2373
43208SOL    HW247617   3.956  13.339   4.509 -2.8823 -0.5029  1.2972
43209SOL     OW47618   4.365   3.195  12.515  0.0331 -0.0777  0.3013
43209SOL    HW147619   4.406   3.205  12.429 -0.5479 -1.3875 -0.1598
43209SOL    HW247620   4.436   3.168  12.572  0.4392  0.8734  0.2659
43210SOL     OW47621   9.189   4.885   4.719  0.5238  0.0066 -0.4899
43210SOL    HW147622   9.256   4.843   4.666 -0.2325 -2.4603  0.3577
43210SOL    HW247623   9.206   4.855   4.808 -1.3093 -0.2020 -0.1624
43211SOL     OW47624   1.988  10.257   3.359 -0.1883  0.5668 -1.0027
43211SOL    HW147625   1.995  10.165   3.333 -1.8172 -1.1125  3.5665
43211SOL    HW247626   2.079  10.288   3.366  0.3742 -0.5449 -2.8320
43212SOL     OW47627  12.966   1.271   9.371 -0.3775  0.1931 -0.1565
43212SOL    HW147628  12.983   1.219   9.450 -0.8602  0.8970  0.4322
43212SOL    HW247629  12.872   1.288   9.374 -0.4479 -0.0090 -1.0459
43213SOL     OW47630  13.402  12.981  14.056  0.2823  1.0900 -0.3252
43213SOL    HW147631  13.429  12.892  14.031 -1.1740  0.1590  1.1884
43213SOL    HW247632  13.360  13.016  13.977 -0.0168  0.0456 -0.6509
43214SOL     OW47633   9.747   4.323  10.579 -0.1693 -0.5335 -0.2007
43214SOL    HW147634   9.687   4.394  10.602  0.8588  0.0475  0.8238
43214SOL    HW247635   9.801   4.359  10.509  1.0448  0.1262  1.0218
43215SOL     OW47636   2.023  10.637   3.959  0.9558 -0.0507  0.2461
43215SOL    HW147637   2.070  10.589   3.891 -0.1755 -0.4173 -0.3058
43215SOL    HW247638   1.991  10.716   3.916  0.5430 -0.1050  0.4388
43216SOL     OW47639  10.867   2.694   3.185  0.0710  0.0743  0.1658
43216SOL    HW147640  10.825   2.780   3.184 -1.2728 -0.5064 -2.0576
43216SOL    HW247641  10.950   2.707   3.138  0.0188  0.2260  0.1146
43217SOL     OW47642   4.260   3.780  13.479  0.4882  0.3055  0.0956
43217SOL    HW147643   4.288   3.785  13.570 -0.1371  0.1447  0.2971
43217SOL    HW247644   4.335   3.815  13.429  1.1462 -0.3592  0.6083
43218SOL     OW47645   0.281   7.820  12.129  0.0874  0.1779  0.4450
43218SOL    HW147646   0.344   7.751  12.152  0.0102 -1.0349 -2.4925
43218SOL    HW247647   0.327   7.873  12.064 -1.2522  0.4812 -0.2769
43219SOL     OW47648   0.304   0.279  12.608 -0.9638 -0.3248  0.0878
43219SOL    HW147649   0.235   0.341  12.583 -2.6887 -1.2942  2.0530
43219SOL    HW247650   0.256   0.199  12.629  0.4609 -0.4709  3.4180
43220SOL     OW47651   9.657  11.427   6.984 -0.0590  0.7599 -0.2400
43220SOL    HW147652   9.613  11.373   6.919 -2.7100  2.0082  0.3680
43220SOL    HW247653   9.595  11.432   7.057  2.5589 -0.1409  2.2432
43221SOL     OW47654  10.202  11.286   4.412  0.5319 -0.5684  0.0762
43221SOL    HW147655  10.167  11.310   4.498 -1.3905 -0.8928 -0.5803
43221SOL    HW247656  10.229  11.195   4.422 -0.6145 -0.9181  0.0760
43222SOL     OW47657   7.012   9.976   7.125 -0.0877  0.2385  0.5623
43222SOL    HW147658   6.958   9.899   7.104  1.2557 -0.4918 -0.3656
43222SOL    HW247659   6.965  10.019   7.197 -1.3712 -0.9158  0.4646
43223SOL     OW47660   7.493  12.216   0.692 -0.6405  0.0580  0.6969
43223SOL    HW147661   7.456  12.157   0.756  0.3633 -1.5022 -0.0941
43223SOL    HW247662   7.532  12.159   0.626 -0.3528  1.6029 -0.5421
43224SOL     OW47663  11.490   3.334   1.601 -0.0753  0.0044 -0.6446
43224SOL    HW147664  11.520   3.415   1.641  2.3877 -1.3922  0.5878
43224SOL    HW247665  11.532   3.334   1.514  0.3876 -0.1740 -0.4267
43225SOL     OW47666   3.942  11.342   2.297  0.3088  0.4940 -0.0409
43225SOL    HW147667   3.867  11.340   2.357  0.9206  1.3455  0.7886
43225SOL    HW247668   3.905  11.319   2.212 -0.6327 -0.4966  0.6008
43226SOL     OW47669  12.958   5.844  10.484 -0.5327  0.2461 -0.0763
43226SOL    HW147670  12.965   5.922  10.429 -0.6147  0.6534  0.4778
43226SOL    HW247671  12.993   5.872  10.569 -0.7901 -0.2511  0.1945
43227SOL     OW47672  12.461   6.578   0.995  0.4380  0.2630 -0.0949
43227SOL    HW147673  12.518   6.549   0.924  1.9191 -0.3134  1.2688
43227SOL    HW247674  12.430   6.664   0.967  1.4111  0.2747 -1.2147
43228SOL     OW47675  11.898   2.388   9.769  0.6857  0.2168  0.1109
43228SOL    HW147676  11.882   2.295   9.752  1.5172  0.2041 -0.6963
43228SOL    HW247677  11.853   2.405   9.851 -0.6355 -0.5626 -0.4158
43229SOL     OW47678   6.755  11.875   2.024 -0.0875 -0.1276  0.4294
43229SOL    HW147679   6.846  11.904   2.025  0.5934 -1.8936 -1.6051
43229SOL    HW247680   6.760  11.782   2.044 -1.4910 -0.1986  0.5221
43230SOL     OW47681  13.623  12.184   8.192 -0.1547  0.0093 -0.1573
43230SOL    HW147682  13.560  12.124   8.151  2.8621 -2.2820 -1.8149
43230SOL    HW247683  13.642  12.143   8.277 -0.8304  0.7094  0.3501
43231SOL     OW47684   1.314   0.739   8.345  0.7401 -0.0282 -0.0744
43231SOL    HW147685   1.229   0.751   8.388 -1.0440 -0.2491 -3.1936
43231SOL    HW247686   1.356   0.669   8.395 -0.7280  0.3416  1.8139
43232SOL     OW47687   5.641  13.128   6.861 -0.5255  0.2216 -0.1292
43232SOL    HW147688   5.560  13.151   6.906 -0.1821 -0.2870  0.7681
43232SOL    HW247689   5.707  13.186   6.899 -0.1618 -0.4665  0.3093
43233SOL     OW47690   3.155   5.744   3.708  0.3525 -0.4734  0.3512
43233SOL    HW147691   3.119   5.783   3.787 -1.6314 -1.2260 -0.1142
43233SOL    HW247692   3.243   5.716   3.732  0.5251  1.1236  1.6820
43234SOL     OW47693   0.096   2.405  11.241  0.2175  0.0476 -0.0296
43234SOL    HW147694   0.077   2.341  11.310  1.7214 -0.3951  0.0163
43234SOL    HW247695   0.131   2.352  11.169  0.2971  0.6958 -0.4676
43235SOL     OW47696  12.430  12.722   1.409  0.4765  0.0407  0.1928
43235SOL    HW147697  12.372  12.792   1.378 -0.9539 -1.1345  0.0868
43235SOL    HW247698  12.495  12.711   1.340  1.0266  1.5717  0.4371
43236SOL     OW47699  12.468   9.513   7.115 -0.1068 -0.3159 -0.1886
43236SOL    HW147700  12.442   9.560   7.036 -0.8227 -0.1153  0.1622
43236SOL    HW247701  12.530   9.447   7.084  0.9034  0.8319 -0.6913
43237SOL     OW47702   2.794   3.469  14.093  0.2225  0.2313 -0.0629
43237SOL    HW147703   2.766   3.503  14.008  0.6990  0.6495 -0.0568
43237SOL    HW247704   2.780   3.374  14.086 -0.3166  0.3295 -0.3854
43238SOL     OW47705   6.921   3.442  12.374  0.6081  0.7543 -0.3431
43238SOL    HW147706   6.832   3.421  12.402  1.1569 -1.7728 -0.3071
43238SOL    HW247707   6.915   3.446  12.279  0.7610 -1.2127 -0.4640
43239SOL     OW47708   6.061  11.125   0.455 -0.0463 -0.1564 -0.6053
43239SOL    HW147709   6.113  11.142   0.377  1.6489  2.8271  1.0019
43239SOL    HW247710   5.977  11.166   0.437  0.3758  0.6192 -0.8414
43240SOL     OW47711   2.947   7.490   9.384 -0.0008 -0.0916  0.3359
43240SOL    HW147712   2.997   7.554   9.434  0.8870 -0.3121 -0.2424
43240SOL    HW247713   2.898   7.542   9.321  2.3298 -0.0319 -1.5640
43241SOL     OW47714   5.219   2.081  11.807  0.1909 -0.2688 -0.0355
43241SOL    HW147715   5.146   2.019  11.803  0.4471 -0.5835  0.1021
43241SOL    HW247716   5.226   2.104  11.899 -0.3758  0.5359 -0.1919
43242SOL     OW47717  13.742  11.362   4.351  0.1238  0.4234  0.0552
43242SOL    HW147718  13.717  11.361   4.443  1.9749 -0.3086  0.5985
43242SOL    HW247719  13.673  11.313   4.307 -0.1147 -0.3546  1.2500
43243SOL     OW47720  12.997   0.193   2.035  0.3103 -0.2636  0.0249
43243SOL    HW147721  13.001   0.105   2.073  0.2781  0.0132  0.6853
43243SOL    HW247722  12.997   0.251   2.111  1.1030  0.3378 -0.4167
43244SOL     OW47723  13.249  10.597  12.397 -0.2992 -0.6591  0.6045
43244SOL    HW147724  13.334  10.613  12.356 -0.7527  1.3197  0.3083
43244SOL    HW247725  13.240  10.502  12.398  1.6483 -0.8912  0.1136
43245SOL     OW47726  11.501  10.386   4.354  0.2973 -0.1208 -0.4274
43245SOL    HW147727  11.537  10.452   4.413  0.3369 -0.1460 -0.4234
43245SOL    HW247728  11.440  10.433   4.298  0.5938 -0.0146 -0.6644
43246SOL     OW47729   0.861   6.789  12.277 -0.5469  0.2256 -0.7721
43246SOL    HW147730   0.928   6.737  12.233 -1.4259  0.7155 -2.8076
43246SOL    HW247731   0.872   6.877  12.241 -1.9689  0.4215 -0.7961
43247SOL     OW47732   9.672  12.127   8.571 -0.0932 -0.7414 -0.5330
43247SOL    HW147733   9.766  12.121   8.557  0.1578  0.5805  0.3753
43247SOL    HW247734   9.633  12.104   8.487  1.0952  0.4070 -1.4255
43248SOL     OW47735   3.353   2.644  12.866 -0.6295 -0.0363  0.3688
43248SOL    HW147736   3.283   2.680  12.920 -0.7071 -0.8454  0.8218
43248SOL    HW247737   3.384   2.567  12.914 -0.0133 -0.1855 -0.2440
43249SOL     OW47738  12.078   3.780   5.776 -0.2142  0.6846  0.3358
43249SOL    HW147739  12.149   3.727   5.739  0.0687  0.2314  1.4836
43249SOL    HW247740  12.120   3.863   5.800  0.0686  0.1979  1.5576
43250SOL     OW47741   9.134   2.248  13.465 -0.0550  0.2618  0.1052
43250SOL    HW147742   9.102   2.304  13.535 -1.4081 -0.6425  0.2416
43250SOL    HW247743   9.067   2.180  13.455  1.0230 -0.7332 -0.7617
43251SOL     OW47744  10.760  12.838   9.910  0.7059 -0.0840  0.0361
43251SOL    HW147745  10.745  12.833   9.816 -1.0497 -0.5117  0.3049
43251SOL    HW247746  10.830  12.903   9.919 -0.7053  1.7846 -1.4465
43252SOL     OW47747   5.515   7.858  13.082 -0.0785 -0.1644  0.6141
43252SOL    HW147748   5.467   7.869  13.000 -0.6390 -0.0799  0.9466
43252SOL    HW247749   5.449   7.829  13.145  0.1041  0.8270  1.3038
43253SOL     OW47750  13.137   7.407   8.091 -0.4926  0.3401 -0.3297
43253SOL    HW147751  13.189   7.335   8.058  1.6749  1.6926 -0.0785
43253SOL    HW247752  13.049   7.371   8.102  0.6039 -2.3769  0.2749
43254SOL     OW47753  10.070   9.591   4.470  0.2774 -0.5053  0.0894
43254SOL    HW147754  10.058   9.526   4.401 -0.3307 -1.0052  0.6597
43254SOL    HW247755  10.028   9.553   4.547 -1.3968  1.1700  0.0715
43255SOL     OW47756  12.219   6.959  10.668  0.5464  0.1653  0.0267
43255SOL    HW147757  12.260   6.920  10.591  2.7333  1.4061  0.4549
43255SOL    HW247758  12.246   7.051  10.665 -0.7628  0.6294  1.3672
43256SOL     OW47759   7.769  11.747   7.910  0.2110 -0.3212  0.4574
43256SOL    HW147760   7.720  11.713   7.835  0.2150 -1.6692  1.0352
43256SOL    HW247761   7.839  11.682   7.924  0.8793  0.4886  0.9458
43257SOL     OW47762   1.110   1.834   7.046 -0.6616 -0.4792  0.0809
43257SOL    HW147763   1.114   1.928   7.034  0.1992 -0.5266 -0.1205
43257SOL    HW247764   1.019   1.816   7.070 -1.1554  0.2419 -1.1727
43258SOL     OW47765   5.783  10.695   0.567  0.2226  0.4084  0.6867
43258SOL    HW147766   5.708  10.742   0.531  0.8886 -0.2005 -1.6464
43258SOL    HW247767   5.827  10.658   0.491  1.7944 -0.9076  2.1594
43259SOL     OW47768  11.694   6.473  13.060  0.6390  0.1737 -0.1805
43259SOL    HW147769  11.619   6.428  13.099  0.6814  0.9939  0.8896
43259SOL    HW247770  11.754   6.402  13.035  0.2445 -0.4192  0.5021
43260SOL     OW47771   3.496   3.098  10.608  0.1799  0.2724 -0.5396
43260SOL    HW147772   3.419   3.143  10.643  0.9147  0.9976  0.1927
43260SOL    HW247773   3.519   3.034  10.676  0.2325  0.0594 -0.7556
43261SOL     OW47774   9.529   6.660   7.601  0.3461  0.1483 -0.2595
43261SOL    HW147775   9.606   6.655   7.657  0.0095 -0.4833  0.1569
43261SOL    HW247776   9.527   6.751   7.570 -0.6872  1.1775  2.5046
43262SOL     OW47777   5.368   3.768   6.756  0.4718 -0.2648  0.0357
43262SOL    HW147778   5.427   3.797   6.685 -0.5865 -0.5356 -0.9859
43262SOL    HW247779   5.427   3.743   6.827  1.5677  0.1914 -0.6805
43263SOL     OW47780   1.483  11.756  12.812 -0.0501  0.0344 -0.4704
43263SOL    HW147781   1.522  11.828  12.861 -0.5160  0.6611 -0.9987
43263SOL    HW247782   1.421  11.716  12.873 -0.4057  0.6197 -0.4331
43264SOL     OW47783  12.856   2.967   5.317 -0.5743  0.5451 -0.2744
43264SOL    HW147784  12.888   2.953   5.406  0.4116  2.2468 -0.3221
43264SOL    HW247785  12.916   2.917   5.262  0.5866  1.7540 -0.1668
43265SOL     OW47786   6.822   4.835  11.737 -0.2181 -0.0913  0.5726
43265SOL    HW147787   6.915   4.854  11.755 -0.4154  0.7000  0.7942
43265SOL    HW247788   6.796   4.901  11.673 -0.9663  0.5351  1.4820
43266SOL     OW47789   9.066   2.816   7.584 -0.1024  0.1406 -0.1711
43266SOL    HW147790   9.122   2.893   7.591  2.3847 -1.6481  0.7953
43266SOL    HW247791   8.978   2.849   7.605  1.0195  2.4863  1.2816
43267SOL     OW47792   4.849   7.381   0.419  0.1708 -0.1467  0.1325
43267SOL    HW147793   4.781   7.325   0.456 -0.8623  1.0925  0.1657
43267SOL    HW247794   4.862   7.349   0.330 -2.2513  1.1151 -0.7422
43268SOL     OW47795   0.175   2.195   7.940 -0.1471 -0.0491  0.2048
43268SOL    HW147796   0.270   2.207   7.945 -0.2900  0.8927  1.1451
43268SOL    HW247797   0.160   2.103   7.962  0.5368 -0.1734  0.1502
43269SOL     OW47798   0.137  10.605   3.580  0.5470  0.5377 -0.5495
43269SOL    HW147799   0.160  10.524   3.536  1.8709 -0.1290  1.2291
43269SOL    HW247800   0.108  10.578   3.667  0.7413  1.9358 -0.0166
43270SOL     OW47801   1.225   8.241   9.476  0.0196  0.5901 -0.1904
43270SOL    HW147802   1.168   8.271   9.405  0.6891  1.2881 -0.4487
43270SOL    HW247803   1.182   8.272   9.556 -1.9728 -2.1751 -0.0578
43271SOL     OW47804   5.108   8.587  12.851 -0.6575 -0.4054  0.8092
43271SOL    HW147805   5.161   8.586  12.771  0.1345  0.5180  1.3015
43271SOL    HW247806   5.018   8.572  12.821 -0.8805  2.9507 -0.6702
43272SOL     OW47807   6.021  13.414  11.763 -0.2020 -0.0233 -0.0050
43272SOL    HW147808   6.026  13.405  11.858  0.0562 -0.0624 -0.0215
43272SOL    HW247809   5.927  13.410  11.743 -0.2155 -0.7155  0.1782
43273SOL     OW47810   4.565   6.765  10.950  0.1226  0.2157  0.1503
43273SOL    HW147811   4.560   6.860  10.949  0.5786  0.2400  0.0568
43273SOL    HW247812   4.529   6.740  11.036  0.4649  0.4993  0.3780
43274SOL     OW47813   5.454  10.563   1.979 -0.4073 -0.5379 -0.3888
43274SOL    HW147814   5.492  10.553   1.892  0.6781  0.3504 -0.0367
43274SOL    HW247815   5.412  10.479   1.997 -0.8684 -0.6528 -1.8615
43275SOL     OW47816  10.082   1.996   9.234 -0.4611  0.0719  0.4394
43275SOL    HW147817  10.042   2.082   9.247  0.2604  0.4832 -0.0292
43275SOL    HW247818  10.107   1.968   9.322 -0.5596  0.4092  0.5750
43276SOL     OW47819   6.036   2.599   6.773  0.0002 -0.4628  0.1011
43276SOL    HW147820   5.988   2.585   6.691  1.2883 -1.9115 -0.4310
43276SOL    HW247821   6.122   2.631   6.746 -0.4060  1.5832  1.0283
43277SOL     OW47822   0.995   3.861  11.007  0.2392 -0.4514  0.2142
43277SOL    HW147823   1.028   3.783  10.962 -0.5583 -0.4764 -0.3536
43277SOL    HW247824   1.073   3.913  11.026  0.5884 -0.4368 -1.2072
43278SOL     OW47825   0.335  11.094   9.602 -0.2187  0.1327 -0.4023
43278SOL    HW147826   0.424  11.077   9.571  0.4912 -0.6154  1.8561
43278SOL    HW247827   0.302  11.008   9.629 -0.3459  0.8115  1.8406
43279SOL     OW47828   8.973  12.087  14.097  0.0532  0.2201 -0.1556
43279SOL    HW147829   8.921  12.148  14.149 -1.3217  0.7211 -1.9884
43279SOL    HW247830   9.003  12.140  14.022  1.0105 -0.7249 -0.4568
43280SOL     OW47831   1.974   2.810   5.449 -0.1383  0.1136 -0.0125
43280SOL    HW147832   1.949   2.865   5.524  2.0913 -0.2698  1.1035
43280SOL    HW247833   2.027   2.868   5.394 -1.4340  0.2756 -1.1421
43281SOL     OW47834   4.489   6.533   1.751 -0.2432 -0.1477 -0.1387
43281SOL    HW147835   4.558   6.568   1.695 -0.7784 -0.6942 -1.1805
43281SOL    HW247836   4.531   6.522   1.837  1.2339 -1.2935 -0.9539
43282SOL     OW47837   1.648   8.061  11.909  0.2670  0.1395  0.2599
43282SOL    HW147838   1.691   8.075  11.993 -1.2130  0.0794  1.0588
43282SOL    HW247839   1.690   7.983  11.873  0.0033 -0.6299  1.5629
43283SOL     OW47840   4.218   9.780   7.551 -0.0187  0.2630 -0.0910
43283SOL    HW147841   4.147   9.715   7.554 -0.0247  0.3018  2.4786
43283SOL    HW247842   4.182   9.852   7.499 -0.2863 -1.4045 -2.3642
43284SOL     OW47843   4.448   5.734   8.206  0.0074 -0.6052  0.3448
43284SOL    HW147844   4.387   5.790   8.255 -0.7822 -0.9624 -0.2172
43284SOL    HW247845   4.528   5.734   8.260 -0.9046 -1.1765  1.7618
43285SOL     OW47846  12.645   9.483  11.004  0.0526 -0.1085  0.0775
43285SOL    HW147847  12.691   9.504  11.085  0.7746  1.9051 -0.7994
43285SOL    HW247848  12.697   9.524  10.935 -1.7829  0.2226 -1.1882
43286SOL     OW47849   8.859   6.032  14.017  0.0141  0.0402 -0.3023
43286SOL    HW147850   8.848   6.038  14.112  1.0747  0.6895 -0.2046
43286SOL    HW247851   8.877   5.940  14.001  0.1563 -0.0182  0.1721
43287SOL     OW47852   7.035   2.068   9.650 -0.1053  0.2039 -0.1489
43287SOL    HW147853   6.943   2.046   9.667 -0.4961  0.8903 -1.2641
43287SOL    HW247854   7.084   2.009   9.706 -1.1541 -2.2000 -1.5969
43288SOL     OW47855   5.220   6.999  11.737  0.2680 -0.5229  0.1951
43288SOL    HW147856   5.304   7.019  11.778  0.1529  0.7297 -0.1403
43288SOL    HW247857   5.158   7.057  11.782 -0.1121 -0.2204 -0.7044
43289SOL     OW47858  10.843   8.498   9.926 -0.1545 -0.1315  0.1038
43289SOL    HW147859  10.759   8.465   9.957  0.1243 -0.0502  0.9579
43289SOL    HW247860  10.826   8.588   9.899 -0.2800 -0.0267  0.5384
43290SOL     OW47861   5.497   0.818  12.882 -0.5072 -0.2970 -0.1395
43290SOL    HW147862   5.436   0.833  12.810  0.2812 -0.5516 -0.8718
43290SOL    HW247863   5.555   0.749  12.851 -0.2772 -0.5564  0.8224
43291SOL     OW47864  10.693   9.001  13.800  0.3338 -0.7318 -0.3896
43291SOL    HW147865  10.718   8.911  13.780 -1.1007 -0.9946 -1.0777
43291SOL    HW247866  10.691   9.005  13.895  1.4599 -1.1140 -0.3350
43292SOL     OW47867   9.016  11.895  13.831 -0.3746 -0.6323  0.0503
43292SOL    HW147868   8.979  11.846  13.905  0.4074  0.3239  1.1071
43292SOL    HW247869   9.040  11.828  13.767  2.1176 -1.8857  2.0904
43293SOL     OW47870   9.761  11.792   7.000  0.6119 -0.6450  0.8420
43293SOL    HW147871   9.734  11.849   7.071  2.8422  0.7124  0.7004
43293SOL    HW247872   9.687  11.791   6.940 -0.0755  0.8607  1.6110
43294SOL     OW47873  11.598  12.445   8.943 -0.3983  0.2428  0.2867
43294SOL    HW147874  11.672  12.504   8.933 -1.3290  1.2949 -0.7323
43294SOL    HW247875  11.521  12.499   8.924 -1.2385 -1.4581 -1.5565
43295SOL     OW47876  12.412  11.892  11.520 -0.1763  0.2958 -0.3068
43295SOL    HW147877  12.492  11.850  11.552  0.4202  0.7739 -1.1224
43295SOL    HW247878  12.421  11.890  11.425 -0.9394  0.7485 -0.3930
43296SOL     OW47879   5.857   0.907   0.683  0.1304  0.1624  0.2361
43296SOL    HW147880   5.815   0.891   0.768 -1.7117 -3.0081 -1.0730
43296SOL    HW247881   5.794   0.961   0.635  0.2413  0.2796  0.2238
43297SOL     OW47882   3.700   3.112  10.830 -0.1525  0.5840 -0.7681
43297SOL    HW147883   3.686   3.145  10.742 -0.0818 -0.8769 -1.3543
43297SOL    HW247884   3.673   3.021  10.826 -1.5602  0.8692  1.1115
43298SOL     OW47885   9.240  12.658  11.636 -0.6921 -0.2308  0.0923
43298SOL    HW147886   9.281  12.601  11.701  1.6149 -0.6876 -1.6181
43298SOL    HW247887   9.234  12.743  11.679  1.3195 -0.3775  0.7968
43299SOL     OW47888  11.960   9.547   6.817  0.3078  0.0823 -0.0993
43299SOL    HW147889  11.956   9.454   6.797 -0.4024  0.0780  0.0402
43299SOL    HW247890  11.895   9.559   6.886 -0.4647  0.8915 -0.9434
43300SOL     OW47891   4.028  12.848   5.024 -0.3162  0.0159  0.1280
43300SOL    HW147892   4.008  12.905   4.949 -0.2971  0.3369  0.3672
43300SOL    HW247893   3.965  12.873   5.091  0.3580  0.4732  0.6032
43301SOL     OW47894   6.099   7.612   6.694  0.2917  0.3067 -0.4241
43301SOL    HW147895   6.147   7.640   6.771 -0.2360  1.0178 -0.3466
43301SOL    HW247896   6.157   7.633   6.621 -0.3898  2.3773 -0.4373
43302SOL     OW47897  11.728   5.749   1.095 -0.4722  0.2610 -0.1320
43302SOL    HW147898  11.635   5.772   1.096 -0.4047  0.5448  1.0334
43302SOL    HW247899  11.738   5.694   1.017 -1.5098  0.6368 -0.5527
43303SOL     OW47900   1.674   3.812   3.763 -0.1445 -0.0474 -0.3152
43303SOL    HW147901   1.621   3.765   3.828 -0.4758 -0.4077 -0.8354
43303SOL    HW247902   1.613   3.873   3.722  0.3281  1.0070  0.4924
43304SOL     OW47903   1.113  10.161  11.321 -0.0472 -0.0831 -0.1684
43304SOL    HW147904   1.069  10.245  11.311  1.3215  0.8152  0.8506
43304SOL    HW247905   1.114  10.146  11.416 -1.4682 -1.9469 -0.4086
43305SOL     OW47906   4.579  11.096   8.057  0.0350  0.2179 -0.3975
43305SOL    HW147907   4.602  11.015   8.103 -1.0610  0.5632  0.8317
43305SOL    HW247908   4.657  11.119   8.007  0.8045 -0.9040  0.2571
43306SOL     OW47909   6.678  13.058  10.795  0.2685 -0.0364  0.5235
43306SOL    HW147910   6.757  13.005  10.784  0.6980  0.4764  1.0583
43306SOL    HW247911   6.629  13.046  10.713  0.7866 -0.5459  0.2844
43307SOL     OW47912   8.482  11.022  11.656  0.5334 -0.0768 -0.3672
43307SOL    HW147913   8.570  10.987  11.669  1.4159  2.6765  2.3725
43307SOL    HW247914   8.432  10.989  11.731 -0.5879 -1.0018 -1.4973
43308SOL     OW47915  10.093   8.608  14.081 -0.7548  0.3058 -0.2966
43308SOL    HW147916  10.002   8.620  14.111 -1.2217 -0.1360 -1.4823
43308SOL    HW247917  10.085   8.551  14.005  0.4584  0.8722 -0.8640
43309SOL     OW47918   3.655   8.218  11.224  0.0099  0.2967  0.2644
43309SOL    HW147919   3.643   8.303  11.268  0.0475  0.0107  0.8365
43309SOL    HW247920   3.747   8.219  11.197  0.3237 -0.0244  1.2812
43310SOL     OW47921  10.109   1.543   3.977 -0.2116  0.4232 -0.1812
43310SOL    HW147922  10.155   1.515   4.057 -0.2373  1.1298  0.0953
43310SOL    HW247923  10.173   1.598   3.932 -0.5916  0.9663 -0.0665
43311SOL     OW47924   9.980  11.026   0.489 -0.1047 -0.3560  0.2829
43311SOL    HW147925   9.970  11.038   0.583 -0.1154 -1.9223  0.5053
43311SOL    HW247926   9.971  10.932   0.476  3.1083 -0.6047 -0.8769
43312SOL     OW47927   1.193  10.394   6.653  0.0844  0.0686  0.0263
43312SOL    HW147928   1.228  10.377   6.740  0.1371 -3.0578 -0.4854
43312SOL    HW247929   1.232  10.477   6.627  1.3332  0.2704  2.3382
43313SOL     OW47930   0.063   8.370   2.509 -0.2847 -0.1778  0.5312
43313SOL    HW147931  -0.013   8.391   2.564  0.1602  1.6070  0.5384
43313SOL    HW247932   0.036   8.292   2.460 -2.2711  0.6020  0.2672
43314SOL     OW47933   6.908  10.669   7.144 -0.1655 -0.0847  0.5096
43314SOL    HW147934   6.944  10.758   7.151 -0.0607 -0.1480  0.7721
43314SOL    HW247935   6.955  10.619   7.210 -0.6188 -0.2067  0.7470
43315SOL     OW47936   1.263  12.466  11.940 -0.7577 -0.0746 -0.6720
43315SOL    HW147937   1.294  12.528  12.005 -1.2628 -0.4278 -0.0816
43315SOL    HW247938   1.303  12.383  11.964  0.6287  0.1632 -1.9746
43316SOL     OW47939  12.441  11.977   3.739  0.4687 -0.8191 -0.5329
43316SOL    HW147940  12.436  11.902   3.798  0.3551 -1.5214 -1.4085
43316SOL    HW247941  12.490  11.944   3.664  1.2059  0.2581 -0.5323
43317SOL     OW47942  10.351  10.681   1.744  0.2641  0.3620 -0.1476
43317SOL    HW147943  10.345  10.677   1.840 -0.4825 -0.5867 -0.2062
43317SOL    HW247944  10.259  10.681   1.715  0.4369  2.6279 -0.8320
43318SOL     OW47945   8.873   7.120  12.678 -0.1040  0.2980 -0.4527
43318SOL    HW147946   8.962   7.098  12.651 -1.0464 -3.0531 -1.3678
43318SOL    HW247947   8.819   7.101  12.601 -1.5828  3.3787 -0.3246
43319SOL     OW47948  11.669  12.986  10.406  0.4879 -0.0307 -0.1931
43319SOL    HW147949  11.654  13.055  10.471 -1.6294 -0.9003  0.3315
43319SOL    HW247950  11.679  13.033  10.323  0.1984  0.9556  0.3144
43320SOL     OW47951  11.629   4.022   4.274  0.8293  0.1193 -0.2125
43320SOL    HW147952  11.549   4.071   4.296 -0.2036 -1.2403 -0.8108
43320SOL    HW247953  11.673   4.010   4.358  0.0130  0.2427  0.2498
43321SOL     OW47954   1.118  12.807   9.892  0.1379 -0.4550  0.1903
43321SOL    HW147955   1.192  12.747   9.881  1.5368  1.0467  1.0753
43321SOL    HW247956   1.073  12.775   9.970  0.7052 -0.5358  0.4902
43322SOL     OW47957  11.737   1.089   5.388  0.1133  0.1324 -0.3563
43322SOL    HW147958  11.812   1.138   5.354  0.5604 -1.2832 -1.4606
43322SOL    HW247959  11.663   1.150   5.379  0.9258  1.1809 -0.1831
43323SOL     OW47960   8.230   1.039   2.642 -0.0947  0.0480 -0.3308
43323SOL    HW147961   8.271   1.114   2.599 -2.2832  1.9542  0.7168
43323SOL    HW247962   8.288   1.018   2.715 -0.0653  1.5719  0.1120
43324SOL     OW47963   4.718   8.057   0.937 -0.0819 -0.6428 -0.2332
43324SOL    HW147964   4.643   8.107   0.971 -0.9237 -0.4744 -2.2215
43324SOL    HW247965   4.719   7.977   0.990 -0.0052  0.5159  1.5944
43325SOL     OW47966   6.494  11.266   6.040  0.0575  0.3550  0.4532
43325SOL    HW147967   6.471  11.311   5.958 -2.2753 -0.7365  0.4187
43325SOL    HW247968   6.464  11.325   6.109  1.6424  1.0825  0.5672
43326SOL     OW47969   5.667   6.867  13.323  0.5646  0.1415 -0.2120
43326SOL    HW147970   5.735   6.820  13.372 -0.9931 -0.2675  1.7135
43326SOL    HW247971   5.676   6.837  13.233  2.6340 -0.2153  0.0735
43327SOL     OW47972   3.987   5.202   6.126  0.1784  0.1464  0.0658
43327SOL    HW147973   3.954   5.232   6.211  1.7339 -2.8486  1.9255
43327SOL    HW247974   4.060   5.260   6.106 -0.0159  0.7088  0.9520
43328SOL     OW47975  11.204  10.445   7.892  0.0283 -0.8326  0.6667
43328SOL    HW147976  11.137  10.502   7.928  1.0692 -0.1921  1.6700
43328SOL    HW247977  11.287  10.486   7.918  0.8065 -1.9059 -0.0322
43329SOL     OW47978  12.940  13.931   3.432 -0.2229 -0.0538 -0.5069
43329SOL    HW147979  12.848  13.905   3.433 -0.3386  0.3251  1.1350
43329SOL    HW247980  12.983  13.865   3.378 -1.2278 -1.0918 -0.0740
43330SOL     OW47981   4.317  13.209   4.104 -0.2134 -0.4590  0.1397
43330SOL    HW147982   4.409  13.235   4.110 -0.9449  3.0502 -1.6596
43330SOL    HW247983   4.313  13.149   4.030  0.2685  1.9397 -1.9412
43331SOL     OW47984  12.115   9.689   0.540 -0.0944  0.1243  0.4544
43331SOL    HW147985  12.126   9.687   0.445  2.0881  0.9292  0.6239
43331SOL    HW247986  12.167   9.615   0.572 -1.1874 -0.4237  1.0211
43332SOL     OW47987   3.902  11.084   7.759  0.6219 -0.6523  1.5257
43332SOL    HW147988   3.950  11.166   7.765 -1.7499  1.0907 -0.9783
43332SOL    HW247989   3.969  11.020   7.734  2.3115  0.7303  2.2865
43333SOL     OW47990   5.209   9.561   3.791 -0.2172  0.6169  0.1558
43333SOL    HW147991   5.298   9.593   3.776 -0.5119  0.9029 -1.0167
43333SOL    HW247992   5.152   9.628   3.753 -0.8548 -0.9846 -1.8913
43334SOL     OW47993   1.665  13.323  12.604  0.4101 -0.9423 -0.2413
43334SOL    HW147994   1.660  13.410  12.565  0.7184 -1.4375 -1.4354
43334SOL    HW247995   1.694  13.338  12.694 -0.9631  0.2850  0.0238
43335SOL     OW47996   0.265   4.980   0.938 -0.4196 -0.4843 -0.4092
43335SOL    HW147997   0.295   5.049   0.880 -0.9835 -0.4636 -0.6852
43335SOL    HW247998   0.204   5.024   0.998  0.1896 -0.4940  0.2357
43336SOL     OW47999   8.576   7.324   4.652 -0.2762 -0.0312  0.6652
43336SOL    HW148000   8.606   7.277   4.574 -0.1070  0.0357  0.6894
43336SOL    HW248001   8.503   7.272   4.685 -0.1269 -0.2427  0.6591
43337SOL     OW48002   3.424  12.400   7.238  0.4080  0.5929  0.2294
43337SOL    HW148003   3.503  12.370   7.194  1.0391  1.8975  0.4399
43337SOL    HW248004   3.453  12.472   7.293 -1.0557  1.6183 -0.2876
43338SOL     OW48005  11.348   1.785   9.383 -0.8050 -0.8184  0.2665
43338SOL    HW148006  11.300   1.779   9.466 -0.6724  1.6985  0.5862
43338SOL    HW248007  11.431   1.827   9.407 -1.1084  0.7225 -1.2565
43339SOL     OW48008  11.639   2.563   3.154  0.0923 -0.0965 -0.1194
43339SOL    HW148009  11.565   2.519   3.112  0.5134 -1.4834  0.5313
43339SOL    HW248010  11.677   2.618   3.085 -1.0067 -0.0305 -0.6975
43340SOL     OW48011   0.590   6.215   0.694  0.2592 -0.3512 -0.3848
43340SOL    HW148012   0.611   6.243   0.783  0.3064 -0.5343 -0.3386
43340SOL    HW248013   0.506   6.169   0.703  0.2219 -0.2963 -0.4487
43341SOL     OW48014  13.049  11.502  11.984 -0.0028 -0.3242  0.1773
43341SOL    HW148015  12.987  11.547  11.925  0.3547 -0.5504 -0.3800
43341SOL    HW248016  13.119  11.565  11.997  0.1695 -0.4654 -0.0596
43342SOL     OW48017  11.466   9.665   9.242 -0.0299 -0.1096 -0.1073
43342SOL    HW148018  11.428   9.577   9.243 -1.7678  0.6031 -0.0638
43342SOL    HW248019  11.537   9.660   9.178 -0.2331 -1.4882 -0.2480
43343SOL     OW48020   9.936  10.495   2.203  0.1795 -0.1626  0.2910
43343SOL    HW148021   9.980  10.503   2.288 -1.5248 -0.8210  1.2883
43343SOL    HW248022   9.909  10.584   2.181  1.5959  0.1820 -0.1313
43344SOL     OW48023   4.989  11.771  10.881 -0.6072  0.5760  0.4636
43344SOL    HW148024   4.914  11.793  10.936 -1.7239 -1.5946 -0.0546
43344SOL    HW248025   4.951  11.759  10.794  0.8462  2.2095 -0.4478
43345SOL     OW48026   8.725   2.146   3.247  0.6730  0.9217  0.1588
43345SOL    HW148027   8.651   2.095   3.280  1.4866  0.2241  0.9772
43345SOL    HW248028   8.798   2.083   3.244  1.2568  1.6118 -0.5344
43346SOL     OW48029   3.052   6.596   2.419  0.3078  0.2278 -0.1691
43346SOL    HW148030   3.119   6.630   2.360  0.2950 -0.1008 -0.3780
43346SOL    HW248031   3.060   6.501   2.412  0.5601  0.1782  0.6491
43347SOL     OW48032  12.777   3.106  12.414  0.2164  0.5556 -0.2486
43347SOL    HW148033  12.707   3.116  12.349 -1.4522  1.5021  1.5883
43347SOL    HW248034  12.848   3.161  12.380  0.7098 -1.4720 -2.8396
43348SOL     OW48035   6.064   7.739  11.050 -0.2448 -0.0102 -0.3120
43348SOL    HW148036   6.069   7.738  11.146  0.9499  1.3008 -0.3216
43348SOL    HW248037   6.065   7.832  11.028 -0.1413 -0.3098 -1.6212
43349SOL     OW48038   5.007   7.219   4.630 -0.0685  0.1362 -0.0433
43349SOL    HW148039   5.055   7.175   4.560 -0.5038 -0.2498 -0.1045
43349SOL    HW248040   5.021   7.313   4.614  1.5959  0.0341  0.5942
43350SOL     OW48041   9.549   6.507   4.306  0.3475  0.0243  0.0207
43350SOL    HW148042   9.608   6.435   4.287  0.9156  0.4147  0.2809
43350SOL    HW248043   9.538   6.505   4.401 -1.4805 -1.1417 -0.1586
43351SOL     OW48044   3.883  14.094   1.083 -0.4092  0.3435  0.0252
43351SOL    HW148045   3.898  14.001   1.102  1.0545  0.6669  0.6454
43351SOL    HW248046   3.823  14.094   1.009  1.5805 -1.1633 -1.6921
43352SOL     OW48047   2.160   1.617   5.556  0.1457  0.1163 -0.2650
43352SOL    HW148048   2.115   1.547   5.508 -2.4658  1.3275  0.2655
43352SOL    HW248049   2.105   1.634   5.632  2.8200  0.0664  1.8038
43353SOL     OW48050   3.119   8.479  11.388  0.0685  0.1205 -0.2758
43353SOL    HW148051   3.145   8.551  11.330 -0.5350 -1.1202 -2.2087
43353SOL    HW248052   3.023   8.479  11.384  0.0689 -1.1447 -0.8281
43354SOL     OW48053   2.373   6.586  13.296 -0.0926  0.0395  0.0301
43354SOL    HW148054   2.377   6.504  13.344  1.3651 -0.7815 -1.3754
43354SOL    HW248055   2.459   6.626  13.311  0.6896 -0.5811 -2.3362
43355SOL     OW48056  13.464   5.550   1.140  0.1830  0.5950 -0.1536
43355SOL    HW148057  13.527   5.622   1.129 -1.6463  2.2759 -0.3397
43355SOL    HW248058  13.449   5.545   1.234 -1.3409  2.0832 -0.2529
43356SOL     OW48059   5.709   2.134   9.637 -0.1439 -0.2544 -0.3427
43356SOL    HW148060   5.648   2.098   9.574 -0.2938 -0.3572 -0.1396
43356SOL    HW248061   5.739   2.058   9.688 -0.1723 -0.1468 -0.1638
43357SOL     OW48062   6.998  13.684   9.353  0.5490  0.0341  0.2156
43357SOL    HW148063   7.036  13.671   9.266  1.1462 -1.2336  0.6416
43357SOL    HW248064   6.935  13.614   9.363 -1.8285  1.9561 -0.3748
43358SOL     OW48065   1.158   3.563  13.307  0.5410 -0.2201 -0.3111
43358SOL    HW148066   1.131   3.647  13.269  1.7221  1.8331  2.8696
43358SOL    HW248067   1.251   3.555  13.284  0.8159  0.1698  0.5962
43359SOL     OW48068   9.754   1.940   5.912  0.5309  0.8133  0.1506
43359SOL    HW148069   9.771   1.916   5.821  0.0650 -0.8741  0.4876
43359SOL    HW248070   9.795   1.870   5.963 -1.7154  0.1383  1.1454
43360SOL     OW48071  13.822   2.873   2.649  0.9128  0.0483 -0.2903
43360SOL    HW148072  13.906   2.842   2.615  0.9854  0.2032 -0.2543
43360SOL    HW248073  13.834   2.878   2.743 -0.0367 -2.7008  0.0738
43361SOL     OW48074   2.344   9.551   4.575 -0.3416 -0.0510 -0.8655
43361SOL    HW148075   2.330   9.629   4.522  0.9542  0.7006 -0.1302
43361SOL    HW248076   2.379   9.486   4.514  0.9455  0.7446 -1.0022
43362SOL     OW48077   6.893   4.528   5.326  0.3649 -0.1930 -0.3891
43362SOL    HW148078   6.850   4.443   5.333  3.8504 -1.9888  2.7393
43362SOL    HW248079   6.969   4.513   5.270  1.1212  0.8000  0.3285
43363SOL     OW48080   3.652  14.053   3.169 -0.2026  0.4150 -0.5031
43363SOL    HW148081   3.676  14.138   3.132  0.5104  0.6840  0.5354
43363SOL    HW248082   3.582  14.073   3.231  0.9835  0.4805  0.8540
43364SOL     OW48083   6.196   3.398   8.854  0.0689  0.0632 -0.0552
43364SOL    HW148084   6.275   3.435   8.894  1.4966 -3.9576  1.3205
43364SOL    HW248085   6.229   3.337   8.788 -1.9302 -1.1822  0.0226
43365SOL     OW48086  12.941   4.965  10.930  0.0046 -0.2607  0.3343
43365SOL    HW148087  13.015   4.933  10.879  0.4253  1.6421 -0.3442
43365SOL    HW248088  12.962   5.057  10.949 -0.9141 -0.4358  2.5239
43366SOL     OW48089  11.644   3.807  12.572  0.1548  0.1578 -0.6488
43366SOL    HW148090  11.634   3.777  12.662 -0.0890  1.6727 -0.1380
43366SOL    HW248091  11.701   3.742  12.531  0.6648 -0.2984  0.7285
43367SOL     OW48092   8.925  11.690   3.969  0.0045 -0.2520  0.2252
43367SOL    HW148093   8.925  11.649   4.056  0.1536 -0.4200  0.1466
43367SOL    HW248094   8.981  11.633   3.916 -0.2482 -0.2577 -0.0344
43368SOL     OW48095   4.445   0.285   7.088 -0.2900  0.1478  0.2445
43368SOL    HW148096   4.463   0.250   7.001 -1.3436  0.1758  0.0013
43368SOL    HW248097   4.350   0.281   7.096 -0.1952 -0.0439  1.4774
43369SOL     OW48098   0.693   7.968   6.942  0.0718  0.6691 -0.2007
43369SOL    HW148099   0.601   7.944   6.929  0.4405 -0.6388 -0.4972
43369SOL    HW248100   0.698   7.995   7.034 -0.1212 -1.6878  0.5464
43370SOL     OW48101   6.279  10.873  10.174  0.5007  0.2835  0.4552
43370SOL    HW148102   6.279  10.940  10.243  0.5561 -0.2128  0.9498
43370SOL    HW248103   6.300  10.921  10.094 -0.5980  1.0570  0.6001
43371SOL     OW48104  12.160   6.390   3.641  0.0790  0.2649 -0.0827
43371SOL    HW148105  12.200   6.453   3.700 -0.1082 -1.4423  1.9697
43371SOL    HW248106  12.067   6.412   3.641  0.1735  0.6710 -0.2750
43372SOL     OW48107   9.171   3.296   4.932 -0.1597  0.1231  0.0949
43372SOL    HW148108   9.160   3.249   4.849  0.3748 -0.8771  0.5767
43372SOL    HW248109   9.089   3.346   4.942  0.2246  1.1794 -1.5834
43373SOL     OW48110   5.935   3.673  12.075  0.0453 -0.1887 -0.0534
43373SOL    HW148111   5.889   3.692  11.993 -1.9749  0.5344  1.1573
43373SOL    HW248112   5.871   3.623  12.127  1.1067 -0.2431  1.2538
43374SOL     OW48113   3.106  11.469  10.745  0.1335 -0.7651 -0.2942
43374SOL    HW148114   3.135  11.448  10.834 -0.0258 -4.3064 -0.9229
43374SOL    HW248115   3.092  11.383  10.704 -3.2477  0.6962 -2.6351
43375SOL     OW48116  10.511  13.019  13.169  0.2301 -0.4095 -0.2396
43375SOL    HW148117  10.473  12.982  13.249  0.8364  1.0557  0.7841
43375SOL    HW248118  10.578  12.956  13.143  0.0515 -0.8907  0.4265
43376SOL     OW48119  13.942   0.233   8.480  0.3428 -0.0061  0.3018
43376SOL    HW148120  13.916   0.311   8.528  1.4768  0.6169 -0.0670
43376SOL    HW248121  13.949   0.261   8.389  0.5264 -0.5979  0.1241
43377SOL     OW48122   1.412   1.856   7.687 -0.0247  0.7116  0.6142
43377SOL    HW148123   1.442   1.802   7.614 -1.4097  0.6711  0.0446
43377SOL    HW248124   1.488   1.863   7.745  0.8158 -0.0323 -0.3698
43378SOL     OW48125   3.471   5.141   0.853  0.4768  0.3823  0.3078
43378SOL    HW148126   3.484   5.050   0.828  1.5945  0.2406  1.2995
43378SOL    HW248127   3.377   5.156   0.842  0.4176 -0.6040 -0.7388
43379SOL     OW48128   0.570  12.838   6.060 -0.4152 -0.4319  0.0121
43379SOL    HW148129   0.659  12.804   6.068 -0.3165 -1.1819 -3.0814
43379SOL    HW248130   0.514  12.762   6.071 -0.4134 -0.7855 -1.9734
43380SOL     OW48131   0.612  12.291   5.769  0.4717  0.2522 -0.0731
43380SOL    HW148132   0.564  12.244   5.701  0.6591  0.7433 -0.5435
43380SOL    HW248133   0.600  12.236   5.847 -1.9811  1.0043  0.1771
43381SOL     OW48134  12.510   9.368   4.565 -0.9336 -0.0969  0.3172
43381SOL    HW148135  12.450   9.346   4.494 -3.8872 -0.2926  2.6498
43381SOL    HW248136  12.552   9.285   4.588 -1.8114 -0.5520  0.3331
43382SOL     OW48137   2.851  11.629  12.300 -0.1667 -0.2741  0.1687
43382SOL    HW148138   2.833  11.579  12.379 -0.8968 -0.1405  0.0942
43382SOL    HW248139   2.889  11.566  12.239  0.3150 -0.3961  0.5872
43383SOL     OW48140   8.055   1.254   8.558  0.4524  0.1149 -0.1522
43383SOL    HW148141   7.960   1.244   8.567  0.2822  1.3706 -0.3631
43383SOL    HW248142   8.084   1.173   8.516 -0.1743 -1.3081  2.0403
43384SOL     OW48143  13.399  13.836   2.161 -0.2088 -0.0237 -0.0202
43384SOL    HW148144  13.373  13.927   2.178 -3.6430 -0.4587 -1.9468
43384SOL    HW248145  13.486  13.843   2.122  0.9768  2.0785  2.6666
43385SOL     OW48146   8.274   1.718   5.248 -0.4262  0.1990  0.3640
43385SOL    HW148147   8.189   1.722   5.204  0.3123 -1.1326 -1.3064
43385SOL    HW248148   8.264   1.646   5.311 -0.6287  0.2498  0.3923
43386SOL     OW48149   3.373   1.252  11.369  0.1739  0.4422  0.4210
43386SOL    HW148150   3.310   1.315  11.335  0.3920  0.5089  0.1310
43386SOL    HW248151   3.333   1.219  11.449 -0.1887  0.5441  0.2853
43387SOL     OW48152   3.685  13.440   8.746  0.4838 -0.0824  0.0017
43387SOL    HW148153   3.606  13.425   8.694 -0.6823  1.0347  1.3523
43387SOL    HW248154   3.684  13.372   8.812  0.3787  0.2196  0.3142
43388SOL     OW48155   9.537   1.523   7.079 -0.0933 -0.6071  0.8002
43388SOL    HW148156   9.495   1.491   7.159  0.1541 -0.9056  0.8122
43388SOL    HW248157   9.613   1.574   7.109 -1.4399  1.4915  0.8611
43389SOL     OW48158  13.417  12.896   3.175  0.3288 -0.7549 -0.6142
43389SOL    HW148159  13.377  12.811   3.196 -0.7636 -0.5976 -1.9552
43389SOL    HW248160  13.505  12.891   3.214  0.4919 -2.7074 -1.1224
43390SOL     OW48161  11.361  12.408   7.249  0.3413  0.0704  0.0253
43390SOL    HW148162  11.433  12.355   7.283  1.9968  1.9590 -0.3899
43390SOL    HW248163  11.393  12.498   7.253 -1.5712  0.8674 -1.2415
43391SOL     OW48164   3.998  14.020   6.647  0.1605 -0.5095  0.1533
43391SOL    HW148165   3.904  14.011   6.661  0.1342 -1.8550 -0.6635
43391SOL    HW248166   4.037  13.948   6.697  0.5291 -1.4917 -1.4609
43392SOL     OW48167   2.736  13.696   8.830 -0.4758 -0.3565 -0.0223
43392SOL    HW148168   2.676  13.756   8.875 -1.3975 -1.0964 -0.2208
43392SOL    HW248169   2.737  13.727   8.740 -2.0497 -1.4131 -0.4500
43393SOL     OW48170   0.083   2.885   3.400 -0.0808  0.4724  0.8154
43393SOL    HW148171   0.001   2.925   3.428  0.5087  0.2549  3.0787
43393SOL    HW248172   0.150   2.928   3.453  1.1189 -0.1683 -0.1403
43394SOL     OW48173   3.003   2.268   3.380  0.2693 -0.0013  0.1155
43394SOL    HW148174   3.019   2.183   3.421 -0.4838  0.0890  0.6273
43394SOL    HW248175   3.055   2.329   3.432 -0.1230  0.0114  0.5035
43395SOL     OW48176   7.344   9.635   3.353  0.2658  0.1554 -0.2907
43395SOL    HW148177   7.288   9.626   3.430 -0.0491 -0.8888 -0.6161
43395SOL    HW248178   7.286   9.615   3.279  0.0239  3.1530 -1.0253
43396SOL     OW48179   8.575  10.655  13.728  0.4055  0.3483 -0.3579
43396SOL    HW148180   8.604  10.666  13.638  0.9876 -1.1828 -0.3883
43396SOL    HW248181   8.590  10.562  13.747 -0.6824  0.4169  0.9768
43397SOL     OW48182   1.553   4.035  11.268 -0.0962 -0.3331 -0.1160
43397SOL    HW148183   1.527   4.045  11.176 -1.7059 -0.9535  0.2281
43397SOL    HW248184   1.476   4.065  11.317  0.4313 -0.8151  1.0221
43398SOL     OW48185   6.616   9.722  11.144 -0.2251 -0.5254  0.4051
43398SOL    HW148186   6.647   9.720  11.054  0.9666  0.4085  0.7617
43398SOL    HW248187   6.695   9.739  11.196 -1.1220  0.5676  1.4710
43399SOL     OW48188  12.120   9.052  12.687 -0.5809  0.0169  0.4201
43399SOL    HW148189  12.102   9.098  12.605 -0.0140  0.0857  0.3316
43399SOL    HW248190  12.208   9.018  12.677 -0.4289  0.1952  1.0762
43400SOL     OW48191  11.270   4.495   0.224 -0.3690 -0.4435  0.0204
43400SOL    HW148192  11.280   4.539   0.139  0.2988  0.3620  0.4964
43400SOL    HW248193  11.275   4.402   0.203 -2.1347 -0.3383 -1.0537
43401SOL     OW48194   1.430  12.317   9.104  0.3391 -0.1930 -0.6013
43401SOL    HW148195   1.458  12.403   9.072  0.1690  0.2817  0.4830
43401SOL    HW248196   1.378  12.281   9.032  2.0390 -0.2628 -1.8767
43402SOL     OW48197  13.005  11.186   3.976  0.4029 -0.1536 -0.5427
43402SOL    HW148198  12.938  11.251   3.992  0.9201  0.3082 -0.1986
43402SOL    HW248199  13.077  11.211   4.034  0.5074 -1.1878 -0.2036
43403SOL     OW48200  12.547   4.031   5.241  0.5244  0.0424 -0.9496
43403SOL    HW148201  12.632   4.032   5.284 -0.8482 -2.2772  2.3716
43403SOL    HW248202  12.545   3.948   5.193 -0.2249 -0.6101  0.1349
43404SOL     OW48203  11.046   7.702   4.700  0.6510 -0.1706  0.0756
43404SOL    HW148204  10.999   7.750   4.768 -0.0532 -0.8281  0.0650
43404SOL    HW248205  10.996   7.621   4.689  1.0300 -0.2823 -0.8856
43405SOL     OW48206   8.816   4.879  11.085 -0.2426  0.6877 -0.1022
43405SOL    HW148207   8.775   4.896  11.170  0.0964  0.0350  0.1980
43405SOL    HW248208   8.888   4.820  11.105 -2.0692 -2.1058 -1.2148
43406SOL     OW48209   5.788   9.081   6.117 -0.0628 -0.0991 -0.3607
43406SOL    HW148210   5.740   9.135   6.180  0.8699  1.3243 -0.8531
43406SOL    HW248211   5.749   9.103   6.033 -0.9521 -1.6241 -0.4018
43407SOL     OW48212   6.042  13.626  12.192 -0.3002  0.1322 -0.3291
43407SOL    HW148213   6.129  13.663  12.177  0.1166 -0.4288  0.5555
43407SOL    HW248214   6.010  13.671  12.270  0.9345 -2.4225  1.8245
43408SOL     OW48215  10.605   2.118   9.992  0.1700 -0.1711  0.7274
43408SOL    HW148216  10.665   2.186  10.023  0.1781 -0.5695  1.6195
43408SOL    HW248217  10.650   2.036  10.010  1.5296 -0.4675 -3.1303
43409SOL     OW48218   2.096   8.841   4.081 -0.8225 -0.3327 -0.1607
43409SOL    HW148219   2.075   8.895   4.156 -1.1471  0.1011 -0.5592
43409SOL    HW248220   2.178   8.798   4.105 -0.6899  0.1445  0.2618
43410SOL     OW48221   4.793   4.100   9.420  0.4356  0.3368 -0.0383
43410SOL    HW148222   4.746   4.184   9.424 -0.8287 -0.1607 -2.6064
43410SOL    HW248223   4.739   4.040   9.472 -0.1617  0.5057 -0.4416
43411SOL     OW48224   4.854  11.761   1.391 -0.4543  0.3290  0.1598
43411SOL    HW148225   4.946  11.757   1.415 -0.6838  0.8556  1.2094
43411SOL    HW248226   4.812  11.692   1.442 -0.7411  0.5462  0.2268
43412SOL     OW48227   1.344  13.898   8.436  0.2837  0.5861 -0.8535
43412SOL    HW148228   1.329  13.875   8.344 -0.5610 -1.1995 -0.3205
43412SOL    HW248229   1.275  13.962   8.456  1.1137  1.7771 -1.7133
43413SOL     OW48230  12.475  10.376   1.897 -0.4872 -0.4406  0.1933
43413SOL    HW148231  12.449  10.295   1.853  0.1821 -1.9996  2.4697
43413SOL    HW248232  12.415  10.384   1.970  0.9377 -0.2335  1.3947
43414SOL     OW48233   2.780  12.277   3.843  0.0730  0.1124  0.0705
43414SOL    HW148234   2.785  12.269   3.938 -0.0631  0.0080  0.0692
43414SOL    HW248235   2.741  12.195   3.814 -2.5515  1.2508  0.1570
43415SOL     OW48236   1.717   5.609   5.506  0.2834 -0.1322  0.7608
43415SOL    HW148237   1.681   5.525   5.479 -0.9056  0.2867  0.9700
43415SOL    HW248238   1.644   5.670   5.497  1.5546  1.2372 -1.0383
43416SOL     OW48239  13.560  12.769   3.788 -0.0211  0.2784 -0.1225
43416SOL    HW148240  13.558  12.686   3.835  0.2405  0.5253  0.3244
43416SOL    HW248241  13.623  12.755   3.717 -0.0372  0.0709 -0.0984
43417SOL     OW48242   5.016   7.236  10.184 -0.3002 -0.2708  0.0299
43417SOL    HW148243   4.994   7.327  10.167  1.3379  0.4771  1.6331
43417SOL    HW248244   5.107   7.238  10.213  0.0721 -2.5278 -0.7353
43418SOL     OW48245   9.159  13.343  12.569 -0.2415 -0.1796 -0.2650
43418SOL    HW148246   9.066  13.357  12.550  0.1653  1.2464 -1.3352
43418SOL    HW248247   9.203  13.355  12.485  0.7054 -3.4538 -0.3818
43419SOL     OW48248  10.854   7.460   8.852 -0.6705  0.1348  0.4807
43419SOL    HW148249  10.870   7.371   8.819 -0.8823  0.3927 -0.3511
43419SOL    HW248250  10.939   7.504   8.844 -0.2978 -0.2883  1.8908
43420SOL     OW48251   6.519  13.144   0.103 -0.0624 -0.1925  0.1510
43420SOL    HW148252   6.530  13.084   0.177 -0.7050  0.3194  0.6782
43420SOL    HW248253   6.563  13.101   0.030  2.1047  0.0751  1.2397
43421SOL     OW48254   2.644   4.429   9.032 -0.0657 -0.1631 -0.3985
43421SOL    HW148255   2.672   4.510   9.074  0.1213 -0.1093 -0.6246
43421SOL    HW248256   2.685   4.360   9.084 -1.9607 -0.2093  1.1079
43422SOL     OW48257   2.767  11.134  11.583  0.1714 -0.2332  0.1969
43422SOL    HW148258   2.754  11.148  11.489  0.0309 -1.0343  0.0888
43422SOL    HW248259   2.734  11.214  11.624  0.0466  0.0368 -0.4230
43423SOL     OW48260   2.325   3.723  10.834  0.7253  0.2262 -0.0614
43423SOL    HW148261   2.377   3.716  10.754  0.8186  0.2702 -0.0046
43423SOL    HW248262   2.356   3.803  10.876 -0.3873  1.0312 -0.7365
43424SOL     OW48263   6.021  12.370  10.398 -0.6328  0.3356  0.0963
43424SOL    HW148264   5.939  12.350  10.353 -1.0555  0.8501  0.6092
43424SOL    HW248265   6.061  12.285  10.415 -0.1251  0.1654 -1.8344
43425SOL     OW48266  13.005  12.189   2.350  0.2292 -0.0280  0.1357
43425SOL    HW148267  13.096  12.184   2.378  0.0257 -0.4565  0.7450
43425SOL    HW248268  12.979  12.098   2.337 -0.4115  0.0160  0.9881
43426SOL     OW48269  13.237   5.525   5.477  0.4297 -0.4961 -0.2483
43426SOL    HW148270  13.258   5.618   5.486  2.7272 -1.0923  1.4069
43426SOL    HW248271  13.236   5.511   5.382  3.4905  0.6023 -0.5596
43427SOL     OW48272   0.084   7.200   8.015  0.1703 -0.5373 -0.6801
43427SOL    HW148273   0.013   7.145   7.984 -1.1267 -0.3471  1.6940
43427SOL    HW248274   0.067   7.286   7.978 -1.6938 -0.1556  0.9079
43428SOL     OW48275   5.383   1.479   3.532 -0.3183  0.8916 -0.4480
43428SOL    HW148276   5.301   1.528   3.530 -0.1152  1.5010  2.1364
43428SOL    HW248277   5.356   1.388   3.550 -0.5032  0.6948 -1.6514
43429SOL     OW48278   3.494   2.367   2.379 -0.1305 -0.7004  0.2314
43429SOL    HW148279   3.529   2.281   2.355  2.0451 -0.3080  1.6608
43429SOL    HW248280   3.569   2.413   2.417 -0.9503  2.2149 -1.3451
43430SOL     OW48281  12.396   0.602  12.728  0.2423  0.4426  0.3343
43430SOL    HW148282  12.349   0.564  12.802 -0.5803 -1.5347 -1.1018
43430SOL    HW248283  12.482   0.559  12.730  0.5031  0.9718  0.5862
43431SOL     OW48284   5.212  12.813   2.705 -0.7732 -0.5995 -0.4862
43431SOL    HW148285   5.306  12.817   2.689 -1.0613  0.2531 -2.1887
43431SOL    HW248286   5.196  12.885   2.766 -0.2983 -0.9158  0.0247
43432SOL     OW48287   5.583  11.647   4.828 -0.3087  0.3283  0.4875
43432SOL    HW148288   5.659  11.705   4.826 -0.8394  1.0882  1.6232
43432SOL    HW248289   5.620  11.559   4.831  0.5075  0.5771 -0.9367
43433SOL     OW48290  13.907   1.382   7.111  0.4902 -0.2778  0.2241
43433SOL    HW148291  13.872   1.468   7.087 -0.2079 -1.1502 -2.1325
43433SOL    HW248292  13.829   1.329   7.128  0.8837 -0.7517  0.5806
43434SOL     OW48293   9.973   2.431   0.608  0.1386 -0.1409  0.1662
43434SOL    HW148294  10.004   2.484   0.535  0.5374 -2.2034 -1.2376
43434SOL    HW248295  10.044   2.437   0.673 -1.1087  3.4242  1.4742
43435SOL     OW48296   8.818   1.679   6.131 -0.0334 -0.0252 -0.2703
43435SOL    HW148297   8.907   1.645   6.119 -0.0934  0.2370 -1.5570
43435SOL    HW248298   8.783   1.630   6.205  0.6430 -1.2254 -0.7338
43436SOL     OW48299   9.846   6.156   6.525  0.1674 -0.4526  0.0973
43436SOL    HW148300   9.910   6.109   6.472  1.8936  0.3115  1.4127
43436SOL    HW248301   9.843   6.108   6.607  1.3412  1.1880  1.1538
43437SOL     OW48302   2.411  10.356   7.607  0.4745  0.5641 -0.3157
43437SOL    HW148303   2.373  10.438   7.640 -1.4944 -0.8091  1.0251
43437SOL    HW248304   2.485  10.340   7.664 -0.4316  0.3446  0.8409
43438SOL     OW48305   9.103  13.319   2.634  0.0962  0.2211  0.1594
43438SOL    HW148306   9.122  13.396   2.581 -0.9835 -0.1881 -0.8613
43438SOL    HW248307   9.040  13.349   2.699  1.3386  0.6958  1.1999
43439SOL     OW48308   9.939   6.485   8.773 -0.9307  0.0652  0.0633
43439SOL    HW148309   9.959   6.506   8.864 -0.4602 -0.7165  0.1472
43439SOL    HW248310  10.025   6.472   8.732 -1.1358  0.4860 -0.5159
43440SOL     OW48311   0.097   8.106   7.248  0.7951  0.4413  0.2654
43440SOL    HW148312   0.017   8.086   7.296 -0.1784  1.8869 -0.6730
43440SOL    HW248313   0.106   8.035   7.185  0.0685  0.4447  0.1534
43441SOL     OW48314   8.123   6.389   4.627 -0.7141 -0.0495  0.2089
43441SOL    HW148315   8.106   6.484   4.626  0.5150  0.1966 -1.2604
43441SOL    HW248316   8.212   6.382   4.662 -2.0094 -0.9925  3.7467
43442SOL     OW48317  12.440  10.513   4.322 -0.0058 -0.9145  0.2324
43442SOL    HW148318  12.534  10.495   4.329  0.1141  0.2083  2.6606
43442SOL    HW248319  12.435  10.600   4.282 -0.0545 -1.2039 -0.4026
43443SOL     OW48320   9.494   9.215  13.075  0.1364 -0.2148 -0.2375
43443SOL    HW148321   9.574   9.204  13.127 -0.1057 -1.5907 -0.1427
43443SOL    HW248322   9.433   9.258  13.134  0.8276  0.9755 -0.3490
43444SOL     OW48323  12.486   6.846   4.983 -0.6103  0.8025 -0.7962
43444SOL    HW148324  12.447   6.791   4.915 -0.2177  0.5674 -0.8344
43444SOL    HW248325  12.578   6.854   4.958 -0.8395  2.2051 -1.2637
43445SOL     OW48326   9.388   4.459   6.611  0.3192 -0.1753 -0.0872
43445SOL    HW148327   9.359   4.550   6.606 -0.0771 -0.3307 -0.8823
43445SOL    HW248328   9.433   4.443   6.527  0.9874 -0.5122  0.3293
43446SOL     OW48329   0.835  11.094   3.965  0.4141  0.3202  0.6363
43446SOL    HW148330   0.740  11.083   3.974  0.2234  0.4656 -0.9433
43446SOL    HW248331   0.857  11.161   4.030 -0.3450 -0.5621  1.8634
43447SOL     OW48332  12.150   9.639  12.174  0.5759  0.5029 -0.2490
43447SOL    HW148333  12.229   9.603  12.135  0.3203 -0.9671  0.5517
43447SOL    HW248334  12.083   9.628  12.107  0.3765 -1.0476  0.1798
43448SOL     OW48335   3.514  13.512   5.989 -0.0751 -0.1027  0.1875
43448SOL    HW148336   3.607  13.522   5.969  0.3962  0.4970  2.3696
43448SOL    HW248337   3.511  13.447   6.060 -1.1928  0.6988  0.9244
43449SOL     OW48338  13.552   7.450   4.693  0.1639 -0.4191  0.1198
43449SOL    HW148339  13.614   7.519   4.671 -1.1545  0.7963  0.0174
43449SOL    HW248340  13.594   7.369   4.664  0.3192  0.6515 -3.1638
43450SOL     OW48341   3.148  13.584  10.735 -0.4485  0.2520 -0.1146
43450SOL    HW148342   3.225  13.586  10.792 -0.5921  0.8939  0.0636
43450SOL    HW248343   3.115  13.674  10.736 -1.1485  0.0021 -0.2561
43451SOL     OW48344  13.669   7.385   7.723  0.2294 -0.1277 -0.6249
43451SOL    HW148345  13.586   7.415   7.760 -1.0021 -2.0270 -1.6904
43451SOL    HW248346  13.715   7.465   7.698 -1.8444  0.9446 -1.2029
43452SOL     OW48347  11.583   5.703   4.778  0.4762 -0.5198 -0.3445
43452SOL    HW148348  11.502   5.719   4.728 -0.2587 -3.1847 -0.1622
43452SOL    HW248349  11.563   5.736   4.866  0.6921  1.4668 -0.9934
43453SOL     OW48350   9.449   1.911   7.629 -0.0578  0.4635 -0.0572
43453SOL    HW148351   9.465   2.004   7.611 -1.9562  0.6098 -1.2881
43453SOL    HW248352   9.536   1.871   7.624  0.8991  2.2503  1.2026
43454SOL     OW48353  13.776   0.793   6.497 -0.0901 -0.7621 -0.1193
43454SOL    HW148354  13.803   0.715   6.448  0.7747 -1.2149  1.0315
43454SOL    HW248355  13.831   0.864   6.463  1.1083 -1.2469  0.7410
43455SOL     OW48356   0.617   6.213   2.078  0.0638  0.3273  1.0310
43455SOL    HW148357   0.558   6.265   2.024  0.9441 -0.1519 -0.4238
43455SOL    HW248358   0.650   6.144   2.021  3.0671  1.3343  1.3432
43456SOL     OW48359   1.176   8.094   2.593 -0.3264 -0.1017  0.0426
43456SOL    HW148360   1.122   8.133   2.662 -2.4374 -1.2806 -0.8536
43456SOL    HW248361   1.154   8.143   2.514 -0.3530 -0.8165 -0.4048
43457SOL     OW48362  12.116   8.851   5.599 -0.3949  0.1487  0.0296
43457SOL    HW148363  12.176   8.808   5.537 -0.0748  1.6521 -0.7457
43457SOL    HW248364  12.040   8.792   5.602 -0.1061 -0.3353 -1.2276
43458SOL     OW48365  12.687   2.086   9.749 -0.1611 -0.6134 -0.2242
43458SOL    HW148366  12.691   2.006   9.696 -1.1244 -0.5317 -0.4384
43458SOL    HW248367  12.603   2.080   9.794  0.6758 -0.7372  1.4023
43459SOL     OW48368   8.580  13.363   0.904 -0.3198 -0.2165 -0.3838
43459SOL    HW148369   8.498  13.320   0.881 -0.5203  0.5982 -1.2562
43459SOL    HW248370   8.603  13.414   0.826  0.7318 -0.0105  0.0466
43460SOL     OW48371  11.584   8.276  13.272  0.4409  0.4833  0.0141
43460SOL    HW148372  11.678   8.272  13.257  0.8747 -1.1050  2.5895
43460SOL    HW248373  11.556   8.185  13.279 -1.5406  0.8750 -1.7302
43461SOL     OW48374  12.901  10.619   2.961 -0.1394  0.4021  0.3656
43461SOL    HW148375  12.881  10.533   2.924  0.0330  0.0650  1.0303
43461SOL    HW248376  12.832  10.635   3.025  0.7716 -0.0285  1.4815
43462SOL     OW48377   9.543   0.869   5.055 -0.3548 -0.1094  0.3850
43462SOL    HW148378   9.606   0.848   5.125 -1.3071 -0.8514  1.0410
43462SOL    HW248379   9.561   0.960   5.034 -0.1735  0.1915  1.7448
43463SOL     OW48380   0.282   3.001  13.564  0.5149 -0.4283 -0.2397
43463SOL    HW148381   0.359   3.051  13.592 -0.0522 -0.1200  0.8021
43463SOL    HW248382   0.208   3.058  13.582 -0.2991 -2.1596  2.4782
43464SOL     OW48383   6.210   6.431  11.836  0.3042  0.3937  0.4647
43464SOL    HW148384   6.152   6.357  11.854  1.0533 -0.4410 -0.4455
43464SOL    HW248385   6.163   6.507  11.870  0.0654 -0.6291  2.5896
43465SOL     OW48386   9.978   5.800   6.829 -0.3715 -0.0594 -0.3086
43465SOL    HW148387  10.000   5.853   6.906 -1.6017  2.2823 -1.4773
43465SOL    HW248388  10.059   5.797   6.778  0.4977 -1.7439  1.0323
43466SOL     OW48389   4.909   8.583  13.636  0.1642 -0.1740  0.0191
43466SOL    HW148390   4.827   8.571  13.685  0.3357  0.1211  0.3875
43466SOL    HW248391   4.975   8.594  13.704  0.0964  2.4950 -0.2362
43467SOL     OW48392   7.132   0.647   7.451  0.1911 -0.3529 -0.3173
43467SOL    HW148393   7.088   0.655   7.366  0.1030  0.8465 -0.1729
43467SOL    HW248394   7.062   0.661   7.515  0.5259  0.2052 -0.0695
43468SOL     OW48395  11.500   3.541   4.088  0.1166 -0.2824  0.4776
43468SOL    HW148396  11.540   3.591   4.159 -0.9144  3.0082 -1.1057
43468SOL    HW248397  11.406   3.549   4.102 -0.1433  1.2181 -1.6492
43469SOL     OW48398  13.676   8.404   6.531  0.6464  0.2963 -0.5718
43469SOL    HW148399  13.721   8.446   6.458 -0.3650  0.9969 -0.8209
43469SOL    HW248400  13.594   8.373   6.493 -0.7290  2.2492  0.5866
43470SOL     OW48401   3.228  13.220   8.999 -0.0354  0.5645  1.1819
43470SOL    HW148402   3.149  13.182   9.037 -0.9529  0.2249 -0.9386
43470SOL    HW248403   3.239  13.175   8.916  3.2948 -0.4937  2.0537
43471SOL     OW48404   2.836   9.746  10.834 -0.7652  0.5346 -0.4756
43471SOL    HW148405   2.752   9.787  10.855 -0.6232  0.8325 -0.4820
43471SOL    HW248406   2.848   9.763  10.740  0.3042  2.3555 -0.0392
43472SOL     OW48407   6.120  13.640  12.821 -0.3023  0.0053  0.0671
43472SOL    HW148408   6.074  13.719  12.792  0.3889  1.1364  1.8738
43472SOL    HW248409   6.103  13.576  12.752  1.4294  2.5111 -2.9710
43473SOL     OW48410  10.949   6.833   6.066  0.2597 -0.3385 -0.1699
43473SOL    HW148411  10.979   6.798   6.150  2.2927  0.4281 -0.5256
43473SOL    HW248412  10.885   6.901   6.089  0.5989 -0.3198  0.7350
43474SOL     OW48413   2.966   6.996   9.772  0.2210 -0.0678 -0.0831
43474SOL    HW148414   2.881   7.032   9.796  0.0599 -1.1042  0.9776
43474SOL    HW248415   2.974   7.014   9.679 -0.3771  1.6015  0.1440
43475SOL     OW48416   1.678   5.373   8.634  0.2468  0.0236 -0.5951
43475SOL    HW148417   1.707   5.282   8.644 -1.4219 -0.5314 -0.5674
43475SOL    HW248418   1.759   5.422   8.615  1.6204 -0.9841  2.1260
43476SOL     OW48419  12.810   2.254  13.944  0.3435 -0.0931  0.2776
43476SOL    HW148420  12.790   2.249  13.851  0.6795 -1.7828  0.2697
43476SOL    HW248421  12.793   2.166  13.977  1.1893  0.2145  1.6141
43477SOL     OW48422   8.442  10.885   4.207 -0.0716  0.2891 -0.1373
43477SOL    HW148423   8.385  10.911   4.280  0.4412  0.6166  0.1514
43477SOL    HW248424   8.461  10.966   4.161  1.8013  0.5373  0.9576
43478SOL     OW48425  13.911  12.118   8.781 -0.1882 -0.2663  0.2829
43478SOL    HW148426  13.943  12.202   8.814 -1.6454 -0.0159  1.1268
43478SOL    HW248427  13.856  12.140   8.706 -0.7668 -0.4393  0.6516
43479SOL     OW48428   3.591   8.713  13.868 -0.9527  0.1100 -0.4116
43479SOL    HW148429   3.598   8.641  13.805  0.0541 -0.3245  0.1499
43479SOL    HW248430   3.508   8.755  13.849 -1.2959 -0.8601 -1.1321
43480SOL     OW48431   5.652   6.414   7.079  0.2656 -0.0286 -0.3969
43480SOL    HW148432   5.659   6.443   7.170  1.0803  0.9945 -0.7621
43480SOL    HW248433   5.591   6.475   7.038 -2.2444 -2.0657  0.0330
43481SOL     OW48434   9.683   1.448  10.743 -0.1411 -0.1680 -0.6338
43481SOL    HW148435   9.617   1.515  10.725 -0.2801 -0.2080 -0.2984
43481SOL    HW248436   9.633   1.368  10.758 -0.0490 -0.1164  0.0047
43482SOL     OW48437  12.986   8.274  10.422 -0.4971 -0.4579  0.0642
43482SOL    HW148438  12.960   8.314  10.505  0.1658  0.0754  0.0248
43482SOL    HW248439  13.070   8.233  10.441 -0.3337 -0.3169 -0.3442
43483SOL     OW48440  10.008  12.313   9.378  0.0739  0.1703 -0.2267
43483SOL    HW148441   9.926  12.361   9.396 -1.0329 -1.9610  0.8290
43483SOL    HW248442  10.047  12.300   9.464  0.4454 -0.6404 -0.5105
43484SOL     OW48443  12.119   5.232  13.315 -0.0048  0.0883  0.1722
43484SOL    HW148444  12.086   5.251  13.403  0.3305 -1.5574  0.6831
43484SOL    HW248445  12.214   5.238  13.322  0.0826 -1.0842  0.2096
43485SOL     OW48446  13.628  10.756   7.746 -0.0696 -0.3184  0.1007
43485SOL    HW148447  13.669  10.843   7.748 -0.5785 -0.0663 -0.1565
43485SOL    HW248448  13.633  10.725   7.837  0.0063  0.0300  0.2186
43486SOL     OW48449  13.597   5.012  10.082  0.3606 -0.1833  0.0834
43486SOL    HW148450  13.553   5.018  10.167 -2.0229  2.1762 -1.1641
43486SOL    HW248451  13.689   5.033  10.101  0.0863 -0.6171  2.1750
43487SOL     OW48452  12.221   9.815   9.168  0.2715  0.4073 -0.0093
43487SOL    HW148453  12.191   9.901   9.198 -0.7560  0.4411 -1.0436
43487SOL    HW248454  12.191   9.810   9.077  1.2533 -0.6193 -0.2994
43488SOL     OW48455  13.736   0.317   3.442 -0.0928  0.0755 -0.3783
43488SOL    HW148456  13.765   0.247   3.501  0.3368  0.2860 -0.3371
43488SOL    HW248457  13.725   0.393   3.499  2.0281  0.7740 -0.7909
43489SOL     OW48458   4.503   5.018  10.020  0.0377  0.0723  0.1780
43489SOL    HW148459   4.570   5.008   9.953 -0.4417 -0.8357 -0.1812
43489SOL    HW248460   4.544   5.071  10.088  1.7726 -1.9885  0.8281
43490SOL     OW48461   6.133  12.174   3.497  0.2732  0.0717  0.1577
43490SOL    HW148462   6.082  12.192   3.576  1.0902 -0.9779  0.9536
43490SOL    HW248463   6.118  12.250   3.440 -0.8181  0.5512  1.0637
43491SOL     OW48464   9.390   8.013  11.656  0.0605 -0.3517  0.4485
43491SOL    HW148465   9.346   7.947  11.711  2.0029  0.5516  3.3240
43491SOL    HW248466   9.417   8.081  11.717  1.1110  1.5003 -1.9182
43492SOL     OW48467   2.624   4.944   8.597 -0.1639  0.2833 -0.2038
43492SOL    HW148468   2.597   4.945   8.505 -1.5358  1.5095  0.1737
43492SOL    HW248469   2.544   4.963   8.645  0.7385  0.6742  1.1922
43493SOL     OW48470  13.458   4.985   6.198 -0.2636  0.3824 -0.1825
43493SOL    HW148471  13.379   5.034   6.173 -1.0366 -0.4926  0.4684
43493SOL    HW248472  13.522   5.053   6.221 -1.1816  1.1049  0.3157
43494SOL     OW48473   5.583   7.501  13.062 -0.4030 -0.8623  0.0492
43494SOL    HW148474   5.618   7.585  13.090  0.2600 -0.7020 -1.1793
43494SOL    HW248475   5.545   7.518  12.976 -1.3611 -1.5649  0.3185
43495SOL     OW48476  10.317  13.145   6.423 -0.1865  0.0577 -0.4922
43495SOL    HW148477  10.407  13.114   6.417  0.9761  2.8744  0.6115
43495SOL    HW248478  10.272  13.077   6.474  1.2942 -1.3652 -0.9849
43496SOL     OW48479  11.384   9.967   1.567  0.3407 -1.0129 -0.1109
43496SOL    HW148480  11.411  10.026   1.637  1.1704 -0.9540 -0.4752
43496SOL    HW248481  11.457   9.968   1.505 -0.3818 -1.0432 -0.9874
43497SOL     OW48482   7.505   7.738  11.054 -0.2350  0.0227 -0.1998
43497SOL    HW148483   7.579   7.684  11.024 -0.4698 -0.9070  0.8138
43497SOL    HW248484   7.533   7.828  11.037  0.6567 -0.3655 -0.8771
43498SOL     OW48485   9.997   3.123   6.960  0.2913 -0.2451 -0.5543
43498SOL    HW148486  10.037   3.210   6.954 -0.4321  0.1266 -0.0584
43498SOL    HW248487  10.070   3.063   6.944  1.3533  0.3639  1.6772
43499SOL     OW48488   1.167   5.792   1.836  0.1839 -0.9142  0.2395
43499SOL    HW148489   1.201   5.868   1.883  1.4914 -0.3495 -1.5228
43499SOL    HW248490   1.076   5.814   1.816  0.5154  0.1485 -0.1438
43500SOL     OW48491   8.579  10.326   5.970 -0.5344 -0.5646  0.5884
43500SOL    HW148492   8.567  10.242   5.925  0.7349 -0.9278  0.8767
43500SOL    HW248493   8.520  10.386   5.926 -1.0797 -1.4891  0.0296
43501SOL     OW48494   3.787   4.608   0.921 -0.0096 -0.2162  0.0693
43501SOL    HW148495   3.716   4.593   0.858  0.0296 -0.4540  0.0811
43501SOL    HW248496   3.843   4.531   0.913 -0.2195 -0.4398  0.6773
43502SOL     OW48497   0.244   5.340   2.449 -0.0857  0.1889 -0.1271
43502SOL    HW148498   0.277   5.412   2.395  1.1230  0.6495  1.1765
43502SOL    HW248499   0.277   5.261   2.406  0.6192  0.5368 -0.2384
43503SOL     OW48500  13.577   9.674   7.113  0.8330  0.5558 -0.2786
43503SOL    HW148501  13.543   9.729   7.043  1.1532  0.8188 -0.2303
43503SOL    HW248502  13.659   9.638   7.079  0.8358  0.4379 -0.1535
43504SOL     OW48503   6.519  14.016   9.963  0.0515  0.1371 -0.1827
43504SOL    HW148504   6.432  13.998  10.000  0.5420 -1.9057  0.1470
43504SOL    HW248505   6.518  13.973   9.877  1.2507 -1.4767  0.5483
43505SOL     OW48506   8.513  12.450  11.688  0.3994  0.1572  0.1739
43505SOL    HW148507   8.538  12.374  11.741 -0.4425 -0.8249 -0.7886
43505SOL    HW248508   8.577  12.452  11.617  1.1224  1.0732  0.8211
43506SOL     OW48509   7.926  12.973   8.414  0.0479  0.1406 -0.1815
43506SOL    HW148510   7.853  12.923   8.450  0.9269  0.0734  1.6187
43506SOL    HW248511   8.003  12.918   8.429  0.8935  1.5461  0.9331
43507SOL     OW48512   1.015   5.790   8.076 -0.4187  0.1439 -0.2119
43507SOL    HW148513   1.036   5.850   8.005 -0.8621  0.6056  0.0392
43507SOL    HW248514   0.920   5.782   8.073 -0.3136 -1.1726 -0.7426
43508SOL     OW48515  12.251  12.515   1.032  0.6201 -0.1413  0.1820
43508SOL    HW148516  12.270  12.426   1.002 -0.7698 -0.4059 -0.0126
43508SOL    HW248517  12.230  12.505   1.125 -0.4362 -0.1802 -0.0462
43509SOL     OW48518   2.594   2.118  11.583  0.3967  0.0720 -0.3178
43509SOL    HW148519   2.542   2.198  11.575 -2.4386 -1.7274 -1.7441
43509SOL    HW248520   2.587   2.076  11.497  1.1569 -2.0263  0.5573
43510SOL     OW48521   1.355  12.400   5.520 -0.3155 -0.0601  0.0319
43510SOL    HW148522   1.395  12.477   5.481 -0.3179  0.4047  0.9212
43510SOL    HW248523   1.422  12.333   5.516  0.0542  0.2991  0.2253
43511SOL     OW48524   9.048   7.399   9.454  0.6046  0.1086  0.1987
43511SOL    HW148525   8.973   7.382   9.398  0.1171  0.5102  0.7176
43511SOL    HW248526   9.123   7.368   9.404  0.1732  0.4269 -0.6539
43512SOL     OW48527  11.509   3.579   6.643  0.5561 -0.2826  0.3506
43512SOL    HW148528  11.514   3.523   6.721 -0.0922 -4.2805 -2.2098
43512SOL    HW248529  11.591   3.564   6.596 -0.1383 -0.0362 -1.0004
43513SOL     OW48530   2.647   8.725   9.532  0.5376  0.7347 -0.2364
43513SOL    HW148531   2.561   8.745   9.494  0.8791  0.6798 -1.0591
43513SOL    HW248532   2.702   8.799   9.507  1.2171 -0.1109 -1.3415
43514SOL     OW48533  10.257  12.512   9.211 -0.1855 -0.1195  0.0280
43514SOL    HW148534  10.233  12.426   9.246  1.1280 -0.5843 -0.1489
43514SOL    HW248535  10.281  12.496   9.120  0.5734  0.3378  0.1376
43515SOL     OW48536  13.129  12.965   0.920  0.0612  0.2222  0.1346
43515SOL    HW148537  13.196  12.897   0.929 -0.8678 -0.6892  0.3444
43515SOL    HW248538  13.056  12.934   0.973 -1.2820  0.2065 -1.6339
43516SOL     OW48539  12.686   5.652   2.705  0.0760 -0.0555 -0.1722
43516SOL    HW148540  12.665   5.607   2.623 -0.0645  0.4069 -0.3900
43516SOL    HW248541  12.669   5.744   2.687 -1.6332 -0.1233  0.9087
43517SOL     OW48542  13.311   5.215   3.214 -0.0431  0.0335  0.1494
43517SOL    HW148543  13.288   5.164   3.292  0.4543 -0.9533 -0.3340
43517SOL    HW248544  13.364   5.156   3.161 -0.7254  0.5456 -1.1500
43518SOL     OW48545  10.293   6.306  10.947  0.2239 -0.3516  0.2353
43518SOL    HW148546  10.241   6.383  10.969  0.5375 -0.4086  1.2309
43518SOL    HW248547  10.229   6.236  10.935 -0.0210 -0.0768 -0.0777
43519SOL     OW48548   4.145   9.071   0.891 -0.4851 -0.3657  0.1555
43519SOL    HW148549   4.097   9.126   0.829 -1.7389 -1.7694 -0.1656
43519SOL    HW248550   4.153   9.124   0.970 -1.8549  0.1976 -0.0716
43520SOL     OW48551   6.199   1.520  10.691 -0.4628  0.1827 -0.1994
43520SOL    HW148552   6.279   1.469  10.676 -0.9083 -0.0953 -1.7099
43520SOL    HW248553   6.226   1.611  10.679 -0.2476  0.1318 -0.1102
43521SOL     OW48554  10.082   2.884   0.841  0.3492  0.7987 -0.3368
43521SOL    HW148555  10.028   2.886   0.762  0.9722  1.6542 -0.7511
43521SOL    HW248556  10.047   2.952   0.897  1.1427  1.5381 -0.7167
43522SOL     OW48557   3.500   3.956   7.625  0.2997  0.3027  0.0918
43522SOL    HW148558   3.553   3.885   7.589  0.0205 -0.3323  0.8893
43522SOL    HW248559   3.412   3.941   7.590 -0.2384 -0.9883  1.8616
43523SOL     OW48560   7.046   3.522   8.796  0.0402  0.0553 -0.6753
43523SOL    HW148561   7.044   3.429   8.818 -0.6292  0.1696 -0.2251
43523SOL    HW248562   7.139   3.543   8.789  0.1873 -0.8028 -1.4762
43524SOL     OW48563   4.365   7.779   0.854 -0.9416  0.7941  0.0219
43524SOL    HW148564   4.391   7.837   0.781  0.5435  1.3249  0.9177
43524SOL    HW248565   4.365   7.836   0.931 -1.0841 -0.0481  0.6612
43525SOL     OW48566   3.963  14.126  12.048  0.7062 -0.4233 -0.6987
43525SOL    HW148567   3.984  14.037  12.020  0.6140 -0.7175  0.1228
43525SOL    HW248568   4.037  14.153  12.102  0.5113 -0.1921 -0.5405
43526SOL     OW48569  11.016  11.226   0.585  0.0383 -0.3975  0.0548
43526SOL    HW148570  11.057  11.287   0.646 -2.1238  0.3922  0.8313
43526SOL    HW248571  11.066  11.145   0.595  0.9163  0.2718  1.4953
43527SOL     OW48572   1.125   5.501   7.558 -0.5824 -0.2921 -0.2510
43527SOL    HW148573   1.100   5.586   7.594 -1.0385  0.6835 -2.6846
43527SOL    HW248574   1.185   5.521   7.486 -0.0151 -2.0926 -0.3408
43528SOL     OW48575   2.758   8.264  11.430 -0.3513  0.7086 -0.5067
43528SOL    HW148576   2.835   8.232  11.383 -0.8389  0.5185 -1.1858
43528SOL    HW248577   2.794   8.303  11.510  0.3919 -0.0656 -0.4389
43529SOL     OW48578   7.762   2.426   7.308 -0.3953  0.1717  0.0144
43529SOL    HW148579   7.670   2.444   7.293 -0.8057 -0.2039  1.7964
43529SOL    HW248580   7.770   2.421   7.404  1.1535 -1.3693 -0.1450
43530SOL     OW48581  12.039   1.759   3.503 -0.0223  0.3517  0.1423
43530SOL    HW148582  12.027   1.666   3.488 -0.9106  0.7022 -1.5263
43530SOL    HW248583  11.952   1.797   3.497 -0.4130  0.8991  4.8578
43531SOL     OW48584   1.720   1.029   4.692 -0.3599 -0.6267 -0.1078
43531SOL    HW148585   1.755   0.940   4.686 -1.9224 -1.4587  1.9707
43531SOL    HW248586   1.644   1.029   4.634  0.5468 -0.1087 -1.3435
43532SOL     OW48587   6.367  14.145  11.285 -0.2079  0.0546  0.3905
43532SOL    HW148588   6.383  14.117  11.195  1.7492 -1.5918  1.1674
43532SOL    HW248589   6.333  14.235  11.277 -0.2802 -0.1301 -1.9635
43533SOL     OW48590   9.169  12.613  13.711 -0.4009 -0.1006  0.1060
43533SOL    HW148591   9.226  12.680  13.673  1.5477 -1.5031  0.3764
43533SOL    HW248592   9.155  12.641  13.801  0.1252  0.1163  0.1212
43534SOL     OW48593  13.512  13.363   2.133 -0.0556  0.7692 -0.0955
43534SOL    HW148594  13.576  13.429   2.158  1.6513 -0.7793 -0.1337
43534SOL    HW248595  13.565  13.293   2.094 -1.9408  0.0669 -1.5030
43535SOL     OW48596   1.039   7.201  12.775 -0.5554  0.0164 -0.2792
43535SOL    HW148597   1.054   7.107  12.774 -0.5838  0.0079 -0.0595
43535SOL    HW248598   1.019   7.224  12.684 -1.2121 -0.2979 -0.2181
43536SOL     OW48599   3.772   2.475  10.478 -0.0081  0.6909  0.2921
43536SOL    HW148600   3.858   2.439  10.499 -0.8448 -2.5417 -1.1216
43536SOL    HW248601   3.711   2.427  10.534 -1.0796  1.1492 -0.4342
43537SOL     OW48602   7.533   4.305  11.393  0.0985  0.3221 -0.5312
43537SOL    HW148603   7.590   4.350  11.330  0.5841  2.3797  1.2595
43537SOL    HW248604   7.542   4.356  11.474 -0.9753 -1.8448  1.0460
43538SOL     OW48605   8.428   9.808   1.063  0.3690  0.1133  0.0474
43538SOL    HW148606   8.422   9.784   1.155  1.5673  1.8584  0.6332
43538SOL    HW248607   8.338   9.822   1.035  0.0710  1.1679  1.4328
43539SOL     OW48608   7.032   7.838   8.833 -0.2659  0.4459  0.3094
43539SOL    HW148609   7.100   7.816   8.896 -0.9931 -1.1416  0.5920
43539SOL    HW248610   7.078   7.845   8.749  0.5783  1.7842  0.8478
43540SOL     OW48611   4.267   3.750  12.882 -0.1283 -1.1901 -0.0797
43540SOL    HW148612   4.193   3.806  12.904  0.6495 -0.6554  1.2744
43540SOL    HW248613   4.307   3.792  12.805 -0.1987 -0.5060  0.2536
43541SOL     OW48614  13.478  11.405   8.587 -0.3184 -0.8296  0.0856
43541SOL    HW148615  13.480  11.499   8.605 -1.0401 -1.1686  2.1716
43541SOL    HW248616  13.403  11.372   8.636  0.8056 -2.7202  0.6390
43542SOL     OW48617   3.398  12.790   8.923 -0.3458 -0.3857  0.3896
43542SOL    HW148618   3.408  12.740   8.843  1.8946  0.1785  0.2653
43542SOL    HW248619   3.482  12.834   8.936 -0.1938 -1.3466  3.6625
43543SOL     OW48620  11.973  10.983   6.213 -0.3861 -0.2295  0.3325
43543SOL    HW148621  11.991  10.915   6.148 -1.4129 -0.2483  0.0476
43543SOL    HW248622  11.960  10.935   6.294 -1.0948 -0.3827  0.1343
43544SOL     OW48623  13.182   2.607   7.581 -0.1946 -0.3991 -0.4341
43544SOL    HW148624  13.200   2.547   7.509 -0.0538 -2.1001  0.9530
43544SOL    HW248625  13.240   2.681   7.566 -0.3379 -0.5942 -2.1662
43545SOL     OW48626  13.796   6.416   8.746  0.1538  0.3525 -0.1041
43545SOL    HW148627  13.773   6.344   8.804 -1.3206  1.6185  0.9505
43545SOL    HW248628  13.746   6.400   8.666  1.0350 -0.5836 -0.5007
43546SOL     OW48629   7.057   8.942   4.680 -0.2911  0.4199 -0.3882
43546SOL    HW148630   7.078   8.964   4.771 -1.2387  0.4076 -0.1591
43546SOL    HW248631   7.077   8.849   4.674 -1.5769  0.0757  0.2338
43547SOL     OW48632  12.283  13.024   3.313 -0.3000 -0.0491 -0.1259
43547SOL    HW148633  12.234  12.950   3.349  0.2241  0.3624  1.4974
43547SOL    HW248634  12.346  13.047   3.381 -0.2770  1.7284 -0.7103
43548SOL     OW48635   7.647   1.243   8.201  0.6465 -0.0989 -0.3881
43548SOL    HW148636   7.684   1.206   8.120  1.8691 -0.5937  0.3677
43548SOL    HW248637   7.581   1.179   8.228  0.5199 -0.1348 -0.7665
43549SOL     OW48638   6.535   9.238   4.662 -0.2157 -0.7665 -0.2634
43549SOL    HW148639   6.482   9.287   4.599  2.0186 -0.2304 -1.8648
43549SOL    HW248640   6.542   9.297   4.737  0.5031  0.4625 -1.2355
43550SOL     OW48641   1.601   5.821   3.488 -0.0934 -0.3168  0.2018
43550SOL    HW148642   1.626   5.913   3.485  0.9464 -0.5955 -0.6857
43550SOL    HW248643   1.641   5.788   3.569  1.7170 -0.5307 -0.7198
43551SOL     OW48644   6.329   7.335  11.208 -0.1395 -0.2076  0.2120
43551SOL    HW148645   6.296   7.325  11.119 -1.0633  0.0109  0.5185
43551SOL    HW248646   6.252   7.327  11.264  0.6094 -1.6803  1.0972
43552SOL     OW48647   1.273  10.399   0.623  0.1154  0.3927 -0.0005
43552SOL    HW148648   1.191  10.438   0.655 -0.7540  0.5664 -2.2622
43552SOL    HW248649   1.244  10.328   0.566  1.5760  0.0372 -0.3269
43553SOL     OW48650  12.646   5.460   1.297  0.0886 -0.0067  0.0336
43553SOL    HW148651  12.622   5.526   1.232 -0.5266  0.4803  0.7442
43553SOL    HW248652  12.697   5.396   1.247  1.0386  1.1950 -0.5926
43554SOL     OW48653   0.234  13.657  13.318  0.1755 -0.7986 -0.0559
43554SOL    HW148654   0.278  13.596  13.259  1.3756  1.2845 -1.4445
43554SOL    HW248655   0.215  13.606  13.396 -1.1374 -3.6136 -2.0348
43555SOL     OW48656   4.472   4.433   8.369 -0.2661 -0.0880 -0.4807
43555SOL    HW148657   4.497   4.523   8.345  1.5565 -0.6975 -1.0634
43555SOL    HW248658   4.377   4.430   8.358 -0.7525  2.4425  1.8891
43556SOL     OW48659   0.917  13.124   7.853 -0.2797  0.3050 -0.3672
43556SOL    HW148660   0.941  13.181   7.926 -0.2721  1.0999 -0.9821
43556SOL    HW248661   0.871  13.050   7.895  0.1929  0.4725  0.4860
43557SOL     OW48662   0.777   1.921   7.412  0.1695 -0.1381 -0.4665
43557SOL    HW148663   0.737   1.835   7.420 -1.6308  0.7038  0.1863
43557SOL    HW248664   0.738   1.959   7.333  0.6392  0.2271 -0.5273
43558SOL     OW48665   0.823   9.921  12.976  0.0783  0.0012 -0.4172
43558SOL    HW148666   0.918   9.912  12.971  0.4784  2.4732  1.0909
43558SOL    HW248667   0.805  10.004  12.931 -1.5613 -0.9991 -1.7208
43559SOL     OW48668  13.656   9.711  12.016  0.1756  0.6552 -0.3432
43559SOL    HW148669  13.586   9.675  11.962 -0.4603 -2.5799  2.3213
43559SOL    HW248670  13.611   9.764  12.082 -0.1423 -2.2816  2.0350
43560SOL     OW48671  12.295   5.493   3.553  0.1128  0.2729  0.1037
43560SOL    HW148672  12.364   5.499   3.620  1.5451  0.7872 -1.3629
43560SOL    HW248673  12.340   5.511   3.471 -1.6806  0.0008 -0.9783
43561SOL     OW48674   4.166   8.990   8.971  0.7375 -0.3654  0.2798
43561SOL    HW148675   4.165   8.910   8.919  0.7199  0.7222 -1.4535
43561SOL    HW248676   4.258   9.004   8.991  0.8328 -0.3661 -0.1510
43562SOL     OW48677  13.836   1.495   2.622  0.5164 -0.4759 -0.5842
43562SOL    HW148678  13.901   1.426   2.630  1.5026  0.2006 -2.1276
43562SOL    HW248679  13.846   1.548   2.701  0.1107 -1.7750  0.3562
43563SOL     OW48680   6.506  10.047   8.299  0.0421 -0.3623 -0.4402
43563SOL    HW148681   6.589  10.029   8.343 -1.1920  0.1340  2.3753
43563SOL    HW248682   6.440  10.004   8.354 -1.6879  0.5914 -1.6555
43564SOL     OW48683  11.982   1.070   8.504 -0.3676  0.0771  0.1059
43564SOL    HW148684  11.922   1.133   8.541 -1.2857 -0.5310 -0.3016
43564SOL    HW248685  11.956   0.986   8.542  0.8283 -0.0662  0.6427
43565SOL     OW48686   5.471  13.123   1.055 -0.3310 -0.6369 -0.0258
43565SOL    HW148687   5.533  13.071   1.105 -0.6420 -0.0405  1.0284
43565SOL    HW248688   5.441  13.190   1.117 -1.3404 -0.3651 -0.7742
43566SOL     OW48689   5.252  12.204   5.093 -0.3199  0.3398  0.3880
43566SOL    HW148690   5.285  12.153   5.167 -0.4649 -0.1432  0.1232
43566SOL    HW248691   5.193  12.144   5.047  0.3568  0.3779 -0.5569
43567SOL     OW48692   0.862   2.118  11.083  0.0499  0.3866 -0.5547
43567SOL    HW148693   0.770   2.095  11.087  0.0969  0.2569 -0.1981
43567SOL    HW248694   0.879   2.167  11.164  0.4306 -0.1165 -0.3226
43568SOL     OW48695   5.039   1.624   0.439 -0.0601  0.2632  0.2845
43568SOL    HW148696   4.994   1.673   0.508 -0.1895  0.7633 -0.1454
43568SOL    HW248697   4.987   1.641   0.360  1.3033  1.5176 -0.4074
43569SOL     OW48698   9.710   6.567   7.863  0.2299  0.2157  0.0062
43569SOL    HW148699   9.783   6.603   7.812 -0.1443  1.0040  0.0087
43569SOL    HW248700   9.746   6.555   7.951  0.0753  1.6722  0.3043
43570SOL     OW48701   1.351  12.015   0.462 -0.2903  0.2140 -0.1236
43570SOL    HW148702   1.350  12.082   0.394 -1.3087  0.4217  0.0675
43570SOL    HW248703   1.443  11.999   0.480  0.0023  2.4842  0.7075
43571SOL     OW48704   0.884   1.615  13.623  0.6057 -0.3291  0.1212
43571SOL    HW148705   0.818   1.678  13.652 -0.5079 -1.2406 -0.3615
43571SOL    HW248706   0.866   1.603  13.530 -0.7513 -3.0858  0.6400
43572SOL     OW48707   3.744  10.408   3.034  0.0481  0.1082 -0.1533
43572SOL    HW148708   3.748  10.318   3.000 -1.0144  0.5501 -1.5718
43572SOL    HW248709   3.834  10.428   3.059  0.8597 -0.4306 -2.3687
43573SOL     OW48710  10.893   3.228   5.280  0.0911  0.5269 -0.0525
43573SOL    HW148711  10.934   3.298   5.229  0.6740  1.0004  1.0257
43573SOL    HW248712  10.803   3.224   5.247  0.4417  0.8353 -1.0767
43574SOL     OW48713  12.882  11.329  12.091 -0.0142 -0.2931 -0.2451
43574SOL    HW148714  12.852  11.363  12.175  0.3323 -0.3890 -0.0774
43574SOL    HW248715  12.925  11.403  12.048 -3.4811  0.8975 -2.0446
43575SOL     OW48716   5.650   0.115  11.588 -0.8563  0.3974  0.0147
43575SOL    HW148717   5.740   0.090  11.607 -1.0404 -1.0308 -0.8754
43575SOL    HW248718   5.652   0.147  11.498 -0.8877  2.3961  0.6732
43576SOL     OW48719   2.522   5.603   6.996 -0.5011 -0.4535 -0.0776
43576SOL    HW148720   2.475   5.686   7.005 -1.6463 -0.7858 -2.2573
43576SOL    HW248721   2.611   5.628   6.973 -0.0093  0.1528  2.2044
43577SOL     OW48722   0.813   9.043   2.499  0.5560 -0.0061  0.5920
43577SOL    HW148723   0.747   9.037   2.568 -0.9664 -0.1137 -0.8027
43577SOL    HW248724   0.860   9.124   2.516 -1.2832  1.1257  0.5329
43578SOL     OW48725   6.709   2.638   5.599  0.1907 -0.6261  0.0446
43578SOL    HW148726   6.750   2.665   5.682 -0.6199 -0.0337  0.2642
43578SOL    HW248727   6.755   2.690   5.532  1.4401 -1.7313 -0.0012
43579SOL     OW48728   5.007   1.862   3.685 -0.1244  0.1280  0.0231
43579SOL    HW148729   4.970   1.847   3.598 -0.1864 -0.4281  0.1378
43579SOL    HW248730   5.071   1.932   3.672 -0.5066  0.4079 -0.3692
43580SOL     OW48731  11.465   5.448  11.444  0.2455  0.2629  0.2976
43580SOL    HW148732  11.477   5.534  11.484 -1.1837  0.1586  1.0426
43580SOL    HW248733  11.407   5.463  11.369  1.1079  0.1361 -0.4047
43581SOL     OW48734  13.582   7.786   7.607  0.0606 -0.4011  0.5136
43581SOL    HW148735  13.591   7.749   7.519 -0.7262 -0.2589  0.3615
43581SOL    HW248736  13.599   7.712   7.665  2.8025 -0.0074  0.3230
43582SOL     OW48737  11.396  11.435   4.511  0.8592 -0.2921 -0.3793
43582SOL    HW148738  11.477  11.396   4.543  0.6585 -1.4614 -1.2342
43582SOL    HW248739  11.329  11.408   4.574  0.7047 -1.4650 -1.0095
43583SOL     OW48740   1.504  10.911   0.935  0.0365  0.1172 -0.3026
43583SOL    HW148741   1.502  10.942   1.026  2.3974 -0.0847 -0.1058
43583SOL    HW248742   1.459  10.979   0.886 -0.6081  0.6182  0.9270
43584SOL     OW48743   7.245   2.348  10.235 -0.7279 -0.1563  0.1845
43584SOL    HW148744   7.294   2.350  10.152 -0.8224  1.4539  0.1293
43584SOL    HW248745   7.299   2.296  10.294 -0.1245 -0.4079 -0.5770
43585SOL     OW48746   4.002   7.687  11.085 -0.8145  0.3676 -0.2477
43585SOL    HW148747   4.044   7.666  11.168 -0.8519 -0.1021 -0.3412
43585SOL    HW248748   3.909   7.697  11.107 -0.6201  1.7841  0.0242
43586SOL     OW48749   3.897   4.785   2.729  0.7628  0.1427 -0.1798
43586SOL    HW148750   3.987   4.780   2.698  0.8985 -0.4287  0.2997
43586SOL    HW248751   3.890   4.716   2.795 -0.2082 -0.2725 -0.6869
43587SOL     OW48752  13.864  10.905  13.217  0.1345 -0.4128 -0.2765
43587SOL    HW148753  13.805  10.916  13.292  0.1712 -2.1087  0.0477
43587SOL    HW248754  13.812  10.931  13.141  0.0843  1.2921  0.3096
43588SOL     OW48755   4.143   2.278   8.627 -0.0882  0.3625 -0.1043
43588SOL    HW148756   4.227   2.241   8.601 -0.1512 -0.2949  0.5917
43588SOL    HW248757   4.132   2.252   8.718 -0.5183  1.4222  0.1672
43589SOL     OW48758  13.513  13.684  11.630 -0.5921 -0.1849 -0.7300
43589SOL    HW148759  13.528  13.636  11.712  0.0636  0.5850 -0.3783
43589SOL    HW248760  13.419  13.678  11.615 -0.8515  0.3796  0.5454
43590SOL     OW48761  13.730  11.441   4.868 -0.4674 -0.3104  0.0223
43590SOL    HW148762  13.689  11.419   4.951  1.0110  1.4242  1.2997
43590SOL    HW248763  13.810  11.388   4.866 -0.6067 -0.5115 -0.4224
43591SOL     OW48764   4.536  11.766  13.529 -0.3894 -0.0624  0.5418
43591SOL    HW148765   4.608  11.702  13.521 -0.5859 -0.1993 -0.2560
43591SOL    HW248766   4.565  11.840  13.476 -1.5175 -0.7648 -1.1399
43592SOL     OW48767  13.655   5.333   1.064 -0.1808 -0.6358  0.6503
43592SOL    HW148768  13.678   5.366   0.977  0.1307 -0.3673  0.8378
43592SOL    HW248769  13.572   5.377   1.084 -0.1538 -0.5484  0.5743
43593SOL     OW48770   8.340  13.577   6.374 -0.2870 -0.3572 -0.0564
43593SOL    HW148771   8.318  13.606   6.462  0.2896 -1.9484  0.6416
43593SOL    HW248772   8.256  13.573   6.328 -0.7229 -0.5015  0.7366
43594SOL     OW48773  12.469   7.443   2.112  0.1811 -0.6246  0.2742
43594SOL    HW148774  12.418   7.419   2.189 -1.2123 -1.5095 -0.8792
43594SOL    HW248775  12.488   7.359   2.069  0.7451 -0.1321 -0.4670
43595SOL     OW48776   3.352   3.565   4.749 -0.3502  0.3343  0.1866
43595SOL    HW148777   3.373   3.499   4.815 -2.1422 -1.7432 -1.1568
43595SOL    HW248778   3.277   3.612   4.784 -0.5078  0.0884  0.1808
43596SOL     OW48779  11.587   7.202   7.836  0.0866 -1.0231  0.1098
43596SOL    HW148780  11.677   7.213   7.805  0.4082 -2.6399  0.3541
43596SOL    HW248781  11.536   7.265   7.785  1.3325 -0.1574 -0.1088
43597SOL     OW48782   3.258   5.257   9.559 -0.1868  0.1559  0.2096
43597SOL    HW148783   3.171   5.259   9.597 -1.0225 -2.3647 -1.3354
43597SOL    HW248784   3.317   5.242   9.633 -1.3788 -1.0294  0.9544
43598SOL     OW48785   5.351   7.711   8.769  0.2856 -0.1752  0.3098
43598SOL    HW148786   5.296   7.636   8.751  1.1858 -0.6181 -0.7171
43598SOL    HW248787   5.317   7.747   8.851  0.5141 -2.3496  1.4361
43599SOL     OW48788  10.255   6.443   3.232 -0.3889  0.5950 -0.0383
43599SOL    HW148789  10.324   6.508   3.220 -0.9904  0.9306 -1.8860
43599SOL    HW248790  10.300   6.359   3.224  0.2366  0.7486  1.4807
43600SOL     OW48791   4.501   7.381   0.231 -0.2968  0.2831  0.0089
43600SOL    HW148792   4.530   7.353   0.144 -2.6899 -0.4512 -0.6347
43600SOL    HW248793   4.541   7.317   0.291  1.1436  0.6297 -0.5265
43601SOL     OW48794   9.725   8.804   8.737 -0.0075 -0.3930  0.3000
43601SOL    HW148795   9.662   8.760   8.680  0.3108  1.0486 -1.2937
43601SOL    HW248796   9.683   8.888   8.758  0.8961  0.1284  0.1021
43602SOL     OW48797  10.442  11.362   9.384 -0.2636 -0.2134  0.5919
43602SOL    HW148798  10.469  11.450   9.407  2.1572 -0.4307 -1.1206
43602SOL    HW248799  10.348  11.370   9.366 -0.5268  1.5404  2.4110
43603SOL     OW48800  11.201  11.982   7.042 -0.2177  0.0560 -0.5721
43603SOL    HW148801  11.147  11.929   7.100  0.4259  1.2725  1.2156
43603SOL    HW248802  11.287  11.940   7.043 -0.2073  0.0747 -0.6549
43604SOL     OW48803   8.109   3.579  12.075 -0.3231  0.0160  0.7949
43604SOL    HW148804   8.152   3.603  11.993  2.7150 -2.6501  1.4097
43604SOL    HW248805   8.160   3.624  12.142 -0.2518 -0.9755  1.4102
43605SOL     OW48806  11.677   8.249   7.201  0.2051 -0.1086 -0.1932
43605SOL    HW148807  11.771   8.261   7.216  0.0850  0.7433 -0.0872
43605SOL    HW248808  11.639   8.336   7.212 -0.5514 -0.3733 -0.6086
43606SOL     OW48809   5.642  10.060   7.651 -0.2247  0.2223  0.2154
43606SOL    HW148810   5.576  10.128   7.664 -0.0130  0.3618  0.5925
43606SOL    HW248811   5.666  10.067   7.559 -0.4408  0.4447  0.1753
43607SOL     OW48812   8.915  12.915   8.132  0.2250  0.0661  0.0561
43607SOL    HW148813   8.832  12.963   8.126 -0.1790 -0.7863 -2.1052
43607SOL    HW248814   8.890  12.826   8.159  0.2154 -0.5818 -1.9369
43608SOL     OW48815  12.579   8.917   5.727 -0.3802 -0.0931  0.1708
43608SOL    HW148816  12.671   8.891   5.716 -0.4826 -0.2469 -0.3282
43608SOL    HW248817  12.583   8.992   5.787  0.1924  0.7467 -0.8891
43609SOL     OW48818   9.994   1.586  11.583  0.0549  0.2275 -0.0585
43609SOL    HW148819  10.019   1.495  11.562  0.1896  0.1895  0.2630
43609SOL    HW248820  10.040   1.638  11.517 -1.5880 -0.0549 -1.5075
43610SOL     OW48821   0.377  13.031   0.848 -0.2339 -0.2346  0.5990
43610SOL    HW148822   0.449  13.046   0.787 -0.4229  0.0717  0.4543
43610SOL    HW248823   0.302  13.075   0.809 -0.0765  1.0043  1.6382
43611SOL     OW48824  13.386   1.961  11.716 -0.5790 -0.4183  0.0544
43611SOL    HW148825  13.377   1.868  11.695  1.9372 -1.4783  3.0025
43611SOL    HW248826  13.462   1.990  11.666 -0.5459 -0.3146  0.1637
43612SOL     OW48827  12.548   4.612  10.166  0.3549  0.5930  0.2268
43612SOL    HW148828  12.626   4.664  10.184 -0.5811  2.1705 -0.1052
43612SOL    HW248829  12.532   4.563  10.247  1.5940  0.3456  0.3378
43613SOL     OW48830   8.161   4.744  12.982  0.1996  0.7472 -0.4251
43613SOL    HW148831   8.240   4.755  13.036  0.5762 -1.6143 -0.3763
43613SOL    HW248832   8.195   4.718  12.896 -0.4972  0.3563 -0.5859
43614SOL     OW48833   0.702  12.222   8.682 -0.0059  0.3442 -0.4567
43614SOL    HW148834   0.625  12.248   8.630  1.3792  2.0113 -1.8175
43614SOL    HW248835   0.673  12.230   8.773 -1.0937  2.2861 -0.8994
43615SOL     OW48836  12.608   3.015  10.340  0.0158  0.1950  0.5855
43615SOL    HW148837  12.699   2.988  10.355 -0.0536  0.1657  0.9913
43615SOL    HW248838  12.599   3.095  10.392  0.1757  0.9237 -0.4831
43616SOL     OW48839   2.616   8.004  12.230  0.2519  0.1321  0.0990
43616SOL    HW148840   2.560   8.032  12.303 -1.0148 -1.2355 -0.2888
43616SOL    HW248841   2.560   8.013  12.153  1.1603  0.3437 -0.5542
43617SOL     OW48842   8.665   3.679  12.268  0.2886  0.3963 -0.3696
43617SOL    HW148843   8.678   3.770  12.240  1.1335  0.5754  0.5467
43617SOL    HW248844   8.616   3.639  12.197 -1.2137  1.9027 -0.2535
43618SOL     OW48845   5.307  12.241  11.410 -0.0011  0.0989 -0.4477
43618SOL    HW148846   5.384  12.186  11.394 -1.3897 -2.0521 -0.1017
43618SOL    HW248847   5.286  12.227  11.502 -1.8401 -0.7695 -0.9682
43619SOL     OW48848   8.583  11.265   6.136 -0.1928 -0.1747  0.0228
43619SOL    HW148849   8.490  11.260   6.161  0.1872  0.1546  1.6771
43619SOL    HW248850   8.595  11.196   6.071 -1.1838 -1.6003  1.2767
43620SOL     OW48851  13.981   9.563  11.861  0.0521  0.2600  0.5496
43620SOL    HW148852  13.934   9.497  11.810  1.2202 -0.9485  0.9668
43620SOL    HW248853  13.931   9.644  11.848 -1.8321 -0.8382  0.5916
43621SOL     OW48854   8.845  12.948  11.979  0.1003 -0.1546 -0.1626
43621SOL    HW148855   8.756  12.967  12.009 -0.6507 -2.3324 -0.8602
43621SOL    HW248856   8.840  12.860  11.942  2.2173  0.2547 -1.6030
43622SOL     OW48857  12.416  11.741   9.767 -0.4042 -0.1537  0.3726
43622SOL    HW148858  12.506  11.732   9.734  0.4517  0.5000  2.3727
43622SOL    HW248859  12.383  11.651   9.768  0.4235 -0.4780  0.0832
43623SOL     OW48860   8.441  10.715   8.639  0.4150 -0.2838 -0.3066
43623SOL    HW148861   8.515  10.660   8.662  0.5087  0.3930  1.1145
43623SOL    HW248862   8.373  10.693   8.702 -0.6731 -0.9770 -1.6618
43624SOL     OW48863   6.072  10.417   0.574  0.0902 -0.2205 -0.2329
43624SOL    HW148864   6.061  10.423   0.669  1.5797  1.7007 -0.1151
43624SOL    HW248865   6.138  10.348   0.562  0.2564 -0.1302  0.1482
43625SOL     OW48866   9.443   3.706   6.851  0.2871  0.0728 -0.1274
43625SOL    HW148867   9.397   3.788   6.836 -0.1582 -0.2311 -0.4919
43625SOL    HW248868   9.528   3.731   6.886 -0.3245  0.6453  1.0401
43626SOL     OW48869  14.086   8.795   0.181  0.2367 -0.7404  0.0235
43626SOL    HW148870  14.097   8.885   0.150  0.4669 -1.7529 -3.2534
43626SOL    HW248871  14.161   8.748   0.143 -1.1106 -2.7385 -0.3069
43627SOL     OW48872   6.803  11.407   5.617  0.1689 -0.0672  0.7137
43627SOL    HW148873   6.887  11.396   5.572  2.4262  1.7688  4.0220
43627SOL    HW248874   6.771  11.318   5.629  1.5065 -0.8183 -0.8345
43628SOL     OW48875  10.516  10.450   0.865 -0.6722  0.2479 -0.1372
43628SOL    HW148876  10.557  10.455   0.778 -0.3732  0.9161  0.0367
43628SOL    HW248877  10.430  10.491   0.853 -1.1694 -0.8365 -0.4177
43629SOL     OW48878   4.241   7.724  14.122  0.5238  0.6893  0.6044
43629SOL    HW148879   4.278   7.712  14.210 -1.2306  0.2486  1.3134
43629SOL    HW248880   4.229   7.635  14.089 -2.0727  0.6782  1.3682
43630SOL     OW48881  11.506  12.393  12.928  0.2870 -0.2598  0.3648
43630SOL    HW148882  11.597  12.365  12.938  0.1292 -0.9316 -0.0290
43630SOL    HW248883  11.455  12.329  12.978  0.1430  1.1541  2.1634
43631SOL     OW48884   2.959   5.093   9.023 -0.5369 -0.7514 -0.7759
43631SOL    HW148885   2.985   5.039   9.097 -0.9938  0.2325  0.1308
43631SOL    HW248886   2.866   5.072   9.008 -0.2553 -1.5003 -1.5780
43632SOL     OW48887  13.315  12.298   7.773  0.0052 -0.0862  0.7872
43632SOL    HW148888  13.251  12.349   7.823 -0.8077 -0.5591  0.2604
43632SOL    HW248889  13.263  12.231   7.730  0.7806 -0.1063 -0.1484
43633SOL     OW48890   6.939  12.566  13.948 -0.6076 -0.1817 -0.0952
43633SOL    HW148891   6.858  12.571  13.999 -0.3909 -1.9122  0.4813
43633SOL    HW248892   6.944  12.650  13.903 -1.6003  0.8276  1.5550
43634SOL     OW48893   2.353   7.496  10.994  0.1403  0.3477  0.2351
43634SOL    HW148894   2.309   7.414  11.016 -3.2734  1.6365 -1.0933
43634SOL    HW248895   2.364   7.541  11.078  0.2340 -0.6158  0.7514
43635SOL     OW48896   9.170  11.751   7.989  0.0357  0.0286 -0.4909
43635SOL    HW148897   9.141  11.787   7.905 -2.2329 -1.8080 -0.5992
43635SOL    HW248898   9.157  11.822   8.051 -1.3478  0.4103 -1.1786
43636SOL     OW48899   9.539  10.878   5.101 -0.2431 -0.1746 -0.1999
43636SOL    HW148900   9.485  10.799   5.093 -0.5025  0.1362 -1.7488
43636SOL    HW248901   9.619  10.848   5.144 -0.5637 -1.1634 -0.2723
43637SOL     OW48902   8.068   3.481   3.602 -0.5268  0.1176 -0.1875
43637SOL    HW148903   8.005   3.411   3.585 -1.7188  0.2961  2.9153
43637SOL    HW248904   8.134   3.442   3.659  0.1011  0.9208 -0.3340
43638SOL     OW48905  12.395  12.820   4.919  0.0125  0.0026 -0.1241
43638SOL    HW148906  12.478  12.856   4.888 -0.5434  2.2030  0.7688
43638SOL    HW248907  12.411  12.796   5.010 -0.2678  0.1848 -0.0259
43639SOL     OW48908   9.809   5.270   5.105  0.4521 -0.1464 -0.0468
43639SOL    HW148909   9.771   5.259   5.192 -1.1914 -1.5727 -0.8735
43639SOL    HW248910   9.738   5.246   5.045  2.0093 -0.7494 -1.7466
43640SOL     OW48911   5.237   2.113  12.605  0.5136  0.7229 -0.3645
43640SOL    HW148912   5.315   2.161  12.633  0.6101  0.4745 -0.2034
43640SOL    HW248913   5.248   2.025  12.642  0.7297  0.3340 -1.3229
43641SOL     OW48914   2.100   0.302   3.656  0.4915 -0.1306 -0.0841
43641SOL    HW148915   2.132   0.238   3.720 -1.0732 -0.3208  0.5309
43641SOL    HW248916   2.047   0.251   3.595  1.3899  0.1709 -1.1637
43642SOL     OW48917   8.320   4.579   7.546 -0.4059 -0.1841  0.2776
43642SOL    HW148918   8.298   4.670   7.570  0.7987  0.4985 -1.0654
43642SOL    HW248919   8.251   4.553   7.485 -0.6773 -0.1320  0.5584
43643SOL     OW48920  10.760   1.712   6.415  0.0872 -0.2971  0.1075
43643SOL    HW148921  10.704   1.721   6.338 -0.7529 -0.1175  0.7185
43643SOL    HW248922  10.718   1.644   6.468  0.6941 -0.4767  0.3740
43644SOL     OW48923   2.200  11.256  11.888 -0.6168 -0.5079 -0.7067
43644SOL    HW148924   2.133  11.255  11.955 -0.0748  1.6116 -0.0434
43644SOL    HW248925   2.201  11.346  11.856  0.9782 -0.8110 -1.6559
43645SOL     OW48926   4.263  12.077  13.960 -0.8185  0.4070  0.2987
43645SOL    HW148927   4.272  11.982  13.962 -0.9753  0.3436 -0.8447
43645SOL    HW248928   4.272  12.105  14.051  1.7279 -0.4505  0.3708
43646SOL     OW48929   2.022  10.625   6.728  0.2963 -0.4281  0.2735
43646SOL    HW148930   1.999  10.538   6.762 -1.9551  0.0141  0.0353
43646SOL    HW248931   1.945  10.679   6.746  0.8172  0.9896 -1.4613
43647SOL     OW48932   8.498   7.246   4.972 -0.5615 -0.3048  0.2179
43647SOL    HW148933   8.558   7.174   4.991 -1.1313 -0.5244  1.2539
43647SOL    HW248934   8.503   7.303   5.049 -1.9724 -0.5415  0.5057
43648SOL     OW48935  10.648  12.847   4.590  0.3495  0.1480  0.3287
43648SOL    HW148936  10.736  12.883   4.578  0.5402 -0.9190 -1.8546
43648SOL    HW248937  10.590  12.923   4.581  0.9087  0.4210 -1.2109
43649SOL     OW48938  11.107   2.031  14.044 -0.3346  0.1329 -0.4711
43649SOL    HW148939  11.197   1.998  14.045 -0.2801  0.1377 -2.1056
43649SOL    HW248940  11.059   1.972  14.102  0.7762  0.3215  0.6615
43650SOL     OW48941   5.516   7.813   9.957  0.0080  0.0300  0.4736
43650SOL    HW148942   5.533   7.890   9.903  1.2333 -1.4483 -1.4094
43650SOL    HW248943   5.586   7.814  10.022  0.7478 -0.0908 -0.2953
43651SOL     OW48944   3.204  12.287   4.711 -0.1679 -0.1970  0.0691
43651SOL    HW148945   3.246  12.296   4.626  0.1942  0.6865  0.3275
43651SOL    HW248946   3.170  12.197   4.712 -0.8764  0.0315 -1.3125
43652SOL     OW48947   1.917   3.117   1.026 -0.0335 -0.3916 -0.1170
43652SOL    HW148948   1.933   3.158   0.941  0.3178 -1.3148 -0.5028
43652SOL    HW248949   1.883   3.030   1.005  3.3141 -2.0352  0.5957
43653SOL     OW48950   4.873   9.451   5.564 -0.3181 -0.3512  0.1197
43653SOL    HW148951   4.899   9.536   5.598  0.1573 -0.5196  0.1854
43653SOL    HW248952   4.895   9.389   5.634 -1.1377 -0.4733  0.2811
43654SOL     OW48953   1.435  12.950  11.850  0.4389 -0.3043  0.7744
43654SOL    HW148954   1.502  12.974  11.787 -0.0551 -0.4018  0.2042
43654SOL    HW248955   1.363  13.011  11.834 -0.7556 -1.9676 -0.5748
43655SOL     OW48956   5.236  13.630   9.465  0.7709 -0.8975 -0.5481
43655SOL    HW148957   5.156  13.611   9.514  0.1165  0.9627 -0.8171
43655SOL    HW248958   5.218  13.712   9.420  2.7971 -0.4917 -0.7265
43656SOL     OW48959   2.584  10.786   4.896 -0.1449  0.2730 -0.1205
43656SOL    HW148960   2.671  10.767   4.932 -1.1756 -0.2593  2.3432
43656SOL    HW248961   2.567  10.877   4.920 -0.7916 -0.0428  0.6830
43657SOL     OW48962   9.503   0.074   8.460 -0.2433  0.1411 -0.4758
43657SOL    HW148963   9.499   0.085   8.555 -0.9854  0.0467 -0.4912
43657SOL    HW248964   9.594   0.091   8.438 -0.1242  0.4472  0.2193
43658SOL     OW48965   5.775   7.399   5.320 -0.0270 -0.3912  0.6463
43658SOL    HW148966   5.820   7.433   5.243 -0.9113 -0.6753 -0.0090
43658SOL    HW248967   5.755   7.477   5.373 -0.3441 -0.0884  0.0856
43659SOL     OW48968   8.245   6.397   8.400 -0.2965 -0.4349  0.1945
43659SOL    HW148969   8.329   6.362   8.429 -0.4043  0.7293  2.0409
43659SOL    HW248970   8.266   6.483   8.364 -0.5183 -0.8011 -0.8592
43660SOL     OW48971   5.025   6.543  12.433 -0.1033 -0.0620  0.2320
43660SOL    HW148972   5.082   6.581  12.500  0.9592  0.1963 -0.7888
43660SOL    HW248973   4.993   6.463  12.473  0.9444 -0.1942  0.8697
43661SOL     OW48974   6.078  13.743   4.806  0.2739 -0.1836  0.1920
43661SOL    HW148975   6.141  13.742   4.734  1.0067  1.7856  0.7470
43661SOL    HW248976   5.994  13.728   4.764  0.9148 -1.2745 -0.7710
43662SOL     OW48977   5.217   7.919  12.415 -0.6267 -0.0915 -0.0672
43662SOL    HW148978   5.158   7.848  12.391  0.2483 -0.1714 -2.1446
43662SOL    HW248979   5.203   7.986  12.348  0.1892  0.7428  0.5654
43663SOL     OW48980   4.044   0.720   1.150 -0.0612 -0.6018 -0.4407
43663SOL    HW148981   4.006   0.803   1.121 -0.9060 -0.3220  1.3523
43663SOL    HW248982   4.128   0.745   1.189 -0.1879 -0.6300 -0.1526
43664SOL     OW48983   5.858  12.134  10.283  0.2881 -0.6201  0.5737
43664SOL    HW148984   5.939  12.147  10.234  0.0770 -0.6172  0.2182
43664SOL    HW248985   5.883  12.081  10.358  0.9325  0.7702  1.3750
43665SOL     OW48986   7.414   2.774   6.900  0.1066 -0.2928 -0.2432
43665SOL    HW148987   7.470   2.767   6.977 -1.2745 -0.6710  0.7522
43665SOL    HW248988   7.347   2.837   6.924 -0.5227 -0.6362 -1.0313
43666SOL     OW48989   0.769  12.430  10.111  0.4148 -0.5025  0.2218
43666SOL    HW148990   0.686  12.466  10.081 -0.8252 -3.3725 -0.0133
43666SOL    HW248991   0.786  12.476  10.194 -0.7952  0.8987 -0.2543
43667SOL     OW48992   4.767   1.092   3.550 -0.2797  0.1561  0.0013
43667SOL    HW148993   4.786   1.036   3.475  1.2431 -0.3622  0.7223
43667SOL    HW248994   4.807   1.046   3.624  0.6502  1.9894  0.6889
43668SOL     OW48995  13.285  11.689   4.493  0.2559  0.7418 -0.2998
43668SOL    HW148996  13.307  11.722   4.580  1.1406  1.5540 -0.8189
43668SOL    HW248997  13.368  11.656   4.458 -0.4640 -1.5778 -0.0326
43669SOL     OW48998   9.170   0.854  11.462  0.6824 -0.2344  0.3338
43669SOL    HW148999   9.214   0.862  11.378  0.0376  0.8500  0.0697
43669SOL    HW249000   9.077   0.864  11.442  0.5203  0.0655  1.1728
43670SOL     OW49001   7.473   7.123   7.724 -0.2167 -0.4019  0.3955
43670SOL    HW149002   7.414   7.139   7.651  0.7221 -0.2350 -0.3435
43670SOL    HW249003   7.514   7.039   7.704 -2.3895 -2.0839  2.4153
43671SOL     OW49004   7.117   2.605   7.564  0.2987 -0.0613  0.2245
43671SOL    HW149005   7.206   2.625   7.592  0.0380  0.3880  0.7556
43671SOL    HW249006   7.063   2.672   7.606 -0.8749 -2.8075  3.6181
43672SOL     OW49007  10.087  10.405  11.690 -0.1274  0.0304 -0.5706
43672SOL    HW149008  10.008  10.396  11.636 -0.8025 -2.3663  0.7115
43672SOL    HW249009  10.061  10.376  11.777  1.9293  0.1316  0.1360
43673SOL     OW49010  11.952   2.982   4.079  0.1129 -0.2936  0.0120
43673SOL    HW149011  11.952   2.906   4.137  0.7388  0.7285  1.4071
43673SOL    HW249012  11.865   3.020   4.091 -0.0570 -0.5578 -0.3768
43674SOL     OW49013   5.806  14.116  13.072 -0.5277 -0.0174 -0.2390
43674SOL    HW149014   5.823  14.181  13.140 -0.6716 -0.1324 -0.0915
43674SOL    HW249015   5.878  14.054  13.079 -1.2785 -0.8111  0.7509
43675SOL     OW49016   5.184  10.179   8.781 -0.4990 -0.2142 -0.1417
43675SOL    HW149017   5.201  10.092   8.747 -0.2555  0.1610 -1.0079
43675SOL    HW249018   5.097  10.202   8.748 -0.4551 -0.0253 -0.1309
43676SOL     OW49019  13.872  10.679   1.517  0.2405  0.9703 -0.9785
43676SOL    HW149020  13.886  10.774   1.517 -0.1379  1.1482  2.1132
43676SOL    HW249021  13.928  10.647   1.587 -0.4607 -0.9538 -1.2379
43677SOL     OW49022   3.417   8.734   6.105 -0.7970 -0.1153 -0.0305
43677SOL    HW149023   3.441   8.679   6.180 -1.5269 -0.3466  0.0456
43677SOL    HW249024   3.324   8.753   6.118 -0.3163  2.1044  0.5365
43678SOL     OW49025   7.461   8.664   0.232 -0.1968  0.3467  0.1384
43678SOL    HW149026   7.488   8.699   0.317  1.1119  0.4493 -0.3066
43678SOL    HW249027   7.477   8.735   0.170 -1.8179  0.5260 -0.1183
43679SOL     OW49028   9.360   4.336   1.787  0.6837 -0.0115 -0.1947
43679SOL    HW149029   9.364   4.241   1.776 -0.5662 -0.0494 -0.5008
43679SOL    HW249030   9.451   4.365   1.781  1.6418 -1.5636  3.8290
43680SOL     OW49031   1.090   9.770   4.754 -0.0401  0.3758  0.0281
43680SOL    HW149032   1.179   9.805   4.747  0.1981  0.6679  3.2334
43680SOL    HW249033   1.087   9.699   4.690  2.2854  0.7474 -0.5826
43681SOL     OW49034  10.298   7.063   7.325 -0.4844  0.0692  0.6184
43681SOL    HW149035  10.258   7.041   7.409 -0.4146 -1.2176  0.3497
43681SOL    HW249036  10.281   6.986   7.270  1.1686  0.0500  0.0778
43682SOL     OW49037   2.583   5.789  11.470 -0.3927  0.1214 -0.8867
43682SOL    HW149038   2.548   5.700  11.466 -0.1232 -0.0311 -0.0501
43682SOL    HW249039   2.652   5.791  11.405 -0.2273 -0.3650 -0.7313
43683SOL     OW49040   8.849   1.960  12.177  0.4457 -0.6020 -0.2609
43683SOL    HW149041   8.777   2.022  12.165  1.3763  0.4520 -0.5085
43683SOL    HW249042   8.882   1.979  12.265  0.8149 -0.6648 -0.3866
43684SOL     OW49043   0.160   8.710  10.087  0.1112 -0.9831  0.2507
43684SOL    HW149044   0.125   8.784  10.038  0.2001 -1.8685 -1.2095
43684SOL    HW249045   0.240   8.686  10.041  0.1069 -1.9636  0.7255
43685SOL     OW49046   3.344   3.683  12.992 -0.0138  0.0736  0.0994
43685SOL    HW149047   3.372   3.723  13.074 -0.7636 -1.5433  1.1814
43685SOL    HW249048   3.285   3.747  12.953  1.0064  1.2188  0.3753
43686SOL     OW49049  12.193  13.383  12.865  0.2956 -0.0217 -0.2221
43686SOL    HW149050  12.118  13.332  12.836  1.3946 -1.1999 -1.1220
43686SOL    HW249051  12.202  13.453  12.801 -0.0808  0.1777 -0.0577
43687SOL     OW49052   8.789   5.294   8.698  0.3657 -0.0842  0.4219
43687SOL    HW149053   8.833   5.367   8.741  1.0384 -0.7879  0.9553
43687SOL    HW249054   8.736   5.254   8.767 -0.4430  0.2280 -0.0049
43688SOL     OW49055  11.473   9.093  12.469 -0.4081  0.1200 -0.1606
43688SOL    HW149056  11.516   9.050  12.395 -0.6790 -1.4173  0.5344
43688SOL    HW249057  11.534   9.161  12.496  2.1048 -2.4903  1.3221
43689SOL     OW49058   0.882   2.908   3.368  0.0176 -0.3091 -0.2792
43689SOL    HW149059   0.938   2.872   3.299 -0.3706 -1.0945 -0.1960
43689SOL    HW249060   0.849   2.990   3.332 -0.5844 -0.9522 -1.2408
43690SOL     OW49061   7.006  13.291   8.837  0.2834  0.1590 -0.7346
43690SOL    HW149062   6.937  13.302   8.903  0.5485  0.1056 -0.4474
43690SOL    HW249063   7.044  13.378   8.828  0.9157 -0.0408 -0.0771
43691SOL     OW49064   5.380  13.449   7.915 -0.4067 -0.3106  0.3483
43691SOL    HW149065   5.458  13.405   7.881 -1.4366 -0.4266 -1.9867
43691SOL    HW249066   5.330  13.380   7.959 -0.7079 -0.9235 -0.9275
43692SOL     OW49067   5.178   3.204   2.876 -0.2174  0.0044  0.4613
43692SOL    HW149068   5.185   3.226   2.968  2.5588 -0.6278  0.4981
43692SOL    HW249069   5.222   3.276   2.830 -1.1206  0.0736 -0.3276
43693SOL     OW49070   1.411   2.656   4.309 -0.2741  0.3100  0.2330
43693SOL    HW149071   1.385   2.573   4.348  1.5644 -1.6283 -2.2350
43693SOL    HW249072   1.342   2.676   4.246  0.9297 -1.4701 -1.8166
43694SOL     OW49073  11.771  10.624   5.276  0.5515  0.0916  0.6901
43694SOL    HW149074  11.790  10.544   5.227  1.0849 -0.1892  1.3431
43694SOL    HW249075  11.773  10.693   5.210  0.9170 -0.3249  0.2560
43695SOL     OW49076   6.794  11.778   7.876 -0.8683 -0.1201 -0.0436
43695SOL    HW149077   6.767  11.743   7.791 -1.8733  1.4753 -0.4288
43695SOL    HW249078   6.822  11.701   7.926  1.8566 -0.8874 -2.5125
43696SOL     OW49079   9.166   8.829   5.053  0.2101 -0.8227 -0.0018
43696SOL    HW149080   9.140   8.739   5.074  1.0715 -0.9968  0.3757
43696SOL    HW249081   9.256   8.821   5.020  0.3698 -0.0895  0.2340
43697SOL     OW49082  13.813  11.686  11.461 -0.5022 -0.6026  0.4460
43697SOL    HW149083  13.760  11.622  11.509  1.5188 -1.4964  1.5827
43697SOL    HW249084  13.902  11.674  11.493  0.2965  1.4566 -0.7526
43698SOL     OW49085   5.507  11.951   0.344  0.5226 -0.2377 -0.2026
43698SOL    HW149086   5.474  11.916   0.262 -1.0982  1.5127 -0.3666
43698SOL    HW249087   5.521  11.874   0.400 -1.8108 -1.2297 -0.8936
43699SOL     OW49088  10.499   1.021   8.796 -0.0182  0.0631 -0.2140
43699SOL    HW149089  10.419   1.074   8.789  0.9943  1.7345  0.4925
43699SOL    HW249090  10.513   1.011   8.891  2.5246  2.8858 -0.1595
43700SOL     OW49091   4.435  11.194   8.891 -0.2009  0.7798 -0.3818
43700SOL    HW149092   4.494  11.161   8.958  0.3614  0.8308 -0.8407
43700SOL    HW249093   4.489  11.203   8.813 -0.8081  0.8592 -0.8083
43701SOL     OW49094   8.527  13.076  10.317  0.1225  0.4857  0.1970
43701SOL    HW149095   8.547  13.128  10.395 -0.0426  3.2284 -1.4687
43701SOL    HW249096   8.572  12.993  10.332 -0.4618  0.6238  3.4687
43702SOL     OW49097   5.828   8.391   6.523  0.4292 -0.6866 -1.4410
43702SOL    HW149098   5.923   8.394   6.509  0.2475  0.8725 -2.6729
43702SOL    HW249099   5.808   8.474   6.566 -0.4237 -0.8374 -1.5391
43703SOL     OW49100  12.752   4.767   7.748  0.2113 -0.0553  0.1710
43703SOL    HW149101  12.707   4.813   7.819  1.1010 -0.6613  1.1655
43703SOL    HW249102  12.683   4.723   7.700 -0.2719 -1.1861  1.8267
43704SOL     OW49103   0.657  10.835   6.723 -0.5752  0.3649  0.2398
43704SOL    HW149104   0.673  10.747   6.756 -2.8606  0.6105  2.3315
43704SOL    HW249105   0.698  10.893   6.788 -1.7570  0.8299  0.5965
43705SOL     OW49106  11.653   8.624   8.423 -0.0806 -0.0641  0.2660
43705SOL    HW149107  11.649   8.683   8.499  2.4701  0.1951  0.2844
43705SOL    HW249108  11.576   8.568   8.432 -1.7523  2.2193  1.1042
43706SOL     OW49109  13.884   2.723   3.856  0.2025  0.0569 -0.0318
43706SOL    HW149110  13.965   2.759   3.819  0.5448 -3.1672 -2.8749
43706SOL    HW249111  13.903   2.631   3.871 -2.4345 -0.4187  0.9329
43707SOL     OW49112   7.688  10.687   6.979 -0.1135  0.0884 -0.8050
43707SOL    HW149113   7.607  10.640   6.959  1.5029 -2.6662 -1.4308
43707SOL    HW249114   7.690  10.689   7.075 -0.7863 -0.0531 -0.7762
43708SOL     OW49115   8.322  13.854  13.121  0.3601  0.3716 -0.3781
43708SOL    HW149116   8.279  13.939  13.131 -1.0859 -0.4642  0.9594
43708SOL    HW249117   8.415  13.872  13.134  0.3273  2.0284 -2.0506
43709SOL     OW49118   6.366  10.476   9.595  0.6878  0.4091 -0.2835
43709SOL    HW149119   6.433  10.420   9.556  1.7102 -0.6046  2.6655
43709SOL    HW249120   6.414  10.541   9.645 -0.5455  1.3593 -0.2811
43710SOL     OW49121  11.204  10.462   9.471  0.3654  0.4356  0.4282
43710SOL    HW149122  11.242  10.386   9.426  0.9311  1.0032 -0.0859
43710SOL    HW249123  11.169  10.516   9.400 -1.3477 -0.0235  0.8910
43711SOL     OW49124   5.089   9.854  11.495  0.0946  0.2679  0.4501
43711SOL    HW149125   5.075   9.792  11.566  0.9396 -0.6356 -0.1428
43711SOL    HW249126   5.142   9.805  11.431  0.5233  1.5026 -0.1652
43712SOL     OW49127   2.648  10.597  10.330 -0.3077  0.6935 -0.0229
43712SOL    HW149128   2.584  10.536  10.291 -0.6372 -0.1370  1.6907
43712SOL    HW249129   2.732  10.553  10.319 -0.0715  1.5362 -1.7989
43713SOL     OW49130   3.067  12.288  10.113  0.0927  0.7089 -0.2517
43713SOL    HW149131   3.090  12.303  10.205 -0.5634  2.1410 -0.2868
43713SOL    HW249132   3.060  12.193  10.105  0.7010  0.5357  1.0433
43714SOL     OW49133   8.309   5.586   3.693 -0.2791  0.4466  0.3944
43714SOL    HW149134   8.362   5.617   3.620  0.2616  1.1742  1.0877
43714SOL    HW249135   8.219   5.606   3.667 -0.0934  0.6651 -0.0880
43715SOL     OW49136  13.832   2.025  12.783  0.3091 -0.1801 -0.3852
43715SOL    HW149137  13.827   2.098  12.844 -0.2294 -0.4442 -0.1051
43715SOL    HW249138  13.759   1.969  12.807  0.1384 -0.3309 -1.2153
43716SOL     OW49139   4.925  13.905   4.631 -0.4731 -0.1730  0.4979
43716SOL    HW149140   4.887  13.902   4.719 -1.2780 -0.1171  0.1563
43716SOL    HW249141   4.996  13.841   4.634 -0.7703 -0.4837  1.0632
43717SOL     OW49142   7.221   3.064   6.062  0.0593 -0.0151 -0.5704
43717SOL    HW149143   7.282   2.999   6.095 -1.0922 -1.2007 -0.6951
43717SOL    HW249144   7.276   3.139   6.038  1.2465 -0.3219  1.0337
43718SOL     OW49145  10.126   1.626   8.839 -0.0188  0.1197 -0.5214
43718SOL    HW149146  10.094   1.654   8.925  1.3833 -1.5856  0.6170
43718SOL    HW249147  10.053   1.578   8.801  0.4255 -2.1860  1.2832
43719SOL     OW49148   3.305   1.296   9.532 -0.2094 -0.0401 -0.6020
43719SOL    HW149149   3.398   1.318   9.545 -0.5144  0.3261  1.3438
43719SOL    HW249150   3.301   1.201   9.547 -0.3179  0.1515  0.7745
43720SOL     OW49151  13.779   5.645   4.232 -0.1293  0.1710 -0.3430
43720SOL    HW149152  13.798   5.593   4.155 -0.3135  1.1637 -1.0740
43720SOL    HW249153  13.716   5.592   4.282 -0.1272 -0.4037 -0.9423
43721SOL     OW49154   4.640   6.202   2.433 -0.7067 -0.4141 -0.0730
43721SOL    HW149155   4.685   6.138   2.487 -1.0637 -1.1902 -0.6878
43721SOL    HW249156   4.620   6.157   2.352  1.8640  1.3889 -1.8677
43722SOL     OW49157   7.119   3.993   6.877  0.5567 -0.4681  0.1999
43722SOL    HW149158   7.154   3.907   6.850 -0.4835 -0.3924 -1.5326
43722SOL    HW249159   7.026   3.989   6.854  0.6270  1.3570 -0.4761
43723SOL     OW49160   1.985  12.180   0.992 -0.2286  0.0680 -0.3580
43723SOL    HW149161   1.910  12.121   0.984 -0.6155  0.3548  0.8191
43723SOL    HW249162   2.012  12.198   0.902 -2.2672  0.8125 -0.8670
43724SOL     OW49163  11.242   4.190  11.497  0.4138  0.0430  0.2642
43724SOL    HW149164  11.260   4.195  11.403 -0.9742  1.3100  0.0169
43724SOL    HW249165  11.160   4.239  11.507  0.9473  0.5868  2.2560
43725SOL     OW49166  12.148   3.483   1.667 -0.2161 -0.6765 -0.6113
43725SOL    HW149167  12.193   3.409   1.627 -0.7350 -3.5688  3.5288
43725SOL    HW249168  12.209   3.516   1.733 -2.4191 -2.3075  2.5487
43726SOL     OW49169  11.322   8.226   4.023  0.2764 -0.5385  0.5686
43726SOL    HW149170  11.288   8.150   3.976 -0.8539 -0.8552  1.8426
43726SOL    HW249171  11.352   8.286   3.954 -1.1042 -1.0823 -0.5338
43727SOL     OW49172   4.612   2.129   0.195 -0.2876 -0.4299 -0.0807
43727SOL    HW149173   4.690   2.155   0.146  0.8639 -1.1803  1.2341
43727SOL    HW249174   4.585   2.208   0.241 -0.9562  0.0978 -1.3615
43728SOL     OW49175   8.137   8.641   8.718 -0.6945 -0.7806  0.3527
43728SOL    HW149176   8.183   8.663   8.636 -1.3672 -0.7534 -0.0228
43728SOL    HW249177   8.142   8.721   8.770 -0.1226 -0.8464  0.4083
43729SOL     OW49178   4.786   1.791   4.973  0.5615  0.3005  0.4760
43729SOL    HW149179   4.820   1.861   5.029 -0.6581  1.2737  0.0581
43729SOL    HW249180   4.695   1.780   5.001  0.5006 -0.5601 -0.0176
43730SOL     OW49181  13.355   7.116   9.189 -0.0466 -0.2816 -0.0689
43730SOL    HW149182  13.414   7.183   9.223  0.8039 -0.9036 -0.2900
43730SOL    HW249183  13.269   7.139   9.225 -0.2284  2.1168 -1.7693
43731SOL     OW49184   2.749  12.407  10.055  0.3355  0.1780  0.1268
43731SOL    HW149185   2.776  12.469   9.987 -1.7103 -0.4833 -1.4148
43731SOL    HW249186   2.829  12.360  10.079  1.1609  0.5520 -1.7167
43732SOL     OW49187  10.910  10.955   0.928 -0.0296  0.7583  0.3720
43732SOL    HW149188  10.931  10.989   1.015 -1.7613 -1.6632  1.8559
43732SOL    HW249189  10.975  10.886   0.912  0.9915  1.9394 -0.8342
43733SOL     OW49190   3.474   6.928  13.680  0.3945 -0.4819  0.7562
43733SOL    HW149191   3.552   6.879  13.707 -0.0702 -1.4421  0.3983
43733SOL    HW249192   3.468   6.911  13.586  0.5606  0.7630  0.5080
43734SOL     OW49193  10.553  10.311   9.216  0.1728 -0.0935  0.2364
43734SOL    HW149194  10.478  10.274   9.263 -0.4326  0.9485  0.1200
43734SOL    HW249195  10.620  10.321   9.283  0.1264 -0.7954  0.3965
43735SOL     OW49196   8.220   6.187   0.602 -0.1565  0.1243 -0.1441
43735SOL    HW149197   8.259   6.264   0.644 -1.7405 -0.5936  2.9336
43735SOL    HW249198   8.293   6.126   0.590  0.5825  0.8797  0.4255
43736SOL     OW49199   9.915   8.470   6.837 -0.0100  0.4110 -0.6012
43736SOL    HW149200   9.985   8.534   6.853 -0.4636  1.5218 -2.6283
43736SOL    HW249201   9.840   8.505   6.885  0.4086 -0.0056  0.3862
43737SOL     OW49202   2.428  11.991   3.610  0.3646 -0.6215  0.7070
43737SOL    HW149203   2.381  12.001   3.693 -1.8816 -0.6154 -0.4838
43737SOL    HW249204   2.364  11.951   3.551  2.1250 -1.2981 -0.8371
43738SOL     OW49205   0.157   4.243   9.809 -0.3693 -0.1357  0.1999
43738SOL    HW149206   0.172   4.332   9.779  0.9807 -0.0644  1.0120
43738SOL    HW249207   0.245   4.204   9.812 -1.0606 -2.1161 -1.9630
43739SOL     OW49208  11.106   1.676   3.601 -0.1296 -0.1040  0.3355
43739SOL    HW149209  11.154   1.650   3.679  0.7884  0.6686  0.0558
43739SOL    HW249210  11.105   1.772   3.604  0.7471 -0.0154 -1.0415
43740SOL     OW49211  11.184   6.161   6.894 -0.1550  0.4490  0.4078
43740SOL    HW149212  11.111   6.115   6.935 -1.3963  0.9283 -1.1786
43740SOL    HW249213  11.205   6.111   6.816  0.0592  1.2571 -0.0721
43741SOL     OW49214  14.074   4.737   3.229 -0.0133  0.3234  0.1958
43741SOL    HW149215  14.052   4.674   3.298  0.5652 -0.0680  0.0294
43741SOL    HW249216  14.167   4.753   3.241  0.0198  0.4931 -0.3001
43742SOL     OW49217  14.153  10.480   5.913  0.2149 -0.3399 -0.4265
43742SOL    HW149218  14.147  10.435   5.997 -0.0791 -0.2244 -0.3818
43742SOL    HW249219  14.211  10.554   5.930 -1.2784  0.7620  0.1825
43743SOL     OW49220  10.459   0.049   0.458 -0.6735 -0.0917  0.2537
43743SOL    HW149221  10.395  -0.005   0.505 -1.6752  1.5704  0.9087
43743SOL    HW249222  10.417   0.135   0.451  1.3934  1.0146  0.5156
43744SOL     OW49223  11.177   9.172  11.195 -0.1718  0.7920 -0.8853
43744SOL    HW149224  11.246   9.123  11.240  0.0381  0.0716 -1.9586
43744SOL    HW249225  11.208   9.262  11.193  0.6666  0.4982 -1.2327
43745SOL     OW49226   4.840  13.542   2.324 -0.0144  0.0857  0.1039
43745SOL    HW149227   4.878  13.539   2.412  1.1189  1.6313 -0.2806
43745SOL    HW249228   4.900  13.598   2.274  0.2563 -2.0269 -2.1101
43746SOL     OW49229   8.742   2.355   9.266  0.1256 -0.0212  0.0399
43746SOL    HW149230   8.688   2.281   9.296 -0.3727  0.3967  0.1932
43746SOL    HW249231   8.830   2.318   9.256  0.1598 -0.3554  1.3099
43747SOL     OW49232   8.227   5.403   7.877 -0.0379  0.2833 -0.1044
43747SOL    HW149233   8.190   5.475   7.826  1.0630  0.7638 -0.2463
43747SOL    HW249234   8.185   5.410   7.963 -0.0312  1.0085 -0.1595
43748SOL     OW49235   1.023   2.864   6.403  0.4392  0.0750 -0.2491
43748SOL    HW149236   0.966   2.798   6.363 -0.7945  0.9111  0.0731
43748SOL    HW249237   1.004   2.858   6.497 -0.3384  1.4591 -0.2975
43749SOL     OW49238   7.828  11.864   0.687  0.1704 -0.6026 -0.0298
43749SOL    HW149239   7.747  11.843   0.732 -0.1990 -0.8570 -0.8020
43749SOL    HW249240   7.828  11.809   0.609  0.4872  0.2893 -0.6789
43750SOL     OW49241  14.057   6.225   1.694 -0.3907  0.1955 -0.0093
43750SOL    HW149242  13.989   6.237   1.628 -1.5415 -0.1650  1.0805
43750SOL    HW249243  14.084   6.134   1.684  1.1191  0.7533 -1.5060
43751SOL     OW49244   1.128   7.098   0.401 -0.1538  0.1934 -0.4039
43751SOL    HW149245   1.145   7.119   0.493  0.5894 -2.7796  0.2461
43751SOL    HW249246   1.033   7.107   0.392 -0.1757  1.0729  0.4935
43752SOL     OW49247  10.674   5.058  13.482  0.0547 -0.1807  0.1138
43752SOL    HW149248  10.632   5.001  13.547  1.7744 -1.1304  0.4586
43752SOL    HW249249  10.711   4.997  13.419  0.3983  0.6533 -0.5035
43753SOL     OW49250   4.488   0.613   5.857  0.0070 -0.1975 -0.5297
43753SOL    HW149251   4.562   0.592   5.800  1.8148 -0.6314  1.8271
43753SOL    HW249252   4.452   0.695   5.822  1.2263 -0.2773 -2.0572
43754SOL     OW49253   8.066   9.193   6.508 -0.3119  0.2142 -0.0439
43754SOL    HW149254   8.040   9.147   6.588  0.1929  1.0553  0.6192
43754SOL    HW249255   8.053   9.286   6.529  1.4532  0.5585 -0.3317
43755SOL     OW49256   8.975   0.029   2.940  0.3361  0.0665 -0.2828
43755SOL    HW149257   9.030   0.101   2.911  2.0150 -0.4594  1.3844
43755SOL    HW249258   8.927   0.065   3.015 -0.1084 -0.0613 -0.5043
43756SOL     OW49259   6.182   6.631  12.458 -0.6382 -0.0289 -0.1216
43756SOL    HW149260   6.238   6.570  12.505 -1.2268 -0.3225  0.2189
43756SOL    HW249261   6.144   6.686  12.527  0.6973  1.4433 -0.4967
43757SOL     OW49262   0.435   9.328   5.360 -0.3281 -0.2220 -0.1424
43757SOL    HW149263   0.384   9.404   5.334 -1.1160 -0.8956 -0.6342
43757SOL    HW249264   0.390   9.254   5.318  1.0152 -0.8406 -0.5351
43758SOL     OW49265   6.936   4.735  10.977  0.0073  0.4150  0.4032
43758SOL    HW149266   6.927   4.662  11.037 -2.3702  0.8745  0.7348
43758SOL    HW249267   6.931   4.696  10.890 -1.9721  0.1811  0.5788
43759SOL     OW49268   2.979   0.736  13.986 -0.6308 -0.7460  0.0524
43759SOL    HW149269   2.889   0.756  14.013 -0.5574  1.2362 -0.9838
43759SOL    HW249270   2.968   0.683  13.907 -0.9782  0.8084 -1.0038
43760SOL     OW49271  12.105   5.714  10.394  0.5744  0.7284  0.4164
43760SOL    HW149272  12.027   5.680  10.437  0.2456  2.0209  0.8845
43760SOL    HW249273  12.083   5.712  10.300  1.2103 -1.8755  0.2360
43761SOL     OW49274   7.318   9.944   4.222  0.1477  0.1928  0.2321
43761SOL    HW149275   7.270   9.865   4.246  0.0195 -0.3819 -1.7158
43761SOL    HW249276   7.387   9.951   4.287  0.0183 -1.4085  0.5868
43762SOL     OW49277   3.074   4.927   8.824  0.1566  0.3297  0.5133
43762SOL    HW149278   3.023   4.990   8.876 -0.2401 -0.8184  1.5657
43762SOL    HW249279   3.121   4.875   8.889  1.2385  0.1605 -0.3832
43763SOL     OW49280   4.495   6.780   9.157 -0.9213 -0.2719 -0.3948
43763SOL    HW149281   4.519   6.747   9.070  0.2468 -0.3074 -0.0702
43763SOL    HW249282   4.531   6.868   9.160 -0.1084 -0.6204  0.4008
43764SOL     OW49283   8.210   1.510   5.428  0.8125  0.2787 -0.4065
43764SOL    HW149284   8.163   1.463   5.497  0.9129  1.2893  0.3768
43764SOL    HW249285   8.258   1.442   5.381  0.3437 -0.4877  0.2057
43765SOL     OW49286  13.457   4.869   2.522  0.1923  0.6571  0.0409
43765SOL    HW149287  13.382   4.820   2.487  0.7766 -0.6565  0.5584
43765SOL    HW249288  13.507   4.804   2.571  1.2567  1.6909  0.3675
43766SOL     OW49289  12.387   3.210   2.506 -0.2621 -0.6434 -0.2516
43766SOL    HW149290  12.388   3.152   2.430 -0.1876 -0.4141 -0.4275
43766SOL    HW249291  12.440   3.285   2.480 -0.5326 -0.3962 -0.1085
43767SOL     OW49292   3.150   7.151   5.066 -1.2049  0.8515  0.7613
43767SOL    HW149293   3.091   7.106   5.127 -0.4071  0.2404  1.1071
43767SOL    HW249294   3.225   7.178   5.120 -0.3321  0.0094  0.0265
43768SOL     OW49295   1.860   4.669   6.562 -0.5004  0.2050 -0.1042
43768SOL    HW149296   1.868   4.593   6.619 -1.8220  0.5021  0.5211
43768SOL    HW249297   1.892   4.639   6.477  2.8503  0.1632  1.0451
43769SOL     OW49298   9.094   1.815   6.330  0.2065 -0.9450 -0.0609
43769SOL    HW149299   9.141   1.847   6.407 -1.7719  1.8230  0.1371
43769SOL    HW249300   9.023   1.762   6.365  1.4896 -2.8768 -0.2415
43770SOL     OW49301   8.195   5.526  11.181  0.0031  0.5615  0.2821
43770SOL    HW149302   8.173   5.441  11.144  0.7617  1.3666 -2.2505
43770SOL    HW249303   8.287   5.518  11.206 -0.5786 -0.0674  2.4551
43771SOL     OW49304  13.905   5.693  12.832  0.0775 -0.8391  0.2052
43771SOL    HW149305  13.950   5.776  12.811  0.9111 -0.9520  1.4248
43771SOL    HW249306  13.836   5.686  12.767  1.3408 -0.2450 -1.2527
43772SOL     OW49307  10.239   2.279   0.353 -0.1373 -0.2957  0.1760
43772SOL    HW149308  10.170   2.217   0.377 -1.2855  0.6472 -0.6203
43772SOL    HW249309  10.197   2.364   0.357  1.3213  0.4213  0.8688
43773SOL     OW49310  13.861   4.931  13.814 -0.2407 -0.1593  0.1996
43773SOL    HW149311  13.815   4.850  13.836 -2.4353  0.9410 -0.0741
43773SOL    HW249312  13.835   4.992  13.883  0.4750  0.6250 -0.2134
43774SOL     OW49313   0.675  10.214   1.923  0.6589 -0.6059  0.2310
43774SOL    HW149314   0.647  10.223   2.014  0.5310 -0.6651  0.1978
43774SOL    HW249315   0.624  10.140   1.890 -0.1050  0.1032 -0.2120
43775SOL     OW49316   4.717   1.592  13.454 -0.0484  0.3153 -0.2249
43775SOL    HW149317   4.785   1.587  13.521 -1.5775  1.1833  1.4651
43775SOL    HW249318   4.742   1.667  13.400  0.4156  0.5211  0.2693
43776SOL     OW49319  11.707  12.128   5.385 -0.3959 -0.6056  0.2137
43776SOL    HW149320  11.625  12.082   5.402  0.2742 -2.3316 -1.0342
43776SOL    HW249321  11.775  12.064   5.404  0.6007  0.1870 -0.5781
43777SOL     OW49322   9.795   8.526   5.918  0.2723  0.2965 -0.1726
43777SOL    HW149323   9.803   8.582   5.996 -0.4864 -0.2206  0.2896
43777SOL    HW249324   9.748   8.449   5.949  0.3162 -0.0977 -1.0642
43778SOL     OW49325   1.247  10.061  13.455  0.0846  0.3477 -0.4643
43778SOL    HW149326   1.292  10.090  13.534 -0.5248  0.1119 -0.0284
43778SOL    HW249327   1.180  10.128  13.440 -1.9864 -1.2262  1.0925
43779SOL     OW49328   0.962   0.527  13.437  0.8079  0.0953  0.2649
43779SOL    HW149329   0.926   0.453  13.486  1.5097  0.4888  1.4022
43779SOL    HW249330   1.057   0.512  13.436  0.7623 -0.5225 -2.0201
43780SOL     OW49331   4.342   6.876  12.951  0.0069 -0.0571  0.2201
43780SOL    HW149332   4.311   6.813  13.016 -0.8198 -0.0082 -0.1170
43780SOL    HW249333   4.425   6.907  12.986 -0.7636  0.5045  1.6358
43781SOL     OW49334   0.801   0.118   1.104  0.5659  0.7104  0.3643
43781SOL    HW149335   0.856   0.089   1.177  1.1465  2.2057  0.5522
43781SOL    HW249336   0.860   0.168   1.048 -0.0260  0.1213 -0.8188
43782SOL     OW49337  10.298   9.798   0.721  0.0997 -0.1917 -0.2044
43782SOL    HW149338  10.271   9.866   0.784  0.5309  0.1383 -0.3735
43782SOL    HW249339  10.342   9.732   0.775  1.4096  0.5897 -0.2754
43783SOL     OW49340   7.113   0.212   7.415 -0.2868 -0.6480 -0.5066
43783SOL    HW149341   7.182   0.155   7.380  0.7823 -1.3160  2.3951
43783SOL    HW249342   7.037   0.155   7.424 -0.3148 -0.6804 -0.9121
43784SOL     OW49343  10.294   4.590  13.354 -0.2327  0.0177 -0.2386
43784SOL    HW149344  10.271   4.523  13.290  0.3778  0.5362 -1.0186
43784SOL    HW249345  10.335   4.659  13.302 -0.1907  0.6701  0.6497
43785SOL     OW49346   7.504  12.880   6.078  0.0148 -0.6005 -0.2231
43785SOL    HW149347   7.446  12.807   6.057  0.0744 -0.9991  0.9609
43785SOL    HW249348   7.542  12.858   6.163  0.3194  0.6318 -0.0149
43786SOL     OW49349  11.163  10.367  13.901 -0.1816  0.0938  0.1328
43786SOL    HW149350  11.089  10.340  13.846  0.6721  0.9621 -1.5192
43786SOL    HW249351  11.166  10.302  13.971 -2.7212  0.2352  0.4669
43787SOL     OW49352   9.793   9.274   5.090 -0.0613  0.6714 -0.2859
43787SOL    HW149353   9.740   9.351   5.111 -1.6644 -0.7632  1.3696
43787SOL    HW249354   9.878   9.309   5.065 -0.1733  2.9634  2.0460
43788SOL     OW49355   8.206   0.084   8.817 -0.0148 -0.0472  0.0619
43788SOL    HW149356   8.122   0.121   8.845  0.6054  1.2214  0.3310
43788SOL    HW249357   8.259   0.160   8.793  1.7109 -0.6415  1.6979
43789SOL     OW49358   7.901  11.717   5.782 -0.6098  0.0497  0.6949
43789SOL    HW149359   7.900  11.659   5.857  1.1102  1.1595  1.6364
43789SOL    HW249360   7.851  11.794   5.811 -0.0708  0.4167  0.6537
43790SOL     OW49361   0.630  11.645  13.873 -0.4871 -0.5891  0.4265
43790SOL    HW149362   0.656  11.712  13.936  1.5720  0.1251 -1.0821
43790SOL    HW249363   0.602  11.571  13.927 -0.4395  0.5805  2.1379
43791SOL     OW49364   8.433   3.901   1.298  0.1517 -0.4454 -0.0948
43791SOL    HW149365   8.408   3.960   1.369  0.6089 -0.8870  0.4401
43791SOL    HW249366   8.364   3.835   1.296  0.2538 -0.5558  0.0780
43792SOL     OW49367   8.104  10.794   1.176  0.0428  0.1900  0.3077
43792SOL    HW149368   8.064  10.830   1.097 -1.0904 -1.9410 -0.1489
43792SOL    HW249369   8.031  10.764   1.229  0.8253  0.9841  1.9091
43793SOL     OW49370   9.227   1.151   1.119  0.2579 -0.2195  0.1620
43793SOL    HW149371   9.183   1.152   1.034 -0.6375  0.6973  0.6113
43793SOL    HW249372   9.157   1.168   1.182  0.8177 -1.4140  1.1411
43794SOL     OW49373   9.350   7.243  12.179  0.0003  0.4413  0.0372
43794SOL    HW149374   9.402   7.273  12.253 -1.6697  0.7402  1.1367
43794SOL    HW249375   9.275   7.302  12.176 -0.5839 -0.3081 -1.1347
43795SOL     OW49376   0.994  13.711  10.157 -0.0678 -0.4690 -0.5701
43795SOL    HW149377   0.948  13.756  10.086 -0.5868 -0.9411 -0.5471
43795SOL    HW249378   1.060  13.657  10.112  0.6935  0.4591 -0.5808
43796SOL     OW49379  10.045   2.183   6.623  0.3517 -0.5335  0.4190
43796SOL    HW149380   9.950   2.190   6.621  0.3080 -1.1325 -0.3634
43796SOL    HW249381  10.071   2.195   6.532  0.9872 -0.7988  0.5616
43797SOL     OW49382   2.414  13.880   2.046  0.3693  0.2730  0.0589
43797SOL    HW149383   2.395  13.936   2.122  0.9133 -1.4083  1.4907
43797SOL    HW249384   2.492  13.918   2.007 -0.4476  1.7145 -0.2738
43798SOL     OW49385   1.555   3.615   1.060  0.3457 -0.6867 -0.0886
43798SOL    HW149386   1.614   3.672   1.108 -0.3675  0.0614 -0.0805
43798SOL    HW249387   1.546   3.538   1.116  1.2092 -0.7653 -0.0426
43799SOL     OW49388   8.852   8.686   6.103 -0.5099  0.2850 -0.1960
43799SOL    HW149389   8.816   8.677   6.014  2.1905  0.0547 -1.3726
43799SOL    HW249390   8.833   8.777   6.127 -0.4290  0.6635 -1.4557
43800SOL     OW49391   2.166  12.943   8.575 -0.1068 -0.1782  0.2404
43800SOL    HW149392   2.246  12.934   8.627  0.2444 -0.4245 -0.3366
43800SOL    HW249393   2.131  13.028   8.600  0.4831  0.0548  0.3000
43801SOL     OW49394   5.868   7.377  11.174 -0.0157  0.3641  0.2551
43801SOL    HW149395   5.878   7.409  11.264 -1.2590  2.3118 -0.2386
43801SOL    HW249396   5.840   7.454  11.124  0.0725 -0.8091 -1.6963
43802SOL     OW49397   0.933   1.613   9.035 -0.0642  0.0791  0.3728
43802SOL    HW149398   0.901   1.569   8.957  4.2314 -3.9344  0.4705
43802SOL    HW249399   0.964   1.698   9.004 -3.3538  0.9459 -1.0011
43803SOL     OW49400  10.977   0.820  12.154 -0.4140 -0.0310 -0.6412
43803SOL    HW149401  10.921   0.790  12.226 -0.6901  1.0802 -0.3778
43803SOL    HW249402  10.946   0.772  12.077  0.1552 -1.5420  0.0392
43804SOL     OW49403   2.740   9.403   5.748 -0.3272 -0.6333  0.0469
43804SOL    HW149404   2.827   9.375   5.777  0.4848  0.8295 -0.8770
43804SOL    HW249405   2.717   9.342   5.677  0.4949 -0.2666 -0.5418
43805SOL     OW49406   9.415   1.068   2.882  0.0937 -0.3877 -0.1038
43805SOL    HW149407   9.350   1.008   2.846 -0.2076 -0.7270  0.9586
43805SOL    HW249408   9.479   1.010   2.925  0.5541 -0.0087 -0.2702
43806SOL     OW49409  11.305   1.951   5.342 -0.5326 -0.4950  0.6898
43806SOL    HW149410  11.343   1.869   5.312  0.5658  0.7046 -1.4352
43806SOL    HW249411  11.352   2.019   5.294 -1.2153  1.4309  2.5511
43807SOL     OW49412   3.840   9.626   4.349 -0.3152  0.6083 -0.5491
43807SOL    HW149413   3.846   9.555   4.413  0.1279  1.9499  0.9562
43807SOL    HW249414   3.930   9.658   4.340 -0.7988  2.4105  0.5208
43808SOL     OW49415   7.195   8.684   0.309 -0.0249 -0.1235  0.0499
43808SOL    HW149416   7.144   8.687   0.228 -1.3001 -1.4730  0.7725
43808SOL    HW249417   7.283   8.658   0.280  0.0328  1.1798 -1.0799
43809SOL     OW49418  13.598   6.791  11.613  0.6426  0.2963  0.3257
43809SOL    HW149419  13.655   6.829  11.680  0.1164  1.6759  0.0243
43809SOL    HW249420  13.540   6.862  11.588 -3.4588 -1.7926  2.8983
43810SOL     OW49421   9.456   0.622  10.772 -0.7088 -0.3004 -0.2411
43810SOL    HW149422   9.383   0.613  10.833  1.6681 -2.2313  2.6334
43810SOL    HW249423   9.476   0.533  10.744 -1.3655  0.4833 -3.6146
43811SOL     OW49424   0.049   2.156   9.426 -0.4960 -0.5394  0.2802
43811SOL    HW149425   0.019   2.088   9.365  1.8800 -0.6553 -0.8750
43811SOL    HW249426   0.019   2.238   9.387  3.2888 -0.3486 -2.7713
43812SOL     OW49427  13.556   2.587   7.778 -0.1437 -0.3483  0.2684
43812SOL    HW149428  13.480   2.533   7.756 -0.5792  0.4070 -0.0946
43812SOL    HW249429  13.522   2.675   7.789  0.5736 -0.1222  0.8076
43813SOL     OW49430   2.866   2.630   2.842 -0.0125 -0.1303 -0.2094
43813SOL    HW149431   2.907   2.656   2.925 -1.0948  2.5807 -0.4201
43813SOL    HW249432   2.790   2.579   2.869  0.8430 -1.1566  0.3475
43814SOL     OW49433  14.016   6.509   6.057  0.3809  0.4382  0.2053
43814SOL    HW149434  13.982   6.508   6.147 -2.2301  1.6116 -0.6693
43814SOL    HW249435  14.023   6.602   6.035  0.9377  0.1640 -0.8270
43815SOL     OW49436   1.580   4.716  13.405  0.0851 -0.6577  0.0184
43815SOL    HW149437   1.586   4.621  13.421 -1.6263 -0.9575 -0.7888
43815SOL    HW249438   1.550   4.722  13.314  0.7737  0.6954 -0.1302
43816SOL     OW49439  10.089   7.562   7.828  0.2247  0.1484  0.0079
43816SOL    HW149440  10.029   7.501   7.784  0.6083  1.4913 -2.5586
43816SOL    HW249441  10.031   7.619   7.878 -0.3579 -0.5944  0.2048
43817SOL     OW49442   9.297   0.080   5.468  0.5185  0.2637 -0.1548
43817SOL    HW149443   9.309   0.128   5.386 -1.3642 -1.3501 -1.4644
43817SOL    HW249444   9.385   0.057   5.495  1.2680  1.8880 -1.0377
43818SOL     OW49445   4.059  13.260   0.344 -0.0323  0.4665 -0.0737
43818SOL    HW149446   4.132  13.259   0.406 -0.9486 -0.5146  1.0051
43818SOL    HW249447   4.095  13.306   0.268  1.2603  1.2781  0.9728
43819SOL     OW49448   0.731   1.401  14.118  0.3384 -0.1161 -0.5454
43819SOL    HW149449   0.705   1.491  14.136  0.3199 -0.1698 -0.3117
43819SOL    HW249450   0.771   1.370  14.199  1.8548  0.2179 -1.1285
43820SOL     OW49451   0.534   5.957  14.102  0.8201  0.0383 -0.6427
43820SOL    HW149452   0.623   5.922  14.103  0.1365 -1.9784 -1.9920
43820SOL    HW249453   0.478   5.879  14.111 -0.8088  1.0559 -1.4602
43821SOL     OW49454   6.943   1.671   9.995  0.2712  0.3265  0.2270
43821SOL    HW149455   6.902   1.630   9.919  0.8393 -1.5314  0.8601
43821SOL    HW249456   7.035   1.644   9.991  0.2924  0.0899  1.6000
43822SOL     OW49457   4.477   7.896  12.246 -0.2898  0.2496  0.1403
43822SOL    HW149458   4.551   7.924  12.193 -1.5542  1.7513 -0.9188
43822SOL    HW249459   4.433   7.829  12.194 -0.1679 -0.0404  0.4022
43823SOL     OW49460   3.562   7.845   3.846  0.1686 -0.1419  0.3478
43823SOL    HW149461   3.550   7.869   3.938  3.4960 -2.2749  1.5340
43823SOL    HW249462   3.492   7.784   3.828 -0.4183  0.1408  1.5254
43824SOL     OW49463   4.780  13.465  12.517 -0.1414  0.2916  0.0483
43824SOL    HW149464   4.854  13.526  12.518  0.2084 -0.1385  0.7315
43824SOL    HW249465   4.778  13.431  12.427 -1.3656  2.5126 -0.8733
43825SOL     OW49466  13.343   4.087   3.438 -0.1247 -0.4588 -0.0882
43825SOL    HW149467  13.437   4.093   3.427 -0.1066 -2.8272 -2.3245
43825SOL    HW249468  13.327   3.995   3.459 -2.0110 -0.4732 -1.3623
43826SOL     OW49469  13.153  12.341   6.096 -0.1868 -0.0358 -0.8478
43826SOL    HW149470  13.111  12.355   6.181  1.8683  1.8349 -0.0484
43826SOL    HW249471  13.099  12.390   6.035 -1.1598 -0.6308 -0.4941
43827SOL     OW49472  11.421   1.453  13.704 -0.1790  0.3145 -0.2827
43827SOL    HW149473  11.382   1.475  13.788  1.1693 -0.2948  0.5378
43827SOL    HW249474  11.469   1.532  13.678  0.3826  0.1185  0.1261
43828SOL     OW49475  13.938  12.415   2.028  0.1080 -0.4675  0.1790
43828SOL    HW149476  14.019  12.458   2.003  0.2426 -1.0692 -0.4581
43828SOL    HW249477  13.954  12.322   2.011 -0.2520 -0.7501  1.3222
43829SOL     OW49478  11.138  12.605   9.693  0.2966 -0.0194 -0.5382
43829SOL    HW149479  11.080  12.532   9.714 -0.0793  0.6812  0.9672
43829SOL    HW249480  11.203  12.606   9.763  2.4931 -1.0710 -2.4258
43830SOL     OW49481   4.849  12.356   6.888  0.1141 -0.0109  0.1890
43830SOL    HW149482   4.895  12.405   6.956  1.0335  1.7390 -1.5958
43830SOL    HW249483   4.831  12.421   6.820  0.0398 -1.8539 -1.6488
43831SOL     OW49484  11.752   2.219   0.891  0.8382  0.2643 -0.0661
43831SOL    HW149485  11.838   2.188   0.863  0.6591  0.7203 -1.1497
43831SOL    HW249486  11.766   2.250   0.981  1.9219  0.8161 -0.4082
43832SOL     OW49487   0.593   6.111  10.927  0.2787 -0.1048  0.0791
43832SOL    HW149488   0.653   6.037  10.913  0.6289  0.2609 -0.3618
43832SOL    HW249489   0.617   6.174  10.859 -1.1553 -0.2995 -0.6393
43833SOL     OW49490   6.090   0.939  11.652 -0.0044 -0.1475  0.1470
43833SOL    HW149491   6.148   1.014  11.670  1.4022 -0.9037 -1.0113
43833SOL    HW249492   6.040   0.928  11.733  0.8503  1.0831  0.8911
43834SOL     OW49493   5.476   3.760   7.453 -0.2133 -0.1069 -0.5280
43834SOL    HW149494   5.530   3.818   7.399  0.0822  0.9547  0.8457
43834SOL    HW249495   5.436   3.818   7.518  0.8742 -1.5302  1.5440
43835SOL     OW49496  10.042   7.070  10.750 -0.7000  0.4503 -0.1506
43835SOL    HW149497   9.951   7.099  10.756 -0.7188  0.1257  2.1498
43835SOL    HW249498  10.049   7.002  10.817  1.3044  0.6522 -0.1107
43836SOL     OW49499   9.775  13.459   0.733 -0.3283 -0.1140  0.6748
43836SOL    HW149500   9.774  13.424   0.822  0.9087 -0.4459  0.5797
43836SOL    HW249501   9.825  13.394   0.683 -1.1915 -0.0356 -0.3123
43837SOL     OW49502   4.795   6.947   8.883 -0.0194 -0.1247 -0.2045
43837SOL    HW149503   4.768   7.031   8.920  0.8800 -0.2184  0.7194
43837SOL    HW249504   4.743   6.938   8.803 -1.8680  0.2026  0.9034
43838SOL     OW49505  11.816   6.004   6.885 -0.1667  0.0566 -0.0567
43838SOL    HW149506  11.867   5.949   6.825  2.0938  2.0358 -0.1129
43838SOL    HW249507  11.738   6.027   6.836 -1.2351 -3.0336 -0.0159
43839SOL     OW49508  10.670   6.472  10.596  0.0617  0.3428  1.0712
43839SOL    HW149509  10.630   6.391  10.565 -0.1936  0.1858  1.7922
43839SOL    HW249510  10.639   6.539  10.535  1.0498 -0.2370 -0.1212
43840SOL     OW49511  11.420   0.329   7.151 -0.2156 -0.0455  0.1110
43840SOL    HW149512  11.363   0.316   7.075 -1.5668 -0.0521  1.0890
43840SOL    HW249513  11.468   0.409   7.131  0.0669 -0.4991 -1.1088
43841SOL     OW49514  12.271   9.358   2.729  0.0356  0.1752 -0.0193
43841SOL    HW149515  12.365   9.369   2.715 -0.2047  1.8809 -0.5948
43841SOL    HW249516  12.236   9.342   2.641 -0.1671 -1.1152  0.2713
43842SOL     OW49517   4.224  11.023  13.025  0.3975  0.0393 -0.3765
43842SOL    HW149518   4.173  11.014  13.106  0.6694  0.0717 -0.1997
43842SOL    HW249519   4.178  10.969  12.961  1.0089 -1.1971  0.1968
43843SOL     OW49520  13.877  14.060   5.178  0.5021  0.1819 -0.5491
43843SOL    HW149521  13.851  14.032   5.090  2.3990  1.1146 -1.4613
43843SOL    HW249522  13.801  14.039   5.233 -0.6918 -0.5250 -2.3683
43844SOL     OW49523   2.624   5.105   6.121  0.1140  0.4927 -0.0022
43844SOL    HW149524   2.655   5.040   6.058  1.3355  0.0889  0.9795
43844SOL    HW249525   2.579   5.055   6.189 -1.6554  0.9687 -0.7581
43845SOL     OW49526   6.888   0.274   7.751  0.9318  0.4813  0.6284
43845SOL    HW149527   6.908   0.318   7.834  0.3444 -0.8408  1.5248
43845SOL    HW249528   6.807   0.226   7.769  1.1846 -0.4167 -0.4894
43846SOL     OW49529   7.968  12.905  12.420  0.0268  0.3013  0.4716
43846SOL    HW149530   7.973  12.850  12.498  1.0121  0.0775  0.2698
43846SOL    HW249531   8.035  12.869  12.362  1.0875  2.0635  0.5485
43847SOL     OW49532  11.526   4.480   5.749 -0.4062 -0.1780 -0.1523
43847SOL    HW149533  11.519   4.545   5.820 -0.5147  0.2359 -0.5366
43847SOL    HW249534  11.444   4.430   5.755  0.0077 -0.7795  0.6223
43848SOL     OW49535   9.880   1.103   3.740 -0.4214  0.0969  0.7003
43848SOL    HW149536   9.885   1.068   3.651 -1.7322  0.1493  0.5851
43848SOL    HW249537   9.953   1.164   3.746  0.0683 -0.3837 -0.1203
43849SOL     OW49538   8.890   6.343  12.308  0.4150  0.1058 -0.2623
43849SOL    HW149539   8.953   6.337  12.380  0.3647 -1.7500 -0.3257
43849SOL    HW249540   8.917   6.274  12.247 -0.2692  0.8615 -1.4548
43850SOL     OW49541   1.105   6.599   1.237  0.3035 -0.0765  0.1770
43850SOL    HW149542   1.063   6.516   1.213  0.3282 -0.4596  1.3892
43850SOL    HW249543   1.044   6.639   1.300  1.0232  0.0710  0.7973
43851SOL     OW49544   3.093  11.143   9.708  0.3835 -0.0061  0.3856
43851SOL    HW149545   3.127  11.079   9.769  2.2317 -0.6066 -1.1891
43851SOL    HW249546   3.124  11.114   9.622 -0.7479  1.6820 -0.6582
43852SOL     OW49547   8.481  11.448  11.984 -0.3285  0.2941 -0.2466
43852SOL    HW149548   8.514  11.496  12.060  1.4725 -2.1931  0.6789
43852SOL    HW249549   8.495  11.508  11.910  0.0727  1.8651  1.0384
43853SOL     OW49550  13.708   5.297   9.443  0.0148  0.4942 -0.0277
43853SOL    HW149551  13.801   5.305   9.426  0.4572 -1.4548  1.2159
43853SOL    HW249552  13.671   5.260   9.363  0.6212 -0.4007  0.0987
43854SOL     OW49553   8.001  13.039  10.260 -0.6418 -0.6660  0.4402
43854SOL    HW149554   7.920  12.995  10.288 -1.9705  1.4878  0.2416
43854SOL    HW249555   7.973  13.094  10.186  1.4273 -1.2355 -0.8531
43855SOL     OW49556   8.576   3.705  10.553 -0.0417  0.4592 -0.3201
43855SOL    HW149557   8.485   3.714  10.581  0.1592  1.3330  0.1014
43855SOL    HW249558   8.604   3.795  10.535  0.5692  0.1401 -0.9922
43856SOL     OW49559  11.127   6.969  10.529 -0.4078 -0.5689  0.0543
43856SOL    HW149560  11.201   6.948  10.472 -1.6611  0.6437 -2.1635
43856SOL    HW249561  11.063   6.900  10.512 -0.7464 -0.2610  0.0707
43857SOL     OW49562  10.874  12.706   3.928  0.0683 -0.2402 -0.2085
43857SOL    HW149563  10.828  12.623   3.913  0.7321 -0.6146 -0.2475
43857SOL    HW249564  10.825  12.771   3.879 -0.5854 -0.5744 -0.0055
43858SOL     OW49565   9.152  13.549  13.155 -0.3955  0.0486  0.0925
43858SOL    HW149566   9.154  13.455  13.136 -0.8189  0.2850 -1.2873
43858SOL    HW249567   9.108  13.588  13.079  1.3293  1.5647 -0.2216
43859SOL     OW49568   5.470   9.945   1.420 -0.1414  0.2676 -0.0626
43859SOL    HW149569   5.422  10.017   1.461 -0.8880  1.0955 -2.2424
43859SOL    HW249570   5.451   9.869   1.475 -1.4529  1.2100  0.8434
43860SOL     OW49571  11.095   2.471  11.220  0.1227 -0.2858  0.1499
43860SOL    HW149572  11.153   2.397  11.242 -0.0659 -0.1434  1.1661
43860SOL    HW249573  11.050   2.491  11.302 -2.8859 -1.6720 -1.0282
43861SOL     OW49574   7.841  13.706  11.845 -0.2476 -0.4901  0.0317
43861SOL    HW149575   7.786  13.758  11.904  1.4668  1.9601 -0.4090
43861SOL    HW249576   7.786  13.691  11.768  0.3028  4.0981 -1.5186
43862SOL     OW49577  13.130   2.788  10.395  0.1245  0.3425  0.0563
43862SOL    HW149578  13.152   2.855  10.460  0.2082  0.7528 -0.3933
43862SOL    HW249579  13.073   2.728  10.442  0.4537  0.4499  0.6125
43863SOL     OW49580   6.944   2.513   9.345  0.3652 -0.2853 -0.0841
43863SOL    HW149581   6.975   2.440   9.399  0.6106  0.1135  0.3131
43863SOL    HW249582   7.007   2.518   9.273  0.3973 -0.4065 -0.0641
43864SOL     OW49583   8.362   1.871   0.733  0.0489  0.6889 -0.3382
43864SOL    HW149584   8.305   1.830   0.668 -0.2414  0.7903 -0.1468
43864SOL    HW249585   8.354   1.815   0.811 -0.3788  1.1274 -0.0636
43865SOL     OW49586   3.360   7.263   5.223 -0.4079 -0.0744  0.2842
43865SOL    HW149587   3.367   7.246   5.317 -0.7112 -0.0872  0.3080
43865SOL    HW249588   3.425   7.330   5.205 -1.0018  0.6267  0.6915
43866SOL     OW49589   3.366   0.289   8.332  0.1667 -0.1967  0.2287
43866SOL    HW149590   3.330   0.234   8.402 -0.4056  0.6637  0.6336
43866SOL    HW249591   3.296   0.352   8.313 -0.0921 -1.0617 -1.8605
43867SOL     OW49592   3.941   8.060   0.317  0.5625  0.0922  0.9253
43867SOL    HW149593   3.898   8.001   0.379 -1.9761  0.4825 -0.3357
43867SOL    HW249594   3.971   8.003   0.246  0.4160  0.0300  0.9134
43868SOL     OW49595   5.928   1.070   2.285  0.0126  0.0936 -0.2520
43868SOL    HW149596   5.876   0.998   2.249  0.4219 -0.5099  0.3359
43868SOL    HW249597   5.873   1.148   2.273 -0.1726 -0.1985 -1.4897
43869SOL     OW49598   5.032   2.160  14.041  1.3220 -0.1475  0.2535
43869SOL    HW149599   5.035   2.085  13.982 -0.0295 -0.1015  0.0951
43869SOL    HW249600   5.080   2.229  13.995 -0.4089  0.1508 -1.2181
43870SOL     OW49601   7.291   9.908  11.259  1.0581 -0.3731 -1.0706
43870SOL    HW149602   7.303   9.913  11.164 -1.6504 -0.1347 -1.4580
43870SOL    HW249603   7.199   9.929  11.274  1.6646  0.7792  1.7442
43871SOL     OW49604   6.342   6.955  11.246 -0.2375  0.0135  0.5062
43871SOL    HW149605   6.265   6.998  11.284 -0.1519  0.7456 -0.1280
43871SOL    HW249606   6.306   6.889  11.186 -0.3858  0.8781 -0.3768
43872SOL     OW49607   9.269   0.604   1.232  0.2582 -0.4030  0.2127
43872SOL    HW149608   9.343   0.545   1.227 -0.4378 -1.2292 -0.8130
43872SOL    HW249609   9.209   0.574   1.163 -0.7108  0.6682  0.5456
43873SOL     OW49610   0.168  10.650  12.622  0.2180  0.1411  0.4096
43873SOL    HW149611   0.076  10.671  12.604  0.7979  1.3266 -1.5131
43873SOL    HW249612   0.209  10.644  12.535  1.9282 -0.5626  1.2113
43874SOL     OW49613   1.955   9.616   2.235 -0.5389 -0.0370  0.6286
43874SOL    HW149614   1.938   9.542   2.176 -0.2190 -0.8955  1.5732
43874SOL    HW249615   1.998   9.681   2.180  2.2494 -1.8766  0.4477
43875SOL     OW49616   6.374   7.967   8.102  0.1532 -0.2586  0.1644
43875SOL    HW149617   6.459   8.009   8.090  0.9518 -1.6565  0.7386
43875SOL    HW249618   6.314   8.020   8.049  1.5329  0.2196 -0.9855
43876SOL     OW49619   1.880  10.738   0.265 -0.3976 -0.4979 -0.0044
43876SOL    HW149620   1.926  10.751   0.182 -0.1978  0.9364  0.3034
43876SOL    HW249621   1.805  10.684   0.242 -0.1874 -0.3639 -1.0794
43877SOL     OW49622  12.013   7.362   8.773 -0.2888 -0.6319 -0.3276
43877SOL    HW149623  11.965   7.291   8.731 -1.2405 -0.1747 -0.0421
43877SOL    HW249624  11.945   7.419   8.809  0.4391  0.6878 -0.9702
43878SOL     OW49625  13.872  11.922  10.786 -0.3028 -0.4396 -0.0830
43878SOL    HW149626  13.854  11.834  10.750  0.5652 -0.6175 -0.1089
43878SOL    HW249627  13.928  11.906  10.862 -0.0163  0.0983 -0.1752
43879SOL     OW49628   3.542  10.464   0.580  0.3772  0.1965  0.3922
43879SOL    HW149629   3.477  10.527   0.612 -0.2015  0.3092 -0.9245
43879SOL    HW249630   3.569  10.416   0.658 -2.0889 -0.5891  0.8634
43880SOL     OW49631  11.280   1.160   6.635 -0.0725 -0.0494 -0.6329
43880SOL    HW149632  11.264   1.245   6.675 -0.0692 -0.2966 -0.0962
43880SOL    HW249633  11.194   1.117   6.635 -0.0146 -0.1647 -0.6194
43881SOL     OW49634   0.546  13.954  11.962 -0.8040  0.1811  0.0360
43881SOL    HW149635   0.613  13.941  12.029 -0.4110 -2.1409 -0.7342
43881SOL    HW249636   0.466  13.917  12.001 -0.6043 -1.0531 -0.6793
43882SOL     OW49637  13.877   9.391   0.056 -0.2998  0.8164 -0.0713
43882SOL    HW149638  13.789   9.427   0.062 -0.8032 -0.1468 -1.2891
43882SOL    HW249639  13.880   9.348  -0.029  0.8895 -0.3773  0.5291
43883SOL     OW49640  10.035   9.881   1.729 -0.1843 -0.1118  0.0397
43883SOL    HW149641  10.020   9.962   1.680  1.5931 -0.9182 -1.9349
43883SOL    HW249642   9.964   9.823   1.700 -0.0826 -0.0506 -0.3414
43884SOL     OW49643   9.892   7.390   6.373 -0.1917 -0.0264 -0.6829
43884SOL    HW149644   9.982   7.368   6.394 -0.3044 -2.2943 -2.2331
43884SOL    HW249645   9.860   7.436   6.450  1.9743 -0.0258  0.2870
43885SOL     OW49646  10.592  13.306   7.347 -0.9343 -0.0408 -0.4404
43885SOL    HW149647  10.565  13.398   7.336  0.8745  0.6565  0.5119
43885SOL    HW249648  10.511  13.256   7.335 -1.7374  1.5557 -2.3068
43886SOL     OW49649   8.796   5.524   8.134 -0.7056 -0.2719  0.5143
43886SOL    HW149650   8.820   5.607   8.091 -1.0474 -0.2794  0.3071
43886SOL    HW249651   8.870   5.506   8.192 -0.3695 -0.1116  0.1455
43887SOL     OW49652  14.094   6.678   0.364  0.3037  0.1436  0.3680
43887SOL    HW149653  14.177   6.630   0.360 -0.1521 -0.6622  0.3111
43887SOL    HW249654  14.082   6.697   0.457  1.8352  2.6191  0.1507
43888SOL     OW49655  11.050   0.090   0.383  0.4992  0.4643  0.6088
43888SOL    HW149656  11.025  -0.001   0.369  0.7896  0.5893 -0.8814
43888SOL    HW249657  10.983   0.141   0.338  1.2116  0.9316  0.0578
43889SOL     OW49658   6.805  12.686   1.895 -0.1979 -0.3904  0.2013
43889SOL    HW149659   6.766  12.676   1.808 -0.4634 -0.0433  0.2780
43889SOL    HW249660   6.763  12.618   1.947 -1.1990  0.3745  0.4473
43890SOL     OW49661   5.466  10.750   9.375 -0.3694 -0.0410 -0.5031
43890SOL    HW149662   5.535  10.727   9.313 -0.7265 -1.2715 -0.4800
43890SOL    HW249663   5.492  10.706   9.456 -0.7850  0.1186 -0.2799
43891SOL     OW49664   4.173  11.884   1.275 -0.1189  0.5439  0.0495
43891SOL    HW149665   4.154  11.845   1.360 -0.1480 -0.7618 -0.5248
43891SOL    HW249666   4.266  11.908   1.281  0.2641 -0.8014  0.0178
43892SOL     OW49667   7.521   2.190   2.448  0.4195 -0.3839 -0.5674
43892SOL    HW149668   7.528   2.113   2.393  2.0607 -0.8215  0.1957
43892SOL    HW249669   7.502   2.155   2.536 -0.3810  0.1885 -0.4977
43893SOL     OW49670  13.772   4.421   3.083 -1.0924  0.5092 -0.2363
43893SOL    HW149671  13.856   4.467   3.078 -0.0171 -1.2604  0.5734
43893SOL    HW249672  13.770   4.386   3.173 -1.6625 -1.3144 -0.9124
43894SOL     OW49673   8.608   7.826   8.969  0.4622 -0.3910  0.0575
43894SOL    HW149674   8.674   7.843   9.036 -1.0255  0.2002  1.4550
43894SOL    HW249675   8.549   7.762   9.010  0.2001 -0.9636 -1.1823
43895SOL     OW49676  12.964   7.894   5.168  0.1816 -0.0356 -0.3498
43895SOL    HW149677  12.992   7.978   5.204 -0.7806 -0.1220  0.6573
43895SOL    HW249678  13.040   7.836   5.179 -0.4888 -0.5123  3.1248
43896SOL     OW49679   5.211  12.412  12.812  0.4257 -0.5937  0.1506
43896SOL    HW149680   5.184  12.499  12.842  3.1685  0.6384 -0.6605
43896SOL    HW249681   5.154  12.351  12.861 -1.1032  1.5938  1.2529
43897SOL     OW49682   9.507  12.360  12.918 -0.6515 -0.0585 -0.2177
43897SOL    HW149683   9.506  12.456  12.912 -1.8115  0.0854  1.5742
43897SOL    HW249684   9.416  12.334  12.906 -0.1614 -1.1185 -2.2155
43898SOL     OW49685   1.676   1.172   7.839 -0.0237  0.0408 -0.2151
43898SOL    HW149686   1.679   1.197   7.746 -0.2715  1.4618  0.1354
43898SOL    HW249687   1.726   1.240   7.883  0.5378 -0.9108  0.6546
43899SOL     OW49688   8.900   0.095   5.932 -0.2035  0.5602  0.9417
43899SOL    HW149689   8.957   0.060   5.863 -1.8017 -0.5211  0.1162
43899SOL    HW249690   8.888   0.187   5.908  2.1826  1.1839  1.8526
43900SOL     OW49691   8.206   9.278   7.432  0.1701 -0.2106  0.4466
43900SOL    HW149692   8.198   9.187   7.459 -0.5889 -0.1961  0.2920
43900SOL    HW249693   8.263   9.318   7.498 -0.5132 -0.5054  1.2304
43901SOL     OW49694   8.104  13.867   3.602  0.2551 -0.0264  0.1855
43901SOL    HW149695   8.110  13.880   3.696 -2.0473  0.5008  0.3186
43901SOL    HW249696   8.096  13.772   3.590  0.0456 -0.0561  0.5648
43902SOL     OW49697   9.328   4.340   1.462  0.1182 -0.4513  0.0484
43902SOL    HW149698   9.263   4.271   1.449 -1.3839  0.9729 -0.3709
43902SOL    HW249699   9.315   4.368   1.553 -1.5736  1.4339 -0.7057
43903SOL     OW49700   2.696   9.529  13.301 -0.3248 -0.5598 -0.1629
43903SOL    HW149701   2.686   9.511  13.395  1.6921 -1.6667 -0.0937
43903SOL    HW249702   2.755   9.605  13.298  0.6705 -1.3182 -0.4945
43904SOL     OW49703   1.585   4.166   1.852  0.2067 -0.9092  0.7366
43904SOL    HW149704   1.626   4.142   1.769  2.5906  2.2851  0.7778
43904SOL    HW249705   1.637   4.120   1.919  0.5741 -0.6947  0.5976
43905SOL     OW49706   3.755   9.619   7.348  0.7847 -0.0469  0.6571
43905SOL    HW149707   3.682   9.558   7.350  1.0211 -0.3319  0.6582
43905SOL    HW249708   3.809   9.594   7.423  0.9734  0.0527  0.5543
43906SOL     OW49709  10.478  13.746  12.125  0.3922 -0.2813 -0.2630
43906SOL    HW149710  10.466  13.822  12.068  0.1359 -0.8235 -0.9354
43906SOL    HW249711  10.417  13.761  12.198  0.4273  0.2114 -0.3303
43907SOL     OW49712   8.790  12.235   7.295  0.3683  0.0415 -0.4586
43907SOL    HW149713   8.816  12.166   7.356 -0.0790  0.3344  0.0757
43907SOL    HW249714   8.695  12.241   7.305  0.4912  1.2944  0.1214
43908SOL     OW49715   1.973  13.331  11.686  0.1835  0.5393 -0.2780
43908SOL    HW149716   1.941  13.263  11.626  0.3064  0.3565 -0.1361
43908SOL    HW249717   2.063  13.306  11.705 -0.3090 -0.2428  1.1612
43909SOL     OW49718   4.505   4.615  10.967  0.1857 -0.0427 -0.6388
43909SOL    HW149719   4.566   4.595  10.896  1.0691 -0.6399  0.2648
43909SOL    HW249720   4.512   4.541  11.026  1.0172  1.3483  1.1119
43910SOL     OW49721  13.986   1.187   5.420 -0.0297  0.2653 -0.1824
43910SOL    HW149722  13.941   1.256   5.469 -0.6934 -2.1382  2.8872
43910SOL    HW249723  13.920   1.155   5.358  0.0416  1.7978 -1.0868
43911SOL     OW49724  12.745  10.016   8.373 -0.6157 -0.2246 -0.1025
43911SOL    HW149725  12.762  10.090   8.315 -0.0815 -0.6127 -0.4556
43911SOL    HW249726  12.772   9.939   8.323 -2.0830 -0.7640 -0.1290
43912SOL     OW49727   4.402   4.378  12.069  0.4699  0.0133 -0.2051
43912SOL    HW149728   4.343   4.335  12.130  1.0986 -2.7244 -1.3732
43912SOL    HW249729   4.347   4.399  11.993  0.4329  0.0001 -0.1816
43913SOL     OW49730  11.190   5.237  10.797  0.0560 -0.4325  0.1060
43913SOL    HW149731  11.196   5.323  10.754 -0.6594 -1.2271 -1.6902
43913SOL    HW249732  11.207   5.174  10.726 -0.5104 -1.8028  1.1538
43914SOL     OW49733  14.113  13.638  13.195 -1.4037  0.1888 -0.5693
43914SOL    HW149734  14.191  13.635  13.250 -1.3048 -2.1702 -0.7355
43914SOL    HW249735  14.041  13.619  13.255 -1.6058  0.1617 -0.8194
43915SOL     OW49736   4.424   6.699  13.975  0.3716 -0.1169  0.0654
43915SOL    HW149737   4.479   6.638  14.024  2.1643  0.0356 -1.6236
43915SOL    HW249738   4.445   6.785  14.012 -0.6427 -0.2816  1.0834
43916SOL     OW49739   5.981  12.416   5.955 -0.5211  0.1933 -0.1836
43916SOL    HW149740   5.929  12.409   5.875  0.2581  1.0752 -0.7893
43916SOL    HW249741   5.916  12.426   6.025 -1.1907  2.8972 -1.0807
43917SOL     OW49742   3.379  12.880  12.524 -0.4194 -0.3968 -0.1259
43917SOL    HW149743   3.324  12.811  12.487  2.8031 -2.6096 -1.3244
43917SOL    HW249744   3.394  12.940  12.451  0.1726 -0.8336 -0.3800
43918SOL     OW49745   6.822  10.765   1.140 -0.1851  0.1115  0.4517
43918SOL    HW149746   6.833  10.799   1.229  2.7894 -1.2355  0.6858
43918SOL    HW249747   6.883  10.692   1.134  0.3678  0.6895 -2.9913
43919SOL     OW49748  10.739  13.240   0.292 -0.4674  0.1896  0.0977
43919SOL    HW149749  10.822  13.194   0.284 -1.7913 -2.4711  0.4686
43919SOL    HW249750  10.686  13.184   0.349 -2.9113  1.1199 -1.1143
43920SOL     OW49751   0.233   7.927  12.405  0.0194  0.1416  0.6402
43920SOL    HW149752   0.309   7.868  12.405 -0.2184 -0.1652  0.5056
43920SOL    HW249753   0.158   7.869  12.394 -0.1400  0.5635 -0.7034
43921SOL     OW49754   5.550   3.068   9.844  0.5941  0.8483  0.1223
43921SOL    HW149755   5.573   3.122   9.768  1.3155 -0.2115 -0.4398
43921SOL    HW249756   5.454   3.074   9.849  0.5333  0.8927 -0.9113
43922SOL     OW49757   9.738  11.584  10.109 -0.0116 -0.3393 -0.1546
43922SOL    HW149758   9.644  11.572  10.120 -0.1311 -0.6516 -1.4437
43922SOL    HW249759   9.767  11.622  10.193 -1.3271  0.0857  0.1271
43923SOL     OW49760  12.142   2.074   2.142 -0.2260 -0.7608 -0.3965
43923SOL    HW149761  12.102   2.106   2.223 -0.5956 -0.4092 -0.7126
43923SOL    HW249762  12.233   2.056   2.166  0.2554  1.4046 -0.4034
43924SOL     OW49763   7.205  14.033  10.804  0.1769 -0.4319 -0.2025
43924SOL    HW149764   7.156  14.105  10.763 -0.8819  0.1551  1.9658
43924SOL    HW249765   7.250  13.991  10.731 -1.4091  0.6928 -1.9277
43925SOL     OW49766   1.376   1.823   8.895 -0.5824  0.0392  0.3526
43925SOL    HW149767   1.458   1.858   8.932 -1.2195  0.5889  1.2834
43925SOL    HW249768   1.310   1.844   8.960 -1.7245  0.8483 -1.0206
43926SOL     OW49769  12.314   1.271   2.982 -0.5095  0.0840  0.0634
43926SOL    HW149770  12.371   1.215   2.929  0.7590 -1.8778  3.2048
43926SOL    HW249771  12.233   1.277   2.931  1.2801  0.1555 -3.0028
43927SOL     OW49772   6.963   0.332   8.362  0.0151  0.1174  0.1935
43927SOL    HW149773   6.999   0.419   8.379 -0.0373  0.3595 -0.8603
43927SOL    HW249774   6.972   0.286   8.446  1.8199  0.5006  0.2620
43928SOL     OW49775   0.515   7.673   3.587  0.1941 -0.2090 -0.0077
43928SOL    HW149776   0.467   7.734   3.643 -0.3138 -0.9573  0.3749
43928SOL    HW249777   0.451   7.642   3.524  0.2001 -1.0993  0.4158
43929SOL     OW49778   7.026   5.395  13.612  0.1148 -0.2301  0.2155
43929SOL    HW149779   7.103   5.377  13.666 -0.0007  0.9672  0.8241
43929SOL    HW249780   6.989   5.309  13.593  0.9825 -0.7571  0.8333
43930SOL     OW49781   7.733   9.397   5.477 -0.6110  0.4687  0.0614
43930SOL    HW149782   7.779   9.313   5.469 -0.8029  0.3804 -0.1064
43930SOL    HW249783   7.746   9.422   5.568 -0.7662  0.1331  0.1803
43931SOL     OW49784   7.574   7.167   9.057 -0.2803  0.0012 -0.7071
43931SOL    HW149785   7.482   7.189   9.073  0.0898  0.2278  1.2670
43931SOL    HW249786   7.622   7.215   9.124  1.2069 -0.8604 -1.1284
43932SOL     OW49787   8.194  12.223  13.229  0.4468  0.0559 -0.4884
43932SOL    HW149788   8.158  12.163  13.294 -1.7940  0.6749 -1.0460
43932SOL    HW249789   8.286  12.233  13.253 -0.0131 -0.6684  1.8339
43933SOL     OW49790  11.424  11.397   6.798 -0.1820 -0.1339 -0.2738
43933SOL    HW149791  11.433  11.491   6.781 -1.0710 -0.0894 -0.5379
43933SOL    HW249792  11.337  11.388   6.835  0.9587 -0.4729  2.6083
43934SOL     OW49793   0.064  10.450   4.159  0.6068 -0.8234 -0.7041
43934SOL    HW149794  -0.010  10.497   4.120 -0.5583 -0.4171  1.8256
43934SOL    HW249795   0.080  10.494   4.242  2.4836 -2.0901 -0.3250
43935SOL     OW49796   4.089  11.600   4.586 -0.2358  0.1394  0.2152
43935SOL    HW149797   4.000  11.589   4.551 -0.0048  0.3409 -0.4342
43935SOL    HW249798   4.091  11.689   4.620 -1.0322 -0.6007  2.4258
43936SOL     OW49799   7.731   9.920   3.529 -0.2501  0.5652  0.0468
43936SOL    HW149800   7.810   9.913   3.475 -1.4164  1.7001 -1.9106
43936SOL    HW249801   7.763   9.945   3.616  1.5957 -0.0414 -0.4147
43937SOL     OW49802   4.348   9.018   1.181 -0.2263  0.2009 -0.3390
43937SOL    HW149803   4.374   8.931   1.212 -0.4609 -0.4213 -1.8055
43937SOL    HW249804   4.270   9.040   1.232 -0.8929 -1.0006 -0.7978
43938SOL     OW49805  13.729   5.157   7.384 -0.2461  0.2410 -0.1112
43938SOL    HW149806  13.668   5.184   7.453 -1.6953 -0.7589 -0.9274
43938SOL    HW249807  13.809   5.206   7.401 -0.7691  0.4656  1.9092
43939SOL     OW49808   0.152   5.762   9.274  0.3195 -0.8810  0.4122
43939SOL    HW149809   0.145   5.721   9.188 -1.5924  0.0566  0.0640
43939SOL    HW249810   0.185   5.692   9.332 -0.2225 -2.0831 -0.6882
43940SOL     OW49811   2.435   7.871   5.200  0.3596  0.4025 -0.2938
43940SOL    HW149812   2.406   7.962   5.194 -0.2148  0.2485  0.0793
43940SOL    HW249813   2.369   7.828   5.255 -0.1599 -0.5490 -1.5958
43941SOL     OW49814   0.346   4.647  11.175  0.3050 -0.5991 -0.2098
43941SOL    HW149815   0.299   4.686  11.248  0.4231  0.2145 -0.5522
43941SOL    HW249816   0.333   4.708  11.103  0.4734 -1.2151 -0.7786
43942SOL     OW49817   9.648   8.134  11.647  0.1739 -0.9136 -1.1072
43942SOL    HW149818   9.599   8.187  11.709  0.4686 -1.0272 -0.7735
43942SOL    HW249819   9.584   8.071  11.613 -0.0439 -0.6959 -1.0973
43943SOL     OW49820   2.418  10.260  13.496 -0.0140  0.7285  0.4154
43943SOL    HW149821   2.495  10.267  13.440 -0.2578  0.3095  0.0238
43943SOL    HW249822   2.451  10.280  13.584  0.8645 -0.9096  0.5010
43944SOL     OW49823  14.075   3.602  13.660 -0.1775 -0.0726  0.1033
43944SOL    HW149824  14.076   3.538  13.732 -1.6935 -0.5215 -0.2310
43944SOL    HW249825  14.003   3.573  13.604 -0.9265  1.9470 -0.0574
43945SOL     OW49826   5.678   2.208   7.710 -0.1368  0.0068  0.2578
43945SOL    HW149827   5.743   2.159   7.760 -0.2681 -0.5164 -0.0809
43945SOL    HW249828   5.684   2.297   7.745  1.4984  0.2155 -0.4816
43946SOL     OW49829   1.708  10.422  11.933  0.4339  0.4441  0.3744
43946SOL    HW149830   1.750  10.506  11.914  2.0462 -0.2564  0.6369
43946SOL    HW249831   1.769  10.378  11.993 -0.6616 -0.6713  0.7063
43947SOL     OW49832  11.922   6.106   1.581 -0.0317  0.0360  0.4584
43947SOL    HW149833  11.866   6.094   1.505  0.2578 -0.0284  0.2548
43947SOL    HW249834  11.924   6.020   1.623 -0.5832  0.1908  0.8121
43948SOL     OW49835   5.553   1.868  10.516  0.5120 -0.1918  0.1740
43948SOL    HW149836   5.634   1.821  10.536  1.6051 -0.2907 -3.7382
43948SOL    HW249837   5.494   1.802  10.479 -0.6391  0.2823  1.0713
43949SOL     OW49838  13.590   8.644   5.381 -0.1470 -0.1056  0.2010
43949SOL    HW149839  13.676   8.604   5.394  0.4646  0.9861 -0.3447
43949SOL    HW249840  13.534   8.571   5.354  0.5490 -0.8686  0.7445
43950SOL     OW49841   2.547   1.129   2.997  0.1216 -0.0005 -0.2362
43950SOL    HW149842   2.625   1.078   2.972 -0.4264 -1.0140  0.0394
43950SOL    HW249843   2.474   1.077   2.964 -0.4665  0.4717  0.3123
43951SOL     OW49844   6.555  12.524  12.844  0.1115 -0.0921  0.2228
43951SOL    HW149845   6.613  12.527  12.769 -1.7106 -2.5855 -1.4094
43951SOL    HW249846   6.475  12.569  12.815  0.7748  2.6593  2.1852
43952SOL     OW49847   8.209   6.663   4.848  1.1673  0.1572 -0.2072
43952SOL    HW149848   8.266   6.601   4.893 -0.6409 -0.6266  1.1378
43952SOL    HW249849   8.221   6.745   4.896 -0.3456 -0.5393  1.4808
43953SOL     OW49850   7.616   2.728   9.685  0.0210 -0.8104 -0.5598
43953SOL    HW149851   7.640   2.818   9.661  1.8746 -1.0217  0.3284
43953SOL    HW249852   7.521   2.731   9.694  0.1844  1.6043  1.5364
43954SOL     OW49853   6.299   0.939   0.844  0.2914 -0.6045  0.2857
43954SOL    HW149854   6.227   0.885   0.878 -1.0095  0.9240  0.0789
43954SOL    HW249855   6.374   0.918   0.900 -1.6285  1.4987  3.9698
43955SOL     OW49856   8.180  11.959  12.141  0.1053  0.4428 -0.2987
43955SOL    HW149857   8.157  12.046  12.107 -0.9923  1.0429  1.8158
43955SOL    HW249858   8.110  11.902  12.109 -0.4406  0.8204  0.2012
43956SOL     OW49859   4.822  12.338  11.289  0.0572 -0.6859 -0.1165
43956SOL    HW149860   4.882  12.270  11.321  0.2921 -0.5964 -0.3556
43956SOL    HW249861   4.874  12.386  11.224  0.0269 -0.0350  0.3216
43957SOL     OW49862   8.481  12.207   7.665  0.0307  0.1339  0.4658
43957SOL    HW149863   8.480  12.276   7.598 -0.1386  0.4430  0.7821
43957SOL    HW249864   8.396  12.214   7.708 -0.0830 -0.4391  0.3350
43958SOL     OW49865   0.077  12.506  13.088  0.1653  0.0797 -0.1763
43958SOL    HW149866   0.077  12.448  13.012  0.1514 -0.1222 -0.0271
43958SOL    HW249867   0.102  12.592  13.054 -0.2752  0.0900 -0.4777
43959SOL     OW49868  14.075   2.795   9.198  0.1824 -0.3723 -0.4780
43959SOL    HW149869  14.043   2.877   9.238  0.7218  0.6697 -2.1024
43959SOL    HW249870  14.162   2.783   9.235  0.6050  0.4899 -1.1492
43960SOL     OW49871  12.424   5.224   1.000 -0.0662  0.7407 -0.5172
43960SOL    HW149872  12.504   5.183   1.034 -0.6441 -0.0052 -0.0396
43960SOL    HW249873  12.454   5.273   0.923  0.6863 -0.3485 -0.9435
43961SOL     OW49874   1.071   1.250   7.152 -0.9197 -0.0521 -0.0248
43961SOL    HW149875   1.120   1.247   7.234 -0.4686  0.2548 -0.2786
43961SOL    HW249876   1.098   1.333   7.112 -1.2590 -0.1260 -0.4067
43962SOL     OW49877   9.506   1.943   0.843  0.0186 -0.1749 -0.1926
43962SOL    HW149878   9.498   1.959   0.937 -1.0590  0.3343 -0.3620
43962SOL    HW249879   9.600   1.955   0.825  0.2585 -0.4337  0.8347
43963SOL     OW49880   2.945   5.466   6.640 -0.1344  0.0780 -0.1589
43963SOL    HW149881   2.874   5.501   6.693 -0.3339 -2.0019  1.0379
43963SOL    HW249882   2.913   5.472   6.550 -1.3623  0.1941  0.2648
43964SOL     OW49883   3.001   0.218   1.138 -0.2031 -0.3113  0.2528
43964SOL    HW149884   2.938   0.240   1.070 -1.3570  1.1945  1.7294
43964SOL    HW249885   2.989   0.285   1.205  2.8498 -0.0884  0.7168
43965SOL     OW49886   1.381   2.377  12.821 -0.2672  0.2866  0.1273
43965SOL    HW149887   1.455   2.326  12.790  1.1965  1.0787  2.1244
43965SOL    HW249888   1.418   2.462  12.847 -1.8472  0.7281  1.1520
43966SOL     OW49889  11.861   3.322   6.306 -0.0959 -0.9324  0.0044
43966SOL    HW149890  11.954   3.297   6.302  0.5543  1.0701  1.2919
43966SOL    HW249891  11.824   3.286   6.225  1.2598 -3.6759  0.4687
43967SOL     OW49892   4.684  13.026   3.288 -0.3101 -0.0567 -0.1212
43967SOL    HW149893   4.656  13.109   3.249  0.9597 -0.0035 -1.0181
43967SOL    HW249894   4.762  13.001   3.237 -0.7701 -1.8998 -0.0038
43968SOL     OW49895   1.921   7.419  10.328  0.0001  0.1399  0.1540
43968SOL    HW149896   1.932   7.485  10.396  1.4352  0.8079 -0.6682
43968SOL    HW249897   1.926   7.336  10.374  0.6540  0.5859  0.9156
43969SOL     OW49898   4.443   4.355  11.663 -0.1901 -0.1769 -0.7047
43969SOL    HW149899   4.390   4.375  11.740  1.4648 -1.6561  0.8810
43969SOL    HW249900   4.382   4.313  11.602 -1.5525  1.1433 -0.3103
43970SOL     OW49901  10.389   0.164   7.314  0.0141 -0.0385  0.0431
43970SOL    HW149902  10.299   0.150   7.284 -0.3597  0.7214  0.7604
43970SOL    HW249903  10.424   0.230   7.254  0.3225 -0.7879 -0.6285
43971SOL     OW49904   6.610  12.863   2.139  0.0003  0.2638 -0.2421
43971SOL    HW149905   6.677  12.929   2.121 -0.2126  0.3486 -0.7488
43971SOL    HW249906   6.601  12.815   2.057 -1.6090  1.2092 -0.6685
43972SOL     OW49907   7.375  10.268   7.621 -0.3168  0.0143  0.1452
43972SOL    HW149908   7.444  10.306   7.675 -0.3436  1.7518 -0.9766
43972SOL    HW249909   7.348  10.339   7.563 -1.9332 -1.1037 -0.5413
43973SOL     OW49910   0.668   5.190   8.201 -0.4562 -0.6188 -0.0024
43973SOL    HW149911   0.750   5.148   8.176  0.1705  0.7547 -0.3436
43973SOL    HW249912   0.600   5.138   8.157  0.3227 -0.9034 -0.9015
43974SOL     OW49913  13.637   5.094   1.646 -0.4464 -0.4623 -0.1268
43974SOL    HW149914  13.547   5.119   1.667 -0.2057 -0.5683  1.1045
43974SOL    HW249915  13.638   4.998   1.655 -0.0641 -0.4059  0.4970
43975SOL     OW49916   8.178   4.819   3.234 -0.1149  0.4130  0.3289
43975SOL    HW149917   8.268   4.849   3.248  0.1653 -0.3379  0.1745
43975SOL    HW249918   8.124   4.889   3.270  0.5111  1.2623 -0.3300
43976SOL     OW49919   7.407   5.794   0.748  0.5137 -0.0392 -0.3105
43976SOL    HW149920   7.481   5.855   0.751 -0.1168  0.6977  0.9503
43976SOL    HW249921   7.368   5.809   0.662 -0.3136  2.2317  0.3874
43977SOL     OW49922  12.755  10.922   2.046  0.3422  0.4545  0.3575
43977SOL    HW149923  12.706  10.988   1.996  0.5504  0.9571  0.8062
43977SOL    HW249924  12.839  10.963   2.064  0.1766  0.3824  1.3455
43978SOL     OW49925  12.359  11.280   6.472  0.3814  0.4737 -0.0457
43978SOL    HW149926  12.442  11.248   6.509 -0.4000 -0.7885  0.7044
43978SOL    HW249927  12.338  11.217   6.404  0.2229  1.0149 -0.4988
43979SOL     OW49928   4.162  10.914  13.754 -0.3068  0.2236  0.1506
43979SOL    HW149929   4.193  10.969  13.826 -1.8689 -0.4403  1.3914
43979SOL    HW249930   4.142  10.976  13.684  2.1990  0.7973 -0.1562
43980SOL     OW49931   9.355  12.836   1.849 -0.1673  0.2898  0.7651
43980SOL    HW149932   9.353  12.744   1.877 -0.6473 -0.0993 -0.4722
43980SOL    HW249933   9.419  12.877   1.906 -1.0355 -0.4656  2.3640
43981SOL     OW49934   0.388  13.256   8.121  0.2806  0.4618  0.1754
43981SOL    HW149935   0.447  13.183   8.097  0.2497  0.4923  0.0059
43981SOL    HW249936   0.330  13.265   8.046 -1.4569 -1.0742  1.2300
43982SOL     OW49937   2.043   7.434   0.706  0.8751  0.2313 -0.1380
43982SOL    HW149938   2.112   7.385   0.660  1.4385  0.6547  0.2398
43982SOL    HW249939   2.059   7.525   0.681  0.7577  0.3850  0.3403
43983SOL     OW49940   7.228   2.650   7.147  0.0181 -0.0056 -0.6846
43983SOL    HW149941   7.135   2.634   7.126 -0.8576 -0.0061  2.6354
43983SOL    HW249942   7.226   2.702   7.227  2.9247 -0.3657 -0.2778
43984SOL     OW49943   9.610   6.126   9.950  0.1011 -0.1255 -0.8452
43984SOL    HW149944   9.538   6.073   9.915  0.3320  0.4232 -2.2042
43984SOL    HW249945   9.567   6.203   9.987 -0.1638 -0.8232  0.3592
43985SOL     OW49946  13.630   1.019   7.351  0.0641  0.8946  0.0868
43985SOL    HW149947  13.552   0.999   7.300 -1.2556  1.3146  1.8205
43985SOL    HW249948  13.674   0.935   7.361 -0.0080  0.6941 -1.1288
43986SOL     OW49949  13.221  10.152   4.749 -0.2701 -0.4367  0.3745
43986SOL    HW149950  13.315  10.140   4.744 -0.1294  0.3220  1.0401
43986SOL    HW249951  13.189  10.070   4.788 -0.0365 -1.1905 -0.9721
43987SOL     OW49952   6.938  12.264   0.681 -0.1041 -0.0310  0.4196
43987SOL    HW149953   6.880  12.193   0.709  0.3327 -0.9257 -0.8735
43987SOL    HW249954   6.902  12.343   0.723 -1.0916 -0.8692  1.1881
43988SOL     OW49955  12.478   3.732  10.392  0.2960 -0.1502 -0.1379
43988SOL    HW149956  12.497   3.746  10.300 -0.1952 -0.5474 -0.3043
43988SOL    HW249957  12.385   3.755  10.401  0.2631 -0.4050  0.1946
43989SOL     OW49958   1.921   4.788  12.162  0.0583  0.4121 -1.0706
43989SOL    HW149959   1.832   4.811  12.191  1.2560  1.8767  1.9314
43989SOL    HW249960   1.927   4.694  12.176 -0.4628  0.5912  0.5688
43990SOL     OW49961  11.977   2.993  13.867  0.0920  0.0887  0.8068
43990SOL    HW149962  11.964   3.080  13.906 -0.4488  1.1412 -1.5847
43990SOL    HW249963  12.072   2.978  13.876 -0.0342  0.1361  2.7099
43991SOL     OW49964  12.875  13.975   5.370 -0.0766  0.1563 -0.3346
43991SOL    HW149965  12.865  13.889   5.331  3.4318 -0.3226 -0.4989
43991SOL    HW249966  12.922  13.959   5.452  0.9514  1.8873 -0.5226
43992SOL     OW49967   9.745   9.598   0.637 -0.0684 -0.3172  0.1732
43992SOL    HW149968   9.804   9.542   0.586 -0.2073 -1.2201  0.9738
43992SOL    HW249969   9.669   9.609   0.581  0.1302 -0.5978 -0.1608
43993SOL     OW49970   0.057   2.542   2.253 -0.3226  0.3575 -0.0492
43993SOL    HW149971   0.007   2.621   2.275  0.9213  1.0731  0.3009
43993SOL    HW249972   0.026   2.518   2.166 -0.4967  1.4305 -0.3010
43994SOL     OW49973  13.598   6.282  13.824  0.0823  0.0384 -0.0316
43994SOL    HW149974  13.684   6.314  13.797  0.0032  0.8125  0.5915
43994SOL    HW249975  13.575   6.336  13.900 -1.6722  0.9570 -1.1572
43995SOL     OW49976   5.445   2.853   4.142 -0.1549  0.1366  0.3240
43995SOL    HW149977   5.429   2.862   4.048  1.4991 -1.2344 -0.1401
43995SOL    HW249978   5.461   2.942   4.173  1.4706  0.3950 -1.1498
43996SOL     OW49979   4.627   6.221   8.062  0.3278 -0.4723  0.3677
43996SOL    HW149980   4.610   6.162   8.136  0.7095 -1.6511 -0.4494
43996SOL    HW249981   4.566   6.294   8.075 -0.8132 -1.4839  0.9285
43997SOL     OW49982  10.518  13.556   7.944  0.4620  0.2954 -0.7071
43997SOL    HW149983  10.581  13.552   7.872  1.0524  1.0810 -0.2407
43997SOL    HW249984  10.523  13.469   7.984  2.2780  0.7483  0.1728
43998SOL     OW49985   3.295   7.778  12.903  0.3025 -0.0189 -0.4215
43998SOL    HW149986   3.316   7.798  12.811 -0.8430  2.5636 -0.2066
43998SOL    HW249987   3.364   7.820  12.953  0.6366 -0.9844 -0.0457
43999SOL     OW49988   2.703   2.111  12.407 -0.2256 -0.7531 -0.0530
43999SOL    HW149989   2.764   2.089  12.477  0.2892 -1.0768 -0.5923
43999SOL    HW249990   2.707   2.036  12.348 -2.3155 -1.5247  0.6762
44000SOL     OW49991   5.170   6.591   7.498  0.2060 -0.4025  0.1458
44000SOL    HW149992   5.168   6.498   7.518  1.2324 -0.3413  0.6266
44000SOL    HW249993   5.215   6.597   7.414  1.0156 -0.2950  0.5718
44001SOL     OW49994   2.284   4.401   3.958  0.2138 -0.0152  0.1920
44001SOL    HW149995   2.231   4.386   4.035  1.1156  0.2221  0.8774
44001SOL    HW249996   2.344   4.472   3.983  2.5674 -1.9565  0.3476
44002SOL     OW49997  11.332   3.384  10.275 -0.2674 -0.1131 -0.3984
44002SOL    HW149998  11.370   3.306  10.316  0.6465  0.6054  0.1549
44002SOL    HW249999  11.374   3.390  10.190 -0.5611 -0.3861 -0.5654
44003SOL     OW50000  10.245   2.167   7.767  0.3946 -0.1891 -0.0441
44003SOL    HW150001  10.152   2.158   7.788 -0.0939  2.1579 -0.9589
44003SOL    HW250002  10.286   2.192   7.850  0.1208 -0.5596  0.2084
44004SOL     OW50003  12.529  10.068   9.951  0.3604  0.0914 -0.2104
44004SOL    HW150004  12.532  10.161   9.972  0.1615 -0.2447  1.4681
44004SOL    HW250005  12.545  10.024  10.035  0.2008 -1.3853 -0.9183
44005SOL     OW50006   8.458   5.691  13.820  0.0909 -0.3112  0.0872
44005SOL    HW150007   8.526   5.697  13.752  0.6869  0.9596  0.7561
44005SOL    HW250008   8.377   5.710  13.774  0.4488  0.1940 -0.3522
44006SOL     OW50009  10.805  13.259   8.704  0.0541  0.0555 -0.3145
44006SOL    HW150010  10.772  13.172   8.680  0.1868 -0.1314  0.1708
44006SOL    HW250011  10.881  13.241   8.759  1.0873  0.4844 -1.5605
44007SOL     OW50012   2.537   0.668   9.810 -0.2298  0.1397  0.0596
44007SOL    HW150013   2.591   0.598   9.845  2.1760  1.5239 -0.6178
44007SOL    HW250014   2.447   0.637   9.820  0.7077 -2.9606 -0.1483
44008SOL     OW50015   2.747  13.052   1.541  0.1195 -0.2755 -0.4643
44008SOL    HW150016   2.807  12.997   1.592  0.1867 -0.4352 -0.7162
44008SOL    HW250017   2.802  13.123   1.508 -0.3406  1.1382  1.5731
44009SOL     OW50018   2.863   7.958   3.890 -0.4435 -0.2956  0.8521
44009SOL    HW150019   2.856   7.883   3.831 -1.2716 -0.7301  1.4700
44009SOL    HW250020   2.811   7.933   3.966 -0.3522  0.7230  1.2676
44010SOL     OW50021   8.430   6.060   8.400  0.2606  0.5255  0.6907
44010SOL    HW150022   8.486   6.098   8.333 -0.0224  1.4532  0.9626
44010SOL    HW250023   8.486   6.052   8.477  0.5097 -0.2864  0.4437
44011SOL     OW50024  11.321  12.214   1.048  0.2387  0.3187 -0.7092
44011SOL    HW150025  11.410  12.242   1.066 -0.1372  1.2756 -0.2792
44011SOL    HW250026  11.266  12.279   1.092 -0.6841  0.5482 -2.1547
44012SOL     OW50027   8.777   9.655   3.747 -0.0798  0.3862 -1.3738
44012SOL    HW150028   8.793   9.570   3.787  0.7328  1.5272  0.8456
44012SOL    HW250029   8.861   9.701   3.752 -0.8520  1.8396 -1.1911
44013SOL     OW50030   7.811  13.449   6.295  0.1476 -0.5226  0.2552
44013SOL    HW150031   7.835  13.364   6.259 -0.2576 -0.2255 -0.7396
44013SOL    HW250032   7.804  13.433   6.390  3.4992 -0.7741  0.5734
44014SOL     OW50033  13.378  11.930  13.783  0.8909 -0.6468  0.2323
44014SOL    HW150034  13.449  11.872  13.809 -0.0711 -2.0959 -0.2700
44014SOL    HW250035  13.320  11.875  13.730 -0.0497  0.7802 -0.2787
44015SOL     OW50036  13.951   6.812   1.021 -0.4360  0.4463  0.0859
44015SOL    HW150037  13.956   6.865   1.101 -0.8860  0.6257  0.0005
44015SOL    HW250038  13.930   6.724   1.052 -0.2577  0.4396  0.1890
44016SOL     OW50039  12.422   9.966   3.797 -0.0653  0.2161  0.1986
44016SOL    HW150040  12.486  10.019   3.844  0.7861  0.0618 -0.7450
44016SOL    HW250041  12.340  10.015   3.805  0.4299  1.0300  0.4199
44017SOL     OW50042   0.709  10.556   1.589 -0.2901  0.5045 -0.0053
44017SOL    HW150043   0.687  10.649   1.585 -0.6453  0.3990 -0.6541
44017SOL    HW250044   0.637  10.516   1.637  0.1291  0.6373  0.7471
44018SOL     OW50045   5.634  11.470  11.533  0.5584 -0.6356 -0.3623
44018SOL    HW150046   5.619  11.397  11.473  0.0163 -0.9299  0.1161
44018SOL    HW250047   5.617  11.433  11.620 -0.2367  0.1998 -0.1566
44019SOL     OW50048  13.509   9.018   3.329 -0.1476  0.2480 -0.2338
44019SOL    HW150049  13.520   8.923   3.326  1.1409  0.3872 -0.4238
44019SOL    HW250050  13.465   9.035   3.413 -1.4008 -0.5900 -0.7020
44020SOL     OW50051   1.467   8.401   6.101  0.5672 -0.2595 -0.3048
44020SOL    HW150052   1.459   8.354   6.018  0.7069  0.3986 -0.6997
44020SOL    HW250053   1.501   8.487   6.077  0.0334  0.1536  0.3633
44021SOL     OW50054  12.486   1.745  13.315 -0.0379  0.0326  0.0875
44021SOL    HW150055  12.576   1.729  13.287 -0.2015 -0.3584 -0.2192
44021SOL    HW250056  12.472   1.685  13.389  0.4425  1.1708  1.1468
44022SOL     OW50057   4.045   2.706  13.606  0.3890 -0.2534 -0.7965
44022SOL    HW150058   3.996   2.787  13.596 -1.9746 -1.3699  0.6635
44022SOL    HW250059   3.979   2.637  13.593  1.2250 -1.8423  2.3227
44023SOL     OW50060   7.377  14.048   0.914  0.4009 -0.0978  0.1014
44023SOL    HW150061   7.353  13.992   0.840  1.3490 -0.9569  0.4268
44023SOL    HW250062   7.435  14.114   0.876  1.5009 -0.9899  0.1983
44024SOL     OW50063   5.641   6.682   6.792 -0.1244 -0.3393 -0.0638
44024SOL    HW150064   5.594   6.601   6.774 -2.5746  0.5183  1.8434
44024SOL    HW250065   5.627   6.698   6.885  0.0853  2.3562 -0.4114
44025SOL     OW50066  12.355  14.008   8.958 -0.3143  0.3665 -0.3588
44025SOL    HW150067  12.386  14.098   8.964  0.6955  0.0006  0.0938
44025SOL    HW250068  12.323  13.987   9.045  0.6900 -0.1339 -0.0936
44026SOL     OW50069   6.383  10.636   0.621  0.0841 -0.1921 -0.0582
44026SOL    HW150070   6.467  10.678   0.639 -0.1454  0.4227 -0.3804
44026SOL    HW250071   6.402  10.574   0.550  0.2214  0.1277 -0.3067
44027SOL     OW50072   9.650   3.253  11.215 -0.2088  0.4368  0.6774
44027SOL    HW150073   9.733   3.225  11.178 -1.0834  0.0726 -1.1390
44027SOL    HW250074   9.606   3.299  11.144 -1.2387  1.3388  1.8449
44028SOL     OW50075   5.248   7.342   9.560 -0.2849  0.1757  0.4301
44028SOL    HW150076   5.235   7.274   9.625 -0.1891  0.9705  1.2987
44028SOL    HW250077   5.244   7.296   9.476 -0.1073 -0.9110  0.9982
44029SOL     OW50078   7.253   2.395   4.031  0.1134 -0.0819 -0.4328
44029SOL    HW150079   7.321   2.363   4.090  0.4774 -0.3970 -1.0055
44029SOL    HW250080   7.296   2.398   3.945  0.1136  2.0047 -0.4032
44030SOL     OW50081  12.921   1.750   9.684 -0.3252  0.3292 -0.4172
44030SOL    HW150082  12.934   1.728   9.592  0.3726  2.2206 -0.8274
44030SOL    HW250083  12.843   1.806   9.685 -1.2435 -0.9057  0.3852
44031SOL     OW50084   1.405   1.760  11.458  0.8259 -0.3337 -0.3895
44031SOL    HW150085   1.397   1.775  11.552  1.7790 -2.1322  0.0143
44031SOL    HW250086   1.328   1.802  11.420  0.6868  0.8547  1.1258
44032SOL     OW50087   3.512   4.860  12.232 -0.7560  0.2085  0.3041
44032SOL    HW150088   3.447   4.911  12.183 -2.0147 -1.0705  0.5867
44032SOL    HW250089   3.472   4.845  12.317 -0.7538 -1.8496 -0.0102
44033SOL     OW50090   4.659   7.684   0.838 -0.2950 -0.4122 -0.3230
44033SOL    HW150091   4.668   7.664   0.931  0.9564  3.2518  0.5189
44033SOL    HW250092   4.567   7.711   0.829 -0.9604 -2.6108 -0.6700
44034SOL     OW50093  13.958   7.565   4.443 -0.1741 -0.4113  0.1887
44034SOL    HW150094  13.889   7.613   4.398  0.4368  1.2410  0.9420
44034SOL    HW250095  14.020   7.633   4.470  0.7565 -1.6508  1.2472
44035SOL     OW50096   2.442   1.544   7.111 -0.3564  0.1579 -0.6768
44035SOL    HW150097   2.501   1.617   7.093 -0.5833  0.8673  1.2684
44035SOL    HW250098   2.355   1.582   7.108 -0.4635  0.0494  0.5824
44036SOL     OW50099   1.429   0.029   1.834  0.1926  0.5904  0.6286
44036SOL    HW150100   1.517  -0.001   1.813 -0.0786 -1.0646  1.7514
44036SOL    HW250101   1.371  -0.033   1.790 -0.4526  1.8381 -0.3572
44037SOL     OW50102   9.312  12.408   4.939  0.2369  0.2210  0.1548
44037SOL    HW150103   9.325  12.472   4.869 -0.2898  0.3305  0.1523
44037SOL    HW250104   9.220  12.384   4.933  0.4580 -0.6473  0.0659
44038SOL     OW50105   7.246  13.205   2.842 -0.9472  0.4250  0.4874
44038SOL    HW150106   7.162  13.162   2.829 -0.2710 -0.2514 -2.3100
44038SOL    HW250107   7.255  13.264   2.767  2.2019 -1.5937 -0.9345
44039SOL     OW50108  12.669   0.462   4.795  0.3033 -0.3040 -0.3684
44039SOL    HW150109  12.735   0.407   4.836  0.1135 -0.4427 -0.2485
44039SOL    HW250110  12.664   0.540   4.851  1.9236  0.7060 -1.5646
44040SOL     OW50111  12.610   2.198  10.168 -0.5219  0.5834 -0.0272
44040SOL    HW150112  12.672   2.158  10.229 -2.5711 -0.0527  1.8203
44040SOL    HW250113  12.657   2.271  10.128  0.8344  1.3011  2.6783
44041SOL     OW50114  12.794   7.321  12.328  0.2652 -0.0932 -0.3735
44041SOL    HW150115  12.825   7.407  12.357  0.5827 -0.8252  1.5839
44041SOL    HW250116  12.699   7.327  12.334  0.3130 -0.1550  0.6989
44042SOL     OW50117   8.176  11.131   6.861  0.0664  0.4887 -0.1991
44042SOL    HW150118   8.086  11.103   6.843  0.1236  0.0379  0.1915
44042SOL    HW250119   8.207  11.069   6.928  0.5610  0.8323 -0.1092
44043SOL     OW50120  11.517   4.738   7.374  0.0059  0.1276  0.2701
44043SOL    HW150121  11.559   4.792   7.439 -1.4837  0.2675  1.1647
44043SOL    HW250122  11.496   4.656   7.420  0.8629 -0.6364 -0.6396
44044SOL     OW50123  11.146   3.449  11.849  0.8615 -0.5313 -0.0741
44044SOL    HW150124  11.067   3.440  11.795 -0.6196 -1.3405  2.0517
44044SOL    HW250125  11.153   3.543  11.867  0.5021 -0.4295 -0.4603
44045SOL     OW50126  12.086   4.514  13.412  0.2573  0.1696  0.2668
44045SOL    HW150127  12.028   4.575  13.365 -1.0980 -0.9070  0.4693
44045SOL    HW250128  12.127   4.567  13.480  0.1101  1.1328 -0.3748
44046SOL     OW50129  12.132  10.033  12.179  0.1113  0.0531 -0.0975
44046SOL    HW150130  12.063  10.096  12.160 -0.1621 -0.5445 -1.1260
44046SOL    HW250131  12.213  10.085  12.176 -0.1049  0.3581 -0.9901
44047SOL     OW50132   8.027   8.672   5.904  0.2668 -0.5843  0.0736
44047SOL    HW150133   8.041   8.736   5.973  0.7153 -0.0838 -0.4629
44047SOL    HW250134   8.112   8.631   5.891  0.1356 -0.8296 -0.0373
44048SOL     OW50135  13.052   4.835   2.609  1.2037 -0.2945  0.0861
44048SOL    HW150136  13.102   4.808   2.532  1.2616  1.7751 -0.6447
44048SOL    HW250137  12.974   4.878   2.573 -0.8899 -2.8482  1.1999
44049SOL     OW50138  12.182   8.359  10.685  0.7703 -0.4529 -0.2005
44049SOL    HW150139  12.151   8.353  10.595  1.8629 -2.0806 -0.5171
44049SOL    HW250140  12.188   8.453  10.702 -1.0615 -0.1036 -1.2181
44050SOL     OW50141   6.275   9.685   8.158 -0.6666 -0.3426 -0.2054
44050SOL    HW150142   6.222   9.765   8.162  0.8287  0.6971 -0.5384
44050SOL    HW250143   6.218   9.621   8.116 -1.5773  0.8227 -0.8020
44051SOL     OW50144   6.295   5.651   1.775  0.0511 -0.1259 -0.3470
44051SOL    HW150145   6.329   5.563   1.794  2.0366  0.3816 -1.2983
44051SOL    HW250146   6.272   5.648   1.682 -1.9238 -0.2342  0.1123
44052SOL     OW50147   8.265   3.321   6.944 -0.2253  0.1468  0.5659
44052SOL    HW150148   8.184   3.362   6.972  0.2102  1.5521 -0.1425
44052SOL    HW250149   8.287   3.260   7.014 -1.2391  0.6596  1.3459
44053SOL     OW50150  10.994   6.796   8.746 -0.3497  0.2364  0.4197
44053SOL    HW150151  11.031   6.711   8.768  0.9099  0.8893  0.8713
44053SOL    HW250152  11.007   6.803   8.651 -2.0185 -0.7780  0.0626
44054SOL     OW50153   5.474   2.594  11.514 -0.5164  0.5735 -0.4292
44054SOL    HW150154   5.569   2.601  11.503 -0.1488 -0.0334  1.8286
44054SOL    HW250155   5.459   2.502  11.536 -1.4448  0.9317  0.5493
44055SOL     OW50156   8.840  12.299   0.084  1.0644 -0.3714  0.1584
44055SOL    HW150157   8.877  12.385   0.103 -1.4936  0.8040  0.3592
44055SOL    HW250158   8.824  12.260   0.171  0.1605 -0.0461  0.1517
44056SOL     OW50159  13.280   0.200   7.844  0.1557  0.2567 -0.2450
44056SOL    HW150160  13.272   0.125   7.903 -0.1373  0.4905  0.0203
44056SOL    HW250161  13.193   0.241   7.846  0.5630  1.1073  0.3056
44057SOL     OW50162   4.155   4.718   2.584 -0.0415  0.1966 -0.2649
44057SOL    HW150163   4.234   4.718   2.638  0.0010 -0.6246 -0.3056
44057SOL    HW250164   4.159   4.800   2.535  1.2614 -0.2312 -0.9343
44058SOL     OW50165  12.359  10.132   9.532 -0.4732  0.4816  0.0864
44058SOL    HW150166  12.274  10.113   9.573  0.1669 -0.0863  1.1858
44058SOL    HW250167  12.394  10.205   9.582  0.2784 -0.1583  0.5049
44059SOL     OW50168  13.433   0.554   4.851 -1.3000  0.2789  0.1853
44059SOL    HW150169  13.384   0.562   4.933 -0.9373  0.6947  0.3630
44059SOL    HW250170  13.416   0.464   4.822 -0.5545 -0.2423  1.2783
44060SOL     OW50171   6.232  10.009   3.064  0.4158 -0.0895 -0.8675
44060SOL    HW150172   6.160  10.072   3.059 -2.2923 -2.8907 -0.6474
44060SOL    HW250173   6.214   9.947   2.993  1.2725 -2.1530  0.6387
44061SOL     OW50174   4.977   7.479   6.249 -0.1447  0.1850  0.6833
44061SOL    HW150175   5.032   7.401   6.254  0.3808  0.5684  1.0198
44061SOL    HW250176   4.958   7.489   6.156 -1.8526 -1.4517  0.8027
44062SOL     OW50177   2.194  10.121  12.527 -0.1892  0.0059 -0.7327
44062SOL    HW150178   2.258  10.102  12.459  1.2104 -1.5233  0.9141
44062SOL    HW250179   2.205  10.215  12.545  0.6356  0.0432 -1.3996
44063SOL     OW50180   9.516  11.417   3.600  0.2876  0.2013 -0.5294
44063SOL    HW150181   9.567  11.486   3.557  0.7817 -0.7605 -1.5522
44063SOL    HW250182   9.497  11.355   3.530  1.1973 -1.4863  0.6584
44064SOL     OW50183  12.445   4.939   3.633  0.3674  0.0564  0.3009
44064SOL    HW150184  12.445   4.933   3.728  1.2022  0.1473  0.3133
44064SOL    HW250185  12.537   4.928   3.608  0.0247 -1.1580 -0.5625
44065SOL     OW50186   2.255  10.876   0.080 -0.2692  0.0893 -0.2649
44065SOL    HW150187   2.347  10.859   0.100 -0.0364  1.5754  0.0352
44065SOL    HW250188   2.251  10.878  -0.015 -0.2926 -1.4534 -0.3117
44066SOL     OW50189  13.623   2.656   3.928  0.0141  0.5386  0.0534
44066SOL    HW150190  13.709   2.693   3.905 -0.1508  1.0150  0.1986
44066SOL    HW250191  13.634   2.623   4.017 -0.5076  2.4074  0.8499
44067SOL     OW50192   9.253  10.438   3.695 -0.4572 -0.3186  0.0938
44067SOL    HW150193   9.299  10.448   3.612  0.8693 -1.4050  0.6582
44067SOL    HW250194   9.311  10.478   3.759 -1.5312  0.6300  0.5174
44068SOL     OW50195   4.416   0.370   0.054  0.1587 -0.2810 -0.4683
44068SOL    HW150196   4.447   0.300  -0.004  0.8212  1.8095 -2.8564
44068SOL    HW250197   4.333   0.398   0.014  0.0507  0.4674  0.2654
44069SOL     OW50198   9.520  11.978   2.235 -0.1522  0.0761 -0.4750
44069SOL    HW150199   9.525  12.056   2.290 -0.0558  0.2665 -0.7481
44069SOL    HW250200   9.553  11.907   2.290  0.4056  0.3487 -0.4438
44070SOL     OW50201  13.721   2.006   2.323 -0.0262 -0.0492 -0.0157
44070SOL    HW150202  13.719   2.086   2.270  0.1178 -1.1138 -1.6684
44070SOL    HW250203  13.777   1.946   2.274 -0.4304 -1.3010  1.0224
44071SOL     OW50204   0.642   3.908  10.496  0.0441  0.2307  0.0192
44071SOL    HW150205   0.711   3.897  10.561 -0.2684  1.1080  0.5141
44071SOL    HW250206   0.683   3.883  10.413  0.7921  0.2203  0.3819
44072SOL     OW50207   4.721  10.865   9.973  0.3291  0.2449  0.6084
44072SOL    HW150208   4.686  10.783   9.940  0.5861  0.0189  0.8930
44072SOL    HW250209   4.807  10.873   9.932  1.4710 -0.9667  2.6123
44073SOL     OW50210   5.297  10.612   8.818 -0.1677 -0.0512  0.1259
44073SOL    HW150211   5.267  10.672   8.886 -1.3507  0.9330 -1.2042
44073SOL    HW250212   5.370  10.657   8.776 -0.0224 -0.2599  0.1484
44074SOL     OW50213   8.837   8.673   5.844 -0.4732 -0.1223  0.0826
44074SOL    HW150214   8.916   8.727   5.847 -2.0618  2.2827  0.8992
44074SOL    HW250215   8.825   8.654   5.751 -0.2410  1.5537 -0.3247
44075SOL     OW50216   1.808   8.389  14.027  0.7134  0.2953  0.1801
44075SOL    HW150217   1.890   8.414  13.985  0.4101  0.2363 -0.4720
44075SOL    HW250218   1.753   8.468  14.021 -0.1839 -0.4093 -1.7217
44076SOL     OW50219   4.652   7.836   5.516  0.1695  0.6016 -0.1449
44076SOL    HW150220   4.691   7.818   5.430  0.0941 -0.3439  0.0034
44076SOL    HW250221   4.727   7.859   5.572  0.2505  0.9378 -0.3877
44077SOL     OW50222   7.374   3.263   5.479  0.4023  0.1769 -0.9911
44077SOL    HW150223   7.346   3.243   5.390  1.5713  3.1241 -2.1695
44077SOL    HW250224   7.294   3.292   5.524 -0.2753 -1.7544 -0.8552
44078SOL     OW50225   1.485  13.399   3.013  0.0496 -0.3074 -0.2657
44078SOL    HW150226   1.575  13.424   3.030  0.1101 -0.7591  0.1062
44078SOL    HW250227   1.469  13.325   3.072 -0.3143 -0.7362 -0.8933
44079SOL     OW50228  11.822  11.007   8.716  0.4126  0.4224  0.1125
44079SOL    HW150229  11.735  11.033   8.687  0.4108  0.1790 -0.1037
44079SOL    HW250230  11.871  10.992   8.635  1.2115  2.3027  0.1870
44080SOL     OW50231   3.800   0.121  11.094  0.4778  0.1535 -1.0497
44080SOL    HW150232   3.754   0.073  11.163  0.0215  1.3317 -0.4980
44080SOL    HW250233   3.772   0.079  11.013 -0.5626 -0.0072 -0.6315
44081SOL     OW50234  10.442  10.349   1.915 -0.2269 -0.4394  0.3784
44081SOL    HW150235  10.373  10.286   1.934 -0.5644 -0.0708  0.3737
44081SOL    HW250236  10.431  10.418   1.980  0.2426 -0.4617  0.4867
44082SOL     OW50237  11.549   5.364   4.402 -0.0193  0.2997 -0.0014
44082SOL    HW150238  11.499   5.302   4.348  0.2781 -0.7220  0.8499
44082SOL    HW250239  11.488   5.435   4.420 -0.9781 -0.6084  0.4704
44083SOL     OW50240  10.709  11.196   1.532  0.2484  0.7811 -0.4539
44083SOL    HW150241  10.632  11.185   1.588  2.4406 -0.4930  2.5876
44083SOL    HW250242  10.725  11.109   1.495 -1.2535  1.6305 -3.4199
44084SOL     OW50243  12.793  10.193  13.729 -0.4322 -0.2953 -0.3859
44084SOL    HW150244  12.756  10.187  13.817  2.2810  0.7734  0.9413
44084SOL    HW250245  12.886  10.173  13.740  0.3924  1.7320 -2.6568
44085SOL     OW50246   5.006  10.824   1.411 -0.1346 -0.2419 -0.0433
44085SOL    HW150247   5.061  10.750   1.438  0.5375  0.0797 -0.4959
44085SOL    HW250248   4.917  10.794   1.426  0.1005 -1.3984 -0.8155
44086SOL     OW50249  10.145   4.101   5.832  0.2794 -0.8345 -0.9139
44086SOL    HW150250  10.165   4.195   5.840  0.5733 -0.9844  0.3631
44086SOL    HW250251  10.119   4.090   5.741  1.8797  0.1830 -1.5407
44087SOL     OW50252  12.937   1.698   1.580 -0.4533  0.3639  0.1889
44087SOL    HW150253  13.016   1.741   1.546 -0.6806  1.3345  0.8496
44087SOL    HW250254  12.865   1.743   1.535 -0.6434 -0.5969 -0.5022
44088SOL     OW50255   4.368   8.166   0.548  0.4938 -0.1008  0.2631
44088SOL    HW150256   4.385   8.140   0.457  1.8014  0.7211  0.2447
44088SOL    HW250257   4.273   8.173   0.554  0.3709 -0.5509 -0.9311
44089SOL     OW50258   3.371   6.316  11.332  0.2973 -0.0896 -0.3247
44089SOL    HW150259   3.455   6.361  11.346 -0.0526  0.7503 -0.8453
44089SOL    HW250260   3.387   6.257  11.259  0.6742 -0.6081  0.1629
44090SOL     OW50261  12.872   1.172   8.532 -0.1653 -0.2415 -0.2511
44090SOL    HW150262  12.797   1.176   8.591 -0.2078 -0.7031 -0.2697
44090SOL    HW250263  12.846   1.226   8.457 -2.4410 -3.8891 -2.4326
44091SOL     OW50264  12.834   6.578  11.997 -1.1456 -0.1421 -0.1919
44091SOL    HW150265  12.844   6.615  11.909 -0.5259  1.1336  0.3837
44091SOL    HW250266  12.885   6.637  12.053 -3.4846  0.5198  1.3901
44092SOL     OW50267   5.064   9.708   2.051 -0.5663  0.3827 -0.7676
44092SOL    HW150268   5.035   9.697   1.960 -2.9071  1.7163 -0.2690
44092SOL    HW250269   4.983   9.714   2.101  0.6672  0.2433  1.3654
44093SOL     OW50270   6.595   9.278   7.434 -0.2047  0.4136 -0.3194
44093SOL    HW150271   6.609   9.365   7.470  2.1155  1.3168 -3.0518
44093SOL    HW250272   6.515   9.285   7.382 -0.0173  0.9260 -0.5397
44094SOL     OW50273   8.375   3.715   3.650  0.3097 -0.4305  0.1944
44094SOL    HW150274   8.402   3.806   3.640  0.9055 -0.7191 -1.0457
44094SOL    HW250275   8.306   3.703   3.585  0.3516 -0.9049  0.2320
44095SOL     OW50276   8.918  10.782  11.426 -0.1299 -0.0274 -0.3787
44095SOL    HW150277   8.898  10.876  11.432  0.4595  0.0351  1.4278
44095SOL    HW250278   8.852  10.747  11.367  1.3429  1.9536 -3.4525
44096SOL     OW50279   8.991   6.837   6.833  0.0248  0.0135  0.0212
44096SOL    HW150280   9.035   6.829   6.918  0.5139 -1.8305 -0.3693
44096SOL    HW250281   9.032   6.771   6.778 -0.2972  1.1634 -1.6786
44097SOL     OW50282   5.497  12.302   4.868  0.2407 -0.0599  0.1201
44097SOL    HW150283   5.517  12.315   4.961 -1.8799  0.7615  0.5347
44097SOL    HW250284   5.537  12.218   4.846  2.2681  0.5212  1.2722
44098SOL     OW50285  13.847   4.573   1.765 -0.2127  0.1807  0.1662
44098SOL    HW150286  13.888   4.501   1.814 -1.3888 -1.2227 -0.8528
44098SOL    HW250287  13.765   4.590   1.812 -0.7621 -0.3414 -0.5929
44099SOL     OW50288   2.277  12.917   2.512  0.7073  0.3911  0.0089
44099SOL    HW150289   2.215  12.850   2.483  0.1412  1.1249 -0.5350
44099SOL    HW250290   2.322  12.879   2.587 -1.7353  0.5116  1.6342
44100SOL     OW50291  11.127   6.413   1.536 -0.1527 -0.2357 -0.3344
44100SOL    HW150292  11.176   6.340   1.496  1.5037 -0.0003  1.1399
44100SOL    HW250293  11.186   6.488   1.529 -0.9926  0.4723  0.0327
44101SOL     OW50294   3.169   6.510   5.206 -0.4093  0.0965 -0.3140
44101SOL    HW150295   3.126   6.486   5.124 -1.2019  0.2528  0.0432
44101SOL    HW250296   3.138   6.445   5.269  0.7408 -0.4435 -0.2848
44102SOL     OW50297   3.858   0.259   8.308  0.0727 -0.3081 -0.0964
44102SOL    HW150298   3.875   0.185   8.250 -0.7234 -1.3836  0.9932
44102SOL    HW250299   3.798   0.224   8.375 -1.4432  1.6668 -0.3262
44103SOL     OW50300   1.523   8.648   0.362 -0.7553  0.1583 -0.3674
44103SOL    HW150301   1.535   8.700   0.283  4.3653  0.6742  0.4094
44103SOL    HW250302   1.553   8.560   0.338 -0.0168  0.0909  0.7117
44104SOL     OW50303  12.289   4.735  13.147 -0.0979 -0.6931 -0.3988
44104SOL    HW150304  12.244   4.803  13.198  0.8164 -0.0268 -0.4635
44104SOL    HW250305  12.256   4.746  13.058 -0.7013 -0.9985 -0.2236
44105SOL     OW50306   5.305  12.749  11.616 -0.1073  0.4491  0.6872
44105SOL    HW150307   5.364  12.677  11.640 -0.5134  0.2195  0.9990
44105SOL    HW250308   5.332  12.822  11.672  1.9801  1.3754 -1.3343
44106SOL     OW50309   0.047  13.656   3.455 -0.1473  0.1530  0.4713
44106SOL    HW150310   0.059  13.647   3.549 -0.0145 -0.1197  0.4303
44106SOL    HW250311   0.127  13.619   3.417 -0.8819 -1.2301  0.2063
44107SOL     OW50312   6.047  13.782   8.534  0.2004  0.6414  0.4666
44107SOL    HW150313   6.105  13.856   8.552 -0.3258  1.2137 -0.1631
44107SOL    HW250314   6.105  13.715   8.496  0.4515  1.2323 -0.2215
44108SOL     OW50315   2.815   8.704   8.577 -0.8370  0.1814  0.1305
44108SOL    HW150316   2.843   8.614   8.592  0.1660  0.6185  1.0652
44108SOL    HW250317   2.853   8.728   8.492 -0.3841 -0.0149  0.2726
44109SOL     OW50318   9.968   0.130  11.026  0.1337 -0.2398 -0.2265
44109SOL    HW150319   9.958   0.115  11.120  0.4008 -0.4517 -0.2313
44109SOL    HW250320  10.022   0.208  11.020 -0.3032  0.0664 -0.2040
44110SOL     OW50321   2.305   7.031   8.442 -0.5719  0.0896 -0.5043
44110SOL    HW150322   2.312   7.039   8.537 -0.8829 -0.4866 -0.4289
44110SOL    HW250323   2.211   7.042   8.424 -0.3604  1.4765 -0.8770
44111SOL     OW50324  12.861  10.165  13.010 -0.3992 -0.0197 -0.1567
44111SOL    HW150325  12.953  10.149  13.035 -0.5543 -0.8503 -0.0838
44111SOL    HW250326  12.864  10.182  12.916  0.1342  2.6326  0.2817
44112SOL     OW50327   0.929   6.119   8.216 -0.3846  0.2044  0.4971
44112SOL    HW150328   0.874   6.047   8.248 -0.2959 -0.1475 -0.1275
44112SOL    HW250329   1.012   6.077   8.194  0.0954  0.7113  1.3048
44113SOL     OW50330   5.549  11.118   0.966 -0.0167  0.0704 -0.1065
44113SOL    HW150331   5.629  11.132   1.015  2.3812 -2.5250 -2.8239
44113SOL    HW250332   5.495  11.063   1.023  2.3487 -2.2777  0.0621
44114SOL     OW50333   2.792  11.985   7.551  0.7726  0.4260 -0.3731
44114SOL    HW150334   2.716  11.933   7.524  1.6647 -0.8389 -0.5206
44114SOL    HW250335   2.784  11.993   7.646 -1.2643  3.1252 -0.6292
44115SOL     OW50336   6.538   5.854  11.127 -0.3995 -0.5146  0.0885
44115SOL    HW150337   6.520   5.890  11.213  1.2756 -0.6262  0.5266
44115SOL    HW250338   6.629   5.823  11.132 -0.0249  0.0658 -1.9051
44116SOL     OW50339  13.130   1.615   6.412  0.4373  0.5317 -0.1866
44116SOL    HW150340  13.161   1.553   6.346  1.6782  0.5041  0.4061
44116SOL    HW250341  13.206   1.669   6.432  0.0757  0.5551  1.2037
44117SOL     OW50342   9.341  14.092  13.469 -0.7450  0.4341  0.1807
44117SOL    HW150343   9.274  14.133  13.526 -0.3702  0.8193  0.3499
44117SOL    HW250344   9.416  14.080  13.526  0.3571  2.6702 -0.6753
44118SOL     OW50345   3.896  11.824  11.418 -0.5668  0.3649  0.3793
44118SOL    HW150346   3.893  11.729  11.432 -1.0525  0.5754  1.9079
44118SOL    HW250347   3.977  11.839  11.370 -0.6070 -0.8377 -0.1000
44119SOL     OW50348  11.898  13.804   9.703 -0.4322  1.0157 -0.1339
44119SOL    HW150349  11.928  13.884   9.662 -0.5974  0.0706 -2.2287
44119SOL    HW250350  11.957  13.736   9.670  0.2177  0.3151  2.2100
44120SOL     OW50351  10.992   9.256  10.315 -0.4812  0.1209 -0.2988
44120SOL    HW150352  11.074   9.270  10.269  0.0404  1.9971  1.0754
44120SOL    HW250353  10.928   9.311  10.269  0.0557  2.0531  1.1332
44121SOL     OW50354  13.622   1.549   4.035 -0.8560 -0.4010  0.1422
44121SOL    HW150355  13.573   1.609   4.090 -0.2506 -0.5791  0.8935
44121SOL    HW250356  13.582   1.463   4.051 -0.4447 -0.5136  0.6035
44122SOL     OW50357   3.668   4.394  11.517  0.2555 -0.7085 -0.3695
44122SOL    HW150358   3.577   4.364  11.520 -0.4042  1.2476  0.4653
44122SOL    HW250359   3.663   4.486  11.493  1.9932 -0.4273  0.1546
44123SOL     OW50360   9.372   8.069  12.421  0.4934  0.2870  0.0147
44123SOL    HW150361   9.282   8.063  12.388  0.0271  2.2901  0.8266
44123SOL    HW250362   9.368   8.030  12.509  1.1806 -2.5957 -1.0997
44124SOL     OW50363   1.535   9.521   8.877 -0.0153  0.5499 -0.0415
44124SOL    HW150364   1.573   9.597   8.921  2.1045 -0.1287 -0.5783
44124SOL    HW250365   1.604   9.454   8.881 -1.3794 -0.9655 -0.6058
44125SOL     OW50366  12.839  14.064   6.004 -0.2550  0.0796  0.2086
44125SOL    HW150367  12.865  14.139   6.058  1.2025 -0.1692 -0.0995
44125SOL    HW250368  12.887  13.990   6.040 -1.6041 -0.7084  0.4458
44126SOL     OW50369   4.267   6.869   1.013 -0.0415  0.1538  0.0541
44126SOL    HW150370   4.220   6.948   0.985  0.4455 -0.3590 -2.3959
44126SOL    HW250371   4.208   6.797   0.989  0.2558 -0.3346  0.7433
44127SOL     OW50372   9.474   3.501  11.379  0.2451  0.6318  0.1591
44127SOL    HW150373   9.408   3.476  11.314  1.8151 -0.7077 -1.0174
44127SOL    HW250374   9.541   3.546  11.328 -0.0996  2.7058  1.4701
44128SOL     OW50375  13.259   4.106   7.063 -0.4617 -0.1800 -0.0199
44128SOL    HW150376  13.193   4.125   6.996 -1.0786 -0.4781  0.4854
44128SOL    HW250377  13.211   4.056   7.129 -0.2581  1.3514  1.3591
44129SOL     OW50378   4.270   8.355  10.841 -0.0211 -0.3863  0.2708
44129SOL    HW150379   4.240   8.280  10.788 -0.7415  0.5794 -0.7344
44129SOL    HW250380   4.357   8.374  10.807  0.3889 -1.0952  0.9005
44130SOL     OW50381  13.356  13.024   5.528  0.6369  0.0279  0.3092
44130SOL    HW150382  13.406  12.999   5.607  0.3345  1.0312  0.8394
44130SOL    HW250383  13.422  13.062   5.470  0.5443  1.3024  0.9881
44131SOL     OW50384   8.746  11.309  12.222 -0.0933  0.0354  0.2621
44131SOL    HW150385   8.838  11.282  12.215 -0.7568 -1.9360 -3.0057
44131SOL    HW250386   8.700  11.253  12.159 -3.7550  0.2352  2.4943
44132SOL     OW50387  13.983   4.461  13.040 -0.0377 -0.8634  0.2661
44132SOL    HW150388  13.972   4.372  13.072 -0.8579 -1.5406 -1.7163
44132SOL    HW250389  13.922   4.468  12.966  1.7641  0.4996 -1.2140
44133SOL     OW50390   6.289  10.152  13.689  0.3820 -0.6180  0.2079
44133SOL    HW150391   6.280  10.069  13.736  0.1243 -0.6327  0.1380
44133SOL    HW250392   6.237  10.139  13.610  1.7028 -0.9957 -0.6290
44134SOL     OW50393   8.954   7.770  12.699 -0.0205  0.6274 -0.0300
44134SOL    HW150394   9.013   7.712  12.747 -1.5201 -1.6850 -0.7840
44134SOL    HW250395   8.970   7.750  12.607 -2.2341 -0.4609 -0.2483
44135SOL     OW50396   7.622   4.672   8.376  0.3111  0.3958  0.3110
44135SOL    HW150397   7.665   4.649   8.294  0.3403  1.2586  0.0682
44135SOL    HW250398   7.685   4.650   8.444  2.1131  3.5849 -0.1413
44136SOL     OW50399   4.081   0.087   1.219 -0.2724 -0.2960  0.0050
44136SOL    HW150400   4.122   0.096   1.133 -2.7726  2.2379 -1.1286
44136SOL    HW250401   4.004   0.032   1.203 -1.4079  1.1328  0.2262
44137SOL     OW50402  13.536   1.388   6.620  0.9500 -0.7261 -0.2660
44137SOL    HW150403  13.584   1.404   6.701  0.9004 -2.2325  0.0902
44137SOL    HW250404  13.454   1.437   6.630  1.3000 -0.2325  0.2226
44138SOL     OW50405   7.922   0.069   0.856  0.2356  0.3289 -0.2362
44138SOL    HW150406   8.016   0.056   0.867  0.3775  1.4915  0.0738
44138SOL    HW250407   7.894  -0.002   0.798  1.2606 -0.1448 -0.1690
44139SOL     OW50408   8.160  10.938  11.499 -0.1954  0.4578 -0.1728
44139SOL    HW150409   8.092  10.886  11.540  0.3032 -0.2312 -0.2028
44139SOL    HW250410   8.209  10.876  11.445  0.8891  0.7852  0.4071
44140SOL     OW50411   7.746   6.223   1.040 -0.4612 -0.0297  0.2689
44140SOL    HW150412   7.699   6.207   0.959 -0.9434 -2.5769  0.9619
44140SOL    HW250413   7.837   6.200   1.020 -0.5211 -0.3455  0.3541
44141SOL     OW50414  10.073   2.608  11.435  0.0015  0.4230  0.1706
44141SOL    HW150415  10.104   2.655  11.357 -0.2091  1.4731  0.6941
44141SOL    HW250416  10.115   2.654  11.508 -1.1046  0.5174  0.7667
44142SOL     OW50417   5.951  13.842   8.802  0.4998  0.6966  0.1989
44142SOL    HW150418   6.013  13.854   8.730  0.7278  0.3271  0.3302
44142SOL    HW250419   5.943  13.748   8.811 -0.5931  0.7257 -0.2462
44143SOL     OW50420  13.274  10.855   9.445 -0.2222 -0.2250  0.1307
44143SOL    HW150421  13.188  10.818   9.422  0.4225 -1.4284 -0.4358
44143SOL    HW250422  13.336  10.805   9.393  0.8424  0.5664  0.6128
44144SOL     OW50423   7.307   0.169   3.002  0.0897  0.1152  0.1456
44144SOL    HW150424   7.384   0.132   2.960  0.1337  1.5864 -1.1370
44144SOL    HW250425   7.327   0.166   3.096  0.0935 -2.9631  0.1720
44145SOL     OW50426   6.452   8.788  10.333 -0.6144  0.4554 -0.2916
44145SOL    HW150427   6.404   8.816  10.411  1.1019  0.0563  0.9569
44145SOL    HW250428   6.483   8.869  10.293  1.0254  0.5757  1.1348
44146SOL     OW50429  12.782   4.954   3.968 -0.0734  0.0694  0.5271
44146SOL    HW150430  12.739   4.870   3.950 -0.4877  0.3913 -0.0080
44146SOL    HW250431  12.788   4.957   4.063 -2.6154  0.6713  0.7398
44147SOL     OW50432  11.137  13.083  12.977  0.3140 -0.3609  0.2515
44147SOL    HW150433  11.057  13.130  12.955  1.6711  0.3803 -4.2333
44147SOL    HW250434  11.168  13.124  13.058 -2.4271  1.1379  0.6491
44148SOL     OW50435   0.499   0.947   0.105 -0.6656 -0.2701  0.0225
44148SOL    HW150436   0.404   0.959   0.105 -0.6591 -0.1977 -0.3170
44148SOL    HW250437   0.533   1.021   0.155 -0.8643 -1.0039  1.2819
44149SOL     OW50438  13.902  11.182  12.215 -0.5148 -0.7850 -0.2310
44149SOL    HW150439  13.964  11.136  12.273 -0.2222 -1.1861 -0.8521
44149SOL    HW250440  13.867  11.113  12.159 -0.6534 -0.3681 -0.6603
44150SOL     OW50441   8.558  10.506   0.817 -0.9126  0.4255  0.3731
44150SOL    HW150442   8.599  10.575   0.765 -1.0746 -0.0802 -0.4425
44150SOL    HW250443   8.611  10.501   0.897 -1.2486  1.8848  0.7044
44151SOL     OW50444   9.024   7.023   3.250 -0.1924  0.4354  0.9360
44151SOL    HW150445   9.085   7.073   3.195 -0.0645 -0.8307 -0.1213
44151SOL    HW250446   9.079   6.958   3.294 -0.3935  1.0353  2.1304
44152SOL     OW50447   7.164   3.527   0.542 -0.0744 -0.6722  0.4152
44152SOL    HW150448   7.128   3.453   0.493 -2.0165  0.2830  0.3143
44152SOL    HW250449   7.169   3.598   0.478  0.5849 -0.3361  0.8195
44153SOL     OW50450  11.439   6.354   4.237  0.1933  0.4487  0.4909
44153SOL    HW150451  11.422   6.306   4.156 -0.2319  1.5456 -0.1024
44153SOL    HW250452  11.471   6.288   4.298 -0.5602 -0.6166 -0.2188
44154SOL     OW50453   0.513   1.050   7.315 -0.5131  0.3082  0.1390
44154SOL    HW150454   0.434   1.080   7.359 -1.5535  0.1929 -1.5630
44154SOL    HW250455   0.551   0.986   7.375 -3.4182 -2.0023 -0.2834
44155SOL     OW50456   8.050   9.552   0.534  0.5415 -0.0113  0.1950
44155SOL    HW150457   8.074   9.487   0.468  0.9493  0.4750 -0.1431
44155SOL    HW250458   8.001   9.503   0.599 -2.5840  0.0230 -1.9449
44156SOL     OW50459   7.443   2.476   6.454 -0.5681  0.0904 -0.0392
44156SOL    HW150460   7.477   2.531   6.525  1.1839 -1.1051  0.1308
44156SOL    HW250461   7.391   2.535   6.400 -2.6735  0.8703  2.6528
44157SOL     OW50462   4.220   5.418   5.025 -0.5447 -0.1369 -0.1992
44157SOL    HW150463   4.247   5.473   5.098 -1.0726  0.5795 -0.5214
44157SOL    HW250464   4.291   5.356   5.013 -0.4364 -0.2377  0.8940
44158SOL     OW50465  10.009   5.962   4.310 -0.3839  0.7123 -0.4034
44158SOL    HW150466   9.990   5.876   4.271  0.7875  0.3525 -0.2201
44158SOL    HW250467  10.087   5.992   4.263  0.6956  0.5468  1.2286
44159SOL     OW50468  13.851   8.886   3.581 -0.5074  0.2905  0.0109
44159SOL    HW150469  13.822   8.977   3.585  0.7104  0.6592  1.4086
44159SOL    HW250470  13.847   8.863   3.488 -0.9749  1.7068 -0.3393
44160SOL     OW50471  10.435  13.371  10.587  0.1888  0.2910  0.1312
44160SOL    HW150472  10.423  13.455  10.630  0.8535  0.4366  0.0532
44160SOL    HW250473  10.368  13.367  10.519  0.2810  0.8453  0.0080
44161SOL     OW50474   6.577   2.358  11.934  0.3713 -0.7902  0.4386
44161SOL    HW150475   6.624   2.423  11.881  0.3136 -0.5774  0.6497
44161SOL    HW250476   6.622   2.358  12.018  0.1722 -0.7987  0.5449
44162SOL     OW50477   5.256   7.157  13.022  0.0752 -0.2056  0.7699
44162SOL    HW150478   5.239   7.087  13.085 -0.2774  1.7126  2.9315
44162SOL    HW250479   5.320   7.213  13.065  3.0088 -0.8767 -2.2792
44163SOL     OW50480  12.681  11.445  11.068  0.3014  0.0896  0.0943
44163SOL    HW150481  12.714  11.463  11.156  0.4922  0.7233 -0.0980
44163SOL    HW250482  12.588  11.428  11.080  0.7646 -2.3758  0.7308
44164SOL     OW50483  12.116   0.782  13.950  0.1191  0.3472  0.2097
44164SOL    HW150484  12.047   0.719  13.972 -0.1950  0.8245  0.6091
44164SOL    HW250485  12.072   0.867  13.951  0.9856  0.8113  1.7642
44165SOL     OW50486  11.905   1.300   7.851 -0.1026 -0.7924  0.3231
44165SOL    HW150487  11.903   1.216   7.806  1.5942 -1.8024  1.9544
44165SOL    HW250488  11.895   1.278   7.944 -2.0557  1.0661  0.6327
44166SOL     OW50489  13.160  13.296   9.210  0.2422  0.0408 -0.8661
44166SOL    HW150490  13.208  13.317   9.130  2.6682 -2.1789 -0.1282
44166SOL    HW250491  13.123  13.209   9.194 -2.5572  1.1330 -0.8907
44167SOL     OW50492   7.514   2.464   8.919 -0.2608  0.1481  0.3053
44167SOL    HW150493   7.516   2.385   8.972  0.3263 -1.0845 -1.4595
44167SOL    HW250494   7.542   2.435   8.832 -2.4870  1.7762 -1.0606
44168SOL     OW50495  10.202   0.219   9.648  0.1455 -0.1412  0.0080
44168SOL    HW150496  10.134   0.165   9.687 -0.2437 -0.3739 -0.9452
44168SOL    HW250497  10.181   0.220   9.554  0.1144  1.7004 -0.0046
44169SOL     OW50498   7.177   2.188   1.455 -0.2039 -0.7108 -0.2625
44169SOL    HW150499   7.127   2.109   1.434  1.0494 -1.4857 -0.5005
44169SOL    HW250500   7.222   2.210   1.373  0.4440 -0.4976  0.1435
44170SOL     OW50501   3.828   1.409   6.026  0.4872  0.4622 -0.2805
44170SOL    HW150502   3.890   1.476   5.996  1.7150  0.0730  1.2751
44170SOL    HW250503   3.883   1.335   6.051 -0.7018 -0.3121  0.0944
44171SOL     OW50504  13.092   3.243  13.228  0.4733 -0.4018 -0.5884
44171SOL    HW150505  13.106   3.263  13.321  0.2060  0.9098 -0.8031
44171SOL    HW250506  13.177   3.213  13.197  1.1214  1.0655 -0.3531
44172SOL     OW50507  13.954   8.196   0.287  0.2544  0.6375 -0.0596
44172SOL    HW150508  13.897   8.149   0.226  1.2477 -0.3986 -0.2163
44172SOL    HW250509  13.963   8.283   0.249  1.7745 -0.3113 -2.0455
44173SOL     OW50510  10.585  10.737   7.987 -0.0653  0.1537  0.2917
44173SOL    HW150511  10.532  10.664   7.957 -0.0522  0.5743 -0.8318
44173SOL    HW250512  10.672  10.700   7.999  0.3124  0.2575 -1.7602
44174SOL     OW50513   9.412  11.221   2.254 -0.1443 -0.0817  0.2528
44174SOL    HW150514   9.332  11.271   2.240 -1.6122 -1.9168  1.6598
44174SOL    HW250515   9.398  11.140   2.205  1.4509  0.0914 -0.5536
44175SOL     OW50516   3.684   6.290   9.366  0.0220 -0.5463 -0.0524
44175SOL    HW150517   3.680   6.356   9.435 -1.0271 -0.1724 -0.4292
44175SOL    HW250518   3.759   6.315   9.313  0.2004 -0.2117  0.3542
44176SOL     OW50519   3.377   0.001  11.543 -0.1197 -0.4189 -0.5994
44176SOL    HW150520   3.372   0.073  11.606 -0.7218  0.5681 -1.7297
44176SOL    HW250521   3.466  -0.034  11.553 -0.1672 -0.2166  0.7007
44177SOL     OW50522  10.069   3.327   2.201 -0.2811  0.1643 -0.4313
44177SOL    HW150523  10.087   3.420   2.214  0.2353 -0.2416  2.4110
44177SOL    HW250524  10.149   3.292   2.164  0.6422  0.4016  1.2433
44178SOL     OW50525   7.042   4.487  13.058 -0.4031  0.7767  0.0288
44178SOL    HW150526   7.128   4.468  13.095 -0.2522 -0.6972 -0.9907
44178SOL    HW250527   6.998   4.540  13.125  0.6251 -0.0123  1.3763
44179SOL     OW50528   6.306   4.686   1.208  0.1494 -0.3910  1.0055
44179SOL    HW150529   6.358   4.669   1.286  1.3611  0.1190  0.3330
44179SOL    HW250530   6.282   4.778   1.214 -2.2251 -1.0109  2.1827
44180SOL     OW50531  10.427   5.283   3.967  0.7555 -0.1387  0.6978
44180SOL    HW150532  10.453   5.206   4.017  0.2699 -0.3733  0.5976
44180SOL    HW250533  10.363   5.327   4.023  1.8634  0.8087  1.2425
44181SOL     OW50534  12.315   1.483   4.983  0.5131  0.1351 -0.4408
44181SOL    HW150535  12.307   1.388   4.994  0.5416 -0.1798 -2.7165
44181SOL    HW250536  12.397   1.505   5.026  0.7359 -0.9405 -0.2860
44182SOL     OW50537   0.588   8.510   9.761 -0.2512 -0.4042 -0.0228
44182SOL    HW150538   0.589   8.605   9.750 -0.1548 -0.4249 -0.2095
44182SOL    HW250539   0.681   8.485   9.753 -0.2659 -0.5009  0.1239
44183SOL     OW50540   2.811  13.083   6.883 -0.5110  0.5982 -0.0034
44183SOL    HW150541   2.773  13.141   6.949 -0.0793  0.1494  0.6604
44183SOL    HW250542   2.855  13.015   6.934 -2.6814 -1.4926 -0.7005
44184SOL     OW50543  11.140   0.147   5.900 -0.1692 -0.3500  0.6013
44184SOL    HW150544  11.117   0.233   5.936  2.8542  0.3450  1.1548
44184SOL    HW250545  11.188   0.167   5.820 -0.2813 -1.5943  0.2072
44185SOL     OW50546   1.469  13.584   2.762 -0.1904  0.2218 -0.1197
44185SOL    HW150547   1.558  13.573   2.727 -0.2645 -0.5742 -0.0864
44185SOL    HW250548   1.458  13.508   2.820 -0.9207  0.2760 -0.1866
44186SOL     OW50549   9.548   8.272  13.176  0.0400  0.4953 -0.1785
44186SOL    HW150550   9.628   8.294  13.129  0.3452 -0.8371 -0.3297
44186SOL    HW250551   9.575   8.264  13.267 -0.1810  1.2807 -0.0423
44187SOL     OW50552   8.518   2.742  13.262  0.6900 -0.0613  0.4764
44187SOL    HW150553   8.514   2.827  13.306  0.5040  0.2760 -0.1785
44187SOL    HW250554   8.482   2.759  13.175 -0.0086 -0.9760  0.5826
44188SOL     OW50555   8.084   7.970   9.164 -0.0233 -0.0582  0.1458
44188SOL    HW150556   8.173   7.992   9.137 -0.4395  1.3094 -0.1805
44188SOL    HW250557   8.031   7.984   9.085 -0.5407 -0.8013  0.3528
44189SOL     OW50558   3.173  10.860   3.785 -0.4381  0.1768  0.3369
44189SOL    HW150559   3.176  10.955   3.794  0.2229  0.2939 -0.9268
44189SOL    HW250560   3.205  10.827   3.869  0.1124  1.0915  0.4984
44190SOL     OW50561  10.984   7.765   5.531  0.1989 -0.3270 -0.0195
44190SOL    HW150562  10.923   7.836   5.550  0.3157 -1.1849  4.5216
44190SOL    HW250563  10.931   7.685   5.535  0.6651 -0.7833 -1.8460
44191SOL     OW50564  10.654   3.441   9.391 -0.0991 -0.3026  0.4450
44191SOL    HW150565  10.641   3.422   9.298 -0.7792  1.0800  0.2454
44191SOL    HW250566  10.631   3.359   9.435  0.7902 -1.1599 -0.6181
44192SOL     OW50567   3.252   0.332  11.696  0.4317  0.5405 -0.0905
44192SOL    HW150568   3.290   0.398  11.754  0.4428  0.4678 -0.0146
44192SOL    HW250569   3.286   0.353  11.609  1.3110 -0.0250  0.1051
44193SOL     OW50570  13.870   8.609   1.453  0.5395 -0.5850 -0.2711
44193SOL    HW150571  13.788   8.655   1.468 -0.0427 -1.4285 -0.7858
44193SOL    HW250572  13.911   8.605   1.540  1.1565  1.8552 -0.3836
44194SOL     OW50573  10.967  11.851   7.150  0.4282  0.0784 -0.3606
44194SOL    HW150574  10.903  11.874   7.083 -1.2474  2.0603  1.7668
44194SOL    HW250575  10.922  11.867   7.233  3.3153  0.4908  1.2611
44195SOL     OW50576   8.066   7.860  11.560 -0.2994  0.6343 -0.3933
44195SOL    HW150577   8.150   7.857  11.513  0.8869  2.9304  1.3877
44195SOL    HW250578   8.061   7.776  11.605  1.0383  0.4235 -0.5898
44196SOL     OW50579   2.794   3.640   2.254 -0.0771 -0.0242 -0.0019
44196SOL    HW150580   2.780   3.587   2.175  0.1377  0.6441 -0.4929
44196SOL    HW250581   2.879   3.682   2.240 -0.7604  1.3634 -0.1455
44197SOL     OW50582   0.331  11.523  13.087 -0.0465 -0.0910  0.2155
44197SOL    HW150583   0.266  11.536  13.156  1.8054  0.7208  1.9175
44197SOL    HW250584   0.414  11.549  13.127  1.6009 -2.4981 -1.3423
44198SOL     OW50585   2.314   8.304  13.974 -0.2870  0.5762  0.2110
44198SOL    HW150586   2.219   8.317  13.970 -0.3953  0.2892  1.4393
44198SOL    HW250587   2.349   8.358  13.903 -1.3796  0.5191 -0.3909
44199SOL     OW50588  10.946  11.162  10.017 -0.3959  0.3105 -0.8738
44199SOL    HW150589  10.887  11.112   9.962  0.3037 -1.6994  0.1174
44199SOL    HW250590  10.962  11.106  10.093  1.6188  1.3832 -0.4225
44200SOL     OW50591   2.735   3.309   0.576 -0.3259  0.2989 -0.0786
44200SOL    HW150592   2.723   3.304   0.671 -0.6468  1.0930 -0.0703
44200SOL    HW250593   2.699   3.227   0.543  0.9969 -0.5999  0.5873
44201SOL     OW50594   0.656   9.739   3.239  0.1310 -0.2540 -0.0773
44201SOL    HW150595   0.657   9.732   3.335  0.0357  0.5873 -0.0112
44201SOL    HW250596   0.722   9.676   3.210 -0.0364 -0.7192  0.5270
44202SOL     OW50597  10.351  13.673   3.415  0.3702 -0.1710 -0.3668
44202SOL    HW150598  10.424  13.730   3.441  0.7230 -0.7987  0.0268
44202SOL    HW250599  10.326  13.627   3.496 -2.9880  2.7589  0.5428
44203SOL     OW50600   3.247   2.146   9.726  0.6088 -0.2062 -0.1809
44203SOL    HW150601   3.262   2.052   9.730  1.8706 -0.1051 -1.5425
44203SOL    HW250602   3.256   2.177   9.816 -1.4466 -1.5691  0.5578
44204SOL     OW50603   5.939   6.397   5.759 -0.0282 -0.2953 -0.1050
44204SOL    HW150604   5.914   6.488   5.745  1.5956  0.5613  1.9329
44204SOL    HW250605   5.960   6.392   5.852 -1.0052 -3.0354  0.0788
44205SOL     OW50606  12.174   9.068   1.872 -0.1553 -0.8094 -0.0277
44205SOL    HW150607  12.135   9.133   1.815 -0.8546 -1.1197  0.0839
44205SOL    HW250608  12.134   9.084   1.958 -2.9141 -3.3837 -0.6283
44206SOL     OW50609   8.066   9.434   1.979  0.5902 -0.4595 -0.0152
44206SOL    HW150610   8.014   9.389   2.045  1.4887 -0.1239  0.9435
44206SOL    HW250611   8.149   9.387   1.979  0.9438  0.1566 -0.2005
44207SOL     OW50612   7.734   7.692   5.898  0.6067  0.4204 -0.4263
44207SOL    HW150613   7.736   7.609   5.945  1.0760  1.4599  1.4714
44207SOL    HW250614   7.693   7.671   5.814 -1.3423 -1.2935  0.8646
44208SOL     OW50615   2.318  12.864   7.323  0.0205 -0.1544 -0.2570
44208SOL    HW150616   2.302  12.818   7.405  1.3130 -0.8101 -0.3396
44208SOL    HW250617   2.414  12.865   7.315 -0.0768  0.1382 -1.6059
44209SOL     OW50618   0.894   9.407   2.020 -0.5696  0.4877  0.5583
44209SOL    HW150619   0.884   9.488   2.070 -0.3847  1.6554 -1.2272
44209SOL    HW250620   0.840   9.419   1.943  1.2317 -0.1246 -0.8714
44210SOL     OW50621   2.943  11.987   3.918 -0.7052 -0.1621 -0.2833
44210SOL    HW150622   2.907  11.998   4.006 -3.0190  0.7448 -1.2532
44210SOL    HW250623   3.029  11.948   3.932 -0.6257  0.7534  2.4098
44211SOL     OW50624  12.440   7.045   6.445 -0.3809  0.0619 -0.0305
44211SOL    HW150625  12.408   7.136   6.448 -0.0195  0.1674  1.2123
44211SOL    HW250626  12.535   7.054   6.436 -0.2194 -0.1452  1.2171
44212SOL     OW50627   4.314   0.473  12.847 -0.2878 -0.2388  0.0539
44212SOL    HW150628   4.280   0.390  12.812 -0.7995  0.1201 -0.3108
44212SOL    HW250629   4.258   0.492  12.921 -0.3072 -0.1056  0.0046
44213SOL     OW50630   7.820   5.563  10.921 -0.7135 -0.4078  0.2545
44213SOL    HW150631   7.766   5.641  10.907  2.6603  1.8718 -1.6893
44213SOL    HW250632   7.843   5.566  11.014 -0.2485  1.3123  0.1268
44214SOL     OW50633  13.785   1.334   8.667 -0.0505  0.0551 -0.2412
44214SOL    HW150634  13.732   1.333   8.587 -0.2206 -0.4162 -0.1258
44214SOL    HW250635  13.859   1.391   8.645 -0.0005 -0.2159 -0.7951
44215SOL     OW50636  11.773   8.068   8.235 -0.0201 -0.6457  0.0870
44215SOL    HW150637  11.829   8.024   8.171  2.5846  2.5174 -0.0855
44215SOL    HW250638  11.834   8.108   8.297 -2.2405  0.8646  1.4437
44216SOL     OW50639   8.944   0.011  12.046 -0.0536  0.3872  0.4746
44216SOL    HW150640   8.849   0.011  12.058 -0.0101  1.1375  0.8991
44216SOL    HW250641   8.979   0.009  12.135  0.3201  0.9285  0.3427
44217SOL     OW50642   9.956   0.310   8.730 -0.2231  0.0981  0.0778
44217SOL    HW150643   9.969   0.344   8.642 -0.7893  0.5702  0.1767
44217SOL    HW250644  10.030   0.345   8.780  1.4806 -2.1248 -0.7366
44218SOL     OW50645  11.760   7.909  13.162 -0.0816 -0.1751  0.4343
44218SOL    HW150646  11.840   7.915  13.111 -1.3171  2.6139 -1.3772
44218SOL    HW250647  11.775   7.966  13.238 -0.0310 -0.3958  0.5917
44219SOL     OW50648   7.689   8.374   4.201  0.1178 -0.0578 -0.3839
44219SOL    HW150649   7.705   8.283   4.175  2.0261 -0.1871  0.9819
44219SOL    HW250650   7.767   8.421   4.172  0.0710  0.7225  0.6997
44220SOL     OW50651  11.942   8.092  11.929  0.2955  0.3359 -0.7304
44220SOL    HW150652  11.905   8.006  11.945  0.0390  0.5832  0.0174
44220SOL    HW250653  11.925   8.109  11.836  0.1854 -0.3345 -0.8343
44221SOL     OW50654  11.949   8.554  13.181  0.1503  0.0966  0.6478
44221SOL    HW150655  11.887   8.587  13.115  1.6842  0.0641 -0.8646
44221SOL    HW250656  12.009   8.628  13.196  0.3662 -0.2109  1.3285
44222SOL     OW50657  10.836  13.248  12.308  0.4365 -0.5875 -0.2727
44222SOL    HW150658  10.783  13.313  12.263  0.7839 -0.6360 -0.7701
44222SOL    HW250659  10.774  13.182  12.338 -0.0428  0.4504  1.1142
44223SOL     OW50660  11.231  10.947  12.600  1.0291  0.0251 -0.0313
44223SOL    HW150661  11.246  10.939  12.506  0.3028  1.2329 -0.2719
44223SOL    HW250662  11.292  10.884  12.640  1.1955 -0.6523 -1.3072
44224SOL     OW50663   3.186   5.577  13.505  0.4509 -0.2650  0.1835
44224SOL    HW150664   3.169   5.486  13.481 -1.4907 -0.4984  2.1006
44224SOL    HW250665   3.145   5.628  13.434  0.5452 -0.8746 -0.3201
44225SOL     OW50666   7.385   3.998   3.955 -0.6346  0.3918  0.4424
44225SOL    HW150667   7.433   4.033   4.031  0.4181  0.3595 -0.1902
44225SOL    HW250668   7.425   3.912   3.940  0.3121  1.0851 -1.1600
44226SOL     OW50669  13.407   7.116   6.965  0.5716  0.8384 -0.1904
44226SOL    HW150670  13.420   7.116   6.870 -0.5306  1.4915 -0.3632
44226SOL    HW250671  13.428   7.206   6.992  0.6281  0.7257  0.1526
44227SOL     OW50672   8.671   4.398  12.729  0.1215 -0.2506 -0.6331
44227SOL    HW150673   8.581   4.421  12.752  0.3262  0.8047 -0.8267
44227SOL    HW250674   8.671   4.303  12.725 -0.0638 -0.5974  3.3072
44228SOL     OW50675   3.285   9.847  13.458 -0.6949 -0.2196  0.6997
44228SOL    HW150676   3.240   9.931  13.467 -0.2943 -0.0975  1.8267
44228SOL    HW250677   3.377   9.869  13.474 -0.1841 -0.4406 -1.6519
44229SOL     OW50678   8.668  11.337   8.588 -0.6088  0.5485  0.4330
44229SOL    HW150679   8.757  11.308   8.565 -0.7130  0.6797 -0.1637
44229SOL    HW250680   8.661  11.322   8.682 -0.3102 -0.4359  0.3097
44230SOL     OW50681   0.275   4.059   6.664  0.6866  0.1229  0.1146
44230SOL    HW150682   0.276   3.971   6.624 -1.7092  0.0345  0.0945
44230SOL    HW250683   0.320   4.048   6.748  0.1973 -1.2104  0.2263
44231SOL     OW50684   9.428  11.310   5.669 -0.1217 -0.0445 -0.2266
44231SOL    HW150685   9.417  11.355   5.754 -0.5372 -0.4273 -0.0744
44231SOL    HW250686   9.510  11.345   5.635  0.9891 -1.1754  1.1451
44232SOL     OW50687   8.030   1.372  11.457  0.3099  0.2426  0.1616
44232SOL    HW150688   8.093   1.410  11.395  0.1374  0.5929  0.2011
44232SOL    HW250689   8.081   1.304  11.503  0.9346  1.1539  0.8508
44233SOL     OW50690   3.250   7.604  12.304  0.2427  0.4400 -0.1499
44233SOL    HW150691   3.342   7.619  12.282  0.5005 -1.8757 -0.9002
44233SOL    HW250692   3.206   7.601  12.219 -0.9956  3.6786  0.2476
44234SOL     OW50693   0.695   3.209   0.183 -0.4420  0.0922  0.3608
44234SOL    HW150694   0.777   3.160   0.185 -1.0857 -1.1652 -1.5166
44234SOL    HW250695   0.699   3.265   0.261  1.2650 -1.4114  1.4540
44235SOL     OW50696   0.028  10.813   4.325  0.2270 -0.5754 -0.3130
44235SOL    HW150697   0.094  10.878   4.349 -1.2602  0.1914  2.1493
44235SOL    HW250698   0.049  10.737   4.379 -0.1935 -0.7538 -0.4002
44236SOL     OW50699  14.115   0.522   3.930  0.3573 -0.3715  0.1164
44236SOL    HW150700  14.049   0.544   3.864 -0.6860 -1.3246  0.8312
44236SOL    HW250701  14.078   0.553   4.013  0.8176 -0.8922  0.5198
44237SOL     OW50702   2.125  10.375   7.794 -0.2605 -0.1940  0.0545
44237SOL    HW150703   2.191  10.436   7.760  0.4661 -1.0035 -0.0277
44237SOL    HW250704   2.060  10.431   7.835 -1.1056  0.8521 -2.5206
44238SOL     OW50705   3.893  13.912  10.612 -0.4655  0.5303  0.1848
44238SOL    HW150706   3.945  13.871  10.542 -0.6361  0.1026  0.3099
44238SOL    HW250707   3.896  13.850  10.684  0.7260  1.4956  1.0209
44239SOL     OW50708   2.276  10.507   5.648  0.3277 -0.4761  0.4338
44239SOL    HW150709   2.353  10.505   5.590  0.3611 -1.4833  0.5013
44239SOL    HW250710   2.204  10.476   5.593 -0.0333  0.4561  0.3754
44240SOL     OW50711   6.211   0.374   1.874 -0.2986  0.3362  0.0035
44240SOL    HW150712   6.275   0.303   1.865 -0.8131 -0.5701  2.6134
44240SOL    HW250713   6.217   0.422   1.792  1.6341 -1.4401 -0.9927
44241SOL     OW50714   8.166   6.543   5.382  0.4729 -0.1780  0.0018
44241SOL    HW150715   8.097   6.609   5.393  0.5067 -0.1447  0.0166
44241SOL    HW250716   8.139   6.470   5.438  1.1127  0.3641  1.0483
44242SOL     OW50717   0.350  11.622   4.330 -0.1184  0.6252  0.4319
44242SOL    HW150718   0.386  11.598   4.244 -1.0993  2.9357 -0.6927
44242SOL    HW250719   0.271  11.568   4.338 -0.0143  0.3795 -0.1173
44243SOL     OW50720   8.887  13.359  12.567 -0.1466  0.0693  0.3223
44243SOL    HW150721   8.853  13.364  12.478  1.5342 -0.8651 -0.4071
44243SOL    HW250722   8.846  13.281  12.605  0.0887 -0.2432 -0.0629
44244SOL     OW50723   9.218   6.325   8.907  0.0285 -0.0264  0.0656
44244SOL    HW150724   9.276   6.305   8.834  1.6618  0.6197  1.1217
44244SOL    HW250725   9.221   6.246   8.962  0.1938  0.1315  0.2870
44245SOL     OW50726   2.985   6.813  13.906 -0.2978 -0.1277 -0.2395
44245SOL    HW150727   2.889   6.810  13.899 -0.3538  0.3833  0.3100
44245SOL    HW250728   3.012   6.722  13.893 -0.8925 -0.3608  0.1116
44246SOL     OW50729   6.068  10.023   8.522  0.3820  0.2287  0.4936
44246SOL    HW150730   6.094  10.045   8.612  2.5382  1.7245 -0.4065
44246SOL    HW250731   6.077  10.105   8.474 -0.9707 -0.4884 -1.0569
44247SOL     OW50732   6.653   2.237   8.695  0.3330 -0.0384 -0.0796
44247SOL    HW150733   6.716   2.309   8.691  1.0712 -0.6638 -0.1235
44247SOL    HW250734   6.702   2.165   8.735 -0.2599 -0.6309 -0.3964
44248SOL     OW50735   2.951   0.015   5.668  0.1318 -0.1866 -0.7052
44248SOL    HW150736   3.026   0.037   5.612 -0.5229 -1.4546 -2.1535
44248SOL    HW250737   2.888   0.084   5.651  0.9244  0.8725  0.4985
44249SOL     OW50738   1.188  12.737   8.605 -0.2981 -0.1411  0.1422
44249SOL    HW150739   1.181  12.714   8.698 -1.9336 -1.3799 -0.2558
44249SOL    HW250740   1.170  12.656   8.558 -0.2019  0.6290 -1.2836
44250SOL     OW50741   1.027  10.885   1.947  0.2030 -0.1334  0.0320
44250SOL    HW150742   1.046  10.878   2.041  0.1734 -1.5688 -0.0482
44250SOL    HW250743   1.112  10.904   1.907  0.4188 -0.6124  0.2522
44251SOL     OW50744  13.052   3.560   0.438  0.0787  0.5536  0.2458
44251SOL    HW150745  13.077   3.641   0.482  0.8870  0.3398  0.1991
44251SOL    HW250746  13.108   3.493   0.478 -0.8628 -0.0634  0.5738
44252SOL     OW50747   9.461   6.861   9.476  0.0519 -0.6374  0.6742
44252SOL    HW150748   9.410   6.857   9.395  0.9273 -1.2100  0.1357
44252SOL    HW250749   9.533   6.799   9.463  0.4885 -0.3800  1.6995
44253SOL     OW50750   3.219   6.241   8.339 -0.0860 -0.5121 -0.4966
44253SOL    HW150751   3.169   6.304   8.391  1.1568  0.6699 -0.6888
44253SOL    HW250752   3.203   6.157   8.382 -0.9564  0.0834  0.3878
44254SOL     OW50753  10.967  10.393   8.963 -0.1847  0.0317  0.4601
44254SOL    HW150754  10.904  10.322   8.975 -0.1247 -0.5757 -2.2231
44254SOL    HW250755  10.914  10.473   8.964 -0.9236 -0.4125 -0.9083
44255SOL     OW50756   8.035  12.860  11.111  1.0098  0.5163 -0.1644
44255SOL    HW150757   8.113  12.910  11.085  0.6593  0.5298 -1.2147
44255SOL    HW250758   8.006  12.903  11.192  1.8055  0.8246 -0.0309
44256SOL     OW50759  12.596   2.339   1.562 -0.1184 -0.2557  0.7929
44256SOL    HW150760  12.634   2.251   1.563  1.8638  0.5621  1.2195
44256SOL    HW250761  12.622   2.377   1.646 -0.5233  0.9227  0.4005
44257SOL     OW50762   6.455  12.987  12.204 -0.0451 -0.2026  0.2112
44257SOL    HW150763   6.398  12.916  12.233  0.3356 -0.1682  1.0607
44257SOL    HW250764   6.471  12.969  12.111  0.1260 -1.2749  0.4429
44258SOL     OW50765   2.992   9.122   4.712  0.2489 -0.0068  0.0615
44258SOL    HW150766   2.918   9.072   4.677  0.9296 -0.6077 -0.5577
44258SOL    HW250767   2.967   9.143   4.801  1.2859 -4.4167  1.6335
44259SOL     OW50768   1.515  11.236  11.795 -0.2883  0.0792 -0.2891
44259SOL    HW150769   1.420  11.240  11.808 -0.1187  0.0303  1.0972
44259SOL    HW250770   1.535  11.142  11.795 -0.2974  0.0599 -1.2486
44260SOL     OW50771   4.039   4.568   8.749 -0.3625  0.4930 -0.0236
44260SOL    HW150772   4.079   4.641   8.798 -0.8437  0.0435  1.0787
44260SOL    HW250773   4.089   4.491   8.776 -1.5921  0.0062  0.9469
44261SOL     OW50774  12.527   7.552   3.933 -0.0854  0.1474 -0.2438
44261SOL    HW150775  12.540   7.478   3.992  0.9243  0.0512 -0.5667
44261SOL    HW250776  12.613   7.595   3.928 -0.3225  0.5570 -1.0913
44262SOL     OW50777  12.394  11.901   6.629  0.1005  0.5679 -0.0142
44262SOL    HW150778  12.433  11.987   6.613  4.1604 -0.9895  0.1289
44262SOL    HW250779  12.407  11.853   6.547 -2.6005  0.1571 -0.2815
44263SOL     OW50780   3.178   9.957   0.066  0.2696  0.3524  0.2174
44263SOL    HW150781   3.182  10.040   0.114 -1.8435  0.2685  0.6294
44263SOL    HW250782   3.134   9.979  -0.016  2.6245  0.2187 -1.1699
44264SOL     OW50783   3.486  11.677   4.750 -0.0962  0.5746 -0.2977
44264SOL    HW150784   3.559  11.669   4.688  1.2205  0.1406  1.2364
44264SOL    HW250785   3.528  11.690   4.835 -1.8278  0.4462  0.6295
44265SOL     OW50786  14.119   8.476   6.919 -0.0294  0.0271 -0.6099
44265SOL    HW150787  14.128   8.431   7.003 -1.5875 -1.6470 -1.2565
44265SOL    HW250788  14.035   8.523   6.926 -0.6706 -0.9201 -1.5165
44266SOL     OW50789   6.188   0.692   8.712 -0.5939 -0.1534 -0.3447
44266SOL    HW150790   6.203   0.785   8.730  1.0412 -0.3422 -0.6157
44266SOL    HW250791   6.094   0.679   8.730 -0.2987  0.9233  2.3999
44267SOL     OW50792  12.401  14.002  10.292  0.1498  0.0742 -0.8078
44267SOL    HW150793  12.431  14.037  10.208  1.3642  1.2653  0.0986
44267SOL    HW250794  12.451  13.922  10.305  2.0950  1.3752  0.0838
44268SOL     OW50795   3.046  11.837  13.857  0.3326 -0.3216  0.4026
44268SOL    HW150796   3.133  11.810  13.886  0.0945 -1.4209  0.1330
44268SOL    HW250797   3.038  11.800  13.769  0.3864  1.5397 -0.4317
44269SOL     OW50798   6.489   6.837  12.264  0.5810  0.2204 -0.3982
44269SOL    HW150799   6.482   6.907  12.199  0.2599  0.2292 -0.3561
44269SOL    HW250800   6.400   6.802  12.271  0.6093  0.2368  0.0545
44270SOL     OW50801   9.197   6.646   5.282 -0.2822  0.2562 -0.0979
44270SOL    HW150802   9.118   6.699   5.277 -0.9022 -0.6994 -0.6433
44270SOL    HW250803   9.214   6.618   5.192 -0.0903 -0.6482  0.2095
44271SOL     OW50804  13.829   1.956   4.812 -0.6307 -0.2753 -0.3036
44271SOL    HW150805  13.762   1.888   4.804 -1.8856  0.9767 -1.0435
44271SOL    HW250806  13.799   2.026   4.754  0.7594  0.8033  0.2050
44272SOL     OW50807   5.166   9.851  13.766 -0.3433  0.0414 -0.1619
44272SOL    HW150808   5.241   9.822  13.715 -0.4418 -0.4925 -0.0035
44272SOL    HW250809   5.143   9.776  13.821 -0.5221  0.4594  0.3375
44273SOL     OW50810   1.845   5.557   0.730  0.1807  0.0116 -0.4588
44273SOL    HW150811   1.783   5.610   0.680  1.2825  0.4713 -1.3889
44273SOL    HW250812   1.847   5.598   0.816  1.4070  1.8823 -1.3058
44274SOL     OW50813  13.511   6.699   9.763  0.0528  0.1985 -0.1732
44274SOL    HW150814  13.469   6.669   9.683  0.8133  0.7708 -0.8015
44274SOL    HW250815  13.603   6.711   9.739  0.0265  1.7271  0.3857
44275SOL     OW50816   8.837   3.273   2.560  0.0321  0.2513 -0.0658
44275SOL    HW150817   8.931   3.285   2.543  0.3187 -0.6201  0.8631
44275SOL    HW250818   8.803   3.235   2.479  0.8095 -0.9967  0.1696
44276SOL     OW50819   5.800   2.109  13.108  0.3083 -0.1281  0.2556
44276SOL    HW150820   5.778   2.016  13.120 -0.2385 -0.1806 -0.9494
44276SOL    HW250821   5.739   2.155  13.166 -0.1365 -0.4870  0.0885
44277SOL     OW50822  11.734   7.460  11.842  0.0442  0.9880 -0.0735
44277SOL    HW150823  11.780   7.451  11.758 -1.4976 -0.8328 -0.8102
44277SOL    HW250824  11.653   7.506  11.820  0.2105  1.6317  0.6569
44278SOL     OW50825  10.549   6.186   7.096  0.1294 -0.6196 -0.5599
44278SOL    HW150826  10.525   6.139   7.176  1.5288 -0.8178 -0.2371
44278SOL    HW250827  10.470   6.236   7.074 -0.4920 -1.0404  0.5817
44279SOL     OW50828  11.692   3.067   5.450  0.3623  0.3983 -0.5856
44279SOL    HW150829  11.728   3.085   5.364  0.3343 -0.5777 -0.8175
44279SOL    HW250830  11.625   3.135   5.463  2.2868  2.2992 -0.1026
44280SOL     OW50831  12.188   3.065  12.877  0.0318 -0.0793 -0.4884
44280SOL    HW150832  12.106   3.029  12.844 -0.4723  0.4487  0.1417
44280SOL    HW250833  12.162   3.117  12.953  0.7822  1.1670 -1.0426
44281SOL     OW50834  12.135   7.926   4.882 -0.0045 -0.3939 -0.2583
44281SOL    HW150835  12.145   8.020   4.900  0.0148 -0.5183  0.3746
44281SOL    HW250836  12.059   7.921   4.824  1.1958  0.2027 -1.9660
44282SOL     OW50837   9.161   3.567  11.712  0.3615 -0.2984 -0.1409
44282SOL    HW150838   9.192   3.657  11.721  2.2086 -1.0777  2.5343
44282SOL    HW250839   9.240   3.516  11.696 -0.4756 -1.6003 -0.2094
44283SOL     OW50840   4.366   8.664  10.016 -0.1258  0.2942  0.0726
44283SOL    HW150841   4.387   8.622  10.099 -0.6807 -1.3111 -0.5569
44283SOL    HW250842   4.385   8.757  10.030  1.0173 -0.1313  1.5694
44284SOL     OW50843   3.446  11.208   8.121 -0.0426  0.3013 -0.2776
44284SOL    HW150844   3.533  11.243   8.100  0.2502 -0.9963 -1.3562
44284SOL    HW250845   3.444  11.122   8.079 -1.3159 -0.3176  0.9756
44285SOL     OW50846   2.194   9.042   6.665  0.1912  0.0234  0.2523
44285SOL    HW150847   2.229   9.127   6.690  0.9846 -0.6169  1.4211
44285SOL    HW250848   2.107   9.061   6.631  1.2643  1.5684 -1.8533
44286SOL     OW50849   9.331   9.766  11.516  0.5506 -0.0089 -0.1601
44286SOL    HW150850   9.357   9.676  11.499 -0.6847 -0.2730 -0.7749
44286SOL    HW250851   9.312   9.803  11.430 -2.4432 -0.3065  0.2392
44287SOL     OW50852  12.107   7.616   1.006  0.2685 -0.8555  0.1493
44287SOL    HW150853  12.166   7.674   0.958  0.3839 -1.5071 -0.5054
44287SOL    HW250854  12.166   7.554   1.050  0.1100 -0.8953  0.3070
44288SOL     OW50855   7.592   2.626  13.570  0.2319 -0.1859  0.6542
44288SOL    HW150856   7.594   2.689  13.642  2.3940  0.3781  0.1981
44288SOL    HW250857   7.666   2.568  13.588  0.1461 -0.6950 -0.5377
44289SOL     OW50858   8.867   6.326   4.617 -0.3873 -0.3198  0.6106
44289SOL    HW150859   8.944   6.382   4.610 -0.4277 -0.2730  0.5371
44289SOL    HW250860   8.903   6.238   4.630 -0.1790 -0.8843 -2.7367
44290SOL     OW50861   0.409   5.123  11.393 -0.0244 -0.2572  0.1624
44290SOL    HW150862   0.357   5.107  11.314 -0.0433 -1.2916  0.3657
44290SOL    HW250863   0.377   5.059  11.456  0.6444 -0.0741  0.6968
44291SOL     OW50864  10.554   0.706   5.861 -0.6453 -0.4570 -0.2605
44291SOL    HW150865  10.644   0.694   5.891 -1.1997 -1.0535  1.2622
44291SOL    HW250866  10.511   0.623   5.881 -1.9311  0.3748  0.5300
44292SOL     OW50867   5.996  13.289   6.718  0.3680  0.3670  0.1720
44292SOL    HW150868   6.050  13.359   6.755 -0.2342  0.9480 -0.0343
44292SOL    HW250869   6.037  13.270   6.633  2.4416 -1.7570  1.5170
44293SOL     OW50870   8.535  11.004   8.678 -0.2199  0.0106 -0.2864
44293SOL    HW150871   8.615  10.961   8.708  0.0229  1.0031  0.5778
44293SOL    HW250872   8.524  10.975   8.588  0.9466 -0.3870 -0.3180
44294SOL     OW50873   3.399   4.372  13.228  0.4364 -0.8864 -0.0159
44294SOL    HW150874   3.458   4.303  13.257  0.0018 -2.3815 -2.4039
44294SOL    HW250875   3.319   4.326  13.203 -1.0478  0.8729  1.2821
44295SOL     OW50876  12.273   2.937  12.073  0.4179  0.1432 -0.2657
44295SOL    HW150877  12.290   2.885  11.994 -0.8207 -1.2623  0.3664
44295SOL    HW250878  12.178   2.939  12.081  0.5115  0.6634  0.9598
44296SOL     OW50879   3.183   7.500  12.941 -0.3679 -0.1543  0.5300
44296SOL    HW150880   3.200   7.590  12.967 -2.5008  0.8571 -1.2750
44296SOL    HW250881   3.229   7.491  12.857 -1.5622 -0.1397 -0.1502
44297SOL     OW50882   7.252   7.531   0.327  0.0625 -0.2940 -0.1465
44297SOL    HW150883   7.326   7.551   0.384  0.9427 -0.5139 -1.1689
44297SOL    HW250884   7.178   7.579   0.364  0.0087 -2.1742  2.4776
44298SOL     OW50885   7.813   7.739   9.842 -0.0896 -0.5469 -0.0209
44298SOL    HW150886   7.825   7.833   9.853  0.2440 -0.6555  0.5751
44298SOL    HW250887   7.894   7.709   9.801 -0.7710 -0.3624 -1.5804
44299SOL     OW50888   0.500   1.692   9.078  0.0924  0.7368  0.3374
44299SOL    HW150889   0.441   1.753   9.122  0.4339  0.2233  1.5447
44299SOL    HW250890   0.557   1.660   9.148  1.9334  1.3566 -0.8103
44300SOL     OW50891   3.708  11.257   4.264 -0.2860  0.3130  0.3088
44300SOL    HW150892   3.681  11.252   4.173  1.5560 -0.9393 -0.2357
44300SOL    HW250893   3.633  11.224   4.314 -0.3345 -1.6947 -0.9884
44301SOL     OW50894   0.815   2.685   4.262  0.3324 -0.1973  0.1642
44301SOL    HW150895   0.853   2.714   4.180 -1.2396  1.3538 -0.0610
44301SOL    HW250896   0.847   2.747   4.327  3.5783 -2.8004  1.3267
44302SOL     OW50897   6.996  10.230  11.140 -0.2578 -0.2257  0.0736
44302SOL    HW150898   6.949  10.306  11.175 -1.8474 -1.1485  0.0566
44302SOL    HW250899   6.981  10.234  11.046  0.4892 -0.0360 -0.0428
44303SOL     OW50900   2.630   4.120   9.138 -0.0251  0.7023 -0.5420
44303SOL    HW150901   2.587   4.137   9.222 -0.6468 -0.4178 -0.6216
44303SOL    HW250902   2.585   4.177   9.076  0.1835  1.2571 -0.1893
44304SOL     OW50903  12.400  12.603  11.334  0.2849 -0.4726  0.3878
44304SOL    HW150904  12.431  12.522  11.374  1.1581  0.3647  1.4920
44304SOL    HW250905  12.323  12.627  11.386 -0.6638 -1.1636 -0.6620
44305SOL     OW50906   5.383   9.753   7.881 -0.7016  0.5162  0.7367
44305SOL    HW150907   5.304   9.786   7.924 -1.4695 -1.7181  1.1293
44305SOL    HW250908   5.430   9.706   7.950 -1.1785 -1.7768 -0.4019
44306SOL     OW50909   4.537   7.603   1.484 -0.5766  0.0860 -0.1321
44306SOL    HW150910   4.573   7.529   1.533  0.1559 -0.4275 -1.3910
44306SOL    HW250911   4.602   7.672   1.494 -0.6225  0.1185 -0.0545
44307SOL     OW50912   7.096   8.524   3.607 -0.7886 -0.4403 -0.2049
44307SOL    HW150913   7.123   8.503   3.517 -1.7949 -1.4568 -0.3027
44307SOL    HW250914   7.160   8.480   3.662  1.5016  2.4622 -0.3430
44308SOL     OW50915  13.601   4.634   3.223  0.2596 -0.3823  0.1493
44308SOL    HW150916  13.608   4.575   3.149 -2.2785 -0.7579  0.1190
44308SOL    HW250917  13.561   4.581   3.292  0.2399  0.6448  0.9559
44309SOL     OW50918   5.642   4.696  10.904  0.0434 -0.2517  0.1302
44309SOL    HW150919   5.616   4.736  10.821  0.9221 -1.0409 -0.5484
44309SOL    HW250920   5.720   4.744  10.930  0.0961 -0.3761  0.2023
44310SOL     OW50921   7.039   0.682   9.111  0.0495 -0.0816  0.6590
44310SOL    HW150922   7.117   0.659   9.059 -0.2332  0.2186  0.0845
44310SOL    HW250923   6.975   0.709   9.045 -0.3443  0.2347  1.1715
44311SOL     OW50924   5.282  14.100   4.431  0.2744  0.3653  0.2952
44311SOL    HW150925   5.313  14.011   4.412 -0.0633  0.4127 -0.5308
44311SOL    HW250926   5.354  14.141   4.478  1.6494  0.5898 -1.8913
44312SOL     OW50927   1.826   8.816  13.303 -0.1337 -0.3279  0.1566
44312SOL    HW150928   1.769   8.741  13.320 -0.1554 -0.2219  0.5377
44312SOL    HW250929   1.870   8.832  13.386  0.7707 -0.6797 -0.2395
44313SOL     OW50930   2.220   8.176   1.175  0.5243 -0.0429  0.1548
44313SOL    HW150931   2.145   8.132   1.215  0.5324  0.4140  0.6859
44313SOL    HW250932   2.221   8.145   1.085 -1.9757  2.0027 -0.7022
44314SOL     OW50933   8.902  12.134  10.019  0.9366  0.4283 -0.9132
44314SOL    HW150934   8.810  12.129  10.046  0.9765 -0.3833 -0.9053
44314SOL    HW250935   8.915  12.225   9.995  0.2989  0.6900 -0.2998
44315SOL     OW50936  10.646  10.737  12.783  0.1885 -0.4150 -0.3403
44315SOL    HW150937  10.654  10.817  12.732 -0.4522  0.5763  1.0562
44315SOL    HW250938  10.560  10.701  12.757  0.5847 -0.8121 -1.1502
44316SOL     OW50939   4.668  10.021  10.344  0.2473  0.0276 -0.5153
44316SOL    HW150940   4.580  10.051  10.364 -0.4805 -0.7374 -2.3752
44316SOL    HW250941   4.695  10.075  10.269  0.1474 -1.7487 -1.8878
44317SOL     OW50942   0.526   2.818  10.496  0.4230  0.0480 -0.1058
44317SOL    HW150943   0.517   2.904  10.453 -0.0877  0.1511  0.1928
44317SOL    HW250944   0.613   2.788  10.471  0.5497  0.5864 -0.3425
44318SOL     OW50945  11.998   5.757   3.290 -0.0275 -0.1075  0.0003
44318SOL    HW150946  11.960   5.697   3.355 -0.6287 -0.7815 -0.9359
44318SOL    HW250947  12.002   5.705   3.209 -1.6279  1.4429 -1.1495
44319SOL     OW50948  13.593   3.021   3.220 -0.0635 -0.3285  0.0387
44319SOL    HW150949  13.686   3.003   3.211  0.2264  0.7258  0.7756
44319SOL    HW250950  13.557   3.006   3.133  1.0734  0.8976 -0.6709
44320SOL     OW50951   2.002   1.468   7.521  0.0841 -0.2399  0.1967
44320SOL    HW150952   1.911   1.475   7.494 -0.0647  1.4655  0.9906
44320SOL    HW250953   2.002   1.401   7.589 -0.2901 -1.3581 -0.8792
44321SOL     OW50954   4.238   6.181  13.760  0.7270 -0.1411  0.9260
44321SOL    HW150955   4.255   6.126  13.684 -3.1940 -1.5122  0.8222
44321SOL    HW250956   4.219   6.268  13.724  0.3950 -0.3996  0.4830
44322SOL     OW50957  11.365   8.416  13.166  0.3199  0.2010  0.5522
44322SOL    HW150958  11.451   8.404  13.207  1.0880 -0.7213 -1.2454
44322SOL    HW250959  11.329   8.328  13.157  0.3714  0.3094 -1.0937
44323SOL     OW50960  13.941   1.512  11.856  0.0708 -0.2196 -0.2518
44323SOL    HW150961  13.945   1.481  11.947 -0.1313  1.0225  0.2038
44323SOL    HW250962  13.875   1.456  11.815  0.4776 -1.0837  0.2439
44324SOL     OW50963   3.519  11.919   0.876  0.6598  0.1849 -0.1085
44324SOL    HW150964   3.520  12.012   0.897 -0.3065  0.1470  0.1202
44324SOL    HW250965   3.463  11.912   0.798  0.3731 -0.2581  0.1361
44325SOL     OW50966   9.562   7.773  10.964 -0.1758  0.0194  0.2470
44325SOL    HW150967   9.550   7.772  11.059 -0.0901 -0.9693  0.2579
44325SOL    HW250968   9.614   7.852  10.948 -1.8239  1.2702  0.7988
44326SOL     OW50969   1.563   8.726  13.348  0.2685 -0.3299 -0.2853
44326SOL    HW150970   1.474   8.701  13.326  0.2698 -1.4122  0.8637
44326SOL    HW250971   1.555   8.773  13.432  0.5351  1.5975 -1.2747
44327SOL     OW50972  10.212   5.362   5.268  0.5760 -0.0323 -0.1614
44327SOL    HW150973  10.232   5.307   5.191 -0.3512 -0.0913 -0.3649
44327SOL    HW250974  10.271   5.329   5.336  2.8909  1.3324 -1.3614
44328SOL     OW50975   0.066  13.700  11.400  0.1220 -0.4449  0.1985
44328SOL    HW150976   0.132  13.705  11.331  0.2216 -0.6839  0.2740
44328SOL    HW250977   0.000  13.766  11.376 -0.3395 -1.1953 -0.6420
44329SOL     OW50978   8.162   4.777   3.906 -0.3975  0.0319  0.4093
44329SOL    HW150979   8.152   4.870   3.929 -0.4444  0.0314  0.3905
44329SOL    HW250980   8.223   4.778   3.832 -3.2345  0.3638 -2.1242
44330SOL     OW50981  10.275   3.929   4.627  0.0840  0.0997  0.0912
44330SOL    HW150982  10.358   3.956   4.667  1.0317 -2.1256 -0.1839
44330SOL    HW250983  10.301   3.875   4.552 -1.4160 -3.7763  2.0853
44331SOL     OW50984  10.293   7.208   9.207 -0.2835 -0.3196  0.0604
44331SOL    HW150985  10.248   7.173   9.130  0.5631 -2.3311  0.4269
44331SOL    HW250986  10.228   7.267   9.247 -1.4240 -0.7055 -1.1382
44332SOL     OW50987  13.392   0.165  11.835 -0.7019 -0.0756 -0.0994
44332SOL    HW150988  13.402   0.116  11.917  0.7644 -0.0157 -0.2262
44332SOL    HW250989  13.481   0.185  11.807 -1.1823  0.0744 -1.6230
44333SOL     OW50990   6.175   4.321   9.847 -0.2543 -0.1893 -0.0756
44333SOL    HW150991   6.085   4.294   9.867 -0.4107 -0.2298 -0.8082
44333SOL    HW250992   6.197   4.275   9.766  0.1909  0.3356 -0.2629
44334SOL     OW50993  13.275  11.395   2.010 -0.3626  0.7812  0.5978
44334SOL    HW150994  13.215  11.333   1.969 -0.5301  0.0459  1.9061
44334SOL    HW250995  13.357  11.346   2.019  0.0532  1.3498  0.0279
44335SOL     OW50996  10.535   6.558   6.918  0.7035 -0.3990 -0.3410
44335SOL    HW150997  10.456   6.504   6.913 -0.7451  1.2407  2.1531
44335SOL    HW250998  10.592   6.512   6.980  0.3387 -0.1302  0.2120
44336SOL     OW50999   1.324  12.126   8.270 -0.5784  0.2398 -0.2142
44336SOL    HW151000   1.304  12.207   8.224 -2.5098  0.6800  1.2752
44336SOL    HW251001   1.267  12.060   8.229  0.5411 -0.2757 -1.0084
44337SOL     OW51002  10.033   4.025   9.920  0.1153  0.5545 -0.3232
44337SOL    HW151003  10.077   3.958   9.867 -1.4005  0.5721 -1.6924
44337SOL    HW251004  10.069   4.108   9.888  0.8366  0.4913  0.2797
44338SOL     OW51005   4.294   2.936  11.280 -0.2931 -0.0718  0.2925
44338SOL    HW151006   4.323   2.931  11.371 -0.0981 -0.6347  0.2035
44338SOL    HW251007   4.371   2.913  11.228 -0.3860  0.3014 -0.0197
44339SOL     OW51008   0.828   3.859  10.295  0.4428 -0.2158  0.3105
44339SOL    HW151009   0.833   3.832  10.203  1.8002 -0.4678  0.4373
44339SOL    HW251010   0.901   3.813  10.338 -0.4878 -0.5123  1.6289
44340SOL     OW51011  10.313  12.854   9.425 -0.2392 -0.3565  0.2283
44340SOL    HW151012  10.244  12.910   9.462 -1.0943 -0.7370 -0.7379
44340SOL    HW251013  10.319  12.781   9.487 -1.9016 -1.1633 -0.5007
44341SOL     OW51014   7.375   4.016   7.046  0.2005 -0.5731  0.2986
44341SOL    HW151015   7.281   4.015   7.031  0.1402  1.5106  0.2128
44341SOL    HW251016   7.393   3.936   7.095 -1.7867 -0.4888  1.2631
44342SOL     OW51017   9.489   1.025  13.305 -0.5040 -0.8088 -0.2205
44342SOL    HW151018   9.513   1.091  13.370 -3.0474  0.1280 -0.1243
44342SOL    HW251019   9.412   0.982  13.342 -1.2530 -1.1193 -2.0442
44343SOL     OW51020   9.230   1.666   0.280 -0.2902  0.3553 -0.4789
44343SOL    HW151021   9.187   1.713   0.209  0.0986  0.2314 -0.7973
44343SOL    HW251022   9.320   1.654   0.250  0.1519  1.1844  0.4398
44344SOL     OW51023   6.845  11.703  14.069  0.4469  0.7193  0.2007
44344SOL    HW151024   6.796  11.621  14.072  0.5313  0.6911  1.2503
44344SOL    HW251025   6.927  11.680  14.026  0.1975  0.4159 -0.1272
44345SOL     OW51026   7.390  13.276   3.449  0.0201  0.3134  0.4137
44345SOL    HW151027   7.425  13.365   3.460  0.1224  0.5559 -1.5194
44345SOL    HW251028   7.467  13.219   3.453  0.5459  0.7134 -2.2941
44346SOL     OW51029   6.903  11.087   0.436 -0.6719 -0.3584  0.4804
44346SOL    HW151030   6.886  11.071   0.529 -1.0844 -2.3722  0.1167
44346SOL    HW251031   6.978  11.032   0.416 -0.9924 -0.4452 -0.5131
44347SOL     OW51032   5.794   6.607  13.481  0.6538  0.2016  0.2617
44347SOL    HW151033   5.817   6.547  13.411 -2.1693  0.9784 -1.5003
44347SOL    HW251034   5.727   6.560  13.532 -2.2129  1.9132 -1.6279
44348SOL     OW51035   4.543  12.603  11.610  0.0624 -0.3409 -0.3343
44348SOL    HW151036   4.493  12.661  11.552  0.4226  0.5706  0.2506
44348SOL    HW251037   4.635  12.620  11.587  0.2662  0.7191  1.1044
44349SOL     OW51038   7.802   7.529   1.378 -0.8974 -0.3777  0.1120
44349SOL    HW151039   7.719   7.500   1.416 -2.3092  1.7230 -1.1756
44349SOL    HW251040   7.842   7.582   1.447 -1.1176 -0.5469  0.3741
44350SOL     OW51041   0.815  13.735   0.770 -0.4220  0.0845  0.3647
44350SOL    HW151042   0.860  13.655   0.796 -0.8483 -0.7452 -1.3168
44350SOL    HW251043   0.878  13.780   0.713 -0.9449 -0.0812 -0.3546
44351SOL     OW51044  13.650   9.883   9.277 -0.1738 -0.3181 -0.0630
44351SOL    HW151045  13.580   9.944   9.253 -1.1289 -1.3958 -0.1365
44351SOL    HW251046  13.693   9.923   9.352 -0.8511  0.3920 -0.0448
44352SOL     OW51047   0.044  12.502  11.708 -0.6590  0.1963 -0.1694
44352SOL    HW151048   0.127  12.548  11.707 -0.6183  0.1549 -2.2835
44352SOL    HW251049   0.055  12.435  11.776 -0.1613  2.1877  1.8396
44353SOL     OW51050  12.296  12.391   9.873  0.2937  0.0866  0.0266
44353SOL    HW151051  12.317  12.299   9.888 -2.3785 -0.7467 -0.9078
44353SOL    HW251052  12.247  12.418   9.951 -2.0421 -0.4065 -1.1784
44354SOL     OW51053   1.783   5.236   2.623 -0.0633  0.3133  0.3186
44354SOL    HW151054   1.736   5.203   2.546  1.5998  1.0873 -1.1136
44354SOL    HW251055   1.835   5.162   2.653 -0.4841  0.0930  0.5063
44355SOL     OW51056   5.119   4.789   1.014  0.2845 -0.2867  0.3584
44355SOL    HW151057   5.039   4.739   0.997  0.0014  0.1677  0.3305
44355SOL    HW251058   5.108   4.822   1.103  0.3934 -0.1347  0.3144
44356SOL     OW51059  11.295   4.624   8.183  0.1217  0.8320  0.3865
44356SOL    HW151060  11.337   4.539   8.195 -1.4754  0.2475  2.3307
44356SOL    HW251061  11.304   4.642   8.090  1.1004 -1.1239  0.0494
44357SOL     OW51062   7.447   0.037  11.281  0.1992  0.4334  0.5972
44357SOL    HW151063   7.446   0.120  11.330  0.4389  0.7350  0.1024
44357SOL    HW251064   7.382  -0.018  11.325 -0.2627  1.0340  0.6782
44358SOL     OW51065   7.053  11.422  12.812  0.7780 -0.1606  0.0776
44358SOL    HW151066   6.964  11.452  12.832  0.7454  0.3758 -0.8239
44358SOL    HW251067   7.042  11.362  12.738  1.1369 -0.2934  0.1316
44359SOL     OW51068   8.881   3.999  13.931  0.1421 -0.3644  0.6891
44359SOL    HW151069   8.911   4.089  13.919  0.5763 -0.5642  0.2674
44359SOL    HW251070   8.904   3.955  13.849  0.2020 -0.9307  1.0084
44360SOL     OW51071   1.009   0.541   3.814 -0.0180  0.0396 -0.3235
44360SOL    HW151072   0.971   0.543   3.902  0.1309 -0.5018 -0.2445
44360SOL    HW251073   1.064   0.463   3.813 -1.2211 -0.8440 -1.3957
44361SOL     OW51074   7.119  12.215  13.897 -0.3655  0.2500  0.0255
44361SOL    HW151075   7.051  12.161  13.938  0.0821 -0.0290  0.4201
44361SOL    HW251076   7.190  12.154  13.880 -0.5988  0.3357 -1.3298
44362SOL     OW51077   3.713   5.524   7.134  0.2585 -0.0944 -0.1217
44362SOL    HW151078   3.702   5.572   7.216 -0.5130 -1.3093  0.5119
44362SOL    HW251079   3.628   5.533   7.090  0.2981 -0.3864 -0.2627
44363SOL     OW51080   0.453   4.292   6.431 -0.0119  0.5499  0.1537
44363SOL    HW151081   0.442   4.383   6.459  0.4826  0.8311 -0.5298
44363SOL    HW251082   0.518   4.296   6.361  2.1705 -0.6512  1.9673
44364SOL     OW51083   8.629   5.661   7.420 -0.1267  0.2005 -0.1232
44364SOL    HW151084   8.633   5.678   7.515 -1.3972  1.7839 -0.3244
44364SOL    HW251085   8.544   5.619   7.407  0.6468 -1.3710 -0.4152
44365SOL     OW51086   6.145  12.228   2.311  0.5219  0.2871 -0.0118
44365SOL    HW151087   6.145  12.146   2.360  2.5081  0.5934  0.5803
44365SOL    HW251088   6.066  12.274   2.341 -0.1155 -0.9858  0.3387
44366SOL     OW51089   6.759   8.335   2.910 -0.5371 -0.4098  0.1660
44366SOL    HW151090   6.787   8.314   2.999 -0.6855 -0.9528  0.0913
44366SOL    HW251091   6.786   8.425   2.897  1.6070 -1.0403 -0.0861
44367SOL     OW51092   1.516  12.080   2.017  0.0072 -0.3593 -0.0348
44367SOL    HW151093   1.429  12.092   2.054  0.7302 -1.1889  2.1803
44367SOL    HW251094   1.531  11.985   2.022  1.0259 -0.2308 -0.3693
44368SOL     OW51095   7.854  11.521   2.350 -0.0284  0.2317  0.3749
44368SOL    HW151096   7.931  11.549   2.401 -0.1136 -1.4287  1.5058
44368SOL    HW251097   7.829  11.599   2.300  2.0063  0.9962  0.4444
44369SOL     OW51098   4.815   6.655   7.996 -0.7014 -0.1467  0.2670
44369SOL    HW151099   4.875   6.581   7.987 -0.4070  0.1929 -0.7447
44369SOL    HW251100   4.778   6.646   8.084  1.8418  0.3672  1.5001
44370SOL     OW51101  13.448   2.125   6.205  0.3372 -0.1332  0.0516
44370SOL    HW151102  13.528   2.176   6.213 -0.1431  0.5349  0.8328
44370SOL    HW251103  13.378   2.189   6.218 -0.4190 -0.3055 -2.5824
44371SOL     OW51104  11.992  11.821   1.472 -0.3535  0.1171 -0.7557
44371SOL    HW151105  12.058  11.772   1.522  0.1371  2.6961  1.3282
44371SOL    HW251106  12.027  11.822   1.383  0.4217 -1.8398 -0.5338
44372SOL     OW51107  12.983   6.678  13.778  0.4679  0.6801 -0.5379
44372SOL    HW151108  12.980   6.719  13.865 -2.4688  0.0365 -0.2257
44372SOL    HW251109  12.911   6.719  13.730  0.1629 -1.0362 -1.6344
44373SOL     OW51110   2.166  12.581   4.831 -0.8560  0.2197  0.0086
44373SOL    HW151111   2.197  12.603   4.919 -0.3843 -0.6158  0.0625
44373SOL    HW251112   2.189  12.657   4.778 -1.0077  0.6676  0.5719
44374SOL     OW51113   5.009   3.820   7.565  0.3864  0.0663 -0.0141
44374SOL    HW151114   5.080   3.880   7.590  0.2446 -0.2441  1.2177
44374SOL    HW251115   5.047   3.732   7.576 -0.3461 -0.1212  1.2670
44375SOL     OW51116   6.893   2.691   9.957  0.3381  0.0947  0.3980
44375SOL    HW151117   6.940   2.613   9.929 -0.5365  0.2840 -1.8101
44375SOL    HW251118   6.801   2.664   9.960  0.0688  0.9312 -0.0458
44376SOL     OW51119  11.769   4.000   0.665 -0.2385  0.0520 -0.4504
44376SOL    HW151120  11.758   4.044   0.581  0.7866 -0.7123 -1.0168
44376SOL    HW251121  11.863   4.002   0.681 -0.3523 -0.4268  0.3325
44377SOL     OW51122   7.273   2.600   4.381 -0.7826  0.1277  0.1910
44377SOL    HW151123   7.261   2.682   4.335  0.4112 -0.0686 -0.5031
44377SOL    HW251124   7.359   2.608   4.423 -0.4463 -0.9253 -0.2602
44378SOL     OW51125  12.705   6.915   1.497 -0.3820 -0.4131  0.6777
44378SOL    HW151126  12.701   6.823   1.469  1.5662 -0.4374  0.3305
44378SOL    HW251127  12.777   6.953   1.445 -0.9425  1.2334  1.0327
44379SOL     OW51128   2.849   4.344   1.774 -0.2396 -0.2848 -0.3057
44379SOL    HW151129   2.793   4.270   1.751 -0.4883 -1.2952  3.0114
44379SOL    HW251130   2.937   4.308   1.776 -0.1777 -0.1304 -0.1655
44380SOL     OW51131   2.522   0.601  10.201 -0.0533  0.6353  0.2334
44380SOL    HW151132   2.599   0.558  10.163  0.1621 -0.0199  1.3638
44380SOL    HW251133   2.449   0.545  10.177 -0.3750  1.8496 -1.8056
44381SOL     OW51134   2.504   9.647   3.389  0.0615 -0.8198 -0.5373
44381SOL    HW151135   2.550   9.691   3.318 -0.3449 -0.6321 -0.6884
44381SOL    HW251136   2.483   9.718   3.451 -1.6510 -0.5814 -1.3453
44382SOL     OW51137   7.275   0.186   8.665  0.2087 -0.0999  0.3357
44382SOL    HW151138   7.317   0.249   8.606 -0.3926 -0.5214 -0.5824
44382SOL    HW251139   7.313   0.203   8.751 -1.5540  3.0697  0.6308
44383SOL     OW51140   6.618   2.624  12.770 -0.2732 -0.0641 -0.0543
44383SOL    HW151141   6.538   2.591  12.811 -0.3436 -0.4636 -0.4986
44383SOL    HW251142   6.634   2.564  12.698  0.6769 -0.2463  0.2942
44384SOL     OW51143   4.623   2.049   2.956  0.4759  0.1719 -0.0990
44384SOL    HW151144   4.594   2.133   2.991 -2.3160 -0.5268 -0.4518
44384SOL    HW251145   4.611   2.057   2.861  0.6518 -0.4472 -0.1786
44385SOL     OW51146   1.048   7.222  12.498  0.1542  0.5442  0.2783
44385SOL    HW151147   1.034   7.273  12.418 -1.0926  0.0095  0.1407
44385SOL    HW251148   1.116   7.159  12.474 -1.1081 -0.4569 -0.7734
44386SOL     OW51149   5.027  10.735   7.482 -0.4049  0.5894  0.2061
44386SOL    HW151150   5.019  10.709   7.391  0.5453  1.7110 -0.2177
44386SOL    HW251151   5.000  10.827   7.484 -1.2075  0.3617  1.2172
44387SOL     OW51152  11.271   0.358   7.532  0.5145  0.1340  0.1231
44387SOL    HW151153  11.191   0.334   7.579 -0.3998  1.7016 -0.5393
44387SOL    HW251154  11.267   0.307   7.450 -1.4249  2.3431 -1.2913
44388SOL     OW51155  13.604   1.981   3.297 -0.2607 -0.0360  0.2010
44388SOL    HW151156  13.601   2.057   3.355 -0.8889 -0.0940  0.2531
44388SOL    HW251157  13.651   2.012   3.219  3.0576 -0.6895  1.7520
44389SOL     OW51158   4.972   9.601   2.756  0.0028 -0.2571 -0.2143
44389SOL    HW151159   5.009   9.613   2.843  1.9826  0.4204 -1.0912
44389SOL    HW251160   5.030   9.650   2.698 -0.8741 -1.2323 -2.0096
44390SOL     OW51161  13.873   3.809   3.073 -0.3765  0.1772  0.1531
44390SOL    HW151162  13.874   3.715   3.090 -0.7369  0.1166 -0.1479
44390SOL    HW251163  13.963   3.837   3.088 -0.2650 -0.2168  0.2293
44391SOL     OW51164   1.598   6.122  11.693  0.0396 -0.5460 -0.1561
44391SOL    HW151165   1.612   6.165  11.778 -0.7981 -2.7699  1.1903
44391SOL    HW251166   1.674   6.148  11.641  1.9533 -1.0808  2.1534
44392SOL     OW51167  11.603   4.631   2.910  0.2710  0.5422 -0.0257
44392SOL    HW151168  11.683   4.580   2.924  0.0258  0.3502  0.7366
44392SOL    HW251169  11.617   4.712   2.958 -0.2229  0.2618  0.6054
44393SOL     OW51170   8.330  11.182  13.664  0.6013  0.1569 -0.8240
44393SOL    HW151171   8.361  11.094  13.686  0.6225  0.1850 -0.7397
44393SOL    HW251172   8.244  11.168  13.625 -0.9718  0.3241  2.2684
44394SOL     OW51173   5.246   6.558   2.979  0.0584  0.3896  0.2747
44394SOL    HW151174   5.166   6.506   2.989 -0.4020  1.3132  1.6721
44394SOL    HW251175   5.245   6.586   2.888 -1.1994  0.3728  0.2612
44395SOL     OW51176   6.177   3.713   2.842 -0.2807 -0.0124 -0.3346
44395SOL    HW151177   6.272   3.703   2.835 -0.0692  0.8856  0.9234
44395SOL    HW251178   6.162   3.807   2.840 -1.0307 -0.0875  0.6205
44396SOL     OW51179   1.219   7.006   6.830  0.5751 -0.2505 -0.4495
44396SOL    HW151180   1.171   6.985   6.750 -0.5121 -0.0330  0.1236
44396SOL    HW251181   1.204   6.931   6.887 -0.3511  0.4777  0.2898
44397SOL     OW51182   1.756   1.253  10.439 -0.3592  0.3986 -0.0691
44397SOL    HW151183   1.760   1.158  10.423 -2.2028  0.0872  1.0934
44397SOL    HW251184   1.692   1.285  10.375  0.7233  1.0126 -0.8935
44398SOL     OW51185   8.273   8.433   0.955  0.3778  0.2820 -0.0521
44398SOL    HW151186   8.267   8.337   0.962  1.8168  0.2898  4.0476
44398SOL    HW251187   8.366   8.451   0.949  0.1585  1.4696 -0.1588
44399SOL     OW51188  10.869  14.130  12.448 -0.1377 -0.3106 -0.6738
44399SOL    HW151189  10.807  14.083  12.504  1.1375 -2.4096 -0.8845
44399SOL    HW251190  10.948  14.075  12.450  1.7159  2.1771 -0.4692
44400SOL     OW51191  11.911  11.502  13.832  0.1280  0.4381 -0.1943
44400SOL    HW151192  11.846  11.552  13.782 -0.9084  1.2786  1.8495
44400SOL    HW251193  11.990  11.556  13.829 -0.1848  0.9007 -0.2191
44401SOL     OW51194   8.078  14.144   6.841  0.1049  0.0119 -0.3052
44401SOL    HW151195   8.042  14.136   6.753  0.4204  0.3555 -0.4705
44401SOL    HW251196   8.003  14.140   6.899  0.0036 -1.6052 -0.5056
44402SOL     OW51197  11.161   3.705   2.389  0.0698  0.1842  0.5089
44402SOL    HW151198  11.219   3.781   2.393  0.6134 -0.2782  1.7542
44402SOL    HW251199  11.185   3.662   2.307  0.1932  0.9916  0.1021
44403SOL     OW51200  11.481   9.123  10.829  0.2778  0.2530  0.0130
44403SOL    HW151201  11.394   9.140  10.865 -0.0385 -0.9316 -0.1358
44403SOL    HW251202  11.514   9.209  10.803 -0.7811  0.7380  0.2255
44404SOL     OW51203   5.441  12.023   5.220  0.6233 -0.8502 -0.1273
44404SOL    HW151204   5.451  12.086   5.291  0.1879  0.1742 -0.9359
44404SOL    HW251205   5.398  11.948   5.260 -0.2468 -0.0122  0.5527
44405SOL     OW51206  11.976   4.217  11.708  0.2227 -0.3868  0.0372
44405SOL    HW151207  11.957   4.308  11.732 -1.1088 -0.4701 -0.5927
44405SOL    HW251208  12.060   4.221  11.663  1.0722  0.2579  1.6183
44406SOL     OW51209  13.622   4.135  10.167 -0.3608  0.4066  0.0451
44406SOL    HW151210  13.543   4.148  10.115 -0.7341  0.3284  0.5909
44406SOL    HW251211  13.611   4.193  10.242  0.6517  1.3095 -0.4778
44407SOL     OW51212   5.547   7.215   5.739  0.0733 -1.4139  0.0611
44407SOL    HW151213   5.469   7.255   5.701  0.8323 -1.6575 -1.8796
44407SOL    HW251214   5.528   7.121   5.740  0.1592 -1.4312  0.0760
44408SOL     OW51215   2.017   6.682  14.125 -0.6383 -0.1676  0.6608
44408SOL    HW151216   1.966   6.748  14.077  0.2775  0.4502  0.4968
44408SOL    HW251217   2.033   6.613  14.061 -0.7408 -0.0688  0.5287
44409SOL     OW51218   3.657  11.525   1.279 -0.5048  0.4450 -0.0213
44409SOL    HW151219   3.693  11.613   1.272 -0.2788  0.3482 -0.0941
44409SOL    HW251220   3.709  11.473   1.218 -1.0955  0.4032 -0.4958
44410SOL     OW51221   9.513   0.866  10.943 -0.2517  0.3051 -0.3956
44410SOL    HW151222   9.561   0.783  10.942 -0.3839  0.1634  1.5433
44410SOL    HW251223   9.565   0.923  11.000 -0.9136  1.0712 -0.5473
44411SOL     OW51224  11.980  12.227   0.827  0.2130  0.3303  0.0538
44411SOL    HW151225  12.064  12.223   0.781 -0.4420  1.0667 -1.2488
44411SOL    HW251226  11.914  12.220   0.758 -0.7994  1.8223  0.8131
44412SOL     OW51227   0.378   3.996   3.749 -0.0188  0.1256 -0.0133
44412SOL    HW151228   0.457   3.977   3.698  0.1827 -1.1963  0.7296
44412SOL    HW251229   0.334   3.912   3.757 -1.1838  0.7379  0.1215
44413SOL     OW51230  11.163  12.953  11.975 -0.3442 -0.5747  0.1635
44413SOL    HW151231  11.134  13.036  11.937  0.8226  0.1720  0.8193
44413SOL    HW251232  11.151  12.964  12.069  0.1915 -0.9880  0.2842
44414SOL     OW51233   9.187   4.979   7.950  0.5370 -0.5540 -1.1804
44414SOL    HW151234   9.227   4.939   8.027 -0.6727 -1.2272 -0.8816
44414SOL    HW251235   9.261   5.006   7.896  1.3934 -1.0159 -0.2697
44415SOL     OW51236   4.848   1.800   8.079 -0.6316  0.5811  0.4292
44415SOL    HW151237   4.927   1.839   8.117  0.5071 -1.4786  0.3136
44415SOL    HW251238   4.854   1.821   7.986 -0.2751  0.4957  0.4328
44416SOL     OW51239   2.573  13.077   6.393  0.0800  0.0753  0.4333
44416SOL    HW151240   2.510  13.036   6.333 -1.1206  0.0563  1.6608
44416SOL    HW251241   2.658  13.041   6.367 -0.3849  0.1770 -1.3324
44417SOL     OW51242   3.348  13.259   1.839 -0.0704 -0.1652  0.1547
44417SOL    HW151243   3.390  13.322   1.897  0.2971  1.1621 -1.4561
44417SOL    HW251244   3.269  13.303   1.808  0.1229 -0.5341 -0.9105
44418SOL     OW51245  13.964  13.475  11.279  0.4429  0.3840  0.1553
44418SOL    HW151246  14.024  13.458  11.352  2.4294  0.9705 -1.2631
44418SOL    HW251247  13.958  13.392  11.232  1.0105  0.6006 -0.3072
44419SOL     OW51248   5.255   6.918  13.172  0.3306  0.0182 -0.1083
44419SOL    HW151249   5.266   6.824  13.189 -0.1361 -0.0866 -0.3524
44419SOL    HW251250   5.230   6.955  13.256  1.4092  0.0780  0.1972
44420SOL     OW51251   7.219   9.440   1.866  0.2247  0.0483  0.3438
44420SOL    HW151252   7.287   9.481   1.812  0.6242 -1.4509 -0.3396
44420SOL    HW251253   7.169   9.386   1.805 -0.7347  0.0680  1.0900
44421SOL     OW51254   0.693  13.596   7.933  0.3255 -0.0902  0.0843
44421SOL    HW151255   0.623  13.654   7.904  0.1585  0.0519  0.7684
44421SOL    HW251256   0.767  13.619   7.877 -0.1819 -0.2870 -0.6917
44422SOL     OW51257   1.150   1.824  13.092 -0.2735  0.2497  0.1063
44422SOL    HW151258   1.141   1.915  13.121 -1.1824  0.2572 -0.1767
44422SOL    HW251259   1.088   1.816  13.020 -1.9704 -1.2276  1.6384
44423SOL     OW51260  12.673   7.180   4.851 -0.6866  0.1668 -0.5070
44423SOL    HW151261  12.757   7.196   4.810 -1.4242  0.6442 -1.8975
44423SOL    HW251262  12.690   7.110   4.914  0.4152 -0.9411 -1.9484
44424SOL     OW51263   1.766   1.456   2.582 -0.4230  0.4603 -0.5705
44424SOL    HW151264   1.819   1.390   2.538  0.8496  1.3623 -0.4753
44424SOL    HW251265   1.675   1.432   2.564 -0.1376 -2.8079  1.6297
44425SOL     OW51266   5.426  10.570   4.508  0.2253  0.3900  0.3947
44425SOL    HW151267   5.402  10.638   4.572  1.6570  0.5708  0.7638
44425SOL    HW251268   5.451  10.495   4.561  0.0810  0.0688  0.0126
44426SOL     OW51269   8.751   9.649   9.810 -0.1644  0.0640 -0.0222
44426SOL    HW151270   8.795   9.638   9.894 -0.7942  0.6917  0.4104
44426SOL    HW251271   8.679   9.710   9.829  0.1186  0.7900 -1.1652
44427SOL     OW51272  11.282   0.426   5.223  0.0736 -1.3282  0.1390
44427SOL    HW151273  11.254   0.503   5.173  0.3899 -1.5263 -0.3498
44427SOL    HW251274  11.205   0.369   5.223 -0.4184 -0.7010  1.1515
44428SOL     OW51275  11.803   6.357   8.059 -0.4262 -0.1924 -0.2278
44428SOL    HW151276  11.875   6.348   8.122  0.5621 -0.7248 -1.3918
44428SOL    HW251277  11.833   6.424   7.998 -0.3527 -1.3058 -1.4464
44429SOL     OW51278   8.884   8.506   9.464 -0.8304 -0.0105 -0.2348
44429SOL    HW151279   8.905   8.592   9.499 -1.3692 -0.7125  1.9834
44429SOL    HW251280   8.945   8.446   9.506 -0.6546 -0.7768 -1.5138
44430SOL     OW51281   1.839  11.566   0.179 -0.4557  0.1172  0.3148
44430SOL    HW151282   1.777  11.619   0.129 -0.1370 -0.6017 -0.8703
44430SOL    HW251283   1.787  11.529   0.251 -0.3225  3.5429  2.4314
44431SOL     OW51284   3.864   1.723   0.600  0.5047 -0.2563  0.0846
44431SOL    HW151285   3.897   1.683   0.520  0.8719 -0.6974  0.4536
44431SOL    HW251286   3.891   1.815   0.595 -0.9813  0.1603 -1.1215
44432SOL     OW51287  10.902   2.132   0.124 -0.2077  0.1196 -0.5794
44432SOL    HW151288  10.807   2.129   0.136  0.0158  1.3900  2.2190
44432SOL    HW251289  10.929   2.040   0.118 -1.4374 -0.3199  0.3338
44433SOL     OW51290  12.741  12.105   1.190  0.5523  0.4572  0.0011
44433SOL    HW151291  12.709  12.015   1.186  0.6080  0.3633  1.2409
44433SOL    HW251292  12.832  12.100   1.160  1.4315 -0.4006  2.5198
44434SOL     OW51293  10.950  11.762  12.161 -0.1363 -0.1362  0.4263
44434SOL    HW151294  10.990  11.842  12.195 -0.1666 -0.2344  0.6973
44434SOL    HW251295  11.021  11.717  12.116 -0.1824  0.1692  0.0469
44435SOL     OW51296   0.788   8.949  10.894 -0.2001 -0.3144  0.2974
44435SOL    HW151297   0.758   8.970  10.806 -0.3977  0.6558  0.5809
44435SOL    HW251298   0.872   8.993  10.902  0.3509 -1.3313  0.2143
44436SOL     OW51299   6.416  12.492   3.847  0.1062 -0.0148  0.0657
44436SOL    HW151300   6.451  12.439   3.919 -0.7378 -1.3914 -0.4798
44436SOL    HW251301   6.490  12.542   3.815  0.6953 -0.0691  1.3146
44437SOL     OW51302  13.646   0.876   6.768 -0.2213 -0.1623  0.0089
44437SOL    HW151303  13.555   0.898   6.752 -0.1786 -0.7358 -1.1342
44437SOL    HW251304  13.681   0.851   6.682  0.7532 -0.8704  0.5746
44438SOL     OW51305  11.864  13.322   4.162 -0.0850 -0.2708 -0.0239
44438SOL    HW151306  11.806  13.384   4.118 -0.0924 -0.0884  0.2398
44438SOL    HW251307  11.948  13.368   4.166  0.0616 -0.5077 -0.3459
44439SOL     OW51308   8.434   2.875   2.720  0.5946  0.1218  0.0590
44439SOL    HW151309   8.472   2.905   2.638  0.8477  0.1203  0.1765
44439SOL    HW251310   8.508   2.861   2.778  0.4024  0.3576  0.3661
44440SOL     OW51311   0.563   5.734   7.786 -0.2376 -0.5993  0.6950
44440SOL    HW151312   0.529   5.788   7.715 -0.7657 -0.7792  0.8064
44440SOL    HW251313   0.485   5.698   7.828  0.1064 -1.4500  0.6213
44441SOL     OW51314  12.303   7.161   3.373  0.6535 -0.3854 -0.1776
44441SOL    HW151315  12.363   7.214   3.321 -0.0069  0.4149 -0.1615
44441SOL    HW251316  12.225   7.153   3.317  0.4922 -0.7563  0.1016
44442SOL     OW51317   4.168   8.989  13.020 -0.4164  0.5777 -0.5363
44442SOL    HW151318   4.239   8.966  13.080 -0.2596  0.0281 -0.9339
44442SOL    HW251319   4.092   8.940  13.052 -0.4941  0.7799 -0.4084
44443SOL     OW51320   0.214   5.152   1.943  0.6400  0.3426 -0.4165
44443SOL    HW151321   0.167   5.188   2.019 -0.3087 -2.2147  0.3378
44443SOL    HW251322   0.147   5.145   1.875  0.7851 -0.0273 -0.5235
44444SOL     OW51323   2.183   0.975   9.904  0.3160 -0.0392 -0.1248
44444SOL    HW151324   2.166   0.959   9.996  1.0169 -0.2134 -0.0155
44444SOL    HW251325   2.198   0.889   9.866 -0.5906 -0.0232 -0.5415
44445SOL     OW51326  14.141   4.471   7.686 -0.0981 -0.3878 -0.0465
44445SOL    HW151327  14.172   4.459   7.776 -2.3771  1.1266  1.0521
44445SOL    HW251328  14.218   4.499   7.637  0.7730  0.9923  1.9719
44446SOL     OW51329   8.053   4.211   0.374  0.2258  0.0550 -0.3512
44446SOL    HW151330   8.089   4.268   0.441 -0.5469 -0.6726  0.7132
44446SOL    HW251331   8.122   4.204   0.309  1.6312 -0.5218  1.1511
44447SOL     OW51332   5.746   7.694  13.491 -0.1430 -0.5417  0.2222
44447SOL    HW151333   5.801   7.666  13.564  0.4455 -1.5129 -0.5497
44447SOL    HW251334   5.660   7.654  13.509 -0.0582 -0.6083  0.4839
44448SOL     OW51335   7.472   7.052   1.530 -0.3977 -0.0315  0.3551
44448SOL    HW151336   7.484   7.033   1.437 -0.9210 -2.0126  0.6357
44448SOL    HW251337   7.378   7.044   1.544 -0.0989 -2.8920  1.5667
44449SOL     OW51338   8.307   6.667  12.459  0.4868  0.0644  0.2443
44449SOL    HW151339   8.228   6.652  12.407 -0.4238  1.3003  1.2180
44449SOL    HW251340   8.377   6.624  12.409 -0.7692 -0.9747 -0.6831
44450SOL     OW51341   3.101   6.422   2.135 -0.0096  0.0120 -0.7608
44450SOL    HW151342   3.064   6.369   2.065  1.1194  0.2799 -1.5867
44450SOL    HW251343   3.161   6.363   2.181  2.5416  0.8947 -2.7099
44451SOL     OW51344   2.802   2.526   4.746  0.5386 -0.7786  0.3463
44451SOL    HW151345   2.709   2.548   4.734  0.4430 -1.1296  0.4258
44451SOL    HW251346   2.827   2.483   4.665  0.4935 -1.1460  0.5270
44452SOL     OW51347  11.138   0.362   8.738  0.1286  0.1466 -0.0099
44452SOL    HW151348  11.053   0.406   8.734  0.3000  0.6582  1.3750
44452SOL    HW251349  11.118   0.269   8.730 -0.6870  0.1761  1.3755
44453SOL     OW51350   4.983   3.490  13.139  0.1515 -0.4367 -0.4980
44453SOL    HW151351   4.919   3.448  13.082 -1.0683 -0.9727  1.1745
44453SOL    HW251352   5.037   3.419  13.173 -1.0741 -0.5653  1.3149
44454SOL     OW51353   3.823   2.881   6.832  0.3981  0.1823 -0.4020
44454SOL    HW151354   3.848   2.952   6.773  0.3849  0.9031  0.4406
44454SOL    HW251355   3.736   2.855   6.802  0.6756  0.0699 -1.1288
44455SOL     OW51356   0.271   7.744   0.443  0.1512 -0.3512 -0.1310
44455SOL    HW151357   0.307   7.659   0.468 -0.1402 -0.4622 -0.0951
44455SOL    HW251358   0.195   7.724   0.388 -1.1674 -0.1426  1.5442
44456SOL     OW51359  12.059   0.150  13.169 -0.7178  0.2352 -0.5966
44456SOL    HW151360  11.984   0.167  13.226 -1.3823 -2.5010 -0.5229
44456SOL    HW251361  12.135   0.153  13.227 -1.1576 -0.3250  0.0191
44457SOL     OW51362   2.105   3.291   5.141  0.3121 -0.0718  0.1589
44457SOL    HW151363   2.023   3.270   5.184 -0.4618 -0.3503 -1.3961
44457SOL    HW251364   2.118   3.384   5.158  1.1353 -0.5720  2.7360
44458SOL     OW51365   0.933   7.247   8.680 -0.1969 -0.0963  0.1460
44458SOL    HW151366   0.952   7.294   8.599 -1.5524 -0.7670 -0.5932
44458SOL    HW251367   0.862   7.297   8.721  0.2227  0.0224  0.7447
44459SOL     OW51368   6.570  13.304   1.811  0.0071  0.1269 -0.0408
44459SOL    HW151369   6.611  13.336   1.731  0.4470 -3.4354 -1.4057
44459SOL    HW251370   6.636  13.319   1.879  0.9645  0.2980 -0.9729
44460SOL     OW51371  12.480   4.576  10.806  0.1837  0.2079 -0.5607
44460SOL    HW151372  12.459   4.668  10.792 -1.4287 -0.0380 -0.0252
44460SOL    HW251373  12.436   4.530  10.733 -0.9606 -0.3073  0.4197
44461SOL     OW51374  11.145   1.379   4.447  0.6146 -0.9701  1.0349
44461SOL    HW151375  11.099   1.352   4.367  0.0601  2.0999  0.1700
44461SOL    HW251376  11.238   1.368   4.426  0.5018  0.3194 -0.3185
44462SOL     OW51377  11.196   4.068   9.788  0.2096  0.0336 -0.2224
44462SOL    HW151378  11.221   4.064   9.696 -0.3516 -0.2895 -0.3660
44462SOL    HW251379  11.220   4.156   9.816 -0.3549  0.4055 -0.8937
44463SOL     OW51380   4.947   2.704   6.134 -0.2968 -0.0264  0.1298
44463SOL    HW151381   4.861   2.669   6.158  0.2748 -1.7940 -0.2640
44463SOL    HW251382   4.990   2.633   6.085  2.2253 -0.0270  2.1398
44464SOL     OW51383   8.799   3.478   6.480  0.1815  0.0590 -0.3678
44464SOL    HW151384   8.747   3.451   6.556 -0.9731  0.2578 -1.0614
44464SOL    HW251385   8.890   3.475   6.511 -0.1400 -1.4035  0.5520
44465SOL     OW51386   4.616   3.221   8.117 -0.0486  0.3222 -0.3744
44465SOL    HW151387   4.533   3.244   8.075 -0.7523  1.1287  1.3878
44465SOL    HW251388   4.681   3.275   8.073 -0.3005 -0.7712 -2.2102
44466SOL     OW51389   0.126  11.255  12.619  0.3962  0.5478  0.2088
44466SOL    HW151390   0.216  11.226  12.636  0.8366  0.2851 -2.2530
44466SOL    HW251391   0.133  11.349  12.605  0.0517  0.7534  1.3528
44467SOL     OW51392  10.591  10.781   3.503  0.1165 -0.2725 -0.0839
44467SOL    HW151393  10.593  10.691   3.469  1.7087 -1.5888  3.0675
44467SOL    HW251394  10.535  10.777   3.580  2.5224  0.6429  1.8394
44468SOL     OW51395  11.666  11.314   4.102  0.1814  0.2139 -0.4942
44468SOL    HW151396  11.736  11.347   4.045 -0.4879  0.0567 -1.4366
44468SOL    HW251397  11.585  11.330   4.052 -0.2692 -1.7816 -0.4871
44469SOL     OW51398   4.386  10.727   3.752  0.1364 -0.4341  0.0806
44469SOL    HW151399   4.341  10.811   3.751 -1.4257 -1.2129  0.6790
44469SOL    HW251400   4.478  10.748   3.739 -0.5589  1.0988 -3.3913
44470SOL     OW51401   1.851   4.363   4.245  0.2735 -0.8073  0.4779
44470SOL    HW151402   1.805   4.372   4.161  0.2868 -0.4191  0.5143
44470SOL    HW251403   1.782   4.360   4.310  0.2703 -0.9704  0.4694
44471SOL     OW51404   8.000   8.211   9.484 -0.2263  0.7011  0.1869
44471SOL    HW151405   8.022   8.265   9.408  2.4928 -0.2156  0.2133
44471SOL    HW251406   7.962   8.272   9.547 -1.8375  1.6186 -1.5564
44472SOL     OW51407   0.734   5.122   1.437  0.4326  0.2840 -0.2406
44472SOL    HW151408   0.701   5.050   1.383  0.0699  0.6965 -0.5784
44472SOL    HW251409   0.821   5.095   1.464 -0.3328 -1.0487  1.0514
44473SOL     OW51410   6.094   1.249  10.804 -0.3831 -0.4767 -0.5320
44473SOL    HW151411   6.113   1.342  10.791  0.2504 -0.3301  1.2373
44473SOL    HW251412   6.083   1.214  10.715  1.7884  0.7743 -1.3760
44474SOL     OW51413   3.104  12.499   7.579 -0.5678 -0.4842 -0.0893
44474SOL    HW151414   3.187  12.475   7.620  0.2495 -1.2769 -2.0903
44474SOL    HW251415   3.075  12.419   7.536 -0.6322  0.6108 -2.2075
44475SOL     OW51416   1.855   5.110   6.250  0.7703  0.2959  0.3332
44475SOL    HW151417   1.924   5.174   6.235 -1.0007  2.0098 -1.2228
44475SOL    HW251418   1.900   5.026   6.259  3.0353  1.3991 -0.0966
44476SOL     OW51419   3.369  10.587   2.109  0.2728 -0.1550 -0.0558
44476SOL    HW151420   3.280  10.571   2.139  0.7280 -0.8615  0.9640
44476SOL    HW251421   3.394  10.669   2.150 -0.4854  0.9607 -1.7177
44477SOL     OW51422   1.226   7.597   9.622  0.1640  0.0824  0.9005
44477SOL    HW151423   1.300   7.550   9.582 -0.5977  0.5863 -1.2466
44477SOL    HW251424   1.195   7.656   9.553 -0.5787  1.8463  2.6425
44478SOL     OW51425   9.096  10.841  10.573 -0.5051  0.2536 -0.0318
44478SOL    HW151426   9.111  10.921  10.522  2.0176 -1.6192 -2.5687
44478SOL    HW251427   9.184  10.816  10.603 -1.3521 -1.1733  1.3551
44479SOL     OW51428  12.037  10.115   7.956 -0.1138  0.2030 -0.2325
44479SOL    HW151429  12.115  10.150   8.000 -0.0650  1.3021 -1.1503
44479SOL    HW251430  12.071  10.071   7.879 -0.3894  0.7267 -0.6617
44480SOL     OW51431   3.660  10.669   6.669  0.0768 -0.2658 -0.0533
44480SOL    HW151432   3.587  10.718   6.706  1.1983  1.8165 -0.4690
44480SOL    HW251433   3.735  10.692   6.723  0.8132 -0.8678 -0.7867
44481SOL     OW51434   8.866   0.845  11.727  0.3583 -0.3309 -0.1692
44481SOL    HW151435   8.869   0.787  11.802 -0.5722  0.9291  0.8846
44481SOL    HW251436   8.958   0.870  11.713  0.5738 -0.8149  0.3466
44482SOL     OW51437   7.339  11.787   7.175 -0.0454 -0.1754 -0.1667
44482SOL    HW151438   7.413  11.758   7.122  0.6022 -0.2089  0.7349
44482SOL    HW251439   7.379  11.829   7.251 -0.9600  0.3965  0.0141
44483SOL     OW51440  10.101   9.514   1.498  0.0452  0.6319  0.8100
44483SOL    HW151441  10.173   9.558   1.545  0.3935  0.8054  0.1274
44483SOL    HW251442  10.143   9.440   1.455 -0.0935  0.9970  0.0355
44484SOL     OW51443   1.822   5.090   0.210  0.7696  0.7894  0.1047
44484SOL    HW151444   1.886   5.045   0.264  0.8561  0.9515  0.1364
44484SOL    HW251445   1.800   5.027   0.141 -0.8330 -0.2036  1.4307
44485SOL     OW51446   6.765   8.896  11.856 -0.0500 -0.1867 -0.1372
44485SOL    HW151447   6.688   8.914  11.803  0.7097  1.0621 -0.8803
44485SOL    HW251448   6.839   8.926  11.802  0.8538 -0.1962  1.0437
44486SOL     OW51449  10.729   2.418   2.173 -0.1183 -0.0080 -0.0870
44486SOL    HW151450  10.664   2.483   2.196  0.3225  0.1684  0.7053
44486SOL    HW251451  10.679   2.341   2.145 -0.6931 -0.2915  1.6620
44487SOL     OW51452  12.977   7.267   3.980 -0.0201  0.2315  0.3341
44487SOL    HW151453  12.984   7.258   3.885 -1.7686  0.9412  0.1080
44487SOL    HW251454  12.971   7.362   3.994 -1.5654  0.0597  0.9868
44488SOL     OW51455   3.817  13.243  11.865 -0.1214  0.1850 -0.1419
44488SOL    HW151456   3.905  13.281  11.859 -1.6679  3.9335 -1.8402
44488SOL    HW251457   3.780  13.280  11.945 -0.4482 -0.8143  0.1871
44489SOL     OW51458   1.224   1.302   7.646 -0.0723 -0.4079  0.2756
44489SOL    HW151459   1.218   1.373   7.583 -0.0623 -1.9223 -1.5000
44489SOL    HW251460   1.229   1.346   7.731 -1.7858  1.6559 -0.6069
44490SOL     OW51461   2.930  10.239   7.107  0.0120  0.1336  0.7224
44490SOL    HW151462   2.864  10.282   7.054  0.6082 -1.7844 -1.7738
44490SOL    HW251463   2.882  10.206   7.183 -1.0382  2.2633  1.0526
44491SOL     OW51464   3.709   9.088   5.293  0.3268  0.0943  0.2424
44491SOL    HW151465   3.645   9.111   5.225 -0.6056  1.9873  1.6822
44491SOL    HW251466   3.786   9.059   5.244 -1.1918 -1.1842 -1.5627
44492SOL     OW51467  10.808   5.463  10.462 -0.5516  0.5669 -0.5849
44492SOL    HW151468  10.765   5.420  10.535  0.2609  1.9497  0.7789
44492SOL    HW251469  10.737   5.484  10.401 -1.1459 -1.2484 -0.5654
44493SOL     OW51470   7.434   9.184  10.718  0.0034  0.5035  0.2876
44493SOL    HW151471   7.396   9.242  10.651 -0.1860  0.4565  0.3526
44493SOL    HW251472   7.528   9.186  10.701 -0.2309 -2.0012 -2.0625
44494SOL     OW51473   9.219   7.986  11.075 -0.3243 -0.0423  0.3287
44494SOL    HW151474   9.291   7.982  11.137  1.0758 -1.0098 -1.2776
44494SOL    HW251475   9.241   8.059  11.017 -0.6958 -0.2663 -0.1070
44495SOL     OW51476  12.322   4.389  11.690 -0.2334 -0.1109  0.3254
44495SOL    HW151477  12.341   4.309  11.740 -0.4076 -1.0490 -1.0534
44495SOL    HW251478  12.248   4.429  11.736 -0.8214 -1.3035  0.4529
44496SOL     OW51479   4.642  12.165   3.078 -0.1876 -0.4226  0.2933
44496SOL    HW151480   4.583  12.199   3.010  0.3079  2.2800  1.1011
44496SOL    HW251481   4.705  12.112   3.031 -0.1104  1.0423 -1.3559
44497SOL     OW51482  11.556   9.254   2.260  0.0137  0.4378 -0.8320
44497SOL    HW151483  11.491   9.226   2.196 -0.3545  0.6064 -0.5380
44497SOL    HW251484  11.631   9.282   2.208  0.1682 -0.5366 -1.1500
44498SOL     OW51485   3.352  13.445  11.820  0.1145  0.0512  0.1397
44498SOL    HW151486   3.347  13.501  11.898 -2.5975 -0.5733  0.5102
44498SOL    HW251487   3.382  13.360  11.853  1.1706  0.3929  0.0927
44499SOL     OW51488  11.185  11.780   0.447  0.0792 -0.5684  0.0083
44499SOL    HW151489  11.208  11.707   0.504  0.3826 -1.3302 -1.0473
44499SOL    HW251490  11.226  11.856   0.487 -0.1779 -0.9891  1.0906
44500SOL     OW51491  12.494   6.385   6.231 -0.1316  0.7828  0.1950
44500SOL    HW151492  12.582   6.380   6.195 -0.3286  0.8846 -0.3024
44500SOL    HW251493  12.439   6.341   6.167 -0.6383  1.8766 -0.1456
44501SOL     OW51494  12.459   1.754   6.710 -0.0409 -0.0190  0.2097
44501SOL    HW151495  12.537   1.798   6.745  0.1849 -0.5936  0.4562
44501SOL    HW251496  12.469   1.663   6.739 -0.0189 -0.4396 -1.0894
44502SOL     OW51497   4.337   1.379   3.105  0.0176  0.4059 -0.4290
44502SOL    HW151498   4.383   1.296   3.097 -0.5095  0.2182 -1.7314
44502SOL    HW251499   4.329   1.393   3.200  1.6658 -0.1356 -0.1888
44503SOL     OW51500   8.639   0.020  11.379 -0.3628 -0.0524 -0.0902
44503SOL    HW151501   8.732   0.005  11.397 -0.0676 -1.2678 -2.2819
44503SOL    HW251502   8.597   0.018  11.465  1.4952 -0.5090  0.8548
44504SOL     OW51503   0.531  11.390   3.153  0.5055 -0.3837  0.1431
44504SOL    HW151504   0.493  11.324   3.096  2.4955 -0.8810 -0.6934
44504SOL    HW251505   0.475  11.466   3.143 -0.5900 -1.2556 -0.5600
44505SOL     OW51506   1.556   9.616   7.374 -0.4212  0.0228  0.1437
44505SOL    HW151507   1.600   9.539   7.411 -0.4051 -0.1003 -0.1272
44505SOL    HW251508   1.543   9.674   7.449 -0.5970 -0.3212  0.3861
44506SOL     OW51509   7.837   7.597   0.023  0.2184 -0.1676 -0.2804
44506SOL    HW151510   7.873   7.554   0.101  0.3975 -0.6129 -0.6041
44506SOL    HW251511   7.770   7.537  -0.009 -0.6775  0.5610  0.1963
44507SOL     OW51512  13.883   0.805   6.238  0.0626  0.4239  0.2838
44507SOL    HW151513  13.948   0.872   6.217 -0.8075  0.9143 -0.9278
44507SOL    HW251514  13.911   0.728   6.189  1.0342 -0.1318  1.6383
44508SOL     OW51515  14.087   8.320  13.398  0.1071  0.1990 -0.2173
44508SOL    HW151516  14.070   8.382  13.327 -0.3613  0.0819 -0.2103
44508SOL    HW251517  14.175   8.288  13.381  0.8122  1.7027  0.4090
44509SOL     OW51518   6.691  11.213   4.918  0.0897 -0.1290  0.3381
44509SOL    HW151519   6.634  11.208   4.841 -0.3542  1.5115  0.5188
44509SOL    HW251520   6.780  11.207   4.882 -0.1363 -0.1990 -0.2216
44510SOL     OW51521   8.832   6.082   3.717  0.0518  0.1678  0.6736
44510SOL    HW151522   8.756   6.049   3.670  0.1236  0.8134  0.0829
44510SOL    HW251523   8.799   6.104   3.804 -0.0176 -1.3221  1.0543
44511SOL     OW51524   4.254   2.122  10.813  0.0568  0.3797 -0.4116
44511SOL    HW151525   4.318   2.078  10.868 -1.7596 -2.9795 -0.7435
44511SOL    HW251526   4.295   2.125  10.726  0.3641 -0.3635 -0.2972
44512SOL     OW51527   4.043  12.808   1.356 -0.5297  0.5836  0.0332
44512SOL    HW151528   4.011  12.794   1.445 -0.7573  1.3691  0.0743
44512SOL    HW251529   4.123  12.859   1.366  0.1770 -0.4414 -0.1418
44513SOL     OW51530   9.760  12.066  11.424  0.4083  0.0373  0.4123
44513SOL    HW151531   9.855  12.077  11.431  0.1343  2.2825  1.4157
44513SOL    HW251532   9.736  12.120  11.349 -0.1639  0.1447  0.6708
44514SOL     OW51533   8.792   2.813  12.215 -0.6440 -0.2301 -0.0827
44514SOL    HW151534   8.823   2.750  12.149  1.0025 -0.5832  0.9742
44514SOL    HW251535   8.793   2.897  12.170 -1.5361 -0.7376 -1.1075
44515SOL     OW51536  12.206   6.477   6.814  0.2308 -0.0309  0.2805
44515SOL    HW151537  12.233   6.550   6.759  1.1479  0.5174  1.4228
44515SOL    HW251538  12.254   6.402   6.780 -0.2430  0.0204 -0.5096
44516SOL     OW51539  10.000   9.513  13.615 -0.0016 -0.3436  0.0718
44516SOL    HW151540   9.954   9.436  13.648  0.5007 -0.7050 -0.0678
44516SOL    HW251541  10.067   9.478  13.557  0.2316  0.2006  0.0076
44517SOL     OW51542   9.123   4.382   6.406  0.0531 -0.7545  0.8158
44517SOL    HW151543   9.040   4.391   6.452  0.5179  0.0669  1.5150
44517SOL    HW251544   9.118   4.295   6.366 -1.8406 -0.0747 -0.5995
44518SOL     OW51545   5.194  11.128  11.948 -0.1509  0.1857 -0.1782
44518SOL    HW151546   5.221  11.220  11.948 -0.0351  0.1860 -1.6749
44518SOL    HW251547   5.098  11.132  11.952 -0.0968  0.2953  1.5408
44519SOL     OW51548   9.626   1.981   9.362  0.2849  0.3937 -0.5737
44519SOL    HW151549   9.596   2.069   9.339 -1.1633 -0.0712 -0.5608
44519SOL    HW251550   9.564   1.922   9.318  0.2540 -0.5969  0.7365
44520SOL     OW51551   4.246  12.670   2.099 -0.4559 -0.3162  0.3363
44520SOL    HW151552   4.161  12.678   2.056  0.0197 -1.6433 -0.9130
44520SOL    HW251553   4.232  12.706   2.186 -1.9888  0.5522 -0.2305
44521SOL     OW51554  12.478  12.069  10.419  0.6999 -0.1653  0.1418
44521SOL    HW151555  12.421  12.075  10.342  1.4683  2.8799 -0.3412
44521SOL    HW251556  12.419  12.084  10.493  0.4069 -0.1097 -0.0994
44522SOL     OW51557   9.255  14.155   5.873 -0.2038  0.0144  0.8091
44522SOL    HW151558   9.210  14.115   5.799  0.5423  0.1232  0.2790
44522SOL    HW251559   9.204  14.129   5.949 -0.7068 -0.5109  0.3071
44523SOL     OW51560  11.734  12.440   2.215 -0.0225  0.2696 -0.2756
44523SOL    HW151561  11.779  12.450   2.299 -0.9826  0.2481  0.2627
44523SOL    HW251562  11.641  12.435   2.238 -0.4671  2.0286 -1.4615
44524SOL     OW51563  11.082  12.003   6.802 -0.3828  0.3569  0.4475
44524SOL    HW151564  11.136  11.987   6.879  0.6478 -0.0707 -0.3414
44524SOL    HW251565  11.089  11.923   6.750 -1.3529  0.5010  0.0795
44525SOL     OW51566   7.985   2.832   9.892 -0.2554  0.4455  0.4353
44525SOL    HW151567   7.904   2.807   9.937 -2.8916  3.2924 -2.2558
44525SOL    HW251568   7.994   2.770   9.820  0.9270 -0.7589  1.5415
44526SOL     OW51569  11.017  12.359   1.752  0.2495  0.7019 -0.0567
44526SOL    HW151570  11.061  12.334   1.670  0.5805 -1.2506  0.6785
44526SOL    HW251571  11.072  12.429   1.787  0.7861  0.7338 -0.9076
44527SOL     OW51572   9.859  12.042   5.776 -0.1134  0.2756  0.0797
44527SOL    HW151573   9.945  12.014   5.808  0.1845  0.4622 -0.5413
44527SOL    HW251574   9.879  12.106   5.707 -0.7347 -0.0928 -0.4471
44528SOL     OW51575   3.219   8.908  11.352  0.0662  0.4803 -0.4102
44528SOL    HW151576   3.175   8.976  11.301 -0.8986 -0.3809 -0.7531
44528SOL    HW251577   3.259   8.851  11.287 -0.1829  0.0291 -0.1712
44529SOL     OW51578  11.780   2.876  11.613 -0.2530 -0.3227 -0.0613
44529SOL    HW151579  11.708   2.885  11.675 -0.5372 -0.3555 -0.3867
44529SOL    HW251580  11.738   2.868  11.527  0.0895 -1.7319 -0.1159
44530SOL     OW51581   7.438   4.572   0.391  0.2153  0.2350  0.4031
44530SOL    HW151582   7.483   4.617   0.320 -0.1331  0.1000  0.0981
44530SOL    HW251583   7.381   4.639   0.429  1.8202  0.8836  1.8337
44531SOL     OW51584   9.099   0.264   4.389  0.4029  0.7202 -0.6764
44531SOL    HW151585   9.052   0.220   4.318 -0.4469 -1.6709  1.2250
44531SOL    HW251586   9.030   0.305   4.442  0.4595 -1.5393  1.2976
44532SOL     OW51587  10.002   8.962   4.717  0.4284  0.1469  0.5572
44532SOL    HW151588  10.041   9.006   4.793  0.4166 -1.2668  1.4388
44532SOL    HW251589   9.989   9.031   4.652  2.8377  0.9621  0.8580
44533SOL     OW51590   6.285  14.110   4.282 -0.4506  0.0416 -0.0386
44533SOL    HW151591   6.355  14.109   4.217  0.6688 -0.7006  1.1195
44533SOL    HW251592   6.303  14.034   4.337 -1.4541  0.5522  1.0297
44534SOL     OW51593   8.602   8.111   0.904  0.1030 -0.0930 -0.5436
44534SOL    HW151594   8.609   8.073   0.992 -1.1844 -1.0816 -0.8431
44534SOL    HW251595   8.669   8.065   0.854 -0.6132 -1.1153 -0.5932
44535SOL     OW51596   6.764   1.623  10.203 -0.1747 -0.0296 -0.0941
44535SOL    HW151597   6.689   1.647  10.150 -0.0463 -1.0576 -0.7626
44535SOL    HW251598   6.828   1.589  10.141  0.6502  0.3624  0.5234
44536SOL     OW51599   8.554  10.009  12.660  0.9239 -0.1043  0.4836
44536SOL    HW151600   8.639   9.964  12.659  0.5577 -0.8656  1.4861
44536SOL    HW251601   8.522  10.003  12.570  2.3905  1.1430 -0.1714
44537SOL     OW51602   5.696   8.725   5.204  0.4245 -0.0098  0.8229
44537SOL    HW151603   5.612   8.767   5.187 -0.3055 -1.2182  1.3089
44537SOL    HW251604   5.760   8.778   5.156 -0.7680  0.2076 -0.5883
44538SOL     OW51605   3.412   5.811   9.164  0.2364 -0.0555  0.2872
44538SOL    HW151606   3.351   5.846   9.229  0.2094  0.2621  0.0908
44538SOL    HW251607   3.426   5.883   9.102  0.8313 -0.1215  0.3434
44539SOL     OW51608   0.977  11.104  12.076  0.0713 -0.0658  0.0655
44539SOL    HW151609   0.983  11.015  12.039  0.1316 -0.4228  0.9180
44539SOL    HW251610   1.043  11.105  12.145 -0.4978  0.3797  0.6066
44540SOL     OW51611   3.933  13.595   1.896  0.1242  0.3866 -0.6841
44540SOL    HW151612   3.904  13.661   1.833  1.7335 -0.3166 -2.2288
44540SOL    HW251613   3.888  13.514   1.868  1.1748 -0.0250 -1.2569
44541SOL     OW51614   1.801   4.720  13.901  0.1839  0.1622 -0.1815
44541SOL    HW151615   1.759   4.639  13.929 -1.1864  0.4678 -1.2275
44541SOL    HW251616   1.875   4.691  13.848 -0.7436 -0.4495 -1.1912
44542SOL     OW51617   6.510   8.359   8.973 -0.3725  0.3131  0.2364
44542SOL    HW151618   6.532   8.451   8.962  0.2855  0.2228  0.7637
44542SOL    HW251619   6.440   8.359   9.039 -0.2905  0.4238  0.3235
44543SOL     OW51620   2.174   2.317   4.178  0.0552  0.4992 -0.1834
44543SOL    HW151621   2.115   2.241   4.183  1.0498 -0.2396  0.6731
44543SOL    HW251622   2.246   2.296   4.237  0.3102  2.1639  0.1536
44544SOL     OW51623  13.401   8.009   7.485 -0.3361 -0.5063  0.6747
44544SOL    HW151624  13.483   8.009   7.533 -0.6787  0.5470  1.3059
44544SOL    HW251625  13.359   7.926   7.509  0.5216 -1.0386  0.3597
44545SOL     OW51626  13.828  11.120   6.266 -0.4452 -0.3258  0.0324
44545SOL    HW151627  13.755  11.067   6.232 -0.3762 -0.5654  0.2537
44545SOL    HW251628  13.788  11.204   6.289 -0.0709  0.8269 -3.0322
44546SOL     OW51629   0.175   5.296  12.771  0.5129  0.4013  0.0994
44546SOL    HW151630   0.226   5.278  12.691  1.2247  0.2342  0.5859
44546SOL    HW251631   0.186   5.390  12.786 -0.4689  0.6401 -0.5651
44547SOL     OW51632   1.112   2.858  11.435  0.1035 -0.3407  0.0750
44547SOL    HW151633   1.162   2.916  11.492  0.3110 -0.9774  0.5510
44547SOL    HW251634   1.096   2.910  11.356  1.2421 -0.0153  0.0398
44548SOL     OW51635   0.561   2.692   1.000  0.0636 -0.2497  0.1404
44548SOL    HW151636   0.564   2.656   1.089 -0.0513 -0.6245 -0.0081
44548SOL    HW251637   0.470   2.718   0.987 -0.2509 -1.5626 -0.4067
44549SOL     OW51638  12.296   1.422  10.261  0.2071 -1.1845 -0.5199
44549SOL    HW151639  12.231   1.398  10.327  1.7850 -1.2475  1.0671
44549SOL    HW251640  12.306   1.517  10.271  0.7451 -1.2557 -0.3922
44550SOL     OW51641   0.144   2.011  13.980  0.6175  0.0131  0.3153
44550SOL    HW151642   0.113   2.065  14.053  0.7711  0.6058 -0.0538
44550SOL    HW251643   0.076   1.945  13.969 -0.9301  1.7008 -0.9386
44551SOL     OW51644   5.229   6.641  13.189 -0.5535 -0.2569  0.5905
44551SOL    HW151645   5.248   6.550  13.213  0.3308 -0.9532 -2.3018
44551SOL    HW251646   5.138   6.654  13.217 -0.7703 -2.0916  0.9213
44552SOL     OW51647   0.888   8.237   3.293  0.1038  0.1289  0.7956
44552SOL    HW151648   0.818   8.203   3.237 -0.8182 -0.0291  2.0112
44552SOL    HW251649   0.952   8.166   3.295  0.5302  0.4275 -0.6480
44553SOL     OW51650   4.787   3.281   6.516  0.2018 -0.2240 -0.3501
44553SOL    HW151651   4.817   3.369   6.495 -0.2689 -0.2375 -1.0898
44553SOL    HW251652   4.714   3.294   6.576 -0.1216 -0.0952 -0.7713
44554SOL     OW51653  11.752  13.318   0.710  0.0800 -0.0169 -0.0639
44554SOL    HW151654  11.675  13.367   0.740 -0.5168 -1.7019  1.3653
44554SOL    HW251655  11.733  13.297   0.619 -1.0345 -0.1344  0.1778
44555SOL     OW51656  12.068  10.270  13.990  0.2045 -0.3349  0.0146
44555SOL    HW151657  12.022  10.352  13.974  2.1975  0.7510 -0.5750
44555SOL    HW251658  12.088  10.271  14.084 -1.0295 -0.8690  0.2947
44556SOL     OW51659  10.117   0.198   8.138  0.6661 -0.0865 -0.1368
44556SOL    HW151660  10.102   0.109   8.106 -1.1024  0.0390  0.2783
44556SOL    HW251661  10.047   0.250   8.100  0.8702  0.8613  0.7270
44557SOL     OW51662   7.913   2.655  13.363  0.2959  0.2195  0.0251
44557SOL    HW151663   7.844   2.721  13.361 -1.3229 -1.2526  1.9806
44557SOL    HW251664   7.992   2.701  13.335 -1.2732  2.2268 -1.3683
44558SOL     OW51665  13.286   1.566  12.300 -0.7751  0.1905  0.3093
44558SOL    HW151666  13.259   1.640  12.245  1.7411  0.0904 -1.2177
44558SOL    HW251667  13.240   1.491  12.262 -2.4855  0.7482  1.1817
44559SOL     OW51668  10.228   1.881   4.368 -0.0546  0.3652  0.2385
44559SOL    HW151669  10.257   1.972   4.372  2.0245 -0.3082  2.0970
44559SOL    HW251670  10.248   1.854   4.278 -0.4506  1.6217 -0.2572
44560SOL     OW51671   9.188  13.443   0.693  0.4226 -0.4520 -0.4003
44560SOL    HW151672   9.253  13.411   0.756  0.5485  1.6811  0.6229
44560SOL    HW251673   9.230  13.518   0.651  0.4767 -1.9455 -3.3586
44561SOL     OW51674   6.609   1.961   5.228 -0.3355 -1.0129  0.0474
44561SOL    HW151675   6.520   1.993   5.240 -0.0244 -0.1019  0.0210
44561SOL    HW251676   6.605   1.869   5.251 -1.1367 -0.8153  0.7443
44562SOL     OW51677  13.421   5.048   0.884  0.2286  0.3068  0.4938
44562SOL    HW151678  13.360   5.113   0.919 -1.1059  0.0367 -1.1964
44562SOL    HW251679  13.489   5.100   0.841  0.8764  0.5948  1.8027
44563SOL     OW51680   9.649   8.275   8.579 -0.5089 -0.1017  0.4512
44563SOL    HW151681   9.710   8.347   8.595 -1.7871  1.4467 -1.1826
44563SOL    HW251682   9.646   8.267   8.483 -2.0579 -0.8402  0.5239
44564SOL     OW51683  10.572   5.163   3.027 -0.0540 -0.1889  0.1287
44564SOL    HW151684  10.621   5.204   2.956  0.4662 -0.3356  0.3955
44564SOL    HW251685  10.598   5.211   3.105 -0.4321 -0.1884  0.2539
44565SOL     OW51686   3.888  12.752   3.632 -0.0646 -0.0403 -0.0460
44565SOL    HW151687   3.892  12.725   3.541  0.2782  0.1116 -0.0761
44565SOL    HW251688   3.842  12.837   3.630 -0.6771 -0.3637 -0.0035
44566SOL     OW51689  11.979   3.070   6.964 -0.2494 -0.0593  0.0344
44566SOL    HW151690  11.924   3.034   7.034  0.0780 -0.4058  0.1218
44566SOL    HW251691  11.927   3.060   6.885 -0.4844  0.0132  0.1790
44567SOL     OW51692   4.215  13.403  10.966  0.3956 -0.3798  0.1903
44567SOL    HW151693   4.300  13.416  10.924  0.1343  0.7936 -0.0138
44567SOL    HW251694   4.166  13.348  10.905  0.7006 -0.3039 -0.1234
44568SOL     OW51695  11.543   4.184   3.796 -0.0809 -0.0866  0.1333
44568SOL    HW151696  11.457   4.224   3.779  0.2441  0.2141 -0.8949
44568SOL    HW251697  11.560   4.132   3.718  2.4304  2.9992 -1.6086
44569SOL     OW51698   4.819  13.944  10.276 -0.3293 -0.0865  0.3002
44569SOL    HW151699   4.747  14.006  10.284 -0.0898  0.1822  0.4322
44569SOL    HW251700   4.868  13.954  10.358 -0.8175 -1.1354  0.7455
44570SOL     OW51701  10.010  10.615  13.027  0.5163 -0.2433  0.2868
44570SOL    HW151702   9.967  10.672  12.964  0.9341  0.5261  0.6866
44570SOL    HW251703  10.064  10.557  12.973 -0.3278 -0.6387 -0.1555
44571SOL     OW51704   0.344   3.630   8.545 -0.3048 -0.7720 -0.0854
44571SOL    HW151705   0.342   3.708   8.490 -2.3310 -0.1314  0.7924
44571SOL    HW251706   0.252   3.605   8.555  0.2442 -2.9756  0.1136
44572SOL     OW51707   1.407  13.744   7.431  0.0719 -0.1447  0.5032
44572SOL    HW151708   1.429  13.822   7.381  0.5095  0.1750  1.1692
44572SOL    HW251709   1.385  13.678   7.365  1.0175  0.1462 -0.1302
44573SOL     OW51710   5.038   2.943   6.236  0.1356 -0.2143 -0.5558
44573SOL    HW151711   5.093   2.945   6.158 -1.2862  0.1683 -1.5892
44573SOL    HW251712   5.005   2.854   6.240  1.5432 -0.7297  0.6295
44574SOL     OW51713   4.149   1.825  13.018  0.3047 -0.1856 -0.4888
44574SOL    HW151714   4.230   1.822  13.069  0.2313  3.1611  0.0214
44574SOL    HW251715   4.169   1.883  12.944 -1.1498 -0.6918 -1.3254
44575SOL     OW51716   9.876   9.705   6.369 -0.4579 -0.2819 -0.1904
44575SOL    HW151717   9.802   9.762   6.346  0.0794  0.4192 -0.2145
44575SOL    HW251718   9.856   9.622   6.326 -1.1353 -0.0358 -0.3646
44576SOL     OW51719   8.705  13.933   5.368  0.8714 -0.0152 -0.5114
44576SOL    HW151720   8.642  13.974   5.309 -0.9686 -0.5098  0.9990
44576SOL    HW251721   8.666  13.848   5.389  2.2333 -0.4953  0.2043
44577SOL     OW51722   1.665   4.416   3.452 -0.2941  0.4347  0.1900
44577SOL    HW151723   1.697   4.376   3.371 -0.3464 -0.5341  0.6259
44577SOL    HW251724   1.724   4.490   3.467  1.5778 -1.0717  0.7608
44578SOL     OW51725  12.304   0.850   7.719  0.5707  0.1379  0.1140
44578SOL    HW151726  12.212   0.823   7.722 -0.4228  3.1517  1.0072
44578SOL    HW251727  12.328   0.844   7.627 -0.1220 -1.7229  0.0124
44579SOL     OW51728   9.180  13.362   4.479  0.4614 -0.2925 -0.4280
44579SOL    HW151729   9.247  13.300   4.451  0.7641 -0.0122 -0.3295
44579SOL    HW251730   9.224  13.447   4.478  0.1204 -0.1134 -0.3165
44580SOL     OW51731  11.282  11.946  12.102 -0.4800  0.5465 -0.3679
44580SOL    HW151732  11.198  11.934  12.148  0.1415  0.8036  0.8902
44580SOL    HW251733  11.327  12.015  12.152  0.4965  0.3935 -1.0083
44581SOL     OW51734  11.305   6.983   3.036 -0.6794 -0.3062  0.3577
44581SOL    HW151735  11.283   6.974   3.128  1.5026  0.9881  1.0917
44581SOL    HW251736  11.382   7.041   3.035  0.4732 -1.6992 -2.1272
44582SOL     OW51737   2.668   6.636   3.601  0.3541 -0.1403  0.1631
44582SOL    HW151738   2.625   6.721   3.589  1.0276  0.4377  1.5943
44582SOL    HW251739   2.599   6.572   3.585  0.0714  0.5956 -1.9974
44583SOL     OW51740   6.215  13.329   7.649  0.0512 -0.0715 -0.3071
44583SOL    HW151741   6.205  13.285   7.734  0.0230  1.3943  0.4738
44583SOL    HW251742   6.239  13.258   7.589  0.8932 -1.0294  1.0744
44584SOL     OW51743   5.412  10.581   5.743  0.5665  0.4153  0.3106
44584SOL    HW151744   5.350  10.517   5.709 -0.8718  1.6810  0.4839
44584SOL    HW251745   5.490  10.570   5.689 -1.1289  1.3830 -2.4987
44585SOL     OW51746   6.789   2.104  12.500  0.1898  0.1755  0.0394
44585SOL    HW151747   6.843   2.168  12.452  0.2369  0.7362  0.8280
44585SOL    HW251748   6.843   2.025  12.503  0.2853  0.2084 -0.6146
44586SOL     OW51749  12.369  12.419   7.407 -0.2439 -0.4848 -0.1866
44586SOL    HW151750  12.283  12.386   7.434 -1.0756  0.8204 -1.0756
44586SOL    HW251751  12.366  12.414   7.311  0.5774 -0.2007 -0.2276
44587SOL     OW51752  11.655   7.362   6.837 -0.1808  0.0853  0.1998
44587SOL    HW151753  11.619   7.279   6.807 -1.0509  1.0101 -1.5147
44587SOL    HW251754  11.736   7.373   6.788  0.1816  0.0168  0.7851
44588SOL     OW51755  12.974  11.737   2.048 -0.0885 -0.7483  0.0286
44588SOL    HW151756  12.892  11.785   2.036  0.0960 -0.4962 -0.2279
44588SOL    HW251757  12.965  11.696   2.134  0.0011  0.2417  0.5225
44589SOL     OW51758  10.455   9.859   9.402 -0.0390 -0.0399  0.2675
44589SOL    HW151759  10.410   9.775   9.414 -3.3691  1.6997  1.3174
44589SOL    HW251760  10.446   9.903   9.487  0.3909  1.9113 -0.6516
44590SOL     OW51761  11.700   2.881   8.179  0.2533  1.1805 -0.4682
44590SOL    HW151762  11.792   2.893   8.154  1.1552 -1.4731  1.0883
44590SOL    HW251763  11.681   2.790   8.157 -1.4646  1.2000  0.7426
44591SOL     OW51764   8.269   8.184   6.186  0.0149 -0.2600  0.6334
44591SOL    HW151765   8.280   8.186   6.282 -0.3931 -0.1550  0.6766
44591SOL    HW251766   8.359   8.187   6.153  0.2019 -1.1845  1.0256
44592SOL     OW51767   7.312   5.522   0.794  0.3812 -0.4298 -0.0379
44592SOL    HW151768   7.329   5.492   0.883 -0.1617  1.4388  0.7533
44592SOL    HW251769   7.297   5.616   0.804 -0.6858 -0.3564 -1.9778
44593SOL     OW51770   9.548   1.283   0.885  0.2099 -0.5360  0.2574
44593SOL    HW151771   9.551   1.379   0.891  0.6327 -0.6355  2.2713
44593SOL    HW251772   9.481   1.258   0.949 -0.0523 -1.5895 -0.4094
44594SOL     OW51773  14.005   8.260   1.617  0.0515 -0.6829 -0.8160
44594SOL    HW151774  14.073   8.280   1.553  0.2615  1.2962 -0.0485
44594SOL    HW251775  13.987   8.167   1.605  1.0055 -0.6575 -2.8305
44595SOL     OW51776   9.378   0.946   1.187  0.1831 -0.2072 -0.4823
44595SOL    HW151777   9.320   1.019   1.164 -0.1794 -0.0202  0.9362
44595SOL    HW251778   9.318   0.874   1.209  0.4595 -0.0131  0.9925
44596SOL     OW51779   8.664   8.416   2.456  0.2307  0.3238 -0.5280
44596SOL    HW151780   8.750   8.445   2.487  0.0983  1.4256 -1.1496
44596SOL    HW251781   8.677   8.324   2.434  0.8032  0.0056  0.9859
44597SOL     OW51782  13.386  14.089  14.098  0.0655 -0.3915  0.3387
44597SOL    HW151783  13.334  14.087  14.018  0.9830  0.1099 -0.2903
44597SOL    HW251784  13.368  14.176  14.136  0.1626 -0.3582  0.3089
44598SOL     OW51785   2.796   1.566   2.246 -0.0385  0.1620 -0.1338
44598SOL    HW151786   2.855   1.633   2.280  1.4835 -0.7987 -0.7830
44598SOL    HW251787   2.807   1.492   2.306 -2.5291  0.7959  1.2311
44599SOL     OW51788   9.993   4.848  10.772  0.1543 -0.0967 -0.1179
44599SOL    HW151789  10.014   4.823  10.682  2.1026  5.0924 -1.4913
44599SOL    HW251790   9.899   4.862  10.771  0.0223 -0.9242 -1.1172
44600SOL     OW51791   8.426   9.420   8.773  0.4394 -0.3251  0.1385
44600SOL    HW151792   8.444   9.511   8.749  1.3491 -1.0674 -2.3737
44600SOL    HW251793   8.348   9.425   8.828  0.2493  1.9415 -0.2228
44601SOL     OW51794   2.699   2.467  13.733  0.1604 -0.3851 -0.4521
44601SOL    HW151795   2.771   2.445  13.673 -0.6256  2.1160 -2.5203
44601SOL    HW251796   2.741   2.517  13.803  0.5370  0.7311 -1.4403
44602SOL     OW51797   7.480   2.430   3.126  0.1117 -0.0846  0.8344
44602SOL    HW151798   7.571   2.400   3.134  0.7736  0.6739 -2.4039
44602SOL    HW251799   7.428   2.350   3.129  1.2258 -0.9046 -0.4472
44603SOL     OW51800   8.707   6.821   8.301  0.7039 -0.1407  0.8827
44603SOL    HW151801   8.710   6.880   8.226 -0.0391  0.7748  1.5461
44603SOL    HW251802   8.640   6.858   8.358  1.0732 -0.9599  1.8838
44604SOL     OW51803   9.675  13.235   5.243  0.2946 -0.3961  0.3766
44604SOL    HW151804   9.715  13.173   5.182 -0.1482 -0.1018 -0.2307
44604SOL    HW251805   9.702  13.321   5.211  0.3560 -0.2462  0.8188
44605SOL     OW51806  13.160  11.544  10.564  0.2696  0.0426  0.1734
44605SOL    HW151807  13.067  11.550  10.587  0.1716  0.0628 -0.2126
44605SOL    HW251808  13.160  11.497  10.480  0.5904  0.2405  0.0625
44606SOL     OW51809   3.625   5.528   7.784 -0.0136 -0.1724  0.8283
44606SOL    HW151810   3.574   5.600   7.821  0.5472 -0.6771  2.6909
44606SOL    HW251811   3.577   5.449   7.810 -0.2830 -0.5431 -0.6607
44607SOL     OW51812  10.139  10.955  11.031  0.2227 -0.5015  0.1488
44607SOL    HW151813  10.159  10.968  11.124  0.2821  1.1624 -0.0640
44607SOL    HW251814  10.043  10.954  11.027  0.1038  2.4328 -0.0515
44608SOL     OW51815   1.953   9.845  10.931  0.1674 -0.0902 -0.3720
44608SOL    HW151816   1.989   9.920  10.884  0.7250 -0.0350  0.1199
44608SOL    HW251817   2.030   9.801  10.968 -0.0312 -1.5791 -1.6234
44609SOL     OW51818   8.287   5.725   3.400  0.1652 -0.2425 -0.0253
44609SOL    HW151819   8.194   5.747   3.407 -0.0629 -1.5309  1.6468
44609SOL    HW251820   8.307   5.736   3.307 -1.9711 -1.0882 -0.6580
44610SOL     OW51821   8.214  13.932  11.319  0.7158  0.4871 -0.5781
44610SOL    HW151822   8.187  13.994  11.387 -0.7722 -2.0784  1.3481
44610SOL    HW251823   8.285  13.883  11.359  0.0418 -0.8484 -0.9831
44611SOL     OW51824  10.085   2.344  12.036 -0.5948 -0.2121  0.1985
44611SOL    HW151825  10.052   2.384  12.116 -1.8372  2.2134 -1.3674
44611SOL    HW251826  10.139   2.413  11.995  1.0151 -1.7905 -0.5147
44612SOL     OW51827   5.851  11.098   4.230 -0.0331  0.1423  0.0395
44612SOL    HW151828   5.815  11.042   4.299  1.3525  0.0212  0.6912
44612SOL    HW251829   5.862  11.183   4.271  2.5712 -0.3832  0.6138
44613SOL     OW51830   4.364   6.225   2.698 -0.0387 -0.1894 -0.1604
44613SOL    HW151831   4.451   6.262   2.716  0.9332 -2.0768 -0.6967
44613SOL    HW251832   4.335   6.189   2.782 -0.8466  1.4338  0.2883
44614SOL     OW51833   3.928   5.706   2.415  0.0677  0.2187  0.3366
44614SOL    HW151834   4.013   5.665   2.399  0.7140  1.4520  0.4563
44614SOL    HW251835   3.936   5.793   2.376  0.0419  1.5830  3.0882
44615SOL     OW51836   8.232  11.487   0.344  0.1068 -0.1830 -0.0201
44615SOL    HW151837   8.169  11.456   0.409  0.3458 -3.2496 -1.0561
44615SOL    HW251838   8.198  11.454   0.261  0.0860  3.1740 -1.4846
44616SOL     OW51839   5.989   9.195   0.405  0.0187 -0.1044 -0.1889
44616SOL    HW151840   5.987   9.227   0.495  0.8149 -0.5996  0.0185
44616SOL    HW251841   6.049   9.255   0.360  0.5828 -0.5810 -0.0851
44617SOL     OW51842   5.333  11.859   6.356 -0.0917 -0.3582  0.5134
44617SOL    HW151843   5.251  11.815   6.333 -0.5529 -0.1370  1.6260
44617SOL    HW251844   5.305  11.945   6.388  0.6994  0.2854 -0.4870
44618SOL     OW51845   8.409   7.839  13.314  0.0524  0.2085  0.8498
44618SOL    HW151846   8.455   7.832  13.397 -0.8748 -1.9173  1.2390
44618SOL    HW251847   8.350   7.763  13.312 -1.7221  1.5214 -0.6546
44619SOL     OW51848   3.103   1.075   0.402  0.0353 -0.1672 -0.5853
44619SOL    HW151849   3.055   1.152   0.432  0.0557  0.0653 -1.1354
44619SOL    HW251850   3.177   1.068   0.461  0.4605  0.6957 -1.0080
44620SOL     OW51851  13.441  11.157  11.117 -0.0050  0.2290 -0.3559
44620SOL    HW151852  13.504  11.227  11.099  2.8878 -1.6004  1.6576
44620SOL    HW251853  13.400  11.183  11.200  0.3128  0.0575 -0.1406
44621SOL     OW51854   4.547   6.728  13.676  0.2947 -0.0654  0.5239
44621SOL    HW151855   4.642   6.731  13.679  0.2540  1.9820  2.6644
44621SOL    HW251856   4.522   6.678  13.754 -0.3645  2.0389  1.7272
44622SOL     OW51857   5.751   4.391   2.775 -0.1778 -0.0787 -0.2477
44622SOL    HW151858   5.703   4.455   2.722 -0.3912 -0.0970 -0.0805
44622SOL    HW251859   5.741   4.423   2.865 -0.1079 -0.2326 -0.1848
44623SOL     OW51860   1.100   9.799  13.550 -0.7446 -0.5776  0.2002
44623SOL    HW151861   1.080   9.837  13.464  0.1376  2.9609  1.3683
44623SOL    HW251862   1.057   9.858  13.612  2.4629 -0.2521  2.2985
44624SOL     OW51863   4.619   6.841   7.537 -0.0905  0.5845 -0.6135
44624SOL    HW151864   4.664   6.808   7.615 -1.0711  0.6877  0.0146
44624SOL    HW251865   4.587   6.927   7.564  0.6212  1.1612 -1.5463
44625SOL     OW51866  12.826   1.656   0.892 -0.7844 -0.7847  0.6720
44625SOL    HW151867  12.785   1.603   0.960 -1.3941  0.6389  1.4477
44625SOL    HW251868  12.776   1.738   0.891  0.1803 -0.1738 -0.4200
44626SOL     OW51869  12.677   1.416   6.329 -0.5730 -0.2799  0.1801
44626SOL    HW151870  12.654   1.509   6.327 -0.0951 -0.0078  2.9052
44626SOL    HW251871  12.761   1.411   6.282 -0.6738  0.6398 -0.1203
44627SOL     OW51872   6.524  11.544   2.388  0.7909  0.1290 -0.2296
44627SOL    HW151873   6.445  11.559   2.440  0.8117 -2.2418  0.5913
44627SOL    HW251874   6.546  11.630   2.352 -1.6715  0.9988  0.1940
44628SOL     OW51875  10.749  13.722  13.969 -0.1214  0.1181 -0.2183
44628SOL    HW151876  10.689  13.786  13.931 -0.3212 -0.9625 -1.8431
44628SOL    HW251877  10.823  13.774  14.001 -0.1944  1.1510 -1.6506
44629SOL     OW51878   5.173   0.820   7.530 -0.3302  0.0482  0.1367
44629SOL    HW151879   5.088   0.845   7.494 -0.4207  0.9519  0.9153
44629SOL    HW251880   5.163   0.832   7.625  0.5720 -0.1154  0.2632
44630SOL     OW51881   9.086   0.390   1.522 -0.1493 -0.1993  0.3206
44630SOL    HW151882   8.996   0.397   1.553 -0.7354 -0.6085 -1.1808
44630SOL    HW251883   9.101   0.296   1.511  1.0110 -0.2526  1.9806
44631SOL     OW51884   6.094   3.270   6.987  0.2190 -0.1344  0.0727
44631SOL    HW151885   6.111   3.329   7.061  1.3626 -0.7757  0.3429
44631SOL    HW251886   6.040   3.200   7.024 -1.4782  0.9198 -0.3408
44632SOL     OW51887  11.806   7.570   1.530 -0.1130 -0.0066  0.6146
44632SOL    HW151888  11.716   7.552   1.503  0.0952 -0.6297  0.3370
44632SOL    HW251889  11.826   7.656   1.492 -1.1631  0.9456  2.0921
44633SOL     OW51890  10.119  12.098   2.175 -0.7040 -0.3740 -0.0315
44633SOL    HW151891  10.148  12.007   2.169 -1.6162 -0.6778 -0.0222
44633SOL    HW251892  10.026  12.095   2.151 -0.8810  0.4681  0.5125
44634SOL     OW51893  12.274  11.472   6.274 -0.6737 -0.4687  0.3089
44634SOL    HW151894  12.218  11.538   6.314 -0.6214 -1.1133  1.5070
44634SOL    HW251895  12.336  11.449   6.343 -2.4792 -3.8433  1.0430
44635SOL     OW51896   5.910   7.996  10.783 -0.3944 -0.5795 -0.3478
44635SOL    HW151897   5.872   8.026  10.700  1.2421  0.7366 -0.6771
44635SOL    HW251898   5.903   8.071  10.842  3.1984  0.4531 -0.9818
44636SOL     OW51899   7.565   6.503   1.476 -0.3186  0.1231 -0.3100
44636SOL    HW151900   7.518   6.546   1.547 -0.2685  0.0610 -0.2381
44636SOL    HW251901   7.535   6.547   1.396  0.6437  1.1108 -0.1396
44637SOL     OW51902   4.166  10.614   1.057 -0.3852  0.3085 -0.3029
44637SOL    HW151903   4.078  10.649   1.047 -0.1750  0.6855 -0.9312
44637SOL    HW251904   4.193  10.593   0.967 -0.8315 -2.3077  0.1009
44638SOL     OW51905  13.361  11.591   5.380 -0.6295 -0.3585 -0.3094
44638SOL    HW151906  13.338  11.678   5.412  2.2107 -0.0898  1.2988
44638SOL    HW251907  13.313  11.582   5.298 -1.9610  2.1794  0.0968
44639SOL     OW51908   3.635   9.405  10.873 -0.2702 -0.0700  0.9379
44639SOL    HW151909   3.550   9.447  10.860 -0.3126  0.3930  2.5118
44639SOL    HW251910   3.687   9.432  10.798 -1.5942 -0.6548 -0.2537
44640SOL     OW51911   3.048   4.438  13.840  0.7069  0.3291 -0.2878
44640SOL    HW151912   2.978   4.389  13.797 -0.3841  0.9855  0.6748
44640SOL    HW251913   3.120   4.375  13.850 -0.8393 -1.2951  1.4155
44641SOL     OW51914   3.062   1.046   2.233  0.0328 -0.7991  0.2450
44641SOL    HW151915   3.128   1.029   2.166  1.5185  1.3027  1.0703
44641SOL    HW251916   3.112   1.059   2.313 -1.6461 -2.4534  1.6586
44642SOL     OW51917  12.148   0.284  11.802  0.0395  0.3243 -0.2609
44642SOL    HW151918  12.121   0.195  11.823 -0.4685  0.4116 -0.5184
44642SOL    HW251919  12.179   0.279  11.712  0.2179  0.3647 -0.2021
44643SOL     OW51920   1.613   3.210   3.974 -0.6419  0.1089 -0.1368
44643SOL    HW151921   1.518   3.213   3.964 -0.7163 -0.1072  0.4738
44643SOL    HW251922   1.640   3.301   3.973 -0.6255  0.1376 -2.3203
44644SOL     OW51923   3.312   6.768   2.956  0.2044  0.7585  0.1687
44644SOL    HW151924   3.353   6.715   2.887 -0.8124 -0.0585  0.1734
44644SOL    HW251925   3.383   6.823   2.988  1.7129 -1.5897  1.1608
44645SOL     OW51926   3.758   1.315   8.876 -0.0527  0.2540 -0.3595
44645SOL    HW151927   3.780   1.229   8.913 -0.6964  0.4774  0.5861
44645SOL    HW251928   3.831   1.372   8.902 -0.0784  0.2073 -0.1854
44646SOL     OW51929   8.835   5.355   9.900 -0.0035  0.0362 -0.3950
44646SOL    HW151930   8.801   5.337   9.813 -0.6707  0.6241 -0.2592
44646SOL    HW251931   8.876   5.272   9.927  1.0980  0.1339 -1.6556
44647SOL     OW51932   9.857   8.476  10.888 -0.0959  0.0506 -0.6536
44647SOL    HW151933   9.923   8.522  10.939  3.1656 -3.5456 -1.1221
44647SOL    HW251934   9.826   8.407  10.946  2.2837 -2.9119 -2.5805
44648SOL     OW51935   1.634  10.796   3.903 -0.1703 -0.3226 -0.4229
44648SOL    HW151936   1.558  10.766   3.853 -1.1922  0.0778  0.8344
44648SOL    HW251937   1.651  10.725   3.966 -0.0576 -0.0404 -0.1302
44649SOL     OW51938   9.434   1.032  14.055  0.0818 -0.0302  0.2512
44649SOL    HW151939   9.452   0.967  14.123  0.3945  0.8875  1.0720
44649SOL    HW251940   9.361   0.996  14.005  2.6070 -2.8850 -1.7930
44650SOL     OW51941  10.320   6.725  13.312 -0.3822  0.0495 -0.1073
44650SOL    HW151942  10.399   6.759  13.354 -0.5534  0.8462 -0.4095
44650SOL    HW251943  10.319   6.632  13.334  0.3963  0.1248  0.2779
44651SOL     OW51944  10.944  12.493  12.261 -0.3303 -0.0761 -0.2661
44651SOL    HW151945  10.862  12.449  12.280 -0.9576  0.5649 -1.3810
44651SOL    HW251946  10.963  12.472  12.170  0.7537 -0.2116 -0.0271
44652SOL     OW51947   1.734   8.137  12.189 -0.3013 -0.3499  0.7288
44652SOL    HW151948   1.813   8.172  12.230 -0.3686 -0.0489  0.6052
44652SOL    HW251949   1.665   8.153  12.254 -0.2273 -0.8106  0.9314
44653SOL     OW51950   3.815   0.142   9.239  0.0612  0.3027 -0.0351
44653SOL    HW151951   3.881   0.199   9.198  1.0179 -1.3126 -0.8355
44653SOL    HW251952   3.863   0.096   9.308 -0.7653  0.6485  0.7770
44654SOL     OW51953   1.609   5.925   0.901 -0.1486  0.0822  0.0160
44654SOL    HW151954   1.621   6.006   0.851  1.6149 -0.2147 -0.0930
44654SOL    HW251955   1.632   5.949   0.991 -1.5470  0.1607  0.3787
44655SOL     OW51956   4.891  13.612   0.625  0.0929  0.3292  0.0710
44655SOL    HW151957   4.837  13.544   0.665  1.0228  0.2715  1.2713
44655SOL    HW251958   4.879  13.600   0.531 -1.0178 -0.4507  0.2968
44656SOL     OW51959   4.511   6.109   4.285 -0.1062 -0.5506  0.4172
44656SOL    HW151960   4.485   6.017   4.290 -0.3624 -0.5145 -0.2317
44656SOL    HW251961   4.459   6.145   4.213 -1.0864  0.4550  1.5858
44657SOL     OW51962   3.742   9.148  10.436 -0.2952 -0.2979  0.1072
44657SOL    HW151963   3.812   9.116  10.379  0.6704  0.1599  1.0104
44657SOL    HW251964   3.719   9.234  10.400  1.0493  0.4647  0.9917
44658SOL     OW51965  11.647   5.659   4.165  0.2197 -0.1533 -0.2310
44658SOL    HW151966  11.590   5.721   4.119  0.8933 -0.0969 -0.9995
44658SOL    HW251967  11.713   5.715   4.207  0.5908 -0.3206 -0.5910
44659SOL     OW51968   7.452  14.147  12.193 -0.1676  0.0405 -0.6198
44659SOL    HW151969   7.392  14.220  12.209 -0.7187 -0.0909 -1.9701
44659SOL    HW251970   7.396  14.069  12.195  0.4502 -0.4123  1.0399
44660SOL     OW51971   6.457   7.838  13.288  0.3332 -0.4495 -0.0006
44660SOL    HW151972   6.525   7.792  13.337 -1.0227 -1.0083  1.4437
44660SOL    HW251973   6.420   7.770  13.231 -0.6936 -0.8122  1.0719
44661SOL     OW51974  11.905  13.725  10.289 -0.0843  0.1684 -0.3068
44661SOL    HW151975  11.836  13.716  10.355  0.3983  1.3242  0.3902
44661SOL    HW251976  11.917  13.819  10.280  0.7347 -0.0012 -1.1416
44662SOL     OW51977   5.922   8.664   2.224 -0.4169 -0.0409 -0.4002
44662SOL    HW151978   5.893   8.726   2.292 -0.7158  1.9473 -2.2183
44662SOL    HW251979   6.017   8.658   2.236 -0.5668 -0.4279  0.7207
44663SOL     OW51980  13.233   8.053   5.537  0.5296 -0.0390 -0.2617
44663SOL    HW151981  13.159   8.078   5.483 -0.0344 -1.8714 -0.3949
44663SOL    HW251982  13.213   8.089   5.624 -1.2554 -1.7222  0.0687
44664SOL     OW51983   3.928   9.386   2.322 -0.6194  0.3843  0.5754
44664SOL    HW151984   4.000   9.327   2.303  1.2042  2.6812 -0.1187
44664SOL    HW251985   3.854   9.352   2.272  0.0029 -1.8935  1.1113
44665SOL     OW51986  13.658   4.538   4.684  0.4641 -0.5707  0.3447
44665SOL    HW151987  13.701   4.537   4.770  0.0905 -1.2630  0.5288
44665SOL    HW251988  13.708   4.603   4.633  1.4162 -0.9984  0.7104
44666SOL     OW51989  11.768  11.045   8.257 -0.4066  0.3621 -0.0727
44666SOL    HW151990  11.761  10.959   8.215  0.1180  1.8924 -3.6021
44666SOL    HW251991  11.861  11.052   8.282 -0.2591  0.2413 -0.5809
44667SOL     OW51992   4.346   8.599   9.764 -0.2292 -0.1096 -0.3439
44667SOL    HW151993   4.319   8.685   9.730 -2.4291 -0.7471 -0.3710
44667SOL    HW251994   4.355   8.613   9.859 -1.1424  0.0390 -0.2701
44668SOL     OW51995   1.595   2.121   9.817  0.0216  1.0305  0.0746
44668SOL    HW151996   1.583   2.212   9.788  1.2449  1.2861  0.3207
44668SOL    HW251997   1.672   2.124   9.874  0.8838 -0.3831 -0.9576
44669SOL     OW51998   5.057  11.697  13.021  0.0399 -0.1510 -0.1385
44669SOL    HW151999   5.015  11.616  12.992 -0.4617 -0.1550  0.5613
44669SOL    HW252000   5.124  11.668  13.083  0.9778 -0.1320 -1.1177
44670SOL     OW52001  13.278  13.426   5.052 -0.3016 -0.7934 -0.2920
44670SOL    HW152002  13.194  13.471   5.060  0.2534  0.3350 -0.5296
44670SOL    HW252003  13.341  13.488   5.089  1.0332  0.4033 -4.1345
44671SOL     OW52004   8.408  13.587  13.056 -0.4391  0.1077 -0.2218
44671SOL    HW152005   8.359  13.631  12.986 -2.3587 -0.3152  0.7780
44671SOL    HW252006   8.475  13.651  13.082 -0.2178  0.5898 -1.8624
44672SOL     OW52007   8.635  13.774   9.880 -0.0074 -0.2454  0.4830
44672SOL    HW152008   8.704  13.819   9.930  0.8574 -0.1374 -0.7478
44672SOL    HW252009   8.630  13.687   9.920 -0.8745  0.5169  2.1349
44673SOL     OW52010  12.287  12.144   8.262 -0.6148 -0.0830 -0.4622
44673SOL    HW152011  12.329  12.067   8.300 -0.1109  0.3184 -0.1864
44673SOL    HW252012  12.247  12.189   8.336 -0.5792  0.1198 -0.5653
44674SOL     OW52013   4.495   1.256   1.405  0.7040 -0.3226 -0.3177
44674SOL    HW152014   4.520   1.311   1.331 -0.6645 -0.2035 -0.7181
44674SOL    HW252015   4.443   1.313   1.462  0.9749 -0.6584  0.2807
44675SOL     OW52016  12.947  11.524   8.902 -0.0835  0.4640 -0.1552
44675SOL    HW152017  13.041  11.503   8.900 -0.5761 -2.0104  0.3716
44675SOL    HW252018  12.945  11.620   8.893  2.4300  0.5165 -1.1627
44676SOL     OW52019   5.499   5.892   1.581 -0.3441  0.0691 -0.0673
44676SOL    HW152020   5.473   5.839   1.656  0.1266 -0.9366 -0.5951
44676SOL    HW252021   5.515   5.829   1.511  0.8567  0.8501 -0.5386
44677SOL     OW52022   6.456   4.680   0.002  0.5675 -0.6512  0.9092
44677SOL    HW152023   6.365   4.673  -0.027  0.4423  0.9535  0.8162
44677SOL    HW252024   6.505   4.623  -0.057  0.0703  1.1042 -1.3330
44678SOL     OW52025   3.603  11.944  10.251 -0.2092  0.6321  0.1601
44678SOL    HW152026   3.694  11.934  10.277  0.3000  0.9792 -1.4070
44678SOL    HW252027   3.580  12.033  10.279  0.1155  0.7601  0.0237
44679SOL     OW52028   4.657   2.113   8.417  0.5524 -0.2992  0.1283
44679SOL    HW152029   4.703   2.077   8.341  0.3712 -1.2451  0.4522
44679SOL    HW252030   4.676   2.052   8.488  0.8777  0.6859  0.8992
44680SOL     OW52031  12.062  11.711   2.632 -0.5509 -0.4741  0.1366
44680SOL    HW152032  12.155  11.692   2.621 -0.2885  0.1487  1.1559
44680SOL    HW252033  12.027  11.635   2.678 -0.5021 -0.5969 -0.0275
44681SOL     OW52034   5.022   2.922  11.692 -0.4471 -0.4941  0.1835
44681SOL    HW152035   4.952   2.982  11.668 -0.6174 -0.9376 -0.4561
44681SOL    HW252036   5.018   2.917  11.787 -0.9645 -0.1372  0.1817
44682SOL     OW52037   2.367   9.103   0.073  0.2961  0.4000 -0.0248
44682SOL    HW152038   2.302   9.174   0.066  0.7587  1.2274  2.7824
44682SOL    HW252039   2.451   9.149   0.079  0.9407 -0.5729 -1.2354
44683SOL     OW52040  12.899   4.849   9.070 -0.0271  0.2690  0.2896
44683SOL    HW152041  12.924   4.756   9.067 -1.4696 -0.1193 -2.0858
44683SOL    HW252042  12.819   4.850   9.123  0.8729  0.4527  1.7075
44684SOL     OW52043   3.803  11.369   1.111 -0.4352 -0.1754 -0.3128
44684SOL    HW152044   3.834  11.279   1.115  2.0594  0.6591  1.7588
44684SOL    HW252045   3.844  11.404   1.032 -2.0703 -0.9939 -1.5852
44685SOL     OW52046   5.390   2.797   5.791  0.0798 -0.2929 -0.2909
44685SOL    HW152047   5.394   2.768   5.700 -1.3292 -1.3999 -0.0260
44685SOL    HW252048   5.327   2.870   5.790  1.1380  0.6554 -0.4059
44686SOL     OW52049   4.824   2.573   9.992  0.2618 -0.7901 -0.3606
44686SOL    HW152050   4.769   2.509   9.947 -0.0171 -1.8747  1.4435
44686SOL    HW252051   4.882   2.521  10.046  2.3376  0.3783 -1.3313
44687SOL     OW52052  10.898  12.604   0.684 -0.2847  0.3442 -0.0191
44687SOL    HW152053  10.913  12.513   0.662  1.0604  0.0513  1.8708
44687SOL    HW252054  10.831  12.601   0.753  0.7992  0.6203  1.0885
44688SOL     OW52055   2.860   7.258   9.070 -0.1749 -0.0280 -0.1150
44688SOL    HW152056   2.922   7.185   9.080 -0.8456 -0.6033 -0.0774
44688SOL    HW252057   2.801   7.249   9.145  1.1750  2.0199  1.3094
44689SOL     OW52058  13.365   8.380   8.777 -0.0060  0.3739  0.1666
44689SOL    HW152059  13.379   8.474   8.769 -0.8504  0.5629  0.7978
44689SOL    HW252060  13.277   8.365   8.742  0.2825 -0.2510 -0.3237
44690SOL     OW52061   7.168   2.985   4.704  0.5325  0.3959  0.5703
44690SOL    HW152062   7.146   3.078   4.712  0.6882  0.4980 -0.1194
44690SOL    HW252063   7.257   2.978   4.739  1.9520  1.1689 -2.5117
44691SOL     OW52064   9.678   2.829   1.822 -0.0327  0.1740  1.0128
44691SOL    HW152065   9.668   2.770   1.896 -0.2434 -0.2016  0.6938
44691SOL    HW252066   9.698   2.771   1.748 -1.4585  0.3641  0.4431
44692SOL     OW52067   8.733   9.456   8.317 -0.6655 -0.3057  0.6452
44692SOL    HW152068   8.724   9.496   8.231 -1.9746 -1.7408  0.0571
44692SOL    HW252069   8.823   9.475   8.343 -0.6472  1.2636 -0.4463
44693SOL     OW52070   1.070   0.099   0.516  0.0824 -0.2387  0.5350
44693SOL    HW152071   1.012   0.059   0.450  0.1769  0.5799 -0.0704
44693SOL    HW252072   1.018   0.100   0.596 -0.5167 -0.0856  0.1516
44694SOL     OW52073  13.164   6.881   5.681  0.7048 -0.0687 -0.1724
44694SOL    HW152074  13.241   6.869   5.737  1.2589  2.4261 -0.2493
44694SOL    HW252075  13.199   6.898   5.594 -0.1010 -2.2156 -0.9771
44695SOL     OW52076  12.828   4.232  12.406 -0.0631 -0.8821 -0.6943
44695SOL    HW152077  12.888   4.265  12.472  1.1551 -0.6219 -1.8900
44695SOL    HW252078  12.795   4.150  12.442 -1.6632  0.5941  1.4900
44696SOL     OW52079   7.332  10.013   7.668  0.1992 -0.0784 -0.0573
44696SOL    HW152080   7.329  10.105   7.643  0.8434 -0.3536 -1.1635
44696SOL    HW252081   7.288   9.967   7.597 -0.3641 -0.6213  0.6159
44697SOL     OW52082  13.778  10.381  13.291  0.4412  1.0382 -0.1219
44697SOL    HW152083  13.861  10.419  13.319  0.8964  0.1742 -0.2817
44697SOL    HW252084  13.801  10.296  13.256 -0.6797  0.1032  1.2896
44698SOL     OW52085   8.948   0.091   9.760  0.6649 -0.0747  0.4464
44698SOL    HW152086   8.859   0.056   9.756  0.9373 -0.8493  0.9697
44698SOL    HW252087   8.952   0.139   9.843  0.6532  0.2064  0.2869
44699SOL     OW52088  10.336   9.213   8.667 -0.4034 -0.0673  0.0425
44699SOL    HW152089  10.299   9.295   8.635  1.8062  0.1572 -2.2637
44699SOL    HW252090  10.369   9.170   8.589 -0.3024 -2.5787  1.3647
44700SOL     OW52091  11.815   7.018   5.942 -0.2938  0.1408 -0.1898
44700SOL    HW152092  11.881   7.062   5.888 -2.1695  2.1579 -0.9879
44700SOL    HW252093  11.807   7.073   6.020 -0.7218 -0.3324  0.1073
44701SOL     OW52094   8.330   8.575   7.415  0.4003  0.0227 -0.6951
44701SOL    HW152095   8.288   8.509   7.360 -0.2681 -1.1155  1.0851
44701SOL    HW252096   8.386   8.525   7.474  0.5028  1.1133  0.1657
44702SOL     OW52097  10.035   1.445   4.623  0.1913  0.3390  0.2013
44702SOL    HW152098  10.120   1.402   4.626  0.4920  0.9676  1.2334
44702SOL    HW252099   9.987   1.409   4.698  0.1897  1.2538  0.6541
44703SOL     OW52100  10.922   1.771   7.174  0.3753  0.2402 -0.0420
44703SOL    HW152101  10.877   1.852   7.151  0.7787  0.5239  0.1500
44703SOL    HW252102  11.010   1.782   7.137 -0.0142 -0.7487 -1.3467
44704SOL     OW52103  12.938   6.946  11.970  0.7437  0.5866  0.1301
44704SOL    HW152104  12.896   6.894  12.039 -0.4873  2.2355  0.6854
44704SOL    HW252105  12.889   6.925  11.891  2.3257 -1.5146 -0.3942
44705SOL     OW52106   1.272   5.387  13.514  0.0007 -0.1081 -0.1478
44705SOL    HW152107   1.204   5.339  13.467  0.0630 -0.8991  0.5530
44705SOL    HW252108   1.232   5.410  13.598 -0.1724  1.4497 -0.6330
44706SOL     OW52109   4.769  11.364   8.144 -0.0197  0.3611 -0.2171
44706SOL    HW152110   4.837  11.430   8.135 -0.0235  0.7069  1.7260
44706SOL    HW252111   4.703  11.388   8.080  0.8727  1.0739 -0.8882
44707SOL     OW52112  13.826   7.964   1.541 -0.2938 -0.3154 -0.5093
44707SOL    HW152113  13.819   7.983   1.634  1.5597 -1.0520 -0.1661
44707SOL    HW252114  13.898   7.901   1.535 -0.0289  0.0989 -2.4758
44708SOL     OW52115   7.482   6.706  11.134  0.3717  0.1794 -0.4208
44708SOL    HW152116   7.393   6.682  11.108 -0.5286  0.3608  2.1542
44708SOL    HW252117   7.539   6.651  11.080 -1.3940 -1.9470 -0.2437
44709SOL     OW52118   1.230   9.394   7.250 -0.5050 -0.4274 -0.2699
44709SOL    HW152119   1.166   9.459   7.279  0.2177  0.2688 -0.2052
44709SOL    HW252120   1.178   9.331   7.199 -1.3691 -0.3167  0.4389
44710SOL     OW52121   3.397   7.421   4.815 -0.1013  0.8954  0.3802
44710SOL    HW152122   3.476   7.431   4.762 -0.3257  2.3073  0.2869
44710SOL    HW252123   3.329   7.468   4.766 -0.7855  0.5040  0.9367
44711SOL     OW52124   3.439  10.285  13.810  0.4268  0.4607  0.0666
44711SOL    HW152125   3.352  10.304  13.846  0.6536  0.9248  0.3723
44711SOL    HW252126   3.500  10.320  13.875  0.9832 -4.3659  2.5576
44712SOL     OW52127   6.652   6.652  12.070  0.0290 -0.8404 -0.1760
44712SOL    HW152128   6.746   6.665  12.076 -0.0375  0.1152 -1.0417
44712SOL    HW252129   6.616   6.699  12.145  0.1527 -0.2130 -0.5125
44713SOL     OW52130   4.389   8.329   9.797 -0.6430 -0.1569  0.1147
44713SOL    HW152131   4.362   8.417   9.772 -1.8561 -0.4566  0.3170
44713SOL    HW252132   4.347   8.271   9.734 -0.9412 -0.6764  0.7739
44714SOL     OW52133  10.123   9.901   2.180 -0.4476  0.2378 -0.2573
44714SOL    HW152134  10.128   9.812   2.213 -1.0240 -0.1798 -1.2504
44714SOL    HW252135  10.174   9.900   2.099  0.1692  1.0007  0.1137
44715SOL     OW52136   5.620  11.834   9.646 -0.3446  0.1587  0.5266
44715SOL    HW152137   5.527  11.822   9.663 -0.2011 -0.0295  1.2114
44715SOL    HW252138   5.663  11.811   9.728  0.4342 -1.4120 -0.2753
44716SOL     OW52139  11.968   9.945  14.078 -0.2862 -0.1598 -0.4389
44716SOL    HW152140  12.022   9.991  14.142  0.5083 -0.5750 -0.8091
44716SOL    HW252141  11.938   9.867  14.124 -0.0973 -0.2239 -0.4245
44717SOL     OW52142  13.637   5.320  10.910  0.5854  0.3520  0.2829
44717SOL    HW152143  13.708   5.294  10.969  0.8609 -0.0261 -0.2138
44717SOL    HW252144  13.566   5.345  10.969  1.0932  0.6521  0.7880
44718SOL     OW52145   2.685   6.437   5.202  0.1784  0.0437 -0.3741
44718SOL    HW152146   2.768   6.482   5.192 -0.9003  2.0485 -0.9462
44718SOL    HW252147   2.707   6.344   5.200  2.2444  0.5056 -1.7570
44719SOL     OW52148   1.234  10.289   3.740  0.2806  0.8360  0.1367
44719SOL    HW152149   1.237  10.266   3.647 -1.1924  0.4964  0.1425
44719SOL    HW252150   1.296  10.230   3.782 -1.5124 -1.4234 -0.1996
44720SOL     OW52151   5.072   6.843   1.980  0.3321 -0.0622  0.7415
44720SOL    HW152152   5.058   6.891   1.898  0.3074 -0.3137  0.5976
44720SOL    HW252153   5.003   6.776   1.980 -0.4924  0.7644  1.5962
44721SOL     OW52154   2.099   7.428  10.668  0.3216  0.1929 -0.4281
44721SOL    HW152155   2.115   7.425  10.762  0.1408 -0.3012 -0.4128
44721SOL    HW252156   2.186   7.424  10.629  0.3082 -1.9790 -0.3329
44722SOL     OW52157  12.592  14.136   1.879  0.0913 -0.1743  0.1698
44722SOL    HW152158  12.528  14.207   1.871  0.7876  0.3487 -0.9963
44722SOL    HW252159  12.558  14.066   1.823  0.3733 -0.0104 -0.2133
44723SOL     OW52160   5.936  13.305   8.786 -0.2773  0.2382 -0.1747
44723SOL    HW152161   5.989  13.317   8.865  0.8958 -2.3897 -0.4894
44723SOL    HW252162   5.984  13.352   8.718  1.2307 -1.3685 -0.2674
44724SOL     OW52163   7.879  12.281   1.787 -0.0748  0.0146 -0.4207
44724SOL    HW152164   7.885  12.312   1.878 -3.2418 -1.7476  0.5352
44724SOL    HW252165   7.916  12.193   1.789  2.1466  0.8568 -1.4874
44725SOL     OW52166   1.706   1.473  11.646 -0.2269  0.8339 -0.0443
44725SOL    HW152167   1.802   1.481  11.644 -0.1088 -0.5018 -0.3756
44725SOL    HW252168   1.687   1.433  11.730 -0.2618 -1.2831 -1.0032
44726SOL     OW52169   0.106   6.029  11.041  0.3252 -0.1298  0.5575
44726SOL    HW152170   0.032   6.065  11.090 -0.2890 -0.3479 -0.1714
44726SOL    HW252171   0.125   5.945  11.084  0.3206  0.0519  0.9121
44727SOL     OW52172   4.363   5.054  12.176 -0.0414  0.4492 -0.2229
44727SOL    HW152173   4.444   5.007  12.197 -0.2772 -0.6197 -1.5861
44727SOL    HW252174   4.385   5.104  12.097 -0.0663  1.9531  0.6957
44728SOL     OW52175   3.156   7.600  12.054  0.1367  0.9190 -0.0868
44728SOL    HW152176   3.075   7.609  12.105  0.7088 -1.9544  1.5576
44728SOL    HW252177   3.127   7.604  11.963 -1.7133  1.0086  0.4659
44729SOL     OW52178   3.617   3.925   6.712  0.2333 -0.7504  0.5318
44729SOL    HW152179   3.650   4.014   6.709  0.6669 -0.8694  1.4012
44729SOL    HW252180   3.551   3.921   6.643  2.0784 -0.5350 -1.3111
44730SOL     OW52181   1.487   0.161   3.266 -0.3075  0.0291 -0.4621
44730SOL    HW152182   1.582   0.172   3.266 -0.2068 -0.5829  1.3721
44730SOL    HW252183   1.474   0.067   3.252 -0.7456  0.3438 -2.5423
44731SOL     OW52184  10.979   7.136   3.264  0.3100  0.8296 -0.2800
44731SOL    HW152185  10.943   7.215   3.304  1.1170  0.9634  0.1862
44731SOL    HW252186  10.983   7.073   3.335  0.1519  0.5239 -0.5381
44732SOL     OW52187   2.311   7.270  10.066  0.0941  0.2182 -0.5484
44732SOL    HW152188   2.224   7.283  10.027  0.2643  0.6226 -0.8042
44732SOL    HW252189   2.338   7.183  10.037 -2.0078 -1.8167  2.9648
44733SOL     OW52190   1.726  12.456   3.934 -0.5400 -0.2317 -0.2401
44733SOL    HW152191   1.727  12.404   4.015 -1.2414 -0.8160 -0.5989
44733SOL    HW252192   1.769  12.538   3.958  0.7966 -1.0411  0.2882
44734SOL     OW52193   4.594  10.994   6.899  0.1010 -0.3474 -0.0827
44734SOL    HW152194   4.637  10.992   6.813  2.1604  2.1823  0.7351
44734SOL    HW252195   4.565  11.085   6.909  1.6315 -0.0487  2.6136
44735SOL     OW52196   8.921   2.404   7.394 -0.2510 -0.1761  0.3848
44735SOL    HW152197   8.945   2.384   7.484  0.9934 -2.5930 -0.3939
44735SOL    HW252198   8.838   2.451   7.401 -0.0141 -0.0036  2.7740
44736SOL     OW52199   1.726   2.266   9.053  0.0903  0.0254 -0.5216
44736SOL    HW152200   1.735   2.232   8.964 -0.6783  0.0484 -0.6166
44736SOL    HW252201   1.645   2.226   9.086  0.4792 -0.1474  0.2413
44737SOL     OW52202   7.142  13.713  13.569 -0.0548  0.5147 -0.0979
44737SOL    HW152203   7.153  13.656  13.493  0.5254  0.1800  0.2255
44737SOL    HW252204   7.056  13.691  13.604 -0.0477  0.2026 -0.2722
44738SOL     OW52205  11.841   0.614   2.333 -0.0290  0.7960 -0.2366
44738SOL    HW152206  11.785   0.689   2.310 -1.7284 -0.8573 -1.8041
44738SOL    HW252207  11.922   0.631   2.286  0.0775  2.2276  0.3960
44739SOL     OW52208  13.233   5.678   3.368  0.5275 -0.1591 -0.7799
44739SOL    HW152209  13.243   5.712   3.457 -0.9274  0.3417 -0.7866
44739SOL    HW252210  13.277   5.592   3.370  0.5758 -0.1218  0.3909
44740SOL     OW52211   7.625   0.851   9.621 -0.0478 -0.0226 -0.2155
44740SOL    HW152212   7.703   0.904   9.636 -0.6905  0.7491  0.5238
44740SOL    HW252213   7.560   0.914   9.590 -0.4082 -0.6413 -0.7462
44741SOL     OW52214   1.584   7.460   0.149 -0.0994  0.0068 -0.4775
44741SOL    HW152215   1.553   7.545   0.178  1.7106  0.2368  0.9501
44741SOL    HW252216   1.578   7.404   0.227  2.3706 -0.0943 -0.2995
44742SOL     OW52217  12.929   1.659   3.398  0.1066 -0.3184  0.3320
44742SOL    HW152218  12.863   1.593   3.418  0.7246 -0.5186  1.9065
44742SOL    HW252219  13.011   1.610   3.390  0.0556 -0.1119 -1.9209
44743SOL     OW52220   6.537   6.688  10.608 -0.1615 -0.2147  0.1973
44743SOL    HW152221   6.566   6.769  10.566  0.0131 -0.1890  0.3655
44743SOL    HW252222   6.617   6.648  10.642 -0.1538 -0.8291 -0.5202
44744SOL     OW52223  10.192   6.899   0.160  0.3860 -0.6223 -0.1908
44744SOL    HW152224  10.110   6.896   0.209 -0.7474 -0.9190 -1.9846
44744SOL    HW252225  10.207   6.992   0.144  0.2068 -0.5870 -0.1572
44745SOL     OW52226  13.331   3.051  13.832 -0.2576  0.3523  0.5629
44745SOL    HW152227  13.305   3.050  13.925 -0.8067  0.9137  0.4233
44745SOL    HW252228  13.344   3.144  13.813  0.0847  0.2168  0.1373
44746SOL     OW52229  10.866  12.551   5.973  0.6001  0.2153  0.3050
44746SOL    HW152230  10.949  12.558   5.926 -0.7298  0.8286 -2.1660
44746SOL    HW252231  10.869  12.466   6.016  2.9149  0.6916  1.2000
44747SOL     OW52232   6.530   0.690   5.907 -0.2883  0.1905 -0.4912
44747SOL    HW152233   6.593   0.741   5.958 -0.6996  0.6430 -0.4236
44747SOL    HW252234   6.478   0.756   5.860  0.3241 -0.2268 -1.7966
44748SOL     OW52235   5.252   1.821   5.663  0.0824  0.1216  0.4754
44748SOL    HW152236   5.166   1.856   5.637 -0.0520 -0.4066  0.1958
44748SOL    HW252237   5.231   1.750   5.723  0.2902 -0.4449 -0.1079
44749SOL     OW52238   6.248   5.009   9.921 -0.2632  0.3434 -0.6304
44749SOL    HW152239   6.280   4.977   9.837  1.5794  0.5762 -0.0623
44749SOL    HW252240   6.159   4.974   9.928  0.2752 -1.3583 -1.7742
44750SOL     OW52241   0.835   4.738   8.680 -0.8492 -0.1591 -0.5488
44750SOL    HW152242   0.751   4.786   8.674 -1.7580 -1.6903 -0.5327
44750SOL    HW252243   0.825   4.682   8.757  0.6378  0.3989  0.0926
44751SOL     OW52244   9.825  13.610  10.745  0.3363 -0.0462  0.2897
44751SOL    HW152245   9.782  13.680  10.695  0.3538  0.6931  1.2940
44751SOL    HW252246   9.911  13.601  10.705  0.0693 -0.0044 -0.3058
44752SOL     OW52247   0.580   3.704   3.842  0.1881  0.2239 -0.1935
44752SOL    HW152248   0.625   3.698   3.758  0.2765  0.7066 -0.1856
44752SOL    HW252249   0.487   3.699   3.821  0.2213 -2.5970 -0.0620
44753SOL     OW52250  13.498   3.767  11.508  0.9188 -0.4260 -0.5236
44753SOL    HW152251  13.446   3.800  11.435  0.9543  3.0430  0.8170
44753SOL    HW252252  13.587   3.799  11.490  0.9531  0.3438  0.8875
44754SOL     OW52253  10.202   2.469   0.761 -0.0939  0.1477 -0.5141
44754SOL    HW152254  10.159   2.525   0.826 -0.1497  0.9640 -1.2303
44754SOL    HW252255  10.291   2.504   0.755  0.6169 -1.3025  0.6910
44755SOL     OW52256  13.964   6.156  10.209  0.0549 -0.4180 -0.2950
44755SOL    HW152257  13.875   6.123  10.213  0.9251 -2.9570  0.1455
44755SOL    HW252258  13.957   6.239  10.162 -2.9279  1.1885  2.5779
44756SOL     OW52259   0.864   2.473   2.401  0.1216 -0.2760 -0.6684
44756SOL    HW152260   0.775   2.500   2.380 -0.4020 -0.1002  1.5706
44756SOL    HW252261   0.894   2.538   2.464  0.8319 -1.8466  0.6724
44757SOL     OW52262   3.831  13.673   8.097 -0.1295  0.3964 -0.1043
44757SOL    HW152263   3.828  13.645   8.188 -1.3193 -0.6520 -0.4264
44757SOL    HW252264   3.870  13.599   8.051 -3.9692 -1.2682 -1.0762
44758SOL     OW52265   5.228   4.514  12.498 -0.5019 -0.0724 -0.6032
44758SOL    HW152266   5.172   4.585  12.468 -0.4897 -0.7180 -2.2548
44758SOL    HW252267   5.312   4.529  12.455  0.6784  0.8786  1.8298
44759SOL     OW52268   9.609  13.127  11.881 -0.1029 -0.2863  0.6263
44759SOL    HW152269   9.634  13.205  11.832  0.1816 -2.2072 -2.5812
44759SOL    HW252270   9.516  13.116  11.863  0.0460 -1.1423  0.3642
44760SOL     OW52271   5.289   8.121   0.896  0.3491 -0.3569 -0.1630
44760SOL    HW152272   5.282   8.075   0.812 -0.2728 -2.1337  0.8036
44760SOL    HW252273   5.199   8.134   0.924  0.5443  0.6553  0.0362
44761SOL     OW52274   8.202   5.629  10.006  0.4627 -0.1827  0.0742
44761SOL    HW152275   8.118   5.584   9.993  1.3019 -2.1915  1.0821
44761SOL    HW252276   8.264   5.558  10.023  2.8863  1.0330 -2.7818
44762SOL     OW52277   6.942   3.645   1.687 -0.3761 -0.5382  0.0615
44762SOL    HW152278   6.974   3.709   1.623 -0.3816 -0.7323 -0.1342
44762SOL    HW252279   7.004   3.572   1.681 -0.6864 -0.7886 -0.1080
44763SOL     OW52280   6.390   3.516   7.172  0.3878  0.1141  0.0326
44763SOL    HW152281   6.367   3.509   7.264 -0.1945 -1.3117 -0.1925
44763SOL    HW252282   6.364   3.605   7.147 -0.5743  0.1016  0.9379
44764SOL     OW52283  11.518   6.777   6.135 -0.7036 -0.0709 -0.5133
44764SOL    HW152284  11.468   6.733   6.066 -2.9757  0.6261  0.5935
44764SOL    HW252285  11.485   6.867   6.133 -0.8750 -0.0529  1.4807
44765SOL     OW52286  11.282   2.500  13.190 -0.0794 -0.0354 -0.2422
44765SOL    HW152287  11.312   2.410  13.189 -0.3912 -0.1813  1.1959
44765SOL    HW252288  11.196   2.497  13.232 -0.3809  0.8546 -0.7485
44766SOL     OW52289   8.403   4.685   7.017  0.5474  0.2739 -0.2994
44766SOL    HW152290   8.426   4.683   7.109  0.2539  0.5338 -0.2159
44766SOL    HW252291   8.314   4.650   7.014  0.6636 -0.0035 -0.5187
44767SOL     OW52292  10.863   6.653   2.882 -0.2596 -0.8264  0.0042
44767SOL    HW152293  10.930   6.673   2.947  0.0052 -2.0818  0.1379
44767SOL    HW252294  10.802   6.727   2.887  0.0556 -0.6348  1.2797
44768SOL     OW52295   8.272  10.376  12.581  0.6440 -0.3975 -0.3234
44768SOL    HW152296   8.188  10.335  12.600  0.9980 -1.4320 -0.9177
44768SOL    HW252297   8.276  10.378  12.485  0.7942  0.7260 -0.3098
44769SOL     OW52298   9.166  14.088   9.867 -0.7508  0.2598  0.1081
44769SOL    HW152299   9.098  14.142   9.826 -1.0688 -0.0087  0.2689
44769SOL    HW252300   9.141  13.998   9.845  0.4677  0.2093 -1.2159
44770SOL     OW52301  13.145   6.263   1.921 -0.0304 -0.2579  0.4394
44770SOL    HW152302  13.140   6.322   1.846 -2.2988 -0.9109  0.0010
44770SOL    HW252303  13.235   6.230   1.920  0.2665  0.4846 -1.4056
44771SOL     OW52304   2.742   2.488  12.540  0.1323 -0.3203 -0.6501
44771SOL    HW152305   2.821   2.462  12.492 -0.4470 -0.3592 -1.6009
44771SOL    HW252306   2.729   2.419  12.605 -0.5765 -1.6806 -2.1939
44772SOL     OW52307   3.506   3.905  11.328  0.1786  0.0208 -0.0721
44772SOL    HW152308   3.425   3.857  11.341  0.2816 -0.8358 -2.1714
44772SOL    HW252309   3.502   3.977  11.391 -1.6491 -0.6682  0.6665
44773SOL     OW52310   5.370   3.269   3.998 -0.4090 -0.5007 -0.1807
44773SOL    HW152311   5.381   3.203   4.067 -0.2252  2.1794  2.5777
44773SOL    HW252312   5.454   3.268   3.952  0.0990 -1.2446  0.7108
44774SOL     OW52313   9.280   7.495   2.328 -0.0035 -0.0317  0.1251
44774SOL    HW152314   9.310   7.544   2.404  0.1537  1.7258 -1.0228
44774SOL    HW252315   9.247   7.561   2.267  2.5320 -1.0069 -2.5804
44775SOL     OW52316   5.393   7.105  10.026  0.8647 -0.3244 -0.0615
44775SOL    HW152317   5.447   7.149   9.961  0.7162  0.5742  0.4062
44775SOL    HW252318   5.316   7.076   9.978  1.5703 -1.2754 -0.6549
44776SOL     OW52319   5.034   1.131   6.225 -0.2706 -0.0432 -0.0452
44776SOL    HW152320   4.969   1.115   6.157 -0.7804 -0.6955  0.5877
44776SOL    HW252321   5.093   1.056   6.219 -0.4031 -0.1780  0.3277
44777SOL     OW52322   6.241   2.291  12.161  0.5633  0.6236 -0.0201
44777SOL    HW152323   6.267   2.381  12.144  0.2041  1.0180  1.3504
44777SOL    HW252324   6.164   2.298  12.218  0.1889 -0.5461 -0.3462
44778SOL     OW52325   1.764  13.799  10.945 -0.2172 -0.0455  0.2000
44778SOL    HW152326   1.735  13.845  10.866  0.8173  0.9336  0.3648
44778SOL    HW252327   1.826  13.859  10.986 -1.2476 -0.2342  2.1347
44779SOL     OW52328   6.307   7.212   5.059 -0.3610  0.0177  0.2630
44779SOL    HW152329   6.392   7.169   5.069  0.1064  0.7023 -0.6503
44779SOL    HW252330   6.325   7.289   5.005 -1.6239 -0.0499 -0.2848
44780SOL     OW52331  12.159   1.912  11.677  0.3890 -0.1557  0.1179
44780SOL    HW152332  12.244   1.891  11.639  0.7224 -0.2804  0.9150
44780SOL    HW252333  12.122   1.828  11.703 -0.6057 -0.2510 -1.4743
44781SOL     OW52334  13.473  10.074   7.923  0.4515 -0.1012 -0.1666
44781SOL    HW152335  13.415  10.115   7.987  0.1140  0.9370 -1.0911
44781SOL    HW252336  13.481   9.983   7.952 -0.4342  0.1123  0.8131
44782SOL     OW52337  12.614   2.272  11.159 -0.0175 -0.3842 -0.5735
44782SOL    HW152338  12.633   2.187  11.121  0.0971 -1.2985  1.3720
44782SOL    HW252339  12.696   2.321  11.152  0.9995 -1.6860  1.2766
44783SOL     OW52340   9.127  13.896  10.147 -0.3094  0.1163 -0.4381
44783SOL    HW152341   9.105  13.910  10.239  4.0874  0.0375  0.8741
44783SOL    HW252342   9.155  13.981  10.115  0.7686 -0.3482 -0.7977
44784SOL     OW52343   9.899   5.973   7.216 -0.1633 -0.2179 -0.4948
44784SOL    HW152344   9.950   5.993   7.137 -0.4863 -0.9093 -0.8886
44784SOL    HW252345   9.832   6.041   7.219  0.1603  0.1022 -0.5441
44785SOL     OW52346   7.659  11.622  10.999  0.4162  0.2180 -0.4400
44785SOL    HW152347   7.580  11.660  11.039 -0.4290 -0.3033 -1.5625
44785SOL    HW252348   7.702  11.577  11.071  0.1541  1.2294  0.3859
44786SOL     OW52349   2.015   2.441   1.437  0.0423  0.7346  0.2492
44786SOL    HW152350   2.034   2.356   1.477 -0.1333  0.1622 -0.8442
44786SOL    HW252351   2.033   2.505   1.506 -1.4093 -0.2794  1.6330
44787SOL     OW52352   8.968  10.113   8.445  0.4507 -0.2800  0.2755
44787SOL    HW152353   9.008  10.035   8.407  0.0887 -0.4092  0.1485
44787SOL    HW252354   8.995  10.113   8.537 -0.7946 -1.4151  0.6850
44788SOL     OW52355   6.571   4.558   4.545  0.0409  0.4232 -0.0025
44788SOL    HW152356   6.478   4.536   4.548 -0.1880  1.3633  0.2204
44788SOL    HW252357   6.604   4.537   4.632  0.2430 -0.7253 -0.3437
44789SOL     OW52358   3.059   9.493  12.549  0.1554 -0.7916  0.0405
44789SOL    HW152359   3.004   9.421  12.516  1.2161 -1.1274 -1.0711
44789SOL    HW252360   2.999   9.567  12.557 -0.3299 -0.8843 -2.0475
44790SOL     OW52361   6.734   6.632   8.987  0.1672  0.0138  0.3426
44790SOL    HW152362   6.736   6.604   9.078 -0.7718 -1.9327 -0.1624
44790SOL    HW252363   6.804   6.582   8.945  0.3029  0.5555 -0.0789
44791SOL     OW52364   9.868   8.317   2.168 -0.0730  0.4117 -0.3767
44791SOL    HW152365   9.889   8.239   2.219  0.9715  1.4306  0.7956
44791SOL    HW252366   9.782   8.345   2.201  0.7817  1.3063  1.1706
44792SOL     OW52367   0.233   7.903   2.468 -0.0235  0.0545 -0.6634
44792SOL    HW152368   0.287   7.951   2.532 -0.0422  1.8581 -1.9184
44792SOL    HW252369   0.152   7.954   2.462 -1.8653 -2.4320  0.9470
44793SOL     OW52370   9.927   2.036  10.097  0.1647  0.3320  0.0548
44793SOL    HW152371   9.847   2.079  10.124  0.4271  0.5032  0.5651
44793SOL    HW252372   9.997   2.096  10.122  0.6667 -1.0617  2.2880
44794SOL     OW52373   1.992   5.474  10.760  0.7846  0.4860  0.0536
44794SOL    HW152374   2.014   5.483  10.853  0.3980 -1.3283  0.3563
44794SOL    HW252375   2.063   5.421  10.724  0.1538 -0.1269 -0.3225
44795SOL     OW52376   7.379  10.284   2.862 -0.4370  0.2459  0.3803
44795SOL    HW152377   7.378  10.318   2.951  0.2565  1.4329 -0.0439
44795SOL    HW252378   7.395  10.190   2.872 -1.3542  0.1934  1.5314
44796SOL     OW52379   9.984   9.836   5.916 -0.1389 -0.3582 -0.1346
44796SOL    HW152380   9.967   9.877   6.001 -0.0916 -2.0458  0.7251
44796SOL    HW252381  10.074   9.862   5.895  0.6336 -1.6128  1.3744
44797SOL     OW52382   0.589   1.957   4.126  0.2132 -0.9194 -0.2927
44797SOL    HW152383   0.592   1.933   4.034  2.8867 -0.5650 -0.3623
44797SOL    HW252384   0.540   1.886   4.168  1.2114 -2.4509 -1.6147
44798SOL     OW52385  10.901   1.299   3.009  0.0946  0.6205  0.7815
44798SOL    HW152386  10.977   1.252   2.973  1.0709  2.0054  0.9444
44798SOL    HW252387  10.863   1.238   3.072  1.3715  0.0599  1.0519
44799SOL     OW52388  10.078  11.286   9.856  0.4237 -0.1023 -0.5135
44799SOL    HW152389   9.998  11.336   9.839  0.0357 -0.7865 -0.7327
44799SOL    HW252390  10.049  11.195   9.866  1.1489 -0.3337 -0.3792
44800SOL     OW52391  11.742   6.563  11.296 -0.2609  0.2473 -0.9635
44800SOL    HW152392  11.765   6.471  11.282  0.1627  0.5397 -2.4168
44800SOL    HW252393  11.785   6.587  11.378  1.3057 -0.3137 -1.5904
44801SOL     OW52394   4.066   6.519  10.302  0.0113  0.5898 -0.1252
44801SOL    HW152395   4.019   6.501  10.220  0.9231  0.6678 -0.6866
44801SOL    HW252396   4.017   6.590  10.343 -0.8592  0.0775 -0.2552
44802SOL     OW52397  13.902   8.366   5.122 -0.7006 -0.2004  0.3135
44802SOL    HW152398  13.857   8.429   5.067 -1.8767 -0.3717  1.0377
44802SOL    HW252399  13.897   8.284   5.073  0.9153  0.2661 -0.6717
44803SOL     OW52400  10.752   7.417   2.415 -0.4441  0.3982 -0.1458
44803SOL    HW152401  10.710   7.374   2.490  1.4111 -0.0407  0.7126
44803SOL    HW252402  10.794   7.345   2.367  0.9126  0.9829  0.1138
44804SOL     OW52403   3.442   9.956  10.618 -0.0286 -0.1356 -0.1704
44804SOL    HW152404   3.531   9.956  10.653  0.7001 -1.2003 -1.9059
44804SOL    HW252405   3.453   9.967  10.524 -1.7778  0.1965 -0.3674
44805SOL     OW52406   6.241   1.406   8.023  0.1563  0.3069  0.1900
44805SOL    HW152407   6.209   1.318   8.041  1.6955 -0.5008 -0.7895
44805SOL    HW252408   6.168   1.449   7.978 -0.2575 -0.8020 -0.2444
44806SOL     OW52409  10.801   4.358   9.114 -0.4787 -0.1640 -0.1513
44806SOL    HW152410  10.740   4.423   9.148  0.9229  0.9553  0.2889
44806SOL    HW252411  10.809   4.293   9.184  0.3019  0.7052  0.5847
44807SOL     OW52412   3.144   8.738   8.716 -0.1458 -0.0400 -0.5401
44807SOL    HW152413   3.097   8.818   8.741  0.6333  0.8320 -1.7715
44807SOL    HW252414   3.095   8.667   8.759 -0.4551  1.1409  1.1156
44808SOL     OW52415  11.424   1.186   0.291 -0.1759  0.0130  0.1860
44808SOL    HW152416  11.364   1.118   0.261  0.0993  0.2204 -0.8474
44808SOL    HW252417  11.373   1.235   0.355 -2.4790  2.4597 -3.1803
44809SOL     OW52418   8.805  11.863   9.276  0.2958  0.1747  0.2006
44809SOL    HW152419   8.880  11.922   9.268 -0.8288  1.5436 -0.8682
44809SOL    HW252420   8.772  11.854   9.187 -0.4636 -0.8878  0.5628
44810SOL     OW52421  11.337   4.375  13.955  0.1702  0.3000  0.3218
44810SOL    HW152422  11.287   4.423  13.890 -2.2823 -0.4567  1.5190
44810SOL    HW252423  11.324   4.424  14.036 -0.3112 -0.9765  1.0504
44811SOL     OW52424   3.265   4.906  10.176  0.0936 -0.2946  0.0826
44811SOL    HW152425   3.189   4.856  10.147  0.1498 -1.3240  1.6165
44811SOL    HW252426   3.290   4.866  10.260  2.4946 -0.1877 -0.5034
44812SOL     OW52427   8.750  13.959   4.628  0.4019  0.7277 -0.3741
44812SOL    HW152428   8.821  13.968   4.565 -0.2574  0.9086 -1.1001
44812SOL    HW252429   8.748  14.042   4.674  0.5724  0.7675 -0.4363
44813SOL     OW52430   8.452   5.881   4.068 -0.6529 -0.4762  0.0872
44813SOL    HW152431   8.437   5.896   3.975 -0.7127 -0.0361  0.1608
44813SOL    HW252432   8.493   5.963   4.099 -0.1831 -0.8040  0.3457
44814SOL     OW52433  11.165  13.519   9.066 -0.2005 -0.1946 -0.5159
44814SOL    HW152434  11.145  13.442   9.119 -1.2124 -0.3764 -1.1360
44814SOL    HW252435  11.199  13.583   9.128 -0.7734 -0.6216  0.2461
44815SOL     OW52436   6.247   0.146   1.325 -0.1127 -0.0282 -0.3063
44815SOL    HW152437   6.180   0.095   1.280 -0.0742  1.2644 -1.9044
44815SOL    HW252438   6.205   0.175   1.406 -0.4757 -1.6677  0.1220
44816SOL     OW52439   9.940  14.130   7.064  0.4317  0.3863 -0.2711
44816SOL    HW152440  10.000  14.183   7.116  0.2958  0.9468 -0.6789
44816SOL    HW252441   9.980  14.043   7.062  2.0700  1.1207 -1.8721
44817SOL     OW52442   9.297   4.077   2.458 -0.5835  0.1611 -0.4374
44817SOL    HW152443   9.292   4.161   2.412 -0.5250 -0.0829 -0.8979
44817SOL    HW252444   9.391   4.062   2.471 -0.6300  0.5736  0.4117
44818SOL     OW52445  12.357  11.504   2.341  0.2815  0.1920  0.3961
44818SOL    HW152446  12.420  11.569   2.311 -1.8414  1.6955 -1.1082
44818SOL    HW252447  12.332  11.534   2.429  1.5288 -0.3792  0.9765
44819SOL     OW52448   6.609   1.956   5.636  0.1292 -0.2149 -0.0191
44819SOL    HW152449   6.670   1.887   5.610  0.6744  0.0707  0.4970
44819SOL    HW252450   6.593   1.941   5.729  0.1952  0.3124  0.0797
44820SOL     OW52451   9.383   3.497   5.654  0.2353  0.4059  0.1905
44820SOL    HW152452   9.390   3.584   5.693 -1.7607  1.3010 -1.2420
44820SOL    HW252453   9.470   3.459   5.663  1.2599  2.6883  0.5410
44821SOL     OW52454   9.524   2.931   9.852  0.4786  0.0106  0.7592
44821SOL    HW152455   9.457   2.936   9.784  1.1806 -0.5196 -0.0035
44821SOL    HW252456   9.477   2.945   9.934 -0.9434 -2.4198  0.4489
44822SOL     OW52457   0.220  13.917   1.468  0.1477 -0.1078  0.2627
44822SOL    HW152458   0.212  13.998   1.418  2.9491  0.6191  0.7984
44822SOL    HW252459   0.199  13.942   1.558 -2.0670 -0.7622 -0.0172
44823SOL     OW52460   8.410   8.630   9.203 -0.1346 -0.5291  0.0633
44823SOL    HW152461   8.343   8.579   9.157  0.4774 -2.8350  1.5399
44823SOL    HW252462   8.363   8.669   9.276 -0.6910  1.4754 -1.2966
44824SOL     OW52463  13.114   9.642   1.728  0.5783 -0.0426 -0.5260
44824SOL    HW152464  13.208   9.662   1.720  0.2367  1.8192 -0.4516
44824SOL    HW252465  13.081   9.646   1.638  0.6741 -1.4192 -0.6405
44825SOL     OW52466   7.856   9.902   3.294 -0.0657 -0.0434  0.3520
44825SOL    HW152467   7.842   9.844   3.219 -2.0679  0.1607  0.5288
44825SOL    HW252468   7.881   9.986   3.254 -0.6754 -0.0549 -0.0687
44826SOL     OW52469  13.039  13.573   8.196 -0.3006  0.5822  0.5608
44826SOL    HW152470  13.133  13.592   8.195 -0.1451 -0.1713  0.2014
44826SOL    HW252471  13.016  13.574   8.289  0.2647 -0.1428  0.7252
44827SOL     OW52472   4.884  10.967   0.695 -0.0585 -0.5533 -0.2253
44827SOL    HW152473   4.923  11.025   0.761 -2.5225  3.2619 -1.8072
44827SOL    HW252474   4.829  10.908   0.746 -0.9242  1.4488  1.3206
44828SOL     OW52475  13.966   1.092   9.327  0.1952  0.0123  0.1726
44828SOL    HW152476  13.936   1.024   9.387 -0.1072 -1.0324 -1.1178
44828SOL    HW252477  13.900   1.094   9.258  0.2886  1.5159  0.0909
44829SOL     OW52478   4.249   9.301   1.930 -0.8433 -0.0379 -0.1082
44829SOL    HW152479   4.168   9.261   1.897  0.0805 -0.4457 -2.0145
44829SOL    HW252480   4.224   9.340   2.014 -3.5100  1.4647 -1.4585
44830SOL     OW52481  12.364  10.821   8.730 -0.1948  0.2829  0.1665
44830SOL    HW152482  12.296  10.883   8.756 -0.2919  0.4651 -0.5209
44830SOL    HW252483  12.423  10.819   8.806 -0.6334  0.5854  0.5241
44831SOL     OW52484   2.545  11.878   3.019 -0.4838  0.1423 -0.1156
44831SOL    HW152485   2.586  11.833   2.945 -0.7367  0.4682 -0.4583
44831SOL    HW252486   2.590  11.962   3.024  0.1830 -0.2398  0.7023
44832SOL     OW52487   9.605   9.905  11.605  0.7807  1.0804 -0.0389
44832SOL    HW152488   9.608   9.997  11.631 -0.4871  1.1404 -0.0631
44832SOL    HW252489   9.521   9.894  11.562  0.5184 -0.3026  0.7613
44833SOL     OW52490   0.151   9.374   5.609 -0.2827 -0.0289  0.0284
44833SOL    HW152491   0.076   9.352   5.663  0.9987 -0.2081  1.8164
44833SOL    HW252492   0.118   9.441   5.549 -1.7014  0.3442  1.1678
44834SOL     OW52493   2.864   8.596  10.535  0.6414  0.0497 -0.4417
44834SOL    HW152494   2.939   8.625  10.587  2.1054 -0.7363 -2.0247
44834SOL    HW252495   2.818   8.534  10.592  0.7113  1.1157  0.8337
44835SOL     OW52496   0.082   9.730   2.440 -0.0842  0.0812  0.7138
44835SOL    HW152497  -0.013   9.738   2.428 -0.7332 -2.8334  2.8301
44835SOL    HW252498   0.119   9.754   2.355 -2.8041  0.0196 -0.5986
44836SOL     OW52499  11.556   8.595  14.024 -0.0144 -0.3343  0.9727
44836SOL    HW152500  11.621   8.638  14.079 -0.7215  1.4010  0.5152
44836SOL    HW252501  11.579   8.621  13.935  0.7673 -2.6354  0.4339
44837SOL     OW52502   5.130  10.459   0.495  0.4979  0.5282  0.1011
44837SOL    HW152503   5.076  10.386   0.527  0.7338  0.5826  0.6443
44837SOL    HW252504   5.135  10.519   0.570  0.2799  1.1158 -0.3546
44838SOL     OW52505   0.221   8.987  10.348 -0.0580 -0.0335 -0.3802
44838SOL    HW152506   0.240   9.063  10.403  1.4204 -0.7851  0.2128
44838SOL    HW252507   0.126   8.988  10.338 -0.3422  0.4273  1.7669
44839SOL     OW52508   3.864   2.878   3.796  0.3307  0.3248  0.1463
44839SOL    HW152509   3.812   2.947   3.838 -0.1409  0.8308 -1.2209
44839SOL    HW252510   3.859   2.804   3.857 -1.3211  0.6320  0.4321
44840SOL     OW52511   9.353  10.078   6.507  0.4799 -0.9329  0.5419
44840SOL    HW152512   9.358  10.169   6.536  1.6355 -0.4363 -1.0913
44840SOL    HW252513   9.295  10.079   6.431  0.9966 -1.4373  0.1254
44841SOL     OW52514   6.443  12.587  11.143 -0.4447 -0.1153 -0.1765
44841SOL    HW152515   6.475  12.502  11.174 -0.0490 -0.0711 -0.4526
44841SOL    HW252516   6.414  12.632  11.222  2.3629  0.7749  0.4789
44842SOL     OW52517   3.120  12.006   4.682 -0.5508  0.1807  0.1731
44842SOL    HW152518   3.062  11.930   4.684 -0.6309  0.2274 -0.2864
44842SOL    HW252519   3.199  11.977   4.729 -0.9174  0.1000  0.7502
44843SOL     OW52520  13.168   0.242  13.548  0.8388  0.0579  0.4159
44843SOL    HW152521  13.180   0.227  13.641  0.6314  1.8046  0.7555
44843SOL    HW252522  13.178   0.156  13.508 -0.4974 -0.9681  2.1731
44844SOL     OW52523   7.873   7.392   0.176 -0.1725 -0.4023 -0.2807
44844SOL    HW152524   7.919   7.312   0.201 -0.7180 -0.4243  0.6560
44844SOL    HW252525   7.798   7.396   0.234 -1.3987 -0.3729 -1.7998
44845SOL     OW52526  12.807   3.443   3.047  0.3119  0.2011  0.1280
44845SOL    HW152527  12.815   3.415   2.956 -1.5657 -0.5323  0.1325
44845SOL    HW252528  12.739   3.385   3.084  1.1818  0.3207  2.0622
44846SOL     OW52529  11.933  12.631   3.906 -0.1043 -0.0482 -0.2008
44846SOL    HW152530  11.982  12.631   3.824  0.3878  0.5046  0.0785
44846SOL    HW252531  11.937  12.722   3.936 -0.0394 -0.2943  0.5664
44847SOL     OW52532   5.500   2.276  14.096 -0.2161 -0.4002  0.4774
44847SOL    HW152533   5.418   2.288  14.144 -0.2104 -1.2641  0.7283
44847SOL    HW252534   5.509   2.355  14.043  0.1289  0.9507  2.4179
44848SOL     OW52535  10.222  13.715  11.105 -0.1307 -0.6460  0.0199
44848SOL    HW152536  10.305  13.755  11.079 -0.1777 -1.6910 -1.9444
44848SOL    HW252537  10.161  13.789  11.113  1.1337  0.2234  2.3664
44849SOL     OW52538   8.755   4.234  11.450 -0.6288  0.2455  0.1086
44849SOL    HW152539   8.702   4.157  11.471 -0.6299  0.4142  0.7334
44849SOL    HW252540   8.729   4.256  11.360 -2.1032  0.6920  0.6045
44850SOL     OW52541  10.380   8.149  13.436  0.2316 -0.2531  0.1024
44850SOL    HW152542  10.318   8.213  13.469  0.4454 -0.9009  1.8432
44850SOL    HW252543  10.447   8.142  13.504  0.1557 -2.4080  0.0505
44851SOL     OW52544  12.323   0.227  12.971 -0.0610  0.1928 -0.4649
44851SOL    HW152545  12.383   0.168  12.925  0.7121 -0.9865  1.8738
44851SOL    HW252546  12.381   0.288  13.018 -0.7985  1.1458 -0.7762
44852SOL     OW52547  10.816   7.228   6.588 -0.7988  0.1141 -0.2959
44852SOL    HW152548  10.893   7.235   6.643 -1.1983  0.3402  0.2501
44852SOL    HW252549  10.767   7.309   6.605 -1.3458 -0.2035 -0.3312
44853SOL     OW52550   0.962   8.580   2.169  0.6735 -0.3131  0.0723
44853SOL    HW152551   0.969   8.515   2.100 -0.7579 -1.0395  0.5738
44853SOL    HW252552   0.882   8.558   2.215  1.1197  0.7064  1.4095
44854SOL     OW52553   1.783  10.190  11.547  0.0518  0.2783 -0.2396
44854SOL    HW152554   1.828  10.112  11.582 -2.0634 -1.8788 -1.9496
44854SOL    HW252555   1.754  10.163  11.460 -3.3230  1.9347  0.2182
44855SOL     OW52556   0.771   2.289   7.371 -0.0168  0.0211 -0.4353
44855SOL    HW152557   0.749   2.329   7.455 -0.9971  1.5602 -1.3743
44855SOL    HW252558   0.838   2.346   7.334 -0.5257  0.0951 -1.2572
44856SOL     OW52559   9.946   8.953   7.734  0.5665 -0.2408 -0.1619
44856SOL    HW152560   9.864   8.910   7.712  0.6552  0.8171 -2.9915
44856SOL    HW252561   9.924   9.013   7.806 -1.2118  0.2379 -1.0714
44857SOL     OW52562   0.490   8.203   3.250 -0.4461 -0.6710 -0.3275
44857SOL    HW152563   0.437   8.241   3.180 -1.8609 -2.0007 -0.0147
44857SOL    HW252564   0.564   8.162   3.203 -1.0290 -0.9866 -0.9940
44858SOL     OW52565   1.016   7.481   0.038 -0.3436 -0.1491 -0.1626
44858SOL    HW152566   0.928   7.456   0.009 -0.4269 -0.4998  0.3830
44858SOL    HW252567   1.052   7.402   0.077  0.1824  0.0187 -0.3002
44859SOL     OW52568   7.449   1.702   7.122 -0.0633 -0.0723  0.0431
44859SOL    HW152569   7.523   1.649   7.094 -0.4435 -1.6577  1.8437
44859SOL    HW252570   7.466   1.721   7.214 -0.5343  1.9888 -0.2276
44860SOL     OW52571   7.999   0.996   0.331  0.1144  0.0042  0.3692
44860SOL    HW152572   7.979   0.906   0.357  1.1962 -0.4435 -0.2893
44860SOL    HW252573   8.093   0.996   0.313  0.1211  1.2537  0.2822
44861SOL     OW52574  10.292  13.337  11.146 -0.5266 -0.1630 -0.0875
44861SOL    HW152575  10.323  13.308  11.232 -2.0812 -2.2321 -0.1434
44861SOL    HW252576  10.349  13.291  11.084 -2.0007 -1.9788 -0.1600
44862SOL     OW52577  12.818   7.315   1.781 -0.2795  0.0791 -0.1044
44862SOL    HW152578  12.834   7.243   1.842  0.1642  0.2267 -0.0478
44862SOL    HW252579  12.759   7.277   1.716 -0.9213 -0.0243  0.5187
44863SOL     OW52580  11.868   2.652   7.255  0.0848  0.3271  0.6114
44863SOL    HW152581  11.932   2.616   7.316  0.0313  2.4205  2.0361
44863SOL    HW252582  11.831   2.727   7.302 -1.4287  0.8165 -1.2531
44864SOL     OW52583   9.814   2.795   7.694  0.3966 -0.4438  0.1119
44864SOL    HW152584   9.869   2.873   7.701  0.2268 -0.4214  1.6522
44864SOL    HW252585   9.748   2.807   7.763 -0.9000 -0.9657 -1.0049
44865SOL     OW52586   5.916   6.038   7.464 -0.0318  0.7430  0.3242
44865SOL    HW152587   5.910   6.003   7.553  1.2432 -1.8455 -0.5137
44865SOL    HW252588   5.843   5.996   7.418  0.5627  0.3931 -0.3184
44866SOL     OW52589  11.142   5.277   2.293 -0.2123 -0.6984  0.4379
44866SOL    HW152590  11.113   5.364   2.319 -0.9845 -1.2769  1.6051
44866SOL    HW252591  11.065   5.222   2.303  0.4564 -1.6596  0.4480
44867SOL     OW52592  13.722   8.177   9.176 -0.4429  0.1933 -0.0409
44867SOL    HW152593  13.735   8.261   9.133 -0.5627  0.5795  0.6643
44867SOL    HW252594  13.641   8.187   9.225 -0.5408 -0.3864 -0.0732
44868SOL     OW52595   7.702   7.594  11.708 -0.0592 -0.5189 -0.0574
44868SOL    HW152596   7.695   7.662  11.775 -0.6931 -2.2841  1.7730
44868SOL    HW252597   7.612   7.576  11.682 -0.0099 -1.6215  0.5096
44869SOL     OW52598  10.702   8.775   0.212 -0.0649  0.5145  0.1525
44869SOL    HW152599  10.628   8.806   0.264 -0.1795 -1.0286  0.9690
44869SOL    HW252600  10.764   8.848   0.212 -1.2201  1.5229  0.1468
44870SOL     OW52601   4.072  13.877   8.688  0.2455 -0.3023  0.7308
44870SOL    HW152602   4.065  13.892   8.783  0.6035  2.7521  0.3950
44870SOL    HW252603   3.988  13.907   8.654  0.8821  0.6515 -0.0563
44871SOL     OW52604   8.319   7.392   4.798 -0.4902 -0.0512  0.4686
44871SOL    HW152605   8.229   7.390   4.830 -0.8014 -1.9097 -0.3759
44871SOL    HW252606   8.370   7.342   4.862 -0.3807 -0.4197  0.1014
44872SOL     OW52607  11.771   1.688  10.965 -0.3193 -0.3474  0.5926
44872SOL    HW152608  11.714   1.757  10.931  0.0797 -0.1056  0.4129
44872SOL    HW252609  11.821   1.659  10.890 -0.9319 -1.2812  0.5307
44873SOL     OW52610   0.109   5.219   8.418 -0.2537  0.1918  0.3335
44873SOL    HW152611   0.093   5.312   8.429  3.0211  0.6172  3.1185
44873SOL    HW252612   0.027   5.177   8.445 -2.6542  2.0767 -3.1432
44874SOL     OW52613   4.825   5.344   3.647  0.6306 -0.6172  0.0554
44874SOL    HW152614   4.778   5.346   3.564 -2.1823 -0.6247  1.5179
44874SOL    HW252615   4.854   5.253   3.656  1.2559 -0.5384 -1.0301
44875SOL     OW52616   4.192   1.917   0.645  0.1764 -0.2479  0.0710
44875SOL    HW152617   4.146   1.970   0.581  1.2739  2.0327  1.0797
44875SOL    HW252618   4.248   1.859   0.592 -3.1176 -2.6688 -1.1596
44876SOL     OW52619   5.583  10.086  11.130  0.1004 -0.1524  1.0261
44876SOL    HW152620   5.569  10.055  11.220 -2.5765  1.6408  1.3494
44876SOL    HW252621   5.529  10.165  11.123  1.6946  0.8447 -1.6255
44877SOL     OW52622   0.173   8.756   2.096  0.1102  0.6084 -0.2914
44877SOL    HW152623   0.126   8.680   2.062  0.1289  0.9776 -1.1856
44877SOL    HW252624   0.171   8.745   2.191  0.2045 -0.5626 -0.4033
44878SOL     OW52625   5.322  13.169   4.592  0.0989 -0.4210  0.5256
44878SOL    HW152626   5.292  13.126   4.512 -1.0362 -2.9993  2.2012
44878SOL    HW252627   5.408  13.203   4.569  0.6292 -2.6860 -1.3335
44879SOL     OW52628  11.506   2.676  13.796 -0.2342 -0.1506  0.3763
44879SOL    HW152629  11.448   2.603  13.775 -1.4632  1.2883 -1.4081
44879SOL    HW252630  11.461   2.723  13.866 -2.6096  2.3306 -2.5675
44880SOL     OW52631   2.899   8.304   9.192 -0.0598 -0.2232 -0.3251
44880SOL    HW152632   2.887   8.267   9.105 -0.1811  3.6622 -2.1672
44880SOL    HW252633   2.993   8.296   9.209  0.0196 -0.6814 -0.9515
44881SOL     OW52634  13.811   8.790  13.160  0.1127 -0.6688  0.2930
44881SOL    HW152635  13.739   8.771  13.220 -0.8333  1.7310  0.0310
44881SOL    HW252636  13.885   8.810  13.217 -0.0916 -0.7868  0.6033
44882SOL     OW52637   4.626  13.527   6.320 -0.2659  0.3918 -0.0660
44882SOL    HW152638   4.682  13.602   6.301  0.8932 -0.5799 -0.5842
44882SOL    HW252639   4.628  13.474   6.241 -1.9714  0.3362 -0.1162
44883SOL     OW52640  13.539   1.996   7.674 -0.1442 -0.6579 -0.0060
44883SOL    HW152641  13.450   2.001   7.639  0.3106  1.4021 -1.0172
44883SOL    HW252642  13.551   2.078   7.721  0.9497 -1.2895  0.8819
44884SOL     OW52643   7.957  11.061  14.124 -0.7720  0.0023 -0.3767
44884SOL    HW152644   7.993  11.148  14.105 -0.8770  0.3550  0.9608
44884SOL    HW252645   7.878  11.056  14.070 -0.8652  0.8205 -0.3357
44885SOL     OW52646  11.702   4.502   1.724  0.2685 -0.7468 -0.4073
44885SOL    HW152647  11.628   4.541   1.677  0.5978 -1.1771 -1.3056
44885SOL    HW252648  11.688   4.528   1.816 -1.3036 -1.2991 -0.4577
44886SOL     OW52649   4.903  13.151   7.302 -0.1941 -0.7395  0.1662
44886SOL    HW152650   4.912  13.067   7.258  1.6815 -1.7189  2.2361
44886SOL    HW252651   4.993  13.184   7.309 -0.7348  0.6867  0.7566
44887SOL     OW52652  11.964   9.474   1.883  0.0498 -0.1607 -0.1900
44887SOL    HW152653  11.981   9.477   1.977 -0.0384 -2.6185 -0.0348
44887SOL    HW252654  11.974   9.565   1.854 -2.2271  1.1153  2.5567
44888SOL     OW52655   1.126  10.970   2.828  0.2120 -0.1554 -0.4693
44888SOL    HW152656   1.049  10.964   2.771 -0.8659 -1.3063  1.0297
44888SOL    HW252657   1.199  10.980   2.767 -0.9146 -0.9080 -2.0434
44889SOL     OW52658   9.437   9.164  10.867  0.4585  0.6038 -0.2957
44889SOL    HW152659   9.518   9.216  10.864  0.0484  1.6002  2.4266
44889SOL    HW252660   9.367   9.230  10.871 -0.2188 -0.1453  0.9725
44890SOL     OW52661  12.305   0.693   5.715 -0.0531  0.4825  0.2972
44890SOL    HW152662  12.359   0.620   5.687 -1.7144 -0.7457  0.1302
44890SOL    HW252663  12.279   0.737   5.634 -0.7799 -0.0334  0.2479
44891SOL     OW52664   7.742   8.606  11.363  0.8071 -0.1871 -0.6770
44891SOL    HW152665   7.816   8.637  11.311  2.1665  0.6275  1.5690
44891SOL    HW252666   7.782   8.558  11.435 -0.8172  0.3268  0.6431
44892SOL     OW52667   0.943   7.295   0.919  0.0800 -0.0810  0.4507
44892SOL    HW152668   0.968   7.370   0.864 -0.9164  1.2968  1.7730
44892SOL    HW252669   0.848   7.303   0.927 -0.1544 -2.0195 -0.0647
44893SOL     OW52670   3.737  11.662   0.147 -0.0484  0.3448  0.3660
44893SOL    HW152671   3.799  11.592   0.169 -1.6106 -1.0853  0.4742
44893SOL    HW252672   3.750  11.728   0.214  0.0852 -0.7708  1.4799
44894SOL     OW52673  12.790   6.402   0.250 -0.0237 -0.2439 -0.2830
44894SOL    HW152674  12.859   6.390   0.316 -1.9052 -0.0099  1.8219
44894SOL    HW252675  12.761   6.314   0.230 -0.6586 -0.2506  0.5953
44895SOL     OW52676   7.722   8.818   7.533 -0.0292  0.1713  0.2339
44895SOL    HW152677   7.702   8.740   7.584 -1.0581 -0.1764 -0.6794
44895SOL    HW252678   7.648   8.877   7.550 -0.4847 -0.0223 -0.9795
44896SOL     OW52679  13.567   6.890   5.410  0.0237  0.0483  0.4982
44896SOL    HW152680  13.541   6.798   5.416  0.6897 -0.1918 -0.1211
44896SOL    HW252681  13.648   6.889   5.360 -0.0825  0.9964  0.2768
44897SOL     OW52682   6.515  12.024   3.784  0.6463 -0.2606  0.3548
44897SOL    HW152683   6.492  12.067   3.702  0.5025 -0.1459  0.4570
44897SOL    HW252684   6.443  11.963   3.800  1.0146 -0.7996  0.0266
44898SOL     OW52685   7.432  13.336   4.068  0.3374  0.0139 -0.0409
44898SOL    HW152686   7.459  13.246   4.047  0.3666  0.0673 -0.2318
44898SOL    HW252687   7.356  13.326   4.126 -0.0104 -0.1282 -0.5232
44899SOL     OW52688   0.087   2.192   0.006  0.6755  0.2865  0.4115
44899SOL    HW152689   0.019   2.256  -0.018 -0.5939 -1.1342  0.0212
44899SOL    HW252690   0.167   2.244   0.014  0.0262  1.7160 -1.4051
44900SOL     OW52691   6.122   7.536  12.531 -0.1009 -0.2148 -0.2539
44900SOL    HW152692   6.112   7.569  12.441 -1.8217  1.1206  0.3770
44900SOL    HW252693   6.074   7.598  12.585  1.9862 -0.2555  1.8071
44901SOL     OW52694   6.516   9.823   4.639 -0.2431 -0.0396 -0.0598
44901SOL    HW152695   6.556   9.780   4.563 -0.3552 -0.9178  0.3675
44901SOL    HW252696   6.587   9.826   4.703 -1.1958 -3.0705  1.3041
44902SOL     OW52697  13.367   2.731   7.141 -0.0750  0.1629  0.0520
44902SOL    HW152698  13.287   2.682   7.161  0.1187 -0.8089 -1.4334
44902SOL    HW252699  13.417   2.730   7.223 -0.4733 -1.3835  0.3066
44903SOL     OW52700   3.031   5.290   3.726  0.1355  0.1822 -0.0407
44903SOL    HW152701   2.953   5.345   3.713 -0.0549 -0.0896 -0.0530
44903SOL    HW252702   3.044   5.248   3.641  1.1488  1.3230 -0.4756
44904SOL     OW52703   8.394   1.347   8.324  0.2926 -0.1472  0.4836
44904SOL    HW152704   8.459   1.278   8.311  1.1749  0.8619 -0.6630
44904SOL    HW252705   8.315   1.314   8.281  0.6858 -0.4813  0.0083
44905SOL     OW52706   9.899   3.561  11.671  0.0928 -0.1015  0.1505
44905SOL    HW152707   9.876   3.635  11.727 -0.3243 -0.0515 -0.0821
44905SOL    HW252708   9.872   3.483  11.720 -1.5781 -0.0100 -0.5502
44906SOL     OW52709   3.452  13.627   5.723 -0.5600  0.1472  0.5929
44906SOL    HW152710   3.397  13.558   5.688 -0.1552 -0.3939  1.0087
44906SOL    HW252711   3.470  13.600   5.813  0.0008  0.5446  0.6047
44907SOL     OW52712  12.429   7.152   9.424 -0.0188  0.1289 -0.0590
44907SOL    HW152713  12.390   7.067   9.441 -0.9643  0.5450 -0.0630
44907SOL    HW252714  12.360   7.215   9.445  0.6641  0.8948 -0.0487
44908SOL     OW52715  10.085   8.308   0.051  0.5045 -0.5343 -0.1005
44908SOL    HW152716  10.008   8.306   0.107  0.7104 -1.7250  0.1663
44908SOL    HW252717  10.069   8.380  -0.009 -0.4256 -0.2288  0.4927
44909SOL     OW52718   9.339   7.053   0.899  0.2256  0.1873 -0.0123
44909SOL    HW152719   9.282   7.019   0.969 -2.5432  1.0521 -1.6983
44909SOL    HW252720   9.423   7.067   0.942 -0.6745 -1.5305  2.5625
44910SOL     OW52721   5.383   1.578   8.544 -0.1257  0.7263 -0.0218
44910SOL    HW152722   5.475   1.586   8.570  0.2335 -0.8901 -0.6553
44910SOL    HW252723   5.350   1.504   8.597 -0.5626  0.1798 -1.0277
44911SOL     OW52724   1.712   3.641   2.190 -0.1322  0.1463 -0.0806
44911SOL    HW152725   1.692   3.577   2.122 -0.2055  0.0756  0.0066
44911SOL    HW252726   1.778   3.698   2.151 -0.5973  0.4597 -0.4242
44912SOL     OW52727   1.575   7.791  10.733 -0.3127 -0.4488 -0.3805
44912SOL    HW152728   1.569   7.783  10.637  4.1518 -0.3940 -0.8502
44912SOL    HW252729   1.522   7.868  10.754  0.8894  1.3255 -3.2480
44913SOL     OW52730   1.508   5.089   3.477 -0.0852 -0.4302 -0.4626
44913SOL    HW152731   1.450   5.013   3.480 -1.4243  0.5523  2.7452
44913SOL    HW252732   1.546   5.094   3.565  2.5065  0.8167 -1.5273
44914SOL     OW52733  11.791   4.382   9.376  0.4006  0.3740 -0.5124
44914SOL    HW152734  11.871   4.405   9.423  0.5463 -0.1295 -0.5071
44914SOL    HW252735  11.812   4.395   9.283  0.2698  0.8877 -0.4782
44915SOL     OW52736   5.862   6.005  13.414  0.2347  0.4175 -0.1488
44915SOL    HW152737   5.924   5.996  13.342 -0.9315 -0.4748 -1.0706
44915SOL    HW252738   5.778   5.976  13.379 -0.7131  1.4804  1.0999
44916SOL     OW52739   7.052   3.617  10.383  0.0088  0.3656 -0.0616
44916SOL    HW152740   7.102   3.579  10.456 -0.6559 -2.9965 -1.1774
44916SOL    HW252741   6.967   3.574  10.388 -0.3114  0.6498 -2.3501
44917SOL     OW52742   1.569   0.994  11.465 -0.5364 -0.1915 -0.2163
44917SOL    HW152743   1.549   1.041  11.384 -1.8397 -0.3297  0.0124
44917SOL    HW252744   1.580   0.903  11.437 -0.9330 -0.2313 -0.2429
44918SOL     OW52745   3.606  12.352   6.736 -0.2956 -0.9878 -0.0434
44918SOL    HW152746   3.603  12.389   6.648 -2.2063 -2.1988 -0.5487
44918SOL    HW252747   3.656  12.270   6.727 -1.4890 -1.7137 -0.2883
44919SOL     OW52748   1.233   6.544   5.353  0.2825 -0.0343  0.0551
44919SOL    HW152749   1.141   6.546   5.329  0.6667 -0.5568 -1.5819
44919SOL    HW252750   1.264   6.633   5.337 -0.0359  0.2988  1.1610
44920SOL     OW52751   4.611   8.709  11.604  0.5113 -0.1914  0.7391
44920SOL    HW152752   4.677   8.751  11.548 -0.5223  0.0588 -0.3126
44920SOL    HW252753   4.546   8.778  11.619 -0.5897 -1.0542  0.0019
44921SOL     OW52754  11.136   5.006   4.315  0.5597  0.3597  0.1017
44921SOL    HW152755  11.147   5.033   4.223  1.0940 -0.1095  0.0185
44921SOL    HW252756  11.200   4.936   4.326  1.2560  1.1310  1.1386
44922SOL     OW52757   6.705  13.696   5.461 -0.5642 -0.2041 -0.0932
44922SOL    HW152758   6.641  13.766   5.471  0.3999  0.6056  0.5475
44922SOL    HW252759   6.706  13.651   5.545 -1.5373 -1.3367 -0.6517
44923SOL     OW52760   2.747   7.254  11.618 -0.2074 -0.5771 -0.0934
44923SOL    HW152761   2.725   7.163  11.598 -1.5363 -0.0587 -1.1895
44923SOL    HW252762   2.705   7.270  11.702 -0.3988 -0.8349 -0.1363
44924SOL     OW52763   1.103   9.323  13.553 -0.2203 -0.7591 -0.2846
44924SOL    HW152764   1.143   9.402  13.516  0.0018 -1.2690 -1.1713
44924SOL    HW252765   1.023   9.310  13.502 -0.3897 -0.9670  0.0287
44925SOL     OW52766   0.868   8.252   6.986 -0.3107 -0.1972  0.3051
44925SOL    HW152767   0.790   8.291   7.026 -0.7104 -0.2832 -0.3881
44925SOL    HW252768   0.835   8.202   6.911  0.2276 -1.5888  0.9536
44926SOL     OW52769   1.186   2.209   0.145  0.4207 -0.8394 -0.4509
44926SOL    HW152770   1.228   2.187   0.062  2.8540 -0.5378  0.6204
44926SOL    HW252771   1.223   2.294   0.169  0.7415 -1.4890  1.5293
44927SOL     OW52772   3.300   8.506  13.277 -0.0567 -0.4194  0.0385
44927SOL    HW152773   3.232   8.454  13.320 -0.3661 -0.4530 -0.4909
44927SOL    HW252774   3.253   8.576  13.232  0.3610  0.3624  0.7798
44928SOL     OW52775   3.970   5.782   5.301  0.1914 -0.6977  0.2355
44928SOL    HW152776   3.946   5.756   5.389  0.6469  1.3410  1.0374
44928SOL    HW252777   3.950   5.876   5.297  0.5228 -0.6539 -1.7019
44929SOL     OW52778   2.129   9.755   6.428  0.3759 -0.6569  0.4395
44929SOL    HW152779   2.161   9.841   6.457 -0.8145 -0.7676  2.2680
44929SOL    HW252780   2.160   9.747   6.338 -0.0445  1.9826 -0.0259
44930SOL     OW52781  13.853  12.357   7.398 -0.1879 -0.4046 -0.6948
44930SOL    HW152782  13.940  12.344   7.361 -0.3681  0.1339 -1.3434
44930SOL    HW252783  13.844  12.289   7.465  1.4011  0.6442  0.6289
44931SOL     OW52784   9.089   4.431   3.505 -0.5739 -0.0124 -0.2113
44931SOL    HW152785   9.099   4.437   3.410  0.7721 -0.9367 -0.1527
44931SOL    HW252786   9.005   4.473   3.523 -0.8637  0.1471 -1.8099
44932SOL     OW52787   4.074   3.926   3.284 -0.1439  0.1128  0.1351
44932SOL    HW152788   4.002   3.977   3.322  1.0445  2.2651 -0.3422
44932SOL    HW252789   4.032   3.874   3.215 -1.4609  0.1959  0.8264
44933SOL     OW52790  11.853  10.428   4.845 -0.0544  0.4141  0.0060
44933SOL    HW152791  11.913  10.498   4.822  0.1199  0.0058 -0.8092
44933SOL    HW252792  11.850  10.372   4.767  0.8617 -1.2290  1.0948
44934SOL     OW52793   6.352   9.567   1.062  0.2671 -0.2314 -0.2390
44934SOL    HW152794   6.342   9.481   1.104 -1.2144  0.6651  1.3725
44934SOL    HW252795   6.263   9.594   1.041  0.4313  1.8936  1.4156
44935SOL     OW52796   1.436   2.676   0.361 -0.2777 -0.3397  0.7411
44935SOL    HW152797   1.491   2.732   0.306  1.5041 -3.8186 -1.3635
44935SOL    HW252798   1.350   2.677   0.319 -0.0493  0.2076  0.2809
44936SOL     OW52799  13.708  12.382   5.332 -0.2639  0.1682 -0.1351
44936SOL    HW152800  13.759  12.369   5.411 -0.6190 -0.2904  0.0269
44936SOL    HW252801  13.716  12.475   5.313  2.2610 -0.1884 -1.2379
44937SOL     OW52802  11.107   4.316   2.473  0.2738  0.5840 -0.1094
44937SOL    HW152803  11.014   4.298   2.458  0.2667  0.3887  0.1698
44937SOL    HW252804  11.149   4.293   2.390  0.5609 -2.7901  0.8467
44938SOL     OW52805  13.526   5.318   9.962 -0.1916  0.0051  0.3530
44938SOL    HW152806  13.509   5.366  10.043 -0.9432 -0.5101  0.5204
44938SOL    HW252807  13.524   5.384   9.893  0.7643  0.4920  0.7830
44939SOL     OW52808   3.844   3.513  10.473  0.1705 -0.1435 -0.1703
44939SOL    HW152809   3.773   3.572  10.497  0.5443  1.3772 -2.5322
44939SOL    HW252810   3.924   3.560  10.498  0.4340 -0.3384 -0.6230
44940SOL     OW52811   4.255   9.997  13.999  0.1764  0.2943  0.6581
44940SOL    HW152812   4.216  10.072  13.954  0.6506  0.6477  0.8252
44940SOL    HW252813   4.328   9.972  13.943  1.7890  1.7618  2.0008
44941SOL     OW52814  10.676   1.104   3.563 -0.7177 -0.2249 -0.0056
44941SOL    HW152815  10.753   1.161   3.571  1.6115 -3.1887  0.8862
44941SOL    HW252816  10.603   1.157   3.593  1.1406  2.4372  0.1384
44942SOL     OW52817   1.229  13.385  11.228  0.2718  0.2555  0.7465
44942SOL    HW152818   1.246  13.379  11.322 -0.1592 -0.0868  0.8046
44942SOL    HW252819   1.252  13.476  11.206  1.2346  0.0937  1.0008
44943SOL     OW52820   1.032  10.707   3.719  0.3864  0.0027 -0.0344
44943SOL    HW152821   1.056  10.760   3.795  0.4470  0.7983 -0.5993
44943SOL    HW252822   0.996  10.769   3.657  0.3360 -0.6429 -0.6643
44944SOL     OW52823  10.399  11.865   9.311 -0.0286 -0.2750  0.5553
44944SOL    HW152824  10.321  11.883   9.364 -0.3233 -0.3797  0.1651
44944SOL    HW252825  10.374  11.892   9.223  0.3334 -0.4385  0.4025
44945SOL     OW52826   2.883  10.604   4.505  0.8709  0.2409 -0.1478
44945SOL    HW152827   2.890  10.510   4.489  2.4133  0.2397  0.3641
44945SOL    HW252828   2.951  10.622   4.570 -0.7749  1.3749  1.3554
44946SOL     OW52829   5.540   9.245  11.714  0.4429  0.0344  0.5269
44946SOL    HW152830   5.476   9.228  11.784  0.6528 -0.3604  0.6264
44946SOL    HW252831   5.494   9.222  11.634  1.0204 -1.9510  0.7183
44947SOL     OW52832   0.420   3.286  12.099  0.2278 -0.0930 -0.5275
44947SOL    HW152833   0.387   3.306  12.012  0.5319  2.2091 -0.1703
44947SOL    HW252834   0.342   3.263  12.150 -0.1049 -0.1968 -1.0793
44948SOL     OW52835   6.614  13.794   1.031 -0.2817  0.6327 -0.1774
44948SOL    HW152836   6.664  13.788   1.112  2.1727  1.6318 -1.5253
44948SOL    HW252837   6.659  13.736   0.970 -0.8152  1.4604 -1.4109
44949SOL     OW52838   8.964  10.609   3.901 -0.0070 -0.0167  0.0697
44949SOL    HW152839   8.963  10.583   3.809  0.6127  1.3326 -0.3359
44949SOL    HW252840   9.037  10.561   3.939  2.3922  2.4202 -1.1177
44950SOL     OW52841   3.186   1.451  11.256  0.2983  0.3804 -0.3111
44950SOL    HW152842   3.094   1.426  11.254 -0.8240  3.9595 -0.7168
44950SOL    HW252843   3.220   1.428  11.170 -0.3075 -0.5949 -0.2992
44951SOL     OW52844  13.896  12.470   9.308 -0.4422 -0.0398 -0.1305
44951SOL    HW152845  13.991  12.476   9.297 -0.6459  1.9481 -1.3015
44951SOL    HW252846  13.877  12.529   9.382 -0.9718  1.6833 -1.5699
44952SOL     OW52847  11.022  10.360  10.464  0.4246  0.0453 -0.3316
44952SOL    HW152848  11.042  10.413  10.387 -3.1212  0.3408 -1.2203
44952SOL    HW252849  10.997  10.423  10.531  2.6294 -0.2675  0.8805
44953SOL     OW52850  13.647  13.959   5.337  0.2297 -0.3888  0.1942
44953SOL    HW152851  13.647  13.871   5.300 -0.6275 -0.0513 -0.6429
44953SOL    HW252852  13.555  13.986   5.337  0.5403  0.7438 -0.1451
44954SOL     OW52853   4.982  10.933  10.243 -0.2180  0.6379  0.3196
44954SOL    HW152854   4.992  11.017  10.198 -0.1573  1.1479  1.2526
44954SOL    HW252855   5.068  10.917  10.284  0.2781 -0.6786 -1.1541
44955SOL     OW52856   9.922   2.822  10.409 -0.4475 -0.0205  0.5055
44955SOL    HW152857  10.011   2.828  10.445  0.1192 -1.9088 -0.4145
44955SOL    HW252858   9.935   2.818  10.314 -1.5352 -0.0722  0.3446
44956SOL     OW52859  11.878  10.845   7.496 -0.0057 -0.3046 -0.1221
44956SOL    HW152860  11.795  10.834   7.449 -0.8732  0.6629  1.1285
44956SOL    HW252861  11.853  10.868   7.585  1.6153 -1.3767  0.6652
44957SOL     OW52862   5.251  12.098   3.397  0.5513 -0.8077 -0.1358
44957SOL    HW152863   5.254  12.179   3.346 -0.9235 -0.0565  0.8932
44957SOL    HW252864   5.324  12.046   3.364  0.8016  0.4381 -1.6567
44958SOL     OW52865  11.379  13.680   6.826 -0.5813 -0.4377  0.4769
44958SOL    HW152866  11.310  13.671   6.891 -0.1250  1.3712  1.3053
44958SOL    HW252867  11.449  13.727   6.873 -0.0117  0.4251 -1.1529
44959SOL     OW52868  13.481   0.485   1.453  0.3097 -0.0320 -0.0465
44959SOL    HW152869  13.573   0.499   1.431  0.8873 -0.9641  1.5779
44959SOL    HW252870  13.480   0.400   1.497 -1.2962  0.0659  0.1572
44960SOL     OW52871   8.030   7.528   8.303 -0.4626 -0.1973 -0.1601
44960SOL    HW152872   8.114   7.570   8.320 -0.2765 -0.4274 -0.4922
44960SOL    HW252873   7.965   7.585   8.345 -0.3491  1.0945 -1.6530
44961SOL     OW52874   8.085   3.871   1.589  0.1693  0.0448 -0.1314
44961SOL    HW152875   7.993   3.898   1.597  0.2084 -0.2797  2.4046
44961SOL    HW252876   8.084   3.803   1.521 -1.1710  1.1358 -1.2561
44962SOL     OW52877   3.665   3.998   1.154  0.5026 -0.1722  0.5306
44962SOL    HW152878   3.685   4.004   1.248 -1.2634  1.3379  0.8803
44962SOL    HW252879   3.701   3.914   1.127  1.5194 -0.4181  2.4361
44963SOL     OW52880   2.198  14.001   8.724  0.5193 -0.4565 -0.0516
44963SOL    HW152881   2.200  14.079   8.668 -0.0516 -0.6673 -0.3713
44963SOL    HW252882   2.130  14.020   8.789 -1.0485 -1.4759 -1.3207
44964SOL     OW52883   6.371   4.828  13.143 -0.0788  0.2819  0.0603
44964SOL    HW152884   6.383   4.750  13.088 -0.8821  0.6695 -0.6822
44964SOL    HW252885   6.433   4.892  13.109 -0.4958  0.4825 -0.3316
44965SOL     OW52886   0.530   1.975  12.084 -0.2196 -0.6109  0.3710
44965SOL    HW152887   0.530   1.907  12.016  0.5444  0.2218 -0.4860
44965SOL    HW252888   0.574   1.934  12.158  1.9820 -0.4635 -0.7867
44966SOL     OW52889   1.714   7.196   8.346  0.0607 -0.0483  0.2514
44966SOL    HW152890   1.735   7.193   8.439 -1.7242  0.7735  0.7220
44966SOL    HW252891   1.750   7.280   8.316  1.9476 -0.9569 -0.1994
44967SOL     OW52892   7.995   4.946   0.974  0.3527 -0.0581  0.7829
44967SOL    HW152893   8.069   4.964   0.916  1.2055 -2.0462  1.1724
44967SOL    HW252894   7.941   4.883   0.926  0.7495 -1.2592  1.8499
44968SOL     OW52895  10.355   6.796  11.388  0.0986 -0.4757 -0.1502
44968SOL    HW152896  10.339   6.878  11.436  0.5218 -0.0553 -0.7047
44968SOL    HW252897  10.390   6.825  11.304  0.2187 -1.2357 -0.3658
44969SOL     OW52898   2.006   0.038  10.292 -0.4243  0.1619  0.2146
44969SOL    HW152899   2.011   0.129  10.319  0.2141 -0.3333  1.8797
44969SOL    HW252900   2.019  -0.012  10.372  0.7706 -1.4131 -0.8959
44970SOL     OW52901  13.832  12.644  10.934  0.3967 -0.1030 -0.2272
44970SOL    HW152902  13.856  12.574  10.994  3.0933  1.6002  0.8702
44970SOL    HW252903  13.840  12.605  10.847 -0.8986 -1.8565  0.3942
44971SOL     OW52904   3.066   2.329   9.614  0.0168 -0.3128  0.3587
44971SOL    HW152905   3.157   2.353   9.631  0.1595  0.2061 -1.0204
44971SOL    HW252906   3.015   2.404   9.646 -0.0232 -1.0360  2.0643
44972SOL     OW52907   5.835   0.191  10.902 -0.6930  0.2399  0.6050
44972SOL    HW152908   5.885   0.271  10.920  0.8335 -0.0128 -2.0406
44972SOL    HW252909   5.745   0.220  10.890 -0.1925  1.5507 -0.1027
44973SOL     OW52910   9.121  10.925   6.295 -0.0029 -0.3823 -0.1640
44973SOL    HW152911   9.102  10.831   6.304 -1.3461 -0.0800  0.3818
44973SOL    HW252912   9.039  10.963   6.265  0.4595  0.6730 -0.1254
44974SOL     OW52913   8.108  14.093   5.039  0.0417  0.1028 -0.1972
44974SOL    HW152914   8.147  14.174   5.071 -0.1979  0.2518 -0.2790
44974SOL    HW252915   8.143  14.082   4.951 -0.8922  0.7822 -0.6704
44975SOL     OW52916  11.455   0.191  12.988  0.0402 -0.0651 -0.4889
44975SOL    HW152917  11.497   0.255  12.931  1.4626 -0.1095  0.4598
44975SOL    HW252918  11.391   0.147  12.932 -0.4944  1.6962 -1.3481
44976SOL     OW52919   8.915   9.994   3.581 -0.1368  0.5519  0.4676
44976SOL    HW152920   8.883   9.980   3.492  1.4700 -1.3629  0.1244
44976SOL    HW252921   8.845  10.043   3.624 -1.1191  1.1947 -1.7210
44977SOL     OW52922  10.122  10.000  13.597  0.2326  0.1400 -0.6609
44977SOL    HW152923  10.076   9.925  13.559 -1.8298  1.1173 -0.2107
44977SOL    HW252924  10.111  10.070  13.532 -0.5056  0.8959  0.2505
44978SOL     OW52925  14.060   2.420   2.065  0.3557 -0.0869 -0.5802
44978SOL    HW152926  14.006   2.447   2.139  0.1580 -0.9321 -0.4101
44978SOL    HW252927  13.996   2.393   1.998  0.5482  0.0898 -0.8410
44979SOL     OW52928   1.894   2.967   9.809 -0.3121  0.0438 -0.6877
44979SOL    HW152929   1.962   2.937   9.869 -1.2257 -0.5925  0.0514
44979SOL    HW252930   1.839   3.026   9.861 -0.4193  0.4441 -1.2369
44980SOL     OW52931   9.613   9.154  10.584 -0.7225  0.0671 -1.0148
44980SOL    HW152932   9.527   9.195  10.584 -1.2045 -0.8037  1.2498
44980SOL    HW252933   9.595   9.060  10.592  0.4323 -0.2061 -1.3372
44981SOL     OW52934  13.683   6.909   7.340 -0.7496 -0.4358  0.1562
44981SOL    HW152935  13.636   6.924   7.258 -2.4155 -0.9161  0.9652
44981SOL    HW252936  13.767   6.871   7.314 -0.4440  1.1936 -1.4024
44982SOL     OW52937   9.507   9.646   8.107  0.4952 -0.8866 -0.5162
44982SOL    HW152938   9.444   9.715   8.085  0.1119 -1.2866 -0.6634
44982SOL    HW252939   9.502   9.584   8.035  2.3714 -0.0350 -1.4577
44983SOL     OW52940   4.839  10.247   7.759  0.2365 -0.5548  0.2047
44983SOL    HW152941   4.919  10.291   7.786 -1.6373  3.7201 -0.3668
44983SOL    HW252942   4.769  10.294   7.804 -2.2999 -0.0400 -3.7547
44984SOL     OW52943  11.363  12.141  12.625 -0.6977  0.3245 -0.1041
44984SOL    HW152944  11.277  12.146  12.667 -0.4977  1.0446  0.2430
44984SOL    HW252945  11.395  12.232  12.625 -0.0098  0.0894 -0.3802
44985SOL     OW52946  12.432  13.094  13.445  0.1431  0.2328 -0.2287
44985SOL    HW152947  12.358  13.033  13.441  0.5705 -0.3245  0.0610
44985SOL    HW252948  12.394  13.180  13.432 -1.0181  0.2781  2.7705
44986SOL     OW52949   6.306  10.548   3.849  0.1761 -0.5826  0.2550
44986SOL    HW152950   6.306  10.488   3.924  1.2170  0.1759  0.8986
44986SOL    HW252951   6.367  10.509   3.787  0.9016 -0.1917  0.7003
44987SOL     OW52952   1.827   8.603   9.576  0.0016 -0.0580  0.0741
44987SOL    HW152953   1.882   8.564   9.508  1.0366  0.9439  0.3090
44987SOL    HW252954   1.871   8.685   9.598  0.3915 -0.9019  2.8176
44988SOL     OW52955   1.633   5.286   7.681  0.2368  0.2156 -0.0004
44988SOL    HW152956   1.618   5.358   7.620 -0.0464  1.6697  1.6928
44988SOL    HW252957   1.634   5.327   7.767  1.2624 -1.6636  0.9543
44989SOL     OW52958  11.795   2.045   0.100 -0.0111  0.0159 -0.2453
44989SOL    HW152959  11.820   2.105   0.031  1.2041 -0.3175 -0.1119
44989SOL    HW252960  11.709   2.076   0.128  0.0099  0.8791 -1.0733
44990SOL     OW52961   7.371   3.997   0.307  0.0421  0.0028  0.0800
44990SOL    HW152962   7.393   4.029   0.395  0.1142 -2.6187  1.0924
44990SOL    HW252963   7.451   4.013   0.255 -0.1387  1.9398  0.3127
44991SOL     OW52964   7.044   1.061  12.186 -0.1382 -0.1957 -0.3273
44991SOL    HW152965   7.067   1.012  12.266 -0.2445 -0.6049 -0.5424
44991SOL    HW252966   6.995   0.998  12.133  0.1198  0.0070 -0.8131
44992SOL     OW52967  11.090   9.102   5.423  0.4601 -0.3989 -0.8805
44992SOL    HW152968  11.124   9.075   5.338 -1.9655 -1.3475 -1.6047
44992SOL    HW252969  11.082   9.021   5.473  0.8881  0.0358 -0.0819
44993SOL     OW52970  14.023   7.321   7.287 -0.2281 -0.2006 -0.0853
44993SOL    HW152971  13.985   7.310   7.200  0.4946  3.1718 -0.9638
44993SOL    HW252972  14.083   7.246   7.297 -1.8811 -1.7893 -1.5304
44994SOL     OW52973  12.969   0.184   6.988  0.0935 -0.1470 -0.0227
44994SOL    HW152974  12.978   0.270   6.947  3.1677 -1.1065 -1.7228
44994SOL    HW252975  12.983   0.200   7.082  0.6328  1.2318 -0.3177
44995SOL     OW52976   9.986   8.810   8.658  0.1536 -0.0396 -0.1505
44995SOL    HW152977  10.043   8.762   8.718  0.6611  0.0009 -0.5941
44995SOL    HW252978   9.902   8.815   8.703  0.7124  0.5971  0.8643
44996SOL     OW52979   8.888   3.806  10.624 -0.5447 -0.0722 -0.2470
44996SOL    HW152980   8.928   3.775  10.706  0.3723 -0.6748 -0.8982
44996SOL    HW252981   8.962   3.814  10.563 -1.2428  0.1388 -1.0831
44997SOL     OW52982  10.642  13.829  13.213 -0.1340  0.1280  0.1219
44997SOL    HW152983  10.666  13.773  13.138  0.6704 -0.9104  1.1113
44997SOL    HW252984  10.654  13.918  13.181  3.0535 -0.2829 -0.1847
44998SOL     OW52985   5.220   7.172   5.487 -0.2790 -0.1742 -0.3651
44998SOL    HW152986   5.182   7.105   5.543  0.1329 -0.0062  0.1186
44998SOL    HW252987   5.313   7.148   5.480 -0.4649 -0.6158 -1.5816
44999SOL     OW52988  13.561   8.882   9.744  0.7753  0.3434  0.1755
44999SOL    HW152989  13.610   8.951   9.697  0.3065  0.1248 -0.6623
44999SOL    HW252990  13.572   8.804   9.689 -0.2543  0.2188  0.1270
45000SOL     OW52991   3.383   9.375  13.989  0.3966 -0.2141 -0.3105
45000SOL    HW152992   3.352   9.353  14.077  1.2848 -1.1721 -0.2209
45000SOL    HW252993   3.477   9.390  13.999  0.5832 -0.7213 -1.1398
45001SOL     OW52994   4.051   5.426   2.084 -0.7488  0.0113  0.5055
45001SOL    HW152995   4.046   5.427   2.179 -1.8828  2.6422  0.4954
45001SOL    HW252996   4.132   5.471   2.063 -0.6546 -0.2901  0.2095
45002SOL     OW52997   2.553   6.478   7.003 -0.0763 -0.7149  0.0990
45002SOL    HW152998   2.507   6.496   6.921 -1.8145  0.1776  1.1980
45002SOL    HW252999   2.583   6.388   6.995 -0.0895 -0.6048 -1.5529
45003SOL     OW53000   4.100   5.541  12.756  0.1094  0.4450  0.2987
45003SOL    HW153001   4.117   5.545  12.850 -0.0757 -0.8285  0.4092
45003SOL    HW253002   4.176   5.496  12.719 -0.0142  0.5523 -0.0936
45004SOL     OW53003   9.587  11.966  12.843 -0.3688  0.2973 -0.2468
45004SOL    HW153004   9.505  11.919  12.830  0.0164  0.0207 -1.8966
45004SOL    HW253005   9.651  11.897  12.864 -0.8615  0.6732  3.1784
45005SOL     OW53006   1.483   1.951  13.756  0.1030 -0.2180  0.4389
45005SOL    HW153007   1.413   1.899  13.718  0.7948  0.0141 -1.2535
45005SOL    HW253008   1.562   1.898  13.745  0.6369  0.6816 -0.3399
45006SOL     OW53009  10.161  13.972   0.343 -0.4832 -0.4680  0.1188
45006SOL    HW153010  10.228  13.920   0.387 -0.5290 -0.8904 -0.3089
45006SOL    HW253011  10.112  14.012   0.414 -0.9104 -1.5868  0.4720
45007SOL     OW53012   8.358  11.126   3.798 -0.2506  0.0849  0.1520
45007SOL    HW153013   8.357  11.034   3.773  0.4978  0.0712  0.1554
45007SOL    HW253014   8.331  11.173   3.719 -3.0878 -0.2442  0.7940
45008SOL     OW53015   4.312  10.562   1.311 -0.1723 -0.0795  0.1083
45008SOL    HW153016   4.334  10.479   1.268  1.9804  0.0250  0.8517
45008SOL    HW253017   4.266  10.613   1.244  2.0456 -0.3473 -1.7735
45009SOL     OW53018   2.749  13.537   7.439 -0.1827 -0.0146  0.0560
45009SOL    HW153019   2.736  13.621   7.482  1.2468  0.1255  0.2412
45009SOL    HW253020   2.699  13.475   7.492 -1.6941  0.7681 -0.3917
45010SOL     OW53021  11.510   6.349   2.796  0.7894 -0.2527  0.1202
45010SOL    HW153022  11.424   6.338   2.755  0.5381  0.6791  0.3686
45010SOL    HW253023  11.497   6.323   2.887  0.5924  0.5231  0.3216
45011SOL     OW53024   4.873  10.110  12.543 -0.1753  0.2522 -0.0302
45011SOL    HW153025   4.819  10.140  12.471  1.5872  3.2762 -0.2306
45011SOL    HW253026   4.816  10.113  12.620 -1.9718 -2.7071 -1.0736
45012SOL     OW53027   6.340   9.532   5.177 -0.1707  0.1944  0.5783
45012SOL    HW153028   6.334   9.478   5.098  0.0321  0.8769  0.0910
45012SOL    HW253029   6.315   9.473   5.248  1.6677 -1.0400  0.2785
45013SOL     OW53030   8.091   4.994  10.274  0.4474 -0.1734  0.2528
45013SOL    HW153031   8.104   4.993  10.369 -1.5265 -1.2729  0.5738
45013SOL    HW253032   8.085   5.086  10.251 -0.1924  0.0895  1.4004
45014SOL     OW53033  11.712  11.674  10.923  0.3395  0.1844  0.7541
45014SOL    HW153034  11.776  11.632  10.980 -0.3667 -1.4353  0.4330
45014SOL    HW253035  11.726  11.634  10.837 -0.0011  1.0296  0.2883
45015SOL     OW53036   1.989   7.889  13.140 -0.3978 -0.1968 -0.3613
45015SOL    HW153037   1.983   7.965  13.081  0.9211  0.4206  0.2379
45015SOL    HW253038   1.951   7.920  13.222 -1.4290 -0.7662 -0.6150
45016SOL     OW53039   9.536   9.550  13.233 -0.6476 -0.1181 -0.0754
45016SOL    HW153040   9.522   9.621  13.171 -0.5440 -0.3774 -0.4023
45016SOL    HW253041   9.452   9.504  13.236 -0.2470 -0.9720 -1.1419
45017SOL     OW53042   6.878   6.398  12.541 -0.2342  0.5035  0.2477
45017SOL    HW153043   6.974   6.403  12.543 -0.2335  0.6209  1.8246
45017SOL    HW253044   6.854   6.383  12.633 -1.5914 -2.7588 -0.5047
45018SOL     OW53045  13.721  12.989  13.615 -0.4425  0.4495 -0.6587
45018SOL    HW153046  13.730  12.924  13.685  1.9332 -0.1910 -1.4510
45018SOL    HW253047  13.629  12.983  13.588 -0.4714 -2.1885 -0.2783
45019SOL     OW53048   6.198   1.889  13.878 -0.7410  0.7253 -0.2983
45019SOL    HW153049   6.216   1.834  13.802  0.7256  0.1817  0.4129
45019SOL    HW253050   6.110   1.863  13.907 -0.5622 -0.3657 -0.7125
45020SOL     OW53051   8.997   5.990   2.396 -0.1520 -0.3450 -0.0997
45020SOL    HW153052   9.074   5.953   2.440 -0.7572 -1.0132  0.4331
45020SOL    HW253053   9.012   6.084   2.394 -0.1125 -0.2967  1.5630
45021SOL     OW53054  10.774   3.047   6.004 -0.1135 -0.0600 -0.6271
45021SOL    HW153055  10.768   3.142   5.996 -1.3461 -0.1651 -1.1963
45021SOL    HW253056  10.863   3.031   6.036 -0.1654  1.3208  0.2701
45022SOL     OW53057   8.826   1.726  11.588 -0.3077  0.4104 -0.0810
45022SOL    HW153058   8.855   1.785  11.657 -1.2402 -1.5980  2.1890
45022SOL    HW253059   8.739   1.759  11.564 -0.1464  0.9070  0.0099
45023SOL     OW53060  13.720  13.013   3.135  0.0956 -0.2334  0.3662
45023SOL    HW153061  13.730  12.978   3.224  1.4125 -1.9208 -0.3832
45023SOL    HW253062  13.726  12.936   3.079  0.9714  0.9868 -1.2844
45024SOL     OW53063  10.386   2.745   7.744  0.0653 -0.2523 -0.5929
45024SOL    HW153064  10.455   2.730   7.809  0.8191  1.8325 -0.8570
45024SOL    HW253065  10.427   2.720   7.661  0.0535 -0.2617 -0.5957
45025SOL     OW53066  12.933   1.921  11.973  0.7563  0.5362  0.2112
45025SOL    HW153067  12.884   2.003  11.975 -0.6496 -0.2083 -1.0484
45025SOL    HW253068  13.012   1.942  11.922  0.4051  1.0956 -0.1144
45026SOL     OW53069   5.627   2.610   5.485 -0.3378  0.1160 -0.2551
45026SOL    HW153070   5.604   2.525   5.447  0.3471 -0.0940 -0.2183
45026SOL    HW253071   5.543   2.652   5.503 -0.6847 -0.0815 -1.3292
45027SOL     OW53072  11.118   7.108  13.732 -0.5090  0.1008  0.5628
45027SOL    HW153073  11.051   7.040  13.720 -1.2982  0.4588  2.5094
45027SOL    HW253074  11.071   7.181  13.773  0.4175  1.6909 -1.0630
45028SOL     OW53075   0.473   4.793   1.183  0.3099 -0.3024  0.0534
45028SOL    HW153076   0.443   4.754   1.265  0.1583 -0.7365 -0.2044
45028SOL    HW253077   0.408   4.764   1.118 -0.7601  1.7362  0.1372
45029SOL     OW53078   4.316   8.934   6.832 -0.1194  0.0750  0.7297
45029SOL    HW153079   4.317   9.012   6.887  0.0387 -0.1242  1.0105
45029SOL    HW253080   4.393   8.943   6.776  0.0345  0.0070  0.9272
45030SOL     OW53081  14.032   1.054   6.181 -0.1078  0.2169 -0.0491
45030SOL    HW153082  14.102   1.069   6.244 -0.8404 -0.2005  0.8888
45030SOL    HW253083  14.074   1.063   6.096  0.5597  2.5571  0.4499
45031SOL     OW53084   0.494  10.364   7.067  0.1939  0.8601 -0.0397
45031SOL    HW153085   0.399  10.372   7.060 -0.0371 -0.7767  0.8544
45031SOL    HW253086   0.510  10.328   7.154  1.3258 -2.4716 -1.4455
45032SOL     OW53087  12.904   7.079   1.382  0.7785 -0.2512  0.8369
45032SOL    HW153088  12.907   7.175   1.379  0.1153 -0.1550  2.4918
45032SOL    HW253089  12.906   7.058   1.475  2.3451 -1.9178  0.4639
45033SOL     OW53090   1.050   4.654   1.881  0.1754  0.0915 -0.4674
45033SOL    HW153091   1.098   4.582   1.839  2.2217 -0.4299  2.4579
45033SOL    HW253092   0.966   4.614   1.908  0.9055 -0.9992  0.2923
45034SOL     OW53093   6.901  10.908   6.527  0.6224 -0.5607 -0.0082
45034SOL    HW153094   6.968  10.969   6.496  1.2002 -0.1145  2.0105
45034SOL    HW253095   6.818  10.951   6.507  0.8929 -0.9044 -2.0937
45035SOL     OW53096  12.367  10.531  11.209 -0.5223 -0.2493 -0.4091
45035SOL    HW153097  12.437  10.466  11.202 -1.0452 -0.7240 -1.4010
45035SOL    HW253098  12.362  10.570  11.122  0.1028  1.4836  0.2837
45036SOL     OW53099   8.084  12.769   2.142 -0.3201 -0.0827 -0.0094
45036SOL    HW153100   8.148  12.835   2.113  0.3252 -1.0884 -0.9503
45036SOL    HW253101   8.095  12.766   2.237 -0.5460  1.3416  0.0882
45037SOL     OW53102   9.598   0.312   5.008  0.1817  0.3507 -0.3029
45037SOL    HW153103   9.676   0.324   5.063 -0.6555  0.2877  0.9426
45037SOL    HW253104   9.557   0.233   5.042 -1.2763  1.2581  0.1307
45038SOL     OW53105   5.713   4.084   9.194 -0.0170  0.0560  0.2074
45038SOL    HW153106   5.698   4.080   9.289 -0.4033  0.7035  0.1772
45038SOL    HW253107   5.754   4.169   9.179  1.3164 -0.6095 -0.0482
45039SOL     OW53108   7.067  12.726  13.378  0.3267  0.2199  0.4115
45039SOL    HW153109   7.129  12.712  13.306  0.1294  0.7529  0.1307
45039SOL    HW253110   6.982  12.702  13.341  0.2554  0.2770  0.5368
45040SOL     OW53111   4.360   2.432   0.090 -0.4709  0.0536  0.3029
45040SOL    HW153112   4.320   2.455   0.006 -1.0586  0.5568  0.7168
45040SOL    HW253113   4.427   2.499   0.103  0.7098 -0.9163 -0.4986
45041SOL     OW53114   7.227   9.882   1.005  0.3245 -0.6640  0.5362
45041SOL    HW153115   7.246   9.829   0.927 -0.7029 -0.0303 -0.1623
45041SOL    HW253116   7.259   9.829   1.078  0.1152 -1.8530 -0.2116
45042SOL     OW53117  11.119   2.231   1.015  0.0107 -0.2150 -0.3889
45042SOL    HW153118  11.181   2.197   0.950  0.4908  0.7057 -0.4362
45042SOL    HW253119  11.062   2.289   0.965 -0.3998 -0.4517 -0.2002
45043SOL     OW53120   5.655   1.177  10.610  0.1190 -0.6835 -0.3800
45043SOL    HW153121   5.586   1.156  10.548 -0.0732 -1.5388  0.1186
45043SOL    HW253122   5.610   1.192  10.693  0.5144 -1.0332 -0.0983
45044SOL     OW53123  10.714  13.961   6.474  0.0304 -0.4607  0.4137
45044SOL    HW153124  10.681  13.878   6.508  0.1826  0.1641  2.1777
45044SOL    HW253125  10.746  14.007   6.551 -0.9569  1.6698 -0.3767
45045SOL     OW53126   8.901   8.973  14.030 -0.2241  0.5476  0.2381
45045SOL    HW153127   8.870   9.019  13.952  1.4761 -2.0048 -2.1186
45045SOL    HW253128   8.994   8.996  14.037  0.0407 -0.5285  0.4869
45046SOL     OW53129   7.226   4.185  13.367  0.2680 -0.1601  0.5485
45046SOL    HW153130   7.311   4.157  13.335  0.6408  0.2388  1.1686
45046SOL    HW253131   7.166   4.171  13.294  1.4330  2.6012 -1.0885
45047SOL     OW53132  10.518   8.755  10.930 -0.1049 -0.3954  0.0620
45047SOL    HW153133  10.577   8.770  11.003  1.4310 -0.3640 -1.1391
45047SOL    HW253134  10.548   8.673  10.890  0.1233  0.3989 -1.4785
45048SOL     OW53135   6.501  13.771  13.098 -0.7144 -0.2380 -0.0624
45048SOL    HW153136   6.556  13.694  13.089  1.0023  0.8221  0.7192
45048SOL    HW253137   6.450  13.756  13.178 -0.8899 -0.8523 -0.2929
45049SOL     OW53138   5.757  11.171  12.346  0.3392  0.1580 -0.2094
45049SOL    HW153139   5.704  11.092  12.351  0.6678  0.0206  1.6135
45049SOL    HW253140   5.823  11.152  12.279  0.8039 -1.3521  0.6453
45050SOL     OW53141   1.255  10.394  13.046  0.3297  0.5159  0.4585
45050SOL    HW153142   1.236  10.452  13.120 -2.0832  1.7648 -1.0222
45050SOL    HW253143   1.170  10.357  13.023  1.2445 -0.8373 -0.9420
45051SOL     OW53144   7.621   8.119   9.027  0.1989  0.4095  0.5663
45051SOL    HW153145   7.657   8.204   9.003  0.7409  0.5830  1.9371
45051SOL    HW253146   7.571   8.135   9.107 -1.3733 -0.2007 -0.2474
45052SOL     OW53147   9.833   1.609  11.328  0.0230 -0.2899 -0.3088
45052SOL    HW153148   9.822   1.618  11.233 -0.9532  0.2408 -0.1614
45052SOL    HW253149   9.926   1.626  11.343  0.1732 -0.3187 -1.1661
45053SOL     OW53150   8.993  13.315   3.843  0.0758  0.3751 -0.1344
45053SOL    HW153151   9.007  13.382   3.910 -1.2365  0.3255  0.2140
45053SOL    HW253152   8.952  13.362   3.770  2.6505  0.7024 -1.4964
45054SOL     OW53153  10.853   9.508   1.583  0.1145 -0.2327  0.4805
45054SOL    HW153154  10.918   9.576   1.566 -1.4384  0.4914 -3.6977
45054SOL    HW253155  10.893   9.428   1.549 -0.2556 -0.2678  0.1283
45055SOL     OW53156   0.788  12.136   4.575 -0.1309 -0.1534  0.6032
45055SOL    HW153157   0.772  12.218   4.528 -1.6700 -0.2069  0.9575
45055SOL    HW253158   0.752  12.152   4.663 -0.2482 -1.1184  0.7425
45056SOL     OW53159   1.104   9.167   6.590  0.4026  0.0341 -0.5734
45056SOL    HW153160   1.087   9.164   6.684  2.6269 -0.4346 -0.1192
45056SOL    HW253161   1.112   9.260   6.570  0.8279  0.1041 -0.1003
45057SOL     OW53162   1.063   8.256   4.242 -0.0170  0.1064  0.2909
45057SOL    HW153163   1.009   8.186   4.205 -0.2064  0.3019  0.2014
45057SOL    HW253164   1.061   8.326   4.177 -1.3822  0.9644  1.1856
45058SOL     OW53165  13.032   9.742  11.061  0.6944  0.4391  0.2713
45058SOL    HW153166  13.052   9.832  11.039  0.2212 -0.0044 -2.2421
45058SOL    HW253167  12.994   9.705  10.981 -1.5900 -1.2548  1.9910
45059SOL     OW53168  13.377   2.857   8.552 -0.4973  0.0582 -0.0743
45059SOL    HW153169  13.458   2.839   8.504  0.7905  2.9540  0.8086
45059SOL    HW253170  13.383   2.801   8.630 -1.0937 -2.2945 -1.6137
45060SOL     OW53171   7.298   6.145   9.608 -0.4653 -0.3180 -0.2936
45060SOL    HW153172   7.266   6.077   9.668 -0.8838  0.9480  0.9770
45060SOL    HW253173   7.221   6.199   9.591  0.0818  0.4113 -0.4829
45061SOL     OW53174   5.811   2.010   5.638 -0.5879  0.0322  0.7729
45061SOL    HW153175   5.788   2.074   5.570 -1.6570 -1.3154 -0.1948
45061SOL    HW253176   5.887   1.964   5.603 -1.0321 -0.5445  0.5425
45062SOL     OW53177   2.940   7.997   2.789  0.7602 -0.1749  0.4481
45062SOL    HW153178   2.907   7.966   2.704  0.2685 -0.8794  0.8864
45062SOL    HW253179   2.930   8.092   2.786 -3.8566 -0.4015  1.5478
45063SOL     OW53180   4.394   7.189   4.920 -0.1589 -0.0735 -0.7403
45063SOL    HW153181   4.348   7.256   4.870  0.6432  0.4258 -0.8273
45063SOL    HW253182   4.337   7.112   4.915 -0.5293  0.2440 -1.6330
45064SOL     OW53183   1.107   9.732   8.682 -0.4228  0.3304  0.3177
45064SOL    HW153184   1.065   9.651   8.710  0.0202  0.1612  0.5039
45064SOL    HW253185   1.201   9.716   8.695 -0.1925  0.2726 -1.1737
45065SOL     OW53186   4.184   2.069   7.279  0.7192 -0.1218  0.0751
45065SOL    HW153187   4.259   2.052   7.337  0.7141 -2.8957 -0.5807
45065SOL    HW253188   4.111   2.023   7.321 -0.0052  0.3744 -0.6161
45066SOL     OW53189  10.165   6.896   0.991  0.7747 -0.2699 -0.7238
45066SOL    HW153190  10.221   6.820   1.004  0.4051 -0.1209  3.0034
45066SOL    HW253191  10.222   6.971   1.006  0.7934  0.1869 -2.8309
45067SOL     OW53192   1.391   9.128   6.675  0.3966 -0.2414 -0.0111
45067SOL    HW153193   1.326   9.169   6.619  0.4958 -1.2899 -0.9122
45067SOL    HW253194   1.400   9.188   6.749  1.8429  2.3535 -2.0943
45068SOL     OW53195  11.370  11.115  11.648  0.1910 -0.0345 -0.3106
45068SOL    HW153196  11.345  11.119  11.555 -0.9133 -0.3886 -0.0452
45068SOL    HW253197  11.449  11.169  11.654  0.7658 -0.6752 -1.6114
45069SOL     OW53198   9.320  11.381   4.503 -0.3604  0.2735 -0.6173
45069SOL    HW153199   9.317  11.348   4.414  0.8126  0.0852 -0.5969
45069SOL    HW253200   9.303  11.305   4.558  0.9418 -0.0351 -0.6201
45070SOL     OW53201   5.192   6.084  11.286  0.0298 -0.2347 -0.6238
45070SOL    HW153202   5.283   6.107  11.268 -0.1039  0.9392  0.0814
45070SOL    HW253203   5.148   6.093  11.201  0.1751  1.2945 -0.5714
45071SOL     OW53204   5.600  11.686   9.038  0.3150 -0.2651  0.8878
45071SOL    HW153205   5.525  11.672   9.096  1.7154 -0.2853  2.7555
45071SOL    HW253206   5.613  11.601   8.996 -2.3737  0.4080 -1.6870
45072SOL     OW53207  11.612   3.681   8.308 -0.4141 -0.0453 -0.3180
45072SOL    HW153208  11.538   3.741   8.301  0.0946  0.5144 -1.0783
45072SOL    HW253209  11.576   3.603   8.350 -1.6224 -0.1105 -1.4083
45073SOL     OW53210  13.475  13.642  10.009 -0.4202  0.0835 -0.1016
45073SOL    HW153211  13.415  13.634  10.082  1.2903 -0.9095  1.2532
45073SOL    HW253212  13.425  13.610   9.933 -2.3530  1.5080  0.4745
45074SOL     OW53213   5.537   0.859   1.839 -0.2277 -0.0107 -0.7491
45074SOL    HW153214   5.499   0.866   1.751 -2.3245  0.3507  0.1479
45074SOL    HW253215   5.629   0.884   1.826  0.0921 -1.9634 -3.1797
45075SOL     OW53216   0.981  10.233   2.122  0.3806 -0.5811  0.7608
45075SOL    HW153217   0.893  10.265   2.139  0.6657 -0.0944  1.3684
45075SOL    HW253218   1.028  10.308   2.086  0.6838 -0.6942  0.9132
45076SOL     OW53219   7.592  12.346   4.355 -0.1010  0.1430 -0.5868
45076SOL    HW153220   7.575  12.427   4.307  0.4568 -0.4718 -1.8450
45076SOL    HW253221   7.664  12.304   4.309  0.3063 -0.5865  0.6605
45077SOL     OW53222   8.098   2.320  13.072  0.8216 -0.0799  0.2436
45077SOL    HW153223   8.089   2.410  13.042  0.0667 -0.7275 -1.5782
45077SOL    HW253224   8.045   2.317  13.152 -2.5865  0.1699 -1.7974
45078SOL     OW53225   9.037   7.047   6.612 -0.5975  0.0503  0.0511
45078SOL    HW153226   9.051   7.022   6.703  0.1136  1.3198  0.3095
45078SOL    HW253227   8.946   7.075   6.608 -0.7276 -0.3443  0.2967
45079SOL     OW53228   6.797   1.307   3.096  0.2421 -0.1533 -0.3319
45079SOL    HW153229   6.859   1.377   3.071  0.5912 -0.8249 -1.4108
45079SOL    HW253230   6.718   1.354   3.122  0.6517  0.6651 -0.5110
45080SOL     OW53231   2.317   1.327   4.737  0.1783 -0.6818  0.1229
45080SOL    HW153232   2.357   1.307   4.653  1.5714 -0.3655  0.6706
45080SOL    HW253233   2.323   1.246   4.787 -0.2881 -0.7588  0.0604
45081SOL     OW53234   6.192   8.153  12.245 -0.3225 -0.4783 -0.1019
45081SOL    HW153235   6.132   8.079  12.243  0.1945 -0.9572  1.0180
45081SOL    HW253236   6.137   8.229  12.265 -0.7422 -0.6775 -0.4852
45082SOL     OW53237  13.695   3.878  13.435 -0.2517  0.3040 -0.2420
45082SOL    HW153238  13.733   3.897  13.349  0.4773  0.5265  0.1203
45082SOL    HW253239  13.632   3.948  13.449  0.2256  0.7363 -0.2373
45083SOL     OW53240  13.468  13.045   9.185 -0.6836  0.5141 -0.2097
45083SOL    HW153241  13.403  13.066   9.251  0.2491 -0.0606  0.9250
45083SOL    HW253242  13.533  13.115   9.190  1.0622 -1.1156  1.7710
45084SOL     OW53243   9.066  11.198  10.197 -0.7005  0.4301 -0.0246
45084SOL    HW153244   9.008  11.270  10.221  0.5134  1.7754 -0.9417
45084SOL    HW253245   9.033  11.168  10.112 -1.0163  0.1106  0.2097
45085SOL     OW53246   4.843   7.096   2.696  0.1307 -0.1393  0.3663
45085SOL    HW153247   4.879   7.082   2.608  0.2054  0.0954  0.3592
45085SOL    HW253248   4.887   7.175   2.727 -1.4415  1.0165 -0.2099
45086SOL     OW53249  10.133   8.131  13.712 -0.0771 -0.5352 -0.1947
45086SOL    HW153250  10.072   8.151  13.782  1.0978 -0.3400  0.8065
45086SOL    HW253251  10.169   8.216  13.686 -0.3571 -0.6265 -0.9155
45087SOL     OW53252   9.657   0.523   8.706 -0.1826  0.0857 -0.7251
45087SOL    HW153253   9.717   0.518   8.780  2.1178  1.3781 -2.3713
45087SOL    HW253254   9.648   0.432   8.677 -0.5179 -0.3434  0.6434
45088SOL     OW53255   1.849   5.390  12.698  0.1897  0.4267  0.3346
45088SOL    HW153256   1.904   5.411  12.622 -0.1059  1.1982  0.3207
45088SOL    HW253257   1.766   5.361  12.659 -0.6372  2.6274  0.3187
45089SOL     OW53258  10.906  13.786   3.986  0.9057 -0.1802 -0.4887
45089SOL    HW153259  10.985  13.837   3.999  0.4149  0.3707  0.4674
45089SOL    HW253260  10.838  13.851   3.966  0.4536 -0.5276 -0.1095
45090SOL     OW53261   1.102  12.278  10.680  0.0736 -0.6843  0.2298
45090SOL    HW153262   1.189  12.317  10.689  0.6685 -1.7907 -0.5595
45090SOL    HW253263   1.053  12.311  10.756  1.0933  0.1410  0.5511
45091SOL     OW53264   1.460  11.646   2.437  0.2382 -0.2286 -0.0221
45091SOL    HW153265   1.404  11.622   2.364  0.7978  1.2093 -0.9586
45091SOL    HW253266   1.399  11.664   2.509 -0.4086 -0.2409 -0.5618
45092SOL     OW53267  10.466   3.308  12.199 -0.0505  0.2109 -0.5631
45092SOL    HW153268  10.375   3.324  12.174  0.1087 -0.0208 -1.3321
45092SOL    HW253269  10.496   3.241  12.137 -0.1017 -1.5772  1.2335
45093SOL     OW53270   7.488   5.848   4.786  0.2992 -0.4344 -0.1473
45093SOL    HW153271   7.521   5.911   4.850  0.2059  0.1109 -0.6244
45093SOL    HW253272   7.393   5.863   4.786  0.2288 -0.8752  0.0489
45094SOL     OW53273   2.241   2.955   0.595  0.1400 -0.2900  0.5682
45094SOL    HW153274   2.302   2.964   0.668 -0.4751  0.1912  1.0287
45094SOL    HW253275   2.189   2.877   0.616  2.3768 -2.3894 -1.1585
45095SOL     OW53276  10.736   3.018   4.191 -0.3800 -0.4963  0.1547
45095SOL    HW153277  10.736   3.064   4.107 -1.0628 -1.7243 -0.5546
45095SOL    HW253278  10.743   3.087   4.257  0.6090  0.4621 -0.9181
45096SOL     OW53279  13.999   5.589   9.271  0.3802  0.0414  0.1992
45096SOL    HW153280  14.004   5.648   9.196  5.7023 -1.8248 -1.3218
45096SOL    HW253281  14.011   5.501   9.235 -1.1613 -1.4710  2.9394
45097SOL     OW53282  13.637  10.574   8.349  0.0367  0.6835  0.0796
45097SOL    HW153283  13.705  10.619   8.298  0.2594  1.1659  0.7962
45097SOL    HW253284  13.602  10.642   8.407  0.7296 -0.1796  1.5431
45098SOL     OW53285   4.179   7.719   0.663  0.3874 -0.3678 -0.8330
45098SOL    HW153286   4.255   7.671   0.628  1.8961  2.2216 -1.4003
45098SOL    HW253287   4.210   7.754   0.747 -0.9982 -1.1421  0.0245
45099SOL     OW53288  14.111  10.485   8.127 -0.5029  0.1559  0.4247
45099SOL    HW153289  14.101  10.512   8.036  0.7743  1.7241  0.6986
45099SOL    HW253290  14.134  10.392   8.123  0.9608  0.5290 -0.9562
45100SOL     OW53291   8.893   6.975   5.982 -0.0088  0.2427 -0.1604
45100SOL    HW153292   8.883   6.880   5.975 -1.2563  0.3102  0.4039
45100SOL    HW253293   8.954   6.999   5.912  0.6771 -1.0182 -0.0186
45101SOL     OW53294   9.196   2.978  12.676 -0.1837  0.1311 -0.0313
45101SOL    HW153295   9.173   2.958  12.767  1.1489 -1.6292 -0.0185
45101SOL    HW253296   9.289   2.956  12.670  0.4285  2.6617 -1.1894
45102SOL     OW53297  11.352   4.824   4.256 -0.1798  0.2830 -0.2611
45102SOL    HW153298  11.418   4.755   4.257  0.1055  0.5578  0.5731
45102SOL    HW253299  11.385   4.886   4.191  1.6887  1.6085  1.7908
45103SOL     OW53300   3.504   1.377  12.350  0.0318  0.2039 -0.2265
45103SOL    HW153301   3.562   1.323  12.403  0.8449  2.5687  1.4701
45103SOL    HW253302   3.558   1.452  12.324 -1.6533  1.4191 -0.4010
45104SOL     OW53303  11.324   8.028   0.783 -0.0335 -0.1647 -0.0324
45104SOL    HW153304  11.362   8.116   0.785  0.6680 -0.4736  1.8065
45104SOL    HW253305  11.391   7.973   0.742 -0.4699  0.1079 -1.1772
45105SOL     OW53306   8.355   1.161   9.086  0.1628  0.2328  0.3699
45105SOL    HW153307   8.418   1.089   9.076 -1.5998 -1.5018  1.1508
45105SOL    HW253308   8.279   1.133   9.035 -0.1886  2.0642 -0.1784
45106SOL     OW53309   5.074  12.226   7.380 -0.0301 -0.1437  0.3718
45106SOL    HW153310   5.018  12.303   7.392 -0.3887 -0.6602  2.3981
45106SOL    HW253311   5.163  12.260   7.387 -0.1140  0.3625 -0.7616
45107SOL     OW53312   3.622   1.776   9.923 -0.2696 -0.1397  0.2959
45107SOL    HW153313   3.628   1.680   9.928  0.6476 -0.0778  0.5827
45107SOL    HW253314   3.601   1.794   9.831 -2.0621 -0.6705  0.5630
45108SOL     OW53315   8.136   5.355  10.436 -0.0497  0.8224  0.0789
45108SOL    HW153316   8.219   5.395  10.411  1.9988 -2.3087  1.3063
45108SOL    HW253317   8.098   5.323  10.354  0.1993  1.8020 -0.4305
45109SOL     OW53318  11.979   5.077   7.911  0.3177  0.3288 -0.2525
45109SOL    HW153319  12.055   5.056   7.967  0.4569 -0.6148 -0.7720
45109SOL    HW253320  12.015   5.131   7.841  0.6112 -0.5202 -0.7650
45110SOL     OW53321  11.708   1.230  12.373 -0.3910 -0.1067  0.3295
45110SOL    HW153322  11.691   1.179  12.452  1.2699 -1.0912  0.0947
45110SOL    HW253323  11.801   1.249  12.375 -0.4808  0.6119 -0.9517
45111SOL     OW53324   5.624   0.531   9.294 -0.6723 -0.3930  0.4800
45111SOL    HW153325   5.565   0.600   9.265 -1.9048 -1.2942  0.7763
45111SOL    HW253326   5.572   0.451   9.291  0.0855 -1.0008  2.1783
45112SOL     OW53327  12.796   6.640   9.906 -0.7123 -0.0316 -0.4992
45112SOL    HW153328  12.816   6.662   9.997  0.1438  1.3895 -0.9892
45112SOL    HW253329  12.760   6.721   9.870  1.3879  0.2929 -2.0911
45113SOL     OW53330   8.647   4.362  11.214 -0.5785 -0.0999  0.4201
45113SOL    HW153331   8.617   4.453  11.220 -0.1616 -0.0690  2.8891
45113SOL    HW253332   8.704   4.361  11.137 -0.1086  1.8726  0.6980
45114SOL     OW53333   1.074  12.922   3.921 -0.0666 -0.2503 -0.1061
45114SOL    HW153334   1.077  13.007   3.965  2.1879 -0.0965 -0.4335
45114SOL    HW253335   1.151  12.876   3.953  0.1075 -1.2000 -1.7886
45115SOL     OW53336   1.520   3.350   1.196 -0.2612  0.6200 -0.0206
45115SOL    HW153337   1.437   3.350   1.243  0.8203  1.3041  2.0139
45115SOL    HW253338   1.585   3.326   1.263  1.1120 -0.5658 -1.6982
45116SOL     OW53339  10.720  11.708   3.092 -0.2980 -0.0718  0.0926
45116SOL    HW153340  10.668  11.780   3.058 -1.4463 -1.1610 -0.5171
45116SOL    HW253341  10.799  11.707   3.038 -0.5962  0.2808 -0.3494
45117SOL     OW53342  11.117   9.075   9.131 -0.1617 -0.5651 -0.1098
45117SOL    HW153343  11.212   9.065   9.119 -0.3732  0.1050 -3.3273
45117SOL    HW253344  11.078   9.026   9.059 -1.9879  2.9985 -1.8522
45118SOL     OW53345  13.985  11.985   0.754 -0.0544  0.1854  0.0870
45118SOL    HW153346  14.078  12.000   0.740 -0.3800 -0.1885 -3.2572
45118SOL    HW253347  13.974  11.891   0.742 -0.9933  0.3838 -0.7314
45119SOL     OW53348  11.862   0.857   5.454  0.0253  0.6633  0.0531
45119SOL    HW153349  11.851   0.829   5.544  0.4821  1.9748  0.5437
45119SOL    HW253350  11.801   0.930   5.444 -0.3457  0.2482 -0.8442
45120SOL     OW53351   3.159   1.154   1.947 -0.2748  0.2080  0.1006
45120SOL    HW153352   3.223   1.182   1.882 -0.9683  1.1339 -0.2022
45120SOL    HW253353   3.210   1.100   2.008  0.8185  0.9884 -0.0754
45121SOL     OW53354  13.389   4.837   0.522 -0.4888 -0.0867 -0.1681
45121SOL    HW153355  13.368   4.846   0.430 -2.4200 -2.1592 -0.0150
45121SOL    HW253356  13.452   4.765   0.526 -0.9517 -0.4784  0.1770
45122SOL     OW53357  10.542   1.495  10.611 -0.5221  0.2405  0.1445
45122SOL    HW153358  10.592   1.431  10.662 -1.1883 -0.8554 -0.5259
45122SOL    HW253359  10.549   1.577  10.660 -0.2471 -0.5235  1.4168
45123SOL     OW53360   2.442   8.771   6.760  0.1530 -0.3976 -0.3439
45123SOL    HW153361   2.524   8.797   6.719  0.7038 -0.7933  0.4636
45123SOL    HW253362   2.431   8.832   6.833  0.7939 -1.5834  0.7805
45124SOL     OW53363   0.590   0.012   2.041 -0.0000  0.1130  0.1306
45124SOL    HW153364   0.621   0.036   2.129 -0.1293  0.1946  0.1552
45124SOL    HW253365   0.667   0.022   1.985  0.0325  0.2665  0.1994
45125SOL     OW53366  11.001  12.647   0.988 -0.8024  0.7417  0.1111
45125SOL    HW153367  10.981  12.645   0.894  0.1032  0.1980 -0.0816
45125SOL    HW253368  11.095  12.666   0.992 -0.9469  1.2970  0.9246
45126SOL     OW53369   6.570  13.123   9.470  0.4024  0.3592 -0.1076
45126SOL    HW153370   6.509  13.114   9.543 -0.2160 -0.7939 -0.7240
45126SOL    HW253371   6.514  13.127   9.392  1.0832  0.3593 -0.6120
45127SOL     OW53372   1.908  13.081  10.006 -0.3641 -0.3442  0.3796
45127SOL    HW153373   1.868  13.083   9.920  1.2340 -1.8139 -0.4598
45127SOL    HW253374   1.921  13.173  10.029 -1.1009  0.0713 -0.7853
45128SOL     OW53375   3.286  13.281   2.759  0.7023  0.1667  0.4820
45128SOL    HW153376   3.312  13.330   2.838 -1.1750  0.1410  1.1752
45128SOL    HW253377   3.354  13.215   2.749  1.4409  0.7134  1.5891
45129SOL     OW53378   7.167  13.685   0.626 -0.4670 -0.1002 -0.2929
45129SOL    HW153379   7.123  13.608   0.660 -0.0427 -1.1062 -1.8925
45129SOL    HW253380   7.112  13.713   0.552  0.3083  0.0445 -0.8274
45130SOL     OW53381   5.497   6.625   3.439 -0.1730  0.1066 -0.0115
45130SOL    HW153382   5.458   6.582   3.516 -1.0537  0.5693 -0.1832
45130SOL    HW253383   5.568   6.567   3.413 -1.0422 -1.0258  0.0377
45131SOL     OW53384  12.964  13.860   0.172  0.1268  0.0653 -0.4929
45131SOL    HW153385  13.057  13.837   0.180  0.2614  0.9117  0.6044
45131SOL    HW253386  12.964  13.949   0.138 -0.3413 -0.5663 -2.2460
45132SOL     OW53387  13.682  12.805   4.703  0.3901 -0.0523 -0.5389
45132SOL    HW153388  13.721  12.720   4.682 -0.1687 -0.1957 -1.0564
45132SOL    HW253389  13.756  12.862   4.722  0.8838 -0.1785 -1.9725
45133SOL     OW53390   4.112   4.590   5.165  0.6680  0.3321  0.5669
45133SOL    HW153391   4.164   4.670   5.164  0.7050  0.3469  1.6023
45133SOL    HW253392   4.122   4.553   5.078  2.8590  0.0665  0.8595
45134SOL     OW53393  12.088   3.583  13.330  0.2083  0.2254  0.2721
45134SOL    HW153394  12.039   3.505  13.353 -1.1246  0.9796  0.0894
45134SOL    HW253395  12.176   3.568  13.365 -0.1982 -1.0654  0.7822
45135SOL     OW53396   2.099   8.798  11.912 -0.1069 -0.0800  0.2418
45135SOL    HW153397   2.157   8.768  11.982 -0.9085 -1.1080  0.5062
45135SOL    HW253398   2.080   8.889  11.934  0.8690  0.0727  0.5107
45136SOL     OW53399   2.591   4.037  12.495  0.0316  0.4429  0.0808
45136SOL    HW153400   2.686   4.040  12.506 -0.0206  0.4058  0.5625
45136SOL    HW253401   2.576   4.066  12.405  0.6533 -2.0315 -0.8777
45137SOL     OW53402  10.451   0.188   7.768 -0.0390 -0.0335 -0.2255
45137SOL    HW153403  10.507   0.111   7.764  0.8707  0.6709 -2.5112
45137SOL    HW253404  10.490   0.243   7.836  0.5476 -0.6629 -0.0441
45138SOL     OW53405   9.823   0.181  10.671 -0.2253  0.7452  0.5159
45138SOL    HW153406   9.832   0.262  10.720 -0.1584 -0.0315  1.8193
45138SOL    HW253407   9.821   0.112  10.737  0.4705 -0.3892 -0.5797
45139SOL     OW53408  11.075   3.490   4.683 -0.1444 -0.1330 -0.1591
45139SOL    HW153409  11.139   3.475   4.752  0.9928  1.4385 -0.8288
45139SOL    HW253410  11.019   3.560   4.717 -0.0643  0.1057 -0.5200
45140SOL     OW53411   0.415  13.538  10.366  0.1979 -0.2458 -0.4040
45140SOL    HW153412   0.347  13.506  10.425 -0.7373 -1.2245 -1.9499
45140SOL    HW253413   0.384  13.623  10.336 -0.0674 -0.4331 -0.6612
45141SOL     OW53414   1.446  11.253   6.671 -0.0948  0.1471  0.2573
45141SOL    HW153415   1.534  11.290   6.665  0.1384 -0.2850  0.9425
45141SOL    HW253416   1.420  11.239   6.580 -0.2726  2.1634 -0.0463
45142SOL     OW53417   5.324   3.634  10.382 -0.6655  0.1427 -0.3099
45142SOL    HW153418   5.281   3.554  10.351  1.1745 -3.0678  4.3779
45142SOL    HW253419   5.417   3.613  10.384 -0.1971  2.0284  1.9102
45143SOL     OW53420   8.870  11.477   9.541  0.4223  0.0406  0.2913
45143SOL    HW153421   8.802  11.531   9.579 -0.0302  0.0076 -0.4621
45143SOL    HW253422   8.923  11.537   9.489  1.4564  0.2138  1.4908
45144SOL     OW53423   3.062  12.931   8.190  0.6890  0.4176 -0.6106
45144SOL    HW153424   3.018  12.896   8.267 -0.6297  0.6469 -1.2324
45144SOL    HW253425   3.114  12.859   8.156  0.3396 -0.0401 -0.1789
45145SOL     OW53426  12.150   8.571  12.889  0.3106  0.3002  0.1761
45145SOL    HW153427  12.179   8.654  12.926  0.1466  0.4202  0.0361
45145SOL    HW253428  12.085   8.595  12.824 -0.6098  0.0044  0.9583
45146SOL     OW53429  10.323   6.222  11.827 -0.3580  0.4583  0.1331
45146SOL    HW153430  10.301   6.257  11.741 -0.7804  1.3774  0.6105
45146SOL    HW253431  10.240   6.191  11.862 -0.1472 -0.1306  0.1246
45147SOL     OW53432   2.353   7.558  13.557  0.3677  0.4183 -0.5393
45147SOL    HW153433   2.411   7.573  13.632  1.7423 -0.6805 -1.3464
45147SOL    HW253434   2.272   7.604  13.580  1.1693  1.0825  1.0959
45148SOL     OW53435   5.681  13.183  11.347  0.4078 -0.2241 -0.0657
45148SOL    HW153436   5.616  13.126  11.388  0.6982 -0.4728  0.0562
45148SOL    HW253437   5.747  13.197  11.415 -0.2342  1.2032  0.2899
45149SOL     OW53438  13.868   8.764   2.057 -0.0913 -0.7428 -0.3461
45149SOL    HW153439  13.811   8.783   2.132  0.2414 -1.6208  0.1505
45149SOL    HW253440  13.858   8.670   2.043  0.6582 -0.7714 -0.7397
45150SOL     OW53441   1.774  10.015   8.223  0.3165 -0.3358  0.5963
45150SOL    HW153442   1.688  10.055   8.231 -0.1129 -1.5555  2.7795
45150SOL    HW253443   1.830  10.067   8.280  0.5004 -0.8511  0.8946
45151SOL     OW53444  13.171   7.771  10.657 -0.1398  0.4179  0.2870
45151SOL    HW153445  13.207   7.754  10.744 -0.2548  0.2814  0.3091
45151SOL    HW253446  13.186   7.865  10.642  1.7908  0.0393 -0.4267
45152SOL     OW53447   7.454   3.987   2.508  0.3611 -0.7519 -0.0515
45152SOL    HW153448   7.383   4.002   2.571 -1.3637 -0.2890 -1.9783
45152SOL    HW253449   7.491   4.074   2.492 -0.2802 -0.6037 -0.8170
45153SOL     OW53450  13.900   4.913  10.162  0.0534 -0.0609 -0.6107
45153SOL    HW153451  13.913   4.949  10.250 -0.6832  2.4486 -1.4372
45153SOL    HW253452  13.905   4.818  10.174  0.4315  0.2103  2.0488
45154SOL     OW53453   3.335  12.106   7.470 -0.4042 -0.1685  0.2216
45154SOL    HW153454   3.329  12.108   7.375 -0.7376 -2.2401  0.1417
45154SOL    HW253455   3.420  12.145   7.491 -0.0791 -0.2208 -0.9618
45155SOL     OW53456  11.319   3.738  13.205 -0.4890  0.8784  0.0019
45155SOL    HW153457  11.279   3.823  13.185 -1.1850  0.5079 -0.2371
45155SOL    HW253458  11.298   3.722  13.297 -1.8221  0.2245 -0.3795
45156SOL     OW53459  11.792  13.749   5.419 -0.2669 -0.1023 -0.0503
45156SOL    HW153460  11.819  13.709   5.337 -0.4847 -0.8114  0.2165
45156SOL    HW253461  11.696  13.755   5.412 -0.4502 -1.5881  0.7619
45157SOL     OW53462   6.668   1.741   0.206 -0.2374  0.3334  0.4884
45157SOL    HW153463   6.680   1.658   0.161 -1.3271 -0.6685  1.9123
45157SOL    HW253464   6.582   1.733   0.248 -0.5792  2.3715  0.2973
45158SOL     OW53465   8.540   7.854   4.286 -0.1723 -0.1140  0.1042
45158SOL    HW153466   8.547   7.898   4.202  1.2269  0.8092  0.6489
45158SOL    HW253467   8.587   7.912   4.347  1.0243 -1.9305  1.0198
45159SOL     OW53468   9.438   6.121  10.326 -0.1967  0.0972  0.2179
45159SOL    HW153469   9.423   6.040  10.376 -0.4640  1.1148  1.8744
45159SOL    HW253470   9.391   6.107  10.244 -0.6884 -1.2297  0.6877
45160SOL     OW53471  12.144   1.475   7.610  0.1019 -0.3932  1.0236
45160SOL    HW153472  12.194   1.548   7.573 -0.3009 -1.2450 -1.4146
45160SOL    HW253473  12.155   1.483   7.704  0.7996  2.2741  0.7847
45161SOL     OW53474   9.054  13.195  14.056 -0.0113 -0.0188 -0.4079
45161SOL    HW153475   9.120  13.263  14.041  0.0868  0.4408  1.7865
45161SOL    HW253476   9.100  13.128  14.106 -0.3104 -1.3808 -1.9100
45162SOL     OW53477   0.251   5.408   8.786 -0.3484 -0.0113 -0.1981
45162SOL    HW153478   0.326   5.350   8.775  0.6247  1.1353  0.1719
45162SOL    HW253479   0.243   5.420   8.881  0.9439  2.2519 -0.2991
45163SOL     OW53480   4.322  12.385  12.418  0.4277 -0.9429 -0.2498
45163SOL    HW153481   4.266  12.331  12.363  0.4564  0.0967 -1.3292
45163SOL    HW253482   4.314  12.346  12.505 -1.2514 -1.3589 -0.5560
45164SOL     OW53483   7.060  13.750   4.291 -0.0840 -0.7158  0.0508
45164SOL    HW153484   7.029  13.741   4.201 -1.6516 -2.5258  0.7134
45164SOL    HW253485   6.982  13.775   4.341  0.5811 -0.5494  1.0377
45165SOL     OW53486   1.213   0.313   3.868  0.3996 -0.2362  0.3123
45165SOL    HW153487   1.290   0.362   3.896 -0.2384  0.9361  0.0636
45165SOL    HW253488   1.242   0.266   3.789  0.0298  2.7421 -1.7343
45166SOL     OW53489   1.872  12.383   4.226  0.6205  0.1180  0.7345
45166SOL    HW153490   1.883  12.319   4.296 -0.7788  0.4573  1.2998
45166SOL    HW253491   1.959  12.391   4.187  1.0359 -1.3656  1.2971
45167SOL     OW53492   8.575   7.545   4.936  0.7500 -0.0892  0.1077
45167SOL    HW153493   8.496   7.516   4.983 -0.0150 -0.2940 -1.2464
45167SOL    HW253494   8.618   7.604   4.997 -1.0503  0.9345  0.4721
45168SOL     OW53495   1.674   2.248  11.307  0.5519  0.2099  0.5941
45168SOL    HW153496   1.682   2.316  11.373 -0.0159  1.4743 -0.5941
45168SOL    HW253497   1.640   2.172  11.355 -1.5785  1.6180  1.4812
45169SOL     OW53498   3.076   3.805   9.850 -0.4195  1.2140  0.7685
45169SOL    HW153499   3.096   3.713   9.833 -1.4375  1.2246 -0.7304
45169SOL    HW253500   3.074   3.813   9.945  0.5135 -0.1116  0.9170
45170SOL     OW53501   6.673   7.208  10.570  0.0280  0.7835 -0.0047
45170SOL    HW153502   6.750   7.258  10.598 -0.0728  0.4391  0.9345
45170SOL    HW253503   6.686   7.193  10.477  2.1560 -1.0658  0.4977
45171SOL     OW53504   9.664  11.591   4.288  0.0646  0.2372 -0.0862
45171SOL    HW153505   9.668  11.521   4.353 -3.0804  0.4135  0.4107
45171SOL    HW253506   9.629  11.666   4.335 -3.0356  0.1608 -1.9866
45172SOL     OW53507   0.170  10.206   5.268  0.3802 -0.3675  0.5801
45172SOL    HW153508   0.214  10.266   5.208  0.7202  0.1498  1.3258
45172SOL    HW253509   0.224  10.208   5.347 -0.0365 -1.0638  0.8927
45173SOL     OW53510   9.353   2.883   7.424  0.5172 -0.3436 -0.0456
45173SOL    HW153511   9.275   2.907   7.374  0.3637 -0.5610  0.0862
45173SOL    HW253512   9.369   2.958   7.481  0.4783 -0.2459 -0.1640
45174SOL     OW53513   9.589  13.369   5.501 -0.1362  0.0930 -0.3320
45174SOL    HW153514   9.499  13.337   5.505  0.3090 -1.1381  0.8193
45174SOL    HW253515   9.625  13.328   5.423 -0.1771 -0.5831 -0.0061
45175SOL     OW53516   1.088   5.135   9.775  0.3823  0.3450  0.2463
45175SOL    HW153517   1.052   5.192   9.707  1.7518  1.7682  0.6646
45175SOL    HW253518   1.014   5.115   9.831 -0.1432  1.7038  0.0733
45176SOL     OW53519   0.661   3.823   9.050 -0.3717 -0.2897  0.2011
45176SOL    HW153520   0.630   3.822   9.140 -1.1273 -0.2041 -0.0470
45176SOL    HW253521   0.654   3.732   9.021 -0.1717 -0.3102  0.2164
45177SOL     OW53522  12.893   3.122   2.796  0.3674 -0.1175 -0.0104
45177SOL    HW153523  12.978   3.142   2.757  0.4374 -2.5215 -1.2754
45177SOL    HW253524  12.914   3.070   2.873  0.0790  1.6140  1.3007
45178SOL     OW53525  10.806  11.579   4.603  0.1591 -0.5519 -0.2855
45178SOL    HW153526  10.885  11.622   4.637 -0.2751 -0.0051  0.0574
45178SOL    HW253527  10.813  11.489   4.633 -0.2235 -0.0874  1.3454
45179SOL     OW53528   6.582  11.602   7.396 -1.0368 -0.1704 -0.2323
45179SOL    HW153529   6.529  11.550   7.457 -1.5144  0.6220  0.0643
45179SOL    HW253530   6.528  11.680   7.380 -0.1408  0.4525 -0.2765
45180SOL     OW53531   2.130   4.932  11.421  0.6630 -0.1874 -0.5935
45180SOL    HW153532   2.160   4.892  11.340  2.3797  0.3361 -0.2508
45180SOL    HW253533   2.192   5.003  11.438  1.4850 -1.4138  2.1347
45181SOL     OW53534   6.150   4.098  12.886 -0.0599 -0.3047  0.1984
45181SOL    HW153535   6.065   4.128  12.918 -0.1509 -0.3996  0.0499
45181SOL    HW253536   6.180   4.168  12.828  0.3315  0.0920  0.8672
45182SOL     OW53537   6.263   4.941  12.032 -0.5082  0.5049 -0.1204
45182SOL    HW153538   6.234   4.995  11.958  0.1006 -0.0251 -0.7623
45182SOL    HW253539   6.338   4.988  12.068  0.5812 -0.3118 -1.2302
45183SOL     OW53540   9.104   4.519   7.529 -0.2149  0.2284  0.0137
45183SOL    HW153541   9.076   4.610   7.528  2.0943  1.0064  0.8278
45183SOL    HW253542   9.022   4.469   7.521 -1.3677  2.3051 -3.6684
45184SOL     OW53543   5.554   6.428   6.748  0.1110  0.5491 -0.0450
45184SOL    HW153544   5.504   6.353   6.781 -1.7913  1.4209 -0.8116
45184SOL    HW253545   5.617   6.390   6.686  0.3888 -0.5628  0.8736
45185SOL     OW53546   2.246  10.158   9.556 -0.2551 -0.1173  0.0747
45185SOL    HW153547   2.247  10.149   9.651 -2.4838 -1.1572  0.0844
45185SOL    HW253548   2.245  10.252   9.540 -3.4602  0.1980  1.3272
45186SOL     OW53549   9.793   2.492  13.213  0.7303 -0.3171 -0.7128
45186SOL    HW153550   9.888   2.487  13.225  0.5172 -0.5088  1.2315
45186SOL    HW253551   9.757   2.434  13.280 -0.8109  0.7952 -0.5215
45187SOL     OW53552   3.293   0.753  10.837  0.0681 -0.2755 -0.1899
45187SOL    HW153553   3.360   0.815  10.811  0.3588 -0.2707  0.5458
45187SOL    HW253554   3.223   0.807  10.874  0.8271 -0.4293  1.5583
45188SOL     OW53555   1.317  11.567   8.342  0.2341  0.0093 -0.4830
45188SOL    HW153556   1.351  11.625   8.273  0.7481 -1.4126 -1.4750
45188SOL    HW253557   1.330  11.616   8.423  0.0548  1.5383 -1.3425
45189SOL     OW53558   0.363   7.875   9.794 -0.1228  0.4078 -0.1414
45189SOL    HW153559   0.381   7.803   9.734 -1.6322 -0.5617  0.5003
45189SOL    HW253560   0.356   7.834   9.880 -3.1877  0.8731 -0.0283
45190SOL     OW53561   8.071  13.461   5.902  0.0230 -0.3815 -0.1711
45190SOL    HW153562   8.115  13.396   5.956  1.6122 -0.3767 -1.3828
45190SOL    HW253563   8.142  13.519   5.872 -0.8620 -0.0370 -1.7295
45191SOL     OW53564  12.861  10.933   6.504 -0.2304  0.4585 -0.2092
45191SOL    HW153565  12.865  10.883   6.422 -3.2665 -1.2776  0.5673
45191SOL    HW253566  12.777  10.978   6.501 -1.0484 -0.6608  2.4116
45192SOL     OW53567   3.104  11.141   1.079 -0.0454 -0.0883 -0.6619
45192SOL    HW153568   3.043  11.118   1.010 -1.2800  3.1556 -0.8148
45192SOL    HW253569   3.185  11.163   1.033 -0.7561  1.7141 -1.1693
45193SOL     OW53570  12.970  11.933   2.923 -0.1132  0.4821  0.1522
45193SOL    HW153571  13.022  11.857   2.896 -1.1446 -0.5199  0.8828
45193SOL    HW253572  13.027  11.982   2.982  0.6260  0.3761 -0.4643
45194SOL     OW53573   9.610  13.417  10.777 -0.1157 -0.4346 -0.5817
45194SOL    HW153574   9.587  13.434  10.869 -0.0677  1.5025 -0.8866
45194SOL    HW253575   9.689  13.469  10.762 -0.2464 -0.5572 -1.7642
45195SOL     OW53576   2.466   3.485  10.909  0.0018 -0.0602 -0.5345
45195SOL    HW153577   2.553   3.522  10.896  0.1452 -0.3261 -0.3387
45195SOL    HW253578   2.411   3.561  10.931  0.0448  0.1954 -1.2829
45196SOL     OW53579   7.671   7.899   8.763 -0.1282  0.0901  0.0248
45196SOL    HW153580   7.629   7.952   8.695  0.4809  1.2539  0.5091
45196SOL    HW253581   7.699   7.819   8.719  1.4826  1.3953 -1.4655
45197SOL     OW53582   9.423   3.347   1.028  0.5642 -0.2802 -0.1473
45197SOL    HW153583   9.435   3.252   1.021  1.8093 -0.2739  1.3433
45197SOL    HW253584   9.349   3.357   1.088  1.6408 -0.3600  1.2618
45198SOL     OW53585   5.566   3.845   0.116  0.0424  0.0936  0.2650
45198SOL    HW153586   5.654   3.819   0.087  0.6680  1.0223  1.2650
45198SOL    HW253587   5.580   3.926   0.164 -1.8255  2.4399 -2.7626
45199SOL     OW53588   7.970   9.288   7.282 -0.2897  0.0112  0.2496
45199SOL    HW153589   8.040   9.319   7.339  1.8441 -0.2852 -2.0473
45199SOL    HW253590   7.953   9.362   7.223 -0.6258 -0.5431 -0.3624
45200SOL     OW53591   0.254   7.298   0.467  1.0815  0.1191 -0.5977
45200SOL    HW153592   0.301   7.375   0.437  0.8750 -0.1650 -1.6653
45200SOL    HW253593   0.221   7.256   0.388  2.2304 -1.7409 -0.1623
45201SOL     OW53594   7.178   5.958  11.006 -0.4957  0.1696 -0.5764
45201SOL    HW153595   7.091   5.937  10.973 -0.1271  0.1361 -1.5416
45201SOL    HW253596   7.164   5.974  11.100 -1.3400 -0.9992 -0.4731
45202SOL     OW53597   5.421   8.617  10.552  0.0058  0.0365  0.6735
45202SOL    HW153598   5.393   8.530  10.581 -0.9120 -0.0274 -0.3029
45202SOL    HW253599   5.381   8.627  10.465  0.7435  1.1209  0.4313
45203SOL     OW53600   9.835   1.827  11.638 -0.4367  0.0386  0.2411
45203SOL    HW153601   9.873   1.748  11.600  2.0323  1.7737 -1.1755
45203SOL    HW253602   9.908   1.870  11.682 -1.4811  1.9625  0.2205
45204SOL     OW53603   6.086  10.411  11.928  0.0694 -0.2842  0.1372
45204SOL    HW153604   6.067  10.435  12.019 -1.5698  3.5121 -1.0118
45204SOL    HW253605   6.175  10.444  11.913 -0.1331  0.2384  0.0551
45205SOL     OW53606   5.810   0.560  11.846  0.4588 -0.0255 -0.5309
45205SOL    HW153607   5.804   0.521  11.933 -0.3304 -0.0914 -0.6092
45205SOL    HW253608   5.720   0.559  11.813  0.6202  0.7959 -1.0040
45206SOL     OW53609   0.598   9.821   4.836  0.4054 -0.4953 -0.6098
45206SOL    HW153610   0.556   9.876   4.902 -1.0036  1.7259 -3.1883
45206SOL    HW253611   0.692   9.837   4.847  0.0936  1.2033 -0.2469
45207SOL     OW53612   9.281  12.356  12.056 -0.5771 -0.3342  0.1764
45207SOL    HW153613   9.197  12.312  12.039 -0.6734 -0.3413  0.6403
45207SOL    HW253614   9.256  12.443  12.088 -0.4100 -0.3742  0.4161
45208SOL     OW53615  11.150   3.248   8.384  0.7436  1.2540 -0.2180
45208SOL    HW153616  11.175   3.217   8.471 -0.2416 -0.1471 -0.3953
45208SOL    HW253617  11.076   3.307   8.401 -1.1339 -0.9666 -0.2033
45209SOL     OW53618   1.321   4.686   7.895  0.5481  0.3943  0.5001
45209SOL    HW153619   1.242   4.703   7.845  1.0814 -0.3018 -0.6398
45209SOL    HW253620   1.393   4.707   7.835  1.2106 -0.4774  0.9490
45210SOL     OW53621   9.395  10.969   1.195 -0.3308  0.1676  0.5746
45210SOL    HW153622   9.358  10.948   1.109  0.6878  0.8267 -0.0468
45210SOL    HW253623   9.490  10.972   1.180 -0.1588  0.5570  1.6646
45211SOL     OW53624   0.128  13.210  10.395  0.1182 -0.3335 -0.0647
45211SOL    HW153625   0.129  13.305  10.384  0.0252 -0.5403 -2.3417
45211SOL    HW253626   0.219  13.187  10.413  0.0210  0.2259  1.2667
45212SOL     OW53627   8.759  10.638   9.981 -0.3683  0.2583  0.1882
45212SOL    HW153628   8.745  10.605  10.069  3.6102  2.4537  1.9435
45212SOL    HW253629   8.758  10.734   9.991  3.7465  0.6536 -1.1696
45213SOL     OW53630  12.590   3.869  11.097  0.7686 -0.4818 -0.1528
45213SOL    HW153631  12.553   3.856  11.184 -0.1155  0.5841 -0.3448
45213SOL    HW253632  12.545   3.947  11.064  3.0819  0.8146 -0.4644
45214SOL     OW53633  13.692   7.491   0.399 -0.3662 -0.0379 -0.1462
45214SOL    HW153634  13.662   7.409   0.360  0.5460 -0.2299 -0.4526
45214SOL    HW253635  13.786   7.481   0.408 -0.3035  0.8009  0.2371
45215SOL     OW53636  13.792   0.588   2.664 -0.1253 -0.2459  0.5858
45215SOL    HW153637  13.884   0.613   2.672 -0.7313  1.9571  1.6301
45215SOL    HW253638  13.790   0.522   2.596  2.0174  0.9315 -0.7115
45216SOL     OW53639   7.606   5.962   5.016  0.3380  0.5046 -0.2499
45216SOL    HW153640   7.541   5.904   5.054  1.2325  0.3132  1.0377
45216SOL    HW253641   7.652   6.000   5.091  3.3393 -1.2290 -1.0624
45217SOL     OW53642   3.082  11.897  10.769  0.8203 -0.4658  0.1606
45217SOL    HW153643   3.035  11.817  10.744  1.6161 -1.5237  1.9008
45217SOL    HW253644   3.015  11.954  10.807  0.7559 -1.7011  2.0271
45218SOL     OW53645   7.672   1.441  12.501  0.7690 -0.3765  0.5473
45218SOL    HW153646   7.714   1.408  12.421  1.1924 -0.5052  0.8202
45218SOL    HW253647   7.744   1.453  12.562  0.4821  0.0183  0.8109
45219SOL     OW53648   8.542   7.208   7.707 -0.2054 -0.0433 -0.2744
45219SOL    HW153649   8.482   7.260   7.652 -0.6582  1.5647  1.6527
45219SOL    HW253650   8.495   7.198   7.790 -0.3676 -4.0739 -0.6626
45220SOL     OW53651  13.728   3.926   2.891  0.3013  0.2800  0.3763
45220SOL    HW153652  13.634   3.926   2.910  0.0367 -1.0455 -0.7628
45220SOL    HW253653  13.769   3.892   2.970 -0.0778  1.5875  1.1723
45221SOL     OW53654   9.516   9.613   7.172 -0.1361 -0.3038 -0.2868
45221SOL    HW153655   9.600   9.659   7.177  0.0437 -0.5619 -0.8684
45221SOL    HW253656   9.539   9.522   7.153 -0.5359 -0.4496 -0.0903
45222SOL     OW53657   7.630  11.743   7.103 -0.4323 -0.4749 -0.1564
45222SOL    HW153658   7.705  11.762   7.047  1.9981 -2.8397  1.9620
45222SOL    HW253659   7.595  11.660   7.070 -2.3097  0.6658 -1.2023
45223SOL     OW53660   4.579   3.639   9.645  0.0600 -0.1409 -0.2309
45223SOL    HW153661   4.611   3.695   9.716  2.7411 -1.9123  0.1210
45223SOL    HW253662   4.588   3.550   9.679 -1.3309 -0.9320 -1.7960
45224SOL     OW53663   5.545  12.784   8.417  0.1501  0.8348 -0.1725
45224SOL    HW153664   5.571  12.696   8.446 -0.3034  0.4271 -0.9641
45224SOL    HW253665   5.517  12.828   8.498 -0.9540 -0.2263  0.0611
45225SOL     OW53666  12.179   7.853  13.935 -0.4225  0.6705  0.1446
45225SOL    HW153667  12.250   7.789  13.933 -0.4855  0.5786 -1.9959
45225SOL    HW253668  12.100   7.801  13.923 -0.6667  0.9530  0.5226
45226SOL     OW53669   9.210   4.551   8.254  0.1365 -0.1696  0.0224
45226SOL    HW153670   9.265   4.524   8.327 -0.7348 -2.7285 -0.1479
45226SOL    HW253671   9.254   4.517   8.176  0.6924  1.9079 -0.6099
45227SOL     OW53672  13.711  11.658  12.375  0.0275 -0.4874 -0.0498
45227SOL    HW153673  13.674  11.587  12.322 -0.7352  0.0555 -0.2595
45227SOL    HW253674  13.747  11.719  12.312 -0.6647  0.0417  0.0505
45228SOL     OW53675  13.719  13.960   5.675 -0.1119 -1.0943 -0.3294
45228SOL    HW153676  13.625  13.982   5.677  0.3450  1.1191  0.5545
45228SOL    HW253677  13.744  13.957   5.767  1.3088  1.8693 -0.4833
45229SOL     OW53678   8.074   2.609   7.960  0.2483  0.8158  0.4326
45229SOL    HW153679   8.081   2.589   8.054  0.5120  0.0440  0.2544
45229SOL    HW253680   7.981   2.627   7.946 -0.0827 -0.7347  0.5248
45230SOL     OW53681  12.173   2.446  13.152  0.7298 -0.4310  0.2181
45230SOL    HW153682  12.077   2.453  13.154  0.7067 -0.8719  1.4469
45230SOL    HW253683  12.190   2.352  13.146  1.1007 -0.2822 -1.6290
45231SOL     OW53684   0.769   8.801   0.312  0.1254  0.1826  0.5199
45231SOL    HW153685   0.785   8.886   0.273  0.1306 -0.4496 -0.9114
45231SOL    HW253686   0.855   8.757   0.310 -0.1789 -0.4103 -0.1903
45232SOL     OW53687   3.424   0.733   1.396 -0.5105  0.6153  0.1353
45232SOL    HW153688   3.422   0.735   1.491  0.9262 -0.7566  0.2393
45232SOL    HW253689   3.394   0.820   1.369  1.2271  1.8556  1.9198
45233SOL     OW53690  12.489   9.576   7.823  0.1968 -0.4372  0.3063
45233SOL    HW153691  12.581   9.559   7.800 -0.7225 -2.0836 -2.6806
45233SOL    HW253692  12.468   9.658   7.778 -0.5853 -1.7383 -1.8603
45234SOL     OW53693   5.843  13.852   9.843  0.3607  0.0357 -0.0055
45234SOL    HW153694   5.923  13.897   9.870  0.5165 -0.6316  0.6641
45234SOL    HW253695   5.867  13.804   9.764 -0.2665  2.5376 -1.8298
45235SOL     OW53696   7.242  11.229   2.426  0.3078  0.5453 -0.9654
45235SOL    HW153697   7.168  11.241   2.485  0.5642  1.3252 -0.7843
45235SOL    HW253698   7.269  11.138   2.439 -0.4455  0.3293 -0.8404
45236SOL     OW53699   3.352  10.529   6.795  0.1773 -0.1517 -0.0585
45236SOL    HW153700   3.407  10.451   6.790  1.4352  0.7811 -1.4097
45236SOL    HW253701   3.307  10.521   6.880  0.8947 -1.9129  0.1949
45237SOL     OW53702   4.359   6.236   1.817  0.3454 -0.3865  0.0535
45237SOL    HW153703   4.346   6.224   1.723  1.2865 -1.2216  0.0216
45237SOL    HW253704   4.454   6.237   1.829  0.2369 -0.2896  0.9968
45238SOL     OW53705   8.697   4.300   1.305 -0.0781  0.0150  0.5065
45238SOL    HW153706   8.659   4.321   1.391  0.2165  1.4508  0.3126
45238SOL    HW253707   8.637   4.236   1.267 -0.1219 -0.7767  1.8538
45239SOL     OW53708   3.637  11.758  12.992  0.0156 -0.3018  0.1407
45239SOL    HW153709   3.653  11.725  13.080 -1.2665  1.4336  1.0881
45239SOL    HW253710   3.708  11.722  12.939  0.7068 -1.5282  1.8320
45240SOL     OW53711  13.414   2.027   8.046 -0.4378 -0.0241  0.9751
45240SOL    HW153712  13.377   2.029   8.134 -0.0271  1.8486  1.1475
45240SOL    HW253713  13.508   2.018   8.059 -0.4130 -0.1911  0.7047
45241SOL     OW53714   9.642   7.115  12.842 -0.3960 -0.3014 -0.0467
45241SOL    HW153715   9.711   7.064  12.885  0.6521 -0.2925 -1.6494
45241SOL    HW253716   9.634   7.193  12.896 -0.8028 -1.3319  1.4584
45242SOL     OW53717   5.901   9.867   4.883  0.1791 -0.0019 -0.3592
45242SOL    HW153718   5.884   9.861   4.789 -0.6677 -1.6559 -0.1318
45242SOL    HW253719   5.935   9.956   4.895 -0.2316  0.4415 -2.1294
45243SOL     OW53720  10.450   2.264   9.366 -0.0252 -0.9091  0.1602
45243SOL    HW153721  10.418   2.189   9.415  0.5952 -0.4953  1.2364
45243SOL    HW253722  10.545   2.254   9.365  0.0443 -0.2907  0.0637
45244SOL     OW53723   0.893   2.047   8.772  0.1839 -0.1185  0.2256
45244SOL    HW153724   0.938   1.997   8.704 -0.3625 -0.5713  0.1894
45244SOL    HW253725   0.942   2.028   8.852  1.5602  1.3432 -0.2043
45245SOL     OW53726  12.091   9.993   3.955 -0.0255  0.2950 -0.0546
45245SOL    HW153727  12.133  10.073   3.924  0.3371 -0.0713 -0.5270
45245SOL    HW253728  12.108   9.992   4.049  0.0864  0.7012 -0.0681
45246SOL     OW53729   4.769  11.023  11.885 -0.5003 -0.2469 -0.8639
45246SOL    HW153730   4.694  11.071  11.851 -0.5995 -0.2979 -0.7204
45246SOL    HW253731   4.774  10.944  11.831 -0.9903 -0.5979 -0.4155
45247SOL     OW53732   7.453   8.862   4.805 -0.1232 -0.0963  0.1086
45247SOL    HW153733   7.489   8.775   4.820  0.3625 -0.0148 -0.5703
45247SOL    HW253734   7.489   8.890   4.721  1.3543  1.5697  1.2070
45248SOL     OW53735  12.509  11.738  10.464  0.0217  0.4295  0.6698
45248SOL    HW153736  12.416  11.762  10.460 -0.1005 -0.1179  0.1777
45248SOL    HW253737  12.547  11.776  10.385 -0.1355 -0.7938 -0.0190
45249SOL     OW53738   5.988   4.837   6.528 -0.0391 -0.0592  0.4893
45249SOL    HW153739   6.018   4.753   6.563 -1.8381 -0.3977  1.3044
45249SOL    HW253740   6.034   4.846   6.444 -0.5975 -2.3393 -0.1107
45250SOL     OW53741   0.510   4.081   4.032  0.6092  0.6663 -0.0432
45250SOL    HW153742   0.524   4.002   4.084  1.7560  1.3108  0.6841
45250SOL    HW253743   0.437   4.126   4.076 -0.5591 -0.3182 -0.9049
45251SOL     OW53744  13.021   7.013   1.643 -0.0217 -0.0257  0.0087
45251SOL    HW153745  12.972   7.004   1.724  0.5276 -1.4217  0.2000
45251SOL    HW253746  13.105   7.050   1.670  0.6513 -1.6710  0.2861
45252SOL     OW53747   2.855   5.187   5.095  0.2619 -0.2836  0.5080
45252SOL    HW153748   2.861   5.092   5.105  1.2711 -0.2053  0.7657
45252SOL    HW253749   2.763   5.207   5.115 -0.3187 -1.3497 -0.9442
45253SOL     OW53750   4.930  10.635   3.120 -0.2185  0.6880  0.5002
45253SOL    HW153751   5.014  10.605   3.085 -1.0100  0.6548 -1.4675
45253SOL    HW253752   4.904  10.566   3.181  0.0127 -0.5537 -0.7488
45254SOL     OW53753  10.844  13.159   3.962 -0.4883 -0.0966  0.1247
45254SOL    HW153754  10.933  13.127   3.975 -0.2480  0.4887 -0.0693
45254SOL    HW253755  10.850  13.217   3.886 -0.9875  0.1476  0.2690
45255SOL     OW53756   8.265   6.376   8.097 -0.0880 -0.0540  0.0412
45255SOL    HW153757   8.277   6.338   8.184 -2.0874 -1.5660 -0.2625
45255SOL    HW253758   8.179   6.418   8.101  0.2000  0.6501 -0.9325
45256SOL     OW53759  13.829   5.016  12.291 -1.0792 -0.0989 -0.2181
45256SOL    HW153760  13.752   5.070  12.276 -0.9709  0.1773  0.2079
45256SOL    HW253761  13.823   4.947  12.225 -1.8881 -0.2955  0.0515
45257SOL     OW53762   1.052   1.535  10.731 -0.1078 -0.0413 -0.1651
45257SOL    HW153763   1.064   1.570  10.820 -0.8896  0.6334 -0.3182
45257SOL    HW253764   1.127   1.569  10.683  0.0166  0.0654  0.0981
45258SOL     OW53765   9.334   8.047  10.764 -0.3332  0.0218 -0.5584
45258SOL    HW153766   9.309   7.976  10.823  1.2723  1.5480  2.1980
45258SOL    HW253767   9.398   8.008  10.705  1.2609 -0.7411  1.5114
45259SOL     OW53768   9.232   4.468   4.927  0.2794  0.0065 -0.1337
45259SOL    HW153769   9.327   4.457   4.937 -0.2214 -3.9269  3.3612
45259SOL    HW253770   9.204   4.505   5.010 -1.3259  0.7812 -0.9915
45260SOL     OW53771   3.532   9.913  13.272  0.2253  0.2515  0.5192
45260SOL    HW153772   3.512   9.867  13.191 -1.0858  0.7671  0.5292
45260SOL    HW253773   3.553   9.844  13.334  0.0097 -0.2198  0.0788
45261SOL     OW53774   0.189   0.770  11.476  0.0223 -0.4251 -0.3786
45261SOL    HW153775   0.180   0.813  11.392 -0.5951  2.2186  0.9381
45261SOL    HW253776   0.170   0.678  11.458 -1.4469  0.2784 -2.8659
45262SOL     OW53777   0.084   6.953  12.496 -0.2043 -0.1922  0.0165
45262SOL    HW153778   0.113   6.944  12.405 -1.0606  0.8864 -0.3929
45262SOL    HW253779   0.119   7.037  12.525 -0.9434  0.0399  0.2733
45263SOL     OW53780   0.404   7.465   9.293 -0.1672 -0.5251  0.0602
45263SOL    HW153781   0.430   7.506   9.210 -0.2752  0.5725  0.5466
45263SOL    HW253782   0.470   7.398   9.308 -0.0734 -0.6519 -0.8489
45264SOL     OW53783  13.217   7.525   5.187 -0.4554  0.3433 -0.0702
45264SOL    HW153784  13.167   7.584   5.130  0.3688 -0.3326 -1.5478
45264SOL    HW253785  13.301   7.513   5.142  0.2182 -0.2588  1.2809
45265SOL     OW53786   4.798   4.084  11.953 -0.1728 -0.1842 -0.4708
45265SOL    HW153787   4.796   4.178  11.970  2.6627 -0.2002  0.5773
45265SOL    HW253788   4.859   4.074  11.880  0.4810 -1.2480  0.1936
45266SOL     OW53789   8.646   6.308   5.412 -0.0402 -0.7111 -0.4261
45266SOL    HW153790   8.692   6.225   5.404  0.1234 -0.7414  0.6935
45266SOL    HW253791   8.699   6.370   5.362  0.1137 -1.1675 -0.8278
45267SOL     OW53792   7.491   3.515  10.335 -0.8591 -0.1927 -0.2397
45267SOL    HW153793   7.586   3.528  10.343 -0.8792 -0.5357  0.6589
45267SOL    HW253794   7.474   3.527  10.242  0.2479 -1.2619 -0.6107
45268SOL     OW53795  14.014   2.818  11.142  0.8863 -0.0168  0.2748
45268SOL    HW153796  13.933   2.855  11.176 -0.1023 -1.8382  0.0292
45268SOL    HW253797  14.077   2.826  11.214  0.2441  0.5792  0.7863
45269SOL     OW53798  12.540  11.483   0.999 -0.0102 -0.2385  0.9317
45269SOL    HW153799  12.484  11.550   0.960 -0.8497  0.1480  2.6921
45269SOL    HW253800  12.628  11.503   0.966 -0.5757  0.3847 -0.2799
45270SOL     OW53801   2.452   7.186   1.886 -0.0788 -0.2193  0.2612
45270SOL    HW153802   2.442   7.091   1.891  0.2249 -0.2264  0.8016
45270SOL    HW253803   2.547   7.199   1.882 -0.1404  0.0128 -0.9615
45271SOL     OW53804   4.307  10.138  12.124  0.2226  0.0557  0.1738
45271SOL    HW153805   4.379  10.146  12.187 -0.6432 -0.8289  1.3281
45271SOL    HW253806   4.329  10.200  12.054  2.2319 -0.3917  0.3485
45272SOL     OW53807   5.350   1.130   9.767 -0.1235 -0.6665  0.2409
45272SOL    HW153808   5.331   1.108   9.676  0.1576 -1.1155  0.2911
45272SOL    HW253809   5.354   1.046   9.812  1.4338 -0.5773  0.3420
45273SOL     OW53810   9.864  12.444   6.419 -0.5994 -0.0094 -0.8648
45273SOL    HW153811   9.823  12.389   6.352 -1.7606  1.2517 -1.2305
45273SOL    HW253812   9.861  12.533   6.383 -1.9452  0.8391  1.1276
45274SOL     OW53813   0.349   9.507   5.777  0.0448  0.1510 -0.1943
45274SOL    HW153814   0.415   9.495   5.708 -1.7376 -1.8836 -1.6905
45274SOL    HW253815   0.284   9.439   5.759 -1.8984  1.3581  1.8784
45275SOL     OW53816  10.559  10.951   4.888  0.5415 -0.2024 -0.5215
45275SOL    HW153817  10.614  11.025   4.917 -3.2451  2.5599  0.4445
45275SOL    HW253818  10.540  10.970   4.797  0.3718 -0.5685 -0.5631
45276SOL     OW53819   2.225  10.410   5.022 -0.3323 -0.3396  0.2155
45276SOL    HW153820   2.155  10.465   4.986 -0.9726 -0.3987  1.3114
45276SOL    HW253821   2.305  10.447   4.986 -0.8333  0.5938  0.0102
45277SOL     OW53822   0.165   1.075   5.594  0.3347  0.5722 -0.3159
45277SOL    HW153823   0.235   1.058   5.531 -0.0322 -0.7965 -0.3812
45277SOL    HW253824   0.209   1.076   5.679  0.5858  0.8392 -0.4441
45278SOL     OW53825   9.153   5.946   0.645 -0.0554  0.1136 -0.5656
45278SOL    HW153826   9.222   6.012   0.649  0.4098 -0.3969 -0.0043
45278SOL    HW253827   9.124   5.948   0.554  0.5766  0.4608 -0.7692
45279SOL     OW53828   8.787  10.612   3.200 -0.6814 -0.0894  0.0161
45279SOL    HW153829   8.744  10.575   3.277 -1.1395 -1.1762 -0.7410
45279SOL    HW253830   8.731  10.586   3.127 -0.3651  1.0977 -0.6712
45280SOL     OW53831   9.709   1.761   2.362  0.0560 -1.0541 -0.2689
45280SOL    HW153832   9.620   1.731   2.348 -1.7415  2.9628  1.0416
45280SOL    HW253833   9.703   1.857   2.357  4.2513 -0.5806  0.1947
45281SOL     OW53834  10.239  12.854   6.749 -0.1019 -0.1140 -0.4174
45281SOL    HW153835  10.334  12.852   6.739 -0.1921  1.1361 -1.9534
45281SOL    HW253836  10.224  12.857   6.843  1.3654 -0.5066 -0.1504
45282SOL     OW53837   0.214   1.507   6.304 -0.0274 -0.0397 -0.0820
45282SOL    HW153838   0.127   1.538   6.281 -0.3011  0.5152  1.6122
45282SOL    HW253839   0.268   1.586   6.306  0.0331 -0.0976  0.9170
45283SOL     OW53840   8.723   5.934  10.057  0.0219 -0.4707  0.2601
45283SOL    HW153841   8.748   5.887   9.978 -0.0771 -0.8988  0.4725
45283SOL    HW253842   8.707   5.864  10.121 -1.9128 -0.2675  0.0768
45284SOL     OW53843  13.563   9.810   2.760 -0.1438  0.4397  0.4551
45284SOL    HW153844  13.556   9.902   2.786 -0.9639  0.6089 -0.3322
45284SOL    HW253845  13.584   9.764   2.842 -1.3607  1.1153  1.1773
45285SOL     OW53846   2.716   4.785   6.477 -0.2942 -0.3511  0.2230
45285SOL    HW153847   2.643   4.830   6.434  0.8175  0.5242 -0.7882
45285SOL    HW253848   2.779   4.769   6.407  0.5233 -1.0563  1.0973
45286SOL     OW53849  12.869   7.756  11.489  0.5319 -0.4452 -0.1927
45286SOL    HW153850  12.956   7.748  11.451  0.8150 -0.0669  0.3657
45286SOL    HW253851  12.818   7.802  11.423  0.8813 -0.2452 -0.3241
45287SOL     OW53852   8.131  10.331   6.730  0.1178  0.0773 -0.1020
45287SOL    HW153853   8.152  10.290   6.813 -1.5655  0.7537  0.7091
45287SOL    HW253854   8.100  10.418   6.753 -0.0933  0.3947 -1.4615
45288SOL     OW53855  12.555   3.149   3.734  0.1766 -0.4426 -0.0582
45288SOL    HW153856  12.543   3.207   3.658  0.4395 -1.0384 -0.5693
45288SOL    HW253857  12.477   3.094   3.735  0.4896 -0.9006 -0.3203
45289SOL     OW53858   1.271   6.564   9.054 -0.1508 -0.0532 -0.2223
45289SOL    HW153859   1.188   6.612   9.055  0.3467  0.8587 -0.9422
45289SOL    HW253860   1.338   6.631   9.072  0.5688 -0.4199 -1.3833
45290SOL     OW53861   9.372   8.979   3.473 -0.6168 -0.7593 -0.2011
45290SOL    HW153862   9.358   9.043   3.403 -0.7063 -0.4089  0.1321
45290SOL    HW253863   9.443   9.016   3.525 -1.3090 -0.4564  0.5380
45291SOL     OW53864   3.834   2.208   6.452 -0.3723 -0.1926  0.0668
45291SOL    HW153865   3.796   2.266   6.518 -1.6679 -3.0557  2.0435
45291SOL    HW253866   3.901   2.158   6.499 -0.1180 -1.1066 -1.2199
45292SOL     OW53867   4.850  13.653   4.881 -0.2288  0.0624 -0.1323
45292SOL    HW153868   4.877  13.565   4.856 -0.0392  0.1195 -0.1269
45292SOL    HW253869   4.845  13.651   4.977  0.5423  0.2806 -0.0828
45293SOL     OW53870   9.270   9.959   3.375  0.5503 -0.3734 -0.2836
45293SOL    HW153871   9.328  10.030   3.345 -1.0247  0.7530 -0.7971
45293SOL    HW253872   9.251   9.981   3.466  2.3073 -1.7297  0.4600
45294SOL     OW53873  10.071   4.453   4.046  0.5742  0.0355 -0.3026
45294SOL    HW153874  10.048   4.485   3.959  0.3557  2.0611  0.4393
45294SOL    HW253875   9.989   4.418   4.081  0.6442 -0.7035 -0.8440
45295SOL     OW53876   1.514   7.674   0.323 -0.4895 -0.0250  0.5348
45295SOL    HW153877   1.454   7.742   0.293  0.3266  0.8057  0.7537
45295SOL    HW253878   1.551   7.709   0.404  3.0755  1.2116 -1.4152
45296SOL     OW53879   5.386   5.632  12.753 -0.3484  0.2105  0.3169
45296SOL    HW153880   5.339   5.649  12.671  0.1174 -3.0963 -0.7829
45296SOL    HW253881   5.473   5.668  12.738 -0.3334 -0.1623 -0.5595
45297SOL     OW53882   9.977  11.608  14.075 -0.7477  0.5934  0.0550
45297SOL    HW153883   9.910  11.544  14.050  0.9813 -1.0176 -0.7308
45297SOL    HW253884  10.037  11.609  14.001  0.8684  0.8691  1.3224
45298SOL     OW53885   9.423  13.911   9.004 -0.4462  0.3615 -0.1838
45298SOL    HW153886   9.445  13.995   9.043  0.3459 -0.0849  0.3490
45298SOL    HW253887   9.489  13.896   8.937 -0.2772 -0.0706  0.0725
45299SOL     OW53888  12.811   3.987   6.231  0.2091 -0.1038  0.0393
45299SOL    HW153889  12.852   3.901   6.221  1.0957  0.0629  1.8802
45299SOL    HW253890  12.776   3.986   6.320 -0.2365  1.2557 -0.1108
45300SOL     OW53891   3.140   5.040  12.592  0.7607  0.1441  0.7941
45300SOL    HW153892   3.177   5.019  12.678  1.4562  0.1141  0.4968
45300SOL    HW253893   3.145   5.136  12.586  0.8250  0.1379  0.7435
45301SOL     OW53894   2.678   4.499   9.657  0.7592  0.3689 -0.1490
45301SOL    HW153895   2.716   4.581   9.688  2.5394  0.2911 -1.9408
45301SOL    HW253896   2.753   4.442   9.641 -0.3181 -0.9067 -0.8584
45302SOL     OW53897   1.341  11.469   6.166  0.4846  0.0296  0.2377
45302SOL    HW153898   1.359  11.517   6.084 -1.1256 -0.5743 -0.5064
45302SOL    HW253899   1.405  11.398   6.166  0.7302  0.2420 -0.3255
45303SOL     OW53900   6.808   0.913   9.629 -0.5699  0.5524 -0.1112
45303SOL    HW153901   6.875   0.890   9.693  0.7603 -0.1744 -1.7194
45303SOL    HW253902   6.838   0.995   9.591 -2.3162  2.0181  1.4298
45304SOL     OW53903  13.134   7.817   3.738  0.2417  0.4150  0.1760
45304SOL    HW153904  13.111   7.786   3.650 -1.1327 -1.1792  1.0639
45304SOL    HW253905  13.052   7.819   3.786  0.8345  2.0994  1.2359
45305SOL     OW53906   0.076   5.205   0.668 -0.0925 -0.1825  0.3324
45305SOL    HW153907  -0.006   5.253   0.682 -0.7419 -1.2185  0.1657
45305SOL    HW253908   0.061   5.119   0.707  1.0595 -0.2603  0.6415
45306SOL     OW53909   7.812  12.922   7.489 -0.1601 -0.3903  0.0873
45306SOL    HW153910   7.779  12.860   7.554 -2.6068  0.9278  0.2185
45306SOL    HW253911   7.804  13.007   7.531  3.0235  0.1310 -0.1259
45307SOL     OW53912   4.994   8.569   9.960 -0.9862  0.1598  0.3209
45307SOL    HW153913   4.944   8.543   9.883  1.1498 -1.1881 -0.7002
45307SOL    HW253914   5.064   8.624   9.926  1.5673 -2.5288  0.7767
45308SOL     OW53915   6.254   8.791   2.885 -0.4980  0.1026 -0.1704
45308SOL    HW153916   6.244   8.812   2.792  1.0374  0.4004 -0.2946
45308SOL    HW253917   6.347   8.804   2.902 -0.7942  0.2348  1.4625
45309SOL     OW53918   9.520   6.822   2.068 -0.1278  0.0429  0.1305
45309SOL    HW153919   9.601   6.871   2.080  0.1572 -0.9986  3.1868
45309SOL    HW253920   9.485   6.812   2.156 -1.7984 -2.5026 -0.7309
45310SOL     OW53921   1.108   0.897  12.892  0.3109  0.0278 -0.6670
45310SOL    HW153922   1.188   0.946  12.907  0.5247 -0.4396 -0.2578
45310SOL    HW253923   1.101   0.838  12.967 -1.1297  1.0030  0.0172
45311SOL     OW53924   3.804  10.143   0.893 -0.1974  0.2599 -0.1144
45311SOL    HW153925   3.879  10.084   0.882 -0.8921 -0.4043 -1.6554
45311SOL    HW253926   3.780  10.134   0.985  0.9242 -0.3636  0.1445
45312SOL     OW53927   9.136   2.622   5.631 -0.4344  0.2859 -0.3001
45312SOL    HW153928   9.054   2.670   5.625 -1.0673 -0.5913  0.9674
45312SOL    HW253929   9.120   2.540   5.584 -0.9648 -0.7104  1.4985
45313SOL     OW53930   7.470   3.806   8.062 -0.7348  0.3500 -0.5757
45313SOL    HW153931   7.564   3.809   8.044 -0.2177  2.7797  1.9327
45313SOL    HW253932   7.437   3.891   8.036 -2.1403 -0.2209 -0.7665
45314SOL     OW53933  12.559   8.926  10.491  0.2016  0.6186 -0.3250
45314SOL    HW153934  12.575   9.020  10.498 -1.1946  0.8242  0.5146
45314SOL    HW253935  12.487   8.909  10.552  0.4482 -1.0041 -0.4373
45315SOL     OW53936  10.080  13.756  11.454  0.2909  0.4999 -0.3113
45315SOL    HW153937  10.033  13.682  11.417  0.1677 -0.4688  1.6527
45315SOL    HW253938  10.014  13.824  11.464 -0.4258 -0.3527  1.0679
45316SOL     OW53939   6.857  11.555   3.228 -0.5920  0.0132  0.0007
45316SOL    HW153940   6.814  11.508   3.157 -0.3893 -0.3944  0.1431
45316SOL    HW253941   6.816  11.521   3.308 -2.1676  1.8318  0.0294
45317SOL     OW53942   7.519   3.205  11.779 -0.0394  0.6885 -0.8400
45317SOL    HW153943   7.481   3.125  11.817 -0.2195  0.0575 -2.2742
45317SOL    HW253944   7.612   3.199  11.800  0.3632 -1.0912 -2.8279
45318SOL     OW53945   6.836   3.283   1.512  0.1669  0.0141  0.0117
45318SOL    HW153946   6.780   3.332   1.573 -1.1728 -0.6113 -0.6555
45318SOL    HW253947   6.883   3.220   1.567 -0.2408  0.1500  0.5248
45319SOL     OW53948   0.753   0.313   6.514 -0.3525  0.1628  0.1009
45319SOL    HW153949   0.828   0.252   6.509 -0.8190 -0.3357 -1.3861
45319SOL    HW253950   0.756   0.360   6.431 -1.8650 -0.0733 -0.1051
45320SOL     OW53951   3.550   2.247   7.702 -0.0406  0.0649 -1.0314
45320SOL    HW153952   3.487   2.306   7.743  1.4073 -0.5341  2.4326
45320SOL    HW253953   3.623   2.304   7.676  0.7227  0.0811  0.9710
45321SOL     OW53954  12.040   2.163   6.992 -0.2170 -0.8088  0.2685
45321SOL    HW153955  12.121   2.112   6.996  0.3691  0.0331 -0.3956
45321SOL    HW253956  12.032   2.203   7.078  0.6610 -0.0539  0.0148
45322SOL     OW53957  14.097   2.788   2.301  0.4787  0.2930  0.0604
45322SOL    HW153958  14.149   2.842   2.241  0.6658 -0.9948 -1.0050
45322SOL    HW253959  14.006   2.804   2.275  0.5671 -0.3936 -0.7305
45323SOL     OW53960   6.548  13.463  10.596 -0.2279 -0.1258 -0.4248
45323SOL    HW153961   6.620  13.521  10.571 -1.0591  1.2393  0.1965
45323SOL    HW253962   6.589  13.377  10.608  1.2270  0.5417 -0.3780
45324SOL     OW53963   3.176  13.334   1.576  0.1350 -0.9250 -0.5142
45324SOL    HW153964   3.082  13.349   1.587  0.0599 -1.3769 -0.5281
45324SOL    HW253965   3.196  13.259   1.632  0.5137 -0.7504 -0.4112
45325SOL     OW53966  12.572   0.604  11.517 -0.3296 -0.0533  0.3560
45325SOL    HW153967  12.549   0.681  11.569 -0.3526  1.3217 -1.5772
45325SOL    HW253968  12.636   0.557  11.571 -0.6944  1.0248  1.8045
45326SOL     OW53969   7.899   8.403   2.403 -0.0384 -0.1406  0.3062
45326SOL    HW153970   7.886   8.399   2.309  0.4681 -0.1790  0.2342
45326SOL    HW253971   7.980   8.453   2.415  0.7488 -1.4466  0.6389
45327SOL     OW53972  11.980   8.837   2.523 -0.4733 -0.4872 -0.7934
45327SOL    HW153973  12.014   8.921   2.552 -0.8165 -0.9719  1.1706
45327SOL    HW253974  11.917   8.858   2.454  1.0672  0.6736 -1.8955
45328SOL     OW53975  13.751  13.455   1.475  0.2233 -0.1017 -0.3220
45328SOL    HW153976  13.797  13.451   1.558 -0.5024 -0.4102  0.0683
45328SOL    HW253977  13.817  13.488   1.413  1.3198 -1.6618 -0.0322
45329SOL     OW53978  10.882   4.940   9.064  0.2158 -0.7371 -0.5072
45329SOL    HW153979  10.968   4.964   9.100 -0.5051  0.4742  0.4669
45329SOL    HW253980  10.866   4.852   9.097  0.0610 -0.0685  1.2785
45330SOL     OW53981   0.725  13.037  12.444 -0.0800  0.1771  0.1824
45330SOL    HW153982   0.808  12.991  12.433  0.6262  1.2646  0.7428
45330SOL    HW253983   0.737  13.120  12.398 -0.1965  1.0933  1.7374
45331SOL     OW53984  11.312   4.664   8.837  0.2061 -0.1615 -0.3698
45331SOL    HW153985  11.235   4.658   8.894  0.6613 -1.9904  0.1374
45331SOL    HW253986  11.302   4.747   8.790 -0.8987  0.7394  1.3609
45332SOL     OW53987   5.179  12.210   7.077 -0.4396 -0.2398 -0.1009
45332SOL    HW153988   5.140  12.143   7.132  2.0056  0.1411  2.3010
45332SOL    HW253989   5.264  12.228   7.117  0.8947  1.1378 -3.2255
45333SOL     OW53990   4.992  12.047   1.242 -1.0456  1.0706 -0.6965
45333SOL    HW153991   5.031  12.097   1.170  1.8484 -0.0805 -0.0872
45333SOL    HW253992   4.965  12.113   1.306  1.5617  1.9939 -0.4317
45334SOL     OW53993   3.174  12.829   6.563  0.4081 -0.0384  0.2538
45334SOL    HW153994   3.164  12.811   6.656 -2.0158  1.3145  0.3406
45334SOL    HW253995   3.181  12.743   6.523 -0.9854 -0.7819  1.4991
45335SOL     OW53996   3.101   2.696   1.565 -0.0229  0.3568  0.4190
45335SOL    HW153997   3.169   2.692   1.631 -2.3401 -2.5242  2.9058
45335SOL    HW253998   3.135   2.644   1.492  0.4150 -1.2313  1.7055
45336SOL     OW53999  10.413  12.500   5.009 -0.4394 -0.3031  0.3362
45336SOL    HW154000  10.501  12.536   5.025  0.7243 -3.0144  0.6766
45336SOL    HW254001  10.423  12.447   4.930 -2.3200  0.8733 -0.7462
45337SOL     OW54002   8.099  10.779   4.873 -0.2937 -0.4978 -0.0842
45337SOL    HW154003   8.108  10.862   4.826 -0.4340 -1.4564 -1.8884
45337SOL    HW254004   8.138  10.796   4.959  0.7519  1.0953 -0.8183
45338SOL     OW54005   1.083   7.737   8.197 -0.1650  0.1792 -0.3095
45338SOL    HW154006   1.031   7.801   8.148 -2.6455 -2.0265 -0.8012
45338SOL    HW254007   1.146   7.704   8.133  0.0772  0.9906 -0.4998
45339SOL     OW54008   0.828   1.583   1.713  0.5539 -0.1535  0.5231
45339SOL    HW154009   0.823   1.488   1.701  0.5533 -0.0129 -0.6795
45339SOL    HW254010   0.804   1.596   1.805 -2.4441 -1.0991  0.0045
45340SOL     OW54011   4.859   6.043  13.344  0.0609  0.2411 -0.2171
45340SOL    HW154012   4.807   5.979  13.296  1.1740 -1.6133  0.9540
45340SOL    HW254013   4.801   6.118  13.354 -2.3660 -1.6532  0.9295
45341SOL     OW54014   9.440  11.393   2.023 -0.4970 -0.0060 -0.2613
45341SOL    HW154015   9.439  11.389   2.118 -0.5402 -2.7719 -0.2946
45341SOL    HW254016   9.496  11.320   1.996  1.2238  1.9275 -2.3700
45342SOL     OW54017   7.175   2.230  10.891 -0.1866  0.0845  0.2281
45342SOL    HW154018   7.126   2.177  10.954 -1.0978 -0.5422 -0.9775
45342SOL    HW254019   7.220   2.295  10.945 -0.7161 -0.6063  1.5506
45343SOL     OW54020  13.842  10.440   7.029 -0.1799 -0.6026  0.0587
45343SOL    HW154021  13.792  10.479   6.958 -0.0533  1.0929  0.8359
45343SOL    HW254022  13.933  10.464   7.010 -0.2520  0.7894  1.2952
45344SOL     OW54023   8.162  10.504   2.730 -0.3338  0.6999 -0.7191
45344SOL    HW154024   8.214  10.448   2.671 -1.3078 -0.1062 -0.8396
45344SOL    HW254025   8.226  10.537   2.793 -0.0853 -3.1416  1.3749
45345SOL     OW54026   4.850   9.777   4.258 -0.3851  0.3369 -0.5071
45345SOL    HW154027   4.764   9.794   4.220 -0.2822  2.6561  0.1167
45345SOL    HW254028   4.887   9.864   4.272  1.6987 -0.5822  0.0844
45346SOL     OW54029  12.986   7.053  13.985  0.1630  0.1469 -0.3840
45346SOL    HW154030  12.994   7.133  14.037 -2.4934  0.9482 -1.0487
45346SOL    HW254031  13.057   7.059  13.920  0.5707  1.4885  0.1502
45347SOL     OW54032   7.601  12.429   1.930 -0.5118 -0.3485  0.3124
45347SOL    HW154033   7.668  12.430   1.862 -2.7084 -2.7253 -2.1629
45347SOL    HW254034   7.533  12.488   1.898 -0.6840  0.1570  1.5459
45348SOL     OW54035  10.269  11.365   9.679  0.0649  0.2911 -0.7468
45348SOL    HW154036  10.226  11.327   9.602  0.4608  0.7254 -1.1880
45348SOL    HW254037  10.234  11.316   9.753  0.3053 -0.7046 -1.2769
45349SOL     OW54038   6.935   9.360  12.008 -0.0105  0.4772 -0.6566
45349SOL    HW154039   6.934   9.267  12.027 -0.7635  0.6967  0.4781
45349SOL    HW254040   7.008   9.372  11.947 -0.4141 -0.9614 -1.4651
45350SOL     OW54041   2.320  13.651  12.129 -0.6548  0.1729  0.4001
45350SOL    HW154042   2.363  13.708  12.066  0.1554  0.5830  1.2875
45350SOL    HW254043   2.348  13.684  12.215 -1.3470 -0.6457  0.9653
45351SOL     OW54044   3.078   0.188  13.459  0.0672  0.1169 -0.3507
45351SOL    HW154045   3.029   0.250  13.512 -0.4690 -1.0169  0.5485
45351SOL    HW254046   3.150   0.239  13.422 -1.8681  1.8811 -1.8746
45352SOL     OW54047   5.952   2.572   8.793 -0.0733 -0.4280 -0.1327
45352SOL    HW154048   5.987   2.580   8.882  1.1103  1.8462 -0.7320
45352SOL    HW254049   6.002   2.500   8.754  0.9940  0.0221  0.3640
45353SOL     OW54050   1.866  11.085   3.389 -0.0075  0.1795  0.2737
45353SOL    HW154051   1.806  11.148   3.346 -0.8753 -2.1048 -2.1436
45353SOL    HW254052   1.807  11.021   3.429  0.8354 -0.3825  0.6163
45354SOL     OW54053   4.511  12.618  13.582  0.1996  0.5719  0.4238
45354SOL    HW154054   4.601  12.627  13.552  0.0336  1.4446  0.1842
45354SOL    HW254055   4.498  12.523  13.589  1.0483  0.4315  0.2121
45355SOL     OW54056   9.717   5.536  10.949  0.4762  0.7933 -0.2603
45355SOL    HW154057   9.699   5.458  11.000 -2.6883  1.5717  0.0482
45355SOL    HW254058   9.751   5.599  11.013 -0.7248  0.8521  0.3622
45356SOL     OW54059   9.988  12.907  13.680  0.0208 -0.3647 -0.0584
45356SOL    HW154060  10.030  12.956  13.751  0.4511 -0.0451 -0.5253
45356SOL    HW254061  10.057  12.852  13.645  0.7037  1.6925 -2.2327
45357SOL     OW54062  11.362   7.447   1.653  0.3220  0.0553  0.7571
45357SOL    HW154063  11.318   7.496   1.583  0.7441  0.5954  0.8566
45357SOL    HW254064  11.419   7.386   1.607  0.6947  0.4978  0.6166
45358SOL     OW54065   1.518   5.028   0.795  1.0872  0.0632  0.0424
45358SOL    HW154066   1.456   5.050   0.865  0.8666  0.9915 -0.4364
45358SOL    HW254067   1.466   4.984   0.729  1.0375  0.3616 -0.1192
45359SOL     OW54068   2.643  11.612   1.619 -0.3799 -0.6282  0.3033
45359SOL    HW154069   2.710  11.607   1.551 -1.5470 -1.1276 -0.8341
45359SOL    HW254070   2.574  11.666   1.582 -1.3848 -1.5588  0.7783
45360SOL     OW54071   4.976   7.515   9.895  0.0164  0.7161 -0.8711
45360SOL    HW154072   5.050   7.455   9.910 -1.3724 -0.8849 -0.0219
45360SOL    HW254073   5.001   7.595   9.940  0.3999 -0.4854  1.1752
45361SOL     OW54074   4.519   1.001   9.136  0.6573  0.1497  0.1165
45361SOL    HW154075   4.436   1.018   9.090  0.6573 -0.6151 -0.1738
45361SOL    HW254076   4.512   1.052   9.217  0.0355  0.3404 -0.0489
45362SOL     OW54077  10.525   7.585  12.030 -0.0785  0.3617  0.2084
45362SOL    HW154078  10.531   7.567  12.123 -0.1465  1.1493  0.3756
45362SOL    HW254079  10.599   7.539  11.991 -0.5551 -0.6957  0.5313
45363SOL     OW54080   8.458   1.491   7.224  0.2832 -0.0604 -0.3203
45363SOL    HW154081   8.502   1.522   7.304  0.6130  0.2999 -0.6394
45363SOL    HW254082   8.405   1.566   7.196 -1.7839 -0.9547  0.9069
45364SOL     OW54083   5.914   1.428   4.005 -0.1648  0.0990  0.0567
45364SOL    HW154084   6.006   1.446   3.984 -0.1449 -0.5077 -0.4020
45364SOL    HW254085   5.909   1.333   4.006 -0.8323  0.1341 -0.0947
45365SOL     OW54086   4.212  11.377  11.603 -0.3926  0.2932  0.0715
45365SOL    HW154087   4.261  11.316  11.657  2.9855  2.0579 -0.7181
45365SOL    HW254088   4.232  11.351  11.513  2.2503  3.0865 -0.3287
45366SOL     OW54089   5.586  13.811   1.149  0.5917  0.1781 -0.6617
45366SOL    HW154090   5.588  13.818   1.053  0.6064 -1.2284 -0.7850
45366SOL    HW254091   5.674  13.837   1.176  0.2304  1.7514 -0.9208
45367SOL     OW54092  10.947  10.535   5.087 -0.0914 -0.0749 -0.6615
45367SOL    HW154093  10.936  10.558   5.179  0.8103 -0.7334 -0.3744
45367SOL    HW254094  10.861  10.503   5.060 -0.2175 -0.4287  0.1207
45368SOL     OW54095   9.748   9.476   7.761 -0.2540  0.2163 -0.3125
45368SOL    HW154096   9.828   9.426   7.746  1.2035  2.2169  0.3034
45368SOL    HW254097   9.699   9.469   7.679  0.1950 -1.6113 -0.4595
45369SOL     OW54098   9.226   9.479  11.733  0.2476 -0.0754  0.3860
45369SOL    HW154099   9.226   9.423  11.655 -0.1587 -0.4179  0.6294
45369SOL    HW254100   9.134   9.495  11.752  0.3501  1.3218 -0.1276
45370SOL     OW54101   1.631   7.882   3.075 -0.0293  0.5048  0.1083
45370SOL    HW154102   1.659   7.831   3.000  0.2818  0.8149  0.0118
45370SOL    HW254103   1.692   7.859   3.145 -0.4879  0.0043  0.3541
45371SOL     OW54104   8.719  10.258   6.453 -0.0597 -0.2730 -0.4585
45371SOL    HW154105   8.639  10.305   6.432  0.8411  1.4389 -0.2896
45371SOL    HW254106   8.765  10.249   6.369  0.3261  0.2808 -0.3164
45372SOL     OW54107  13.620  10.747   1.363  0.0097 -0.1311 -0.0403
45372SOL    HW154108  13.680  10.683   1.402  0.0431  0.1187  0.3261
45372SOL    HW254109  13.624  10.730   1.269  0.6936 -0.0774 -0.0217
45373SOL     OW54110   4.145   2.202   0.058 -0.0613 -0.5696  0.3417
45373SOL    HW154111   4.219   2.146   0.080 -0.6268 -1.3818  0.2143
45373SOL    HW254112   4.103   2.158  -0.016  0.3048  0.7596 -0.7108
45374SOL     OW54113   3.563  12.264   0.419  0.8916 -0.1991  0.3282
45374SOL    HW154114   3.467  12.270   0.426  0.9563 -0.2040  1.5089
45374SOL    HW254115   3.592  12.356   0.414  0.8311 -0.1960  0.0251
45375SOL     OW54116   2.187   2.011   9.215  0.1859 -0.6229  0.4655
45375SOL    HW154117   2.134   2.087   9.237  1.9284  0.6244  0.6138
45375SOL    HW254118   2.226   2.033   9.130  1.9240 -0.6020  1.2200
45376SOL     OW54119  10.877  11.699   8.639  0.2090  0.2256 -0.3322
45376SOL    HW154120  10.942  11.635   8.669  0.3263  0.0032 -1.0314
45376SOL    HW254121  10.907  11.783   8.674 -0.1035 -0.1337  0.8377
45377SOL     OW54122   9.441   9.412   9.129 -0.7548  0.0652 -0.0304
45377SOL    HW154123   9.346   9.408   9.136 -0.9331  2.2346 -0.6569
45377SOL    HW254124   9.467   9.486   9.183  0.5245 -0.1197 -0.3477
45378SOL     OW54125   2.129  12.216  10.195 -0.0486  0.4009  0.1273
45378SOL    HW154126   2.170  12.208  10.281 -0.1539 -0.6172  0.0970
45378SOL    HW254127   2.037  12.193  10.210  0.1772 -0.9947 -0.4555
45379SOL     OW54128  13.962  12.813   5.682 -0.9568  0.0939 -0.0836
45379SOL    HW154129  14.042  12.761   5.678 -0.4709  0.6306  1.8014
45379SOL    HW254130  13.892  12.748   5.687 -0.7348 -0.3881 -2.1131
45380SOL     OW54131   4.040   1.030   8.347  0.5901  0.0420 -0.1775
45380SOL    HW154132   3.988   1.075   8.413  1.4120  1.2937 -0.3611
45380SOL    HW254133   4.110   0.986   8.396 -0.0589 -0.8490 -0.0250
45381SOL     OW54134   1.839  11.246   4.516 -0.3511 -0.0215 -0.5905
45381SOL    HW154135   1.916  11.232   4.572  0.6915 -1.5585 -2.2752
45381SOL    HW254136   1.773  11.186   4.552 -1.2439  2.0587  1.5150
45382SOL     OW54137   1.331   4.305   2.839  0.5069 -0.0264 -0.4556
45382SOL    HW154138   1.322   4.251   2.761  0.3829 -1.1695  0.3204
45382SOL    HW254139   1.258   4.278   2.895  0.3288  1.0911 -0.1096
45383SOL     OW54140  10.389  13.272   0.259 -0.2344 -0.0909  0.0476
45383SOL    HW154141  10.305  13.271   0.306  0.3378 -0.7412  1.0941
45383SOL    HW254142  10.445  13.212   0.308  1.8279  2.5637  1.1892
45384SOL     OW54143   9.723   5.544   8.701  0.1505  0.0510 -0.2836
45384SOL    HW154144   9.678   5.529   8.618  0.0660 -0.7297 -0.1076
45384SOL    HW254145   9.726   5.458   8.743  0.3813  0.3934  0.4306
45385SOL     OW54146   3.626  11.290  12.514  0.2581 -0.0428 -0.3209
45385SOL    HW154147   3.631  11.386  12.521  1.6882 -0.1295  0.0079
45385SOL    HW254148   3.532  11.272  12.518 -0.0855  1.3907 -0.9943
45386SOL     OW54149   0.454  14.123   5.127  0.3248 -0.5832  0.1486
45386SOL    HW154150   0.488  14.097   5.041  0.4453 -0.0268  0.0268
45386SOL    HW254151   0.360  14.132   5.114  0.5388  1.3145 -0.4131
45387SOL     OW54152  12.692  13.213   8.461 -0.2294  0.6407 -0.2211
45387SOL    HW154153  12.669  13.176   8.376  1.5081 -0.3289 -0.3170
45387SOL    HW254154  12.699  13.307   8.445  1.6927  0.3313 -1.6141
45388SOL     OW54155   1.657   1.326   9.517 -0.2778  0.2786 -0.1098
45388SOL    HW154156   1.729   1.367   9.468 -0.0325 -2.0053 -1.8433
45388SOL    HW254157   1.627   1.255   9.460 -0.7326 -1.8888  2.5949
45389SOL     OW54158   9.596   2.430  11.554 -0.5107  0.0979 -0.2023
45389SOL    HW154159   9.642   2.500  11.507  0.9076 -0.8004 -0.1847
45389SOL    HW254160   9.645   2.419  11.635 -2.6432  1.3039  1.3842
45390SOL     OW54161   1.448   9.739  11.974  0.1596 -0.3127  0.2519
45390SOL    HW154162   1.469   9.671  11.910 -1.3929 -0.4037 -0.1998
45390SOL    HW254163   1.370   9.782  11.939  1.2394  1.8912  0.3947
45391SOL     OW54164   9.309   0.473   4.079  0.3020  0.8867  0.5631
45391SOL    HW154165   9.244   0.542   4.065 -0.7372 -0.2538 -0.6724
45391SOL    HW254166   9.257   0.392   4.078  1.9014 -0.3270 -3.0600
45392SOL     OW54167   0.446  10.814   4.056  0.4914  0.2047  0.5396
45392SOL    HW154168   0.527  10.775   4.087 -1.3396 -3.3912  1.3814
45392SOL    HW254169   0.436  10.780   3.967 -0.4316 -0.0412  0.7267
45393SOL     OW54170   5.588  12.613   6.251 -0.4000 -0.8157  0.7161
45393SOL    HW154171   5.548  12.699   6.268  0.9832 -0.4416  2.3066
45393SOL    HW254172   5.581  12.567   6.335 -0.4130 -1.9700  0.0926
45394SOL     OW54173  13.556   8.633  11.008 -0.4997  0.3704 -0.3810
45394SOL    HW154174  13.513   8.564  11.058  0.3423 -0.1439 -0.3597
45394SOL    HW254175  13.611   8.588  10.945 -1.4806  1.0168 -1.7481
45395SOL     OW54176  10.857   7.881   7.343  0.3178  0.6105 -0.0140
45395SOL    HW154177  10.943   7.907   7.309  0.0920  2.3916  0.6638
45395SOL    HW254178  10.878   7.828   7.420  0.8013  0.1578 -0.4447
45396SOL     OW54179   0.933   3.654  12.271 -0.3083 -0.0004 -0.1425
45396SOL    HW154180   0.864   3.719  12.255  0.5966  0.6909 -1.4352
45396SOL    HW254181   0.989   3.695  12.337 -0.9787 -0.4539  0.7211
45397SOL     OW54182   7.024   7.624  12.161 -0.3584 -0.1210 -0.1412
45397SOL    HW154183   6.973   7.663  12.090  1.1007  2.1477 -0.0487
45397SOL    HW254184   7.051   7.698  12.215  0.5534 -1.5416  1.4680
45398SOL     OW54185   7.285   1.637   5.783 -0.1409  0.0569 -0.4446
45398SOL    HW154186   7.293   1.694   5.860 -1.0303  1.5733 -1.4168
45398SOL    HW254187   7.241   1.692   5.718 -1.1008 -1.8026 -1.4194
45399SOL     OW54188  13.123   1.067   8.482  0.1522 -0.4983  0.6430
45399SOL    HW154189  13.115   1.045   8.390  1.7348  0.5009  0.2218
45399SOL    HW254190  13.055   1.132   8.498  0.4322 -0.0349 -0.0411
45400SOL     OW54191   1.032   6.353   4.476  0.0314 -0.5251  0.0816
45400SOL    HW154192   1.058   6.365   4.567  0.5748 -0.9567 -0.0117
45400SOL    HW254193   0.937   6.354   4.478  0.0299  1.0777  0.4283
45401SOL     OW54194   3.833   5.253   7.615  0.1065 -0.5366 -0.1458
45401SOL    HW154195   3.882   5.244   7.534  0.1317  0.0543 -0.2015
45401SOL    HW254196   3.872   5.329   7.659  0.6624 -1.3605  0.8231
45402SOL     OW54197  11.209  14.021   4.479 -0.6520 -0.2827 -0.3370
45402SOL    HW154198  11.228  13.982   4.565 -1.9212 -1.6365 -0.6340
45402SOL    HW254199  11.212  14.115   4.494  0.2597 -0.4903  0.9321
45403SOL     OW54200  12.201   3.703   6.241  0.3031  0.0421 -0.1677
45403SOL    HW154201  12.226   3.767   6.174  1.4225 -0.7396 -0.5309
45403SOL    HW254202  12.117   3.669   6.211  1.6972 -1.7774 -2.3477
45404SOL     OW54203   6.802   5.683   8.126 -0.2524 -0.0424  0.4187
45404SOL    HW154204   6.880   5.629   8.115 -0.9894 -1.2452  0.8557
45404SOL    HW254205   6.775   5.705   8.036  0.5158  0.2902  0.2675
45405SOL     OW54206   1.888  14.138   5.855 -0.3431  0.4766  0.0856
45405SOL    HW154207   1.960  14.093   5.810 -0.5922  0.5753 -0.4214
45405SOL    HW254208   1.848  14.070   5.910 -0.6564  0.0888 -0.6007
45406SOL     OW54209  10.033   5.408  10.009 -0.2543  0.1799  0.4234
45406SOL    HW154210   9.958   5.359   9.975  0.5559 -0.4162 -0.5757
45406SOL    HW254211  10.046   5.375  10.097 -0.5404 -0.4507  0.2352
45407SOL     OW54212   4.870  10.123  12.037  0.2399  0.0260  0.7439
45407SOL    HW154213   4.842  10.034  12.017  0.8094 -0.4085  1.8071
45407SOL    HW254214   4.918  10.151  11.959 -0.0101 -0.5610  0.3704
45408SOL     OW54215  12.091   4.938  11.584  0.4386 -0.3410 -0.1127
45408SOL    HW154216  12.116   5.019  11.541  0.5165 -0.5170 -0.4037
45408SOL    HW254217  12.118   4.949  11.675  1.8219 -0.6266 -0.4684
45409SOL     OW54218  11.399   4.662  13.677 -0.0789  0.3269 -0.4079
45409SOL    HW154219  11.324   4.608  13.703  1.5651  0.0333  4.9086
45409SOL    HW254220  11.465   4.599  13.649 -0.8926  0.4265 -2.7758
45410SOL     OW54221   6.924   7.588   9.502 -0.6856 -0.2142  0.4039
45410SOL    HW154222   6.832   7.608   9.488 -0.5240  0.0066 -0.3724
45410SOL    HW254223   6.969   7.671   9.486 -0.2274 -0.6403 -0.5905
45411SOL     OW54224  13.593   6.629   8.858 -0.2448 -0.1015 -0.7556
45411SOL    HW154225  13.543   6.637   8.776 -1.6879  2.0921  0.2354
45411SOL    HW254226  13.646   6.709   8.861 -0.7678  0.2142  0.7763
45412SOL     OW54227   2.857   1.878   1.165 -0.6891  0.6450 -0.0469
45412SOL    HW154228   2.898   1.836   1.089  1.0736  1.2958  0.5081
45412SOL    HW254229   2.765   1.852   1.160 -0.1343 -1.2550 -1.0700
45413SOL     OW54230   9.203   0.394  11.148 -0.6742  0.1403  0.4068
45413SOL    HW154231   9.167   0.399  11.237 -4.0511  1.7258 -0.8539
45413SOL    HW254232   9.145   0.333  11.102  0.0556  0.5161 -1.0820
45414SOL     OW54233   1.420  10.236  10.272  0.2344 -1.2013 -0.7111
45414SOL    HW154234   1.366  10.268  10.200 -0.6346  1.5296  1.0190
45414SOL    HW254235   1.508  10.270  10.253 -0.4998  1.6744  0.6517
45415SOL     OW54236  12.008   8.615  11.212  0.2435  0.8239  0.7030
45415SOL    HW154237  12.000   8.632  11.306  1.2525  1.5465  0.6749
45415SOL    HW254238  12.073   8.678  11.182  1.4457 -0.7043 -0.0884
45416SOL     OW54239   9.047   4.427   3.902 -0.1320  0.3137  0.3009
45416SOL    HW154240   9.027   4.429   3.808 -0.0808  0.2731  0.2888
45416SOL    HW254241   9.000   4.502   3.938  1.0578  1.2388  0.0058
45417SOL     OW54242   2.030   6.465   1.794 -0.0016 -0.2579  0.2453
45417SOL    HW154243   1.957   6.404   1.783  0.9814 -1.4475  0.1665
45417SOL    HW254244   2.001   6.545   1.751 -2.6000  0.4439  2.9720
45418SOL     OW54245  10.053  13.051  13.890 -0.1561 -0.4988 -0.1480
45418SOL    HW154246  10.011  13.053  13.976 -2.3363 -0.1232 -1.1517
45418SOL    HW254247  10.119  13.121  13.894  0.0161 -0.7175  1.3128
45419SOL     OW54248   7.764  12.416  12.081 -0.0424  0.0011  0.0998
45419SOL    HW154249   7.710  12.342  12.055  0.0950  0.3502 -1.2614
45419SOL    HW254250   7.824  12.429  12.007  0.4424  0.9932  0.6421
45420SOL     OW54251   6.481  11.587   4.921 -0.5568 -0.4133 -0.1575
45420SOL    HW154252   6.427  11.569   4.997 -1.0979 -0.0375 -0.4475
45420SOL    HW254253   6.519  11.502   4.898  0.4080 -0.3691  1.1174
45421SOL     OW54254   2.971   7.680   3.893  0.0722 -0.1711 -0.1852
45421SOL    HW154255   2.965   7.664   3.798  1.2646  0.9104 -0.4593
45421SOL    HW254256   2.906   7.620   3.930 -0.5481 -0.5052 -1.6919
45422SOL     OW54257   5.611  12.152   5.462  0.0600 -0.2395 -0.0957
45422SOL    HW154258   5.624  12.063   5.493 -1.5713 -0.8143 -0.9567
45422SOL    HW254259   5.681  12.202   5.503  0.3466 -1.7016  1.2951
45423SOL     OW54260   8.358   2.616  10.940 -0.5750  0.4160  0.3309
45423SOL    HW154261   8.440   2.631  10.894 -1.1578  1.4034 -0.4329
45423SOL    HW254262   8.383   2.572  11.021  0.4060 -2.2898 -1.3127
45424SOL     OW54263   2.282   3.056  12.697 -0.1465  0.1473  0.0137
45424SOL    HW154264   2.237   3.140  12.691 -1.9221 -0.3942  3.1639
45424SOL    HW254265   2.344   3.067  12.770  0.0594 -1.0553  0.0439
45425SOL     OW54266  11.049   2.958   8.292  0.5565  0.3819  0.0593
45425SOL    HW154267  10.954   2.957   8.299  0.4187  1.2697 -1.3308
45425SOL    HW254268  11.074   3.047   8.319  1.0423  0.0060  0.8819
45426SOL     OW54269   9.344  10.166   5.259  1.2174  0.1835  0.1124
45426SOL    HW154270   9.292  10.245   5.272  2.8538  1.4603 -0.6366
45426SOL    HW254271   9.314  10.130   5.176 -0.0167 -0.4142  0.7912
45427SOL     OW54272   1.632   6.780   9.174  0.4228  0.0579 -0.1799
45427SOL    HW154273   1.589   6.753   9.255 -0.9741 -0.4208 -1.0367
45427SOL    HW254274   1.642   6.700   9.124 -1.2730  0.6511 -1.6021
45428SOL     OW54275   0.999  12.980  12.150 -0.0947  0.3591  0.4431
45428SOL    HW154276   0.912  13.000  12.114  0.3823  1.2122 -0.2584
45428SOL    HW254277   1.001  13.029  12.233 -0.1080  0.7171  0.2337
45429SOL     OW54278  11.599  10.133   4.014 -0.0117  0.2492  0.1656
45429SOL    HW154279  11.547  10.194   3.961 -1.4762 -2.3878 -1.7041
45429SOL    HW254280  11.672  10.108   3.957 -1.0082 -1.8158 -0.2855
45430SOL     OW54281   8.400   3.293   8.685 -0.0003  0.0154 -0.2008
45430SOL    HW154282   8.355   3.209   8.685 -0.6675  0.3608  0.2313
45430SOL    HW254283   8.389   3.326   8.774  0.8628  0.2464 -0.1682
45431SOL     OW54284   6.539   7.414   9.623  0.2845  0.5442  0.1242
45431SOL    HW154285   6.502   7.462   9.697 -1.4084  2.0790 -1.6030
45431SOL    HW254286   6.509   7.462   9.545  2.6742 -0.4712 -1.5717
45432SOL     OW54287   2.026   8.528  11.206 -0.2600 -0.0931 -0.1701
45432SOL    HW154288   1.964   8.495  11.272  0.1469 -0.3961  0.0655
45432SOL    HW254289   1.970   8.555  11.133 -0.6132 -1.5917 -0.5038
45433SOL     OW54290  12.599   2.703  11.148  0.1709 -0.5343 -0.0011
45433SOL    HW154291  12.658   2.756  11.202  3.0885 -0.6966 -2.7713
45433SOL    HW254292  12.569   2.633  11.206  0.6326  1.0122  2.2069
45434SOL     OW54293  11.894  10.880  12.521 -0.1781 -0.3490  0.0572
45434SOL    HW154294  11.871  10.830  12.599 -1.9285 -0.3429 -0.4133
45434SOL    HW254295  11.982  10.850  12.498  0.2125 -0.6210  1.8003
45435SOL     OW54296   0.092   8.722   4.159  0.0284  0.1231  0.4222
45435SOL    HW154297   0.110   8.734   4.066 -2.3282  1.2860  0.0414
45435SOL    HW254298   0.126   8.801   4.201 -1.5676  1.0540  0.0684
45436SOL     OW54299   6.568   5.721   2.538 -0.1747  0.1977 -0.3542
45436SOL    HW154300   6.630   5.652   2.517  1.4300  1.2203  0.7982
45436SOL    HW254301   6.493   5.675   2.575  0.9253 -0.9348  0.5555
45437SOL     OW54302   3.814   6.737  11.879  0.5027  0.7875  0.2995
45437SOL    HW154303   3.901   6.698  11.884  0.7842  1.2802 -0.5473
45437SOL    HW254304   3.754   6.663  11.882  0.8814  0.5192  2.1895
45438SOL     OW54305   8.328  11.265   5.071  0.3751 -0.4609 -0.3642
45438SOL    HW154306   8.239  11.230   5.072  0.9501 -2.0437  1.4050
45438SOL    HW254307   8.379  11.202   5.122  2.6453  0.0961 -1.7991
45439SOL     OW54308   6.066   4.646   9.817 -0.3467 -0.2216  0.2753
45439SOL    HW154309   6.062   4.734   9.853  0.3355  0.5398 -1.4072
45439SOL    HW254310   6.140   4.605   9.863 -0.3423  0.2475  0.6949
45440SOL     OW54311  11.824   8.072  13.380  0.2344  0.7530  0.8172
45440SOL    HW154312  11.908   8.033  13.406  0.2654 -0.6057 -1.1126
45440SOL    HW254313  11.844   8.164  13.367  1.1800  0.6518  1.3790
45441SOL     OW54314   9.647  13.194   9.393  0.3682 -0.5789  0.7828
45441SOL    HW154315   9.720  13.161   9.341  0.0050 -0.2261  0.0369
45441SOL    HW254316   9.689  13.243   9.465  0.8620  0.2043 -0.0195
45442SOL     OW54317   9.306   0.630  11.070  0.0632 -0.6016  0.1213
45442SOL    HW154318   9.257   0.548  11.077 -0.6706 -0.3282 -1.4684
45442SOL    HW254319   9.275   0.671  10.989  0.1260  1.4513  1.0597
45443SOL     OW54320   2.409  11.239   2.246  0.2182 -0.1504  0.1789
45443SOL    HW154321   2.484  11.194   2.285  0.5170 -1.1559 -1.4500
45443SOL    HW254322   2.423  11.332   2.268  2.6169 -0.1280 -1.0455
45444SOL     OW54323   7.732   9.329   3.098 -0.3955  0.0284  0.0548
45444SOL    HW154324   7.672   9.350   3.170 -1.7170 -0.4217 -0.8959
45444SOL    HW254325   7.679   9.280   3.035  0.9526 -0.3242 -0.8510
45445SOL     OW54326   0.347   4.600   4.709 -0.5829 -0.0302 -0.0208
45445SOL    HW154327   0.332   4.643   4.793 -2.1982 -0.6114  0.0180
45445SOL    HW254328   0.343   4.506   4.729  0.4016 -0.1976 -0.5244
45446SOL     OW54329   0.197  13.792   2.012 -0.3525  0.0279 -0.1782
45446SOL    HW154330   0.249  13.736   2.070  2.0148 -1.8319 -3.7334
45446SOL    HW254331   0.206  13.880   2.050  3.0432 -0.6687  1.0569
45447SOL     OW54332  13.275   5.427   7.188  0.3117 -0.1424  0.2326
45447SOL    HW154333  13.229   5.456   7.267  1.9525 -0.6743  1.4261
45447SOL    HW254334  13.357   5.475   7.188  0.0013  0.5154 -1.6791
45448SOL     OW54335   1.694  13.139  13.310 -0.7148 -0.3958  0.0782
45448SOL    HW154336   1.739  13.191  13.244  1.2472 -0.3616  1.3640
45448SOL    HW254337   1.613  13.110  13.267  0.4385 -0.3112 -2.2955
45449SOL     OW54338   5.638   3.428   9.946 -0.2959 -0.0314  0.1798
45449SOL    HW154339   5.690   3.453  10.023 -0.3439 -0.9498  0.5185
45449SOL    HW254340   5.551   3.410   9.980 -0.7948  1.2431 -0.3532
45450SOL     OW54341   4.726   6.994  10.584 -0.4076 -0.0048 -0.0104
45450SOL    HW154342   4.789   7.028  10.521  0.3207 -0.7209  0.3048
45450SOL    HW254343   4.774   6.992  10.667 -1.6622  1.9199  0.8212
45451SOL     OW54344   3.666  11.875   8.908  0.2500 -0.5597  0.0581
45451SOL    HW154345   3.627  11.962   8.914  0.4108 -0.5632  1.6922
45451SOL    HW254346   3.642  11.843   8.821  1.1634  1.5527 -1.0274
45452SOL     OW54347   8.286   3.389   5.107  0.3648  0.1344  0.4497
45452SOL    HW154348   8.323   3.301   5.111 -1.8605 -0.8238  2.1164
45452SOL    HW254349   8.322   3.427   5.027  2.0741 -1.9454  0.1543
45453SOL     OW54350   1.177   6.874  11.875  0.0058 -0.5224  0.3299
45453SOL    HW154351   1.198   6.945  11.936 -2.1811 -0.0603  0.6446
45453SOL    HW254352   1.178   6.795  11.929  0.1929 -0.4087  0.4915
45454SOL     OW54353   3.365   1.678   8.386  0.2732  0.3023  0.4171
45454SOL    HW154354   3.411   1.636   8.458  1.5958 -1.8314 -1.5104
45454SOL    HW254355   3.431   1.733   8.344  0.9705 -2.0130 -1.7788
45455SOL     OW54356   8.347  10.244   4.134  0.0598 -0.2611  0.0998
45455SOL    HW154357   8.396  10.296   4.198  0.4728 -1.8798  1.1711
45455SOL    HW254358   8.390  10.262   4.050  1.7333 -0.6887  0.8214
45456SOL     OW54359   5.297   4.461   1.079 -0.2478  0.2925  0.9624
45456SOL    HW154360   5.361   4.531   1.073 -0.4944  0.4160 -0.7561
45456SOL    HW254361   5.270   4.444   0.988 -0.5142 -1.7198  1.3543
45457SOL     OW54362   5.408   8.855   5.666  1.1448  0.2044  0.2674
45457SOL    HW154363   5.495   8.816   5.658  1.2186  0.2799  0.6827
45457SOL    HW254364   5.389   8.889   5.579  1.6941  0.5194  0.2682
45458SOL     OW54365   9.345  12.779   7.899  0.3472 -0.2937  0.1226
45458SOL    HW154366   9.409  12.772   7.970  1.0291  0.9667 -0.3329
45458SOL    HW254367   9.282  12.845   7.930  1.2540  1.0746 -0.8539
45459SOL     OW54368  11.921   3.346   8.236  0.2260 -0.0006 -0.2462
45459SOL    HW154369  11.902   3.284   8.307  0.5343 -0.7631 -0.8083
45459SOL    HW254370  11.984   3.407   8.274 -1.3785  1.0386  0.8535
45460SOL     OW54371   0.237  13.468   0.742 -0.4738  0.5036 -0.1641
45460SOL    HW154372   0.156  13.471   0.690 -0.4135 -0.5402 -0.3457
45460SOL    HW254373   0.258  13.559   0.759 -1.1397  0.8239 -0.9830
45461SOL     OW54374  11.926   3.685  10.661 -0.1507 -0.0197  0.0704
45461SOL    HW154375  11.835   3.679  10.691  0.1672 -1.2918  0.8728
45461SOL    HW254376  11.971   3.615  10.707  0.8961 -0.5243 -1.6256
45462SOL     OW54377   7.895   7.993  13.847 -0.6885  0.4126 -0.6365
45462SOL    HW154378   7.831   8.019  13.780  0.4412  0.4940 -1.7157
45462SOL    HW254379   7.845   7.937  13.906 -1.5155 -0.4132 -2.0453
45463SOL     OW54380   5.658   3.601   7.162  0.3075 -0.3831 -0.1232
45463SOL    HW154381   5.655   3.511   7.195  0.4323 -0.2965  0.1340
45463SOL    HW254382   5.707   3.648   7.229  2.7525 -0.6913 -1.5512
45464SOL     OW54383   5.068   5.772   1.730  0.3771  0.1006  0.0052
45464SOL    HW154384   5.045   5.703   1.791 -0.7100  1.0066  0.6539
45464SOL    HW254385   5.109   5.727   1.656  0.0353 -1.1764  0.5827
45465SOL     OW54386   1.381   0.114   5.147 -0.0963  0.1822  0.0871
45465SOL    HW154387   1.469   0.095   5.115 -0.1737 -0.6720  0.3718
45465SOL    HW254388   1.325   0.052   5.101 -0.5054  0.4903  0.1673
45466SOL     OW54389   7.195   1.229   6.326 -0.0840  0.4819  0.0215
45466SOL    HW154390   7.263   1.166   6.304  0.3400  0.5454  1.0805
45466SOL    HW254391   7.139   1.232   6.249 -0.6390 -1.8533  0.2512
45467SOL     OW54392   8.559   5.516  11.642  0.2054  0.0151 -0.0266
45467SOL    HW154393   8.527   5.427  11.628  0.7874 -0.0402 -1.0744
45467SOL    HW254394   8.489   5.559  11.692 -0.5671 -0.7060 -0.4751
45468SOL     OW54395   2.779   2.920   2.887 -0.4125  0.0623  0.2675
45468SOL    HW154396   2.708   2.902   2.948 -0.0341  0.0335  0.7065
45468SOL    HW254397   2.822   2.836   2.874 -0.2938  0.1304  0.2178
45469SOL     OW54398  13.966   7.094   5.164 -0.4621  0.2885  0.7112
45469SOL    HW154399  13.912   7.080   5.086 -0.8527 -0.0280  1.0331
45469SOL    HW254400  13.961   7.188   5.181  1.2259  0.7086 -0.7864
45470SOL     OW54401  12.004  10.362   6.114  0.1847  0.0544  0.0261
45470SOL    HW154402  12.062  10.397   6.046  0.1071  2.0633  0.9193
45470SOL    HW254403  11.916  10.367   6.076  0.3123 -0.4658 -0.3472
45471SOL     OW54404   1.371   3.147   1.071  0.1754  0.4356  0.3245
45471SOL    HW154405   1.418   3.113   0.996 -0.6163  0.1645 -0.0631
45471SOL    HW254406   1.430   3.212   1.110  1.6273 -1.1853  0.9383
45472SOL     OW54407   3.557   3.073   6.178 -0.1182  0.2163  0.1715
45472SOL    HW154408   3.485   3.089   6.239 -0.5472 -0.2021 -0.2226
45472SOL    HW254409   3.529   2.997   6.128  0.7217 -0.1193  0.2011
45473SOL     OW54410  12.649  13.490  12.485 -0.2464 -0.0744  0.2704
45473SOL    HW154411  12.600  13.557  12.533 -0.8342  0.4906 -1.0952
45473SOL    HW254412  12.738  13.524  12.479 -0.9184  1.4838 -1.9554
45474SOL     OW54413   8.852  13.717   1.014 -0.6986 -0.3726 -0.1832
45474SOL    HW154414   8.879  13.628   0.992  0.3823 -0.2316  0.4880
45474SOL    HW254415   8.771  13.705   1.064 -1.8206 -0.8250 -2.0355
45475SOL     OW54416   7.425   0.886  11.442  0.9464  0.7273 -0.0705
45475SOL    HW154417   7.404   0.834  11.364  1.2421  1.3535 -0.5706
45475SOL    HW254418   7.419   0.823  11.514 -0.8796  0.4705 -0.3922
45476SOL     OW54419   8.622  12.754   6.645 -0.2394  0.0896 -0.5306
45476SOL    HW154420   8.563  12.754   6.720 -0.2815 -1.2564 -0.5267
45476SOL    HW254421   8.589  12.684   6.589 -0.5778  1.4596 -2.1211
45477SOL     OW54422  12.550   4.272  12.278 -0.4009  0.0431 -0.1736
45477SOL    HW154423  12.636   4.266  12.319 -0.7462 -0.1661  0.5471
45477SOL    HW254424  12.561   4.335  12.207  0.2584  0.2995  0.1472
45478SOL     OW54425  11.530   6.176   4.405 -0.5788 -0.6324  0.8686
45478SOL    HW154426  11.501   6.164   4.496 -0.6017 -2.3422  0.6534
45478SOL    HW254427  11.598   6.111   4.393 -0.6226 -0.4616 -0.3683
45479SOL     OW54428  11.265   1.521   2.190  0.3223  0.1121 -0.0117
45479SOL    HW154429  11.213   1.447   2.160  0.5794 -0.5117  1.0121
45479SOL    HW254430  11.293   1.496   2.278  1.2096  1.0186 -0.0172
45480SOL     OW54431  11.283   1.915   0.146 -0.7440 -0.1764 -0.2310
45480SOL    HW154432  11.269   1.978   0.216 -0.8024 -0.2449 -0.1808
45480SOL    HW254433  11.195   1.884   0.124 -0.6967 -0.3832 -0.1241
45481SOL     OW54434   2.281  10.460   0.853  0.2495  0.1327 -0.4783
45481SOL    HW154435   2.251  10.372   0.875  0.1612  0.3542  0.3448
45481SOL    HW254436   2.321  10.451   0.767  2.3170 -1.2247  0.5075
45482SOL     OW54437   8.220   4.474   2.011  0.1093  0.0328 -0.0656
45482SOL    HW154438   8.197   4.494   2.102 -0.5071 -0.2804 -0.1446
45482SOL    HW254439   8.226   4.378   2.008 -1.6433 -0.1096 -0.7284
45483SOL     OW54440  12.656   0.594   6.123 -0.4748  0.0050  0.0477
45483SOL    HW154441  12.729   0.593   6.061 -1.4438  0.4629 -1.1422
45483SOL    HW254442  12.684   0.654   6.191  0.2492  0.2017 -0.4068
45484SOL     OW54443  10.242   8.328   6.012  0.3333  0.6321  0.2351
45484SOL    HW154444  10.263   8.348   5.921  1.3624  0.2800  0.3800
45484SOL    HW254445  10.148   8.310   6.012  0.3482  0.4992 -0.7851
45485SOL     OW54446   4.900  11.686  12.236 -0.4108 -0.2950 -0.1486
45485SOL    HW154447   4.900  11.671  12.331 -0.1649 -1.5331 -0.3304
45485SOL    HW254448   4.842  11.761  12.224 -1.9423 -1.2599  0.8286
45486SOL     OW54449  10.320   0.977   9.440 -0.3089 -0.3736 -0.1621
45486SOL    HW154450  10.281   1.005   9.357 -0.2418  0.1578 -0.0187
45486SOL    HW254451  10.369   0.898   9.418  0.6680  0.3972 -0.8843
45487SOL     OW54452   2.604   7.606  10.122 -0.0925 -0.1036  0.4914
45487SOL    HW154453   2.600   7.528  10.178  1.8179  0.3861  1.3703
45487SOL    HW254454   2.694   7.606  10.088 -0.5741  0.8166 -0.8642
45488SOL     OW54455  10.010   6.012   5.353  0.5003 -0.1020 -0.3298
45488SOL    HW154456   9.991   5.943   5.417  1.4882  1.2545  1.5531
45488SOL    HW254457   9.930   6.020   5.301 -0.6884 -0.6936  1.3240
45489SOL     OW54458  10.357   4.232   5.303  0.1531  0.1222  0.5120
45489SOL    HW154459  10.378   4.231   5.396  1.5105 -1.4074  0.2282
45489SOL    HW254460  10.266   4.262   5.300  0.2951  0.8777  2.2566
45490SOL     OW54461   1.886   8.123  10.138 -0.0262  0.0799 -0.1664
45490SOL    HW154462   1.842   8.207  10.147  0.0702  0.0958  0.1899
45490SOL    HW254463   1.979   8.145  10.133 -0.0400  0.0342 -0.7270
45491SOL     OW54464  12.595   8.106  12.881  0.1490 -0.3151 -0.0935
45491SOL    HW154465  12.629   8.141  12.963  1.1903  2.1489 -1.4396
45491SOL    HW254466  12.667   8.052  12.846 -0.4527 -1.7116  0.7491
45492SOL     OW54467   0.423   6.439   6.445  0.0661 -0.4698  0.3641
45492SOL    HW154468   0.379   6.355   6.464  1.3013 -0.8953  1.5412
45492SOL    HW254469   0.451   6.470   6.531  0.8455  0.4687 -0.2171
45493SOL     OW54470   4.329   5.265   7.909 -0.2954  0.2667 -0.4425
45493SOL    HW154471   4.257   5.224   7.957  0.4019  0.4068  0.7559
45493SOL    HW254472   4.399   5.200   7.910 -0.0565  0.5170 -0.7294
45494SOL     OW54473   4.013   1.582   5.935  0.5872  0.1609  0.4167
45494SOL    HW154474   4.095   1.607   5.978 -0.9349  3.7854  1.6105
45494SOL    HW254475   4.025   1.608   5.844  1.7235 -2.0908 -0.1406
45495SOL     OW54476   1.096   4.435   2.748  0.5439 -0.6317 -0.1360
45495SOL    HW154477   1.180   4.433   2.793  0.0858 -0.4362  0.7486
45495SOL    HW254478   1.074   4.343   2.734  1.2897 -0.6827 -1.1499
45496SOL     OW54479  10.833   0.321  13.266 -0.0812  0.5403  0.0125
45496SOL    HW154480  10.824   0.226  13.264 -2.0223  0.6821 -1.7217
45496SOL    HW254481  10.790   0.349  13.347 -0.2074  0.0055  0.1276
45497SOL     OW54482  14.051  13.415   5.245 -0.9574 -0.9019  0.1930
45497SOL    HW154483  14.056  13.332   5.292 -0.5339 -1.2184 -0.3990
45497SOL    HW254484  14.048  13.390   5.152  0.3887 -0.2279 -0.0501
45498SOL     OW54485   8.449   7.395   3.219 -0.2595 -0.1926 -0.0372
45498SOL    HW154486   8.440   7.490   3.223  1.1987 -0.0222 -0.1703
45498SOL    HW254487   8.432   7.365   3.308  1.3812  0.4233  0.5114
45499SOL     OW54488   4.860   8.709   7.441  0.1517 -0.2650 -0.4578
45499SOL    HW154489   4.863   8.685   7.534 -0.3427  0.6603 -0.1915
45499SOL    HW254490   4.820   8.796   7.440  0.5549 -0.0778 -1.5085
45500SOL     OW54491   3.032   6.612   5.490  0.0952 -0.0814  0.5415
45500SOL    HW154492   2.990   6.529   5.512 -1.1945  0.6301  0.8765
45500SOL    HW254493   3.114   6.611   5.539  0.2519 -1.2900  0.2753
45501SOL     OW54494  12.249  10.414   6.917  0.8217 -0.5508  0.0927
45501SOL    HW154495  12.249  10.379   7.006  0.2991  0.5583  0.5498
45501SOL    HW254496  12.313  10.484   6.918 -0.6128  0.8078  0.1764
45502SOL     OW54497   2.914  12.558  12.785  0.0113 -0.5644 -0.4918
45502SOL    HW154498   2.911  12.631  12.847 -0.2098  1.1734 -2.4610
45502SOL    HW254499   2.846  12.578  12.721 -1.1059 -3.3086 -0.2918
45503SOL     OW54500   9.827  10.345   1.554  0.1388 -0.0051  0.4289
45503SOL    HW154501   9.817  10.373   1.462  0.0291 -1.6495 -0.0911
45503SOL    HW254502   9.840  10.426   1.602 -0.5410  0.9652 -0.9484
45504SOL     OW54503  11.939   4.684   8.625  0.5883 -0.8198 -0.2493
45504SOL    HW154504  11.927   4.751   8.692 -2.1468  0.4856 -1.8484
45504SOL    HW254505  12.033   4.685   8.606  1.1997 -0.1628  2.3823
45505SOL     OW54506   2.695   7.742   6.202 -0.4280 -0.3145 -0.3926
45505SOL    HW154507   2.648   7.729   6.284 -0.7299  0.1628 -0.4911
45505SOL    HW254508   2.729   7.655   6.180 -2.4016 -0.9695 -1.0327
45506SOL     OW54509   5.626   5.676  11.821 -0.4148 -0.0875  0.2303
45506SOL    HW154510   5.611   5.770  11.827 -1.1176 -0.2513  1.3412
45506SOL    HW254511   5.650   5.661  11.729  0.8290  1.3196  0.2743
45507SOL     OW54512   7.359  13.190   5.093  0.0030  0.1067  0.4531
45507SOL    HW154513   7.338  13.120   5.030 -0.0651  1.5251 -1.1722
45507SOL    HW254514   7.277  13.204   5.140 -0.5645  0.4063 -0.5814
45508SOL     OW54515  13.298   2.781  13.351 -0.3996  0.1511 -0.4199
45508SOL    HW154516  13.319   2.857  13.406 -0.2632 -0.4337  0.3488
45508SOL    HW254517  13.279   2.711  13.413  1.1448 -0.9212 -1.0826
45509SOL     OW54518   6.580   8.560   2.076 -0.5143  0.7337  0.5428
45509SOL    HW154519   6.663   8.519   2.052 -0.5897  0.3160  0.9731
45509SOL    HW254520   6.565   8.533   2.167 -3.1984 -2.7557 -0.7035
45510SOL     OW54521   9.956  12.190   9.135 -0.7164  0.1751  0.2022
45510SOL    HW154522   9.996  12.236   9.209 -0.7489 -0.6362  0.7321
45510SOL    HW254523   9.889  12.134   9.174 -1.0901  0.1135 -0.4984
45511SOL     OW54524   3.530   6.578   0.574 -0.1628  0.2097 -0.3661
45511SOL    HW154525   3.445   6.538   0.554  0.0163 -0.2574 -0.1987
45511SOL    HW254526   3.508   6.665   0.607 -0.7184 -0.6971  1.7882
45512SOL     OW54527   0.552   0.078   7.595 -0.1044  0.4816 -0.2270
45512SOL    HW154528   0.549   0.153   7.655 -0.0389  1.0539 -0.9178
45512SOL    HW254529   0.589   0.114   7.515 -0.5445 -0.1819 -0.7363
45513SOL     OW54530  13.169   7.290   1.004 -0.4780  0.1278  0.1815
45513SOL    HW154531  13.201   7.295   0.914  1.6247  0.4839  0.8862
45513SOL    HW254532  13.155   7.196   1.019 -0.4282  0.0257 -0.3839
45514SOL     OW54533   7.874   9.881   4.695 -0.2635  0.2035 -0.4745
45514SOL    HW154534   7.896   9.966   4.657  1.4659 -0.4581 -1.0491
45514SOL    HW254535   7.958   9.836   4.703 -1.2129 -1.7275 -0.8151
45515SOL     OW54536   0.363   6.110   5.499  0.2253  1.0359  0.1527
45515SOL    HW154537   0.316   6.027   5.501  1.7202  0.1158  2.7419
45515SOL    HW254538   0.296   6.177   5.510 -0.8331  0.0520 -0.1840
45516SOL     OW54539   0.003   9.169   2.891 -0.4315 -0.1190 -0.0669
45516SOL    HW154540   0.032   9.178   2.982 -1.1386 -0.1249  0.1596
45516SOL    HW254541  -0.084   9.208   2.889 -0.9465 -1.2435 -0.4617
45517SOL     OW54542  11.998   1.187  12.363 -0.0532  0.7537  0.2458
45517SOL    HW154543  12.027   1.162  12.451  2.9441 -2.2836 -1.3996
45517SOL    HW254544  12.073   1.234  12.325  0.0477 -0.9159 -1.7495
45518SOL     OW54545   0.804   3.169   2.265  0.0090  0.5925 -0.1297
45518SOL    HW154546   0.770   3.086   2.297  1.6833 -0.4925 -1.0419
45518SOL    HW254547   0.849   3.148   2.183 -0.3375  2.5620 -0.9056
45519SOL     OW54548  11.244   6.025   9.793  0.0741  0.0336  0.1615
45519SOL    HW154549  11.263   6.117   9.805  1.9498 -0.1165 -1.2124
45519SOL    HW254550  11.168   6.023   9.735  1.4721  0.7948 -1.8065
45520SOL     OW54551   8.914   1.369   0.561 -0.3443  0.0915 -0.5697
45520SOL    HW154552   8.999   1.405   0.535 -0.6395  0.8627 -0.5060
45520SOL    HW254553   8.896   1.409   0.646 -1.0623  0.4551 -0.8772
45521SOL     OW54554   5.656   7.149   5.262  1.1710 -0.7706 -0.0997
45521SOL    HW154555   5.718   7.095   5.214  0.5170 -0.4013 -1.4019
45521SOL    HW254556   5.700   7.233   5.275  0.0093  0.5997 -3.6801
45522SOL     OW54557   8.932  13.547   0.192 -0.0052 -0.1175  0.7624
45522SOL    HW154558   8.910  13.531   0.284  2.8790  0.8634  1.7132
45522SOL    HW254559   8.957  13.639   0.189  1.1541 -0.4425 -0.7279
45523SOL     OW54560   1.295   2.486   5.037 -0.1561  0.4345  0.1619
45523SOL    HW154561   1.327   2.408   5.082  0.5996 -0.2671 -1.5172
45523SOL    HW254562   1.199   2.478   5.041 -0.1147  0.4262  1.6374
45524SOL     OW54563   8.211  13.376   8.812  0.3215  0.2000 -0.4548
45524SOL    HW154564   8.288  13.412   8.857 -0.4913  0.3028  0.8967
45524SOL    HW254565   8.222  13.281   8.819  1.2275  0.1587 -1.8928
45525SOL     OW54566  12.755   2.064  13.326 -0.1581 -0.9471 -0.0489
45525SOL    HW154567  12.738   2.041  13.417  0.4982 -1.0858  0.0441
45525SOL    HW254568  12.791   1.983  13.288 -2.1411 -1.4915 -0.9209
45526SOL     OW54569   2.879   2.083  10.367 -0.5863 -0.2197  0.2171
45526SOL    HW154570   2.879   1.988  10.355  0.0502 -0.1235 -0.7039
45526SOL    HW254571   2.963   2.112  10.329 -0.7325  0.6967  0.5612
45527SOL     OW54572   3.787  10.756   3.933 -0.2488  0.5986  0.2105
45527SOL    HW154573   3.693  10.737   3.944 -0.1142  0.9378  2.2613
45527SOL    HW254574   3.801  10.749   3.838 -2.2791  0.2601 -0.1234
45528SOL     OW54575   3.843  10.121   1.172  0.3010  0.6073  0.3082
45528SOL    HW154576   3.878  10.128   1.260 -0.3900 -1.1114  0.7521
45528SOL    HW254577   3.749  10.135   1.182  0.2764  0.8523 -0.2273
45529SOL     OW54578   4.057   9.868  12.624  0.7229  0.0470  0.6552
45529SOL    HW154579   4.047   9.776  12.646 -1.4033  0.1029  0.1339
45529SOL    HW254580   4.136   9.871  12.570  0.1398 -1.6814 -0.3853
45530SOL     OW54581  10.603   0.587   8.998  0.3041 -0.4883 -0.2798
45530SOL    HW154582  10.624   0.520   9.063 -1.5728 -0.5359  0.3253
45530SOL    HW254583  10.687   0.629   8.979  0.8328 -0.0088  2.6986
45531SOL     OW54584  11.024   9.422   0.834  0.7374 -0.6514 -0.2107
45531SOL    HW154585  10.976   9.366   0.772 -1.7848  2.1002 -0.9996
45531SOL    HW254586  10.987   9.399   0.920  0.3477 -0.8049 -0.4141
45532SOL     OW54587  13.193   2.725   8.132 -0.2877  0.1086 -0.0171
45532SOL    HW154588  13.236   2.643   8.154 -1.1503  0.1984  2.3088
45532SOL    HW254589  13.101   2.710   8.153 -0.4431  1.7004  0.6109
45533SOL     OW54590   0.276   0.227   1.170  0.6495 -0.0775  0.1299
45533SOL    HW154591   0.368   0.215   1.146  0.2112  0.9388 -2.3631
45533SOL    HW254592   0.275   0.308   1.221  1.1255  0.1207 -0.1641
45534SOL     OW54593   9.086  10.533   2.403  0.3867  0.1577 -0.0103
45534SOL    HW154594   9.169  10.572   2.375  0.2186  1.0865  0.7372
45534SOL    HW254595   9.111  10.464   2.464  0.6843 -0.9549 -1.3226
45535SOL     OW54596  12.380  11.127   2.034  0.5885  0.2387 -0.0617
45535SOL    HW154597  12.396  11.167   1.949 -0.1385 -0.2813 -0.4624
45535SOL    HW254598  12.314  11.060   2.016 -0.2238  0.7041  1.0651
45536SOL     OW54599   6.001   7.222   5.063 -0.0764 -0.3883  0.3633
45536SOL    HW154600   5.983   7.138   5.020  1.3993 -0.2564 -0.5959
45536SOL    HW254601   6.091   7.213   5.095  0.0538  0.7821  0.3565
45537SOL     OW54602   6.619  12.129   6.191 -0.2292 -0.2641  0.4541
45537SOL    HW154603   6.633  12.191   6.120  3.5567 -0.3581  0.9245
45537SOL    HW254604   6.570  12.057   6.151 -2.1741  1.6131 -0.8007
45538SOL     OW54605   9.430   5.718   4.642 -0.1486  0.4438 -0.1635
45538SOL    HW154606   9.505   5.777   4.633 -0.3119  0.8010  0.6714
45538SOL    HW254607   9.372   5.740   4.570 -0.6081  1.9178  0.6139
45539SOL     OW54608  10.630   5.810   0.654  0.2424 -0.1446 -0.7885
45539SOL    HW154609  10.665   5.832   0.741 -0.2331  0.3555 -0.7193
45539SOL    HW254610  10.708   5.795   0.601  0.6509  2.0965 -0.9372
45540SOL     OW54611  13.949   6.364   4.218  0.4689 -0.3554  0.3703
45540SOL    HW154612  13.938   6.277   4.181  1.8601  0.0134 -1.0343
45540SOL    HW254613  13.941   6.352   4.312 -0.0060 -1.8843  0.1559
45541SOL     OW54614   2.055  11.344   2.116 -0.1086  0.4211 -0.0516
45541SOL    HW154615   2.032  11.384   2.032 -0.9272  0.1452  0.0236
45541SOL    HW254616   2.116  11.274   2.093 -0.6157  0.1028 -0.4665
45542SOL     OW54617   2.313   0.582  11.955  0.0873 -0.0114  0.1126
45542SOL    HW154618   2.363   0.654  11.917 -1.5283  1.4022  0.5335
45542SOL    HW254619   2.236   0.574  11.899  0.1643 -1.3361  0.1627
45543SOL     OW54620  13.595   4.299  13.030 -0.4493 -0.1333 -1.1619
45543SOL    HW154621  13.512   4.337  13.000 -1.4374  1.1172  2.5922
45543SOL    HW254622  13.602   4.326  13.121  2.7897 -2.5596 -0.5125
45544SOL     OW54623   4.724  11.746   4.255  0.0390  0.3843 -0.7766
45544SOL    HW154624   4.668  11.727   4.330  0.2980  1.6972 -0.2196
45544SOL    HW254625   4.664  11.774   4.186 -0.2793 -1.6900 -1.3784
45545SOL     OW54626   2.026  11.451   7.573 -0.2412  0.2567  0.0568
45545SOL    HW154627   2.043  11.538   7.538 -1.1694  1.0163  1.4057
45545SOL    HW254628   1.931  11.443   7.573 -0.1927 -0.4527  0.6565
45546SOL     OW54629  10.514   2.500   1.168  0.3767  0.5792  0.3015
45546SOL    HW154630  10.544   2.413   1.142 -1.0792 -0.2636  1.3217
45546SOL    HW254631  10.506   2.496   1.263 -0.3956  1.5798  0.2986
45547SOL     OW54632   8.677   0.307   1.424  0.0185 -0.7579  0.3900
45547SOL    HW154633   8.607   0.250   1.393 -0.7576  1.4684 -2.3687
45547SOL    HW254634   8.757   0.265   1.395 -0.3532 -1.7800  0.8064
45548SOL     OW54635   6.625  13.339   7.533  0.0184 -0.3021  0.7797
45548SOL    HW154636   6.628  13.329   7.628  1.1375  0.5137  0.8551
45548SOL    HW254637   6.671  13.422   7.516  0.2981 -0.6981 -0.5103
45549SOL     OW54638   3.320  12.059  13.241  0.0079  0.1626  0.5132
45549SOL    HW154639   3.337  12.040  13.148  0.5274  0.5694  0.5230
45549SOL    HW254640   3.336  12.153  13.249  1.5865 -0.1499  1.3675
45550SOL     OW54641   7.939  11.623   7.597 -0.4488  0.5506  0.5556
45550SOL    HW154642   7.994  11.640   7.673  0.2216 -0.5022  0.3318
45550SOL    HW254643   8.000  11.622   7.523 -0.9887  0.8468  0.0919
45551SOL     OW54644   6.358  10.662   2.634  0.1309 -0.0474 -0.1654
45551SOL    HW154645   6.273  10.672   2.589 -0.4871 -0.9848  0.7453
45551SOL    HW254646   6.346  10.586   2.690  1.3004  0.3534  0.6541
45552SOL     OW54647  11.778   8.424   5.562 -0.3773 -0.0480  0.3748
45552SOL    HW154648  11.776   8.416   5.467  1.5049 -0.7585  0.3670
45552SOL    HW254649  11.736   8.344   5.594 -0.7863  0.0769  0.1670
45553SOL     OW54650  13.840   5.908  13.548  0.0332  0.5978  0.5976
45553SOL    HW154651  13.846   5.985  13.604  0.4565 -0.1714  1.6370
45553SOL    HW254652  13.877   5.837  13.600  0.6963 -0.0933 -0.7555
45554SOL     OW54653  10.742   6.626  14.002  0.1269  0.3087 -0.0440
45554SOL    HW154654  10.750   6.531  14.010 -0.2427  0.0291 -2.3143
45554SOL    HW254655  10.832   6.658  13.998  0.3282 -0.4081 -3.1108
45555SOL     OW54656   2.698   7.312  12.329  0.0862  0.1454  0.0731
45555SOL    HW154657   2.764   7.245  12.310 -0.3030 -0.3928  0.5835
45555SOL    HW254658   2.630   7.298  12.263  0.1018  0.1607  0.0540
45556SOL     OW54659  12.962   8.110   4.959 -0.1985  0.3196 -0.6543
45556SOL    HW154660  12.893   8.133   4.896 -0.4815 -0.9337 -0.8203
45556SOL    HW254661  12.916   8.068   5.031  0.3118  0.2606 -0.3565
45557SOL     OW54662   7.162   8.123   9.942 -0.0700  0.5530  0.2472
45557SOL    HW154663   7.148   8.043   9.892  1.7028  1.0212 -1.1153
45557SOL    HW254664   7.074   8.152   9.968 -0.8013 -1.2558 -0.1129
45558SOL     OW54665   3.914   0.845  11.454 -0.4311  0.5011 -0.3595
45558SOL    HW154666   3.904   0.913  11.387  1.4806 -0.2790 -1.5026
45558SOL    HW254667   3.919   0.894  11.536 -2.8044  1.4835 -0.7116
45559SOL     OW54668   4.883   6.751   2.740 -0.4047 -0.0610  0.1132
45559SOL    HW154669   4.837   6.760   2.656 -0.6606  1.7504  0.3894
45559SOL    HW254670   4.975   6.740   2.716 -0.3289  1.4732 -0.4490
45560SOL     OW54671   6.383  11.978  10.138  0.2679  0.0512  0.2479
45560SOL    HW154672   6.305  11.943  10.183  0.7136 -0.8993  0.3155
45560SOL    HW254673   6.373  12.073  10.143 -0.4989 -0.0511  0.9414
45561SOL     OW54674   1.260   6.461   0.539 -0.3192 -0.0171  0.0501
45561SOL    HW154675   1.187   6.462   0.601 -0.4279 -0.9745 -0.0430
45561SOL    HW254676   1.220   6.481   0.454 -0.4162 -0.1815  0.0569
45562SOL     OW54677   8.406   8.180   0.688 -0.2204 -0.4766 -0.0592
45562SOL    HW154678   8.464   8.203   0.761 -1.0182  0.8728  0.1906
45562SOL    HW254679   8.336   8.128   0.728  0.3484 -1.3751 -0.2126
45563SOL     OW54680   0.824  11.545  12.397 -0.2036  0.2342  0.3139
45563SOL    HW154681   0.812  11.633  12.432 -0.5055  0.3924 -0.1750
45563SOL    HW254682   0.744  11.527  12.349 -1.6520 -1.6217  3.1257
45564SOL     OW54683   2.055   0.522   3.809 -0.1390  0.2468 -0.0785
45564SOL    HW154684   2.067   0.479   3.725 -0.3000 -0.6698  0.3631
45564SOL    HW254685   1.960   0.524   3.821 -0.0810 -0.5712  0.5603
45565SOL     OW54686   0.590  12.821  12.018 -0.1079  0.6041  0.2655
45565SOL    HW154687   0.577  12.786  12.106  1.5969  0.8928  0.6638
45565SOL    HW254688   0.613  12.912  12.032  2.2139  0.1628 -0.3054
45566SOL     OW54689   6.079   4.344  10.841 -0.0726 -0.0978 -0.0311
45566SOL    HW154690   6.082   4.259  10.799 -0.6201 -0.1965  0.1237
45566SOL    HW254691   6.092   4.407  10.770  2.7325 -0.3351  0.1395
45567SOL     OW54692   5.920   2.199  11.614 -0.0332 -0.2727 -0.4040
45567SOL    HW154693   5.996   2.257  11.613 -0.2937  0.0722 -0.9499
45567SOL    HW254694   5.936   2.137  11.543  0.5666 -1.3209  0.6055
45568SOL     OW54695   9.322   4.415   7.335 -0.1859 -0.5248 -0.6146
45568SOL    HW154696   9.250   4.455   7.383 -0.9518 -0.5892 -1.6656
45568SOL    HW254697   9.382   4.487   7.316  0.0745 -0.4854  0.3292
45569SOL     OW54698   8.796   6.209   1.147  0.1588 -0.1765 -0.3020
45569SOL    HW154699   8.800   6.268   1.223  0.6283  0.1777 -0.5959
45569SOL    HW254700   8.818   6.123   1.183 -1.4616 -0.3746  0.3116
45570SOL     OW54701  11.233   1.549  12.714  0.7183 -0.0967  0.1566
45570SOL    HW154702  11.148   1.544  12.670  0.9185  0.5297 -0.3171
45570SOL    HW254703  11.214   1.526  12.805  0.2145 -0.9209 -0.1459
45571SOL     OW54704   4.983   5.215   6.734  0.5821 -0.0891 -0.1864
45571SOL    HW154705   4.912   5.242   6.676  0.5860  0.4676  0.0660
45571SOL    HW254706   5.004   5.126   6.706  2.0008  0.8786 -2.4272
45572SOL     OW54707  11.931  12.223  11.140  0.1292 -0.7821 -0.6128
45572SOL    HW154708  11.861  12.158  11.140  0.8021 -1.5147 -0.1627
45572SOL    HW254709  11.891  12.300  11.181 -0.3821 -1.2309 -0.2413
45573SOL     OW54710   8.383  11.563   7.466  0.5202 -0.3471 -0.1945
45573SOL    HW154711   8.392  11.581   7.559 -0.3334 -0.6658 -0.0371
45573SOL    HW254712   8.455  11.502   7.446  1.6566  0.9292 -0.1086
45574SOL     OW54713   7.274   8.999  12.306 -0.5347 -0.2285  0.1084
45574SOL    HW154714   7.346   9.050  12.344 -0.3683 -0.9524  0.7832
45574SOL    HW254715   7.305   8.976  12.219 -0.1170 -0.1840  0.2410
45575SOL     OW54716  10.476   4.108   8.266 -0.5100  0.8371 -0.8361
45575SOL    HW154717  10.384   4.133   8.257 -1.6205 -1.4198  2.4658
45575SOL    HW254718  10.475   4.013   8.272  1.6711  0.8462  1.7759
45576SOL     OW54719  11.173   3.385   6.772  0.1338 -0.3592 -0.5900
45576SOL    HW154720  11.255   3.433   6.786 -0.7098  0.9016  0.2266
45576SOL    HW254721  11.110   3.428   6.830 -2.0017  1.0176 -3.6573
45577SOL     OW54722   4.247   9.148   4.298 -0.5057  0.3931 -0.1260
45577SOL    HW154723   4.232   9.075   4.358  0.6016 -0.2697 -0.6044
45577SOL    HW254724   4.341   9.144   4.280 -0.6914  0.9975 -1.3463
45578SOL     OW54725   5.747   8.089   9.787  0.6444  0.7559 -0.2063
45578SOL    HW154726   5.654   8.066   9.784  0.9028 -0.8220  1.4703
45578SOL    HW254727   5.758   8.133   9.871  1.0760  2.8677 -1.3164
45579SOL     OW54728  10.254   4.652   3.845 -0.4491 -0.2962  0.4782
45579SOL    HW154729  10.178   4.702   3.876 -0.9102 -1.8408  2.0366
45579SOL    HW254730  10.216   4.573   3.806  0.3170 -0.6798  0.4878
45580SOL     OW54731   1.245   8.257  11.101 -0.0173 -0.4443  0.3700
45580SOL    HW154732   1.236   8.349  11.077  1.0980 -0.2989  0.4610
45580SOL    HW254733   1.253   8.210  11.018 -0.1620 -0.4087  0.3370
45581SOL     OW54734   5.989   6.956   9.811 -0.0893  0.0389  0.2706
45581SOL    HW154735   6.082   6.960   9.791 -0.3259  1.7097 -0.6594
45581SOL    HW254736   5.980   6.878   9.866  1.8529 -0.1030  0.4651
45582SOL     OW54737   8.584   8.784   5.858  0.0103 -0.3427 -0.1106
45582SOL    HW154738   8.577   8.867   5.812 -1.1399 -1.4980 -2.1526
45582SOL    HW254739   8.677   8.763   5.855  0.1771  0.4024 -0.4212
45583SOL     OW54740  13.861   1.115   9.758 -0.2347  0.9972  0.3975
45583SOL    HW154741  13.946   1.157   9.747 -1.0319  2.8247  0.8778
45583SOL    HW254742  13.879   1.022   9.747  1.4205  1.5072 -1.9269
45584SOL     OW54743  10.676  13.962   9.440 -0.2566  0.0981  0.6134
45584SOL    HW154744  10.767  13.946   9.413 -0.0149  1.5582  0.4435
45584SOL    HW254745  10.682  13.992   9.530 -0.5400  0.4795  0.5095
45585SOL     OW54746  13.898   4.603   4.355 -0.4466 -0.3543 -0.1620
45585SOL    HW154747  13.976   4.623   4.303 -0.8380 -0.3667 -0.7724
45585SOL    HW254748  13.830   4.585   4.289 -1.6051  1.9916  0.3070
45586SOL     OW54749   8.964   2.567  13.054  0.2480  0.2989 -0.8033
45586SOL    HW154750   8.875   2.580  13.084  0.4141 -0.7091  0.1771
45586SOL    HW254751   8.961   2.485  13.004  0.4492  0.7448 -1.5702
45587SOL     OW54752  11.363   1.627  10.827 -0.0738  0.2164 -0.5879
45587SOL    HW154753  11.393   1.626  10.737 -0.1403 -0.9946 -0.6055
45587SOL    HW254754  11.399   1.548  10.866 -0.7170  0.3018  0.2211
45588SOL     OW54755   4.191   2.152   0.395  0.2305 -0.1461 -0.0788
45588SOL    HW154756   4.257   2.108   0.342 -0.1376 -2.2441  1.0752
45588SOL    HW254757   4.107   2.118   0.361 -0.1496  0.7975 -0.1033
45589SOL     OW54758   2.186  10.522   1.899 -0.0143 -0.1504 -0.1704
45589SOL    HW154759   2.252  10.514   1.829  0.7244 -2.9850  0.6834
45589SOL    HW254760   2.229  10.573   1.967  1.6445 -2.3255  0.5596
45590SOL     OW54761   4.340   1.048  11.482  0.1933  0.0818  0.1873
45590SOL    HW154762   4.417   1.024  11.534 -0.6867 -1.5141  0.8494
45590SOL    HW254763   4.371   1.050  11.392  0.5297 -3.2727  0.1000
45591SOL     OW54764   7.948   1.943  12.541  0.0652 -0.2835  0.3916
45591SOL    HW154765   7.990   1.994  12.610 -0.0281  1.0695 -0.5264
45591SOL    HW254766   7.933   2.005  12.470 -0.8554 -1.3945 -0.4290
45592SOL     OW54767   8.541  14.077  13.343 -0.6177 -0.6032  0.5603
45592SOL    HW154768   8.567  14.101  13.432  3.1633  3.0628 -1.2218
45592SOL    HW254769   8.503  14.157  13.306 -0.0206 -1.3097 -1.7534
45593SOL     OW54770   6.270  12.059  12.101 -0.0514 -0.4936 -0.4614
45593SOL    HW154771   6.238  12.041  12.013 -1.1558  0.4780 -0.2761
45593SOL    HW254772   6.227  11.993  12.157  0.7873 -1.2243 -0.6517
45594SOL     OW54773   4.204   6.100   6.247 -0.0223  0.1549  0.1156
45594SOL    HW154774   4.294   6.104   6.214 -0.5619  1.4318 -1.3045
45594SOL    HW254775   4.195   6.177   6.303 -0.0646 -0.3229  0.7878
45595SOL     OW54776  10.400   9.517   7.615 -0.2722  0.0200 -0.3031
45595SOL    HW154777  10.307   9.535   7.622 -0.1145  0.8028 -0.1404
45595SOL    HW254778  10.410   9.474   7.530 -0.8931 -0.8707  0.0647
45596SOL     OW54779  10.692   7.619   6.335  0.0928 -0.4427 -0.0564
45596SOL    HW154780  10.656   7.707   6.324  1.6721  0.1558 -0.7194
45596SOL    HW254781  10.689   7.581   6.247  1.5039 -0.1883 -0.2355
45597SOL     OW54782   6.701   8.860  11.038 -0.7178 -0.1492 -0.1767
45597SOL    HW154783   6.615   8.862  11.080 -0.5379  0.9109  0.1810
45597SOL    HW254784   6.761   8.832  11.107 -0.9696 -2.6054 -0.8676
45598SOL     OW54785   7.652  11.488  10.370 -0.0645 -0.3087  0.5451
45598SOL    HW154786   7.608  11.442  10.442 -1.5108 -0.6522 -0.5264
45598SOL    HW254787   7.652  11.580  10.397 -0.2141 -0.4818  1.1623
45599SOL     OW54788   1.073   0.215   8.230  0.5423 -0.1512  0.8969
45599SOL    HW154789   0.989   0.257   8.209  0.2326 -0.0085  2.3253
45599SOL    HW254790   1.086   0.151   8.160 -0.2758  0.4928  0.1271
45600SOL     OW54791   7.420   0.704   8.403 -0.7768  0.1317 -0.1131
45600SOL    HW154792   7.476   0.755   8.461 -0.3482 -0.7818  0.3091
45600SOL    HW254793   7.481   0.658   8.345 -1.1309 -0.2083 -0.2183
45601SOL     OW54794   1.783   6.894   1.586  0.0212  0.5244  0.0782
45601SOL    HW154795   1.700   6.890   1.538 -1.0638 -1.4768  1.9426
45601SOL    HW254796   1.768   6.956   1.657  0.7104  1.4142 -0.5317
45602SOL     OW54797   6.929  11.798  10.177 -0.2948  0.3190  0.0762
45602SOL    HW154798   7.008  11.817  10.229 -1.2656 -1.6086  2.4706
45602SOL    HW254799   6.870  11.871  10.195  0.4332  1.1229 -0.7053
45603SOL     OW54800   0.414   0.139   3.406  0.5192  0.3366 -0.1933
45603SOL    HW154801   0.413   0.169   3.315 -0.3121  0.8308 -0.0300
45603SOL    HW254802   0.487   0.186   3.446 -1.5271  3.2787  0.3985
45604SOL     OW54803  11.096   1.680   4.969 -0.0736  0.3282  0.1584
45604SOL    HW154804  11.074   1.748   4.906  0.9627 -0.7514 -1.4407
45604SOL    HW254805  11.012   1.653   5.006 -0.6071  1.6421 -0.0220
45605SOL     OW54806  11.417   8.674   6.193  0.6004 -0.1766 -0.0764
45605SOL    HW154807  11.323   8.675   6.178  0.3626  1.4912  1.1984
45605SOL    HW254808  11.455   8.666   6.106 -0.7221  2.5902 -1.0176
45606SOL     OW54809   0.001   9.035   7.901  0.5006 -0.3289 -0.4998
45606SOL    HW154810  -0.072   9.094   7.882  1.1773  0.6904 -0.0644
45606SOL    HW254811  -0.019   8.955   7.852 -0.5334  0.1947 -0.9715
45607SOL     OW54812   9.618  12.526   1.394 -0.2907 -0.4011 -0.6738
45607SOL    HW154813   9.649  12.439   1.421 -0.0612 -0.4286 -1.0227
45607SOL    HW254814   9.627  12.580   1.472  0.8167 -0.3563 -0.8229
45608SOL     OW54815  10.347  11.515   2.735 -0.2187 -0.3110  0.0484
45608SOL    HW154816  10.386  11.593   2.694 -0.9399 -1.1140 -2.3287
45608SOL    HW254817  10.293  11.550   2.806  2.1540  1.0569  1.3092
45609SOL     OW54818  12.641   9.299   4.874 -0.2010 -0.0988  0.1269
45609SOL    HW154819  12.662   9.212   4.839  1.6972  0.4623 -0.2664
45609SOL    HW254820  12.555   9.288   4.916  0.4418 -2.4332  1.0231
45610SOL     OW54821   0.634  12.834  13.998 -0.0122 -0.0922 -0.0993
45610SOL    HW154822   0.649  12.843  14.092  0.8431  3.5542 -0.4277
45610SOL    HW254823   0.539  12.847  13.988  0.1218  1.3634  0.2019
45611SOL     OW54824   6.494   8.233   3.099  0.4894 -0.3079 -0.5169
45611SOL    HW154825   6.426   8.300   3.102  0.4373 -0.3984  0.9498
45611SOL    HW254826   6.447   8.150   3.100  0.5875 -0.3870  1.4600
45612SOL     OW54827   8.579   5.298   0.626 -0.1492 -0.5579  0.3415
45612SOL    HW154828   8.653   5.284   0.566 -0.1613 -3.3025  0.8169
45612SOL    HW254829   8.549   5.210   0.647 -3.0511  0.4457  0.8526
45613SOL     OW54830   7.473   0.156   0.882 -0.5118 -0.8009  0.5353
45613SOL    HW154831   7.477   0.178   0.975  1.6814 -0.8288  0.5096
45613SOL    HW254832   7.399   0.207   0.848 -0.7450 -0.0425  2.0990
45614SOL     OW54833  11.530   0.468   8.173 -0.2140 -0.3967 -0.2565
45614SOL    HW154834  11.480   0.547   8.154 -0.0812 -0.2778 -0.1125
45614SOL    HW254835  11.542   0.469   8.268 -0.5826 -0.8122 -0.2020
45615SOL     OW54836   9.055   8.473   1.052  0.1855  0.2467  0.0048
45615SOL    HW154837   8.992   8.499   1.119  0.5906  0.6624  0.2260
45615SOL    HW254838   9.125   8.537   1.058  0.5602 -0.1210 -0.3448
45616SOL     OW54839   4.073  12.447   9.855 -0.2296  0.4554  0.4792
45616SOL    HW154840   3.988  12.478   9.885 -1.0715  1.2744 -2.4116
45616SOL    HW254841   4.055  12.362   9.814  0.1600  0.9555 -0.7849
45617SOL     OW54842   7.674   8.948   5.314  0.4087 -0.5400 -0.4343
45617SOL    HW154843   7.585   8.969   5.341  0.6068  0.2846 -0.3858
45617SOL    HW254844   7.717   8.917   5.393  0.8115  1.2799  0.1130
45618SOL     OW54845   5.775   5.700   1.808 -0.2650 -0.3589  0.3279
45618SOL    HW154846   5.707   5.633   1.800  0.0457 -0.9379  2.0913
45618SOL    HW254847   5.780   5.740   1.721 -2.1404 -0.9821 -0.1100
45619SOL     OW54848   6.340   3.408  13.327  0.3827 -0.4188 -0.3515
45619SOL    HW154849   6.389   3.447  13.399  1.3941 -0.3400 -1.0684
45619SOL    HW254850   6.377   3.447  13.248 -2.1914  1.2161 -0.8691
45620SOL     OW54851   2.251  11.881  11.085 -0.3607  0.4178 -0.5130
45620SOL    HW154852   2.263  11.848  10.996  1.3950 -1.2801  0.2738
45620SOL    HW254853   2.199  11.813  11.129  2.0164 -0.7425  0.7188
45621SOL     OW54854  11.421   9.409   9.874  0.2243  0.0414 -0.0852
45621SOL    HW154855  11.460   9.495   9.889 -0.2835  0.4222 -0.9046
45621SOL    HW254856  11.390   9.381   9.960 -2.0550  1.8852 -0.2226
45622SOL     OW54857   1.076   9.023  13.290  0.3875  0.2724 -0.5118
45622SOL    HW154858   1.044   9.113  13.299 -0.0122  0.0987 -0.1827
45622SOL    HW254859   1.171   9.030  13.301  0.3205  0.6082 -0.1262
45623SOL     OW54860   2.737   8.414  12.575 -1.0087 -0.5079 -0.3020
45623SOL    HW154861   2.778   8.451  12.497 -0.5833  0.3071  0.2867
45623SOL    HW254862   2.650   8.454  12.578  0.1779  2.3258  1.5021
45624SOL     OW54863   1.539  10.478   3.461  0.1415 -0.0583 -0.2587
45624SOL    HW154864   1.589  10.510   3.386 -0.0131  1.1516  0.1316
45624SOL    HW254865   1.480  10.550   3.483  0.6135 -0.1372  1.4164
45625SOL     OW54866   6.846   0.311  10.166  0.5689  0.0047  0.4816
45625SOL    HW154867   6.940   0.332  10.166  0.9333 -1.4051 -1.2195
45625SOL    HW254868   6.843   0.217  10.153 -1.0957  0.2281 -1.0787
45626SOL     OW54869   0.009  13.284  13.689  0.3952 -0.6539  0.2009
45626SOL    HW154870   0.052  13.283  13.774 -0.4005  1.1101  0.6716
45626SOL    HW254871  -0.071  13.233  13.702 -0.4519  0.8097  0.9672
45627SOL     OW54872   3.734   9.904   6.006 -0.3306 -0.1048  0.2541
45627SOL    HW154873   3.779   9.945   6.079 -2.4587  0.3189  1.4275
45627SOL    HW254874   3.739   9.810   6.023  1.0864 -0.1480 -0.2849
45628SOL     OW54875   8.205   2.238   0.682  0.0097 -0.1464 -0.3254
45628SOL    HW154876   8.230   2.202   0.597 -0.3289  0.9108 -0.8861
45628SOL    HW254877   8.252   2.183   0.745  3.4098  1.3962 -1.2709
45629SOL     OW54878   8.169   0.744   0.873 -0.2872 -0.0410  0.1055
45629SOL    HW154879   8.101   0.777   0.932 -0.7394 -2.3057  0.9680
45629SOL    HW254880   8.240   0.718   0.931  0.6889  0.7960 -0.6717
45630SOL     OW54881   7.427  10.525   6.834 -0.3824  0.3602  0.1001
45630SOL    HW154882   7.446  10.432   6.847 -0.0382  0.3738 -0.2592
45630SOL    HW254883   7.334  10.534   6.852 -0.7994 -0.3713 -1.4994
45631SOL     OW54884   3.764   6.542   6.365  0.3941 -0.1470 -0.1243
45631SOL    HW154885   3.721   6.471   6.414  1.0106 -0.8204 -0.5390
45631SOL    HW254886   3.839   6.500   6.324  0.8211  0.7764 -0.3087
45632SOL     OW54887  13.031  11.219   5.738 -0.1074  0.1486 -0.2995
45632SOL    HW154888  13.064  11.131   5.757  0.0517  0.1508 -0.5623
45632SOL    HW254889  13.097  11.257   5.679  1.0896  1.2903  1.6407
45633SOL     OW54890   7.358  13.020  12.200 -0.2920 -0.3282 -0.2300
45633SOL    HW154891   7.400  12.942  12.237 -1.8694 -0.8959  0.4079
45633SOL    HW254892   7.369  13.087  12.268  2.1818  0.4732 -1.2682
45634SOL     OW54893   3.010   2.438  12.430 -0.1981  0.2445 -0.1138
45634SOL    HW154894   3.085   2.395  12.471  0.7365 -0.2519 -2.1975
45634SOL    HW254895   3.039   2.456  12.340 -2.1148  1.2737 -0.5777
45635SOL     OW54896  11.144  11.524   1.033 -0.6366 -0.3965  0.3744
45635SOL    HW154897  11.085  11.453   1.058 -0.9189 -1.8896 -3.7255
45635SOL    HW254898  11.092  11.580   0.976  1.0388 -0.0464 -0.8973
45636SOL     OW54899   0.482  13.262  13.523  0.5976  0.0014  0.5011
45636SOL    HW154900   0.423  13.266  13.598 -1.8982 -0.6617 -1.3117
45636SOL    HW254901   0.499  13.353  13.501 -0.5960  0.2316  0.4662
45637SOL     OW54902   4.806   2.807   3.084  0.3596 -0.2219  0.4570
45637SOL    HW154903   4.811   2.894   3.044 -0.1358 -0.6154 -0.5034
45637SOL    HW254904   4.886   2.763   3.054  1.1767  0.2560  1.8602
45638SOL     OW54905  11.382  12.661   1.457 -0.2884 -0.5531 -0.3286
45638SOL    HW154906  11.349  12.732   1.512  1.8109  0.3261 -0.0926
45638SOL    HW254907  11.320  12.655   1.384 -0.6740  1.3125 -0.1863
45639SOL     OW54908   2.780   8.044  12.984  0.2828  0.0703  0.1674
45639SOL    HW154909   2.706   7.988  13.006  0.6578 -0.8335 -0.8376
45639SOL    HW254910   2.749   8.133  13.003 -1.8498 -0.0568 -2.1635
45640SOL     OW54911   2.525   4.172   8.145 -0.3071  0.5996 -0.3033
45640SOL    HW154912   2.588   4.234   8.108  0.6581  0.0857  0.4338
45640SOL    HW254913   2.572   4.088   8.144 -0.5949  0.4024  1.2054
45641SOL     OW54914  11.597  10.673   2.978  0.0991  0.1158 -0.0486
45641SOL    HW154915  11.627  10.698   3.065 -1.9415 -0.8169  0.9893
45641SOL    HW254916  11.677  10.654   2.930  1.2831  0.6521  1.6167
45642SOL     OW54917  13.416   1.007  12.884 -0.5352 -0.3836 -0.3841
45642SOL    HW154918  13.362   1.065  12.937  0.9229 -0.0785  0.8660
45642SOL    HW254919  13.471   1.067  12.833  1.9869 -0.4924  1.9573
45643SOL     OW54920   1.274   9.753   6.326  0.5038  0.2363  0.4101
45643SOL    HW154921   1.239   9.670   6.356 -0.6436 -0.3822 -2.3566
45643SOL    HW254922   1.197   9.806   6.306  1.1643  0.8896 -0.5335
45644SOL     OW54923   7.747   3.843   7.993 -0.1737  0.8569  0.4639
45644SOL    HW154924   7.837   3.830   8.021  0.2038  1.3323 -0.5043
45644SOL    HW254925   7.751   3.913   7.928 -1.3082  1.2417  0.7753
45645SOL     OW54926   0.751  11.666   5.705  0.1097  0.0312  0.5394
45645SOL    HW154927   0.744  11.671   5.800 -1.2427  1.3221  0.4159
45645SOL    HW254928   0.692  11.735   5.673  2.4873  1.4400 -1.1805
45646SOL     OW54929  13.567   0.939   6.397  0.3019  0.0302 -0.1270
45646SOL    HW154930  13.631   0.891   6.450  0.4831  1.3922  0.9641
45646SOL    HW254931  13.525   0.998   6.459 -2.8953 -1.6147 -0.5524
45647SOL     OW54932   9.410   6.569   1.943 -0.0804 -0.1709 -0.0161
45647SOL    HW154933   9.393   6.609   1.858 -0.6395 -1.1225 -0.3699
45647SOL    HW254934   9.418   6.643   2.004 -1.3157  0.4713 -0.6039
45648SOL     OW54935  11.010   9.509  10.069  0.3932 -0.5063 -0.3663
45648SOL    HW154936  11.064   9.486   9.993  0.8348  1.6447 -0.7637
45648SOL    HW254937  11.056   9.581  10.110 -0.0805 -1.3366  1.7371
45649SOL     OW54938   3.619   2.774  13.689  0.0869 -0.1387  0.2325
45649SOL    HW154939   3.606   2.810  13.776 -1.5789 -0.9311  0.3428
45649SOL    HW254940   3.666   2.692  13.703  0.8989  0.3130  0.2524
45650SOL     OW54941   2.132   2.177   7.803 -0.4518  0.0078 -0.0321
45650SOL    HW154942   2.167   2.093   7.773 -1.3033 -0.4487  0.2161
45650SOL    HW254943   2.047   2.155   7.840 -0.8961  1.0627 -0.4023
45651SOL     OW54944   0.535  10.701  10.235 -0.1981  0.8100  0.3549
45651SOL    HW154945   0.612  10.647  10.222 -0.0383  0.8722  1.0000
45651SOL    HW254946   0.549  10.778  10.180  0.8145  1.4317  1.4481
45652SOL     OW54947  12.919   5.879   7.182  0.3567  0.4068  0.0668
45652SOL    HW154948  12.975   5.947   7.219 -0.7361  0.4786  1.7097
45652SOL    HW254949  12.959   5.858   7.098  2.0104  1.4520  0.5400
45653SOL     OW54950   6.692   2.506   8.248 -1.2364  0.1247 -0.6200
45653SOL    HW154951   6.757   2.572   8.272 -1.4192 -0.1983  0.8807
45653SOL    HW254952   6.743   2.433   8.213 -0.9642  0.6682 -1.3891
45654SOL     OW54953   2.045  10.795   6.156  0.1154 -0.0255  0.1741
45654SOL    HW154954   2.125  10.802   6.104 -1.5413  1.0607 -2.4163
45654SOL    HW254955   1.975  10.786   6.092 -2.2069  2.4858  2.1043
45655SOL     OW54956   6.437   4.779   8.252  0.0347 -0.8475 -0.1952
45655SOL    HW154957   6.361   4.789   8.310  0.0576 -3.3777  0.3932
45655SOL    HW254958   6.410   4.712   8.189  1.1020 -0.3407 -1.2192
45656SOL     OW54959   2.791   7.494  14.157  0.3698 -0.3247  0.0574
45656SOL    HW154960   2.814   7.413  14.203 -2.0937 -0.6181  0.9158
45656SOL    HW254961   2.776   7.558  14.227 -0.4785  0.0596 -0.4556
45657SOL     OW54962  11.560   2.552   1.875 -0.2405 -0.5339  0.0090
45657SOL    HW154963  11.652   2.579   1.880  0.0174 -1.4105  0.1824
45657SOL    HW254964  11.559   2.464   1.912 -1.4873  0.2186  1.8830
45658SOL     OW54965  13.702   2.474  13.930 -0.0624 -0.1446 -0.0362
45658SOL    HW154966  13.775   2.495  13.988 -1.4549  2.0922  1.0401
45658SOL    HW254967  13.740   2.474  13.842  1.3176  0.4333  0.5262
45659SOL     OW54968  10.402  12.141   4.273  0.5556  0.5741  0.1350
45659SOL    HW154969  10.421  12.188   4.191  1.2093  0.1051  0.0072
45659SOL    HW254970  10.382  12.052   4.245 -1.8489  1.0107  0.2731
45660SOL     OW54971   5.279  11.518   2.081 -0.4549  0.5311  0.4259
45660SOL    HW154972   5.251  11.433   2.116 -0.2761  0.5602  0.6333
45660SOL    HW254973   5.225  11.582   2.126  0.6258  0.6688  1.5535
45661SOL     OW54974   9.617  12.756   6.659 -0.7110 -0.4437  0.1440
45661SOL    HW154975   9.525  12.777   6.648 -0.5772 -0.6035 -1.5860
45661SOL    HW254976   9.633  12.685   6.597  0.5057 -0.6228  0.6360
45662SOL     OW54977  14.017  10.256   7.970  0.3136  0.0627 -0.0659
45662SOL    HW154978  14.022  10.173   7.923 -1.2970 -0.1344  0.0678
45662SOL    HW254979  13.941  10.248   8.027 -0.3474  1.8998 -0.5939
45663SOL     OW54980   4.635   2.551   4.305 -0.1783 -0.6851  0.4240
45663SOL    HW154981   4.569   2.612   4.270 -0.6800 -1.6907 -0.4415
45663SOL    HW254982   4.614   2.467   4.263  2.1320 -0.8769 -0.4870
45664SOL     OW54983   5.737  12.541   5.065 -0.4985  0.4805 -0.0236
45664SOL    HW154984   5.696  12.592   4.996  0.5205 -0.6699 -1.5657
45664SOL    HW254985   5.760  12.604   5.133 -1.8800  1.5839 -0.5448
45665SOL     OW54986   3.147   6.866   3.236  0.2835  0.2721  0.0113
45665SOL    HW154987   3.172   6.821   3.317 -2.7059 -0.4727  0.6520
45665SOL    HW254988   3.131   6.795   3.173  0.7942  0.7607 -0.6917
45666SOL     OW54989   1.812  11.306  11.399  0.4244  0.3820 -0.2058
45666SOL    HW154990   1.750  11.329  11.468  2.9086 -1.0417  2.7074
45666SOL    HW254991   1.778  11.224  11.363  0.4955 -0.3220  1.2682
45667SOL     OW54992   5.947   3.991  10.501 -0.0039  0.8504  0.0462
45667SOL    HW154993   6.034   3.973  10.537 -0.6102 -0.7960  0.8040
45667SOL    HW254994   5.898   4.028  10.574 -0.7526 -0.9695  0.5407
45668SOL     OW54995  13.086   7.894   7.241  0.1413 -0.1642  0.3398
45668SOL    HW154996  13.007   7.843   7.261  0.3219 -0.7283 -0.3330
45668SOL    HW254997  13.057   7.959   7.177  0.2406 -0.4298  0.0245
45669SOL     OW54998  11.228   1.853   4.301 -0.3987  0.0829  0.1115
45669SOL    HW154999  11.171   1.812   4.236  0.1932 -0.1353 -0.2902
45669SOL    HW255000  11.246   1.940   4.266 -0.6948  0.2511  0.3706
45670SOL     OW55001  11.307   7.899   7.612  0.1126  0.2673  0.1246
45670SOL    HW155002  11.301   7.877   7.519  0.4213 -0.6065  0.3100
45670SOL    HW255003  11.236   7.850   7.654  0.8106 -0.3980  0.5392
45671SOL     OW55004   4.054   2.399  13.849 -0.6346 -0.0797 -0.3503
45671SOL    HW155005   4.030   2.396  13.756  1.2105 -0.9591 -0.8306
45671SOL    HW255006   4.102   2.318  13.865  1.0518  1.0830  0.7950
45672SOL     OW55007  12.741  11.207   4.878  0.1280  0.5554  0.0270
45672SOL    HW155008  12.821  11.197   4.826  0.4344  1.2041  0.3680
45672SOL    HW255009  12.771  11.236   4.964 -0.4138 -0.0111  0.4213
45673SOL     OW55010   8.107   1.315  13.509 -0.4123  0.0078  0.4462
45673SOL    HW155011   8.017   1.293  13.483 -0.8719  0.0429  1.9613
45673SOL    HW255012   8.161   1.268  13.445 -1.4894  0.0173 -0.5225
45674SOL     OW55013   9.387   5.545   9.488  0.1501  0.3801 -0.0999
45674SOL    HW155014   9.333   5.486   9.541  0.1127  1.3463  0.9727
45674SOL    HW255015   9.477   5.512   9.499 -0.1065 -0.7742 -1.2795
45675SOL     OW55016   8.130   4.034  10.559  0.0825  0.4775 -0.2227
45675SOL    HW155017   8.052   4.088  10.549  0.0538  0.3161 -0.9478
45675SOL    HW255018   8.174   4.041  10.474  0.3499 -0.2102 -0.1440
45676SOL     OW55019  10.858   8.280  11.570  0.8228 -0.2876 -0.1802
45676SOL    HW155020  10.770   8.279  11.531  0.2328 -2.8897  0.9693
45676SOL    HW255021  10.898   8.199  11.540  2.4565  0.3446  0.1974
45677SOL     OW55022   7.994  14.036  13.026 -0.0119 -0.0839  0.2263
45677SOL    HW155023   8.063  14.044  13.091  0.7555  3.1055 -0.8134
45677SOL    HW255024   7.971  14.126  13.004 -0.4176 -0.9587 -3.6994
45678SOL     OW55025   9.895   0.499   3.285  0.1808 -0.3195  0.3770
45678SOL    HW155026   9.845   0.478   3.363  0.4228 -0.8962  0.3851
45678SOL    HW255027   9.853   0.448   3.215  0.1084  0.0120  0.1742
45679SOL     OW55028   1.759   4.812   9.272  0.7753 -0.3039  0.0192
45679SOL    HW155029   1.705   4.769   9.339  1.8805  0.9805  1.8345
45679SOL    HW255030   1.742   4.906   9.284  0.9683 -0.0410 -1.5617
45680SOL     OW55031  13.601   3.334  13.449  0.2295 -0.3695 -0.4925
45680SOL    HW155032  13.599   3.261  13.511 -1.7710  0.7471  0.8682
45680SOL    HW255033  13.541   3.399  13.487  2.7385  2.4764 -1.0343
45681SOL     OW55034  11.168  11.036   3.993  0.8671  0.5629 -0.1643
45681SOL    HW155035  11.258  11.018   4.020  0.4300 -1.9724 -0.1862
45681SOL    HW255036  11.170  11.033   3.898  1.0053  2.0778 -0.2388
45682SOL     OW55037   6.198  11.005   8.564 -0.3546  1.1088 -0.5770
45682SOL    HW155038   6.292  11.006   8.577 -0.5008  2.4460  0.7177
45682SOL    HW255039   6.163  10.960   8.641 -0.8170  1.7283 -0.4104
45683SOL     OW55040  11.750   4.777   2.073 -0.4060  0.2922 -0.5259
45683SOL    HW155041  11.686   4.817   2.132  0.6377 -1.1743  1.7194
45683SOL    HW255042  11.699   4.718   2.018 -1.1153 -0.1396  0.5727
45684SOL     OW55043   9.470  13.794  13.470 -0.0533  0.0759 -0.2322
45684SOL    HW155044   9.471  13.832  13.558  0.0860 -1.4351  0.4404
45684SOL    HW255045   9.516  13.859  13.416  1.1314  0.3877  1.0820
45685SOL     OW55046   7.653   1.824   9.948  0.3024  0.3380 -0.2261
45685SOL    HW155047   7.726   1.860   9.998  0.3634  2.2757 -1.5828
45685SOL    HW255048   7.587   1.802  10.014  0.8694  1.5876  0.8085
45686SOL     OW55049   9.598   8.229   6.763  0.2566  0.4216  0.0438
45686SOL    HW155050   9.645   8.208   6.844 -1.5995 -0.1719  1.0036
45686SOL    HW255051   9.645   8.180   6.695  0.9082 -0.3273  1.0028
45687SOL     OW55052   0.585  10.507   0.858 -0.5953 -0.2535 -0.3536
45687SOL    HW155053   0.512  10.532   0.801 -0.7588  0.1492  0.0333
45687SOL    HW255054   0.544  10.485   0.941 -0.1973  0.8620  0.1533
45688SOL     OW55055   0.639   3.368   9.491  0.4034 -0.7849 -0.1022
45688SOL    HW155056   0.588   3.335   9.416 -1.3336 -1.9247  1.4728
45688SOL    HW255057   0.631   3.299   9.557  1.0118  0.6169  1.5072
45689SOL     OW55058   4.508   0.445   2.021  0.1282 -0.4900  0.9806
45689SOL    HW155059   4.489   0.528   2.065 -0.0541  1.1262 -1.8822
45689SOL    HW255060   4.565   0.398   2.081  1.6357  2.4551  2.0281
45690SOL     OW55061   1.378   9.119   4.310 -0.5112  0.6107  0.1220
45690SOL    HW155062   1.399   9.155   4.396  0.7480 -1.6309  0.8239
45690SOL    HW255063   1.347   9.030   4.327  0.9793 -0.3505 -1.7872
45691SOL     OW55064   1.653   5.127   2.404  0.4177 -0.5632  0.0760
45691SOL    HW155065   1.585   5.061   2.392 -0.4806  0.4171 -0.4778
45691SOL    HW255066   1.728   5.093   2.355 -0.0404 -1.1544 -0.2375
45692SOL     OW55067   8.703   9.681   3.468  0.2011 -0.1809  0.4215
45692SOL    HW155068   8.781   9.686   3.523 -0.1916  0.7830  0.9209
45692SOL    HW255069   8.727   9.725   3.387  0.1950  0.0614  0.5519
45693SOL     OW55070   3.774   2.644  10.123 -0.3528  0.4869  0.0475
45693SOL    HW155071   3.763   2.552  10.100  0.8375 -0.0989  1.5780
45693SOL    HW255072   3.801   2.687  10.042  2.1120 -1.1389 -0.0940
45694SOL     OW55073   0.825   5.264  11.859  0.2824 -0.2090  0.4107
45694SOL    HW155074   0.776   5.341  11.887 -1.5478 -1.0092 -0.4327
45694SOL    HW255075   0.778   5.232  11.782  0.2360 -2.8785  1.4502
45695SOL     OW55076   5.169  12.692   5.109 -0.1779 -0.2206 -0.1494
45695SOL    HW155077   5.162  12.755   5.181 -0.6322 -0.9004  0.4193
45695SOL    HW255078   5.112  12.726   5.041  1.4804  1.2806 -0.8530
45696SOL     OW55079   3.330  12.953  12.775 -0.1145  0.1497 -0.5723
45696SOL    HW155080   3.353  13.046  12.774  2.1890 -0.3488 -0.0460
45696SOL    HW255081   3.356  12.922  12.688 -2.5475  0.2946 -1.4210
45697SOL     OW55082   9.387   3.570  13.872  0.1924 -0.3602  0.4722
45697SOL    HW155083   9.364   3.592  13.963 -0.1726  0.6946  0.1317
45697SOL    HW255084   9.436   3.645  13.840 -1.9427  0.5047 -1.0292
45698SOL     OW55085  10.726   7.546   2.101 -0.5240 -0.0914 -0.4695
45698SOL    HW155086  10.795   7.505   2.152 -1.8721 -2.1225 -0.1563
45698SOL    HW255087  10.772   7.593   2.032  1.2336  0.5975  1.0728
45699SOL     OW55088   4.862   4.626  13.398  0.2596  0.0422  0.9003
45699SOL    HW155089   4.922   4.701  13.403  2.3715 -1.5015  0.0562
45699SOL    HW255090   4.835   4.623  13.306 -1.4722  0.9284  1.3396
45700SOL     OW55091  12.147   4.746   1.894 -0.0359 -0.2679  0.2409
45700SOL    HW155092  12.198   4.801   1.954 -1.2196  0.2169  0.8479
45700SOL    HW255093  12.116   4.673   1.948  0.0670 -0.5994 -0.1371
45701SOL     OW55094   5.279   2.311  10.269  0.1661 -0.1749  0.3930
45701SOL    HW155095   5.246   2.364  10.342  1.6603  0.7691  0.4131
45701SOL    HW255096   5.352   2.262  10.307  0.6761 -0.0071 -0.3648
45702SOL     OW55097   5.520   6.160   3.684  0.5820 -0.5149 -0.1471
45702SOL    HW155098   5.539   6.207   3.765 -0.8143 -0.8115  0.3961
45702SOL    HW255099   5.471   6.082   3.712  0.8409 -1.0918 -1.2125
45703SOL     OW55100   5.565   4.317   0.895  0.2804  0.3666  0.5306
45703SOL    HW155101   5.535   4.395   0.848  0.4644 -0.0260 -0.2595
45703SOL    HW255102   5.484   4.275   0.925  0.0409 -0.2401 -0.8651
45704SOL     OW55103   2.911  13.544   0.192 -0.0331 -0.6855 -0.2639
45704SOL    HW155104   2.859  13.598   0.132  0.8072  1.2796  0.7126
45704SOL    HW255105   2.981  13.601   0.223  0.8144 -2.2894  0.9798
45705SOL     OW55106   0.745   9.763   9.873  0.3506 -0.3315  0.3836
45705SOL    HW155107   0.795   9.687   9.844  1.9867 -0.6218  3.4654
45705SOL    HW255108   0.663   9.727   9.907  0.3748 -0.5088  0.2552
45706SOL     OW55109   5.856   3.682  12.452 -0.3433  0.9504  0.5039
45706SOL    HW155110   5.814   3.670  12.537  0.7357 -0.7112  0.8454
45706SOL    HW255111   5.941   3.720  12.472  0.6995 -1.2046  0.3870
45707SOL     OW55112   4.996   2.651   5.767 -0.1934 -0.4126 -0.5499
45707SOL    HW155113   4.944   2.570   5.760  1.3683 -1.4907 -0.2126
45707SOL    HW255114   5.065   2.641   5.702  0.0920  0.6107 -0.4175
45708SOL     OW55115   8.808   1.937   7.832 -0.2735  0.0753 -0.1213
45708SOL    HW155116   8.789   2.030   7.827  1.7100  0.5638  0.6292
45708SOL    HW255117   8.815   1.919   7.926  1.1712 -0.4064 -0.3033
45709SOL     OW55118   4.896  13.843   5.213  0.2780  0.2746 -0.2802
45709SOL    HW155119   4.896  13.752   5.184  0.4695 -0.1147  0.8961
45709SOL    HW255120   4.803  13.864   5.226  0.2021  0.3993 -0.9795
45710SOL     OW55121   3.100  11.751   6.883  0.0482 -0.4022 -0.0013
45710SOL    HW155122   3.122  11.668   6.841 -0.2375 -1.0355  1.0565
45710SOL    HW255123   3.005  11.759   6.871  0.2177  0.2867 -0.9805
45711SOL     OW55124   4.705   0.875   8.352  0.0215 -0.5977  0.3870
45711SOL    HW155125   4.768   0.880   8.280  0.0350 -1.7165  0.3093
45711SOL    HW255126   4.671   0.964   8.360 -0.7253 -0.6445 -1.6724
45712SOL     OW55127  11.439   7.577   9.042 -0.5306  0.1701 -0.3359
45712SOL    HW155128  11.526   7.592   9.006 -0.0513  0.5825  0.9378
45712SOL    HW255129  11.430   7.642   9.111 -1.1158 -1.0420  0.7784
45713SOL     OW55130   3.534   9.306  12.891 -0.2909 -0.4346  0.3067
45713SOL    HW155131   3.450   9.348  12.871 -0.6115 -1.1992  0.0165
45713SOL    HW255132   3.518   9.257  12.971 -0.0149 -0.2817  0.4550
45714SOL     OW55133  10.807   4.336  11.260 -0.6974 -0.0012 -0.0048
45714SOL    HW155134  10.804   4.287  11.178 -0.3805  1.1226 -0.7093
45714SOL    HW255135  10.718   4.331  11.295 -0.5997 -1.3137  0.0998
45715SOL     OW55136   9.347   5.242  12.319  0.3566 -0.0292  0.0261
45715SOL    HW155137   9.288   5.275  12.386  0.9978  1.4965 -0.1347
45715SOL    HW255138   9.430   5.229  12.364  0.1636 -1.3394  0.0516
45716SOL     OW55139   0.542  13.826   9.323  0.4733 -0.6863 -0.0296
45716SOL    HW155140   0.529  13.920   9.309 -0.3824 -0.7017  0.6067
45716SOL    HW255141   0.457  13.794   9.352  0.2528 -1.9953 -1.9189
45717SOL     OW55142  11.477  13.621  13.679 -0.4318  0.2200 -0.2364
45717SOL    HW155143  11.504  13.694  13.735  1.0762  0.6465 -1.4293
45717SOL    HW255144  11.557  13.597  13.632 -0.8127 -2.3891  0.2874
45718SOL     OW55145   8.912  12.151  11.847  0.1984  0.6368  0.1309
45718SOL    HW155146   8.943  12.062  11.860 -1.2685 -0.2857 -2.0165
45718SOL    HW255147   8.936  12.197  11.927  2.6904 -1.1582  0.5418
45719SOL     OW55148  10.006   0.512   4.528 -0.3035  0.0388 -0.0339
45719SOL    HW155149   9.960   0.595   4.517  1.7388  1.4158  1.1200
45719SOL    HW255150   9.979   0.459   4.453 -3.4967  0.8017  0.4554
45720SOL     OW55151   0.855   2.867  13.951  0.0914 -0.4311 -0.0531
45720SOL    HW155152   0.923   2.800  13.953  0.3084 -0.2170 -0.2538
45720SOL    HW255153   0.872   2.921  14.028 -0.1767 -0.6904  0.1964
45721SOL     OW55154   8.526   9.780   7.343 -0.1627 -0.1449 -0.3320
45721SOL    HW155155   8.500   9.712   7.405  0.9267  0.4131  0.7643
45721SOL    HW255156   8.489   9.751   7.259 -0.5346 -1.5813  0.3045
45722SOL     OW55157   6.998  14.079   9.648 -0.4092 -0.3206 -0.0169
45722SOL    HW155158   7.008  14.042   9.736 -0.8101 -1.2197 -0.3307
45722SOL    HW255159   6.996  14.173   9.661 -0.8596 -0.4571  0.9868
45723SOL     OW55160   9.165   1.932   7.722 -0.5779  0.5776  0.3375
45723SOL    HW155161   9.251   1.934   7.679 -0.4473 -0.8181  0.4888
45723SOL    HW255162   9.162   2.012   7.774  1.0185  0.2085  1.0586
45724SOL     OW55163   6.178   4.316   8.717 -0.4820 -0.1262 -0.2268
45724SOL    HW155164   6.138   4.234   8.747 -1.6624  0.5399  0.0537
45724SOL    HW255165   6.193   4.301   8.623 -0.4365 -0.7619 -0.1250
45725SOL     OW55166   5.199   0.333   9.316  0.2922  0.5429 -0.0316
45725SOL    HW155167   5.105   0.319   9.327  0.6833 -2.2673  0.4167
45725SOL    HW255168   5.213   0.330   9.221  0.0007  0.3275 -0.0686
45726SOL     OW55169   4.004   0.113  13.770 -0.2585  0.2429  0.4266
45726SOL    HW155170   3.923   0.156  13.800 -0.3958 -0.4759  1.1196
45726SOL    HW255171   4.017   0.148  13.681  0.0700  2.3058  1.2197
45727SOL     OW55172   9.293   9.937  12.504  0.1994 -0.0297  0.6083
45727SOL    HW155173   9.355   9.913  12.435  0.4254 -0.8412  1.0832
45727SOL    HW255174   9.327   9.895  12.582  0.2982  1.4095  1.3705
45728SOL     OW55175   1.204   7.420   7.396  0.2154  0.1424 -0.2970
45728SOL    HW155176   1.241   7.429   7.308  0.6490 -0.7889 -0.2238
45728SOL    HW255177   1.186   7.326   7.405 -2.3154  0.5494 -0.3771
45729SOL     OW55178   0.359   5.735   3.006  0.8798  0.1574 -0.0142
45729SOL    HW155179   0.361   5.828   3.031  1.0444  0.2507 -0.3651
45729SOL    HW255180   0.448   5.716   2.978  0.7333  0.0259 -0.4015
45730SOL     OW55181  12.004  12.656   4.288 -0.2207  0.1211  0.8379
45730SOL    HW155182  11.987  12.602   4.210  0.0363  1.4531 -0.1797
45730SOL    HW255183  12.027  12.742   4.253  0.9843  0.4663  2.3608
45731SOL     OW55184   1.614   9.015   5.305 -0.9411  0.0983  0.1242
45731SOL    HW155185   1.642   8.943   5.250 -0.4866  0.6482 -0.3781
45731SOL    HW255186   1.646   9.094   5.260  0.1753  0.5237  1.5566
45732SOL     OW55187   5.031  11.698  13.949 -0.1746  0.1858  0.3737
45732SOL    HW155188   4.990  11.768  14.000 -0.0888  0.9886 -0.6269
45732SOL    HW255189   4.963  11.669  13.889  0.2410  0.4330 -0.2212
45733SOL     OW55190   0.087   8.279   5.178 -0.3260  0.7435 -0.0950
45733SOL    HW155191   0.131   8.208   5.131  0.1678  0.5909  0.5765
45733SOL    HW255192   0.009   8.239   5.215 -0.2791  0.6588 -0.0878
45734SOL     OW55193   0.566   0.157  10.325 -0.0786  0.4474  0.2031
45734SOL    HW155194   0.635   0.103  10.285 -0.2595 -0.9171  1.6227
45734SOL    HW255195   0.497   0.159  10.259  0.0145 -0.9331  0.0209
45735SOL     OW55196   2.155  13.816   0.602 -0.1728 -0.6166 -0.0944
45735SOL    HW155197   2.063  13.840   0.611 -0.3261 -0.2142 -2.1540
45735SOL    HW255198   2.194  13.839   0.686 -1.2250  2.6641 -0.3632
45736SOL     OW55199   4.574   2.693   0.367 -0.0714  0.4760  0.2080
45736SOL    HW155200   4.540   2.691   0.457  1.2096  1.5534  0.7398
45736SOL    HW255201   4.577   2.786   0.344 -3.6624  0.1863 -2.2985
45737SOL     OW55202   0.278   6.338   3.899 -0.1667  0.3626 -0.0791
45737SOL    HW155203   0.196   6.293   3.921 -0.8711  0.0046 -3.0843
45737SOL    HW255204   0.345   6.270   3.908 -0.4981  0.0690  0.2528
45738SOL     OW55205   0.737  13.634  10.413  0.1968 -0.3123 -0.0547
45738SOL    HW155206   0.817  13.681  10.439  0.6821 -0.7745 -0.6588
45738SOL    HW255207   0.666  13.687  10.446  0.7546  0.3620  0.0889
45739SOL     OW55208  12.486   5.538   6.223 -0.2711 -0.9570 -0.2906
45739SOL    HW155209  12.421   5.469   6.213  0.6148 -2.0756  1.2613
45739SOL    HW255210  12.478   5.565   6.314  0.8279 -0.4680 -0.3279
45740SOL     OW55211   9.556   0.189   3.140  0.2631  0.2507  0.1819
45740SOL    HW155212   9.529   0.139   3.217  0.1568 -0.6076 -0.4045
45740SOL    HW255213   9.652   0.188   3.144  0.2648 -0.1468  0.0831
45741SOL     OW55214   4.578   3.928   0.820 -0.1711 -0.6459 -0.0847
45741SOL    HW155215   4.497   3.979   0.816  0.1067 -0.2194 -0.2206
45741SOL    HW255216   4.628   3.955   0.743  0.0136 -1.0650 -0.1190
45742SOL     OW55217  14.134  10.770   4.069  0.3662  0.0883 -0.3171
45742SOL    HW155218  14.153  10.772   4.162  2.0612 -0.1519 -0.6297
45742SOL    HW255219  14.207  10.816   4.028  0.7299 -1.6196 -1.6881
45743SOL     OW55220   5.534  11.407  13.825 -0.2658  0.3488 -0.3711
45743SOL    HW155221   5.514  11.316  13.846  0.4389 -0.0275 -1.2367
45743SOL    HW255222   5.469  11.459  13.873 -0.3609 -0.5816  0.5240
45744SOL     OW55223  11.411  12.093  12.297  0.1232 -0.0609 -0.0109
45744SOL    HW155224  11.350  12.167  12.298  0.9533  0.6413 -0.5450
45744SOL    HW255225  11.392  12.046  12.378 -0.8398  0.3864  0.0350
45745SOL     OW55226   0.349   9.517   7.384  0.3677 -0.1635  0.4677
45745SOL    HW155227   0.257   9.506   7.408 -0.4960  1.5607 -1.7139
45745SOL    HW255228   0.364   9.454   7.314  0.5236  0.3464  0.0393
45746SOL     OW55229   4.230   0.487   1.639  0.2731 -0.2772 -0.1485
45746SOL    HW155230   4.307   0.452   1.683  0.2733 -0.2154 -0.1004
45746SOL    HW255231   4.164   0.417   1.649 -0.0185  0.1042  0.7583
45747SOL     OW55232   2.429  12.840   3.309 -0.9937  1.2209 -0.2633
45747SOL    HW155233   2.397  12.751   3.321 -1.3089  1.2703 -0.6913
45747SOL    HW255234   2.477  12.837   3.226  1.6127  0.7517  1.1589
45748SOL     OW55235  12.803   6.094   6.174  0.0882  0.6521  0.4118
45748SOL    HW155236  12.713   6.128   6.179  0.2388  1.0084  0.8010
45748SOL    HW255237  12.856   6.161   6.217  0.6373  0.7650 -0.4143
45749SOL     OW55238  13.983   4.716   2.359 -0.6535  0.3811 -0.2362
45749SOL    HW155239  13.970   4.810   2.374  0.9074  0.5700  0.1287
45749SOL    HW255240  13.975   4.677   2.446 -0.1426  0.3422 -0.2029
45750SOL     OW55241   1.098  13.533  13.779  0.5319 -0.4618  0.1016
45750SOL    HW155242   1.101  13.438  13.767 -2.1621 -0.4898 -1.1015
45750SOL    HW255243   1.055  13.545  13.864  0.3772 -0.3073  0.0007
45751SOL     OW55244   9.827  11.739  11.036  0.0164  0.0401  0.4716
45751SOL    HW155245   9.887  11.806  11.069 -1.1675  1.1067  0.5577
45751SOL    HW255246   9.759  11.732  11.104 -0.8026  0.0149 -0.3280
45752SOL     OW55247   8.230   5.701  12.192  0.3737 -0.8840 -0.0619
45752SOL    HW155248   8.288   5.776  12.185  0.7716 -1.2998 -1.7214
45752SOL    HW255249   8.287   5.629  12.221 -0.0044 -0.5797  1.5160
45753SOL     OW55250  11.990  12.933   9.030 -0.0302  0.1726 -0.3749
45753SOL    HW155251  11.909  12.957   8.985  0.3075  1.2762 -0.4240
45753SOL    HW255252  12.033  12.873   8.970  0.0444  1.0188 -1.1899
45754SOL     OW55253  11.357   6.502   8.569  0.1947 -0.0737  0.1399
45754SOL    HW155254  11.348   6.456   8.652  0.3500  1.3490  0.9867
45754SOL    HW255255  11.385   6.590   8.593 -1.2679  0.8604 -1.2923
45755SOL     OW55256   2.074   4.164   7.311 -0.2282 -0.3313  0.3577
45755SOL    HW155257   2.033   4.149   7.397  1.0304  0.0296  1.0406
45755SOL    HW255258   2.166   4.140   7.324  0.5490  2.1034 -0.1700
45756SOL     OW55259   3.912   2.716   4.453 -0.6634 -0.0694 -0.6066
45756SOL    HW155260   3.972   2.772   4.403  2.3751 -1.5572  1.1150
45756SOL    HW255261   3.942   2.627   4.437  1.3594 -0.6672  4.4590
45757SOL     OW55262   5.800   9.647   8.472  0.8406 -0.2790  0.0997
45757SOL    HW155263   5.737   9.613   8.410  0.2480  0.6145  0.1883
45757SOL    HW255264   5.866   9.692   8.418  1.3382 -1.0942  0.0160
45758SOL     OW55265   7.787   5.540  12.385 -0.1711 -0.6941 -0.1308
45758SOL    HW155266   7.746   5.566  12.302 -0.8763  3.6332  1.3482
45758SOL    HW255267   7.714   5.515  12.441  0.2119 -2.4673 -0.3612
45759SOL     OW55268  10.080   6.210   3.942 -0.0828  0.6050  0.0905
45759SOL    HW155269  10.043   6.283   3.892  2.3726  1.8394 -0.1071
45759SOL    HW255270  10.023   6.136   3.923 -2.8884  2.5143  0.5550
45760SOL     OW55271   2.992   1.960   2.998  0.0344  0.3796  0.2698
45760SOL    HW155272   3.077   1.923   2.974  0.8657  1.7458  0.9899
45760SOL    HW255273   3.010   2.052   3.018 -1.3017  0.2827  2.1544
45761SOL     OW55274   5.247   2.285   0.770  0.3031  0.3682  0.1729
45761SOL    HW155275   5.314   2.217   0.776  0.5269  0.6419  0.8834
45761SOL    HW255276   5.204   2.269   0.686  1.8992  0.7822 -0.7555
45762SOL     OW55277   1.520   2.136   7.600  0.1791  0.0453  0.3605
45762SOL    HW155278   1.482   2.193   7.667 -2.7944  0.1192 -1.1962
45762SOL    HW255279   1.561   2.066   7.649 -2.3187 -0.1917  2.3608
45763SOL     OW55280  12.993  11.286   9.148  0.6275  0.4353 -0.2521
45763SOL    HW155281  13.067  11.341   9.121  1.3736 -0.8294 -0.8483
45763SOL    HW255282  12.939  11.278   9.070  0.3104  0.6193 -0.0565
45764SOL     OW55283   1.261   7.439   0.576  0.7035  0.0116  0.4107
45764SOL    HW155284   1.269   7.453   0.482 -0.3589  0.0705  0.3184
45764SOL    HW255285   1.334   7.488   0.614  0.6827  0.6330 -0.3284
45765SOL     OW55286  10.648  13.961  12.216 -0.2898 -0.2655 -0.2879
45765SOL    HW155287  10.647  13.974  12.121 -1.2081 -3.0211 -0.7501
45765SOL    HW255288  10.556  13.958  12.240 -0.0718  1.3771  0.9118
45766SOL     OW55289   4.314  13.758   0.738  0.3401  0.6047  0.0639
45766SOL    HW155290   4.326  13.842   0.694  0.5723 -0.5725 -2.2605
45766SOL    HW255291   4.387  13.753   0.800  0.4584  1.9936  0.0727
45767SOL     OW55292   9.721  10.889  10.584  0.0388 -0.2017 -0.3934
45767SOL    HW155293   9.683  10.934  10.508  1.3639 -0.4085 -1.2078
45767SOL    HW255294   9.707  10.949  10.657 -1.1728  0.0449 -0.7975
45768SOL     OW55295   3.011   9.500   5.691  0.2657  0.1879  0.3068
45768SOL    HW155296   3.034   9.412   5.722 -0.4623 -0.5039 -1.0261
45768SOL    HW255297   2.949   9.533   5.756  0.9757 -0.0487  1.1155
45769SOL     OW55298  10.464   4.654  10.767  0.3600 -0.3918 -0.0318
45769SOL    HW155299  10.542   4.616  10.727 -0.0363 -2.8479  1.3582
45769SOL    HW255300  10.430   4.714  10.700  2.5885 -0.3869 -1.2409
45770SOL     OW55301  13.859   6.154   2.654 -0.2721  0.0463 -0.3696
45770SOL    HW155302  13.943   6.171   2.613  0.6537  0.0576  1.4118
45770SOL    HW255303  13.876   6.082   2.714 -1.6556 -0.2676 -0.3222
45771SOL     OW55304   3.977   8.184   1.314 -0.0993  0.8433 -0.1958
45771SOL    HW155305   4.021   8.206   1.232 -0.7929  2.0684 -0.2650
45771SOL    HW255306   4.023   8.106   1.346  1.0238  1.1139 -1.0893
45772SOL     OW55307   3.810  12.717  14.001 -0.0300  0.5084 -0.3254
45772SOL    HW155308   3.724  12.709  14.041  0.1918  1.6045  0.4111
45772SOL    HW255309   3.830  12.629  13.968 -0.9244 -0.0274  0.5355
45773SOL     OW55310  10.834  12.787   0.475 -0.2188  0.1613  0.1885
45773SOL    HW155311  10.754  12.779   0.423 -0.5520 -0.6978  0.7975
45773SOL    HW255312  10.823  12.721   0.544  0.6957  0.5363  0.6972
45774SOL     OW55313   0.425   7.078   0.572  0.4834 -0.3018 -0.5490
45774SOL    HW155314   0.496   7.116   0.623  3.2787 -2.2583 -2.6236
45774SOL    HW255315   0.370   7.152   0.548  1.2902  1.1847  1.8811
45775SOL     OW55316   8.980   2.477   5.981  0.6772  0.0340  0.1653
45775SOL    HW155317   8.968   2.382   5.980  0.6181  0.0382 -0.5726
45775SOL    HW255318   8.902   2.511   5.938  0.3623  0.4697  1.0629
45776SOL     OW55319   6.812   0.430   2.287 -0.1663  0.1637 -0.1608
45776SOL    HW155320   6.896   0.421   2.243 -0.1307 -0.6269  0.0594
45776SOL    HW255321   6.808   0.356   2.347 -1.3238 -0.2129 -0.6754
45777SOL     OW55322  12.766  11.697  10.998  0.1664 -0.1428 -0.1043
45777SOL    HW155323  12.825  11.703  11.073 -1.5190  1.1706  1.2026
45777SOL    HW255324  12.732  11.608  11.001  3.0353 -1.4280 -1.7430
45778SOL     OW55325  10.881   5.218  12.471 -0.4708 -0.2356 -0.1156
45778SOL    HW155326  10.804   5.222  12.528 -0.6439 -0.6176 -0.3202
45778SOL    HW255327  10.864   5.144  12.412 -0.0471 -0.1875 -0.3041
45779SOL     OW55328   6.436   7.178   8.674 -0.5952  0.3176 -1.0779
45779SOL    HW155329   6.428   7.084   8.689 -1.1470  0.6479  0.8914
45779SOL    HW255330   6.516   7.187   8.621  1.1867 -1.0520  1.1921
45780SOL     OW55331   9.472   1.310   5.820 -0.2043 -0.1610  0.4828
45780SOL    HW155332   9.509   1.321   5.732 -0.1503 -2.0462  0.2296
45780SOL    HW255333   9.378   1.316   5.808 -0.1673  0.3422  0.4274
45781SOL     OW55334   2.874   8.571   6.821 -0.4634 -0.1385  0.2960
45781SOL    HW155335   2.898   8.657   6.855  0.1656 -0.5675  0.9979
45781SOL    HW255336   2.802   8.542   6.877  0.1528 -0.5765  0.8957
45782SOL     OW55337   4.752  10.754   7.831 -0.3194 -0.4304 -0.1162
45782SOL    HW155338   4.848  10.752   7.831 -0.2964  0.4877 -0.3002
45782SOL    HW255339   4.729  10.817   7.763 -1.0689 -1.0086 -0.4118
45783SOL     OW55340  11.296  11.822   3.978  0.3684  0.1844  0.2381
45783SOL    HW155341  11.240  11.879   4.032  0.2558  0.6949 -0.4004
45783SOL    HW255342  11.241  11.745   3.960  1.5130 -1.5683  3.5468
45784SOL     OW55343  11.340  10.584   9.687  0.0747 -0.0626 -0.3042
45784SOL    HW155344  11.294  10.602   9.768  0.7085  2.7363 -0.4631
45784SOL    HW255345  11.271  10.574   9.621 -0.4073 -1.4344  0.3775
45785SOL     OW55346   1.470   0.611   2.936  0.7396 -0.4690 -0.4082
45785SOL    HW155347   1.405   0.577   2.875 -0.6607  0.1793  0.6717
45785SOL    HW255348   1.503   0.533   2.982 -0.3324 -0.6744  0.0281
45786SOL     OW55349   1.959   1.225   3.453 -0.5667 -0.6195  0.3796
45786SOL    HW155350   1.967   1.282   3.530  1.1399  0.5553 -0.5962
45786SOL    HW255351   1.995   1.277   3.381  1.1708 -2.9533 -0.5670
45787SOL     OW55352  11.918  10.573  11.647  0.8357 -0.7383 -0.2989
45787SOL    HW155353  11.849  10.564  11.713 -0.1634 -0.4714 -1.2682
45787SOL    HW255354  11.975  10.641  11.681 -0.0635 -0.1045 -0.0149
45788SOL     OW55355  13.268   0.804   0.102 -0.3742 -0.1850 -0.0223
45788SOL    HW155356  13.185   0.759   0.113 -0.8035  0.0822 -1.7949
45788SOL    HW255357  13.319   0.782   0.180 -1.9657 -0.6394  0.9183
45789SOL     OW55358   9.056  11.111  13.428  0.3706 -0.4475  0.4834
45789SOL    HW155359   9.146  11.134  13.452  0.5327 -0.6848  0.1184
45789SOL    HW255360   9.025  11.058  13.502  0.2746  0.2467  0.9448
45790SOL     OW55361   7.987   7.575  10.579 -0.5552 -0.0124  0.4590
45790SOL    HW155362   7.896   7.600  10.563 -0.0522  0.6791 -1.6223
45790SOL    HW255363   8.015   7.531  10.498  0.5421 -1.5746  1.6227
45791SOL     OW55364  12.995   6.609  11.593  0.2155  1.1524  0.1140
45791SOL    HW155365  13.014   6.691  11.547 -0.9411  0.8033 -1.0607
45791SOL    HW255366  12.902   6.594  11.576 -0.2438  0.9209  2.4769
45792SOL     OW55367   8.256  10.152  10.303 -0.6218 -0.0915  0.2458
45792SOL    HW155368   8.195  10.166  10.231  1.8653  0.6807 -1.8733
45792SOL    HW255369   8.313  10.081  10.272  1.5879  1.4177  0.6140
45793SOL     OW55370  13.588   7.633   3.476  0.6348 -0.1797  0.2807
45793SOL    HW155371  13.515   7.586   3.515  0.9670 -0.2049  0.8959
45793SOL    HW255372  13.565   7.726   3.486  0.0951 -0.1978 -0.7049
45794SOL     OW55373  10.555   6.180  13.001 -0.2690 -0.5811  0.0359
45794SOL    HW155374  10.518   6.163  12.914 -1.6364  0.6397  0.3415
45794SOL    HW255375  10.632   6.124  13.005  0.0599 -0.4027 -2.1183
45795SOL     OW55376   3.567  11.561  10.665 -0.0223  0.2491  0.3785
45795SOL    HW155377   3.506  11.489  10.653  1.7742 -1.6077  1.7387
45795SOL    HW255378   3.517  11.628  10.713 -0.7483 -1.6634  2.4617
45796SOL     OW55379  12.947   5.324   8.702  0.1129 -0.1737 -0.5607
45796SOL    HW155380  12.862   5.363   8.725  0.9058  0.2793  1.8474
45796SOL    HW255381  12.933   5.286   8.615 -1.7288  2.3424 -1.4716
45797SOL     OW55382  11.917  13.398  11.438 -0.3915 -0.1211  0.2290
45797SOL    HW155383  11.907  13.332  11.507 -0.1398 -1.0828 -0.6175
45797SOL    HW255384  11.851  13.374  11.373 -2.2288  2.1453  1.1145
45798SOL     OW55385  10.882   6.649   4.749 -0.1395  0.5924 -0.8389
45798SOL    HW155386  10.900   6.578   4.687 -0.1431 -0.0270 -0.1505
45798SOL    HW255387  10.860   6.724   4.694  1.2324  0.4546 -1.6223
45799SOL     OW55388  13.115   6.670  13.546 -0.0763  0.0588  0.0945
45799SOL    HW155389  13.135   6.577  13.561  0.5502  0.3199  0.9522
45799SOL    HW255390  13.087   6.702  13.632  0.9171  0.9569  0.1054
45800SOL     OW55391  11.751   7.505   2.778  0.4331  0.3861  0.0241
45800SOL    HW155392  11.708   7.506   2.693 -0.4624 -0.3279  0.4550
45800SOL    HW255393  11.686   7.541   2.839  1.1926  1.2350  0.3555
45801SOL     OW55394   6.372   7.658   7.444 -0.3345  0.1705 -0.0872
45801SOL    HW155395   6.464   7.657   7.471 -0.6894  2.2124  1.3970
45801SOL    HW255396   6.369   7.722   7.372 -0.3649 -1.0760 -1.2352
45802SOL     OW55397  11.457   4.168  11.869  0.6101  0.6531  0.5915
45802SOL    HW155398  11.405   4.248  11.863  0.3454  0.4326 -0.1805
45802SOL    HW255399  11.399   4.105  11.913  0.5870  0.7018  0.6320
45803SOL     OW55400  11.145  12.577  13.851  0.5810 -0.0459  0.2550
45803SOL    HW155401  11.194  12.631  13.789  0.3435  0.6611  0.6720
45803SOL    HW255402  11.166  12.614  13.937 -1.6715  1.1251  0.3718
45804SOL     OW55403  10.350   4.745  10.451  0.3423 -0.1940  0.7395
45804SOL    HW155404  10.329   4.652  10.445  0.9513 -0.2581 -2.9101
45804SOL    HW255405  10.273   4.789  10.416  0.8652  0.5062  0.4548
45805SOL     OW55406  11.881   7.739   5.222  0.3612  0.0262 -0.3939
45805SOL    HW155407  11.896   7.715   5.130  0.8309  0.4279 -0.4289
45805SOL    HW255408  11.841   7.662   5.261 -1.3066  0.3698 -1.3125
45806SOL     OW55409  11.437   4.405   5.098 -0.4463  0.0980  0.2956
45806SOL    HW155410  11.509   4.343   5.102 -0.7591 -0.2103  1.7189
45806SOL    HW255411  11.453   4.466   5.170 -0.3921  1.4119 -0.7950
45807SOL     OW55412   8.144   7.491  12.252 -0.2495  0.0494 -0.4952
45807SOL    HW155413   8.237   7.512  12.248  0.3803 -1.0006  3.5182
45807SOL    HW255414   8.141   7.395  12.259 -1.7451 -0.0221 -1.6616
45808SOL     OW55415   2.559  13.057  11.260 -0.4315  0.5202 -0.1456
45808SOL    HW155416   2.544  13.035  11.352 -1.7890  2.0218  0.0418
45808SOL    HW255417   2.558  12.973  11.214 -0.1618 -0.2087  1.1490
45809SOL     OW55418   4.227  10.478  13.022  0.1793 -0.2139 -0.2221
45809SOL    HW155419   4.306  10.453  12.974  0.4176  0.8688 -0.4226
45809SOL    HW255420   4.229  10.424  13.101  1.5135  0.3094  0.1305
45810SOL     OW55421   3.794   8.501   3.014 -0.2151  0.3521 -0.0084
45810SOL    HW155422   3.719   8.526   3.069 -1.3996  0.2451 -1.5066
45810SOL    HW255423   3.767   8.525   2.925  2.0284  1.4273 -0.4725
45811SOL     OW55424   2.258   5.399   4.669  0.3748 -0.0658 -0.0213
45811SOL    HW155425   2.341   5.364   4.702  1.3204  2.4539  0.4883
45811SOL    HW255426   2.193   5.373   4.735  1.0443 -0.7082  0.3996
45812SOL     OW55427   7.354   7.945  10.486 -0.0297  0.1789  0.3080
45812SOL    HW155428   7.284   7.976  10.427 -0.7767 -0.6805  0.7277
45812SOL    HW255429   7.395   8.026  10.518 -1.9415  0.7878  1.3842
45813SOL     OW55430   7.676   1.340   4.299  0.5315 -1.1470  0.0395
45813SOL    HW155431   7.750   1.351   4.359  0.5351 -1.2891  0.0619
45813SOL    HW255432   7.683   1.413   4.238  1.7803 -2.1814 -1.1166
45814SOL     OW55433   2.339   0.488   6.721  0.0467 -0.6295 -0.0812
45814SOL    HW155434   2.388   0.421   6.768  0.4230 -0.1879  0.1614
45814SOL    HW255435   2.265   0.441   6.683  0.7882 -1.3457 -0.6618
45815SOL     OW55436   5.938   8.283   4.839  0.6080 -0.1212 -0.0248
45815SOL    HW155437   5.982   8.273   4.923  0.8413  1.0652  0.0206
45815SOL    HW255438   6.000   8.246   4.775  0.9245 -0.0053  0.2122
45816SOL     OW55439   9.108   9.710   8.941  0.0272 -0.4087  0.0884
45816SOL    HW155440   9.129   9.795   8.980 -0.9366  0.3053 -0.8997
45816SOL    HW255441   9.193   9.674   8.915  0.3728  0.7052 -0.3698
45817SOL     OW55442   1.239   0.764   3.004  0.0726 -0.0788 -0.4757
45817SOL    HW155443   1.188   0.687   3.031  0.4534 -1.1686 -2.6340
45817SOL    HW255444   1.323   0.728   2.976 -0.0480  0.9832 -2.3482
45818SOL     OW55445   8.726   3.032  12.616  0.4389  0.2339  0.0943
45818SOL    HW155446   8.678   2.958  12.578 -0.2022  0.6170  0.1394
45818SOL    HW255447   8.659   3.099  12.629  1.2930  1.5356 -1.7007
45819SOL     OW55448   2.899   2.539   9.702  0.5951  0.7217  0.0343
45819SOL    HW155449   2.889   2.527   9.797 -0.1687  2.7827  0.2651
45819SOL    HW255450   2.824   2.594   9.677  1.4518  1.2283 -1.5528
45820SOL     OW55451  11.524  13.488  10.496  0.1881  0.3556  0.0365
45820SOL    HW155452  11.450  13.463  10.441 -0.0416  0.1875  0.4192
45820SOL    HW255453  11.558  13.568  10.455 -0.0839  0.3265 -0.2510
45821SOL     OW55454   6.549   6.836   5.947  0.5395  0.1054  0.3103
45821SOL    HW155455   6.576   6.808   5.860  0.9287 -0.6399  0.6639
45821SOL    HW255456   6.568   6.761   6.004  0.0018  0.4652  0.9830
45822SOL     OW55457   5.170   1.756  10.663 -0.6686 -0.6759  0.1662
45822SOL    HW155458   5.216   1.707  10.595 -0.8942 -0.0984 -0.4100
45822SOL    HW255459   5.233   1.762  10.735 -0.0394 -0.3880 -0.3910
45823SOL     OW55460  14.073   7.371   9.772  0.4768 -0.2844 -0.4111
45823SOL    HW155461  14.108   7.336   9.690  4.1510 -0.9456  1.2335
45823SOL    HW255462  14.119   7.454   9.783 -1.0768  0.5126  0.3252
45824SOL     OW55463   5.136   5.478   2.669 -0.1623 -0.6762  0.3326
45824SOL    HW155464   5.058   5.427   2.647 -0.1736 -0.7584  0.5517
45824SOL    HW255465   5.156   5.528   2.590  0.1775 -1.4459 -0.0806
45825SOL     OW55466   2.411   9.803   6.602 -0.1920  0.2532  0.5357
45825SOL    HW155467   2.384   9.743   6.671  1.2770  0.4179  1.3001
45825SOL    HW255468   2.351   9.877   6.608 -1.5720 -0.7972  0.0518
45826SOL     OW55469   7.430  13.518   0.118 -0.3207  0.0391 -0.0407
45826SOL    HW155470   7.454  13.557   0.202  0.5747 -0.2005 -0.1683
45826SOL    HW255471   7.447  13.588   0.054  1.4018 -0.5452 -0.2834
45827SOL     OW55472   6.101   8.842  13.995  0.0249  0.5364  0.1659
45827SOL    HW155473   6.050   8.797  13.928 -0.7207 -1.2994  1.8706
45827SOL    HW255474   6.050   8.833  14.075  1.6797  1.1638  1.3651
45828SOL     OW55475   0.891   2.369  13.576  0.6792  0.0169  0.0605
45828SOL    HW155476   0.981   2.380  13.548  1.3175 -0.1056  1.9026
45828SOL    HW255477   0.865   2.456  13.608  1.0095 -0.4792  1.7864
45829SOL     OW55478   7.386   5.718   8.837 -0.0560  0.0003 -0.1618
45829SOL    HW155479   7.314   5.749   8.783 -0.3055  1.0036  0.7160
45829SOL    HW255480   7.465   5.746   8.791 -0.2684  0.8841 -0.0120
45830SOL     OW55481   2.099  10.048   2.128  0.0230 -0.1855  0.0790
45830SOL    HW155482   2.164  10.061   2.059  0.9164 -0.4111  0.8692
45830SOL    HW255483   2.026  10.104   2.102  1.2764  1.5633  0.1809
45831SOL     OW55484   5.155   6.414  11.177 -0.9471  0.3124  0.2724
45831SOL    HW155485   5.189   6.374  11.097 -0.3954  0.8390  0.2401
45831SOL    HW255486   5.192   6.502  11.178 -0.2392  0.0317  1.5319
45832SOL     OW55487   8.484  10.532   1.866  0.1906  0.0744 -0.0065
45832SOL    HW155488   8.450  10.461   1.919 -1.9567  0.6731 -0.5155
45832SOL    HW255489   8.456  10.512   1.776 -2.5630  2.6331  0.1374
45833SOL     OW55490   1.244   0.720  12.605 -0.0978 -0.9355  0.4568
45833SOL    HW155491   1.215   0.767  12.683  0.3579  1.2814 -0.6398
45833SOL    HW255492   1.163   0.694  12.561 -0.4325  0.7995 -0.0199
45834SOL     OW55493   9.007   7.735   1.954 -0.0307  0.2933  0.3463
45834SOL    HW155494   8.942   7.806   1.954 -1.1691 -0.7064  1.3141
45834SOL    HW255495   9.071   7.761   1.888 -0.6375  2.0223  0.3961
45835SOL     OW55496  12.763   9.628   1.688 -0.0375  0.2715 -0.2873
45835SOL    HW155497  12.827   9.590   1.628  0.8484 -0.6683  1.1783
45835SOL    HW255498  12.740   9.556   1.747  0.8647  1.6833  1.9190
45836SOL     OW55499   1.670   0.706  10.373  0.2108 -0.0999  1.1569
45836SOL    HW155500   1.678   0.732  10.464  1.1390 -0.1556  1.0949
45836SOL    HW255501   1.575   0.709  10.356  0.1576  1.9467  1.5172
45837SOL     OW55502  10.437   6.978   8.309  0.0738 -0.2957 -1.1233
45837SOL    HW155503  10.375   7.035   8.265  0.0580 -0.8180 -1.8001
45837SOL    HW255504  10.523   7.015   8.288  0.0075  1.1484  0.8166
45838SOL     OW55505   1.033   9.607  13.751  0.2507  0.0393 -0.0969
45838SOL    HW155506   0.943   9.607  13.785 -0.0010 -1.9973 -0.6431
45838SOL    HW255507   1.028   9.661  13.672 -0.2382  0.7990  0.4353
45839SOL     OW55508  10.220  13.637   7.307 -0.2178  0.2727 -0.0206
45839SOL    HW155509  10.126  13.638   7.325  0.1096 -0.7073  2.0092
45839SOL    HW255510  10.247  13.728   7.317 -0.6997  0.3202  1.0095
45840SOL     OW55511   1.995  13.039   9.421 -0.6116  0.4112 -0.1923
45840SOL    HW155512   1.918  13.043   9.364 -2.0694  0.2793  1.6625
45840SOL    HW255513   1.990  12.953   9.463  0.2732  0.5882  0.3128
45841SOL     OW55514  12.661  13.096   1.148  0.8105  0.5193 -0.6996
45841SOL    HW155515  12.596  13.165   1.146  0.2324 -0.0302 -1.2587
45841SOL    HW255516  12.701  13.098   1.061 -0.2655 -0.8247 -1.2556
45842SOL     OW55517   5.478   3.306  11.749  0.1849  0.4367  0.5596
45842SOL    HW155518   5.430   3.355  11.683 -0.5009  0.6826  1.2233
45842SOL    HW255519   5.506   3.226  11.705 -1.3124  0.0264  0.2911
45843SOL     OW55520   3.918   1.946   5.127 -0.0487  0.3692  0.2111
45843SOL    HW155521   3.968   1.901   5.194 -1.3615  0.0332  1.0029
45843SOL    HW255522   3.970   2.023   5.105  1.2403 -0.4576  0.3100
45844SOL     OW55523  13.306   8.821   7.257 -0.1278  0.0939  0.0894
45844SOL    HW155524  13.212   8.842   7.258  0.1989  1.6946 -0.4108
45844SOL    HW255525  13.310   8.732   7.221 -1.4365  0.0402  0.0313
45845SOL     OW55526   0.413   8.203   7.947 -0.2316  0.0401 -0.2030
45845SOL    HW155527   0.409   8.285   7.995  0.7619  0.0852 -0.1754
45845SOL    HW255528   0.499   8.204   7.905 -0.0635 -1.1446  0.0879
45846SOL     OW55529  11.290   6.806   6.721 -0.0087 -0.3619  0.5006
45846SOL    HW155530  11.337   6.748   6.781  0.4404 -0.4838  0.0365
45846SOL    HW255531  11.358   6.841   6.663 -0.2186  0.9371  1.0145
45847SOL     OW55532   9.610  12.463  11.339 -0.2392  0.4702  0.7206
45847SOL    HW155533   9.625  12.510  11.257  1.7767  0.9260  1.2843
45847SOL    HW255534   9.522  12.488  11.365  0.3002  3.0064  0.3690
45848SOL     OW55535   2.419   0.602   0.570  0.4484 -0.2253 -0.0421
45848SOL    HW155536   2.360   0.608   0.644 -0.0835  1.1713 -0.5449
45848SOL    HW255537   2.504   0.580   0.609 -0.0784 -0.7994  0.8262
45849SOL     OW55538   0.291   2.080  10.341 -0.0017 -0.4293 -0.3618
45849SOL    HW155539   0.248   1.996  10.329 -0.6431 -0.2887  0.8026
45849SOL    HW255540   0.235   2.143  10.297 -1.9824 -0.0082  2.5103
45850SOL     OW55541   7.558   7.478   0.068  0.2707 -0.6821 -0.3456
45850SOL    HW155542   7.523   7.390   0.059 -1.9696  0.1500 -0.3153
45850SOL    HW255543   7.507   7.531   0.007  0.3353  0.9066  0.9064
45851SOL     OW55544   1.052   8.056   4.686 -0.0731  0.0361 -0.4679
45851SOL    HW155545   1.095   8.009   4.757  0.3517  0.6826 -0.2912
45851SOL    HW255546   1.113   8.050   4.612  0.2588  0.8125 -0.2653
45852SOL     OW55547  13.346   4.989  10.939 -0.1712  0.0632 -0.6222
45852SOL    HW155548  13.416   4.956  10.883 -1.7502 -1.5556 -1.7502
45852SOL    HW255549  13.354   5.084  10.935  1.4498 -0.0860 -1.3546
45853SOL     OW55550   1.985  12.313   8.249 -0.3924  0.2160 -0.1867
45853SOL    HW155551   2.045  12.277   8.183 -0.1060 -2.4810  1.3557
45853SOL    HW255552   1.899  12.282   8.221 -0.5192  0.6603 -0.2823
45854SOL     OW55553   0.050  10.170   1.421  0.3264  0.2397  0.6228
45854SOL    HW155554  -0.007  10.233   1.378 -0.0829  0.5942  1.6430
45854SOL    HW255555  -0.009  10.111   1.467  0.6769 -1.3913 -0.9498
45855SOL     OW55556  11.344   9.073   3.752 -0.0901  0.7513  0.2736
45855SOL    HW155557  11.390   9.036   3.676  0.9530  0.9967  0.7843
45855SOL    HW255558  11.253   9.044   3.740  0.0143  0.9282 -1.1601
45856SOL     OW55559   9.990   0.756   1.128  0.0062  0.3470  0.4133
45856SOL    HW155560   9.998   0.776   1.035  0.5588  2.5719  0.8928
45856SOL    HW255561  10.065   0.700   1.147  0.0975  0.1870 -0.3807
45857SOL     OW55562   8.010   9.064  11.539  0.0840 -0.5233 -0.2669
45857SOL    HW155563   8.097   9.101  11.551  0.6915 -1.8367 -0.4012
45857SOL    HW255564   7.955   9.138  11.513  1.2795  0.2257 -0.7223
45858SOL     OW55565  10.648   2.449  13.539 -0.0020  0.1405  0.2429
45858SOL    HW155566  10.582   2.419  13.602  0.1557 -0.0054  0.3386
45858SOL    HW255567  10.711   2.377  13.534 -2.4724 -2.0974 -3.7303
45859SOL     OW55568  12.669   5.943   8.210  0.0887  0.0972  0.0412
45859SOL    HW155569  12.665   6.015   8.273 -2.5009  0.4691 -0.4330
45859SOL    HW255570  12.583   5.900   8.217  0.5232 -1.1786 -1.7200
45860SOL     OW55571  13.174  12.507   3.403  0.2823 -0.0763  0.0296
45860SOL    HW155572  13.121  12.438   3.364  1.8196 -0.8640 -0.7543
45860SOL    HW255573  13.189  12.569   3.332  1.8098 -0.7390 -0.2689
45861SOL     OW55574  13.911   1.528  12.161 -0.5251  0.5142 -0.1776
45861SOL    HW155575  13.881   1.615  12.137  2.2574  1.0212 -2.3115
45861SOL    HW255576  14.004   1.539  12.181 -0.5966 -1.6275  1.6803
45862SOL     OW55577   2.126   4.076   8.387 -0.0978  0.1046 -0.4809
45862SOL    HW155578   2.071   4.150   8.361 -1.3444 -1.0938 -1.3363
45862SOL    HW255579   2.079   4.035   8.460  1.1302  0.7439  0.7363
45863SOL     OW55580   0.533   1.168   1.319 -0.4795  0.2635 -0.6316
45863SOL    HW155581   0.501   1.179   1.229 -0.5774  0.7827 -0.5332
45863SOL    HW255582   0.460   1.127   1.365 -0.4859  0.1404 -0.7498
45864SOL     OW55583   1.868  13.663  10.334  0.0536  0.0219  0.4269
45864SOL    HW155584   1.794  13.680  10.276 -0.6069 -0.0346  1.2194
45864SOL    HW255585   1.940  13.712  10.296 -0.5704  0.6364  0.0006
45865SOL     OW55586  10.931  10.609  10.639 -0.0124  0.4133  0.0655
45865SOL    HW155587  10.839  10.618  10.666  0.0740  0.8115  0.2446
45865SOL    HW255588  10.940  10.670  10.566  0.2516  0.8053  0.4206
45866SOL     OW55589   6.716   6.656   0.247  0.3137  0.0631  0.2673
45866SOL    HW155590   6.759   6.622   0.325  0.0132  0.1424  0.4636
45866SOL    HW255591   6.787   6.661   0.182  0.0407 -2.7155 -0.3676
45867SOL     OW55592   6.749   9.945  11.251 -0.3064 -0.2072 -0.5487
45867SOL    HW155593   6.659   9.977  11.244 -0.5245 -0.5726  0.4358
45867SOL    HW255594   6.791   9.976  11.171 -0.7201  1.8313 -0.0357
45868SOL     OW55595   0.380  13.160   4.544  0.2795 -0.3396  0.4400
45868SOL    HW155596   0.356  13.253   4.547  0.0002 -0.3100 -1.5035
45868SOL    HW255597   0.471  13.160   4.514 -0.0493 -0.6992 -0.6061
45869SOL     OW55598   5.204  13.138   6.905 -0.3838 -0.0899  0.1249
45869SOL    HW155599   5.261  13.193   6.851  0.8692  0.2661  1.6897
45869SOL    HW255600   5.244  13.142   6.992 -2.8447  0.1593  1.3195
45870SOL     OW55601   9.301   6.524   6.256  0.5498  0.2582  0.1904
45870SOL    HW155602   9.330   6.614   6.273 -0.0042  0.9589 -2.1739
45870SOL    HW255603   9.207   6.526   6.274  0.3545  0.4429 -0.7938
45871SOL     OW55604   8.114   1.087  10.297 -0.4485 -0.1564  0.1378
45871SOL    HW155605   8.023   1.100  10.272 -0.1887  1.8472  0.0476
45871SOL    HW255606   8.154   1.042  10.223 -0.9019  0.8963 -0.7761
45872SOL     OW55607  12.551  13.506   3.106 -0.1371  0.4423  0.4416
45872SOL    HW155608  12.494  13.441   3.066  1.5290 -0.5105 -0.4942
45872SOL    HW255609  12.503  13.535   3.184 -1.2627 -1.3551  0.4807
45873SOL     OW55610   1.538   4.125   2.265 -0.3631  0.0146  0.3228
45873SOL    HW155611   1.558   4.154   2.354  1.5197  3.0773 -0.9584
45873SOL    HW255612   1.609   4.065   2.243 -1.9647 -2.4744  1.4903
45874SOL     OW55613   9.019   9.184   3.777  0.1207 -0.3086  0.2530
45874SOL    HW155614   8.978   9.205   3.693 -1.6142 -0.2857  1.0716
45874SOL    HW255615   8.957   9.215   3.843  1.3846 -0.4450  1.5672
45875SOL     OW55616   6.711   5.857  13.536 -0.0884 -0.1790 -0.2034
45875SOL    HW155617   6.676   5.940  13.505  0.9041  1.1371  1.9366
45875SOL    HW255618   6.802   5.856  13.505  0.8243  1.0171  2.1586
45876SOL     OW55619   7.776   8.196   3.501 -0.2890 -0.6416 -0.1865
45876SOL    HW155620   7.843   8.264   3.490 -0.9881  0.2999  1.0616
45876SOL    HW255621   7.695   8.245   3.514 -1.0866 -1.7614 -0.8353
45877SOL     OW55622   1.660   1.898   6.133 -0.0479  0.2100 -0.5197
45877SOL    HW155623   1.637   1.940   6.215  2.1703  1.4793 -0.4710
45877SOL    HW255624   1.598   1.825   6.125 -0.0273 -0.2634  2.4900
45878SOL     OW55625   5.651   8.632   7.607 -0.5426  0.1465  0.0983
45878SOL    HW155626   5.599   8.663   7.681 -1.3949  0.2219 -0.5248
45878SOL    HW255627   5.668   8.711   7.555 -2.2642 -0.2885 -1.2096
45879SOL     OW55628  13.592   3.033   1.310 -0.3209  0.2969 -0.1077
45879SOL    HW155629  13.502   3.002   1.323  0.3526 -1.8948 -0.1982
45879SOL    HW255630  13.610   3.019   1.217  0.1423  0.6341 -0.0742
45880SOL     OW55631   9.536   7.774  11.269 -0.2070  0.4401  0.2126
45880SOL    HW155632   9.630   7.790  11.275  0.3325 -2.2885  0.6551
45880SOL    HW255633   9.521   7.700  11.328 -2.3128 -0.3197 -1.1662
45881SOL     OW55634   5.279   4.884   7.351 -0.0713  0.6247  0.0622
45881SOL    HW155635   5.329   4.848   7.278 -1.0557  0.0756 -0.3556
45881SOL    HW255636   5.206   4.930   7.310 -1.1403 -0.4369  0.6972
45882SOL     OW55637   1.690   9.211   0.964 -0.3839 -0.3583  0.1696
45882SOL    HW155638   1.629   9.143   0.935 -1.4667  0.9472 -0.7433
45882SOL    HW255639   1.776   9.178   0.939 -0.9153 -1.2471 -0.5406
45883SOL     OW55640   1.919   8.667  13.760 -0.9905  0.2449 -0.2523
45883SOL    HW155641   1.870   8.596  13.720  0.0901 -0.8240  0.2368
45883SOL    HW255642   1.892   8.667  13.852 -0.2189 -0.2703 -0.0072
45884SOL     OW55643  12.429  11.122   8.558  0.2685  0.3875 -0.2813
45884SOL    HW155644  12.337  11.115   8.584  0.0364  0.5482 -1.0271
45884SOL    HW255645  12.477  11.068   8.621 -0.3192  0.4301  0.2060
45885SOL     OW55646  13.471   3.804   7.213 -0.1953  0.3540  0.1612
45885SOL    HW155647  13.478   3.717   7.174  0.7385  0.6409 -0.3301
45885SOL    HW255648  13.378   3.813   7.234 -0.6865  0.0631 -1.7159
45886SOL     OW55649   9.064   5.298  11.504 -0.1964 -0.6427 -0.4167
45886SOL    HW155650   9.102   5.383  11.480 -0.0163  0.0012  1.8669
45886SOL    HW255651   8.984   5.293  11.452 -1.0811  1.7469  0.5549
45887SOL     OW55652  10.993  13.662  11.291 -0.4192  0.0773  0.5470
45887SOL    HW155653  11.036  13.588  11.334 -0.4851  0.6237  1.5913
45887SOL    HW255654  10.936  13.622  11.225 -0.2277 -0.7855  0.8959
45888SOL     OW55655  13.119   5.871   1.296  0.2052 -0.2373  0.1523
45888SOL    HW155656  13.073   5.863   1.380  1.7395 -1.6013  0.9210
45888SOL    HW255657  13.061   5.923   1.242  0.9712  4.6480  3.3995
45889SOL     OW55658   5.168  13.444  12.753 -0.1908  0.1728 -0.2041
45889SOL    HW155659   5.205  13.444  12.841 -0.7664  4.5048  0.2196
45889SOL    HW255660   5.080  13.480  12.763 -0.1405  1.1466 -2.5684
45890SOL     OW55661   2.767  14.009   8.056  0.3967  0.3169  0.2123
45890SOL    HW155662   2.764  13.921   8.095 -1.3034  0.2818  0.0542
45890SOL    HW255663   2.763  13.993   7.962  2.7861  0.4830  0.0295
45891SOL     OW55664   3.901  11.626  10.675  0.1416  0.3694  0.2331
45891SOL    HW155665   3.893  11.714  10.711  2.3540 -0.3252  2.7481
45891SOL    HW255666   3.851  11.571  10.735  0.0953 -0.2742 -0.3857
45892SOL     OW55667  13.264   2.414   8.523  0.4486  0.2897 -0.1900
45892SOL    HW155668  13.345   2.463   8.512  0.2924  0.6551  0.2499
45892SOL    HW255669  13.280   2.357   8.598  0.6455 -0.3757 -0.7289
45893SOL     OW55670  12.626   2.536   0.104 -0.3231  0.0760  0.5014
45893SOL    HW155671  12.538   2.572   0.112  0.5714  2.3176  1.3891
45893SOL    HW255672  12.638   2.520   0.011 -1.2962  0.8297  0.2331
45894SOL     OW55673  12.220   4.676   0.099  0.1454  0.0188 -0.2745
45894SOL    HW155674  12.180   4.608   0.154  0.6649  0.1929  0.3370
45894SOL    HW255675  12.260   4.627   0.027  1.6196 -0.4979  0.8236
45895SOL     OW55676   8.446   7.862  13.723  0.7562  0.0505 -0.6157
45895SOL    HW155677   8.352   7.871  13.708  0.1766 -1.8408  1.3594
45895SOL    HW255678   8.470   7.940  13.772  0.0092  0.1022 -0.3166
45896SOL     OW55679   6.364   5.911   0.471  0.2468 -0.1668  0.0104
45896SOL    HW155680   6.388   6.004   0.469 -0.6030  0.0694  0.3396
45896SOL    HW255681   6.290   5.904   0.410 -0.4138 -0.3979  0.8139
45897SOL     OW55682   8.858   0.059   2.263  0.2273  0.3035 -0.7152
45897SOL    HW155683   8.883   0.066   2.171  1.5642 -1.2622 -0.5105
45897SOL    HW255684   8.840  -0.035   2.276  2.1961  0.1048  1.0998
45898SOL     OW55685   4.509   3.582  13.246 -0.0199  0.3089  0.0350
45898SOL    HW155686   4.552   3.597  13.330 -0.5586  0.2104  0.3279
45898SOL    HW255687   4.547   3.649  13.188 -0.9732  1.5771  0.8222
45899SOL     OW55688   2.832  11.571   2.396  0.5120 -0.3265 -0.5481
45899SOL    HW155689   2.765  11.638   2.413  0.2903 -0.3707 -1.2214
45899SOL    HW255690   2.856  11.539   2.483  1.7630  1.7261 -0.0568
45900SOL     OW55691   5.287   4.454   7.023  0.0660 -0.1247  0.3031
45900SOL    HW155692   5.299   4.393   6.951 -0.0641 -1.0938  1.0832
45900SOL    HW255693   5.206   4.425   7.066 -0.5665  1.2243  0.0874
45901SOL     OW55694   3.992   9.518  12.340 -0.2501  0.4369 -0.7405
45901SOL    HW155695   3.934   9.487  12.270 -1.7812  0.0203  0.6510
45901SOL    HW255696   3.999   9.613  12.326 -1.3082  0.4964 -0.9209
45902SOL     OW55697   8.273  12.810   7.564  0.3210  0.3316 -0.1459
45902SOL    HW155698   8.200  12.872   7.571 -1.1175 -1.3306  0.4754
45902SOL    HW255699   8.324  12.842   7.490 -0.7495  1.8439 -0.2966
45903SOL     OW55700   4.182   9.037   0.287  0.2428 -0.2340  0.0150
45903SOL    HW155701   4.133   9.068   0.212 -1.0901  1.1709  1.3818
45903SOL    HW255702   4.157   8.946   0.297 -1.6729  0.2888  0.3067
45904SOL     OW55703   5.604   3.157  12.295 -0.0529  0.0633 -0.9947
45904SOL    HW155704   5.689   3.200  12.301  0.5541 -1.2539  0.2566
45904SOL    HW255705   5.618   3.069  12.330 -1.8885 -0.2580 -0.9472
45905SOL     OW55706   5.729   8.464   9.494  0.1847 -0.0990  0.0279
45905SOL    HW155707   5.741   8.443   9.401 -0.0540 -0.7339  0.1333
45905SOL    HW255708   5.634   8.470   9.505  0.1636 -1.0462  0.4413
45906SOL     OW55709   8.649   8.385   4.689 -0.3558  0.5023 -0.6115
45906SOL    HW155710   8.615   8.473   4.702 -0.5160  0.2581  0.7568
45906SOL    HW255711   8.578   8.338   4.646 -0.8670  0.6217  0.0919
45907SOL     OW55712   9.186   8.522  10.190  0.7561 -0.0203  0.2970
45907SOL    HW155713   9.276   8.550  10.175 -0.1583  1.8328 -2.8107
45907SOL    HW255714   9.187   8.428  10.172  2.4801 -0.7105  3.2491
45908SOL     OW55715   0.437  10.757   3.396  0.2705  0.1985  0.4604
45908SOL    HW155716   0.400  10.690   3.339  1.9565 -0.5737  0.2042
45908SOL    HW255717   0.461  10.828   3.337 -0.1084  0.3848  0.5277
45909SOL     OW55718   9.832  13.093   9.999  0.8013 -0.2991  0.4420
45909SOL    HW155719   9.863  13.043   9.924  0.5863  0.3341 -0.0797
45909SOL    HW255720   9.830  13.184   9.968  1.8695  0.1440  1.5865
45910SOL     OW55721   7.869  10.746  10.110 -0.1242 -0.1854  0.2776
45910SOL    HW155722   7.920  10.670  10.082 -1.5338 -1.2560  0.5027
45910SOL    HW255723   7.783  10.732  10.071  0.0125  2.1316 -1.0229
45911SOL     OW55724   4.847   4.424   4.126 -0.0201  0.3307 -0.8688
45911SOL    HW155725   4.789   4.480   4.075 -0.7581  0.3426 -0.0305
45911SOL    HW255726   4.794   4.394   4.200  0.8642 -0.1217 -0.3938
45912SOL     OW55727  13.277   5.069   0.087 -0.4655  0.1689  0.2828
45912SOL    HW155728  13.195   5.109   0.059 -0.7278  1.3048  2.3749
45912SOL    HW255729  13.335   5.076   0.011 -1.4589  1.9023 -0.3786
45913SOL     OW55730  10.669   4.845   8.553 -0.2354  0.4751 -0.8502
45913SOL    HW155731  10.623   4.765   8.579 -0.4666  0.6407 -0.7461
45913SOL    HW255732  10.762   4.826   8.569 -0.4424  0.9454  1.1571
45914SOL     OW55733   1.117   8.522  10.426  0.8415 -0.0197 -0.4088
45914SOL    HW155734   1.080   8.607  10.449  1.1103 -0.2233  0.9144
45914SOL    HW255735   1.148   8.487  10.510  1.2177 -1.1861 -1.0147
45915SOL     OW55736   9.499  11.833  10.033  0.3793  0.5092  0.0570
45915SOL    HW155737   9.435  11.766  10.056  1.7729 -0.3098  1.8516
45915SOL    HW255738   9.534  11.862  10.118  0.1326  3.2305 -0.6782
45916SOL     OW55739   8.479  10.427  14.062  0.0215  0.2811  0.0806
45916SOL    HW155740   8.544  10.423  14.132  2.3114  3.8349 -1.5397
45916SOL    HW255741   8.524  10.390  13.986  1.0911  4.2261 -1.4671
45917SOL     OW55742  13.176   1.168   5.285 -0.0579  0.2248 -0.0272
45917SOL    HW155743  13.240   1.232   5.314 -0.7902 -0.3401  3.2102
45917SOL    HW255744  13.093   1.216   5.285 -0.3116 -0.2093  0.4442
45918SOL     OW55745   6.543   9.925  11.548  0.2630  0.1276  0.2456
45918SOL    HW155746   6.507   9.887  11.468 -0.5795 -1.5339  1.3432
45918SOL    HW255747   6.619   9.975  11.519  0.6414 -1.3294 -1.4932
45919SOL     OW55748   4.952   1.490   0.899  0.2868 -0.0007 -0.5817
45919SOL    HW155749   4.946   1.582   0.872  0.2795 -0.0857 -0.8669
45919SOL    HW255750   5.029   1.487   0.955  1.4351 -0.2007 -2.1207
45920SOL     OW55751   2.327  10.609   3.059 -0.3662 -0.0726 -0.2786
45920SOL    HW155752   2.311  10.703   3.057  1.2802  0.2657  0.5947
45920SOL    HW255753   2.295  10.577   2.974 -0.7577  1.2964 -0.6666
45921SOL     OW55754   8.891   8.139   1.314 -0.0637  0.1935  0.4544
45921SOL    HW155755   8.821   8.089   1.355 -1.1160  1.0184 -0.2964
45921SOL    HW255756   8.881   8.121   1.221  1.4808 -0.6128  0.4071
45922SOL     OW55757   4.992  12.982   8.184  0.0333 -0.7877  0.6523
45922SOL    HW155758   5.026  13.071   8.181  1.7808 -1.4408 -1.4078
45922SOL    HW255759   5.056  12.933   8.235 -0.0454 -1.2142  0.3454
45923SOL     OW55760  13.832   7.602   7.619  0.0700 -0.0625  0.1037
45923SOL    HW155761  13.908   7.579   7.566  0.5525 -1.6631  1.4009
45923SOL    HW255762  13.770   7.641   7.557  0.3846 -2.3288 -1.8011
45924SOL     OW55763  12.612   6.173   5.191  0.3892  0.2604 -0.0388
45924SOL    HW155764  12.544   6.168   5.123 -0.6455  0.9761  0.9187
45924SOL    HW255765  12.640   6.264   5.190 -0.5988  0.5986  1.3972
45925SOL     OW55766  12.234   9.654   6.638  0.0033 -0.0650  0.6207
45925SOL    HW155767  12.321   9.627   6.668  0.0131 -1.4155 -0.5112
45925SOL    HW255768  12.244   9.668   6.544 -1.1492 -0.9722  0.3392
45926SOL     OW55769   7.035  10.302   9.881 -0.4991  0.0042  0.0998
45926SOL    HW155770   7.002  10.216   9.855  0.0570 -1.0386  2.5945
45926SOL    HW255771   6.959  10.360   9.872 -1.3041 -1.0472 -0.1361
45927SOL     OW55772   7.530  13.600   3.273  0.1590  0.3476  0.0509
45927SOL    HW155773   7.461  13.536   3.290  0.5122 -0.1950 -0.5211
45927SOL    HW255774   7.562  13.623   3.360 -0.0000 -0.2274  0.2676
45928SOL     OW55775  13.419   5.767  11.029  0.1027  0.3419  0.0168
45928SOL    HW155776  13.505   5.753  11.070 -0.3155  0.1082  0.8417
45928SOL    HW255777  13.356   5.745  11.098 -0.6436 -0.9117 -1.0193
45929SOL     OW55778   7.420   4.920  11.243  0.3236  0.2400 -0.0466
45929SOL    HW155779   7.365   4.883  11.311  0.5108 -0.0644 -0.0631
45929SOL    HW255780   7.366   4.988  11.203  1.2317  2.5833  2.3859
45930SOL     OW55781   1.062   8.124   8.229  0.1608  0.3234 -0.4296
45930SOL    HW155782   1.102   8.090   8.149  1.3280 -0.2918  0.3990
45930SOL    HW255783   0.968   8.107   8.218  0.4607 -1.0600 -1.0557
45931SOL     OW55784   7.899   9.053   9.580 -0.0261  0.3161 -0.2564
45931SOL    HW155785   7.946   9.037   9.498 -0.9295 -1.0014 -0.5548
45931SOL    HW255786   7.808   9.032   9.559 -0.0951 -1.2949  1.3853
45932SOL     OW55787   1.878   9.345  14.053 -0.1413  0.2004  0.0962
45932SOL    HW155788   1.954   9.366  13.998  0.3478  0.6340  0.9168
45932SOL    HW255789   1.882   9.409  14.124 -0.7122 -0.4025  0.6815
45933SOL     OW55790   1.048   5.149  13.029  0.4221 -0.5258  0.2123
45933SOL    HW155791   0.998   5.104  13.096 -1.5955 -0.2427 -0.9986
45933SOL    HW255792   0.982   5.173  12.963  1.9575  1.1535 -0.7880
45934SOL     OW55793   2.977   9.981   3.594  0.0883 -0.2692  0.2439
45934SOL    HW155794   2.992  10.075   3.602 -1.7553  0.1201 -0.2928
45934SOL    HW255795   3.039   9.942   3.656  1.0378  1.2668  0.3310
45935SOL     OW55796   0.400   6.039  10.641 -0.0324 -0.6605  0.8512
45935SOL    HW155797   0.356   6.119  10.669  0.4641 -0.2534  0.4835
45935SOL    HW255798   0.488   6.067  10.616 -0.8811 -0.6404 -2.7532
45936SOL     OW55799   2.853  13.134   0.374 -0.4941  0.2465  0.1749
45936SOL    HW155800   2.816  13.059   0.420 -1.9888  1.0873  0.3770
45936SOL    HW255801   2.820  13.211   0.420 -1.4875  1.1022 -1.8177
45937SOL     OW55802  11.885  11.357   6.040  0.1302  0.0879  0.0220
45937SOL    HW155803  11.961  11.332   6.092 -1.0164  0.1956  1.8397
45937SOL    HW255804  11.891  11.453   6.034  0.5686  0.0281 -0.5586
45938SOL     OW55805   0.285   7.828   8.547  0.5093  0.3929 -0.0858
45938SOL    HW155806   0.228   7.863   8.615  1.8754 -0.0727  1.3676
45938SOL    HW255807   0.297   7.900   8.486 -0.3067  1.0143  0.4653
45939SOL     OW55808   0.331   6.562   7.088  0.0465  0.5102 -0.5369
45939SOL    HW155809   0.274   6.620   7.138  1.4774 -0.9096  3.0592
45939SOL    HW255810   0.407   6.617   7.066  1.3003  0.2400  2.6511
45940SOL     OW55811  11.571   8.631   1.992 -0.0492  0.0049  0.2002
45940SOL    HW155812  11.608   8.669   2.071 -1.1616  0.1521  0.6756
45940SOL    HW255813  11.644   8.626   1.931  0.8084 -0.0351  1.2061
45941SOL     OW55814   4.470   7.181   2.504  0.0800 -0.0533  0.0982
45941SOL    HW155815   4.541   7.118   2.515  0.3911  0.2532 -0.1146
45941SOL    HW255816   4.410   7.139   2.442 -0.2672 -0.5969  0.7991
45942SOL     OW55817   2.118   2.844  13.644  0.1052  0.8935  0.5669
45942SOL    HW155818   2.204   2.886  13.646 -0.1233  1.4327 -0.2469
45942SOL    HW255819   2.081   2.870  13.559 -0.7175  0.3860  0.7611
45943SOL     OW55820  12.954   3.247   6.591 -0.0402  0.4095 -1.0382
45943SOL    HW155821  13.015   3.188   6.547  0.0126 -1.1272  0.9396
45943SOL    HW255822  12.976   3.334   6.558  1.4984 -0.3971 -2.2599
45944SOL     OW55823   9.982   1.964  11.289 -0.2083  0.4056  0.0802
45944SOL    HW155824   9.909   1.952  11.351  0.2038 -0.9352  0.3378
45944SOL    HW255825  10.060   1.937  11.339  0.2620  0.3585 -0.6714
45945SOL     OW55826  13.959  12.951  12.622 -0.0456  0.6730 -0.7288
45945SOL    HW155827  13.865  12.964  12.605  0.0154  0.9983 -0.8338
45945SOL    HW255828  13.965  12.943  12.717 -0.2935 -0.3562 -0.7939
45946SOL     OW55829   6.218   7.703   0.850 -0.1372 -0.1787 -0.0267
45946SOL    HW155830   6.187   7.625   0.805 -0.2838 -0.0357 -0.1802
45946SOL    HW255831   6.226   7.678   0.941 -0.7732 -0.2037  0.0279
45947SOL     OW55832   8.867   9.415   6.763 -0.4925 -0.0144 -0.0858
45947SOL    HW155833   8.952   9.460   6.765 -0.5001 -0.0067  0.5321
45947SOL    HW255834   8.828   9.440   6.680  0.7851 -1.2831 -1.1245
45948SOL     OW55835   2.902  11.848   5.354 -0.0166 -0.2215 -0.2894
45948SOL    HW155836   2.922  11.758   5.382  1.7259  0.1980 -0.0958
45948SOL    HW255837   2.833  11.876   5.415  0.8422 -0.7384  0.9623
45949SOL     OW55838   3.661  11.990   3.405 -0.4285  0.3156  0.0992
45949SOL    HW155839   3.685  12.083   3.405 -1.1123  0.5019 -0.0675
45949SOL    HW255840   3.740  11.945   3.435  0.4569  0.8058 -1.4104
45950SOL     OW55841   9.967   8.164  12.106  0.0780  0.6347  0.3315
45950SOL    HW155842   9.919   8.193  12.183  0.1420  1.5742  0.0246
45950SOL    HW255843   9.899   8.131  12.046 -0.0783  0.9572  0.3322
45951SOL     OW55844   8.844   2.675   5.608  0.3461 -0.1876 -0.5451
45951SOL    HW155845   8.845   2.728   5.528  1.0025 -0.6665 -0.8640
45951SOL    HW255846   8.765   2.703   5.654  0.7932  1.2381 -0.5815
45952SOL     OW55847  11.802   7.223   8.960 -0.2494  0.2481  0.4339
45952SOL    HW155848  11.717   7.198   8.924 -0.1785  1.5007 -0.6849
45952SOL    HW255849  11.864   7.159   8.924 -0.5908 -0.1773  0.5959
45953SOL     OW55850  13.764   5.997   1.418  0.2051 -0.4747  0.8878
45953SOL    HW155851  13.825   5.933   1.453  0.2013 -0.1050  1.5792
45953SOL    HW255852  13.682   5.949   1.405  0.8653 -1.1978 -0.8918
45954SOL     OW55853   7.117  13.409   6.766  0.0538  0.6133  0.1311
45954SOL    HW155854   7.131  13.488   6.713  1.1880  0.6923  0.5283
45954SOL    HW255855   7.140  13.337   6.707 -2.1019  0.4522 -0.6291
45955SOL     OW55856   2.402   0.871   0.467  0.0894 -0.1235 -0.0665
45955SOL    HW155857   2.395   0.791   0.519  1.1793  0.2699  0.7408
45955SOL    HW255858   2.492   0.901   0.482 -0.0891  0.8946 -0.8925
45956SOL     OW55859   6.101  10.031  10.591  0.0752 -0.5508 -0.4739
45956SOL    HW155860   6.087  10.067  10.679  1.1153 -1.4621  0.0965
45956SOL    HW255861   6.100  10.107  10.533 -2.0784 -0.0676  0.1070
45957SOL     OW55862   3.172  13.442   6.316 -0.0635 -0.0488 -0.1582
45957SOL    HW155863   3.096  13.477   6.270  0.1487  0.7730  0.0882
45957SOL    HW255864   3.224  13.520   6.337  0.0993 -0.4506  0.9897
45958SOL     OW55865  13.341  12.465  10.385  0.4465  0.4992 -0.6387
45958SOL    HW155866  13.270  12.402  10.371  0.8678 -0.0220 -0.4272
45958SOL    HW255867  13.418  12.424  10.348  0.8865  0.5434  0.2057
45959SOL     OW55868  11.118   4.939   5.407 -0.0137  0.2932  0.0032
45959SOL    HW155869  11.097   5.002   5.476 -2.3659 -1.4637  1.0470
45959SOL    HW255870  11.063   4.964   5.333  0.0421  0.2558 -0.0516
45960SOL     OW55871   5.177  10.625   1.877 -0.4292 -0.2336  0.0217
45960SOL    HW155872   5.188  10.677   1.797 -0.0375  2.9947  1.9817
45960SOL    HW255873   5.264  10.623   1.916 -1.0543  0.4657  1.5360
45961SOL     OW55874  11.493   8.520  12.493 -0.3591  0.1758 -0.1958
45961SOL    HW155875  11.518   8.428  12.501 -0.7928  0.0032 -0.7756
45961SOL    HW255876  11.426   8.532  12.560  1.4054  0.7230  1.5947
45962SOL     OW55877   3.644   1.080  13.138 -0.1600 -0.8179  0.4163
45962SOL    HW155878   3.667   1.123  13.056 -0.9500  0.7905  0.9861
45962SOL    HW255879   3.718   1.098  13.196  0.3880 -1.9342  0.0851
45963SOL     OW55880   6.295   0.814  12.447 -0.2035 -0.3722 -0.3075
45963SOL    HW155881   6.243   0.759  12.506 -0.2840  0.1332  0.0995
45963SOL    HW255882   6.326   0.754  12.379  2.6211 -1.6771  1.9509
45964SOL     OW55883   0.235   6.024  13.258 -0.6121  0.3672  0.1960
45964SOL    HW155884   0.288   6.068  13.324 -0.1283  0.0899 -0.0052
45964SOL    HW255885   0.237   6.084  13.183  0.2252 -0.0854 -0.1548
45965SOL     OW55886  13.132   0.658  12.022 -1.0279  0.2088  0.1599
45965SOL    HW155887  13.164   0.592  11.960 -1.1154  1.1622 -0.9501
45965SOL    HW255888  13.194   0.731  12.013 -2.6530  1.5354 -1.0053
45966SOL     OW55889  10.948  12.337   4.998  0.0060 -0.3692 -0.4366
45966SOL    HW155890  10.893  12.258   4.993 -1.3809  0.5284  0.0786
45966SOL    HW255891  10.937  12.369   5.087  1.3325 -0.1096 -0.3468
45967SOL     OW55892  11.785   0.441  12.005 -0.0955 -0.7224 -0.2710
45967SOL    HW155893  11.769   0.533  12.029  0.8895 -0.0333 -2.0557
45967SOL    HW255894  11.766   0.437  11.912 -0.9483 -2.5788 -0.0645
45968SOL     OW55895   7.204   8.696   2.470  0.0974  0.0437  0.1726
45968SOL    HW155896   7.298   8.680   2.479  0.1402 -0.8679 -1.5975
45968SOL    HW255897   7.164   8.610   2.476 -0.4228  0.1667 -1.2073
45969SOL     OW55898   4.062   8.836   4.803  0.1244  0.6402 -0.1758
45969SOL    HW155899   4.020   8.914   4.837 -0.1750  0.9672 -1.2662
45969SOL    HW255900   4.125   8.868   4.739  0.6790  0.0368  0.0493
45970SOL     OW55901   6.671  10.363   3.508 -0.4409  0.1599 -0.3073
45970SOL    HW155902   6.613  10.439   3.512 -1.0093  0.0630 -3.6437
45970SOL    HW255903   6.716  10.362   3.593 -2.4053  2.5556  0.8869
45971SOL     OW55904  12.669   3.732   1.518 -0.1592 -0.0378  0.0992
45971SOL    HW155905  12.695   3.668   1.451 -0.3092  0.4547 -0.4384
45971SOL    HW255906  12.711   3.814   1.490 -0.5276  0.2577  0.4066
45972SOL     OW55907   1.030   0.838   7.952 -0.2050 -0.1323 -0.2463
45972SOL    HW155908   1.001   0.912   8.005  0.8978  0.3501 -0.2727
45972SOL    HW255909   1.058   0.877   7.870 -1.8234 -0.8681 -1.1886
45973SOL     OW55910  12.312   6.756   4.611 -0.2343  0.6436 -0.2749
45973SOL    HW155911  12.310   6.685   4.547 -0.9239  0.8035 -0.4362
45973SOL    HW255912  12.223   6.759   4.647  0.8692 -1.8131  3.3058
45974SOL     OW55913   1.199   7.911   5.295  0.5899 -0.0911 -0.0109
45974SOL    HW155914   1.105   7.904   5.284  0.3505 -0.8546  2.1214
45974SOL    HW255915   1.224   7.985   5.240 -1.4773  1.0894  0.5331
45975SOL     OW55916   8.215   6.461  13.248  0.5769  0.1232 -0.2681
45975SOL    HW155917   8.237   6.554  13.243 -3.3406  1.1191 -2.8884
45975SOL    HW255918   8.233   6.427  13.161 -1.3632 -0.6350 -0.4197
45976SOL     OW55919   1.243   2.940   1.779 -0.3794  0.0344 -0.1272
45976SOL    HW155920   1.277   2.921   1.692 -0.3762  1.2199 -0.3951
45976SOL    HW255921   1.310   2.907   1.839 -0.4040 -0.8251 -0.5637
45977SOL     OW55922  10.942   5.508   8.774 -0.1042  0.3743  0.4596
45977SOL    HW155923  10.868   5.509   8.714  0.1230  1.7717  0.1625
45977SOL    HW255924  10.934   5.425   8.821 -1.8501  0.4925  0.4326
45978SOL     OW55925   8.602  13.836  13.179 -0.5638 -0.1904 -0.5091
45978SOL    HW155926   8.612  13.900  13.249 -2.8731 -0.9912  0.6390
45978SOL    HW255927   8.686  13.790  13.176 -0.3123  0.0502  1.5491
45979SOL     OW55928   0.275   1.837   2.304 -0.0601 -0.7286  0.0134
45979SOL    HW155929   0.209   1.874   2.245  1.6569 -1.6319 -2.6136
45979SOL    HW255930   0.341   1.905   2.312 -0.6230 -0.3117  1.6372
45980SOL     OW55931   6.960   7.995   4.426  0.1205 -0.4369 -0.8821
45980SOL    HW155932   7.016   8.045   4.367  0.0998 -0.6895 -1.1178
45980SOL    HW255933   6.997   8.011   4.513  1.5777 -1.9142 -1.1907
45981SOL     OW55934   7.444   8.922   9.552  0.4061 -0.0423 -0.3620
45981SOL    HW155935   7.438   8.826   9.554  1.7853 -0.1600  1.8047
45981SOL    HW255936   7.356   8.951   9.527 -1.0467 -1.8694  2.1492
45982SOL     OW55937   1.659   7.731   8.470  0.4056 -0.2699 -0.0319
45982SOL    HW155938   1.684   7.780   8.548  3.0595 -0.3373 -0.7448
45982SOL    HW255939   1.700   7.778   8.397  1.5485 -2.5056 -0.9277
45983SOL     OW55940   0.931   7.196  13.440 -0.1585 -0.2049 -0.1350
45983SOL    HW155941   0.864   7.147  13.488 -0.7049 -0.2330 -0.9007
45983SOL    HW255942   0.982   7.129  13.395 -0.1845 -0.1293 -0.2752
45984SOL     OW55943   6.864   8.235   1.437 -0.2886  0.3931  0.0050
45984SOL    HW155944   6.944   8.240   1.489 -0.4462  0.4836  0.2397
45984SOL    HW255945   6.818   8.159   1.473 -1.4956  1.7980  1.5720
45985SOL     OW55946   2.914   9.697  14.137 -0.3515  0.2017  0.1055
45985SOL    HW155947   2.866   9.775  14.163 -1.0876 -0.7282  1.6997
45985SOL    HW255948   2.951   9.719  14.051 -0.8211  2.1462  0.3525
45986SOL     OW55949   1.733   3.947   5.372 -0.4418 -0.0933 -0.4267
45986SOL    HW155950   1.658   3.888   5.370 -0.8223  0.3756 -0.1550
45986SOL    HW255951   1.800   3.903   5.318 -1.3663  0.0981 -1.7755
45987SOL     OW55952   5.334   0.701   3.200 -0.1966  0.2889  0.5282
45987SOL    HW155953   5.245   0.699   3.237  0.1611  1.7058  1.5422
45987SOL    HW255954   5.363   0.610   3.205 -0.5955  0.2192  2.7476
45988SOL     OW55955   5.581   3.528   2.346 -0.2088  0.3845 -0.2710
45988SOL    HW155956   5.637   3.450   2.341  0.3411  0.7170  0.6424
45988SOL    HW255957   5.562   3.538   2.439 -1.7636  0.3057 -0.5523
45989SOL     OW55958   3.882  13.187   4.251 -0.0961 -0.3979 -0.3294
45989SOL    HW155959   3.828  13.149   4.181  0.4060 -3.7935  0.9261
45989SOL    HW255960   3.840  13.158   4.332  0.5735  1.5922  0.8007
45990SOL     OW55961  10.419   3.936   2.793  0.2780  0.1858 -0.4798
45990SOL    HW155962  10.489   3.996   2.767 -0.5615  0.6082 -1.8790
45990SOL    HW255963  10.339   3.977   2.761 -0.4640 -0.9983 -0.2076
45991SOL     OW55964   0.564   4.785   9.861  0.5763 -0.7178  0.7889
45991SOL    HW155965   0.555   4.861   9.919  1.2018  0.9392 -1.1800
45991SOL    HW255966   0.473   4.759   9.843  0.2735  0.7763 -0.0024
45992SOL     OW55967   5.757   1.245   9.084  0.3489  0.5530  0.0953
45992SOL    HW155968   5.731   1.237   9.176  0.2454  0.3118  0.0442
45992SOL    HW255969   5.690   1.197   9.036 -0.1254  1.4566 -0.1813
45993SOL     OW55970  11.917   6.707   0.499  0.3243 -0.4016 -0.0369
45993SOL    HW155971  11.889   6.756   0.421 -0.6228 -0.1163  0.4722
45993SOL    HW255972  12.001   6.745   0.522 -0.5437  1.2282  0.5421
45994SOL     OW55973  10.673   5.554   6.561  0.2725  0.9494  0.5335
45994SOL    HW155974  10.735   5.522   6.626 -0.0607  1.4330  1.0935
45994SOL    HW255975  10.590   5.511   6.584  0.2736  0.6890  0.0844
45995SOL     OW55976  13.916  13.808   0.230  0.9684  0.0044 -0.6640
45995SOL    HW155977  13.836  13.814   0.179  1.6378 -2.2988 -2.1276
45995SOL    HW255978  13.891  13.760   0.309  0.7069  0.2065 -0.6233
45996SOL     OW55979  11.195   5.923   3.709  0.3715 -0.2065 -0.2793
45996SOL    HW155980  11.128   5.914   3.777  0.4701  0.4322 -0.0992
45996SOL    HW255981  11.277   5.903   3.754  0.5627  1.2677  0.0603
45997SOL     OW55982   6.245   0.842   4.454 -0.4569  0.0774  0.3142
45997SOL    HW155983   6.339   0.844   4.439 -0.4535 -0.1014  0.3107
45997SOL    HW255984   6.235   0.839   4.549 -0.4751  1.0382  0.3483
45998SOL     OW55985  12.760   7.308   4.482  0.0423 -0.1891 -0.2300
45998SOL    HW155986  12.829   7.279   4.422  0.2308  1.8285 -1.0526
45998SOL    HW255987  12.748   7.234   4.542  3.6188 -0.3043  0.5971
45999SOL     OW55988  12.985   2.278   8.472  0.8379 -0.5004  0.2141
45999SOL    HW155989  12.971   2.187   8.446  0.0108 -0.4854  0.5686
45999SOL    HW255990  13.080   2.289   8.472  0.9482 -0.3815 -3.1539
46000SOL     OW55991   4.126   6.773   0.155  0.4749  0.7501  0.4261
46000SOL    HW155992   4.034   6.797   0.166  0.2434 -0.0916  0.3723
46000SOL    HW255993   4.123   6.684   0.121  1.3117  0.7817  0.2676
46001SOL     OW55994   7.354  12.766   9.180  0.1412  0.0649  0.0340
46001SOL    HW155995   7.439  12.782   9.139 -0.3236  0.1323 -0.9239
46001SOL    HW255996   7.345  12.836   9.244  1.1928 -0.4529  0.7896
46002SOL     OW55997   7.425  12.510   6.457  0.4299  0.2015  0.6958
46002SOL    HW155998   7.374  12.431   6.477  0.0879  0.4276  0.7183
46002SOL    HW255999   7.370  12.559   6.396  0.1360  0.9773  1.5581
46003SOL     OW56000  11.598   1.454   8.426  0.3009  0.4745  0.2174
46003SOL    HW156001  11.504   1.442   8.439  0.3065 -1.9122 -1.3800
46003SOL    HW256002  11.607   1.476   8.334  1.4345 -3.0195 -0.6618
46004SOL     OW56003   8.370   3.373   3.121 -0.1097 -0.2956 -0.7270
46004SOL    HW156004   8.436   3.399   3.057  0.5110 -0.3255 -0.1149
46004SOL    HW256005   8.418   3.321   3.185 -0.6533 -0.0140 -0.0767
46005SOL     OW56006  10.479  10.618   6.872  0.1889  0.1077  0.1611
46005SOL    HW156007  10.567  10.617   6.834 -0.5670  0.0411 -1.6456
46005SOL    HW256008  10.475  10.700   6.920  1.2271  0.1224  0.2581
46006SOL     OW56009   7.470   1.642   9.349 -0.2933 -0.6413 -0.0793
46006SOL    HW156010   7.387   1.649   9.302 -0.0180 -1.5040 -0.7194
46006SOL    HW256011   7.447   1.649   9.442 -1.1764 -1.6491 -0.2134
46007SOL     OW56012  13.149   1.348   5.896  0.0528 -0.3945  0.3624
46007SOL    HW156013  13.112   1.292   5.964 -0.1606 -1.0632 -0.2906
46007SOL    HW256014  13.073   1.394   5.859  0.4153  1.9318  2.2497
46008SOL     OW56015   8.192  12.466  12.310  0.6555  0.1034  0.3398
46008SOL    HW156016   8.099  12.487  12.303 -0.0112 -2.0376  1.7263
46008SOL    HW256017   8.231  12.504  12.231 -0.8416  3.4719  1.0644
46009SOL     OW56018   2.058   2.905   1.553 -0.2155 -0.6933 -0.2872
46009SOL    HW156019   2.084   2.961   1.626 -1.1560  0.4914 -0.8201
46009SOL    HW256020   1.962   2.908   1.553 -0.2830 -2.1020 -0.5104
46010SOL     OW56021  12.036  12.925   6.530 -0.3140  0.5702 -0.0764
46010SOL    HW156022  12.070  12.923   6.620  0.6742 -4.1897 -0.2757
46010SOL    HW256023  11.941  12.914   6.541  0.0895 -4.0996  0.6502
46011SOL     OW56024  11.978   6.053  14.123  0.4499  0.1828 -0.8397
46011SOL    HW156025  11.970   6.029  14.215 -0.8179  0.2420 -0.9217
46011SOL    HW256026  12.049   5.998  14.089  0.1474 -0.6742 -0.1090
46012SOL     OW56027   1.422   3.485   5.086  0.4011  0.3071  0.5130
46012SOL    HW156028   1.392   3.553   5.026  0.6187  1.0713  1.2431
46012SOL    HW256029   1.345   3.463   5.138  1.0710  2.7031  2.8034
46013SOL     OW56030   7.147  11.780   9.301  0.0587  0.1986  0.3105
46013SOL    HW156031   7.228  11.832   9.301  0.3519 -0.2546  0.2245
46013SOL    HW256032   7.137  11.752   9.210 -1.0088  1.5010 -0.0126
46014SOL     OW56033   8.616   0.770   2.238 -0.1105  0.2813  0.1176
46014SOL    HW156034   8.675   0.699   2.214  0.1506  0.6173 -0.2620
46014SOL    HW256035   8.528   0.734   2.225 -0.0267 -0.6135  1.8313
46015SOL     OW56036   0.022   7.873   6.046  0.4364  0.1028  0.2208
46015SOL    HW156037  -0.031   7.945   6.080 -0.4874 -0.7863  0.7260
46015SOL    HW256038   0.111   7.907   6.045 -0.0137  1.3490  0.1513
46016SOL     OW56039   9.268  12.001  13.857 -0.7327 -0.5107  0.3031
46016SOL    HW156040   9.314  11.951  13.790  0.0932 -0.2359  0.6594
46016SOL    HW256041   9.180  11.962  13.860 -0.9042 -0.3072 -1.1681
46017SOL     OW56042   2.987   7.809   4.597  0.0206 -0.1981  0.5970
46017SOL    HW156043   2.943   7.767   4.523 -0.7974  0.7150  0.5550
46017SOL    HW256044   2.935   7.887   4.616  2.2273  1.5939 -0.2236
46018SOL     OW56045  11.574   1.948  12.545  0.2875  0.0175  0.1693
46018SOL    HW156046  11.552   1.923  12.634  1.0726  0.7319  0.5785
46018SOL    HW256047  11.592   2.042  12.550 -1.2826  0.4403 -1.0605
46019SOL     OW56048  13.227  14.092   8.007  0.4726 -0.1336 -0.1753
46019SOL    HW156049  13.186  14.030   8.066  0.6207  0.0423  0.1197
46019SOL    HW256050  13.297  14.132   8.060  1.0022 -0.4151 -0.6597
46020SOL     OW56051   2.865   2.451   0.367  0.0192  0.3802 -0.2282
46020SOL    HW156052   2.804   2.469   0.439 -0.6822 -1.3812 -0.3326
46020SOL    HW256053   2.933   2.396   0.407  1.1611  1.6915 -0.2949
46021SOL     OW56054  13.556   9.780   1.464 -0.1558  0.1021  0.3476
46021SOL    HW156055  13.488   9.846   1.478 -0.2358  0.1669 -0.3522
46021SOL    HW256056  13.638   9.824   1.489 -0.2423  0.3751  0.1533
46022SOL     OW56057   2.829   7.021  11.203 -0.1194 -0.2882  0.0877
46022SOL    HW156058   2.909   7.062  11.237 -1.5782  2.6980  0.2691
46022SOL    HW256059   2.825   7.049  11.112 -2.0185  1.5412  0.6643
46023SOL     OW56060  11.145   9.394   5.034  0.2578 -0.1321  0.7936
46023SOL    HW156061  11.105   9.413   4.949  1.8494  1.7124  0.3720
46023SOL    HW256062  11.084   9.431   5.098 -0.1627 -0.0734  0.3681
46024SOL     OW56063   8.219   5.824  13.626 -0.0855 -0.2029 -0.1133
46024SOL    HW156064   8.235   5.887  13.556  0.7509 -0.8099 -0.4938
46024SOL    HW256065   8.124   5.819  13.632 -0.1701  1.3330  0.1670
46025SOL     OW56066   4.591   0.927   6.768  0.0377  0.1610  0.5401
46025SOL    HW156067   4.599   1.020   6.790  0.5724  0.3498 -0.3962
46025SOL    HW256068   4.562   0.926   6.677  0.6105 -0.5843  0.3578
46026SOL     OW56069   8.947  12.358   2.412 -0.3816  0.1719  0.4164
46026SOL    HW156070   8.866  12.395   2.446 -0.2641  2.1819 -1.2892
46026SOL    HW256071   8.937  12.360   2.317  1.5398  0.2055  0.1669
46027SOL     OW56072   1.082   7.869  12.150 -0.4318 -0.1155  0.0447
46027SOL    HW156073   1.079   7.797  12.087 -0.8722  0.0055 -0.0806
46027SOL    HW256074   1.051   7.830  12.232  0.7023 -0.4181  0.3413
46028SOL     OW56075   1.243   8.212   3.043 -0.0060 -0.0560  0.3239
46028SOL    HW156076   1.176   8.146   3.025  0.3219 -0.5677  0.9444
46028SOL    HW256077   1.325   8.172   3.014  0.0150  0.6899 -0.7240
46029SOL     OW56078   3.754   6.097   0.143 -0.7303 -0.0481 -0.1602
46029SOL    HW156079   3.842   6.115   0.177 -0.7104  0.0169 -0.2463
46029SOL    HW256080   3.701   6.170   0.175 -0.7857 -0.1640  0.0161
46030SOL     OW56081   0.048   1.143   2.885  0.5130 -0.2059 -0.1511
46030SOL    HW156082   0.143   1.146   2.886  0.5396 -0.2608 -1.2991
46030SOL    HW256083   0.027   1.055   2.854  0.0480 -0.8779  1.9094
46031SOL     OW56084  11.233  14.124   1.897  0.3757  0.3765 -0.3000
46031SOL    HW156085  11.219  14.185   1.824 -0.8261 -1.1453 -1.4029
46031SOL    HW256086  11.149  14.121   1.942  0.9913  0.9723  0.9212
46032SOL     OW56087   0.692   1.698   0.280 -0.7564  0.0845 -0.0916
46032SOL    HW156088   0.783   1.687   0.254 -0.0362  0.2914  2.1062
46032SOL    HW256089   0.643   1.640   0.222  0.7912 -0.1515 -1.2135
46033SOL     OW56090   9.237  13.028   2.049 -0.4266 -0.6968 -0.2133
46033SOL    HW156091   9.212  12.959   2.110  1.6550 -0.0484  1.4991
46033SOL    HW256092   9.306  12.989   1.995 -0.6437 -0.5528 -0.6028
46034SOL     OW56093  14.058   1.585   4.481 -0.1863  0.3982  0.0404
46034SOL    HW156094  14.015   1.556   4.561  0.0647 -1.1375 -0.3474
46034SOL    HW256095  14.011   1.664   4.456 -1.3526 -0.0258  0.8107
46035SOL     OW56096  13.541   6.668   0.995  0.2396  0.3730  0.4102
46035SOL    HW156097  13.510   6.584   1.029 -0.8512 -0.4754 -2.3754
46035SOL    HW256098  13.597   6.645   0.921 -0.9832  2.0453 -1.1265
46036SOL     OW56099   3.759  12.488  11.591  0.1766  0.2228  0.0584
46036SOL    HW156100   3.673  12.527  11.583  0.8010  1.9280  1.0404
46036SOL    HW256101   3.744  12.407  11.640 -0.8924  0.3478 -0.0378
46037SOL     OW56102   4.728   9.061  11.300  0.5900 -0.2919  0.2036
46037SOL    HW156103   4.719   9.131  11.236  0.3767 -0.2594  0.2696
46037SOL    HW256104   4.739   8.982  11.247  1.0948 -0.1775  0.1301
46038SOL     OW56105   4.181   5.405   7.152  0.2128 -0.0061 -0.3761
46038SOL    HW156106   4.214   5.462   7.222  1.3163  1.6181 -2.0954
46038SOL    HW256107   4.119   5.460   7.104 -2.0061 -1.7076  0.3731
46039SOL     OW56108   6.644  13.765   7.250 -0.6432 -0.5545  0.3926
46039SOL    HW156109   6.637  13.700   7.181  0.1734  0.1521 -0.3651
46039SOL    HW256110   6.575  13.829   7.231 -1.3718 -1.1131  1.0732
46040SOL     OW56111  10.211  13.065   0.921 -0.2455  0.0715  0.0498
46040SOL    HW156112  10.188  13.154   0.895  1.1392  0.6131  0.6100
46040SOL    HW256113  10.189  13.061   1.014  1.6759  0.5553  0.5639
46041SOL     OW56114   5.011   5.274   4.246  0.1309  0.1997  0.2549
46041SOL    HW156115   5.020   5.180   4.258  0.9206  0.3025  0.5077
46041SOL    HW256116   5.100   5.308   4.255  0.2944  0.6983 -2.4357
46042SOL     OW56117  13.686   6.802   4.928 -0.0468 -0.5206 -0.5534
46042SOL    HW156118  13.597   6.804   4.964 -0.2136  1.0320 -0.9869
46042SOL    HW256119  13.719   6.715   4.951 -1.0936 -0.5437  1.0274
46043SOL     OW56120  11.453  10.879   9.220 -0.0419  0.2278 -0.2074
46043SOL    HW156121  11.460  10.965   9.261 -0.8473 -0.0545  0.5534
46043SOL    HW256122  11.375  10.884   9.165  0.5401  0.3235 -1.0543
46044SOL     OW56123  10.425   4.570   5.367 -0.2042 -0.0911 -0.2754
46044SOL    HW156124  10.519   4.554   5.358  0.1639  1.4063  0.6825
46044SOL    HW256125  10.395   4.499   5.423  0.4116 -0.4038 -0.3276
46045SOL     OW56126   7.249  10.309  10.788  0.1845 -0.4757  0.1114
46045SOL    HW156127   7.172  10.351  10.750  1.2085  0.0773 -1.4610
46045SOL    HW256128   7.318  10.374  10.780  1.8001 -2.3031 -2.2687
46046SOL     OW56129  12.432   5.113   9.436  0.2182  0.0315 -0.6038
46046SOL    HW156130  12.495   5.129   9.506 -0.5937 -2.3999  0.8002
46046SOL    HW256131  12.349   5.146   9.469 -0.7252 -3.3884  0.8514
46047SOL     OW56132  10.712   0.724  11.336 -0.3875  0.2455  0.1734
46047SOL    HW156133  10.739   0.754  11.249  0.3597  0.7589  0.5751
46047SOL    HW256134  10.616   0.720  11.330 -0.3904  0.8575 -0.4901
46048SOL     OW56135   2.587   1.222   8.265 -0.5230 -0.6217  0.3223
46048SOL    HW156136   2.566   1.315   8.264 -0.3909 -0.4648  3.0182
46048SOL    HW256137   2.507   1.180   8.299 -0.1952 -1.3552  0.2094
46049SOL     OW56138  13.615   8.171   2.933  0.4933 -0.7021 -0.9196
46049SOL    HW156139  13.616   8.171   3.029 -0.2954  0.7577 -0.8704
46049SOL    HW256140  13.532   8.130   2.910 -0.2445  0.6953 -0.8853
46050SOL     OW56141  10.712   3.719   5.577 -0.2304  0.1400 -0.2528
46050SOL    HW156142  10.651   3.793   5.570  0.7965  1.0148 -0.1611
46050SOL    HW256143  10.685   3.674   5.657 -0.4995  0.7675  0.0200
46051SOL     OW56144  12.600   9.177  13.244 -0.4685  0.8927  0.5619
46051SOL    HW156145  12.547   9.104  13.275  0.5337 -0.2832 -0.3815
46051SOL    HW256146  12.679   9.175  13.298 -0.6271  1.5659  0.8298
46052SOL     OW56147   2.419  12.516  11.190 -0.3172 -0.1345  1.0803
46052SOL    HW156148   2.445  12.454  11.258 -0.2225  1.3207  2.4304
46052SOL    HW256149   2.325  12.526  11.200 -0.3266 -0.0221  0.8999
46053SOL     OW56150   4.657  13.071   5.610  0.9581 -0.5402 -0.2815
46053SOL    HW156151   4.734  13.075   5.666  0.6511 -1.0155  0.1930
46053SOL    HW256152   4.605  12.999   5.646  0.7361 -0.8374 -1.1578
46054SOL     OW56153   7.982   7.220  13.679  0.2341 -0.9298  0.3684
46054SOL    HW156154   7.941   7.295  13.637 -0.7576 -1.2129  0.8145
46054SOL    HW256155   8.044   7.187  13.613  1.7999  1.1352  0.7020
46055SOL     OW56156   4.663   6.197  13.446 -0.3160  0.8435  0.2626
46055SOL    HW156157   4.598   6.135  13.480  1.1283  0.5586  2.7319
46055SOL    HW256158   4.652   6.275  13.500 -0.1990  1.7106 -0.9274
46056SOL     OW56159   8.667   2.494  12.893  0.1522  0.4607  0.5134
46056SOL    HW156160   8.640   2.582  12.866  1.3924  0.7710  0.2164
46056SOL    HW256161   8.654   2.493  12.988  1.2505  1.4056  0.7040
46057SOL     OW56162   1.125   4.922   4.651 -0.1875 -0.7621 -0.5335
46057SOL    HW156163   1.178   4.993   4.688 -0.4356 -1.6590  1.6380
46057SOL    HW256164   1.188   4.860   4.616  0.1325 -0.7009 -0.0718
46058SOL     OW56165   1.020  11.110   2.143  0.1097 -0.5246 -0.4956
46058SOL    HW156166   1.059  11.181   2.091 -0.5869 -0.7912 -1.3999
46058SOL    HW256167   0.926  11.118   2.128 -0.1100 -0.6477  0.6996
46059SOL     OW56168   3.918   0.673   3.098  0.0415  0.2650  0.7858
46059SOL    HW156169   3.853   0.713   3.157  1.0958  0.8749  1.5577
46059SOL    HW256170   3.981   0.743   3.081 -0.1038  0.0211 -0.8893
46060SOL     OW56171  11.411   5.804   8.517 -1.0749  0.1902 -0.4607
46060SOL    HW156172  11.439   5.879   8.465  0.1878  0.2297  0.2320
46060SOL    HW256173  11.323   5.827   8.546 -0.3258  1.8927  0.6080
46061SOL     OW56174   2.302   6.446  10.650 -0.2030  0.0364  0.3579
46061SOL    HW156175   2.321   6.431  10.558 -1.8910  0.7631 -0.1402
46061SOL    HW256176   2.283   6.359  10.686 -0.7698 -0.0985 -0.2683
46062SOL     OW56177  12.645   2.038   6.908  0.0990 -0.2100  0.0453
46062SOL    HW156178  12.568   2.065   6.957  0.4346  2.2009 -0.6484
46062SOL    HW256179  12.719   2.064   6.963  0.4756  2.3225 -1.4780
46063SOL     OW56180  10.649   6.411  11.486 -0.1677 -0.1962 -0.0373
46063SOL    HW156181  10.640   6.452  11.572  0.4379 -0.7982  0.3193
46063SOL    HW256182  10.691   6.327  11.503  0.9734  0.1488 -1.0388
46064SOL     OW56183   5.035   5.482   6.837 -0.0468 -0.3811  0.1846
46064SOL    HW156184   5.128   5.490   6.858  0.1782 -0.4196 -0.7387
46064SOL    HW256185   5.017   5.388   6.841 -0.3726 -0.2781  1.6308
46065SOL     OW56186   7.627   4.928   3.989 -0.1389  0.2702  0.0794
46065SOL    HW156187   7.628   4.833   3.980 -2.1139  0.0084  1.8250
46065SOL    HW256188   7.720   4.953   3.993  0.4154 -1.5252 -0.6294
46066SOL     OW56189   1.519  13.697   9.868 -0.1169 -0.0435 -0.7712
46066SOL    HW156190   1.470  13.754   9.927  0.0117 -0.7017 -0.0198
46066SOL    HW256191   1.457  13.628   9.844 -0.8426  1.2992 -3.0705
46067SOL     OW56192   5.386  12.269   7.834  0.5266 -0.0701  0.2259
46067SOL    HW156193   5.371  12.175   7.847  0.2200  0.0023  0.3894
46067SOL    HW256194   5.416  12.276   7.744  0.5736 -0.3291  0.2197
46068SOL     OW56195   6.550   6.060   9.171 -0.1270  0.4179 -0.2203
46068SOL    HW156196   6.490   6.008   9.118 -1.0895  0.2914  0.9322
46068SOL    HW256197   6.593   6.119   9.109  0.3775 -1.1504 -1.4391
46069SOL     OW56198  13.399   3.218   9.336  0.2994 -0.6447  0.5996
46069SOL    HW156199  13.339   3.204   9.263 -1.2476 -0.3682  1.7791
46069SOL    HW256200  13.410   3.313   9.340  0.5738 -0.6737  0.6013
46070SOL     OW56201   0.998   5.308  11.138  0.0735  0.3082  0.0213
46070SOL    HW156202   0.933   5.378  11.147  0.3107  0.4716  0.5084
46070SOL    HW256203   1.024   5.288  11.228 -0.0546 -0.4684 -0.1084
46071SOL     OW56204   7.455   5.407   7.773  0.0954 -0.6527  0.6985
46071SOL    HW156205   7.473   5.496   7.804  0.4837 -0.3089 -0.4679
46071SOL    HW256206   7.361   5.397   7.781  0.0357 -0.0868  0.7105
46072SOL     OW56207   4.960  12.976   1.127  0.4109  0.4667  0.3688
46072SOL    HW156208   4.995  13.040   1.066 -0.3436  1.0123  0.4862
46072SOL    HW256209   5.024  12.974   1.198 -0.2108  2.1600  1.0442
46073SOL     OW56210  11.823  12.977   3.314 -0.4322 -0.7206 -0.2669
46073SOL    HW156211  11.881  13.007   3.384  1.1914 -1.4435 -1.2481
46073SOL    HW256212  11.791  13.058   3.274  0.3515 -0.2937 -0.0523
46074SOL     OW56213   2.783   8.937   4.680 -0.3233 -0.1749  0.0205
46074SOL    HW156214   2.759   8.869   4.616 -2.5416  1.5454 -1.1047
46074SOL    HW256215   2.701   8.983   4.698  0.3020 -0.3088  3.8838
46075SOL     OW56216   3.903  12.662   7.623 -0.3415 -0.0083 -0.1100
46075SOL    HW156217   3.965  12.595   7.651 -2.0715 -0.7316  2.4152
46075SOL    HW256218   3.866  12.628   7.541  2.4027  0.4210 -1.6321
46076SOL     OW56219  12.472   4.972   8.736 -0.1806 -0.2633 -0.4352
46076SOL    HW156220  12.560   4.958   8.771  0.3563  0.5020 -1.4149
46076SOL    HW256221  12.414   4.937   8.803  0.8695 -0.9158  0.1680
46077SOL     OW56222   8.685   2.563   3.773 -0.0446 -0.1968  0.0327
46077SOL    HW156223   8.736   2.561   3.692  0.1230 -1.6877  0.1469
46077SOL    HW256224   8.750   2.579   3.842  0.6233 -3.5374  0.3473
46078SOL     OW56225  12.923  11.165   1.034 -0.0310  0.3254  0.2282
46078SOL    HW156226  12.898  11.084   1.078  2.3620 -0.8631 -0.4446
46078SOL    HW256227  12.950  11.224   1.105  0.1056 -0.1915  0.6066
46079SOL     OW56228  12.812   8.928  11.597 -0.2805 -0.2559  0.2648
46079SOL    HW156229  12.901   8.937  11.632  0.1377  1.1805 -1.0294
46079SOL    HW256230  12.755   8.942  11.672  0.5678 -1.0265  1.0864
46080SOL     OW56231   1.064  11.429   3.681 -0.2568 -0.2173 -0.1205
46080SOL    HW156232   0.990  11.403   3.736 -0.6024 -0.0359 -0.4947
46080SOL    HW256233   1.120  11.351   3.678  1.0022  0.4613  2.4284
46081SOL     OW56234   7.921   1.955   7.590 -0.2309 -0.3008  0.6347
46081SOL    HW156235   7.994   1.960   7.528 -0.3593  2.0940  0.5600
46081SOL    HW256236   7.941   1.880   7.645  0.4759 -1.8115 -1.5477
46082SOL     OW56237  10.598   4.359  14.142 -0.2110 -0.0210  0.2541
46082SOL    HW156238  10.538   4.370  14.216 -2.5441 -2.2965 -1.1322
46082SOL    HW256239  10.622   4.449  14.117 -3.7714  1.1264  0.3989
46083SOL     OW56240   0.042  10.224   2.043  0.2271 -0.3192 -0.0577
46083SOL    HW156241   0.056  10.212   1.949  1.1692 -3.4935  0.3560
46083SOL    HW256242  -0.052  10.211   2.055  0.1367 -0.1298 -0.5325
46084SOL     OW56243  11.345   2.045   6.705 -0.0290  0.4461 -0.2492
46084SOL    HW156244  11.364   2.125   6.754 -0.7459  0.3615  0.1869
46084SOL    HW256245  11.429   2.017   6.670  0.0129  2.1760 -1.6237
46085SOL     OW56246   1.077   0.355  10.028  0.1475  0.7476  0.9807
46085SOL    HW156247   1.085   0.358   9.932 -1.6929 -1.0184  0.6975
46085SOL    HW256248   0.984   0.339  10.043  0.5628 -0.0123  3.0293
46086SOL     OW56249   1.230  12.871   2.112  0.3865 -1.1967  0.1444
46086SOL    HW156250   1.312  12.913   2.137  0.4831 -0.6502 -1.0219
46086SOL    HW256251   1.211  12.904   2.024 -1.4940 -0.6776  0.6816
46087SOL     OW56252   6.093   3.707   4.303 -0.2409 -0.1690  0.1434
46087SOL    HW156253   6.030   3.768   4.266 -1.0071 -1.1051 -0.1320
46087SOL    HW256254   6.137   3.668   4.228  0.4932  0.2846  0.3260
46088SOL     OW56255   1.872   5.250  11.351 -0.5681  0.5506  0.4265
46088SOL    HW156256   1.846   5.204  11.431 -1.7867  0.0226 -0.2462
46088SOL    HW256257   1.802   5.231  11.288  0.7462  0.3077 -1.0270
46089SOL     OW56258  11.216   6.178  10.813 -0.2451 -0.3023 -0.1404
46089SOL    HW156259  11.228   6.200  10.905  0.4257 -1.4275  0.0588
46089SOL    HW256260  11.302   6.145  10.785 -0.8030 -1.2024 -0.8184
46090SOL     OW56261   2.478  12.651   5.327  0.0150 -0.7551  0.1398
46090SOL    HW156262   2.491  12.585   5.259  0.3661  0.4344 -0.9983
46090SOL    HW256263   2.500  12.734   5.284 -1.7192  0.2718  1.1140
46091SOL     OW56264   7.493   1.622  11.011 -0.3324 -0.3255  0.3067
46091SOL    HW156265   7.413   1.572  11.027 -1.5629  1.7940  1.0592
46091SOL    HW256266   7.473   1.711  11.039  3.0280 -0.1353  2.8461
46092SOL     OW56267   9.595  13.843   4.951  0.5089  0.2874 -0.5016
46092SOL    HW156268   9.503  13.815   4.949  1.1089 -2.0051  0.8625
46092SOL    HW256269   9.608  13.887   4.867 -2.3807  2.7538  0.1156
46093SOL     OW56270   9.542   1.014   5.862 -0.3634 -0.8272 -0.2669
46093SOL    HW156271   9.526   1.002   5.956  0.2551  1.7559  0.2703
46093SOL    HW256272   9.484   1.086   5.837  2.3349  1.3296 -0.8147
46094SOL     OW56273   2.023   7.166   7.396 -0.6015 -0.3043 -0.2633
46094SOL    HW156274   1.993   7.088   7.349  0.3054  0.4476 -2.1856
46094SOL    HW256275   2.099   7.136   7.446 -0.4614 -0.7411 -0.7278
46095SOL     OW56276   0.712   2.021  11.407  0.4358  0.1572  0.2673
46095SOL    HW156277   0.776   2.069  11.459 -0.2438  2.8975 -1.2212
46095SOL    HW256278   0.632   2.073  11.413 -0.1663 -0.3808 -1.9635
46096SOL     OW56279   2.259  10.103   8.971 -0.0889  0.0040 -0.6016
46096SOL    HW156280   2.182  10.158   8.959 -0.0769  0.1498 -0.0376
46096SOL    HW256281   2.226  10.026   9.017  0.6311  1.5993  2.9214
46097SOL     OW56282   8.330   0.416   9.102 -0.3316  0.0418 -0.2911
46097SOL    HW156283   8.352   0.391   9.012 -1.4253 -2.8258  0.1233
46097SOL    HW256284   8.410   0.455   9.137  1.5023 -2.5553 -1.3083
46098SOL     OW56285   5.751   4.799   7.754 -0.3860 -0.1721 -0.3570
46098SOL    HW156286   5.830   4.767   7.712 -0.8277 -0.9792 -0.5989
46098SOL    HW256287   5.687   4.808   7.683 -1.3933 -2.3418  0.1755
46099SOL     OW56288  13.208   0.894   0.539 -0.3039 -0.4007  0.8049
46099SOL    HW156289  13.282   0.917   0.483 -0.9663 -0.8180 -0.2757
46099SOL    HW256290  13.168   0.979   0.561 -0.5962 -0.2739 -0.1611
46100SOL     OW56291   7.278   8.985  11.238 -0.1368 -0.9635  0.1604
46100SOL    HW156292   7.201   9.042  11.234  1.0894  0.7303 -0.4841
46100SOL    HW256293   7.263   8.930  11.316 -0.5116  1.5557  1.9832
46101SOL     OW56294  10.838   4.662  10.262  0.2152  0.6244 -0.6979
46101SOL    HW156295  10.909   4.599  10.255  0.9961  1.5012 -0.8456
46101SOL    HW256296  10.805   4.671  10.172  0.6514  1.0356 -0.8202
46102SOL     OW56297   3.638   7.645   8.506  0.2658  0.0110  0.8688
46102SOL    HW156298   3.702   7.697   8.555 -0.0411  0.0045  1.2840
46102SOL    HW256299   3.554   7.687   8.524  0.2546  0.6215 -0.4674
46103SOL     OW56300   9.368   2.825   1.230 -0.1711  0.2440 -0.7735
46103SOL    HW156301   9.347   2.846   1.320  0.4076  0.4846 -0.6919
46103SOL    HW256302   9.463   2.813   1.229 -0.3185 -1.0953 -1.0705
46104SOL     OW56303   8.667  12.078   0.973 -0.7199 -0.1665  0.5889
46104SOL    HW156304   8.754  12.047   0.999 -1.2335 -1.6368  0.6564
46104SOL    HW256305   8.611  12.057   1.047 -1.2218  0.3883  0.3734
46105SOL     OW56306   8.855   3.815  13.338  0.5088 -0.2173  0.6163
46105SOL    HW156307   8.904   3.791  13.259 -0.8664 -0.5729 -0.1779
46105SOL    HW256308   8.830   3.906  13.324 -2.2191 -1.0641 -0.8222
46106SOL     OW56309  14.022  13.881   8.544 -0.2592  0.3090 -0.0561
46106SOL    HW156310  14.094  13.823   8.565  0.4065  1.3074  0.5248
46106SOL    HW256311  13.990  13.851   8.459  1.8474  0.7753 -1.0780
46107SOL     OW56312  12.243   9.698   1.655  0.7043  0.2773  0.1781
46107SOL    HW156313  12.233   9.764   1.586  0.7942  0.2435  0.1330
46107SOL    HW256314  12.171   9.717   1.716 -0.1196 -0.4516 -0.5321
46108SOL     OW56315   8.132   6.908   2.526 -0.0311 -0.4898  0.4559
46108SOL    HW156316   8.041   6.900   2.496 -0.3393 -2.2650  1.7367
46108SOL    HW256317   8.182   6.921   2.445 -1.2639 -1.0012 -0.4343
46109SOL     OW56318   3.406  13.150  11.217  0.0312 -0.5618  0.3213
46109SOL    HW156319   3.420  13.130  11.309 -0.1995 -2.3501  0.0082
46109SOL    HW256320   3.343  13.223  11.217  0.1164 -0.4706  1.5603
46110SOL     OW56321   3.314   3.722   6.814  0.5728  0.3286 -0.0158
46110SOL    HW156322   3.380   3.718   6.745  0.5904 -2.3490  0.0479
46110SOL    HW256323   3.255   3.649   6.796 -1.2305  1.4281  1.0819
46111SOL     OW56324   5.187  11.953  12.491  0.1952 -0.5506  0.5185
46111SOL    HW156325   5.173  12.043  12.462  0.8256 -0.7481 -0.4620
46111SOL    HW256326   5.275  11.932  12.462 -0.1956 -1.7092  0.1218
46112SOL     OW56327   3.877   0.703  13.151  0.0617  0.1242 -0.8290
46112SOL    HW156328   3.884   0.781  13.096 -2.4694  0.2947 -0.9938
46112SOL    HW256329   3.803   0.655  13.116 -0.6024 -0.6188  1.4041
46113SOL     OW56330   3.676   9.660  10.658 -0.3193 -0.3222  0.3518
46113SOL    HW156331   3.631   9.722  10.600 -0.1100  0.5059  1.0476
46113SOL    HW256332   3.761   9.701  10.674  0.7125 -1.8425 -0.9137
46114SOL     OW56333   7.591   7.866   6.624  0.1878 -0.1368  0.5739
46114SOL    HW156334   7.616   7.859   6.716  0.9312 -0.3086  0.3670
46114SOL    HW256335   7.590   7.775   6.593  1.5740  0.0218  0.0020
46115SOL     OW56336   2.984   2.951   5.667 -0.2259  0.2792  0.0330
46115SOL    HW156337   3.076   2.928   5.676  0.3969  2.4526 -0.0742
46115SOL    HW256338   2.936   2.876   5.702  1.5911 -0.7125  0.5003
46116SOL     OW56339   6.611  10.809  12.656  0.5318 -0.1909 -0.1388
46116SOL    HW156340   6.603  10.718  12.686  0.5323  0.0335  0.5437
46116SOL    HW256341   6.699  10.814  12.620  0.6493 -0.3738  0.1213
46117SOL     OW56342   2.946   8.873  12.843 -0.1342  0.1474  0.3009
46117SOL    HW156343   2.960   8.842  12.753 -0.1965  0.2082  0.2709
46117SOL    HW256344   2.907   8.798  12.888 -2.9837  1.0289 -0.4893
46118SOL     OW56345  10.318   7.020   5.694 -0.5277  0.0423  0.1206
46118SOL    HW156346  10.240   7.012   5.749 -0.3967  0.7666  0.4156
46118SOL    HW256347  10.345   6.930   5.679 -0.4586 -0.1710  1.3992
46119SOL     OW56348  10.049  11.563   7.353  0.7899 -0.5157 -0.6515
46119SOL    HW156349  10.125  11.601   7.398  0.8603 -0.1099 -1.1039
46119SOL    HW256350   9.986  11.635   7.349  1.1905 -0.2108 -2.1402
46120SOL     OW56351  13.208   9.208   7.788 -0.2132 -0.3208 -0.3234
46120SOL    HW156352  13.118   9.206   7.756 -0.8815 -1.8522  1.5300
46120SOL    HW256353  13.251   9.135   7.743 -0.6181 -1.2228  0.7259
46121SOL     OW56354  12.494   6.201   0.586  0.3511  0.4854 -0.3800
46121SOL    HW156355  12.488   6.169   0.675 -1.4127 -1.3234 -1.0843
46121SOL    HW256356  12.584   6.183   0.559  0.5188 -0.1615  0.5972
46122SOL     OW56357  10.524  13.928   0.237  0.4198 -0.3494  0.0004
46122SOL    HW156358  10.603  13.977   0.259  0.1684 -0.5756  1.4642
46122SOL    HW256359  10.534  13.845   0.283  0.0159 -0.9845 -1.0245
46123SOL     OW56360   7.954   4.601   3.899  0.7201  0.2138 -0.8933
46123SOL    HW156361   7.902   4.594   3.980  1.2855  0.8141 -0.4677
46123SOL    HW256362   8.010   4.677   3.913  1.5650 -0.2924 -1.4283
46124SOL     OW56363  13.281   1.788   3.847 -0.0573 -0.0428 -0.0715
46124SOL    HW156364  13.190   1.808   3.826  0.1241  1.8131  0.7754
46124SOL    HW256365  13.327   1.794   3.763 -0.9575 -3.0899 -0.9399
46125SOL     OW56366   5.655   8.756  10.550  0.3788 -0.0976  0.2614
46125SOL    HW156367   5.574   8.707  10.537  0.0339  0.8128 -1.2175
46125SOL    HW256368   5.722   8.702  10.508  0.5503 -0.7877  1.3720
46126SOL     OW56369   3.686  13.997  14.082  0.3825  0.3614  0.3616
46126SOL    HW156370   3.716  14.062  14.146  0.5530 -1.8163  2.6974
46126SOL    HW256371   3.757  13.933  14.078 -0.7333 -0.9293  0.0855
46127SOL     OW56372   3.853  10.976   8.198 -0.4626 -0.0150  0.2899
46127SOL    HW156373   3.863  11.032   8.121  0.3778  0.8672  1.0121
46127SOL    HW256374   3.883  11.030   8.271 -1.8582 -0.6013  1.3438
46128SOL     OW56375   1.314   7.108  12.341  0.1160  0.5326 -0.5971
46128SOL    HW156376   1.356   7.185  12.303  0.8398  0.4468  0.0034
46128SOL    HW256377   1.382   7.067  12.394 -0.6610  0.2479  0.2150
46129SOL     OW56378   9.854   5.187   7.150  0.1240 -0.0173 -0.0911
46129SOL    HW156379   9.813   5.161   7.068 -0.2253  1.0423 -0.2636
46129SOL    HW256380   9.914   5.257   7.127  0.9785 -0.5681  0.3833
46130SOL     OW56381   5.652   5.509   6.429 -0.1379 -0.6116 -0.6508
46130SOL    HW156382   5.638   5.568   6.504  2.2135  0.2083 -0.7798
46130SOL    HW256383   5.746   5.494   6.428 -0.3289 -1.9381 -2.4879
46131SOL     OW56384  12.774   2.359  12.886 -0.1608 -0.5571  0.9953
46131SOL    HW156385  12.762   2.449  12.854 -1.2117 -1.2477 -0.6634
46131SOL    HW256386  12.869   2.348  12.890 -0.0114  0.5531  1.0387
46132SOL     OW56387   7.852   2.489   6.228  0.1651 -0.3379  0.5945
46132SOL    HW156388   7.770   2.451   6.198  0.8207 -2.6168  1.4758
46132SOL    HW256389   7.831   2.529   6.312 -0.3946  0.7407 -0.0349
46133SOL     OW56390   0.158   7.855   1.655  0.1628 -0.2447  1.0119
46133SOL    HW156391   0.136   7.788   1.719 -1.1038  0.9265  1.8679
46133SOL    HW256392   0.154   7.937   1.704 -0.7302  0.6836 -0.5079
46134SOL     OW56393   8.025  12.871   3.085  0.0749  0.1225 -0.1827
46134SOL    HW156394   8.102  12.919   3.057 -0.1326  0.7585  0.3140
46134SOL    HW256395   7.965  12.874   3.010 -0.1644  1.1349  0.0410
46135SOL     OW56396   0.990  13.243  10.044 -0.0676  0.4398 -0.3192
46135SOL    HW156397   0.895  13.247  10.053 -0.0457  0.4862 -0.1006
46135SOL    HW256398   1.005  13.179   9.974 -0.2859  1.1691 -1.0382
46136SOL     OW56399   2.326  11.905   4.251 -0.0709  0.1285 -0.1641
46136SOL    HW156400   2.248  11.959   4.240  0.9149  1.4189 -1.2988
46136SOL    HW256401   2.328  11.850   4.173 -0.3775 -0.6428  0.3611
46137SOL     OW56402   6.703   4.463   9.139  0.1235  0.4864 -0.2153
46137SOL    HW156403   6.749   4.384   9.166  0.5059 -0.0869 -2.4190
46137SOL    HW256404   6.617   4.433   9.110 -1.1261  1.3585  2.2478
46138SOL     OW56405   1.853   6.754   8.329  0.1319  0.4334  0.2291
46138SOL    HW156406   1.828   6.845   8.311  0.3232  0.2592 -1.0607
46138SOL    HW256407   1.905   6.728   8.252 -2.7645 -1.8288 -1.1827
46139SOL     OW56408   3.929   3.784   3.115 -0.5196  0.2714  0.4103
46139SOL    HW156409   3.887   3.859   3.072  0.2350 -0.2416 -1.3364
46139SOL    HW256410   3.920   3.712   3.052 -1.4344 -1.2020  2.1491
46140SOL     OW56411   5.181  13.816   3.320 -0.1300  0.2021  0.4975
46140SOL    HW156412   5.228  13.881   3.267  0.0473 -0.5199 -0.2559
46140SOL    HW256413   5.202  13.838   3.410  2.7959 -0.9020  0.1845
46141SOL     OW56414  13.177  11.035   8.298 -0.0716  0.0219 -0.0038
46141SOL    HW156415  13.244  11.011   8.363  1.4388  0.0759 -1.4793
46141SOL    HW256416  13.178  10.963   8.235  0.7599  1.3862 -1.6449
46142SOL     OW56417   1.456   0.864  12.017  0.4071  0.2903  1.1126
46142SOL    HW156418   1.456   0.774  11.985  1.0059  1.0497 -1.1905
46142SOL    HW256419   1.426   0.857  12.108 -0.6406 -2.0880  0.6582
46143SOL     OW56420  11.339   7.950   3.107  0.3560 -0.1265 -0.1756
46143SOL    HW156421  11.414   7.943   3.166  0.5639 -0.1555 -0.4385
46143SOL    HW256422  11.344   7.871   3.053 -0.4425 -0.6363  0.4686
46144SOL     OW56423  13.721  13.454   7.463  0.6415  0.1711  0.6487
46144SOL    HW156424  13.707  13.388   7.396  0.0690  0.9954 -0.0600
46144SOL    HW256425  13.769  13.524   7.419  0.8456  0.4333  1.2695
46145SOL     OW56426   3.210   2.272  12.523  0.6711 -0.8157  0.7482
46145SOL    HW156427   3.222   2.178  12.516  1.1798 -0.9233  2.5040
46145SOL    HW256428   3.220   2.291  12.617 -3.6087  0.4015  1.1977
46146SOL     OW56429   8.250   8.338  10.871  0.1141  0.7670  0.2996
46146SOL    HW156430   8.239   8.341  10.966  0.6486 -1.3455  0.4759
46146SOL    HW256431   8.343   8.322  10.858 -0.3706 -2.1876 -0.3758
46147SOL     OW56432   9.962   5.070  10.411 -1.1543  0.4827  0.6512
46147SOL    HW156433   9.998   5.138  10.468  0.4104 -0.0964  0.3985
46147SOL    HW256434   9.916   5.012  10.471  0.6227 -0.2250  1.4196
46148SOL     OW56435  11.948  11.903  13.974 -0.3463 -0.1442 -0.1888
46148SOL    HW156436  12.001  11.975  14.007 -2.0472  0.9980  0.1414
46148SOL    HW256437  11.931  11.848  14.051  2.1951 -1.8442 -0.6857
46149SOL     OW56438   6.781   4.258   2.009  0.4712  0.1396 -0.3746
46149SOL    HW156439   6.866   4.264   1.965  2.1374 -1.1801  2.4154
46149SOL    HW256440   6.784   4.326   2.076 -0.0271 -0.8735  0.7155
46150SOL     OW56441   8.815   8.758   2.580  0.0359  0.7658  0.0426
46150SOL    HW156442   8.831   8.704   2.657 -0.5228  0.3581 -0.1276
46150SOL    HW256443   8.720   8.760   2.570  0.1352 -1.5222 -2.2800
46151SOL     OW56444   6.730  10.316   0.082 -0.7822  0.2560  0.2139
46151SOL    HW156445   6.727  10.235   0.030 -1.7701  0.2039  0.3315
46151SOL    HW256446   6.800  10.367   0.043  0.9322 -1.2857  1.0825
46152SOL     OW56447   6.291   8.498   6.215 -0.1895 -0.5499 -0.0140
46152SOL    HW156448   6.200   8.468   6.218 -0.2127 -0.6921 -1.5630
46152SOL    HW256449   6.319   8.498   6.307 -1.7415 -0.5002  0.4841
46153SOL     OW56450  13.269  12.405   4.666  0.3263 -0.0871  0.0983
46153SOL    HW156451  13.257  12.456   4.746  0.0940  0.9055 -0.5580
46153SOL    HW256452  13.181  12.372   4.647  0.1614  0.5910 -0.3435
46154SOL     OW56453   1.918   0.851   3.786 -0.3487 -0.2196  0.8793
46154SOL    HW156454   1.982   0.823   3.721 -0.7848  1.7097 -0.4680
46154SOL    HW256455   1.833   0.825   3.749 -0.6642  1.6422  0.1863
46155SOL     OW56456   0.159   4.131   7.723 -0.0860 -0.4798  0.3911
46155SOL    HW156457   0.095   4.139   7.794  1.2094 -0.5975  1.6150
46155SOL    HW256458   0.178   4.037   7.718 -0.5739 -0.5495 -0.5237
46156SOL     OW56459   4.268   0.102  14.055  0.4814 -0.0605  0.0251
46156SOL    HW156460   4.279   0.191  14.020 -0.1845 -0.6215 -1.7127
46156SOL    HW256461   4.181   0.102  14.095 -0.6901 -0.6102 -2.3509
46157SOL     OW56462   8.315  11.456  10.821  0.4514 -0.2752 -0.1356
46157SOL    HW156463   8.304  11.365  10.849 -0.6906 -0.0907  0.0829
46157SOL    HW256464   8.357  11.499  10.896  1.7672 -0.7793 -0.5547
46158SOL     OW56465   4.288   4.375  13.172  0.6920 -0.5317 -0.2512
46158SOL    HW156466   4.349   4.425  13.119  2.2873  0.9625  2.7153
46158SOL    HW256467   4.325   4.287  13.175  0.2656 -0.8037 -1.9514
46159SOL     OW56468   1.675   8.744   7.261  0.4975 -0.2373  0.0876
46159SOL    HW156469   1.651   8.653   7.276 -0.0133  0.0266  0.9621
46159SOL    HW256470   1.734   8.741   7.185 -0.3231 -1.1718 -0.5397
46160SOL     OW56471  10.618   0.122  12.047 -0.5331 -0.2311  0.2919
46160SOL    HW156472  10.648   0.081  11.965 -0.0031  0.3090  0.2060
46160SOL    HW256473  10.583   0.207  12.019 -1.7823 -0.6754  0.4452
46161SOL     OW56474   4.942   4.443   2.011  0.4860  0.0901  0.1772
46161SOL    HW156475   4.864   4.433   2.065  0.6678 -0.7855  0.2900
46161SOL    HW256476   4.929   4.382   1.939 -0.6429  2.5298 -1.8695
46162SOL     OW56477   0.847   6.290   8.030 -0.0849  0.4462 -0.0627
46162SOL    HW156478   0.895   6.226   8.083  0.3722  0.8891  0.0648
46162SOL    HW256479   0.909   6.314   7.960 -0.2878  0.6734 -0.1644
46163SOL     OW56480   6.999  11.227   3.961 -0.3952 -0.2870 -0.0412
46163SOL    HW156481   7.070  11.199   4.018 -0.5312  0.7452  0.6568
46163SOL    HW256482   7.034  11.304   3.916 -0.3885 -0.9176 -1.1629
46164SOL     OW56483   6.886  11.491   9.598 -0.0436  0.3619  0.1676
46164SOL    HW156484   6.846  11.443   9.671 -0.1221  0.8691  0.4606
46164SOL    HW256485   6.979  11.490   9.617  0.0945 -0.8035 -0.5038
46165SOL     OW56486   2.355   6.753   7.559 -0.2476  0.1422  0.0454
46165SOL    HW156487   2.440   6.753   7.604  0.9964 -0.8202 -2.1291
46165SOL    HW256488   2.312   6.832   7.590  1.6683  0.9309  0.8695
46166SOL     OW56489  13.822  13.501  12.463 -0.0276 -0.3230 -0.1634
46166SOL    HW156490  13.880  13.491  12.387 -0.6212  3.2917 -1.3003
46166SOL    HW256491  13.869  13.560  12.521 -1.3281  0.3171  0.2699
46167SOL     OW56492  13.152   1.992   4.755 -0.2951  0.6391 -0.6636
46167SOL    HW156493  13.206   1.917   4.733 -2.5429 -1.0462 -0.7990
46167SOL    HW256494  13.197   2.067   4.714  1.0226 -0.8947 -2.1500
46168SOL     OW56495   3.502   0.550   1.223  0.1870 -0.1768  0.2888
46168SOL    HW156496   3.512   0.480   1.288  1.4497 -1.8573 -1.6064
46168SOL    HW256497   3.461   0.622   1.272 -0.2881 -1.8672  2.5553
46169SOL     OW56498  10.428   5.602   7.430 -0.1489  0.5549  0.0116
46169SOL    HW156499  10.450   5.512   7.407 -0.2796  0.5901 -0.2611
46169SOL    HW256500  10.446   5.652   7.350  0.1868  0.8131  0.2479
46170SOL     OW56501  14.076  11.508   4.597 -0.1893 -0.2644  0.0241
46170SOL    HW156502  13.984  11.486   4.588 -0.2083 -0.4782  0.7097
46170SOL    HW256503  14.120  11.449   4.534 -0.4084 -1.0475  0.5846
46171SOL     OW56504  11.736  12.849  10.954 -0.2831  0.1388 -0.2809
46171SOL    HW156505  11.728  12.940  10.980 -0.6605  0.2558 -0.7888
46171SOL    HW256506  11.686  12.800  11.019 -2.1186  0.5228 -1.3381
46172SOL     OW56507   1.933  13.125   0.422 -0.0503 -0.2411  0.1399
46172SOL    HW156508   1.842  13.136   0.396 -0.4521  0.4999  1.7337
46172SOL    HW256509   1.971  13.213   0.414 -0.2839  0.1031  2.2493
46173SOL     OW56510   7.313  11.471   5.210 -0.8028  0.0253  0.3174
46173SOL    HW156511   7.242  11.443   5.153  1.4996 -1.3786 -2.0964
46173SOL    HW256512   7.335  11.393   5.261 -1.3297  0.6186  1.4851
46174SOL     OW56513   4.713   7.494   5.914 -0.3537 -0.5629  1.0234
46174SOL    HW156514   4.749   7.524   5.830 -1.5224 -1.1124  0.3086
46174SOL    HW256515   4.783   7.511   5.977  0.4001  0.2263  0.0100
46175SOL     OW56516   4.896   5.142   7.282  0.1975 -0.3390 -0.2194
46175SOL    HW156517   4.913   5.227   7.324 -3.0725  0.8011 -0.9230
46175SOL    HW256518   4.902   5.161   7.188 -1.9646 -0.4833 -0.4200
46176SOL     OW56519   4.611   0.419   9.688 -0.2987  0.6220  0.1544
46176SOL    HW156520   4.588   0.462   9.770  1.2450  1.2910  0.2622
46176SOL    HW256521   4.703   0.394   9.699 -0.6098 -0.9932 -0.6540
46177SOL     OW56522   1.489   6.717   9.388  0.2778 -1.0521 -0.7735
46177SOL    HW156523   1.516   6.666   9.464  1.0789  0.1471 -0.2192
46177SOL    HW256524   1.399   6.744   9.408  1.5085  2.0535  1.4110
46178SOL     OW56525   7.709   8.060   6.896  0.3831  0.2885 -0.5989
46178SOL    HW156526   7.773   8.099   6.954  0.1731  0.1190 -0.2468
46178SOL    HW256527   7.730   8.094   6.809  0.4926  0.8020 -0.3685
46179SOL     OW56528  10.760  11.322   7.260 -0.6457  0.5890 -0.4005
46179SOL    HW156529  10.688  11.382   7.278 -1.2321 -0.8144  2.6061
46179SOL    HW256530  10.769  11.270   7.340  4.0084  0.9336 -0.4172
46180SOL     OW56531  11.594   8.156  10.504  0.1420  0.3469 -0.3014
46180SOL    HW156532  11.556   8.230  10.456 -0.0098 -0.3129 -1.2377
46180SOL    HW256533  11.583   8.082  10.445  0.6621 -0.3438  0.4531
46181SOL     OW56534  12.016   6.421  12.408  0.6648  0.0317 -0.6241
46181SOL    HW156535  12.034   6.451  12.319 -0.2014  0.3353 -0.6972
46181SOL    HW256536  11.922   6.402  12.409  0.4225  1.2052  0.5666
46182SOL     OW56537  11.376   5.839  10.440  0.6230 -0.5354 -0.2522
46182SOL    HW156538  11.367   5.858  10.533 -2.6776  1.3975 -0.8290
46182SOL    HW256539  11.332   5.754  10.429 -1.2222  0.3698 -0.3112
46183SOL     OW56540   9.969  14.102   0.552  0.3111  0.0784  0.0624
46183SOL    HW156541   9.941  14.030   0.609  1.3999 -0.2163  0.2614
46183SOL    HW256542   9.910  14.174   0.572 -0.7451 -0.7264 -0.0719
46184SOL     OW56543   8.380   6.085   1.536  0.0259  0.1296 -0.1463
46184SOL    HW156544   8.443   6.105   1.467 -0.1273 -0.1820 -0.3796
46184SOL    HW256545   8.425   6.023   1.593  0.4742  1.0578  0.5342
46185SOL     OW56546   8.220   1.282   0.790  0.3162  0.0937 -0.4053
46185SOL    HW156547   8.237   1.224   0.716 -0.9677 -0.9639  0.0923
46185SOL    HW256548   8.254   1.367   0.762  1.1701 -0.6103 -1.6180
46186SOL     OW56549   4.677   8.585   4.312 -0.0317 -0.2366  0.7018
46186SOL    HW156550   4.715   8.499   4.294  3.2616  0.9339  1.3032
46186SOL    HW256551   4.651   8.581   4.404  1.3910 -0.2110  1.1219
46187SOL     OW56552   8.165   0.880   5.448 -0.6140 -0.6302 -0.0922
46187SOL    HW156553   8.228   0.881   5.376 -0.2338 -0.8655  0.2415
46187SOL    HW256554   8.118   0.964   5.439 -1.5125 -1.2439 -1.4400
46188SOL     OW56555  11.940   2.300   3.265 -0.5041 -0.1650 -0.4668
46188SOL    HW156556  11.938   2.380   3.318 -0.5405 -0.0924 -0.5773
46188SOL    HW256557  12.032   2.288   3.242 -0.2280 -1.0949  0.9693
46189SOL     OW56558   1.854   4.101   3.751 -0.4286 -0.2099  0.4034
46189SOL    HW156559   1.801   4.067   3.823  0.8976 -0.3174  1.3561
46189SOL    HW256560   1.942   4.110   3.787 -0.1768  1.8384 -0.5675
46190SOL     OW56561   6.248   6.716  11.140 -0.1661 -0.5880 -0.1198
46190SOL    HW156562   6.270   6.629  11.107 -0.0372 -0.9476  0.8743
46190SOL    HW256563   6.181   6.700  11.207 -0.1325  0.0698  0.0772
46191SOL     OW56564  11.838   7.486  12.427  0.7393 -0.0013  0.0056
46191SOL    HW156565  11.916   7.441  12.459  0.3196 -1.5962 -1.1022
46191SOL    HW256566  11.790   7.420  12.378 -1.2978  0.9652  0.5942
46192SOL     OW56567   9.164   4.529   9.888  0.2961 -0.3932 -0.0621
46192SOL    HW156568   9.149   4.516   9.794 -0.5978 -2.0111  0.2804
46192SOL    HW256569   9.223   4.458   9.913  1.1766  0.4986  0.4709
46193SOL     OW56570   1.250   8.397   4.807 -0.4443  0.2506 -0.4051
46193SOL    HW156571   1.294   8.478   4.780  0.8210 -0.5550 -0.8423
46193SOL    HW256572   1.184   8.426   4.870  0.7703  1.5133  0.3588
46194SOL     OW56573   9.043   8.185   3.082 -0.3410 -0.2038 -0.6243
46194SOL    HW156574   9.108   8.172   3.150  0.0248  0.6899 -0.7936
46194SOL    HW256575   9.090   8.170   3.000 -0.1984  0.9272 -0.7705
46195SOL     OW56576   9.480   8.633   6.398 -0.4567 -0.2521  0.1796
46195SOL    HW156577   9.566   8.629   6.439  0.2015  2.8140 -0.6270
46195SOL    HW256578   9.455   8.542   6.384  1.8784 -1.2485  1.9820
46196SOL     OW56579  12.945  13.666   7.945  0.6353  0.3882  0.7547
46196SOL    HW156580  12.997  13.626   8.015  1.8758  0.8989  0.1433
46196SOL    HW256581  12.971  13.619   7.866  0.3018  0.7810  0.4095
46197SOL     OW56582   4.901   0.320  10.116 -0.0699  0.0913 -0.0091
46197SOL    HW156583   4.931   0.232  10.091  0.5645  0.6663 -1.3192
46197SOL    HW256584   4.980   0.366  10.144 -0.0934  0.8317 -1.1177
46198SOL     OW56585   9.248   4.261   1.115  0.3142  0.0312 -0.1486
46198SOL    HW156586   9.281   4.330   1.172  1.6946 -1.6466  1.2175
46198SOL    HW256587   9.327   4.225   1.073 -0.6123  0.8968 -2.8510
46199SOL     OW56588  12.674  12.125   9.678  0.0454  0.0936 -0.2466
46199SOL    HW156589  12.623  12.091   9.751  0.1274 -0.5144 -0.4587
46199SOL    HW256590  12.744  12.060   9.666  1.0695  1.0776  0.2506
46200SOL     OW56591   9.678   5.835   6.507  0.3728  0.2023  0.1064
46200SOL    HW156592   9.751   5.875   6.459  0.8671 -1.0834 -0.2507
46200SOL    HW256593   9.609   5.826   6.441 -0.2712  1.7279  0.5214
46201SOL     OW56594   3.674   4.983   7.335 -0.2626 -0.7356  0.0687
46201SOL    HW156595   3.667   5.077   7.350  1.7147 -0.6842  0.8417
46201SOL    HW256596   3.756   4.971   7.288  1.4585 -2.3438  3.1838
46202SOL     OW56597   1.050   8.880   9.327  0.0736  0.4326  0.2017
46202SOL    HW156598   0.982   8.865   9.393 -1.1876  0.9483 -0.9333
46202SOL    HW256599   1.015   8.950   9.272  1.8423  1.2127 -0.0114
46203SOL     OW56600   5.772   2.136   8.187  0.0713 -0.2276  0.2294
46203SOL    HW156601   5.784   2.204   8.121 -2.4086 -1.2330 -1.3854
46203SOL    HW256602   5.804   2.056   8.145  3.1032 -0.2105  2.1598
46204SOL     OW56603   7.030   9.653   9.389 -0.1078  0.5452  0.5473
46204SOL    HW156604   7.075   9.711   9.328 -1.6095  0.9966 -0.1978
46204SOL    HW256605   7.073   9.568   9.379  2.7040  1.6590  2.2852
46205SOL     OW56606   5.082   3.437  12.106  0.2934 -0.1620 -0.1009
46205SOL    HW156607   5.178   3.434  12.103  0.3631  1.7309 -1.9120
46205SOL    HW256608   5.054   3.366  12.047  0.6361  0.3309 -0.8727
46206SOL     OW56609  11.821  12.381   7.688 -0.1772 -0.0179  0.1366
46206SOL    HW156610  11.753  12.385   7.620 -0.0605 -0.0321  0.0193
46206SOL    HW256611  11.876  12.457   7.672  0.6284 -0.7384 -0.6026
46207SOL     OW56612  11.593   2.303   2.018 -0.4345  0.3250  0.6416
46207SOL    HW156613  11.499   2.289   2.030 -0.3050 -1.7065 -0.2372
46207SOL    HW256614  11.633   2.269   2.098 -0.3093 -1.9888 -0.3099
46208SOL     OW56615  10.133  11.050   4.855 -0.2743 -0.2602  0.1473
46208SOL    HW156616  10.053  11.089   4.891 -1.1730  0.3059 -2.2576
46208SOL    HW256617  10.198  11.120   4.862  0.0336 -0.6877  2.0207
46209SOL     OW56618  13.489  11.106  12.905  0.3417  0.2064 -0.1751
46209SOL    HW156619  13.417  11.043  12.909 -1.3127  1.9570 -0.8629
46209SOL    HW256620  13.447  11.191  12.921  2.2002  1.3297 -1.0204
46210SOL     OW56621   1.752   4.028   2.026  0.1946 -0.1535  0.3164
46210SOL    HW156622   1.803   3.948   2.041 -0.6246 -0.7461 -0.0000
46210SOL    HW256623   1.812   4.099   2.047  0.1422 -0.8591  3.4201
46211SOL     OW56624   9.495   3.441  13.250  0.4240 -0.2866  0.4291
46211SOL    HW156625   9.458   3.503  13.313  1.0596 -0.0464  0.5710
46211SOL    HW256626   9.437   3.365  13.253 -0.5463  0.4198  0.0234
46212SOL     OW56627   6.466  10.328   7.126 -0.3983  0.6190  0.3401
46212SOL    HW156628   6.438  10.293   7.042  1.9148  0.3109 -0.3627
46212SOL    HW256629   6.540  10.385   7.106  0.5786  0.1020  2.2032
46213SOL     OW56630   4.096   2.538  11.418 -0.1034 -0.4110  0.7194
46213SOL    HW156631   4.001   2.540  11.430 -0.2654 -0.0992 -0.4920
46213SOL    HW256632   4.108   2.517  11.325  0.9980  0.4856  0.6391
46214SOL     OW56633   1.197   0.753  13.709  0.1811 -0.0212  0.5656
46214SOL    HW156634   1.189   0.802  13.791 -0.8287  1.0580 -0.1455
46214SOL    HW256635   1.290   0.759  13.686 -0.0746  2.8341 -0.2020
46215SOL     OW56636   2.354   7.826   6.145  0.2462 -0.3822  0.4994
46215SOL    HW156637   2.326   7.825   6.053  1.6535  1.6421 -0.0332
46215SOL    HW256638   2.399   7.743   6.158 -0.5653 -0.9858 -0.4277
46216SOL     OW56639  12.912  12.793   3.914  0.1665  0.3973 -0.4504
46216SOL    HW156640  12.990  12.739   3.914 -0.7928 -1.0317 -0.8848
46216SOL    HW256641  12.898  12.816   3.822  0.5028  1.3050 -0.2836
46217SOL     OW56642   6.351   0.884  12.838 -0.4681 -0.5937  0.2065
46217SOL    HW156643   6.261   0.871  12.809 -0.3808  0.3266 -0.5503
46217SOL    HW256644   6.405   0.853  12.766 -0.1770 -0.8031  0.5083
46218SOL     OW56645   8.741   6.612  13.525  0.4334 -0.3466 -0.7052
46218SOL    HW156646   8.790   6.621  13.444 -0.8750 -0.8359 -1.5780
46218SOL    HW256647   8.653   6.585  13.498 -0.3093  0.4118  0.8131
46219SOL     OW56648   8.122   7.789   0.027  0.3286  0.0310  0.0326
46219SOL    HW156649   8.162   7.845  -0.039  0.5455 -0.0647  0.0817
46219SOL    HW256650   8.091   7.713  -0.022 -0.2148  0.3194 -0.0754
46220SOL     OW56651   9.948   9.535  13.215 -0.5603 -0.2569  0.2957
46220SOL    HW156652  10.009   9.508  13.284 -1.4881 -2.0907  0.4645
46220SOL    HW256653   9.953   9.631  13.215  0.4119 -0.2537  2.0388
46221SOL     OW56654  10.148  11.668   9.780 -0.0980 -0.0770 -0.5331
46221SOL    HW156655  10.155  11.681   9.686 -0.4225  0.2750 -0.5109
46221SOL    HW256656  10.186  11.581   9.795  0.7293  0.2196 -0.8743
46222SOL     OW56657   3.654  11.923  11.287  0.2887  0.2030  0.1846
46222SOL    HW156658   3.654  11.958  11.198 -0.1752  0.7712  0.4027
46222SOL    HW256659   3.746  11.911  11.309  0.3853 -0.8248 -0.7095
46223SOL     OW56660   6.166  10.051   1.380 -0.5057  0.4901 -0.4690
46223SOL    HW156661   6.154   9.983   1.447  0.0397  0.5415 -0.3188
46223SOL    HW256662   6.218  10.118   1.423  0.1923  0.3417 -1.0656
46224SOL     OW56663   9.101   4.239   4.844  0.0325 -0.3742 -0.3285
46224SOL    HW156664   9.063   4.247   4.757 -0.7630 -2.4889 -0.2311
46224SOL    HW256665   9.146   4.322   4.858  1.0291 -0.3393 -3.1327
46225SOL     OW56666   3.277   3.370   1.825  0.2889  0.8823 -0.1482
46225SOL    HW156667   3.205   3.433   1.830 -1.2529 -0.8922  1.0665
46225SOL    HW256668   3.296   3.348   1.916  2.0849  0.9250 -0.4654
46226SOL     OW56669  13.671   1.843   8.961  0.0079  0.4607  0.2492
46226SOL    HW156670  13.641   1.850   8.871  1.4992 -0.5853 -0.3780
46226SOL    HW256671  13.600   1.879   9.013 -0.6385  1.6414 -1.3740
46227SOL     OW56672   3.919  14.124   2.223 -0.0227  0.3594  0.1714
46227SOL    HW156673   3.887  14.053   2.168 -0.6384  1.0704 -0.4156
46227SOL    HW256674   4.005  14.146   2.186  0.4761 -0.5052  0.7714
46228SOL     OW56675  12.965  10.043   3.874 -0.3349 -0.1510 -0.2074
46228SOL    HW156676  12.995   9.968   3.822 -0.0235 -0.7288  0.7785
46228SOL    HW256677  13.037  10.060   3.935 -0.9156  0.1653  0.3966
46229SOL     OW56678   5.640  13.181   9.206  0.3011 -0.1816  0.2352
46229SOL    HW156679   5.547  13.158   9.200  0.5181 -1.2963  0.9838
46229SOL    HW256680   5.641  13.277   9.199 -1.1333  0.0577  2.5628
46230SOL     OW56681  10.627   6.870  13.983  0.8538  0.5445 -0.3432
46230SOL    HW156682  10.585   6.880  13.898  1.0648  0.6723 -0.4328
46230SOL    HW256683  10.665   6.782  13.981 -1.2320 -0.4529  0.5506
46231SOL     OW56684  12.163   4.820   7.873  0.1060  0.1267 -0.6280
46231SOL    HW156685  12.171   4.728   7.897  0.4183  0.3355  0.0882
46231SOL    HW256686  12.083   4.849   7.917  0.2008  0.2872 -0.5628
46232SOL     OW56687   1.860   2.456   1.218  0.2377 -0.9197  0.6343
46232SOL    HW156688   1.785   2.463   1.277  1.1055 -0.5328  1.7300
46232SOL    HW256689   1.935   2.440   1.276  1.2065  0.0187 -0.3187
46233SOL     OW56690  12.857   4.121  11.008 -0.1780  0.0266  0.6400
46233SOL    HW156691  12.914   4.078  11.073  0.7431 -0.9375 -0.7622
46233SOL    HW256692  12.868   4.070  10.929 -0.9497  1.4488 -0.4294
46234SOL     OW56693   3.084   3.380  10.874  0.3132 -0.3516  0.0910
46234SOL    HW156694   3.008   3.337  10.913  0.1236 -1.4891 -1.4097
46234SOL    HW256695   3.138   3.406  10.948 -1.4109  0.2798  1.1967
46235SOL     OW56696   9.370   4.325   0.250 -0.4549  0.0215 -0.3695
46235SOL    HW156697   9.316   4.290   0.321  2.0397 -0.0002  1.6701
46235SOL    HW256698   9.397   4.411   0.281  0.7451 -0.0090 -1.2591
46236SOL     OW56699   7.206  13.022   3.752 -0.1462  0.5147  0.3508
46236SOL    HW156700   7.180  12.993   3.665 -0.4065  1.5792  0.0606
46236SOL    HW256701   7.219  13.116   3.744  1.3360  0.4082  1.1053
46237SOL     OW56702   0.273   3.332   0.440 -0.2242  0.2819 -0.2411
46237SOL    HW156703   0.337   3.286   0.386 -0.0710  0.6186 -0.3407
46237SOL    HW256704   0.210   3.369   0.378 -1.7292 -1.8167 -0.0870
46238SOL     OW56705   1.286   2.932   6.366 -0.0371  0.3409 -0.7177
46238SOL    HW156706   1.192   2.916   6.354  0.4772 -2.6748 -1.5768
46238SOL    HW256707   1.312   2.870   6.434  1.6607 -0.3658 -1.9437
46239SOL     OW56708  12.230   2.819  10.201  0.2686 -0.0776 -0.1685
46239SOL    HW156709  12.157   2.789  10.147 -1.2244  0.8712  1.2156
46239SOL    HW256710  12.216   2.914  10.209 -0.1372 -0.2802  2.5498
46240SOL     OW56711  12.462   4.606   0.653  0.5288  0.2791  0.8589
46240SOL    HW156712  12.533   4.592   0.591 -0.5891 -0.7245 -0.2484
46240SOL    HW256713  12.390   4.641   0.601  0.1419  1.1393  1.9263
46241SOL     OW56714  11.472   5.362   2.578  0.3163  0.3209  0.5506
46241SOL    HW156715  11.498   5.394   2.665  0.0207 -0.2379  0.8511
46241SOL    HW256716  11.552   5.323   2.542  0.4734  0.6726  0.5139
46242SOL     OW56717   5.456   9.714   7.559 -0.2517  0.8774 -0.1719
46242SOL    HW156718   5.480   9.802   7.531 -2.2835  1.6131  0.2302
46242SOL    HW256719   5.442   9.721   7.653 -2.4414  0.6885 -0.4264
46243SOL     OW56720   4.732   1.129   1.064  0.1376 -0.2308 -1.0624
46243SOL    HW156721   4.675   1.196   1.026  0.2895  0.6102  0.1526
46243SOL    HW256722   4.764   1.079   0.988 -0.8254  0.3822 -1.8968
46244SOL     OW56723  12.789   1.406  14.014  0.6084 -0.0808 -0.0573
46244SOL    HW156724  12.715   1.464  14.032  0.6885  0.1911 -0.5736
46244SOL    HW256725  12.861   1.466  13.993  1.1623 -0.3224  1.1108
46245SOL     OW56726   8.755   6.054   5.363  0.2529 -0.4546 -0.0367
46245SOL    HW156727   8.715   5.970   5.343 -1.3006  0.5178 -1.3112
46245SOL    HW256728   8.815   6.071   5.290 -1.3386  0.6245 -1.1803
46246SOL     OW56729  12.537   9.744   6.143 -1.3244  0.0628  0.7748
46246SOL    HW156730  12.548   9.735   6.048 -1.1355 -2.2731  0.9700
46246SOL    HW256731  12.465   9.806   6.153 -1.3487  0.3439 -0.8925
46247SOL     OW56732   2.731   4.990   8.880 -0.4598 -0.0729  0.3001
46247SOL    HW156733   2.675   4.919   8.913 -0.7550 -0.0383 -0.1105
46247SOL    HW256734   2.734   4.975   8.786 -1.4915  1.1247  0.0480
46248SOL     OW56735  13.069  13.562   9.193 -0.3352  0.5196  0.2603
46248SOL    HW156736  13.113  13.609   9.122 -0.1480 -0.5130 -0.3209
46248SOL    HW256737  13.088  13.470   9.177 -1.0987  0.1963  1.1068
46249SOL     OW56738   6.846  13.996  13.585 -0.0932  0.0745  0.1860
46249SOL    HW156739   6.863  13.907  13.553  1.3126  0.1775  0.5820
46249SOL    HW256740   6.856  14.051  13.507  1.6590  0.1442  0.4256
46250SOL     OW56741  12.336   1.045   1.786 -0.1291  0.1837 -0.3743
46250SOL    HW156742  12.261   1.066   1.841  0.6669  1.7261  0.1815
46250SOL    HW256743  12.379   0.972   1.830 -0.8477 -0.1815 -0.2713
46251SOL     OW56744   4.261   9.673   0.595  0.0956 -0.7502  0.1235
46251SOL    HW156745   4.166   9.671   0.582 -0.1300 -0.9453  1.5699
46251SOL    HW256746   4.285   9.764   0.581 -0.2115 -0.8063 -0.8029
46252SOL     OW56747  10.634   5.216   8.129  0.3399  0.5965 -0.3198
46252SOL    HW156748  10.676   5.262   8.201  0.8051 -1.0710  0.5153
46252SOL    HW256749  10.706   5.186   8.073  0.0221  1.2139 -1.0842
46253SOL     OW56750   7.391   9.881   1.702  0.0902 -0.3058 -0.5163
46253SOL    HW156751   7.435   9.947   1.648 -0.7810 -0.4272 -1.4038
46253SOL    HW256752   7.307   9.867   1.658 -0.2104 -1.1664  0.3129
46254SOL     OW56753  10.425   4.372   6.351 -0.1008  0.1183  0.4477
46254SOL    HW156754  10.435   4.277   6.358  0.8369  0.0950 -0.8376
46254SOL    HW256755  10.475   4.396   6.272 -0.2063  1.6965  0.8244
46255SOL     OW56756   1.166  13.694   1.499  0.3812  0.1692  0.2075
46255SOL    HW156757   1.090  13.644   1.469  0.9581 -0.3908 -0.3507
46255SOL    HW256758   1.129  13.759   1.559 -0.8639  1.5289 -1.9281
46256SOL     OW56759   1.393   5.766   7.676  0.5562  0.5009 -0.3747
46256SOL    HW156760   1.310   5.719   7.665  0.4294  0.4884  0.5142
46256SOL    HW256761   1.368   5.857   7.686  0.5956  0.4407  0.3712
46257SOL     OW56762   9.030   4.210   0.056 -0.2107  0.2769  0.0185
46257SOL    HW156763   9.098   4.145   0.078  0.0569  1.0104  1.4871
46257SOL    HW256764   9.028   4.212  -0.039 -1.1969 -2.9077 -0.1548
46258SOL     OW56765   6.717  12.615  12.625  0.0914 -0.1722  0.0081
46258SOL    HW156766   6.683  12.586  12.541  0.7025  0.2650 -0.3979
46258SOL    HW256767   6.749  12.704  12.609  0.8215 -0.3282  0.5406
46259SOL     OW56768  12.202   0.053  14.145 -0.3857  0.7238  0.5685
46259SOL    HW156769  12.286   0.022  14.180 -1.0622 -0.5081  1.1776
46259SOL    HW256770  12.137   0.024  14.209 -1.3194  1.2734 -0.1100
46260SOL     OW56771  12.945   9.202   3.876 -0.1022 -0.5994 -0.1019
46260SOL    HW156772  12.933   9.136   3.943  0.1742  0.9465  1.5523
46260SOL    HW256773  12.857   9.235   3.858 -0.0962 -0.5111  0.0297
46261SOL     OW56774   6.122   8.543   4.603  0.2849 -0.3036 -0.5236
46261SOL    HW156775   6.098   8.503   4.519 -0.6222  0.8921 -0.8530
46261SOL    HW256776   6.157   8.629   4.580  0.4744 -0.1542  0.2942
46262SOL     OW56777   2.218   0.177   3.250  0.0518  0.6598  0.1641
46262SOL    HW156778   2.300   0.179   3.201 -0.2514  0.8363 -0.3397
46262SOL    HW256779   2.159   0.122   3.198 -0.4734  1.3650 -0.0049
46263SOL     OW56780  10.096   0.368   6.890 -0.0620  0.2972 -0.1562
46263SOL    HW156781  10.061   0.400   6.973  0.5115  1.6267 -0.4117
46263SOL    HW256782  10.025   0.315   6.853 -1.3518  1.9037 -0.0842
46264SOL     OW56783   2.623  13.538  12.132  0.0463  0.1736 -0.1324
46264SOL    HW156784   2.531  13.562  12.121  0.2725  2.8275  2.3887
46264SOL    HW256785   2.664  13.562  12.049 -1.3230  0.0764 -0.8733
46265SOL     OW56786   8.484  10.578   4.902  0.3471  0.3214 -0.0203
46265SOL    HW156787   8.514  10.635   4.831 -0.3632  0.7498  0.0126
46265SOL    HW256788   8.564  10.540   4.937  0.7649  0.6403 -0.6034
46266SOL     OW56789   3.207   4.739  13.817 -0.7811  0.0345  0.3070
46266SOL    HW156790   3.132   4.787  13.782 -2.0691 -1.8214  0.3833
46266SOL    HW256791   3.169   4.679  13.882  0.5542 -1.9403 -0.6435
46267SOL     OW56792   6.193   3.239  10.607 -0.0630  0.8446  0.4906
46267SOL    HW156793   6.227   3.208  10.691 -0.5721 -1.2545 -0.0146
46267SOL    HW256794   6.254   3.206  10.542  0.0741  2.0590 -0.0103
46268SOL     OW56795  10.922   8.312   2.065 -0.4354 -0.3683 -0.4096
46268SOL    HW156796  10.934   8.362   2.145  3.6900  0.3275 -1.2504
46268SOL    HW256797  10.909   8.222   2.094  1.3485 -0.1860  1.1246
46269SOL     OW56798   2.324   1.309   4.460 -0.6860  0.1348 -0.0959
46269SOL    HW156799   2.235   1.316   4.425  0.1094  1.0704 -2.0930
46269SOL    HW256800   2.353   1.221   4.438 -0.5385  0.3932 -0.9459
46270SOL     OW56801   9.145  12.312   1.820  0.2039  0.1004  0.0951
46270SOL    HW156802   9.065  12.260   1.835  1.6373 -1.4074  3.8374
46270SOL    HW256803   9.193  12.264   1.753 -1.8738  1.0204 -2.2048
46271SOL     OW56804   0.912   0.613  13.818 -0.7699  0.0607 -0.4274
46271SOL    HW156805   0.916   0.679  13.749  0.3270 -0.1089 -0.5393
46271SOL    HW256806   0.897   0.663  13.898  4.1901  1.0543  0.1830
46272SOL     OW56807  11.006   0.561  12.320  0.6538  0.4529 -0.1287
46272SOL    HW156808  11.043   0.543  12.234  3.6726  0.6771  1.0071
46272SOL    HW256809  11.082   0.576  12.377 -1.1343 -0.6444  2.8052
46273SOL     OW56810   1.235   6.846   5.740 -0.3705 -0.1744  0.0890
46273SOL    HW156811   1.208   6.755   5.727 -2.0985  0.3191 -0.1459
46273SOL    HW256812   1.178   6.896   5.681  0.1910  1.1034  0.5875
46274SOL     OW56813   0.572   1.239   8.771  0.9564  0.2459 -0.3064
46274SOL    HW156814   0.535   1.222   8.685 -1.3152 -1.1208  0.8302
46274SOL    HW256815   0.563   1.334   8.783 -1.5461  0.1012 -0.4515
46275SOL     OW56816   0.774   0.392   2.904 -0.3372 -0.0194 -0.0873
46275SOL    HW156817   0.732   0.447   2.970 -2.5120 -0.5676 -0.8979
46275SOL    HW256818   0.794   0.310   2.950  2.2581  1.0903  0.9351
46276SOL     OW56819  13.947   9.047   7.043  0.2800  0.5239  0.6485
46276SOL    HW156820  13.994   8.984   7.098  0.1941 -1.1602 -1.1013
46276SOL    HW256821  13.862   9.057   7.085 -0.1552 -1.5000  0.3270
46277SOL     OW56822   6.231   6.624   0.129 -0.0264  0.3048 -0.3298
46277SOL    HW156823   6.276   6.688   0.075  0.2603  1.1276  0.8575
46277SOL    HW256824   6.139   6.630   0.101  0.4145 -0.8531 -2.2301
46278SOL     OW56825   7.719   1.801   7.336 -0.4793 -0.7669  0.7454
46278SOL    HW156826   7.791   1.774   7.278  0.1272 -0.7126  1.4643
46278SOL    HW256827   7.733   1.750   7.416 -2.2211 -2.0338  0.3096
46279SOL     OW56828   5.811  11.199   6.278 -0.6647 -0.4921 -0.0506
46279SOL    HW156829   5.769  11.120   6.246 -1.7289 -0.7012  1.7277
46279SOL    HW256830   5.809  11.259   6.203  0.3183 -2.1366 -1.4841
46280SOL     OW56831   7.003   9.345  13.702  0.3674 -0.1914  0.2258
46280SOL    HW156832   7.036   9.337  13.613  0.9700  1.8551  0.2124
46280SOL    HW256833   7.079   9.327  13.758  0.0097 -1.3961  0.3354
46281SOL     OW56834  12.956   1.788  12.434 -0.6894  0.8001  0.0697
46281SOL    HW156835  12.903   1.850  12.484 -0.2778  1.7798 -0.6778
46281SOL    HW256836  12.899   1.712  12.422 -0.5994  0.2739  2.5161
46282SOL     OW56837   6.395  14.066   4.635  0.2138 -0.1091 -0.3360
46282SOL    HW156838   6.458  13.994   4.644  1.4806  0.7010 -2.1857
46282SOL    HW256839   6.448  14.141   4.607 -1.1355  1.4584  1.0829
46283SOL     OW56840   3.555   8.735   9.864 -0.5784 -0.0059 -0.2324
46283SOL    HW156841   3.568   8.819   9.908 -1.2433 -0.0645  0.0820
46283SOL    HW256842   3.634   8.723   9.812 -0.3236  0.6478 -0.0048
46284SOL     OW56843   4.914   3.635   1.003 -0.3471 -0.2217 -0.1626
46284SOL    HW156844   4.906   3.584   1.083  1.5010  1.8177  1.4493
46284SOL    HW256845   4.843   3.699   1.008 -0.9374 -0.8105 -0.7734
46285SOL     OW56846  13.695   5.827   7.215 -0.0416 -0.1454 -0.0747
46285SOL    HW156847  13.682   5.883   7.291 -0.4801  0.4123 -0.5480
46285SOL    HW256848  13.776   5.779   7.233 -0.4082 -0.3945  0.9631
46286SOL     OW56849   9.467   6.036   7.946  0.2233  0.6934 -0.6540
46286SOL    HW156850   9.373   6.029   7.929  0.3192 -1.4011 -0.5257
46286SOL    HW256851   9.494   6.113   7.896 -1.8257  2.3897  0.6276
46287SOL     OW56852   3.842   7.735   6.882  0.4900 -0.3517 -0.4700
46287SOL    HW156853   3.766   7.678   6.867  0.9726 -0.8054 -1.2814
46287SOL    HW256854   3.879   7.748   6.794  0.5150  1.0482 -0.2624
46288SOL     OW56855   3.379   3.001   4.574  0.0961  0.0330 -0.0537
46288SOL    HW156856   3.353   2.909   4.581 -1.1827  0.3324 -0.5788
46288SOL    HW256857   3.382   3.032   4.664  3.1025 -1.1428  0.3731
46289SOL     OW56858   7.889  12.886   7.214 -0.1209 -0.0681  0.9288
46289SOL    HW156859   7.890  12.902   7.309 -2.1889  0.2853  0.9462
46289SOL    HW256860   7.806  12.842   7.198  0.2723 -0.2756 -0.7110
46290SOL     OW56861  11.603  13.442   6.299 -0.2918 -0.4370 -0.5272
46290SOL    HW156862  11.604  13.502   6.224 -0.5795  0.0544 -0.1521
46290SOL    HW256863  11.693  13.413   6.309 -0.3126 -0.7590 -1.2629
46291SOL     OW56864   6.524   3.192   0.916 -0.0562 -0.2912 -0.2838
46291SOL    HW156865   6.584   3.190   0.842  0.0017  0.3409 -0.2572
46291SOL    HW256866   6.441   3.163   0.880  0.2541 -1.1834 -0.3206
46292SOL     OW56867   5.146  12.389   2.854 -0.1194  0.4662 -0.3069
46292SOL    HW156868   5.052  12.374   2.865  0.0465  0.4088  1.1830
46292SOL    HW256869   5.181  12.304   2.825 -0.6442  0.7262 -1.7448
46293SOL     OW56870   3.416  14.059   2.767 -0.1966 -0.3580  0.0345
46293SOL    HW156871   3.446  13.971   2.787 -0.5481 -0.3480  0.5990
46293SOL    HW256872   3.331  14.046   2.726  0.3968 -0.3632 -1.2588
46294SOL     OW56873  12.543   8.916   8.213  0.5767 -0.3296 -0.2409
46294SOL    HW156874  12.544   8.832   8.169 -1.5947 -0.3005 -0.4489
46294SOL    HW256875  12.544   8.981   8.143  1.6247 -0.1643 -0.0938
46295SOL     OW56876   9.354   5.944   9.128  0.3797 -0.5944  0.4755
46295SOL    HW156877   9.359   5.875   9.194  0.0411 -0.1100  1.0155
46295SOL    HW256878   9.268   5.984   9.140  0.4378 -0.2937 -0.0536
46296SOL     OW56879   1.316   7.180  10.773 -0.0459  0.3718  0.1018
46296SOL    HW156880   1.382   7.144  10.832  0.3230  1.8880  0.6688
46296SOL    HW256881   1.268   7.242  10.827 -0.8249  0.5383 -0.7594
46297SOL     OW56882  10.183  11.010   3.895 -0.4334  0.3713 -0.0787
46297SOL    HW156883  10.171  11.011   3.990  1.3250 -0.6509  0.1873
46297SOL    HW256884  10.174  11.102   3.869 -0.5232  0.7232  1.1283
46298SOL     OW56885   3.343   5.967   7.385 -0.1067  0.3778 -0.3330
46298SOL    HW156886   3.329   5.996   7.295 -1.6825  0.5647 -0.0692
46298SOL    HW256887   3.365   6.047   7.433 -0.1933  0.4364 -0.3898
46299SOL     OW56888   8.524  11.895   1.616  0.0274 -0.5801  0.0758
46299SOL    HW156889   8.564  11.918   1.700  0.3866 -0.7166 -0.0572
46299SOL    HW256890   8.469  11.819   1.636  2.3801 -2.5164 -0.3533
46300SOL     OW56891   7.906   9.392   9.216  0.3717 -0.0633 -0.2560
46300SOL    HW156892   7.968   9.460   9.245 -0.6390  1.1658 -0.8821
46300SOL    HW256893   7.823   9.438   9.206 -0.3155 -1.3822 -0.8444
46301SOL     OW56894  10.457   5.398  13.833  0.0434  0.3457  0.2537
46301SOL    HW156895  10.379   5.386  13.888  0.8239  1.3983  1.6507
46301SOL    HW256896  10.425   5.385  13.743 -2.2138  2.7930  0.5984
46302SOL     OW56897   5.776   9.831  11.292  0.1859 -0.3208  0.0409
46302SOL    HW156898   5.778   9.740  11.322  2.1806 -0.0797  0.7960
46302SOL    HW256899   5.705   9.871  11.341  1.5114 -0.6501  2.3956
46303SOL     OW56900  13.278   0.184   4.596 -0.4222  0.0552 -0.3730
46303SOL    HW156901  13.281   0.188   4.500 -0.3292 -0.3745 -0.3880
46303SOL    HW256902  13.284   0.091   4.616  0.6735  0.2128  0.0909
46304SOL     OW56903   0.014   7.760  12.407 -0.2805  0.1494  0.6208
46304SOL    HW156904  -0.070   7.802  12.423 -0.3019  0.2209  0.3315
46304SOL    HW256905   0.012   7.680  12.460 -1.1539 -0.6300 -0.5365
46305SOL     OW56906   5.641  12.503   1.905 -0.4849 -0.1450  0.0707
46305SOL    HW156907   5.735  12.511   1.889 -0.3959  1.1189  1.1142
46305SOL    HW256908   5.635  12.469   1.994 -1.0305 -1.0087 -0.2808
46306SOL     OW56909   7.386  11.430   0.159 -0.2791 -0.0963  0.4082
46306SOL    HW156910   7.305  11.469   0.128 -0.8979 -0.5546  1.3833
46306SOL    HW256911   7.425  11.496   0.217  0.6158  0.5532 -0.8812
46307SOL     OW56912   0.383   7.997   0.156  0.4887  0.3680  0.1703
46307SOL    HW156913   0.409   7.964   0.242  0.8318 -0.4654 -0.2453
46307SOL    HW256914   0.290   8.019   0.166  0.4138 -0.1372  0.6335
46308SOL     OW56915   3.798  12.839   8.536  0.0571 -0.0350  0.5455
46308SOL    HW156916   3.723  12.885   8.497  0.8797  1.1569  0.3215
46308SOL    HW256917   3.770  12.819   8.626  0.4347  2.8967  1.4090
46309SOL     OW56918   1.346  12.163  13.117  0.4011 -0.0261 -1.0624
46309SOL    HW156919   1.251  12.168  13.128  0.4313 -1.0128 -0.3063
46309SOL    HW256920   1.368  12.072  13.133  1.3456 -0.0684 -2.4316
46310SOL     OW56921  13.409  13.826   5.903 -0.5774  0.3760  0.0074
46310SOL    HW156922  13.401  13.846   5.809 -1.3937 -0.1116 -0.0374
46310SOL    HW256923  13.461  13.746   5.906 -0.0048  0.7429  0.0133
46311SOL     OW56924   1.659  10.783   9.190  0.5410 -0.2956 -0.9187
46311SOL    HW156925   1.718  10.856   9.169  0.9049 -0.5601 -0.8079
46311SOL    HW256926   1.668  10.723   9.117 -0.9612  0.4975 -1.8209
46312SOL     OW56927   8.414  10.924  13.670 -0.2604  0.4721  0.0493
46312SOL    HW156928   8.378  10.841  13.701 -1.5271  0.3581 -1.5395
46312SOL    HW256929   8.433  10.908  13.577  1.5123  1.3386  0.2249
46313SOL     OW56930   1.259   7.951   6.428 -0.0587  1.1514  0.6416
46313SOL    HW156931   1.302   8.021   6.379 -0.1321  0.9263  0.2482
46313SOL    HW256932   1.300   7.953   6.514  3.6383 -1.5240 -0.7743
46314SOL     OW56933   6.696   6.324   9.936 -0.4859  0.0230 -0.1380
46314SOL    HW156934   6.724   6.270  10.010 -0.3293  2.1498  1.4561
46314SOL    HW256935   6.601   6.320   9.937 -0.4691 -0.4420 -0.2240
46315SOL     OW56936   5.953   4.679   2.621 -0.0880  0.5213 -0.1356
46315SOL    HW156937   5.978   4.738   2.550 -1.1441  0.8899 -0.2047
46315SOL    HW256938   6.015   4.606   2.613 -1.0304 -0.1348 -2.3150
46316SOL     OW56939  12.165  13.777  12.576  0.1539  0.5786 -0.0636
46316SOL    HW156940  12.220  13.711  12.618  0.0549  0.7522  0.3460
46316SOL    HW256941  12.199  13.860  12.609 -1.3549  0.6453  1.4735
46317SOL     OW56942   7.199   6.440   3.665  0.0691 -0.4634 -0.1660
46317SOL    HW156943   7.180   6.382   3.591  2.1852  0.6492 -1.6888
46317SOL    HW256944   7.240   6.383   3.730 -3.9767 -1.9912  1.3860
46318SOL     OW56945  10.900   6.639   6.665 -0.0744  0.0080  0.0478
46318SOL    HW156946  10.849   6.559   6.653 -0.5766  0.1293  1.2519
46318SOL    HW256947  10.836   6.709   6.671  0.2910  0.3291  0.3023
46319SOL     OW56948   7.217   0.531   8.659 -0.1983  0.4311  0.2380
46319SOL    HW156949   7.214   0.527   8.563  0.2990  0.7350  0.2037
46319SOL    HW256950   7.127   0.549   8.684  0.0911  3.4491 -0.3744
46320SOL     OW56951   4.509   7.804  11.902 -0.7739 -0.4774 -0.0145
46320SOL    HW156952   4.579   7.815  11.837 -0.6694  1.2685  0.3442
46320SOL    HW256953   4.554   7.770  11.980  0.0404  2.1710  0.7614
46321SOL     OW56954   4.097   0.511   8.782  0.1029  0.0361 -0.2069
46321SOL    HW156955   4.031   0.535   8.717 -0.2858  0.2095  0.2494
46321SOL    HW256956   4.175   0.490   8.730  0.0389  0.9500 -0.6914
46322SOL     OW56957   5.722   6.197  13.164  0.5131  0.2531 -0.1669
46322SOL    HW156958   5.797   6.152  13.125  0.7775  0.1819  0.4226
46322SOL    HW256959   5.655   6.193  13.096  0.4695 -1.1748 -0.0650
46323SOL     OW56960   7.613   8.664   6.690  0.2555 -0.7447  0.3681
46323SOL    HW156961   7.628   8.746   6.642 -1.0259 -1.5327 -1.5066
46323SOL    HW256962   7.646   8.681   6.778  1.6109  1.1990 -0.4532
46324SOL     OW56963  13.878   1.300   6.563  0.0469 -0.2044 -0.6612
46324SOL    HW156964  13.812   1.246   6.521  0.0344  0.1654 -1.1297
46324SOL    HW256965  13.844   1.317   6.651  0.0528 -0.9422 -0.5119
46325SOL     OW56966  13.949   1.394   3.420 -0.2546  0.6088  0.0889
46325SOL    HW156967  14.018   1.328   3.428  0.5086  1.4114  0.2653
46325SOL    HW256968  13.901   1.389   3.502 -0.2789  0.1845  0.0491
46326SOL     OW56969  10.848  11.004   9.810  0.0374 -0.0041  0.3771
46326SOL    HW156970  10.907  11.029   9.739 -0.1326  1.5507  0.7419
46326SOL    HW256971  10.775  10.961   9.766 -0.6095  1.9107 -0.5629
46327SOL     OW56972   1.693   4.918   6.458 -0.2397  0.1674 -0.1470
46327SOL    HW156973   1.745   4.932   6.379  0.8464 -1.2585  0.2601
46327SOL    HW256974   1.743   4.853   6.507 -2.0822 -0.7318  0.6090
46328SOL     OW56975  12.886  11.560   7.486 -0.1133 -0.5160 -0.2015
46328SOL    HW156976  12.893  11.545   7.581 -1.9977  1.6383  0.3440
46328SOL    HW256977  12.969  11.603   7.463  0.1374 -0.5563  0.5798
46329SOL     OW56978   6.631  10.324   1.621  0.4046 -0.2439 -0.0924
46329SOL    HW156979   6.709  10.308   1.568  0.8123  0.2127  0.3638
46329SOL    HW256980   6.575  10.380   1.566  1.5255  1.5829  0.5464
46330SOL     OW56981   9.221   9.315  10.831 -0.0805  0.0363  0.1886
46330SOL    HW156982   9.212   9.405  10.862  1.3203  0.7009 -1.1890
46330SOL    HW256983   9.132   9.279  10.834 -0.6647  1.4673  0.7328
46331SOL     OW56984   1.935   0.009  12.490  0.3519  0.0133  0.2759
46331SOL    HW156985   1.899  -0.016  12.575  0.4217  1.4136  0.7426
46331SOL    HW256986   1.988  -0.066  12.464 -0.0965 -0.6521  1.2192
46332SOL     OW56987  13.699   1.309   9.425  0.3141  0.0034 -0.0375
46332SOL    HW156988  13.788   1.340   9.439  0.5185 -0.2070 -0.8391
46332SOL    HW256989  13.643   1.376   9.464  0.8426 -1.0084  2.7259
46333SOL     OW56990  10.817   8.956   2.340 -0.0910  0.0934 -0.5141
46333SOL    HW156991  10.886   8.997   2.287  0.0408  1.1317  0.4293
46333SOL    HW256992  10.736   8.973   2.292 -0.0741  1.7527 -0.0024
46334SOL     OW56993   6.062   2.631   0.978 -0.2520  0.3547 -0.5240
46334SOL    HW156994   6.023   2.554   0.935 -2.0651  0.6292  0.5324
46334SOL    HW256995   6.053   2.701   0.913  0.6574 -0.1181 -1.1779
46335SOL     OW56996   6.228   0.407   0.795  0.4582 -0.0736 -0.3423
46335SOL    HW156997   6.313   0.407   0.751  0.6690 -1.8725  0.0075
46335SOL    HW256998   6.219   0.319   0.832 -1.5207  0.1038 -0.2765
46336SOL     OW56999   5.100   3.325   1.362 -0.1982  0.1478 -0.2788
46336SOL    HW157000   5.059   3.402   1.402 -0.5360  0.0368 -0.4024
46336SOL    HW257001   5.192   3.332   1.384 -0.3703  0.1304  0.4501
46337SOL     OW57002   7.352   9.833   0.501  0.1537  0.1436 -0.2391
46337SOL    HW157003   7.334   9.872   0.586  1.5638 -1.0652  0.6762
46337SOL    HW257004   7.440   9.796   0.510  0.6963  0.7389 -2.5213
46338SOL     OW57005   8.175   5.600   8.452  0.4278  0.2289  0.2273
46338SOL    HW157006   8.213   5.514   8.433 -1.2915 -0.6832  0.7270
46338SOL    HW257007   8.248   5.649   8.490  1.0479 -1.6153  1.6347
46339SOL     OW57008   1.539   4.254   2.514 -0.2721 -0.5162 -0.4962
46339SOL    HW157009   1.573   4.314   2.581  2.2650 -0.7224 -1.4923
46339SOL    HW257010   1.461   4.298   2.480  0.8052  1.6336 -0.3417
46340SOL     OW57011   8.205   0.963   8.636  0.4567  0.3276  0.1871
46340SOL    HW157012   8.255   0.962   8.555  0.8047  0.4380  0.3933
46340SOL    HW257013   8.265   1.001   8.700  0.2175  0.1650  0.5132
46341SOL     OW57014   5.954   2.886  13.580  0.3787 -0.4136  0.1171
46341SOL    HW157015   5.913   2.835  13.511 -2.8669  0.7559  0.9709
46341SOL    HW257016   5.958   2.975  13.546  0.3437 -0.1457  0.7841
46342SOL     OW57017  10.371  11.404   3.968 -0.1793 -0.4335  0.3000
46342SOL    HW157018  10.291  11.457   3.961 -0.5246 -0.9786  0.0143
46342SOL    HW257019  10.368  11.367   4.056  1.7654  2.6480  1.8536
46343SOL     OW57020  11.427  10.375   5.596  0.0693  0.2738  0.1133
46343SOL    HW157021  11.358  10.357   5.532 -1.1100 -0.3785  1.5186
46343SOL    HW257022  11.482  10.297   5.595  0.8358  0.7767 -0.9725
46344SOL     OW57023   8.575   8.158   7.424 -0.6946 -0.1832  0.2553
46344SOL    HW157024   8.606   8.233   7.473  2.3859 -1.1027 -0.0925
46344SOL    HW257025   8.502   8.192   7.371  2.0931  3.2629 -1.7775
46345SOL     OW57026   1.908   2.710  10.210 -0.4759  0.5710 -0.1614
46345SOL    HW157027   1.825   2.666  10.192 -1.6522  2.9229 -0.9272
46345SOL    HW257028   1.968   2.673  10.146 -0.4598 -2.1123  1.2236
46346SOL     OW57029   9.777   3.301   9.083 -0.2899  0.1646 -0.4032
46346SOL    HW157030   9.863   3.299   9.041 -0.2434  0.5285 -0.3196
46346SOL    HW257031   9.743   3.212   9.070  2.0870 -1.6415  3.7527
46347SOL     OW57032   0.747   9.922  12.392 -0.3972 -0.1827 -0.0992
46347SOL    HW157033   0.761   9.976  12.469 -0.3280  1.2607 -1.0856
46347SOL    HW257034   0.653   9.902  12.393  0.1043 -2.9761  2.0887
46348SOL     OW57035   7.594   4.407  11.638 -0.0256 -0.3182  0.4817
46348SOL    HW157036   7.602   4.321  11.678  0.1236 -1.2231 -1.3956
46348SOL    HW257037   7.679   4.448  11.653  0.4701 -1.1472  0.0292
46349SOL     OW57038   3.954   4.686   7.191  0.4026  0.0127 -0.5807
46349SOL    HW157039   3.925   4.757   7.249 -0.6151 -1.3726  0.6843
46349SOL    HW257040   4.016   4.728   7.131 -1.6523  2.4099 -1.2029
46350SOL     OW57041  13.771   8.624   8.863 -0.2984  0.0014 -0.0629
46350SOL    HW157042  13.844   8.567   8.838 -1.3343 -0.9739 -0.9970
46350SOL    HW257043  13.724   8.641   8.781  1.6148  4.7922 -0.4847
46351SOL     OW57044   1.960  14.081   6.509 -0.1663 -0.2561 -0.2467
46351SOL    HW157045   1.866  14.062   6.499  0.3414 -2.2614 -2.0177
46351SOL    HW257046   2.002  13.995   6.506  1.8461  0.7000 -1.0334
46352SOL     OW57047   7.408   9.588   9.884 -0.0920  0.1041  0.1193
46352SOL    HW157048   7.503   9.581   9.879  0.3468  3.2403  1.6245
46352SOL    HW257049   7.386   9.659   9.825 -1.4356 -0.0814  0.3692
46353SOL     OW57050   7.946   9.839   7.898 -0.3134 -0.4589  0.0769
46353SOL    HW157051   7.868   9.885   7.868 -0.9080 -0.7421  1.1445
46353SOL    HW257052   7.933   9.748   7.871 -0.4824 -0.5599  0.4949
46354SOL     OW57053  10.779  11.656   7.778  0.2378 -0.3298  0.0643
46354SOL    HW157054  10.704  11.601   7.755  1.3679 -1.5903 -0.7707
46354SOL    HW257055  10.744  11.719   7.840 -1.1849 -1.8475  0.8879
46355SOL     OW57056   1.914  11.362   6.865 -0.5407  0.3407  0.2764
46355SOL    HW157057   1.963  11.410   6.932 -1.7462  3.5392 -0.9282
46355SOL    HW257058   1.971  11.290   6.840  1.8753  1.6833  1.5687
46356SOL     OW57059  11.723  12.303   0.640  0.2350 -0.8865  0.3259
46356SOL    HW157060  11.777  12.285   0.562 -0.5430 -0.6481 -0.2815
46356SOL    HW257061  11.654  12.360   0.608 -0.3601 -1.1576  1.1061
46357SOL     OW57062  11.874   0.735   1.111 -0.0465  0.2229  0.1731
46357SOL    HW157063  11.880   0.657   1.166  1.4126  1.6334  2.1793
46357SOL    HW257064  11.811   0.791   1.157 -1.4200  0.1086 -1.4774
46358SOL     OW57065   8.224  11.132  10.666  0.0194  0.0405 -0.7316
46358SOL    HW157066   8.203  11.143  10.759 -1.6965  1.7736 -1.2722
46358SOL    HW257067   8.192  11.044  10.645  1.8427 -1.0339  0.6108
46359SOL     OW57068   3.936   9.181  12.442 -0.3032 -0.2383  0.1220
46359SOL    HW157069   3.943   9.228  12.525  0.7375 -1.0096  0.4934
46359SOL    HW257070   3.890   9.242  12.384 -1.4730  0.1408  1.3798
46360SOL     OW57071  13.591   8.960   4.901  0.4712 -0.4576  0.6439
46360SOL    HW157072  13.585   8.926   4.990  0.0277  3.1963  2.1853
46360SOL    HW257073  13.510   8.931   4.859 -0.2053 -0.6562  2.0308
46361SOL     OW57074   0.280   1.065   5.832  0.3441 -0.6178  0.6363
46361SOL    HW157075   0.222   1.131   5.870  1.2689  0.4368  0.2983
46361SOL    HW257076   0.368   1.101   5.845  0.7147  0.3306 -3.2217
46362SOL     OW57077  14.033   0.727   2.977 -0.1604  0.2926 -0.2137
46362SOL    HW157078  13.983   0.776   3.042 -0.6826  0.0743 -0.4409
46362SOL    HW257079  13.969   0.667   2.938  0.2091  0.2147 -0.7165
46363SOL     OW57080   7.507  14.005  11.004  0.2517 -0.5119  0.0180
46363SOL    HW157081   7.561  14.045  10.935 -1.0686 -0.3226 -0.9406
46363SOL    HW257082   7.557  14.021  11.084  0.3609  2.1097 -0.4565
46364SOL     OW57083  10.910   9.507   0.428  0.4042 -0.2377  0.0892
46364SOL    HW157084  10.975   9.577   0.438  0.5646  0.0486 -2.3334
46364SOL    HW257085  10.962   9.426   0.428  0.5895 -0.1219 -0.2494
46365SOL     OW57086  12.634   1.842   8.472 -0.2823 -0.3468 -0.4613
46365SOL    HW157087  12.624   1.747   8.460 -1.2402 -0.0448 -2.3658
46365SOL    HW257088  12.711   1.850   8.527 -0.7177 -2.2627  0.5487
46366SOL     OW57089  13.705   6.242   1.926 -0.3312  0.4243  0.5128
46366SOL    HW157090  13.672   6.247   1.836 -0.3732  0.6481  0.5413
46366SOL    HW257091  13.722   6.333   1.950 -0.0601  0.3403  0.6349
46367SOL     OW57092   5.368   6.960  11.052  0.1366  0.4033  0.0694
46367SOL    HW157093   5.399   6.963  11.142  1.0426  0.3935 -0.2396
46367SOL    HW257094   5.305   7.032  11.045 -0.9918 -0.4464  1.0886
46368SOL     OW57095  12.874   9.551  10.843 -0.2447  0.4692  0.4042
46368SOL    HW157096  12.940   9.483  10.833 -0.2164  0.6863 -1.1474
46368SOL    HW257097  12.883   9.605  10.764 -1.9462  0.7664  0.3656
46369SOL     OW57098   7.656  12.593   3.394  0.3591 -0.2809 -0.3165
46369SOL    HW157099   7.624  12.542   3.319 -0.2945  0.5467 -0.6243
46369SOL    HW257100   7.646  12.685   3.366  1.1550  0.0228  0.3639
46370SOL     OW57101   5.328  12.554   7.151 -0.3424  0.0587  0.3063
46370SOL    HW157102   5.400  12.606   7.187 -0.8864 -0.0988  1.6609
46370SOL    HW257103   5.249  12.600   7.177 -0.7715  0.6306 -1.7996
46371SOL     OW57104   9.486   3.324   0.049  0.2531 -0.3669 -0.1009
46371SOL    HW157105   9.418   3.350  -0.013  0.4787 -0.0143 -0.2041
46371SOL    HW257106   9.567   3.326  -0.001  0.3946 -0.4016  0.1232
46372SOL     OW57107   9.230  12.816   4.962  0.3648 -0.1137  0.0038
46372SOL    HW157108   9.282  12.785   5.036  0.5764  0.6316  0.1715
46372SOL    HW257109   9.294  12.841   4.896  0.2676  1.6276  0.5347
46373SOL     OW57110   3.792   6.097  11.911 -0.0736  0.0087 -0.3478
46373SOL    HW157111   3.787   6.001  11.907 -0.2360 -0.0337  0.6364
46373SOL    HW257112   3.880   6.115  11.942 -0.4521  0.1168  0.7220
46374SOL     OW57113  10.636   2.805  13.583 -0.5938 -1.2050 -0.2708
46374SOL    HW157114  10.668   2.720  13.612  0.8922 -0.8979 -0.8899
46374SOL    HW257115  10.672   2.815  13.495 -2.9079 -1.0382 -1.2716
46375SOL     OW57116  12.501   8.097   5.992  0.3722  0.4413 -0.5170
46375SOL    HW157117  12.570   8.134   6.048 -0.2484  0.8550 -0.0174
46375SOL    HW257118  12.447   8.046   6.051  0.4555 -0.1900 -0.9795
46376SOL     OW57119  11.763  13.099  11.940 -0.5489  0.2099 -0.0074
46376SOL    HW157120  11.850  13.124  11.909 -1.0524  0.8028 -0.9744
46376SOL    HW257121  11.763  13.003  11.937 -0.1829  0.2259 -0.7237
46377SOL     OW57122   2.225  12.386   7.423  0.1792  0.0283  0.5713
46377SOL    HW157123   2.247  12.306   7.471 -0.3208 -0.6433 -0.3111
46377SOL    HW257124   2.191  12.356   7.339 -0.1794  1.1643  0.2921
46378SOL     OW57125   7.913   1.713   7.159 -0.3518 -0.1127  0.1701
46378SOL    HW157126   7.958   1.629   7.169 -1.0102 -0.3970  0.8540
46378SOL    HW257127   7.902   1.723   7.064 -0.5566 -0.9585  0.0942
46379SOL     OW57128  13.160   0.863   1.229 -0.1256 -0.0948 -0.0392
46379SOL    HW157129  13.244   0.900   1.204  0.1998  1.0962  2.5705
46379SOL    HW257130  13.180   0.773   1.256  0.6519  0.7136  2.2092
46380SOL     OW57131   3.395   2.844   6.075  0.1381 -0.4255 -0.1309
46380SOL    HW157132   3.322   2.826   6.015 -0.8623  0.8070  0.6721
46380SOL    HW257133   3.365   2.811   6.160  0.4902  0.1683  0.2282
46381SOL     OW57134   0.930  13.279   2.159 -0.5742 -0.4745 -0.8125
46381SOL    HW157135   1.007  13.253   2.109  1.2530  0.3639  1.4098
46381SOL    HW257136   0.886  13.196   2.180  0.7958 -1.1562 -0.5092
46382SOL     OW57137   6.883  11.359   0.529  0.0694  0.6060 -0.0797
46382SOL    HW157138   6.896  11.272   0.491  1.8896  0.8927 -0.2271
46382SOL    HW257139   6.886  11.344   0.624 -0.6652  0.3857 -0.0856
46383SOL     OW57140  10.008   2.520  11.029 -0.3922  0.4816 -0.2340
46383SOL    HW157141  10.096   2.502  11.062 -0.8246  1.4359  1.5467
46383SOL    HW257142   9.977   2.436  10.996  1.2967  0.2061 -1.2434
46384SOL     OW57143   8.178   1.658   4.504  0.4007 -0.1729 -0.3016
46384SOL    HW157144   8.092   1.651   4.463  0.8778 -2.3514 -1.0870
46384SOL    HW257145   8.239   1.669   4.431  0.9708 -0.9614  0.0335
46385SOL     OW57146   7.475   1.486   5.647  0.3079 -0.7581  0.2697
46385SOL    HW157147   7.428   1.548   5.703  0.5917 -1.6664  1.5510
46385SOL    HW257148   7.566   1.491   5.677  0.2043 -2.3593  0.9599
46386SOL     OW57149   7.420  13.618   8.356 -0.5319  0.4843  0.1560
46386SOL    HW157150   7.425  13.534   8.311 -0.5446  1.6894 -2.2348
46386SOL    HW257151   7.485  13.611   8.426 -0.7573 -1.6084  0.2197
46387SOL     OW57152   0.485  12.080   7.732  0.1983 -0.5568  0.0032
46387SOL    HW157153   0.503  12.053   7.642 -0.9450 -1.1327 -0.0758
46387SOL    HW257154   0.463  11.999   7.777  1.1586 -0.3269  0.9173
46388SOL     OW57155   8.403   7.304  10.787  0.4544  0.0234 -0.1137
46388SOL    HW157156   8.435   7.261  10.708  2.7894 -0.8315  1.1860
46388SOL    HW257157   8.382   7.393  10.760 -1.2741 -0.9258 -2.1731
46389SOL     OW57158   8.212   1.362  12.536 -0.3863 -0.3840  0.6181
46389SOL    HW157159   8.158   1.300  12.488  0.7693 -0.4275 -0.6631
46389SOL    HW257160   8.197   1.340  12.628 -1.9964 -0.8311  0.2771
46390SOL     OW57161   3.904   9.283   4.339 -0.6267 -0.3821 -0.3205
46390SOL    HW157162   3.895   9.340   4.416 -1.2289  0.4882 -1.0082
46390SOL    HW257163   3.960   9.333   4.279  0.8958 -1.6042  0.0396
46391SOL     OW57164  12.481   9.627   7.372  0.6653 -0.3320  0.2178
46391SOL    HW157165  12.560   9.577   7.391  0.3653 -0.6572  0.6292
46391SOL    HW257166  12.453   9.596   7.285 -0.0596 -1.6252  0.8633
46392SOL     OW57167  12.668   7.898  13.523  0.7009  0.0532 -0.3100
46392SOL    HW157168  12.752   7.924  13.562  2.0368 -0.5468 -2.5936
46392SOL    HW257169  12.649   7.968  13.460  0.0161 -0.3612 -0.5692
46393SOL     OW57170   9.985   6.875   8.634 -0.1236 -0.1712  0.2641
46393SOL    HW157171   9.952   6.960   8.607 -1.7674 -1.6232 -2.8146
46393SOL    HW257172   9.906   6.824   8.656  0.4637 -1.8472 -1.2332
46394SOL     OW57173  13.602  12.090   9.159 -0.4553  0.0133 -0.4756
46394SOL    HW157174  13.674  12.150   9.143 -1.4405  0.8662 -1.8614
46394SOL    HW257175  13.601  12.080   9.255  0.3445  1.4179 -0.2907
46395SOL     OW57176   1.094  12.235   1.677 -0.0941 -0.0242  0.1155
46395SOL    HW157177   1.048  12.318   1.681 -0.0543  0.1729 -2.2210
46395SOL    HW257178   1.026  12.170   1.659  0.3167  0.1101 -2.1903
46396SOL     OW57179  13.362  11.845   2.849 -0.1806  0.8616  0.3688
46396SOL    HW157180  13.444  11.795   2.846 -1.6459 -1.7207 -2.2504
46396SOL    HW257181  13.346  11.858   2.942  2.4065  0.0945  1.0211
46397SOL     OW57182  12.925   5.425   3.050 -0.2925  0.2099 -0.2056
46397SOL    HW157183  12.987   5.355   3.031  0.0331  0.2426  0.6961
46397SOL    HW257184  12.852   5.380   3.093  0.5852  0.5980  1.7756
46398SOL     OW57185  12.540  12.964  10.329  0.5396 -0.5719 -0.1269
46398SOL    HW157186  12.631  12.961  10.358  0.4400 -0.1850  0.2412
46398SOL    HW257187  12.503  13.040  10.374  0.0872 -0.6077 -0.4281
46399SOL     OW57188   7.904  11.118  12.053  0.0406 -0.2915  0.1226
46399SOL    HW157189   7.999  11.111  12.057  0.2566  1.5864 -0.6322
46399SOL    HW257190   7.882  11.185  12.118 -0.3811  1.5832 -1.8377
46400SOL     OW57191  11.122   9.814   5.067 -0.0915 -0.1434  0.5461
46400SOL    HW157192  11.043   9.865   5.049  0.6758  0.4488 -1.2679
46400SOL    HW257193  11.165   9.803   4.982  1.6848 -0.6399  1.4517
46401SOL     OW57194   0.439   2.573   9.121  0.0859 -0.0504  0.1144
46401SOL    HW157195   0.396   2.584   9.205 -0.1729 -1.3275  0.1737
46401SOL    HW257196   0.485   2.489   9.128  0.4131  0.0263 -0.8669
46402SOL     OW57197  13.302  11.053   5.824 -0.4217 -0.1969  0.1548
46402SOL    HW157198  13.312  11.148   5.836  0.4035 -0.3811  1.1454
46402SOL    HW257199  13.280  11.042   5.732 -0.4464  0.9515  0.0077
46403SOL     OW57200  14.118   6.049   6.977  0.2656 -0.4348 -0.4637
46403SOL    HW157201  14.042   5.991   6.979  1.0272 -1.4712  1.8204
46403SOL    HW257202  14.142   6.060   7.069  0.2119  3.4803 -0.7455
46404SOL     OW57203   7.134  13.581   3.066 -0.3383  0.0238  0.5804
46404SOL    HW157204   7.146  13.630   3.147  1.0978 -0.1102  0.4859
46404SOL    HW257205   7.040  13.571   3.057 -0.5232 -0.2245  2.3991
46405SOL     OW57206   5.325   3.451   1.474  0.7796  0.4412  0.3453
46405SOL    HW157207   5.284   3.525   1.429  3.3789  1.7856 -0.0135
46405SOL    HW257208   5.354   3.486   1.558 -0.1854 -0.9106  1.2993
46406SOL     OW57209   8.561   4.831   5.038  0.5335  0.2506 -0.4979
46406SOL    HW157210   8.631   4.774   5.069  1.7194  1.0270 -1.6477
46406SOL    HW257211   8.570   4.911   5.090 -0.4419 -0.1755  0.3598
46407SOL     OW57212   4.987   6.088   2.582 -0.1085 -0.0313 -0.0361
46407SOL    HW157213   4.905   6.054   2.545 -0.8025  0.2402  1.1621
46407SOL    HW257214   4.990   6.051   2.671 -0.4514  2.2366  1.0078
46408SOL     OW57215   6.458   8.158   0.710  0.1329  0.0717 -0.3481
46408SOL    HW157216   6.430   8.159   0.618  0.7632 -0.9020 -0.5648
46408SOL    HW257217   6.460   8.065   0.734 -1.2560  0.3607  1.0544
46409SOL     OW57218  10.574   4.227   3.651 -0.6982 -0.1000  0.2359
46409SOL    HW157219  10.573   4.137   3.682 -1.0634 -0.3500 -0.4954
46409SOL    HW257220  10.651   4.266   3.693  0.5154 -1.2575 -0.8386
46410SOL     OW57221   4.693   0.381   8.471 -0.2039  0.4620  0.1963
46410SOL    HW157222   4.781   0.347   8.488 -0.4446  0.3020  1.1547
46410SOL    HW257223   4.666   0.422   8.554 -0.6513  1.3734 -0.3777
46411SOL     OW57224   5.845  11.197   0.851  0.2178 -0.0834  0.0158
46411SOL    HW157225   5.797  11.178   0.932  0.1803 -0.9575 -0.2047
46411SOL    HW257226   5.896  11.118   0.834 -1.3464 -0.7372 -1.9284
46412SOL     OW57227   3.123   0.517  12.710 -0.4104 -0.4443  0.4053
46412SOL    HW157228   3.056   0.533  12.643  1.1339  0.8952 -0.8837
46412SOL    HW257229   3.157   0.604  12.731  2.2408 -1.1915 -0.4198
46413SOL     OW57230  12.457   2.319  13.789  0.1939  0.6766 -0.5835
46413SOL    HW157231  12.408   2.255  13.840 -1.0600 -0.5486 -3.1480
46413SOL    HW257232  12.519   2.266  13.738 -0.3224  1.5393 -2.1681
46414SOL     OW57233  12.086   5.378   0.550  0.2129 -0.3224 -0.4400
46414SOL    HW157234  12.136   5.336   0.619  0.2046  1.0597  0.4644
46414SOL    HW257235  12.148   5.438   0.508  0.0816 -0.7763 -1.2982
46415SOL     OW57236   8.203   6.272  13.967  0.0002  0.1793  0.4499
46415SOL    HW157237   8.223   6.222  14.046  0.8235  1.4140  1.0621
46415SOL    HW257238   8.163   6.209  13.907 -1.1351 -0.6807  2.0375
46416SOL     OW57239   0.067   7.087  10.265  0.0785 -0.2543 -0.6515
46416SOL    HW157240   0.003   7.023  10.297 -1.2124  0.7853 -1.0587
46416SOL    HW257241   0.134   7.034  10.221  0.2932 -1.4687  1.0460
46417SOL     OW57242   5.178   5.903   2.177  0.1284  0.3962  0.1278
46417SOL    HW157243   5.134   5.969   2.231  0.5552  0.5383  0.3077
46417SOL    HW257244   5.122   5.826   2.183  0.5694  0.1490  1.4308
46418SOL     OW57245   0.567  11.408   6.649 -0.1470  0.0309  0.1720
46418SOL    HW157246   0.503  11.441   6.586 -0.3088  0.9484  0.7947
46418SOL    HW257247   0.646  11.395   6.598 -0.3642  0.4621 -0.2880
46419SOL     OW57248   1.201   6.086   2.943  0.4157 -0.2873 -0.3514
46419SOL    HW157249   1.238   6.024   2.880  1.1312 -0.8103  0.5511
46419SOL    HW257250   1.119   6.115   2.903  0.4825 -1.1824 -1.1720
46420SOL     OW57251   3.054  12.138   0.180 -0.2432 -0.1551 -0.4893
46420SOL    HW157252   2.996  12.112   0.252  1.6799  0.9700  1.5883
46420SOL    HW257253   3.072  12.057   0.133 -1.5830 -0.9275  0.2514
46421SOL     OW57254  13.178   7.109  11.934  0.0815 -0.2614  0.2846
46421SOL    HW157255  13.133   7.174  11.880  0.4842  0.0216  0.2882
46421SOL    HW257256  13.126   7.029  11.924 -1.1169  0.3565  1.2255
46422SOL     OW57257  13.840   3.526   2.454 -0.7600 -0.6340 -0.2988
46422SOL    HW157258  13.900   3.586   2.499 -0.9431 -0.3605 -0.4188
46422SOL    HW257259  13.814   3.464   2.522 -1.4421  0.0829  0.1193
46423SOL     OW57260   7.565   8.188   7.203  0.6298  0.1709 -0.1787
46423SOL    HW157261   7.623   8.197   7.278  0.0242  0.5210  0.2577
46423SOL    HW257262   7.586   8.102   7.166  0.0963 -0.5498  1.1313
46424SOL     OW57263  12.384   6.121   7.189  0.0238  0.2436 -0.6559
46424SOL    HW157264  12.308   6.137   7.133 -0.2139 -0.6443 -0.5992
46424SOL    HW257265  12.438   6.060   7.139 -0.4046 -0.9155  0.2495
46425SOL     OW57266  11.282  13.075   8.335  0.1680  0.2228  0.6178
46425SOL    HW157267  11.293  13.058   8.429 -0.8197  0.0958  0.7142
46425SOL    HW257268  11.192  13.051   8.316  1.3914 -3.7881 -1.2280
46426SOL     OW57269   7.409   6.289   1.889 -0.2589 -0.3865  0.2556
46426SOL    HW157270   7.381   6.375   1.921  0.7875  0.4038 -0.8500
46426SOL    HW257271   7.418   6.236   1.969  0.4824  0.9649  1.1148
46427SOL     OW57272  10.692  12.661   2.178 -0.5102  0.7772 -0.1109
46427SOL    HW157273  10.689  12.756   2.190  0.8736  0.7959  0.2977
46427SOL    HW257274  10.782  12.637   2.201 -1.2882 -0.8564  1.4722
46428SOL     OW57275  12.250   9.371   3.300  0.2190 -0.1892  0.0033
46428SOL    HW157276  12.179   9.428   3.273  0.3595  0.6280  1.2759
46428SOL    HW257277  12.296   9.350   3.219  1.0088  2.6532 -0.3888
46429SOL     OW57278   3.248   5.666  10.327 -0.3308 -0.0502 -0.5720
46429SOL    HW157279   3.229   5.667  10.420  0.3219 -0.0018 -0.4386
46429SOL    HW257280   3.339   5.695  10.320 -0.4721  0.2529 -1.2459
46430SOL     OW57281   3.264   9.926   2.443  0.0049 -0.6267 -0.0912
46430SOL    HW157282   3.186   9.914   2.498  0.3316 -0.6592  0.3767
46430SOL    HW257283   3.235   9.903   2.355 -0.3132 -1.3852  0.2033
46431SOL     OW57284   3.618   9.203   7.875  0.2365  0.3524  0.0986
46431SOL    HW157285   3.679   9.169   7.808  0.6380 -1.3361  1.2559
46431SOL    HW257286   3.669   9.269   7.921  0.5621  0.2820 -0.1483
46432SOL     OW57287   1.470   5.159   6.511  0.0009  0.8842  0.0589
46432SOL    HW157288   1.439   5.194   6.594  1.9492 -1.6507  2.0527
46432SOL    HW257289   1.421   5.078   6.499  0.6190  0.5851 -0.5729
46433SOL     OW57290   4.857   1.931   3.003  0.2435 -0.2606 -0.2525
46433SOL    HW157291   4.778   1.981   2.980  1.6428  0.8678 -3.0626
46433SOL    HW257292   4.909   1.993   3.054  0.3501 -0.1763 -0.4648
46434SOL     OW57293  13.983   3.609   8.089 -0.1049 -0.4086  0.3048
46434SOL    HW157294  14.027   3.563   8.159 -1.0186 -0.7188  0.6948
46434SOL    HW257295  13.909   3.553   8.066  0.1291 -0.2664 -0.8487
46435SOL     OW57296   9.046   7.219   7.568 -0.3436 -0.1397  0.2893
46435SOL    HW157297   8.990   7.141   7.568 -1.3545  0.5435  1.7269
46435SOL    HW257298   8.986   7.290   7.546  0.7542  0.1687 -1.9895
46436SOL     OW57299   1.862  12.957  11.248  0.1864  0.1144 -0.5078
46436SOL    HW157300   1.787  12.961  11.189  3.4491  1.8581 -5.1344
46436SOL    HW257301   1.875  12.863  11.264 -2.0028 -0.2994 -0.7403
46437SOL     OW57302   2.236  13.413  11.030  0.2943  0.2239 -0.2651
46437SOL    HW157303   2.274  13.326  11.039 -2.6971 -1.3779 -1.4868
46437SOL    HW257304   2.253  13.437  10.939 -1.6860 -0.6733 -0.9361
46438SOL     OW57305  12.529   3.131   5.824 -0.3477 -0.2280  0.0891
46438SOL    HW157306  12.563   3.097   5.740 -1.5290 -1.8146  0.2112
46438SOL    HW257307  12.518   3.053   5.878  0.9091  0.8252  1.9577
46439SOL     OW57308  13.967   8.533  13.893 -0.0478  0.3854  0.1227
46439SOL    HW157309  13.947   8.473  13.821  0.1731  0.0796  0.3152
46439SOL    HW257310  13.987   8.616  13.850  2.3625 -0.3649 -0.3282
46440SOL     OW57311   4.479  13.613  10.643 -0.3157  0.0603  0.0937
46440SOL    HW157312   4.544  13.657  10.698 -0.1963 -0.4470  0.3555
46440SOL    HW257313   4.531  13.566  10.578 -0.3532 -1.6555  1.2686
46441SOL     OW57314   1.973  13.376  11.129 -0.0083 -0.4855 -0.0677
46441SOL    HW157315   2.026  13.425  11.066 -0.2380  0.3174  0.3579
46441SOL    HW257316   2.038  13.335  11.187  0.1750 -0.4964 -0.2759
46442SOL     OW57317   1.826   7.213   5.685  0.6557  0.7135 -0.0332
46442SOL    HW157318   1.882   7.136   5.693 -0.2366  0.0340 -0.2165
46442SOL    HW257319   1.886   7.287   5.692  1.7672  0.0067 -1.5388
46443SOL     OW57320   8.052   6.990   9.755 -0.3995 -0.1094 -0.2573
46443SOL    HW157321   8.029   6.934   9.681  0.3044  0.5702 -1.0169
46443SOL    HW257322   7.970   7.033   9.779 -0.4471  0.4278 -1.3188
46444SOL     OW57323   3.951  11.159   0.078 -0.3323  0.0232  0.1226
46444SOL    HW157324   3.930  11.082   0.131 -1.6906 -0.6446 -1.3073
46444SOL    HW257325   3.930  11.132  -0.012 -1.4661  2.2883 -0.3496
46445SOL     OW57326  10.454   7.685   4.156  0.1282 -0.0827 -0.2438
46445SOL    HW157327  10.389   7.751   4.177  0.1732  0.2150 -1.0256
46445SOL    HW257328  10.535   7.734   4.143 -0.2331 -0.0151 -2.7907
46446SOL     OW57329   5.532   7.168   8.530  0.5421  0.3623  0.0386
46446SOL    HW157330   5.451   7.117   8.532  0.9166 -0.3743 -1.7108
46446SOL    HW257331   5.574   7.148   8.614 -0.9454  0.5563  0.8599
46447SOL     OW57332  11.395  10.744   0.326  0.1006  0.1061  0.4704
46447SOL    HW157333  11.378  10.658   0.364  2.5323 -0.2275  0.9253
46447SOL    HW257334  11.476  10.734   0.277 -0.9612  1.5114 -1.7528
46448SOL     OW57335   4.916   0.382   3.829  0.2155  0.3616  0.5271
46448SOL    HW157336   4.939   0.398   3.737 -1.1442  0.4028  0.1786
46448SOL    HW257337   4.894   0.289   3.832 -1.2953  0.6896  0.4417
46449SOL     OW57338  10.437   7.861   7.652  0.1134  0.0875 -0.6347
46449SOL    HW157339  10.381   7.924   7.696 -0.7946  0.5553 -2.3917
46449SOL    HW257340  10.388   7.779   7.655  0.6724 -0.2322  0.4011
46450SOL     OW57341   0.433   2.030   1.252 -0.2531  0.3112 -0.0257
46450SOL    HW157342   0.417   1.951   1.304 -0.4718 -0.5259 -1.3401
46450SOL    HW257343   0.468   1.998   1.169  0.5061  1.6522 -0.2600
46451SOL     OW57344   0.382   7.718   8.268 -0.1352  0.0146  0.1561
46451SOL    HW157345   0.450   7.782   8.247  0.1046  0.3599  1.8440
46451SOL    HW257346   0.387   7.653   8.198  1.1508  0.6411 -0.3614
46452SOL     OW57347  10.990   6.134  10.213 -0.0633 -0.4257 -0.3097
46452SOL    HW157348  11.010   6.065  10.276  1.5873 -0.5489 -0.9137
46452SOL    HW257349  10.989   6.089  10.128  0.3066  0.1715 -0.6353
46453SOL     OW57350   9.733  11.794   2.636 -0.4006 -0.1165 -0.0834
46453SOL    HW157351   9.792  11.869   2.623  1.9943 -1.8765 -0.1262
46453SOL    HW257352   9.704  11.803   2.727 -0.9130  1.3502 -0.3699
46454SOL     OW57353  10.130   8.236   3.483 -0.3323 -0.9729  0.2096
46454SOL    HW157354  10.040   8.203   3.489 -0.2318 -1.3392 -0.2756
46454SOL    HW257355  10.157   8.247   3.574 -0.5534 -1.7229  0.3726
46455SOL     OW57356   6.700   6.048   7.716 -0.7403  0.3958 -0.5648
46455SOL    HW157357   6.780   5.996   7.711  0.7306  2.0728  2.5349
46455SOL    HW257358   6.699   6.098   7.634 -0.0285 -1.4942 -1.7753
46456SOL     OW57359   2.418   3.559   5.509 -0.3248  0.0027 -0.3480
46456SOL    HW157360   2.383   3.646   5.528 -0.3292  0.5049 -2.4362
46456SOL    HW257361   2.433   3.520   5.596 -0.3309  2.0604  0.6461
46457SOL     OW57362   7.087  10.767  11.582  0.0895  0.4487 -0.7207
46457SOL    HW157363   7.067  10.675  11.561  0.8293  0.1660 -0.2566
46457SOL    HW257364   7.154  10.761  11.650  0.9936  1.3296 -1.4937
46458SOL     OW57365   0.220   7.581   0.117 -0.1456 -0.3741  0.1265
46458SOL    HW157366   0.145   7.610   0.168 -0.5398 -1.9686  0.5210
46458SOL    HW257367   0.199   7.490   0.094  2.0824 -1.2129  1.1119
46459SOL     OW57368  10.215   2.925   7.835  0.3370  0.0313  0.0866
46459SOL    HW157369  10.247   2.852   7.782  0.5778 -0.9553  1.5576
46459SOL    HW257370  10.292   2.977   7.854  0.1392  0.8185 -1.1146
46460SOL     OW57371   9.616   4.702   1.724  0.3096  0.7530  0.5260
46460SOL    HW157372   9.645   4.748   1.645 -0.0547  2.9763  1.6437
46460SOL    HW257373   9.531   4.739   1.745  0.4871  0.3493  2.0936
46461SOL     OW57374   1.007  11.842   6.444  0.1656  0.4079  0.3613
46461SOL    HW157375   1.026  11.886   6.361  0.9885 -2.1605 -0.9477
46461SOL    HW257376   0.971  11.757   6.417  1.6757 -1.0274  2.5721
46462SOL     OW57377   1.501   7.634   7.870  0.1742 -0.2592 -0.5932
46462SOL    HW157378   1.580   7.687   7.880  0.1924 -0.1560 -1.2480
46462SOL    HW257379   1.489   7.625   7.775 -0.3037 -0.7157 -0.4993
46463SOL     OW57380  12.725   8.129  13.139 -0.0281  0.0514 -0.2548
46463SOL    HW157381  12.685   8.113  13.225 -0.1310 -0.2194 -0.3520
46463SOL    HW257382  12.724   8.224  13.130  0.8113  0.1411  0.4358
46464SOL     OW57383   5.599   0.754   9.931 -0.2523  0.0750  0.9725
46464SOL    HW157384   5.563   0.769  10.018 -2.5461  0.1811  0.0903
46464SOL    HW257385   5.669   0.690   9.944  0.3045  1.0168  3.0142
46465SOL     OW57386   0.398   2.113   3.226 -0.0720 -0.4671  0.6710
46465SOL    HW157387   0.353   2.030   3.238 -1.7185  0.2951  0.0401
46465SOL    HW257388   0.330   2.174   3.199  1.3596  0.7123 -0.4870
46466SOL     OW57389   3.723   9.296  12.246 -0.3921 -0.2664 -0.4624
46466SOL    HW157390   3.649   9.349  12.275  0.3747 -0.4984  2.0959
46466SOL    HW257391   3.765   9.349  12.178 -1.2027  1.1869  0.1324
46467SOL     OW57392   3.794  12.807  10.672  0.2899  0.1567 -0.2142
46467SOL    HW157393   3.868  12.866  10.672  0.2475  0.2120 -0.4422
46467SOL    HW257394   3.778  12.787  10.764  1.1602 -0.5746 -0.2141
46468SOL     OW57395   4.540   6.747   9.852  0.2784 -1.0046  0.1514
46468SOL    HW157396   4.602   6.722   9.783  0.4488  1.3579 -0.6207
46468SOL    HW257397   4.594   6.794   9.916 -0.6482  0.9555 -0.4603
46469SOL     OW57398   5.085   8.859   8.842  0.6313  0.5955 -0.0236
46469SOL    HW157399   5.009   8.820   8.887  0.9924  0.7872  0.7760
46469SOL    HW257400   5.047   8.926   8.785  0.2788  1.8401  1.5764
46470SOL     OW57401   5.242   5.794  10.162  0.1344 -0.3753 -0.3517
46470SOL    HW157402   5.208   5.854  10.228 -0.4585 -1.5439  0.4454
46470SOL    HW257403   5.333   5.821  10.148 -0.1052  0.6507  0.0287
46471SOL     OW57404   9.931   4.021  10.446 -0.2704  0.1034  0.5426
46471SOL    HW157405   9.994   4.073  10.397 -1.4144 -0.4700 -1.6607
46471SOL    HW257406   9.846   4.053  10.417 -0.9919 -1.8779  0.3118
46472SOL     OW57407  13.738   3.296   3.471 -0.1480  0.2293 -0.2903
46472SOL    HW157408  13.682   3.367   3.438  1.3826  2.0600  0.8119
46472SOL    HW257409  13.718   3.291   3.564  1.3428  0.8100  0.0889
46473SOL     OW57410   7.138   4.051   4.096  0.9053  0.2420  0.1722
46473SOL    HW157411   7.173   4.127   4.143  0.0400  0.6945  0.1008
46473SOL    HW257412   7.206   4.029   4.033  1.6539  0.2478  0.9497
46474SOL     OW57413   5.876   7.093   7.102 -0.4202 -0.0183  0.2510
46474SOL    HW157414   5.926   7.155   7.049 -0.9750  1.4262  1.3397
46474SOL    HW257415   5.923   7.089   7.185  0.4821 -2.3126 -0.2973
46475SOL     OW57416  11.391  10.048   5.056  0.0950 -0.2450  0.2828
46475SOL    HW157417  11.384  10.143   5.053  1.2620 -0.0655  1.7134
46475SOL    HW257418  11.473  10.028   5.010  0.4325 -0.4302  0.9368
46476SOL     OW57419   5.893   9.256   2.042 -0.4881 -0.4662  0.0231
46476SOL    HW157420   5.837   9.229   1.968 -0.6000 -1.6254  0.5110
46476SOL    HW257421   5.849   9.219   2.119  0.8637 -1.2627  0.4331
46477SOL     OW57422   8.886   1.108   6.841  0.6202  0.2527  0.3186
46477SOL    HW157423   8.982   1.104   6.835  0.4854 -1.0129 -2.5355
46477SOL    HW257424   8.859   1.016   6.847 -0.4459  0.5853  0.8391
46478SOL     OW57425   0.572   2.029   7.568  0.0478 -0.1011  0.0737
46478SOL    HW157426   0.623   1.989   7.498  0.3881  2.4377 -1.2128
46478SOL    HW257427   0.637   2.073   7.623 -0.4724  0.3920  0.3037
46479SOL     OW57428  12.844  10.933   3.965 -0.3208  0.3169  0.2801
46479SOL    HW157429  12.882  11.010   3.923 -0.0315 -0.1065 -0.2430
46479SOL    HW257430  12.750  10.950   3.964 -0.3235  0.3299 -0.5384
46480SOL     OW57431  10.762   3.237  13.666 -0.0408 -0.3002  0.0762
46480SOL    HW157432  10.833   3.229  13.730  0.6401 -0.1868 -0.6347
46480SOL    HW257433  10.807   3.233  13.581 -0.6693  1.5351 -0.3974
46481SOL     OW57434   0.490   8.427   6.708 -0.0222  0.5076  0.3800
46481SOL    HW157435   0.533   8.453   6.790 -1.5120 -1.0600  1.7680
46481SOL    HW257436   0.456   8.509   6.672  0.2899  1.2040  1.5951
46482SOL     OW57437   5.562   5.307  13.194  0.2355 -0.0248  0.1730
46482SOL    HW157438   5.569   5.397  13.161  0.4989  0.7667  2.2644
46482SOL    HW257439   5.637   5.262  13.154  1.7590  1.4386  1.2639
46483SOL     OW57440   6.822   6.200   0.197 -0.2017  0.0623 -0.0400
46483SOL    HW157441   6.900   6.216   0.144  0.3640  0.9594  1.0190
46483SOL    HW257442   6.769   6.141   0.145  1.7070 -1.4985 -0.3170
46484SOL     OW57443  13.878   1.644   2.830 -0.8347 -0.0159 -0.5494
46484SOL    HW157444  13.971   1.626   2.842 -0.5878  0.2569 -1.8632
46484SOL    HW257445  13.853   1.693   2.908  0.4374  1.0042 -0.7461
46485SOL     OW57446   5.857   5.025   1.521  0.1583  0.3905  0.6073
46485SOL    HW157447   5.873   4.974   1.601  1.0709  1.7833  1.3505
46485SOL    HW257448   5.907   5.106   1.533 -0.6922  1.1835 -0.8338
46486SOL     OW57449   8.566   1.086   7.541  0.4294  0.6508  0.0128
46486SOL    HW157450   8.634   1.031   7.502  1.0627  0.8903  0.7434
46486SOL    HW257451   8.489   1.030   7.546  0.3986  0.5423 -1.3392
46487SOL     OW57452   0.357   2.725  10.736 -0.0511 -0.2884 -0.0963
46487SOL    HW157453   0.379   2.799  10.679  0.7125  0.3308  0.9754
46487SOL    HW257454   0.442   2.692  10.766 -0.4150 -1.1459  0.0386
46488SOL     OW57455   7.001   8.390   7.161  0.4475  0.0991  0.2214
46488SOL    HW157456   7.046   8.454   7.217  1.3724 -0.6253  0.3315
46488SOL    HW257457   7.040   8.403   7.074 -1.6598  1.8906 -0.5636
46489SOL     OW57458  10.111   0.707   9.393  0.0132  0.1152  0.4291
46489SOL    HW157459  10.204   0.716   9.416  0.3293 -2.1267  0.2328
46489SOL    HW257460  10.106   0.737   9.302  0.7568 -0.5832  0.1389
46490SOL     OW57461   5.431   8.556  10.984 -0.1323  0.3655 -0.2632
46490SOL    HW157462   5.456   8.477  11.032 -0.7208  0.2942 -0.0577
46490SOL    HW257463   5.497   8.621  11.007  0.3192 -0.0455 -0.3791
46491SOL     OW57464  11.418   3.165  10.429 -0.1361 -0.0272  0.0194
46491SOL    HW157465  11.471   3.116  10.366 -0.9735 -0.7551 -0.1436
46491SOL    HW257466  11.478   3.189  10.499  0.4962 -0.4491 -0.3743
46492SOL     OW57467  11.579   7.886   4.015  0.2125 -0.5809 -0.3381
46492SOL    HW157468  11.616   7.973   4.000  0.5987 -0.8700 -1.1357
46492SOL    HW257469  11.618   7.857   4.098  1.3700 -0.6550 -0.8888
46493SOL     OW57470  12.542   3.384  14.040 -0.3046  0.4171  0.8579
46493SOL    HW157471  12.541   3.312  13.977 -0.9400  2.0939 -1.1792
46493SOL    HW257472  12.514   3.345  14.122  0.9876 -1.9650  0.2408
46494SOL     OW57473   6.613   2.923   7.351  0.0333 -0.4165 -0.2149
46494SOL    HW157474   6.587   2.905   7.441  0.1988 -0.0114 -0.0837
46494SOL    HW257475   6.625   3.018   7.348  2.7900 -0.6733  0.0951
46495SOL     OW57476  10.587   6.553  11.716  0.1607 -0.0403 -0.1908
46495SOL    HW157477  10.492   6.561  11.705  0.2443 -0.7125 -1.5493
46495SOL    HW257478  10.620   6.642  11.703 -0.3464  0.3869  1.2635
46496SOL     OW57479  10.866  11.410  13.646  0.0508  0.4319 -0.1228
46496SOL    HW157480  10.935  11.350  13.675  0.8314  0.6947 -1.3646
46496SOL    HW257481  10.790  11.387  13.700  0.7624 -0.6686  0.4498
46497SOL     OW57482   5.323   1.110   4.141  0.2786 -0.2276 -0.2415
46497SOL    HW157483   5.366   1.065   4.214 -0.4072 -1.2674 -0.4553
46497SOL    HW257484   5.387   1.110   4.071  0.6812  0.1239  0.1231
46498SOL     OW57485   3.154   4.673   2.283  0.6123  0.7149 -0.4906
46498SOL    HW157486   3.149   4.767   2.266 -1.6315  1.3414  2.7984
46498SOL    HW257487   3.112   4.633   2.207  1.1975  2.3633 -1.7415
46499SOL     OW57488   8.824   7.369   3.273 -0.3416  0.1693  0.3997
46499SOL    HW157489   8.830   7.463   3.254 -0.1644  0.2870  1.0300
46499SOL    HW257490   8.830   7.363   3.368 -0.9942 -0.4356  0.4088
46500SOL     OW57491  13.071   0.391   7.648  0.2443 -0.1548 -0.4896
46500SOL    HW157492  13.107   0.467   7.601 -2.9694  1.3619 -0.7933
46500SOL    HW257493  12.994   0.366   7.597  0.1187 -2.4219  0.7010
46501SOL     OW57494   0.386   0.465   2.880  0.1168 -0.2061 -0.1268
46501SOL    HW157495   0.315   0.479   2.942 -2.1767  2.1868 -3.0103
46501SOL    HW257496   0.367   0.380   2.840  0.8276 -1.1012  1.3465
46502SOL     OW57497  12.073   9.087   7.236  0.5221  0.7292  0.0467
46502SOL    HW157498  12.045   9.012   7.185 -1.4203  1.1400  0.4254
46502SOL    HW257499  12.121   9.050   7.310 -0.0776 -0.1162  0.0251
46503SOL     OW57500  10.092  10.568   2.411  0.2278 -0.1741  0.2246
46503SOL    HW157501  10.082  10.636   2.478 -2.4814 -0.1312 -0.1193
46503SOL    HW257502  10.056  10.489   2.451  0.6421 -0.7007 -0.4174
46504SOL     OW57503   9.605   7.585   1.776  0.4232 -0.3739  0.1400
46504SOL    HW157504   9.619   7.672   1.740 -0.6273 -0.3901 -0.3490
46504SOL    HW257505   9.680   7.570   1.834  1.0070  0.5346 -0.3604
46505SOL     OW57506   8.542  10.973   4.805 -0.0126 -0.1803  0.4380
46505SOL    HW157507   8.589  10.935   4.880 -0.0752  0.4202  0.7865
46505SOL    HW257508   8.539  11.067   4.824 -0.6178 -0.1091  0.0071
46506SOL     OW57509   9.343   8.432  13.589  0.8351  0.0294  0.0997
46506SOL    HW157510   9.302   8.505  13.636 -0.4427 -0.8850  0.4749
46506SOL    HW257511   9.342   8.460  13.497  0.9970  0.7709  0.3126
46507SOL     OW57512  12.587  10.140   2.455 -0.1372  0.0380  0.1808
46507SOL    HW157513  12.652  10.163   2.388  0.2701 -0.3879  0.4160
46507SOL    HW257514  12.632  10.074   2.509 -0.6436  0.0029  0.5621
46508SOL     OW57515   9.156   5.919  13.701 -0.7207 -0.7647  0.3418
46508SOL    HW157516   9.161   5.921  13.797 -1.3118  1.4692  0.3859
46508SOL    HW257517   9.236   5.962  13.671 -1.6561  0.8324 -0.0310
46509SOL     OW57518   6.141   8.226  10.530  0.2422 -0.2402  0.2398
46509SOL    HW157519   6.191   8.306  10.549 -0.4450 -0.2759  2.3769
46509SOL    HW257520   6.050   8.250  10.549 -0.1581 -1.1436 -0.4676
46510SOL     OW57521  12.366   4.406   3.259 -0.6630 -0.2114 -0.3589
46510SOL    HW157522  12.291   4.466   3.264  0.1513  0.7185  1.6111
46510SOL    HW257523  12.425   4.446   3.195 -1.9028 -1.1185 -2.1777
46511SOL     OW57524   7.787   9.137   9.056  0.0267  0.3339 -0.6104
46511SOL    HW157525   7.838   9.202   9.104  0.8908  0.1235 -1.2284
46511SOL    HW257526   7.845   9.062   9.048 -1.4735 -1.1698  1.4745
46512SOL     OW57527   2.593   4.952  11.470 -0.9871  0.1407 -0.3540
46512SOL    HW157528   2.671   4.981  11.423 -1.9832  0.5318 -1.8698
46512SOL    HW257529   2.589   5.008  11.547  0.1193  0.2388 -0.3534
46513SOL     OW57530   4.204   6.338   0.559 -0.9275 -0.2191 -0.5476
46513SOL    HW157531   4.297   6.313   0.564 -0.6342  0.8690 -0.1879
46513SOL    HW257532   4.181   6.327   0.466 -0.3967 -0.3673 -0.6650
46514SOL     OW57533   6.392  10.839   1.589 -0.5240  0.0563 -0.2887
46514SOL    HW157534   6.303  10.806   1.576 -0.9687  0.7330  0.9342
46514SOL    HW257535   6.427  10.848   1.500 -2.0058  0.6976 -0.8371
46515SOL     OW57536  12.852   7.254   8.581  0.0794  0.2471 -0.9317
46515SOL    HW157537  12.861   7.318   8.510  0.5449  0.8976 -0.2937
46515SOL    HW257538  12.904   7.179   8.552  0.0514  0.3998 -1.3932
46516SOL     OW57539   3.650   5.969  13.523 -0.2477 -0.9848  0.6845
46516SOL    HW157540   3.565   6.007  13.499  0.1855 -1.0250 -1.1005
46516SOL    HW257541   3.652   5.972  13.618 -0.8002  2.1810  0.6944
46517SOL     OW57542   4.353   9.533   8.418 -0.2393 -0.0625 -0.1651
46517SOL    HW157543   4.400   9.450   8.425 -1.1308 -0.8437 -2.4709
46517SOL    HW257544   4.392   9.577   8.343 -0.8700  0.8738  0.0355
46518SOL     OW57545   9.506   3.292  12.454  0.5825 -0.2041  0.0962
46518SOL    HW157546   9.421   3.309  12.413  0.4288 -0.7840  0.1619
46518SOL    HW257547   9.494   3.320  12.545  0.7626  0.5991 -0.1218
46519SOL     OW57548  10.901   9.997   5.567  0.5190  0.1808 -0.0127
46519SOL    HW157549  10.880   9.994   5.474  0.3222 -0.5065  0.0496
46519SOL    HW257550  10.919   9.906   5.591 -1.2625  0.0622  1.0360
46520SOL     OW57551   6.068   5.984  11.712 -0.2147 -0.6412 -0.0390
46520SOL    HW157552   6.075   5.996  11.617  0.1571  0.7308  0.1421
46520SOL    HW257553   6.091   5.892  11.726  2.9103 -0.1296 -0.9842
46521SOL     OW57554   1.489   9.068  12.435  0.0781  0.4223 -0.3137
46521SOL    HW157555   1.457   9.099  12.519  0.3457  0.5611 -0.2628
46521SOL    HW257556   1.422   9.007  12.405 -0.2385  0.7183 -0.2129
46522SOL     OW57557   1.522  12.319   3.846  0.3583  0.4680 -0.2900
46522SOL    HW157558   1.462  12.299   3.918 -0.6424  0.2020 -1.1659
46522SOL    HW257559   1.583  12.383   3.882  0.7509 -0.7036  1.1957
46523SOL     OW57560  11.189   0.897   2.673  0.6388 -0.7596  0.0337
46523SOL    HW157561  11.166   0.928   2.586  0.8296 -0.5318  0.0645
46523SOL    HW257562  11.108   0.858   2.707  0.6226 -1.0539 -0.3315
46524SOL     OW57563   9.669   8.341   5.472 -0.2653 -0.0875  0.3337
46524SOL    HW157564   9.721   8.306   5.399 -1.3425 -0.4276 -0.2901
46524SOL    HW257565   9.714   8.422   5.496  0.3797 -0.2137 -0.3891
46525SOL     OW57566  13.457   1.849   9.162  0.0350  0.5517  0.1216
46525SOL    HW157567  13.445   1.941   9.182 -0.4479  0.2642  1.2282
46525SOL    HW257568  13.398   1.831   9.088  0.3827  1.1906 -0.3164
46526SOL     OW57569   5.302   6.442   4.481  0.0202  0.6098 -0.0707
46526SOL    HW157570   5.383   6.492   4.496  0.8997 -0.8785  0.3174
46526SOL    HW257571   5.331   6.351   4.476 -1.2268  0.2741 -3.1505
46527SOL     OW57572   7.387   1.624   3.190  0.3154  0.2979 -0.0891
46527SOL    HW157573   7.413   1.578   3.270  0.5486  0.8619  0.1604
46527SOL    HW257574   7.338   1.700   3.220  0.8577  0.8047 -0.4593
46528SOL     OW57575   4.406  13.432  10.083  0.0554  0.6170 -0.3360
46528SOL    HW157576   4.385  13.517  10.043  0.4594  0.3117 -1.2407
46528SOL    HW257577   4.369  13.368  10.022 -0.3281  0.1376  0.3894
46529SOL     OW57578   2.710   6.593   5.651  0.3127 -0.1831  0.8440
46529SOL    HW157579   2.765   6.670   5.663  0.0611  0.2141 -0.3878
46529SOL    HW257580   2.769   6.526   5.618  0.1528  0.1020 -0.0303
46530SOL     OW57581   2.913   2.429  13.555 -0.2555  0.1371 -0.3921
46530SOL    HW157582   2.954   2.501  13.509 -1.0460  0.4732 -0.5874
46530SOL    HW257583   2.949   2.350  13.514 -0.1318  0.4294 -0.8471
46531SOL     OW57584   0.710   1.185   3.828  0.2081  0.0589  0.6174
46531SOL    HW157585   0.771   1.235   3.882 -0.4906  1.4938  0.1188
46531SOL    HW257586   0.691   1.242   3.754 -0.5088 -1.0134 -0.0518
46532SOL     OW57587   4.886   9.956  13.303  0.0815  0.3599 -0.0430
46532SOL    HW157588   4.826   9.999  13.364  0.1593  0.4148 -0.0055
46532SOL    HW257589   4.956   9.922  13.358 -0.2183 -0.2304 -0.0113
46533SOL     OW57590  11.844   0.528  13.714 -0.2130 -0.0935  0.0040
46533SOL    HW157591  11.934   0.499  13.706 -0.6191 -1.1982 -0.7535
46533SOL    HW257592  11.850   0.621  13.737  1.1278 -0.6459  2.2216
46534SOL     OW57593   6.046   2.618   9.049 -0.4080  0.3567 -0.1977
46534SOL    HW157594   6.122   2.598   9.104  1.2840  2.8791 -1.4172
46534SOL    HW257595   5.991   2.674   9.104 -0.6602 -0.2281  0.1625
46535SOL     OW57596  12.106   4.353   2.083 -0.6696 -0.0114 -0.3681
46535SOL    HW157597  12.164   4.424   2.055 -1.1991  0.5864  0.0052
46535SOL    HW257598  12.083   4.307   2.003  1.6125 -1.3089 -0.3833
46536SOL     OW57599  11.202   2.738   5.717 -0.6463  0.2325 -0.0197
46536SOL    HW157600  11.170   2.675   5.652 -1.3534 -0.7307  1.2228
46536SOL    HW257601  11.152   2.818   5.698 -2.7240 -0.7665  0.8655
46537SOL     OW57602   5.563   8.543  10.194  0.4025  0.5481  0.3508
46537SOL    HW157603   5.517   8.509  10.118  0.4283 -1.2782  1.0965
46537SOL    HW257604   5.498   8.597  10.239 -0.1496  0.2333 -0.0630
46538SOL     OW57605   6.961   2.678   6.835 -0.3819  0.2960 -0.1430
46538SOL    HW157606   6.964   2.670   6.931  2.7941 -1.2101 -0.2454
46538SOL    HW257607   6.963   2.772   6.819  4.0549  0.7117  1.4432
46539SOL     OW57608   3.406   6.780   9.525  0.5019 -0.8326 -0.1165
46539SOL    HW157609   3.484   6.805   9.475  1.3020 -1.2796  0.8750
46539SOL    HW257610   3.364   6.863   9.547  1.9030 -0.4185  1.2081
46540SOL     OW57611   2.589   3.794   2.043 -0.3292 -0.1838 -0.1700
46540SOL    HW157612   2.652   3.725   2.023  0.0410  0.2694 -0.5854
46540SOL    HW257613   2.567   3.833   1.959 -1.2620 -0.4038 -0.0441
46541SOL     OW57614   1.809  10.510   6.561  0.0779 -0.2272 -0.1159
46541SOL    HW157615   1.881  10.552   6.609  0.0740 -0.0545 -0.2598
46541SOL    HW257616   1.824  10.416   6.573  0.8298 -0.2155 -0.8811
46542SOL     OW57617   6.321  11.423   2.033 -0.4979 -0.0782  0.0879
46542SOL    HW157618   6.359  11.360   2.093  1.2221 -0.1957 -1.0768
46542SOL    HW257619   6.391  11.444   1.971 -1.6353  1.4497 -0.7634
46543SOL     OW57620   2.363   0.000   7.107  0.9071  0.3797 -0.3503
46543SOL    HW157621   2.292   0.024   7.048  0.4284  0.6394  0.3184
46543SOL    HW257622   2.427  -0.043   7.051  1.9507  3.3947 -1.6995
46544SOL     OW57623  10.455   1.000  12.051  0.4627 -0.2003 -0.5115
46544SOL    HW157624  10.531   1.038  12.007  0.2560  1.1657  0.2519
46544SOL    HW257625  10.492   0.948  12.122  0.7185 -0.2217 -0.6602
46545SOL     OW57626   2.361   1.860   6.949 -0.2276 -0.2753  0.5692
46545SOL    HW157627   2.320   1.829   7.030  0.2368  1.4967  1.5278
46545SOL    HW257628   2.455   1.849   6.965 -0.1493 -3.1235 -1.1214
46546SOL     OW57629   6.091   8.650   6.649 -0.2714  0.2704 -0.1830
46546SOL    HW157630   6.159   8.603   6.600 -0.5059  1.0058 -1.2641
46546SOL    HW257631   6.062   8.588   6.715 -0.0348 -0.8366 -1.0746
46547SOL     OW57632  11.157  10.258   3.052  0.2765 -0.2108  0.4010
46547SOL    HW157633  11.152  10.162   3.055 -1.6265 -0.2586 -1.5604
46547SOL    HW257634  11.144  10.285   3.143 -0.3595 -1.7966  0.8212
46548SOL     OW57635   7.722  10.505   6.080 -0.0500 -0.0621  0.4894
46548SOL    HW157636   7.669  10.504   6.000  0.0824 -0.6839  0.4039
46548SOL    HW257637   7.701  10.589   6.122  0.4394  0.6061 -0.5646
46549SOL     OW57638  10.477  13.756   8.119  0.4335 -0.2678 -0.1008
46549SOL    HW157639  10.554  13.810   8.136  1.3129 -1.8891  1.3923
46549SOL    HW257640  10.512  13.677   8.077 -0.7447 -0.0195 -1.6491
46550SOL     OW57641   2.794   5.278  12.902  0.1479 -0.2552  0.3974
46550SOL    HW157642   2.757   5.350  12.953 -2.2900 -0.1355 -1.3654
46550SOL    HW257643   2.827   5.320  12.823 -2.9877 -1.0718 -1.5373
46551SOL     OW57644  11.068   7.368  13.585 -0.5459  0.0771  0.1374
46551SOL    HW157645  11.133   7.298  13.595 -1.5169 -0.9932 -0.8109
46551SOL    HW257646  11.078   7.396  13.494 -0.5881  0.7576  0.3418
46552SOL     OW57647   4.835  10.567   8.629 -0.0112 -0.3784  0.8418
46552SOL    HW157648   4.752  10.553   8.583  0.0402 -0.6688  0.8325
46552SOL    HW257649   4.841  10.493   8.690  0.4666 -0.6210  0.5089
46553SOL     OW57650   6.720   1.940   4.865  0.1615 -0.0628 -0.1102
46553SOL    HW157651   6.700   1.919   4.773 -0.8057 -2.1018  0.4975
46553SOL    HW257652   6.646   1.905   4.914  0.9397  0.4802  1.5102
46554SOL     OW57653   8.205   9.511  11.550 -1.2701 -0.6324 -0.1923
46554SOL    HW157654   8.113   9.531  11.566 -0.8803  0.1628  1.1652
46554SOL    HW257655   8.253   9.564  11.613 -0.0078 -2.9970  0.9987
46555SOL     OW57656   2.121   4.094   4.277  0.1209 -0.5648 -0.1496
46555SOL    HW157657   2.043   4.067   4.325  1.4621 -2.2496  1.2346
46555SOL    HW257658   2.187   4.107   4.345  1.2521  0.0898 -1.3297
46556SOL     OW57659   8.779  10.316   1.066  0.3223  0.6628  0.3815
46556SOL    HW157660   8.807  10.237   1.020 -0.1043 -0.6315  2.2571
46556SOL    HW257661   8.846  10.381   1.045  2.2087 -1.0052  1.0042
46557SOL     OW57662   3.762   0.308   7.115 -0.4118 -0.2842  0.4984
46557SOL    HW157663   3.699   0.291   7.044 -1.7714 -0.5808  1.7200
46557SOL    HW257664   3.781   0.221   7.150 -1.0160 -0.0169  1.5244
46558SOL     OW57665   6.260  12.478  13.731  0.2291 -0.4444 -0.0993
46558SOL    HW157666   6.325  12.517  13.673  2.3970 -0.3045  2.2608
46558SOL    HW257667   6.299  12.483  13.818 -2.8887 -0.5782  1.4412
46559SOL     OW57668   8.573   3.057   9.446  0.0025  0.2497 -0.3534
46559SOL    HW157669   8.559   3.081   9.355  0.7958  1.4209 -0.1875
46559SOL    HW257670   8.574   3.141   9.493  1.2628 -0.2058  0.4891
46560SOL     OW57671   8.795  11.652   0.434  0.0542  0.1908  0.4021
46560SOL    HW157672   8.859  11.615   0.374 -0.8216 -0.6273 -0.0454
46560SOL    HW257673   8.821  11.744   0.443  3.0402 -0.7218  2.5529
46561SOL     OW57674  13.381  12.902   0.594 -0.8713 -0.0608 -0.7327
46561SOL    HW157675  13.474  12.915   0.580  0.3192 -3.6335  2.1308
46561SOL    HW257676  13.355  12.839   0.527 -1.3451  1.0832 -1.6545
46562SOL     OW57677   1.083   9.314   7.843 -0.6941 -0.4100  0.1942
46562SOL    HW157678   1.057   9.254   7.774 -0.5623 -0.0771 -0.1491
46562SOL    HW257679   1.138   9.379   7.799 -1.3317  0.3119  0.4429
46563SOL     OW57680   2.635   7.497   4.493  0.1357 -0.1326 -0.0301
46563SOL    HW157681   2.658   7.578   4.447  1.4337 -1.0390 -1.0344
46563SOL    HW257682   2.710   7.439   4.480 -1.3089 -1.9960 -0.5137
46564SOL     OW57683   2.031   6.026   4.106 -0.1023 -0.3250  0.1230
46564SOL    HW157684   1.964   5.993   4.166 -1.1284  0.9306 -0.3034
46564SOL    HW257685   2.010   5.985   4.022  0.3413 -0.7958  0.2386
46565SOL     OW57686   4.475   2.296   7.073 -0.3315 -0.4863  0.0644
46565SOL    HW157687   4.490   2.388   7.049 -1.0807 -0.4385 -0.2500
46565SOL    HW257688   4.380   2.284   7.064 -0.0650 -1.7216 -1.4362
46566SOL     OW57689   8.354  13.966   6.664  0.3363  0.6311  0.3201
46566SOL    HW157690   8.326  14.020   6.590 -0.1998  1.0042  0.7824
46566SOL    HW257691   8.319  13.879   6.645  1.6433  0.2949 -0.6830
46567SOL     OW57692   8.681   2.890   9.149 -0.5615 -0.1853  0.0818
46567SOL    HW157693   8.622   2.961   9.124  2.0283  1.9374 -0.4314
46567SOL    HW257694   8.672   2.826   9.079  1.0711  2.2558 -2.5468
46568SOL     OW57695   5.348   0.877   3.618 -0.1731  0.0679  0.2320
46568SOL    HW157696   5.390   0.800   3.658  1.4027  0.5468 -0.4167
46568SOL    HW257697   5.333   0.937   3.691 -1.2086 -0.7359  0.7083
46569SOL     OW57698  12.303  12.679   1.816 -0.0063  0.3785 -1.1337
46569SOL    HW157699  12.221  12.729   1.819 -0.0098  0.3475 -0.3059
46569SOL    HW257700  12.275  12.588   1.808 -0.0676  0.3449 -0.5800
46570SOL     OW57701  11.679   0.692   2.587 -0.1993  0.2267  0.2152
46570SOL    HW157702  11.678   0.780   2.550 -0.2902  0.4088  0.6464
46570SOL    HW257703  11.757   0.651   2.550 -0.1145  0.5139  0.0740
46571SOL     OW57704  13.424  12.624   1.681 -0.3069 -0.3202  0.2693
46571SOL    HW157705  13.461  12.581   1.604 -0.4866 -1.6207  0.8791
46571SOL    HW257706  13.395  12.710   1.650 -0.6438 -0.9382 -1.1708
46572SOL     OW57707   1.720  11.581  11.141  0.4306 -0.3459 -0.0961
46572SOL    HW157708   1.751  11.628  11.218 -0.2631  1.0702 -0.6563
46572SOL    HW257709   1.743  11.637  11.067 -1.4585 -0.3005 -0.6932
46573SOL     OW57710   4.741   1.885   5.563 -0.0981  0.1155 -0.3049
46573SOL    HW157711   4.805   1.881   5.634 -0.8552 -2.3450  0.3564
46573SOL    HW257712   4.783   1.841   5.490 -0.0142  1.0100 -0.8120
46574SOL     OW57713  12.425   1.812  13.900 -0.1347  0.1120 -0.5656
46574SOL    HW157714  12.470   1.830  13.817 -0.6440  1.5326 -0.5680
46574SOL    HW257715  12.353   1.753  13.876  0.8551 -1.0261 -0.7945
46575SOL     OW57716  13.967   8.083   6.861 -0.0498 -0.2545 -0.2928
46575SOL    HW157717  14.057   8.116   6.856  0.5051 -1.5952  0.3434
46575SOL    HW257718  13.963   8.038   6.946 -1.3918 -0.0309 -0.2159
46576SOL     OW57719   7.054   1.499   7.626  0.3763 -0.0075  0.1912
46576SOL    HW157720   7.066   1.415   7.582  1.9094 -0.1601  0.8637
46576SOL    HW257721   7.141   1.524   7.656 -0.0714  1.7470  0.1700
46577SOL     OW57722   0.661  12.426  13.445  0.3146 -0.2353  0.8206
46577SOL    HW157723   0.597  12.364  13.478  0.6939 -0.4376  1.1853
46577SOL    HW257724   0.737  12.373  13.422  0.8329  0.1441  1.6214
46578SOL     OW57725   9.855   1.604   9.838 -0.1867  0.0162 -0.0601
46578SOL    HW157726   9.922   1.630   9.901  0.6927 -0.3624 -0.8205
46578SOL    HW257727   9.784   1.667   9.851  0.0178 -0.0009  1.2364
46579SOL     OW57728  10.519  13.246  12.841 -0.3563 -0.3541  0.4982
46579SOL    HW157729  10.573  13.233  12.918 -1.1014 -0.2524  1.0460
46579SOL    HW257730  10.512  13.341  12.832  3.3635 -0.1314 -2.2942
46580SOL     OW57731   4.203  12.897   0.323 -0.1186  0.3997 -0.4841
46580SOL    HW157732   4.216  12.899   0.228  0.9863  0.2444 -0.3543
46580SOL    HW257733   4.253  12.973   0.354  1.9944 -1.1846  0.2135
46581SOL     OW57734   5.138  10.403   2.267 -0.2042 -0.2434 -0.1843
46581SOL    HW157735   5.080  10.333   2.297 -0.7481 -0.0243 -0.7201
46581SOL    HW257736   5.188  10.427   2.345 -0.9924 -0.2793  0.3396
46582SOL     OW57737   3.448  12.514   3.715  0.5268  0.2656  0.3294
46582SOL    HW157738   3.399  12.452   3.660  0.1378  1.0239 -0.2107
46582SOL    HW257739   3.433  12.599   3.673 -0.1849  0.9497  1.8791
46583SOL     OW57740  10.770  12.182   9.700  0.3880  0.3026  0.2823
46583SOL    HW157741  10.693  12.232   9.726 -0.8520 -0.9810 -0.7327
46583SOL    HW257742  10.810  12.155   9.782  1.0970  2.8510  0.8632
46584SOL     OW57743   1.828   0.966  13.576  0.1785 -0.0782 -0.8320
46584SOL    HW157744   1.845   1.039  13.517  0.1395  0.4188 -0.2318
46584SOL    HW257745   1.785   0.900  13.521  2.4438 -0.6824 -1.9886
46585SOL     OW57746   7.194   5.199   9.335 -0.2312  0.7914  0.0122
46585SOL    HW157747   7.230   5.288   9.344 -2.0061  1.8382 -2.3317
46585SOL    HW257748   7.271   5.144   9.323  0.8700  2.1230  0.6105
46586SOL     OW57749   9.537  10.100  13.127 -0.0040 -0.0796 -0.4169
46586SOL    HW157750   9.546  10.188  13.089  2.1917  0.0681  0.3151
46586SOL    HW257751   9.536  10.116  13.221 -1.0106 -0.7549 -0.3081
46587SOL     OW57752   9.677   1.145   9.263  0.2474  0.8194  0.0921
46587SOL    HW157753   9.595   1.146   9.313  0.8251  1.8971  1.0930
46587SOL    HW257754   9.650   1.157   9.172 -0.7024  1.4395  0.4381
46588SOL     OW57755   3.644   6.911  11.313  0.2283  0.0862  0.1180
46588SOL    HW157756   3.659   6.980  11.377  1.5355  1.3396 -1.4800
46588SOL    HW257757   3.661   6.951  11.229 -0.0917 -1.8946 -0.9611
46589SOL     OW57758   8.336   3.758   7.693 -0.0304 -0.2836  0.4953
46589SOL    HW157759   8.426   3.790   7.686  0.1613 -0.7330  0.8717
46589SOL    HW257760   8.287   3.808   7.627 -0.0987  2.0562  2.1844
46590SOL     OW57761   0.835   0.194   4.840  0.1722 -0.3031 -0.0823
46590SOL    HW157762   0.836   0.208   4.745 -1.6718  2.4665  0.2017
46590SOL    HW257763   0.911   0.242   4.872 -0.4617  0.6835 -0.0077
46591SOL     OW57764   6.108   0.927   2.953 -0.7898  0.2591  0.1482
46591SOL    HW157765   6.037   0.891   3.006 -0.2870  1.1458  1.4653
46591SOL    HW257766   6.187   0.882   2.984 -0.6114  0.0540 -0.5691
46592SOL     OW57767  10.095   9.938  12.186  0.2669 -0.0022  0.4049
46592SOL    HW157768  10.162   9.985  12.135  0.3591 -0.4301  0.1317
46592SOL    HW257769  10.029   9.912  12.121  0.8535 -1.3903  0.3357
46593SOL     OW57770   7.777  10.005   5.130  0.4223  0.2091 -0.3587
46593SOL    HW157771   7.800   9.926   5.082 -0.3736 -1.1727  1.4222
46593SOL    HW257772   7.682  10.012   5.121  0.5535  1.3830 -1.0712
46594SOL     OW57773   5.924   4.785   8.282 -0.7928 -0.5256 -0.2653
46594SOL    HW157774   5.853   4.758   8.223 -0.1161 -0.1236 -1.2995
46594SOL    HW257775   5.952   4.870   8.247 -1.2352  0.3466  1.4282
46595SOL     OW57776   0.211  13.848   1.756  0.3008 -0.4983  0.2047
46595SOL    HW157777   0.300  13.884   1.752  0.5697 -1.0572  0.8003
46595SOL    HW257778   0.201  13.821   1.848 -0.2722 -0.9664  0.0112
46596SOL     OW57779   7.111  12.602  10.065  0.1458 -0.4342 -0.1125
46596SOL    HW157780   7.186  12.565  10.110 -0.2767  0.9055  1.8012
46596SOL    HW257781   7.117  12.567   9.976  3.1969 -0.0839 -0.1413
46597SOL     OW57782  10.776   5.702   7.037  0.0005  0.0775  0.5196
46597SOL    HW157783  10.702   5.750   7.074 -0.1668 -0.4502  0.8780
46597SOL    HW257784  10.790   5.742   6.952 -1.3842 -0.4951 -0.0182
46598SOL     OW57785   1.932  14.098   4.407  0.0250  0.0576  0.0472
46598SOL    HW157786   1.894  14.172   4.360 -0.0507  0.2877  0.4598
46598SOL    HW257787   1.892  14.021   4.367  0.0057  0.2449 -0.2990
46599SOL     OW57788  11.410   7.802   9.199  0.6008  0.5362  0.0838
46599SOL    HW157789  11.471   7.809   9.273  0.3978 -0.4084  0.3585
46599SOL    HW257790  11.393   7.893   9.173  1.8708  0.8287  0.2016
46600SOL     OW57791   1.747   8.390  12.013 -0.0655 -0.1081  0.4202
46600SOL    HW157792   1.814   8.335  11.972 -0.3495  0.2129 -0.4986
46600SOL    HW257793   1.670   8.333  12.018 -0.4404  0.2543 -0.7776
46601SOL     OW57794   1.904  12.742  10.858 -0.0389  0.4265 -0.2776
46601SOL    HW157795   1.845  12.688  10.911  2.0495  0.1671  1.9706
46601SOL    HW257796   1.882  12.832  10.881  2.1755  0.3394  2.9056
46602SOL     OW57797   0.850   9.371   6.525  0.4301  0.7662 -0.2682
46602SOL    HW157798   0.851   9.292   6.470 -0.0110  1.3618 -1.1537
46602SOL    HW257799   0.823   9.441   6.466 -2.2062  1.0898  1.1826
46603SOL     OW57800   9.801   5.950   1.496 -0.2780  0.0232 -0.0981
46603SOL    HW157801   9.838   5.886   1.435 -1.8022 -1.0637  0.0697
46603SOL    HW257802   9.802   6.033   1.448 -0.7293 -0.6618 -1.3296
46604SOL     OW57803   2.090   6.849  12.842 -0.2795 -0.0772 -0.0280
46604SOL    HW157804   2.147   6.853  12.919 -0.7303  0.6350  0.2734
46604SOL    HW257805   2.003   6.866  12.876 -0.4650  0.3827 -0.7228
46605SOL     OW57806   1.112   9.263  13.910 -0.5110  0.4421  1.0786
46605SOL    HW157807   1.203   9.234  13.905  0.0865  2.2890  0.1065
46605SOL    HW257808   1.082   9.260  13.819 -1.2194  0.4218  1.3116
46606SOL     OW57809   9.254   7.922  10.081  0.3705 -0.2697 -0.6040
46606SOL    HW157810   9.269   7.914  10.175  0.2996  0.7967 -0.4880
46606SOL    HW257811   9.166   7.960  10.074  0.7981  0.6921 -1.0495
46607SOL     OW57812   6.687  11.611  11.685  0.0970  0.1127 -0.1366
46607SOL    HW157813   6.610  11.631  11.631  0.7512  1.8128 -0.5212
46607SOL    HW257814   6.654  11.612  11.775 -0.2174  1.6325 -0.2380
46608SOL     OW57815  10.139   3.561   2.703  0.4026 -0.7437  0.2178
46608SOL    HW157816  10.110   3.553   2.612 -1.2285  0.7127  0.5484
46608SOL    HW257817  10.233   3.578   2.697  0.2541 -0.2956 -1.2188
46609SOL     OW57818   1.015  12.021   7.029 -0.3804 -0.2434 -0.0292
46609SOL    HW157819   1.017  12.047   6.936  0.0696  1.6844  0.4747
46609SOL    HW257820   1.045  11.930   7.029  1.2021  0.2095 -1.6508
46610SOL     OW57821  13.937   5.972  12.593  0.3959 -0.0318  0.0543
46610SOL    HW157822  13.870   5.986  12.660 -1.1986 -0.3570 -1.3854
46610SOL    HW257823  13.959   6.060  12.563 -0.2248  0.0343 -0.2254
46611SOL     OW57824   0.539   8.418   0.926 -0.2442 -0.1125  0.1937
46611SOL    HW157825   0.629   8.449   0.915 -0.5626  0.6678 -0.3240
46611SOL    HW257826   0.514   8.449   1.013 -0.2377  0.2854  0.0596
46612SOL     OW57827  13.321   4.676   2.133 -0.2799 -0.3485 -0.2444
46612SOL    HW157828  13.322   4.689   2.228  0.2905 -0.7592 -0.1942
46612SOL    HW257829  13.338   4.583   2.121 -0.2103 -0.2708 -0.7562
46613SOL     OW57830   2.471  10.711   9.481  0.6151  0.3942 -0.4670
46613SOL    HW157831   2.498  10.712   9.389  0.0124  1.5751 -0.6417
46613SOL    HW257832   2.400  10.646   9.484 -0.4583  1.4890 -1.1756
46614SOL     OW57833   9.165   1.154   0.309  0.0143 -0.3498 -0.3144
46614SOL    HW157834   9.159   1.065   0.344 -1.3575 -0.1472  0.0035
46614SOL    HW257835   9.085   1.167   0.259  0.2810  0.6451 -0.5133
46615SOL     OW57836  12.010   9.181   1.259 -0.2806 -0.2713  0.6781
46615SOL    HW157837  11.931   9.154   1.307 -0.6123  1.6375  1.2643
46615SOL    HW257838  12.002   9.276   1.251  0.7310 -0.3088 -1.4953
46616SOL     OW57839   2.299   3.815  13.296  0.0336 -0.0113 -0.1844
46616SOL    HW157840   2.296   3.908  13.274 -0.7682  0.1312  0.4397
46616SOL    HW257841   2.388   3.800  13.327  0.1425  0.5739 -0.2057
46617SOL     OW57842   6.154   1.715   8.749 -0.4461 -0.6977 -0.6357
46617SOL    HW157843   6.144   1.718   8.844  2.3742  1.1672 -0.2604
46617SOL    HW257844   6.104   1.790   8.718  0.6883  0.2537 -0.2737
46618SOL     OW57845   0.454   3.734   4.558 -0.6012 -0.1753 -0.4798
46618SOL    HW157846   0.406   3.707   4.480  1.6089 -1.9482 -1.3353
46618SOL    HW257847   0.542   3.756   4.527 -0.3384  1.4335  1.2030
46619SOL     OW57848  10.379  14.095  13.439 -0.0246 -0.1270 -0.6424
46619SOL    HW157849  10.354  14.181  13.404 -0.4678 -0.3721 -0.9523
46619SOL    HW257850  10.298  14.043  13.433  0.2137 -0.5343 -0.3624
46620SOL     OW57851  10.922  10.653   8.731  0.2073 -0.0774  0.2987
46620SOL    HW157852  11.000  10.601   8.751 -0.9155 -1.4871  1.2060
46620SOL    HW257853  10.894  10.623   8.645 -1.2991 -2.1968  1.4346
46621SOL     OW57854   4.096   1.189   9.610 -0.8264 -0.1621  0.4449
46621SOL    HW157855   4.100   1.094   9.624 -2.8643 -0.4289 -0.4030
46621SOL    HW257856   4.004   1.211   9.626 -0.4482  1.6382  0.3249
46622SOL     OW57857   1.502   8.404   5.296 -0.6532 -0.1636  0.4147
46622SOL    HW157858   1.560   8.422   5.222  0.8933  0.1388  1.6356
46622SOL    HW257859   1.460   8.488   5.315  1.1126  0.5432  1.5894
46623SOL     OW57860  11.880   0.521  11.391  0.6162 -0.8096 -0.0083
46623SOL    HW157861  11.789   0.509  11.418  0.7570 -1.4655  0.1828
46623SOL    HW257862  11.910   0.598  11.441 -0.0761 -0.0728 -0.7054
46624SOL     OW57863   6.255   6.105  13.532  0.0125  0.0071 -0.5513
46624SOL    HW157864   6.166   6.085  13.502 -0.4966  0.6940  0.4644
46624SOL    HW257865   6.279   6.030  13.588 -0.6386  0.6509  0.6246
46625SOL     OW57866  10.260  12.589  11.506 -0.6077 -0.3103  0.4109
46625SOL    HW157867  10.334  12.616  11.452 -0.3393  0.1601  1.0081
46625SOL    HW257868  10.228  12.670  11.545 -1.2900 -0.5426  0.3558
46626SOL     OW57869  11.043   6.440  12.341  0.1375 -0.3897  0.3242
46626SOL    HW157870  11.034   6.532  12.367 -1.5025 -0.6323  0.7239
46626SOL    HW257871  11.137   6.426  12.336  0.4371  1.0584  1.2066
46627SOL     OW57872   3.778  12.453   3.311  0.0625 -0.0271 -0.1858
46627SOL    HW157873   3.828  12.533   3.328 -1.4811  0.8693  0.3596
46627SOL    HW257874   3.694  12.484   3.276 -0.4521 -1.4215 -0.2500
46628SOL     OW57875   7.156   4.238   4.999 -0.1901  0.5410 -0.2396
46628SOL    HW157876   7.080   4.224   4.943 -0.9252  2.8831  0.0544
46628SOL    HW257877   7.153   4.166   5.062 -1.3611 -0.1669 -1.0695
46629SOL     OW57878   7.481   7.264   6.085 -0.7161  0.2566 -0.1706
46629SOL    HW157879   7.566   7.268   6.129 -1.5890  0.8779  1.5431
46629SOL    HW257880   7.433   7.195   6.132 -1.4746  0.5301 -0.5314
46630SOL     OW57881   4.363   0.015   5.237  0.3781 -0.0884 -0.4306
46630SOL    HW157882   4.273   0.047   5.226  0.4754  0.0627 -0.7952
46630SOL    HW257883   4.353  -0.076   5.265  0.0949  0.2524  0.6339
46631SOL     OW57884  10.397   8.655   7.432 -0.9047 -0.2468  0.4791
46631SOL    HW157885  10.432   8.657   7.343 -2.8440 -1.4977 -0.3790
46631SOL    HW257886  10.306   8.685   7.423 -1.0760 -0.1870  2.0853
46632SOL     OW57887   3.810   3.596  11.773  0.4815  0.1717 -0.2309
46632SOL    HW157888   3.840   3.509  11.799  0.2578 -0.2959 -1.4754
46632SOL    HW257889   3.738   3.579  11.712 -0.1545  1.2488  0.1912
46633SOL     OW57890   5.348  13.154   9.203 -0.3773 -0.2654  0.9220
46633SOL    HW157891   5.266  13.120   9.167 -0.1685 -0.5169  0.6826
46633SOL    HW257892   5.325  13.241   9.237 -0.8474 -0.5282  1.2882
46634SOL     OW57893   3.145   2.489  11.932  0.1412  0.0119  0.3472
46634SOL    HW157894   3.142   2.556  11.864 -0.1582  1.0541  1.3502
46634SOL    HW257895   3.094   2.527  12.005  0.8085 -0.8765  1.3031
46635SOL     OW57896  13.470  10.058   4.814 -0.1551 -0.2239 -0.2492
46635SOL    HW157897  13.490   9.994   4.882 -1.4280  0.6270  1.0161
46635SOL    HW257898  13.516  10.027   4.736  1.3165 -1.2787  0.9756
46636SOL     OW57899   4.472   0.695   2.126 -0.0001 -0.0675 -0.0823
46636SOL    HW157900   4.495   0.748   2.049  0.6713  1.1094  0.8965
46636SOL    HW257901   4.389   0.732   2.157  0.3796  0.2922  0.5034
46637SOL     OW57902   4.272   0.871   9.077  0.3480 -0.6051 -0.3614
46637SOL    HW157903   4.272   0.869   9.173  1.5443 -0.9141 -0.3562
46637SOL    HW257904   4.185   0.841   9.053 -0.5432  0.9941  0.6404
46638SOL     OW57905  14.010   0.746   8.487  0.1304 -0.1949 -0.5691
46638SOL    HW157906  14.014   0.796   8.569  0.7934 -1.0217 -0.0819
46638SOL    HW257907  13.917   0.725   8.476  0.0822 -0.4069  0.1838
46639SOL     OW57908  10.962   5.292  11.136 -0.5910  0.0462  0.0114
46639SOL    HW157909  10.909   5.234  11.083 -1.8283  1.2782 -0.1499
46639SOL    HW257910  10.955   5.377  11.094  2.2583  0.1304 -0.5279
46640SOL     OW57911   3.146   4.567   3.376  0.3153  0.1969  0.4511
46640SOL    HW157912   3.218   4.512   3.346 -0.0124 -1.2510  2.1397
46640SOL    HW257913   3.183   4.655   3.383  1.4408 -0.2078 -0.2743
46641SOL     OW57914   0.840  10.945  11.240 -0.0405  0.5226  0.4131
46641SOL    HW157915   0.803  10.944  11.329 -0.8533 -1.2097  0.0889
46641SOL    HW257916   0.774  10.990  11.187 -0.5971 -0.4105  0.2931
46642SOL     OW57917   0.881  10.878   1.044 -0.1693 -0.3655 -0.3933
46642SOL    HW157918   0.801  10.911   1.005  0.5710  0.7551 -1.0296
46642SOL    HW257919   0.936  10.854   0.969 -0.1653 -1.7777  0.0436
46643SOL     OW57920   5.515   1.761   6.490 -0.0063  0.1214  0.0911
46643SOL    HW157921   5.475   1.780   6.575  1.3158 -0.4314  0.8582
46643SOL    HW257922   5.523   1.666   6.487 -1.0457  0.0357 -1.1572
46644SOL     OW57923  12.353  11.690   7.557  0.1805 -0.7272  0.9890
46644SOL    HW157924  12.370  11.605   7.516  1.8131  0.0240  0.0154
46644SOL    HW257925  12.271  11.721   7.517  0.6927 -0.9101 -0.2295
46645SOL     OW57926   1.283   4.628   0.805  0.2243 -0.6511 -0.8492
46645SOL    HW157927   1.357   4.688   0.800 -0.1821 -0.0121  0.2849
46645SOL    HW257928   1.206   4.684   0.800 -0.2397 -0.5147  3.6639
46646SOL     OW57929  10.529  10.716   6.313 -0.2061  0.1101 -0.2122
46646SOL    HW157930  10.490  10.796   6.279  1.2759  0.9428 -0.0157
46646SOL    HW257931  10.577  10.679   6.239 -0.0781 -0.0708 -0.0409
46647SOL     OW57932   7.024  13.838   6.180 -0.5182 -0.4456  0.2551
46647SOL    HW157933   7.014  13.931   6.200  2.9738 -0.5898  3.8567
46647SOL    HW257934   7.079  13.836   6.102 -1.2357  0.4533 -0.2956
46648SOL     OW57935   3.402   7.804  11.371 -0.2026  0.3221 -0.1173
46648SOL    HW157936   3.433   7.737  11.433 -0.2115  0.8305  0.4435
46648SOL    HW257937   3.451   7.883  11.394 -0.4267  0.5963 -0.5668
46649SOL     OW57938  13.112  12.520   7.037 -0.6632  0.4241 -0.5664
46649SOL    HW157939  13.084  12.582   7.104 -1.0980 -1.2489  0.8711
46649SOL    HW257940  13.205  12.506   7.053 -1.0810 -1.1120  0.7059
46650SOL     OW57941   4.757   0.422   6.010 -0.5369 -0.3153 -0.0541
46650SOL    HW157942   4.751   0.510   5.973 -0.4328 -0.7776 -1.2395
46650SOL    HW257943   4.797   0.434   6.096  1.2525  0.6321 -0.9496
46651SOL     OW57944  13.218   4.351   5.280 -0.0429  1.3048  0.5638
46651SOL    HW157945  13.218   4.426   5.338 -0.8662  1.7725 -0.0236
46651SOL    HW257946  13.141   4.363   5.224  0.1202  0.3147  0.0938
46652SOL     OW57947   4.850   6.728   9.418  0.0575  0.1394 -0.2850
46652SOL    HW157948   4.935   6.745   9.378  0.4483  1.3162  0.9870
46652SOL    HW257949   4.858   6.763   9.507 -1.2251 -1.1905  0.3915
46653SOL     OW57950   1.841  11.486   2.415 -0.6246  0.1841  0.5464
46653SOL    HW157951   1.873  11.397   2.400  1.8374  0.9386  0.8795
46653SOL    HW257952   1.750  11.475   2.443  0.1696 -2.3851  2.4961
46654SOL     OW57953  11.712   7.424  13.113  0.9256  0.1674 -0.2267
46654SOL    HW157954  11.749   7.509  13.138  0.5337  0.5533 -0.9333
46654SOL    HW257955  11.696   7.431  13.019 -0.3262 -0.2231 -0.0604
46655SOL     OW57956   2.245  10.502   8.501  0.0733  0.3649 -0.6073
46655SOL    HW157957   2.308  10.574   8.500  2.1599 -1.3466 -2.1409
46655SOL    HW257958   2.290  10.432   8.549 -1.2098 -0.5107 -0.6266
46656SOL     OW57959  12.098   2.636   2.129  0.5558 -0.3094 -0.2295
46656SOL    HW157960  12.030   2.577   2.162  0.7522 -0.7444 -0.5904
46656SOL    HW257961  12.076   2.648   2.037  0.3640  0.4064 -0.0984
46657SOL     OW57962   5.436   1.510  10.621 -0.4587 -0.5792 -0.0417
46657SOL    HW157963   5.479   1.495  10.536  0.7231  2.7982 -0.1935
46657SOL    HW257964   5.493   1.467  10.684  0.3805 -0.4689 -0.6988
46658SOL     OW57965  11.922   8.659   5.517  0.4685 -0.2976 -0.1500
46658SOL    HW157966  11.884   8.573   5.536  1.3992 -0.8892 -0.8794
46658SOL    HW257967  11.963   8.648   5.431 -1.7026  1.6400 -1.5583
46659SOL     OW57968   1.584  12.382   6.465  0.0007  0.7951 -0.1266
46659SOL    HW157969   1.662  12.414   6.420 -1.0225 -0.4525 -3.0199
46659SOL    HW257970   1.554  12.457   6.517  1.8956  1.9661 -0.6272
46660SOL     OW57971  12.482  13.060   3.046  0.0248  0.1492  0.0450
46660SOL    HW157972  12.435  13.019   3.118  2.9758 -1.0060  1.5064
46660SOL    HW257973  12.481  12.995   2.976  1.8455 -1.1951  1.1604
46661SOL     OW57974   1.418   8.876   8.337  0.1774  0.5615  0.1547
46661SOL    HW157975   1.405   8.928   8.416  0.6066 -1.2377  1.4677
46661SOL    HW257976   1.500   8.829   8.352 -0.2799 -0.6426 -0.8782
46662SOL     OW57977  13.628   4.288   4.618  0.2241 -0.1452 -0.2765
46662SOL    HW157978  13.637   4.381   4.636  1.1148 -0.2458 -0.1567
46662SOL    HW257979  13.708   4.248   4.654 -0.6720 -1.1107  0.7039
46663SOL     OW57980   0.339   3.423  11.540  0.1854 -0.9392 -1.0845
46663SOL    HW157981   0.285   3.473  11.479 -0.9407 -0.3815  0.2857
46663SOL    HW257982   0.395   3.488  11.581  1.6866 -1.4667 -2.2318
46664SOL     OW57983   0.897   8.955   7.261 -0.0835  0.0443 -0.3740
46664SOL    HW157984   0.818   8.907   7.235  1.3695 -1.9038 -1.4664
46664SOL    HW257985   0.907   8.937   7.354 -0.5556 -0.2962 -0.3873
46665SOL     OW57986   0.430   8.844  11.435  0.1820 -0.3897  0.1229
46665SOL    HW157987   0.463   8.926  11.398 -2.6966  1.8235  1.9688
46665SOL    HW257988   0.457   8.847  11.527  0.4863 -1.8082  0.0938
46666SOL     OW57989   7.692   9.566   9.728 -0.1959 -0.5324 -0.4228
46666SOL    HW157990   7.706   9.471   9.730  0.5101 -0.4302 -0.1918
46666SOL    HW257991   7.690   9.589   9.636 -0.9712 -0.8515 -0.4952
46667SOL     OW57992   0.563   0.365   7.658  0.6602  0.5077 -0.2691
46667SOL    HW157993   0.633   0.353   7.593  0.2383 -1.4307 -0.4383
46667SOL    HW257994   0.607   0.355   7.742  0.7340  0.0526 -0.3555
46668SOL     OW57995   0.659  13.608   9.175  0.4436 -0.0799  0.1655
46668SOL    HW157996   0.585  13.654   9.216  1.6048  1.2800  0.8374
46668SOL    HW257997   0.638  13.604   9.082 -1.2372 -1.2501  0.5529
46669SOL     OW57998   8.112  11.460  13.440 -0.0231  0.0500 -0.2394
46669SOL    HW157999   8.022  11.470  13.471 -0.2793  2.0684 -1.4504
46669SOL    HW258000   8.112  11.376  13.393 -0.4195 -1.4853  2.2714
46670SOL     OW58001   1.715   7.013   5.080  0.5269  0.7307 -0.4008
46670SOL    HW158002   1.789   6.958   5.105 -0.3966  0.6036  2.2867
46670SOL    HW258003   1.704   6.996   4.986  1.6259 -2.0192 -0.1369
46671SOL     OW58004   9.946   3.366   8.546 -0.0971 -0.0852 -0.6341
46671SOL    HW158005   9.882   3.357   8.476  1.1425 -3.3707 -1.5236
46671SOL    HW258006  10.031   3.361   8.502  0.7633  0.7130  0.8418
46672SOL     OW58007   7.855   1.013  13.571  0.1806  0.0521 -0.0908
46672SOL    HW158008   7.883   1.051  13.655 -1.2131  0.3161  0.2742
46672SOL    HW258009   7.936   0.978  13.534  0.9954  0.7451  0.9322
46673SOL     OW58010   7.138  10.454   4.344  0.1324  0.1561 -0.4329
46673SOL    HW158011   7.146  10.540   4.384  0.2516 -1.0269  2.3468
46673SOL    HW258012   7.052  10.423   4.372 -0.5215 -0.1492 -2.5639
46674SOL     OW58013   7.427   2.731   5.344  0.6391 -0.1602 -0.2846
46674SOL    HW158014   7.335   2.758   5.338 -0.0730 -2.4899 -1.4652
46674SOL    HW258015   7.466   2.759   5.262  1.0849  1.0041  0.2985
46675SOL     OW58016   2.902  11.417   9.789 -0.4047 -0.0156 -0.2282
46675SOL    HW158017   2.906  11.321   9.797 -1.7493 -0.0034  0.9684
46675SOL    HW258018   2.939  11.449   9.871 -0.4241  0.4786 -0.4119
46676SOL     OW58019   8.393   9.196  13.606 -0.1466 -0.2965  0.0821
46676SOL    HW158020   8.333   9.208  13.680 -0.2315  0.4116 -0.0912
46676SOL    HW258021   8.449   9.273  13.608  0.3259 -0.6278 -0.1610
46677SOL     OW58022   0.804   0.616  12.319 -0.6287 -0.0991  0.7125
46677SOL    HW158023   0.804   0.702  12.277 -0.1960  0.1332  1.1766
46677SOL    HW258024   0.806   0.553  12.247 -2.0102  0.2495  0.3298
46678SOL     OW58025   6.138   0.379   3.092  0.0309  0.3919 -0.0931
46678SOL    HW158026   6.049   0.344   3.082 -0.4482  1.3398  0.6780
46678SOL    HW258027   6.161   0.412   3.006 -0.4597  0.3422 -0.2466
46679SOL     OW58028  12.701   4.686  10.476  0.2155 -0.2958 -0.5990
46679SOL    HW158029  12.697   4.767  10.527  0.1187  0.7008 -2.1152
46679SOL    HW258030  12.632   4.696  10.410 -0.1617 -1.8703 -0.4880
46680SOL     OW58031  11.428   7.553   2.854  0.2945  0.9736 -0.2437
46680SOL    HW158032  11.338   7.585   2.857  0.5680  1.6937  0.6430
46680SOL    HW258033  11.473   7.616   2.798 -0.1327 -0.4479 -2.3063
46681SOL     OW58034  12.646   3.271   5.142 -0.2861 -0.1255  0.2730
46681SOL    HW158035  12.729   3.243   5.102 -0.6916  1.6069 -1.9259
46681SOL    HW258036  12.581   3.263   5.073 -1.4517  1.0102  1.1797
46682SOL     OW58037  13.174  13.380   3.063 -0.0459 -0.1627 -0.1142
46682SOL    HW158038  13.198  13.295   3.026 -1.4528  0.2400 -2.1123
46682SOL    HW258039  13.135  13.360   3.148  1.4092 -1.3068  0.3274
46683SOL     OW58040  11.444  11.333   1.218 -0.3183 -0.4855  0.1741
46683SOL    HW158041  11.473  11.410   1.169 -1.4992  1.7302  2.7323
46683SOL    HW258042  11.368  11.302   1.169 -0.5148  0.6786 -0.2923
46684SOL     OW58043   0.959   4.148  13.856 -0.0520 -0.1414 -0.0219
46684SOL    HW158044   0.993   4.110  13.775 -3.6165  0.8489 -2.1677
46684SOL    HW258045   0.907   4.077  13.895  0.7307 -0.2468  0.8747
46685SOL     OW58046  12.932  12.294  10.028 -0.3913 -0.5142 -0.0734
46685SOL    HW158047  12.904  12.320   9.940 -1.2219 -1.5008 -0.1185
46685SOL    HW258048  12.850  12.281  10.076  0.0123  1.9790  1.4821
46686SOL     OW58049   1.945  10.956   4.795 -0.0488  0.2188  0.1967
46686SOL    HW158050   2.039  10.971   4.779 -0.3253  1.5684 -0.3449
46686SOL    HW258051   1.913  11.042   4.824 -1.4049  0.1781 -1.0785
46687SOL     OW58052   5.173   7.907   1.363  0.0202 -0.0546  0.3074
46687SOL    HW158053   5.191   7.896   1.269  0.8931 -0.3172  0.5022
46687SOL    HW258054   5.171   8.002   1.376 -1.5210  0.0298 -0.2268
46688SOL     OW58055   4.671   8.107   9.473  0.3166  0.7431  0.2187
46688SOL    HW158056   4.697   8.022   9.437  0.7604  1.3839 -1.0170
46688SOL    HW258057   4.744   8.165   9.452 -0.8450  1.8983 -0.7449
46689SOL     OW58058   4.837   9.601  13.949  0.2469 -0.7068 -0.0611
46689SOL    HW158059   4.790   9.676  13.912  2.2524  1.0890  0.8230
46689SOL    HW258060   4.775   9.529  13.943 -1.3735  0.7301 -2.0227
46690SOL     OW58061   1.060   7.802  12.417 -0.1494 -0.4756 -0.0240
46690SOL    HW158062   1.096   7.800  12.506 -2.1248  0.6580  0.8756
46690SOL    HW258063   0.966   7.817  12.430 -0.4316  0.0777 -2.3245
46691SOL     OW58064   4.660  11.841  14.055 -0.0495 -0.2389  0.1822
46691SOL    HW158065   4.613  11.815  13.976  1.0930  1.2971 -1.0731
46691SOL    HW258066   4.592  11.871  14.116 -0.8674 -0.3969 -0.6391
46692SOL     OW58067   2.091   3.460  14.081 -0.4516 -0.1178  0.9364
46692SOL    HW158068   2.103   3.372  14.118 -0.1402 -0.2210  0.5992
46692SOL    HW258069   2.178   3.485  14.050 -0.6962 -0.0327  0.2884
46693SOL     OW58070   3.055  13.310   0.095 -0.2648  0.2585  0.5485
46693SOL    HW158071   2.988  13.372   0.122  0.5498  0.1197  3.2759
46693SOL    HW258072   3.086  13.272   0.178  0.9645 -1.9792 -0.8454
46694SOL     OW58073   3.052  12.838   3.076 -0.3645 -0.4605  0.3934
46694SOL    HW158074   3.046  12.932   3.063  1.9202 -0.1543  1.0208
46694SOL    HW258075   3.017  12.823   3.164 -0.8154 -0.2166  0.2568
46695SOL     OW58076   5.892   8.942   2.336 -0.8537  0.0117  0.0169
46695SOL    HW158077   5.922   8.950   2.245 -0.8264  0.8709  0.0936
46695SOL    HW258078   5.796   8.944   2.329 -0.8847  2.5684  0.1663
46696SOL     OW58079   3.672   0.628   2.832  0.4697  0.0835 -0.1195
46696SOL    HW158080   3.662   0.676   2.914  1.2534 -0.7752  0.5011
46696SOL    HW258081   3.589   0.640   2.786  0.5168  1.7368  0.1584
46697SOL     OW58082   5.230   4.774   5.075  0.1291 -0.6667  0.2733
46697SOL    HW158083   5.160   4.731   5.124 -1.5048  1.2175 -0.2783
46697SOL    HW258084   5.300   4.786   5.140 -1.4570  0.5530  1.8601
46698SOL     OW58085  11.522   6.711   0.441 -0.4497 -0.3613 -0.3476
46698SOL    HW158086  11.527   6.789   0.387  1.3821  0.5243  1.0287
46698SOL    HW258087  11.445   6.664   0.408 -0.9183  1.4329 -1.9400
46699SOL     OW58088   4.004   5.487   1.831  0.3102 -0.2769 -0.3864
46699SOL    HW158089   4.023   5.465   1.923 -1.5405  0.6936  0.2865
46699SOL    HW258090   3.973   5.404   1.793  0.8224 -0.6218 -0.0619
46700SOL     OW58091   4.337   1.671   4.083 -0.1857 -0.3967  0.2931
46700SOL    HW158092   4.292   1.642   4.003 -0.8938  0.2065  0.4602
46700SOL    HW258093   4.385   1.749   4.056 -1.8961  0.9077  0.8343
46701SOL     OW58094   7.311   6.736   9.972 -0.1883 -0.0915 -0.2491
46701SOL    HW158095   7.357   6.788   9.906 -1.3905 -0.6097 -1.5405
46701SOL    HW258096   7.380   6.692  10.020  0.7543  0.9437 -0.6025
46702SOL     OW58097  13.737   5.755   0.791 -0.2164 -0.3470 -0.0576
46702SOL    HW158098  13.735   5.764   0.696  0.9973 -2.2557 -0.3181
46702SOL    HW258099  13.688   5.830   0.824  0.0064  0.7801 -2.1578
46703SOL     OW58100   7.564   9.690  10.615  0.5610  0.3557  0.2254
46703SOL    HW158101   7.561   9.770  10.562  4.2628 -0.3338 -1.3674
46703SOL    HW258102   7.602   9.718  10.698  0.3633  0.5140  0.2632
46704SOL     OW58103   4.499  10.561  11.359 -0.4822  0.2884 -0.5974
46704SOL    HW158104   4.475  10.610  11.281 -1.2140 -0.6969 -1.0145
46704SOL    HW258105   4.470  10.471  11.341 -0.0162 -0.1041  0.5123
46705SOL     OW58106   2.685  10.742   4.620 -0.1653 -0.0033  0.2577
46705SOL    HW158107   2.753  10.707   4.562  0.9076 -0.2787  1.6213
46705SOL    HW258108   2.620  10.672   4.626  1.5987 -1.6153  2.3657
46706SOL     OW58109   6.361   0.365  12.041  0.2449  0.5071 -0.0831
46706SOL    HW158110   6.395   0.395  11.957  1.2455  0.4211  0.2803
46706SOL    HW258111   6.270   0.340  12.023  0.6569 -0.1932 -1.3046
46707SOL     OW58112   2.482  11.701  13.521 -0.1404 -0.1073 -0.8092
46707SOL    HW158113   2.523  11.621  13.489  1.1243  0.4045 -0.5331
46707SOL    HW258114   2.548  11.768  13.509 -1.0553  0.8434 -0.7038
46708SOL     OW58115   0.550   6.567  12.924 -0.4236 -0.2494  0.3888
46708SOL    HW158116   0.508   6.495  12.876  0.1923 -0.0049 -0.5518
46708SOL    HW258117   0.635   6.579  12.880 -1.0649  1.9491 -0.4221
46709SOL     OW58118   3.070  10.694  10.037 -0.0445  0.0765  0.3338
46709SOL    HW158119   3.062  10.738  10.122  1.5017  1.2369 -0.0857
46709SOL    HW258120   3.138  10.743   9.991 -1.5157  0.1017 -1.9792
46710SOL     OW58121  10.214   9.008   7.804  0.0931  0.1831  0.1419
46710SOL    HW158122  10.133   8.979   7.763 -1.3989  0.6286  2.5403
46710SOL    HW258123  10.210   9.104   7.799  0.2309  0.2195  0.6681
46711SOL     OW58124   4.959   2.461   0.581  0.6510  0.2087 -0.0026
46711SOL    HW158125   4.917   2.420   0.657  1.2924 -0.4167  0.0259
46711SOL    HW258126   4.991   2.387   0.529 -3.4360  0.2745 -3.1647
46712SOL     OW58127  11.136   6.461   8.407  0.5876  0.6099 -0.3255
46712SOL    HW158128  11.193   6.468   8.484 -1.7646  0.6124  1.5426
46712SOL    HW258129  11.167   6.384   8.360  0.8530 -0.6234  1.7625
46713SOL     OW58130   7.929   9.958   1.389  0.4575  0.2899 -0.1237
46713SOL    HW158131   7.927  10.044   1.430  1.0564  0.3074 -0.1111
46713SOL    HW258132   7.972   9.973   1.305  3.2428 -0.4250  1.0424
46714SOL     OW58133   6.386   5.230   9.103  0.2711  0.1805  0.2894
46714SOL    HW158134   6.389   5.301   9.168 -1.7977  1.7287 -1.1717
46714SOL    HW258135   6.467   5.181   9.117  0.0027  0.5113  3.8945
46715SOL     OW58136  11.254  13.238  10.986  0.0164  0.4853 -0.0800
46715SOL    HW158137  11.269  13.214  10.894  2.4884  3.0333 -0.4961
46715SOL    HW258138  11.202  13.319  10.981  0.5896  0.9141  0.7194
46716SOL     OW58139   6.278  13.243   3.150 -0.0184 -0.0066  0.1253
46716SOL    HW158140   6.264  13.272   3.060  0.8005 -1.7942 -0.6147
46716SOL    HW258141   6.200  13.194   3.173 -0.9646  1.8153  1.0297
46717SOL     OW58142   0.681  11.831  11.031 -0.3193 -0.1658  0.0434
46717SOL    HW158143   0.672  11.807  11.123  1.1655 -0.3471  0.1617
46717SOL    HW258144   0.692  11.926  11.031 -1.0754 -0.0719 -0.0194
46718SOL     OW58145  10.908  10.731   1.205  0.6849  0.6686 -0.1861
46718SOL    HW158146  10.906  10.824   1.227  2.7191  0.6696  0.1910
46718SOL    HW258147  10.897  10.729   1.110  0.8763  1.3245 -0.2300
46719SOL     OW58148  10.634   6.356   3.820 -0.5311  0.0589  0.4633
46719SOL    HW158149  10.594   6.396   3.897 -1.4240 -0.2779  0.1767
46719SOL    HW258150  10.726   6.384   3.824 -1.2349  2.6756 -0.0589
46720SOL     OW58151   1.651   7.735  12.065  0.0941 -0.0155  0.6119
46720SOL    HW158152   1.623   7.761  11.977 -0.9026  0.3718  1.0271
46720SOL    HW258153   1.610   7.649  12.079  0.8613 -0.4235  0.4248
46721SOL     OW58154   8.025   3.105   3.243  0.2452 -0.0544 -0.7541
46721SOL    HW158155   8.074   3.129   3.165 -1.2823  1.1098 -1.4125
46721SOL    HW258156   7.967   3.034   3.216 -1.2936  1.2784 -1.1201
46722SOL     OW58157   9.722   6.155   7.352  0.0930 -0.0732 -0.2629
46722SOL    HW158158   9.647   6.166   7.294 -1.5651 -1.6879  1.4512
46722SOL    HW258159   9.705   6.214   7.426  0.6145 -0.3129  0.0576
46723SOL     OW58160  12.023   3.524   7.286 -0.5580 -0.2096  0.0140
46723SOL    HW158161  11.948   3.577   7.258 -1.1936 -0.5589  1.0127
46723SOL    HW258162  12.073   3.581   7.344 -0.5484 -0.2870  0.0814
46724SOL     OW58163   1.108   8.197   5.501 -0.2145  0.1108 -0.2883
46724SOL    HW158164   1.074   8.127   5.557 -2.6753  1.3506 -0.0865
46724SOL    HW258165   1.181   8.234   5.551 -0.0607 -1.1249  0.4369
46725SOL     OW58166   1.677  13.992   0.527 -0.2953  0.1172  1.1666
46725SOL    HW158167   1.747  13.962   0.586  1.8482 -0.1645 -1.3476
46725SOL    HW258168   1.722  14.015   0.446 -3.2705 -1.8644 -1.2855
46726SOL     OW58169  11.809  10.782   0.987  0.4759 -0.5451 -0.0619
46726SOL    HW158170  11.888  10.821   1.024  0.2567  0.1891 -0.3483
46726SOL    HW258171  11.744  10.788   1.057  0.5470 -0.7372  0.0207
46727SOL     OW58172   2.344   7.568  10.709  0.1660 -0.1491 -0.0724
46727SOL    HW158173   2.277   7.636  10.696  1.8586  1.5581 -0.3230
46727SOL    HW258174   2.350   7.557  10.803  1.5730  1.9324  0.1470
46728SOL     OW58175  12.524  11.693   8.933 -0.1122  0.6022  0.2937
46728SOL    HW158176  12.572  11.756   8.986  2.9983 -1.3404  0.0182
46728SOL    HW258177  12.540  11.609   8.975  0.2111 -0.6572 -2.1970
46729SOL     OW58178   7.314   7.282  10.189  0.6604 -0.8833  0.2297
46729SOL    HW158179   7.240   7.257  10.134 -1.4050 -1.7513  3.1646
46729SOL    HW258180   7.327   7.376  10.172 -2.5579 -0.1842  1.0787
46730SOL     OW58181  11.004   0.311   7.089  0.0035  0.5238  0.1984
46730SOL    HW158182  10.981   0.391   7.137 -1.7118  0.2903 -0.1572
46730SOL    HW258183  11.072   0.338   7.027 -0.7919  1.8055 -0.1561
46731SOL     OW58184   4.355   2.035   0.203 -0.8412 -0.0023  0.1187
46731SOL    HW158185   4.443   2.066   0.182 -0.4387  0.0034  1.7263
46731SOL    HW258186   4.356   1.942   0.178  0.0930 -0.3653  1.4462
46732SOL     OW58187   7.637  13.679   1.648 -0.8523 -0.0351  0.1632
46732SOL    HW158188   7.546  13.680   1.678 -0.2955  0.8079  1.9539
46732SOL    HW258189   7.664  13.771   1.650  0.3006 -0.3562  0.5319
46733SOL     OW58190  12.752   9.816  11.222  0.4859  0.3301  0.3138
46733SOL    HW158191  12.807   9.762  11.167 -0.3052 -2.2705  1.9027
46733SOL    HW258192  12.664   9.782  11.210 -0.1180  1.5042  1.1247
46734SOL     OW58193   7.202   4.819   2.011  0.4238  0.2398  0.3279
46734SOL    HW158194   7.161   4.871   1.941  0.6824  0.9697  0.7130
46734SOL    HW258195   7.130   4.800   2.072 -0.0946 -1.4932 -0.7420
46735SOL     OW58196   7.466   9.664  12.050 -0.0021 -1.0698  0.2034
46735SOL    HW158197   7.446   9.736  12.110 -1.9092 -0.3812 -1.1410
46735SOL    HW258198   7.386   9.655  11.998  0.9310 -2.8560 -0.9872
46736SOL     OW58199   0.310   9.218  13.883 -0.1124  0.0357 -0.5060
46736SOL    HW158200   0.304   9.143  13.824  0.3799 -0.0368 -0.4735
46736SOL    HW258201   0.375   9.191  13.948  1.3754  1.1262 -1.4744
46737SOL     OW58202   4.378   3.575   0.664  0.0048  0.4434 -0.6485
46737SOL    HW158203   4.441   3.508   0.690 -2.0037 -0.8481  1.2265
46737SOL    HW258204   4.331   3.537   0.590  0.2753  0.6749 -0.9394
46738SOL     OW58205   9.310   7.753  10.577 -0.2000 -0.3507 -0.5528
46738SOL    HW158206   9.385   7.808  10.555  0.1668 -0.5270  0.2297
46738SOL    HW258207   9.316   7.740  10.672 -1.4849  0.0173 -0.4001
46739SOL     OW58208   2.556   7.286   2.311 -0.3149 -0.4134 -0.1063
46739SOL    HW158209   2.543   7.221   2.241  0.0629 -1.4592  0.7630
46739SOL    HW258210   2.472   7.329   2.320 -1.1066 -1.9848  0.4516
46740SOL     OW58211  10.265   7.747  11.038  0.0814  0.2623  0.0806
46740SOL    HW158212  10.296   7.704  11.118 -0.1449 -1.0343 -0.5066
46740SOL    HW258213  10.286   7.686  10.968 -0.9842  0.7497 -0.6901
46741SOL     OW58214   0.206   3.007  13.315 -0.3038 -0.2481 -0.1073
46741SOL    HW158215   0.228   2.963  13.397 -0.4258 -0.2556 -0.0796
46741SOL    HW258216   0.115   3.033  13.325 -0.3497 -0.3366 -0.2797
46742SOL     OW58217   1.435   0.259  13.372 -0.5300  0.1676 -0.0011
46742SOL    HW158218   1.493   0.276  13.297 -1.4090  2.4354 -0.2585
46742SOL    HW258219   1.441   0.338  13.425 -2.8037  0.1543  0.3521
46743SOL     OW58220   1.653   6.483   8.475  0.3546 -0.1318 -0.3726
46743SOL    HW158221   1.608   6.538   8.411 -1.6914  0.1487  1.1997
46743SOL    HW258222   1.584   6.427   8.512  1.8925 -1.9015 -0.0314
46744SOL     OW58223   9.770   9.767   7.081 -0.1204 -0.3701  0.0090
46744SOL    HW158224   9.742   9.785   6.991 -0.8137 -1.9351 -0.1265
46744SOL    HW258225   9.814   9.847   7.109  2.7146 -0.7936 -2.7043
46745SOL     OW58226   9.594  10.323   6.136  0.1592 -0.6452 -0.3436
46745SOL    HW158227   9.634  10.369   6.210 -1.2886 -0.1775  0.1758
46745SOL    HW258228   9.584  10.233   6.168 -1.3426 -0.2387  0.4357
46746SOL     OW58229  11.715  10.413  10.413 -0.6212  0.3991 -0.0195
46746SOL    HW158230  11.806  10.441  10.418 -0.6154  0.5020 -0.6695
46746SOL    HW258231  11.679  10.435  10.499 -0.3225  1.3978 -0.1325
46747SOL     OW58232   1.580   2.228  12.740 -0.1113  0.1507 -0.1954
46747SOL    HW158233   1.672   2.255  12.747 -0.2876  1.4314 -1.9918
46747SOL    HW258234   1.580   2.135  12.763  1.5299  0.2803  0.4314
46748SOL     OW58235  10.914  12.080   6.271  0.0020 -0.8863 -0.5492
46748SOL    HW158236  10.996  12.076   6.321  1.0073  2.0715 -1.7317
46748SOL    HW258237  10.866  12.002   6.298  2.4879 -1.8862  1.4355
46749SOL     OW58238   7.324  10.639  12.504  0.0733  0.0301  0.4987
46749SOL    HW158239   7.395  10.640  12.567  0.9646 -1.7777 -0.4136
46749SOL    HW258240   7.363  10.603  12.424 -0.9847  2.2498 -1.1582
46750SOL     OW58241   4.208   1.725  12.007 -0.1538  0.6409 -0.2514
46750SOL    HW158242   4.171   1.805  12.045 -1.2922  0.6390 -1.2914
46750SOL    HW258243   4.187   1.657  12.071 -0.9513  0.8446 -0.2819
46751SOL     OW58244  12.078  13.488   4.102  0.6818  0.0733  0.1822
46751SOL    HW158245  12.075  13.553   4.032 -0.1747 -1.4133 -1.2358
46751SOL    HW258246  12.141  13.423   4.071 -0.3086 -1.0191  0.3709
46752SOL     OW58247   6.238   9.058  10.836  0.3286 -0.3187 -0.4500
46752SOL    HW158248   6.261   9.098  10.752 -0.2168  0.2652 -0.3299
46752SOL    HW258249   6.167   9.113  10.870  2.3703  1.1432  1.7091
46753SOL     OW58250   4.020  11.429   9.164 -0.4142  0.2159  0.1532
46753SOL    HW158251   4.086  11.377   9.118 -1.9942  0.0656 -2.1327
46753SOL    HW258252   4.060  11.451   9.248  1.9119 -1.1406 -0.5228
46754SOL     OW58253   5.387  14.045   9.158  0.0747  0.2861  0.1526
46754SOL    HW158254   5.384  14.084   9.071  1.3194  0.1050  0.0120
46754SOL    HW258255   5.420  14.115   9.214 -0.3017  0.2659  0.4025
46755SOL     OW58256   8.920   1.562   5.815  0.3595  0.3278  0.0333
46755SOL    HW158257   8.997   1.515   5.847 -0.4963 -0.6160  0.7557
46755SOL    HW258258   8.845   1.512   5.848 -0.6068 -0.3976 -2.9570
46756SOL     OW58259  10.768   1.569   0.433 -0.1236 -0.4977  0.1537
46756SOL    HW158260  10.804   1.651   0.401 -0.0787 -0.9856 -1.0873
46756SOL    HW258261  10.769   1.511   0.357 -2.4134 -0.9104  0.3725
46757SOL     OW58262   8.165   9.620   4.063 -0.0315 -0.0954  0.2743
46757SOL    HW158263   8.083   9.572   4.059 -2.1942  3.1333  1.3516
46757SOL    HW258264   8.189   9.619   4.156  1.0087 -0.7364  0.0144
46758SOL     OW58265   0.577   7.406   6.225  0.4461  0.0957 -0.1122
46758SOL    HW158266   0.527   7.358   6.159 -1.6673  0.6448  0.9818
46758SOL    HW258267   0.514   7.420   6.296  1.4043  3.1290  0.2607
46759SOL     OW58268  13.010   7.656  13.031  0.1763 -0.0643  0.2689
46759SOL    HW158269  13.054   7.718  13.088  0.5056 -0.0236 -0.0242
46759SOL    HW258270  12.922   7.647  13.068  0.1657  0.4818  0.3826
46760SOL     OW58271   4.710   7.224  12.312 -0.0695 -0.3954 -0.6813
46760SOL    HW158272   4.775   7.269  12.366 -0.6547  0.0343 -0.3197
46760SOL    HW258273   4.749   7.138  12.293 -0.1329 -0.8351  1.0183
46761SOL     OW58274   2.729  12.954   0.540 -0.8194  0.2262  0.1228
46761SOL    HW158275   2.645  12.926   0.577 -0.0956  0.1596  1.7889
46761SOL    HW258276   2.783  12.875   0.541 -0.5215  0.4211 -0.3237
46762SOL     OW58277   4.371   4.705   0.705  0.3823  1.1158 -0.1019
46762SOL    HW158278   4.284   4.672   0.729  0.0384  0.2826 -2.2565
46762SOL    HW258279   4.428   4.674   0.775 -0.5734 -0.9963 -0.1637
46763SOL     OW58280  11.685  11.951   4.337 -0.5536  0.0103  0.0431
46763SOL    HW158281  11.665  11.975   4.427  0.5103 -0.9132  0.5467
46763SOL    HW258282  11.612  11.893   4.312  0.3501 -1.7205  1.1824
46764SOL     OW58283   9.969   7.827   5.448  0.3354 -0.3790  0.1541
46764SOL    HW158284   9.952   7.743   5.491 -1.4131 -0.1785 -0.0661
46764SOL    HW258285   9.908   7.829   5.375  0.7946  0.8268 -0.2254
46765SOL     OW58286   3.417   7.195   8.466 -0.1328  0.3787  0.6298
46765SOL    HW158287   3.371   7.128   8.517  2.3713 -2.9758 -1.1388
46765SOL    HW258288   3.509   7.184   8.489  1.1181 -1.0796 -4.0484
46766SOL     OW58289   7.849   1.233  11.636  0.4260  0.2631  0.1172
46766SOL    HW158290   7.881   1.278  11.557 -0.9399  1.4876  0.2076
46766SOL    HW258291   7.754   1.241  11.631  0.2955  0.0146  1.6888
46767SOL     OW58292   7.694  12.709   4.476  0.3875 -0.0008  0.1101
46767SOL    HW158293   7.709  12.803   4.482 -2.1754  0.6158 -1.4550
46767SOL    HW258294   7.722  12.686   4.387 -1.1169 -0.1934 -0.3461
46768SOL     OW58295   9.934  10.533   8.689  0.2983  0.2264 -0.6733
46768SOL    HW158296   9.953  10.593   8.617 -1.6726  0.6179 -0.9172
46768SOL    HW258297   9.849  10.562   8.723 -0.8041 -2.4832 -0.8755
46769SOL     OW58298  10.284  13.518   0.771  0.1566 -0.4230 -0.6236
46769SOL    HW158299  10.352  13.468   0.727  0.8190 -0.6371  0.6068
46769SOL    HW258300  10.307  13.515   0.864  0.0896  1.9276 -0.4489
46770SOL     OW58301  12.881   8.022   4.625  0.1108 -0.3778  0.2319
46770SOL    HW158302  12.827   7.943   4.633  0.4454 -0.6748 -0.3959
46770SOL    HW258303  12.943   8.016   4.698  0.6288 -1.0904 -0.2583
46771SOL     OW58304   3.656   5.995   0.820 -0.1697  0.7348  0.2102
46771SOL    HW158305   3.605   6.055   0.764 -0.6074  1.0124  0.8824
46771SOL    HW258306   3.746   6.007   0.791 -0.5722 -0.6568 -1.8339
46772SOL     OW58307   3.559  10.632   0.220 -0.4600  0.5148 -0.3099
46772SOL    HW158308   3.519  10.568   0.278 -1.2625  1.0157 -0.3006
46772SOL    HW258309   3.553  10.715   0.267 -2.0289  1.1246 -1.4818
46773SOL     OW58310   3.195   1.970  10.825  0.3161 -0.2476 -0.2487
46773SOL    HW158311   3.105   1.944  10.806 -0.2080  0.7410  0.7170
46773SOL    HW258312   3.238   1.889  10.852 -0.6195 -0.5488  0.4126
46774SOL     OW58313   9.830   6.746   3.809 -0.5563 -0.3119 -0.4634
46774SOL    HW158314   9.906   6.707   3.853  0.2798  0.4422 -1.1986
46774SOL    HW258315   9.775   6.779   3.881  0.8248  0.9736  0.0611
46775SOL     OW58316   8.113  13.786   8.767 -0.0067 -0.1028  0.0957
46775SOL    HW158317   8.109  13.705   8.716  0.1039  0.2217 -0.4312
46775SOL    HW258318   8.138  13.757   8.855  1.8694 -0.4821 -0.5117
46776SOL     OW58319   7.883   4.258   4.824 -0.1500 -0.1528  0.4771
46776SOL    HW158320   7.947   4.268   4.894 -0.4302 -0.5746  0.8011
46776SOL    HW258321   7.910   4.179   4.778 -0.3543 -0.2557  0.5299
46777SOL     OW58322  10.909   0.490   4.088  0.1529  0.2743 -0.3019
46777SOL    HW158323  10.837   0.437   4.055 -1.6112 -0.5900  4.1819
46777SOL    HW258324  10.888   0.579   4.060 -1.2997 -0.3193 -1.1958
46778SOL     OW58325   1.547   1.381  10.609  0.3626 -0.4628  0.5962
46778SOL    HW158326   1.623   1.414  10.562  0.7321 -0.0617  1.4449
46778SOL    HW258327   1.558   1.415  10.698  1.1469 -3.4181  1.7564
46779SOL     OW58328   4.406   5.173  11.917 -0.6906 -0.3968 -0.2245
46779SOL    HW158329   4.411   5.196  11.824 -0.1766 -0.0650 -0.1213
46779SOL    HW258330   4.338   5.107  11.922 -1.2603  0.1387 -0.7290
46780SOL     OW58331   3.050   8.148   5.346  0.3460  0.0853  0.1348
46780SOL    HW158332   3.140   8.140   5.377  0.3033 -1.6015 -0.0799
46780SOL    HW258333   2.997   8.111   5.416 -0.0386 -0.4990 -0.4574
46781SOL     OW58334   3.040  10.638   9.194  0.3040  0.0430 -0.1376
46781SOL    HW158335   3.023  10.701   9.125  0.6556 -1.0551 -1.2613
46781SOL    HW258336   3.022  10.553   9.154 -0.1113 -0.5882  1.3177
46782SOL     OW58337  11.502  11.922  13.829  0.1321 -0.4090 -0.3989
46782SOL    HW158338  11.595  11.920  13.807  0.3634 -1.5611  0.6040
46782SOL    HW258339  11.474  11.831  13.822 -0.0450 -0.6816  2.7928
46783SOL     OW58340   6.226   0.669  14.015  0.3654 -0.4960  0.0626
46783SOL    HW158341   6.306   0.638  13.974  0.4779 -0.7786  0.4907
46783SOL    HW258342   6.168   0.593  14.017 -0.9579  0.3207 -2.6850
46784SOL     OW58343  10.776  10.886   8.757 -0.0487 -0.2876  0.2165
46784SOL    HW158344  10.826  10.966   8.744  1.2829 -1.3601 -1.5672
46784SOL    HW258345  10.837  10.815   8.738 -2.0114 -1.6692 -1.3914
46785SOL     OW58346   0.537   0.229  12.447 -0.0759  0.5182  0.3376
46785SOL    HW158347   0.586   0.311  12.442  0.7808  0.0157  0.2501
46785SOL    HW258348   0.473   0.243  12.517 -1.2352  1.9227 -0.9439
46786SOL     OW58349   7.069  10.531  11.829 -0.6937  1.1059 -0.0136
46786SOL    HW158350   7.076  10.619  11.792 -1.6811  1.0506 -0.3537
46786SOL    HW258351   7.157  10.494  11.819 -1.0578  0.7856 -3.1105
46787SOL     OW58352   5.343  10.933   1.084 -0.7781  0.4180 -0.5161
46787SOL    HW158353   5.360  10.883   1.004 -0.0699  1.4117 -1.0088
46787SOL    HW258354   5.254  10.909   1.109 -0.4824 -1.0518 -0.7553
46788SOL     OW58355  12.634   0.463   0.686  0.5308  0.1446  0.0098
46788SOL    HW158356  12.545   0.490   0.706  0.2646 -0.8941  0.2932
46788SOL    HW258357  12.629   0.430   0.596  0.8927  1.1802 -0.4032
46789SOL     OW58358  12.511  13.755   1.956  0.1797 -0.2413 -0.0367
46789SOL    HW158359  12.596  13.798   1.966  1.2620 -2.4753  1.3271
46789SOL    HW258360  12.512  13.718   1.868 -0.0098  0.9314 -0.5477
46790SOL     OW58361  13.925   7.254   7.627  0.4768  0.8052 -0.0846
46790SOL    HW158362  13.837   7.290   7.614  0.0990 -0.3001 -0.7205
46790SOL    HW258363  13.975   7.326   7.665 -1.1110  1.0288  1.7705
46791SOL     OW58364   1.935   6.829  12.151  0.3116  0.3708  0.2559
46791SOL    HW158365   2.000   6.760  12.143  1.2157  1.2471 -0.2087
46791SOL    HW258366   1.898   6.838  12.063  0.2704  0.5548  0.2910
46792SOL     OW58367  12.403  11.694   5.216  0.6073  0.3785  0.0799
46792SOL    HW158368  12.481  11.641   5.200  0.7427  0.5493  0.1776
46792SOL    HW258369  12.410  11.720   5.308 -0.5005 -1.1581  0.6563
46793SOL     OW58370  13.623   3.308   4.692  0.3701 -0.7886  0.1263
46793SOL    HW158371  13.559   3.345   4.753 -1.0194  1.0529 -2.2873
46793SOL    HW258372  13.622   3.214   4.711 -0.6619 -0.4033  2.2963
46794SOL     OW58373   4.344  12.452   5.602 -0.1552  0.4977 -0.4610
46794SOL    HW158374   4.380  12.399   5.673  0.4553  0.7427 -0.5856
46794SOL    HW258375   4.394  12.426   5.525  1.0967  2.2220 -0.2725
46795SOL     OW58376  10.318   2.723   2.479  0.2880 -0.2784 -0.2614
46795SOL    HW158377  10.401   2.743   2.522  0.0502 -1.6879  0.9265
46795SOL    HW258378  10.319   2.627   2.469 -1.7005 -0.4592  0.8868
46796SOL     OW58379  11.161   1.427   1.902  0.6848  0.2559  0.1405
46796SOL    HW158380  11.137   1.367   1.973 -0.4783 -1.1923 -1.4210
46796SOL    HW258381  11.256   1.424   1.899  0.6536 -1.9263 -0.2028
46797SOL     OW58382   1.894  14.066   0.896  0.1438 -0.1258 -0.5290
46797SOL    HW158383   1.802  14.053   0.921  0.3148  0.1424  0.2470
46797SOL    HW258384   1.932  13.979   0.896 -0.0983 -0.2329 -0.8045
46798SOL     OW58385   2.210   0.205   1.188 -0.0561  0.5510  0.8890
46798SOL    HW158386   2.194   0.294   1.159 -0.4920  0.5664  1.1623
46798SOL    HW258387   2.296   0.208   1.230  2.0859 -0.0954 -2.9984
46799SOL     OW58388   1.958  10.873  11.329 -0.7171 -0.5534 -0.1237
46799SOL    HW158389   2.013  10.947  11.306 -1.6119 -0.0124 -0.5845
46799SOL    HW258390   1.939  10.830  11.245  1.1791 -2.3396  0.2885
46800SOL     OW58391  10.288   6.277   8.352  0.5718 -0.2727  0.0879
46800SOL    HW158392  10.282   6.201   8.411 -1.2559  0.2312  0.6048
46800SOL    HW258393  10.263   6.352   8.406  0.7342  0.4785 -0.8501
46801SOL     OW58394   2.249   3.521  13.308 -0.1034  0.1673 -0.3671
46801SOL    HW158395   2.197   3.496  13.384 -0.8573 -0.0325 -0.9353
46801SOL    HW258396   2.244   3.616  13.305 -0.3188  0.1573 -0.3350
46802SOL     OW58397   2.557   5.173  13.294 -0.1891 -0.2907 -0.3818
46802SOL    HW158398   2.597   5.101  13.343 -3.2519 -1.8160  0.0521
46802SOL    HW258399   2.555   5.246  13.357 -0.7935 -1.1154  0.5738
46803SOL     OW58400   3.731  12.584   4.303 -0.2455  0.8435 -0.0886
46803SOL    HW158401   3.794  12.648   4.337 -0.4352  1.2687 -0.5417
46803SOL    HW258402   3.772  12.499   4.321  0.9931  1.1324 -1.3852
46804SOL     OW58403   9.169   5.484   9.124 -0.1359 -0.7307  0.5184
46804SOL    HW158404   9.146   5.393   9.141  1.3645 -0.9550  1.4808
46804SOL    HW258405   9.122   5.533   9.191 -0.4755 -0.8456  0.3681
46805SOL     OW58406   1.264   9.738   4.166  0.1470  0.2324  0.2412
46805SOL    HW158407   1.301   9.650   4.173  1.9215  0.9913  1.0120
46805SOL    HW258408   1.320   9.782   4.102  0.0250  1.1596  0.7607
46806SOL     OW58409  13.914  13.501   1.252  0.2474  0.2899 -0.1859
46806SOL    HW158410  13.993  13.534   1.210 -0.4941  0.0117 -1.9074
46806SOL    HW258411  13.845  13.513   1.186 -0.8093 -1.0173  0.6199
46807SOL     OW58412   5.649  11.635  14.013 -0.6208  0.5656 -0.3689
46807SOL    HW158413   5.629  11.557  13.962  1.1822 -1.0087  1.1967
46807SOL    HW258414   5.726  11.612  14.064 -1.8775  2.2730  2.5482
46808SOL     OW58415  10.984   6.899   7.326 -0.1931 -0.6905 -0.2838
46808SOL    HW158416  10.944   6.885   7.240 -1.4743  0.5086  0.0871
46808SOL    HW258417  10.945   6.980   7.358  1.2277 -0.4237  0.8962
46809SOL     OW58418   6.915   9.441   5.790 -0.2358 -0.2527 -0.0527
46809SOL    HW158419   6.871   9.502   5.849  0.8158  1.5752 -1.0408
46809SOL    HW258420   6.902   9.480   5.703  0.9953 -1.1124 -0.6483
46810SOL     OW58421  13.991   2.620  13.286  0.2699 -0.1481 -0.1639
46810SOL    HW158422  14.051   2.610  13.211  0.9876 -0.6642  0.4677
46810SOL    HW258423  14.031   2.690  13.338  1.0358 -1.3608  0.9214
46811SOL     OW58424  13.166   4.291  12.363  0.1329 -0.0292  0.4539
46811SOL    HW158425  13.195   4.256  12.278  1.8063 -0.2511  1.0769
46811SOL    HW258426  13.184   4.220  12.425  2.2333  1.3291  1.5201
46812SOL     OW58427   5.582  11.909   4.130 -0.3731  0.3507  0.2153
46812SOL    HW158428   5.506  11.874   4.175 -0.5930 -0.2723 -0.6208
46812SOL    HW258429   5.556  11.915   4.039  0.7754 -0.4444 -0.1859
46813SOL     OW58430   9.755  10.508   3.708 -0.3849 -0.3412 -0.1948
46813SOL    HW158431   9.802  10.570   3.653 -2.4236  0.7271 -0.8414
46813SOL    HW258432   9.793  10.519   3.795 -0.5563  1.7345 -0.3273
46814SOL     OW58433   7.419   2.363   4.238 -0.2813  0.5790 -0.1828
46814SOL    HW158434   7.360   2.413   4.294  0.6269  0.5699  0.8300
46814SOL    HW258435   7.506   2.379   4.275  0.1641 -0.7561 -0.5880
46815SOL     OW58436   0.070   4.940   0.719 -0.0514 -0.8177  0.0805
46815SOL    HW158437   0.131   4.934   0.793 -0.9387  1.1666  1.0547
46815SOL    HW258438  -0.006   4.889   0.747  0.3646 -1.6648 -0.3041
46816SOL     OW58439   2.688   7.117   7.829  0.2716  0.2790 -0.2461
46816SOL    HW158440   2.708   7.145   7.739  0.4463 -0.7257 -0.5350
46816SOL    HW258441   2.765   7.067   7.856  0.0450  0.2250  0.3134
46817SOL     OW58442   2.518   9.397   5.286  0.7169  0.0687  0.0804
46817SOL    HW158443   2.609   9.417   5.266  0.8773 -2.1877 -1.9082
46817SOL    HW258444   2.483   9.361   5.204 -1.8481  0.4498  0.9199
46818SOL     OW58445   4.195   6.934  14.074 -0.4084 -0.5120  0.2785
46818SOL    HW158446   4.287   6.954  14.060 -0.6101 -0.7748 -1.6527
46818SOL    HW258447   4.191   6.902  14.164  1.0539  1.2588  1.0296
46819SOL     OW58448   5.085   1.577   8.561  0.0979  0.2359  0.1543
46819SOL    HW158449   5.072   1.654   8.615 -0.0111  0.6846 -0.5011
46819SOL    HW258450   5.180   1.565   8.558  0.1090  0.2775  0.3476
46820SOL     OW58451   1.115   4.816  12.921 -0.0520  0.1418 -0.3388
46820SOL    HW158452   1.026   4.849  12.934 -0.7091 -1.1707 -1.3418
46820SOL    HW258453   1.136   4.837  12.830  0.9168  0.9997  0.0721
46821SOL     OW58454   2.355   3.399   4.002  0.2757  0.5380 -0.0721
46821SOL    HW158455   2.300   3.366   4.072  1.1530  0.8057  0.7654
46821SOL    HW258456   2.346   3.494   4.007  1.5773  0.6400  0.7399
46822SOL     OW58457  11.553  13.695  12.758 -0.4850  0.1917 -0.5125
46822SOL    HW158458  11.645  13.698  12.784 -0.7066  0.7396  0.2792
46822SOL    HW258459  11.538  13.780  12.716 -0.7867  0.3869 -0.0253
46823SOL     OW58460  11.045   6.062   3.513 -1.1389  0.1212 -0.6470
46823SOL    HW158461  10.957   6.041   3.546 -0.7304  3.1136  2.9454
46823SOL    HW258462  11.104   6.011   3.568 -0.5362  1.5948  0.1010
46824SOL     OW58463   4.628   5.874   3.515  0.3732 -0.0763  0.0567
46824SOL    HW158464   4.571   5.845   3.586  0.2485  1.3857  0.5896
46824SOL    HW258465   4.703   5.815   3.518 -0.3836 -1.0450  0.3397
46825SOL     OW58466   9.140  12.750   2.979  0.4758 -0.1252 -0.4585
46825SOL    HW158467   9.083  12.699   2.919  0.2706 -0.4617  0.0165
46825SOL    HW258468   9.139  12.838   2.942 -0.6366 -0.0417 -0.2788
46826SOL     OW58469   9.029   9.832   3.295 -0.4067  0.6702  0.0474
46826SOL    HW158470   9.086   9.902   3.326 -0.2941 -0.1585  1.8214
46826SOL    HW258471   9.056   9.817   3.205  2.4303  0.1041  0.9088
46827SOL     OW58472  12.268   9.979   5.238  0.3967  0.0844  0.5542
46827SOL    HW158473  12.292  10.060   5.193 -1.9933 -0.3566 -1.7046
46827SOL    HW258474  12.330   9.914   5.205  1.1109  0.5632  0.9220
46828SOL     OW58475   5.120   2.394  11.239 -0.7639 -0.7452 -0.4033
46828SOL    HW158476   5.097   2.409  11.148  1.8408  0.6505 -0.9215
46828SOL    HW258477   5.161   2.307  11.240  2.8855  0.7534 -1.5079
46829SOL     OW58478   9.273  11.630   1.026  0.4062  0.0933 -0.2194
46829SOL    HW158479   9.257  11.630   0.932 -0.9639  1.5875 -0.0198
46829SOL    HW258480   9.195  11.671   1.064  1.7328  1.2173  1.4184
46830SOL     OW58481   7.303  11.764   8.258  0.2904 -0.1755  0.1405
46830SOL    HW158482   7.319  11.671   8.245  0.2330 -0.3780  1.4341
46830SOL    HW258483   7.310  11.802   8.170  1.5082 -1.2049 -0.2313
46831SOL     OW58484   9.319   2.972   9.507  0.0014 -0.1226 -0.1117
46831SOL    HW158485   9.266   2.909   9.459  0.4511 -0.8309  0.3027
46831SOL    HW258486   9.287   2.967   9.597 -0.6394  0.9845 -0.2686
46832SOL     OW58487   0.530   4.007   8.000 -0.1243 -0.0847 -0.3900
46832SOL    HW158488   0.436   3.998   8.014  0.2033 -0.7407  1.6700
46832SOL    HW258489   0.548   4.099   8.019 -0.0268 -0.4832  1.6032
46833SOL     OW58490   2.563   6.034  10.548 -0.6434 -0.1880 -1.0629
46833SOL    HW158491   2.613   5.969  10.596  0.7293  1.8839  0.4614
46833SOL    HW258492   2.474   6.025  10.582 -0.3520 -0.8298 -0.4423
46834SOL     OW58493   8.121  11.185   7.558  0.6484  0.0432  0.0550
46834SOL    HW158494   8.199  11.178   7.613  0.3501 -0.6325  0.3971
46834SOL    HW258495   8.067  11.250   7.603  0.1301 -0.9548  0.9157
46835SOL     OW58496  14.099   3.003  10.953 -0.4851 -0.3124  0.4660
46835SOL    HW158497  14.139   2.965  10.874  0.0890  1.6854 -0.2616
46835SOL    HW258498  14.075   2.927  11.006 -2.0766 -1.8317 -2.1672
46836SOL     OW58499   1.969   6.800   7.538 -0.2416 -0.0643 -0.0656
46836SOL    HW158500   1.900   6.803   7.604 -0.0967  2.7527  0.0610
46836SOL    HW258501   2.031   6.869   7.563  2.2650 -1.9424 -0.6274
46837SOL     OW58502  14.106   8.494  11.323 -0.0631 -0.6723 -0.1578
46837SOL    HW158503  14.111   8.547  11.243 -0.4070  0.4262  0.5314
46837SOL    HW258504  14.191   8.505  11.365 -0.3629 -0.1090  0.3190
46838SOL     OW58505   9.883   2.566   9.066 -0.5166  0.3375 -0.6404
46838SOL    HW158506   9.839   2.485   9.040  0.3033  0.2762 -1.9301
46838SOL    HW258507   9.830   2.600   9.138 -0.7135 -1.4941  0.1268
46839SOL     OW58508   9.323   0.337  13.739  0.1437  0.6071  0.4208
46839SOL    HW158509   9.387   0.277  13.778 -1.1338 -0.7845  0.4635
46839SOL    HW258510   9.360   0.360  13.654  0.9167  0.2127  0.6423
46840SOL     OW58511   3.695  13.470   0.135 -0.2729 -0.2661  0.2630
46840SOL    HW158512   3.610  13.458   0.178 -0.0028 -0.5736  0.7082
46840SOL    HW258513   3.729  13.551   0.171  0.5775 -1.2216  1.6799
46841SOL     OW58514   6.727  11.144   3.338 -0.2012 -0.3701 -0.0727
46841SOL    HW158515   6.638  11.174   3.316  0.2606  0.1392 -1.3594
46841SOL    HW258516   6.784  11.193   3.278  1.2734  1.6703  2.7884
46842SOL     OW58517   7.724  11.746  10.544  0.0035  0.1570 -0.0221
46842SOL    HW158518   7.774  11.819  10.579  0.4622  1.0224 -2.2648
46842SOL    HW258519   7.780  11.670  10.555  0.2494  0.4432  0.7682
46843SOL     OW58520   4.782   4.560   1.260  0.3109  0.2132 -0.2164
46843SOL    HW158521   4.772   4.593   1.170  0.1124 -0.0813 -0.3025
46843SOL    HW258522   4.864   4.511   1.259  0.5707  0.6393 -0.1062
46844SOL     OW58523   9.518   6.754  11.617  0.1861  0.3523 -0.1634
46844SOL    HW158524   9.497   6.700  11.694  0.4903  0.4411 -0.0155
46844SOL    HW258525   9.487   6.702  11.543 -0.9881  0.6925  0.0682
46845SOL     OW58526   4.225   2.237   8.311 -0.0072  0.4916  0.5272
46845SOL    HW158527   4.277   2.311   8.342 -0.8497  0.8383  1.1337
46845SOL    HW258528   4.142   2.245   8.357 -0.1411 -0.7853  0.5377
46846SOL     OW58529  11.452   2.782   0.520  0.0411 -0.4536  0.1210
46846SOL    HW158530  11.519   2.806   0.584 -0.3525  0.5554  0.1680
46846SOL    HW258531  11.501   2.774   0.438  0.4235 -1.0147  0.3963
46847SOL     OW58532  14.007   2.191  12.463 -0.5421 -0.0452  0.3103
46847SOL    HW158533  14.002   2.262  12.526  1.2765 -0.3159  0.7979
46847SOL    HW258534  13.943   2.127  12.494 -1.5498  0.9536  0.3688
46848SOL     OW58535  11.724  12.225  11.970 -0.6505 -0.1328  0.7136
46848SOL    HW158536  11.656  12.161  11.947  1.2511 -2.2504  0.5638
46848SOL    HW258537  11.706  12.301  11.915 -1.5282 -1.5652 -1.0714
46849SOL     OW58538  14.005  12.266   7.754  0.0207  0.6064  0.4603
46849SOL    HW158539  13.939  12.218   7.703  2.2422 -0.3346 -1.7635
46849SOL    HW258540  13.991  12.358   7.731  0.3222  0.2865 -1.1679
46850SOL     OW58541   9.319   2.167   6.706 -0.2288 -0.0244 -0.0079
46850SOL    HW158542   9.305   2.262   6.710 -0.5271 -0.0884  0.5509
46850SOL    HW258543   9.295   2.136   6.794 -2.2708 -0.9084 -0.8215
46851SOL     OW58544   2.254   9.427   9.935  0.5955 -0.5568 -0.0058
46851SOL    HW158545   2.301   9.366   9.878  0.6383  0.7454 -1.4400
46851SOL    HW258546   2.182   9.460   9.880 -0.4636 -0.5804  1.3010
46852SOL     OW58547   0.509  11.971  12.903 -0.2180 -0.6551  0.6890
46852SOL    HW158548   0.465  11.888  12.919  0.3845 -0.9287  0.9583
46852SOL    HW258549   0.579  11.950  12.841 -1.1789 -0.0076 -0.6668
46853SOL     OW58550   9.846  10.770   3.044 -0.7276 -0.7003 -0.1703
46853SOL    HW158551   9.885  10.697   3.091 -1.4691 -0.6214  0.6102
46853SOL    HW258552   9.844  10.841   3.108 -0.9900 -0.3291 -0.5845
46854SOL     OW58553   1.908  12.130   8.644  0.0626 -0.3104  0.5558
46854SOL    HW158554   1.878  12.205   8.592  0.8121 -0.7587 -0.5755
46854SOL    HW258555   1.965  12.169   8.711  2.0678  0.0507 -1.2247
46855SOL     OW58556   3.754  11.371  12.283 -0.0311  0.5308 -0.2107
46855SOL    HW158557   3.697  11.330  12.218  0.5853 -1.1582  0.2792
46855SOL    HW258558   3.726  11.336  12.367  1.3716  0.0687  0.0970
46856SOL     OW58559  13.324  11.497  11.161  0.2811 -0.4445  0.2047
46856SOL    HW158560  13.292  11.417  11.202 -1.4534 -0.6620 -1.4225
46856SOL    HW258561  13.266  11.510  11.086  1.5575  1.4483 -0.5262
46857SOL     OW58562   3.733   5.670   4.323 -0.1461 -0.2270 -0.2451
46857SOL    HW158563   3.744   5.611   4.398 -0.2932 -0.2556 -0.2442
46857SOL    HW258564   3.713   5.755   4.363  1.4019  0.1376 -0.2148
46858SOL     OW58565   6.370  12.217   0.539 -0.0619 -0.2368 -0.3092
46858SOL    HW158566   6.280  12.202   0.567  0.1497  1.3332  1.4383
46858SOL    HW258567   6.415  12.135   0.557 -0.6152 -0.2283  1.2998
46859SOL     OW58568   4.570  11.932   1.969 -0.1263 -0.6096  0.4868
46859SOL    HW158569   4.524  11.858   2.008 -0.8576 -0.4162  0.0068
46859SOL    HW258570   4.639  11.892   1.916 -1.2558 -1.0299 -0.7309
46860SOL     OW58571   8.551   5.521   8.538  0.1806  0.5397 -0.0461
46860SOL    HW158572   8.520   5.605   8.503  1.3767  1.0346  0.0120
46860SOL    HW258573   8.624   5.497   8.481 -1.5012 -1.6244 -1.4511
46861SOL     OW58574   3.070   5.231   8.438  0.0026 -0.0905 -0.2986
46861SOL    HW158575   2.999   5.194   8.490  1.0335  0.0955  1.2934
46861SOL    HW258576   3.034   5.310   8.399 -0.4958  0.3221  0.9756
46862SOL     OW58577   3.343   4.279  11.374  0.2961  0.1265  0.5327
46862SOL    HW158578   3.425   4.232  11.355 -1.3350 -1.8896 -2.3125
46862SOL    HW258579   3.285   4.212  11.411 -1.0131  0.7296 -0.3531
46863SOL     OW58580  14.121   4.925   9.190  0.6085  0.1683  0.6272
46863SOL    HW158581  14.145   4.993   9.126 -1.3023  0.4589  0.1650
46863SOL    HW258582  14.155   4.844   9.151 -0.8869  0.2714 -1.0394
46864SOL     OW58583   6.714   3.308  10.714  0.3030  0.3206  0.1023
46864SOL    HW158584   6.747   3.396  10.733  3.1372 -0.8559  1.1578
46864SOL    HW258585   6.645   3.294  10.778  1.0979  1.1211  1.1736
46865SOL     OW58586   9.545   5.201  10.012 -0.4125 -0.0742  0.5407
46865SOL    HW158587   9.577   5.122   9.969 -0.6215 -0.2757  0.7495
46865SOL    HW258588   9.539   5.267   9.942  0.0699 -0.1488  0.4285
46866SOL     OW58589   0.766   8.161   3.936 -0.7022  0.3031 -0.3758
46866SOL    HW158590   0.800   8.250   3.946 -0.1184  0.1055 -0.5415
46866SOL    HW258591   0.706   8.150   4.010 -1.1221  0.9826 -0.6015
46867SOL     OW58592   9.141  13.497   6.403 -0.1331 -0.1050  0.5910
46867SOL    HW158593   9.115  13.532   6.318  2.1112 -0.2023 -0.2185
46867SOL    HW258594   9.063  13.452   6.436 -0.7308 -1.1755 -1.9992
46868SOL     OW58595   0.495   2.347   2.661 -0.2320 -0.8164 -0.2082
46868SOL    HW158596   0.530   2.258   2.658 -0.1955 -0.7734 -1.3754
46868SOL    HW258597   0.468   2.359   2.752  1.0928 -1.5021  0.2992
46869SOL     OW58598   5.883   7.899   9.299 -0.8126  0.1600  0.2790
46869SOL    HW158599   5.898   7.805   9.306  0.0733  0.2644 -0.0072
46869SOL    HW258600   5.793   7.912   9.327 -0.8002 -0.7210  0.7585
46870SOL     OW58601  11.804   0.692   5.255  0.1832  0.0576  0.8205
46870SOL    HW158602  11.859   0.616   5.275 -1.7460 -2.0269 -1.0450
46870SOL    HW258603  11.801   0.742   5.336  2.9974 -0.8712  1.6063
46871SOL     OW58604  13.342   7.704   7.977 -0.0913 -0.1018 -0.4848
46871SOL    HW158605  13.300   7.782   7.941  1.1034  1.2354  0.9154
46871SOL    HW258606  13.319   7.705   8.070  1.5200 -0.3295 -0.0641
46872SOL     OW58607   0.711   0.406  11.310 -0.3388 -0.2432 -0.0490
46872SOL    HW158608   0.805   0.425  11.316 -0.1669 -0.5288 -1.4728
46872SOL    HW258609   0.705   0.328  11.254 -1.4376  0.1004 -0.4482
46873SOL     OW58610   1.584  12.023   9.075 -0.0298  0.1948  0.3389
46873SOL    HW158611   1.603  11.929   9.068  0.4075  0.2618  0.6313
46873SOL    HW258612   1.536  12.032   9.158 -2.6293 -0.1714 -1.0106
46874SOL     OW58613  14.101   3.010   9.561  0.0957 -0.3101  0.3424
46874SOL    HW158614  14.084   3.030   9.653 -0.9290  2.7790 -0.3773
46874SOL    HW258615  14.167   3.075   9.535  0.0190 -0.8256 -1.2321
46875SOL     OW58616  13.085   9.516   3.543 -0.4435 -0.1053 -0.6102
46875SOL    HW158617  13.116   9.569   3.469  1.0658  2.9557  1.9840
46875SOL    HW258618  13.161   9.465   3.570 -0.2928  0.5141  0.1742
46876SOL     OW58619   0.430   1.773   6.016  0.0575  0.1309 -0.8329
46876SOL    HW158620   0.386   1.807   6.094  1.0770 -1.3190  0.4558
46876SOL    HW258621   0.379   1.806   5.943 -1.1445  1.2736  0.4639
46877SOL     OW58622  11.522   2.555  12.408  0.4939 -0.1493 -0.4130
46877SOL    HW158623  11.577   2.478  12.424 -1.0569 -1.3853 -0.7514
46877SOL    HW258624  11.474   2.568  12.490  0.8917  0.6031 -0.2895
46878SOL     OW58625   2.185   5.215  12.207 -0.5573 -0.2454 -1.1519
46878SOL    HW158626   2.133   5.141  12.238 -1.8445  0.9154 -0.4252
46878SOL    HW258627   2.276   5.188  12.220 -1.0170 -0.8590  1.1555
46879SOL     OW58628   6.131   4.974  13.149  0.1917 -0.1024  0.0007
46879SOL    HW158629   6.101   4.926  13.072  0.5897  0.0070 -0.2234
46879SOL    HW258630   6.213   4.931  13.174  0.7783  0.7276 -0.4587
46880SOL     OW58631   4.925   4.152  10.471 -0.0901  0.1049 -0.8735
46880SOL    HW158632   5.017   4.141  10.446  0.3429  1.5479  0.0124
46880SOL    HW258633   4.884   4.193  10.395  0.5139  1.5259 -0.4604
46881SOL     OW58634  10.822   6.072   3.642  0.4274  0.6315 -0.4977
46881SOL    HW158635  10.773   6.057   3.561 -1.0941 -1.1710  0.6722
46881SOL    HW258636  10.755   6.089   3.708  1.7012  4.9335  0.0148
46882SOL     OW58637   6.912   5.774  12.463  0.4324 -0.3644  0.5267
46882SOL    HW158638   6.873   5.798  12.547 -0.5015 -3.4423  1.0866
46882SOL    HW258639   6.999   5.815  12.465 -0.7981  2.5384  1.3913
46883SOL     OW58640   6.283   6.555   8.778  0.5900 -0.7630  0.2281
46883SOL    HW158641   6.252   6.644   8.795  0.0863 -0.4806 -1.9495
46883SOL    HW258642   6.316   6.525   8.863  2.9159  2.3071  0.5722
46884SOL     OW58643   2.798   6.386  13.384  0.1926  0.3521 -0.5664
46884SOL    HW158644   2.847   6.429  13.454  0.8707 -1.6715  0.2817
46884SOL    HW258645   2.859   6.383  13.311 -0.0876  1.3743 -0.8566
46885SOL     OW58646  11.374   4.557   7.100  0.0735  0.4896  0.1895
46885SOL    HW158647  11.374   4.625   7.168  1.6378 -1.4409  2.2799
46885SOL    HW258648  11.281   4.537   7.087 -0.3823  2.3827  0.1067
46886SOL     OW58649   0.357   9.360   3.385  0.4015  0.2034 -0.7585
46886SOL    HW158650   0.325   9.272   3.369  0.2361  0.4613 -1.9203
46886SOL    HW258651   0.315   9.414   3.318  0.1103  1.2605  0.2400
46887SOL     OW58652  12.267  12.801  11.460  0.1765  0.7550  0.5313
46887SOL    HW158653  12.335  12.839  11.404 -0.5753  0.6386 -0.5010
46887SOL    HW258654  12.272  12.850  11.542  3.5142 -1.2233  1.6953
46888SOL     OW58655  12.354   5.106   2.247  0.0419 -0.2082 -0.1746
46888SOL    HW158656  12.363   5.092   2.153  0.0567 -2.7852  0.1371
46888SOL    HW258657  12.432   5.155   2.272 -0.5865  1.6765 -1.6345
46889SOL     OW58658   7.854   3.726   4.519  0.3319  0.0009 -0.0753
46889SOL    HW158659   7.865   3.782   4.596  1.2354  0.1966 -0.3421
46889SOL    HW258660   7.861   3.637   4.553  0.1093  0.0736  0.1646
46890SOL     OW58661   9.377  14.084   2.807  0.2568  0.8655 -0.5155
46890SOL    HW158662   9.359  14.034   2.887  0.2051  1.3606 -0.2105
46890SOL    HW258663   9.385  14.175   2.838  2.1494  0.8212 -0.7877
46891SOL     OW58664  11.719   7.102  10.002  0.1668 -0.2804 -0.0503
46891SOL    HW158665  11.629   7.087   9.973 -0.0498  2.6856 -1.2603
46891SOL    HW258666  11.771   7.038   9.953 -1.1054 -0.9302 -0.6067
46892SOL     OW58667   3.120  10.428   0.368  0.1748  0.0283 -0.1007
46892SOL    HW158668   3.214  10.436   0.352  0.3350 -1.2201  0.1138
46892SOL    HW258669   3.080  10.489   0.306  1.2487  3.9171  2.6756
46893SOL     OW58670   4.508   2.339   8.176 -0.4765 -0.0373 -0.1559
46893SOL    HW158671   4.570   2.278   8.135 -1.2869 -1.7059  0.9777
46893SOL    HW258672   4.559   2.379   8.247 -1.0108 -2.6827  1.9035
46894SOL     OW58673   6.731  10.914  11.168  0.2395  0.7232 -0.1429
46894SOL    HW158674   6.661  10.930  11.105  0.0729  1.1939  0.1610
46894SOL    HW258675   6.810  10.945  11.123  0.3294 -0.2138 -0.6617
46895SOL     OW58676   7.603   0.995  12.820 -0.1255  0.3053  0.1648
46895SOL    HW158677   7.614   1.086  12.792  1.8744 -0.2344 -1.0524
46895SOL    HW258678   7.604   0.945  12.738 -2.6644 -0.7707  0.6887
46896SOL     OW58679   8.738   5.620  11.311  0.1020 -0.1538  0.5147
46896SOL    HW158680   8.780   5.621  11.397  0.5809  1.7119  0.3046
46896SOL    HW258681   8.654   5.664  11.325  0.4538  0.7416 -0.0621
46897SOL     OW58682   8.420  12.177   8.354 -0.5040  0.7341 -0.5880
46897SOL    HW158683   8.376  12.139   8.430 -1.4604  0.7648 -1.1121
46897SOL    HW258684   8.349  12.212   8.300  0.1817  0.9672 -1.3570
46898SOL     OW58685  11.937  11.145   9.259  0.2648 -0.5569 -0.0834
46898SOL    HW158686  11.905  11.061   9.226  1.7852 -0.7991 -1.0383
46898SOL    HW258687  11.931  11.204   9.185 -0.1171 -0.0010  0.3847
46899SOL     OW58688   2.250   5.626   1.639 -0.0090  0.3247  0.1327
46899SOL    HW158689   2.275   5.699   1.697  1.4221 -0.5044  0.6006
46899SOL    HW258690   2.333   5.586   1.613 -0.7393 -0.7114 -0.7035
46900SOL     OW58691  12.141   9.320   3.604 -0.4852  0.4605 -0.5489
46900SOL    HW158692  12.101   9.379   3.668  0.9842  1.3379 -0.3866
46900SOL    HW258693  12.160   9.240   3.653  3.0470  2.0159  0.9838
46901SOL     OW58694   2.158  12.333   9.891 -0.5584  0.0207 -0.6529
46901SOL    HW158695   2.134  12.425   9.887 -0.7925 -0.0653 -1.2464
46901SOL    HW258696   2.074  12.287   9.899 -0.3794 -0.0393  2.0451
46902SOL     OW58697   1.140  13.232   2.011 -0.8411 -0.4142  0.3114
46902SOL    HW158698   1.133  13.168   1.941 -2.0398 -0.4570  0.4390
46902SOL    HW258699   1.229  13.224   2.044  0.0021  0.1736 -1.7379
46903SOL     OW58700  14.064   6.585   0.086  0.3189  0.0755  0.0777
46903SOL    HW158701  13.976   6.559   0.060  0.5019 -0.6675  0.1676
46903SOL    HW258702  14.058   6.600   0.180  0.3302 -0.1901  0.1233
46904SOL     OW58703   0.173   7.830   7.516  0.6426  0.3111  0.1830
46904SOL    HW158704   0.242   7.776   7.555  2.0561  1.5244 -0.5367
46904SOL    HW258705   0.148   7.784   7.436  0.7177 -0.0396  0.3568
46905SOL     OW58706  13.614   8.773   1.773 -0.8221  0.4159 -0.8169
46905SOL    HW158707  13.706   8.798   1.770 -0.4615 -0.7003  0.0921
46905SOL    HW258708  13.576   8.828   1.841 -0.5551  0.0592 -0.3795
46906SOL     OW58709   2.496   3.789   7.462  0.3840  0.1241 -0.2391
46906SOL    HW158710   2.404   3.794   7.436  0.3468  1.0798  0.0233
46906SOL    HW258711   2.508   3.863   7.521  1.1010 -0.5174  0.4524
46907SOL     OW58712   7.059   8.134   8.561  0.2585 -0.1030  0.5346
46907SOL    HW158713   7.060   8.045   8.596 -1.2703  0.2293  1.5205
46907SOL    HW258714   6.974   8.170   8.589  0.5845  1.4556 -0.3623
46908SOL     OW58715   4.680   3.613  14.037 -0.3803  0.6656 -0.2276
46908SOL    HW158716   4.690   3.695  14.085 -0.9852  0.2147  0.6911
46908SOL    HW258717   4.763   3.567  14.050 -0.1895  0.9499 -0.4169
46909SOL     OW58718   0.926   6.454   5.428  0.3909 -0.5624 -0.0378
46909SOL    HW158719   0.881   6.488   5.505 -1.3647  2.3155 -2.1369
46909SOL    HW258720   0.856   6.430   5.367  1.6497 -4.7623 -0.1521
46910SOL     OW58721  10.597   1.798  13.057  0.3920  0.2104 -0.2269
46910SOL    HW158722  10.670   1.845  13.016 -0.4587  3.7750  1.9540
46910SOL    HW258723  10.627   1.780  13.146 -0.6063 -0.2933  0.0167
46911SOL     OW58724   6.982   4.743   9.473 -0.3141 -0.3940 -0.7171
46911SOL    HW158725   7.021   4.781   9.552  1.1569  1.5693 -2.3066
46911SOL    HW258726   6.940   4.663   9.504 -1.4128  1.2196  2.3713
46912SOL     OW58727  13.118   5.559   8.110 -0.3331  0.2108 -0.0883
46912SOL    HW158728  13.156   5.645   8.126 -0.5995  0.2143  0.5215
46912SOL    HW258729  13.049   5.550   8.175 -0.3224 -0.4521 -0.1624
46913SOL     OW58730  10.604   4.222  13.734 -0.0147 -0.2261 -0.6136
46913SOL    HW158731  10.609   4.147  13.673  0.4729 -0.0748 -0.7593
46913SOL    HW258732  10.682   4.214  13.788 -2.3420 -2.7244  2.7930
46914SOL     OW58733  11.271   4.119  13.874 -0.0103  0.1281  0.2454
46914SOL    HW158734  11.212   4.130  13.799 -1.8116  1.5832  1.7893
46914SOL    HW258735  11.295   4.208  13.899 -0.7635 -0.2117  2.3819
46915SOL     OW58736  12.753  10.216   5.517  0.0209  0.1502  0.2399
46915SOL    HW158737  12.702  10.296   5.507  0.6115  0.5186  0.1354
46915SOL    HW258738  12.837  10.244   5.553 -0.1562 -0.5527  1.2554
46916SOL     OW58739  12.529   2.992   1.685 -0.6772 -0.0332  0.5456
46916SOL    HW158740  12.544   3.071   1.634 -0.6099  0.1822  0.8976
46916SOL    HW258741  12.489   2.931   1.623 -2.9426  1.0737  0.8187
46917SOL     OW58742  13.589   3.959  14.097  0.0009  0.2114  0.6181
46917SOL    HW158743  13.559   3.929  14.011  1.6962  1.2054 -0.3730
46917SOL    HW258744  13.645   3.888  14.129  1.4226  0.9041 -0.2753
46918SOL     OW58745   1.001   0.480   4.107  0.0816  0.0551 -0.4523
46918SOL    HW158746   1.039   0.395   4.131  0.8817  0.5502  0.0984
46918SOL    HW258747   1.077   0.537   4.094 -0.4495  1.1271  0.8586
46919SOL     OW58748   9.678  13.448  11.468  0.8374 -0.3959 -0.1751
46919SOL    HW158749   9.612  13.511  11.438  0.8913 -0.2857 -0.0605
46919SOL    HW258750   9.636  13.402  11.540  1.0069 -0.0990  0.1139
46920SOL     OW58751   7.779   0.159   5.898 -0.5540 -0.0946  0.3127
46920SOL    HW158752   7.758   0.156   5.991  0.1877 -0.1714  0.4848
46920SOL    HW258753   7.874   0.170   5.895 -0.7601  2.0491 -0.4197
46921SOL     OW58754  11.419   9.942  13.138 -0.3237  0.0448 -0.5542
46921SOL    HW158755  11.504   9.957  13.098 -0.7862 -0.4156 -1.7575
46921SOL    HW258756  11.400   9.850  13.120 -0.6920 -0.0843  0.4577
46922SOL     OW58757   3.397   8.813   5.562  0.5755 -0.0237 -0.7398
46922SOL    HW158758   3.414   8.870   5.637 -0.7430 -1.7757  1.0003
46922SOL    HW258759   3.337   8.863   5.507 -0.1506  0.5049  0.4775
46923SOL     OW58760  13.163   8.783   5.260 -0.6657 -0.2732  0.2977
46923SOL    HW158761  13.199   8.773   5.172 -1.0003 -0.1313  0.1464
46923SOL    HW258762  13.190   8.703   5.305  1.2135  0.5165  0.6799
46924SOL     OW58763  12.144  10.679   0.952 -0.6448 -0.6591  0.0515
46924SOL    HW158764  12.103  10.732   1.020 -3.9020 -2.8818  0.0927
46924SOL    HW258765  12.182  10.743   0.892 -0.3593  1.4822  2.3376
46925SOL     OW58766   7.001   6.575   9.506  0.2276 -0.2690 -0.1137
46925SOL    HW158767   7.032   6.655   9.548 -1.6814  0.5093 -0.0752
46925SOL    HW258768   6.964   6.605   9.423  1.6038 -1.4524 -1.2115
46926SOL     OW58769   5.322   7.154   0.532 -0.2394  0.3124  0.7214
46926SOL    HW158770   5.249   7.128   0.588  0.6637 -0.9192  1.3952
46926SOL    HW258771   5.283   7.209   0.465 -2.2604 -2.3052 -0.4661
46927SOL     OW58772  11.120   5.813   7.338  0.5834  0.8448 -0.0525
46927SOL    HW158773  11.188   5.822   7.405  0.6380 -1.3286  0.2491
46927SOL    HW258774  11.063   5.889   7.351  2.4228  2.2444  0.2668
46928SOL     OW58775  10.435   6.133   2.808 -0.4912 -0.1563 -0.3855
46928SOL    HW158776  10.515   6.083   2.791  0.8747  2.2281 -1.3915
46928SOL    HW258777  10.463   6.224   2.811 -3.1635  0.7680 -0.6289
46929SOL     OW58778   6.897   9.740   9.050 -0.2458  0.1036  0.2183
46929SOL    HW158779   6.946   9.661   9.075  1.8633  1.4246  0.4874
46929SOL    HW258780   6.923   9.757   8.960  2.5959  2.6657  1.3451
46930SOL     OW58781   7.297   6.896   9.238 -0.0227  0.0898 -0.0765
46930SOL    HW158782   7.298   6.953   9.160 -1.1818 -0.7063 -0.7133
46930SOL    HW258783   7.388   6.890   9.265  0.5071 -0.1459 -1.7989
46931SOL     OW58784  13.910   5.211   7.623 -0.2166  0.1489 -0.1796
46931SOL    HW158785  13.826   5.207   7.670  0.5351  0.0178  1.2066
46931SOL    HW258786  13.962   5.139   7.659  1.0702  1.2103  0.1949
46932SOL     OW58787   8.509   0.946   8.985 -0.0617 -0.3054  0.6083
46932SOL    HW158788   8.519   0.855   8.957 -3.0793 -0.9907  1.3712
46932SOL    HW258789   8.540   0.998   8.911  1.9721 -1.9018  0.2586
46933SOL     OW58790  11.796   9.959  13.595  0.9064  0.2122  0.8581
46933SOL    HW158791  11.868   9.977  13.655  1.1317  2.4914  0.0353
46933SOL    HW258792  11.775   9.867  13.607  2.2853  0.1292  2.9252
46934SOL     OW58793  10.635  12.484   9.477 -0.3816 -0.2688  0.4340
46934SOL    HW158794  10.615  12.455   9.566 -0.0565  0.3086  0.7025
46934SOL    HW258795  10.571  12.438   9.421 -0.7312 -0.4619  0.9876
46935SOL     OW58796  10.564  10.042   2.589 -0.0435 -0.4742  0.4577
46935SOL    HW158797  10.488  10.066   2.641 -0.6561 -0.2517 -0.5159
46935SOL    HW258798  10.528  10.019   2.503  0.9837 -0.3218 -0.0315
46936SOL     OW58799   5.138  12.979   5.010  0.1065  0.2751 -1.1018
46936SOL    HW158800   5.157  13.041   4.940 -1.9139  2.7716  0.3753
46936SOL    HW258801   5.174  13.021   5.089  0.8863 -1.6783 -0.3487
46937SOL     OW58802   3.232   3.079   2.381  0.3692 -0.3732 -0.4797
46937SOL    HW158803   3.321   3.087   2.412  1.1824 -0.3439 -2.6143
46937SOL    HW258804   3.198   3.169   2.381 -0.1808 -0.5420  1.6161
46938SOL     OW58805   1.348  10.834   4.667  0.1330  0.5825  0.3469
46938SOL    HW158806   1.421  10.843   4.606  0.3932  0.2949  0.6205
46938SOL    HW258807   1.306  10.921   4.666  0.6672  0.8456  0.4356
46939SOL     OW58808   0.105  11.563   8.684  0.2865  0.1719  0.0358
46939SOL    HW158809   0.098  11.584   8.591 -0.8316  1.3359  0.3714
46939SOL    HW258810   0.050  11.627   8.728  0.8928 -0.2886  1.5254
46940SOL     OW58811   1.428  10.709   5.365 -0.4465 -0.0768  0.4975
46940SOL    HW158812   1.415  10.639   5.301  0.6094 -0.3234  0.5274
46940SOL    HW258813   1.376  10.782   5.331  0.2355 -0.1360 -0.7592
46941SOL     OW58814  10.301   8.723   5.209 -0.4998  0.2795 -0.5910
46941SOL    HW158815  10.371   8.788   5.214  0.3939 -0.6264 -0.7757
46941SOL    HW258816  10.226   8.765   5.250  0.7560  0.5277  1.6148
46942SOL     OW58817  10.868   0.984   1.861  0.0739  0.2071  0.3164
46942SOL    HW158818  10.963   0.977   1.850  0.0222  0.7407 -0.5243
46942SOL    HW258819  10.854   1.074   1.890 -0.2345  0.3424 -0.2511
46943SOL     OW58820  13.650   5.197   1.999 -0.0604 -0.0171  0.4752
46943SOL    HW158821  13.635   5.263   2.067 -2.8892 -1.5994  1.5807
46943SOL    HW258822  13.708   5.133   2.041  1.4872  0.9633 -0.0891
46944SOL     OW58823  12.227   8.142  11.950  0.3152 -0.2031  0.3182
46944SOL    HW158824  12.235   8.237  11.947  0.7248 -0.2494 -0.1987
46944SOL    HW258825  12.135   8.126  11.970  0.3413  0.3003  0.8765
46945SOL     OW58826  13.568   2.571  11.388 -0.2944 -0.5452 -0.0696
46945SOL    HW158827  13.613   2.582  11.304  1.2729 -1.3853  0.6153
46945SOL    HW258828  13.636   2.587  11.453 -1.5785  0.4950  1.0806
46946SOL     OW58829   1.832   8.689   1.136  0.1431 -0.0853 -0.2779
46946SOL    HW158830   1.878   8.719   1.058  0.2937 -0.8111 -0.4772
46946SOL    HW258831   1.775   8.618   1.104 -1.1920  0.8612 -0.0568
46947SOL     OW58832  12.142   7.051   5.444  0.7663 -0.2361 -0.4692
46947SOL    HW158833  12.205   7.107   5.490  1.0264 -0.0233 -1.0680
46947SOL    HW258834  12.110   6.991   5.511 -2.4119  2.9803  1.1926
46948SOL     OW58835  10.702   6.150   6.547  0.1849  0.4072  0.4228
46948SOL    HW158836  10.662   6.076   6.501  0.4821  1.5422 -1.8065
46948SOL    HW258837  10.637   6.175   6.612 -0.0234 -1.6283  1.0761
46949SOL     OW58838   4.487  13.770  12.793  0.3984  0.8054  0.0655
46949SOL    HW158839   4.489  13.694  12.851  0.2173  1.5085  1.0319
46949SOL    HW258840   4.399  13.769  12.755  0.9092 -0.3359 -1.1748
46950SOL     OW58841   2.864   0.155  13.947  0.1192 -0.0929 -0.0868
46950SOL    HW158842   2.789   0.101  13.972  0.0768  0.5054  1.1696
46950SOL    HW258843   2.941   0.100  13.966  0.0325 -0.2677 -0.2422
46951SOL     OW58844   2.283  13.917   9.944 -0.4640  0.2982  0.0600
46951SOL    HW158845   2.273  13.822   9.953 -2.7368  0.1728 -2.4669
46951SOL    HW258846   2.376  13.933   9.959 -0.0532 -2.2874  0.7115
46952SOL     OW58847  12.265  12.869  13.809 -0.7433 -0.0235 -0.0969
46952SOL    HW158848  12.184  12.848  13.855 -0.4812  0.2596  0.5105
46952SOL    HW258849  12.279  12.962  13.827  0.2044 -0.2814  0.6052
46953SOL     OW58850   9.614  10.496   7.262  0.0197  0.0490  0.2407
46953SOL    HW158851   9.664  10.487   7.344  3.4833 -0.0063 -1.7112
46953SOL    HW258852   9.653  10.571   7.217 -0.5048 -1.0342 -2.1854
46954SOL     OW58853   1.842  12.340  11.619  0.3817 -0.3488 -0.4651
46954SOL    HW158854   1.867  12.338  11.711  1.8062 -0.8638 -0.8335
46954SOL    HW258855   1.755  12.381  11.618  0.7810  0.6043  0.9963
46955SOL     OW58856   6.595   0.932   1.188 -0.1703 -0.0035  0.4485
46955SOL    HW158857   6.573   0.895   1.274  0.4688  1.3414  1.2189
46955SOL    HW258858   6.538   1.009   1.180 -1.5709 -1.1225 -1.1808
46956SOL     OW58859   2.682  12.889   6.602 -0.0353 -0.1009 -0.1381
46956SOL    HW158860   2.730  12.970   6.585  0.4192 -0.7261 -2.0231
46956SOL    HW258861   2.591  12.910   6.581  0.3614 -0.5609 -2.6091
46957SOL     OW58862   5.281   2.797  14.103  0.3415 -0.2641  0.2668
46957SOL    HW158863   5.204   2.852  14.113  1.2763  1.0911  0.1939
46957SOL    HW258864   5.247   2.713  14.071 -1.1086  0.2368  0.4707
46958SOL     OW58865  14.076  13.240   2.484 -0.8066  0.4298  0.0830
46958SOL    HW158866  14.091  13.296   2.407  1.3244  0.0963  0.2000
46958SOL    HW258867  14.065  13.152   2.447 -1.2338  0.4747  0.0920
46959SOL     OW58868  13.596   7.098  10.741 -0.0194 -0.6341  0.4283
46959SOL    HW158869  13.554   7.160  10.682  0.7339 -2.1284 -1.7872
46959SOL    HW258870  13.524   7.064  10.795 -0.8703  0.1103 -0.2034
46960SOL     OW58871   2.044   3.066  10.151 -0.0744 -0.2498 -0.2495
46960SOL    HW158872   2.075   2.993  10.097  1.9008 -0.4286  1.0241
46960SOL    HW258873   2.120   3.090  10.204 -2.1211 -0.7494  3.2140
46961SOL     OW58874   3.408  12.513   4.610 -0.4627 -0.0454  0.3780
46961SOL    HW158875   3.468  12.530   4.683 -0.3354  0.7659  0.0883
46961SOL    HW258876   3.441  12.433   4.569  1.6312  1.4348 -1.0083
46962SOL     OW58877   3.821   2.340   3.354  0.1630 -0.2145 -0.5304
46962SOL    HW158878   3.913   2.325   3.375  0.1240 -0.3042 -0.4262
46962SOL    HW258879   3.809   2.435   3.365  0.0036 -0.3391  0.3783
46963SOL     OW58880  11.916   8.991   6.600  0.0388  0.0236 -0.3275
46963SOL    HW158881  11.858   9.001   6.676  0.5002 -0.2721  0.0747
46963SOL    HW258882  11.926   8.896   6.591  1.8933  0.0662  0.7458
46964SOL     OW58883   7.702  11.455  13.111  0.4042  0.2614 -0.2966
46964SOL    HW158884   7.783  11.416  13.080 -0.8081 -2.1444 -0.6364
46964SOL    HW258885   7.694  11.424  13.202 -0.2082  0.3581 -0.3142
46965SOL     OW58886  11.935   2.494   0.204  0.5678  0.4267  0.0152
46965SOL    HW158887  11.966   2.435   0.136  2.5696 -0.4929  1.6047
46965SOL    HW258888  11.903   2.436   0.274  1.9176  1.1708  1.3169
46966SOL     OW58889   1.560   3.483  14.068  0.6001  0.0066  0.1741
46966SOL    HW158890   1.490   3.541  14.038 -0.1829  0.3198  2.3968
46966SOL    HW258891   1.599   3.448  13.988 -0.4640  1.7607 -1.1751
46967SOL     OW58892  13.972   9.580   8.213 -0.4171 -0.0780  0.4856
46967SOL    HW158893  14.045   9.628   8.252 -0.5962  0.8789 -0.3188
46967SOL    HW258894  13.908   9.572   8.284 -0.0080  0.0708  0.8774
46968SOL     OW58895   2.191   0.672   8.742 -0.4053 -0.3971 -1.0998
46968SOL    HW158896   2.259   0.643   8.804  0.7946 -1.3260 -2.7640
46968SOL    HW258897   2.146   0.591   8.718 -1.8897  0.1616 -0.3253
46969SOL     OW58898  13.314   9.898   0.520 -0.1095 -0.0166  0.3367
46969SOL    HW158899  13.228   9.914   0.559  0.4370  1.8749  0.8444
46969SOL    HW258900  13.351   9.985   0.506  1.7152 -0.7948  0.0589
46970SOL     OW58901   4.069   5.825   7.990  0.0756  0.2284 -0.0618
46970SOL    HW158902   3.989   5.857   7.947 -0.0005  0.9103  0.5780
46970SOL    HW258903   4.131   5.812   7.918  0.1572  1.9647 -0.3593
46971SOL     OW58904  14.054  11.191   7.542 -0.1958  0.0793 -0.3569
46971SOL    HW158905  14.103  11.141   7.608  0.4909  1.5091  0.2558
46971SOL    HW258906  14.121  11.223   7.482 -0.3888  1.7503  0.2800
46972SOL     OW58907  13.863   0.894   3.107  0.4513 -0.8136 -0.1074
46972SOL    HW158908  13.805   0.970   3.114  1.5332 -0.1022  1.4647
46972SOL    HW258909  13.835   0.835   3.177 -0.0362 -1.6773 -0.9883
46973SOL     OW58910  12.786   8.984   1.298  0.3138 -0.3187  0.0086
46973SOL    HW158911  12.835   8.950   1.224 -2.6375 -2.1230 -1.3203
46973SOL    HW258912  12.789   9.079   1.288  1.0752 -0.4976 -1.6785
46974SOL     OW58913   0.206  10.921  10.116 -0.5219 -0.5550 -0.0888
46974SOL    HW158914   0.154  10.998  10.093 -1.3970 -0.8878  0.6953
46974SOL    HW258915   0.157  10.880  10.188  0.7551 -0.9598  0.5768
46975SOL     OW58916   4.018   0.004   4.116  0.1858 -0.4870 -0.9500
46975SOL    HW158917   3.928   0.003   4.149  0.6281 -1.1420  0.2905
46975SOL    HW258918   4.072  -0.016   4.192  1.4784  0.9420 -1.4418
46976SOL     OW58919   6.109   1.091   1.122  0.1470 -0.1182  0.2772
46976SOL    HW158920   6.106   1.099   1.027  0.7873 -1.4413  0.1249
46976SOL    HW258921   6.196   1.122   1.146 -0.5316  1.6572  0.6269
46977SOL     OW58922  12.952   7.441   6.370 -0.3662  0.4817  0.1629
46977SOL    HW158923  12.865   7.420   6.337 -0.4999  1.7568 -0.3514
46977SOL    HW258924  12.949   7.535   6.388  0.1126  0.0768  2.6231
46978SOL     OW58925   5.702   3.486   8.974  0.0101 -0.2556 -0.1287
46978SOL    HW158926   5.795   3.484   8.952  0.9347  0.2846  3.1677
46978SOL    HW258927   5.687   3.405   9.023 -1.2804 -0.3344 -0.6119
46979SOL     OW58928  13.457   1.747  13.450  0.0024  0.1673 -0.2507
46979SOL    HW158929  13.399   1.775  13.522  1.2450  1.8440  0.1621
46979SOL    HW258930  13.489   1.829  13.413 -1.3057 -0.5987 -3.3737
46980SOL     OW58931  11.078  13.215   4.246 -0.6673 -0.3676  0.2032
46980SOL    HW158932  11.005  13.171   4.289 -1.2750  1.4531  1.1265
46980SOL    HW258933  11.092  13.165   4.166  0.0058 -3.4298  2.0673
46981SOL     OW58934   1.898   6.696   2.435  0.1716 -0.0301  0.0363
46981SOL    HW158935   1.939   6.780   2.415 -1.1696  0.2174 -1.9882
46981SOL    HW258936   1.823   6.717   2.489  0.0664  0.0476 -0.1376
46982SOL     OW58937   0.024   8.334  11.674  0.6577  1.2034  0.1435
46982SOL    HW158938  -0.012   8.334  11.585  0.6362  1.1456  0.1518
46982SOL    HW258939   0.009   8.422  11.706  0.1196  1.0505  0.3103
46983SOL     OW58940  12.350   1.489   1.746  0.1565 -0.2060  0.6567
46983SOL    HW158941  12.344   1.400   1.712 -0.2843 -0.3570  1.1059
46983SOL    HW258942  12.435   1.493   1.789 -0.1631 -0.6928  1.3700
46984SOL     OW58943  13.527   7.312   9.251  0.6702 -0.1251 -0.2072
46984SOL    HW158944  13.504   7.328   9.343  2.5962  1.1519  0.1154
46984SOL    HW258945  13.495   7.388   9.204 -0.0646 -0.6474 -0.5679
46985SOL     OW58946   3.892  12.224  12.454  0.4668 -0.1948  0.5583
46985SOL    HW158947   3.966  12.283  12.436 -0.4760  1.1244  0.8623
46985SOL    HW258948   3.892  12.163  12.380  1.1095  0.5657 -0.0998
46986SOL     OW58949   3.690  11.371   8.144 -0.3138  0.0652 -0.0058
46986SOL    HW158950   3.654  11.444   8.093 -1.3355  0.6296  1.4577
46986SOL    HW258951   3.785  11.378   8.132 -0.4854  0.5854 -1.2554
46987SOL     OW58952  13.939  12.314  11.921 -0.8535  0.3401 -0.0918
46987SOL    HW158953  13.958  12.319  12.014  0.8080  0.7318 -0.4322
46987SOL    HW258954  14.002  12.251  11.887 -1.8022 -0.2154 -0.8788
46988SOL     OW58955   8.354   3.971   3.165  0.2932 -0.3958  0.6142
46988SOL    HW158956   8.319   3.886   3.140 -0.4557 -0.6530  2.3978
46988SOL    HW258957   8.347   3.973   3.260  0.7224  1.4772  0.6465
46989SOL     OW58958  11.495   9.145   0.530  0.1031 -0.2431  0.3525
46989SOL    HW158959  11.404   9.117   0.540 -0.3784  0.3196 -1.9231
46989SOL    HW258960  11.537   9.073   0.483 -0.1246  1.0213 -1.8807
46990SOL     OW58961   1.147   2.790  10.190  0.3180 -0.6219  0.4729
46990SOL    HW158962   1.145   2.850  10.265  0.8701  0.7162 -0.5381
46990SOL    HW258963   1.168   2.705  10.228 -1.8047 -0.4887  2.1197
46991SOL     OW58964  10.421   5.578   9.517 -0.8537 -0.8045  0.4171
46991SOL    HW158965  10.431   5.655   9.573 -0.0743  0.3070 -1.1716
46991SOL    HW258966  10.474   5.510   9.560  1.4610  0.6317  0.0040
46992SOL     OW58967  12.546   9.318   2.669 -0.0274 -0.4175  0.3631
46992SOL    HW158968  12.515   9.327   2.579 -0.5342  0.3909  0.6122
46992SOL    HW258969  12.614   9.250   2.664  1.0181  0.6663 -0.8906
46993SOL     OW58970  11.667   3.508   9.598 -0.0096  0.2489 -0.4192
46993SOL    HW158971  11.678   3.537   9.688 -0.1147 -1.9941  0.3933
46993SOL    HW258972  11.573   3.516   9.582 -0.1876 -0.5043  0.1506
46994SOL     OW58973   3.311   7.981   3.607  0.6291 -0.7663  0.0755
46994SOL    HW158974   3.290   8.033   3.685 -0.3858  1.2176 -1.4263
46994SOL    HW258975   3.283   7.892   3.629  0.8604 -0.3764  2.1390
46995SOL     OW58976   3.365  10.143   4.905  0.3817 -0.1998 -0.3832
46995SOL    HW158977   3.394  10.195   4.830  1.8573 -0.1666  0.1836
46995SOL    HW258978   3.397  10.190   4.981 -2.0132  0.3389  0.3846
46996SOL     OW58979  10.513  10.644  12.372 -0.6947  0.3970  0.4025
46996SOL    HW158980  10.429  10.689  12.365 -1.7941 -1.5887 -0.2024
46996SOL    HW258981  10.525  10.629  12.465 -1.1622  0.4969  0.4839
46997SOL     OW58982   1.824   8.170   5.458 -0.0995 -0.4890 -0.1937
46997SOL    HW158983   1.906   8.218   5.460 -0.0306 -0.6189  0.0868
46997SOL    HW258984   1.762   8.226   5.505  0.1546 -0.9938  0.7610
46998SOL     OW58985   0.449   5.612  13.855 -0.2872 -0.3067  0.0414
46998SOL    HW158986   0.444   5.645  13.945 -0.7658 -0.7702  0.1894
46998SOL    HW258987   0.541   5.589  13.843 -0.3684 -0.9775  0.6780
46999SOL     OW58988   6.769   9.169   8.699 -0.0607 -0.2013  0.4816
46999SOL    HW158989   6.715   9.102   8.741  0.3174 -0.3132  0.7954
46999SOL    HW258990   6.823   9.204   8.770  1.0124 -0.7965 -0.0079
47000SOL     OW58991   7.449   1.188  10.051  0.4633  0.1626 -0.5454
47000SOL    HW158992   7.382   1.145  10.105  0.8923 -0.3343 -0.3929
47000SOL    HW258993   7.531   1.169  10.097  0.5983  1.7499 -0.0955
47001SOL     OW58994   5.552   1.235   1.711  0.2378 -0.0827 -0.0010
47001SOL    HW158995   5.457   1.250   1.704 -0.1769 -2.3347 -0.0412
47001SOL    HW258996   5.578   1.207   1.623 -0.3043 -5.0616  1.0842
47002SOL     OW58997   4.432   7.153   6.518  0.1132 -0.3811  0.1580
47002SOL    HW158998   4.389   7.228   6.476  1.2397  0.6072  0.6993
47002SOL    HW258999   4.363   7.111   6.569 -0.8905 -0.6285 -1.3326
47003SOL     OW59000   3.620   9.909   2.864 -0.2603 -0.3624 -0.4323
47003SOL    HW159001   3.672   9.859   2.801  1.7970  1.3587 -0.2352
47003SOL    HW259002   3.620   9.998   2.829  0.9987  0.6731  1.9248
47004SOL     OW59003  11.424  11.468  10.759 -0.1106 -0.0990  0.4026
47004SOL    HW159004  11.494  11.499  10.816  0.4427 -2.1252  0.8939
47004SOL    HW259005  11.415  11.537  10.693  1.6688  0.6712  0.8976
47005SOL     OW59006   6.699   4.717   4.958  0.2095 -0.0549 -0.2225
47005SOL    HW159007   6.615   4.760   4.938 -1.2537 -2.3462  0.5283
47005SOL    HW259008   6.765   4.772   4.916 -1.8218  0.7488 -2.6337
47006SOL     OW59009  12.559   8.156   2.684  0.4462  0.4364 -0.3261
47006SOL    HW159010  12.562   8.198   2.770  0.5614  1.3844 -0.7711
47006SOL    HW259011  12.606   8.074   2.695 -2.8563 -1.4305  1.5374
47007SOL     OW59012  11.169  11.478   2.794  0.2538 -0.0977 -0.3933
47007SOL    HW159013  11.244  11.463   2.736  1.1026 -0.0448  0.6348
47007SOL    HW259014  11.101  11.515   2.738  1.3706  0.8514 -1.1656
47008SOL     OW59015   8.411  13.225  13.712 -0.0972  0.9090 -0.5409
47008SOL    HW159016   8.371  13.182  13.787  1.4268 -0.9168 -0.7015
47008SOL    HW259017   8.384  13.316  13.719 -1.0474  0.5178  1.4904
47009SOL     OW59018   8.990   5.260   2.001  0.4308  0.6490  0.1309
47009SOL    HW159019   8.920   5.230   2.060  0.2604  0.6172 -0.0855
47009SOL    HW259020   8.955   5.339   1.961  0.1170  0.0875 -0.7229
47010SOL     OW59021  13.018   8.053  13.379  0.4517  0.1311 -0.0322
47010SOL    HW159022  12.946   8.114  13.395 -0.4444 -1.0228  0.4774
47010SOL    HW259023  13.097   8.101  13.406 -0.3671  0.5803  1.7112
47011SOL     OW59024  13.979   7.701   6.009  0.0972  0.4691 -0.1554
47011SOL    HW159025  14.065   7.739   6.025  0.8904 -2.0269  2.1637
47011SOL    HW259026  13.925   7.732   6.081 -1.1179  2.1704 -1.6935
47012SOL     OW59027   3.685  13.199   4.703 -0.0953  0.0589  0.0679
47012SOL    HW159028   3.730  13.283   4.717 -1.0506  0.3387  1.6634
47012SOL    HW259029   3.593  13.218   4.720 -0.2718 -1.4217  0.9458
47013SOL     OW59030  12.029   9.612   4.340 -0.6096  0.3981  0.2612
47013SOL    HW159031  12.051   9.565   4.420  0.0188 -2.2739 -1.3661
47013SOL    HW259032  12.114   9.639   4.304 -0.7880  0.4067 -0.1601
47014SOL     OW59033   3.194   0.457   4.908 -0.2008  0.2328 -0.2005
47014SOL    HW159034   3.197   0.362   4.918  1.4293  0.3313  0.6307
47014SOL    HW259035   3.249   0.475   4.832 -0.3598  0.5242 -0.2482
47015SOL     OW59036   6.463   4.681   9.746  0.3629  0.1769 -0.2257
47015SOL    HW159037   6.556   4.698   9.730  0.4886  0.1676  0.4696
47015SOL    HW259038   6.457   4.586   9.755  0.3671  0.2185  0.2219
47016SOL     OW59039   5.371   9.837  12.501 -0.4015  0.2476 -0.7029
47016SOL    HW159040   5.430   9.790  12.442 -0.0595 -2.3291  1.5051
47016SOL    HW259041   5.426   9.903  12.543  1.1001 -2.1691  1.3814
47017SOL     OW59042   6.489   1.152   9.326  0.0026  0.0491  0.1561
47017SOL    HW159043   6.542   1.191   9.396 -1.3299  0.6479  0.8525
47017SOL    HW259044   6.487   1.218   9.257 -0.9047  0.5756  0.6712
47018SOL     OW59045   1.334   3.297   4.684 -0.0601 -0.0468  0.4454
47018SOL    HW159046   1.352   3.206   4.706  0.9223  0.3459  1.3614
47018SOL    HW259047   1.249   3.316   4.724 -0.9450 -0.9173 -0.9097
47019SOL     OW59048  14.000   2.358   1.233 -0.1310 -0.3535 -0.6573
47019SOL    HW159049  13.951   2.283   1.201 -0.3694  0.0991 -1.3785
47019SOL    HW259050  14.091   2.327   1.239  0.2481 -0.0187 -3.4005
47020SOL     OW59051  12.522   0.488   8.557 -0.5582  0.3473 -0.3949
47020SOL    HW159052  12.543   0.514   8.467 -0.3751 -0.5710 -0.6207
47020SOL    HW259053  12.607   0.475   8.599 -0.6433 -1.0153 -0.6214
47021SOL     OW59054   6.653  11.448   0.406  1.0234  0.2509 -0.2909
47021SOL    HW159055   6.606  11.454   0.490  1.5605  1.5420 -0.0457
47021SOL    HW259056   6.732  11.399   0.427 -1.3254 -4.4690 -1.2978
47022SOL     OW59057   0.343   4.851  13.498  0.2996 -0.0662  0.8485
47022SOL    HW159058   0.273   4.908  13.529 -0.9007  0.8891 -3.0713
47022SOL    HW259059   0.309   4.762  13.512 -0.1756  0.2906  2.0795
47023SOL     OW59060   1.784  13.652   5.328 -0.1481 -0.1682 -0.0682
47023SOL    HW159061   1.768  13.738   5.368 -0.7025  0.5345 -1.7242
47023SOL    HW259062   1.806  13.596   5.402 -0.8341  1.1334  1.1894
47024SOL     OW59063   1.375  12.714   1.050 -0.7710 -0.1062  0.0421
47024SOL    HW159064   1.328  12.634   1.030 -0.0179 -0.6561  0.4210
47024SOL    HW259065   1.310  12.771   1.092 -2.4416  1.0984 -3.7447
47025SOL     OW59066   8.974   0.312   6.853 -0.0825  0.2906  0.4088
47025SOL    HW159067   8.951   0.330   6.944  0.0782 -1.6251  0.8751
47025SOL    HW259068   8.898   0.265   6.817  0.9192 -1.4441  0.4280
47026SOL     OW59069   3.178   5.593  11.063  0.0962  0.3636 -0.5945
47026SOL    HW159070   3.191   5.591  10.968 -1.0197  2.1074 -0.8339
47026SOL    HW259071   3.121   5.669  11.078 -0.4522 -0.3715  1.3933
47027SOL     OW59072  12.562   1.979   1.092 -0.6831  0.3063  0.4712
47027SOL    HW159073  12.554   2.049   1.157  0.2852  1.7817 -0.9228
47027SOL    HW259074  12.544   1.899   1.141 -0.7840  1.4245  2.3678
47028SOL     OW59075   8.854   4.946   0.994 -0.3623 -0.0225  0.4230
47028SOL    HW159076   8.768   4.904   0.987 -0.8987  0.9869  0.7509
47028SOL    HW259077   8.843   5.012   1.062  0.3625  0.8499 -0.2798
47029SOL     OW59078   7.062  12.163   6.450 -0.3838  0.1660 -0.4339
47029SOL    HW159079   7.002  12.215   6.398  0.2838  0.7737 -0.6126
47029SOL    HW259080   7.149  12.190   6.422  0.0030 -1.3721 -0.8577
47030SOL     OW59081  10.304  12.419   9.495  0.2069  0.1726 -0.1935
47030SOL    HW159082  10.261  12.358   9.555  0.2259  1.8490  1.6541
47030SOL    HW259083  10.395  12.389   9.493 -0.4183 -1.8752 -2.1165
47031SOL     OW59084   6.164   5.185  11.162 -0.4922  0.1610 -0.0172
47031SOL    HW159085   6.225   5.226  11.224 -2.5670  0.2111  2.1334
47031SOL    HW259086   6.196   5.095  11.154  0.0806  0.2845  0.7541
47032SOL     OW59087  13.579  13.981   8.754  0.0069 -0.3016 -0.1943
47032SOL    HW159088  13.674  13.992   8.758 -0.0004  0.5647 -1.8249
47032SOL    HW259089  13.549  14.053   8.699 -1.3381 -1.8740 -1.5998
47033SOL     OW59090   9.468   6.299  11.661  0.0546  0.2030 -0.1020
47033SOL    HW159091   9.406   6.371  11.651 -1.0728 -0.6212  0.5515
47033SOL    HW259092   9.413   6.224  11.683  1.3791 -0.3302  1.6626
47034SOL     OW59093   8.665  10.721   2.008 -0.7238 -0.0250  0.4177
47034SOL    HW159094   8.610  10.658   1.961  0.9795 -0.0402 -1.7053
47034SOL    HW259095   8.687  10.787   1.943 -1.0355  1.8720  2.1504
47035SOL     OW59096  11.772  13.277   6.882 -0.2911 -0.2260  0.2314
47035SOL    HW159097  11.812  13.339   6.944 -0.4434  0.6809 -0.5549
47035SOL    HW259098  11.684  13.312   6.868  0.1385  0.2783 -1.4177
47036SOL     OW59099   7.745   1.644   7.552 -0.5845  0.4145  0.8212
47036SOL    HW159100   7.764   1.659   7.644 -0.3068 -0.6941  0.9586
47036SOL    HW259101   7.689   1.567   7.551  1.4164 -1.1230 -0.0459
47037SOL     OW59102  10.316   9.068   8.073  0.0790 -0.2926 -0.5133
47037SOL    HW159103  10.272   9.042   7.993 -0.6186 -2.5750  0.5465
47037SOL    HW259104  10.301   8.997   8.134 -0.3042  1.7991  2.0243
47038SOL     OW59105   5.768   1.778   4.672 -0.2229  0.0349  0.4050
47038SOL    HW159106   5.830   1.745   4.737 -0.5620  2.0512  1.8503
47038SOL    HW259107   5.686   1.734   4.694 -0.0689 -0.1488  0.6180
47039SOL     OW59108   4.397  13.643   8.350  0.7884 -0.0325  0.5584
47039SOL    HW159109   4.312  13.617   8.314  0.9762 -0.4553  0.4064
47039SOL    HW259110   4.411  13.732   8.317 -0.8532  1.1800  2.8429
47040SOL     OW59111  13.463  13.903   6.352 -0.2299  0.6106 -0.2830
47040SOL    HW159112  13.376  13.864   6.357 -0.7485  1.5794 -1.3264
47040SOL    HW259113  13.464  13.969   6.421  0.7013 -1.2317  1.5838
47041SOL     OW59114   5.030   3.890   1.415  0.3455 -0.0468  0.0283
47041SOL    HW159115   4.937   3.907   1.433  0.0601 -1.2706 -0.1809
47041SOL    HW259116   5.052   3.950   1.344 -0.6297 -0.5659 -0.7414
47042SOL     OW59117   3.057   7.177  11.567 -0.0650 -0.3927  0.4832
47042SOL    HW159118   3.137   7.156  11.614  1.3189  1.6764 -0.7976
47042SOL    HW259119   3.055   7.273  11.564 -3.1542 -0.3088  1.3629
47043SOL     OW59120  12.677   1.213   9.664 -0.0154 -0.0875  0.3914
47043SOL    HW159121  12.651   1.229   9.755  1.4527  0.3279  0.7708
47043SOL    HW259122  12.763   1.253   9.657  0.2710 -0.8795 -0.9466
47044SOL     OW59123   1.095   1.955  11.110 -0.6461  0.1015  0.1584
47044SOL    HW159124   1.013   2.004  11.102  0.3848  1.6052 -2.7714
47044SOL    HW259125   1.099   1.901  11.031  1.2382  0.2212  0.1200
47045SOL     OW59126   9.076   8.760   5.679 -0.0560  0.2428  0.0311
47045SOL    HW159127   9.040   8.847   5.658  0.0094  1.0078  2.6563
47045SOL    HW259128   9.158   8.779   5.724  2.4919 -1.4039 -3.5393
47046SOL     OW59129   8.010  13.333  13.800 -0.5379  0.2247 -0.6411
47046SOL    HW159130   8.056  13.296  13.875  0.5246  0.0409 -1.3553
47046SOL    HW259131   7.948  13.395  13.838 -0.6349 -0.5057  0.4291
47047SOL     OW59132  12.840   7.904   5.774  0.3520  0.2504 -0.3797
47047SOL    HW159133  12.883   7.833   5.823  0.7674  0.0042 -1.0943
47047SOL    HW259134  12.787   7.859   5.709  0.1753  0.5887 -0.4655
47048SOL     OW59135  11.054   6.946   5.660  0.1198 -0.3571  0.2628
47048SOL    HW159136  10.985   7.007   5.636 -0.6913 -1.4120 -0.1687
47048SOL    HW259137  11.084   6.975   5.746  1.8163  2.4159 -1.1343
47049SOL     OW59138   5.174   2.585   5.531 -0.1235  0.4965 -0.3840
47049SOL    HW159139   5.258   2.542   5.516  0.4027  1.5742 -0.7068
47049SOL    HW259140   5.117   2.550   5.462 -0.1917 -0.8457  0.3367
47050SOL     OW59141  11.161  12.294   6.866 -0.2432 -0.4436 -0.6019
47050SOL    HW159142  11.256  12.300   6.854 -0.2060  0.5102  0.0536
47050SOL    HW259143  11.139  12.204   6.840  1.0466 -1.1397  0.5599
47051SOL     OW59144  11.672   8.789   5.517  0.6173 -0.1154 -0.0564
47051SOL    HW159145  11.611   8.716   5.516  1.3138 -0.7011 -0.3962
47051SOL    HW259146  11.757   8.749   5.533  1.0102  0.6159 -0.2860
47052SOL     OW59147  12.947  11.643   2.338  0.3009 -0.4118 -0.0125
47052SOL    HW159148  12.903  11.726   2.358  1.8657  0.2969  0.6082
47052SOL    HW259149  13.039  11.660   2.354  0.8856 -1.7405 -1.6841
47053SOL     OW59150  13.855   5.566   7.740  0.1396  0.0770  0.6835
47053SOL    HW159151  13.872   5.476   7.769 -0.6593 -0.1922  0.3324
47053SOL    HW259152  13.925   5.617   7.780  1.3587 -0.8847 -0.1399
47054SOL     OW59153   5.173   4.070  13.679 -0.4035  0.2203  0.1111
47054SOL    HW159154   5.188   4.164  13.668 -0.8237  0.4046  1.0095
47054SOL    HW259155   5.252   4.029  13.643 -0.2492  0.9103 -0.3522
47055SOL     OW59156   9.216   9.661   8.003 -0.0946  0.5689 -0.1201
47055SOL    HW159157   9.264   9.733   8.043  0.2237  0.7178 -0.7565
47055SOL    HW259158   9.124   9.685   8.014  0.0095  1.0825 -0.3269
47056SOL     OW59159   8.326   5.952   0.224  0.1755  0.0702 -0.0388
47056SOL    HW159160   8.266   5.881   0.197 -0.5110  0.3160  0.8098
47056SOL    HW259161   8.388   5.910   0.283 -0.6954  0.3188  1.0689
47057SOL     OW59162  11.429  10.742   1.838  0.2677  0.2452 -0.9982
47057SOL    HW159163  11.475  10.699   1.766  0.7767 -0.3597 -0.3232
47057SOL    HW259164  11.497  10.759   1.904 -0.2702  0.3918 -0.4740
47058SOL     OW59165   8.567   9.498   6.009 -0.3424 -0.2298  0.0092
47058SOL    HW159166   8.576   9.493   6.105 -1.5394  0.0931  0.1575
47058SOL    HW259167   8.473   9.488   5.994 -0.0167 -1.9010 -1.2513
47059SOL     OW59168   6.713   9.642   3.504 -0.1110 -0.2869 -0.0279
47059SOL    HW159169   6.639   9.644   3.566 -0.1935 -2.1667 -0.0117
47059SOL    HW259170   6.789   9.623   3.559  0.0162 -0.6818 -0.3405
47060SOL     OW59171   8.894  13.595   9.881  0.4106 -0.3784 -0.3766
47060SOL    HW159172   8.972  13.611   9.827  1.4088 -2.4813  0.3603
47060SOL    HW259173   8.889  13.672   9.938  2.1105 -0.3176 -0.2545
47061SOL     OW59174   5.530  10.192  13.205 -0.3889 -0.0694  0.2274
47061SOL    HW159175   5.498  10.102  13.202 -3.1335  0.8333 -1.8315
47061SOL    HW259176   5.579  10.202  13.123 -0.7213  0.5042  0.0971
47062SOL     OW59177  11.300  11.557   4.241 -0.1832  0.2553 -0.0122
47062SOL    HW159178  11.232  11.534   4.177 -1.6377 -0.9226  1.8284
47062SOL    HW259179  11.337  11.472   4.267  0.8108  0.7659  0.2594
47063SOL     OW59180   2.683   6.086   9.340 -0.0657  0.1644  0.1193
47063SOL    HW159181   2.748   6.151   9.368  1.9395 -0.7796 -2.0160
47063SOL    HW259182   2.677   6.097   9.245 -2.7449 -0.1399  0.1707
47064SOL     OW59183   3.589   2.005   7.819  0.1640 -0.0807  0.3261
47064SOL    HW159184   3.575   2.081   7.762 -0.3540 -0.9830 -0.8053
47064SOL    HW259185   3.675   2.019   7.858 -0.3895  1.6249  1.0242
47065SOL     OW59186   4.037   6.247   7.410 -0.5672 -0.7329  0.5468
47065SOL    HW159187   4.056   6.278   7.321 -0.5078 -0.2821  0.7147
47065SOL    HW259188   4.047   6.152   7.404  1.3743 -0.5723  0.5181
47066SOL     OW59189   9.940  11.835  12.572 -0.2326 -0.5351 -0.1231
47066SOL    HW159190   9.941  11.742  12.596 -3.4074 -1.1309 -1.7208
47066SOL    HW259191   9.863  11.870  12.617  0.6548  1.2523  0.0818
47067SOL     OW59192   5.141  13.187   8.686 -0.1563  0.2854  0.4064
47067SOL    HW159193   5.208  13.150   8.628 -0.4226  0.8346 -0.2547
47067SOL    HW259194   5.087  13.112   8.710  1.3905 -0.4144  1.9402
47068SOL     OW59195   1.388  11.063   5.775  0.1819 -0.0750  0.1072
47068SOL    HW159196   1.363  11.144   5.818 -0.2511 -0.4437  0.5711
47068SOL    HW259197   1.307  11.032   5.733  0.5777  0.2356 -0.9106
47069SOL     OW59198  11.503   3.952   7.240  0.0070 -0.1385  0.3856
47069SOL    HW159199  11.542   3.911   7.163  0.6781  0.3654  0.4397
47069SOL    HW259200  11.574   4.005   7.277 -0.6628  0.6014  0.6440
47070SOL     OW59201  13.749   2.444  10.248 -0.0138 -0.2329 -0.3932
47070SOL    HW159202  13.773   2.415  10.336 -0.4421  0.1634 -0.1377
47070SOL    HW259203  13.653   2.449  10.250  0.0526  1.9447 -0.1607
47071SOL     OW59204   6.775   5.434   5.620 -0.2791  0.4650  0.1552
47071SOL    HW159205   6.738   5.493   5.687 -0.0423 -0.0646  0.7689
47071SOL    HW259206   6.751   5.346   5.651  0.7517  0.1563  0.1066
47072SOL     OW59207  12.840  10.662   3.909  0.6753  0.9205 -0.5047
47072SOL    HW159208  12.866  10.752   3.930  0.9413  0.7506 -0.1039
47072SOL    HW259209  12.747  10.668   3.887 -0.2299  0.7927  2.8008
47073SOL     OW59210   6.312   4.280   0.779  0.4442  0.7151  0.2780
47073SOL    HW159211   6.300   4.375   0.769  0.3335  0.6033 -0.7811
47073SOL    HW259212   6.404   4.265   0.757  0.7951  0.7091  1.6395
47074SOL     OW59213   6.515  12.123   2.810 -0.5067 -0.1829 -0.3183
47074SOL    HW159214   6.595  12.174   2.822 -0.9918  0.7432 -0.9998
47074SOL    HW259215   6.535  12.039   2.853  1.2543 -0.4216 -1.4768
47075SOL     OW59216   1.547   6.266   8.007 -0.7549  0.2509 -0.0821
47075SOL    HW159217   1.524   6.301   8.093 -1.5362 -1.1397  0.3190
47075SOL    HW259218   1.596   6.336   7.964  0.2764  0.7239  1.7606
47076SOL     OW59219   9.627  10.301   4.662 -0.1948 -0.1983 -0.1616
47076SOL    HW159220   9.612  10.360   4.588 -0.0768 -1.1357 -0.9414
47076SOL    HW259221   9.691  10.238   4.630 -0.9703 -1.2885  0.3674
47077SOL     OW59222   1.810   5.728  14.136  0.7101  0.1294  0.0194
47077SOL    HW159223   1.786   5.777  14.057 -0.7903  1.5915  1.3114
47077SOL    HW259224   1.903   5.747  14.149  0.6652  0.8985 -0.6981
47078SOL     OW59225   2.536  13.682   6.352  0.2728  0.5313  0.0864
47078SOL    HW159226   2.615  13.658   6.304 -0.7880  0.1009 -1.5224
47078SOL    HW259227   2.563  13.683   6.444  1.8999 -0.5498 -0.3383
47079SOL     OW59228  11.051  11.007  12.123 -0.1947 -0.1950 -0.1254
47079SOL    HW159229  11.144  11.027  12.118 -0.1043 -0.5377  0.1999
47079SOL    HW259230  11.045  10.913  12.110 -0.7748  0.1767 -3.5667
47080SOL     OW59231   5.810   6.788   4.534  0.9251 -0.2176 -0.1198
47080SOL    HW159232   5.778   6.867   4.490  3.4675  1.6972  1.1660
47080SOL    HW259233   5.731   6.739   4.558 -0.6678  0.6677 -3.0928
47081SOL     OW59234   9.135  12.632  11.991  0.5923  0.0036  1.0865
47081SOL    HW159235   9.203  12.617  11.926  0.2645  0.6698  0.5816
47081SOL    HW259236   9.057  12.653  11.940 -0.4190 -2.2797  1.5870
47082SOL     OW59237   2.263   7.699  12.731  0.4275  0.3904 -0.3850
47082SOL    HW159238   2.270   7.781  12.780 -1.5478 -1.0784  2.7173
47082SOL    HW259239   2.197   7.716  12.664 -0.4116  1.1926  0.6128
47083SOL     OW59240   7.240  12.142   1.114  0.0752 -0.2715  0.8758
47083SOL    HW159241   7.151  12.151   1.080 -0.2422 -0.2161  1.7006
47083SOL    HW259242   7.289  12.212   1.071 -0.5572  0.4506  1.2957
47084SOL     OW59243   2.824  11.541  14.036  0.9378 -0.4220  0.5302
47084SOL    HW159244   2.842  11.579  14.122 -1.4302  1.6341  0.2502
47084SOL    HW259245   2.734  11.508  14.043 -0.7086  2.9395 -1.9770
47085SOL     OW59246   1.044   5.414   1.393  0.2014 -0.3240  0.8708
47085SOL    HW159247   1.004   5.389   1.476 -1.1071  0.5155  0.5442
47085SOL    HW259248   1.085   5.498   1.411  0.4066 -0.4133  0.8130
47086SOL     OW59249   8.006   9.630   7.394  0.2118 -0.6753 -0.0062
47086SOL    HW159250   8.061   9.707   7.381  1.0478 -1.3178 -0.3625
47086SOL    HW259251   7.977   9.606   7.306 -0.8119 -0.2307  0.1963
47087SOL     OW59252  12.896   3.648   8.402  0.2045 -0.7185 -0.1898
47087SOL    HW159253  12.827   3.714   8.393  1.6394  0.5254 -3.2005
47087SOL    HW259254  12.971   3.697   8.436  0.9194 -1.0299 -1.2750
47088SOL     OW59255  13.578   3.448  12.175 -0.6291  0.1283 -0.3199
47088SOL    HW159256  13.644   3.419  12.112 -0.2802 -1.4233  0.7345
47088SOL    HW259257  13.495   3.440  12.127 -0.2861 -0.0949 -0.8899
47089SOL     OW59258  11.098  11.873   0.746  0.3454  0.3005 -0.4089
47089SOL    HW159259  11.124  11.941   0.807 -1.7366  0.4437  0.3730
47089SOL    HW259260  11.042  11.917   0.682  0.8757 -0.2475 -1.2824
47090SOL     OW59261   8.280  12.947   0.408 -0.3081  0.7658  0.2436
47090SOL    HW159262   8.189  12.920   0.421 -0.4475  1.2048  0.2097
47090SOL    HW259263   8.322  12.872   0.367 -0.5422  0.3870  0.6807
47091SOL     OW59264   4.829   4.678  12.825  0.1147  0.6519 -0.5810
47091SOL    HW159265   4.777   4.622  12.768 -1.7438 -0.0503  1.6493
47091SOL    HW259266   4.792   4.766  12.813 -1.4141  0.2181  0.7162
47092SOL     OW59267   3.036   8.868   1.603 -0.1750 -0.1960  0.1004
47092SOL    HW159268   2.963   8.820   1.642  0.1481  0.2276  1.2893
47092SOL    HW259269   2.995   8.941   1.556 -0.5899 -0.8604 -0.5840
47093SOL     OW59270   5.872   2.017  12.737  0.0723  0.1283  0.3030
47093SOL    HW159271   5.838   1.950  12.678 -0.7680  1.8319 -1.2522
47093SOL    HW259272   5.948   1.976  12.779  0.5471 -1.2597 -1.7669
47094SOL     OW59273  13.702   2.549   8.226  0.3818  0.5768  0.4437
47094SOL    HW159274  13.632   2.579   8.167  0.0280  0.5669  0.8502
47094SOL    HW259275  13.689   2.455   8.233  1.6451  0.2543 -1.0269
47095SOL     OW59276   5.640   9.519  11.830 -0.3225  0.2040  0.1211
47095SOL    HW159277   5.662   9.608  11.858  1.1836 -0.0845 -0.0659
47095SOL    HW259278   5.553   9.503  11.867 -0.0080  1.2232  1.3877
47096SOL     OW59279   8.436  11.676   2.775  0.1816 -0.1309 -0.6645
47096SOL    HW159280   8.391  11.699   2.856  0.6915  0.5444 -0.5598
47096SOL    HW259281   8.442  11.759   2.727  0.6936 -0.3450 -0.9765
47097SOL     OW59282  13.132  14.115   0.171  0.4972 -0.2594 -0.0431
47097SOL    HW159283  13.201  14.173   0.140  0.6779 -0.1249  0.6125
47097SOL    HW259284  13.081  14.095   0.092  1.0956 -0.1158 -0.4709
47098SOL     OW59285   6.723   2.319   9.433  0.2172  0.2254 -0.0090
47098SOL    HW159286   6.779   2.365   9.495 -0.8045  0.0241  1.0923
47098SOL    HW259287   6.742   2.226   9.447 -3.0629 -0.1794  3.2140
47099SOL     OW59288  11.749  14.144   9.309 -0.3310 -1.0284 -0.0512
47099SOL    HW159289  11.715  14.217   9.359 -0.2566 -1.6010  0.8631
47099SOL    HW259290  11.727  14.164   9.218  1.0083  0.8434 -0.0105
47100SOL     OW59291   1.062  10.191  12.968 -0.2222 -0.2805 -0.2567
47100SOL    HW159292   0.995  10.211  13.034 -0.9680 -2.1443 -0.3849
47100SOL    HW259293   1.089  10.101  12.988  0.3313 -0.4976 -1.8413
47101SOL     OW59294  12.486   7.440   3.043 -0.1389 -0.0903 -0.2184
47101SOL    HW159295  12.511   7.350   3.063  2.0780  0.2396 -1.2089
47101SOL    HW259296  12.569   7.488   3.038 -1.1464  1.6652 -1.3475
47102SOL     OW59297   4.590  13.452   7.402  0.3973  0.2873  0.7853
47102SOL    HW159298   4.622  13.418   7.486 -0.0931 -0.8329  0.5408
47102SOL    HW259299   4.605  13.381   7.340  3.9754  2.2752 -0.9368
47103SOL     OW59300  10.237   2.560   9.412  0.6565  0.1889  0.0928
47103SOL    HW159301  10.196   2.478   9.382 -0.5180  0.1371  1.7232
47103SOL    HW259302  10.255   2.608   9.331  2.7705 -2.2501 -1.0592
47104SOL     OW59303   6.521  13.970  13.487  0.3706  0.0364  0.0699
47104SOL    HW159304   6.598  14.020  13.514  0.2727  0.7017 -0.8192
47104SOL    HW259305   6.454  13.990  13.552  0.9518 -0.5802  0.8732
47105SOL     OW59306   9.053  12.142   7.182  0.5826 -0.3511  0.5057
47105SOL    HW159307   9.131  12.153   7.236 -0.0975  0.7209  1.3164
47105SOL    HW259308   8.980  12.147   7.244 -0.1684 -0.4165 -0.3506
47106SOL     OW59309   3.935   9.970  10.003 -0.2492 -0.5078  0.1678
47106SOL    HW159310   3.964   9.961  10.093 -2.4668 -0.8708  0.9112
47106SOL    HW259311   3.935  10.065   9.987 -0.5207 -0.4024  0.7883
47107SOL     OW59312   1.418   8.780   4.928 -0.0333 -0.5464 -0.1977
47107SOL    HW159313   1.508   8.749   4.932  0.9112  1.4836 -2.4888
47107SOL    HW259314   1.393   8.766   4.836 -1.0663  1.3096 -0.2418
47108SOL     OW59315  12.411   6.582   2.892  0.1665  0.1306  0.5706
47108SOL    HW159316  12.386   6.650   2.830 -1.0557  0.5176  1.4541
47108SOL    HW259317  12.503   6.565   2.872 -0.4598 -0.5951 -2.1019
47109SOL     OW59318   2.399   5.513  13.116 -0.0267  0.4339 -0.4917
47109SOL    HW159319   2.351   5.503  13.034 -1.1344 -0.5733  0.2479
47109SOL    HW259320   2.332   5.509  13.184  0.7844  1.9393  0.4586
47110SOL     OW59321   6.768   9.130   2.629  0.0630  0.0308  0.8910
47110SOL    HW159322   6.842   9.155   2.684  1.1851 -2.9665  0.9710
47110SOL    HW259323   6.806   9.121   2.541  0.0216 -2.1059  1.0454
47111SOL     OW59324   2.471   9.105   2.598  0.2811 -0.1523 -0.4399
47111SOL    HW159325   2.411   9.051   2.547  1.0530 -1.8597  0.3874
47111SOL    HW259326   2.553   9.104   2.548  0.7676 -1.0902  0.3362
47112SOL     OW59327   3.782   3.699   5.950 -0.1348  0.1364 -0.0466
47112SOL    HW159328   3.724   3.631   5.917 -0.8628 -0.4971  2.3210
47112SOL    HW259329   3.826   3.659   6.025  2.1707  1.1430 -0.7425
47113SOL     OW59330   1.531  11.067   3.320 -0.0199  0.0847 -0.0596
47113SOL    HW159331   1.570  11.152   3.302 -0.7593  0.7861  1.4560
47113SOL    HW259332   1.487  11.078   3.405 -0.0494 -1.8327  0.2275
47114SOL     OW59333   0.011   4.180   8.299 -0.2043  0.5479  0.1928
47114SOL    HW159334  -0.004   4.258   8.245  0.6290  0.3361 -0.3521
47114SOL    HW259335   0.071   4.210   8.368  0.2877  0.3420 -0.1423
47115SOL     OW59336  13.352   2.003  13.741  0.2765  0.0252 -0.4852
47115SOL    HW159337  13.291   2.031  13.809  2.0681  0.0960  1.2017
47115SOL    HW259338  13.316   1.921  13.709 -0.3611 -0.2952  0.9429
47116SOL     OW59339   5.075   5.708   4.298 -0.5012  0.2200  0.2717
47116SOL    HW159340   5.087   5.803   4.303 -1.0647  0.3713 -0.8991
47116SOL    HW259341   4.980   5.697   4.298 -0.4363 -0.3416  0.2899
47117SOL     OW59342   3.788   4.216   7.469 -0.1957  0.3349  0.3326
47117SOL    HW159343   3.763   4.144   7.410  0.4581  0.5660 -0.2358
47117SOL    HW259344   3.871   4.248   7.434  0.0515  0.6789  1.2065
47118SOL     OW59345   4.310   5.036  11.265  0.4762 -0.1098 -0.2970
47118SOL    HW159346   4.319   4.971  11.195 -0.3884 -0.6711  0.0888
47118SOL    HW259347   4.216   5.036  11.286  0.2765  2.0782 -1.0274
47119SOL     OW59348  12.638  11.721  11.590  0.3801 -0.1701 -0.7813
47119SOL    HW159349  12.609  11.650  11.648 -1.0448  1.2044  0.2792
47119SOL    HW259350  12.727  11.740  11.618  0.2801 -0.6139 -0.1440
47120SOL     OW59351   8.135  11.485  11.865  0.0584  0.4746 -0.0154
47120SOL    HW159352   8.169  11.477  11.954  1.9588 -0.3793 -0.7806
47120SOL    HW259353   8.198  11.439  11.810 -2.3158 -1.1991 -1.5506
47121SOL     OW59354   9.158  10.966   3.248 -0.6025  0.2079  0.1186
47121SOL    HW159355   9.070  10.999   3.267 -1.4856 -2.3714  0.8670
47121SOL    HW259356   9.144  10.880   3.209  1.5358 -1.6791  3.0758
47122SOL     OW59357   7.868  13.599  12.934  0.1310  0.1621  0.1176
47122SOL    HW159358   7.836  13.559  12.854  1.4253 -1.0309  0.1622
47122SOL    HW259359   7.888  13.690  12.909  2.3056 -0.6716 -1.4610
47123SOL     OW59360  11.796   9.434   8.635  0.0005 -0.0084  0.4428
47123SOL    HW159361  11.778   9.387   8.554  1.6224 -0.5409  0.3418
47123SOL    HW259362  11.797   9.366   8.702 -0.3889  0.2950  0.7627
47124SOL     OW59363   1.931  12.556  11.159  0.3449  0.4188 -0.5054
47124SOL    HW159364   1.882  12.618  11.213  1.4269  1.0717 -0.2470
47124SOL    HW259365   1.883  12.552  11.077  0.1077  1.3890 -0.4198
47125SOL     OW59366   2.369  12.944  14.068 -0.1191  0.3702 -0.1354
47125SOL    HW159367   2.309  12.939  14.143  2.2219  0.0600  1.8406
47125SOL    HW259368   2.318  12.912  13.994 -1.9371 -1.3336  1.7356
47126SOL     OW59369  13.425   2.368   7.666 -0.0466  0.0640 -0.2387
47126SOL    HW159370  13.369   2.292   7.684 -0.4666  0.6582  1.0997
47126SOL    HW259371  13.383   2.410   7.591 -0.4479 -0.4059 -0.2898
47127SOL     OW59372   5.908   2.147   5.862  0.0085  0.8686 -0.1181
47127SOL    HW159373   5.870   2.093   5.793  1.2926 -0.3173  0.0658
47127SOL    HW259374   5.964   2.209   5.815 -1.0653  1.7403 -0.2909
47128SOL     OW59375   9.663  13.159  13.068  0.0203 -0.1357  0.0180
47128SOL    HW159376   9.715  13.232  13.034  0.4917 -0.1713  0.6355
47128SOL    HW259377   9.693  13.148  13.158 -1.6174  0.3677  0.6686
47129SOL     OW59378   5.306  10.815   5.043 -0.6838 -0.0712 -0.3773
47129SOL    HW159379   5.279  10.846   4.957  0.6049  0.1469 -0.7276
47129SOL    HW259380   5.358  10.887   5.079 -0.3172 -0.5767  0.1247
47130SOL     OW59381   4.569   8.303   4.518  0.1734 -0.0752  0.8813
47130SOL    HW159382   4.656   8.335   4.544  0.3937  1.4623 -1.4865
47130SOL    HW259383   4.517   8.383   4.507 -0.3701 -0.7017 -1.5518
47131SOL     OW59384   2.434   9.797   4.941 -0.2868 -0.4324 -0.0958
47131SOL    HW159385   2.502   9.816   5.006 -0.5684 -2.0934  0.7568
47131SOL    HW259386   2.354   9.788   4.992 -0.4318 -2.2287 -0.5668
47132SOL     OW59387   4.867   8.709  11.809  0.5206 -0.1880  0.3784
47132SOL    HW159388   4.818   8.692  11.728  1.6709  0.8065 -0.5686
47132SOL    HW259389   4.826   8.653  11.874 -2.4442  1.1901 -0.1402
47133SOL     OW59390  10.430  10.802   8.940 -0.7751 -0.2631 -0.2093
47133SOL    HW159391  10.427  10.865   8.869  0.1588 -1.0126 -0.9431
47133SOL    HW259392  10.457  10.720   8.899  0.3861 -0.5752  1.0836
47134SOL     OW59393   1.553  10.746  11.573 -0.2766  0.3017  0.1171
47134SOL    HW159394   1.558  10.650  11.578 -0.4658  0.1254 -2.0232
47134SOL    HW259395   1.459  10.765  11.572 -0.2614  0.3708 -0.9794
47135SOL     OW59396   9.864   7.140   3.791 -0.3691  0.3259 -0.1044
47135SOL    HW159397   9.814   7.151   3.873 -1.3299 -1.2732 -0.4364
47135SOL    HW259398   9.826   7.062   3.750  0.7573  0.5314 -1.6122
47136SOL     OW59399   8.828   5.004  12.414 -0.1061  1.0911  0.5355
47136SOL    HW159400   8.858   4.921  12.453  0.3987  0.5695 -0.9045
47136SOL    HW259401   8.813   4.983  12.322 -0.4064  2.5095  0.2432
47137SOL     OW59402   7.181   8.726   7.975  0.2238  0.1170 -0.2751
47137SOL    HW159403   7.117   8.798   7.974  0.0408 -0.0054  1.3543
47137SOL    HW259404   7.266   8.769   7.983  0.3253  0.2343 -1.6283
47138SOL     OW59405   1.999  10.251   7.452 -0.3928 -0.7946 -0.9679
47138SOL    HW159406   1.988  10.281   7.543  1.4912  1.5496 -1.4276
47138SOL    HW259407   2.087  10.214   7.450  0.0660  0.3413 -2.1340
47139SOL     OW59408   7.089  14.111  12.782  0.5091  0.2075  0.1454
47139SOL    HW159409   7.078  14.197  12.825  0.5858 -0.4837  1.6228
47139SOL    HW259410   7.045  14.121  12.698  0.8979  1.8367  0.0948
47140SOL     OW59411   3.854   4.108   5.133  0.0776  0.0052  0.4082
47140SOL    HW159412   3.890   4.176   5.189 -0.5245  0.1439  0.6368
47140SOL    HW259413   3.765   4.139   5.112  0.8889  0.8685 -2.1239
47141SOL     OW59414   2.156   6.431  14.022  0.1681 -0.5550  0.0142
47141SOL    HW159415   2.235   6.485  14.018  0.4767 -0.9824  0.4100
47141SOL    HW259416   2.165   6.370  13.949 -0.3464  0.1402 -0.6514
47142SOL     OW59417   4.779  14.081  13.081 -0.0704 -0.4124  0.5849
47142SOL    HW159418   4.759  14.015  13.147  0.2246  0.3834  1.5045
47142SOL    HW259419   4.696  14.125  13.065 -0.5030 -1.6615 -0.8171
47143SOL     OW59420   8.200  10.934   2.089 -0.4046 -0.0192  0.3581
47143SOL    HW159421   8.210  11.026   2.114 -0.9040  0.0739  0.2232
47143SOL    HW259422   8.239  10.929   2.002 -1.3690  0.3080 -0.1034
47144SOL     OW59423   4.739   6.912  13.336  0.1650  0.0366 -0.4803
47144SOL    HW159424   4.793   6.980  13.374 -0.1508 -0.6682  1.3038
47144SOL    HW259425   4.791   6.880  13.261  2.5104 -0.9531  1.4387
47145SOL     OW59426   5.912  12.986   8.439  0.4721 -0.5281 -0.0900
47145SOL    HW159427   5.946  12.929   8.370  2.9964  0.3085  0.3398
47145SOL    HW259428   5.880  12.925   8.506 -0.4079 -1.3606 -1.2318
47146SOL     OW59429  11.990   5.930   0.215  0.2360 -0.7010  0.2604
47146SOL    HW159430  12.018   5.842   0.191  2.5858 -0.0005  0.1642
47146SOL    HW259431  12.040   5.950   0.295  1.2585  1.2218 -0.7953
47147SOL     OW59432  12.076   8.769   2.075 -0.0490 -0.3512 -0.1291
47147SOL    HW159433  12.147   8.707   2.093  1.0616  1.1531  0.9492
47147SOL    HW259434  12.014   8.755   2.146  1.0091  0.8364  1.1060
47148SOL     OW59435   6.037   1.602  10.954  0.4661 -0.2106 -0.6889
47148SOL    HW159436   6.056   1.627  10.864  0.9763  2.3105  0.0411
47148SOL    HW259437   6.111   1.548  10.981  0.5353 -0.5902 -1.5977
47149SOL     OW59438   6.291   5.373   3.204 -0.0533  0.1699  0.3449
47149SOL    HW159439   6.276   5.291   3.156  0.8638 -0.2224  0.6973
47149SOL    HW259440   6.219   5.429   3.179  0.1368 -0.2030 -1.1125
47150SOL     OW59441  10.199  10.777  13.234  0.7480  0.3392 -0.2939
47150SOL    HW159442  10.255  10.707  13.200  0.8626  0.0532  0.4621
47150SOL    HW259443  10.233  10.857  13.193  2.3600  0.3193  0.8721
47151SOL     OW59444  11.160   3.980  13.129  0.2245  0.1988  0.3852
47151SOL    HW159445  11.088   3.928  13.091  0.9755 -0.6133  0.0292
47151SOL    HW259446  11.117   4.057  13.165 -0.6776  0.4095 -1.0457
47152SOL     OW59447  10.730  13.721   9.576  0.0752 -0.3394 -0.1810
47152SOL    HW159448  10.715  13.687   9.488 -0.1472  0.8953 -0.6410
47152SOL    HW259449  10.685  13.806   9.577  0.7969  0.0528  0.8468
47153SOL     OW59450   2.911   0.617   8.518  0.5827  0.2874 -0.1472
47153SOL    HW159451   2.875   0.705   8.511  0.7813  0.5263  1.4375
47153SOL    HW259452   2.976   0.623   8.589  1.0812 -0.9769 -0.4672
47154SOL     OW59453   4.884   4.878  10.730 -0.1551  0.1281  0.2044
47154SOL    HW159454   4.803   4.905  10.774 -1.3835 -0.6620 -1.4674
47154SOL    HW259455   4.935   4.959  10.721 -2.2176  1.3428 -1.5590
47155SOL     OW59456   9.118  11.326   4.056  0.5619  0.1873  0.0999
47155SOL    HW159457   9.101  11.255   4.118 -0.2073  0.3505  0.0833
47155SOL    HW259458   9.107  11.406   4.107 -0.7722  0.3429 -0.3824
47156SOL     OW59459   6.019   1.040   3.214 -0.0476  0.3105  0.4082
47156SOL    HW159460   5.935   1.068   3.249 -0.7135  1.0936 -1.6502
47156SOL    HW259461   6.077   1.115   3.227  0.2122 -0.0471  1.3776
47157SOL     OW59462  12.741   8.957   8.586  0.0619 -0.4082  0.0023
47157SOL    HW159463  12.649   8.943   8.609  0.2182 -1.0303  0.2774
47157SOL    HW259464  12.763   9.041   8.627 -0.2387 -0.5068  0.3742
47158SOL     OW59465   1.657   7.698  11.065  0.1707 -0.1613  0.4798
47158SOL    HW159466   1.647   7.603  11.058  0.4781 -0.2253  0.8886
47158SOL    HW259467   1.748   7.711  11.092 -0.4709  0.1228  2.7479
47159SOL     OW59468  11.460  10.729   6.920 -0.1589  0.9742 -0.0243
47159SOL    HW159469  11.453  10.819   6.890  2.0037  1.0753 -0.4097
47159SOL    HW259470  11.506  10.735   7.003  0.8696  0.1945 -0.5123
47160SOL     OW59471   6.727   9.654  13.611  0.3526  0.0067 -0.4444
47160SOL    HW159472   6.670   9.704  13.669  0.4560  0.0119 -0.3474
47160SOL    HW259473   6.682   9.570  13.600 -0.8789  0.8432 -2.2835
47161SOL     OW59474  10.421  10.733   3.028 -0.0198 -0.0819 -0.5843
47161SOL    HW159475  10.364  10.691   2.964 -0.8807  0.2843 -0.0841
47161SOL    HW259476  10.466  10.802   2.979  0.8643 -1.0917 -1.2424
47162SOL     OW59477  10.446   5.355   6.372  0.6463  0.0761 -0.0022
47162SOL    HW159478  10.425   5.395   6.456 -1.2575 -1.0604  0.1327
47162SOL    HW259479  10.490   5.274   6.394 -1.1079 -0.9295  0.0328
47163SOL     OW59480   8.584  13.320   9.363 -0.4041 -0.2750 -0.2063
47163SOL    HW159481   8.582  13.263   9.440 -0.7998  0.4552  0.3326
47163SOL    HW259482   8.667  13.299   9.320 -0.1168 -0.6002  0.4862
47164SOL     OW59483   2.379  12.891   7.621 -0.1488 -0.3213 -0.0307
47164SOL    HW159484   2.352  12.981   7.642  0.9612 -0.0219  0.2069
47164SOL    HW259485   2.311  12.836   7.659 -0.8882  0.4156 -0.2483
47165SOL     OW59486   2.731   8.498   7.088 -0.3629 -0.5297 -0.0781
47165SOL    HW159487   2.796   8.503   7.158  0.9826 -0.9826 -1.2457
47165SOL    HW259488   2.663   8.441   7.122  1.4982 -2.8580 -0.0263
47166SOL     OW59489   4.673  11.944   0.319  1.1048 -0.0599  0.0049
47166SOL    HW159490   4.651  11.876   0.383 -0.3907  0.7890  0.4400
47166SOL    HW259491   4.600  11.943   0.257  0.8372  1.4348  0.2729
47167SOL     OW59492  11.859   6.728   4.043 -0.7917 -0.0992  0.2155
47167SOL    HW159493  11.908   6.751   3.964 -0.5423  1.3542  0.7729
47167SOL    HW259494  11.775   6.773   4.034 -1.4277 -1.2634  0.0320
47168SOL     OW59495   1.960   3.333   4.529 -0.3543 -0.3611  0.0503
47168SOL    HW159496   1.942   3.329   4.623  0.9646  0.1138  0.3466
47168SOL    HW259497   1.977   3.426   4.512 -0.0545 -0.5235 -0.5611
47169SOL     OW59498   2.439   3.953   0.626  0.6726  0.2095 -0.0504
47169SOL    HW159499   2.473   3.890   0.690  1.5889  0.3473 -0.3944
47169SOL    HW259500   2.488   3.936   0.546  1.0636  1.4550 -0.1058
47170SOL     OW59501   6.028  12.506   2.200 -0.4409 -0.4353  0.2634
47170SOL    HW159502   6.111  12.496   2.154 -0.4317 -3.2929  0.7416
47170SOL    HW259503   6.052  12.552   2.282  0.6572 -1.1261  0.3537
47171SOL     OW59504   8.457   2.420   7.521 -0.0986 -0.3034 -0.0458
47171SOL    HW159505   8.419   2.428   7.433 -1.8675 -0.2259  0.6687
47171SOL    HW259506   8.381   2.412   7.578  1.0325 -0.7631  1.4473
47172SOL     OW59507  10.203   9.699   2.888 -0.6193  0.0094 -0.0612
47172SOL    HW159508  10.158   9.685   2.971  0.1055  1.3372  0.5809
47172SOL    HW259509  10.294   9.717   2.913  0.1162 -1.7222 -1.2676
47173SOL     OW59510  13.297   3.691   8.022 -0.0729  0.3769 -0.0045
47173SOL    HW159511  13.283   3.687   8.117  1.1455  0.6151  0.2061
47173SOL    HW259512  13.392   3.683   8.012 -0.1710  0.5813 -1.1967
47174SOL     OW59513   5.731   0.165   0.038  0.1078  0.5780  0.0631
47174SOL    HW159514   5.673   0.121   0.099 -0.7090 -0.7601 -1.5957
47174SOL    HW259515   5.798   0.100   0.017  1.3297  1.5718  0.7531
47175SOL     OW59516  14.005   6.295   7.671  0.0202 -0.5612  0.1820
47175SOL    HW159517  14.085   6.274   7.623  0.6405  1.3318  0.3398
47175SOL    HW259518  14.027   6.277   7.763 -0.7472 -2.9000 -0.0080
47176SOL     OW59519  13.668   6.237  10.517  0.1493  0.1196  0.4911
47176SOL    HW159520  13.610   6.210  10.446 -1.4171  1.7394  1.0627
47176SOL    HW259521  13.654   6.172  10.585  0.1318 -0.3298  0.0633
47177SOL     OW59522   1.946   9.132   6.563 -0.4178 -0.5936 -0.3475
47177SOL    HW159523   1.867   9.079   6.554 -1.4559  0.7520  0.4276
47177SOL    HW259524   1.914   9.221   6.577  1.2603  0.1640 -1.0361
47178SOL     OW59525  13.825   6.572   3.432  0.8418  0.0627 -0.1106
47178SOL    HW159526  13.758   6.506   3.415 -0.6042  0.4575  3.0748
47178SOL    HW259527  13.867   6.587   3.348 -2.6518 -0.7130 -2.2079
47179SOL     OW59528   7.039   6.189   0.651 -0.4955  0.4637  0.0648
47179SOL    HW159529   7.044   6.257   0.584 -1.6008 -0.7247 -1.2981
47179SOL    HW259530   7.120   6.139   0.641 -0.8166  0.0676 -0.6914
47180SOL     OW59531  11.791  12.434   7.955 -0.3847  0.4931 -0.4627
47180SOL    HW159532  11.716  12.378   7.972  0.9245 -1.3509 -0.4093
47180SOL    HW259533  11.782  12.459   7.863 -0.7630 -0.2156 -0.6236
47181SOL     OW59534   0.140   2.762  11.638  0.4720  0.4255 -0.4004
47181SOL    HW159535   0.229   2.747  11.604  1.0675  0.4647  1.0610
47181SOL    HW259536   0.093   2.681  11.619  1.3005 -0.2260  0.2309
47182SOL     OW59537  12.062   0.849   5.856 -0.5462 -0.2950 -0.3743
47182SOL    HW159538  12.010   0.771   5.840  0.6459 -1.4396  1.0222
47182SOL    HW259539  12.099   0.871   5.770  1.4992 -3.1066 -0.3473
47183SOL     OW59540   1.461  13.968   5.810 -0.0135  0.3065  0.1631
47183SOL    HW159541   1.531  13.908   5.834 -0.5775 -0.5435 -0.2364
47183SOL    HW259542   1.449  13.953   5.716 -1.5675 -0.5075  0.4511
47184SOL     OW59543   8.196  10.668   0.233 -0.0020  0.1522 -0.3998
47184SOL    HW159544   8.131  10.719   0.184 -0.3637 -0.2637 -0.3594
47184SOL    HW259545   8.202  10.585   0.185  2.1201  0.9660 -1.7141
47185SOL     OW59546   6.974   1.910  13.788  0.4867 -0.0566  0.2047
47185SOL    HW159547   6.972   1.945  13.699  0.7173 -0.5823 -0.0133
47185SOL    HW259548   6.890   1.864  13.797  0.1113  0.6731  0.5486
47186SOL     OW59549   6.400  13.248   8.144  0.2017  0.8515 -0.2888
47186SOL    HW159550   6.452  13.286   8.073  1.5627 -1.2132 -0.4856
47186SOL    HW259551   6.461  13.239   8.217 -0.0069 -0.9059 -0.2758
47187SOL     OW59552  13.107   6.290  12.805  0.1928  0.3069 -0.2143
47187SOL    HW159553  13.143   6.365  12.853 -0.4466  1.1740 -1.0289
47187SOL    HW259554  13.060   6.330  12.731  0.6706 -0.9475 -1.2347
47188SOL     OW59555  13.370   5.804  12.716 -0.1193 -0.9188 -0.0583
47188SOL    HW159556  13.397   5.896  12.712 -1.6363 -0.4487  0.1278
47188SOL    HW259557  13.412   5.764  12.639  0.3902 -0.0382 -0.2603
47189SOL     OW59558  12.594   9.092  12.120 -0.3045  0.4988  0.8160
47189SOL    HW159559  12.656   9.076  12.192  0.3327  0.1494  0.1990
47189SOL    HW259560  12.576   9.006  12.083  0.4931  0.8052 -0.3476
47190SOL     OW59561   3.194  11.077   5.257  0.5083  0.2557 -0.1490
47190SOL    HW159562   3.129  11.143   5.280  1.5713  1.3602 -0.2266
47190SOL    HW259563   3.265  11.090   5.320  2.1465  1.3486 -2.1023
47191SOL     OW59564   6.833  12.684  13.232  0.0128  0.4037 -0.5323
47191SOL    HW159565   6.815  12.677  13.139 -0.7498 -1.4634 -0.2699
47191SOL    HW259566   6.773  12.752  13.263 -0.5187  0.2511 -1.2030
47192SOL     OW59567   2.403   1.864  10.337  0.3279 -0.2138  0.2751
47192SOL    HW159568   2.343   1.805  10.291  0.4725 -0.9466  0.9932
47192SOL    HW259569   2.395   1.948  10.291 -0.6138 -0.5293 -0.1618
47193SOL     OW59570   8.395   3.807  11.974 -0.4884 -0.0322 -0.6509
47193SOL    HW159571   8.482   3.825  11.938  0.1656  1.2214  1.3793
47193SOL    HW259572   8.407   3.728  12.027 -1.2241 -1.3164 -2.3142
47194SOL     OW59573   9.296   4.890   7.369 -0.5185 -0.9750 -0.6811
47194SOL    HW159574   9.238   4.822   7.335 -0.4054 -1.3204 -0.1956
47194SOL    HW259575   9.254   4.972   7.343 -1.1831 -1.2198 -0.4178
47195SOL     OW59576   2.086   1.574   8.214 -0.1198 -0.3709 -0.4078
47195SOL    HW159577   2.128   1.495   8.180 -0.6012 -0.9095  0.1998
47195SOL    HW259578   2.002   1.542   8.250  0.0496  0.2688  0.6034
47196SOL     OW59579   3.193   9.095  11.574 -0.0785 -0.0086  0.1844
47196SOL    HW159580   3.187   9.055  11.488 -0.3754 -0.7352  0.5353
47196SOL    HW259581   3.108   9.137  11.587 -0.3654 -0.6579  0.4787
47197SOL     OW59582   6.485   9.029   8.356 -0.2649  0.2874 -0.3967
47197SOL    HW159583   6.579   9.012   8.361 -0.3772  0.0973  2.4003
47197SOL    HW259584   6.478   9.124   8.348  0.1750  0.3479 -0.0884
47198SOL     OW59585   2.934   3.371   8.702 -0.6923 -0.3150 -0.6679
47198SOL    HW159586   2.859   3.343   8.754 -1.0361  3.3107  1.1405
47198SOL    HW259587   3.010   3.354   8.757 -0.7800  0.8604 -0.1433
47199SOL     OW59588  12.784   5.174  10.794  0.4635 -0.5859 -0.4483
47199SOL    HW159589  12.837   5.252  10.814  0.8601 -0.8385 -0.4974
47199SOL    HW259590  12.840   5.121  10.737  0.2674 -0.9897 -0.2694
47200SOL     OW59591  10.108   8.492   4.494 -0.2759 -0.6321  0.3406
47200SOL    HW159592  10.138   8.405   4.520 -0.3755 -0.7921 -0.0756
47200SOL    HW259593  10.104   8.541   4.576 -1.5010 -1.3975  0.7688
47201SOL     OW59594  10.165   8.566   6.880 -0.4286 -0.0997  0.1584
47201SOL    HW159595  10.193   8.657   6.886  0.2978 -0.3735  1.3214
47201SOL    HW259596  10.154   8.538   6.971 -1.3028 -0.9789 -0.1958
47202SOL     OW59597  11.236  10.244   0.022  0.1713 -0.2468 -0.0439
47202SOL    HW159598  11.324  10.236  -0.015  0.5558  0.3536  0.7354
47202SOL    HW259599  11.182  10.190  -0.036  0.7979  0.4470 -1.3386
47203SOL     OW59600  12.102   2.855   8.349 -0.0213  0.9361  0.3122
47203SOL    HW159601  12.087   2.825   8.438 -0.7407  0.2576 -0.0221
47203SOL    HW259602  12.112   2.950   8.357 -1.3160  1.0379  0.9897
47204SOL     OW59603  12.349  10.669   9.016 -0.3430  0.1477 -0.2423
47204SOL    HW159604  12.269  10.625   8.987  0.3559 -1.3612  0.0571
47204SOL    HW259605  12.352  10.654   9.111  0.1487  0.4483 -0.2060
47205SOL     OW59606   6.125   9.045   3.926  0.1092  0.0969  0.1439
47205SOL    HW159607   6.083   9.021   3.843  0.2869  0.8397 -0.1666
47205SOL    HW259608   6.210   9.002   3.923  0.7841  1.4292 -0.8039
47206SOL     OW59609   9.065   9.072  11.280 -0.1684 -0.0099 -0.3862
47206SOL    HW159610   8.981   9.082  11.235 -0.1470  0.3072 -0.3510
47206SOL    HW259611   9.042   9.031  11.364 -0.5514  2.0873  0.5816
47207SOL     OW59612   4.310  11.201  11.756 -0.7897  0.0797 -0.3230
47207SOL    HW159613   4.377  11.223  11.821 -0.4574 -0.9767 -0.2820
47207SOL    HW259614   4.257  11.133  11.798 -1.2540  0.1771 -0.7432
47208SOL     OW59615   9.513   2.057   2.084  0.0845 -0.4433  0.2666
47208SOL    HW159616   9.603   2.026   2.075  1.1689  2.2271  0.9609
47208SOL    HW259617   9.467   1.984   2.125  1.9774 -1.7973  0.1266
47209SOL     OW59618   1.912   0.351  13.901 -0.6325  0.1774 -0.4815
47209SOL    HW159619   1.895   0.391  13.815  2.8211  0.8021 -1.0483
47209SOL    HW259620   1.953   0.421  13.952 -0.2342 -0.9057  0.7484
47210SOL     OW59621  11.123   8.565   1.445 -0.4285  0.1222  0.0482
47210SOL    HW159622  11.154   8.631   1.508  1.5516 -0.8592  0.1904
47210SOL    HW259623  11.164   8.484   1.475 -3.7825 -1.5193  0.6248
47211SOL     OW59624   7.228  10.722   8.738  0.2028  0.1828 -0.0215
47211SOL    HW159625   7.241  10.638   8.694 -1.1940  0.9851 -2.0653
47211SOL    HW259626   7.133  10.733   8.742  0.3078  2.6705 -1.9237
47212SOL     OW59627   1.370   1.597   0.533  0.2162 -0.4949  0.1330
47212SOL    HW159628   1.352   1.507   0.508 -0.2466 -0.8261  1.5422
47212SOL    HW259629   1.376   1.645   0.450 -0.7036 -1.6003 -0.5963
47213SOL     OW59630   4.400   9.712   2.140  0.6635  0.1658  0.7528
47213SOL    HW159631   4.369   9.768   2.212  0.4580 -0.5067  1.1911
47213SOL    HW259632   4.373   9.759   2.060  0.7056  0.8088  1.1087
47214SOL     OW59633   9.663   8.586  11.567  0.0412  0.8000 -0.0131
47214SOL    HW159634   9.636   8.495  11.553 -0.7185  1.1845 -1.2590
47214SOL    HW259635   9.757   8.586  11.550 -0.4299  0.7799 -3.2910
47215SOL     OW59636   9.384  14.130   0.353 -0.6702  0.4481 -0.4051
47215SOL    HW159637   9.342  14.215   0.361  0.7587  1.0710  1.0713
47215SOL    HW259638   9.477  14.148   0.368  0.0444 -1.0053 -2.6325
47216SOL     OW59639   8.042   8.193   6.012  0.3456 -0.8124  0.1219
47216SOL    HW159640   7.986   8.219   6.085  0.9382 -0.1943  0.3709
47216SOL    HW259641   8.131   8.201   6.047  0.5949 -1.5291 -0.3433
47217SOL     OW59642  11.159  11.950   5.854  0.3401 -0.0998 -0.3181
47217SOL    HW159643  11.170  11.858   5.830 -0.5958  0.0050 -1.1895
47217SOL    HW259644  11.072  11.973   5.822  0.3164  0.9247  0.4422
47218SOL     OW59645  13.431   7.822  12.279  0.3792  0.3360  0.4108
47218SOL    HW159646  13.443   7.812  12.184  1.8789  0.1082  0.6065
47218SOL    HW259647  13.355   7.880  12.287  0.2147  0.3490 -0.9259
47219SOL     OW59648  10.997   9.163  12.063 -0.3438 -0.0087  0.4573
47219SOL    HW159649  11.062   9.176  12.132 -0.8457 -0.1257  0.9648
47219SOL    HW259650  11.032   9.092  12.010  0.8110  1.1480 -0.3620
47220SOL     OW59651   7.073  10.572   5.741 -0.4442  0.3998 -0.1062
47220SOL    HW159652   7.004  10.594   5.804 -0.2740  0.1652  0.1645
47220SOL    HW259653   7.101  10.484   5.766 -2.0725 -0.7498 -2.0434
47221SOL     OW59654   4.115   6.115   9.470  0.5146 -0.7993 -0.0223
47221SOL    HW159655   4.073   6.170   9.536  0.8626 -1.0843  0.4414
47221SOL    HW259656   4.178   6.173   9.427  0.6122 -0.7341  0.2076
47222SOL     OW59657   7.911  13.502   3.319  0.0306  0.0845 -0.3411
47222SOL    HW159658   7.842  13.441   3.295  1.3253 -0.8891 -1.7988
47222SOL    HW259659   7.981  13.485   3.256  1.8780  0.5253  1.4719
47223SOL     OW59660  10.341   9.195  10.141  0.6942 -0.9731 -0.0898
47223SOL    HW159661  10.347   9.235  10.228 -0.4534 -1.0612  0.0439
47223SOL    HW259662  10.397   9.118  10.146  1.4830 -0.3971  0.2248
47224SOL     OW59663  11.128   4.004   1.944  0.8051 -0.0914 -0.7096
47224SOL    HW159664  11.171   4.084   1.913  1.4655  0.4566  1.4088
47224SOL    HW259665  11.197   3.955   1.988 -0.0835 -0.6635  0.0929
47225SOL     OW59666   2.698   4.272  11.078  0.1105 -0.5366  0.0861
47225SOL    HW159667   2.707   4.350  11.024  0.9792  0.2599  1.3296
47225SOL    HW259668   2.653   4.302  11.157 -0.9335 -1.6281 -0.0573
47226SOL     OW59669   0.493  10.582   4.300 -0.0249 -0.2690 -0.2456
47226SOL    HW159670   0.445  10.555   4.222  0.1469  0.8808 -0.7637
47226SOL    HW259671   0.525  10.670   4.280  0.7481 -0.2890  0.7924
47227SOL     OW59672   4.543   1.398   1.974  0.1053 -0.3586  0.2652
47227SOL    HW159673   4.546   1.489   1.943  0.2841 -0.9531 -1.5512
47227SOL    HW259674   4.462   1.393   2.025  0.3122  0.9233  0.7567
47228SOL     OW59675   6.675  14.135  11.166 -0.8504 -0.3418 -0.4114
47228SOL    HW159676   6.597  14.107  11.214 -0.9075 -0.7683 -0.7508
47228SOL    HW259677   6.718  14.053  11.140 -1.7828 -0.1922 -2.6755
47229SOL     OW59678  13.027  12.435   8.575  0.1646 -0.4647  0.7375
47229SOL    HW159679  12.976  12.448   8.495 -0.3225 -1.7157  0.8203
47229SOL    HW259680  13.005  12.510   8.630 -1.1406 -0.6755  0.5323
47230SOL     OW59681  13.616  12.418  10.952  0.2127 -0.3535  0.2880
47230SOL    HW159682  13.673  12.490  10.926  0.6792  0.0078  2.2043
47230SOL    HW259683  13.589  12.378  10.869  1.8447  0.5417 -0.7236
47231SOL     OW59684   9.882   4.280   6.776 -0.2348 -0.0783 -1.1210
47231SOL    HW159685   9.906   4.358   6.827 -1.3205 -0.5720  0.2188
47231SOL    HW259686   9.803   4.247   6.820  0.7623 -2.5119 -1.0234
47232SOL     OW59687   6.194  12.936   9.748  0.1664 -0.2222  0.4511
47232SOL    HW159688   6.129  12.964   9.683 -0.7981 -0.1329  1.4133
47232SOL    HW259689   6.152  12.862   9.793  0.9464 -0.4863  0.7630
47233SOL     OW59690  12.573   5.139  13.488  0.0554 -0.1345 -0.4472
47233SOL    HW159691  12.593   5.047  13.504  0.7053 -0.4138 -2.5339
47233SOL    HW259692  12.648   5.186  13.524 -0.3410 -0.3900  0.7429
47234SOL     OW59693   1.698  11.377   6.639 -0.3735 -0.0189  0.1876
47234SOL    HW159694   1.717  11.470   6.653  0.5767 -0.3221  1.0573
47234SOL    HW259695   1.768  11.331   6.686 -0.1932 -1.1756 -1.1571
47235SOL     OW59696   2.622   8.290   7.252 -0.4347  0.4678 -0.6716
47235SOL    HW159697   2.598   8.241   7.330 -0.2228  1.0380 -0.2352
47235SOL    HW259698   2.713   8.264   7.234 -0.3346  0.6585 -0.4608
47236SOL     OW59699   9.040   0.286   0.180 -0.0619 -0.1724 -0.0502
47236SOL    HW159700   9.052   0.354   0.247 -0.7553 -0.6565  0.5801
47236SOL    HW259701   9.051   0.204   0.227  0.3606 -0.5140 -0.7309
47237SOL     OW59702   1.118   9.171   9.672  0.3943 -0.4588  0.0379
47237SOL    HW159703   1.208   9.203   9.665  0.4022 -0.5922 -0.5251
47237SOL    HW259704   1.119   9.086   9.628 -0.0035 -0.4674  0.0426
47238SOL     OW59705   0.549   0.365   8.468 -0.0327 -0.4555  0.5291
47238SOL    HW159706   0.635   0.405   8.477  0.0232 -0.8276  2.0376
47238SOL    HW259707   0.530   0.366   8.374  0.5895  1.7657  0.3785
47239SOL     OW59708   4.403  11.561   8.131  0.2171  0.2781 -0.7909
47239SOL    HW159709   4.368  11.474   8.150 -0.3509  1.2464  3.6577
47239SOL    HW259710   4.326  11.617   8.125  0.6339  0.7268 -2.6149
47240SOL     OW59711   6.099   3.388   5.174  0.1560 -0.1089 -0.0201
47240SOL    HW159712   6.185   3.427   5.190  1.4089 -1.4440 -2.8645
47240SOL    HW259713   6.108   3.298   5.205 -0.3288 -0.1702 -0.0522
47241SOL     OW59714   6.872  11.957   7.157 -0.3090 -0.8042 -0.2611
47241SOL    HW159715   6.800  11.904   7.121 -0.5712  0.1436 -1.1717
47241SOL    HW259716   6.858  12.044   7.121 -0.0491 -0.0217  1.4379
47242SOL     OW59717   8.186  10.693   7.515 -0.2084  0.4145  0.2928
47242SOL    HW159718   8.109  10.668   7.566 -0.9269  1.7775 -0.0543
47242SOL    HW259719   8.222  10.611   7.482 -1.9689 -0.2098 -0.1692
47243SOL     OW59720   5.754   1.289  14.020 -0.5191  0.1813  0.0427
47243SOL    HW159721   5.739   1.198  13.992 -0.8346 -0.3140  1.6742
47243SOL    HW259722   5.667   1.328  14.020 -0.8868 -0.4730  2.2879
47244SOL     OW59723   1.966   0.571  14.128  0.3105 -0.3786  0.1547
47244SOL    HW159724   2.035   0.619  14.081 -1.7288  0.2803 -2.3658
47244SOL    HW259725   1.892   0.631  14.130 -0.8785 -1.8051  0.9843
47245SOL     OW59726   2.841   4.573  10.461 -0.1705 -0.1838 -0.5800
47245SOL    HW159727   2.899   4.634  10.507  0.6723 -2.7351  2.0466
47245SOL    HW259728   2.759   4.621  10.450  0.6190  1.5968  0.8382
47246SOL     OW59729   2.404  10.357   7.043  0.1040  0.0394  0.0185
47246SOL    HW159730   2.392  10.440   7.090 -1.0352 -0.8001  1.2818
47246SOL    HW259731   2.330  10.353   6.983  0.0060 -0.1891  0.1548
47247SOL     OW59732   6.222   7.824   0.593 -0.1220 -0.3600 -0.1313
47247SOL    HW159733   6.162   7.750   0.596 -0.2326 -0.2519  0.3345
47247SOL    HW259734   6.166   7.900   0.576 -0.2878 -0.0860  1.4767
47248SOL     OW59735  10.368   9.074   6.244 -0.6641  0.2786  0.3933
47248SOL    HW159736  10.350   9.055   6.336 -0.7715 -0.9103  0.1484
47248SOL    HW259737  10.427   9.003   6.216  0.6867  1.5227 -0.0323
47249SOL     OW59738   2.271   3.057  10.284  0.6446 -0.1939  0.0844
47249SOL    HW159739   2.299   3.147  10.299  0.2665 -0.0051 -0.3028
47249SOL    HW259740   2.333   3.023  10.219 -0.6731  0.6075 -1.6882
47250SOL     OW59741  10.263   2.281   4.974  0.0204 -0.1519 -0.5417
47250SOL    HW159742  10.263   2.207   4.912  0.3958 -0.3908 -0.2568
47250SOL    HW259743  10.173   2.284   5.006 -0.0638 -0.3155 -0.7558
47251SOL     OW59744   6.149   6.599   9.638  0.6068 -0.0041 -0.3428
47251SOL    HW159745   6.163   6.610   9.732  1.8013 -3.0170 -0.0433
47251SOL    HW259746   6.233   6.571   9.603 -0.6757 -2.9110 -1.4965
47252SOL     OW59747   5.162   4.743   9.275  0.1665  0.2651 -0.5197
47252SOL    HW159748   5.120   4.662   9.246 -0.8888  1.2509 -1.7870
47252SOL    HW259749   5.254   4.718   9.288 -0.5006 -1.6136  1.0902
47253SOL     OW59750  11.502   1.569  10.580  0.6636  0.1109  0.0620
47253SOL    HW159751  11.577   1.514  10.598  1.8887  1.4503 -0.7283
47253SOL    HW259752  11.487   1.561  10.486 -0.3436 -0.3092  0.2400
47254SOL     OW59753  11.537  13.177   1.964  0.5461 -0.0269  0.3284
47254SOL    HW159754  11.537  13.155   2.057 -1.6932 -0.1352  0.3516
47254SOL    HW259755  11.571  13.098   1.921 -0.0101 -0.6221  0.9544
47255SOL     OW59756  13.780   9.863   0.512 -0.5145 -0.8354 -0.1616
47255SOL    HW159757  13.791   9.781   0.560 -0.4277 -0.5062  0.3912
47255SOL    HW259758  13.828   9.850   0.431 -1.9232 -1.9591 -0.8476
47256SOL     OW59759   3.452   1.179   3.475 -0.0727  0.3226 -0.0681
47256SOL    HW159760   3.455   1.254   3.415 -0.1707 -1.5840 -2.5821
47256SOL    HW259761   3.520   1.120   3.444  0.5841 -0.3359  2.3845
47257SOL     OW59762   2.157   9.931  12.899 -0.0303  0.2423  0.8313
47257SOL    HW159763   2.241   9.890  12.874  0.2430  2.1228 -1.7028
47257SOL    HW259764   2.179  10.023  12.914 -1.9179  1.3274 -2.2789
47258SOL     OW59765   4.920  10.128   2.071  0.5308  0.4468 -0.1406
47258SOL    HW159766   4.959  10.094   1.990  1.1660  1.1788 -0.1531
47258SOL    HW259767   4.884  10.213   2.047  0.2986  0.4611  0.2414
47259SOL     OW59768   6.605   3.646  14.143 -0.0557  0.1134  0.2532
47259SOL    HW159769   6.617   3.612  14.055  0.8342 -0.2903  0.5161
47259SOL    HW259770   6.562   3.731  14.131 -1.0443 -0.4743 -0.4890
47260SOL     OW59771   5.910  13.565   8.883 -0.6324 -0.0022  0.1386
47260SOL    HW159772   5.926  13.525   8.968 -1.1566 -1.4205 -0.4036
47260SOL    HW259773   5.874  13.494   8.829 -0.8424  1.0045 -1.0979
47261SOL     OW59774   5.490   1.142   6.600  0.1646  0.0506 -0.0811
47261SOL    HW159775   5.436   1.117   6.675 -0.6814 -0.6256 -0.8870
47261SOL    HW259776   5.558   1.076   6.596 -0.8174 -0.9637 -0.9242
47262SOL     OW59777   6.376   2.441   7.774  0.6325 -0.3671  0.3870
47262SOL    HW159778   6.411   2.376   7.712  1.5559  1.1252 -0.7419
47262SOL    HW259779   6.290   2.464   7.738  0.5821 -0.4929  0.4262
47263SOL     OW59780   1.234  11.136   0.048  0.0887 -0.0335 -0.9257
47263SOL    HW159781   1.206  11.227   0.037  0.0536  0.0324 -0.3639
47263SOL    HW259782   1.277  11.135   0.134  0.2325 -0.5123 -1.0023
47264SOL     OW59783   1.749   0.775  10.630 -0.1419  0.5776 -0.4272
47264SOL    HW159784   1.776   0.684  10.618 -1.7658  0.1106 -0.8760
47264SOL    HW259785   1.821   0.816  10.678 -0.3068 -1.5008  1.7903
47265SOL     OW59786  10.986  10.147   8.588 -0.1350 -0.0644 -0.5954
47265SOL    HW159787  11.062  10.196   8.556 -0.0322  0.1100 -0.0919
47265SOL    HW259788  11.018  10.104   8.668 -1.0841  1.5275  0.7004
47266SOL     OW59789   4.049  10.266   8.105 -0.0064 -0.2113 -0.0778
47266SOL    HW159790   3.964  10.254   8.062 -0.0946 -0.4801  0.1759
47266SOL    HW259791   4.027  10.291   8.195  0.1817  0.0841 -0.1123
47267SOL     OW59792  12.562  11.256  11.397  0.7782 -0.2388 -0.2237
47267SOL    HW159793  12.540  11.265  11.490 -1.5824  0.6944 -0.8121
47267SOL    HW259794  12.580  11.345  11.368  1.6681 -0.5431 -0.6689
47268SOL     OW59795   8.581   4.722  13.566  0.0156  0.2661  0.6286
47268SOL    HW159796   8.487   4.724  13.584  0.4946  1.7997  3.4382
47268SOL    HW259797   8.596   4.800  13.512 -0.2365  0.4697  0.8435
47269SOL     OW59798  13.298  12.905  13.207 -0.1918 -0.7416 -0.0784
47269SOL    HW159799  13.393  12.911  13.204 -0.2208 -0.4786 -0.4599
47269SOL    HW259800  13.278  12.816  13.177 -0.1006 -0.5809 -0.6187
47270SOL     OW59801  12.236   2.559  10.364 -0.4839 -0.2546  0.4132
47270SOL    HW159802  12.213   2.604  10.445  1.7278 -0.1484  1.0385
47270SOL    HW259803  12.247   2.630  10.300 -0.6979 -0.2224  0.4092
47271SOL     OW59804  10.565   9.372  11.376  0.4269  0.0449 -0.2609
47271SOL    HW159805  10.595   9.299  11.430  1.5002  0.9649  0.4185
47271SOL    HW259806  10.639   9.433  11.374 -0.4715  1.1500 -0.7641
47272SOL     OW59807  10.726   0.428   9.213 -0.3661 -0.3429  0.3198
47272SOL    HW159808  10.787   0.355   9.199  0.2540  0.5440 -2.0798
47272SOL    HW259809  10.774   0.488   9.269  0.0100 -0.7683  0.4645
47273SOL     OW59810   5.719  11.263   2.473  1.0567  0.8956  0.1504
47273SOL    HW159811   5.764  11.194   2.424  1.8042  1.1954  0.4121
47273SOL    HW259812   5.730  11.239   2.565  0.9758  1.1558  0.2274
47274SOL     OW59813  11.714   2.426   9.520 -0.2925  0.0893 -0.7072
47274SOL    HW159814  11.761   2.396   9.598 -0.5366 -0.8589 -0.9189
47274SOL    HW259815  11.624   2.441   9.550 -0.1376  0.7751 -0.5683
47275SOL     OW59816   7.570  11.651   3.343 -0.4745 -0.4931 -0.1709
47275SOL    HW159817   7.595  11.621   3.430  0.0758  1.0697  0.2420
47275SOL    HW259818   7.489  11.700   3.358 -0.3498 -0.1762 -0.5326
47276SOL     OW59819  12.178   8.518   6.146 -0.3646  0.7314 -0.4724
47276SOL    HW159820  12.205   8.466   6.071 -1.0855 -0.2287 -0.0961
47276SOL    HW259821  12.117   8.461   6.194  2.6661 -0.1473  2.7821
47277SOL     OW59822   7.914   3.102   7.334 -0.1816 -0.2002 -0.0815
47277SOL    HW159823   7.863   3.052   7.396 -0.0127 -0.3427 -0.0570
47277SOL    HW259824   7.933   3.185   7.379 -1.1314  0.2107 -0.4168
47278SOL     OW59825   0.378   4.455  13.094 -0.0996 -0.1087  0.0605
47278SOL    HW159826   0.473   4.452  13.086  0.0806 -0.0272  1.9293
47278SOL    HW259827   0.349   4.366  13.070  0.3896 -0.0074 -0.9360
47279SOL     OW59828   9.442   4.841  10.780  0.6638 -0.2070 -0.0915
47279SOL    HW159829   9.375   4.886  10.730  1.0732 -0.4294 -0.8585
47279SOL    HW259830   9.493   4.793  10.715  1.7158  0.1545  0.4384
47280SOL     OW59831   9.767  12.041   9.451  0.2281  0.9597 -0.3094
47280SOL    HW159832   9.711  12.110   9.486  0.9124  1.7201 -0.6549
47280SOL    HW259833   9.809  12.003   9.528 -1.0597  0.1000 -0.0154
47281SOL     OW59834   8.116  12.080   1.065 -0.4323 -0.2329 -0.2035
47281SOL    HW159835   8.040  12.037   1.104 -0.1378 -0.1132  0.5157
47281SOL    HW259836   8.138  12.150   1.126 -0.4301  0.4521 -0.9769
47282SOL     OW59837   4.966   3.735   6.083 -0.3139  0.0851  0.2872
47282SOL    HW159838   4.956   3.817   6.132 -0.1523 -0.5863  1.4535
47282SOL    HW259839   4.878   3.718   6.049 -0.1349  1.2930 -0.9130
47283SOL     OW59840   1.396   6.988   0.820  0.4832  0.1096  0.6537
47283SOL    HW159841   1.446   6.988   0.738  0.8220 -0.1323  0.8630
47283SOL    HW259842   1.402   7.078   0.852  0.1098  0.2777  0.2688
47284SOL     OW59843   0.859  13.108  12.798  0.3027  0.4621 -0.1311
47284SOL    HW159844   0.912  13.157  12.861  1.9575 -0.0036 -1.0889
47284SOL    HW259845   0.882  13.016  12.813  0.7830  0.3463 -1.4208
47285SOL     OW59846   0.583   9.519   5.156  1.2626  0.0406 -0.3718
47285SOL    HW159847   0.564   9.523   5.250 -2.0650 -1.3417 -0.8227
47285SOL    HW259848   0.506   9.559   5.115  1.6124 -1.3157 -2.5234
47286SOL     OW59849   8.240   2.351   7.815  0.2611  0.0089 -0.3156
47286SOL    HW159850   8.308   2.285   7.825  0.5532  0.3777  0.2344
47286SOL    HW259851   8.260   2.415   7.884  0.7381  1.3250 -1.6362
47287SOL     OW59852  13.849   9.087   1.314  0.4404  0.6562 -0.2871
47287SOL    HW159853  13.885   8.998   1.312 -0.6913  0.1888 -0.6392
47287SOL    HW259854  13.806   9.093   1.400  1.5229  1.2878  0.2255
47288SOL     OW59855  11.868   8.293  10.120  0.8865  0.0362 -0.0094
47288SOL    HW159856  11.874   8.284  10.215 -1.0055  0.8326  0.2330
47288SOL    HW259857  11.884   8.205  10.086 -0.4661 -0.7010  1.1828
47289SOL     OW59858   4.471   8.492   8.441  0.8186  0.2117 -0.0632
47289SOL    HW159859   4.533   8.564   8.451  0.4415  0.5317 -0.0104
47289SOL    HW259860   4.470   8.450   8.527 -0.8010  1.6519  0.6751
47290SOL     OW59861   7.334   0.673   8.023  0.6686  0.4973 -0.2117
47290SOL    HW159862   7.267   0.728   7.982  1.3983  1.1428 -0.5559
47290SOL    HW259863   7.300   0.584   8.013  0.6984  0.6538 -2.0075
47291SOL     OW59864   9.282   2.154   0.920 -0.2068 -0.5332 -0.1928
47291SOL    HW159865   9.342   2.165   0.846  0.0758 -0.6666  0.0190
47291SOL    HW259866   9.214   2.221   0.905  1.2452  1.2803  0.8367
47292SOL     OW59867   8.719   4.002   8.227 -0.1244 -0.4638  0.3179
47292SOL    HW159868   8.665   3.955   8.163 -0.3101 -0.9000  0.7888
47292SOL    HW259869   8.683   3.976   8.312 -0.6648  1.0421  0.5817
47293SOL     OW59870  10.499   0.231   9.390  0.0444  0.0937  0.0058
47293SOL    HW159871  10.440   0.306   9.385 -1.2337 -0.9558 -1.6565
47293SOL    HW259872  10.552   0.236   9.310  1.1444  0.1369  0.7079
47294SOL     OW59873   8.268  13.457  13.736 -0.4042 -0.0568  0.3167
47294SOL    HW159874   8.182  13.419  13.754 -0.3638 -1.1014 -1.4855
47294SOL    HW259875   8.250  13.534  13.682 -0.2295 -0.0746  0.2313
47295SOL     OW59876   3.242   6.334  11.711  0.1110  0.2322  0.7310
47295SOL    HW159877   3.268   6.250  11.749  0.1440 -0.5769 -0.9978
47295SOL    HW259878   3.185   6.311  11.638 -1.7100  1.8092  1.5412
47296SOL     OW59879  13.649   5.186   5.285  0.3283 -0.1416  0.0739
47296SOL    HW159880  13.678   5.267   5.328  2.1348  0.0887 -1.4249
47296SOL    HW259881  13.570   5.212   5.237  0.2956  0.4779  0.4466
47297SOL     OW59882  10.284   4.955  11.433 -0.5511  0.2097 -0.2216
47297SOL    HW159883  10.233   5.011  11.375 -0.7811  1.4111  1.0953
47297SOL    HW259884  10.370   4.950  11.391 -1.2341 -0.4983 -1.6106
47298SOL     OW59885   2.739  11.616   0.971 -0.3598 -0.4834  0.2677
47298SOL    HW159886   2.781  11.701   0.983 -0.7302 -0.5567  2.3834
47298SOL    HW259887   2.803  11.565   0.920  0.6467  0.4920  0.5177
47299SOL     OW59888   7.970  11.678   1.771  0.2377 -0.2862  1.0218
47299SOL    HW159889   7.908  11.614   1.804  0.7211 -0.9799  0.6227
47299SOL    HW259890   8.054  11.631   1.769  0.2651 -0.2082 -0.9674
47300SOL     OW59891   7.030   3.774   4.688 -0.2212 -0.2643 -0.6321
47300SOL    HW159892   7.099   3.809   4.745 -0.5657 -0.0053 -0.3752
47300SOL    HW259893   7.049   3.814   4.602 -0.0082 -0.2508 -0.5806
47301SOL     OW59894   1.308  12.659  13.057 -0.2298 -0.8807 -0.3012
47301SOL    HW159895   1.365  12.623  13.124 -0.4630 -0.7976 -0.0548
47301SOL    HW259896   1.223  12.668  13.101 -0.1395  0.1034 -0.3178
47302SOL     OW59897   3.200   1.650   5.141 -0.5443  0.3549  0.4691
47302SOL    HW159898   3.216   1.663   5.234  2.3490  1.0924 -0.0012
47302SOL    HW259899   3.111   1.681   5.127 -0.6623  1.2688  2.7990
47303SOL     OW59900   8.833   8.510   3.982 -0.0850  0.1610 -0.1888
47303SOL    HW159901   8.875   8.580   3.931 -1.1288  3.1972  2.7562
47303SOL    HW259902   8.871   8.519   4.070 -2.1704 -1.2920  0.9334
47304SOL     OW59903   0.655   4.767  12.922  0.2717 -0.3880  0.0680
47304SOL    HW159904   0.574   4.806  12.889  0.7641  0.9557  0.3945
47304SOL    HW259905   0.697   4.731  12.844  1.2399  2.4212 -0.7974
47305SOL     OW59906  13.363   8.461  14.052  0.1399 -0.1658 -0.4296
47305SOL    HW159907  13.286   8.405  14.061 -0.4669  0.7570  0.3640
47305SOL    HW259908  13.390   8.451  13.961 -0.9553 -0.4576 -0.7369
47306SOL     OW59909  13.008   1.947   1.906 -0.4590  0.2150  0.1186
47306SOL    HW159910  12.991   1.965   1.814  0.9766 -1.1787 -0.4694
47306SOL    HW259911  12.924   1.916   1.941 -0.8463  0.1086 -0.8898
47307SOL     OW59912   5.206   4.818   4.602  0.5691  0.9073 -0.0411
47307SOL    HW159913   5.176   4.835   4.691 -0.4990  0.6308 -0.3373
47307SOL    HW259914   5.170   4.890   4.551 -0.5273 -0.0132 -0.5901
47308SOL     OW59915   2.171  11.752   0.074  0.4132  0.0849 -0.4240
47308SOL    HW159916   2.136  11.668   0.046  0.1585 -0.7149  2.0229
47308SOL    HW259917   2.096  11.810   0.077  0.3689  0.0565 -0.8958
47309SOL     OW59918   5.768   0.906   5.712 -0.5387 -0.6250  0.1199
47309SOL    HW159919   5.695   0.920   5.652  0.6429  0.3204 -1.1546
47309SOL    HW259920   5.773   0.987   5.763  2.1981  1.2444 -2.7503
47310SOL     OW59921   7.782   1.015   5.442 -0.4039 -0.3987  0.2916
47310SOL    HW159922   7.747   1.104   5.444 -0.1185 -0.2983  1.2863
47310SOL    HW259923   7.798   0.993   5.534  2.2084 -0.4218 -0.1096
47311SOL     OW59924   2.792  12.055   2.734  0.2414  0.2247  0.1057
47311SOL    HW159925   2.841  11.996   2.791  1.3718 -0.7801 -1.7927
47311SOL    HW259926   2.790  12.010   2.649 -1.7379  1.4519 -0.5574
47312SOL     OW59927  11.227   7.164  11.749  0.0790 -0.0738 -0.0430
47312SOL    HW159928  11.201   7.135  11.662  1.7346 -2.6661  0.2006
47312SOL    HW259929  11.214   7.088  11.805  1.3936  0.7257  1.4463
47313SOL     OW59930   9.030   8.954  10.949  0.2456 -0.5884 -0.2252
47313SOL    HW159931   9.120   8.947  10.981 -0.4105  1.3480  2.4416
47313SOL    HW259932   9.027   9.037  10.903 -0.2175 -0.5391 -0.1147
47314SOL     OW59933   3.544   1.290   9.802 -0.3381  0.3059  0.2064
47314SOL    HW159934   3.582   1.202   9.797 -1.4339 -0.1925  0.3673
47314SOL    HW259935   3.553   1.326   9.714  1.1592  0.4976  0.4117
47315SOL     OW59936  14.091   4.976   7.494  0.3820  0.4849  0.5307
47315SOL    HW159937  14.080   5.060   7.449  0.7517  1.2895  1.8654
47315SOL    HW259938  14.039   4.985   7.574 -0.9619 -1.2316 -0.0974
47316SOL     OW59939  10.253  10.145  13.777  0.3404  0.6981 -0.1897
47316SOL    HW159940  10.210  10.094  13.708 -1.3829  0.9299  0.6746
47316SOL    HW259941  10.309  10.081  13.821  0.3243  0.2027 -0.8585
47317SOL     OW59942  10.986  12.694  12.845 -0.6305  0.5781  0.2063
47317SOL    HW159943  10.900  12.709  12.885 -0.7512 -1.0427  0.6502
47317SOL    HW259944  10.969  12.696  12.751 -2.2946 -4.5316  0.1086
47318SOL     OW59945   1.456   8.415   9.698  0.0811  0.1897 -0.7924
47318SOL    HW159946   1.456   8.454   9.785  2.2962 -0.0986 -0.6047
47318SOL    HW259947   1.367   8.382   9.686 -0.0143 -0.7288  1.8149
47319SOL     OW59948   9.178  10.115   6.020  0.0297 -0.0055 -0.5121
47319SOL    HW159949   9.086  10.113   5.991 -0.5020  1.3566  0.9314
47319SOL    HW259950   9.228  10.111   5.939 -1.3632  1.6934 -1.5408
47320SOL     OW59951  13.511   6.901  10.022  0.7364  0.1941  0.5200
47320SOL    HW159952  13.603   6.902   9.993  0.4253 -0.0254 -0.5423
47320SOL    HW259953  13.465   6.856   9.950 -0.0748 -0.4460  1.4197
47321SOL     OW59954   4.663   4.882  11.294  0.2014 -0.5102 -0.0488
47321SOL    HW159955   4.726   4.812  11.311 -0.0549 -0.5313  0.8356
47321SOL    HW259956   4.703   4.959  11.334 -0.3694 -0.5391  0.5728
47322SOL     OW59957   9.002   9.269   0.738  0.8850  0.3426 -0.2735
47322SOL    HW159958   9.060   9.196   0.717 -0.8567 -1.8303  1.9106
47322SOL    HW259959   9.039   9.344   0.690  3.4561 -1.6534 -1.6456
47323SOL     OW59960  13.073   4.586  12.713  0.0486  0.0237 -0.0274
47323SOL    HW159961  13.133   4.615  12.781 -0.8091 -0.0049  0.7678
47323SOL    HW259962  12.989   4.626  12.737 -0.6612 -1.3583 -0.1072
47324SOL     OW59963   8.093   7.869   9.445  0.0692 -0.3501 -0.3279
47324SOL    HW159964   8.137   7.876   9.361  0.9201  3.5785  0.2294
47324SOL    HW259965   8.024   7.935   9.442 -1.4915 -1.8207  1.2114
47325SOL     OW59966   3.042   4.153  10.643 -0.0698 -0.5252 -0.1195
47325SOL    HW159967   2.987   4.094  10.695 -1.8598  1.1784  0.0626
47325SOL    HW259968   3.099   4.195  10.706 -2.1541  1.4479  0.5857
47326SOL     OW59969   6.548  10.622  12.995  0.1931 -0.1156 -0.3740
47326SOL    HW159970   6.542  10.715  13.014 -0.3254 -0.0396 -0.8790
47326SOL    HW259971   6.583  10.583  13.075 -2.4200  0.1129  0.9844
47327SOL     OW59972   0.501   7.436   4.695  0.0783  0.2720  0.3707
47327SOL    HW159973   0.566   7.476   4.753  2.5877  1.8657 -3.1440
47327SOL    HW259974   0.432   7.502   4.687 -0.8404 -0.3904  2.1642
47328SOL     OW59975   2.069   6.314  13.396 -0.3824 -0.3126  0.0772
47328SOL    HW159976   2.081   6.333  13.489  0.8587  0.4772 -0.2162
47328SOL    HW259977   2.158   6.309  13.360 -0.8050 -1.5064 -0.9108
47329SOL     OW59978  10.646  11.594  13.670  0.2663  0.6493  0.2087
47329SOL    HW159979  10.721  11.536  13.658 -0.6921 -0.5870  0.0952
47329SOL    HW259980  10.629  11.630  13.583 -0.8262 -1.0274 -0.2964
47330SOL     OW59981  11.473   9.799   6.274  0.1485 -0.1669  0.0045
47330SOL    HW159982  11.410   9.856   6.318 -0.5844 -0.5445 -0.5392
47330SOL    HW259983  11.421   9.726   6.240  1.0106 -0.9756  0.3507
47331SOL     OW59984   2.451   1.667   6.000 -0.4935  0.2045  0.1347
47331SOL    HW159985   2.483   1.576   6.003 -1.8936 -0.5367 -3.1128
47331SOL    HW259986   2.530   1.719   5.989  0.1208 -1.0029 -1.5899
47332SOL     OW59987   9.363   8.153  13.635  0.0428  0.6130 -0.2415
47332SOL    HW159988   9.368   8.249  13.642  1.0130  0.4650  1.4072
47332SOL    HW259989   9.437   8.130  13.580 -0.0600  0.7837 -0.4558
47333SOL     OW59990   4.193   3.410   2.677  0.0056 -0.7812  0.0680
47333SOL    HW159991   4.261   3.377   2.617 -1.1270 -1.8380 -0.6836
47333SOL    HW259992   4.221   3.499   2.697 -0.4575  0.3592 -3.5397
47334SOL     OW59993   7.226   9.518   6.842  0.2594  0.0847  0.3703
47334SOL    HW159994   7.314   9.552   6.856  0.7046 -0.3665 -1.1175
47334SOL    HW259995   7.194   9.566   6.765 -0.7810  0.2024  0.8561
47335SOL     OW59996  12.447  11.677   8.344 -0.0258 -0.1450 -0.2011
47335SOL    HW159997  12.481  11.639   8.426  0.6875 -0.7638 -0.7605
47335SOL    HW259998  12.367  11.723   8.370  0.8480  0.7418  1.0534
47336SOL     OW59999  13.658  10.303   3.790  0.0320 -0.7593 -0.1145
47336SOL    HW160000  13.567  10.273   3.780  0.2019 -0.9696 -1.2567
47336SOL    HW260001  13.667  10.374   3.726 -0.3179  1.7535  2.4738
47337SOL     OW60002   0.521   6.775  10.531  0.6663  0.6893 -0.8185
47337SOL    HW160003   0.478   6.859  10.515  0.6303  0.3031 -3.1831
47337SOL    HW260004   0.492   6.749  10.619 -2.0758  1.5625 -1.3483
47338SOL     OW60005   4.456   6.945   6.322 -0.1919 -0.4547 -0.0230
47338SOL    HW160006   4.495   7.021   6.366 -1.4934  1.3214 -1.7950
47338SOL    HW260007   4.401   6.904   6.389  1.3462 -0.5122  1.2657
47339SOL     OW60008  11.845   2.351  10.040 -0.0885  0.8602  0.0949
47339SOL    HW160009  11.880   2.366  10.127 -2.3863 -1.6058  1.6244
47339SOL    HW260010  11.888   2.270  10.010  1.3993  2.1813 -1.5889
47340SOL     OW60011   5.505  10.043   8.208  0.3301 -0.0533  0.2022
47340SOL    HW160012   5.553  10.041   8.290 -0.1706 -0.0810  0.5006
47340SOL    HW260013   5.514  10.133   8.176  0.0057  0.1311  0.6100
47341SOL     OW60014  11.736   4.620  12.490 -0.1717  0.2263 -0.6416
47341SOL    HW160015  11.744   4.538  12.540 -0.6010 -0.0090 -0.9514
47341SOL    HW260016  11.776   4.600  12.405 -1.2049  0.0072 -1.0896
47342SOL     OW60017   0.790   3.030   4.342  0.0671  0.2997  0.6012
47342SOL    HW160018   0.835   2.960   4.389  1.1471 -0.4491 -1.4037
47342SOL    HW260019   0.740   2.985   4.274  0.6289  1.4317 -0.6147
47343SOL     OW60020   7.344   7.795   4.108 -0.9712  0.1628 -0.7704
47343SOL    HW160021   7.292   7.858   4.159 -1.9010 -1.7861  0.8201
47343SOL    HW260022   7.434   7.812   4.135 -1.3118  0.1235  0.4675
47344SOL     OW60023   6.247   9.569   3.432 -0.1902 -0.6569 -0.0000
47344SOL    HW160024   6.284   9.589   3.346  0.9188 -0.6200  0.4702
47344SOL    HW260025   6.153   9.560   3.416 -0.1445  0.4548 -1.0208
47345SOL     OW60026   2.088   3.961  11.655  0.1475  0.3213 -0.3421
47345SOL    HW160027   2.003   3.982  11.693  0.5334 -1.2695  1.6026
47345SOL    HW260028   2.068   3.924  11.569 -0.8623  2.7905 -1.2661
47346SOL     OW60029   5.044   2.796   8.862  0.0825  0.6087 -0.0626
47346SOL    HW160030   4.978   2.859   8.890 -0.8702 -1.1015  1.7603
47346SOL    HW260031   5.113   2.802   8.929  0.4182  0.3350 -0.3767
47347SOL     OW60032   2.444   8.489   4.425 -0.0282 -0.3093 -0.0757
47347SOL    HW160033   2.357   8.452   4.442  0.1606 -0.5042  0.5007
47347SOL    HW260034   2.495   8.465   4.503  0.6015 -0.3925 -0.5080
47348SOL     OW60035  12.441   1.043   2.597  0.0410  0.6168 -0.2449
47348SOL    HW160036  12.492   1.066   2.675 -0.2098  0.8526 -0.1486
47348SOL    HW260037  12.470   1.106   2.531  1.9300 -0.9817 -1.0514
47349SOL     OW60038   1.656   5.430   7.912 -0.6345  0.1881 -0.6261
47349SOL    HW160039   1.581   5.486   7.890  0.4928  1.2445 -1.9972
47349SOL    HW260040   1.733   5.481   7.885  0.4648 -2.0696 -2.0688
47350SOL     OW60041   7.240  12.230  10.926  0.2803  0.2134  0.3690
47350SOL    HW160042   7.214  12.322  10.917  1.5440  0.5911  0.2972
47350SOL    HW260043   7.181  12.194  10.992 -0.6055  0.9238 -0.0185
47351SOL     OW60044   3.862   4.694  10.905  0.0257 -0.0142  0.4637
47351SOL    HW160045   3.773   4.661  10.915 -0.2617 -0.2717 -2.2531
47351SOL    HW260046   3.854   4.765  10.841  1.7829 -0.1879  0.0019
47352SOL     OW60047   6.145   0.977  11.356  0.0773  0.4552  0.4507
47352SOL    HW160048   6.145   1.005  11.447  3.3202 -1.0378  1.0840
47352SOL    HW260049   6.212   1.031  11.314 -0.5268  0.3109 -0.7484
47353SOL     OW60050  12.368   4.729  12.699 -0.1504  0.6055  0.2793
47353SOL    HW160051  12.407   4.809  12.664 -0.3889 -0.0501 -1.5815
47353SOL    HW260052  12.338   4.681  12.622  1.1100 -1.8933  1.2288
47354SOL     OW60053   0.824   8.274   0.612  0.0903 -0.4314  0.1500
47354SOL    HW160054   0.768   8.235   0.679  1.3656  0.2935  1.6909
47354SOL    HW260055   0.847   8.201   0.554 -2.0339 -0.8306 -0.2720
47355SOL     OW60056   4.841  11.578  11.971  0.0106  0.2252 -0.0054
47355SOL    HW160057   4.886  11.610  12.049  0.8408  2.4579 -1.2978
47355SOL    HW260058   4.910  11.570  11.905 -0.9134 -0.0082 -0.9675
47356SOL     OW60059   3.811  10.886  11.454  0.3743 -0.0084  0.2299
47356SOL    HW160060   3.759  10.819  11.410 -1.2198  0.1701  1.6926
47356SOL    HW260061   3.902  10.862  11.437 -0.0875  0.3070 -3.4028
47357SOL     OW60062   1.052   3.138   7.329 -0.1824 -0.2737  0.0522
47357SOL    HW160063   0.990   3.211   7.333  0.4457  0.2737 -0.0682
47357SOL    HW260064   1.069   3.125   7.236  0.5296  0.1355  0.1216
47358SOL     OW60065  11.820   9.860   5.249 -0.4110  0.1754  0.1311
47358SOL    HW160066  11.755   9.796   5.220 -0.1386  0.5712 -1.4289
47358SOL    HW260067  11.899   9.838   5.198  0.8539 -0.5641  2.2575
47359SOL     OW60068   4.859   4.695   6.958 -0.1993 -0.7752 -0.1517
47359SOL    HW160069   4.861   4.613   7.008  2.6923 -1.9645 -1.9899
47359SOL    HW260070   4.856   4.668   6.867  2.4700  1.0514 -0.8961
47360SOL     OW60071  10.060   1.333   4.906  0.0767 -0.3509  1.2968
47360SOL    HW160072  10.140   1.385   4.916 -0.7479  1.2007  0.2864
47360SOL    HW260073  10.005   1.359   4.980  0.0201 -0.4522  1.2890
47361SOL     OW60074  11.188  12.073   8.526  0.4803 -0.2085  0.3191
47361SOL    HW160075  11.125  12.071   8.454  0.6059  0.0593  0.1991
47361SOL    HW260076  11.268  12.038   8.488  0.6116  0.1486  0.2628
47362SOL     OW60077   8.919  14.005  11.805  0.3407  0.8620 -0.1666
47362SOL    HW160078   9.000  13.955  11.792  0.3191  0.1841  1.9754
47362SOL    HW260079   8.942  14.071  11.870 -0.9124  0.3546  0.8324
47363SOL     OW60080   8.739   9.173   0.690 -0.1403 -0.2296  0.3488
47363SOL    HW160081   8.831   9.198   0.692  0.1494 -1.2238  0.1406
47363SOL    HW260082   8.697   9.228   0.756  0.2598  1.4924 -0.7593
47364SOL     OW60083  10.371   3.149   6.360  0.7291 -0.4289 -0.0264
47364SOL    HW160084  10.451   3.110   6.395  1.3277 -0.0148 -0.8899
47364SOL    HW260085  10.306   3.136   6.429  1.2024 -1.8947  0.1917
47365SOL     OW60086   0.866   2.132   1.332 -0.2443 -0.0085 -0.5840
47365SOL    HW160087   0.904   2.135   1.420 -1.2175  0.5190 -0.1662
47365SOL    HW260088   0.938   2.157   1.274  0.1805  0.4790  0.1391
47366SOL     OW60089   2.016   1.142  10.936 -0.2462  0.4087 -0.1706
47366SOL    HW160090   1.985   1.222  10.894  0.5046  0.2649 -1.0233
47366SOL    HW260091   2.058   1.093  10.866  0.6253 -0.0544  0.6629
47367SOL     OW60092   1.301   1.082  12.941 -0.6667  0.6958 -0.4154
47367SOL    HW160093   1.339   1.080  13.029 -0.1983  0.5933 -0.6153
47367SOL    HW260094   1.359   1.139  12.891  1.7205 -2.6882 -1.8348
47368SOL     OW60095   6.533   9.663   5.364  0.3657 -0.1511 -0.8389
47368SOL    HW160096   6.578   9.596   5.312  0.2572 -0.5736 -0.3860
47368SOL    HW260097   6.440   9.649   5.346  0.3844  0.6773 -1.7193
47369SOL     OW60098   8.482   9.770   2.693  0.3167  0.2017  0.3028
47369SOL    HW160099   8.535   9.705   2.648  0.0613 -0.1776  0.5514
47369SOL    HW260100   8.540   9.805   2.761  0.8274  1.0377 -0.5365
47370SOL     OW60101   8.908   4.864  10.828 -0.5226 -0.1620 -0.0242
47370SOL    HW160102   8.839   4.907  10.878  0.3259  1.3971 -0.1305
47370SOL    HW260103   8.947   4.934  10.775  0.3921 -1.2228 -0.8131
47371SOL     OW60104   1.924   8.850  13.553  0.2566 -0.5829 -0.4170
47371SOL    HW160105   1.924   8.935  13.598  1.3327 -1.3301  1.0725
47371SOL    HW260106   1.893   8.788  13.619 -1.4179 -1.2722 -1.7617
47372SOL     OW60107   8.785   0.899   1.649  0.4902 -0.4467 -0.1222
47372SOL    HW160108   8.784   0.815   1.695  0.5357  1.0722  2.8742
47372SOL    HW260109   8.713   0.948   1.688  0.4207  0.9151 -1.8579
47373SOL     OW60110   7.437   3.003   7.212 -0.5701 -0.1776 -0.3050
47373SOL    HW160111   7.402   3.080   7.257 -1.4337 -1.8519  2.1141
47373SOL    HW260112   7.391   2.929   7.253  0.0725 -1.9844 -2.6585
47374SOL     OW60113   6.108   4.876   7.746  0.0642  0.2171  0.0158
47374SOL    HW160114   6.111   4.781   7.737 -1.8058 -0.0987  1.8530
47374SOL    HW260115   6.108   4.909   7.656  2.1476 -1.4116 -0.6353
47375SOL     OW60116   1.758   5.497   4.086  0.3558  0.0139  0.1185
47375SOL    HW160117   1.775   5.583   4.047 -2.0631  0.8664  0.7260
47375SOL    HW260118   1.786   5.506   4.177 -1.1648  0.6818  0.5522
47376SOL     OW60119  13.554   7.660   6.028  0.5798 -0.0443  0.0508
47376SOL    HW160120  13.469   7.622   6.007  0.5465  0.1205 -0.1150
47376SOL    HW260121  13.534   7.750   6.053  0.5267 -0.4408  1.5419
47377SOL     OW60122  12.662   7.638   6.626  0.3667 -0.6538  0.2613
47377SOL    HW160123  12.652   7.663   6.534  1.2947 -1.9349 -0.2189
47377SOL    HW260124  12.752   7.664   6.647  0.1201 -0.2681  0.8450
47378SOL     OW60125   1.073   4.613   8.111  0.5521 -0.3796  0.0095
47378SOL    HW160126   1.100   4.632   8.021 -2.4397  1.6839 -0.6114
47378SOL    HW260127   0.978   4.603   8.107  0.3265 -0.4924  2.9094
47379SOL     OW60128   0.173   4.773   4.925 -0.1161 -0.0900  0.4837
47379SOL    HW160129   0.266   4.796   4.932 -0.5327  1.4731  1.2139
47379SOL    HW260130   0.130   4.826   4.991 -1.4615 -1.3523  0.6711
47380SOL     OW60131   6.823  13.137   8.670  0.0733 -0.3116  0.4374
47380SOL    HW160132   6.746  13.193   8.661 -0.7370 -1.6401 -1.4408
47380SOL    HW260133   6.893  13.197   8.695 -0.7705  1.5536 -1.3823
47381SOL     OW60134   7.313  12.110   8.218  0.1843  0.6844 -0.1997
47381SOL    HW160135   7.284  12.019   8.214  1.8822  0.0656  0.4471
47381SOL    HW260136   7.321  12.136   8.126  1.2031 -0.3644 -0.4351
47382SOL     OW60137  11.351   7.975   4.515 -0.7318 -1.0174  0.0178
47382SOL    HW160138  11.442   7.962   4.490 -0.8628 -0.9766 -0.4918
47382SOL    HW260139  11.303   7.976   4.433 -0.7823  2.4079 -0.0745
47383SOL     OW60140   9.108   2.125  11.078 -0.2753 -0.7126 -0.2717
47383SOL    HW160141   9.161   2.121  11.158  0.4513  0.8378 -0.6308
47383SOL    HW260142   9.161   2.080  11.012 -0.3611 -1.0057 -0.1412
47384SOL     OW60143  12.291  12.224   0.994  0.2719 -0.5563  0.0737
47384SOL    HW160144  12.210  12.231   1.044  0.9184  0.4990  1.0292
47384SOL    HW260145  12.359  12.205   1.059  1.1208  0.7744 -0.3579
47385SOL     OW60146   2.304   2.819   9.793 -0.6662  0.3850  0.5337
47385SOL    HW160147   2.263   2.740   9.759  1.2479 -0.3131 -0.2701
47385SOL    HW260148   2.398   2.801   9.790 -0.2391  2.1921  1.5904
47386SOL     OW60149   5.511   0.609   1.542 -0.3598 -0.4644 -0.1935
47386SOL    HW160150   5.519   0.531   1.488  2.9384 -0.4195  0.0287
47386SOL    HW260151   5.512   0.682   1.480 -1.9389 -0.4846 -0.2995
47387SOL     OW60152   8.109  13.569   6.210  1.1423  0.0628 -0.7352
47387SOL    HW160153   8.116  13.539   6.119  1.6603  2.0575 -1.4110
47387SOL    HW260154   8.026  13.532   6.241  2.0659 -2.5853 -1.1903
47388SOL     OW60155  12.310   4.176   2.356 -0.2788 -0.3548 -0.0244
47388SOL    HW160156  12.301   4.269   2.373 -0.5836  0.0133 -1.9639
47388SOL    HW260157  12.314   4.169   2.260 -0.6189 -2.3524  0.0590
47389SOL     OW60158  11.364   7.607   5.459 -0.0096  0.1235  0.2503
47389SOL    HW160159  11.367   7.686   5.406  2.4156 -0.0809 -0.0179
47389SOL    HW260160  11.427   7.548   5.418 -0.5004 -1.2948  1.4489
47390SOL     OW60161   9.943   6.578  11.722 -0.4240 -0.3246  0.7668
47390SOL    HW160162  10.025   6.603  11.680  1.6740 -2.2681  3.3735
47390SOL    HW260163   9.883   6.649  11.702  1.5033  0.6136 -2.2309
47391SOL     OW60164  10.573  11.167  13.024  0.4341 -0.5683 -0.2400
47391SOL    HW160165  10.611  11.192  12.940 -0.0489  2.1871  0.2822
47391SOL    HW260166  10.647  11.134  13.074  1.6232  1.7786 -0.3235
47392SOL     OW60167   5.147   3.811   6.593 -0.4770  0.2882 -0.3645
47392SOL    HW160168   5.207   3.787   6.664  0.7500 -2.0082 -2.0462
47392SOL    HW260169   5.182   3.766   6.516 -1.9829  2.3597 -2.3713
47393SOL     OW60170   4.985   9.407   5.314  0.0603  0.1804 -0.5278
47393SOL    HW160171   5.036   9.332   5.344  3.0686  1.9357 -0.8464
47393SOL    HW260172   4.942   9.439   5.393  0.6380 -0.5145  0.0867
47394SOL     OW60173   4.329   7.863  11.406 -0.0128  0.0077  0.5681
47394SOL    HW160174   4.321   7.769  11.424 -0.3599 -0.4659 -1.6834
47394SOL    HW260175   4.251   7.884  11.354  0.9510  1.1128 -0.4895
47395SOL     OW60176  10.435  11.628   3.182 -0.2069  0.5931  0.4777
47395SOL    HW160177  10.406  11.719   3.177 -0.9446  0.4222  1.2237
47395SOL    HW260178  10.514  11.631   3.236  0.4282  0.9123 -0.4479
47396SOL     OW60179   7.475   4.020   4.941 -0.0203 -0.3817 -0.1783
47396SOL    HW160180   7.440   4.054   4.858  0.9175 -3.6017 -2.0498
47396SOL    HW260181   7.522   4.095   4.979  1.0962  0.7900 -3.4858
47397SOL     OW60182  12.612  12.592   3.902  0.2988 -0.3682  0.4967
47397SOL    HW160183  12.630  12.612   3.994 -0.3919  1.9198  0.1955
47397SOL    HW260184  12.666  12.515   3.883  0.4080 -0.9415  2.8144
47398SOL     OW60185   8.548   9.513   4.773  0.1937 -0.0235 -0.0619
47398SOL    HW160186   8.530   9.457   4.848  1.3278 -0.3963 -0.0460
47398SOL    HW260187   8.569   9.598   4.811 -0.7561  0.2172 -0.0482
47399SOL     OW60188   0.937  10.235  10.095  0.4759  0.0703  0.3874
47399SOL    HW160189   0.980  10.183  10.026 -0.5354  0.5097 -0.6104
47399SOL    HW260190   0.872  10.175  10.133 -0.9990  0.6778 -1.0639
47400SOL     OW60191   0.731   5.325  10.180  0.2953 -0.3857  0.4051
47400SOL    HW160192   0.663   5.313  10.114 -0.3304  2.6804  0.3449
47400SOL    HW260193   0.735   5.242  10.227 -2.8532 -0.9830 -0.1987
47401SOL     OW60194   9.765   6.866   5.986 -0.2086 -0.1107  0.2818
47401SOL    HW160195   9.705   6.902   6.051 -1.4348 -2.7271  0.7211
47401SOL    HW260196   9.713   6.861   5.906  0.0532 -0.5145  0.1323
47402SOL     OW60197   9.209  10.625  12.851  0.1374 -0.0264 -0.8625
47402SOL    HW160198   9.223  10.541  12.895 -1.1878  1.7613  3.6251
47402SOL    HW260199   9.266  10.686  12.898 -0.9147  2.0378 -2.1374
47403SOL     OW60200  11.528  13.568   6.619  0.0482 -0.2748  0.7217
47403SOL    HW160201  11.488  13.633   6.677  0.8678 -0.8099  1.9233
47403SOL    HW260202  11.489  13.585   6.533  0.5110  2.0579  0.8971
47404SOL     OW60203   3.267   0.770  14.041 -0.0491  0.0679  0.1054
47404SOL    HW160204   3.178   0.736  14.033 -0.4808  0.9683  0.8159
47404SOL    HW260205   3.260   0.839  14.108  0.9786  0.8163 -0.5283
47405SOL     OW60206   8.655   4.541  10.750  1.1068  0.5845 -0.2952
47405SOL    HW160207   8.731   4.533  10.807 -0.2113 -0.2707  1.4352
47405SOL    HW260208   8.665   4.627  10.709  2.2149  1.1369  1.0522
47406SOL     OW60209   6.294   9.103   9.769  0.0099 -0.0073  0.1900
47406SOL    HW160210   6.366   9.045   9.795  1.2913  1.4267  0.0078
47406SOL    HW260211   6.242   9.114   9.849  1.2460  0.6556  0.9236
47407SOL     OW60212   4.833   0.640   0.773 -0.0566  0.0149  0.1074
47407SOL    HW160213   4.910   0.677   0.730  0.0233 -0.1750  0.0889
47407SOL    HW260214   4.796   0.579   0.709  1.5977 -2.3488  1.2696
47408SOL     OW60215  11.433   9.758   7.200  0.5527  0.3569  0.2506
47408SOL    HW160216  11.385   9.806   7.132  0.1219  0.0360  0.3197
47408SOL    HW260217  11.520   9.796   7.200  0.6742  0.0908 -0.7502
47409SOL     OW60218   1.420  11.105   9.118 -0.2038  0.7047 -0.2006
47409SOL    HW160219   1.371  11.136   9.041 -0.0198 -0.2509 -0.7110
47409SOL    HW260220   1.511  11.106   9.090 -0.0420  1.2576  0.3275
47410SOL     OW60221   7.560  11.004   0.050 -0.5574  0.4336  0.5029
47410SOL    HW160222   7.581  11.089   0.087  1.9745  0.1153 -0.0331
47410SOL    HW260223   7.618  10.995  -0.025 -0.6924 -1.7833  0.5895
47411SOL     OW60224   5.675   9.026   4.285 -0.5047  0.3769 -0.0675
47411SOL    HW160225   5.590   9.004   4.246  0.0349 -0.5681 -0.7641
47411SOL    HW260226   5.724   8.944   4.283  1.1534  1.3262 -1.5807
47412SOL     OW60227   2.720   9.116  13.122  0.2650  0.3734  0.1218
47412SOL    HW160228   2.719   9.121  13.027  0.0463  0.5015  0.1293
47412SOL    HW260229   2.733   9.023  13.142 -0.5541  0.2108 -0.0360
47413SOL     OW60230  10.827   3.636   5.351  0.6616  0.6153  0.3896
47413SOL    HW160231  10.783   3.671   5.429  0.2177  0.5259  0.1863
47413SOL    HW260232  10.891   3.702   5.327  0.4451  0.8771  0.5317
47414SOL     OW60233   7.818  13.774   2.936 -0.0769  0.0816  0.1385
47414SOL    HW160234   7.769  13.693   2.953 -0.1616  0.4339  1.7984
47414SOL    HW260235   7.792  13.833   3.007  1.4429  0.8816  0.0751
47415SOL     OW60236   9.049   3.298   8.619 -0.0115  0.0576  0.2364
47415SOL    HW160237   8.956   3.320   8.626 -0.0988 -0.7647  1.9421
47415SOL    HW260238   9.093   3.362   8.674  0.3587 -0.0911  0.1149
47416SOL     OW60239   3.793   2.744  12.012  0.0162  0.5706 -0.5975
47416SOL    HW160240   3.859   2.707  12.070  1.0026  0.3852 -1.8042
47416SOL    HW260241   3.713   2.746  12.065  0.7057 -0.2697  0.5175
47417SOL     OW60242  10.661   1.432  12.788  0.8016 -0.1792  0.1046
47417SOL    HW160243  10.754   1.441  12.770  0.2936  0.6850 -2.4326
47417SOL    HW260244  10.645   1.338  12.790  1.4681 -0.3212 -0.9937
47418SOL     OW60245   8.058   3.582  14.085  0.1838 -0.5436  0.7768
47418SOL    HW160246   8.002   3.506  14.098 -1.3870  0.5817  0.9019
47418SOL    HW260247   8.057   3.597  13.990 -1.1092  0.4325  0.9159
47419SOL     OW60248  11.119   9.545   4.579 -0.2972  0.3193  0.0756
47419SOL    HW160249  11.211   9.528   4.599 -0.4549 -1.6529 -0.6578
47419SOL    HW260250  11.118   9.632   4.539  1.0700  0.8467  1.1244
47420SOL     OW60251   6.148  11.740   9.188 -0.0785 -0.4514  0.2450
47420SOL    HW160252   6.075  11.779   9.236  1.3455 -0.5189  2.6410
47420SOL    HW260253   6.162  11.799   9.113 -1.8521  0.1538  0.3528
47421SOL     OW60254   0.284   0.395   0.444 -0.5936 -0.2774 -0.0118
47421SOL    HW160255   0.225   0.466   0.416 -0.3191 -0.1140 -0.1766
47421SOL    HW260256   0.239   0.356   0.519  0.2709  1.5183  1.5344
47422SOL     OW60257  11.459   0.810   3.844  0.3230 -0.5559 -0.0464
47422SOL    HW160258  11.417   0.734   3.802  0.2599 -0.3985 -0.2707
47422SOL    HW260259  11.452   0.793   3.938 -0.4181 -0.4403 -0.0736
47423SOL     OW60260   6.302   2.322   9.813 -0.9828  0.0915  0.0897
47423SOL    HW160261   6.388   2.285   9.833 -1.6372 -1.7921 -0.3750
47423SOL    HW260262   6.253   2.314   9.895 -1.0046  0.3080  0.0980
47424SOL     OW60263  13.290  12.129   2.840  0.7875  0.1478  0.0455
47424SOL    HW160264  13.302  12.043   2.799 -1.2246  0.3444 -1.0947
47424SOL    HW260265  13.206  12.160   2.806  0.6069  1.7952  1.8356
47425SOL     OW60266   3.861  11.729  10.086  0.5681  0.5472 -0.0914
47425SOL    HW160267   3.887  11.642  10.116 -1.6667 -0.5853 -1.1560
47425SOL    HW260268   3.792  11.756  10.146  0.3524  1.0006 -0.5312
47426SOL     OW60269   3.258  10.600  11.198  0.6036  0.2675  0.1722
47426SOL    HW160270   3.245  10.506  11.214  2.6432 -0.2342 -0.8599
47426SOL    HW260271   3.184  10.625  11.144  0.6192 -1.0230 -0.4914
47427SOL     OW60272   4.214   0.200   7.418  0.2456 -0.5449  0.1763
47427SOL    HW160273   4.309   0.213   7.417  0.1109  1.0249  1.8782
47427SOL    HW260274   4.202   0.106   7.430  1.5081 -1.1521 -2.5322
47428SOL     OW60275  11.978  11.590   5.837  0.1380 -0.2004 -0.6907
47428SOL    HW160276  12.048  11.649   5.811 -2.0228  2.0240 -1.8572
47428SOL    HW260277  11.949  11.623   5.922 -0.4988 -0.1457 -0.9266
47429SOL     OW60278   3.607   9.618   8.391 -0.7066  0.2688  0.7859
47429SOL    HW160279   3.594   9.699   8.441 -2.7600  0.3496  0.2085
47429SOL    HW260280   3.528   9.610   8.339  0.7207 -0.6052 -1.3654
47430SOL     OW60281  11.256  13.790  13.900 -0.2909  0.6072 -0.2026
47430SOL    HW160282  11.285  13.703  13.928  2.5769  1.2644 -0.8192
47430SOL    HW260283  11.238  13.780  13.807 -2.8589  0.0780  0.2731
47431SOL     OW60284   2.453   3.471  10.322  0.0110 -0.2423 -0.5963
47431SOL    HW160285   2.463   3.412  10.397 -0.3848  0.6297  0.1570
47431SOL    HW260286   2.385   3.429  10.268 -1.4044  0.2506  0.7140
47432SOL     OW60287  13.368   2.955  12.788  0.1402  0.6647  0.2248
47432SOL    HW160288  13.453   2.996  12.803 -0.0530  1.3508 -0.4916
47432SOL    HW260289  13.321   2.967  12.871  0.8772 -0.0974  0.7681
47433SOL     OW60290  11.278   9.681   3.558 -0.4997  0.0806 -0.6479
47433SOL    HW160291  11.196   9.728   3.571 -0.8998 -1.0754  1.5319
47433SOL    HW260292  11.302   9.650   3.645  1.4477 -0.9468 -1.4794
47434SOL     OW60293   3.525   6.601   9.175  0.0673 -0.0630  0.3741
47434SOL    HW160294   3.518   6.696   9.170 -0.3011 -0.0541  0.9464
47434SOL    HW260295   3.451   6.574   9.229 -0.4379 -0.7709 -0.6258
47435SOL     OW60296   7.972  12.142   4.143  0.1931  0.2352  0.3107
47435SOL    HW160297   8.028  12.088   4.087  2.5046  0.4983  2.2316
47435SOL    HW260298   7.929  12.203   4.082 -1.1633 -2.5118 -1.7004
47436SOL     OW60299   1.537   1.274   4.890  0.4483  0.2111 -0.2494
47436SOL    HW160300   1.532   1.326   4.810 -1.0787  2.8696  1.4141
47436SOL    HW260301   1.626   1.240   4.891  0.1384 -1.0605 -3.6644
47437SOL     OW60302   3.211   9.885  11.226  0.0410  0.6584 -0.3240
47437SOL    HW160303   3.167   9.800  11.227  0.0716  0.6510  0.3349
47437SOL    HW260304   3.305   9.863  11.225  0.0482  0.6878 -0.2637
47438SOL     OW60305   3.290   7.922   4.411 -0.3854 -0.3126 -0.1057
47438SOL    HW160306   3.274   7.891   4.500 -1.4491 -1.0605 -0.5366
47438SOL    HW260307   3.329   8.009   4.422  1.9417 -1.4315  1.1277
47439SOL     OW60308  12.375   5.562   1.831 -0.6464  0.3949  0.3523
47439SOL    HW160309  12.296   5.526   1.871 -0.9160  0.7898  0.1824
47439SOL    HW260310  12.388   5.509   1.752 -1.2690  0.9127 -0.1099
47440SOL     OW60311   4.945   3.220  10.888  0.1013  0.0268  0.2367
47440SOL    HW160312   5.039   3.236  10.874 -0.0285  0.8677  0.2266
47440SOL    HW260313   4.902   3.280  10.828 -0.4493 -0.5797  0.0189
47441SOL     OW60314   6.812  10.047   1.287  0.5786 -0.3751  0.2279
47441SOL    HW160315   6.907  10.034   1.287  0.5349 -0.7520 -0.6425
47441SOL    HW260316   6.788  10.049   1.195 -0.2987 -0.5829  0.4457
47442SOL     OW60317  11.131   7.853   0.679 -0.1670 -0.0217 -0.2863
47442SOL    HW160318  11.205   7.890   0.727  0.9403 -0.6685 -1.4253
47442SOL    HW260319  11.137   7.759   0.696  0.6880 -0.3623 -2.2106
47443SOL     OW60320   6.015   6.415  11.161 -0.3125  0.5655  0.0449
47443SOL    HW160321   5.935   6.466  11.146 -0.2783  0.8447  0.7580
47443SOL    HW260322   6.004   6.380  11.250 -0.6195 -1.1989 -0.6408
47444SOL     OW60323   7.142   8.019  12.963 -0.1201  0.5101  0.2992
47444SOL    HW160324   7.135   7.976  13.048 -2.0554  1.1951  0.5332
47444SOL    HW260325   7.059   8.066  12.953  0.0569  0.4558 -1.9544
47445SOL     OW60326   0.093   2.187  12.667 -0.2585 -0.0418  0.6119
47445SOL    HW160327   0.036   2.114  12.644 -0.5859  0.7659 -1.3100
47445SOL    HW260328   0.050   2.264  12.629  1.9632  0.6501 -0.6796
47446SOL     OW60329   9.608   5.167   7.533 -0.1853  0.4763 -0.2468
47446SOL    HW160330   9.690   5.215   7.547 -1.5249  2.1542  2.7115
47446SOL    HW260331   9.627   5.079   7.567  1.1236  0.0025 -2.0774
47447SOL     OW60332   8.468  13.828   1.387  0.2215 -0.1844  0.7193
47447SOL    HW160333   8.503  13.855   1.471 -0.2069 -0.5014  1.0017
47447SOL    HW260334   8.412  13.902   1.360 -1.0535 -0.8162  1.5538
47448SOL     OW60335   1.866   6.222   8.601  0.0681  0.1554  0.4198
47448SOL    HW160336   1.831   6.248   8.516  0.4481 -2.3035 -0.5839
47448SOL    HW260337   1.804   6.157   8.634  1.0196 -0.4825  1.0145
47449SOL     OW60338   6.204   1.728   1.164 -0.3533 -0.3443  0.3451
47449SOL    HW160339   6.213   1.633   1.173  1.5818 -0.1519  0.7283
47449SOL    HW260340   6.144   1.739   1.090 -2.8105 -1.8438  1.9765
47450SOL     OW60341   3.794   2.389  11.248  0.3254  0.6187  0.1388
47450SOL    HW160342   3.698   2.395  11.248  0.3648  1.7163 -1.1680
47450SOL    HW260343   3.813   2.310  11.298 -1.4258 -1.3693 -2.0731
47451SOL     OW60344   4.313   5.593  11.253 -0.4768  0.1273  0.1256
47451SOL    HW160345   4.282   5.655  11.188 -1.2342 -0.4574 -0.0831
47451SOL    HW260346   4.262   5.514  11.238  0.3296 -0.4890  0.5128
47452SOL     OW60347   2.145   0.270   3.957  0.5252  0.5281 -0.7741
47452SOL    HW160348   2.140   0.322   4.037 -1.5974 -1.9468  0.8788
47452SOL    HW260349   2.090   0.317   3.895  1.5584  2.0802 -0.5662
47453SOL     OW60350  13.298  11.664  11.936 -0.8824  0.5892  0.1811
47453SOL    HW160351  13.378  11.622  11.968 -0.6768  1.9972  1.6820
47453SOL    HW260352  13.329  11.744  11.893 -1.3989  0.4624 -0.4233
47454SOL     OW60353   8.680   8.684   1.621  0.1329  0.2545  0.0036
47454SOL    HW160354   8.709   8.691   1.530  0.4769  0.2370  0.1103
47454SOL    HW260355   8.729   8.752   1.668 -1.1577  1.2875 -0.0867
47455SOL     OW60356   3.809   2.280   9.586 -0.0465 -0.2585  0.0286
47455SOL    HW160357   3.851   2.239   9.662  0.4695 -0.0766 -0.1524
47455SOL    HW260358   3.777   2.207   9.534 -0.7582 -0.3774  0.6120
47456SOL     OW60359   6.660  11.608   5.514 -0.0132 -0.0092  0.1427
47456SOL    HW160360   6.712  11.533   5.544  0.6502 -0.4092 -1.8847
47456SOL    HW260361   6.719  11.683   5.524  0.9878 -0.4395 -2.0074
47457SOL     OW60362  12.115  12.652   6.059 -0.2370 -0.4639  0.1289
47457SOL    HW160363  12.192  12.604   6.090  0.7572  0.2479 -1.1172
47457SOL    HW260364  12.054  12.583   6.032 -0.9406 -1.0955  2.9924
47458SOL     OW60365   0.344   2.686   2.104 -0.3635  0.5079 -0.4462
47458SOL    HW160366   0.279   2.625   2.070 -2.7449  2.5551  0.1626
47458SOL    HW260367   0.372   2.737   2.027  0.1329  0.0214 -0.6006
47459SOL     OW60368  12.496   8.628   0.458  0.3258  0.1127 -0.3375
47459SOL    HW160369  12.538   8.588   0.382 -1.2691 -1.0411 -0.6594
47459SOL    HW260370  12.503   8.723   0.442 -0.9666 -0.0871 -2.5352
47460SOL     OW60371   1.019  10.672   7.293 -0.2251 -0.1053 -0.4043
47460SOL    HW160372   1.001  10.620   7.215 -0.7355 -0.8311  0.1770
47460SOL    HW260373   0.967  10.751   7.282 -0.2272 -0.1656 -0.8373
47461SOL     OW60374   3.595  10.512   9.179 -0.4375 -0.4695  0.5854
47461SOL    HW160375   3.598  10.600   9.217  1.4110  0.1999 -0.9357
47461SOL    HW260376   3.510  10.508   9.135 -0.4026  0.7027  0.3790
47462SOL     OW60377   4.156   9.417   6.926 -0.0962 -0.3867 -0.5827
47462SOL    HW160378   4.135   9.493   6.872 -1.6360  0.7840  1.5185
47462SOL    HW260379   4.072   9.372   6.938  0.1552 -0.4955  0.9521
47463SOL     OW60380   5.592   3.062   8.068  0.1564  0.0688  0.0503
47463SOL    HW160381   5.596   2.998   8.139  0.6994 -1.6009 -1.3973
47463SOL    HW260382   5.505   3.051   8.030  1.2756 -2.1415 -2.1465
47464SOL     OW60383   4.781   6.742   2.505  0.5295 -0.2622  0.0588
47464SOL    HW160384   4.824   6.714   2.425  0.2349  0.3418 -0.3112
47464SOL    HW260385   4.744   6.661   2.541 -1.2284 -0.2209 -1.5454
47465SOL     OW60386   3.188  12.378  10.333 -0.3078  0.5721  0.1296
47465SOL    HW160387   3.142  12.461  10.320  0.3545  1.0690  0.8719
47465SOL    HW260388   3.278  12.396  10.305 -0.1463  0.1246  0.3570
47466SOL     OW60389  11.515   2.622   9.789  0.1462  0.1819  0.2442
47466SOL    HW160390  11.449   2.675   9.833  2.2397  2.8539  0.4418
47466SOL    HW260391  11.553   2.568   9.858 -2.3245 -2.1315 -0.0400
47467SOL     OW60392   4.656   6.413   6.959  0.2429 -0.1934  0.0992
47467SOL    HW160393   4.748   6.437   6.960  0.3780 -0.6579  1.5972
47467SOL    HW260394   4.655   6.319   6.945  0.0298 -0.2683  0.5868
47468SOL     OW60395   4.412   2.768   9.939 -0.9360  0.6254  0.2779
47468SOL    HW160396   4.384   2.683   9.973  0.3019 -0.2148 -0.6812
47468SOL    HW260397   4.390   2.830  10.008  0.4373 -0.8367  2.1479
47469SOL     OW60398   3.653   6.041   9.411 -0.2018 -0.9684 -0.2941
47469SOL    HW160399   3.742   6.005   9.412 -0.2233 -1.0429 -0.6588
47469SOL    HW260400   3.666   6.136   9.404 -0.1437 -0.8848  0.8251
47470SOL     OW60401   9.609   9.580  13.748 -0.3542 -0.1566 -0.7305
47470SOL    HW160402   9.662   9.656  13.769 -0.6804 -0.0628 -0.2348
47470SOL    HW260403   9.581   9.594  13.658  0.3036 -0.1158 -0.9289
47471SOL     OW60404  10.838  11.127   6.415  0.4143 -0.1859  0.6423
47471SOL    HW160405  10.901  11.195   6.391  1.5776 -0.4032  2.8295
47471SOL    HW260406  10.831  11.071   6.337  1.5315  0.8705 -0.2415
47472SOL     OW60407   2.307   6.026  11.510  0.2199 -0.3270  0.0719
47472SOL    HW160408   2.291   6.119  11.490  0.8745 -0.2893 -0.3099
47472SOL    HW260409   2.372   6.028  11.579  0.8286 -0.5097 -0.4924
47473SOL     OW60410   6.950   1.177   1.758  0.2195  0.1861  0.4378
47473SOL    HW160411   6.970   1.087   1.734  1.5900  0.1198  1.6827
47473SOL    HW260412   6.942   1.223   1.675 -2.3727 -1.4018 -0.3001
47474SOL     OW60413   9.678   7.448  13.050  0.2248  0.0544 -0.4924
47474SOL    HW160414   9.617   7.493  13.107  1.0480  0.6686 -0.0803
47474SOL    HW260415   9.643   7.461  12.962 -1.1636 -1.0744 -0.1550
47475SOL     OW60416  11.766   9.307   1.594  0.5104  0.1772  0.8796
47475SOL    HW160417  11.697   9.299   1.529  0.4590 -2.8597  1.1508
47475SOL    HW260418  11.737   9.377   1.652 -1.9462 -0.4048  0.4760
47476SOL     OW60419   7.795   8.435  11.857 -0.6462 -0.1475 -0.0842
47476SOL    HW160420   7.854   8.362  11.876 -1.1018 -0.5192 -0.0723
47476SOL    HW260421   7.831   8.508  11.905 -0.7210 -0.6123  0.6993
47477SOL     OW60422  12.399  12.101   7.965 -0.2378  0.1721 -0.6592
47477SOL    HW160423  12.436  12.038   8.027  1.3771  1.1921 -0.5429
47477SOL    HW260424  12.334  12.149   8.016 -0.4095 -0.3829 -0.3411
47478SOL     OW60425   2.125   6.963   2.746  0.0520 -0.1404  0.1495
47478SOL    HW160426   2.210   6.929   2.775 -0.1420  0.0533  0.9762
47478SOL    HW260427   2.064   6.933   2.813 -0.2749  1.0558  0.3937
47479SOL     OW60428   9.356   3.963   6.853  0.4061  0.1467  0.4584
47479SOL    HW160429   9.374   4.016   6.931 -4.6448  0.1884  2.0089
47479SOL    HW260430   9.342   4.028   6.784 -1.4155  0.7061  1.2686
47480SOL     OW60431   9.224  12.541   9.613  0.4269 -0.1484 -0.1483
47480SOL    HW160432   9.232  12.467   9.553  0.0503  1.6198 -2.4978
47480SOL    HW260433   9.283  12.519   9.685  2.8923 -1.2575 -2.3298
47481SOL     OW60434  10.955   6.709   0.433 -0.6283 -0.6276 -0.1040
47481SOL    HW160435  11.025   6.751   0.382 -0.9726 -0.3687 -0.3677
47481SOL    HW260436  10.889   6.685   0.368 -1.0054 -0.4280  0.2017
47482SOL     OW60437   0.452  10.001   6.676 -0.2035 -0.2952 -0.2390
47482SOL    HW160438   0.526   9.942   6.693 -0.6168 -0.8379 -0.3193
47482SOL    HW260439   0.463  10.028   6.585 -0.5685 -1.0518 -0.5211
47483SOL     OW60440   8.247   4.594  10.743 -0.1956 -0.7680  0.7584
47483SOL    HW160441   8.285   4.626  10.661 -1.1581 -0.1469  0.5461
47483SOL    HW260442   8.315   4.537  10.780  1.6491  1.4969  1.1673
47484SOL     OW60443   3.842   6.205  11.523  0.1028 -0.0369  0.6330
47484SOL    HW160444   3.906   6.275  11.524 -0.5080  0.5808 -0.7245
47484SOL    HW260445   3.781   6.227  11.594  0.1093  0.6090  0.4399
47485SOL     OW60446  10.680   1.593   4.933  0.3494 -0.8001 -0.1782
47485SOL    HW160447  10.615   1.561   4.995  0.6678  0.5822  0.9210
47485SOL    HW260448  10.763   1.559   4.967  0.3887 -1.1228 -0.5938
47486SOL     OW60449   7.673   5.703   3.771 -0.1174  0.3434 -0.3361
47486SOL    HW160450   7.640   5.615   3.790 -1.2983  1.0826  1.3146
47486SOL    HW260451   7.763   5.703   3.802 -0.6490  0.1969  1.2763
47487SOL     OW60452  12.036   9.934   4.286  0.0101 -0.2016  0.6258
47487SOL    HW160453  12.034   9.847   4.326  2.7197  0.4499  2.4569
47487SOL    HW260454  12.104   9.981   4.333 -0.6004  2.6077 -1.0276
47488SOL     OW60455   9.148  13.183   0.647  0.4621 -0.1826  0.7885
47488SOL    HW160456   9.164  13.275   0.626  0.8415 -0.5273 -0.4891
47488SOL    HW260457   9.143  13.181   0.743 -0.7063  1.3522  0.7938
47489SOL     OW60458   5.171  10.193   8.408 -0.0754  0.8874  0.2031
47489SOL    HW160459   5.202  10.120   8.462  1.7462  1.5637  0.1594
47489SOL    HW260460   5.083  10.168   8.382  0.5126 -1.3393  0.1191
47490SOL     OW60461   5.095   9.662   8.816  0.3239  0.3010  0.6351
47490SOL    HW160462   5.034   9.683   8.746  1.1761  3.5051  0.6855
47490SOL    HW260463   5.060   9.708   8.893  0.8143 -0.9603  1.6514
47491SOL     OW60464   6.426   1.339   6.228 -0.2645  0.1966  0.2496
47491SOL    HW160465   6.431   1.331   6.323 -1.6784 -1.8561  0.2215
47491SOL    HW260466   6.341   1.301   6.205 -0.0282  0.8088 -1.8153
47492SOL     OW60467   2.641   6.756   0.304  0.5149 -0.0366  0.5445
47492SOL    HW160468   2.627   6.810   0.382 -1.7892  0.9156 -0.4120
47492SOL    HW260469   2.598   6.673   0.324  0.0712  0.1486  0.3932
47493SOL     OW60470   5.079   6.515   3.807  0.2550  0.1583 -0.7354
47493SOL    HW160471   5.064   6.530   3.714  3.5019  0.6029 -1.2975
47493SOL    HW260472   5.095   6.421   3.814  1.5790  0.3489 -0.9443
47494SOL     OW60473  12.205   5.824   5.740  0.2433  0.5026 -0.5846
47494SOL    HW160474  12.191   5.918   5.727  0.5469  0.4616 -1.2259
47494SOL    HW260475  12.157   5.783   5.668 -3.5485 -0.0864  1.9973
47495SOL     OW60476   1.251   6.570  12.389 -0.7285  0.3649 -0.1349
47495SOL    HW160477   1.271   6.596  12.479  0.8694 -0.7325 -0.1366
47495SOL    HW260478   1.159   6.545  12.391 -0.9598  1.2032  0.9746
47496SOL     OW60479   7.812  12.822  10.994 -0.8127  0.2566 -0.0596
47496SOL    HW160480   7.846  12.813  10.905 -0.9440 -1.3512  0.0348
47496SOL    HW260481   7.891  12.833  11.048 -0.5862 -0.9008 -0.1397
47497SOL     OW60482  11.142   9.263   9.361 -0.2944 -0.1963 -0.1481
47497SOL    HW160483  11.084   9.228   9.294 -0.0371  2.0960 -1.7049
47497SOL    HW260484  11.083   9.294   9.430 -0.6997 -0.7549 -0.2404
47498SOL     OW60485   4.310   0.732   6.660  0.3103  0.7780  0.1789
47498SOL    HW160486   4.388   0.681   6.684 -0.5176  0.3953  2.2092
47498SOL    HW260487   4.308   0.728   6.564  2.1237 -0.1906  0.1352
47499SOL     OW60488   0.681   0.243   6.158 -0.0340 -0.5333 -0.0827
47499SOL    HW160489   0.721   0.324   6.191 -0.5246 -0.1582 -0.3964
47499SOL    HW260490   0.596   0.270   6.125  0.5812 -0.8125 -2.0493
47500SOL     OW60491  13.425   4.425  12.868 -0.7049  0.6023  0.2922
47500SOL    HW160492  13.378   4.472  12.937 -1.4989  0.1277  0.0853
47500SOL    HW260493  13.411   4.477  12.789 -1.0505  0.3594  0.1915
47501SOL     OW60494  10.387   1.093  13.308 -0.5673 -0.6881 -0.1326
47501SOL    HW160495  10.334   1.166  13.276  0.1400  1.3140  2.8554
47501SOL    HW260496  10.324   1.037  13.354 -0.5954 -0.1212  0.5223
47502SOL     OW60497   6.835   2.914   2.335  0.0365  0.0901 -0.1564
47502SOL    HW160498   6.784   2.913   2.254 -0.6161  1.2667  0.2170
47502SOL    HW260499   6.866   3.004   2.342  1.7770 -0.4790 -0.1075
47503SOL     OW60500   3.548  11.521   3.169  0.6652  0.8944 -0.0506
47503SOL    HW160501   3.508  11.574   3.238 -0.0031 -1.1507  1.2480
47503SOL    HW260502   3.642  11.525   3.187  0.5870  1.2697  0.3032
47504SOL     OW60503   0.217   6.254   4.242  0.1276  0.2102 -0.5367
47504SOL    HW160504   0.156   6.206   4.185 -0.1707  1.3908 -1.2509
47504SOL    HW260505   0.194   6.346   4.228 -0.3453  0.5331  1.9636
47505SOL     OW60506   9.888   2.880  12.016  0.3071  0.1769  0.0346
47505SOL    HW160507   9.803   2.853  11.981  0.3791 -0.3373  0.2543
47505SOL    HW260508   9.873   2.969  12.048  0.2148  0.6384 -1.2178
47506SOL     OW60509  11.014  13.895   5.532 -0.2064  0.2250 -0.8979
47506SOL    HW160510  10.944  13.959   5.539  0.1445  0.8116 -2.3579
47506SOL    HW260511  11.071  13.912   5.606  0.7803  2.7634 -2.1212
47507SOL     OW60512   0.936   9.568   0.475 -0.0864 -0.2718 -0.0386
47507SOL    HW160513   0.992   9.581   0.551 -1.3336  0.8802  0.7170
47507SOL    HW260514   0.871   9.638   0.480 -1.2799 -1.2335 -1.1713
47508SOL     OW60515   8.480  11.910   7.544  0.0920 -0.0593  0.2805
47508SOL    HW160516   8.478  12.004   7.559  2.0616  0.2701 -1.0817
47508SOL    HW260517   8.485  11.872   7.632  0.6754  1.1903  0.8053
47509SOL     OW60518   0.602  10.273   9.005  0.2770  0.7813  0.5207
47509SOL    HW160519   0.646  10.261   9.089  2.2500  2.5873 -0.1689
47509SOL    HW260520   0.654  10.221   8.943 -0.1546  0.7914  0.1435
47510SOL     OW60521  12.607   2.567   6.690  0.1865 -0.1667  0.2606
47510SOL    HW160522  12.554   2.535   6.617  0.8105  0.9869 -0.7255
47510SOL    HW260523  12.650   2.488   6.724 -2.4608 -1.2332  1.4237
47511SOL     OW60524   7.464   6.969   5.584 -0.3014  0.5752  0.1854
47511SOL    HW160525   7.399   6.909   5.620 -0.8945  1.9231  1.4801
47511SOL    HW260526   7.434   6.987   5.495  0.0806 -1.2550 -0.3619
47512SOL     OW60527   9.915   7.336  10.465 -0.2934 -0.2102  0.1428
47512SOL    HW160528   9.891   7.404  10.402  1.5300 -0.3295 -0.7656
47512SOL    HW260529   9.996   7.299  10.430 -0.0392 -1.3297  1.7933
47513SOL     OW60530  10.420   6.086   5.157  0.6613 -0.1864  0.2504
47513SOL    HW160531  10.457   6.158   5.208 -0.6093  0.4892  0.2764
47513SOL    HW260532  10.402   6.125   5.071 -1.5434  0.0354  0.7576
47514SOL     OW60533   4.513   0.842  13.700 -0.7834  0.5921  0.5102
47514SOL    HW160534   4.455   0.792  13.642  1.1384 -0.7051 -0.4033
47514SOL    HW260535   4.594   0.790  13.704  0.9321  3.0765  0.4319
47515SOL     OW60536   6.041   5.379   7.942 -0.3645  0.4577  0.5969
47515SOL    HW160537   6.103   5.392   7.871 -1.0514  0.9538  0.0668
47515SOL    HW260538   6.059   5.450   8.004  1.8396 -1.3457  2.1547
47516SOL     OW60539   3.650   5.737   2.348 -0.5015 -0.0347 -0.9809
47516SOL    HW160540   3.661   5.681   2.270 -0.8520  0.3520 -1.3104
47516SOL    HW260541   3.699   5.691   2.417 -1.4590 -1.1853 -1.0291
47517SOL     OW60542   4.433   6.330  12.684 -0.2276  0.7141 -0.2417
47517SOL    HW160543   4.349   6.297  12.653  0.9375 -0.4613 -2.4232
47517SOL    HW260544   4.442   6.293  12.772 -1.3856 -0.3175 -0.5206
47518SOL     OW60545   1.279   6.163   9.619 -0.2983  0.7275 -0.6393
47518SOL    HW160546   1.297   6.246   9.575 -0.1443  0.5190 -0.9817
47518SOL    HW260547   1.244   6.107   9.550 -0.7728  0.6287 -0.3238
47519SOL     OW60548   6.692   5.791   6.431 -0.4987  0.3808  0.2865
47519SOL    HW160549   6.610   5.781   6.479  0.0222  0.7827  1.2877
47519SOL    HW260550   6.752   5.729   6.473 -0.1281  0.5067 -0.0504
47520SOL     OW60551   4.690   2.157   5.207 -0.1459 -0.6107 -0.7770
47520SOL    HW160552   4.616   2.130   5.152  0.4084 -0.6141 -1.5462
47520SOL    HW260553   4.757   2.090   5.190 -0.0664 -0.7707  0.1360
47521SOL     OW60554   3.531  11.211   2.714  0.1470 -0.0484  0.5794
47521SOL    HW160555   3.437  11.227   2.712 -0.0436 -0.9788  1.2507
47521SOL    HW260556   3.565  11.272   2.780  0.2095  1.1283 -0.5091
47522SOL     OW60557   8.942   7.593   7.276  0.3668 -0.2369 -0.4810
47522SOL    HW160558   8.983   7.679   7.264 -0.1930 -0.2516 -2.9122
47522SOL    HW260559   9.013   7.531   7.263  0.8884 -0.2203  1.7881
47523SOL     OW60560   0.910   5.014   8.193  0.1031  0.1417 -0.3279
47523SOL    HW160561   0.990   5.056   8.225 -0.0712  1.6621 -1.7998
47523SOL    HW260562   0.940   4.953   8.126  0.0466  0.7697 -0.9359
47524SOL     OW60563   3.270   3.360   2.401 -0.1683 -0.0299  0.0188
47524SOL    HW160564   3.257   3.374   2.307 -0.9388  2.0885  0.3969
47524SOL    HW260565   3.356   3.399   2.420 -0.8559  1.3248  0.4954
47525SOL     OW60566  14.024  11.128   1.397  0.4084 -0.4086  0.2020
47525SOL    HW160567  14.066  11.213   1.387 -0.9684  0.2906  0.0281
47525SOL    HW260568  13.939  11.148   1.438 -0.1950 -1.6276 -0.3932
47526SOL     OW60569   5.559  12.215   2.539  0.3753 -0.0567  0.4684
47526SOL    HW160570   5.533  12.258   2.621 -0.7672 -1.2060  0.7541
47526SOL    HW260571   5.655  12.220   2.539  0.3389  1.1797  1.1799
47527SOL     OW60572  11.077  10.163  11.795  0.4291  0.3683  0.2981
47527SOL    HW160573  11.109  10.087  11.747  2.6916  0.4974  1.4380
47527SOL    HW260574  11.041  10.221  11.728  1.2128 -0.5165 -0.9330
47528SOL     OW60575  12.206   8.492   3.530 -1.0373  0.3127  0.0250
47528SOL    HW160576  12.195   8.561   3.595  0.1457  0.5497  0.0021
47528SOL    HW260577  12.205   8.538   3.446  0.0920  0.3670  0.0265
47529SOL     OW60578  12.631   5.327   1.774 -0.4476 -0.1997 -0.2842
47529SOL    HW160579  12.639   5.312   1.679 -1.0883  1.2936 -0.6034
47529SOL    HW260580  12.664   5.247   1.813  0.5770 -0.5526 -1.7634
47530SOL     OW60581  13.381  12.642   2.036  0.0048  0.0224 -0.3695
47530SOL    HW160582  13.298  12.672   1.999  0.6936 -0.3435 -2.3310
47530SOL    HW260583  13.411  12.715   2.089 -0.0725  1.4271 -2.1652
47531SOL     OW60584  10.696   3.765  13.559  0.4406 -0.2485  0.5000
47531SOL    HW160585  10.688   3.697  13.626  2.4785  0.0297  1.1272
47531SOL    HW260586  10.775   3.741  13.510  0.9093  1.3436  0.4021
47532SOL     OW60587   6.353   9.182  11.655 -0.1654 -0.0901 -0.1031
47532SOL    HW160588   6.306   9.108  11.617  0.3105 -1.6314  2.1183
47532SOL    HW260589   6.287   9.251  11.662 -1.0874 -0.8994 -0.5811
47533SOL     OW60590   2.172   0.080   8.159  0.2282 -0.0369  0.0328
47533SOL    HW160591   2.157   0.095   8.252 -0.0080 -0.5537  0.0805
47533SOL    HW260592   2.178  -0.015   8.151 -1.5680 -0.1163 -0.7569
47534SOL     OW60593   5.954   2.638  11.321 -0.2136 -0.0962  0.5188
47534SOL    HW160594   5.866   2.644  11.359 -0.1478  1.4783  0.4891
47534SOL    HW260595   5.994   2.723  11.342  1.5133 -1.0050  1.0427
47535SOL     OW60596  13.232   2.987   3.051  0.4963  0.2778  0.3277
47535SOL    HW160597  13.246   3.080   3.034 -0.0621  0.9111  3.0190
47535SOL    HW260598  13.139   2.973   3.036  0.6302  0.0566 -0.3507
47536SOL     OW60599   2.622   2.564  10.431 -0.2915  0.2356 -0.1195
47536SOL    HW160600   2.640   2.575  10.524 -0.5178 -0.3028 -0.0108
47536SOL    HW260601   2.642   2.472  10.413  0.1865  0.4478 -0.7024
47537SOL     OW60602   9.109  13.967   0.962 -0.1979  0.3840 -0.5652
47537SOL    HW160603   9.105  13.912   0.884 -0.6867  0.1400 -0.3736
47537SOL    HW260604   9.176  13.927   1.017 -0.3079  0.1798 -0.5794
47538SOL     OW60605  11.671  14.135   8.508  0.0071  0.1220 -0.1801
47538SOL    HW160606  11.583  14.158   8.539 -0.8270 -0.0857 -2.2100
47538SOL    HW260607  11.679  14.179   8.423  1.2702 -1.0533 -0.7219
47539SOL     OW60608   5.432  11.499  10.843 -1.2377 -0.1023  0.6732
47539SOL    HW160609   5.389  11.467  10.922 -1.1045 -0.3929  0.6308
47539SOL    HW260610   5.367  11.555  10.800 -0.0775  3.3319  2.9785
47540SOL     OW60611  11.393  13.295   9.525  0.3357 -0.0564  0.9458
47540SOL    HW160612  11.384  13.386   9.496  0.0600 -0.0174  1.1457
47540SOL    HW260613  11.305  13.259   9.519  0.6340 -0.6252 -0.1397
47541SOL     OW60614   2.166   6.331   3.381 -0.0410  0.5613  0.5033
47541SOL    HW160615   2.190   6.386   3.306  1.0324  0.5744  0.8274
47541SOL    HW260616   2.206   6.376   3.456  0.1770 -0.2462  0.8790
47542SOL     OW60617  10.583   2.075  10.806 -0.4228  0.1754  0.3463
47542SOL    HW160618  10.494   2.064  10.772 -0.6238  1.6030  0.3464
47542SOL    HW260619  10.617   2.152  10.760  0.9476 -0.5394  0.1024
47543SOL     OW60620  14.116   6.047   1.294  0.1970 -0.0623  0.1090
47543SOL    HW160621  14.101   6.125   1.347 -2.9612 -0.7336  0.3835
47543SOL    HW260622  14.118   6.080   1.204  0.9994  0.5449  0.3352
47544SOL     OW60623  13.406  13.233  10.098  0.1449 -0.2451 -0.1250
47544SOL    HW160624  13.477  13.290  10.068  0.5690 -0.2194  0.8956
47544SOL    HW260625  13.446  13.147  10.107 -0.2600 -0.5029 -0.7362
47545SOL     OW60626  11.926   4.507   3.767  0.5333  0.0988  0.5362
47545SOL    HW160627  12.019   4.530   3.759  0.6438 -0.3599  0.4720
47545SOL    HW260628  11.924   4.437   3.832  0.2238  0.1527  0.5848
47546SOL     OW60629  10.518  10.017   2.000  0.1072 -0.7250 -0.0735
47546SOL    HW160630  10.449  10.079   2.025  0.1458 -1.2895  1.5242
47546SOL    HW260631  10.577  10.069   1.944 -0.4709  0.3579  0.2872
47547SOL     OW60632  12.034  11.360   1.601  0.5368  0.7750  0.2950
47547SOL    HW160633  11.956  11.362   1.544  1.3498 -0.2963 -0.9197
47547SOL    HW260634  12.089  11.291   1.563  2.0019  1.3914  1.2362
47548SOL     OW60635   0.799   2.035   2.098 -0.7808 -0.3808 -0.1312
47548SOL    HW160636   0.882   2.000   2.130 -1.3149 -0.0684  1.6632
47548SOL    HW260637   0.733   2.000   2.157 -1.6144  1.5520  0.1525
47549SOL     OW60638   1.926   3.251   1.294  0.5006 -0.4311 -0.0328
47549SOL    HW160639   1.834   3.244   1.320  0.4614  1.2596  0.3817
47549SOL    HW260640   1.932   3.197   1.215 -1.2382  0.6749 -0.9871
47550SOL     OW60641   6.733  13.275  10.480 -0.7474 -0.0001 -0.4808
47550SOL    HW160642   6.828  13.283  10.473 -0.5972  1.3796  2.0103
47550SOL    HW260643   6.701  13.292  10.391  1.2115  1.9570 -0.8834
47551SOL     OW60644  11.490   9.183   1.075  0.0790  0.2379  0.0801
47551SOL    HW160645  11.446   9.158   0.994  2.9261 -1.7317 -1.0182
47551SOL    HW260646  11.455   9.122   1.140 -2.3906  1.9740  0.5273
47552SOL     OW60647   1.970   4.451  11.823 -0.3243  0.1945 -0.3695
47552SOL    HW160648   1.998   4.392  11.892  0.2880 -0.3561 -1.0681
47552SOL    HW260649   1.987   4.538  11.857 -0.5493 -0.0491  0.3862
47553SOL     OW60650  13.009  10.655   4.699  0.3334  0.1722  0.5213
47553SOL    HW160651  12.951  10.623   4.630  0.0575  0.8036  0.4592
47553SOL    HW260652  13.030  10.577   4.750  0.8812 -0.3915 -0.5233
47554SOL     OW60653  10.139   8.893   2.323  0.2313  0.0741 -0.3393
47554SOL    HW160654  10.101   8.902   2.235  1.9556 -1.3406 -1.2866
47554SOL    HW260655  10.164   8.983   2.347 -0.8784  0.5785 -0.9770
47555SOL     OW60656   0.249   5.151   0.459 -0.2403 -0.4919  0.2239
47555SOL    HW160657   0.216   5.172   0.546 -1.8236  1.7533 -0.8036
47555SOL    HW260658   0.204   5.070   0.435 -0.8940 -0.3448  0.9348
47556SOL     OW60659   3.172  13.465   6.728  0.5464 -0.3613 -0.4188
47556SOL    HW160660   3.170  13.539   6.789  1.4527  0.2518 -1.0981
47556SOL    HW260661   3.236  13.491   6.662 -0.7342 -0.7936 -1.8901
47557SOL     OW60662   9.768   9.761  10.729  0.2480  0.0499 -0.2785
47557SOL    HW160663   9.704   9.750  10.800 -0.0369 -0.2164 -0.5737
47557SOL    HW260664   9.718   9.801  10.658 -0.0956 -1.9405 -1.2212
47558SOL     OW60665   9.757   0.110   8.105  0.5146 -0.7440  0.1291
47558SOL    HW160666   9.729   0.055   8.032 -0.1463  0.4944 -0.5942
47558SOL    HW260667   9.828   0.163   8.070 -0.1147  0.1905  0.2177
47559SOL     OW60668   3.115  13.578   6.983 -0.0630  0.1360 -0.1342
47559SOL    HW160669   3.138  13.526   7.060  3.2552 -0.7662 -1.5334
47559SOL    HW260670   3.086  13.662   7.018 -0.0945 -0.7458  2.1024
47560SOL     OW60671   6.930  13.553   1.498  0.0149 -0.1171  0.3099
47560SOL    HW160672   6.912  13.647   1.502  2.0083  0.4084 -1.3681
47560SOL    HW260673   6.973  13.534   1.581 -0.5758  0.3894  0.7463
47561SOL     OW60674   4.216  11.607   8.730  0.1778  0.6743  0.2165
47561SOL    HW160675   4.161  11.662   8.787  0.5487  0.5666  0.6833
47561SOL    HW260676   4.162  11.530   8.713  0.6773 -0.0785  1.8065
47562SOL     OW60677   5.559   6.169  12.140  0.6109 -0.0800 -0.0559
47562SOL    HW160678   5.508   6.089  12.132  0.1485  0.0054  1.5958
47562SOL    HW260679   5.526   6.210  12.220 -0.4094  2.6673 -1.7349
47563SOL     OW60680  10.136   3.308   3.266  0.0579 -0.1910 -0.6455
47563SOL    HW160681  10.151   3.346   3.180  1.4200 -2.3814 -1.4716
47563SOL    HW260682  10.195   3.356   3.324  1.1962 -0.5228 -1.5012
47564SOL     OW60683   2.347   4.312   1.397 -0.2431 -0.3744  0.1421
47564SOL    HW160684   2.304   4.237   1.439 -2.0958  0.5378 -0.0318
47564SOL    HW260685   2.321   4.305   1.305 -1.0500  0.8583  0.2541
47565SOL     OW60686   3.592   5.783   5.507  0.3132 -0.6383  0.2358
47565SOL    HW160687   3.621   5.695   5.482 -3.4488 -1.8000 -0.5924
47565SOL    HW260688   3.583   5.830   5.425 -0.5889 -0.4812  0.4173
47566SOL     OW60689  10.479   2.801  12.566 -0.7489 -0.2166  0.5857
47566SOL    HW160690  10.408   2.737  12.578 -0.2532 -1.0242 -0.5713
47566SOL    HW260691  10.446   2.881  12.607 -2.6558 -0.3409 -0.5839
47567SOL     OW60692   2.987   9.401  13.006  0.2091  0.4500  0.6725
47567SOL    HW160693   3.016   9.387  13.096 -0.8466  1.0041  1.1231
47567SOL    HW260694   2.893   9.385  13.009  0.2508 -0.0700 -0.4642
47568SOL     OW60695   7.378   9.665   8.574 -0.0643  0.4212 -0.2879
47568SOL    HW160696   7.291   9.630   8.593 -0.4102  0.8804 -1.0081
47568SOL    HW260697   7.432   9.634   8.647 -1.3486  2.2171  1.5298
47569SOL     OW60698   7.069  13.196   4.771 -0.0641  0.0188 -0.1268
47569SOL    HW160699   7.150  13.246   4.759  0.4582 -0.3506  1.6284
47569SOL    HW260700   7.068  13.136   4.696  2.5003 -1.5440  0.9521
47570SOL     OW60701   9.396   3.634  10.831 -0.0026  0.4313  0.5441
47570SOL    HW160702   9.369   3.622  10.922  0.7665 -1.4426  0.5582
47570SOL    HW260703   9.466   3.700  10.835  0.9801 -0.6287  1.5003
47571SOL     OW60704  10.068   0.792   5.431  0.5536  0.4803  0.3091
47571SOL    HW160705  10.069   0.876   5.477 -0.5284  0.2494  0.7962
47571SOL    HW260706  10.021   0.733   5.490 -0.2413 -0.0101 -0.7783
47572SOL     OW60707   0.512   3.424   7.931  0.7509 -0.2616  0.0134
47572SOL    HW160708   0.446   3.402   7.864  0.8273 -0.5801  0.0412
47572SOL    HW260709   0.506   3.519   7.939  1.2128 -0.1371 -0.9414
47573SOL     OW60710   6.066  12.304   9.018  0.0853  0.5286  0.9526
47573SOL    HW160711   6.102  12.391   9.001  1.6304 -0.1187  0.7979
47573SOL    HW260712   6.016  12.282   8.939 -2.1492  2.1177  1.8189
47574SOL     OW60713   2.084   1.216   7.950  0.4088  0.2119 -0.3541
47574SOL    HW160714   2.072   1.122   7.939 -1.3773  0.5529 -1.8950
47574SOL    HW260715   2.137   1.243   7.875  1.0399  0.4179  0.1618
47575SOL     OW60716   0.783   3.464  12.818 -0.2746 -0.1371  0.2256
47575SOL    HW160717   0.779   3.424  12.731  0.7984 -0.7967  0.4560
47575SOL    HW260718   0.838   3.542  12.806  0.1367 -0.4040  0.3754
47576SOL     OW60719  10.020   5.915  13.941 -0.2641  0.0232 -0.1153
47576SOL    HW160720  10.076   5.846  13.976 -0.8450 -1.5976 -2.1764
47576SOL    HW260721   9.937   5.871  13.922 -0.8285  1.4129 -1.0458
47577SOL     OW60722  12.031   2.854   6.168 -0.0744 -0.0175  0.2670
47577SOL    HW160723  11.988   2.777   6.131 -0.3835 -1.1359  2.7546
47577SOL    HW260724  11.965   2.895   6.223  0.9549  0.3249  1.2926
47578SOL     OW60725   2.532   0.416   5.084  0.4674  0.3798  0.1258
47578SOL    HW160726   2.452   0.460   5.055 -0.4671 -1.4611 -0.2434
47578SOL    HW260727   2.505   0.325   5.100  2.1121  0.0947  1.6701
47579SOL     OW60728   6.956   5.642   2.316 -0.2042 -0.1980 -0.6658
47579SOL    HW160729   6.897   5.570   2.295 -0.2568  0.1006 -1.5967
47579SOL    HW260730   7.043   5.610   2.293 -0.3647  0.4651 -2.3136
47580SOL     OW60731   5.722  12.934   7.310  0.2435  0.0075 -0.0968
47580SOL    HW160732   5.809  12.957   7.277 -0.0847 -1.2394 -1.9289
47580SOL    HW260733   5.739  12.876   7.384  0.9547  0.6104  0.2335
47581SOL     OW60734  13.306   4.933   5.269  0.3713 -0.2004 -1.0121
47581SOL    HW160735  13.228   4.880   5.283  0.5525 -0.2314 -0.0312
47581SOL    HW260736  13.273   5.022   5.258  0.1110 -0.4088 -2.0318
47582SOL     OW60737   8.765   8.202   4.935 -0.2347 -0.1212 -0.1767
47582SOL    HW160738   8.715   8.266   4.986 -0.5183 -2.2096  2.3714
47582SOL    HW260739   8.723   8.118   4.954  0.7604 -1.2359 -2.5540
47583SOL     OW60740  13.388  10.145   0.439 -0.5582  0.5008  0.6782
47583SOL    HW160741  13.346  10.215   0.390  0.8382  1.9061  1.3983
47583SOL    HW260742  13.457  10.188   0.489 -0.2530 -1.2552  1.8827
47584SOL     OW60743   4.595  11.149   5.632  0.0780 -0.4501 -0.5263
47584SOL    HW160744   4.671  11.121   5.684  0.1974  0.9026  0.0628
47584SOL    HW260745   4.550  11.067   5.611 -0.4952 -1.0617  2.5146
47585SOL     OW60746   7.692   0.106   9.126  0.0292  0.1205  0.3195
47585SOL    HW160747   7.734   0.176   9.177  0.2308  1.5590 -1.7151
47585SOL    HW260748   7.601   0.108   9.154  0.2301  0.5322  0.9813
47586SOL     OW60749   4.727  13.236  11.872 -0.2431  0.0376 -0.0361
47586SOL    HW160750   4.730  13.293  11.796 -0.9039 -1.4700 -1.2405
47586SOL    HW260751   4.634  13.219  11.886 -0.0063 -2.1049 -0.7965
47587SOL     OW60752   5.060   5.761   8.242  0.1768  0.1627  0.4042
47587SOL    HW160753   4.993   5.792   8.180 -0.1409  1.1570  1.2183
47587SOL    HW260754   5.076   5.670   8.216 -0.2819  0.4157 -0.8404
47588SOL     OW60755  13.675   1.322   0.388 -0.0960  0.3276 -0.3210
47588SOL    HW160756  13.664   1.300   0.295  0.1999 -1.5315  0.0644
47588SOL    HW260757  13.691   1.239   0.432 -0.1438  1.1797  1.4116
47589SOL     OW60758   1.870   2.683   9.067  0.0462  0.0983  0.2118
47589SOL    HW160759   1.797   2.721   9.018  1.0225  0.2920 -1.1486
47589SOL    HW260760   1.829   2.625   9.130 -1.2701 -0.4383 -1.0803
47590SOL     OW60761  11.982  10.297   0.751  0.1645  0.5866 -0.2298
47590SOL    HW160762  11.962  10.310   0.659 -0.0776  1.0436 -0.1156
47590SOL    HW260763  11.986  10.386   0.788 -1.4862  0.3703  0.5641
47591SOL     OW60764  12.639   6.307   7.186 -0.1528 -0.0216 -0.4700
47591SOL    HW160765  12.593   6.297   7.103  1.8295 -0.6930 -1.5632
47591SOL    HW260766  12.732   6.302   7.163  0.4645 -0.7791  1.8557
47592SOL     OW60767   4.109   8.959   7.093  0.4607  0.1762  0.4500
47592SOL    HW160768   4.154   9.037   7.061 -0.2868  0.3327 -0.2455
47592SOL    HW260769   4.055   8.991   7.165  0.7954  0.1356  0.7268
47593SOL     OW60770   0.825   4.708   2.643  0.6518 -0.3155 -0.0183
47593SOL    HW160771   0.762   4.636   2.640 -0.1277  0.2655  1.4501
47593SOL    HW260772   0.777   4.783   2.606  0.4173  0.1542  1.1978
47594SOL     OW60773   0.311   0.706   9.973  1.0829  0.4958  0.2358
47594SOL    HW160774   0.257   0.769  10.021  1.4014 -0.8609  2.5107
47594SOL    HW260775   0.269   0.698   9.887 -1.3054  0.8040  1.3050
47595SOL     OW60776  11.254   2.283   3.113 -0.1722 -0.3427  0.3600
47595SOL    HW160777  11.238   2.218   3.044 -1.1352  1.5830 -1.3508
47595SOL    HW260778  11.167   2.308   3.143  0.0567  1.6729 -0.5513
47596SOL     OW60779   2.120   8.525   1.612 -0.2348  0.0625 -0.3495
47596SOL    HW160780   2.030   8.557   1.612 -0.3289 -0.2040 -0.1625
47596SOL    HW260781   2.143   8.520   1.519  0.1357  1.6541 -0.3636
47597SOL     OW60782   1.436   8.808   1.226 -0.4370  0.5800 -0.3448
47597SOL    HW160783   1.392   8.785   1.308 -1.8954  1.7791 -0.7475
47597SOL    HW260784   1.526   8.830   1.252 -0.8660  0.8922  0.9385
47598SOL     OW60785   0.329   2.269   5.929 -0.7821 -0.8092  0.0277
47598SOL    HW160786   0.397   2.272   5.997  0.6558 -1.6198 -1.3252
47598SOL    HW260787   0.260   2.326   5.963  0.9511  0.7977  1.0567
47599SOL     OW60788  13.488  14.124  13.741 -0.1860  0.4579 -0.1869
47599SOL    HW160789  13.408  14.072  13.730 -0.3352  0.8407 -0.9942
47599SOL    HW260790  13.559  14.062  13.726 -0.3293  0.1099  0.5576
47600SOL     OW60791   6.983   3.265  11.521 -0.5301 -0.1382 -0.2126
47600SOL    HW160792   7.062   3.266  11.576 -1.8059 -0.3042  1.7397
47600SOL    HW260793   6.963   3.173  11.510 -0.6854 -0.0872 -0.3556
47601SOL     OW60794   4.028   8.433   3.863 -0.0370  0.2145 -0.6400
47601SOL    HW160795   3.977   8.511   3.888 -1.5978 -1.3181  1.2910
47601SOL    HW260796   3.966   8.361   3.870  1.6071 -1.3589 -1.4743
47602SOL     OW60797  10.396  10.883  13.938 -0.3270  0.1707  0.0612
47602SOL    HW160798  10.458  10.845  13.876 -1.7240  0.2221 -1.4148
47602SOL    HW260799  10.452  10.918  14.009  1.2933 -0.0403 -1.0536
47603SOL     OW60800   0.168   5.326  13.074 -0.0205 -0.5946  0.1412
47603SOL    HW160801   0.174   5.349  12.981 -0.1097 -0.5425  0.1489
47603SOL    HW260802   0.094   5.376  13.106 -0.4476 -1.1752  0.0704
47604SOL     OW60803   0.467  12.116   1.384 -1.2102  0.2957 -0.0773
47604SOL    HW160804   0.448  12.196   1.335 -0.6417 -0.5439 -1.7660
47604SOL    HW260805   0.471  12.048   1.317  1.3382 -0.6369  0.9164
47605SOL     OW60806   1.096   5.747  11.614 -0.0292  0.6953 -0.4687
47605SOL    HW160807   1.014   5.698  11.625 -0.4309  1.5381  0.4463
47605SOL    HW260808   1.136   5.709  11.536  0.4844 -2.1989  1.0491
47606SOL     OW60809   5.785   6.409   1.509  0.1272 -0.0543 -0.5825
47606SOL    HW160810   5.863   6.450   1.470 -0.0161  0.5414 -0.2504
47606SOL    HW260811   5.716   6.474   1.497  0.1676  0.3295  1.0299
47607SOL     OW60812   3.617   3.972   8.699 -0.1958  0.2718 -0.3982
47607SOL    HW160813   3.575   3.968   8.613  1.3885  2.6055 -1.4027
47607SOL    HW260814   3.703   3.932   8.685 -1.0246 -2.2798  1.0227
47608SOL     OW60815   1.735  10.554   9.366  0.3505 -0.0071 -0.0825
47608SOL    HW160816   1.755  10.626   9.306  1.5428  0.4000  0.7717
47608SOL    HW260817   1.693  10.597   9.441 -1.5167 -0.5619 -0.7530
47609SOL     OW60818   0.248   8.682   7.836 -0.2703 -0.0435  0.1982
47609SOL    HW160819   0.193   8.680   7.914 -0.5576 -0.1132 -0.0035
47609SOL    HW260820   0.205   8.744   7.777 -0.1327 -0.0974  0.0381
47610SOL     OW60821  14.114  11.547   3.810  0.0508  0.3115 -0.1333
47610SOL    HW160822  14.176  11.560   3.739  0.6520 -1.2614  0.0646
47610SOL    HW260823  14.028  11.567   3.772  0.4368  0.1491 -1.1006
47611SOL     OW60824   1.028   0.415   0.634 -0.2913  0.2439  0.2715
47611SOL    HW160825   0.951   0.381   0.680  0.0232 -1.0252 -0.0838
47611SOL    HW260826   1.017   0.384   0.544  0.3524  0.5462  0.0839
47612SOL     OW60827   9.862   4.917   5.694  0.3416 -0.5946 -0.4537
47612SOL    HW160828   9.784   4.863   5.678 -0.8310  0.5987  0.9456
47612SOL    HW260829   9.865   4.976   5.618  0.6944 -1.5447 -1.1894
47613SOL     OW60830   3.371  10.865  10.083  0.1006  0.1797  0.2699
47613SOL    HW160831   3.457  10.827  10.096  0.2031  0.5684  0.7429
47613SOL    HW260832   3.337  10.880  10.171 -0.2542  0.4629  0.0888
47614SOL     OW60833  13.425  13.150  10.468 -0.0508 -0.0188 -0.6280
47614SOL    HW160834  13.332  13.125  10.469  0.1231 -0.7736  0.8985
47614SOL    HW260835  13.459  13.115  10.386 -1.0889  0.1874 -1.1631
47615SOL     OW60836   5.768   0.804   8.159 -0.1526 -0.3973 -0.4008
47615SOL    HW160837   5.701   0.738   8.143 -2.2038  1.4299  0.2228
47615SOL    HW260838   5.755   0.869   8.091  1.4212 -0.2594 -0.6162
47616SOL     OW60839   2.728   3.159  12.576 -0.5502  0.3313 -0.3149
47616SOL    HW160840   2.686   3.077  12.553 -0.8156 -0.0112  1.2734
47616SOL    HW260841   2.656   3.222  12.583 -0.5602  0.2532  0.3018
47617SOL     OW60842   7.348  11.961   4.919 -0.4304 -0.4765 -0.1203
47617SOL    HW160843   7.301  12.029   4.966 -0.8703 -0.1469 -1.0152
47617SOL    HW260844   7.439  11.970   4.948 -0.2364  1.3282 -1.1458
47618SOL     OW60845  11.195   9.724   6.819 -0.2332  0.0218  0.2918
47618SOL    HW160846  11.105   9.699   6.836 -0.3337  0.9276  1.1586
47618SOL    HW260847  11.247   9.674   6.882 -0.1845 -0.0379  0.2050
47619SOL     OW60848   7.215  12.805   8.946 -0.5364  0.1074  0.0799
47619SOL    HW160849   7.230  12.898   8.929 -0.3751 -0.0479 -0.6703
47619SOL    HW260850   7.266  12.786   9.024  0.0799  0.4659 -0.2286
47620SOL     OW60851  10.179   7.158   4.449 -0.0314 -0.2853  0.6202
47620SOL    HW160852  10.158   7.132   4.359 -0.1667  0.2363  0.4978
47620SOL    HW260853  10.110   7.220   4.472  0.3170 -0.0004  0.8897
47621SOL     OW60854  14.113   1.857   7.455  0.0498  0.0373  0.3557
47621SOL    HW160855  14.187   1.895   7.501  1.0679  0.2179 -1.3684
47621SOL    HW260856  14.038   1.873   7.513  1.3409 -0.2476  2.1853
47622SOL     OW60857  10.472   6.923   9.310 -0.9606 -0.2663  0.0401
47622SOL    HW160858  10.529   6.883   9.244 -1.4365 -0.4866 -0.2459
47622SOL    HW260859  10.502   7.014   9.317  0.0842 -0.6526  0.6441
47623SOL     OW60860  12.881  13.657  10.925  0.3440 -0.2415  0.1920
47623SOL    HW160861  12.805  13.636  10.870  0.6473 -0.2327 -0.2316
47623SOL    HW260862  12.920  13.734  10.884  0.1986  0.1532  0.7909
47624SOL     OW60863  13.623   6.215  13.008  0.4686  0.0238 -0.1049
47624SOL    HW160864  13.655   6.283  12.949  0.9756  0.2467  0.4244
47624SOL    HW260865  13.622   6.256  13.095 -0.3481 -0.2769  0.0445
47625SOL     OW60866   1.602   2.616   8.711 -0.6367  0.2883 -0.0778
47625SOL    HW160867   1.639   2.528   8.720 -1.6291 -0.2002 -0.6414
47625SOL    HW260868   1.636   2.648   8.628 -1.8489 -0.3782 -0.8706
47626SOL     OW60869   1.473  10.359   7.724  0.5568 -0.5912 -0.1259
47626SOL    HW160870   1.410  10.344   7.795  0.3018 -0.5646 -0.3471
47626SOL    HW260871   1.419  10.374   7.647  0.8221  0.3941 -0.1273
47627SOL     OW60872   0.595  11.887  13.273 -1.2021  0.0221 -0.1253
47627SOL    HW160873   0.660  11.869  13.341 -2.1272  4.5100  2.3144
47627SOL    HW260874   0.646  11.901  13.194  0.2213 -1.8907  0.3816
47628SOL     OW60875   9.866  11.979   4.252  0.4226  0.1530 -0.0024
47628SOL    HW160876   9.796  11.931   4.209 -0.8672  2.3885 -0.5706
47628SOL    HW260877   9.935  11.914   4.266 -1.3708 -1.9207 -0.2697
47629SOL     OW60878   5.930   9.075   1.304 -0.2316 -0.0947  0.2017
47629SOL    HW160879   5.965   9.053   1.218  0.7799  0.1110  0.5464
47629SOL    HW260880   5.914   9.170   1.300  1.8463  0.3442  0.8959
47630SOL     OW60881   4.338  13.296  11.242  0.4869 -0.3670  0.0579
47630SOL    HW160882   4.301  13.379  11.271  1.3670  0.2030 -0.3834
47630SOL    HW260883   4.430  13.300  11.269  1.2101 -0.0520 -2.1722
47631SOL     OW60884   5.551   9.821   3.014 -0.0660 -0.1942 -0.3499
47631SOL    HW160885   5.525   9.906   3.049  1.0858  0.4826 -1.1218
47631SOL    HW260886   5.479   9.797   2.955  0.6442  1.3118 -1.8875
47632SOL     OW60887   6.493   9.887   5.098 -0.1161  0.0207  0.6061
47632SOL    HW160888   6.404   9.902   5.129 -0.0814  1.2719  0.1723
47632SOL    HW260889   6.486   9.814   5.036 -0.3841 -1.6412  2.5069
47633SOL     OW60890   5.778   1.576  14.010 -0.1660 -0.3130  0.0080
47633SOL    HW160891   5.714   1.527  13.958  1.0953 -1.9898 -0.0452
47633SOL    HW260892   5.745   1.572  14.100  0.3209 -2.0414  0.1438
47634SOL     OW60893   3.037   4.805   1.350  0.0955 -0.3971  0.2375
47634SOL    HW160894   2.983   4.812   1.429 -0.6958  3.2120 -0.4553
47634SOL    HW260895   3.005   4.874   1.292  2.4240 -1.1584 -2.1875
47635SOL     OW60896   6.358   2.615  13.957  0.6257  0.2526 -0.1383
47635SOL    HW160897   6.427   2.676  13.931 -0.2626  0.9843 -0.8404
47635SOL    HW260898   6.288   2.628  13.892 -0.6768  0.4063  1.2477
47636SOL     OW60899  10.245   0.158   8.644  0.0759  0.2857  0.0082
47636SOL    HW160900  10.327   0.118   8.615 -1.1734 -1.6349 -1.1688
47636SOL    HW260901  10.225   0.224   8.579  0.7090  0.8113  0.3404
47637SOL     OW60902  11.687  12.488  13.504  0.0138  0.5291 -0.6329
47637SOL    HW160903  11.657  12.497  13.594  0.0230  0.6610 -0.6428
47637SOL    HW260904  11.618  12.437  13.460 -0.0101  0.5003 -0.5607
47638SOL     OW60905   7.442   9.196  12.648  0.2119  0.2120 -0.4461
47638SOL    HW160906   7.529   9.175  12.615 -0.7566 -0.4164 -2.8283
47638SOL    HW260907   7.428   9.287  12.623  0.6000  0.6968  1.0070
47639SOL     OW60908   8.504  11.356   3.886  0.3580 -0.1899 -0.6317
47639SOL    HW160909   8.599  11.358   3.873  0.2951 -0.6527 -1.1662
47639SOL    HW260910   8.477  11.268   3.860  0.0286 -0.7038  1.3282
47640SOL     OW60911  12.850   3.425  11.506  0.0966  0.4405  0.3116
47640SOL    HW160912  12.759   3.395  11.514 -0.2350  1.2524 -0.2639
47640SOL    HW260913  12.859   3.491  11.574 -0.7695  2.6908 -1.5906
47641SOL     OW60914   1.651   4.933   8.506  0.5413  0.1056 -0.1960
47641SOL    HW160915   1.574   4.878   8.514 -0.9496  2.1732  0.7627
47641SOL    HW260916   1.689   4.934   8.594  0.7406  0.3447 -0.2835
47642SOL     OW60917   5.337  13.099  12.658 -0.2663 -0.2017 -0.3685
47642SOL    HW160918   5.369  13.102  12.568 -1.5782  0.5104 -0.8459
47642SOL    HW260919   5.382  13.170  12.703  0.1768 -0.3742 -0.5397
47643SOL     OW60920  10.980   2.300   2.418 -0.4285  0.6137 -0.5035
47643SOL    HW160921  10.987   2.279   2.511  0.9154  1.8001 -0.3169
47643SOL    HW260922  10.992   2.216   2.373  1.2002  0.3830  0.3270
47644SOL     OW60923   8.500   6.283   0.716  0.3234  0.0256  0.0784
47644SOL    HW160924   8.560   6.272   0.790 -2.2027  0.2807  2.2942
47644SOL    HW260925   8.555   6.319   0.646  2.7453  0.1358  1.9147
47645SOL     OW60926   1.672   9.838   3.803 -0.9405  0.3938  0.4086
47645SOL    HW160927   1.684   9.931   3.823 -1.1148  0.2718  1.1361
47645SOL    HW260928   1.729   9.821   3.728 -0.4847  0.9593  0.6200
47646SOL     OW60929   6.721   2.452  10.115 -0.3546  0.1734  0.3674
47646SOL    HW160930   6.712   2.409  10.030 -1.4167 -0.4141  0.7672
47646SOL    HW260931   6.798   2.411  10.154  0.7780  1.1822 -0.7171
47647SOL     OW60932  11.252   2.328   8.367  0.0796  0.0299 -0.5739
47647SOL    HW160933  11.336   2.297   8.334  0.2968  0.7117 -0.6705
47647SOL    HW260934  11.198   2.248   8.375  1.2145 -0.6371  0.9568
47648SOL     OW60935   8.895  11.922  10.753  0.5262  0.1357  0.0585
47648SOL    HW160936   8.868  11.847  10.807  2.4542 -1.0535 -0.5054
47648SOL    HW260937   8.893  11.890  10.663  2.6856  0.2534 -0.0925
47649SOL     OW60938   0.977   4.273  12.402 -0.3285  0.0015  0.1445
47649SOL    HW160939   1.005   4.361  12.376  0.4694 -0.7104 -1.4853
47649SOL    HW260940   0.909   4.250  12.339  0.8458 -1.3099 -0.6871
47650SOL     OW60941   3.602   3.786  12.925  0.1401 -0.3322 -0.2365
47650SOL    HW160942   3.517   3.744  12.913  0.7411 -1.4127 -0.8450
47650SOL    HW260943   3.657   3.750  12.855  0.7191  1.3955 -0.7236
47651SOL     OW60944   1.471   7.551   9.473  0.4990 -0.0947  0.3093
47651SOL    HW160945   1.540   7.615   9.453  0.5447 -0.1488  0.2920
47651SOL    HW260946   1.516   7.467   9.468  0.3755 -0.1455  0.0474
47652SOL     OW60947   0.045   7.985   0.761  0.5107  0.0510  0.2926
47652SOL    HW160948   0.095   8.047   0.815  0.0370  0.5370  0.1805
47652SOL    HW260949   0.041   8.027   0.674  0.0719 -0.0691  0.2532
47653SOL     OW60950   2.966   0.912   5.519  0.0032  1.0290 -0.0093
47653SOL    HW160951   2.999   0.921   5.609 -0.9982  0.8006  0.3973
47653SOL    HW260952   3.045   0.901   5.466  0.6158  1.1824  0.8397
47654SOL     OW60953   6.145   5.247   0.559  0.6550  0.1659  0.4336
47654SOL    HW160954   6.153   5.246   0.464  0.2176  1.8573  0.3424
47654SOL    HW260955   6.058   5.210   0.576  0.0513  1.3258  0.0322
47655SOL     OW60956   3.767   4.701   5.796 -0.2144 -0.0449  0.1817
47655SOL    HW160957   3.803   4.787   5.774  3.6682 -1.9773 -2.0385
47655SOL    HW260958   3.819   4.671   5.870 -1.6263 -0.5385  1.0266
47656SOL     OW60959  12.295  13.375  12.104 -0.2246  0.1250  0.0342
47656SOL    HW160960  12.281  13.454  12.050 -0.0126  0.6262  0.7014
47656SOL    HW260961  12.238  13.388  12.179  1.6261  0.8469  1.3888
47657SOL     OW60962   0.214  14.031   2.172 -0.0961 -0.5299  0.0349
47657SOL    HW160963   0.266  14.097   2.126 -1.3809 -0.4943 -1.4505
47657SOL    HW260964   0.144  14.081   2.215 -1.2971 -0.8929 -1.4056
47658SOL     OW60965   6.492  13.458  13.980 -0.1744 -0.3046  0.4510
47658SOL    HW160966   6.544  13.463  14.060  0.8660 -1.1674 -0.1382
47658SOL    HW260967   6.554  13.475  13.910 -1.3338  1.7960 -0.1495
47659SOL     OW60968   1.379  13.399   8.942 -0.3208 -0.1916 -0.0846
47659SOL    HW160969   1.295  13.403   8.989  0.4121  0.0537  1.2380
47659SOL    HW260970   1.357  13.425   8.852 -1.4743  0.9155  0.4905
47660SOL     OW60971   1.437   6.321  12.609  0.8432 -0.4681  0.5031
47660SOL    HW160972   1.431   6.237  12.563 -1.1700 -0.7026  1.1143
47660SOL    HW260973   1.484   6.300  12.690  0.2979 -1.0392  0.6826
47661SOL     OW60974   7.538   6.251   5.077 -0.1837  0.0855  0.0588
47661SOL    HW160975   7.529   6.214   5.165 -1.1886  0.1011 -0.0297
47661SOL    HW260976   7.468   6.211   5.026  1.0662 -0.7523 -1.0425
47662SOL     OW60977  12.859   3.348  13.515 -0.4128 -0.3230 -0.0346
47662SOL    HW160978  12.904   3.287  13.455 -0.2358 -0.3696  0.1466
47662SOL    HW260979  12.837   3.423  13.460  0.5270  0.0178  0.0384
47663SOL     OW60980   9.385   7.712   1.077  0.0029 -0.7851 -0.0545
47663SOL    HW160981   9.439   7.670   1.010 -0.0333 -0.2413 -0.4408
47663SOL    HW260982   9.301   7.727   1.033 -0.1215 -0.7006  0.2131
47664SOL     OW60983   7.862  12.331   1.513  0.1101 -0.1144  0.0103
47664SOL    HW160984   7.772  12.362   1.526 -0.0894 -0.6528 -0.0605
47664SOL    HW260985   7.893  12.307   1.600  0.5919  1.1200  0.2102
47665SOL     OW60986  14.124   9.018  10.324  0.4844  0.4493  0.6721
47665SOL    HW160987  14.135   9.034  10.230  1.7599 -0.8171  0.5800
47665SOL    HW260988  14.097   9.103  10.359  0.1294  0.9858 -0.8015
47666SOL     OW60989   3.356   8.200  11.775 -0.2126 -0.0217 -0.3932
47666SOL    HW160990   3.291   8.251  11.725 -0.4404  0.4166  0.3374
47666SOL    HW260991   3.439   8.244  11.757 -0.6126  1.7128  1.5447
47667SOL     OW60992  10.773   9.822   7.009 -0.0597 -0.2276 -0.2452
47667SOL    HW160993  10.792   9.855   7.097 -0.3111 -0.7180 -0.0029
47667SOL    HW260994  10.789   9.897   6.951 -0.7132  0.3481  0.3013
47668SOL     OW60995  13.282   1.163  13.059 -0.2144  0.0463  0.4429
47668SOL    HW160996  13.223   1.235  13.037 -0.6241 -0.4193 -0.0160
47668SOL    HW260997  13.337   1.198  13.129 -0.2618  0.8761  0.0817
47669SOL     OW60998   8.032   6.447   0.109  0.0480 -0.3972  0.3755
47669SOL    HW160999   7.994   6.510   0.170 -3.3805 -1.4641 -0.4272
47669SOL    HW261000   8.026   6.490   0.023 -0.0124 -0.8537  0.1477
47670SOL     OW61001   4.869  12.900   7.504  0.4487  0.5759 -0.5055
47670SOL    HW161002   4.858  12.966   7.436  0.2443 -0.0836 -1.1301
47670SOL    HW261003   4.798  12.917   7.566 -0.9333 -0.3313 -1.7489
47671SOL     OW61004   6.677   3.598   8.641 -0.1412  0.5910 -0.1655
47671SOL    HW161005   6.735   3.643   8.703 -1.3233 -0.3813  1.7472
47671SOL    HW261006   6.726   3.596   8.559  2.1546  0.5808  1.1244
47672SOL     OW61007   9.632  12.110   5.986  0.2968  0.3005 -0.2033
47672SOL    HW161008   9.712  12.118   5.935  0.3764 -2.1966 -0.6059
47672SOL    HW261009   9.567  12.162   5.938  0.9385 -0.1447 -1.6177
47673SOL     OW61010   8.311   0.747  14.045 -0.5424 -0.0534 -0.0832
47673SOL    HW161011   8.241   0.721  14.104 -1.0005 -0.6424 -0.8656
47673SOL    HW261012   8.267   0.773  13.964  0.1583 -1.8279 -1.1149
47674SOL     OW61013  11.939   3.325   3.405 -0.1505  0.3740 -0.5708
47674SOL    HW161014  11.860   3.335   3.352  0.5434  0.6441 -1.5892
47674SOL    HW261015  11.964   3.233   3.393  0.4770  0.6451 -1.4168
47675SOL     OW61016   7.009  10.020   8.654  0.0033  0.6718 -0.6437
47675SOL    HW161017   6.947  10.093   8.650 -0.2988  0.4953  0.5003
47675SOL    HW261018   6.955   9.943   8.670  0.4397  0.3885 -0.5124
47676SOL     OW61019   9.683   1.702   2.760 -0.7113  0.1800 -0.2511
47676SOL    HW161020   9.704   1.615   2.726 -0.1988  0.9397 -2.0236
47676SOL    HW261021   9.744   1.714   2.833 -0.2627 -0.6346 -0.4761
47677SOL     OW61022  13.558   6.350   8.911  0.2276  0.5627  0.0348
47677SOL    HW161023  13.579   6.443   8.900 -1.3881  0.8858 -0.5995
47677SOL    HW261024  13.499   6.330   8.838 -0.1328 -0.7388  0.6560
47678SOL     OW61025   5.005   7.971   2.963  0.1281  0.1756  0.3029
47678SOL    HW161026   5.053   7.893   2.989 -0.1671  0.7724  2.8970
47678SOL    HW261027   4.937   7.939   2.904 -0.2535 -1.6274  1.6339
47679SOL     OW61028   9.106   8.408   9.927  0.5866 -0.4000 -0.3670
47679SOL    HW161029   9.199   8.430   9.942  0.2443  0.3319  0.9071
47679SOL    HW261030   9.058   8.478   9.972 -0.5912 -0.5768 -1.3144
47680SOL     OW61031  11.832   0.797  13.773  0.2154 -0.2106 -0.2745
47680SOL    HW161032  11.834   0.776  13.866  4.5603  1.3050  0.2050
47680SOL    HW261033  11.782   0.879  13.768  1.6290  0.7869  1.1120
47681SOL     OW61034   5.716   6.294  10.025  0.0228  0.1227  0.2345
47681SOL    HW161035   5.623   6.289  10.045 -0.0943 -0.6107 -0.4437
47681SOL    HW261036   5.741   6.204  10.005  1.0211  0.2126  1.0041
47682SOL     OW61037   5.457   4.863   2.062  0.0697  0.1469  0.1918
47682SOL    HW161038   5.544   4.845   2.097  1.0905 -0.0985 -2.2453
47682SOL    HW261039   5.451   4.959   2.061  0.3560  0.1672  0.2552
47683SOL     OW61040   5.635  13.096  10.561  0.2523  0.0555 -0.0612
47683SOL    HW161041   5.605  13.027  10.620 -1.8365  0.2869 -0.7691
47683SOL    HW261042   5.697  13.147  10.613 -0.5125 -0.5276  1.4864
47684SOL     OW61043   1.304   5.011   1.293 -0.6871 -0.5456 -0.3495
47684SOL    HW161044   1.344   5.094   1.318 -1.1985 -0.8355  1.5887
47684SOL    HW261045   1.378   4.950   1.288 -0.4996 -0.3396 -0.1359
47685SOL     OW61046   0.043  12.107   3.628  0.2074 -0.2940 -0.3232
47685SOL    HW161047   0.122  12.055   3.646 -0.6311 -1.5762 -0.2436
47685SOL    HW261048   0.047  12.124   3.534  0.3182 -0.8180 -0.4209
47686SOL     OW61049   7.026   5.187   7.299  0.7579 -0.0529 -0.0185
47686SOL    HW161050   6.983   5.266   7.266  0.2252 -0.3911 -0.1615
47686SOL    HW261051   6.966   5.154   7.367  1.1011 -0.1919  0.2192
47687SOL     OW61052   3.271   3.386   1.339  0.1008  0.2743 -0.2987
47687SOL    HW161053   3.217   3.463   1.321 -0.8396 -0.6325 -1.4814
47687SOL    HW261054   3.231   3.346   1.417  0.1706  0.5855 -0.1005
47688SOL     OW61055   2.838   9.698   5.863  0.5185 -0.4056  0.2762
47688SOL    HW161056   2.776   9.695   5.790  0.5414  0.3141  0.2189
47688SOL    HW261057   2.809   9.772   5.917  0.1683 -1.2587  1.3069
47689SOL     OW61058  12.600   0.136   3.864  0.1338 -0.1620 -0.0783
47689SOL    HW161059  12.505   0.147   3.864  0.1066 -0.0990  1.6388
47689SOL    HW261060  12.614   0.050   3.824 -0.5437  0.3542 -1.4840
47690SOL     OW61061   8.287  11.996   6.989 -0.1842  0.1106 -0.4268
47690SOL    HW161062   8.331  11.999   7.074  0.2124  1.6210 -0.6620
47690SOL    HW261063   8.195  11.976   7.010 -0.0260  0.1327  0.3130
47691SOL     OW61064   4.842   8.539   9.738  0.1215 -0.2353  0.2022
47691SOL    HW161065   4.768   8.599   9.727 -1.3351 -1.1509  3.5296
47691SOL    HW261066   4.814   8.458   9.696  0.1422  0.0589 -0.3777
47692SOL     OW61067   6.738   9.284  13.830 -0.3583  0.0624  0.1602
47692SOL    HW161068   6.685   9.361  13.806 -0.1146 -0.3413 -1.8641
47692SOL    HW261069   6.826   9.305  13.798  0.1706 -0.2812  1.3373
47693SOL     OW61070   0.204   7.113   1.641  0.1788 -0.1919 -0.1317
47693SOL    HW161071   0.160   7.195   1.618 -0.5041 -0.9526 -1.7140
47693SOL    HW261072   0.157   7.081   1.718 -0.0675  0.5097  0.0149
47694SOL     OW61073  12.359   8.976  12.642 -0.0921  0.3504 -0.7398
47694SOL    HW161074  12.386   8.916  12.573  0.8373  0.5305 -0.5459
47694SOL    HW261075  12.433   8.978  12.703 -0.8663  0.2417  0.2305
47695SOL     OW61076   2.371   7.930   6.397 -0.2376  0.0288  0.1380
47695SOL    HW161077   2.357   8.024   6.387  1.3011  0.4145  1.3062
47695SOL    HW261078   2.337   7.893   6.315  1.5780  1.8751 -1.5882
47696SOL     OW61079   8.898   4.445   6.210  0.1154  0.0105  0.0666
47696SOL    HW161080   8.968   4.387   6.179  0.0928 -0.7813  1.3798
47696SOL    HW261081   8.875   4.410   6.296 -1.4582  0.6553 -0.0572
47697SOL     OW61082  10.369   6.495   2.609  0.3688  0.3341 -0.1019
47697SOL    HW161083  10.378   6.588   2.630  1.1736 -0.2242  2.3008
47697SOL    HW261084  10.352   6.452   2.693 -1.4770 -1.5639 -1.3353
47698SOL     OW61085   0.225   8.584   2.572 -0.3734 -0.8661  0.3801
47698SOL    HW161086   0.181   8.499   2.578  2.0569 -2.2151  0.4446
47698SOL    HW261087   0.242   8.609   2.663  2.1186 -2.1988  0.3787
47699SOL     OW61088   0.158   4.640   2.758  0.0900 -0.4480 -0.0506
47699SOL    HW161089   0.142   4.725   2.798  2.7699  0.7560 -1.2676
47699SOL    HW261090   0.175   4.659   2.666 -0.0699 -2.4170 -0.5491
47700SOL     OW61091  11.033   4.184  10.080 -0.0286 -0.0810  0.2235
47700SOL    HW161092  11.052   4.255  10.019  2.8363  0.4421  1.5345
47700SOL    HW261093  11.117   4.168  10.124 -1.4493 -1.8546  2.4993
47701SOL     OW61094   9.225   9.933   4.472  0.3932 -0.0854  0.0449
47701SOL    HW161095   9.204  10.024   4.453 -0.3297 -0.4215 -0.8466
47701SOL    HW261096   9.286   9.937   4.546 -0.2207  1.0725  0.5120
47702SOL     OW61097  12.697   2.290  10.820  0.1487  0.1447  0.3425
47702SOL    HW161098  12.714   2.371  10.868  3.2736 -0.6745  0.8591
47702SOL    HW261099  12.692   2.222  10.887 -1.3397 -0.2734 -0.1571
47703SOL     OW61100   3.705   5.138   7.038 -0.0190  0.3256  0.5737
47703SOL    HW161101   3.641   5.195   6.996 -0.9926 -1.3383 -0.3215
47703SOL    HW261102   3.685   5.145   7.131 -0.8211  0.6378  0.3926
47704SOL     OW61103   4.718   6.321   7.213  0.4758  0.3606 -0.3321
47704SOL    HW161104   4.695   6.229   7.209 -0.4346  0.3715  2.3100
47704SOL    HW261105   4.691   6.357   7.129 -2.5422 -1.1019 -0.1071
47705SOL     OW61106   0.456   0.481   4.817 -0.4280  0.1121  0.6380
47705SOL    HW161107   0.520   0.431   4.867 -0.2360  0.4415  0.7282
47705SOL    HW261108   0.435   0.556   4.874 -1.3704 -0.3286  0.8867
47706SOL     OW61109  13.806  12.369   8.111  0.1974 -0.1878 -0.2278
47706SOL    HW161110  13.735  12.320   8.152 -1.2407 -0.0720 -2.4238
47706SOL    HW261111  13.874  12.304   8.093 -0.7089 -0.9397 -0.9901
47707SOL     OW61112   3.906   6.597   9.392 -0.2468  0.1871  0.2853
47707SOL    HW161113   3.946   6.620   9.476 -1.2004 -0.6699  0.9961
47707SOL    HW261114   3.921   6.503   9.382  0.0601  0.3180 -0.6277
47708SOL     OW61115  11.654   1.169  12.972  0.0438 -0.1895  0.1266
47708SOL    HW161116  11.636   1.237  12.907  1.3794  2.0314  1.9018
47708SOL    HW261117  11.746   1.144  12.956 -0.0850 -0.7401  0.2259
47709SOL     OW61118   2.208   5.974   9.482 -0.2328  0.0406 -0.2027
47709SOL    HW161119   2.257   6.016   9.553 -0.0195  0.0215 -0.3399
47709SOL    HW261120   2.210   6.036   9.410  1.1686 -0.7118 -0.8485
47710SOL     OW61121   5.544  13.554  10.627  0.3152 -0.0135 -0.4644
47710SOL    HW161122   5.486  13.599  10.689 -0.7558  0.2847 -1.6453
47710SOL    HW261123   5.543  13.463  10.655  0.4386  0.2316  0.3848
47711SOL     OW61124  13.017  14.088  12.799 -0.3010  0.5623 -0.2035
47711SOL    HW161125  13.022  14.126  12.887 -0.3195 -0.5045  0.2694
47711SOL    HW261126  13.010  13.994  12.814  0.2109  0.3297 -1.3660
47712SOL     OW61127  13.751  13.692   1.066  0.6888  0.6679 -0.0602
47712SOL    HW161128  13.743  13.776   1.111  2.6888  0.8755  0.0033
47712SOL    HW261129  13.686  13.636   1.108  1.5478  1.2515  2.2018
47713SOL     OW61130   8.496   9.521   3.638 -0.2862 -0.5332  0.0431
47713SOL    HW161131   8.465   9.585   3.702 -0.2337 -0.4320 -0.0321
47713SOL    HW261132   8.588   9.542   3.627 -0.2065 -0.7905  0.2156
47714SOL     OW61133   1.385  12.288   9.378 -0.1420 -0.1057  0.1450
47714SOL    HW161134   1.437  12.208   9.372 -2.1840 -1.4982  0.1395
47714SOL    HW261135   1.372  12.316   9.288 -1.7922 -1.4030 -0.0468
47715SOL     OW61136   8.476   6.052  13.638  0.5101 -0.5433 -0.5656
47715SOL    HW161137   8.499   6.143  13.621 -0.5929 -0.1166  0.1629
47715SOL    HW261138   8.463   6.014  13.551 -0.3851  0.3620 -0.8489
47716SOL     OW61139   8.304  11.443  12.877 -0.3610 -0.3388 -0.3960
47716SOL    HW161140   8.208  11.445  12.871 -0.3888 -0.9961 -0.2835
47716SOL    HW261141   8.326  11.351  12.863  0.1123 -0.6123  1.8113
47717SOL     OW61142   4.538  10.332   7.364 -0.0941 -0.4743  0.3155
47717SOL    HW161143   4.508  10.411   7.410  1.1934  0.2945 -0.1278
47717SOL    HW261144   4.471  10.266   7.385 -0.5117  0.3556  1.7640
47718SOL     OW61145   6.127   6.428   2.965  0.0483  0.3261  0.3232
47718SOL    HW161146   6.156   6.458   3.052 -0.5200 -0.1010  0.6649
47718SOL    HW261147   6.063   6.360   2.983 -1.0643  1.1373 -0.4238
47719SOL     OW61148  12.736  11.546   6.959  0.4282  0.2012 -0.1501
47719SOL    HW161149  12.765  11.483   7.025 -0.7090 -0.6336 -0.4115
47719SOL    HW261150  12.714  11.624   7.009 -3.0023 -1.2690  0.9336
47720SOL     OW61151   8.921   5.512  11.147  0.1925  0.1318 -0.1279
47720SOL    HW161152   9.005   5.508  11.192  0.0007  1.2796  0.3661
47720SOL    HW261153   8.860   5.545  11.213 -0.4454  0.1878 -0.7349
47721SOL     OW61154   9.024  12.115   9.529 -0.1779  0.2099  0.1209
47721SOL    HW161155   8.953  12.158   9.577 -0.1423 -1.9636  2.3437
47721SOL    HW261156   9.102  12.133   9.581  0.1686 -0.8309 -0.0087
47722SOL     OW61157   7.159  13.886   3.529  0.6261  0.3108 -0.2684
47722SOL    HW161158   7.074  13.888   3.572 -0.0651 -0.3382 -1.5162
47722SOL    HW261159   7.212  13.950   3.575 -0.5790  0.8024  0.4705
47723SOL     OW61160   9.910   0.842   4.150 -0.3323 -0.5780  0.2307
47723SOL    HW161161   9.914   0.838   4.245  0.0007  0.8340  0.2980
47723SOL    HW261162   9.861   0.923   4.132  1.0178  0.0427 -0.7963
47724SOL     OW61163   1.083   2.164   8.287 -0.3785 -0.0209 -0.7158
47724SOL    HW161164   1.026   2.132   8.217  0.6864 -0.0287 -1.6068
47724SOL    HW261165   1.171   2.160   8.250  0.0957  1.0403  0.2386
47725SOL     OW61166  10.450   0.296   2.729  0.1607 -1.1398 -0.1037
47725SOL    HW161167  10.505   0.333   2.798  0.9985 -0.9673 -0.8529
47725SOL    HW261168  10.403   0.371   2.693  0.9202 -0.9732 -0.7786
47726SOL     OW61169   2.697   1.523   9.210 -0.8901  0.1700  0.4043
47726SOL    HW161170   2.768   1.530   9.274 -0.4645  2.1733 -0.2347
47726SOL    HW261171   2.637   1.459   9.249  1.0560 -1.3141  1.1225
47727SOL     OW61172   7.374  13.834   7.436 -0.1196 -0.0313  0.2859
47727SOL    HW161173   7.470  13.830   7.429 -0.2809 -0.7379 -2.5370
47727SOL    HW261174   7.350  13.755   7.484  0.6851  0.1165  0.9540
47728SOL     OW61175   1.201   9.529   9.549 -0.2811 -0.2152 -0.4693
47728SOL    HW161176   1.173   9.470   9.479  0.7926 -0.0807 -1.0309
47728SOL    HW261177   1.241   9.603   9.504 -1.5050  0.9165  0.2370
47729SOL     OW61178  13.148  12.280  10.348  0.1811 -0.0187 -0.2390
47729SOL    HW161179  13.157  12.195  10.391  0.5464  1.0151  1.8677
47729SOL    HW261180  13.065  12.314  10.381  0.1837  0.5719 -0.8334
47730SOL     OW61181  13.390   1.152   0.619 -0.0649 -0.6613 -0.2966
47730SOL    HW161182  13.416   1.208   0.546 -0.3452  0.0365  0.1321
47730SOL    HW261183  13.300   1.178   0.638  0.5988  0.4985  1.5091
47731SOL     OW61184  10.284   3.602   1.873 -0.6312 -0.5958 -0.4030
47731SOL    HW161185  10.364   3.620   1.922 -1.6013 -0.7441  1.3021
47731SOL    HW261186  10.294   3.652   1.792  0.9384 -0.1760  0.0112
47732SOL     OW61187   4.644   4.906  12.759 -0.1605 -0.2764  0.6274
47732SOL    HW161188   4.717   4.965  12.741 -0.3250 -0.4805 -0.7940
47732SOL    HW261189   4.581   4.923  12.689 -1.2464 -0.4876  1.5204
47733SOL     OW61190   4.189   4.955  12.668 -0.1639  0.2946  0.2138
47733SOL    HW161191   4.279   4.987  12.665 -0.4543  1.4342  2.0752
47733SOL    HW261192   4.136   5.034  12.678 -1.3487 -0.3902 -0.4419
47734SOL     OW61193   3.899   7.107  12.018  0.0291 -0.4531 -0.4766
47734SOL    HW161194   3.951   7.101  11.938 -0.1170 -1.8154 -0.4795
47734SOL    HW261195   3.813   7.073  11.993  0.6266 -3.1374  0.7991
47735SOL     OW61196   5.114   9.974   3.289 -0.7524 -0.0868  0.0916
47735SOL    HW161197   5.130   9.933   3.204  1.3738  0.2557  0.2650
47735SOL    HW261198   5.036   9.931   3.323 -1.6684 -0.2162 -2.0258
47736SOL     OW61199  11.566  11.044   3.270  0.1533 -0.2759  0.1344
47736SOL    HW161200  11.561  11.075   3.180  2.7106  0.1908  0.0642
47736SOL    HW261201  11.475  11.035   3.298 -0.7110 -0.3914 -2.4502
47737SOL     OW61202   3.254   5.109   5.587  0.1303 -0.3762 -0.4229
47737SOL    HW161203   3.325   5.105   5.523  0.8009  1.9159  0.0708
47737SOL    HW261204   3.209   5.192   5.568 -1.2979 -0.9140  0.4275
47738SOL     OW61205   1.589  12.479   6.067  0.7122 -0.2109  0.8053
47738SOL    HW161206   1.579  12.572   6.088 -1.9967 -0.6866  2.0549
47738SOL    HW261207   1.505  12.441   6.089  0.9427 -2.5978 -1.9363
47739SOL     OW61208  12.054   3.090   3.307  0.2169  0.2578 -0.3161
47739SOL    HW161209  12.140   3.125   3.331  0.8126 -0.3490 -1.5332
47739SOL    HW261210  12.058   3.077   3.213 -1.3792  0.6377 -0.4707
47740SOL     OW61211   8.180  11.442   8.131 -0.2240  0.4967  0.0061
47740SOL    HW161212   8.231  11.510   8.174  0.7949 -0.7568  0.8916
47740SOL    HW261213   8.149  11.387   8.202 -0.5301 -0.2834 -0.7111
47741SOL     OW61214   3.774  10.491   5.680  0.2949  0.2204  0.0709
47741SOL    HW161215   3.693  10.531   5.647 -0.2387  0.0136  1.0903
47741SOL    HW261216   3.817  10.562   5.727  1.6886  0.8828 -2.0594
47742SOL     OW61217  12.245   2.217   8.551  0.0548 -0.4141  0.0096
47742SOL    HW161218  12.335   2.237   8.574  0.2265 -1.2694  0.1326
47742SOL    HW261219  12.238   2.238   8.458  0.7509 -1.5084 -0.3116
47743SOL     OW61220  13.731   4.315   1.985  0.6451  0.0820  0.1042
47743SOL    HW161221  13.736   4.301   2.079 -0.6080  1.3953  0.3953
47743SOL    HW261222  13.717   4.227   1.948  2.1498 -0.5829  1.0100
47744SOL     OW61223  11.668   1.096  10.045  0.2908 -0.8095 -0.3484
47744SOL    HW161224  11.696   1.004  10.044  1.8978 -0.3656 -0.1594
47744SOL    HW261225  11.638   1.111  10.135  2.5028 -0.5182  0.4084
47745SOL     OW61226  12.306   0.473  13.765 -0.7111 -0.1574  0.3947
47745SOL    HW161227  12.323   0.545  13.826  0.3306 -0.2425  0.2157
47745SOL    HW261228  12.259   0.408  13.817  1.8186 -1.0715  1.6611
47746SOL     OW61229  11.109  10.684   2.205  0.2812 -0.4962  0.2656
47746SOL    HW161230  11.140  10.667   2.294  0.1877 -0.9585  0.2157
47746SOL    HW261231  11.074  10.773   2.208  0.1702 -0.5509  0.7223
47747SOL     OW61232  11.121  11.528  11.762  1.2245  0.8015 -0.4567
47747SOL    HW161233  11.054  11.467  11.730  0.0242  1.0836  1.4031
47747SOL    HW261234  11.162  11.562  11.682 -0.0983 -0.2048 -1.6137
47748SOL     OW61235  10.355   8.371  14.042 -0.1495 -0.1400 -0.3351
47748SOL    HW161236  10.408   8.297  14.010 -2.6948 -1.9444 -0.7091
47748SOL    HW261237  10.350   8.358  14.136 -0.0674 -0.0864 -0.3232
47749SOL     OW61238  11.603  11.023   6.393 -0.3461 -0.7800 -0.0982
47749SOL    HW161239  11.654  11.033   6.313  0.9138 -0.6341  0.6905
47749SOL    HW261240  11.553  11.104   6.401 -1.2803 -1.2050 -1.2405
47750SOL     OW61241  11.628   7.308   9.792 -0.1152  0.0105  0.3118
47750SOL    HW161242  11.643   7.262   9.874  0.0518  0.0871  0.3238
47750SOL    HW261243  11.638   7.241   9.724 -1.9142 -0.4451  0.4370
47751SOL     OW61244   6.172   4.337   6.695 -0.1611 -0.1148 -0.6919
47751SOL    HW161245   6.150   4.333   6.602 -0.2363 -0.4160 -0.6624
47751SOL    HW261246   6.153   4.427   6.720  0.0494  0.0241 -1.0152
47752SOL     OW61247   4.983  13.379   7.680  0.4139 -0.1500 -0.4612
47752SOL    HW161248   5.051  13.432   7.722 -0.4022  0.1470  0.5357
47752SOL    HW261249   4.983  13.297   7.729  0.2454 -0.2594 -0.6418
47753SOL     OW61250   1.506   0.775   8.951 -0.1213 -0.1850 -0.4393
47753SOL    HW161251   1.482   0.687   8.980 -1.9374 -0.1744 -1.7631
47753SOL    HW261252   1.498   0.773   8.856  3.4051  0.4318 -0.8884
47754SOL     OW61253   5.097   4.313  11.275 -0.6245  0.8224 -0.0777
47754SOL    HW161254   5.011   4.346  11.251 -0.3259  1.0669 -0.8449
47754SOL    HW261255   5.157   4.383  11.250 -0.0758  0.1073 -0.8070
47755SOL     OW61256   5.825   6.437  13.241  0.1314  0.7632 -0.5725
47755SOL    HW161257   5.906   6.432  13.191  0.4568  0.6937 -0.0420
47755SOL    HW261258   5.783   6.352  13.226 -0.6731  1.3946 -2.2122
47756SOL     OW61259  10.124   2.954   8.092  0.1389  0.1926  0.2223
47756SOL    HW161260  10.115   3.049   8.082 -1.3161 -0.0386 -0.9381
47756SOL    HW261261  10.156   2.924   8.007 -1.0295 -0.5211  0.0148
47757SOL     OW61262  13.965   5.322   7.882 -0.0320 -0.3686 -0.0088
47757SOL    HW161263  14.001   5.241   7.917  1.1887  0.4257  0.6377
47757SOL    HW261264  14.040   5.367   7.842  0.0884  1.8941  2.4415
47758SOL     OW61265   9.348   2.413   9.287 -0.4431 -0.2674 -0.5010
47758SOL    HW161266   9.330   2.459   9.205 -0.9482 -0.0940 -0.2951
47758SOL    HW261267   9.357   2.482   9.352 -0.3255 -0.4191 -0.3553
47759SOL     OW61268   1.982   1.581  10.566 -0.2891  0.3514 -0.1035
47759SOL    HW161269   2.027   1.513  10.516 -0.5342  0.4728 -0.4995
47759SOL    HW261270   1.935   1.632  10.500  0.4213  1.3145  0.1156
47760SOL     OW61271  11.926   8.139   3.678  0.5096 -0.3089  0.7016
47760SOL    HW161272  11.939   8.050   3.709  1.7949  0.0670  1.2872
47760SOL    HW261273  11.970   8.194   3.743  1.0818  0.6521 -0.4635
47761SOL     OW61274   0.453   7.020   6.886  0.4179  0.1973  0.4218
47761SOL    HW161275   0.548   7.008   6.887  0.5593  0.9217 -1.2837
47761SOL    HW261276   0.440   7.110   6.914  0.3683  0.6549 -1.0248
47762SOL     OW61277   2.193   0.116   7.803 -0.0335 -0.3356  0.1748
47762SOL    HW161278   2.285   0.101   7.824  0.2378  3.4019  2.7023
47762SOL    HW261279   2.194   0.193   7.746 -1.5942 -0.0918  0.4385
47763SOL     OW61280   7.384   7.042   2.353  0.1225 -0.2286 -0.1143
47763SOL    HW161281   7.398   7.133   2.325  1.0209 -0.2785  0.1443
47763SOL    HW261282   7.321   7.008   2.290 -1.5772  1.0628  0.8059
47764SOL     OW61283  13.368  10.089  11.013  0.0032  0.4284  0.2964
47764SOL    HW161284  13.410  10.055  11.092 -0.3439  1.0806  0.7663
47764SOL    HW261285  13.324  10.169  11.042  1.1726  1.5355 -0.8777
47765SOL     OW61286   0.775   0.983  10.225  0.6318  0.4146 -0.0823
47765SOL    HW161287   0.806   0.897  10.253  1.4504  0.0425 -1.9718
47765SOL    HW261288   0.763   1.032  10.306  2.8257 -0.6000  0.9403
47766SOL     OW61289   3.209  12.128   2.140 -0.1914  0.4022 -0.6739
47766SOL    HW161290   3.120  12.163   2.142 -0.9807 -1.5117 -0.6692
47766SOL    HW261291   3.198  12.035   2.122  1.6702 -0.3430  1.6341
47767SOL     OW61292  12.188   4.788  12.913  0.0919  0.3966  0.2778
47767SOL    HW161293  12.248   4.777  12.839  0.1030 -1.0165  0.4698
47767SOL    HW261294  12.106   4.817  12.874  0.7085  1.7907 -0.0468
47768SOL     OW61295   3.751   3.270  11.841  0.0475 -0.1480 -0.1660
47768SOL    HW161296   3.795   3.282  11.926  0.0875  0.3788 -0.2585
47768SOL    HW261297   3.658   3.262  11.864 -0.2948  2.7425 -0.2484
47769SOL     OW61298   5.424   6.596   2.473  0.4285  0.0001 -0.5947
47769SOL    HW161299   5.336   6.560   2.468  0.1763  0.1868  1.5198
47769SOL    HW261300   5.478   6.536   2.421 -0.7379 -0.8048 -0.9051
47770SOL     OW61301   0.019   4.938   4.760  0.0002 -0.0700 -0.3737
47770SOL    HW161302   0.069   4.864   4.792 -1.2346 -0.4405  0.8055
47770SOL    HW261303   0.043   4.946   4.668  0.6489 -1.5136 -0.3463
47771SOL     OW61304   0.523  13.624   9.874  0.2531  0.4611  0.2504
47771SOL    HW161305   0.613  13.593   9.880  0.2608  0.7450  1.8441
47771SOL    HW261306   0.485  13.572   9.803  1.8754  0.9002 -1.0079
47772SOL     OW61307   9.995   9.947   3.625  0.0160 -0.2533 -0.3036
47772SOL    HW161308  10.025   9.974   3.538  1.9577  1.8902  0.9193
47772SOL    HW261309  10.015   9.853   3.629  0.3340 -0.2952 -1.9696
47773SOL     OW61310   6.477  13.353   6.637 -0.2680  0.1295 -0.4791
47773SOL    HW161311   6.539  13.391   6.699  0.3271 -0.1697 -0.8912
47773SOL    HW261312   6.445  13.274   6.681 -1.5954  1.1146  0.4311
47774SOL     OW61313   3.566  10.120   0.580  0.0345  0.3427  0.0631
47774SOL    HW161314   3.643  10.093   0.532  0.2258  1.5984 -0.3743
47774SOL    HW261315   3.596  10.191   0.637 -1.0972  2.1006 -1.4065
47775SOL     OW61316  10.585   8.234   3.684 -0.0114 -0.3322  0.0726
47775SOL    HW161317  10.642   8.302   3.722 -0.4875  0.4394 -0.5674
47775SOL    HW261318  10.511   8.227   3.745 -0.7460  0.8616 -0.6581
47776SOL     OW61319  12.648  12.143  13.877 -0.2109  0.3500  0.3475
47776SOL    HW161320  12.613  12.191  13.953  0.3294  1.0393  0.1732
47776SOL    HW261321  12.696  12.069  13.916 -0.3205  0.4402  0.6582
47777SOL     OW61322   4.607   8.423  12.535  0.4131 -0.3717 -0.2294
47777SOL    HW161323   4.611   8.504  12.586  1.7911  0.8780 -2.1877
47777SOL    HW261324   4.550   8.443  12.461  3.1292 -0.0597 -2.3986
47778SOL     OW61325  13.537  13.546  13.215  0.1884  0.0972  0.1558
47778SOL    HW161326  13.607  13.588  13.166  1.5574 -1.0397  1.0746
47778SOL    HW261327  13.570  13.459  13.236 -2.3261 -1.3037 -1.1769
47779SOL     OW61328   0.861   6.993  11.339  0.0241 -0.6548 -0.1282
47779SOL    HW161329   0.920   6.982  11.413  0.4664 -0.3142 -0.4227
47779SOL    HW261330   0.793   7.053  11.370  0.1628 -0.5788  0.0218
47780SOL     OW61331   6.214   7.996   6.467  0.2185 -0.2816 -0.2449
47780SOL    HW161332   6.219   7.900   6.462 -0.8526 -0.4418  1.1205
47780SOL    HW261333   6.283   8.027   6.409  0.9242 -1.8846 -0.3051
47781SOL     OW61334   0.252  12.508   0.212 -0.3110 -0.1401 -0.1340
47781SOL    HW161335   0.322  12.446   0.188 -0.4031 -0.2638 -0.0859
47781SOL    HW261336   0.296  12.593   0.216 -0.6325  0.2158 -2.5985
47782SOL     OW61337   0.169   9.676   0.293  0.4582 -0.1128 -0.6164
47782SOL    HW161338   0.172   9.736   0.368  0.0621  0.9586 -1.4358
47782SOL    HW261339   0.257   9.637   0.291 -0.1507 -1.8730  1.7120
47783SOL     OW61340   2.802   4.128  10.218 -0.8347  0.2211 -0.1450
47783SOL    HW161341   2.748   4.199  10.183 -1.6380  0.1744  0.9393
47783SOL    HW261342   2.839   4.163  10.299  1.0006  0.3313 -0.9877
47784SOL     OW61343   8.050   0.397   5.536  0.0077 -0.2441  0.0389
47784SOL    HW161344   8.082   0.484   5.563 -0.5702 -0.2463  0.7697
47784SOL    HW261345   8.102   0.336   5.589  0.1989 -0.3385 -0.2532
47785SOL     OW61346   8.955   2.326  12.373  0.8828 -0.3607 -0.2351
47785SOL    HW161347   8.877   2.282  12.408  1.0512 -0.5328 -0.0758
47785SOL    HW261348   8.984   2.384  12.444  0.7031 -0.0449 -0.4178
47786SOL     OW61349  10.035   8.304   1.568  0.4145 -0.6987 -0.1513
47786SOL    HW161350   9.995   8.232   1.617  0.1167 -2.1277 -2.3211
47786SOL    HW261351   9.977   8.316   1.493  2.0316 -0.2033 -1.3705
47787SOL     OW61352  14.058   4.421   4.098 -0.1623 -0.0132  0.2006
47787SOL    HW161353  14.043   4.387   4.187  0.7493  0.3431  0.5008
47787SOL    HW261354  14.038   4.347   4.041  1.7342 -1.0938  0.8462
47788SOL     OW61355   3.981  11.945   3.796 -0.4792  0.2314  0.1780
47788SOL    HW161356   3.938  11.873   3.842 -0.5661 -0.4968 -0.9848
47788SOL    HW261357   3.953  12.024   3.842 -2.2391 -0.3101  0.0934
47789SOL     OW61358  12.670   3.253   2.200  0.2711 -0.7813  0.0647
47789SOL    HW161359  12.667   3.161   2.172  1.4306 -0.4687 -1.1833
47789SOL    HW261360  12.762   3.277   2.193 -0.1978  0.8876 -1.0021
47790SOL     OW61361   2.900   8.990   1.899 -0.4154  0.1585 -0.5198
47790SOL    HW161362   2.863   8.953   1.980 -0.6377  2.7996  0.6926
47790SOL    HW261363   2.875   8.928   1.831 -1.0306 -1.6986  1.2784
47791SOL     OW61364   1.712  13.491   6.701 -0.0012  0.5822 -0.1041
47791SOL    HW161365   1.664  13.521   6.623 -1.1213 -1.5737 -0.3228
47791SOL    HW261366   1.647  13.444   6.752  2.0085 -3.8021 -1.1255
47792SOL     OW61367  10.898   1.450   8.212 -0.3329  0.4513  0.3194
47792SOL    HW161368  10.930   1.472   8.300  0.1929 -0.5926  0.3956
47792SOL    HW261369  10.808   1.481   8.212 -1.0697 -1.4418  2.0024
47793SOL     OW61370  13.094   1.537   7.279 -0.2138 -0.0816  0.0534
47793SOL    HW161371  13.126   1.447   7.289  0.1714  0.1069  0.5609
47793SOL    HW261372  13.069   1.544   7.187 -1.1627 -1.0130  0.2155
47794SOL     OW61373   1.271   2.589   4.730 -0.1613  0.0497  0.0362
47794SOL    HW161374   1.332   2.635   4.672  0.4075 -1.1687 -0.3752
47794SOL    HW261375   1.291   2.623   4.818 -0.2065  1.0399 -0.3277
47795SOL     OW61376   7.389   2.313  10.756 -0.1153  0.0267 -0.1764
47795SOL    HW161377   7.459   2.301  10.820  0.6796  0.1897 -0.9890
47795SOL    HW261378   7.317   2.258  10.788  0.3124 -0.0142  0.7602
47796SOL     OW61379  11.821   7.024   4.274 -0.2136 -0.1011  0.0084
47796SOL    HW161380  11.905   6.980   4.261  0.1069  0.4942 -0.0130
47796SOL    HW261381  11.845   7.112   4.304 -0.7977  0.3576 -0.8163
47797SOL     OW61382   6.261   0.220  11.110 -0.0738 -0.0480 -0.3504
47797SOL    HW161383   6.305   0.296  11.072 -1.3777  0.4223 -0.9636
47797SOL    HW261384   6.225   0.173  11.035 -2.0528  0.4974  0.1995
47798SOL     OW61385   6.985   6.981  11.250 -0.1416 -0.1457  0.4774
47798SOL    HW161386   6.908   7.025  11.285 -0.6895  0.2185 -1.1171
47798SOL    HW261387   6.951   6.906  11.202  0.3232  0.8857 -1.5625
47799SOL     OW61388   2.680   8.183   2.958 -0.4145  0.2085  0.1660
47799SOL    HW161389   2.671   8.116   2.890 -1.1257 -1.9234  2.2308
47799SOL    HW261390   2.614   8.249   2.935 -0.9617 -0.6956 -0.9460
47800SOL     OW61391   1.044   8.988  12.589  0.3830 -0.1069  0.1083
47800SOL    HW161392   0.972   8.967  12.648 -0.7890  0.3354 -1.1368
47800SOL    HW261393   1.011   9.060  12.536  1.3497 -0.6186 -1.2215
47801SOL     OW61394  10.310   6.505  11.349  0.0609 -0.7138  0.0333
47801SOL    HW161395  10.344   6.585  11.390 -0.5731 -0.1485 -0.5260
47801SOL    HW261396  10.245   6.536  11.286  0.7115 -1.5949 -1.1141
47802SOL     OW61397   7.221  13.824   8.320  0.0901 -0.6275 -0.5183
47802SOL    HW161398   7.189  13.866   8.399  0.3991  2.2165 -1.7698
47802SOL    HW261399   7.272  13.750   8.351 -1.4619 -0.8279  1.8143
47803SOL     OW61400   2.034   9.677   3.116  0.2817 -0.3868 -0.5501
47803SOL    HW161401   2.028   9.605   3.053 -0.6209 -1.1818  0.3919
47803SOL    HW261402   2.112   9.657   3.168  2.5318  1.6045 -2.9167
47804SOL     OW61403   7.833   1.836   4.793  0.0843  0.3526 -0.2868
47804SOL    HW161404   7.904   1.900   4.788 -1.2089  2.1610  2.2275
47804SOL    HW261405   7.768   1.877   4.849 -0.8958 -3.1413  1.4489
47805SOL     OW61406   2.897   8.410   5.391 -0.2188  0.1388 -0.2775
47805SOL    HW161407   2.842   8.340   5.424 -0.0501 -0.9835 -2.2085
47805SOL    HW261408   2.968   8.365   5.345  0.7320  1.5730 -0.2735
47806SOL     OW61409   9.063   4.190  11.797  0.1809 -0.8489 -0.0758
47806SOL    HW161410   8.974   4.214  11.823  0.3293 -0.6523  0.2470
47806SOL    HW261411   9.080   4.107  11.841  0.4774 -0.4560  0.5696
47807SOL     OW61412   9.826   3.522  11.397 -0.2271 -0.1950  0.7583
47807SOL    HW161413   9.911   3.477  11.394 -0.2014 -0.1373  0.5785
47807SOL    HW261414   9.825   3.566  11.482  1.0574  1.9766 -0.2532
47808SOL     OW61415  11.473   4.270   0.680 -0.3861 -0.1118 -0.4390
47808SOL    HW161416  11.555   4.265   0.730 -0.6759 -1.9974 -0.0640
47808SOL    HW261417  11.484   4.206   0.610 -1.7990 -0.9835  0.0803
47809SOL     OW61418   5.507   9.881   9.452 -0.1534  0.2363 -0.0420
47809SOL    HW161419   5.501   9.972   9.484 -1.5961 -0.2636  1.2726
47809SOL    HW261420   5.528   9.830   9.530 -1.2444 -0.7495 -0.3607
47810SOL     OW61421   9.588   0.053   9.724  0.0860  0.0045 -0.1554
47810SOL    HW161422   9.563  -0.038   9.740 -3.3246  0.9831  0.8997
47810SOL    HW261423   9.556   0.071   9.636  1.4267  0.0378 -0.6621
47811SOL     OW61424   2.094  11.369   0.385 -0.3352  0.4179 -0.4068
47811SOL    HW161425   2.090  11.298   0.449 -0.0403  0.5789 -0.2112
47811SOL    HW261426   2.187  11.384   0.371 -0.3545 -0.6485 -2.0119
47812SOL     OW61427   1.467  10.924  12.145  0.1502 -0.3038  0.2140
47812SOL    HW161428   1.454  10.886  12.058 -3.1892  2.1702 -0.6233
47812SOL    HW261429   1.423  10.863  12.205 -0.7900 -0.2618 -0.4057
47813SOL     OW61430   3.815  13.694  13.868 -0.3342  0.8595 -0.0872
47813SOL    HW161431   3.831  13.599  13.868 -2.1209  0.5258  0.7124
47813SOL    HW261432   3.834  13.721  13.958 -0.6722  1.1141 -0.0950
47814SOL     OW61433  11.516   0.632  12.871  0.0636  0.0790 -0.1998
47814SOL    HW161434  11.441   0.598  12.921 -0.8176  1.6420 -0.3770
47814SOL    HW261435  11.591   0.619  12.929 -0.4555 -0.8760  0.2801
47815SOL     OW61436   8.422   2.926   8.487 -0.5165 -0.3919 -0.3025
47815SOL    HW161437   8.423   2.964   8.398 -0.3786  0.1879 -0.0594
47815SOL    HW261438   8.399   2.999   8.544  1.4000 -0.2463  0.3697
47816SOL     OW61439   7.436  11.890   5.730 -0.0302 -0.4643 -0.4472
47816SOL    HW161440   7.381  11.925   5.659  0.5377 -0.2017 -0.7619
47816SOL    HW261441   7.499  11.834   5.686 -0.4930 -1.3529 -0.0104
47817SOL     OW61442   9.777  13.135  10.562 -0.0449  0.5265  0.0099
47817SOL    HW161443   9.688  13.115  10.590 -0.1027  1.2228  0.3579
47817SOL    HW261444   9.766  13.179  10.477 -0.0173  0.3581 -0.0793
47818SOL     OW61445   0.353  11.582   7.001 -0.8073  0.2104  0.1122
47818SOL    HW161446   0.263  11.553   7.016 -0.6255  0.7311  2.7947
47818SOL    HW261447   0.403  11.501   6.993 -1.5276 -0.0801 -1.7937
47819SOL     OW61448   5.827   0.748   4.157 -0.1184  0.6389  0.3134
47819SOL    HW161449   5.893   0.748   4.226  1.3688 -1.1327 -1.0047
47819SOL    HW261450   5.744   0.735   4.202  0.8414 -0.7816  1.7492
47820SOL     OW61451   4.251  10.063   0.210 -0.5276 -0.2354 -0.0215
47820SOL    HW161452   4.316  10.078   0.141 -1.9957 -0.4101 -1.5049
47820SOL    HW261453   4.167  10.066   0.165 -1.5290 -0.7309  1.7167
47821SOL     OW61454   1.979   8.800   6.338 -0.6360  0.2857 -0.6134
47821SOL    HW161455   2.024   8.882   6.355  0.2585 -0.4461  0.8265
47821SOL    HW261456   2.048   8.739   6.313 -0.3858 -1.2540  3.0439
47822SOL     OW61457   7.191   6.475   2.278  0.0965 -0.3929  0.0257
47822SOL    HW161458   7.105   6.444   2.306 -0.3814  1.0624  0.2804
47822SOL    HW261459   7.192   6.568   2.302  0.6653  0.3207 -2.4313
47823SOL     OW61460  12.551  12.672  10.519  0.8123 -0.3040 -0.0113
47823SOL    HW161461  12.499  12.696  10.442 -0.1561 -0.4403  0.5711
47823SOL    HW261462  12.545  12.576  10.523 -0.5269 -0.2100  1.1273
47824SOL     OW61463   8.131   8.923  11.258  0.0240  0.0749 -0.3966
47824SOL    HW161464   8.059   8.908  11.197 -1.1174 -1.4475  1.2193
47824SOL    HW261465   8.134   9.019  11.268 -1.1358  0.2212 -1.2367
47825SOL     OW61466   6.532   3.964   4.731 -0.3555  0.1214  0.5878
47825SOL    HW161467   6.580   3.882   4.720 -0.7803  0.0220 -0.5563
47825SOL    HW261468   6.446   3.938   4.763 -0.8506  0.0266 -0.7779
47826SOL     OW61469   8.482   6.343  13.571 -0.2205  0.6134 -0.4092
47826SOL    HW161470   8.479   6.346  13.666  2.7637  0.9296 -0.2257
47826SOL    HW261471   8.487   6.435  13.544  0.3294  0.4852 -0.7620
47827SOL     OW61472  13.614   2.922   0.012 -0.3326 -0.1525  0.0298
47827SOL    HW161473  13.555   2.856   0.048 -0.3671  0.0597  0.3614
47827SOL    HW261474  13.636   2.889  -0.076  1.0197 -1.4834  0.8317
47828SOL     OW61475   8.819   4.237   9.668  0.5457  0.8931 -0.4919
47828SOL    HW161476   8.815   4.296   9.743 -0.4674 -0.5698  0.6784
47828SOL    HW261477   8.729   4.236   9.635  0.0754 -1.2896  0.6410
47829SOL     OW61478  10.863  10.182   7.946  0.2697  0.0381  0.2641
47829SOL    HW161479  10.889  10.128   8.020  1.7765  0.1491 -0.1647
47829SOL    HW261480  10.936  10.242   7.932 -0.8295  1.3640 -0.0739
47830SOL     OW61481   3.686   9.946   8.740 -0.3090  0.1950  0.5817
47830SOL    HW161482   3.652   9.967   8.827 -2.3876  0.1235 -0.1537
47830SOL    HW261483   3.728   9.861   8.751 -1.2552 -0.1883  1.3412
47831SOL     OW61484   7.646   7.818  11.895 -0.4599 -0.4275  0.1946
47831SOL    HW161485   7.559   7.839  11.930 -0.7049 -2.2376  0.8011
47831SOL    HW261486   7.668   7.893  11.839 -2.3534  0.1285  0.1048
47832SOL     OW61487   6.361   3.606   8.652 -0.2914  0.1265 -0.3841
47832SOL    HW161488   6.337   3.514   8.654  0.4535 -0.1052 -1.1396
47832SOL    HW261489   6.457   3.605   8.648 -0.3151  0.8899 -1.5705
47833SOL     OW61490   4.835  10.120  13.838  0.1369 -0.0714  0.0580
47833SOL    HW161491   4.854  10.188  13.903  0.6317  0.2919 -0.4568
47833SOL    HW261492   4.744  10.097  13.854  0.7657 -1.3224  2.0947
47834SOL     OW61493   2.869   3.172   6.831  0.0816 -0.3054 -0.1058
47834SOL    HW161494   2.835   3.153   6.919  1.0352  0.3447  0.4253
47834SOL    HW261495   2.864   3.089   6.784 -1.1921 -0.4745  0.3023
47835SOL     OW61496   1.869   5.502   9.162 -0.1012  0.4376 -0.4232
47835SOL    HW161497   1.920   5.423   9.183 -0.4296 -0.1536 -1.7617
47835SOL    HW261498   1.781   5.482   9.192  0.1682  1.0051  0.8259
47836SOL     OW61499  12.752   5.703   1.233  0.2813 -0.1879  0.5242
47836SOL    HW161500  12.696   5.769   1.192  0.0660 -1.3344 -1.0865
47836SOL    HW261501  12.732   5.711   1.327  1.2902  2.9556  0.6039
47837SOL     OW61502  12.674   9.283   3.885  0.0854 -0.5838  0.0712
47837SOL    HW161503  12.638   9.272   3.973 -1.5309 -1.3252 -0.6452
47837SOL    HW261504  12.599   9.308   3.831  0.6389 -2.0076 -1.4568
47838SOL     OW61505  12.347   9.598  11.989 -0.1018  0.7549  0.3283
47838SOL    HW161506  12.320   9.684  11.958 -0.3176  0.7985  0.6389
47838SOL    HW261507  12.379   9.553  11.911 -0.4811  0.9292  0.0725
47839SOL     OW61508   0.388  10.380   9.765 -0.1935 -0.1872  0.3046
47839SOL    HW161509   0.448  10.328   9.817  0.5074 -0.3007 -0.5854
47839SOL    HW261510   0.301  10.358   9.798  0.1798 -0.9137  0.8200
47840SOL     OW61511  11.773   5.439   8.949 -0.7409 -0.0222 -0.1459
47840SOL    HW161512  11.803   5.475   9.033 -1.7782  1.1008 -0.2258
47840SOL    HW261513  11.693   5.390   8.971 -1.1027  0.4039 -0.4817
47841SOL     OW61514   1.076  10.041   2.571  0.6319  0.0991 -0.1179
47841SOL    HW161515   1.007  10.087   2.523 -0.2434 -0.2107  0.7949
47841SOL    HW261516   1.048   9.949   2.572  1.5531 -0.2024 -0.5502
47842SOL     OW61517  11.847   9.478   4.731 -0.1196 -0.0826 -0.5466
47842SOL    HW161518  11.784   9.462   4.801  1.2421 -0.3335  0.6562
47842SOL    HW261519  11.899   9.552   4.762  1.5506 -1.2126 -0.5337
47843SOL     OW61520   8.757  13.429  13.209  0.7693  0.2472  0.4825
47843SOL    HW161521   8.769  13.340  13.175 -1.4781  0.9268 -2.5441
47843SOL    HW261522   8.676  13.424  13.261 -1.8014  1.0777 -3.0366
47844SOL     OW61523   2.272  13.469  12.825 -0.4188 -0.6605  0.0670
47844SOL    HW161524   2.289  13.462  12.731  1.8405 -0.5449  0.4108
47844SOL    HW261525   2.303  13.386  12.861  0.8667  0.1803  0.9580
47845SOL     OW61526  10.650   2.530   6.325  0.0621  0.1189  0.4341
47845SOL    HW161527  10.597   2.453   6.345  1.4220 -1.1574 -0.7011
47845SOL    HW261528  10.721   2.498   6.270  1.1239  2.0565  0.5628
47846SOL     OW61529   2.456   6.188  11.115 -0.1263 -0.2265 -0.4758
47846SOL    HW161530   2.477   6.273  11.078  1.2972  0.5450  1.9117
47846SOL    HW261531   2.540   6.151  11.140 -0.9447 -0.6333  1.9673
47847SOL     OW61532  12.051   0.313   3.515  0.1445  0.1353 -0.8240
47847SOL    HW161533  12.086   0.266   3.592  0.0262  1.8986  0.3674
47847SOL    HW261534  11.984   0.255   3.480  2.1027 -1.9879 -1.3356
47848SOL     OW61535   6.439   0.186   3.323 -0.1846  0.8235 -0.2662
47848SOL    HW161536   6.477   0.274   3.330 -1.2130  1.3156 -0.6363
47848SOL    HW261537   6.458   0.158   3.233  0.8881  0.2897  0.1039
47849SOL     OW61538  13.419   8.552   1.922 -0.1069  0.1594 -0.1925
47849SOL    HW161539  13.335   8.527   1.884 -0.3448 -0.0614  0.4572
47849SOL    HW261540  13.428   8.645   1.902 -0.7769  0.3191  0.2182
47850SOL     OW61541   4.970  10.514   8.115  0.0681 -0.1863  0.0563
47850SOL    HW161542   4.880  10.481   8.118 -0.4754  0.9237 -1.7778
47850SOL    HW261543   4.982  10.560   8.197 -0.5905 -1.3880  0.8566
47851SOL     OW61544   3.508   3.901   0.557  0.1921 -0.3223 -0.1770
47851SOL    HW161545   3.504   3.960   0.632 -0.3437 -0.2600 -0.2493
47851SOL    HW261546   3.591   3.922   0.514  0.8542 -0.8523  0.7870
47852SOL     OW61547   5.698   4.045   3.155 -0.3088 -0.1971 -0.4638
47852SOL    HW161548   5.769   4.025   3.094 -0.2289  1.6762 -1.0672
47852SOL    HW261549   5.663   4.129   3.124 -1.6559 -0.2244  0.8458
47853SOL     OW61550   5.179  13.702   5.666 -0.0431 -0.2104  0.7436
47853SOL    HW161551   5.148  13.666   5.749 -0.7021 -0.9662  0.1858
47853SOL    HW261552   5.225  13.630   5.624 -2.6244 -0.9516 -1.0325
47854SOL     OW61553   5.112   2.847   9.720  0.0015 -0.3840 -0.1717
47854SOL    HW161554   5.143   2.930   9.755 -0.7651 -0.1696  0.0281
47854SOL    HW261555   5.172   2.826   9.649  1.2056 -0.5068  0.8458
47855SOL     OW61556   2.545   7.980   2.769  0.0209  0.1517 -0.0460
47855SOL    HW161557   2.567   8.017   2.683 -0.6802 -1.0916 -0.7965
47855SOL    HW261558   2.459   8.015   2.789  0.1909  0.4534  0.1705
47856SOL     OW61559   9.461  10.095   0.425 -0.1281 -0.1239  0.4435
47856SOL    HW161560   9.512  10.030   0.375 -0.0453 -1.3244  2.0062
47856SOL    HW261561   9.411  10.142   0.358 -1.0001 -2.5144 -0.7337
47857SOL     OW61562  11.504   9.073   6.484 -0.5155  0.3332  0.5290
47857SOL    HW161563  11.473   9.132   6.553 -0.3718 -1.1510  1.9160
47857SOL    HW261564  11.518   8.990   6.529 -0.9245 -0.8305 -1.4146
47858SOL     OW61565   8.164  10.191   7.002  0.1851  0.0776 -0.3088
47858SOL    HW161566   8.118  10.137   7.067  1.6076 -1.9128 -0.8519
47858SOL    HW261567   8.164  10.279   7.039  0.4385 -0.8625  2.1024
47859SOL     OW61568   5.127   5.349   0.169 -0.6791  0.2010 -0.2628
47859SOL    HW161569   5.151   5.257   0.156  0.3982  0.6307 -1.5141
47859SOL    HW261570   5.051   5.362   0.113 -0.7484  0.1156 -0.1901
47860SOL     OW61571   4.421   8.606   5.284  0.1848  0.3733 -0.2807
47860SOL    HW161572   4.368   8.680   5.312 -2.1760 -0.8690 -1.1604
47860SOL    HW261573   4.477   8.586   5.359 -2.8057 -0.1134  2.0039
47861SOL     OW61574   8.866   3.103   2.787  0.2234 -0.2877  0.1120
47861SOL    HW161575   8.772   3.104   2.810  0.2636 -0.0503  0.2800
47861SOL    HW261576   8.867   3.119   2.693 -0.0726 -3.9608 -0.6444
47862SOL     OW61577  11.302   2.358   1.841  0.3028  0.3678  0.5515
47862SOL    HW161578  11.314   2.401   1.926 -0.3661 -2.8782  2.4633
47862SOL    HW261579  11.221   2.396   1.807  0.2866  1.3421  1.6030
47863SOL     OW61580   4.091   4.650   3.825 -0.7347  0.2535  0.0438
47863SOL    HW161581   4.020   4.616   3.770 -0.4252  0.5500 -0.5574
47863SOL    HW261582   4.093   4.744   3.807 -0.6093  0.3491  0.5482
47864SOL     OW61583  11.233   2.941  13.222 -0.4174  0.0800 -0.0258
47864SOL    HW161584  11.289   2.863  13.217 -1.8267 -1.0532  0.7609
47864SOL    HW261585  11.269   3.001  13.157  0.1039 -1.6425 -1.4079
47865SOL     OW61586  10.964   3.020  13.189 -0.0961  0.3769 -0.2177
47865SOL    HW161587  10.976   3.115  13.199  0.8871  0.7009 -3.4025
47865SOL    HW261588  11.050   2.983  13.208  0.3498  0.4883 -1.8556
47866SOL     OW61589   1.550  12.122   7.990 -0.2210  0.1926  0.1054
47866SOL    HW161590   1.592  12.157   7.912  1.4810 -0.6402  0.5918
47866SOL    HW261591   1.462  12.161   7.991  0.2024  1.2430 -1.4809
47867SOL     OW61592  10.611  12.295  14.099  0.0751 -0.5549  0.4634
47867SOL    HW161593  10.612  12.383  14.061 -1.0193 -0.9059 -0.4526
47867SOL    HW261594  10.676  12.298  14.168 -0.2315  1.1061  0.7290
47868SOL     OW61595   4.015   0.279   9.132  0.2114  0.6996 -0.0077
47868SOL    HW161596   4.103   0.315   9.120  0.7745 -0.6494 -0.1243
47868SOL    HW261597   3.963   0.317   9.061  1.1268  0.2126 -0.9565
47869SOL     OW61598   2.715   2.307  10.442 -0.1033 -0.7340 -0.2052
47869SOL    HW161599   2.636   2.270  10.479 -1.6300 -0.0332 -2.5106
47869SOL    HW261600   2.751   2.237  10.388  0.4539 -0.8082  0.2528
47870SOL     OW61601   3.434   4.119   1.225 -0.8584 -0.3178 -0.0813
47870SOL    HW161602   3.369   4.056   1.192 -0.6898 -0.8644  0.5866
47870SOL    HW261603   3.517   4.091   1.187 -0.5832 -1.2299  1.0990
47871SOL     OW61604  14.111   1.804   0.997 -0.0386 -0.4048 -0.3611
47871SOL    HW161605  14.164   1.813   1.077 -1.9064  0.7065  0.8249
47871SOL    HW261606  14.040   1.745   1.022 -1.2573  0.8187 -0.8295
47872SOL     OW61607  13.946   5.856  10.885  0.6817 -0.3456 -0.0515
47872SOL    HW161608  13.925   5.907  10.963  1.7367 -0.5718  0.4036
47872SOL    HW261609  13.988   5.919  10.826 -0.2349 -0.1434 -0.5107
47873SOL     OW61610  13.196   4.694  13.324 -0.0655  0.2258 -0.0982
47873SOL    HW161611  13.262   4.763  13.315  0.7971 -0.4252  0.9871
47873SOL    HW261612  13.118   4.740  13.357 -0.5386  1.1708 -2.3229
47874SOL     OW61613  11.345   6.884   5.772 -0.1894 -0.2715 -0.2643
47874SOL    HW161614  11.407   6.901   5.843  0.3098 -1.4794 -0.3772
47874SOL    HW261615  11.400   6.862   5.697 -0.7342 -0.1595 -0.7069
47875SOL     OW61616  12.597   5.270  11.325  0.1557 -0.5035  0.0657
47875SOL    HW161617  12.583   5.273  11.419  0.4195 -1.4812  0.1458
47875SOL    HW261618  12.612   5.361  11.300 -0.2442 -0.1957  0.9104
47876SOL     OW61619   8.728  12.740   5.450 -0.3575  0.9552 -0.1716
47876SOL    HW161620   8.681  12.808   5.401 -1.9004  0.3607  0.4302
47876SOL    HW261621   8.748  12.673   5.385  2.2640  2.4645 -1.0349
47877SOL     OW61622  11.714   5.056   3.685 -0.2241  0.3563 -0.4144
47877SOL    HW161623  11.757   5.095   3.761 -0.1867 -0.4921  0.0043
47877SOL    HW261624  11.702   4.964   3.708 -0.8647  0.2454 -1.1485
47878SOL     OW61625  12.310   5.611   2.786 -0.0449  0.1736  0.1313
47878SOL    HW161626  12.309   5.520   2.755  1.8970  0.2446 -0.2324
47878SOL    HW261627  12.290   5.663   2.707  0.7252  0.1497 -0.0817
47879SOL     OW61628   1.046   1.227   5.601 -0.1576 -0.2155  0.1459
47879SOL    HW161629   1.057   1.151   5.658  0.3106  0.2000  0.6233
47879SOL    HW261630   0.994   1.195   5.527  0.0497 -0.9997  0.3332
47880SOL     OW61631   1.015   5.735   6.485 -0.2392 -0.0399  0.2004
47880SOL    HW161632   1.013   5.691   6.400 -1.6105  1.0611 -0.3799
47880SOL    HW261633   1.106   5.728   6.513  0.1881 -0.6654 -1.2405
47881SOL     OW61634   2.320  11.214  13.896  0.4829  0.2091  0.2179
47881SOL    HW161635   2.353  11.290  13.848 -0.2273  0.2065 -0.3074
47881SOL    HW261636   2.339  11.139  13.839 -1.5797  0.3489 -0.7723
47882SOL     OW61637  11.858   3.333  12.386  0.2358 -0.2788  0.6428
47882SOL    HW161638  11.889   3.281  12.312 -1.5833  0.4277 -0.6875
47882SOL    HW261639  11.801   3.274  12.435 -0.6275 -0.0108 -0.0163
47883SOL     OW61640   5.923   4.456   6.136 -0.2795 -0.2995 -0.3068
47883SOL    HW161641   5.929   4.462   6.040  0.8060 -0.9345 -0.2950
47883SOL    HW261642   5.878   4.372   6.151  1.0210 -1.0151 -0.2606
47884SOL     OW61643   7.815  12.122   4.440 -0.2198 -0.1858  1.0675
47884SOL    HW161644   7.767  12.166   4.511 -0.3288 -0.0520  0.9133
47884SOL    HW261645   7.905  12.150   4.452  0.0874 -1.5943  2.2372
47885SOL     OW61646   1.944   2.851   2.813  0.4127  0.0940 -0.2442
47885SOL    HW161647   1.984   2.782   2.866  2.5125  0.2410 -1.5119
47885SOL    HW261648   1.905   2.803   2.739  1.1527  0.1669 -0.6963
47886SOL     OW61649   6.803   0.494   9.513  0.0538  0.0076  0.4219
47886SOL    HW161650   6.858   0.559   9.470 -0.7258  0.8646  0.7063
47886SOL    HW261651   6.818   0.507   9.606 -0.9747  0.5775  0.5237
47887SOL     OW61652   9.512   7.212   5.550 -0.5119  0.7569  0.2547
47887SOL    HW161653   9.557   7.186   5.630  2.0478  1.6416 -0.7936
47887SOL    HW261654   9.495   7.130   5.504 -0.4687  0.3607  0.9358
47888SOL     OW61655   4.055   9.783   7.959  0.0414  0.1965  0.2468
47888SOL    HW161656   4.125   9.723   7.984  0.4020  0.9862  1.2094
47888SOL    HW261657   4.094   9.840   7.893 -0.9494 -1.9691 -2.4158
47889SOL     OW61658  11.004   7.361  11.076 -0.4248  0.0886 -0.4707
47889SOL    HW161659  10.993   7.367  10.981 -2.1354  1.9259 -0.2251
47889SOL    HW261660  11.053   7.440  11.099  0.9302 -0.8794  0.1001
47890SOL     OW61661  13.373   3.301   0.057 -0.5179 -0.2053 -0.1797
47890SOL    HW161662  13.308   3.279  -0.009 -0.4050 -0.1874 -0.2991
47890SOL    HW261663  13.328   3.359   0.119  0.1122  2.1524 -1.7825
47891SOL     OW61664   2.975   4.130  11.307  0.0418 -0.2364 -0.3412
47891SOL    HW161665   2.899   4.112  11.363  0.0715  0.3693 -0.0927
47891SOL    HW261666   3.049   4.093  11.355 -0.2908 -2.6153 -1.4996
47892SOL     OW61667   6.842   5.108  10.317  0.4087 -0.1894  0.0970
47892SOL    HW161668   6.751   5.080  10.301  1.1702 -2.3755 -0.7755
47892SOL    HW261669   6.839   5.203  10.312 -1.4797 -0.2843 -2.0241
47893SOL     OW61670   2.879   3.024  12.121  0.3125 -0.2155 -0.4307
47893SOL    HW161671   2.842   3.099  12.167  0.3565 -0.3166 -0.2312
47893SOL    HW261672   2.834   3.024  12.036  0.3269  0.0478 -0.4401
47894SOL     OW61673   3.785   0.541   1.520 -0.3220 -0.2518  0.0367
47894SOL    HW161674   3.816   0.615   1.573 -0.0219 -0.1385 -0.2914
47894SOL    HW261675   3.741   0.583   1.446 -0.5119 -0.4075  0.0625
47895SOL     OW61676   6.608  10.983   2.419  0.1908 -0.3855  0.1347
47895SOL    HW161677   6.606  10.961   2.512 -1.2992 -1.0329 -0.0234
47895SOL    HW261678   6.561  10.912   2.376  0.6365  0.0327 -1.0886
47896SOL     OW61679  10.025   1.300  13.054  0.3518 -0.0242  0.0427
47896SOL    HW161680  10.087   1.315  12.982  0.6220  1.5043  0.5516
47896SOL    HW261681  10.080   1.277  13.129 -0.0109 -3.0949 -0.5131
47897SOL     OW61682   7.831   1.571   1.756  0.3609  0.1075 -0.2716
47897SOL    HW161683   7.913   1.546   1.714  1.9997  0.1555  2.6583
47897SOL    HW261684   7.820   1.508   1.827 -2.7232 -0.5042 -1.1346
47898SOL     OW61685  13.148   9.745  13.654 -0.2419 -0.6426 -0.1012
47898SOL    HW161686  13.187   9.763  13.739  1.2668 -0.8393 -0.7158
47898SOL    HW261687  13.078   9.683  13.672 -0.7262  0.2210  1.1270
47899SOL     OW61688  12.881   1.216   6.087 -0.1196 -0.5883  0.5813
47899SOL    HW161689  12.953   1.169   6.129  1.6625 -1.6206 -3.2310
47899SOL    HW261690  12.811   1.152   6.080  0.8584 -1.5478 -1.0114
47900SOL     OW61691   6.761   5.796   2.751  0.0494  0.1508  0.3032
47900SOL    HW161692   6.695   5.820   2.687  1.2671 -0.0935 -1.0929
47900SOL    HW261693   6.833   5.760   2.699  1.7621  1.4393  1.6540
47901SOL     OW61694   8.758   5.778  13.062 -0.2176  0.9158 -0.4093
47901SOL    HW161695   8.713   5.694  13.071 -0.8609  1.5013  2.9687
47901SOL    HW261696   8.851   5.756  13.058 -0.2901  0.0220  1.6886
47902SOL     OW61697   1.100   3.869  10.446  0.0355  0.0557  0.3763
47902SOL    HW161698   1.177   3.818  10.422  2.3879  2.7141  1.6232
47902SOL    HW261699   1.093   3.860  10.541 -0.6595  0.5456  0.3826
47903SOL     OW61700   5.454   0.833   8.354 -0.3408 -0.8107  0.5998
47903SOL    HW161701   5.450   0.759   8.294 -1.0625 -0.2373 -0.0814
47903SOL    HW261702   5.363   0.863   8.363  0.0037  0.4014  0.3227
47904SOL     OW61703   0.737   4.752  11.915  1.2099 -0.0744 -0.1449
47904SOL    HW161704   0.773   4.676  11.960 -1.3773 -1.6379 -0.5382
47904SOL    HW261705   0.667   4.783  11.972  0.4104  0.2781 -1.2871
47905SOL     OW61706  10.177   7.859   3.641 -0.1148 -0.0941  0.3517
47905SOL    HW161707  10.185   7.799   3.715 -0.9834 -1.6218 -0.7237
47905SOL    HW261708  10.255   7.914   3.645 -0.1210 -0.1773  2.3533
47906SOL     OW61709   6.017  10.146   9.302 -0.5664 -0.7006  0.0535
47906SOL    HW161710   6.078  10.074   9.290  1.3003  0.8190 -0.1048
47906SOL    HW261711   6.065  10.224   9.272 -1.7092  0.9008  2.0815
47907SOL     OW61712  13.409   5.779   2.215 -0.8531 -0.6000 -0.3070
47907SOL    HW161713  13.501   5.761   2.235 -0.3535  0.3306 -1.6233
47907SOL    HW261714  13.368   5.693   2.211  0.2217 -1.1031 -0.8928
47908SOL     OW61715   9.332   8.547   9.523 -0.4593  0.1664  0.1037
47908SOL    HW161716   9.272   8.607   9.567  0.9639  0.9629  1.0277
47908SOL    HW261717   9.356   8.484   9.591 -0.6120 -0.4387 -0.3955
47909SOL     OW61718   2.310  12.702  13.435  0.0052  0.1957 -0.2943
47909SOL    HW161719   2.285  12.616  13.402 -3.6509  1.1763 -0.4833
47909SOL    HW261720   2.337  12.751  13.357  0.4291 -0.2359 -0.4246
47910SOL     OW61721  10.661   2.370   7.470  0.4758  0.4764  0.4698
47910SOL    HW161722  10.579   2.412   7.493 -2.5234 -3.8187 -1.1048
47910SOL    HW261723  10.664   2.373   7.375  1.6960 -0.2230  0.4619
47911SOL     OW61724   3.882  11.479   4.394  0.4199  0.0251 -0.5073
47911SOL    HW161725   3.815  11.474   4.462  1.2125 -0.1039  0.3001
47911SOL    HW261726   3.861  11.407   4.334 -0.8981  0.7945 -0.9895
47912SOL     OW61727  10.986   3.000  11.089 -0.1255 -1.0277 -0.8639
47912SOL    HW161728  10.903   3.013  11.043  0.9601  0.3469 -2.5392
47912SOL    HW261729  11.034   2.936  11.036  0.9898  0.2853 -1.4934
47913SOL     OW61730   1.482  12.186  10.004 -0.1405  0.7265  0.4556
47913SOL    HW161731   1.517  12.229   9.926  1.2690 -4.1300 -2.0315
47913SOL    HW261732   1.388  12.181   9.988  0.2946 -1.8585 -2.1838
47914SOL     OW61733   8.389   7.033  13.337 -0.1472  0.9371  0.1217
47914SOL    HW161734   8.397   7.123  13.370 -1.5044  0.4956  1.8034
47914SOL    HW261735   8.436   6.980  13.401 -0.9759  0.2723  0.1949
47915SOL     OW61736   4.441   0.996  11.159 -0.2075 -0.3066 -0.1631
47915SOL    HW161737   4.529   0.958  11.152  0.3315  0.7927  0.3850
47915SOL    HW261738   4.383   0.920  11.162  0.9160 -1.1865  2.1222
47916SOL     OW61739  11.974   9.778   8.422 -0.4387 -0.1800  0.1153
47916SOL    HW161740  12.015   9.727   8.492 -1.3450  0.5325  1.1957
47916SOL    HW261741  11.921   9.714   8.374 -2.0385 -0.2305  1.8153
47917SOL     OW61742   9.665   2.310   0.603  0.3005 -0.3381  0.0156
47917SOL    HW161743   9.588   2.327   0.657  0.1041 -0.7969 -0.1141
47917SOL    HW261744   9.715   2.391   0.606 -0.9415  0.4990 -1.1419
47918SOL     OW61745   6.184  14.156  14.030 -0.1822  0.2477 -0.4767
47918SOL    HW161746   6.098  14.172  13.992  0.3298  0.6630 -1.4798
47918SOL    HW261747   6.247  14.187  13.964  0.7299  0.9286  0.6636
47919SOL     OW61748   9.994   7.008   5.977 -0.2864  0.5762  0.1463
47919SOL    HW161749  10.027   6.973   5.895  1.1664 -0.5186  1.1515
47919SOL    HW261750   9.915   6.956   5.995  1.1134 -1.3938  0.9576
47920SOL     OW61751  12.693  12.523   9.272 -0.2757  0.0835  0.3851
47920SOL    HW161752  12.691  12.432   9.242 -0.5535  0.8486 -2.1742
47920SOL    HW261753  12.780  12.554   9.248 -0.5121  0.7391  0.3503
47921SOL     OW61754   7.644   7.357   0.716  0.5372  0.0239 -0.2907
47921SOL    HW161755   7.636   7.443   0.673 -1.1295  0.6496  1.1289
47921SOL    HW261756   7.728   7.361   0.761  0.3245  1.0964  0.0571
47922SOL     OW61757  12.094   0.350   2.833  0.4907  0.6373  0.0772
47922SOL    HW161758  12.065   0.441   2.837  0.9935  0.8345 -0.7134
47922SOL    HW261759  12.016   0.299   2.858 -0.0371  1.2373 -0.3307
47923SOL     OW61760  11.133  12.852   5.432  0.0503  0.4396 -0.1256
47923SOL    HW161761  11.206  12.831   5.374  0.5924  0.4373  0.5412
47923SOL    HW261762  11.175  12.876   5.515 -0.7296 -0.4950  0.5639
47924SOL     OW61763   9.521   4.157   4.395  0.2400  0.1251 -0.5454
47924SOL    HW161764   9.501   4.159   4.488 -2.2393 -1.2031 -0.9764
47924SOL    HW261765   9.495   4.243   4.362 -0.9340 -0.1632 -0.3802
47925SOL     OW61766   2.802  10.520  10.657  0.1241 -0.3413  0.2994
47925SOL    HW161767   2.708  10.521  10.638  0.2889 -2.4907 -0.8720
47925SOL    HW261768   2.808  10.549  10.748 -1.9578 -2.7575  1.3232
47926SOL     OW61769  11.545  13.579   3.416  0.1210 -0.2207 -0.3592
47926SOL    HW161770  11.604  13.504   3.412  0.4579  0.0796 -1.0970
47926SOL    HW261771  11.596  13.651   3.380 -0.6194  0.0939 -0.7952
47927SOL     OW61772   8.333   7.753   8.061  0.2532 -0.4974 -0.1954
47927SOL    HW161773   8.255   7.751   8.005 -0.1392 -1.3964  0.3548
47927SOL    HW261774   8.319   7.827   8.119  0.3233  0.0049 -0.8122
47928SOL     OW61775   1.954   1.190   4.694  0.0973  0.4126  0.0583
47928SOL    HW161776   1.876   1.139   4.674  0.0344  0.8701 -0.9568
47928SOL    HW261777   2.027   1.132   4.669  0.0360  1.8870 -4.4067
47929SOL     OW61778  11.489   6.141   7.383 -0.0352 -0.5231 -0.2803
47929SOL    HW161779  11.562   6.136   7.444 -1.7762 -0.4606  1.9334
47929SOL    HW261780  11.530   6.153   7.297  2.5157 -0.5550  0.8508
47930SOL     OW61781  13.815   9.124   5.717  0.0161 -0.0839  0.1128
47930SOL    HW161782  13.730   9.081   5.726 -0.8965  1.5084 -0.5191
47930SOL    HW261783  13.858   9.077   5.646 -0.0215 -1.3341  0.8779
47931SOL     OW61784  10.493   3.332  11.709  0.2559  0.5325 -0.3377
47931SOL    HW161785  10.470   3.380  11.789 -2.1741 -1.2716  0.1641
47931SOL    HW261786  10.409   3.305  11.672  1.4247 -2.9954 -0.7645
47932SOL     OW61787   2.161   8.218  10.219 -0.6112 -0.5220 -0.4644
47932SOL    HW161788   2.228   8.150  10.224 -0.6843 -0.5339  0.5994
47932SOL    HW261789   2.190   8.275  10.148 -0.0890 -1.1701 -0.7856
47933SOL     OW61790  13.086  13.169   1.314 -0.2342  0.2102  0.1415
47933SOL    HW161791  13.148  13.097   1.324 -0.0019  0.4091  0.1609
47933SOL    HW261792  13.051  13.160   1.226 -0.1000  0.1557  0.0940
47934SOL     OW61793  11.365   2.038   1.994  0.0846  0.5685  0.3263
47934SOL    HW161794  11.451   2.075   1.974  1.0733 -1.1037  1.3029
47934SOL    HW261795  11.309   2.067   1.921  1.2298  2.3951  0.1202
47935SOL     OW61796   3.017   0.460   0.774 -0.4796  0.1420  0.0133
47935SOL    HW161797   3.017   0.511   0.855 -1.7456  0.3850 -0.1201
47935SOL    HW261798   2.962   0.511   0.714 -1.0653 -0.9574 -0.3953
47936SOL     OW61799   4.383   9.757  10.872  0.0996 -0.2373  0.2645
47936SOL    HW161800   4.433   9.782  10.950  1.5039  1.7564 -1.1909
47936SOL    HW261801   4.400   9.663  10.863  0.1069 -0.4761  2.1633
47937SOL     OW61802  12.568   7.993   7.693 -0.5269  0.2042 -0.3099
47937SOL    HW161803  12.560   8.084   7.720 -0.4279  0.0573  0.2157
47937SOL    HW261804  12.656   7.968   7.721 -0.9076 -0.3410  0.4168
47938SOL     OW61805   5.862   3.552   9.265  0.0293  0.3284  0.1103
47938SOL    HW161806   5.947   3.546   9.309  0.9229  0.3292 -1.4959
47938SOL    HW261807   5.803   3.590   9.330  1.5216  1.3426  0.9411
47939SOL     OW61808   9.658  13.799  10.634 -0.0262 -0.1226  0.0994
47939SOL    HW161809   9.638  13.870  10.696  1.6299  0.9891 -0.5763
47939SOL    HW261810   9.574  13.754  10.623 -1.1043  1.5883  0.7351
47940SOL     OW61811   2.028  11.424  12.858 -0.1638 -0.6033 -0.3454
47940SOL    HW161812   1.990  11.355  12.912 -1.2990 -0.2874 -0.7155
47940SOL    HW261813   1.953  11.475  12.827  0.6792  1.5356  0.8779
47941SOL     OW61814   2.040   8.879   4.607 -0.2427 -0.3448 -0.6945
47941SOL    HW161815   2.068   8.797   4.647 -2.3983 -0.0911  1.5560
47941SOL    HW261816   2.083   8.947   4.660 -1.6968 -0.0252  0.1283
47942SOL     OW61817   0.571  13.825  10.536  0.6516 -0.4256 -0.1568
47942SOL    HW161818   0.633  13.898  10.537  0.7840 -0.3753  3.9497
47942SOL    HW261819   0.487  13.866  10.517  0.6571  1.0596  2.4621
47943SOL     OW61820   5.149   9.552   6.846  0.2630 -0.1774 -0.0280
47943SOL    HW161821   5.134   9.550   6.751  0.5295  1.9880 -0.1678
47943SOL    HW261822   5.099   9.477   6.880  0.9035 -1.5501 -1.9421
47944SOL     OW61823  12.698   6.789   5.432 -0.5121 -0.5357 -0.2355
47944SOL    HW161824  12.630   6.734   5.469 -0.7777 -0.2240 -0.2587
47944SOL    HW261825  12.679   6.877   5.465  0.2236 -0.5490  0.2455
47945SOL     OW61826  10.939   7.382   9.582 -0.3037 -0.1982 -0.2945
47945SOL    HW161827  10.921   7.434   9.660  4.8395  1.3912  0.2310
47945SOL    HW261828  10.913   7.439   9.509 -1.3255  0.0167  0.2180
47946SOL     OW61829   0.514  12.089   9.223 -0.8847  1.0260 -0.1381
47946SOL    HW161830   0.604  12.117   9.210 -0.7825  2.0623  2.1918
47946SOL    HW261831   0.520  12.017   9.286 -1.6398  0.5429 -0.6066
47947SOL     OW61832   3.268  12.347   0.637  0.1538  0.3258  0.1649
47947SOL    HW161833   3.173  12.351   0.647  0.2811  1.6997  1.1131
47947SOL    HW261834   3.281  12.297   0.557 -1.3068 -1.2955  0.8538
47948SOL     OW61835  11.701   7.597   0.241 -0.4229  0.3823  0.3123
47948SOL    HW161836  11.662   7.684   0.246 -0.0801  0.4520  2.6766
47948SOL    HW261837  11.790   7.609   0.274 -0.3645 -0.8586  0.6420
47949SOL     OW61838  11.099   5.661   1.250  0.0897  0.2841 -0.6635
47949SOL    HW161839  11.071   5.628   1.164  0.7602 -2.6767  0.1248
47949SOL    HW261840  11.193   5.639   1.254 -0.2967 -1.2893  1.4440
47950SOL     OW61841   5.397  13.096   3.736 -0.0027  0.4816  0.3979
47950SOL    HW161842   5.358  13.057   3.658  0.5183  1.1229 -0.1989
47950SOL    HW261843   5.345  13.063   3.809 -0.8086  0.2672 -0.2649
47951SOL     OW61844  12.874  13.520  13.580  0.2775  0.3288  0.1583
47951SOL    HW161845  12.958  13.565  13.572  0.9531 -0.8954  0.0813
47951SOL    HW261846  12.841  13.515  13.490  0.6622 -0.1461  0.0349
47952SOL     OW61847   4.676   0.084   3.612  0.2727 -0.0790 -0.3082
47952SOL    HW161848   4.642   0.015   3.555  0.0248  1.2029 -1.7941
47952SOL    HW261849   4.598   0.120   3.654  0.3881 -0.5905  0.3626
47953SOL     OW61850   1.527  13.794  13.680  0.3886 -0.5202  0.1715
47953SOL    HW161851   1.573  13.846  13.745  1.0514 -1.0571  0.1470
47953SOL    HW261852   1.458  13.748  13.730 -1.3829  1.6957 -0.0934
47954SOL     OW61853   5.129   7.316   5.037 -0.3802 -0.0922  0.3184
47954SOL    HW161854   5.133   7.404   5.075  0.4654  0.3044 -0.6607
47954SOL    HW261855   5.049   7.278   5.075 -1.3436  1.4754 -0.0470
47955SOL     OW61856   1.951   0.763  11.181 -0.3887 -0.0326 -0.7694
47955SOL    HW161857   1.972   0.731  11.269 -0.6008  0.0524 -0.6879
47955SOL    HW261858   1.895   0.696  11.143 -0.9692  0.3123 -0.5386
47956SOL     OW61859   8.855   3.912   1.825 -0.1346  0.2431 -0.1985
47956SOL    HW161860   8.809   3.996   1.831  1.3575  1.1371 -0.6331
47956SOL    HW261861   8.787   3.848   1.806 -1.2385  1.4421 -0.3944
47957SOL     OW61862  13.913  11.360  10.281  0.3773 -0.0845 -0.1014
47957SOL    HW161863  13.968  11.332  10.208 -0.2617 -1.8848  0.0731
47957SOL    HW261864  13.891  11.280  10.327 -1.5659  0.6860  0.4233
47958SOL     OW61865   7.804   2.202  13.598  0.1006 -0.0914  0.4833
47958SOL    HW161866   7.717   2.174  13.626  0.6321 -1.9578  0.3635
47958SOL    HW261867   7.799   2.298  13.597 -2.2064 -0.1668 -0.3498
47959SOL     OW61868   5.169   1.692   5.203 -0.1436  0.6442 -0.0114
47959SOL    HW161869   5.086   1.668   5.245 -1.0737  0.7677 -1.6995
47959SOL    HW261870   5.200   1.767   5.253 -1.2878  0.8748  0.3874
47960SOL     OW61871  12.588   3.263  10.454 -0.0442  0.2172 -0.5131
47960SOL    HW161872  12.522   3.328  10.481  0.5457 -0.4428  3.0539
47960SOL    HW261873  12.671   3.307  10.467  0.3364 -0.9098  1.1558
47961SOL     OW61874  11.471  11.626   9.104  0.2006  0.0834 -0.2554
47961SOL    HW161875  11.394  11.570   9.098 -0.4736  0.8915  0.5503
47961SOL    HW261876  11.543  11.565   9.120 -0.4579 -0.5961  0.2361
47962SOL     OW61877  12.963   8.239  12.010 -0.3605 -0.2681 -0.7969
47962SOL    HW161878  12.906   8.314  12.023  0.5417  0.2977 -0.0019
47962SOL    HW261879  13.034   8.251  12.072  0.3245 -1.2700 -1.3486
47963SOL     OW61880   6.657  13.319   3.116 -0.0762  0.8373  0.1279
47963SOL    HW161881   6.691  13.400   3.078  0.7435  0.0043 -0.9515
47963SOL    HW261882   6.735  13.273   3.148 -0.4471  0.1097  0.0043
47964SOL     OW61883   1.114  11.993  10.356 -0.3876 -0.2367 -0.0282
47964SOL    HW161884   1.023  11.997  10.325 -0.7569 -1.1794  0.8508
47964SOL    HW261885   1.115  11.918  10.415  0.9630 -0.1978  0.0220
47965SOL     OW61886   8.731  10.019  14.144  1.0760  0.1195  0.0456
47965SOL    HW161887   8.789  10.052  14.212  1.6195 -1.0466  0.1758
47965SOL    HW261888   8.785   9.957  14.094  0.1250 -0.5339 -0.2053
47966SOL     OW61889   7.884   0.157  10.242  0.5912 -0.0702  0.4918
47966SOL    HW161890   7.832   0.214  10.299  0.7330 -0.5208  1.0805
47966SOL    HW261891   7.832   0.150  10.162  1.1829  1.9643 -0.1355
47967SOL     OW61892  11.275  12.995   4.236 -0.1236 -0.1875 -0.1446
47967SOL    HW161893  11.334  12.998   4.161 -1.0934 -0.4273 -0.9505
47967SOL    HW261894  11.290  13.077   4.282  0.7232 -0.1846 -0.4156
47968SOL     OW61895   2.089  10.879   2.799  0.1513  0.2639  0.1210
47968SOL    HW161896   2.007  10.884   2.848  0.3447  0.1651  0.4607
47968SOL    HW261897   2.067  10.911   2.712 -0.4531 -0.6094 -0.0606
47969SOL     OW61898   1.841  12.410   1.105 -0.1868  1.1721 -0.1517
47969SOL    HW161899   1.918  12.428   1.159  0.1383 -1.3187  0.3407
47969SOL    HW261900   1.868  12.337   1.049 -1.7888  1.0912 -0.8672
47970SOL     OW61901  11.041   0.947   3.185  0.2948  0.0093 -0.3117
47970SOL    HW161902  11.103   1.013   3.155 -0.8588  2.3527  2.1441
47970SOL    HW261903  10.970   0.950   3.120  0.7627  0.3535 -0.8153
47971SOL     OW61904   0.360   3.818   8.321  0.3077 -0.5313  0.0094
47971SOL    HW161905   0.333   3.796   8.232  0.6615 -2.2815  0.2911
47971SOL    HW261906   0.282   3.856   8.362  0.6193  1.9619 -1.5180
47972SOL     OW61907  12.111   2.066   6.485  0.7339 -0.4892 -0.4490
47972SOL    HW161908  12.103   1.990   6.427 -1.0537 -0.8453  0.1781
47972SOL    HW261909  12.157   2.033   6.562 -1.7555 -1.5693  0.6975
47973SOL     OW61910   7.212   3.887   0.110 -0.2696  0.2386 -0.4392
47973SOL    HW161911   7.229   3.913   0.201 -0.0843 -0.4874 -0.2638
47973SOL    HW261912   7.187   3.969   0.066  1.7570  1.0216 -0.2467
47974SOL     OW61913  11.778   9.072  11.781  0.2239  0.0386 -0.3842
47974SOL    HW161914  11.842   9.050  11.849 -0.1530  0.2227  0.0351
47974SOL    HW261915  11.831   9.100  11.707  0.6178  1.6546  0.4557
47975SOL     OW61916   7.599  10.612   4.032 -0.1218  0.1099 -0.0781
47975SOL    HW161917   7.517  10.587   4.075 -0.3446  0.1052 -0.5041
47975SOL    HW261918   7.623  10.535   3.981  1.2053 -0.6666  1.5935
47976SOL     OW61919  12.083  10.119   1.471  0.2371 -0.8673 -0.1632
47976SOL    HW161920  12.006  10.119   1.414  0.4138 -0.0403 -0.4149
47976SOL    HW261921  12.125  10.203   1.454  1.2358 -1.3356 -0.0818
47977SOL     OW61922   3.006   0.002  10.114  0.2031 -1.1743 -0.0420
47977SOL    HW161923   2.994  -0.082  10.158  1.9034 -2.1074 -1.2652
47977SOL    HW261924   3.048  -0.020  10.030  0.0638  0.8318 -0.6963
47978SOL     OW61925   1.835   0.359   4.008 -0.6222  0.2259 -0.3494
47978SOL    HW161926   1.757   0.369   4.062 -0.0927 -1.6192  0.8523
47978SOL    HW261927   1.811   0.396   3.923 -2.3956  0.7052  0.3232
47979SOL     OW61928   8.953   8.309   0.641  0.5111 -0.1350  0.4183
47979SOL    HW161929   8.902   8.253   0.582 -1.4688  1.9326  0.0283
47979SOL    HW261930   9.011   8.359   0.583  0.2779  0.1810  0.4522
47980SOL     OW61931  12.973   4.672   5.998  0.8155  0.1918 -0.3048
47980SOL    HW161932  13.055   4.625   6.011  2.3433  1.8028 -3.1957
47980SOL    HW261933  12.991   4.761   6.029 -0.9989 -0.2054  2.1341
47981SOL     OW61934   7.867   8.616   5.305  0.6670 -0.5107  0.2530
47981SOL    HW161935   7.809   8.670   5.251 -0.1555 -1.0772  0.5320
47981SOL    HW261936   7.865   8.657   5.391  1.3321 -0.0698  0.0611
47982SOL     OW61937   0.011   1.639   5.401 -0.4937  0.2916 -0.4115
47982SOL    HW161938   0.029   1.552   5.435 -0.1344  0.3447 -0.4571
47982SOL    HW261939  -0.021   1.688   5.477 -0.7449  0.1074 -0.3977
47983SOL     OW61940   4.186   1.077  10.737  0.2041 -0.1316 -0.4592
47983SOL    HW161941   4.217   1.112  10.654  0.6758 -1.0489 -0.6854
47983SOL    HW261942   4.261   1.087  10.796  0.1743 -0.2869 -0.3925
47984SOL     OW61943   4.469   5.976   0.045 -0.1164 -0.1652 -0.1492
47984SOL    HW161944   4.418   6.032  -0.014  1.0477  1.5644  0.4177
47984SOL    HW261945   4.558   6.010   0.040  0.7110 -2.1510  0.0440
47985SOL     OW61946   2.513   8.774  11.166 -0.6962  0.3459  0.1967
47985SOL    HW161947   2.478   8.825  11.239 -1.8875  0.4274 -0.4233
47985SOL    HW261948   2.440   8.719  11.138  0.4955 -1.6127  0.7413
47986SOL     OW61949  11.656   7.995   5.444  0.1152 -0.4588  0.2462
47986SOL    HW161950  11.739   7.990   5.491 -0.0139  2.3134  0.9769
47986SOL    HW261951  11.591   8.013   5.511 -0.9177 -1.4133 -0.4624
47987SOL     OW61952  11.115   1.559   5.287  0.0888  0.2776  0.3227
47987SOL    HW161953  11.199   1.594   5.257  0.2122 -0.3185 -0.0512
47987SOL    HW261954  11.134   1.467   5.308 -0.2185  0.4234  1.3087
47988SOL     OW61955   5.852  14.076   0.006 -0.8688 -0.8859 -0.1018
47988SOL    HW161956   5.864  14.092  -0.087  0.6411 -0.3003  0.1609
47988SOL    HW261957   5.930  14.026   0.032 -0.9345 -0.4569  0.9710
47989SOL     OW61958   6.498  11.581   8.541 -0.0574  0.0578  0.4436
47989SOL    HW161959   6.575  11.605   8.592 -1.8345  0.3905  3.1511
47989SOL    HW261960   6.463  11.665   8.511  0.1122 -0.0363 -0.0339
47990SOL     OW61961  11.400   4.270   2.445  0.2504 -0.6735 -0.3508
47990SOL    HW161962  11.489   4.248   2.472  0.1875 -0.2782  0.1946
47990SOL    HW261963  11.345   4.203   2.487  0.3441 -1.2633 -1.1641
47991SOL     OW61964   7.201   7.415  12.161  0.1444 -0.0075  0.4316
47991SOL    HW161965   7.140   7.488  12.160 -0.7045 -0.6951  0.8033
47991SOL    HW261966   7.230   7.409  12.252 -1.7333 -1.6695  0.9989
47992SOL     OW61967  10.835   4.688   9.163 -0.0793 -0.0576 -0.6136
47992SOL    HW161968  10.878   4.641   9.235  1.0361  1.0509 -0.5188
47992SOL    HW261969  10.745   4.655   9.163 -0.0113 -0.3360  1.0575
47993SOL     OW61970   5.457   6.021   2.167 -0.2166  0.1497 -0.0556
47993SOL    HW161971   5.466   5.991   2.077 -0.5571 -0.3898  0.0848
47993SOL    HW261972   5.374   5.983   2.197 -0.2116  0.4976  0.4156
47994SOL     OW61973  12.083  13.092   4.351 -0.5791 -0.3389 -0.5874
47994SOL    HW161974  12.110  13.183   4.362  1.0673 -0.9250  0.4490
47994SOL    HW261975  12.076  13.081   4.256 -1.7305  1.0831 -0.7199
47995SOL     OW61976   1.888   8.091   8.927  0.0367  0.2936 -0.4165
47995SOL    HW161977   1.938   8.015   8.957 -1.1542 -0.2702  0.2327
47995SOL    HW261978   1.801   8.078   8.965 -0.5986  1.2462 -1.4863
47996SOL     OW61979  11.383   1.349   1.298  0.6732  0.2079 -0.1489
47996SOL    HW161980  11.302   1.322   1.341  1.6863 -3.5608 -0.2256
47996SOL    HW261981  11.452   1.320   1.358  2.0161  0.1362 -1.6695
47997SOL     OW61982   9.190   3.599   0.679  0.7348 -0.4036  0.1862
47997SOL    HW161983   9.113   3.629   0.632  0.7189  0.5743  0.8054
47997SOL    HW261984   9.164   3.514   0.716 -0.0595 -0.0797  0.4026
47998SOL     OW61985  13.278   1.541   9.000  1.1109 -0.3569 -0.5222
47998SOL    HW161986  13.356   1.555   8.946  0.8570  0.9487 -0.5878
47998SOL    HW261987  13.310   1.537   9.089  1.4620 -1.8473 -0.6999
47999SOL     OW61988   0.530   6.817   0.634  0.5910 -0.1356  0.2794
47999SOL    HW161989   0.485   6.797   0.716  0.4467 -1.6989 -0.1426
47999SOL    HW261990   0.501   6.905   0.611 -2.6627 -1.2103 -0.1875
48000SOL     OW61991  12.243   9.492   5.493 -0.1991 -0.3246 -0.0755
48000SOL    HW161992  12.163   9.482   5.441 -0.6673  0.9558  0.3669
48000SOL    HW261993  12.241   9.420   5.555  0.6899 -2.3039 -2.1627
48001SOL     OW61994   0.845  14.102  11.019  0.0725 -0.3779 -0.2307
48001SOL    HW161995   0.938  14.087  11.003 -0.0073 -0.0836 -0.9949
48001SOL    HW261996   0.816  14.023  11.065  0.9724  0.0728  1.1939
48002SOL     OW61997   1.646   2.259   6.178 -0.3821 -0.4076 -0.6936
48002SOL    HW161998   1.647   2.190   6.245 -0.1055  0.2407 -0.0157
48002SOL    HW261999   1.634   2.212   6.095  0.2088 -1.3004 -0.2838
48003SOL     OW62000   4.741  13.947   6.607  0.1254 -0.1518  0.3064
48003SOL    HW162001   4.737  14.018   6.671 -2.1310 -0.4383  0.5748
48003SOL    HW262002   4.725  13.868   6.657  1.4600 -0.7595 -0.1782
48004SOL     OW62003   2.273   8.074   1.872  0.0742  0.0434  0.6622
48004SOL    HW162004   2.311   8.159   1.851 -1.3031  1.4393  3.3321
48004SOL    HW262005   2.179   8.089   1.873 -0.4067 -2.1886 -1.1887
48005SOL     OW62006  12.040   9.397  13.020  0.2306 -0.3673  0.6928
48005SOL    HW162007  12.122   9.418  12.975 -0.3054  0.2260 -0.0454
48005SOL    HW262008  12.052   9.428  13.109  0.7627 -0.1460  0.5460
48006SOL     OW62009   7.488   3.828  11.868 -0.0167  0.0968  0.0490
48006SOL    HW162010   7.465   3.870  11.786 -2.2449 -0.0744  0.5062
48006SOL    HW262011   7.583   3.815  11.864  0.3223  2.5292 -1.2973
48007SOL     OW62012   6.863  12.937  11.300  0.2911  0.3252 -0.4134
48007SOL    HW162013   6.777  12.901  11.322  0.8375 -1.1602 -0.5347
48007SOL    HW262014   6.862  12.945  11.204  0.4829 -0.2889 -0.4747
48008SOL     OW62015  13.945   3.686   7.356  0.4545 -0.1011  0.1268
48008SOL    HW162016  13.860   3.721   7.384 -0.7725 -2.1195 -0.8727
48008SOL    HW262017  13.964   3.732   7.274  1.1754  1.5121  1.1344
48009SOL     OW62018   7.788   3.651   9.254  0.0939  0.5411 -0.1609
48009SOL    HW162019   7.696   3.632   9.272  0.6795 -0.5810  1.9874
48009SOL    HW262020   7.815   3.708   9.326  1.2642  0.3061 -0.3964
48010SOL     OW62021   9.329  13.046   5.240  0.2180 -0.0217 -0.1552
48010SOL    HW162022   9.363  12.963   5.275 -1.9743 -0.0122  2.2772
48010SOL    HW262023   9.381  13.062   5.161  2.5677 -2.2929  0.8049
48011SOL     OW62024   0.495  13.644  13.745  0.0244 -0.4057 -0.1377
48011SOL    HW162025   0.518  13.567  13.797 -2.0167 -0.4685  0.7855
48011SOL    HW262026   0.579  13.683  13.720  1.0971 -2.7955 -0.4742
48012SOL     OW62027   8.323   4.200  11.226 -0.1941 -0.1176 -0.6167
48012SOL    HW162028   8.397   4.240  11.180 -1.0304 -0.9187 -2.7789
48012SOL    HW262029   8.315   4.113  11.188 -1.4753 -0.5234  0.4917
48013SOL     OW62030   1.394   1.686   6.453 -0.4337 -0.9141  0.1646
48013SOL    HW162031   1.451   1.757   6.481 -1.5429 -0.7198  2.1228
48013SOL    HW262032   1.451   1.609   6.450  0.8237  0.0187 -2.1730
48014SOL     OW62033  11.200   9.148   4.159  0.1629 -0.5227  0.3102
48014SOL    HW162034  11.145   9.172   4.084 -2.0721  3.0617  2.7788
48014SOL    HW262035  11.288   9.175   4.133 -0.6324  1.1184 -0.9313
48015SOL     OW62036   6.291   4.743   5.758  0.0290 -0.1619 -0.1332
48015SOL    HW162037   6.364   4.796   5.789 -1.7194  1.6415  1.1775
48015SOL    HW262038   6.263   4.694   5.835 -0.2369 -0.7185 -0.5765
48016SOL     OW62039   0.344  13.261  14.022  0.2197  0.5122 -0.2668
48016SOL    HW162040   0.387  13.219  14.096  0.4683  0.2898 -0.5337
48016SOL    HW262041   0.411  13.318  13.984  0.2363  0.2845 -0.5893
48017SOL     OW62042   2.430   5.339  12.800 -0.2082 -0.2289  0.0096
48017SOL    HW162043   2.445   5.245  12.789  1.5662 -0.2695  2.1176
48017SOL    HW262044   2.359   5.345  12.864  0.4761 -0.1731  0.7784
48018SOL     OW62045   2.651   6.945   9.201 -0.0717 -0.1174  0.0316
48018SOL    HW162046   2.716   6.876   9.190  0.6062  0.3763  0.7776
48018SOL    HW262047   2.686   7.000   9.272 -1.7917 -0.3911  1.1454
48019SOL     OW62048  12.736   4.278   1.511 -0.5376 -0.2153  0.4432
48019SOL    HW162049  12.807   4.237   1.463 -0.5241  0.3432 -0.0280
48019SOL    HW262050  12.675   4.207   1.530 -0.9359 -0.3116 -1.1233
48020SOL     OW62051   5.247   6.936   7.992 -0.4903  0.1576  0.1530
48020SOL    HW162052   5.327   6.885   8.000 -0.2896  0.5426  0.6307
48020SOL    HW262053   5.268   7.004   7.927 -0.1139  0.8516  0.9910
48021SOL     OW62054   7.381   4.409   9.499 -0.0128  0.0209 -0.2024
48021SOL    HW162055   7.466   4.434   9.537 -0.7885 -0.1192  1.7387
48021SOL    HW262056   7.351   4.488   9.455  1.8289 -0.3912 -2.4134
48022SOL     OW62057  12.705   5.329   4.129  0.2677 -0.1153 -0.0583
48022SOL    HW162058  12.669   5.247   4.163  0.5681 -0.0368  0.4603
48022SOL    HW262059  12.785   5.343   4.180  1.0148 -0.2574 -1.1353
48023SOL     OW62060   1.094   4.808   7.254 -0.5460 -0.4079  1.0059
48023SOL    HW162061   1.072   4.887   7.204 -0.3062 -1.7292 -1.3731
48023SOL    HW262062   1.189   4.805   7.253 -0.5740 -1.3653 -0.0527
48024SOL     OW62063   8.030   7.137   8.531  0.2067 -0.3712 -0.3688
48024SOL    HW162064   8.094   7.200   8.498 -1.6331  2.5119  1.1259
48024SOL    HW262065   8.074   7.094   8.605  1.2299 -0.2374 -0.8894
48025SOL     OW62066   8.761  12.112   2.507  0.1182  0.0057  0.0291
48025SOL    HW162067   8.764  12.017   2.517 -0.6656  0.1480  2.0844
48025SOL    HW262068   8.826  12.145   2.569  1.6209  0.8201 -1.8484
48026SOL     OW62069   3.372   6.243   8.993  0.4970 -0.0535 -0.3433
48026SOL    HW162070   3.432   6.211   9.061 -0.0574 -1.0742 -0.3235
48026SOL    HW262071   3.420   6.314   8.950  0.1486  1.9949  2.3779
48027SOL     OW62072   0.669  11.650   6.525  0.5494  0.8297 -0.2373
48027SOL    HW162073   0.598  11.648   6.460 -0.6343 -0.6036  1.0214
48027SOL    HW262074   0.749  11.636   6.474 -0.2475  0.7063 -1.4984
48028SOL     OW62075   0.695   7.753  10.272  0.2286 -0.5250  0.4192
48028SOL    HW162076   0.600   7.741  10.265 -0.1917  2.7301 -0.8762
48028SOL    HW262077   0.711   7.766  10.366 -0.4781 -1.5265  0.7042
48029SOL     OW62078  13.675  10.614   4.310 -0.6140  0.0271 -0.2460
48029SOL    HW162079  13.620  10.629   4.233 -1.8233  1.1460  0.7768
48029SOL    HW262080  13.617  10.569   4.372 -0.6300  1.7966  1.1007
48030SOL     OW62081   0.359   1.813   5.374  0.0317  0.0540 -0.6884
48030SOL    HW162082   0.325   1.836   5.287  2.5748 -0.7875 -1.9819
48030SOL    HW262083   0.451   1.838   5.372 -0.1081  1.2240  2.2823
48031SOL     OW62084   8.495   9.826   4.816  0.5566 -0.1708  0.2639
48031SOL    HW162085   8.499   9.792   4.726 -0.9477 -1.8971  0.7932
48031SOL    HW262086   8.492   9.921   4.805 -2.8165 -0.3427 -1.7872
48032SOL     OW62087   7.691   0.731   2.310  0.8958 -0.0946 -0.7734
48032SOL    HW162088   7.621   0.764   2.254  0.1562  0.0491  0.2065
48032SOL    HW262089   7.689   0.637   2.298  0.2592 -0.1289 -0.4619
48033SOL     OW62090  13.743  13.414   5.117 -0.4585  0.2395 -0.5812
48033SOL    HW162091  13.790  13.486   5.075 -1.1665  0.3477 -1.2130
48033SOL    HW262092  13.667  13.457   5.157  1.2959  0.5266  2.8062
48034SOL     OW62093   2.812   3.718   0.526 -0.3014  0.4257  0.4530
48034SOL    HW162094   2.897   3.745   0.491  0.5762  1.1243  2.9582
48034SOL    HW262095   2.797   3.632   0.487  0.0842  1.5097 -2.3582
48035SOL     OW62096   5.255   0.547  11.340 -0.0527 -0.1391 -0.2115
48035SOL    HW162097   5.234   0.622  11.395  1.0591 -0.8369  1.2495
48035SOL    HW262098   5.277   0.478  11.402  1.6604 -0.8629 -1.5418
48036SOL     OW62099   7.993   8.993   1.433  0.0316 -0.3960 -0.0389
48036SOL    HW162100   7.956   9.007   1.346  0.7290  0.4864 -0.2144
48036SOL    HW262101   8.074   9.045   1.433  0.8382 -1.6032  0.6082
48037SOL     OW62102  10.637  12.012   5.763 -0.4847 -0.5128 -0.4782
48037SOL    HW162103  10.567  11.981   5.820 -1.1249  1.0437 -0.3858
48037SOL    HW262104  10.614  11.978   5.676 -1.1815 -0.2651 -0.3894
48038SOL     OW62105   8.696  10.085   2.642 -0.2502  0.0706  0.2664
48038SOL    HW162106   8.723  10.003   2.602 -1.4588 -1.6076  2.6436
48038SOL    HW262107   8.713  10.151   2.575  0.3446 -2.1477 -1.9181
48039SOL     OW62108   4.692  11.677   6.355  0.1441 -0.1115 -0.4714
48039SOL    HW162109   4.771  11.635   6.322  0.4338 -1.4750  1.8081
48039SOL    HW262110   4.636  11.605   6.384 -1.3149  0.9054 -0.6436
48040SOL     OW62111  12.301   6.081  13.562  0.0096 -0.4795  0.0883
48040SOL    HW162112  12.243   6.031  13.618 -1.1139 -0.7355 -1.2744
48040SOL    HW262113  12.287   6.172  13.589 -0.0728 -0.6413  0.6115
48041SOL     OW62114   0.540   7.900   7.185  0.2263 -0.1730  0.2181
48041SOL    HW162115   0.496   7.852   7.256 -0.8621  0.0055 -0.3100
48041SOL    HW262116   0.520   7.849   7.106  0.9075 -0.0330 -0.0481
48042SOL     OW62117   8.569  11.638   5.705  0.2909 -0.7152  0.7281
48042SOL    HW162118   8.490  11.691   5.714  1.5396  2.7884 -4.6005
48042SOL    HW262119   8.636  11.687   5.753  0.5904  0.4366 -0.7932
48043SOL     OW62120   4.649   7.085   5.095 -0.2940  0.1914  0.4428
48043SOL    HW162121   4.629   7.050   5.182 -1.2131  0.9960  0.5772
48043SOL    HW262122   4.564   7.093   5.052  0.1370 -0.0172 -0.4678
48044SOL     OW62123   4.455   6.132  12.026  0.5283  0.0386 -0.3648
48044SOL    HW162124   4.500   6.121  12.109  1.1547 -2.3584 -0.9419
48044SOL    HW262125   4.370   6.170  12.049  1.6066  1.7456  1.0572
48045SOL     OW62126  11.435   4.904  12.377  0.3641  0.2437 -0.4902
48045SOL    HW162127  11.362   4.960  12.353  0.9876  0.5409 -1.7798
48045SOL    HW262128  11.511   4.962  12.379  0.7638 -0.2724 -0.3461
48046SOL     OW62129  13.443   3.441  10.471 -0.3503 -0.8130  0.0874
48046SOL    HW162130  13.426   3.535  10.476  0.4234 -0.5804 -1.2101
48046SOL    HW262131  13.358   3.401  10.484 -0.9453  0.1234 -0.7239
48047SOL     OW62132   1.932   9.247   4.363 -0.4679  0.1849 -0.4316
48047SOL    HW162133   1.984   9.167   4.361 -1.2490 -0.3293 -1.0897
48047SOL    HW262134   1.916   9.268   4.271 -0.6717  0.8227 -0.2554
48048SOL     OW62135   6.076  12.406   9.537  0.3614 -0.3018  0.2277
48048SOL    HW162136   6.141  12.424   9.606  1.2517 -2.9722  0.2318
48048SOL    HW262137   6.062  12.311   9.543 -0.2994 -0.4581 -2.6377
48049SOL     OW62138  11.385   8.652  10.312 -0.5468 -0.2914  0.5552
48049SOL    HW162139  11.428   8.691  10.235 -0.1943 -0.2641  0.7652
48049SOL    HW262140  11.356   8.566  10.282 -1.0000 -0.0198  0.1955
48050SOL     OW62141   8.777   4.344   5.573 -0.5014  0.1869 -0.3743
48050SOL    HW162142   8.814   4.432   5.580  1.8267 -0.8729  2.8579
48050SOL    HW262143   8.853   4.287   5.566 -1.9311 -1.7051 -1.4556
48051SOL     OW62144   7.987   2.131  10.467  0.2131 -0.3377  0.1893
48051SOL    HW162145   8.019   2.131  10.377  0.4975  0.5513  0.2858
48051SOL    HW262146   8.002   2.220  10.499 -1.2104 -0.2312  0.6462
48052SOL     OW62147   9.627  11.016   8.485  0.1954  0.0316 -0.1710
48052SOL    HW162148   9.601  11.106   8.499  2.1527  0.5248  0.6783
48052SOL    HW262149   9.696  11.020   8.419  0.5863 -0.7856  0.1630
48053SOL     OW62150  11.392   8.970   1.232  0.4213 -0.3891  0.6746
48053SOL    HW162151  11.437   8.890   1.260 -1.4197 -1.7042  0.0795
48053SOL    HW262152  11.382   9.021   1.312  2.2328 -0.4086  0.9463
48054SOL     OW62153   5.533   2.319   8.868  0.1644  0.1873  0.2545
48054SOL    HW162154   5.595   2.319   8.794 -0.1773 -1.3460 -0.0614
48054SOL    HW262155   5.584   2.284   8.941  0.0433  0.1574  0.3245
48055SOL     OW62156   6.790  13.048   6.553 -0.0086 -0.0847 -0.8815
48055SOL    HW162157   6.719  12.990   6.582 -0.7318  0.6480 -1.1483
48055SOL    HW262158   6.869  13.011   6.593 -0.5594 -0.8176 -0.4398
48056SOL     OW62159   9.833   8.690   8.252 -0.6035  0.0440  0.2659
48056SOL    HW162160   9.742   8.719   8.249 -1.3730 -2.2383 -0.1311
48056SOL    HW262161   9.867   8.708   8.165 -1.1614 -0.5470 -0.0765
48057SOL     OW62162   3.306   0.504   8.580  0.1551 -0.0107 -0.9341
48057SOL    HW162163   3.266   0.529   8.496  0.1786 -0.6562 -1.1470
48057SOL    HW262164   3.388   0.552   8.583 -2.4461  5.1008  1.5876
48058SOL     OW62165  11.382   0.840   0.894 -0.1692 -0.0503  0.1762
48058SOL    HW162166  11.398   0.927   0.858 -1.2867  0.2021  0.2522
48058SOL    HW262167  11.321   0.800   0.833  0.0041 -0.6194  0.3725
48059SOL     OW62168   0.786   5.777   7.341  0.6041  0.1766  0.3638
48059SOL    HW162169   0.780   5.836   7.266 -1.8930 -1.0392 -0.5092
48059SOL    HW262170   0.698   5.739   7.349  1.3184 -1.2029  2.7080
48060SOL     OW62171   8.683  10.426   4.687  0.4647  0.3956  0.6299
48060SOL    HW162172   8.685  10.515   4.722 -2.0028  0.4480  0.7878
48060SOL    HW262173   8.616  10.428   4.619  0.5518 -1.2862  0.4496
48061SOL     OW62174   2.049  11.231   5.561  0.1026  0.3972  0.2595
48061SOL    HW162175   2.096  11.256   5.481  0.7868 -0.1535  0.4787
48061SOL    HW262176   1.968  11.281   5.557  0.4188  0.8815 -0.4542
48062SOL     OW62177   1.499  11.540   9.142  0.1203  0.0070  0.3441
48062SOL    HW162178   1.520  11.481   9.070 -0.5173 -1.7606  1.5434
48062SOL    HW262179   1.562  11.519   9.211  0.5108  1.4361  0.4597
48063SOL     OW62180   9.083  13.090   6.639  0.4510  0.6061 -0.2113
48063SOL    HW162181   9.114  13.151   6.706 -0.6886 -0.3476  1.2755
48063SOL    HW262182   9.078  13.006   6.684  0.4964 -0.2696 -1.7690
48064SOL     OW62183   9.871  11.323  10.673 -0.3032  0.0732 -0.3248
48064SOL    HW162184   9.957  11.294  10.702 -0.4936 -1.4740 -1.1660
48064SOL    HW262185   9.885  11.412  10.641  1.0857 -0.3105 -0.8523
48065SOL     OW62186   6.120   6.778   6.610  0.4720 -0.3454 -0.6440
48065SOL    HW162187   6.095   6.762   6.519  0.0235 -0.5555 -0.4864
48065SOL    HW262188   6.053   6.733   6.661  1.6439 -1.6627 -0.2058
48066SOL     OW62189  10.812   0.678  12.574  0.1124  0.1963 -0.2735
48066SOL    HW162190  10.898   0.637  12.581  0.0038  0.1197  0.7117
48066SOL    HW262191  10.825   0.752  12.515  0.9731  0.5133  0.3011
48067SOL     OW62192   8.386   3.914   4.495 -0.0172 -0.0912 -0.2484
48067SOL    HW162193   8.376   3.929   4.589 -0.1137  0.1342 -0.2961
48067SOL    HW262194   8.297   3.911   4.461  0.0380  1.4089 -0.5878
48068SOL     OW62195   3.231   9.832  10.751 -0.2106 -0.0252 -0.5227
48068SOL    HW162196   3.300   9.857  10.690  0.6013  0.2728  0.4937
48068SOL    HW262197   3.277   9.801  10.829 -1.1541  1.7035  0.8246
48069SOL     OW62198   9.156   2.777   1.642 -0.4348 -0.0176 -0.8934
48069SOL    HW162199   9.199   2.818   1.567 -0.2653 -0.9034 -1.2891
48069SOL    HW262200   9.066   2.761   1.614  0.4574 -3.5913 -2.2883
48070SOL     OW62201  10.735   0.476  13.837  0.2568  0.3998  0.1911
48070SOL    HW162202  10.688   0.488  13.919  1.6737  2.4095  0.7896
48070SOL    HW262203  10.716   0.555  13.786  2.5510  1.0787  0.2786
48071SOL     OW62204  11.867   3.525  12.749  0.3025  0.1588  0.1916
48071SOL    HW162205  11.815   3.513  12.669  0.9550 -2.2749  0.0494
48071SOL    HW262206  11.804   3.557  12.814 -0.9027 -0.6111 -0.5516
48072SOL     OW62207   4.977   8.267   8.001  0.0249 -0.0845  0.4948
48072SOL    HW162208   4.927   8.190   8.028  0.4771 -0.4376  0.3274
48072SOL    HW262209   4.962   8.331   8.071 -1.8404  0.3414 -0.2374
48073SOL     OW62210  13.534  13.807   7.506 -0.4972  0.2208  0.3820
48073SOL    HW162211  13.509  13.899   7.498 -1.0358  0.0839  0.4878
48073SOL    HW262212  13.591  13.792   7.431  0.6254  0.9702  1.0485
48074SOL     OW62213   2.496   0.481  10.557  0.0402 -0.1818  0.0677
48074SOL    HW162214   2.413   0.459  10.516  0.7126 -0.8391 -0.9938
48074SOL    HW262215   2.508   0.574  10.538 -0.2212 -0.2034 -0.2119
48075SOL     OW62216   8.203   3.711   0.628  0.1805  0.2340 -0.4388
48075SOL    HW162217   8.271   3.648   0.652  1.0762  1.4588  0.3614
48075SOL    HW262218   8.121   3.661   0.631  0.5780 -0.4200  2.3655
48076SOL     OW62219   3.980   2.527   0.859  0.0928  0.2846 -0.4512
48076SOL    HW162220   3.901   2.551   0.907 -1.2494 -0.8640 -1.9822
48076SOL    HW262221   3.987   2.432   0.870  3.3609  0.6580  2.6396
48077SOL     OW62222   6.838   3.464  10.388 -0.5389 -0.0302  0.2455
48077SOL    HW162223   6.839   3.370  10.406  1.7035  0.2789  2.2568
48077SOL    HW262224   6.759   3.495  10.433 -1.1743 -0.8785 -0.2379
48078SOL     OW62225   9.081  13.472   6.010 -0.1817 -0.7290 -0.1320
48078SOL    HW162226   9.070  13.557   6.053 -0.4658 -0.7299 -0.2052
48078SOL    HW262227   9.009  13.419   6.044 -0.8483 -0.5035 -1.1784
48079SOL     OW62228  11.828   7.941   9.914 -0.1269  0.0550  0.2227
48079SOL    HW162229  11.790   7.955   9.827  2.1020 -1.2322 -1.0752
48079SOL    HW262230  11.764   7.888   9.960 -0.3151 -1.4093 -1.6021
48080SOL     OW62231   6.203   3.892  10.554  0.0750  0.0294 -0.4114
48080SOL    HW162232   6.286   3.848  10.571  0.4191  0.2327 -1.5212
48080SOL    HW262233   6.186   3.879  10.461 -0.9287  0.3562 -0.2946
48081SOL     OW62234  10.977  12.483  11.535 -0.0881  0.2450 -0.3432
48081SOL    HW162235  11.045  12.499  11.601 -0.7532  0.7297  0.2435
48081SOL    HW262236  10.911  12.551  11.551 -0.8853 -0.4348 -0.6557
48082SOL     OW62237  13.443   6.070   9.552 -0.0150 -0.2564 -0.3807
48082SOL    HW162238  13.532   6.045   9.575 -0.3778 -0.4024  0.9261
48082SOL    HW262239  13.389   5.998   9.584 -0.8016  0.8114  0.7823
48083SOL     OW62240   2.832   2.567   6.342  0.2177 -0.6177  0.2935
48083SOL    HW162241   2.894   2.638   6.326 -2.1564  1.3259 -1.1947
48083SOL    HW262242   2.796   2.586   6.429 -1.6886  1.2246 -0.7937
48084SOL     OW62243  11.728   8.915   2.865  0.4094  0.2933 -0.0444
48084SOL    HW162244  11.659   8.964   2.821  2.2126  1.6947 -1.4764
48084SOL    HW262245  11.718   8.825   2.833 -1.1362  0.3139  0.3129
48085SOL     OW62246   8.436   8.482  13.918  0.3776 -0.0524  0.0323
48085SOL    HW162247   8.530   8.473  13.898  0.3209 -0.6634  0.0157
48085SOL    HW262248   8.393   8.480  13.833  0.4165  1.2704 -0.0344
48086SOL     OW62249   8.120  12.395   5.043  0.1807  0.8894 -0.1082
48086SOL    HW162250   8.071  12.382   5.124  0.3937 -1.8675 -0.3457
48086SOL    HW262251   8.209  12.415   5.072 -0.0591  1.3616  0.3211
48087SOL     OW62252   0.337  14.070   0.017 -0.1045 -0.0194  0.0851
48087SOL    HW162253   0.314  14.074   0.109 -0.6695  1.1171 -0.0790
48087SOL    HW262254   0.288  14.142  -0.023  1.0100  0.2294 -0.9017
48088SOL     OW62255   7.640   3.176   6.774 -0.1276 -0.0765 -0.0041
48088SOL    HW162256   7.703   3.126   6.722  0.6600  1.7391 -0.9015
48088SOL    HW262257   7.659   3.267   6.752 -1.4644  0.6305  1.5907
48089SOL     OW62258   9.785  13.035   8.737 -0.5074 -0.2120 -0.5542
48089SOL    HW162259   9.758  13.060   8.825 -0.5372  0.1982 -0.6796
48089SOL    HW262260   9.880  13.028   8.742 -0.6060 -1.5081 -0.1505
48090SOL     OW62261   6.724  14.005  12.507  0.3910 -0.0528 -1.4143
48090SOL    HW162262   6.814  14.008  12.473  1.2725  2.4313  0.7988
48090SOL    HW262263   6.735  13.980  12.599 -1.1605  0.5121 -1.0535
48091SOL     OW62264   5.796  12.442   0.474  0.3751  0.0780  0.1749
48091SOL    HW162265   5.843  12.405   0.399 -1.2386 -0.7920 -0.4576
48091SOL    HW262266   5.757  12.523   0.440 -1.8729 -1.2159 -0.5524
48092SOL     OW62267  11.776  11.869   5.958  0.3819 -0.4536 -0.1732
48092SOL    HW162268  11.783  11.938   6.024 -2.3984 -1.0343  0.8738
48092SOL    HW262269  11.695  11.889   5.911 -1.2256 -3.5282  0.9796
48093SOL     OW62270   6.739   9.806   9.968  0.0538  0.1000 -0.1003
48093SOL    HW162271   6.730   9.891   9.925  0.3547  0.7014  1.0035
48093SOL    HW262272   6.676   9.808  10.040  0.2224 -0.5269  0.0686
48094SOL     OW62273  11.905  12.623   1.568  0.3420 -0.5242 -0.2350
48094SOL    HW162274  11.923  12.585   1.482 -1.2932 -0.9926 -0.3973
48094SOL    HW262275  11.949  12.564   1.629 -0.5210 -1.6118 -0.6157
48095SOL     OW62276   8.429  10.010  13.128  0.4197  0.0895  0.2080
48095SOL    HW162277   8.478   9.941  13.173 -1.1711 -1.3819 -0.1776
48095SOL    HW262278   8.442   9.991  13.035  0.1220  0.4266  0.0972
48096SOL     OW62279  10.620  13.925   7.866  0.6494  0.2897 -0.4542
48096SOL    HW162280  10.645  13.928   7.958  0.5507  0.5507 -0.4334
48096SOL    HW262281  10.690  13.875   7.823  0.0465 -0.9146 -0.0429
48097SOL     OW62282   9.639  14.080   8.818  0.1608 -0.4226  0.6229
48097SOL    HW162283   9.655  13.986   8.818  0.0274 -0.4462  0.5207
48097SOL    HW262284   9.725  14.120   8.803 -0.1370 -0.6038 -1.9487
48098SOL     OW62285   1.001   6.261   9.924 -0.5478 -0.4933 -0.4155
48098SOL    HW162286   1.089   6.223   9.922 -0.4336 -0.2850  0.4037
48098SOL    HW262287   0.957   6.224   9.847  0.5459  0.1037 -1.3514
48099SOL     OW62288   5.623   0.165   2.101  0.0278 -0.1191  0.8690
48099SOL    HW162289   5.657   0.187   2.014 -0.0710  0.3465  0.9437
48099SOL    HW262290   5.610   0.070   2.099  1.6012 -0.3491  0.9366
48100SOL     OW62291   0.620   6.347   3.759 -0.2357 -0.0650 -0.0372
48100SOL    HW162292   0.538   6.365   3.714 -0.6665 -2.1880 -0.2103
48100SOL    HW262293   0.662   6.279   3.706  1.2180  0.3442  0.5362
48101SOL     OW62294  12.354   8.333   0.181 -0.4438  0.0098  0.3939
48101SOL    HW162295  12.410   8.344   0.104 -1.1188  1.8873  0.1157
48101SOL    HW262296  12.357   8.418   0.224 -1.5934 -0.4419  1.4061
48102SOL     OW62297   3.518   4.057   0.266  0.0837 -0.3762  0.2055
48102SOL    HW162298   3.552   3.968   0.257 -0.3181 -0.4646 -0.4709
48102SOL    HW262299   3.432   4.055   0.225 -1.3285 -0.4637  2.9395
48103SOL     OW62300   3.208  12.711   8.145 -0.0857  0.3600 -0.2190
48103SOL    HW162301   3.217  12.639   8.208  1.8990  1.6948  1.1266
48103SOL    HW262302   3.241  12.675   8.063 -1.8523 -1.1108 -0.3674
48104SOL     OW62303   0.684  12.624   8.363 -0.5666 -0.3724 -0.2138
48104SOL    HW162304   0.600  12.606   8.407 -2.0899  0.2968 -2.6323
48104SOL    HW262305   0.714  12.705   8.403 -0.9149 -0.7751  0.9020
48105SOL     OW62306  10.407   6.829   0.704 -0.0309 -0.1163 -0.2962
48105SOL    HW162307  10.370   6.742   0.713 -0.3326  0.1793  1.7896
48105SOL    HW262308  10.489   6.826   0.753 -0.7232  1.1084  1.0289
48106SOL     OW62309   4.257   9.991   8.779 -0.3550  0.1687 -0.0302
48106SOL    HW162310   4.281   9.901   8.758 -0.1326  0.3998 -0.7913
48106SOL    HW262311   4.338  10.030   8.812  0.1671  0.7113 -1.8189
48107SOL     OW62312  12.495  13.438  12.837  0.1143  0.1089 -0.3305
48107SOL    HW162313  12.584  13.468  12.853  0.3245 -1.5053  1.8654
48107SOL    HW262314  12.504  13.346  12.813 -0.9650 -0.2474  0.5380
48108SOL     OW62315   1.935   7.846  10.981 -0.3218  0.7281  0.2460
48108SOL    HW162316   1.866   7.909  11.002 -1.2974 -0.0851 -0.4326
48108SOL    HW262317   1.930   7.780  11.051  0.5779  1.2792  0.8550
48109SOL     OW62318   6.797  13.200   2.264 -0.4038  0.3319  0.3537
48109SOL    HW162319   6.730  13.166   2.324 -1.0791  1.6169  0.3610
48109SOL    HW262320   6.775  13.162   2.179  0.6411 -1.6187  0.8906
48110SOL     OW62321  11.983   0.581   4.326 -0.3499  0.5488 -0.3451
48110SOL    HW162322  12.003   0.659   4.377  1.3781 -0.6200  0.8439
48110SOL    HW262323  12.061   0.527   4.332 -1.7724 -1.6419 -0.5050
48111SOL     OW62324   2.697   7.528   7.469  0.7176  0.4471  0.3791
48111SOL    HW162325   2.706   7.593   7.399  0.6696 -0.4000 -0.4346
48111SOL    HW262326   2.602   7.516   7.478  0.7453 -0.7258 -0.6523
48112SOL     OW62327  11.971   6.973  11.125  0.0020 -0.2887  0.4444
48112SOL    HW162328  11.910   7.037  11.091 -2.3246 -2.3579  0.3995
48112SOL    HW262329  11.985   6.999  11.216 -0.0281  0.8420  0.1397
48113SOL     OW62330  13.858  11.270   5.489 -0.5313 -0.5083 -0.0266
48113SOL    HW162331  13.920  11.333   5.454 -0.7264 -1.0911 -1.5109
48113SOL    HW262332  13.860  11.197   5.427 -0.2978 -1.9905  1.6257
48114SOL     OW62333   3.706   4.274   0.523 -0.2566 -0.2163 -0.1277
48114SOL    HW162334   3.628   4.259   0.576 -0.6432  0.5454 -0.4676
48114SOL    HW262335   3.714   4.369   0.519  1.0863 -0.2852  0.4639
48115SOL     OW62336   7.515   5.423   6.351 -0.0970  0.6374 -0.2033
48115SOL    HW162337   7.524   5.404   6.258  0.1759  0.2176 -0.0931
48115SOL    HW262338   7.594   5.386   6.391 -0.6074  0.0803  0.3069
48116SOL     OW62339   6.587   4.914   7.217 -0.2342  0.3094  0.2901
48116SOL    HW162340   6.539   4.921   7.134 -0.3932  2.1664  0.4928
48116SOL    HW262341   6.603   5.005   7.243  2.6630 -0.2081  0.6638
48117SOL     OW62342   3.494   9.866   3.110 -0.4476 -0.1217 -0.6184
48117SOL    HW162343   3.550   9.908   3.175  0.8300 -2.6124  0.0450
48117SOL    HW262344   3.543   9.871   3.028 -1.2647  1.4646 -1.0484
48118SOL     OW62345  12.939   2.790   7.219  0.2444  0.2495  0.6769
48118SOL    HW162346  13.020   2.741   7.205  0.5514  0.8495  0.2694
48118SOL    HW262347  12.946   2.865   7.160 -1.3535 -0.5451 -0.6029
48119SOL     OW62348  13.754   8.719  11.818 -0.2327 -0.0074 -0.3338
48119SOL    HW162349  13.691   8.781  11.854  1.2736  1.4869 -0.1419
48119SOL    HW262350  13.836   8.741  11.862 -0.0488 -3.7494  1.6509
48120SOL     OW62351   5.249  10.817   0.122 -0.6179  1.1023  0.3116
48120SOL    HW162352   5.251  10.797   0.215 -1.7052  1.1721  0.3611
48120SOL    HW262353   5.303  10.749   0.081 -0.4780  0.8324  0.9410
48121SOL     OW62354   4.916   1.497   7.601 -0.8844  0.2428 -0.2185
48121SOL    HW162355   4.899   1.580   7.557 -0.3183  0.7574  0.5198
48121SOL    HW262356   4.838   1.481   7.654 -0.8435  0.4801 -0.0880
48122SOL     OW62357   7.606   0.470   6.022 -0.1065  0.3348 -0.6088
48122SOL    HW162358   7.519   0.508   6.037  0.7471  1.5390  1.9533
48122SOL    HW262359   7.656   0.540   5.980  0.5146  0.9252  1.0225
48123SOL     OW62360   2.546  13.055  10.291  0.6136 -0.0924 -0.1742
48123SOL    HW162361   2.467  13.102  10.267  1.4547  1.0258 -0.8684
48123SOL    HW262362   2.550  13.060  10.386  0.1636  0.3758 -0.1800
48124SOL     OW62363  12.707   0.623  12.229 -0.0048  0.0492  0.0257
48124SOL    HW162364  12.782   0.676  12.256 -1.8487  2.6868  0.3396
48124SOL    HW262365  12.692   0.563  12.303  0.3588  1.1510  1.0233
48125SOL     OW62366  12.565   5.200   3.767  0.4493  0.1416  0.7250
48125SOL    HW162367  12.559   5.114   3.809 -0.0697 -0.7623 -1.0710
48125SOL    HW262368  12.497   5.252   3.809 -2.4041 -1.7621 -1.1307
48126SOL     OW62369   1.329   2.750   4.981 -0.3868 -0.4037 -0.3285
48126SOL    HW162370   1.296   2.660   4.993  0.7895 -0.7585  0.3411
48126SOL    HW262371   1.312   2.792   5.065 -0.6126 -0.0899 -0.5289
48127SOL     OW62372   0.275  10.190   5.806  0.3872  0.3556 -0.2410
48127SOL    HW162373   0.198  10.234   5.771 -1.1616 -1.2487  0.9875
48127SOL    HW262374   0.258  10.183   5.900  2.3409  0.5261  0.1730
48128SOL     OW62375   5.163  11.660   3.526  0.5592  0.0918  0.0349
48128SOL    HW162376   5.143  11.588   3.467  2.9079  1.1900 -2.3434
48128SOL    HW262377   5.081  11.709   3.534 -0.3944 -1.3839 -0.3807
48129SOL     OW62378   6.639   6.868  14.059 -0.2325  0.0009  0.2442
48129SOL    HW162379   6.721   6.822  14.046  0.1672  0.2012  1.9454
48129SOL    HW262380   6.656   6.931  14.129 -1.3991  1.1694 -0.4543
48130SOL     OW62381   9.747  12.756   6.173  0.2498 -0.0037  0.1982
48130SOL    HW162382   9.812  12.810   6.128  0.0325 -0.6788 -0.9927
48130SOL    HW262383   9.784  12.739   6.259  0.4014  1.8734  0.5452
48131SOL     OW62384   0.822   8.841  11.135  0.1371  0.2453 -0.1515
48131SOL    HW162385   0.778   8.880  11.060 -1.6306 -0.9126  0.2176
48131SOL    HW262386   0.751   8.817  11.195  1.2505 -1.7734  0.4582
48132SOL     OW62387   2.955  12.462   6.323 -0.2032  0.0213  0.2356
48132SOL    HW162388   2.948  12.456   6.227 -2.6038 -1.2439  0.4266
48132SOL    HW262389   2.928  12.551   6.343 -0.6273 -0.0021 -0.2108
48133SOL     OW62390   0.041   0.692   9.747 -0.0559  0.2506  0.1347
48133SOL    HW162391   0.035   0.683   9.652  1.6523 -0.8213  0.0764
48133SOL    HW262392  -0.028   0.635   9.781  1.6234 -2.2744 -0.4677
48134SOL     OW62393  11.032   4.159  11.925  0.6225  0.0287 -0.1983
48134SOL    HW162394  11.030   4.247  11.887 -2.3301 -0.5205 -1.6320
48134SOL    HW262395  10.973   4.108  11.870 -0.0520 -2.1124  2.3171
48135SOL     OW62396   0.734   7.254  11.205 -0.4597  0.0003  0.3088
48135SOL    HW162397   0.659   7.199  11.227  0.3656 -1.1879  0.2892
48135SOL    HW262398   0.781   7.263  11.289  0.6108 -1.2660 -0.1104
48136SOL     OW62399   6.311  12.178   8.761 -0.6413 -0.2898  0.6668
48136SOL    HW162400   6.403  12.180   8.790 -0.2281 -0.6978 -0.5635
48136SOL    HW262401   6.295  12.266   8.726 -0.4932 -0.4294  0.2393
48137SOL     OW62402   8.569  13.350   6.177 -0.0232 -0.1708 -0.1044
48137SOL    HW162403   8.527  13.368   6.092 -1.4119  1.4835  0.8644
48137SOL    HW262404   8.524  13.273   6.210 -0.7945  0.2784 -0.0704
48138SOL     OW62405   5.746   6.527   6.424  0.3396  0.2225 -0.1164
48138SOL    HW162406   5.682   6.593   6.399  1.4661  0.9789 -1.0789
48138SOL    HW262407   5.703   6.444   6.407  0.0495  0.7129 -2.0197
48139SOL     OW62408  11.511   4.703   6.587 -0.6494 -0.0181  0.2482
48139SOL    HW162409  11.472   4.653   6.658  1.8421 -1.3784  0.7606
48139SOL    HW262410  11.575   4.644   6.548  1.3140  2.2271 -0.1725
48140SOL     OW62411  13.090   9.931   4.843 -0.2039  0.0170 -0.5722
48140SOL    HW162412  13.128   9.843   4.841  0.4176  0.2805 -0.8419
48140SOL    HW262413  13.000   9.918   4.870  0.4956 -0.4859  1.7230
48141SOL     OW62414  10.635   1.763   0.198 -0.7750  0.2005 -0.4423
48141SOL    HW162415  10.586   1.681   0.190 -1.2479  0.5425 -1.0264
48141SOL    HW262416  10.586   1.814   0.262 -0.4406  0.0080 -0.0242
48142SOL     OW62417   8.343   7.601   1.106 -0.3576 -0.0002 -0.4451
48142SOL    HW162418   8.293   7.683   1.104 -1.2544 -0.5397 -1.8628
48142SOL    HW262419   8.355   7.578   1.014 -1.1949 -2.0783 -0.0952
48143SOL     OW62420   6.828  13.918  11.362 -0.3661 -0.3307 -0.4522
48143SOL    HW162421   6.896  13.909  11.297 -0.5564 -1.5822 -0.5065
48143SOL    HW262422   6.856  13.862  11.435 -0.4744  0.5253  0.2662
48144SOL     OW62423  10.936   0.917  11.337 -0.2087 -0.4692  0.2648
48144SOL    HW162424  10.865   0.881  11.390  1.1311 -3.4256  0.2603
48144SOL    HW262425  10.902   0.916  11.248 -1.1181  0.8764  0.5698
48145SOL     OW62426   5.449  11.149   2.400 -0.8840 -0.3251 -0.0413
48145SOL    HW162427   5.442  11.154   2.495 -1.4143 -1.3830 -0.0003
48145SOL    HW262428   5.491  11.230   2.374  0.5641 -0.6248  1.2281
48146SOL     OW62429  12.809   1.783  10.083 -0.2974  0.1051  0.1754
48146SOL    HW162430  12.788   1.784  10.177 -0.1725 -0.5212  0.2172
48146SOL    HW262431  12.831   1.691  10.065 -1.5779 -0.0381 -0.7470
48147SOL     OW62432   5.429   0.786   9.434 -0.0592  0.3872 -0.9600
48147SOL    HW162433   5.346   0.816   9.469  0.7452  0.8990  0.6117
48147SOL    HW262434   5.472   0.865   9.402  0.4350  0.3666 -0.3729
48148SOL     OW62435  13.104   9.155   8.082 -0.7378 -0.0306  0.2485
48148SOL    HW162436  13.010   9.173   8.082 -0.5082  1.2500  0.1349
48148SOL    HW262437  13.128   9.151   7.989 -0.4700  0.9133  0.2632
48149SOL     OW62438   5.326   1.031   6.803  0.1467 -0.0683  0.4697
48149SOL    HW162439   5.313   0.961   6.739 -1.5382  0.6976 -0.1092
48149SOL    HW262440   5.369   0.989   6.877 -0.3944 -1.6126 -0.0485
48150SOL     OW62441  11.162  12.136   6.093 -0.1685  0.3263 -0.2172
48150SOL    HW162442  11.095  12.094   6.148  0.7715  0.3392  0.9791
48150SOL    HW262443  11.168  12.079   6.016 -0.5588 -0.4509  0.3108
48151SOL     OW62444   9.865  12.019   9.736 -0.7885 -0.1845  0.2570
48151SOL    HW162445   9.882  12.094   9.793  0.6222 -0.8534  0.7493
48151SOL    HW262446   9.868  11.943   9.794 -0.8225 -0.7429 -0.4618
48152SOL     OW62447   8.302   3.423   8.911  0.3737  0.0584 -0.4552
48152SOL    HW162448   8.347   3.480   8.973  0.3598 -0.2213 -0.1846
48152SOL    HW262449   8.242   3.371   8.965  0.3435 -0.1700 -0.7048
48153SOL     OW62450   0.240   8.072   6.403 -0.0152 -1.1199 -0.2743
48153SOL    HW162451   0.224   7.985   6.365 -1.9633 -0.0101 -2.2693
48153SOL    HW262452   0.155   8.098   6.440 -0.3150  0.9900 -2.2215
48154SOL     OW62453  12.426   1.564   4.675 -0.2898 -0.0248  0.1597
48154SOL    HW162454  12.463   1.485   4.714 -1.6687 -0.4791  0.5888
48154SOL    HW262455  12.334   1.563   4.701 -0.2953  1.8287  0.3231
48155SOL     OW62456   0.539  13.033   3.001  0.3251  0.2585  0.5167
48155SOL    HW162457   0.519  13.122   3.029  2.8505  0.5823  1.5669
48155SOL    HW262458   0.554  12.985   3.083  0.1731 -0.8374 -0.0723
48156SOL     OW62459   7.359   1.957  12.416  0.1074 -0.1814 -0.5254
48156SOL    HW162460   7.357   1.965  12.321  2.9906  0.2317 -0.6285
48156SOL    HW262461   7.357   2.047  12.448  1.2433 -0.2059 -0.3299
48157SOL     OW62462  12.459   5.069  12.318 -0.2250 -0.0051  0.0636
48157SOL    HW162463  12.460   5.107  12.406  0.1834 -0.5691  0.3083
48157SOL    HW262464  12.512   5.129  12.266 -2.0526  1.4042 -0.2755
48158SOL     OW62465   8.216  13.112   0.622  0.1412 -0.2463 -0.3143
48158SOL    HW162466   8.287  13.074   0.570  0.3960  0.6946 -0.6674
48158SOL    HW262467   8.183  13.184   0.569 -1.3488 -0.9101 -0.3223
48159SOL     OW62468   6.191   8.550   0.978 -0.2742 -0.1406 -0.0042
48159SOL    HW162469   6.165   8.480   1.038 -0.1606 -0.0757  0.1210
48159SOL    HW262470   6.285   8.559   0.992 -0.2205 -0.2392 -0.3124
48160SOL     OW62471   9.553   7.411   7.851  0.2211  0.0048  0.0358
48160SOL    HW162472   9.602   7.361   7.916 -1.7149  0.6431  2.0862
48160SOL    HW262473   9.532   7.494   7.895  1.2736  1.7097 -2.4252
48161SOL     OW62474   7.979  11.468  10.877  0.2455 -0.6033  0.5109
48161SOL    HW162475   8.063  11.508  10.852 -1.0072  0.2600 -2.8640
48161SOL    HW262476   7.941  11.530  10.940  1.4463 -0.2172  0.8821
48162SOL     OW62477   6.721   1.444  12.177 -0.5218  0.3679  0.3876
48162SOL    HW162478   6.798   1.391  12.199 -0.8817 -0.0944  0.5555
48162SOL    HW262479   6.755   1.533  12.167 -0.1360  0.3905  1.6550
48163SOL     OW62480   4.934  11.916   4.408 -0.4215  0.4445  0.0068
48163SOL    HW162481   4.998  11.962   4.463  0.0482 -0.6578  0.4011
48163SOL    HW262482   4.852  11.923   4.457  0.4508 -2.6027  2.1670
48164SOL     OW62483   9.956   6.617   6.638 -0.4881 -0.1537 -0.1354
48164SOL    HW162484  10.006   6.669   6.574 -1.7572 -0.0935 -1.1187
48164SOL    HW262485  10.003   6.534   6.644  0.4097  0.3404 -0.0960
48165SOL     OW62486   0.793  13.882   6.326 -0.7882  0.3945 -0.1707
48165SOL    HW162487   0.783  13.977   6.341  1.4174  0.7517 -0.5581
48165SOL    HW262488   0.715  13.844   6.364 -1.3805  2.3271  0.7052
48166SOL     OW62489   0.162   4.023   1.116 -0.6937  0.0212  0.2051
48166SOL    HW162490   0.101   4.057   1.050 -1.4775 -0.5822  0.5949
48166SOL    HW262491   0.236   4.082   1.114 -1.3574  0.8539 -0.2038
48167SOL     OW62492  10.606   5.442   2.219 -0.3509  0.4032 -0.0554
48167SOL    HW162493  10.525   5.482   2.189 -0.6096  1.5850  2.0317
48167SOL    HW262494  10.666   5.448   2.144 -1.5554  1.3391 -0.9669
48168SOL     OW62495  11.095   4.313   9.425  0.8646 -0.1069 -0.1025
48168SOL    HW162496  11.173   4.286   9.376  0.4676 -0.0956 -0.7496
48168SOL    HW262497  11.022   4.284   9.371  0.4047 -0.6891  0.8099
48169SOL     OW62498   7.448   8.862   8.049 -0.6939 -0.3632  0.7103
48169SOL    HW162499   7.504   8.938   8.064  0.1178 -0.8447  0.2449
48169SOL    HW262500   7.424   8.831   8.136 -0.1018 -0.2392  0.9192
48170SOL     OW62501  12.962   4.958   5.361 -0.0657  0.1855  0.9789
48170SOL    HW162502  12.994   4.877   5.320 -0.2498  1.0607 -0.9992
48170SOL    HW262503  12.876   4.935   5.396  0.0682 -0.5801  0.8236
48171SOL     OW62504   4.424  13.712   3.516 -0.4311 -0.5121  0.1584
48171SOL    HW162505   4.416  13.707   3.421  1.1348 -2.1905  0.0455
48171SOL    HW262506   4.497  13.772   3.531  0.7022 -1.8306  0.1559
48172SOL     OW62507   1.099   5.947   6.706  0.5114 -0.4638 -0.1120
48172SOL    HW162508   1.004   5.941   6.705  0.4877 -0.1562  0.0688
48172SOL    HW262509   1.117   6.041   6.704  0.8377 -0.5249 -1.8101
48173SOL     OW62510   1.392   1.276  11.218  0.0197 -0.3438 -0.2097
48173SOL    HW162511   1.447   1.350  11.245 -2.3475  1.3589  0.2507
48173SOL    HW262512   1.444   1.230  11.152  2.1340  0.9055  0.4819
48174SOL     OW62513  12.854  11.938  11.710 -0.0515 -0.1374  0.1576
48174SOL    HW162514  12.830  12.023  11.675 -0.8785 -1.3292 -2.4166
48174SOL    HW262515  12.930  11.955  11.766  1.1916  2.0532 -1.9886
48175SOL     OW62516   9.128   1.240   1.496  0.0535 -0.1463 -0.5738
48175SOL    HW162517   9.130   1.161   1.550 -0.5621  1.1161  1.4022
48175SOL    HW262518   9.218   1.273   1.500 -0.2964  0.7069  0.9400
48176SOL     OW62519   2.377   4.079   6.490 -0.3840  0.1099 -0.0178
48176SOL    HW162520   2.450   4.141   6.475  0.9749 -1.1748  0.9837
48176SOL    HW262521   2.394   4.043   6.576 -0.6554 -2.2885 -0.8990
48177SOL     OW62522   0.604  10.076  11.245 -0.1019  0.2494 -0.1286
48177SOL    HW162523   0.596  10.170  11.235 -0.6967  0.0837 -1.4665
48177SOL    HW262524   0.513  10.045  11.252  0.0915 -0.2135  0.4626
48178SOL     OW62525   5.687   2.246   5.530 -0.1660 -0.0752  0.5099
48178SOL    HW162526   5.719   2.281   5.447  1.8496 -1.3721  0.6757
48178SOL    HW262527   5.740   2.290   5.596 -0.0259 -0.8606  0.9289
48179SOL     OW62528   2.602   8.962   2.892  0.9403  0.2938 -0.4348
48179SOL    HW162529   2.624   8.870   2.881  0.3505  0.2944 -1.7800
48179SOL    HW262530   2.633   9.005   2.812 -2.5930  0.4913 -1.8740
48180SOL     OW62531  11.459   8.211   5.064 -0.0540  0.9935  0.1932
48180SOL    HW162532  11.464   8.143   4.996 -1.1781  1.4200 -0.3441
48180SOL    HW262533  11.544   8.207   5.107  0.1476 -0.3167 -0.2495
48181SOL     OW62534  10.664   0.998   6.633  0.4368  0.3753  0.1147
48181SOL    HW162535  10.687   0.924   6.689  3.0104  0.6139 -0.5057
48181SOL    HW262536  10.735   1.003   6.569  0.5676  3.5861  0.3573
48182SOL     OW62537   4.346   1.531   7.211  0.2474 -0.3663 -0.1536
48182SOL    HW162538   4.436   1.527   7.244  0.9053  0.8765 -1.6572
48182SOL    HW262539   4.328   1.625   7.203 -1.6297 -0.5491  1.1795
48183SOL     OW62540   6.344   3.692  12.405 -0.0328  0.0236  0.0058
48183SOL    HW162541   6.401   3.617  12.389  0.6585  1.0121 -2.7924
48183SOL    HW262542   6.390   3.766  12.365 -2.3800  1.2216 -0.6893
48184SOL     OW62543  12.301   6.088   9.016 -0.5719 -0.2665 -0.2593
48184SOL    HW162544  12.365   6.125   9.077  0.1645 -0.3118 -0.9931
48184SOL    HW262545  12.240   6.041   9.072  0.7247 -1.2570  0.3809
48185SOL     OW62546   7.206   2.483  10.677  0.3014 -0.0753 -0.2000
48185SOL    HW162547   7.212   2.483  10.581 -0.7246 -2.0766 -0.3134
48185SOL    HW262548   7.280   2.429  10.705 -0.1268 -0.5294  0.0598
48186SOL     OW62549   4.329  13.995   3.451 -0.1295 -0.0058 -0.6825
48186SOL    HW162550   4.425  14.000   3.452 -0.0798 -0.8709 -0.0196
48186SOL    HW262551   4.301  14.086   3.441  0.7619  0.2766 -0.7192
48187SOL     OW62552   0.504   0.974  11.380 -0.0648 -0.0966  0.7329
48187SOL    HW162553   0.429   1.005  11.329 -0.1035  0.9668  1.4050
48187SOL    HW262554   0.559   0.928  11.316 -1.2571 -0.8688  0.2322
48188SOL     OW62555   3.891   9.165   3.355 -0.4688  0.1535  1.2028
48188SOL    HW162556   3.984   9.141   3.359 -0.7863 -0.9819  2.5356
48188SOL    HW262557   3.856   9.114   3.282 -0.2755 -0.3179  1.4332
48189SOL     OW62558   7.049  13.618   8.078  0.5481  0.3316 -0.3503
48189SOL    HW162559   7.117  13.572   8.127 -0.3198 -1.7417 -1.0096
48189SOL    HW262560   7.085  13.626   7.989 -0.7462 -2.5210 -1.2204
48190SOL     OW62561   8.644   5.200   7.448 -0.2620  0.5400  1.0335
48190SOL    HW162562   8.735   5.226   7.458 -0.2213  0.6487  0.4279
48190SOL    HW262563   8.598   5.245   7.519 -0.0505  1.5816  0.5271
48191SOL     OW62564   6.292   5.419  10.846  0.4724  0.1372 -0.4136
48191SOL    HW162565   6.340   5.392  10.924 -1.8653 -1.3540  0.6346
48191SOL    HW262566   6.276   5.338  10.798 -0.3856  0.6709 -1.0606
48192SOL     OW62567   1.771   1.744   6.468  0.4519 -0.4596  0.2474
48192SOL    HW162568   1.829   1.765   6.542  0.4622 -1.7119  0.6121
48192SOL    HW262569   1.736   1.829   6.441  1.1273  0.1230  1.1254
48193SOL     OW62570   2.560   0.678   2.877 -0.8698 -0.4901 -0.0906
48193SOL    HW162571   2.478   0.712   2.844 -0.3833  0.9947  0.1766
48193SOL    HW262572   2.618   0.754   2.884  1.1668 -1.7337 -2.0564
48194SOL     OW62573   9.718   5.697   0.484 -0.2284  0.3477 -0.1503
48194SOL    HW162574   9.676   5.731   0.405 -0.4520  2.8679  0.9269
48194SOL    HW262575   9.645   5.684   0.545 -0.1594 -2.4392 -0.5758
48195SOL     OW62576   0.138   9.671  12.571 -0.2260  0.0852 -0.0580
48195SOL    HW162577   0.230   9.693  12.562 -0.0420 -0.1762  1.0670
48195SOL    HW262578   0.092   9.739  12.522  0.4670  1.3999  1.0563
48196SOL     OW62579   0.034   0.851   6.362  0.1315 -0.4021 -0.9409
48196SOL    HW162580  -0.053   0.890   6.358  1.1123  1.9753 -0.4567
48196SOL    HW262581   0.086   0.912   6.414  2.3837 -1.2109 -2.1101
48197SOL     OW62582  12.452   2.270   3.099 -0.4443 -0.2069 -0.4115
48197SOL    HW162583  12.535   2.293   3.058  0.1451  0.9230  1.3105
48197SOL    HW262584  12.462   2.178   3.124  0.1773 -0.1532 -0.4585
48198SOL     OW62585   9.397  11.926   4.277  0.4232 -0.0378 -0.1869
48198SOL    HW162586   9.481  11.926   4.232  0.3292 -0.7639 -0.3700
48198SOL    HW262587   9.420  11.943   4.369  1.0412 -2.3957  0.1866
48199SOL     OW62588  10.444   8.180   8.049 -0.3014 -0.1668 -0.3526
48199SOL    HW162589  10.475   8.164   8.138 -1.2300 -0.4246 -0.0608
48199SOL    HW262590  10.502   8.248   8.014 -1.6541  2.0616  1.4687
48200SOL     OW62591   2.079   1.447   2.841  0.0246 -0.1033  0.6122
48200SOL    HW162592   2.030   1.371   2.873 -0.2176 -1.3122 -2.2781
48200SOL    HW262593   2.012   1.513   2.824 -0.2958 -0.6518 -0.3994
48201SOL     OW62594   7.795   3.202   8.998  0.0321 -0.3663  0.1339
48201SOL    HW162595   7.831   3.225   8.913  1.0333 -2.3410 -0.0473
48201SOL    HW262596   7.865   3.223   9.060  1.4687 -3.6052 -0.1515
48202SOL     OW62597   4.643  14.134   9.139  0.5196 -0.0284  0.0959
48202SOL    HW162598   4.733  14.152   9.166  0.6581 -1.1181  0.4148
48202SOL    HW262599   4.621  14.051   9.181 -0.4480 -0.0549 -0.4185
48203SOL     OW62600   4.163   1.379  13.363  0.7859 -0.3164  0.6105
48203SOL    HW162601   4.137   1.345  13.448 -1.5647  0.5567  0.3304
48203SOL    HW262602   4.140   1.472  13.367  0.1440 -0.3633 -1.1090
48204SOL     OW62603   7.279   8.868   2.990 -0.6713  0.2842 -0.1549
48204SOL    HW162604   7.297   8.960   3.009 -0.8328  0.0541  1.2627
48204SOL    HW262605   7.235   8.869   2.905  0.2207  1.4108 -0.6234
48205SOL     OW62606   5.523   1.057   3.950 -0.4334  0.3723  0.6175
48205SOL    HW162607   5.444   1.043   3.898 -0.0013  0.6566 -0.1340
48205SOL    HW262608   5.583   0.988   3.922  0.5729  1.7617 -0.8462
48206SOL     OW62609  12.767   9.089   3.540 -0.0120 -0.0437  0.0711
48206SOL    HW162610  12.704   9.069   3.609 -0.7378  0.0007 -0.5678
48206SOL    HW262611  12.807   9.172   3.566 -1.8851  1.1588 -0.6354
48207SOL     OW62612  13.022   4.997   7.591  0.0769  0.4974 -0.1924
48207SOL    HW162613  13.046   4.935   7.522  2.3582  0.3347  0.6654
48207SOL    HW262614  13.029   4.946   7.672  0.3258  1.4464  0.3929
48208SOL     OW62615   1.502   8.012   7.276  0.1648 -0.5476 -0.0970
48208SOL    HW162616   1.484   7.938   7.218 -0.8690  0.2019 -0.7585
48208SOL    HW262617   1.528   7.971   7.359  0.5980 -1.6365 -0.7386
48209SOL     OW62618   1.982   5.520   1.236 -0.5785 -0.3544 -0.4431
48209SOL    HW162619   1.890   5.492   1.238 -0.3720 -1.1442  2.1333
48209SOL    HW262620   2.011   5.513   1.327  2.4599 -1.4917 -1.3677
48210SOL     OW62621  11.303  11.082  14.116 -0.6938  0.3735 -0.3140
48210SOL    HW162622  11.261  11.119  14.038 -3.0708 -1.5869 -0.1031
48210SOL    HW262623  11.233  11.082  14.181  0.6318 -0.0480  1.1446
48211SOL     OW62624  10.907   3.841  10.631 -0.1274 -0.5677 -0.0990
48211SOL    HW162625  11.001   3.823  10.624  0.0259  0.6744 -2.0579
48211SOL    HW262626  10.883   3.875  10.545 -2.1751  0.1218  0.6905
48212SOL     OW62627  13.519   2.308   4.316 -0.5988 -0.3507  0.2135
48212SOL    HW162628  13.481   2.242   4.373  0.1087 -0.4523  0.5697
48212SOL    HW262629  13.613   2.290   4.317 -0.3823  0.7375  0.4171
48213SOL     OW62630   1.695   1.030   8.294  0.2814  0.8719 -0.2574
48213SOL    HW162631   1.774   1.085   8.293 -0.0665  1.3756 -0.0834
48213SOL    HW262632   1.626   1.087   8.260 -0.0084  0.4224 -0.4306
48214SOL     OW62633   7.449  12.539   2.770  0.3600  0.2534 -0.0319
48214SOL    HW162634   7.375  12.495   2.729  0.0823  1.4413 -0.8365
48214SOL    HW262635   7.411  12.615   2.814  0.9821  0.3479  0.3579
48215SOL     OW62636   8.864   6.837   3.851 -0.4550  0.1023 -0.7474
48215SOL    HW162637   8.829   6.879   3.930 -0.4729 -1.2880 -0.0015
48215SOL    HW262638   8.871   6.745   3.874  1.6104 -0.0082 -1.6308
48216SOL     OW62639   9.433  13.448  12.668 -0.5081 -0.1550 -0.5007
48216SOL    HW162640   9.471  13.440  12.580 -2.9438  1.3290 -1.8193
48216SOL    HW262641   9.386  13.366  12.681 -0.1890 -0.3588 -0.6169
48217SOL     OW62642   6.458   9.595   0.628 -0.2980  0.3837 -0.7005
48217SOL    HW162643   6.534   9.539   0.644  0.4106  1.2129 -1.0737
48217SOL    HW262644   6.440   9.586   0.535 -1.4218 -0.7216 -0.4094
48218SOL     OW62645  11.989   0.515  13.330  0.4970 -0.0031  0.6260
48218SOL    HW162646  11.894   0.505  13.335  0.3628 -0.4435 -1.8477
48218SOL    HW262647  12.019   0.496  13.419 -1.8072  1.5461  1.8418
48219SOL     OW62648   6.490   8.311   2.760  0.1720  0.5554 -0.1111
48219SOL    HW162649   6.556   8.302   2.829 -1.0708 -0.7193  0.9559
48219SOL    HW262650   6.443   8.392   2.782 -0.4757 -0.0512  0.7875
48220SOL     OW62651   2.137  11.378   7.796 -0.5621 -0.2091  0.3961
48220SOL    HW162652   2.069  11.420   7.848  1.0892  3.3980  0.0009
48220SOL    HW262653   2.112  11.397   7.705 -0.4202 -1.3024  0.1178
48221SOL     OW62654   2.876  11.746   3.065  0.3472 -0.0466  0.2386
48221SOL    HW162655   2.843  11.665   3.106 -3.0947  1.9724  1.9582
48221SOL    HW262656   2.901  11.801   3.139  0.8261  1.1678 -0.7993
48222SOL     OW62657   5.164   7.323   2.281 -0.0435  0.4767  0.2354
48222SOL    HW162658   5.223   7.253   2.254  0.1525  0.5281  0.5236
48222SOL    HW262659   5.220   7.383   2.331 -0.2487  0.7436  0.1489
48223SOL     OW62660   3.675   5.815   8.199  0.0992 -0.0696 -0.5157
48223SOL    HW162661   3.647   5.829   8.290 -1.1388  2.5965 -1.2251
48223SOL    HW262662   3.629   5.735   8.172 -0.9171  0.0885  0.6651
48224SOL     OW62663   5.689  11.518   4.169 -0.4073 -0.3262 -0.2577
48224SOL    HW162664   5.784  11.514   4.163 -0.3599  0.6838 -0.3375
48224SOL    HW262665   5.664  11.435   4.211  0.6618  0.2846  1.6933
48225SOL     OW62666   0.515  10.553   8.902  0.4924  0.0320  0.0746
48225SOL    HW162667   0.573  10.592   8.837 -0.7964  1.3204 -0.3761
48225SOL    HW262668   0.552  10.467   8.920  1.6378  0.1975 -1.3498
48226SOL     OW62669  13.364   5.044  11.236  0.0314  0.3410  0.0761
48226SOL    HW162670  13.395   5.013  11.151 -0.7732  0.1940 -0.1762
48226SOL    HW262671  13.269   5.033  11.232 -0.0444  0.6323  0.8765
48227SOL     OW62672   8.762   8.755   9.379  0.6057  1.1738  0.3628
48227SOL    HW162673   8.726   8.746   9.467  0.7663 -0.6368  0.2861
48227SOL    HW262674   8.717   8.688   9.327  0.3174  2.3889 -1.0238
48228SOL     OW62675  13.730  11.006   7.185 -0.1736  0.0731  0.4248
48228SOL    HW162676  13.807  10.951   7.174 -1.1493 -1.3219  0.2632
48228SOL    HW262677  13.710  11.037   7.096  0.7315  1.2112  0.6058
48229SOL     OW62678  10.283   9.128   2.623 -0.0527 -0.2609 -0.4862
48229SOL    HW162679  10.240   9.206   2.590 -0.8104  0.1961  1.4978
48229SOL    HW262680  10.278   9.134   2.718 -0.1348 -2.7124 -0.2488
48230SOL     OW62681   5.182   4.689  11.378 -0.6797 -0.1031  0.2698
48230SOL    HW162682   5.260   4.743  11.382 -1.3639  1.1401 -1.7901
48230SOL    HW262683   5.209   4.612  11.328 -0.9402  0.6951 -1.1331
48231SOL     OW62684   6.184   4.907  13.792  0.1259 -0.0920 -0.1609
48231SOL    HW162685   6.156   4.944  13.876 -1.1547  1.1301 -1.0719
48231SOL    HW262686   6.147   4.966  13.727  0.6211 -1.3257 -1.6113
48232SOL     OW62687  13.669   1.971  12.022  0.4212  0.3350 -0.0725
48232SOL    HW162688  13.709   2.012  12.098 -1.2089  0.0506  0.9969
48232SOL    HW262689  13.603   2.033  11.992 -0.6611 -0.5945  0.3075
48233SOL     OW62690   5.185   4.195  12.183 -0.4712  0.2370 -0.5237
48233SOL    HW162691   5.111   4.135  12.186 -1.8803  1.9107 -0.0568
48233SOL    HW262692   5.259   4.141  12.157 -1.4963 -1.8364  0.6591
48234SOL     OW62693   2.175  10.861  13.635 -0.1901 -0.2563 -0.1995
48234SOL    HW162694   2.223  10.884  13.715  0.1429 -1.2307 -0.1039
48234SOL    HW262695   2.234  10.885  13.564  0.8674 -2.2072 -0.0735
48235SOL     OW62696  10.018  13.064   2.284 -0.3025  0.4821  0.2520
48235SOL    HW162697  10.011  12.982   2.234  0.4283  0.5588  0.0198
48235SOL    HW262698  10.036  13.036   2.373  3.2041  0.3829 -0.3447
48236SOL     OW62699   9.347   0.775  12.650  0.8866 -0.2224 -0.1775
48236SOL    HW162700   9.361   0.767  12.744  0.8235  0.0107 -0.1494
48236SOL    HW262701   9.262   0.734  12.635  1.4302 -1.3446 -0.3036
48237SOL     OW62702   3.941   3.785   9.188 -0.9350 -0.7541  0.7870
48237SOL    HW162703   3.975   3.838   9.260  0.5610  0.9631 -1.0697
48237SOL    HW262704   4.010   3.787   9.121 -2.1748 -2.4148 -0.6483
48238SOL     OW62705   6.039   1.419   2.799  0.0911 -0.0059 -0.1469
48238SOL    HW162706   6.063   1.334   2.837  1.7088 -0.3428 -1.7697
48238SOL    HW262707   6.063   1.483   2.866  0.2827 -0.7254  0.4906
48239SOL     OW62708   1.824   6.221   3.035  0.0222 -0.7202  0.2445
48239SOL    HW162709   1.857   6.261   3.115 -0.0216 -0.9184  0.3643
48239SOL    HW262710   1.813   6.128   3.057 -0.9466 -0.6011  0.3233
48240SOL     OW62711   0.312   4.694  12.264 -0.1018  0.1310  0.2693
48240SOL    HW162712   0.301   4.612  12.313  1.3041 -1.1284 -1.3672
48240SOL    HW262713   0.224   4.719  12.238 -0.4096 -2.3372 -1.3784
48241SOL     OW62714   7.405  12.471   8.602  0.0303 -0.2504 -0.4284
48241SOL    HW162715   7.484  12.437   8.559  0.5348  1.1231 -0.6579
48241SOL    HW262716   7.438  12.519   8.678 -0.8202 -2.2018  1.2869
48242SOL     OW62717   2.953   1.690   5.079  0.0546 -0.3104  0.2116
48242SOL    HW162718   2.934   1.661   4.990  0.3435 -0.9968  0.3644
48242SOL    HW262719   2.874   1.669   5.129 -0.1440  0.1635  0.0991
48243SOL     OW62720  12.309   1.128   9.401 -0.3107  0.4241 -0.0500
48243SOL    HW162721  12.399   1.098   9.390 -0.7372 -0.1623 -2.6027
48243SOL    HW262722  12.300   1.142   9.495  2.4812  0.6903  0.2641
48244SOL     OW62723  11.775   0.746   2.999 -0.0149  0.2154 -0.1457
48244SOL    HW162724  11.827   0.687   2.944 -1.2736 -1.3330  0.2659
48244SOL    HW262725  11.689   0.749   2.958 -1.1961 -1.5069  2.0066
48245SOL     OW62726   8.289   4.075   5.571  0.1542  0.2877 -0.1367
48245SOL    HW162727   8.241   4.153   5.546  0.6966  0.4393 -0.7203
48245SOL    HW262728   8.379   4.105   5.582 -0.1959  0.4929  3.1727
48246SOL     OW62729   1.114  12.945   0.048  0.6498  0.3282 -0.2728
48246SOL    HW162730   1.200  12.904   0.038  1.1097  1.0340  0.5989
48246SOL    HW262731   1.056  12.893  -0.008  1.0972 -1.8048  1.0875
48247SOL     OW62732   8.943   8.056   2.488 -0.7296 -0.2465  0.5586
48247SOL    HW162733   8.963   8.052   2.582  0.0336  0.5819  0.4422
48247SOL    HW262734   9.015   8.009   2.446 -0.7101 -0.0188  0.3387
48248SOL     OW62735   5.007   9.983   6.075 -0.2630  0.2703  0.1828
48248SOL    HW162736   4.994  10.077   6.081 -1.1374  0.2454 -0.9433
48248SOL    HW262737   4.963   9.947   6.152  0.6951  0.8068  1.0064
48249SOL     OW62738   0.038  13.464   6.946 -0.0209  0.2057 -0.2515
48249SOL    HW162739   0.114  13.504   6.904 -0.1874 -0.8616 -1.6053
48249SOL    HW262740   0.044  13.371   6.926 -1.6025  0.0693 -0.2780
48250SOL     OW62741  11.145   5.778  11.242  0.5524 -0.0252  0.1143
48250SOL    HW162742  11.175   5.861  11.277  0.7505 -0.5534  1.2380
48250SOL    HW262743  11.224   5.734  11.210  0.8684 -0.8909  1.9537
48251SOL     OW62744   8.181   5.058   6.930  1.0809 -0.2806 -0.4746
48251SOL    HW162745   8.094   5.018   6.937  0.8283  0.1798 -0.8911
48251SOL    HW262746   8.180   5.128   6.995  0.4104  0.9996 -1.7991
48252SOL     OW62747   3.945  13.121   7.465  0.3230 -0.1069  0.9003
48252SOL    HW162748   3.998  13.119   7.385 -1.2085 -0.8292 -0.1489
48252SOL    HW262749   3.958  13.035   7.504  0.3423 -0.0893  0.9335
48253SOL     OW62750  13.269   1.464   4.670  0.3008 -0.4792 -0.6056
48253SOL    HW162751  13.221   1.398   4.721 -1.8337 -0.6115 -2.6123
48253SOL    HW262752  13.321   1.412   4.609  1.6134 -0.2912  0.3057
48254SOL     OW62753  10.898   9.771   9.886  0.4889 -0.6018  0.9061
48254SOL    HW162754  10.936   9.746   9.802 -0.2855 -0.1396  0.4102
48254SOL    HW262755  10.843   9.697   9.911 -1.9522  0.5757 -0.6532
48255SOL     OW62756   5.918  13.240   4.690  0.5558 -0.5431  0.1925
48255SOL    HW162757   5.893  13.152   4.661  2.0874 -0.3896 -1.8169
48255SOL    HW262758   6.007  13.252   4.657  1.2071  0.9885  2.2806
48256SOL     OW62759   6.099   5.504  13.422  0.4318 -0.4722 -0.7722
48256SOL    HW162760   6.179   5.496  13.476 -1.0036 -0.4576  1.4885
48256SOL    HW262761   6.114   5.582  13.370  2.4185 -1.1876 -1.3854
48257SOL     OW62762   9.996   3.388   5.718 -0.0218 -0.1222 -0.1695
48257SOL    HW162763  10.067   3.415   5.776  0.5406  0.6943 -1.1976
48257SOL    HW262764  10.032   3.315   5.668  0.2982  0.6490 -1.0800
48258SOL     OW62765  11.590   5.586  10.754 -0.4079  0.5292  0.0497
48258SOL    HW162766  11.638   5.628  10.682  0.3935 -1.5270 -0.6857
48258SOL    HW262767  11.599   5.492  10.737  0.5797 -0.0809  3.3283
48259SOL     OW62768  13.996  10.698  11.531  0.5000 -0.0837  0.2288
48259SOL    HW162769  14.062  10.642  11.490  0.0292 -0.7000  0.2969
48259SOL    HW262770  13.929  10.708  11.463  0.1570 -0.3473  0.5268
48260SOL     OW62771   4.639  11.604  12.280  0.2575 -0.2382 -0.0412
48260SOL    HW162772   4.625  11.571  12.369 -0.7415 -0.8106 -0.4006
48260SOL    HW262773   4.675  11.529  12.232  1.3939  0.2475  0.0184
48261SOL     OW62774   8.358  11.409  10.289 -0.3804  0.5030 -0.0269
48261SOL    HW162775   8.311  11.348  10.232  0.6150  0.5828 -0.9718
48261SOL    HW262776   8.322  11.393  10.376 -1.2523 -0.3120 -0.5101
48262SOL     OW62777   3.022   1.281   8.215  0.3776  0.2080  0.2676
48262SOL    HW162778   2.980   1.350   8.267  2.8126  0.8139  1.6181
48262SOL    HW262779   3.098   1.324   8.176 -0.5103 -0.6578 -2.6380
48263SOL     OW62780   9.764   8.523   8.583 -0.0433 -0.0335 -0.2724
48263SOL    HW162781   9.688   8.572   8.550 -0.6495  0.9425  2.3580
48263SOL    HW262782   9.812   8.586   8.636  0.4593 -1.6417  1.2695
48264SOL     OW62783   6.975   6.520   6.688  0.2627  0.3313  0.0115
48264SOL    HW162784   6.965   6.548   6.779  0.1252 -1.5388  0.6124
48264SOL    HW262785   7.060   6.478   6.686 -0.6689 -1.6638 -0.1165
48265SOL     OW62786  10.591   0.960   5.497  0.4155 -0.2136 -0.1962
48265SOL    HW162787  10.538   0.882   5.517  0.0899  0.4168  1.6650
48265SOL    HW262788  10.634   0.980   5.580 -1.5705  3.0813  0.2185
48266SOL     OW62789  12.619   8.039   4.448 -0.0814 -0.0843  0.1745
48266SOL    HW162790  12.650   7.984   4.520 -1.4202 -0.1060  0.7570
48266SOL    HW262791  12.684   8.024   4.378  1.0360 -0.3357  1.2262
48267SOL     OW62792  11.674  11.145   7.468  0.3017  0.2289 -0.0592
48267SOL    HW162793  11.627  11.228   7.473  0.5469  0.4083 -0.6045
48267SOL    HW262794  11.736  11.147   7.541 -1.1226 -0.3973  1.2126
48268SOL     OW62795   4.045   6.901  12.246  0.0159 -0.5294  0.4163
48268SOL    HW162796   3.983   6.830  12.230  2.0003 -2.0259 -1.2117
48268SOL    HW262797   4.010   6.975  12.197 -2.7045  0.1466  3.0630
48269SOL     OW62798   3.401   4.078   2.113  0.5365  0.3519  0.2031
48269SOL    HW162799   3.442   3.995   2.139  0.3468  0.0543 -0.4185
48269SOL    HW262800   3.331   4.091   2.177 -0.5361 -0.8581 -0.6522
48270SOL     OW62801  10.097   1.830   6.140  0.4256  0.3711 -0.7269
48270SOL    HW162802  10.142   1.907   6.105 -1.5516  2.1303  0.3605
48270SOL    HW262803  10.006   1.841   6.112  0.0660 -1.5486 -0.4501
48271SOL     OW62804   5.994   2.525   0.622  0.5005  0.8544  0.2562
48271SOL    HW162805   5.956   2.471   0.552 -1.4201  1.2890  0.8810
48271SOL    HW262806   5.976   2.476   0.702 -1.8729  2.5769  0.9155
48272SOL     OW62807   3.705  13.149   7.262 -0.1095 -0.0128 -0.0761
48272SOL    HW162808   3.798  13.128   7.255  0.3522  2.1574 -1.5037
48272SOL    HW262809   3.703  13.237   7.298 -1.6926 -0.4586  1.0062
48273SOL     OW62810   1.153   0.263   2.971  0.6688  0.1872  0.0933
48273SOL    HW162811   1.097   0.196   2.931 -0.2802 -0.0617  1.7643
48273SOL    HW262812   1.242   0.226   2.965  0.2855 -0.7800  0.1235
48274SOL     OW62813   0.450  12.804   4.798 -0.5827  0.3097 -0.0228
48274SOL    HW162814   0.428  12.775   4.710 -0.4917  0.8694 -0.2312
48274SOL    HW262815   0.542  12.831   4.792 -0.6397  0.5555  0.1895
48275SOL     OW62816   4.946  13.798   1.438 -0.1262  0.1242 -0.7183
48275SOL    HW162817   4.987  13.712   1.450  0.8708  0.3012 -2.5123
48275SOL    HW262818   4.862  13.779   1.396 -0.1167  0.0133 -0.6873
48276SOL     OW62819   8.194   8.028   6.495 -0.3046  0.2498 -0.3340
48276SOL    HW162820   8.180   8.078   6.575  2.2478 -0.4764  0.6646
48276SOL    HW262821   8.282   8.052   6.467  0.5547 -2.6913 -0.4780
48277SOL     OW62822   0.120  13.766   5.341  1.0209  0.1927 -0.0621
48277SOL    HW162823   0.175  13.844   5.351  0.6628  0.9597 -3.1497
48277SOL    HW262824   0.033  13.800   5.321  0.5861 -1.0078 -0.3066
48278SOL     OW62825   2.879  10.262   3.205  0.2850  0.2458  0.1460
48278SOL    HW162826   2.879  10.353   3.236 -3.8843  1.0375 -1.4318
48278SOL    HW262827   2.837  10.266   3.119  1.6876 -3.0239 -0.8474
48279SOL     OW62828  11.499   5.407   2.873 -0.6952  0.3060  0.2214
48279SOL    HW162829  11.472   5.432   2.961 -1.4526  0.1160  0.0439
48279SOL    HW262830  11.492   5.487   2.821 -2.0583  0.0108 -0.0901
48280SOL     OW62831  13.970   3.192  12.256 -0.1164  0.4204  0.0313
48280SOL    HW162832  13.950   3.193  12.350 -1.1203 -0.8335 -0.1324
48280SOL    HW262833  13.992   3.101  12.237 -1.1079  0.3987 -1.1710
48281SOL     OW62834   1.169   9.309   6.831 -0.7802 -0.2482 -0.2000
48281SOL    HW162835   1.174   9.404   6.822 -0.6233 -0.2520 -0.1565
48281SOL    HW262836   1.099   9.293   6.894 -1.5177 -0.1958 -0.9869
48282SOL     OW62837   0.117   1.961  12.895 -0.0583  0.1044 -0.7996
48282SOL    HW162838   0.082   1.969  12.984 -2.3981  0.8114 -1.7100
48282SOL    HW262839   0.077   1.881  12.861 -0.8321  0.9193 -1.8671
48283SOL     OW62840  12.906   0.394   7.454 -0.7658 -0.0880 -0.3651
48283SOL    HW162841  12.876   0.473   7.409  1.1075  0.5101 -0.6675
48283SOL    HW262842  12.953   0.345   7.387  0.6079 -0.0050  0.4957
48284SOL     OW62843   5.167  10.409  10.409  0.2623  0.0980 -0.3906
48284SOL    HW162844   5.250  10.368  10.382  0.0275  0.1036 -1.1402
48284SOL    HW262845   5.107  10.336  10.423 -0.2675  0.1670 -2.0978
48285SOL     OW62846   6.178   3.110  13.060 -0.3817 -0.7282  0.1203
48285SOL    HW162847   6.190   3.024  13.101  1.6020 -1.1500 -1.1800
48285SOL    HW262848   6.104   3.097  13.000 -0.5676 -1.3118  0.4606
48286SOL     OW62849   0.477  12.171  11.765 -0.1603  0.0253 -0.0351
48286SOL    HW162850   0.546  12.235  11.784  1.3553 -1.4597 -0.2470
48286SOL    HW262851   0.404  12.223  11.731  1.0356  1.6084 -0.2908
48287SOL     OW62852   6.330  11.409  12.907 -0.1479  0.1611  0.1924
48287SOL    HW162853   6.386  11.364  12.970  0.2357  0.5654  0.1423
48287SOL    HW262854   6.349  11.366  12.823  0.3434  0.5233  0.1140
48288SOL     OW62855   5.512   1.395  13.971 -0.0371 -0.7849  0.0453
48288SOL    HW162856   5.438   1.336  13.988 -0.1889 -0.3545  0.9254
48288SOL    HW262857   5.481   1.455  13.904  0.2426 -1.9276 -1.1377
48289SOL     OW62858  10.328   3.166   8.535 -0.0849 -0.2951 -0.4004
48289SOL    HW162859  10.265   3.203   8.474  0.6597  1.0240 -0.4280
48289SOL    HW262860  10.278   3.104   8.589 -1.1072 -0.1941 -1.2154
48290SOL     OW62861   7.629   2.829  12.913 -0.1742 -0.0998  0.0242
48290SOL    HW162862   7.568   2.784  12.973 -0.4947  0.8445  0.4269
48290SOL    HW262863   7.599   2.920  12.913  1.2910  0.4048  0.2929
48291SOL     OW62864  12.156   4.045   2.875  0.7685  0.5315 -0.1033
48291SOL    HW162865  12.070   4.064   2.837 -0.4844 -3.3891  0.3564
48291SOL    HW262866  12.180   4.126   2.921 -4.5893  0.8015  3.1184
48292SOL     OW62867   9.151  10.242   5.549  0.0993 -0.2978  0.0048
48292SOL    HW162868   9.066  10.205   5.526  0.1365  0.0124 -0.6510
48292SOL    HW262869   9.162  10.316   5.490  0.0711  0.7268  1.2242
48293SOL     OW62870   6.153   7.267  11.418  0.7310 -0.2999  0.0521
48293SOL    HW162871   6.087   7.210  11.379  0.6968 -0.8197  0.8405
48293SOL    HW262872   6.189   7.216  11.491 -0.0267  1.0576  1.4455
48294SOL     OW62873  13.578   2.999   0.337  0.5670  0.0769  0.3002
48294SOL    HW162874  13.619   2.927   0.385  0.2971 -0.9703 -0.9928
48294SOL    HW262875  13.634   3.012   0.260  1.3894  2.2056  1.1717
48295SOL     OW62876  12.645   5.550   2.470 -0.7661 -0.5996  0.0391
48295SOL    HW162877  12.717   5.581   2.416 -0.4103  1.3408  1.5430
48295SOL    HW262878  12.566   5.571   2.419 -0.4076  0.5581 -0.0663
48296SOL     OW62879   7.297   8.799   5.532 -0.2353 -0.2309  0.4004
48296SOL    HW162880   7.267   8.712   5.505  0.8307 -0.2304 -0.9083
48296SOL    HW262881   7.288   8.799   5.627 -2.2690 -0.9926  0.2537
48297SOL     OW62882   0.364  11.399   3.786 -0.0696  0.2651  0.6426
48297SOL    HW162883   0.296  11.334   3.768 -0.5012 -0.2421  3.5264
48297SOL    HW262884   0.427  11.353   3.841  2.0412  1.0792 -0.9721
48298SOL     OW62885   5.802   0.823   6.172 -0.2462  0.8163 -0.4852
48298SOL    HW162886   5.758   0.753   6.221  0.2742  0.6110 -0.3021
48298SOL    HW262887   5.846   0.875   6.239 -0.1967  1.0122 -0.6693
48299SOL     OW62888   6.975  10.964  11.007 -0.3312 -0.2063 -0.4584
48299SOL    HW162889   7.063  10.932  11.027 -0.5243 -0.1833  0.4797
48299SOL    HW262890   6.987  11.055  10.982 -0.1298 -0.0628  0.1448
48300SOL     OW62891   9.842   7.515   0.881  0.1099 -0.1605 -1.2834
48300SOL    HW162892   9.791   7.439   0.854  0.7711 -0.6594 -1.1629
48300SOL    HW262893   9.907   7.527   0.812 -1.1185  1.4337 -2.2354
48301SOL     OW62894   5.878  13.871   5.070 -0.2582  0.1509 -0.2358
48301SOL    HW162895   5.944  13.801   5.078  1.3429  1.4493 -1.3315
48301SOL    HW262896   5.846  13.864   4.981 -1.6060 -0.4158  0.2636
48302SOL     OW62897  11.058   6.338   2.888 -0.5256  0.5061 -0.0088
48302SOL    HW162898  11.041   6.416   2.941 -1.9077 -0.1188  0.5206
48302SOL    HW262899  11.099   6.276   2.948 -1.3143  0.1049  0.1358
48303SOL     OW62900  13.135  13.210   5.190  0.4439  0.3982 -0.4254
48303SOL    HW162901  13.149  13.244   5.278  1.6114  0.0955 -0.4802
48303SOL    HW262902  13.169  13.277   5.132 -2.6906  1.8032 -0.8135
48304SOL     OW62903   5.431  14.099   1.651  0.3035 -0.4257  0.4752
48304SOL    HW162904   5.426  14.067   1.561  0.8805 -0.2175  0.3633
48304SOL    HW262905   5.446  14.021   1.704 -3.0257 -1.0047  0.7664
48305SOL     OW62906   9.841   8.842   0.693  0.4828  0.2364 -0.5085
48305SOL    HW162907   9.845   8.836   0.788  0.8119 -0.3031 -0.5513
48305SOL    HW262908   9.869   8.932   0.673  1.1522  0.1182 -0.1327
48306SOL     OW62909  11.492   6.196  10.776  0.0747 -0.0112  0.2467
48306SOL    HW162910  11.583   6.203  10.746  0.4194  0.2842  1.2930
48306SOL    HW262911  11.490   6.249  10.856 -1.1474  0.3708 -0.0274
48307SOL     OW62912  10.915   7.460   4.603  0.1375  0.7170  0.1912
48307SOL    HW162913  10.887   7.525   4.539 -0.6963  0.7096  0.5351
48307SOL    HW262914  10.921   7.378   4.552  1.3705  1.0809 -0.2799
48308SOL     OW62915   1.985   2.005   0.670 -0.4930  0.5078 -0.2889
48308SOL    HW162916   2.057   1.989   0.608 -0.8187  0.8682 -0.7624
48308SOL    HW262917   1.915   1.947   0.641 -0.9191  1.2276 -0.7302
48309SOL     OW62918   0.543   2.917   3.316  0.6694  0.4258 -0.0719
48309SOL    HW162919   0.585   2.998   3.286 -0.8885  1.4748  0.4589
48309SOL    HW262920   0.562   2.913   3.410  0.2414  0.4882  0.0170
48310SOL     OW62921  10.168  12.249  13.729  0.4140 -0.2443  0.0016
48310SOL    HW162922  10.210  12.286  13.651  0.7477  1.2426  0.8372
48310SOL    HW262923  10.238  12.201  13.773  0.5197 -0.1220 -0.0302
48311SOL     OW62924   6.820  13.472   2.229  0.1387  0.1624  0.2536
48311SOL    HW162925   6.844  13.382   2.252 -0.1400 -0.4562 -1.7066
48311SOL    HW262926   6.903  13.515   2.210  0.0925 -0.6371 -1.9508
48312SOL     OW62927   2.984   7.842   0.987  0.4379  0.3257  0.3957
48312SOL    HW162928   2.941   7.759   1.009  1.0401 -0.2618 -0.5510
48312SOL    HW262929   2.925   7.884   0.925  0.9807 -0.2688 -0.5499
48313SOL     OW62930   0.669   9.245   6.261  0.3366 -0.0006  0.0499
48313SOL    HW162931   0.585   9.208   6.291 -0.6759 -0.8053 -3.2564
48313SOL    HW262932   0.644   9.315   6.201  2.1379  1.2129  0.6457
48314SOL     OW62933   5.150   6.344   8.403 -0.4420 -0.0325 -0.3649
48314SOL    HW162934   5.205   6.409   8.447  0.9228 -1.3053 -0.1032
48314SOL    HW262935   5.205   6.311   8.332 -0.3445 -2.2077  0.6384
48315SOL     OW62936  13.074   3.818   3.042  0.2141 -0.3748 -0.6540
48315SOL    HW162937  13.062   3.913   3.042  1.5308 -0.0923 -3.4809
48315SOL    HW262938  13.000   3.784   2.991 -0.7470 -1.0277  1.0862
48316SOL     OW62939   7.206  12.818   9.595 -0.2592  0.6794 -0.3341
48316SOL    HW162940   7.159  12.853   9.520  0.2853 -1.7079 -1.9073
48316SOL    HW262941   7.299  12.822   9.570  0.0283  0.9049  0.7035
48317SOL     OW62942   1.058   2.394   4.371 -0.4028 -0.3392  0.1757
48317SOL    HW162943   1.130   2.353   4.322  1.0971  0.5741  1.5084
48317SOL    HW262944   0.980   2.345   4.344  0.8309 -1.9805 -0.6351
48318SOL     OW62945  10.789   1.641   1.704 -0.5843  0.0012  0.7132
48318SOL    HW162946  10.786   1.730   1.739  0.7064 -0.6070  2.4858
48318SOL    HW262947  10.718   1.595   1.750 -1.1153  0.0254 -0.0503
48319SOL     OW62948   8.017  13.833   8.314 -0.2260  0.5247 -0.2547
48319SOL    HW162949   8.020  13.923   8.281 -0.8388  1.6040  2.3523
48319SOL    HW262950   7.935  13.828   8.363 -0.3578 -1.5903 -0.5950
48320SOL     OW62951   4.582  13.229   3.160  0.4403 -0.0672 -0.0262
48320SOL    HW162952   4.526  13.252   3.234  1.2329  1.7178  0.0491
48320SOL    HW262953   4.547  13.280   3.087 -0.2772 -1.7418 -0.9188
48321SOL     OW62954   1.503   6.626   2.729  0.2545  0.2740 -0.1159
48321SOL    HW162955   1.499   6.611   2.823  1.9222  0.0909 -0.0508
48321SOL    HW262956   1.454   6.553   2.691 -2.1675  1.4075  0.6339
48322SOL     OW62957   3.605   8.510  11.280  0.7489 -0.2354 -0.1183
48322SOL    HW162958   3.524   8.470  11.249  0.0159  0.5718  0.7089
48322SOL    HW262959   3.635   8.563  11.206  0.8518 -0.9945 -0.6355
48323SOL     OW62960   3.960   8.770   6.378  0.2689  0.3755 -0.1414
48323SOL    HW162961   3.976   8.685   6.419 -0.2697 -0.3930 -1.4629
48323SOL    HW262962   4.044   8.815   6.384  0.6511 -0.3623  0.3065
48324SOL     OW62963   9.068   6.740  10.478  0.2575 -0.1053  0.2085
48324SOL    HW162964   9.045   6.710  10.566  1.8196 -1.5747  0.1635
48324SOL    HW262965   9.157   6.774  10.486  0.9947 -1.6214 -1.0632
48325SOL     OW62966  12.374   7.347  10.408  0.6293  0.0938 -0.1249
48325SOL    HW162967  12.460   7.306  10.419  0.4241 -0.1674  0.5645
48325SOL    HW262968  12.384   7.404  10.332  1.5521  0.4137  0.2223
48326SOL     OW62969  11.996   1.021  12.135  0.2479 -0.4013 -0.5910
48326SOL    HW162970  11.959   1.059  12.215  1.6101  0.7050 -0.4497
48326SOL    HW262971  12.073   0.972  12.165  1.7893  1.4335 -1.3344
48327SOL     OW62972   4.614   5.370   8.266 -0.0389  0.1186 -0.1910
48327SOL    HW162973   4.688   5.389   8.208 -0.4219  1.7494 -0.1824
48327SOL    HW262974   4.539   5.412   8.225 -0.8369 -0.8715  0.2036
48328SOL     OW62975  10.468   9.644   4.337  0.5749 -0.3096  0.4297
48328SOL    HW162976  10.542   9.640   4.277 -1.3125  1.2771 -2.1944
48328SOL    HW262977  10.420   9.562   4.321  0.1263  0.0680 -0.2204
48329SOL     OW62978   5.588   4.856  12.464 -0.0598  0.1966  0.0580
48329SOL    HW162979   5.595   4.793  12.536 -0.2040  0.7563  0.5708
48329SOL    HW262980   5.494   4.867  12.451 -0.0542 -0.9292 -1.1453
48330SOL     OW62981  11.029  10.248   0.294  0.0634 -0.1135  0.0285
48330SOL    HW162982  11.119  10.216   0.286  1.4231  3.3980 -0.4339
48330SOL    HW262983  10.982  10.202   0.224  1.9059 -0.7496 -0.8664
48331SOL     OW62984   9.875   8.006   9.347 -0.4462  0.3091  0.1559
48331SOL    HW162985   9.868   7.980   9.439  1.1342  3.6297  1.3806
48331SOL    HW262986   9.784   8.003   9.315 -0.9871 -1.2759  1.6682
48332SOL     OW62987  12.467   3.840   5.047 -0.2154 -0.3362 -0.1283
48332SOL    HW162988  12.375   3.863   5.061 -1.6955 -3.9203 -2.4585
48332SOL    HW262989  12.496   3.900   4.979 -1.2458  0.0714 -0.2347
48333SOL     OW62990  13.242   9.843   2.848 -0.3452  0.3139  0.8079
48333SOL    HW162991  13.232   9.822   2.755 -1.8994 -2.6633  1.5151
48333SOL    HW262992  13.334   9.871   2.856 -0.2786  1.0539 -1.6385
48334SOL     OW62993   3.656  11.396   5.945 -0.1281  0.0212  0.1863
48334SOL    HW162994   3.589  11.372   5.880 -0.7732  0.7093  0.5702
48334SOL    HW262995   3.739  11.383   5.900 -0.5842  1.5628 -1.2008
48335SOL     OW62996   9.033   0.089   8.655 -0.2924  0.3132  0.8281
48335SOL    HW162997   9.035   0.001   8.616  1.8003  0.0714  1.3555
48335SOL    HW262998   9.101   0.137   8.608 -0.9439  1.4495  1.0292
48336SOL     OW62999   9.929   4.020   3.356 -0.1882  0.5445  0.3244
48336SOL    HW163000   9.911   4.028   3.449 -1.9392 -2.9774  0.4534
48336SOL    HW263001  10.010   3.971   3.351  0.8808  2.2727 -0.1046
48337SOL     OW63002  10.983   3.397   5.548 -0.6197  0.0447  0.1170
48337SOL    HW163003  11.001   3.324   5.489 -0.5283  0.1834 -0.0284
48337SOL    HW263004  10.888   3.393   5.563 -0.4109 -0.9797  1.2760
48338SOL     OW63005  10.905   6.769  11.770 -0.4026  0.1519  0.5234
48338SOL    HW163006  10.824   6.807  11.736 -1.1354 -1.7631  0.0083
48338SOL    HW263007  10.882   6.739  11.858  0.2130  0.9618  0.9809
48339SOL     OW63008   4.018  13.292  11.607 -0.1200  0.1640  0.1628
48339SOL    HW163009   4.092  13.253  11.560 -1.3623 -0.5020 -1.3236
48339SOL    HW263010   4.042  13.286  11.700  0.6220 -2.2804 -0.1300
48340SOL     OW63011   5.901   9.341  12.803  0.3993 -0.2502  0.1057
48340SOL    HW163012   5.852   9.399  12.861  0.6839 -0.1638  0.2618
48340SOL    HW263013   5.888   9.253  12.840  0.9979 -0.1405  0.6078
48341SOL     OW63014   5.783   0.607   1.260  0.0688  0.2144 -0.3259
48341SOL    HW163015   5.862   0.555   1.247  0.4769  0.6293  0.4152
48341SOL    HW263016   5.716   0.544   1.287 -0.0830 -0.2532 -1.7357
48342SOL     OW63017   0.229   9.899   1.964 -0.0105  0.6145  0.0284
48342SOL    HW163018   0.232   9.943   2.048  0.0642  0.1228  0.2853
48342SOL    HW263019   0.210   9.808   1.985  3.1133 -0.1965 -0.2113
48343SOL     OW63020  13.811   6.429  12.010 -0.8554 -0.4895  0.2334
48343SOL    HW163021  13.816   6.518  11.975  0.3242 -0.4841  0.4014
48343SOL    HW263022  13.722   6.400  11.988 -0.5311 -0.0825 -1.7486
48344SOL     OW63023   0.834   2.567   3.755  0.1585 -0.0811  0.2655
48344SOL    HW163024   0.769   2.627   3.791  1.3709  0.4886  1.6084
48344SOL    HW263025   0.826   2.576   3.660 -1.1974  0.5216  0.4265
48345SOL     OW63026   0.007  14.014  10.553 -0.5687  0.2697  0.2610
48345SOL    HW163027   0.044  13.998  10.466 -1.7264 -1.1073 -0.0331
48345SOL    HW263028  -0.017  14.106  10.553  0.2842  0.5028 -0.5441
48346SOL     OW63029   1.176   1.144  10.358 -0.1887 -0.1023  0.2785
48346SOL    HW163030   1.118   1.221  10.362 -1.4482 -1.0569  2.2821
48346SOL    HW263031   1.228   1.150  10.438  2.0145  0.3083 -1.1148
48347SOL     OW63032   8.195   6.973  12.839 -0.0461  0.2206  0.4004
48347SOL    HW163033   8.256   7.028  12.888  0.0749  0.3942  0.0577
48347SOL    HW263034   8.226   6.977  12.749 -1.1924  1.1984  0.0152
48348SOL     OW63035   6.761   9.466  12.191  0.2068  0.6636  0.2199
48348SOL    HW163036   6.776   9.560  12.196  1.5284  0.4149  2.5419
48348SOL    HW263037   6.835   9.432  12.141 -0.4017  0.8404 -0.8373
48349SOL     OW63038   0.004  10.624   9.647 -0.2482 -0.1880  0.2608
48349SOL    HW163039  -0.025  10.681   9.718 -0.6608 -0.9472  0.7140
48349SOL    HW263040   0.057  10.681   9.591  1.0744  0.1515  1.7901
48350SOL     OW63041   4.355   9.677   1.786  0.2596  0.3667  0.7239
48350SOL    HW163042   4.362   9.772   1.796  1.0809  0.1800  2.0847
48350SOL    HW263043   4.265   9.657   1.810 -0.1972  0.8912 -0.4775
48351SOL     OW63044  10.600  14.138   2.086  0.6502 -0.2187 -0.6610
48351SOL    HW163045  10.570  14.065   2.031 -1.1665  0.3770 -0.5347
48351SOL    HW263046  10.585  14.108   2.175 -0.3475  0.3696 -0.6126
48352SOL     OW63047   1.336  10.097   5.999  0.4079  0.3134  0.6640
48352SOL    HW163048   1.421  10.055   6.011  1.2578  1.4934 -0.8794
48352SOL    HW263049   1.357  10.188   5.982 -1.2172  0.7188  0.7199
48353SOL     OW63050  11.732  13.024   6.410  0.5545 -0.6050 -0.3466
48353SOL    HW163051  11.693  13.100   6.454 -0.8134 -0.6591 -1.4162
48353SOL    HW263052  11.695  12.948   6.456  0.7023 -0.6552 -0.3064
48354SOL     OW63053   0.533   6.058  13.823  0.3604 -0.7500  0.4705
48354SOL    HW163054   0.487   5.992  13.771 -0.9332 -1.2586  2.1854
48354SOL    HW263055   0.515   6.035  13.914 -0.8812  2.4026  1.1789
48355SOL     OW63056  11.491   7.581  10.242  0.4173 -0.2243  0.2460
48355SOL    HW163057  11.515   7.588  10.149  1.1569 -3.9052 -0.0014
48355SOL    HW263058  11.400   7.609  10.245  0.7510  1.2139 -1.3151
48356SOL     OW63059   4.136   4.355  11.144 -0.4229  0.2593 -0.9232
48356SOL    HW163060   4.226   4.367  11.175 -0.4717  1.0577 -1.0740
48356SOL    HW263061   4.085   4.338  11.223  0.1506 -2.1774 -1.0037
48357SOL     OW63062   1.003   1.309   2.731 -0.0501  0.3305 -0.0217
48357SOL    HW163063   1.085   1.295   2.683 -0.4366  1.5764 -1.1275
48357SOL    HW263064   1.016   1.266   2.815  0.5032 -2.3768 -1.3574
48358SOL     OW63065   0.657   7.548   0.695  0.7912 -0.0646 -0.3193
48358SOL    HW163066   0.647   7.595   0.777 -1.3428 -0.3616 -0.3397
48358SOL    HW263067   0.721   7.599   0.645  0.6401  1.2214  0.7551
48359SOL     OW63068   8.932   3.595   8.354 -0.3022 -0.3529  0.4488
48359SOL    HW163069   8.888   3.679   8.339 -0.2708 -0.6496 -1.5121
48359SOL    HW263070   9.015   3.603   8.306  0.2115 -1.1098  1.1788
48360SOL     OW63071   2.587   4.006  10.513 -0.5196  0.5131 -0.0520
48360SOL    HW163072   2.500   3.981  10.482  0.2884 -0.8615 -1.3721
48360SOL    HW263073   2.591   4.100  10.501 -0.7362  0.2297 -3.1147
48361SOL     OW63074   7.695  10.519   9.108  0.0210  0.2628 -0.1068
48361SOL    HW163075   7.751  10.498   9.182  0.6956 -1.1536 -0.9859
48361SOL    HW263076   7.745  10.582   9.057  0.0071  0.4210  0.0710
48362SOL     OW63077   4.296   1.240  13.785 -0.3023  0.3927 -0.7153
48362SOL    HW163078   4.251   1.203  13.861 -0.6922  0.8839 -0.7049
48362SOL    HW263079   4.369   1.180  13.770 -0.3310  0.1815 -0.0702
48363SOL     OW63080   4.401   2.239  11.625 -0.1683  0.0543 -0.7658
48363SOL    HW163081   4.351   2.320  11.637  1.8561  1.1686  0.7283
48363SOL    HW263082   4.471   2.262  11.564  0.1641 -0.7010 -0.6790
48364SOL     OW63083   1.132   1.824   0.928 -0.4134  0.8478  0.0494
48364SOL    HW163084   1.135   1.761   0.857 -0.1560  1.4545 -0.4870
48364SOL    HW263085   1.206   1.799   0.985 -0.9125  0.0696  0.3716
48365SOL     OW63086   5.937   9.866   7.492 -0.3223 -0.2171  0.0573
48365SOL    HW163087   5.958   9.959   7.503  1.3777 -0.4087 -1.1476
48365SOL    HW263088   5.852   9.866   7.447 -0.3143  0.7541  0.0183
48366SOL     OW63089   0.465  14.076   9.242 -0.2833 -0.0070  0.4154
48366SOL    HW163090   0.473  14.094   9.148 -0.5312 -0.6530  0.2669
48366SOL    HW263091   0.374  14.095   9.263 -0.0528  0.8485  0.6895
48367SOL     OW63092  12.379   1.078   8.061  0.1330  0.1495  0.2549
48367SOL    HW163093  12.300   1.112   8.104  1.1748  3.3289 -0.1136
48367SOL    HW263094  12.358   1.080   7.967  0.6897  1.3348  0.1303
48368SOL     OW63095  13.933   9.510  11.000 -0.1150 -0.2164  0.1174
48368SOL    HW163096  13.987   9.472  11.070  0.3085  1.3900  0.7144
48368SOL    HW263097  13.912   9.598  11.032  0.6493  0.8279 -2.0670
48369SOL     OW63098   2.529  10.907   0.208 -0.4044  0.5202 -0.2303
48369SOL    HW163099   2.604  10.889   0.151 -0.3880 -0.2554  0.0157
48369SOL    HW263100   2.544  10.996   0.240  1.2426 -0.1376  1.0158
48370SOL     OW63101   5.289  10.318   7.272 -0.6838 -0.0142  0.0101
48370SOL    HW163102   5.222  10.252   7.256 -1.8576  0.0845  3.6323
48370SOL    HW263103   5.370  10.267   7.282 -1.4147 -0.9000  1.8902
48371SOL     OW63104   4.375   9.579  11.283 -0.0759 -0.2843 -0.4804
48371SOL    HW163105   4.371   9.485  11.302  1.5274 -0.2524  0.1750
48371SOL    HW263106   4.291   9.598  11.241 -0.9666 -1.7470  0.5045
48372SOL     OW63107  10.193   3.249  11.695 -0.0932  0.6720 -0.2348
48372SOL    HW163108  10.180   3.160  11.664  1.8065  0.0796  0.4836
48372SOL    HW263109  10.138   3.256  11.773 -1.7990  0.8396 -1.4083
48373SOL     OW63110   0.050   7.748   9.424  0.2006  0.2072 -0.2321
48373SOL    HW163111  -0.030   7.746   9.370 -0.8347  1.1186  1.1982
48373SOL    HW263112   0.031   7.813   9.492  1.5172 -0.7934  1.1450
48374SOL     OW63113   7.937  12.020   8.104  0.2619  0.0393  0.4777
48374SOL    HW163114   7.846  11.991   8.095 -0.3961  0.5247  4.0444
48374SOL    HW263115   7.932  12.115   8.098  0.6635  0.0197 -0.1489
48375SOL     OW63116   4.400  13.154   9.903  0.8630  0.1159  0.2188
48375SOL    HW163117   4.455  13.123   9.831  3.5755 -0.1773  2.2547
48375SOL    HW263118   4.374  13.074   9.949  0.1927  0.3588  0.2679
48376SOL     OW63119   7.289   4.381   1.816  0.1274 -0.2742  0.6070
48376SOL    HW163120   7.291   4.329   1.735 -1.5146 -0.8166  0.8909
48376SOL    HW263121   7.382   4.394   1.837  0.6016 -2.2207 -0.0196
48377SOL     OW63122  14.007   7.574   4.871 -0.2433  0.2234 -0.3771
48377SOL    HW163123  14.042   7.558   4.958 -2.2328 -1.9662  0.1172
48377SOL    HW263124  14.062   7.645   4.836  2.5283 -0.8194  1.4831
48378SOL     OW63125  13.027  13.572  12.883 -0.1360 -0.3270 -0.1162
48378SOL    HW163126  13.084  13.572  12.960 -1.0446 -0.1493  0.5731
48378SOL    HW263127  13.082  13.538  12.812  1.1925  0.9634  0.2418
48379SOL     OW63128   0.107   3.035   5.063 -0.0873  0.2130 -0.0469
48379SOL    HW163129   0.162   2.961   5.036 -0.9664 -0.2063 -0.7376
48379SOL    HW263130   0.025   2.995   5.091 -0.8906  0.9713 -1.2409
48380SOL     OW63131  13.924   1.505   5.539 -0.3001 -0.1851  0.3120
48380SOL    HW163132  13.897   1.470   5.624  0.2438 -1.1616  0.0908
48380SOL    HW263133  14.012   1.539   5.554 -0.8326  1.1495  0.5309
48381SOL     OW63134  12.680   3.346   4.696 -0.0608  0.1670  0.1604
48381SOL    HW163135  12.614   3.337   4.765  1.2034  0.2280  1.4020
48381SOL    HW263136  12.711   3.437   4.704  2.8000 -0.8564  2.0942
48382SOL     OW63137   1.642   8.488  12.368  0.2867  0.1398  0.3619
48382SOL    HW163138   1.577   8.525  12.308  0.5801  1.0435  0.5770
48382SOL    HW263139   1.590   8.447  12.437 -0.0551  0.1214  0.0955
48383SOL     OW63140   8.253   3.028  12.810 -0.5967  0.1886  0.0400
48383SOL    HW163141   8.258   2.936  12.784 -0.4222  0.6078 -1.5141
48383SOL    HW263142   8.160   3.049  12.803 -0.3212  0.8696 -2.5079
48384SOL     OW63143   0.238  10.648  12.375  0.0712  0.5060 -0.3266
48384SOL    HW163144   0.153  10.657  12.332 -0.2942 -1.2297 -0.0631
48384SOL    HW263145   0.290  10.595  12.314  0.6780  0.8467 -0.1085
48385SOL     OW63146  12.611   1.971   2.897 -0.0269 -0.3779 -0.1298
48385SOL    HW163147  12.683   2.007   2.949 -1.0041  0.3087  0.7885
48385SOL    HW263148  12.587   1.890   2.942 -0.6812  0.0677  0.3424
48386SOL     OW63149  11.225   5.353  11.229  0.4697  0.2640  0.2421
48386SOL    HW163150  11.135   5.341  11.200 -0.1391  3.2115  0.5438
48386SOL    HW263151  11.273   5.377  11.150  0.3101  1.5375  0.5067
48387SOL     OW63152   8.052   9.439  13.000 -0.1228 -0.3189  0.0704
48387SOL    HW163153   8.041   9.416  12.908 -1.0282  1.9511 -0.4452
48387SOL    HW263154   7.975   9.402  13.043  0.0326 -0.9241 -0.1533
48388SOL     OW63155   1.115   6.545   9.436  0.3467  0.8183 -0.0394
48388SOL    HW163156   1.072   6.498   9.508  0.8353 -1.0766 -0.9182
48388SOL    HW263157   1.043   6.574   9.380  0.0872  0.0130 -0.1279
48389SOL     OW63158   9.772  10.096   8.221 -0.2658  0.3495  0.4512
48389SOL    HW163159   9.726  10.030   8.171  0.2868  0.4648 -0.2310
48389SOL    HW263160   9.853  10.053   8.250  0.1372  0.7364 -0.0692
48390SOL     OW63161   8.194   4.060  10.040  0.1910  0.3814  0.2502
48390SOL    HW163162   8.239   3.977  10.020  1.6194  1.0428  0.6131
48390SOL    HW263163   8.176   4.055  10.134 -2.2622 -0.6791 -0.1921
48391SOL     OW63164   7.476   9.889  14.105  0.6611 -0.6009  0.7368
48391SOL    HW163165   7.445   9.829  14.173 -1.4823  0.1164  0.4596
48391SOL    HW263166   7.419   9.872  14.030  1.7264 -0.0319 -0.2307
48392SOL     OW63167   8.231   0.011   0.845  0.2421  0.2121  0.0648
48392SOL    HW163168   8.304   0.067   0.870  1.2831 -1.1126  0.0643
48392SOL    HW263169   8.201   0.047   0.762  0.6647  0.9815  0.2408
48393SOL     OW63170   5.863   2.612  13.806  0.3335 -0.1732  0.5424
48393SOL    HW163171   5.784   2.564  13.829 -0.5451  1.4686  1.0901
48393SOL    HW263172   5.908   2.626  13.890 -0.1867  1.2235  0.6135
48394SOL     OW63173   1.967   2.093  10.685  0.1153  0.4307  0.0858
48394SOL    HW163174   1.957   2.123  10.776 -0.6776  2.3935 -0.6029
48394SOL    HW263175   1.918   2.157  10.633  1.4656 -0.0252 -1.8407
48395SOL     OW63176   1.841   7.946  13.995 -0.4343  0.1268 -0.4738
48395SOL    HW163177   1.921   7.963  14.045 -0.7238  1.2648 -0.3740
48395SOL    HW263178   1.823   7.853  14.009  0.0669  0.1875  0.6761
48396SOL     OW63179   2.694   3.619  12.307 -0.4016 -0.0533 -0.1741
48396SOL    HW163180   2.629   3.556  12.279 -0.8257 -0.7887  2.2494
48396SOL    HW263181   2.695   3.613  12.402  1.8841  1.2725 -0.0191
48397SOL     OW63182   1.274   4.927  10.412 -0.0680  0.1095  0.5280
48397SOL    HW163183   1.271   4.939  10.507  0.4841  1.4991  0.3965
48397SOL    HW263184   1.183   4.916  10.386 -0.2518  0.0712  1.1720
48398SOL     OW63185   2.406   6.668   7.951 -0.3203 -0.0217  0.0230
48398SOL    HW163186   2.476   6.731   7.933  0.7916 -0.5490  2.1103
48398SOL    HW263187   2.325   6.717   7.939  0.5000  1.6466  0.9481
48399SOL     OW63188   6.386  12.067   8.069 -0.3633 -0.4466  0.2498
48399SOL    HW163189   6.341  11.985   8.090  1.8548 -1.6451  0.5797
48399SOL    HW263190   6.473  12.040   8.040  0.1318  1.7678 -0.5091
48400SOL     OW63191   5.144  10.209   9.415  0.2249 -0.2304  0.1849
48400SOL    HW163192   5.084  10.284   9.411  0.1676 -0.2766  0.1742
48400SOL    HW263193   5.189  10.211   9.331  1.1587  0.5666  0.6748
48401SOL     OW63194   4.081   7.677  12.995 -0.2011 -0.0779  0.2832
48401SOL    HW163195   4.016   7.614  13.027  0.8037 -1.5212 -0.3799
48401SOL    HW263196   4.040   7.715  12.917 -0.5343 -0.4504  0.2718
48402SOL     OW63197   0.704   3.766   4.446 -0.5858 -0.1419 -0.1393
48402SOL    HW163198   0.731   3.674   4.441  1.0270  0.2979  0.1460
48402SOL    HW263199   0.783   3.813   4.472 -0.9440  1.5656 -1.9454
48403SOL     OW63200  14.109   3.171   2.527 -0.2510  0.2959 -0.1750
48403SOL    HW163201  14.015   3.183   2.537 -0.2278  0.7212 -0.4490
48403SOL    HW263202  14.138   3.139   2.612 -0.8285 -1.0274 -0.4483
48404SOL     OW63203   7.802  11.768   9.256 -0.5394  0.3409  0.6058
48404SOL    HW163204   7.770  11.688   9.297 -1.2091  0.3760  0.1583
48404SOL    HW263205   7.821  11.827   9.329  0.4159 -0.3831  0.9658
48405SOL     OW63206   8.888   8.177  10.712  0.7854 -0.3790 -0.3516
48405SOL    HW163207   8.939   8.142  10.785 -0.4513 -0.2614  0.6015
48405SOL    HW263208   8.840   8.102  10.678 -0.2932 -0.0402  0.3700
48406SOL     OW63209   6.306   0.584   3.721 -0.0001 -0.0196  0.3703
48406SOL    HW163210   6.220   0.613   3.689 -0.1039 -1.3355 -0.6266
48406SOL    HW263211   6.337   0.523   3.655  0.8360 -1.0832  1.6931
48407SOL     OW63212   2.997   0.036  12.451  0.1719 -0.8980 -0.0327
48407SOL    HW163213   2.967   0.094  12.520  0.4656 -1.0078  0.1889
48407SOL    HW263214   2.927  -0.028  12.441 -0.7629  0.2452 -1.1944
48408SOL     OW63215   5.130   7.598   5.209 -0.0105 -0.0913  0.3011
48408SOL    HW163216   5.160   7.551   5.286  1.5004  1.0218  0.4603
48408SOL    HW263217   5.199   7.664   5.193 -1.0720  0.7631 -1.0295
48409SOL     OW63218   1.364  13.653  11.237  0.2649 -0.2192  0.0068
48409SOL    HW163219   1.343  13.712  11.309 -0.0431  0.5607 -0.7090
48409SOL    HW263220   1.441  13.691  11.196 -1.8208  1.6397 -2.5216
48410SOL     OW63221   3.704   6.819   7.058 -0.1554  0.1668 -0.8480
48410SOL    HW163222   3.672   6.909   7.050  0.6707  0.3974 -1.8394
48410SOL    HW263223   3.760   6.807   6.981  0.3212 -0.9620 -0.3459
48411SOL     OW63224   0.072   3.158  11.961 -0.4761  0.1709 -0.2284
48411SOL    HW163225   0.105   3.145  12.051  3.5288  1.2287 -1.3070
48411SOL    HW263226   0.056   3.070  11.928 -0.7075 -0.3070  1.0862
48412SOL     OW63227   6.752  14.077   3.273 -0.0182 -0.4302  0.0895
48412SOL    HW163228   6.715  14.114   3.353 -0.1526  0.1977 -0.2538
48412SOL    HW263229   6.772  14.153   3.219  0.3234 -0.8377 -0.3659
48413SOL     OW63230  10.910   9.715   8.542 -0.2034  0.5430  0.6957
48413SOL    HW163231  10.849   9.653   8.581  0.2223  0.9582  2.0650
48413SOL    HW263232  10.978   9.726   8.607  1.7856 -0.4858 -1.0910
48414SOL     OW63233  11.583   5.164   1.109  0.3470  0.5618 -0.3116
48414SOL    HW163234  11.669   5.131   1.082  0.4464  0.1459  0.4732
48414SOL    HW263235  11.525   5.088   1.099  0.0243  0.8890 -1.0050
48415SOL     OW63236  13.637   2.975   6.445  0.0195  0.4019 -0.1783
48415SOL    HW163237  13.669   2.911   6.508  0.7413  0.2650 -0.6716
48415SOL    HW263238  13.555   3.007   6.483  0.1318 -0.1193  0.5275
48416SOL     OW63239   0.669   8.185  12.766  0.2735 -0.0475  0.4843
48416SOL    HW163240   0.762   8.167  12.750 -0.0988 -1.1872 -0.6362
48416SOL    HW263241   0.649   8.259  12.708  0.4099  0.0135  0.5141
48417SOL     OW63242   4.039   8.309   4.139  0.0188 -0.6441  0.5630
48417SOL    HW163243   4.034   8.223   4.097  0.7159 -1.2998  1.7798
48417SOL    HW263244   4.124   8.344   4.112 -0.7842  0.2501 -0.9589
48418SOL     OW63245   7.908   5.600  11.185 -0.0770  0.5408  0.2415
48418SOL    HW163246   7.990   5.552  11.189  0.0070  0.7377  1.3835
48418SOL    HW263247   7.926   5.681  11.233 -0.8438  0.7117  0.2515
48419SOL     OW63248   7.593  12.788  12.857 -0.2487  0.0398  0.2617
48419SOL    HW163249   7.634  12.858  12.907 -0.8279  0.3891  0.2455
48419SOL    HW263250   7.500  12.793  12.878 -0.1556 -1.5341  1.2646
48420SOL     OW63251   6.309   7.905  14.068  0.1129 -0.0382 -0.1317
48420SOL    HW163252   6.380   7.895  14.004 -0.7494  0.9923 -1.3114
48420SOL    HW263253   6.305   8.000  14.084  1.0221 -0.3697  2.3267
48421SOL     OW63254   8.161   6.582   9.889 -0.0539  0.0157 -0.2277
48421SOL    HW163255   8.112   6.546   9.964  0.5652 -0.9921 -0.2897
48421SOL    HW263256   8.192   6.667   9.919 -1.2631  0.3745  0.0520
48422SOL     OW63257   4.865  11.086   4.651  0.6585  0.4877 -0.1644
48422SOL    HW163258   4.852  11.080   4.556  0.8563  2.6809 -0.3981
48422SOL    HW263259   4.831  11.004   4.686  0.0662 -0.1367 -2.0849
48423SOL     OW63260  13.150   6.658   9.372 -0.0705 -0.2785  0.2224
48423SOL    HW163261  13.160   6.563   9.364  0.8547 -0.0525 -2.1935
48423SOL    HW263262  13.240   6.691   9.378 -0.2553  0.5541 -1.1371
48424SOL     OW63263   2.256   5.710   4.343  0.2473  0.0992 -0.2407
48424SOL    HW163264   2.246   5.626   4.387  2.4797  0.2776  0.7208
48424SOL    HW263265   2.180   5.761   4.371 -0.7340 -1.3068 -0.2330
48425SOL     OW63266  10.860  12.114   6.646 -0.0871  0.4225  0.0639
48425SOL    HW163267  10.951  12.101   6.673  0.3655  0.7185 -1.2602
48425SOL    HW263268  10.825  12.175   6.711  0.9677  1.1217  0.0132
48426SOL     OW63269   4.482   0.338   9.029  0.1843 -0.3992 -0.5837
48426SOL    HW163270   4.394   0.370   9.045  0.3571 -0.4235  0.5024
48426SOL    HW263271   4.536   0.381   9.096  1.5067  1.6763 -2.7946
48427SOL     OW63272   3.586   4.620  10.885  0.1681 -0.3269  0.1347
48427SOL    HW163273   3.541   4.676  10.948 -0.9061 -1.0138 -0.0074
48427SOL    HW263274   3.518   4.589  10.826  1.0411 -0.2887 -0.9422
48428SOL     OW63275  10.238  13.372   6.250  0.3567  0.7775 -0.1329
48428SOL    HW163276  10.227  13.336   6.161 -0.8294 -0.1197  0.3468
48428SOL    HW263277  10.275  13.299   6.300  0.9973  1.2756  0.1335
48429SOL     OW63278   8.043  10.038  13.534 -0.4818  0.0005  0.4282
48429SOL    HW163279   8.107  10.054  13.464 -1.8789  0.3958 -0.7989
48429SOL    HW263280   7.972  10.100  13.516 -1.5901 -0.9937  1.2616
48430SOL     OW63281   0.258   3.296   3.387  0.2144 -0.9659 -0.1090
48430SOL    HW163282   0.177   3.325   3.345  1.0460  0.1771 -0.9818
48430SOL    HW263283   0.282   3.367   3.445 -0.1116 -1.8920  1.2087
48431SOL     OW63284   4.191   6.410   3.213  0.1654 -0.3545  0.0921
48431SOL    HW163285   4.130   6.338   3.228  1.9247 -1.6251  1.5723
48431SOL    HW263286   4.178   6.469   3.288 -0.3720  0.2524 -0.4596
48432SOL     OW63287   8.293   4.958  12.613 -0.2655  0.4466  0.0936
48432SOL    HW163288   8.199   4.941  12.611 -0.1078 -0.7844  1.3451
48432SOL    HW263289   8.326   4.903  12.684  1.3440  1.1801 -0.0317
48433SOL     OW63290   2.907  13.544   8.285 -0.2801  0.0669 -0.4732
48433SOL    HW163291   2.921  13.497   8.203  0.5041  0.1648 -0.4014
48433SOL    HW263292   2.869  13.479   8.344 -0.0244 -0.2383 -0.6424
48434SOL     OW63293   0.749  11.794   1.012 -0.2281  0.6084 -0.6220
48434SOL    HW163294   0.735  11.886   1.032 -1.1079  0.9813 -2.6465
48434SOL    HW263295   0.820  11.794   0.948  1.4276 -0.3684  1.1109
48435SOL     OW63296   2.692  12.003   8.622 -0.3201 -0.6314  0.5717
48435SOL    HW163297   2.722  12.093   8.609 -2.1578 -0.0928 -0.3960
48435SOL    HW263298   2.718  11.982   8.712  1.1883  0.4193  0.4158
48436SOL     OW63299   1.398   4.837   8.223  0.1053  0.4051 -0.3825
48436SOL    HW163300   1.347   4.886   8.158  1.1748  2.0577 -0.0460
48436SOL    HW263301   1.448   4.905   8.270  2.9934 -1.1203 -1.0243
48437SOL     OW63302  14.056  12.252   8.023 -0.0585 -0.2645 -1.0423
48437SOL    HW163303  14.135  12.306   8.020 -1.2934  1.6921 -0.1837
48437SOL    HW263304  14.020  12.257   7.934  0.0369  0.0146 -1.0659
48438SOL     OW63305   9.698   5.081   5.964 -0.4738  0.0705 -0.1708
48438SOL    HW163306   9.750   5.118   6.035 -0.4937 -0.8823  0.3657
48438SOL    HW263307   9.747   5.003   5.937 -1.1252 -0.3031 -0.3090
48439SOL     OW63308   2.867  13.434   4.119  0.3038 -0.1794 -0.6120
48439SOL    HW163309   2.868  13.385   4.201 -2.0517  0.8560  0.1275
48439SOL    HW263310   2.902  13.374   4.054 -0.6627 -2.1400  0.5969
48440SOL     OW63311   3.107  13.470  12.627  0.2355 -0.4995 -0.0442
48440SOL    HW163312   3.029  13.486  12.574  1.2810  0.4152 -1.3592
48440SOL    HW263313   3.161  13.547  12.614  0.3065  0.0319  2.8713
48441SOL     OW63314  11.511  10.334   3.857  0.4551 -0.0895  0.1492
48441SOL    HW163315  11.511  10.422   3.895 -0.3394 -0.3759  0.8506
48441SOL    HW263316  11.480  10.347   3.768  0.0215  0.3066  0.3505
48442SOL     OW63317  14.030   3.287  11.462  0.1538  0.4021  0.4771
48442SOL    HW163318  14.066   3.245  11.384  0.2862  1.5406 -0.1099
48442SOL    HW263319  14.007   3.215  11.520  1.5071 -0.4282  0.0413
48443SOL     OW63320   5.825   1.896   9.743  0.2388  0.0042 -0.1946
48443SOL    HW163321   5.900   1.845   9.714  1.0729  0.9947  0.1449
48443SOL    HW263322   5.821   1.882   9.838  0.2591  0.2778 -0.1500
48444SOL     OW63323  11.698   4.951   2.949 -0.4060  0.3943  0.1647
48444SOL    HW163324  11.763   4.990   2.890  0.8572 -1.1692  0.4649
48444SOL    HW263325  11.744   4.941   3.033 -1.8341  1.5672  1.1417
48445SOL     OW63326   2.322  11.598   2.876 -0.0122 -0.0627 -0.0851
48445SOL    HW163327   2.229  11.606   2.899  0.4185 -0.8338  2.1933
48445SOL    HW263328   2.369  11.615   2.958  1.7492 -1.9058 -0.6149
48446SOL     OW63329   4.904   9.400   1.274 -0.4126 -0.4770  0.3441
48446SOL    HW163330   4.939   9.479   1.234 -0.6086  0.0176  1.1392
48446SOL    HW263331   4.809   9.411   1.271 -0.4267 -0.3139  1.1684
48447SOL     OW63332   5.265   2.456   8.210 -0.6476  0.4525  0.6085
48447SOL    HW163333   5.258   2.511   8.132 -1.1234  0.9024  0.9575
48447SOL    HW263334   5.349   2.480   8.249 -0.9351  1.0846  0.8609
48448SOL     OW63335   3.938   0.840   1.929 -0.4407  0.2875  0.2530
48448SOL    HW163336   3.937   0.815   2.022  3.4357 -0.5956  0.2211
48448SOL    HW263337   3.922   0.935   1.930 -1.7611  0.1059  1.6283
48449SOL     OW63338   8.985   3.915  12.406  0.1190  0.2447  0.2786
48449SOL    HW163339   9.005   3.848  12.471  1.4962  0.9930  0.6652
48449SOL    HW263340   9.001   3.873  12.322 -0.6755 -0.4180  0.4523
48450SOL     OW63341   4.837   0.938   5.808  0.0385  0.2152  0.0736
48450SOL    HW163342   4.814   0.973   5.722  0.5185  2.3004  0.7537
48450SOL    HW263343   4.770   0.971   5.867 -0.2816 -1.1902  0.5481
48451SOL     OW63344   0.672   4.500   7.304  0.1975  0.4177 -0.1793
48451SOL    HW163345   0.668   4.421   7.358  0.1588  1.2412  1.0439
48451SOL    HW263346   0.580   4.524   7.291  0.2390  1.0798  0.6902
48452SOL     OW63347   2.776   1.584   0.767 -0.3085  0.4245 -0.0401
48452SOL    HW163348   2.706   1.599   0.704  0.0111  1.9997 -0.0596
48452SOL    HW263349   2.732   1.579   0.852 -0.4259  1.8338 -0.0028
48453SOL     OW63350   8.827   5.504  10.815  0.4145  0.6904 -0.4806
48453SOL    HW163351   8.831   5.554  10.897  0.4244 -0.9196  0.5517
48453SOL    HW263352   8.737   5.516  10.785  0.9984  3.1581 -1.5293
48454SOL     OW63353  11.574   5.052   1.641 -0.0142 -0.4462 -0.6087
48454SOL    HW163354  11.548   5.143   1.626  1.4788  0.0266 -0.4646
48454SOL    HW263355  11.576   5.044   1.736 -0.8395 -0.8605 -0.6138
48455SOL     OW63356   8.729   0.197   4.107  0.0496  0.3306  0.0946
48455SOL    HW163357   8.647   0.148   4.115  0.1892  0.0056 -0.4290
48455SOL    HW263358   8.707   0.271   4.050  0.2489 -0.0590 -0.4968
48456SOL     OW63359  11.931   6.642  10.602  0.2877  0.4273 -0.0378
48456SOL    HW163360  11.959   6.599  10.522 -1.9204  0.0044 -0.6537
48456SOL    HW263361  11.867   6.582  10.641  1.6845  0.3625  2.3619
48457SOL     OW63362   2.954   0.419  12.298  0.3564  0.3113 -0.1833
48457SOL    HW163363   2.895   0.398  12.226  0.0600  1.2103 -0.2094
48457SOL    HW263364   2.969   0.513  12.291  1.8432  0.1069 -0.2155
48458SOL     OW63365   5.442  12.808   6.782  0.0820  0.4501 -0.1153
48458SOL    HW163366   5.393  12.770   6.709 -0.3807  1.3389 -0.2787
48458SOL    HW263367   5.533  12.810   6.752 -0.0196  0.2866 -0.4353
48459SOL     OW63368  10.889   9.186   0.720  0.6733 -0.2175 -0.1625
48459SOL    HW163369  10.852   9.141   0.796 -0.0464 -0.7316 -0.7969
48459SOL    HW263370  10.913   9.115   0.659 -0.1109  0.2185 -1.0124
48460SOL     OW63371   7.878  11.586   8.436 -0.4282 -0.1986 -0.2270
48460SOL    HW163372   7.911  11.673   8.415 -1.1719  0.2779  0.5053
48460SOL    HW263373   7.788  11.586   8.401 -0.1566 -0.9641 -0.9439
48461SOL     OW63374  13.636  12.741   8.616  0.2175  0.3017 -0.3003
48461SOL    HW163375  13.676  12.656   8.635 -0.7971  0.0037  0.5948
48461SOL    HW263376  13.639  12.748   8.521  2.8674  0.5381 -0.2862
48462SOL     OW63377  13.555   0.399   6.943 -0.0942  0.2858  0.0631
48462SOL    HW163378  13.558   0.495   6.945  0.1702  0.2725  1.1664
48462SOL    HW263379  13.528   0.375   7.031  0.2899 -0.6728 -0.0763
48463SOL     OW63380  12.292  14.121  11.575 -0.4298 -0.7250 -0.0255
48463SOL    HW163381  12.358  14.094  11.511  0.4723 -0.5164  0.7927
48463SOL    HW263382  12.294  14.051  11.641 -1.0575 -0.7309 -0.0066
48464SOL     OW63383   3.989  13.379   1.214  0.4783  0.3408 -0.6191
48464SOL    HW163384   3.987  13.287   1.239 -0.8835  0.3587 -0.5525
48464SOL    HW263385   4.056  13.385   1.146 -0.3978 -1.0089 -1.6619
48465SOL     OW63386   4.080   8.332   1.093 -0.3766 -0.4702 -0.4423
48465SOL    HW163387   4.071   8.353   1.000 -2.2375 -2.5914 -0.8549
48465SOL    HW263388   4.157   8.381   1.122  1.1113 -0.7953 -3.4326
48466SOL     OW63389   6.467   4.404   2.130  0.6381 -0.0942 -0.3475
48466SOL    HW163390   6.499   4.437   2.214  0.3557 -1.0116  0.1414
48466SOL    HW263391   6.423   4.479   2.090  0.7274  0.3427  0.3455
48467SOL     OW63392   6.120   8.810   0.879  0.7909  0.4329 -0.2419
48467SOL    HW163393   6.134   8.723   0.916 -0.1594  0.6696  0.7100
48467SOL    HW263394   6.093   8.793   0.788  1.6639 -0.2093 -0.3940
48468SOL     OW63395   2.871   1.997  13.860 -0.7404  0.5008 -0.0313
48468SOL    HW163396   2.858   1.904  13.878 -0.8135  0.8048  1.7076
48468SOL    HW263397   2.798   2.021  13.803 -0.1861 -0.6876 -1.2934
48469SOL     OW63398   1.359   9.804  10.195  0.1602  0.2843  0.3242
48469SOL    HW163399   1.333   9.867  10.128 -0.7710  0.5774  0.9442
48469SOL    HW263400   1.410   9.855  10.258 -0.0122  0.2657  0.4776
48470SOL     OW63401  11.474   3.534  10.092 -0.5636 -0.8180 -0.0210
48470SOL    HW163402  11.540   3.573  10.149 -1.3087 -0.9264  0.9375
48470SOL    HW263403  11.406   3.600  10.085 -0.9232 -1.1840 -0.0007
48471SOL     OW63404   7.656   3.922   9.342  0.3451  0.5419  0.2037
48471SOL    HW163405   7.620   3.892   9.426 -0.6375  0.7990 -0.1067
48471SOL    HW263406   7.748   3.939   9.360  0.2113  0.3274  1.1631
48472SOL     OW63407  10.564   3.308   4.245 -0.2732 -0.1451 -0.5678
48472SOL    HW163408  10.594   3.249   4.176 -0.8841 -1.1536  0.0085
48472SOL    HW263409  10.640   3.364   4.263 -0.6383  1.4194 -3.2977
48473SOL     OW63410   5.388   0.331  10.635 -0.3190  0.3095 -0.0063
48473SOL    HW163411   5.366   0.257  10.690 -1.0954  2.0140  2.1215
48473SOL    HW263412   5.454   0.380  10.685  1.0187  0.5201 -1.8476
48474SOL     OW63413   7.177   5.922   1.593 -0.0335 -0.0484 -0.4116
48474SOL    HW163414   7.144   5.889   1.509 -0.6097 -1.2165  0.2437
48474SOL    HW263415   7.253   5.868   1.613  2.1050  2.2588 -1.6284
48475SOL     OW63416   4.239   2.074  10.420 -0.4596 -0.2651 -0.0166
48475SOL    HW163417   4.243   2.154  10.368  0.4369 -0.1339  0.2345
48475SOL    HW263418   4.322   2.072  10.467 -2.1041  0.8682  3.2560
48476SOL     OW63419   4.034  13.057   9.427 -0.1351 -0.4778  0.1984
48476SOL    HW163420   4.086  13.008   9.491  1.3347  1.4769  0.6078
48476SOL    HW263421   4.066  13.026   9.342 -1.0033 -1.9847  0.3981
48477SOL     OW63422   6.876   9.532  11.134  0.7904 -0.0412  0.1813
48477SOL    HW163423   6.884   9.449  11.180 -0.2051 -0.4214 -0.3204
48477SOL    HW263424   6.911   9.515  11.047 -0.7970 -0.3789 -0.4251
48478SOL     OW63425   8.090   4.548   1.543 -0.0583 -0.2054 -0.1566
48478SOL    HW163426   8.089   4.564   1.637 -0.2068  0.3921 -0.2578
48478SOL    HW263427   8.110   4.455   1.535  1.3781  0.0304  0.4249
48479SOL     OW63428   8.257  14.041   7.561 -0.3070  0.2431  0.9000
48479SOL    HW163429   8.174  14.017   7.519  0.6730 -1.7483 -0.0879
48479SOL    HW263430   8.272  13.972   7.625  1.7056 -0.8549 -0.6428
48480SOL     OW63431   4.639  10.340   6.372 -0.5656  0.6826 -0.5198
48480SOL    HW163432   4.586  10.418   6.357 -0.6277  0.5577 -0.9917
48480SOL    HW263433   4.593  10.271   6.323 -1.1793  0.0710  0.8477
48481SOL     OW63434  12.749   2.434  11.910 -0.2972  0.4036  0.1847
48481SOL    HW163435  12.793   2.441  11.825 -0.5506  1.7096  0.1397
48481SOL    HW263436  12.689   2.360  11.900 -0.0069  0.2633 -0.6276
48482SOL     OW63437  13.625   1.107   2.313  0.5352  0.3549  0.1566
48482SOL    HW163438  13.579   1.118   2.396  0.9585 -3.4865  1.0928
48482SOL    HW263439  13.558   1.125   2.246 -0.4377  1.2433  1.3242
48483SOL     OW63440   7.236  11.606   5.700 -0.0397 -0.2017 -0.7214
48483SOL    HW163441   7.254  11.668   5.629 -0.9351 -0.6664 -1.3849
48483SOL    HW263442   7.249  11.520   5.659  0.9067 -0.4704  0.1063
48484SOL     OW63443   4.827   4.903   1.188 -0.0767  0.0374  0.4491
48484SOL    HW163444   4.892   4.908   1.258  0.2504  2.3974  0.0381
48484SOL    HW263445   4.865   4.842   1.125 -0.0697 -1.6033  1.9517
48485SOL     OW63446  13.429   8.211  10.908  0.4032  0.2381  0.5205
48485SOL    HW163447  13.348   8.161  10.913  0.4712  0.2051  1.4219
48485SOL    HW263448  13.400   8.301  10.889  0.3489 -0.3079 -2.5268
48486SOL     OW63449   4.484   6.886   8.107  0.1681 -0.0874  0.3916
48486SOL    HW163450   4.573   6.900   8.139  0.2803 -0.1759  0.1274
48486SOL    HW263451   4.462   6.967   8.061 -0.3228  0.3796  1.4257
48487SOL     OW63452  10.168   1.453   7.152 -0.1358  0.5856 -0.6225
48487SOL    HW163453  10.092   1.505   7.127  0.0795  0.5467 -1.3840
48487SOL    HW263454  10.240   1.516   7.155  0.0089  0.4405 -0.9689
48488SOL     OW63455  10.581   3.949   0.415  0.0162  0.9878 -0.5373
48488SOL    HW163456  10.605   3.984   0.328  1.2647  2.9573  0.5206
48488SOL    HW263457  10.491   3.919   0.404  0.3835  0.4548 -2.7069
48489SOL     OW63458   6.943   7.216  10.357 -0.3704  0.1939  0.4235
48489SOL    HW163459   6.864   7.228  10.304 -0.2220  1.2761  0.4219
48489SOL    HW263460   6.920   7.252  10.442 -0.0007  0.1556  0.5423
48490SOL     OW63461   5.545   2.113   6.320 -0.0976 -0.1824 -0.0014
48490SOL    HW163462   5.601   2.142   6.248  1.2246 -3.3217 -0.4233
48490SOL    HW263463   5.484   2.051   6.280 -0.1298 -1.0867  1.3572
48491SOL     OW63464   2.228  11.774  10.713  0.0218  0.5190 -0.3744
48491SOL    HW163465   2.180  11.846  10.754 -0.6385  0.3751 -0.8618
48491SOL    HW263466   2.310  11.768  10.761  0.4362  2.1152 -0.8553
48492SOL     OW63467   1.649   8.528  12.966  0.3415 -0.8314 -0.5161
48492SOL    HW163468   1.615   8.491  12.885 -2.1715 -0.6639  0.3778
48492SOL    HW263469   1.666   8.453  13.022  0.6633 -0.8745 -0.6690
48493SOL     OW63470  10.486  13.878  10.776 -0.4107  0.7190  1.2409
48493SOL    HW163471  10.475  13.874  10.871 -3.5906 -1.6110  0.9512
48493SOL    HW263472  10.398  13.896  10.742  0.4778  0.6703 -1.2805
48494SOL     OW63473   1.829  10.115   6.634 -0.0950 -0.2418 -0.5400
48494SOL    HW163474   1.753  10.104   6.692  0.4666 -1.3650  0.0238
48494SOL    HW263475   1.862  10.026   6.622  1.7836  0.3452  0.0975
48495SOL     OW63476   7.434   5.087  12.087  0.3538  0.4919 -0.1631
48495SOL    HW163477   7.512   5.038  12.114  0.3405  0.5580 -0.0023
48495SOL    HW263478   7.468   5.165  12.044  0.3754  0.2353 -0.6196
48496SOL     OW63479   0.986  13.963   3.332 -0.2135 -0.9395  0.0186
48496SOL    HW163480   1.030  14.046   3.310 -1.2940 -0.8488 -2.0274
48496SOL    HW263481   0.982  13.915   3.249 -2.5106 -1.6091  0.4456
48497SOL     OW63482   1.402  10.473  13.423 -0.0934 -0.2102 -0.1018
48497SOL    HW163483   1.453  10.537  13.472  0.4448 -0.3377 -0.4819
48497SOL    HW263484   1.468  10.415  13.384 -0.5907 -1.4015  0.7813
48498SOL     OW63485   1.301   2.152   4.891 -0.0340  0.5138  0.0819
48498SOL    HW163486   1.231   2.105   4.937 -0.4034  0.5283 -0.4616
48498SOL    HW263487   1.368   2.167   4.959  1.2648 -2.9856 -0.2349
48499SOL     OW63488   1.545   6.496   7.060 -0.0067 -0.0071  0.0479
48499SOL    HW163489   1.451   6.513   7.061 -0.1409 -0.4166 -1.6697
48499SOL    HW263490   1.575   6.536   6.978  1.1501 -0.6710  0.1282
48500SOL     OW63491   7.146  10.586   2.094 -0.5150  0.3999 -0.6445
48500SOL    HW163492   7.208  10.653   2.120 -1.4186  0.5845  1.1951
48500SOL    HW263493   7.177  10.556   2.009  3.4549 -1.1654  1.1135
48501SOL     OW63494   4.906   0.995   2.493  0.1187  0.6480 -0.2562
48501SOL    HW163495   4.922   1.035   2.579  0.2919  1.7120 -0.7642
48501SOL    HW263496   4.874   0.907   2.513  1.9135  0.2109  0.8634
48502SOL     OW63497   2.445  11.290   6.953 -0.2381 -0.3967  0.0639
48502SOL    HW163498   2.439  11.203   6.993  1.1794 -0.0399  1.1003
48502SOL    HW263499   2.431  11.351   7.025  4.2924  0.3091  0.6270
48503SOL     OW63500   3.019   1.170   9.273 -0.2300 -0.4913 -0.0115
48503SOL    HW163501   2.977   1.086   9.290 -0.2985 -0.6696 -0.9637
48503SOL    HW263502   3.021   1.214   9.357 -1.6529 -0.7800  0.1942
48504SOL     OW63503   3.759   0.526   3.456 -0.0614 -0.3515  0.0273
48504SOL    HW163504   3.701   0.528   3.533 -2.8643 -1.2716 -1.8907
48504SOL    HW263505   3.791   0.436   3.451  0.4844 -0.1780  0.3529
48505SOL     OW63506  13.479  12.002   9.406 -0.4324  0.3008 -0.0636
48505SOL    HW163507  13.457  12.087   9.443 -0.5751  0.6496 -0.9239
48505SOL    HW263508  13.394  11.958   9.397 -0.5425  0.6808 -1.0562
48506SOL     OW63509  12.575  12.448   1.080  0.2137  0.3108  0.0653
48506SOL    HW163510  12.538  12.536   1.069  1.2967  0.8543  0.6364
48506SOL    HW263511  12.578  12.436   1.175  0.0517 -0.3576 -0.0145
48507SOL     OW63512  12.895  10.931   4.388 -0.3332 -0.0602  0.3780
48507SOL    HW163513  12.844  11.011   4.375 -1.1943 -0.6509  0.0422
48507SOL    HW263514  12.986  10.959   4.378 -0.6792  0.5863 -1.4338
48508SOL     OW63515   4.674   4.144  10.922 -0.1122  0.2245  0.2426
48508SOL    HW163516   4.593   4.166  10.968 -1.6317 -0.2342 -2.0351
48508SOL    HW263517   4.671   4.049  10.913  2.4283 -0.2416  3.0247
48509SOL     OW63518   5.713  11.119  13.917 -0.2236 -0.8745  0.4238
48509SOL    HW163519   5.771  11.155  13.983 -1.0421  1.6303 -0.1148
48509SOL    HW263520   5.630  11.104  13.963 -0.2392 -0.9386  0.3748
48510SOL     OW63521   7.278   8.371   1.555 -0.1822  0.4296 -0.1861
48510SOL    HW163522   7.328   8.449   1.575  0.4954 -0.0157 -0.1163
48510SOL    HW263523   7.328   8.299   1.594 -1.0440  0.0081  0.1715
48511SOL     OW63524   7.499   3.924   5.189 -0.1128 -0.1351 -0.1289
48511SOL    HW163525   7.480   3.941   5.096  0.5888 -1.6079 -0.5767
48511SOL    HW263526   7.461   3.837   5.205 -2.3016  1.0451  1.6332
48512SOL     OW63527   8.074  11.305   0.169 -0.4906  0.4775 -0.4651
48512SOL    HW163528   8.092  11.218   0.205 -2.4010  0.6477  1.0383
48512SOL    HW263529   8.110  11.301   0.080 -3.5053 -3.1078 -1.7938
48513SOL     OW63530  13.956   1.284   2.808  0.2727  0.0822 -0.2260
48513SOL    HW163531  13.939   1.338   2.885  0.4901 -1.3695  0.8789
48513SOL    HW263532  14.029   1.228   2.834 -1.1254 -2.0497 -0.6142
48514SOL     OW63533   7.929   1.961   8.957  0.1585 -0.3450  0.0289
48514SOL    HW163534   7.839   1.959   8.923  0.0153  1.0323  0.2572
48514SOL    HW263535   7.984   1.941   8.881 -0.2623  0.6314 -0.5514
48515SOL     OW63536   3.983  11.485   6.544  0.7174  0.5093  0.1735
48515SOL    HW163537   4.002  11.569   6.501 -0.6516  0.5084 -0.4719
48515SOL    HW263538   3.889  11.487   6.561  0.8267 -0.5218  0.9914
48516SOL     OW63539   0.547   6.529  13.522  0.3013 -0.1652 -0.2003
48516SOL    HW163540   0.540   6.597  13.455  0.0329 -0.3139 -0.3256
48516SOL    HW263541   0.456   6.503  13.539  0.3501  0.0769  0.4351
48517SOL     OW63542   8.386  12.573  13.228 -0.1109 -0.1933  0.3522
48517SOL    HW163543   8.431  12.490  13.213  0.6248 -0.1622  2.1469
48517SOL    HW263544   8.374  12.577  13.323 -0.7056  1.4689  0.2379
48518SOL     OW63545   4.419  11.443  10.700 -0.2987  0.4124  0.2482
48518SOL    HW163546   4.353  11.513  10.697  0.5041  1.2403  1.2928
48518SOL    HW263547   4.442  11.436  10.792  1.1025  0.1630 -0.1066
48519SOL     OW63548   0.416  12.367   8.318  0.6194  0.1592  0.5818
48519SOL    HW163549   0.457  12.436   8.266  0.0650  0.3243  0.3554
48519SOL    HW263550   0.324  12.391   8.321  0.5479 -0.1664  1.1484
48520SOL     OW63551   3.891   7.482   9.373 -0.5506 -0.0860 -0.4377
48520SOL    HW163552   3.979   7.458   9.404 -0.9381  0.6414  1.3719
48520SOL    HW263553   3.899   7.486   9.278  1.0228 -1.4010 -0.4114
48521SOL     OW63554   8.222   9.485   3.431  0.1365 -0.2187  0.3552
48521SOL    HW163555   8.239   9.453   3.519 -1.7117  0.1354  0.8842
48521SOL    HW263556   8.190   9.574   3.443  2.1797  0.7475 -0.8787
48522SOL     OW63557   1.879   6.072   6.973  0.0880 -0.0004  0.3407
48522SOL    HW163558   1.903   6.024   6.894  0.2744 -1.0664  1.0186
48522SOL    HW263559   1.908   6.162   6.956 -1.8459  0.3263 -1.6530
48523SOL     OW63560   8.229   2.608  10.530  0.0078 -0.1966  0.4453
48523SOL    HW163561   8.170   2.621  10.456 -0.4380  1.5182  1.0668
48523SOL    HW263562   8.243   2.696  10.566  1.4960 -0.7935  1.4200
48524SOL     OW63563   2.422  11.045  12.932 -0.4843  0.2463 -0.4414
48524SOL    HW163564   2.338  11.075  12.967  0.5709  1.5756  1.0868
48524SOL    HW263565   2.487  11.078  12.994  1.1466 -1.1810 -1.3081
48525SOL     OW63566   6.242  13.113   1.095 -0.4242 -0.1315  0.0264
48525SOL    HW163567   6.319  13.122   1.039  0.3834  2.0499  1.3414
48525SOL    HW263568   6.259  13.035   1.147 -0.2564 -1.0344 -1.3430
48526SOL     OW63569  13.914   0.314  14.062 -0.1005  0.1456  0.3879
48526SOL    HW163570  13.851   0.264  14.114 -0.2812 -2.8047 -2.3589
48526SOL    HW263571  13.996   0.265  14.068  0.4371  0.9066 -0.4259
48527SOL     OW63572  11.271   4.695   9.757 -0.0043 -0.0013  0.0386
48527SOL    HW163573  11.256   4.726   9.846 -0.1383 -0.4603  0.1790
48527SOL    HW263574  11.196   4.638   9.738  0.1871 -0.1625 -0.2487
48528SOL     OW63575  11.339   2.547   0.606 -0.8810  0.1722 -0.0853
48528SOL    HW163576  11.411   2.524   0.665 -1.6171 -2.1196 -0.0032
48528SOL    HW263577  11.372   2.623   0.558  1.4712 -0.5750  0.1991
48529SOL     OW63578   6.085   1.912  10.059  0.0927  0.0857 -0.2671
48529SOL    HW163579   6.054   2.003  10.057  1.4882  0.5679 -2.0710
48529SOL    HW263580   6.007   1.860  10.042 -0.1645  1.1677 -2.8824
48530SOL     OW63581   3.634   3.328   6.194  0.0516 -0.4161  0.4020
48530SOL    HW163582   3.633   3.354   6.102  0.4669 -1.2057  0.1632
48530SOL    HW263583   3.624   3.232   6.193 -2.2590 -0.2482  1.2847
48531SOL     OW63584   2.428   4.259  12.601  0.4457 -0.1574 -0.8098
48531SOL    HW163585   2.467   4.175  12.575  2.9143  1.0133 -1.2660
48531SOL    HW263586   2.474   4.283  12.681  0.1808  0.9871 -0.9785
48532SOL     OW63587   4.504   7.462   5.014 -0.3964 -0.1985 -0.7528
48532SOL    HW163588   4.488   7.375   4.976  0.0706 -0.6293  0.0023
48532SOL    HW263589   4.596   7.459   5.042 -0.7780  0.0155  0.5871
48533SOL     OW63590   1.403   0.737   6.639  0.4715  0.1733 -0.0505
48533SOL    HW163591   1.471   0.782   6.588  1.8658 -0.8387  0.8286
48533SOL    HW263592   1.395   0.788   6.719  0.4142  0.1337 -0.0304
48534SOL     OW63593  13.608  12.590   6.612  0.1146 -0.3167 -0.2608
48534SOL    HW163594  13.527  12.577   6.563 -0.4181 -1.5419  0.8707
48534SOL    HW263595  13.603  12.527   6.684  1.6011  0.3073  0.4403
48535SOL     OW63596   4.596   8.698  13.612 -0.3265 -0.2636  0.1200
48535SOL    HW163597   4.510   8.732  13.590 -0.3746 -1.1223 -1.1096
48535SOL    HW263598   4.605   8.619  13.559  0.6332 -0.9889  1.3116
48536SOL     OW63599   3.184   3.469  10.057  0.5878 -0.0275  0.0934
48536SOL    HW163600   3.257   3.490  10.115  0.6202 -1.2781  0.5415
48536SOL    HW263601   3.108   3.461  10.115  0.4403 -0.4196 -0.1497
48537SOL     OW63602   9.311   0.085   5.005 -0.4035  0.3959 -0.3430
48537SOL    HW163603   9.400   0.057   4.984  0.1921  0.5173  1.7881
48537SOL    HW263604   9.275   0.117   4.922  1.5112  0.3104 -1.2473
48538SOL     OW63605   8.673  12.345   8.995  0.7273 -0.2394  0.4250
48538SOL    HW163606   8.756  12.311   8.961  0.3143  0.1435 -1.0831
48538SOL    HW263607   8.608  12.311   8.934 -0.1267  0.0996  1.1416
48539SOL     OW63608   5.720   7.318   6.796  0.0854 -0.3863  0.1503
48539SOL    HW163609   5.692   7.243   6.744 -0.5660 -0.6535  0.8791
48539SOL    HW263610   5.651   7.331   6.861  2.1203 -1.8472  2.8312
48540SOL     OW63611   9.837  11.579   8.082  0.4873  0.1925  0.0585
48540SOL    HW163612   9.802  11.622   8.004  0.3582  0.1588  0.0978
48540SOL    HW263613   9.824  11.642   8.153 -0.3359 -0.1810  0.2492
48541SOL     OW63614  12.168   1.728   7.169 -0.2041 -0.6538  0.1856
48541SOL    HW163615  12.157   1.821   7.189  2.1638 -0.9595  3.8924
48541SOL    HW263616  12.082   1.690   7.183 -0.6907  0.6755  0.9678
48542SOL     OW63617   1.743  10.483   5.690  0.2320 -0.0274 -0.3659
48542SOL    HW163618   1.666  10.506   5.638 -1.1155 -2.1296  0.5750
48542SOL    HW263619   1.721  10.510   5.779  1.1227  0.4802 -0.2863
48543SOL     OW63620  10.482  11.164  10.212 -0.4746  0.1156 -0.1828
48543SOL    HW163621  10.463  11.129  10.125 -1.6781 -1.5238  0.6915
48543SOL    HW263622  10.529  11.246  10.195 -4.9177  2.5401 -2.5062
48544SOL     OW63623   3.196  13.385   4.624  0.3888  0.3093  0.0573
48544SOL    HW163624   3.126  13.329   4.592 -2.4788  2.0980  2.6534
48544SOL    HW263625   3.202  13.456   4.560  1.0204 -0.6625 -0.9942
48545SOL     OW63626  10.080  10.715   1.617 -0.1622 -0.1176 -0.6155
48545SOL    HW163627  10.125  10.758   1.544  2.2370  0.9810  1.3546
48545SOL    HW263628  10.084  10.622   1.595  2.9153 -0.0718 -0.7620
48546SOL     OW63629   8.881   6.986  10.447 -0.3578 -0.4463 -0.1456
48546SOL    HW163630   8.791   6.952  10.448 -0.4742 -0.1456  0.0210
48546SOL    HW263631   8.924   6.941  10.520 -1.1097  1.2878  1.4438
48547SOL     OW63632  11.910   5.399   1.762 -0.2581 -0.3164  0.0224
48547SOL    HW163633  11.977   5.331   1.760 -1.6208 -1.7147 -0.0796
48547SOL    HW263634  11.872   5.398   1.674  0.1244  1.0467 -0.1832
48548SOL     OW63635   6.420   5.293   0.292 -0.3246 -0.0061  0.5149
48548SOL    HW163636   6.503   5.278   0.246 -1.5155 -1.6828 -1.2617
48548SOL    HW263637   6.400   5.385   0.277 -0.8644 -0.5336 -2.9031
48549SOL     OW63638   9.560   2.135   3.192 -0.2622 -0.5497  0.3670
48549SOL    HW163639   9.523   2.120   3.279 -1.6016  0.2205 -0.0404
48549SOL    HW263640   9.485   2.128   3.132  0.2179  1.0666 -0.4892
48550SOL     OW63641  11.960  11.016  10.474  0.3182 -0.7067 -0.6358
48550SOL    HW163642  11.888  11.068  10.438  1.1296  1.3135  0.5162
48550SOL    HW263643  11.916  10.941  10.515 -1.1252  0.2982 -0.2441
48551SOL     OW63644  11.248  11.513   9.422  0.4567  0.2128 -0.5654
48551SOL    HW163645  11.324  11.536   9.476  1.6892 -0.9239 -1.7201
48551SOL    HW263646  11.198  11.594   9.416  0.7393  0.5984  1.4930
48552SOL     OW63647   0.173   2.306  13.686 -0.4652 -0.1760  0.6389
48552SOL    HW163648   0.144   2.397  13.674 -0.9971 -0.5142 -0.7425
48552SOL    HW263649   0.097   2.261  13.721  0.0713  0.0683  2.2308
48553SOL     OW63650  13.364   2.937   1.508  0.0685  0.3208  0.7573
48553SOL    HW163651  13.393   3.016   1.554 -1.1427  2.0875 -1.2918
48553SOL    HW263652  13.280   2.961   1.471  1.5622 -0.3103 -3.6435
48554SOL     OW63653   8.765  10.915   3.079  0.4654  0.0566  0.3549
48554SOL    HW163654   8.715  10.863   3.143  1.7320  0.0778  1.3971
48554SOL    HW263655   8.727  10.892   2.994 -0.9399 -0.3391  1.0665
48555SOL     OW63656   3.441   3.618  10.739  0.2690  0.0301 -0.0597
48555SOL    HW163657   3.345   3.623  10.731  0.1262  1.1439  1.7677
48555SOL    HW263658   3.458   3.528  10.766 -0.2850 -0.1008 -0.1207
48556SOL     OW63659  10.722   5.540   3.717 -0.3182  0.1635 -0.2549
48556SOL    HW163660  10.652   5.519   3.779 -0.0608 -0.5241 -0.1829
48556SOL    HW263661  10.796   5.488   3.747  0.8991  2.4354  0.8955
48557SOL     OW63662  12.396  11.426   4.476 -0.3349 -0.1858 -0.1456
48557SOL    HW163663  12.334  11.448   4.545  0.8721  0.8177  0.6667
48557SOL    HW263664  12.453  11.360   4.514  1.0713  1.2104  0.3017
48558SOL     OW63665   7.129   7.001   7.396  0.1253  0.5558 -0.0040
48558SOL    HW163666   7.067   6.939   7.357 -0.2520  0.4837  0.6917
48558SOL    HW263667   7.179   7.034   7.322  1.1291 -1.4464 -0.2949
48559SOL     OW63668  11.867   8.285  13.669 -0.1706 -0.1634 -0.1620
48559SOL    HW163669  11.962   8.277  13.665 -0.0357  0.4019  1.2671
48559SOL    HW263670  11.836   8.194  13.669  0.3151 -0.3435 -1.2546
48560SOL     OW63671   1.456   9.212   3.077  0.2610  0.2102 -0.0091
48560SOL    HW163672   1.407   9.143   3.122 -0.1272  1.1328  1.0178
48560SOL    HW263673   1.515   9.165   3.019 -1.1411 -0.9630 -0.5549
48561SOL     OW63674  12.701   9.987   2.632  0.3392 -0.4564 -0.1474
48561SOL    HW163675  12.682  10.031   2.715  0.9239  0.0860 -0.2989
48561SOL    HW263676  12.759   9.915   2.656 -0.1653 -0.8091  0.0244
48562SOL     OW63677  11.766  12.601   4.868 -0.4536 -0.1321 -0.3953
48562SOL    HW163678  11.774  12.674   4.806  0.3394 -0.2053 -0.3902
48562SOL    HW263679  11.745  12.526   4.813 -1.3557  0.1097 -0.3918
48563SOL     OW63680   1.677   4.463   1.901  0.8241 -0.1599 -0.1708
48563SOL    HW163681   1.596   4.414   1.915  0.4145  0.3334 -0.7916
48563SOL    HW263682   1.650   4.554   1.902  1.4378  0.0256  0.0021
48564SOL     OW63683   0.638  12.577   9.723  0.0082  0.5122  0.4087
48564SOL    HW163684   0.635  12.490   9.683 -0.5393  0.5218  0.4105
48564SOL    HW263685   0.662  12.635   9.651  2.2157  0.1603  0.7988
48565SOL     OW63686   0.072   5.173  10.237 -0.5499 -0.2351  0.5291
48565SOL    HW163687   0.129   5.176  10.160 -1.9222  0.5026 -0.4926
48565SOL    HW263688   0.123   5.124  10.302  0.8957 -0.3313 -0.6199
48566SOL     OW63689   9.091  11.262   9.675 -0.4369  0.0949  0.3267
48566SOL    HW163690   9.104  11.197   9.606 -1.8120  0.4128 -0.2549
48566SOL    HW263691   9.038  11.331   9.634 -2.1488 -0.1809  1.9495
48567SOL     OW63692  12.888  13.642  10.559  0.0355 -0.0283  0.5122
48567SOL    HW163693  12.812  13.670  10.609 -1.0157  1.1335 -1.6166
48567SOL    HW263694  12.936  13.722  10.540  1.0290 -0.5830  0.5936
48568SOL     OW63695   1.661   2.049   9.575 -0.3134  0.5620  0.2744
48568SOL    HW163696   1.615   2.058   9.659 -4.6595 -1.4038 -1.5710
48568SOL    HW263697   1.690   1.958   9.574 -0.2515  0.5889 -0.3433
48569SOL     OW63698   4.805  11.261   2.373  0.0545 -0.3917 -0.5054
48569SOL    HW163699   4.842  11.349   2.367 -0.4934 -0.0315  0.9411
48569SOL    HW263700   4.861  11.207   2.318 -0.0301  0.9880 -2.0138
48570SOL     OW63701   0.706   4.884   1.279  0.2999  0.1717  0.4586
48570SOL    HW163702   0.768   4.840   1.220  0.8108 -0.6499  1.5697
48570SOL    HW263703   0.620   4.861   1.244  0.5770  1.8036 -1.4533
48571SOL     OW63704   7.959   9.643   3.383 -0.1532  0.1108  0.3787
48571SOL    HW163705   7.927   9.686   3.304  0.9427 -1.1173 -0.7905
48571SOL    HW263706   8.004   9.712   3.432  1.0696  0.4443 -1.1700
48572SOL     OW63707   2.853  10.006  10.489 -0.2885  0.2389 -0.4384
48572SOL    HW163708   2.809  10.033  10.570 -2.4914  0.9072 -1.7611
48572SOL    HW263709   2.892   9.921  10.510 -0.6420  0.4820  1.3678
48573SOL     OW63710   9.085  11.264   1.455 -0.1148 -0.4668 -0.1304
48573SOL    HW163711   9.048  11.349   1.480  0.3923 -0.0510 -0.7601
48573SOL    HW263712   9.154  11.286   1.392  0.3950 -1.3097  0.1202
48574SOL     OW63713   8.092   0.737  10.198  0.0697 -0.1634 -0.0566
48574SOL    HW163714   8.023   0.725  10.264  0.9311  0.0958  0.9116
48574SOL    HW263715   8.083   0.828  10.170 -0.4944 -0.3606 -0.5412
48575SOL     OW63716  11.309  12.079   5.693  0.7136 -0.2454  0.1046
48575SOL    HW163717  11.271  12.031   5.766 -0.2899  0.7841  0.2911
48575SOL    HW263718  11.267  12.044   5.615  0.8722 -0.4967  0.1329
48576SOL     OW63719   7.206   1.961  10.696 -0.1953 -0.3172 -0.4615
48576SOL    HW163720   7.189   1.970  10.790 -0.7531 -0.7953 -0.5153
48576SOL    HW263721   7.295   1.925  10.692  0.7356  1.7509 -0.1792
48577SOL     OW63722   7.347   4.241   7.828 -0.3938  0.4233  0.1639
48577SOL    HW163723   7.403   4.296   7.883 -0.8208  1.6303 -0.5731
48577SOL    HW263724   7.403   4.214   7.755  0.2294 -1.3348  1.2156
48578SOL     OW63725  12.440   1.323  12.502 -0.2902 -0.3347 -0.1169
48578SOL    HW163726  12.404   1.239  12.531  1.3743 -0.4284  1.8932
48578SOL    HW263727  12.445   1.375  12.582 -1.6283  1.8619 -1.3784
48579SOL     OW63728   0.107   9.497  11.953  0.3710 -0.5024  0.1647
48579SOL    HW163729   0.074   9.494  12.043  1.7152 -1.0251  0.6643
48579SOL    HW263730   0.127   9.590  11.939 -2.0638  0.0101 -0.4868
48580SOL     OW63731   9.009   8.739  13.923 -0.0652  0.3008 -0.2937
48580SOL    HW163732   8.973   8.807  13.979  0.2573  0.2895 -0.0736
48580SOL    HW263733   8.942   8.670  13.923 -0.1252  0.3591 -0.0365
48581SOL     OW63734   6.713   2.222   4.775 -0.5287 -0.6263 -0.2333
48581SOL    HW163735   6.622   2.232   4.746 -0.5865 -1.2542 -0.2923
48581SOL    HW263736   6.721   2.129   4.795 -0.4599 -0.2449  1.6824
48582SOL     OW63737  11.681  11.256  13.470 -0.4740 -0.3027  0.3032
48582SOL    HW163738  11.665  11.256  13.565  0.6349 -1.2786  0.5143
48582SOL    HW263739  11.703  11.165  13.450 -1.3885 -0.2667 -1.0314
48583SOL     OW63740   5.889  13.059  10.881  0.9782 -0.1456  0.3701
48583SOL    HW163741   5.886  13.024  10.792  0.5139 -1.0191  0.7152
48583SOL    HW263742   5.921  12.986  10.934 -0.1100 -0.1002  1.1250
48584SOL     OW63743   3.719   8.709  12.236 -0.0830 -0.3726 -0.6451
48584SOL    HW163744   3.766   8.792  12.239 -1.0914  0.3326 -2.4266
48584SOL    HW263745   3.766   8.657  12.170 -1.3132  0.0650 -1.9125
48585SOL     OW63746   9.680   5.982   5.738 -0.1474  0.2377 -0.0508
48585SOL    HW163747   9.697   6.076   5.732  0.0705  0.1803 -0.3420
48585SOL    HW263748   9.587   5.976   5.759  0.0708  0.5494  1.1322
48586SOL     OW63749  13.820  13.281  12.801 -0.6316 -0.1710  0.4452
48586SOL    HW163750  13.781  13.369  12.798 -2.5022 -0.9450  0.3620
48586SOL    HW263751  13.837  13.259  12.710 -0.1106  0.1316  0.4711
48587SOL     OW63752   7.623   2.658   5.971 -0.4508 -0.6375 -0.4740
48587SOL    HW163753   7.577   2.726   5.922  0.3859 -1.5367 -2.6133
48587SOL    HW263754   7.689   2.705   6.020 -1.8470  0.3785  0.5223
48588SOL     OW63755   5.499   1.504   0.641  0.2233 -0.7980 -0.1515
48588SOL    HW163756   5.579   1.483   0.689  0.3125 -2.6419 -1.0069
48588SOL    HW263757   5.457   1.572   0.693  1.2975 -1.2942  1.4453
48589SOL     OW63758   9.280   5.217  10.184 -0.4711 -0.5756  0.1468
48589SOL    HW163759   9.357   5.203  10.129  0.5612  0.7486  1.1909
48589SOL    HW263760   9.261   5.310  10.176 -0.9995 -0.5835  1.1017
48590SOL     OW63761  10.160   7.879   8.623 -0.4259  0.1210  0.2132
48590SOL    HW163762  10.181   7.836   8.706  1.6656  1.0246  0.1993
48590SOL    HW263763  10.221   7.842   8.560 -1.5954 -0.1114 -0.8196
48591SOL     OW63764   7.451  10.401  13.369  0.2538 -0.3350  0.1277
48591SOL    HW163765   7.466  10.309  13.389  0.9348  0.1913  2.2149
48591SOL    HW263766   7.474  10.448  13.449  1.5939  1.8232 -1.4035
48592SOL     OW63767   7.134   1.279   9.621 -0.6466  0.4403 -0.5443
48592SOL    HW163768   7.226   1.306   9.622 -1.0311  1.8091  0.2204
48592SOL    HW263769   7.099   1.310   9.704 -1.2785 -2.0755  0.2067
48593SOL     OW63770   9.794  12.186   1.162 -0.8040 -0.8272 -0.4878
48593SOL    HW163771   9.771  12.177   1.254 -0.9063 -1.2449 -0.5521
48593SOL    HW263772   9.851  12.263   1.159 -1.4842 -0.3054 -0.2030
48594SOL     OW63773   8.318   9.552   5.912 -0.1828 -0.2684  0.0738
48594SOL    HW163774   8.224   9.539   5.928 -0.5378  0.0210 -1.6412
48594SOL    HW263775   8.323   9.587   5.823  1.4978  0.6493  0.4842
48595SOL     OW63776   0.007   1.307   4.785  0.5492  0.4542 -0.3127
48595SOL    HW163777  -0.000   1.347   4.698 -0.3818  2.0115  0.4290
48595SOL    HW263778  -0.067   1.246   4.789  0.4970  0.4982 -0.5616
48596SOL     OW63779   9.811  10.302  10.709 -0.0416  0.2726  0.3546
48596SOL    HW163780   9.742  10.317  10.645 -1.4985 -0.7841  1.6076
48596SOL    HW263781   9.785  10.354  10.785  2.0991  2.1828 -0.1213
48597SOL     OW63782   6.377  10.994   7.407  0.2527  0.7051  0.6656
48597SOL    HW163783   6.413  11.024   7.324 -0.8874 -0.7952 -0.4070
48597SOL    HW263784   6.343  11.074   7.448  0.9132  1.4794 -0.2540
48598SOL     OW63785   0.732   0.813   3.347 -0.5555 -0.0863  0.0423
48598SOL    HW163786   0.828   0.812   3.338 -0.3478 -3.3417  1.3860
48598SOL    HW263787   0.716   0.867   3.424 -0.0288  1.9606 -1.1896
48599SOL     OW63788   5.873   9.995   8.085  0.4983  0.2528 -0.2397
48599SOL    HW163789   5.835   9.978   8.171  2.1425 -0.1320  0.4544
48599SOL    HW263790   5.802  10.033   8.034 -0.0524  2.2744  1.8645
48600SOL     OW63791  10.731  13.601   8.236 -0.2362 -0.1621 -0.2991
48600SOL    HW163792  10.656  13.624   8.291  1.7723  1.8822  1.7703
48600SOL    HW263793  10.795  13.565   8.296  1.5570  0.8988 -1.4776
48601SOL     OW63794   1.316   6.378   2.977  0.1936 -0.3014  0.4971
48601SOL    HW163795   1.402   6.339   2.961  0.8617  0.8235  1.1859
48601SOL    HW263796   1.255   6.305   2.967  1.1800 -1.0548 -0.3629
48602SOL     OW63797   7.222   9.228   5.007 -0.0255 -0.5679  0.1586
48602SOL    HW163798   7.167   9.155   4.981  0.8662 -1.2877  0.2623
48602SOL    HW263799   7.181   9.263   5.086 -0.1257 -1.3239  0.4448
48603SOL     OW63800   3.471   8.238   1.212 -0.8078  1.0034  0.0708
48603SOL    HW163801   3.556   8.223   1.171 -0.8981  0.3091  0.1214
48603SOL    HW263802   3.428   8.153   1.210 -1.4102  1.2940  0.2604
48604SOL     OW63803  13.846  11.121   3.412 -0.1568 -0.2050 -0.1273
48604SOL    HW163804  13.833  11.214   3.433 -0.0004 -0.1506 -0.2741
48604SOL    HW263805  13.757  11.088   3.396 -0.0907  0.2941 -1.6348
48605SOL     OW63806   7.693  10.223  12.285 -0.1757  0.6290 -0.9541
48605SOL    HW163807   7.630  10.168  12.332  0.5338  0.1524 -0.5349
48605SOL    HW263808   7.778  10.185  12.306  0.1396 -0.2150 -3.3997
48606SOL     OW63809   9.422   7.630   8.435  0.5973  0.3633 -0.5111
48606SOL    HW163810   9.464   7.554   8.396  1.2342 -0.5794  1.8292
48606SOL    HW263811   9.472   7.647   8.515 -0.8283  1.9139  0.1143
48607SOL     OW63812   4.260   9.478   2.171  0.0488 -0.1865  0.0816
48607SOL    HW163813   4.257   9.564   2.131 -0.7773  0.7621  2.0692
48607SOL    HW263814   4.281   9.494   2.263  0.6907 -2.1751  0.3431
48608SOL     OW63815   4.337  10.932  13.353  0.0287 -0.3358  0.6118
48608SOL    HW163816   4.302  10.864  13.411 -0.2610  0.0759  0.9337
48608SOL    HW263817   4.335  10.894  13.266  0.2663 -0.8882  0.8461
48609SOL     OW63818   1.279   2.976  12.886 -0.4206  0.2426  0.3430
48609SOL    HW163819   1.359   2.926  12.900  0.3100  0.5833 -2.1635
48609SOL    HW263820   1.306   3.052  12.835 -2.1848  0.8859  0.2776
48610SOL     OW63821  10.787   4.924  13.262 -0.3503  0.0471 -0.6123
48610SOL    HW163822  10.875   4.909  13.227 -1.1305 -2.5621 -1.7335
48610SOL    HW263823  10.739   4.963  13.188 -0.6283 -0.4105 -0.6762
48611SOL     OW63824  11.703   3.646  10.193 -0.0375 -0.4071  0.2892
48611SOL    HW163825  11.788   3.605  10.174 -0.6484 -1.1291 -1.0374
48611SOL    HW263826  11.715   3.687  10.279  0.9666 -2.4041  1.1706
48612SOL     OW63827  10.655   6.420  12.867  0.1746 -0.6214  0.2992
48612SOL    HW163828  10.606   6.502  12.869  0.6477 -0.3446  1.9738
48612SOL    HW263829  10.608   6.362  12.925  2.1847 -0.0724  2.6383
48613SOL     OW63830  11.893  12.774   6.854 -1.2591 -0.3821  0.1689
48613SOL    HW163831  11.811  12.817   6.832 -0.2713  1.0627 -0.8886
48613SOL    HW263832  11.910  12.715   6.781 -0.7474  0.2580 -0.2379
48614SOL     OW63833   9.906  13.105   6.459  0.0215  0.3611 -0.1736
48614SOL    HW163834   9.993  13.071   6.479 -0.1462  0.2108  0.3283
48614SOL    HW263835   9.917  13.200   6.457  0.0214  0.3877  0.7759
48615SOL     OW63836  12.763   6.422   0.980  0.5712 -1.1232  0.2213
48615SOL    HW163837  12.781   6.503   0.933  0.0943  0.5261  2.6600
48615SOL    HW263838  12.796   6.352   0.923  1.2176  0.7708 -1.8611
48616SOL     OW63839   8.248   0.967   8.103  0.2809  0.2247 -0.4166
48616SOL    HW163840   8.307   0.977   8.027  0.2733  0.6901 -0.3660
48616SOL    HW263841   8.306   0.974   8.179  0.3536 -0.7065 -0.3850
48617SOL     OW63842   7.295  12.375   8.906 -0.1470  0.0284  0.3110
48617SOL    HW163843   7.237  12.434   8.857 -0.0491  0.6798  0.9549
48617SOL    HW263844   7.267  12.385   8.997  1.1387  0.5590  0.6696
48618SOL     OW63845   9.946   3.211  10.769 -0.1476 -0.8827  0.5400
48618SOL    HW163846   9.910   3.187  10.683 -0.5967  1.3017  0.0560
48618SOL    HW263847   9.869   3.238  10.819  0.4983  1.8046  0.2091
48619SOL     OW63848   3.070   4.399   0.750  0.0628  0.2461  0.5316
48619SOL    HW163849   2.988   4.366   0.713 -0.5285  0.9964  1.1440
48619SOL    HW263850   3.100   4.328   0.806  0.6476 -0.6514 -0.8655
48620SOL     OW63851  11.660   3.332   7.855 -0.0473  0.1120  0.3439
48620SOL    HW163852  11.675   3.276   7.931 -1.7009 -0.4491  0.3097
48620SOL    HW263853  11.638   3.271   7.785 -1.0371  0.7446  0.0809
48621SOL     OW63854   8.307   0.859   2.282  0.1367 -0.6423  0.5277
48621SOL    HW163855   8.215   0.832   2.277  0.2226 -1.2313  1.6777
48621SOL    HW263856   8.330   0.848   2.374  1.9466 -2.4642 -0.0640
48622SOL     OW63857  10.840   9.060   3.212 -0.0153 -0.0697  0.6150
48622SOL    HW163858  10.772   9.043   3.278  0.0564 -1.1218  0.4397
48622SOL    HW263859  10.920   9.024   3.250  0.5178  1.3736  0.9180
48623SOL     OW63860   1.260   6.062   1.365 -0.4981  0.0302  0.1472
48623SOL    HW163861   1.260   6.078   1.270 -1.6591 -0.5536  0.0228
48623SOL    HW263862   1.189   6.117   1.398 -0.6678 -0.4247  0.5486
48624SOL     OW63863  11.710   8.043   0.884 -0.0910  0.5108 -0.0542
48624SOL    HW163864  11.759   7.979   0.833 -0.4594  0.0173  0.2041
48624SOL    HW263865  11.653   8.086   0.821 -2.2787 -1.7066  0.2414
48625SOL     OW63866  11.952   9.980   3.620  0.0185 -0.3053  0.4075
48625SOL    HW163867  11.941   9.960   3.527  0.4942  4.3537 -0.8530
48625SOL    HW263868  12.032   9.933   3.645  0.6309 -0.6091 -1.8810
48626SOL     OW63869   1.104   8.468  12.517  0.9386  0.4392 -0.4238
48626SOL    HW163870   1.184   8.451  12.467  3.1412  2.8583  1.9766
48626SOL    HW263871   1.068   8.548  12.479 -0.1701 -0.3807 -1.1837
48627SOL     OW63872  12.653   2.123   2.349 -0.4273 -0.0724  0.3364
48627SOL    HW163873  12.594   2.195   2.329 -0.7331 -0.1035  1.0969
48627SOL    HW263874  12.618   2.084   2.428 -0.1232 -0.9063  0.0783
48628SOL     OW63875  13.922   7.895  12.491 -0.7865  0.5138 -0.1122
48628SOL    HW163876  13.828   7.878  12.480 -1.0568  1.9515 -0.2590
48628SOL    HW263877  13.940   7.875  12.583 -1.0560 -0.5330 -0.2815
48629SOL     OW63878  10.801  10.833   0.101  0.3445  0.9081  0.4894
48629SOL    HW163879  10.820  10.871   0.187 -0.2758 -0.3395  1.2049
48629SOL    HW263880  10.792  10.739   0.118 -4.1672  1.0208 -0.0772
48630SOL     OW63881  13.971  13.504   9.336  0.1734  0.0071  0.2331
48630SOL    HW163882  14.022  13.548   9.403 -0.0430 -0.4292  0.6928
48630SOL    HW263883  13.880  13.530   9.353 -0.2749 -2.2823  1.9097
48631SOL     OW63884   4.740   0.884   0.170  0.1434  0.2186  0.3971
48631SOL    HW163885   4.759   0.977   0.178  1.4619  0.1395 -1.1209
48631SOL    HW263886   4.790   0.856   0.093 -0.4772 -1.6750  0.6169
48632SOL     OW63887   9.451   6.131  13.192  0.2546 -0.1417 -0.1878
48632SOL    HW163888   9.388   6.093  13.131  0.8598  0.8407 -1.4951
48632SOL    HW263889   9.399   6.159  13.267 -0.8704  0.5080 -1.1701
48633SOL     OW63890  12.657   3.178   0.584  0.4119 -0.3612 -0.1131
48633SOL    HW163891  12.570   3.143   0.565  0.2789 -0.1018  0.0099
48633SOL    HW263892  12.714   3.139   0.518  0.3759 -1.2773  0.3930
48634SOL     OW63893  12.463   7.980   1.033 -0.1417 -0.3938 -0.4517
48634SOL    HW163894  12.463   8.046   1.103  1.1108 -1.1626  0.3225
48634SOL    HW263895  12.466   8.030   0.952  1.6787  0.5359  0.1369
48635SOL     OW63896   8.595   4.523   1.169 -0.6693  0.2444 -0.1151
48635SOL    HW163897   8.634   4.442   1.203 -0.8290  0.9307  1.8108
48635SOL    HW263898   8.503   4.502   1.158 -0.3886 -0.3854 -1.4988
48636SOL     OW63899  11.146  10.113   1.586 -0.4974 -1.0378 -0.0774
48636SOL    HW163900  11.171  10.132   1.676  0.7286 -0.5036 -0.4977
48636SOL    HW263901  11.221  10.065   1.550  0.2245  0.9553 -1.5145
48637SOL     OW63902  12.995   7.513  11.630  0.0959  0.1574 -0.1708
48637SOL    HW163903  12.980   7.582  11.566  0.0074  1.2052  0.9288
48637SOL    HW263904  13.017   7.436  11.578  0.0633  0.9711 -1.4422
48638SOL     OW63905   2.041  14.037   9.198  0.1035 -0.6784 -0.1701
48638SOL    HW163906   2.076  14.038   9.287 -2.0252  0.5477  0.7140
48638SOL    HW263907   2.095  14.099   9.150 -0.0874  0.2985  0.8476
48639SOL     OW63908  10.470  12.528   8.348 -0.6596  0.0537  0.4865
48639SOL    HW163909  10.478  12.525   8.253  0.7034 -0.2215  0.5983
48639SOL    HW263910  10.513  12.610   8.373 -1.3413  0.3117  0.8437
48640SOL     OW63911   2.869   5.012   3.209  0.2766 -0.0026 -0.1976
48640SOL    HW163912   2.851   4.920   3.230 -2.6256  0.4985 -0.0520
48640SOL    HW263913   2.917   5.045   3.284  0.5562 -1.1884  0.1585
48641SOL     OW63914   2.841   9.086  10.814  0.6699  0.7296  0.2088
48641SOL    HW163915   2.855   9.026  10.887 -0.2776  1.3391  0.9139
48641SOL    HW263916   2.847   9.173  10.852 -0.5162  1.0569 -0.2899
48642SOL     OW63917   2.839  13.574  12.471 -0.5303  0.1161 -0.0790
48642SOL    HW163918   2.882  13.524  12.402  0.4243 -1.3460  1.5070
48642SOL    HW263919   2.821  13.659  12.431  1.3161 -0.1676 -1.6704
48643SOL     OW63920   2.462   4.673   3.811 -0.1552  0.1314  0.2292
48643SOL    HW163921   2.477   4.687   3.904  0.2133 -0.8499  0.3317
48643SOL    HW263922   2.535   4.718   3.768 -0.5528  0.9376  0.3865
48644SOL     OW63923   8.682   7.948   6.085 -0.0895 -0.0995  0.4709
48644SOL    HW163924   8.602   7.902   6.112 -0.3064 -0.0968 -0.1359
48644SOL    HW263925   8.681   7.943   5.989 -0.9142  2.4384  0.2551
48645SOL     OW63926  12.365   2.979  13.484 -0.3300  0.3647 -0.0847
48645SOL    HW163927  12.333   2.918  13.551 -0.6390  1.9255  1.2276
48645SOL    HW263928  12.424   3.037  13.530  0.0378  1.0324 -1.3407
48646SOL     OW63929   5.544   8.826   0.719  0.3742  0.3053 -0.4191
48646SOL    HW163930   5.587   8.745   0.746 -0.4946 -0.2985 -0.7975
48646SOL    HW263931   5.614   8.891   0.717  1.2627 -0.6431 -1.0107
48647SOL     OW63932  11.140   3.488   1.219  0.1208 -0.5500 -0.4801
48647SOL    HW163933  11.082   3.432   1.167 -1.1980  0.7486 -0.4838
48647SOL    HW263934  11.226   3.448   1.211 -0.0560 -0.5860 -3.4732
48648SOL     OW63935  13.524   3.089   9.701  0.3398  0.0123  0.1710
48648SOL    HW163936  13.489   3.177   9.718  1.4127  0.9832 -2.1911
48648SOL    HW263937  13.473   3.057   9.628  1.3697 -0.4258 -0.3730
48649SOL     OW63938   8.806  11.053  12.532  0.6156  0.4572 -0.3699
48649SOL    HW163939   8.885  11.071  12.481  2.4469 -0.4578  1.9478
48649SOL    HW263940   8.833  11.067  12.623 -1.5689 -1.0644  0.5945
48650SOL     OW63941   9.175   8.344   7.416 -0.0337  0.6220 -0.0772
48650SOL    HW163942   9.211   8.283   7.352 -2.5490 -1.6373  0.4733
48650SOL    HW263943   9.228   8.331   7.494  1.7629  1.9213 -1.0079
48651SOL     OW63944   4.736  12.616   7.462 -0.1072 -0.3367 -0.4607
48651SOL    HW163945   4.823  12.647   7.486 -0.2852 -0.7102  0.7031
48651SOL    HW263946   4.675  12.675   7.506 -0.4877  0.7363 -2.3122
48652SOL     OW63947  13.083   3.462  13.678  0.7061  0.4030 -0.4259
48652SOL    HW163948  13.036   3.498  13.604 -0.1949 -0.3306 -0.2229
48652SOL    HW263949  13.030   3.485  13.754  0.2986 -1.0327 -0.2613
48653SOL     OW63950  11.056   4.665   6.951 -0.1927  0.5495  0.5959
48653SOL    HW163951  11.122   4.735   6.953  1.8043 -1.2313  1.2265
48653SOL    HW263952  11.025   4.659   7.042  1.3118 -0.7676  1.0872
48654SOL     OW63953   6.935  11.699   6.419  0.4243  0.2356 -0.8386
48654SOL    HW163954   6.842  11.721   6.422  0.3540 -0.1991  1.1603
48654SOL    HW263955   6.946  11.656   6.333 -1.5109 -0.9141 -0.5743
48655SOL     OW63956   2.939   4.705   3.882 -0.2745 -0.4493  0.2071
48655SOL    HW163957   2.909   4.754   3.806 -2.2692  0.3367  1.4178
48655SOL    HW263958   3.034   4.718   3.883 -0.4549  1.2457 -0.9850
48656SOL     OW63959   0.556   8.367   0.203 -0.6091  0.5556 -0.1680
48656SOL    HW163960   0.533   8.448   0.157 -1.3423  0.2179 -0.4200
48656SOL    HW263961   0.613   8.395   0.274 -1.4360  1.3911  0.1918
48657SOL     OW63962   3.276   8.819  14.123  0.8468  0.6622  0.6976
48657SOL    HW163963   3.194   8.845  14.166  0.0904  0.6272 -0.6510
48657SOL    HW263964   3.261   8.728  14.098  1.0638  0.8211 -0.0474
48658SOL     OW63965   7.231  13.336   0.562 -0.1523 -0.0560  0.0660
48658SOL    HW163966   7.197  13.291   0.485  0.1574 -0.4854  0.1790
48658SOL    HW263967   7.308  13.383   0.531 -0.4948  0.4276 -0.0593
48659SOL     OW63968   9.956   7.139   0.719  0.2111 -0.2912 -0.0892
48659SOL    HW163969  10.029   7.170   0.664 -0.3121  0.8947 -0.1488
48659SOL    HW263970   9.946   7.047   0.695  0.6827 -0.0755 -1.2116
48660SOL     OW63971   1.374   3.446   4.460  0.0059  0.6935  0.5835
48660SOL    HW163972   1.380   3.398   4.543  1.7425  0.4653  0.3628
48660SOL    HW263973   1.288   3.488   4.463 -0.4957 -0.3485  1.9228
48661SOL     OW63974   9.543   6.406   9.975  0.4085 -0.4179 -0.7965
48661SOL    HW163975   9.516   6.386   9.885 -1.0153 -0.3836 -0.4018
48661SOL    HW263976   9.463   6.436  10.018  0.6151 -2.2502  1.0174
48662SOL     OW63977  12.014  12.127   8.131 -0.4780  0.1354  0.1937
48662SOL    HW163978  12.089  12.068   8.135 -0.8334 -0.2806  1.1681
48662SOL    HW263979  12.011  12.157   8.041  0.9686  0.3020  0.1798
48663SOL     OW63980   2.933   8.509   8.292  0.2918  0.4793  0.2525
48663SOL    HW163981   2.914   8.601   8.311  1.0528  0.5812  0.5837
48663SOL    HW263982   2.949   8.470   8.378  0.7206  0.2162  0.0558
48664SOL     OW63983   1.551   0.245   7.286  0.3148  0.1225  0.2063
48664SOL    HW163984   1.520   0.335   7.277  0.4826  0.1428 -0.2144
48664SOL    HW263985   1.643   0.249   7.258  0.3320 -0.1700  0.2219
48665SOL     OW63986   6.310  13.296  10.458  0.6809  0.0406 -0.4664
48665SOL    HW163987   6.229  13.323  10.415  0.4874 -0.6257 -0.5250
48665SOL    HW263988   6.365  13.374  10.456 -0.1504  0.6563  0.0272
48666SOL     OW63989   8.069  11.545  10.360 -0.0270 -0.0345 -0.9859
48666SOL    HW163990   8.051  11.454  10.383  0.4391  0.3111  0.9107
48666SOL    HW263991   8.090  11.542  10.267 -1.3829 -1.6435 -1.2856
48667SOL     OW63992  11.871   5.047   0.057  0.0591  0.2541 -0.4633
48667SOL    HW163993  11.910   4.974   0.105 -0.0326  1.2805  1.2651
48667SOL    HW263994  11.784   5.058   0.095 -0.8987 -0.2479 -2.3865
48668SOL     OW63995  11.763  12.504   3.554  0.2235  0.1551  0.0144
48668SOL    HW163996  11.684  12.558   3.562  0.4402  0.4732 -0.0119
48668SOL    HW263997  11.729  12.416   3.535 -0.2059 -0.1419  1.9316
48669SOL     OW63998  11.003   6.676   6.944  0.3164  0.4044 -0.0936
48669SOL    HW163999  11.085   6.629   6.950  0.2063  0.1555 -0.4944
48669SOL    HW264000  10.978   6.669   6.851  0.0087  0.7510 -0.0400
48670SOL     OW64001   3.163  13.844  11.927 -0.9529 -0.2431  0.5685
48670SOL    HW164002   3.178  13.765  11.980 -1.5161 -1.2757 -0.7501
48670SOL    HW264003   3.243  13.854  11.876  0.0373  1.3797  2.2906
48671SOL     OW64004   8.962   6.923  10.716 -0.4708 -0.2069 -0.0977
48671SOL    HW164005   8.999   6.990  10.774 -1.4473  0.1472  0.1377
48671SOL    HW264006   8.925   6.858  10.775 -0.9700 -0.1266 -0.3161
48672SOL     OW64007   0.180   9.612   6.830 -0.1415  0.0456  0.2889
48672SOL    HW164008   0.213   9.639   6.745  0.9970  0.5872  0.8803
48672SOL    HW264009   0.257   9.581   6.877 -0.9407 -1.4489  0.6976
48673SOL     OW64010   8.296   6.357   1.590  0.0726 -0.0561 -0.2461
48673SOL    HW164011   8.304   6.262   1.598  0.0192 -0.0089  0.3542
48673SOL    HW264012   8.228   6.370   1.524  0.5155 -0.4347 -0.7869
48674SOL     OW64013  13.371  11.601   2.146  0.3384 -0.1249 -0.3033
48674SOL    HW164014  13.297  11.557   2.104 -0.9580  0.0859  1.6356
48674SOL    HW264015  13.330  11.659   2.210  2.2229 -1.4719  2.2610
48675SOL     OW64016   1.802   1.546   1.601 -0.1759 -0.3883 -0.0653
48675SOL    HW164017   1.864   1.569   1.670  0.3281 -1.3597 -0.1798
48675SOL    HW264018   1.772   1.458   1.623 -2.7244  0.6113  0.8369
48676SOL     OW64019  12.709  12.083  10.305 -0.1353 -0.2653 -0.7098
48676SOL    HW164020  12.692  12.055  10.215 -2.7225  0.7503 -0.6018
48676SOL    HW264021  12.627  12.067  10.351  0.7903  0.2935  1.2158
48677SOL     OW64022   9.339   9.823   7.193 -0.1267 -0.0992  0.1535
48677SOL    HW164023   9.286   9.860   7.123 -2.1721 -0.3577  1.4867
48677SOL    HW264024   9.386   9.750   7.152 -0.3765  0.4706 -1.1899
48678SOL     OW64025   8.233   8.065  13.421 -0.2614 -0.2721  0.3604
48678SOL    HW164026   8.140   8.043  13.432 -0.3231 -0.0180  0.3360
48678SOL    HW264027   8.268   7.992  13.369  0.2198 -1.9260  2.8076
48679SOL     OW64028  10.024   1.314   3.238  0.4512 -0.1234  0.7516
48679SOL    HW164029  10.105   1.284   3.278  1.3519 -0.4257 -1.2082
48679SOL    HW264030  10.034   1.409   3.231  0.7929 -0.2014  0.1784
48680SOL     OW64031   6.427  11.428   1.016  0.4442  0.6333 -0.0962
48680SOL    HW164032   6.467  11.421   1.103  1.4400 -0.5598 -0.6200
48680SOL    HW264033   6.486  11.484   0.966  1.3715 -0.9006 -0.7868
48681SOL     OW64034   7.697   9.125   8.742 -0.1434  0.3155  0.1465
48681SOL    HW164035   7.789   9.111   8.720 -0.3194  0.3188 -0.6307
48681SOL    HW264036   7.689   9.097   8.833  0.4318 -0.5810 -0.0663
48682SOL     OW64037   7.156  12.873   2.757  0.0177  0.2721 -0.6540
48682SOL    HW164038   7.189  12.950   2.710 -0.8520  1.0131 -0.0711
48682SOL    HW264039   7.167  12.801   2.694 -0.9634  1.2058 -1.9470
48683SOL     OW64040   5.342   6.992   6.302  0.1218  0.2128  0.1113
48683SOL    HW164041   5.309   6.923   6.360 -0.4416 -0.7083 -1.2501
48683SOL    HW264042   5.436   6.972   6.294 -0.0725 -0.5439 -0.4350
48684SOL     OW64043  12.871  12.729   8.365 -0.2372  0.0788 -0.5797
48684SOL    HW164044  12.963  12.750   8.346 -0.2954  0.4435 -0.4724
48684SOL    HW264045  12.823  12.807   8.338 -0.2083  1.1819  2.1781
48685SOL     OW64046  11.749  11.309   0.777 -0.5246  1.0252  0.4615
48685SOL    HW164047  11.766  11.382   0.718 -0.5916  0.6350 -0.0496
48685SOL    HW264048  11.697  11.248   0.725  0.9255 -0.1477  0.3362
48686SOL     OW64049   1.606   3.849  11.904  0.1209 -0.2728  0.2829
48686SOL    HW164050   1.526   3.871  11.857  1.4658  0.7119 -1.6867
48686SOL    HW264051   1.589   3.761  11.939 -1.3495 -0.6430 -1.2036
48687SOL     OW64052   9.627  12.197  11.875  0.6006 -0.1129  0.4444
48687SOL    HW164053   9.541  12.166  11.902  0.2008 -1.7411 -2.2470
48687SOL    HW264054   9.686  12.124  11.894  0.7351 -0.3263 -0.6984
48688SOL     OW64055   9.575   0.401  10.637  0.5219 -0.4548 -0.2105
48688SOL    HW164056   9.666   0.377  10.653  0.5132 -0.7356 -0.5608
48688SOL    HW264057   9.566   0.400  10.542  1.1731  3.4311 -0.4537
48689SOL     OW64058  13.680  12.302   1.768 -0.3165 -0.8382 -0.1089
48689SOL    HW164059  13.622  12.372   1.737 -0.3187 -0.5612  0.5047
48689SOL    HW264060  13.757  12.308   1.712  0.0998  0.2915  0.5602
48690SOL     OW64061   0.296   1.690  11.789 -0.4701  0.3766  0.0320
48690SOL    HW164062   0.250   1.729  11.864 -2.2829 -0.0953 -0.8057
48690SOL    HW264063   0.386   1.724  11.797 -1.5107  3.3522  0.3323
48691SOL     OW64064   7.357   1.454   6.417 -0.1957 -0.0505  0.1073
48691SOL    HW164065   7.337   1.369   6.377 -0.5986 -0.3650  0.9576
48691SOL    HW264066   7.336   1.442   6.510 -1.0779  1.2327  0.1000
48692SOL     OW64067   1.972   5.790  13.816 -0.0214  0.5760  0.0139
48692SOL    HW164068   2.023   5.747  13.747 -0.4148 -0.6002  0.4238
48692SOL    HW264069   2.037   5.819  13.879  0.1686 -1.5930  0.9115
48693SOL     OW64070   9.259   2.664   7.914  0.3426 -0.0447 -0.6941
48693SOL    HW164071   9.233   2.661   7.822 -2.5400 -0.7501  0.0636
48693SOL    HW264072   9.276   2.573   7.937 -0.7216 -0.1054 -0.0944
48694SOL     OW64073  10.995   8.187   6.622 -0.6611 -0.5808 -0.6959
48694SOL    HW164074  11.026   8.249   6.687  0.5799  0.4926 -2.2297
48694SOL    HW264075  10.900   8.183   6.634 -0.3054 -2.0884  2.5357
48695SOL     OW64076  10.342   8.032   4.492 -0.1640 -0.1735  0.1050
48695SOL    HW164077  10.405   7.993   4.432 -0.2768  1.8816 -1.4414
48695SOL    HW264078  10.388   8.107   4.530 -1.0616  0.2529  0.3736
48696SOL     OW64079   4.879   6.953   1.194 -1.1388 -0.0314 -0.0190
48696SOL    HW164080   4.812   7.022   1.191 -1.8486 -0.5769  1.9776
48696SOL    HW264081   4.962   7.000   1.179 -1.6808  1.1431  0.5220
48697SOL     OW64082   0.006   8.225   8.767 -0.3299  0.3119  0.3233
48697SOL    HW164083   0.038   8.287   8.702  0.9382 -1.2450 -0.5923
48697SOL    HW264084  -0.053   8.167   8.719  0.9557 -1.1203  0.4282
48698SOL     OW64085   1.467   2.922   6.168  0.1524  0.1616  0.2177
48698SOL    HW164086   1.408   2.940   6.241  0.7701 -0.4911  0.8926
48698SOL    HW264087   1.409   2.902   6.095 -0.4699  0.3364  0.6531
48699SOL     OW64088   9.959   4.913  13.254 -0.0978 -0.2864  0.4429
48699SOL    HW164089  10.020   4.961  13.310 -1.0912  1.7939 -0.1608
48699SOL    HW264090   9.955   4.825  13.293  1.2388  0.3077  2.0437
48700SOL     OW64091  14.119  10.506   8.528 -0.0035 -0.3856 -0.5444
48700SOL    HW164092  14.086  10.577   8.583  1.6028  0.0011 -0.0493
48700SOL    HW264093  14.040  10.459   8.500 -0.9658  0.5338  0.5511
48701SOL     OW64094   6.097   5.987   5.904 -0.0962 -0.1023 -0.5863
48701SOL    HW164095   6.184   5.949   5.896  0.0721  0.4990 -1.7947
48701SOL    HW264096   6.038   5.911   5.908  0.4783 -0.5119  0.4142
48702SOL     OW64097   8.863   0.544  13.152 -0.1555 -0.5008  0.1656
48702SOL    HW164098   8.877   0.507  13.065  2.2375 -1.9522  1.0772
48702SOL    HW264099   8.772   0.572  13.151  0.1794  1.1076 -3.3686
48703SOL     OW64100   1.509   7.012   5.280  0.4058  0.5289 -0.0858
48703SOL    HW164101   1.573   7.007   5.351 -0.6882 -1.1228  0.8574
48703SOL    HW264102   1.559   6.989   5.201  1.1464  0.0208  0.5162
48704SOL     OW64103  13.190   3.589  10.431 -0.4071 -0.1246  0.0573
48704SOL    HW164104  13.273   3.632  10.412  0.6051 -2.0180  0.0584
48704SOL    HW264105  13.136   3.606  10.354 -0.0451  1.0983  0.0528
48705SOL     OW64106  11.275   7.983  11.986  0.4422  0.3780 -0.5317
48705SOL    HW164107  11.264   7.969  12.079 -0.7569  0.8213 -0.5901
48705SOL    HW264108  11.267   8.078  11.975 -1.2385  0.1864 -1.2765
48706SOL     OW64109   8.716   7.417  13.615 -0.0498  0.2404 -0.1582
48706SOL    HW164110   8.759   7.342  13.576 -0.0953 -0.2846  0.7785
48706SOL    HW264111   8.678   7.465  13.540  0.5103 -0.3161 -0.8085
48707SOL     OW64112  10.494  13.101  13.862 -0.3209  0.2210  0.5251
48707SOL    HW164113  10.465  13.054  13.940  0.3442 -0.8107  0.1678
48707SOL    HW264114  10.583  13.069  13.846 -0.6987 -0.0925 -1.0468
48708SOL     OW64115   7.550   2.283   4.628  0.3662  0.1844 -0.6518
48708SOL    HW164116   7.537   2.326   4.713  1.0823  0.8300 -0.8603
48708SOL    HW264117   7.461   2.270   4.595  0.1108  1.9534 -0.7866
48709SOL     OW64118  10.696  13.615   7.473  0.7788 -0.5196  0.0922
48709SOL    HW164119  10.722  13.529   7.440  0.6096 -0.8436  0.7827
48709SOL    HW264120  10.634  13.648   7.408  1.0082 -0.8261 -0.2858
48710SOL     OW64121   2.406  10.745  12.878 -0.1048  0.0641 -0.0803
48710SOL    HW164122   2.450  10.763  12.795 -1.1474  3.1996 -0.0872
48710SOL    HW264123   2.412  10.827  12.927 -0.7776 -1.2407  2.3821
48711SOL     OW64124   5.952  10.918   5.147  0.6799 -0.4619 -0.0482
48711SOL    HW164125   6.027  10.904   5.204  0.7425  1.1463  0.3065
48711SOL    HW264126   5.987  10.915   5.058  0.9561 -0.8171  0.0713
48712SOL     OW64127   8.806   3.321   9.907 -0.1233  0.0683 -0.3222
48712SOL    HW164128   8.863   3.396   9.894 -0.8792  0.9044  0.9404
48712SOL    HW264129   8.765   3.336   9.992 -1.2734 -1.1294 -0.6238
48713SOL     OW64130   3.943   3.887   7.213 -0.3319 -0.2073 -0.9920
48713SOL    HW164131   3.991   3.866   7.133  0.5857 -1.2351 -0.2036
48713SOL    HW264132   3.971   3.821   7.276  0.2342  1.5301  0.6808
48714SOL     OW64133   4.329   7.657   0.214  0.3816 -0.7389 -0.1482
48714SOL    HW164134   4.394   7.598   0.253  0.3409 -0.8048 -0.1781
48714SOL    HW264135   4.292   7.704   0.288  1.3298  0.1962 -0.2380
48715SOL     OW64136   1.902   8.554   0.211 -0.3071  0.0853  0.0138
48715SOL    HW164137   1.938   8.619   0.151 -0.0996 -2.0824 -2.3365
48715SOL    HW264138   1.977   8.521   0.260 -0.1586  0.3580 -0.0307
48716SOL     OW64139  13.220   0.699  13.484  0.2621 -0.2339  0.0218
48716SOL    HW164140  13.298   0.655  13.449  0.4983  0.9579 -1.0271
48716SOL    HW264141  13.165   0.715  13.407 -1.0129 -1.0154  0.7482
48717SOL     OW64142   7.663  12.106  11.328  0.2805  0.2593 -0.1670
48717SOL    HW164143   7.662  12.031  11.267  0.4865 -0.5963  0.8558
48717SOL    HW264144   7.755  12.120  11.346  0.2623  1.0201 -0.6525
48718SOL     OW64145   7.030   8.910   5.421  0.0264 -0.3444 -0.5753
48718SOL    HW164146   7.097   8.898   5.489 -0.2203  1.8916  0.1257
48718SOL    HW264147   7.071   8.969   5.358 -0.7068 -0.2924 -1.0067
48719SOL     OW64148  12.851   7.018   6.971  0.1369 -0.4818 -0.0812
48719SOL    HW164149  12.832   7.022   6.877 -0.0602 -0.0378 -0.0284
48719SOL    HW264150  12.941   6.985   6.976 -0.4601 -2.2514 -0.3484
48720SOL     OW64151  11.040   6.988   6.367  0.0816  0.3582 -0.0645
48720SOL    HW164152  11.015   7.029   6.450 -1.0550  1.3905 -0.8796
48720SOL    HW264153  11.064   6.898   6.391 -0.0876  0.6730  1.3874
48721SOL     OW64154   9.595   4.330   8.225 -0.3788  0.6785 -0.5749
48721SOL    HW164155   9.617   4.248   8.181 -0.3074 -0.4823  1.4769
48721SOL    HW264156   9.634   4.398   8.171  1.2452 -0.7705 -1.3193
48722SOL     OW64157  12.934   2.288   7.999  0.3307 -0.1775  0.2195
48722SOL    HW164158  12.878   2.216   7.971 -0.0065  0.9265 -2.1315
48722SOL    HW264159  13.015   2.278   7.950 -0.0005  1.4262 -0.7225
48723SOL     OW64160   2.701  11.133  11.320 -0.6581 -0.4303 -0.0597
48723SOL    HW164161   2.775  11.123  11.260 -0.0695 -0.6989  0.6889
48723SOL    HW264162   2.650  11.053  11.308 -0.2191 -0.7570  0.2225
48724SOL     OW64163   0.462   9.422   6.773  0.2401  0.1026  0.4496
48724SOL    HW164164   0.520   9.469   6.711  2.0323 -1.6584  0.6947
48724SOL    HW264165   0.456   9.481   6.848  1.9850  0.2254  0.5364
48725SOL     OW64166  13.422   2.006   4.221 -0.4528  0.2072  0.2903
48725SOL    HW164167  13.347   2.061   4.200 -1.0550 -1.0348 -1.0190
48725SOL    HW264168  13.440   1.958   4.140  1.2033 -0.1784  0.8449
48726SOL     OW64169   9.867   9.436   1.637  0.0150  0.3836  0.1892
48726SOL    HW164170   9.931   9.476   1.577 -0.3116  1.9044  0.8001
48726SOL    HW264171   9.797   9.405   1.579 -0.6447  2.4855 -0.2283
48727SOL     OW64172   7.394   8.320  10.693 -0.4129 -0.4999  0.3643
48727SOL    HW164173   7.335   8.272  10.752  0.4320 -1.1410  0.7023
48727SOL    HW264174   7.369   8.292  10.605 -0.5892 -0.7977  0.5085
48728SOL     OW64175  12.239  12.080   5.422 -0.8050 -0.0920  0.5359
48728SOL    HW164176  12.216  12.134   5.347  1.1110 -0.8116 -0.6447
48728SOL    HW264177  12.226  12.136   5.498  0.3502  1.7594 -0.5802
48729SOL     OW64178  11.661  11.468   8.637  0.3521 -0.3378  0.6677
48729SOL    HW164179  11.717  11.410   8.586 -0.3215 -1.7844  1.5271
48729SOL    HW264180  11.691  11.556   8.614  2.2508 -1.0300  0.3024
48730SOL     OW64181   4.228   4.782  10.819 -0.0607 -0.0020 -1.0820
48730SOL    HW164182   4.287   4.742  10.883  0.0769 -0.5435 -1.5396
48730SOL    HW264183   4.212   4.870  10.853  1.2651  0.2746 -1.1149
48731SOL     OW64184   2.386  11.379   1.957 -0.5981  0.0370 -0.1747
48731SOL    HW164185   2.397  11.467   1.993  0.3759 -0.4436  0.7576
48731SOL    HW264186   2.417  11.385   1.867 -0.3356  0.6072 -0.0498
48732SOL     OW64187   7.961   0.770   7.046  0.4429 -0.2145 -0.2163
48732SOL    HW164188   7.935   0.782   7.137  1.2437  0.8535 -0.1055
48732SOL    HW264189   7.971   0.675   7.036 -1.5111 -0.5048  0.2529
48733SOL     OW64190  13.550   8.298   5.344  0.5870 -0.1977 -0.1297
48733SOL    HW164191  13.593   8.343   5.417  0.2150  1.2205 -0.7463
48733SOL    HW264192  13.524   8.213   5.379 -0.2370  0.7298  1.6114
48734SOL     OW64193  13.980  12.369   7.118 -0.4487  0.0285  0.5957
48734SOL    HW164194  14.058  12.314   7.122  0.4251  0.8007 -2.8072
48734SOL    HW264195  13.919  12.320   7.063 -2.2537 -0.3124  2.7468
48735SOL     OW64196   0.023   8.094  12.291 -0.1464 -0.0881  0.3834
48735SOL    HW164197   0.094   8.041  12.328 -0.6124 -1.1558 -0.2551
48735SOL    HW264198   0.015   8.168  12.353  0.5796 -0.6827  1.2157
48736SOL     OW64199   2.954   0.970  13.674 -0.1774 -0.1090 -0.6536
48736SOL    HW164200   2.953   1.049  13.728 -3.1037  0.5826 -1.5137
48736SOL    HW264201   2.914   0.902  13.729  0.4110 -0.4521 -0.6381
48737SOL     OW64202   8.914  10.970  12.799 -0.7251  0.7449  0.2818
48737SOL    HW164203   8.965  10.895  12.770 -0.2504  1.3447 -0.4849
48737SOL    HW264204   8.823  10.939  12.801 -0.5753  0.2505 -0.3583
48738SOL     OW64205   9.894   6.838  14.106  0.1340 -0.1846  0.2062
48738SOL    HW164206   9.831   6.766  14.097  1.2725 -1.1593 -0.0834
48738SOL    HW264207   9.877   6.872  14.194 -1.5695  0.3456 -0.2715
48739SOL     OW64208   3.732   1.160  12.899 -0.0658  0.0669  0.1471
48739SOL    HW164209   3.675   1.148  12.822 -1.3722  1.4980  0.8332
48739SOL    HW264210   3.818   1.132  12.869 -0.8242 -0.7589 -1.4064
48740SOL     OW64211   6.522  10.211   5.290  0.3016  0.0239 -0.0864
48740SOL    HW164212   6.616  10.206   5.274  0.2133 -0.7372 -0.3891
48740SOL    HW264213   6.505  10.144   5.356  0.1542  0.9991  0.9112
48741SOL     OW64214   3.696  12.247  13.353  0.2337  0.2874  0.2927
48741SOL    HW164215   3.695  12.173  13.414 -3.1207  2.0057  2.6435
48741SOL    HW264216   3.717  12.323  13.408 -0.0598  1.5662 -1.2844
48742SOL     OW64217   1.046  10.498   6.374 -0.4186  0.3465  0.8375
48742SOL    HW164218   1.017  10.518   6.463 -0.2702 -0.9941  1.2049
48742SOL    HW264219   1.124  10.444   6.385 -2.4593 -3.0802  0.0577
48743SOL     OW64220   4.741  10.292   3.872 -0.0646 -0.0119 -0.3605
48743SOL    HW164221   4.753  10.213   3.926 -0.9164  1.4774  2.1959
48743SOL    HW264222   4.788  10.360   3.920 -1.5331  1.5767 -1.0928
48744SOL     OW64223   5.150   4.026  12.621  0.6421  0.3390 -0.6107
48744SOL    HW164224   5.193   4.084  12.557  0.4199 -0.6226 -1.6593
48744SOL    HW264225   5.209   3.951  12.629  0.9383  0.6898  0.7587
48745SOL     OW64226   6.438  14.124  12.597  0.2599 -0.0550  0.8059
48745SOL    HW164227   6.496  14.090  12.529 -0.1417  0.4014  0.2256
48745SOL    HW264228   6.351  14.120  12.557  0.1557  1.2816  0.8799
48746SOL     OW64229   0.520   2.278  13.903 -0.3060 -0.3070 -0.6089
48746SOL    HW164230   0.564   2.363  13.895 -2.2451  0.6559 -1.7140
48746SOL    HW264231   0.504   2.268  13.997 -1.6190  1.4545 -0.5858
48747SOL     OW64232   5.675   8.764   4.538 -0.5164 -0.8553  0.4037
48747SOL    HW164233   5.732   8.771   4.461 -0.7924 -1.4355  0.1465
48747SOL    HW264234   5.725   8.713   4.601 -0.2444 -0.2845  0.6625
48748SOL     OW64235  12.328   5.194   9.198 -0.6552  0.8103  0.1539
48748SOL    HW164236  12.399   5.193   9.134 -0.9951  0.7540 -0.2267
48748SOL    HW264237  12.368   5.161   9.278 -0.3339  0.4614 -0.1473
48749SOL     OW64238   0.161   2.709   6.296  0.4037  0.0820  0.0743
48749SOL    HW164239   0.098   2.641   6.322  0.4525 -0.2117 -0.5668
48749SOL    HW264240   0.231   2.660   6.252  0.2908  0.5789 -0.6679
48750SOL     OW64241   4.494  13.273  12.236  0.3428  0.1676  0.2999
48750SOL    HW164242   4.486  13.301  12.327 -0.4372 -0.0971  0.3169
48750SOL    HW264243   4.407  13.241  12.212  0.8492 -0.9328 -0.1545
48751SOL     OW64244   7.650   7.779  13.830  0.6210 -0.2443 -0.3479
48751SOL    HW164245   7.628   7.715  13.898  1.5298 -2.0985 -1.6922
48751SOL    HW264246   7.578   7.773  13.768  0.9226 -0.2896 -0.6965
48752SOL     OW64247  11.863  13.884  10.788  0.1892 -0.4088  0.0797
48752SOL    HW164248  11.927  13.880  10.859  0.4450  0.5266 -0.0901
48752SOL    HW264249  11.895  13.953  10.731 -0.7548 -0.2200 -0.2310
48753SOL     OW64250   0.245   1.188   2.211 -0.1022 -0.1062  0.0550
48753SOL    HW164251   0.267   1.268   2.259 -0.3157  0.3344 -0.5760
48753SOL    HW264252   0.294   1.119   2.257 -0.1851  0.3241  0.8135
48754SOL     OW64253  11.109   1.312  12.889  0.0398  0.2584  1.1085
48754SOL    HW164254  11.067   1.238  12.933  0.6207 -1.3261 -0.8306
48754SOL    HW264255  11.200   1.310  12.920  0.2891 -0.4587  0.3743
48755SOL     OW64256   1.667   0.666   2.577  0.2291 -0.0994  0.0582
48755SOL    HW164257   1.722   0.658   2.656  0.0084  1.9006  0.4659
48755SOL    HW264258   1.729   0.659   2.505  0.7635  0.1847  0.4766
48756SOL     OW64259  11.173   4.222  13.621 -0.0287  0.3934 -0.5414
48756SOL    HW164260  11.239   4.230  13.551 -0.6649  1.1586 -1.0710
48756SOL    HW264261  11.091   4.207  13.574 -0.4776  1.0061  0.0419
48757SOL     OW64262   4.551   4.563  12.333  0.5220  0.2973  0.9711
48757SOL    HW164263   4.553   4.479  12.377  0.1681  0.0966  0.6200
48757SOL    HW264264   4.643   4.587  12.320  0.6754 -1.1366 -0.9676
48758SOL     OW64265   6.438   5.594  11.161 -0.0576  0.5895 -0.6510
48758SOL    HW164266   6.453   5.688  11.154 -0.6147  0.6955 -0.4732
48758SOL    HW264267   6.484   5.557  11.085  0.4481  0.9640 -0.5361
48759SOL     OW64268   8.741   6.282   5.973 -0.3457  0.1064 -0.1598
48759SOL    HW164269   8.801   6.309   6.043 -1.5138  3.2043 -0.2109
48759SOL    HW264270   8.752   6.348   5.905 -0.4038 -1.9645 -2.3180
48760SOL     OW64271   5.118   9.063   1.063  0.4513  0.2429  0.0245
48760SOL    HW164272   5.065   9.119   1.006 -0.4819  0.6737  1.2805
48760SOL    HW264273   5.189   9.032   1.006 -0.0629  1.1945 -1.1863
48761SOL     OW64274   4.030   9.478   5.586  0.3291 -0.1991 -0.1643
48761SOL    HW164275   3.991   9.390   5.578  0.7160 -0.3494 -0.4099
48761SOL    HW264276   4.072   9.492   5.501  0.3581  0.1848 -0.0851
48762SOL     OW64277  11.422   0.820   6.609 -0.2811 -0.2670 -0.2761
48762SOL    HW164278  11.360   0.832   6.537 -0.8705 -1.9757 -0.1083
48762SOL    HW264279  11.367   0.802   6.685  0.3616 -3.0824 -0.3722
48763SOL     OW64280  12.073   3.712   2.838  0.1293 -0.7992 -0.3641
48763SOL    HW164281  12.013   3.775   2.877  0.3734  0.0792 -1.3741
48763SOL    HW264282  12.017   3.659   2.781 -0.1389 -1.7645  0.7444
48764SOL     OW64283  10.772   0.002   5.323 -0.0074  0.5279 -0.1425
48764SOL    HW164284  10.692  -0.040   5.292 -0.8153  2.3672 -0.7130
48764SOL    HW264285  10.776  -0.021   5.416 -1.9418  1.4194  0.2159
48765SOL     OW64286   0.578   8.857   6.779  0.2306  0.2129  0.2187
48765SOL    HW164287   0.655   8.844   6.834 -0.3524 -0.5347  0.8884
48765SOL    HW264288   0.526   8.922   6.826 -0.0392 -0.0673  0.3124
48766SOL     OW64289  12.384   9.890  14.104  0.4500 -0.4921  0.0468
48766SOL    HW164290  12.471   9.857  14.127  0.1313 -1.5501 -0.2482
48766SOL    HW264291  12.364   9.954  14.173  0.7401 -1.5015  1.0896
48767SOL     OW64292  12.665  13.429   6.141  0.5876 -0.0889  0.2934
48767SOL    HW164293  12.630  13.482   6.069 -1.9188 -0.8221  0.8464
48767SOL    HW264294  12.700  13.492   6.203 -0.1481  0.7734 -0.1432
48768SOL     OW64295   4.841   0.906   3.323  0.1888  0.1720 -0.3886
48768SOL    HW164296   4.836   0.920   3.229 -0.7344 -1.4695 -0.6217
48768SOL    HW264297   4.926   0.865   3.337  0.4785  0.7455 -0.4516
48769SOL     OW64298  10.867  11.211  10.344 -0.1093 -0.1686  0.5612
48769SOL    HW164299  10.856  11.269  10.269  1.4488 -0.9347 -0.3232
48769SOL    HW264300  10.812  11.135  10.325 -1.3548  0.5453  1.2311
48770SOL     OW64301   8.848   8.908  12.579 -0.1602  0.3735 -0.2755
48770SOL    HW164302   8.928   8.895  12.528 -1.0876  0.2088 -1.7659
48770SOL    HW264303   8.788   8.950  12.517 -1.1197  0.7939  0.9082
48771SOL     OW64304   8.461   5.908  10.161 -0.6704  0.6206  0.0282
48771SOL    HW164305   8.445   6.002  10.171  0.0836  0.8194 -0.4786
48771SOL    HW264306   8.469   5.895  10.066  1.7426  0.5188  0.1789
48772SOL     OW64307   9.336   6.743   3.834  0.6924 -0.2926  0.2447
48772SOL    HW164308   9.357   6.650   3.844 -0.4342 -0.3579  2.7071
48772SOL    HW264309   9.421   6.787   3.839  1.4687 -1.1728 -2.7322
48773SOL     OW64310  10.016   1.868   1.565 -0.2397  0.1496  0.6697
48773SOL    HW164311   9.932   1.914   1.565  0.4694  1.5029  0.1444
48773SOL    HW264312  10.073   1.921   1.621  1.1987  1.1536 -1.5742
48774SOL     OW64313  13.121  11.912  13.954 -0.2765  0.6366  0.1374
48774SOL    HW164314  13.129  11.822  13.921  1.1483  0.1347  1.7134
48774SOL    HW264315  13.111  11.966  13.875  0.7728 -0.7123 -0.9652
48775SOL     OW64316  11.466  13.292   6.750  0.7921 -0.5068 -0.2075
48775SOL    HW164317  11.491  13.213   6.703 -2.3172 -0.9994 -1.2083
48775SOL    HW264318  11.477  13.363   6.685 -1.2217 -0.8621 -0.9872
48776SOL     OW64319   4.626   2.851   2.275  0.1089  0.7999 -0.1176
48776SOL    HW164320   4.704   2.834   2.328 -0.6361 -0.9394  0.4996
48776SOL    HW264321   4.553   2.841   2.336 -0.6182  2.7109 -0.6175
48777SOL     OW64322   9.955   6.142   9.268 -0.4172 -0.3103 -0.1589
48777SOL    HW164323   9.917   6.057   9.244  0.3840 -0.2542 -1.8160
48777SOL    HW264324  10.050   6.128   9.258  0.0804 -0.2652  3.1777
48778SOL     OW64325   4.864  13.909  10.792  0.1078  0.2738  0.0021
48778SOL    HW164326   4.930  13.871  10.851 -1.0536 -1.1208  0.4576
48778SOL    HW264327   4.797  13.842  10.785 -1.4376  1.7762 -0.1932
48779SOL     OW64328   6.729   1.969   1.655  0.3928 -0.1774  0.3596
48779SOL    HW164329   6.760   1.910   1.587  0.8773 -0.3216  0.7042
48779SOL    HW264330   6.808   1.997   1.701  0.0966  0.1438  0.6806
48780SOL     OW64331   8.708   2.110   0.686  0.3209 -0.0908 -0.4960
48780SOL    HW164332   8.632   2.115   0.628  0.1446  0.7162 -0.2124
48780SOL    HW264333   8.719   2.017   0.703 -0.8369 -0.2041 -0.2451
48781SOL     OW64334   9.470   0.806   6.228  0.1098  0.4890  0.3116
48781SOL    HW164335   9.435   0.724   6.263  0.0240  1.4415  2.6393
48781SOL    HW264336   9.559   0.785   6.201 -0.0709 -0.4592  0.4174
48782SOL     OW64337  11.867  12.802  13.463 -0.4845 -0.3620 -0.0306
48782SOL    HW164338  11.898  12.721  13.502 -2.8171 -0.8342  1.0050
48782SOL    HW264339  11.856  12.862  13.537  0.0956  0.5383 -0.6480
48783SOL     OW64340   1.979  10.845   3.492 -0.1243  0.1407  0.0931
48783SOL    HW164341   1.889  10.853   3.523 -0.0215 -0.7985  0.6729
48783SOL    HW264342   2.031  10.892   3.557 -0.1046 -0.1245  0.2698
48784SOL     OW64343   5.390  10.818   7.369  0.3497  0.3752 -0.4663
48784SOL    HW164344   5.485  10.807   7.369  0.2586 -0.4805 -1.2987
48784SOL    HW264345   5.355  10.730   7.353 -0.5493  0.8846 -1.4213
48785SOL     OW64346   0.007   3.437   9.843 -0.4591 -0.1442  0.2993
48785SOL    HW164347  -0.031   3.517   9.807  1.5103  0.5315 -0.4190
48785SOL    HW264348  -0.033   3.366   9.791  1.3835  0.7241 -2.5092
48786SOL     OW64349   2.458  11.146  14.111 -0.0013 -0.4281 -0.1303
48786SOL    HW164350   2.395  11.118  14.177  1.3671  1.0503  1.9170
48786SOL    HW264351   2.404  11.182  14.041 -1.5072  0.6578  1.4884
48787SOL     OW64352  11.475  13.245   7.976  0.1899 -0.6592  0.2138
48787SOL    HW164353  11.403  13.199   7.932 -0.1111 -1.6067  1.6117
48787SOL    HW264354  11.539  13.261   7.907 -1.4490  0.4679 -1.1315
48788SOL     OW64355   7.362   3.816  12.569  0.0648 -0.4195 -0.3028
48788SOL    HW164356   7.315   3.750  12.518 -1.0161  0.3559 -0.3540
48788SOL    HW264357   7.293   3.874  12.601  1.1039  1.6514 -1.6493
48789SOL     OW64358  13.962   8.253   2.301 -0.3074  0.4428 -0.4645
48789SOL    HW164359  13.925   8.205   2.227 -1.5400  0.5720  0.0475
48789SOL    HW264360  13.926   8.210   2.378  0.8157  0.4270  0.0670
48790SOL     OW64361  12.224  11.317   0.474 -0.2647  0.1149  0.1743
48790SOL    HW164362  12.248  11.393   0.422  1.8037 -1.4470 -1.3092
48790SOL    HW264363  12.130  11.305   0.457 -0.2648  1.3638 -0.8397
48791SOL     OW64364   5.895  11.742  10.232  0.0959 -0.0378  0.2296
48791SOL    HW164365   5.940  11.703  10.158 -0.2180  1.1299 -0.5973
48791SOL    HW264366   5.815  11.780  10.195 -0.3474  0.0769  1.2532
48792SOL     OW64367   9.165  12.943   5.459 -0.7825 -0.3496 -0.6605
48792SOL    HW164368   9.157  12.914   5.550  1.0195  0.5913 -0.1600
48792SOL    HW264369   9.094  12.896   5.413 -2.7560  0.3444  1.4680
48793SOL     OW64370  13.745   6.361  12.823 -0.1895  0.0368 -0.2693
48793SOL    HW164371  13.811   6.429  12.808  1.0107 -1.1380 -0.4613
48793SOL    HW264372  13.702   6.350  12.738  1.1888 -1.0325 -0.8579
48794SOL     OW64373   2.080   3.912   5.291  0.1884  0.0041  0.3315
48794SOL    HW164374   2.032   3.958   5.361 -0.8562  1.7295 -1.3975
48794SOL    HW264375   2.013   3.860   5.247  0.2353  0.9528 -0.9336
48795SOL     OW64376   0.814   0.141   6.750  0.3678 -0.4296 -0.2364
48795SOL    HW164377   0.844   0.142   6.659  1.2161 -0.5539  0.0344
48795SOL    HW264378   0.893   0.157   6.801 -0.1007 -0.3954  0.4826
48796SOL     OW64379   3.688   0.727   5.983  0.2320 -0.0244  0.8280
48796SOL    HW164380   3.714   0.711   6.074 -0.6120  0.0362  1.0917
48796SOL    HW264381   3.618   0.663   5.967  0.1871  0.1519  0.3097
48797SOL     OW64382   8.672  11.009  13.770  0.1039 -0.1099  0.3451
48797SOL    HW164383   8.677  10.975  13.859  0.4042  1.0774  0.7948
48797SOL    HW264384   8.605  10.956  13.728  1.7089 -2.4045  0.4966
48798SOL     OW64385  10.984  11.799   8.398  0.3123  0.2101 -0.3014
48798SOL    HW164386  10.938  11.749   8.465  0.4911 -0.8723 -0.9540
48798SOL    HW264387  11.072  11.761   8.397 -0.3872 -1.6367 -2.8933
48799SOL     OW64388   3.696  11.413   3.710  0.3428 -0.2451  0.0672
48799SOL    HW164389   3.747  11.332   3.712 -0.5238 -0.7914  1.4340
48799SOL    HW264390   3.718  11.457   3.792 -1.1908 -0.3884  0.5872
48800SOL     OW64391   0.943  12.669   8.193 -0.1397  0.4243 -0.3139
48800SOL    HW164392   0.881  12.680   8.265 -0.6564  0.3671 -0.7448
48800SOL    HW264393   0.946  12.754   8.150  0.6395  0.6386  0.1376
48801SOL     OW64394   5.652   5.851  13.325 -0.0360 -0.3439 -0.0440
48801SOL    HW164395   5.571   5.876  13.280  0.7140 -0.3946 -1.4982
48801SOL    HW264396   5.651   5.755  13.326 -0.8799 -0.3437  1.6717
48802SOL     OW64397   5.012   8.473   8.202  0.0434 -0.1305  0.0713
48802SOL    HW164398   4.969   8.419   8.268  0.2353 -2.1314 -1.3396
48802SOL    HW264399   5.103   8.478   8.229  0.0742 -0.7475  0.0854
48803SOL     OW64400   0.194   6.932   5.981  0.2834 -0.0171 -0.0256
48803SOL    HW164401   0.268   6.918   5.923  1.1682  4.1043 -0.2283
48803SOL    HW264402   0.233   6.966   6.062 -1.2699  0.0454  0.7406
48804SOL     OW64403   5.824   7.168  12.641 -0.0440  0.0145  0.0235
48804SOL    HW164404   5.788   7.254  12.663 -0.8102 -0.5350  0.9858
48804SOL    HW264405   5.887   7.186  12.571 -2.2902  1.0347 -1.9130
48805SOL     OW64406   4.287  12.318   6.753 -0.0880 -0.1462  0.7228
48805SOL    HW164407   4.261  12.263   6.679  1.1047  0.6801 -0.3575
48805SOL    HW264408   4.220  12.302   6.820 -1.3313 -0.7313 -0.6162
48806SOL     OW64409   4.921   5.814   9.120 -0.2630  0.0589  0.7291
48806SOL    HW164410   4.997   5.759   9.137 -1.2470 -0.9668  2.0405
48806SOL    HW264411   4.924   5.882   9.188 -0.8748 -0.3876  1.2113
48807SOL     OW64412   1.065   4.622   2.561 -0.1639  0.1654 -0.2202
48807SOL    HW164413   1.063   4.559   2.633 -1.1609 -1.8210 -1.8623
48807SOL    HW264414   0.984   4.673   2.572  0.8460  1.5372  1.3509
48808SOL     OW64415  11.035   6.047  13.617  0.2002  0.2779 -0.2876
48808SOL    HW164416  11.039   5.980  13.548 -0.2352  0.4065 -0.4437
48808SOL    HW264417  11.061   6.128  13.573  0.1111  0.3238 -0.2556
48809SOL     OW64418  12.252   2.660   4.407 -0.2179  0.0492  0.1911
48809SOL    HW164419  12.305   2.740   4.399  0.3522 -0.2211  1.0755
48809SOL    HW264420  12.209   2.651   4.322 -0.5174  1.4559  0.1574
48810SOL     OW64421   5.064  10.792   6.583  0.3223  0.2800  0.1605
48810SOL    HW164422   5.003  10.810   6.654  0.2244  1.5139 -0.2157
48810SOL    HW264423   5.059  10.697   6.570 -2.4907  0.4667 -0.7181
48811SOL     OW64424   1.192  10.530  13.277 -0.0065  1.0411 -0.1665
48811SOL    HW164425   1.161  10.615  13.309  0.8589  0.5683  2.1380
48811SOL    HW264426   1.257  10.503  13.341 -1.1283 -1.9468 -0.1336
48812SOL     OW64427   8.096   7.346  11.041  0.0142  0.0351 -0.4667
48812SOL    HW164428   8.068   7.257  11.064  1.2937 -0.6338 -1.3659
48812SOL    HW264429   8.071   7.355  10.949 -0.9652  0.9877 -0.1282
48813SOL     OW64430   2.530  11.263   6.264 -0.1157  0.1208  0.3628
48813SOL    HW164431   2.436  11.268   6.280 -0.4967 -1.8264 -0.9499
48813SOL    HW264432   2.550  11.343   6.215 -1.1509  0.3884  0.3534
48814SOL     OW64433   6.440   2.636  12.273  0.2263  0.1965 -0.2573
48814SOL    HW164434   6.523   2.588  12.270  0.5585  0.6146  1.2131
48814SOL    HW264435   6.384   2.593  12.209  1.8855  0.5023 -2.0113
48815SOL     OW64436   0.238   8.977  11.121 -0.1302 -0.6407 -0.6066
48815SOL    HW164437   0.232   9.065  11.083 -0.8141 -0.3859  0.0626
48815SOL    HW264438   0.306   8.983  11.187 -0.3403 -0.5482 -0.3974
48816SOL     OW64439   9.532   2.885   3.813  0.0961 -0.1682  0.2135
48816SOL    HW164440   9.496   2.825   3.878 -0.2550 -0.8085 -0.5516
48816SOL    HW264441   9.455   2.925   3.772  0.2217 -1.3594 -1.2660
48817SOL     OW64442  10.363   7.824  12.357 -0.1200 -0.6690 -0.0037
48817SOL    HW164443  10.339   7.877  12.433  0.1977 -2.4541  1.4306
48817SOL    HW264444  10.284   7.773  12.338 -0.2524 -0.1001 -1.0081
48818SOL     OW64445   7.020   2.764  11.392 -0.4222 -0.1472 -0.0695
48818SOL    HW164446   7.026   2.690  11.452 -0.7069 -0.8158 -0.8493
48818SOL    HW264447   7.072   2.738  11.316 -0.0084  0.7187 -0.0940
48819SOL     OW64448   8.479   0.322  11.464  0.6518  0.0541  0.2685
48819SOL    HW164449   8.557   0.362  11.502 -0.1598  2.1517 -0.1445
48819SOL    HW264450   8.506   0.297  11.375  1.3633 -1.0141  0.7628
48820SOL     OW64451   7.476   3.720   5.530 -0.2648  0.3912  0.2209
48820SOL    HW164452   7.381   3.710   5.539 -0.1720 -1.4359 -0.3812
48820SOL    HW264453   7.508   3.631   5.518  1.3565  1.0960 -1.1222
48821SOL     OW64454   7.004   1.050   8.846 -0.3218 -0.6453  0.5430
48821SOL    HW164455   7.032   1.058   8.937  1.1139 -0.2483  0.0875
48821SOL    HW264456   7.034   0.963   8.819 -0.5897 -0.6929  0.3922
48822SOL     OW64457   5.943   1.243   4.762 -0.5052 -1.1292  0.1406
48822SOL    HW164458   5.992   1.168   4.729  1.0367 -0.0149 -0.2078
48822SOL    HW264459   6.010   1.302   4.797 -1.4651  0.9910 -1.3984
48823SOL     OW64460   4.988  12.766   6.958  0.2731 -0.2895  0.3167
48823SOL    HW164461   4.914  12.806   6.915 -0.2029 -1.2721  0.1843
48823SOL    HW264462   5.065  12.808   6.920 -0.1601 -0.5965 -0.9373
48824SOL     OW64463   1.178   3.351   0.510 -0.0691  0.2443 -0.0408
48824SOL    HW164464   1.252   3.342   0.569  0.4642  0.3941 -0.6794
48824SOL    HW264465   1.203   3.419   0.448 -1.3260  1.3356  0.5929
48825SOL     OW64466   4.828   7.352  11.549 -0.0693  0.1402  0.5664
48825SOL    HW164467   4.886   7.325  11.621 -0.4172 -0.9862  0.4430
48825SOL    HW264468   4.742   7.363  11.590 -0.0652  0.4586  0.4943
48826SOL     OW64469   1.306  10.702   1.268  0.1252  0.0278 -0.5832
48826SOL    HW164470   1.311  10.775   1.329  0.6775 -0.0754 -0.5050
48826SOL    HW264471   1.224  10.717   1.220  0.4661  0.9432 -0.8865
48827SOL     OW64472   6.265   7.015   9.757  0.1423  0.1583 -0.3592
48827SOL    HW164473   6.313   7.014   9.675  0.7830  1.3025 -0.0264
48827SOL    HW264474   6.322   7.063   9.818 -1.0806  0.9115  0.2511
48828SOL     OW64475   9.982   0.071  11.438  0.5697 -0.2399 -0.8036
48828SOL    HW164476   9.903   0.017  11.442  0.7382 -0.4916 -0.8156
48828SOL    HW264477  10.040   0.033  11.505  0.0309  0.9909  0.3909
48829SOL     OW64478  13.247  10.956   2.865  0.1312  0.3518 -0.3086
48829SOL    HW164479  13.249  10.861   2.854  0.0880  0.5004 -1.8125
48829SOL    HW264480  13.232  10.969   2.959  1.0529 -1.1028  0.0722
48830SOL     OW64481   5.292   9.043  14.017 -0.1429 -0.6984  0.4324
48830SOL    HW164482   5.356   9.106  13.983  0.9730 -1.4903  1.0109
48830SOL    HW264483   5.307   8.964  13.965 -3.3051  0.1507 -2.1644
48831SOL     OW64484  14.047   1.922   3.046  0.3171 -0.2797  0.2937
48831SOL    HW164485  13.964   1.877   3.035  0.6532 -0.4719 -1.8797
48831SOL    HW264486  14.046   1.951   3.137 -1.5726 -1.3286  0.6730
48832SOL     OW64487   6.212   1.213   4.552 -0.9043  0.2802  0.0995
48832SOL    HW164488   6.181   1.123   4.554 -1.0687  0.3373  0.1338
48832SOL    HW264489   6.253   1.226   4.638 -0.1259 -0.0245 -0.2151
48833SOL     OW64490  13.148   1.526  10.715 -0.1693 -0.2803  0.3673
48833SOL    HW164491  13.070   1.561  10.673 -0.3049  0.5036  1.2321
48833SOL    HW264492  13.115   1.466  10.782 -0.0784  0.5656  1.1934
48834SOL     OW64493  11.989  10.644   6.571  0.2729  0.0329  0.6173
48834SOL    HW164494  11.912  10.601   6.607  0.7687 -0.3937  1.1906
48834SOL    HW264495  11.955  10.718   6.521 -0.4251  1.0220  2.4676
48835SOL     OW64496  11.774  11.314   7.093  0.4627 -0.3442 -0.3761
48835SOL    HW164497  11.802  11.376   7.160  0.4394  0.3907 -1.0325
48835SOL    HW264498  11.735  11.368   7.025 -1.3303 -1.2216 -0.1129
48836SOL     OW64499   3.944   6.608  11.266 -0.5010 -0.1845 -0.1592
48836SOL    HW164500   3.958   6.658  11.186  0.9281  0.4122  0.4355
48836SOL    HW264501   4.016   6.545  11.267  0.3604  0.7863  1.3747
48837SOL     OW64502  12.348  13.994   3.774 -0.7012 -0.2857  0.2904
48837SOL    HW164503  12.288  13.995   3.700  0.5447 -2.0633 -0.8289
48837SOL    HW264504  12.292  14.005   3.851 -2.2397 -0.2109 -0.8043
48838SOL     OW64505   6.307  13.890   7.878 -0.1320  0.4065  0.0341
48838SOL    HW164506   6.359  13.969   7.867 -1.1525  0.9130 -1.5306
48838SOL    HW264507   6.367  13.818   7.860  0.6274  0.8467  0.7551
48839SOL     OW64508   6.341   9.108  11.102 -0.1870  0.4452 -0.0037
48839SOL    HW164509   6.388   9.192  11.098  0.1287  0.3066  0.6018
48839SOL    HW264510   6.333   9.081  11.011  1.9172 -0.0702 -0.1009
48840SOL     OW64511   3.604   6.483   2.950  0.4153  0.3929 -0.3893
48840SOL    HW164512   3.681   6.527   2.987  0.9658 -0.9267  0.0991
48840SOL    HW264513   3.596   6.402   3.001 -0.1034 -0.4429 -1.7463
48841SOL     OW64514   0.583  13.427   5.905 -0.2006 -0.1150 -0.4342
48841SOL    HW164515   0.576  13.412   5.811 -1.6300  0.7236 -0.4904
48841SOL    HW264516   0.570  13.521   5.916  1.8322  0.1061  0.4685
48842SOL     OW64517  13.515   9.255   7.860 -0.1042  0.2063 -0.2726
48842SOL    HW164518  13.489   9.216   7.943  0.9480  2.1877  1.0970
48842SOL    HW264519  13.435   9.256   7.807 -0.5698 -1.9683  0.3127
48843SOL     OW64520  10.676   0.103   6.021  0.6875  0.1038  0.4768
48843SOL    HW164521  10.727   0.183   6.028  1.1868 -0.0782 -0.8314
48843SOL    HW264522  10.646   0.101   5.929  0.1349 -0.8717  0.6597
48844SOL     OW64523  10.887  12.662  13.227 -0.2919 -0.0997 -0.6231
48844SOL    HW164524  10.795  12.684  13.210 -0.1416  1.2121  0.2090
48844SOL    HW264525  10.934  12.744  13.216  0.7772 -0.7361 -0.8982
48845SOL     OW64526   3.358  11.167   5.040  0.4794 -0.2504  0.4901
48845SOL    HW164527   3.334  11.135   5.127 -0.1563 -2.9067 -0.5676
48845SOL    HW264528   3.368  11.088   4.987  1.9972  1.2180 -1.6026
48846SOL     OW64529   7.693   9.194  12.560 -0.2219  0.0164 -0.4360
48846SOL    HW164530   7.746   9.159  12.632 -0.5128 -1.0482 -0.7094
48846SOL    HW264531   7.736   9.276  12.535  0.6031 -0.2349  0.1290
48847SOL     OW64532  13.425   4.753  11.397 -0.3933  0.3233  0.2742
48847SOL    HW164533  13.447   4.806  11.321  0.8952 -0.6027 -0.0300
48847SOL    HW264534  13.486   4.781  11.465 -0.2187 -0.2200  0.3512
48848SOL     OW64535  12.025   2.405  10.246 -0.2612 -0.6192  0.1337
48848SOL    HW164536  12.096   2.459  10.282  0.5874 -1.7226  0.1659
48848SOL    HW264537  12.070   2.336  10.197 -1.3037  0.8470 -3.2636
48849SOL     OW64538   2.004   2.969  11.258  0.3444  0.2141  0.2235
48849SOL    HW164539   1.987   3.046  11.205  1.0774  0.4466  0.3112
48849SOL    HW264540   2.082   2.930  11.219 -1.1457 -1.6403 -1.0860
48850SOL     OW64541  12.782  10.856   2.501 -0.5645  0.6256 -0.3897
48850SOL    HW164542  12.743  10.807   2.573 -0.0785 -0.1887 -0.6651
48850SOL    HW264543  12.738  10.823   2.422  0.3492  0.0099 -0.6571
48851SOL     OW64544  11.192   0.985   9.542 -1.1582 -1.0689  0.1235
48851SOL    HW164545  11.243   0.908   9.567 -1.8857 -1.6106 -0.0272
48851SOL    HW264546  11.188   0.982   9.447  0.6197  0.3521 -0.0447
48852SOL     OW64547   5.227  11.872   2.898 -0.4663  0.3578 -0.6129
48852SOL    HW164548   5.172  11.880   2.821 -2.2260  1.2612  0.6599
48852SOL    HW264549   5.192  11.937   2.960 -0.1096 -1.3175  1.4876
48853SOL     OW64550   7.747   1.544  11.091 -0.4241  0.4615  0.7199
48853SOL    HW164551   7.659   1.548  11.052 -0.1580 -3.1945 -0.6558
48853SOL    HW264552   7.805   1.574  11.020 -0.4388  3.1066  1.7053
48854SOL     OW64553  13.675   7.719  13.286  0.3492  0.0310 -0.6271
48854SOL    HW164554  13.600   7.769  13.317 -1.5811 -1.8367 -2.0010
48854SOL    HW264555  13.722   7.693  13.365  0.1197  1.9750  0.2094
48855SOL     OW64556  10.775   1.233   2.286 -0.5555  0.1529  0.1318
48855SOL    HW164557  10.808   1.194   2.205 -0.4323  0.9027 -0.1770
48855SOL    HW264558  10.757   1.324   2.264 -2.0129 -0.0128  0.5247
48856SOL     OW64559  11.730   3.698   2.904  0.2929  0.3616 -0.0668
48856SOL    HW164560  11.779   3.631   2.952  0.2055  0.8088  0.6580
48856SOL    HW264561  11.639   3.680   2.926  0.2806  0.8150  0.2652
48857SOL     OW64562  13.861  11.422   8.913  0.2817  0.0288 -0.1092
48857SOL    HW164563  13.810  11.343   8.932 -1.4110  0.5120 -2.2669
48857SOL    HW264564  13.942  11.390   8.875 -0.3257 -0.6927 -0.8252
48858SOL     OW64565   1.415   1.135   2.985  0.4025  0.4740  0.1119
48858SOL    HW164566   1.464   1.056   3.005  0.6605  0.7788  0.6926
48858SOL    HW264567   1.331   1.103   2.950  0.1521 -0.0706  1.1601
48859SOL     OW64568  13.998   2.373   3.624  0.1095 -0.5143  0.3347
48859SOL    HW164569  13.949   2.313   3.568 -0.7700 -0.9483  1.5325
48859SOL    HW264570  14.035   2.437   3.563  0.8938 -2.1173 -0.9546
48860SOL     OW64571  10.109  10.079   1.530 -0.3926  0.5330  0.2480
48860SOL    HW164572  10.149  10.163   1.506  0.7185  0.0907  0.4872
48860SOL    HW264573  10.182  10.017   1.529 -1.2665 -0.5284 -0.3579
48861SOL     OW64574   4.174   5.701  11.024 -0.4164  0.3030  0.0235
48861SOL    HW164575   4.112   5.629  11.012  0.6894 -0.7642  0.4065
48861SOL    HW264576   4.144   5.769  10.965 -2.1579 -0.0255  0.4630
48862SOL     OW64577  13.244  11.755  12.450 -0.3641  0.0659 -0.3722
48862SOL    HW164578  13.225  11.791  12.537  0.1782 -0.1375 -0.1699
48862SOL    HW264579  13.332  11.786  12.429 -0.9486  1.1512 -1.3883
48863SOL     OW64580   3.091   9.985   9.677 -0.4473  0.1746  0.0612
48863SOL    HW164581   3.150  10.046   9.722  0.7360 -1.8879  1.4787
48863SOL    HW264582   3.140   9.956   9.600 -0.6172  0.3037 -0.0956
48864SOL     OW64583  13.053   8.519   0.083 -0.0854  0.3345  0.8549
48864SOL    HW164584  13.124   8.571   0.120  1.0838 -0.6054  0.0334
48864SOL    HW264585  13.079   8.428   0.098  0.7753 -0.1582 -2.5755
48865SOL     OW64586   7.275   5.845   4.245 -0.3781 -0.0036 -0.0245
48865SOL    HW164587   7.224   5.812   4.318 -0.3796 -0.0112 -0.0293
48865SOL    HW264588   7.234   5.929   4.222  2.3988  2.4700  3.0192
48866SOL     OW64589   7.628  12.237   8.103  0.2021  0.4198  0.1712
48866SOL    HW164590   7.719  12.260   8.088  0.1739  0.3826 -0.0688
48866SOL    HW264591   7.631  12.152   8.146  0.2425 -0.8837 -2.2289
48867SOL     OW64592   6.108  13.788   1.535 -0.6556 -0.1141 -1.0129
48867SOL    HW164593   6.176  13.722   1.520 -0.6376 -0.2202 -0.4830
48867SOL    HW264594   6.057  13.754   1.608 -0.6798  0.4371 -0.7670
48868SOL     OW64595   5.600   6.027   8.945 -0.2195 -0.4161  0.1456
48868SOL    HW164596   5.587   6.089   9.017 -3.2236 -0.1315 -0.5127
48868SOL    HW264597   5.563   6.071   8.868 -1.1167 -2.4072 -0.6346
48869SOL     OW64598  11.681  13.003   7.466 -0.3853 -0.0024 -0.6021
48869SOL    HW164599  11.745  13.011   7.396  0.4369 -0.9586  0.0126
48869SOL    HW264600  11.726  13.034   7.544 -1.5831  1.9268 -0.5879
48870SOL     OW64601   0.939   1.776  12.864 -0.1255  0.2110 -0.3235
48870SOL    HW164602   0.846   1.759  12.877 -0.4455  0.2973 -2.2124
48870SOL    HW264603   0.972   1.697  12.823  0.7278  0.0704  0.5894
48871SOL     OW64604   2.543   0.292   5.739 -0.1098 -0.0452  0.1634
48871SOL    HW164605   2.588   0.357   5.684 -0.4240  0.4779  0.5157
48871SOL    HW264606   2.451   0.320   5.738 -0.1205 -0.0487  0.9359
48872SOL     OW64607   8.841   4.439   3.640  0.0953  0.2598 -0.9610
48872SOL    HW164608   8.829   4.356   3.593 -1.5123  0.9548 -1.8485
48872SOL    HW264609   8.752   4.472   3.653  0.5204  0.6190  1.6973
48873SOL     OW64610   5.281  10.643   1.239  0.4587 -0.3992  0.3325
48873SOL    HW164611   5.365  10.614   1.203 -0.2443 -0.5063 -1.2906
48873SOL    HW264612   5.286  10.738   1.238  0.0540 -0.3788 -1.0637
48874SOL     OW64613   0.204   0.104  14.015 -0.4454  0.1140 -0.1652
48874SOL    HW164614   0.181   0.024  13.967  0.1704  0.2414 -0.6822
48874SOL    HW264615   0.211   0.171  13.948 -0.9168  0.6021  0.2657
48875SOL     OW64616   4.281   9.247   5.458  0.2122  0.4639 -0.1269
48875SOL    HW164617   4.228   9.217   5.384  1.9002  1.3096 -1.7541
48875SOL    HW264618   4.274   9.342   5.455 -1.8456  0.5134  2.5138
48876SOL     OW64619   7.407   3.834   4.236 -0.5956  0.5829 -0.0003
48876SOL    HW164620   7.416   3.928   4.219  0.8401  0.4316 -0.2481
48876SOL    HW264621   7.418   3.793   4.150  0.4723  0.1193  0.3440
48877SOL     OW64622   2.004   4.949   7.751 -0.2385  0.4567  0.4231
48877SOL    HW164623   2.010   5.033   7.795  0.8125  0.2926  0.6070
48877SOL    HW264624   1.947   4.965   7.675  0.5111  1.4986  0.0637
48878SOL     OW64625  13.882  12.461  13.304  0.0801  0.2610  0.4730
48878SOL    HW164626  13.932  12.382  13.283  1.4533  1.1819  0.1627
48878SOL    HW264627  13.795  12.445  13.266  0.8986 -0.3185 -1.2528
48879SOL     OW64628   9.657   0.130   2.255  0.4560 -0.6554  0.3597
48879SOL    HW164629   9.739   0.099   2.217  0.0649 -0.3335 -0.7865
48879SOL    HW264630   9.672   0.222   2.275  0.8598 -0.9743  1.5903
48880SOL     OW64631   9.796   0.382   1.939 -0.3768 -0.1647 -0.2216
48880SOL    HW164632   9.764   0.307   1.889  1.6794  0.3204 -2.4357
48880SOL    HW264633   9.890   0.383   1.923  0.1878  0.9314  2.5459
48881SOL     OW64634   6.701   4.661   3.484  0.2622 -0.6469 -0.1821
48881SOL    HW164635   6.729   4.742   3.440 -0.0017 -0.9313 -0.8830
48881SOL    HW264636   6.739   4.668   3.572  1.2122 -0.2859 -0.5972
48882SOL     OW64637   8.616   2.066   8.092 -0.4215  0.4277 -0.1073
48882SOL    HW164638   8.536   2.018   8.070 -1.2990  1.1725  1.3302
48882SOL    HW264639   8.647   2.025   8.173  0.5158  0.3253 -0.5086
48883SOL     OW64640   4.811   3.052  13.068  0.1601  0.1717 -0.3147
48883SOL    HW164641   4.739   3.036  13.006  0.4940 -0.7072 -0.4892
48883SOL    HW264642   4.817   2.971  13.119  0.5959  0.4871  0.1416
48884SOL     OW64643   0.995  13.291  12.936 -0.1048  0.4947  0.1135
48884SOL    HW164644   1.024  13.307  13.026  0.0009 -0.0777  0.1805
48884SOL    HW264645   1.027  13.367  12.887  3.4052 -1.0618 -0.2417
48885SOL     OW64646  11.020   4.333   3.865  0.2136  0.0007  0.4988
48885SOL    HW164647  11.038   4.239   3.858  0.4046  0.1480 -2.9683
48885SOL    HW264648  10.935   4.344   3.824  0.2501  1.3704  0.7536
48886SOL     OW64649   5.373   9.688  10.876  0.5664 -0.8639 -0.7494
48886SOL    HW164650   5.288   9.726  10.899  1.3594  0.3919  0.2131
48886SOL    HW264651   5.354   9.596  10.858 -0.9075 -0.7317 -0.0172
48887SOL     OW64652   2.370  13.900   0.119 -0.1769  0.2402  0.0508
48887SOL    HW164653   2.330  13.868   0.200 -0.0406  0.9657  0.4118
48887SOL    HW264654   2.459  13.924   0.145 -0.2429  0.8037 -0.2372
48888SOL     OW64655   6.692   7.899   4.603  0.8323  0.6740 -0.3316
48888SOL    HW164656   6.657   7.894   4.692 -1.1523 -1.5902 -1.1310
48888SOL    HW264657   6.635   7.961   4.558  0.7155  0.4613 -0.4772
48889SOL     OW64658  11.193   1.184   8.334 -0.5252  0.5231 -0.2962
48889SOL    HW164659  11.122   1.122   8.351  1.4243 -1.3882  1.4115
48889SOL    HW264660  11.204   1.182   8.239 -1.5164 -0.5770 -0.4200
48890SOL     OW64661   0.923   9.982   2.325  0.2182  0.9612  0.5365
48890SOL    HW164662   0.958   9.989   2.236  0.0347 -1.8675  0.1622
48890SOL    HW264663   0.829   9.997   2.316  0.1016  0.0311  0.1146
48891SOL     OW64664   8.373  13.895   7.924 -0.0626 -0.3224 -0.4265
48891SOL    HW164665   8.383  13.877   7.831 -0.8249 -0.1706 -0.5493
48891SOL    HW264666   8.279  13.911   7.935  0.1419  0.5018  0.2135
48892SOL     OW64667  10.609  12.732   3.588  0.1411 -0.6378 -0.3720
48892SOL    HW164668  10.633  12.647   3.625 -0.9869 -1.3147 -1.0939
48892SOL    HW264669  10.601  12.715   3.494  1.1048  0.5744 -0.6907
48893SOL     OW64670   1.023   8.675   8.124  0.0995 -0.6864  0.2120
48893SOL    HW164671   1.114   8.693   8.144  0.6579 -0.6220 -2.0758
48893SOL    HW264672   1.021   8.582   8.101 -0.0598 -0.3474 -1.2539
48894SOL     OW64673  13.287   5.210  12.832 -0.0834 -0.5052 -0.2514
48894SOL    HW164674  13.236   5.160  12.896 -0.0371 -0.5736 -0.2674
48894SOL    HW264675  13.223   5.240  12.768 -0.2259  0.0902  0.1674
48895SOL     OW64676  10.317   8.400   8.237  0.5569  0.0926  0.6033
48895SOL    HW164677  10.261   8.426   8.310 -0.7158 -0.8639 -0.0068
48895SOL    HW264678  10.311   8.473   8.175 -0.0221  0.0072  0.5500
48896SOL     OW64679   4.984   3.752  13.848  0.5263 -0.1835  0.0332
48896SOL    HW164680   4.920   3.815  13.814  1.6123  0.4675 -0.8759
48896SOL    HW264681   4.972   3.755  13.943 -0.6051  0.1167 -0.0998
48897SOL     OW64682   0.059   9.033   4.058  0.2313  0.0254 -0.1438
48897SOL    HW164683   0.152   9.039   4.081  0.4756 -0.2517 -1.0404
48897SOL    HW264684   0.056   8.973   3.984 -0.8938 -1.6560  1.1882
48898SOL     OW64685   0.110   8.561   1.327  0.0950 -0.1344 -0.1230
48898SOL    HW164686   0.027   8.588   1.286 -0.4307 -0.8444  0.4481
48898SOL    HW264687   0.159   8.520   1.256 -1.0463 -1.8745  0.0301
48899SOL     OW64688   0.904   8.356  11.540 -0.4839  0.5039 -0.4545
48899SOL    HW164689   0.954   8.437  11.549 -0.0520  0.3851 -1.6414
48899SOL    HW264690   0.878   8.353  11.448 -0.5542 -0.6629 -0.4147
48900SOL     OW64691   6.948   7.420   7.406  0.2475 -0.0867 -0.2221
48900SOL    HW164692   6.971   7.496   7.461  0.2249 -0.0592 -0.2506
48900SOL    HW264693   6.959   7.345   7.463  0.5393 -0.0840 -0.2761
48901SOL     OW64694   9.605   9.694   7.517  0.0818 -0.1226 -0.0275
48901SOL    HW164695   9.515   9.726   7.509  0.8899  2.8958  1.6330
48901SOL    HW264696   9.596   9.598   7.520 -3.0523  0.0739  0.0510
48902SOL     OW64697   1.125  13.999  13.330 -0.3285  0.0157  0.4015
48902SOL    HW164698   1.101  14.026  13.418 -3.0038  0.6293 -0.4074
48902SOL    HW264699   1.124  14.080  13.278  5.1594  0.4138  0.3575
48903SOL     OW64700  11.111   6.576   9.051  0.4680  0.0568  0.1800
48903SOL    HW164701  11.032   6.552   9.100  0.0386 -0.7015 -0.8664
48903SOL    HW264702  11.152   6.644   9.105 -1.6471  1.5267  0.0594
48904SOL     OW64703  11.540   6.708   1.529  0.1001  0.3423  0.2058
48904SOL    HW164704  11.570   6.797   1.548  0.6760  0.3414 -0.6189
48904SOL    HW264705  11.570   6.656   1.603 -0.6775  0.9178  0.9379
48905SOL     OW64706   3.203   0.226   6.230  0.2631  0.3018  0.1051
48905SOL    HW164707   3.208   0.207   6.323  3.0938  2.7527  0.5984
48905SOL    HW264708   3.146   0.303   6.225  1.8736  1.5571  0.1748
48906SOL     OW64709  10.143  12.533   3.168 -0.5377 -0.0681  0.3088
48906SOL    HW164710  10.076  12.554   3.234 -1.1752  0.2657 -0.4328
48906SOL    HW264711  10.225  12.533   3.217 -1.1270 -0.9879  1.3500
48907SOL     OW64712   8.797   8.692   0.697 -0.3031  0.4728  0.6920
48907SOL    HW164713   8.790   8.755   0.769  1.6509  0.5255  0.8917
48907SOL    HW264714   8.792   8.606   0.740 -0.7140  0.4922  0.6883
48908SOL     OW64715   8.295   0.793  10.500 -0.1704 -0.3906  0.0508
48908SOL    HW164716   8.253   0.738  10.566  1.3121  0.1542  1.5377
48908SOL    HW264717   8.276   0.883  10.528  1.6936 -0.1343  0.6361
48909SOL     OW64718   1.979   6.754   4.074  0.3425 -0.3846  0.3649
48909SOL    HW164719   1.935   6.669   4.068 -0.1101 -0.1234 -0.0194
48909SOL    HW264720   1.936   6.808   4.009  2.0407 -0.4818 -0.9054
48910SOL     OW64721  10.058   7.491   7.452 -0.1377  0.1037 -0.3647
48910SOL    HW164722   9.990   7.550   7.417 -0.6052  0.1477  0.6044
48910SOL    HW264723  10.098   7.541   7.523 -0.4318 -0.6745  0.3630
48911SOL     OW64724   0.077   3.225   8.517  0.2664  0.5045  0.7795
48911SOL    HW164725   0.066   3.225   8.612 -0.0151 -1.8383  0.8159
48911SOL    HW264726   0.147   3.161   8.501  1.4248  2.0219 -0.5244
48912SOL     OW64727  10.648   5.457  12.437 -0.3868 -0.1390  0.2413
48912SOL    HW164728  10.658   5.448  12.532  2.9111  0.8781  0.1265
48912SOL    HW264729  10.596   5.536  12.425  0.1767  0.3910  1.2207
48913SOL     OW64730   6.811   2.277  10.471  0.1153  0.6975  0.4525
48913SOL    HW164731   6.819   2.229  10.389  2.5047  1.2034  0.3304
48913SOL    HW264732   6.880   2.343  10.468  0.8489  0.1752  3.2361
48914SOL     OW64733  13.476   0.010  10.911 -0.0352 -0.1461  0.1769
48914SOL    HW164734  13.525   0.011  10.829 -1.1334 -2.6499 -0.6046
48914SOL    HW264735  13.532  -0.039  10.971  0.4212  1.0227  0.7424
48915SOL     OW64736  13.743  10.059   1.878 -0.0624 -0.3594  0.4827
48915SOL    HW164737  13.695  10.076   1.797 -1.6332  0.8518  1.6001
48915SOL    HW264738  13.699   9.984   1.918  0.0654 -0.3254  0.6910
48916SOL     OW64739   2.532   7.166  11.822 -0.3024  0.2726  0.2966
48916SOL    HW164740   2.488   7.103  11.766  0.6646  1.1427 -1.5631
48916SOL    HW264741   2.591   7.114  11.876  1.0498 -0.4341 -1.7324
48917SOL     OW64742  10.840   1.268   5.013  0.2803  0.3832  0.7371
48917SOL    HW164743  10.797   1.289   4.930  0.9600 -2.1616 -0.3659
48917SOL    HW264744  10.769   1.253   5.075 -0.3743 -0.8129 -0.2667
48918SOL     OW64745   5.866   3.322   1.125  0.7006  0.4831 -0.2677
48918SOL    HW164746   5.839   3.286   1.210  0.1306  1.4611 -0.0172
48918SOL    HW264747   5.803   3.287   1.063  1.5155 -0.7804 -0.4264
48919SOL     OW64748   7.963   1.553  10.911  0.2480  0.3484 -0.2611
48919SOL    HW164749   7.973   1.610  10.835  1.0095 -1.1362 -1.3081
48919SOL    HW264750   8.026   1.587  10.975 -0.8545  2.0148  0.0227
48920SOL     OW64751  10.086   7.593   6.909 -0.3078  0.3185 -0.0262
48920SOL    HW164752  10.025   7.570   6.979 -2.3097  2.0342 -1.0608
48920SOL    HW264753  10.165   7.622   6.954 -0.7911 -0.5386  1.4365
48921SOL     OW64754   9.076   2.743   2.886  0.3443  0.1024 -0.1360
48921SOL    HW164755   9.113   2.668   2.840  2.6255  1.8470 -1.3682
48921SOL    HW264756   9.027   2.705   2.959  1.7199 -2.5455 -0.4759
48922SOL     OW64757   4.133   3.624   8.229  0.0619 -0.3056  0.1800
48922SOL    HW164758   4.144   3.539   8.187  0.1526  0.0776 -0.5771
48922SOL    HW264759   4.069   3.670   8.175 -0.9640 -0.3580  1.3003
48923SOL     OW64760   8.487   8.756   3.124  0.3798  0.1507  0.4330
48923SOL    HW164761   8.574   8.718   3.133  0.5518  0.7191  1.4337
48923SOL    HW264762   8.429   8.682   3.105  1.1901 -0.1188 -1.1357
48924SOL     OW64763   1.347   1.481   8.173  0.0546  0.3006  0.1253
48924SOL    HW164764   1.292   1.474   8.251  0.6231 -1.1737  0.4218
48924SOL    HW264765   1.436   1.481   8.206  0.3575 -1.7450 -0.5642
48925SOL     OW64766  11.166  14.116   6.243 -0.3501 -0.5367 -0.1712
48925SOL    HW164767  11.135  14.029   6.268  0.2293 -2.5850 -5.3311
48925SOL    HW264768  11.086  14.163   6.217 -0.3839 -0.9151 -0.7853
48926SOL     OW64769  11.909   5.926   1.182 -0.0331  0.3584 -0.1859
48926SOL    HW164770  11.912   6.021   1.193 -1.0535  0.4650 -0.6664
48926SOL    HW264771  11.835   5.912   1.123  0.7125 -0.6638 -0.9152
48927SOL     OW64772   9.082  13.208  10.046 -0.2631 -0.4397  0.1458
48927SOL    HW164773   9.049  13.118  10.048 -1.3852 -0.1107 -1.3103
48927SOL    HW264774   9.054  13.247  10.129  1.4614 -1.7995  1.4291
48928SOL     OW64775  13.100  12.121   5.835 -0.4386  0.0679 -0.1694
48928SOL    HW164776  13.161  12.101   5.764  1.2063  0.1109  1.1851
48928SOL    HW264777  13.128  12.206   5.868 -0.4093 -0.4753  1.2911
48929SOL     OW64778   9.849  11.127   1.928 -0.4401  0.3289 -0.2556
48929SOL    HW164779   9.866  11.169   1.844  1.1067  1.1210  0.4007
48929SOL    HW264780   9.893  11.042   1.921  1.2258  1.0976  0.3196
48930SOL     OW64781  13.973   5.817   6.975 -0.4230 -0.4984 -0.5358
48930SOL    HW164782  13.941   5.761   7.045  1.2489  0.9767  1.5192
48930SOL    HW264783  14.049   5.771   6.939 -0.0455 -0.3113  0.0221
48931SOL     OW64784  13.630   3.979  12.919  0.0688 -0.3075  0.5025
48931SOL    HW164785  13.706   4.020  12.877  1.8417 -0.9133  2.9077
48931SOL    HW264786  13.562   4.047  12.919  0.5639  0.2506 -1.6972
48932SOL     OW64787   6.146   3.604  13.405 -0.1004  0.6748 -0.2079
48932SOL    HW164788   6.163   3.512  13.386 -0.5025  0.0947  1.9558
48932SOL    HW264789   6.186   3.652  13.332  0.6276 -1.1755 -1.0747
48933SOL     OW64790   4.244   8.214   9.232 -0.6639  0.0558  0.7006
48933SOL    HW164791   4.177   8.212   9.300  0.4133 -0.5296  1.7803
48933SOL    HW264792   4.312   8.273   9.266 -1.3587  2.0593 -1.1376
48934SOL     OW64793   0.904   0.395  13.176  0.6429  0.2265 -0.4775
48934SOL    HW164794   0.836   0.339  13.214  1.0507  0.8064  1.2095
48934SOL    HW264795   0.892   0.480  13.218  2.6708  0.2145  0.2665
48935SOL     OW64796   7.471   2.256   2.098  0.2539  0.3103 -0.7309
48935SOL    HW164797   7.565   2.272   2.103  0.4809 -0.7878 -1.1228
48935SOL    HW264798   7.457   2.223   2.009 -0.3070 -0.6057 -0.3256
48936SOL     OW64799   3.311   5.992   7.937  0.1469  0.0380 -0.1802
48936SOL    HW164800   3.253   6.019   8.009 -0.7055  1.3514 -1.2928
48936SOL    HW264801   3.398   6.017   7.966 -0.3717  2.1895 -0.2431
48937SOL     OW64802   1.616   1.201   9.292 -0.4829 -0.5653  0.3404
48937SOL    HW164803   1.565   1.228   9.215  0.9005  0.1809 -0.3518
48937SOL    HW264804   1.592   1.109   9.305 -1.8048 -0.3159 -0.1048
48938SOL     OW64805   3.180   0.737   0.938 -0.1122  0.3487  0.3889
48938SOL    HW164806   3.157   0.719   1.030  2.1072  1.4252  1.2338
48938SOL    HW264807   3.255   0.796   0.944  1.5040 -1.3118 -2.1141
48939SOL     OW64808  11.828   2.705   2.986  0.1006 -0.0646 -0.5710
48939SOL    HW164809  11.831   2.616   2.952 -0.7418  0.0335 -0.9280
48939SOL    HW264810  11.893   2.707   3.057 -0.6185 -1.2509  0.1450
48940SOL     OW64811  12.753   2.103  12.128  0.4104 -0.3168 -0.5266
48940SOL    HW164812  12.734   2.020  12.172 -1.7054  0.8484  0.9252
48940SOL    HW264813  12.799   2.155  12.193 -0.6538  0.5773 -0.4573
48941SOL     OW64814   0.567   3.901   1.120 -0.2883  0.0727 -0.3347
48941SOL    HW164815   0.561   3.830   1.056 -1.2646 -0.5976  0.4608
48941SOL    HW264816   0.494   3.885   1.180 -0.0831  1.3378  0.2879
48942SOL     OW64817  13.118   0.002   0.792  0.0903 -0.0367  0.5929
48942SOL    HW164818  13.142   0.049   0.872  0.7963 -1.6407  1.3529
48942SOL    HW264819  13.065  -0.072   0.823 -0.5033 -0.0981 -0.5257
48943SOL     OW64820  11.173   7.328   9.278  0.0710  0.3341 -0.2994
48943SOL    HW164821  11.135   7.246   9.246 -0.5253  1.1441 -1.8237
48943SOL    HW264822  11.104   7.393   9.263 -0.1524  0.8685  2.5148
48944SOL     OW64823   1.575   8.691   2.489  0.5790 -0.0521 -0.1908
48944SOL    HW164824   1.511   8.719   2.424  0.2897 -0.3409 -0.0280
48944SOL    HW264825   1.626   8.623   2.445 -0.4139 -1.1225  0.2966
48945SOL     OW64826   7.711   3.328  10.210 -0.1290 -0.2673 -0.0740
48945SOL    HW164827   7.660   3.269  10.154 -1.8994  1.6707 -0.6292
48945SOL    HW264828   7.741   3.272  10.282 -3.8735 -1.4748  0.8207
48946SOL     OW64829  11.145  11.375  13.420  0.3777  0.0251 -0.0328
48946SOL    HW164830  11.159  11.334  13.334 -2.1418  0.0831 -0.5480
48946SOL    HW264831  11.110  11.305  13.475  0.1237  0.4571  0.3655
48947SOL     OW64832   8.669   0.086   9.673  0.3994 -0.0877  0.0929
48947SOL    HW164833   8.636   0.132   9.596  0.1271 -1.1462 -0.4400
48947SOL    HW264834   8.613   0.116   9.745  0.9321  1.2386 -0.0163
48948SOL     OW64835   0.071  13.275  13.971  0.3940 -0.4251 -0.3517
48948SOL    HW164836   0.012  13.334  14.018  0.6115  0.5125 -1.2061
48948SOL    HW264837   0.158  13.296  14.007  0.5300  0.1220 -0.9793
48949SOL     OW64838   6.211  11.923  12.475 -0.7208  0.0656 -0.0213
48949SOL    HW164839   6.283  11.985  12.463 -1.8715  1.6048  0.5772
48949SOL    HW264840   6.198  11.884  12.388 -1.1749  2.1047 -0.9365
48950SOL     OW64841   1.435   4.179  12.618 -0.2144  0.1129  0.4042
48950SOL    HW164842   1.445   4.115  12.547 -2.0828  1.1142 -0.8642
48950SOL    HW264843   1.405   4.259  12.573  0.2609  1.3267  2.1471
48951SOL     OW64844   7.549   7.686   5.244  0.3545 -0.1235  0.3171
48951SOL    HW164845   7.469   7.683   5.297  0.3862  1.0945  0.4677
48951SOL    HW264846   7.552   7.602   5.199  0.0357 -0.9613  1.8308
48952SOL     OW64847  11.928  10.145  10.051 -0.1428 -0.4367  0.1683
48952SOL    HW164848  11.995  10.111  10.111 -0.7364 -3.0785 -0.5414
48952SOL    HW264849  11.933  10.240  10.061  1.4777 -0.6851  2.5280
48953SOL     OW64850   7.316   3.532  12.763  0.9131 -0.2339  0.3596
48953SOL    HW164851   7.233   3.501  12.726  0.9424 -1.2486  1.0861
48953SOL    HW264852   7.299   3.622  12.789  0.1187 -0.3484  0.2601
48954SOL     OW64853  11.991   7.058   4.857 -0.2215  0.2370 -0.3016
48954SOL    HW164854  11.935   7.008   4.798  1.3074  0.0122 -1.6095
48954SOL    HW264855  12.069   7.078   4.806  0.5580  1.2606  1.2040
48955SOL     OW64856  13.042   7.294   7.128  0.4586  0.0784  0.6010
48955SOL    HW164857  13.025   7.297   7.034 -1.0339  0.2161  0.8463
48955SOL    HW264858  13.059   7.385   7.152  1.4261 -0.0341  0.3838
48956SOL     OW64859   9.884   9.612   1.336  0.0399  0.8858 -0.5435
48956SOL    HW164860   9.965   9.575   1.369 -0.1518  1.9924  1.2893
48956SOL    HW264861   9.890   9.602   1.241  1.6040 -0.4390 -0.3449
48957SOL     OW64862  12.339   6.581   7.827  0.4349 -0.4932  0.0307
48957SOL    HW164863  12.417   6.530   7.804  0.5087 -0.3843  0.0412
48957SOL    HW264864  12.266   6.519   7.815  0.5773 -0.7752  0.6293
48958SOL     OW64865  11.772   3.667  11.661  0.5274  1.1458  0.3819
48958SOL    HW164866  11.843   3.671  11.725  0.3045 -0.2915  0.7418
48958SOL    HW264867  11.721   3.590  11.685  0.0173  0.9755 -1.1028
48959SOL     OW64868   9.390   5.343   6.257 -0.4303 -0.0105 -0.0151
48959SOL    HW164869   9.367   5.253   6.231 -1.1578 -0.3758  1.7256
48959SOL    HW264870   9.414   5.335   6.349  0.5395  1.4436 -0.1147
48960SOL     OW64871   7.430   3.460   6.116  0.1605  0.3709 -0.4040
48960SOL    HW164872   7.422   3.382   6.061 -2.0141  1.0554 -1.1976
48960SOL    HW264873   7.383   3.437   6.196  1.0199  0.2843  0.0786
48961SOL     OW64874   6.699   0.188   8.292 -0.1125  0.2140  0.7280
48961SOL    HW164875   6.608   0.177   8.261  0.1558  0.4177 -0.1827
48961SOL    HW264876   6.712   0.283   8.293  0.9893  0.1894 -2.0365
48962SOL     OW64877  10.313   1.015  14.020  0.3377 -0.2895 -0.5512
48962SOL    HW164878  10.264   0.974  13.948 -0.4730  1.0530 -0.7885
48962SOL    HW264879  10.268   1.098  14.036  0.8988 -0.2630  1.0828
48963SOL     OW64880  10.523   8.901   9.209  0.0799  0.6334 -0.0820
48963SOL    HW164881  10.564   8.815   9.219  1.6769  1.4572  0.8934
48963SOL    HW264882  10.543   8.947   9.290  0.4109  2.3725 -1.0894
48964SOL     OW64883  11.395   5.391   1.881  0.4515  0.1091 -0.0296
48964SOL    HW164884  11.404   5.466   1.940 -0.4482  0.7033 -0.6101
48964SOL    HW264885  11.395   5.315   1.939  3.3081  0.3648  0.4212
48965SOL     OW64886  13.431  13.918   5.631 -0.0492 -0.1945 -0.0657
48965SOL    HW164887  13.481  13.947   5.555 -2.1064 -1.5630 -2.0666
48965SOL    HW264888  13.359  13.980   5.639  0.5299  0.3545  1.2854
48966SOL     OW64889  12.953   4.603  10.378 -0.5971 -0.0922 -0.0678
48966SOL    HW164890  12.868   4.634  10.409 -0.5848 -0.9271  0.8488
48966SOL    HW264891  13.016   4.642  10.438 -0.2286  1.1570 -1.2080
48967SOL     OW64892   7.578  10.998   4.907  0.1394  0.3548 -0.7503
48967SOL    HW164893   7.512  11.047   4.857 -1.0102 -1.1031 -0.7399
48967SOL    HW264894   7.575  10.910   4.870  0.1974 -0.4192  0.9857
48968SOL     OW64895   1.903  10.347   9.452  0.3190  0.8830 -0.0922
48968SOL    HW164896   1.927  10.414   9.517 -1.2933  1.0428  0.3766
48968SOL    HW264897   1.824  10.382   9.410 -1.6082 -1.4650  1.3720
48969SOL     OW64898   4.520  13.822   0.905 -0.4754  0.4997 -0.4419
48969SOL    HW164899   4.525  13.914   0.878 -0.3048  1.2481  1.9085
48969SOL    HW264900   4.609  13.799   0.930 -0.4827 -0.3798 -1.1919
48970SOL     OW64901   9.377   4.285   9.352  0.2889  0.1826  0.1201
48970SOL    HW164902   9.379   4.199   9.394  1.7064  1.2521  2.4300
48970SOL    HW264903   9.286   4.295   9.323  0.5081 -2.8552 -2.0701
48971SOL     OW64904   1.745  13.464  12.130 -0.3944  0.0117 -0.1135
48971SOL    HW164905   1.791  13.533  12.177  0.6262 -0.2225 -0.7574
48971SOL    HW264906   1.777  13.469  12.040 -1.2023 -0.5267 -0.4489
48972SOL     OW64907   0.503  13.093  13.322  0.0995 -0.4150  0.8260
48972SOL    HW164908   0.589  13.125  13.295  0.9081 -1.3988  2.0789
48972SOL    HW264909   0.473  13.157  13.387  1.0622 -1.3442  2.2537
48973SOL     OW64910   1.485   6.241  13.711 -0.3532 -0.5194  0.2670
48973SOL    HW164911   1.404   6.231  13.761 -0.0760  0.0304  0.8317
48973SOL    HW264912   1.455   6.259  13.622 -0.8569  0.5617  0.6427
48974SOL     OW64913   6.374   5.900   6.129 -0.4556 -0.1271 -0.5327
48974SOL    HW164914   6.348   5.812   6.156 -0.4935  0.0330 -0.0349
48974SOL    HW264915   6.383   5.949   6.211  0.9400 -0.0376 -0.7125
48975SOL     OW64916   1.339  13.279   7.662  0.1237  0.1622 -0.4086
48975SOL    HW164917   1.251  13.270   7.628  0.2135  0.7624 -0.8078
48975SOL    HW264918   1.327  13.312   7.752 -0.0418  1.0871 -0.7584
48976SOL     OW64919   0.299   2.721   9.349 -0.1902  0.6928  0.7802
48976SOL    HW164920   0.326   2.630   9.351  0.3961  0.6087 -3.1124
48976SOL    HW264921   0.204   2.719   9.366 -0.4536 -0.8573 -0.6379
48977SOL     OW64922   4.887   9.403   3.774 -0.0985 -0.2553 -0.1972
48977SOL    HW164923   4.849   9.450   3.849  0.1277 -0.4529  0.0452
48977SOL    HW264924   4.970   9.369   3.807 -0.0575 -0.4532 -0.5008
48978SOL     OW64925  10.882   7.672   4.377  0.6095  0.3019 -0.6378
48978SOL    HW164926  10.889   7.719   4.460  0.7935  0.5379 -0.7838
48978SOL    HW264927  10.813   7.718   4.329 -1.0885 -1.1893  0.2521
48979SOL     OW64928   6.864   8.537  12.470  0.1532 -0.4548 -0.1996
48979SOL    HW164929   6.810   8.569  12.541  2.1950 -0.4708  1.4756
48979SOL    HW264930   6.847   8.596  12.397  0.1892  1.4530  1.2637
48980SOL     OW64931   4.226   6.717   3.867 -0.2850  0.4904  0.5767
48980SOL    HW164932   4.231   6.626   3.898 -1.5799  0.1897 -0.0435
48980SOL    HW264933   4.229   6.769   3.947  0.7707 -0.0668  0.9252
48981SOL     OW64934   1.439   3.386  10.140  0.1743  0.0681 -0.1168
48981SOL    HW164935   1.379   3.455  10.168  1.1528  0.3148  1.4697
48981SOL    HW264936   1.384   3.308  10.132 -0.6987  0.7199 -0.6492
48982SOL     OW64937  13.880   8.486   1.719  0.0308  0.0165 -0.4547
48982SOL    HW164938  13.947   8.545   1.755 -0.0754 -0.7327  1.0793
48982SOL    HW264939  13.929   8.409   1.691 -0.0949 -0.2169 -0.0420
48983SOL     OW64940   3.418   6.809   6.912  0.1880  0.2532  0.0685
48983SOL    HW164941   3.476   6.871   6.956 -1.8092  2.0589  0.3264
48983SOL    HW264942   3.332   6.825   6.950 -1.0629 -0.2207 -2.3502
48984SOL     OW64943  10.944   2.530  10.251  0.6083 -0.7190  0.6356
48984SOL    HW164944  10.955   2.607  10.306  0.6146 -0.9468  0.9518
48984SOL    HW264945  10.944   2.564  10.161  0.5313 -0.3432  0.7794
48985SOL     OW64946   5.714  10.293   2.211 -0.2244  0.8103 -0.4512
48985SOL    HW164947   5.781  10.288   2.279  0.7524  2.0464 -1.2683
48985SOL    HW264948   5.759  10.333   2.136 -1.6044  0.6934 -1.3853
48986SOL     OW64949   2.634   4.755  11.094  0.4371 -0.1231 -0.2189
48986SOL    HW164950   2.715   4.805  11.088  1.7979 -1.7634  2.5146
48986SOL    HW264951   2.656   4.669  11.057 -0.0849 -0.4927  0.2977
48987SOL     OW64952   2.361   2.253  11.446 -0.1764  0.4763  0.1247
48987SOL    HW164953   2.356   2.253  11.350 -0.3846  0.4308  0.1368
48987SOL    HW264954   2.352   2.346  11.470 -0.4546  0.4512  0.1187
48988SOL     OW64955   0.172  11.269   8.129  0.2946  0.3467 -0.2123
48988SOL    HW164956   0.102  11.225   8.080  0.3211 -1.3849  1.1964
48988SOL    HW264957   0.137  11.357   8.147  0.0285  0.8205 -2.6780
48989SOL     OW64958  11.958   4.510   4.346 -0.3034 -0.1433  0.1230
48989SOL    HW164959  11.909   4.431   4.320 -3.0750  1.3584  0.4505
48989SOL    HW264960  12.001   4.486   4.428  0.2477 -1.7713 -0.5954
48990SOL     OW64961  10.820   4.129   6.012 -0.5576  0.2317 -0.6725
48990SOL    HW164962  10.906   4.130   5.971 -0.8751  0.7027 -1.3536
48990SOL    HW264963  10.835   4.094   6.100  0.4718  1.1431 -0.4674
48991SOL     OW64964   9.858   0.741   4.409 -0.5986 -0.2833 -0.1749
48991SOL    HW164965   9.773   0.728   4.368 -0.8185  0.5251 -0.0090
48991SOL    HW264966   9.839   0.795   4.486  0.0074 -0.4621  0.1086
48992SOL     OW64967   8.434   0.123   5.640  0.2396  0.2940  0.2513
48992SOL    HW164968   8.515   0.091   5.678  0.1736 -0.0553  0.1005
48992SOL    HW264969   8.371   0.052   5.652  0.3478 -0.0358 -0.9525
48993SOL     OW64970  12.541  10.698   5.183  0.0334 -0.4936 -0.0854
48993SOL    HW164971  12.630  10.733   5.189  0.9384 -2.3850 -1.5034
48993SOL    HW264972  12.502  10.717   5.269  1.3808  1.3619  0.1911
48994SOL     OW64973   0.780   9.233   0.447 -0.3561 -0.3748  0.4792
48994SOL    HW164974   0.688   9.223   0.471 -1.0246  0.5668 -1.4712
48994SOL    HW264975   0.784   9.204   0.356  1.1261  0.3225  0.2963
48995SOL     OW64976   3.357   3.805  10.362 -0.5162  0.2358 -0.0615
48995SOL    HW164977   3.281   3.839  10.316 -0.9467  1.8994  1.7583
48995SOL    HW264978   3.326   3.724  10.403 -1.3763  0.9618  0.7622
48996SOL     OW64979  12.348  10.421   2.694 -0.1799 -0.4844 -0.1899
48996SOL    HW164980  12.260  10.442   2.727 -0.7575  0.8553 -2.3922
48996SOL    HW264981  12.363  10.484   2.623  1.5951 -2.2268 -1.4644
48997SOL     OW64982   1.022   8.839   0.591 -0.2804 -0.6090  0.2792
48997SOL    HW164983   0.991   8.928   0.607  2.7155  0.3517  1.4361
48997SOL    HW264984   0.966   8.784   0.646 -0.7411  0.8387  1.3296
48998SOL     OW64985   3.452  11.906   2.608  0.0798 -0.2663  0.1474
48998SOL    HW164986   3.465  11.897   2.513 -0.1071 -0.3588  0.1288
48998SOL    HW264987   3.377  11.965   2.616 -0.4596 -0.9396  0.2170
48999SOL     OW64988   9.816   3.090   5.440 -0.0454  0.3696 -0.2807
48999SOL    HW164989   9.745   3.074   5.377 -2.1760 -0.6210  2.1690
48999SOL    HW264990   9.772   3.092   5.525  2.6681  1.6810  1.2263
49000SOL     OW64991   0.429  11.877   2.648  0.1361 -0.4073  0.0208
49000SOL    HW164992   0.523  11.872   2.628  0.3524  2.3637 -0.0018
49000SOL    HW264993   0.425  11.897   2.741 -0.2306  2.6221 -0.5532
49001SOL     OW64994   4.818  10.717   1.118 -1.1628  0.2121  0.0829
49001SOL    HW164995   4.828  10.722   1.213  0.4651 -0.4864 -0.0087
49001SOL    HW264996   4.842  10.804   1.087 -0.6438  0.1359  0.2554
49002SOL     OW64997   6.414   6.272  12.346  0.1393  0.4946 -0.1933
49002SOL    HW164998   6.503   6.263  12.311  1.1237 -0.2085  2.3172
49002SOL    HW264999   6.363   6.206  12.300  1.5550 -0.9220  0.1922
49003SOL     OW65000   8.427  12.476   8.382  0.3320 -0.2405  0.0311
49003SOL    HW165001   8.448  12.473   8.475  0.1064 -0.8225  0.0682
49003SOL    HW265002   8.424  12.569   8.361  0.7450 -0.1094  0.5203
49004SOL     OW65003  13.760  12.135  13.190  0.5208  0.1061  0.1943
49004SOL    HW165004  13.763  12.071  13.261 -1.9744  0.0181  0.2980
49004SOL    HW265005  13.716  12.211  13.229  1.7591  1.1893 -0.4585
49005SOL     OW65006   0.904   3.400   0.434 -0.5294 -0.2293 -0.4152
49005SOL    HW165007   0.979   3.361   0.478  0.4542  0.7194 -1.1889
49005SOL    HW265008   0.834   3.335   0.442  0.2772 -1.0011  0.5815
49006SOL     OW65009   7.389   3.972   8.573  0.3793  0.3237 -0.4024
49006SOL    HW165010   7.388   3.973   8.477  2.1412  2.0653 -0.4842
49006SOL    HW265011   7.477   4.001   8.596 -0.4373  1.3262  1.7385
49007SOL     OW65012   6.994   3.208   4.909  0.1819 -0.0447  1.0535
49007SOL    HW165013   7.086   3.229   4.895  0.1277  1.5482  2.6649
49007SOL    HW265014   6.995   3.121   4.948  0.8366 -0.8493 -0.6625
49008SOL     OW65015   9.821  10.000   0.598 -0.2004  1.0415  0.0990
49008SOL    HW165016   9.854   9.919   0.560 -1.9559  0.1512  0.3444
49008SOL    HW265017   9.899  10.046   0.630  0.7391 -1.1928  1.1815
49009SOL     OW65018  12.006   6.383   0.739  0.0652  0.3624  0.0426
49009SOL    HW165019  11.966   6.315   0.685  1.2238  0.7070 -1.2745
49009SOL    HW265020  11.955   6.381   0.820 -0.6699 -1.2653 -0.4183
49010SOL     OW65021   9.351   3.292  12.693 -0.0837  0.3241  0.6120
49010SOL    HW165022   9.405   3.348  12.749  1.7478  0.8176 -1.4982
49010SOL    HW265023   9.284   3.257  12.752  1.8116  0.6243  3.1342
49011SOL     OW65024   9.944  13.516   9.763 -0.0391 -0.2610 -0.1531
49011SOL    HW165025   9.930  13.611   9.761 -0.0711 -0.2523  0.4046
49011SOL    HW265026  10.039  13.505   9.758 -0.1132 -0.2891 -2.8191
49012SOL     OW65027   4.499  10.205  12.303 -0.2114  0.2091 -0.6634
49012SOL    HW165028   4.593  10.195  12.316 -0.0068 -1.0248 -2.6680
49012SOL    HW265029   4.461  10.201  12.391  1.5725  0.5420  0.1541
49013SOL     OW65030   5.016   6.337   9.696  0.4537  0.0280  0.3559
49013SOL    HW165031   5.100   6.310   9.660  0.4291 -1.6427  1.4692
49013SOL    HW265032   5.033   6.352   9.789 -0.5456 -0.7442  0.6845
49014SOL     OW65033   1.306   4.546   1.462  0.0910 -0.3097  0.3446
49014SOL    HW165034   1.376   4.573   1.403  0.6415  1.1193  1.5766
49014SOL    HW265035   1.345   4.476   1.515  0.0713 -0.5757  0.0130
49015SOL     OW65036   2.636   0.514   0.900  0.6384 -0.1174 -0.5064
49015SOL    HW165037   2.553   0.485   0.936  0.3102 -0.1271 -1.2420
49015SOL    HW265038   2.636   0.481   0.810  1.3676  0.0142 -0.5633
49016SOL     OW65039  13.352   3.729   9.769  0.7616 -1.0155  0.2575
49016SOL    HW165040  13.320   3.818   9.783  0.4627 -0.8405 -1.3905
49016SOL    HW265041  13.290   3.673   9.816 -0.6296 -0.5263 -0.9498
49017SOL     OW65042   5.691   6.632   5.821  0.0500  0.3331 -0.2164
49017SOL    HW165043   5.674   6.632   5.915 -2.2064 -0.9732 -0.5560
49017SOL    HW265044   5.606   6.650   5.781  0.1571 -2.5903 -2.0262
49018SOL     OW65045  13.230  11.265   6.978 -0.5467  0.2245 -0.2469
49018SOL    HW165046  13.194  11.301   6.896 -0.6059 -0.7093 -0.6376
49018SOL    HW265047  13.169  11.296   7.045 -0.5990  0.8510 -0.5672
49019SOL     OW65048  13.519  13.199  13.202  0.3750  0.0091 -0.0602
49019SOL    HW165049  13.538  13.107  13.220 -3.2430 -1.1994 -1.5436
49019SOL    HW265050  13.536  13.210  13.109 -0.0923  0.5647 -0.0925
49020SOL     OW65051   7.326  14.099   3.396 -0.0185  0.0548 -0.3391
49020SOL    HW165052   7.406  14.069   3.354  1.2247 -2.1305  3.2037
49020SOL    HW265053   7.265  14.026   3.388 -0.3804  0.3012  0.0829
49021SOL     OW65054  11.971  14.055   9.589 -0.6328 -0.4626 -0.4655
49021SOL    HW165055  11.989  14.085   9.678  0.2083  1.0676 -1.1115
49021SOL    HW265056  11.916  14.124   9.551  2.2810  1.0123 -2.3664
49022SOL     OW65057   5.291   5.234   5.140  0.2516 -0.0461  0.0256
49022SOL    HW165058   5.238   5.281   5.077  0.1104 -1.0464 -0.6155
49022SOL    HW265059   5.350   5.301   5.177 -0.0529  0.6533 -0.7376
49023SOL     OW65060   3.141   1.524   1.008 -0.1488  0.0178  0.4329
49023SOL    HW165061   3.161   1.431   0.997 -0.0059  0.2110 -1.2044
49023SOL    HW265062   3.147   1.539   1.102 -0.0390 -1.5945  0.7147
49024SOL     OW65063   6.690   2.347   7.872 -0.2403 -0.4500  0.2145
49024SOL    HW165064   6.727   2.282   7.932  1.4019 -0.0639 -0.3397
49024SOL    HW265065   6.760   2.411   7.860 -0.9020  0.0189 -1.3296
49025SOL     OW65066  12.857   1.025   0.864  0.2038 -0.1327 -0.3702
49025SOL    HW165067  12.907   1.011   0.945  1.0987 -0.7306 -1.0105
49025SOL    HW265068  12.807   1.104   0.881  1.5959  0.6692  0.1961
49026SOL     OW65069   4.516  12.987  11.311  0.5391 -0.4756 -0.4569
49026SOL    HW165070   4.491  13.019  11.224  0.1452  0.5259  0.0041
49026SOL    HW265071   4.502  12.893  11.307 -0.6594 -0.2970 -1.1034
49027SOL     OW65072  11.984   7.870  12.859  0.0346 -0.3730  0.1727
49027SOL    HW165073  12.057   7.927  12.883  0.0313 -0.5544  0.6271
49027SOL    HW265074  11.995   7.856  12.765 -1.4116  2.4345 -0.5074
49028SOL     OW65075   2.996  11.042   0.375  0.8180  0.4739  0.0375
49028SOL    HW165076   3.014  10.993   0.295  1.7713 -1.8183  1.5438
49028SOL    HW265077   3.081  11.048   0.420  0.5833  2.9207  0.2971
49029SOL     OW65078  10.315   0.262   0.407  0.0698 -0.2399  0.4530
49029SOL    HW165079  10.325   0.341   0.458  0.6783 -0.6805  1.0390
49029SOL    HW265080  10.225   0.265   0.374  0.4736  1.3198 -0.6223
49030SOL     OW65081  12.412   5.648   6.491  0.1549  0.8520 -0.6620
49030SOL    HW165082  12.454   5.659   6.576 -1.3206  3.2086 -0.1586
49030SOL    HW265083  12.318   5.649   6.509 -0.3638 -3.5294 -1.8554
49031SOL     OW65084   0.876  11.401   7.362  0.4215 -0.2853 -0.1711
49031SOL    HW165085   0.896  11.309   7.378 -0.2341 -0.1926  1.3559
49031SOL    HW265086   0.819  11.400   7.285  0.9500 -1.0861 -0.5631
49032SOL     OW65087   2.224  12.336   6.824 -0.1655  0.3278  0.9560
49032SOL    HW165088   2.256  12.261   6.773 -0.4053 -0.1416  1.4811
49032SOL    HW265089   2.212  12.406   6.760  0.8805  0.1816  0.5791
49033SOL     OW65090   5.027  10.375  13.719 -0.4379 -0.1147  0.2885
49033SOL    HW165091   4.951  10.367  13.662  0.1620 -0.7488 -0.4484
49033SOL    HW265092   5.067  10.288  13.718 -0.0837  0.0307  1.2023
49034SOL     OW65093   0.076   9.530   0.589 -0.2249 -0.4168  0.0666
49034SOL    HW165094   0.070   9.591   0.662 -1.3872 -0.6080  0.1580
49034SOL    HW265095   0.169   9.521   0.572  0.1336 -1.0416  2.1057
49035SOL     OW65096   8.814   5.485  13.921  0.4574 -0.4676  0.3068
49035SOL    HW165097   8.813   5.446  13.833 -0.0983 -1.3950  0.7112
49035SOL    HW265098   8.788   5.576  13.907 -1.3442 -1.0389 -0.3037
49036SOL     OW65099   1.875   1.121   5.238  0.5857 -0.3186  0.7295
49036SOL    HW165100   1.870   1.026   5.238  1.4481 -0.3835  2.1323
49036SOL    HW265101   1.945   1.142   5.300  0.8748  1.2091 -0.0491
49037SOL     OW65102  13.545   8.326  11.683  0.5445  0.4302  0.2833
49037SOL    HW165103  13.630   8.293  11.714  1.0485 -0.7144 -2.0394
49037SOL    HW265104  13.543   8.417  11.712  4.0834  1.5082 -2.1703
49038SOL     OW65105  12.495  10.575   2.500 -0.2129  0.2019  0.2312
49038SOL    HW165106  12.483  10.504   2.437  1.2669 -0.2728  0.4531
49038SOL    HW265107  12.436  10.644   2.470  0.4305 -0.0138 -1.6655
49039SOL     OW65108   6.221   2.027   5.062  0.1843  0.5866 -0.3092
49039SOL    HW165109   6.131   2.016   5.033  0.1941 -1.2057  0.2016
49039SOL    HW265110   6.274   2.000   4.987  0.2773  0.6103 -0.2520
49040SOL     OW65111  11.228  10.571  12.828  0.0028  0.2353  0.2518
49040SOL    HW165112  11.178  10.503  12.783  1.6553 -0.8315 -0.0584
49040SOL    HW265113  11.207  10.558  12.920  0.2258 -0.6465  0.1892
49041SOL     OW65114   1.287  10.629   3.012 -0.2578  0.1861  0.3647
49041SOL    HW165115   1.250  10.710   3.044 -1.0995  0.5093 -1.3121
49041SOL    HW265116   1.225  10.598   2.946 -0.2182 -2.0905  1.2789
49042SOL     OW65117   1.260  13.538  11.833  0.3153 -0.1368 -0.2184
49042SOL    HW165118   1.218  13.567  11.914 -1.9171 -0.3981 -1.1877
49042SOL    HW265119   1.270  13.618  11.781 -2.5209 -0.4221 -1.4374
49043SOL     OW65120  12.753   4.894  12.350 -0.7466  0.1545 -0.3308
49043SOL    HW165121  12.812   4.820  12.364  0.2550  0.8399 -0.7944
49043SOL    HW265122  12.670   4.866  12.387  0.0115 -0.6342  0.8225
49044SOL     OW65123   5.636   1.085   9.900  1.1082 -0.3835  0.4457
49044SOL    HW165124   5.577   1.134   9.957 -0.0979  0.2881 -1.2894
49044SOL    HW265125   5.596   0.998   9.894 -0.5263  0.4266 -1.7234
49045SOL     OW65126   6.965   8.171  14.084 -0.3247  0.0516 -0.3059
49045SOL    HW165127   6.981   8.162  13.990  1.4320 -0.6472  0.0159
49045SOL    HW265128   6.991   8.086  14.121  0.0248  0.6717  0.9264
49046SOL     OW65129   8.333   7.168   2.785 -0.8886  0.1914  0.4887
49046SOL    HW165130   8.405   7.230   2.769  1.7313 -2.8102 -0.3092
49046SOL    HW265131   8.342   7.144   2.877  0.3393 -1.4582 -0.0133
49047SOL     OW65132  12.405   8.265   4.745 -0.3593 -0.1111  0.0260
49047SOL    HW165133  12.457   8.198   4.788  0.1017 -0.5777 -1.2134
49047SOL    HW265134  12.464   8.339   4.735 -0.2548 -0.2516 -0.4131
49048SOL     OW65135  10.512   8.766  12.129 -0.2415 -0.4200  0.1684
49048SOL    HW165136  10.511   8.672  12.111  2.0268 -0.4147 -0.3311
49048SOL    HW265137  10.569   8.776  12.205 -0.9219  0.5256  0.5773
49049SOL     OW65138   0.148   1.427  11.730  0.0737 -0.2621  0.1425
49049SOL    HW165139   0.193   1.378  11.661  0.2209 -0.8742  0.6592
49049SOL    HW265140   0.205   1.502  11.747 -0.0211 -0.0420 -0.4716
49050SOL     OW65141   7.870   1.925  10.603  0.3979  0.4434  0.6222
49050SOL    HW165142   7.776   1.932  10.585  0.2813 -0.4541  0.8238
49050SOL    HW265143   7.908   2.002  10.561 -0.1262 -0.4748 -1.7217
49051SOL     OW65144  10.681   5.467  13.939 -0.5194 -0.3215  0.2572
49051SOL    HW165145  10.590   5.451  13.915 -0.6591  1.0723 -0.1879
49051SOL    HW265146  10.691   5.562  13.937  1.5692 -0.5010 -1.9969
49052SOL     OW65147  12.954   5.434   6.398  0.3332  0.0572  0.2075
49052SOL    HW165148  13.018   5.398   6.337 -1.1928 -1.2511 -0.7030
49052SOL    HW265149  12.988   5.411   6.485  0.8347 -1.1088 -0.2711
49053SOL     OW65150  12.431   6.251   4.970 -0.3815 -0.0370  0.1288
49053SOL    HW165151  12.385   6.324   5.012  1.4793  1.0580  0.3955
49053SOL    HW265152  12.426   6.271   4.876  0.4582  0.6836  0.2224
49054SOL     OW65153   4.401  10.126   0.792  0.6426 -0.2853 -0.5158
49054SOL    HW165154   4.433  10.103   0.879 -2.6676  1.2464  1.2923
49054SOL    HW265155   4.411  10.221   0.787 -0.6770 -0.1547 -1.1023
49055SOL     OW65156   2.813  11.724   5.742 -0.0346  0.3129  0.0889
49055SOL    HW165157   2.876  11.679   5.685 -1.8830  0.5045 -2.2529
49055SOL    HW265158   2.777  11.655   5.796  0.4328 -0.2274 -0.2697
49056SOL     OW65159   7.326   8.945   7.429 -0.0787 -0.3585  0.0065
49056SOL    HW165160   7.408   8.981   7.396  0.3189 -1.5071 -0.3093
49056SOL    HW265161   7.350   8.903   7.512 -0.3285 -0.8102 -0.1510
49057SOL     OW65162   8.749  12.887   1.569  0.1386  0.2118  0.2737
49057SOL    HW165163   8.657  12.869   1.587  0.4615 -0.5021  1.3036
49057SOL    HW265164   8.795  12.811   1.604  1.2739  1.4418  1.5896
49058SOL     OW65165   2.086   1.252   7.666  0.3012 -0.2580 -0.3311
49058SOL    HW165166   2.162   1.286   7.619 -1.3157  1.1825 -2.0560
49058SOL    HW265167   2.062   1.172   7.618 -0.8030  0.7219 -1.4839
49059SOL     OW65168  12.646  12.056   2.332 -0.5095  0.3795 -0.3409
49059SOL    HW165169  12.659  12.060   2.427 -0.0499 -1.8328 -0.2502
49059SOL    HW265170  12.666  12.144   2.301 -1.8015  1.4694  1.7228
49060SOL     OW65171  11.626  11.603   1.569  0.6430 -0.4968  0.4481
49060SOL    HW165172  11.562  11.661   1.528  0.3605 -0.6538  0.6658
49060SOL    HW265173  11.695  11.662   1.601  1.0796 -0.4089 -0.6156
49061SOL     OW65174   5.102  14.037   7.704  0.5536 -0.3119  0.3380
49061SOL    HW165175   5.115  14.091   7.781 -0.6587 -0.9177  1.0087
49061SOL    HW265176   5.119  13.947   7.734 -2.0521 -0.8145  0.5548
49062SOL     OW65177   0.007   4.129   0.902  0.3848 -0.3160  0.2039
49062SOL    HW165178  -0.009   4.215   0.863  1.8180  0.0233  0.3024
49062SOL    HW265179  -0.057   4.071   0.861  1.2443  0.2029 -2.0314
49063SOL     OW65180  11.644   4.123   7.418 -0.1391 -0.7783 -0.2895
49063SOL    HW165181  11.646   4.218   7.426  0.5163 -0.7506 -0.6909
49063SOL    HW265182  11.657   4.091   7.507  1.0325 -0.4851 -0.3385
49064SOL     OW65183  13.429   4.209   3.787 -0.4175 -0.3497  0.2262
49064SOL    HW165184  13.336   4.204   3.809 -0.3624 -0.0641  0.5460
49064SOL    HW265185  13.467   4.130   3.825 -0.6399 -0.8117 -0.4940
49065SOL     OW65186   0.857  13.447   6.817 -0.1160  0.4091 -0.5214
49065SOL    HW165187   0.863  13.500   6.896 -0.2368 -0.0813 -0.1795
49065SOL    HW265188   0.765  13.423   6.811  0.0101 -0.1031 -0.4419
49066SOL     OW65189   6.856  13.604   5.930  0.5211 -0.8439  0.4728
49066SOL    HW165190   6.852  13.700   5.929  0.6423 -0.8391 -0.2796
49066SOL    HW265191   6.900  13.583   6.012  0.0285 -0.2780  0.8981
49067SOL     OW65192   2.902  10.701   8.342  0.2010  0.3881 -0.3082
49067SOL    HW165193   2.925  10.730   8.431 -1.6992 -0.8077  0.6334
49067SOL    HW265194   2.928  10.609   8.339 -2.2594 -0.3936  0.0627
49068SOL     OW65195  11.234   1.108   5.434 -0.6876  0.1216  0.0504
49068SOL    HW165196  11.326   1.134   5.435 -0.2920 -1.2011  0.5405
49068SOL    HW265197  11.186   1.191   5.435  0.4814  0.8434 -0.3838
49069SOL     OW65198  11.483   9.971   9.462 -0.5737  0.6751 -0.1838
49069SOL    HW165199  11.393   9.992   9.488 -0.6354 -0.2614  0.3868
49069SOL    HW265200  11.473   9.919   9.382 -0.4826  1.4592 -0.7207
49070SOL     OW65201   6.516   5.434   9.536  0.2415 -0.3066  0.4613
49070SOL    HW165202   6.526   5.341   9.552  0.9216 -0.5882 -1.4031
49070SOL    HW265203   6.602   5.472   9.554  0.6220 -0.4201 -0.9798
49071SOL     OW65204   5.307   7.917  10.145 -0.2479 -0.2312  0.2828
49071SOL    HW165205   5.295   7.959  10.060  0.1908 -0.0629  0.3050
49071SOL    HW265206   5.338   7.829  10.124  1.6458  0.4072  0.3081
49072SOL     OW65207   1.703   5.430   1.302  0.4594  0.0459 -0.5047
49072SOL    HW165208   1.657   5.417   1.219 -0.8402  2.5425 -0.2759
49072SOL    HW265209   1.649   5.385   1.366 -1.1018  1.8964 -0.4297
49073SOL     OW65210  14.092   1.863   8.650 -0.6738  0.7654 -0.2443
49073SOL    HW165211  14.173   1.839   8.605 -0.1406  1.6282  0.2235
49073SOL    HW265212  14.069   1.786   8.702 -0.1708  0.5047 -0.4088
49074SOL     OW65213   4.468  14.150   0.070 -0.3874  0.5812 -0.3574
49074SOL    HW165214   4.398  14.149   0.004  0.4326 -1.1087 -1.2636
49074SOL    HW265215   4.467  14.062   0.107  2.8158 -0.4105 -2.1978
49075SOL     OW65216  13.063   9.505   6.825 -0.2636 -0.0196  0.2722
49075SOL    HW165217  12.995   9.547   6.772 -0.1494  0.6457  0.6371
49075SOL    HW265218  13.039   9.413   6.827 -0.7584  0.0964 -0.1945
49076SOL     OW65219  12.935   4.606   4.807 -0.1489  0.5154  0.1794
49076SOL    HW165220  12.923   4.628   4.899 -0.4657  0.2531  0.2039
49076SOL    HW265221  13.019   4.646   4.783 -0.0095  0.4866  0.6116
49077SOL     OW65222  10.333  11.386  11.890  0.1658 -0.1388  0.3057
49077SOL    HW165223  10.370  11.413  11.806  1.7645  3.6156  1.9901
49077SOL    HW265224  10.279  11.460  11.917  1.4878 -0.2299  3.5534
49078SOL     OW65225  11.779  11.519   2.002  0.0856 -0.1439 -0.2092
49078SOL    HW165226  11.721  11.488   1.933 -0.7243 -1.3861  0.9615
49078SOL    HW265227  11.788  11.444   2.061  1.0042  0.7633  0.8643
49079SOL     OW65228   8.653   6.704   5.292 -0.4350 -0.2193 -0.4821
49079SOL    HW165229   8.694   6.634   5.241  0.1224 -0.3247  0.0911
49079SOL    HW265230   8.590   6.659   5.349 -1.3493 -0.0588 -1.3515
49080SOL     OW65231   6.962  13.924  11.984 -0.4324 -0.5260 -0.4582
49080SOL    HW165232   7.039  13.869  11.996 -0.7839 -0.7040  1.4241
49080SOL    HW265233   6.901  13.870  11.935  0.0323 -0.9839 -0.5462
49081SOL     OW65234   1.974   6.396   0.710  0.4258  0.0396  0.1672
49081SOL    HW165235   1.888   6.419   0.675  0.2285 -0.1315  0.5388
49081SOL    HW265236   2.024   6.369   0.633  0.4870  1.1402 -0.1947
49082SOL     OW65237   7.257  13.465   2.685 -0.5686 -0.0446 -0.1495
49082SOL    HW165238   7.165  13.492   2.678 -0.7103 -0.7864 -5.5713
49082SOL    HW265239   7.303  13.543   2.715 -2.6279  1.3037 -0.2836
49083SOL     OW65240   4.423   3.754  12.190 -0.2711 -0.4182 -0.0822
49083SOL    HW165241   4.485   3.736  12.261  0.5839 -1.6552 -1.0971
49083SOL    HW265242   4.475   3.802  12.125 -0.8721  0.1526 -0.1418
49084SOL     OW65243   4.683   1.014   5.611  0.1242 -0.2337  0.4955
49084SOL    HW165244   4.682   1.048   5.522 -0.0722 -0.9617  0.2125
49084SOL    HW265245   4.642   1.082   5.664 -0.1709  0.0069 -0.0399
49085SOL     OW65246   4.294   8.845   5.372  0.1094  0.4528  0.4099
49085SOL    HW165247   4.251   8.925   5.342  1.2228  1.4478  1.3459
49085SOL    HW265248   4.249   8.823   5.453  0.6234  0.8667  0.8139
49086SOL     OW65249  13.699   7.010  12.043 -0.0978  0.2355  0.1963
49086SOL    HW165250  13.664   7.049  12.123  0.3784  2.2644 -0.5149
49086SOL    HW265251  13.794   7.013  12.054 -0.0447 -0.1879 -0.1170
49087SOL     OW65252   5.355  12.009  13.882  0.5821 -0.0234 -0.1066
49087SOL    HW165253   5.417  12.072  13.844  2.0512 -0.6049  1.1905
49087SOL    HW265254   5.411  11.948  13.930 -0.9132 -1.5401 -0.2330
49088SOL     OW65255   1.679  13.016   7.964 -0.1547  0.4518 -0.2425
49088SOL    HW165256   1.611  13.010   8.031  1.3854  0.8458  1.4067
49088SOL    HW265257   1.720  12.930   7.963 -0.5799  0.2428 -1.1714
49089SOL     OW65258   2.374   0.071  11.410 -0.3207  0.3771 -1.1110
49089SOL    HW165259   2.310   0.087  11.341 -0.9138  0.3284 -0.5890
49089SOL    HW265260   2.419   0.155  11.422 -1.6554  1.0003 -0.1404
49090SOL     OW65261  10.022   2.752  10.119  0.0699  0.1977 -0.1612
49090SOL    HW165262  10.117   2.739  10.124  0.1337 -0.4282 -2.1565
49090SOL    HW265263   9.993   2.692  10.051 -1.7352  0.5808  0.2199
49091SOL     OW65264   5.075   3.846  11.611  0.6541 -0.3044  0.1640
49091SOL    HW165265   5.004   3.808  11.662 -0.8529  1.0652 -0.8284
49091SOL    HW265266   5.041   3.930  11.581  2.2988 -0.0958 -1.2715
49092SOL     OW65267   9.703  10.703  10.280  0.2321 -0.0327 -0.2049
49092SOL    HW165268   9.738  10.624  10.238  0.3565  0.3164 -0.7635
49092SOL    HW265269   9.766  10.723  10.350 -0.9791 -1.7378  1.4828
49093SOL     OW65270   0.586   0.434   0.895 -0.0844  0.3541 -0.0989
49093SOL    HW165271   0.509   0.403   0.846  1.0227 -1.2249 -0.9401
49093SOL    HW265272   0.573   0.400   0.983  0.0470 -0.6905 -0.4617
49094SOL     OW65273   4.053  12.366  11.837 -0.2356  0.1770 -0.1318
49094SOL    HW165274   4.134  12.328  11.804 -1.1004 -1.1708 -0.7810
49094SOL    HW265275   4.026  12.309  11.908  0.2610  1.6206  1.2928
49095SOL     OW65276  13.450  10.600  13.755  0.0124 -0.1976 -0.2341
49095SOL    HW165277  13.428  10.643  13.672 -0.5857  0.5148  0.2752
49095SOL    HW265278  13.535  10.636  13.779  0.4397 -0.8165 -0.8025
49096SOL     OW65279   0.534  11.068   5.384  0.0489  0.9821  0.0786
49096SOL    HW165280   0.492  11.134   5.440  0.1262  0.0558  1.2600
49096SOL    HW265281   0.471  10.997   5.378  0.4863  0.6052 -0.1170
49097SOL     OW65282   4.812  12.758  11.116 -0.3598  0.2248 -0.1420
49097SOL    HW165283   4.812  12.699  11.041 -1.6025  1.4802 -1.1838
49097SOL    HW265284   4.723  12.756  11.149 -0.1065  0.5614  0.5993
49098SOL     OW65285   2.341   8.863  12.110  0.1206  0.2341  0.1253
49098SOL    HW165286   2.403   8.792  12.124  1.3765  1.3530  0.4823
49098SOL    HW265287   2.273   8.849  12.176 -0.5195 -1.5006 -0.8296
49099SOL     OW65288   8.915   4.541  11.450 -0.0200 -0.1332 -0.0351
49099SOL    HW165289   8.922   4.508  11.360 -1.6349 -0.1999 -0.1590
49099SOL    HW265290   8.880   4.629  11.440  1.2255  0.4405  0.4755
49100SOL     OW65291   0.103  11.381   0.762  0.1677  0.1854  0.3863
49100SOL    HW165292   0.122  11.341   0.678  3.6995  0.4971  0.8954
49100SOL    HW265293   0.162  11.456   0.767  0.5758 -0.2062  3.3534
49101SOL     OW65294  13.484   8.779  12.162 -0.0466 -0.2909  0.0417
49101SOL    HW165295  13.469   8.685  12.163  1.1019 -0.5037  0.8650
49101SOL    HW265296  13.424   8.814  12.228 -0.1948 -0.5025  0.0185
49102SOL     OW65297   5.140  13.599   7.544  0.3061 -0.3240  0.3894
49102SOL    HW165298   5.092  13.520   7.520  0.6340 -0.4850  0.2607
49102SOL    HW265299   5.073  13.666   7.555  0.1054 -0.3833 -0.4423
49103SOL     OW65300  10.017  11.848   7.736 -0.0148  1.2029  1.1773
49103SOL    HW165301  10.080  11.816   7.672 -0.1393 -0.1196  1.6724
49103SOL    HW265302  10.070  11.885   7.807  0.1902  0.9239  1.1737
49104SOL     OW65303   2.677  13.826   4.063 -0.0792 -0.0406 -0.6499
49104SOL    HW165304   2.757  13.776   4.080 -0.6515 -0.3330  1.3354
49104SOL    HW265305   2.642  13.847   4.149 -1.0964  1.8260 -1.4493
49105SOL     OW65306   7.194  13.536  13.383 -0.6179  0.1319  0.3675
49105SOL    HW165307   7.199  13.482  13.304 -2.0972 -0.2708  0.5283
49105SOL    HW265308   7.249  13.490  13.446  1.3392  0.9404 -0.6464
49106SOL     OW65309   9.015   7.706   7.982 -0.3059 -0.1780 -0.0830
49106SOL    HW165310   9.092   7.649   7.979 -0.9603 -1.3891  2.6534
49106SOL    HW265311   8.957   7.671   7.915  0.8571 -0.2673 -1.0763
49107SOL     OW65312   9.063  13.972   5.156  0.3976 -0.2802 -0.3280
49107SOL    HW165313   9.053  13.898   5.215 -0.4328  0.4585  0.4965
49107SOL    HW265314   9.017  13.945   5.076 -1.1411 -0.1459  0.4693
49108SOL     OW65315   7.603   2.232  11.276  0.7487 -0.6743 -0.4767
49108SOL    HW165316   7.588   2.228  11.181  0.6190  0.6846 -0.5237
49108SOL    HW265317   7.645   2.148  11.296  1.8820 -0.4942 -1.9351
49109SOL     OW65318   7.763   5.599  11.577 -0.9412  0.0705  0.1326
49109SOL    HW165319   7.742   5.682  11.534 -0.0068 -0.7011 -1.9466
49109SOL    HW265320   7.833   5.622  11.639  1.0400  0.5427 -2.1211
49110SOL     OW65321   8.592   6.893   6.699 -0.0445 -0.6344 -0.5287
49110SOL    HW165322   8.552   6.809   6.675 -0.2218 -0.4114 -1.0269
49110SOL    HW265323   8.560   6.954   6.633  2.3866 -0.7614 -1.9398
49111SOL     OW65324   9.370   9.588   9.912  0.4088 -0.2055  0.1952
49111SOL    HW165325   9.427   9.534   9.856 -1.8007 -1.3604 -1.0966
49111SOL    HW265326   9.290   9.535   9.922 -0.2654  1.1176  2.3440
49112SOL     OW65327   1.559   9.819   2.136 -0.2359 -0.4341 -0.2516
49112SOL    HW165328   1.479   9.866   2.160 -0.0244 -0.5776  0.7609
49112SOL    HW265329   1.564   9.746   2.198  0.1143 -1.0662 -0.9934
49113SOL     OW65330   4.857   4.437  11.148  0.1320 -0.1348  0.0276
49113SOL    HW165331   4.859   4.386  11.067 -1.6113 -0.2222 -0.0041
49113SOL    HW265332   4.864   4.528  11.120  1.8492 -0.2512 -0.0186
49114SOL     OW65333   0.159   8.473  12.949 -0.2538  0.2269  0.0564
49114SOL    HW165334   0.079   8.524  12.963  0.0189  0.7433 -0.2185
49114SOL    HW265335   0.134   8.409  12.882 -0.1313  1.1626 -0.9259
49115SOL     OW65336  11.046  12.447  13.265 -0.1071 -0.6582 -0.6396
49115SOL    HW165337  11.121  12.471  13.210 -0.4118 -0.6223 -1.0379
49115SOL    HW265338  10.990  12.524  13.265 -0.9651 -1.2632 -1.7133
49116SOL     OW65339   6.884   0.114  13.425 -0.6242 -0.2162 -0.4087
49116SOL    HW165340   6.861   0.086  13.336  1.5260  1.1113 -1.4783
49116SOL    HW265341   6.970   0.074  13.440 -1.2055 -0.9029  1.3539
49117SOL     OW65342   0.964  13.894   3.884  0.0076  0.0648 -0.1631
49117SOL    HW165343   1.048  13.868   3.848 -0.0985 -1.2769  0.4649
49117SOL    HW265344   0.901  13.836   3.841 -0.7683  1.7992 -1.4549
49118SOL     OW65345  13.227  13.506   2.562 -0.0787  0.0104  0.5843
49118SOL    HW165346  13.150  13.463   2.522  0.3414 -0.0090 -0.2276
49118SOL    HW265347  13.302  13.462   2.522  0.3597  0.7612  0.5695
49119SOL     OW65348   4.762   2.599  10.547  0.4985 -0.2675 -0.4146
49119SOL    HW165349   4.738   2.602  10.454  0.5781  0.7674 -0.4115
49119SOL    HW265350   4.831   2.665  10.556  0.6385 -0.5065  0.3440
49120SOL     OW65351   7.273  11.475   4.517 -0.5419  0.3358 -0.0795
49120SOL    HW165352   7.189  11.472   4.562 -1.5805  2.5696 -1.6854
49120SOL    HW265353   7.257  11.437   4.431  0.4385 -0.3957  0.0441
49121SOL     OW65354  12.703   2.363   6.809  0.1742 -0.0221  0.0105
49121SOL    HW165355  12.678   2.376   6.901  0.0483 -1.1563  0.1585
49121SOL    HW265356  12.786   2.315   6.814  0.8401  1.0414 -0.4806
49122SOL     OW65357   9.719   1.330   1.706 -0.2283 -0.0707 -0.3695
49122SOL    HW165358   9.738   1.312   1.615  0.9984  0.3793 -0.2149
49122SOL    HW265359   9.798   1.305   1.754 -1.4356 -1.9253  0.8026
49123SOL     OW65360   2.565   1.396   0.100  0.1378 -0.0970  0.2657
49123SOL    HW165361   2.646   1.362   0.062 -0.2322  1.7071 -2.4137
49123SOL    HW265362   2.591   1.474   0.148  0.3058 -1.1611  1.9931
49124SOL     OW65363  13.955  11.639   5.198  0.7824  0.0902  0.0191
49124SOL    HW165364  13.874  11.667   5.155  1.1769  1.6431  0.2468
49124SOL    HW265365  14.023  11.695   5.160  1.4858 -0.0449  1.0364
49125SOL     OW65366  13.953   7.349   5.274  0.7255  0.4517 -0.1276
49125SOL    HW165367  13.959   7.354   5.370  0.2970 -1.0088 -0.0065
49125SOL    HW265368  14.036   7.385   5.243  0.6011  1.5788  0.7522
49126SOL     OW65369   7.955   4.899  13.071  0.2579  0.8557  0.3692
49126SOL    HW165370   7.876   4.878  13.021  0.5336 -1.7456  0.8905
49126SOL    HW265371   8.025   4.899  13.007  0.4722 -1.5588  0.5226
49127SOL     OW65372   0.035   4.144   7.465 -0.5707  0.3599  0.5976
49127SOL    HW165373   0.106   4.187   7.418 -0.0937  0.0488  1.0210
49127SOL    HW265374   0.067   4.134   7.554 -0.7386 -0.7022  0.5561
49128SOL     OW65375   8.620   5.194   8.875 -0.6659  0.1115 -0.0517
49128SOL    HW165376   8.524   5.191   8.871 -0.6508 -2.8425 -1.5722
49128SOL    HW265377   8.644   5.117   8.926  0.8815 -0.3896 -1.4392
49129SOL     OW65378   7.265  11.449   7.569  0.1132 -0.2904  0.1083
49129SOL    HW165379   7.249  11.477   7.479 -0.8848 -0.1243  0.3210
49129SOL    HW265380   7.219  11.513   7.623 -0.5856 -1.2269  0.6686
49130SOL     OW65381   7.563   5.434   3.246  0.2897  0.2833 -0.0195
49130SOL    HW165382   7.611   5.511   3.276  0.9676 -0.2152  0.2030
49130SOL    HW265383   7.502   5.468   3.180  2.1398  0.7031 -1.5882
49131SOL     OW65384   1.141   9.667   1.407 -0.2894 -0.0816 -0.2562
49131SOL    HW165385   1.134   9.754   1.368 -0.6803 -0.2941 -0.6809
49131SOL    HW265386   1.132   9.607   1.333  3.0759 -0.4985 -0.4490
49132SOL     OW65387   4.050  13.121  14.063  0.4714  0.4609 -0.6071
49132SOL    HW165388   3.963  13.103  14.027  0.6406 -0.0942 -0.7475
49132SOL    HW265389   4.111  13.078  14.002  0.8283  0.5945 -0.3503
49133SOL     OW65390   6.551   4.193   4.440  0.1698  0.3915 -0.0784
49133SOL    HW165391   6.635   4.225   4.406  0.6516 -0.3554  0.3755
49133SOL    HW265392   6.548   4.227   4.530  0.4365 -0.3567  0.2252
49134SOL     OW65393  12.203   4.548   3.766  0.4230  0.3653 -0.4528
49134SOL    HW165394  12.289   4.515   3.742  0.8773  1.2991 -0.1708
49134SOL    HW265395  12.196   4.633   3.722  0.0359  0.7152  0.2597
49135SOL     OW65396  12.213   1.102   5.647  0.0959  0.2222  0.0108
49135SOL    HW165397  12.213   1.117   5.741  1.3537  0.5076 -0.0071
49135SOL    HW265398  12.176   1.182   5.610 -2.6206 -0.8113  0.3280
49136SOL     OW65399  12.141   3.842   2.206 -0.0913 -0.1091 -0.3160
49136SOL    HW165400  12.091   3.889   2.272  1.3885  0.6955  0.2800
49136SOL    HW265401  12.117   3.750   2.219  1.8024 -0.2828  2.9064
49137SOL     OW65402   9.660  10.051   7.013 -0.7669 -0.4344 -0.0781
49137SOL    HW165403   9.719  10.029   7.085 -0.0045 -0.3885 -0.6824
49137SOL    HW265404   9.590  10.102   7.055  0.5827  1.1294  0.3685
49138SOL     OW65405   0.128   4.462   7.968 -0.1450 -0.3530  0.3557
49138SOL    HW165406   0.162   4.373   7.982 -1.2668 -0.6447  1.4413
49138SOL    HW265407   0.041   4.460   8.008 -0.4733  1.0427 -0.2439
49139SOL     OW65408  10.893   6.207   9.490  0.5040 -0.4158  0.2466
49139SOL    HW165409  10.824   6.210   9.424  0.8161 -0.2383 -0.0770
49139SOL    HW265410  10.900   6.296   9.522  0.7120 -0.3925  0.1408
49140SOL     OW65411   0.121   7.584   1.094  0.0422  0.6098  0.1119
49140SOL    HW165412   0.078   7.524   1.033  0.0402  0.6976  0.0254
49140SOL    HW265413   0.081   7.566   1.179  0.8751 -0.3336  0.3162
49141SOL     OW65414   7.235  13.038  10.989 -0.3380 -0.2611  0.3849
49141SOL    HW165415   7.263  13.060  10.900  0.9265  0.7114  0.9875
49141SOL    HW265416   7.220  13.123  11.031  0.6427 -0.6355  1.5553
49142SOL     OW65417  12.066  13.809  13.076 -0.1806 -0.3351 -0.3040
49142SOL    HW165418  12.112  13.730  13.103  0.0047 -0.3901 -0.7728
49142SOL    HW265419  12.130  13.879  13.084 -0.4936 -0.1451  0.6061
49143SOL     OW65420   2.749  11.937   5.576  0.1780 -0.2370  0.3253
49143SOL    HW165421   2.803  11.899   5.644  0.1539  0.8442  0.9746
49143SOL    HW265422   2.677  11.874   5.563  0.5434 -0.7584  0.8144
49144SOL     OW65423   2.234   0.677   5.938 -0.0630  0.4584  0.3354
49144SOL    HW165424   2.236   0.635   5.852  0.6154  0.8856  0.1395
49144SOL    HW265425   2.141   0.677   5.962 -0.3262  0.8665 -0.6530
49145SOL     OW65426   5.547   1.774   1.146 -0.6710 -0.0978  0.0630
49145SOL    HW165427   5.634   1.750   1.178 -0.7844  1.4882  1.7236
49145SOL    HW265428   5.488   1.711   1.186 -0.3737 -0.8549 -0.6497
49146SOL     OW65429   4.980  10.156   2.340 -0.5859  0.4033  0.1073
49146SOL    HW165430   5.049  10.104   2.382 -0.3286  1.6205  1.2739
49146SOL    HW265431   4.978  10.126   2.249  1.5738  0.4389  0.0150
49147SOL     OW65432   3.780   5.096  12.257  0.0823 -0.4677 -0.5509
49147SOL    HW165433   3.785   5.032  12.328  2.9879  0.9714  0.7504
49147SOL    HW265434   3.856   5.076  12.202  1.0475  1.7241 -0.1208
49148SOL     OW65435  13.227  10.699   6.944  0.3075  0.9417 -0.3010
49148SOL    HW165436  13.199  10.700   7.035  0.5362  0.7043 -0.2274
49148SOL    HW265437  13.145  10.699   6.894 -0.1357 -3.8993 -0.0809
49149SOL     OW65438   1.207  10.371   2.587 -0.3552  0.5107 -0.5781
49149SOL    HW165439   1.181  10.372   2.679  1.0481 -2.1943 -0.0310
49149SOL    HW265440   1.141  10.317   2.544 -0.8971  1.6023 -1.1491
49150SOL     OW65441   9.956   5.481   5.033 -0.2727  0.6302  0.0588
49150SOL    HW165442   9.996   5.502   5.118  0.1979 -1.6392  0.4736
49150SOL    HW265443   9.893   5.411   5.053 -0.0256 -0.0677 -1.4758
49151SOL     OW65444   3.675  12.462   8.865  0.0630  0.4293 -0.0320
49151SOL    HW165445   3.580  12.464   8.857  0.0950 -0.7069 -0.8284
49151SOL    HW265446   3.700  12.374   8.838  1.2742  0.3950  1.0860
49152SOL     OW65447  11.543   2.633   7.628  0.2770  0.5126  0.1676
49152SOL    HW165448  11.465   2.585   7.656  0.0656  1.0081  0.4435
49152SOL    HW265449  11.608   2.617   7.696  0.3759  0.1958 -0.0023
49153SOL     OW65450   2.470   1.826   8.844 -0.1475 -0.2850 -1.1357
49153SOL    HW165451   2.542   1.848   8.903 -1.4883 -1.8659  1.2705
49153SOL    HW265452   2.507   1.764   8.782  0.8591 -0.0699 -0.7688
49154SOL     OW65453   6.065   6.989   4.853 -0.5598  0.0148 -0.2816
49154SOL    HW165454   6.028   6.969   4.766 -1.9325 -1.5251  0.6029
49154SOL    HW265455   6.102   7.076   4.843  0.7500 -0.7343 -2.8618
49155SOL     OW65456   5.568  10.911   2.685  0.4870 -0.4794  0.4585
49155SOL    HW165457   5.522  10.995   2.677 -0.9147 -1.2977 -0.4727
49155SOL    HW265458   5.660  10.932   2.666  0.1938  0.8671  0.4277
49156SOL     OW65459   2.032   4.428  12.456 -1.1967  0.0218  0.1460
49156SOL    HW165460   2.093   4.438  12.529  0.4853  1.7237 -1.4086
49156SOL    HW265461   2.056   4.345  12.415  1.9088  1.7430 -1.9109
49157SOL     OW65462   8.965   9.795  13.560 -0.3894 -0.2979  0.2282
49157SOL    HW165463   8.971   9.704  13.590  1.9175 -0.1980  0.2282
49157SOL    HW265464   9.044   9.809  13.509 -0.6071  1.7754  0.3723
49158SOL     OW65465  13.189   1.185   6.190 -0.6339  0.4659  0.3822
49158SOL    HW165466  13.189   1.155   6.281  2.5581 -0.1421  0.3175
49158SOL    HW265467  13.222   1.275   6.195 -0.6231  0.4945 -0.1556
49159SOL     OW65468   6.253  11.213   6.855 -0.0604  1.1383  0.2090
49159SOL    HW165469   6.238  11.238   6.763 -1.0717  0.2263  0.1125
49159SOL    HW265470   6.343  11.181   6.856 -0.4919 -0.2024 -0.7932
49160SOL     OW65471   9.219   3.869  14.095  0.7502 -0.0822  0.1063
49160SOL    HW165472   9.231   3.904  14.007 -0.7199 -0.4788 -0.2850
49160SOL    HW265473   9.253   3.937  14.153  0.3346  0.8660 -0.7204
49161SOL     OW65474   5.584   2.441   6.243 -0.2776  0.5586  0.4198
49161SOL    HW165475   5.617   2.474   6.327  2.0309  0.2271 -0.2700
49161SOL    HW265476   5.567   2.520   6.192 -0.2768  0.7478  0.7073
49162SOL     OW65477   9.417   1.465  12.507  0.1885  0.0267  1.1003
49162SOL    HW165478   9.497   1.416  12.487  0.7340  1.2996  0.0119
49162SOL    HW265479   9.379   1.485  12.422  0.7268  2.6262  1.3723
49163SOL     OW65480  11.728   1.751   4.077 -0.2691  0.0375 -0.1968
49163SOL    HW165481  11.640   1.762   4.112 -0.2898 -0.8785  0.0413
49163SOL    HW265482  11.786   1.777   4.148 -0.3137 -1.6239  0.4647
49164SOL     OW65483  10.772   7.718  10.714  0.0423 -0.6986  0.3055
49164SOL    HW165484  10.716   7.761  10.779 -1.2804  2.4546 -2.6064
49164SOL    HW265485  10.859   7.753  10.731 -0.0408 -0.8713  1.1188
49165SOL     OW65486   5.344  12.423   0.944 -0.1032 -0.0994  0.3793
49165SOL    HW165487   5.343  12.516   0.969 -1.1345  0.1056 -0.3645
49165SOL    HW265488   5.410  12.384   1.001  2.0770  1.5272 -0.8773
49166SOL     OW65489  12.421   5.953  13.110  0.0120 -0.2274  0.0049
49166SOL    HW165490  12.361   6.010  13.062  0.4640 -0.5823 -1.0184
49166SOL    HW265491  12.498   6.007  13.127  0.8219 -0.7361 -1.7705
49167SOL     OW65492  12.706   4.559   6.528  0.1324  0.0004 -0.2188
49167SOL    HW165493  12.729   4.490   6.466 -0.1511  0.1090 -0.4427
49167SOL    HW265494  12.747   4.638   6.492  0.8208 -0.1234  0.2584
49168SOL     OW65495   7.289  12.981   7.745 -0.0279 -0.3355 -0.6644
49168SOL    HW165496   7.372  12.941   7.770 -0.2460 -0.7173 -0.5367
49168SOL    HW265497   7.222  12.922   7.780 -0.3559  0.1647 -0.4418
49169SOL     OW65498   9.017   7.781   2.901 -0.0222 -0.0160  0.0103
49169SOL    HW165499   8.963   7.702   2.901 -0.2159  0.1156 -0.1913
49169SOL    HW265500   9.071   7.773   2.980 -0.3521 -0.1320  0.2260
49170SOL     OW65501   8.967   4.760  12.552 -0.4625 -0.3044  0.0923
49170SOL    HW165502   9.049   4.728  12.516  1.1985  0.9444  2.4787
49170SOL    HW265503   8.943   4.695  12.618  0.0821  0.6168  1.2362
49171SOL     OW65504   1.237  10.943  11.868  0.0527  0.1215 -0.0794
49171SOL    HW165505   1.232  11.034  11.839  1.6690  0.0483 -0.6859
49171SOL    HW265506   1.163  10.933  11.927 -0.1468  1.8382  0.0194
49172SOL     OW65507  11.542   7.024  12.746  0.0959  0.4276  0.6769
49172SOL    HW165508  11.535   7.024  12.842  0.6793 -1.0359  0.7520
49172SOL    HW265509  11.635   7.017  12.728 -0.1102 -2.3513  0.1087
49173SOL     OW65510   4.581   7.995   4.548  0.0840 -0.1955 -0.1749
49173SOL    HW165511   4.516   7.938   4.590  0.2437  0.3286  0.8178
49173SOL    HW265512   4.665   7.961   4.578  0.2915 -0.7858 -1.3489
49174SOL     OW65513  11.023   2.616   2.296 -0.1457  0.1966  0.1927
49174SOL    HW165514  11.039   2.650   2.208  0.3521  2.4324  1.0793
49174SOL    HW265515  11.051   2.687   2.354 -1.6038 -0.7451  2.1326
49175SOL     OW65516   9.053   0.780   7.034 -0.0511 -0.0018 -0.0741
49175SOL    HW165517   9.123   0.843   7.016 -1.7707  1.8816 -0.6469
49175SOL    HW265518   9.034   0.741   6.949  0.3338 -0.5600  0.0930
49176SOL     OW65519   8.802  13.937   1.908  0.3037  0.1934  0.0000
49176SOL    HW165520   8.751  13.857   1.918 -0.1375  0.2285 -1.6342
49176SOL    HW265521   8.861  13.937   1.983 -0.4602 -1.0776  0.6409
49177SOL     OW65522   0.484  11.473   9.328  0.5860 -0.3229  0.6542
49177SOL    HW165523   0.396  11.458   9.361  0.1513 -1.6439 -1.0033
49177SOL    HW265524   0.541  11.446   9.400 -0.3406 -0.7523  1.2413
49178SOL     OW65525   6.983   8.339   0.662  0.4977 -0.1338 -0.6404
49178SOL    HW165526   7.019   8.325   0.574  1.1228  1.5543 -0.6847
49178SOL    HW265527   6.894   8.302   0.657  0.1674  0.7709 -2.3012
49179SOL     OW65528   9.315   1.909   8.958  0.3706 -0.5705 -0.1163
49179SOL    HW165529   9.250   1.862   9.010 -0.8996  0.6406 -0.5740
49179SOL    HW265530   9.328   1.992   9.004  0.8914 -0.4125 -0.5385
49180SOL     OW65531   0.250   3.304   9.892 -0.3074 -0.0359  0.0183
49180SOL    HW165532   0.319   3.366   9.868  0.5784 -0.9974  0.0078
49180SOL    HW265533   0.170   3.356   9.890  0.3429  0.9895 -0.4749
49181SOL     OW65534  12.449   0.347   0.885  0.8032  0.3684 -0.2671
49181SOL    HW165535  12.481   0.327   0.974  1.2645 -0.3742 -0.5882
49181SOL    HW265536  12.439   0.262   0.844 -3.3072  0.3646  0.3368
49182SOL     OW65537   9.838  11.814   8.612  0.4092 -0.2659  0.2700
49182SOL    HW165538   9.899  11.810   8.538  0.6134  0.2366  0.4054
49182SOL    HW265539   9.852  11.902   8.649 -1.0929  0.2354 -0.2971
49183SOL     OW65540   5.682   3.196  12.006  0.1161  0.2388  0.3667
49183SOL    HW165541   5.644   3.226  12.088 -0.3543  0.0965  0.2061
49183SOL    HW265542   5.630   3.239  11.938  2.0168  2.2900  0.1068
49184SOL     OW65543  13.047   6.329   2.162  0.3297 -0.0360 -0.1602
49184SOL    HW165544  12.981   6.395   2.142  0.4343  0.1690  0.1465
49184SOL    HW265545  13.066   6.287   2.078  0.7443  0.7770 -0.4842
49185SOL     OW65546   2.957  12.985   7.945  0.3194  0.0654 -0.6057
49185SOL    HW165547   2.873  12.947   7.920  0.8577 -0.5176 -1.5958
49185SOL    HW265548   2.970  12.957   8.036 -0.7596  0.5483 -0.2948
49186SOL     OW65549  13.680   6.907   3.831  0.0238  0.5189 -0.2673
49186SOL    HW165550  13.630   6.975   3.878 -1.8758 -0.1854 -1.1724
49186SOL    HW265551  13.757   6.953   3.799  1.2332  1.1565  3.0789
49187SOL     OW65552   4.256  11.385   1.792  0.4581  0.0539  0.2055
49187SOL    HW165553   4.302  11.466   1.774  2.8185 -1.5664 -1.6770
49187SOL    HW265554   4.182  11.385   1.731  0.5252  0.7148  0.1219
49188SOL     OW65555   5.443   2.888  13.448 -0.5290 -0.2459 -0.0445
49188SOL    HW165556   5.519   2.938  13.418  0.6798 -1.0721  1.4974
49188SOL    HW265557   5.461   2.799  13.418 -2.6229  0.1205 -2.7013
49189SOL     OW65558   9.927   5.959  12.069 -0.1959 -0.2150 -0.2916
49189SOL    HW165559  10.010   5.921  12.043 -0.1979 -0.3223 -0.1430
49189SOL    HW265560   9.930   5.959  12.165  0.3569  1.3415 -0.2778
49190SOL     OW65561   2.249   2.379   1.713 -0.3937  0.6142  0.2843
49190SOL    HW165562   2.219   2.315   1.649 -0.8872  1.3534 -0.2356
49190SOL    HW265563   2.185   2.450   1.709  0.0168  1.0447  1.0094
49191SOL     OW65564  11.636   6.850  10.590  0.0098  0.1575  0.5071
49191SOL    HW165565  11.724   6.819  10.612 -0.0885  0.3237  1.1632
49191SOL    HW265566  11.583   6.829  10.667 -0.7959 -0.9891 -0.3294
49192SOL     OW65567   5.392   4.116   8.623 -0.2491  0.6861 -0.2314
49192SOL    HW165568   5.339   4.092   8.547  0.6178 -0.6385 -0.4390
49192SOL    HW265569   5.372   4.050   8.688  2.1984 -0.7288 -0.8185
49193SOL     OW65570  10.842   3.655   1.276  0.4451  0.0997  0.3296
49193SOL    HW165571  10.777   3.686   1.214  1.9715  0.0680 -1.3602
49193SOL    HW265572  10.926   3.683   1.239  1.5905 -2.1788  1.0207
49194SOL     OW65573   7.491  10.495   6.291  0.3779 -0.7069 -0.2120
49194SOL    HW165574   7.471  10.443   6.213 -2.1271 -1.5680  0.8930
49194SOL    HW265575   7.412  10.545   6.307  1.4334  0.6826  0.8817
49195SOL     OW65576   7.027  12.237   5.657  0.5798  0.0717  0.0400
49195SOL    HW165577   6.969  12.163   5.674  1.2020 -0.1937  1.1374
49195SOL    HW265578   7.109  12.197   5.629  0.2835  0.4394 -1.4292
49196SOL     OW65579   8.383   8.138  11.431 -0.1946 -0.1318 -0.3709
49196SOL    HW165580   8.395   8.093  11.515  2.7701  0.4853 -0.3467
49196SOL    HW265581   8.390   8.231  11.452 -1.3191  0.1332 -1.0827
49197SOL     OW65582  10.434   2.007   3.984 -0.3646  0.2096 -0.2077
49197SOL    HW165583  10.481   1.991   3.902 -0.3271 -2.1914  0.2050
49197SOL    HW265584  10.490   2.067   4.033  1.1288 -0.7297 -0.7110
49198SOL     OW65585  12.977  12.781   0.636  0.5876 -0.2168  0.0160
49198SOL    HW165586  13.058  12.738   0.665  2.1874  1.5323 -1.5847
49198SOL    HW265587  12.999  12.817   0.550 -1.3140  1.9503  0.3538
49199SOL     OW65588  11.086   3.789  11.705 -0.1470 -0.3916 -0.2555
49199SOL    HW165589  11.102   3.758  11.794 -0.5429 -0.2674 -0.1371
49199SOL    HW265590  11.160   3.757  11.654  2.4979  3.1526  0.9563
49200SOL     OW65591  10.151   3.239   1.524  0.1451  0.2598  0.2090
49200SOL    HW165592  10.241   3.271   1.535  0.5027 -0.8013  0.5816
49200SOL    HW265593  10.107   3.306   1.472  1.0292  1.0128  0.4097
49201SOL     OW65594   8.835   6.928  13.654  0.2652  0.6466  0.4203
49201SOL    HW165595   8.793   6.885  13.728  2.0047 -2.3327 -0.1512
49201SOL    HW265596   8.782   6.905  13.578 -0.3752  1.9898  0.4287
49202SOL     OW65597   5.710   4.512   0.153  0.0816  0.1624  0.4228
49202SOL    HW165598   5.707   4.607   0.144  0.2705  0.1573  0.3084
49202SOL    HW265599   5.790   4.486   0.109 -0.2960 -0.1136 -0.1041
49203SOL     OW65600   9.789   8.047   0.864  0.2123 -0.0526  0.3943
49203SOL    HW165601   9.735   8.062   0.786  0.4262  0.4728  0.3458
49203SOL    HW265602   9.761   7.961   0.896  0.9358 -0.8097 -0.9173
49204SOL     OW65603  10.860  12.841  10.222 -0.5159 -0.4770 -0.1198
49204SOL    HW165604  10.776  12.802  10.200 -1.1511  0.3769  0.6799
49204SOL    HW265605  10.843  12.935  10.223  0.8529 -0.1832 -1.5287
49205SOL     OW65606   9.923   3.135   7.492  0.0995  0.1931 -0.5612
49205SOL    HW165607   9.921   3.224   7.528 -0.0277 -0.5067  1.2761
49205SOL    HW265608  10.012   3.105   7.506 -0.6314 -1.0992  1.9324
49206SOL     OW65609  12.304   9.718   4.281  0.4165 -0.5061 -0.2571
49206SOL    HW165610  12.349   9.781   4.336 -0.4506  0.4038 -0.5559
49206SOL    HW265611  12.322   9.746   4.191  0.2895 -0.8814 -0.4048
49207SOL     OW65612   4.825   8.285   6.837  0.3175 -0.0981 -0.4248
49207SOL    HW165613   4.868   8.273   6.922  0.8174  0.9229 -0.5196
49207SOL    HW265614   4.734   8.261   6.853  0.5162 -0.4397  0.2587
49208SOL     OW65615  11.010   5.696   3.056  0.4356  0.2105  0.6753
49208SOL    HW165616  11.057   5.708   3.139  1.1180  0.2000  0.3040
49208SOL    HW265617  10.938   5.758   3.060 -1.7805 -2.2393  2.8254
49209SOL     OW65618   9.608   6.047   2.037 -0.0453  0.1408 -0.0655
49209SOL    HW165619   9.592   5.957   2.009  1.3504  0.0043 -0.5196
49209SOL    HW265620   9.569   6.100   1.968 -0.4663 -0.1180 -0.0331
49210SOL     OW65621   5.700   9.910  10.959 -0.7302 -0.7703 -0.3881
49210SOL    HW165622   5.767   9.855  11.000 -1.4524 -1.3760  0.0127
49210SOL    HW265623   5.655   9.953  11.032  2.8985  4.3374 -0.6802
49211SOL     OW65624   6.825   9.951  10.983 -0.0157  0.1846 -0.1770
49211SOL    HW165625   6.730   9.950  10.966  0.0271  0.2242 -0.4205
49211SOL    HW265626   6.859  10.021  10.926 -0.0343  1.1557  0.9780
49212SOL     OW65627   7.347   4.734   5.933  0.0360  0.1045 -0.1038
49212SOL    HW165628   7.427   4.685   5.954 -0.3699 -0.9558 -0.9181
49212SOL    HW265629   7.278   4.667   5.930 -0.4856  0.6585 -1.5439
49213SOL     OW65630   5.642   2.456   0.965  0.4866  0.2784 -0.3266
49213SOL    HW165631   5.642   2.372   1.010  3.7011  0.7635  0.8343
49213SOL    HW265632   5.569   2.504   1.005 -0.2245 -1.2593  0.3152
49214SOL     OW65633   2.668   4.945  13.391  0.3685 -0.0935 -0.2440
49214SOL    HW165634   2.708   4.947  13.304  0.6384 -3.4205 -0.3064
49214SOL    HW265635   2.735   4.980  13.450  1.0008  0.1338 -1.0798
49215SOL     OW65636   5.751  13.302   5.577 -0.1649  0.4316 -0.2333
49215SOL    HW165637   5.799  13.272   5.654 -0.0108  0.0940 -0.4583
49215SOL    HW265638   5.697  13.227   5.553 -0.4606  0.6507 -0.2590
49216SOL     OW65639  11.197  13.332   0.159  0.8037 -0.1090  0.0870
49216SOL    HW165640  11.234  13.259   0.209 -1.1540 -0.5511  0.9953
49216SOL    HW265641  11.226  13.410   0.206  1.2050 -0.3884  0.3140
49217SOL     OW65642   6.189  11.824  12.209  0.0586 -0.1513 -0.6076
49217SOL    HW165643   6.258  11.757  12.212  1.2066  1.0028 -0.0199
49217SOL    HW265644   6.108  11.775  12.205  0.8860 -1.5779 -0.6468
49218SOL     OW65645   4.595   4.225   7.546  0.4894 -0.3212 -0.0353
49218SOL    HW165646   4.657   4.180   7.488 -0.6621 -0.1872 -1.4231
49218SOL    HW265647   4.528   4.160   7.566  0.6334 -0.2292  0.8091
49219SOL     OW65648  10.176  10.491   1.492  0.2774  0.3288  0.3784
49219SOL    HW165649  10.245  10.424   1.490 -0.9921 -1.0611  1.0528
49219SOL    HW265650  10.183  10.536   1.408  1.4694 -0.3419  0.1085
49220SOL     OW65651   6.169   2.212   7.707 -0.1471  0.0293  0.4124
49220SOL    HW165652   6.096   2.189   7.650 -1.1166  2.3446  0.6127
49220SOL    HW265653   6.145   2.177   7.792 -0.6041  0.0118  0.2790
49221SOL     OW65654  12.299   1.459   6.602 -0.2754  0.7851 -0.4303
49221SOL    HW165655  12.323   1.467   6.510  4.0631  1.4514  0.5221
49221SOL    HW265656  12.296   1.549   6.635 -2.1147  0.5784  0.0806
49222SOL     OW65657   3.332  10.050   3.407 -0.1088  0.0134  0.1320
49222SOL    HW165658   3.315  10.125   3.465 -0.1139 -0.3345  0.5893
49222SOL    HW265659   3.245  10.017   3.385 -0.1119  0.2917 -0.2652
49223SOL     OW65660   5.934  10.060   3.579  0.3456 -0.0736 -0.1009
49223SOL    HW165661   5.952  10.145   3.540 -0.6721 -0.4210 -1.4501
49223SOL    HW265662   5.959  10.068   3.670  0.5006  1.5911 -0.2713
49224SOL     OW65663   0.614   9.428  12.479 -0.7325 -0.1686 -0.7688
49224SOL    HW165664   0.641   9.417  12.388  1.1049  0.5786 -0.3440
49224SOL    HW265665   0.628   9.342  12.518 -2.0437 -0.6475 -1.2729
49225SOL     OW65666   4.806   9.076   0.376  0.1122  0.1486  0.3853
49225SOL    HW165667   4.832   9.026   0.299  0.2527 -0.8141  1.0357
49225SOL    HW265668   4.817   9.167   0.350 -0.6333 -0.1286 -0.9998
49226SOL     OW65669   2.574  12.552   4.778 -0.1838 -0.4641  0.3390
49226SOL    HW165670   2.630  12.477   4.757  0.8034  0.6965 -1.3766
49226SOL    HW265671   2.566  12.550   4.874  2.6496 -0.8113  0.6485
49227SOL     OW65672   2.339   3.703  11.859  0.8366 -0.3395 -0.0532
49227SOL    HW165673   2.422   3.658  11.870 -0.3772 -2.6749  0.2353
49227SOL    HW265674   2.347   3.747  11.774  2.1021 -1.1868 -0.4026
49228SOL     OW65675   1.798  12.264   3.155  0.4013  0.0758 -0.0438
49228SOL    HW165676   1.710  12.236   3.131  0.5406  1.4386 -2.5192
49228SOL    HW265677   1.849  12.252   3.075  2.6478 -1.2052  1.4970
49229SOL     OW65678   3.384  12.864   7.918 -0.1306  0.1809  0.4961
49229SOL    HW165679   3.325  12.899   7.852  0.3957 -1.0347 -0.6511
49229SOL    HW265680   3.421  12.942   7.961 -0.3287  0.9936 -0.7695
49230SOL     OW65681   2.384   3.763  11.597  0.4092 -0.3552 -0.3730
49230SOL    HW165682   2.355   3.854  11.602  0.9702 -0.1145 -1.2631
49230SOL    HW265683   2.450   3.762  11.528 -0.6471 -1.6962 -1.4504
49231SOL     OW65684   8.985  12.847   2.644 -0.1480 -0.7500  0.1561
49231SOL    HW165685   9.001  12.941   2.637 -1.9401 -0.5018 -1.7813
49231SOL    HW265686   8.909  12.840   2.703 -0.3176 -0.9348 -0.0812
49232SOL     OW65687   6.061  12.063   7.285 -0.0408  0.0939 -0.7009
49232SOL    HW165688   6.081  11.999   7.353  3.4562  0.0886 -1.5455
49232SOL    HW265689   6.012  12.014   7.219 -0.6241 -0.7327  0.3258
49233SOL     OW65690   3.097   6.667  10.286 -0.0146  0.5135  0.4335
49233SOL    HW165691   3.184   6.671  10.247 -0.5705  0.2781 -0.9248
49233SOL    HW265692   3.052   6.598  10.237 -0.3005 -0.8824  2.5690
49234SOL     OW65693   5.677   9.278   1.596  0.2176  0.7639 -0.0249
49234SOL    HW165694   5.607   9.247   1.538  0.0009  0.9820  0.1156
49234SOL    HW265695   5.747   9.214   1.586 -0.9724 -0.9557  1.7775
49235SOL     OW65696  10.641   6.792   4.536 -0.1727 -0.2178 -0.1085
49235SOL    HW165697  10.674   6.841   4.612  1.6535 -0.4691 -0.7121
49235SOL    HW265698  10.552   6.827   4.523 -0.3029  0.2734  1.7388
49236SOL     OW65699   7.757   3.354   6.162 -0.2582 -0.3443 -0.1147
49236SOL    HW165700   7.772   3.443   6.131  0.6456 -0.2243  0.6412
49236SOL    HW265701   7.663   3.352   6.182 -0.2593  0.4756  0.0081
49237SOL     OW65702   3.099   6.948  12.653  0.5537 -0.1221  0.3849
49237SOL    HW165703   3.012   6.960  12.614  0.5541 -0.0411  0.4087
49237SOL    HW265704   3.087   6.969  12.745  0.3154 -1.3396  0.6462
49238SOL     OW65705   4.489   7.359   0.760 -0.0830 -0.2607 -0.6657
49238SOL    HW165706   4.528   7.311   0.687  0.6161 -0.5306 -0.1329
49238SOL    HW265707   4.552   7.428   0.780 -0.0966 -0.3954 -0.1181
49239SOL     OW65708   6.594   2.318  10.865 -0.3942 -0.0578 -0.0136
49239SOL    HW165709   6.542   2.327  10.945 -0.9398 -1.2928 -0.2040
49239SOL    HW265710   6.534   2.276  10.803  0.3969 -0.1898 -0.6939
49240SOL     OW65711   2.210  10.392   6.863  0.4560  0.2930  0.1495
49240SOL    HW165712   2.173  10.475   6.892 -2.1592 -0.7585  0.0833
49240SOL    HW265713   2.134  10.339   6.837  2.0047 -2.1498  0.2584
49241SOL     OW65714   9.864   9.972   4.284  0.3237 -0.6145  0.1047
49241SOL    HW165715   9.842   9.949   4.194  0.3659  2.5005 -0.8276
49241SOL    HW265716   9.956   9.947   4.293  0.7206  0.2360 -1.2299
49242SOL     OW65717  10.591   0.422   0.939 -0.7859 -0.0526 -0.3598
49242SOL    HW165718  10.528   0.492   0.957 -0.7324 -0.2956  0.8145
49242SOL    HW265719  10.667   0.443   0.994 -0.2554 -0.3552 -0.9555
49243SOL     OW65720  13.531   4.057   0.312  0.1417  0.5874 -0.5828
49243SOL    HW165721  13.599   4.043   0.378  0.4479  2.6800 -0.3897
49243SOL    HW265722  13.558   4.137   0.266 -1.9721  1.2480 -0.7717
49244SOL     OW65723   0.835  10.628  13.776  0.2224  0.0348 -0.0613
49244SOL    HW165724   0.820  10.629  13.681 -0.6051 -0.5375  0.0533
49244SOL    HW265725   0.916  10.676  13.788  0.7879 -0.6113 -1.1485
49245SOL     OW65726  13.133  12.763   8.280  0.9650  0.3322 -0.4267
49245SOL    HW165727  13.162  12.824   8.347  0.8050  0.1268 -0.1675
49245SOL    HW265728  13.194  12.689   8.286  0.1194 -0.3242  0.4525
49246SOL     OW65729   3.553   5.269   6.845 -0.7905 -0.3155 -0.0756
49246SOL    HW165730   3.635   5.281   6.796 -0.7458 -1.3357 -0.2770
49246SOL    HW265731   3.489   5.322   6.798  0.0776  1.8917  1.0498
49247SOL     OW65732   3.198   6.359   8.095  0.1913 -0.9267  0.4779
49247SOL    HW165733   3.111   6.329   8.066  0.5923 -2.5676  0.8862
49247SOL    HW265734   3.211   6.316   8.179  1.2082 -0.2967  0.6501
49248SOL     OW65735  13.560   9.552   4.581  0.5452  0.5421 -0.2172
49248SOL    HW165736  13.641   9.588   4.544 -1.1289  0.6699 -4.3034
49248SOL    HW265737  13.569   9.458   4.569 -0.1421  0.6066 -1.3368
49249SOL     OW65738   6.777   8.270  12.330 -1.0316  0.4181 -0.5993
49249SOL    HW165739   6.702   8.303  12.279 -0.0283  0.7575 -1.9215
49249SOL    HW265740   6.798   8.342  12.389 -1.7289  0.3234 -0.2166
49250SOL     OW65741   8.332  12.780   2.793 -0.2295 -0.4197  0.5827
49250SOL    HW165742   8.349  12.847   2.727 -1.2734 -0.6988  0.0030
49250SOL    HW265743   8.326  12.698   2.743  0.5141 -0.8735  1.2163
49251SOL     OW65744  14.074   1.452   4.252 -0.1519  0.3005  0.0392
49251SOL    HW165745  14.000   1.467   4.194 -0.2440  1.7709  0.4875
49251SOL    HW265746  14.053   1.501   4.332  0.8848 -0.0044  0.5276
49252SOL     OW65747  12.725   6.563  12.388  0.6108 -0.5081 -0.1061
49252SOL    HW165748  12.643   6.551  12.339  0.3394 -0.6044  0.3702
49252SOL    HW265749  12.698   6.574  12.479  1.2074 -1.7681  0.2385
49253SOL     OW65750   7.220   4.246  13.788  0.0757 -0.2982 -0.5117
49253SOL    HW165751   7.153   4.182  13.816 -1.0605  0.8439 -0.5475
49253SOL    HW265752   7.210   4.319  13.849 -0.4019  0.9516 -2.0167
49254SOL     OW65753  13.794   1.336   1.071 -0.4027 -0.3548 -0.4592
49254SOL    HW165754  13.778   1.350   0.978 -3.0807 -1.6769 -0.3161
49254SOL    HW265755  13.832   1.248   1.076 -0.5407 -0.4075 -0.3075
49255SOL     OW65756  10.603   0.795   0.146  0.2107 -0.5561 -1.1172
49255SOL    HW165757  10.659   0.841   0.083 -0.0057  0.2670 -0.7295
49255SOL    HW265758  10.523   0.775   0.098 -0.5562  1.3612 -0.7682
49256SOL     OW65759   8.474   5.500  11.958  0.0944  0.4128 -0.1063
49256SOL    HW165760   8.437   5.527  12.042  0.9315  0.9814  0.0917
49256SOL    HW265761   8.427   5.421  11.935 -2.6612  2.1039 -0.7889
49257SOL     OW65762   8.536  10.869   3.800 -0.1650 -0.2080  0.4117
49257SOL    HW165763   8.566  10.825   3.879  0.9962 -2.0616 -0.9740
49257SOL    HW265764   8.445  10.840   3.790 -0.7949  1.1697  1.7712
49258SOL     OW65765   8.749   9.880   2.037 -0.0649  0.5506  0.6052
49258SOL    HW165766   8.822   9.819   2.024  0.1183  0.6945  0.9659
49258SOL    HW265767   8.677   9.841   1.986  0.8200  1.4393 -1.4457
49259SOL     OW65768   9.428  11.095   7.972  0.2099  0.0418 -0.4603
49259SOL    HW165769   9.482  11.026   7.934  0.7630  0.8434 -1.1568
49259SOL    HW265770   9.362  11.113   7.905 -0.5992 -0.5366  0.1564
49260SOL     OW65771   6.721  13.381   1.572 -0.5826  0.2918  0.3787
49260SOL    HW165772   6.656  13.405   1.506 -1.6331  1.6006  1.8315
49260SOL    HW265773   6.795  13.439   1.555 -1.1163  1.0994  0.7243
49261SOL     OW65774  12.329   8.193   9.920  0.4149 -0.0140  0.1533
49261SOL    HW165775  12.340   8.154   9.833 -0.4480  2.8250 -1.3551
49261SOL    HW265776  12.240   8.169   9.946 -0.2632  1.2230 -0.9449
49262SOL     OW65777  11.827   3.231   7.495 -0.3802  0.0555  0.7664
49262SOL    HW165778  11.889   3.258   7.563  0.2862  0.8078 -0.1269
49262SOL    HW265779  11.873   3.162   7.447 -0.7561 -0.3050  0.9229
49263SOL     OW65780   7.877  11.925   7.524 -0.1002 -0.6381  0.0230
49263SOL    HW165781   7.899  11.985   7.596  0.1302 -0.8481  0.1278
49263SOL    HW265782   7.898  11.838   7.558  2.5157 -0.5858 -1.1880
49264SOL     OW65783   4.209   3.874   7.891 -0.4410 -0.5441 -0.5540
49264SOL    HW165784   4.207   3.783   7.920 -1.0793  0.2985  2.2854
49264SOL    HW265785   4.127   3.886   7.844  0.0968 -1.6486 -1.8591
49265SOL     OW65786   5.128   7.845  10.796 -0.1015 -0.1991  0.1123
49265SOL    HW165787   5.212   7.873  10.760 -1.3056  1.6541 -1.4374
49265SOL    HW265788   5.150   7.810  10.883  2.0835  1.7580  0.4562
49266SOL     OW65789  13.991   0.164   5.151  0.5541 -0.4016  0.3697
49266SOL    HW165790  13.945   0.080   5.146  0.0318 -0.0872 -0.4688
49266SOL    HW265791  14.000   0.181   5.244  1.5596 -1.8591  0.5652
49267SOL     OW65792   1.111   6.847   6.255  0.0440  0.0905 -0.0491
49267SOL    HW165793   1.071   6.776   6.206 -1.1471  0.9741 -0.4023
49267SOL    HW265794   1.177   6.883   6.196 -0.2319  0.0838 -0.3627
49268SOL     OW65795  11.826  10.192  13.374  0.3022 -0.2118 -0.0393
49268SOL    HW165796  11.766  10.118  13.375  0.9910 -0.8310  2.6374
49268SOL    HW265797  11.907  10.158  13.412  1.3338  1.4117 -0.6618
49269SOL     OW65798   9.571  11.006  10.965  0.3305 -0.7597 -0.4791
49269SOL    HW165799   9.481  10.988  10.990  0.5878 -2.0393 -0.3988
49269SOL    HW265800   9.609  10.920  10.946  2.1777 -0.5342  1.7292
49270SOL     OW65801  10.497   2.955   2.155  0.0500 -0.3892  0.0897
49270SOL    HW165802  10.580   2.965   2.202  0.0239 -2.7521  0.7599
49270SOL    HW265803  10.444   3.030   2.183  0.8899 -0.4428  1.9764
49271SOL     OW65804   5.554   3.763   1.664  0.6875 -0.4995  0.5395
49271SOL    HW165805   5.530   3.713   1.586 -1.3511  1.4396 -0.1668
49271SOL    HW265806   5.517   3.712   1.736  0.6292 -1.1666  0.0536
49272SOL     OW65807  13.457  10.576   2.050  0.0269  0.2345  0.4208
49272SOL    HW165808  13.464  10.496   2.102 -1.4256 -0.1419  0.0867
49272SOL    HW265809  13.492  10.645   2.106  0.0553 -0.4393  1.2393
49273SOL     OW65810   5.803   6.662  10.215  0.7577 -0.2269  0.0960
49273SOL    HW165811   5.874   6.724  10.229  0.6992  0.0989 -0.9626
49273SOL    HW265812   5.725   6.708  10.246  0.8303 -0.1000  0.0904
49274SOL     OW65813   6.807   0.400  11.293  0.1613  0.3925 -0.0933
49274SOL    HW165814   6.734   0.461  11.280  0.2993  0.4949 -0.3847
49274SOL    HW265815   6.835   0.415  11.384 -0.8721 -0.4002  0.3827
49275SOL     OW65816  13.033  10.328  12.232 -0.2826 -0.4097 -0.1619
49275SOL    HW165817  13.100  10.314  12.299 -0.4715 -0.3283  0.0438
49275SOL    HW265818  13.033  10.422  12.217 -1.1483 -0.2611  0.6711
49276SOL     OW65819   3.386   1.379   2.477 -0.4026 -0.5222 -0.3283
49276SOL    HW165820   3.325   1.364   2.549  0.5499  1.4762  0.9864
49276SOL    HW265821   3.472   1.384   2.518  0.3110 -0.4496 -1.7535
49277SOL     OW65822   9.603   2.639   5.500 -0.0704  0.1352  0.5347
49277SOL    HW165823   9.670   2.692   5.542 -0.3136  0.6673  0.2781
49277SOL    HW265824   9.523   2.658   5.550  0.0184 -0.6912  0.9966
49278SOL     OW65825   0.441   8.144   6.776  0.3243  0.3743 -0.4577
49278SOL    HW165826   0.448   8.234   6.743  1.2548  0.3677 -0.3065
49278SOL    HW265827   0.409   8.154   6.865 -0.8753  0.4701 -0.8848
49279SOL     OW65828   0.194   0.820   7.775  0.0279  0.5160  0.2296
49279SOL    HW165829   0.258   0.857   7.714 -0.3948  1.5646  0.4129
49279SOL    HW265830   0.202   0.725   7.762  0.6761  0.6797 -0.7048
49280SOL     OW65831   3.210   9.578   6.297 -0.4510 -0.2573  0.2519
49280SOL    HW165832   3.231   9.669   6.319  1.0116 -0.3181 -0.7564
49280SOL    HW265833   3.243   9.566   6.207 -2.0649 -1.3289 -0.2443
49281SOL     OW65834   5.796   4.224  10.972 -0.6541  0.0632  0.1971
49281SOL    HW165835   5.767   4.315  10.978  0.6678  0.5465 -0.3447
49281SOL    HW265836   5.878   4.222  11.022  0.6725 -0.2008 -1.8729
49282SOL     OW65837   8.932   7.970   0.312 -0.4238 -0.2154  0.2979
49282SOL    HW165838   8.854   7.943   0.263 -0.7741  2.3356 -0.7005
49282SOL    HW265839   9.004   7.961   0.250 -0.4326  0.4186  0.1933
49283SOL     OW65840  13.342   2.081   3.001 -0.1806  0.2963  0.4578
49283SOL    HW165841  13.275   2.070   2.933  0.6666  0.1293 -0.3760
49283SOL    HW265842  13.400   2.006   2.989 -0.2111  0.0746  1.6136
49284SOL     OW65843   6.234   7.007  13.552  0.0372  0.2273 -0.2487
49284SOL    HW165844   6.215   6.951  13.477  0.6087 -0.4763  0.1225
49284SOL    HW265845   6.179   6.971  13.622  1.2555 -0.6056  0.3031
49285SOL     OW65846   1.870   0.494  13.277  0.0170 -0.5045 -0.0824
49285SOL    HW165847   1.943   0.525  13.331  0.3645 -2.5404  0.7247
49285SOL    HW265848   1.911   0.437  13.211 -0.8115 -1.7549  0.4432
49286SOL     OW65849   6.920   3.572   1.275 -0.4702 -0.5126  0.7315
49286SOL    HW165850   6.949   3.604   1.190 -2.5743 -0.0492  0.1321
49286SOL    HW265851   6.938   3.645   1.335 -1.2638  0.1483  0.1900
49287SOL     OW65852  12.610  11.487   5.528  0.2374  0.5659 -0.0190
49287SOL    HW165853  12.646  11.404   5.559 -1.3361 -0.3555 -0.5553
49287SOL    HW265854  12.573  11.528   5.607 -0.2260  0.0879  0.0171
49288SOL     OW65855   2.107   2.324   5.475 -0.5924 -0.2709  0.2734
49288SOL    HW165856   2.047   2.397   5.457  1.9015  1.9984  0.4981
49288SOL    HW265857   2.130   2.290   5.388  1.6777  2.3287 -0.2979
49289SOL     OW65858  10.571   0.105  10.562  0.5629 -0.3615 -0.4250
49289SOL    HW165859  10.646   0.055  10.596  0.5140 -0.3980 -0.3712
49289SOL    HW265860  10.519   0.041  10.515 -0.4156 -0.7428  1.0993
49290SOL     OW65861   9.181   9.785  13.242 -0.0905 -0.2290 -0.1986
49290SOL    HW165862   9.229   9.760  13.321  1.0763 -1.9478 -1.4032
49290SOL    HW265863   9.219   9.870  13.217  0.8160 -0.5470  0.0675
49291SOL     OW65864   4.124   8.249   2.823  0.4800 -0.2916 -0.0240
49291SOL    HW165865   4.069   8.234   2.899 -0.5781  1.5304 -0.3646
49291SOL    HW265866   4.199   8.299   2.857  0.7181 -0.6855  0.0382
49292SOL     OW65867   8.419   5.797   1.301  0.1608  0.4619 -0.1448
49292SOL    HW165868   8.514   5.807   1.310 -0.1645  1.7777  2.9299
49292SOL    HW265869   8.391   5.758   1.384 -1.6735 -3.6312 -2.3488
49293SOL     OW65870   3.290   7.862   6.748  0.1197  0.3858  0.2282
49293SOL    HW165871   3.356   7.925   6.776  1.3043 -0.3300 -0.8136
49293SOL    HW265872   3.327   7.822   6.669 -0.7472 -1.3408  0.6439
49294SOL     OW65873  12.998  10.271  11.733  0.0500 -0.0312  0.2484
49294SOL    HW165874  12.909  10.236  11.727  0.1934 -0.3050 -0.3435
49294SOL    HW265875  13.036  10.227  11.809  0.3007 -1.3640 -0.6089
49295SOL     OW65876   3.643   9.210   4.300 -0.6214  0.7675  0.0759
49295SOL    HW165877   3.734   9.240   4.304  0.1606 -0.9726 -2.0937
49295SOL    HW265878   3.619   9.192   4.391  2.2543 -1.4434  0.5332
49296SOL     OW65879   0.247  10.543   8.480  0.4921 -0.1049 -0.3843
49296SOL    HW165880   0.151  10.547   8.479  0.3949 -1.7357 -0.8925
49296SOL    HW265881   0.271  10.550   8.572 -0.2056 -0.8904 -0.1294
49297SOL     OW65882  12.566   2.358   5.000 -0.5783  0.3129  0.8575
49297SOL    HW165883  12.577   2.446   5.035 -3.0420  0.4144  1.6044
49297SOL    HW265884  12.511   2.370   4.922  0.5889 -0.4109 -0.1113
49298SOL     OW65885   7.847   0.275   8.265  0.1247 -0.5915 -0.0514
49298SOL    HW165886   7.887   0.228   8.192  0.9225 -2.0443  1.2690
49298SOL    HW265887   7.763   0.232   8.278  0.2860 -0.8072  0.3092
49299SOL     OW65888   0.339   2.378   3.152 -0.7590  0.3925  0.3742
49299SOL    HW165889   0.358   2.464   3.189  0.5894  1.3663 -2.2878
49299SOL    HW265890   0.249   2.386   3.120 -0.1076  1.4729 -1.3349
49300SOL     OW65891   0.466  14.035  13.116 -0.0601  0.5205  0.3819
49300SOL    HW165892   0.394  13.985  13.155  0.5934 -0.3792  0.4642
49300SOL    HW265893   0.508  14.078  13.191  0.3948 -0.1574  0.5248
49301SOL     OW65894   7.574   1.445   9.038 -0.2542  0.6448  0.2489
49301SOL    HW165895   7.481   1.443   9.063 -0.6722  1.2013 -1.1669
49301SOL    HW265896   7.583   1.525   8.986  1.0021  0.5261  0.2514
49302SOL     OW65897   6.129   5.199   4.558  0.0378  0.1627  0.7717
49302SOL    HW165898   6.155   5.148   4.481 -0.5147  1.6109 -0.4051
49302SOL    HW265899   6.035   5.187   4.564 -0.0193  0.6150  0.7995
49303SOL     OW65900   1.688   8.765   2.073 -0.0436  0.8592  0.2637
49303SOL    HW165901   1.689   8.826   2.000 -0.5289  1.1811  0.5239
49303SOL    HW265902   1.661   8.681   2.035 -0.3757  1.0453  0.0889
49304SOL     OW65903  12.414  10.116   9.248  0.5097  0.3331 -0.1299
49304SOL    HW165904  12.343  10.170   9.212 -2.5423 -1.5035  2.5220
49304SOL    HW265905  12.401  10.121   9.343  2.2896 -2.2381  0.3339
49305SOL     OW65906   7.718   2.172   8.906  0.2682  0.2772  0.3314
49305SOL    HW165907   7.645   2.139   8.853 -1.9212  1.0048  2.6739
49305SOL    HW265908   7.706   2.131   8.992  1.1520  2.3209  1.5015
49306SOL     OW65909   6.025   6.712   7.319  0.6056  0.3491 -0.0192
49306SOL    HW165910   6.040   6.631   7.366  1.0729  1.3062  1.5722
49306SOL    HW265911   5.930   6.724   7.321  0.5817  0.1347  0.2774
49307SOL     OW65912   7.092   4.925   7.616  0.0579 -0.6878  0.0288
49307SOL    HW165913   7.025   4.961   7.559  0.4283  0.3342  0.2258
49307SOL    HW265914   7.169   4.915   7.559  0.9936  2.0337  0.6873
49308SOL     OW65915   7.357   7.489  13.535  0.2319 -0.0969 -0.1109
49308SOL    HW165916   7.312   7.424  13.590  0.5828 -0.8819 -0.7238
49308SOL    HW265917   7.384   7.439  13.458  0.8196  0.7114 -0.4340
49309SOL     OW65918   8.927  10.838  12.318 -0.4194  0.2091  0.6108
49309SOL    HW165919   9.014  10.859  12.351 -1.5897  1.5281  3.1534
49309SOL    HW265920   8.928  10.743  12.307  1.9234  0.3699 -1.4666
49310SOL     OW65921  10.815   5.149  12.189 -0.4345 -0.2774  0.2042
49310SOL    HW165922  10.887   5.202  12.155 -0.1339 -1.5258 -1.1895
49310SOL    HW265923  10.746   5.212  12.209 -0.9397  0.5478 -3.4393
49311SOL     OW65924  12.075  10.571   7.327 -0.2172 -0.0321 -0.2654
49311SOL    HW165925  12.150  10.515   7.307 -0.9176 -2.0015  2.0858
49311SOL    HW265926  11.999  10.520   7.297 -0.9133 -0.7507  2.4331
49312SOL     OW65927   2.925   4.440  11.700 -0.4151  0.3832  0.1959
49312SOL    HW165928   2.890   4.513  11.753 -0.0503  0.9196 -0.2967
49312SOL    HW265929   2.978   4.483  11.633 -1.2837 -0.2540 -0.9335
49313SOL     OW65930   8.181   6.832   5.711 -0.1526  0.0792  0.3700
49313SOL    HW165931   8.127   6.868   5.641 -2.5224  1.6025  2.7751
49313SOL    HW265932   8.252   6.895   5.722 -0.9770  0.9754  0.6993
49314SOL     OW65933   3.827   6.270   1.077  0.0227 -0.2932  0.0312
49314SOL    HW165934   3.737   6.293   1.099 -0.1990 -1.2119  0.1460
49314SOL    HW265935   3.820   6.230   0.990  0.1673 -1.2595  0.4478
49315SOL     OW65936  12.181  10.249  12.836 -0.9966 -0.0035  0.2069
49315SOL    HW165937  12.272  10.279  12.825 -0.2494 -2.3425 -0.6693
49315SOL    HW265938  12.128  10.322  12.804  0.5004  1.8077  1.6439
49316SOL     OW65939  10.265  12.786   0.527  0.8648 -0.2780 -0.3336
49316SOL    HW165940  10.208  12.711   0.542  0.2195  0.1838 -0.4333
49316SOL    HW265941  10.324  12.787   0.602 -0.7671  0.5923  1.0054
49317SOL     OW65942   2.270   2.506  11.058  0.7389  0.2935 -0.5204
49317SOL    HW165943   2.328   2.468  11.124  1.8746  2.0450 -0.4500
49317SOL    HW265944   2.328   2.560  11.004 -0.9685  3.3335  0.4671
49318SOL     OW65945   8.146   6.507   6.451 -0.1985 -0.1566  0.2965
49318SOL    HW165946   8.158   6.600   6.432  4.5468 -0.8523 -1.4093
49318SOL    HW265947   8.142   6.465   6.365 -0.3351 -1.7162  1.0287
49319SOL     OW65948   7.028   0.225   3.520 -0.4823 -0.4251 -0.2808
49319SOL    HW165949   6.945   0.269   3.505  0.1243  0.1001 -2.5591
49319SOL    HW265950   7.079   0.243   3.441  2.4650  0.7340  1.7200
49320SOL     OW65951  13.222   5.025   0.636  0.0849 -0.1254 -0.1965
49320SOL    HW165952  13.162   4.980   0.694 -1.1984 -1.1527 -2.1886
49320SOL    HW265953  13.285   4.957   0.609  0.3327  0.1887 -0.4161
49321SOL     OW65954  13.750  10.068   6.483 -0.2817  0.5696 -0.3021
49321SOL    HW165955  13.783  10.016   6.409 -0.8630  0.5563 -0.5536
49321SOL    HW265956  13.665  10.100   6.454 -0.6886  0.2502  0.5053
49322SOL     OW65957   5.110  12.951   7.681 -0.1756  0.0043  0.3637
49322SOL    HW165958   5.039  12.903   7.638 -1.2674  0.2631  1.8115
49322SOL    HW265959   5.189  12.902   7.658 -0.6889  0.1184 -1.8733
49323SOL     OW65960  11.825   6.407   9.859  0.4863 -0.1671 -0.8556
49323SOL    HW165961  11.908   6.361   9.863  0.4112 -0.3318 -1.1786
49323SOL    HW265962  11.828   6.455   9.776  1.1604  1.5458  0.1106
49324SOL     OW65963   7.575  11.347   0.858  0.2015 -0.1463 -0.2592
49324SOL    HW165964   7.632  11.405   0.908  0.1230 -1.0646  0.9593
49324SOL    HW265965   7.625  11.266   0.848 -0.1308 -0.2760 -0.9091
49325SOL     OW65966   6.785   1.467   6.301 -0.3795 -0.2863  0.4243
49325SOL    HW165967   6.751   1.390   6.255  1.0628 -0.3099 -0.6641
49325SOL    HW265968   6.839   1.430   6.371 -0.7310 -0.2578  0.7112
49326SOL     OW65969   8.193   0.307  10.861 -0.1251 -0.4491 -0.4819
49326SOL    HW165970   8.123   0.242  10.864  1.6315 -2.4310 -0.2313
49326SOL    HW265971   8.268   0.261  10.824  1.5176  1.1148  0.6798
49327SOL     OW65972   5.486  11.568   3.954  0.3829 -0.1266 -0.2165
49327SOL    HW165973   5.525  11.555   4.041  0.0281 -2.4229 -0.3413
49327SOL    HW265974   5.551  11.620   3.906  1.3733 -0.3022  0.8932
49328SOL     OW65975   1.723   5.807  12.585 -0.5647 -0.4553 -0.2108
49328SOL    HW165976   1.732   5.902  12.575 -0.5368 -0.4716 -0.3441
49328SOL    HW265977   1.628   5.793  12.586 -0.5765 -0.5646 -1.5538
49329SOL     OW65978   8.591   9.851   3.780  0.4960  0.3287  0.3504
49329SOL    HW165979   8.668   9.793   3.777 -0.9884 -1.7360 -0.0621
49329SOL    HW265980   8.527   9.802   3.831 -0.3328  2.3359  1.3159
49330SOL     OW65981   7.323   0.654   9.057 -0.3938  0.2195  0.1299
49330SOL    HW165982   7.394   0.630   8.997  0.1430 -0.0492  0.8513
49330SOL    HW265983   7.357   0.631   9.144 -0.2729  2.5659  0.7768
49331SOL     OW65984   1.655   6.030   9.334  0.3136  0.0056  0.2991
49331SOL    HW165985   1.570   6.064   9.307 -0.0657 -2.1904 -1.6591
49331SOL    HW265986   1.718   6.079   9.281  0.0208 -0.1203 -0.1796
49332SOL     OW65987   4.561   9.081  10.317 -0.2921  0.3505  0.1393
49332SOL    HW165988   4.543   9.039  10.401  0.8157  1.2267  0.8446
49332SOL    HW265989   4.588   9.170  10.340  2.5364 -0.1244 -0.9188
49333SOL     OW65990   4.996  11.282   9.169 -0.1772 -0.4282  0.2816
49333SOL    HW165991   5.036  11.294   9.083 -0.4172 -0.7402  0.1228
49333SOL    HW265992   5.069  11.273   9.229 -0.0070 -1.2011 -0.0357
49334SOL     OW65993   0.524   3.560   0.233 -0.3085 -0.3002 -0.0958
49334SOL    HW165994   0.465   3.599   0.169  1.7046  1.3497 -1.0829
49334SOL    HW265995   0.523   3.620   0.307  0.9114  0.3754 -0.5873
49335SOL     OW65996   1.356   1.133   3.525 -0.2500  0.4048  0.1672
49335SOL    HW165997   1.277   1.186   3.517 -1.4202 -1.3198 -0.3479
49335SOL    HW265998   1.358   1.107   3.617 -1.5635 -1.2977 -0.2127
49336SOL     OW65999   6.008   9.374   2.919 -0.3961 -0.0699 -0.4183
49336SOL    HW166000   5.989   9.407   3.007 -0.8366  0.8363 -0.8516
49336SOL    HW266001   6.104   9.366   2.918 -0.4506 -1.1420  0.5049
49337SOL     OW66002  13.294  14.026   3.772  0.6771 -0.2439 -0.3104
49337SOL    HW166003  13.203  14.024   3.741  0.1262 -1.1025  1.2292
49337SOL    HW266004  13.343  13.978   3.705 -0.1750 -0.6049 -0.7022
49338SOL     OW66005   5.478   4.573   7.168  0.8156 -0.5592 -0.0784
49338SOL    HW166006   5.429   4.587   7.249  0.1443 -3.5458  0.1391
49338SOL    HW266007   5.421   4.518   7.114  3.1782 -2.8569 -0.4744
49339SOL     OW66008  11.003   4.987   1.166 -0.3187 -0.6266  0.0859
49339SOL    HW166009  10.924   4.935   1.158 -0.0283 -1.4086  1.8126
49339SOL    HW266010  11.074   4.925   1.148 -0.0398 -0.4337  0.4959
49340SOL     OW66011   8.996   0.356   2.972  0.0925 -0.5120 -0.5073
49340SOL    HW166012   8.963   0.431   2.923  0.1556 -0.1339  0.0271
49340SOL    HW266013   9.034   0.299   2.905 -0.6873 -0.4585 -1.0082
49341SOL     OW66014   2.805   0.998   2.133  1.0241 -0.1139 -0.3285
49341SOL    HW166015   2.884   1.020   2.183  1.5220 -0.8045 -0.8037
49341SOL    HW266016   2.753   1.078   2.135  0.3042 -0.5240  2.6064
49342SOL     OW66017   8.237   2.057   9.791  0.4788  0.6109  0.1032
49342SOL    HW166018   8.301   2.078   9.859  1.2311 -0.3648 -0.2692
49342SOL    HW266019   8.197   2.140   9.769  1.9894  1.3337 -0.0147
49343SOL     OW66020   8.113  12.534   2.360 -0.1577  0.4002 -0.1162
49343SOL    HW166021   8.077  12.512   2.274  0.7281  2.2333 -0.9941
49343SOL    HW266022   8.184  12.471   2.373  0.5005  0.8626 -1.2954
49344SOL     OW66023   9.047   6.849  12.075 -0.2098  0.3252  1.0809
49344SOL    HW166024   9.036   6.776  12.135 -0.6407 -0.7076 -0.1928
49344SOL    HW266025   8.958   6.880  12.058 -0.1326  0.3188  0.6445
49345SOL     OW66026   3.846   5.509   2.973 -0.4513  0.3499  0.6552
49345SOL    HW166027   3.849   5.429   3.027 -0.4810  0.4029  0.7361
49345SOL    HW266028   3.754   5.536   2.976 -0.2434  1.0034  1.5320
49346SOL     OW66029   2.620   6.116   3.906  0.2740 -0.1350 -0.7174
49346SOL    HW166030   2.584   6.099   3.993  0.5881 -0.5142 -0.6620
49346SOL    HW266031   2.560   6.181   3.868 -0.5840 -0.8951 -0.6918
49347SOL     OW66032   5.194   1.150   0.672  0.2263  0.8276 -0.0187
49347SOL    HW166033   5.179   1.181   0.761  1.0414  0.2623  0.3294
49347SOL    HW266034   5.153   1.216   0.616 -0.6887  0.9573  0.7775
49348SOL     OW66035   8.777  13.398   7.538  0.3601 -0.7129  0.4079
49348SOL    HW166036   8.798  13.324   7.481 -1.7215 -0.7284 -0.4212
49348SOL    HW266037   8.743  13.357   7.618 -0.5335 -0.6880  0.0546
49349SOL     OW66038   2.901   3.037  10.678  0.2035 -0.5177 -0.6394
49349SOL    HW166039   2.952   3.014  10.756  0.7088 -0.2210 -0.8764
49349SOL    HW266040   2.813   3.055  10.712  0.4129 -0.4143 -0.1350
49350SOL     OW66041  11.703   8.151   3.989  0.5739 -1.1532  0.2883
49350SOL    HW166042  11.682   8.189   3.904  0.8452 -1.4037  0.1069
49350SOL    HW266043  11.660   8.209   4.052  0.9422 -0.5655  0.0145
49351SOL     OW66044   0.892   2.396  12.280 -0.4072 -0.2487  0.7543
49351SOL    HW166045   0.987   2.391  12.294 -0.0791  1.0841 -0.6818
49351SOL    HW266046   0.878   2.485  12.247 -1.9665 -0.9057 -0.4660
49352SOL     OW66047   5.892   8.932  11.846  0.8445 -0.0065 -0.2352
49352SOL    HW166048   5.836   8.966  11.916  0.9518 -0.7317  0.2103
49352SOL    HW266049   5.916   9.010  11.795  1.7748  0.7275  1.2384
49353SOL     OW66050   5.629  12.627   3.417  0.2838 -0.1446 -0.2359
49353SOL    HW166051   5.619  12.539   3.451 -0.3798 -0.2132 -0.5963
49353SOL    HW266052   5.665  12.677   3.490 -0.4994 -0.4366  0.3600
49354SOL     OW66053   9.944   7.179   4.707  0.0968  0.2091  0.3088
49354SOL    HW166054   9.860   7.158   4.667  1.3754  0.0211 -2.4734
49354SOL    HW266055   9.954   7.274   4.693  0.6234  0.1136  0.0097
49355SOL     OW66056   2.689   0.001  13.153 -0.6888  0.2928  0.0609
49355SOL    HW166057   2.663  -0.089  13.134  0.5384  0.0749 -0.7041
49355SOL    HW266058   2.724  -0.003  13.242  1.6596 -0.5573 -0.8179
49356SOL     OW66059   6.995  10.408   3.325 -0.4910 -0.0567 -0.0248
49356SOL    HW166060   7.000  10.433   3.233 -0.6468  0.2386  0.0440
49356SOL    HW266061   6.906  10.373   3.336 -0.2647 -0.6681 -0.1250
49357SOL     OW66062  11.979   7.007  13.532 -0.2164 -0.0184 -0.0762
49357SOL    HW166063  12.026   7.080  13.572 -0.6932  0.4500 -0.3590
49357SOL    HW266064  11.896   7.003  13.580 -0.2945 -0.2121 -0.2248
49358SOL     OW66065   1.660   6.969  11.586  0.0773  0.0774  0.4588
49358SOL    HW166066   1.711   6.915  11.646  0.6252  0.5462  0.4255
49358SOL    HW266067   1.646   6.914  11.509 -1.8525 -1.0663  1.5294
49359SOL     OW66068  14.139  13.830  12.936 -0.3560 -0.4933 -0.4639
49359SOL    HW166069  14.227  13.799  12.915 -0.4727 -0.9384 -0.3082
49359SOL    HW266070  14.117  13.786  13.018 -0.8851 -0.7022 -0.7125
49360SOL     OW66071   7.483   4.256  12.526  0.4197 -0.1363 -0.4505
49360SOL    HW166072   7.575   4.273  12.503  0.1641  0.5207 -1.0159
49360SOL    HW266073   7.434   4.277  12.446 -0.3425  0.7183  0.2269
49361SOL     OW66074   8.021   2.801   9.447  0.0250 -0.3767 -0.3701
49361SOL    HW166075   8.006   2.724   9.502  0.2865  0.0721  0.3422
49361SOL    HW266076   8.102   2.840   9.480 -0.6528  0.8000 -0.0219
49362SOL     OW66077  13.909   4.024   6.957 -0.3652  0.3413  0.4569
49362SOL    HW166078  13.910   4.094   7.022  0.2235  0.0687  0.7546
49362SOL    HW266079  13.822   4.027   6.918  0.3125  2.6442 -1.0678
49363SOL     OW66080   0.539   5.823  11.570  0.0943 -0.5590  0.2724
49363SOL    HW166081   0.534   5.890  11.637  3.4737 -0.4880  0.6330
49363SOL    HW266082   0.490   5.749  11.606  0.0149  0.2249  1.8484
49364SOL     OW66083  10.530  11.374   5.169  0.2881  0.4002  0.4313
49364SOL    HW166084  10.439  11.352   5.151  0.6033 -1.7188  1.1526
49364SOL    HW266085  10.579  11.338   5.096  0.4981  2.6625 -0.6234
49365SOL     OW66086   8.333   9.054  12.929  0.2194 -0.2052 -0.0129
49365SOL    HW166087   8.418   9.093  12.950  0.7839 -1.3408 -0.1404
49365SOL    HW266088   8.352   8.962  12.911 -1.3385 -1.0554  2.2618
49366SOL     OW66089   4.569   3.430   1.012  0.2824  0.3148 -0.5876
49366SOL    HW166090   4.503   3.365   0.990 -0.4725  0.0003  2.2930
49366SOL    HW266091   4.528   3.514   0.991 -0.6662  0.0761  0.2695
49367SOL     OW66092   8.706  10.448   5.620  0.0525  0.0504  0.3582
49367SOL    HW166093   8.614  10.468   5.600 -0.3893 -1.5131  0.6624
49367SOL    HW266094   8.742  10.417   5.537  0.1028 -0.0045  0.4009
49368SOL     OW66095   0.495   5.450  11.692 -0.0561  0.3440 -0.8839
49368SOL    HW166096   0.530   5.387  11.754 -2.9132  0.5958  1.1939
49368SOL    HW266097   0.428   5.401  11.644 -1.5872  1.4211  0.0456
49369SOL     OW66098  10.798   0.726   0.710  0.0636 -0.0631  0.4248
49369SOL    HW166099  10.808   0.755   0.800 -0.6343  1.0639  0.1528
49369SOL    HW266100  10.773   0.805   0.661  1.4867 -0.4078 -0.9602
49370SOL     OW66101   6.431  10.440   0.837 -0.1276  0.0721 -0.6384
49370SOL    HW166102   6.437  10.531   0.808 -1.4020  0.0402 -1.0825
49370SOL    HW266103   6.424  10.389   0.756 -0.1069 -0.3501 -0.3756
49371SOL     OW66104   4.845   0.284   7.071  0.5460  0.2970 -0.7002
49371SOL    HW166105   4.773   0.236   7.112 -0.3509  1.5882 -0.6932
49371SOL    HW266106   4.922   0.258   7.120  0.0220 -0.7635 -0.4010
49372SOL     OW66107  12.469   0.011   1.445  0.1724  0.2957  0.3319
49372SOL    HW166108  12.457   0.103   1.418  1.1736  0.4613  0.4162
49372SOL    HW266109  12.470   0.014   1.540 -0.9034  0.0350  0.3663
49373SOL     OW66110  13.267  12.707   0.427  0.2919  0.1299 -0.2232
49373SOL    HW166111  13.239  12.617   0.443 -0.3760 -0.1009 -2.4165
49373SOL    HW266112  13.189  12.760   0.442  0.3239  0.1979 -0.2961
49374SOL     OW66113  10.830   2.789   2.004 -0.1456 -0.6980 -0.0097
49374SOL    HW166114  10.759   2.784   1.940  0.3686  0.9245 -0.7590
49374SOL    HW266115  10.806   2.726   2.071 -1.2162 -1.7117 -1.2978
49375SOL     OW66116   0.144   7.466   6.638 -0.6284  0.1217  0.6992
49375SOL    HW166117   0.091   7.387   6.626 -1.2834  0.7063 -0.3677
49375SOL    HW266118   0.231   7.441   6.608 -1.0457  0.0473 -0.4956
49376SOL     OW66119   3.275   7.588   3.228 -0.2176 -0.7787  0.5632
49376SOL    HW166120   3.229   7.505   3.240 -0.7387 -0.4258  1.0140
49376SOL    HW266121   3.206   7.654   3.221  0.1813 -0.4231 -0.2000
49377SOL     OW66122   2.373  10.139  11.410  0.2708  0.3467  0.2536
49377SOL    HW166123   2.457  10.093  11.415 -0.2867 -0.6812  0.6397
49377SOL    HW266124   2.309  10.068  11.403 -0.6706  1.0492  1.4659
49378SOL     OW66125   4.193   8.788   0.618 -0.3257  0.1216 -0.5744
49378SOL    HW166126   4.163   8.733   0.545 -0.7383  0.6368 -0.8047
49378SOL    HW266127   4.113   8.807   0.667 -0.3549  1.2980 -1.0453
49379SOL     OW66128   4.256  10.569   5.978  0.1790  0.2250 -0.3137
49379SOL    HW166129   4.220  10.641   5.927 -2.0381  0.5389  1.5382
49379SOL    HW266130   4.342  10.601   6.007 -0.2163  1.5826 -0.5602
49380SOL     OW66131  13.468   7.354  13.129 -0.0606  0.0197 -0.1933
49380SOL    HW166132  13.465   7.442  13.167  0.7728  0.0059 -0.0931
49380SOL    HW266133  13.469   7.295  13.205 -2.0309 -0.1551 -0.2413
49381SOL     OW66134   8.299   7.997   3.313 -0.3630  0.6696  0.4161
49381SOL    HW166135   8.332   8.005   3.402  0.7275  0.8739  0.0193
49381SOL    HW266136   8.369   8.035   3.259 -0.5778 -0.3266 -0.5885
49382SOL     OW66137   3.468  10.564  10.983 -0.5110  0.0057  0.1402
49382SOL    HW166138   3.502  10.502  11.047  0.7404  1.5340  1.0441
49382SOL    HW266139   3.418  10.627  11.035 -1.1957  0.1484 -0.6600
49383SOL     OW66140   5.028   6.473   7.971 -0.1854 -0.4420  0.2456
49383SOL    HW166141   5.105   6.506   7.925 -0.9632 -1.9210 -2.3847
49383SOL    HW266142   5.045   6.379   7.981 -0.5923 -0.3560  1.9211
49384SOL     OW66143   1.352   9.660  10.946  0.6498 -0.7796  0.5848
49384SOL    HW166144   1.307   9.744  10.947  0.4515 -0.8154  3.2839
49384SOL    HW266145   1.429   9.674  10.892  1.4102  1.6295  2.1293
49385SOL     OW66146  11.958   7.561  12.954 -0.0881  0.6016 -0.7094
49385SOL    HW166147  11.942   7.656  12.951  1.4068  0.9303  0.4774
49385SOL    HW266148  11.977   7.543  13.046 -1.2325 -1.0423 -0.7467
49386SOL     OW66149   1.309  11.258  11.452  0.1604 -0.1153  0.0013
49386SOL    HW166150   1.227  11.258  11.401  0.1318  0.0494  0.0473
49386SOL    HW266151   1.363  11.324  11.409 -0.7518  1.7546  1.6203
49387SOL     OW66152   2.964  12.820   8.416 -0.0523 -0.5141  0.0045
49387SOL    HW166153   2.998  12.820   8.505  2.3259 -0.7581 -0.8166
49387SOL    HW266154   2.911  12.740   8.411 -1.8361  0.4863  1.6912
49388SOL     OW66155  12.059   5.537  13.632 -0.3910  0.1557 -0.0786
49388SOL    HW166156  12.031   5.460  13.583 -0.1982 -0.5911  0.9650
49388SOL    HW266157  12.155   5.534  13.630 -0.3799 -0.0587  0.6138
49389SOL     OW66158  11.391   5.873   4.610 -0.3939 -0.0091 -0.0371
49389SOL    HW166159  11.338   5.952   4.601 -1.4573 -0.6672  0.1953
49389SOL    HW266160  11.380   5.827   4.527  0.8263  0.4255 -0.4588
49390SOL     OW66161  12.658   8.419  13.149 -0.1212 -0.3643 -0.2859
49390SOL    HW166162  12.604   8.460  13.081  1.8596  1.6730 -0.7466
49390SOL    HW266163  12.661   8.484  13.220  2.1905 -0.0952 -0.5520
49391SOL     OW66164   6.441   3.416   5.563  0.8660 -0.2914 -0.2098
49391SOL    HW166165   6.444   3.338   5.509  0.2067 -2.0183  2.0708
49391SOL    HW266166   6.527   3.422   5.604  0.5531 -0.5462  0.5153
49392SOL     OW66167   9.808   7.701   6.967 -0.4533  0.1009  0.3315
49392SOL    HW166168   9.803   7.725   7.060 -2.1486 -2.9124  1.1646
49392SOL    HW266169   9.859   7.621   6.966 -1.8553 -0.8378 -1.0707
49393SOL     OW66170  12.141   5.453   8.213 -1.0065 -0.7597 -0.4058
49393SOL    HW166171  12.200   5.447   8.138  0.2259 -1.3664  0.5733
49393SOL    HW266172  12.141   5.365   8.251 -1.7702 -0.5177  0.1935
49394SOL     OW66173   6.786  14.106   4.625 -0.3298 -0.2356  1.0595
49394SOL    HW166174   6.877  14.079   4.618 -0.5028 -0.5079 -0.5087
49394SOL    HW266175   6.736  14.024   4.626 -0.6272 -0.0690  0.5046
49395SOL     OW66176  12.146  13.822   8.490  0.5573 -0.5068  0.1655
49395SOL    HW166177  12.141  13.916   8.508  0.5019 -0.3626 -0.5730
49395SOL    HW266178  12.174  13.816   8.399 -2.1865 -1.1469 -0.7254
49396SOL     OW66179   9.964   9.395  10.380 -0.3863  0.6968  0.3078
49396SOL    HW166180  10.053   9.409  10.347 -0.4564 -0.2762 -0.3358
49396SOL    HW266181   9.915   9.472  10.352 -0.4785 -0.1413 -2.0561
49397SOL     OW66182   2.403   6.536   6.387  0.4256 -0.2144  0.2679
49397SOL    HW166183   2.326   6.573   6.431  0.0073  0.0672 -0.6719
49397SOL    HW266184   2.463   6.609   6.379  0.0326  0.0249 -0.6351
49398SOL     OW66185   5.248   2.200   8.241 -0.0210 -0.6937  0.1251
49398SOL    HW166186   5.248   2.293   8.217  2.6769 -1.6029 -4.6479
49398SOL    HW266187   5.340   2.178   8.254 -0.6891 -2.5589  2.4568
49399SOL     OW66188   1.054  13.714  11.307 -0.3733 -0.1833  0.2533
49399SOL    HW166189   1.028  13.781  11.370 -2.6535 -2.1076  1.5438
49399SOL    HW266190   1.118  13.661  11.354 -0.8500 -0.6596  0.3766
49400SOL     OW66191   5.471   5.912  13.636 -0.4609 -0.2321  0.4087
49400SOL    HW166192   5.530   5.923  13.562 -1.3060 -1.1121 -0.4205
49400SOL    HW266193   5.414   5.839  13.612 -1.9761  0.6606  1.1089
49401SOL     OW66194   2.712   5.822   7.363 -0.5237  0.0404 -0.0579
49401SOL    HW166195   2.730   5.869   7.445  0.4382  1.5517 -1.0740
49401SOL    HW266196   2.773   5.748   7.364 -0.3994  0.1463  0.5031
49402SOL     OW66197  13.549   5.969   3.034 -0.0226 -0.2280 -0.3488
49402SOL    HW166198  13.605   6.037   3.073 -1.0814 -0.1132  1.0142
49402SOL    HW266199  13.606   5.892   3.029  0.5132  0.1164  0.2338
49403SOL     OW66200   0.207   0.689  11.213  0.2110 -0.3584  0.7529
49403SOL    HW166201   0.173   0.694  11.124 -0.2583 -0.6940  0.9096
49403SOL    HW266202   0.229   0.597  11.225  0.9951 -0.1837  0.7255
49404SOL     OW66203   4.857   6.647   1.991  0.3240  0.0012 -0.4361
49404SOL    HW166204   4.926   6.582   1.976  0.5942  0.3126 -0.5526
49404SOL    HW266205   4.777   6.603   1.963  0.6259  0.0452 -1.4406
49405SOL     OW66206  12.064   8.583   4.439  0.3353 -0.4144  0.4243
49405SOL    HW166207  11.972   8.609   4.433  0.6405  0.5487 -0.3777
49405SOL    HW266208  12.061   8.488   4.447 -0.7815 -0.2948  2.1098
49406SOL     OW66209  12.385   7.281  13.705  0.5474 -0.6152  0.5137
49406SOL    HW166210  12.460   7.328  13.668 -0.1860  0.8172  0.7846
49406SOL    HW266211  12.392   7.295  13.800  1.4561 -2.8224  0.8303
49407SOL     OW66212  13.325  13.088  10.947  0.1757  0.1278  0.1131
49407SOL    HW166213  13.386  13.156  10.921  0.9773 -0.6391 -0.0363
49407SOL    HW266214  13.369  13.006  10.926 -0.1832 -0.4738  1.5937
49408SOL     OW66215   5.513  13.672   0.460 -0.6181  0.5352  0.2012
49408SOL    HW166216   5.515  13.728   0.537 -0.3149 -1.6316  1.8646
49408SOL    HW266217   5.471  13.591   0.489 -1.4025 -0.0067 -2.1931
49409SOL     OW66218   6.389   4.097   0.022 -0.1859  0.5653 -0.8231
49409SOL    HW166219   6.377   4.121  -0.070 -0.8504  0.1643 -0.8494
49409SOL    HW266220   6.366   4.176   0.071 -1.7761  0.2019 -0.9330
49410SOL     OW66221   4.389   9.353   8.981  0.0185 -0.2432 -0.0106
49410SOL    HW166222   4.430   9.352   9.068 -0.8495 -1.4182  0.4129
49410SOL    HW266223   4.334   9.431   8.981 -0.3823 -0.5170  0.6971
49411SOL     OW66224   6.633   6.852   9.896 -0.0265  0.6459  0.3319
49411SOL    HW166225   6.687   6.787   9.941 -1.4272  0.6697  2.1933
49411SOL    HW266226   6.589   6.899   9.967 -1.0167  1.8887 -1.0550
49412SOL     OW66227   4.432  11.814   0.529 -0.1101  0.0303  0.1976
49412SOL    HW166228   4.399  11.883   0.472  0.5560  1.6287  1.6436
49412SOL    HW266229   4.375  11.817   0.606  0.3718 -0.5512  0.5904
49413SOL     OW66230   2.176  10.028   0.583  0.0822 -0.3353  0.4820
49413SOL    HW166231   2.268  10.047   0.569  0.0810 -0.5063  0.2371
49413SOL    HW266232   2.134  10.114   0.587 -0.2524 -0.2481 -2.7706
49414SOL     OW66233   2.965   7.012   9.497 -0.0666 -0.2656  0.2760
49414SOL    HW166234   3.040   6.966   9.460  0.3792  0.6031  0.0574
49414SOL    HW266235   2.971   7.101   9.461 -0.8044  0.0141  0.8031
49415SOL     OW66236   1.301   4.312   8.597 -0.3273  0.0682 -0.2964
49415SOL    HW166237   1.274   4.403   8.593  0.8646  0.4014 -1.1365
49415SOL    HW266238   1.272   4.282   8.684 -2.2853  0.7073 -0.6752
49416SOL     OW66239   4.383   4.093   7.828 -0.3623 -0.6122 -0.0365
49416SOL    HW166240   4.325   4.034   7.876  2.1002 -2.3417  1.0404
49416SOL    HW266241   4.375   4.066   7.737 -0.2877 -1.7546  0.2805
49417SOL     OW66242  11.047   6.676   5.629  0.2827  0.1381  0.3113
49417SOL    HW166243  11.055   6.770   5.647  2.0705 -0.1084  0.9835
49417SOL    HW266244  10.978   6.646   5.687  1.2142  0.6472  1.7236
49418SOL     OW66245   0.295   0.155   7.931 -0.2406  0.0591 -0.0178
49418SOL    HW166246   0.269   0.083   7.874  0.7817 -0.6688  0.4009
49418SOL    HW266247   0.232   0.152   8.003 -0.5001 -0.0973 -0.2496
49419SOL     OW66248   2.136  13.984  12.459 -0.3875 -0.4864 -0.2327
49419SOL    HW166249   2.188  13.979  12.539 -1.2927  0.3825  0.4336
49419SOL    HW266250   2.200  14.005  12.390  0.0688  1.4720  0.7110
49420SOL     OW66251  12.183   5.185   7.086  0.3154  0.4845 -0.1503
49420SOL    HW166252  12.151   5.100   7.056 -0.3061  0.1794  1.2713
49420SOL    HW266253  12.261   5.164   7.138 -0.0407  0.7232  0.4990
49421SOL     OW66254   8.638   4.447  11.585  0.1623  0.6578 -0.4975
49421SOL    HW166255   8.645   4.532  11.542 -1.0607  0.8740 -0.3236
49421SOL    HW266256   8.704   4.392  11.542  1.5126  1.8963 -0.0689
49422SOL     OW66257  14.039   4.030   7.761  0.4673 -0.5752  0.4039
49422SOL    HW166258  14.026   3.970   7.835  1.5114 -0.7383  0.4720
49422SOL    HW266259  14.088   3.979   7.697 -0.1920 -0.3481 -0.3050
49423SOL     OW66260  13.296   8.985   0.982  0.8421  0.2510 -0.1786
49423SOL    HW166261  13.220   8.979   1.041  1.6329 -0.8877  0.7479
49423SOL    HW266262  13.329   8.896   0.976  1.8085  0.6512 -0.9816
49424SOL     OW66263   8.367  10.034   0.786 -0.1659 -0.5777  0.4842
49424SOL    HW166264   8.278  10.047   0.753 -0.5066 -2.4738  0.5032
49424SOL    HW266265   8.387  10.113   0.835 -1.4142  0.3524 -0.4568
49425SOL     OW66266   2.505   6.283   0.512 -0.1598  0.0699  0.3557
49425SOL    HW166267   2.417   6.261   0.540  0.1024 -0.9687  0.3840
49425SOL    HW266268   2.561   6.253   0.584  0.1747  1.3361  0.6502
49426SOL     OW66269   0.156   9.112  10.789 -0.1538  0.3497  0.1676
49426SOL    HW166270   0.110   9.188  10.754  1.0908  1.0103 -0.1183
49426SOL    HW266271   0.101   9.038  10.767  0.2390  0.7816 -2.7134
49427SOL     OW66272  12.579   5.061   5.685  0.5196 -0.1986 -0.0380
49427SOL    HW166273  12.486   5.083   5.686  0.5723  0.0249 -0.1696
49427SOL    HW266274  12.622   5.132   5.733  0.5247 -0.7404  0.7813
49428SOL     OW66275  13.132  12.414   5.700  0.3338  0.1759  0.0170
49428SOL    HW166276  13.124  12.427   5.606 -1.1882 -0.8804 -0.0437
49428SOL    HW266277  13.044  12.431   5.734  0.0755 -2.3120  0.8102
49429SOL     OW66278  11.431   5.780  14.124  0.1357  0.3068 -0.2802
49429SOL    HW166279  11.375   5.781  14.047 -0.5077  1.8079  0.1782
49429SOL    HW266280  11.430   5.689  14.154 -2.0393  0.2899 -0.2984
49430SOL     OW66281   9.289   6.343  10.392  0.8035  1.0390 -0.1324
49430SOL    HW166282   9.324   6.259  10.362 -2.1522 -0.6778  0.8570
49430SOL    HW266283   9.320   6.407  10.327  2.0345 -1.0133 -1.6659
49431SOL     OW66284   1.211   3.879   8.867 -0.2622  0.1597 -0.5449
49431SOL    HW166285   1.132   3.911   8.911 -0.5124 -0.8508 -0.2282
49431SOL    HW266286   1.179   3.833   8.790 -0.1210 -1.4426  0.2951
49432SOL     OW66287   3.002  13.328   8.054  0.0538  0.0312  0.6677
49432SOL    HW166288   3.018  13.303   7.963 -1.2666  1.8430 -0.1157
49432SOL    HW266289   3.080  13.298   8.101  0.0821 -2.3276 -0.7489
49433SOL     OW66290  12.899   5.890  12.089 -0.0335 -0.6631  0.9728
49433SOL    HW166291  12.854   5.935  12.017 -0.0517 -1.4402  0.4813
49433SOL    HW266292  12.863   5.930  12.168 -1.1819 -0.8631  0.5823
49434SOL     OW66293   7.615   4.933   0.584  0.6724  0.1465  0.6952
49434SOL    HW166294   7.568   4.983   0.517 -0.2104 -0.8421  0.5542
49434SOL    HW266295   7.674   4.876   0.534  0.6970  0.0716  0.8105
49435SOL     OW66296  10.741   9.028   8.075  0.7490  0.2694 -0.0495
49435SOL    HW166297  10.744   8.939   8.108  0.0715 -0.2859 -1.4134
49435SOL    HW266298  10.665   9.067   8.118  1.0659  0.2006  0.5737
49436SOL     OW66299   2.015   4.898   6.938  0.4399  0.5137  0.4912
49436SOL    HW166300   2.051   4.850   7.013  0.0085 -0.7883 -0.1046
49436SOL    HW266301   2.092   4.921   6.885  0.5893 -0.5539  0.2075
49437SOL     OW66302   2.175   9.608   1.812  0.0590 -0.6120  0.4559
49437SOL    HW166303   2.101   9.634   1.756 -0.0188 -2.0769 -0.1687
49437SOL    HW266304   2.253   9.632   1.762 -0.0007 -0.7777  0.2856
49438SOL     OW66305   5.347   7.977  12.017 -0.0131  0.0485 -0.3297
49438SOL    HW166306   5.420   7.989  11.956  0.0533 -3.3225 -1.0919
49438SOL    HW266307   5.269   7.995  11.964  0.1348  1.9282  0.0160
49439SOL     OW66308   8.642   7.932   3.000 -0.3334 -0.0382 -0.4170
49439SOL    HW166309   8.653   7.951   2.907 -0.5361  0.5814 -0.3212
49439SOL    HW266310   8.691   8.002   3.044  1.7605 -1.6280 -0.0581
49440SOL     OW66311  10.028   1.380  11.266  0.4628 -0.0786 -0.4223
49440SOL    HW166312   9.937   1.410  11.265 -0.1959 -1.9535  0.0014
49440SOL    HW266313  10.070   1.428  11.195 -1.1811 -0.1352 -1.4665
49441SOL     OW66314   0.419   5.610   8.208  0.3104  0.2270 -0.3236
49441SOL    HW166315   0.498   5.557   8.204  0.2824  0.2182 -0.8195
49441SOL    HW266316   0.426   5.657   8.292 -0.5544 -1.9119  1.0362
49442SOL     OW66317  12.701   6.042  12.870 -0.0697  0.5111 -0.2594
49442SOL    HW166318  12.651   6.116  12.834  1.6002  2.4399  1.1548
49442SOL    HW266319  12.686   6.048  12.965  0.2742 -0.8755 -0.1013
49443SOL     OW66320   3.708   0.978   0.455  0.0273 -0.2874  0.3396
49443SOL    HW166321   3.652   0.962   0.532 -0.2154 -0.2636  0.1705
49443SOL    HW266322   3.759   1.055   0.479  0.0806 -0.3841  0.5470
49444SOL     OW66323  13.082   3.808   0.563  0.1463  0.5511  0.5812
49444SOL    HW166324  13.049   3.788   0.650 -2.2351  1.7644  0.0611
49444SOL    HW266325  13.047   3.895   0.544 -0.0137  0.0265 -1.8444
49445SOL     OW66326   6.916   8.723   7.068 -0.9257 -0.6567  0.0183
49445SOL    HW166327   6.962   8.639   7.065 -2.0616 -1.3022 -0.1293
49445SOL    HW266328   6.982   8.788   7.047 -0.2364 -1.6112 -0.8362
49446SOL     OW66329   4.620   4.761  11.768  0.1947  0.7391 -0.0000
49446SOL    HW166330   4.589   4.707  11.695 -0.0084  1.3572 -0.3849
49446SOL    HW266331   4.588   4.717  11.846 -0.2526  0.4787 -0.3234
49447SOL     OW66332   1.389   4.056   5.972  0.0175  0.5415 -0.3222
49447SOL    HW166333   1.467   4.101   6.003 -1.0531  1.2310  1.5682
49447SOL    HW266334   1.391   4.066   5.877  1.2953  2.1261 -0.1722
49448SOL     OW66335   1.019   9.304  11.473  0.1725  0.0133 -0.6278
49448SOL    HW166336   1.103   9.258  11.464  0.9810  1.3897 -0.3998
49448SOL    HW266337   1.021   9.340  11.561 -0.5730  0.2627 -0.7038
49449SOL     OW66338   6.217   9.342  12.218 -0.3363 -0.0015 -0.3595
49449SOL    HW166339   6.301   9.348  12.264  0.7547  0.7197 -2.3355
49449SOL    HW266340   6.223   9.259  12.171  0.0525  0.8540 -1.8821
49450SOL     OW66341   9.882   1.151  11.498 -0.0162 -0.5009  0.3957
49450SOL    HW166342   9.965   1.151  11.451 -0.5261 -1.9048 -0.5606
49450SOL    HW266343   9.850   1.241  11.489  1.2414 -0.0109  0.5452
49451SOL     OW66344   2.843  10.608  11.535 -0.7869  0.0408  0.3328
49451SOL    HW166345   2.923  10.645  11.572  0.3174 -1.9698  0.1184
49451SOL    HW266346   2.772  10.654  11.580  0.4875  0.8992  1.5507
49452SOL     OW66347   9.335   9.702   3.320 -0.2585  0.2356  0.1154
49452SOL    HW166348   9.304   9.793   3.330  0.9428  0.5851  0.8648
49452SOL    HW266349   9.336   9.668   3.409 -0.7248 -0.5412 -0.1674
49453SOL     OW66350   8.218   4.957   3.556  0.4076  0.6364 -0.0572
49453SOL    HW166351   8.262   5.019   3.614  0.4392 -0.1528  0.7745
49453SOL    HW266352   8.164   5.012   3.500 -0.6816  1.3405  1.6101
49454SOL     OW66353  12.607   9.935   7.894 -0.2210 -0.5481  0.1052
49454SOL    HW166354  12.564   9.963   7.813  1.5736 -3.0400 -1.8880
49454SOL    HW266355  12.568   9.850   7.914 -0.3248 -0.1619  1.6497
49455SOL     OW66356  13.290   7.460   4.840  0.1828  0.5538  0.1933
49455SOL    HW166357  13.358   7.467   4.774 -1.2654  2.2894 -1.2347
49455SOL    HW266358  13.333   7.421   4.916  2.7760  1.6915 -0.6065
49456SOL     OW66359  11.979   1.729  11.923 -0.1421  0.2494  0.1367
49456SOL    HW166360  12.052   1.711  11.863 -0.5073  0.2208 -0.3057
49456SOL    HW266361  12.021   1.765  12.001  0.3773 -0.1030  0.0296
49457SOL     OW66362   6.927   1.964   8.242  0.4702 -0.4841  0.2825
49457SOL    HW166363   6.881   1.979   8.324  1.3830  0.0527  0.7123
49457SOL    HW266364   7.019   1.954   8.267  0.6826 -0.9437 -0.6123
49458SOL     OW66365   8.102   5.528   5.612  0.3969 -0.2466 -0.5130
49458SOL    HW166366   8.193   5.552   5.594 -0.0314  1.9026 -0.1483
49458SOL    HW266367   8.057   5.546   5.529  0.0452  0.3317 -0.2032
49459SOL     OW66368   9.644  11.225  12.505  0.2087 -0.6923  0.5441
49459SOL    HW166369   9.690  11.308  12.489  1.6893 -1.5346  0.3016
49459SOL    HW266370   9.679  11.165  12.438 -1.5263 -1.2738  0.1157
49460SOL     OW66371   0.754   2.290   9.723 -0.2840  0.0967  0.4107
49460SOL    HW166372   0.748   2.251   9.810 -1.1398 -0.6366  0.0289
49460SOL    HW266373   0.665   2.288   9.689 -0.2500  1.8357  0.1281
49461SOL     OW66374   3.999  11.216   9.928  0.3308  0.3928 -0.3688
49461SOL    HW166375   4.027  11.233   9.838  0.7452 -0.5977 -0.4346
49461SOL    HW266376   4.080  11.214   9.979  0.0317  2.2423  0.2884
49462SOL     OW66377   3.591   0.135   8.183  0.1828 -1.1384 -0.1681
49462SOL    HW166378   3.509   0.087   8.171 -0.1159 -0.3834 -1.3561
49462SOL    HW266379   3.568   0.208   8.239 -0.1043 -0.6110 -0.9565
49463SOL     OW66380  10.275  11.441   7.047 -0.0234  0.0895 -0.3078
49463SOL    HW166381  10.187  11.411   7.025 -0.2492  0.8962 -0.5274
49463SOL    HW266382  10.294  11.399   7.131 -1.6015  1.8339  0.9875
49464SOL     OW66383   9.983   1.445  14.057  0.3501  0.3863 -0.2842
49464SOL    HW166384   9.898   1.450  14.013  0.3124 -0.7107 -0.3582
49464SOL    HW266385   9.967   1.483  14.143 -0.0693  0.7297 -0.5129
49465SOL     OW66386   7.072   4.418   0.242 -0.1088 -0.0386  0.0574
49465SOL    HW166387   7.050   4.497   0.292  1.5311 -0.3727  1.4016
49465SOL    HW266388   7.147   4.443   0.188 -0.6569 -0.2253 -0.8163
49466SOL     OW66389  13.708   0.177  10.045  1.4728  0.5082 -0.1104
49466SOL    HW166390  13.776   0.245  10.041  1.5512  0.4238 -0.2390
49466SOL    HW266391  13.756   0.095  10.035  1.4463  0.3939  0.6722
49467SOL     OW66392  11.992   8.418   4.111  0.8689 -0.2251  0.4571
49467SOL    HW166393  11.954   8.505   4.122 -1.1440 -1.2511  2.6523
49467SOL    HW266394  12.050   8.407   4.186  2.1001 -0.3423 -0.4881
49468SOL     OW66395  11.947  11.972   2.403  0.3884  0.4785 -0.1602
49468SOL    HW166396  11.989  11.893   2.371 -2.2678 -1.7735  1.4906
49468SOL    HW266397  11.885  11.996   2.334 -1.0044 -0.7890  0.5961
49469SOL     OW66398  14.012   5.558   9.550 -0.0870 -0.0495  0.4353
49469SOL    HW166399  14.046   5.647   9.543  0.7569 -0.4526 -1.1629
49469SOL    HW266400  14.015   5.524   9.460 -1.2853 -1.3708  0.8618
49470SOL     OW66401   2.897   9.935  11.024  0.0423 -0.1822  0.4028
49470SOL    HW166402   2.879   9.909  11.114 -1.2617 -0.6509  0.0227
49470SOL    HW266403   2.907   9.852  10.977  1.8526  0.0486  0.2962
49471SOL     OW66404  12.931   4.836   8.575 -0.9676 -0.1951  0.1817
49471SOL    HW166405  12.942   4.816   8.482 -1.6114  1.0136 -0.1767
49471SOL    HW266406  13.016   4.815   8.614 -0.1625  0.7831 -0.9664
49472SOL     OW66407   1.382   1.089   2.113 -0.6397  0.4746 -0.1550
49472SOL    HW166408   1.324   1.016   2.134 -0.7985  0.6472  0.0107
49472SOL    HW266409   1.349   1.122   2.029 -0.8094  0.5977 -0.0417
49473SOL     OW66410   1.738   8.534   2.311  0.3047 -0.3170  0.5641
49473SOL    HW166411   1.804   8.525   2.243 -0.1898 -1.6164  0.2219
49473SOL    HW266412   1.656   8.507   2.269 -0.0400 -0.9993  1.6207
49474SOL     OW66413  10.684  11.548   6.302  0.3600  0.4550  0.3426
49474SOL    HW166414  10.634  11.579   6.377 -1.3501 -0.1036 -0.5071
49474SOL    HW266415  10.698  11.626   6.248  1.6652  0.8727  1.2321
49475SOL     OW66416   4.951  11.947   7.768 -0.3694 -0.0455 -0.0796
49475SOL    HW166417   4.865  11.958   7.727 -0.2298 -0.0292 -0.3673
49475SOL    HW266418   4.931  11.913   7.856 -0.6541 -0.3902 -0.2715
49476SOL     OW66419   0.872   9.949  10.253 -0.1675  0.1212 -0.5496
49476SOL    HW166420   0.786   9.989  10.267 -0.8709 -2.1478  2.6338
49476SOL    HW266421   0.925   9.979  10.327  0.8889 -0.7745 -0.9174
49477SOL     OW66422   0.142  12.455   8.319  0.2014 -0.3287 -0.1870
49477SOL    HW166423   0.108  12.421   8.402  0.7289  0.8587  0.5418
49477SOL    HW266424   0.172  12.543   8.340  1.3437 -0.4051 -1.3929
49478SOL     OW66425   4.296   2.100  11.239  0.2127  0.1456  0.7429
49478SOL    HW166426   4.308   2.016  11.194 -0.0642  1.7107 -2.6116
49478SOL    HW266427   4.364   2.101  11.306  2.2010 -1.5914 -1.0687
49479SOL     OW66428   3.732   2.931   4.170 -0.0452  0.0595  0.9395
49479SOL    HW166429   3.814   2.946   4.217 -0.3044  0.4553  1.2780
49479SOL    HW266430   3.665   2.972   4.225 -0.7339 -1.9175  1.6615
49480SOL     OW66431   3.459  10.187   9.194  0.3657  0.2398 -0.2006
49480SOL    HW166432   3.546  10.216   9.222  0.1603  2.2702 -1.5111
49480SOL    HW266433   3.401  10.213   9.266  0.2969  2.6231 -1.0342
49481SOL     OW66434   9.228   8.893   8.326  0.7853 -0.2635 -0.1233
49481SOL    HW166435   9.147   8.918   8.370 -0.2969 -0.4225 -1.9294
49481SOL    HW266436   9.253   8.810   8.367 -0.1529 -0.3801  0.2418
49482SOL     OW66437   7.642  12.889  13.602  0.2303 -0.3083 -0.2751
49482SOL    HW166438   7.552  12.916  13.587 -0.1459 -1.3800 -0.0210
49482SOL    HW266439   7.635  12.807  13.650  1.3593  0.6676  1.6765
49483SOL     OW66440   8.783  12.591   0.767  0.4907 -0.0878  0.1221
49483SOL    HW166441   8.852  12.602   0.832  0.5953 -0.1842  0.0292
49483SOL    HW266442   8.756  12.500   0.775  0.8594 -0.2445 -0.3109
49484SOL     OW66443   2.718  14.082   8.764 -0.3851  0.1332  0.4470
49484SOL    HW166444   2.785  14.073   8.832  0.0225 -1.0106 -0.0796
49484SOL    HW266445   2.728  14.004   8.710 -1.3243  0.5631 -0.3830
49485SOL     OW66446   4.672   2.475   7.909  0.2844  0.3736  0.2065
49485SOL    HW166447   4.606   2.524   7.957 -1.3217  0.7887 -2.2550
49485SOL    HW266448   4.720   2.542   7.860 -1.9177 -0.3166 -3.1854
49486SOL     OW66449  11.268   8.305   3.374  0.3251 -0.0220 -0.7780
49486SOL    HW166450  11.342   8.246   3.367  0.4494  0.2568 -2.1571
49486SOL    HW266451  11.196   8.261   3.328 -0.5230 -0.4860  0.9077
49487SOL     OW66452  13.257   7.050  13.589  0.4422  0.2313  0.0749
49487SOL    HW166453  13.257   7.125  13.648  0.9152 -1.0246  1.7542
49487SOL    HW266454  13.240   7.087  13.503  0.2861  2.2064  0.9051
49488SOL     OW66455  10.087   3.473   7.578  0.0345 -0.1810  0.0030
49488SOL    HW166456  10.166   3.446   7.532  0.2432 -0.2235  0.3842
49488SOL    HW266457  10.118   3.524   7.653 -0.2117 -1.3123  0.9261
49489SOL     OW66458   7.197  13.783   1.657  0.6541  0.1128  0.1525
49489SOL    HW166459   7.201  13.878   1.645 -0.1586  0.0903 -0.4049
49489SOL    HW266460   7.236  13.747   1.577 -0.7666 -0.0118 -0.5275
49490SOL     OW66461  11.893   1.448   7.483 -0.6810 -0.5709  0.2724
49490SOL    HW166462  11.837   1.507   7.533  1.2962  0.9133  0.8937
49490SOL    HW266463  11.978   1.452   7.527  0.1098 -2.2558 -0.9468
49491SOL     OW66464  11.954  13.138  13.644  0.2559  0.4332 -0.9752
49491SOL    HW166465  11.949  13.156  13.738  1.8259 -0.1306 -0.7469
49491SOL    HW266466  11.883  13.077  13.627  0.5936 -0.2777  0.0685
49492SOL     OW66467  10.766   7.143  13.221 -0.3994  0.0726  0.4885
49492SOL    HW166468  10.832   7.190  13.169  1.4654 -1.6232  1.1910
49492SOL    HW266469  10.765   7.190  13.304 -2.3030  1.8773 -0.4532
49493SOL     OW66470   1.027   0.656   9.927  0.2418  0.6009 -0.8952
49493SOL    HW166471   1.105   0.712   9.922  0.1980  0.7263 -0.2646
49493SOL    HW266472   1.058   0.577   9.971  0.0637  0.5642 -0.8350
49494SOL     OW66473  11.755  11.924  13.769  0.4592  0.0081  0.0139
49494SOL    HW166474  11.823  11.911  13.835  2.3367  0.1690 -1.8039
49494SOL    HW266475  11.760  12.018  13.748 -1.5745  0.4126  1.0850
49495SOL     OW66476   3.058   7.669   8.206 -0.2478 -0.1805  0.5212
49495SOL    HW166477   3.102   7.638   8.127 -1.2222  0.6265 -0.3628
49495SOL    HW266478   3.070   7.599   8.270  0.1935 -1.0263 -0.4713
49496SOL     OW66479  11.530   0.296   5.180  0.1874 -0.6967 -0.2913
49496SOL    HW166480  11.443   0.322   5.151  0.5444 -0.3744 -1.1031
49496SOL    HW266481  11.541   0.340   5.264  0.2331  0.6737 -0.9903
49497SOL     OW66482  10.236   1.657  12.072 -0.0578  0.4335 -0.4472
49497SOL    HW166483  10.215   1.649  11.979  1.1700 -1.1750 -0.6391
49497SOL    HW266484  10.317   1.707  12.074  0.3252 -0.1806 -0.3162
49498SOL     OW66485  10.556   3.533  11.003  0.4032 -0.1258  0.2712
49498SOL    HW166486  10.571   3.455  10.951 -1.6015 -0.9468  0.7984
49498SOL    HW266487  10.577   3.506  11.093  0.1219  0.0440  0.3917
49499SOL     OW66488   5.324   5.572  11.546  0.4528 -1.1638 -0.1011
49499SOL    HW166489   5.291   5.560  11.457  1.4451  0.6545 -0.7721
49499SOL    HW266490   5.405   5.521  11.547  1.5513  0.4642 -0.9867
49500SOL     OW66491  12.472   0.076  10.989  0.2947  0.3378 -0.1600
49500SOL    HW166492  12.509  -0.010  11.007 -0.9971 -0.0497  0.7562
49500SOL    HW266493  12.410   0.092  11.060 -2.7602  0.1073 -2.5634
49501SOL     OW66494   6.020   2.522   2.776 -0.1127 -0.4705 -0.8363
49501SOL    HW166495   6.044   2.440   2.733  1.0402 -0.2604 -0.6317
49501SOL    HW266496   6.092   2.582   2.756 -0.7296  0.3632 -0.6179
49502SOL     OW66497   2.315  10.510  13.133 -0.0514 -0.6061  0.2330
49502SOL    HW166498   2.300  10.601  13.107  3.7245  0.4639  1.0426
49502SOL    HW266499   2.281  10.505  13.223 -0.3515  0.0003  0.1589
49503SOL     OW66500   7.039   3.300   1.016  0.2770  1.0269 -0.3544
49503SOL    HW166501   7.074   3.210   1.012 -3.1944 -0.5176  0.6686
49503SOL    HW266502   7.008   3.310   1.105 -0.0476  3.0332 -0.6520
49504SOL     OW66503   3.436   1.107  10.026 -0.2767  0.1198 -0.0759
49504SOL    HW166504   3.430   1.051   9.949  0.5895  0.1932 -0.2022
49504SOL    HW266505   3.384   1.184  10.004  0.7336  0.5675 -0.9719
49505SOL     OW66506   5.199   1.240   7.870 -0.2440  0.3503 -0.1506
49505SOL    HW166507   5.241   1.239   7.956  0.1629  1.1097 -0.3292
49505SOL    HW266508   5.142   1.317   7.872  0.2745  0.7637 -0.7883
49506SOL     OW66509  11.996   9.254   6.342  0.3413  0.0775  0.4640
49506SOL    HW166510  11.994   9.337   6.294 -1.6732  0.9308  1.8306
49506SOL    HW266511  12.035   9.277   6.427 -2.6241  0.3791  1.8793
49507SOL     OW66512   4.006   3.941  10.441  0.2572 -0.1100 -0.0300
49507SOL    HW166513   3.932   3.896  10.398  0.4593  0.0379 -0.5368
49507SOL    HW266514   4.031   4.009  10.379  1.0945 -0.4287 -0.0438
49508SOL     OW66515   3.037   1.281   3.109  0.2611  0.3854  0.3633
49508SOL    HW166516   3.128   1.273   3.081 -0.1604  0.4256 -1.0966
49508SOL    HW266517   3.040   1.344   3.181  1.4864 -0.2730  0.9215
49509SOL     OW66518   0.244  11.459  11.914 -0.1102 -0.1931  0.8570
49509SOL    HW166519   0.331  11.465  11.955  1.1569  0.0030 -1.6524
49509SOL    HW266520   0.259  11.408  11.834 -2.0917  0.7662 -0.1882
49510SOL     OW66521   5.328   9.900   8.868  0.4327 -0.2705 -0.1544
49510SOL    HW166522   5.312   9.837   8.938 -0.1298  0.0976  0.0575
49510SOL    HW266523   5.422   9.915   8.870  0.4715 -0.5568  0.2759
49511SOL     OW66524   8.931  11.759  14.050  0.0245  0.4453 -0.0782
49511SOL    HW166525   8.960  11.785  14.137  0.6165 -0.6457  0.0805
49511SOL    HW266526   8.951  11.665  14.045  1.0525  0.7015 -1.7805
49512SOL     OW66527   0.203   5.074   4.984 -0.7148 -0.0334  0.1487
49512SOL    HW166528   0.181   5.165   5.005 -0.8814 -0.2117  0.7728
49512SOL    HW266529   0.146   5.053   4.910  0.0437  0.6766 -0.6710
49513SOL     OW66530   2.900  13.598   3.128  0.6328  0.5558 -0.0131
49513SOL    HW166531   2.820  13.637   3.161  0.0176 -0.8234  0.1869
49513SOL    HW266532   2.902  13.621   3.035 -1.8955 -2.2528 -0.9509
49514SOL     OW66533   9.356   4.755   6.311 -0.3737 -0.4994  0.1510
49514SOL    HW166534   9.404   4.791   6.237  1.2414 -0.1289  1.3354
49514SOL    HW266535   9.345   4.662   6.289 -1.2770 -0.1044 -1.2116
49515SOL     OW66536   0.085   2.523   4.611 -0.0519  0.6055 -0.1364
49515SOL    HW166537   0.017   2.589   4.621 -0.1428  0.5457 -0.3677
49515SOL    HW266538   0.138   2.532   4.690 -0.4960  0.4581  0.1825
49516SOL     OW66539   1.592   1.440  13.061  0.0279  0.1541  0.2171
49516SOL    HW166540   1.634   1.513  13.107  1.2791 -0.9054  0.8089
49516SOL    HW266541   1.575   1.474  12.973 -0.2794  1.4569  0.7575
49517SOL     OW66542   6.030   9.545   9.259  0.3361 -0.0195 -0.0828
49517SOL    HW166543   6.042   9.472   9.319  2.4246 -0.5922 -1.1275
49517SOL    HW266544   6.078   9.520   9.181  0.5292  2.1801 -0.7268
49518SOL     OW66545   8.401   5.448   1.354  0.2438  0.3286 -0.2787
49518SOL    HW166546   8.332   5.381   1.353 -2.0368  2.5301 -0.0907
49518SOL    HW266547   8.383   5.502   1.277  2.1648  0.6450 -0.5589
49519SOL     OW66548   0.233   2.095   0.563 -0.4328 -0.5614  0.5301
49519SOL    HW166549   0.241   2.037   0.638  1.9630 -0.2235  0.6044
49519SOL    HW266550   0.196   2.041   0.493 -1.2385 -1.2756  1.4894
49520SOL     OW66551   2.327   3.111   9.850 -0.6314 -0.0147 -0.0252
49520SOL    HW166552   2.328   3.082   9.941  2.5684 -0.1041  0.0448
49520SOL    HW266553   2.388   3.051   9.806 -1.2712  0.7109 -1.9894
49521SOL     OW66554   7.713  10.430   4.622  0.5318  0.2598  0.3045
49521SOL    HW166555   7.773  10.505   4.620  0.4167  0.3297 -0.7848
49521SOL    HW266556   7.659  10.440   4.543 -0.2191 -0.3735  0.7246
49522SOL     OW66557   4.313  10.585   8.084  0.2901  0.0659  0.2318
49522SOL    HW166558   4.327  10.540   8.167  0.6879  0.7259  0.5310
49522SOL    HW266559   4.391  10.640   8.073 -0.9532  2.0139  0.7468
49523SOL     OW66560   0.834  10.684  14.060  0.0572  0.0224 -0.4238
49523SOL    HW166561   0.848  10.670  13.966  1.2633 -0.0738 -0.2407
49523SOL    HW266562   0.781  10.763  14.065 -0.1009 -0.0291 -1.1902
49524SOL     OW66563  12.911   3.407   2.127 -0.1121  0.0737  0.5542
49524SOL    HW166564  12.975   3.472   2.097 -0.3843  1.4525  2.7499
49524SOL    HW266565  12.827   3.454   2.125 -1.0924 -1.5703 -1.8471
49525SOL     OW66566   8.070  11.299   6.476  0.0333 -0.2347  0.4217
49525SOL    HW166567   8.125  11.350   6.535  0.8552 -1.1286  0.4530
49525SOL    HW266568   8.050  11.358   6.403 -0.2640  0.5939  1.1667
49526SOL     OW66569  11.344   1.670   1.983  0.6139 -0.1470  0.7587
49526SOL    HW166570  11.318   1.598   2.040 -0.7980 -0.6846 -0.4734
49526SOL    HW266571  11.265   1.724   1.976 -0.0401 -1.2859 -2.3432
49527SOL     OW66572   9.171  13.958   7.052  0.2917 -0.0217  0.0388
49527SOL    HW166573   9.151  14.035   7.105 -1.6711 -0.5729  0.1448
49527SOL    HW266574   9.170  13.991   6.962 -1.8829 -0.1397 -0.0197
49528SOL     OW66575   0.928   6.610   9.186 -0.0139  0.1886  0.1459
49528SOL    HW166576   0.849   6.639   9.232 -1.1355 -0.2830 -1.3665
49528SOL    HW266577   0.953   6.686   9.133 -0.1854 -0.0432 -0.2788
49529SOL     OW66578  11.468   9.480   8.386 -0.3644  0.5796 -0.1613
49529SOL    HW166579  11.398   9.486   8.451  0.6091  1.2635  0.8421
49529SOL    HW266580  11.525   9.410   8.418  0.7626  1.7115  0.3941
49530SOL     OW66581   5.853   5.463   1.589  0.2955 -0.8835  0.1252
49530SOL    HW166582   5.872   5.469   1.495 -0.9997 -1.9701 -0.2290
49530SOL    HW266583   5.874   5.550   1.623 -0.2984 -0.1097 -1.3850
49531SOL     OW66584   2.208   3.642   7.034  0.3313 -0.1354 -0.6156
49531SOL    HW166585   2.176   3.623   6.946 -1.4550 -0.0359 -0.0443
49531SOL    HW266586   2.235   3.734   7.031 -0.0769 -0.0230 -0.9857
49532SOL     OW66587  13.586   4.052   7.295 -0.2167  0.8094 -0.2139
49532SOL    HW166588  13.544   3.967   7.299 -0.2521  0.8507  2.9495
49532SOL    HW266589  13.647   4.046   7.221 -0.1573 -1.9805 -0.0232
49533SOL     OW66590  10.782   5.889   3.126 -0.0866  0.2853 -0.0098
49533SOL    HW166591  10.732   5.963   3.091 -2.2805  0.0467  2.3643
49533SOL    HW266592  10.829   5.926   3.201  1.5051 -0.0580 -0.7878
49534SOL     OW66593   5.002   0.712   0.570 -0.1173  0.0691 -0.3384
49534SOL    HW166594   5.091   0.735   0.543  1.5487 -5.0475 -0.1953
49534SOL    HW266595   4.948   0.734   0.494  1.4791  1.7311 -1.0935
49535SOL     OW66596  12.257   2.799   5.038 -0.1204 -0.1260 -0.0273
49535SOL    HW166597  12.245   2.893   5.052 -1.0802 -0.5058  2.1734
49535SOL    HW266598  12.176   2.771   4.995  0.0864 -0.0012 -0.5108
49536SOL     OW66599  11.586  13.870   2.474  0.2779 -0.0229 -0.0256
49536SOL    HW166600  11.652  13.800   2.484  0.0078 -0.1930  0.6163
49536SOL    HW266601  11.573  13.877   2.380  0.5987 -0.5738 -0.1183
49537SOL     OW66602  12.099   5.383  11.139 -0.1902 -0.5612  0.5113
49537SOL    HW166603  12.072   5.304  11.185  0.9620 -0.4070  1.4792
49537SOL    HW266604  12.178   5.358  11.091 -0.0063 -0.0960  0.5616
49538SOL     OW66605   7.964   2.278   0.839  0.4189  0.7291 -0.4134
49538SOL    HW166606   7.882   2.244   0.802  0.3176  0.2180  0.2637
49538SOL    HW266607   8.026   2.273   0.767  0.0359  0.4568 -0.7326
49539SOL     OW66608   2.324  10.195   5.844  0.1941  0.5401  0.0747
49539SOL    HW166609   2.318  10.100   5.852 -0.3899  0.5986  0.4074
49539SOL    HW266610   2.365  10.210   5.759 -2.0371  0.0305 -1.1761
49540SOL     OW66611   3.258  11.786  13.225  0.4978  0.3178  0.1505
49540SOL    HW166612   3.289  11.793  13.134  1.6252 -0.9605  0.4074
49540SOL    HW266613   3.286  11.868  13.266  0.0374  0.8771 -0.6222
49541SOL     OW66614   2.833  12.756  12.963  0.5816  0.0534  0.0850
49541SOL    HW166615   2.845  12.850  12.978 -0.3685  0.2324 -0.1659
49541SOL    HW266616   2.862  12.714  13.044  0.9601  0.5712  0.2178
49542SOL     OW66617  10.892   1.782  13.956 -0.3371  0.4090  0.1652
49542SOL    HW166618  10.799   1.801  13.969  0.3976  3.1902  2.4856
49542SOL    HW266619  10.912   1.815  13.869 -1.2446  1.0317  0.1828
49543SOL     OW66620  11.570  10.031   9.825  0.2780  0.5057  0.3412
49543SOL    HW166621  11.570  10.126   9.822 -0.2370  0.5710  1.8216
49543SOL    HW266622  11.611  10.009   9.909  0.7474 -0.5837 -0.1529
49544SOL     OW66623  13.069   2.957   2.113 -0.3948 -0.7342 -0.4512
49544SOL    HW166624  13.011   2.992   2.046  0.0950  0.4008 -0.3022
49544SOL    HW266625  13.113   2.883   2.072 -1.5338 -1.2797 -0.7362
49545SOL     OW66626   2.298   0.080   4.063 -0.1673 -0.3754  0.2694
49545SOL    HW166627   2.258   0.061   4.148  1.0088 -1.4531  0.6140
49545SOL    HW266628   2.233   0.133   4.017 -1.6451 -1.4157  1.0832
49546SOL     OW66629   7.917  10.859  11.937 -0.3506 -0.0038 -0.2139
49546SOL    HW166630   7.997  10.827  11.896 -1.1659 -1.5296 -0.6912
49546SOL    HW266631   7.932  10.953  11.949  1.5239 -0.2702 -0.2074
49547SOL     OW66632  11.094   1.876   7.510 -0.1420 -0.3315 -0.5143
49547SOL    HW166633  11.169   1.838   7.464 -0.4799 -0.5043 -0.9167
49547SOL    HW266634  11.020   1.822   7.486 -0.3304 -0.4122  0.2175
49548SOL     OW66635  12.279   4.343   1.359 -0.4775  0.3146  0.2988
49548SOL    HW166636  12.263   4.374   1.270 -2.2055 -1.5609 -0.1326
49548SOL    HW266637  12.317   4.255   1.347 -1.0792 -0.1151  1.3927
49549SOL     OW66638   0.501   5.113   7.489 -0.3943  0.2370 -0.1329
49549SOL    HW166639   0.537   5.198   7.515 -0.1116  0.8938 -2.4129
49549SOL    HW266640   0.468   5.075   7.570 -1.1047  2.8084  0.8947
49550SOL     OW66641   5.858  10.186  11.909 -0.1402 -0.6995 -0.4388
49550SOL    HW166642   5.853  10.274  11.947 -0.7901  0.3622 -2.8210
49550SOL    HW266643   5.934  10.146  11.952  0.1843  1.0184  0.6761
49551SOL     OW66644   2.764   1.290  10.247  0.1814 -0.0082  0.0587
49551SOL    HW166645   2.685   1.331  10.283  0.3697  1.3623 -1.0269
49551SOL    HW266646   2.836   1.340  10.285  0.5093 -0.7026  0.3696
49552SOL     OW66647   8.373   9.548   0.661  0.2608 -0.0736  0.0133
49552SOL    HW166648   8.286   9.522   0.632  0.2835  0.0957 -0.2053
49552SOL    HW266649   8.373   9.644   0.654  0.1060  0.0100  1.0178
49553SOL     OW66650   2.188   9.771  12.270  0.3738 -0.1150 -0.0262
49553SOL    HW166651   2.263   9.743  12.217 -0.2235 -1.9279 -0.0008
49553SOL    HW266652   2.129   9.696  12.269 -1.1837  1.0489  0.4583
49554SOL     OW66653  11.352   7.114   7.025  0.0668  0.4575  0.1455
49554SOL    HW166654  11.270   7.148   6.988  0.9638  0.6889 -1.8001
49554SOL    HW266655  11.326   7.037   7.075 -1.6467  2.1384  2.0208
49555SOL     OW66656   6.197  13.341   8.301 -0.4342 -0.4588  0.0059
49555SOL    HW166657   6.271  13.336   8.240 -1.5895 -1.7776 -1.3761
49555SOL    HW266658   6.227  13.293   8.378  0.5278 -0.0641 -0.1097
49556SOL     OW66659   1.953   8.323   8.820 -0.3983  0.4166 -0.0759
49556SOL    HW166660   1.919   8.242   8.856 -1.8295  1.6995  1.6440
49556SOL    HW266661   2.045   8.325   8.847 -0.2099 -0.7881 -0.5402
49557SOL     OW66662   4.611   0.644   0.988 -0.2904  0.1299  0.7486
49557SOL    HW166663   4.664   0.660   0.910 -1.4211 -1.6014 -0.4736
49557SOL    HW266664   4.647   0.564   1.026 -1.6480 -0.8017  0.1767
49558SOL     OW66665   5.983   8.521   7.398  0.4342  0.0737  0.0886
49558SOL    HW166666   6.022   8.569   7.325 -0.1665 -0.0456 -0.3225
49558SOL    HW266667   6.006   8.429   7.381 -1.0352 -0.1583 -0.8394
49559SOL     OW66668   5.730   8.276  10.014  0.4053 -0.8517 -0.4345
49559SOL    HW166669   5.695   8.334   9.946  0.3782  0.4057  0.6006
49559SOL    HW266670   5.653   8.233  10.051 -0.0423  1.1363  1.1441
49560SOL     OW66671   3.884  10.463   1.748 -0.2332  0.0173 -0.1996
49560SOL    HW166672   3.870  10.416   1.666  2.7776 -0.7863 -0.3408
49560SOL    HW266673   3.860  10.401   1.817  0.2158 -0.4171 -0.4345
49561SOL     OW66674  10.077   0.649  10.357  1.1653 -0.4633  0.3817
49561SOL    HW166675  10.083   0.671  10.264 -0.9674 -0.0950  0.2868
49561SOL    HW266676  10.008   0.706  10.391 -0.1913 -2.6676  1.5188
49562SOL     OW66677   4.790   7.606   2.945  0.7113 -0.0379 -0.2098
49562SOL    HW166678   4.759   7.610   3.035 -0.5439  1.3264 -0.6579
49562SOL    HW266679   4.881   7.636   2.950  0.8978 -0.7087  0.6828
49563SOL     OW66680  10.190   6.141   1.950  0.1900  0.2280 -0.4483
49563SOL    HW166681  10.105   6.124   1.911  0.2551 -1.0748 -0.0740
49563SOL    HW266682  10.178   6.123   2.044  0.2387  2.5090  0.0573
49564SOL     OW66683  11.311  12.026  11.334  0.0822 -0.7931 -0.3248
49564SOL    HW166684  11.281  12.069  11.414  1.9620  0.5832 -0.2926
49564SOL    HW266685  11.283  12.085  11.263  1.0113 -0.4866 -0.4400
49565SOL     OW66686   9.398  10.680   1.168 -0.3697 -0.2955 -0.2183
49565SOL    HW166687   9.357  10.626   1.101 -0.3014 -0.0792 -0.4389
49565SOL    HW266688   9.343  10.758   1.172 -1.4118 -1.0591  1.2485
49566SOL     OW66689  14.001   5.217  14.093  0.7626  0.7191 -0.2370
49566SOL    HW166690  14.089   5.182  14.098 -0.0366 -1.2821  1.3366
49566SOL    HW266691  14.007   5.304  14.132  1.8756  0.2524  0.6696
49567SOL     OW66692   2.176   7.702   9.561 -0.5671 -0.7462 -0.2720
49567SOL    HW166693   2.230   7.769   9.604 -0.5606 -0.4091 -0.8000
49567SOL    HW266694   2.218   7.689   9.476 -0.9435 -0.9618 -0.4241
49568SOL     OW66695   5.579   3.721   3.973 -0.0402 -0.9452 -0.1491
49568SOL    HW166696   5.654   3.705   4.031  1.3956  0.2367 -1.5952
49568SOL    HW266697   5.504   3.725   4.032  0.9674 -2.4736  1.3217
49569SOL     OW66698   2.491   2.638  13.798 -0.0221 -0.0614 -0.1922
49569SOL    HW166699   2.561   2.577  13.774 -0.1680  0.3428 -1.7198
49569SOL    HW266700   2.524   2.723  13.771 -0.4639  0.3438  0.5300
49570SOL     OW66701  14.074   6.898   9.456 -0.0483 -0.2977 -0.7744
49570SOL    HW166702  14.013   6.917   9.385  1.1224  0.0571 -1.7291
49570SOL    HW266703  14.074   6.977   9.509  1.2101  0.6056 -2.0353
49571SOL     OW66704   5.425   0.724   3.835  0.4548  0.2055  0.6093
49571SOL    HW166705   5.342   0.762   3.864  0.3033 -0.1034  0.5868
49571SOL    HW266706   5.453   0.669   3.909  1.2929  1.3191  1.1330
49572SOL     OW66707   7.445   9.469  10.693  0.0533  0.3822  0.2863
49572SOL    HW166708   7.492   9.546  10.663 -2.1511  1.4943 -0.5509
49572SOL    HW266709   7.396   9.499  10.770 -1.1759 -0.0159 -0.3058
49573SOL     OW66710   9.976  12.615   9.697 -0.2625 -0.1199 -0.1587
49573SOL    HW166711   9.985  12.545   9.761 -1.9685 -0.6462 -0.4490
49573SOL    HW266712   9.981  12.571   9.612  0.9394  0.4347 -0.3928
49574SOL     OW66713   1.422   0.517   3.883 -0.3872 -0.0704 -0.3669
49574SOL    HW166714   1.516   0.517   3.862 -0.1764 -1.0957  0.4859
49574SOL    HW266715   1.382   0.570   3.814  0.8648  0.7271 -0.5093
49575SOL     OW66716  13.696   6.301   4.897 -0.2320 -0.0614 -0.8814
49575SOL    HW166717  13.783   6.283   4.932 -0.9256 -0.1616  0.8526
49575SOL    HW266718  13.695   6.257   4.812  1.2842 -0.3161 -0.7910
49576SOL     OW66719   8.774  12.183   4.189  0.6087 -0.1685 -0.0509
49576SOL    HW166720   8.778  12.268   4.234 -1.8740  1.4206 -2.5223
49576SOL    HW266721   8.690  12.146   4.216  0.4473 -0.5568 -1.0587
49577SOL     OW66722   3.323  12.673   6.308 -0.0550  0.4425 -0.1466
49577SOL    HW166723   3.273  12.602   6.268 -0.9466 -0.0972  1.7963
49577SOL    HW266724   3.338  12.644   6.398  0.2751  2.3614  0.4633
49578SOL     OW66725  10.183   5.339   8.461  0.2696 -0.4170  0.1705
49578SOL    HW166726  10.140   5.260   8.495 -0.7926 -0.3309 -0.9169
49578SOL    HW266727  10.135   5.411   8.503  1.5028 -0.3099  1.4831
49579SOL     OW66728   1.169  12.120   5.351 -0.5065  0.4026  0.2207
49579SOL    HW166729   1.177  12.070   5.432 -2.6059 -0.2533  0.0841
49579SOL    HW266730   1.126  12.059   5.290  1.3035  0.7492 -1.5404
49580SOL     OW66731   0.785   7.691  11.826  0.1322  0.0430  0.1750
49580SOL    HW166732   0.845   7.659  11.893 -0.8127  0.6127  1.3263
49580SOL    HW266733   0.814   7.781  11.808  1.0519 -0.4536 -1.0165
49581SOL     OW66734  12.682  11.100   3.772 -0.2495  0.0451  0.1719
49581SOL    HW166735  12.723  11.106   3.686 -0.4996 -0.8572 -0.0280
49581SOL    HW266736  12.599  11.055   3.756 -0.4890  0.2412  0.8237
49582SOL     OW66737   1.050  14.000   0.049 -0.6181 -0.0747  0.3467
49582SOL    HW166738   1.119  13.980  -0.014 -0.2725  1.0375  0.3526
49582SOL    HW266739   1.088  13.975   0.134  2.5080  6.0555  1.3476
49583SOL     OW66740   9.781   2.650   7.461 -0.6478  0.5643 -0.2848
49583SOL    HW166741   9.858   2.688   7.417  1.3935 -1.3716  1.3799
49583SOL    HW266742   9.771   2.701   7.541  1.6852 -1.6910  1.6201
49584SOL     OW66743   2.009  14.065   2.100 -0.1093  0.0311  0.2313
49584SOL    HW166744   1.995  14.105   2.015 -2.2730 -0.6789  0.1920
49584SOL    HW266745   2.054  13.983   2.082  0.6324  0.4986 -0.0763
49585SOL     OW66746   1.854  13.408  13.512  0.5002  0.1743  0.0598
49585SOL    HW166747   1.807  13.434  13.433  0.6994 -0.6773 -0.3576
49585SOL    HW266748   1.891  13.322  13.490 -0.6782 -0.7700  1.5850
49586SOL     OW66749  13.608   7.567  11.710 -0.4618  0.2202  0.1680
49586SOL    HW166750  13.573   7.655  11.699  0.5043  0.4985 -0.9629
49586SOL    HW266751  13.618   7.534  11.620 -0.3429 -0.8466  0.5564
49587SOL     OW66752   0.976   7.419  12.286 -0.4122  0.1268  0.3238
49587SOL    HW166753   0.943   7.506  12.262  0.4372  0.5522  0.6606
49587SOL    HW266754   1.055   7.408  12.234 -0.3133 -0.2966  0.5589
49588SOL     OW66755   0.442  12.142  12.129  0.5050 -0.4620  0.2113
49588SOL    HW166756   0.511  12.203  12.155 -2.1020  3.2713 -0.8117
49588SOL    HW266757   0.431  12.157  12.036 -0.9099 -1.8985  0.1072
49589SOL     OW66758  12.293   5.325   6.203 -0.2170  0.2680  0.1437
49589SOL    HW166759  12.230   5.392   6.174 -0.3032 -0.2720 -0.9550
49589SOL    HW266760  12.241   5.245   6.211  0.1369  0.0453  0.2143
49590SOL     OW66761   4.967   2.432  10.190  0.4310 -0.4810  0.1177
49590SOL    HW166762   4.970   2.365  10.259 -1.5251  0.0649  0.7990
49590SOL    HW266763   5.046   2.417  10.139  1.3826 -1.6296  1.8157
49591SOL     OW66764  13.445   0.294  12.644 -0.2337 -0.2188  0.1850
49591SOL    HW166765  13.520   0.301  12.702 -1.0418 -0.7372  1.3235
49591SOL    HW266766  13.384   0.236  12.689 -0.8926 -0.6499 -1.1862
49592SOL     OW66767   4.173   3.553   7.391  0.2391 -0.1370 -0.7487
49592SOL    HW166768   4.095   3.536   7.339  0.7306  1.3664 -2.0562
49592SOL    HW266769   4.241   3.574   7.327  1.8621 -1.7908  0.3231
49593SOL     OW66770   5.367   4.913  14.042 -0.4536  0.4353 -0.2251
49593SOL    HW166771   5.426   4.917  13.967  0.3259  0.9097  0.3996
49593SOL    HW266772   5.413   4.858  14.106  0.0088  2.0073  0.8422
49594SOL     OW66773   6.342   0.288   9.634  0.5203 -0.1271  0.4371
49594SOL    HW166774   6.327   0.383   9.633  2.3443  0.2317  2.1040
49594SOL    HW266775   6.330   0.261   9.543  0.0506  1.7159 -0.0813
49595SOL     OW66776  13.489   0.350   8.040  0.5650 -0.4537 -0.2100
49595SOL    HW166777  13.424   0.292   8.080 -0.2548 -0.7800 -1.9095
49595SOL    HW266778  13.439   0.428   8.016  1.2370  0.1214  0.2138
49596SOL     OW66779   8.519  12.415   6.859 -0.5949  0.2306  0.0629
49596SOL    HW166780   8.430  12.381   6.870 -0.8948  0.4879 -1.4367
49596SOL    HW266781   8.575  12.337   6.865 -1.0866 -0.2154 -0.9499
49597SOL     OW66782   0.563  10.182   0.589  0.6666 -0.0242  0.3554
49597SOL    HW166783   0.582  10.219   0.503  0.5313  0.1508  0.4007
49597SOL    HW266784   0.494  10.237   0.624  0.5676 -0.2290  0.4859
49598SOL     OW66785   7.320  10.195  10.296 -0.5279 -0.0281 -0.0424
49598SOL    HW166786   7.333  10.249  10.374  1.0016  0.8925 -0.8786
49598SOL    HW266787   7.378  10.120  10.310 -0.4196  0.0279 -0.1932
49599SOL     OW66788   2.006   9.404   0.511  0.0081 -0.0611 -0.5560
49599SOL    HW166789   1.925   9.440   0.475 -0.6113  0.3259  1.1452
49599SOL    HW266790   2.075   9.434   0.451 -0.8300  1.5989 -0.7263
49600SOL     OW66791   6.740  12.980  12.158  0.5972 -0.0256 -0.4560
49600SOL    HW166792   6.693  12.945  12.233 -0.7651  2.0192 -0.2884
49600SOL    HW266793   6.681  12.965  12.084  0.3524  1.1266 -0.5088
49601SOL     OW66794   6.194  10.054   1.020 -0.3247  0.3505 -0.6126
49601SOL    HW166795   6.108  10.071   1.060  0.8823 -0.2521  2.6036
49601SOL    HW266796   6.254  10.110   1.069  1.2378  0.2942 -2.3715
49602SOL     OW66797  12.574  13.676   1.135  0.3740  0.1979  0.1902
49602SOL    HW166798  12.513  13.731   1.185  1.0289  0.3233  0.8594
49602SOL    HW266799  12.646  13.734   1.112 -0.1238  0.2639 -1.3280
49603SOL     OW66800  11.331   3.943   1.064  0.3026  0.2501  0.2523
49603SOL    HW166801  11.329   4.020   1.121 -0.4216  0.7813 -0.4698
49603SOL    HW266802  11.347   3.978   0.976 -3.5505  0.0442 -0.7135
49604SOL     OW66803   4.264  10.432   0.781 -0.4366 -0.0895  0.4449
49604SOL    HW166804   4.350  10.411   0.817 -0.1699  1.0963  0.5239
49604SOL    HW266805   4.275  10.425   0.686 -0.1437  0.4391  0.4368
49605SOL     OW66806  13.776   3.227  12.892  0.1006  0.2554 -0.5523
49605SOL    HW166807  13.851   3.254  12.945 -1.4600  0.7615  1.5311
49605SOL    HW266808  13.763   3.300  12.831  0.9843  0.3836 -0.6044
49606SOL     OW66809  13.875   9.195   0.246  0.0398 -0.1559  0.1852
49606SOL    HW166810  13.836   9.129   0.189 -2.0493 -0.2666  1.6594
49606SOL    HW266811  13.877   9.274   0.192 -0.2608 -0.6819 -0.6108
49607SOL     OW66812   2.085   0.370   9.760  0.1303  0.3353  0.6644
49607SOL    HW166813   2.164   0.360   9.706  0.1864 -1.8596  1.0871
49607SOL    HW266814   2.013   0.373   9.696  0.4683  1.6990  0.3123
49608SOL     OW66815   9.083   8.247   0.226  0.5428  0.2279  0.6759
49608SOL    HW166816   8.994   8.225   0.254  1.2334 -1.2198  1.9008
49608SOL    HW266817   9.106   8.178   0.163  1.2616 -0.2062  1.3939
49609SOL     OW66818  11.779  10.051   4.354  0.2733  0.2995  0.3935
49609SOL    HW166819  11.835  10.128   4.347 -0.1245  0.7988  2.1772
49609SOL    HW266820  11.837   9.977   4.335  0.8735  0.9754 -0.4496
49610SOL     OW66821   9.631   0.606  12.636  0.3575  0.3844 -0.0165
49610SOL    HW166822   9.693   0.670  12.671  3.0864 -1.5914 -0.8984
49610SOL    HW266823   9.606   0.640  12.551 -1.4017  2.1309  1.1040
49611SOL     OW66824  12.433   9.711   5.501 -0.1924  0.1009  0.3663
49611SOL    HW166825  12.376   9.639   5.477 -2.1965  1.9161 -0.5977
49611SOL    HW266826  12.386   9.757   5.571 -0.0494  1.7219 -0.5485
49612SOL     OW66827   1.158  12.337  11.237  0.0143  0.1863 -0.3956
49612SOL    HW166828   1.224  12.345  11.305 -0.1523  0.4896 -0.2704
49612SOL    HW266829   1.104  12.415  11.245  0.6014  0.7383 -1.5282
49613SOL     OW66830   1.032   6.565   7.950 -0.4604 -0.3906  0.3161
49613SOL    HW166831   1.059   6.491   7.896 -0.3104  0.8246 -1.3582
49613SOL    HW266832   1.072   6.549   8.036 -2.4160 -3.4424  0.8067
49614SOL     OW66833   1.451   5.007   9.140  0.1204  0.1881 -0.2438
49614SOL    HW166834   1.494   4.980   9.059  0.6434 -0.4148  0.2207
49614SOL    HW266835   1.371   4.955   9.144  1.2891 -1.6572  0.8167
49615SOL     OW66836   7.908   9.680  12.330 -0.1798  0.1457  0.2136
49615SOL    HW166837   7.843   9.696  12.262  1.3090  1.4450 -0.9931
49615SOL    HW266838   7.894   9.588  12.356 -1.3543 -0.1096 -1.2034
49616SOL     OW66839   6.539   3.754   5.556  0.6437  0.2541 -0.1323
49616SOL    HW166840   6.450   3.751   5.520  0.2140 -0.7194  0.9445
49616SOL    HW266841   6.532   3.709   5.641  2.1770  0.1021 -0.0606
49617SOL     OW66842   2.770  11.056   5.312 -0.5605  0.2692  0.5888
49617SOL    HW166843   2.847  11.108   5.336 -1.2078  1.1010  0.9033
49617SOL    HW266844   2.763  10.990   5.381  1.2631 -1.3881 -0.6958
49618SOL     OW66845   9.406   8.909  13.338 -0.0051  0.4490 -0.0323
49618SOL    HW166846   9.426   8.999  13.364  3.8604 -0.0693 -0.5407
49618SOL    HW266847   9.410   8.911  13.242  1.4518 -0.4386 -0.0133
49619SOL     OW66848   7.869  13.226  12.627  0.1464 -0.0597 -0.6978
49619SOL    HW166849   7.897  13.215  12.536  1.9881 -0.0360 -0.1791
49619SOL    HW266850   7.941  13.190  12.679 -0.1937  1.2865  0.7792
49620SOL     OW66851   3.181   4.486   5.585  0.0005  0.1979  0.0792
49620SOL    HW166852   3.170   4.495   5.680  0.2408 -0.3372  0.1566
49620SOL    HW266853   3.275   4.491   5.571 -0.0384  0.3407 -0.1427
49621SOL     OW66854   2.996   1.824  11.961  0.1130 -0.2292  0.1962
49621SOL    HW166855   2.930   1.886  11.992  1.5552  1.0799  0.7959
49621SOL    HW266856   2.951   1.740  11.958 -1.6452  0.6596  0.2944
49622SOL     OW66857   7.500   4.772  11.573  0.1561  0.0450 -0.0760
49622SOL    HW166858   7.481   4.865  11.588 -0.6063 -0.2821  1.1619
49622SOL    HW266859   7.526   4.739  11.659 -0.8150 -1.1585 -0.2192
49623SOL     OW66860   1.133   3.295  10.520 -0.1471 -0.3276  0.4865
49623SOL    HW166861   1.203   3.340  10.566 -0.2310  1.8804 -1.3958
49623SOL    HW266862   1.072   3.269  10.589  0.4331  1.5271  1.7630
49624SOL     OW66863   5.849   2.333   6.256 -0.2770  0.2676 -0.0963
49624SOL    HW166864   5.871   2.257   6.203 -3.1773 -0.5355 -0.2834
49624SOL    HW266865   5.763   2.361   6.225 -0.7327  1.6476  2.1503
49625SOL     OW66866   4.160  11.965   7.844  0.3082  0.1706 -0.4429
49625SOL    HW166867   4.218  11.965   7.921 -0.2797  0.3102  0.0047
49625SOL    HW266868   4.193  12.037   7.790  2.2698 -1.4430 -1.5293
49626SOL     OW66869  12.049  13.789  12.305 -0.1227  0.2990 -0.0212
49626SOL    HW166870  12.065  13.768  12.397  0.5376  0.0701 -0.1803
49626SOL    HW266871  11.971  13.843  12.306  0.2747  0.8858  0.7413
49627SOL     OW66872   6.101   8.907  12.081  0.6958  0.4844 -0.2010
49627SOL    HW166873   6.016   8.945  12.058  1.1668  0.9788 -1.1725
49627SOL    HW266874   6.162   8.981  12.081  1.2631  0.0259 -0.2265
49628SOL     OW66875  13.383   3.741   2.601  0.5380  0.3235  0.1309
49628SOL    HW166876  13.326   3.691   2.543 -0.5841  1.3113  0.3426
49628SOL    HW266877  13.346   3.829   2.602  1.2423  0.6410  1.3812
49629SOL     OW66878  11.533   6.662   0.759  0.4088 -0.2592  0.0648
49629SOL    HW166879  11.486   6.596   0.709  0.6464 -0.8823  0.6427
49629SOL    HW266880  11.471   6.734   0.769  0.3945 -0.0838 -1.1857
49630SOL     OW66881  10.379  14.080   6.096 -0.2749  0.0363  0.1923
49630SOL    HW166882  10.303  14.121   6.138  0.5602 -0.0970  1.9266
49630SOL    HW266883  10.425  14.036   6.168  1.5105  0.2051 -0.7944
49631SOL     OW66884   3.833   2.744   9.416  0.2993 -0.2936 -0.1712
49631SOL    HW166885   3.767   2.730   9.348  1.3978 -0.4412 -1.2568
49631SOL    HW266886   3.859   2.655   9.442  0.3078 -0.2413 -0.0052
49632SOL     OW66887   1.528   9.367  12.411  0.0047  0.3491 -0.5467
49632SOL    HW166888   1.603   9.326  12.370  1.7291  1.0849  1.6747
49632SOL    HW266889   1.490   9.298  12.466 -0.5217  0.1937 -1.0896
49633SOL     OW66890   0.290   6.264  11.066 -0.3347 -0.3175 -0.1185
49633SOL    HW166891   0.332   6.192  11.114 -0.1057 -0.8684 -1.1225
49633SOL    HW266892   0.215   6.224  11.023 -0.5381  0.1712 -0.2246
49634SOL     OW66893   5.810   1.901   0.924  0.4574 -0.1471 -0.2628
49634SOL    HW166894   5.765   1.965   0.869  0.2139  0.2840  0.4185
49634SOL    HW266895   5.755   1.823   0.919 -0.7165  0.5359  0.9860
49635SOL     OW66896   7.474   4.880   8.261 -0.5971  0.5985 -0.1048
49635SOL    HW166897   7.475   4.943   8.333  1.7155  0.7514 -0.2041
49635SOL    HW266898   7.523   4.805   8.294  0.5798  0.7082 -1.5276
49636SOL     OW66899  10.203   8.756   5.901  0.0631  0.2118 -0.7496
49636SOL    HW166900  10.195   8.663   5.880 -0.9680  0.5647 -2.0409
49636SOL    HW266901  10.204   8.760   5.997  1.0263 -1.1789 -0.6736
49637SOL     OW66902   9.691  13.148   0.145  0.0175  0.2953 -0.1385
49637SOL    HW166903   9.608  13.142   0.097  1.0943  0.1567 -2.1102
49637SOL    HW266904   9.711  13.241   0.148 -0.2690  0.3416  0.4764
49638SOL     OW66905   7.628   4.260   8.464 -0.1186  0.4957 -0.3141
49638SOL    HW166906   7.586   4.221   8.388  0.1660 -1.1493  0.3414
49638SOL    HW266907   7.643   4.187   8.524 -0.3377  1.7499  1.3340
49639SOL     OW66908   2.183   6.277   2.671 -0.2014  0.6128 -0.3121
49639SOL    HW166909   2.123   6.337   2.714  0.0309  0.1851  0.6235
49639SOL    HW266910   2.237   6.241   2.742 -1.1492 -1.6516 -0.6585
49640SOL     OW66911   0.927   9.277   4.430  0.8946  0.5548 -0.3863
49640SOL    HW166912   0.851   9.254   4.376  0.4980  2.5904 -0.7802
49640SOL    HW266913   0.890   9.312   4.510  1.4576  0.4481 -0.0733
49641SOL     OW66914  13.362   7.547   3.597 -0.2630  1.1545 -0.3797
49641SOL    HW166915  13.335   7.467   3.642 -0.1239 -0.7722 -3.4304
49641SOL    HW266916  13.280   7.585   3.565 -0.2926  2.0546  0.7244
49642SOL     OW66917   2.560   1.318  12.894  0.0339 -0.1817 -0.3355
49642SOL    HW166918   2.549   1.329  12.989 -1.2877 -0.0379 -0.4876
49642SOL    HW266919   2.573   1.407  12.861  1.2552 -0.3014 -0.2183
49643SOL     OW66920  11.175  12.162   0.190  0.4160 -0.1701 -0.5498
49643SOL    HW166921  11.167  12.181   0.097 -0.5116 -2.3046 -0.9700
49643SOL    HW266922  11.085  12.147   0.220  0.5543  1.7483  1.0291
49644SOL     OW66923   1.657  10.590   0.275 -0.1495 -0.2115  0.2713
49644SOL    HW166924   1.580  10.637   0.307  0.8301  1.5992  0.1095
49644SOL    HW266925   1.684  10.536   0.350 -0.9025  0.0122  0.7188
49645SOL     OW66926   9.512  13.073  13.902 -0.3324  0.0187  0.3485
49645SOL    HW166927   9.575  13.062  13.830 -0.1201  1.3631  0.2872
49645SOL    HW266928   9.436  13.114  13.860 -0.7754 -0.4909  0.6452
49646SOL     OW66929   8.430   7.089   2.452 -0.1816 -0.1042  0.7110
49646SOL    HW166930   8.426   7.022   2.384 -0.0758  0.0981  0.5068
49646SOL    HW266931   8.350   7.140   2.440  0.1190  0.2906  0.3686
49647SOL     OW66932  11.062  10.525   6.015 -1.2529 -0.2466 -0.1171
49647SOL    HW166933  11.139  10.523   5.959  0.4380 -0.5018  2.0900
49647SOL    HW266934  11.008  10.451   5.984 -0.3692 -0.4238 -1.3226
49648SOL     OW66935  13.450  10.879   5.969 -0.1810 -0.1226 -0.3473
49648SOL    HW166936  13.368  10.831   5.974  0.3270 -0.9019  1.0118
49648SOL    HW266937  13.430  10.955   5.914 -0.9108 -2.0098 -2.8382
49649SOL     OW66938  13.757   6.409   1.298  0.8116 -0.2468  0.0224
49649SOL    HW166939  13.780   6.466   1.372 -2.6731  1.4399  0.0430
49649SOL    HW266940  13.711   6.335   1.338 -1.5526  0.9294 -0.3471
49650SOL     OW66941   3.588  11.223  11.320  0.4544  0.3379 -0.2114
49650SOL    HW166942   3.551  11.267  11.397  0.0763 -0.1528 -0.1121
49650SOL    HW266943   3.657  11.167  11.355 -0.7737 -1.1184 -0.0151
49651SOL     OW66944   2.301   0.188   2.404 -0.6350  0.1496  0.4308
49651SOL    HW166945   2.214   0.147   2.401 -1.3833  1.5662  1.2494
49651SOL    HW266946   2.306   0.241   2.325  0.6139 -1.9551 -0.9848
49652SOL     OW66947   9.918  12.230   5.030 -0.0214 -0.4847 -0.0165
49652SOL    HW166948   9.892  12.321   5.042 -0.5282 -0.4794 -0.9871
49652SOL    HW266949  10.014  12.233   5.022  0.1322 -0.2613  1.6168
49653SOL     OW66950   1.775   9.352  12.801  0.4164 -0.0967 -1.1154
49653SOL    HW166951   1.781   9.432  12.854  2.0767  0.9867 -2.7707
49653SOL    HW266952   1.683   9.326  12.805  0.4965 -0.2614  2.4462
49654SOL     OW66953  13.233   9.347   9.607 -0.2926 -0.2690 -0.6458
49654SOL    HW166954  13.178   9.320   9.680 -0.8525 -0.7171 -1.2267
49654SOL    HW266955  13.294   9.410   9.645 -1.2306  0.2705 -0.0007
49655SOL     OW66956   0.001   9.538   5.451 -0.2995 -0.9677  0.0925
49655SOL    HW166957  -0.052   9.532   5.371  0.4839 -0.9855 -0.4402
49655SOL    HW266958  -0.058   9.574   5.517 -0.8472 -0.5587 -0.6062
49656SOL     OW66959   3.051  11.404   1.268  0.3062  0.3172  0.2617
49656SOL    HW166960   3.013  11.318   1.287  2.4633 -0.6616  0.3744
49656SOL    HW266961   2.988  11.466   1.304 -0.7654 -1.2335  1.1877
49657SOL     OW66962   4.178   0.188   6.393  0.0594 -0.3925 -0.0339
49657SOL    HW166963   4.093   0.231   6.402  0.8074  0.9988  0.6009
49657SOL    HW266964   4.168   0.130   6.317 -0.9651  0.9357 -0.9397
49658SOL     OW66965   9.743  13.904   7.312 -0.0712  0.3619  0.8213
49658SOL    HW166966   9.824  13.908   7.364 -1.4838  3.0956  3.1137
49658SOL    HW266967   9.677  13.873   7.375 -1.1963  0.1331 -0.4402
49659SOL     OW66968   0.047   8.546   8.409  0.0578 -0.4098 -0.1243
49659SOL    HW166969  -0.040   8.522   8.441  0.2503  0.1133  0.8225
49659SOL    HW266970   0.067   8.629   8.453  0.6481 -0.0402 -1.0452
49660SOL     OW66971   1.866  12.439   2.099 -0.4964  0.3327  0.5308
49660SOL    HW166972   1.938  12.433   2.036 -0.6205  1.3939  0.2614
49660SOL    HW266973   1.787  12.421   2.048 -0.5629  0.8141  0.4601
49661SOL     OW66974  12.831  14.125  12.489  0.3289 -0.1307 -0.1021
49661SOL    HW166975  12.875  14.153  12.408 -1.0738 -1.8060 -1.5186
49661SOL    HW266976  12.871  14.179  12.558  1.1866  1.7566 -1.9668
49662SOL     OW66977   8.744  10.436   6.157 -0.1299  0.4518  0.9439
49662SOL    HW166978   8.744  10.531   6.144  2.9072  0.4047 -0.1964
49662SOL    HW266979   8.696  10.402   6.081 -1.1372  1.0357  1.2959
49663SOL     OW66980   6.229   5.876   1.908  0.0930  0.1033 -0.3302
49663SOL    HW166981   6.202   5.788   1.882  1.2622 -0.5328  0.4605
49663SOL    HW266982   6.220   5.876   2.004  0.3994  0.7261 -0.2975
49664SOL     OW66983  11.267  13.863   8.006  0.0083 -0.3833  0.2163
49664SOL    HW166984  11.306  13.933   8.059  0.7283  1.0539 -2.0869
49664SOL    HW266985  11.220  13.908   7.937 -1.9535 -2.1935  0.2687
49665SOL     OW66986  11.649  10.170   5.490  0.2641 -0.5670 -0.2788
49665SOL    HW166987  11.631  10.240   5.428  0.6085  1.1519  1.4799
49665SOL    HW266988  11.744  10.160   5.489  0.1938 -1.2671 -0.7700
49666SOL     OW66989   0.607   0.301   4.942 -0.5816 -0.1118  0.2076
49666SOL    HW166990   0.676   0.268   4.883 -2.5321 -0.8243 -1.7980
49666SOL    HW266991   0.649   0.302   5.028  1.7803 -1.0241 -0.8281
49667SOL     OW66992   9.945  11.113  11.785 -0.4617  0.0870 -0.1087
49667SOL    HW166993   9.977  11.115  11.875  2.0346  1.0468 -0.9278
49667SOL    HW266994   9.925  11.205  11.765  1.1938  0.2484 -1.2009
49668SOL     OW66995   2.443  13.489   2.621 -0.2954  0.2082  0.1681
49668SOL    HW166996   2.481  13.539   2.549 -0.8146  1.3471  0.6576
49668SOL    HW266997   2.507  13.497   2.692  0.0855 -0.6809 -0.0546
49669SOL     OW66998  11.780   2.525   5.445  0.1209 -0.0428  0.1560
49669SOL    HW166999  11.811   2.556   5.530 -0.4059 -1.0482  0.7404
49669SOL    HW267000  11.847   2.552   5.383  1.0830 -0.2902  1.0679
49670SOL     OW67001  14.013   0.120   0.856 -0.3262 -0.3805  0.0161
49670SOL    HW167002  13.947   0.092   0.919  0.1182  1.8436  1.6068
49670SOL    HW267003  14.088   0.062   0.871 -1.4478 -2.1831 -1.0211
49671SOL     OW67004   4.110   3.424  11.160 -0.4305  0.4830  0.7615
49671SOL    HW167005   4.055   3.478  11.103 -0.4998 -0.9658 -0.5908
49671SOL    HW267006   4.048   3.373  11.212 -0.4323 -1.0483 -0.6647
49672SOL     OW67007  11.171   6.588   4.654 -0.0180  0.2954 -0.0460
49672SOL    HW167008  11.138   6.665   4.701 -0.0839  0.7405 -0.8112
49672SOL    HW267009  11.169   6.613   4.562  2.2395  0.2661 -0.1628
49673SOL     OW67010  12.794   6.714   3.196  0.0453  0.1246  0.4790
49673SOL    HW167011  12.766   6.705   3.287 -2.0243 -0.9712 -0.2112
49673SOL    HW267012  12.876   6.665   3.190 -0.3708 -0.7037  1.5081
49674SOL     OW67013   1.718   9.516   1.707  0.5881  0.3950 -0.1860
49674SOL    HW167014   1.695   9.423   1.699  2.9100 -0.3219  0.6437
49674SOL    HW267015   1.660   9.549   1.775 -0.2254 -0.4543 -0.4406
49675SOL     OW67016   8.953  14.061   8.431 -0.0233 -0.0587  0.3275
49675SOL    HW167017   8.911  14.020   8.506 -2.2823  0.3465 -0.6260
49675SOL    HW267018   8.987  13.989   8.379  1.8066 -0.3340  1.7916
49676SOL     OW67019   2.940   8.204  10.493 -0.4118 -0.6583 -0.0091
49676SOL    HW167020   2.900   8.117  10.503 -1.5451 -0.1867 -0.2757
49676SOL    HW267021   2.982   8.221  10.577 -1.7705 -0.6910  0.7003
49677SOL     OW67022  11.568  12.135   3.765 -0.3059  0.3515  0.5164
49677SOL    HW167023  11.531  12.061   3.717 -0.5596  0.6137  0.3049
49677SOL    HW267024  11.649  12.101   3.803 -0.4022 -0.0236  0.3883
49678SOL     OW67025  10.633   0.314  10.054 -0.4998  0.5447  0.0784
49678SOL    HW167026  10.630   0.294  10.147 -2.1018  0.9204  0.1250
49678SOL    HW267027  10.621   0.230  10.010  3.5288 -0.2601  0.0591
49679SOL     OW67028   9.616   7.839   3.497  0.2920 -0.2638  0.5995
49679SOL    HW167029   9.595   7.908   3.559  0.0608  0.6750 -0.4855
49679SOL    HW267030   9.685   7.788   3.540 -0.6908 -0.3922  2.1162
49680SOL     OW67031   7.556   1.002   8.299  0.3373 -0.1738 -0.5316
49680SOL    HW167032   7.491   0.943   8.262  0.5479 -0.7624  0.0271
49680SOL    HW267033   7.638   0.954   8.294  0.6950  0.4550 -0.9665
49681SOL     OW67034   6.168   8.435  13.193 -0.5441  0.3585 -0.0716
49681SOL    HW167035   6.222   8.409  13.267 -0.1013 -3.0404 -1.4080
49681SOL    HW267036   6.134   8.352  13.158 -4.4800  2.1114 -0.9372
49682SOL     OW67037  13.444   2.657   2.399  0.4076  0.0125 -0.0314
49682SOL    HW167038  13.449   2.603   2.477  2.0656  1.9315  1.3031
49682SOL    HW267039  13.353   2.689   2.397  0.5885  0.7124  1.7041
49683SOL     OW67040   6.144   2.816   2.985 -0.7735 -0.6652 -0.3455
49683SOL    HW167041   6.149   2.900   3.031 -0.3732 -1.3645  0.9249
49683SOL    HW267042   6.057   2.782   3.006 -0.4639 -1.1408  0.1837
49684SOL     OW67043  11.286   6.221   1.448 -0.0412 -0.2585 -0.0231
49684SOL    HW167044  11.243   6.136   1.440  1.2951 -1.1065  1.2396
49684SOL    HW267045  11.363   6.204   1.502  1.8112  1.1892 -1.9893
49685SOL     OW67046   8.553  11.387   5.764  0.6890  0.1651 -0.3812
49685SOL    HW167047   8.470  11.354   5.731  1.0818 -0.1153 -1.1178
49685SOL    HW267048   8.551  11.481   5.746  0.5907  0.1345 -0.5312
49686SOL     OW67049  10.601   5.895   6.704  0.0817  0.2532  0.1750
49686SOL    HW167050  10.557   5.830   6.760  1.1213 -1.2035 -0.6293
49686SOL    HW267051  10.543   5.971   6.706 -2.8131 -1.7386 -1.3082
49687SOL     OW67052   7.688   5.327  10.745 -0.0811 -0.3597 -0.0426
49687SOL    HW167053   7.774   5.311  10.705  0.1162  1.3323 -0.3593
49687SOL    HW267054   7.705   5.386  10.817 -0.9087 -0.5395  0.3167
49688SOL     OW67055   1.768   4.054   8.183  0.2339  0.5143  0.0115
49688SOL    HW167056   1.840   4.108   8.151 -0.0939  0.2017 -1.2940
49688SOL    HW267057   1.691   4.083   8.134 -0.5252  0.7448  1.2816
49689SOL     OW67058   6.214   5.791   5.268  0.7114 -0.1467  0.4034
49689SOL    HW167059   6.206   5.702   5.302  3.0932 -0.8902 -0.7787
49689SOL    HW267060   6.303   5.818   5.290 -0.2579  2.4250  1.6726
49690SOL     OW67061   1.933   1.642   7.174 -0.7766 -0.1168  0.0396
49690SOL    HW167062   1.891   1.587   7.108 -2.2785  1.9887 -0.8685
49690SOL    HW267063   1.862   1.665   7.234  0.0098  0.1139  0.9029
49691SOL     OW67064   7.077   7.897   1.602 -0.0536  0.1001 -0.0698
49691SOL    HW167065   7.071   7.987   1.636 -0.5484 -0.1218  0.4508
49691SOL    HW267066   7.096   7.908   1.509 -0.0414  0.7435 -0.0002
49692SOL     OW67067   7.077   6.648  11.656 -1.0488  0.1404 -0.0115
49692SOL    HW167068   7.038   6.683  11.735 -1.1527  1.6257 -0.6950
49692SOL    HW267069   7.020   6.575  11.631 -1.1125 -0.2220  1.1596
49693SOL     OW67070   7.813   3.838  10.820  0.3563  0.7359  0.3607
49693SOL    HW167071   7.843   3.922  10.853  0.8055  0.4450  0.7000
49693SOL    HW267072   7.867   3.822  10.742  0.7415  0.4452  0.6864
49694SOL     OW67073  13.934  12.574   4.288 -0.6289 -0.7078 -0.1446
49694SOL    HW167074  14.025  12.566   4.262  0.0368  0.2419  1.7619
49694SOL    HW267075  13.923  12.667   4.310 -1.5240 -1.1398  1.4190
49695SOL     OW67076  13.041   5.085  10.520  0.7982  0.2998 -0.4423
49695SOL    HW167077  13.051   5.055  10.610 -1.2274 -0.8490 -0.5334
49695SOL    HW267078  13.058   5.179  10.523 -0.2620  0.4614  1.3317
49696SOL     OW67079   6.897   4.695   6.475  0.6038  0.1353 -0.0136
49696SOL    HW167080   6.808   4.662   6.484  0.3608 -0.1159 -2.5386
49696SOL    HW267081   6.941   4.667   6.555 -0.7491 -2.5696 -0.0754
49697SOL     OW67082   0.190   1.070   4.602  0.4530  0.1019  0.2066
49697SOL    HW167083   0.128   1.111   4.541  0.6723  0.5349  0.2698
49697SOL    HW267084   0.247   1.017   4.546 -1.4483 -2.2650  0.3721
49698SOL     OW67085   9.122   1.728   9.369  0.9177  0.1726 -0.3704
49698SOL    HW167086   9.098   1.709   9.460 -0.8064  2.2670 -0.3046
49698SOL    HW267087   9.215   1.747   9.373  1.3679 -1.8894  0.5345
49699SOL     OW67088  11.189   5.651   2.189 -0.0751  0.1259 -0.4351
49699SOL    HW167089  11.213   5.739   2.220  0.8369  0.3513 -1.6986
49699SOL    HW267090  11.264   5.596   2.212 -0.4685 -0.2418 -0.0139
49700SOL     OW67091   7.872   6.871   7.484  0.5211 -0.3509  0.0331
49700SOL    HW167092   7.912   6.943   7.533 -0.2627 -0.9933  1.7328
49700SOL    HW267093   7.946   6.824   7.445  1.4809 -1.2192  2.6677
49701SOL     OW67094   3.412  12.814   1.593 -0.4163  0.8183  0.5113
49701SOL    HW167095   3.407  12.718   1.585  1.2130  0.6570  1.1133
49701SOL    HW267096   3.375  12.833   1.679 -2.7417  0.9851 -0.4447
49702SOL     OW67097   4.881  13.635   8.833 -0.3280  0.3955  0.8133
49702SOL    HW167098   4.972  13.611   8.813 -0.7642 -0.8076  0.1786
49702SOL    HW267099   4.887  13.723   8.871  0.9036  1.3317 -1.3766
49703SOL     OW67100   0.633   4.097  10.849  0.3209 -0.3954 -0.3920
49703SOL    HW167101   0.636   4.005  10.824  0.1884 -0.6483  0.4976
49703SOL    HW267102   0.679   4.101  10.932 -0.5503  0.1734  0.0810
49704SOL     OW67103   7.994   5.327  11.360  0.7329  0.2646  0.0544
49704SOL    HW167104   8.039   5.249  11.327  1.6468  1.6678 -2.2615
49704SOL    HW267105   7.910   5.328  11.315 -0.4547 -0.7293  2.0977
49705SOL     OW67106  10.344  13.624   2.350  0.1490  0.0161  0.4862
49705SOL    HW167107  10.328  13.718   2.349 -0.5526 -0.1001 -0.5325
49705SOL    HW267108  10.308  13.595   2.435 -0.7439  0.4891  0.2887
49706SOL     OW67109  14.152   5.959   1.600 -0.3802  0.2188  0.2177
49706SOL    HW167110  14.149   5.971   1.505  0.1367  0.2585  0.2033
49706SOL    HW267111  14.076   5.904   1.620  0.4629 -1.2356 -0.4379
49707SOL     OW67112   6.794   8.221   9.186 -0.1806 -0.1484  0.2839
49707SOL    HW167113   6.698   8.221   9.176  0.0258  1.0602 -3.0900
49707SOL    HW267114   6.822   8.143   9.138  0.6028  0.5610 -0.4320
49708SOL     OW67115   7.266  13.410   0.977  0.1200 -0.1523  0.1501
49708SOL    HW167116   7.290  13.358   1.054  1.1874  1.9116  1.3041
49708SOL    HW267117   7.189  13.365   0.942  1.0249 -2.5302  0.9679
49709SOL     OW67118  10.781   0.151   7.005 -0.6767  0.4035 -0.1882
49709SOL    HW167119  10.807   0.059   7.011 -0.2317  0.6398  3.0267
49709SOL    HW267120  10.863   0.200   7.012 -1.0699  1.0616 -0.0818
49710SOL     OW67121   7.476  13.281  10.226  0.3101 -0.7724  0.5416
49710SOL    HW167122   7.520  13.261  10.144  0.6782 -1.9233  0.9918
49710SOL    HW267123   7.438  13.368  10.214  2.1192 -0.0487 -0.1097
49711SOL     OW67124   6.286   1.948  11.703  0.4451 -0.2501  0.2285
49711SOL    HW167125   6.366   1.947  11.757  0.3431 -1.2151  0.3744
49711SOL    HW267126   6.220   1.987  11.760  0.8993  0.9542 -0.0408
49712SOL     OW67127  12.051  11.500   2.819  0.2350  1.0775 -0.0331
49712SOL    HW167128  11.963  11.499   2.855  0.2153  1.3133 -0.0688
49712SOL    HW267129  12.080  11.409   2.822  0.0047  1.0065  0.0141
49713SOL     OW67130   9.047  11.461   2.998 -0.1122  0.2861 -0.0291
49713SOL    HW167131   9.004  11.393   3.051 -1.3350  1.1166  0.0877
49713SOL    HW267132   9.071  11.528   3.062  0.0183  0.4932 -0.2967
49714SOL     OW67133   0.649  13.967  10.004 -0.4519  0.3645  0.0356
49714SOL    HW167134   0.721  13.904  10.008  0.1472  1.0537  0.3869
49714SOL    HW267135   0.646  13.994   9.912  0.0534  0.6772  0.1062
49715SOL     OW67136  10.376  10.742   4.663 -0.1070  0.3500  0.0352
49715SOL    HW167137  10.321  10.814   4.633 -1.4343 -1.2417 -1.5301
49715SOL    HW267138  10.315  10.682   4.706  0.9149 -0.0471  0.9825
49716SOL     OW67139   1.863   2.182  12.976  0.3449 -0.5651 -0.9045
49716SOL    HW167140   1.775   2.192  13.010  0.9460  0.1736  0.5313
49716SOL    HW267141   1.890   2.094  13.002 -0.4463 -1.3593 -2.6065
49717SOL     OW67142   5.368   2.984   7.944 -0.5390  0.0802 -0.2031
49717SOL    HW167143   5.373   2.914   7.880 -0.7541  0.9176 -1.1652
49717SOL    HW267144   5.324   3.056   7.898 -0.2671  0.8690  0.7289
49718SOL     OW67145   3.198   1.460   4.938  0.1294 -0.1003  0.6569
49718SOL    HW167146   3.225   1.518   4.868 -3.9364  2.1288  0.6350
49718SOL    HW267147   3.205   1.512   5.018  1.5822 -1.5102  1.5155
49719SOL     OW67148   7.903   5.686  10.448  0.1223 -0.0742  0.2445
49719SOL    HW167149   7.947   5.681  10.532  0.5737 -0.2913 -0.0022
49719SOL    HW267150   7.974   5.685  10.383 -0.1986  0.4574 -0.1253
49720SOL     OW67151  11.675  12.726   3.795 -0.9148 -0.5096 -0.5281
49720SOL    HW167152  11.625  12.747   3.874 -0.3017  2.0319 -0.7375
49720SOL    HW267153  11.749  12.675   3.826 -1.6368 -1.0934  0.2783
49721SOL     OW67154   7.072   4.699   3.406 -0.0447 -0.1368 -0.4708
49721SOL    HW167155   7.141   4.759   3.378  0.4943 -0.7414 -0.4771
49721SOL    HW267156   7.080   4.696   3.501 -0.5240  0.3297 -0.4129
49722SOL     OW67157   9.296   4.423  10.881  0.1087  0.1409  0.1240
49722SOL    HW167158   9.271   4.417  10.974 -0.1436 -1.2190 -0.0075
49722SOL    HW267159   9.350   4.502  10.875  0.1289  0.2424  1.4280
49723SOL     OW67160   0.070  12.447  11.083 -0.1782 -0.0077 -0.3883
49723SOL    HW167161   0.096  12.489  11.001 -0.5056  0.7774 -0.0957
49723SOL    HW267162   0.007  12.380  11.057  1.2678 -1.1951 -0.9953
49724SOL     OW67163  12.425   4.624   5.859  0.0307 -0.4136  0.5118
49724SOL    HW167164  12.482   4.701   5.858  0.8670 -0.8446 -3.7477
49724SOL    HW267165  12.484   4.550   5.870 -0.1628 -0.6600 -0.0603
49725SOL     OW67166   8.192   9.160   4.859  0.2473  0.0797 -0.1587
49725SOL    HW167167   8.106   9.200   4.854 -0.6063 -1.5184  0.7632
49725SOL    HW267168   8.227   9.165   4.770 -1.2450 -0.1751 -0.7837
49726SOL     OW67169   6.487  11.624   7.872 -0.8457 -0.1832  0.0904
49726SOL    HW167170   6.419  11.666   7.820 -0.8139 -1.3164 -0.9177
49726SOL    HW267171   6.567  11.635   7.822 -0.9965 -2.2037 -0.7033
49727SOL     OW67172   0.661  11.970   5.096  0.2734 -0.3777  0.0783
49727SOL    HW167173   0.690  11.944   5.009  1.6672  2.3112 -0.3812
49727SOL    HW267174   0.571  12.002   5.084  0.8810  1.1469 -0.6966
49728SOL     OW67175   7.487   2.146  10.241 -0.2085 -0.1170  0.3743
49728SOL    HW167176   7.457   2.150  10.332 -0.4859 -0.3316  0.2940
49728SOL    HW267177   7.582   2.158  10.246  0.0513 -2.0907  0.8777
49729SOL     OW67178  11.441   5.826   4.081 -0.0250  0.6889 -0.2361
49729SOL    HW167179  11.415   5.854   3.993 -1.4334 -0.5772 -0.2674
49729SOL    HW267180  11.429   5.905   4.135 -0.8870  1.0174 -0.8689
49730SOL     OW67181  10.994  13.343  11.492  0.5153 -0.6851  0.5691
49730SOL    HW167182  11.011  13.255  11.526  0.4052 -1.6056 -1.5704
49730SOL    HW267183  11.042  13.346  11.410 -0.0846  0.9926  0.2485
49731SOL     OW67184   1.107  11.679  11.319  0.8075  0.6071 -0.1978
49731SOL    HW167185   1.108  11.765  11.278  2.2808  0.4304 -0.5945
49731SOL    HW267186   1.187  11.676  11.371 -0.5198  0.4541  1.9916
49732SOL     OW67187  13.641   9.634  12.495  0.4057 -0.3125 -0.3078
49732SOL    HW167188  13.619   9.662  12.584  0.5327 -2.0534  0.3263
49732SOL    HW267189  13.721   9.681  12.473  0.5212 -0.0640  0.6189
49733SOL     OW67190   1.057  13.859   8.893  0.3301 -0.1011 -0.1470
49733SOL    HW167191   1.080  13.901   8.810  1.8606  0.1976  0.4109
49733SOL    HW267192   0.987  13.797   8.869  0.7946 -0.0830 -1.6653
49734SOL     OW67193  10.687   0.211   1.986 -0.2283 -0.0688  0.6839
49734SOL    HW167194  10.653   0.123   2.006  0.6029 -0.7760 -0.8231
49734SOL    HW267195  10.763   0.195   1.930 -0.0957  1.6253  0.3330
49735SOL     OW67196   0.603   1.928   3.849  0.4012 -0.6468 -1.3474
49735SOL    HW167197   0.529   1.981   3.821  0.0715  0.1248  0.7749
49735SOL    HW267198   0.575   1.838   3.837 -0.9321 -0.3665 -0.5307
49736SOL     OW67199   1.781   9.368   9.367  0.3846  0.5508  0.1617
49736SOL    HW167200   1.842   9.295   9.353  0.2037  0.4255  0.0323
49736SOL    HW267201   1.742   9.351   9.453 -0.9080 -0.4121 -0.5820
49737SOL     OW67202  14.125   5.576   1.508 -0.3279  0.6533  0.1959
49737SOL    HW167203  14.212   5.612   1.490 -0.1344 -0.3494 -1.0177
49737SOL    HW267204  14.143   5.488   1.543 -0.8483  0.1884 -0.6754
49738SOL     OW67205   4.739   1.290   5.362 -0.3170 -0.1546 -0.7711
49738SOL    HW167206   4.791   1.354   5.313 -2.8257  1.7858 -1.1342
49738SOL    HW267207   4.700   1.235   5.295  0.6222 -1.1320 -0.5427
49739SOL     OW67208  10.331   5.182  13.336  0.3441  0.5908  0.2803
49739SOL    HW167209  10.271   5.257  13.335  1.0935  1.2036 -0.9078
49739SOL    HW267210  10.388   5.196  13.260  0.5474 -1.1470  0.0719
49740SOL     OW67211   0.471   8.993   0.373 -0.8257 -0.0505 -0.3781
49740SOL    HW167212   0.502   8.916   0.421 -1.0581 -0.5434 -1.0185
49740SOL    HW267213   0.414   8.958   0.305  0.2427  0.5539 -1.6258
49741SOL     OW67214   0.895   7.698  13.414  0.6512  0.2005  0.3001
49741SOL    HW167215   0.928   7.629  13.472  0.5582 -0.4316 -0.3855
49741SOL    HW267216   0.865   7.651  13.336 -1.1802  0.8176  0.5912
49742SOL     OW67217   4.616   1.166   0.015 -0.0484  0.1887 -0.5727
49742SOL    HW167218   4.704   1.138   0.042 -0.7542 -0.5111  1.1649
49742SOL    HW267219   4.623   1.261   0.005  0.3111  0.5523  2.2504
49743SOL     OW67220   3.162   3.693   4.864 -0.3174 -0.4106 -0.4856
49743SOL    HW167221   3.167   3.738   4.948  0.0057  1.1135 -1.2837
49743SOL    HW267222   3.099   3.744   4.813 -0.6105 -1.3903 -1.1434
49744SOL     OW67223  12.105   8.178   6.715 -0.6379  0.0368  0.4702
49744SOL    HW167224  12.178   8.232   6.685 -0.1717  1.6321  3.9992
49744SOL    HW267225  12.047   8.239   6.761 -0.4718 -2.1956  3.9893
49745SOL     OW67226   0.459  10.825  13.584 -0.3849  0.1713  0.0867
49745SOL    HW167227   0.501  10.776  13.654 -0.3791  1.3496  0.9305
49745SOL    HW267228   0.370  10.839  13.614 -1.3989 -2.0774 -1.5794
49746SOL     OW67229   8.048   1.743  11.362  0.6135  0.2342 -0.0663
49746SOL    HW167230   8.127   1.797  11.362  0.5007  0.4078  0.5523
49746SOL    HW267231   8.001   1.769  11.283  1.2762 -0.0222 -0.5494
49747SOL     OW67232   5.611   1.773  10.883 -0.6167  0.2702  0.5438
49747SOL    HW167233   5.671   1.736  10.818  0.6000  2.8324  0.0697
49747SOL    HW267234   5.656   1.761  10.966 -0.4565  0.2441  0.4543
49748SOL     OW67235  13.708   3.749   9.624  0.0202 -0.4276  0.3920
49748SOL    HW167236  13.622   3.786   9.603 -0.0407  0.5705  2.2194
49748SOL    HW267237  13.702   3.727   9.717  2.4446  1.7521  1.1718
49749SOL     OW67238  12.415   1.923   3.697  0.4981  0.3013  0.1236
49749SOL    HW167239  12.423   1.891   3.607  0.7496 -3.5502  1.3240
49749SOL    HW267240  12.321   1.931   3.711  0.4855  2.7890 -0.9568
49750SOL     OW67241   4.209   4.455   8.322 -0.2046 -0.3567  0.0621
49750SOL    HW167242   4.174   4.543   8.339 -2.7375 -1.3223  0.2083
49750SOL    HW267243   4.176   4.432   8.235  1.3879 -0.7761 -0.4734
49751SOL     OW67244   7.067   7.986   4.709  0.2180  0.1036  0.8172
49751SOL    HW167245   7.018   7.905   4.722  0.7401 -0.5945 -1.2419
49751SOL    HW267246   7.015   8.053   4.755 -3.2407 -0.4199 -1.8352
49752SOL     OW67247  10.652   4.459   6.631 -0.1542  0.0321  0.3353
49752SOL    HW167248  10.590   4.507   6.576  1.1485 -0.0919 -1.3149
49752SOL    HW267249  10.637   4.367   6.609  1.0065  0.0355 -0.5450
49753SOL     OW67250  12.536   0.556   3.948  0.5211 -0.2596  0.3914
49753SOL    HW167251  12.593   0.483   3.971 -0.7325 -1.4012  0.0356
49753SOL    HW267252  12.451   0.533   3.988 -0.2911  0.2521 -0.9816
49754SOL     OW67253   1.293   1.411   9.758  0.7914  0.5071 -0.1887
49754SOL    HW167254   1.373   1.448   9.721  0.6079  0.2892 -0.8334
49754SOL    HW267255   1.241   1.488   9.784  0.8925  0.6723 -0.4673
49755SOL     OW67256   9.775   1.068   9.845  0.0444 -0.4757  0.4149
49755SOL    HW167257   9.828   1.142   9.875 -0.5122  0.1933 -0.2161
49755SOL    HW267258   9.798   0.996   9.905  2.1818 -0.4239 -0.2651
49756SOL     OW67259  11.789   0.372   9.332  0.0593 -0.0112  0.0987
49756SOL    HW167260  11.751   0.354   9.418  0.6054  1.3788  0.6574
49756SOL    HW267261  11.714   0.374   9.273 -0.3929 -0.3451  0.6517
49757SOL     OW67262  11.559  12.527   1.619  0.4961 -0.2039  0.0812
49757SOL    HW167263  11.499  12.577   1.564 -1.9915 -3.5446 -0.5859
49757SOL    HW267264  11.626  12.495   1.559  1.0003  0.7016  0.1466
49758SOL     OW67265   5.616   9.573   3.410  0.3252  0.2348  0.0240
49758SOL    HW167266   5.595   9.542   3.322  0.4740  2.2501 -0.7718
49758SOL    HW267267   5.684   9.639   3.397 -0.0208  0.9427  1.5956
49759SOL     OW67268  12.277   6.353   1.100  0.4084  0.2244 -0.1387
49759SOL    HW167269  12.331   6.420   1.057 -0.5109  1.1812  0.1591
49759SOL    HW267270  12.209   6.403   1.145  1.0343 -0.7682  2.0371
49760SOL     OW67271   1.570   4.876  10.540  0.0144 -0.1643 -0.3854
49760SOL    HW167272   1.616   4.958  10.559  0.6995  0.0413 -2.5816
49760SOL    HW267273   1.509   4.899  10.470  0.4537 -1.5556 -1.2768
49761SOL     OW67274   8.716  10.744   9.735 -0.1461 -0.2359 -0.1154
49761SOL    HW167275   8.741  10.692   9.811 -0.3898 -1.5355 -0.9018
49761SOL    HW267276   8.641  10.698   9.698 -0.7727  1.0318 -0.4717
49762SOL     OW67277  12.717   4.940   8.860  0.0206  0.8884 -0.3250
49762SOL    HW167278  12.758   4.941   8.946 -2.9232 -0.1507  1.2187
49762SOL    HW267279  12.721   4.848   8.832 -2.4329  0.4264  0.5840
49763SOL     OW67280   9.582  11.912   7.320 -0.5382 -0.2538 -0.4124
49763SOL    HW167281   9.616  11.984   7.265 -0.7726  1.7873  1.9370
49763SOL    HW267282   9.489  11.908   7.299 -0.3340 -0.6006 -1.2974
49764SOL     OW67283   0.158   3.926   8.478  0.0031 -0.3487 -0.0449
49764SOL    HW167284   0.188   4.017   8.488  1.8901 -0.6954 -1.8892
49764SOL    HW267285   0.173   3.887   8.564 -0.1402  0.8805  0.5699
49765SOL     OW67286   3.310   0.945   0.577  0.0581  0.5906 -0.2664
49765SOL    HW167287   3.253   0.868   0.580 -0.3982  0.9484  0.9234
49765SOL    HW267288   3.387   0.919   0.629  0.5221  0.4707 -1.0022
49766SOL     OW67289  14.145   3.984   4.678 -0.0714  0.2276  0.2693
49766SOL    HW167290  14.133   3.895   4.711 -0.3041  0.4756  0.8541
49766SOL    HW267291  14.209   3.974   4.607  0.8724 -0.2372  1.1537
49767SOL     OW67292   3.038  10.120   8.847  0.2772 -0.1798 -0.6448
49767SOL    HW167293   3.077  10.167   8.774 -1.5867  3.5683  0.5294
49767SOL    HW267294   3.110  10.106   8.908  0.8528  1.7975 -0.8016
49768SOL     OW67295  10.880   8.809   9.170 -0.4278 -0.1921  0.1891
49768SOL    HW167296  10.866   8.900   9.145  0.6676  0.0669  0.4858
49768SOL    HW267297  10.849   8.759   9.095 -2.2118  0.3442  0.5111
49769SOL     OW67298   3.811   5.733   1.822  0.0971  0.1812 -0.2237
49769SOL    HW167299   3.882   5.676   1.851 -0.3918  0.6303  2.0109
49769SOL    HW267300   3.844   5.772   1.741  2.0051 -0.3214  0.2560
49770SOL     OW67301   1.288   2.475  12.115 -0.6158 -0.7122 -0.1445
49770SOL    HW167302   1.319   2.527  12.189  1.2615 -1.2885 -0.4572
49770SOL    HW267303   1.259   2.392  12.154 -3.8930  0.5312  0.3888
49771SOL     OW67304   6.497   3.223  10.123  0.4474 -0.1502  0.0523
49771SOL    HW167305   6.581   3.268  10.125  1.0433 -1.2670  1.8096
49771SOL    HW267306   6.454   3.257  10.044  2.7509  0.0346 -1.2194
49772SOL     OW67307  13.201   4.930   6.393  0.1341 -0.0024 -0.4359
49772SOL    HW167308  13.277   4.968   6.348  0.7453  0.5104  0.9723
49772SOL    HW267309  13.201   4.838   6.366  1.0858  0.0587 -0.6908
49773SOL     OW67310   5.454  12.887   6.120  0.1531  0.2750 -0.0378
49773SOL    HW167311   5.374  12.933   6.145 -0.2538  0.1819 -1.1330
49773SOL    HW267312   5.429  12.835   6.044  1.0345 -0.4611  0.1632
49774SOL     OW67313   6.851   1.738   6.425 -0.1655 -0.1385  0.0484
49774SOL    HW167314   6.939   1.766   6.399 -0.9715  1.6010 -0.9761
49774SOL    HW267315   6.812   1.705   6.344 -0.5078 -0.7959  0.4754
49775SOL     OW67316   9.133   3.649   9.377 -0.5751 -0.0852  0.0706
49775SOL    HW167317   9.119   3.556   9.396  0.4466 -0.5484 -1.2010
49775SOL    HW267318   9.229   3.657   9.372 -0.6142  1.2485  1.0601
49776SOL     OW67319   5.329   2.456  12.568  0.1759 -0.2844 -0.0818
49776SOL    HW167320   5.390   2.393  12.607  1.8418  0.7856 -0.8532
49776SOL    HW267321   5.286   2.407  12.498  0.5660 -0.8963  0.0953
49777SOL     OW67322  10.319   9.907   1.435  0.6696 -0.5981 -0.3373
49777SOL    HW167323  10.393   9.849   1.416 -0.9527 -3.3453  1.0625
49777SOL    HW267324  10.246   9.869   1.386 -0.7855 -0.6970  1.7784
49778SOL     OW67325   3.828  12.290   5.551 -0.1670 -0.4659  0.3067
49778SOL    HW167326   3.783  12.319   5.630 -1.1937 -1.8287  0.2452
49778SOL    HW267327   3.921  12.300   5.572 -0.4094  2.3174  0.4561
49779SOL     OW67328   0.751   3.283  14.063 -0.0569  0.2210  0.1662
49779SOL    HW167329   0.761   3.230  14.143 -0.3597 -0.2413 -0.0963
49779SOL    HW267330   0.813   3.355  14.074  2.4851 -1.6866 -0.7109
49780SOL     OW67331   8.583   9.753   1.872 -0.7546 -0.3817 -0.4026
49780SOL    HW167332   8.557   9.825   1.813 -1.7472  0.4236  0.9676
49780SOL    HW267333   8.540   9.676   1.836 -0.3869 -0.1518 -1.3923
49781SOL     OW67334   2.194   1.649   9.450 -0.0648  0.3414 -0.7081
49781SOL    HW167335   2.141   1.691   9.519  0.9276 -0.7768  0.8071
49781SOL    HW267336   2.279   1.692   9.456  0.5498 -0.8929 -0.0345
49782SOL     OW67337   9.516   4.153   9.618  0.1666 -0.8588 -0.5666
49782SOL    HW167338   9.567   4.130   9.695  1.6254 -0.3216 -1.3355
49782SOL    HW267339   9.433   4.184   9.653  1.3779  0.9366  0.9018
49783SOL     OW67340   5.756   2.680   4.737 -0.1761  0.7359 -0.2259
49783SOL    HW167341   5.747   2.594   4.777  0.0753  0.8056 -0.0166
49783SOL    HW267342   5.741   2.742   4.809  2.2352  0.8634  0.2274
49784SOL     OW67343  10.502   7.959   8.511  0.4597  0.1161  0.3156
49784SOL    HW167344  10.477   7.873   8.543 -0.8594  0.4168  0.1612
49784SOL    HW267345  10.556   7.942   8.434  0.9888 -0.5707  0.8268
49785SOL     OW67346   0.826  10.269   2.709 -0.2858  0.2950 -0.4308
49785SOL    HW167347   0.814  10.255   2.803 -0.7334  2.5853 -0.1099
49785SOL    HW267348   0.863  10.186   2.678 -0.1928 -0.5470  1.7338
49786SOL     OW67349   8.638  12.178  14.100 -0.0201  0.5697 -0.7576
49786SOL    HW167350   8.712  12.216  14.147  0.2916 -0.2724 -0.5533
49786SOL    HW267351   8.672  12.095  14.065 -1.1113 -0.2591  0.0762
49787SOL     OW67352   9.893  10.379   6.545  0.1097 -0.2402  0.0886
49787SOL    HW167353   9.954  10.308   6.563  0.7891  0.2545 -0.1836
49787SOL    HW267354   9.907  10.442   6.616  1.7612  1.0458 -1.2765
49788SOL     OW67355  12.493  11.878   8.146 -0.0719 -0.2606  0.3366
49788SOL    HW167356  12.509  11.844   8.234 -0.1526  0.7974  0.7770
49788SOL    HW267357  12.413  11.833   8.117  0.4958 -1.3375  0.3965
49789SOL     OW67358   1.120   3.526   4.449 -0.0015  0.4383 -0.1224
49789SOL    HW167359   1.045   3.475   4.478 -0.4276  0.6324 -0.8545
49789SOL    HW267360   1.096   3.617   4.466  0.4391  0.4514  0.4645
49790SOL     OW67361   4.876   9.391  11.052  0.9140  0.6109 -0.4696
49790SOL    HW167362   4.904   9.394  10.960 -1.2579 -0.0846 -1.2112
49790SOL    HW267363   4.823   9.311  11.058 -0.0622  1.3381  1.0566
49791SOL     OW67364   3.367   6.516   5.951  0.2406 -0.0235  0.0964
49791SOL    HW167365   3.298   6.458   5.919  1.0757 -1.0682  0.1480
49791SOL    HW267366   3.439   6.506   5.888 -0.1143  2.0958 -0.7344
49792SOL     OW67367  12.365  11.582  13.852 -0.1243  0.3970 -0.2875
49792SOL    HW167368  12.304  11.642  13.809 -0.4461 -0.1596 -0.6154
49792SOL    HW267369  12.411  11.636  13.916 -2.8529  0.3054  1.9451
49793SOL     OW67370  12.994  12.210  12.857 -0.4425 -0.5727 -0.1786
49793SOL    HW167371  12.991  12.133  12.914 -0.4984 -0.2775  0.2223
49793SOL    HW267372  12.957  12.280  12.910 -2.3899 -0.7062 -1.2751
49794SOL     OW67373   0.025   2.399   1.594 -0.2221  0.4336 -0.5269
49794SOL    HW167374  -0.050   2.354   1.557 -1.0399  0.1720  1.3098
49794SOL    HW267375  -0.003   2.489   1.606 -1.3998 -0.2053  2.7429
49795SOL     OW67376   0.577  11.810   4.266 -0.5029  0.0452  0.4462
49795SOL    HW167377   0.553  11.844   4.180  0.0680 -0.3626  0.1217
49795SOL    HW267378   0.496  11.772   4.300 -0.5520 -0.5010 -0.2498
49796SOL     OW67379   3.536   6.040   1.758  0.4247  0.3218  0.6083
49796SOL    HW167380   3.556   5.948   1.738 -0.7440  0.4255 -1.4071
49796SOL    HW267381   3.577   6.089   1.687  1.4968  1.4477  1.9649
49797SOL     OW67382   5.980   0.898   6.001 -0.1017 -0.1481 -0.1384
49797SOL    HW167383   5.949   0.970   5.947  0.9093  0.6962  0.3725
49797SOL    HW267384   5.906   0.877   6.057 -0.0864  1.2565  0.4650
49798SOL     OW67385  12.324   5.518  10.453 -0.4726 -0.5745 -0.2592
49798SOL    HW167386  12.270   5.439  10.444 -1.0170 -0.1650 -0.7310
49798SOL    HW267387  12.265   5.590  10.429  0.3043 -0.1137 -0.8360
49799SOL     OW67388   5.544   0.945  11.106 -0.5107  0.8408 -0.2669
49799SOL    HW167389   5.480   1.016  11.100 -1.6773 -0.1232  0.4336
49799SOL    HW267390   5.607   0.975  11.171 -1.6936  0.7399  0.9766
49800SOL     OW67391   4.399  10.326   2.231 -0.5951 -0.3795  0.4470
49800SOL    HW167392   4.430  10.319   2.321 -0.8243 -0.2408  0.5373
49800SOL    HW267393   4.400  10.419   2.212  0.7407 -0.4911 -0.1505
49801SOL     OW67394   9.725   1.307  10.134  0.3001 -0.3912 -0.2354
49801SOL    HW167395   9.788   1.376  10.154  0.2673 -0.1143 -1.0608
49801SOL    HW267396   9.731   1.296  10.039  0.3467 -1.5665 -0.1065
49802SOL     OW67397   0.467   7.355   1.408  0.2006 -0.3631 -0.1273
49802SOL    HW167398   0.404   7.303   1.358 -1.1554 -1.1727  2.2890
49802SOL    HW267399   0.433   7.354   1.498  1.7913  2.1459  0.5956
49803SOL     OW67400  11.710   7.912   5.021 -0.1744 -0.0154 -0.0928
49803SOL    HW167401  11.720   7.820   5.047  0.5659  0.1082  0.0982
49803SOL    HW267402  11.742   7.961   5.096  0.8702  0.3655 -0.7538
49804SOL     OW67403   1.147   9.758   7.825  0.3325 -0.0695 -0.0127
49804SOL    HW167404   1.062   9.785   7.859  0.2004 -0.2228 -0.2140
49804SOL    HW267405   1.163   9.817   7.751  0.7748  0.4865  0.5162
49805SOL     OW67406   0.528  11.404   1.063 -0.0535  0.2500  0.6159
49805SOL    HW167407   0.479  11.472   1.017 -0.3215  0.4105  1.1294
49805SOL    HW267408   0.468  11.330   1.066  0.5845 -0.3737 -0.8094
49806SOL     OW67409   7.248   4.789   0.459  0.0431 -0.2515  0.1015
49806SOL    HW167410   7.177   4.845   0.491 -0.9947  0.5346 -3.1771
49806SOL    HW267411   7.310   4.849   0.418 -0.7765 -1.2964 -2.9476
49807SOL     OW67412  12.870   2.748   9.314 -0.3240  0.2433 -0.0746
49807SOL    HW167413  12.799   2.767   9.253 -0.2245  0.6764 -0.0609
49807SOL    HW267414  12.949   2.778   9.269 -0.2264  0.3886  0.1912
49808SOL     OW67415  11.507   6.702  11.403  0.2425 -0.0761  0.1488
49808SOL    HW167416  11.572   6.661  11.346 -1.1087  0.5957 -1.9916
49808SOL    HW267417  11.426   6.654  11.384 -0.2632  0.2207  1.4729
49809SOL     OW67418   6.288   8.019   9.137  0.3434  0.2588  0.4160
49809SOL    HW167419   6.240   8.086   9.089 -0.3767  1.0303  2.1094
49809SOL    HW267420   6.343   7.976   9.071 -1.8810  0.0205 -1.3918
49810SOL     OW67421   6.626  13.309   0.919  0.3021  0.7275 -0.5686
49810SOL    HW167422   6.672  13.365   0.981 -0.8808 -0.0687  1.1155
49810SOL    HW267423   6.541  13.350   0.907 -0.4222 -0.4468  0.3632
49811SOL     OW67424   4.658   3.098   9.685 -0.0071 -0.5323 -0.1707
49811SOL    HW167425   4.739   3.052   9.708  0.1323 -1.1459 -1.7794
49811SOL    HW267426   4.609   3.035   9.632  0.2968  1.1934 -2.6539
49812SOL     OW67427   0.481  11.590   6.347 -0.2308  0.4153 -0.1840
49812SOL    HW167428   0.461  11.576   6.255  0.4126 -0.8656 -0.1395
49812SOL    HW267429   0.406  11.552   6.394 -0.3839  0.7437 -0.1546
49813SOL     OW67430  13.158   2.007  10.936  0.8206 -0.5589 -0.1819
49813SOL    HW167431  13.135   2.096  10.962 -1.8101 -0.2248 -3.0567
49813SOL    HW267432  13.248   2.013  10.906  0.1391  1.7354 -2.1376
49814SOL     OW67433  13.729   4.906   4.713  0.1352 -0.1157  0.4315
49814SOL    HW167434  13.808   4.958   4.728  0.1935 -0.3760  1.0327
49814SOL    HW267435  13.699   4.881   4.800 -0.5618 -0.0956  0.2000
49815SOL     OW67436   8.200   1.337   7.458 -0.7932  0.3393 -0.2377
49815SOL    HW167437   8.159   1.262   7.415 -2.2131 -0.7654  2.7294
49815SOL    HW267438   8.131   1.403   7.462 -0.9581  0.1309  0.8874
49816SOL     OW67439   2.257   6.102   4.836 -0.4661 -0.2821 -0.0757
49816SOL    HW167440   2.281   6.075   4.747 -0.3312 -0.2957 -0.0356
49816SOL    HW267441   2.184   6.044   4.859 -2.5844  1.7117 -1.3249
49817SOL     OW67442   3.029  14.150   6.147 -0.4552  0.1147  0.6212
49817SOL    HW167443   3.090  14.222   6.159  0.4851 -0.9565  2.7437
49817SOL    HW267444   2.942  14.191   6.152  0.0379  1.4310 -0.9295
49818SOL     OW67445   9.568   0.231  12.486 -0.0109 -0.0383 -0.2660
49818SOL    HW167446   9.644   0.197  12.532  1.6351  0.8239 -2.2146
49818SOL    HW267447   9.557   0.173  12.411  1.2919  2.0670 -2.2303
49819SOL     OW67448   4.656   7.314  12.830  0.0786 -0.3010  0.0012
49819SOL    HW167449   4.667   7.228  12.790 -1.5330  0.0371 -1.2491
49819SOL    HW267450   4.643   7.295  12.923  1.9236 -1.2229  0.1215
49820SOL     OW67451   8.164   5.657  10.939 -0.0872 -0.2212  0.2537
49820SOL    HW167452   8.168   5.751  10.951 -1.1469 -0.3035  1.3987
49820SOL    HW267453   8.156   5.621  11.027  1.7219 -1.4965 -0.0232
49821SOL     OW67454   6.443  11.633  10.640 -0.4990 -0.8625  0.4052
49821SOL    HW167455   6.492  11.553  10.657 -1.7655 -1.5788  0.7929
49821SOL    HW267456   6.449  11.683  10.722 -0.8420 -1.1834  0.6285
49822SOL     OW67457   6.412   9.326  12.394 -0.1600  0.2595 -0.1304
49822SOL    HW167458   6.371   9.311  12.479  0.2843  1.0716  0.2323
49822SOL    HW267459   6.495   9.368  12.414 -0.3916  1.1555 -0.9989
49823SOL     OW67460   4.787   5.708   4.322  0.2034  0.0499 -0.5361
49823SOL    HW167461   4.704   5.755   4.308  0.2943 -0.2299 -2.1476
49823SOL    HW267462   4.770   5.653   4.399 -0.2642  1.8405  0.7160
49824SOL     OW67463  12.298  10.375   0.344  0.2823 -0.2531 -0.3545
49824SOL    HW167464  12.266  10.464   0.325 -1.7580  0.0475  3.4436
49824SOL    HW267465  12.377  10.389   0.396 -1.5043 -0.3619  2.6278
49825SOL     OW67466  10.573  14.027  11.689 -0.4473  0.0302  0.4496
49825SOL    HW167467  10.626  14.004  11.613  0.1029 -0.0343  0.8519
49825SOL    HW267468  10.630  14.080  11.743 -1.1196  0.8178  0.4081
49826SOL     OW67469  12.825   9.993   6.049  0.1403  0.4615 -0.2023
49826SOL    HW167470  12.778   9.941   5.983  1.1888  0.8468 -1.2805
49826SOL    HW267471  12.771  10.070   6.062  0.4898  0.9510 -1.5135
49827SOL     OW67472   7.269   2.006  13.305  0.2449  0.0176 -0.2594
49827SOL    HW167473   7.231   2.085  13.343  0.0187 -0.4200  0.4399
49827SOL    HW267474   7.362   2.028  13.291  0.0224  0.6589 -0.7969
49828SOL     OW67475  13.507   3.660  13.457 -0.1736  0.0639  0.6718
49828SOL    HW167476  13.500   3.617  13.372 -0.7768  2.6331 -0.6809
49828SOL    HW267477  13.577   3.725  13.445 -0.7750  0.9722  1.8639
49829SOL     OW67478  10.131   5.654  12.772  0.4529 -0.3344  0.0702
49829SOL    HW167479  10.075   5.679  12.846 -0.2159 -0.4649 -0.3871
49829SOL    HW267480  10.133   5.558  12.775  0.0119 -0.3586 -0.3852
49830SOL     OW67481  12.462   6.353   7.479 -0.1133  0.0634 -0.2651
49830SOL    HW167482  12.409   6.281   7.446  3.2233 -1.4567 -3.0141
49830SOL    HW267483  12.474   6.410   7.403 -1.5731  2.9711  1.5052
49831SOL     OW67484  12.395   4.058  10.311  0.6791  0.3243 -0.5352
49831SOL    HW167485  12.378   3.980  10.258 -0.7501  0.1247  0.1645
49831SOL    HW267486  12.329   4.055  10.379  2.4066  0.6289  1.2289
49832SOL     OW67487  13.005  10.160   0.919 -0.0217  0.2140 -0.2976
49832SOL    HW167488  12.910  10.171   0.912 -0.4902 -2.7130  0.1499
49832SOL    HW267489  13.042  10.238   0.879 -2.6109  2.1178  0.7892
49833SOL     OW67490   0.344   6.637   7.958 -0.4713  0.2096 -0.0391
49833SOL    HW167491   0.378   6.725   7.943 -1.2657  0.3535 -1.1146
49833SOL    HW267492   0.281   6.648   8.029  0.1762  0.3125  0.5307
49834SOL     OW67493   5.164  12.668  12.873  0.4046 -0.0448 -0.0820
49834SOL    HW167494   5.071  12.687  12.876  0.5489  0.6613  0.2013
49834SOL    HW267495   5.200  12.732  12.811  0.4489 -1.4665 -1.5674
49835SOL     OW67496  10.514  12.925   9.241  0.1177  0.0443 -0.2421
49835SOL    HW167497  10.443  12.922   9.305  0.4622  2.4002  0.3465
49835SOL    HW267498  10.516  13.016   9.212  0.8545 -0.6463 -2.6371
49836SOL     OW67499   5.362  10.666   2.289  0.2030 -0.0292 -0.2207
49836SOL    HW167500   5.322  10.637   2.207 -0.0173  0.5469 -0.3289
49836SOL    HW267501   5.329  10.605   2.355  2.2207 -1.9473 -0.8902
49837SOL     OW67502   0.092   8.662   8.887 -0.0688 -0.8302 -0.2858
49837SOL    HW167503   0.101   8.637   8.979 -3.4200  0.5763  0.5572
49837SOL    HW267504   0.168   8.718   8.870  1.1265 -1.8892  1.3097
49838SOL     OW67505   4.764  10.580   0.090 -0.0176 -0.0748  0.3818
49838SOL    HW167506   4.766  10.620   0.177 -1.2645  1.1595 -0.1246
49838SOL    HW267507   4.823  10.634   0.037 -1.0428  0.6111 -0.0911
49839SOL     OW67508  11.989   9.728   1.824  0.1967 -0.4709  0.0406
49839SOL    HW167509  11.955   9.762   1.741  1.8551 -0.3363 -0.6281
49839SOL    HW267510  12.012   9.806   1.874 -1.5577 -0.5236  1.0202
49840SOL     OW67511   6.165   7.903   9.622  0.0120  0.2140 -0.2167
49840SOL    HW167512   6.142   7.976   9.564 -0.0398  1.4194  1.2668
49840SOL    HW267513   6.093   7.897   9.683  0.0942 -1.0104 -0.2130
49841SOL     OW67514   9.919   0.095  10.397 -0.0068  0.6474  0.0622
49841SOL    HW167515   9.844   0.084  10.339  0.4657  0.7119 -0.5870
49841SOL    HW267516   9.887   0.149  10.468 -0.3777  1.3417 -0.6153
49842SOL     OW67517   2.452   9.936   2.173 -0.3131  0.0418 -0.2089
49842SOL    HW167518   2.466   9.890   2.090 -0.2152  0.5777 -0.4927
49842SOL    HW267519   2.475  10.027   2.154  2.4100 -0.2842  1.1022
49843SOL     OW67520   0.536  13.053   4.965  0.7405  0.1327 -0.6964
49843SOL    HW167521   0.608  13.019   4.911  2.3726  1.2495  0.6603
49843SOL    HW267522   0.546  13.007   5.049 -0.9726 -0.6494 -0.8857
49844SOL     OW67523  12.722   3.081   6.478 -0.0048 -0.3940 -0.2827
49844SOL    HW167524  12.727   2.991   6.447 -0.5314 -0.8045  0.8060
49844SOL    HW267525  12.639   3.114   6.441 -0.6924 -0.9202  0.7497
49845SOL     OW67526  12.859   9.657  11.787  0.2287 -0.3352 -0.0905
49845SOL    HW167527  12.803   9.590  11.749 -0.2109 -1.1375  1.8644
49845SOL    HW267528  12.811   9.739  11.773 -0.6302 -0.8006  0.0731
49846SOL     OW67529  12.020   6.381   1.547  0.1713 -0.6556  0.1987
49846SOL    HW167530  11.973   6.299   1.562  1.0006 -1.0889  0.4752
49846SOL    HW267531  12.024   6.422   1.633  0.4404 -0.6897  0.2010
49847SOL     OW67532   7.500   6.748   1.841  0.1095  0.0058 -0.0639
49847SOL    HW167533   7.544   6.716   1.920 -0.9669 -0.3943  0.4068
49847SOL    HW267534   7.546   6.829   1.818  1.0386 -0.3723  0.4167
49848SOL     OW67535   8.972   0.600   1.852 -0.2342  0.3322 -0.1158
49848SOL    HW167536   8.977   0.515   1.810  0.7809  0.9796 -1.3530
49848SOL    HW267537   8.878   0.620   1.856 -0.4194 -0.4431 -0.6155
49849SOL     OW67538   6.252  13.967  10.027  0.1150  0.0656 -0.5119
49849SOL    HW167539   6.190  14.031   9.991  1.5197 -0.0202 -3.4439
49849SOL    HW267540   6.214  13.882  10.007  0.3678  0.0202 -0.8194
49850SOL     OW67541  12.267   0.468  13.252 -0.2456 -0.0275 -0.1761
49850SOL    HW167542  12.184   0.512  13.271  0.2633  0.4553  1.0108
49850SOL    HW267543  12.267   0.391  13.310 -0.2546 -0.5127 -0.8146
49851SOL     OW67544  11.931   6.349  13.370 -0.8390 -0.2327 -0.6468
49851SOL    HW167545  11.921   6.287  13.298 -0.9890  0.2215 -1.0212
49851SOL    HW267546  12.022   6.377  13.366 -1.1431  0.7067 -1.4257
49852SOL     OW67547  11.392   6.164   3.603 -0.3248  0.2268  0.2760
49852SOL    HW167548  11.329   6.176   3.675 -1.6234  1.5045 -1.0083
49852SOL    HW267549  11.477   6.168   3.645 -1.0550  0.4249  1.8202
49853SOL     OW67550   2.871   6.033   3.123 -0.7648 -0.2849  0.1711
49853SOL    HW167551   2.873   5.963   3.189  1.4918  1.6780  2.3785
49853SOL    HW267552   2.782   6.068   3.129 -1.5898 -2.2097 -0.2011
49854SOL     OW67553   2.159   4.340   5.087 -0.4220  0.1257 -0.1802
49854SOL    HW167554   2.180   4.433   5.086  0.7505 -0.1176  0.0406
49854SOL    HW267555   2.101   4.328   5.162  0.1467  0.5402  0.3353
49855SOL     OW67556  11.301  10.540   6.748 -0.2319 -0.3354 -0.0076
49855SOL    HW167557  11.363  10.597   6.794 -1.3569  0.8260  0.1100
49855SOL    HW267558  11.260  10.597   6.683 -0.1865 -1.4356 -1.0308
49856SOL     OW67559  12.398   7.663   8.179 -0.4632  0.4977  0.1998
49856SOL    HW167560  12.430   7.744   8.139 -1.8193  1.6732  1.3814
49856SOL    HW267561  12.306   7.679   8.196 -0.2781 -0.4453  2.4941
49857SOL     OW67562   7.298   2.147   5.030 -0.4273 -0.0091  0.1220
49857SOL    HW167563   7.214   2.174   5.067 -0.2089  0.1011  0.5420
49857SOL    HW267564   7.311   2.206   4.955 -1.1652 -0.6432 -0.5214
49858SOL     OW67565   9.694   0.451   4.478 -0.5905  0.4158 -0.4493
49858SOL    HW167566   9.632   0.513   4.518 -2.4352 -1.4624 -0.2439
49858SOL    HW267567   9.668   0.448   4.386 -0.8638 -0.4186 -0.3527
49859SOL     OW67568  12.028   2.008   1.633 -0.1419 -0.1731  0.5890
49859SOL    HW167569  11.971   2.062   1.578 -0.1369 -0.9393 -0.1840
49859SOL    HW267570  12.099   1.981   1.575 -0.0719 -0.8886  0.9977
49860SOL     OW67571   3.170   2.112  13.033  0.0907  0.5452  0.5732
49860SOL    HW167572   3.199   2.057  12.960  0.1265  0.4528  0.6556
49860SOL    HW267573   3.133   2.190  12.992 -0.9279  0.0009  0.3990
49861SOL     OW67574   7.285   4.731   1.631  0.6372  0.2560 -0.2381
49861SOL    HW167575   7.255   4.818   1.659 -0.6622 -0.0315 -0.6862
49861SOL    HW267576   7.350   4.706   1.696 -0.3691  0.7486  0.9916
49862SOL     OW67577   5.558   4.763   7.912 -0.4709  0.2715  0.3951
49862SOL    HW167578   5.584   4.700   7.979 -0.4243  0.8799  0.9546
49862SOL    HW267579   5.641   4.793   7.874 -0.4695  0.3901  0.4922
49863SOL     OW67580   2.477   1.659   5.054 -0.0254  0.8476 -0.2062
49863SOL    HW167581   2.486   1.621   5.141 -0.8882 -0.5888 -0.7113
49863SOL    HW267582   2.437   1.745   5.069 -0.4934  0.4653  0.7851
49864SOL     OW67583   9.441   1.981   5.653  0.0421  0.2429 -0.0246
49864SOL    HW167584   9.453   1.901   5.602  0.4910  1.4410 -1.9031
49864SOL    HW267585   9.517   2.035   5.632 -0.5788  1.4407  0.6784
49865SOL     OW67586   0.928  11.231   9.238 -0.0552 -0.7850  0.4708
49865SOL    HW167587   0.944  11.200   9.149  1.6684  0.1430  0.4076
49865SOL    HW267588   0.835  11.251   9.240  0.0896  0.4235 -1.5736
49866SOL     OW67589   5.346   0.250   0.239 -0.0786  0.6703  0.2377
49866SOL    HW167590   5.366   0.247   0.146 -0.5114 -1.3697  0.1569
49866SOL    HW267591   5.368   0.162   0.271 -0.9913  0.9767  1.8182
49867SOL     OW67592  11.064  12.717  10.903 -0.5173  0.5006 -0.0470
49867SOL    HW167593  11.002  12.787  10.881 -1.8845 -0.3561  0.8911
49867SOL    HW267594  11.009  12.639  10.915  0.8245 -0.4473  0.1860
49868SOL     OW67595   8.756   7.062   0.749 -0.1928  0.3102 -0.3328
49868SOL    HW167596   8.839   7.059   0.796  0.0497 -1.4194 -0.8236
49868SOL    HW267597   8.754   7.151   0.712  0.8515  0.7922  0.6913
49869SOL     OW67598   9.251  13.787   8.303  0.0693 -0.4714  0.1640
49869SOL    HW167599   9.274  13.763   8.392 -1.3471 -1.2943  0.3423
49869SOL    HW267600   9.299  13.725   8.248  1.4059  0.4071  0.2862
49870SOL     OW67601  13.137   2.724  11.623 -0.0955 -0.2737 -0.7422
49870SOL    HW167602  13.043   2.743  11.631  0.2843  1.0432  1.6775
49870SOL    HW267603  13.148   2.639  11.665 -0.2705 -0.7185 -1.5801
49871SOL     OW67604  11.284   2.524  11.516 -0.1690  0.0022  0.3523
49871SOL    HW167605  11.368   2.547  11.557  0.5272  2.2920 -2.1210
49871SOL    HW267606  11.295   2.432  11.492  0.8419 -0.2960  1.7717
49872SOL     OW67607   8.087   8.577   0.010  0.3106 -0.2389 -0.0210
49872SOL    HW167608   8.020   8.526  -0.035 -0.4857  0.8475 -0.0861
49872SOL    HW267609   8.169   8.534  -0.016 -0.3296 -1.5999  0.0824
49873SOL     OW67610   5.849   9.545  13.010 -0.3706 -0.2917 -0.1237
49873SOL    HW167611   5.755   9.532  13.026 -1.1255  3.0160 -1.0753
49873SOL    HW267612   5.870   9.628  13.052  1.9671 -0.5450 -0.6404
49874SOL     OW67613  12.294   2.140   9.471 -0.2304 -0.1079 -0.1843
49874SOL    HW167614  12.312   2.081   9.398 -1.5087 -0.8517  0.0839
49874SOL    HW267615  12.202   2.127   9.491 -0.4283  1.6258  0.2119
49875SOL     OW67616   3.908   5.313   3.157 -0.0832  0.0277  0.0005
49875SOL    HW167617   3.894   5.292   3.250  1.3829 -0.4779  0.1474
49875SOL    HW267618   3.981   5.375   3.158  0.6894 -0.8400 -0.8629
49876SOL     OW67619   7.208   1.385   8.882  0.1097 -0.5013  0.3537
49876SOL    HW167620   7.258   1.304   8.872  1.3608  0.3186 -0.3476
49876SOL    HW267621   7.189   1.413   8.793 -0.4994 -0.1388  0.5927
49877SOL     OW67622   5.443   7.702  13.376  0.1001  0.0840 -0.0439
49877SOL    HW167623   5.373   7.760  13.346  0.1329  0.1778  0.0571
49877SOL    HW267624   5.438   7.707  13.472 -0.2115 -0.4621 -0.0314
49878SOL     OW67625  12.359   2.435  12.261  0.4535  0.2519  0.2714
49878SOL    HW167626  12.298   2.470  12.196  1.7179  1.3341 -0.3860
49878SOL    HW267627  12.316   2.450  12.345 -0.0755  1.2424 -0.1578
49879SOL     OW67628   1.525   1.318   2.582  0.0741 -0.3509 -0.1333
49879SOL    HW167629   1.448   1.296   2.634 -0.7973  0.3533 -1.0871
49879SOL    HW267630   1.543   1.239   2.532 -0.6873 -0.1920 -0.6841
49880SOL     OW67631   4.101   5.208  12.458 -0.4094 -0.3240  0.0141
49880SOL    HW167632   4.058   5.156  12.390  0.0738 -0.0602 -0.4967
49880SOL    HW267633   4.192   5.178  12.457  0.3923  1.8889 -1.6739
49881SOL     OW67634   9.367   7.363   8.130 -0.7390 -0.0648  0.0765
49881SOL    HW167635   9.360   7.328   8.218  0.4138  1.4165  0.7993
49881SOL    HW267636   9.413   7.295   8.081  0.6577  0.0139  1.2167
49882SOL     OW67637  11.519  11.023   5.102  0.7908  0.2977 -0.4174
49882SOL    HW167638  11.551  10.950   5.049  0.3966  0.1419 -0.4386
49882SOL    HW267639  11.565  11.100   5.068  0.2641  0.2621 -1.2332
49883SOL     OW67640   3.322   5.389   5.326 -0.0685  0.5904 -0.5367
49883SOL    HW167641   3.266   5.363   5.399  0.8465 -0.0136 -0.0399
49883SOL    HW267642   3.309   5.484   5.319 -2.2649  0.2804 -1.3833
49884SOL     OW67643   8.163   8.461   7.957  0.1768  0.5766 -0.6795
49884SOL    HW167644   8.241   8.432   7.910  1.1668  1.2000  0.5249
49884SOL    HW267645   8.194   8.484   8.045 -1.4634  0.2605  0.0405
49885SOL     OW67646  13.760   8.793  12.521  0.5011  0.2615  0.5906
49885SOL    HW167647  13.828   8.780  12.455 -0.8643 -0.8092 -0.6602
49885SOL    HW267648  13.693   8.844  12.477 -0.6846 -0.9364  0.9265
49886SOL     OW67649   0.200   3.778  10.535  0.3977  0.2348  0.6008
49886SOL    HW167650   0.184   3.693  10.575 -0.6050 -0.3854 -1.0170
49886SOL    HW267651   0.282   3.808  10.573  1.8636 -2.3903 -0.2532
49887SOL     OW67652   3.034  10.860   7.702  0.2508  0.5613  0.0241
49887SOL    HW167653   2.943  10.875   7.675  0.5879  0.6542 -1.1054
49887SOL    HW267654   3.075  10.947   7.696  0.3222  0.6008  0.9346
49888SOL     OW67655  12.949   3.773   3.284 -0.5073 -0.1708 -0.1453
49888SOL    HW167656  12.887   3.845   3.269  1.1607  1.2380 -0.6284
49888SOL    HW267657  12.999   3.767   3.202  1.9244  0.7448  1.1646
49889SOL     OW67658   3.008   1.425   9.848 -0.1669 -0.4136 -0.0434
49889SOL    HW167659   2.927   1.466   9.878 -0.5792 -0.6201 -0.8313
49889SOL    HW267660   3.041   1.379   9.925 -0.0127  0.8745  0.6883
49890SOL     OW67661   1.413   7.125   8.100  0.5620 -0.2724 -0.1484
49890SOL    HW167662   1.318   7.134   8.111  0.5638  0.2294 -0.4952
49890SOL    HW267663   1.445   7.106   8.188  0.2169  0.3487  0.1249
49891SOL     OW67664  10.531  10.720  13.728  0.4170  0.0160  0.0434
49891SOL    HW167665  10.507  10.644  13.781  1.6237  0.2023  0.9033
49891SOL    HW267666  10.516  10.691  13.638 -2.6076  0.0344  0.4355
49892SOL     OW67667  10.929  12.434   0.024  0.0744 -0.0098 -0.7282
49892SOL    HW167668  10.868  12.377   0.070  2.1536  0.2635  2.7085
49892SOL    HW267669  10.943  12.508   0.084  2.9388  0.4341 -1.7650
49893SOL     OW67670  11.597   8.563   5.988  0.0547 -0.1964 -0.5552
49893SOL    HW167671  11.674   8.583   5.935  0.9330  1.1203  1.1437
49893SOL    HW267672  11.623   8.489   6.042 -0.4256 -0.7422 -1.0505
49894SOL     OW67673   2.609   6.108   5.846 -1.0987  0.2419  0.1275
49894SOL    HW167674   2.527   6.081   5.804 -2.1021  0.4583  1.8345
49894SOL    HW267675   2.584   6.182   5.901  0.3109  0.4559  0.5166
49895SOL     OW67676   2.698   2.414  11.396 -0.0401  0.6938  0.0443
49895SOL    HW167677   2.781   2.367  11.398 -0.1898  0.4241 -0.0793
49895SOL    HW267678   2.677   2.430  11.488 -1.0284 -1.3019  0.2025
49896SOL     OW67679  13.022  13.440   6.018 -0.5275 -0.2926 -0.3485
49896SOL    HW167680  13.017  13.410   6.109 -0.3322 -0.9954 -0.5657
49896SOL    HW267681  13.101  13.398   5.983  0.3776  1.3202 -0.3558
49897SOL     OW67682   0.379  10.928   2.660 -0.3908 -0.0866 -0.0099
49897SOL    HW167683   0.337  10.972   2.586 -1.5577  1.1282  1.3197
49897SOL    HW267684   0.391  10.996   2.726  0.0433 -1.2585  1.1768
49898SOL     OW67685   8.152  14.067   7.905 -0.3636  0.4157 -0.5168
49898SOL    HW167686   8.070  14.019   7.896 -0.3057  0.5249 -1.7812
49898SOL    HW267687   8.132  14.156   7.874 -0.5550  1.3816  2.0721
49899SOL     OW67688  10.720  11.196   3.868  0.2190 -0.1430  0.1904
49899SOL    HW167689  10.814  11.180   3.862  0.1218 -0.6321 -0.1069
49899SOL    HW267690  10.712  11.285   3.902  0.7823 -0.4231  1.0895
49900SOL     OW67691   9.242   2.995  14.135  0.3106 -0.0692  0.0846
49900SOL    HW167692   9.240   2.990  14.231  2.3094  0.5614  0.2094
49900SOL    HW267693   9.156   3.027  14.111  0.2084  1.0677  1.7731
49901SOL     OW67694   8.984   9.012  10.529  0.6898  0.4560  0.5917
49901SOL    HW167695   9.044   9.086  10.535 -0.4036  1.3628  0.5594
49901SOL    HW267696   8.897   9.050  10.540  0.0838 -0.7804  0.2666
49902SOL     OW67697  10.811   2.931   3.015  0.0568 -0.3013  0.0448
49902SOL    HW167698  10.892   2.973   3.044  0.6087 -0.5097 -1.1649
49902SOL    HW267699  10.758   3.002   2.980  0.6435 -0.4566 -1.2142
49903SOL     OW67700   2.478   5.000   7.173 -0.0947 -0.1661 -0.1552
49903SOL    HW167701   2.426   4.920   7.161 -0.4312  0.0138  0.1058
49903SOL    HW267702   2.566   4.975   7.144 -0.6386 -0.0377 -2.0394
49904SOL     OW67703  13.777   7.483   1.077 -0.5717 -0.1516  0.1975
49904SOL    HW167704  13.812   7.394   1.066 -1.1239 -0.3549  0.0502
49904SOL    HW267705  13.764   7.515   0.987  0.4513  0.4213  0.2320
49905SOL     OW67706   6.707   0.884   0.155 -1.0197  0.4773  0.1337
49905SOL    HW167707   6.693   0.819   0.086  1.1171  1.4412 -1.3105
49905SOL    HW267708   6.752   0.956   0.111  0.0010  1.3465  2.4656
49906SOL     OW67709  10.158   0.958   2.450  0.0222  0.0094  0.4619
49906SOL    HW167710  10.083   0.992   2.402 -1.2191 -2.8950  0.1017
49906SOL    HW267711  10.172   1.020   2.521 -2.9833  0.4976  0.7638
49907SOL     OW67712   4.265   6.691  13.157  0.0974  0.7515 -0.1152
49907SOL    HW167713   4.240   6.724  13.244  0.4638  0.3058  0.1655
49907SOL    HW267714   4.213   6.611  13.147  1.0756  0.0514  0.2908
49908SOL     OW67715  13.873   1.124  12.279 -0.8262 -0.1735 -0.0194
49908SOL    HW167716  13.856   1.211  12.315  1.1461 -0.0429  0.7625
49908SOL    HW267717  13.918   1.141  12.196  0.3398 -0.3987  0.5422
49909SOL     OW67718  12.247   9.084   1.540  0.3377 -0.0674 -0.4765
49909SOL    HW167719  12.178   9.027   1.506  0.6852  0.0296 -1.3632
49909SOL    HW267720  12.201   9.144   1.599  0.0597 -1.5875  0.9022
49910SOL     OW67721   3.332   8.592  11.986  0.0670 -0.3099 -0.1815
49910SOL    HW167722   3.362   8.513  12.031  1.1379 -0.7044 -1.5346
49910SOL    HW267723   3.240   8.576  11.966  0.1382 -0.9837  0.0276
49911SOL     OW67724   2.143  12.791   8.031 -0.7002  0.2083  0.2687
49911SOL    HW167725   2.141  12.868   7.975  1.2353  0.1736  0.0759
49911SOL    HW267726   2.168  12.825   8.117  1.2871 -0.2787 -0.0696
49912SOL     OW67727   8.222   7.519   5.429 -0.3458  0.1489 -0.4782
49912SOL    HW167728   8.234   7.555   5.516 -0.1091 -0.6349 -0.1753
49912SOL    HW267729   8.289   7.451   5.421 -0.2663  0.3105 -1.3271
49913SOL     OW67730   8.175   8.244  10.491 -0.3855 -0.2639  0.0832
49913SOL    HW167731   8.215   8.186  10.556 -0.6663 -0.2659  0.2547
49913SOL    HW267732   8.082   8.224  10.495 -0.3683 -0.4833 -0.5441
49914SOL     OW67733   3.271   7.359  12.427  0.1969 -0.1337  0.2934
49914SOL    HW167734   3.297   7.323  12.343  0.9447  0.3065  0.3292
49914SOL    HW267735   3.274   7.454  12.415  1.3927 -0.0535  1.1286
49915SOL     OW67736   1.356   4.105   8.936 -0.4164  0.1727  0.1240
49915SOL    HW167737   1.320   4.021   8.909  0.7715 -0.4329  0.3863
49915SOL    HW267738   1.281   4.165   8.935 -0.7268 -0.0837 -3.3119
49916SOL     OW67739   5.618  10.495   1.335  0.4181 -0.4606 -0.1935
49916SOL    HW167740   5.631  10.408   1.373 -0.3457 -0.6993 -0.4612
49916SOL    HW267741   5.563  10.479   1.258 -2.7099  0.5994  1.6410
49917SOL     OW67742   3.515  13.910   4.736  0.1276  0.7983  0.0965
49917SOL    HW167743   3.474  13.833   4.775  1.9146 -0.3940 -0.2338
49917SOL    HW267744   3.558  13.954   4.809  0.1956  0.7462  0.0885
49918SOL     OW67745   7.963   3.740   5.206 -0.2748 -0.1643  0.0684
49918SOL    HW167746   7.957   3.648   5.179  0.0866 -0.0403 -0.4647
49918SOL    HW267747   7.884   3.780   5.170 -0.9739 -0.4841  1.2281
49919SOL     OW67748  12.584   4.451   4.287  0.3232  0.5761  0.3370
49919SOL    HW167749  12.581   4.537   4.245  0.8424 -0.2044 -1.4103
49919SOL    HW267750  12.507   4.450   4.345  1.0999  2.7185  1.5271
49920SOL     OW67751   5.017  13.037   5.353  0.6908 -0.3645  0.4490
49920SOL    HW167752   5.013  13.121   5.399  0.5674 -0.9420  1.5172
49920SOL    HW267753   5.110  13.022   5.338  0.6447  1.2406 -2.2379
49921SOL     OW67754   8.030   5.660   3.618 -0.3278 -0.0488  0.1145
49921SOL    HW167755   8.035   5.593   3.550  1.1970  0.5693 -0.4276
49921SOL    HW267756   8.026   5.743   3.570  1.9013  0.4695  0.7125
49922SOL     OW67757   4.787   3.189   4.253  0.1659 -0.1334 -0.3638
49922SOL    HW167758   4.773   3.238   4.172  1.6564 -1.3942 -1.4609
49922SOL    HW267759   4.867   3.228   4.290 -1.5296  1.7316  1.6092
49923SOL     OW67760  13.061  13.019   5.605  0.1363 -0.6273  0.3114
49923SOL    HW167761  13.152  13.002   5.583  0.1189 -2.0221  1.2203
49923SOL    HW267762  13.060  13.032   5.700 -0.7193 -1.5669  0.4545
49924SOL     OW67763  11.293   5.198   2.066  0.0382  0.3288  0.2606
49924SOL    HW167764  11.247   5.230   2.143  1.3444 -0.2111  1.3023
49924SOL    HW267765  11.364   5.143   2.101  1.0634  0.5941 -1.2871
49925SOL     OW67766   6.686  10.689  10.239 -0.2942  0.3661 -1.1064
49925SOL    HW167767   6.767  10.649  10.207  0.8703  1.1894  0.6609
49925SOL    HW267768   6.680  10.773  10.194  1.9923  2.0833  1.4913
49926SOL     OW67769   7.372   6.795   0.290 -0.3859  0.5841  0.0730
49926SOL    HW167770   7.451   6.768   0.335 -0.1902  0.5175 -0.3053
49926SOL    HW267771   7.367   6.890   0.306 -0.6200  0.4735  0.6912
49927SOL     OW67772   1.190  11.247   4.484 -0.1618 -0.3469 -0.5756
49927SOL    HW167773   1.199  11.158   4.520  0.1962 -1.1810 -2.6209
49927SOL    HW267774   1.101  11.273   4.507 -0.6083 -1.6317 -0.7541
49928SOL     OW67775   0.366   4.459   2.672  0.2843  0.0148  0.0460
49928SOL    HW167776   0.435   4.487   2.733  0.4946 -0.4998  0.0500
49928SOL    HW267777   0.288   4.503   2.703  0.5937  0.5311  0.1001
49929SOL     OW67778   5.973   7.936   5.570 -0.4366  0.3003 -0.1608
49929SOL    HW167779   6.061   7.902   5.550 -0.1844  0.3342  0.8622
49929SOL    HW267780   5.981   8.030   5.557 -0.5336  0.2228 -0.8158
49930SOL     OW67781   3.626  11.238   4.955  0.2260  0.2781 -0.0384
49930SOL    HW167782   3.647  11.228   4.862  0.3430  0.7975 -0.0647
49930SOL    HW267783   3.533  11.215   4.960 -0.5559  2.9560 -0.7551
49931SOL     OW67784   6.151   7.426   9.716  0.2932 -0.7670  0.3036
49931SOL    HW167785   6.192   7.403   9.799  0.5914 -0.6309  0.1954
49931SOL    HW267786   6.161   7.348   9.662  1.0753 -0.4772  0.0250
49932SOL     OW67787   0.019  11.911  12.811 -0.4032  0.0166  0.3549
49932SOL    HW167788   0.064  11.995  12.820  0.0058 -0.1936  0.2894
49932SOL    HW267789  -0.056  11.930  12.755 -0.9470  0.5780  1.2323
49933SOL     OW67790  12.344   3.719   8.867 -0.1176 -0.8700  0.1876
49933SOL    HW167791  12.249   3.715   8.861 -0.0904 -1.0704 -0.1257
49933SOL    HW267792  12.367   3.643   8.920 -0.1687 -0.5145  0.7314
49934SOL     OW67793   5.330   5.864   1.201  0.1949 -0.1029  0.1688
49934SOL    HW167794   5.300   5.781   1.238 -1.1756 -0.0680 -0.7920
49934SOL    HW267795   5.252   5.920   1.201  0.5304  0.4139 -1.2843
49935SOL     OW67796  12.458  11.657   6.696  0.1908  0.1544  0.4335
49935SOL    HW167797  12.376  11.615   6.721 -0.6271  1.1885 -0.4261
49935SOL    HW267798  12.435  11.748   6.680  1.6424  0.6151  0.8136
49936SOL     OW67799   9.848  12.850   3.236 -0.4524  0.0585  0.0590
49936SOL    HW167800   9.839  12.779   3.299 -0.5229  0.1006  0.0973
49936SOL    HW267801   9.761  12.890   3.233 -1.0229 -1.1770 -1.5486
49937SOL     OW67802  12.985   3.184   0.483  0.0402  0.0131 -0.0963
49937SOL    HW167803  12.985   3.172   0.387 -0.2121 -1.0474  0.0136
49937SOL    HW267804  13.057   3.244   0.500  1.8626 -1.8686 -0.7497
49938SOL     OW67805   7.840   4.486  12.016  0.2876  0.4352 -0.1393
49938SOL    HW167806   7.777   4.416  12.031  1.2000 -0.4211 -0.2441
49938SOL    HW267807   7.923   4.441  11.999  0.9163  1.5384 -0.0810
49939SOL     OW67808   8.216   2.469   8.422 -0.0173 -0.1955  0.4663
49939SOL    HW167809   8.268   2.409   8.368 -1.6007 -1.6313  0.4623
49939SOL    HW267810   8.153   2.413   8.468 -0.9665  1.3689  1.1843
49940SOL     OW67811   8.476  12.128   4.551  0.6426 -0.0685  0.4266
49940SOL    HW167812   8.438  12.042   4.572  0.2807  0.3812  1.7133
49940SOL    HW267813   8.448  12.184   4.623 -0.9519  1.7026 -1.4581
49941SOL     OW67814   1.448   0.314   4.349  0.0966  0.5366 -0.6769
49941SOL    HW167815   1.421   0.398   4.313  2.1110  0.2179 -3.2259
49941SOL    HW267816   1.435   0.252   4.277 -0.8721 -1.2857  0.9676
49942SOL     OW67817   9.674  11.014  11.874 -0.2930 -0.2642 -0.2906
49942SOL    HW167818   9.700  11.033  11.784  1.4096  0.6907  0.3479
49942SOL    HW267819   9.633  11.094  11.905 -0.5025 -0.4482 -0.0895
49943SOL     OW67820   7.711  13.535   6.058  0.2118  0.7470 -0.0044
49943SOL    HW167821   7.726  13.630   6.063  0.3765  0.6868  0.6569
49943SOL    HW267822   7.758  13.499   6.133  0.0914  0.1457 -0.2164
49944SOL     OW67823   8.483   9.434  13.945 -0.3508  0.3366 -0.0437
49944SOL    HW167824   8.438   9.362  13.990 -1.0868  1.3626  0.9363
49944SOL    HW267825   8.412   9.488  13.911  0.1852  0.8763 -0.3051
49945SOL     OW67826   5.762   4.402  11.547 -0.3229 -0.1995  1.2550
49945SOL    HW167827   5.721   4.421  11.631  1.2911  0.1753  2.0093
49945SOL    HW267828   5.735   4.312  11.526 -2.5613  0.4753  1.0118
49946SOL     OW67829   2.832   5.637  11.987  0.2887 -0.4099 -0.6786
49946SOL    HW167830   2.850   5.600  11.900  0.1849 -0.6778 -0.5893
49946SOL    HW267831   2.897   5.596  12.044  0.8607  0.3628 -0.7705
49947SOL     OW67832  12.013  10.692   9.767  0.2426  0.4237 -0.6455
49947SOL    HW167833  11.938  10.720   9.714 -0.5142  0.8386  0.6186
49947SOL    HW267834  12.009  10.747   9.845  0.9531 -0.6210  0.1462
49948SOL     OW67835   6.410   5.906  13.275  0.2385  0.2971  0.2169
49948SOL    HW167836   6.432   5.952  13.194 -2.2658 -0.3529 -0.9027
49948SOL    HW267837   6.442   5.817  13.262 -0.8569 -0.0150 -0.4066
49949SOL     OW67838   0.222  13.490  10.968 -0.5162  0.0876 -0.3625
49949SOL    HW167839   0.127  13.481  10.959 -0.5812 -0.8342  0.9080
49949SOL    HW267840   0.258  13.427  10.906 -0.7493  0.0195 -0.4281
49950SOL     OW67841   7.444   3.834   6.208  0.1883  0.0269  0.1732
49950SOL    HW167842   7.497   3.854   6.131  1.1057  1.3785  1.1122
49950SOL    HW267843   7.433   3.918   6.252 -0.0958 -0.7575  1.6516
49951SOL     OW67844   1.142  11.456   6.889  0.6851 -0.0294  0.4931
49951SOL    HW167845   1.086  11.528   6.920 -1.0869 -0.5823 -1.2347
49951SOL    HW267846   1.175  11.486   6.804 -0.0241 -1.1848 -0.2224
49952SOL     OW67847  12.248   9.031   7.439 -0.3014 -0.6260 -0.3140
49952SOL    HW167848  12.244   8.974   7.516 -1.7480  0.1832  0.2421
49952SOL    HW267849  12.274   9.116   7.473  0.8060 -0.6599 -0.9983
49953SOL     OW67850   6.041   1.159   6.570 -0.6014 -0.1165  0.2514
49953SOL    HW167851   6.123   1.173   6.619  0.4253  0.4126 -1.5354
49953SOL    HW267852   6.048   1.217   6.494 -1.2095 -2.3348 -1.5993
49954SOL     OW67853   7.372   3.923   9.808 -0.3077 -0.4006  0.1264
49954SOL    HW167854   7.363   4.007   9.854 -0.8549  0.0520 -0.7671
49954SOL    HW267855   7.428   3.870   9.865  0.8900  0.9226  0.2404
49955SOL     OW67856   0.820   1.697   5.729  0.0056  0.7260 -0.0762
49955SOL    HW167857   0.786   1.629   5.788  1.9096 -0.7131 -0.5369
49955SOL    HW267858   0.882   1.746   5.783 -0.9213  1.7557  0.0839
49956SOL     OW67859   0.132  13.618   9.154 -0.1440 -0.0390  0.0397
49956SOL    HW167860   0.186  13.631   9.076 -0.4836  0.0504 -0.1851
49956SOL    HW267861   0.079  13.698   9.159 -1.1723 -0.6581 -0.4844
49957SOL     OW67862   1.964   7.551   9.878 -0.2770 -0.2689  0.5003
49957SOL    HW167863   2.001   7.624   9.927  0.3375 -0.1377 -0.1437
49957SOL    HW267864   1.963   7.478   9.940  0.7665 -0.1860  0.6339
49958SOL     OW67865   1.701   5.124   6.671  0.3476  0.0972  0.3957
49958SOL    HW167866   1.743   5.038   6.675  0.1709 -0.0002  0.1795
49958SOL    HW267867   1.647   5.121   6.592 -1.9191 -0.6496  1.8507
49959SOL     OW67868   1.614   0.393  13.957 -0.3451  0.1000 -0.6258
49959SOL    HW167869   1.671   0.350  13.893 -1.3256  0.1471 -1.5653
49959SOL    HW267870   1.674   0.424  14.025  0.7325  0.0420 -1.5067
49960SOL     OW67871   5.649   5.658   4.075  0.2152  0.2433  0.5054
49960SOL    HW167872   5.735   5.669   4.035 -0.5125  0.3744 -1.0849
49960SOL    HW267873   5.587   5.671   4.004 -1.1319 -0.0219  1.5806
49961SOL     OW67874   7.412  10.928   8.643 -0.0639  0.0423 -0.0497
49961SOL    HW167875   7.347  10.870   8.685 -0.6510  1.3027  0.8397
49961SOL    HW267876   7.479  10.942   8.711  1.0190 -1.0074 -0.8644
49962SOL     OW67877   2.339   1.221   7.502  0.0772 -0.1576  0.4174
49962SOL    HW167878   2.364   1.136   7.539 -4.0664 -1.4737  0.6256
49962SOL    HW267879   2.304   1.200   7.416 -0.7830  1.3821  0.3604
49963SOL     OW67880   2.086   2.642  10.708 -0.2239  0.4299 -0.0224
49963SOL    HW167881   2.158   2.696  10.739 -0.1060  0.4989 -0.4142
49963SOL    HW267882   2.019   2.649  10.776  0.5474 -0.4858  0.8659
49964SOL     OW67883  13.823   3.422   7.739 -0.4480 -0.1999 -1.0964
49964SOL    HW167884  13.857   3.416   7.649 -3.7966 -1.8562 -2.4331
49964SOL    HW267885  13.782   3.508   7.743 -0.5426 -0.2369 -1.2559
49965SOL     OW67886   1.897   7.709  11.441  0.0222 -0.3447 -0.2786
49965SOL    HW167887   1.900   7.659  11.522  0.0110  0.2880  0.1234
49965SOL    HW267888   1.895   7.801  11.470 -0.4277 -0.1237 -0.9791
49966SOL     OW67889   5.463  13.822   3.140 -0.5331  0.3812  0.3025
49966SOL    HW167890   5.490  13.816   3.232  2.5001  1.4079 -0.4265
49966SOL    HW267891   5.491  13.739   3.101 -0.8162  0.4006  0.0542
49967SOL     OW67892   9.822   3.420   6.223  0.3584 -0.0838  0.1905
49967SOL    HW167893   9.794   3.398   6.135 -2.2987  1.6817  0.4848
49967SOL    HW267894   9.797   3.345   6.277  0.6990 -0.5696 -0.3265
49968SOL     OW67895   2.298   1.281   9.065 -1.0880  0.0351  0.6654
49968SOL    HW167896   2.315   1.329   8.984  2.6449 -1.0864  0.5925
49968SOL    HW267897   2.271   1.194   9.036  0.5803 -0.4729  0.5357
49969SOL     OW67898   7.840   2.871  13.607 -0.3196 -0.4608  1.1000
49969SOL    HW167899   7.784   2.932  13.654  0.6920  0.7228  0.8287
49969SOL    HW267900   7.790   2.847  13.529 -0.4050  0.7243  0.7641
49970SOL     OW67901  13.967   6.967  13.732  0.4592 -0.2279  0.0403
49970SOL    HW167902  14.054   6.933  13.753  0.2568 -1.0631 -0.4085
49970SOL    HW267903  13.969   6.982  13.637 -0.0365 -0.7187 -0.0543
49971SOL     OW67904  12.296   6.895  12.459  0.0908 -0.9224 -0.3563
49971SOL    HW167905  12.347   6.814  12.459 -0.2639 -1.1900 -2.1045
49971SOL    HW267906  12.209   6.869  12.429 -0.5653 -0.1615  0.7870
49972SOL     OW67907   0.500   3.579   9.614 -0.5054  0.2541 -0.2503
49972SOL    HW167908   0.460   3.594   9.528 -1.6606 -0.7253  0.0827
49972SOL    HW267909   0.543   3.494   9.606  1.2742  1.1269 -0.4877
49973SOL     OW67910   8.596   8.523   1.884 -0.3042 -0.5446  0.1156
49973SOL    HW167911   8.570   8.614   1.897 -1.3127 -0.9854  1.3557
49973SOL    HW267912   8.616   8.517   1.790 -0.0398  0.9831  0.0558
49974SOL     OW67913   4.288   0.822   4.032  0.2356  0.3089 -0.0406
49974SOL    HW167914   4.276   0.730   4.055 -0.8760  0.3975 -0.2075
49974SOL    HW267915   4.205   0.864   4.055  1.5738  1.8465  2.6160
49975SOL     OW67916   5.470   7.037   7.168 -0.0314 -0.0636  0.1311
49975SOL    HW167917   5.473   6.961   7.109  0.0847 -1.4071  1.8111
49975SOL    HW267918   5.380   7.069   7.160  0.3770  0.7542 -1.8992
49976SOL     OW67919   9.378   0.716  11.892 -0.1740  0.7473 -0.0561
49976SOL    HW167920   9.375   0.785  11.958  0.9568  0.5899  0.1683
49976SOL    HW267921   9.441   0.747  11.828  0.3772 -0.0918  0.0687
49977SOL     OW67922  11.415   2.466   0.029  0.4365 -0.2203  0.5363
49977SOL    HW167923  11.394   2.436   0.117  2.8137  1.1359  1.6773
49977SOL    HW267924  11.422   2.561   0.038  0.2732 -0.0117 -1.2432
49978SOL     OW67925  13.316   4.561   8.258  0.4584  0.5150 -0.4999
49978SOL    HW167926  13.348   4.649   8.236  2.2853 -0.0739 -0.3848
49978SOL    HW267927  13.368   4.503   8.203  0.9383 -0.6291  1.0970
49979SOL     OW67928   8.418  11.034  10.997 -0.0453  0.3330 -0.1870
49979SOL    HW167929   8.466  11.064  10.920 -1.8301  0.2847 -1.3762
49979SOL    HW267930   8.385  10.948  10.973 -0.3887  0.1862  0.7662
49980SOL     OW67931   3.689   0.666   6.803 -0.1362  0.4705 -0.1391
49980SOL    HW167932   3.642   0.623   6.732 -1.0205 -0.0089  0.7025
49980SOL    HW267933   3.757   0.604   6.828  1.5357  1.5068 -1.8993
49981SOL     OW67934   6.050   3.667   2.214  0.2768  0.3959 -0.0403
49981SOL    HW167935   6.129   3.616   2.194  0.3348 -0.0819  1.3077
49981SOL    HW267936   5.977   3.611   2.185  0.3621 -0.2070  0.8913
49982SOL     OW67937   5.407  11.055   8.191 -0.0479  0.4030 -0.4054
49982SOL    HW167938   5.434  11.057   8.283  2.4967 -0.3618 -1.0650
49982SOL    HW267939   5.393  10.962   8.173  0.0088  0.4985 -0.9390
49983SOL     OW67940   6.082  10.590   1.264  0.0503 -0.0102  0.6356
49983SOL    HW167941   6.034  10.555   1.189 -0.7696  0.4431  0.9388
49983SOL    HW267942   6.025  10.572   1.339  0.0368  1.1104  0.9182
49984SOL     OW67943  13.888   3.952  11.906  0.7197 -0.4993 -0.0535
49984SOL    HW167944  13.861   4.029  11.856 -0.7389 -1.7858 -1.3710
49984SOL    HW267945  13.854   3.967  11.994  0.5599  0.4112 -0.2643
49985SOL     OW67946  11.273   6.970   1.885 -0.2443  0.0674 -0.1221
49985SOL    HW167947  11.271   7.013   1.970 -0.4762 -0.8947  0.3778
49985SOL    HW267948  11.209   7.018   1.831  1.2795  1.9084 -0.3953
49986SOL     OW67949   4.862  12.106  12.625 -0.2797 -0.0473  0.3985
49986SOL    HW167950   4.781  12.153  12.643 -0.8810 -0.6951 -0.5862
49986SOL    HW267951   4.906  12.158  12.558  0.2015  0.3835  1.0380
49987SOL     OW67952  12.510   2.804   1.043  0.7044 -0.6365  0.2062
49987SOL    HW167953  12.478   2.863   1.112  0.2511 -0.7851  0.1311
49987SOL    HW267954  12.474   2.718   1.067 -0.4384 -0.4723 -0.8287
49988SOL     OW67955   2.172   8.700   2.544 -0.1667 -0.3696  0.0607
49988SOL    HW167956   2.209   8.753   2.614  1.7956 -1.7743  0.1472
49988SOL    HW267957   2.176   8.757   2.467 -2.3466  1.1839  0.9754
49989SOL     OW67958   4.020  12.569  10.665 -0.0469  0.4704 -0.2760
49989SOL    HW167959   3.968  12.624  10.606 -1.4147  1.3097  1.6015
49989SOL    HW267960   4.111  12.596  10.649 -0.3380  0.4131 -2.2078
49990SOL     OW67961   4.969  10.403   1.654 -0.2287 -0.1889 -0.0901
49990SOL    HW167962   4.880  10.438   1.656 -0.8174 -1.4045 -1.8975
49990SOL    HW267963   5.017  10.464   1.599  0.5235  1.3275  2.1413
49991SOL     OW67964   0.193   2.156   1.924 -0.6945 -0.3997 -0.5436
49991SOL    HW167965   0.196   2.240   1.877  0.1658 -1.4458 -2.4827
49991SOL    HW267966   0.154   2.095   1.861  0.2875 -1.8271  0.1789
49992SOL     OW67967  10.730   5.289  10.952  0.6935  0.2932  0.6359
49992SOL    HW167968  10.742   5.260  10.862 -1.1703 -1.4557  0.8566
49992SOL    HW267969  10.688   5.374  10.944  3.0874  1.4910 -0.0709
49993SOL     OW67970  11.022   0.009   3.000 -0.5460  0.2299  0.4671
49993SOL    HW167971  10.961   0.083   2.990  0.7541  1.2607 -0.1444
49993SOL    HW267972  11.108   0.050   3.001  0.1039 -0.8917  4.3780
49994SOL     OW67973   0.750  12.978   8.014 -0.4035 -0.4414 -0.4612
49994SOL    HW167974   0.688  13.044   7.983 -1.6840 -1.4759 -0.1414
49994SOL    HW267975   0.697  12.901   8.033  1.0155 -1.4520 -0.4398
49995SOL     OW67976  11.874   4.309   0.525 -0.3021 -0.1223 -0.6126
49995SOL    HW167977  11.906   4.369   0.456  0.2746 -0.1333 -0.3623
49995SOL    HW267978  11.954   4.275   0.565 -0.6276 -1.1941 -0.8638
49996SOL     OW67979  13.019   8.038   7.032 -0.6633  0.3968  0.1213
49996SOL    HW167980  12.964   8.116   7.034 -2.1984 -0.5654 -1.4016
49996SOL    HW267981  12.980   7.983   6.963  2.3035 -0.3020 -1.1373
49997SOL     OW67982   5.111  10.259   3.258 -0.1285 -0.3826 -0.3728
49997SOL    HW167983   5.189  10.279   3.310 -0.2656 -0.9357  0.0463
49997SOL    HW267984   5.116  10.165   3.242 -1.0066 -0.5213  0.1406
49998SOL     OW67985  10.464  10.074   0.515  0.4914 -0.1067 -0.2982
49998SOL    HW167986  10.433  10.003   0.571  0.4682  0.8059  0.8712
49998SOL    HW267987  10.516  10.031   0.448 -0.7913 -1.3781 -0.5174
49999SOL     OW67988  13.366  11.022   6.976 -0.2724 -0.0004 -0.0003
49999SOL    HW167989  13.351  11.013   6.882  1.4462  0.0122 -0.3045
49999SOL    HW267990  13.355  11.116   6.993 -2.6319 -0.2632  0.2392
50000SOL     OW67991  12.889   8.746   9.345 -0.3113  0.1952  0.7019
50000SOL    HW167992  12.810   8.733   9.293  1.8504  1.8215 -3.5094
50000SOL    HW267993  12.950   8.680   9.312  0.7962  0.4103  2.2294
50001SOL     OW67994   6.692  12.107   6.458  0.3422 -0.4937 -0.3956
50001SOL    HW167995   6.611  12.129   6.503 -0.1198 -0.7562 -1.0822
50001SOL    HW267996   6.668  12.102   6.366  0.7243 -2.3368 -0.4522
50002SOL     OW67997   1.366  12.324   0.626 -0.2500 -0.6283  0.1568
50002SOL    HW167998   1.390  12.351   0.715 -0.9257  1.0757 -0.1451
50002SOL    HW267999   1.284  12.276   0.638  0.9786 -2.7145  0.7033
50003SOL     OW68000   3.544   9.481   7.264  0.4587 -0.2727  0.0966
50003SOL    HW168001   3.533   9.501   7.171  0.8734  0.4048  0.1825
50003SOL    HW268002   3.545   9.386   7.268  0.9587 -0.3122 -0.6633
50004SOL     OW68003   0.268   7.743  10.643  0.0139 -0.0238  0.2059
50004SOL    HW168004   0.194   7.799  10.619 -0.3668 -0.5704  0.1072
50004SOL    HW268005   0.243   7.656  10.615  1.1224 -0.0570 -0.7696
50005SOL     OW68006   3.310   1.616   5.729 -0.5057 -0.3690 -0.5843
50005SOL    HW168007   3.396   1.588   5.760 -0.6931  2.0449  2.6447
50005SOL    HW268008   3.314   1.712   5.732 -3.5207 -0.1706  0.5358
50006SOL     OW68009  11.119   8.370   7.397  0.5373  0.4315  0.6202
50006SOL    HW168010  11.192   8.381   7.459  1.1394 -2.3131  0.5167
50006SOL    HW268011  11.051   8.328   7.448 -0.3939  1.4976  0.2907
50007SOL     OW68012   1.662   1.004   5.385 -0.1269  0.5239  0.6468
50007SOL    HW168013   1.719   0.942   5.339 -0.6534 -0.1142  0.8272
50007SOL    HW268014   1.719   1.076   5.411  0.6215 -0.1596  0.9276
50008SOL     OW68015   3.824  10.024   5.673  0.1748 -1.1625  0.0538
50008SOL    HW168016   3.835   9.961   5.602 -0.5007  0.5680 -1.6508
50008SOL    HW268017   3.872  10.102   5.645 -0.2967 -0.3525  1.3878
50009SOL     OW68018   5.362   8.335  10.139 -0.1472  0.2893 -0.2049
50009SOL    HW168019   5.267   8.344  10.138 -0.1295  0.6294  0.5814
50009SOL    HW268020   5.388   8.353  10.048 -0.6405  2.4711  0.0170
50010SOL     OW68021  11.390   2.180   8.137  0.4060  0.3544  0.2494
50010SOL    HW168022  11.308   2.146   8.102  1.3535 -0.5886 -1.1347
50010SOL    HW268023  11.448   2.104   8.141  1.4624  1.1520  0.4926
50011SOL     OW68024  12.110   4.483  10.077 -0.1367  0.2350 -0.3746
50011SOL    HW168025  12.079   4.551  10.136  0.5490 -0.3094  0.6414
50011SOL    HW268026  12.180   4.525  10.027 -0.2341  0.4930 -0.2954
50012SOL     OW68027   8.033   3.822   8.678  0.2950 -0.0367 -0.5053
50012SOL    HW168028   8.057   3.884   8.747 -0.2878 -2.8560  2.4436
50012SOL    HW268029   7.961   3.771   8.715  0.2878 -2.0426 -3.0227
50013SOL     OW68030  13.472   9.378   5.387  0.2833 -0.4907  0.5915
50013SOL    HW168031  13.431   9.377   5.301 -1.1010 -1.5420  1.2160
50013SOL    HW268032  13.565   9.365   5.371 -0.1134 -1.9686 -0.6751
50014SOL     OW68033   4.375  11.942  12.750  0.0637  0.1113 -0.8294
50014SOL    HW168034   4.419  11.963  12.668 -1.0624  2.8441 -0.8454
50014SOL    HW268035   4.292  11.990  12.745  0.0245  0.4562  1.9438
50015SOL     OW68036   6.230   7.608  13.195  0.1976  0.2058 -0.8067
50015SOL    HW168037   6.319   7.576  13.208 -0.8408 -2.1818  1.3889
50015SOL    HW268038   6.213   7.595  13.102  1.9742  0.3660 -1.1971
50016SOL     OW68039   2.927   5.038  11.097 -0.0390 -0.2598  0.6914
50016SOL    HW168040   3.006   5.069  11.053 -0.4720  0.1320  0.1558
50016SOL    HW268041   2.924   4.944  11.078 -0.6669  0.0448 -0.8933
50017SOL     OW68042   4.645  12.620  14.147 -0.3800 -0.0484 -0.0176
50017SOL    HW168043   4.695  12.607  14.067  3.2405  0.6314  1.9105
50017SOL    HW268044   4.657  12.538  14.196  0.9650  0.9993  1.4870
50018SOL     OW68045  11.200  13.746  13.385 -0.2882  0.5378  0.4200
50018SOL    HW168046  11.114  13.788  13.381  0.2771  1.6860 -0.1752
50018SOL    HW268047  11.259  13.814  13.417  0.5471  0.0032  0.0650
50019SOL     OW68048  10.123   1.694  13.835  0.1486 -0.0415 -0.1339
50019SOL    HW168049  10.196   1.664  13.889 -0.1376  1.6435  1.2809
50019SOL    HW268050  10.160   1.700  13.747  0.8827 -1.9687  0.0026
50020SOL     OW68051   1.013   4.739   8.366 -0.1371  0.1202 -0.2237
50020SOL    HW168052   1.051   4.686   8.296  1.0167 -0.5984  0.9012
50020SOL    HW268053   0.929   4.769   8.330  0.7370  0.4013 -2.1761
50021SOL     OW68054   6.002   2.123   9.649 -0.2886 -0.3062 -0.0982
50021SOL    HW168055   5.945   2.050   9.673 -1.2895 -1.1983 -4.3364
50021SOL    HW268056   5.945   2.200   9.652 -0.8042 -0.6412 -0.9773
50022SOL     OW68057   8.714  11.806  11.644 -0.0171 -0.0961  0.1622
50022SOL    HW168058   8.787  11.822  11.584  0.0913  0.0831  0.3402
50022SOL    HW268059   8.656  11.881  11.631 -0.0337 -0.0992  0.2210
50023SOL     OW68060   9.944   5.549   1.251 -0.1896  0.0653 -0.1349
50023SOL    HW168061   9.971   5.515   1.166 -1.1608  1.2841 -0.9765
50023SOL    HW268062   9.863   5.501   1.271  0.4293 -0.7540  0.4866
50024SOL     OW68063   5.538  11.323   3.814  0.0993 -0.2731  0.1973
50024SOL    HW168064   5.527  11.242   3.864 -0.2678 -0.3587 -0.0192
50024SOL    HW268065   5.509  11.392   3.874  2.4249 -0.0575  1.1829
50025SOL     OW68066   1.028   2.508   1.016 -0.4569  0.0736 -0.5380
50025SOL    HW168067   0.944   2.466   1.037 -0.1868 -0.0169  0.4238
50025SOL    HW268068   1.060   2.460   0.940 -1.8390  0.9078 -1.6779
50026SOL     OW68069  11.534   5.204   9.077  0.2749  0.2947 -0.0921
50026SOL    HW168070  11.480   5.243   9.008 -1.3919  0.9606  1.5152
50026SOL    HW268071  11.556   5.278   9.134 -2.3386 -0.8212  2.6370
50027SOL     OW68072   2.502  13.957   9.271 -0.1589 -0.2900 -0.4292
50027SOL    HW168073   2.456  13.873   9.271 -0.4920 -0.1097 -1.2068
50027SOL    HW268074   2.446  14.015   9.322  0.9651 -0.9924  1.7623
50028SOL     OW68075   9.369   7.401  13.663  0.1720 -0.2670 -0.3607
50028SOL    HW168076   9.372   7.314  13.702 -1.5940 -0.7317 -1.1608
50028SOL    HW268077   9.422   7.455  13.721  1.8076 -1.9771 -0.1799
50029SOL     OW68078   9.439   2.312   9.717  0.1169  0.3984 -0.2502
50029SOL    HW168079   9.344   2.325   9.709  0.0731 -0.3958 -1.3335
50029SOL    HW268080   9.474   2.400   9.734 -0.7187  0.8977 -0.9784
50030SOL     OW68081   0.295   9.262  12.734 -0.2641  0.3505 -0.2130
50030SOL    HW168082   0.303   9.217  12.650 -1.2344  0.8564 -0.5879
50030SOL    HW268083   0.345   9.207  12.795 -0.4301 -0.5881 -0.8965
50031SOL     OW68084   6.634   8.736  13.820  0.7341 -0.0475  0.3900
50031SOL    HW168085   6.539   8.738  13.810  0.7762  0.3920  0.0883
50031SOL    HW268086   6.659   8.827  13.836  0.8883 -0.4110  2.4654
50032SOL     OW68087   9.237   4.748  10.477  0.0464  0.2982  0.2817
50032SOL    HW168088   9.187   4.673  10.509  1.2879  0.4031  2.7210
50032SOL    HW268089   9.184   4.824  10.502 -0.2642  0.3118 -0.3970
50033SOL     OW68090  11.433   9.443   9.588  0.1108  0.4394 -0.1285
50033SOL    HW168091  11.494   9.390   9.538 -1.5859 -1.8689  0.1164
50033SOL    HW268092  11.428   9.400   9.673 -1.3157  0.9864  0.0863
50034SOL     OW68093   4.277   5.066   0.709  0.7300  0.4972 -0.0031
50034SOL    HW168094   4.302   5.140   0.655  0.4562  1.5083  1.2049
50034SOL    HW268095   4.359   5.031   0.743  0.8001  0.8118  0.1468
50035SOL     OW68096   8.132   0.355   9.841 -0.8084  0.1991  0.2203
50035SOL    HW168097   8.124   0.444   9.877  0.3167 -0.2319  1.6369
50035SOL    HW268098   8.121   0.298   9.917  2.3544 -0.7555  0.0894
50036SOL     OW68099   2.603  11.986  11.409  0.1712 -0.6724  0.0486
50036SOL    HW168100   2.529  11.993  11.469  0.4505 -1.1208  0.4522
50036SOL    HW268101   2.650  11.909  11.438  0.5076 -0.6932 -0.5366
50037SOL     OW68102   1.360  13.480   9.810 -0.1617 -0.2292 -0.0973
50037SOL    HW168103   1.419  13.462   9.738  0.2515  0.8507 -0.0516
50037SOL    HW268104   1.277  13.439   9.785  0.8778 -2.7667  0.3618
50038SOL     OW68105  12.293  13.864   3.289 -0.6484  0.3368  0.0447
50038SOL    HW168106  12.236  13.849   3.364 -0.8735  1.1145  0.0421
50038SOL    HW268107  12.369  13.909   3.325 -0.1627 -0.4237 -0.0001
50039SOL     OW68108   8.577   1.778   8.175  0.1336  0.0658  0.4699
50039SOL    HW168109   8.566   1.713   8.244  0.8143  1.1184  1.6042
50039SOL    HW268110   8.514   1.753   8.108  1.3398 -2.5998  0.1988
50040SOL     OW68111   8.451   9.590   3.328 -0.2903  0.2850  0.7566
50040SOL    HW168112   8.370   9.542   3.346  0.4669 -1.1491  0.5009
50040SOL    HW268113   8.508   9.568   3.402  0.2904  0.2703  0.3094
50041SOL     OW68114  11.310   7.279   7.990 -0.3560 -0.0293 -0.1556
50041SOL    HW168115  11.246   7.210   7.975 -1.1186  0.4684  0.7183
50041SOL    HW268116  11.380   7.236   8.038 -0.5028 -0.3433 -0.2166
50042SOL     OW68117   2.556   2.376   9.921 -0.7771 -0.1849  0.1454
50042SOL    HW168118   2.514   2.316   9.983 -2.5543  1.5600  0.7393
50042SOL    HW268119   2.493   2.387   9.851 -0.5582  1.0504  0.1098
50043SOL     OW68120   1.353   1.771   8.457 -0.2605 -0.3196  0.6294
50043SOL    HW168121   1.412   1.728   8.519  2.1167  2.2094  0.3649
50043SOL    HW268122   1.365   1.865   8.474 -0.8369  0.4272 -2.4548
50044SOL     OW68123  11.263  10.863  10.601  0.0866 -0.1320 -0.6010
50044SOL    HW168124  11.289  10.780  10.562  0.3262 -0.3142 -0.0653
50044SOL    HW268125  11.332  10.924  10.576  0.7767 -0.4887  0.3709
50045SOL     OW68126   6.606   4.874  13.487  0.2589  0.4718 -0.0401
50045SOL    HW168127   6.523   4.827  13.481  1.0283 -1.0082  0.5293
50045SOL    HW268128   6.602   4.919  13.572 -0.5164  1.5607 -0.6269
50046SOL     OW68129  11.214   2.547   8.545 -0.1034 -0.3808  0.0230
50046SOL    HW168130  11.209   2.516   8.455 -2.8381  0.7708 -0.3171
50046SOL    HW268131  11.127   2.529   8.581 -0.2404  2.3425  1.3048
50047SOL     OW68132   1.852   7.130   9.776 -0.6133  0.2681 -0.2106
50047SOL    HW168133   1.887   7.051   9.735 -0.2978 -0.2144  0.9283
50047SOL    HW268134   1.757   7.119   9.770 -0.5889 -0.6326  0.6727
50048SOL     OW68135   7.702  12.538   6.383 -0.0938 -0.2499  0.2112
50048SOL    HW168136   7.712  12.621   6.337 -0.7748 -0.8068 -0.9824
50048SOL    HW268137   7.611  12.538   6.413 -0.4933 -1.0845 -0.9103
50049SOL     OW68138   1.441  13.098   9.121 -0.5279 -0.2042  0.3161
50049SOL    HW168139   1.374  13.076   9.056 -0.4272  0.3272  0.0212
50049SOL    HW268140   1.505  13.028   9.114 -0.3011  0.0634 -0.4692
50050SOL     OW68141   4.494   0.774   0.086 -0.2517  0.6160  0.4267
50050SOL    HW168142   4.488   0.790  -0.008  1.0968 -2.8160 -0.4133
50050SOL    HW268143   4.569   0.826   0.115 -0.1929  1.0986 -0.5686
50051SOL     OW68144   3.955   1.122   1.503  0.1680  0.1792 -0.4008
50051SOL    HW168145   4.018   1.166   1.446 -0.4734  0.5809 -0.8129
50051SOL    HW268146   3.973   1.029   1.492 -0.2704  0.2280 -1.6630
50052SOL     OW68147   4.779   9.147  11.001 -0.1089 -0.4477 -0.4718
50052SOL    HW168148   4.686   9.130  11.016 -0.1197 -1.0052 -1.0642
50052SOL    HW268149   4.807   9.073  10.946  0.5672 -0.0252 -0.7009
50053SOL     OW68150   6.534   9.447   4.457  0.5488  0.0730 -0.2649
50053SOL    HW168151   6.589   9.522   4.435  1.1507  0.2351  1.6079
50053SOL    HW268152   6.470   9.480   4.519  1.6807 -1.1510  1.6964
50054SOL     OW68153   1.830   1.806  10.498  0.3595 -0.1773 -0.0021
50054SOL    HW168154   1.889   1.809  10.423  0.3995 -0.7522  0.0002
50054SOL    HW268155   1.806   1.897  10.514  1.9197  0.1715  0.5306
50055SOL     OW68156   8.728   7.027   4.983  0.2546  0.2455 -0.8872
50055SOL    HW168157   8.669   6.963   4.945 -0.8133 -0.2878  1.4597
50055SOL    HW268158   8.812   6.981   4.991 -0.0875 -0.3418 -0.6300
50056SOL     OW68159   9.479   0.541   5.968 -0.1730 -0.7371  0.2059
50056SOL    HW168160   9.514   0.512   5.883 -0.0363  0.1159 -0.0345
50056SOL    HW268161   9.393   0.578   5.948  0.5889  1.1158  0.1408
50057SOL     OW68162  13.168  10.809   5.974  0.0040 -0.0715  0.5567
50057SOL    HW168163  13.216  10.727   5.962 -1.2077 -0.8223  0.7266
50057SOL    HW268164  13.146  10.837   5.885 -1.8313 -1.3153  0.5862
50058SOL     OW68165  13.487  13.612   4.809  0.7458 -0.3287 -0.5031
50058SOL    HW168166  13.460  13.549   4.876  0.5960 -1.3709 -1.5088
50058SOL    HW268167  13.546  13.672   4.854  1.7332 -1.8212  0.2624
50059SOL     OW68168   4.971   1.788   6.908 -0.5108  0.2354  0.4857
50059SOL    HW168169   5.007   1.752   6.827 -2.4152  2.2465 -1.3848
50059SOL    HW268170   5.033   1.762   6.976  1.9846 -0.2589 -1.8259
50060SOL     OW68171   3.521   2.717   4.709 -0.4057 -0.2221  1.0205
50060SOL    HW168172   3.561   2.716   4.796 -0.4695  0.9195  1.0717
50060SOL    HW268173   3.549   2.634   4.669  0.0496 -0.5194  1.9264
50061SOL     OW68174   1.866   0.510   7.787  0.5945  0.1292  0.8265
50061SOL    HW168175   1.782   0.529   7.829  1.0181  1.0310  1.2809
50061SOL    HW268176   1.875   0.579   7.721 -0.2062 -1.4341 -1.0200
50062SOL     OW68177   7.842   1.180   9.898 -0.1965 -0.6723  0.6222
50062SOL    HW168178   7.788   1.254   9.869  2.6688  1.2953 -0.1215
50062SOL    HW268179   7.868   1.137   9.817 -0.5069 -1.5247  0.9646
50063SOL     OW68180   7.425   3.590   9.872 -0.6411 -0.1676  0.8187
50063SOL    HW168181   7.507   3.606   9.918 -0.4531  2.7709 -0.3051
50063SOL    HW268182   7.412   3.496   9.878  2.5872 -0.6948  1.4075
50064SOL     OW68183  14.056  11.064  13.574 -0.0319 -0.2606  0.0428
50064SOL    HW168184  14.052  11.112  13.657  1.7811 -1.2575  0.7641
50064SOL    HW268185  14.051  11.131  13.507 -1.3090  0.5903  0.9362
50065SOL     OW68186  11.959   7.325  12.221  0.0483  0.3906  0.5239
50065SOL    HW168187  11.867   7.302  12.214  0.4374 -1.0086 -0.3151
50065SOL    HW268188  11.961   7.420  12.210 -1.1211  0.2202 -1.6542
50066SOL     OW68189  10.626  10.299  11.958 -0.8951  0.0828 -0.2755
50066SOL    HW168190  10.593  10.209  11.959 -0.2117 -0.1777 -0.7610
50066SOL    HW268191  10.640  10.319  11.866  0.0184  0.2869 -0.1006
50067SOL     OW68192   2.692  13.270   8.619  0.4423 -0.0485  0.0587
50067SOL    HW168193   2.663  13.252   8.709  0.6539 -0.6141  0.0175
50067SOL    HW268194   2.673  13.363   8.606 -3.0017 -0.6936 -0.5666
50068SOL     OW68195  10.972   8.712  13.148  0.2496  0.6485  0.0243
50068SOL    HW168196  11.053   8.666  13.171 -0.0061 -0.1108 -0.5593
50068SOL    HW268197  10.932   8.734  13.233  0.0431 -0.8167  0.3425
50069SOL     OW68198  11.551   4.954   2.544 -0.2816  0.1108 -0.3396
50069SOL    HW168199  11.504   4.905   2.611 -0.4905 -0.0602 -0.6102
50069SOL    HW268200  11.483   4.997   2.493 -0.1235  0.2418 -0.4398
50070SOL     OW68201  11.653  12.764   8.759  0.9471  0.2144  0.1965
50070SOL    HW168202  11.585  12.706   8.795  0.4575 -0.0308 -1.0727
50070SOL    HW268203  11.708  12.706   8.707  1.0795  0.7121 -0.2167
50071SOL     OW68204  10.009  10.348  10.337 -0.4321  0.3668 -0.3624
50071SOL    HW168205   9.985  10.283  10.272 -2.0375  0.5180  0.0450
50071SOL    HW268206  10.030  10.298  10.416  0.2209  0.2551 -0.6037
50072SOL     OW68207   8.672  12.422   1.163  0.3017 -0.2386 -0.0614
50072SOL    HW168208   8.621  12.477   1.103  0.4111  0.8759  0.8404
50072SOL    HW268209   8.642  12.447   1.250  1.4950 -0.4895  0.4351
50073SOL     OW68210   8.036   6.980   9.379 -0.0422  0.0403 -0.0254
50073SOL    HW168211   8.017   7.073   9.392  1.6209  0.0086  3.6279
50073SOL    HW268212   7.970   6.934   9.432  0.9706 -0.7024  0.6240
50074SOL     OW68213   4.538   9.154   5.833 -0.0278 -0.2586  0.1057
50074SOL    HW168214   4.561   9.082   5.775  3.2099 -0.1049  0.9587
50074SOL    HW268215   4.509   9.224   5.775  0.6323 -0.9525 -1.0971
50075SOL     OW68216  13.670  11.228  13.572 -0.0211 -0.2000  0.2484
50075SOL    HW168217  13.735  11.289  13.537  1.5432 -0.8608  1.8611
50075SOL    HW268218  13.622  11.279  13.638  0.0947 -0.2228  0.3501
50076SOL     OW68219   8.404   5.981   0.635 -0.1648 -0.1887 -0.2260
50076SOL    HW168220   8.490   5.961   0.597 -0.0359  0.7175 -0.4379
50076SOL    HW268221   8.359   5.896   0.638  0.7618 -0.6925 -0.0348
50077SOL     OW68222  10.845   6.567  11.170 -0.0733 -0.4467 -0.1399
50077SOL    HW168223  10.804   6.609  11.245 -0.8171  0.6023 -1.1095
50077SOL    HW268224  10.911   6.509  11.208 -0.5959 -0.1171  1.3207
50078SOL     OW68225   4.634   6.389   8.472 -0.0582 -0.2172  0.1319
50078SOL    HW168226   4.724   6.357   8.467 -0.4757 -1.2856 -2.9659
50078SOL    HW268227   4.615   6.396   8.565  2.6526 -1.6410  0.8692
50079SOL     OW68228  10.876   0.412  11.240  0.4448  0.4108 -0.6338
50079SOL    HW168229  10.871   0.381  11.330 -1.2704 -0.2678 -0.9281
50079SOL    HW268230  10.956   0.465  11.237  1.0347 -0.3276  1.0267
50080SOL     OW68231   6.204   1.320   9.871  0.1327 -0.0315 -0.2059
50080SOL    HW168232   6.250   1.268   9.805 -0.4947 -0.4943 -0.2849
50080SOL    HW268233   6.166   1.255   9.930  1.3659  0.3884  1.0976
50081SOL     OW68234  13.371   3.647  11.952 -0.5248  0.1043 -0.4214
50081SOL    HW168235  13.462   3.617  11.942 -0.2978  0.0083  1.5149
50081SOL    HW268236  13.318   3.571  11.931 -0.0783 -0.4263  0.3166
50082SOL     OW68237  11.116  10.992   7.953 -0.0724 -0.2400 -0.2443
50082SOL    HW168238  11.047  11.039   8.000 -0.9197 -1.5397 -0.1179
50082SOL    HW268239  11.090  10.994   7.861 -0.2103 -0.6150 -0.2146
50083SOL     OW68240   8.687  12.816   1.125  0.0286 -0.0947 -0.5719
50083SOL    HW168241   8.751  12.837   1.057  0.1641  0.7465 -0.1913
50083SOL    HW268242   8.625  12.889   1.123  0.0317 -0.0666  0.1971
50084SOL     OW68243   5.871  10.746   4.409 -0.6819 -0.3546  0.1633
50084SOL    HW168244   5.824  10.687   4.350 -1.4911  1.1885 -0.8045
50084SOL    HW268245   5.962  10.716   4.405 -0.9237 -1.0009 -0.9603
50085SOL     OW68246   6.553   6.826   0.572  0.1852 -0.2238  0.6450
50085SOL    HW168247   6.544   6.819   0.667 -3.3063  1.9016  0.6523
50085SOL    HW268248   6.470   6.790   0.538  0.3043  1.2812 -1.3985
50086SOL     OW68249   3.452   4.942   7.150 -0.5894  0.5463  0.1675
50086SOL    HW168250   3.400   4.994   7.211 -0.4125  2.1794 -1.0038
50086SOL    HW268251   3.533   4.923   7.198 -0.5366  1.6280  0.5467
50087SOL     OW68252  13.062   6.712   9.623 -0.2823  0.3633 -0.7023
50087SOL    HW168253  12.973   6.679   9.631  1.1836 -4.0509  0.0390
50087SOL    HW268254  13.084   6.701   9.530  0.1244 -0.5456 -0.5056
50088SOL     OW68255   3.397   6.134   0.364 -0.2552 -0.1927 -1.1136
50088SOL    HW168256   3.397   6.165   0.274  0.5259  1.3985 -0.6222
50088SOL    HW268257   3.308   6.104   0.380 -1.3348  2.4992 -1.4952
50089SOL     OW68258  13.781  11.504   4.594  0.0466 -0.4302 -0.7530
50089SOL    HW168259  13.766  11.598   4.581  0.9566 -0.3960 -1.6108
50089SOL    HW268260  13.739  11.485   4.678  1.6172  1.1954  0.4805
50090SOL     OW68261   8.896   6.847   9.192  0.1165 -0.1042  0.1025
50090SOL    HW168262   8.977   6.895   9.209  0.7725 -0.5328 -1.5925
50090SOL    HW268263   8.828   6.915   9.190  0.8265  0.6060 -0.9063
50091SOL     OW68264   1.237  12.908   4.137 -0.7445  0.4901 -0.3520
50091SOL    HW168265   1.301  12.846   4.171  0.3208  1.1084 -1.1779
50091SOL    HW268266   1.161  12.898   4.195 -0.0798 -0.5720  0.3729
50092SOL     OW68267  13.518   7.851  11.681 -0.0920  0.3824 -0.1317
50092SOL    HW168268  13.499   7.897  11.599 -0.6969  1.7334  0.7278
50092SOL    HW268269  13.575   7.912  11.729  1.4388 -1.0022 -0.1109
50093SOL     OW68270   0.388   9.776   3.178  0.1048 -0.3489 -0.3632
50093SOL    HW168271   0.359   9.851   3.229 -0.5577 -1.3127  0.7210
50093SOL    HW268272   0.481   9.767   3.198  0.6089  1.1556 -1.7959
50094SOL     OW68273  11.583  13.555   8.676 -0.3576  0.7144 -0.2563
50094SOL    HW168274  11.518  13.576   8.744  0.0037  0.5805  0.1390
50094SOL    HW268275  11.536  13.564   8.594 -1.3353 -0.9388  0.0662
50095SOL     OW68276   5.163   6.279   1.701 -0.6580  0.1808 -0.1191
50095SOL    HW168277   5.176   6.234   1.785 -0.6312 -0.6143 -0.5392
50095SOL    HW268278   5.102   6.350   1.721 -0.4101  0.1905  0.6385
50096SOL     OW68279   9.927   8.047   5.845  0.2696 -0.5443  0.4670
50096SOL    HW168280   9.890   8.095   5.771  0.7715 -0.3840  0.3197
50096SOL    HW268281   9.927   8.110   5.917  0.6462 -0.4189  0.3558
50097SOL     OW68282   7.643  14.040   1.070  0.2356 -0.0862  0.4468
50097SOL    HW168283   7.602  14.049   1.156 -0.4336 -1.7060  0.3305
50097SOL    HW268284   7.569  14.036   1.009  0.5624 -1.7740  0.1070
50098SOL     OW68285  12.640   8.579  13.387  0.1501  0.0137  0.1288
50098SOL    HW168286  12.609   8.663  13.352 -1.4669 -1.5533 -2.4652
50098SOL    HW268287  12.582   8.561  13.461  1.1205  1.5499  1.3379
50099SOL     OW68288  12.688   4.641   2.358 -0.3483  0.3105  0.0648
50099SOL    HW168289  12.636   4.677   2.286 -2.1301 -1.6056  0.2999
50099SOL    HW268290  12.749   4.581   2.317  2.2902  2.9631 -0.2734
50100SOL     OW68291   3.560  13.691   8.421  0.4413 -0.4022 -0.1476
50100SOL    HW168292   3.482  13.679   8.475 -0.3520 -0.2578 -1.2338
50100SOL    HW268293   3.567  13.609   8.373  0.8900 -0.3607 -0.1535
50101SOL     OW68294   5.665   9.867  12.556 -0.1900  0.2419 -0.1297
50101SOL    HW168295   5.705   9.889  12.472  0.0395 -1.4387 -0.4836
50101SOL    HW268296   5.702   9.782  12.579 -1.3343  0.0151  0.9836
50102SOL     OW68297  10.224   8.241   7.455 -0.1816 -0.1286  0.7457
50102SOL    HW168298  10.191   8.236   7.545  1.3810  0.9654  1.4220
50102SOL    HW268299  10.314   8.210   7.461  0.1154  0.5013 -0.3358
50103SOL     OW68300   6.190   1.735  12.276 -0.0322  0.2664 -0.2693
50103SOL    HW168301   6.129   1.783  12.331 -0.4992  0.8959 -1.3109
50103SOL    HW268302   6.275   1.748  12.318 -0.6744 -1.2750  1.6305
50104SOL     OW68303   2.666   5.274   8.840  0.7530  0.1683 -0.3982
50104SOL    HW168304   2.697   5.184   8.849  0.4812 -0.0635 -1.6051
50104SOL    HW268305   2.607   5.271   8.765 -1.4264  0.7920  1.1772
50105SOL     OW68306   1.414   5.474   2.094 -0.1534  0.0995 -0.2079
50105SOL    HW168307   1.445   5.413   2.161 -1.4392 -1.3703 -0.8921
50105SOL    HW268308   1.474   5.548   2.100 -0.0647 -0.0946  2.3727
50106SOL     OW68309   8.036  12.420   5.297  0.2349 -0.2126  0.0750
50106SOL    HW168310   8.041  12.515   5.287  1.4486 -0.3039 -0.3798
50106SOL    HW268311   7.976  12.407   5.371  0.5318  0.9219  0.5394
50107SOL     OW68312   9.353   3.192   9.136 -0.1575 -0.7066 -0.3436
50107SOL    HW168313   9.369   3.127   9.068 -0.7389 -0.8874 -0.3081
50107SOL    HW268314   9.325   3.270   9.089  1.3325 -0.1947 -0.4549
50108SOL     OW68315  10.047   2.373   9.732  0.3954 -0.0052 -0.3691
50108SOL    HW168316  10.126   2.355   9.682 -0.2339 -1.2033 -0.9705
50108SOL    HW268317  10.019   2.287   9.764 -0.0427  0.5456  0.7982
50109SOL     OW68318  14.115   4.248   3.573  0.3394  0.1091  0.5139
50109SOL    HW168319  14.080   4.311   3.636 -0.4462 -0.4269  0.6279
50109SOL    HW268320  14.090   4.282   3.487 -0.7914 -0.4463  0.6076
50110SOL     OW68321  13.369   7.771   2.128 -0.2792 -0.4896 -0.2629
50110SOL    HW168322  13.433   7.836   2.156 -0.9415  0.5336 -1.0583
50110SOL    HW268323  13.299   7.776   2.193 -0.7580  0.2719 -0.8175
50111SOL     OW68324   9.892   3.707  14.133 -0.5969 -0.0445 -0.5510
50111SOL    HW168325   9.911   3.760  14.211 -0.3592  2.0667 -1.9568
50111SOL    HW268326   9.805   3.670  14.150 -1.3047  1.7674  0.0601
50112SOL     OW68327   1.296   4.766   2.672 -0.4780  0.7991  0.3921
50112SOL    HW168328   1.258   4.849   2.701 -0.2540  1.0801 -0.0887
50112SOL    HW268329   1.222   4.716   2.637 -0.5320  1.0266  0.1736
50113SOL     OW68330  13.030   5.813   6.893 -0.6784  0.9314  0.2917
50113SOL    HW168331  13.120   5.780   6.901 -1.5194 -1.2087  2.0711
50113SOL    HW268332  13.040   5.902   6.861  1.9230 -0.1584 -2.4109
50114SOL     OW68333  13.466   7.623   9.431 -0.0548 -0.5495 -0.2120
50114SOL    HW168334  13.561   7.622   9.418  0.0836 -1.7632  0.6765
50114SOL    HW268335  13.451   7.560   9.501 -1.3331  1.0997  1.0773
50115SOL     OW68336   1.177   6.227   6.708  0.4676  0.4322 -0.1194
50115SOL    HW168337   1.149   6.255   6.796 -1.7339  0.8255 -0.8813
50115SOL    HW268338   1.155   6.301   6.651  1.1327 -0.1241 -1.1313
50116SOL     OW68339   1.745   2.502   8.108  0.0740  0.0471 -0.3613
50116SOL    HW168340   1.731   2.408   8.097  0.1628  0.1832 -1.7638
50116SOL    HW268341   1.803   2.526   8.036  0.6257  1.0569  0.3955
50117SOL     OW68342   4.567   6.961  13.082  0.5518 -0.0517  0.1775
50117SOL    HW168343   4.586   7.055  13.090 -0.4233  0.0338  1.8845
50117SOL    HW268344   4.586   6.926  13.169 -0.3029 -1.2129 -0.0964
50118SOL     OW68345   0.624  10.477   0.311  0.4366 -0.3750 -0.4637
50118SOL    HW168346   0.634  10.413   0.241 -2.4102 -1.9141  0.3835
50118SOL    HW268347   0.571  10.547   0.273  1.6217  0.4238 -0.7167
50119SOL     OW68348  10.545   0.491  11.492 -0.4676 -0.4495 -0.5642
50119SOL    HW168349  10.547   0.565  11.432 -0.5557 -0.5301 -0.6667
50119SOL    HW268350  10.629   0.446  11.477  0.2494  0.4661  0.5558
50120SOL     OW68351  10.918  11.553   3.890  0.3112  0.7367 -0.4567
50120SOL    HW168352  10.839  11.569   3.942 -0.5652  0.7066 -1.7323
50120SOL    HW268353  10.886  11.539   3.801  1.6900 -0.2221 -0.8375
50121SOL     OW68354   3.077   4.563  10.303  0.4796 -0.0148  0.2029
50121SOL    HW168355   3.138   4.570  10.376 -0.5841 -0.5605  1.1630
50121SOL    HW268356   2.991   4.576  10.342 -0.1386 -0.7169 -0.8825
50122SOL     OW68357   3.352  11.794   8.955 -0.3879 -0.2005  0.3783
50122SOL    HW168358   3.349  11.802   8.860 -1.4552 -0.3269  0.3964
50122SOL    HW268359   3.382  11.880   8.986 -0.6060  0.0244 -0.0356
50123SOL     OW68360   3.964  11.698   6.808 -0.1533 -0.3883 -0.4673
50123SOL    HW168361   4.012  11.747   6.741  0.4863  0.9855  0.9457
50123SOL    HW268362   3.875  11.733   6.806 -0.4462 -1.1386 -1.3308
50124SOL     OW68363   6.293  13.587   1.408 -0.1888  0.0016  0.3422
50124SOL    HW168364   6.358  13.637   1.359 -0.9940  1.2285  0.4875
50124SOL    HW268365   6.322  13.496   1.399  2.1980  0.5631  1.3373
50125SOL     OW68366   9.806   0.878   4.723 -0.1516 -0.0056 -0.0097
50125SOL    HW168367   9.876   0.837   4.775 -0.7857  1.4506  2.1315
50125SOL    HW268368   9.726   0.835   4.753 -0.5217  0.7705  0.1248
50126SOL     OW68369   8.657  13.480   9.970  0.4928 -0.4267 -0.7669
50126SOL    HW168370   8.651  13.394   9.928 -0.1220 -0.1419 -1.2761
50126SOL    HW268371   8.712  13.532   9.910 -0.0168 -0.1538 -1.0048
50127SOL     OW68372   9.889   6.824   1.020  0.2428  0.4319 -0.1893
50127SOL    HW168373   9.906   6.789   1.108 -1.2346 -1.6652 -0.6706
50127SOL    HW268374   9.968   6.874   0.999  1.7004 -1.0644  1.3445
50128SOL     OW68375  13.361   2.704  12.713 -0.1884  0.4369 -0.4065
50128SOL    HW168376  13.370   2.658  12.796  0.5197 -0.3432 -0.8992
50128SOL    HW268377  13.349   2.796  12.737 -1.4430  0.0496  0.5989
50129SOL     OW68378   9.888   3.999   4.989  0.3818  0.2593  0.0163
50129SOL    HW168379   9.886   4.080   5.040 -0.4392 -0.9019  1.9089
50129SOL    HW268380   9.971   3.958   5.013  0.8488  0.5604 -1.0270
50130SOL     OW68381   4.471   4.142   5.065 -0.2329 -0.0241 -0.2228
50130SOL    HW168382   4.556   4.184   5.078 -1.3035  1.8140  1.2259
50130SOL    HW268383   4.442   4.117   5.153 -0.9089 -1.2911 -0.7682
50131SOL     OW68384   2.207  10.733   9.079 -0.5099 -0.5308 -0.1176
50131SOL    HW168385   2.143  10.782   9.028 -1.2556 -2.3434 -1.0382
50131SOL    HW268386   2.154  10.671   9.130  0.2901  0.5395  2.1353
50132SOL     OW68387   9.125   0.488   9.764 -0.1658 -0.0261 -0.2150
50132SOL    HW168388   9.081   0.571   9.746  0.0406  0.4084  1.1361
50132SOL    HW268389   9.065   0.421   9.732 -1.0790  0.6047  0.1398
50133SOL     OW68390   1.560   9.583  12.677 -0.0859  0.1007 -0.7667
50133SOL    HW168391   1.630   9.646  12.658 -0.1395  0.4054  0.0106
50133SOL    HW268392   1.576   9.511  12.616  0.5907  0.4050 -0.9620
50134SOL     OW68393  11.823   1.568  11.526 -0.1213  0.2895 -0.4197
50134SOL    HW168394  11.785   1.483  11.506 -0.7059  0.8527 -1.7975
50134SOL    HW268395  11.917   1.550  11.535 -0.1698 -0.4290 -1.1903
50135SOL     OW68396   2.096  14.028   5.287  0.2069  0.4642 -0.1011
50135SOL    HW168397   2.191  14.037   5.289  0.5267 -1.7583  2.6859
50135SOL    HW268398   2.069  14.069   5.205  3.3678  2.5324 -0.2829
50136SOL     OW68399   7.661   7.976   4.726 -0.0672 -0.4072  0.1728
50136SOL    HW168400   7.708   7.902   4.767  0.6480  0.1688  0.4183
50136SOL    HW268401   7.644   8.036   4.798 -0.0347 -0.0195 -0.1417
50137SOL     OW68402  11.570  14.037   4.842  0.6096  0.3969  0.0867
50137SOL    HW168403  11.569  14.125   4.805  1.0610  0.1472 -0.5315
50137SOL    HW268404  11.623  14.046   4.922 -0.7448  1.0283  0.9618
50138SOL     OW68405  11.577  11.731   7.365 -0.1582  0.0139 -0.2108
50138SOL    HW168406  11.670  11.715   7.348 -0.0273  0.0866  0.4092
50138SOL    HW268407  11.544  11.770   7.284  0.3118 -0.1658 -0.4922
50139SOL     OW68408   8.442   7.762   4.583  0.2376 -0.1773 -0.0873
50139SOL    HW168409   8.530   7.750   4.617 -0.2419 -1.7382  0.6941
50139SOL    HW268410   8.448   7.739   4.490  0.9512  1.2936 -0.4357
50140SOL     OW68411   0.566   9.441   5.594  0.1609 -0.0339 -0.3491
50140SOL    HW168412   0.590   9.531   5.576  0.1686  0.1464  0.5329
50140SOL    HW268413   0.523   9.411   5.514 -0.4316  0.9607 -0.4220
50141SOL     OW68414  11.721  10.962   9.828  0.1512 -0.3502  0.1014
50141SOL    HW168415  11.806  10.982   9.789 -0.1433  0.0267 -0.3560
50141SOL    HW268416  11.695  10.878   9.791  0.1429 -0.2739 -0.0651
50142SOL     OW68417   0.540   2.306   5.477 -0.0336  0.1427  0.0774
50142SOL    HW168418   0.512   2.229   5.428 -0.0976  0.6374 -0.6828
50142SOL    HW268419   0.598   2.272   5.545 -1.4090 -0.7555  0.8397
50143SOL     OW68420   1.067  10.845   3.052  0.1317  0.3314 -0.5056
50143SOL    HW168421   1.095  10.887   2.971  1.6788 -0.9111 -0.6660
50143SOL    HW268422   0.987  10.891   3.076 -1.4128 -0.4086 -3.6757
50144SOL     OW68423  10.419   1.573   6.354 -0.4721 -0.4855 -0.3309
50144SOL    HW168424  10.470   1.565   6.434 -1.0553 -0.6507  0.0263
50144SOL    HW268425  10.484   1.590   6.286 -0.1282  1.8440  0.4964
50145SOL     OW68426  10.797   2.309  10.085 -0.4903 -0.1617 -0.7629
50145SOL    HW168427  10.874   2.265  10.048  0.0193  0.1583 -0.0873
50145SOL    HW268428  10.832   2.374  10.145 -1.3051 -0.9605  0.6395
50146SOL     OW68429  12.125   9.900   5.933 -0.5563  0.0582 -0.1115
50146SOL    HW168430  12.085   9.952   6.002 -0.3301  0.2209 -0.1010
50146SOL    HW268431  12.064   9.907   5.859  0.0779  1.3882 -0.5325
50147SOL     OW68432   7.509   3.528   2.797 -0.4712  0.2341 -0.1021
50147SOL    HW168433   7.448   3.510   2.869 -0.6401  0.3267 -0.2220
50147SOL    HW268434   7.596   3.515   2.836 -0.4884  1.8574  0.5866
50148SOL     OW68435  11.788  13.019   4.472  0.5815  0.0076 -0.5363
50148SOL    HW168436  11.875  13.054   4.457  0.5547  0.0001 -0.7161
50148SOL    HW268437  11.732  13.096   4.479  0.8566  0.0740  1.2516
50149SOL     OW68438   2.883   9.252   5.334  0.0230  0.4411  0.2395
50149SOL    HW168439   2.867   9.343   5.306 -0.2098  0.9950  2.0219
50149SOL    HW268440   2.879   9.201   5.253 -0.9452  1.8777 -0.6737
50150SOL     OW68441   6.394   5.203  10.207 -0.1123  0.6069  0.0999
50150SOL    HW168442   6.298   5.207  10.207 -0.1131  0.5666  0.2303
50150SOL    HW268443   6.418   5.186  10.298  0.0598  1.4691  0.2184
50151SOL     OW68444   5.564  11.423   6.976  0.1994 -0.5724  0.2799
50151SOL    HW168445   5.561  11.328   6.970 -1.4534 -0.5891  0.8283
50151SOL    HW268446   5.566  11.441   7.070 -1.6565 -0.0678  0.2543
50152SOL     OW68447   4.468   6.509   3.768 -0.0195 -0.0576  0.2548
50152SOL    HW168448   4.485   6.441   3.702 -0.0951  0.5163 -0.3678
50152SOL    HW268449   4.386   6.550   3.740  1.2390  1.8944 -0.7703
50153SOL     OW68450   5.900  11.125   3.575 -0.5969  0.4247  0.5252
50153SOL    HW168451   5.884  11.214   3.606  0.4027  1.1054 -0.8287
50153SOL    HW268452   5.989  11.106   3.603 -0.4706  0.2173 -0.0206
50154SOL     OW68453   9.209   3.151   0.477 -0.2777  0.3248  0.0198
50154SOL    HW168454   9.194   3.220   0.542 -0.7554 -0.7300  1.0716
50154SOL    HW268455   9.270   3.091   0.520 -0.1767 -0.1207 -0.7274
50155SOL     OW68456  10.339  12.054  10.810  0.0051  0.2122  0.2657
50155SOL    HW168457  10.348  12.120  10.878 -0.1554  1.0123 -0.4670
50155SOL    HW268458  10.416  11.998  10.820  0.5291  0.9476  0.4454
50156SOL     OW68459   1.410  10.394   9.081 -0.0517  0.3199  0.2325
50156SOL    HW168460   1.399  10.372   8.988 -1.3981 -2.8615  1.0002
50156SOL    HW268461   1.328  10.437   9.104 -0.5639 -0.6595  0.3220
50157SOL     OW68462  10.352   7.628   7.791 -0.3234 -0.1914 -0.1702
50157SOL    HW168463  10.404   7.562   7.836 -0.0726  0.5613  0.6845
50157SOL    HW268464  10.269   7.630   7.840 -0.5075 -0.1972 -0.4784
50158SOL     OW68465  11.963   5.091   8.412  0.0001  0.2101  0.3435
50158SOL    HW168466  11.912   5.143   8.474 -1.6091 -2.2514  1.2830
50158SOL    HW268467  12.046   5.075   8.457 -0.7295 -0.6199  1.4688
50159SOL     OW68468  13.158   5.431   8.496  0.1328  0.4797 -0.3222
50159SOL    HW168469  13.168   5.386   8.412  1.0491  0.9053 -0.4557
50159SOL    HW268470  13.117   5.366   8.554  1.7920 -0.6918 -0.3886
50160SOL     OW68471  11.927  12.492   0.840 -0.2573  0.4501  0.1830
50160SOL    HW168472  11.834  12.514   0.848 -0.3537 -0.0069  0.3347
50160SOL    HW268473  11.934  12.404   0.877  0.3926  0.8445  1.0291
50161SOL     OW68474  12.326  11.677   7.285  0.1540  0.0883  0.4170
50161SOL    HW168475  12.394  11.677   7.218 -0.2189  0.8356  0.0229
50161SOL    HW268476  12.327  11.766   7.321 -1.1963  0.3804 -0.2119
50162SOL     OW68477   2.505   0.637   6.425  0.2397 -0.1088  0.3360
50162SOL    HW168478   2.542   0.581   6.357 -1.3832 -0.2892 -0.4293
50162SOL    HW268479   2.418   0.601   6.442 -0.2778  1.3046  0.8590
50163SOL     OW68480   8.537   4.374  13.796  0.2899  0.3509 -0.1663
50163SOL    HW168481   8.553   4.387  13.703 -0.5263  0.4820 -0.2937
50163SOL    HW268482   8.604   4.426  13.839  0.9047 -0.0025 -0.6727
50164SOL     OW68483   6.351  12.591   2.875  0.2482  0.5332  0.9145
50164SOL    HW168484   6.412  12.661   2.901 -0.1951  0.9828  0.7739
50164SOL    HW268485   6.355  12.527   2.946  2.5006 -0.5210 -0.0795
50165SOL     OW68486   6.518   0.034   5.656  0.1666 -0.1006 -0.0957
50165SOL    HW168487   6.548   0.040   5.747  0.8308 -0.0637 -0.3130
50165SOL    HW268488   6.586   0.078   5.605  0.5956 -1.4592 -0.7743
50166SOL     OW68489   9.804  13.009   0.914 -0.3579  0.3070  0.0348
50166SOL    HW168490   9.746  12.933   0.906  2.7139 -2.3252  0.5941
50166SOL    HW268491   9.831  13.009   1.006  3.0824 -0.7913 -0.8320
50167SOL     OW68492   3.584  10.488   6.082  0.4703 -0.1855 -0.1606
50167SOL    HW168493   3.567  10.534   6.165  1.1894 -0.1787 -0.0160
50167SOL    HW268494   3.514  10.422   6.077 -0.7706  1.1122 -0.5296
50168SOL     OW68495   3.451  13.350   7.577  0.5920 -0.4035  0.3430
50168SOL    HW168496   3.514  13.337   7.648  0.0192  1.1752  1.1947
50168SOL    HW268497   3.431  13.444   7.579  1.5484 -0.0211 -2.7871
50169SOL     OW68498   4.051   4.317  10.895  0.1900  0.0078 -0.2243
50169SOL    HW168499   4.011   4.230  10.905 -0.7959  0.4159 -0.5423
50169SOL    HW268500   4.081   4.339  10.983  3.3629 -1.9743 -0.6332
50170SOL     OW68501   8.244   4.732   0.613 -0.3528  0.1951 -0.0015
50170SOL    HW168502   8.302   4.749   0.539  1.7366 -1.3554  1.1935
50170SOL    HW268503   8.272   4.647   0.647 -3.2245 -0.5462  0.7827
50171SOL     OW68504   7.110   2.912   9.867  0.2789  0.3296 -0.1369
50171SOL    HW168505   7.031   2.874   9.904 -0.7075  0.8016 -1.6497
50171SOL    HW268506   7.097   3.007   9.875  0.9669  0.4056  0.1505
50172SOL     OW68507   5.556  11.858  13.259  0.1658 -0.6433 -0.1914
50172SOL    HW168508   5.583  11.949  13.246  0.6238 -0.8701 -0.8512
50172SOL    HW268509   5.496  11.840  13.187 -0.2939 -0.7267  0.2060
50173SOL     OW68510  13.044   8.265   6.260 -0.2768 -0.6202  0.4683
50173SOL    HW168511  13.029   8.298   6.172 -0.4936 -1.6373  0.1229
50173SOL    HW268512  13.128   8.304   6.286 -0.7184  0.5366  0.2431
50174SOL     OW68513   3.435   3.102   3.871  0.5753  0.1952  0.4484
50174SOL    HW168514   3.440   3.151   3.953  2.2899  1.5979 -0.4371
50174SOL    HW268515   3.405   3.166   3.807 -2.0527 -1.1978  0.1401
50175SOL     OW68516  11.079   3.812   9.480 -0.0678 -0.4207 -0.0146
50175SOL    HW168517  10.985   3.792   9.481  0.4534 -3.2991  1.7778
50175SOL    HW268518  11.119   3.740   9.433  1.2535  1.2635 -1.6201
50176SOL     OW68519  11.384   5.349   8.906 -0.0913 -0.4645 -0.3149
50176SOL    HW168520  11.450   5.360   8.837 -0.2487 -0.2502 -0.4288
50176SOL    HW268521  11.300   5.359   8.862 -0.1791  1.5642  0.2373
50177SOL     OW68522  12.363   9.338   0.318 -0.0035  0.9438  0.0271
50177SOL    HW168523  12.383   9.365   0.408 -0.0968 -0.1658  0.3950
50177SOL    HW268524  12.405   9.405   0.263  0.5472  1.3194  0.8838
50178SOL     OW68525   2.740   3.626  10.588 -0.8604  0.1589 -0.3109
50178SOL    HW168526   2.755   3.584  10.504  1.9118  0.1268  0.1024
50178SOL    HW268527   2.733   3.553  10.650 -1.4307  0.2207 -0.2939
50179SOL     OW68528   8.395   4.639   9.679  0.0045 -0.0140 -0.1132
50179SOL    HW168529   8.482   4.664   9.649 -0.3969  1.9960  0.2392
50179SOL    HW268530   8.359   4.586   9.608  1.3170 -0.4516 -0.4712
50180SOL     OW68531   4.592   3.912  12.015  0.5150 -0.2723 -0.2025
50180SOL    HW168532   4.669   3.961  11.988  0.1176  0.1343 -0.6275
50180SOL    HW268533   4.601   3.828  11.970  1.4088 -0.7732  0.8611
50181SOL     OW68534   8.422   0.518  11.892 -0.3195  0.0036  0.3792
50181SOL    HW168535   8.349   0.485  11.839 -0.3347  0.2686  0.2354
50181SOL    HW268536   8.383   0.536  11.978 -0.0987 -1.3587  0.7926
50182SOL     OW68537  11.996  10.816  12.935 -0.1611 -0.1300 -0.0010
50182SOL    HW168538  11.985  10.883  12.868  0.7911 -1.1019 -1.1789
50182SOL    HW268539  12.030  10.863  13.011 -1.3327  1.0068 -0.1493
50183SOL     OW68540   8.541  12.333  10.317  0.2494 -0.3995 -0.3659
50183SOL    HW168541   8.475  12.401  10.306  0.8773 -0.0298 -2.1999
50183SOL    HW268542   8.512  12.282  10.392 -0.8583  1.1767  0.3068
50184SOL     OW68543   3.777   0.914   9.234  0.4895  0.1218  0.0081
50184SOL    HW168544   3.719   0.842   9.260  0.0800  0.4602  0.0361
50184SOL    HW268545   3.833   0.928   9.310  0.0769  0.3219  0.2777
50185SOL     OW68546  13.100   0.707  10.497 -0.4568 -0.2319 -0.2366
50185SOL    HW168547  13.120   0.676  10.408  2.1749  2.4712 -0.7264
50185SOL    HW268548  13.036   0.777  10.483  0.5370  0.7173 -0.1204
50186SOL     OW68549   0.777   9.573   3.006  0.1100  0.2859  0.2797
50186SOL    HW168550   0.718   9.627   2.953 -0.4363  0.5045  1.0976
50186SOL    HW268551   0.727   9.493   3.023  0.2628  0.2399  0.5085
50187SOL     OW68552   3.521  12.983   5.624  0.2526 -0.5304 -0.2136
50187SOL    HW168553   3.469  13.063   5.625 -0.8088 -1.1844 -1.3298
50187SOL    HW268554   3.610  13.012   5.645 -0.1876  0.8669 -0.1896
50188SOL     OW68555   1.371   6.896  10.932 -0.4351 -0.0727 -0.1656
50188SOL    HW168556   1.418   6.817  10.904 -0.5949 -0.9660  1.9086
50188SOL    HW268557   1.432   6.967  10.913  1.1466 -1.0551  0.9950
50189SOL     OW68558   2.046  11.146   0.517 -0.0410  0.5669  0.0373
50189SOL    HW168559   2.043  11.105   0.604  1.4074 -0.2622 -0.2740
50189SOL    HW268560   2.049  11.073   0.456  0.6490  1.1367 -0.6288
50190SOL     OW68561   0.536   5.388   7.901 -0.2321 -0.3503 -0.1527
50190SOL    HW168562   0.509   5.316   7.956 -0.2379  0.8288  1.4500
50190SOL    HW268563   0.461   5.447   7.898  1.0511  1.5592  1.9840
50191SOL     OW68564  12.388   2.852  11.838  0.1334  0.2360 -0.3148
50191SOL    HW168565  12.397   2.809  11.753  0.1915  1.9270 -1.2267
50191SOL    HW268566  12.426   2.939  11.824 -0.3506  0.7400  1.2979
50192SOL     OW68567   8.464  13.318   7.448 -0.4807 -0.3217  0.1956
50192SOL    HW168568   8.517  13.393   7.421  1.2185 -1.3322  0.6189
50192SOL    HW268569   8.396  13.312   7.380  0.1536  0.7730 -0.5804
50193SOL     OW68570   3.782   5.693  12.628  0.0380  0.6025  0.2553
50193SOL    HW168571   3.758   5.775  12.670 -0.7764  0.6742 -0.3172
50193SOL    HW268572   3.731   5.692  12.546 -0.5550 -0.8013  0.5990
50194SOL     OW68573  11.843   1.934  13.429  0.5506 -0.3217 -0.0375
50194SOL    HW168574  11.855   2.024  13.397 -1.8354  0.2270  0.3675
50194SOL    HW268575  11.924   1.913  13.474  0.9709  1.8749  0.3553
50195SOL     OW68576   4.496  12.574   7.997 -0.0476  0.4131  0.0125
50195SOL    HW168577   4.525  12.665   7.994 -0.3978  0.5056 -1.9009
50195SOL    HW268578   4.407  12.576   7.962  0.6877 -0.8750 -2.1574
50196SOL     OW68579   1.872   7.892  11.677  0.0746  0.0216 -0.8800
50196SOL    HW168580   1.904   7.909  11.765  0.4202 -1.7223 -0.6193
50196SOL    HW268581   1.844   7.977  11.644  1.7615  1.0318  0.1761
50197SOL     OW68582  13.124   6.453  10.354  0.4933 -0.1788 -0.0833
50197SOL    HW168583  13.147   6.533  10.401  0.4903 -0.5224  0.5065
50197SOL    HW268584  13.186   6.450  10.280  1.1665 -0.1666  0.4736
50198SOL     OW68585   4.577   4.235   5.973 -1.1494 -0.5748 -0.8625
50198SOL    HW168586   4.606   4.326   5.970  0.5889 -0.9597  1.5164
50198SOL    HW268587   4.484   4.239   5.953 -0.8962  1.5734 -1.9178
50199SOL     OW68588   4.371   8.146   4.358  0.2133  0.1407  0.3677
50199SOL    HW168589   4.389   8.091   4.434  0.4545  0.1063  0.2849
50199SOL    HW268590   4.438   8.214   4.361 -1.5337  1.9178  1.9027
50200SOL     OW68591  10.179   0.350  10.797 -0.0925 -0.1832 -0.1451
50200SOL    HW168592  10.231   0.271  10.785 -1.1258 -0.7304 -1.4468
50200SOL    HW268593  10.148   0.371  10.709 -2.0939  0.0617  0.5627
50201SOL     OW68594   1.929   3.268   0.404 -0.5739  0.3420  0.1476
50201SOL    HW168595   1.866   3.213   0.359  0.5863 -0.0647 -1.0514
50201SOL    HW268596   1.893   3.356   0.399 -1.0047  0.1285 -0.6100
50202SOL     OW68597   7.190   5.083  11.209 -0.1027 -0.4084  0.5620
50202SOL    HW168598   7.112   5.043  11.248 -0.2156 -0.2268  0.5214
50202SOL    HW268599   7.212   5.154  11.269  0.3808 -0.8273  0.8936
50203SOL     OW68600   9.264   3.817  11.729 -0.0054 -0.1279  0.1874
50203SOL    HW168601   9.334   3.804  11.792  0.2910 -0.1833 -0.1538
50203SOL    HW268602   9.201   3.874  11.775  0.2657 -0.0668  0.4854
50204SOL     OW68603   9.286   3.019   2.411 -0.2045 -0.1415  0.5590
50204SOL    HW168604   9.373   3.055   2.392 -0.7887  1.4823  0.8124
50204SOL    HW268605   9.304   2.941   2.463  1.1147 -0.1664  0.1285
50205SOL     OW68606   6.025  11.415   9.204 -0.3232 -0.1037  0.0715
50205SOL    HW168607   5.966  11.490   9.191 -0.0165  0.0515 -0.4296
50205SOL    HW268608   6.111  11.455   9.218  0.0519 -0.3849 -1.3337
50206SOL     OW68609   0.197   1.560   3.644  0.1931 -0.0604  0.2457
50206SOL    HW168610   0.177   1.644   3.685 -1.2194 -0.5420  0.5963
50206SOL    HW268611   0.235   1.507   3.714 -0.1455 -0.1456  0.3669
50207SOL     OW68612   5.019   1.123   6.686  0.4082 -0.0386 -0.3876
50207SOL    HW168613   5.039   1.056   6.752  1.1333  0.0195 -0.5406
50207SOL    HW268614   4.976   1.076   6.615  2.4085 -0.6661 -1.2470
50208SOL     OW68615   6.849   7.986   0.503  1.2972 -0.3192  0.0753
50208SOL    HW168616   6.827   8.038   0.580  0.0055 -1.8858  0.8192
50208SOL    HW268617   6.941   8.006   0.486  1.2682  0.9953  1.2500
50209SOL     OW68618  11.495   6.827   4.455  0.4431  0.7685  0.3133
50209SOL    HW168619  11.404   6.805   4.433 -0.2000  3.1868  0.3139
50209SOL    HW268620  11.545   6.750   4.428 -1.3374  0.2160 -1.6803
50210SOL     OW68621   4.858   1.933  13.997 -0.6595  0.3430  0.6309
50210SOL    HW168622   4.879   1.917  14.089 -0.6768  1.5273  0.8476
50210SOL    HW268623   4.939   1.912  13.950 -0.3754  0.5803  1.0097
50211SOL     OW68624  13.421  12.746   4.578  0.1459  0.3520 -0.7471
50211SOL    HW168625  13.455  12.658   4.596 -1.1097  0.1835  0.9489
50211SOL    HW268626  13.498  12.803   4.587  0.4610 -0.2783  0.8062
50212SOL     OW68627  12.141   7.899   8.503 -0.2666  0.4668 -0.5244
50212SOL    HW168628  12.165   7.972   8.445 -0.2654  0.5098 -0.4700
50212SOL    HW268629  12.223   7.876   8.547  0.2071 -0.8475 -1.9588
50213SOL     OW68630   8.931   3.747   2.062 -0.3252  0.1435 -0.3391
50213SOL    HW168631   9.025   3.743   2.076 -0.2722  2.2728  0.3981
50213SOL    HW268632   8.920   3.809   1.990 -1.1786  1.0626  0.5402
50214SOL     OW68633  10.079   5.006  12.471 -0.1692  0.0678 -0.7634
50214SOL    HW168634  10.065   5.090  12.515 -0.4391 -0.2840 -0.1733
50214SOL    HW268635   9.995   4.987  12.429 -0.8413 -0.9872  0.9716
50215SOL     OW68636   0.961  10.413  10.774 -0.1468 -0.1670  0.3631
50215SOL    HW168637   0.983  10.499  10.810  0.0578 -0.0654  0.0091
50215SOL    HW268638   0.920  10.433  10.689  0.3653 -0.4361  0.0493
50216SOL     OW68639   7.654   3.641   6.937 -0.1369  0.3718 -0.1763
50216SOL    HW168640   7.702   3.720   6.961  0.4280 -0.2503  0.8271
50216SOL    HW268641   7.645   3.592   7.019 -1.4269 -0.1054 -0.5734
50217SOL     OW68642   9.889   7.951   2.280 -0.1806 -0.5754 -0.2076
50217SOL    HW168643   9.895   7.865   2.321  2.3080 -0.5693 -0.4101
50217SOL    HW268644   9.835   7.936   2.202 -1.1793 -1.5445  0.6247
50218SOL     OW68645  11.339   6.406  12.287 -0.5515 -0.0889 -0.3047
50218SOL    HW168646  11.355   6.482  12.343 -1.4946  0.1975 -0.4079
50218SOL    HW268647  11.308   6.338  12.347  2.0499 -1.0411  0.0883
50219SOL     OW68648   1.359   8.160   6.284  0.1727  0.0535 -0.2053
50219SOL    HW168649   1.322   8.246   6.263  0.4115  0.1851 -0.0796
50219SOL    HW268650   1.439   8.179   6.332 -0.4249 -0.2485  0.9440
50220SOL     OW68651  10.465   8.173   0.733  0.1545 -0.1956  0.3145
50220SOL    HW168652  10.494   8.124   0.656 -0.7758  1.4688 -1.1597
50220SOL    HW268653  10.536   8.235   0.750 -0.2116  0.3279 -0.0376
50221SOL     OW68654   0.468   1.798   8.719 -0.4654 -0.6882 -0.2059
50221SOL    HW168655   0.499   1.801   8.628  2.0490 -1.1036  0.5702
50221SOL    HW268656   0.534   1.846   8.769 -1.7244 -0.5778  1.4562
50222SOL     OW68657   3.792  10.264   4.398 -0.0214 -0.4740  0.6356
50222SOL    HW168658   3.828  10.262   4.487 -0.7603 -1.6359  0.9287
50222SOL    HW268659   3.736  10.342   4.398  0.6945  0.0473  0.8965
50223SOL     OW68660   9.170  14.129  12.710 -0.3575  0.0463  0.3553
50223SOL    HW168661   9.149  14.204  12.654  0.8240 -1.2112 -1.9232
50223SOL    HW268662   9.084  14.092  12.733 -0.9958  2.3855  2.1035
50224SOL     OW68663   1.805   1.192  13.365 -0.1074 -0.3972  0.0541
50224SOL    HW168664   1.721   1.160  13.330 -0.6038 -0.4479  1.2432
50224SOL    HW268665   1.808   1.284  13.338  0.2152 -0.7896 -1.3464
50225SOL     OW68666   0.010  13.040   4.175 -0.2159  0.6269  0.4934
50225SOL    HW168667  -0.060  12.998   4.225  0.2279 -0.5419  0.1507
50225SOL    HW268668   0.090  13.002   4.210  0.1165 -0.0178 -0.9157
50226SOL     OW68669   6.373   0.085  13.793  0.5807 -0.3051 -0.4749
50226SOL    HW168670   6.460   0.051  13.815  0.5108 -0.8376 -1.0120
50226SOL    HW268671   6.389   0.150  13.724  0.9478  2.3105  1.8830
50227SOL     OW68672   9.411  12.642   2.476  0.0523 -0.1450 -0.2787
50227SOL    HW168673   9.324  12.663   2.509  0.1143 -0.0738 -0.1582
50227SOL    HW268674   9.464  12.720   2.495 -0.4839  0.8910 -2.7215
50228SOL     OW68675   4.185   0.936   2.682 -0.2134  0.4785 -0.1954
50228SOL    HW168676   4.278   0.945   2.661  0.6790 -1.5022  2.3243
50228SOL    HW268677   4.164   0.845   2.659 -1.5880  0.9274 -0.8284
50229SOL     OW68678   4.967   9.902   0.214 -0.0332  0.5091 -0.1208
50229SOL    HW168679   4.963   9.855   0.131  0.7324  0.0852  0.0683
50229SOL    HW268680   5.060   9.900   0.238 -0.2515  0.6016  0.7594
50230SOL     OW68681  13.530  10.765   9.324  0.3828  0.0601  0.2831
50230SOL    HW168682  13.597  10.732   9.264 -0.9679  0.0825 -1.3258
50230SOL    HW268683  13.504  10.688   9.375  0.3796 -0.3391 -0.3182
50231SOL     OW68684   0.409  11.509   2.115 -0.4333  0.5113 -0.3848
50231SOL    HW168685   0.337  11.563   2.082 -0.3355  0.1940 -1.1261
50231SOL    HW268686   0.426  11.446   2.045  0.6743  0.6846 -0.2795
50232SOL     OW68687   8.931   9.453   0.936  0.8475 -0.1223  0.3453
50232SOL    HW168688   8.991   9.382   0.912  1.8535  0.5561  0.8352
50232SOL    HW268689   8.844   9.417   0.915  1.3997 -1.1037 -0.4005
50233SOL     OW68690   2.347   9.434   3.166 -0.2148  0.1063  0.8663
50233SOL    HW168691   2.434   9.393   3.162  0.4577  1.3200  2.2448
50233SOL    HW268692   2.328   9.457   3.075  0.7478 -0.4917  0.4908
50234SOL     OW68693   2.797   5.704   2.954 -0.0871  0.6914 -0.5249
50234SOL    HW168694   2.742   5.716   3.032 -0.6036 -0.5658 -0.6787
50234SOL    HW268695   2.886   5.705   2.989 -0.2391  1.6263 -0.1248
50235SOL     OW68696   4.841  12.910  11.776  0.2137 -0.2847 -0.2170
50235SOL    HW168697   4.835  12.916  11.681  1.8973 -1.6524 -0.4568
50235SOL    HW268698   4.754  12.881  11.804 -1.1620  2.6631 -1.0037
50236SOL     OW68699  12.618   3.276   3.965  0.1703  0.2483  0.0075
50236SOL    HW168700  12.579   3.228   4.039  1.2734 -0.0170  0.4356
50236SOL    HW268701  12.601   3.219   3.890 -1.2614  0.6811 -0.0233
50237SOL     OW68702   4.697   8.259   5.318  0.5748  0.5077 -0.6659
50237SOL    HW168703   4.717   8.209   5.238  2.6189  1.9568 -1.1487
50237SOL    HW268704   4.741   8.212   5.388 -0.2475 -0.1253 -0.5601
50238SOL     OW68705   7.159   1.759  12.735 -0.2226 -0.1200  0.0135
50238SOL    HW168706   7.108   1.839  12.747 -0.5164 -0.3186  0.0904
50238SOL    HW268707   7.157   1.744  12.640 -0.3898 -0.1796  0.0248
50239SOL     OW68708   1.241  10.153  12.437 -0.4417  0.0809  0.1905
50239SOL    HW168709   1.156  10.120  12.407  0.5847 -0.6709 -2.0360
50239SOL    HW268710   1.246  10.124  12.528 -3.3482  1.7715  1.0353
50240SOL     OW68711  10.281  13.782   1.236 -0.1428 -0.2278  0.2162
50240SOL    HW168712  10.220  13.709   1.231 -1.2221  0.5878  0.9991
50240SOL    HW268713  10.352  13.758   1.176 -2.6325  0.1103 -3.2177
50241SOL     OW68714   6.959  10.969   3.408  0.3635 -0.1412  0.0022
50241SOL    HW168715   7.006  10.936   3.331  1.0151  0.3039  0.1985
50241SOL    HW268716   6.886  11.019   3.372  0.9820  0.5255 -0.3405
50242SOL     OW68717   7.018  13.051  11.478  0.1344 -0.1346 -0.4883
50242SOL    HW168718   7.042  12.973  11.528  0.0715 -0.8578 -1.5570
50242SOL    HW268719   6.973  13.018  11.401  2.0656  0.7909 -2.1281
50243SOL     OW68720   3.306  10.099   8.957 -0.1517 -0.1178 -0.0269
50243SOL    HW168721   3.347  10.164   8.901 -1.1860  1.4852  0.9994
50243SOL    HW268722   3.348  10.111   9.042 -0.6000 -0.5582  0.2643
50244SOL     OW68723   5.211   2.983   5.727  0.4020  0.3075  0.1533
50244SOL    HW168724   5.230   3.063   5.677  1.7524 -0.6713 -0.9596
50244SOL    HW268725   5.137   2.944   5.681  0.5773  0.2619 -0.0952
50245SOL     OW68726   3.385   8.486   1.130  0.5945  0.8621 -0.3114
50245SOL    HW168727   3.437   8.410   1.156  0.9846  1.3726  0.4631
50245SOL    HW268728   3.299   8.450   1.106  0.8016  0.1741 -0.0458
50246SOL     OW68729   7.223  10.769  11.334 -0.4529  0.4656  0.3397
50246SOL    HW168730   7.166  10.812  11.398 -0.4862  1.1820 -0.1525
50246SOL    HW268731   7.211  10.676  11.349 -0.2953  0.6296  1.5179
50247SOL     OW68732  13.798  13.317  12.041 -0.5834  0.1901  0.3126
50247SOL    HW168733  13.854  13.309  12.118 -0.8591 -1.5175  0.3809
50247SOL    HW268734  13.840  13.384  11.987  0.3089  0.4993  1.3510
50248SOL     OW68735   1.175  11.402   1.448 -0.3354 -0.3273  0.4100
50248SOL    HW168736   1.194  11.466   1.380  2.0123 -0.3210  0.9666
50248SOL    HW268737   1.125  11.450   1.514  1.1836  0.9526  0.7039
50249SOL     OW68738   5.169   8.620   0.361  0.7718  0.3677 -0.0021
50249SOL    HW168739   5.182   8.666   0.444  0.7462  0.6358 -0.1458
50249SOL    HW268740   5.100   8.556   0.380  2.0913 -0.9388  0.7171
50250SOL     OW68741  13.173   9.339  12.930  0.5745  0.3054  0.2914
50250SOL    HW168742  13.187   9.250  12.898  0.7540  0.3513  0.2393
50250SOL    HW268743  13.084   9.338  12.966 -0.0606  0.5382 -1.1832
50251SOL     OW68744   6.507  11.952   9.187  0.4406  0.3670 -0.1780
50251SOL    HW168745   6.481  11.862   9.167  1.0137  0.3788 -1.0042
50251SOL    HW268746   6.567  11.943   9.261 -0.1172  0.1460  0.2563
50252SOL     OW68747  13.222   6.160   9.347  0.1999  0.0892  0.7241
50252SOL    HW168748  13.297   6.216   9.365  2.0215 -1.4773 -1.3982
50252SOL    HW268749  13.246   6.075   9.385  1.1223 -1.3547 -2.7008
50253SOL     OW68750   3.234   1.318   8.649  0.1250  0.3581  0.0355
50253SOL    HW168751   3.230   1.289   8.558  1.2089  0.2331  0.0236
50253SOL    HW268752   3.191   1.404   8.648  0.2773  0.4319 -0.6212
50254SOL     OW68753   2.796   5.335   4.709 -0.2807 -0.4162 -0.4547
50254SOL    HW168754   2.766   5.413   4.663 -0.9386 -0.5332 -0.2387
50254SOL    HW268755   2.716   5.283   4.723 -0.1270 -0.3086  0.9567
50255SOL     OW68756  11.503   4.134   8.320 -0.6074  0.2218 -0.2755
50255SOL    HW168757  11.579   4.127   8.377 -0.8703 -3.7308 -0.1199
50255SOL    HW268758  11.449   4.202   8.360  1.0791  0.4083  1.8265
50256SOL     OW68759   8.019   4.285   4.202  0.4063  0.2591  0.2491
50256SOL    HW168760   7.994   4.240   4.121  1.8646  0.2197 -0.2146
50256SOL    HW268761   8.024   4.216   4.267 -2.2363  0.4780  0.8103
50257SOL     OW68762  14.023   8.188   2.994 -0.7062  0.1174 -0.4625
50257SOL    HW168763  14.018   8.280   3.021  1.3849 -0.2350  1.4738
50257SOL    HW268764  13.934   8.155   3.005 -1.3248  1.6824 -0.3904
50258SOL     OW68765  11.190   1.023   4.733  0.0223  0.2167 -0.2549
50258SOL    HW168766  11.194   1.007   4.827 -1.6044  0.8524 -0.0533
50258SOL    HW268767  11.133   0.954   4.698 -0.7956  0.9842 -0.4931
50259SOL     OW68768  13.451   6.447   4.972  0.6567 -0.3657 -0.4338
50259SOL    HW168769  13.504   6.368   4.964  0.9012 -0.0953 -1.5751
50259SOL    HW268770  13.394   6.447   4.895 -0.2074 -0.0623  0.1890
50260SOL     OW68771   2.271   0.469   3.345 -0.1342  0.4950  0.0947
50260SOL    HW168772   2.237   0.439   3.261 -1.6580  2.2373  0.0464
50260SOL    HW268773   2.315   0.552   3.326 -0.6242  0.9851  1.0274
50261SOL     OW68774  11.806   5.611   4.567  0.6523  0.1324 -0.3486
50261SOL    HW168775  11.850   5.532   4.535  0.2217  0.3325 -1.4759
50261SOL    HW268776  11.745   5.579   4.634  1.9473 -0.2313  0.7089
50262SOL     OW68777   7.344   7.939   0.408  0.1273  0.2974 -0.2244
50262SOL    HW168778   7.340   7.929   0.313 -1.5972  0.5763 -0.2190
50262SOL    HW268779   7.434   7.918   0.431  0.3565 -0.6249 -1.8285
50263SOL     OW68780   4.255   0.328   5.286 -0.0852 -0.9460  0.5716
50263SOL    HW168781   4.235   0.241   5.322 -2.5926 -0.9226 -0.4897
50263SOL    HW268782   4.197   0.387   5.334 -1.1082 -0.4639 -1.1554
50264SOL     OW68783   2.603  11.334   5.636  0.1914 -0.1614  0.4882
50264SOL    HW168784   2.548  11.269   5.593 -0.7837  0.5050  0.6985
50264SOL    HW268785   2.542  11.402   5.665  0.9864  0.0573  1.7248
50265SOL     OW68786   3.112   1.622   2.169  0.0761  0.1038  0.2106
50265SOL    HW168787   3.104   1.704   2.217 -1.3696  0.5020 -0.6592
50265SOL    HW268788   3.206   1.611   2.156  0.2612  2.1462 -0.5325
50266SOL     OW68789   4.485  12.998   2.441  0.1065 -0.2114 -0.2330
50266SOL    HW168790   4.399  12.964   2.419 -0.2243  0.4363  0.0217
50266SOL    HW268791   4.542  12.971   2.369 -0.1396 -1.2885 -0.0345
50267SOL     OW68792   9.514  11.334  13.513 -0.1840 -0.1419  0.1473
50267SOL    HW168793   9.589  11.393  13.504 -0.9131  0.8955  0.6532
50267SOL    HW268794   9.500  11.299  13.426 -0.4645  1.3602 -0.4370
50268SOL     OW68795  11.667  12.816  12.723 -0.3368 -0.3748 -0.3913
50268SOL    HW168796  11.616  12.753  12.775 -1.5656  0.5388 -0.4274
50268SOL    HW268797  11.707  12.874  12.788 -0.9009  0.0420 -0.4019
50269SOL     OW68798  13.225  12.063   1.467 -0.4481 -0.1455  0.0247
50269SOL    HW168799  13.225  12.085   1.373  1.5666  2.5264  0.5199
50269SOL    HW268800  13.300  12.004   1.477 -1.4242 -1.4684 -0.1757
50270SOL     OW68801   8.824  12.337   2.732 -0.1181  0.0952  0.3212
50270SOL    HW168802   8.805  12.409   2.671 -1.2744  0.1004  0.6580
50270SOL    HW268803   8.911  12.308   2.708 -0.6494 -0.1010 -1.5416
50271SOL     OW68804   6.348  12.784   7.042  0.6105  0.2896  1.1071
50271SOL    HW168805   6.313  12.856   7.094  0.7206 -0.5501  2.3747
50271SOL    HW268806   6.429  12.759   7.086 -1.1038 -2.8681  2.8593
50272SOL     OW68807  11.761   0.419   9.981  0.3656  0.5980 -0.4337
50272SOL    HW168808  11.682   0.466  10.008  0.6222  0.7712  0.0305
50272SOL    HW268809  11.817   0.486   9.942  0.7793  0.7020  0.3327
50273SOL     OW68810   1.324   3.694   1.359 -0.1999 -0.1033  0.1113
50273SOL    HW168811   1.278   3.722   1.280  0.1030  0.0387 -0.0163
50273SOL    HW268812   1.327   3.599   1.353 -0.2963 -0.1012  0.0217
50274SOL     OW68813  14.032   3.711   9.163 -0.2722 -0.2407  0.2088
50274SOL    HW168814  14.000   3.798   9.185 -3.3638 -0.7935 -1.4734
50274SOL    HW268815  14.046   3.713   9.068 -0.6610 -1.6004  0.0972
50275SOL     OW68816   6.004   9.911   4.213  0.0817 -0.3189  0.1741
50275SOL    HW168817   5.994   9.952   4.299 -2.8101 -0.2435 -0.1145
50275SOL    HW268818   6.048   9.828   4.231  1.4008  0.5964  1.4123
50276SOL     OW68819   9.724   4.755   1.478  0.2663 -0.6332  0.1672
50276SOL    HW168820   9.788   4.811   1.436  0.2038 -0.0635  0.8079
50276SOL    HW268821   9.702   4.689   1.412  0.0232  0.3386 -0.7477
50277SOL     OW68822  12.631   7.104   9.271 -0.1536  0.0059  0.4420
50277SOL    HW168823  12.712   7.109   9.321  0.0845  2.5954 -0.0317
50277SOL    HW268824  12.563   7.129   9.334 -0.1548  0.8556  0.1259
50278SOL     OW68825   2.799  13.984   3.114 -0.1390  0.4322  0.1226
50278SOL    HW168826   2.818  13.917   3.179  0.2194 -0.0493 -0.4662
50278SOL    HW268827   2.754  14.053   3.163 -1.0534 -0.4925  0.6139
50279SOL     OW68828   7.085   4.546   2.625  0.1036 -0.3524 -0.1620
50279SOL    HW168829   7.106   4.524   2.535  0.0985 -1.9969  0.2043
50279SOL    HW268830   7.025   4.477   2.654 -0.9427  0.8532  0.7132
50280SOL     OW68831  11.034  10.385   1.966 -0.2579  0.2703  0.3728
50280SOL    HW168832  11.069  10.473   1.971 -2.2326  1.0896  0.5591
50280SOL    HW268833  10.944  10.396   1.935 -0.2138 -1.7734 -0.7069
50281SOL     OW68834  11.144   1.836  12.590 -0.4271  0.3088  0.6261
50281SOL    HW168835  11.144   1.911  12.649  0.3919  0.6179  0.2411
50281SOL    HW268836  11.203   1.861  12.519  0.7513 -1.1491  1.0515
50282SOL     OW68837   5.633  13.123  11.913 -0.6198  0.3918 -0.0600
50282SOL    HW168838   5.725  13.103  11.898 -0.8477 -1.1781  0.5059
50282SOL    HW268839   5.633  13.185  11.986 -0.0550 -0.4460  0.6646
50283SOL     OW68840   9.626   9.288   3.875 -0.2782 -0.1917  0.6093
50283SOL    HW168841   9.553   9.332   3.918  0.9851  1.6215  1.0266
50283SOL    HW268842   9.704   9.329   3.912  0.9536 -1.5341 -0.3763
50284SOL     OW68843   6.965   4.065   9.543 -0.4496  0.5466  0.6803
50284SOL    HW168844   6.971   4.050   9.638  0.6246 -0.7062  0.4359
50284SOL    HW268845   7.046   4.110   9.521 -0.8984  1.2442  0.4103
50285SOL     OW68846   0.920   6.499  10.925 -0.1518  0.1479 -0.7111
50285SOL    HW168847   0.924   6.444  11.003  1.1360 -1.0714 -1.5982
50285SOL    HW268848   0.863   6.452  10.865  0.3700  0.1477 -1.2066
50286SOL     OW68849   0.856   9.933   9.140 -0.2672 -0.0576  0.1883
50286SOL    HW168850   0.877   9.980   9.060  1.6200 -0.8038  0.1846
50286SOL    HW268851   0.864   9.998   9.209  0.1924  0.1210 -0.0275
50287SOL     OW68852  13.421   2.986   9.455  0.0309  0.2187 -0.0147
50287SOL    HW168853  13.443   3.044   9.382 -0.4609 -0.4742 -0.7260
50287SOL    HW268854  13.338   3.021   9.490  0.2430  0.5222  0.1881
50288SOL     OW68855  12.674   1.587   0.289  0.3773  0.2100  0.3062
50288SOL    HW168856  12.762   1.603   0.323  1.0408  0.7013 -1.5041
50288SOL    HW268857  12.642   1.513   0.340  1.8098  0.0592  1.0541
50289SOL     OW68858  14.005   8.056   7.397  0.2347 -0.3702  0.2897
50289SOL    HW168859  13.963   7.992   7.454  1.3263 -0.8735  0.5519
50289SOL    HW268860  13.998   8.139   7.444 -2.4065  0.0280 -0.6522
50290SOL     OW68861  12.884   7.732   3.001 -0.3872  0.0347  0.0143
50290SOL    HW168862  12.873   7.827   3.008 -0.3187  0.0240  0.2829
50290SOL    HW268863  12.928   7.718   2.917 -0.6324  0.2221 -0.1453
50291SOL     OW68864   7.274  13.269   1.231  0.5489 -0.1715 -0.1100
50291SOL    HW168865   7.187  13.231   1.244  0.6659 -0.7269 -0.8721
50291SOL    HW268866   7.286  13.328   1.305 -1.5988  2.0628 -1.3802
50292SOL     OW68867   2.689   9.361   8.090 -0.2650 -0.0970  0.4900
50292SOL    HW168868   2.683   9.455   8.070  0.9985 -0.0190  0.4496
50292SOL    HW268869   2.700   9.357   8.185  2.7437 -0.0211  0.2207
50293SOL     OW68870   5.376   0.713   4.622  0.5229 -0.5332  0.4059
50293SOL    HW168871   5.371   0.658   4.700  0.1757 -1.0047  0.0628
50293SOL    HW268872   5.417   0.794   4.651 -1.0235 -0.0896  1.4154
50294SOL     OW68873  12.789   3.325  10.185 -0.2622  0.1400  0.1937
50294SOL    HW168874  12.834   3.380  10.121  0.2743  3.1253  2.8703
50294SOL    HW268875  12.859   3.272  10.224 -0.0345  0.6077  0.4305
50295SOL     OW68876  12.222  12.324   8.091 -0.2582 -0.1466 -0.2974
50295SOL    HW168877  12.253  12.266   8.161 -0.3316  0.4538  0.2429
50295SOL    HW268878  12.296  12.383   8.074 -0.6990  0.5622  0.2065
50296SOL     OW68879   1.971  12.075   2.592  0.0639  0.0867 -0.5814
50296SOL    HW168880   1.884  12.076   2.632  0.4317  0.9526  0.2302
50296SOL    HW268881   1.960  12.122   2.509  0.0535  1.5842  0.2277
50297SOL     OW68882   7.397   9.428  12.533  0.1710 -0.3994 -0.7219
50297SOL    HW168883   7.468   9.448  12.473  0.6462  0.6164  0.1503
50297SOL    HW268884   7.389   9.506  12.589 -0.3671 -1.2374  0.4227
50298SOL     OW68885   2.566   3.278  11.035 -0.3182 -0.3402  0.5578
50298SOL    HW168886   2.527   3.199  10.998 -0.7820 -0.0089  0.3206
50298SOL    HW268887   2.549   3.346  10.969  0.5165 -0.1498  0.5262
50299SOL     OW68888   5.453  10.920   6.803  0.0596  0.3607 -0.4528
50299SOL    HW168889   5.516  10.890   6.868  0.5174  1.4169 -0.3977
50299SOL    HW268890   5.401  10.987   6.848 -0.6976 -0.0532 -0.6885
50300SOL     OW68891  13.712   5.895   4.115  0.0370  0.4239  0.3924
50300SOL    HW168892  13.617   5.886   4.101  0.2022 -0.6628 -0.1975
50300SOL    HW268893  13.733   5.825   4.177  0.6158 -0.0601 -0.3346
50301SOL     OW68894   2.605   4.577   1.620  0.1734  0.1953 -0.4819
50301SOL    HW168895   2.574   4.571   1.530 -0.2539  0.0669 -0.3307
50301SOL    HW268896   2.626   4.487   1.644  1.5595  0.3891 -0.8826
50302SOL     OW68897   1.102  13.478   8.932  0.2017  0.1170 -0.5528
50302SOL    HW168898   1.053  13.458   8.852 -0.3247 -0.7633 -0.0250
50302SOL    HW268899   1.151  13.557   8.910  0.1059 -0.1310 -1.7580
50303SOL     OW68900  12.238  10.400   0.680 -0.1851  0.6090  0.3339
50303SOL    HW168901  12.231  10.310   0.709 -0.7580  0.7644  0.7085
50303SOL    HW268902  12.310  10.401   0.617  1.1929  0.2987  1.8673
50304SOL     OW68903   6.610  10.366   7.778 -0.3992  0.0699  0.6391
50304SOL    HW168904   6.533  10.325   7.739  0.6191 -1.2394 -0.0847
50304SOL    HW268905   6.636  10.434   7.715 -0.4024 -0.1273  0.4267
50305SOL     OW68906  13.661   6.020   0.888 -0.1754 -0.6601 -0.1332
50305SOL    HW168907  13.604   6.090   0.857  0.2611 -0.6529 -0.9423
50305SOL    HW268908  13.689   6.049   0.975  1.8055  1.3085 -1.3312
50306SOL     OW68909   9.654   6.144   2.687 -0.2998  0.3254 -0.7655
50306SOL    HW168910   9.689   6.077   2.746 -1.0291  1.0200  0.4811
50306SOL    HW268911   9.565   6.116   2.668 -0.5410  0.8296 -0.3975
50307SOL     OW68912   8.756   5.901  11.615  0.3934 -0.0122  0.2590
50307SOL    HW168913   8.761   5.930  11.523  0.7188  0.7397  0.5054
50307SOL    HW268914   8.712   5.972  11.660  2.1622  0.6153  1.0797
50308SOL     OW68915   3.378  10.905   5.998  0.0245  0.3788  0.6735
50308SOL    HW168916   3.463  10.884   5.958 -0.0362  0.3829  0.5417
50308SOL    HW268917   3.340  10.820   6.020 -0.0359  0.3682  0.5276
50309SOL     OW68918   7.803   1.588   0.911  0.0064  0.5470  0.5711
50309SOL    HW168919   7.867   1.525   0.879 -0.3531 -0.4053  1.6772
50309SOL    HW268920   7.729   1.534   0.939 -0.7590  1.5433  0.5024
50310SOL     OW68921   2.885   1.994   0.858  0.0522  0.3922 -0.3322
50310SOL    HW168922   2.901   1.905   0.890  0.2991  0.3934 -0.4519
50310SOL    HW268923   2.965   2.043   0.880  0.5865  0.1845 -1.7008
50311SOL     OW68924  12.398   3.598   0.177 -0.0514  0.1427 -0.3375
50311SOL    HW168925  12.494   3.597   0.176 -0.0437  0.0539  0.2124
50311SOL    HW268926  12.374   3.664   0.112  0.3958  0.4995 -0.1448
50312SOL     OW68927   1.065   4.707   0.372  0.1108 -0.1295  0.1783
50312SOL    HW168928   1.049   4.613   0.376 -0.0055 -0.0730  1.3228
50312SOL    HW268929   1.009   4.738   0.302  2.8191 -1.4172 -2.8091
50313SOL     OW68930   8.153   6.217   1.221  0.1411  0.3149 -0.4126
50313SOL    HW168931   8.210   6.141   1.207 -2.3676 -1.8496  0.1175
50313SOL    HW268932   8.104   6.226   1.139  0.5816  1.5810 -0.5585
50314SOL     OW68933   5.347  13.713  13.953 -0.4597 -0.1559  0.6558
50314SOL    HW168934   5.356  13.712  14.048  1.3226 -2.6720  0.5713
50314SOL    HW268935   5.432  13.682  13.921 -2.0020 -2.4628 -1.5867
50315SOL     OW68936  13.821  13.716   4.515  0.0804 -0.2374  0.1014
50315SOL    HW168937  13.826  13.655   4.442  0.7155 -0.2338  0.1308
50315SOL    HW268938  13.728  13.722   4.536 -0.1502  0.0134 -0.9164
50316SOL     OW68939   4.556   5.031   6.458 -0.3938  0.2706  0.7273
50316SOL    HW168940   4.611   4.992   6.391 -1.9826 -0.0505 -0.4645
50316SOL    HW268941   4.487   5.077   6.409 -1.5520  0.1052  2.1279
50317SOL     OW68942   7.735  12.899   0.775  0.2730  0.1038  0.1869
50317SOL    HW168943   7.766  12.811   0.752 -0.3657  0.4047 -2.1272
50317SOL    HW268944   7.813  12.954   0.772  0.6811 -0.3634  1.6845
50318SOL     OW68945   6.225   7.074   0.796  0.0055  0.4775 -0.0846
50318SOL    HW168946   6.309   7.105   0.761 -0.1891  0.7378 -0.3270
50318SOL    HW268947   6.200   7.002   0.738 -0.3416  0.9419 -0.5221
50319SOL     OW68948   7.801   4.180  11.107  0.6385 -0.7273  0.1703
50319SOL    HW168949   7.847   4.133  11.177  2.6264  1.4249  0.4394
50319SOL    HW268950   7.762   4.256  11.150 -0.2977 -0.7163 -0.6592
50320SOL     OW68951   2.959  11.132   6.752  0.5207 -0.6621  0.4678
50320SOL    HW168952   3.053  11.120   6.741  0.5607 -1.7021  1.6254
50320SOL    HW268953   2.927  11.045   6.777 -1.3115 -1.1888 -3.1210
50321SOL     OW68954   4.375   2.053   4.713 -0.2589  0.0279 -0.6787
50321SOL    HW168955   4.316   1.995   4.665  0.2650 -0.3786 -0.8389
50321SOL    HW268956   4.413   2.109   4.646 -1.1033  0.8801 -0.4724
50322SOL     OW68957   1.356  11.621   2.877  0.4975  0.2038 -0.0161
50322SOL    HW168958   1.326  11.546   2.826 -0.4502  0.4592  0.1561
50322SOL    HW268959   1.351  11.592   2.968  3.0625 -0.5789 -0.0379
50323SOL     OW68960   9.701  14.153  11.521 -0.0345  0.2376  0.3395
50323SOL    HW168961   9.736  14.078  11.570 -1.1526 -1.5580 -1.4142
50323SOL    HW268962   9.662  14.113  11.443 -3.2724  2.3495  0.7023
50324SOL     OW68963  13.528  13.893   2.427 -0.0146  0.2746 -0.1751
50324SOL    HW168964  13.601  13.859   2.479 -0.9974  1.6899  2.2468
50324SOL    HW268965  13.571  13.944   2.358  1.3173  0.5204  0.7863
50325SOL     OW68966   2.930   4.876  12.729 -0.0880  0.3805 -0.1252
50325SOL    HW168967   3.008   4.925  12.705  0.4732 -0.9618 -1.1631
50325SOL    HW268968   2.925   4.805  12.665 -1.2904 -0.4660  0.8501
50326SOL     OW68969   8.086   0.268  11.979 -0.3993  0.4705  0.0324
50326SOL    HW168970   8.093   0.338  11.915 -0.7531  0.0905 -0.4293
50326SOL    HW268971   8.176   0.256  12.011 -0.4687  1.6701  0.7139
50327SOL     OW68972   1.906  11.526   5.645 -0.1319  0.0203 -0.1277
50327SOL    HW168973   1.896  11.608   5.693  0.4287  1.0864 -1.7608
50327SOL    HW268974   1.978  11.542   5.584 -1.0970 -1.0932 -1.6413
50328SOL     OW68975   0.600   0.750   1.927  0.2903  0.3149 -0.4517
50328SOL    HW168976   0.679   0.739   1.874  0.9452  0.5405  0.4536
50328SOL    HW268977   0.600   0.842   1.952 -0.8243  0.5625 -1.2887
50329SOL     OW68978   7.305   4.375  11.120 -0.2696 -0.1802  0.0997
50329SOL    HW168979   7.398   4.398  11.122 -0.5034  0.7747  0.9214
50329SOL    HW268980   7.273   4.416  11.039 -0.2604  0.7318  0.5446
50330SOL     OW68981   8.811   4.838   5.405 -0.6793  0.0178  0.2092
50330SOL    HW168982   8.813   4.921   5.356 -2.4684 -1.2849 -2.2964
50330SOL    HW268983   8.751   4.855   5.478 -0.6161  1.0510  0.0441
50331SOL     OW68984   0.934   0.790  13.609 -0.4105  0.1363  0.4557
50331SOL    HW168985   1.029   0.782  13.597  0.0039  1.8214  2.1390
50331SOL    HW268986   0.915   0.881  13.588 -1.1834  0.5480  2.6459
50332SOL     OW68987   9.466  12.376   6.231 -0.1796  0.1539 -0.2397
50332SOL    HW168988   9.522  12.398   6.156 -0.3397  0.8204 -0.1663
50332SOL    HW268989   9.394  12.326   6.192  0.4079 -0.6422 -0.3456
50333SOL     OW68990   3.583   0.279   6.914  0.2825 -0.6405 -0.1415
50333SOL    HW168991   3.624   0.217   6.854 -1.4810 -1.6737 -0.3356
50333SOL    HW268992   3.489   0.266   6.902 -0.1537  1.5422  0.3744
50334SOL     OW68993   8.585   4.777  13.097  0.4201 -0.1778 -0.0102
50334SOL    HW168994   8.668   4.811  13.129 -0.1017  0.0695  1.1241
50334SOL    HW268995   8.593   4.779  13.001  1.3388  0.7871  0.0747
50335SOL     OW68996   3.707   8.174  13.961 -0.0084  0.6781  0.2559
50335SOL    HW168997   3.644   8.246  13.959  1.0013  1.6637  1.7679
50335SOL    HW268998   3.750   8.177  13.876  0.1089  1.9854  0.3380
50336SOL     OW68999   9.469   1.650   2.332  0.4667  0.0061 -0.2313
50336SOL    HW169000   9.411   1.599   2.388  0.8283 -0.3015 -0.1381
50336SOL    HW269001   9.488   1.593   2.258 -0.3211  0.5489 -0.8747
50337SOL     OW69002   0.883  10.474   9.550 -0.0927 -0.2642 -0.2616
50337SOL    HW169003   0.901  10.515   9.466 -0.7078  0.0529 -0.2456
50337SOL    HW269004   0.966  10.433   9.576  0.3241  0.3463 -0.6209
50338SOL     OW69005  12.944  12.585  11.612 -0.1104 -0.2332 -0.5979
50338SOL    HW169006  12.850  12.569  11.602 -0.2831 -0.4431  1.1034
50338SOL    HW269007  12.957  12.673  11.578 -0.6567 -0.7143 -2.1399
50339SOL     OW69008   1.003  13.274  10.819 -0.0470  0.3248  0.1024
50339SOL    HW169009   1.013  13.288  10.725  0.1353  1.3949  0.2753
50339SOL    HW269010   0.997  13.362  10.856  2.1891  0.0346  1.3410
50340SOL     OW69011   9.321   1.716   6.628  0.3886 -0.4525 -0.0861
50340SOL    HW169012   9.337   1.622   6.636  2.3214 -0.1827 -0.1844
50340SOL    HW269013   9.239   1.731   6.674 -0.9318 -2.4450 -1.6464
50341SOL     OW69014  13.001   8.064  11.787  0.3638 -0.6585  0.2443
50341SOL    HW169015  12.984   8.140  11.842  1.4444  0.9322 -1.4624
50341SOL    HW269016  12.919   8.050  11.739  0.1327 -0.6083  0.6240
50342SOL     OW69017   1.494   2.095   4.575  0.0317 -0.5643 -0.4398
50342SOL    HW169018   1.441   2.030   4.620  0.3558  0.2393  1.1781
50342SOL    HW269019   1.471   2.178   4.616  1.7843 -0.0558 -0.3795
50343SOL     OW69020  11.915   2.776   7.873  0.2925 -1.2224 -0.0367
50343SOL    HW169021  11.996   2.726   7.858  1.6392  0.5895  0.7205
50343SOL    HW269022  11.933   2.824   7.954 -0.0921  1.9906 -1.7398
50344SOL     OW69023   7.261   6.808   3.816  0.0065  0.1810  0.1515
50344SOL    HW169024   7.337   6.777   3.766 -0.3975  0.6780 -0.8047
50344SOL    HW269025   7.207   6.853   3.751 -0.4683  0.9746  1.0781
50345SOL     OW69026   6.745   4.072   1.248  0.4587 -0.5133 -0.2393
50345SOL    HW169027   6.714   3.981   1.242  0.3638 -0.6128  1.3443
50345SOL    HW269028   6.809   4.070   1.319  0.2785  0.7066 -0.0289
50346SOL     OW69029   7.691   3.858   1.307 -0.2315 -0.2091  0.4637
50346SOL    HW169030   7.706   3.783   1.249 -1.9508 -0.0923 -0.1905
50346SOL    HW269031   7.719   3.934   1.257 -1.6538 -0.1156 -0.2333
50347SOL     OW69032   9.817  11.803  12.881 -0.1545  0.4480 -0.5306
50347SOL    HW169033   9.823  11.728  12.941 -2.0051 -1.0323 -2.0768
50347SOL    HW269034   9.886  11.786  12.816  1.1818  1.5318  0.5379
50348SOL     OW69035   3.235   3.827   4.190 -0.0203  0.5647 -0.6835
50348SOL    HW169036   3.234   3.733   4.171  0.0004  0.3869  0.1587
50348SOL    HW269037   3.154   3.842   4.239  1.6737  0.2555  2.4696
50349SOL     OW69038   1.766   1.507  13.959  0.9892 -0.0263  0.2371
50349SOL    HW169039   1.699   1.502  14.028  1.5095  0.2632  0.7694
50349SOL    HW269040   1.716   1.505  13.877  0.2103  1.6054  0.6280
50350SOL     OW69041   2.771   3.235   5.176  0.0817 -0.1110 -0.3401
50350SOL    HW169042   2.839   3.167   5.168  1.6495  1.1596  1.5033
50350SOL    HW269043   2.786   3.275   5.261 -2.6091  0.7017 -0.1462
50351SOL     OW69044   0.249   3.970   8.036 -0.3221 -0.0482 -0.3808
50351SOL    HW169045   0.176   3.938   8.089 -0.1966  1.2777  0.6584
50351SOL    HW269046   0.224   3.950   7.946 -1.8192  0.0786 -0.0241
50352SOL     OW69047  14.077   4.514   9.798 -0.3917  0.1209  0.0188
50352SOL    HW169048  14.105   4.457   9.870 -1.9002  1.0595  1.4397
50352SOL    HW269049  14.017   4.460   9.747 -1.0444  0.0982  0.7842
50353SOL     OW69050   4.113   3.059  12.803  0.1472  0.4927  0.1433
50353SOL    HW169051   4.066   3.011  12.735  0.3243 -1.2680  1.2084
50353SOL    HW269052   4.111   3.001  12.879 -0.3275  2.5018  1.7744
50354SOL     OW69053   1.219  11.451  11.057  0.3137  0.2348  0.2770
50354SOL    HW169054   1.147  11.512  11.069 -1.2328 -1.2719 -0.8371
50354SOL    HW269055   1.221  11.434  10.963  1.8938 -0.0572  0.3280
50355SOL     OW69056   6.712   1.825  13.870  0.1602 -0.4628  0.3876
50355SOL    HW169057   6.667   1.869  13.942  0.3630  0.1457  0.1444
50355SOL    HW269058   6.665   1.742  13.860 -0.7657  0.0601  0.2928
50356SOL     OW69059  11.940   8.519   7.286  0.0941 -0.3032  0.3126
50356SOL    HW169060  11.847   8.540   7.295 -0.0688 -0.1050 -1.5426
50356SOL    HW269061  11.946   8.428   7.315 -1.1374 -1.1177 -1.8000
50357SOL     OW69062   2.323   4.074   9.829 -0.5239  0.0597  0.3393
50357SOL    HW169063   2.246   4.130   9.843 -1.2983 -0.3235 -2.0403
50357SOL    HW269064   2.295   3.987   9.857  0.0585  0.4198  2.2159
50358SOL     OW69065   1.103   0.898  10.758  0.0494 -0.2702  0.2050
50358SOL    HW169066   1.137   0.972  10.809 -1.3918 -0.5004  1.5779
50358SOL    HW269067   1.138   0.912  10.670  0.1130  1.8622  0.5084
50359SOL     OW69068   7.303   9.488   5.403  0.0639  0.3883  0.7842
50359SOL    HW169069   7.304   9.501   5.498  0.1458  1.9615  0.6005
50359SOL    HW269070   7.395   9.492   5.377 -0.0482  1.4687  0.4898
50360SOL     OW69071   0.687   0.668   4.860 -0.3379 -0.4454 -0.1211
50360SOL    HW169072   0.679   0.622   4.943 -0.4028  1.4943  1.0033
50360SOL    HW269073   0.604   0.716   4.852  0.6185  1.2554 -0.1019
50361SOL     OW69074   8.892  11.277   3.135  0.0347 -0.5051  0.0931
50361SOL    HW169075   8.874  11.217   3.208 -0.9138 -0.8126 -0.3840
50361SOL    HW269076   8.808  11.318   3.116  0.8684  1.7953  1.0947
50362SOL     OW69077  11.668  13.032   8.389 -0.0232 -0.4181  0.1535
50362SOL    HW169078  11.633  13.094   8.325 -0.1493 -1.1612 -0.5120
50362SOL    HW269079  11.738  13.081   8.433 -0.6354  0.4538  0.1874
50363SOL     OW69080  11.505   6.076   9.111  0.2923 -0.0927  0.1915
50363SOL    HW169081  11.440   6.014   9.078  0.6837 -0.8138  0.7463
50363SOL    HW269082  11.548   6.030   9.183  2.0573  0.0114 -0.7490
50364SOL     OW69083   5.704   5.623  13.507 -0.2365 -0.0445 -0.4387
50364SOL    HW169084   5.733   5.651  13.594 -0.2111  1.6111 -0.9523
50364SOL    HW269085   5.644   5.550  13.524  0.7298 -0.5795  0.8813
50365SOL     OW69086   4.164   1.610   5.608  0.1899 -0.5807  0.1652
50365SOL    HW169087   4.231   1.678   5.603 -0.7634  0.4863  1.3566
50365SOL    HW269088   4.213   1.528   5.599  2.1617 -0.0428  3.8702
50366SOL     OW69089   8.928   7.994   9.467 -0.6576 -0.5189 -0.1736
50366SOL    HW169090   8.968   8.027   9.548 -2.5971  0.0500  0.6027
50366SOL    HW269091   8.944   7.900   9.469  0.0228 -0.4038  0.4522
50367SOL     OW69092  11.900   3.092   0.053 -0.6991  0.0082  0.2621
50367SOL    HW169093  11.974   3.068   0.108 -0.0332 -0.7598 -0.9294
50367SOL    HW269094  11.937   3.102  -0.034 -1.9643 -0.2339 -0.3316
50368SOL     OW69095  10.025   0.526   9.153  0.4011  0.0666 -0.6358
50368SOL    HW169096  10.004   0.490   9.239  1.0276 -0.8494 -0.8482
50368SOL    HW269097   9.941   0.532   9.108  0.2006 -0.4569 -0.3378
50369SOL     OW69098   8.457  10.221   0.963 -0.0411  0.4582  0.2387
50369SOL    HW169099   8.544  10.225   0.922 -0.8921  1.7798 -1.5796
50369SOL    HW269100   8.405  10.284   0.914 -1.3218  1.8061  3.1335
50370SOL     OW69101   2.473  10.094   2.440  0.0870 -0.3059 -0.6420
50370SOL    HW169102   2.391  10.133   2.471  0.2059 -1.0025  0.6186
50370SOL    HW269103   2.449  10.050   2.358 -0.9071 -0.8777 -0.0582
50371SOL     OW69104   7.102  12.886   8.420  0.6422  0.0269 -0.6995
50371SOL    HW169105   7.108  12.811   8.361  0.0108  2.2730 -3.8841
50371SOL    HW269106   7.015  12.877   8.460  0.9840 -1.4051 -0.1923
50372SOL     OW69107   6.007   5.874   4.475  0.0098 -0.5412 -0.1630
50372SOL    HW169108   5.992   5.837   4.561 -0.5122  0.1144  0.0390
50372SOL    HW269109   6.048   5.804   4.425 -0.5045 -1.2190  0.3519
50373SOL     OW69110   8.560   2.965  10.478 -0.4624  0.0189 -0.5370
50373SOL    HW169111   8.476   3.009  10.486  0.1112  1.3399 -1.4264
50373SOL    HW269112   8.538   2.872  10.469 -1.6694 -0.0637  2.1687
50374SOL     OW69113   0.869  11.860   9.272 -0.0365  0.0264  0.2066
50374SOL    HW169114   0.785  11.896   9.301 -0.3162 -0.4600  0.0081
50374SOL    HW269115   0.933  11.926   9.297 -0.5436  0.6650 -0.1582
50375SOL     OW69116   2.795  10.031   7.280  0.1267 -0.5088  1.0774
50375SOL    HW169117   2.739   9.982   7.219  0.6410 -2.0248  1.7767
50375SOL    HW269118   2.740  10.103   7.311 -0.4536 -0.2666 -0.4367
50376SOL     OW69119  12.727   6.834   0.152 -0.1226 -0.1560 -0.5577
50376SOL    HW169120  12.750   6.927   0.147 -0.3924 -0.0775 -0.3312
50376SOL    HW269121  12.811   6.791   0.170  0.0574  0.0095 -0.9898
50377SOL     OW69122   2.040   0.429  13.527 -0.4753 -0.6758 -0.2558
50377SOL    HW169123   2.062   0.411  13.436  1.3230  2.8784 -0.7088
50377SOL    HW269124   2.099   0.374  13.579  2.4469  1.1328 -1.4088
50378SOL     OW69125   5.655   5.139   5.495 -0.2381 -0.0306  0.2581
50378SOL    HW169126   5.675   5.230   5.471 -1.9138 -0.1877 -2.0662
50378SOL    HW269127   5.739   5.105   5.528  0.3922  2.3502  1.3784
50379SOL     OW69128   1.565  13.335   4.011  0.5812  0.4178  0.0984
50379SOL    HW169129   1.565  13.398   3.938  2.8934  1.5706  0.9770
50379SOL    HW269130   1.654  13.300   4.012 -0.2021 -1.7083  0.6696
50380SOL     OW69131   5.033   2.900  13.681 -0.2436 -0.3448 -0.1204
50380SOL    HW169132   5.027   2.818  13.731 -2.1814 -1.4119 -1.9094
50380SOL    HW269133   5.018   2.873  13.591  3.2859  1.4844 -1.4194
50381SOL     OW69134  12.077  10.793   2.910 -0.1605 -0.0541  0.1011
50381SOL    HW169135  12.093  10.881   2.944  0.0394  0.1969 -0.6273
50381SOL    HW269136  12.125  10.790   2.827  0.5649 -1.1508  0.5484
50382SOL     OW69137   8.160  10.405  12.054 -0.2072 -1.1250 -0.2062
50382SOL    HW169138   8.131  10.495  12.069  0.9260 -0.9491  1.0916
50382SOL    HW269139   8.081  10.358  12.027 -1.3957 -0.3095  1.6594
50383SOL     OW69140  12.934   6.752  13.009 -0.3292  0.1488 -0.0712
50383SOL    HW169141  12.876   6.827  13.020 -1.0739  0.0204 -2.5352
50383SOL    HW269142  13.008   6.786  12.960 -0.3654 -0.5679 -0.6438
50384SOL     OW69143  12.025   4.846   1.651  0.1087 -0.1676  0.0337
50384SOL    HW169144  12.054   4.793   1.725 -1.5133  1.0184  1.6163
50384SOL    HW269145  11.956   4.795   1.609  0.4826 -0.5005 -0.1791
50385SOL     OW69146  13.455  11.748  11.004 -0.0577 -0.2998 -0.1092
50385SOL    HW169147  13.529  11.688  11.007 -1.0637 -1.5713  0.4195
50385SOL    HW269148  13.398  11.714  10.935 -0.5090  0.2311 -0.0144
50386SOL     OW69149  10.992   2.407  14.054 -0.0597 -0.0264 -1.0349
50386SOL    HW169150  10.976   2.418  14.148 -1.2657  0.9387 -1.3198
50386SOL    HW269151  11.052   2.479  14.032  1.2548 -1.0124 -0.7925
50387SOL     OW69152  13.418  13.675   9.270 -0.2183  0.2541  0.5052
50387SOL    HW169153  13.378  13.594   9.303 -0.1210  1.2073  3.2740
50387SOL    HW269154  13.354  13.743   9.290  0.7450  1.1714  0.5521
50388SOL     OW69155   3.252   8.137   2.485  0.2279 -0.2179  0.1212
50388SOL    HW169156   3.313   8.151   2.413 -0.5112 -0.4997 -0.5754
50388SOL    HW269157   3.175   8.098   2.444 -0.1121 -0.6117  1.1038
50389SOL     OW69158   9.094   5.323   4.260 -0.0015 -0.4206 -0.0848
50389SOL    HW169159   9.046   5.286   4.186  0.2377 -0.8012 -0.0517
50389SOL    HW269160   9.181   5.285   4.254 -0.3278 -1.4421  1.0921
50390SOL     OW69161  10.653   2.794   4.317  0.0612 -0.1695 -0.0003
50390SOL    HW169162  10.676   2.873   4.269 -2.8045  1.1812  0.6406
50390SOL    HW269163  10.598   2.744   4.257  0.1348 -0.6502  0.3250
50391SOL     OW69164   2.232   1.565   8.683 -0.3449  0.4054 -0.1070
50391SOL    HW169165   2.214   1.625   8.756 -0.9748 -0.3457  0.3728
50391SOL    HW269166   2.171   1.593   8.614 -0.0822  0.8142 -0.1775
50392SOL     OW69167   9.993  14.088   3.433  0.1982 -0.0389  0.3077
50392SOL    HW169168   9.904  14.117   3.452 -0.7271 -2.1466 -0.4859
50392SOL    HW269169   9.997  13.998   3.468  1.8195 -0.1810 -0.1683
50393SOL     OW69170  11.062   3.315  12.251 -0.1224 -0.0242 -1.0013
50393SOL    HW169171  11.092   3.290  12.164  2.3650 -1.1629  0.1047
50393SOL    HW269172  10.969   3.290  12.252 -0.2719  0.2012 -3.3365
50394SOL     OW69173   6.382   0.796  11.918 -0.2866  0.2116  0.3369
50394SOL    HW169174   6.304   0.834  11.959 -0.0926  1.6954 -0.6229
50394SOL    HW269175   6.455   0.825  11.972 -0.2242  0.4001  0.1512
50395SOL     OW69176   2.991   1.174   2.783 -1.0418 -0.4053 -0.3594
50395SOL    HW169177   2.950   1.252   2.745 -0.0816 -0.1772 -0.9783
50395SOL    HW269178   2.931   1.103   2.761 -0.9201 -0.1488 -1.6206
50396SOL     OW69179   4.710   4.679  13.826  0.0479 -0.2027 -0.0222
50396SOL    HW169180   4.619   4.666  13.853  0.0964 -0.4467  0.0316
50396SOL    HW269181   4.705   4.697  13.732 -0.1061  0.4559  0.1083
50397SOL     OW69182  12.757  13.857   4.201  0.5481 -0.7474  0.2660
50397SOL    HW169183  12.819  13.846   4.129  0.2336  0.2080 -0.1768
50397SOL    HW269184  12.760  13.950   4.222 -2.2840 -0.1823 -1.2558
50398SOL     OW69185   7.976  13.467   2.476  0.4124 -0.0931  0.0103
50398SOL    HW169186   8.047  13.471   2.411  1.5026  0.3141  1.1760
50398SOL    HW269187   8.007  13.404   2.541  0.4158  1.2059  1.3198
50399SOL     OW69188   4.647  10.801   3.733  0.5943 -0.0982  0.3795
50399SOL    HW169189   4.713  10.767   3.673  0.3438  1.9245 -1.1503
50399SOL    HW269190   4.688  10.877   3.774 -0.5249  0.7875 -0.0907
50400SOL     OW69191   9.070  12.627  13.119 -0.3947 -0.2309 -0.2159
50400SOL    HW169192   9.104  12.564  13.183  0.0445  0.1696 -0.0524
50400SOL    HW269193   9.053  12.706  13.170 -1.2691 -0.3124 -0.3590
50401SOL     OW69194   4.091   0.711   6.148 -0.1997  0.4378 -0.0551
50401SOL    HW169195   4.048   0.698   6.232 -0.7769 -0.1808 -0.4313
50401SOL    HW269196   4.124   0.624   6.124  0.0843  0.6365 -0.3932
50402SOL     OW69197   1.621   9.363   3.215 -0.2307 -0.3106 -0.8346
50402SOL    HW169198   1.614   9.316   3.298 -2.1530 -0.5389 -1.0923
50402SOL    HW269199   1.540   9.343   3.169  0.3770  0.5948 -2.3745
50403SOL     OW69200   6.058   6.274   8.725 -0.9839  0.1261 -0.3778
50403SOL    HW169201   6.038   6.357   8.769  0.4372  0.8616 -1.0461
50403SOL    HW269202   5.973   6.238   8.702 -1.6656  0.9217  0.7767
50404SOL     OW69203   1.318   4.145  11.314  0.2431  0.0012  0.0285
50404SOL    HW169204   1.273   4.081  11.259  1.1656 -0.7450  0.1220
50404SOL    HW269205   1.262   4.154  11.391 -0.4512  0.1546 -0.4855
50405SOL     OW69206   9.434   0.678   8.594  0.8265  0.3901 -0.5209
50405SOL    HW169207   9.343   0.670   8.622  1.0595  1.1849  0.4830
50405SOL    HW269208   9.473   0.593   8.617  0.4929  0.2631 -0.4106
50406SOL     OW69209   4.755  12.069   9.244 -0.6495 -0.9929  0.3703
50406SOL    HW169210   4.792  12.063   9.156 -1.3751 -0.5407  0.0247
50406SOL    HW269211   4.807  12.137   9.287 -1.3872  0.0109 -0.2839
50407SOL     OW69212  13.928   9.424  13.087  0.1618 -0.0452  0.5866
50407SOL    HW169213  13.971   9.437  13.003  0.3163  0.8823  0.8016
50407SOL    HW269214  13.945   9.505  13.136 -2.8752  0.9068  0.2572
50408SOL     OW69215   2.079   2.716   0.706 -0.0503  0.0635  0.0379
50408SOL    HW169216   2.163   2.676   0.729 -0.3888 -0.2403  0.7708
50408SOL    HW269217   2.043   2.658   0.639  0.8343  0.8238 -1.1252
50409SOL     OW69218   6.159  11.449   0.273  0.2391 -0.3150  0.2409
50409SOL    HW169219   6.107  11.505   0.215  1.7528  0.4753 -0.3897
50409SOL    HW269220   6.231  11.418   0.219 -0.4501 -2.8217  0.5933
50410SOL     OW69221   2.031  12.028   1.270 -0.3593 -0.0441  0.6345
50410SOL    HW169222   1.970  11.991   1.207  2.0957  0.4480 -2.2655
50410SOL    HW269223   2.078  12.096   1.221  2.0021  0.0931  2.8685
50411SOL     OW69224   3.617  12.084  13.567 -0.6405  0.3101  0.0277
50411SOL    HW169225   3.540  12.035  13.541 -0.6780 -1.0497  2.4428
50411SOL    HW269226   3.593  12.125  13.650  1.2145 -0.1998  0.8832
50412SOL     OW69227   0.570   1.764   8.469 -0.6943  0.1303 -0.2081
50412SOL    HW169228   0.617   1.787   8.389 -0.5439 -1.4471 -0.6138
50412SOL    HW269229   0.482   1.740   8.439 -1.0251  0.7668  0.2542
50413SOL     OW69230   6.695  11.069   7.826 -0.1479 -0.1258  0.6284
50413SOL    HW169231   6.767  11.064   7.889  1.5753 -1.2831 -1.2962
50413SOL    HW269232   6.649  10.985   7.835  0.5263 -0.5853 -0.0901
50414SOL     OW69233  11.493  12.673   5.911  0.3133  0.0343 -0.4408
50414SOL    HW169234  11.500  12.591   5.862  2.9024  0.2019 -0.4821
50414SOL    HW269235  11.400  12.682   5.930 -0.2015 -2.2219 -1.6005
50415SOL     OW69236   0.396   6.463   3.609  0.4237  0.1134  0.4905
50415SOL    HW169237   0.306   6.493   3.619 -0.3898 -1.9559  0.0331
50415SOL    HW269238   0.436   6.526   3.550 -1.4936 -0.2704 -1.3352
50416SOL     OW69239  10.761   5.439   7.119 -0.3712  0.5560  0.3604
50416SOL    HW169240  10.851   5.410   7.104 -0.3043 -1.2999  3.4656
50416SOL    HW269241  10.765   5.534   7.112  1.3634  0.4201 -1.4622
50417SOL     OW69242   5.798   0.726   9.355 -0.3898 -0.0264 -0.4180
50417SOL    HW169243   5.760   0.642   9.332 -0.5090  0.5424 -2.4357
50417SOL    HW269244   5.840   0.757   9.275  1.8807  0.6894  0.9597
50418SOL     OW69245  13.252   4.392   4.945 -0.1587  0.8364 -0.3764
50418SOL    HW169246  13.286   4.442   4.871 -1.1816  2.0621 -0.0460
50418SOL    HW269247  13.175   4.347   4.910  0.9538 -0.8476 -0.7665
50419SOL     OW69248  12.454  10.970   4.771  0.4369  0.0578  0.0935
50419SOL    HW169249  12.537  10.942   4.809  1.0007  1.0636 -0.3490
50419SOL    HW269250  12.387  10.934   4.829  1.1122 -1.8516 -0.2443
50420SOL     OW69251   0.757   3.678   3.450  0.5148 -0.2473  0.6671
50420SOL    HW169252   0.828   3.614   3.454  0.9113  0.1344 -0.0779
50420SOL    HW269253   0.782   3.745   3.514  1.8715  0.8999 -0.9761
50421SOL     OW69254   8.138   7.360   8.807 -0.1374  0.1254  0.3006
50421SOL    HW169255   8.203   7.309   8.854 -0.0613  1.1417  1.3384
50421SOL    HW269256   8.083   7.295   8.764  0.2499 -0.8116  1.1766
50422SOL     OW69257   2.513   1.021  11.855  0.0808  0.5406 -0.2599
50422SOL    HW169258   2.475   0.934  11.843  0.3323  0.5164 -0.9566
50422SOL    HW269259   2.448   1.070  11.906  0.3654 -0.3506  1.0102
50423SOL     OW69260   9.643   4.093   8.875  0.0024 -0.2397  0.5592
50423SOL    HW169261   9.579   4.040   8.828  0.0605 -0.4615  0.7302
50423SOL    HW269262   9.597   4.121   8.954  0.7990 -2.2288  1.7980
50424SOL     OW69263  13.901   9.145   8.393  0.5434  0.0590 -0.0586
50424SOL    HW169264  13.961   9.217   8.414  0.2549  0.3850 -0.3365
50424SOL    HW269265  13.937   9.070   8.440 -0.5318  0.9185  2.3213
50425SOL     OW69266  12.800   3.171   5.927  0.4248  0.3484 -0.0057
50425SOL    HW169267  12.722   3.174   5.871  0.7975 -1.1854 -0.6537
50425SOL    HW269268  12.765   3.165   6.016 -0.1761  1.4197 -0.1500
50426SOL     OW69269   8.098   6.486   6.814  0.3019  0.1266 -0.5004
50426SOL    HW169270   8.147   6.493   6.895  0.6381  1.9809 -0.8180
50426SOL    HW269271   8.040   6.563   6.814 -2.4849 -1.8000 -0.2539
50427SOL     OW69272   3.550   8.870   6.429 -0.0120  0.0248  0.5445
50427SOL    HW169273   3.563   8.893   6.521 -0.5108  0.5209  0.4981
50427SOL    HW269274   3.458   8.844   6.423 -0.0446  0.2185  0.1398
50428SOL     OW69275  13.570  14.024  10.397  0.3112 -0.0670  0.1371
50428SOL    HW169276  13.582  13.990  10.309 -1.1855 -0.6781  0.1319
50428SOL    HW269277  13.498  13.972  10.434  0.7455  0.3302  1.6332
50429SOL     OW69278   8.587   8.823  12.639 -0.2797 -0.7136 -0.3284
50429SOL    HW169279   8.522   8.845  12.573 -0.1319 -0.6122 -0.4418
50429SOL    HW269280   8.665   8.873  12.614 -0.5909  0.2860  0.6170
50430SOL     OW69281   2.270  11.793  12.318  0.0342  0.4243 -0.1742
50430SOL    HW169282   2.276  11.722  12.254  0.0922 -0.4945  0.8195
50430SOL    HW269283   2.262  11.748  12.402  0.7209  1.5992  0.5407
50431SOL     OW69284   5.461   3.582   0.115  0.5972 -0.5267  0.2244
50431SOL    HW169285   5.472   3.677   0.113  2.0373 -0.5730  2.2151
50431SOL    HW269286   5.371   3.568   0.086  0.3323  1.4410 -0.0954
50432SOL     OW69287   7.994   8.382  11.091  0.1520 -0.1903 -0.4160
50432SOL    HW169288   7.963   8.316  11.152  1.3371  1.1028  1.7123
50432SOL    HW269289   7.949   8.463  11.118  0.9709  0.4801 -1.0099
50433SOL     OW69290   6.720  13.454  12.595 -0.4814  0.3002  0.4917
50433SOL    HW169291   6.745  13.539  12.631  1.2228 -0.2176  0.6278
50433SOL    HW269292   6.779  13.392  12.638 -1.4189 -0.9096  0.0886
50434SOL     OW69293   1.576  11.806   3.983  0.0826 -0.2153 -0.0685
50434SOL    HW169294   1.646  11.834   3.924 -0.1736 -0.0821 -0.3109
50434SOL    HW269295   1.619  11.748   4.045  0.0405 -1.7291 -1.4050
50435SOL     OW69296   0.306  11.405  10.192  0.4147  0.3665 -0.4817
50435SOL    HW169297   0.294  11.310  10.192 -2.1159  0.4922 -3.7195
50435SOL    HW269298   0.301  11.430  10.284 -3.2869 -2.2710  0.2729
50436SOL     OW69299  11.783  12.874   5.331  0.6620 -0.1251  0.0288
50436SOL    HW169300  11.793  12.779   5.321 -3.0849 -0.7885  1.0467
50436SOL    HW269301  11.764  12.906   5.243 -0.7789 -0.7998  0.0798
50437SOL     OW69302   4.129  13.690   0.516  0.0511 -0.0207  0.2029
50437SOL    HW169303   4.182  13.655   0.445  0.1906  1.7540 -0.6357
50437SOL    HW269304   4.192  13.713   0.584  0.4327  1.9404 -0.7316
50438SOL     OW69305  13.571  11.843   2.386 -0.1166 -0.2022 -0.1738
50438SOL    HW169306  13.580  11.903   2.312  1.7048 -1.7647 -1.2994
50438SOL    HW269307  13.477  11.843   2.405 -0.1614  3.2595  0.1787
50439SOL     OW69308   1.494   5.310   7.053  0.3045 -0.7730 -0.2796
50439SOL    HW169309   1.491   5.261   7.135 -1.6667  1.0403  0.8529
50439SOL    HW269310   1.403   5.313   7.024  0.8509 -0.6206 -2.0842
50440SOL     OW69311   7.585   4.541   7.286 -0.4632 -0.3898 -0.6681
50440SOL    HW169312   7.598   4.598   7.211 -1.1396 -1.2232 -1.4448
50440SOL    HW269313   7.659   4.559   7.343 -1.3970  2.2861 -0.1987
50441SOL     OW69314  12.670   0.673   0.363 -0.4195  0.4568  0.4228
50441SOL    HW169315  12.764   0.679   0.379 -0.3480  1.4720 -0.3571
50441SOL    HW269316  12.633   0.751   0.405 -1.0003 -0.1947  1.1825
50442SOL     OW69317  12.613   4.009   7.694  1.1109 -0.4434  0.3564
50442SOL    HW169318  12.595   3.969   7.610  0.3902 -0.0360  0.3133
50442SOL    HW269319  12.564   3.957   7.758 -0.1442  0.5625  0.2565
50443SOL     OW69320  13.426   3.830  11.747 -0.1611  0.4316  0.0327
50443SOL    HW169321  13.410   3.752  11.800 -1.2230  1.3287  1.0971
50443SOL    HW269322  13.449   3.796  11.661  1.3827 -1.0710  0.9766
50444SOL     OW69323   3.026   8.941   9.176  0.0879 -0.4046  0.5923
50444SOL    HW169324   3.104   8.897   9.142  0.2810  0.4124 -0.0633
50444SOL    HW269325   3.002   8.891   9.253 -0.6159 -2.6123 -0.9638
50445SOL     OW69326   4.826   5.383   2.318  0.1539 -0.3078  0.0402
50445SOL    HW169327   4.882   5.454   2.286 -0.2196  0.2651  0.6324
50445SOL    HW269328   4.738   5.422   2.322 -0.4996 -1.4427 -1.7451
50446SOL     OW69329  11.421   1.185   8.533 -0.1300 -0.0055 -0.6637
50446SOL    HW169330  11.395   1.264   8.580 -0.2895 -0.3255 -0.2068
50446SOL    HW269331  11.348   1.168   8.473 -1.6836 -1.6421  1.5327
50447SOL     OW69332   2.618  13.140  14.100  0.0412 -0.1914 -0.1300
50447SOL    HW169333   2.670  13.104  14.029 -0.3051 -0.3449 -0.3037
50447SOL    HW269334   2.651  13.096  14.179 -0.1335 -0.6212 -0.2969
50448SOL     OW69335   9.616   5.151   3.734  0.8060  0.0346  0.3041
50448SOL    HW169336   9.665   5.115   3.808  0.8635  0.5449  0.5241
50448SOL    HW269337   9.558   5.216   3.774  0.7388  0.2142 -0.0847
50449SOL     OW69338  13.535  10.920  12.307  0.4330  0.2073  0.3127
50449SOL    HW169339  13.587  10.893  12.383 -1.6868 -0.4673  1.6202
50449SOL    HW269340  13.509  10.839  12.265  1.4178  0.5748 -1.0675
50450SOL     OW69341   7.023   9.669   7.048  0.8456 -0.2636 -0.7726
50450SOL    HW169342   7.008   9.667   6.954  0.9839 -2.0541 -0.8023
50450SOL    HW269343   6.944   9.630   7.086  0.7608  0.5055 -0.1297
50451SOL     OW69344  13.129   8.477   4.966 -0.0805  0.2691 -0.0747
50451SOL    HW169345  13.160   8.394   4.929  0.1043  0.7626 -1.0592
50451SOL    HW269346  13.095   8.453   5.053  1.1012 -0.6332  0.1671
50452SOL     OW69347  13.940   5.201   5.759 -0.7044  0.0969 -0.4904
50452SOL    HW169348  13.846   5.187   5.773 -0.9588  3.2861  2.3735
50452SOL    HW269349  13.947   5.223   5.667 -2.8890  0.3153 -0.6653
50453SOL     OW69350   0.167   4.457   6.216 -0.2938 -0.0447  0.2875
50453SOL    HW169351   0.119   4.432   6.138  1.3721 -1.3030 -0.3927
50453SOL    HW269352   0.099   4.476   6.281 -1.7190 -2.0321 -0.5236
50454SOL     OW69353   9.292   0.445   9.151 -0.7386  0.1111 -0.1126
50454SOL    HW169354   9.237   0.423   9.075 -1.4922 -0.0418  0.4683
50454SOL    HW269355   9.242   0.510   9.199 -0.2732  0.1924  0.2707
50455SOL     OW69356  10.289   0.473   1.953 -0.2781  0.1503 -0.1624
50455SOL    HW169357  10.363   0.533   1.947  1.1322 -1.6015 -0.7997
50455SOL    HW269358  10.267   0.472   2.046  0.3685  0.8085  0.0052
50456SOL     OW69359   5.575  12.971  10.109 -0.3691  0.4697  0.1632
50456SOL    HW169360   5.609  12.958  10.198 -1.1194  0.5523  0.4684
50456SOL    HW269361   5.620  12.905  10.056 -0.5671 -0.1742  0.7771
50457SOL     OW69362   5.354   1.925   7.308  0.1680  0.2355  0.4100
50457SOL    HW169363   5.377   2.016   7.324  0.5743 -0.0621  1.6367
50457SOL    HW269364   5.438   1.879   7.302 -0.0294 -0.0408 -0.3466
50458SOL     OW69365   4.998  10.103  13.086 -0.3973  0.4321  0.2489
50458SOL    HW169366   4.961  10.081  13.171  0.7649  0.7362  0.8484
50458SOL    HW269367   4.983  10.025  13.032  1.7040 -1.0648  1.6879
50459SOL     OW69368  12.545   1.469   5.215 -0.0197  0.0096  0.5128
50459SOL    HW169369  12.579   1.488   5.303 -0.0408  2.4432  0.0539
50459SOL    HW269370  12.619   1.488   5.157 -0.1131 -1.2746 -0.0642
50460SOL     OW69371  11.941   6.493  10.372  0.4383 -0.0029 -0.8488
50460SOL    HW169372  11.946   6.404  10.337 -0.7629 -0.1309 -0.7674
50460SOL    HW269373  11.858   6.527  10.338 -0.0303  0.4041  0.6222
50461SOL     OW69374   8.404   2.375  10.401 -0.0090  0.3758  0.4677
50461SOL    HW169375   8.365   2.379  10.314  1.3485 -2.8068 -0.4432
50461SOL    HW269376   8.497   2.387  10.386  0.3733 -1.2715  1.2690
50462SOL     OW69377  13.040   6.661   2.220 -0.1659 -0.7196  0.1709
50462SOL    HW169378  13.122   6.620   2.246  1.3132  1.1043 -1.3079
50462SOL    HW269379  13.013   6.612   2.142 -0.0756 -0.8214  0.2033
50463SOL     OW69380  10.527   8.254   2.928 -0.2489 -0.1625  0.0734
50463SOL    HW169381  10.615   8.281   2.955 -0.9413  1.2865  0.9796
50463SOL    HW269382  10.504   8.314   2.857 -0.1019 -1.2364 -0.9073
50464SOL     OW69383   3.333  10.578   4.406  0.0910 -0.0856 -0.0460
50464SOL    HW169384   3.297  10.559   4.320  2.1362  0.9852 -1.2109
50464SOL    HW269385   3.286  10.656   4.436 -0.6562 -0.4889 -0.1742
50465SOL     OW69386  14.101  12.576   1.871  0.0062 -0.3440  0.0199
50465SOL    HW169387  14.167  12.574   1.801  1.6883 -2.6310  1.5017
50465SOL    HW269388  14.137  12.636   1.936 -2.5124  3.4229 -1.7006
50466SOL     OW69389   2.102   7.446  12.741 -0.2721 -0.0346 -0.6775
50466SOL    HW169390   2.158   7.513  12.780 -1.2407  0.7691 -0.6102
50466SOL    HW269391   2.161   7.391  12.691  0.5936  0.6912 -0.4775
50467SOL     OW69392   3.027   5.922   6.939  0.5242  0.4537  0.4186
50467SOL    HW169393   2.954   5.860   6.928  1.8301 -0.8325 -1.5323
50467SOL    HW269394   2.987   5.997   6.983 -1.5546 -0.9565  1.1484
50468SOL     OW69395   8.293   7.121  10.940 -0.3764  0.1562  0.2433
50468SOL    HW169396   8.276   7.056  10.872  1.5367 -1.5805  1.2933
50468SOL    HW269397   8.323   7.198  10.892  0.2187 -0.7667 -0.9340
50469SOL     OW69398  12.072  12.586   5.522  0.1473  0.2977  0.6878
50469SOL    HW169399  12.125  12.657   5.557  0.6934  1.9056 -2.8764
50469SOL    HW269400  12.131  12.539   5.463 -1.2375 -0.6641  0.0047
50470SOL     OW69401   8.602   2.691  10.807  0.1206  0.4076  0.0248
50470SOL    HW169402   8.655   2.736  10.741  0.7212  0.7828  0.7531
50470SOL    HW269403   8.642   2.715  10.890  0.8810 -2.0171  0.4144
50471SOL     OW69404  11.762   5.628  11.491  0.5552  0.1012 -0.0123
50471SOL    HW169405  11.707   5.574  11.434 -0.9844  0.0150  1.4924
50471SOL    HW269406  11.798   5.567  11.555 -0.1130  0.6070  0.8740
50472SOL     OW69407   5.084   6.164  13.272 -0.2927  0.9330 -0.1581
50472SOL    HW169408   5.010   6.110  13.299  0.9726 -0.2000  1.1917
50472SOL    HW269409   5.055   6.254  13.290 -1.7913  0.6250 -0.8550
50473SOL     OW69410  10.082   1.880   0.526  0.0855 -0.4652  0.4524
50473SOL    HW169411  10.014   1.820   0.497 -1.0066 -0.1017  2.1105
50473SOL    HW269412  10.084   1.870   0.621  0.7474  1.2150  0.6513
50474SOL     OW69413   5.714  10.014   3.182 -0.0001 -0.2876  0.0225
50474SOL    HW169414   5.742  10.073   3.112 -1.0497 -1.7850 -1.7155
50474SOL    HW269415   5.619  10.016   3.179 -0.0786 -0.2349  1.5700
50475SOL     OW69416  10.678  11.028  13.864  0.2665 -0.2035  0.4185
50475SOL    HW169417  10.677  11.028  13.959  0.0253  0.4802  0.4213
50475SOL    HW269418  10.750  10.969  13.841  0.7999  0.1972  1.0304
50476SOL     OW69419   9.118   2.450  12.592 -0.5002  0.2404 -0.6389
50476SOL    HW169420   9.043   2.489  12.635  0.7905  2.9188 -0.6464
50476SOL    HW269421   9.112   2.357  12.614 -2.4317  0.7553  1.3896
50477SOL     OW69422  12.291  10.242  12.076  0.0877 -0.2903  0.1846
50477SOL    HW169423  12.303  10.231  11.982 -0.8028 -1.3679  0.1685
50477SOL    HW269424  12.376  10.223  12.114 -0.0465 -2.0849 -0.2811
50478SOL     OW69425  13.367  13.928   9.063  0.0918 -0.1897  0.1304
50478SOL    HW169426  13.290  13.969   9.023  0.2783 -1.0948 -1.2367
50478SOL    HW269427  13.332  13.865   9.125 -0.2029  1.7530  2.0786
50479SOL     OW69428   3.127   3.280   6.794  0.1745 -0.1085  0.3506
50479SOL    HW169429   3.152   3.264   6.884  1.9468 -0.8964 -0.2407
50479SOL    HW269430   3.038   3.245   6.786  0.2906 -0.7030  1.5822
50480SOL     OW69431   0.179   4.423  10.694 -0.4088 -0.2590  0.2902
50480SOL    HW169432   0.092   4.386  10.680 -0.9603  1.1195 -0.0837
50480SOL    HW269433   0.219   4.366  10.760 -0.6917 -2.3006 -1.2022
50481SOL     OW69434  11.381  10.375  13.731 -0.2277 -0.2952  0.1254
50481SOL    HW169435  11.442  10.312  13.771 -0.6038 -0.5154  0.3530
50481SOL    HW269436  11.305  10.375  13.789 -1.0294 -1.0443 -0.8773
50482SOL     OW69437   8.312   1.441   3.721  0.4015  0.1221  0.3120
50482SOL    HW169438   8.349   1.353   3.715  0.0530 -0.0887  1.0337
50482SOL    HW269439   8.238   1.431   3.781 -0.9793  0.4748 -1.2567
50483SOL     OW69440   7.628   8.158  12.224  0.2038  0.1401 -0.4809
50483SOL    HW169441   7.688   8.222  12.186 -0.0470  0.6809  0.0254
50483SOL    HW269442   7.680   8.114  12.292 -0.0907  0.8998  0.2465
50484SOL     OW69443   0.129   5.173   9.488  0.1837  0.3915 -0.3006
50484SOL    HW169444   0.146   5.227   9.565  0.4746 -0.4367  0.2208
50484SOL    HW269445   0.052   5.214   9.448  0.9865  1.7982 -0.4944
50485SOL     OW69446  14.124  13.086  10.906 -0.1479  0.0332 -0.4435
50485SOL    HW169447  14.057  13.017  10.912  0.1465 -0.3054 -1.0669
50485SOL    HW269448  14.096  13.141  10.834  1.2001 -1.1574 -1.9386
50486SOL     OW69449   5.665   0.438   0.183  0.3100  0.3681 -0.3954
50486SOL    HW169450   5.735   0.478   0.132 -0.6636 -0.3105 -2.3848
50486SOL    HW269451   5.679   0.343   0.171 -0.3247  0.2122  0.0694
50487SOL     OW69452   6.471   6.278   7.979  0.3799 -0.2648  0.5708
50487SOL    HW169453   6.433   6.201   7.937  0.2109  0.2587 -0.2704
50487SOL    HW269454   6.443   6.351   7.923  1.2753  0.3057  0.8559
50488SOL     OW69455   0.663   4.706   1.616  0.4472 -0.3561 -0.0495
50488SOL    HW169456   0.601   4.777   1.606  1.0395 -0.0277 -1.8502
50488SOL    HW269457   0.701   4.695   1.529  0.1063 -3.1319  0.0649
50489SOL     OW69458   5.509  11.197  10.683 -0.2033  0.1891  0.0781
50489SOL    HW169459   5.438  11.138  10.710 -0.8015  0.9194  0.1247
50489SOL    HW269460   5.552  11.151  10.611 -0.5851 -0.3570  0.1901
50490SOL     OW69461   4.009   5.732   0.799  0.0703 -0.5081 -0.2275
50490SOL    HW169462   4.050   5.784   0.729 -2.3891 -1.8697 -2.9081
50490SOL    HW269463   4.078   5.672   0.828  0.7504 -1.1439 -2.8842
50491SOL     OW69464   5.773   5.541  11.002  0.0621  0.5217  0.3862
50491SOL    HW169465   5.845   5.478  11.012  0.4568  0.9429  0.1847
50491SOL    HW269466   5.778   5.570  10.911 -0.5659  0.3091  0.2800
50492SOL     OW69467   4.655   3.186  10.640 -0.4099  0.5920  0.2959
50492SOL    HW169468   4.588   3.179  10.708 -0.0114 -1.1079  0.5499
50492SOL    HW269469   4.610   3.162  10.559 -0.6149  1.5688  0.1018
50493SOL     OW69470   4.450   3.792   6.776  0.5357 -0.3102  0.1715
50493SOL    HW169471   4.388   3.826   6.711  1.0625  0.1358 -0.1089
50493SOL    HW269472   4.534   3.828   6.749  0.5921  0.8662  1.7799
50494SOL     OW69473   9.016   5.646  12.941  0.3825  0.9438  0.2706
50494SOL    HW169474   9.103   5.667  12.907  1.2297  0.6795  2.1560
50494SOL    HW269475   9.032   5.616  13.030 -1.6426  0.7163  0.5939
50495SOL     OW69476   0.531  11.970   3.110 -0.3473  0.1115 -0.2573
50495SOL    HW169477   0.590  11.959   3.036  0.5436 -0.9542  0.5673
50495SOL    HW269478   0.568  12.043   3.160 -1.8445  1.8997 -1.6438
50496SOL     OW69479  13.045  11.923  11.912  0.3157  0.2773 -0.3526
50496SOL    HW169480  12.994  11.963  11.982 -0.0048  3.3013 -2.1211
50496SOL    HW269481  13.135  11.925  11.945  0.1814  1.6918  0.0284
50497SOL     OW69482  11.792  10.052  12.322 -0.6309  0.1713  0.1359
50497SOL    HW169483  11.865  10.081  12.377 -0.3668  0.3464 -0.2992
50497SOL    HW269484  11.822   9.967  12.287 -0.7308  0.1360  0.1364
50498SOL     OW69485  13.675   2.156   5.968  0.4058  0.5044 -0.1332
50498SOL    HW169486  13.769   2.171   5.960  0.0349  3.0786 -0.6103
50498SOL    HW269487  13.647   2.218   6.036 -1.0253  0.1722 -0.3877
50499SOL     OW69488   8.243   0.313   5.772 -0.6392 -0.3458 -0.2136
50499SOL    HW169489   8.303   0.263   5.717 -1.5103  0.3030 -1.8057
50499SOL    HW269490   8.291   0.394   5.791 -0.5460 -0.3302 -0.5032
50500SOL     OW69491  11.680   5.879   5.222 -0.3573 -0.0045  0.1329
50500SOL    HW169492  11.714   5.954   5.271 -2.0976  0.8324  0.1493
50500SOL    HW269493  11.750   5.857   5.160  1.7462 -0.8547  2.6439
50501SOL     OW69494   3.846   7.319   8.203  0.2222 -0.8981 -0.2552
50501SOL    HW169495   3.901   7.277   8.269  2.2136  1.5577 -0.1712
50501SOL    HW269496   3.894   7.307   8.121  0.0228 -0.2002 -0.4857
50502SOL     OW69497   7.687  10.431   1.924 -0.5702 -0.3558  0.0316
50502SOL    HW169498   7.692  10.509   1.979  1.0896  0.2806 -0.9478
50502SOL    HW269499   7.776  10.397   1.921 -0.6466 -0.5301 -1.9838
50503SOL     OW69500   5.589   0.320  14.000 -0.1895 -0.0377 -0.2410
50503SOL    HW169501   5.641   0.289  14.074  0.7320  2.2642  0.1654
50503SOL    HW269502   5.499   0.298  14.024  0.1426  0.2059  1.3662
50504SOL     OW69503   6.943  10.810   2.559  0.7485  0.0899 -0.2115
50504SOL    HW169504   6.959  10.890   2.609  0.3530 -0.7709  1.3490
50504SOL    HW269505   6.999  10.744   2.599  0.8356 -0.5189 -1.2798
50505SOL     OW69506   1.012   9.925   3.188  0.8311  0.3797 -0.8423
50505SOL    HW169507   1.010   9.876   3.270  0.6133 -0.9747 -1.6371
50505SOL    HW269508   1.100   9.964   3.185  1.4687 -0.9999 -0.7722
50506SOL     OW69509  14.069   8.355   0.940 -0.5615 -0.4130 -0.4520
50506SOL    HW169510  14.069   8.451   0.945  1.3519 -0.4056  0.3449
50506SOL    HW269511  14.103   8.327   1.026 -1.1349 -1.8059 -0.6633
50507SOL     OW69512   2.292  13.419   2.251  0.5159 -0.3978  0.7926
50507SOL    HW169513   2.325  13.394   2.165 -0.0479  1.4757 -0.0463
50507SOL    HW269514   2.353  13.486   2.282 -0.8621  1.0724  0.4758
50508SOL     OW69515  13.593  10.173   6.808  0.2833 -0.0737  0.2030
50508SOL    HW169516  13.501  10.165   6.784 -0.2669  0.0043  2.1305
50508SOL    HW269517  13.592  10.199   6.900  2.2386  0.9289 -0.0098
50509SOL     OW69518   7.084  11.551   8.412 -0.5744  1.1321 -0.5864
50509SOL    HW169519   7.097  11.480   8.350  0.0653  0.0540  0.7344
50509SOL    HW269520   7.127  11.522   8.492  0.8415  3.5422 -0.3460
50510SOL     OW69521  13.488   8.126  11.221  0.4703  0.3114  0.1921
50510SOL    HW169522  13.572   8.140  11.265  0.2192  0.0072  0.7819
50510SOL    HW269523  13.453   8.048  11.262  0.9735 -0.9795 -1.6965
50511SOL     OW69524   6.392  11.067   4.887  0.2106 -0.1012  0.6979
50511SOL    HW169525   6.429  11.140   4.937  1.2666  1.5205 -2.2056
50511SOL    HW269526   6.468  11.012   4.867 -0.2051 -0.7330  0.8194
50512SOL     OW69527  14.112   3.420   0.661 -0.4421  0.0544  0.0694
50512SOL    HW169528  14.123   3.449   0.752  2.5669 -0.2148 -0.1325
50512SOL    HW269529  14.129   3.498   0.608 -1.2848 -0.0153 -0.3303
50513SOL     OW69530   0.685   5.762   5.523  0.0241 -0.1116 -0.5875
50513SOL    HW169531   0.664   5.679   5.566 -0.0583 -0.8648 -1.9985
50513SOL    HW269532   0.699   5.824   5.594  1.0525 -1.5671  0.5232
50514SOL     OW69533  11.090   9.217   3.445 -0.2628 -0.1798  0.4176
50514SOL    HW169534  11.185   9.223   3.446 -0.2933  1.0712 -0.3703
50514SOL    HW269535  11.064   9.219   3.537  0.3961  2.0453  0.6236
50515SOL     OW69536   5.575  14.146  12.433  0.3109  0.2463  0.2760
50515SOL    HW169537   5.568  14.063  12.480  2.4678  0.0235  0.2933
50515SOL    HW269538   5.485  14.179  12.431 -0.4449 -1.5749  1.1684
50516SOL     OW69539   5.799   2.962   6.563  0.0693 -0.6628  0.7995
50516SOL    HW169540   5.808   3.057   6.555 -0.3974 -0.7358 -1.3130
50516SOL    HW269541   5.768   2.948   6.653  1.1628  1.0739  1.5010
50517SOL     OW69542   8.707   7.917   1.727  0.8116 -0.3069  0.0205
50517SOL    HW169543   8.625   7.954   1.695  1.4090  1.0925 -0.0176
50517SOL    HW269544   8.683   7.866   1.804  0.0430  1.2509  0.8676
50518SOL     OW69545   5.542  13.124   4.961 -0.1813  0.0320 -0.6442
50518SOL    HW169546   5.637  13.118   4.952 -0.1009  1.5212 -1.1665
50518SOL    HW269547   5.517  13.191   4.898 -1.3680  0.8855  0.6747
50519SOL     OW69548   5.495  11.485  11.235  0.2116  0.5083  0.1058
50519SOL    HW169549   5.417  11.462  11.183  0.5301  0.4551 -0.3505
50519SOL    HW269550   5.552  11.408  11.226  0.4061  0.6360  0.2623
50520SOL     OW69551   1.793   2.022   8.065 -0.2032 -0.4670 -0.1108
50520SOL    HW169552   1.721   2.069   8.108 -0.0291 -1.1107  0.9054
50520SOL    HW269553   1.835   2.089   8.011 -0.3548  0.4005  0.8093
50521SOL     OW69554  10.109   6.347   3.460  0.6252 -0.4364  0.0147
50521SOL    HW169555  10.168   6.363   3.386  1.0632 -0.6444  0.3160
50521SOL    HW269556  10.099   6.252   3.462 -0.5257 -0.3563 -0.6489
50522SOL     OW69557   6.643  10.539   3.155 -0.4137 -0.3330  0.2973
50522SOL    HW169558   6.571  10.477   3.157  0.3316 -1.2402 -0.3115
50522SOL    HW269559   6.702  10.506   3.087  1.3542 -0.5009  1.8298
50523SOL     OW69560   9.903   9.183  10.681  0.5418  0.3484 -0.0158
50523SOL    HW169561   9.813   9.166  10.652  0.6368  0.4784 -0.3886
50523SOL    HW269562   9.893   9.213  10.771  0.1656  0.9161 -0.2432
50524SOL     OW69563  10.019   7.531  10.893 -0.4693  0.0133 -0.0050
50524SOL    HW169564  10.084   7.592  10.928 -1.0629  1.6081 -1.5541
50524SOL    HW269565  10.030   7.536  10.798 -1.9552 -0.7061 -0.2377
50525SOL     OW69566   0.635   1.005  14.013 -0.5813  0.0765  0.1062
50525SOL    HW169567   0.594   0.966  14.090  0.4228 -0.2673  0.4855
50525SOL    HW269568   0.564   1.051  13.968 -1.1788  0.2721  1.2297
50526SOL     OW69569  10.820   4.097   5.306 -0.0160 -0.3657 -0.1872
50526SOL    HW169570  10.782   4.118   5.220  1.7286  4.1330 -0.1579
50526SOL    HW269571  10.913   4.084   5.289  0.2709  0.0933  0.9410
50527SOL     OW69572   8.628   4.994   1.501  0.1554  0.2820 -0.1136
50527SOL    HW169573   8.605   5.056   1.431  0.7579 -0.6842 -1.2061
50527SOL    HW269574   8.614   4.908   1.462 -0.7782 -0.3039  1.4154
50528SOL     OW69575  13.928   8.530   8.478  0.5074  0.3386  0.0895
50528SOL    HW169576  13.893   8.598   8.536  1.9247  1.0690  0.1426
50528SOL    HW269577  13.888   8.549   8.392  0.7553  1.1533  0.1424
50529SOL     OW69578   8.778   1.958  10.161  0.4919 -0.7107  0.0380
50529SOL    HW169579   8.866   1.995  10.154  0.7481 -1.5241 -1.1793
50529SOL    HW269580   8.746   1.991  10.246  1.4515  0.6612 -0.0874
50530SOL     OW69581  12.398   9.823  10.021  0.2371 -0.4383  0.3500
50530SOL    HW169582  12.443   9.825   9.937  1.3138 -0.8624  0.8972
50530SOL    HW269583  12.305   9.824   9.999  0.4510 -2.5955 -0.9459
50531SOL     OW69584  13.995   1.573  13.063  0.8469 -0.0122  0.0143
50531SOL    HW169585  13.944   1.572  13.143 -0.6994  0.3515 -0.9266
50531SOL    HW269586  13.966   1.652  13.017  0.7421 -0.8856 -1.4855
50532SOL     OW69587   3.818   9.676   8.719  0.3307 -0.6583  0.0943
50532SOL    HW169588   3.865   9.717   8.647  0.2446  0.7811  0.8213
50532SOL    HW269589   3.879   9.611   8.754 -0.1915 -2.5794 -2.2230
50533SOL     OW69590   6.183  10.769   9.825  0.2517 -0.8761 -0.2220
50533SOL    HW169591   6.248  10.830   9.859 -0.1024 -1.2752  1.2524
50533SOL    HW269592   6.210  10.751   9.735  0.3145  1.5007 -0.7200
50534SOL     OW69593  10.528  11.055  11.131  0.0591 -0.5665  0.0766
50534SOL    HW169594  10.544  11.030  11.040 -2.4949  0.0149 -0.6146
50534SOL    HW269595  10.609  11.097  11.159  1.1719 -1.4507 -1.6613
50535SOL     OW69596  12.013   0.483   0.577  0.3630 -0.2188 -0.6434
50535SOL    HW169597  12.105   0.472   0.550  1.5263 -0.7324  2.9390
50535SOL    HW269598  11.963   0.434   0.512  2.5292  0.4611 -3.0057
50536SOL     OW69599  11.822   1.586   1.888  0.0993  0.0911  0.1384
50536SOL    HW169600  11.751   1.605   1.949  0.8719  0.9572  0.7961
50536SOL    HW269601  11.901   1.596   1.940  0.7379 -0.0414 -0.7868
50537SOL     OW69602  10.137   6.184   2.616 -0.5439  0.1103 -0.6017
50537SOL    HW169603  10.125   6.245   2.544 -1.1636 -1.4654 -1.8900
50537SOL    HW269604  10.221   6.208   2.654 -0.3345  1.1508 -1.6577
50538SOL     OW69605   2.630   4.149   3.875  0.5764  0.6388 -0.6981
50538SOL    HW169606   2.661   4.205   3.946  0.6328 -1.2052  0.8210
50538SOL    HW269607   2.544   4.185   3.852  0.5803  1.3066  0.2855
50539SOL     OW69608  10.271   3.472   1.309  0.6175 -0.6515  0.3355
50539SOL    HW169609  10.333   3.540   1.282 -0.2420 -0.4472 -1.2753
50539SOL    HW269610  10.313   3.430   1.383  1.2420  1.5399  1.3194
50540SOL     OW69611   3.646  10.495   4.691  0.0814 -0.1662  0.1044
50540SOL    HW169612   3.665  10.401   4.695  1.1635  0.0714  1.9214
50540SOL    HW269613   3.611  10.509   4.603  0.0820 -2.2266 -0.2779
50541SOL     OW69614   2.231  11.563   2.214 -0.3270  0.2447 -0.1272
50541SOL    HW169615   2.169  11.502   2.173  0.1995 -0.8462  0.6678
50541SOL    HW269616   2.175  11.623   2.264 -0.8116 -0.0878 -0.2586
50542SOL     OW69617   0.253   8.327   2.711  0.0296  0.4537  0.1299
50542SOL    HW169618   0.217   8.311   2.624  0.1209  0.5072  0.0824
50542SOL    HW269619   0.233   8.248   2.760  1.6788 -0.3913 -0.4914
50543SOL     OW69620  11.664   2.041   8.501  0.2959  0.3684  0.0151
50543SOL    HW169621  11.750   2.073   8.476  0.4975 -0.4932 -0.4142
50543SOL    HW269622  11.669   2.029   8.595  0.8773 -0.3645 -0.1039
50544SOL     OW69623  11.502  11.430   3.371 -0.4400  0.3561  0.5750
50544SOL    HW169624  11.480  11.523   3.375 -0.5237  0.3760 -0.3146
50544SOL    HW269625  11.467  11.394   3.453  0.3877  1.2670  1.3485
50545SOL     OW69626   0.717   0.418   6.757  0.8269  0.3105  0.0222
50545SOL    HW169627   0.809   0.419   6.784  0.6009  0.4183  0.8044
50545SOL    HW269628   0.718   0.373   6.672  1.6670  0.7833 -0.2346
50546SOL     OW69629   2.088   4.348  11.589  0.6780  0.7127  0.0318
50546SOL    HW169630   2.065   4.358  11.681 -0.4358 -1.4009  0.0489
50546SOL    HW269631   2.031   4.409  11.542  1.2610  1.8055  0.7057
50547SOL     OW69632   7.530  13.492  11.342  0.6218 -0.3626 -0.3501
50547SOL    HW169633   7.621  13.470  11.324  1.1223  2.7689 -2.2230
50547SOL    HW269634   7.493  13.514  11.257 -1.9809 -1.6010  0.3518
50548SOL     OW69635   4.085   4.876  12.404 -0.1263 -0.2171  0.7231
50548SOL    HW169636   4.122   4.925  12.478  2.3774  0.5207 -0.8705
50548SOL    HW269637   4.142   4.799  12.396 -0.2058 -0.1671 -0.5467
50549SOL     OW69638   8.515  10.072   0.180  0.2450 -0.0110  0.0587
50549SOL    HW169639   8.585  10.037   0.126  0.9639 -0.2230  1.0991
50549SOL    HW269640   8.443  10.009   0.169  1.1419 -1.2723  1.0440
50550SOL     OW69641  10.007  13.607  12.774  0.3607  0.5871  0.0086
50550SOL    HW169642  10.012  13.598  12.679  1.4379  0.3211  0.0758
50550SOL    HW269643  10.086  13.565  12.806 -0.2290  0.2474  1.0611
50551SOL     OW69644   2.937  10.197   7.480 -0.3227 -0.0364 -0.1206
50551SOL    HW169645   2.903  10.115   7.443 -0.1601 -0.3226  0.3578
50551SOL    HW269646   2.872  10.222   7.546 -0.6195  0.4813 -0.6027
50552SOL     OW69647  13.720   8.139   9.879  0.1759  0.7381  0.2881
50552SOL    HW169648  13.685   8.120   9.792  1.1783 -0.8267  0.1951
50552SOL    HW269649  13.678   8.221   9.904  0.2350  1.4811 -1.8702
50553SOL     OW69650   5.304   9.167  11.878  0.9596  0.2242  0.1289
50553SOL    HW169651   5.355   9.146  11.956  0.1590  0.6387  0.7788
50553SOL    HW269652   5.261   9.251  11.899  1.4281  0.7944 -1.0989
50554SOL     OW69653   1.010   4.169  13.196  0.3539 -0.0117  0.3759
50554SOL    HW169654   0.976   4.098  13.251  0.1272  0.8474  1.3729
50554SOL    HW269655   0.938   4.189  13.136  0.4694 -0.7104 -0.0033
50555SOL     OW69656   2.604   0.365   8.940  0.6049  0.4114 -0.7078
50555SOL    HW169657   2.603   0.395   8.849 -1.1363  0.1200 -0.8136
50555SOL    HW269658   2.608   0.269   8.933  1.8693  0.4254 -0.4318
50556SOL     OW69659   7.157   3.262   7.300 -0.1168  0.2620 -0.0460
50556SOL    HW169660   7.127   3.342   7.256 -0.1849 -0.0085 -0.5027
50556SOL    HW269661   7.249   3.278   7.319 -0.4290  0.9179  0.9494
50557SOL     OW69662   5.251   5.671  12.518 -0.1136  0.0024 -0.2547
50557SOL    HW169663   5.327   5.643  12.468  0.4600 -0.5326  0.8809
50557SOL    HW269664   5.245   5.765  12.503  2.3983  0.5852  1.6908
50558SOL     OW69665   8.416   9.444   4.101 -0.0262  0.4980  0.8255
50558SOL    HW169666   8.488   9.466   4.159 -0.3121 -1.4896  2.0445
50558SOL    HW269667   8.343   9.496   4.132  0.6696  2.0086  0.0154
50559SOL     OW69668  10.153   3.717   7.407 -0.1967 -0.1231 -0.2322
50559SOL    HW169669  10.176   3.667   7.486  0.7614 -1.2529 -1.1729
50559SOL    HW269670  10.236   3.756   7.379 -0.8875  1.8866  0.3515
50560SOL     OW69671  11.788   9.385   3.695  0.0494 -0.0745  0.0722
50560SOL    HW169672  11.791   9.397   3.789  0.5467 -0.8146  0.1568
50560SOL    HW269673  11.735   9.459   3.663  0.5090  0.6048  0.8438
50561SOL     OW69674  13.632  11.410   8.211  0.4676 -0.3292  0.3825
50561SOL    HW169675  13.556  11.457   8.245  1.3289  1.0981  0.3874
50561SOL    HW269676  13.608  11.318   8.218 -1.0720  0.0806  0.8230
50562SOL     OW69677   7.802   2.658   2.844  0.1773  0.8839 -0.2806
50562SOL    HW169678   7.841   2.571   2.851 -0.5892  0.6093  0.7240
50562SOL    HW269679   7.762   2.674   2.930  1.1095  2.6178 -0.1296
50563SOL     OW69680  14.015   9.195  10.993 -0.3917  0.3918  0.4457
50563SOL    HW169681  14.101   9.203  10.952 -1.5870  0.4881 -2.2256
50563SOL    HW269682  14.025   9.123  11.055  1.4902  0.1067 -0.1250
50564SOL     OW69683   7.659  11.120   3.132 -0.1634 -0.0746  0.3724
50564SOL    HW169684   7.705  11.151   3.054  0.8954 -1.7194  0.2994
50564SOL    HW269685   7.718  11.142   3.204 -0.4621  0.1168  0.5605
50565SOL     OW69686   9.454  10.022   4.587 -0.4600  0.4301 -0.5555
50565SOL    HW169687   9.531  10.003   4.532 -0.1354  0.9544 -0.2853
50565SOL    HW269688   9.490  10.033   4.675 -0.5041  3.0870 -0.7952
50566SOL     OW69689  12.832  12.691   1.040  0.8633  0.3840  0.2248
50566SOL    HW169690  12.807  12.603   1.013 -1.0752 -0.5969  4.4381
50566SOL    HW269691  12.909  12.678   1.095  0.0274  1.1589  1.6126
50567SOL     OW69692   0.799  12.462   8.069  0.1006  0.0439  0.1763
50567SOL    HW169693   0.850  12.537   8.101  0.8438 -0.7205  0.8381
50567SOL    HW269694   0.742  12.438   8.142  1.1503 -1.1363  0.6484
50568SOL     OW69695   8.046   1.265   0.378  0.0641 -0.1786  0.0815
50568SOL    HW169696   8.003   1.180   0.388 -0.3851  0.0530  0.1185
50568SOL    HW269697   8.063   1.293   0.468  1.3803 -0.8123  0.0572
50569SOL     OW69698   9.114  10.172   4.737  0.0293 -0.0368 -0.1769
50569SOL    HW169699   9.117  10.234   4.810  2.2149 -0.6375  0.3135
50569SOL    HW269700   9.130  10.086   4.777  0.5263 -0.4663 -1.2477
50570SOL     OW69701  14.084   8.530   0.012 -0.3668 -0.2752 -0.3114
50570SOL    HW169702  14.078   8.550  -0.082 -0.3773  1.9790  0.1033
50570SOL    HW269703  14.176   8.546   0.034 -0.4816 -0.2760  0.1730
50571SOL     OW69704   8.864  10.888   5.860  0.1563 -0.2799 -0.5619
50571SOL    HW169705   8.844  10.794   5.857  2.3809 -0.8506  0.3063
50571SOL    HW269706   8.837  10.921   5.774 -4.5517 -0.7454  0.5192
50572SOL     OW69707  13.070   8.689   0.925 -1.0059 -0.1080 -0.3417
50572SOL    HW169708  13.072   8.729   0.838  1.0869  1.5175  0.3559
50572SOL    HW269709  13.161   8.663   0.941 -1.5090 -1.1484  1.0445
50573SOL     OW69710   6.171   7.698   3.372  0.2370  0.1401 -0.2056
50573SOL    HW169711   6.211   7.780   3.400 -0.0996  0.1635  0.2101
50573SOL    HW269712   6.243   7.649   3.331  0.3530  0.7993 -0.8122
50574SOL     OW69713  10.180   3.070   4.954 -0.1901  0.1636 -0.1209
50574SOL    HW169714  10.160   3.005   5.021  1.1597 -0.1970 -0.0293
50574SOL    HW269715  10.109   3.134   4.960 -0.5853 -0.3566  1.0072
50575SOL     OW69716  12.768   2.788   6.940 -0.4986  0.2942 -0.2205
50575SOL    HW169717  12.720   2.708   6.956 -0.9022  0.9877  2.4606
50575SOL    HW269718  12.858   2.760   6.923 -0.7424 -0.7293  0.1609
50576SOL     OW69719   5.559   3.923   3.706  0.1439 -0.5869  0.4085
50576SOL    HW169720   5.612   3.948   3.630  0.0372 -0.4430  0.3808
50576SOL    HW269721   5.537   3.831   3.691 -1.9174  0.0567 -0.9751
50577SOL     OW69722   9.681   5.573   5.673 -0.1622 -0.2679 -0.4433
50577SOL    HW169723   9.755   5.513   5.664  0.2009  0.1620 -0.3750
50577SOL    HW269724   9.616   5.540   5.610 -0.0427 -0.8347 -0.2762
50578SOL     OW69725  11.381   6.378  10.947  0.3660  0.1515 -0.3553
50578SOL    HW169726  11.327   6.393  10.869 -0.1272  1.5972  0.2444
50578SOL    HW269727  11.409   6.465  10.974 -0.3475 -0.2159  1.7074
50579SOL     OW69728   1.705   0.939  11.708  0.2552  0.0219 -0.1006
50579SOL    HW169729   1.651   1.004  11.752  0.6791  0.2408  0.1039
50579SOL    HW269730   1.670   0.934  11.619 -0.7732 -0.6130  0.3246
50580SOL     OW69731   3.897  11.218  11.275  0.3260  0.2995  0.3581
50580SOL    HW169732   3.992  11.208  11.266  0.2484  0.2186 -0.4040
50580SOL    HW269733   3.861  11.160  11.208 -0.2518  0.8293  0.2085
50581SOL     OW69734   9.263   5.488   0.214 -0.1882 -0.3798  0.5488
50581SOL    HW169735   9.232   5.576   0.234 -0.3608 -0.4324  0.5141
50581SOL    HW269736   9.186   5.432   0.229  0.3779 -0.7558  2.3662
50582SOL     OW69737  11.508   9.792  10.630 -0.2344  0.2508  0.6086
50582SOL    HW169738  11.527   9.880  10.664 -1.1659  0.7070 -0.0295
50582SOL    HW269739  11.458   9.807  10.551 -2.0099 -0.8780  1.4668
50583SOL     OW69740   1.234  12.054   1.385  0.3851  0.5013  0.4636
50583SOL    HW169741   1.326  12.027   1.385  0.1111 -0.4929  0.2136
50583SOL    HW269742   1.236  12.148   1.366  1.2698  0.0905 -1.8540
50584SOL     OW69743   3.259   8.341  12.213 -0.5225 -0.2928 -0.0073
50584SOL    HW169744   3.348   8.369  12.192 -1.1072  0.1994 -2.0630
50584SOL    HW269745   3.227   8.299  12.133 -1.7522 -1.5408  1.0791
50585SOL     OW69746   9.029   8.266   7.091 -0.2730  0.1960 -0.5512
50585SOL    HW169747   9.010   8.244   7.000 -0.6544 -0.1242 -0.3966
50585SOL    HW269748   9.051   8.183   7.132  0.1745  0.3780 -0.4119
50586SOL     OW69749   1.385  12.486  13.729 -0.3778  0.3455  0.0361
50586SOL    HW169750   1.387  12.478  13.634 -1.5912  0.0990  0.0218
50586SOL    HW269751   1.453  12.425  13.759  1.8156  2.2637 -0.7242
50587SOL     OW69752   4.621   7.014   2.203  0.3672  0.1288  0.8222
50587SOL    HW169753   4.611   6.926   2.239 -0.9229  1.2410  3.4296
50587SOL    HW269754   4.715   7.027   2.195  0.5941 -1.1215  1.3153
50588SOL     OW69755   3.889   8.869   2.118 -0.1735 -0.2598  0.4689
50588SOL    HW169756   3.913   8.944   2.063  1.4381  0.1959  1.6959
50588SOL    HW269757   3.962   8.808   2.109 -1.9341 -2.2295 -1.3280
50589SOL     OW69758   1.872   5.009   5.287  0.1206  0.0765  0.1950
50589SOL    HW169759   1.884   5.044   5.375 -1.9372  1.3378  0.0478
50589SOL    HW269760   1.959   4.980   5.260  1.0372  0.8821  2.1307
50590SOL     OW69761  11.917   6.292   9.046 -0.3525 -0.1915 -0.2186
50590SOL    HW169762  12.010   6.312   9.058 -1.0035  2.6835  0.9493
50590SOL    HW269763  11.885   6.362   8.989 -1.4140 -2.4572 -2.6018
50591SOL     OW69764   1.507  13.059   2.886  0.3039  0.3329  0.6302
50591SOL    HW169765   1.559  12.989   2.926  1.0595 -0.1180 -1.0495
50591SOL    HW269766   1.457  13.096   2.959 -0.1643 -1.9728  1.5637
50592SOL     OW69767  13.771   9.541   4.086  0.4905  0.0551 -0.1859
50592SOL    HW169768  13.710   9.613   4.068  1.7731  1.2900  0.2630
50592SOL    HW269769  13.831   9.576   4.152  0.0254 -2.0631  1.4941
50593SOL     OW69770   6.692   0.868   9.365  0.6350 -0.6353  0.6632
50593SOL    HW169771   6.597   0.883   9.370  0.5931 -0.1376 -1.0694
50593SOL    HW269772   6.725   0.897   9.450 -0.5447  1.1482  0.5623
50594SOL     OW69773   9.780   5.140  11.723  0.1289  0.3237  0.1045
50594SOL    HW169774   9.872   5.113  11.727  0.3434  1.1706  1.4954
50594SOL    HW269775   9.777   5.203  11.651  0.5891  0.1371 -0.0839
50595SOL     OW69776   5.922   4.215   9.892 -0.2979  0.1309  0.2590
50595SOL    HW169777   5.946   4.136   9.844 -0.6201  0.4524 -0.4485
50595SOL    HW269778   5.832   4.234   9.864  0.3943  1.7762 -1.0136
50596SOL     OW69779  12.195  14.081  12.644 -0.1703  0.6688 -0.1822
50596SOL    HW169780  12.175  14.127  12.726 -1.2740 -1.1761  0.6479
50596SOL    HW269781  12.289  14.094  12.632  0.3101 -0.1939  2.1744
50597SOL     OW69782  12.771   8.665   3.543 -0.3261 -0.2099 -0.1080
50597SOL    HW169783  12.803   8.710   3.622 -0.4148 -0.6105  0.1627
50597SOL    HW269784  12.684   8.702   3.527  1.0237  2.4298 -2.0762
50598SOL     OW69785  13.091   1.155   3.168  0.0135 -0.3147  0.4263
50598SOL    HW169786  13.037   1.154   3.247  0.6694 -1.3218  0.8793
50598SOL    HW269787  13.061   1.080   3.117 -0.8341  0.6946 -0.5994
50599SOL     OW69788  11.177   0.302  10.474  0.6036 -0.7078 -0.3068
50599SOL    HW169789  11.132   0.274  10.554  0.7040  0.6277  0.2416
50599SOL    HW269790  11.106   0.321  10.412  0.5007 -1.0651 -0.2969
50600SOL     OW69791   2.566   4.358  10.534  0.7190 -0.2466  0.5129
50600SOL    HW169792   2.590   4.427  10.596  0.1858 -1.9460  2.7012
50600SOL    HW269793   2.648   4.313  10.515  1.3845  1.7994 -2.1682
50601SOL     OW69794   2.239  11.329   4.855 -0.5050 -0.7349 -0.5207
50601SOL    HW169795   2.289  11.343   4.775 -0.0919  2.4570  0.1503
50601SOL    HW269796   2.300  11.284   4.914 -0.3849 -1.9300 -1.5079
50602SOL     OW69797   1.297   2.165   6.006 -0.3840  0.0358 -0.0882
50602SOL    HW169798   1.276   2.072   5.998  1.0054 -0.2879 -0.1314
50602SOL    HW269799   1.221   2.210   5.967 -0.1756 -1.1223 -1.9651
50603SOL     OW69800  10.988   3.079   4.757 -0.3067  0.3562  0.2250
50603SOL    HW169801  11.067   3.068   4.809 -1.0527  0.4035  1.4269
50603SOL    HW269802  10.917   3.060   4.818 -1.2109 -0.4091 -1.0117
50604SOL     OW69803   3.795   8.512   2.651 -0.0023 -0.6244 -0.1717
50604SOL    HW169804   3.858   8.453   2.609  0.3548 -0.6201  0.3532
50604SOL    HW269805   3.714   8.461   2.655 -0.0982 -0.5566 -1.0339
50605SOL     OW69806  11.139   6.701   6.524 -0.3715 -0.3675  0.2406
50605SOL    HW169807  11.062   6.663   6.567 -0.4209 -0.2792  0.2297
50605SOL    HW269808  11.191   6.738   6.595 -0.5433 -0.0602  0.2106
50606SOL     OW69809   2.930  11.450  12.090 -0.3280 -0.0126  0.0247
50606SOL    HW169810   3.009  11.450  12.036 -0.6827 -0.0266 -0.5022
50606SOL    HW269811   2.920  11.359  12.118 -0.2450 -0.0420 -0.0428
50607SOL     OW69812   8.061  11.296   2.350  0.4291 -0.2908 -0.2825
50607SOL    HW169813   8.115  11.339   2.415  1.9826  0.4377 -1.9509
50607SOL    HW269814   8.008  11.366   2.312 -0.2904 -0.6644  0.0133
50608SOL     OW69815  13.870   7.970   7.788 -0.0400 -0.4138 -0.1160
50608SOL    HW169816  13.947   7.982   7.732 -0.6256 -0.0988 -0.8566
50608SOL    HW269817  13.890   8.021   7.867  0.1092  0.4695 -0.7061
50609SOL     OW69818  13.675  14.124   9.763  0.4166  0.3629 -0.9348
50609SOL    HW169819  13.761  14.094   9.795  0.5828 -1.5001 -2.8981
50609SOL    HW269820  13.644  14.052   9.708 -2.0475  1.3716 -0.9782
50610SOL     OW69821   6.437   3.462   9.902  0.3965  0.5032  0.1352
50610SOL    HW169822   6.508   3.445   9.839  0.6518 -0.8912  0.7642
50610SOL    HW269823   6.378   3.388   9.891 -1.2056  1.8449 -0.6526
50611SOL     OW69824   4.875   9.827   6.871 -0.1200 -0.0180 -0.2563
50611SOL    HW169825   4.810   9.759   6.856 -0.7297  0.1991  1.2232
50611SOL    HW269826   4.840   9.904   6.825 -1.9658  0.6540  2.0563
50612SOL     OW69827   3.851   0.464   6.922  0.5022 -0.5800  0.1171
50612SOL    HW169828   3.822   0.411   6.997  0.9984  0.3493  0.9887
50612SOL    HW269829   3.898   0.401   6.867 -0.3624 -1.4032  0.2817
50613SOL     OW69830   3.916   3.430  10.993 -0.2106  0.0678 -0.2799
50613SOL    HW169831   3.958   3.405  10.911  0.5544  3.5624 -1.1062
50613SOL    HW269832   3.837   3.478  10.966 -0.7884 -0.0642  1.0860
50614SOL     OW69833   2.773  13.779  12.298 -0.0125 -0.1426 -0.6173
50614SOL    HW169834   2.685  13.749  12.278 -0.5399 -0.6203  2.0797
50614SOL    HW269835   2.815  13.790  12.212 -1.5232 -3.2827 -1.8973
50615SOL     OW69836   1.616   3.046   5.035 -0.2666 -0.1585  0.3125
50615SOL    HW169837   1.618   3.137   5.066 -1.9525 -0.0571  0.2428
50615SOL    HW269838   1.560   3.001   5.098 -0.2740 -0.9132 -0.2202
50616SOL     OW69839   3.030   0.038   7.798  0.0041  0.2108  0.4514
50616SOL    HW169840   3.051   0.118   7.751 -0.1447 -0.6043 -1.0797
50616SOL    HW269841   3.053   0.056   7.889  0.6450  1.7276  0.0142
50617SOL     OW69842   6.463   1.303   0.406 -0.4081 -0.5185 -0.0634
50617SOL    HW169843   6.415   1.259   0.477  2.3115 -0.2181  2.1343
50617SOL    HW269844   6.527   1.237   0.377  2.0632  0.9668  1.5840
50618SOL     OW69845   4.178   4.786   3.515  0.3146  0.3076 -0.2660
50618SOL    HW169846   4.173   4.836   3.596 -0.3619  0.9464 -0.6840
50618SOL    HW269847   4.255   4.730   3.525  0.1498  0.2600  0.8728
50619SOL     OW69848   0.821   6.262  12.841  0.4495  0.5943  0.2703
50619SOL    HW169849   0.836   6.168  12.850  0.2574  0.2722 -2.0619
50619SOL    HW269850   0.827   6.278  12.746 -3.7903  2.1357  0.0634
50620SOL     OW69851   3.734  13.693   5.710 -0.8472  0.3360 -0.0476
50620SOL    HW169852   3.740  13.781   5.673  1.3709 -0.0590 -0.7624
50620SOL    HW269853   3.643  13.668   5.697 -1.4499  2.3641 -0.1554
50621SOL     OW69854   0.676  12.440   0.305  0.0865  0.2779 -0.2948
50621SOL    HW169855   0.669  12.492   0.225  0.4966  0.7385 -0.0383
50621SOL    HW269856   0.676  12.349   0.275  0.1107  0.4432 -0.8053
50622SOL     OW69857  12.140  11.486  10.261  0.0154  0.3226 -0.7457
50622SOL    HW169858  12.215  11.450  10.213  0.5542 -1.8372  1.5036
50622SOL    HW269859  12.171  11.495  10.351 -2.5674 -1.2447  0.4054
50623SOL     OW69860   0.282  11.270   0.187  0.1156 -0.2432  0.0685
50623SOL    HW169861   0.214  11.210   0.159  0.6370 -0.3759 -0.9827
50623SOL    HW269862   0.338  11.281   0.110 -0.1031  1.7851  0.1289
50624SOL     OW69863   2.373   7.536  12.949  0.2512  0.1662 -0.3380
50624SOL    HW169864   2.407   7.610  12.997  0.2270  0.6029 -0.9776
50624SOL    HW269865   2.321   7.575  12.878  0.7095 -0.4467 -1.0232
50625SOL     OW69866   9.900   9.873   7.812  0.1160 -0.0030 -0.5125
50625SOL    HW169867   9.942   9.949   7.772 -1.0159  1.5331  1.0864
50625SOL    HW269868   9.882   9.814   7.738  1.9644  0.7725 -1.6398
50626SOL     OW69869   9.177   7.191   3.726  0.0285  0.0606  0.4202
50626SOL    HW169870   9.091   7.217   3.695 -0.2019 -1.0903  0.0392
50626SOL    HW269871   9.189   7.102   3.692  1.2154  0.0713  0.7599
50627SOL     OW69872  11.719   8.711  13.749  0.1240 -0.0365 -0.4477
50627SOL    HW169873  11.721   8.617  13.769  0.1811  0.1803  0.6507
50627SOL    HW269874  11.704   8.715  13.655 -1.3338 -1.1309 -0.2949
50628SOL     OW69875   3.839  13.049   8.066 -0.5825 -0.1883 -0.1708
50628SOL    HW169876   3.893  13.005   8.001 -0.3287  0.5112 -0.4432
50628SOL    HW269877   3.891  13.046   8.147  0.4964  1.6183 -0.7255
50629SOL     OW69878   2.991  10.843   9.006  0.2789 -0.3352 -0.0900
50629SOL    HW169879   3.041  10.865   8.927  0.6240  1.5648  0.5829
50629SOL    HW269880   2.904  10.878   8.989 -0.6264 -2.7847 -0.8667
50630SOL     OW69881   2.299   2.502   2.880  0.2689  0.1023 -0.2451
50630SOL    HW169882   2.337   2.523   2.965 -0.3958  0.7924 -0.1023
50630SOL    HW269883   2.246   2.423   2.895  1.4820 -0.7673 -0.4119
50631SOL     OW69884   9.076   0.630   6.218  0.1878  0.1649  0.1601
50631SOL    HW169885   9.062   0.683   6.297  0.0831  0.1940  0.1215
50631SOL    HW269886   8.989   0.604   6.190  0.3127 -1.3471  1.0699
50632SOL     OW69887   8.790  13.056   0.719  0.0153  0.6427  0.0210
50632SOL    HW169888   8.753  12.976   0.755  2.8134  0.6913  3.7353
50632SOL    HW269889   8.852  13.027   0.653 -1.0253  0.0128 -0.6955
50633SOL     OW69890   9.794   3.047  10.215  0.3013  0.1019 -0.4489
50633SOL    HW169891   9.751   3.048  10.130 -1.2339 -1.9657  0.2217
50633SOL    HW269892   9.722   3.046  10.278  1.3906  0.1427  0.8367
50634SOL     OW69893   8.917   9.180   8.218 -0.5934  0.0795 -0.2329
50634SOL    HW169894   8.981   9.196   8.288 -1.0665 -0.0962  0.2457
50634SOL    HW269895   8.834   9.210   8.255 -1.0693 -1.1778 -0.2479
50635SOL     OW69896   0.573   7.306   3.224  0.5495  0.8313 -0.0441
50635SOL    HW169897   0.593   7.262   3.141  0.9654  0.3684  0.2907
50635SOL    HW269898   0.566   7.399   3.202 -0.0497  0.6300 -0.7153
50636SOL     OW69899   7.710   3.235   5.370 -0.1213 -0.3686 -0.4716
50636SOL    HW169900   7.647   3.169   5.399 -0.2277  0.1610  0.5542
50636SOL    HW269901   7.785   3.226   5.428 -0.5418  1.0400  0.3533
50637SOL     OW69902  11.222   0.024   7.013  0.3719 -0.1207  0.4401
50637SOL    HW169903  11.133   0.002   7.040  0.6042 -0.4404  0.9721
50637SOL    HW269904  11.253  -0.053   6.966 -0.0238  0.4276 -0.7479
50638SOL     OW69905   0.119  11.674   3.350  0.1321  0.1812 -0.3236
50638SOL    HW169906   0.198  11.658   3.403  0.0358 -0.6375 -0.4104
50638SOL    HW269907   0.145  11.741   3.288  0.2141  1.2611  0.8354
50639SOL     OW69908   1.572  12.031   3.203  0.6979  0.4812  0.1427
50639SOL    HW169909   1.572  12.100   3.269  1.4224 -0.0710  0.7516
50639SOL    HW269910   1.568  11.950   3.254  0.3760  0.0637 -0.5340
50640SOL     OW69911  10.729   3.967  14.142  0.3683 -0.2499 -0.1281
50640SOL    HW169912  10.647   3.931  14.176  0.9371 -0.3459  1.2026
50640SOL    HW269913  10.795   3.902  14.163  1.0438  0.5483  0.3180
50641SOL     OW69914   9.852   4.669   0.524 -0.0049  1.0276  0.2665
50641SOL    HW169915   9.760   4.643   0.531  0.3830 -0.2733  0.8011
50641SOL    HW269916   9.869   4.718   0.604  0.3147 -0.5907  1.2351
50642SOL     OW69917   6.109   0.711  12.064  0.3601  0.1668  0.3602
50642SOL    HW169918   6.197   0.716  12.102  0.8566 -1.9640 -0.3760
50642SOL    HW269919   6.061   0.651  12.123 -0.7991  1.7007  1.0490
50643SOL     OW69920   9.063  10.804  13.456 -0.2531 -0.0163 -0.3375
50643SOL    HW169921   8.975  10.772  13.476 -0.0662 -0.5558 -0.3530
50643SOL    HW269922   9.053  10.853  13.374 -0.3587 -0.9340 -0.8861
50644SOL     OW69923  13.472   0.644  13.340  0.6543  0.7344  0.2413
50644SOL    HW169924  13.554   0.676  13.378 -0.6308  0.7903  3.2060
50644SOL    HW269925  13.463   0.555  13.374  0.9429 -0.4797 -2.6065
50645SOL     OW69926   3.964  13.307   6.757  0.5018  0.3589  0.1254
50645SOL    HW169927   3.955  13.366   6.832 -0.9517  1.5389 -0.8997
50645SOL    HW269928   3.897  13.240   6.771  1.4489 -0.4894  0.7581
50646SOL     OW69929   0.676   3.064   4.769 -0.0912 -0.6777  0.1987
50646SOL    HW169930   0.619   3.138   4.786 -0.0159 -0.8693  1.3260
50646SOL    HW269931   0.639   3.023   4.690  1.0486  1.6986 -1.7162
50647SOL     OW69932   8.609  12.504   8.698  0.0312 -0.5386  0.2961
50647SOL    HW169933   8.539  12.440   8.712 -0.5505  0.1660  0.6891
50647SOL    HW269934   8.622  12.544   8.784 -0.1498  0.3997 -0.0977
50648SOL     OW69935   8.772   5.967  12.378  0.5176  0.6401  0.5344
50648SOL    HW169936   8.758   5.876  12.404 -2.2185  0.7407 -0.2073
50648SOL    HW269937   8.835   5.963  12.307 -0.5386 -0.8645 -0.3772
50649SOL     OW69938  11.239   5.128   3.033 -0.1281 -0.1428 -0.0774
50649SOL    HW169939  11.215   5.149   2.942  0.0585  0.4861  0.0144
50649SOL    HW269940  11.290   5.048   3.026  0.8554  0.5139 -0.6499
50650SOL     OW69941  10.046   4.389   7.779  0.1222 -0.7787 -0.5370
50650SOL    HW169942  10.054   4.479   7.811 -2.5789 -0.2733 -1.0572
50650SOL    HW269943   9.994   4.345   7.846 -0.2970 -1.3937 -1.2587
50651SOL     OW69944   8.682   4.253   2.752 -0.5211 -0.0666 -0.3903
50651SOL    HW169945   8.689   4.238   2.658 -1.4292  0.3270 -0.5249
50651SOL    HW269946   8.608   4.201   2.780 -0.0804 -0.4094  0.1668
50652SOL     OW69947   4.505  11.226  10.537 -0.3801 -0.0940  0.2321
50652SOL    HW169948   4.457  11.303  10.566  0.4745 -0.4086  2.7624
50652SOL    HW269949   4.586  11.227  10.589  0.7479 -1.4178 -1.3992
50653SOL     OW69950   6.705   5.939   6.143  0.1649  0.1145  0.8567
50653SOL    HW169951   6.782   5.990   6.168  0.0724  0.1068  1.1615
50653SOL    HW269952   6.652   5.935   6.223  0.6262 -1.2987  1.1036
50654SOL     OW69953   6.291   5.208  11.426 -0.0144  0.3000 -0.1777
50654SOL    HW169954   6.248   5.220  11.511 -2.2715 -0.5787 -1.1166
50654SOL    HW269955   6.308   5.114  11.421 -2.7093 -0.2314 -1.8368
50655SOL     OW69956   0.145   0.832   3.629  0.3813 -0.1254 -0.2770
50655SOL    HW169957   0.208   0.897   3.663 -0.7554  0.3617  0.9774
50655SOL    HW269958   0.177   0.748   3.663  1.6516 -0.2338 -1.6042
50656SOL     OW69959  12.807   6.135  12.500 -0.2633 -0.1940  0.0237
50656SOL    HW169960  12.841   6.145  12.411 -0.4050 -1.0540 -0.1359
50656SOL    HW269961  12.712   6.141  12.490 -0.2271  2.3650  0.4874
50657SOL     OW69962  10.116   1.056   6.029  0.4739  0.5503 -0.2222
50657SOL    HW169963  10.094   1.125   5.966  2.8516  2.4437  0.8831
50657SOL    HW269964  10.175   0.998   5.981 -1.1449 -0.5568 -0.9965
50658SOL     OW69965  10.790  12.970   9.590  1.0527  0.5505  0.0496
50658SOL    HW169966  10.783  12.970   9.495  2.4138 -0.2367 -0.0768
50658SOL    HW269967  10.839  12.890   9.611 -2.7818 -1.6530  1.7302
50659SOL     OW69968   5.707   7.331   7.587 -0.4327 -0.5490 -0.1110
50659SOL    HW169969   5.644   7.361   7.652 -0.3625 -0.2242 -0.1896
50659SOL    HW269970   5.691   7.388   7.511  1.5082  1.1181  0.6576
50660SOL     OW69971   1.539   6.020  10.844 -0.3450 -0.1861 -0.3405
50660SOL    HW169972   1.511   6.035  10.754  0.0998  0.2592 -0.4089
50660SOL    HW269973   1.515   6.099  10.891 -1.5299 -0.8262  0.1825
50661SOL     OW69974   2.025   5.957   9.099  0.3932  0.1733  0.0682
50661SOL    HW169975   1.950   5.935   9.044 -0.2513 -0.4247  1.1647
50661SOL    HW269976   2.051   5.873   9.139  0.5239  0.6747  1.0643
50662SOL     OW69977   1.709   9.001   1.378  0.1906 -0.2024 -0.1854
50662SOL    HW169978   1.633   9.046   1.414  0.2169  0.0675 -0.4554
50662SOL    HW269979   1.773   9.070   1.363 -0.3169 -0.0565 -2.0375
50663SOL     OW69980   6.749  10.080  14.080 -0.5846 -0.0157 -0.3623
50663SOL    HW169981   6.824  10.087  14.022 -1.2951 -0.7533 -1.4184
50663SOL    HW269982   6.697  10.008  14.044 -0.6588 -1.0433  1.6585
50664SOL     OW69983  13.150   4.163   1.918  0.6763 -0.3371  0.4907
50664SOL    HW169984  13.219   4.146   1.854  0.0025 -2.4003  0.2429
50664SOL    HW269985  13.094   4.228   1.876  1.5838  0.1999  0.0587
50665SOL     OW69986   9.251  12.559   8.544  0.0156  0.2811 -0.4714
50665SOL    HW169987   9.220  12.588   8.630  2.6170  0.4283  0.4954
50665SOL    HW269988   9.281  12.470   8.558 -0.9139 -0.2430 -1.6294
50666SOL     OW69989   6.553   1.024  11.074 -0.1907  0.5044 -0.3084
50666SOL    HW169990   6.604   0.952  11.113 -1.2555 -0.7002 -1.0760
50666SOL    HW269991   6.484   0.981  11.025 -1.7550  2.0962  0.3924
50667SOL     OW69992   8.613   8.974   3.259  0.2239 -0.6104 -0.0180
50667SOL    HW169993   8.561   8.904   3.220  0.3254 -1.9605  2.0727
50667SOL    HW269994   8.566   8.998   3.338 -0.0511  2.1075 -0.9131
50668SOL     OW69995   1.095   2.084   2.900 -0.7569 -0.7850  0.3906
50668SOL    HW169996   1.160   2.152   2.879 -0.0489 -2.0134 -1.6838
50668SOL    HW269997   1.011   2.130   2.896 -0.2224  0.2137  0.1672
50669SOL     OW69998   5.844  13.822   3.010  0.1799  0.0312  0.3291
50669SOL    HW169999   5.791  13.776   2.945  1.6684 -0.3186 -0.6848
50669SOL    HW270000   5.889  13.753   3.058 -0.7123  0.3008  1.6206
50670SOL     OW70001  10.536  11.992   3.228 -0.0114  0.3755 -0.3542
50670SOL    HW170002  10.615  11.960   3.271 -1.7789 -3.3978  0.5275
50670SOL    HW270003  10.541  11.956   3.140 -0.2222  1.1199 -0.6759
50671SOL     OW70004   6.321  11.909  10.923  0.4820  0.8096 -0.2136
50671SOL    HW170005   6.396  11.850  10.909 -0.9099 -0.9017 -0.7253
50671SOL    HW270006   6.287  11.885  11.009 -0.2796  0.6678 -0.5491
50672SOL     OW70007   3.206   5.740  12.159 -0.0522  0.0837  0.1767
50672SOL    HW170008   3.292   5.726  12.121 -0.0099  0.2976  0.1947
50672SOL    HW270009   3.150   5.673  12.117  0.2988 -0.6120  0.7888
50673SOL     OW70010  10.901   6.309   8.386  0.2713 -0.0571  0.7367
50673SOL    HW170011  10.962   6.382   8.382  1.1179 -0.7646  0.2781
50673SOL    HW270012  10.816   6.347   8.366  0.2980  1.2080  2.7440
50674SOL     OW70013   7.412   8.307   1.218  0.2514 -0.6989  0.4606
50674SOL    HW170014   7.463   8.269   1.290  1.2652  0.3830  0.3480
50674SOL    HW270015   7.459   8.283   1.139 -0.8442 -1.8526  0.1280
50675SOL     OW70016   6.093  13.662   0.211 -0.1550  0.2369 -0.2679
50675SOL    HW170017   6.179  13.678   0.252 -0.3267 -0.0415  0.2092
50675SOL    HW270018   6.071  13.745   0.170 -0.3258  0.7742  0.8686
50676SOL     OW70019   3.040  11.163   9.039 -0.2127  0.2423 -0.6649
50676SOL    HW170020   3.033  11.144   9.133 -0.8902  0.3685 -0.6843
50676SOL    HW270021   3.132  11.185   9.026  0.2433 -1.3159 -0.3162
50677SOL     OW70022  13.108  12.173   5.530  0.0060  0.0232  0.2843
50677SOL    HW170023  13.096  12.257   5.574  0.9650  0.4062 -0.1588
50677SOL    HW270024  13.093  12.193   5.437  0.6414 -0.1925  0.1294
50678SOL     OW70025  14.138   3.282  10.756  0.7832 -0.4148 -0.5463
50678SOL    HW170026  14.149   3.230  10.677  0.4569  1.1447 -1.6583
50678SOL    HW270027  14.075   3.350  10.733  1.0304  0.3656  0.8994
50679SOL     OW70028   4.716  12.558   8.301 -0.3857 -0.3041 -0.8130
50679SOL    HW170029   4.680  12.644   8.283  0.7910  0.6341  0.9764
50679SOL    HW270030   4.667  12.527   8.378  1.4742  0.3611  0.7391
50680SOL     OW70031   5.387   5.505  11.107 -0.2492  0.0182  0.0798
50680SOL    HW170032   5.351   5.592  11.092  1.2107  0.6976  0.3670
50680SOL    HW270033   5.322   5.460  11.160 -0.6860  1.1961  0.5561
50681SOL     OW70034   6.838   6.217  13.916  0.0693  0.1227 -0.2330
50681SOL    HW170035   6.755   6.169  13.913  0.3137 -0.3540  0.4850
50681SOL    HW270036   6.899   6.163  13.866 -0.0492  0.4815 -0.7767
50682SOL     OW70037   7.952  11.768  10.123  0.1383 -0.3541  0.5488
50682SOL    HW170038   7.918  11.727  10.043  2.4505 -0.5280 -0.4006
50682SOL    HW270039   7.913  11.856  10.122 -0.2798 -0.5312 -0.4717
50683SOL     OW70040   7.243  11.641  10.879 -0.2320 -0.0820  0.1625
50683SOL    HW170041   7.282  11.554  10.884  1.2215  0.2240 -3.0920
50683SOL    HW270042   7.166  11.629  10.823  1.1029  0.9193 -2.0314
50684SOL     OW70043  14.066   1.639  10.950  0.4736 -0.2632 -0.3800
50684SOL    HW170044  14.022   1.561  10.918  0.1320 -0.2502  0.0454
50684SOL    HW270045  14.005   1.676  11.014  0.6323  0.3484 -0.5763
50685SOL     OW70046   0.834   3.478   4.756 -0.0991  0.0082  0.6455
50685SOL    HW170047   0.831   3.447   4.665 -1.1909  1.7515  0.0423
50685SOL    HW270048   0.759   3.536   4.764 -0.9084 -1.2592  3.1439
50686SOL     OW70049   2.834  12.729  10.575 -0.0347 -0.3610 -0.3690
50686SOL    HW170050   2.771  12.691  10.514 -1.7856 -0.8935  1.6622
50686SOL    HW270051   2.885  12.654  10.606  1.7981  0.0819 -2.0997
50687SOL     OW70052   1.582  11.642   0.565  1.0396 -0.2316  0.0652
50687SOL    HW170053   1.543  11.729   0.581  1.8270 -0.2516  2.4706
50687SOL    HW270054   1.540  11.585   0.630  1.9317 -1.2092 -0.1973
50688SOL     OW70055   0.309  10.654   2.740  0.1306  0.9979  0.1087
50688SOL    HW170056   0.322  10.632   2.832  0.1810 -0.3849 -0.2146
50688SOL    HW270057   0.345  10.743   2.732  3.0482  0.0106  0.7926
50689SOL     OW70058   0.874   4.504   2.242 -0.1748  0.0742  0.2657
50689SOL    HW170059   0.930   4.427   2.227 -0.4306 -0.0017 -0.3200
50689SOL    HW270060   0.928   4.562   2.296  0.5486  0.0770 -0.4288
50690SOL     OW70061  14.056  11.075  14.133 -0.1120 -0.6285  0.2375
50690SOL    HW170062  14.138  11.062  14.181 -0.3885 -0.2477  0.8140
50690SOL    HW270063  14.066  11.161  14.091  0.0360 -0.8588 -0.2084
50691SOL     OW70064   1.550   9.582   9.432  0.1274  0.4887 -0.0458
50691SOL    HW170065   1.482   9.611   9.371 -1.3820  0.9807  1.7875
50691SOL    HW270066   1.632   9.596   9.385 -0.9605  0.9450 -1.9009
50692SOL     OW70067  12.984   9.725  12.059 -0.0956 -0.2430  0.3742
50692SOL    HW170068  12.919   9.794  12.056 -0.4575 -0.5948 -1.3358
50692SOL    HW270069  12.969   9.675  11.978  2.5021 -0.1183 -0.2859
50693SOL     OW70070   4.862  11.589   1.916  0.0266 -0.2268 -0.4120
50693SOL    HW170071   4.913  11.526   1.966  1.5230  0.4696 -0.9814
50693SOL    HW270072   4.887  11.574   1.825  0.5154  1.2501 -0.5443
50694SOL     OW70073  10.514  13.563   3.201 -0.7411  0.0489  0.5227
50694SOL    HW170074  10.468  13.594   3.279 -2.3535 -0.0384 -0.3609
50694SOL    HW270075  10.605  13.554   3.230 -1.1497  0.7438  2.1772
50695SOL     OW70076  10.378   0.350  10.310 -0.2545  0.0499  0.1841
50695SOL    HW170077  10.305   0.292  10.329  0.0043 -0.1340  0.6338
50695SOL    HW270078  10.436   0.298  10.255 -0.0380 -0.1095  0.5603
50696SOL     OW70079  10.716  11.179   5.363  0.0934  0.1246  0.0527
50696SOL    HW170080  10.687  11.270   5.361 -0.0197  0.1316  1.0819
50696SOL    HW270081  10.660  11.134   5.300 -0.2989  0.6449  0.0230
50697SOL     OW70082   6.636   2.274   5.280 -0.1764  0.2391  0.5883
50697SOL    HW170083   6.625   2.202   5.218 -3.1473  0.2968  0.9028
50697SOL    HW270084   6.669   2.232   5.359  1.4984 -0.1724 -0.2817
50698SOL     OW70085   2.109   6.196   3.097 -0.3944 -0.1549 -0.2721
50698SOL    HW170086   2.150   6.282   3.105 -0.2453 -0.3327  1.2491
50698SOL    HW270087   2.023   6.208   3.137 -0.4923 -0.6296 -0.3420
50699SOL     OW70088   3.947   2.037  13.208 -1.0580  0.0728 -0.3407
50699SOL    HW170089   4.005   1.967  13.177  0.1116  0.0192  1.8246
50699SOL    HW270090   4.005   2.099  13.253 -2.4339  1.0603  0.1520
50700SOL     OW70091  10.349  11.393   0.175 -0.6990 -0.1266 -0.0381
50700SOL    HW170092  10.308  11.307   0.163  1.3790 -0.9845 -1.4464
50700SOL    HW270093  10.331  11.439   0.093  0.9927 -0.4809 -0.6394
50701SOL     OW70094   8.250  11.668   8.275 -0.5539 -0.1743 -0.0623
50701SOL    HW170095   8.165  11.683   8.314 -0.4731  0.0565  0.0263
50701SOL    HW270096   8.282  11.755   8.252  0.9489  0.0577  2.5747
50702SOL     OW70097   3.147   3.211   3.807 -0.6965 -0.2055 -0.4058
50702SOL    HW170098   3.083   3.280   3.825 -0.8629 -0.5365  0.3042
50702SOL    HW270099   3.221   3.256   3.766 -0.8306  0.3782 -0.0127
50703SOL     OW70100   0.648  12.477   1.457  0.3617 -0.0709  0.7683
50703SOL    HW170101   0.560  12.502   1.432  0.7217  1.2515  0.7620
50703SOL    HW270102   0.705  12.518   1.391  1.0150 -0.5228  1.0314
50704SOL     OW70103  11.941  13.184  11.594  0.2445  0.1484 -0.5088
50704SOL    HW170104  11.997  13.166  11.670  0.5878 -1.6053 -1.1434
50704SOL    HW270105  11.988  13.145  11.521 -1.1003 -0.0218 -1.2957
50705SOL     OW70106  12.323  13.872   7.248  0.7054 -0.6015 -0.3739
50705SOL    HW170107  12.292  13.782   7.244  0.2052 -0.4369 -0.2535
50705SOL    HW270108  12.328  13.901   7.157  2.0258 -1.1337 -0.4970
50706SOL     OW70109   6.805   1.430   0.486  0.1519  0.3568 -0.2540
50706SOL    HW170110   6.897   1.403   0.487  0.3178  0.8878 -0.9169
50706SOL    HW270111   6.780   1.431   0.394 -0.3101  0.9217 -0.1317
50707SOL     OW70112   1.793   0.858   7.090  0.7310 -0.0215  0.2184
50707SOL    HW170113   1.793   0.903   7.006  1.9457  0.4379  0.4442
50707SOL    HW270114   1.700   0.845   7.110  0.3942  0.9759 -0.6006
50708SOL     OW70115  12.818  11.657   5.600  0.0883  0.2433  0.4159
50708SOL    HW170116  12.733  11.647   5.557  0.4356  0.7059 -0.3977
50708SOL    HW270117  12.834  11.572   5.641  0.0614 -0.4626 -0.9652
50709SOL     OW70118  12.026  11.752   2.185 -0.4392  0.5973  0.3312
50709SOL    HW170119  12.082  11.709   2.121  0.1968 -1.0295  1.9079
50709SOL    HW270120  11.994  11.682   2.241 -5.0632  1.2333 -1.0825
50710SOL     OW70121   8.610  11.756   6.603  0.2729 -0.3366  0.4520
50710SOL    HW170122   8.655  11.678   6.634 -0.7154 -1.4903 -0.8928
50710SOL    HW270123   8.517  11.732   6.605 -0.3374  1.7523  2.5566
50711SOL     OW70124   5.547   6.071   2.820 -0.1038 -0.5326  0.1937
50711SOL    HW170125   5.517   6.026   2.899 -1.7452 -0.2231 -0.1962
50711SOL    HW270126   5.541   6.164   2.842  1.7597 -0.4577  0.4821
50712SOL     OW70127   9.072   1.449   6.886 -0.4702 -0.1806  0.0859
50712SOL    HW170128   9.130   1.459   6.962  0.5376 -2.2899 -0.3246
50712SOL    HW270129   8.994   1.406   6.921  0.4353 -2.1498 -0.1682
50713SOL     OW70130  13.619   8.379  12.165 -0.4410 -0.1011 -0.1244
50713SOL    HW170131  13.662   8.406  12.084  0.0271  0.0809  0.1766
50713SOL    HW270132  13.647   8.289  12.179 -2.0440 -0.7949 -1.1567
50714SOL     OW70133   7.101  12.669   1.694  0.3545  0.3654  0.0536
50714SOL    HW170134   7.141  12.583   1.710 -0.4579 -0.0059  0.1747
50714SOL    HW270135   7.098  12.711   1.780 -0.8213 -0.2026  0.3114
50715SOL     OW70136   5.190   6.758   0.962  0.4552  0.0627  0.8470
50715SOL    HW170137   5.243   6.716   1.030 -0.7957  0.2499  1.9638
50715SOL    HW270138   5.187   6.850   0.987 -1.0413 -0.0756  1.2511
50716SOL     OW70139   8.285   1.192   1.350 -0.4022 -0.2229 -0.6755
50716SOL    HW170140   8.282   1.282   1.383 -1.9758 -0.9999  1.5279
50716SOL    HW270141   8.324   1.142   1.421  0.0042 -1.3711 -1.6851
50717SOL     OW70142   3.018  11.733   4.238  0.4407 -0.0157  0.0181
50717SOL    HW170143   2.966  11.665   4.280  1.0617  1.8715  4.3582
50717SOL    HW270144   3.107  11.720   4.272  1.1482  1.3955 -1.1851
50718SOL     OW70145   7.665   2.642  11.703 -0.1041 -0.5921 -0.2053
50718SOL    HW170146   7.722   2.622  11.777  0.7665 -1.9597 -1.1906
50718SOL    HW270147   7.725   2.667  11.632 -0.7756 -1.0726 -0.9663
50719SOL     OW70148   9.001   7.837   4.749 -0.7588  0.0874  0.2187
50719SOL    HW170149   9.041   7.906   4.695 -2.2276 -0.2343 -1.3904
50719SOL    HW270150   9.075   7.791   4.788  0.2719  2.5355  1.3464
50720SOL     OW70151   0.633   1.887   0.024  0.3049 -0.1411  0.0419
50720SOL    HW170152   0.684   1.903  -0.056 -0.0556 -2.5804 -0.7844
50720SOL    HW270153   0.683   1.929   0.094  1.5224  0.6323 -1.2513
50721SOL     OW70154  12.087   1.827   6.332 -0.7617 -0.1567 -0.9774
50721SOL    HW170155  12.111   1.781   6.251  0.6487 -0.1433 -0.5950
50721SOL    HW270156  12.096   1.761   6.401  0.1296  0.3659 -0.5746
50722SOL     OW70157   4.197  10.865   8.945  0.5219 -0.0029 -0.2377
50722SOL    HW170158   4.147  10.798   8.990  0.1452 -0.0334 -0.6945
50722SOL    HW270159   4.144  10.944   8.952  0.6376  0.0824 -0.3050
50723SOL     OW70160   9.135   7.586   7.510 -0.0167  0.4414  0.1550
50723SOL    HW170161   9.085   7.612   7.587  0.7579  0.4538  0.6675
50723SOL    HW270162   9.197   7.521   7.542  1.8755  2.1054  0.0452
50724SOL     OW70163   8.300  10.282  13.308 -0.2516  0.5303 -0.3680
50724SOL    HW170164   8.285  10.356  13.368  0.2935 -0.2891  0.8015
50724SOL    HW270165   8.390  10.256  13.324 -0.4838 -0.4896 -0.6676
50725SOL     OW70166   4.912   9.175  12.347  0.0109 -0.2993 -0.2981
50725SOL    HW170167   4.818   9.172  12.328  0.0822 -2.7933 -0.6116
50725SOL    HW270168   4.953   9.134  12.272  1.2152 -0.6855  0.5467
50726SOL     OW70169  12.056   9.071   2.119 -0.2784 -0.1275  0.0678
50726SOL    HW170170  12.029   8.984   2.090 -0.4935 -0.5165  1.3631
50726SOL    HW270171  11.983   9.102   2.172 -0.0955  0.7427 -0.1775
50727SOL     OW70172   8.874   5.731   8.777 -0.2065 -0.0497 -1.0265
50727SOL    HW170173   8.939   5.777   8.831 -0.4080 -1.1496  0.2217
50727SOL    HW270174   8.926   5.685   8.711  0.0619  1.1608 -1.6848
50728SOL     OW70175   1.894  13.347   0.814  0.2123  0.3778  0.5717
50728SOL    HW170176   1.929  13.394   0.738 -1.8608  1.3111  0.1149
50728SOL    HW270177   1.916  13.402   0.889 -0.6416  1.2101  0.2366
50729SOL     OW70178  12.745  11.116  12.256  0.2762  0.0426 -0.0108
50729SOL    HW170179  12.840  11.115  12.247  0.1112 -2.1254 -2.8590
50729SOL    HW270180  12.727  11.049  12.323  0.7032 -0.9184 -0.8357
50730SOL     OW70181  10.820   5.346   0.214 -0.2342  0.3988 -0.3548
50730SOL    HW170182  10.744   5.391   0.251 -0.2680  0.6185 -0.6893
50730SOL    HW270183  10.809   5.353   0.120  0.3164  0.6270 -0.4065
50731SOL     OW70184   8.955   0.296   5.112  0.3699 -0.4233  0.7548
50731SOL    HW170185   8.952   0.286   5.207  0.5888  0.4839  0.8741
50731SOL    HW270186   8.970   0.390   5.099  0.0025 -0.4880 -0.1822
50732SOL     OW70187   5.328   4.923   9.104 -0.0181 -0.3440 -0.1067
50732SOL    HW170188   5.248   4.922   9.157 -0.5028  1.1572 -0.7546
50732SOL    HW270189   5.398   4.937   9.167 -0.2453 -1.5739  0.4588
50733SOL     OW70190   2.404  12.741   4.277  0.2188 -0.2709 -0.5725
50733SOL    HW170191   2.471  12.790   4.230  0.5466  0.8466  0.9753
50733SOL    HW270192   2.452  12.676   4.328  0.2752  1.2384  1.3771
50734SOL     OW70193   8.417   1.232   2.703 -0.2056 -0.0122  0.2071
50734SOL    HW170194   8.501   1.190   2.683  0.1090  0.7645 -0.1108
50734SOL    HW270195   8.427   1.322   2.671 -1.6533 -0.2878 -1.1286
50735SOL     OW70196   4.979   9.770   6.628 -0.0670  0.4103  0.5455
50735SOL    HW170197   4.951   9.773   6.720 -1.3664  0.6625  0.1585
50735SOL    HW270198   4.922   9.704   6.588 -0.8469  1.6766 -0.5010
50736SOL     OW70199   8.123  12.971  13.567 -0.7640 -0.2340 -0.4332
50736SOL    HW170200   8.183  12.970  13.642  0.1730  1.3548 -1.1196
50736SOL    HW270201   8.059  12.902  13.587  2.0713 -3.1164 -0.3652
50737SOL     OW70202  14.046   6.939  10.050  0.3333 -0.1053  0.1016
50737SOL    HW170203  14.059   6.854  10.008 -3.0061 -0.7798  0.1690
50737SOL    HW270204  14.053   6.920  10.144  0.9468 -0.0023  0.0813
50738SOL     OW70205  13.570   7.347   0.920 -0.4137  0.2952 -0.0458
50738SOL    HW170206  13.649   7.396   0.896  0.9602 -0.6837  2.1615
50738SOL    HW270207  13.591   7.309   1.005 -2.7469 -1.2338 -0.0818
50739SOL     OW70208   2.307   1.123   3.633  0.0775 -0.1243  0.3080
50739SOL    HW170209   2.336   1.052   3.690  1.0453 -1.2171 -1.4654
50739SOL    HW270210   2.221   1.095   3.601 -0.1023  0.1081  0.5799
50740SOL     OW70211   7.139   9.481   8.647  0.1262  0.5005  0.3227
50740SOL    HW170212   7.084   9.443   8.716 -1.9643  2.2178 -0.2777
50740SOL    HW270213   7.205   9.415   8.630  0.2064 -0.3588  3.3498
50741SOL     OW70214   9.089   7.107   1.862  0.4614 -0.0533 -0.2653
50741SOL    HW170215   9.001   7.135   1.838  0.7103  0.4868 -0.5727
50741SOL    HW270216   9.139   7.189   1.870  1.3257 -0.4030 -1.6737
50742SOL     OW70217  12.177   0.616   8.250 -0.1593  0.0668 -0.5065
50742SOL    HW170218  12.220   0.537   8.281 -0.5836 -0.7188 -1.8480
50742SOL    HW270219  12.231   0.688   8.283  1.0718 -0.8268 -0.5191
50743SOL     OW70220   2.685   2.558   0.587 -0.3921  0.0291 -0.2481
50743SOL    HW170221   2.761   2.588   0.636 -0.6323 -0.1826  0.2712
50743SOL    HW270222   2.656   2.634   0.537  1.0794 -0.3052 -1.6718
50744SOL     OW70223   0.227  13.850   6.069  0.0299 -0.4363 -0.9370
50744SOL    HW170224   0.264  13.937   6.089 -0.9331 -0.3479  0.6238
50744SOL    HW270225   0.162  13.867   6.001 -0.2623  0.1099 -0.5328
50745SOL     OW70226   3.184   7.325   8.217 -0.1027 -1.0714 -0.4723
50745SOL    HW170227   3.245   7.371   8.275  0.0522 -1.9245  0.0652
50745SOL    HW270228   3.103   7.317   8.268 -0.3877 -0.7173 -0.8555
50746SOL     OW70229  11.854   4.239   3.149  0.1280  0.5997  0.2166
50746SOL    HW170230  11.818   4.163   3.103  0.0791  0.3467  0.6656
50746SOL    HW270231  11.920   4.202   3.208 -1.8775  0.5152  2.5839
50747SOL     OW70232   3.850   1.481  12.449  0.0326  0.0304  0.1574
50747SOL    HW170233   3.818   1.393  12.469  0.5316 -0.6390 -1.7885
50747SOL    HW270234   3.789   1.539  12.494 -0.1805 -1.2888  1.6621
50748SOL     OW70235   1.333   5.430   2.916 -0.1032  0.6108  0.0294
50748SOL    HW170236   1.275   5.506   2.916 -0.4007  0.5726  3.4740
50748SOL    HW270237   1.418   5.464   2.890 -0.7922  1.5463 -1.0588
50749SOL     OW70238  13.907   3.304  10.000 -0.5885  0.0528 -0.3377
50749SOL    HW170239  13.937   3.388  10.035 -1.1498 -0.0476  0.4003
50749SOL    HW270240  13.852   3.328   9.925  0.2147  0.2892 -0.8632
50750SOL     OW70241  12.749   0.935  12.041 -0.4391 -0.0083  0.0461
50750SOL    HW170242  12.696   0.939  11.962  1.8378  0.7853 -1.5204
50750SOL    HW270243  12.810   0.862  12.025 -0.5663 -0.4689  1.5053
50751SOL     OW70244   3.542   3.183  11.052 -0.2563  0.1937  0.2974
50751SOL    HW170245   3.577   3.227  11.129  0.3323  1.5157 -0.6675
50751SOL    HW270246   3.610   3.123  11.024 -0.2211  0.1543  0.4725
50752SOL     OW70247   7.342  11.003   2.030 -0.0579 -0.0201 -0.0906
50752SOL    HW170248   7.406  11.046   2.086  1.9562 -1.2581 -1.3341
50752SOL    HW270249   7.261  11.006   2.081  0.6559  2.5799  1.0662
50753SOL     OW70250   9.158   8.287   1.252  0.3944  0.5050  0.0166
50753SOL    HW170251   9.138   8.322   1.166 -0.4887  1.5355  0.6083
50753SOL    HW270252   9.086   8.227   1.271  1.0763 -0.4381 -0.3376
50754SOL     OW70253  11.692   8.813  11.746  0.1964 -0.7745 -0.0626
50754SOL    HW170254  11.661   8.790  11.833 -0.3992  0.3651  0.0436
50754SOL    HW270255  11.749   8.889  11.761 -0.3153 -0.2525 -0.7061
50755SOL     OW70256  10.373   5.208  11.020 -0.2631  0.1841  0.0909
50755SOL    HW170257  10.414   5.288  10.986  0.7901  0.1804  1.3051
50755SOL    HW270258  10.284   5.210  10.983 -0.2817  1.9449  0.1337
50756SOL     OW70259   8.883   7.465   0.548 -0.0175 -0.2525  0.2649
50756SOL    HW170260   8.866   7.404   0.620 -1.1138  0.6246  0.7647
50756SOL    HW270261   8.931   7.537   0.589 -0.2882  0.0600  0.0346
50757SOL     OW70262   7.084   7.720   3.146  0.0097  0.0724  0.3318
50757SOL    HW170263   7.157   7.780   3.131  0.8430 -0.8751  0.5142
50757SOL    HW270264   7.075   7.717   3.241 -1.4726  1.5699  0.2897
50758SOL     OW70265  12.119   9.834   0.943 -0.0735 -0.3608 -0.2960
50758SOL    HW170266  12.200   9.872   0.908 -0.7450  0.5659 -0.9005
50758SOL    HW270267  12.118   9.745   0.909 -0.0050  0.0783 -1.4972
50759SOL     OW70268   4.365   5.805   6.444 -0.0095 -0.3609 -0.1923
50759SOL    HW170269   4.371   5.738   6.512 -0.9226 -0.8305 -0.5521
50759SOL    HW270270   4.316   5.876   6.484 -3.3622 -1.8946 -1.2275
50760SOL     OW70271  13.553   6.259   4.507 -0.1548 -0.1198  0.1101
50760SOL    HW170272  13.588   6.205   4.578 -1.3832 -0.3734  0.5382
50760SOL    HW270273  13.479   6.209   4.473 -0.0561  0.3551 -0.8579
50761SOL     OW70274   9.599   4.904   5.103  0.0062  0.4591  0.1441
50761SOL    HW170275   9.647   4.954   5.168 -0.4644  1.2031 -0.0622
50761SOL    HW270276   9.516   4.951   5.093 -0.2598 -0.1050 -0.3901
50762SOL     OW70277  10.260   6.522   1.256 -0.3562  0.4291 -0.0640
50762SOL    HW170278  10.186   6.468   1.286 -0.2109  0.9970  1.3837
50762SOL    HW270279  10.249   6.605   1.301 -2.3835  2.9702 -4.5387
50763SOL     OW70280   8.602  12.525  11.362 -0.4008  0.9444 -0.2401
50763SOL    HW170281   8.635  12.615  11.356 -0.2580  0.9506  0.4877
50763SOL    HW270282   8.681  12.472  11.371 -0.4896  0.7524 -0.5760
50764SOL     OW70283   4.979   7.344   2.730  0.0329 -0.2359 -0.1239
50764SOL    HW170284   4.963   7.423   2.781  0.8668 -0.4153  0.4336
50764SOL    HW270285   5.011   7.375   2.646  0.3551  0.0241  0.0912
50765SOL     OW70286   2.761  12.443   2.601 -0.1867 -0.1136  0.7874
50765SOL    HW170287   2.685  12.435   2.543  1.9408  0.2916 -2.2972
50765SOL    HW270288   2.818  12.371   2.575  1.7313  1.2856  0.9455
50766SOL     OW70289  11.604   1.418   2.648  0.3550  0.3325 -0.3459
50766SOL    HW170290  11.517   1.427   2.610  0.2959  0.6536 -0.1416
50766SOL    HW270291  11.664   1.419   2.574  0.0163 -3.3852 -0.8687
50767SOL     OW70292  10.542   0.689  12.614 -0.6430 -0.3187  0.1986
50767SOL    HW170293  10.534   0.608  12.664 -0.7578 -0.2472  0.2984
50767SOL    HW270294  10.636   0.698  12.598 -0.3494  0.7204  2.1898
50768SOL     OW70295  12.686   5.898   5.653 -0.0439 -0.2084  0.4491
50768SOL    HW170296  12.747   5.942   5.593 -0.3357  1.0673  1.0636
50768SOL    HW270297  12.713   5.806   5.651  0.5210 -0.0310 -0.9361
50769SOL     OW70298  13.645   6.329   6.628  0.4355  0.2475 -0.0620
50769SOL    HW170299  13.606   6.321   6.541  0.2655  1.1847 -0.0811
50769SOL    HW270300  13.705   6.402   6.621  1.3293 -0.4284  0.2969
50770SOL     OW70301   2.399  10.541   0.252 -0.2720  0.1700 -0.3641
50770SOL    HW170302   2.443  10.603   0.311 -1.5913 -1.6982  2.8320
50770SOL    HW270303   2.317  10.521   0.296 -0.3165 -3.1499 -1.6932
50771SOL     OW70304  11.821  10.926   5.281  0.1852  0.0248 -0.0040
50771SOL    HW170305  11.871  10.978   5.343  0.5462 -1.6310  1.1492
50771SOL    HW270306  11.747  10.892   5.331  0.0884 -0.7660 -0.6551
50772SOL     OW70307   8.281   4.558   4.008  0.5799 -0.4638  0.5285
50772SOL    HW170308   8.213   4.622   3.986  0.8744 -0.9486 -2.0992
50772SOL    HW270309   8.359   4.612   4.026  0.6457 -0.0186 -0.9764
50773SOL     OW70310   7.062  14.003   7.942 -0.9792 -0.4054 -0.1121
50773SOL    HW170311   7.075  14.090   7.905 -0.0447 -0.4703  0.0443
50773SOL    HW270312   7.041  13.947   7.867 -1.1871 -0.1199 -0.2655
50774SOL     OW70313  11.325  14.038  13.756 -0.4724  0.0004  0.1079
50774SOL    HW170314  11.315  13.991  13.839 -0.6142 -0.4305 -0.1525
50774SOL    HW270315  11.249  14.095  13.750 -1.4573 -1.3460 -0.6149
50775SOL     OW70316   6.845   2.443  11.602  0.4891 -0.1377  0.2120
50775SOL    HW170317   6.935   2.474  11.612  0.4967  0.6079 -1.6249
50775SOL    HW270318   6.816   2.481  11.518 -1.6990  0.0599  0.9736
50776SOL     OW70319   3.395   1.280  11.894  0.1483  0.6464  0.3586
50776SOL    HW170320   3.342   1.321  11.826 -2.8234 -0.3845  1.8551
50776SOL    HW270321   3.398   1.344  11.965 -2.2424 -0.5141  1.6446
50777SOL     OW70322   0.561   3.274  12.479  0.2675  0.0394  0.6328
50777SOL    HW170323   0.530   3.197  12.432 -2.2988  1.7003 -0.6476
50777SOL    HW270324   0.523   3.348  12.431 -0.2347  1.9881  3.7271
50778SOL     OW70325  11.947  11.883   7.755  0.1074  0.0169  0.4062
50778SOL    HW170326  11.891  11.889   7.833  1.0299  2.6632  0.9843
50778SOL    HW270327  11.914  11.951   7.697  1.9054  0.8098  0.2484
50779SOL     OW70328   3.995   9.807  11.389 -0.2336  0.8570 -0.2084
50779SOL    HW170329   4.070   9.829  11.444 -1.2762  0.8805  1.2708
50779SOL    HW270330   3.983   9.713  11.401 -1.1445  1.0484  0.5505
50780SOL     OW70331   5.388   2.024   0.846  0.4162  0.0718 -0.3052
50780SOL    HW170332   5.342   1.940   0.858 -1.3490  0.9569 -0.5971
50780SOL    HW270333   5.439   2.012   0.766 -0.7634 -0.3444 -1.0116
50781SOL     OW70334   2.994   0.039   3.350  0.3589  0.3298 -0.6159
50781SOL    HW170335   3.008   0.033   3.256 -0.1850  1.8937 -0.8200
50781SOL    HW270336   2.902   0.018   3.363  0.0955  1.4229 -0.6083
50782SOL     OW70337   6.703  11.920   5.376  0.2893 -0.5258 -0.3372
50782SOL    HW170338   6.763  11.970   5.320  0.0339  0.6834  0.4181
50782SOL    HW270339   6.705  11.831   5.341  1.8935 -0.3247 -0.8212
50783SOL     OW70340  11.476   3.609  11.032  0.1005  0.2130  0.3632
50783SOL    HW170341  11.448   3.555  11.106 -0.7962  0.2924  0.0917
50783SOL    HW270342  11.436   3.694  11.048  2.5748  1.2657  1.4896
50784SOL     OW70343   2.675  11.442   8.414  0.2689  0.1365 -0.1844
50784SOL    HW170344   2.732  11.515   8.390  0.0623 -0.2988 -2.1688
50784SOL    HW270345   2.696  11.373   8.351 -0.9630 -0.7878  0.3744
50785SOL     OW70346   9.239   0.675   8.097 -0.1679  0.2114 -0.4460
50785SOL    HW170347   9.290   0.678   8.178 -1.3460 -1.8345  0.4579
50785SOL    HW270348   9.304   0.663   8.028  0.7094 -0.5299  0.4764
50786SOL     OW70349   3.097   1.639   1.868 -0.6342  0.0158  0.0000
50786SOL    HW170350   3.107   1.614   1.960 -0.1840  1.2052  0.2870
50786SOL    HW270351   3.003   1.648   1.856 -0.6181  1.5137  0.8209
50787SOL     OW70352  11.410   5.202   1.318  0.2824 -0.1822 -0.7779
50787SOL    HW170353  11.416   5.228   1.226  0.2815 -0.5217 -0.8745
50787SOL    HW270354  11.484   5.143   1.331  0.6203  0.3095 -0.4087
50788SOL     OW70355   9.785   3.593  13.565 -0.2291 -0.2100  0.4191
50788SOL    HW170356   9.839   3.597  13.644  0.8469  1.3324 -0.3475
50788SOL    HW270357   9.717   3.659  13.579  0.5254  0.7537 -0.3025
50789SOL     OW70358   6.909   1.035   7.696  0.0859 -0.3604 -0.2875
50789SOL    HW170359   6.851   1.055   7.622 -0.1654 -2.0007 -0.5817
50789SOL    HW270360   6.895   1.107   7.758 -0.2098  0.6880 -1.5276
50790SOL     OW70361   2.567   4.594  12.902 -0.6983 -0.1907  0.2428
50790SOL    HW170362   2.589   4.654  12.831 -0.9750 -1.5471 -1.0340
50790SOL    HW270363   2.487   4.631  12.940 -0.5873  0.5142 -0.1828
50791SOL     OW70364   3.711   1.354   5.135  0.2429 -0.0566 -0.2911
50791SOL    HW170365   3.618   1.349   5.155  0.6500  0.2170  1.9489
50791SOL    HW270366   3.745   1.268   5.160  0.7106  0.1094 -0.3575
50792SOL     OW70367   4.369  10.139   6.390 -0.2658  0.4062  0.1264
50792SOL    HW170368   4.434  10.124   6.320  0.0349 -0.2466  0.5358
50792SOL    HW270369   4.370  10.234   6.403 -1.4297  0.7420 -1.7951
50793SOL     OW70370  10.771   3.793   2.130 -0.1157  0.5100 -0.0529
50793SOL    HW170371  10.801   3.860   2.069 -0.3916  0.7120  0.0299
50793SOL    HW270372  10.827   3.718   2.113 -0.3868  0.4603 -0.7615
50794SOL     OW70373   0.982   6.490  12.440 -1.0468 -0.3311  0.3017
50794SOL    HW170374   0.976   6.460  12.350  1.9383  1.1212 -0.5315
50794SOL    HW270375   0.997   6.411  12.492  0.7346 -0.9108 -1.0067
50795SOL     OW70376   1.671   9.860  12.102 -0.1893 -0.6660  0.7930
50795SOL    HW170377   1.592   9.817  12.070 -0.1495 -0.8715  0.9762
50795SOL    HW270378   1.640   9.941  12.143 -0.3133 -0.8049  0.9705
50796SOL     OW70379   0.633   3.012  12.651 -0.5762  0.0143  0.2927
50796SOL    HW170380   0.663   2.975  12.567  0.8485  0.2936  0.6430
50796SOL    HW270381   0.634   3.107  12.637  1.8324  0.2052  1.2362
50797SOL     OW70382   3.219   0.939   8.771  0.2306  0.4542  0.3362
50797SOL    HW170383   3.174   1.023   8.779  3.8494  2.5857  0.6120
50797SOL    HW270384   3.257   0.924   8.857  1.8719 -0.0352 -0.4320
50798SOL     OW70385  11.740  12.692  10.705  0.0914  0.8881 -0.1395
50798SOL    HW170386  11.753  12.757  10.773 -1.4476 -0.9283  2.0275
50798SOL    HW270387  11.676  12.731  10.646 -2.2732  0.7236  2.1629
50799SOL     OW70388   4.823  12.882   6.162  0.8304  0.1963 -0.1514
50799SOL    HW170389   4.902  12.869   6.215  0.0236 -0.0114  1.0306
50799SOL    HW270390   4.836  12.824   6.087  1.0451 -1.1672  0.8950
50800SOL     OW70391   2.825  10.614   1.928  0.2158 -0.1891 -0.2821
50800SOL    HW170392   2.838  10.687   1.988 -2.1999 -0.0255  0.1537
50800SOL    HW270393   2.733  10.622   1.901  0.5755 -1.6566 -2.1346
50801SOL     OW70394   2.480  10.413   5.494 -0.3909  0.3784  0.2878
50801SOL    HW170395   2.575  10.403   5.501 -0.2910  2.0082  2.3556
50801SOL    HW270396   2.446  10.327   5.518  0.5679  0.0513  0.5521
50802SOL     OW70397   5.403   1.908   6.208 -0.6994  0.3735  0.6417
50802SOL    HW170398   5.405   1.817   6.235  1.8202  0.4176  0.8896
50802SOL    HW270399   5.368   1.907   6.118 -0.5445 -0.8438  0.5911
50803SOL     OW70400   1.738  12.895   6.651  0.0212 -0.2943  0.1158
50803SOL    HW170401   1.655  12.862   6.684  0.1482  0.6116  1.4360
50803SOL    HW270402   1.754  12.974   6.702  0.4845  0.9421 -1.8371
50804SOL     OW70403  10.059   5.169   3.763  0.2669  0.0620 -0.2958
50804SOL    HW170404  10.133   5.225   3.786 -0.6075  1.4077 -0.5709
50804SOL    HW270405   9.983   5.227   3.770 -0.9303 -1.5834  1.1951
50805SOL     OW70406   4.809   2.319  12.607 -0.2703 -0.1228  0.3107
50805SOL    HW170407   4.788   2.399  12.655 -1.5219 -0.0661 -0.2917
50805SOL    HW270408   4.872   2.273  12.663  0.3851  1.2095  0.7194
50806SOL     OW70409  11.991   2.983  12.100 -0.2471 -0.1315  0.2596
50806SOL    HW170410  11.924   2.973  12.168 -2.4656 -0.5143 -1.8780
50806SOL    HW270411  11.943   2.987  12.018  2.2832  1.1412 -1.3025
50807SOL     OW70412  11.123   4.354   0.821  0.4445  0.3152  0.7894
50807SOL    HW170413  11.211   4.316   0.814 -0.4461 -1.7797  0.2880
50807SOL    HW270414  11.085   4.344   0.733 -1.1731 -1.1908  1.5964
50808SOL     OW70415   7.026   3.236   3.777 -0.2087 -0.4536  0.2378
50808SOL    HW170416   7.105   3.282   3.749  0.1990 -1.5491 -0.4966
50808SOL    HW270417   6.980   3.298   3.833  0.1532  0.9580 -0.9683
50809SOL     OW70418  10.481   3.648   1.246  0.2378 -0.0257  0.2073
50809SOL    HW170419  10.545   3.686   1.186 -0.5723  0.9081 -0.0998
50809SOL    HW270420  10.475   3.710   1.318 -1.3210  0.6516 -0.4425
50810SOL     OW70421   3.760   9.211   9.387  0.0330 -0.3576 -0.6237
50810SOL    HW170422   3.791   9.255   9.308 -0.0518  0.2218 -0.3434
50810SOL    HW270423   3.746   9.282   9.449 -0.8015 -0.7167 -0.3905
50811SOL     OW70424   9.555   9.414   3.380  0.1640 -0.0337  0.3666
50811SOL    HW170425   9.616   9.443   3.447  0.7348 -0.8144  0.1932
50811SOL    HW270426   9.469   9.415   3.423  0.5737 -0.9149  1.2336
50812SOL     OW70427   9.369  11.792  12.842  0.2172  0.1967  0.0721
50812SOL    HW170428   9.400  11.720  12.786 -2.7407 -1.4825  0.3917
50812SOL    HW270429   9.274  11.785  12.839 -0.1159  2.5535  2.2004
50813SOL     OW70430   9.910  11.888   9.268  0.2097 -0.1836  0.0588
50813SOL    HW170431   9.881  11.926   9.351  1.2850 -0.7285  0.7013
50813SOL    HW270432   9.856  11.932   9.202  0.7014  1.7157  0.8534
50814SOL     OW70433   4.406   3.274   5.745 -0.1547  1.0475 -0.2132
50814SOL    HW170434   4.420   3.348   5.804  1.6694  3.0294 -2.9017
50814SOL    HW270435   4.338   3.303   5.685  0.8142  0.7139 -1.5158
50815SOL     OW70436   1.551  11.876   2.680  0.2113 -0.6469  0.5570
50815SOL    HW170437   1.489  11.837   2.617 -0.2204  1.4356 -0.3812
50815SOL    HW270438   1.634  11.831   2.662 -0.6283 -2.3801  0.7641
50816SOL     OW70439   8.234   3.627   5.833 -0.2609 -0.0542  0.2326
50816SOL    HW170440   8.142   3.598   5.831 -0.5410  0.8479 -1.6545
50816SOL    HW270441   8.234   3.710   5.786  1.6215 -0.2549 -0.1913
50817SOL     OW70442   3.576   7.334  10.138  0.3118  0.3882 -0.0251
50817SOL    HW170443   3.562   7.333  10.043  1.7069 -1.6219 -0.2786
50817SOL    HW270444   3.569   7.242  10.164  2.6663  0.5283  1.3723
50818SOL     OW70445  12.452   2.723   2.581 -0.2765  0.0531 -0.0887
50818SOL    HW170446  12.464   2.630   2.565 -0.0949 -0.0671  0.7220
50818SOL    HW270447  12.381   2.748   2.522 -0.7281 -0.7223  0.1085
50819SOL     OW70448   9.745  10.116   2.550  0.1959  0.2138  0.0514
50819SOL    HW170449   9.709  10.184   2.607  0.5244  1.1198 -0.7996
50819SOL    HW270450   9.781  10.051   2.611  0.5134  1.1417  0.8888
50820SOL     OW70451   8.834   6.030  11.371  0.1838  0.3348  0.1803
50820SOL    HW170452   8.860   6.037  11.279  2.1772  0.3073  0.7045
50820SOL    HW270453   8.890   6.092  11.417 -1.5651  1.1762  1.2724
50821SOL     OW70454   8.215  10.509  12.957  0.2742 -0.1818  0.2707
50821SOL    HW170455   8.129  10.524  12.918  0.2439 -1.5972 -0.2996
50821SOL    HW270456   8.208  10.542  13.046  0.1048  2.4939 -0.6429
50822SOL     OW70457   6.397   3.410   5.126 -0.4057 -0.5329  0.0267
50822SOL    HW170458   6.358   3.392   5.040 -0.8097  2.3645 -0.5167
50822SOL    HW270459   6.491   3.408   5.110 -0.4803  0.4970 -0.6610
50823SOL     OW70460  10.271   4.149   9.380  0.2427  0.7187 -0.0006
50823SOL    HW170461  10.254   4.125   9.471  1.9139  0.4462  0.2657
50823SOL    HW270462  10.232   4.236   9.371  0.6074  1.0253  1.1633
50824SOL     OW70463   0.655   8.424   4.202 -0.7041 -0.2190 -0.1374
50824SOL    HW170464   0.636   8.333   4.223  1.2615 -0.1771  2.3775
50824SOL    HW270465   0.704   8.420   4.120  0.8111 -1.6656  0.7653
50825SOL     OW70466  12.383  11.405  12.826  0.6643  0.2838  0.6512
50825SOL    HW170467  12.317  11.462  12.787  1.7984  0.9754 -0.2796
50825SOL    HW270468  12.465  11.452  12.817  1.8142 -1.8668 -1.0205
50826SOL     OW70469   5.608   5.827   7.105 -0.8216 -0.5994  0.5229
50826SOL    HW170470   5.516   5.801   7.097 -1.7193  2.2853  0.5143
50826SOL    HW270471   5.614   5.910   7.057  1.6172 -0.3114  1.1939
50827SOL     OW70472   8.042   8.205   8.846  0.0584 -0.4014 -0.1237
50827SOL    HW170473   8.110   8.164   8.793 -0.9630  0.3382 -2.0943
50827SOL    HW270474   8.035   8.148   8.923  1.2908 -1.7682 -0.9668
50828SOL     OW70475  12.823   6.543   7.797 -0.4701  0.4503  0.1638
50828SOL    HW170476  12.792   6.516   7.883 -0.2287 -0.6016 -0.0684
50828SOL    HW270477  12.751   6.595   7.760 -1.4933 -0.9798  0.0949
50829SOL     OW70478  10.482  10.027  11.926 -0.2737 -0.2522 -0.4028
50829SOL    HW170479  10.493   9.973  12.004 -0.3125 -1.7657 -1.4070
50829SOL    HW270480  10.394  10.065  11.936 -0.9501 -1.7320 -0.4534
50830SOL     OW70481   9.463   6.249  13.946 -0.2673 -0.1964 -0.5117
50830SOL    HW170482   9.379   6.212  13.917 -1.2002  1.3355  0.1284
50830SOL    HW270483   9.457   6.342  13.925  0.4545  0.3046  1.2984
50831SOL     OW70484   7.602   6.566   9.566 -0.5934  0.1667  0.0334
50831SOL    HW170485   7.595   6.472   9.582 -1.3568 -0.3131 -2.6889
50831SOL    HW270486   7.525   6.604   9.608  0.0016 -0.3219  1.6133
50832SOL     OW70487   1.679   8.199   7.136  0.1390 -0.5516 -0.2298
50832SOL    HW170488   1.601   8.165   7.180 -1.0152  0.5066 -1.4092
50832SOL    HW270489   1.669   8.172   7.045 -0.2456  1.8849 -0.9661
50833SOL     OW70490  11.051   7.734   8.841 -0.2106 -0.2209 -0.2982
50833SOL    HW170491  11.134   7.780   8.833  0.2776 -1.1788 -1.0067
50833SOL    HW270492  11.072   7.643   8.820 -1.1860 -0.7364  0.8562
50834SOL     OW70493   1.308   3.445   3.632  0.5823  0.3383  0.0811
50834SOL    HW170494   1.316   3.396   3.550 -1.6152 -1.3367  0.7826
50834SOL    HW270495   1.316   3.537   3.605  2.3647 -0.2250 -1.6149
50835SOL     OW70496   0.054   9.066   8.875  0.3763 -0.1134  0.0436
50835SOL    HW170497   0.139   9.057   8.918  0.9496 -1.6260 -1.2597
50835SOL    HW270498   0.046   9.159   8.856  2.2406 -0.0475 -0.6819
50836SOL     OW70499   9.909  12.205  12.621  0.2393  0.1427 -0.9625
50836SOL    HW170500   9.850  12.208  12.696  0.2398 -0.5371 -0.9236
50836SOL    HW270501   9.971  12.276  12.637 -1.4004  1.8344 -1.7414
50837SOL     OW70502   6.799   2.570   4.279  0.1163  0.5059 -0.0546
50837SOL    HW170503   6.877   2.547   4.228 -0.3431 -0.2189 -0.4630
50837SOL    HW270504   6.746   2.624   4.219 -0.4030 -0.3069 -0.3462
50838SOL     OW70505  14.018   5.075  12.487  0.6382  0.7325  0.3972
50838SOL    HW170506  13.946   5.050  12.430  1.6980  0.4039 -0.8401
50838SOL    HW270507  13.978   5.128  12.555 -1.1059 -1.2277  0.9859
50839SOL     OW70508  12.976   1.881   7.170 -0.0518 -0.4199 -0.4926
50839SOL    HW170509  13.009   1.875   7.080 -1.7380  1.2338 -1.2746
50839SOL    HW270510  12.935   1.967   7.175  1.5582  0.3034  2.4379
50840SOL     OW70511   7.508   2.012  12.766  0.2297  0.8754 -0.4895
50840SOL    HW170512   7.548   1.981  12.847 -0.9943  0.4048 -0.0550
50840SOL    HW270513   7.466   1.935  12.728  0.4126  1.1826 -1.3584
50841SOL     OW70514   4.499   0.290   4.192  0.9574 -0.3391 -0.0164
50841SOL    HW170515   4.461   0.238   4.263  0.2504  0.2107  0.0134
50841SOL    HW270516   4.550   0.227   4.142  1.2439 -0.7930  0.8171
50842SOL     OW70517   7.009   1.655  10.633  0.4541  0.3024  0.6183
50842SOL    HW170518   7.010   1.740  10.588  2.0865  0.5154  0.9778
50842SOL    HW270519   6.978   1.593  10.567 -0.3939  1.1022  0.2365
50843SOL     OW70520   8.278   8.334  13.372  0.3915  0.0220 -0.0026
50843SOL    HW170521   8.242   8.252  13.406  0.8218 -0.0157  0.3728
50843SOL    HW270522   8.201   8.384  13.343  0.2381 -1.2862 -2.0335
50844SOL     OW70523  14.123  12.782  10.394  0.5643  0.3184  0.1551
50844SOL    HW170524  14.089  12.770  10.483 -0.2487 -0.5587 -0.2610
50844SOL    HW270525  14.217  12.765  10.402  0.2769 -1.2121  0.5835
50845SOL     OW70526   0.268  13.483   3.284 -0.5648 -0.0473 -0.1354
50845SOL    HW170527   0.239  13.456   3.371 -0.9266 -0.2679 -0.3210
50845SOL    HW270528   0.362  13.468   3.284 -0.3690  1.1355  0.6411
50846SOL     OW70529   0.344  12.008  10.678 -0.0347  0.1138  0.3358
50846SOL    HW170530   0.421  12.055  10.646  0.1913  0.8774  1.9348
50846SOL    HW270531   0.276  12.075  10.684 -0.5961 -0.3892 -0.2408
50847SOL     OW70532  12.308   4.419  13.277  0.3853  0.1442  0.6215
50847SOL    HW170533  12.257   4.362  13.220 -1.4282 -0.6038  2.8358
50847SOL    HW270534  12.245   4.481  13.313  1.9534  2.3147 -0.1335
50848SOL     OW70535   0.922   8.045   1.240 -0.0364  0.1422  0.5178
50848SOL    HW170536   0.879   7.960   1.231  0.5841 -0.3525  1.8583
50848SOL    HW270537   0.948   8.069   1.151 -1.9338 -0.1263 -0.1480
50849SOL     OW70538   1.343  13.949   5.301  0.3127 -0.8690  0.5328
50849SOL    HW170539   1.372  13.944   5.210  0.2547  0.1039  0.4503
50849SOL    HW270540   1.253  13.916   5.300 -0.0278  0.0460  0.0608
50850SOL     OW70541  12.378   8.111  11.092  0.3121 -0.4328 -0.0179
50850SOL    HW170542  12.404   8.081  11.179 -0.5235  1.0517  0.7831
50850SOL    HW270543  12.453   8.162  11.061 -0.1646  0.7611  0.7305
50851SOL     OW70544   8.897   0.588   5.135 -0.6257 -0.4003  0.2337
50851SOL    HW170545   8.911   0.670   5.088  1.5695 -0.1587  1.1649
50851SOL    HW270546   8.941   0.601   5.219 -0.9654 -2.2248  0.7405
50852SOL     OW70547   4.074   1.229   2.116 -0.2063 -0.8852 -0.3754
50852SOL    HW170548   4.046   1.297   2.055  1.1625  2.2951  2.1830
50852SOL    HW270549   4.052   1.265   2.202 -1.0622 -4.6155  1.1400
50853SOL     OW70550  13.663  11.718   9.299  0.1343 -0.0527 -0.6354
50853SOL    HW170551  13.590  11.773   9.326  1.4079  1.1794  0.5184
50853SOL    HW270552  13.741  11.767   9.326  1.3527 -2.7150  1.1042
50854SOL     OW70553   2.987   1.298   9.010  0.6413 -0.0940 -0.2292
50854SOL    HW170554   2.900   1.287   9.048  0.2788  0.3333 -0.9379
50854SOL    HW270555   3.046   1.296   9.086  0.0604 -0.7803  0.2204
50855SOL     OW70556  12.281   6.522   6.067 -0.5963  0.0002 -0.1376
50855SOL    HW170557  12.349   6.506   6.001 -2.0793 -1.2767 -1.4342
50855SOL    HW270558  12.295   6.613   6.093  0.5726  0.2842 -1.6039
50856SOL     OW70559   0.643   2.626   9.403  0.5021  0.0442  0.0204
50856SOL    HW170560   0.688   2.627   9.319  0.4848 -0.4897  0.0043
50856SOL    HW270561   0.670   2.544   9.444  2.0720  1.1747  1.3844
50857SOL     OW70562   3.531   6.165  12.182 -0.5333  0.0113  0.7697
50857SOL    HW170563   3.530   6.261  12.172 -1.4666 -0.0716 -0.0623
50857SOL    HW270564   3.462   6.147  12.246  0.0031 -0.0782  1.3345
50858SOL     OW70565   8.116   6.430   0.997 -0.0894 -0.2316 -0.2545
50858SOL    HW170566   8.109   6.526   1.005  0.2907 -0.2682  0.6234
50858SOL    HW270567   8.185   6.416   0.932 -0.0671  0.0906 -0.3024
50859SOL     OW70568   0.411  10.974   9.939 -0.3357 -0.7374  0.3158
50859SOL    HW170569   0.347  10.932   9.997  0.5126 -0.6724  1.3275
50859SOL    HW270570   0.490  10.921   9.949 -0.3321 -1.0821 -1.2609
50860SOL     OW70571  11.923   5.748  12.021 -0.5525  0.4421 -0.4904
50860SOL    HW170572  11.918   5.819  12.085 -0.0704  1.7468 -1.8375
50860SOL    HW270573  11.838   5.706  12.026  0.0481 -0.7222  2.2795
50861SOL     OW70574   8.441  12.855   8.283 -0.1147 -0.1470 -0.1527
50861SOL    HW170575   8.443  12.951   8.291 -2.1663 -0.0630 -0.0805
50861SOL    HW270576   8.465  12.823   8.370 -0.2354  0.3229  0.0590
50862SOL     OW70577   6.466   8.296   4.064  0.3354  0.3496  0.4071
50862SOL    HW170578   6.546   8.341   4.039  1.6018 -1.1933  1.5153
50862SOL    HW270579   6.447   8.328   4.152  0.2487  0.0521  0.4991
50863SOL     OW70580  11.613   0.641   1.582  0.4510 -0.4202  0.2839
50863SOL    HW170581  11.677   0.573   1.562  1.0750  0.3570 -0.4306
50863SOL    HW270582  11.601   0.635   1.677  0.7146 -1.3222  0.2719
50864SOL     OW70583   5.141  11.815   1.178  0.0886  0.1173 -0.1895
50864SOL    HW170584   5.109  11.769   1.101 -1.0617  2.5310 -1.2571
50864SOL    HW270585   5.081  11.889   1.189  0.6447  0.2938  2.6057
50865SOL     OW70586  12.449   5.081   2.791 -0.0440 -0.2546  0.4726
50865SOL    HW170587  12.467   5.048   2.703 -0.4005  1.8744 -0.4596
50865SOL    HW270588  12.536   5.094   2.829  0.1192 -2.5600  1.0662
50866SOL     OW70589   2.534   6.460   7.282 -0.1052  0.2558  0.0466
50866SOL    HW170590   2.595   6.387   7.288 -0.5353 -0.0954  0.1813
50866SOL    HW270591   2.521   6.474   7.189  0.7408  0.8100 -0.0044
50867SOL     OW70592   2.808  11.893   5.946 -0.2397 -0.1193 -0.1010
50867SOL    HW170593   2.721  11.932   5.946  0.3631  1.2974 -0.8312
50867SOL    HW270594   2.811  11.840   5.866 -0.9285 -1.4290  0.7023
50868SOL     OW70595   5.139   9.453  11.049 -0.0393 -0.6768 -0.3060
50868SOL    HW170596   5.047   9.443  11.072 -0.4644  0.6021 -1.3808
50868SOL    HW270597   5.161   9.372  11.003 -0.5470 -1.0971  0.1815
50869SOL     OW70598   1.021   8.720   3.102 -0.2259  0.2136 -0.5342
50869SOL    HW170599   1.035   8.629   3.129  0.2760  0.0617 -1.2476
50869SOL    HW270600   1.031   8.771   3.182  1.8968 -0.1484 -0.5073
50870SOL     OW70601   2.930   8.827  11.438 -0.2197  0.1948  0.5115
50870SOL    HW170602   3.020   8.860  11.435 -0.4632  0.9606  1.1131
50870SOL    HW270603   2.876   8.903  11.413 -0.7281 -0.0702  0.7899
50871SOL     OW70604   0.224   5.698  12.053 -0.6623 -0.5072  0.1935
50871SOL    HW170605   0.198   5.740  12.134  0.3937  1.2437 -0.3257
50871SOL    HW270606   0.290   5.633  12.079  1.2171  1.4649  0.5970
50872SOL     OW70607  10.683   3.829   9.971 -0.4339 -0.5409 -0.2653
50872SOL    HW170608  10.707   3.880   9.893  0.6100 -0.4154  0.1293
50872SOL    HW270609  10.660   3.743   9.937  1.7298 -1.0468 -0.5872
50873SOL     OW70610   1.599   3.533  12.721 -0.2492 -0.5959  0.7527
50873SOL    HW170611   1.504   3.527  12.711 -0.4001  1.7514 -0.0248
50873SOL    HW270612   1.611   3.606  12.782  1.0312  0.3250 -0.5470
50874SOL     OW70613  12.869   8.630   3.291 -0.1511  0.8079 -0.0504
50874SOL    HW170614  12.815   8.701   3.256 -2.4837 -0.5789  0.5153
50874SOL    HW270615  12.849   8.629   3.385 -2.2582 -2.1672 -0.4063
50875SOL     OW70616   1.390  10.693   3.781  0.3692 -0.7375 -0.5692
50875SOL    HW170617   1.367  10.655   3.696 -2.0379  1.1300 -0.8798
50875SOL    HW270618   1.359  10.628   3.845  2.1900 -2.1512 -1.0348
50876SOL     OW70619   0.816  12.104   1.206 -0.1078  0.1374 -0.0173
50876SOL    HW170620   0.890  12.043   1.199 -1.5403 -1.7581  0.5661
50876SOL    HW270621   0.765  12.088   1.127 -0.3013  0.9012 -0.0529
50877SOL     OW70622  10.841   7.748   1.938  0.2487  0.4955  0.2387
50877SOL    HW170623  10.905   7.759   2.009 -0.1366 -1.9520  1.0323
50877SOL    HW270624  10.895   7.739   1.859  0.8382 -0.1696  0.7045
50878SOL     OW70625   4.812  10.132  10.127  0.5359  0.0043 -0.3099
50878SOL    HW170626   4.813  10.039  10.105  0.4824 -0.3339  1.0056
50878SOL    HW270627   4.894  10.145  10.174  0.4957  0.6046 -0.4089
50879SOL     OW70628  12.978   2.395   2.879 -0.0879 -0.1764  0.3273
50879SOL    HW170629  13.015   2.463   2.935  1.1605 -1.0619  0.6085
50879SOL    HW270630  13.025   2.316   2.902 -0.5106 -0.8539 -1.0072
50880SOL     OW70631   5.833   3.053  11.174  0.2057  0.0470 -0.5144
50880SOL    HW170632   5.812   3.060  11.081  0.2071 -1.2021 -0.6216
50880SOL    HW270633   5.921   3.016  11.177  0.1384 -0.0903 -0.0145
50881SOL     OW70634   7.131   1.180  11.073  0.2640  0.2369  0.0093
50881SOL    HW170635   7.067   1.128  11.025 -1.2242  0.3296  1.7900
50881SOL    HW270636   7.088   1.264  11.089  1.2612  0.7164  0.3031
50882SOL     OW70637   1.383  10.981  12.831  0.2109 -0.2147  0.3304
50882SOL    HW170638   1.418  11.027  12.754  0.5331 -1.0136 -0.0063
50882SOL    HW270639   1.295  10.954  12.804  0.0991  0.0139  0.4579
50883SOL     OW70640   1.046  11.685  13.045  0.1060  0.1044  0.0597
50883SOL    HW170641   1.012  11.661  13.131 -0.7661 -1.1403 -0.5886
50883SOL    HW270642   1.021  11.776  13.033 -0.8601 -0.0736  0.6239
50884SOL     OW70643  12.926   9.658   4.416  0.7379 -0.3670  0.2440
50884SOL    HW170644  12.979   9.672   4.494 -0.1767 -1.0318  1.0042
50884SOL    HW270645  12.841   9.697   4.437  0.2463 -1.2053 -0.1277
50885SOL     OW70646   3.523   7.431   1.022 -0.5609  0.1883 -0.0830
50885SOL    HW170647   3.463   7.499   0.990 -0.9839 -0.7440 -1.3421
50885SOL    HW270648   3.584   7.417   0.950 -0.9282 -1.2678 -0.1331
50886SOL     OW70649   5.867   5.033  10.159  0.0088 -0.0936 -0.2166
50886SOL    HW170650   5.843   4.940  10.160  1.3071 -0.4653  1.1907
50886SOL    HW270651   5.953   5.035  10.202 -0.7953  1.9576  1.4211
50887SOL     OW70652  13.072  13.270  10.653  0.1052  0.7201 -0.2160
50887SOL    HW170653  13.002  13.259  10.717  1.1593 -1.2481  0.6842
50887SOL    HW270654  13.133  13.332  10.694  1.2341 -1.2189  1.1829
50888SOL     OW70655   2.639   7.246  10.280 -1.0655  0.4414 -0.6975
50888SOL    HW170656   2.591   7.184  10.226 -0.4060 -1.7788  1.0651
50888SOL    HW270657   2.731   7.231  10.259 -0.7648 -0.7438  1.1744
50889SOL     OW70658   6.621  11.036   5.248 -0.1898  0.4674 -0.2084
50889SOL    HW170659   6.644  11.017   5.339  1.5056 -0.3667 -0.7717
50889SOL    HW270660   6.655  10.961   5.199  0.3353  1.6425 -1.7036
50890SOL     OW70661   9.364   9.327  14.004  0.2802  0.7574 -0.6079
50890SOL    HW170662   9.308   9.251  14.016 -2.4499  2.8518  1.0750
50890SOL    HW270663   9.385   9.357  14.092  2.0666  1.4825 -1.2214
50891SOL     OW70664   8.607   6.416   9.361  0.2651 -0.1544 -0.0410
50891SOL    HW170665   8.682   6.474   9.348  0.0856 -0.4021 -2.5761
50891SOL    HW270666   8.532   6.474   9.368  0.4599  0.0152  0.8535
50892SOL     OW70667  11.820   6.080   7.430 -0.0421 -0.0782 -0.2013
50892SOL    HW170668  11.825   6.042   7.343  0.4515  0.5137 -0.4388
50892SOL    HW270669  11.800   6.172   7.415  2.1930  0.5271  0.1806
50893SOL     OW70670  13.345   1.759  13.211 -0.0366  0.2135  0.5479
50893SOL    HW170671  13.292   1.837  13.224  0.7933  0.8227  0.4111
50893SOL    HW270672  13.380   1.739  13.298  0.6537  0.6829  0.3930
50894SOL     OW70673  12.312   0.169   0.401 -0.6657  0.3367  0.6103
50894SOL    HW170674  12.353   0.086   0.425 -0.0570  0.8675  1.4571
50894SOL    HW270675  12.378   0.214   0.348 -0.5821  0.7105  1.0230
50895SOL     OW70676   7.515   8.443   9.689  0.0087  0.1430  0.7272
50895SOL    HW170677   7.470   8.364   9.719  0.1280 -0.1055  0.2682
50895SOL    HW270678   7.587   8.410   9.634  0.4086  0.5524  0.9991
50896SOL     OW70679  12.460   2.247   1.977  0.0454 -0.0346  0.2847
50896SOL    HW170680  12.411   2.175   1.938  2.4611 -0.9397 -1.3150
50896SOL    HW270681  12.395   2.294   2.030 -1.6332 -3.3914  1.5032
50897SOL     OW70682   8.931   2.076  13.295  0.0208 -0.0210  0.1999
50897SOL    HW170683   8.992   2.104  13.226 -0.4461  0.4242 -0.0338
50897SOL    HW270684   8.862   2.142  13.294 -1.1065 -1.1643 -0.3608
50898SOL     OW70685  11.782   3.439  11.211 -0.0567  0.1620  0.2409
50898SOL    HW170686  11.728   3.517  11.220  0.6964  0.6603  0.5204
50898SOL    HW270687  11.720   3.369  11.191 -0.6193  1.0955 -1.5088
50899SOL     OW70688  11.333   1.600   0.898  0.2369 -0.1017 -0.1958
50899SOL    HW170689  11.374   1.594   0.984 -0.7666  0.3895  0.3465
50899SOL    HW270690  11.297   1.689   0.896 -0.1631 -0.2762 -0.9262
50900SOL     OW70691   1.263   9.930  10.805  0.3256 -0.1959 -0.7351
50900SOL    HW170692   1.206   9.898  10.874  1.2551  0.0871  0.1812
50900SOL    HW270693   1.228  10.016  10.782  0.6292  0.1634  0.1241
50901SOL     OW70694   8.154   7.985   9.791 -0.7168  0.2807 -0.2731
50901SOL    HW170695   8.160   7.890   9.776 -0.9031  0.4854 -1.8217
50901SOL    HW270696   8.118   8.020   9.709 -1.5773  1.5909  0.6278
50902SOL     OW70697  10.031   6.408   4.470 -0.4430  0.0554  0.5264
50902SOL    HW170698  10.071   6.413   4.557 -1.1871  1.7382  0.8004
50902SOL    HW270699  10.058   6.489   4.427  0.4316 -1.0296 -1.0802
50903SOL     OW70700   2.330  11.787   8.619  0.3695 -0.0420  0.5295
50903SOL    HW170701   2.303  11.697   8.641  0.0692 -0.2289 -0.5265
50903SOL    HW270702   2.252  11.825   8.578 -0.0001  1.2148  2.3345
50904SOL     OW70703  10.463  12.615   7.729  0.1943  0.1580 -0.3660
50904SOL    HW170704  10.555  12.609   7.702  0.2053  1.4016 -0.6913
50904SOL    HW270705  10.455  12.703   7.766 -0.1097 -1.0174  2.6373
50905SOL     OW70706   2.904  13.045  12.106 -0.0656 -0.5397 -0.1572
50905SOL    HW170707   2.824  12.997  12.083 -0.1156 -0.3354 -0.4214
50905SOL    HW270708   2.936  13.002  12.185 -0.5185 -0.5313  0.0352
50906SOL     OW70709   7.647  11.186   3.473 -0.3088 -0.3548  0.1281
50906SOL    HW170710   7.604  11.126   3.534 -1.1179  1.5705  1.5448
50906SOL    HW270711   7.719  11.224   3.524 -0.9013  1.1681 -0.1197
50907SOL     OW70712   5.518   7.382  12.425  0.0969  0.2652 -0.2279
50907SOL    HW170713   5.541   7.346  12.510 -1.7996 -0.7672 -0.0924
50907SOL    HW270714   5.553   7.471  12.426  0.4158  0.1448  1.4829
50908SOL     OW70715   5.243   9.909  12.722  0.5368  0.2862  0.0135
50908SOL    HW170716   5.180   9.843  12.750 -0.5616  1.6735  0.9600
50908SOL    HW270717   5.245   9.901  12.626 -0.0841 -0.6446  0.0610
50909SOL     OW70718   1.270   6.701  12.163  0.5590  0.0594 -0.1388
50909SOL    HW170719   1.257   6.656  12.246  0.8068  1.1175  0.4873
50909SOL    HW270720   1.364   6.698  12.148  1.0352  2.9868  1.4829
50910SOL     OW70721  11.301   6.538  10.460  0.2856  0.6539 -0.9297
50910SOL    HW170722  11.237   6.591  10.412 -0.1146 -0.9634 -2.2618
50910SOL    HW270723  11.349   6.491  10.391 -0.7810 -2.3145  0.1946
50911SOL     OW70724  13.162   6.625   0.668 -0.2920  0.1308  0.0920
50911SOL    HW170725  13.163   6.681   0.591  1.7251 -0.0782 -0.0860
50911SOL    HW270726  13.138   6.683   0.740  1.5426  1.2112 -0.1205
50912SOL     OW70727   9.130   0.582  12.638  0.3698  0.2043  0.3155
50912SOL    HW170728   9.125   0.584  12.542  1.3682 -1.0848  0.2002
50912SOL    HW270729   9.115   0.490  12.660 -1.7289  0.7834  1.5522
50913SOL     OW70730   6.287  10.197  10.898 -0.2711 -0.3507 -0.1794
50913SOL    HW170731   6.338  10.273  10.926 -0.9898  0.3015 -0.6034
50913SOL    HW270732   6.237  10.172  10.976  0.8619 -1.1643  0.3214
50914SOL     OW70733  10.902   9.307   3.709 -0.0813 -0.1425  0.8929
50914SOL    HW170734  10.991   9.337   3.722 -0.1389 -0.1579  1.3416
50914SOL    HW270735  10.849   9.362   3.766 -0.5694  0.9494 -0.5389
50915SOL     OW70736   1.178  11.014   7.543  0.0860  0.4377 -0.5522
50915SOL    HW170737   1.095  11.055   7.520 -0.4349 -0.3100 -0.0554
50915SOL    HW270738   1.233  11.086   7.573 -0.0756  1.0664 -1.6912
50916SOL     OW70739   1.357  13.886  13.084 -0.4230  0.0415 -0.7376
50916SOL    HW170740   1.396  13.883  12.996 -0.2607 -2.4143 -0.6496
50916SOL    HW270741   1.428  13.914  13.141  0.4492 -1.6249 -0.9672
50917SOL     OW70742   9.539  12.431  13.276 -0.5618 -0.5598 -0.2183
50917SOL    HW170743   9.492  12.456  13.356  0.4511 -0.0884  0.2504
50917SOL    HW270744   9.495  12.479  13.206 -0.4505  0.3068  0.2868
50918SOL     OW70745  12.074  13.694   2.312  0.0862 -0.2492 -0.7926
50918SOL    HW170746  12.001  13.647   2.272  0.0578 -0.9300  0.0317
50918SOL    HW270747  12.136  13.708   2.240 -0.7185  0.0719 -1.4315
50919SOL     OW70748   2.442   8.251   0.438  0.3939 -0.1751 -0.2153
50919SOL    HW170749   2.434   8.156   0.432 -0.7846 -0.0442 -1.0967
50919SOL    HW270750   2.533   8.269   0.413  0.0777 -0.9439 -2.0906
50920SOL     OW70751  13.617   0.477  11.551  0.6454  0.3203 -0.1742
50920SOL    HW170752  13.603   0.503  11.460  2.2156 -0.8436 -0.7956
50920SOL    HW270753  13.682   0.539  11.584  0.3604  0.5090  0.0277
50921SOL     OW70754   7.156   2.500   6.700  0.2841 -0.0175  0.1736
50921SOL    HW170755   7.105   2.557   6.757  1.0837 -0.0611  0.9506
50921SOL    HW270756   7.110   2.502   6.616 -0.9646 -0.0162  0.8347
50922SOL     OW70757   3.145   1.049  10.164 -0.3715 -0.1746  0.0209
50922SOL    HW170758   3.182   1.013  10.084 -0.5387 -2.1180  0.7586
50922SOL    HW270759   3.193   1.006  10.235  0.9887  2.7448  1.0528
50923SOL     OW70760   5.888   7.129   3.227 -0.2302 -0.2076  0.4628
50923SOL    HW170761   5.799   7.110   3.255 -0.6471  0.8970 -0.0513
50923SOL    HW270762   5.943   7.105   3.302 -1.0057 -0.4379  0.9595
50924SOL     OW70763   3.283  12.739  11.801 -0.1055 -0.3212 -0.2959
50924SOL    HW170764   3.287  12.654  11.844  2.2059  0.6378  1.6501
50924SOL    HW270765   3.374  12.758  11.778 -0.7570  1.0126 -2.0419
50925SOL     OW70766  13.384  10.373  11.170  0.4504  0.1015 -0.1124
50925SOL    HW170767  13.310  10.398  11.226  1.0959  0.3337  0.6548
50925SOL    HW270768  13.350  10.380  11.081 -0.1568  1.2248  0.1892
50926SOL     OW70769   6.959   0.564   8.719  0.0386  0.5274  0.6800
50926SOL    HW170770   6.892   0.497   8.722 -1.5421  1.5409 -3.9164
50926SOL    HW270771   6.954   0.607   8.805 -2.9816 -1.3943  1.6203
50927SOL     OW70772   5.720   9.798   9.938  0.3506 -0.4269  0.0878
50927SOL    HW170773   5.806   9.756   9.926  0.0010 -1.3682  0.7590
50927SOL    HW270774   5.740   9.887   9.966  1.1033 -0.6466  0.2638
50928SOL     OW70775   1.438   8.055   0.372 -0.1186  0.1929  0.0817
50928SOL    HW170776   1.504   8.067   0.440 -0.3029  1.6999  0.0169
50928SOL    HW270777   1.381   7.985   0.405 -0.3836  1.1012  1.6082
50929SOL     OW70778   3.539  12.997  10.227  0.4176 -0.0252 -0.5037
50929SOL    HW170779   3.633  12.985  10.235  0.7229  2.6440  0.9337
50929SOL    HW270780   3.506  12.999  10.317 -0.6751  1.1266 -0.8901
50930SOL     OW70781  12.247  13.356   9.403  0.0806 -0.2468 -0.1990
50930SOL    HW170782  12.152  13.348   9.401  0.0981 -0.4989  0.0270
50930SOL    HW270783  12.263  13.444   9.438 -0.0890  0.3524 -1.5476
50931SOL     OW70784   6.811  13.278   0.280 -0.8659 -0.9446  0.3684
50931SOL    HW170785   6.730  13.310   0.322 -1.1779 -1.5202  0.2251
50931SOL    HW270786   6.847  13.217   0.344  0.6384  0.9100  1.3959
50932SOL     OW70787   3.744   8.152   7.970  0.0472 -0.0264 -0.3847
50932SOL    HW170788   3.677   8.197   7.918  0.4981 -0.1777 -1.1147
50932SOL    HW270789   3.709   8.064   7.983 -1.9531  1.0837  3.0779
50933SOL     OW70790   5.889   6.511   4.031 -0.1474  0.5354 -0.2734
50933SOL    HW170791   5.927   6.437   4.078  1.5621  1.5785  0.0807
50933SOL    HW270792   5.867   6.475   3.944 -2.3229 -1.1195  0.8556
50934SOL     OW70793   3.820   9.357   9.148 -0.1730  0.5481 -0.1177
50934SOL    HW170794   3.859   9.277   9.115  0.0725  0.4442  0.4115
50934SOL    HW270795   3.751   9.378   9.085  0.3402  0.4123 -0.7403
50935SOL     OW70796   1.833   1.091   0.360 -0.2467 -1.1831  0.3455
50935SOL    HW170797   1.859   1.149   0.289 -2.6987 -0.4724 -0.0553
50935SOL    HW270798   1.881   1.124   0.436 -0.1269  0.1690 -0.2840
50936SOL     OW70799  10.448   5.656   1.653  0.2928 -0.0961  0.1291
50936SOL    HW170800  10.412   5.707   1.726 -1.0214 -0.5764 -0.1650
50936SOL    HW270801  10.542   5.670   1.659  0.2406 -0.2502  2.0252
50937SOL     OW70802   0.129   3.207   0.644 -0.6232 -0.3841 -1.1758
50937SOL    HW170803   0.184   3.217   0.567 -0.2210  2.5728 -0.6225
50937SOL    HW270804   0.067   3.280   0.640 -0.9766 -0.4830  0.9771
50938SOL     OW70805   8.935   0.093  10.709 -0.0642  0.1405 -0.1742
50938SOL    HW170806   9.013   0.054  10.749 -0.3083 -0.1355  0.0329
50938SOL    HW270807   8.929   0.051  10.623 -0.7762 -0.8669  0.3581
50939SOL     OW70808   1.279  10.492   3.917 -0.4237 -0.2030  0.1389
50939SOL    HW170809   1.349  10.431   3.939 -0.0103  0.3537  0.3607
50939SOL    HW270810   1.228  10.445   3.851 -0.3913 -0.9827  0.6519
50940SOL     OW70811   6.099  11.855   2.028 -0.2787  0.2348 -0.3154
50940SOL    HW170812   6.013  11.836   2.065 -1.4190  0.4109 -2.6884
50940SOL    HW270813   6.156  11.865   2.104 -1.7624 -2.4167  1.3194
50941SOL     OW70814   6.146  12.130  10.439 -0.0065 -0.5329  0.0326
50941SOL    HW170815   6.094  12.054  10.415  0.0036 -0.1931 -1.0852
50941SOL    HW270816   6.107  12.161  10.521 -2.0716  0.1836 -1.1557
50942SOL     OW70817   3.054  10.423  12.396  0.1426 -0.3697  0.0381
50942SOL    HW170818   3.137  10.375  12.404  0.8238  0.9871  1.5370
50942SOL    HW270819   2.993  10.359  12.359  1.6483 -1.6428 -0.3229
50943SOL     OW70820  11.362  12.176  13.006  0.4055 -0.0815 -0.1933
50943SOL    HW170821  11.322  12.140  12.927 -1.4540 -0.8953  1.0463
50943SOL    HW270822  11.373  12.100  13.064  2.8110  0.2984 -0.0297
50944SOL     OW70823   1.732   4.999   5.062 -0.0285  0.0175  0.0489
50944SOL    HW170824   1.755   5.018   5.152 -0.3114  0.9069 -0.0550
50944SOL    HW270825   1.815   4.997   5.015  0.0129  1.2893  0.0260
50945SOL     OW70826  12.531  10.389  13.511  0.1076  0.3532  0.2853
50945SOL    HW170827  12.504  10.395  13.602 -1.1202  0.1259 -0.0473
50945SOL    HW270828  12.523  10.479  13.478 -2.1841  0.0058 -0.3053
50946SOL     OW70829   2.662   9.392   4.342 -0.3907 -0.4252  0.7580
50946SOL    HW170830   2.628   9.327   4.404 -0.9134 -0.0405  0.8857
50946SOL    HW270831   2.743   9.424   4.382 -0.8328 -0.0291  1.3539
50947SOL     OW70832  13.965   0.505   7.955  0.0802  0.0393 -0.1135
50947SOL    HW170833  13.995   0.596   7.952 -0.9366  0.3722 -0.5229
50947SOL    HW270834  13.870   0.510   7.945  0.0105 -1.0735 -0.1983
50948SOL     OW70835   8.605  13.657   2.979  0.3181 -0.8468 -0.3075
50948SOL    HW170836   8.534  13.645   3.042 -0.7493  4.4609 -0.0087
50948SOL    HW270837   8.684  13.666   3.032 -0.1181  0.6739  0.1475
50949SOL     OW70838   2.582   9.581   8.914  0.0480  0.2865 -0.5482
50949SOL    HW170839   2.535   9.624   8.986  1.0598 -0.1649  0.4233
50949SOL    HW270840   2.644   9.646   8.882  0.0447  0.2815 -0.5647
50950SOL     OW70841   9.086   9.813   1.397 -0.4158 -0.7952 -0.3552
50950SOL    HW170842   9.113   9.798   1.307 -1.5755  0.3714 -0.9253
50950SOL    HW270843   9.130   9.894   1.422 -1.7374  0.0359 -0.6188
50951SOL     OW70844   7.906   2.953  11.800  0.2431 -0.3081  0.4149
50951SOL    HW170845   7.966   2.878  11.806 -1.0497 -1.4795 -0.4540
50951SOL    HW270846   7.954   3.018  11.749  0.4733 -1.5922 -1.0927
50952SOL     OW70847   1.455  10.216   5.192  0.2863 -0.4162 -1.0072
50952SOL    HW170848   1.413  10.146   5.242  1.2917 -0.1002  0.3295
50952SOL    HW270849   1.538  10.178   5.163 -0.0015 -0.3800 -1.8889
50953SOL     OW70850  13.370   0.082  12.121  0.1463  0.3322 -0.0361
50953SOL    HW170851  13.344   0.143  12.190  2.8884  0.3322  1.1303
50953SOL    HW270852  13.416   0.012  12.167 -0.4331 -1.1716 -1.6378
50954SOL     OW70853   5.612   1.871   8.512  0.3536  0.6237  0.4350
50954SOL    HW170854   5.606   1.853   8.606  0.1409 -0.2129  0.2723
50954SOL    HW270855   5.703   1.848   8.489 -0.0800 -0.8928  0.1150
50955SOL     OW70856   6.524   8.473  13.508  0.1756 -0.4559 -0.6216
50955SOL    HW170857   6.490   8.553  13.470  0.4932 -1.0034 -2.1219
50955SOL    HW270858   6.619   8.484  13.508  0.2972 -1.3064 -2.0095
50956SOL     OW70859   9.677   4.331  13.636  0.3814  0.4425  0.2138
50956SOL    HW170860   9.634   4.405  13.593  0.1511 -1.0692 -2.3563
50956SOL    HW270861   9.771   4.346  13.621  0.2771 -0.4007 -1.5318
50957SOL     OW70862   6.770  11.410  12.890  0.5372  0.8555 -0.2265
50957SOL    HW170863   6.714  11.484  12.869 -0.6015  0.4892  1.3404
50957SOL    HW270864   6.802  11.428  12.978  0.0464 -0.6251  0.2748
50958SOL     OW70865  13.897   5.650   8.734  0.1315 -0.2405  0.5041
50958SOL    HW170866  13.841   5.700   8.794  0.5807  1.6868 -0.6110
50958SOL    HW270867  13.986   5.676   8.758  0.4755 -1.6081  0.8074
50959SOL     OW70868   4.308  13.116  13.418 -0.3307  0.5845 -0.1344
50959SOL    HW170869   4.388  13.074  13.385 -0.9280 -2.4195  1.8512
50959SOL    HW270870   4.339  13.176  13.486  0.2714 -1.2154  1.2561
50960SOL     OW70871  13.605  10.160   2.403  0.2632 -0.2023 -0.3898
50960SOL    HW170872  13.544  10.228   2.433 -0.4091 -0.3462 -1.3844
50960SOL    HW270873  13.690  10.203   2.397  0.2441  0.0436  0.8698
50961SOL     OW70874   1.181   9.566   2.772 -0.1826 -0.0325 -0.2888
50961SOL    HW170875   1.130   9.579   2.852 -0.8544 -1.5430 -0.4285
50961SOL    HW270876   1.220   9.479   2.783  3.4861  1.4755  0.3998
50962SOL     OW70877   0.560   8.888  14.123 -0.4434 -0.0405 -0.3317
50962SOL    HW170878   0.514   8.919  14.201 -0.2111  0.0333 -0.2242
50962SOL    HW270879   0.652   8.903  14.142 -0.4080  0.2619 -0.7479
50963SOL     OW70880   5.499   9.507  11.571  0.5825 -0.3126 -0.0165
50963SOL    HW170881   5.491   9.602  11.579 -2.4316 -0.5284  1.1037
50963SOL    HW270882   5.541   9.479  11.652  0.8382  0.0083 -0.0367
50964SOL     OW70883  13.140   1.084   7.713  0.2676 -0.2539  0.5032
50964SOL    HW170884  13.104   1.078   7.802  1.7393 -3.6078  1.0324
50964SOL    HW270885  13.217   1.140   7.723 -1.1595  1.8246  0.6224
50965SOL     OW70886   7.690  14.061  10.245  0.0223  0.1579 -0.4235
50965SOL    HW170887   7.659  14.125  10.181 -0.6260 -0.1812 -0.4524
50965SOL    HW270888   7.678  13.976  10.203  2.4509  0.0565 -1.0666
50966SOL     OW70889  13.500   1.702  10.999 -0.4408 -0.5301 -0.0653
50966SOL    HW170890  13.482   1.791  11.028 -1.1019 -0.7565  0.2592
50966SOL    HW270891  13.452   1.693  10.916 -0.7169 -0.7044  0.1084
50967SOL     OW70892  10.096   6.908   4.548 -0.2801  0.0504 -0.4974
50967SOL    HW170893  10.055   6.993   4.537 -0.4279 -0.1191 -1.2603
50967SOL    HW270894  10.174   6.926   4.601 -0.6023  0.5720 -0.1958
50968SOL     OW70895   0.053   4.124   8.971 -0.0462 -0.6148  0.3645
50968SOL    HW170896   0.081   4.032   8.977  1.7264 -0.1109  0.2467
50968SOL    HW270897  -0.028   4.120   8.919 -1.0473 -2.2823  1.9274
50969SOL     OW70898   0.058   5.798  14.100  0.0461 -0.3774  0.1574
50969SOL    HW170899   0.110   5.878  14.090 -0.6090  0.0353 -0.0335
50969SOL    HW270900   0.087   5.760  14.183  1.7323 -0.9834 -0.6716
50970SOL     OW70901  11.343   9.970   7.017  0.3966 -0.4745  0.2610
50970SOL    HW170902  11.256   9.952   6.979  0.4992 -0.0385 -0.1906
50970SOL    HW270903  11.356  10.063   7.003  1.1542 -0.6355 -0.1243
50971SOL     OW70904   8.885   7.171  10.198  0.6051  0.2695 -0.1872
50971SOL    HW170905   8.891   7.249  10.143  0.8878  0.3273 -0.0739
50971SOL    HW270906   8.823   7.114  10.152  0.6908  0.3988 -0.4633
50972SOL     OW70907  13.725  11.567   3.658  0.0618 -0.0063  0.0148
50972SOL    HW170908  13.678  11.612   3.588 -0.3759 -1.1179 -0.4205
50972SOL    HW270909  13.783  11.506   3.613 -0.9546 -1.4547  0.6077
50973SOL     OW70910   9.421  10.024   3.033 -0.1914  1.1783 -0.6074
50973SOL    HW170911   9.483  10.005   2.963 -1.0879 -2.8882 -0.5634
50973SOL    HW270912   9.335  10.012   2.993 -0.7254 -0.7666  0.9259
50974SOL     OW70913   9.672   5.342  13.432 -0.2155 -0.0672  0.1390
50974SOL    HW170914   9.663   5.248  13.415 -0.1922  0.1328 -1.0958
50974SOL    HW270915   9.656   5.351  13.526  0.1756 -1.3523  0.3511
50975SOL     OW70916   8.346   4.968  11.183  0.6392 -0.3211 -0.6225
50975SOL    HW170917   8.369   4.902  11.248 -2.2385 -1.5531 -0.6985
50975SOL    HW270918   8.402   5.043  11.204  2.2836 -1.9007  1.0007
50976SOL     OW70919  13.781  12.676  12.440  0.0672 -0.1418 -0.2458
50976SOL    HW170920  13.849  12.744  12.440  0.0437 -0.1146  0.2689
50976SOL    HW270921  13.748  12.675  12.350 -1.3430  1.9622  0.1772
50977SOL     OW70922  12.903   5.497  12.275 -0.1359  0.2337  0.2863
50977SOL    HW170923  12.836   5.564  12.265  1.2693  1.7467  0.6389
50977SOL    HW270924  12.913   5.487  12.370  0.1470  0.0325  0.2365
50978SOL     OW70925  13.426   4.591  13.460  0.0881 -0.3648  0.0601
50978SOL    HW170926  13.468   4.675  13.481  1.0703 -0.7142 -0.4476
50978SOL    HW270927  13.335   4.614  13.439  0.1462  0.4728  0.6732
50979SOL     OW70928   9.323  13.142  11.863  0.1711 -0.0970  0.3582
50979SOL    HW170929   9.321  13.236  11.844  0.5991 -0.3346 -0.9740
50979SOL    HW270930   9.255  13.129  11.928 -0.3159  1.0440  0.1000
50980SOL     OW70931   0.151  11.025   0.403  0.0140  0.1644  0.2049
50980SOL    HW170932   0.228  10.967   0.397  0.1454  0.2991  0.5613
50980SOL    HW270933   0.139  11.039   0.497  0.0262  0.7714  0.1212
50981SOL     OW70934  12.890   9.733   4.097  0.3466 -0.1341  0.0540
50981SOL    HW170935  12.885   9.718   4.002  1.2296 -0.6068  0.0594
50981SOL    HW270936  12.885   9.645   4.134 -0.7349  0.1087  0.4967
50982SOL     OW70937  13.853   0.075  13.785  0.4389 -0.7066  0.6875
50982SOL    HW170938  13.942   0.106  13.774  0.5245 -0.9730  0.6267
50982SOL    HW270939  13.807   0.104  13.707  0.8426 -1.8719 -0.0119
50983SOL     OW70940  12.436   8.163   1.225  0.0632 -0.1463 -0.2366
50983SOL    HW170941  12.348   8.198   1.209  0.4160  0.1045 -1.8193
50983SOL    HW270942  12.487   8.240   1.251  1.0755  0.9503 -4.6505
50984SOL     OW70943   7.350   7.998   4.323  0.3424 -0.2498  0.2852
50984SOL    HW170944   7.434   8.004   4.368  0.7924 -0.3051 -0.5336
50984SOL    HW270945   7.296   8.065   4.365  1.0322  0.2972  0.3272
50985SOL     OW70946  11.399   9.022   6.174  0.1293  0.1263 -0.9066
50985SOL    HW170947  11.394   9.086   6.103 -0.0995  0.7174 -0.3668
50985SOL    HW270948  11.378   8.938   6.133 -0.5203  0.5429 -1.4298
50986SOL     OW70949   1.593   9.666  10.805  0.6370  0.4580 -0.3396
50986SOL    HW170950   1.661   9.732  10.813  0.3685  0.7507 -0.4441
50986SOL    HW270951   1.582   9.656  10.710  0.0403  0.9312 -0.3262
50987SOL     OW70952  13.188   9.237   5.351 -0.2765  0.1567 -0.2446
50987SOL    HW170953  13.206   9.268   5.262 -1.0942  1.9177  0.1642
50987SOL    HW270954  13.095   9.256   5.365 -0.4913 -1.3359  0.5258
50988SOL     OW70955   6.552   6.698   9.637  0.1982  0.1330 -0.3018
50988SOL    HW170956   6.630   6.643   9.633 -1.0314 -2.2404  3.1990
50988SOL    HW270957   6.570   6.759   9.709 -1.3336 -0.9118  1.0315
50989SOL     OW70958  13.958  10.985   3.028 -0.4314  0.3968  0.7348
50989SOL    HW170959  14.011  10.935   3.090 -0.5529  0.2332  0.7093
50989SOL    HW270960  13.874  10.938   3.026 -0.4878  0.5039  0.5813
50990SOL     OW70961   5.811  11.314   9.336  0.3369  0.3906 -0.1159
50990SOL    HW170962   5.827  11.297   9.429 -0.3132 -0.7552 -0.1906
50990SOL    HW270963   5.893  11.349   9.304  0.7516  0.2817  0.7765
50991SOL     OW70964   9.469   2.407   3.954  0.6328  1.0381  0.0602
50991SOL    HW170965   9.460   2.314   3.936 -1.3651  0.6643  2.3361
50991SOL    HW270966   9.560   2.427   3.936  0.8772 -1.1049 -1.4497
50992SOL     OW70967   1.468  10.384   7.130  0.3274 -0.0613  0.0637
50992SOL    HW170968   1.529  10.320   7.165 -0.6822 -0.4240  1.2345
50992SOL    HW270969   1.383  10.359   7.166 -0.8079 -0.3958 -2.5927
50993SOL     OW70970  10.266   1.013   4.491 -0.2282 -0.1915  0.1015
50993SOL    HW170971  10.286   1.076   4.422 -0.6861 -0.1985 -0.0450
50993SOL    HW270972  10.228   1.065   4.561  0.6888 -0.1164  0.5579
50994SOL     OW70973   7.377   1.615  13.640 -0.2001 -0.3385 -0.4452
50994SOL    HW170974   7.370   1.535  13.589 -2.1914  0.0889 -0.9498
50994SOL    HW270975   7.301   1.613  13.698  0.6035  0.4250  0.6752
50995SOL     OW70976   6.752   5.117   3.555  0.0700 -0.0620  1.0016
50995SOL    HW170977   6.834   5.149   3.517  0.8429 -1.8006  1.0857
50995SOL    HW270978   6.684   5.163   3.506  1.0652  1.4341  0.9238
50996SOL     OW70979   3.851   5.327   6.350  0.0118  0.4968  0.0956
50996SOL    HW170980   3.913   5.400   6.356  2.0004 -1.1483  0.3366
50996SOL    HW270981   3.846   5.292   6.439  0.7054 -0.9376 -0.4056
50997SOL     OW70982   8.000   9.462   9.576  0.4346 -0.3331 -0.1730
50997SOL    HW170983   8.063   9.406   9.622  0.8167 -1.3123 -1.7937
50997SOL    HW270984   7.915   9.422   9.596  0.2385  0.9971  2.0287
50998SOL     OW70985   8.861   0.646   5.415 -0.4199  0.5866 -0.4907
50998SOL    HW170986   8.912   0.664   5.494  1.4325 -0.7448 -1.3205
50998SOL    HW270987   8.887   0.715   5.354  0.5949 -0.2456 -1.0031
50999SOL     OW70988  13.773  12.277   9.452  0.7283  0.4723  0.4788
50999SOL    HW170989  13.678  12.270   9.456  0.7503 -0.1498  0.0436
50999SOL    HW270990  13.790  12.354   9.398  0.4774  1.2742  1.5050
51000SOL     OW70991  10.813  12.662   9.360 -0.7952 -0.2467  0.3378
51000SOL    HW170992  10.861  12.625   9.286  1.6896  0.3275  1.5370
51000SOL    HW270993  10.754  12.592   9.388 -0.7309 -0.9787 -1.2730
51001SOL     OW70994   8.406  10.775  10.782  0.4789 -0.9275 -0.6953
51001SOL    HW170995   8.318  10.806  10.764  1.5425  1.1762 -2.9190
51001SOL    HW270996   8.409  10.686  10.746 -0.6848 -0.9444 -0.7600
51002SOL     OW70997   5.146  13.156   4.821 -0.4525  0.1040  0.1417
51002SOL    HW170998   5.107  13.243   4.835 -0.3895  0.3086 -0.8752
51002SOL    HW270999   5.227  13.174   4.773 -0.1034 -0.4688  0.5149
51003SOL     OW71000   2.029   8.892   9.951  0.3261  0.3512 -0.1360
51003SOL    HW171001   2.091   8.834   9.907  0.2886 -0.7880  1.2606
51003SOL    HW271002   1.944   8.868   9.916  0.0846 -1.7425  1.6866
51004SOL     OW71003  11.230  11.726  11.366 -0.5001  0.2922 -0.6359
51004SOL    HW171004  11.283  11.759  11.293  1.5032 -0.0037  0.6166
51004SOL    HW271005  11.159  11.790  11.374  0.3341  1.3865 -1.6163
51005SOL     OW71006  10.292   7.819   1.375 -0.0022  0.3055 -0.2760
51005SOL    HW171007  10.333   7.851   1.456 -0.1063 -1.5852  0.5751
51005SOL    HW271008  10.199   7.839   1.385  0.2568  2.0821 -0.9722
51006SOL     OW71009  13.373  11.745   4.756 -0.0551 -0.4652 -0.2070
51006SOL    HW171010  13.406  11.658   4.774 -1.5082 -1.0087 -0.0382
51006SOL    HW271011  13.292  11.751   4.806 -0.5827  0.5452 -1.1414
51007SOL     OW71012  11.640   3.755   0.665 -0.2961 -0.3688 -0.1959
51007SOL    HW171013  11.642   3.848   0.685 -0.2800 -0.7913  2.1614
51007SOL    HW271014  11.718   3.739   0.613 -0.5037  0.9813 -0.9501
51008SOL     OW71015   5.695   2.809  11.728  0.5428 -0.1051 -0.2285
51008SOL    HW171016   5.632   2.739  11.747  0.2890 -0.4679 -2.1879
51008SOL    HW271017   5.642   2.889  11.728  0.9725  0.3035  2.8447
51009SOL     OW71018  12.054   2.226  11.995 -0.0491 -0.1906 -0.3769
51009SOL    HW171019  12.004   2.260  11.921 -1.2789  0.3121  0.6568
51009SOL    HW271020  12.100   2.302  12.030  1.2885 -0.6024 -1.1660
51010SOL     OW71021   6.809   3.718  10.227  0.3519  0.0253 -0.1961
51010SOL    HW171022   6.841   3.683  10.144 -0.0231  0.9033 -0.7333
51010SOL    HW271023   6.823   3.648  10.290 -2.0731 -1.8721 -1.5651
51011SOL     OW71024   7.994   3.850   4.348  0.2578 -0.2669  0.5833
51011SOL    HW171025   7.937   3.791   4.398 -0.0401 -0.6375 -0.1789
51011SOL    HW271026   8.073   3.799   4.331  0.3412 -0.1546  0.6259
51012SOL     OW71027   7.253   7.032   5.434  0.3034  0.0925 -0.4550
51012SOL    HW171028   7.239   7.124   5.456 -0.5823 -0.0349 -0.4709
51012SOL    HW271029   7.237   7.027   5.340 -0.9495 -0.3148 -0.2344
51013SOL     OW71030   3.095   0.308  10.992  0.2464 -0.8540 -0.1458
51013SOL    HW171031   3.088   0.245  11.063 -0.6740  0.9173  1.4267
51013SOL    HW271032   3.089   0.393  11.034 -0.5800  0.2841 -2.3585
51014SOL     OW71033   7.854   1.143  11.253  0.0299 -0.7362  0.3961
51014SOL    HW171034   7.849   1.162  11.159 -1.7946  4.0231  1.1852
51014SOL    HW271035   7.948   1.134  11.271  0.5449  0.0932 -1.6157
51015SOL     OW71036   9.661   5.090  10.736  0.2554 -0.3103 -0.2209
51015SOL    HW171037   9.699   5.025  10.677 -1.1962 -1.8099  0.4240
51015SOL    HW271038   9.579   5.050  10.766  0.4311  0.8383  1.9838
51016SOL     OW71039  10.786  10.987  10.661 -0.0261 -0.1797 -0.1865
51016SOL    HW171040  10.692  10.976  10.651 -0.2864  1.6223 -0.1372
51016SOL    HW271041  10.796  11.077  10.693  1.5887 -1.0172  1.9533
51017SOL     OW71042   9.640   7.363  12.204  0.0794 -0.5189 -0.2936
51017SOL    HW171043   9.661   7.278  12.164 -1.2004  0.1331 -2.5488
51017SOL    HW271044   9.725   7.405  12.216  0.7145 -1.9781  0.6008
51018SOL     OW71045   8.121   0.249  12.652  0.0830 -0.1860  0.1569
51018SOL    HW171046   8.126   0.310  12.579 -2.9640 -0.7458 -0.6557
51018SOL    HW271047   8.207   0.255  12.695  1.9456  0.2868 -3.3020
51019SOL     OW71048   1.609   1.149  11.051  0.4913  0.0472  0.2184
51019SOL    HW171049   1.668   1.107  11.113 -0.0194 -0.2363  0.5172
51019SOL    HW271050   1.652   1.232  11.029 -1.1539  2.1414  4.0337
51020SOL     OW71051  10.212   6.387   2.412 -0.5748  0.1652  0.1039
51020SOL    HW171052  10.156   6.458   2.381 -1.6827 -0.5963  0.2768
51020SOL    HW271053  10.256   6.422   2.489 -1.0311  0.6977  0.1242
51021SOL     OW71054  14.078   2.576   7.264  0.3244  0.2261  0.1805
51021SOL    HW171055  14.041   2.509   7.321  1.7338 -0.3573  0.4542
51021SOL    HW271056  14.036   2.562   7.179  0.6473 -1.0647  0.2138
51022SOL     OW71057   3.887   6.559   3.067 -0.4551 -0.1718  0.2573
51022SOL    HW171058   3.887   6.620   3.141  0.1165  0.0815  0.0525
51022SOL    HW271059   3.893   6.472   3.108 -0.8423 -0.0717  0.5307
51023SOL     OW71060   7.351  10.818   4.133  0.0141  0.3173 -0.4810
51023SOL    HW171061   7.341  10.739   4.080  0.5992 -0.0093 -0.1187
51023SOL    HW271062   7.389  10.786   4.215 -3.2737  0.3824  1.2263
51024SOL     OW71063   2.846  13.955   5.752 -0.1285 -0.1443  0.1358
51024SOL    HW171064   2.887  14.032   5.713  1.7810 -0.0240  2.2275
51024SOL    HW271065   2.752  13.977   5.755  0.1799  1.4254 -0.7034
51025SOL     OW71066   9.176  12.489   1.378  0.3315 -0.0237 -0.2779
51025SOL    HW171067   9.211  12.402   1.396 -1.7821 -0.7998  0.3508
51025SOL    HW271068   9.190  12.537   1.460  1.0123  0.0798 -0.4471
51026SOL     OW71069   3.921  10.907   0.865  0.0152 -0.4674  0.3469
51026SOL    HW171070   3.947  10.973   0.802 -1.1064  0.0852  0.4356
51026SOL    HW271071   3.917  10.825   0.815 -3.3325  0.3562 -1.0307
51027SOL     OW71072   1.364   1.651   1.548 -0.5118 -0.0938 -0.0138
51027SOL    HW171073   1.444   1.693   1.578  0.5238  0.1788 -2.8451
51027SOL    HW271074   1.310   1.723   1.515 -1.8658 -0.3021  1.6372
51028SOL     OW71075   1.937   4.094  13.194 -0.3832 -0.2403 -0.3044
51028SOL    HW171076   1.985   4.062  13.270 -1.9349  0.1458  0.9157
51028SOL    HW271077   1.909   4.015  13.148  0.1597 -0.4938 -0.2049
51029SOL     OW71078  12.421  13.645   6.037  0.3481  0.3533 -0.5961
51029SOL    HW171079  12.332  13.626   6.006  1.1248 -0.5857 -2.3504
51029SOL    HW271080  12.408  13.680   6.125 -1.7783  0.4629 -0.8980
51030SOL     OW71081  12.817  13.748   5.208 -0.3381 -0.0356  0.4876
51030SOL    HW171082  12.871  13.674   5.236 -0.1123 -0.0840 -0.0563
51030SOL    HW271083  12.789  13.725   5.119  0.6314  1.0001 -0.1210
51031SOL     OW71084   7.880   3.852   2.278  0.3598 -0.2935  0.4398
51031SOL    HW171085   7.791   3.867   2.246  0.4205 -1.8809 -0.5811
51031SOL    HW271086   7.937   3.888   2.210  0.5328  1.1412  1.3071
51032SOL     OW71087   0.737   8.759   5.714  0.8557 -0.2692 -0.9431
51032SOL    HW171088   0.681   8.746   5.791  0.7118 -0.6563 -1.1103
51032SOL    HW271089   0.768   8.849   5.722  1.6755 -0.6140  0.1194
51033SOL     OW71090   7.998  12.488   0.613 -0.2180  0.0335  0.3470
51033SOL    HW171091   7.991  12.394   0.596  1.4961  0.0649 -0.8091
51033SOL    HW271092   8.074  12.516   0.561 -0.0531  1.8663  1.4969
51034SOL     OW71093  12.956   7.793   6.151  0.0821  0.3712 -0.1767
51034SOL    HW171094  12.981   7.881   6.125 -1.7375  1.0691  0.3202
51034SOL    HW271095  12.979   7.738   6.076  2.3265  1.0173 -0.0454
51035SOL     OW71096  10.576   5.488   0.170 -0.5042 -0.0019 -0.1342
51035SOL    HW171097  10.568   5.555   0.102  1.0634 -0.0678 -0.4177
51035SOL    HW271098  10.532   5.525   0.246 -0.1521  1.1023 -0.4595
51036SOL     OW71099  11.525   6.420   2.168 -0.4746 -0.8234 -0.3711
51036SOL    HW171100  11.439   6.458   2.184 -0.9493 -0.4050 -3.3420
51036SOL    HW271101  11.531   6.415   2.073  2.4345 -1.7017 -0.2205
51037SOL     OW71102   1.901   3.940  12.808 -0.3271 -0.1870 -0.4513
51037SOL    HW171103   1.841   3.886  12.859 -0.6418 -0.6097 -1.2416
51037SOL    HW271104   1.860   4.026  12.805  1.0313  0.6951  2.3437
51038SOL     OW71105   6.753   1.271  12.456 -0.0937 -0.4705  0.5678
51038SOL    HW171106   6.805   1.327  12.399  0.7218  0.1284  1.8776
51038SOL    HW271107   6.816   1.211  12.496 -0.5716 -0.5301  1.2511
51039SOL     OW71108   8.704  10.317   8.134 -0.9128 -0.3196 -0.2517
51039SOL    HW171109   8.627  10.369   8.109 -1.5534 -1.5116 -0.8303
51039SOL    HW271110   8.670  10.251   8.194 -0.0451  0.1142  0.7332
51040SOL     OW71111   6.069   8.127   3.163  0.0442 -0.3033  0.0223
51040SOL    HW171112   6.001   8.190   3.137  0.3468  0.7148  1.5461
51040SOL    HW271113   6.021   8.046   3.182 -0.9547  0.7083  2.1626
51041SOL     OW71114  11.443   5.500   2.146 -0.0554 -0.0874  0.4057
51041SOL    HW171115  11.532   5.464   2.141  0.4198  1.1319 -0.2699
51041SOL    HW271116  11.428   5.513   2.240  1.1292  1.1823  0.4547
51042SOL     OW71117  13.626   8.123  12.292  0.5809 -0.3350  0.3091
51042SOL    HW171118  13.647   8.042  12.339 -0.1262 -0.9719 -0.4517
51042SOL    HW271119  13.575   8.174  12.354  0.6516 -0.6645  0.6419
51043SOL     OW71120  10.229  13.316   5.363  0.0454 -0.0796 -0.2672
51043SOL    HW171121  10.140  13.324   5.329  0.1911 -0.5562 -0.7719
51043SOL    HW271122  10.251  13.224   5.351 -0.1440 -0.4271  1.7638
51044SOL     OW71123   0.339   1.852   9.409 -0.1037  0.4170  0.2722
51044SOL    HW171124   0.320   1.858   9.502  1.3453  0.0994  0.6081
51044SOL    HW271125   0.434   1.860   9.403 -0.2905  2.1460 -1.3277
51045SOL     OW71126  12.508   6.694  12.229 -0.0917 -0.4610  0.9849
51045SOL    HW171127  12.446   6.733  12.167  0.9296  1.6140  1.1841
51045SOL    HW271128  12.456   6.678  12.308 -0.6910 -0.0673  0.6815
51046SOL     OW71129  13.370  13.414   1.076 -0.4731  0.0421  0.7454
51046SOL    HW171130  13.292  13.417   1.133 -1.0335 -0.6092  0.0349
51046SOL    HW271131  13.401  13.324   1.082 -2.1134 -0.8303 -1.9803
51047SOL     OW71132   8.146   9.588   8.494 -0.5921 -0.4810 -0.6366
51047SOL    HW171133   8.215   9.606   8.557 -0.8766  0.5045 -0.5951
51047SOL    HW271134   8.086   9.529   8.540 -1.1793  0.7908  0.3123
51048SOL     OW71135  11.558   4.977  12.669  0.4886  0.2727  0.0578
51048SOL    HW171136  11.599   4.946  12.588  2.6311 -0.3611  1.3315
51048SOL    HW271137  11.568   4.905  12.731 -2.7854 -0.0055  0.4477
51049SOL     OW71138   6.121   2.263   6.904 -0.4037  0.1787 -0.3376
51049SOL    HW171139   6.140   2.215   6.823 -1.8728  1.2986 -1.3841
51049SOL    HW271140   6.199   2.317   6.919 -0.5222  0.7251 -1.5892
51050SOL     OW71141  12.100   8.912   8.221  0.4236  0.0680  0.2053
51050SOL    HW171142  12.160   8.980   8.252 -1.5660  1.2612  1.7313
51050SOL    HW271143  12.028   8.960   8.180 -0.1692 -1.2089 -0.3084
51051SOL     OW71144   1.845  11.244   2.291 -0.1242 -0.0472 -0.1680
51051SOL    HW171145   1.806  11.164   2.257 -0.1133 -1.3224  2.5526
51051SOL    HW271146   1.923  11.258   2.238 -0.6378 -1.2731 -1.2988
51052SOL     OW71147   5.133   5.965   6.863 -0.4615 -0.2990  0.3069
51052SOL    HW171148   5.119   5.909   6.787  1.5642  0.4000 -0.6778
51052SOL    HW271149   5.171   6.045   6.826  0.9858 -0.0995  2.0654
51053SOL     OW71150   7.565   4.014  11.103 -0.0644 -0.1544 -0.8144
51053SOL    HW171151   7.642   4.066  11.080 -0.7521  0.9674 -0.6825
51053SOL    HW271152   7.591   3.923  11.087  1.6922  0.0790  0.4028
51054SOL     OW71153   6.970   7.340   0.444  0.2502 -0.6472 -0.1353
51054SOL    HW171154   6.949   7.304   0.530  0.5308 -0.8232 -0.1409
51054SOL    HW271155   7.029   7.276   0.405 -1.6415 -1.7009 -1.3845
51055SOL     OW71156   0.144   7.270  14.058 -0.5660  0.1967 -0.0416
51055SOL    HW171157   0.232   7.238  14.037 -0.0413  0.0397  2.1116
51055SOL    HW271158   0.093   7.191  14.073 -0.6077  0.2971  0.3620
51056SOL     OW71159   2.876   8.268   0.061  0.1426  0.4775 -0.0910
51056SOL    HW171160   2.882   8.363   0.049  0.6197  0.2591 -1.7491
51056SOL    HW271161   2.782   8.251   0.068  0.0805  1.1340  1.0347
51057SOL     OW71162   6.843   8.530   2.295  0.4126 -0.1339 -0.0258
51057SOL    HW171163   6.797   8.447   2.311 -0.1977  0.1816 -0.0823
51057SOL    HW271164   6.931   8.516   2.327  0.4905 -1.0127 -0.5922
51058SOL     OW71165  10.718   2.580   8.316  0.3189  0.0182  0.1016
51058SOL    HW171166  10.627   2.606   8.304  0.3175  1.6638  2.8359
51058SOL    HW271167  10.769   2.649   8.273  0.3414 -0.8682 -1.3705
51059SOL     OW71168   3.595   1.421   0.750  0.3711 -0.2436  0.3403
51059SOL    HW171169   3.543   1.359   0.698  2.2473 -0.5070 -1.3783
51059SOL    HW271170   3.531   1.474   0.796 -1.3526 -1.8548 -0.0785
51060SOL     OW71171  11.345   8.241   7.951  0.2724 -0.1171  0.5984
51060SOL    HW171172  11.425   8.197   7.978  2.1135  0.9443 -2.6421
51060SOL    HW271173  11.363   8.335   7.963 -0.8889  0.1074  0.7502
51061SOL     OW71174   3.012   4.471  13.221  0.5324  0.1833 -0.3779
51061SOL    HW171175   2.952   4.397  13.211  1.4664 -0.9596  1.8391
51061SOL    HW271176   2.959   4.547  13.198 -0.6970 -1.0536 -1.9154
51062SOL     OW71177   6.173   9.316   2.130 -0.0792 -0.0476 -0.0420
51062SOL    HW171178   6.189   9.263   2.208 -0.0223  0.7244  0.4925
51062SOL    HW271179   6.103   9.270   2.084  1.0343 -1.4139 -0.4316
51063SOL     OW71180  11.678  11.372  10.480 -0.0024 -0.1576 -1.0357
51063SOL    HW171181  11.686  11.441  10.546  0.5292  2.4095 -3.5831
51063SOL    HW271182  11.655  11.419  10.400  1.3811 -2.8564 -3.1659
51064SOL     OW71183   8.331  13.296   1.183  0.4319  0.1637 -0.3625
51064SOL    HW171184   8.346  13.202   1.186  0.5529  0.2053  0.6334
51064SOL    HW271185   8.250  13.306   1.133 -0.7474 -0.6304  1.2779
51065SOL     OW71186   7.251   9.057   5.294 -0.4777  0.4416  0.6033
51065SOL    HW171187   7.240   9.152   5.307  0.8776  0.5526  1.0959
51065SOL    HW271188   7.329   9.035   5.344  0.1599 -0.6645 -0.8105
51066SOL     OW71189   9.281   0.275  10.212  0.1077 -0.7730 -0.8682
51066SOL    HW171190   9.266   0.286  10.306  1.9556 -0.2672 -0.5929
51066SOL    HW271191   9.228   0.344  10.171 -1.4589 -1.5958 -0.2909
51067SOL     OW71192  12.690  11.712  13.935  0.0488 -0.3732 -0.3488
51067SOL    HW171193  12.732  11.797  13.920 -0.9571 -0.1228 -1.9872
51067SOL    HW271194  12.619  11.731  13.996  0.8600 -0.3809  0.6291
51068SOL     OW71195  12.992   3.986   0.214 -0.2681  0.0463 -0.2846
51068SOL    HW171196  12.982   3.892   0.224 -1.0263 -0.1187 -2.2198
51068SOL    HW271197  13.085   4.002   0.228 -0.2801 -0.8328  0.9497
51069SOL     OW71198   9.981  13.294   3.473  0.4051 -0.0851 -0.0813
51069SOL    HW171199   9.999  13.312   3.381 -0.0063 -1.2468 -0.4080
51069SOL    HW271200   9.974  13.198   3.478  0.7947 -0.0617  1.2295
51070SOL     OW71201   8.726  10.505  10.244 -0.1339  0.3138 -0.4655
51070SOL    HW171202   8.752  10.588  10.284  0.6800  0.2371 -0.8120
51070SOL    HW271203   8.718  10.444  10.318  0.7175  0.3361 -0.3427
51071SOL     OW71204   0.908   9.851   7.622  0.0240 -0.4883 -0.2800
51071SOL    HW171205   0.890   9.943   7.638  0.8755 -0.5259  1.0297
51071SOL    HW271206   1.003   9.847   7.609 -0.0839 -1.0963 -0.9454
51072SOL     OW71207   8.986   8.120  10.004  0.2037  0.0912  0.2640
51072SOL    HW171208   8.918   8.168  10.052  1.1094  0.7259  0.9353
51072SOL    HW271209   9.058   8.182   9.994  0.6929 -0.5653 -0.4536
51073SOL     OW71210   0.248   4.843   8.070  0.3472  0.8437 -0.1722
51073SOL    HW171211   0.304   4.767   8.053  1.0711  1.2553  0.3267
51073SOL    HW271212   0.308   4.917   8.073 -0.0416  1.1263  1.6610
51074SOL     OW71213   7.264   3.572   0.199  0.3649 -0.6088  0.4034
51074SOL    HW171214   7.307   3.601   0.118 -0.6312  1.5109  0.5747
51074SOL    HW271215   7.181   3.535   0.171  1.5469 -3.4109  0.2045
51075SOL     OW71216  10.894  12.608   8.022 -0.2929 -0.3165 -0.4116
51075SOL    HW171217  10.925  12.619   7.932  2.5148 -1.2011  0.3467
51075SOL    HW271218  10.961  12.650   8.076 -1.5755 -0.3826  1.3234
51076SOL     OW71219   1.133   8.985   8.145 -0.1897  0.1359 -0.3294
51076SOL    HW171220   1.179   8.927   8.206  0.8212 -0.0492 -1.2386
51076SOL    HW271221   1.169   9.072   8.164  0.4651  0.0122 -0.9405
51077SOL     OW71222  12.606   7.163   1.319 -0.3997  0.0229 -0.3076
51077SOL    HW171223  12.689   7.204   1.341 -0.3797 -0.2319  0.1028
51077SOL    HW271224  12.594   7.095   1.386 -0.3445 -0.7644 -1.0816
51078SOL     OW71225  14.156  13.501   4.259  0.5173  0.4344 -0.0821
51078SOL    HW171226  14.171  13.436   4.190 -2.0400  0.0266 -0.3544
51078SOL    HW271227  14.151  13.584   4.212  1.2270  0.4834 -0.0705
51079SOL     OW71228   1.554   1.246   7.585 -0.4030  0.5958  0.0864
51079SOL    HW171229   1.531   1.330   7.624 -0.6825  0.1869  0.8052
51079SOL    HW271230   1.473   1.195   7.589 -0.1198  0.1427  0.0433
51080SOL     OW71231  10.859  13.464  12.886 -0.5628  0.0414 -0.1934
51080SOL    HW171232  10.867  13.464  12.790 -1.2869 -2.3673 -0.3048
51080SOL    HW271233  10.950  13.464  12.917 -0.2925 -0.8108 -0.9293
51081SOL     OW71234   0.510   3.495  13.411  0.0139 -0.2965 -0.9342
51081SOL    HW171235   0.499   3.548  13.332 -0.6296 -0.7266 -1.1413
51081SOL    HW271236   0.479   3.408  13.386 -2.5512  0.1246  0.4768
51082SOL     OW71237   0.864  12.233   3.651 -0.1940 -0.5473 -0.1508
51082SOL    HW171238   0.905  12.309   3.610  0.6446 -1.1770 -0.5055
51082SOL    HW271239   0.930  12.198   3.710 -0.7439 -0.7355  0.3737
51083SOL     OW71240   7.406  13.462   6.632  0.6369  0.3166 -0.0442
51083SOL    HW171241   7.359  13.379   6.630  0.3979  0.4609 -1.4224
51083SOL    HW271242   7.467  13.453   6.705 -0.7913 -0.2677  1.1215
51084SOL     OW71243  10.462  10.476   8.095 -0.4074 -0.1790 -0.1537
51084SOL    HW171244  10.490  10.532   8.167 -1.6588 -0.5188  0.6254
51084SOL    HW271245  10.477  10.387   8.128 -1.1779 -0.3378 -0.2187
51085SOL     OW71246   4.583  13.345  11.626  0.4733  0.5165  0.2535
51085SOL    HW171247   4.573  13.250  11.622  0.8427  0.5075 -2.3781
51085SOL    HW271248   4.496  13.377  11.651 -0.0684 -0.4845 -0.2703
51086SOL     OW71249   0.348   3.933  11.066  0.2930 -0.0797 -0.1900
51086SOL    HW171250   0.413   3.917  11.135  1.2419 -1.1880 -1.2804
51086SOL    HW271251   0.275   3.876  11.088  0.7807 -0.7694 -0.3201
51087SOL     OW71252  11.529  10.025  10.793  0.3551  0.3197 -0.2308
51087SOL    HW171253  11.540  10.093  10.859 -0.3096  0.3257 -0.1124
51087SOL    HW271254  11.435  10.007  10.794  0.2673  0.6000 -1.4444
51088SOL     OW71255  11.528   5.108   0.569 -0.4805  0.1151  0.0852
51088SOL    HW171256  11.525   5.201   0.592  2.5596 -0.0110  1.5994
51088SOL    HW271257  11.557   5.065   0.650 -1.0114 -2.0399 -0.8151
51089SOL     OW71258  12.779   6.820   0.463 -0.2012  0.4108  0.0441
51089SOL    HW171259  12.740   6.737   0.490  0.8192  0.1833  0.9190
51089SOL    HW271260  12.849   6.794   0.403  0.5677  0.5621  0.8499
51090SOL     OW71261   7.617   9.867   7.563  0.5322  0.2538 -0.6182
51090SOL    HW171262   7.528   9.859   7.597  1.1377  0.0122  0.9838
51090SOL    HW271263   7.618   9.812   7.485 -0.9369  0.9152 -1.1287
51091SOL     OW71264   5.244   3.951   8.410 -0.1778  0.2914 -0.2617
51091SOL    HW171265   5.213   3.922   8.324  0.7803  1.1730 -0.9373
51091SOL    HW271266   5.186   4.024   8.433 -0.6150 -0.1286 -0.0198
51092SOL     OW71267  13.690   7.163  11.480 -0.1835  0.3724  0.5480
51092SOL    HW171268  13.668   7.199  11.395  0.3789  2.0013  1.0524
51092SOL    HW271269  13.606   7.140  11.520 -0.5051  0.4383 -0.0882
51093SOL     OW71270   9.680  10.375   5.680  0.0444  0.2311  0.5484
51093SOL    HW171271   9.711  10.290   5.712 -1.2432 -0.2083  0.6706
51093SOL    HW271272   9.590  10.359   5.652 -1.1504  2.0806  2.9758
51094SOL     OW71273   2.237   8.248   4.923 -0.5993 -0.3270 -0.0928
51094SOL    HW171274   2.316   8.248   4.868  0.2270  0.7847  1.0361
51094SOL    HW271275   2.168   8.280   4.865 -0.0021 -0.2667 -0.7947
51095SOL     OW71276  12.504   2.178   0.666 -0.8136  0.8132  0.2712
51095SOL    HW171277  12.447   2.101   0.674  0.1734  0.0882  0.5639
51095SOL    HW271278  12.468   2.227   0.592 -1.2643 -0.0999 -0.1337
51096SOL     OW71279  10.852  13.931   3.515 -0.0624  0.1333  0.2564
51096SOL    HW171280  10.913  13.933   3.590  0.4228  0.9530 -0.1544
51096SOL    HW271281  10.883  13.857   3.462 -0.1494 -0.1865  0.6427
51097SOL     OW71282  12.371  13.036  11.274  0.1869 -0.2569  0.1726
51097SOL    HW171283  12.351  13.011  11.184 -1.6824  0.2359  0.3982
51097SOL    HW271284  12.463  13.062  11.272  1.2624 -3.6815 -0.8002
51098SOL     OW71285  11.761   1.904   6.300 -0.2030  0.3931 -0.4648
51098SOL    HW171286  11.715   1.833   6.345 -0.1702  1.6126  1.5884
51098SOL    HW271287  11.853   1.882   6.308 -0.2179  0.3644 -0.3722
51099SOL     OW71288  13.066   2.837   5.181  0.3484  0.2354  0.0907
51099SOL    HW171289  13.100   2.748   5.190 -0.9253 -0.1953  0.9597
51099SOL    HW271290  13.102   2.868   5.098  0.0041 -1.4697 -0.7477
51100SOL     OW71291   5.781   7.073   1.595 -0.5413 -0.4102 -0.2697
51100SOL    HW171292   5.725   7.135   1.547  1.8956  0.4653 -2.1839
51100SOL    HW271293   5.758   6.987   1.559 -0.6519 -0.0562 -1.0786
51101SOL     OW71294   5.789   6.128  12.314 -0.1130  0.1437 -0.1019
51101SOL    HW171295   5.838   6.196  12.268  0.2300 -1.2585 -1.9536
51101SOL    HW271296   5.711   6.114  12.260  0.3326 -1.6124 -0.3534
51102SOL     OW71297   2.292   2.079   8.584  0.0160  0.3386  0.7297
51102SOL    HW171298   2.361   2.128   8.629  1.0946  0.1184 -0.6109
51102SOL    HW271299   2.267   2.135   8.510  0.4561 -0.5884 -0.1537
51103SOL     OW71300   4.800   7.091  11.145 -0.2998 -0.2909  0.5896
51103SOL    HW171301   4.747   7.133  11.213  0.8304  1.6253  0.3501
51103SOL    HW271302   4.801   6.998  11.170 -1.6917  0.0164  1.9600
51104SOL     OW71303   2.644   0.539  12.143 -0.1225 -0.0883  0.1928
51104SOL    HW171304   2.738   0.527  12.130 -0.3750 -0.2083 -1.8401
51104SOL    HW271305   2.605   0.454  12.124 -0.5759 -0.5523  2.7306
51105SOL     OW71306  13.705  12.635   6.379 -0.1722 -0.0555  0.1594
51105SOL    HW171307  13.677  12.555   6.334  0.8525 -0.7297  0.6990
51105SOL    HW271308  13.658  12.634   6.462  1.4872 -1.2795  1.1427
51106SOL     OW71309   4.684   3.801  11.105  0.2129  0.3502  0.3554
51106SOL    HW171310   4.771   3.808  11.145  0.2086  1.4296  0.1899
51106SOL    HW271311   4.698   3.823  11.013 -0.0248 -0.7505  0.0376
51107SOL     OW71312  11.072   4.923   4.946 -0.3247 -0.0520  0.6665
51107SOL    HW171313  10.999   4.900   4.890 -0.4060  0.7032  0.4585
51107SOL    HW271314  11.145   4.937   4.886 -0.2412  0.0984  0.8026
51108SOL     OW71315  12.642  10.940  11.999 -0.0955  0.2377 -0.2925
51108SOL    HW171316  12.653  10.895  12.083 -1.0448 -1.4023 -0.9956
51108SOL    HW271317  12.677  10.879  11.934 -3.3044 -0.5065 -1.5070
51109SOL     OW71318  11.979   7.885   6.324 -0.3568  0.3495 -0.9055
51109SOL    HW171319  11.955   7.952   6.388 -1.6921 -0.0071 -0.9903
51109SOL    HW271320  11.900   7.831   6.315  0.8568 -1.6337 -0.3803
51110SOL     OW71321  10.635   9.890  11.049 -0.1509 -0.0645  0.1582
51110SOL    HW171322  10.683   9.953  10.996  0.7413 -0.8567 -0.0196
51110SOL    HW271323  10.563   9.861  10.994  0.3320 -0.3225 -0.3469
51111SOL     OW71324   6.588  12.713   7.133  0.1020 -0.1015 -0.4533
51111SOL    HW171325   6.589  12.630   7.085  1.5580 -0.6264  0.4118
51111SOL    HW271326   6.676  12.720   7.169 -0.3522  1.2692  0.4407
51112SOL     OW71327   9.304   2.363   4.537 -0.5016  0.1744 -0.4213
51112SOL    HW171328   9.304   2.449   4.580 -0.2331  0.2995 -0.6678
51112SOL    HW271329   9.394   2.353   4.505 -0.4899 -0.2699 -0.2564
51113SOL     OW71330   4.324   9.848   2.365 -0.1767  1.0650  0.4776
51113SOL    HW171331   4.276   9.926   2.337 -1.4886  0.8546  1.9918
51113SOL    HW271332   4.257   9.780   2.372  0.5633  0.4032  1.3789
51114SOL     OW71333   6.078  11.969   6.679 -0.1080 -0.7803  0.3669
51114SOL    HW171334   6.051  12.053   6.717 -0.2675 -0.8035  0.3053
51114SOL    HW271335   6.022  11.958   6.602 -1.5776 -1.9486  1.5413
51115SOL     OW71336   4.086  11.303   8.187  0.7768  0.1172  0.5766
51115SOL    HW171337   4.179  11.309   8.209  0.9883  0.4843 -0.3844
51115SOL    HW271338   4.041  11.339   8.264  1.4411  0.2722  0.9000
51116SOL     OW71339   9.584   8.075   9.275 -0.0289  0.1413 -0.1462
51116SOL    HW171340   9.619   8.154   9.316  0.4640  0.6942 -1.5696
51116SOL    HW271341   9.592   8.091   9.181 -1.5984 -0.8685 -0.4868
51117SOL     OW71342   6.074   9.559   4.048  0.3603  0.5290 -0.3852
51117SOL    HW171343   6.045   9.473   4.019  1.9135 -0.2980  0.3618
51117SOL    HW271344   5.994   9.610   4.055 -1.1940 -1.9621  2.8231
51118SOL     OW71345   5.888   6.169   1.855  0.1449 -0.1220  0.2989
51118SOL    HW171346   5.933   6.086   1.839 -1.1590 -1.4745  2.9947
51118SOL    HW271347   5.804   6.160   1.809  0.1222 -0.1790  0.3514
51119SOL     OW71348   6.482   4.202   6.760 -0.4641  0.2907 -0.0882
51119SOL    HW171349   6.392   4.181   6.736 -0.9253  1.6943  0.3412
51119SOL    HW271350   6.479   4.293   6.787  0.9719  0.1706  0.5552
51120SOL     OW71351  11.212   7.653   9.301 -0.2901  0.2529 -0.6644
51120SOL    HW171352  11.258   7.587   9.353 -0.6272  0.5020 -0.0389
51120SOL    HW271353  11.282   7.701   9.257  0.0740  0.7763  0.4516
51121SOL     OW71354   4.407   1.951  13.493  0.1398 -0.0275 -0.1974
51121SOL    HW171355   4.405   1.959  13.588  1.0651 -1.4112 -0.0327
51121SOL    HW271356   4.415   1.857  13.476  0.9192  0.2488 -1.6035
51122SOL     OW71357   7.737   8.503   6.406  0.3696 -0.2372 -0.1350
51122SOL    HW171358   7.689   8.530   6.484  0.1026 -0.8849 -0.0620
51122SOL    HW271359   7.730   8.577   6.346 -0.8648 -0.3622 -0.1881
51123SOL     OW71360   8.605   2.697   4.155 -0.1591  0.2504 -0.7289
51123SOL    HW171361   8.527   2.656   4.193  0.5804 -0.6545 -0.1560
51123SOL    HW271362   8.637   2.756   4.222  1.5343 -1.8410  0.4493
51124SOL     OW71363   9.994   2.801   9.277  0.6373 -0.1204  0.3400
51124SOL    HW171364  10.089   2.808   9.265  0.2563  0.2729 -3.5977
51124SOL    HW271365   9.968   2.729   9.219 -1.6931  1.2308 -0.4290
51125SOL     OW71366   8.477   7.444  11.381  0.4410  0.6613 -0.6034
51125SOL    HW171367   8.436   7.414  11.299  1.0714  1.0457 -1.0665
51125SOL    HW271368   8.523   7.524  11.357  2.3233 -0.2936 -0.3245
51126SOL     OW71369   4.523  13.601  13.881 -0.1160 -0.3798  0.4022
51126SOL    HW171370   4.530  13.658  13.958 -0.3613  0.0734  0.0913
51126SOL    HW271371   4.569  13.649  13.812 -1.9799  0.3676 -0.3756
51127SOL     OW71372   2.349   3.038  13.357  0.5197 -0.3744  0.5882
51127SOL    HW171373   2.406   3.111  13.384  0.4683 -0.7232  1.6683
51127SOL    HW271374   2.280   3.080  13.305  0.3412  0.3893  1.4124
51128SOL     OW71375   6.368   9.840   1.232 -0.5448  0.2404 -0.4323
51128SOL    HW171376   6.346   9.759   1.186  0.7324 -0.4785  0.1335
51128SOL    HW271377   6.285   9.875   1.262 -1.2160 -0.2939 -1.6066
51129SOL     OW71378   1.528   5.730   4.349  0.4581 -0.3841 -0.4780
51129SOL    HW171379   1.538   5.746   4.442  0.1318 -1.5822 -0.2264
51129SOL    HW271380   1.602   5.777   4.308  0.3530  0.5020  0.3253
51130SOL     OW71381   6.449   8.527  11.614  0.2985  0.0049  0.5901
51130SOL    HW171382   6.513   8.463  11.645  1.3857  1.1043  0.6940
51130SOL    HW271383   6.370   8.476  11.596  1.2590 -1.4043  0.2863
51131SOL     OW71384   6.116  13.654  13.488 -0.0575  0.5958 -0.1359
51131SOL    HW171385   6.049  13.676  13.424 -1.2832  0.0724  0.9259
51131SOL    HW271386   6.103  13.562  13.507  2.1715 -0.0185 -1.2460
51132SOL     OW71387   7.960   4.393  10.978  0.3679 -0.0895  0.0750
51132SOL    HW171388   8.015   4.357  10.909  0.2372  0.7924 -0.5174
51132SOL    HW271389   7.924   4.317  11.024  1.6433 -0.6782  0.1273
51133SOL     OW71390  11.213   1.578   9.630  0.0092  0.2569  0.7906
51133SOL    HW171391  11.223   1.673   9.625 -1.1091  0.4663  2.0183
51133SOL    HW271392  11.293   1.543   9.591  0.4291  1.6956  0.3073
51134SOL     OW71393  13.638   2.007   8.444 -0.0178  0.6204  0.3840
51134SOL    HW171394  13.600   1.930   8.401 -1.3373  2.0878 -1.2610
51134SOL    HW271395  13.728   1.981   8.464 -0.0790 -0.9937 -1.1229
51135SOL     OW71396   0.865   6.650  13.002 -0.1110 -0.0920  0.1971
51135SOL    HW171397   0.917   6.584  13.046 -0.3637 -0.8898 -0.6767
51135SOL    HW271398   0.863   6.623  12.910 -0.3798  1.0161 -0.1458
51136SOL     OW71399   6.730  11.335  10.494 -0.5463 -0.4903 -0.7594
51136SOL    HW171400   6.675  11.345  10.416  1.2092 -4.3086 -2.7702
51136SOL    HW271401   6.819  11.354  10.464  0.1268 -1.7358  0.3496
51137SOL     OW71402  10.972   0.953  10.711 -0.2629  0.2168  0.2175
51137SOL    HW171403  10.903   0.952  10.644 -0.4489  0.5857  0.3989
51137SOL    HW271404  10.960   1.036  10.757 -0.7531 -0.4670  1.3618
51138SOL     OW71405   6.567  10.943   8.810 -0.4578  0.3876 -0.2259
51138SOL    HW171406   6.543  10.991   8.890 -1.6948  0.0417 -0.3617
51138SOL    HW271407   6.662  10.947   8.808 -0.4004  0.5193  1.2037
51139SOL     OW71408   3.154  11.814   1.291 -0.0697  0.0463 -0.4555
51139SOL    HW171409   3.174  11.858   1.374 -1.0532 -0.1937 -0.0779
51139SOL    HW271410   3.221  11.747   1.282 -0.4034 -0.4309  0.5403
51140SOL     OW71411   3.241   6.715  11.979  0.0483 -0.0544  0.2612
51140SOL    HW171412   3.287   6.643  11.936  0.3048 -0.5266  1.3173
51140SOL    HW271413   3.175   6.742  11.915  1.7641  0.6562 -1.3146
51141SOL     OW71414   8.211   0.972  10.045  0.3993  0.2972  0.2925
51141SOL    HW171415   8.225   0.910   9.973  0.3922 -0.5326  0.9904
51141SOL    HW271416   8.296   1.014  10.057  0.8847 -0.8342  0.9493
51142SOL     OW71417   6.969   6.222  11.292 -0.3923 -0.0337  0.6806
51142SOL    HW171418   7.005   6.241  11.378  0.8026 -1.3333  0.5052
51142SOL    HW271419   7.037   6.250  11.230 -0.3005 -1.0844  0.2777
51143SOL     OW71420   1.129   2.553   8.893 -0.7420 -0.1542 -0.3423
51143SOL    HW171421   1.097   2.643   8.883  0.6493  0.2084 -2.0857
51143SOL    HW271422   1.077   2.502   8.830 -2.1966 -0.8051  1.3180
51144SOL     OW71423  12.449   0.533   4.354  0.7928 -0.4063 -0.7675
51144SOL    HW171424  12.531   0.558   4.395  1.6907 -1.3830 -1.8909
51144SOL    HW271425  12.473   0.465   4.291 -0.9363 -1.0462 -0.8066
51145SOL     OW71426   1.915   9.642   1.035  0.1884  0.1516 -0.7779
51145SOL    HW171427   1.934   9.723   1.083 -2.2271 -1.3784  3.3771
51145SOL    HW271428   1.836   9.662   0.985 -1.0984  0.2358  1.1465
51146SOL     OW71429   5.525  12.446   5.784 -0.2670  0.3721 -0.2160
51146SOL    HW171430   5.493  12.520   5.836 -0.4168 -0.5573  1.0493
51146SOL    HW271431   5.445  12.405   5.751 -0.3759 -0.9892  1.6046
51147SOL     OW71432   5.535   6.418   9.712 -0.6579  0.2966 -0.0356
51147SOL    HW171433   5.624   6.448   9.730  0.9500 -1.9260 -3.2825
51147SOL    HW271434   5.481   6.496   9.723  1.7638  1.9453  1.2349
51148SOL     OW71435   1.525   6.588  11.191 -0.0820 -0.3647 -0.1218
51148SOL    HW171436   1.519   6.617  11.100 -1.0002  1.4543  0.4714
51148SOL    HW271437   1.436   6.598  11.225  0.2099 -1.1774  0.9359
51149SOL     OW71438  12.874   1.679  13.066  0.2120  0.3156 -0.1053
51149SOL    HW171439  12.863   1.586  13.049  0.8932 -0.0784  1.4467
51149SOL    HW271440  12.911   1.714  12.985  1.7883 -1.1402 -0.0734
51150SOL     OW71441   3.146   5.148  11.012 -0.0757 -0.1295 -0.7868
51150SOL    HW171442   3.231   5.109  10.992  0.8756  0.8972  0.9828
51150SOL    HW271443   3.162   5.199  11.091 -2.1348  0.8613 -0.9615
51151SOL     OW71444  10.816  11.559   7.531  0.1634 -0.7600  0.5184
51151SOL    HW171445  10.759  11.483   7.544  0.1329 -1.0695 -1.1480
51151SOL    HW271446  10.807  11.610   7.611  0.5160 -2.7102  1.8733
51152SOL     OW71447  10.798   9.015  12.693  0.3858 -0.8752  0.3089
51152SOL    HW171448  10.715   8.973  12.716  1.3573 -1.8793  2.2313
51152SOL    HW271449  10.835   9.044  12.776  1.2751  0.9735 -0.6583
51153SOL     OW71450  12.101   3.190   2.773  0.3096  0.1832 -0.8815
51153SOL    HW171451  12.039   3.247   2.728 -0.1778  0.2621 -0.1280
51153SOL    HW271452  12.082   3.102   2.738  0.0616  0.2657 -0.9564
51154SOL     OW71453   9.697   1.130  12.131  0.4650 -0.5138 -0.1748
51154SOL    HW171454   9.675   1.107  12.041  1.3261  0.6840 -0.7151
51154SOL    HW271455   9.734   1.218  12.125  0.0302 -0.1812  1.4199
51155SOL     OW71456   3.816  13.069   9.723 -0.0863 -0.2270  0.6901
51155SOL    HW171457   3.745  13.059   9.786 -0.6535  1.5579  0.3753
51155SOL    HW271458   3.818  13.162   9.703  1.7849 -0.3697  0.0176
51156SOL     OW71459  10.759   2.700   0.538  0.2497 -0.2780 -0.2226
51156SOL    HW171460  10.820   2.752   0.590  0.6308  0.7691 -1.6580
51156SOL    HW271461  10.678   2.700   0.588  0.5187  0.9392  0.2500
51157SOL     OW71462   3.551   2.976   7.812  0.5530 -0.2766 -0.2632
51157SOL    HW171463   3.602   2.945   7.887  1.2129 -1.0867 -1.0198
51157SOL    HW271464   3.610   2.967   7.737  0.4168  1.9100 -0.6923
51158SOL     OW71465   8.152  10.604   4.559 -0.3542  0.0015 -0.1425
51158SOL    HW171466   8.218  10.643   4.616 -0.1677 -0.9845  0.3300
51158SOL    HW271467   8.196  10.597   4.474 -0.1356  0.1155 -0.0419
51159SOL     OW71468  10.241  12.330   6.244  0.4235  0.1834 -0.4946
51159SOL    HW171469  10.235  12.425   6.258 -4.1062 -0.1895  2.3808
51159SOL    HW271470  10.301  12.300   6.312  0.2213  0.8590 -0.0017
51160SOL     OW71471  12.745   7.329   7.806  0.2429 -0.0215  0.1792
51160SOL    HW171472  12.654   7.305   7.793 -0.0086  0.2552  1.2984
51160SOL    HW271473  12.781   7.258   7.859  0.3468  0.4735  0.7785
51161SOL     OW71474   9.049   0.145   8.299  0.2052 -0.2934 -0.2212
51161SOL    HW171475   9.020   0.063   8.339 -2.7582  0.5775 -0.3713
51161SOL    HW271476   9.145   0.141   8.302  0.1221 -2.6957  1.8705
51162SOL     OW71477   5.911   0.719  12.950 -0.1983  0.2285  0.0895
51162SOL    HW171478   5.885   0.811  12.962  2.2445  0.8633  1.1324
51162SOL    HW271479   5.933   0.690  13.039  1.0047 -0.7192 -0.5051
51163SOL     OW71480   6.828   6.502   2.230  0.1140  0.5624 -0.1122
51163SOL    HW171481   6.878   6.547   2.162  0.5404  2.5317  1.3863
51163SOL    HW271482   6.737   6.526   2.212 -0.1464 -1.4213 -1.7007
51164SOL     OW71483   0.357   7.625  12.628 -0.1351 -0.3534 -0.2498
51164SOL    HW171484   0.358   7.651  12.720  0.7257  0.5167 -0.4944
51164SOL    HW271485   0.356   7.529  12.630  1.4408 -0.3735  0.6693
51165SOL     OW71486  13.886   3.926   4.437 -0.1008  0.6047 -0.3721
51165SOL    HW171487  13.832   3.948   4.361 -1.2541  1.6453  0.6845
51165SOL    HW271488  13.894   3.831   4.435  1.3877  0.7101 -2.7399
51166SOL     OW71489   6.660  12.107   0.980  0.2556  0.1291  0.3409
51166SOL    HW171490   6.620  12.156   1.052 -0.3898 -0.7387  0.5922
51166SOL    HW271491   6.647  12.016   1.003  2.1660 -0.1923  0.2864
51167SOL     OW71492  13.750   0.973  10.558 -0.0771  0.1382 -0.0925
51167SOL    HW171493  13.780   0.891  10.521  1.7675  0.2092  1.1251
51167SOL    HW271494  13.680   0.948  10.619  0.2603 -0.5009  0.0392
51168SOL     OW71495   9.196   4.823  12.841  0.3626  0.4490  0.0251
51168SOL    HW171496   9.236   4.873  12.912  0.4273  1.8807 -0.9720
51168SOL    HW271497   9.191   4.885  12.768 -1.6673 -0.3201 -0.5716
51169SOL     OW71498  13.717  10.101  13.508  0.3883  0.5841 -0.1381
51169SOL    HW171499  13.664  10.033  13.548 -1.1705  0.4280 -2.3126
51169SOL    HW271500  13.765  10.057  13.438  0.6139  1.3917 -0.5138
51170SOL     OW71501   8.320   7.077   8.273  0.0572 -0.1475 -0.2186
51170SOL    HW171502   8.276   7.156   8.304 -1.1954 -0.4313 -1.1879
51170SOL    HW271503   8.377   7.050   8.345 -0.3436  1.0054  0.5375
51171SOL     OW71504  13.347   0.456   3.010 -0.4980 -0.3856 -0.2578
51171SOL    HW171505  13.252   0.453   3.018 -0.4655 -0.2996  0.1993
51171SOL    HW271506  13.375   0.365   3.010 -0.6467 -0.4516 -1.3460
51172SOL     OW71507  13.599   2.355   6.880  0.2731 -0.1145 -0.2172
51172SOL    HW171508  13.543   2.326   6.952  0.6682  0.9956  0.5612
51172SOL    HW271509  13.636   2.274   6.845 -1.1039 -0.7903 -0.1674
51173SOL     OW71510  12.530  12.956   7.548 -0.0274  0.1977 -0.0835
51173SOL    HW171511  12.615  12.914   7.553 -0.5653 -0.9506 -0.3391
51173SOL    HW271512  12.537  13.031   7.608  0.5581 -0.9522  1.3460
51174SOL     OW71513   2.234   4.644   9.457  0.2510  0.0010  0.8822
51174SOL    HW171514   2.150   4.636   9.411  1.3177  1.2172 -1.4796
51174SOL    HW271515   2.237   4.568   9.515 -1.2627 -1.6534 -1.0538
51175SOL     OW71516  14.131   1.826   6.840 -0.2387  0.1618  0.0893
51175SOL    HW171517  14.098   1.878   6.913  0.1040  2.5310 -1.3249
51175SOL    HW271518  14.226   1.837   6.842  0.1125 -2.3858  1.0869
51176SOL     OW71519   3.957   8.910   0.775  0.3216 -0.4920  0.1464
51176SOL    HW171520   3.908   8.964   0.713 -0.6606  1.3881  2.4076
51176SOL    HW271521   4.034   8.963   0.797 -0.3293 -0.2136  1.9220
51177SOL     OW71522  10.833   8.740   7.661 -0.4851  0.5937 -0.2062
51177SOL    HW171523  10.866   8.810   7.717 -1.2104 -0.1860  1.2476
51177SOL    HW271524  10.741   8.762   7.646 -0.4679  0.4481 -0.5466
51178SOL     OW71525  11.474   3.222  11.425 -0.1453  0.4876 -0.2024
51178SOL    HW171526  11.442   3.131  11.431 -1.0279  0.8260  0.4521
51178SOL    HW271527  11.567   3.216  11.447 -0.7166  0.0581  2.4681
51179SOL     OW71528   6.937   2.738   7.789 -0.2142  0.3480  0.5602
51179SOL    HW171529   6.951   2.818   7.841  1.4242  0.6440 -0.2598
51179SOL    HW271530   6.856   2.754   7.741 -0.2690  1.2261  0.9259
51180SOL     OW71531   4.123   4.205   6.510 -0.0654 -0.3148  0.1025
51180SOL    HW171532   4.129   4.131   6.449 -2.8176 -0.5356 -0.0278
51180SOL    HW271533   4.125   4.283   6.454  2.0898 -0.2536  0.1828
51181SOL     OW71534   8.167  12.455  13.073  0.0004 -0.4916 -0.2665
51181SOL    HW171535   8.244  12.509  13.087  0.0268 -0.7106  0.4840
51181SOL    HW271536   8.183  12.376  13.126 -0.0536 -1.2207 -1.2923
51182SOL     OW71537   5.711  13.585   1.981 -0.2591  0.1632 -0.1086
51182SOL    HW171538   5.641  13.545   1.930 -0.0763 -0.7047  0.2945
51182SOL    HW271539   5.776  13.612   1.916 -0.1239 -0.7403 -0.3653
51183SOL     OW71540   8.574   8.653  10.308 -0.5227 -0.5641  0.0362
51183SOL    HW171541   8.626   8.649  10.388 -2.0698 -0.3338  1.0794
51183SOL    HW271542   8.512   8.724  10.322  0.5765  0.9672 -2.2668
51184SOL     OW71543   2.785   8.541   2.651  0.1021 -0.2796 -0.0818
51184SOL    HW171544   2.802   8.631   2.626  3.0211  0.0676  2.4834
51184SOL    HW271545   2.690   8.532   2.648 -0.4402  3.4287  1.1945
51185SOL     OW71546   6.218  12.045   2.774 -0.0712 -0.4323  0.2694
51185SOL    HW171547   6.148  12.073   2.834  0.4621 -0.2480  0.8106
51185SOL    HW271548   6.297  12.087   2.808  0.0164  0.8856 -1.4026
51186SOL     OW71549  12.159   8.596   9.609 -0.0009 -0.4620  0.2942
51186SOL    HW171550  12.218   8.563   9.676 -1.6882 -0.9219  1.6306
51186SOL    HW271551  12.174   8.540   9.533 -0.5377 -2.2814  1.4643
51187SOL     OW71552   7.119  10.693   7.874  0.8019  0.3876  0.1139
51187SOL    HW171553   7.033  10.660   7.848  0.8355 -0.6229  1.1850
51187SOL    HW271554   7.101  10.772   7.925  0.3637 -0.6693  1.6736
51188SOL     OW71555  12.220  11.853  14.089 -0.3099 -0.2307 -0.5934
51188SOL    HW171556  12.178  11.769  14.074 -2.1526  0.4200  0.5564
51188SOL    HW271557  12.177  11.888  14.167 -0.6055  2.3927 -1.8054
51189SOL     OW71558  13.800   8.106  13.216  0.2291 -0.1453  0.0010
51189SOL    HW171559  13.751   8.167  13.160 -0.4932  0.2081  0.9959
51189SOL    HW271560  13.791   8.021  13.173  1.7694  0.4936 -1.7522
51190SOL     OW71561   1.955   5.691  13.407  0.2524  0.4924  0.9429
51190SOL    HW171562   1.923   5.662  13.322  0.4569  0.8016  0.7598
51190SOL    HW271563   1.902   5.769  13.427 -1.2079 -0.7071  2.0298
51191SOL     OW71564   6.817   8.317  11.190  0.1102 -0.2996  0.4793
51191SOL    HW171565   6.794   8.244  11.247  0.5502  0.0171  1.0694
51191SOL    HW271566   6.740   8.374  11.192  0.5203  0.2500  1.6402
51192SOL     OW71567   1.908   9.466  13.456 -0.3963 -0.7350  0.1021
51192SOL    HW171568   1.884   9.474  13.364  3.2366 -0.2273 -0.9609
51192SOL    HW271569   2.000   9.492  13.459 -0.4591 -0.3968  3.9751
51193SOL     OW71570  10.081   0.499   5.084  0.5359  0.3125 -0.0364
51193SOL    HW171571  10.145   0.515   5.015 -0.6106  0.7434 -1.0388
51193SOL    HW271572  10.078   0.403   5.091  1.4590  0.2940  0.2002
51194SOL     OW71573  13.080  12.408   6.374  0.2663 -0.4075  0.0175
51194SOL    HW171574  13.093  12.502   6.369  1.0716 -0.3910  1.8840
51194SOL    HW271575  13.128  12.380   6.452 -0.8110 -2.2084  0.1015
51195SOL     OW71576   3.598  10.538   3.800  0.0116  0.2399  0.0971
51195SOL    HW171577   3.583  10.631   3.786 -0.9021 -0.1381 -1.8571
51195SOL    HW271578   3.680  10.520   3.754 -0.7476 -0.2163 -1.1417
51196SOL     OW71579  10.748   2.836   8.093  0.4626 -0.2752 -0.0232
51196SOL    HW171580  10.747   2.930   8.115 -0.2057 -0.3802  0.4413
51196SOL    HW271581  10.838   2.809   8.108  0.3533 -0.0139  1.2456
51197SOL     OW71582   8.021  13.308   2.941 -0.5902  0.4004 -0.1127
51197SOL    HW171583   7.930  13.325   2.919 -0.5021  1.9694  0.6487
51197SOL    HW271584   8.067  13.312   2.857 -1.2968 -1.1578 -0.6077
51198SOL     OW71585  14.090   5.560  14.012 -0.3536 -0.1784 -0.3917
51198SOL    HW171586  14.160   5.625  14.025  0.3144 -1.0926  0.7956
51198SOL    HW271587  14.082   5.554  13.917  0.7347  0.4368 -0.5520
51199SOL     OW71588   0.718  12.903   4.781 -0.8382 -0.4456 -0.0086
51199SOL    HW171589   0.780  12.837   4.750  1.2550  0.7692  1.3568
51199SOL    HW271590   0.769  12.984   4.786 -2.5470  0.6360  1.1169
51200SOL     OW71591   7.784   1.474  11.352  0.1104  0.7577  0.8489
51200SOL    HW171592   7.797   1.489  11.258 -0.4359  0.1462  0.6727
51200SOL    HW271593   7.857   1.418  11.378  0.6519  1.4904  0.9445
51201SOL     OW71594  12.474   7.268   7.056  0.0041 -0.3774 -0.9468
51201SOL    HW171595  12.394   7.301   7.016 -0.5739 -0.4160  0.1236
51201SOL    HW271596  12.522   7.227   6.984 -0.6720  0.1386 -1.7110
51202SOL     OW71597  10.718   9.490  13.179  0.1469  0.3083  0.8018
51202SOL    HW171598  10.718   9.395  13.192  2.7453  0.4608  2.3914
51202SOL    HW271599  10.626   9.515  13.191 -0.1700 -1.6595  3.2490
51203SOL     OW71600   6.533   8.341   6.350 -0.0478 -0.6644  0.0994
51203SOL    HW171601   6.492   8.427   6.358 -0.9631 -1.0188 -0.5102
51203SOL    HW271602   6.627   8.357   6.358 -0.2733  0.2291  1.1927
51204SOL     OW71603   7.470   1.767  12.599 -0.3676 -0.0704  0.0726
51204SOL    HW171604   7.452   1.807  12.514  0.0726  1.4373  0.6676
51204SOL    HW271605   7.565   1.773  12.609 -0.3002 -1.1726  0.2476
51205SOL     OW71606   5.700   5.152   1.062 -0.0552 -0.3916 -0.1156
51205SOL    HW171607   5.712   5.168   1.156  3.2079 -0.9122 -0.3172
51205SOL    HW271608   5.721   5.236   1.021 -1.3194 -0.2123 -0.4397
51206SOL     OW71609  12.085   7.480   6.060 -0.0972 -0.1493 -0.7252
51206SOL    HW171610  11.990   7.490   6.052 -0.4026  0.4634  2.5145
51206SOL    HW271611  12.105   7.406   6.003 -2.2093  0.7075 -2.7871
51207SOL     OW71612   1.955   0.316   1.750  0.2834 -0.2057  0.3273
51207SOL    HW171613   1.876   0.264   1.763 -0.4846  1.3789  2.4089
51207SOL    HW271614   2.020   0.275   1.807  0.2161  0.0457  0.5817
51208SOL     OW71615  13.283  11.271  12.319 -0.5632  0.1803  0.0125
51208SOL    HW171616  13.325  11.218  12.251  0.6185  0.4475  0.5069
51208SOL    HW271617  13.278  11.359  12.281  1.1522  0.6013  0.6404
51209SOL     OW71618   4.468   7.626   2.372 -0.3855 -0.0491  0.1118
51209SOL    HW171619   4.540   7.672   2.329 -0.4111  1.7781  1.8836
51209SOL    HW271620   4.508   7.546   2.407  0.6208  0.6187  0.5048
51210SOL     OW71621   2.876   1.952   2.572 -0.2367 -0.1631 -0.8354
51210SOL    HW171622   2.959   1.995   2.590 -0.8182 -0.3418  3.3848
51210SOL    HW271623   2.835   2.005   2.503  2.7851  0.5874 -2.1987
51211SOL     OW71624   3.612   2.129   9.160 -0.5308 -0.4983 -0.1897
51211SOL    HW171625   3.689   2.079   9.134  0.3500  0.5603  0.2793
51211SOL    HW271626   3.566   2.148   9.079  1.3178  1.4077 -0.8650
51212SOL     OW71627  13.513   2.016  13.323 -0.7264  0.1114  0.1526
51212SOL    HW171628  13.469   2.063  13.394 -0.7483 -0.2348  0.3723
51212SOL    HW271629  13.469   2.046  13.244  0.1261  1.4315  0.1648
51213SOL     OW71630  11.995  11.014   9.792  0.2297  0.0582 -0.2227
51213SOL    HW171631  12.043  11.003   9.874  0.3977  0.6006 -0.2402
51213SOL    HW271632  12.064  11.028   9.726  0.1375 -1.2048 -0.6076
51214SOL     OW71633  13.622   3.554  13.147  0.2395 -0.0595  0.1265
51214SOL    HW171634  13.534   3.534  13.180  0.1651  0.2635  0.1311
51214SOL    HW271635  13.618   3.532  13.054  0.0152  0.3769  0.0289
51215SOL     OW71636   7.869  13.451   0.060  0.5425  0.1437 -0.5050
51215SOL    HW171637   7.886  13.510   0.134 -1.3719 -0.1728  0.2473
51215SOL    HW271638   7.945  13.393   0.058  1.0365  0.7084  0.6760
51216SOL     OW71639  13.402   8.931   9.954  0.3813 -0.0538 -0.1760
51216SOL    HW171640  13.314   8.911   9.922  0.9210  0.2258 -1.9945
51216SOL    HW271641  13.458   8.923   9.876  1.7224  1.2583  0.5921
51217SOL     OW71642   7.638   8.753  10.179 -0.0591 -0.5412 -0.0090
51217SOL    HW171643   7.557   8.803  10.175  0.2270 -0.1276 -1.0536
51217SOL    HW271644   7.685   8.788  10.255  0.0721  0.6969 -0.6459
51218SOL     OW71645  10.415   7.541   1.480 -0.3560 -0.1191 -0.1235
51218SOL    HW171646  10.463   7.528   1.562 -0.3143 -0.3266 -0.1788
51218SOL    HW271647  10.369   7.624   1.492  1.7758  1.2641 -0.9278
51219SOL     OW71648   9.367  10.877   2.698 -0.0721  0.0641  0.1452
51219SOL    HW171649   9.347  10.939   2.769 -1.1610  0.6094 -0.6043
51219SOL    HW271650   9.307  10.804   2.714 -0.1038  0.0520 -0.0308
51220SOL     OW71651  10.636   1.306   5.182  0.1529 -0.1965 -0.0797
51220SOL    HW171652  10.561   1.250   5.158 -0.7152  0.7526  0.3284
51220SOL    HW271653  10.598   1.393   5.193  1.4162  0.4078 -0.3203
51221SOL     OW71654   4.397   5.130   2.950  0.5822 -0.3409  0.2488
51221SOL    HW171655   4.398   5.218   2.986  1.2329 -0.0698 -0.4118
51221SOL    HW271656   4.489   5.103   2.948  0.5276 -0.5000 -0.7966
51222SOL     OW71657   0.567   3.908   3.576 -0.2841 -0.2324 -0.6436
51222SOL    HW171658   0.568   3.869   3.488 -0.5078 -2.0703  0.1117
51222SOL    HW271659   0.659   3.917   3.600 -0.2256 -1.1589 -0.4912
51223SOL     OW71660   9.058  12.259  13.261 -0.0840  0.4077  0.0470
51223SOL    HW171661   8.987  12.274  13.198  0.6634  0.1020 -0.8966
51223SOL    HW271662   9.091  12.347  13.280 -1.4336  0.6589  1.3801
51224SOL     OW71663   1.506   4.199  12.255  0.3723 -0.0496 -0.3592
51224SOL    HW171664   1.489   4.127  12.316 -2.5860  0.0765 -0.8775
51224SOL    HW271665   1.479   4.165  12.169 -0.4389  1.3996 -0.7192
51225SOL     OW71666  10.368   7.405   0.664  0.0468 -0.1375  0.3623
51225SOL    HW171667  10.300   7.441   0.720  1.5675  2.0686  0.9123
51225SOL    HW271668  10.450   7.439   0.699  1.2673 -0.7255 -1.6936
51226SOL     OW71669   6.154  13.338   9.390  0.5763  0.2136 -0.4413
51226SOL    HW171670   6.108  13.297   9.463  0.8164 -0.0283 -0.4219
51226SOL    HW271671   6.097  13.321   9.314 -0.0945  1.2098 -0.1803
51227SOL     OW71672   1.206   2.259  11.877  0.7670 -0.5409  0.1179
51227SOL    HW171673   1.174   2.171  11.858 -1.6114  0.1595  0.5333
51227SOL    HW271674   1.289   2.246  11.921  0.4943 -2.5651  0.1009
51228SOL     OW71675   7.646   7.925   7.143 -0.2450 -0.1174 -0.9323
51228SOL    HW171676   7.605   7.839   7.141  1.3564 -0.9127 -1.0289
51228SOL    HW271677   7.664   7.946   7.052 -2.2603  1.1809 -1.0885
51229SOL     OW71678   4.633   4.788   4.598  0.2784  0.0451  0.3294
51229SOL    HW171679   4.715   4.755   4.561 -0.7665  0.2874 -2.4135
51229SOL    HW271680   4.569   4.720   4.577 -1.0386  1.7501 -1.5058
51230SOL     OW71681   4.725  11.554  13.474  0.1129  0.0188 -0.0844
51230SOL    HW171682   4.712  11.597  13.390 -0.0042  0.0812 -0.0328
51230SOL    HW271683   4.797  11.492  13.458 -0.2861 -0.3725 -0.3784
51231SOL     OW71684   2.750  10.456  12.381  0.5020 -0.9734 -0.1214
51231SOL    HW171685   2.740  10.372  12.425  0.4944  0.0841  1.9904
51231SOL    HW271686   2.662  10.491  12.374  0.5872 -0.7908 -0.3185
51232SOL     OW71687   8.834   8.438  10.686 -0.0664  0.1384 -0.3035
51232SOL    HW171688   8.835   8.439  10.781  1.3934  0.6955 -0.2883
51232SOL    HW271689   8.833   8.345  10.663 -1.8214  0.0044  0.2166
51233SOL     OW71690   1.445   8.709   5.179  0.2949  0.0411  0.2944
51233SOL    HW171691   1.367   8.702   5.234  0.0463  1.4843  0.1705
51233SOL    HW271692   1.411   8.730   5.092  0.7594 -0.8037 -0.1013
51234SOL     OW71693   9.479   1.014   9.669 -0.8315 -0.2725 -0.5263
51234SOL    HW171694   9.482   0.934   9.722  1.5829  0.9625  1.4146
51234SOL    HW271695   9.515   1.082   9.726  1.7963  1.2221 -3.6490
51235SOL     OW71696  13.273   1.045  11.624 -0.6129  0.2046 -0.3765
51235SOL    HW171697  13.312   0.958  11.614  0.7761  0.9746 -2.3810
51235SOL    HW271698  13.226   1.042  11.707  1.6050 -1.6382  0.8929
51236SOL     OW71699   8.277   6.623  11.144 -0.1644 -0.6676  0.9666
51236SOL    HW171700   8.281   6.659  11.056 -0.1960  0.9030  1.5773
51236SOL    HW271701   8.200   6.664  11.183  1.0958  0.4338  2.4438
51237SOL     OW71702  12.222   8.742  12.392  0.2812  0.5701  0.0110
51237SOL    HW171703  12.191   8.828  12.362 -0.6591  0.7389  1.3849
51237SOL    HW271704  12.300   8.762  12.443  0.1053  0.6110  0.2687
51238SOL     OW71705   7.719  12.058  10.897 -0.1499 -0.2824  0.7018
51238SOL    HW171706   7.797  12.005  10.908 -0.2080 -0.4381  0.3761
51238SOL    HW271707   7.660  12.029  10.967 -0.9817 -2.0950 -0.6552
51239SOL     OW71708   7.560   9.966   4.353  1.1594 -0.1566 -0.0211
51239SOL    HW171709   7.651   9.988   4.331  1.3972 -0.5377  0.5326
51239SOL    HW271710   7.557   9.970   4.448  0.9210 -1.3187  0.0461
51240SOL     OW71711   8.838   0.712  10.477 -0.3680 -0.3321 -0.7642
51240SOL    HW171712   8.743   0.716  10.470 -0.6257  0.1499  2.0184
51240SOL    HW271713   8.868   0.801  10.458 -0.7889  0.2854  1.2511
51241SOL     OW71714   1.278   9.347   9.055  0.3954  0.2024  0.1625
51241SOL    HW171715   1.220   9.423   9.053  0.1444  0.0329  0.8131
51241SOL    HW271716   1.366   9.383   9.064  0.4053  0.4608 -0.8347
51242SOL     OW71717  10.898  12.519   8.791  0.1324  0.1482 -0.3364
51242SOL    HW171718  10.876  12.487   8.704  1.2163 -0.5854 -0.3718
51242SOL    HW271719  10.963  12.588   8.775  0.2200  0.1158 -0.1242
51243SOL     OW71720  13.785   6.742   9.762 -0.1607 -0.1973  1.1860
51243SOL    HW171721  13.824   6.765   9.678 -1.2176  0.3400  0.8165
51243SOL    HW271722  13.789   6.823   9.814 -2.2004  0.3687  0.5557
51244SOL     OW71723  13.906   4.881   8.168  0.0444  0.4076  0.0640
51244SOL    HW171724  13.973   4.836   8.219 -0.6643  1.0360  1.6307
51244SOL    HW271725  13.823   4.845   8.201 -0.4252  0.4309 -1.0586
51245SOL     OW71726   8.872   4.579  10.921  0.4112 -0.3430 -0.2979
51245SOL    HW171727   8.888   4.669  10.891 -1.6883  0.1860  0.0518
51245SOL    HW271728   8.920   4.573  11.004  0.4162  0.5116 -0.2259
51246SOL     OW71729   7.773   0.815   7.676  0.1138  0.1425  0.3319
51246SOL    HW171730   7.810   0.770   7.600  0.3381 -1.3960  1.3110
51246SOL    HW271731   7.803   0.905   7.667 -0.8166  0.3011 -1.9985
51247SOL     OW71732   8.817   7.217   1.938  0.6329 -0.0381  0.2914
51247SOL    HW171733   8.726   7.213   1.907  1.6188 -1.3925 -2.8360
51247SOL    HW271734   8.843   7.308   1.921  0.3839 -0.1062 -0.4995
51248SOL     OW71735   4.249  10.566  11.791  0.3640  0.0120 -0.5036
51248SOL    HW171736   4.252  10.604  11.703  1.1335  0.6449 -0.2205
51248SOL    HW271737   4.157  10.542  11.804 -0.0288  1.2060 -0.9453
51249SOL     OW71738   5.150  13.256   7.250  0.7302 -0.1234  0.8117
51249SOL    HW171739   5.172  13.213   7.332  2.9092  1.0238  0.8942
51249SOL    HW271740   5.234  13.265   7.204  0.0054  1.8811 -0.2325
51250SOL     OW71741   0.369   8.308   4.249  0.2816 -1.4746  0.5638
51250SOL    HW171742   0.277   8.282   4.258 -1.2570  2.0008 -2.6039
51250SOL    HW271743   0.382   8.320   4.155  3.6351 -0.6035  1.0053
51251SOL     OW71744   9.364   0.415   6.192  0.2852 -0.3405  0.2402
51251SOL    HW171745   9.452   0.391   6.220  1.0539  0.4180 -1.3898
51251SOL    HW271746   9.377   0.471   6.115 -1.5772  0.7634  0.6406
51252SOL     OW71747  12.221   7.436   6.657  0.0013  0.1402  0.5752
51252SOL    HW171748  12.228   7.492   6.734  0.4313  0.7495  0.1040
51252SOL    HW271749  12.173   7.488   6.593 -0.4636 -0.4111  0.4741
51253SOL     OW71750   7.684   5.120  10.130 -0.2842 -0.3371 -0.3051
51253SOL    HW171751   7.705   5.027  10.123  0.5308 -0.1336 -0.6367
51253SOL    HW271752   7.588   5.122  10.130 -0.3602 -1.3047  1.5386
51254SOL     OW71753  11.610   2.423   4.848 -0.0406  0.7517  0.0472
51254SOL    HW171754  11.564   2.358   4.796 -0.7775  1.7247 -0.5550
51254SOL    HW271755  11.679   2.456   4.790  0.3749  0.4737  0.3722
51255SOL     OW71756   1.154   3.850   8.372  0.6292 -0.7123 -0.4139
51255SOL    HW171757   1.072   3.863   8.324  1.1278 -1.6915 -1.5677
51255SOL    HW271758   1.204   3.930   8.355  0.4201 -0.6534 -0.7674
51256SOL     OW71759  10.109   6.258   9.719 -0.9326 -0.6763 -0.2905
51256SOL    HW171760  10.185   6.313   9.734 -1.0934  0.0151 -1.7700
51256SOL    HW271761  10.062   6.302   9.647 -2.3187 -1.4805  0.0875
51257SOL     OW71762   9.859   4.330   7.068 -0.3875 -0.2008  0.1277
51257SOL    HW171763   9.890   4.369   7.149 -0.1957 -0.1075  0.0113
51257SOL    HW271764   9.882   4.394   7.000  0.9141 -0.9952 -0.2092
51258SOL     OW71765  13.228  11.209   4.143 -0.0003  0.8149 -0.4632
51258SOL    HW171766  13.267  11.274   4.083 -1.1933  0.6683 -1.4402
51258SOL    HW271767  13.233  11.250   4.229  0.7446  1.5150 -0.8236
51259SOL     OW71768  13.731  12.096   3.602 -0.3751  0.2181  0.0043
51259SOL    HW171769  13.728  12.189   3.626 -0.8141  0.1704  0.1484
51259SOL    HW271770  13.739  12.096   3.507 -1.2289  0.4115 -0.0807
51260SOL     OW71771   3.159   6.993   2.797 -0.1023 -0.9285  0.1342
51260SOL    HW171772   3.197   6.925   2.742  1.2707 -1.2644  1.4338
51260SOL    HW271773   3.085   6.949   2.841 -0.0163 -1.2016  0.0069
51261SOL     OW71774   2.118   2.144  11.058  0.0201  0.3867 -0.2419
51261SOL    HW171775   2.104   2.055  11.090  0.2080  0.2534 -0.5267
51261SOL    HW271776   2.204   2.141  11.016 -0.4800  0.3994 -1.2940
51262SOL     OW71777   3.133   7.470  10.210  0.3391  0.0818 -0.2220
51262SOL    HW171778   3.216   7.434  10.239 -0.0444 -0.8307 -0.2381
51262SOL    HW271779   3.117   7.545  10.268  0.8141 -0.1806  0.2463
51263SOL     OW71780  12.251   0.281  13.978  0.1620 -0.0941  0.6802
51263SOL    HW171781  12.288   0.337  14.046 -0.5125 -0.6226  1.5063
51263SOL    HW271782  12.244   0.195  14.019 -1.8733 -0.0369  0.5246
51264SOL     OW71783  13.878   2.487  10.708  0.5463 -0.4729 -0.0772
51264SOL    HW171784  13.882   2.466  10.615  0.8027  3.2749 -1.1059
51264SOL    HW271785  13.966   2.521  10.728  0.2311 -0.4196  1.3018
51265SOL     OW71786   3.542   9.968   1.464 -0.5567 -0.1182 -0.0528
51265SOL    HW171787   3.573  10.018   1.540 -0.2534  0.2319 -0.3984
51265SOL    HW271788   3.461   9.928   1.493 -0.7414  0.4789  0.2807
51266SOL     OW71789  11.325  10.040   3.666  0.2635 -0.3491 -0.3450
51266SOL    HW171790  11.396   9.998   3.714 -0.3689 -0.4883  0.4960
51266SOL    HW271791  11.297  10.112   3.722  0.1454  0.0860 -0.9478
51267SOL     OW71792   9.261  13.649   2.900 -0.3642  0.5973 -0.0022
51267SOL    HW171793   9.220  13.677   2.982 -0.0433  0.6617  0.1377
51267SOL    HW271794   9.241  13.556   2.893 -1.8806  0.9445 -0.7215
51268SOL     OW71795  10.865  10.849   6.440 -0.0585 -0.3454 -0.4156
51268SOL    HW171796  10.859  10.753   6.447 -0.2400 -0.4141 -1.4002
51268SOL    HW271797  10.934  10.864   6.375 -0.0085  0.1930 -0.2373
51269SOL     OW71798   7.894   0.704  10.429  0.7101  0.2772 -0.1698
51269SOL    HW171799   7.824   0.644  10.454  0.5212  0.3729 -0.4626
51269SOL    HW271800   7.940   0.723  10.511  1.2805 -0.9101 -0.1998
51270SOL     OW71801   4.476   5.498   7.550 -0.2067 -0.3293  0.5658
51270SOL    HW171802   4.428   5.569   7.506  0.4919  0.3723  0.9198
51270SOL    HW271803   4.553   5.541   7.587  0.1964 -1.2733  0.8308
51271SOL     OW71804  10.288   8.302   1.703  0.6729 -0.5203  0.3589
51271SOL    HW171805  10.261   8.342   1.786 -0.0825  2.6959 -1.2668
51271SOL    HW271806  10.210   8.310   1.647  2.0849  0.3521 -1.5843
51272SOL     OW71807   9.540  11.959   5.048 -0.1034  0.1394 -0.0800
51272SOL    HW171808   9.530  12.034   4.989 -1.2471 -1.4199 -1.9794
51272SOL    HW271809   9.539  11.998   5.135 -1.1137  2.3066 -0.9665
51273SOL     OW71810   5.424   3.948   3.020 -0.0828  0.3799 -0.4552
51273SOL    HW171811   5.436   3.979   2.930  1.1453 -0.1206 -0.4730
51273SOL    HW271812   5.503   3.978   3.066 -0.9017  1.0199  0.5768
51274SOL     OW71813  10.008  11.463   7.703 -0.4846 -0.2355 -0.0408
51274SOL    HW171814   9.984  11.484   7.793 -2.1559 -2.2873  0.0729
51274SOL    HW271815  10.014  11.548   7.660 -2.0263  0.7122  1.4580
51275SOL     OW71816   3.621  12.967   5.102  0.1172  0.3663 -0.3336
51275SOL    HW171817   3.692  12.972   5.167  1.0880 -0.0006 -1.3370
51275SOL    HW271818   3.543  12.994   5.150  0.5778 -1.1127  1.3426
51276SOL     OW71819  10.928   8.150   4.351 -0.0880 -0.1407 -0.3319
51276SOL    HW171820  11.000   8.127   4.409 -1.4707 -1.9398  0.7682
51276SOL    HW271821  10.849   8.139   4.405 -1.3105 -0.2110 -2.0570
51277SOL     OW71822   2.064   2.288   9.405  0.7291 -0.2951  0.1882
51277SOL    HW171823   2.029   2.280   9.316  0.9640 -0.1406  0.0806
51277SOL    HW271824   2.047   2.379   9.430  1.4530 -0.0922 -0.0385
51278SOL     OW71825   1.798   8.156   3.258 -0.2063 -0.3512 -0.9797
51278SOL    HW171826   1.790   8.065   3.286  0.4591 -0.1232 -0.0041
51278SOL    HW271827   1.837   8.151   3.171  0.9651 -0.9763 -0.4480
51279SOL     OW71828   3.234   3.194   7.798  0.3716 -0.0633 -0.0989
51279SOL    HW171829   3.215   3.233   7.883 -0.5305 -0.1285 -0.2564
51279SOL    HW271830   3.161   3.134   7.783  0.0273  0.6180 -1.3201
51280SOL     OW71831   1.179  10.221   4.701  0.2641 -0.1918 -0.0973
51280SOL    HW171832   1.213  10.153   4.643  0.9769  1.0539 -1.2007
51280SOL    HW271833   1.199  10.303   4.655 -0.7741  0.7517  1.0816
51281SOL     OW71834  11.887   8.958   9.165 -0.1960 -0.0155 -0.2843
51281SOL    HW171835  11.864   9.051   9.168  0.9031  0.2602  0.2102
51281SOL    HW271836  11.878   8.928   9.255  0.2690 -0.1622 -0.2796
51282SOL     OW71837   3.006   1.607   4.303 -0.2145 -0.2964 -0.2973
51282SOL    HW171838   3.076   1.670   4.318 -1.6253  1.0658  1.0368
51282SOL    HW271839   2.962   1.599   4.388 -2.9491  0.5392 -1.5083
51283SOL     OW71840  12.631   7.396   9.775 -0.0404  0.2558 -0.8095
51283SOL    HW171841  12.633   7.300   9.769 -0.2463  0.1088  0.8288
51283SOL    HW271842  12.671   7.426   9.694 -0.3397 -1.2094 -1.5473
51284SOL     OW71843   4.077   0.649   6.660  0.3010 -0.4622 -0.3053
51284SOL    HW171844   4.165   0.686   6.675 -0.0251 -0.3668  1.7501
51284SOL    HW271845   4.073   0.573   6.719 -0.9817 -0.4711 -0.3741
51285SOL     OW71846   9.511  11.155   0.133 -0.2011  0.4772 -0.3647
51285SOL    HW171847   9.503  11.110   0.217  3.5973  1.6463  0.8075
51285SOL    HW271848   9.516  11.247   0.155  1.3691  0.7813 -1.7851
51286SOL     OW71849   2.463  13.402   8.023 -0.1621 -0.1617  0.6412
51286SOL    HW171850   2.547  13.372   7.988 -0.4929 -0.6694  0.2584
51286SOL    HW271851   2.482  13.428   8.113 -0.2740 -3.8213  1.8810
51287SOL     OW71852  12.661   0.629   4.546 -0.6252 -0.0666 -0.0987
51287SOL    HW171853  12.654   0.721   4.571  0.9730  0.3589 -1.0879
51287SOL    HW271854  12.651   0.581   4.629 -5.0643  0.6664  0.0570
51288SOL     OW71855   9.223   0.420   5.106  0.0485 -0.2196  0.1207
51288SOL    HW171856   9.293   0.481   5.131  0.3318 -0.2585 -0.5384
51288SOL    HW271857   9.214   0.433   5.011 -0.6136 -0.4523  0.1505
51289SOL     OW71858  12.394  10.955   1.168  0.3615  0.0536  0.0353
51289SOL    HW171859  12.335  10.990   1.101 -1.0929 -0.3119  1.0850
51289SOL    HW271860  12.448  10.891   1.120  1.1549  1.6506 -1.3051
51290SOL     OW71861   6.683   5.422  13.216  0.7316 -0.0798  0.2983
51290SOL    HW171862   6.722   5.500  13.177 -0.7222  0.5201 -0.0389
51290SOL    HW271863   6.734   5.350  13.181  1.2885  0.6451 -0.4279
51291SOL     OW71864   6.998  13.269   2.518 -0.1313  0.0515  0.5610
51291SOL    HW171865   7.067  13.203   2.533  1.7399  1.7434 -0.1813
51291SOL    HW271866   7.010  13.296   2.427 -0.5701  1.7281  0.9747
51292SOL     OW71867  10.501  13.656   8.865  0.4637  0.0197 -0.6411
51292SOL    HW171868  10.523  13.578   8.816  2.5592  0.5141 -0.5843
51292SOL    HW271869  10.460  13.714   8.801  0.2027 -0.5693 -1.0139
51293SOL     OW71870  13.832  13.498   4.323  0.5617  0.1068 -0.0179
51293SOL    HW171871  13.914  13.487   4.274  1.1744  0.4529  0.9041
51293SOL    HW271872  13.763  13.479   4.259  1.3737 -0.7382 -0.6634
51294SOL     OW71873   7.242   3.249  13.606 -0.0116  0.0442 -0.4183
51294SOL    HW171874   7.264   3.224  13.516 -0.5130 -0.3665 -0.4334
51294SOL    HW271875   7.151   3.279  13.601  0.4518  1.5606 -0.3320
51295SOL     OW71876   4.421   7.956   1.050  0.4129  0.5156  0.6131
51295SOL    HW171877   4.429   8.044   1.014 -0.4670  0.6777  0.7859
51295SOL    HW271878   4.373   7.968   1.133 -1.5870 -0.3228 -0.3617
51296SOL     OW71879  11.141   5.285  13.584 -0.0603 -0.3909  0.0489
51296SOL    HW171880  11.120   5.220  13.651 -0.0482  0.6166  1.0605
51296SOL    HW271881  11.212   5.245  13.533 -0.3174 -1.3190  0.3964
51297SOL     OW71882   8.934   7.859  13.650  0.1571  0.2382 -0.0784
51297SOL    HW171883   8.921   7.822  13.737 -0.7309  1.1416  0.1845
51297SOL    HW271884   8.921   7.785  13.590 -1.8849  0.1440  0.4229
51298SOL     OW71885   6.460  11.273   0.201 -0.0837  0.1824  0.4668
51298SOL    HW171886   6.475  11.181   0.222 -2.7398 -0.8755 -1.7407
51298SOL    HW271887   6.430  11.312   0.283  2.2966 -0.5134  1.7608
51299SOL     OW71888   9.765   3.493   0.744  0.1863  0.5030 -0.1702
51299SOL    HW171889   9.711   3.572   0.746 -0.5680  0.0131 -0.7772
51299SOL    HW271890   9.708   3.426   0.706  1.3072  0.0490 -1.1146
51300SOL     OW71891  11.679   3.947   1.087  0.1044 -0.5685 -0.3496
51300SOL    HW171892  11.593   3.936   1.126 -0.4143 -0.5704 -1.4435
51300SOL    HW271893  11.696   3.865   1.042 -0.3570  0.2139 -2.0542
51301SOL     OW71894  13.532   9.181   9.191 -0.1391  0.6691 -0.2831
51301SOL    HW171895  13.598   9.122   9.155  0.0161  1.5103 -1.4382
51301SOL    HW271896  13.578   9.229   9.259  0.6866  1.7393 -1.5376
51302SOL     OW71897   3.616  11.060   1.742  0.0357  0.1022  0.3267
51302SOL    HW171898   3.561  10.988   1.714  0.7793 -0.2460 -0.2938
51302SOL    HW271899   3.558  11.137   1.744 -0.5138 -0.3021 -0.0448
51303SOL     OW71900  13.060   6.499   2.856 -0.0893  0.0196  0.1852
51303SOL    HW171901  13.085   6.532   2.770 -0.1081  1.0020  0.5344
51303SOL    HW271902  12.964   6.499   2.856 -0.0908 -0.7113 -0.0563
51304SOL     OW71903  12.608   1.658   9.194  0.0457  0.2205  0.5276
51304SOL    HW171904  12.684   1.634   9.140  0.4116  0.0327  1.1175
51304SOL    HW271905  12.544   1.589   9.178 -0.0918  0.4934 -0.1400
51305SOL     OW71906   8.381   7.864  12.261 -0.2598 -0.0766 -0.2407
51305SOL    HW171907   8.319   7.932  12.234 -1.3584 -0.3614  1.4284
51305SOL    HW271908   8.372   7.796  12.195 -1.3884  0.0955 -0.2848
51306SOL     OW71909   9.515   9.744   5.912  0.4423  0.2880  0.0381
51306SOL    HW171910   9.543   9.813   5.852  1.7617 -0.7823 -0.6397
51306SOL    HW271911   9.582   9.676   5.903 -0.9590 -1.2136  0.4448
51307SOL     OW71912   8.386   3.671   9.049  0.3513 -0.5647  0.2539
51307SOL    HW171913   8.377   3.754   9.096  1.2398 -0.3971  0.1458
51307SOL    HW271914   8.457   3.687   8.987 -0.9731 -0.6886 -1.3548
51308SOL     OW71915   7.541   5.412   0.709 -0.6037 -1.0990 -0.0966
51308SOL    HW171916   7.466   5.451   0.753 -0.3920 -1.5543  0.6788
51308SOL    HW271917   7.502   5.361   0.637 -1.0167 -1.1432  0.1556
51309SOL     OW71918  14.031   6.622   6.853 -0.2203  0.1218  0.1599
51309SOL    HW171919  13.988   6.557   6.908 -1.0972  1.1487  0.7324
51309SOL    HW271920  14.096   6.573   6.802 -0.8753 -1.1779  0.5623
51310SOL     OW71921   3.159   4.861  12.384 -0.0939  0.1562 -0.5530
51310SOL    HW171922   3.240   4.818  12.411  0.5893  0.6806 -1.7124
51310SOL    HW271923   3.143   4.927  12.451  0.8157  0.5039 -0.6611
51311SOL     OW71924   4.931  12.669  12.657  0.5927  0.0506  0.4998
51311SOL    HW171925   4.896  12.746  12.613 -0.9108  0.2904  1.9804
51311SOL    HW271926   4.986  12.704  12.727  0.8269 -0.2582  0.4731
51312SOL     OW71927   2.208   4.185  12.407  0.2436 -0.6307  0.2182
51312SOL    HW171928   2.254   4.143  12.480  0.9428 -0.8141 -0.3200
51312SOL    HW271929   2.147   4.118  12.375  0.8248 -0.9831 -0.1598
51313SOL     OW71930  14.102  13.889   2.386  0.2245 -0.1049 -0.6398
51313SOL    HW171931  14.066  13.977   2.394 -1.8620 -1.0292  1.6232
51313SOL    HW271932  14.099  13.854   2.476  2.1799 -2.0538 -1.2397
51314SOL     OW71933  11.022   9.877   1.722 -0.1140  0.8990  0.1444
51314SOL    HW171934  11.084   9.949   1.707  0.4799  0.6351  1.1892
51314SOL    HW271935  11.021   9.866   1.817 -1.8758  0.9624  0.1683
51315SOL     OW71936  11.664   5.976   3.373  0.6950  0.1520  0.3219
51315SOL    HW171937  11.605   6.038   3.329  1.4868 -0.2111 -1.3279
51315SOL    HW271938  11.739   6.029   3.398  0.1521  0.4019  1.4743
51316SOL     OW71939   8.840   9.794  14.047  0.1495  0.2752  0.0964
51316SOL    HW171940   8.905   9.750  14.101  0.9194  1.5376  0.2080
51316SOL    HW271941   8.762   9.739  14.056  0.5828 -0.1498  1.5791
51317SOL     OW71942   0.792   6.427   0.168 -0.2174  0.5918  0.5642
51317SOL    HW171943   0.876   6.405   0.207 -0.2371  0.0324  0.3022
51317SOL    HW271944   0.814   6.466   0.083 -0.2211  0.4067  0.4774
51318SOL     OW71945  13.843  12.676   6.755  0.3498  0.1122 -0.0167
51318SOL    HW171946  13.774  12.642   6.698 -0.5043  1.8149 -0.0496
51318SOL    HW271947  13.881  12.598   6.796  0.3479 -1.0884 -2.1568
51319SOL     OW71948  12.406   5.696  12.999 -0.1026  0.1064 -0.0290
51319SOL    HW171949  12.501   5.696  13.013  0.2364 -0.3867 -1.9642
51319SOL    HW271950  12.383   5.789  12.991  1.0635  0.2453 -3.9271
51320SOL     OW71951   8.236   3.643   6.737 -0.2801  0.1797 -0.2202
51320SOL    HW171952   8.226   3.549   6.720 -2.0563  0.2819  0.0567
51320SOL    HW271953   8.329   3.659   6.728  0.0662 -1.6233 -0.2549
51321SOL     OW71954   0.904   1.765   8.150  0.0945 -0.5806 -0.2369
51321SOL    HW171955   0.993   1.774   8.117  0.3104 -0.9839  0.2363
51321SOL    HW271956   0.854   1.830   8.100  0.2666 -1.6197 -1.8480
51322SOL     OW71957  13.600   0.894   9.419  0.4005 -0.1069  0.3879
51322SOL    HW171958  13.521   0.870   9.467  1.0648  0.5347  1.8780
51322SOL    HW271959  13.579   0.979   9.380  0.2206 -0.1106  0.4750
51323SOL     OW71960   7.984   4.527   7.359 -0.3065  0.4449 -0.8809
51323SOL    HW171961   8.002   4.603   7.304  0.1711  0.9735 -0.0181
51323SOL    HW271962   7.936   4.562   7.433  0.6715  0.0573 -0.0462
51324SOL     OW71963   7.329   9.927   0.229  0.3945  0.4676  0.5714
51324SOL    HW171964   7.345   9.848   0.178 -0.9788  0.1692  0.5579
51324SOL    HW271965   7.344   9.901   0.320 -1.0748 -0.1173  0.6647
51325SOL     OW71966   5.726   1.848  13.131 -0.3589 -0.3000  0.3218
51325SOL    HW171967   5.772   1.768  13.106  0.4469  0.3785 -0.4272
51325SOL    HW271968   5.658   1.818  13.191  1.2112 -1.3066  1.6848
51326SOL     OW71969   9.074  12.445   6.743 -0.6969 -0.4856  0.2926
51326SOL    HW171970   9.093  12.353   6.723  0.8364  0.0389 -0.8467
51326SOL    HW271971   8.982  12.456   6.718 -0.7317 -1.5638 -0.1080
51327SOL     OW71972   7.861   9.386  13.197 -0.0794 -0.1654 -0.3867
51327SOL    HW171973   7.910   9.451  13.246 -1.7951  0.4701  0.5807
51327SOL    HW271974   7.826   9.327  13.263 -0.6416 -0.5650 -1.0250
51328SOL     OW71975   0.637   7.970   7.757 -0.6939 -0.0819 -0.1989
51328SOL    HW171976   0.647   7.901   7.822 -1.6827  0.4408  0.5366
51328SOL    HW271977   0.714   7.962   7.701 -1.5371 -2.8325 -1.1572
51329SOL     OW71978  11.219   5.611   4.744 -0.1674  0.7181  0.7539
51329SOL    HW171979  11.235   5.517   4.751  2.8029  1.1467  1.0091
51329SOL    HW271980  11.281   5.651   4.805  0.2069  2.9329 -0.9362
51330SOL     OW71981   3.590   9.476   2.082 -0.0990 -0.4301  0.2011
51330SOL    HW171982   3.576   9.449   2.172  0.8891  0.8049  0.7431
51330SOL    HW271983   3.676   9.442   2.059  0.2363  0.4117  0.1871
51331SOL     OW71984   8.787  13.644   3.535 -0.1529 -0.5018 -0.0056
51331SOL    HW171985   8.850  13.714   3.517 -1.2315  0.1390 -1.4438
51331SOL    HW271986   8.703  13.678   3.504 -1.2987 -1.2221  2.1408
51332SOL     OW71987   2.336  10.197   1.233 -0.7409  0.1347 -0.7793
51332SOL    HW171988   2.324  10.103   1.225 -0.8850  0.2823 -2.6404
51332SOL    HW271989   2.311  10.232   1.148  1.2676  1.6688 -0.8162
51333SOL     OW71990   9.783   8.936   6.479 -0.2944  0.3131 -0.3793
51333SOL    HW171991   9.785   8.866   6.414 -3.4205 -0.9841  0.7177
51333SOL    HW271992   9.817   8.896   6.559 -0.6169  0.4987 -0.1450
51334SOL     OW71993   9.663   2.682   8.508 -0.1057 -0.2124  0.0176
51334SOL    HW171994   9.568   2.670   8.514 -0.4576  1.0165 -1.9734
51334SOL    HW271995   9.696   2.597   8.479 -0.5350 -0.7288  0.9898
51335SOL     OW71996  12.409   2.481  13.544 -0.3989 -0.0175 -0.4506
51335SOL    HW171997  12.366   2.396  13.549 -0.3828  0.0607  1.4475
51335SOL    HW271998  12.503   2.460  13.545 -0.3476 -0.0401 -2.0065
51336SOL     OW71999   9.608  11.455   1.660 -1.0273 -0.0692 -0.3646
51336SOL    HW172000   9.534  11.508   1.688 -1.9432 -1.3466 -0.3152
51336SOL    HW272001   9.676  11.473   1.725 -1.3265  1.0204 -0.3434
51337SOL     OW72002   5.905   6.854   3.684  0.1588 -0.1419 -0.4523
51337SOL    HW172003   5.899   6.760   3.701 -1.1187  0.1630  1.0303
51337SOL    HW272004   5.998   6.874   3.693  0.8779 -1.6116 -3.2059
51338SOL     OW72005   5.038   5.841   5.780 -0.0848  0.3535  0.0750
51338SOL    HW172006   4.985   5.766   5.755  1.4195 -1.9062  3.0630
51338SOL    HW272007   5.127   5.808   5.782  0.9632  2.8909 -0.6271
51339SOL     OW72008   5.135  12.759   3.393  0.4196  0.7025 -0.3364
51339SOL    HW172009   5.219  12.747   3.349 -0.1166 -0.1878 -1.1592
51339SOL    HW272010   5.079  12.800   3.326 -0.2322 -0.1225 -0.3126
51340SOL     OW72011  11.603   6.668   7.937  0.1370  0.2260 -0.3953
51340SOL    HW172012  11.558   6.705   8.012  0.0949  1.1051 -0.8406
51340SOL    HW272013  11.573   6.577   7.933  0.5404  0.0170  0.9477
51341SOL     OW72014   2.353   2.264   6.435  0.3650 -0.0044  0.0039
51341SOL    HW172015   2.351   2.304   6.522  0.1265  1.2883 -0.5824
51341SOL    HW272016   2.444   2.271   6.407  0.5094 -0.7080  0.2543
51342SOL     OW72017  12.441   0.301  10.838 -0.0773 -0.6543  0.0101
51342SOL    HW172018  12.489   0.220  10.856  0.4869 -1.0395 -2.7848
51342SOL    HW272019  12.472   0.362  10.905 -0.1767 -2.5622  1.9085
51343SOL     OW72020   1.853   4.969  13.736  0.9025 -0.3951  0.4086
51343SOL    HW172021   1.870   4.896  13.677 -0.1646 -1.6175  1.5582
51343SOL    HW272022   1.854   5.047  13.679  1.3722 -1.3667 -0.9499
51344SOL     OW72023  11.624   2.831  10.057 -0.2567  0.5065 -0.4715
51344SOL    HW172024  11.545   2.823  10.002  0.0498 -2.0098 -0.6615
51344SOL    HW272025  11.685   2.881  10.003 -0.2175 -1.2982 -2.2343
51345SOL     OW72026   4.450   1.188   5.464 -0.4309  0.8591 -0.0676
51345SOL    HW172027   4.518   1.224   5.522  1.0936 -0.3735 -1.0207
51345SOL    HW272028   4.498   1.137   5.399 -2.3217 -0.5125 -0.4775
51346SOL     OW72029  12.428   2.811   7.207 -0.4479  0.7112  0.0153
51346SOL    HW172030  12.514   2.836   7.173 -0.9969  2.2886 -0.3429
51346SOL    HW272031  12.446   2.765   7.288  0.7413  1.1200  0.0015
51347SOL     OW72032   0.950   2.230  10.655 -0.5891 -0.2284  0.7523
51347SOL    HW172033   0.996   2.186  10.584 -1.5851 -2.8854  1.6248
51347SOL    HW272034   0.857   2.212  10.639 -1.4017  3.7780 -0.1826
51348SOL     OW72035   4.478   0.565   1.378 -0.2109  0.1703  0.0491
51348SOL    HW172036   4.506   0.638   1.323  1.1128 -0.2689  0.1229
51348SOL    HW272037   4.382   0.571   1.379 -0.1957  0.8738 -1.3412
51349SOL     OW72038  12.931   8.830  10.192 -0.2065 -0.3480 -0.0664
51349SOL    HW172039  12.908   8.818  10.284 -1.1388  0.3521 -0.1862
51349SOL    HW272040  13.025   8.814  10.188 -0.2018 -0.6523  0.9541
51350SOL     OW72041   6.318   3.440   0.861 -0.2622  0.3768 -0.4703
51350SOL    HW172042   6.282   3.460   0.948  0.2420  1.0066 -0.4045
51350SOL    HW272043   6.314   3.344   0.856 -0.9990  0.3759 -0.0629
51351SOL     OW72044   4.653   1.099   8.656 -0.2763 -0.0114 -0.0013
51351SOL    HW172045   4.657   1.134   8.567 -0.1837  0.3365  0.1377
51351SOL    HW272046   4.610   1.168   8.706 -2.2926 -1.0533 -0.1945
51352SOL     OW72047  11.967   1.575  13.589  0.2751 -0.0837 -0.2127
51352SOL    HW172048  11.908   1.514  13.545 -0.1159  0.4691 -0.4728
51352SOL    HW272049  11.924   1.660  13.580  0.8394  0.2390  0.0903
51353SOL     OW72050  11.715   5.020   0.757 -0.1669 -0.4390  0.2711
51353SOL    HW172051  11.805   5.010   0.727 -0.7215 -1.7100 -1.1164
51353SOL    HW272052  11.718   5.092   0.820  1.3505  1.5469 -1.8851
51354SOL     OW72053  10.718   0.254   5.053  0.1624  0.0895  0.0965
51354SOL    HW172054  10.739   0.324   5.115 -1.4650 -0.3550  1.2237
51354SOL    HW272055  10.657   0.198   5.101 -0.3379 -0.8428 -1.5763
51355SOL     OW72056  13.851   1.037   2.162 -0.4903  0.0148  0.4075
51355SOL    HW172057  13.941   1.040   2.195  0.1900  1.5551 -1.4000
51355SOL    HW272058  13.800   1.084   2.228  0.4252  0.9983  0.4349
51356SOL     OW72059   3.231   0.173   3.488  0.3959  0.7760  0.4760
51356SOL    HW172060   3.180   0.098   3.457  1.3419 -0.7185  2.3604
51356SOL    HW272061   3.191   0.249   3.443 -3.0957 -0.3205  1.3854
51357SOL     OW72062   1.728   6.634  10.778  0.3378  0.0524  0.0500
51357SOL    HW172063   1.751   6.544  10.801 -1.9858 -0.2925  1.3229
51357SOL    HW272064   1.807   6.684  10.797  1.4289 -1.5859  0.0739
51358SOL     OW72065   3.144   2.365   3.583 -0.0367 -0.0798 -0.3465
51358SOL    HW172066   3.186   2.301   3.641 -0.8749  0.4887  0.9197
51358SOL    HW272067   3.217   2.411   3.542  0.6833  1.4580  2.4302
51359SOL     OW72068   8.308   6.039   7.992 -0.3057  0.3086  0.4293
51359SOL    HW172069   8.401   6.049   8.013 -0.6943  1.4481  1.8192
51359SOL    HW272070   8.264   6.040   8.077 -1.5169 -1.5239 -0.1103
51360SOL     OW72071   5.218   8.475   1.532 -0.3352 -1.0252 -0.2829
51360SOL    HW172072   5.251   8.399   1.580  0.2309 -0.3105  0.4695
51360SOL    HW272073   5.135   8.496   1.575  1.3759  1.2047  2.1639
51361SOL     OW72074   8.437   8.494   2.602  0.3507 -0.1476 -0.3652
51361SOL    HW172075   8.376   8.466   2.533  2.3369 -2.1662 -1.4599
51361SOL    HW272076   8.523   8.492   2.560  1.2601  2.6860  1.0835
51362SOL     OW72077   1.484   7.675   9.873 -0.0668 -0.2949 -0.0161
51362SOL    HW172078   1.484   7.580   9.863 -0.7887 -0.2203 -0.8001
51362SOL    HW272079   1.468   7.709   9.785  0.0190  0.5532  0.2808
51363SOL     OW72080   2.961  13.220   8.593  0.1541 -0.2943 -0.3491
51363SOL    HW172081   2.866  13.209   8.602 -0.0474  1.6722  0.4133
51363SOL    HW272082   2.977  13.210   8.499 -0.8648 -0.2673 -0.5414
51364SOL     OW72083   5.993   7.905  13.778  0.4532  0.0475 -0.7427
51364SOL    HW172084   6.035   7.819  13.785 -0.1370 -0.3484 -1.8410
51364SOL    HW272085   6.019   7.936  13.691 -0.6978  0.2360 -1.0285
51365SOL     OW72086   3.330   7.356   9.354 -0.2526  0.2297  0.3843
51365SOL    HW172087   3.344   7.449   9.338 -0.7214  0.4240  1.0445
51365SOL    HW272088   3.311   7.319   9.268  1.2081  0.4981 -0.0774
51366SOL     OW72089  13.978   4.323   7.409 -0.0594  0.0264  0.1936
51366SOL    HW172090  13.964   4.359   7.497 -1.9813 -0.9980  0.3676
51366SOL    HW272091  14.039   4.251   7.422 -1.0812 -0.7482  0.8947
51367SOL     OW72092   2.700   2.163   0.456  0.0532 -0.7529 -0.3328
51367SOL    HW172093   2.618   2.209   0.440  0.7367  1.1448  1.1091
51367SOL    HW272094   2.744   2.216   0.524  1.6304 -2.7125  0.2819
51368SOL     OW72095   6.321   4.789   3.661  0.2912 -0.2062 -0.2318
51368SOL    HW172096   6.350   4.881   3.659 -0.8978  0.1848 -0.3485
51368SOL    HW272097   6.273   4.777   3.579  2.2003 -1.5736 -1.2305
51369SOL     OW72098   4.067  11.130   7.304 -0.1259 -0.0854 -0.0749
51369SOL    HW172099   4.088  11.102   7.393 -1.5139  0.1824  0.3665
51369SOL    HW272100   4.003  11.201   7.316  1.1062  1.2865 -1.2381
51370SOL     OW72101   0.055  10.006  10.859 -0.6509  0.1435  0.4561
51370SOL    HW172102   0.092  10.059  10.929  0.0111  0.8542 -0.4004
51370SOL    HW272103   0.125   9.945  10.834  0.2215  1.7927 -1.4740
51371SOL     OW72104   0.316   5.083   8.531  0.0723 -0.4640 -0.2517
51371SOL    HW172105   0.296   4.997   8.495 -0.6447  0.1529 -1.4129
51371SOL    HW272106   0.240   5.137   8.506  0.3412  0.4053  0.7710
51372SOL     OW72107   7.939   2.209  10.009 -0.3593 -0.1475  0.1757
51372SOL    HW172108   8.015   2.255  10.045  0.2657  0.2976 -1.6185
51372SOL    HW272109   7.865   2.266  10.030 -0.0879 -0.1150  1.1035
51373SOL     OW72110  13.176   7.159   6.654  0.3565  0.0626  0.6519
51373SOL    HW172111  13.178   7.243   6.699  0.6624 -0.1390  1.0279
51373SOL    HW272112  13.269   7.136   6.643  0.3588 -1.6366  3.2617
51374SOL     OW72113   1.117   2.984   0.488 -0.1496 -0.3738 -0.7402
51374SOL    HW172114   1.066   2.904   0.470 -1.0085  0.3099 -1.5019
51374SOL    HW272115   1.069   3.027   0.559  0.9729 -1.0897  0.4796
51375SOL     OW72116  13.407   1.112   2.937  0.0995  0.0250 -0.2497
51375SOL    HW172117  13.391   1.195   2.894 -1.5611 -0.3621 -0.4336
51375SOL    HW272118  13.496   1.087   2.910  1.2585  2.4300  1.0409
51376SOL     OW72119  10.129   7.899  12.180  0.1304 -0.2728 -0.1695
51376SOL    HW172120  10.047   7.857  12.151 -1.1470  2.0086 -0.1053
51376SOL    HW272121  10.181   7.907  12.100 -0.1779 -0.7420 -0.4243
51377SOL     OW72122   0.286  12.638  14.049 -0.4138  0.3963 -0.0338
51377SOL    HW172123   0.343  12.709  14.078  0.3411  1.0350 -2.7284
51377SOL    HW272124   0.328  12.606  13.969 -0.7415 -3.1248  1.0533
51378SOL     OW72125  13.350   9.723   0.892 -0.0272 -0.1024 -0.3341
51378SOL    HW172126  13.405   9.783   0.942  0.7550  0.1598 -1.4716
51378SOL    HW272127  13.275   9.777   0.865 -0.7427 -0.3893  0.9847
51379SOL     OW72128  11.063   1.652  11.515  0.0513  0.0490 -0.2017
51379SOL    HW172129  11.009   1.620  11.587 -1.2281 -0.5187 -1.3512
51379SOL    HW272130  11.076   1.745  11.534 -2.3072  0.4850 -0.3958
51380SOL     OW72131   3.929  11.911   7.978 -0.1399 -0.0317  0.0772
51380SOL    HW172132   3.930  11.978   8.046 -1.0777 -0.2118  0.2816
51380SOL    HW272133   4.008  11.928   7.927 -0.9729  2.0178 -0.6428
51381SOL     OW72134  11.487   4.834   1.202 -0.3856  0.2508  0.1626
51381SOL    HW172135  11.481   4.863   1.293  1.8337  0.0371  0.4285
51381SOL    HW272136  11.543   4.757   1.205  1.3164  1.3116 -1.5511
51382SOL     OW72137   2.974   9.768   0.934 -0.2209  0.2167  0.2492
51382SOL    HW172138   2.910   9.704   0.901  0.0549  0.3013 -0.4790
51382SOL    HW272139   2.949   9.783   1.025  0.0274 -1.3304  0.5994
51383SOL     OW72140   6.995  12.552  11.151  0.0522 -0.2397 -0.1864
51383SOL    HW172141   7.063  12.604  11.192  1.0783 -1.8495  0.2484
51383SOL    HW272142   6.913  12.583  11.190  0.4124  2.0973 -1.1256
51384SOL     OW72143   7.173  11.144   8.654 -0.4222 -0.1691  0.2749
51384SOL    HW172144   7.259  11.172   8.623 -0.8225  0.2538 -0.4879
51384SOL    HW272145   7.192  11.088   8.729  0.5042  0.1442  0.2937
51385SOL     OW72146   3.152   4.115  10.359  0.8281  0.5511  0.3739
51385SOL    HW172147   3.093   4.161  10.300  0.6618 -1.0889 -0.8114
51385SOL    HW272148   3.106   4.112  10.443 -1.4368 -1.7472 -0.7963
51386SOL     OW72149   7.604  13.123   3.496 -0.2001  0.7751  0.7255
51386SOL    HW172150   7.539  13.100   3.562 -0.5623  0.7638  0.3675
51386SOL    HW272151   7.592  13.058   3.427  1.0795 -0.0388  1.2332
51387SOL     OW72152   0.064   6.679   0.656 -0.0222  0.2942  0.4514
51387SOL    HW172153   0.108   6.595   0.649 -0.3338  0.2604 -2.4233
51387SOL    HW272154   0.128   6.743   0.626 -0.5833  0.7410  0.1690
51388SOL     OW72155  13.621   4.016  12.240  0.4667 -0.2014  0.4494
51388SOL    HW172156  13.647   4.067  12.164  1.3171  2.0395  2.1289
51388SOL    HW272157  13.547   3.963  12.209  1.0301  0.3209 -1.9945
51389SOL     OW72158  11.308   5.519   2.433  0.0047  0.0203  0.0102
51389SOL    HW172159  11.376   5.484   2.491 -0.6518 -0.5518  0.4513
51389SOL    HW272160  11.226   5.498   2.478 -0.4796  0.2695 -0.7543
51390SOL     OW72161   6.866   4.489  13.300  0.1375  0.5826  0.6993
51390SOL    HW172162   6.835   4.402  13.274  2.6398  0.2394 -1.5940
51390SOL    HW272163   6.827   4.548  13.236  1.1827  0.6422  0.1001
51391SOL     OW72164   1.353   3.758   3.505 -0.1074  0.0212 -0.1511
51391SOL    HW172165   1.400   3.837   3.533  1.0365 -0.8250  0.3974
51391SOL    HW272166   1.380   3.747   3.413 -2.1480  1.5683 -1.0105
51392SOL     OW72167   5.507  13.631  12.915  0.1726  0.4889  0.1789
51392SOL    HW172168   5.417  13.643  12.884  0.4359  2.5310  0.0637
51392SOL    HW272169   5.497  13.602  13.006 -0.6117  0.2970  0.0354
51393SOL     OW72170   1.516   9.816   5.735 -0.1211  0.0328 -0.2493
51393SOL    HW172171   1.516   9.769   5.651  1.6876 -0.8613  0.1858
51393SOL    HW272172   1.468   9.897   5.718 -0.2319 -0.3644 -2.0042
51394SOL     OW72173  11.793   9.390   7.336  0.1696 -0.2778  0.1603
51394SOL    HW172174  11.756   9.313   7.293 -0.2370  0.7737 -1.4959
51394SOL    HW272175  11.738   9.463   7.306  1.5605  0.8847  0.2902
51395SOL     OW72176   7.440   5.307   5.347  0.2052 -0.5619  0.3377
51395SOL    HW172177   7.417   5.383   5.401  0.7947  0.1429 -0.3693
51395SOL    HW272178   7.395   5.234   5.388 -1.5158  0.3948  0.2503
51396SOL     OW72179   2.383   9.616  11.381  0.1700 -0.5810 -0.1634
51396SOL    HW172180   2.445   9.646  11.314 -0.3042 -1.8857 -1.2486
51396SOL    HW272181   2.310   9.579  11.331 -0.9761 -0.0950  1.0920
51397SOL     OW72182  13.542   9.289   6.598 -0.2896 -0.2709  0.6237
51397SOL    HW172183  13.466   9.330   6.638 -0.3533  1.2616 -0.9371
51397SOL    HW272184  13.616   9.345   6.624 -0.3381  0.7776 -1.2973
51398SOL     OW72185  13.551   7.074  12.856  0.1375 -0.0650  0.4703
51398SOL    HW172186  13.584   7.162  12.836  0.8215 -0.4299 -0.0620
51398SOL    HW272187  13.587   7.019  12.786 -2.2374 -0.3745 -0.6221
51399SOL     OW72188  10.948  13.849  13.376 -0.0734 -0.0442 -0.0058
51399SOL    HW172189  10.855  13.866  13.387 -0.2739 -0.2727 -1.1548
51399SOL    HW272190  10.992  13.925  13.414 -0.8190  1.2362 -1.6033
51400SOL     OW72191  10.597   1.319   9.318 -0.3114 -0.4653 -0.6109
51400SOL    HW172192  10.558   1.352   9.399  1.0860 -2.8041  1.1591
51400SOL    HW272193  10.585   1.225   9.323  0.4631 -0.7302 -2.8351
51401SOL     OW72194  12.532   0.377   6.581 -0.1556  0.2896 -0.2478
51401SOL    HW172195  12.589   0.402   6.508  0.9971  0.4866  0.6979
51401SOL    HW272196  12.449   0.419   6.561  0.1669  0.4307 -1.3916
51402SOL     OW72197   4.510   6.707   8.531 -0.3424  0.2846 -0.1354
51402SOL    HW172198   4.456   6.653   8.589 -0.1094  3.8306  3.9133
51402SOL    HW272199   4.600   6.690   8.561 -0.1725  1.8255  0.3084
51403SOL     OW72200   6.717  10.365  12.886  0.1680 -0.4197  0.1761
51403SOL    HW172201   6.760  10.341  12.968 -0.3033  0.6424  0.7553
51403SOL    HW272202   6.789  10.389  12.827  0.5814 -2.1624 -0.0873
51404SOL     OW72203   0.021  12.104   4.487  0.0477 -0.9464 -0.3409
51404SOL    HW172204   0.063  12.184   4.458 -0.1398 -0.9928 -0.7446
51404SOL    HW272205   0.044  12.039   4.421 -0.4320 -1.0374 -0.4209
51405SOL     OW72206  14.015   0.240   6.713  0.2525  0.2638 -1.0136
51405SOL    HW172207  14.109   0.256   6.707  0.3923 -0.2661 -0.3368
51405SOL    HW272208  14.000   0.217   6.804 -0.1615 -1.8174 -1.5375
51406SOL     OW72209  11.028  13.158  11.740  0.2570  0.2198 -0.2420
51406SOL    HW172210  11.112  13.190  11.774  0.9227 -0.1656 -1.4793
51406SOL    HW272211  10.973  13.150  11.818  1.1612  1.0659  0.5222
51407SOL     OW72212  11.492   7.979   6.056 -0.2938  0.0215 -0.5570
51407SOL    HW172213  11.401   7.953   6.039 -0.6925  1.6696 -1.0663
51407SOL    HW272214  11.486   8.071   6.083  1.2174  0.0956 -0.4141
51408SOL     OW72215   0.049   6.375   4.922  0.2333  0.2328 -0.3889
51408SOL    HW172216   0.028   6.393   4.830  1.6058  0.7991 -0.6215
51408SOL    HW272217   0.083   6.458   4.955 -1.0200  0.2691  0.8914
51409SOL     OW72218  10.777   4.421  12.371  0.1087  0.5242 -0.2641
51409SOL    HW172219  10.785   4.408  12.277  1.1311  0.4252 -0.1750
51409SOL    HW272220  10.855   4.471  12.395 -1.2201  2.4830  0.1882
51410SOL     OW72221   3.636  13.927  10.481 -0.0113 -0.1933  0.5826
51410SOL    HW172222   3.566  13.952  10.541  0.9116  0.5485  1.3842
51410SOL    HW272223   3.715  13.927  10.535  0.8066  0.2393 -0.5758
51411SOL     OW72224   7.879   7.395  13.485  0.0538  0.6870  0.4690
51411SOL    HW172225   7.875   7.316  13.430 -1.8493  1.0870 -0.0274
51411SOL    HW272226   7.819   7.457  13.443 -0.6659  1.3821  2.4225
51412SOL     OW72227  12.144  13.176   7.158  0.4726 -0.9586  0.0965
51412SOL    HW172228  12.085  13.149   7.088 -0.0585  1.5789 -0.5409
51412SOL    HW272229  12.087  13.197   7.232  0.7234 -0.2172  0.0840
51413SOL     OW72230   3.086   9.149   8.607  0.0041  0.3780  0.3499
51413SOL    HW172231   3.178   9.140   8.629  0.1238 -0.8199 -0.5017
51413SOL    HW272232   3.041   9.151   8.691  0.6216 -1.5645  0.8014
51414SOL     OW72233   9.139   4.281   0.847 -0.2896  0.0413 -0.1308
51414SOL    HW172234   9.132   4.282   0.751  0.3266 -0.7154 -0.1882
51414SOL    HW272235   9.233   4.279   0.864 -0.4066 -0.2709  0.4885
51415SOL     OW72236  13.530  10.750   2.251 -0.1860  0.1790 -0.6947
51415SOL    HW172237  13.592  10.682   2.280 -2.7158 -2.6414 -1.3490
51415SOL    HW272238  13.498  10.789   2.332  0.4329 -0.2468 -0.2314
51416SOL     OW72239   1.527  11.980  12.313  0.3190 -0.4048  0.5168
51416SOL    HW172240   1.555  12.011  12.400 -1.1256 -0.4812  1.0409
51416SOL    HW272241   1.449  11.927  12.331 -0.0262 -0.3800 -0.8370
51417SOL     OW72242   0.523   7.940   8.873 -0.4145 -0.2889 -0.4068
51417SOL    HW172243   0.512   7.980   8.787 -2.4223 -1.2070 -0.6284
51417SOL    HW272244   0.476   7.998   8.933  0.3453 -0.0506 -0.0237
51418SOL     OW72245   7.926   5.146   2.067 -0.4287  0.6441 -0.3640
51418SOL    HW172246   8.003   5.196   2.093  0.8457 -0.9164 -0.9958
51418SOL    HW272247   7.914   5.168   1.974  0.1432 -0.2000 -0.6467
51419SOL     OW72248   2.769   4.558   8.818 -0.2224 -0.2459  0.2187
51419SOL    HW172249   2.724   4.488   8.867 -1.0510 -0.2774 -0.5620
51419SOL    HW272250   2.701   4.594   8.761  0.6041  0.1320 -0.5413
51420SOL     OW72251   1.798   7.016   7.232  0.0715 -0.2748  0.7970
51420SOL    HW172252   1.732   6.948   7.238  1.6689 -2.1486 -1.1559
51420SOL    HW272253   1.760   7.082   7.174  0.2997 -1.9727 -1.4153
51421SOL     OW72254  14.064   6.690   2.174 -0.3548  0.3910 -0.1740
51421SOL    HW172255  14.005   6.740   2.118 -1.2078 -0.0029  0.3666
51421SOL    HW272256  14.007   6.646   2.237  0.0797 -3.4477 -2.2096
51422SOL     OW72257   5.182   2.564   5.018 -0.2439 -0.5734 -0.5321
51422SOL    HW172258   5.206   2.555   5.111  0.9933  0.1225 -0.7653
51422SOL    HW272259   5.119   2.494   5.003 -0.7546 -0.4742  0.9257
51423SOL     OW72260  11.452   6.560   1.900 -0.2200  0.0192 -0.1823
51423SOL    HW172261  11.361   6.567   1.871 -2.0318 -3.8276  3.3436
51423SOL    HW272262  11.491   6.497   1.840 -2.0892 -3.2579  1.6929
51424SOL     OW72263  11.587  13.227  12.126 -0.2690  0.5439  0.0097
51424SOL    HW172264  11.612  13.318  12.114  0.9180  0.2632  0.2784
51424SOL    HW272265  11.650  13.177  12.075 -1.9377 -0.0811 -1.5789
51425SOL     OW72266   1.792   7.909   4.989  0.5191 -0.4601 -0.1549
51425SOL    HW172267   1.802   8.000   4.961 -1.5476 -0.1984 -0.1584
51425SOL    HW272268   1.728   7.913   5.060 -0.5350 -2.0267 -0.9757
51426SOL     OW72269   2.035   8.470   9.783 -0.1779  0.1649 -0.4230
51426SOL    HW172270   1.943   8.471   9.808 -0.0661  0.6673 -0.0194
51426SOL    HW272271   2.052   8.379   9.759 -0.1345 -0.5338  1.9731
51427SOL     OW72272  10.149   8.264   3.777  0.6749  0.1713 -0.2896
51427SOL    HW172273  10.203   8.327   3.825 -1.3125  1.3435  0.5302
51427SOL    HW272274  10.073   8.314   3.748 -1.9858 -2.1667  2.0438
51428SOL     OW72275  13.523   5.665   9.724  0.4286 -0.3168 -0.3885
51428SOL    HW172276  13.550   5.603   9.655  2.8922  1.4928 -1.1898
51428SOL    HW272277  13.589   5.734   9.721 -1.3712  1.6182  1.4789
51429SOL     OW72278  13.656   3.422   0.000  0.0207 -0.0717 -0.3701
51429SOL    HW172279  13.596   3.354   0.031 -0.9233  0.6165 -0.6389
51429SOL    HW272280  13.602   3.478  -0.056  1.8747 -1.8856 -4.2988
51430SOL     OW72281   1.903   0.246   7.800 -0.4590 -0.3695  0.6340
51430SOL    HW172282   1.872   0.334   7.779  1.9456  0.2184 -0.8347
51430SOL    HW272283   1.967   0.226   7.731  0.7162 -2.3442  2.1805
51431SOL     OW72284   0.099   0.632  10.177  0.3021 -0.0401 -0.0328
51431SOL    HW172285   0.097   0.554  10.122  4.3527  0.5810 -1.3300
51431SOL    HW272286   0.079   0.704  10.117  1.0131  0.3164  0.1567
51432SOL     OW72287   9.576   6.995  14.157 -0.3350  0.1515 -0.7731
51432SOL    HW172288   9.544   6.960  14.074  0.1889  0.9721 -1.3357
51432SOL    HW272289   9.615   6.920  14.202  3.2145  0.3280 -3.1035
51433SOL     OW72290   6.927  12.779   9.309  1.1458 -0.3121 -0.2897
51433SOL    HW172291   6.893  12.818   9.229  2.9148  1.3359 -0.3191
51433SOL    HW272292   6.894  12.835   9.379  2.3770  0.3302 -0.1939
51434SOL     OW72293   8.971   9.662   3.523  0.2396 -0.2827 -0.2383
51434SOL    HW172294   9.000   9.697   3.439  0.6996 -0.5283 -0.1860
51434SOL    HW272295   9.004   9.725   3.588  1.4728 -1.0280 -0.1076
51435SOL     OW72296  13.931   2.793  13.901  0.2587 -0.7057  0.0264
51435SOL    HW172297  13.959   2.808  13.991 -0.9871  0.9401  0.1970
51435SOL    HW272298  13.944   2.700  13.886 -0.2302 -1.1648  2.1742
51436SOL     OW72299  10.144   5.782   9.265 -0.0035 -0.0277  0.4890
51436SOL    HW172300  10.080   5.814   9.329 -0.6376  2.1975 -1.1246
51436SOL    HW272301  10.227   5.783   9.312 -0.6855 -0.0295  1.7405
51437SOL     OW72302   8.912   1.376   2.242 -0.4419 -0.1052  0.0984
51437SOL    HW172303   8.871   1.304   2.195 -2.1491  1.4150 -0.8882
51437SOL    HW272304   8.865   1.454   2.211  0.5605  1.3071  1.9563
51438SOL     OW72305  11.349   5.067   2.401  0.2675  0.4501 -0.1406
51438SOL    HW172306  11.301   5.146   2.426  0.6908  0.7500 -0.2620
51438SOL    HW272307  11.282   5.007   2.367 -0.0372  0.8125 -0.1788
51439SOL     OW72308   8.676   7.764  12.726  0.2144  0.4423  0.6232
51439SOL    HW172309   8.765   7.768  12.692  0.1765  0.7797  0.5605
51439SOL    HW272310   8.675   7.828  12.798  0.3491 -0.3967  1.3967
51440SOL     OW72311  11.131  12.719  11.841 -0.4087  0.5957  0.5176
51440SOL    HW172312  11.173  12.794  11.884  0.3170  0.6992 -0.3395
51440SOL    HW272313  11.067  12.758  11.782 -0.0666  0.5387  0.1083
51441SOL     OW72314   7.359   4.544   3.224 -0.0790  0.3495 -0.7434
51441SOL    HW172315   7.405   4.588   3.295  0.3404 -1.5261  0.2270
51441SOL    HW272316   7.408   4.462   3.212 -2.5418 -1.2870 -0.3564
51442SOL     OW72317   2.956   2.643   0.147 -0.4087  0.3459  0.6711
51442SOL    HW172318   2.942   2.643   0.053 -0.9439  0.4428  0.7479
51442SOL    HW272319   2.902   2.571   0.180  1.8943 -1.5227  0.6218
51443SOL     OW72320   0.636  12.474   6.180 -0.1271  0.5124  0.4253
51443SOL    HW172321   0.560  12.502   6.131  1.1231  1.1073 -1.2533
51443SOL    HW272322   0.628  12.517   6.265 -3.0017 -1.5678  1.3625
51444SOL     OW72323   3.538   7.015  11.708 -0.3671  0.1869  0.0679
51444SOL    HW172324   3.536   7.102  11.667  0.3543  0.1454 -0.0685
51444SOL    HW272325   3.607   7.021  11.774  1.9113 -1.1624 -2.0236
51445SOL     OW72326   5.201   2.649  12.895  0.1388 -0.2535 -0.1577
51445SOL    HW172327   5.201   2.570  12.950  0.9568  0.6878  1.2580
51445SOL    HW272328   5.271   2.703  12.931 -1.0872  1.5958 -0.4229
51446SOL     OW72329   7.686   1.723   2.956  0.3269  0.1639 -0.3424
51446SOL    HW172330   7.703   1.654   2.892  0.6271 -0.5883  0.5320
51446SOL    HW272331   7.591   1.724   2.965  0.4205 -1.8013  1.3954
51447SOL     OW72332   7.232   3.277  10.312  0.6001  0.1282 -0.5214
51447SOL    HW172333   7.253   3.364  10.346  2.6556 -0.8247  0.8869
51447SOL    HW272334   7.209   3.226  10.390 -1.1404 -0.4999 -1.3812
51448SOL     OW72335   6.947   2.950  13.937 -0.1004  0.0932  0.4018
51448SOL    HW172336   6.932   2.937  14.031  0.0577 -0.5179  0.3437
51448SOL    HW272337   7.037   2.981  13.931  1.0805 -3.0454  0.2297
51449SOL     OW72338   5.592  12.449   6.453 -0.3427  0.0872 -0.5407
51449SOL    HW172339   5.645  12.378   6.418  1.5723  0.5413  1.2501
51449SOL    HW272340   5.618  12.456   6.545 -4.1904 -0.2419  0.7403
51450SOL     OW72341  10.605   5.929   2.758  0.2150  0.6212  0.5102
51450SOL    HW172342  10.700   5.927   2.764  0.2207  0.4965  0.3907
51450SOL    HW272343  10.575   5.870   2.828  0.2186  0.8011  0.6661
51451SOL     OW72344   3.963   4.648  11.430 -0.5820 -0.4153 -0.3030
51451SOL    HW172345   3.896   4.698  11.475 -0.2988  1.1812 -1.5793
51451SOL    HW272346   3.944   4.660  11.337  1.7881  0.5987 -0.7374
51452SOL     OW72347   8.121   1.777   9.076 -0.8542  0.0565 -0.1330
51452SOL    HW172348   8.064   1.701   9.092 -0.7453  0.0609  0.2858
51452SOL    HW272349   8.067   1.836   9.024 -1.1848 -0.0068  0.1274
51453SOL     OW72350   2.345   2.420   7.579 -0.5432  0.5404  0.0441
51453SOL    HW172351   2.391   2.443   7.498 -0.5437  0.7186  0.0936
51453SOL    HW272352   2.410   2.377   7.633 -0.6903 -0.1011 -0.2818
51454SOL     OW72353  12.421   0.915  10.622 -0.0062 -0.2051 -0.5404
51454SOL    HW172354  12.503   0.869  10.639  0.1124  0.1079 -0.2670
51454SOL    HW272355  12.446   0.994  10.574 -0.0665  0.2775  0.2148
51455SOL     OW72356  10.235  11.781  10.032  0.3531 -0.0760  0.4261
51455SOL    HW172357  10.215  11.727   9.956  0.9896 -2.0626  1.5793
51455SOL    HW272358  10.190  11.738  10.105 -1.5531  2.6529  0.9908
51456SOL     OW72359   2.203   1.602   2.538  0.1855 -0.2062  0.1142
51456SOL    HW172360   2.281   1.571   2.583  0.3977  0.0291 -0.0915
51456SOL    HW272361   2.145   1.632   2.609  0.3619 -0.1907  0.2527
51457SOL     OW72362  12.452   6.941   1.862  0.1292  0.4431 -0.0776
51457SOL    HW172363  12.540   6.920   1.896 -0.0441 -1.4884 -0.7137
51457SOL    HW272364  12.434   6.873   1.798 -1.7020  1.0245 -0.2375
51458SOL     OW72365  10.783  11.705  10.446 -0.5555  0.7688 -0.2715
51458SOL    HW172366  10.749  11.617  10.458 -0.2261  0.7499  0.5898
51458SOL    HW272367  10.857  11.695  10.387  1.7559 -0.1023  2.5369
51459SOL     OW72368  12.022   8.338   1.441  0.3252  0.1680  0.3205
51459SOL    HW172369  12.109   8.378   1.442  0.8952 -0.9959  1.5387
51459SOL    HW272370  11.963   8.408   1.468  0.7983  1.0983 -0.9519
51460SOL     OW72371  14.045  10.039   0.066  0.1856 -0.2274 -1.2200
51460SOL    HW172372  14.086  10.122   0.089 -1.9017  1.0464 -1.7830
51460SOL    HW272373  14.108   9.995   0.010  0.9429  1.4640 -1.7553
51461SOL     OW72374  10.272   8.741   5.577 -0.2425  0.5439 -0.0554
51461SOL    HW172375  10.309   8.661   5.615 -3.5300 -0.8124  0.5703
51461SOL    HW272376  10.342   8.774   5.520  2.5869 -0.7256  2.4089
51462SOL     OW72377  10.332  12.274  10.974  0.2622  0.0609 -0.3783
51462SOL    HW172378  10.383  12.277  11.055  0.1119  0.8060 -0.3029
51462SOL    HW272379  10.277  12.352  10.977 -0.9697 -0.7719 -0.4147
51463SOL     OW72380   8.656   4.457   1.912 -0.0461  0.3598  0.3517
51463SOL    HW172381   8.653   4.362   1.924 -0.8417  0.5397  1.7655
51463SOL    HW272382   8.714   4.488   1.980 -0.9829  1.0085  0.8779
51464SOL     OW72383  14.009   2.950  13.708 -0.2613  0.1067  0.2503
51464SOL    HW172384  13.988   2.899  13.786  2.2091 -2.8574 -0.8295
51464SOL    HW272385  14.009   3.041  13.739 -1.9165 -0.6967  3.0174
51465SOL     OW72386  11.643   0.449   0.621 -0.0117 -0.1568 -0.3132
51465SOL    HW172387  11.679   0.483   0.703 -2.3262 -0.8707  1.0970
51465SOL    HW272388  11.565   0.502   0.604  0.7265  0.3643 -2.4340
51466SOL     OW72389  13.506  13.938   4.548 -0.0998 -0.3145  0.7102
51466SOL    HW172390  13.528  14.016   4.599  0.3702 -0.6636  1.0538
51466SOL    HW272391  13.410  13.937   4.546 -0.1229 -0.2132  1.4761
51467SOL     OW72392  13.358  11.942   0.314  0.7054 -0.5754  0.6298
51467SOL    HW172393  13.368  12.027   0.271  0.3078 -0.3612  0.9529
51467SOL    HW272394  13.354  11.962   0.408  0.2998 -0.9160  0.6909
51468SOL     OW72395  10.237   6.025  11.541 -0.5831  0.2426 -0.3289
51468SOL    HW172396  10.146   5.996  11.537 -0.0511 -1.5873 -0.2879
51468SOL    HW272397  10.233   6.120  11.531 -2.4721  0.1796 -0.4858
51469SOL     OW72398  14.115   1.187   9.686 -0.4638  0.1476  0.0621
51469SOL    HW172399  14.167   1.107   9.685 -0.7346 -0.0336 -1.1576
51469SOL    HW272400  14.179   1.258   9.693 -0.1529 -0.1244 -0.0363
51470SOL     OW72401  11.942   4.361   5.411 -0.2661 -0.3211 -0.0711
51470SOL    HW172402  11.892   4.357   5.492 -0.9488  1.5350 -0.3328
51470SOL    HW272403  11.875   4.360   5.342  0.3045 -1.8411 -0.6427
51471SOL     OW72404  12.459   1.937  11.071 -0.1919 -0.0920 -0.2710
51471SOL    HW172405  12.537   1.931  11.125 -1.7814 -0.0580  2.2106
51471SOL    HW272406  12.415   1.852  11.084 -0.5913 -0.1128 -1.6056
51472SOL     OW72407  10.483  13.742   6.003 -0.3679  0.1665  0.2873
51472SOL    HW172408  10.395  13.754   5.966 -0.3865 -0.7417  0.0123
51472SOL    HW272409  10.469  13.687   6.079  0.2444 -2.3853 -1.3311
51473SOL     OW72410   6.498   9.038  12.294 -0.1510 -0.0073 -0.2573
51473SOL    HW172411   6.576   8.992  12.262 -0.9508 -1.2855 -0.4325
51473SOL    HW272412   6.531   9.123  12.322  1.8378 -1.4506  2.2745
51474SOL     OW72413   9.745  11.082  12.299  0.3104  0.1542  0.3771
51474SOL    HW172414   9.704  11.145  12.239 -3.1023 -1.2021  1.0679
51474SOL    HW272415   9.785  11.017  12.241 -0.6552  0.2436 -0.4259
51475SOL     OW72416  12.275   8.254  13.118 -0.3689 -0.5207  0.1681
51475SOL    HW172417  12.322   8.191  13.173  1.7215  0.4165 -0.4474
51475SOL    HW272418  12.228   8.309  13.181  1.3353  0.0392  1.0200
51476SOL     OW72419   4.062   7.831  11.668  0.1933 -0.0972  0.4527
51476SOL    HW172420   4.025   7.906  11.620 -2.1491 -0.8443  0.9943
51476SOL    HW272421   4.151   7.860  11.691  0.0226  1.7723 -0.9600
51477SOL     OW72422   4.138   4.284  12.852  0.0174  0.2329  0.1040
51477SOL    HW172423   4.048   4.301  12.823  0.3147 -0.8916 -1.6684
51477SOL    HW272424   4.131   4.202  12.902 -0.4236  1.9446  3.0819
51478SOL     OW72425  13.662  11.618   1.439 -0.2686  0.1151  0.2400
51478SOL    HW172426  13.585  11.584   1.484  0.0488 -0.8396  0.0875
51478SOL    HW272427  13.721  11.644   1.509  0.2735 -1.4769  0.4227
51479SOL     OW72428   4.504   6.314   5.198 -0.4721 -0.4963  0.0116
51479SOL    HW172429   4.423   6.290   5.153  0.2690  0.0676 -1.7319
51479SOL    HW272430   4.562   6.239   5.183 -0.2203 -0.3082  0.0400
51480SOL     OW72431  12.425   6.999   2.387  0.3951  0.2186 -0.5257
51480SOL    HW172432  12.350   6.939   2.383 -0.6233  1.2617  1.1849
51480SOL    HW272433  12.495   6.948   2.427 -0.1373 -0.1504 -0.0472
51481SOL     OW72434   7.348   0.622   6.043 -0.7279  0.9093 -0.0952
51481SOL    HW172435   7.364   0.716   6.029 -0.1711  0.5731 -1.9257
51481SOL    HW272436   7.257   0.619   6.075 -0.1517  2.1784  1.8771
51482SOL     OW72437   0.058  10.730  10.294 -0.7299  0.2141 -0.2681
51482SOL    HW172438   0.066  10.656  10.355 -0.6864 -1.0804 -1.7860
51482SOL    HW272439  -0.033  10.757  10.301 -0.4628  0.8419  1.1770
51483SOL     OW72440   0.076   4.122   5.441 -0.0846 -0.0178  0.2882
51483SOL    HW172441   0.059   4.111   5.347  1.1520 -1.6187  0.2130
51483SOL    HW272442  -0.011   4.113   5.482 -0.2697 -2.4399 -0.4849
51484SOL     OW72443   5.123   0.534   7.212  0.1175 -0.4153  0.1027
51484SOL    HW172444   5.167   0.619   7.215  0.3201 -0.5329  0.5243
51484SOL    HW272445   5.107   0.511   7.303  0.7412 -1.1730  0.0341
51485SOL     OW72446   0.887   0.214   2.665 -0.3196  0.4876 -0.1073
51485SOL    HW172447   0.873   0.294   2.716 -1.3345  1.1475 -1.3822
51485SOL    HW272448   0.935   0.243   2.588 -1.2465 -0.0082 -0.8857
51486SOL     OW72449   0.847   0.284  13.502 -0.0064 -0.2633 -0.1053
51486SOL    HW172450   0.837   0.314  13.592 -0.4590 -0.8219  0.0355
51486SOL    HW272451   0.791   0.206  13.496  0.0369 -0.2460 -0.8573
51487SOL     OW72452   1.300   7.009  10.024 -0.2399 -0.2117 -0.2481
51487SOL    HW172453   1.221   7.052  10.058  0.2188  0.6654 -0.2676
51487SOL    HW272454   1.288   7.006   9.929 -0.7656 -1.1462 -0.1674
51488SOL     OW72455   9.203  12.241   7.444  0.0955  0.3966  0.0264
51488SOL    HW172456   9.158  12.226   7.527 -0.4333  2.0217  0.0776
51488SOL    HW272457   9.189  12.334   7.426  1.2535  0.3522 -1.2722
51489SOL     OW72458   9.697   3.978   1.145  0.3511 -0.4099  0.1289
51489SOL    HW172459   9.734   4.013   1.226  1.7570 -3.3285  0.9047
51489SOL    HW272460   9.770   3.978   1.083  1.1230 -3.6978  0.8320
51490SOL     OW72461   6.978  13.059  13.095 -0.4057 -0.5405  0.2603
51490SOL    HW172462   6.941  13.066  13.006  4.4865  3.0961 -1.9642
51490SOL    HW272463   7.046  12.992  13.087  1.7408  1.5027  0.3284
51491SOL     OW72464   7.716   6.119   9.534 -0.9426 -0.0892  0.3462
51491SOL    HW172465   7.736   6.029   9.559 -0.4266  0.6899  3.0945
51491SOL    HW272466   7.755   6.129   9.447 -0.3221 -2.2661  0.3159
51492SOL     OW72467   9.752   2.471   6.258 -0.1039 -0.1591  0.2689
51492SOL    HW172468   9.660   2.457   6.279 -1.5177  1.0434 -4.0814
51492SOL    HW272469   9.771   2.558   6.294 -0.6333 -0.4232  1.2180
51493SOL     OW72470  11.125  13.081   1.602 -0.1537 -0.1795  0.4813
51493SOL    HW172471  11.120  12.985   1.604 -0.9254 -0.1534  2.8962
51493SOL    HW272472  11.198  13.102   1.660  0.5814  0.7130 -0.7198
51494SOL     OW72473   9.470  12.389  12.617 -0.0607 -0.3523 -0.2153
51494SOL    HW172474   9.555  12.432  12.620  0.1056 -0.7049  0.4395
51494SOL    HW272475   9.488  12.298  12.642 -0.7382 -0.2503  0.6873
51495SOL     OW72476   9.768   5.406   2.091  0.6481  0.6097  0.5154
51495SOL    HW172477   9.812   5.322   2.084 -0.1949  0.1340  0.7331
51495SOL    HW272478   9.788   5.452   2.009  2.3255  0.8114  1.0121
51496SOL     OW72479   9.165   7.323   6.841 -0.0543 -0.4227 -0.2983
51496SOL    HW172480   9.135   7.407   6.806 -0.5651 -0.0867  0.8715
51496SOL    HW272481   9.085   7.271   6.849  0.2666 -1.0415 -1.0415
51497SOL     OW72482   8.193  12.608   6.465 -0.6169  0.2318  0.1970
51497SOL    HW172483   8.230  12.537   6.414  0.9715  0.3534  1.1221
51497SOL    HW272484   8.107  12.576   6.493 -0.5193 -0.7405 -0.5774
51498SOL     OW72485   8.127   8.882   8.841  0.2266 -0.0178  0.4446
51498SOL    HW172486   8.112   8.835   8.923  0.5380 -3.1575 -1.1398
51498SOL    HW272487   8.210   8.927   8.855 -0.2762  0.4729  2.2020
51499SOL     OW72488   8.368   9.314   9.299 -0.0070 -0.2285 -0.2944
51499SOL    HW172489   8.431   9.352   9.237  1.2070 -0.6019  0.6654
51499SOL    HW272490   8.308   9.385   9.319  0.1939  0.1866 -1.1196
51500SOL     OW72491   5.336   3.886   5.290  0.4903  0.0714 -0.2699
51500SOL    HW172492   5.265   3.923   5.343  1.5656  0.2121  1.1026
51500SOL    HW272493   5.293   3.819   5.237 -1.4250  2.7241 -2.3719
51501SOL     OW72494   8.375   2.148   2.492  0.3589 -0.7913 -0.0076
51501SOL    HW172495   8.391   2.054   2.484  3.7071 -0.5713  2.1420
51501SOL    HW272496   8.282   2.155   2.516  0.0469 -3.5215 -0.1701
51502SOL     OW72497   9.017   9.159  13.779 -0.2781  0.1214 -0.6547
51502SOL    HW172498   8.967   9.137  13.700 -0.7956  1.7211 -0.8243
51502SOL    HW272499   9.025   9.255  13.776 -0.8824  0.2993  1.5746
51503SOL     OW72500   7.543  14.092   7.513 -0.1313 -0.1622  0.5107
51503SOL    HW172501   7.623  14.064   7.558 -1.0041 -0.9944  1.6169
51503SOL    HW272502   7.476  14.091   7.581 -1.2026 -0.0312 -0.5109
51504SOL     OW72503   0.733   6.445  10.434 -0.2882  0.2180  0.1633
51504SOL    HW172504   0.765   6.482  10.351 -2.2975  0.9013 -0.3679
51504SOL    HW272505   0.638   6.440  10.423 -0.4907 -0.9594  1.9430
51505SOL     OW72506  13.439   0.499  12.135 -0.1894 -0.0117  0.5312
51505SOL    HW172507  13.498   0.424  12.145  0.8419  0.6390 -0.4265
51505SOL    HW272508  13.470   0.544  12.056 -0.5402  1.6333  1.2815
51506SOL     OW72509   9.347   0.113   1.657  0.5968 -0.5900  0.3307
51506SOL    HW172510   9.386   0.126   1.743  1.6615 -2.3373  0.1621
51506SOL    HW272511   9.257   0.143   1.666  1.2189  1.0792  1.4827
51507SOL     OW72512   9.127   6.996   9.225  0.2146 -0.6725  0.0069
51507SOL    HW172513   9.202   6.950   9.187  0.1085  0.1835 -1.2788
51507SOL    HW272514   9.123   7.079   9.178 -1.3019 -0.5336  0.3325
51508SOL     OW72515   7.714   2.473   0.687 -0.4088  0.7367 -0.2679
51508SOL    HW172516   7.634   2.503   0.644 -3.4892 -3.8735  1.6096
51508SOL    HW272517   7.718   2.524   0.768 -1.9805  0.4380  0.0242
51509SOL     OW72518   6.743  13.837   9.140 -0.2651  1.0863 -0.1887
51509SOL    HW172519   6.660  13.884   9.127 -1.1569 -0.0626  1.1537
51509SOL    HW272520   6.774  13.867   9.226 -0.0256  0.4117 -0.0387
51510SOL     OW72521   5.734   9.279   3.158  0.1092  0.1158  0.3308
51510SOL    HW172522   5.755   9.267   3.250  2.1271  1.7009  0.1404
51510SOL    HW272523   5.810   9.325   3.122 -1.9697  2.3991 -1.4463
51511SOL     OW72524   4.119   3.329   5.270 -0.2169 -0.4744  0.6721
51511SOL    HW172525   4.039   3.278   5.259 -0.2550 -0.1945 -0.5356
51511SOL    HW272526   4.090   3.410   5.312 -0.2101 -1.2594  2.2604
51512SOL     OW72527   3.802   2.334   0.395  0.3524 -0.2208 -0.1988
51512SOL    HW172528   3.808   2.423   0.431 -2.2822  0.2804 -0.7276
51512SOL    HW272529   3.842   2.341   0.308  0.8025  0.2618  0.0384
51513SOL     OW72530   9.784   8.674   3.820 -0.3172 -0.2373 -0.5527
51513SOL    HW172531   9.738   8.590   3.817 -2.6156  0.8937  0.6179
51513SOL    HW272532   9.772   8.705   3.909 -0.8064  2.0064 -1.3379
51514SOL     OW72533  13.996  12.112   9.474  0.9699  0.4766 -0.4419
51514SOL    HW172534  14.012  12.059   9.396  0.9223  1.3771 -1.0856
51514SOL    HW272535  13.930  12.176   9.446  1.2354  1.0533  0.2274
51515SOL     OW72536   5.931   4.588   0.515 -0.4407  0.4007 -0.3887
51515SOL    HW172537   5.963   4.656   0.456  1.7255  0.1257  0.3905
51515SOL    HW272538   5.974   4.508   0.486 -2.4742 -0.5835 -0.8957
51516SOL     OW72539   2.086  12.872   0.461 -0.1053  0.0603  0.4552
51516SOL    HW172540   2.005  12.923   0.471 -0.5664 -0.7688  1.2156
51516SOL    HW272541   2.129  12.908   0.384 -1.7206 -0.1351 -0.5849
51517SOL     OW72542   8.717  10.432   3.879 -0.4366 -0.1178  0.2508
51517SOL    HW172543   8.734  10.432   3.785  0.8326  0.0797  0.4665
51517SOL    HW272544   8.768  10.505   3.913  0.7212 -1.3940  1.3542
51518SOL     OW72545   7.282   1.002   1.579  0.1041 -0.4976 -0.0379
51518SOL    HW172546   7.206   0.959   1.619  0.2369  0.0444  0.8361
51518SOL    HW272547   7.245   1.060   1.512 -0.1357 -1.3246 -0.6274
51519SOL     OW72548   9.683   2.814   5.252  0.2045 -0.2411  0.2327
51519SOL    HW172549   9.622   2.879   5.288  1.3020  0.4084  0.9869
51519SOL    HW272550   9.722   2.773   5.328  2.2861  0.8796 -0.1450
51520SOL     OW72551   4.539   5.600   4.126 -0.2413 -0.1006 -0.1088
51520SOL    HW172552   4.556   5.655   4.049 -0.3453  0.9948  0.6230
51520SOL    HW272553   4.626   5.570   4.153  0.0358  1.1515  0.4965
51521SOL     OW72554   2.169  13.633   7.724 -0.0239  0.2356 -0.3701
51521SOL    HW172555   2.238  13.570   7.744 -1.0488 -0.1678  2.3064
51521SOL    HW272556   2.092  13.601   7.771 -1.2694  2.1795 -0.9402
51522SOL     OW72557   9.951   9.619   1.079  0.1920  0.3181 -0.0047
51522SOL    HW172558   9.957   9.643   0.987 -0.6197  0.7714  0.0442
51522SOL    HW272559   9.901   9.537   1.079 -1.6211  1.3750  0.1330
51523SOL     OW72560   6.666   7.446   4.341 -0.0863  0.0353 -0.1106
51523SOL    HW172561   6.571   7.436   4.346  0.1585 -2.4203  2.7964
51523SOL    HW272562   6.683   7.538   4.361 -1.8032  0.0590  1.4209
51524SOL     OW72563   3.357   8.101  12.846  0.2152  0.1224 -0.2541
51524SOL    HW172564   3.340   8.049  12.925  0.2518 -0.8145 -0.8473
51524SOL    HW272565   3.316   8.051  12.776  1.9580 -0.1215 -1.1356
51525SOL     OW72566   9.389   1.075   6.759  0.1152  0.0322  0.1373
51525SOL    HW172567   9.369   1.023   6.681  0.3054 -0.0253  0.1269
51525SOL    HW272568   9.483   1.091   6.754 -0.0227  0.7970 -0.1117
51526SOL     OW72569  11.474   7.029  13.029  0.4698 -0.3749  0.0100
51526SOL    HW172570  11.410   6.968  13.066 -0.3111 -0.6214 -1.6559
51526SOL    HW272571  11.489   7.093  13.099 -1.0078 -0.7601  0.7167
51527SOL     OW72572   8.083  10.181  10.092  0.3144  0.9699  0.1783
51527SOL    HW172573   8.085  10.151  10.001  2.2707  1.2358  0.1114
51527SOL    HW272574   7.991  10.168  10.119 -0.0668 -0.0760 -1.4902
51528SOL     OW72575  13.317   3.670   0.918  0.6478  0.2104 -0.3377
51528SOL    HW172576  13.375   3.723   0.973  0.3407  0.3330 -0.1332
51528SOL    HW272577  13.359   3.672   0.831  1.8460 -1.0629  0.1616
51529SOL     OW72578   6.231   1.289   8.907 -0.1265 -0.0219  0.4152
51529SOL    HW172579   6.267   1.373   8.936 -0.4373 -0.6875  2.9230
51529SOL    HW272580   6.137   1.297   8.923 -0.5108 -0.0101 -1.6404
51530SOL     OW72581  12.981   7.969  13.108  0.5875 -0.1646 -0.3185
51530SOL    HW172582  13.001   7.940  13.196  0.6780 -0.2390 -0.3625
51530SOL    HW272583  12.912   8.034  13.119 -0.4700 -1.2529 -0.3015
51531SOL     OW72584   2.209   2.113  12.730  0.5052 -0.5690 -0.1362
51531SOL    HW172585   2.184   2.197  12.768  0.1022 -0.8422  0.2160
51531SOL    HW272586   2.132   2.085  12.680 -0.0255 -1.5630  1.2030
51532SOL     OW72587   0.020  10.945  13.842 -0.6492 -0.3293  0.3683
51532SOL    HW172588  -0.060  10.911  13.802 -1.8449 -0.5024  2.7005
51532SOL    HW272589  -0.006  11.030  13.877  0.3986 -0.0630  0.5099
51533SOL     OW72590   5.675   4.317   5.507  0.1475  0.3249  0.4693
51533SOL    HW172591   5.681   4.397   5.455 -0.2341 -1.2799 -2.2366
51533SOL    HW272592   5.644   4.250   5.446  0.9607 -2.0451  2.4524
51534SOL     OW72593  13.942   0.624  12.842  0.0821  0.1595 -0.1222
51534SOL    HW172594  13.862   0.653  12.798 -0.9411 -0.0520  1.4968
51534SOL    HW272595  13.939   0.667  12.928  1.3630 -0.3905  0.2251
51535SOL     OW72596  12.275   5.195  13.638  0.4725  0.2813 -0.2165
51535SOL    HW172597  12.217   5.172  13.566  1.1435 -1.3651 -0.2683
51535SOL    HW272598  12.305   5.284  13.618  0.3901 -0.0283 -1.7993
51536SOL     OW72599   9.528   1.799   5.975 -0.0241  0.4174  0.4023
51536SOL    HW172600   9.517   1.854   6.053 -0.7174 -0.1449  0.7095
51536SOL    HW272601   9.608   1.832   5.934  2.3481 -1.4346  3.1416
51537SOL     OW72602   6.800   0.293   2.596  0.5376  0.9179 -0.1440
51537SOL    HW172603   6.786   0.201   2.573  0.3605  0.5538  1.3502
51537SOL    HW272604   6.755   0.304   2.679  3.0102  1.5946  1.2011
51538SOL     OW72605   9.019  13.764  12.920  0.6984  0.4849 -0.7233
51538SOL    HW172606   9.028  13.843  12.975  0.7393 -0.0462  0.0479
51538SOL    HW272607   9.106  13.749  12.886  1.5758 -1.2090  1.9412
51539SOL     OW72608  13.396   0.431   6.306  0.3627  0.2043  0.6582
51539SOL    HW172609  13.328   0.402   6.367 -0.6751  0.3093 -0.4167
51539SOL    HW272610  13.476   0.392   6.339 -0.6981 -2.5195  0.2403
51540SOL     OW72611  12.680   8.204   0.625  0.7883 -0.1372 -0.4535
51540SOL    HW172612  12.690   8.234   0.716  0.5145 -0.0356 -0.4548
51540SOL    HW272613  12.604   8.253   0.593  0.9934 -0.0445 -0.7930
51541SOL     OW72614  12.035   6.981   1.563  0.0270  0.1356  0.2183
51541SOL    HW172615  11.980   6.905   1.579 -2.0935  1.4303 -0.5686
51541SOL    HW272616  12.083   6.993   1.645  0.8986 -2.3607  0.1528
51542SOL     OW72617   5.114   5.644  14.071 -0.3947  0.2542 -0.3940
51542SOL    HW172618   5.073   5.616  13.989 -0.5947 -0.4018 -0.0732
51542SOL    HW272619   5.154   5.565  14.106  1.9385  1.0420 -1.1156
51543SOL     OW72620   8.936   0.967   0.808 -0.6683 -0.5994  0.1678
51543SOL    HW172621   8.978   0.897   0.758  3.0063  0.7470  1.0368
51543SOL    HW272622   8.872   0.921   0.863  0.9189 -3.2044  0.0523
51544SOL     OW72623   7.685   9.550  12.731  0.0380 -0.4480 -0.3628
51544SOL    HW172624   7.741   9.504  12.669  1.0349 -1.2593  1.0815
51544SOL    HW272625   7.710   9.515  12.816 -3.0021 -1.2421  0.3477
51545SOL     OW72626   2.202  13.588   1.577  0.1686 -0.1929  0.3485
51545SOL    HW172627   2.191  13.505   1.623  1.0925 -0.4388  0.1416
51545SOL    HW272628   2.236  13.565   1.491  3.7382  0.4840  1.3854
51546SOL     OW72629   9.009   2.524  10.875 -0.3991 -0.7431 -0.4707
51546SOL    HW172630   8.970   2.463  10.938  0.3282 -0.1627  0.5746
51546SOL    HW272631   9.043   2.467  10.805 -0.8847 -1.4291 -0.1575
51547SOL     OW72632  13.186   7.582   8.968 -0.1263  0.6577 -0.3615
51547SOL    HW172633  13.236   7.506   8.996  1.7287  1.5723 -1.0685
51547SOL    HW272634  13.219   7.602   8.881 -2.6831  0.5275 -1.4698
51548SOL     OW72635  13.668   4.667   0.708  0.6167 -0.0458  0.4760
51548SOL    HW172636  13.712   4.597   0.755  1.5077  1.0146  1.2538
51548SOL    HW272637  13.702   4.748   0.745  0.3779  0.8354 -1.0961
51549SOL     OW72638  11.291  10.581   9.958 -0.0190 -0.0127 -0.0695
51549SOL    HW172639  11.367  10.591  10.015  0.6433 -0.2149 -0.9003
51549SOL    HW272640  11.220  10.626  10.004  0.3927 -0.5022  1.0991
51550SOL     OW72641  10.027   1.015  12.446  0.1918 -0.2521  0.1235
51550SOL    HW172642  10.050   0.947  12.382  1.2918 -0.2475  0.4865
51550SOL    HW272643   9.935   1.034  12.429  0.6617  0.3610 -2.0263
51551SOL     OW72644   9.395   4.374   2.585 -0.0307 -0.2372  0.0943
51551SOL    HW172645   9.442   4.418   2.514 -1.3148  0.4473 -0.3645
51551SOL    HW272646   9.433   4.286   2.588  1.0015  0.1698 -0.4989
51552SOL     OW72647  12.849   3.738   2.907  0.3145  0.2818  0.1645
51552SOL    HW172648  12.759   3.766   2.888 -0.2734 -1.3669  0.3701
51552SOL    HW272649  12.840   3.653   2.949  1.9809  0.1019  0.2423
51553SOL     OW72650   8.517   7.338   7.127  0.4122  0.3673  0.7563
51553SOL    HW172651   8.521   7.430   7.098  1.1390  0.0994 -0.0413
51553SOL    HW272652   8.485   7.290   7.051 -0.0842 -0.0293  1.2126
51554SOL     OW72653  13.932   4.569  13.646 -0.8118  0.0282 -0.1940
51554SOL    HW172654  13.966   4.591  13.732  1.3335  0.3777 -1.0626
51554SOL    HW272655  13.922   4.653  13.602  0.2918 -0.2566 -1.0266
51555SOL     OW72656  13.463   3.159   8.913 -0.1023  0.3784  0.6343
51555SOL    HW172657  13.539   3.106   8.938 -1.1243 -0.9551  1.0802
51555SOL    HW272658  13.490   3.206   8.834  0.1267 -2.6855 -1.2654
51556SOL     OW72659   0.242  10.631   5.688  0.0331  0.1129 -0.4512
51556SOL    HW172660   0.318  10.575   5.672 -0.4804 -0.7290  0.0067
51556SOL    HW272661   0.170  10.588   5.641 -0.7618 -0.6045  1.3257
51557SOL     OW72662   5.890   9.594   1.432  0.0672 -0.4457 -0.1049
51557SOL    HW172663   5.801   9.628   1.423  0.4814  0.7583  0.1086
51557SOL    HW272664   5.906   9.593   1.526  0.6392  0.3758 -0.1779
51558SOL     OW72665   8.870   9.811   0.286 -0.0745  0.8588  0.1699
51558SOL    HW172666   8.899   9.764   0.364  2.0153 -0.5949 -1.3712
51558SOL    HW272667   8.777   9.791   0.279 -0.0962  0.2800  1.7880
51559SOL     OW72668   8.869   1.461  12.977 -0.1372 -0.1710 -0.1407
51559SOL    HW172669   8.879   1.533  13.038 -1.7860  0.5175 -0.6473
51559SOL    HW272670   8.948   1.465  12.922  0.2210  0.6565  0.4150
51560SOL     OW72671   6.621   9.021  13.864  0.2681  0.0652  0.6019
51560SOL    HW172672   6.666   9.104  13.874 -1.4244  1.0705  0.2781
51560SOL    HW272673   6.560   9.017  13.938 -0.5012 -0.3022 -0.0344
51561SOL     OW72674  12.719   4.439  13.186  0.3107  0.1650 -0.1095
51561SOL    HW172675  12.641   4.459  13.135 -0.5201  2.3673  1.8304
51561SOL    HW272676  12.724   4.343  13.186 -3.0102 -0.1258  0.4941
51562SOL     OW72677   9.004   3.837   2.589  0.0260 -0.5051 -0.1258
51562SOL    HW172678   8.996   3.834   2.493  1.1123  0.8884 -0.2883
51562SOL    HW272679   9.063   3.910   2.606 -1.0389 -0.0200  1.6795
51563SOL     OW72680   8.956   2.184   0.720 -0.4763 -0.2663  0.2641
51563SOL    HW172681   8.876   2.142   0.751  0.5060 -0.7246  2.3693
51563SOL    HW272682   8.979   2.136   0.640 -1.1680 -1.5092  0.7872
51564SOL     OW72683   0.935   2.347   7.837  0.3432 -0.8807 -0.3593
51564SOL    HW172684   0.965   2.419   7.783  3.7666 -0.2873  1.9732
51564SOL    HW272685   0.950   2.269   7.784 -3.4755 -0.1167 -2.9412
51565SOL     OW72686   3.346   4.350   3.551  0.0268  0.3183 -0.5496
51565SOL    HW172687   3.267   4.390   3.586  0.7444  1.1911  0.0962
51565SOL    HW272688   3.339   4.362   3.456  0.9499  3.4366 -0.3125
51566SOL     OW72689  11.418   4.632  11.980 -0.0238 -0.4345 -0.2438
51566SOL    HW172690  11.439   4.714  12.026 -0.3965 -0.8644  0.7206
51566SOL    HW272691  11.464   4.639  11.896  0.9329  0.2434  0.3195
51567SOL     OW72692  13.690   8.362  13.608  0.4724  0.1226  0.0793
51567SOL    HW172693  13.705   8.440  13.662  1.1655  0.1133 -0.0924
51567SOL    HW272694  13.706   8.289  13.667  1.4278  0.1131 -0.1908
51568SOL     OW72695   4.676   3.694  10.490  0.1441  0.1559 -0.4832
51568SOL    HW172696   4.651   3.782  10.463  1.3576  0.0893 -1.9989
51568SOL    HW272697   4.673   3.642  10.409 -0.3131 -1.1390  0.3357
51569SOL     OW72698   3.564   1.734  11.200  0.2549 -0.3208  0.3976
51569SOL    HW172699   3.481   1.775  11.225 -0.6715 -1.5406 -0.6129
51569SOL    HW272700   3.594   1.785  11.125  1.0437  0.8375  1.4423
51570SOL     OW72701   2.141   6.706   0.765 -0.1988 -0.4378  0.0837
51570SOL    HW172702   2.090   6.627   0.746  0.2888 -0.6597 -0.3078
51570SOL    HW272703   2.223   6.674   0.801 -0.3986 -0.0738  0.9136
51571SOL     OW72704   5.920  11.152  12.135  0.3000 -0.3592 -0.3958
51571SOL    HW172705   5.934  11.085  12.069 -1.3805  0.0813 -1.2470
51571SOL    HW272706   6.008  11.170  12.169  1.0184 -1.6239 -1.4676
51572SOL     OW72707   2.013  13.769   4.973  0.2864 -0.5797  0.3285
51572SOL    HW172708   2.086  13.801   4.920 -0.8387 -0.1568 -0.9952
51572SOL    HW272709   2.048  13.768   5.063  1.3773  1.2791 -0.0306
51573SOL     OW72710   5.139  10.707   9.403 -1.0049  0.3364 -0.0003
51573SOL    HW172711   5.052  10.742   9.418 -1.2470 -0.7694  1.3712
51573SOL    HW272712   5.174  10.692   9.491 -0.9623 -2.8723 -0.4515
51574SOL     OW72713   9.890  11.269   1.699 -0.1902 -0.3122  0.5594
51574SOL    HW172714   9.883  11.360   1.727  0.7633  0.1114 -0.4870
51574SOL    HW272715   9.911  11.274   1.606 -2.1605 -1.6417 -0.0328
51575SOL     OW72716   4.220   8.384   9.016 -0.7600 -0.2126  0.2738
51575SOL    HW172717   4.303   8.431   9.007 -0.0165 -1.7009 -1.4884
51575SOL    HW272718   4.243   8.305   9.064 -0.6248 -1.6036 -1.9108
51576SOL     OW72719   9.245  11.180   8.965  0.1652 -0.0087 -0.9519
51576SOL    HW172720   9.339  11.194   8.953  0.6086 -0.3338  1.6602
51576SOL    HW272721   9.229  11.093   8.929  0.6450  0.4169 -2.2522
51577SOL     OW72722   6.945  11.983   7.703 -1.0787  0.2369 -0.1680
51577SOL    HW172723   6.905  11.913   7.754  1.3805 -1.1589  0.0088
51577SOL    HW272724   6.947  11.950   7.613  0.8341 -0.3408  0.0481
51578SOL     OW72725   8.129   8.949   3.785 -0.1607 -0.0238 -0.7005
51578SOL    HW172726   8.159   8.862   3.811 -1.8580 -0.6656 -0.7682
51578SOL    HW272727   8.082   8.983   3.861 -0.6726  0.2614 -1.1364
51579SOL     OW72728  11.007   0.567   9.549  0.1720 -0.2503 -0.1539
51579SOL    HW172729  11.074   0.633   9.534  0.9429 -1.0691 -0.4021
51579SOL    HW272730  10.929   0.602   9.507  1.3417 -0.8592 -3.0785
51580SOL     OW72731   6.923  11.598  10.361 -0.3549  0.3007 -0.5794
51580SOL    HW172732   6.908  11.660  10.290  0.1569  1.0460 -0.0504
51580SOL    HW272733   6.929  11.652  10.440 -0.1716 -0.4434 -0.0709
51581SOL     OW72734   9.310   8.931   0.221 -0.3047 -0.7865  0.3367
51581SOL    HW172735   9.329   8.954   0.312 -0.3970 -1.0168  0.4145
51581SOL    HW272736   9.260   9.005   0.187  2.5491  0.9071 -0.5279
51582SOL     OW72737  10.111   4.206   0.828 -0.0157  0.1270  0.0707
51582SOL    HW172738  10.094   4.112   0.823  2.0766 -0.2580 -0.8001
51582SOL    HW272739  10.168   4.224   0.754 -0.2845  2.0757  0.2994
51583SOL     OW72740   4.671  13.949   1.708  0.3662  0.4677  0.3181
51583SOL    HW172741   4.694  13.860   1.682  1.8155  0.9896 -0.2952
51583SOL    HW272742   4.580  13.959   1.681  0.8946 -0.0313 -1.8738
51584SOL     OW72743   6.531  11.064   6.674  0.0594  0.0296 -0.3549
51584SOL    HW172744   6.442  11.029   6.671  0.5721 -1.7348  1.9019
51584SOL    HW272745   6.572  11.034   6.593 -0.8750 -0.6974 -0.5668
51585SOL     OW72746   4.915   9.895   0.834 -0.6156  0.0680  0.7141
51585SOL    HW172747   4.916   9.877   0.740  0.6996 -0.2438  0.7602
51585SOL    HW272748   4.881   9.984   0.842  2.8449  1.6559 -0.4143
51586SOL     OW72749   9.128  12.893  14.072  0.3370  0.7550 -0.0343
51586SOL    HW172750   9.183  12.933  14.006  0.1401  1.6260  0.3225
51586SOL    HW272751   9.171  12.914  14.155 -0.1422  0.8201  0.1989
51587SOL     OW72752   4.379   1.956  11.610  0.5166  0.2714 -0.0039
51587SOL    HW172753   4.368   2.050  11.623 -1.1979  0.7782 -3.7493
51587SOL    HW272754   4.352   1.916  11.693  0.4048  3.0044  1.3704
51588SOL     OW72755   2.724   3.414   0.208  0.3561  0.0832 -0.1892
51588SOL    HW172756   2.788   3.422   0.279  1.0463 -0.9349 -0.6633
51588SOL    HW272757   2.771   3.444   0.131 -0.5394  1.6282 -0.1726
51589SOL     OW72758   1.192   9.448   0.882  0.0487  0.4208 -0.1592
51589SOL    HW172759   1.261   9.383   0.868 -0.3148 -0.0771  0.3616
51589SOL    HW272760   1.145   9.418   0.959  1.2132  2.4576  1.4393
51590SOL     OW72761   1.807  13.365  11.362 -0.4269  0.0762 -0.4080
51590SOL    HW172762   1.854  13.426  11.418  0.9264 -1.8805  0.6890
51590SOL    HW272763   1.846  13.376  11.275  0.0983  0.4737 -0.1254
51591SOL     OW72764  13.009  13.955  10.027  0.5300  0.9850 -0.2985
51591SOL    HW172765  12.954  14.016   9.979  1.6840  0.8116 -1.9156
51591SOL    HW272766  13.050  14.008  10.096 -0.3690  1.4656 -0.1274
51592SOL     OW72767   0.993  12.652   3.814  0.1446  0.1421 -0.4369
51592SOL    HW172768   1.088  12.646   3.805  0.1559  0.2381 -0.3774
51592SOL    HW272769   0.975  12.746   3.813 -0.0457  0.1064 -1.4779
51593SOL     OW72770  13.707  10.243   4.445 -0.6112  0.0468 -0.2668
51593SOL    HW172771  13.723  10.227   4.538  0.1413  1.4405 -0.1157
51593SOL    HW272772  13.644  10.315   4.444  0.9490  1.4772 -0.7643
51594SOL     OW72773  14.103   5.188  11.019 -0.5286  0.3491 -0.2109
51594SOL    HW172774  14.086   5.132  11.095  0.5098  0.7209  0.3163
51594SOL    HW272775  14.163   5.138  10.965 -1.4282 -0.0003 -0.9161
51595SOL     OW72776   2.118  12.469  13.476 -0.1725  0.8967 -0.5327
51595SOL    HW172777   2.158  12.515  13.550  0.2977  0.2786 -0.3925
51595SOL    HW272778   2.142  12.378  13.490 -0.8568  0.6533 -0.9634
51596SOL     OW72779   0.720   7.011   0.507  0.4570  0.1722  0.3200
51596SOL    HW172780   0.781   6.996   0.580  0.6443 -1.1041 -0.0744
51596SOL    HW272781   0.652   6.945   0.519 -0.8544  1.5483  0.7188
51597SOL     OW72782  13.376   0.823   7.885  0.1052  0.5503  0.1740
51597SOL    HW172783  13.454   0.863   7.923  0.7738  0.1680 -0.7623
51597SOL    HW272784  13.409   0.745   7.840 -0.8052  0.4236 -0.2910
51598SOL     OW72785   1.452   3.843  13.636  0.2150  1.0663  0.4752
51598SOL    HW172786   1.382   3.891  13.681  0.2013 -1.3528  3.4049
51598SOL    HW272787   1.527   3.852  13.694  0.3044 -1.9455  1.0133
51599SOL     OW72788  13.555   1.663   7.994  0.0273  0.4833 -0.1397
51599SOL    HW172789  13.569   1.742   8.045  0.6082  0.6360 -0.5271
51599SOL    HW272790  13.627   1.605   8.018 -1.6754 -0.9133  1.9475
51600SOL     OW72791   2.626   6.811  13.739  0.4092 -0.5282 -0.0708
51600SOL    HW172792   2.555   6.772  13.688  0.5260 -1.5686  0.5354
51600SOL    HW272793   2.640   6.897  13.700 -2.4001  0.4823  0.9161
51601SOL     OW72794   5.639   0.904   8.724  0.3851  0.4075 -0.2291
51601SOL    HW172795   5.600   0.834   8.777  0.4270  0.7298  0.2322
51601SOL    HW272796   5.564   0.942   8.676 -0.1339  1.8780  1.6254
51602SOL     OW72797   9.152   3.204   1.365 -0.1952 -0.7569 -0.5279
51602SOL    HW172798   9.106   3.169   1.442 -0.2864 -1.0901 -0.7328
51602SOL    HW272799   9.243   3.209   1.392 -0.3547 -0.0094 -0.0877
51603SOL     OW72800   8.833   8.463   0.845  0.3057 -0.0692  0.1082
51603SOL    HW172801   8.905   8.461   0.908 -0.3309 -2.4909  0.8685
51603SOL    HW272802   8.870   8.424   0.766  0.2813  0.2332 -0.0541
51604SOL     OW72803   5.932   9.655  11.072  0.3970  0.2695  0.0432
51604SOL    HW172804   6.000   9.648  11.005 -0.5700  2.6446 -1.2670
51604SOL    HW272805   5.945   9.741  11.111 -1.0571  0.2157  0.7052
51605SOL     OW72806   5.957   0.513   9.120 -0.2169 -0.8579  0.0185
51605SOL    HW172807   5.888   0.487   9.059 -0.1994 -2.1831  0.5205
51605SOL    HW272808   5.936   0.466   9.201  0.9974 -0.8928  0.3299
51606SOL     OW72809   7.127  11.448   8.668 -0.0796  0.6988  0.0508
51606SOL    HW172810   7.122  11.485   8.756 -2.0831 -0.9728  0.7442
51606SOL    HW272811   7.118  11.354   8.682  2.9714  0.0218 -1.7485
51607SOL     OW72812  12.216   7.531   2.379 -0.4171  0.0600 -0.3172
51607SOL    HW172813  12.140   7.493   2.424 -0.0340 -0.0695  0.2321
51607SOL    HW272814  12.180   7.568   2.299 -0.6322 -2.8458 -1.7018
51608SOL     OW72815   5.950  11.918  10.459 -0.3634  0.2262 -0.0411
51608SOL    HW172816   5.921  11.853  10.394 -1.3123  0.4675  0.1266
51608SOL    HW272817   5.949  11.870  10.542  1.8798 -0.3876 -0.3173
51609SOL     OW72818   1.313   1.202   8.458  0.1074 -0.4761 -0.4525
51609SOL    HW172819   1.224   1.215   8.424  0.6073  1.6559 -1.1222
51609SOL    HW272820   1.328   1.278   8.515  1.7262 -0.4016 -0.9186
51610SOL     OW72821   8.399   3.950   0.877 -0.1641 -0.6617 -0.1200
51610SOL    HW172822   8.332   3.977   0.940  0.5526  0.1023  0.3485
51610SOL    HW272823   8.351   3.908   0.806 -0.9460 -2.1147  1.2281
51611SOL     OW72824  12.927  10.441   3.453 -0.2269 -0.3462 -0.1054
51611SOL    HW172825  12.995  10.420   3.517  0.0869  0.1274 -0.2791
51611SOL    HW272826  12.889  10.356   3.430 -0.6614 -0.4826  1.0504
51612SOL     OW72827   7.697  12.758   1.827  0.0182  0.1552  0.2257
51612SOL    HW172828   7.630  12.701   1.788 -0.5165  0.5540  0.5405
51612SOL    HW272829   7.665  12.776   1.915  1.1930 -0.6949  0.8469
51613SOL     OW72830   0.351   8.996   2.316 -0.3176 -0.7040  0.2645
51613SOL    HW172831   0.415   8.969   2.251 -0.6857 -1.3603  0.1582
51613SOL    HW272832   0.266   8.978   2.275 -0.5679  0.1107  0.4198
51614SOL     OW72833   1.438  11.657  11.113  0.2329  0.4537  0.8173
51614SOL    HW172834   1.481  11.605  11.045  0.1715  1.0923  0.2762
51614SOL    HW272835   1.347  11.627  11.113  0.1002  0.8412  0.2183
51615SOL     OW72836   0.419   1.732  10.653  0.6099  0.0481  0.3633
51615SOL    HW172837   0.446   1.644  10.678 -2.6316 -1.2005 -0.0665
51615SOL    HW272838   0.387   1.723  10.563 -0.1633  1.5619  0.4570
51616SOL     OW72839   6.998   0.268   6.180 -0.3677 -0.0025 -0.0568
51616SOL    HW172840   7.086   0.254   6.216 -0.5081  0.7297  0.5916
51616SOL    HW272841   6.963   0.180   6.167  0.7628 -0.3255 -1.0918
51617SOL     OW72842   9.444  13.042   4.024 -0.0449  0.1305  0.0347
51617SOL    HW172843   9.448  13.138   4.019  2.5494  0.2122  1.4983
51617SOL    HW272844   9.526  13.018   4.067  0.3199 -2.9043 -2.0534
51618SOL     OW72845   3.750   3.285  11.576  0.5543  0.2101 -0.6495
51618SOL    HW172846   3.678   3.346  11.565  1.1384  1.1468  0.5147
51618SOL    HW272847   3.754   3.269  11.670  1.1062 -0.7852 -0.8239
51619SOL     OW72848   5.041   7.874   4.328 -0.4699 -0.2598  0.0615
51619SOL    HW172849   5.055   7.951   4.273 -0.5893 -0.7158 -0.6277
51619SOL    HW272850   5.125   7.857   4.370 -0.7138  0.8666  1.0573
51620SOL     OW72851  12.790   1.002   6.858  0.1240  0.1282  0.5688
51620SOL    HW172852  12.843   1.032   6.932  1.2698  1.0279 -0.5649
51620SOL    HW272853  12.822   1.053   6.783  0.2955 -2.0252 -0.9385
51621SOL     OW72854   1.510  13.514   3.374  0.2387  0.1564 -0.0364
51621SOL    HW172855   1.508  13.419   3.363  0.4363 -0.0187  1.3138
51621SOL    HW272856   1.593  13.531   3.419 -0.3112  0.8519  0.7354
51622SOL     OW72857  13.190   8.000  10.013 -0.3532  0.7843  0.1188
51622SOL    HW172858  13.142   7.919  10.028  0.5619  0.7125  3.3099
51622SOL    HW272859  13.133   8.069  10.046 -1.5940  1.7403 -3.5465
51623SOL     OW72860   0.710   6.888  14.081  0.3942  0.3883  0.0882
51623SOL    HW172861   0.686   6.852  14.166  0.0816 -0.2363 -0.2527
51623SOL    HW272862   0.665   6.832  14.018  1.1046  0.4648 -0.5027
51624SOL     OW72863   6.438   5.534   7.323  0.1162  0.0339 -0.1017
51624SOL    HW172864   6.405   5.616   7.287  0.4023  0.5355  0.7449
51624SOL    HW272865   6.434   5.546   7.418  0.4779 -0.8053  0.0325
51625SOL     OW72866   1.795   0.377   3.511 -0.6316  0.2883  0.1462
51625SOL    HW172867   1.773   0.431   3.587 -0.7877  0.2793  0.1072
51625SOL    HW272868   1.885   0.402   3.489  0.0468 -0.9359  1.3757
51626SOL     OW72869   9.139   5.385   3.247 -0.4393 -0.2170 -0.1607
51626SOL    HW172870   9.048   5.413   3.253  0.0681  1.2718  1.3596
51626SOL    HW272871   9.158   5.348   3.333  1.3584  2.7873  0.8775
51627SOL     OW72872   3.160  10.155   6.833 -0.1859  0.1962 -0.2013
51627SOL    HW172873   3.114  10.231   6.867 -3.4155 -2.2490  1.5489
51627SOL    HW272874   3.173  10.099   6.910  2.4400 -0.9034 -1.3227
51628SOL     OW72875   8.340   4.787   1.140 -0.2200  0.0911  0.9415
51628SOL    HW172876   8.331   4.702   1.184  0.6325 -0.2597  0.4606
51628SOL    HW272877   8.272   4.787   1.073  0.4303 -0.6634  0.2587
51629SOL     OW72878   4.219   9.810   1.163 -0.5758 -0.5297  0.4968
51629SOL    HW172879   4.266   9.891   1.181  1.0466 -1.6732  1.7006
51629SOL    HW272880   4.183   9.784   1.248  0.2392 -1.8302  0.4770
51630SOL     OW72881   1.400  12.907   3.695  0.3183 -0.2841 -0.0119
51630SOL    HW172882   1.489  12.917   3.661  0.9616  0.9720  1.8726
51630SOL    HW272883   1.403  12.949   3.781 -2.4567  1.0071 -0.4488
51631SOL     OW72884   9.446   0.927  12.053  0.2048 -0.4030 -0.3312
51631SOL    HW172885   9.459   0.991  11.982 -1.3234 -1.0320 -1.2132
51631SOL    HW272886   9.450   0.980  12.133  0.9233  0.4788 -0.9243
51632SOL     OW72887   0.307   1.279   9.315 -0.4143 -0.2713 -0.2278
51632SOL    HW172888   0.385   1.269   9.260 -1.5039 -2.8127 -1.4671
51632SOL    HW272889   0.245   1.327   9.260  0.3690  2.3009  0.9783
51633SOL     OW72890  13.740   9.738   9.823  0.0162  0.4142  0.1059
51633SOL    HW172891  13.676   9.672   9.850 -0.4046  0.7788  0.0010
51633SOL    HW272892  13.698   9.822   9.841  0.3076  0.6572 -0.3239
51634SOL     OW72893   0.000   3.803   5.420 -0.1214 -0.5629 -0.5389
51634SOL    HW172894  -0.024   3.874   5.479 -0.4246 -0.8176 -0.3539
51634SOL    HW272895   0.075   3.761   5.462  0.5509  0.1185 -1.0267
51635SOL     OW72896   0.994   2.381   7.162 -0.1218 -0.6682 -0.2300
51635SOL    HW172897   0.974   2.338   7.079  0.8525 -1.1392 -0.2396
51635SOL    HW272898   1.066   2.329   7.198 -0.8368 -0.7471  1.1270
51636SOL     OW72899   9.552   6.098   9.063  0.2845 -0.9523  0.1061
51636SOL    HW172900   9.489   6.040   9.107 -1.7910  0.4402 -0.8644
51636SOL    HW272901   9.552   6.068   8.972  1.0651 -0.9488  0.1028
51637SOL     OW72902   8.779   9.248   7.969  0.1569  0.2156  0.1954
51637SOL    HW172903   8.688   9.230   7.990  0.3795 -0.2537  0.8017
51637SOL    HW272904   8.826   9.234   8.051  0.5770  2.0621  0.3134
51638SOL     OW72905  11.906   1.815   2.241 -0.4378  0.2447 -0.2466
51638SOL    HW172906  11.978   1.791   2.183  0.0596 -1.0821  0.8643
51638SOL    HW272907  11.838   1.848   2.182  0.0759 -0.9671 -1.5835
51639SOL     OW72908   4.287  11.369  12.783  0.3579  0.1166 -0.0716
51639SOL    HW172909   4.232  11.311  12.730  1.8853  0.8393 -2.5942
51639SOL    HW272910   4.265  11.457  12.753  1.3938  0.5411  0.3635
51640SOL     OW72911   8.826   3.081   2.085  0.2144  0.0718  0.2649
51640SOL    HW172912   8.803   3.026   2.011  0.0330  0.2673  0.1738
51640SOL    HW272913   8.901   3.132   2.055 -0.3128  0.6805 -0.0462
51641SOL     OW72914   3.521   5.190   7.624 -0.0969 -0.2322 -0.1964
51641SOL    HW172915   3.607   5.176   7.584 -0.5387 -2.0158 -0.6295
51641SOL    HW272916   3.540   5.200   7.717  0.6373  0.2228 -0.3828
51642SOL     OW72917   3.419   5.534  12.682 -0.0595  0.5237  0.0222
51642SOL    HW172918   3.478   5.491  12.619 -1.7650 -0.4764 -0.9956
51642SOL    HW272919   3.360   5.585  12.627 -2.3620 -1.3157  0.6259
51643SOL     OW72920  13.888   3.582   8.665  0.0673 -0.2061 -0.4013
51643SOL    HW172921  13.801   3.569   8.703 -1.3823  2.6920 -2.3817
51643SOL    HW272922  13.911   3.496   8.629 -1.7128 -1.1627  0.5763
51644SOL     OW72923   0.224   7.920  11.297  0.1674 -0.0693 -0.7521
51644SOL    HW172924   0.147   7.949  11.346  1.5513  2.4274  0.1303
51644SOL    HW272925   0.232   7.827  11.318 -2.8193 -0.5493 -1.2457
51645SOL     OW72926   8.790  12.854   2.409 -0.0715  0.0896 -0.0803
51645SOL    HW172927   8.816  12.787   2.472 -2.3615 -0.4465  0.3932
51645SOL    HW272928   8.801  12.937   2.455  0.9462 -0.0789  0.0034
51646SOL     OW72929   4.253   4.917   6.638 -0.0266 -0.0550 -0.1533
51646SOL    HW172930   4.331   4.865   6.654  1.2147  1.9886  0.8062
51646SOL    HW272931   4.225   4.947   6.725 -1.1387  0.2879 -0.6018
51647SOL     OW72932  12.120  13.644   7.037 -0.1564 -0.0641 -0.0587
51647SOL    HW172933  12.181  13.572   7.053 -0.1860  0.1870  1.3198
51647SOL    HW272934  12.039  13.601   7.010 -0.1118 -0.5478  0.5539
51648SOL     OW72935  13.132   9.655   9.485  0.1197 -0.4099  0.3073
51648SOL    HW172936  13.117   9.740   9.445  0.3802 -1.2797 -1.8046
51648SOL    HW272937  13.207   9.668   9.543 -0.3295  0.9499  0.6017
51649SOL     OW72938   0.216  12.714   7.352  0.0612  0.1023  0.5186
51649SOL    HW172939   0.196  12.691   7.261  1.1287  0.1291  0.2664
51649SOL    HW272940   0.131  12.714   7.396 -0.5612  0.8406 -0.6442
51650SOL     OW72941   5.191   0.933   2.123 -0.0027  0.0830 -0.5067
51650SOL    HW172942   5.198   0.850   2.078  0.4743 -1.0958  1.5982
51650SOL    HW272943   5.098   0.955   2.119 -0.7523 -2.2414  1.6261
51651SOL     OW72944   6.240   1.032   8.992  0.2346  0.3160 -0.4389
51651SOL    HW172945   6.271   1.115   8.955  1.9577  1.2406  2.6204
51651SOL    HW272946   6.152   1.052   9.023  1.1731  1.6336  1.6477
51652SOL     OW72947   5.877  12.892   7.605  0.6041  0.1366 -0.2125
51652SOL    HW172948   5.963  12.877   7.565  1.1124 -1.9074  1.4550
51652SOL    HW272949   5.897  12.925   7.693 -0.4447  2.6338 -0.8240
51653SOL     OW72950   7.293   8.287  12.118 -0.2136  0.4088 -0.0888
51653SOL    HW172951   7.323   8.281  12.027 -1.7980  0.2855 -0.6262
51653SOL    HW272952   7.296   8.381  12.138 -1.0653  0.5796 -0.7088
51654SOL     OW72953   9.925   4.617   0.923 -0.3327  0.0517  0.0915
51654SOL    HW172954   9.983   4.576   0.857  0.4124  1.1334  0.0563
51654SOL    HW272955   9.971   4.696   0.949 -1.3012  0.3625  0.8913
51655SOL     OW72956   0.823   1.658   3.500 -0.0844 -0.2361  0.3619
51655SOL    HW172957   0.860   1.589   3.555  0.0085 -1.1884 -0.8588
51655SOL    HW272958   0.894   1.681   3.440 -0.4693  0.1529  0.0534
51656SOL     OW72959   0.431   5.597  13.354 -0.3943  0.2839 -0.4171
51656SOL    HW172960   0.525   5.592  13.369 -0.3968 -0.3957 -0.5822
51656SOL    HW272961   0.407   5.509  13.325 -0.9456  0.6744 -1.1629
51657SOL     OW72962  13.892  11.024   4.899  0.1755 -0.2959 -0.3512
51657SOL    HW172963  13.927  10.935   4.906 -1.4260 -1.0676 -1.5834
51657SOL    HW272964  13.861  11.030   4.809 -2.8139  0.3001  0.6090
51658SOL     OW72965  12.498   6.935  11.297  0.2076 -0.4309 -0.3355
51658SOL    HW172966  12.422   6.947  11.240  0.3060 -2.6298 -1.0173
51658SOL    HW272967  12.572   6.959  11.241  0.2485 -1.8616 -0.9383
51659SOL     OW72968   2.418  13.224  12.222 -0.4194  0.3333 -0.1547
51659SOL    HW172969   2.329  13.257  12.232  0.8061  3.8622  0.4338
51659SOL    HW272970   2.431  13.222  12.127 -1.4544 -1.5849 -0.3319
51660SOL     OW72971   6.147   8.083   4.972  0.4629 -0.0313 -0.3254
51660SOL    HW172972   6.166   8.040   5.056  1.5089 -0.4068 -0.7366
51660SOL    HW272973   6.057   8.059   4.953  0.4588 -0.5737  0.3284
51661SOL     OW72974  12.948   0.081   6.180 -0.5733 -0.0286  0.8757
51661SOL    HW172975  13.025   0.129   6.211 -0.2969 -1.3087  2.3610
51661SOL    HW272976  12.874   0.137   6.202 -0.0640  1.8276 -1.7838
51662SOL     OW72977   2.741  10.161   8.855 -1.0845  0.0768  0.1730
51662SOL    HW172978   2.728  10.140   8.762  0.0346  0.3819 -0.0619
51662SOL    HW272979   2.836  10.167   8.865 -1.1875 -0.1243  1.3828
51663SOL     OW72980   4.123   8.846   2.917  0.2872 -0.1329 -0.0576
51663SOL    HW172981   4.135   8.838   2.822 -0.7729  0.9168 -0.2959
51663SOL    HW272982   4.202   8.806   2.954  1.4466  0.8039 -1.4019
51664SOL     OW72983   5.116   1.492   9.191 -0.1392 -0.2520  0.0036
51664SOL    HW172984   5.080   1.451   9.112 -0.0640 -2.8879  1.2357
51664SOL    HW272985   5.040   1.508   9.247 -0.0280  0.0880  0.0600
51665SOL     OW72986   9.449   9.757   4.380  0.2429  0.3163  0.3421
51665SOL    HW172987   9.394   9.835   4.387  0.7248  0.6476  0.5177
51665SOL    HW272988   9.448   9.736   4.286  0.5563  0.8669  0.2112
51666SOL     OW72989   9.721   3.012   0.939 -0.6120 -0.4877 -0.3881
51666SOL    HW172990   9.803   3.062   0.941 -0.1550 -1.2306  0.3019
51666SOL    HW272991   9.674   3.045   0.863  0.6158 -0.4747 -1.1631
51667SOL     OW72992   4.285  12.338  10.162 -0.2184  0.1376 -0.3153
51667SOL    HW172993   4.343  12.348  10.237 -1.7847  1.0349  0.8317
51667SOL    HW272994   4.286  12.244  10.144  4.1775  0.3472 -2.5921
51668SOL     OW72995   7.040  12.261   7.569  0.1482  0.3804  0.5345
51668SOL    HW172996   6.989  12.213   7.635  0.6095 -2.2607 -0.8861
51668SOL    HW272997   6.977  12.280   7.500  0.1246  1.2743  0.7885
51669SOL     OW72998   7.762   7.789  13.518 -0.0372  0.1900  0.1538
51669SOL    HW172999   7.680   7.747  13.541  0.0306 -0.7303 -1.1723
51669SOL    HW273000   7.762   7.872  13.566 -2.3957  0.8836 -0.8986
51670SOL     OW73001  14.013   3.776   7.078  0.1432 -0.1601  0.7827
51670SOL    HW173002  14.070   3.726   7.019 -0.2446  1.5873 -1.2023
51670SOL    HW273003  13.960   3.830   7.020 -0.1485  1.8222  2.7472
51671SOL     OW73004   2.768   0.906   3.346 -0.2683 -0.0830  0.0913
51671SOL    HW173005   2.838   0.840   3.345 -0.3310 -0.2222 -2.3127
51671SOL    HW273006   2.814   0.988   3.363  0.4718 -0.2256 -1.0675
51672SOL     OW73007  13.515   6.779   1.251 -0.0920  0.0272  0.3012
51672SOL    HW173008  13.425   6.758   1.276  0.6708 -2.9499  0.9537
51672SOL    HW273009  13.524   6.744   1.163 -0.0541  2.0508 -0.5511
51673SOL     OW73010   2.307  10.486   0.575  0.0201 -0.3621 -1.0313
51673SOL    HW173011   2.398  10.486   0.544  0.2866 -1.6946 -0.3218
51673SOL    HW273012   2.255  10.467   0.497  0.2863  0.8952 -1.5403
51674SOL     OW73013   4.986   0.375  10.452 -0.1297 -0.2730  0.3413
51674SOL    HW173014   5.081   0.377  10.444  0.0296 -0.7753  1.8736
51674SOL    HW273015   4.955   0.429  10.379  1.3434  0.4288  0.1983
51675SOL     OW73016  10.294  13.550   7.615  0.3865 -0.4238 -0.0198
51675SOL    HW173017  10.359  13.483   7.595  1.5004  0.4439  0.5392
51675SOL    HW273018  10.210  13.510   7.593  1.2218 -0.8204 -2.8626
51676SOL     OW73019   3.119   5.344   5.532  0.2198  0.1147 -0.5025
51676SOL    HW173020   3.086   5.388   5.454  2.4900  1.4713 -0.7942
51676SOL    HW273021   3.045   5.343   5.593 -0.8122  1.4930 -1.6649
51677SOL     OW73022   6.904   8.245   1.141 -0.5706 -0.1599  0.4431
51677SOL    HW173023   6.880   8.266   1.231  0.9397 -1.8795  1.3106
51677SOL    HW273024   6.999   8.238   1.142 -0.3217  1.7063 -1.7866
51678SOL     OW73025   9.915  13.978  10.653  0.0762 -0.3094 -0.1129
51678SOL    HW173026   9.939  14.036  10.581 -0.6132 -0.0142 -0.1085
51678SOL    HW273027   9.884  13.898  10.612 -0.0811 -0.2345 -0.1422
51679SOL     OW73028   4.452   4.058   4.135 -0.4374  0.0751  0.1893
51679SOL    HW173029   4.469   4.083   4.045 -1.7334  0.5878  0.0625
51679SOL    HW273030   4.452   3.962   4.133  0.9676  0.0562 -0.0413
51680SOL     OW73031   3.910   8.561   4.864  0.1528  0.0493 -0.3791
51680SOL    HW173032   3.916   8.549   4.959 -2.2986 -1.7934 -0.3264
51680SOL    HW273033   3.818   8.581   4.848  0.2798 -0.6798 -2.4282
51681SOL     OW73034   3.477  10.720  12.919  0.5773  0.1777 -0.3054
51681SOL    HW173035   3.570  10.725  12.895  0.2347 -0.7552 -1.9511
51681SOL    HW273036   3.443  10.808  12.904  0.8092  0.0841 -1.4569
51682SOL     OW73037  14.094  13.294   3.835 -0.3880  0.7512 -0.0561
51682SOL    HW173038  14.046  13.345   3.770 -0.5084  2.1098  1.0513
51682SOL    HW273039  14.096  13.350   3.912  3.3240  1.0090 -0.1477
51683SOL     OW73040   6.880   0.874  11.730 -0.2230 -0.2883  0.3034
51683SOL    HW173041   6.829   0.951  11.754 -0.7360 -0.5932  0.2181
51683SOL    HW273042   6.829   0.832  11.661  0.4370 -0.2939 -0.1851
51684SOL     OW73043   3.302  12.519   5.342 -0.8620 -0.3170 -0.3670
51684SOL    HW173044   3.251  12.499   5.264  0.9916  0.7809 -1.9603
51684SOL    HW273045   3.307  12.437   5.390 -1.3966 -1.2263 -1.8099
51685SOL     OW73046   6.204  11.483  10.247 -0.2077  0.0132  0.3909
51685SOL    HW173047   6.224  11.545  10.317  2.0440 -0.1916  0.0068
51685SOL    HW273048   6.212  11.397  10.288  0.9863 -0.1049 -0.0497
51686SOL     OW73049  12.371  10.922   7.350 -0.4749 -0.1424  0.6803
51686SOL    HW173050  12.379  10.894   7.441  0.3654 -0.5070  0.5035
51686SOL    HW273051  12.276  10.931   7.336 -0.8884 -3.3574  0.6483
51687SOL     OW73052   4.642  12.000  13.382  0.2126 -0.3707  0.2867
51687SOL    HW173053   4.631  12.019  13.288 -1.2677 -1.8009  0.1282
51687SOL    HW273054   4.571  12.047  13.424 -0.0168 -0.9224  0.5217
51688SOL     OW73055  12.194   1.728  12.922  0.2607  0.2068  0.2424
51688SOL    HW173056  12.234   1.671  12.989  0.1547 -0.0368  0.0993
51688SOL    HW273057  12.125   1.775  12.969  0.1043 -0.0544  0.2782
51689SOL     OW73058   2.440   6.396   2.187  0.0402  0.2789  0.5952
51689SOL    HW173059   2.388   6.385   2.267  1.5201  2.4044  1.9716
51689SOL    HW273060   2.415   6.483   2.155 -0.4814 -0.5131 -1.2884
51690SOL     OW73061   4.505   2.481   0.983 -0.4930 -0.1126 -0.4336
51690SOL    HW173062   4.462   2.499   0.900 -1.8919  0.4679  0.3701
51690SOL    HW273063   4.515   2.567   1.024  2.2781 -0.1247 -0.9461
51691SOL     OW73064   3.331   7.714   1.166 -0.5118  0.5618  0.2001
51691SOL    HW173065   3.330   7.672   1.080 -1.0511 -0.3395  0.6272
51691SOL    HW273066   3.369   7.800   1.151  0.5451 -0.0454 -0.7325
51692SOL     OW73067  12.192   8.451   5.028  0.0938  0.5403 -0.3009
51692SOL    HW173068  12.111   8.493   5.000  0.4323  1.9378  0.7009
51692SOL    HW273069  12.235   8.516   5.084  1.8684 -0.1905 -0.7326
51693SOL     OW73070  12.852   0.142   1.343 -0.1202  0.2660 -0.0417
51693SOL    HW173071  12.884   0.219   1.295 -1.0086  0.6028 -0.1154
51693SOL    HW273072  12.917   0.128   1.411  0.3042  0.7967 -0.3251
51694SOL     OW73073   7.497  13.821   8.749  0.7508  0.0578  0.4689
51694SOL    HW173074   7.416  13.798   8.793  0.2265  0.2254 -0.3864
51694SOL    HW273075   7.531  13.896   8.798 -0.1210  0.6105  0.2451
51695SOL     OW73076   2.805   9.117   8.443 -0.1042 -0.3770 -0.0564
51695SOL    HW173077   2.750   9.185   8.405  0.8191  0.9734  0.9322
51695SOL    HW273078   2.743   9.058   8.487 -0.8116  0.8100  0.5869
51696SOL     OW73079   1.287   9.056  12.201  0.6421 -0.1742 -0.4732
51696SOL    HW173080   1.246   9.015  12.124 -0.3391  1.3649 -0.8152
51696SOL    HW273081   1.282   8.989  12.269 -1.0266 -0.6009 -0.9629
51697SOL     OW73082   3.578  10.597  13.696 -0.2285  0.3901  0.3495
51697SOL    HW173083   3.611  10.515  13.661  1.6579  1.8125 -1.5063
51697SOL    HW273084   3.554  10.648  13.619 -0.4665  1.9427  1.3928
51698SOL     OW73085   8.094   6.817  10.124 -0.2008 -0.0477  0.1086
51698SOL    HW173086   8.047   6.899  10.141  0.5263  0.3666  0.2186
51698SOL    HW273087   8.113   6.782  10.212 -0.5739 -0.3698  0.0603
51699SOL     OW73088  10.999   5.701   2.381 -0.3179 -0.3820  0.5895
51699SOL    HW173089  10.916   5.737   2.350 -0.6185 -1.1179  0.5171
51699SOL    HW273090  11.056   5.703   2.304 -0.6297 -0.9225  0.3376
51700SOL     OW73091   7.201   9.054   8.351 -0.0203  0.0566  0.8978
51700SOL    HW173092   7.140   9.065   8.425  0.9417 -0.0913  1.7316
51700SOL    HW273093   7.148   9.074   8.274 -1.9215 -2.7196  1.3146
51701SOL     OW73094  11.717   4.394   7.411  0.1566  0.2160  0.0788
51701SOL    HW173095  11.753   4.375   7.325  0.1890  2.6683 -0.5364
51701SOL    HW273096  11.788   4.438   7.457 -0.6296  1.1650  0.4298
51702SOL     OW73097   4.473   9.413  10.219  0.1840 -0.1202  0.4331
51702SOL    HW173098   4.516   9.474  10.159 -0.3883  0.2735  0.4150
51702SOL    HW273099   4.426   9.470  10.281 -0.7617 -0.5459  0.1202
51703SOL     OW73100   5.006   8.138   4.676  0.4973 -1.0257 -0.1475
51703SOL    HW173101   5.019   8.056   4.724  0.8542 -1.5902 -1.1750
51703SOL    HW273102   4.987   8.203   4.744  0.8019 -1.8323  0.7323
51704SOL     OW73103   8.359   5.100   7.477 -0.0334 -0.0084 -0.4588
51704SOL    HW173104   8.269   5.119   7.506  0.2398  0.1425  0.3023
51704SOL    HW273105   8.408   5.086   7.557  0.3202 -1.5713 -0.9165
51705SOL     OW73106   1.111   3.947   9.638 -0.1756 -0.0714 -0.2254
51705SOL    HW173107   1.062   3.868   9.613 -0.7029 -0.2307  1.1770
51705SOL    HW273108   1.187   3.914   9.685  1.1467  0.1929 -2.0896
51706SOL     OW73109   3.111  13.092   3.482 -0.1417  0.1418  0.2351
51706SOL    HW173110   3.081  13.183   3.479  0.2815  0.2606 -0.5685
51706SOL    HW273111   3.030  13.041   3.491 -0.6192  0.4741 -1.6813
51707SOL     OW73112   6.854   3.707   8.832 -0.5677  0.8397  0.0804
51707SOL    HW173113   6.853   3.698   8.927 -0.1006 -0.3092 -0.0015
51707SOL    HW273114   6.907   3.633   8.802 -0.8277  1.1062 -1.0828
51708SOL     OW73115   7.642  13.127   2.768  0.4840  0.0720  0.1747
51708SOL    HW173116   7.628  13.033   2.768 -0.3401  0.1813 -0.4135
51708SOL    HW273117   7.675  13.147   2.681  2.2108  0.1362  0.8109
51709SOL     OW73118  12.447  10.781   3.244 -0.1570  0.2986 -0.2426
51709SOL    HW173119  12.380  10.842   3.213 -0.8114  0.4935  1.4207
51709SOL    HW273120  12.421  10.760   3.334  1.9955  0.3647  0.4705
51710SOL     OW73121   2.400  11.534   5.459 -0.4021 -0.1832 -0.5342
51710SOL    HW173122   2.378  11.505   5.548  0.9586 -2.8377 -0.9642
51710SOL    HW273123   2.359  11.471   5.402  2.6791 -1.4777 -1.5474
51711SOL     OW73124   1.153  11.066   7.200  0.2773  0.2379  0.0831
51711SOL    HW173125   1.218  11.135   7.191  0.4113 -0.1775 -3.0541
51711SOL    HW273126   1.201  10.985   7.177 -0.7619 -0.3904  0.0780
51712SOL     OW73127   7.817  12.993  13.013 -0.6288  0.5899  0.4424
51712SOL    HW173128   7.886  13.045  13.054 -0.4060 -0.6736  1.7734
51712SOL    HW273129   7.861  12.912  12.987 -1.8503 -0.9654  2.8298
51713SOL     OW73130   0.805  12.254  11.712 -0.2463 -0.1516  0.4291
51713SOL    HW173131   0.822  12.209  11.629 -1.6495  0.5320 -0.2554
51713SOL    HW273132   0.889  12.252  11.758 -0.1490 -3.2496  0.3410
51714SOL     OW73133   0.279   3.349  11.858 -0.3225  0.1588  0.5514
51714SOL    HW173134   0.292   3.354  11.763  1.6914 -2.3006  0.5743
51714SOL    HW273135   0.208   3.285  11.869 -0.9257  0.8492  0.7071
51715SOL     OW73136   3.390   2.592  10.767  0.6807 -0.1900  0.0900
51715SOL    HW173137   3.323   2.585  10.699 -0.2995  0.1066  1.0082
51715SOL    HW273138   3.424   2.681  10.759  1.6828 -0.6451 -1.0106
51716SOL     OW73139  10.440  10.361   8.968  0.0502  0.0685  0.6820
51716SOL    HW173140  10.468  10.350   9.059 -1.4270  0.1391  1.1677
51716SOL    HW273141  10.374  10.292   8.955 -0.7445  0.9237  0.1006
51717SOL     OW73142   6.995   5.658  12.816 -0.2931 -0.5989  0.7941
51717SOL    HW173143   7.015   5.577  12.863  1.0527 -1.4339 -1.0769
51717SOL    HW273144   7.073   5.675  12.763 -1.5454  0.5025 -0.8035
51718SOL     OW73145  10.261  11.439  10.888 -0.4161  0.8991 -0.0780
51718SOL    HW173146  10.271  11.367  10.950 -0.1708  1.8142  0.9823
51718SOL    HW273147  10.170  11.467  10.900 -0.7138  0.3507 -0.9733
51719SOL     OW73148  10.797  12.261  11.302 -0.1515 -0.0465 -0.4651
51719SOL    HW173149  10.887  12.254  11.333  0.3133  0.5320 -1.6400
51719SOL    HW273150  10.773  12.171  11.279  0.3588 -0.1067 -0.7725
51720SOL     OW73151   9.791   3.731  11.007 -0.2764 -0.5521  0.2993
51720SOL    HW173152   9.835   3.658  10.964  1.6094  0.9581 -0.4800
51720SOL    HW273153   9.739   3.772  10.937 -0.9484 -0.8411  0.6207
51721SOL     OW73154   2.438   4.244   0.624  0.2619  0.0287 -0.2240
51721SOL    HW173155   2.415   4.152   0.636 -0.9532  0.2409 -0.7236
51721SOL    HW273156   2.508   4.260   0.687 -1.9275 -0.3204  2.4624
51722SOL     OW73157   6.367  13.512   3.209  0.0186  0.4673  0.1185
51722SOL    HW173158   6.340  13.420   3.199  1.3458 -0.1434  1.8142
51722SOL    HW273159   6.388  13.540   3.120  1.0159 -1.3424 -0.2637
51723SOL     OW73160   2.923   3.475   9.047  0.4925 -0.0546  0.0308
51723SOL    HW173161   2.843   3.442   9.005  0.0499  1.1599 -0.1248
51723SOL    HW273162   2.994   3.426   9.005 -0.0757 -0.1777 -0.8230
51724SOL     OW73163   6.518   1.419   2.330  0.1673 -0.7374 -0.3302
51724SOL    HW173164   6.528   1.389   2.240  0.6976 -1.8454  0.0765
51724SOL    HW273165   6.608   1.432   2.362 -0.0198 -0.0174 -0.0560
51725SOL     OW73166   0.650  10.694   5.386 -0.1490 -0.7792  0.1859
51725SOL    HW173167   0.697  10.750   5.324  1.1109 -1.5105  0.4617
51725SOL    HW273168   0.703  10.696   5.465 -1.0435 -0.9374  0.8008
51726SOL     OW73169   9.422   4.969   3.361 -0.0624 -0.0602  0.0894
51726SOL    HW173170   9.483   5.039   3.338  0.9540 -1.2159 -0.8424
51726SOL    HW273171   9.417   4.972   3.456  0.2722  1.0148  0.0885
51727SOL     OW73172  12.288   8.107  13.919 -0.2122 -0.0563 -0.5189
51727SOL    HW173173  12.267   8.119  14.012 -0.5147  0.3531 -0.6335
51727SOL    HW273174  12.280   8.013  13.905  2.9096 -0.6131  0.5882
51728SOL     OW73175   2.909  10.347   4.480 -0.3996 -0.1570  0.5917
51728SOL    HW173176   2.875  10.280   4.421 -1.5962 -0.9795  2.1399
51728SOL    HW273177   2.842  10.354   4.549  0.8299  0.9179  1.7226
51729SOL     OW73178   0.415   6.452   9.249 -0.4419 -0.5274  0.1684
51729SOL    HW173179   0.345   6.394   9.219 -2.1906  0.8108  1.4692
51729SOL    HW273180   0.434   6.422   9.338  0.0047 -0.3001  0.1513
51730SOL     OW73181   0.072   3.545   7.692  0.9087  0.6863 -0.2767
51730SOL    HW173182   0.004   3.607   7.666 -0.6484 -0.7231  0.2559
51730SOL    HW273183   0.090   3.564   7.784 -2.9272 -2.3954  1.3777
51731SOL     OW73184   5.025   7.754   2.224  0.0539 -0.5502  0.1946
51731SOL    HW173185   4.951   7.716   2.176 -0.5631 -1.3577  1.7172
51731SOL    HW273186   4.999   7.747   2.316  0.9203  1.5535  0.6338
51732SOL     OW73187   5.096  12.996  13.441 -0.0536 -0.4911  0.4708
51732SOL    HW173188   5.160  12.934  13.405 -1.1433 -1.5898  0.3761
51732SOL    HW273189   5.097  12.979  13.535 -0.3708 -0.6785  0.4416
51733SOL     OW73190   5.060   4.566   4.288  0.2076  0.6261  0.1514
51733SOL    HW173191   5.009   4.534   4.214  0.5220 -2.8037  1.2363
51733SOL    HW273192   4.995   4.606   4.346 -0.8509 -0.9956  0.1498
51734SOL     OW73193   3.474  10.121   9.863 -0.2087  0.0188  0.2878
51734SOL    HW173194   3.547  10.065   9.884  0.9246  0.1047 -2.8391
51734SOL    HW273195   3.512  10.209   9.854  0.0323 -0.2829 -3.6948
51735SOL     OW73196   7.051   2.272  11.394 -0.4389  0.7365  0.0181
51735SOL    HW173197   7.053   2.238  11.484  0.6248  0.3702 -0.1337
51735SOL    HW273198   7.076   2.363  11.402 -2.7421  1.4107  0.3569
51736SOL     OW73199   7.799   2.165   9.480 -0.0675  0.0323 -0.0392
51736SOL    HW173200   7.799   2.177   9.575 -1.2297 -0.0260 -0.0203
51736SOL    HW273201   7.732   2.226   9.448  1.7309  1.5785 -1.0345
51737SOL     OW73202   3.371   4.366   0.250  0.0147  0.6096  0.8896
51737SOL    HW173203   3.337   4.356   0.161  0.1681 -0.8114  0.9645
51737SOL    HW273204   3.315   4.309   0.303  2.2955 -1.6841  1.0330
51738SOL     OW73205   2.523   6.662   2.938 -0.1038  0.5413 -0.2266
51738SOL    HW173206   2.570   6.591   2.895 -0.3329  0.7429 -0.8211
51738SOL    HW273207   2.456   6.618   2.990  0.2468  0.2906  0.0194
51739SOL     OW73208   6.367  14.095   8.907 -0.0882 -0.1756  0.0510
51739SOL    HW173209   6.444  14.116   8.854 -0.3183  0.7889  0.0810
51739SOL    HW273210   6.340  14.179   8.943 -2.0881 -0.2290 -1.2108
51740SOL     OW73211  11.817   2.450   9.045 -0.1538  0.4005  0.0333
51740SOL    HW173212  11.799   2.356   9.048  0.3334  0.2620 -0.9556
51740SOL    HW273213  11.767   2.486   9.119  1.7631 -0.9465  2.1180
51741SOL     OW73214   9.579   1.459   8.688  0.0574 -0.2143  0.0579
51741SOL    HW173215   9.525   1.532   8.718 -2.6771 -2.0077 -0.1143
51741SOL    HW273216   9.628   1.493   8.613  0.2480  1.8824  1.0849
51742SOL     OW73217   2.505  13.441  12.401  0.2660  0.4848  0.2796
51742SOL    HW173218   2.576  13.479  12.349  1.3020 -1.8761 -0.1495
51742SOL    HW273219   2.502  13.349  12.374 -0.6883 -0.2900  2.7645
51743SOL     OW73220   9.211   5.531   4.060  0.1641  0.4397 -0.0143
51743SOL    HW173221   9.203   5.464   4.128 -1.5190  1.8525  1.2541
51743SOL    HW273222   9.304   5.531   4.038  0.1395 -2.8232 -0.6598
51744SOL     OW73223   1.114   1.998  11.789 -0.4205  0.4236 -0.7304
51744SOL    HW173224   1.150   1.916  11.824  1.9500  2.1489  1.2634
51744SOL    HW273225   1.022   1.995  11.813 -0.3915 -1.6160 -0.6608
51745SOL     OW73226  13.234   9.075  12.736  0.1867 -0.3189 -0.2477
51745SOL    HW173227  13.313   9.039  12.695  0.4565 -1.3232  1.0937
51745SOL    HW273228  13.181   9.106  12.662  2.1639  1.1391 -1.1535
51746SOL     OW73229   7.742   9.125  11.984 -0.6321  0.0853  0.1594
51746SOL    HW173230   7.706   9.131  11.896  0.2456  0.3070 -0.1901
51746SOL    HW273231   7.791   9.206  11.996 -0.2320 -0.2151  0.6177
51747SOL     OW73232   0.055   7.196   6.540 -0.3338  0.1586 -0.4939
51747SOL    HW173233   0.147   7.170   6.529 -0.1961  0.5477 -0.2819
51747SOL    HW273234   0.032   7.238   6.458 -0.1417  0.5804 -0.3383
51748SOL     OW73235   0.739  11.241   7.020  0.1097 -0.4700  0.1742
51748SOL    HW173236   0.712  11.317   7.072  2.1179 -0.0086  0.5995
51748SOL    HW273237   0.795  11.278   6.952 -1.3225 -1.2481 -1.5246
51749SOL     OW73238   2.595  10.253   9.042  0.2079 -0.1936 -0.5551
51749SOL    HW173239   2.630  10.217   8.961  1.5779 -0.7040  0.2289
51749SOL    HW273240   2.669  10.250   9.103 -0.1651  2.2187  0.0967
51750SOL     OW73241  11.965   5.553  11.838  0.1928 -0.3146  0.1847
51750SOL    HW173242  11.982   5.464  11.871  1.9973  0.4339  1.4113
51750SOL    HW273243  11.979   5.609  11.914 -2.2970  0.9581 -0.2104
51751SOL     OW73244   2.682  13.196   1.864 -0.0624  0.2407  0.5452
51751SOL    HW173245   2.731  13.121   1.896 -0.0078 -0.6274 -1.4268
51751SOL    HW273246   2.620  13.159   1.801 -2.4112  1.4520  2.0044
51752SOL     OW73247   8.571   2.578   8.034  0.4835  0.3708 -0.8619
51752SOL    HW173248   8.507   2.554   7.967 -0.4754  1.9963 -0.5691
51752SOL    HW273249   8.589   2.497   8.081 -0.9963 -0.2052 -1.2518
51753SOL     OW73250   9.747   0.780   2.784  0.2164  0.8482 -0.4669
51753SOL    HW173251   9.679   0.774   2.716 -1.3216  1.0554  0.9726
51753SOL    HW273252   9.717   0.852   2.840  0.7015 -0.1949  1.1918
51754SOL     OW73253   9.968   6.524   7.350 -0.1524 -0.0967 -0.4475
51754SOL    HW173254  10.001   6.558   7.433 -0.8519 -0.5430  0.0263
51754SOL    HW273255   9.987   6.593   7.286  3.9593 -1.2642 -0.7696
51755SOL     OW73256  11.478   5.446   4.697 -0.6166  0.4104 -0.1407
51755SOL    HW173257  11.496   5.536   4.725 -1.2341  0.5953 -0.3049
51755SOL    HW273258  11.420   5.456   4.621 -0.6866 -0.1279 -0.1611
51756SOL     OW73259   5.376   2.716   3.438 -0.2345  0.2071  0.2882
51756SOL    HW173260   5.324   2.789   3.405 -1.2121 -0.7618 -0.3478
51756SOL    HW273261   5.434   2.757   3.503 -0.3347  1.6422 -0.4727
51757SOL     OW73262   0.363  11.153   6.224 -0.7533 -0.0033  0.0030
51757SOL    HW173263   0.402  11.066   6.216 -0.0004  0.4363 -1.3775
51757SOL    HW273264   0.428  11.213   6.188 -1.9204  0.9569 -0.6011
51758SOL     OW73265   7.969   2.386  10.574  0.3766  0.3570 -0.7492
51758SOL    HW173266   8.000   2.452  10.636 -0.4545  1.2451 -1.2406
51758SOL    HW273267   8.016   2.407  10.493 -0.1097  0.5351 -0.9860
51759SOL     OW73268  10.359   0.515  12.954  0.4937 -0.1772 -0.3293
51759SOL    HW173269  10.272   0.528  12.993 -0.2688  1.4815 -2.3368
51759SOL    HW273270  10.416   0.576  13.001  0.4872 -0.9588  0.7094
51760SOL     OW73271   5.601   9.607   8.986 -0.3687 -0.0529  0.1550
51760SOL    HW173272   5.662   9.626   9.058 -2.3317  1.8091  1.4666
51760SOL    HW273273   5.548   9.534   9.019  0.7342 -1.3257 -0.7747
51761SOL     OW73274  13.288   1.661   5.688  0.0545  0.1001  0.1386
51761SOL    HW173275  13.265   1.638   5.598  0.1005  1.0495 -0.1317
51761SOL    HW273276  13.304   1.755   5.685 -0.4392  0.2322  1.2508
51762SOL     OW73277   2.875  13.387  12.217  0.5278  0.0095 -0.4355
51762SOL    HW173278   2.921  13.331  12.154 -1.8678 -2.4354 -0.2289
51762SOL    HW273279   2.798  13.417  12.169  0.5580  1.1961  0.2407
51763SOL     OW73280  12.087   2.544   7.763 -0.2603  0.5664 -0.4078
51763SOL    HW173281  12.083   2.458   7.806  0.1306 -0.8215 -2.9397
51763SOL    HW273282  12.179   2.554   7.740 -0.6193  0.7485 -1.8267
51764SOL     OW73283  10.594  12.818   5.740 -0.4033  1.0125 -0.4389
51764SOL    HW173284  10.619  12.730   5.766 -0.3976  1.0381 -0.3591
51764SOL    HW273285  10.567  12.810   5.648 -3.7746  0.2694  0.5048
51765SOL     OW73286   1.843   8.587   8.885 -0.0100 -0.3044  0.3029
51765SOL    HW173287   1.860   8.493   8.891 -0.3096 -0.2908  1.6366
51765SOL    HW273288   1.922   8.623   8.844  0.0454 -1.1460 -0.3515
51766SOL     OW73289   1.487   6.501   5.437  0.2022  0.3870  0.3890
51766SOL    HW173290   1.397   6.496   5.406  0.6622 -4.4856 -1.0899
51766SOL    HW273291   1.533   6.553   5.371 -0.8966 -0.3470 -1.0009
51767SOL     OW73292   5.657   8.666   8.448 -0.6180 -0.2627 -0.2132
51767SOL    HW173293   5.586   8.602   8.438  0.6567 -1.8212  0.3592
51767SOL    HW273294   5.677   8.665   8.542  0.0364  0.2942 -0.3420
51768SOL     OW73295   7.361  14.049   1.859  0.6364  0.1364 -0.2007
51768SOL    HW173296   7.280  14.081   1.900  0.2423 -0.0716 -0.8050
51768SOL    HW273297   7.366  14.097   1.777 -0.2381 -1.6717 -1.3728
51769SOL     OW73298  13.410   8.291  11.948  0.0184  0.6900 -0.3718
51769SOL    HW173299  13.423   8.384  11.931  2.2088  0.0688 -2.7946
51769SOL    HW273300  13.341   8.265  11.887 -1.2927  0.8605  0.9930
51770SOL     OW73301   8.806   8.960   3.928 -0.2932  0.0586  0.0413
51770SOL    HW173302   8.878   8.941   3.868  0.1726 -0.6562  0.8069
51770SOL    HW273303   8.841   8.939   4.015 -1.5677 -0.7589  0.3863
51771SOL     OW73304  13.361   3.218  13.151  0.1238 -0.3081 -0.4337
51771SOL    HW173305  13.414   3.195  13.075  0.0150 -0.1912 -0.5467
51771SOL    HW273306  13.423   3.226  13.223  0.2636 -0.1482 -0.5715
51772SOL     OW73307  12.234   2.929   1.697 -0.0149 -0.5366 -0.0256
51772SOL    HW173308  12.323   2.964   1.694  0.1449 -0.9907 -2.5992
51772SOL    HW273309  12.184   2.995   1.745  1.4627  0.2257  0.5475
51773SOL     OW73310   2.102   6.915   1.834 -0.0835  0.2381 -0.1313
51773SOL    HW173311   2.169   6.875   1.890 -1.6957 -1.2595  0.8244
51773SOL    HW273312   2.124   7.009   1.835  1.8737 -0.1754  0.2761
51774SOL     OW73313  11.924  10.565   0.854  0.3405  0.3081  0.0069
51774SOL    HW173314  11.870  10.626   0.905  1.0546 -0.2213  1.4315
51774SOL    HW273315  12.014  10.582   0.882  0.6275 -0.8991 -0.1176
51775SOL     OW73316  11.609   8.837   6.339 -0.0244 -0.7048 -0.1002
51775SOL    HW173317  11.688   8.784   6.329 -0.3129 -1.3351  0.8592
51775SOL    HW273318  11.538   8.782   6.305  0.0515  0.2649 -1.9716
51776SOL     OW73319  13.091  10.598  12.192 -0.2828  0.1065  0.4035
51776SOL    HW173320  13.059  10.688  12.190  2.2084  1.0705 -1.6711
51776SOL    HW273321  13.153  10.596  12.265 -1.3223 -0.3918  1.3176
51777SOL     OW73322   1.519   7.346   7.614  0.1395  0.3236  0.1483
51777SOL    HW173323   1.586   7.310   7.672  0.4859  0.2434 -0.2974
51777SOL    HW273324   1.502   7.277   7.551  0.0550  0.5575 -0.0881
51778SOL     OW73325   3.862  10.341   1.515  0.2160 -0.0268  0.0680
51778SOL    HW173326   3.917  10.264   1.516 -1.3047 -1.2039 -1.1220
51778SOL    HW273327   3.895  10.394   1.443  1.3746  0.5558  1.0011
51779SOL     OW73328   0.674   7.528   0.353 -0.0306  0.2007  0.0242
51779SOL    HW173329   0.732   7.600   0.379  0.6150  0.0006 -0.8112
51779SOL    HW273330   0.710   7.451   0.397 -0.1633  0.2216  0.1706
51780SOL     OW73331   2.440   6.548  11.450  0.3848 -0.4815 -0.2237
51780SOL    HW173332   2.403   6.561  11.363 -2.3561  0.6185  0.9587
51780SOL    HW273333   2.436   6.454  11.464 -0.7880 -0.5247 -0.6980
51781SOL     OW73334  10.073  11.511   3.810 -0.2728  0.2552  0.4270
51781SOL    HW173335  10.123  11.571   3.754  0.4140 -0.2342  0.4994
51781SOL    HW273336   9.984  11.515   3.776  0.1483 -0.0977 -0.7765
51782SOL     OW73337   6.279  13.001   7.763 -0.1456 -0.4542 -1.1905
51782SOL    HW173338   6.232  12.950   7.697  0.6516 -2.4114 -0.3268
51782SOL    HW273339   6.370  13.003   7.733  0.6396 -3.0115  0.6394
51783SOL     OW73340  12.975   1.973   9.173  0.3164 -0.4614 -0.1592
51783SOL    HW173341  13.015   1.904   9.227  1.4971  0.3407  0.0130
51783SOL    HW273342  12.921   1.925   9.110 -0.4222 -1.4558  1.1740
51784SOL     OW73343   0.772  12.759   9.961 -0.4656  0.2336  0.0628
51784SOL    HW173344   0.778  12.709   9.879 -0.3256  0.4628 -0.0672
51784SOL    HW273345   0.706  12.826   9.943 -0.3313  0.3730  0.0898
51785SOL     OW73346   0.610   6.138  10.512 -0.3495  0.0884  0.2410
51785SOL    HW173347   0.691   6.184  10.490 -0.3624  0.3077  0.6407
51785SOL    HW273348   0.560   6.138  10.431  1.0114 -2.1147 -0.6843
51786SOL     OW73349   6.445  13.985   2.653  0.0764  0.3030  0.3637
51786SOL    HW173350   6.520  13.926   2.643  0.5471  0.9344  0.1050
51786SOL    HW273351   6.385  13.938   2.711  0.8437 -0.0445  0.8964
51787SOL     OW73352   3.818   1.563  13.856  0.1394 -0.4365  0.1728
51787SOL    HW173353   3.742   1.516  13.889 -1.5302  1.0277 -1.4056
51787SOL    HW273354   3.783   1.643  13.817  2.4541  0.1616 -0.8940
51788SOL     OW73355   2.377   5.939   7.081  0.2641  0.2801  0.9656
51788SOL    HW173356   2.471   5.949   7.095  1.3883 -1.5890 -3.3057
51788SOL    HW273357   2.356   6.000   7.010 -1.8649  0.8325  1.9699
51789SOL     OW73358   6.131  10.430  12.528  0.0476  0.0699 -0.3203
51789SOL    HW173359   6.223  10.446  12.505 -0.1761  1.9357 -0.0460
51789SOL    HW273360   6.131  10.342  12.566  1.6577 -0.1020 -0.6550
51790SOL     OW73361  12.415   9.209  12.289  0.0782 -0.6472  0.3965
51790SOL    HW173362  12.442   9.290  12.333  1.0416 -0.3054 -0.7397
51790SOL    HW273363  12.488   9.188  12.231 -0.8208 -1.4681 -0.4901
51791SOL     OW73364   8.835  10.857  12.040 -0.2585  0.3521  0.7553
51791SOL    HW173365   8.858  10.893  12.126  0.3019  1.0060  0.3323
51791SOL    HW273366   8.849  10.762  12.050  0.1221  0.4587  1.2816
51792SOL     OW73367   1.742   1.796   9.577 -0.0177 -0.4525 -0.4644
51792SOL    HW173368   1.717   1.765   9.664 -0.1621  0.4454 -0.1779
51792SOL    HW273369   1.719   1.724   9.519 -1.0576 -0.5821  0.0917
51793SOL     OW73370   0.141   7.403   5.902  0.5662 -0.0779 -0.0121
51793SOL    HW173371   0.220   7.369   5.861  2.0054  1.2560  1.4897
51793SOL    HW273372   0.161   7.495   5.921 -2.5270  1.2973 -2.4090
51794SOL     OW73373   6.362  10.607   1.201 -0.3091 -0.3135 -0.2035
51794SOL    HW173374   6.269  10.608   1.226 -0.0653  0.6136  0.7791
51794SOL    HW273375   6.361  10.617   1.106 -1.2244 -0.7308 -0.2532
51795SOL     OW73376  12.326  10.815   4.968 -0.1648  0.0299  0.1053
51795SOL    HW173377  12.370  10.758   4.905 -1.5514 -2.1774  0.9979
51795SOL    HW273378  12.385  10.817   5.044  0.3808  0.7032 -0.3253
51796SOL     OW73379   0.083   1.364  10.746  0.5235  0.2343  0.1528
51796SOL    HW173380   0.013   1.416  10.707  1.5210  1.1972 -0.3926
51796SOL    HW273381   0.079   1.280  10.699 -0.7755 -0.0338  0.6986
51797SOL     OW73382  13.717   0.439  13.077  0.1507  0.1795 -0.3944
51797SOL    HW173383  13.782   0.499  13.115  0.0894  0.9253 -1.4481
51797SOL    HW273384  13.639   0.493  13.064 -0.3097 -0.4315 -0.2337
51798SOL     OW73385   5.652  10.176   2.803  0.1596 -0.2057  0.4658
51798SOL    HW173386   5.675  10.119   2.730  0.3953 -0.1829  0.5228
51798SOL    HW273387   5.580  10.130   2.847 -0.3789  0.0588 -0.1180
51799SOL     OW73388   6.945   1.675   2.409  0.4850 -0.3577 -0.0369
51799SOL    HW173389   6.990   1.675   2.324  3.3841 -0.3104  1.3666
51799SOL    HW273390   7.005   1.722   2.467 -1.7510  0.2553  1.9064
51800SOL     OW73391  12.279  11.865   6.236 -0.1536 -0.1021  0.2007
51800SOL    HW173392  12.191  11.854   6.273 -0.2595 -2.0572 -0.5010
51800SOL    HW273393  12.337  11.827   6.301 -0.0035 -0.3556 -0.0786
51801SOL     OW73394  11.722  10.220   3.492 -0.2423  0.4592 -0.4097
51801SOL    HW173395  11.639  10.265   3.476  0.0366  1.0164 -0.3109
51801SOL    HW273396  11.697  10.131   3.516 -0.8558  0.8507  0.4633
51802SOL     OW73397   6.725  13.080   2.671 -0.5280 -0.1066  0.3867
51802SOL    HW173398   6.651  13.091   2.611 -1.6605  0.8638  1.8798
51802SOL    HW273399   6.766  13.167   2.674 -1.9854  0.5827  2.8111
51803SOL     OW73400   8.409   1.779  13.804 -0.3092  0.5405  0.1109
51803SOL    HW173401   8.399   1.799  13.711 -0.8831 -0.1395  0.0147
51803SOL    HW273402   8.435   1.862  13.844  1.2400  0.5502 -0.8463
51804SOL     OW73403   0.791  13.886   8.557 -0.4542  0.2900  0.2880
51804SOL    HW173404   0.724  13.826   8.592  1.5664 -1.3549  1.6199
51804SOL    HW273405   0.759  13.973   8.580 -1.6719 -0.4931  1.8021
51805SOL     OW73406   1.757  12.648   0.975  0.8462  0.2545 -0.3166
51805SOL    HW173407   1.763  12.580   1.042 -1.4023  1.1894  0.9373
51805SOL    HW273408   1.780  12.729   1.021 -1.2351  0.9810 -0.4695
51806SOL     OW73409   9.165   4.956  10.628  0.4984 -0.0236  0.3683
51806SOL    HW173410   9.197   5.043  10.608 -0.9646  1.0957  2.4108
51806SOL    HW273411   9.180   4.946  10.722 -0.2515 -1.5587  0.3623
51807SOL     OW73412   4.667   2.212  13.519 -0.1038 -0.0020  0.7059
51807SOL    HW173413   4.649   2.240  13.609 -0.6278  0.3871  0.4871
51807SOL    HW273414   4.700   2.123  13.528 -2.7867 -1.0724  1.1384
51808SOL     OW73415   7.974  13.838  12.857  0.3754 -0.2555  0.3849
51808SOL    HW173416   8.006  13.869  12.772 -0.8752 -0.4074 -0.1588
51808SOL    HW273417   7.976  13.916  12.913 -0.3590  0.2443 -0.2624
51809SOL     OW73418   3.569   6.091   9.095 -0.2474  0.1628  0.2199
51809SOL    HW173419   3.589   6.079   9.188 -0.9799 -0.0831  0.3591
51809SOL    HW273420   3.640   6.144   9.061  0.2282 -0.0690  0.8396
51810SOL     OW73421  11.139   9.174   7.666  0.4058 -0.2291 -0.5778
51810SOL    HW173422  11.161   9.099   7.612  0.0072  0.6355 -1.9888
51810SOL    HW273423  11.123   9.245   7.604  0.7048  1.0158  0.7087
51811SOL     OW73424  11.676   5.978   6.433 -0.5771 -0.2520 -0.8319
51811SOL    HW173425  11.757   6.030   6.426 -0.8690  0.2294 -0.6964
51811SOL    HW273426  11.625   6.022   6.501 -0.1731 -1.6315  0.4127
51812SOL     OW73427  12.762   0.545   3.630  0.8885  0.5342 -0.2078
51812SOL    HW173428  12.827   0.528   3.698 -0.8960  1.2194  1.7541
51812SOL    HW273429  12.773   0.638   3.609  0.6036  0.6229  0.0419
51813SOL     OW73430  10.426   0.290  12.551 -0.0254  0.4531 -0.4914
51813SOL    HW173431  10.365   0.334  12.492 -0.7363 -1.7430 -1.5171
51813SOL    HW273432  10.469   0.224  12.496  0.1464 -0.8986  1.1807
51814SOL     OW73433   3.231  11.212   6.551 -0.2004  0.3515 -0.1104
51814SOL    HW173434   3.285  11.146   6.508 -0.4872 -0.1352  0.2587
51814SOL    HW273435   3.172  11.243   6.483 -0.0860  0.1993 -0.2789
51815SOL     OW73436   8.995   1.854   5.849 -0.5966  0.2085 -0.1045
51815SOL    HW173437   8.965   1.771   5.886 -2.2071  0.3116 -1.0835
51815SOL    HW273438   9.083   1.835   5.816 -0.0697 -0.5033  1.6104
51816SOL     OW73439   6.320   1.455   9.615 -0.2742  0.4395  0.6173
51816SOL    HW173440   6.270   1.433   9.536  1.9363  2.3844 -1.4881
51816SOL    HW273441   6.254   1.485   9.677 -1.9547  0.7404 -1.2105
51817SOL     OW73442   3.220  12.610   0.248 -0.3600 -0.5855 -0.0921
51817SOL    HW173443   3.189  12.664   0.322 -0.2142 -0.8808  0.1864
51817SOL    HW273444   3.172  12.528   0.257 -1.1134 -0.2487 -0.9325
51818SOL     OW73445  14.043   8.113  10.165  0.0893 -0.3551 -0.3741
51818SOL    HW173446  14.132   8.127  10.132 -0.6084  0.3224 -2.0626
51818SOL    HW273447  14.048   8.136  10.258  1.9248 -1.4514 -0.1470
51819SOL     OW73448   6.671   8.682   7.124  0.5428  0.1611  0.2743
51819SOL    HW173449   6.754   8.715   7.089  1.0276 -0.9142  0.3743
51819SOL    HW273450   6.692   8.654   7.213  0.5945 -2.0601 -0.3909
51820SOL     OW73451   0.640   0.778  11.572 -0.0607 -0.9696  0.2233
51820SOL    HW173452   0.577   0.849  11.580  0.8917 -0.1885  1.0231
51820SOL    HW273453   0.627   0.744  11.483 -1.0194 -0.2794  0.0873
51821SOL     OW73454   2.144  12.875   4.378 -0.4257 -0.0980  0.3060
51821SOL    HW173455   2.076  12.810   4.362 -1.6502  1.3391 -0.5944
51821SOL    HW273456   2.223  12.837   4.340 -1.3672 -0.5633 -1.2861
51822SOL     OW73457  13.442  10.494   0.475 -0.5067  0.0496 -0.0479
51822SOL    HW173458  13.449  10.421   0.413  0.7560 -1.5553  1.8740
51822SOL    HW273459  13.355  10.529   0.459 -0.9274 -1.4655 -1.4746
51823SOL     OW73460   7.949   8.128   0.562 -0.4629  0.1142 -0.1893
51823SOL    HW173461   8.034   8.166   0.587 -1.1439  1.4036  0.2655
51823SOL    HW273462   7.937   8.155   0.471 -0.3739 -0.1019 -0.2660
51824SOL     OW73463   7.973   7.836   4.233  0.1133  0.8716  0.8397
51824SOL    HW173464   8.022   7.898   4.180 -0.9815  0.8575 -0.2410
51824SOL    HW273465   8.008   7.750   4.209 -0.5711  0.8410 -0.1195
51825SOL     OW73466   7.977  10.621  13.588  0.3827  0.0790  0.6605
51825SOL    HW173467   7.995  10.556  13.520 -1.2935 -0.8366  1.0403
51825SOL    HW273468   7.889  10.653  13.569 -0.0044  0.0325  2.2100
51826SOL     OW73469   6.727  13.778   0.310 -0.3510  0.1688 -0.8109
51826SOL    HW173470   6.677  13.783   0.391  0.3813  0.6563 -0.3827
51826SOL    HW273471   6.753  13.869   0.292  1.2841 -0.1916 -0.4360
51827SOL     OW73472   6.745   6.056   9.662  0.2369 -0.4808 -0.0539
51827SOL    HW173473   6.686   6.032   9.734  0.7057 -2.6103 -0.3117
51827SOL    HW273474   6.688   6.073   9.588 -0.2081  0.9991  0.5927
51828SOL     OW73475   9.201   8.487   7.012  0.3629 -0.7112  0.2430
51828SOL    HW173476   9.134   8.420   7.032 -0.5161 -0.2182 -0.9380
51828SOL    HW273477   9.263   8.441   6.955  0.6882 -0.9916  0.8178
51829SOL     OW73478   7.588  11.256   9.351  0.1842  0.7793  0.0058
51829SOL    HW173479   7.657  11.221   9.406  0.3251  0.7651 -0.1793
51829SOL    HW273480   7.604  11.219   9.264 -2.2569 -2.3600  0.6849
51830SOL     OW73481   4.491  11.982   0.110  0.2659  0.3550  0.1638
51830SOL    HW173482   4.452  12.063   0.079 -1.2345 -0.0762  0.8481
51830SOL    HW273483   4.417  11.922   0.122  1.1414 -0.5295  1.4143
51831SOL     OW73484   0.345  12.368   0.507  0.0379 -0.3934 -0.0116
51831SOL    HW173485   0.368  12.454   0.472 -0.3779 -0.3681 -0.2390
51831SOL    HW273486   0.299  12.386   0.589 -0.0771 -0.3936 -0.0749
51832SOL     OW73487  14.097   9.803   2.096 -0.2855 -0.0589 -0.1738
51832SOL    HW173488  14.057   9.844   2.020 -1.0647 -1.4334 -0.5538
51832SOL    HW273489  14.148   9.872   2.137  2.0228  0.2058 -3.1781
51833SOL     OW73490   2.859   4.755   7.323 -0.4762 -0.2801 -0.5547
51833SOL    HW173491   2.875   4.716   7.409  0.7457 -1.6106 -1.3320
51833SOL    HW273492   2.822   4.684   7.271  2.4777 -0.7899 -2.2268
51834SOL     OW73493   7.001   2.691  13.878 -0.5183  0.2279 -0.3437
51834SOL    HW173494   6.920   2.641  13.880 -0.9040  0.8292  1.8907
51834SOL    HW273495   6.979   2.774  13.919  1.1205  0.5617 -0.0720
51835SOL     OW73496   0.899   5.421   6.962 -0.1741  0.9386  0.0422
51835SOL    HW173497   0.885   5.460   7.049  2.5171  2.8765 -0.2760
51835SOL    HW273498   0.977   5.367   6.973 -0.7367 -0.0940 -0.8547
51836SOL     OW73499   0.814  12.142   9.785  0.1378 -0.3732  0.3388
51836SOL    HW173500   0.869  12.171   9.858 -1.3989  0.3138  1.2668
51836SOL    HW273501   0.808  12.047   9.797 -0.8619 -0.1628  1.6859
51837SOL     OW73502   0.478  12.521   5.760  0.3776  0.7185  0.0926
51837SOL    HW173503   0.551  12.461   5.775  1.2259  1.7560  0.1744
51837SOL    HW273504   0.420  12.473   5.701  0.7364 -0.4169  0.6298
51838SOL     OW73505   3.965   4.927   6.060 -0.6060  0.6419 -0.6646
51838SOL    HW173506   3.877   4.892   6.070 -0.1873 -0.6120 -1.2528
51838SOL    HW273507   3.962   5.011   6.107 -1.3450 -0.6246  1.7398
51839SOL     OW73508   7.250   5.270   1.538  0.3700  0.0938 -0.1619
51839SOL    HW173509   7.219   5.219   1.613  2.1186  0.2731  0.7115
51839SOL    HW273510   7.213   5.224   1.462 -0.4158 -0.8042  0.7287
51840SOL     OW73511  10.121   3.641  10.751  0.1029  0.1520 -0.8289
51840SOL    HW173512  10.127   3.656  10.845 -2.0683 -0.8971 -0.4524
51840SOL    HW273513  10.120   3.729  10.713 -0.2905  0.6416  0.2653
51841SOL     OW73514   4.285   1.669   9.194  0.1127 -0.3573  0.2000
51841SOL    HW173515   4.295   1.674   9.289 -2.1065  1.6859  0.4165
51841SOL    HW273516   4.242   1.585   9.179 -1.6813  0.2947  1.3131
51842SOL     OW73517   4.280  11.366   2.659  0.1742 -0.1142 -0.5470
51842SOL    HW173518   4.337  11.305   2.706  1.8766  0.9605 -1.1309
51842SOL    HW273519   4.316  11.370   2.570 -1.1363  0.2094 -1.0959
51843SOL     OW73520  12.151  14.112   6.751 -0.2620  0.4829 -0.1050
51843SOL    HW173521  12.195  14.176   6.806  0.2372  0.5696 -0.6004
51843SOL    HW273522  12.146  14.033   6.805 -1.1477  1.0135  0.6146
51844SOL     OW73523   6.654  13.786   2.650  0.6450 -0.2565  0.2169
51844SOL    HW173524   6.738  13.749   2.621  0.4515 -1.1537  0.7471
51844SOL    HW273525   6.611  13.714   2.697 -0.3963  0.2100  0.0150
51845SOL     OW73526   5.020   7.563  13.966 -0.5226 -0.1753 -0.1508
51845SOL    HW173527   5.049   7.654  13.979 -0.0423 -0.0525 -1.8528
51845SOL    HW273528   4.953   7.569  13.898 -1.1857 -1.0139  0.4062
51846SOL     OW73529   6.540  10.197   7.453  0.1274 -0.3496 -0.2710
51846SOL    HW173530   6.617  10.253   7.441  0.0980  0.4862  2.6745
51846SOL    HW273531   6.490  10.240   7.522 -2.0150 -1.9258 -0.7495
51847SOL     OW73532   1.496   0.265   1.703  0.5443  0.1251 -0.0310
51847SOL    HW173533   1.450   0.195   1.749 -1.3560  2.6103  2.2641
51847SOL    HW273534   1.451   0.273   1.619  0.1757 -0.7780  0.0736
51848SOL     OW73535  13.636   2.914   5.143 -0.0953  0.3311 -0.3904
51848SOL    HW173536  13.644   3.009   5.150 -0.0707  0.3811 -1.0254
51848SOL    HW273537  13.651   2.882   5.231 -0.9540  0.9742  0.0115
51849SOL     OW73538  13.201  12.042   7.738 -0.8808  0.4279 -1.3618
51849SOL    HW173539  13.151  11.989   7.800  0.4122 -0.0141 -0.6557
51849SOL    HW273540  13.267  11.983   7.703 -0.6835  1.0557 -2.0955
51850SOL     OW73541   6.749   5.562   8.422 -0.1558  0.3408  0.1807
51850SOL    HW173542   6.790   5.648   8.426  1.1137 -0.2340  0.1392
51850SOL    HW273543   6.823   5.500   8.422 -1.0065 -0.7196 -0.5352
51851SOL     OW73544   7.141   4.453   7.827 -0.1514  0.1585  0.0931
51851SOL    HW173545   7.201   4.380   7.812  2.2613  2.0391 -0.1350
51851SOL    HW273546   7.171   4.521   7.766 -2.6180  1.2046 -0.0667
51852SOL     OW73547  10.571   2.236   1.986  0.1766  0.7074  0.0987
51852SOL    HW173548  10.641   2.283   1.942  1.0647 -1.3072 -0.7273
51852SOL    HW273549  10.567   2.151   1.943 -1.1638 -0.1298  1.7368
51853SOL     OW73550  11.273   8.310  13.778 -0.0306 -1.2014  0.0814
51853SOL    HW173551  11.344   8.316  13.714 -0.1374  0.6414  0.0815
51853SOL    HW273552  11.215   8.243  13.742  0.1430 -0.5393 -1.5524
51854SOL     OW73553   4.209   7.118   7.783  0.0698  0.0882 -0.1174
51854SOL    HW173554   4.193   7.123   7.689 -2.4429  0.0728  0.2544
51854SOL    HW273555   4.129   7.152   7.824 -0.1115 -2.5367  2.0215
51855SOL     OW73556   9.589   1.018   3.283 -0.0371 -0.6201  0.2582
51855SOL    HW173557   9.551   1.067   3.356 -2.8998 -0.0728 -1.4150
51855SOL    HW273558   9.612   1.084   3.218 -1.5024 -1.2535 -0.9817
51856SOL     OW73559   9.756   6.075   9.555  0.2314 -0.1908 -0.5127
51856SOL    HW173560   9.821   6.005   9.568 -0.8207 -1.2892 -0.9887
51856SOL    HW273561   9.689   6.035   9.500 -0.1447  1.3758 -1.2425
51857SOL     OW73562  13.051   7.130   6.416 -0.1834 -0.2279 -0.1677
51857SOL    HW173563  13.072   7.209   6.366  0.8971 -0.2108  0.2768
51857SOL    HW273564  13.087   7.147   6.503 -0.6973 -0.8717  0.1761
51858SOL     OW73565   8.106   9.893   0.960 -0.4234  0.3730  0.5405
51858SOL    HW173566   8.061   9.861   0.882 -0.0325 -0.0932  0.4963
51858SOL    HW273567   8.164   9.961   0.928  2.3590 -2.1357 -0.2190
51859SOL     OW73568   0.035   8.851  10.698 -0.2810  0.5142 -0.0920
51859SOL    HW173569   0.108   8.795  10.673  0.7954  1.3096  1.1210
51859SOL    HW273570  -0.035   8.791  10.723  1.6896 -0.5067  3.7444
51860SOL     OW73571   2.164  11.913   3.446  0.3965 -0.4467  0.1544
51860SOL    HW173572   2.173  12.006   3.424 -0.7600 -0.0753  1.1308
51860SOL    HW273573   2.072  11.903   3.469  0.8508 -1.4992  1.6318
51861SOL     OW73574   8.402   2.369   8.748 -0.2452 -0.7210  0.3377
51861SOL    HW173575   8.378   2.284   8.786 -2.5778 -0.4079 -0.2882
51861SOL    HW273576   8.321   2.401   8.708  0.8996  1.2394 -0.5396
51862SOL     OW73577   2.338   2.614   2.206 -0.0671 -0.2328  0.3595
51862SOL    HW173578   2.286   2.638   2.130  0.5174  0.3321  0.1248
51862SOL    HW273579   2.277   2.621   2.280 -0.7819 -1.3343 -0.1065
51863SOL     OW73580   2.528   1.073  12.757  0.2385 -0.5099  1.0441
51863SOL    HW173581   2.617   1.038  12.763  1.2098  1.5195 -0.2668
51863SOL    HW273582   2.526   1.143  12.823  0.5842  1.2190 -0.6794
51864SOL     OW73583  12.559   8.092  12.442 -0.3687  0.1631 -0.0330
51864SOL    HW173584  12.512   8.119  12.521 -1.2542  1.4716 -0.9468
51864SOL    HW273585  12.633   8.153  12.436  1.2351 -1.5618  1.1169
51865SOL     OW73586   0.879   0.064   5.369 -0.0647  0.1340  0.3420
51865SOL    HW173587   0.908   0.016   5.446  0.3258  0.2307  0.2536
51865SOL    HW273588   0.785   0.044   5.363 -0.0683  0.0212  0.7612
51866SOL     OW73589   4.232   0.454   9.038 -0.3712 -0.5374 -0.1085
51866SOL    HW173590   4.190   0.527   9.083 -1.7507 -3.2016  3.3648
51866SOL    HW273591   4.199   0.459   8.948 -1.0424  2.5658  0.2169
51867SOL     OW73592   7.713   8.135   8.533  0.2908 -0.4612 -0.0784
51867SOL    HW173593   7.678   8.188   8.605 -1.1537 -1.0199 -0.3303
51867SOL    HW273594   7.716   8.194   8.458  0.0471 -0.3573 -0.0070
51868SOL     OW73595   0.681  10.827  13.026 -0.0434  0.0117  0.1779
51868SOL    HW173596   0.742  10.827  13.100  0.3033  0.6849 -0.1043
51868SOL    HW273597   0.604  10.780  13.059  0.2630 -0.0478  0.8332
51869SOL     OW73598   4.785   9.219   4.429 -0.2485 -0.4190 -0.6629
51869SOL    HW173599   4.795   9.314   4.424 -1.7565 -0.1539  0.4445
51869SOL    HW273600   4.837   9.194   4.505 -1.0405 -0.2414 -0.0450
51870SOL     OW73601   3.841   9.641   9.061 -0.0844 -0.6817  0.5820
51870SOL    HW173602   3.820   9.573   9.125  0.6107 -1.7328 -0.2638
51870SOL    HW273603   3.834   9.597   8.976 -2.5444  1.0586 -0.2377
51871SOL     OW73604  10.028   8.934  13.955 -0.5607  0.0258 -0.3425
51871SOL    HW173605  10.072   8.979  14.027 -2.5157 -0.2320  1.0837
51871SOL    HW273606   9.935   8.939  13.976 -1.0787 -1.6266 -1.9496
51872SOL     OW73607   5.834   9.897   6.339  0.3700  0.2408 -0.0807
51872SOL    HW173608   5.825   9.947   6.421 -0.6859  1.2154 -0.7624
51872SOL    HW273609   5.769   9.935   6.281  0.5868 -0.9511 -1.1396
51873SOL     OW73610   4.783  12.068   6.235  0.2641  0.0839  0.3464
51873SOL    HW173611   4.694  12.098   6.214  0.6193  1.7533  1.1061
51873SOL    HW273612   4.840  12.134   6.196  1.1779 -0.8292  0.1162
51874SOL     OW73613   1.925   2.871   6.333  0.5727 -0.1598  0.2681
51874SOL    HW173614   1.907   2.789   6.379  0.4987 -0.8940 -0.9956
51874SOL    HW273615   1.856   2.876   6.266  0.9337  0.6309 -0.0587
51875SOL     OW73616   3.398   7.941   4.087  0.1014 -0.1913  0.0788
51875SOL    HW173617   3.452   7.894   4.151  0.2104 -1.4551 -0.9040
51875SOL    HW273618   3.333   7.877   4.058 -0.3878  0.5699 -0.5642
51876SOL     OW73619   6.060   1.404   5.894  0.4367  0.0383  0.3829
51876SOL    HW173620   5.994   1.395   5.825  0.5153  2.2060 -0.0705
51876SOL    HW273621   6.012   1.398   5.976 -0.2340  0.9521  0.0632
51877SOL     OW73622  12.653   1.778   8.786  0.0896 -0.1257 -0.0104
51877SOL    HW173623  12.656   1.856   8.731  0.6530 -0.1907 -0.0770
51877SOL    HW273624  12.725   1.723   8.755 -0.1894 -0.5921  0.1560
51878SOL     OW73625  11.366  11.761   0.781 -0.3197  0.6461  0.0167
51878SOL    HW173626  11.409  11.843   0.759  0.3234  0.7113  1.4331
51878SOL    HW273627  11.274  11.786   0.796 -0.9835  0.4906 -3.0678
51879SOL     OW73628  13.756   6.954  11.774 -0.5495 -0.1119  0.0445
51879SOL    HW173629  13.722   6.977  11.860  0.2124 -1.0964  0.6348
51879SOL    HW273630  13.815   7.026  11.751 -0.1716 -0.2114  0.6892
51880SOL     OW73631   0.269   5.560   9.488 -0.5107 -0.4223  0.4563
51880SOL    HW173632   0.209   5.534   9.558 -0.8505 -0.2084  0.2480
51880SOL    HW273633   0.348   5.509   9.504 -0.6182 -0.4415  0.9438
51881SOL     OW73634   1.214   0.142  10.831  0.1548  0.1362  0.0223
51881SOL    HW173635   1.163   0.121  10.909  0.7748 -0.5411  0.2480
51881SOL    HW273636   1.179   0.227  10.802 -0.2072  0.3033  0.9222
51882SOL     OW73637  11.821   5.774   4.339  0.1179 -0.3498 -0.3028
51882SOL    HW173638  11.914   5.775   4.320 -0.1148 -2.4803 -1.8397
51882SOL    HW273639  11.812   5.714   4.413  0.0550  0.7700  0.6229
51883SOL     OW73640   0.385   3.332   8.542  0.0364 -0.5763 -0.3395
51883SOL    HW173641   0.420   3.270   8.478  1.6782  0.1089 -0.1549
51883SOL    HW273642   0.371   3.412   8.491 -2.3842 -1.1249 -0.6520
51884SOL     OW73643   6.008  12.872   6.943 -0.0987  0.0524  0.4578
51884SOL    HW173644   5.921  12.899   6.972 -0.6756 -0.6957 -0.5282
51884SOL    HW273645   6.066  12.942   6.974 -0.7003 -0.5133  3.0875
51885SOL     OW73646   8.810  11.392   7.350  0.4003  0.5506 -0.2374
51885SOL    HW173647   8.738  11.402   7.288 -1.1195  0.1615  1.4103
51885SOL    HW273648   8.844  11.304   7.334  1.5705  1.2698 -2.0486
51886SOL     OW73649  10.563   7.698   0.442 -0.5627  0.2737  0.1046
51886SOL    HW173650  10.489   7.701   0.503 -0.0289  1.5637  0.7278
51886SOL    HW273651  10.622   7.768   0.472 -0.1043  0.7097 -1.6731
51887SOL     OW73652   3.656   6.563  10.382 -0.0123 -0.0507 -0.3380
51887SOL    HW173653   3.709   6.596  10.454 -0.4856 -2.2206  1.1145
51887SOL    HW273654   3.568   6.552  10.419 -0.4538 -0.4856 -1.4592
51888SOL     OW73655   6.984   8.038  11.549  0.4428  0.0941 -0.1024
51888SOL    HW173656   6.915   8.000  11.604  0.9455  0.4959  0.8346
51888SOL    HW273657   6.973   7.996  11.464 -0.9677  0.1509  0.0173
51889SOL     OW73658   0.272  12.251   6.301 -0.1598  0.4040  0.3328
51889SOL    HW173659   0.244  12.198   6.227 -0.2800  1.8269 -0.6842
51889SOL    HW273660   0.366  12.234   6.310 -0.1163  0.3387 -0.2422
51890SOL     OW73661   5.111   8.867  10.610 -0.2213  0.1057  0.5223
51890SOL    HW173662   5.079   8.919  10.537  0.0590  0.9740  1.0022
51890SOL    HW273663   5.201   8.844  10.586  0.0598  0.8626  0.8333
51891SOL     OW73664  12.596  11.476   9.059  0.8287  0.1729 -0.4763
51891SOL    HW173665  12.689  11.490   9.076  0.6549 -0.1185  0.8312
51891SOL    HW273666  12.565  11.427   9.135 -0.6062  1.1560 -0.3937
51892SOL     OW73667   4.105   4.726   5.683 -0.6116 -0.0379 -0.0725
51892SOL    HW173668   4.031   4.785   5.671 -1.3179 -0.7536  0.5672
51892SOL    HW273669   4.070   4.640   5.660  0.2063 -0.2980 -0.3631
51893SOL     OW73670   7.163   9.656   6.325 -0.4389  0.6056  0.0579
51893SOL    HW173671   7.101   9.726   6.304 -1.2588 -0.2525 -0.4373
51893SOL    HW273672   7.110   9.577   6.329  0.4425  0.0272  0.8069
51894SOL     OW73673   9.699   8.238   2.425  0.0289  0.1410 -0.0868
51894SOL    HW173674   9.686   8.185   2.504 -1.5140 -0.5856 -0.8072
51894SOL    HW273675   9.775   8.293   2.447 -1.2776  1.0965  2.5088
51895SOL     OW73676  12.518   9.509   2.860 -0.4764  0.5829  0.5100
51895SOL    HW173677  12.547   9.448   2.792 -1.3840  0.4369  0.2438
51895SOL    HW273678  12.476   9.581   2.811 -1.4545  0.3033  0.9229
51896SOL     OW73679  10.952   7.606   2.456  0.0683 -0.5896 -0.3515
51896SOL    HW173680  10.889   7.543   2.419 -1.8937  0.9028  0.3034
51896SOL    HW273681  10.963   7.578   2.547  1.5479 -1.7040 -0.8323
51897SOL     OW73682   8.734   2.270   4.624 -0.3125 -0.2850  0.6170
51897SOL    HW173683   8.717   2.312   4.708  0.8521 -1.8708  1.7097
51897SOL    HW273684   8.781   2.336   4.573 -1.3084  0.8000  1.0669
51898SOL     OW73685   0.702   9.916   5.865  0.7218 -0.5406  0.5180
51898SOL    HW173686   0.628   9.952   5.816  0.7301 -3.2420 -1.7710
51898SOL    HW273687   0.779   9.957   5.825  0.5935  1.5492  2.2581
51899SOL     OW73688   2.139   8.876   0.911 -0.4931  0.1650  0.5043
51899SOL    HW173689   2.205   8.884   0.842 -0.5257 -1.0418  0.3043
51899SOL    HW273690   2.157   8.948   0.971 -0.1571  0.9535 -0.5100
51900SOL     OW73691   9.931  12.204   3.927 -0.4753  0.3056  0.0393
51900SOL    HW173692   9.924  12.245   3.841 -0.0006  0.1476 -0.0777
51900SOL    HW273693   9.842  12.207   3.962 -0.8598 -0.4577 -0.8404
51901SOL     OW73694   6.992   4.584   1.117  0.7449 -0.0803  0.2886
51901SOL    HW173695   6.920   4.572   1.056  1.3720  0.3244 -0.5598
51901SOL    HW273696   7.011   4.678   1.113  1.3092 -0.1825  0.5130
51902SOL     OW73697  13.996   8.048  14.102 -0.0207  0.1937 -0.1458
51902SOL    HW173698  13.966   8.139  14.101 -1.6575 -0.2991  1.1455
51902SOL    HW273699  14.077   8.050  14.051  0.0982  2.4069  0.0208
51903SOL     OW73700   3.266   8.847  10.116 -0.6200 -0.3640  0.0941
51903SOL    HW173701   3.350   8.853  10.161  0.3928  0.3931 -1.7962
51903SOL    HW273702   3.241   8.938  10.101 -1.9487 -0.5740  0.8542
51904SOL     OW73703  13.229   3.433   5.845 -0.5292  0.1015  0.2887
51904SOL    HW173704  13.278   3.361   5.806 -0.7982 -0.2166  0.5338
51904SOL    HW273705  13.247   3.508   5.787  0.9741  0.2290  0.8788
51905SOL     OW73706   7.598  13.198   9.993  0.6116 -0.0358  0.2228
51905SOL    HW173707   7.550  13.205   9.910  1.8838  0.3468 -0.5022
51905SOL    HW273708   7.687  13.224   9.972  1.3508 -1.5128  1.3643
51906SOL     OW73709   9.697   4.287   7.662 -1.0149 -0.1324  0.0446
51906SOL    HW173710   9.631   4.318   7.724  0.4474 -0.3456  1.7986
51906SOL    HW273711   9.762   4.244   7.717  1.0628  0.8825 -1.5027
51907SOL     OW73712   5.477   8.055   9.802  0.2197  0.0548  0.2978
51907SOL    HW173713   5.410   8.080   9.866  1.3153 -0.8169  1.8564
51907SOL    HW273714   5.429   8.041   9.721 -1.4263 -0.1501  1.2625
51908SOL     OW73715   0.422   3.265   0.233 -0.2392 -0.2043  0.0707
51908SOL    HW173716   0.459   3.349   0.207  3.0465 -1.5285 -0.0358
51908SOL    HW273717   0.441   3.207   0.159 -0.7076 -1.4973  0.9321
51909SOL     OW73718   2.593   6.947   5.444 -0.0069  0.3408  0.1345
51909SOL    HW173719   2.567   6.987   5.361 -0.4321 -2.7314 -1.3560
51909SOL    HW273720   2.687   6.963   5.450 -0.3584  2.6930  0.3715
51910SOL     OW73721   7.938   6.274   0.278 -0.1480  0.3383 -0.1285
51910SOL    HW173722   7.998   6.206   0.308 -1.6103 -1.1949 -0.5718
51910SOL    HW273723   7.993   6.331   0.223  0.8689 -1.1345 -0.7057
51911SOL     OW73724  13.367   9.607   7.428 -0.3654  0.2175 -0.3068
51911SOL    HW173725  13.278   9.576   7.410  0.3837 -2.2594 -0.0933
51911SOL    HW273726  13.355   9.697   7.458 -2.9394 -0.5365  1.2477
51912SOL     OW73727  13.878   2.055   0.073 -0.1481 -0.5599  0.6017
51912SOL    HW173728  13.866   2.139   0.118  0.3593 -0.3512  0.3554
51912SOL    HW273729  13.827   2.062  -0.007  0.8437 -0.0221 -0.0026
51913SOL     OW73730  11.070  11.997   1.467  0.0794 -0.5479  0.0314
51913SOL    HW173731  11.109  11.939   1.401  1.6680 -0.3212  0.7303
51913SOL    HW273732  11.058  11.941   1.544  0.9442 -0.1395  0.4739
51914SOL     OW73733  12.659   7.238   3.911 -0.2573  0.1556 -0.7774
51914SOL    HW173734  12.689   7.308   3.970 -2.1644  1.0994 -0.8615
51914SOL    HW273735  12.606   7.181   3.967  0.4758 -0.7050 -0.9316
51915SOL     OW73736   3.441   3.658   6.584  0.5852  0.3201  0.2545
51915SOL    HW173737   3.436   3.591   6.516 -2.8826  0.0136  0.5999
51915SOL    HW273738   3.434   3.741   6.536 -1.1196  0.1288  0.0979
51916SOL     OW73739   3.389   7.452   8.350 -0.2907 -0.1672  0.0952
51916SOL    HW173740   3.480   7.467   8.324 -0.1442 -0.9479  0.1351
51916SOL    HW273741   3.389   7.363   8.386 -1.1657 -0.3580 -0.3660
51917SOL     OW73742   2.228   7.404  12.078  0.1310 -0.2624 -0.4851
51917SOL    HW173743   2.150   7.404  12.133 -0.3639  1.4370 -1.1369
51917SOL    HW273744   2.288   7.464  12.122  0.3109 -0.0540 -1.0099
51918SOL     OW73745  10.223  10.638   1.974 -0.1357  0.5077  0.0218
51918SOL    HW173746  10.184  10.551   1.969  0.2542  0.3579 -0.4106
51918SOL    HW273747  10.297  10.628   2.034 -0.0375  0.5231 -0.0977
51919SOL     OW73748   7.279  13.539  11.688 -0.4642  0.3512  0.6565
51919SOL    HW173749   7.207  13.602  11.685  0.5809  1.5614 -1.3341
51919SOL    HW273750   7.352  13.588  11.725  0.0978  0.0197 -0.0029
51920SOL     OW73751   4.281  10.670   2.658 -0.1202  0.0863 -0.0839
51920SOL    HW173752   4.366  10.694   2.621  0.2582 -0.5071  0.3868
51920SOL    HW273753   4.260  10.587   2.618 -0.4297  0.1808 -0.1147
51921SOL     OW73754   9.595  12.743   7.967  0.5392  0.1203  0.0293
51921SOL    HW173755   9.687  12.747   7.940  0.5685  0.2454  0.1488
51921SOL    HW273756   9.558  12.672   7.914  0.2446  1.2991 -1.4285
51922SOL     OW73757   3.271   1.409  13.137 -0.6402 -0.1808 -0.1633
51922SOL    HW173758   3.283   1.321  13.101 -1.9221  0.0059 -1.1422
51922SOL    HW273759   3.346   1.422  13.195 -1.2312 -2.5268  1.2613
51923SOL     OW73760   2.558   7.551   5.757  0.4438 -0.3870  0.0017
51923SOL    HW173761   2.647   7.578   5.779  0.2539  0.6218 -0.4334
51923SOL    HW273762   2.505   7.584   5.830  0.3771 -0.7477  0.1215
51924SOL     OW73763   0.133   1.883   2.945  0.5018 -0.2808  0.3841
51924SOL    HW173764   0.045   1.896   2.982 -0.9747 -2.2411 -2.1397
51924SOL    HW273765   0.154   1.967   2.905 -0.1539  0.2441  1.0797
51925SOL     OW73766   2.214   6.687   0.449 -0.0531 -0.2590  0.2361
51925SOL    HW173767   2.216   6.680   0.354  1.0678 -2.2306  0.3515
51925SOL    HW273768   2.125   6.717   0.469  0.0342  1.2754 -1.4541
51926SOL     OW73769   2.724   9.158   7.276  0.2930  0.5461  0.1451
51926SOL    HW173770   2.636   9.195   7.272 -0.1176 -0.3253  0.8207
51926SOL    HW273771   2.757   9.182   7.362 -0.5327 -1.7831  1.1971
51927SOL     OW73772  12.318   1.441  11.439 -0.9205  0.2266  0.0386
51927SOL    HW173773  12.285   1.398  11.517 -1.5139  0.1197 -0.2625
51927SOL    HW273774  12.362   1.519  11.471 -0.4548 -0.2314  0.5374
51928SOL     OW73775   3.153   0.751  13.398 -0.2607  0.4017  0.2345
51928SOL    HW173776   3.134   0.845  13.390  0.3962  0.4582 -0.9751
51928SOL    HW273777   3.122   0.714  13.316 -2.4474 -0.8366  1.5278
51929SOL     OW73778   5.630   2.752  10.820 -0.2734 -0.3580 -0.0515
51929SOL    HW173779   5.682   2.813  10.767 -0.5405 -0.7709 -0.8088
51929SOL    HW273780   5.613   2.678  10.761 -1.3704 -0.4142  0.3151
51930SOL     OW73781   7.909  10.524   7.227  0.3895 -0.4973  0.2664
51930SOL    HW173782   7.958  10.606   7.233  1.2138 -1.0001  0.5806
51930SOL    HW273783   7.974  10.459   7.201 -0.7161 -0.6428 -2.4419
51931SOL     OW73784   2.024   8.058   0.743  0.0780 -0.3892  0.2817
51931SOL    HW173785   1.937   8.060   0.704 -0.7722  1.2886  2.1015
51931SOL    HW273786   2.065   8.141   0.715  0.9250 -0.9452 -0.1713
51932SOL     OW73787   2.826   6.008   3.680 -0.1278 -0.3578 -0.0040
51932SOL    HW173788   2.844   5.945   3.610  0.3893  0.6680 -0.8240
51932SOL    HW273789   2.732   6.026   3.673  0.1633  0.7830 -1.3697
51933SOL     OW73790   3.259   5.445   8.625  0.5937 -0.5825 -0.2151
51933SOL    HW173791   3.223   5.447   8.536  0.6170  0.5840 -0.2073
51933SOL    HW273792   3.261   5.536   8.652  1.4591 -0.8448  0.6390
51934SOL     OW73793   1.259   2.754  11.984  0.0416  0.0702 -0.1095
51934SOL    HW173794   1.201   2.679  11.998 -0.0050  0.1148 -0.0677
51934SOL    HW273795   1.346   2.715  11.976  0.5330  0.2276  3.1421
51935SOL     OW73796   7.436  11.272   1.977  0.1572 -0.0262 -0.5710
51935SOL    HW173797   7.498  11.245   1.909 -0.4873 -1.4219 -0.6348
51935SOL    HW273798   7.387  11.193   1.998  1.1850  0.0113  2.4613
51936SOL     OW73799   8.129  13.614  11.200 -0.3844  0.0373  0.0855
51936SOL    HW173800   8.071  13.647  11.268 -0.7714 -0.6034  0.0752
51936SOL    HW273801   8.073  13.611  11.121 -0.0078  0.5468 -0.2072
51937SOL     OW73802  10.160   3.339  10.013 -0.4469 -0.3881 -0.3613
51937SOL    HW173803  10.141   3.433  10.013  1.6566  0.0928 -0.3969
51937SOL    HW273804  10.087   3.300  10.061 -1.1686  1.3043  0.0078
51938SOL     OW73805   9.358   0.559   3.756  0.4577 -0.5251 -0.4274
51938SOL    HW173806   9.399   0.476   3.778  1.1508 -0.2399 -0.6198
51938SOL    HW273807   9.421   0.603   3.700 -0.7007 -0.6532 -1.8869
51939SOL     OW73808   7.781   1.233   8.584  0.7916 -0.1189  0.0214
51939SOL    HW173809   7.790   1.238   8.679  0.9908  0.6916 -0.0393
51939SOL    HW273810   7.721   1.159   8.570  0.6720 -0.1742  0.7737
51940SOL     OW73811   8.819   4.481   5.048  0.3960  0.6974  0.2957
51940SOL    HW173812   8.764   4.535   5.104 -0.4823  2.0733 -1.7602
51940SOL    HW273813   8.773   4.479   4.964  1.7326 -1.1120 -0.4563
51941SOL     OW73814   8.062  13.458  12.708 -0.1350  0.1417  0.5084
51941SOL    HW173815   7.974  13.424  12.724 -0.3724  1.1982  1.5537
51941SOL    HW273816   8.051  13.553  12.699  0.8175  0.2236 -0.0063
51942SOL     OW73817   5.327   9.633   4.425  0.3726 -0.4687 -0.1179
51942SOL    HW173818   5.268   9.638   4.500  1.0910  0.0578  0.4274
51942SOL    HW273819   5.413   9.614   4.463  0.2684 -3.2945 -1.0236
51943SOL     OW73820   6.980  12.530   8.100  0.2085  0.1594 -0.0607
51943SOL    HW173821   7.041  12.469   8.058 -0.3631  0.2929 -1.1003
51943SOL    HW273822   6.961  12.490   8.185  0.7542 -0.5208 -0.2498
51944SOL     OW73823   6.759  13.632   0.856  0.1132  0.4428 -1.0886
51944SOL    HW173824   6.832  13.691   0.873 -1.7563  2.1403  1.8685
51944SOL    HW273825   6.780  13.553   0.906  0.0137  0.8529 -0.3922
51945SOL     OW73826   1.364   2.635   9.413 -0.1143  0.6826 -0.0933
51945SOL    HW173827   1.316   2.676   9.485  0.4194 -0.0719  0.7203
51945SOL    HW273828   1.456   2.652   9.433  0.1318 -0.8872  0.3069
51946SOL     OW73829   9.498  13.230   2.239 -0.1123 -0.3729 -0.1002
51946SOL    HW173830   9.583  13.200   2.209 -0.3233  1.2195 -2.5633
51946SOL    HW273831   9.511  13.322   2.261 -1.3651  0.1639 -1.4714
51947SOL     OW73832   2.535   9.600   7.787  0.3034 -0.0450 -0.8037
51947SOL    HW173833   2.560   9.616   7.878  0.4241 -0.9434 -0.6752
51947SOL    HW273834   2.439   9.597   7.789  0.1927  1.9388 -1.0572
51948SOL     OW73835  10.306  13.869   0.051 -0.0616 -0.2225  0.3082
51948SOL    HW173836  10.277  13.795   0.103 -0.6478  0.6815  1.3146
51948SOL    HW273837  10.376  13.908   0.102  0.0310  0.0935 -0.0575
51949SOL     OW73838   9.519   9.905   1.601 -0.4061  0.0271 -0.1760
51949SOL    HW173839   9.550   9.891   1.512  0.8611  0.7461  0.1164
51949SOL    HW273840   9.569   9.843   1.654 -0.1618  0.5276  0.1895
51950SOL     OW73841   9.469  13.786   6.935 -0.7703  0.0641  0.1459
51950SOL    HW173842   9.383  13.747   6.922 -0.8350  0.9041 -2.3539
51950SOL    HW273843   9.525  13.711   6.957 -1.8670 -0.6620  0.5937
51951SOL     OW73844   7.052   9.752  11.853  0.1695 -0.3548  0.2977
51951SOL    HW173845   7.132   9.706  11.829  0.1150 -1.2655  1.7185
51951SOL    HW273846   7.066   9.778  11.944 -1.2829 -0.8427  0.6864
51952SOL     OW73847  11.549   5.453  13.560 -0.3080 -0.0853  0.1242
51952SOL    HW173848  11.589   5.389  13.619 -2.0856 -0.5698  0.8845
51952SOL    HW273849  11.615   5.521  13.550  0.1701 -0.1161  2.5051
51953SOL     OW73850   0.899   8.476   5.820  0.0729  0.5333  0.3123
51953SOL    HW173851   0.836   8.453   5.752  3.0947  1.5290 -3.1462
51953SOL    HW273852   0.924   8.392   5.859  0.1146 -0.4242 -1.6500
51954SOL     OW73853   2.082   2.540   0.981 -0.2221  0.1098  0.0848
51954SOL    HW173854   2.124   2.537   0.895 -0.2621  0.8838  0.0298
51954SOL    HW273855   1.989   2.533   0.963 -0.2599  0.6738  0.0209
51955SOL     OW73856   0.535   7.573  11.880 -0.0511  0.0682  0.3670
51955SOL    HW173857   0.604   7.639  11.892 -0.4456  0.5662 -0.0285
51955SOL    HW273858   0.454   7.621  11.900 -0.2762 -0.5437  0.9543
51956SOL     OW73859   0.194   3.199  12.240 -0.8156  0.6619  0.0947
51956SOL    HW173860   0.167   3.115  12.278 -0.6163  0.5289 -0.0605
51956SOL    HW273861   0.155   3.264  12.298  0.4002  0.4637  1.1743
51957SOL     OW73862   1.283   1.507   6.780  0.0432  0.2187  0.1614
51957SOL    HW173863   1.369   1.465   6.782  0.4772  1.0912  1.1951
51957SOL    HW273864   1.303   1.601   6.778 -0.8779  0.4332  0.6913
51958SOL     OW73865  10.728  11.880   4.905  0.1559 -0.2541 -0.1566
51958SOL    HW173866  10.720  11.810   4.971  1.3571  1.1376  1.5847
51958SOL    HW273867  10.820  11.874   4.877 -0.0446 -0.0840 -0.8546
51959SOL     OW73868   2.467  10.108   6.584  0.3611  0.3766  0.1287
51959SOL    HW173869   2.540  10.072   6.534 -0.8798 -2.4021  0.1093
51959SOL    HW273870   2.494  10.100   6.675  0.6750  0.7691  0.0699
51960SOL     OW73871  13.014  10.924   2.113 -0.8707  0.0930 -0.1718
51960SOL    HW173872  12.986  10.865   2.182  0.5525 -0.3702  0.0419
51960SOL    HW273873  13.093  10.884   2.077  0.5939  2.1919  0.4760
51961SOL     OW73874   6.275   4.123   6.493  0.4212  0.0240  0.2923
51961SOL    HW173875   6.314   4.038   6.470  0.7800  0.4441 -0.6681
51961SOL    HW273876   6.243   4.158   6.411 -2.6512 -0.5949  1.1244
51962SOL     OW73877  13.800   8.681   3.853  0.4623  0.5396 -0.0098
51962SOL    HW173878  13.799   8.767   3.895  0.0086  0.4334  0.2070
51962SOL    HW273879  13.871   8.686   3.790  0.6771  0.9530  0.2565
51963SOL     OW73880  12.583  13.596   6.959 -0.5459  0.0854  0.1764
51963SOL    HW173881  12.643  13.613   6.887 -0.2775 -0.5271  0.2532
51963SOL    HW273882  12.554  13.683   6.986  0.1077  0.3767 -0.0303
51964SOL     OW73883  13.911  10.162   2.051  0.3194  0.0836  0.6461
51964SOL    HW173884  13.917  10.082   2.103 -1.2897 -0.4659  0.0468
51964SOL    HW273885  13.837  10.147   1.992  0.5139  1.6888 -0.0601
51965SOL     OW73886   4.414   8.767   1.942 -0.2224  0.4450  0.3402
51965SOL    HW173887   4.424   8.841   1.882 -1.2428  1.1154  0.9766
51965SOL    HW273888   4.504   8.744   1.966  0.0788  2.8864  1.8233
51966SOL     OW73889   4.882  11.106   5.196  0.6382  0.0734  0.0110
51966SOL    HW173890   4.829  11.186   5.187  1.5411  0.5607 -1.2890
51966SOL    HW273891   4.865  11.075   5.285 -2.3257 -0.1501 -0.5273
51967SOL     OW73892   5.220   7.621   6.494 -0.4965  0.0558  0.1660
51967SOL    HW173893   5.152   7.667   6.445  1.5702  2.2207 -0.8669
51967SOL    HW273894   5.244   7.547   6.438 -0.7249  0.3551 -0.3355
51968SOL     OW73895   7.123  13.382  13.044 -0.2493 -0.4014  0.0879
51968SOL    HW173896   7.131  13.366  12.950 -0.9471 -1.0731  0.1328
51968SOL    HW273897   7.032  13.362  13.064 -0.0722 -0.3849  0.9277
51969SOL     OW73898  13.865   4.877   4.446 -0.3126  0.6008  0.3088
51969SOL    HW173899  13.879   4.786   4.420  0.1230  0.7907 -0.1353
51969SOL    HW273900  13.778   4.877   4.486 -0.3618  0.0137  0.2151
51970SOL     OW73901   9.152   5.837   1.526  0.2483  0.2996 -0.3382
51970SOL    HW173902   9.241   5.830   1.560 -0.0728  0.7296  0.6207
51970SOL    HW273903   9.097   5.842   1.603 -0.7179 -0.9931 -0.9187
51971SOL     OW73904  13.116   1.597   2.702 -0.3005 -0.8565  0.1030
51971SOL    HW173905  13.157   1.683   2.708  0.3559 -1.1916  0.4835
51971SOL    HW273906  13.179   1.543   2.654 -1.0438 -0.9274 -0.8105
51972SOL     OW73907   1.366   9.276   8.419  0.7982  0.0431 -0.4101
51972SOL    HW173908   1.374   9.186   8.451  0.0420 -0.9928 -2.9081
51972SOL    HW273909   1.293   9.313   8.469 -0.0360 -1.3434 -0.5488
51973SOL     OW73910   7.887   3.732  13.080 -0.0934  0.2301 -0.0452
51973SOL    HW173911   7.805   3.693  13.051 -0.2871  0.3451  0.3304
51973SOL    HW273912   7.883   3.823  13.050 -0.2136  0.3002  0.1756
51974SOL     OW73913   2.768  11.235  12.742  0.0116  0.3383 -0.4662
51974SOL    HW173914   2.837  11.181  12.782  0.2046  0.6422 -0.3792
51974SOL    HW273915   2.793  11.242  12.650 -0.0441  0.2285 -0.4895
51975SOL     OW73916   3.897  11.684   7.694  0.1696 -0.2255  0.3249
51975SOL    HW173917   3.938  11.672   7.780  1.0500  0.8269  0.0735
51975SOL    HW273918   3.856  11.770   7.699  2.4119  1.0307 -1.1077
51976SOL     OW73919   9.239  10.255  13.903  0.8263 -0.7290  0.7127
51976SOL    HW173920   9.177  10.286  13.838  0.9122 -0.0130  0.9558
51976SOL    HW273921   9.187  10.204  13.965  0.6188 -0.7767  0.4971
51977SOL     OW73922   0.601   9.881   8.614  0.2305  0.0043  0.2012
51977SOL    HW173923   0.551   9.800   8.602 -1.2180  0.9214 -0.2243
51977SOL    HW273924   0.534   9.950   8.617  1.4618  1.2508 -0.1168
51978SOL     OW73925   5.373  12.865   1.265  0.1620 -0.9598 -0.3895
51978SOL    HW173926   5.461  12.868   1.228  0.4266  1.1482  0.2798
51978SOL    HW273927   5.386  12.880   1.359 -0.9310  0.0812 -0.3806
51979SOL     OW73928   9.999   8.602   2.965 -0.3388  0.4799  0.7684
51979SOL    HW173929  10.075   8.624   3.018 -0.6957  1.2753  0.9544
51979SOL    HW273930  10.014   8.645   2.881 -0.2171 -0.0071  0.5365
51980SOL     OW73931  11.839   2.116   4.505 -0.2835 -0.1247  1.0236
51980SOL    HW173932  11.824   2.033   4.460  1.4751 -0.0939  0.2878
51980SOL    HW273933  11.760   2.168   4.488 -0.6524 -0.9958 -0.0273
51981SOL     OW73934   3.300   2.089   4.135  0.1606  0.2488  0.3960
51981SOL    HW173935   3.389   2.056   4.147  0.1039  0.6879  2.4965
51981SOL    HW273936   3.244   2.017   4.166 -0.0889  0.9279  1.5782
51982SOL     OW73937   9.827   6.642  12.566  0.7675 -0.0046 -0.2132
51982SOL    HW173938   9.852   6.733  12.548  2.4614 -0.2518  0.6416
51982SOL    HW273939   9.778   6.646  12.648 -0.5301  0.2908 -0.9822
51983SOL     OW73940   1.186   7.901  11.167  0.2415 -0.0302  0.0756
51983SOL    HW173941   1.174   7.968  11.100  3.1046 -0.1291 -0.6668
51983SOL    HW273942   1.271   7.862  11.147  0.1410 -1.6622  2.4201
51984SOL     OW73943   1.760  11.016   9.941 -0.4990 -0.3208 -0.5118
51984SOL    HW173944   1.699  11.086   9.921 -1.2089 -1.0059 -0.8033
51984SOL    HW273945   1.820  11.054  10.005 -1.8223  0.0702  0.5499
51985SOL     OW73946   1.874   6.211   9.486  0.1947  0.1851  0.3463
51985SOL    HW173947   1.796   6.266   9.474 -0.2067 -0.3272  0.5989
51985SOL    HW273948   1.930   6.233   9.412 -0.2537  0.4458  0.0815
51986SOL     OW73949  13.169   9.742   8.487 -0.2670 -0.2848 -0.1626
51986SOL    HW173950  13.076   9.738   8.510  0.1238 -2.5460  1.3648
51986SOL    HW273951  13.198   9.827   8.518 -1.4051 -0.3684  1.2189
51987SOL     OW73952  10.012   0.738   0.111 -0.4290  0.2174  0.6425
51987SOL    HW173953   9.924   0.734   0.150 -0.9448  1.4552 -0.3087
51987SOL    HW273954  10.025   0.831   0.093  0.5549 -0.1055 -0.4050
51988SOL     OW73955   7.610   3.751  12.627  0.0780  0.1674 -0.2568
51988SOL    HW173956   7.522   3.787  12.632 -0.8132 -2.0328  1.5137
51988SOL    HW273957   7.615   3.710  12.540 -0.5455  0.4500 -0.4289
51989SOL     OW73958   1.671   7.675   4.901 -0.4167 -0.2564  0.2292
51989SOL    HW173959   1.735   7.728   4.950  0.2364 -1.1823  0.3950
51989SOL    HW273960   1.607   7.739   4.869 -0.0348  0.5509  1.0283
51990SOL     OW73961   0.528  13.559  11.344 -0.6916  0.1294  0.2670
51990SOL    HW173962   0.515  13.649  11.314  0.0535  0.1039 -0.1625
51990SOL    HW273963   0.466  13.548  11.415 -1.2019  0.7938 -0.0698
51991SOL     OW73964   7.722  10.511  10.231 -0.5023  0.4251 -0.7617
51991SOL    HW173965   7.720  10.607  10.236  1.4885  0.4683  2.0544
51991SOL    HW273966   7.633  10.484  10.250 -0.7011  1.7602  0.3965
51992SOL     OW73967  13.374   8.484   6.697 -0.2566 -0.3932 -0.3543
51992SOL    HW173968  13.299   8.513   6.749 -0.3229  0.3016 -0.8165
51992SOL    HW273969  13.369   8.537   6.617  0.5463 -0.5699 -0.5295
51993SOL     OW73970   1.706  12.021   7.197 -0.4250 -0.2623 -0.2497
51993SOL    HW173971   1.741  11.937   7.167 -0.0954 -0.2819  0.1888
51993SOL    HW273972   1.735  12.028   7.288 -0.6724  0.2073 -0.2068
51994SOL     OW73973  13.018   9.915  14.040 -0.0420  0.2819  0.4613
51994SOL    HW173974  13.049   9.985  13.983 -0.7716 -0.1995 -0.5430
51994SOL    HW273975  12.923   9.913  14.028 -0.3010  0.5498  2.1344
51995SOL     OW73976  11.178  12.670   6.344 -0.0582 -0.3877  0.8031
51995SOL    HW173977  11.199  12.594   6.290  0.9758  1.4540 -1.5564
51995SOL    HW273978  11.240  12.666   6.417  1.4106 -0.7350 -0.4127
51996SOL     OW73979  13.112   3.748  10.785  0.5449 -0.9262  0.5354
51996SOL    HW173980  13.140   3.658  10.766 -0.6245 -1.2812  0.3954
51996SOL    HW273981  13.051   3.769  10.714  2.4889  0.8326 -0.7303
51997SOL     OW73982   7.248   0.028   0.441 -0.5171 -0.0990  0.4197
51997SOL    HW173983   7.163  -0.006   0.469  0.0171 -0.1996  2.0142
51997SOL    HW273984   7.244   0.026   0.345 -3.0338  1.6618  0.3636
51998SOL     OW73985  11.985  10.080   6.142  0.2261  0.1627 -0.3791
51998SOL    HW173986  11.923  10.071   6.069 -2.1999 -1.5191  1.7169
51998SOL    HW273987  12.017  10.170   6.135 -0.2783  0.2170 -3.1824
51999SOL     OW73988   0.979   1.097  13.854  0.5346  0.3977 -0.4987
51999SOL    HW173989   0.921   1.059  13.789 -0.2353  0.4154  0.1636
51999SOL    HW273990   0.964   1.192  13.848 -0.0129  0.3570  0.1326
52000SOL     OW73991   7.686   1.635  11.550 -0.2111  0.1620 -0.3018
52000SOL    HW173992   7.766   1.688  11.559  0.2223 -0.5538  0.1109
52000SOL    HW273993   7.707   1.570  11.483 -0.5884  0.2105 -0.4745
52001SOL     OW73994   8.513   4.908   6.521 -0.5766 -0.3665 -0.6435
52001SOL    HW173995   8.469   4.892   6.605 -0.5694  0.5329 -0.4652
52001SOL    HW273996   8.581   4.973   6.541  1.9655 -2.8433 -0.5593
52002SOL     OW73997  11.653  13.603   4.495  0.0019  0.3931 -0.1373
52002SOL    HW173998  11.647  13.507   4.501 -0.4996  0.3930 -0.5792
52002SOL    HW273999  11.694  13.629   4.578  0.5149 -0.2323 -0.1797
52003SOL     OW74000  11.212   0.212   7.292  0.1181 -0.4631 -0.5465
52003SOL    HW174001  11.267   0.274   7.245  0.4231 -0.1743  0.1743
52003SOL    HW274002  11.127   0.218   7.249 -0.5643  2.2105  0.9347
52004SOL     OW74003   6.908   1.056  12.547 -0.0939 -0.2938  0.5294
52004SOL    HW174004   6.998   1.084  12.527  0.0901 -0.2710  1.3652
52004SOL    HW274005   6.908   1.039  12.641 -1.3073  0.9303  0.7760
52005SOL     OW74006   7.516   6.295  12.955 -0.1716  0.4156 -0.1948
52005SOL    HW174007   7.601   6.324  12.991  0.8404  0.1202 -2.2179
52005SOL    HW274008   7.466   6.376  12.946  0.8933  0.9782 -1.4146
52006SOL     OW74009  11.291   3.542  13.780 -0.3091  0.3145  0.4432
52006SOL    HW174010  11.377   3.549  13.738 -0.7777 -0.2210 -0.6344
52006SOL    HW274011  11.286   3.451  13.810 -1.3525 -0.3299 -1.4839
52007SOL     OW74012   9.541   9.809   4.852 -0.5624  0.4004  0.3651
52007SOL    HW174013   9.545   9.902   4.831  0.1665  0.0067 -1.5367
52007SOL    HW274014   9.456   9.796   4.893 -1.6071  1.5697 -1.3195
52008SOL     OW74015   1.633   5.424   7.432 -0.7803 -0.1530 -0.4028
52008SOL    HW174016   1.663   5.446   7.344 -1.0543  1.0646 -0.2007
52008SOL    HW274017   1.619   5.508   7.475 -1.0186 -0.7309  0.6837
52009SOL     OW74018   2.503   1.699   9.972  0.2021 -0.4992  0.3202
52009SOL    HW174019   2.510   1.678   9.879 -0.7759 -0.4655  0.2291
52009SOL    HW274020   2.409   1.708   9.988  0.3603 -0.4307  1.2977
52010SOL     OW74021   0.473   0.642   5.843 -0.3025 -0.5436  0.3306
52010SOL    HW174022   0.407   0.711   5.838  1.3571  1.2886  2.0251
52010SOL    HW274023   0.518   0.646   5.758 -0.4153  0.2981  0.2993
52011SOL     OW74024   0.987   1.879   5.851  0.1012  0.4558  0.6598
52011SOL    HW174025   0.958   1.960   5.893  1.1289  1.5731 -0.6921
52011SOL    HW274026   1.071   1.859   5.892 -0.0991  0.1073  0.9142
52012SOL     OW74027   0.288   9.342  12.072 -1.0214  0.0867  0.3763
52012SOL    HW174028   0.217   9.387  12.027  0.5688  2.0194 -0.3658
52012SOL    HW274029   0.288   9.381  12.160  0.4976  1.8967 -0.3333
52013SOL     OW74030   3.437   8.172   3.985  0.1497  0.1900  0.1782
52013SOL    HW174031   3.362   8.188   3.927 -0.3256  0.1734  0.7761
52013SOL    HW274032   3.411   8.097   4.038  0.3759  0.5097  0.7468
52014SOL     OW74033   7.969   3.811   9.837 -0.1174 -0.1067  0.1156
52014SOL    HW174034   8.018   3.892   9.828 -0.2955 -0.2025 -2.2386
52014SOL    HW274035   8.034   3.742   9.826  0.0389 -0.3302  2.1318
52015SOL     OW74036   7.502   5.298  12.748  0.2296 -0.6186  0.3564
52015SOL    HW174037   7.447   5.347  12.686 -0.1588 -1.1736  0.2521
52015SOL    HW274038   7.446   5.286  12.825 -0.0714 -1.8081 -0.0185
52016SOL     OW74039   6.219  13.634  14.109  0.3045 -0.6668  0.0711
52016SOL    HW174040   6.233  13.540  14.125  0.6758 -0.3881  1.6158
52016SOL    HW274041   6.140  13.655  14.159  1.4359  0.2521  1.5567
52017SOL     OW74042  10.742  13.953  10.646  0.0024  0.4010 -0.5158
52017SOL    HW174043  10.670  13.937  10.707  1.7446 -1.3304  1.2296
52017SOL    HW274044  10.796  14.019  10.690  1.1752 -0.7222 -0.1989
52018SOL     OW74045   3.808   4.894  10.735  0.1972  0.2919 -0.4984
52018SOL    HW174046   3.734   4.920  10.790  0.4632 -0.7450  0.3763
52018SOL    HW274047   3.861   4.974  10.727 -0.6869  0.8775 -0.6204
52019SOL     OW74048   1.562   3.440   3.713  0.2184 -0.2929 -0.4429
52019SOL    HW174049   1.472   3.416   3.688  0.6019 -0.2749 -1.9675
52019SOL    HW274050   1.589   3.501   3.645  1.0891  0.3991  0.5051
52020SOL     OW74051  11.385  12.693   0.528 -0.3188  0.4035  0.0676
52020SOL    HW174052  11.418  12.736   0.607  0.2901  0.8683 -0.4235
52020SOL    HW274053  11.290  12.701   0.533 -0.3167 -0.0960  1.0364
52021SOL     OW74054  12.506   8.901   7.349  0.1129 -0.0111  1.0141
52021SOL    HW174055  12.535   8.957   7.422  1.2224  0.3762  0.3050
52021SOL    HW274056  12.427   8.859   7.381  0.5083  0.2510  2.4081
52022SOL     OW74057   3.833  13.755   4.602 -0.1528  0.3354 -0.2857
52022SOL    HW174058   3.922  13.725   4.620  0.6289  1.6332 -1.7499
52022SOL    HW274059   3.779  13.676   4.611  0.7786 -0.0995  2.6317
52023SOL     OW74060  13.418   6.552   1.473 -0.8673 -0.4307 -0.7386
52023SOL    HW174061  13.333   6.543   1.429 -0.1059  0.3619 -2.4436
52023SOL    HW274062  13.416   6.640   1.511 -0.5163 -0.0980 -1.4729
52024SOL     OW74063   6.639   8.115   4.772  0.1400 -0.1967  0.3572
52024SOL    HW174064   6.688   8.190   4.805  0.5703  0.0350 -0.7703
52024SOL    HW274065   6.627   8.133   4.679 -0.6505 -1.0429  0.2818
52025SOL     OW74066   0.268   4.142   1.962 -0.1972  0.2080 -0.0462
52025SOL    HW174067   0.176   4.161   1.945 -0.1117  1.7098  0.9477
52025SOL    HW274068   0.316   4.203   1.906  0.2437 -0.9884 -1.0307
52026SOL     OW74069  10.933   2.731   8.703 -0.2168  0.2668  0.1326
52026SOL    HW174070  10.875   2.797   8.666  0.0813  1.1748  1.2019
52026SOL    HW274071  10.921   2.654   8.648 -3.6445 -0.1273  1.2444
52027SOL     OW74072  10.652   9.948  10.176  0.0793  0.4965  0.1009
52027SOL    HW174073  10.571   9.954  10.124 -0.0018  0.5383  0.2313
52027SOL    HW274074  10.672  10.038  10.201 -0.1247  0.4346  0.5082
52028SOL     OW74075  12.116  13.736  13.519  0.0683 -0.1157  0.1354
52028SOL    HW174076  12.167  13.667  13.562  1.1959 -0.6624 -1.9113
52028SOL    HW274077  12.049  13.760  13.583  0.0869 -2.5946  1.2172
52029SOL     OW74078   2.269   5.154  11.528 -0.6326  0.2906  0.3025
52029SOL    HW174079   2.344   5.139  11.586 -0.5897  0.4295  0.2828
52029SOL    HW274080   2.302   5.212  11.460 -0.3678 -0.7503 -0.4994
52030SOL     OW74081   9.323   8.829   8.947  0.2069  0.1631  0.0136
52030SOL    HW174082   9.307   8.742   8.909 -2.0845 -0.2640  1.7690
52030SOL    HW274083   9.392   8.815   9.012 -0.2569 -0.3947  0.3946
52031SOL     OW74084  12.618   8.075   8.623  0.2648 -0.2580  0.2150
52031SOL    HW174085  12.704   8.040   8.648  1.1054 -0.1385 -2.2822
52031SOL    HW274086  12.635   8.166   8.599 -1.0720  0.5511  2.0485
52032SOL     OW74087   7.290   9.269   6.625  0.3899 -0.3585  0.0665
52032SOL    HW174088   7.208   9.235   6.661  0.6258 -0.1700  0.8028
52032SOL    HW274089   7.298   9.228   6.539 -0.9230  0.2999 -0.3944
52033SOL     OW74090   3.572   5.563  13.515 -0.2036  0.4901  0.6847
52033SOL    HW174091   3.523   5.532  13.591  0.3552 -1.3502  0.3515
52033SOL    HW274092   3.658   5.523  13.525 -0.0688  0.3677 -0.8125
52034SOL     OW74093   5.668   7.949   8.354  0.3364 -0.3286  0.2555
52034SOL    HW174094   5.719   7.918   8.429 -0.5304  0.7607  1.3274
52034SOL    HW274095   5.601   7.881   8.341  0.1762 -0.2841  0.8080
52035SOL     OW74096   0.366   8.789  12.475  0.2782 -0.5235 -0.0031
52035SOL    HW174097   0.284   8.746  12.501 -0.4954  0.6984 -0.3052
52035SOL    HW274098   0.375   8.769  12.382  0.0291 -0.2316 -0.0939
52036SOL     OW74099  12.870   8.307   7.524 -0.1087 -0.0647  0.0162
52036SOL    HW174100  12.912   8.379   7.476  1.1121 -1.2517 -0.7623
52036SOL    HW274101  12.857   8.342   7.612 -0.0007  1.2805 -0.4744
52037SOL     OW74102  12.113   6.296   4.386  0.6019  0.0045 -0.4671
52037SOL    HW174103  12.025   6.295   4.349  0.4876 -0.4232 -0.1760
52037SOL    HW274104  12.142   6.205   4.384  0.5187 -0.0611  0.6915
52038SOL     OW74105   0.850   4.350   3.562  0.4197  0.4006  0.3223
52038SOL    HW174106   0.783   4.418   3.562 -0.7085 -0.6450  1.5812
52038SOL    HW274107   0.929   4.394   3.530  0.2455  2.8396  2.8208
52039SOL     OW74108   5.498   8.509  12.189 -0.0049  0.4785 -0.0615
52039SOL    HW174109   5.419   8.455  12.194 -0.3556  1.1102  1.8000
52039SOL    HW274110   5.563   8.462  12.240  0.0634  1.1770  0.5095
52040SOL     OW74111   3.527   9.882   3.509  1.2093  0.4567  0.4092
52040SOL    HW174112   3.588   9.884   3.435  1.0994  0.5502  0.3192
52040SOL    HW274113   3.453   9.935   3.480  0.9270  0.0465  0.3802
52041SOL     OW74114   0.784   9.179  10.373  0.2646 -0.1003 -0.0918
52041SOL    HW174115   0.739   9.194  10.290  1.5783 -2.6893 -1.4186
52041SOL    HW274116   0.877   9.195  10.353  0.4121  1.3715  1.5245
52042SOL     OW74117  12.790  10.954   1.156  0.6880  0.2991  0.0112
52042SOL    HW174118  12.697  10.976   1.147  0.9137  2.4179  2.0228
52042SOL    HW274119  12.790  10.864   1.189 -0.8321  1.0344  2.2653
52043SOL     OW74120   5.331   7.880  12.887  0.6566 -0.0219 -0.0917
52043SOL    HW174121   5.243   7.847  12.904  0.2039  0.0343 -2.0655
52043SOL    HW274122   5.322   7.975  12.890  0.7495 -0.0200  0.1403
52044SOL     OW74123  10.891   5.664   4.533 -0.5231  0.0320 -0.3731
52044SOL    HW174124  10.937   5.652   4.616 -1.6303 -1.0029  0.1228
52044SOL    HW274125  10.952   5.713   4.478  0.7370 -0.3874  0.6174
52045SOL     OW74126  11.866  11.898   9.500  0.1818  0.0852 -0.5464
52045SOL    HW174127  11.940  11.893   9.560 -0.6198 -2.2616  0.3889
52045SOL    HW274128  11.789  11.889   9.556 -0.6495 -0.8570 -1.7808
52046SOL     OW74129   9.017  13.407  13.752 -0.0561 -0.6318 -0.4804
52046SOL    HW174130   9.060  13.486  13.785  0.4328 -1.5594  1.2069
52046SOL    HW274131   9.058  13.390  13.667  3.1442 -1.5953  1.1266
52047SOL     OW74132   3.927   4.081  11.732  0.2847  0.1245  0.3226
52047SOL    HW174133   3.940   3.990  11.757  3.2498  0.5416  0.5908
52047SOL    HW274134   3.923   4.128  11.815 -1.9772  0.2435  0.2146
52048SOL     OW74135  10.794   7.069   5.272  0.1822  0.7544  0.3225
52048SOL    HW174136  10.729   7.139   5.271  0.5267  1.1149  1.2897
52048SOL    HW274137  10.857   7.094   5.205  0.7197  1.8160  1.1813
52049SOL     OW74138   9.459  11.579  10.884  0.2312  0.3275 -0.0026
52049SOL    HW174139   9.523  11.564  10.814  1.4452 -1.8097  1.4646
52049SOL    HW274140   9.485  11.664  10.921  0.1587  1.0284 -1.4543
52050SOL     OW74141  11.013  10.503  12.505  0.1072 -0.2199  0.0878
52050SOL    HW174142  11.064  10.436  12.551 -0.4687 -0.5287  0.2901
52050SOL    HW274143  10.941  10.524  12.565 -0.3108 -0.1847 -0.4144
52051SOL     OW74144  10.374   4.333  13.940 -0.4424 -0.1235 -0.1340
52051SOL    HW174145  10.369   4.428  13.952 -0.6563 -0.1520  0.0052
52051SOL    HW274146  10.444   4.304  13.999  1.4787  0.2789 -2.0751
52052SOL     OW74147   2.123   8.552  12.522 -0.3127  0.5410  0.3529
52052SOL    HW174148   2.195   8.546  12.459  0.3208 -2.4118  1.1910
52052SOL    HW274149   2.051   8.503  12.482 -1.1877  1.7575  0.3921
52053SOL     OW74150  10.758   4.310   8.796 -0.3843  0.2203 -0.7290
52053SOL    HW174151  10.796   4.392   8.763 -0.7815  0.7514  0.1011
52053SOL    HW274152  10.802   4.295   8.880 -1.9986  0.8841  0.2898
52054SOL     OW74153   8.531   9.882  11.762 -0.1755 -0.4844  0.0816
52054SOL    HW174154   8.449   9.923  11.787 -0.9884 -0.9105 -1.7337
52054SOL    HW274155   8.508   9.790  11.748  1.3138 -1.3410  2.7046
52055SOL     OW74156   8.003  10.854   0.935  0.2484 -0.7274 -0.0854
52055SOL    HW174157   7.938  10.813   0.878  0.6013 -0.7719 -0.4593
52055SOL    HW274158   8.000  10.947   0.912  0.2978 -0.7257 -0.0846
52056SOL     OW74159   0.357  11.330   3.503  0.6384 -0.2114  0.6222
52056SOL    HW174160   0.392  11.300   3.587 -0.6168  0.8752  1.5692
52056SOL    HW274161   0.360  11.426   3.509 -0.8754 -0.1056  0.0633
52057SOL     OW74162   6.950   0.430  10.544  0.0854  0.3751  0.5241
52057SOL    HW174163   6.874   0.383  10.510  0.6933 -0.8890  0.8645
52057SOL    HW274164   7.025   0.386  10.505  0.7079  3.7373 -2.6800
52058SOL     OW74165   2.497   9.956   9.070  0.2986 -0.1886  0.0144
52058SOL    HW174166   2.592   9.945   9.064  0.3004  0.3145 -1.5263
52058SOL    HW274167   2.464   9.873   9.103  1.3305 -0.1258  1.2343
52059SOL     OW74168   0.161  13.180   0.771  0.7114 -0.3180 -0.1850
52059SOL    HW174169   0.071  13.200   0.746  0.4882 -0.7033  0.3029
52059SOL    HW274170   0.192  13.259   0.814  0.5171 -0.2817 -0.1121
52060SOL     OW74171   0.808   0.822   0.491  0.1567  0.0774 -0.5249
52060SOL    HW174172   0.716   0.808   0.514  0.6052 -3.3867 -0.2580
52060SOL    HW274173   0.834   0.900   0.541 -1.3664 -1.7769  3.6298
52061SOL     OW74174  13.022  10.813  10.253 -0.0207  0.0109  0.1388
52061SOL    HW174175  12.997  10.888  10.200  0.8233  1.2791  1.4568
52061SOL    HW274176  12.966  10.742  10.222 -0.1701  0.9011 -1.8135
52062SOL     OW74177   4.501   9.113   6.720 -0.2535 -0.0806  0.1924
52062SOL    HW174178   4.537   9.149   6.639  0.2491 -1.5092 -0.2449
52062SOL    HW274179   4.495   9.188   6.779  1.9282  0.5150 -0.2576
52063SOL     OW74180  10.015  11.408   0.345  0.5552  0.6058 -0.3664
52063SOL    HW174181  10.082  11.460   0.301 -0.7439  1.6106 -1.2181
52063SOL    HW274182   9.944  11.470   0.363  0.4702 -0.0758  1.9416
52064SOL     OW74183  11.747   6.437   2.692  0.3166  0.0249 -0.6521
52064SOL    HW174184  11.662   6.416   2.729  0.4823 -0.2428 -0.4234
52064SOL    HW274185  11.726   6.474   2.606 -0.0529  0.4506 -0.3852
52065SOL     OW74186   8.852   0.413   0.036  0.0231 -0.3734  0.2302
52065SOL    HW174187   8.910   0.488   0.025 -2.0605  1.1928 -0.9682
52065SOL    HW274188   8.903   0.349   0.085  2.4794  1.1361 -0.2071
52066SOL     OW74189   3.249   3.159   5.128  0.2393  0.1792 -0.0988
52066SOL    HW174190   3.300   3.126   5.054  0.3125  0.6299 -0.2516
52066SOL    HW274191   3.160   3.127   5.111 -0.4746  2.8780 -2.0772
52067SOL     OW74192  11.989   1.574  12.340  0.0375 -0.3191  0.0618
52067SOL    HW174193  12.040   1.645  12.378 -0.7757  0.3037  0.0158
52067SOL    HW274194  11.903   1.583  12.380 -0.7840  0.2308 -1.7612
52068SOL     OW74195   1.728   1.282   6.999 -0.2511 -0.4105  0.5812
52068SOL    HW174196   1.797   1.245   7.054  0.8442  0.1005 -0.3950
52068SOL    HW274197   1.647   1.265   7.047  0.5798 -0.7095  1.9380
52069SOL     OW74198   9.599   5.888  13.200 -0.1927  0.0883 -0.2719
52069SOL    HW174199   9.544   5.966  13.198  1.9801  1.7092 -1.4640
52069SOL    HW274200   9.554   5.828  13.259 -2.3522  1.9230  0.0807
52070SOL     OW74201  12.343   3.990  13.182 -0.2796  0.0588  0.3794
52070SOL    HW174202  12.285   3.995  13.257 -1.2514  1.8472 -0.4216
52070SOL    HW274203  12.290   4.020  13.108  2.1137  3.9578 -0.0559
52071SOL     OW74204  14.061   7.046   2.893  0.3552  0.1384  0.4878
52071SOL    HW174205  14.139   7.081   2.934  0.9658 -2.9576  2.2789
52071SOL    HW274206  13.988   7.081   2.945  0.9268 -0.9235  2.0878
52072SOL     OW74207   7.147  13.149  13.336 -0.2863 -0.0546 -0.0178
52072SOL    HW174208   7.096  13.142  13.255 -2.3599  0.7068  1.1416
52072SOL    HW274209   7.105  13.087  13.396  0.0649  0.6871  1.0249
52073SOL     OW74210   9.860   0.471   0.121  0.1644 -0.4866 -0.4259
52073SOL    HW174211   9.880   0.386   0.084  1.2756  0.2323 -1.5800
52073SOL    HW274212   9.945   0.515   0.127 -0.4727  0.8375 -0.6337
52074SOL     OW74213   3.071   2.086  11.679 -0.2267  0.7336 -0.0905
52074SOL    HW174214   3.094   1.998  11.710 -1.0891  0.8489  0.9472
52074SOL    HW274215   3.098   2.144  11.751 -2.2037  1.0240  0.4754
52075SOL     OW74216   5.972   6.468   1.807  0.0155 -0.2376 -0.1634
52075SOL    HW174217   6.066   6.448   1.805  0.0428 -0.3501  1.2038
52075SOL    HW274218   5.931   6.386   1.833 -0.4943 -0.2515 -0.9991
52076SOL     OW74219   2.932  12.721   0.530  0.5536  0.1028  0.1750
52076SOL    HW174220   3.022  12.721   0.497 -0.1061  0.8819 -1.8165
52076SOL    HW274221   2.891  12.645   0.489  0.2484 -0.1440  0.9194
52077SOL     OW74222   7.389  12.083   9.068  0.5857  0.2518  0.4146
52077SOL    HW174223   7.479  12.094   9.099  0.9700 -0.9583 -0.2077
52077SOL    HW274224   7.399  12.054   8.977 -0.4177 -0.3437  0.4873
52078SOL     OW74225  13.892   3.069  11.871  0.2589 -1.1697 -0.6876
52078SOL    HW174226  13.889   2.994  11.931 -0.3612 -0.4827  0.1550
52078SOL    HW274227  13.817   3.123  11.896  0.9356 -0.0582 -1.0029
52079SOL     OW74228   1.613   7.342  11.984  0.3692  0.2860 -0.1595
52079SOL    HW174229   1.687   7.282  11.975 -0.7873 -1.5690  1.7222
52079SOL    HW274230   1.572   7.343  11.897  0.1799 -2.0953 -0.1717
52080SOL     OW74231   5.027  12.392  11.111 -0.2913  0.7141  0.2778
52080SOL    HW174232   5.085  12.459  11.147 -1.3852  1.9292 -0.1555
52080SOL    HW274233   5.086  12.329  11.070  0.9743 -0.2772  3.3094
52081SOL     OW74234   9.653  13.596   5.643 -0.1123  0.6833  0.3849
52081SOL    HW174235   9.736  13.626   5.605 -0.4033 -0.3159 -1.1437
52081SOL    HW274236   9.630  13.519   5.592 -0.1553 -1.2794  3.1589
52082SOL     OW74237   2.156  11.419   5.855 -0.0809 -0.3174 -0.6683
52082SOL    HW174238   2.121  11.345   5.805  0.6498 -1.4716  0.4839
52082SOL    HW274239   2.122  11.407   5.943  2.4177 -1.0009  0.2853
52083SOL     OW74240   9.408  10.931   3.393  0.2808 -0.4678  0.1761
52083SOL    HW174241   9.430  11.024   3.387  0.1843 -0.5503 -2.3127
52083SOL    HW274242   9.322  10.924   3.353 -0.3521 -1.4674  1.6316
52084SOL     OW74243   7.804   1.862  10.901 -0.0686 -0.3307 -0.2192
52084SOL    HW174244   7.842   1.856  10.813 -0.6410 -0.3605 -0.4655
52084SOL    HW274245   7.713   1.886  10.886  0.2093  1.2413  0.4316
52085SOL     OW74246  11.109   0.520   9.789 -0.2599  0.1297 -0.8389
52085SOL    HW174247  11.024   0.511   9.831 -1.0076  0.7829 -2.1525
52085SOL    HW274248  11.089   0.535   9.696  1.2922 -0.0999 -1.2448
52086SOL     OW74249   7.982   8.121  11.590  0.2533  0.2084  0.2493
52086SOL    HW174250   8.003   8.028  11.584 -0.6371 -0.2065  2.4665
52086SOL    HW274251   8.024   8.150  11.671 -1.1692  1.2226  0.6717
52087SOL     OW74252   4.022  12.872  11.847 -0.2078 -0.4713 -0.4478
52087SOL    HW174253   3.987  12.785  11.828  0.6225 -1.2161  1.2497
52087SOL    HW274254   4.091  12.885  11.782 -2.4004  0.3474 -2.7987
52088SOL     OW74255   1.541   6.524  12.871  0.3386  0.0034 -0.5093
52088SOL    HW174256   1.630   6.492  12.855  0.4660 -0.3241  0.7465
52088SOL    HW274257   1.552   6.615  12.899  0.4657 -0.5299  1.3350
52089SOL     OW74258   5.883   2.033   7.119  0.0155 -0.0484 -0.0758
52089SOL    HW174259   5.866   2.108   7.062  4.2866 -0.7371 -2.7136
52089SOL    HW274260   5.885   1.958   7.060  3.0804 -1.0679  1.1341
52090SOL     OW74261   9.048   6.094  10.813 -0.2624 -0.0909  0.3026
52090SOL    HW174262   8.958   6.074  10.784  0.1815 -0.9201 -0.5839
52090SOL    HW274263   9.038   6.166  10.874 -1.3784  1.1014 -1.1979
52091SOL     OW74264   6.222  13.817   4.615  0.4285  0.0510  0.3500
52091SOL    HW174265   6.139  13.848   4.578 -0.0405 -1.1104  0.3594
52091SOL    HW274266   6.282  13.891   4.606 -0.5594  0.8561  0.1760
52092SOL     OW74267  10.170   3.542  11.665 -0.3813 -0.0583 -0.1511
52092SOL    HW174268  10.076   3.548  11.646 -0.2009 -0.2867 -1.1998
52092SOL    HW274269  10.184   3.450  11.687 -0.8668  0.4899  2.8382
52093SOL     OW74270  12.329   1.976   9.229 -0.1741  0.4792 -0.4094
52093SOL    HW174271  12.286   2.008   9.150 -2.2877  0.4141  0.6277
52093SOL    HW274272  12.288   1.890   9.245 -0.9251  1.1424  1.5324
52094SOL     OW74273  13.023   6.937   2.383 -0.4543  0.6567 -0.6191
52094SOL    HW174274  12.946   6.984   2.351 -2.4218 -0.2443  2.3590
52094SOL    HW274275  12.990   6.849   2.404  1.4626  0.1163  0.3395
52095SOL     OW74276   2.621   2.473  11.665 -0.0968  0.0349 -0.4674
52095SOL    HW174277   2.707   2.473  11.705  0.3172 -0.8266 -1.3061
52095SOL    HW274278   2.562   2.444  11.735  0.2675  0.7057  0.1292
52096SOL     OW74279   4.344   0.377  11.484 -0.0303  0.2374 -0.2721
52096SOL    HW174280   4.308   0.455  11.526 -0.8830 -1.1517  1.7254
52096SOL    HW274281   4.271   0.343  11.432 -0.1079  0.0145 -0.0193
52097SOL     OW74282   0.918   8.550   7.407  0.0607 -0.2138 -0.6680
52097SOL    HW174283   0.989   8.530   7.346 -1.2486 -0.4536 -2.1838
52097SOL    HW274284   0.853   8.481   7.392 -1.4375  1.1736 -0.9019
52098SOL     OW74285  10.966   5.917  11.080 -0.5465 -0.3667  0.4487
52098SOL    HW174286  10.988   5.869  11.160  0.1765 -0.2541  0.3249
52098SOL    HW274287  10.905   5.985  11.109 -1.4352 -1.2250  0.6572
52099SOL     OW74288   9.120   3.868   9.216  0.6994 -0.0756  0.8592
52099SOL    HW174289   9.180   3.848   9.144  1.2615  1.8908  0.7327
52099SOL    HW274290   9.116   3.787   9.267  1.2290 -1.1336 -0.6881
52100SOL     OW74291   6.322   0.811   7.886 -0.0498 -0.5184 -0.8820
52100SOL    HW174292   6.390   0.853   7.937 -2.2608  0.6157  1.3372
52100SOL    HW274293   6.329   0.718   7.907  0.9895 -0.4613 -0.9564
52101SOL     OW74294   6.740   3.071   4.731 -0.1440 -0.5896  0.1985
52101SOL    HW174295   6.688   3.066   4.651  0.0483  0.5805 -0.0230
52101SOL    HW274296   6.748   3.165   4.749  3.3290 -0.5725 -0.7572
52102SOL     OW74297  12.528  10.467   6.503  0.2927  0.4336 -0.3557
52102SOL    HW174298  12.443  10.445   6.467 -0.1356 -0.5215  1.1466
52102SOL    HW274299  12.509  10.531   6.571  0.8175  0.5156 -0.2824
52103SOL     OW74300   5.039  13.107   6.653 -0.1738 -0.1461  0.2885
52103SOL    HW174301   5.080  13.121   6.738  1.4985  0.2914 -0.5491
52103SOL    HW274302   5.083  13.169   6.594 -1.3327 -0.3823 -0.8941
52104SOL     OW74303   1.165   2.120   6.491  0.2207  0.0808 -0.4857
52104SOL    HW174304   1.120   2.156   6.414  0.4838  0.0227 -0.6661
52104SOL    HW274305   1.254   2.103   6.462  0.4085  0.3496 -0.0795
52105SOL     OW74306   0.422  12.583  11.409  0.0709  0.0025 -0.4697
52105SOL    HW174307   0.482  12.509  11.402  0.9673  0.7475 -0.8988
52105SOL    HW274308   0.386  12.594  11.321  0.2016  0.2790 -0.4913
52106SOL     OW74309   8.630   6.185   7.094 -0.1167 -0.0868  0.9031
52106SOL    HW174310   8.611   6.092   7.093 -3.2992  0.4304 -1.3351
52106SOL    HW274311   8.545   6.227   7.112  0.8896  2.3962  0.2954
52107SOL     OW74312   6.543  11.817   4.666  0.9523  0.2010 -0.0907
52107SOL    HW174313   6.599  11.881   4.623 -0.8778  0.4138 -2.3929
52107SOL    HW274314   6.560  11.829   4.760  0.1824  4.6382 -0.2903
52108SOL     OW74315  10.309  10.602   3.623 -0.0623  0.3739  0.0379
52108SOL    HW174316  10.236  10.660   3.601 -0.1430 -0.1861 -1.2872
52108SOL    HW274317  10.334  10.627   3.712 -0.6649  1.8267 -0.1713
52109SOL     OW74318   4.198   5.282   4.577 -0.2198  0.1487 -0.3000
52109SOL    HW174319   4.263   5.348   4.553  0.6377 -0.0996  1.1641
52109SOL    HW274320   4.149   5.322   4.649 -0.8774 -0.1465 -0.5763
52110SOL     OW74321  11.389  13.932  11.525  0.2621 -0.6250  0.3971
52110SOL    HW174322  11.343  13.867  11.579  1.2406 -0.6986  1.1897
52110SOL    HW274323  11.321  13.992  11.495 -0.4986 -1.3711  0.5958
52111SOL     OW74324   3.308  10.676  10.557 -0.0243  0.0300 -0.6479
52111SOL    HW174325   3.376  10.693  10.621 -2.3603  2.3287  1.4462
52111SOL    HW274326   3.259  10.602  10.594  0.4153 -0.6367 -1.3758
52112SOL     OW74327   7.459   0.259   8.030  0.5030  0.1156 -0.4173
52112SOL    HW174328   7.508   0.181   8.059  0.7894  0.3853 -0.1707
52112SOL    HW274329   7.429   0.236   7.942  0.6757 -0.2355 -0.3898
52113SOL     OW74330   1.111  12.374   3.026 -0.2393 -0.0185 -0.5106
52113SOL    HW174331   1.104  12.466   3.052  1.5762  0.1244 -0.4231
52113SOL    HW274332   1.121  12.326   3.108  0.4197 -0.1061 -0.6347
52114SOL     OW74333   2.665   4.026   5.468  0.4208  0.0649  0.2804
52114SOL    HW174334   2.683   3.943   5.512  0.5923 -0.1365 -0.1671
52114SOL    HW274335   2.747   4.050   5.426  0.2344  0.2016 -0.0163
52115SOL     OW74336   6.216  12.267   1.148  0.0065  0.4779  0.8463
52115SOL    HW174337   6.269  12.201   1.104 -1.4497  0.1849 -0.5719
52115SOL    HW274338   6.165  12.219   1.213 -1.1595  0.1123 -0.2826
52116SOL     OW74339   0.617  13.789   6.504 -0.2535 -0.2358  0.3488
52116SOL    HW174340   0.549  13.856   6.498 -0.0968  0.0607  1.5430
52116SOL    HW274341   0.617  13.763   6.596 -1.8887 -3.5897 -0.4746
52117SOL     OW74342   5.475   2.350   1.316 -0.2477  0.1622 -0.4753
52117SOL    HW174343   5.392   2.360   1.269 -0.9549 -1.2225  0.3706
52117SOL    HW274344   5.529   2.296   1.259 -1.3657 -2.1259  0.4801
52118SOL     OW74345   7.037   6.371   2.767  0.0301  0.3177 -0.4594
52118SOL    HW174346   6.956   6.320   2.759 -1.7592  2.4981  1.8812
52118SOL    HW274347   7.081   6.333   2.844  0.3597  0.2521 -0.6787
52119SOL     OW74348   9.079   7.302   5.370 -0.5388  0.5857  0.1168
52119SOL    HW174349   9.079   7.209   5.391 -0.7597  0.5516 -0.0383
52119SOL    HW274350   9.151   7.338   5.422 -1.1479  0.5202  1.0317
52120SOL     OW74351  13.612  12.387   6.797 -0.0397 -0.0531 -0.7203
52120SOL    HW174352  13.651  12.302   6.816 -3.5948 -1.7281 -0.0845
52120SOL    HW274353  13.638  12.442   6.870  1.0884 -1.0521 -0.3424
52121SOL     OW74354   7.778  11.674   9.016  0.1221  0.4075 -0.2058
52121SOL    HW174355   7.805  11.707   9.101  0.6273 -1.4483  0.4006
52121SOL    HW274356   7.860  11.661   8.968 -0.0327 -0.1764 -0.3247
52122SOL     OW74357   7.662   9.631   7.394  0.0856 -0.0335 -0.0898
52122SOL    HW174358   7.653   9.625   7.299 -2.1852  0.7837 -0.0062
52122SOL    HW274359   7.695   9.546   7.421  2.0592  0.1419 -1.6795
52123SOL     OW74360   8.182  13.348   0.483 -0.0361  0.2134 -0.0784
52123SOL    HW174361   8.135  13.429   0.463 -0.2923  0.2060  0.4720
52123SOL    HW274362   8.273  13.375   0.493 -0.1751  0.4975  0.4528
52124SOL     OW74363   2.055   8.268   2.315  0.2017  0.6430 -0.2267
52124SOL    HW174364   2.103   8.200   2.268  0.4365  0.3213  0.4638
52124SOL    HW274365   2.107   8.284   2.394  1.3230  3.1639 -1.3517
52125SOL     OW74366   3.461  12.506   5.007 -0.3032  0.1581  0.3031
52125SOL    HW174367   3.553  12.485   4.995  0.1293  1.8279  0.3490
52125SOL    HW274368   3.462  12.597   5.038 -1.8689 -0.4407  2.3175
52126SOL     OW74369   4.843  11.535   6.883 -0.4183  0.5188  0.6363
52126SOL    HW174370   4.848  11.552   6.977 -0.1636 -0.4364  0.8058
52126SOL    HW274371   4.749  11.520   6.867 -0.3087 -0.7030  1.0108
52127SOL     OW74372   6.160   4.666   0.266 -0.6201 -0.0194  0.2799
52127SOL    HW174373   6.168   4.662   0.170  1.2222 -0.9349  0.4356
52127SOL    HW274374   6.096   4.736   0.281  0.0656  1.1030 -1.5995
52128SOL     OW74375   5.759   4.039   6.556 -0.4033 -0.6861 -0.0987
52128SOL    HW174376   5.699   4.010   6.624 -1.3498  0.6794 -0.3032
52128SOL    HW274377   5.793   4.123   6.588 -0.2328 -0.4177 -0.9433
52129SOL     OW74378   3.597  10.388   1.484 -0.1028  0.3194  0.1631
52129SOL    HW174379   3.556  10.369   1.568  0.4223 -0.9805  0.1462
52129SOL    HW274380   3.683  10.346   1.489 -0.0959  0.1573 -1.0480
52130SOL     OW74381   5.470  13.302   1.276  0.1837 -0.7775  0.8201
52130SOL    HW174382   5.409  13.259   1.335 -1.5802 -0.2762 -0.5499
52130SOL    HW274383   5.511  13.370   1.329  0.0772 -1.5704  1.9499
52131SOL     OW74384  10.741   9.109   6.401  0.1229  0.1018 -0.2753
52131SOL    HW174385  10.682   9.122   6.475  0.4923 -4.1187  1.0609
52131SOL    HW274386  10.828   9.127   6.436  0.0545  2.0175 -0.9684
52132SOL     OW74387   0.481   1.316   7.061  0.2163  0.5331  0.2586
52132SOL    HW174388   0.453   1.336   6.972 -0.2071 -4.5954 -1.0725
52132SOL    HW274389   0.399   1.311   7.111  0.4461  3.2842  1.1114
52133SOL     OW74390  10.710   1.854   4.253  0.1847 -0.0288 -0.3338
52133SOL    HW174391  10.734   1.894   4.169  1.4448 -0.2054 -0.0687
52133SOL    HW274392  10.702   1.929   4.313  1.4255 -0.0575 -0.1088
52134SOL     OW74393   0.180   5.233   1.072 -0.3040 -0.4904  0.1605
52134SOL    HW174394   0.257   5.267   1.028 -1.1410 -0.5202 -1.4131
52134SOL    HW274395   0.122   5.309   1.082  0.5297 -0.0943  2.8576
52135SOL     OW74396   6.555   3.449   9.633  0.7669  0.1752 -0.1722
52135SOL    HW174397   6.643   3.446   9.596  0.8766 -0.7909  0.1468
52135SOL    HW274398   6.528   3.358   9.640 -0.0826  0.4369  0.1612
52136SOL     OW74399   3.257   0.648  10.285  0.6866 -0.0453  0.3872
52136SOL    HW174400   3.277   0.684  10.199 -0.1423  0.3979  0.3698
52136SOL    HW274401   3.245   0.725  10.341 -1.0231 -0.2442  0.3659
52137SOL     OW74402   4.889   9.662   7.216  0.2559 -0.4755  0.1544
52137SOL    HW174403   4.961   9.703   7.167 -0.0722  0.0547  0.1086
52137SOL    HW274404   4.818   9.726   7.211  0.3798 -0.1835  1.7585
52138SOL     OW74405  13.435   4.278   7.654 -0.0751  0.3022  0.2103
52138SOL    HW174406  13.515   4.266   7.603  0.7579  0.4077  1.4504
52138SOL    HW274407  13.372   4.217   7.614  0.4299  0.6158 -1.1212
52139SOL     OW74408  12.077  13.254   3.767 -0.2465  0.2113  0.0544
52139SOL    HW174409  12.103  13.345   3.778 -0.9999  0.3345  1.0391
52139SOL    HW274410  12.159  13.206   3.761  0.1679  0.8939  0.1487
52140SOL     OW74411  10.618   0.933  11.692 -0.1937 -0.5360  0.3294
52140SOL    HW174412  10.626   0.966  11.782 -0.6532  1.1690 -0.2069
52140SOL    HW274413  10.523   0.928  11.677 -0.1599  0.8921 -0.5924
52141SOL     OW74414   6.296  10.806  10.539  0.6828 -0.0334 -0.2622
52141SOL    HW174415   6.240  10.822  10.615  0.0195  0.9317 -0.9146
52141SOL    HW274416   6.241  10.754  10.480 -0.1753  2.2015 -1.5650
52142SOL     OW74417   3.840  12.307   2.893 -0.0862 -0.4794  0.0865
52142SOL    HW174418   3.863  12.218   2.866 -0.1343 -0.2364 -0.7881
52142SOL    HW274419   3.903  12.329   2.961  1.3978 -0.3524 -1.2739
52143SOL     OW74420   4.982   3.228   1.689 -0.9849  0.0634 -0.1290
52143SOL    HW174421   4.979   3.133   1.680 -1.9794  0.2808 -3.0869
52143SOL    HW274422   4.954   3.244   1.779  1.1042 -2.4540  1.1166
52144SOL     OW74423  12.043   5.159   4.836  0.2001 -0.2860 -0.0546
52144SOL    HW174424  12.112   5.127   4.894 -0.2729 -0.7572  0.2590
52144SOL    HW274425  11.974   5.094   4.844 -1.1964  1.2581  1.3345
52145SOL     OW74426  12.618  12.377   6.302  0.0110  0.2146  0.3454
52145SOL    HW174427  12.706  12.342   6.305  0.1699  0.2575 -1.8971
52145SOL    HW274428  12.625  12.464   6.342  0.7567 -0.1733  1.0793
52146SOL     OW74429   2.188   8.927   5.874  0.0667  0.6895  0.3780
52146SOL    HW174430   2.152   8.849   5.917  0.9758 -0.6756 -1.2062
52146SOL    HW274431   2.116   8.990   5.875 -1.3174 -0.8064  0.1299
52147SOL     OW74432  12.990  10.148   3.032  0.4579 -0.0001  0.1074
52147SOL    HW174433  12.965  10.076   2.975 -0.0569 -0.2817  0.6754
52147SOL    HW274434  12.952  10.226   2.992  1.3639  0.0382 -0.7356
52148SOL     OW74435  12.109   1.970   7.365  0.2506  0.5132 -0.3585
52148SOL    HW174436  12.042   2.004   7.306  1.2123  1.2112 -1.0859
52148SOL    HW274437  12.118   2.038   7.432 -0.4618 -0.0395  0.3239
52149SOL     OW74438   9.715   2.695  12.848 -0.0920  0.3416  0.0221
52149SOL    HW174439   9.628   2.669  12.879 -0.9739  1.7430 -1.1554
52149SOL    HW274440   9.732   2.778  12.893  0.3433  0.3991 -0.2458
52150SOL     OW74441   7.387  12.472  11.768  0.3930  0.0717 -0.7679
52150SOL    HW174442   7.369  12.513  11.853  0.6681  1.0259 -1.1731
52150SOL    HW274443   7.303  12.475  11.722  1.0022  2.6464 -1.8429
52151SOL     OW74444  11.294   1.390   0.733  0.2507  0.0819  0.2953
52151SOL    HW174445  11.337   1.471   0.760 -0.4495  0.2060  1.0982
52151SOL    HW274446  11.225   1.377   0.799 -0.3667 -0.5636 -0.4627
52152SOL     OW74447  12.977   8.021   2.689 -0.1602  0.3301  0.3117
52152SOL    HW174448  13.032   8.004   2.765  1.1608  3.5845  0.2373
52152SOL    HW274449  12.890   8.035   2.726 -0.2752 -1.4344  0.8002
52153SOL     OW74450   4.257   3.970   9.252  0.2043 -0.3594 -0.0019
52153SOL    HW174451   4.309   4.043   9.286 -1.9646  1.4478 -0.3288
52153SOL    HW274452   4.201   4.009   9.185 -0.1413 -2.6112 -1.1227
52154SOL     OW74453   9.846   4.941  13.541 -0.2770 -0.4005 -0.1547
52154SOL    HW174454   9.827   4.959  13.633 -1.3696 -2.2869  0.0371
52154SOL    HW274455   9.880   5.024  13.507 -0.4018  0.5024  1.7894
52155SOL     OW74456   8.947  13.621  11.249  0.0574  0.3165  0.2239
52155SOL    HW174457   8.899  13.652  11.172 -1.4334  0.4184  1.1499
52155SOL    HW274458   9.039  13.631  11.226 -0.3684  1.1961 -1.1990
52156SOL     OW74459  11.160   8.254   9.381  0.1307  0.0461  0.2617
52156SOL    HW174460  11.126   8.170   9.351  2.7469 -0.9302 -0.3173
52156SOL    HW274461  11.157   8.311   9.304  0.6039 -0.3094 -0.0227
52157SOL     OW74462   6.079  11.808   1.145  0.0829  0.1353  0.7822
52157SOL    HW174463   6.136  11.771   1.213  0.6304 -0.4336  0.0416
52157SOL    HW274464   6.107  11.899   1.137  0.5212  0.0082  0.8187
52158SOL     OW74465   8.342   9.720   9.653  0.1492 -0.3082  0.8933
52158SOL    HW174466   8.248   9.704   9.640  0.2273 -1.7054  1.8296
52158SOL    HW274467   8.379   9.633   9.666  1.6803  0.1832 -0.0229
52159SOL     OW74468  14.073   5.321   5.244 -0.3845 -0.2646  0.5444
52159SOL    HW174469  14.032   5.308   5.158 -0.6104  0.4717  0.5281
52159SOL    HW274470  14.076   5.416   5.254  0.1133 -0.3376  1.1316
52160SOL     OW74471  10.371   2.267   3.505 -0.3159  0.7134 -0.6051
52160SOL    HW174472  10.341   2.210   3.575  0.0500  1.6866  0.3663
52160SOL    HW274473  10.436   2.216   3.458 -1.1003 -0.2217 -0.7197
52161SOL     OW74474  11.799  11.559  14.089  0.4688 -0.1894  0.7343
52161SOL    HW174475  11.710  11.583  14.066  0.6465 -0.2678 -0.0653
52161SOL    HW274476  11.836  11.522  14.008  0.1285 -3.4304  1.9001
52162SOL     OW74477  10.260   5.513   0.010  0.4526 -0.1517  0.6549
52162SOL    HW174478  10.351   5.535  -0.009  0.4798 -0.3255  0.5803
52162SOL    HW274479  10.234   5.456  -0.063  0.5205 -0.7352  1.0728
52163SOL     OW74480   0.520   6.919   4.432  0.3580 -0.0550 -0.1473
52163SOL    HW174481   0.504   6.825   4.431  2.2903 -0.4231  0.0034
52163SOL    HW274482   0.451   6.955   4.376 -0.9803 -1.4307  0.5273
52164SOL     OW74483   7.442  12.362   6.736 -0.0526 -0.5084  0.0708
52164SOL    HW174484   7.512  12.355   6.801  0.8489 -0.8541 -0.9154
52164SOL    HW274485   7.469  12.304   6.665 -1.2360 -0.4688 -0.4240
52165SOL     OW74486   9.483   8.897   5.699  0.1916  0.1387  1.1569
52165SOL    HW174487   9.534   8.958   5.752 -1.1900  0.1745  2.5170
52165SOL    HW274488   9.403   8.882   5.749 -1.6901  0.9752 -1.3792
52166SOL     OW74489   4.026   8.656   1.590  0.1377  0.0653 -0.7660
52166SOL    HW174490   4.098   8.652   1.653 -1.1780 -2.8987  0.7689
52166SOL    HW274491   4.037   8.578   1.535 -2.6537 -1.4766  0.6079
52167SOL     OW74492  11.534   3.521  11.364  0.6032 -0.3225  0.5864
52167SOL    HW174493  11.452   3.534  11.317  0.8580 -0.7554  0.0130
52167SOL    HW274494  11.537   3.427  11.382  0.1092 -0.0578  2.2273
52168SOL     OW74495   5.244  12.201   9.064 -0.3972 -0.9656 -0.0236
52168SOL    HW174496   5.311  12.171   9.126 -1.0355 -1.8233  0.2746
52168SOL    HW274497   5.182  12.250   9.118 -0.4523 -0.8962 -0.1496
52169SOL     OW74498  12.819   1.089   8.896 -0.2038  0.1003  0.3625
52169SOL    HW174499  12.772   1.027   8.840 -1.4924 -0.1592  1.6599
52169SOL    HW274500  12.777   1.173   8.880 -0.2363  0.1221  0.5561
52170SOL     OW74501   8.332   0.283  12.843  0.2868 -0.0786 -0.3982
52170SOL    HW174502   8.406   0.237  12.804  0.2733 -0.4610  0.0240
52170SOL    HW274503   8.371   0.338  12.911  0.2624  0.2550 -0.6536
52171SOL     OW74504   0.335  13.788   4.913 -0.0911 -0.4177  0.1367
52171SOL    HW174505   0.274  13.716   4.925  0.5436 -0.7399  1.7009
52171SOL    HW274506   0.282  13.867   4.927 -0.2636 -0.6710  0.9197
52172SOL     OW74507   9.363  13.034  13.074  0.3453  0.1271 -0.3207
52172SOL    HW174508   9.386  13.063  13.163  1.7301 -2.3135  0.2287
52172SOL    HW274509   9.437  13.063  13.020 -0.6265  1.8542 -0.7930
52173SOL     OW74510   5.316  11.057   3.900 -0.6735 -0.5724 -0.5164
52173SOL    HW174511   5.406  11.042   3.929 -0.5159 -1.2324 -1.3056
52173SOL    HW274512   5.272  11.096   3.975  0.3846  0.1702 -0.2631
52174SOL     OW74513   2.821   8.674  13.581 -0.4925  0.3249 -0.2109
52174SOL    HW174514   2.804   8.616  13.655 -0.4127  0.8525  0.2256
52174SOL    HW274515   2.864   8.618  13.516 -1.6432 -0.4325 -0.3409
52175SOL     OW74516   2.227   6.779  11.937 -0.4803 -0.3600  0.3415
52175SOL    HW174517   2.176   6.805  11.860  0.3034  1.3971  0.3516
52175SOL    HW274518   2.206   6.687  11.950 -0.7735 -0.6651 -1.8752
52176SOL     OW74519   1.646   9.183   8.483 -0.5351 -0.0896  0.1185
52176SOL    HW174520   1.648   9.094   8.519 -0.4888 -0.2161 -0.1875
52176SOL    HW274521   1.679   9.173   8.393 -0.0011  0.3184  0.2595
52177SOL     OW74522   3.385  12.371   3.950  0.0438  0.2411  0.6236
52177SOL    HW174523   3.400  12.443   4.010  0.0775  0.4241  0.3982
52177SOL    HW274524   3.407  12.407   3.864 -0.2557  0.0624  0.4705
52178SOL     OW74525   5.755   4.987   2.254  0.3305  0.2693  0.6669
52178SOL    HW174526   5.747   5.080   2.232  2.4530  0.4069  0.2444
52178SOL    HW274527   5.746   4.984   2.349  1.1705  1.0566  0.7830
52179SOL     OW74528   4.986  11.760   6.616 -0.5542 -0.2688 -0.1740
52179SOL    HW174529   5.040  11.837   6.598 -1.7562  0.6029 -0.1609
52179SOL    HW274530   5.049  11.693   6.644  0.5185  0.6980 -0.1856
52180SOL     OW74531  13.074  11.145   7.202  0.0741 -0.1514 -0.2597
52180SOL    HW174532  13.034  11.159   7.288 -0.2795  0.9131 -0.5924
52180SOL    HW274533  13.149  11.087   7.221 -0.9720 -1.3176  0.5091
52181SOL     OW74534   8.080   1.137   9.272 -0.6480 -0.3622 -0.1237
52181SOL    HW174535   8.028   1.080   9.329 -1.3660  0.7689  0.3889
52181SOL    HW274536   8.087   1.219   9.321 -1.9513  0.9272 -2.0025
52182SOL     OW74537   0.457  12.318   2.898  0.0691  0.5028 -0.1953
52182SOL    HW174538   0.487  12.407   2.917 -2.5904  0.9581  2.6220
52182SOL    HW274539   0.503  12.294   2.818  3.6425  2.9974  0.8835
52183SOL     OW74540  11.717   0.667   0.845  0.0652  0.0194 -0.1458
52183SOL    HW174541  11.765   0.585   0.857  1.5006  0.6814 -1.1185
52183SOL    HW274542  11.754   0.727   0.910  0.4813  0.4902 -0.8008
52184SOL     OW74543   8.188   6.941  13.804  0.3619  0.2259 -0.3328
52184SOL    HW174544   8.131   6.883  13.753 -0.2953  0.2325  0.3733
52184SOL    HW274545   8.267   6.950  13.751 -0.1428 -0.0915 -1.1579
52185SOL     OW74546   6.493   3.571  10.770  0.1258  0.0820 -0.0548
52185SOL    HW174547   6.474   3.623  10.848 -0.5659  2.3476 -1.6387
52185SOL    HW274548   6.588   3.555  10.774  0.3158  1.3029  0.6064
52186SOL     OW74549   0.152  13.126   8.472  0.4798  0.0459  0.0211
52186SOL    HW174550   0.204  13.059   8.427 -1.3455 -1.5476  0.1561
52186SOL    HW274551   0.062  13.105   8.450 -0.2436  1.5383  1.3716
52187SOL     OW74552   1.111   5.693   9.146  0.2976  0.6931 -0.3884
52187SOL    HW174553   1.188   5.744   9.123  0.5035 -0.7724 -3.2397
52187SOL    HW274554   1.142   5.603   9.154 -0.9917  0.1628 -1.0310
52188SOL     OW74555   6.718  10.291   0.349  0.5581 -0.1379  0.6120
52188SOL    HW174556   6.783  10.226   0.374 -0.0650 -0.7476  0.6827
52188SOL    HW274557   6.728  10.300   0.254  0.1801 -0.8802  0.4872
52189SOL     OW74558  12.736   2.791  10.792  0.3977  0.3328 -0.1275
52189SOL    HW174559  12.669   2.734  10.754  1.1838 -1.0469  0.4531
52189SOL    HW274560  12.798   2.730  10.833  1.9869  1.5478 -0.6023
52190SOL     OW74561   7.612   9.821   4.604 -0.6549  0.4886 -0.4205
52190SOL    HW174562   7.697   9.830   4.648 -0.8350  1.2255 -0.2057
52190SOL    HW274563   7.548   9.841   4.671 -0.9010  3.0087 -1.3004
52191SOL     OW74564  11.008  10.611  10.291  0.0893 -0.7323 -0.1225
52191SOL    HW174565  10.963  10.683  10.335  0.5690 -2.3833  3.4111
52191SOL    HW274566  10.939  10.562  10.247 -0.5896  0.4172 -0.3599
52192SOL     OW74567  13.492  10.416   4.404  0.1470  0.3496 -0.0842
52192SOL    HW174568  13.479  10.429   4.498 -0.9198 -1.5151  0.0696
52192SOL    HW274569  13.427  10.472   4.362 -1.6165 -1.2229  0.4295
52193SOL     OW74570  11.876   3.234   0.289 -0.1714 -0.4672 -0.2692
52193SOL    HW174571  11.966   3.218   0.316 -0.6856 -2.1892  0.6483
52193SOL    HW274572  11.873   3.207   0.197  0.1548 -0.8515 -0.1702
52194SOL     OW74573  12.621   8.940  12.716  0.4090 -0.1962 -0.2834
52194SOL    HW174574  12.663   9.013  12.762  1.8318 -1.9774  1.4664
52194SOL    HW274575  12.660   8.862  12.756 -2.0365 -1.9480 -1.1075
52195SOL     OW74576   6.495  13.505  11.524 -0.0921 -0.3082  0.0847
52195SOL    HW174577   6.479  13.586  11.572  0.5642 -0.3514  0.3912
52195SOL    HW274578   6.449  13.516  11.441 -0.2292  0.2674  0.2374
52196SOL     OW74579  12.010   3.534  11.109 -0.5767 -0.1712  0.0817
52196SOL    HW174580  12.078   3.546  11.175 -0.0563 -1.2304 -0.2376
52196SOL    HW274581  11.933   3.507  11.159 -0.7483  0.9221  0.4327
52197SOL     OW74582   6.652   7.663   7.555  0.1226 -0.2436 -0.1401
52197SOL    HW174583   6.682   7.708   7.634 -0.4402  0.3153 -0.2282
52197SOL    HW274584   6.698   7.707   7.483 -0.4453  0.2282 -0.2284
52198SOL     OW74585   5.845  11.458   6.449 -0.0387  0.2511  0.4231
52198SOL    HW174586   5.867  11.376   6.405 -0.5814 -0.3601  1.2618
52198SOL    HW274587   5.919  11.516   6.431  0.0727 -0.2076 -0.6883
52199SOL     OW74588  11.370  13.605   7.987 -0.2253 -0.4452  0.1263
52199SOL    HW174589  11.348  13.696   7.967  0.0586 -0.2784  0.5548
52199SOL    HW274590  11.464  13.607   8.007 -0.6748 -0.3906  2.5751
52200SOL     OW74591   0.212   5.633  13.548 -0.4415 -0.1297 -0.5333
52200SOL    HW174592   0.276   5.669  13.488  0.8158 -1.5086 -0.0885
52200SOL    HW274593   0.171   5.709  13.589  0.4573  0.7885 -1.3018
52201SOL     OW74594  13.350   8.198   0.733 -0.2649 -0.7369 -0.2887
52201SOL    HW174595  13.398   8.128   0.776 -0.6804 -0.2762  0.9643
52201SOL    HW274596  13.260   8.188   0.763  0.0577  1.6627  1.7960
52202SOL     OW74597   1.921  10.045  12.084 -0.5868 -0.5287 -0.0717
52202SOL    HW174598   2.002  10.018  12.041 -0.5008  0.7425 -0.7756
52202SOL    HW274599   1.857   9.979  12.059  0.1566 -1.4035  0.2794
52203SOL     OW74600  12.139   7.078   0.794  0.3573 -0.1317  0.1271
52203SOL    HW174601  12.145   7.163   0.838 -0.9904  0.2134 -0.3054
52203SOL    HW274602  12.045   7.059   0.791  0.5914 -1.3134 -0.4082
52204SOL     OW74603  11.967  10.842  10.868  0.2831  0.6629  0.3726
52204SOL    HW174604  11.904  10.912  10.849  0.1499  0.4520  0.0384
52204SOL    HW274605  11.920  10.783  10.928 -1.1886 -1.4364 -2.6193
52205SOL     OW74606  12.672   0.690  12.796 -0.0810  0.3690 -0.2713
52205SOL    HW174607  12.624   0.773  12.790 -0.7954  0.0725  0.9387
52205SOL    HW274608  12.764   0.715  12.789 -0.1363  1.5638  2.0777
52206SOL     OW74609   2.792   2.242  13.338  0.1447  0.1085 -0.8069
52206SOL    HW174610   2.719   2.185  13.315  0.9635 -1.1209 -0.4925
52206SOL    HW274611   2.757   2.302  13.404 -0.7030 -0.1502 -1.0228
52207SOL     OW74612   3.141  10.064   0.409  0.0353  0.0271 -0.3624
52207SOL    HW174613   3.186  10.116   0.343 -0.6805  2.9591  1.2846
52207SOL    HW274614   3.180  10.091   0.492 -1.8740 -0.4294  0.7544
52208SOL     OW74615   0.982   7.707   4.379 -0.0453  0.4001  0.2692
52208SOL    HW174616   1.011   7.626   4.337  0.3532  1.1782 -1.0287
52208SOL    HW274617   0.887   7.708   4.367  0.1508  1.0549 -1.5153
52209SOL     OW74618  11.464   3.583   4.510 -0.2376 -0.3837  0.5283
52209SOL    HW174619  11.443   3.498   4.471 -0.4431 -0.0015 -0.2325
52209SOL    HW274620  11.503   3.633   4.438 -1.5551  0.7002  0.5121
52210SOL     OW74621  12.584   1.211   1.000  0.0949  0.0791  0.4277
52210SOL    HW174622  12.564   1.155   0.925  0.5849  0.2075  0.1995
52210SOL    HW274623  12.632   1.155   1.060  0.9825  0.3762 -0.0005
52211SOL     OW74624   5.014   8.360   0.865 -0.1527  0.1063 -0.4567
52211SOL    HW174625   5.018   8.264   0.863 -1.3372  0.0469 -0.6147
52211SOL    HW274626   4.991   8.381   0.956  0.7350  0.2730 -0.2681
52212SOL     OW74627   2.984   3.675  11.112 -0.7001 -0.1084 -0.5560
52212SOL    HW174628   3.072   3.689  11.146 -1.1739  0.6013  0.4425
52212SOL    HW274629   2.988   3.707  11.022  0.7159 -2.5230 -1.4435
52213SOL     OW74630  12.935   7.561  13.547 -0.1428  0.7729 -0.8249
52213SOL    HW174631  12.942   7.643  13.595  0.0626  0.4579 -0.3029
52213SOL    HW274632  13.018   7.517  13.563 -1.5967 -1.2657  2.1818
52214SOL     OW74633  11.266   1.574   4.226 -0.2882  0.2263  0.2124
52214SOL    HW174634  11.242   1.498   4.279  0.4002  0.0293  0.2486
52214SOL    HW274635  11.238   1.649   4.278 -1.8271 -0.0058 -0.2341
52215SOL     OW74636   6.125   3.540  10.737 -0.5153 -0.6633 -0.1102
52215SOL    HW174637   6.090   3.461  10.779  0.5454 -0.8357  0.5041
52215SOL    HW274638   6.217   3.543  10.765 -0.3001  0.3032 -0.8546
52216SOL     OW74639  10.093   6.738   9.822  0.4513  0.0489  0.3429
52216SOL    HW174640  10.021   6.702   9.873 -0.7167  2.0385  0.2081
52216SOL    HW274641  10.165   6.747   9.884 -0.5075  1.1378  1.3439
52217SOL     OW74642  12.819   9.833   7.333  0.2199 -0.7046 -0.0276
52217SOL    HW174643  12.727   9.832   7.308  0.3127 -1.2911 -0.3674
52217SOL    HW274644  12.835   9.745   7.370  0.7200 -0.7200 -0.2716
52218SOL     OW74645  13.169   8.499  13.555  0.1367  0.0982 -0.3629
52218SOL    HW174646  13.080   8.507  13.522  1.1382  1.1382 -3.0699
52218SOL    HW274647  13.160   8.507  13.650 -2.6100  0.3486 -0.5759
52219SOL     OW74648   0.552   6.823  11.313 -0.3802 -0.2268  0.0152
52219SOL    HW174649   0.596   6.846  11.395 -0.1057 -0.5657 -0.0326
52219SOL    HW274650   0.540   6.728  11.319 -0.9519 -0.1586 -0.0503
52220SOL     OW74651   6.147   0.627   7.391 -0.3781  0.2066 -0.3597
52220SOL    HW174652   6.106   0.714   7.395  1.1522  0.9278  1.0316
52220SOL    HW274653   6.238   0.643   7.419  0.0000 -1.8123 -0.3285
52221SOL     OW74654   0.418   2.957  13.947 -0.4960  0.1244  0.4888
52221SOL    HW174655   0.471   2.906  13.886 -1.2437  0.6315 -0.6157
52221SOL    HW274656   0.386   2.893  14.011 -1.7920 -0.9087 -1.1207
52222SOL     OW74657   7.061  13.568  13.962  0.5095  0.2849 -0.0826
52222SOL    HW174658   6.981  13.621  13.961  0.9533  1.0027  0.7120
52222SOL    HW274659   7.118  13.613  14.025  0.8462 -1.2172  0.7326
52223SOL     OW74660   2.934   0.502   2.470 -0.0495  0.5909 -0.2895
52223SOL    HW174661   3.007   0.558   2.497 -0.1892 -0.0274  1.5277
52223SOL    HW274662   2.916   0.447   2.547 -1.1333 -0.6520 -1.3761
52224SOL     OW74663  13.748   2.726  12.662  0.0998  0.0776 -0.0055
52224SOL    HW174664  13.792   2.676  12.731 -0.8678 -1.0788 -0.2042
52224SOL    HW274665  13.749   2.816  12.695  1.5573 -0.0940  0.5208
52225SOL     OW74666  13.430   9.223  12.361 -0.0072 -0.1020  0.2763
52225SOL    HW174667  13.453   9.311  12.330  1.0661 -0.9023 -1.3300
52225SOL    HW274668  13.353   9.198  12.309  1.5734 -1.2978 -1.6519
52226SOL     OW74669  11.908   0.944  10.640 -0.1533 -0.3023  0.9745
52226SOL    HW174670  11.903   0.887  10.717 -0.0707 -1.8096 -0.0872
52226SOL    HW274671  12.002   0.964  10.632 -0.0219 -0.9837  0.7049
52227SOL     OW74672   0.779   2.233  13.789 -0.1610  0.2510  0.2097
52227SOL    HW174673   0.684   2.227  13.797 -0.1443  1.2851  1.5704
52227SOL    HW274674   0.794   2.283  13.710 -0.7289 -0.2358 -0.2182
52228SOL     OW74675   1.770   3.474   2.586  0.0691  0.2783 -0.0721
52228SOL    HW174676   1.709   3.547   2.572  0.5251  0.6081 -0.3369
52228SOL    HW274677   1.851   3.501   2.544  1.3823  1.1235  2.7750
52229SOL     OW74678   2.424   8.193   7.906 -0.5693  0.4116  1.2741
52229SOL    HW174679   2.507   8.191   7.857 -1.3015 -1.2368 -0.0280
52229SOL    HW274680   2.362   8.233   7.845 -1.4228 -1.3696  0.9201
52230SOL     OW74681   1.203   9.889   8.946  0.2986 -0.0805  0.1093
52230SOL    HW174682   1.224   9.816   8.887  2.0396  0.0415  0.5020
52230SOL    HW274683   1.252   9.869   9.026  1.0041  1.6170  0.1449
52231SOL     OW74684   0.985   6.495   9.732  0.3132  0.1723  0.1755
52231SOL    HW174685   1.003   6.414   9.780 -0.3749  0.0756  0.2839
52231SOL    HW274686   1.062   6.550   9.747  0.0460  0.2134  1.5532
52232SOL     OW74687   7.432   4.910  10.387 -0.1849 -0.0198  0.0020
52232SOL    HW174688   7.515   4.862  10.385  0.0082  0.0118  3.2632
52232SOL    HW274689   7.369   4.850  10.347  0.5853 -1.9275  1.4780
52233SOL     OW74690   3.194   9.161  10.912 -0.0384 -0.3760  0.3576
52233SOL    HW174691   3.134   9.233  10.896  0.6405 -0.1327 -1.3076
52233SOL    HW274692   3.250   9.191  10.983  0.9258  1.2238 -1.0186
52234SOL     OW74693   6.948  10.031   9.367  0.9507  0.2025 -0.6024
52234SOL    HW174694   6.885   9.978   9.417  1.3039  1.0806  0.8046
52234SOL    HW274695   6.904  10.047   9.283  0.3681 -1.3330 -0.6311
52235SOL     OW74696  13.479   4.712   7.172  0.4162 -0.0482  0.4608
52235SOL    HW174697  13.401   4.757   7.139  1.9911  0.2944 -3.2861
52235SOL    HW274698  13.523   4.778   7.225 -0.1274  0.9385 -0.2655
52236SOL     OW74699   7.289  13.248   7.863 -0.0903  0.0116 -0.2163
52236SOL    HW174700   7.313  13.171   7.811  0.9555 -0.4224  0.8587
52236SOL    HW274701   7.287  13.320   7.800  0.1619 -0.6640 -1.0218
52237SOL     OW74702   5.784   9.260  13.905 -0.3870  0.1285  0.2336
52237SOL    HW174703   5.822   9.233  13.821 -2.2323  1.1552 -0.9809
52237SOL    HW274704   5.749   9.179  13.942  1.9277 -0.6537  0.8962
52238SOL     OW74705   8.570   4.813   5.897  0.0868 -0.4117  0.4961
52238SOL    HW174706   8.487   4.765   5.896  1.2451 -2.7130  2.5294
52238SOL    HW274707   8.634   4.751   5.863  0.9409  1.6584 -1.9842
52239SOL     OW74708   8.489   8.000  13.098 -0.1159  0.4593 -0.3306
52239SOL    HW174709   8.450   7.949  13.170  2.2663 -0.0699  0.6792
52239SOL    HW274710   8.456   8.089  13.111  2.0968  0.9715  3.0148
52240SOL     OW74711  11.629  10.156   7.155 -0.4569 -0.6036  0.7204
52240SOL    HW174712  11.719  10.186   7.175  0.1827 -3.2049  2.2218
52240SOL    HW274713  11.628  10.144   7.061 -0.3080  2.4913  0.2197
52241SOL     OW74714  11.012   3.878  13.360  0.2634 -0.4163  0.1757
52241SOL    HW174715  10.998   3.962  13.404 -1.4231 -0.6676  0.1672
52241SOL    HW274716  11.093   3.844  13.398  0.5055  0.8155  0.7952
52242SOL     OW74717  10.595  11.811   6.189 -0.2173  0.1174  0.0062
52242SOL    HW174718  10.648  11.797   6.111 -0.3112  0.6996 -0.1609
52242SOL    HW274719  10.553  11.896   6.176 -2.0504 -0.7856 -0.3683
52243SOL     OW74720   9.014   8.934   4.123 -0.1110  0.4289  0.2317
52243SOL    HW174721   9.106   8.929   4.097 -0.2984  1.6113 -0.7824
52243SOL    HW274722   9.010   8.885   4.205  1.0265 -1.2865 -0.6642
52244SOL     OW74723   0.449   7.939   0.427  0.1576  0.0668  0.1736
52244SOL    HW174724   0.404   7.855   0.429  1.4227 -0.6520 -0.3961
52244SOL    HW274725   0.439   7.974   0.516  1.6434 -1.8087  1.1442
52245SOL     OW74726  11.739  12.870   9.664  0.3001 -0.3138  0.1848
52245SOL    HW174727  11.711  12.954   9.628  1.7237  0.5983  1.1185
52245SOL    HW274728  11.810  12.841   9.606  1.6943  0.5155  1.4046
52246SOL     OW74729  14.149   3.137  11.273  0.3673  0.7421  0.2632
52246SOL    HW174730  14.189   3.050  11.276 -0.0117  0.5938  1.1167
52246SOL    HW274731  14.180   3.174  11.190 -1.3521 -1.1091 -1.3091
52247SOL     OW74732   3.146   1.804  11.728  1.2639  0.4181  0.3037
52247SOL    HW174733   3.092   1.737  11.685  1.1178  0.5309  0.3124
52247SOL    HW274734   3.097   1.829  11.806  0.4773  1.7601 -0.5676
52248SOL     OW74735   8.005  14.112   2.926  0.6411  0.2152 -0.2310
52248SOL    HW174736   7.984  14.062   2.847 -1.7896  1.0786 -0.2150
52248SOL    HW274737   8.001  14.048   2.996  0.6459 -0.1398 -0.5502
52249SOL     OW74738   6.143   2.787  13.759 -0.0408  1.1778  0.2663
52249SOL    HW174739   6.205   2.846  13.717  0.5215 -1.2174 -2.6683
52249SOL    HW274740   6.058   2.812  13.722 -0.0096  1.0934  0.1343
52250SOL     OW74741   9.098  13.385  11.802  0.3091 -0.0447 -0.5957
52250SOL    HW174742   9.065  13.298  11.825 -0.3177  0.4020  0.2603
52250SOL    HW274743   9.052  13.407  11.720  1.3679 -0.9916 -1.4796
52251SOL     OW74744   6.667   1.729  11.235 -0.4914 -0.1798  0.3051
52251SOL    HW174745   6.613   1.807  11.224  1.0438  1.2913  2.5313
52251SOL    HW274746   6.757   1.759  11.224  0.0755 -2.2067 -1.3879
52252SOL     OW74747   8.003   5.441   1.607 -0.0888 -0.0449 -0.1280
52252SOL    HW174748   7.926   5.449   1.552 -0.3477  0.8179  0.3390
52252SOL    HW274749   8.062   5.510   1.578  0.6429 -0.8619 -0.6613
52253SOL     OW74750  13.652   8.572  13.821  0.1188  0.3544 -0.4585
52253SOL    HW174751  13.589   8.520  13.770  0.3443 -2.0075  1.4864
52253SOL    HW274752  13.712   8.607  13.756 -1.2699 -0.0877 -2.0676
52254SOL     OW74753   4.923  13.397   5.779  0.2011  0.2454 -0.0784
52254SOL    HW174754   4.836  13.410   5.742  0.5993  0.1682 -1.0556
52254SOL    HW274755   4.937  13.472   5.836 -0.6431  0.0767  0.3653
52255SOL     OW74756   6.910   3.387  11.067  0.1812 -0.0798  0.1822
52255SOL    HW174757   6.949   3.300  11.058  2.2248  0.7503  0.6604
52255SOL    HW274758   6.976   3.447  11.034 -0.7520  1.3923  0.9006
52256SOL     OW74759   1.571   8.849  12.262 -0.1429 -0.2755  0.8738
52256SOL    HW174760   1.614   8.783  12.208 -0.9380 -0.4520  0.4419
52256SOL    HW274761   1.519   8.800  12.325  0.7578 -0.0674  1.8024
52257SOL     OW74762   3.197   2.776  13.046 -0.4139 -0.2962  0.0221
52257SOL    HW174763   3.174   2.846  12.984 -0.7604 -1.1337 -0.8163
52257SOL    HW274764   3.239   2.822  13.119 -1.7923  0.9507  0.1038
52258SOL     OW74765   8.385   7.187  10.051  0.4541 -0.2768 -0.0628
52258SOL    HW174766   8.295   7.174  10.019 -0.5055 -1.1472  2.7063
52258SOL    HW274767   8.403   7.279  10.033 -0.8835 -0.1443 -0.9034
52259SOL     OW74768   8.049   4.296   5.076 -0.1189 -0.1860 -0.9475
52259SOL    HW174769   8.075   4.205   5.089  0.9547  0.3037  0.6218
52259SOL    HW274770   8.106   4.327   5.006  2.8818  0.4903  1.5656
52260SOL     OW74771   4.102   1.867   5.353 -0.6717 -0.3162 -0.4993
52260SOL    HW174772   4.089   1.883   5.446 -1.1509  1.0409 -0.7847
52260SOL    HW274773   4.196   1.875   5.340 -0.7157  0.5706 -0.3167
52261SOL     OW74774   4.896  10.830   8.498 -0.3107  0.3846  0.0662
52261SOL    HW174775   4.928  10.900   8.555  0.9176 -0.9684  1.1318
52261SOL    HW274776   4.856  10.767   8.558 -1.0600 -0.0101 -0.8230
52262SOL     OW74777   7.701   2.946   0.131 -0.3501  0.0266 -0.0225
52262SOL    HW174778   7.751   2.992   0.198  1.3637 -1.2614 -0.3336
52262SOL    HW274779   7.663   2.871   0.177 -0.0184 -0.2875 -0.2449
52263SOL     OW74780   9.781  13.480   5.165  0.3034  0.3216  0.1478
52263SOL    HW174781   9.864  13.515   5.197 -0.0407  0.3122  1.0844
52263SOL    HW274782   9.723  13.556   5.160  0.5340  0.4397 -1.1248
52264SOL     OW74783   8.759   9.713   8.819 -0.5101 -0.2302  0.0115
52264SOL    HW174784   8.708   9.713   8.900 -1.4626 -1.0651 -0.5604
52264SOL    HW274785   8.736   9.796   8.777  1.1508  0.9179  1.2635
52265SOL     OW74786   5.783   8.911   3.785  0.2497  0.1650 -0.3857
52265SOL    HW174787   5.856   8.952   3.739 -0.4054  0.1354 -1.4824
52265SOL    HW274788   5.812   8.905   3.876  1.3070  0.8404 -0.6653
52266SOL     OW74789   1.028   9.040   4.423 -0.4276  0.3596  0.0347
52266SOL    HW174790   0.978   9.119   4.443 -0.4023 -0.1495  2.4436
52266SOL    HW274791   1.099   9.041   4.487  0.5449 -0.7616 -1.0072
52267SOL     OW74792   4.661  13.467  13.574 -0.0324  0.0920  0.6526
52267SOL    HW174793   4.707  13.401  13.626  2.8315 -1.3076 -3.1754
52267SOL    HW274794   4.706  13.549  13.595  0.4637 -0.2686  1.0304
52268SOL     OW74795   4.932   2.143   3.892  0.2498 -0.1749 -0.5415
52268SOL    HW174796   4.903   2.187   3.971  0.2820  1.6209 -1.4822
52268SOL    HW274797   5.016   2.104   3.916  0.5239  0.8210  0.1646
52269SOL     OW74798   6.545   5.015  13.028 -0.1302 -0.3439  0.0230
52269SOL    HW174799   6.571   4.985  12.940 -0.1235 -0.0494 -0.0785
52269SOL    HW274800   6.571   5.108  13.029 -0.9923 -0.0953 -0.0068
52270SOL     OW74801  13.683   9.655   0.773 -0.3089 -0.1100 -0.2951
52270SOL    HW174802  13.683   9.560   0.781 -2.1558 -0.0581  0.9729
52270SOL    HW274803  13.614   9.673   0.709 -0.5584  0.4091  0.1183
52271SOL     OW74804   9.448   1.403   2.484 -0.2209  0.2335  0.4953
52271SOL    HW174805   9.437   1.314   2.518 -2.7784 -0.0778 -0.8932
52271SOL    HW274806   9.541   1.408   2.462  0.2029 -1.7234  1.5394
52272SOL     OW74807   1.090   8.266  13.160 -0.5531  0.1911 -0.0110
52272SOL    HW174808   1.043   8.350  13.165  1.3657  1.5272 -2.1461
52272SOL    HW274809   1.039   8.206  13.213 -1.5826  2.9302  2.3395
52273SOL     OW74810  11.581   7.205  12.548  0.4267  0.1177  0.1167
52273SOL    HW174811  11.588   7.160  12.464  0.5703 -0.9253  0.6806
52273SOL    HW274812  11.546   7.139  12.608 -1.8763  1.4597  0.3799
52274SOL     OW74813   9.874   6.228   3.061 -0.2839 -0.1077  0.0047
52274SOL    HW174814   9.884   6.278   3.143  0.1582  0.0451 -0.1375
52274SOL    HW274815   9.860   6.138   3.090  0.2009 -0.1075  0.2470
52275SOL     OW74816   0.474  12.814  10.060 -0.2059 -0.1459 -0.0549
52275SOL    HW174817   0.512  12.754   9.997 -0.0414  0.8230 -0.9118
52275SOL    HW274818   0.381  12.818  10.038 -0.0341  0.6879 -0.6759
52276SOL     OW74819  13.625   1.866   1.864  0.5949  0.0876  0.5031
52276SOL    HW174820  13.665   1.927   1.926  0.4756  0.0681  0.6005
52276SOL    HW274821  13.667   1.886   1.780 -0.1916  1.0382  0.3053
52277SOL     OW74822  10.556   0.386  10.524 -0.3822 -0.5198 -0.5608
52277SOL    HW174823  10.578   0.293  10.528 -0.5861 -0.5563 -0.2793
52277SOL    HW274824  10.471   0.388  10.480 -1.1726 -0.5995  0.8892
52278SOL     OW74825  10.197   3.713  12.468  0.3388  0.2352  0.5677
52278SOL    HW174826  10.242   3.794  12.490  1.1926  0.7425 -2.5387
52278SOL    HW274827  10.120   3.742  12.419  0.9630 -0.7759 -1.0984
52279SOL     OW74828  10.773   2.709   5.236 -0.1338  0.5165 -0.1793
52279SOL    HW174829  10.726   2.640   5.187 -0.1205  1.1306 -1.0837
52279SOL    HW274830  10.862   2.706   5.201  0.3368 -0.1410  1.0049
52280SOL     OW74831   7.363  11.294  13.564 -0.2177 -0.0912 -0.5385
52280SOL    HW174832   7.337  11.309  13.473  2.0674 -2.2684 -1.6778
52280SOL    HW274833   7.281  11.292  13.613 -1.4819  1.6883 -2.4001
52281SOL     OW74834  12.539   3.187  10.121  0.2955  0.2132 -0.1623
52281SOL    HW174835  12.566   3.118  10.182  2.4789  1.0470 -0.0981
52281SOL    HW274836  12.608   3.252  10.126 -0.7329  1.5070 -1.6815
52282SOL     OW74837  11.871   6.420   8.376  0.3159 -0.2560 -0.4130
52282SOL    HW174838  11.880   6.508   8.340  2.9857 -0.0793  0.4302
52282SOL    HW274839  11.961   6.391   8.390 -0.4906 -3.0059 -0.3213
52283SOL     OW74840   3.926   6.681   6.929  0.3303 -0.8511  0.4158
52283SOL    HW174841   3.923   6.586   6.916 -2.5046 -0.9447  1.0418
52283SOL    HW274842   3.881   6.717   6.853 -0.4988 -0.1836  1.2024
52284SOL     OW74843   0.520   7.444   7.552  0.1662 -0.2363  0.2499
52284SOL    HW174844   0.513   7.348   7.555  0.3481 -0.2494  0.2685
52284SOL    HW274845   0.432   7.473   7.530  0.5234 -0.5119 -1.7624
52285SOL     OW74846  13.396   6.528   5.749  0.0407 -0.2834  0.6271
52285SOL    HW174847  13.411   6.597   5.684  1.0395  1.2076  2.3181
52285SOL    HW274848  13.454   6.457   5.723 -0.0998 -0.0139 -0.4772
52286SOL     OW74849  11.817   5.035   2.719  0.2467  0.1035  0.3616
52286SOL    HW174850  11.909   5.030   2.744  0.9190  0.9079 -1.7336
52286SOL    HW274851  11.800   4.954   2.671 -0.7486 -0.9858  2.4562
52287SOL     OW74852   4.454   5.430   2.774  0.7504  0.3504 -0.3603
52287SOL    HW174853   4.547   5.410   2.790  0.4126 -4.2241 -2.4030
52287SOL    HW274854   4.410   5.405   2.855  1.1067 -0.1027 -0.3000
52288SOL     OW74855  12.666  10.939   3.127  0.7930 -0.0809 -0.5037
52288SOL    HW174856  12.580  10.929   3.088 -0.0130  1.3849  0.7873
52288SOL    HW274857  12.653  10.920   3.220  2.4467 -2.5084 -0.6641
52289SOL     OW74858   6.447  11.377   2.699  0.2242 -0.0556 -0.4171
52289SOL    HW174859   6.469  11.440   2.767 -0.0589 -0.0647 -0.3142
52289SOL    HW274860   6.482  11.293   2.731 -1.2575 -0.3711  0.4615
52290SOL     OW74861   0.310  10.967  10.605  0.6656  0.2080 -0.1152
52290SOL    HW174862   0.237  10.905  10.614  0.0786  1.1010  1.6204
52290SOL    HW274863   0.387  10.912  10.590 -0.0439 -0.8650  0.0686
52291SOL     OW74864   1.574   2.986   3.684 -0.0035 -0.3718 -0.3390
52291SOL    HW174865   1.510   3.001   3.754 -0.6783  0.3511 -1.0877
52291SOL    HW274866   1.642   2.932   3.725  0.3299  1.1813  1.2972
52292SOL     OW74867   9.445   2.029  11.616  0.5964 -0.5473 -0.1403
52292SOL    HW174868   9.499   1.966  11.568 -0.9318 -1.7673 -0.3273
52292SOL    HW274869   9.367   1.980  11.642  1.5211 -0.1567  4.1275
52293SOL     OW74870   6.988  13.602   9.825 -0.0278 -0.3727  0.4602
52293SOL    HW174871   6.995  13.576   9.733  0.1382  0.9551  0.0855
52293SOL    HW274872   7.063  13.659   9.840 -0.1647 -0.4174  1.3704
52294SOL     OW74873   8.361  10.353   0.261 -0.4130  0.5245  0.0016
52294SOL    HW174874   8.395  10.264   0.251  0.6209  0.8029  0.8409
52294SOL    HW274875   8.333  10.358   0.352 -0.7190  0.9738 -0.1149
52295SOL     OW74876   6.642   5.818   9.288  0.7494 -0.0538  0.0622
52295SOL    HW174877   6.679   5.805   9.375 -1.8365 -1.1005  1.1087
52295SOL    HW274878   6.639   5.913   9.278 -0.0519  0.1284  1.6835
52296SOL     OW74879  10.172   6.519   1.564  0.1826  0.0862  0.3782
52296SOL    HW174880  10.156   6.494   1.473 -0.8238 -0.6456  0.7379
52296SOL    HW274881  10.190   6.437   1.609  4.3505  0.6935  0.2383
52297SOL     OW74882   4.008   6.389   8.748 -0.0851  0.4954  0.5177
52297SOL    HW174883   3.994   6.452   8.818 -0.2746  0.7529  0.2514
52297SOL    HW274884   4.055   6.438   8.681  0.4186  0.1511  0.6150
52298SOL     OW74885   8.933   3.437   2.095  0.7219 -0.4029  0.0840
52298SOL    HW174886   9.017   3.410   2.057  0.5543  0.3713 -0.8714
52298SOL    HW274887   8.939   3.533   2.100  0.2393 -0.4021  0.8598
52299SOL     OW74888   2.211  13.519   2.742 -1.0056 -0.3701 -0.1547
52299SOL    HW174889   2.289  13.514   2.687 -0.8967 -2.4025  0.0856
52299SOL    HW274890   2.138  13.502   2.682 -1.0838 -0.3366 -0.0697
52300SOL     OW74891  12.527   1.140   6.932  0.6976 -0.2118 -0.5792
52300SOL    HW174892  12.489   1.138   7.020  0.0702  0.6513 -0.8179
52300SOL    HW274893  12.622   1.136   6.946  0.5856 -0.4664  0.1130
52301SOL     OW74894   1.964   0.507   9.537  0.4607  0.0870 -0.5055
52301SOL    HW174895   1.902   0.574   9.507  1.3793  0.3939 -1.7614
52301SOL    HW274896   1.965   0.442   9.467 -0.2432 -1.1677  0.6034
52302SOL     OW74897   8.511   4.652  12.763  0.0935 -0.9267  0.0359
52302SOL    HW174898   8.457   4.689  12.693  0.0214  0.5044  0.8219
52302SOL    HW274899   8.570   4.723  12.789  1.5287 -2.0684  0.0482
52303SOL     OW74900   5.527  10.383   9.882 -0.5553  0.0527 -0.3512
52303SOL    HW174901   5.613  10.393   9.841  0.0179  0.1403  0.8140
52303SOL    HW274902   5.480  10.464   9.861  0.4913  1.0237  0.8673
52304SOL     OW74903  13.825   5.395   8.990 -0.0225  0.5970  0.1438
52304SOL    HW174904  13.805   5.487   8.972  0.7818  0.6360 -0.6171
52304SOL    HW274905  13.837   5.355   8.904  0.2536 -0.0682  0.4834
52305SOL     OW74906   1.694   3.144   1.845  0.0432 -0.0433 -0.1049
52305SOL    HW174907   1.732   3.220   1.802 -2.7737  0.7087 -1.5024
52305SOL    HW274908   1.650   3.096   1.774 -0.0720 -1.7938  1.0931
52306SOL     OW74909   9.030   2.396   9.279 -0.2832  0.0725  0.4317
52306SOL    HW174910   9.123   2.416   9.268 -0.5937  0.0921 -3.7408
52306SOL    HW274911   9.028   2.302   9.298  0.5846  0.1462  0.9442
52307SOL     OW74912   5.316   7.656  10.026  0.1443 -0.8389  0.1157
52307SOL    HW174913   5.314   7.561  10.011 -0.7449 -0.6416 -1.2849
52307SOL    HW274914   5.378   7.689   9.961 -1.4045 -0.2533 -1.1345
52308SOL     OW74915  13.538   2.502  12.907 -0.2720  0.6384 -0.6061
52308SOL    HW174916  13.591   2.454  12.844  1.9979  0.5489  1.2753
52308SOL    HW274917  13.464   2.444  12.925  1.6645 -1.6117  0.5631
52309SOL     OW74918  11.663   7.691  10.838  0.6215  0.1398 -0.4281
52309SOL    HW174919  11.676   7.718  10.928  1.3083  1.3948 -0.8839
52309SOL    HW274920  11.651   7.596  10.843 -0.2549  0.2957  1.0602
52310SOL     OW74921  13.799   0.637  11.653 -0.1999 -0.0746  0.3295
52310SOL    HW174922  13.780   0.711  11.711  1.5558 -0.5256  1.5787
52310SOL    HW274923  13.893   0.643  11.637 -0.0338 -1.9773  0.3700
52311SOL     OW74924   7.757   7.019  12.133  0.4508 -0.0929 -0.3296
52311SOL    HW174925   7.744   6.925  12.131  1.7710 -0.2818 -0.3960
52311SOL    HW274926   7.835   7.034  12.080  0.3940  1.0142 -0.1234
52312SOL     OW74927   7.357  13.055   6.279 -0.1929 -0.1028 -0.4402
52312SOL    HW174928   7.442  13.086   6.249 -0.2814  0.3795 -0.2018
52312SOL    HW274929   7.294  13.090   6.216 -0.1773 -0.8565 -0.8903
52313SOL     OW74930   1.543   3.991   8.699 -0.4724 -0.0707 -0.3555
52313SOL    HW174931   1.502   4.034   8.774  0.3222  0.4378 -0.2010
52313SOL    HW274932   1.636   4.014   8.706 -0.4896  0.6232 -1.8903
52314SOL     OW74933  11.249   4.090  10.197 -0.3468 -0.4968 -0.1903
52314SOL    HW174934  11.296   4.066  10.277 -0.4396  0.8299  0.2815
52314SOL    HW274935  11.275   4.024  10.133  0.7213 -0.8366  0.5747
52315SOL     OW74936   3.195   4.418   2.107 -0.3122  0.4427  0.3387
52315SOL    HW174937   3.198   4.328   2.138 -1.4439  0.6385  1.0877
52315SOL    HW274938   3.105   4.446   2.123  0.3682  2.1611  1.5036
52316SOL     OW74939   6.623   4.706   9.278 -0.4176  0.2488 -0.2305
52316SOL    HW174940   6.645   4.652   9.354  0.5320 -0.1494 -0.7575
52316SOL    HW274941   6.647   4.651   9.203 -1.6350  0.5122 -0.8245
52317SOL     OW74942   6.229  12.947  13.541  0.2336 -0.1569  0.1454
52317SOL    HW174943   6.182  12.990  13.470  1.1471  1.4320  0.4547
52317SOL    HW274944   6.311  12.918  13.501  0.8946  1.0350  0.5850
52318SOL     OW74945   9.642   9.833   8.451 -0.2752 -0.0416 -0.3755
52318SOL    HW174946   9.647   9.745   8.489  0.8389 -0.1200 -0.6672
52318SOL    HW274947   9.654   9.892   8.525  0.5418 -0.1700 -0.3981
52319SOL     OW74948   1.344   2.682  12.568  0.2715  0.1991 -0.3272
52319SOL    HW174949   1.356   2.776  12.555  2.3866  0.1716  0.8881
52319SOL    HW274950   1.265   2.675  12.622  0.1518  1.3000 -0.3359
52320SOL     OW74951   7.069  13.017   7.572  0.2005 -0.2603  0.3930
52320SOL    HW174952   7.129  12.989   7.642  2.2833 -0.2634 -1.2800
52320SOL    HW274953   6.982  12.994   7.604  1.2441 -2.1809  2.0863
52321SOL     OW74954   2.159   4.322   0.849  0.0916 -0.1889 -0.0295
52321SOL    HW174955   2.148   4.318   0.944  3.1747  0.5508  0.5021
52321SOL    HW274956   2.208   4.243   0.827 -0.9025 -0.5279 -1.0847
52322SOL     OW74957   9.425   0.860   0.166 -0.5188 -0.5211  0.5479
52322SOL    HW174958   9.459   0.771   0.154 -0.9435 -0.8678  1.7164
52322SOL    HW274959   9.331   0.852   0.152 -0.2030  0.5061 -3.0369
52323SOL     OW74960   0.316   2.778   0.683  0.9177 -0.3783 -0.1360
52323SOL    HW174961   0.350   2.797   0.770  2.1255  1.9035 -1.0242
52323SOL    HW274962   0.230   2.820   0.682  2.1114  2.3076 -0.9040
52324SOL     OW74963  11.153  11.215   5.051  0.9028 -0.1188  0.0505
52324SOL    HW174964  11.189  11.228   4.963 -1.1704  1.1008 -0.7026
52324SOL    HW274965  11.086  11.147   5.039 -0.8372  1.4950  0.1796
52325SOL     OW74966   2.966   1.352  10.598  0.0258  0.2005 -0.1935
52325SOL    HW174967   2.970   1.284  10.530 -0.8548 -0.8507  0.7754
52325SOL    HW274968   3.020   1.423  10.563 -1.0230  0.0211 -2.3563
52326SOL     OW74969   5.971  12.601   8.758  0.1944  0.2877 -0.5322
52326SOL    HW174970   5.996  12.564   8.674  0.8402 -2.1285  0.6376
52326SOL    HW274971   6.044  12.580   8.817 -0.3392  1.6885  0.6993
52327SOL     OW74972  10.038  13.633   1.859  0.1570 -0.5564  0.1960
52327SOL    HW174973  10.090  13.702   1.898 -1.2813  0.6057  0.1613
52327SOL    HW274974  10.045  13.647   1.765 -0.7497  0.0708  0.2004
52328SOL     OW74975   4.408   8.956   9.974 -0.1979 -0.2936  0.0812
52328SOL    HW174976   4.362   9.030  10.014 -2.4998 -1.3441 -0.4139
52328SOL    HW274977   4.446   8.991   9.894 -0.7645  0.4824  0.1421
52329SOL     OW74978  11.529  12.436  11.539 -0.0808  0.5117  0.5279
52329SOL    HW174979  11.489  12.395  11.616 -0.0003 -0.0800  0.2632
52329SOL    HW274980  11.548  12.362  11.480 -2.7474  1.1195 -1.3225
52330SOL     OW74981   2.846  10.126  13.495  0.0354  0.6038  1.1106
52330SOL    HW174982   2.818  10.211  13.530 -1.3984  0.5057  0.2951
52330SOL    HW274983   2.848  10.139  13.400 -0.1153 -0.2414  0.9827
52331SOL     OW74984  13.181   9.444   8.863 -0.1140  0.8369 -0.0143
52331SOL    HW174985  13.094   9.463   8.899 -0.1847 -1.9803  1.5478
52331SOL    HW274986  13.238   9.437   8.940  1.8690  3.7228 -1.0283
52332SOL     OW74987   4.489   3.623  10.008 -0.3029  0.5212  0.1765
52332SOL    HW174988   4.567   3.662  10.048  0.4129  2.1008 -2.5037
52332SOL    HW274989   4.517   3.534   9.983 -0.1074  0.2725  1.2540
52333SOL     OW74990   3.965   4.993  12.969  0.3188  0.3978 -0.2773
52333SOL    HW174991   3.916   5.002  13.051  1.1360  0.0230  0.2543
52333SOL    HW274992   3.919   4.924  12.921  0.5790 -0.2628  0.4125
52334SOL     OW74993   7.293  11.167   8.293  0.5080  0.3709 -0.0905
52334SOL    HW174994   7.304  11.074   8.275 -0.9305 -0.4565  2.6693
52334SOL    HW274995   7.358  11.187   8.361  0.0030  1.0430  0.2161
52335SOL     OW74996   9.010   8.626   6.857 -0.0033 -0.3055 -0.2257
52335SOL    HW174997   9.053   8.568   6.920  1.3564  0.7169 -0.1648
52335SOL    HW274998   8.936   8.663   6.905  0.3151 -0.4435  0.3854
52336SOL     OW74999  10.417   8.568   8.042  0.0418 -0.4358 -0.8053
52336SOL    HW175000  10.497   8.522   8.019 -0.4069 -1.0792 -1.1168
52336SOL    HW275001  10.423   8.652   7.997 -0.0776 -1.0277 -1.9521
52337SOL     OW75002   6.136  11.156   0.727  0.0106 -0.3948 -0.0479
52337SOL    HW175003   6.076  11.180   0.656 -0.4427 -0.1942  0.4000
52337SOL    HW275004   6.190  11.234   0.740 -0.8676  0.0877  0.8000
52338SOL     OW75005   3.388   4.231   6.845  0.0081  0.4499 -0.3161
52338SOL    HW175006   3.322   4.223   6.914  0.1801  0.1782 -0.1841
52338SOL    HW275007   3.362   4.310   6.797  0.8459  1.6525  1.0906
52339SOL     OW75008   3.502   0.867   5.181  0.7095 -0.6795 -0.2966
52339SOL    HW175009   3.490   0.807   5.255  0.2690 -1.1312 -0.7290
52339SOL    HW275010   3.442   0.835   5.114 -0.7744  1.2065  0.0353
52340SOL     OW75011   0.247   0.218   3.607  0.2067  0.4004  0.2010
52340SOL    HW175012   0.301   0.182   3.677 -2.0697 -3.6070  0.1992
52340SOL    HW275013   0.287   0.186   3.526 -0.5662 -0.2253  0.0520
52341SOL     OW75014  12.591  13.193   7.676 -0.2387  0.3182 -0.3334
52341SOL    HW175015  12.518  13.223   7.730  0.5096  1.4760  0.0900
52341SOL    HW275016  12.622  13.273   7.633  2.2129  0.3498  1.2810
52342SOL     OW75017   3.715  10.174  11.505 -0.7650 -0.2437  0.6415
52342SOL    HW175018   3.778  10.245  11.490 -0.9033 -0.1899  0.3013
52342SOL    HW275019   3.729  10.149  11.596  0.5500 -1.0146  0.2520
52343SOL     OW75020  10.525   4.791   4.269 -0.0092 -0.1651 -0.1521
52343SOL    HW175021  10.449   4.739   4.244  0.5921  0.0178 -2.6052
52343SOL    HW275022  10.600   4.744   4.231  0.6960  1.6075 -1.0666
52344SOL     OW75023   3.125   7.251  10.968 -0.0869  0.7959  0.3260
52344SOL    HW175024   3.033   7.275  10.968 -0.6380 -1.0879  1.4568
52344SOL    HW275025   3.171   7.332  10.943 -2.0658  1.4773 -1.3896
52345SOL     OW75026   0.020   5.706  10.939  0.2470  0.5557  0.2766
52345SOL    HW175027  -0.016   5.624  10.972  1.4888  0.9951  2.9734
52345SOL    HW275028  -0.056   5.757  10.913 -0.6290 -0.8766 -0.0840
52346SOL     OW75029   3.231  11.654   4.429  0.1681 -0.0898 -0.0616
52346SOL    HW175030   3.324  11.640   4.411  0.2468 -0.2491  0.4448
52346SOL    HW275031   3.222  11.635   4.522 -0.2179  0.7351  0.0738
52347SOL     OW75032   9.518   7.901  14.055  0.6922  0.0005 -0.4882
52347SOL    HW175033   9.592   7.856  14.015  2.5988  2.7438 -0.2918
52347SOL    HW275034   9.538   7.903  14.148  0.4923  0.9163 -0.4542
52348SOL     OW75035   4.501  12.523  12.249 -0.2414 -0.3388  0.1370
52348SOL    HW175036   4.459  12.470  12.317  0.1346 -0.4243  0.3066
52348SOL    HW275037   4.453  12.503  12.169 -0.3545 -0.6346  0.2792
52349SOL     OW75038  12.943   9.290  13.080  0.5374  0.2665  0.8165
52349SOL    HW175039  13.001   9.271  13.154  2.2972 -3.1387 -1.1782
52349SOL    HW275040  12.878   9.219  13.082  1.1384 -0.3955 -1.3240
52350SOL     OW75041   4.058   3.624  10.077 -0.5096  0.7224  0.2548
52350SOL    HW175042   4.015   3.706  10.054  1.7831  1.5770 -1.3295
52350SOL    HW275043   4.139   3.650  10.121 -0.5671 -0.7675  1.3357
52351SOL     OW75044  11.189   9.555   9.423 -0.2939  0.1197 -0.3601
52351SOL    HW175045  11.160   9.470   9.390  1.4938 -0.6808  0.0462
52351SOL    HW275046  11.277   9.539   9.456 -0.0923  2.0493  0.1203
52352SOL     OW75047  13.514   5.810  14.149 -0.0789  0.6596  0.5202
52352SOL    HW175048  13.531   5.759  14.228 -0.0476  0.4271  0.3638
52352SOL    HW275049  13.520   5.746  14.078  1.0758  1.0895  0.2184
52353SOL     OW75050   1.173   3.207   4.407  0.6384  0.5803 -0.5659
52353SOL    HW175051   1.226   3.141   4.361  0.4195 -0.5310  0.7210
52353SOL    HW275052   1.236   3.273   4.436  1.6169 -1.2957  1.9620
52354SOL     OW75053   2.118   8.882  14.004 -0.1546 -0.1298  0.3989
52354SOL    HW175054   2.208   8.855  13.987 -0.0577  0.7409 -0.5408
52354SOL    HW275055   2.122   8.977  14.010 -0.8323 -0.1507  1.5129
52355SOL     OW75056   2.836  12.448   5.512 -0.4178  0.0565 -0.0789
52355SOL    HW175057   2.786  12.393   5.451 -2.2011  0.5391  0.8758
52355SOL    HW275058   2.892  12.386   5.559 -1.0860 -0.7153 -0.2682
52356SOL     OW75059  11.688  10.807   1.935  0.0675 -0.1035 -0.0698
52356SOL    HW175060  11.745  10.846   2.002  0.2695 -2.2140  1.0572
52356SOL    HW275061  11.727  10.835   1.852  1.0662  0.8256  0.6778
52357SOL     OW75062   2.906  13.588   9.264 -0.2526  0.3280 -0.0526
52357SOL    HW175063   2.983  13.531   9.257 -0.6768 -0.5412  1.7092
52357SOL    HW275064   2.921  13.657   9.199  1.6233 -0.2632 -0.3137
52358SOL     OW75065  13.130   7.006   6.994 -0.7083 -0.9437  0.5266
52358SOL    HW175066  13.117   6.984   7.086 -1.9276 -0.1688  0.5647
52358SOL    HW275067  13.208   7.062   6.994 -1.0514 -0.4427  1.1799
52359SOL     OW75068  12.330  13.359   5.812 -0.5144  0.0323 -0.1587
52359SOL    HW175069  12.268  13.412   5.861 -0.8505 -1.3378  0.9674
52359SOL    HW275070  12.276  13.306   5.753 -0.2408  0.2978 -0.6642
52360SOL     OW75071   6.619  10.593   0.021  0.2084  0.5562 -0.5846
52360SOL    HW175072   6.661  10.626   0.100 -0.5674 -0.4460  0.2646
52360SOL    HW275073   6.686  10.539  -0.021  0.6552  1.1731 -0.6938
52361SOL     OW75074   5.380  10.951   6.353  0.0056  0.6012 -0.3893
52361SOL    HW175075   5.431  10.877   6.386 -0.3447  1.0347  1.2040
52361SOL    HW275076   5.436  11.027   6.368 -0.6066  0.9364  0.2974
52362SOL     OW75077   1.816   0.257   8.259 -0.1297  0.3822  0.0309
52362SOL    HW175078   1.737   0.296   8.222 -0.8834 -1.1479 -0.0184
52362SOL    HW275079   1.884   0.275   8.193 -0.2781  2.1509  0.3097
52363SOL     OW75080  11.331   9.321  10.130 -0.2260 -0.1110  0.1855
52363SOL    HW175081  11.323   9.248  10.191 -0.7390 -0.1826  0.0411
52363SOL    HW275082  11.388   9.384  10.174 -0.8444 -0.0228  0.8786
52364SOL     OW75083  10.903   0.028  11.305 -0.4804 -0.2618 -0.4109
52364SOL    HW175084  10.980   0.076  11.275 -0.4178  0.1106  0.3206
52364SOL    HW275085  10.886  -0.036  11.235 -0.1779  0.3881 -1.1006
52365SOL     OW75086   8.853   2.679  10.296 -0.2607 -0.0783 -0.3838
52365SOL    HW175087   8.942   2.710  10.311 -0.6907  0.8024  0.4468
52365SOL    HW275088   8.842   2.682  10.201  1.0117 -1.4422 -0.6021
52366SOL     OW75089   0.564  12.520   9.977 -0.5701  0.1104 -0.2738
52366SOL    HW175090   0.618  12.569   9.915 -0.6799  2.1161  1.1560
52366SOL    HW275091   0.518  12.456   9.922  1.9386 -0.5561 -1.7685
52367SOL     OW75092   1.227   3.792  11.359 -0.0715  0.6129  0.1861
52367SOL    HW175093   1.190   3.704  11.357 -0.0824  0.6121  0.4236
52367SOL    HW275094   1.223   3.818  11.451  2.0603 -0.0411  0.5267
52368SOL     OW75095   2.124   8.706   3.184 -0.5182 -0.2421  0.5667
52368SOL    HW175096   2.218   8.694   3.171 -0.9960 -3.9504 -0.6992
52368SOL    HW275097   2.092   8.738   3.100 -0.6413 -1.2662  0.2106
52369SOL     OW75098  12.034   5.435   7.028  0.4291  0.4184 -0.2155
52369SOL    HW175099  12.075   5.502   6.973  0.9589  0.5839  0.3699
52369SOL    HW275100  12.095   5.361   7.023  1.0016  0.7965  0.9559
52370SOL     OW75101   2.971   8.191   1.654  0.2411 -0.1920 -0.5939
52370SOL    HW175102   2.912   8.239   1.597 -0.4671  0.3959  0.5838
52370SOL    HW275103   3.033   8.257   1.686 -0.8508  0.0601  1.1806
52371SOL     OW75104  12.611   4.190   3.740 -0.2616  0.0916  0.6343
52371SOL    HW175105  12.625   4.212   3.833  3.5514  1.7148 -0.1375
52371SOL    HW275106  12.695   4.157   3.710 -1.8532 -2.0018 -1.9376
52372SOL     OW75107   7.450   8.794   4.103 -0.3720 -0.2878  0.0824
52372SOL    HW175108   7.532   8.798   4.053  1.0380 -0.8721  2.1945
52372SOL    HW275109   7.414   8.708   4.082  1.2492 -1.3816  1.4973
52373SOL     OW75110  10.940  10.145   3.766 -0.0910  0.9120 -0.5883
52373SOL    HW175111  11.019  10.135   3.820 -1.6096 -1.6962  1.4184
52373SOL    HW275112  10.968  10.117   3.679  1.6707  2.1116 -0.4726
52374SOL     OW75113  12.128  11.001  10.216  0.0650 -0.2053 -0.0793
52374SOL    HW175114  12.083  11.031  10.295  0.2286  0.8748 -0.3856
52374SOL    HW275115  12.175  11.078  10.183  0.3945 -0.7595 -0.9597
52375SOL     OW75116  13.578   4.134  11.640 -0.0381  0.1609 -0.8001
52375SOL    HW175117  13.622   4.050  11.641 -1.0516 -0.3932 -0.8643
52375SOL    HW275118  13.569   4.156  11.547 -0.4059 -0.0096 -0.8063
52376SOL     OW75119   3.902  10.810   2.475 -0.2214 -0.3853 -0.2501
52376SOL    HW175120   3.841  10.800   2.548  1.1083 -0.0689  0.9520
52376SOL    HW275121   3.908  10.722   2.436  0.8040 -1.1342  1.4926
52377SOL     OW75122  10.292   1.609   0.564  0.5447  0.8256 -0.6895
52377SOL    HW175123  10.218   1.550   0.578 -0.0528  0.9035 -3.0292
52377SOL    HW275124  10.262   1.693   0.600  0.1607  0.4533 -0.1264
52378SOL     OW75125   0.303   4.133   7.113  0.0843 -0.5779  0.3982
52378SOL    HW175126   0.341   4.082   7.184  0.2856 -0.4011  0.4182
52378SOL    HW275127   0.294   4.071   7.041  1.5541 -0.3492 -0.0146
52379SOL     OW75128   9.843   9.339   3.270  0.0989 -0.1041 -0.0830
52379SOL    HW175129   9.750   9.363   3.274  0.6852  2.1836  1.4221
52379SOL    HW275130   9.873   9.375   3.186 -0.2240 -0.3974 -0.3339
52380SOL     OW75131   5.052   0.094  10.041 -0.1429  0.2754 -0.0556
52380SOL    HW175132   5.103   0.021  10.005 -1.2429 -2.0438  2.6336
52380SOL    HW275133   5.107   0.131  10.109 -1.1074 -0.8790  1.4294
52381SOL     OW75134   9.621   5.570   8.057  0.2329  0.2423 -1.1029
52381SOL    HW175135   9.715   5.561   8.047  0.0530 -0.8161 -2.1176
52381SOL    HW275136   9.597   5.640   7.997  0.5467  1.6862  0.3790
52382SOL     OW75137  11.472   5.570   5.682  0.3250  0.4337  0.0281
52382SOL    HW175138  11.491   5.500   5.621  1.8240  0.6189  0.2413
52382SOL    HW275139  11.384   5.550   5.716  0.8758 -1.5682  0.3990
52383SOL     OW75140   9.893  11.752   0.345 -0.2069 -0.0138  0.1770
52383SOL    HW175141   9.809  11.798   0.341 -0.6309 -0.7396  0.7318
52383SOL    HW275142   9.870  11.661   0.360  0.7434  0.1245  2.8669
52384SOL     OW75143   8.525  12.277   7.172  0.2695  0.1816  0.1621
52384SOL    HW175144   8.546  12.241   7.086 -1.8711  1.2988 -0.9212
52384SOL    HW275145   8.490  12.364   7.153 -1.2409  0.0548  2.0655
52385SOL     OW75146   3.264   9.777   8.417  0.1274 -0.5573  0.3422
52385SOL    HW175147   3.287   9.754   8.507  1.7208  3.2664  1.1258
52385SOL    HW275148   3.348   9.782   8.371 -0.3855  0.4078 -0.5310
52386SOL     OW75149   4.731   6.530   3.641 -0.5171 -1.1458 -0.3530
52386SOL    HW175150   4.754   6.620   3.664  0.8253 -1.8692  1.3534
52386SOL    HW275151   4.644   6.517   3.680 -1.6272 -0.0741 -2.2497
52387SOL     OW75152   3.297   2.862   3.930 -0.5689  0.6167  0.0897
52387SOL    HW175153   3.346   2.802   3.875  1.8965 -0.0530  2.8160
52387SOL    HW275154   3.328   2.949   3.905  0.7838  0.2964  0.5680
52388SOL     OW75155   4.049   3.173   4.108  0.7262  0.2155  0.1331
52388SOL    HW175156   4.053   3.260   4.148 -0.2697 -0.7998  2.7022
52388SOL    HW275157   3.995   3.122   4.168  2.2373 -2.4955 -0.6289
52389SOL     OW75158   0.895  12.575   4.192 -0.5607  0.1322 -0.6547
52389SOL    HW175159   0.831  12.611   4.254 -0.6243 -1.1932  0.0794
52389SOL    HW275160   0.842  12.525   4.130 -0.2935 -0.4884 -0.3874
52390SOL     OW75161   6.958   7.941  10.542 -0.4932 -1.0736  0.4647
52390SOL    HW175162   6.921   8.027  10.561 -1.3177 -1.0704 -0.9929
52390SOL    HW275163   7.002   7.914  10.623  0.2434  0.9380  0.7802
52391SOL     OW75164   5.364  11.845   8.299 -0.6008 -0.1637  0.5810
52391SOL    HW175165   5.396  11.763   8.263 -0.4197 -0.0906  0.5740
52391SOL    HW275166   5.291  11.870   8.241 -0.0695  0.1476  0.0252
52392SOL     OW75167  13.690   4.581   1.000  0.1023  0.1721  0.8575
52392SOL    HW175168  13.612   4.549   0.956  0.3564  0.4192  0.2108
52392SOL    HW275169  13.658   4.650   1.059 -0.0985  0.7403  0.1021
52393SOL     OW75170   8.651   4.980   9.025 -0.2225 -0.2486  0.9311
52393SOL    HW175171   8.561   4.953   9.007  0.3862 -1.6515 -0.1523
52393SOL    HW275172   8.699   4.899   9.037  1.0424  0.4649  0.8858
52394SOL     OW75173   3.269   6.817   0.470 -0.2954  0.4971 -0.4792
52394SOL    HW175174   3.207   6.864   0.527  1.1386 -0.5861  2.1887
52394SOL    HW275175   3.219   6.744   0.434 -0.7182 -0.2238  1.4350
52395SOL     OW75176   1.573   1.719   3.814  0.0219 -0.2353  0.5631
52395SOL    HW175177   1.593   1.668   3.735  0.3330  1.3040 -0.3783
52395SOL    HW275178   1.528   1.656   3.871  2.4203 -2.2507  0.4361
52396SOL     OW75179   1.657   1.939  12.105 -0.4107  0.0558  0.5692
52396SOL    HW175180   1.752   1.936  12.118 -0.0311  2.5905 -0.9493
52396SOL    HW275181   1.643   2.015  12.049 -3.3591 -0.3296  0.6342
52397SOL     OW75182   7.793   0.340  11.647 -0.2703  0.3752  0.5858
52397SOL    HW175183   7.853   0.266  11.654  0.1746  0.6522 -0.1539
52397SOL    HW275184   7.714   0.303  11.606  0.2298  0.4570 -0.4647
52398SOL     OW75185   7.139  11.430   4.897  0.0407 -0.1990  1.0876
52398SOL    HW175186   7.065  11.391   4.945 -0.7105  0.6919  0.6962
52398SOL    HW275187   7.131  11.524   4.914  0.4759  0.0081  0.2053
52399SOL     OW75188   2.973   1.727   0.897 -0.1337 -0.0373  0.1969
52399SOL    HW175189   2.915   1.674   0.843  0.8072 -0.2995 -0.5981
52399SOL    HW275190   3.043   1.667   0.923  0.2579  0.4806  0.3688
52400SOL     OW75191  12.139   9.673   7.922  0.7502 -0.1562  0.1046
52400SOL    HW175192  12.054   9.686   7.881  0.3491  3.2059  1.6304
52400SOL    HW275193  12.124   9.605   7.987  0.5764 -3.0953 -2.8017
52401SOL     OW75194   6.710  10.537   1.362 -0.0516 -0.3807  0.6822
52401SOL    HW175195   6.752  10.540   1.276 -2.1044  1.6374 -0.3354
52401SOL    HW275196   6.640  10.474   1.353 -2.2864  2.0463 -0.2422
52402SOL     OW75197   9.717   7.019   2.069  0.4595  0.2820 -0.6566
52402SOL    HW175198   9.652   7.062   2.125 -0.5694 -1.1188 -0.7156
52402SOL    HW275199   9.800   7.061   2.091 -0.2938  1.3507  0.2279
52403SOL     OW75200   1.111   6.953  11.011 -0.2834  0.1326  0.3321
52403SOL    HW175201   1.196   6.918  10.985  0.3471  1.1671  0.9498
52403SOL    HW275202   1.049   6.911  10.952  0.7054 -0.2793 -0.4396
52404SOL     OW75203   9.624  13.512   2.178  0.3725  0.2422  0.6334
52404SOL    HW175204   9.612  13.602   2.148  1.5412 -0.7747 -3.5867
52404SOL    HW275205   9.718  13.496   2.170  0.1554 -1.4661  1.0423
52405SOL     OW75206   7.259  10.493   9.293  0.2444  0.3731 -0.4107
52405SOL    HW175207   7.222  10.544   9.365  1.5139 -0.1956  0.7027
52405SOL    HW275208   7.183  10.462   9.244 -0.6282  1.4540  0.2034
52406SOL     OW75209   8.787   0.618   1.328  0.6914  0.4058 -1.0614
52406SOL    HW175210   8.812   0.704   1.361 -1.7030  1.2309 -1.1987
52406SOL    HW275211   8.763   0.568   1.406  0.1133  0.5835 -1.1162
52407SOL     OW75212   6.893   9.989  13.579  0.0002 -0.4783  0.1584
52407SOL    HW175213   6.980   9.948  13.579 -0.4817 -1.5482  0.3406
52407SOL    HW275214   6.847   9.947  13.507 -0.5611 -0.3483  0.4364
52408SOL     OW75215   6.678  12.075   4.616 -0.2550 -0.1536 -0.3954
52408SOL    HW175216   6.677  12.100   4.524 -0.3578  0.5418 -0.2148
52408SOL    HW275217   6.734  12.140   4.658  0.8103 -1.1952 -0.1515
52409SOL     OW75218  12.991  12.807   1.469 -0.1432 -0.5108  0.3029
52409SOL    HW175219  13.023  12.857   1.544 -1.0629 -0.5726  0.7531
52409SOL    HW275220  12.916  12.857   1.437  1.1266  0.3263 -1.5479
52410SOL     OW75221   1.626   8.781  13.080  0.1975 -0.1083 -0.1142
52410SOL    HW175222   1.634   8.688  13.060 -0.4968 -0.3020  0.4722
52410SOL    HW275223   1.631   8.786  13.175 -0.3108  0.3900 -0.1051
52411SOL     OW75224  13.015  12.659  12.373  0.4728  0.8929  0.2496
52411SOL    HW175225  12.951  12.726  12.396  0.4485  0.7326  0.6451
52411SOL    HW275226  13.075  12.703  12.313 -0.1331  0.9856 -0.3064
52412SOL     OW75227   3.564   8.224  12.408  0.5590  0.1566  0.6087
52412SOL    HW175228   3.481   8.244  12.453 -0.9657 -1.3208 -1.3684
52412SOL    HW275229   3.598   8.310  12.383 -1.3615  0.7607 -0.1531
52413SOL     OW75230   9.126   6.086   9.135 -0.0887  0.3972  0.4102
52413SOL    HW175231   9.099   6.139   9.210 -0.7865 -0.6110  0.8937
52413SOL    HW275232   9.047   6.039   9.109  0.7236 -1.1922  0.6611
52414SOL     OW75233  10.817   5.210   9.486  0.4066  0.9342 -0.6005
52414SOL    HW175234  10.876   5.242   9.554 -1.3156 -1.0081  2.0174
52414SOL    HW275235  10.859   5.130   9.454 -0.3471 -0.0497  0.7463
52415SOL     OW75236   2.671   9.845   4.175 -0.0719 -0.2801 -0.6043
52415SOL    HW175237   2.763   9.870   4.180 -0.0907  0.3010 -2.4640
52415SOL    HW275238   2.645   9.831   4.266  2.4912 -2.9046 -0.1324
52416SOL     OW75239  12.709   0.988   3.817  0.0840 -0.2545  0.1022
52416SOL    HW175240  12.738   1.049   3.885  0.0615 -0.4791  0.3158
52416SOL    HW275241  12.734   0.902   3.851  0.2490 -0.3529 -0.2651
52417SOL     OW75242  11.086  13.215   3.439  0.2320  0.7163 -0.2410
52417SOL    HW175243  11.104  13.264   3.359 -0.4286 -0.8445 -1.3814
52417SOL    HW275244  11.003  13.250   3.471  1.4021  2.6860  0.9031
52418SOL     OW75245  12.348   3.548   1.845  0.0434 -0.1011  0.4388
52418SOL    HW175246  12.436   3.566   1.812 -0.8281 -0.5264 -2.3736
52418SOL    HW275247  12.361   3.482   1.914  1.9077 -0.0697  0.1607
52419SOL     OW75248   0.065   6.336   5.955  0.0303 -1.0162  0.0495
52419SOL    HW175249   0.028   6.257   5.995  1.2755 -2.3332 -1.2863
52419SOL    HW275250   0.023   6.408   6.002 -0.4875 -2.4546  1.9326
52420SOL     OW75251  11.359   5.895   2.271  0.4717 -0.1673  0.1772
52420SOL    HW175252  11.403   5.980   2.273 -0.3121  0.3335 -1.6125
52420SOL    HW275253  11.286   5.904   2.331  1.1594 -0.0468  1.0097
52421SOL     OW75254   0.080   7.950   9.050 -0.0732 -0.2129 -0.0542
52421SOL    HW175255   0.063   7.865   9.010 -0.3930  0.3027 -1.0612
52421SOL    HW275256  -0.001   7.971   9.098 -0.1031 -0.3421 -0.0498
52422SOL     OW75257   5.986   8.586   9.122  0.0769  0.1388  0.2421
52422SOL    HW175258   5.911   8.643   9.138  1.9269  2.2160  2.3873
52422SOL    HW275259   5.968   8.507   9.173 -0.5141  0.7759  1.0411
52423SOL     OW75260   3.175  14.128   5.508  0.1667  0.0901  0.3880
52423SOL    HW175261   3.154  14.046   5.552  0.9710  0.0419  0.7073
52423SOL    HW275262   3.201  14.102   5.420  4.5580 -0.5727  1.6119
52424SOL     OW75263  11.247   1.829   6.134  0.0199  0.0438 -0.5383
52424SOL    HW175264  11.326   1.813   6.185 -0.0092  0.4883 -0.3484
52424SOL    HW275265  11.266   1.791   6.048  0.4521  0.1720 -0.5017
52425SOL     OW75266  12.043   6.893   1.885 -0.1236 -0.0668 -0.2954
52425SOL    HW175267  12.118   6.923   1.833  1.1988  0.1161  1.6078
52425SOL    HW275268  11.985   6.969   1.889  1.2962  1.0369  1.0956
52426SOL     OW75269  11.802   6.435   7.740 -0.2655  0.0346  0.0197
52426SOL    HW175270  11.707   6.443   7.726  0.0647  0.4118 -2.3090
52426SOL    HW275271  11.818   6.341   7.733 -0.2264  0.1356 -1.7261
52427SOL     OW75272  13.109   2.885   8.518  0.1285  0.7564  0.0946
52427SOL    HW175273  13.055   2.820   8.472 -0.4681  2.3932 -1.6430
52427SOL    HW275274  13.198   2.853   8.507 -0.2604 -0.6323  0.7490
52428SOL     OW75275   1.807  12.782   3.770 -0.0017 -0.2122 -0.0604
52428SOL    HW175276   1.817  12.734   3.852 -0.9752 -0.1758  0.0976
52428SOL    HW275277   1.860  12.734   3.707  0.6441 -0.3215  0.5563
52429SOL     OW75278   7.576   4.144   5.326  0.3104 -0.0499  0.6216
52429SOL    HW175279   7.556   4.059   5.285 -1.1112  1.1649 -1.4158
52429SOL    HW275280   7.670   4.140   5.345  0.2071 -2.1899  0.9225
52430SOL     OW75281   4.855   3.390  10.691 -0.2036 -0.6953 -0.4423
52430SOL    HW175282   4.778   3.340  10.665 -0.7791  0.2696 -0.6133
52430SOL    HW275283   4.870   3.451  10.619  2.1494 -2.4156 -1.5302
52431SOL     OW75284  11.412   2.524   7.111 -0.5676 -0.3734  0.8766
52431SOL    HW175285  11.339   2.463   7.104 -0.1598 -0.8664  0.8120
52431SOL    HW275286  11.464   2.490   7.184 -0.1468 -0.3077  0.6091
52432SOL     OW75287   1.912  13.811   5.934  0.3472  0.1700  0.4531
52432SOL    HW175288   1.886  13.720   5.929 -0.9000  0.5610 -0.5992
52432SOL    HW275289   1.953  13.829   5.850  0.7875  0.5368  0.7364
52433SOL     OW75290  11.904  10.595   3.950  0.9696  0.2930  0.2454
52433SOL    HW175291  11.857  10.547   3.881  1.4303  0.7271 -0.3731
52433SOL    HW275292  11.900  10.686   3.923  0.4050  0.5782  1.2430
52434SOL     OW75293   2.677   0.117   5.920  0.0746 -0.2033 -0.0559
52434SOL    HW175294   2.652   0.028   5.894  3.6877 -1.0825 -1.1281
52434SOL    HW275295   2.649   0.171   5.846 -3.9803  0.0858  1.4520
52435SOL     OW75296  12.267   7.439   1.147 -0.0107  0.1720  0.0404
52435SOL    HW175297  12.241   7.349   1.127  0.2686  0.3007 -0.9126
52435SOL    HW275298  12.361   7.441   1.133  0.5696 -0.1951  3.1450
52436SOL     OW75299   7.692  12.386  12.986  0.2612 -0.2394 -0.2975
52436SOL    HW175300   7.620  12.347  12.937 -0.9959 -0.8722  1.9040
52436SOL    HW275301   7.756  12.316  12.995 -1.3269 -1.5271  2.3404
52437SOL     OW75302   2.164   0.867  11.647  0.3613  0.3081  0.6385
52437SOL    HW175303   2.127   0.878  11.559 -0.8175 -1.1742  0.8984
52437SOL    HW275304   2.087   0.854  11.703  1.2199 -2.1586  1.3314
52438SOL     OW75305   5.283  11.648   4.914  0.4590 -0.2094 -0.5919
52438SOL    HW175306   5.365  11.611   4.883  0.6469 -0.0184 -0.3248
52438SOL    HW275307   5.239  11.679   4.835  0.8932  0.1914 -0.6829
52439SOL     OW75308   7.532   6.266   3.646 -0.5466 -0.5181 -0.0423
52439SOL    HW175309   7.567   6.179   3.630 -0.7238 -0.3152 -1.6994
52439SOL    HW275310   7.502   6.263   3.737 -0.6091 -2.1906 -0.0826
52440SOL     OW75311  10.968   6.449   9.650 -0.0118  0.2174  0.1813
52440SOL    HW175312  10.922   6.532   9.657  0.9437  1.0623 -2.4112
52440SOL    HW275313  11.061   6.471   9.655  0.2861 -0.5429 -1.2958
52441SOL     OW75314  12.785   6.274   7.671 -0.0695  0.0931  0.6515
52441SOL    HW175315  12.795   6.362   7.635 -0.0753  0.0783  0.6146
52441SOL    HW275316  12.746   6.223   7.600  0.8805 -0.1961  0.3251
52442SOL     OW75317  12.489   4.471   7.834  0.5457  0.3344  0.1622
52442SOL    HW175318  12.547   4.400   7.807  1.3186  0.1958  1.9922
52442SOL    HW275319  12.494   4.535   7.764  4.4867  1.1971  1.0248
52443SOL     OW75320  12.836  12.369   0.976 -0.0108  0.0958  0.0954
52443SOL    HW175321  12.883  12.330   1.049 -0.2742 -1.4898 -0.5419
52443SOL    HW275322  12.744  12.367   1.002  0.0430  1.1840  0.4331
52444SOL     OW75323   1.982  13.214   9.631  0.5637 -0.0063 -0.0038
52444SOL    HW175324   2.075  13.222   9.652  0.5902 -1.2938  0.4294
52444SOL    HW275325   1.979  13.169   9.547  0.3433  1.1348 -0.6276
52445SOL     OW75326   3.366   7.013   0.308 -0.2269 -0.4520 -0.4079
52445SOL    HW175327   3.291   7.054   0.266  0.0144 -1.0477 -1.4624
52445SOL    HW275328   3.329   6.937   0.353 -0.5779  0.5272  1.0133
52446SOL     OW75329  13.429   1.482   3.741  0.1003  0.0011 -0.0845
52446SOL    HW175330  13.396   1.435   3.818 -1.2530  1.2810  0.1656
52446SOL    HW275331  13.477   1.416   3.692  0.5207 -0.9947  1.5671
52447SOL     OW75332  12.746   4.365   1.863 -0.1825  0.1796 -0.0991
52447SOL    HW175333  12.723   4.351   1.955 -0.5623  0.7455 -0.1006
52447SOL    HW275334  12.677   4.423   1.830 -0.6000 -0.8110 -0.9975
52448SOL     OW75335   7.405  12.181  12.123  0.3052 -0.8575  0.5167
52448SOL    HW175336   7.356  12.112  12.078  1.9442 -2.3333  0.8859
52448SOL    HW275337   7.482  12.197  12.068 -0.9858  2.2169 -0.6332
52449SOL     OW75338   5.121   9.414   4.363  0.1051 -0.3769 -0.2734
52449SOL    HW175339   5.167   9.374   4.437 -0.3020  0.8954  0.7064
52449SOL    HW275340   5.178   9.486   4.336 -1.0845  1.0115  0.7461
52450SOL     OW75341  10.354   7.448   5.092  0.1503  0.3160  0.3647
52450SOL    HW175342  10.343   7.524   5.148 -0.1432 -0.2351  1.0635
52450SOL    HW275343  10.438   7.410   5.118  0.5369  0.6707 -0.3237
52451SOL     OW75344   9.604   7.523  13.811 -0.5915 -0.6482  0.2048
52451SOL    HW175345   9.681   7.477  13.779  0.0696  0.4593  0.1308
52451SOL    HW275346   9.591   7.490  13.900  0.9248  0.2532  0.8078
52452SOL     OW75347   7.323   2.676   6.315  0.0357  0.2370  0.2817
52452SOL    HW175348   7.388   2.734   6.355 -0.8611 -0.4584  3.0282
52452SOL    HW275349   7.239   2.712   6.344 -0.8763  0.9266 -2.9070
52453SOL     OW75350   0.713   5.582  13.380  0.5718 -0.5201 -0.0244
52453SOL    HW175351   0.760   5.665  13.391  1.6653 -0.9117 -1.3990
52453SOL    HW275352   0.783   5.517  13.373 -0.2617 -1.4566  0.2258
52454SOL     OW75353   5.970   2.887   3.337 -0.1366  0.3299 -0.2833
52454SOL    HW175354   5.913   2.880   3.414  0.9587  0.3527  0.5586
52454SOL    HW275355   5.912   2.870   3.263 -1.0338 -0.6466  0.5972
52455SOL     OW75356  12.311   0.717   9.978 -0.1145 -0.0006  0.2544
52455SOL    HW175357  12.242   0.660  10.013 -0.0756 -0.0632  0.2292
52455SOL    HW275358  12.352   0.755  10.056  0.4882 -0.7449  0.3091
52456SOL     OW75359   6.531   0.636   9.304 -0.4946  0.2559  0.1339
52456SOL    HW175360   6.560   0.679   9.385  1.5836 -0.0275 -0.4033
52456SOL    HW275361   6.468   0.570   9.334  0.7123 -0.3002  1.6375
52457SOL     OW75362   1.459   7.193  13.566 -0.0347  0.2066 -0.7071
52457SOL    HW175363   1.536   7.223  13.518 -0.3100 -1.4417 -2.3093
52457SOL    HW275364   1.413   7.136  13.504 -1.3884 -0.6112  0.9515
52458SOL     OW75365   6.363  11.675   9.784  0.6657  0.2599  0.2343
52458SOL    HW175366   6.372  11.600   9.726  1.4906  0.1887  0.4448
52458SOL    HW275367   6.271  11.673   9.812  0.6262 -0.5326  0.0603
52459SOL     OW75368   4.054  11.243   0.986 -0.3010  0.4626 -0.8143
52459SOL    HW175369   4.108  11.240   0.907 -0.8558  0.1664 -1.1881
52459SOL    HW275370   4.004  11.162   0.983  1.9731 -1.1854  1.5168
52460SOL     OW75371  12.960   8.010  10.679  0.4590  0.0019  0.0298
52460SOL    HW175372  12.867   7.991  10.665  0.7221 -0.4379 -1.3198
52460SOL    HW275373  12.964   8.051  10.765 -0.9488 -0.2297  0.2259
52461SOL     OW75374   8.291   5.889   9.549 -0.2680 -0.3072 -0.5983
52461SOL    HW175375   8.356   5.830   9.510 -1.1462 -0.8246 -1.3253
52461SOL    HW275376   8.252   5.838   9.620  0.3992  0.1518  0.1042
52462SOL     OW75377   5.782   8.308   0.985 -0.2408  0.0949  0.1713
52462SOL    HW175378   5.848   8.343   0.925  0.9911 -1.5260  0.5107
52462SOL    HW275379   5.709   8.283   0.929 -0.1194  0.8650 -0.3473
52463SOL     OW75380   3.882  12.366   6.915  0.6741  0.5284  0.0557
52463SOL    HW175381   3.874  12.434   6.848  0.8574  0.4926 -0.0039
52463SOL    HW275382   3.834  12.292   6.879  0.4452  0.6382  0.1358
52464SOL     OW75383   2.119   5.205   7.596 -0.4450 -0.5554 -0.3205
52464SOL    HW175384   2.095   5.253   7.517 -1.2481  0.6325  0.5973
52464SOL    HW275385   2.042   5.213   7.653  0.3830 -0.7357  0.8748
52465SOL     OW75386   0.663   8.636   8.862  0.4130 -0.4288 -0.1317
52465SOL    HW175387   0.746   8.678   8.886  0.9021 -1.6482  0.4362
52465SOL    HW275388   0.668   8.549   8.904 -0.3611 -1.1994 -1.5652
52466SOL     OW75389   0.962  12.670   6.567  0.4193 -0.3411 -0.3233
52466SOL    HW175390   0.927  12.602   6.509  1.5773 -0.3003 -1.1253
52466SOL    HW275391   0.949  12.636   6.655 -2.4987  0.1177 -0.4735
52467SOL     OW75392   9.462  13.228   2.973 -0.3050  0.3362 -0.5989
52467SOL    HW175393   9.423  13.212   3.059 -1.8721 -2.3190 -1.6877
52467SOL    HW275394   9.400  13.287   2.929 -2.0039 -1.9084 -1.4274
52468SOL     OW75395  12.695  13.590   7.272 -0.1800  0.1075 -0.2011
52468SOL    HW175396  12.655  13.515   7.316  0.6683 -0.2519 -0.0179
52468SOL    HW275397  12.737  13.552   7.194  2.7404 -0.1616  1.3522
52469SOL     OW75398   9.675   8.479  13.805 -0.0905 -0.0103  0.2130
52469SOL    HW175399   9.587   8.444  13.813 -0.4238  1.2376  2.8075
52469SOL    HW275400   9.731   8.417  13.851  0.1455  0.0478  0.0104
52470SOL     OW75401  12.723   5.409  11.013  0.0949 -0.2821 -0.7100
52470SOL    HW175402  12.643   5.444  10.974 -1.2340 -2.7224 -0.3372
52470SOL    HW275403  12.785   5.406  10.940 -0.5021  0.5869 -1.2798
52471SOL     OW75404   3.440   7.649   5.757  0.2604  0.7294  0.0116
52471SOL    HW175405   3.392   7.718   5.803  0.8264  0.2105  1.4255
52471SOL    HW275406   3.530   7.657   5.789 -0.0925 -2.1722  2.1588
52472SOL     OW75407   3.923  12.225   1.918  0.7260  0.1273  0.1735
52472SOL    HW175408   3.919  12.265   2.005  2.2543 -0.1032  0.3854
52472SOL    HW275409   3.872  12.144   1.926 -2.1703  1.7781 -0.1874
52473SOL     OW75410   2.173   9.708  13.749  0.3341 -0.4036  1.3130
52473SOL    HW175411   2.206   9.798  13.753  1.7119 -0.8468  0.5309
52473SOL    HW275412   2.247   9.656  13.718 -0.7622 -1.6430  0.6192
52474SOL     OW75413  11.871  11.730   6.576  0.0900  0.0123  0.3292
52474SOL    HW175414  11.964  11.742   6.558  0.2695  1.7713  2.0258
52474SOL    HW275415  11.869  11.678   6.656 -0.2652  1.5443  1.3702
52475SOL     OW75416  13.926   2.565   1.843 -0.3815 -0.1176 -0.5519
52475SOL    HW175417  13.915   2.470   1.843  3.3013 -0.7786  2.0015
52475SOL    HW275418  13.851   2.599   1.891 -1.4483 -1.7881 -0.9630
52476SOL     OW75419   8.911   0.946   5.446 -0.0486 -0.1425 -0.4123
52476SOL    HW175420   8.895   1.040   5.459  0.8563  0.0812 -0.8214
52476SOL    HW275421   8.955   0.918   5.526 -0.3453 -0.2345 -0.2777
52477SOL     OW75422   4.511   1.383   1.146  0.5117 -0.1915  0.1313
52477SOL    HW175423   4.593   1.432   1.151 -0.3561  1.2738  0.5548
52477SOL    HW275424   4.503   1.359   1.053 -0.4352  3.0947 -0.7952
52478SOL     OW75425   0.678   0.953   1.261 -0.0892  0.4008  0.1500
52478SOL    HW175426   0.620   1.029   1.271 -0.3260  0.9768 -3.9341
52478SOL    HW275427   0.638   0.901   1.192  1.4773 -2.1512  1.0262
52479SOL     OW75428   6.685  12.325   3.570 -0.4756 -0.6240 -0.7429
52479SOL    HW175429   6.626  12.250   3.565 -2.8694  0.9682  1.3193
52479SOL    HW275430   6.629  12.402   3.559  1.0876  1.0063  1.5302
52480SOL     OW75431   9.511  12.915  10.297 -0.2713  0.2286  0.0209
52480SOL    HW175432   9.424  12.902  10.258  0.6925 -0.2095 -2.0870
52480SOL    HW275433   9.492  12.933  10.390 -2.5234 -1.1977 -0.0739
52481SOL     OW75434   9.041  12.660  12.858 -0.1447 -0.5212 -0.6616
52481SOL    HW175435   9.077  12.749  12.856  0.2472 -0.6681 -0.1894
52481SOL    HW275436   9.066  12.625  12.943  1.3029 -1.7468 -1.5383
52482SOL     OW75437  13.935  13.426   2.779 -0.0905 -0.2313  0.5258
52482SOL    HW175438  13.905  13.350   2.728  1.2909 -0.5148  0.0735
52482SOL    HW275439  13.985  13.479   2.716  2.3035 -0.9607  1.6695
52483SOL     OW75440  11.744   0.965   0.958  0.4748  0.4078 -0.2701
52483SOL    HW175441  11.838   0.966   0.975  0.4067  0.5070  0.1164
52483SOL    HW275442  11.724   1.056   0.935  0.9332 -0.1030 -3.0171
52484SOL     OW75443   7.908  12.370  13.638 -0.3104 -0.2087  0.1511
52484SOL    HW175444   7.929  12.277  13.640 -1.8957 -0.5744  0.3566
52484SOL    HW275445   7.816  12.376  13.664 -0.4305  1.3606 -0.4894
52485SOL     OW75446  11.557   7.638  11.727 -0.1423 -0.0949  0.0892
52485SOL    HW175447  11.574   7.675  11.641 -2.8187  0.8367 -0.1081
52485SOL    HW275448  11.483   7.688  11.761  1.0155 -0.2061  3.0982
52486SOL     OW75449  10.278   2.034  11.095  0.1727  1.0404  0.6806
52486SOL    HW175450  10.236   2.079  11.169  0.3140  1.6948  0.3637
52486SOL    HW275451  10.252   2.085  11.019 -0.4645  0.0272  0.1958
52487SOL     OW75452   5.068   2.763   9.378  0.3423  0.3953 -0.0857
52487SOL    HW175453   5.035   2.806   9.298  0.1154  0.4564  0.0408
52487SOL    HW275454   5.094   2.676   9.349 -0.0802  0.2878 -0.1568
52488SOL     OW75455   7.720  13.685   3.609 -1.0344 -0.0802 -0.4832
52488SOL    HW175456   7.654  13.753   3.594 -0.6932  0.9360  2.0970
52488SOL    HW275457   7.670  13.607   3.631 -1.3974  0.0118 -0.9587
52489SOL     OW75458  10.171   3.046  13.838  0.5161  0.3230  0.2901
52489SOL    HW175459  10.251   3.084  13.801  1.3573  0.3623  1.9988
52489SOL    HW275460  10.100   3.080  13.784  1.6260  0.4730 -1.1380
52490SOL     OW75461   9.284   9.255   4.825 -0.5349  0.3972 -0.0955
52490SOL    HW175462   9.359   9.315   4.823  0.3077 -0.5474  1.2876
52490SOL    HW275463   9.276   9.224   4.734  0.2282  1.1298 -0.4320
52491SOL     OW75464  11.058   2.431   1.441  0.0075  0.3890 -0.3263
52491SOL    HW175465  10.966   2.406   1.434  0.3861 -0.9130 -1.1224
52491SOL    HW275466  11.066   2.474   1.526 -1.0886 -0.5964  0.2952
52492SOL     OW75467   6.234   0.650   1.374  0.3096  0.3287  0.4974
52492SOL    HW175468   6.199   0.734   1.344 -1.1651 -0.6849 -0.7603
52492SOL    HW275469   6.259   0.604   1.294  1.0553 -0.4618  1.1630
52493SOL     OW75470  12.577   2.139   1.319  0.6803 -0.4319 -0.0920
52493SOL    HW175471  12.660   2.159   1.361 -0.4592  0.3131  1.9238
52493SOL    HW275472  12.549   2.222   1.281 -0.4833  0.1040  1.7919
52494SOL     OW75473  14.107  11.575   0.366  0.1046  0.0901  0.1024
52494SOL    HW175474  14.158  11.586   0.286 -0.7902 -1.5910 -0.7723
52494SOL    HW275475  14.151  11.629   0.431  2.5442 -0.7009 -0.7935
52495SOL     OW75476   5.213   8.628  12.618 -0.0039  0.1839 -0.4536
52495SOL    HW175477   5.192   8.605  12.527 -0.0547  0.9452 -0.6411
52495SOL    HW275478   5.226   8.723  12.616 -0.9157  0.3459  0.5074
52496SOL     OW75479   1.901   9.172   0.268  0.0834 -0.1274 -0.2073
52496SOL    HW175480   1.841   9.164   0.342  0.5430 -0.4925  0.1316
52496SOL    HW275481   1.847   9.155   0.191 -0.4449  0.4681  0.0220
52497SOL     OW75482   3.126   2.715   9.374  0.4936  0.1983  0.0668
52497SOL    HW175483   3.093   2.630   9.344  1.4504  0.2042 -1.0796
52497SOL    HW275484   3.217   2.698   9.398  0.5049  0.7717  0.4485
52498SOL     OW75485  12.012   3.621   0.241  0.0441  0.0530 -0.3046
52498SOL    HW175486  12.076   3.552   0.254 -1.0122 -0.5665  2.1121
52498SOL    HW275487  11.934   3.576   0.209  0.0033  0.4564 -0.7936
52499SOL     OW75488   4.301  12.196  11.708 -0.0482  0.1719  0.1546
52499SOL    HW175489   4.371  12.231  11.652  0.0999 -1.2933 -0.6286
52499SOL    HW275490   4.338  12.117  11.746 -0.8696  0.0490  0.7237
52500SOL     OW75491  10.567   4.735   4.607  0.0328  0.2600  0.0739
52500SOL    HW175492  10.536   4.667   4.547 -1.2418 -0.3893  1.3978
52500SOL    HW275493  10.569   4.815   4.554 -5.1034  0.6816 -0.0382
52501SOL     OW75494   3.381   0.303  13.739 -0.3088 -0.0322  0.6664
52501SOL    HW175495   3.428   0.378  13.703  1.6169 -1.8479 -0.8031
52501SOL    HW275496   3.289   0.322  13.719  0.3219  0.9404 -1.6456
52502SOL     OW75497   6.478   2.766  10.507 -0.4856  0.3390  0.7234
52502SOL    HW175498   6.449   2.694  10.562 -0.2244 -0.2052  0.1518
52502SOL    HW275499   6.397   2.807  10.477 -0.6852 -1.1031 -0.7715
52503SOL     OW75500   6.500   5.320   2.945 -0.2208 -0.1293  0.4123
52503SOL    HW175501   6.487   5.241   2.996 -1.7747  0.3589  0.8307
52503SOL    HW275502   6.570   5.367   2.990  0.4853 -1.1073  0.3411
52504SOL     OW75503   5.217   2.919   2.882 -0.3471 -0.1906  0.2406
52504SOL    HW175504   5.182   3.008   2.886  0.2661  0.0039  1.9727
52504SOL    HW275505   5.312   2.930   2.887 -0.1426 -0.8667 -1.5659
52505SOL     OW75506   1.584  14.154   0.211 -0.2038 -0.0143  0.1490
52505SOL    HW175507   1.551  14.198   0.289  0.3339  1.9762 -0.6817
52505SOL    HW275508   1.657  14.100   0.243  1.1385  2.1100  0.8339
52506SOL     OW75509   9.859   2.904   7.328  0.7920  0.1783 -0.0966
52506SOL    HW175510   9.942   2.856   7.319  0.4345 -0.6685  0.9636
52506SOL    HW275511   9.879   2.977   7.386  0.4269 -1.0142  1.5877
52507SOL     OW75512   1.425  13.676  10.884  0.0624  0.0729 -0.0893
52507SOL    HW175513   1.396  13.752  10.834 -0.5436  0.5441  0.9367
52507SOL    HW275514   1.466  13.714  10.962 -1.9084 -0.6050  1.3661
52508SOL     OW75515  11.372   5.761   8.122  0.4927 -0.1346  0.1373
52508SOL    HW175516  11.347   5.749   8.030 -0.4411 -0.3252  0.3973
52508SOL    HW275517  11.382   5.856   8.132  2.8745 -0.2395 -0.7002
52509SOL     OW75518   3.769  10.176  10.201  0.2036 -0.2308 -0.4368
52509SOL    HW175519   3.837  10.177  10.134  1.1821  0.7501  0.5303
52509SOL    HW275520   3.765  10.266  10.233  0.1895 -0.7852  1.2240
52510SOL     OW75521   4.223  11.937  10.788  0.0742 -0.2253 -0.2121
52510SOL    HW175522   4.304  11.975  10.752  0.3414  0.6552  1.2757
52510SOL    HW275523   4.196  11.997  10.857 -1.3785 -0.9837 -0.0874
52511SOL     OW75524   5.650   4.944   4.042  0.3680  0.1804 -0.1825
52511SOL    HW175525   5.572   4.892   4.023 -0.7669  1.5706  0.5433
52511SOL    HW275526   5.640   5.024   3.990  0.4519  1.1213  1.1885
52512SOL     OW75527   5.608   9.043   9.962  0.1767 -0.0509 -0.1160
52512SOL    HW175528   5.598   9.137   9.971 -0.1121  0.0054 -0.9674
52512SOL    HW275529   5.525   9.006   9.992 -0.0050  0.0166 -0.5263
52513SOL     OW75530  11.967   7.768   1.375  0.2215  0.0789  0.0573
52513SOL    HW175531  11.977   7.787   1.282 -2.3407 -2.2222 -0.8373
52513SOL    HW275532  12.037   7.705   1.395 -0.9116 -1.6512 -1.1590
52514SOL     OW75533   9.365  12.036   3.427 -0.1324  0.2626  0.5068
52514SOL    HW175534   9.336  12.047   3.517  0.9948 -2.2572  1.2983
52514SOL    HW275535   9.414  12.115   3.407  0.8953  0.2572  2.6997
52515SOL     OW75536   7.212  11.898   3.558 -0.5443 -0.1160 -0.0094
52515SOL    HW175537   7.273  11.919   3.628  1.3010  0.2838 -1.6357
52515SOL    HW275538   7.171  11.816   3.585  0.2069 -0.0429  1.4428
52516SOL     OW75539  10.017   0.933  10.585 -0.1651  0.3672 -0.2611
52516SOL    HW175540   9.990   0.861  10.527  0.3334 -0.3152  0.3277
52516SOL    HW275541  10.076   0.891  10.648  0.6557  1.4390 -0.3050
52517SOL     OW75542   7.988  13.967   7.476 -0.3820 -0.0044  0.2919
52517SOL    HW175543   7.933  14.044   7.496 -0.4560  0.2178 -0.7274
52517SOL    HW275544   7.951  13.932   7.395 -0.6614 -1.4352  1.0083
52518SOL     OW75545   9.782   8.440   7.356  0.2335 -0.5035 -0.2301
52518SOL    HW175546   9.703   8.394   7.384  0.7305 -2.0421 -1.2290
52518SOL    HW275547   9.845   8.427   7.428 -0.1103 -0.0591  0.1582
52519SOL     OW75548  10.836   7.986   1.290 -0.0431 -0.1868  0.5794
52519SOL    HW175549  10.781   8.023   1.221  1.1971 -1.6163 -1.2393
52519SOL    HW275550  10.925   8.007   1.264  0.6535 -3.2881  0.0933
52520SOL     OW75551   5.651   9.373  10.809  0.3837  0.0765 -0.3041
52520SOL    HW175552   5.690   9.437  10.868 -0.5687  0.5216 -0.1264
52520SOL    HW275553   5.675   9.288  10.845  2.8713  0.2617 -1.3353
52521SOL     OW75554   4.187  10.945   4.275  0.1922 -0.3524  0.8441
52521SOL    HW175555   4.128  11.020   4.264  1.1764  0.4292  0.7080
52521SOL    HW275556   4.176  10.920   4.367  1.1404  1.1074  1.3939
52522SOL     OW75557  13.167   5.123   2.476 -0.8293 -0.0683 -0.0899
52522SOL    HW175558  13.120   5.150   2.555 -0.4966  0.2933 -0.0116
52522SOL    HW275559  13.245   5.179   2.475  0.9546 -2.3490  1.1621
52523SOL     OW75560  10.728   3.944   6.741 -0.1879  0.3271  0.4594
52523SOL    HW175561  10.662   3.964   6.676 -0.3190 -3.8044 -0.9640
52523SOL    HW275562  10.809   3.934   6.691  0.2907 -0.1928  1.3047
52524SOL     OW75563   6.090   5.997   2.440  0.1919 -0.0673  0.0472
52524SOL    HW175564   6.007   5.964   2.473  0.9189  0.0297  2.1307
52524SOL    HW275565   6.146   5.920   2.431  0.4046  0.0553  0.3008
52525SOL     OW75566   0.588   0.802   3.082 -0.0339  0.1288  0.4050
52525SOL    HW175567   0.613   0.803   3.175  0.5049  1.4330  0.2679
52525SOL    HW275568   0.597   0.893   3.054 -2.2717  0.1624 -0.3988
52526SOL     OW75569  13.810  12.148   0.622 -0.0476 -0.1750 -0.0376
52526SOL    HW175570  13.738  12.085   0.616  0.9522 -1.3330 -0.5350
52526SOL    HW275571  13.871  12.108   0.684  0.4332  0.4970 -0.0686
52527SOL     OW75572   4.617  13.405   2.249 -0.1255  0.0311  0.1460
52527SOL    HW175573   4.574  13.360   2.323 -0.9716  0.8694  0.1800
52527SOL    HW275574   4.705  13.424   2.281 -0.0386 -0.7962  0.4494
52528SOL     OW75575   7.422   0.019   5.778 -0.0759  0.2458 -0.1392
52528SOL    HW175576   7.386   0.037   5.865  0.3535 -2.1573  0.6335
52528SOL    HW275577   7.484   0.089   5.762 -0.3818  0.8966  1.3712
52529SOL     OW75578  11.923  10.205   5.508 -0.2007  0.0861  0.3340
52529SOL    HW175579  11.972  10.125   5.489 -1.2521 -0.5721  0.3105
52529SOL    HW275580  11.961  10.271   5.450  0.5648 -0.4278  0.2305
52530SOL     OW75581   6.502   3.141  13.541 -0.4484 -0.2691  0.3709
52530SOL    HW175582   6.407   3.136  13.535 -0.4203 -0.5460  0.1552
52530SOL    HW275583   6.533   3.054  13.518 -0.1614 -0.3223  0.9328
52531SOL     OW75584   8.934   0.360   3.261  0.2577 -0.3804  0.0515
52531SOL    HW175585   8.843   0.348   3.289 -0.1715  2.7894  0.2952
52531SOL    HW275586   8.929   0.362   3.165 -0.0540  0.4063  0.0766
52532SOL     OW75587   0.123   7.424   4.483  0.4457 -0.2467  0.1304
52532SOL    HW175588   0.058   7.388   4.544 -0.8422 -1.1964 -1.7024
52532SOL    HW275589   0.204   7.377   4.504 -0.4015 -1.8618 -0.0244
52533SOL     OW75590   8.590   0.414   9.212  0.0308  0.0659 -0.4492
52533SOL    HW175591   8.650   0.438   9.283 -0.6823 -1.2901  0.6622
52533SOL    HW275592   8.647   0.379   9.144  0.6683  0.7179 -0.2706
52534SOL     OW75593  10.802  13.803  12.505  0.1855  0.4219  0.0908
52534SOL    HW175594  10.860  13.870  12.470  1.1584 -0.5606 -0.2572
52534SOL    HW275595  10.860  13.742  12.549 -0.6455 -0.3050  0.2147
52535SOL     OW75596   7.968   5.105   8.829  0.0898 -0.0306  0.0568
52535SOL    HW175597   7.984   5.011   8.827 -0.8151 -0.1936  0.3306
52535SOL    HW275598   8.055   5.144   8.817  0.4585 -0.8945 -0.1409
52536SOL     OW75599   4.287   7.025  10.858 -0.1607  0.0395 -0.3721
52536SOL    HW175600   4.373   7.051  10.890 -0.0042  0.7841 -1.3556
52536SOL    HW275601   4.288   7.046  10.765 -2.0313  1.7692 -0.0674
52537SOL     OW75602   7.788   0.781   4.461 -0.4725 -0.4830  0.1910
52537SOL    HW175603   7.750   0.866   4.440 -0.0637  0.1248  1.7969
52537SOL    HW275604   7.734   0.718   4.413  0.8596  0.7823 -3.2517
52538SOL     OW75605   0.736   3.013   5.196 -0.2195  0.2261 -0.3066
52538SOL    HW175606   0.644   3.037   5.183  0.2211  1.4060 -1.5257
52538SOL    HW275607   0.747   3.010   5.291 -1.2866  1.0194 -0.1362
52539SOL     OW75608  11.239   7.832   6.374 -0.3479 -0.6883  0.4788
52539SOL    HW175609  11.309   7.825   6.309  0.5791 -1.4342  1.5131
52539SOL    HW275610  11.163   7.793   6.331 -0.9736  2.5405 -1.6952
52540SOL     OW75611  14.109   1.915   5.868 -0.0947  0.5395 -0.1667
52540SOL    HW175612  14.159   1.855   5.925 -1.6336 -0.8397 -0.1991
52540SOL    HW275613  14.083   1.987   5.925 -0.3356 -0.0786  0.5184
52541SOL     OW75614   6.238   2.235   8.921 -0.4090  0.3551  0.0605
52541SOL    HW175615   6.316   2.276   8.883 -0.1990  1.3955  1.5481
52541SOL    HW275616   6.261   2.142   8.925  0.7391  0.6237  0.3413
52542SOL     OW75617   9.806   0.309   5.733 -0.3612  0.4782 -0.1203
52542SOL    HW175618   9.721   0.348   5.713 -0.6355 -0.1974 -0.3183
52542SOL    HW275619   9.827   0.255   5.657  0.4226  0.9149 -0.2284
52543SOL     OW75620   6.630   4.490  14.040  0.1316  0.2641 -0.2364
52543SOL    HW175621   6.613   4.489  13.946  2.4367  0.3317 -0.7146
52543SOL    HW275622   6.722   4.464  14.048 -0.2882 -0.7452  2.0839
52544SOL     OW75623   1.889  12.094   3.370  0.1832 -0.2897  0.3001
52544SOL    HW175624   1.841  12.141   3.303 -0.6590 -0.9616  0.4155
52544SOL    HW275625   1.938  12.161   3.417  1.1238  0.1408 -1.2437
52545SOL     OW75626  11.261   4.340   1.505  0.3094  0.1845 -0.4046
52545SOL    HW175627  11.273   4.432   1.481 -0.6202  0.2155 -0.7780
52545SOL    HW275628  11.172   4.335   1.539  0.2430 -0.6401 -0.6790
52546SOL     OW75629   8.902   3.331   6.227  0.4132 -0.4360  0.3151
52546SOL    HW175630   8.886   3.346   6.320 -0.0330  0.2022  0.1452
52546SOL    HW275631   8.995   3.352   6.215  0.7176 -1.4808  0.7957
52547SOL     OW75632   0.917   1.051   0.601 -0.0055  0.2457 -0.4560
52547SOL    HW175633   0.899   1.077   0.691  3.5232 -0.8043  0.7135
52547SOL    HW275634   1.012   1.058   0.593 -0.1329 -0.3582 -3.9164
52548SOL     OW75635   9.551  13.941   4.310 -0.6342 -0.2029  0.2255
52548SOL    HW175636   9.606  13.968   4.236  0.2584  0.0899  0.9831
52548SOL    HW275637   9.520  13.854   4.286  0.3187 -0.4560 -0.1324
52549SOL     OW75638  10.574   1.093  10.850  0.3003 -0.4171  0.0980
52549SOL    HW175639  10.597   1.004  10.825 -0.6226 -0.6453  0.0183
52549SOL    HW275640  10.569   1.090  10.946  0.9431 -0.2786  0.1369
52550SOL     OW75641   0.012   4.167   1.849 -0.6672 -0.3111 -1.0350
52550SOL    HW175642  -0.069   4.214   1.870 -0.0391  0.6191 -0.6293
52550SOL    HW275643   0.026   4.186   1.756 -0.1953  0.6862 -0.7751
52551SOL     OW75644   8.109  13.751   2.149 -0.4656 -0.2324 -0.6553
52551SOL    HW175645   8.030  13.799   2.173 -0.0626 -0.1110  0.5334
52551SOL    HW275646   8.078  13.666   2.120 -0.9772 -0.8035  1.4121
52552SOL     OW75647  12.969   5.022   0.491  0.5285 -0.1193  0.3484
52552SOL    HW175648  13.031   5.005   0.562  1.1567 -2.6273 -0.6873
52552SOL    HW275649  13.010   4.984   0.414 -1.5687 -0.3776 -0.7036
52553SOL     OW75650   6.193   9.873   1.861  0.1279  0.0799 -0.4291
52553SOL    HW175651   6.209   9.937   1.931  0.2295 -1.0820  0.6317
52553SOL    HW275652   6.223   9.790   1.896 -0.9602 -0.7576 -1.3955
52554SOL     OW75653  12.640   4.025   4.069 -0.0733 -0.5701  0.6699
52554SOL    HW175654  12.730   4.002   4.092  0.9814  1.3505 -1.2416
52554SOL    HW275655  12.610   3.953   4.013 -0.1409 -1.7212  2.1306
52555SOL     OW75656   3.510  14.088   4.169 -0.0412 -0.0548 -0.4912
52555SOL    HW175657   3.485  13.997   4.184 -1.9693  0.4451 -0.4445
52555SOL    HW275658   3.464  14.113   4.089  1.1879  0.6399 -1.0134
52556SOL     OW75659   8.934  10.151   9.362 -0.5515  0.0615 -0.2245
52556SOL    HW175660   8.921  10.065   9.321 -2.3340 -0.0402  0.4575
52556SOL    HW275661   8.937  10.212   9.288  0.1682 -0.5182 -0.6835
52557SOL     OW75662  10.232   0.005  10.167 -0.3057 -0.1116  0.1272
52557SOL    HW175663  10.289  -0.052  10.116 -0.7245 -0.9471  0.5746
52557SOL    HW275664  10.157  -0.050  10.191 -0.5344  0.5059  0.8959
52558SOL     OW75665   2.396  10.445   9.769  0.1517  0.3047  0.3538
52558SOL    HW175666   2.374  10.451   9.676 -2.3402 -1.2710  0.7628
52558SOL    HW275667   2.312  10.434   9.813  1.1769  2.0784  2.9408
52559SOL     OW75668  11.174   3.375   9.892  0.3562  0.6078  0.1775
52559SOL    HW175669  11.178   3.428   9.812 -2.8162  1.5531  0.5024
52559SOL    HW275670  11.264   3.375   9.925  2.1394 -0.9205 -3.9674
52560SOL     OW75671   4.002  13.509   4.953 -0.6880 -0.7846 -0.1219
52560SOL    HW175672   4.042  13.434   4.998  2.4643  0.2480 -0.9254
52560SOL    HW275673   3.990  13.575   5.021 -0.2650 -0.8560  0.0264
52561SOL     OW75674   3.488   7.833   8.642  0.2981 -0.7958  0.0857
52561SOL    HW175675   3.556   7.900   8.648 -0.9842  0.8183 -2.0941
52561SOL    HW275676   3.438   7.843   8.723  1.3935 -0.6194  0.7696
52562SOL     OW75677  13.358  11.273   1.254  0.3393 -0.4712 -0.0217
52562SOL    HW175678  13.311  11.335   1.310  1.7890 -0.3623  1.1493
52562SOL    HW275679  13.319  11.284   1.168 -1.9953 -0.6482  0.9471
52563SOL     OW75680   6.501   6.811   4.530  0.3851 -0.3458  0.3991
52563SOL    HW175681   6.433   6.801   4.463  0.5950 -1.5791  0.3548
52563SOL    HW275682   6.472   6.756   4.603 -1.2866  3.0511  2.5842
52564SOL     OW75683   4.986   2.309  10.432 -0.4232  0.1660 -0.7252
52564SOL    HW175684   5.058   2.329  10.491 -0.6166 -0.6613 -0.1935
52564SOL    HW275685   4.912   2.288  10.489 -1.4210  2.0398 -1.2524
52565SOL     OW75686   2.849  12.412   6.592 -0.1252  0.2629  0.0209
52565SOL    HW175687   2.767  12.414   6.543  0.7918  0.6590 -1.5753
52565SOL    HW275688   2.822  12.395   6.683 -1.9774  0.7254 -0.3936
52566SOL     OW75689   4.117   2.411  13.099 -0.0765 -0.2141  0.3129
52566SOL    HW175690   4.090   2.340  13.041  0.3524 -1.5456  1.6844
52566SOL    HW275691   4.142   2.482  13.039  0.2475 -1.4844 -1.1311
52567SOL     OW75692   8.872   2.917   0.704  0.1236 -0.0371  0.3575
52567SOL    HW175693   8.938   2.867   0.753  1.8013  3.1164  1.5658
52567SOL    HW275694   8.823   2.965   0.771 -0.8489  0.6273 -0.7847
52568SOL     OW75695   4.695  12.784   1.929  0.7098 -0.0095 -0.0113
52568SOL    HW175696   4.777  12.759   1.973  0.4563 -0.0931  0.4160
52568SOL    HW275697   4.714  12.774   1.836  0.8662 -1.0308  0.1150
52569SOL     OW75698   8.796   6.657   9.886 -0.1034  0.2075 -0.1350
52569SOL    HW175699   8.729   6.591   9.907 -2.3392  1.9717 -1.3328
52569SOL    HW275700   8.803   6.654   9.790  0.9816  0.6172 -0.0848
52570SOL     OW75701   7.055  12.158  12.436 -0.2319  0.1073  0.4754
52570SOL    HW175702   6.996  12.162  12.512  0.0588 -2.2082  0.8985
52570SOL    HW275703   7.079  12.249  12.420 -1.1907  0.7823  2.4654
52571SOL     OW75704   1.372   0.612   1.467 -0.1431  0.2048 -0.0293
52571SOL    HW175705   1.454   0.565   1.481 -0.5524 -1.0773 -1.5952
52571SOL    HW275706   1.393   0.679   1.402 -0.5060 -0.8218 -1.2624
52572SOL     OW75707   4.480   8.269  11.061  0.3478 -0.2759 -0.0826
52572SOL    HW175708   4.501   8.257  10.968 -1.0580  0.8820 -0.5748
52572SOL    HW275709   4.412   8.204  11.079 -0.4049  0.4455 -0.2585
52573SOL     OW75710   4.386   8.183  13.972 -0.5321  0.0763  0.4332
52573SOL    HW175711   4.339   8.100  13.985  2.7122 -1.9698  0.1378
52573SOL    HW275712   4.437   8.194  14.052  1.1360  0.2995 -0.6170
52574SOL     OW75713   0.790   7.542  11.240 -0.5575  0.2338  0.1402
52574SOL    HW175714   0.874   7.581  11.215  0.7338 -1.9374  0.7868
52574SOL    HW275715   0.767   7.486  11.166 -1.1829  0.4229  0.1868
52575SOL     OW75716  12.313  12.197   3.073  0.6490 -0.1728  0.7762
52575SOL    HW175717  12.277  12.282   3.098 -0.5062 -0.7582  1.1442
52575SOL    HW275718  12.354  12.164   3.153 -1.2382 -1.1214  1.4106
52576SOL     OW75719   2.729   3.565  13.297 -0.0662 -0.1104  0.1062
52576SOL    HW175720   2.715   3.656  13.271 -0.5587 -0.0749  0.4656
52576SOL    HW275721   2.641   3.532  13.316 -0.0573 -1.1004 -1.3990
52577SOL     OW75722  12.817   8.929   9.091  0.5224 -0.7599  0.0871
52577SOL    HW175723  12.880   8.968   9.152 -1.5107  1.8616  0.6656
52577SOL    HW275724  12.761   9.001   9.064 -1.7481 -2.7968 -1.0649
52578SOL     OW75725   4.155   4.659   4.508 -0.4574  0.0474 -0.5329
52578SOL    HW175726   4.126   4.638   4.596 -0.3009 -0.3272 -0.5702
52578SOL    HW275727   4.130   4.583   4.455  2.2173 -1.1597 -0.2206
52579SOL     OW75728   4.400   6.790   5.321 -0.5504  0.1775 -0.1833
52579SOL    HW175729   4.352   6.707   5.320 -0.1925 -0.0352 -0.1628
52579SOL    HW275730   4.424   6.805   5.230 -0.6931  0.3028 -0.1995
52580SOL     OW75731  11.284   1.141   2.122  0.3646 -0.8937 -0.2514
52580SOL    HW175732  11.211   1.170   2.176 -0.0019 -0.0427 -1.1738
52580SOL    HW275733  11.297   1.049   2.146 -1.8249 -1.4358 -0.9433
52581SOL     OW75734  10.789  12.940   4.847  0.1391  0.1044  0.2031
52581SOL    HW175735  10.838  13.008   4.801 -0.5265  0.8332  0.5499
52581SOL    HW275736  10.835  12.859   4.826  1.5181  0.7643  0.5452
52582SOL     OW75737  12.720   9.278   4.351 -0.5058  0.1603 -0.5957
52582SOL    HW175738  12.700   9.240   4.437 -0.0091  1.7524  0.2814
52582SOL    HW275739  12.704   9.207   4.289 -0.7576 -1.0876  0.8182
52583SOL     OW75740   9.013  12.236  12.088  0.0801  0.0680 -0.5156
52583SOL    HW175741   9.046  12.147  12.096 -0.3952 -0.2689 -1.9930
52583SOL    HW275742   8.975  12.256  12.174 -2.6086 -2.3271 -1.0052
52584SOL     OW75743   3.366  11.378   4.516  0.2577 -0.2773 -0.0244
52584SOL    HW175744   3.337  11.443   4.580  0.7507  1.0318 -1.0732
52584SOL    HW275745   3.306  11.305   4.527 -0.8544  0.6940  0.6299
52585SOL     OW75746   3.789   9.639   6.764 -0.3890  0.0342 -0.4241
52585SOL    HW175747   3.867   9.586   6.748 -1.2786 -0.5890 -3.5179
52585SOL    HW275748   3.782   9.645   6.859  2.3724 -1.4186 -0.0340
52586SOL     OW75749   7.792   7.908   4.953 -0.3544 -0.6168 -0.3286
52586SOL    HW175750   7.863   7.970   4.967 -1.2722  0.2036  0.8415
52586SOL    HW275751   7.740   7.911   5.033 -2.3069 -0.4134 -1.5243
52587SOL     OW75752   8.907   2.789  12.512  0.4212 -0.6128 -0.2057
52587SOL    HW175753   8.817   2.792  12.479  0.4576  1.3656 -0.2728
52587SOL    HW275754   8.954   2.737  12.448  0.0192  1.2791 -2.1312
52588SOL     OW75755   2.509   0.955  12.508 -0.0389 -0.0153  0.5549
52588SOL    HW175756   2.527   1.009  12.585  0.6238  0.1026  0.3213
52588SOL    HW275757   2.515   1.015  12.434 -0.6785 -0.1274  0.4045
52589SOL     OW75758   8.478   9.748   7.874  0.2012  0.3699  0.3498
52589SOL    HW175759   8.564   9.735   7.833  0.5855 -0.6509  1.4446
52589SOL    HW275760   8.479   9.839   7.903 -0.0137  1.0830 -1.6954
52590SOL     OW75761   7.214  11.904   2.458  0.4923  0.2976 -0.4603
52590SOL    HW175762   7.290  11.958   2.477  0.4994 -0.1526  0.9556
52590SOL    HW275763   7.203  11.910   2.364  0.9966  2.0735 -0.4443
52591SOL     OW75764   7.764   0.695   0.710 -0.0281  0.2175  0.0559
52591SOL    HW175765   7.817   0.654   0.778 -1.4358 -2.3173 -0.2076
52591SOL    HW275766   7.673   0.681   0.739 -0.6353 -0.1133 -1.8426
52592SOL     OW75767   5.813  11.168   1.708 -0.0294  0.0344 -0.3732
52592SOL    HW175768   5.797  11.220   1.629 -0.8465 -1.3794 -1.2000
52592SOL    HW275769   5.727  11.160   1.749  0.4992  1.3114  1.0595
52593SOL     OW75770   6.260  13.223  12.845 -0.1146 -0.0822  0.3270
52593SOL    HW175771   6.316  13.301  12.839  0.9162 -0.8662 -0.6432
52593SOL    HW275772   6.230  13.222  12.936 -0.1995  1.4801  0.3322
52594SOL     OW75773   0.648  10.499  12.749 -0.8370 -0.8711 -0.4618
52594SOL    HW175774   0.681  10.411  12.768 -0.7779 -0.7546 -0.0141
52594SOL    HW275775   0.590  10.520  12.822 -1.1923 -0.7083 -0.7839
52595SOL     OW75776   9.061   9.903   4.775 -0.3087 -0.1905 -0.0074
52595SOL    HW175777   9.048   9.823   4.724 -0.3185 -0.0088 -0.2938
52595SOL    HW275778   8.977   9.949   4.768 -0.0723  0.1769 -0.4293
52596SOL     OW75779   1.747   2.853  12.066  0.3784 -0.4733 -0.2606
52596SOL    HW175780   1.689   2.827  12.137  0.0988 -0.3887 -0.4551
52596SOL    HW275781   1.762   2.773  12.015  1.3872 -0.7611  0.4560
52597SOL     OW75782  13.201   8.874  11.449 -0.1997  0.0258  0.6844
52597SOL    HW175783  13.142   8.835  11.385  0.2301  1.4360 -0.6301
52597SOL    HW275784  13.144   8.927  11.505 -0.4960 -0.7266  1.1121
52598SOL     OW75785   2.384   9.097   1.606 -0.2835 -0.0422  0.1358
52598SOL    HW175786   2.473   9.071   1.629 -0.8268 -1.8107  0.3297
52598SOL    HW275787   2.362   9.044   1.530 -1.0436  0.6652 -0.1581
52599SOL     OW75788   2.025   6.042   0.759  0.2193 -0.1375  0.4664
52599SOL    HW175789   1.967   6.004   0.824 -0.3392 -0.4328 -0.1894
52599SOL    HW275790   2.044   6.130   0.791  0.4208 -0.4839  1.3078
52600SOL     OW75791   3.248   8.050   1.636 -0.5592  0.2384 -0.5679
52600SOL    HW175792   3.292   8.053   1.551  1.3557 -2.2080  0.2241
52600SOL    HW275793   3.168   8.000   1.620 -0.2280 -0.1771 -0.9226
52601SOL     OW75794  13.439   0.453   4.406  0.4233  0.0898 -0.2866
52601SOL    HW175795  13.525   0.453   4.449  0.7325 -1.1610 -0.8554
52601SOL    HW275796  13.396   0.532   4.439  0.3317 -1.1585  2.9816
52602SOL     OW75797   1.504  10.365   1.350 -0.1344  0.3327 -0.1868
52602SOL    HW175798   1.547  10.280   1.360 -1.2481 -0.2996 -0.5695
52602SOL    HW275799   1.411  10.346   1.358 -0.4322  1.4430 -0.7640
52603SOL     OW75800   0.109   8.255  12.794 -0.2602  0.4593  0.5911
52603SOL    HW175801   0.067   8.292  12.717  0.6105 -1.5655 -0.9494
52603SOL    HW275802   0.165   8.186  12.760 -0.2305 -0.8722  3.0957
52604SOL     OW75803  13.706   9.460   2.833 -0.2468 -0.2369 -0.1293
52604SOL    HW175804  13.724   9.547   2.866  1.1548 -0.4527 -0.2931
52604SOL    HW275805  13.636   9.473   2.768 -1.0706  0.5434  0.8715
52605SOL     OW75806   4.448   0.943   2.270 -0.3821  0.1660  0.1047
52605SOL    HW175807   4.356   0.959   2.289 -0.6570 -0.4923 -0.6503
52605SOL    HW275808   4.481   0.899   2.349 -0.2882  1.8472  1.0582
52606SOL     OW75809   8.258  12.633   5.499 -0.2107  0.4912  0.0621
52606SOL    HW175810   8.213  12.659   5.418 -0.2198  1.0035  0.2288
52606SOL    HW275811   8.202  12.566   5.538  0.2059 -0.3768 -0.7727
52607SOL     OW75812  13.508   1.810   4.002 -0.1085 -0.1199 -0.6757
52607SOL    HW175813  13.422   1.800   3.961  0.0482 -0.4485 -0.9305
52607SOL    HW275814  13.568   1.822   3.928 -0.0662  1.1600 -0.4650
52608SOL     OW75815   5.702   4.691   8.176  0.8846 -0.7218 -0.2240
52608SOL    HW175816   5.618   4.667   8.215  0.8324 -0.2796 -0.0587
52608SOL    HW275817   5.728   4.615   8.124  0.4605 -0.9198 -0.1422
52609SOL     OW75818   2.993   4.038  13.005  0.0487  0.2714 -0.4223
52609SOL    HW175819   3.045   4.020  12.927 -0.0115  0.5120 -0.5185
52609SOL    HW275820   2.992   3.955  13.053  1.4826  0.5556  0.1538
52610SOL     OW75821  10.911   5.022   0.464 -0.0594 -0.5564 -0.5018
52610SOL    HW175822  11.003   5.049   0.462  0.0188 -0.7859 -0.0447
52610SOL    HW275823  10.914   4.927   0.463 -0.2525 -0.5895  0.6862
52611SOL     OW75824   6.689   2.993   2.622  0.4317 -0.3583  0.7495
52611SOL    HW175825   6.704   2.900   2.639  0.4636 -0.8186 -1.4111
52611SOL    HW275826   6.725   3.007   2.534  0.6275  1.7641  1.1142
52612SOL     OW75827   0.030  11.917   8.589 -0.1690 -0.2185  0.1508
52612SOL    HW175828   0.061  11.836   8.549 -1.3877 -1.8319  2.2604
52612SOL    HW275829   0.072  11.920   8.675 -1.4294  0.5109  0.7721
52613SOL     OW75830  10.054  10.640  11.099  0.4116  0.3295 -0.0037
52613SOL    HW175831  10.036  10.547  11.082 -2.0223  0.7277  0.0373
52613SOL    HW275832  10.056  10.679  11.012  0.8250  0.3368  0.0092
52614SOL     OW75833   3.579   9.744   4.432  0.2487 -0.6309  0.7063
52614SOL    HW175834   3.620   9.830   4.427 -0.1052 -0.4889 -3.4769
52614SOL    HW275835   3.652   9.682   4.428  0.4278 -0.5335  2.2084
52615SOL     OW75836   3.116   1.604   9.180  0.0415 -0.1044 -0.0416
52615SOL    HW175837   3.166   1.574   9.255  0.7107  0.1374 -0.3826
52615SOL    HW275838   3.182   1.641   9.120 -0.3073 -1.4013 -1.2854
52616SOL     OW75839  12.237   6.753   9.813 -0.3435  0.1454 -0.3168
52616SOL    HW175840  12.264   6.824   9.871  2.4976 -0.3680 -0.8627
52616SOL    HW275841  12.300   6.682   9.831 -0.4965 -0.6768 -2.7075
52617SOL     OW75842   3.785   4.726  12.617 -0.0207 -0.6353  0.4959
52617SOL    HW175843   3.863   4.671  12.621  0.1721 -0.3271  1.2107
52617SOL    HW275844   3.769   4.739  12.524 -0.7184 -2.8185  0.2515
52618SOL     OW75845  11.807   3.317   6.028 -0.4073 -0.1015 -0.3343
52618SOL    HW175846  11.878   3.253   6.028 -0.8547 -0.6143  0.1737
52618SOL    HW275847  11.813   3.361   5.943 -0.3389 -1.1021 -0.8605
52619SOL     OW75848   2.359  11.526   8.192 -0.2357  0.2215  0.2181
52619SOL    HW175849   2.267  11.550   8.203 -0.7308 -1.4462 -0.0358
52619SOL    HW275850   2.393  11.519   8.281 -0.5987 -0.0340  0.3370
52620SOL     OW75851   4.218   6.708   9.370  0.2152 -0.1463 -0.3042
52620SOL    HW175852   4.181   6.739   9.288  0.1307  0.3515 -0.0832
52620SOL    HW275853   4.284   6.774   9.393 -0.2549  0.1014  0.3763
52621SOL     OW75854  10.139  13.809   9.749 -0.1728  0.8009  0.0285
52621SOL    HW175855  10.149  13.837   9.658 -0.9519  1.4731  0.1450
52621SOL    HW275856  10.138  13.713   9.744 -1.0519  0.8360 -0.7676
52622SOL     OW75857  13.864   7.216   6.372  0.5579  0.2552  0.4706
52622SOL    HW175858  13.774   7.185   6.361  0.6190  0.3778 -0.4502
52622SOL    HW275859  13.918   7.138   6.367  0.6713  0.4188 -1.3215
52623SOL     OW75860   0.253   6.489   0.660  0.0261  0.4212 -0.8155
52623SOL    HW175861   0.240   6.394   0.658  0.7009  0.3291 -0.9931
52623SOL    HW275862   0.332   6.501   0.713 -1.0793  1.0046  0.7681
52624SOL     OW75863   9.797   0.726  12.234  0.2154  0.5222 -0.2706
52624SOL    HW175864   9.718   0.735  12.287  0.0220  0.6517 -0.5762
52624SOL    HW275865   9.838   0.645  12.266  0.2271  0.7216  0.2306
52625SOL     OW75866  13.801  11.702   5.459 -0.5301 -0.0245  0.0040
52625SOL    HW175867  13.848  11.682   5.378  0.1174 -1.3640  0.6858
52625SOL    HW275868  13.758  11.620   5.483 -1.3166  0.5572  0.6366
52626SOL     OW75869  13.170  10.027   6.908 -0.1729  0.7048  0.3137
52626SOL    HW175870  13.175  10.050   7.000 -0.8996 -1.0402  0.8274
52626SOL    HW275871  13.076  10.028   6.888 -0.0428  0.7723 -0.3207
52627SOL     OW75872   5.942   7.603   2.971  0.2161  0.0968 -0.2312
52627SOL    HW175873   5.962   7.534   3.034  3.1697  0.5046 -0.5810
52627SOL    HW275874   5.926   7.680   3.025 -2.8789 -0.6744  0.1494
52628SOL     OW75875  13.016   8.475   5.237 -0.0388 -0.5263  0.4064
52628SOL    HW175876  12.966   8.415   5.293 -0.9055  1.3215  1.7133
52628SOL    HW275877  13.002   8.562   5.276  1.1279  0.5558 -1.4315
52629SOL     OW75878   1.105   9.969   5.513  0.8971  0.4479  0.4152
52629SOL    HW175879   1.181   9.964   5.571  3.2854  0.0615 -2.4779
52629SOL    HW275880   1.126   9.910   5.441 -2.9893 -0.9898  0.2324
52630SOL     OW75881   8.552   6.660   0.359  0.2752  0.3870  0.0921
52630SOL    HW175882   8.502   6.715   0.297 -1.0204 -1.2465 -0.3820
52630SOL    HW275883   8.572   6.719   0.431 -1.2654  1.4597 -0.2898
52631SOL     OW75884  10.233   7.438   8.688  0.5956  0.4809  0.7994
52631SOL    HW175885  10.259   7.516   8.736  1.1145  0.8508 -0.0540
52631SOL    HW275886  10.216   7.469   8.599  0.0641 -0.2536  0.6354
52632SOL     OW75887   1.610   1.523  10.838 -0.5704  0.3188  0.5496
52632SOL    HW175888   1.691   1.570  10.821  0.1158 -1.6787 -2.6976
52632SOL    HW275889   1.628   1.471  10.917  1.1568  0.2540  0.1463
52633SOL     OW75890   6.381   1.798  10.973 -0.5631 -0.3230  0.5433
52633SOL    HW175891   6.294   1.828  10.946 -0.1876 -1.3400 -2.1686
52633SOL    HW275892   6.374   1.703  10.975  0.0258 -0.3600  2.2466
52634SOL     OW75893   2.477   3.469   1.154 -0.0197 -0.1766 -0.0550
52634SOL    HW175894   2.470   3.554   1.112 -0.4148 -0.1046  0.1485
52634SOL    HW275895   2.433   3.408   1.095 -1.1300  0.0296  0.5379
52635SOL     OW75896   0.415   3.791   4.994  0.4569 -0.1205  0.4519
52635SOL    HW175897   0.330   3.808   5.035 -0.2129 -2.6496  0.2643
52635SOL    HW275898   0.458   3.728   5.052  1.4497 -0.2377 -0.3803
52636SOL     OW75899  10.428  13.606   6.767 -0.0898 -0.1408 -0.1631
52636SOL    HW175900  10.400  13.572   6.682  1.5303 -3.7642  0.5623
52636SOL    HW275901  10.520  13.627   6.755  0.0448 -0.2899  0.5852
52637SOL     OW75902   8.675   9.006   7.185  0.3278 -0.1883 -0.0116
52637SOL    HW175903   8.766   8.993   7.212  0.5995 -0.8447 -1.1392
52637SOL    HW275904   8.642   8.918   7.168 -0.9884 -0.0681  1.7431
52638SOL     OW75905  11.443   7.976  12.867  0.1344 -0.2326  0.2010
52638SOL    HW175906  11.459   7.890  12.907 -0.7254  0.5050  2.3259
52638SOL    HW275907  11.516   8.030  12.897 -0.3364  0.2462  0.5079
52639SOL     OW75908   2.907   6.603   3.732  0.0392  0.6416 -0.2758
52639SOL    HW175909   2.898   6.551   3.812 -0.8362 -0.0348 -0.8047
52639SOL    HW275910   2.820   6.603   3.692  0.6840  0.1053 -1.7566
52640SOL     OW75911   7.860   7.608  13.749  0.1878 -0.2530  0.0213
52640SOL    HW175912   7.784   7.663  13.767 -0.7120 -0.8916 -1.5435
52640SOL    HW275913   7.835   7.559  13.670  1.9097 -1.0872 -0.0480
52641SOL     OW75914   3.440   3.912   8.477  0.5062  0.2759  0.1847
52641SOL    HW175915   3.471   3.823   8.494  0.6987  0.1702 -0.6463
52641SOL    HW275916   3.352   3.915   8.514 -0.2461 -0.8585 -1.3917
52642SOL     OW75917  11.540  11.304   2.496  0.2894 -0.0184  0.5728
52642SOL    HW175918  11.449  11.279   2.481  0.2249  0.4598  0.1002
52642SOL    HW275919  11.567  11.346   2.414  0.2852  1.7249  1.4109
52643SOL     OW75920   5.259  10.261   6.413  0.0941  0.4971  0.3690
52643SOL    HW175921   5.308  10.193   6.459  0.3376  1.0236  0.9044
52643SOL    HW275922   5.303  10.343   6.437 -0.0149  0.8285 -0.4899
52644SOL     OW75923   5.940  11.607   8.820  0.6322  0.0033 -0.5155
52644SOL    HW175924   5.936  11.593   8.725 -0.2898  0.4462 -0.5510
52644SOL    HW275925   5.890  11.687   8.835  1.1004  0.1524  0.3077
52645SOL     OW75926   9.254  10.325   7.173  0.2484 -0.1213 -0.1149
52645SOL    HW175927   9.212  10.240   7.168 -0.3256  0.1189  0.4528
52645SOL    HW275928   9.181  10.387   7.177  0.5774  0.6079 -3.0213
52646SOL     OW75929   7.465   3.588   4.351 -0.5948 -0.2250  0.1053
52646SOL    HW175930   7.439   3.655   4.288  2.8459  1.3001  0.0572
52646SOL    HW275931   7.540   3.544   4.310  0.2083 -0.8395  2.1097
52647SOL     OW75932   4.416   3.675  12.558  0.5208  0.3123  0.3308
52647SOL    HW175933   4.383   3.666  12.469 -1.9203  2.0332  0.9735
52647SOL    HW275934   4.412   3.586  12.594 -1.5030  0.0905 -0.3261
52648SOL     OW75935  13.226   9.505   7.830 -0.6292 -0.8633 -0.0126
52648SOL    HW175936  13.253   9.572   7.893 -0.2706  1.6494 -2.6040
52648SOL    HW275937  13.277   9.428   7.854  0.6994  0.4791  1.7709
52649SOL     OW75938   7.347   5.152  12.492  0.3796  1.0887  0.2814
52649SOL    HW175939   7.383   5.229  12.449  1.3017  0.5632  0.0819
52649SOL    HW275940   7.281   5.119  12.432  0.8497  1.0283 -0.2107
52650SOL     OW75941  14.045   6.986   6.316  0.0801 -0.7040  0.5275
52650SOL    HW175942  13.990   6.930   6.371 -0.0029  1.2213  2.5254
52650SOL    HW275943  13.995   6.997   6.235 -0.1892 -2.9057  0.3342
52651SOL     OW75944   9.019   2.688  11.605 -0.0505 -0.2363  0.2296
52651SOL    HW175945   9.086   2.639  11.653  0.3578 -1.5964 -1.6173
52651SOL    HW275946   8.977   2.622  11.549 -1.2534  1.0597 -0.4397
52652SOL     OW75947   6.738   7.637   5.203  0.1490 -0.1662 -0.5615
52652SOL    HW175948   6.787   7.646   5.284 -1.3115  1.5493  0.1920
52652SOL    HW275949   6.788   7.685   5.138  0.0416  0.6339 -0.0605
52653SOL     OW75950   9.438   1.217   3.421  0.6371  0.6184 -0.2178
52653SOL    HW175951   9.348   1.248   3.421  0.4496  0.0916  0.3312
52653SOL    HW275952   9.491   1.297   3.422  0.1943  0.9413 -1.0476
52654SOL     OW75953   2.067   3.058   6.726  0.1655  0.5041 -0.8645
52654SOL    HW175954   2.062   3.063   6.630 -0.2428  1.0235 -0.8207
52654SOL    HW275955   2.108   3.140   6.752 -0.5665  0.7726 -0.5384
52655SOL     OW75956  11.170  11.554   3.983 -0.0012 -0.3222  0.5668
52655SOL    HW175957  11.082  11.587   3.965  0.9973  1.4559 -1.6559
52655SOL    HW275958  11.166  11.462   3.957 -1.1516 -0.1904  0.1982
52656SOL     OW75959  10.329   3.259   5.462 -0.6303  0.0216 -0.3802
52656SOL    HW175960  10.391   3.254   5.534 -0.9014 -1.4490 -0.2041
52656SOL    HW275961  10.243   3.254   5.504 -0.7865 -1.2051 -0.7906
52657SOL     OW75962  10.470   5.045   2.756  0.0634  0.2827 -0.2287
52657SOL    HW175963  10.457   4.956   2.725  2.5993  0.2379 -1.4134
52657SOL    HW275964  10.493   5.036   2.848 -1.4928 -0.0946  0.1485
52658SOL     OW75965  10.437   8.526   7.157 -0.0766 -0.2877  0.3071
52658SOL    HW175966  10.366   8.582   7.125  0.4625  0.0021 -0.4104
52658SOL    HW275967  10.402   8.438   7.153  0.2887 -0.4081 -2.1508
52659SOL     OW75968   5.579   8.477   3.749 -0.0353 -0.3946 -0.0765
52659SOL    HW175969   5.646   8.529   3.704  0.2566  0.1196  0.9236
52659SOL    HW275970   5.629   8.417   3.804 -0.3775 -0.0205  0.6608
52660SOL     OW75971  10.340   7.648  11.289 -0.1496 -0.1354  0.2175
52660SOL    HW175972  10.415   7.702  11.316  1.1374 -0.5462 -2.2068
52660SOL    HW275973  10.372   7.558  11.292 -0.6557 -0.3506 -0.4623
52661SOL     OW75974   5.397   8.867   9.391 -0.3027 -0.0139 -0.2760
52661SOL    HW175975   5.341   8.939   9.419 -1.1168 -0.5389 -0.5222
52661SOL    HW275976   5.361   8.839   9.307 -0.8395 -1.5737  0.4321
52662SOL     OW75977  10.747   9.617  10.890  0.1799  0.0914  0.3893
52662SOL    HW175978  10.756   9.548  10.824 -0.0647  0.0649  0.3837
52662SOL    HW275979  10.710   9.572  10.966  2.1975 -0.2846  1.2090
52663SOL     OW75980   3.932  13.789   7.484 -0.2310 -0.5153 -0.2795
52663SOL    HW175981   3.900  13.700   7.469 -3.2989  0.2362  1.0673
52663SOL    HW275982   3.904  13.811   7.573 -0.0860  1.9678 -0.7522
52664SOL     OW75983   7.313   7.867   3.581 -0.3615 -0.0266 -0.6610
52664SOL    HW175984   7.399   7.829   3.563 -0.1177 -0.7381  1.6465
52664SOL    HW275985   7.330   7.960   3.594  0.4982 -0.4502  1.7918
52665SOL     OW75986  11.511  13.216   8.242  0.2896  0.5159  0.1110
52665SOL    HW175987  11.495  13.195   8.150  0.5816  0.8500 -0.0164
52665SOL    HW275988  11.433  13.185   8.288  0.3313 -0.0511 -0.1914
52666SOL     OW75989   0.372   8.704   0.251  0.0209  0.0742  0.1854
52666SOL    HW175990   0.440   8.718   0.317 -0.0759  1.4935  0.0309
52666SOL    HW275991   0.420   8.686   0.170  0.2376  1.1851  0.0526
52667SOL     OW75992  10.706   5.868  12.613  0.4562  0.2477 -0.3676
52667SOL    HW175993  10.783   5.818  12.641  0.0460  0.0041  0.3424
52667SOL    HW275994  10.691   5.932  12.683  0.2059  0.5129 -0.6563
52668SOL     OW75995   4.403  10.955   5.566 -0.3165  0.2718 -0.7597
52668SOL    HW175996   4.356  10.898   5.628  2.8693 -1.6800  0.0937
52668SOL    HW275997   4.347  11.032   5.558 -2.6262 -0.9480  1.7413
52669SOL     OW75998   8.738  13.859   7.821  0.1861  0.2968 -0.2322
52669SOL    HW175999   8.695  13.799   7.760  2.2315 -0.5747 -0.8919
52669SOL    HW276000   8.783  13.922   7.765 -0.3366  1.2939  0.4409
52670SOL     OW76001   2.954  11.059   7.343 -0.0924 -0.3160 -0.0794
52670SOL    HW176002   2.865  11.039   7.369 -0.6064  0.1206 -1.4032
52670SOL    HW276003   2.952  11.152   7.319  1.3840  0.4997  2.5109
52671SOL     OW76004   5.897  13.285  12.267  0.6887 -0.4131  0.1747
52671SOL    HW176005   5.954  13.293  12.190 -1.5323 -0.2366 -1.5788
52671SOL    HW276006   5.925  13.356  12.325  1.3391  0.5660 -1.2694
52672SOL     OW76007   2.541   5.169  13.011  0.4199 -0.5886  0.4242
52672SOL    HW176008   2.615   5.216  12.972  0.8708 -0.6318  1.2012
52672SOL    HW276009   2.555   5.177  13.106 -0.2630 -1.0841  0.5727
52673SOL     OW76010   8.482  13.944   3.507  0.2111 -0.4257 -0.0247
52673SOL    HW176011   8.394  13.971   3.482  0.1012  0.4005  1.1550
52673SOL    HW276012   8.485  13.851   3.488 -0.1517 -0.0592 -2.1789
52674SOL     OW76013   0.411   3.032   6.025 -0.1106 -0.3705  0.8567
52674SOL    HW176014   0.466   3.050   6.101  0.4712  0.1187  0.3297
52674SOL    HW276015   0.354   3.109   6.018  0.3084 -0.0992  0.3931
52675SOL     OW76016   1.474  10.779   3.419 -0.1679  0.0490  0.0712
52675SOL    HW176017   1.410  10.844   3.388  0.1080  0.3051  0.0349
52675SOL    HW276018   1.534  10.768   3.345 -0.8664 -1.1158 -0.3610
52676SOL     OW76019  10.636   0.859   8.347  0.4909 -0.3137 -0.2545
52676SOL    HW176020  10.717   0.859   8.399  0.1369  0.4126  0.2985
52676SOL    HW276021  10.568   0.889   8.407 -0.0389 -0.0746 -0.9656
52677SOL     OW76022   3.536   5.162  10.225  0.2425 -0.1032 -0.2637
52677SOL    HW176023   3.567   5.162  10.135  1.4393  0.7810  0.1250
52677SOL    HW276024   3.475   5.237  10.229  0.5260  0.1268 -0.2310
52678SOL     OW76025  13.453   2.211   0.922 -0.5988  0.3906 -0.0532
52678SOL    HW176026  13.378   2.209   0.863 -0.9447  1.2295  0.3286
52678SOL    HW276027  13.525   2.245   0.869 -0.1010 -1.7125 -0.8006
52679SOL     OW76028  10.819  12.986   2.981 -0.0752 -0.2639 -0.1113
52679SOL    HW176029  10.896  13.042   2.971  0.4749 -0.9677  0.0895
52679SOL    HW276030  10.745  13.043   2.960  0.3779  0.8362  1.1655
52680SOL     OW76031  10.018  12.897   5.530  0.1656  0.1689  0.1794
52680SOL    HW176032   9.965  12.827   5.567 -1.0545  1.5819  1.2320
52680SOL    HW276033  10.041  12.867   5.442 -2.0532 -0.6681 -0.1728
52681SOL     OW76034  10.133   2.785  11.959  0.4559  0.5344  0.3142
52681SOL    HW176035  10.188   2.780  12.037  0.5768 -1.7144  0.1435
52681SOL    HW276036  10.047   2.810  11.992  0.0635 -2.0302  1.4885
52682SOL     OW76037   8.666   3.298   7.019 -0.1170  0.8409 -0.0864
52682SOL    HW176038   8.656   3.203   7.011 -1.8422  1.0914 -1.3068
52682SOL    HW276039   8.753   3.315   6.983 -0.2071 -0.1625 -0.8326
52683SOL     OW76040   9.003  10.743   6.867  0.4870 -0.2399  0.5982
52683SOL    HW176041   8.987  10.816   6.807 -0.9539 -2.1054 -1.4535
52683SOL    HW276042   9.097  10.747   6.885  0.6375  1.4248 -0.3777
52684SOL     OW76043   7.060   5.843   7.158  0.0425  0.0542  0.1244
52684SOL    HW176044   7.067   5.767   7.216  0.2988  0.6249  0.8514
52684SOL    HW276045   6.968   5.846   7.134 -0.3732  0.6561  1.6819
52685SOL     OW76046   3.444   4.508   8.436 -0.1185  0.1125  0.6279
52685SOL    HW176047   3.540   4.512   8.434 -0.0602 -0.8869  1.0190
52685SOL    HW276048   3.420   4.470   8.351 -0.1504  0.0176  0.6797
52686SOL     OW76049   8.693   5.884   1.350 -0.1414  0.2151  0.7468
52686SOL    HW176050   8.756   5.813   1.365  0.2541  0.2955 -0.4760
52686SOL    HW276051   8.733   5.961   1.391  0.8268  0.3871 -0.4837
52687SOL     OW76052   1.335   0.767   3.563  0.1910 -0.3226 -0.4028
52687SOL    HW176053   1.312   0.789   3.653 -0.2169  0.5544 -0.7084
52687SOL    HW276054   1.319   0.673   3.556 -0.4152 -0.2788  0.2557
52688SOL     OW76055   0.563  12.743   5.462  0.4507  0.0981 -0.2488
52688SOL    HW176056   0.596  12.714   5.377  1.1210  1.3008 -0.4199
52688SOL    HW276057   0.503  12.815   5.442  0.7006  0.4659  0.2926
52689SOL     OW76058  13.400   2.743   0.060  0.3298 -0.1129 -0.0595
52689SOL    HW176059  13.457   2.698   0.122  1.5042  0.6032 -0.5841
52689SOL    HW276060  13.314   2.702   0.072  0.3066  0.5245  2.5777
52690SOL     OW76061   7.676  11.813   1.088 -0.3958 -0.1663  0.0339
52690SOL    HW176062   7.661  11.765   1.006  0.8300 -1.2038  0.3726
52690SOL    HW276063   7.751  11.769   1.127 -1.3155 -0.0770  2.0145
52691SOL     OW76064  10.096  12.517   7.325  0.2484  0.2829 -0.0580
52691SOL    HW176065  10.164  12.503   7.259 -0.3665  0.7770 -0.8020
52691SOL    HW276066  10.014  12.500   7.280 -0.0989 -1.6273  1.1688
52692SOL     OW76067   1.276   3.398  12.213 -0.1591  0.9599 -0.2104
52692SOL    HW176068   1.205   3.438  12.164 -1.0350 -0.5744 -0.2614
52692SOL    HW276069   1.327   3.350  12.147  0.8330  1.8972 -0.1473
52693SOL     OW76070   5.521  10.393   9.389  0.1770 -0.0662 -0.4035
52693SOL    HW176071   5.508  10.455   9.460  1.3104 -0.0172 -0.2191
52693SOL    HW276072   5.556  10.315   9.431  0.0651 -0.3442 -0.8120
52694SOL     OW76073   6.611  11.465   8.212 -0.3714 -0.0473 -0.4556
52694SOL    HW176074   6.586  11.549   8.250 -0.2755  0.1737 -0.8720
52694SOL    HW276075   6.530  11.413   8.212 -0.3237 -0.1184  0.2272
52695SOL     OW76076   8.530  13.001   2.303 -0.2613  0.4187 -0.0763
52695SOL    HW176077   8.562  13.063   2.237  0.8358  0.7558  0.7481
52695SOL    HW276078   8.609  12.967   2.345 -0.8821 -0.8632  0.1204
52696SOL     OW76079   8.097   7.701   0.721  0.0776 -0.9421 -0.0854
52696SOL    HW176080   8.028   7.637   0.707 -1.6453  0.8286 -0.1004
52696SOL    HW276081   8.111   7.702   0.816 -1.7799  0.4570  0.2247
52697SOL     OW76082   8.615  12.734  11.036 -0.0930  1.0880 -0.2394
52697SOL    HW176083   8.650  12.650  11.007  0.1308  0.8798  0.5922
52697SOL    HW276084   8.555  12.761  10.967  0.5124  0.6766 -0.9394
52698SOL     OW76085   0.005   8.859  12.743 -0.0303  0.5022  0.0678
52698SOL    HW176086  -0.064   8.910  12.699  0.8039  1.8370  0.2518
52698SOL    HW276087   0.071   8.844  12.675  0.3381  0.8469  0.3408
52699SOL     OW76088   8.799  11.858   2.618  0.1530  0.5397  0.0886
52699SOL    HW176089   8.890  11.842   2.643  0.9669  3.0737 -0.9505
52699SOL    HW276090   8.749  11.838   2.697  1.6861 -0.0885  0.9493
52700SOL     OW76091   6.219   3.533   6.769  0.1939  0.1332 -0.1591
52700SOL    HW176092   6.174   3.599   6.822  1.3996  1.7361 -1.0386
52700SOL    HW276093   6.149   3.489   6.721 -0.5829  1.4670 -0.2976
52701SOL     OW76094   0.599  11.365   7.550  0.2962 -0.6822  0.2618
52701SOL    HW176095   0.634  11.410   7.473 -2.2615  1.0803  0.0333
52701SOL    HW276096   0.665  11.378   7.618  0.4871  1.8942 -0.3351
52702SOL     OW76097   9.536  11.125  11.383 -0.5121  0.2215 -0.4372
52702SOL    HW176098   9.556  11.033  11.365 -0.0799  0.2594 -0.1421
52702SOL    HW276099   9.562  11.171  11.303  1.2822  0.3691  0.1999
52703SOL     OW76100   3.458  12.178   9.264  0.0717 -0.2041 -0.3369
52703SOL    HW176101   3.422  12.264   9.241  2.4433  0.3144 -2.5584
52703SOL    HW276102   3.546  12.197   9.296  1.1839 -1.8572 -2.2379
52704SOL     OW76103  13.914   5.125   4.530 -0.0598  0.2623  0.2718
52704SOL    HW176104  13.892   5.042   4.488  0.1783  0.6557 -0.6606
52704SOL    HW276105  14.008   5.135   4.517 -0.0075  0.4632  0.7805
52705SOL     OW76106   5.533   5.501   4.278 -0.0713  0.0559 -0.0780
52705SOL    HW176107   5.587   5.424   4.293  0.1680  0.3934  0.9125
52705SOL    HW276108   5.568   5.541   4.198  0.6621 -0.1404  0.1406
52706SOL     OW76109  10.855   0.964   2.988  0.1153  0.6769 -0.1747
52706SOL    HW176110  10.762   0.957   2.969 -0.3326 -1.7772  2.3319
52706SOL    HW276111  10.898   0.950   2.903 -1.7745  0.7081 -1.1777
52707SOL     OW76112   6.500   5.025  13.695  0.2187 -0.2838  0.4946
52707SOL    HW176113   6.499   5.065  13.782 -0.1609 -0.1455  0.4303
52707SOL    HW276114   6.463   5.092  13.638  0.9667 -0.1658  0.1306
52708SOL     OW76115  10.519   3.193  11.403  0.2392 -0.0960  0.3529
52708SOL    HW176116  10.574   3.210  11.478 -0.1394  0.1614  0.5768
52708SOL    HW276117  10.502   3.098  11.406  1.5149 -0.3767 -0.3187
52709SOL     OW76118  11.757  12.084  12.251  0.0136 -0.9571 -0.6671
52709SOL    HW176119  11.674  12.118  12.217 -1.2860 -1.7632  1.5240
52709SOL    HW276120  11.746  12.082  12.345  3.3413  0.9059 -0.0565
52710SOL     OW76121  11.697   1.687   1.578 -0.2753 -0.0985  0.6970
52710SOL    HW176122  11.691   1.644   1.492  2.5716 -1.0316  0.8574
52710SOL    HW276123  11.652   1.628   1.637 -0.0798 -0.7473  0.2138
52711SOL     OW76124   3.070   7.048  11.322  0.2283 -0.0424  0.3624
52711SOL    HW176125   3.064   7.096  11.405  0.8644  0.9054 -0.1090
52711SOL    HW276126   3.157   7.070  11.289  0.2415 -0.9585 -0.2291
52712SOL     OW76127   6.079   2.314   2.615 -0.5146 -0.0072 -0.1012
52712SOL    HW176128   6.168   2.343   2.632 -0.5677  0.8383 -1.1527
52712SOL    HW276129   6.086   2.219   2.601 -0.2738 -0.5583  2.9420
52713SOL     OW76130  12.216   9.124   3.773  0.3410  0.1435  0.1195
52713SOL    HW176131  12.278   9.062   3.812  0.6773  0.4678  0.1121
52713SOL    HW276132  12.238   9.208   3.815 -0.1514  0.2453  0.1777
52714SOL     OW76133  10.958   4.311   2.020  0.8881 -0.0537  0.1264
52714SOL    HW176134  11.045   4.344   1.997  1.4158 -1.4647  0.0304
52714SOL    HW276135  10.911   4.306   1.936 -0.1673  2.9375  0.3965
52715SOL     OW76136   8.495  10.272  12.769  0.7271 -0.4503  0.0592
52715SOL    HW176137   8.505  10.180  12.744 -0.4713 -0.6611  0.3001
52715SOL    HW276138   8.413  10.299  12.728  1.3495  0.6891 -0.4813
52716SOL     OW76139  11.725  13.257  12.517 -0.0895  0.1350  0.6147
52716SOL    HW176140  11.665  13.213  12.577 -1.4117  0.9975 -0.0372
52716SOL    HW276141  11.794  13.292  12.574  0.9195 -2.4725  1.1957
52717SOL     OW76142   5.415  13.261   8.565  0.0387  0.1330 -1.1683
52717SOL    HW176143   5.497  13.298   8.599 -0.7937  1.4582 -0.5080
52717SOL    HW276144   5.426  13.166   8.573  0.9957  0.3271  0.1925
52718SOL     OW76145   3.754  12.631   1.702  0.2961  0.0698  0.5686
52718SOL    HW176146   3.781  12.542   1.724 -1.0168 -0.3426  0.6091
52718SOL    HW276147   3.711  12.664   1.781 -1.9405 -0.4058 -0.3706
52719SOL     OW76148  14.139  12.094   2.148  0.2282  0.0560 -0.3219
52719SOL    HW176149  14.213  12.150   2.125  0.8158  0.3219  1.9758
52719SOL    HW276150  14.173  12.005   2.139  0.4735  0.1504 -0.3352
52720SOL     OW76151   4.576  12.283   7.643  0.0145 -0.2518  0.2548
52720SOL    HW176152   4.552  12.375   7.650  1.0398 -0.0677  1.4561
52720SOL    HW276153   4.496  12.236   7.669 -0.4708  0.2776 -0.2364
52721SOL     OW76154   3.531   1.243   3.196 -0.0901 -0.6573  0.2503
52721SOL    HW176155   3.463   1.309   3.210 -1.5172 -0.7599 -4.4401
52721SOL    HW276156   3.613   1.291   3.204 -1.0310  1.2955 -1.1924
52722SOL     OW76157   4.013   9.206   8.991  0.0477 -0.2117  0.6181
52722SOL    HW176158   4.033   9.251   9.073 -0.8184 -1.3571  1.4803
52722SOL    HW276159   4.076   9.134   8.987 -0.2397 -0.4589  0.5265
52723SOL     OW76160   6.586   6.014   8.309  0.5331 -0.1403  0.3216
52723SOL    HW176161   6.528   5.991   8.382  1.7629 -0.3845  1.2538
52723SOL    HW276162   6.532   6.003   8.231 -1.2810  1.5698  1.2665
52724SOL     OW76163   7.110   4.005   5.574 -0.4196  0.4640 -0.1239
52724SOL    HW176164   7.167   3.930   5.591 -0.6915  0.3535  0.3397
52724SOL    HW276165   7.032   3.967   5.532 -0.1787  0.6070 -0.7115
52725SOL     OW76166   9.465   8.886   9.478  0.2228 -0.6660 -0.7755
52725SOL    HW176167   9.513   8.804   9.466 -0.2346 -0.9533 -0.6813
52725SOL    HW276168   9.373   8.862   9.463 -0.3212 -0.8896  2.2855
52726SOL     OW76169   0.600   2.369  10.685 -0.6105  0.3810 -0.4739
52726SOL    HW176170   0.637   2.316  10.615 -2.2037 -0.0416 -1.0202
52726SOL    HW276171   0.524   2.320  10.716 -0.2558  0.8173  1.2038
52727SOL     OW76172   8.645   6.561   0.734 -0.2541  0.0545 -0.4212
52727SOL    HW176173   8.715   6.605   0.686 -1.1833  0.7118 -1.2053
52727SOL    HW276174   8.691   6.510   0.801  1.1407 -1.2807 -2.2761
52728SOL     OW76175   4.542  11.165   7.588  0.2980 -0.4387 -0.3613
52728SOL    HW176176   4.604  11.146   7.518  1.1914 -0.2101  0.3576
52728SOL    HW276177   4.463  11.194   7.543  1.5349  1.7107 -1.2397
52729SOL     OW76178  12.284   7.568  14.063  0.5759  0.3095  0.0435
52729SOL    HW176179  12.256   7.530  14.146  0.8863  2.3486  1.1422
52729SOL    HW276180  12.227   7.529  13.998  1.3333 -2.5355  0.9455
52730SOL     OW76181   6.171   7.632  11.898  0.7515  0.3270 -0.3765
52730SOL    HW176182   6.202   7.698  11.961  0.8252 -1.8402  2.0404
52730SOL    HW276183   6.076   7.645  11.894  0.5444 -0.3504  1.3427
52731SOL     OW76184   1.610  11.318   6.084 -0.0729 -0.3366  0.5570
52731SOL    HW176185   1.640  11.350   6.169 -0.7139  1.9067  0.0059
52731SOL    HW276186   1.690  11.312   6.032  0.3773 -2.0923  1.3761
52732SOL     OW76187   2.645   7.972  11.091 -0.4506 -0.2542 -0.3836
52732SOL    HW176188   2.681   7.884  11.082 -0.3008 -0.3332  0.8619
52732SOL    HW276189   2.552   7.957  11.111 -0.4099 -0.1356 -0.1039
52733SOL     OW76190   0.381   4.645  12.017  0.1543 -0.6733 -0.1216
52733SOL    HW176191   0.435   4.721  11.996  0.9320 -1.4713 -1.0959
52733SOL    HW276192   0.357   4.657  12.109  1.7363 -0.1219  0.2453
52734SOL     OW76193   8.415  12.768  11.607 -0.5882  0.3643 -0.1748
52734SOL    HW176194   8.412  12.784  11.513 -2.1228 -0.4106 -0.2779
52734SOL    HW276195   8.399  12.854  11.647  3.5224  1.4936 -0.4746
52735SOL     OW76196  11.352   6.574   9.282 -0.0941 -0.4462 -0.0268
52735SOL    HW176197  11.375   6.656   9.326 -0.9748 -0.7995  1.1587
52735SOL    HW276198  11.268   6.549   9.321 -0.9755 -0.7454 -2.0056
52736SOL     OW76199   2.461   0.515  11.014  0.6401  0.0366  0.1315
52736SOL    HW176200   2.452   0.460  11.092  1.6566  0.1313  0.3179
52736SOL    HW276201   2.409   0.593  11.034  2.1736  0.7991  1.4088
52737SOL     OW76202   3.026   1.273   0.201 -0.6429  0.5219 -0.7670
52737SOL    HW176203   3.002   1.252   0.291  0.4430  1.2690 -0.2827
52737SOL    HW276204   3.053   1.365   0.205  1.7112 -0.0820 -1.3540
52738SOL     OW76205  11.586   6.547   4.351 -0.1316 -0.2799  0.1067
52738SOL    HW176206  11.526   6.475   4.369  2.3157 -2.0226  1.8728
52738SOL    HW276207  11.608   6.538   4.258 -1.1560 -0.7175 -0.1038
52739SOL     OW76208   6.606   9.551   8.442 -1.0128  0.6772  0.1193
52739SOL    HW176209   6.633   9.511   8.525 -1.1882 -1.2241 -0.6850
52739SOL    HW276210   6.688   9.573   8.398 -0.8567 -0.4277 -0.1647
52740SOL     OW76211   3.970   8.560   4.189  0.3192  0.0993  0.1343
52740SOL    HW176212   4.039   8.577   4.254  1.5665  0.4143 -1.2155
52740SOL    HW276213   3.975   8.466   4.173  0.9837  0.2295 -0.5085
52741SOL     OW76214   8.669   3.057  11.699  0.1430  0.1873  0.2352
52741SOL    HW176215   8.757   3.041  11.734 -0.4077  0.3628  1.8005
52741SOL    HW276216   8.655   3.151  11.711 -0.8467 -0.0976  1.5191
52742SOL     OW76217   6.626   8.004   0.353  0.6316 -0.2394 -0.0477
52742SOL    HW176218   6.664   8.033   0.271  1.3132  0.5747  0.5498
52742SOL    HW276219   6.700   7.994   0.413  0.1123 -0.5164  0.5702
52743SOL     OW76220   6.266   4.891   3.061 -0.0029  0.5969 -0.2884
52743SOL    HW176221   6.276   4.798   3.080 -0.3426  0.7202  0.5095
52743SOL    HW276222   6.264   4.895   2.965  2.8265  0.0743 -0.4458
52744SOL     OW76223   6.926   3.150  13.267 -0.2015  0.5275  0.1367
52744SOL    HW176224   6.840   3.172  13.302 -0.9685 -0.1863 -1.2158
52744SOL    HW276225   6.908   3.089  13.196  1.5172 -0.6692  0.6512
52745SOL     OW76226   1.306  10.901  13.089 -0.4569  0.0978  0.2113
52745SOL    HW176227   1.291  10.876  12.997 -0.5636 -0.3284  0.3435
52745SOL    HW276228   1.252  10.979  13.101 -2.3939 -1.2377  0.5878
52746SOL     OW76229  13.351  13.836   7.892  0.3626 -0.2977 -0.2165
52746SOL    HW176230  13.305  13.846   7.976  1.1591 -0.0098  0.1935
52746SOL    HW276231  13.428  13.891   7.900  2.1264 -2.6314  0.0804
52747SOL     OW76232   1.577   6.676   7.852 -0.5041  0.3179  0.1720
52747SOL    HW176233   1.605   6.620   7.924 -0.1106 -0.0321 -0.2425
52747SOL    HW276234   1.615   6.761   7.872 -0.9737  0.4011  0.7272
52748SOL     OW76235   1.721   2.488   9.211 -0.0863  0.0418 -0.2383
52748SOL    HW176236   1.721   2.414   9.151  1.4923  0.2624 -0.5551
52748SOL    HW276237   1.700   2.449   9.296  0.6808 -0.7842 -0.4044
52749SOL     OW76238   2.179   7.662   5.764 -0.4532 -0.4339  0.2445
52749SOL    HW176239   2.233   7.736   5.793 -0.1865 -0.2574 -0.6683
52749SOL    HW276240   2.102   7.702   5.724 -2.0855 -0.6777  2.8746
52750SOL     OW76241   9.586   1.459   0.437  0.2971  0.4581  0.1900
52750SOL    HW176242   9.563   1.410   0.358  1.4253 -1.2058  0.8327
52750SOL    HW276243   9.581   1.394   0.507 -1.1817  2.0224  1.6079
52751SOL     OW76244   1.798  11.710  14.017  0.8162 -0.0425  0.3272
52751SOL    HW176245   1.781  11.795  14.056 -0.3538 -0.3083  0.4125
52751SOL    HW276246   1.743  11.649  14.067 -0.2133 -0.4866 -1.2993
52752SOL     OW76247   8.012   1.004   2.949 -0.3447 -0.4369  0.7277
52752SOL    HW176248   8.069   1.042   3.016 -0.8133 -0.1755  0.9837
52752SOL    HW276249   8.024   0.909   2.958 -2.4340 -0.5827  3.0648
52753SOL     OW76250  11.036   8.944   9.683  0.2082 -0.2417  0.2046
52753SOL    HW176251  11.030   9.016   9.745  0.2991  0.3267 -0.4373
52753SOL    HW276252  11.102   8.972   9.619  1.1100 -1.3938  0.6005
52754SOL     OW76253   6.514   8.061   4.453 -0.4595  0.3639  0.0833
52754SOL    HW176254   6.521   8.156   4.461 -2.4512  0.5752  0.0192
52754SOL    HW276255   6.427   8.047   4.414  0.7887 -1.3798 -2.3680
52755SOL     OW76256  13.627   5.530   7.996  0.5530 -0.4571  0.7547
52755SOL    HW176257  13.716   5.526   7.961  0.4650 -1.8251  0.6211
52755SOL    HW276258  13.599   5.621   7.982  1.0083 -0.6010 -1.5190
52756SOL     OW76259   4.214   3.941   0.051  0.7144 -0.1688 -0.3201
52756SOL    HW176260   4.206   4.025   0.095 -0.2194 -0.9890  1.1382
52756SOL    HW276261   4.175   3.955  -0.036  2.5746  1.4535 -0.9634
52757SOL     OW76262   1.893   5.953  11.489  0.0584  0.5620 -0.4722
52757SOL    HW176263   1.876   5.866  11.526  0.9317  0.3596 -0.5209
52757SOL    HW276264   1.850   6.014  11.549  0.3055  0.1534  0.1214
52758SOL     OW76265   4.463  11.123  13.509 -0.3307  0.1530  0.0182
52758SOL    HW176266   4.414  11.077  13.441  1.8090  0.4634 -1.8490
52758SOL    HW276267   4.528  11.175  13.461  0.5362  1.2840  2.2685
52759SOL     OW76268  11.681   4.177   2.891  0.1768  0.2519  0.4661
52759SOL    HW176269  11.609   4.225   2.931 -0.2442 -1.4488  1.8609
52759SOL    HW276270  11.708   4.113   2.957  1.8796 -0.2677 -0.6422
52760SOL     OW76271   6.453   5.079  12.178 -0.1949  0.5419  0.1774
52760SOL    HW176272   6.416   5.166  12.191 -0.5090  0.6546 -1.3865
52760SOL    HW276273   6.547   5.090  12.194 -0.2719  1.1070  0.2294
52761SOL     OW76274  11.667   5.657  13.904 -0.0010  0.2832 -0.0752
52761SOL    HW176275  11.714   5.729  13.948  0.6721 -0.0489 -0.2356
52761SOL    HW276276  11.652   5.593  13.973  1.0442 -0.2324 -0.3125
52762SOL     OW76277   3.479   3.295  10.117  0.4047 -0.4255 -0.0234
52762SOL    HW176278   3.548   3.289  10.184 -1.3972 -1.0118  1.9150
52762SOL    HW276279   3.434   3.377  10.137 -0.4385 -0.8324 -0.2351
52763SOL     OW76280   4.049  12.303  13.637 -0.8169 -0.0817  0.1708
52763SOL    HW176281   3.978  12.323  13.699  0.6752 -0.0471  1.9549
52763SOL    HW276282   4.116  12.262  13.691  0.8375  0.5760 -1.3160
52764SOL     OW76283  10.294  13.641   0.220  0.2634 -0.1070 -0.3856
52764SOL    HW176284  10.312  13.642   0.313  0.8271 -1.0547 -0.4839
52764SOL    HW276285  10.379  13.630   0.178 -0.0079  0.0909 -1.0069
52765SOL     OW76286   7.124   9.163  12.988 -0.3135  0.3022 -0.3582
52765SOL    HW176287   7.143   9.081  12.943  1.0536  1.0933 -1.3231
52765SOL    HW276288   7.157   9.231  12.929 -1.0113  1.5367  0.6022
52766SOL     OW76289   1.165   3.194   8.783  0.5520  0.0630  0.1879
52766SOL    HW176290   1.247   3.172   8.827  1.0230  0.6014 -0.4175
52766SOL    HW276291   1.158   3.131   8.712  0.2637 -0.2031  0.4491
52767SOL     OW76292  11.519   8.876  10.411  0.3622 -0.2809  0.1822
52767SOL    HW176293  11.477   8.789  10.416  2.1770 -1.1460  1.3172
52767SOL    HW276294  11.600   8.866  10.461  0.8032  1.9886  0.0003
52768SOL     OW76295   9.787  12.066   4.872  0.1454  0.4565  0.2045
52768SOL    HW176296   9.701  12.101   4.895  0.3444  0.7907  0.4523
52768SOL    HW276297   9.848  12.119   4.923  0.6044  1.1662 -1.0355
52769SOL     OW76298   4.353  13.216  10.477 -0.2508  0.0357 -0.4460
52769SOL    HW176299   4.403  13.177  10.404  0.4785  1.1026 -0.5291
52769SOL    HW276300   4.415  13.220  10.549 -1.2346 -1.9225  0.6007
52770SOL     OW76301   9.089   0.297  10.898 -0.2770  0.6932 -0.2354
52770SOL    HW176302   9.064   0.240  10.825  1.3253 -0.7336  0.2703
52770SOL    HW276303   9.172   0.337  10.870  0.5025 -0.0958  0.9082
52771SOL     OW76304   3.024   2.592   1.996 -0.1345  0.5201 -0.2714
52771SOL    HW176305   3.045   2.521   2.058 -1.5759 -0.3592 -0.7383
52771SOL    HW276306   3.018   2.548   1.911  0.7691  1.5366 -0.8810
52772SOL     OW76307   1.015  11.765   0.762  0.2641  0.0712  0.0229
52772SOL    HW176308   1.065  11.846   0.769  0.6177 -0.1323 -0.1274
52772SOL    HW276309   1.065  11.701   0.812  2.1172 -1.0517 -3.0127
52773SOL     OW76310  10.943  11.780  10.715 -0.2618 -0.4605  0.3468
52773SOL    HW176311  10.952  11.698  10.765  0.7392 -1.5837 -1.5619
52773SOL    HW276312  10.861  11.770  10.667 -0.4349 -0.0706  0.5558
52774SOL     OW76313   9.039  13.780  12.182 -0.6779  0.0161 -0.0468
52774SOL    HW176314   9.022  13.689  12.206 -0.0427  0.3901  1.9400
52774SOL    HW276315   8.970  13.830  12.226 -1.0481  0.5412 -1.1537
52775SOL     OW76316   3.578   2.086  11.219  0.2402  0.4760 -0.2374
52775SOL    HW176317   3.519   2.059  11.149 -0.3402  0.2336  0.3369
52775SOL    HW276318   3.535   2.056  11.299  0.7522  1.0066  0.2405
52776SOL     OW76319   0.079   9.020  11.653 -0.2607 -0.0339  0.0026
52776SOL    HW176320   0.165   9.045  11.686 -0.5303 -0.8646  1.3933
52776SOL    HW276321   0.017   9.053  11.718 -0.8686 -0.8922 -0.1147
52777SOL     OW76322   7.019   7.907   5.622 -0.3871  0.2184  0.8017
52777SOL    HW176323   6.936   7.937   5.659 -0.0702 -1.1077  2.7648
52777SOL    HW276324   7.039   7.827   5.671  0.6948 -1.0157 -1.5236
52778SOL     OW76325  14.090   5.439  10.917  0.4123 -0.5261 -0.2577
52778SOL    HW176326  14.083   5.425  10.822 -0.5488 -2.2531  0.0217
52778SOL    HW276327  14.116   5.353  10.951  2.0182  0.3834  0.9479
52779SOL     OW76328  13.584   7.383  12.129 -0.2940  0.2010 -0.4357
52779SOL    HW176329  13.578   7.293  12.161  2.8871 -0.7760 -2.1568
52779SOL    HW276330  13.569   7.437  12.207 -0.7775 -1.8215  0.9477
52780SOL     OW76331  13.755   9.683  10.669 -0.6403 -0.1414 -0.1931
52780SOL    HW176332  13.682   9.743  10.658 -1.2230 -0.7901  0.0758
52780SOL    HW276333  13.715   9.598  10.684  0.1424 -0.2727  1.3545
52781SOL     OW76334   3.976   6.500   3.946  0.0215 -0.2452  0.5770
52781SOL    HW176335   4.069   6.512   3.965  0.0625  2.0252 -0.8160
52781SOL    HW276336   3.957   6.560   3.874 -2.6637 -0.1796  1.2205
52782SOL     OW76337  12.771  10.051   7.529 -0.3975  0.0362 -0.6475
52782SOL    HW176338  12.771  10.144   7.507  1.4220  0.0003 -0.9437
52782SOL    HW276339  12.810  10.008   7.453 -2.8521 -1.2186 -1.2788
52783SOL     OW76340  10.676   5.694  13.576  0.2530 -0.0332 -0.5633
52783SOL    HW176341  10.760   5.661  13.543  0.4281  0.6416 -0.8063
52783SOL    HW276342  10.611   5.632  13.542  0.5873 -0.2141 -0.8844
52784SOL     OW76343   9.773   1.378  11.454  0.4162 -0.3521  0.5603
52784SOL    HW176344   9.776   1.470  11.425 -0.1927 -0.8896 -1.4072
52784SOL    HW276345   9.719   1.380  11.533 -0.8268  0.8434 -0.2508
52785SOL     OW76346   8.728   5.894   7.318  0.7751 -0.0353 -0.3599
52785SOL    HW176347   8.659   5.917   7.256 -1.2445 -1.1348  1.3312
52785SOL    HW276348   8.698   5.811   7.357  2.1677  0.3673  1.7184
52786SOL     OW76349  10.995   3.827  12.261 -0.0763  0.0249  0.7493
52786SOL    HW176350  10.980   3.889  12.189 -1.8637  0.5324  1.5066
52786SOL    HW276351  11.075   3.781  12.237 -1.3792 -0.8714 -2.3103
52787SOL     OW76352   1.132   3.332  12.942 -0.1756 -0.8972 -0.0220
52787SOL    HW176353   1.084   3.272  12.885  2.0720 -1.8005 -1.0614
52787SOL    HW276354   1.160   3.403  12.885  0.5422 -0.8739  0.3531
52788SOL     OW76355  12.068  12.519  12.625  0.6135  0.2669 -0.5504
52788SOL    HW176356  12.019  12.450  12.670 -0.8160  0.5532 -1.5781
52788SOL    HW276357  12.035  12.517  12.535  1.4942  1.4189 -0.9307
52789SOL     OW76358  11.341  10.125  11.877 -0.2306  0.0728 -0.2280
52789SOL    HW176359  11.250  10.152  11.887 -0.1812  0.0742  0.2396
52789SOL    HW276360  11.339  10.056  11.809 -0.6610 -0.3629  0.2209
52790SOL     OW76361   3.153  11.242  13.939  0.2903 -0.6989 -0.3510
52790SOL    HW176362   3.072  11.281  13.973  0.4192 -1.1781  0.5487
52790SOL    HW276363   3.185  11.305  13.874  0.1931  0.4221  0.6541
52791SOL     OW76364  10.864  11.343   6.267 -0.2771 -0.3167  0.5071
52791SOL    HW176365  10.882  11.327   6.174 -0.5723 -1.5578  0.6504
52791SOL    HW276366  10.810  11.422   6.268  1.2037  0.7490 -0.2456
52792SOL     OW76367   7.195   3.501   4.415  0.6470 -0.1122  0.3850
52792SOL    HW176368   7.168   3.416   4.380 -0.4607  0.3415  0.1097
52792SOL    HW276369   7.286   3.511   4.386  1.2242 -1.7429  1.4521
52793SOL     OW76370   7.744  12.771   8.486 -0.1953 -0.0941 -0.2052
52793SOL    HW176371   7.742  12.689   8.437  0.2049  0.0612 -0.4911
52793SOL    HW276372   7.662  12.815   8.462 -0.1600 -0.1706 -0.4712
52794SOL     OW76373  11.278   6.822   4.991 -0.7307 -0.4886 -0.4517
52794SOL    HW176374  11.302   6.911   4.964  0.1260 -0.8859 -1.0704
52794SOL    HW276375  11.299   6.818   5.084 -3.5022  0.8299  0.3282
52795SOL     OW76376  12.977   8.893   4.949 -0.5046  0.2177 -0.0854
52795SOL    HW176377  13.055   8.845   4.975 -0.2849  0.7973  0.3405
52795SOL    HW276378  12.904   8.838   4.979 -0.2588  0.3245  0.7263
52796SOL     OW76379  10.712   5.549  11.948  0.0714 -0.1328 -0.2124
52796SOL    HW176380  10.672   5.553  11.862 -0.4859  1.2802  0.0924
52796SOL    HW276381  10.749   5.461  11.953  0.2132 -0.1956 -1.9221
52797SOL     OW76382  11.938   1.378   0.133 -0.3889 -0.1698 -0.0722
52797SOL    HW176383  11.972   1.466   0.117  1.5430 -0.8909 -0.2583
52797SOL    HW276384  11.879   1.389   0.208  1.2555  1.0193  1.1315
52798SOL     OW76385   6.253   4.621   6.008  0.5292 -0.0893 -0.0685
52798SOL    HW176386   6.257   4.526   5.998  1.0234 -0.3937  2.3474
52798SOL    HW276387   6.301   4.638   6.089  1.0234  2.3115 -0.7977
52799SOL     OW76388   5.359   4.212   5.579 -0.3585 -0.2597  0.2305
52799SOL    HW176389   5.390   4.294   5.617 -0.8069 -0.3823  0.8676
52799SOL    HW276390   5.274   4.234   5.540 -0.2307 -0.3018 -0.0788
52800SOL     OW76391  11.657   0.540   9.618  0.6476  1.2138 -1.0046
52800SOL    HW176392  11.621   0.621   9.654 -0.3405  0.7763 -0.9701
52800SOL    HW276393  11.606   0.471   9.659  3.0466  0.4026  0.8077
52801SOL     OW76394   1.936  13.802   4.319 -1.0441  0.0940 -0.0250
52801SOL    HW176395   1.951  13.709   4.301  0.1406  0.3064 -0.2293
52801SOL    HW276396   1.855  13.804   4.370 -1.1414 -1.0431 -0.1135
52802SOL     OW76397   8.493  11.295  11.651 -0.4850 -0.2979 -0.1895
52802SOL    HW176398   8.528  11.314  11.564 -2.5227  1.4666 -0.6944
52802SOL    HW276399   8.475  11.201  11.649  0.9017 -0.5768 -1.0968
52803SOL     OW76400   0.325  13.687   4.332  0.1923 -0.2797  0.2779
52803SOL    HW176401   0.260  13.722   4.393 -0.5575 -0.3843 -0.4422
52803SOL    HW276402   0.296  13.597   4.314 -0.3391  0.1675 -1.2246
52804SOL     OW76403   5.150   6.121   9.968  0.5309 -0.3301  0.4795
52804SOL    HW176404   5.096   6.043   9.980  0.3815 -0.4408 -0.8046
52804SOL    HW276405   5.240   6.090   9.982  0.4937 -0.8020 -0.2598
52805SOL     OW76406  10.203  12.173   8.792  0.7938 -0.2816  0.6147
52805SOL    HW176407  10.114  12.199   8.817  0.3598 -0.6134 -0.5153
52805SOL    HW276408  10.211  12.083   8.822  0.6234 -0.3620  0.4199
52806SOL     OW76409   9.516   9.667   3.671  0.5860 -0.6757  0.6174
52806SOL    HW176410   9.541   9.731   3.604  1.2298 -0.2756  1.2295
52806SOL    HW276411   9.449   9.613   3.628  0.8055 -0.2713 -0.2621
52807SOL     OW76412   9.847  10.519  10.168  0.1181  0.3550  0.9820
52807SOL    HW176413   9.789  10.444  10.156 -0.1738  0.8165 -0.7340
52807SOL    HW276414   9.913  10.489  10.231 -0.1804 -1.2205  0.5776
52808SOL     OW76415   8.391   7.017   4.392  0.0988 -0.1365 -0.3924
52808SOL    HW176416   8.412   6.967   4.471  1.1205 -0.6172 -0.9442
52808SOL    HW276417   8.475   7.057   4.367 -0.6001  1.5002 -0.2233
52809SOL     OW76418   9.737   4.129  12.883 -0.2649 -0.0966  0.0963
52809SOL    HW176419   9.763   4.046  12.923  0.4377  0.0009 -0.1527
52809SOL    HW276420   9.743   4.193  12.955 -1.4585 -0.3632  0.4632
52810SOL     OW76421   8.023   1.553   0.011 -0.4810  0.3552 -0.2775
52810SOL    HW176422   7.971   1.510   0.079 -1.0289  0.6370 -0.5093
52810SOL    HW276423   8.005   1.502  -0.068  0.2718 -0.0645 -0.1904
52811SOL     OW76424  11.836  13.807   9.958  0.1183  0.2987 -0.3191
52811SOL    HW176425  11.862  13.715   9.964  2.6327  1.0042  0.7167
52811SOL    HW276426  11.862  13.833   9.869  3.4213  1.0126  0.7166
52812SOL     OW76427   7.517  12.437   5.716 -0.6670  0.4034  0.2299
52812SOL    HW176428   7.575  12.451   5.791 -0.0156  0.5432 -0.2893
52812SOL    HW276429   7.469  12.520   5.708 -3.2667 -0.7286  2.5716
52813SOL     OW76430   1.157  10.931  13.543 -0.1431 -0.2656 -0.6717
52813SOL    HW176431   1.176  11.023  13.562 -0.5567  0.2875 -2.7334
52813SOL    HW276432   1.117  10.899  13.624 -0.7638  1.5886 -0.1763
52814SOL     OW76433   0.765  13.579   3.160 -0.4183 -0.3583 -0.3100
52814SOL    HW176434   0.695  13.622   3.109 -0.8306 -3.2136 -2.3882
52814SOL    HW276435   0.725  13.563   3.245 -1.4520  0.2713 -0.6469
52815SOL     OW76436   2.208   0.659   7.713  0.1854  1.0106  0.1601
52815SOL    HW176437   2.168   0.649   7.799 -1.2182 -0.0434 -0.5721
52815SOL    HW276438   2.270   0.587   7.706 -0.5506  0.3938 -0.1409
52816SOL     OW76439   3.013  11.431   9.529 -0.2068 -0.0983 -0.3504
52816SOL    HW176440   3.009  11.433   9.625 -4.1041  1.6415 -0.3629
52816SOL    HW276441   3.012  11.338   9.507  0.8985 -0.5318  1.2416
52817SOL     OW76442   7.086   2.560  13.261 -0.5691 -0.3441 -0.0049
52817SOL    HW176443   7.124   2.570  13.348 -1.8292  0.9972  0.4319
52817SOL    HW276444   7.121   2.634  13.211 -2.1469  0.6258  0.2634
52818SOL     OW76445   1.209   1.700   2.761 -0.7093 -0.2938 -0.5883
52818SOL    HW176446   1.116   1.678   2.754 -0.8884  0.5966 -1.2754
52818SOL    HW276447   1.239   1.703   2.670 -0.2880  0.5393 -0.4313
52819SOL     OW76448   9.445   9.700   2.812  0.5502  0.3124  0.5322
52819SOL    HW176449   9.432   9.636   2.743  2.3674  1.5151 -1.0237
52819SOL    HW276450   9.376   9.681   2.876 -0.3378 -1.7155 -0.9299
52820SOL     OW76451  10.845  12.192  10.847 -0.0940 -0.6592  0.3732
52820SOL    HW176452  10.911  12.189  10.778 -1.0705  1.0546 -0.6809
52820SOL    HW276453  10.885  12.245  10.916  0.1717 -0.8634  0.3806
52821SOL     OW76454  11.856  13.377   9.324 -0.1278 -0.4007  0.0681
52821SOL    HW176455  11.872  13.302   9.266 -0.6956 -1.9888  1.8669
52821SOL    HW276456  11.929  13.436   9.306 -0.5442 -0.5556 -2.6041
52822SOL     OW76457   6.991   6.986   2.301  0.3129 -0.1375 -0.0069
52822SOL    HW176458   6.942   6.907   2.323 -0.2864  0.0049 -0.7522
52822SOL    HW276459   7.064   6.956   2.248  0.0619 -0.1995 -0.3249
52823SOL     OW76460  12.447  10.615   9.757  0.0643  0.5603 -0.0160
52823SOL    HW176461  12.539  10.642   9.763  0.2849 -0.2831  0.4455
52823SOL    HW276462  12.413  10.627   9.845  0.0073 -0.1145  0.0532
52824SOL     OW76463   0.793   8.450   9.461  0.3306  0.3264  0.3003
52824SOL    HW176464   0.877   8.480   9.495  0.8346 -1.2602  0.5170
52824SOL    HW276465   0.795   8.355   9.472 -0.2771 -0.0699 -2.3698
52825SOL     OW76466  11.983   4.053   9.519 -0.3706  0.6465 -0.7222
52825SOL    HW176467  11.978   4.009   9.604 -0.0665 -0.7745 -1.3995
52825SOL    HW276468  12.056   4.010   9.475 -1.5198  0.2233 -2.2949
52826SOL     OW76469   6.670  12.973   3.406  0.5849 -0.1380 -0.1068
52826SOL    HW176470   6.734  13.038   3.377  0.5181  0.7397  1.5442
52826SOL    HW276471   6.719  12.891   3.409  1.0667  0.1157 -0.8470
52827SOL     OW76472   5.981   2.659   7.036 -0.1805 -0.5064 -0.4705
52827SOL    HW176473   5.980   2.755   7.041  1.0342 -0.4532 -0.9391
52827SOL    HW276474   6.006   2.639   6.946 -1.5735 -1.2933 -0.7123
52828SOL     OW76475  12.082   6.889   4.262  0.7558  0.4154 -0.2734
52828SOL    HW176476  12.078   6.935   4.179 -1.2014 -0.3398 -0.6582
52828SOL    HW276477  12.132   6.809   4.243 -0.4609 -0.2030 -0.9911
52829SOL     OW76478   5.955   6.431   8.438 -0.2068 -0.6234 -0.1664
52829SOL    HW176479   5.951   6.410   8.531 -2.6667  2.4484  0.5980
52829SOL    HW276480   6.040   6.472   8.425 -0.7943  1.2108  1.3931
52830SOL     OW76481   9.707   8.862   7.621  0.1802  0.4903 -0.4232
52830SOL    HW176482   9.664   8.948   7.625 -1.4930 -0.3311  0.2906
52830SOL    HW276483   9.712   8.842   7.527  2.0265  2.0044 -0.7065
52831SOL     OW76484   1.861   1.701   0.289  0.2990 -0.4596 -0.0672
52831SOL    HW176485   1.782   1.707   0.343 -0.3454 -0.5000 -0.9672
52831SOL    HW276486   1.854   1.776   0.229  2.6619  1.6003  1.9577
52832SOL     OW76487   8.268  11.534   5.023  0.3399 -0.2973  0.5640
52832SOL    HW176488   8.338  11.469   5.020 -1.4648 -2.3136 -2.6670
52832SOL    HW276489   8.196  11.490   5.069 -0.2738  0.1055 -0.0030
52833SOL     OW76490  12.510   1.267  11.767  0.1170  0.2467 -0.3709
52833SOL    HW176491  12.567   1.212  11.713  1.6393  1.2578  0.1388
52833SOL    HW276492  12.562   1.346  11.783 -0.3273  0.0481  2.4536
52834SOL     OW76493   2.707  10.347   7.034  0.6525 -0.4775  0.1047
52834SOL    HW176494   2.641  10.320   6.971  0.7547  2.3173 -1.3772
52834SOL    HW276495   2.657  10.369   7.113  0.2228 -1.5872  0.1521
52835SOL     OW76496   7.630   3.048  12.213  0.4192  0.1019  0.3263
52835SOL    HW176497   7.542   3.028  12.245  0.3503 -0.6874 -0.3380
52835SOL    HW276498   7.625   3.141  12.188 -0.1921  0.0934  0.3950
52836SOL     OW76499   9.416   6.662  11.948  0.1065 -0.3376 -0.0912
52836SOL    HW176500   9.506   6.634  11.936 -0.2146 -1.5332  0.1492
52836SOL    HW276501   9.396   6.643  12.040 -0.9193 -1.7612 -0.5686
52837SOL     OW76502  11.814   7.632  13.258 -0.6537 -0.7669 -0.6291
52837SOL    HW176503  11.788   7.724  13.262  0.4865 -0.4410 -0.2201
52837SOL    HW276504  11.873   7.620  13.333 -0.7153 -1.8083 -0.7267
52838SOL     OW76505   4.983  13.657   5.882 -0.0907  0.2496 -0.4018
52838SOL    HW176506   5.009  13.644   5.974 -0.7190  1.1176 -0.0884
52838SOL    HW276507   4.919  13.727   5.885  0.2700  0.6536 -1.5802
52839SOL     OW76508   2.852   4.117   0.096 -0.0081  0.3635 -0.3021
52839SOL    HW176509   2.896   4.044   0.054  1.1300  0.4091  0.7617
52839SOL    HW276510   2.759   4.093   0.095  0.3854 -1.2778  0.3683
52840SOL     OW76511  10.075   2.474   8.536  0.1336  0.0243 -0.2399
52840SOL    HW176512  10.073   2.380   8.517  0.3111  0.1162 -0.7191
52840SOL    HW276513  10.088   2.516   8.451  1.2763  0.4302  0.1190
52841SOL     OW76514   5.739   1.165  11.797  0.0444 -0.5774 -0.1945
52841SOL    HW176515   5.721   1.142  11.706  1.4439  1.2661 -1.0195
52841SOL    HW276516   5.704   1.254  11.807  2.0966  0.2515  0.2525
52842SOL     OW76517   3.519   8.920   0.908 -0.4626  0.1654 -0.4687
52842SOL    HW176518   3.543   8.884   0.822  2.8861 -0.2878  0.5047
52842SOL    HW276519   3.558   9.008   0.909  0.6905 -0.3259  1.0112
52843SOL     OW76520  12.536  12.152  11.918  0.0137 -0.4892 -0.2276
52843SOL    HW176521  12.540  12.058  11.902  4.1108 -0.6383  0.7823
52843SOL    HW276522  12.572  12.163  12.006 -2.4509  1.9695  0.6363
52844SOL     OW76523  10.275   7.450   1.269 -0.0480  1.0352 -0.5373
52844SOL    HW176524  10.296   7.520   1.207  0.8082  1.0488 -0.2466
52844SOL    HW276525  10.327   7.470   1.347 -0.6328  0.6723 -0.0449
52845SOL     OW76526  13.780   6.017   9.320  0.2214 -0.0510  0.6816
52845SOL    HW176527  13.831   5.966   9.257 -0.3496 -0.9843  0.9540
52845SOL    HW276528  13.808   6.107   9.306  1.9890 -0.5246  0.8569
52846SOL     OW76529   6.080   8.285   9.445  0.3422 -0.0160 -0.3692
52846SOL    HW176530   6.098   8.271   9.538  1.4090  0.4558 -0.4924
52846SOL    HW276531   6.085   8.198   9.406 -0.6034 -0.2880  0.0792
52847SOL     OW76532   6.236   2.822   4.137 -0.4951  0.1927 -0.2284
52847SOL    HW176533   6.183   2.814   4.057 -0.8778 -0.8370  0.1142
52847SOL    HW276534   6.175   2.804   4.208  0.0613  0.1140  0.2395
52848SOL     OW76535  10.406  11.207   9.116 -0.2567  0.0281 -0.0346
52848SOL    HW176536  10.473  11.229   9.181 -0.8257  0.2556  0.4876
52848SOL    HW276537  10.363  11.291   9.097 -0.9246 -0.2495  0.2437
52849SOL     OW76538   5.899   0.972  12.547 -0.2831 -0.3208  0.5800
52849SOL    HW176539   5.892   0.899  12.485 -0.6365  0.0879  0.1198
52849SOL    HW276540   5.946   1.040  12.498 -0.9581  0.1685  0.5906
52850SOL     OW76541   1.207  14.051   2.756  0.1538  0.5096 -0.1340
52850SOL    HW176542   1.225  14.052   2.662  0.9589 -1.3134 -0.0517
52850SOL    HW276543   1.226  13.961   2.782  0.8738  1.2108  1.9563
52851SOL     OW76544   2.576  10.446  11.938  0.0528 -0.0144  0.2437
52851SOL    HW176545   2.497  10.411  11.979  0.1189 -0.0168  0.3713
52851SOL    HW276546   2.648  10.410  11.990  0.1566 -0.3199 -0.1007
52852SOL     OW76547  10.394   1.429   1.955  0.2933 -0.2170 -0.5246
52852SOL    HW176548  10.422   1.346   1.992 -0.7723  0.2786  1.5410
52852SOL    HW276549  10.329   1.405   1.888  2.1910 -1.1213 -2.1370
52853SOL     OW76550   4.835   5.728   6.161 -0.1316  0.4782 -0.4555
52853SOL    HW176551   4.887   5.751   6.238 -1.5361 -0.8489  0.9542
52853SOL    HW276552   4.804   5.813   6.127  0.0541  1.0633  0.7736
52854SOL     OW76553   0.478  10.022   1.812  0.0272  0.0773 -0.2587
52854SOL    HW176554   0.511   9.979   1.733  0.1913  0.8404 -0.6094
52854SOL    HW276555   0.436   9.951   1.862  1.5332 -0.7916 -0.1402
52855SOL     OW76556  11.507   9.122  12.154  0.0044  0.3396  0.0675
52855SOL    HW176557  11.531   9.045  12.206 -1.1717  1.9853  3.2755
52855SOL    HW276558  11.588   9.173  12.149  0.3939 -0.3173 -0.7490
52856SOL     OW76559  10.282   2.873  10.911 -0.4843 -0.0085 -0.0255
52856SOL    HW176560  10.328   2.956  10.900 -0.3555  0.1348  1.4718
52856SOL    HW276561  10.215   2.874  10.843  0.2222  0.8188 -0.7315
52857SOL     OW76562   9.353   2.139   9.479  0.2757  0.5277 -0.2052
52857SOL    HW176563   9.430   2.185   9.447  0.5740  0.2182  0.0653
52857SOL    HW276564   9.282   2.203   9.472  0.9508  1.5180  1.4881
52858SOL     OW76565   9.737   1.062  12.401 -0.9115  0.2300  0.6754
52858SOL    HW176566   9.658   1.037  12.449 -2.4066  0.1367 -1.6881
52858SOL    HW276567   9.715   1.048  12.309  2.0260 -0.1797 -0.0669
52859SOL     OW76568   4.458  13.213   6.443 -0.3586  0.0587 -0.0099
52859SOL    HW176569   4.493  13.201   6.355  0.3820 -0.9762  0.3959
52859SOL    HW276570   4.373  13.254   6.430 -0.2822 -0.1293 -1.2083
52860SOL     OW76571   2.004   0.503   3.392 -0.2141  0.4570  0.4346
52860SOL    HW176572   1.981   0.523   3.302 -1.2227  0.5768  0.7068
52860SOL    HW276573   2.096   0.478   3.388 -0.3236  0.1778 -0.6669
52861SOL     OW76574   9.823  11.994  12.234 -0.0304 -0.0695  0.3069
52861SOL    HW176575   9.809  12.070  12.291  1.1398  0.8625 -0.6096
52861SOL    HW276576   9.891  11.944  12.278 -0.3756 -0.2850  0.6051
52862SOL     OW76577   2.955   7.912   6.258  0.5987  0.0702 -0.1919
52862SOL    HW176578   2.999   7.990   6.223 -1.1505  0.1120 -2.4870
52862SOL    HW276579   2.871   7.909   6.212 -0.9078 -1.2206  2.4279
52863SOL     OW76580   8.648  10.846   9.350  0.3323 -0.1332 -0.0114
52863SOL    HW176581   8.734  10.803   9.359  0.4592  0.3979  1.6191
52863SOL    HW276582   8.668  10.930   9.310  0.8111  0.6334  1.7549
52864SOL     OW76583  13.606  12.266   1.357 -0.2057  0.3358 -0.5967
52864SOL    HW176584  13.702  12.259   1.354 -0.1365  0.3592  0.7885
52864SOL    HW276585  13.580  12.270   1.265  1.1438  0.6200 -1.0033
52865SOL     OW76586   5.582   8.931  12.967 -0.2619  0.2224 -0.0256
52865SOL    HW176587   5.494   8.942  12.931 -0.0893  0.3604 -0.4024
52865SOL    HW276588   5.602   8.838  12.954 -0.0843  0.3318 -0.5498
52866SOL     OW76589  12.299   0.249   8.066 -0.1712 -0.1002 -0.2239
52866SOL    HW176590  12.301   0.162   8.027  0.1247 -0.2833  0.1968
52866SOL    HW276591  12.215   0.253   8.111 -0.2523 -0.1073 -0.3708
52867SOL     OW76592   0.459   2.595   8.095 -0.2612 -0.2778  0.0245
52867SOL    HW176593   0.529   2.619   8.156  0.0586 -1.0329 -0.0264
52867SOL    HW276594   0.492   2.516   8.053 -2.1050 -2.0168  1.6457
52868SOL     OW76595  12.667   8.934   7.786  0.8545  0.0612  0.0578
52868SOL    HW176596  12.648   8.843   7.766 -0.0372  0.1073  0.6268
52868SOL    HW276597  12.753   8.932   7.829  0.9604 -0.4675 -0.1703
52869SOL     OW76598  11.103   3.188  12.944 -0.2187  0.1632 -1.0271
52869SOL    HW176599  11.041   3.126  12.983 -0.7230  0.3356 -1.5559
52869SOL    HW276600  11.053   3.268  12.931  0.0321  0.2132 -1.7356
52870SOL     OW76601  13.550   9.901   5.004 -0.0018 -0.0103  0.4414
52870SOL    HW176602  13.589   9.831   4.951  0.3328 -0.1782  0.8910
52870SOL    HW276603  13.622   9.930   5.061  0.5717  2.3427 -1.3243
52871SOL     OW76604   6.412  12.617   5.255  0.3247  0.0158 -0.1490
52871SOL    HW176605   6.379  12.549   5.314 -0.6764  0.1974 -0.4895
52871SOL    HW276606   6.396  12.582   5.167 -0.5309  0.8508 -0.3282
52872SOL     OW76607   4.809   0.856   0.920 -0.0109  0.0623 -0.3960
52872SOL    HW176608   4.829   0.774   0.875 -2.2950 -0.9559  0.2687
52872SOL    HW276609   4.841   0.843   1.009  1.0236  0.5466 -0.6804
52873SOL     OW76610   0.826   6.560  14.105 -0.0994 -0.4158 -0.3858
52873SOL    HW176611   0.896   6.545  14.042 -1.0795  0.1271 -1.6564
52873SOL    HW276612   0.745   6.545  14.056 -0.9199  0.5340  0.5955
52874SOL     OW76613   7.068  11.354   8.178 -0.5701 -0.2611  0.4573
52874SOL    HW176614   7.112  11.272   8.200 -0.5856 -0.9711 -1.8700
52874SOL    HW276615   7.075  11.360   8.083 -1.7759  1.7717  0.4359
52875SOL     OW76616   0.685   2.844   5.707  0.1178  0.2979  0.5015
52875SOL    HW176617   0.732   2.765   5.678  0.5385  0.6653  0.1765
52875SOL    HW276618   0.644   2.818   5.790 -0.1162 -0.4003  0.1801
52876SOL     OW76619  13.899  11.278   5.756  0.4412  0.5846 -0.0843
52876SOL    HW176620  13.944  11.197   5.782 -0.0636 -0.3253 -1.8755
52876SOL    HW276621  13.873  11.262   5.665 -1.9649  1.7666  0.3435
52877SOL     OW76622  14.053  10.679   0.929  0.0630  0.1654  0.4304
52877SOL    HW176623  13.990  10.707   0.995  0.4154  0.0499  0.8230
52877SOL    HW276624  14.097  10.760   0.902 -0.2951  0.2528  0.1124
52878SOL     OW76625  11.560   0.733   6.255 -0.2030  0.1545  0.6818
52878SOL    HW176626  11.478   0.759   6.214  0.8210 -1.3177 -2.6395
52878SOL    HW276627  11.549   0.640   6.275  0.6792 -0.0718  0.1375
52879SOL     OW76628   1.518   9.627   3.270 -0.1253  0.3820 -0.3423
52879SOL    HW176629   1.582   9.676   3.219  1.7158  1.0509  2.4120
52879SOL    HW276630   1.540   9.535   3.253  0.2301  0.5708 -0.9693
52880SOL     OW76631   1.743   0.108  11.844 -0.4676 -0.3600  0.5776
52880SOL    HW176632   1.739   0.198  11.874  1.1494 -0.5362  1.4456
52880SOL    HW276633   1.790   0.061  11.914 -0.1341 -1.5960 -0.4288
52881SOL     OW76634  13.402  11.258  13.990 -0.2987  0.2043  0.2991
52881SOL    HW176635  13.406  11.182  14.048  0.6279  0.4324  0.5552
52881SOL    HW276636  13.398  11.333  14.050  1.0418  0.4605  0.0983
52882SOL     OW76637   6.775   7.035   5.621 -0.1329  0.6473  0.7686
52882SOL    HW176638   6.866   7.063   5.632  0.3522 -0.4930 -0.2373
52882SOL    HW276639   6.738   7.098   5.559  1.0983 -1.0945 -1.8993
52883SOL     OW76640  11.350  10.419   4.099  0.6389 -0.2885 -0.4726
52883SOL    HW176641  11.287  10.376   4.041 -1.4362 -1.4082  2.3298
52883SOL    HW276642  11.327  10.512   4.095 -1.2535 -0.6585  0.3882
52884SOL     OW76643  11.188   0.852  10.336 -0.1393  0.0027  0.4998
52884SOL    HW176644  11.275   0.827  10.366 -0.4500 -0.8550  0.6988
52884SOL    HW276645  11.129   0.821  10.404 -0.7585 -1.0276 -0.4755
52885SOL     OW76646  10.078  11.032   0.977  0.2158  0.2020 -0.2002
52885SOL    HW176647  10.042  11.114   0.944 -0.1094 -0.1288 -0.6983
52885SOL    HW276648  10.001  10.980   1.001  0.2923 -0.7729 -1.8967
52886SOL     OW76649   3.254   6.923   9.053  0.1799  0.5043  0.1696
52886SOL    HW176650   3.211   6.843   9.084  0.5957 -0.6724 -2.1259
52886SOL    HW276651   3.317   6.944   9.122  0.3733 -1.4040  0.6184
52887SOL     OW76652   3.336   0.429   2.600 -0.5271  0.0839  0.1257
52887SOL    HW176653   3.268   0.388   2.655 -1.0969 -0.7426 -1.1591
52887SOL    HW276654   3.297   0.510   2.570 -0.7815 -0.1786 -0.2553
52888SOL     OW76655  13.849  11.008  11.968 -0.9868 -0.1664 -0.0604
52888SOL    HW176656  13.768  11.015  11.918 -0.6054  0.1977 -0.6441
52888SOL    HW276657  13.918  11.026  11.904 -0.5549  2.0596  0.9479
52889SOL     OW76658   4.923  10.870   5.002  0.1722  0.6047  0.0134
52889SOL    HW176659   4.949  10.794   5.054  0.5388  0.3611 -0.5104
52889SOL    HW276660   4.908  10.939   5.066 -2.5203 -0.5266  0.7492
52890SOL     OW76661  12.988   5.007   4.465  0.0294  0.2765  0.2476
52890SOL    HW176662  13.081   4.984   4.454 -0.0104  0.8503 -1.4878
52890SOL    HW276663  12.990   5.093   4.507  0.3180  0.6810 -0.5687
52891SOL     OW76664   4.990   6.399   7.630  0.5059  0.0851 -0.2912
52891SOL    HW176665   4.967   6.471   7.689 -0.1666 -0.6591  0.3894
52891SOL    HW276666   4.946   6.420   7.548 -1.8187 -0.7597  0.6577
52892SOL     OW76667   3.149   9.378   5.372 -0.0637 -0.3042  0.3086
52892SOL    HW176668   3.109   9.391   5.286  1.0625 -1.0558 -0.3599
52892SOL    HW276669   3.090   9.318   5.417 -0.5247 -0.1274 -0.0497
52893SOL     OW76670  13.340   4.256   6.599  0.0284 -0.3119  0.1542
52893SOL    HW176671  13.316   4.181   6.544 -0.1048 -1.4028  1.6339
52893SOL    HW276672  13.422   4.230   6.640  1.0051  1.1834 -0.7499
52894SOL     OW76673   4.540   4.962   2.526 -0.2955  0.1707  0.7967
52894SOL    HW176674   4.566   4.875   2.555  1.0449 -0.2691 -1.4824
52894SOL    HW276675   4.460   4.948   2.476 -0.4143  0.3565  0.9312
52895SOL     OW76676  10.735   0.303   0.524  0.1026 -0.3075  0.0036
52895SOL    HW176677  10.660   0.290   0.583  0.3314  0.5479  0.4957
52895SOL    HW276678  10.764   0.393   0.541  0.9842 -0.4868 -0.4833
52896SOL     OW76679  11.821  11.857   0.193  0.2210 -0.3757 -0.5105
52896SOL    HW176680  11.783  11.922   0.135 -1.4072 -0.9363 -0.1221
52896SOL    HW276681  11.914  11.857   0.171  0.2796  2.0886 -0.4707
52897SOL     OW76682  12.420  12.358   0.531  0.7644  0.2071  0.3484
52897SOL    HW176683  12.461  12.420   0.591 -1.0157  1.3141  0.4967
52897SOL    HW276684  12.386  12.289   0.588 -0.9157  1.2520  0.6736
52898SOL     OW76685   6.585  10.823   9.640  0.1039 -0.1819 -0.3371
52898SOL    HW176686   6.555  10.912   9.659  1.7516  0.2971  0.1646
52898SOL    HW276687   6.577  10.815   9.545  2.2621  1.4511 -0.7462
52899SOL     OW76688   2.330   4.079  13.275  0.5353  0.1067  0.0683
52899SOL    HW176689   2.339   4.148  13.209 -0.9897  1.7552  1.4592
52899SOL    HW276690   2.336   4.126  13.358  0.2479 -1.5801  1.0658
52900SOL     OW76691  12.132   5.823  14.092  0.0344 -0.1002  0.1752
52900SOL    HW176692  12.217   5.847  14.129 -1.0145  0.0174  2.6525
52900SOL    HW276693  12.154   5.780  14.009  2.4540  0.5550  0.3902
52901SOL     OW76694  11.959   3.885   7.837  0.2652  0.3641  0.1064
52901SOL    HW176695  11.965   3.911   7.929  1.8278 -0.8887  0.4138
52901SOL    HW276696  11.883   3.827   7.833 -0.3937  1.1812  0.3776
52902SOL     OW76697   4.090   0.662  10.305  0.1264  0.1205  0.1805
52902SOL    HW176698   4.099   0.727  10.235 -0.9483 -0.6653 -0.7197
52902SOL    HW276699   4.106   0.578  10.262 -0.2045 -0.3544  0.9609
52903SOL     OW76700   4.638   9.734   0.438  0.1121  0.5709  0.7603
52903SOL    HW176701   4.641   9.724   0.343 -0.5262 -0.7042  0.8557
52903SOL    HW276702   4.727   9.760   0.462  1.4944 -3.1052  0.2070
52904SOL     OW76703  10.895   4.884   6.875  0.2007  0.5627 -0.6330
52904SOL    HW176704  10.837   4.819   6.835  1.0541  0.3275 -1.5344
52904SOL    HW276705  10.965   4.833   6.915  0.1630  0.8754 -0.1621
52905SOL     OW76706   1.801   9.863   5.505  0.4458  0.8678 -0.1066
52905SOL    HW176707   1.743   9.913   5.563 -0.9357 -0.1180 -0.5745
52905SOL    HW276708   1.847   9.803   5.564  1.7014  2.2548  0.3844
52906SOL     OW76709  12.384   1.632  11.140  0.3458 -0.1632 -0.0650
52906SOL    HW176710  12.388   1.659  11.232 -1.0071  0.6787 -0.2201
52906SOL    HW276711  12.346   1.544  11.142  0.4108 -0.1867  0.1782
52907SOL     OW76712   1.717  11.978   2.955  0.6564  0.4465 -0.0913
52907SOL    HW176713   1.690  11.888   2.975 -0.9119  0.7603 -0.6777
52907SOL    HW276714   1.725  12.020   3.040  0.5648 -0.0276  0.1564
52908SOL     OW76715   2.138   8.951   4.338  0.0487 -0.4224  0.4409
52908SOL    HW176716   2.135   8.925   4.430  0.2586  0.4469  0.6969
52908SOL    HW276717   2.220   8.999   4.329 -0.9180  1.2829  0.2881
52909SOL     OW76718   9.129   8.118  11.300  0.3780 -0.2854 -0.2874
52909SOL    HW176719   9.132   8.074  11.215 -1.1500 -1.5766  0.2679
52909SOL    HW276720   9.081   8.199  11.284 -0.6492 -0.9228 -0.5321
52910SOL     OW76721   5.232  12.005   8.715 -0.3625  0.2072 -0.2552
52910SOL    HW176722   5.168  12.075   8.702 -0.1110  1.2278  3.1164
52910SOL    HW276723   5.307  12.048   8.757  0.5502 -1.7665  0.2627
52911SOL     OW76724   0.087   0.775   2.238 -0.0319  0.1428  0.5181
52911SOL    HW176725   0.019   0.750   2.175  0.9186  0.6504 -0.7525
52911SOL    HW276726   0.127   0.692   2.263 -0.6735 -0.0988  0.7867
52912SOL     OW76727   1.345   7.790   4.091  0.1919  0.7835  0.1951
52912SOL    HW176728   1.434   7.816   4.067 -0.9649  2.5777 -2.6138
52912SOL    HW276729   1.324   7.844   4.167  1.3758  0.4885  0.7618
52913SOL     OW76730   9.357  12.541  11.843  0.9469  0.0657 -0.1038
52913SOL    HW176731   9.371  12.461  11.894  0.5956 -0.2262 -0.4573
52913SOL    HW276732   9.443  12.584  11.843  1.0549 -0.1399  0.3716
52914SOL     OW76733   6.434  13.599   5.333  0.2070  0.6352  0.6058
52914SOL    HW176734   6.477  13.514   5.320 -0.3326  0.4408  0.0634
52914SOL    HW276735   6.499  13.663   5.304  0.4388  0.3858  0.5665
52915SOL     OW76736   8.240   2.714   6.059 -0.0906 -0.4549 -0.2900
52915SOL    HW176737   8.207   2.768   5.987 -1.3190 -0.4456  0.2535
52915SOL    HW276738   8.163   2.666   6.090  0.2193  0.1041  1.4880
52916SOL     OW76739  13.485   7.727   1.401  0.1208  0.1984 -0.2591
52916SOL    HW176740  13.486   7.670   1.478  0.9791  1.9324  1.0870
52916SOL    HW276741  13.438   7.676   1.334 -1.5338 -0.9905  1.6859
52917SOL     OW76742   8.387   1.886  13.558 -0.1496  0.7151  0.4064
52917SOL    HW176743   8.324   1.890  13.486  2.0465  0.1734 -1.6868
52917SOL    HW276744   8.440   1.965  13.546  2.1020 -0.8294 -0.5072
52918SOL     OW76745   2.004   7.811   5.528 -0.0634 -0.1981  0.2785
52918SOL    HW176746   1.924   7.765   5.503  0.6538 -1.5279  0.3265
52918SOL    HW276747   1.984   7.847   5.614 -0.9443  0.3515 -0.1386
52919SOL     OW76748   3.057   6.951  14.129  0.8338  0.2166 -0.8297
52919SOL    HW176749   3.036   6.924  14.039 -0.6455  1.1522 -0.8057
52919SOL    HW276750   3.010   6.889  14.184  2.3705 -0.8373 -0.6549
52920SOL     OW76751  12.743  11.139  12.724 -0.0362 -0.4548  0.2276
52920SOL    HW176752  12.784  11.054  12.708 -0.1638 -0.2929 -1.1375
52920SOL    HW276753  12.687  11.125  12.800  1.2545 -1.1140  1.0893
52921SOL     OW76754   0.650   1.332   5.699  0.5225  0.1140  0.2293
52921SOL    HW176755   0.693   1.377   5.772 -0.3681  2.2736 -0.4727
52921SOL    HW276756   0.655   1.395   5.626  1.0729 -1.8140 -1.5144
52922SOL     OW76757  10.473   6.761   0.206 -0.5230  0.1555  0.5236
52922SOL    HW176758  10.502   6.847   0.177  0.1139  0.0541  0.8529
52922SOL    HW276759  10.378   6.770   0.217 -0.4080  0.9075  0.9076
52923SOL     OW76760   5.977   1.269   3.374  0.2059  0.1783 -0.0415
52923SOL    HW176761   6.031   1.346   3.353  0.6418 -0.3207 -0.7714
52923SOL    HW276762   6.007   1.241   3.461  0.0646  0.8044  0.2174
52924SOL     OW76763   1.118  13.744  11.033  0.0615  0.3379 -0.2766
52924SOL    HW176764   1.070  13.732  11.115  0.3778  1.1058  0.0254
52924SOL    HW276765   1.172  13.821  11.048 -1.9291  2.2474 -2.1517
52925SOL     OW76766   6.532  11.731  12.532 -0.3266 -0.5229  0.0462
52925SOL    HW176767   6.529  11.638  12.552  0.4826 -0.5915 -0.1211
52925SOL    HW276768   6.521  11.774  12.616  4.5580 -0.8073  1.0915
52926SOL     OW76769  12.808   7.616  11.838 -0.3555 -0.8482  0.0963
52926SOL    HW176770  12.851   7.623  11.753 -1.8574 -1.0409 -0.7204
52926SOL    HW276771  12.786   7.523  11.847 -0.9351 -0.6986  0.3053
52927SOL     OW76772  13.611  11.517  11.597  0.0326  0.0081  0.4529
52927SOL    HW176773  13.606  11.425  11.621  0.6362  0.0297  0.6684
52927SOL    HW276774  13.534  11.532  11.542 -0.6716 -0.3477  1.3314
52928SOL     OW76775  12.367   5.729   0.633  0.1716 -0.4360  0.0514
52928SOL    HW176776  12.457   5.759   0.632  0.1595 -0.1849 -2.9048
52928SOL    HW276777  12.323   5.787   0.694  1.5207  1.1780 -0.4381
52929SOL     OW76778   9.776   4.560   4.599  0.0124 -0.1588  0.1023
52929SOL    HW176779   9.718   4.590   4.530 -0.9783 -0.6636  0.7019
52929SOL    HW276780   9.793   4.468   4.578 -1.9348 -0.9263  1.5793
52930SOL     OW76781   5.850   9.195  11.370 -0.4833  0.7279 -0.0160
52930SOL    HW176782   5.816   9.272  11.415  1.0615  0.7316  1.2206
52930SOL    HW276783   5.803   9.193  11.286 -1.1182  2.5457  0.2615
52931SOL     OW76784  13.078  13.988   1.039 -0.4919 -0.4368  0.0818
52931SOL    HW176785  13.082  13.901   0.999  1.4586 -1.0053  1.3757
52931SOL    HW276786  12.999  13.986   1.093 -0.9774 -1.0427 -0.6206
52932SOL     OW76787  10.564   1.525  13.455  0.5484  0.1634  0.2438
52932SOL    HW176788  10.624   1.577  13.401 -0.5135 -1.0107 -2.2669
52932SOL    HW276789  10.620   1.463  13.501  1.4948  1.1230  0.4242
52933SOL     OW76790  12.550   2.455   8.031 -0.2164 -0.1657  0.5874
52933SOL    HW176791  12.455   2.450   8.043 -0.3311 -1.9514 -0.7433
52933SOL    HW276792  12.579   2.364   8.030  1.4151  0.3264  0.1037
52934SOL     OW76793  11.175  14.101   9.534 -0.3436  0.2819  0.6921
52934SOL    HW176794  11.254  14.047   9.539 -0.1334  0.6536  1.6769
52934SOL    HW276795  11.179  14.142   9.447 -1.2669 -2.3577 -0.7205
52935SOL     OW76796   3.371   1.932   2.417  0.1222 -0.1727  0.0197
52935SOL    HW176797   3.382   1.844   2.452  0.6347 -0.6567 -1.2983
52935SOL    HW276798   3.440   1.940   2.351  0.5933  1.5079  0.6570
52936SOL     OW76799   3.532   9.145  12.070  0.0419 -0.6072  0.3147
52936SOL    HW176800   3.476   9.086  12.121  0.2647 -0.5704  0.6052
52936SOL    HW276801   3.599   9.174  12.132  1.1223 -1.6176 -0.3434
52937SOL     OW76802  11.820   5.545  13.322  0.0677 -0.8693  0.1731
52937SOL    HW176803  11.914   5.542  13.305  0.1813  0.2611  0.5042
52937SOL    HW276804  11.792   5.454  13.321  1.5162 -1.3866  1.9989
52938SOL     OW76805   2.795  11.046   3.166 -0.0357  0.4106 -0.3444
52938SOL    HW176806   2.776  11.097   3.245 -0.3595 -1.1980  0.6654
52938SOL    HW276807   2.745  11.089   3.097 -1.5015  0.5911  0.7765
52939SOL     OW76808   6.079   6.413   6.826 -0.2813  0.0925 -0.1420
52939SOL    HW176809   6.029   6.382   6.901 -1.0555 -2.0581 -1.4456
52939SOL    HW276810   6.018   6.466   6.775  0.1544  1.2942  0.5569
52940SOL     OW76811   0.798   3.783   5.229  0.7127  0.6071  0.9211
52940SOL    HW176812   0.816   3.696   5.194 -0.2578  0.3293  1.0948
52940SOL    HW276813   0.773   3.835   5.152 -0.9539  0.1186  1.0831
52941SOL     OW76814   4.022   4.133  10.194  0.6914 -0.4105 -0.7989
52941SOL    HW176815   3.949   4.186  10.227  1.0420 -1.0934  1.1722
52941SOL    HW276816   4.091   4.197  10.174  0.7883  0.0005  0.7147
52942SOL     OW76817  13.721  12.001  11.346 -0.0699  0.4444  0.0331
52942SOL    HW176818  13.765  11.982  11.428 -0.2783 -0.6862 -0.1015
52942SOL    HW276819  13.685  12.089  11.358 -0.7624  0.0028  1.4442
52943SOL     OW76820   1.232   6.478  12.656  0.1578  0.4838  0.4937
52943SOL    HW176821   1.302   6.413  12.644 -0.2787  0.1870 -0.5106
52943SOL    HW276822   1.152   6.433  12.627  0.0087  1.8182 -1.3023
52944SOL     OW76823   7.870   2.560  10.860  0.2046 -0.4113  0.1541
52944SOL    HW176824   7.904   2.632  10.806  0.2642 -0.6646 -0.1483
52944SOL    HW276825   7.779   2.584  10.877  0.7815  0.7933  1.8384
52945SOL     OW76826   6.195   5.017   5.023 -0.2291 -0.1006 -0.2245
52945SOL    HW176827   6.209   5.043   4.932  0.9810  0.6049  0.1317
52945SOL    HW276828   6.102   5.034   5.039 -0.2305  0.7450 -1.0281
52946SOL     OW76829  10.959   4.624   6.528  0.7064 -0.3767  0.3639
52946SOL    HW176830  10.995   4.584   6.608 -0.2002 -0.3705  0.7989
52946SOL    HW276831  10.908   4.554   6.488 -0.0125  0.0183  0.5610
52947SOL     OW76832   0.050   7.220  13.587  0.2617 -0.5507  0.0231
52947SOL    HW176833   0.131   7.270  13.591 -0.4431  0.5588  1.0035
52947SOL    HW276834   0.068   7.141  13.638  0.4020  0.1875  1.1501
52948SOL     OW76835   1.314   6.397  10.787  0.3136  0.0338 -0.0894
52948SOL    HW176836   1.240   6.436  10.835  1.9544 -0.7163  3.3185
52948SOL    HW276837   1.275   6.326  10.737 -1.4362  0.3930  0.6851
52949SOL     OW76838   8.787  13.244   4.910  0.4613 -0.0026 -0.0407
52949SOL    HW176839   8.871  13.236   4.956  0.4898  0.4106 -0.0259
52949SOL    HW276840   8.737  13.168   4.939  0.9748 -0.4749 -0.3538
52950SOL     OW76841   9.855  13.460   4.610 -0.1551  0.3550 -0.5432
52950SOL    HW176842   9.886  13.523   4.675  0.7555 -0.2926 -0.3343
52950SOL    HW276843   9.819  13.388   4.661 -1.6064  0.8828 -0.7821
52951SOL     OW76844  13.584   2.275   9.888  0.5397 -0.3255  0.0139
52951SOL    HW176845  13.598   2.276   9.793  1.3259 -1.0956  0.1104
52951SOL    HW276846  13.494   2.244   9.899  0.4925 -0.3648 -0.4832
52952SOL     OW76847  12.539  11.652   4.784 -0.2406 -0.2702 -0.1874
52952SOL    HW176848  12.536  11.566   4.827 -1.0271 -1.5769 -2.6804
52952SOL    HW276849  12.456  11.693   4.808  0.4969  0.2321  1.7203
52953SOL     OW76850   2.720   7.061   9.832 -0.0545  0.0759 -0.2510
52953SOL    HW176851   2.697   6.973   9.863 -1.2088 -0.4582 -2.3579
52953SOL    HW276852   2.640   7.092   9.788 -0.0649  2.6836  1.3737
52954SOL     OW76853   8.693   5.156   4.913  0.1394  0.0826 -0.1375
52954SOL    HW176854   8.754   5.206   4.858  0.3988  2.5038  2.1529
52954SOL    HW276855   8.745   5.134   4.991 -1.3535  0.5266  1.0205
52955SOL     OW76856   9.033   2.857   3.552 -0.4753 -0.6578  0.2020
52955SOL    HW176857   9.055   2.772   3.514 -1.5098 -0.6816 -0.3714
52955SOL    HW276858   9.003   2.836   3.641  0.0697 -0.7990  0.3577
52956SOL     OW76859  10.032   2.334   2.982 -0.3731 -0.0915  0.1615
52956SOL    HW176860   9.956   2.384   2.953  0.5077 -0.2079 -2.6142
52956SOL    HW276861  10.098   2.400   3.003 -0.3974 -0.0348  0.0596
52957SOL     OW76862  11.233   6.471  12.690 -0.0589  0.2576  0.2301
52957SOL    HW176863  11.159   6.518  12.728 -1.4442 -0.6347 -1.2042
52957SOL    HW276864  11.199   6.382  12.676  0.6241  0.3140 -2.2099
52958SOL     OW76865   6.391  12.031   1.679  0.4312  0.1150 -0.1812
52958SOL    HW176866   6.484  12.042   1.698  0.9862 -0.2477 -2.4231
52958SOL    HW276867   6.388  11.978   1.600 -1.6656  0.9321 -0.7344
52959SOL     OW76868  12.204   8.657   9.194 -0.8349  0.7391 -0.1499
52959SOL    HW176869  12.156   8.575   9.191 -0.4388  0.5227 -0.8407
52959SOL    HW276870  12.164   8.711   9.126 -2.1152  1.7211  1.3087
52960SOL     OW76871  12.045  13.578   6.219  0.0881 -0.7649  0.0061
52960SOL    HW176872  11.970  13.577   6.279 -2.2644 -1.7976 -2.6717
52960SOL    HW276873  12.099  13.504   6.247  0.7602  0.5905  2.6023
52961SOL     OW76874   0.071   5.733   2.260 -0.1942  0.0344  0.6261
52961SOL    HW176875   0.033   5.645   2.261  0.4162 -0.2262  0.9840
52961SOL    HW276876  -0.005   5.792   2.264 -0.5868 -0.4758  0.7625
52962SOL     OW76877   8.475  11.406   0.138  0.1013 -0.2431  0.1599
52962SOL    HW176878   8.509  11.367   0.218  0.2122 -0.3696  0.0501
52962SOL    HW276879   8.415  11.340   0.103  0.7633 -0.5760 -0.3562
52963SOL     OW76880  12.871   8.004   8.697  0.4294  0.3512  0.2033
52963SOL    HW176881  12.935   8.043   8.757  0.1412  0.3205  0.5416
52963SOL    HW276882  12.864   7.913   8.726  0.9031  0.1175 -0.4133
52964SOL     OW76883   8.615   5.096  10.908  0.5094 -0.5126  0.4256
52964SOL    HW176884   8.654   5.067  10.990  2.2605  2.7227  0.8944
52964SOL    HW276885   8.552   5.164  10.934 -0.6978 -1.1234 -0.7868
52965SOL     OW76886  11.840   3.870   8.624 -0.3909  0.1233 -0.5421
52965SOL    HW176887  11.802   3.782   8.622  0.9217 -0.4695 -0.2899
52965SOL    HW276888  11.827   3.899   8.715 -2.3584  0.9198 -1.0304
52966SOL     OW76889  13.474   2.757   0.680 -0.4893  0.1158  0.3534
52966SOL    HW176890  13.558   2.728   0.716  0.6006  0.1320 -2.0370
52966SOL    HW276891  13.466   2.848   0.707  0.9159  0.5098 -0.4721
52967SOL     OW76892   5.394  13.892  11.520  0.2422 -0.5732  0.6293
52967SOL    HW176893   5.341  13.829  11.569  0.3611 -0.2162  1.2232
52967SOL    HW276894   5.443  13.940  11.587 -1.5210  1.7044  0.4011
52968SOL     OW76895   1.582  11.215   9.978  0.0805 -0.6560 -0.6486
52968SOL    HW176896   1.527  11.168  10.041  0.8093  1.6816  1.8927
52968SOL    HW276897   1.521  11.268   9.927 -0.2503  0.5701  0.9532
52969SOL     OW76898   8.882   7.805   7.036 -0.0521 -0.2176  0.0193
52969SOL    HW176899   8.838   7.867   7.094 -0.8979 -1.5866  0.9087
52969SOL    HW276900   8.858   7.719   7.070 -0.9093 -1.1261 -2.5641
52970SOL     OW76901  10.841   3.492  12.112  0.1766  0.0177  0.6418
52970SOL    HW176902  10.867   3.414  12.161 -1.0862  0.2519  1.7388
52970SOL    HW276903  10.848   3.466  12.020  1.2150 -0.8953  0.9599
52971SOL     OW76904   1.939   9.875   1.164  0.0053 -0.4389  0.3063
52971SOL    HW176905   1.945   9.817   1.241 -1.2419  0.4838  1.1447
52971SOL    HW276906   1.946   9.963   1.201 -1.6436  0.0616 -0.4895
52972SOL     OW76907  10.892   3.804   3.567 -0.0847  0.6050 -0.4572
52972SOL    HW176908  10.972   3.763   3.536  1.2134  1.6836  1.2646
52972SOL    HW276909  10.877   3.876   3.506 -0.9209 -0.7657 -1.9543
52973SOL     OW76910   1.884   3.085   3.474 -0.1721 -0.8024  0.0963
52973SOL    HW176911   1.839   3.102   3.557  0.2896 -0.2283  0.2328
52973SOL    HW276912   1.832   3.016   3.433 -1.8807  0.6367 -0.2952
52974SOL     OW76913  11.902   6.340   4.708  0.8823  0.2857 -0.1183
52974SOL    HW176914  11.900   6.433   4.686  0.6228  0.5684  1.0102
52974SOL    HW276915  11.812   6.311   4.700  0.9394  0.1673 -0.3303
52975SOL     OW76916   6.338  13.804   1.081 -0.2045  0.1304 -0.1570
52975SOL    HW176917   6.344  13.873   1.014  2.9209  0.1665 -0.0003
52975SOL    HW276918   6.345  13.722   1.033  1.2314  0.1322  0.0062
52976SOL     OW76919   0.360   8.136   3.683 -0.7580 -0.4999 -0.3639
52976SOL    HW176920   0.277   8.143   3.730 -0.1474 -1.0504  0.8599
52976SOL    HW276921   0.415   8.205   3.720 -0.4807 -0.5018 -0.7617
52977SOL     OW76922   0.800   1.323   6.569 -0.1202  0.4034 -0.3436
52977SOL    HW176923   0.723   1.268   6.562  0.1716 -0.5256  2.6740
52977SOL    HW276924   0.860   1.275   6.626  1.4669  2.4366 -0.1715
52978SOL     OW76925   5.122  10.426  13.258 -0.0501  0.0275 -0.2660
52978SOL    HW176926   5.137  10.335  13.284  1.0620  0.0835 -0.6667
52978SOL    HW276927   5.081  10.466  13.335  1.3199 -0.3130  0.6850
52979SOL     OW76928   2.242   3.380   9.854 -0.7108 -0.0651 -0.3236
52979SOL    HW176929   2.305   3.429   9.800 -0.5314 -0.2622 -0.2975
52979SOL    HW276930   2.265   3.288   9.838 -1.2653 -0.1498 -0.6367
52980SOL     OW76931   8.183   9.484   8.922  0.2582 -0.3393  0.0733
52980SOL    HW176932   8.121   9.450   8.987 -1.2401  2.6492  0.3681
52980SOL    HW276933   8.136   9.481   8.839  1.1268 -1.4536 -0.4113
52981SOL     OW76934   9.420   6.835   0.684 -0.1054 -0.5323 -0.1071
52981SOL    HW176935   9.367   6.829   0.763  1.4263 -0.2176  0.9728
52981SOL    HW276936   9.383   6.768   0.625 -0.6140 -1.4785  1.2423
52982SOL     OW76937  13.126  10.516  10.039 -0.3423 -0.4187 -0.1211
52982SOL    HW176938  13.131  10.469   9.956 -0.8333 -2.1885  0.8079
52982SOL    HW276939  13.178  10.463  10.100  0.7250  1.2942  0.5352
52983SOL     OW76940   5.359   0.433   3.233  0.7681  0.1862 -0.0470
52983SOL    HW176941   5.272   0.394   3.236  0.6539  0.3636 -0.7312
52983SOL    HW276942   5.405   0.396   3.308  0.3021 -0.3816 -0.0317
52984SOL     OW76943   3.196  11.839   1.601 -0.0677  1.2058  0.2605
52984SOL    HW176944   3.187  11.899   1.675  1.4912  0.5077  1.0696
52984SOL    HW276945   3.282  11.859   1.564  2.0448 -2.5324  2.5308
52985SOL     OW76946   5.462   0.152   6.375 -0.1190 -0.0668  0.2508
52985SOL    HW176947   5.401   0.220   6.404 -1.6605 -1.5851  0.7921
52985SOL    HW276948   5.436   0.075   6.425  0.9111 -1.3083 -1.0608
52986SOL     OW76949   4.208  10.852   0.318 -0.0375 -0.1038  0.2121
52986SOL    HW176950   4.176  10.818   0.401  0.5227  0.4439  0.6595
52986SOL    HW276951   4.268  10.923   0.342  1.4743 -1.0589 -0.5915
52987SOL     OW76952  11.862  10.757   3.490  0.1268  0.2092  0.8880
52987SOL    HW176953  11.788  10.751   3.551  0.8810 -2.3162  1.6817
52987SOL    HW276954  11.928  10.697   3.526  2.3047  1.8029 -0.1837
52988SOL     OW76955   2.187  11.224   6.819 -0.0575  0.6069 -0.1990
52988SOL    HW176956   2.210  11.169   6.744 -0.3923 -1.0499  0.8577
52988SOL    HW276957   2.216  11.174   6.895  0.7362  2.4719  0.7952
52989SOL     OW76958   0.266   6.220   8.724 -0.3418  0.2908  0.3089
52989SOL    HW176959   0.330   6.158   8.688 -1.0002 -0.5533  0.5588
52989SOL    HW276960   0.220   6.253   8.647  0.6139  1.1735  0.0957
52990SOL     OW76961  13.360  11.890   7.590  0.2058  0.0584 -0.2643
52990SOL    HW176962  13.362  11.794   7.588 -0.8679 -0.1137  2.5076
52990SOL    HW276963  13.445  11.914   7.628  0.4554  0.2361 -0.9161
52991SOL     OW76964   8.667   1.844   1.411  0.0350 -0.2471  0.2056
52991SOL    HW176965   8.625   1.757   1.413  0.7520 -0.6040  0.0031
52991SOL    HW276966   8.710   1.851   1.496  1.0308 -0.6255 -0.2576
52992SOL     OW76967   9.524   4.004   8.324  0.2813 -0.1264 -0.0867
52992SOL    HW176968   9.549   4.065   8.393 -1.5211 -0.0975  0.5930
52992SOL    HW276969   9.588   3.933   8.330  1.1294  0.6621  0.5088
52993SOL     OW76970   8.030   9.145   8.052 -0.6986 -0.0748 -0.0993
52993SOL    HW176971   8.056   9.236   8.072  0.3161 -0.4574  0.4090
52993SOL    HW276972   8.046   9.136   7.958  2.6419 -0.7235  0.3920
52994SOL     OW76973   8.786  11.062   4.595  0.1925  0.0120 -0.2256
52994SOL    HW176974   8.714  11.058   4.659  0.3294 -1.7010 -0.1448
52994SOL    HW276975   8.756  11.125   4.530 -0.0363  1.6808  1.3839
52995SOL     OW76976   3.441  13.217  12.786  0.1247  0.3266  0.3544
52995SOL    HW176977   3.534  13.193  12.788 -0.1705 -0.8982  0.9946
52995SOL    HW276978   3.440  13.308  12.757  1.3335 -0.5828 -3.0962
52996SOL     OW76979   8.583   1.674   6.005  0.1871  0.2653  0.5874
52996SOL    HW176980   8.673   1.691   6.035  0.4034  1.1854 -0.5300
52996SOL    HW276981   8.592   1.656   5.912 -0.8271  0.7584  0.3870
52997SOL     OW76982   8.880   6.756   3.605 -0.4858  0.1826 -0.4449
52997SOL    HW176983   8.830   6.814   3.547 -1.4553  0.2123  0.4004
52997SOL    HW276984   8.904   6.811   3.679 -0.7778 -0.2963  0.0109
52998SOL     OW76985  13.210   5.317   8.222 -0.0313 -0.5437  0.1030
52998SOL    HW176986  13.303   5.308   8.240  0.1128  1.0082  0.3062
52998SOL    HW276987  13.202   5.403   8.181 -1.5588  0.0240  1.4911
52999SOL     OW76988   9.987  12.202  11.077  0.0356 -0.3111  0.0333
52999SOL    HW176989  10.070  12.250  11.072 -0.4520  0.5972  0.5009
52999SOL    HW276990   9.921  12.263  11.046 -0.4710 -1.0484 -0.3862
53000SOL     OW76991   9.494   5.241   9.104  0.4212 -0.1147  0.0181
53000SOL    HW176992   9.467   5.330   9.130  2.3368  0.1191  1.4849
53000SOL    HW276993   9.495   5.192   9.186 -1.5129 -1.8278 -0.8952
53001SOL     OW76994   7.659   3.169   2.938 -0.1556 -0.0510 -0.3602
53001SOL    HW176995   7.687   3.123   2.859 -0.2768  0.6613 -0.8240
53001SOL    HW276996   7.722   3.241   2.948  1.2704 -1.4586  1.5051
53002SOL     OW76997   6.464   4.576   8.508 -0.4826  0.0162  0.3506
53002SOL    HW176998   6.482   4.669   8.517 -0.2280 -0.0565  0.6495
53002SOL    HW276999   6.524   4.547   8.439  1.3137 -0.4058  1.9754
53003SOL     OW77000   3.707   3.596   0.736  0.2929  0.0103 -0.4878
53003SOL    HW177001   3.675   3.632   0.819  0.2415 -1.1101 -0.0112
53003SOL    HW277002   3.767   3.663   0.703  0.6442  0.2838  0.6564
53004SOL     OW77003  12.035  13.720   3.944 -0.1486  0.2353  0.3376
53004SOL    HW177004  11.957  13.729   3.999  0.5585 -1.7367  1.7749
53004SOL    HW277005  12.093  13.789   3.974  0.1185 -0.6383  1.9754
53005SOL     OW77006  11.417   8.407   1.438 -0.0215  0.0976  0.1402
53005SOL    HW177007  11.442   8.494   1.406 -0.8785 -0.5427 -2.5234
53005SOL    HW277008  11.500   8.361   1.450  0.3924  0.9092  0.4204
53006SOL     OW77009   9.816   1.302   4.357  0.3628 -0.2946  0.4119
53006SOL    HW177010   9.796   1.223   4.408  2.1837 -0.6861  0.5856
53006SOL    HW277011   9.905   1.325   4.383  0.2309  1.2448 -0.4028
53007SOL     OW77012  11.515   3.344   9.273 -0.2838  0.4452  0.5842
53007SOL    HW177013  11.440   3.344   9.213  1.2936 -0.6855 -1.5419
53007SOL    HW277014  11.560   3.426   9.254 -0.2939  0.5295  0.9262
53008SOL     OW77015   2.286   3.404   4.694 -0.4359  0.1583  0.9134
53008SOL    HW177016   2.239   3.485   4.677 -0.4197  0.2589  1.3411
53008SOL    HW277017   2.355   3.401   4.628 -0.4119  0.5108  0.9244
53009SOL     OW77018  11.955   2.591   5.213  0.3307 -0.3185  0.5462
53009SOL    HW177019  11.904   2.566   5.137  0.8426  2.0758 -0.6709
53009SOL    HW277020  12.043   2.558   5.195  0.0055 -1.5763  1.1264
53010SOL     OW77021  12.760   8.990  12.340 -0.7737  0.1701  0.0437
53010SOL    HW177022  12.696   9.020  12.405 -1.0464  1.6192 -0.8444
53010SOL    HW277023  12.772   8.897  12.359 -1.8399  0.2614  1.3192
53011SOL     OW77024   4.712   5.086   1.349 -0.9274 -0.0057  0.4494
53011SOL    HW177025   4.738   5.037   1.271 -1.2934  2.2348 -1.1670
53011SOL    HW277026   4.795   5.112   1.390 -0.7365 -0.8604  0.6237
53012SOL     OW77027   9.861   2.872   5.957  0.8412  0.2849  0.0009
53012SOL    HW177028   9.792   2.867   6.023  0.9119 -0.6011  0.0138
53012SOL    HW277029   9.860   2.964   5.929 -1.0643  0.0804 -0.7510
53013SOL     OW77030  10.341   4.405   0.130 -0.5941  0.0608 -0.4574
53013SOL    HW177031  10.401   4.479   0.130 -2.3430  1.5640 -0.1557
53013SOL    HW277032  10.299   4.408   0.216  0.6310 -2.5044  0.3417
53014SOL     OW77033   3.573   6.489  10.136 -0.2504 -0.3297  0.1118
53014SOL    HW177034   3.612   6.542  10.206  0.4672 -0.4978 -0.1497
53014SOL    HW277035   3.597   6.399  10.158 -1.6732 -0.6037  0.6888
53015SOL     OW77036   2.453   0.673   2.557  0.1476 -0.3478  0.5257
53015SOL    HW177037   2.404   0.591   2.564  0.1807 -0.3795  0.3817
53015SOL    HW277038   2.543   0.646   2.542  0.5077 -0.3319  2.4004
53016SOL     OW77039   3.650  11.081   7.247  0.6190  0.4441  0.1433
53016SOL    HW177040   3.569  11.075   7.196 -0.1614  0.6923  1.3306
53016SOL    HW277041   3.702  11.148   7.202  1.7871 -2.1685 -2.7750
53017SOL     OW77042   8.793   8.035   6.854  0.5895  0.0752 -0.1654
53017SOL    HW177043   8.817   8.107   6.796 -0.4039 -0.9258 -1.9126
53017SOL    HW277044   8.868   8.024   6.912  0.3970  3.0892  0.8002
53018SOL     OW77045   1.828  10.874   8.213  0.4026 -0.7301 -0.1590
53018SOL    HW177046   1.733  10.888   8.206  0.3076  0.2938  2.0668
53018SOL    HW277047   1.866  10.952   8.173  0.3741 -1.5401 -1.8404
53019SOL     OW77048  14.025   9.255  12.147 -0.3715 -0.1208 -0.5905
53019SOL    HW177049  14.042   9.346  12.171 -0.7455  0.1813 -1.4555
53019SOL    HW277050  13.930   9.246  12.151 -0.3976 -0.2314 -1.3601
53020SOL     OW77051   7.565  13.186   1.648 -0.6667 -0.1030 -0.7114
53020SOL    HW177052   7.590  13.168   1.557 -0.2862  0.6725 -0.7610
53020SOL    HW277053   7.470  13.171   1.649 -0.6449 -0.3150 -1.1852
53021SOL     OW77054   3.641  10.531   7.466  0.3151 -0.2152 -0.5562
53021SOL    HW177055   3.683  10.616   7.479 -1.4358  0.5295  0.7312
53021SOL    HW277056   3.582  10.522   7.541 -1.4576 -1.3859 -1.9972
53022SOL     OW77057   6.188  13.532   1.107  0.3809  0.2323  0.0871
53022SOL    HW177058   6.142  13.466   1.053  0.2057  0.1643  0.3189
53022SOL    HW277059   6.123  13.600   1.123  0.9159  1.1019 -1.2233
53023SOL     OW77060  10.140  10.627  13.953  0.0247  0.4681 -0.0783
53023SOL    HW177061  10.211  10.564  13.943 -0.6979 -0.1204 -1.8896
53023SOL    HW277062  10.150  10.687  13.878 -0.7838  0.9922  0.2104
53024SOL     OW77063  13.608   5.947   4.415  1.0062 -0.2218  0.3173
53024SOL    HW177064  13.527   5.972   4.459  1.5216 -0.6837  1.5540
53024SOL    HW277065  13.579   5.894   4.341  0.1602  0.0774  0.4180
53025SOL     OW77066  10.091   0.682   0.512 -0.4318  0.3846 -0.4201
53025SOL    HW177067  10.005   0.700   0.551 -0.9586 -1.2666 -0.7497
53025SOL    HW277068  10.095   0.739   0.436 -1.5639 -0.0378 -0.8225
53026SOL     OW77069  11.141   3.812   7.653 -0.0358 -0.0841 -0.2636
53026SOL    HW177070  11.131   3.780   7.564  0.9054 -1.2064  0.0039
53026SOL    HW277071  11.082   3.758   7.705 -0.7417  0.7082 -0.2238
53027SOL     OW77072   6.611   3.433  11.802  0.1815 -0.1156  1.0087
53027SOL    HW177073   6.691   3.380  11.803 -0.4737 -1.1315  2.4024
53027SOL    HW277074   6.623   3.493  11.729  1.7559 -0.9654  0.5317
53028SOL     OW77075  10.965   9.067   2.127  0.3817 -0.6215  0.3682
53028SOL    HW177076  10.998   9.038   2.042 -1.0957  0.5157 -0.6389
53028SOL    HW277077  10.897   9.131   2.106  1.2411  1.0951  2.4223
53029SOL     OW77078  10.583   6.321  13.848 -0.2526 -0.3769 -0.7850
53029SOL    HW177079  10.560   6.235  13.882  2.3062 -0.2169  1.6747
53029SOL    HW277080  10.631   6.364  13.919  0.8850  2.0691 -2.8397
53030SOL     OW77081   0.127   3.511  10.604 -0.1829 -0.0293 -0.5381
53030SOL    HW177082   0.173   3.498  10.521  0.2503  0.8107 -0.4490
53030SOL    HW277083   0.062   3.441  10.607 -0.2396 -0.0391 -1.6033
53031SOL     OW77084  13.602   6.559   2.636 -0.2407 -0.4673  0.1951
53031SOL    HW177085  13.515   6.573   2.600  0.2478  0.2302 -0.7551
53031SOL    HW277086  13.657   6.623   2.592  1.0916 -2.0066 -0.4849
53032SOL     OW77087   2.345   7.512   5.039 -0.0956  0.2764  0.1554
53032SOL    HW177088   2.335   7.501   5.134  1.1764 -1.2278  0.1509
53032SOL    HW277089   2.259   7.542   5.009 -0.6990  0.1796  1.7025
53033SOL     OW77090   3.877  10.311  12.048 -0.1351 -0.1505  0.4590
53033SOL    HW177091   3.815  10.378  12.078 -2.4001 -1.7260 -0.4278
53033SOL    HW277092   3.890  10.255  12.125  0.8518  0.6131  0.8685
53034SOL     OW77093   0.063   1.509  11.998 -0.1091  0.4811  0.6233
53034SOL    HW177094   0.120   1.445  12.041 -0.3716  0.2754  0.6687
53034SOL    HW277095   0.058   1.479  11.907  2.7647  2.4859 -0.3365
53035SOL     OW77096   1.080  12.550  12.770 -0.3664  0.1185  0.1438
53035SOL    HW177097   1.118  12.534  12.683 -0.4235 -0.1556  0.1686
53035SOL    HW277098   1.018  12.478  12.782 -1.1497  0.7459 -0.0451
53036SOL     OW77099  12.479  12.594  13.227  0.9687 -0.2747  0.5297
53036SOL    HW177100  12.537  12.573  13.301  1.1157 -1.3221  0.1416
53036SOL    HW277101  12.538  12.629  13.160  0.7116  1.5540  1.2085
53037SOL     OW77102   1.111   0.008   3.189 -0.2172 -0.2526  0.0340
53037SOL    HW177103   1.171   0.014   3.115 -2.2252 -1.0777 -1.7642
53037SOL    HW277104   1.116   0.093   3.232  2.7863 -0.5596  0.4592
53038SOL     OW77105   2.918   4.842   4.489  0.2323  0.2286 -1.1071
53038SOL    HW177106   2.946   4.879   4.573 -0.1022 -2.5654  0.3471
53038SOL    HW277107   2.995   4.849   4.433  0.3701  2.4219 -0.7412
53039SOL     OW77108   8.471   2.660   9.628  0.3125 -0.1940  0.1162
53039SOL    HW177109   8.413   2.664   9.552 -1.0805 -0.1051  1.1510
53039SOL    HW277110   8.558   2.676   9.592 -0.4118  0.7214 -1.3369
53040SOL     OW77111   7.020   3.490   0.130  0.1538 -0.0420  0.4383
53040SOL    HW177112   6.957   3.464   0.197 -0.2770  0.7886  0.3698
53040SOL    HW277113   7.030   3.412   0.075  1.1735 -1.0193  1.9467
53041SOL     OW77114   2.958   2.620   6.788  0.6722  0.7496  0.1415
53041SOL    HW177115   3.031   2.606   6.728  0.5592 -0.5547  0.2731
53041SOL    HW277116   2.979   2.568   6.865 -0.8129 -0.4373 -0.1974
53042SOL     OW77117   5.592   6.093   7.049 -0.6628 -0.0156  0.2045
53042SOL    HW177118   5.561   6.077   6.960 -1.9029 -0.3449  0.6842
53042SOL    HW277119   5.622   6.184   7.048  1.7699 -0.7200 -1.2135
53043SOL     OW77120   5.773   7.072   9.909  0.3741 -0.3280  0.0557
53043SOL    HW177121   5.829   7.004   9.872 -0.4209  0.0519 -2.0080
53043SOL    HW277122   5.833   7.137   9.945  1.2653 -0.4163 -1.1917
53044SOL     OW77123   0.391   5.995  12.960 -0.1821 -0.0869  0.0589
53044SOL    HW177124   0.472   5.976  12.913  0.1284  2.3955 -0.5711
53044SOL    HW277125   0.334   6.034  12.894 -0.8044  0.8442  1.1194
53045SOL     OW77126  10.018   2.625   0.940  0.4274  0.5823  0.4123
53045SOL    HW177127  10.059   2.704   0.904 -0.2209  1.1747  0.9178
53045SOL    HW277128   9.929   2.654   0.963  0.2335 -0.2639  0.7536
53046SOL     OW77129  11.887   3.599   0.512  0.3218 -0.1127  0.1488
53046SOL    HW177130  11.946   3.666   0.545 -1.0772  1.5649 -0.6393
53046SOL    HW277131  11.918   3.582   0.423 -1.2876  2.0007 -0.8952
53047SOL     OW77132   1.531   0.277   0.746 -0.1821 -0.3851 -0.2657
53047SOL    HW177133   1.612   0.281   0.695  0.3446  1.6477  0.5981
53047SOL    HW277134   1.462   0.266   0.681  0.6009  0.4726 -1.2935
53048SOL     OW77135  13.219   1.645   4.310 -0.4459  0.5573  0.0149
53048SOL    HW177136  13.224   1.628   4.215  2.2786 -1.2081  0.3557
53048SOL    HW277137  13.175   1.567   4.345 -0.1704  0.5392  0.3235
53049SOL     OW77138  12.571  13.346   4.802  0.1088  0.0029 -0.5087
53049SOL    HW177139  12.525  13.268   4.834  0.5951 -0.5084 -1.0229
53049SOL    HW277140  12.506  13.416   4.808 -0.7885 -0.7182 -1.3220
53050SOL     OW77141   1.100   2.514  12.601  0.2561 -0.0839 -0.8316
53050SOL    HW177142   1.074   2.424  12.621  0.2775 -0.3636 -2.0129
53050SOL    HW277143   1.143   2.544  12.681 -1.7512 -0.3263  0.4300
53051SOL     OW77144   0.037  10.635   0.498 -0.2068 -0.0988  0.0351
53051SOL    HW177145   0.108  10.679   0.544 -0.3895  1.3885 -1.0274
53051SOL    HW277146   0.013  10.562   0.554 -0.9397  2.0241  2.6571
53052SOL     OW77147   0.191   3.842   5.138 -0.3247  0.0023 -0.5466
53052SOL    HW177148   0.140   3.917   5.169  0.1945  0.3812 -0.5937
53052SOL    HW277149   0.126   3.785   5.097 -0.5489  1.1236 -1.8580
53053SOL     OW77150   7.019   1.741   1.566  0.2322 -0.0608 -0.0649
53053SOL    HW177151   6.992   1.718   1.655  1.4913 -0.0964  0.3305
53053SOL    HW277152   7.081   1.672   1.541  2.5866  1.7372  0.3996
53054SOL     OW77153   8.601  12.885   5.644  0.0786 -0.0106 -0.3835
53054SOL    HW177154   8.624  12.972   5.610 -0.6459  0.0793 -0.6725
53054SOL    HW277155   8.669  12.827   5.612  0.0523  0.2875 -0.9906
53055SOL     OW77156  11.814   7.480  10.388  0.1777 -0.3878  0.5456
53055SOL    HW177157  11.789   7.536  10.314  0.3420 -0.3186  0.5427
53055SOL    HW277158  11.764   7.400  10.375 -1.0563  0.2360  1.2558
53056SOL     OW77159   7.946   9.214   2.467 -0.3436  0.4188  0.3160
53056SOL    HW177160   8.017   9.276   2.487  1.1672 -0.7558 -1.1227
53056SOL    HW277161   7.901   9.203   2.551  0.5200  2.0021  1.0419
53057SOL     OW77162   4.874   0.117   2.891  0.3395  0.3450  0.3727
53057SOL    HW177163   4.821   0.160   2.957  2.4617 -0.0019  2.4432
53057SOL    HW277164   4.901   0.187   2.832 -1.3271  0.7174 -0.0079
53058SOL     OW77165   8.460   8.168   2.311  0.1297 -0.4976 -0.1217
53058SOL    HW177166   8.411   8.158   2.230  0.6991  3.1642 -1.1173
53058SOL    HW277167   8.551   8.156   2.286  0.1635 -3.5000  0.9676
53059SOL     OW77168   7.559   5.745   7.228 -0.2434 -0.4969  0.5347
53059SOL    HW177169   7.627   5.692   7.268  0.8596 -1.3636 -2.2168
53059SOL    HW277170   7.477   5.702   7.251  0.0446  0.4376  3.7129
53060SOL     OW77171   4.411   6.514  11.453 -0.0991 -0.3509 -0.0964
53060SOL    HW177172   4.495   6.479  11.423  0.4020  0.6619  0.0692
53060SOL    HW277173   4.434   6.597  11.495 -0.9934 -0.9070  1.5354
53061SOL     OW77174   8.657  12.646   1.899  0.4037 -0.1940  0.0852
53061SOL    HW177175   8.701  12.622   1.817  1.4833 -1.4824  1.0208
53061SOL    HW277176   8.631  12.562   1.938  0.4025  0.3789  1.3445
53062SOL     OW77177   0.934  11.377   9.790  0.8575  0.0255 -0.3196
53062SOL    HW177178   1.028  11.366   9.797  0.9444  1.4813  1.7200
53062SOL    HW277179   0.897  11.304   9.840  0.9978  0.5574  0.5899
53063SOL     OW77180   0.606   3.409   6.292 -0.3093  0.3452 -0.2037
53063SOL    HW177181   0.607   3.460   6.212  0.5353  0.7567  0.0578
53063SOL    HW277182   0.535   3.346   6.280 -0.3892  0.6061 -1.1388
53064SOL     OW77183   3.705  12.553   7.763 -0.6450  1.1743 -0.5551
53064SOL    HW177184   3.709  12.633   7.815  0.6261  0.5905  0.3053
53064SOL    HW277185   3.777  12.561   7.701  0.1068  0.3050  0.1713
53065SOL     OW77186   0.133   0.279  12.292 -0.1323  0.1481  0.1776
53065SOL    HW177187   0.043   0.256  12.270 -0.8689  0.1704  2.8101
53065SOL    HW277188   0.126   0.331  12.372  2.1674  1.1834 -0.1842
53066SOL     OW77189   4.229  10.523   1.955  0.2866 -0.0723 -0.1018
53066SOL    HW177190   4.201  10.454   2.016  1.2231 -1.6596 -1.3882
53066SOL    HW277191   4.262  10.593   2.011 -1.3034 -0.3595  1.2718
53067SOL     OW77192   5.749  12.861   5.622  0.7271  0.5301 -0.4390
53067SOL    HW177193   5.828  12.903   5.587  2.1324 -1.5591 -0.0120
53067SOL    HW277194   5.719  12.920   5.691  2.3923  1.0091 -0.0773
53068SOL     OW77195  12.577   7.675   7.257  0.0286  0.5438  0.0284
53068SOL    HW177196  12.635   7.613   7.214 -1.6656 -0.9171 -0.2510
53068SOL    HW277197  12.539   7.726   7.185 -0.3373  0.3260  0.0677
53069SOL     OW77198  13.190   7.441   2.863  0.6926  0.2338 -0.6840
53069SOL    HW177199  13.136   7.519   2.874  1.0860  0.6093 -1.4058
53069SOL    HW277200  13.270   7.461   2.911  0.2488 -0.2944  0.3224
53070SOL     OW77201   5.077   0.830  10.711  0.2349  0.0571 -0.5311
53070SOL    HW177202   5.023   0.772  10.763 -0.5449 -0.9333 -2.3756
53070SOL    HW277203   5.155   0.846  10.765 -0.5801 -0.8245  0.9426
53071SOL     OW77204  12.020  12.365   4.658 -0.1471  0.2118 -0.3347
53071SOL    HW177205  12.079  12.437   4.636  0.5526 -0.2832 -0.0851
53071SOL    HW277206  11.973  12.348   4.576  0.4451  0.2414 -0.6858
53072SOL     OW77207   0.815   7.696   1.729 -0.1760 -0.5834 -0.2653
53072SOL    HW177208   0.837   7.741   1.647  2.6908  2.4312  1.8679
53072SOL    HW277209   0.764   7.760   1.778  0.3128 -1.3141  1.2474
53073SOL     OW77210   1.544  10.891   4.239  0.1228  0.2446  0.9315
53073SOL    HW177211   1.474  10.831   4.265  0.9321 -1.3005 -0.2896
53073SOL    HW277212   1.604  10.837   4.188  2.0392  1.6003  1.6332
53074SOL     OW77213   0.926   0.763   4.052  0.4895 -0.5413  0.6050
53074SOL    HW177214   0.904   0.679   4.091 -1.0654 -0.6311 -0.3770
53074SOL    HW277215   0.882   0.827   4.107  0.0226 -0.5212  0.2134
53075SOL     OW77216   7.751   3.813  11.890 -0.1273 -0.0519  0.6110
53075SOL    HW177217   7.803   3.822  11.810 -0.1647 -0.4320  0.5416
53075SOL    HW277218   7.807   3.847  11.959  0.3206 -0.7173  0.5772
53076SOL     OW77219  11.052   5.349   0.403 -0.7823 -0.0654  0.0936
53076SOL    HW177220  11.040   5.406   0.479  0.2928  0.9485 -0.4506
53076SOL    HW277221  10.965   5.339   0.365 -1.1014  0.5913  0.6411
53077SOL     OW77222   6.525  12.125   2.184 -0.6657  0.5337  0.0552
53077SOL    HW177223   6.461  12.186   2.220 -1.5989  0.1653 -0.9372
53077SOL    HW277224   6.495  12.108   2.095 -0.2376 -1.1100  0.1909
53078SOL     OW77225   2.054  14.079   7.657 -0.4731 -0.1421  0.5966
53078SOL    HW177226   2.102  13.996   7.657  0.7128  0.4991 -0.2276
53078SOL    HW277227   2.111  14.140   7.705 -0.3927  0.6517 -0.4526
53079SOL     OW77228   7.073   8.384   9.907 -0.2178  0.4667 -0.1167
53079SOL    HW177229   7.130   8.386   9.983 -0.0831 -1.9492 -0.0754
53079SOL    HW277230   7.113   8.321   9.848 -1.1723  1.0976 -1.5061
53080SOL     OW77231   5.808   3.408  11.764  0.0498 -0.2003 -0.2690
53080SOL    HW177232   5.900   3.383  11.767  0.3655  0.8819 -0.7117
53080SOL    HW277233   5.805   3.494  11.806 -1.0751 -1.0817  1.5618
53081SOL     OW77234  11.944  10.248   3.703  0.2654 -0.2658 -0.4841
53081SOL    HW177235  11.926  10.154   3.695 -0.3939 -0.3740  1.6632
53081SOL    HW277236  11.868  10.284   3.748  0.9541  1.1245 -0.3688
53082SOL     OW77237   5.994  12.588   1.419  0.3156  0.1143 -1.0008
53082SOL    HW177238   5.968  12.589   1.327 -0.4754  0.9398 -0.7881
53082SOL    HW277239   5.990  12.680   1.446 -1.3501 -0.2948  0.3624
53083SOL     OW77240   3.427  13.903   9.145  0.4981 -0.2869  0.4785
53083SOL    HW177241   3.361  13.960   9.106 -0.6284 -1.9870 -0.2436
53083SOL    HW277242   3.509  13.949   9.133 -0.5318  2.0352  1.6186
53084SOL     OW77243   6.454   7.128   9.939 -0.7215 -0.0903  0.0271
53084SOL    HW177244   6.458   7.054   9.999 -1.2558 -1.3927 -1.4687
53084SOL    HW277245   6.534   7.121   9.886 -0.3221  0.9607  0.4510
53085SOL     OW77246  11.872   8.571  10.978 -0.3026 -0.1742 -0.1148
53085SOL    HW177247  11.916   8.611  11.053 -1.8998 -0.1778  0.8700
53085SOL    HW277248  11.928   8.592  10.903  1.3234 -0.1386  1.0469
53086SOL     OW77249   7.846  12.164   6.942 -0.4484  0.1510  0.6860
53086SOL    HW177250   7.843  12.227   6.870  0.1120  1.3559  1.6809
53086SOL    HW277251   7.769  12.186   6.995  0.7471  1.2542  2.0261
53087SOL     OW77252   0.132  12.220  12.217 -0.2937 -0.0507  0.1345
53087SOL    HW177253   0.217  12.176  12.226 -0.6985 -0.7554  0.5581
53087SOL    HW277254   0.069  12.149  12.207 -0.7735  0.4880 -0.8168
53088SOL     OW77255   8.672   8.032   4.452  0.3931 -0.2146 -0.1905
53088SOL    HW177256   8.668   8.053   4.545 -0.2622 -0.1129 -0.2330
53088SOL    HW277257   8.738   8.092   4.417 -0.1594  0.5309  0.0128
53089SOL     OW77258  12.330  11.437  10.037 -0.0981  0.1983  0.3377
53089SOL    HW177259  12.380  11.447   9.955 -0.5635  0.0501  0.0329
53089SOL    HW277260  12.390  11.389  10.095  0.2972  0.4512  0.1467
53090SOL     OW77261  13.535   3.892   2.200 -0.5999 -1.0839 -0.1859
53090SOL    HW177262  13.596   3.847   2.259 -0.7923  0.0865  0.9843
53090SOL    HW277263  13.584   3.903   2.119  0.4518 -0.9664  0.4326
53091SOL     OW77264   0.738   3.606  13.814 -0.0281  0.1245 -0.4015
53091SOL    HW177265   0.806   3.564  13.866 -0.1801 -0.2619 -0.5135
53091SOL    HW277266   0.723   3.547  13.740  0.8429  1.1043 -1.3958
53092SOL     OW77267   7.534   3.348   8.223  0.0158  0.0815 -0.3873
53092SOL    HW177268   7.473   3.285   8.186  0.4924  0.5105 -1.9524
53092SOL    HW277269   7.489   3.432   8.218  0.5080  0.3145 -1.0451
53093SOL     OW77270   7.125   5.282  12.660 -0.4873  0.2959 -0.3084
53093SOL    HW177271   7.091   5.282  12.570 -2.3745 -1.3616  0.3101
53093SOL    HW277272   7.198   5.221  12.657 -1.5067 -0.9721 -0.4637
53094SOL     OW77273   5.130   9.685  11.727  0.1842  0.2440  0.0750
53094SOL    HW177274   5.120   9.630  11.804 -1.4579  1.3755  0.7101
53094SOL    HW277275   5.215   9.727  11.739  1.0248 -1.3507  0.0477
53095SOL     OW77276   7.304   2.821   7.372  0.3512  0.4194 -0.0974
53095SOL    HW177277   7.241   2.849   7.438 -1.0522 -1.4361 -0.5880
53095SOL    HW277278   7.368   2.769   7.420  0.7496  1.1412  0.1720
53096SOL     OW77279  10.791   5.575   6.088 -0.0506 -0.4219 -0.0015
53096SOL    HW177280  10.832   5.537   6.011  0.3592  0.8939 -0.4584
53096SOL    HW277281  10.732   5.642   6.054 -0.1796 -0.1066  0.7987
53097SOL     OW77282   4.896   7.001   3.655 -0.0894 -0.6943  0.4054
53097SOL    HW177283   4.983   7.000   3.615 -0.7332 -0.0843 -1.0976
53097SOL    HW277284   4.892   7.086   3.699 -0.8690  0.5621 -1.8918
53098SOL     OW77285   2.613   7.605   9.050 -0.2913 -0.1978  0.4167
53098SOL    HW177286   2.619   7.620   8.956 -0.0069 -0.9351  0.3119
53098SOL    HW277287   2.555   7.530   9.058  0.5075 -0.7827  0.7719
53099SOL     OW77288  12.730   5.309   6.524 -0.1086  0.2053 -0.1456
53099SOL    HW177289  12.796   5.370   6.491 -0.9777  1.6319  0.6732
53099SOL    HW277290  12.701   5.347   6.607 -1.0849 -1.0447  0.1202
53100SOL     OW77291   8.992   9.702   6.522  0.3357  0.5961  0.1664
53100SOL    HW177292   8.902   9.718   6.552  0.5133  0.6439  0.6890
53100SOL    HW277293   8.985   9.694   6.427 -0.3980 -0.5280  0.2947
53101SOL     OW77294  11.267  12.878  12.641 -0.0054  0.2979 -0.0487
53101SOL    HW177295  11.315  12.891  12.723  0.2802 -0.5014 -0.0753
53101SOL    HW277296  11.290  12.789  12.614  0.3657  0.7465 -1.2963
53102SOL     OW77297  12.612   5.896   8.972  0.2797  0.0743  0.0937
53102SOL    HW177298  12.688   5.852   9.009 -0.5325 -0.0325  1.7180
53102SOL    HW277299  12.538   5.843   9.000 -0.5042  0.9819 -0.2114
53103SOL     OW77300  13.963  11.712   0.703 -0.2023  0.3079 -0.1217
53103SOL    HW177301  14.050  11.722   0.666 -0.4480  1.5275 -0.4179
53103SOL    HW277302  13.957  11.619   0.726  1.3556  0.2967  0.3763
53104SOL     OW77303  12.532   4.713   8.112  0.4370  0.7708 -0.0543
53104SOL    HW177304  12.439   4.726   8.128  0.3303 -0.2728  0.3085
53104SOL    HW277305  12.575   4.785   8.157 -0.2059  1.4253 -0.4770
53105SOL     OW77306   6.984   3.641  13.048 -0.0541 -0.6284 -0.2943
53105SOL    HW177307   6.947   3.670  12.964 -0.7298 -2.6290 -0.7378
53105SOL    HW277308   6.923   3.675  13.114  0.4949  0.9819 -0.5726
53106SOL     OW77309  12.835   8.947  13.634 -0.4812 -0.2731 -0.6160
53106SOL    HW177310  12.839   9.025  13.689 -0.2037 -1.4957  1.1824
53106SOL    HW277311  12.742   8.924  13.630 -0.4996 -0.1933 -0.6470
53107SOL     OW77312   0.226   3.634   6.370  0.2546 -0.6776 -0.0514
53107SOL    HW177313   0.241   3.675   6.284  2.0815  1.6460  1.2647
53107SOL    HW277314   0.259   3.545   6.359 -0.7166 -0.8590 -2.0808
53108SOL     OW77315   7.015   9.615   0.950 -0.1016  0.0052  0.5113
53108SOL    HW177316   7.107   9.597   0.965  0.1943  1.2175  0.2348
53108SOL    HW277317   6.971   9.590   1.031  0.5039 -0.2760  0.7519
53109SOL     OW77318  13.418   6.150   3.259 -0.6504 -0.1413  0.2563
53109SOL    HW177319  13.373   6.162   3.176  0.0478  0.7689 -0.0157
53109SOL    HW277320  13.487   6.086   3.240 -0.3453  0.2368  0.0585
53110SOL     OW77321   0.511   5.817  13.626 -0.2463 -0.2356 -0.4789
53110SOL    HW177322   0.501   5.724  13.609 -0.4784 -0.2192 -0.4338
53110SOL    HW277323   0.604   5.834  13.614  0.2231 -0.9188  1.7486
53111SOL     OW77324   4.167  10.646   3.602  0.5416 -0.1240 -0.1555
53111SOL    HW177325   4.143  10.556   3.623 -0.9909  0.7839  2.3836
53111SOL    HW277326   4.256  10.655   3.636  1.3129 -1.0626 -1.8212
53112SOL     OW77327  13.471   8.531   2.204 -0.0954  0.3867  0.2172
53112SOL    HW177328  13.474   8.535   2.109  2.0088  0.1598  0.2193
53112SOL    HW277329  13.426   8.612   2.231  3.0620  2.7438 -0.9088
53113SOL     OW77330   5.508  13.325  12.719 -0.8559  0.1467  0.2978
53113SOL    HW177331   5.485  13.340  12.811 -0.4558 -1.5034  0.6971
53113SOL    HW277332   5.587  13.378  12.705 -0.0467 -0.7385  1.3531
53114SOL     OW77333   6.004   9.719   2.325 -0.8739 -0.7256 -0.5052
53114SOL    HW177334   5.982   9.744   2.235 -0.6796  1.0550 -0.1002
53114SOL    HW277335   5.933   9.756   2.378 -0.3847 -0.7439  0.1754
53115SOL     OW77336   4.541  12.625   3.723  0.7155 -0.2329 -0.2177
53115SOL    HW177337   4.591  12.579   3.790 -0.9458 -1.8460  0.0022
53115SOL    HW277338   4.487  12.687   3.771  0.6712 -0.2697 -0.2206
53116SOL     OW77339   7.917  12.757   6.517  0.3054  0.0826  0.0386
53116SOL    HW177340   7.915  12.734   6.424  0.6507 -0.8196  0.2434
53116SOL    HW277341   7.874  12.842   6.521  0.5520  0.2689 -0.9832
53117SOL     OW77342   0.686   7.338  11.827  0.0097 -0.3972 -0.1040
53117SOL    HW177343   0.647   7.358  11.912 -0.0117  0.5656 -0.3245
53117SOL    HW277344   0.687   7.243  11.822  4.3700 -0.8244  3.0329
53118SOL     OW77345   2.083  13.973   4.646 -0.1310  0.2224 -0.0215
53118SOL    HW177346   2.002  14.001   4.604 -0.4773  1.8065  1.5953
53118SOL    HW277347   2.062  13.886   4.681 -0.3741 -0.3653 -1.5285
53119SOL     OW77348  10.256  10.247  11.212 -0.1488  0.4511 -0.3783
53119SOL    HW177349  10.243  10.162  11.255  1.7841  0.3309  0.0369
53119SOL    HW277350  10.316  10.228  11.139 -0.9096  1.2105 -1.2305
53120SOL     OW77351  10.848   7.102   5.520 -0.8380 -0.2943 -0.3118
53120SOL    HW177352  10.832   7.109   5.425 -1.8226 -0.9164 -0.2089
53120SOL    HW277353  10.783   7.039   5.550 -1.5152  0.9948  1.0356
53121SOL     OW77354   5.454   3.952  10.981  0.6873 -0.4062  0.3631
53121SOL    HW177355   5.495   3.867  10.965  0.8337 -0.3405  0.3782
53121SOL    HW277356   5.504   3.989  11.054 -0.0873 -0.7850  1.0993
53122SOL     OW77357  12.079   3.105   8.413  0.1656  0.0642 -0.7938
53122SOL    HW177358  12.166   3.137   8.437 -0.0335  1.7190 -2.1092
53122SOL    HW277359  12.020   3.149   8.475  0.3135 -2.1029  0.9968
53123SOL     OW77360   8.833   3.929  11.392  0.0228  0.2191 -0.6677
53123SOL    HW177361   8.764   3.978  11.437 -1.8875 -1.5390 -1.4987
53123SOL    HW277362   8.839   3.846  11.440  1.3646  0.2126 -0.8060
53124SOL     OW77363   7.893   4.000  12.942  0.1112  0.0542  0.3581
53124SOL    HW177364   7.891   4.081  12.993  2.4828  0.5419 -0.1654
53124SOL    HW277365   7.896   4.028  12.851 -0.0599 -0.6631  0.1210
53125SOL     OW77366   8.762   5.560   1.197 -0.2544  0.2426  1.0830
53125SOL    HW177367   8.705   5.486   1.176  0.0319  0.3485 -0.1620
53125SOL    HW277368   8.703   5.635   1.206 -0.3110  0.5295 -1.0292
53126SOL     OW77369   3.863   2.933   0.553 -0.1518 -0.1578 -0.2222
53126SOL    HW177370   3.911   2.950   0.471  2.3973 -1.1800  0.9571
53126SOL    HW277371   3.791   2.876   0.527  0.8889 -0.8717 -1.7019
53127SOL     OW77372   0.333   2.570   7.788 -0.0098  0.6251  0.7052
53127SOL    HW177373   0.260   2.632   7.788 -1.6491 -1.1720 -0.9929
53127SOL    HW277374   0.369   2.575   7.876 -0.9777  2.9109  1.0462
53128SOL     OW77375   5.341   7.164   4.150 -0.2923  0.1135 -0.0949
53128SOL    HW177376   5.375   7.218   4.079 -0.4154 -1.4902 -1.4571
53128SOL    HW277377   5.419   7.133   4.197 -0.1581  0.4422 -0.1019
53129SOL     OW77378  11.713   0.809  10.112 -0.1503  0.1668 -0.2979
53129SOL    HW177379  11.656   0.738  10.080  0.3937 -0.8656  0.9163
53129SOL    HW277380  11.787   0.763  10.153 -0.0150  1.4182  0.9250
53130SOL     OW77381   5.899   1.895   2.974 -0.7961 -0.2824  0.7378
53130SOL    HW177382   5.968   1.864   3.034 -0.9170 -0.0775  0.9856
53130SOL    HW277383   5.945   1.956   2.915 -1.0269  0.9665  1.8015
53131SOL     OW77384  11.806   6.056   8.937  0.2545  0.1222 -0.1838
53131SOL    HW177385  11.855   6.132   8.969 -0.3970  0.5540 -0.1924
53131SOL    HW277386  11.776   6.012   9.016 -3.2280  2.3849 -0.0075
53132SOL     OW77387  13.134   7.346   5.553 -0.1383 -0.1040  0.5595
53132SOL    HW177388  13.167   7.273   5.605 -1.6105 -0.9905  0.3099
53132SOL    HW277389  13.125   7.418   5.615 -0.2029 -0.6280  1.1646
53133SOL     OW77390  12.227   3.681   3.563  0.1556  0.1537 -0.3812
53133SOL    HW177391  12.166   3.725   3.623 -1.4784 -3.3750  0.7937
53133SOL    HW277392  12.172   3.645   3.495  1.0407 -2.0048 -0.0289
53134SOL     OW77393   4.561   2.616  13.765  0.9299  0.2414 -0.1502
53134SOL    HW177394   4.619   2.550  13.728 -0.4465 -0.1852 -1.6272
53134SOL    HW277395   4.506   2.568  13.827  0.2627  0.0771 -0.8580
53135SOL     OW77396   6.046   1.928  10.338 -0.3103  0.1803  0.4357
53135SOL    HW177397   6.131   1.962  10.363  0.5186 -1.4338 -0.0341
53135SOL    HW277398   6.037   1.951  10.245 -0.1920 -0.0127  0.3759
53136SOL     OW77399   4.043  13.046   2.754 -0.7542 -0.3106 -0.0837
53136SOL    HW177400   4.081  12.958   2.746  1.5959  0.5351  0.8014
53136SOL    HW277401   4.062  13.088   2.670 -1.0900 -0.3571 -0.1842
53137SOL     OW77402   1.565  10.625  13.598  0.2904  0.2626 -0.0235
53137SOL    HW177403   1.557  10.603  13.691 -0.4356 -1.8507 -0.5194
53137SOL    HW277404   1.545  10.718  13.593  0.2353  0.3889  1.9205
53138SOL     OW77405   3.868  13.654   3.132  0.2149  0.6158 -0.6438
53138SOL    HW177406   3.864  13.740   3.174 -1.8255  0.3761 -0.2080
53138SOL    HW277407   3.894  13.594   3.202 -0.7495  0.5658 -0.3093
53139SOL     OW77408  13.796  13.642   8.645 -0.0136  0.0701  0.5639
53139SOL    HW177409  13.823  13.703   8.713  0.7799  1.7941 -1.1981
53139SOL    HW277410  13.710  13.610   8.674  0.2234  0.8530  2.2575
53140SOL     OW77411   2.347   5.065   8.750  0.6292  0.0063 -0.0630
53140SOL    HW177412   2.320   5.099   8.835  0.6735 -0.2066  0.0360
53140SOL    HW277413   2.359   5.143   8.696 -0.9497  0.0844 -0.3426
53141SOL     OW77414  11.812  13.223   8.767 -0.4463  0.1942  0.1494
53141SOL    HW177415  11.782  13.145   8.814  0.4629 -0.7619 -0.8015
53141SOL    HW277416  11.906  13.209   8.756 -0.6175  0.4124 -1.8877
53142SOL     OW77417  13.989   1.573   9.374  0.4396  0.5532  0.0479
53142SOL    HW177418  14.007   1.483   9.399 -0.7194  0.0089 -0.9734
53142SOL    HW277419  13.966   1.617   9.456  0.3309 -0.2425  0.4507
53143SOL     OW77420   5.203   4.542   6.646  0.2113  0.0517  0.7504
53143SOL    HW177421   5.126   4.516   6.696 -0.3042  0.5426  0.2410
53143SOL    HW277422   5.257   4.463   6.641  0.2031 -0.0426  1.9351
53144SOL     OW77423  11.565  11.151   1.989 -0.3012 -0.0413  0.2042
53144SOL    HW177424  11.646  11.143   2.040 -0.8092  0.8341  1.1925
53144SOL    HW277425  11.544  11.061   1.965  1.0882 -0.2678 -0.2944
53145SOL     OW77426   5.010  10.272   6.546  0.4549  0.0255  0.3673
53145SOL    HW177427   5.086  10.215   6.533  0.0068 -0.5556  0.2782
53145SOL    HW277428   4.980  10.252   6.634  1.8328  1.9864  1.3551
53146SOL     OW77429   9.982   4.351  11.402  0.3218 -0.0092 -0.0816
53146SOL    HW177430   9.910   4.401  11.364 -0.0747 -0.6737 -0.2397
53146SOL    HW277431  10.006   4.288  11.333 -0.8305 -1.6662  0.9382
53147SOL     OW77432   9.745  13.960  10.092  0.4527 -0.3155 -0.3318
53147SOL    HW177433   9.721  13.969  10.185 -0.4796  0.3561 -0.6204
53147SOL    HW277434   9.701  13.879  10.065  0.2401 -0.2019 -0.3311
53148SOL     OW77435   7.047  11.698   4.829  0.7455 -0.1169  0.0728
53148SOL    HW177436   7.039  11.793   4.834  0.3114 -0.1542  0.0728
53148SOL    HW277437   7.127  11.684   4.777 -0.8133  0.2415 -2.5956
53149SOL     OW77438   0.212   6.685  11.765  0.0577  0.0450  0.9060
53149SOL    HW177439   0.260   6.603  11.776  0.6746  0.5090  1.7534
53149SOL    HW277440   0.188   6.711  11.854 -1.3004  0.1085  0.5357
53150SOL     OW77441   5.392  12.454   5.254  0.0600 -0.5068  0.2817
53150SOL    HW177442   5.430  12.392   5.192  0.0245 -0.5916  0.3446
53150SOL    HW277443   5.400  12.411   5.339 -1.0508 -0.9369  0.1771
53151SOL     OW77444   9.449   4.107   1.057  0.0502  0.0626 -0.4935
53151SOL    HW177445   9.518   4.116   0.991 -0.7498  0.3840 -1.3128
53151SOL    HW277446   9.495   4.112   1.140  1.4514 -2.9992 -0.9561
53152SOL     OW77447  11.992  13.055  13.046 -0.6290  0.2680 -0.2801
53152SOL    HW177448  11.998  12.988  13.113 -1.0305 -0.7261 -1.2095
53152SOL    HW277449  12.044  13.020  12.973  0.1623  1.5170 -0.3423
53153SOL     OW77450   7.342   7.512  11.782 -0.1529  0.0292 -0.2244
53153SOL    HW177451   7.285   7.563  11.838 -1.5067  0.0336 -1.5476
53153SOL    HW277452   7.342   7.558  11.698  0.4748 -0.8718 -0.7485
53154SOL     OW77453   8.201   3.801  12.317 -0.2947  0.1633 -0.1014
53154SOL    HW177454   8.288   3.825  12.348  0.3551 -1.4226 -0.5917
53154SOL    HW277455   8.194   3.844  12.231  0.2743 -0.2187 -0.3455
53155SOL     OW77456  11.090   6.632   4.961 -0.4948 -0.4883  0.9747
53155SOL    HW177457  11.149   6.569   5.002  0.9029  0.5271  0.5974
53155SOL    HW277458  11.132   6.717   4.974 -0.6301  0.0128 -1.4261
53156SOL     OW77459   0.924   5.686   0.271  0.1065 -0.2833  0.0937
53156SOL    HW177460   1.013   5.652   0.258 -0.0075 -0.0531 -1.4005
53156SOL    HW277461   0.872   5.643   0.204 -0.6950  0.4495  0.2340
53157SOL     OW77462   0.092   2.328   4.441 -0.1252 -0.0663  0.2178
53157SOL    HW177463   0.086   2.396   4.507 -0.9595  1.0270 -0.9306
53157SOL    HW277464   0.183   2.298   4.444 -0.0839  0.1693  1.6265
53158SOL     OW77465   4.468  12.351   4.358  0.1779  0.1792  0.3009
53158SOL    HW177466   4.504  12.321   4.441  0.1311  0.1153  0.2976
53158SOL    HW277467   4.413  12.279   4.327  0.3510  0.1234  0.1203
53159SOL     OW77468  11.847   0.992   7.254 -0.4119 -0.1577 -0.6187
53159SOL    HW177469  11.887   0.925   7.200  0.6113 -0.2002  0.1701
53159SOL    HW277470  11.881   0.977   7.342  0.8860  2.1461 -0.6383
53160SOL     OW77471   9.587   7.976   5.788  0.5109 -0.0235 -0.0762
53160SOL    HW177472   9.588   8.017   5.701  0.6041 -0.4103 -0.2620
53160SOL    HW277473   9.537   7.895   5.775 -1.6520  1.0883  0.7797
53161SOL     OW77474   5.903  12.344   3.945 -0.2587 -0.3571  0.1345
53161SOL    HW177475   5.882  12.342   4.038  1.0092  1.2956  0.4873
53161SOL    HW277476   5.844  12.279   3.906 -0.8422 -1.0438  2.0616
53162SOL     OW77477   8.277  12.926  13.771 -0.4325 -0.3517 -0.9604
53162SOL    HW177478   8.365  12.916  13.735  0.2799 -0.1948  0.6255
53162SOL    HW277479   8.255  12.838  13.803  0.1883  0.1018  0.8172
53163SOL     OW77480   0.057   5.380   7.770 -0.6758  0.2138 -0.3428
53163SOL    HW177481   0.129   5.430   7.809 -0.1180 -0.2330 -0.7727
53163SOL    HW277482   0.084   5.288   7.779 -1.9318 -0.0711  0.9342
53164SOL     OW77483   4.419  13.614   2.259  0.3007 -0.0840  0.5863
53164SOL    HW177484   4.348  13.576   2.207  0.6117  1.7132 -1.3028
53164SOL    HW277485   4.496  13.562   2.236 -0.1941 -1.5097  2.0018
53165SOL     OW77486   8.945  11.422   4.425 -0.1966 -0.3127  0.3909
53165SOL    HW177487   8.967  11.501   4.377  0.9447 -0.8277  0.0223
53165SOL    HW277488   8.874  11.448   4.484 -1.2942  0.4664 -1.1901
53166SOL     OW77489  11.788  12.173  13.644  0.6750  0.0807 -0.0316
53166SOL    HW177490  11.836  12.254  13.654  3.2073 -1.5225  2.0999
53166SOL    HW277491  11.794  12.152  13.550 -0.4966  2.5133 -0.7139
53167SOL     OW77492   1.918   8.630  10.069  0.7460 -0.3830  0.5380
53167SOL    HW177493   1.902   8.696  10.137 -0.6374 -0.9011  0.7374
53167SOL    HW277494   1.896   8.675   9.987  2.2962  0.2007  0.4044
53168SOL     OW77495  11.474   5.258  12.288  0.3307 -0.3822 -0.0209
53168SOL    HW177496  11.554   5.269  12.237  0.3441  3.1059  0.5681
53168SOL    HW277497  11.504   5.247  12.378  0.2114  1.4877  0.2819
53169SOL     OW77498  10.031  11.124   9.567 -0.1348  0.0431  0.1090
53169SOL    HW177499  10.043  11.065   9.493  0.3165  1.2285 -0.7939
53169SOL    HW277500  10.008  11.208   9.528 -0.4629  0.5569  1.3467
53170SOL     OW77501   6.998   2.224  12.369  0.3667  0.0781 -0.1618
53170SOL    HW177502   6.959   2.163  12.307 -0.4333  0.8674 -0.4626
53170SOL    HW277503   7.090   2.229  12.344  0.4048 -0.8568 -0.2368
53171SOL     OW77504   8.553   7.891   0.590  0.4113  0.1024  0.0488
53171SOL    HW177505   8.546   7.860   0.500  1.7358  0.6166 -0.2548
53171SOL    HW277506   8.519   7.980   0.588 -1.3398 -0.5318  0.4681
53172SOL     OW77507   6.073   7.897   1.222 -0.1951 -0.2365  0.3193
53172SOL    HW177508   6.046   7.814   1.184 -2.2409  1.5465 -2.6425
53172SOL    HW277509   6.150   7.923   1.171  1.0892 -0.7179  1.9381
53173SOL     OW77510   7.630   4.215   0.807  0.7006 -0.2891 -0.6934
53173SOL    HW177511   7.614   4.131   0.849 -0.0211 -0.4321 -1.2425
53173SOL    HW277512   7.546   4.261   0.812  1.0636  0.3720 -0.4733
53174SOL     OW77513  12.869   7.458  13.905  0.0030 -0.1586  0.2867
53174SOL    HW177514  12.898   7.404  13.978  2.7208 -1.3332 -1.4789
53174SOL    HW277515  12.797   7.408  13.865  0.6391 -1.1038  0.3026
53175SOL     OW77516  12.025  13.368   8.110  0.0109 -0.1584 -0.7160
53175SOL    HW177517  12.023  13.463   8.115 -1.9090 -0.2407  2.0318
53175SOL    HW277518  11.940  13.344   8.074 -0.2368 -0.8604  0.2967
53176SOL     OW77519  12.368   0.106   6.502  0.0955 -0.2286 -0.1445
53176SOL    HW177520  12.408   0.152   6.576 -0.4953 -0.2687  0.2071
53176SOL    HW277521  12.430   0.118   6.430  0.1561  0.7629  0.0571
53177SOL     OW77522   7.194  13.154   7.117 -0.7784  0.2876  0.2683
53177SOL    HW177523   7.223  13.114   7.199 -0.6505 -0.3107 -0.0612
53177SOL    HW277524   7.158  13.239   7.143 -0.9054  0.0280  0.9622
53178SOL     OW77525  11.742   6.071   8.415  0.0962  0.1924 -0.1663
53178SOL    HW177526  11.774   6.081   8.505 -0.1193 -1.0137  0.0596
53178SOL    HW277527  11.774   6.149   8.370  0.4022  0.7080  0.8981
53179SOL     OW77528   6.747   0.732   1.589  0.2748 -0.5548 -0.1820
53179SOL    HW177529   6.736   0.668   1.659  0.2472 -0.7308 -0.3461
53179SOL    HW277530   6.837   0.763   1.597  0.9286 -2.0417 -1.2973
53180SOL     OW77531  12.228   6.975   6.281  0.3909 -0.2034  0.2261
53180SOL    HW177532  12.312   7.007   6.314  1.0360 -1.4177 -0.1794
53180SOL    HW277533  12.192   6.923   6.353  1.2574 -1.8861 -0.4907
53181SOL     OW77534   0.501  13.011   6.270 -0.1543 -0.1782  0.4574
53181SOL    HW177535   0.581  12.994   6.319 -0.0177  0.5495  0.4944
53181SOL    HW277536   0.509  12.957   6.192  0.9271  0.7775 -0.1189
53182SOL     OW77537   1.344   2.431   9.679  0.2065 -0.0904 -0.1862
53182SOL    HW177538   1.277   2.389   9.733 -0.4253 -0.9167 -1.5511
53182SOL    HW277539   1.308   2.517   9.660 -1.0200 -0.8948 -1.7714
53183SOL     OW77540   1.662   8.075   9.079 -0.5576 -0.6309 -0.3952
53183SOL    HW177541   1.606   7.998   9.070 -0.1199 -0.8935 -0.8990
53183SOL    HW277542   1.688   8.074   9.171 -2.0476 -0.0271  0.0740
53184SOL     OW77543   9.790   9.585  10.283 -0.2770 -0.1139 -0.0349
53184SOL    HW177544   9.698   9.609  10.294  0.0095  1.5318 -0.9916
53184SOL    HW277545   9.795   9.545  10.196  0.5139  3.4361 -1.7811
53185SOL     OW77546   4.462  13.051  10.241  0.0792  0.1013 -0.1158
53185SOL    HW177547   4.522  13.073  10.169  0.3190 -2.6141 -0.8636
53185SOL    HW277548   4.375  13.057  10.203  0.2403 -2.1830 -0.9966
53186SOL     OW77549   8.320   9.707   6.281 -0.1636 -0.1282 -0.3015
53186SOL    HW177550   8.239   9.733   6.237 -0.2410  1.5964  0.7691
53186SOL    HW277551   8.336   9.776   6.345  1.7528 -0.8265  0.0499
53187SOL     OW77552   9.637  12.665   3.595 -0.1283  0.3956 -0.2434
53187SOL    HW177553   9.588  12.731   3.545  0.9638  1.2364 -0.2454
53187SOL    HW277554   9.729  12.681   3.572  0.1250 -1.6505 -0.8493
53188SOL     OW77555   4.723   6.554  10.845  0.2819  0.6672 -0.6293
53188SOL    HW177556   4.816   6.570  10.859 -0.1096  2.2693  0.3070
53188SOL    HW277557   4.678   6.625  10.891 -1.5416 -1.8130  1.8021
53189SOL     OW77558   2.260   8.993   2.465 -0.4651 -0.1860 -0.0975
53189SOL    HW177559   2.209   8.945   2.400 -1.5118  0.7168  0.0304
53189SOL    HW277560   2.235   9.084   2.454 -2.3085 -0.1642  2.8626
53190SOL     OW77561   2.601   8.340  13.977  0.2331 -0.3230 -0.3047
53190SOL    HW177562   2.514   8.356  14.014 -0.5435 -3.4342 -0.5834
53190SOL    HW277563   2.652   8.304  14.049  0.6689 -0.4526 -0.6715
53191SOL     OW77564  13.620  12.906   5.573  0.3098  0.4252 -0.4766
53191SOL    HW177565  13.683  12.935   5.507  0.1643  2.0703  0.0598
53191SOL    HW277566  13.656  12.937   5.656  0.0885 -0.9246  0.1448
53192SOL     OW77567  10.559  12.223   9.952  0.1845 -0.1829 -0.2130
53192SOL    HW177568  10.492  12.156   9.965 -0.7157  0.7118 -0.0975
53192SOL    HW277569  10.625  12.204  10.019 -0.6176 -0.2909  0.5753
53193SOL     OW77570   3.371  11.124   5.464  0.0905 -0.2973 -0.0684
53193SOL    HW177571   3.344  11.215   5.481  1.9133  0.7128 -2.1203
53193SOL    HW277572   3.318  11.072   5.525 -1.8649  2.0160  0.3778
53194SOL     OW77573  11.572   0.433   9.179 -0.3930  0.2929  0.2459
53194SOL    HW177574  11.559   0.422   9.084  1.8517 -0.4822 -0.0422
53194SOL    HW277575  11.569   0.528   9.192 -1.3478  0.3800 -0.4931
53195SOL     OW77576   7.557  11.212   1.313 -0.2211 -0.0204  0.4299
53195SOL    HW177577   7.498  11.191   1.386 -0.8542  0.5214  0.0950
53195SOL    HW277578   7.509  11.184   1.235  0.9744 -1.7493  0.2653
53196SOL     OW77579   0.504   5.469   3.767  0.2117 -0.1817  0.1544
53196SOL    HW177580   0.529   5.514   3.848 -0.3956 -0.3436  0.4327
53196SOL    HW277581   0.465   5.537   3.713  1.0152  0.0235 -0.1921
53197SOL     OW77582  12.637  12.997   5.434  0.1910 -0.3259 -0.2679
53197SOL    HW177583  12.626  13.028   5.524 -1.3159  0.2806 -0.6311
53197SOL    HW277584  12.647  12.902   5.442 -2.4792 -0.6223  0.4331
53198SOL     OW77585   8.994   5.646   5.916 -0.2383 -0.4173 -0.2907
53198SOL    HW177586   9.064   5.596   5.958 -0.4121 -1.5173 -1.2539
53198SOL    HW277587   9.023   5.656   5.825  0.0401  1.7286 -0.0123
53199SOL     OW77588   7.892   3.434   2.629 -0.2851  0.0766 -0.2434
53199SOL    HW177589   7.831   3.505   2.608  0.6463  0.5941 -1.2506
53199SOL    HW277590   7.891   3.431   2.725 -3.2444 -1.1385 -0.2055
53200SOL     OW77591   2.567   1.293  10.816  0.0053  0.1350 -0.0912
53200SOL    HW177592   2.477   1.262  10.802  0.1411 -0.5844  0.5651
53200SOL    HW277593   2.587   1.344  10.738 -0.7785 -0.1650 -0.5004
53201SOL     OW77594   3.000   4.703   6.158 -0.2599  0.0844  0.0394
53201SOL    HW177595   2.944   4.762   6.208  0.8260  0.7349  0.5332
53201SOL    HW277596   2.953   4.620   6.156 -1.2781  0.6416  0.3308
53202SOL     OW77597   9.376  13.460   6.938  0.0475  0.5374  0.4818
53202SOL    HW177598   9.332  13.509   6.869 -0.9076 -0.2660  0.4976
53202SOL    HW277599   9.307  13.434   6.998  0.7595  0.5474  1.3320
53203SOL     OW77600  11.611   2.917   6.581 -0.3847  0.1495  0.6021
53203SOL    HW177601  11.526   2.945   6.546  0.1613  2.8405  1.2552
53203SOL    HW277602  11.600   2.918   6.676  0.3672  0.5813  0.6968
53204SOL     OW77603   6.906  13.249   7.474  0.3338  0.1813  0.1944
53204SOL    HW177604   6.947  13.172   7.514  0.8285  0.6894  0.6768
53204SOL    HW277605   6.814  13.225   7.466  0.7183 -1.0772 -1.1292
53205SOL     OW77606   6.957   7.705   7.514  0.2890 -0.2821 -0.1651
53205SOL    HW177607   6.988   7.788   7.479  0.6424  0.0113  0.8148
53205SOL    HW277608   6.887   7.729   7.574 -0.1861 -0.7656 -0.5170
53206SOL     OW77609   1.748   0.655  12.015  0.4269 -0.0881  0.1377
53206SOL    HW177610   1.700   0.640  12.096  1.4394  1.0886  1.0073
53206SOL    HW277611   1.782   0.744  12.024  2.6626 -0.8158 -0.4698
53207SOL     OW77612  10.729   3.339  10.899 -0.0153 -0.4074 -0.3388
53207SOL    HW177613  10.769   3.328  10.812  0.5755 -0.0694 -0.1128
53207SOL    HW277614  10.804   3.348  10.958 -0.4323  0.1194  0.1037
53208SOL     OW77615   9.304   2.410   7.659 -0.5309  0.0702 -0.5804
53208SOL    HW177616   9.393   2.442   7.640 -0.0198 -0.2225  1.1770
53208SOL    HW277617   9.276   2.368   7.577  2.6440 -3.7024 -0.0270
53209SOL     OW77618   5.695  10.211   0.610  0.4327 -0.4870 -0.9141
53209SOL    HW177619   5.756  10.178   0.676  0.1285  0.4914 -0.1134
53209SOL    HW277620   5.748  10.271   0.557  0.1566  0.5057 -0.1043
53210SOL     OW77621   4.373   4.008  11.665 -0.0690 -0.0523  0.3058
53210SOL    HW177622   4.297   4.061  11.641 -0.6723 -0.8552  0.4015
53210SOL    HW277623   4.379   4.017  11.760 -0.6367 -0.7583  0.4130
53211SOL     OW77624  14.061   0.900   2.520 -0.5084 -0.8519 -0.0741
53211SOL    HW177625  14.004   0.838   2.475 -1.8348 -0.1949  0.6417
53211SOL    HW277626  14.006   0.976   2.537  1.0284  0.4938 -0.7851
53212SOL     OW77627  14.129   8.997  12.145 -0.9006  0.1588  0.2381
53212SOL    HW177628  14.172   9.014  12.061  1.0046 -0.2050  1.0948
53212SOL    HW277629  14.102   9.083  12.176  0.0559  0.5207  0.0949
53213SOL     OW77630   7.448   1.240  11.056 -0.5143  0.3039  0.3514
53213SOL    HW177631   7.404   1.324  11.043 -0.5967  0.0850 -0.9600
53213SOL    HW277632   7.409   1.182  10.990 -0.2028 -0.6646  0.9924
53214SOL     OW77633  12.102   5.600   6.189  0.7833 -0.1399 -0.7656
53214SOL    HW177634  12.142   5.673   6.237  0.4482 -1.3862  1.5615
53214SOL    HW277635  12.025   5.639   6.147  0.8931  0.9600 -0.0072
53215SOL     OW77636   7.066   0.563  13.386  0.0044  0.0922  0.1986
53215SOL    HW177637   7.064   0.619  13.308  0.3296  0.9227  0.7777
53215SOL    HW277638   7.126   0.491  13.362  0.6644  0.7213 -0.0765
53216SOL     OW77639  11.460  13.785   1.358  0.0558 -0.1296  0.5064
53216SOL    HW177640  11.505  13.709   1.320 -0.8590 -0.1003 -0.6897
53216SOL    HW277641  11.512  13.860   1.330 -0.4212 -0.1363 -0.4440
53217SOL     OW77642   0.605   2.310   2.252  0.0588  0.2574 -0.5234
53217SOL    HW177643   0.526   2.260   2.234  0.1772 -0.3125  0.4831
53217SOL    HW277644   0.585   2.358   2.333 -0.1152  1.9834 -1.5366
53218SOL     OW77645   4.308   2.748   6.255 -0.6539 -0.2097 -0.2650
53218SOL    HW177646   4.282   2.733   6.346 -0.6242 -0.7687 -0.3426
53218SOL    HW277647   4.248   2.694   6.204  0.5009 -1.3865 -0.4605
53219SOL     OW77648   5.946   3.004   0.005  0.0635  0.2428 -0.2182
53219SOL    HW177649   5.935   3.036  -0.085 -0.0811  2.2119  0.4696
53219SOL    HW277650   6.038   3.021   0.026 -0.3084  1.3706  0.5721
53220SOL     OW77651   0.580  10.839  14.022 -0.0901 -0.3924 -0.1784
53220SOL    HW177652   0.561  10.797  13.938  0.2950 -2.4036  0.6972
53220SOL    HW277653   0.547  10.778  14.088  1.0210  0.4151  1.1772
53221SOL     OW77654  13.188   4.378   7.818  0.1554 -0.6640  0.1463
53221SOL    HW177655  13.167   4.316   7.888  1.0544  0.2854  1.3017
53221SOL    HW277656  13.277   4.355   7.791  0.0371 -0.6420 -0.2682
53222SOL     OW77657   0.574   2.783   0.208 -0.0171  0.1032  0.0534
53222SOL    HW177658   0.509   2.712   0.203 -0.2682  0.2086  1.4866
53222SOL    HW277659   0.522   2.862   0.224  0.4636  0.1174  1.7204
53223SOL     OW77660   9.804   5.614   4.313  0.2417  0.0147 -0.3249
53223SOL    HW177661   9.863   5.611   4.389  0.1908  0.4259 -0.2654
53223SOL    HW277662   9.850   5.669   4.250  0.2014 -0.1782 -0.5228
53224SOL     OW77663   6.740  12.340   2.783  0.1552  0.3611 -0.0925
53224SOL    HW177664   6.823  12.293   2.778 -0.7243 -1.2144 -0.4162
53224SOL    HW277665   6.752  12.401   2.856  1.6856  0.3918 -0.3291
53225SOL     OW77666   9.940   8.528   3.438 -0.3129  0.2396  0.2913
53225SOL    HW177667   9.948   8.447   3.489 -2.1224  0.6784  1.3529
53225SOL    HW277668   9.861   8.515   3.385 -0.5650  1.2737  0.4002
53226SOL     OW77669  13.548   6.193   3.744 -0.0961  0.3714 -0.1497
53226SOL    HW177670  13.544   6.192   3.840 -0.5886  0.0156 -0.1729
53226SOL    HW277671  13.595   6.274   3.724  0.5576  0.1436  0.4076
53227SOL     OW77672   3.481  11.143   7.024 -0.3025 -0.2364 -0.6258
53227SOL    HW177673   3.568  11.173   6.998  0.4060  0.6427  2.3572
53227SOL    HW277674   3.424  11.170   6.952  1.0608  4.0566 -0.3813
53228SOL     OW77675   2.478   2.237   9.607  0.6922  0.2373 -0.7807
53228SOL    HW177676   2.410   2.245   9.674 -0.1765 -1.5925 -1.3859
53228SOL    HW277677   2.457   2.306   9.544  0.2340  0.5888 -0.2560
53229SOL     OW77678  11.508   2.444  12.919 -0.1319 -0.1205  0.3955
53229SOL    HW177679  11.570   2.491  12.975  1.0880 -0.3656 -0.7122
53229SOL    HW277680  11.427   2.493  12.928  0.5457  0.9715  0.8861
53230SOL     OW77681   2.384   9.505   6.356 -0.2274 -0.0882  0.0002
53230SOL    HW177682   2.386   9.593   6.320 -1.4366  0.0731  0.2525
53230SOL    HW277683   2.297   9.498   6.397  0.6899 -0.5784  2.0272
53231SOL     OW77684  13.057  11.878   0.074  0.2287  0.2391 -0.2842
53231SOL    HW177685  13.085  11.919  -0.008  0.5298 -0.6450 -0.6286
53231SOL    HW277686  13.112  11.920   0.141  0.3043  0.6300 -0.5875
53232SOL     OW77687   4.495   5.992  10.602  0.5292  0.0923 -0.5366
53232SOL    HW177688   4.566   6.038  10.557 -0.4081  0.0742 -2.1164
53232SOL    HW277689   4.486   5.909  10.555  0.6446 -0.6958  0.7998
53233SOL     OW77690   9.560  10.238   7.817 -0.0182 -0.0102  0.7273
53233SOL    HW177691   9.471  10.213   7.791 -0.1004  1.6182 -0.7067
53233SOL    HW277692   9.550  10.270   7.907 -1.2875  2.0093 -0.0725
53234SOL     OW77693   9.336   2.241  12.805 -0.6975  0.1153 -0.2554
53234SOL    HW177694   9.417   2.285  12.781 -0.6189 -0.7320 -1.6153
53234SOL    HW277695   9.272   2.271  12.740 -0.9153 -0.9133 -0.5266
53235SOL     OW77696  11.396   4.371   4.285 -0.8690  0.0986  0.3626
53235SOL    HW177697  11.339   4.315   4.231  1.0835 -1.7000  0.0109
53235SOL    HW277698  11.422   4.315   4.358 -0.2318  1.1655  0.9781
53236SOL     OW77699  12.706   2.702  11.842 -0.0562 -0.2073 -0.1096
53236SOL    HW177700  12.624   2.741  11.872  0.6878  0.1623  1.5726
53236SOL    HW277701  12.714   2.621  11.893  0.1802 -0.7154 -0.9385
53237SOL     OW77702  10.937   3.268   4.576 -0.1593  0.0573 -0.2914
53237SOL    HW177703  10.962   3.204   4.642  0.7643  1.1624  0.4785
53237SOL    HW277704  10.989   3.345   4.597 -1.4794  1.1806 -0.9942
53238SOL     OW77705   2.984   9.095   2.785  0.2005  0.1319  0.0714
53238SOL    HW177706   3.076   9.073   2.798 -0.2853 -1.4802  1.0770
53238SOL    HW277707   2.968   9.168   2.844  0.5911 -0.2767  0.6977
53239SOL     OW77708   7.469   3.985  11.629 -0.1599  0.2487  0.4805
53239SOL    HW177709   7.399   4.049  11.617 -1.1152 -0.4465  2.0136
53239SOL    HW277710   7.483   3.947  11.542  0.4414  2.5006 -0.4662
53240SOL     OW77711   9.124   9.299   8.420 -0.1130 -0.1106  0.0831
53240SOL    HW177712   9.216   9.311   8.445 -0.3833  0.9660  0.6047
53240SOL    HW277713   9.087   9.247   8.491  0.1223 -0.6798 -0.2046
53241SOL     OW77714  11.224   8.003   2.199  0.4337  0.1110 -0.2215
53241SOL    HW177715  11.296   7.972   2.144  0.5951  1.1205 -0.6022
53241SOL    HW277716  11.260   8.080   2.244  0.5313 -1.0737  1.8376
53242SOL     OW77717   4.370  13.105   2.786 -0.0948  0.4232  0.0866
53242SOL    HW177718   4.397  13.020   2.752 -1.1802 -0.4223  1.2713
53242SOL    HW277719   4.279  13.114   2.760 -0.9243 -0.1924  2.5331
53243SOL     OW77720   2.617  11.581   5.300 -0.0174 -0.2383  0.3161
53243SOL    HW177721   2.589  11.612   5.214  1.2552 -1.2605 -0.5049
53243SOL    HW277722   2.535  11.559   5.345 -0.7855 -5.2772 -2.7874
53244SOL     OW77723  13.753   6.709   1.365 -0.8085  0.7639  0.2838
53244SOL    HW177724  13.803   6.789   1.347  0.5723 -0.1088  0.0968
53244SOL    HW277725  13.669   6.723   1.321 -1.1158  2.6416  1.3418
53245SOL     OW77726  13.265   8.779   4.263 -0.7355 -0.6888 -0.2243
53245SOL    HW177727  13.261   8.810   4.173 -0.7257 -1.5340 -0.5183
53245SOL    HW277728  13.355   8.799   4.290 -0.2461 -1.8505 -0.9282
53246SOL     OW77729   5.607   7.446  13.555 -0.0570  0.1837  0.0493
53246SOL    HW177730   5.531   7.438  13.498  0.5305 -0.6409 -0.6358
53246SOL    HW277731   5.657   7.366  13.540  0.0682 -0.1038  1.7966
53247SOL     OW77732   7.141   5.516  10.315  0.1609  0.2265 -0.1030
53247SOL    HW177733   7.110   5.446  10.258  0.0509 -0.2652  0.5455
53247SOL    HW277734   7.165   5.587  10.255 -0.3884 -0.0988 -0.7283
53248SOL     OW77735   7.860  10.647   4.880  0.4694  0.5291 -0.2296
53248SOL    HW177736   7.807  10.670   4.956  0.3857 -1.4800  0.3696
53248SOL    HW277737   7.938  10.702   4.888 -0.2335  1.4803  0.4064
53249SOL     OW77738  10.461   6.144   9.973  0.0221 -0.2529  0.2856
53249SOL    HW177739  10.416   6.227   9.988 -0.1514 -0.5709  1.5959
53249SOL    HW277740  10.538   6.147  10.029 -0.1750 -1.1156  0.6195
53250SOL     OW77741   7.534   8.525  11.017 -0.1474  0.5128  0.7648
53250SOL    HW177742   7.549   8.441  11.062  0.0448  0.4996  0.6764
53250SOL    HW277743   7.617   8.544  10.974 -0.6790 -0.0468 -0.5526
53251SOL     OW77744   5.565   5.875   0.784 -0.8729 -0.2363 -0.0019
53251SOL    HW177745   5.554   5.876   0.879 -0.3669 -0.9147  0.0726
53251SOL    HW277746   5.618   5.953   0.766 -2.1032  0.6539  0.1022
53252SOL     OW77747   9.064  10.768   0.338  0.4456 -0.1836 -0.3972
53252SOL    HW177748   8.986  10.812   0.372  1.0900 -0.7519  1.9885
53252SOL    HW277749   9.136  10.830   0.354  0.5572  0.3302 -2.5560
53253SOL     OW77750   7.739   9.818   1.734 -0.0873 -0.0459  0.0938
53253SOL    HW177751   7.718   9.838   1.643  1.9550  0.4153 -0.3324
53253SOL    HW277752   7.660   9.840   1.783 -1.7000 -1.5396 -1.6791
53254SOL     OW77753   6.422   4.466   9.407 -0.2553  0.4500 -0.0529
53254SOL    HW177754   6.349   4.476   9.468 -0.6512 -0.1543 -0.4108
53254SOL    HW277755   6.484   4.409   9.453 -1.1092 -1.0394 -0.6561
53255SOL     OW77756   8.389  13.996   7.315  0.4211  1.0453 -0.0313
53255SOL    HW177757   8.346  13.989   7.400 -0.8892 -0.4754 -0.7834
53255SOL    HW277758   8.480  14.017   7.337 -0.0858  1.6652  1.6852
53256SOL     OW77759   4.663   6.423   9.976 -0.1179  0.5677  0.6730
53256SOL    HW177760   4.714   6.423  10.057 -0.1227 -0.8272  0.7104
53256SOL    HW277761   4.720   6.463   9.911  1.3984 -1.6241  0.5308
53257SOL     OW77762  10.824   8.542  13.580  0.5374 -0.2132 -0.1738
53257SOL    HW177763  10.735   8.557  13.612  0.0092  0.5614 -1.9159
53257SOL    HW277764  10.876   8.527  13.660 -0.6850  1.7120  1.0652
53258SOL     OW77765   3.437  11.737  10.821 -0.2707 -0.2183  0.0756
53258SOL    HW177766   3.464  11.703  10.907  0.7004  1.2826  0.4050
53258SOL    HW277767   3.349  11.772  10.836 -0.4233 -0.6687  0.2552
53259SOL     OW77768   8.462   3.868  12.436  0.1009  0.5317 -0.0618
53259SOL    HW177769   8.418   3.951  12.418 -1.3406  0.2317  1.7517
53259SOL    HW277770   8.544   3.873  12.387  0.6669  3.5689  1.0015
53260SOL     OW77771   5.004   6.605  10.807 -0.1596 -0.2012  0.0761
53260SOL    HW177772   5.065   6.679  10.804  0.5200 -0.7605 -0.3715
53260SOL    HW277773   5.017   6.560  10.724 -0.9237 -0.5407  0.1376
53261SOL     OW77774   9.244  11.254   5.982  0.2350  0.2441  0.4099
53261SOL    HW177775   9.260  11.180   5.922  1.2877  0.1025  0.8385
53261SOL    HW277776   9.301  11.323   5.949 -1.0955  1.0631 -0.2763
53262SOL     OW77777   4.938   1.079  12.598 -0.0427  0.0660 -0.1606
53262SOL    HW177778   5.026   1.116  12.595 -0.6349  1.5679  0.1264
53262SOL    HW277779   4.910   1.076  12.507  0.9918 -2.2817 -0.4862
53263SOL     OW77780   7.305  13.805   8.016 -0.1979 -0.0912  0.2138
53263SOL    HW177781   7.303  13.815   7.921 -0.9351  0.5523  0.2795
53263SOL    HW277782   7.370  13.737   8.033  1.4261  1.1591 -0.6351
53264SOL     OW77783   7.203   3.018  13.971  1.3003 -1.0022 -0.7406
53264SOL    HW177784   7.248   3.087  14.020 -0.6265  0.0303 -0.2929
53264SOL    HW277785   7.226   2.937  14.017  0.5777 -0.2119  1.1438
53265SOL     OW77786   3.700   5.513   1.577  0.0978  0.5262 -0.4799
53265SOL    HW177787   3.648   5.500   1.497 -2.3757 -0.0656  1.1274
53265SOL    HW277788   3.788   5.534   1.545 -0.4127 -1.2134 -3.3411
53266SOL     OW77789   0.649  14.081  13.776  0.4002  0.2551 -0.4051
53266SOL    HW177790   0.725  14.100  13.831 -0.0330  1.8006 -0.3012
53266SOL    HW277791   0.589  14.034  13.834  1.1138 -0.6508 -0.3851
53267SOL     OW77792   0.386  13.537   7.690 -0.4103 -0.2558 -0.3894
53267SOL    HW177793   0.341  13.491   7.761  0.2058  0.0921  0.2339
53267SOL    HW277794   0.404  13.624   7.725  1.0467 -0.4858 -0.4954
53268SOL     OW77795  12.702  13.278   2.006 -0.4412 -0.6220 -0.0951
53268SOL    HW177796  12.690  13.184   1.994  0.0061 -0.9131  1.5563
53268SOL    HW277797  12.623  13.307   2.051 -0.2618 -0.3353  0.0376
53269SOL     OW77798   4.565   5.653   0.628 -0.2092  0.0276 -0.1349
53269SOL    HW177799   4.642   5.628   0.578 -1.1293  0.9199 -2.1026
53269SOL    HW277800   4.527   5.570   0.656  0.7984 -0.4591 -0.1625
53270SOL     OW77801   0.516   8.155   7.272 -0.0257  0.1093  0.0496
53270SOL    HW177802   0.467   8.142   7.353 -0.5646 -1.5838 -0.4964
53270SOL    HW277803   0.550   8.068   7.250 -1.6346  0.0263 -2.6070
53271SOL     OW77804   4.807   3.807  13.323 -0.3313  0.2977 -0.1367
53271SOL    HW177805   4.789   3.874  13.389  0.2221  0.7612 -0.4432
53271SOL    HW277806   4.849   3.736  13.371  1.5898  1.3141 -0.2206
53272SOL     OW77807   3.354   0.750   4.984 -0.1655 -0.2409  0.2228
53272SOL    HW177808   3.368   0.806   4.908 -1.3062  0.0588  0.2112
53272SOL    HW277809   3.302   0.676   4.949  0.1639 -0.6132  0.5115
53273SOL     OW77810   6.524   3.819  10.122  0.1484 -0.0508 -0.2713
53273SOL    HW177811   6.596   3.832  10.185  0.7453 -0.1459 -0.9182
53273SOL    HW277812   6.469   3.897  10.133 -0.1563 -0.4021  0.8704
53274SOL     OW77813  12.969  11.891   7.330 -0.6644  0.0833 -0.4750
53274SOL    HW177814  13.062  11.905   7.315  0.1196 -1.5141  2.2742
53274SOL    HW277815  12.927  11.969   7.294  1.7000  0.8389 -1.8038
53275SOL     OW77816  11.435   6.907   0.248  0.6542  0.1831 -0.1027
53275SOL    HW177817  11.425   6.872   0.159  1.3112  1.8152 -0.8827
53275SOL    HW277818  11.519   6.954   0.245  1.1484 -0.5240  1.6827
53276SOL     OW77819   1.203  11.753   5.882  0.2781  0.0486 -0.2451
53276SOL    HW177820   1.251  11.787   5.957  0.6762  0.1070 -0.5213
53276SOL    HW277821   1.111  11.765   5.905  0.4046  1.3223 -0.3348
53277SOL     OW77822   6.537   8.229   7.122  0.3229 -0.3710  0.4192
53277SOL    HW177823   6.508   8.318   7.143 -0.8114 -0.9182  1.2807
53277SOL    HW277824   6.608   8.211   7.182  1.3411  0.3508 -0.5301
53278SOL     OW77825   2.316   6.558  12.710  0.1587 -0.1380  0.4302
53278SOL    HW177826   2.286   6.568  12.800  1.3654  2.1265  0.6658
53278SOL    HW277827   2.332   6.464  12.700 -0.4336 -0.5003  2.4217
53279SOL     OW77828   8.848  10.596   7.619  0.1306  0.0169  0.3659
53279SOL    HW177829   8.916  10.657   7.649  0.5559  0.7574 -1.8992
53279SOL    HW277830   8.807  10.640   7.545 -1.2432 -1.4385  0.1978
53280SOL     OW77831   1.823  10.173  13.134  0.5591 -0.5122  0.0803
53280SOL    HW177832   1.894  10.228  13.100 -0.4131  1.2879  0.8319
53280SOL    HW277833   1.768  10.154  13.058  0.3744  0.3875 -0.0155
53281SOL     OW77834   4.319   1.764   0.195  0.3570 -0.3288  0.2766
53281SOL    HW177835   4.382   1.725   0.136  0.4970  0.5219 -0.1441
53281SOL    HW277836   4.245   1.703   0.195  0.2662 -0.2325 -0.9324
53282SOL     OW77837   1.039   4.982   3.670  0.3314  0.7229 -0.0240
53282SOL    HW177838   0.974   5.013   3.607  0.1600  0.7544  0.1674
53282SOL    HW277839   1.059   4.893   3.643 -1.2921 -0.0362  1.0864
53283SOL     OW77840   9.654   0.949  13.601 -0.1236 -0.1014 -0.1188
53283SOL    HW177841   9.749   0.960  13.596 -0.0637 -0.1521  0.8726
53283SOL    HW277842   9.618   1.029  13.563  0.2697 -1.5261 -3.9367
53284SOL     OW77843   0.167  13.619  13.957  0.0452 -0.3910  0.4831
53284SOL    HW177844   0.200  13.698  13.914  0.9366 -0.5485  0.8534
53284SOL    HW277845   0.241  13.587  14.009 -0.6480 -0.8532  1.2122
53285SOL     OW77846   7.122  12.351   7.949  0.0357  0.2095  0.2344
53285SOL    HW177847   7.060  12.278   7.949  1.5234 -1.1000  0.3093
53285SOL    HW277848   7.207  12.310   7.937  0.7935  2.0825 -1.2657
53286SOL     OW77849   4.369   1.606   7.598  0.4751 -0.1239  0.0783
53286SOL    HW177850   4.312   1.625   7.523 -0.5332  2.9929  1.4592
53286SOL    HW277851   4.333   1.526   7.636 -0.4429 -0.4565 -1.4052
53287SOL     OW77852   2.118   5.944  13.970 -0.0477 -0.9837  0.2573
53287SOL    HW177853   2.113   5.967  14.063  0.5344  0.0796  0.0433
53287SOL    HW277854   2.211   5.955  13.948 -0.3289 -0.2959 -0.6585
53288SOL     OW77855  13.999   8.501  13.616  0.0078  0.9731 -0.1231
53288SOL    HW177856  14.089   8.529  13.630  0.0571  0.6338  0.2851
53288SOL    HW277857  14.006   8.412  13.581 -0.1420  1.4676 -1.4332
53289SOL     OW77858  11.671   7.518   8.352 -0.1158  0.5348 -0.5663
53289SOL    HW177859  11.698   7.463   8.425  1.5238  1.2218 -0.6080
53289SOL    HW277860  11.696   7.607   8.379  0.4644  0.8049 -1.9174
53290SOL     OW77861   2.849   7.567   5.800 -0.5015 -0.2110  0.1763
53290SOL    HW177862   2.874   7.557   5.709 -0.2661 -0.5225  0.2721
53290SOL    HW277863   2.929   7.595   5.845 -0.8540  0.9072  0.1268
53291SOL     OW77864   9.080   5.709   5.658 -0.6110 -0.1784 -0.0273
53291SOL    HW177865   9.091   5.799   5.626 -0.3723  0.4890  1.8052
53291SOL    HW277866   9.143   5.658   5.607  0.5409  1.0261  0.1342
53292SOL     OW77867  10.590   6.823   7.948 -0.1123 -0.0281  0.1416
53292SOL    HW177868  10.546   6.739   7.960  0.2810 -0.1513  0.7824
53292SOL    HW277869  10.656   6.806   7.880  0.1700 -0.3251  0.4820
53293SOL     OW77870   0.452   1.117  13.833  0.1784 -0.3863  0.5073
53293SOL    HW177871   0.415   1.199  13.866 -0.4619 -0.3669 -0.2481
53293SOL    HW277872   0.511   1.144  13.763  1.7484 -0.4083  1.7654
53294SOL     OW77873   0.550   9.046   1.058  0.0365 -0.1111 -0.4192
53294SOL    HW177874   0.636   9.075   1.026  0.9549 -2.3463 -0.1838
53294SOL    HW277875   0.544   8.955   1.029 -0.7848 -1.0532  2.4102
53295SOL     OW77876  11.270   0.252   6.673  0.3700 -0.2360 -0.1392
53295SOL    HW177877  11.324   0.236   6.596 -0.2244  0.3494 -0.6843
53295SOL    HW277878  11.184   0.215   6.652  0.2595 -0.2561  0.3188
53296SOL     OW77879   6.611  13.434   0.089 -0.4921 -0.0213 -0.1894
53296SOL    HW177880   6.695  13.402   0.056 -0.0139  1.7114 -0.7621
53296SOL    HW277881   6.548  13.367   0.063  0.4529 -0.5161 -1.2881
53297SOL     OW77882   4.786  10.264   7.243 -0.2856  0.1292 -0.5284
53297SOL    HW177883   4.849  10.256   7.314 -1.0602  0.3637  0.1988
53297SOL    HW277884   4.701  10.259   7.286 -0.7709  1.5187 -1.2812
53298SOL     OW77885   3.953  12.620   5.665  0.4703  0.0204 -0.2948
53298SOL    HW177886   3.871  12.626   5.716 -0.1739 -0.4890 -1.2455
53298SOL    HW277887   4.013  12.678   5.711 -0.0796 -0.4443  1.0838
53299SOL     OW77888  11.027   7.145   6.147  0.1334  0.2416  0.4228
53299SOL    HW177889  11.033   7.213   6.215 -0.0213 -0.0098  0.6897
53299SOL    HW277890  11.054   7.065   6.192  0.1780  0.1018  0.1449
53300SOL     OW77891  11.345   7.958   8.214 -0.1219 -0.0629 -0.0357
53300SOL    HW177892  11.371   7.896   8.146  0.8490 -0.5367  0.7352
53300SOL    HW277893  11.272   7.915   8.259 -0.5675  0.1175 -0.5865
53301SOL     OW77894  13.985   8.849   8.269  0.1864 -0.1898  0.2212
53301SOL    HW177895  14.060   8.901   8.239 -0.1190 -0.1035 -0.4087
53301SOL    HW277896  13.912   8.880   8.216 -0.5576  0.5230  1.5911
53302SOL     OW77897   4.758   4.661  13.153 -0.2144 -0.2719 -0.4859
53302SOL    HW177898   4.695   4.726  13.185 -0.7417 -1.1119  0.2150
53302SOL    HW277899   4.759   4.673  13.058 -1.0629  0.0891 -0.4567
53303SOL     OW77900   4.479   5.254   5.058 -0.7587 -0.2885  0.0610
53303SOL    HW177901   4.557   5.250   5.112  0.3391 -0.1424 -1.4577
53303SOL    HW277902   4.475   5.169   5.015 -1.0784 -0.0748 -0.3419
53304SOL     OW77903   6.826   2.094   4.252 -0.2605 -0.0092  0.3830
53304SOL    HW177904   6.780   2.135   4.325 -1.1977 -0.2047 -0.0828
53304SOL    HW277905   6.867   2.167   4.205 -1.3105  0.3357 -0.0242
53305SOL     OW77906   0.636   1.234   6.140 -0.0471  0.2303 -0.2103
53305SOL    HW177907   0.648   1.210   6.231 -1.0088 -1.4781 -0.4951
53305SOL    HW277908   0.599   1.323   6.143  1.0653  0.6678  0.9894
53306SOL     OW77909   1.740   4.480  11.015  0.1175 -0.3384  0.4090
53306SOL    HW177910   1.697   4.562  10.992  1.2005  0.6607  1.7849
53306SOL    HW277911   1.821   4.479  10.964 -0.2325 -0.9192 -0.1515
53307SOL     OW77912   2.027  13.366   4.133 -0.1878  0.4341 -0.1008
53307SOL    HW177913   2.021  13.443   4.077  0.2700  0.8418  0.3959
53307SOL    HW277914   1.936  13.350   4.161 -0.0145  2.4142  1.9074
53308SOL     OW77915   6.788   8.940   2.311  0.3272 -0.5080  0.0056
53308SOL    HW177916   6.848   9.010   2.339 -1.0881  0.3994  0.8960
53308SOL    HW277917   6.742   8.978   2.236 -1.2471  0.0137  1.1723
53309SOL     OW77918   1.879  11.876   3.546 -0.1764 -0.0365 -0.2846
53309SOL    HW177919   1.858  11.960   3.504 -0.7069 -0.5467 -1.0654
53309SOL    HW277920   1.815  11.815   3.510  0.0733 -0.7399  0.4402
53310SOL     OW77921   3.336  13.641   4.116 -0.1440  0.7586 -0.1359
53310SOL    HW177922   3.391  13.715   4.142 -2.2998  1.8509  1.5954
53310SOL    HW277923   3.281  13.675   4.046  0.4331  0.0399 -0.9724
53311SOL     OW77924   9.860   1.742   0.503 -0.3906  0.7782  0.2134
53311SOL    HW177925   9.807   1.670   0.538  1.0325  0.1352  1.1256
53311SOL    HW277926   9.825   1.820   0.546 -2.9318  0.9514 -1.8734
53312SOL     OW77927   9.680  11.395   7.604 -0.0195 -0.1774  0.0077
53312SOL    HW177928   9.590  11.365   7.592  0.5674 -0.9270 -4.4775
53312SOL    HW277929   9.678  11.488   7.578  0.4520 -0.1522  0.0483
53313SOL     OW77930   5.298  12.798   7.583 -0.1799 -0.0883 -0.3290
53313SOL    HW177931   5.254  12.714   7.570  1.0008 -0.9802  1.1219
53313SOL    HW277932   5.386  12.775   7.612  0.1338  1.6604  0.2331
53314SOL     OW77933   3.118   3.338   9.465  0.2909 -0.3214  0.2317
53314SOL    HW177934   3.082   3.426   9.457  0.6327 -0.1438  0.6058
53314SOL    HW277935   3.044   3.285   9.494 -0.1400 -0.3402 -0.8183
53315SOL     OW77936   7.773  11.959   8.530 -0.4687  0.4358 -0.1688
53315SOL    HW177937   7.838  11.996   8.590  1.8997 -2.1559 -0.9258
53315SOL    HW277938   7.730  11.890   8.582  1.0528 -1.2975 -1.1190
53316SOL     OW77939   4.595  13.566   4.698  0.2784  0.2259 -0.7713
53316SOL    HW177940   4.683  13.575   4.661  0.0793  1.9936 -0.9021
53316SOL    HW277941   4.551  13.502   4.642  0.9744  0.5476 -1.7016
53317SOL     OW77942   8.926  13.700  14.034  0.3057  0.0891 -0.2391
53317SOL    HW177943   8.913  13.609  14.007  3.5664 -0.4731 -0.3540
53317SOL    HW277944   8.930  13.696  14.130  0.6732  0.0843 -0.2562
53318SOL     OW77945   1.162  12.638   4.264 -0.5143  0.4532 -0.1231
53318SOL    HW177946   1.080  12.623   4.217  0.3856  1.0394 -1.9696
53318SOL    HW277947   1.140  12.702   4.331 -1.7287 -0.0178 -0.0408
53319SOL     OW77948   4.643  14.133   4.829 -0.0741 -0.4687 -0.4015
53319SOL    HW177949   4.664  14.040   4.835  4.1309  0.3605  1.3521
53319SOL    HW277950   4.635  14.162   4.920  1.3228  1.3089 -0.7918
53320SOL     OW77951   8.535   5.260   4.298 -0.0496  0.7035 -0.0930
53320SOL    HW177952   8.452   5.300   4.324 -2.0854 -1.5194 -2.6484
53320SOL    HW277953   8.583   5.331   4.256 -0.0978  2.2972  2.3236
53321SOL     OW77954   3.141  13.244   5.424  0.0661 -0.6538  0.2477
53321SOL    HW177955   3.192  13.164   5.413  1.1230  0.1485 -1.0155
53321SOL    HW277956   3.113  13.266   5.335 -0.7923  0.0060  0.6739
53322SOL     OW77957   2.552  13.067  12.984 -0.3234  0.1086 -0.2892
53322SOL    HW177958   2.643  13.095  12.993  0.1604 -0.5421 -2.3789
53322SOL    HW277959   2.557  12.985  12.934 -2.0420 -0.1513 -0.1120
53323SOL     OW77960  14.111   4.425   8.161  0.2255 -0.3547  0.4443
53323SOL    HW177961  14.170   4.493   8.195  0.4664 -0.3692  0.0645
53323SOL    HW277962  14.046   4.473   8.109 -0.8864 -0.1998  1.9008
53324SOL     OW77963   5.215   8.325   9.768  0.0116 -0.4865  0.2427
53324SOL    HW177964   5.225   8.379   9.689 -0.8539  0.8271  0.9927
53324SOL    HW277965   5.284   8.356   9.827 -0.6649  0.0432  0.7827
53325SOL     OW77966  13.300  13.440   9.391  0.3017  0.6030  0.2429
53325SOL    HW177967  13.246  13.380   9.340 -0.9466 -0.7642  2.9233
53325SOL    HW277968  13.384  13.394   9.401  0.3020  0.5567  0.0301
53326SOL     OW77969   4.510   8.385   3.456 -0.0552  0.0158 -0.7795
53326SOL    HW177970   4.530   8.458   3.515  2.1297  0.2824 -1.7479
53326SOL    HW277971   4.528   8.307   3.508  1.2669  0.2427 -0.8604
53327SOL     OW77972   6.696   1.055   5.009 -0.2502 -0.2275 -0.2230
53327SOL    HW177973   6.788   1.046   5.034 -0.0203 -2.0939 -1.5373
53327SOL    HW277974   6.647   1.020   5.084  0.0287  1.3142  0.7304
53328SOL     OW77975  11.722   0.774   5.997  0.5566  0.4169  0.3601
53328SOL    HW177976  11.796   0.724   6.030 -0.9053 -1.4971  0.9093
53328SOL    HW277977  11.651   0.757   6.059 -0.7469  1.0780 -0.8785
53329SOL     OW77978   3.926   4.478   2.378  0.4378  0.4872 -0.2468
53329SOL    HW177979   3.873   4.551   2.410  0.1768  0.4902 -0.6759
53329SOL    HW277980   3.973   4.446   2.455  1.0441  1.5134 -0.1772
53330SOL     OW77981   8.233   4.465   4.245 -0.4973  0.2496 -0.5172
53330SOL    HW177982   8.263   4.485   4.157 -0.8683 -0.9535 -0.9277
53330SOL    HW277983   8.183   4.384   4.236 -0.1141 -0.1702  0.8788
53331SOL     OW77984   1.447   1.468  13.490  0.0036 -0.2435 -0.2910
53331SOL    HW177985   1.452   1.398  13.555 -0.7536 -0.2312 -0.2073
53331SOL    HW277986   1.408   1.427  13.413  0.2721 -0.0956 -0.5088
53332SOL     OW77987   3.967   7.168   7.459 -0.0404  0.3847  0.0422
53332SOL    HW177988   3.878   7.161   7.494 -0.9091 -1.3656 -2.2201
53332SOL    HW277989   4.012   7.090   7.494  1.1416  1.9840  2.3233
53333SOL     OW77990  13.144  12.163   4.355 -0.3065 -0.6743 -0.8948
53333SOL    HW177991  13.229  12.203   4.334  0.0001 -0.8575 -0.0489
53333SOL    HW277992  13.157  12.070   4.338 -0.2180 -0.7519 -0.4246
53334SOL     OW77993   8.831   8.405   5.673  0.0887  0.6601 -0.4493
53334SOL    HW177994   8.795   8.481   5.627 -0.8930  0.0637 -0.7097
53334SOL    HW277995   8.836   8.337   5.606  0.0944  0.2291 -0.0205
53335SOL     OW77996   0.999   1.375  10.323 -0.0586 -0.2659 -0.7118
53335SOL    HW177997   1.068   1.390  10.258 -0.8147 -0.0467 -1.4826
53335SOL    HW277998   0.974   1.462  10.352  0.0079 -0.3463 -0.4117
53336SOL     OW77999   3.736   2.215   3.605 -0.2480 -0.1363  0.0987
53336SOL    HW178000   3.728   2.120   3.599 -2.7083  0.0874 -2.3591
53336SOL    HW278001   3.747   2.244   3.514 -0.8854  1.9996  0.6337
53337SOL     OW78002   6.409  11.190   3.111 -0.5799 -0.0830  0.1400
53337SOL    HW178003   6.495  11.153   3.087 -0.3720  0.3853  0.1574
53337SOL    HW278004   6.361  11.116   3.147  0.0744 -0.2028  0.8005
53338SOL     OW78005   9.970  11.818   2.309  0.0119 -0.1134  0.3548
53338SOL    HW178006  10.045  11.820   2.249 -0.6683 -0.9653 -0.5451
53338SOL    HW278007   9.993  11.752   2.374  0.1961 -0.1138  0.2895
53339SOL     OW78008  11.977   1.443   9.259  0.1980 -0.0274 -0.8078
53339SOL    HW178009  12.004   1.411   9.345 -0.1367 -0.2751 -0.7951
53339SOL    HW278010  12.053   1.429   9.202  0.6797  0.7933 -0.3921
53340SOL     OW78011   8.299   3.492   3.794 -0.7040  0.5427 -0.4404
53340SOL    HW178012   8.225   3.512   3.852  2.0815  0.4599  3.5658
53340SOL    HW278013   8.341   3.577   3.778  0.9269  0.1551  1.4018
53341SOL     OW78014   0.594   1.537   9.287 -0.0186 -0.4406 -0.5556
53341SOL    HW178015   0.643   1.458   9.265  1.6012 -0.0107  1.2605
53341SOL    HW278016   0.624   1.560   9.375 -2.1245  0.9392 -0.1389
53342SOL     OW78017   1.563   0.787   9.647  0.6674  0.0886 -0.3118
53342SOL    HW178018   1.537   0.799   9.556  0.7596  0.4888 -0.2885
53342SOL    HW278019   1.500   0.839   9.697  0.4024 -0.4105 -0.1189
53343SOL     OW78020  13.603   1.677   3.771 -0.1567 -0.4185 -0.0231
53343SOL    HW178021  13.634   1.647   3.857 -0.1743  0.1987  0.2080
53343SOL    HW278022  13.553   1.603   3.736  0.1759 -0.8164  0.3304
53344SOL     OW78023  11.228  13.244  10.303 -0.3144 -0.1496 -0.7293
53344SOL    HW178024  11.169  13.195  10.359  1.6880 -1.9740 -0.0540
53344SOL    HW278025  11.265  13.312  10.359  0.5456 -1.0073 -0.2376
53345SOL     OW78026  10.188   7.741   0.530  0.0443 -0.2010  0.2273
53345SOL    HW178027  10.266   7.723   0.582 -1.5417 -2.2159  2.1421
53345SOL    HW278028  10.171   7.835   0.544  1.3396 -0.0421  0.8937
53346SOL     OW78029   6.270   9.656  14.004 -0.4954  0.0460  0.0062
53346SOL    HW178030   6.204   9.605  13.958  0.3236 -1.0669  0.0184
53346SOL    HW278031   6.234   9.744  14.008 -1.5206 -0.3104 -0.8806
53347SOL     OW78032  14.102   8.980  11.150 -0.3994 -0.4121  0.3482
53347SOL    HW178033  14.185   8.962  11.106 -0.4195  0.8257 -0.2339
53347SOL    HW278034  14.128   9.006  11.239 -0.1930 -0.4202  0.2921
53348SOL     OW78035   6.328  10.213   9.851 -0.2462 -0.3415  0.2430
53348SOL    HW178036   6.338  10.129   9.806 -0.0468  0.2974 -0.9728
53348SOL    HW278037   6.243  10.245   9.823  0.3991  0.6268 -0.7082
53349SOL     OW78038   3.338  12.227   2.345 -0.2656  0.2772 -0.3261
53349SOL    HW178039   3.308  12.190   2.262 -1.8382  0.8099 -0.0104
53349SOL    HW278040   3.292  12.310   2.352  1.5027  1.2662  0.0698
53350SOL     OW78041   7.735   7.302   5.734 -0.7121  0.0537 -0.0491
53350SOL    HW178042   7.828   7.311   5.710 -0.7255  0.4615  0.0365
53350SOL    HW278043   7.735   7.283   5.827 -0.6566 -1.6200 -0.3639
53351SOL     OW78044  10.842   3.035   5.531  0.0349  0.0068 -0.3378
53351SOL    HW178045  10.815   3.072   5.447 -0.7103 -1.9525 -1.0235
53351SOL    HW278046  10.896   2.959   5.508 -0.2145 -0.5847  0.9379
53352SOL     OW78047  13.692   0.303  12.482 -0.0948  0.2192  0.1784
53352SOL    HW178048  13.744   0.242  12.535 -1.1179  0.2539  1.2712
53352SOL    HW278049  13.639   0.351  12.546 -0.2428  1.3549 -0.7706
53353SOL     OW78050  10.953   6.896  13.787 -0.2976  0.7140 -0.2792
53353SOL    HW178051  10.926   6.850  13.708 -0.3934  1.2288 -0.5522
53353SOL    HW278052  10.959   6.828  13.854  0.1284  0.2222 -0.8128
53354SOL     OW78053   8.282   8.177   1.856 -0.5167 -0.3841  0.2284
53354SOL    HW178054   8.318   8.249   1.804  1.5245 -1.0635  0.6375
53354SOL    HW278055   8.290   8.206   1.947 -0.3508 -0.8356  0.3599
53355SOL     OW78056   4.105   1.452  10.323 -0.1863  0.2905  0.2789
53355SOL    HW178057   4.125   1.542  10.297  0.4234 -0.1657 -0.9491
53355SOL    HW278058   4.189   1.406  10.316 -0.4702 -0.3487  0.9919
53356SOL     OW78059   9.819   8.651   6.420  0.2512  0.3200  0.3179
53356SOL    HW178060   9.792   8.588   6.486 -1.1053  0.4959 -0.0481
53356SOL    HW278061   9.906   8.679   6.448 -0.1871  0.1966  1.8770
53357SOL     OW78062  12.402   2.662   6.936  0.1775  0.3596 -0.0514
53357SOL    HW178063  12.338   2.669   7.006  0.3216 -3.0712  0.5972
53357SOL    HW278064  12.359   2.611   6.868  1.5615 -0.5087 -0.3415
53358SOL     OW78065  13.692  10.557   7.218 -0.0149  0.5705 -0.6649
53358SOL    HW178066  13.664  10.634   7.168 -0.5283  0.1027 -1.1120
53358SOL    HW278067  13.747  10.507   7.158  0.8155  0.8846 -0.1757
53359SOL     OW78068   9.716   3.771   1.670 -0.0321  0.3211 -0.4884
53359SOL    HW178069   9.801   3.727   1.675  0.2209  0.7356  4.9956
53359SOL    HW278070   9.652   3.703   1.690 -0.5349  0.7910 -0.4685
53360SOL     OW78071   8.662   2.756   0.612  0.5544  0.3312 -0.0569
53360SOL    HW178072   8.614   2.809   0.548 -0.5572  1.0710  1.3464
53360SOL    HW278073   8.729   2.815   0.646  0.9821  0.0164 -0.3445
53361SOL     OW78074   8.628   7.201   8.482 -0.1922 -0.2253 -0.0228
53361SOL    HW178075   8.724   7.199   8.479 -0.2127 -0.1042 -0.9862
53361SOL    HW278076   8.602   7.109   8.488  0.0161 -0.2064  3.0394
53362SOL     OW78077   1.961   6.296   3.753 -0.6236 -0.2563  0.5724
53362SOL    HW178078   1.900   6.241   3.802 -1.9340 -0.4047 -1.1307
53362SOL    HW278079   1.910   6.328   3.678  1.1578  0.3037 -0.4629
53363SOL     OW78080  13.145  11.146   3.071 -0.4463  0.6433 -0.1845
53363SOL    HW178081  13.052  11.166   3.062 -0.5031 -0.0032 -1.2175
53363SOL    HW278082  13.189  11.221   3.033 -0.5975  0.1270 -1.4178
53364SOL     OW78083  13.446   1.595  11.694  0.6981  0.1359 -0.0124
53364SOL    HW178084  13.445   1.610  11.789 -1.1224  0.9523 -0.1111
53364SOL    HW278085  13.356   1.612  11.667  0.9958 -0.9348 -1.7787
53365SOL     OW78086   2.277   6.307   7.076 -0.1112  0.1679  0.0415
53365SOL    HW178087   2.330   6.265   7.008 -1.1180 -0.0794 -0.6163
53365SOL    HW278088   2.281   6.248   7.150 -0.4469 -0.4579 -0.4307
53366SOL     OW78089   1.494   2.759  12.825  0.6675 -0.6087  0.1969
53366SOL    HW178090   1.436   2.702  12.774  0.5996  0.3220 -0.8215
53366SOL    HW278091   1.579   2.750  12.784  0.7611 -0.3457  0.3284
53367SOL     OW78092   9.888   6.953   7.613 -0.3510  0.2576  0.2792
53367SOL    HW178093   9.831   7.021   7.576 -0.9554 -0.2935  0.1811
53367SOL    HW278094   9.904   6.981   7.703 -1.2294  0.1420  0.4779
53368SOL     OW78095   6.867  14.035   0.259 -0.5514  0.5953 -0.8597
53368SOL    HW178096   6.846  14.128   0.248 -0.5810  0.5222 -1.4793
53368SOL    HW278097   6.934  14.033   0.328 -1.2907  0.9811 -0.1243
53369SOL     OW78098   5.856   9.439   0.876 -0.2433  0.3244  0.2750
53369SOL    HW178099   5.911   9.516   0.889  1.0812 -0.5655  0.1723
53369SOL    HW278100   5.903   9.368   0.920 -0.1649 -0.9225 -1.6901
53370SOL     OW78101   6.772   8.091   7.720 -0.0369  0.1530  0.0375
53370SOL    HW178102   6.836   8.152   7.755  0.4512 -1.6254  2.4983
53370SOL    HW278103   6.697   8.146   7.697  1.6028  2.0473 -1.1517
53371SOL     OW78104   9.779   2.203   0.070 -0.2898 -0.1602 -0.1040
53371SOL    HW178105   9.711   2.137   0.058 -0.5402  0.0211  0.3103
53371SOL    HW278106   9.734   2.278   0.109  0.0511  0.1414 -0.2831
53372SOL     OW78107  10.731  12.174   3.419  0.2532  0.3696 -0.6957
53372SOL    HW178108  10.711  12.081   3.417 -0.1442  0.4316 -0.0429
53372SOL    HW278109  10.737  12.200   3.327  2.6164 -0.7533 -0.9091
53373SOL     OW78110   0.566   0.126   6.867  0.9422 -0.3003 -0.0932
53373SOL    HW178111   0.559   0.195   6.933  0.5763  0.7824 -1.2295
53373SOL    HW278112   0.655   0.135   6.832  0.6989 -0.0094 -0.6506
53374SOL     OW78113  12.686  10.214   8.749  0.3223 -0.0481 -0.1830
53374SOL    HW178114  12.650  10.164   8.676 -0.8507 -1.4078  1.2676
53374SOL    HW278115  12.610  10.243   8.799  1.0405  1.9548 -0.1219
53375SOL     OW78116   9.207   0.537   6.598 -0.0542 -0.1789 -0.2549
53375SOL    HW178117   9.115   0.558   6.609 -0.3275 -1.1192 -0.6480
53375SOL    HW278118   9.231   0.491   6.679 -0.2950 -1.1305 -0.7127
53376SOL     OW78119   3.940   2.955  11.823  0.1414  0.7253 -0.1326
53376SOL    HW178120   3.966   3.003  11.744  0.3059 -0.0381 -0.5545
53376SOL    HW278121   3.846   2.943  11.814  0.5581 -2.4016 -2.0268
53377SOL     OW78122   8.870   5.074   2.339  0.0399 -0.3036  0.0868
53377SOL    HW178123   8.836   5.163   2.347  0.9775  0.0740  0.0138
53377SOL    HW278124   8.961   5.086   2.312 -0.0515 -1.3023 -0.7218
53378SOL     OW78125   9.090   2.185  12.671 -0.1795 -0.2943  0.3075
53378SOL    HW178126   9.006   2.157  12.708 -1.5256  2.2110 -0.6015
53378SOL    HW278127   9.131   2.105  12.639 -1.7322 -1.7175  1.7174
53379SOL     OW78128   5.932   2.437   9.732  0.3077 -0.0832  0.1787
53379SOL    HW178129   5.872   2.511   9.738  0.0019 -0.2495 -0.6720
53379SOL    HW278130   5.928   2.396   9.818 -0.8917 -0.1454  0.1174
53380SOL     OW78131   7.981   2.391  12.486 -0.0703  0.0477 -0.1571
53380SOL    HW178132   8.014   2.461  12.430 -0.2130 -0.0844 -0.4104
53380SOL    HW278133   7.904   2.428  12.528 -1.1000 -0.4511 -1.5051
53381SOL     OW78134  10.146  10.887   5.274  0.3195  0.0714  0.0945
53381SOL    HW178135  10.147  10.981   5.261  0.4268  0.7008  3.5400
53381SOL    HW278136  10.080  10.873   5.342  1.1671 -2.1621  0.5586
53382SOL     OW78137   3.043   9.023   9.511 -0.4262 -0.3808  0.4234
53382SOL    HW178138   2.952   8.999   9.529 -0.5381  0.0175  0.3956
53382SOL    HW278139   3.089   8.939   9.503 -0.6054 -0.5811  1.3757
53383SOL     OW78140   1.396  13.539   1.460 -0.5614 -0.1754  0.1104
53383SOL    HW178141   1.315  13.578   1.493 -1.1100 -1.6300  0.5370
53383SOL    HW278142   1.382  13.445   1.465  0.8108 -0.4598 -0.6936
53384SOL     OW78143   2.911  13.497   1.319 -0.4422  0.1605 -0.5699
53384SOL    HW178144   2.911  13.545   1.402 -3.0265 -0.3695 -0.1893
53384SOL    HW278145   2.998  13.515   1.282  0.5441  0.9805  1.8843
53385SOL     OW78146   8.832  10.792   4.542  0.2074 -0.3412  0.2601
53385SOL    HW178147   8.836  10.887   4.534 -3.1580 -0.0374  0.4590
53385SOL    HW278148   8.858  10.759   4.456 -3.3984  1.1206 -1.6103
53386SOL     OW78149  11.440   5.538   3.139  0.3751 -0.6225  0.0110
53386SOL    HW178150  11.438   5.617   3.085 -0.2050 -0.2822  0.5205
53386SOL    HW278151  11.365   5.547   3.197  0.2042 -1.6433 -0.0494
53387SOL     OW78152   4.254   6.614   1.632  0.0187  0.4796  0.7679
53387SOL    HW178153   4.316   6.580   1.696  0.1545  0.4358  0.6127
53387SOL    HW278154   4.304   6.677   1.580 -0.2338  0.9441  1.0689
53388SOL     OW78155   2.884   6.627   6.968  0.3475  0.1625 -0.8792
53388SOL    HW178156   2.880   6.577   7.049  0.4191  1.9547  0.2913
53388SOL    HW278157   2.792   6.643   6.946  0.3355  0.4382 -0.6389
53389SOL     OW78158   8.393  12.685  12.778  0.6178  0.7726 -0.5225
53389SOL    HW178159   8.419  12.623  12.846 -0.6441  2.2925  1.4661
53389SOL    HW278160   8.320  12.643  12.733  0.1022  0.5886  0.4600
53390SOL     OW78161   2.635   5.510  10.520 -0.3212 -0.1997  0.3470
53390SOL    HW178162   2.602   5.495  10.608 -0.4423 -1.4191  0.1138
53390SOL    HW278163   2.729   5.495  10.526 -0.2837  0.0190  0.3254
53391SOL     OW78164   5.027   8.006   5.276  0.4979  0.0900 -0.1010
53391SOL    HW178165   5.037   8.014   5.181  1.9442  0.8572  0.0851
53391SOL    HW278166   4.965   7.934   5.288 -0.3507  0.5129 -1.6327
53392SOL     OW78167  13.412   0.990  12.366  0.5120  0.1616 -0.0817
53392SOL    HW178168  13.477   1.009  12.433 -1.5295  0.7561  1.8681
53392SOL    HW278169  13.409   1.069  12.312 -0.0960  1.0451  1.1861
53393SOL     OW78170   1.062   6.314   7.829  0.3820 -0.2301  0.0321
53393SOL    HW178171   1.148   6.285   7.860 -0.0088  0.2548  1.6908
53393SOL    HW278172   1.046   6.263   7.750  1.8252 -0.9479  0.1715
53394SOL     OW78173   4.342   9.794   0.857 -0.1270  0.2567 -0.4974
53394SOL    HW178174   4.249   9.776   0.869 -0.3281  1.5245 -0.0330
53394SOL    HW278175   4.346   9.844   0.776  0.0016  1.2632  0.1177
53395SOL     OW78176   7.616   6.149   1.467  0.2448 -0.0531 -0.7043
53395SOL    HW178177   7.665   6.204   1.528  0.6446  0.7585 -1.7224
53395SOL    HW278178   7.527   6.146   1.504  0.5587  0.1249  0.0941
53396SOL     OW78179   6.093  10.925   7.557 -0.2745 -0.2448  0.3326
53396SOL    HW178180   5.999  10.913   7.567 -0.8489  1.5950 -2.0123
53396SOL    HW278181   6.113  11.006   7.603  0.4262 -1.1788  1.7539
53397SOL     OW78182   2.704  11.381   3.053 -0.4205 -0.4340  0.7597
53397SOL    HW178183   2.786  11.379   3.101 -0.1140  1.7960  0.4368
53397SOL    HW278184   2.636  11.385   3.121 -0.1157  0.1163  1.0388
53398SOL     OW78185  12.993   8.832   2.983 -0.4440 -0.0356 -1.3176
53398SOL    HW178186  12.946   8.829   2.900  0.8463 -1.6192 -2.0282
53398SOL    HW278187  12.924   8.846   3.049 -1.8403 -1.5089 -2.3926
53399SOL     OW78188   2.778   6.710   6.253 -0.2696  0.0749  0.0049
53399SOL    HW178189   2.694   6.732   6.292 -0.6636 -0.5670 -0.4752
53399SOL    HW278190   2.840   6.771   6.294 -0.5289 -1.0111  2.1826
53400SOL     OW78191   3.811  13.926   2.049  0.9945  0.4188  0.2857
53400SOL    HW178192   3.726  13.884   2.060  0.5727  1.0597 -0.3839
53400SOL    HW278193   3.812  13.956   1.958  1.9025  0.5010  0.3065
53401SOL     OW78194   1.154  12.884   1.009 -0.0091  0.7607 -0.4337
53401SOL    HW178195   1.121  12.930   0.932 -0.9871  0.4851 -0.1922
53401SOL    HW278196   1.086  12.896   1.075  0.0411 -0.4502 -0.1476
53402SOL     OW78197   7.059   8.442   5.256 -0.5373  0.3805 -0.4505
53402SOL    HW178198   7.026   8.517   5.305  0.1123  0.4205 -0.0669
53402SOL    HW278199   6.993   8.426   5.189  0.3497  2.7280 -2.0180
53403SOL     OW78200  13.097  10.945   7.777 -0.2544  0.1622  0.3977
53403SOL    HW178201  13.170  10.890   7.807  1.1444  1.1799 -0.9967
53403SOL    HW278202  13.137  11.028   7.754 -1.5092  0.1107 -2.3291
53404SOL     OW78203   4.433  13.446   8.551 -0.1739 -0.1559  0.1002
53404SOL    HW178204   4.372  13.472   8.619 -0.7007 -0.4486 -0.2572
53404SOL    HW278205   4.401  13.490   8.472  0.3482  0.0674  0.0099
53405SOL     OW78206   3.396  12.580   5.901 -0.2688  0.7390  0.2755
53405SOL    HW178207   3.345  12.660   5.889 -0.4659  0.5171 -0.4754
53405SOL    HW278208   3.419  12.553   5.812 -0.0218  0.0809  0.5316
53406SOL     OW78209  10.593   4.507   9.219 -0.0154 -0.0451  0.2253
53406SOL    HW178210  10.553   4.480   9.302 -1.6039 -0.6422 -0.6883
53406SOL    HW278211  10.532   4.571   9.183  1.5076  1.4870  0.2806
53407SOL     OW78212   5.637   7.261  12.137 -0.2320  0.4123  0.1264
53407SOL    HW178213   5.730   7.280  12.148 -0.0517 -0.8242  0.8759
53407SOL    HW278214   5.616   7.200  12.208 -1.7031  0.9594  0.1969
53408SOL     OW78215   3.614   1.309   0.181 -0.5424  0.1503  1.0836
53408SOL    HW178216   3.601   1.223   0.141  1.1427  0.4271 -0.1847
53408SOL    HW278217   3.695   1.299   0.232  1.1015  1.5845 -1.0954
53409SOL     OW78218  13.768   5.619  12.028  0.5463  0.8910  0.0438
53409SOL    HW178219  13.719   5.650  11.952 -1.1101 -1.8615 -0.1365
53409SOL    HW278220  13.727   5.662  12.103 -1.8460 -0.7811 -0.1742
53410SOL     OW78221  13.840   9.659   8.681  0.2338  0.0444 -0.1864
53410SOL    HW178222  13.922   9.609   8.688  0.2741 -0.0330 -1.1006
53410SOL    HW278223  13.786   9.628   8.754  1.3862  0.8114  1.0483
53411SOL     OW78224  11.177   0.192   1.225  0.7114  0.1396  0.4340
53411SOL    HW178225  11.240   0.141   1.175  2.8009  1.6847  1.3349
53411SOL    HW278226  11.135   0.249   1.161  1.4679  0.2632  0.0429
53412SOL     OW78227   7.076  11.589  13.996 -0.1863  0.4406  0.0143
53412SOL    HW178228   7.146  11.524  14.007 -1.8260 -1.4694 -0.2310
53412SOL    HW278229   7.038  11.570  13.910  0.0840  2.6038 -0.6457
53413SOL     OW78230   1.064   0.143  11.058  0.3130  0.5040  0.2973
53413SOL    HW178231   0.981   0.127  11.014 -1.1319 -0.2804  3.1123
53413SOL    HW278232   1.079   0.237  11.045  1.0406  0.0464 -3.3996
53414SOL     OW78233   8.529  11.580   2.212  0.3997  0.2714  0.0035
53414SOL    HW178234   8.552  11.507   2.268  1.7771  0.7099  0.0459
53414SOL    HW278235   8.475  11.542   2.143 -0.8872 -0.3570  1.3101
53415SOL     OW78236   2.427  12.694   3.909  0.1272 -0.8538  0.3816
53415SOL    HW178237   2.484  12.708   3.984  0.0848  0.7879  0.1337
53415SOL    HW278238   2.482  12.710   3.833 -0.4635  0.0575  0.1278
53416SOL     OW78239   4.181   5.857   2.087 -1.0983  0.5154 -0.2555
53416SOL    HW178240   4.221   5.847   2.000  0.0892  1.0176  0.2151
53416SOL    HW278241   4.091   5.883   2.069 -1.2417 -0.6281 -1.3516
53417SOL     OW78242   7.262   7.827   7.440  0.5254 -0.2933  0.9812
53417SOL    HW178243   7.335   7.885   7.462  1.1519 -0.7579  0.2142
53417SOL    HW278244   7.184   7.876   7.464  1.0045  1.1386 -0.1875
53418SOL     OW78245   5.813   9.910  13.180  0.0398 -0.4400 -0.0488
53418SOL    HW178246   5.799  10.003  13.161 -1.1772 -0.2778  1.4208
53418SOL    HW278247   5.731   9.868  13.156  0.9261 -1.3393 -1.6441
53419SOL     OW78248  13.132   7.648   5.440  0.1284  0.0684  0.5492
53419SOL    HW178249  13.121   7.605   5.355  0.4624 -1.2384  1.1480
53419SOL    HW278250  13.206   7.707   5.428  2.2590 -2.4154  0.7493
53420SOL     OW78251   6.950   2.043  14.052 -0.2207 -0.4926 -0.1522
53420SOL    HW178252   6.866   2.020  14.092  0.0110 -1.9557 -0.4366
53420SOL    HW278253   6.938   2.027  13.959  0.1799 -0.0993 -0.2740
53421SOL     OW78254   2.561   9.662  12.613  0.2028 -0.0626 -0.7473
53421SOL    HW178255   2.524   9.683  12.527 -2.5070 -0.6521  0.1886
53421SOL    HW278256   2.548   9.568  12.623  3.1484 -0.5895 -0.7885
53422SOL     OW78257   5.628   1.817   0.338  0.2179  0.1844  0.0432
53422SOL    HW178258   5.579   1.879   0.284 -0.0226  0.1702  0.2428
53422SOL    HW278259   5.563   1.750   0.362  0.7424 -0.8189 -1.1758
53423SOL     OW78260  14.061  12.541   3.802 -0.3127 -0.1905 -0.2404
53423SOL    HW178261  14.122  12.614   3.796  1.6396 -1.6789  0.3564
53423SOL    HW278262  14.111  12.472   3.845 -1.1318 -2.8293 -3.1740
53424SOL     OW78263   5.545   9.760   6.819 -0.0952  0.1037 -0.6500
53424SOL    HW178264   5.554   9.677   6.865 -0.1608 -0.9442 -2.4373
53424SOL    HW278265   5.455   9.760   6.786 -0.4101  1.3420  0.1123
53425SOL     OW78266  13.583   2.214   3.416  0.4486  0.1811  0.2298
53425SOL    HW178267  13.515   2.218   3.484 -1.4966 -1.3755 -1.5087
53425SOL    HW278268  13.664   2.202   3.465 -0.8522 -0.6684  2.3327
53426SOL     OW78269   1.444  13.402   7.188  0.1806 -0.2795  0.2743
53426SOL    HW178270   1.482  13.368   7.269 -0.8128 -0.4665  0.6678
53426SOL    HW278271   1.425  13.324   7.136 -1.3982 -0.3144  0.8634
53427SOL     OW78272   9.792   9.409   8.819 -0.2745  0.4825  0.2057
53427SOL    HW178273   9.825   9.367   8.898  0.9424 -0.4267 -0.7441
53427SOL    HW278274   9.863   9.467   8.791 -0.3180  0.1329 -0.6797
53428SOL     OW78275   2.264   6.022   8.168  0.6073 -0.1688  0.3500
53428SOL    HW178276   2.187   6.048   8.219 -1.9520  1.5145 -3.7941
53428SOL    HW278277   2.249   5.930   8.148 -0.1474  0.0381 -0.0794
53429SOL     OW78278  10.563   4.379  11.600  0.0934 -0.0090 -0.4716
53429SOL    HW178279  10.520   4.316  11.658  1.9092 -2.6847 -1.8102
53429SOL    HW278280  10.543   4.348  11.512  0.3656  1.8380 -1.2234
53430SOL     OW78281   7.940   3.015   2.796 -0.1589 -0.3257 -0.0015
53430SOL    HW178282   8.011   2.964   2.835  0.1679  0.1558  0.0521
53430SOL    HW278283   7.901   2.957   2.731  0.9074 -0.2698 -0.7231
53431SOL     OW78284   8.649   9.566   7.659  0.3344 -0.2448 -0.6007
53431SOL    HW178285   8.685   9.514   7.586  2.8191  1.3254 -0.6268
53431SOL    HW278286   8.706   9.546   7.733 -0.3396  0.4092  0.1106
53432SOL     OW78287   1.892   2.481  12.230 -0.1056  0.2274 -0.3726
53432SOL    HW178288   1.831   2.412  12.201  1.0542 -1.0779  0.1738
53432SOL    HW278289   1.879   2.486  12.324  1.1263 -0.5956 -0.1413
53433SOL     OW78290   5.578   9.761   8.122  0.7248  0.1108 -0.2122
53433SOL    HW178291   5.630   9.801   8.052 -0.0161  1.5607  0.0152
53433SOL    HW278292   5.533   9.835   8.163 -0.9522 -1.0177  0.0565
53434SOL     OW78293   1.173   7.650   8.432 -0.1441 -0.2735  0.1698
53434SOL    HW178294   1.261   7.654   8.395 -1.1282 -0.7177 -2.4795
53434SOL    HW278295   1.115   7.665   8.357 -2.3954 -3.0517  1.1610
53435SOL     OW78296   5.636  12.651   1.078  0.4969 -0.0456 -0.4268
53435SOL    HW178297   5.720  12.614   1.048 -0.2247 -1.0701 -1.2651
53435SOL    HW278298   5.614  12.598   1.155  0.6356  0.2495 -0.1841
53436SOL     OW78299   3.762  11.635   9.324  0.2223  0.1344  0.1171
53436SOL    HW178300   3.830  11.702   9.338  0.0397  0.0475  1.6187
53436SOL    HW278301   3.690  11.682   9.282 -0.2752  1.1610  1.9929
53437SOL     OW78302   1.521   9.938  13.615  0.2641  0.1331 -0.3219
53437SOL    HW178303   1.512  10.034  13.615 -1.4839  0.0196  0.9550
53437SOL    HW278304   1.604   9.922  13.571  2.0239  2.4201  1.8417
53438SOL     OW78305   8.478  13.431   9.723  0.1121  0.2168 -0.4335
53438SOL    HW178306   8.520  13.498   9.669 -0.3141  0.8149 -0.0368
53438SOL    HW278307   8.547  13.367   9.740  0.3627  0.2386 -1.3280
53439SOL     OW78308   8.265   6.140   9.283  0.3506 -0.1394 -0.3475
53439SOL    HW178309   8.291   6.139   9.191  1.9189 -2.1178  0.0475
53439SOL    HW278310   8.196   6.074   9.289  1.1626 -0.9632  0.1045
53440SOL     OW78311   4.937   4.230   4.403  0.5139  0.2566 -0.3934
53440SOL    HW178312   4.862   4.209   4.458 -0.2011 -0.9968 -1.7640
53440SOL    HW278313   4.991   4.150   4.404  1.7693  1.0782  0.4428
53441SOL     OW78314  10.899   4.676   4.443 -0.4917 -0.2911  0.3736
53441SOL    HW178315  10.986   4.653   4.409  0.1690  1.9800  0.3781
53441SOL    HW278316  10.844   4.600   4.421  1.6099 -2.1008  1.0100
53442SOL     OW78317   8.446  13.448   4.006 -0.2718 -0.2092 -0.1556
53442SOL    HW178318   8.442  13.354   4.019  0.1970 -0.2019  0.0650
53442SOL    HW278319   8.467  13.483   4.093 -1.3401  0.1724 -0.0334
53443SOL     OW78320   9.489  11.525   2.310  0.6005 -0.6537  0.2282
53443SOL    HW178321   9.549  11.524   2.385  0.2719 -1.7415  0.4990
53443SOL    HW278322   9.438  11.605   2.321  0.0410 -1.1682  1.5983
53444SOL     OW78323   2.340   3.430  13.829  0.0595  0.5552  0.1418
53444SOL    HW178324   2.393   3.444  13.750 -0.1145  2.6002  0.3405
53444SOL    HW278325   2.338   3.516  13.871 -2.0462  0.1183  1.0085
53445SOL     OW78326   1.221  11.687   1.679 -0.4205  0.1646 -0.7721
53445SOL    HW178327   1.132  11.681   1.645  0.1292  0.3448 -2.2827
53445SOL    HW278328   1.237  11.781   1.688 -0.6559  0.1153  0.2837
53446SOL     OW78329  11.713   6.200  10.604  0.2554  0.1990 -0.1563
53446SOL    HW178330  11.657   6.267  10.564  0.8741  0.4312 -0.6348
53446SOL    HW278331  11.743   6.146  10.531 -1.6360 -1.7152  0.3720
53447SOL     OW78332   1.048  10.442   1.820  0.5472 -0.6842  0.0821
53447SOL    HW178333   1.107  10.450   1.895  0.9170 -2.7137  0.0547
53447SOL    HW278334   1.107  10.433   1.745  0.1729  0.1555 -0.3295
53448SOL     OW78335   7.082  12.835  12.999 -0.4957 -0.5376  0.3224
53448SOL    HW178336   7.101  12.757  13.051 -0.4416 -2.5105 -2.4347
53448SOL    HW278337   7.023  12.804  12.929 -0.5703  1.9149 -0.8220
53449SOL     OW78338   2.536   1.965  13.575 -0.0927  0.3158  0.4522
53449SOL    HW178339   2.548   1.908  13.651  1.5479 -1.0093 -0.7298
53449SOL    HW278340   2.585   2.045  13.597 -0.5064  0.3742  1.1922
53450SOL     OW78341  13.695   8.054   5.558  0.2529 -0.2342  0.2239
53450SOL    HW178342  13.636   8.007   5.500  0.1845  0.9793 -0.7308
53450SOL    HW278343  13.742   7.985   5.606 -1.5242 -1.2185  0.6182
53451SOL     OW78344  12.076   0.196   5.439 -0.4273  0.0290 -0.2090
53451SOL    HW178345  12.143   0.214   5.373  0.5370 -0.5581  0.5910
53451SOL    HW278346  12.122   0.205   5.522 -1.3442 -0.3986  0.3519
53452SOL     OW78347   3.142   7.096   9.964  0.0704  0.2208 -0.6339
53452SOL    HW178348   3.162   7.190   9.962  1.3475 -0.0441 -1.2175
53452SOL    HW278349   3.092   7.081   9.885 -0.5043  0.4821 -0.3250
53453SOL     OW78350   9.173  10.081   7.184 -0.6841 -0.3035  0.1057
53453SOL    HW178351   9.122  10.007   7.149 -1.5095 -0.4545  1.5284
53453SOL    HW278352   9.137  10.095   7.272  0.8123  0.5104  0.6248
53454SOL     OW78353   7.519  10.134  13.482 -0.0500  0.3680  0.4190
53454SOL    HW178354   7.535  10.128  13.388  2.3645 -0.7750  0.8310
53454SOL    HW278355   7.605  10.125  13.522 -1.2756 -2.1318  2.8563
53455SOL     OW78356   8.273   6.095  14.153  0.1350 -0.0192  0.1878
53455SOL    HW178357   8.291   6.020  14.097 -0.8051 -0.1884  0.0980
53455SOL    HW278358   8.275   6.060  14.242 -0.6353 -0.2299  0.1285
53456SOL     OW78359   3.695   6.434   0.431 -0.3713  0.5663  0.2847
53456SOL    HW178360   3.779   6.479   0.445 -0.5497  0.7823  0.6806
53456SOL    HW278361   3.636   6.474   0.494 -0.9725  0.9512 -0.5022
53457SOL     OW78362  11.027   4.465  10.339 -0.3591  0.2514 -0.0502
53457SOL    HW178363  10.946   4.429  10.375 -1.4329  2.5347  0.0455
53457SOL    HW278364  11.066   4.512  10.413  1.7566 -1.8193  0.2388
53458SOL     OW78365   6.743  12.319   2.516 -0.4659  0.3691  0.7324
53458SOL    HW178366   6.837  12.307   2.531 -0.5196 -0.0787  0.7475
53458SOL    HW278367   6.708  12.344   2.602  0.0156  3.1841  0.1935
53459SOL     OW78368   4.064   1.152  13.977  0.0948  0.3183 -0.0958
53459SOL    HW178369   4.061   1.231  14.031  2.2094 -0.3648  1.1757
53459SOL    HW278370   3.984   1.154  13.926 -0.5952  2.5315  0.9564
53460SOL     OW78371   8.210  11.714  11.269  0.5035 -0.2599 -0.8136
53460SOL    HW178372   8.119  11.719  11.298  0.6943  1.1518 -0.3723
53460SOL    HW278373   8.231  11.803  11.240  1.9944 -0.3457 -0.1041
53461SOL     OW78374  10.065   8.572   9.446  0.1467  0.0372 -0.7859
53461SOL    HW178375  10.097   8.483   9.464  0.2858 -0.0447 -1.4099
53461SOL    HW278376   9.973   8.560   9.421 -0.3425  0.2531  0.8157
53462SOL     OW78377   7.994   2.663  10.399 -0.1537 -0.3175  0.4433
53462SOL    HW178378   7.918   2.636  10.450  1.2345  0.1206  2.9047
53462SOL    HW278379   8.008   2.755  10.423 -0.8236  0.6914 -2.6194
53463SOL     OW78380  11.666   9.154   9.183  0.4579 -0.8408 -0.3821
53463SOL    HW178381  11.658   9.148   9.278 -4.6694  1.2954 -0.3226
53463SOL    HW278382  11.635   9.070   9.150  0.0293 -0.7823 -0.1327
53464SOL     OW78383   3.649   0.594   3.963 -0.0359 -0.2575  0.6339
53464SOL    HW178384   3.558   0.594   3.995 -0.8934  0.4725 -1.5805
53464SOL    HW278385   3.641   0.567   3.871  1.6875  2.1179 -0.3012
53465SOL     OW78386  12.850  12.290  11.356 -0.5816 -0.2373 -0.3227
53465SOL    HW178387  12.868  12.245  11.438 -0.1987 -0.4087 -0.4970
53465SOL    HW278388  12.908  12.366  11.357 -1.8378  0.7566  0.3660
53466SOL     OW78389   4.431   2.699   9.684 -0.1985  0.3677 -0.4064
53466SOL    HW178390   4.402   2.729   9.770 -3.0199  1.5370 -1.6372
53466SOL    HW278391   4.450   2.606   9.696  1.6655  0.9635  1.9085
53467SOL     OW78392  12.608   6.481   1.637 -0.2134  0.2488 -0.4519
53467SOL    HW178393  12.663   6.416   1.681  0.4845  0.5859 -0.8150
53467SOL    HW278394  12.522   6.439   1.631  0.8928 -1.9294 -3.4236
53468SOL     OW78395  12.215   8.145   6.406 -0.2545  0.0788 -0.0030
53468SOL    HW178396  12.204   8.070   6.465 -1.7931  0.7623  0.6256
53468SOL    HW278397  12.231   8.219   6.464  0.7546  0.3520 -0.6007
53469SOL     OW78398   3.759   9.714   9.726 -0.3040  0.3435  0.0431
53469SOL    HW178399   3.809   9.657   9.785  1.4930  1.3800 -0.4158
53469SOL    HW278400   3.708   9.653   9.672  0.2988 -0.7603  0.6786
53470SOL     OW78401  10.588   0.021  12.629  0.2857 -0.2243  0.0055
53470SOL    HW178402  10.505  -0.013  12.596 -0.1727  0.9105 -0.0546
53470SOL    HW278403  10.567   0.055  12.716  0.4063  1.1488 -0.4826
53471SOL     OW78404   2.766   9.050   9.617 -0.2525 -0.3197  0.0615
53471SOL    HW178405   2.700   9.105   9.661  0.0916 -0.1538  0.3738
53471SOL    HW278406   2.821   9.017   9.688  2.2539  2.4413 -0.3927
53472SOL     OW78407   9.144  13.144   3.683 -0.4978  0.0636 -0.9388
53472SOL    HW178408   9.217  13.185   3.638  0.2546 -0.3463 -0.1241
53472SOL    HW278409   9.108  13.212   3.740  0.8966 -0.3923  0.5916
53473SOL     OW78410   0.434   1.668  12.323  0.9875 -0.1335  0.7373
53473SOL    HW178411   0.470   1.632  12.404  1.2068  0.7587  1.0450
53473SOL    HW278412   0.399   1.753  12.347 -1.1423 -0.8412  0.4019
53474SOL     OW78413  13.338   1.688   5.405 -0.2403  0.1179  0.4811
53474SOL    HW178414  13.341   1.671   5.311 -0.4289 -1.4932  0.7333
53474SOL    HW278415  13.367   1.779   5.414 -0.8918  0.5220 -1.1777
53475SOL     OW78416   7.244  10.364   6.241 -0.4703 -0.1244 -0.1932
53475SOL    HW178417   7.222  10.454   6.265  1.0782 -0.3105  2.3508
53475SOL    HW278418   7.169  10.313   6.270 -1.0163  0.2402 -0.9245
53476SOL     OW78419   0.755   8.878   2.723 -0.1624 -0.1526 -0.9812
53476SOL    HW178420   0.829   8.889   2.783  0.5760 -1.5626 -1.6002
53476SOL    HW278421   0.719   8.792   2.744 -1.9389  0.6754 -0.3937
53477SOL     OW78422   2.374   4.598   4.146 -0.1563 -0.0875 -0.2442
53477SOL    HW178423   2.402   4.682   4.110  2.4968 -1.3074 -1.3320
53477SOL    HW278424   2.454   4.560   4.183 -1.5861 -1.5277  1.5554
53478SOL     OW78425   0.015   8.533   0.434 -0.0809 -0.2803 -0.1547
53478SOL    HW178426  -0.066   8.541   0.384  0.2748 -0.4357 -0.7547
53478SOL    HW278427  -0.008   8.472   0.505 -1.0059  1.0893  0.7893
53479SOL     OW78428  13.837   9.849   1.141  0.4257 -0.0748 -0.3921
53479SOL    HW178429  13.923   9.867   1.102  0.2856  0.3706 -0.5082
53479SOL    HW278430  13.820   9.757   1.121  0.6550 -0.0316 -0.8059
53480SOL     OW78431  12.479   3.717   2.530  0.8870 -0.4647 -0.0753
53480SOL    HW178432  12.427   3.658   2.585  1.5133 -0.1227  0.9170
53480SOL    HW278433  12.437   3.803   2.540  0.6816 -0.5042 -0.5720
53481SOL     OW78434   3.872   3.214   3.730  0.0611  0.3750 -0.0696
53481SOL    HW178435   3.827   3.290   3.693 -0.4636 -0.3317 -0.9449
53481SOL    HW278436   3.806   3.171   3.785  0.3198  0.4851  0.3299
53482SOL     OW78437  10.291   1.419   2.472  0.1250  0.3917 -0.1839
53482SOL    HW178438  10.379   1.457   2.464  0.3067  0.0527  0.1193
53482SOL    HW278439  10.247   1.441   2.390  1.0783 -0.9180 -1.0990
53483SOL     OW78440  12.888   4.638   0.091  0.0869  0.2760  0.6480
53483SOL    HW178441  12.944   4.706   0.055  0.0456  0.7285  1.4147
53483SOL    HW278442  12.837   4.682   0.158 -0.4889 -0.3483  0.6287
53484SOL     OW78443   6.340   8.978  12.822  0.4620  0.8144  0.4303
53484SOL    HW178444   6.390   9.019  12.751  1.6068 -1.1899  0.0032
53484SOL    HW278445   6.250   8.976  12.789  0.5185  2.1771  0.1340
53485SOL     OW78446   4.249   6.356   6.373 -0.1491 -0.3684 -0.3230
53485SOL    HW178447   4.213   6.444   6.382  2.9740  0.8773  1.2090
53485SOL    HW278448   4.261   6.325   6.462 -0.0832 -1.9045 -0.8306
53486SOL     OW78449  10.257  11.275   8.187  0.5098  0.0009 -0.0924
53486SOL    HW178450  10.210  11.198   8.221 -0.0800  0.5799  0.4373
53486SOL    HW278451  10.196  11.315   8.126 -0.2387  1.4833  1.5599
53487SOL     OW78452   0.056  10.205   6.878 -0.1684 -0.4335 -0.1236
53487SOL    HW178453   0.010  10.135   6.924 -1.0808 -0.5219 -1.1309
53487SOL    HW278454   0.068  10.172   6.789 -0.3229  0.5417 -0.5202
53488SOL     OW78455   2.140  10.498  12.836 -0.4602  0.9570 -0.6080
53488SOL    HW178456   2.210  10.564  12.835 -0.9281  1.5291  1.1396
53488SOL    HW278457   2.087  10.518  12.759  0.8428  0.9868 -1.5366
53489SOL     OW78458   3.015   7.477   2.946  0.0513 -0.4500  0.2149
53489SOL    HW178459   2.982   7.500   3.032  0.2016 -0.0705  0.1750
53489SOL    HW278460   3.020   7.561   2.899  2.7811 -0.2053  0.8028
53490SOL     OW78461   8.833   9.627   5.947 -0.1243  0.5603  0.3049
53490SOL    HW178462   8.860   9.538   5.924 -1.2277 -0.0812  1.4136
53490SOL    HW278463   8.738   9.622   5.955 -0.3447  2.1428 -0.8242
53491SOL     OW78464   9.111   4.530   1.074  0.0846 -0.0208  0.6707
53491SOL    HW178465   9.151   4.566   1.154 -0.9465 -0.3659  1.3607
53491SOL    HW278466   9.073   4.606   1.030 -1.8912 -0.1643  2.0100
53492SOL     OW78467   0.361   7.603   5.687 -0.3585  0.3651  0.4498
53492SOL    HW178468   0.382   7.667   5.755  2.1396 -0.3487  0.4650
53492SOL    HW278469   0.403   7.522   5.717 -0.1029 -0.2422 -1.4316
53493SOL     OW78470   5.362   7.034   1.685  0.4556 -0.6206  0.0241
53493SOL    HW178471   5.378   6.940   1.694 -0.0482 -0.8672 -1.4320
53493SOL    HW278472   5.434   7.075   1.732  0.2567 -1.7176  1.3765
53494SOL     OW78473   2.489   8.323   2.832 -0.0743  0.0347 -0.1497
53494SOL    HW178474   2.417   8.264   2.808  1.5456 -2.2116  0.2118
53494SOL    HW278475   2.482   8.396   2.770 -1.7875 -0.8347 -1.0394
53495SOL     OW78476   7.510   0.171   8.871 -0.4583 -0.1890 -0.2474
53495SOL    HW178477   7.431   0.189   8.922 -0.6913 -0.3783 -0.5368
53495SOL    HW278478   7.571   0.240   8.896 -0.4075 -0.5487  0.6327
53496SOL     OW78479   9.141   9.146   0.164 -0.4501 -0.4868  0.4368
53496SOL    HW178480   9.136   9.200   0.085 -0.6654  0.6504  1.2009
53496SOL    HW278481   9.051   9.115   0.177 -1.1489  1.8829  1.9177
53497SOL     OW78482   8.092  13.476   3.136  0.0067  0.4591  0.2584
53497SOL    HW178483   8.064  13.419   3.064 -0.2789 -0.3277  0.9726
53497SOL    HW278484   8.148  13.421   3.190 -2.1931  0.0412  2.2848
53498SOL     OW78485  13.289  13.962   3.365 -0.4126  0.0250 -0.8535
53498SOL    HW178486  13.253  14.024   3.428  0.6334  1.3247 -1.4815
53498SOL    HW278487  13.381  13.953   3.391 -0.8305 -2.3356  0.0382
53499SOL     OW78488   2.174   9.965  11.309  0.8783 -0.5851  0.4803
53499SOL    HW178489   2.135  10.050  11.286 -2.2735 -1.9017  0.4663
53499SOL    HW278490   2.212   9.934  11.228 -1.4262 -0.8337 -0.5821
53500SOL     OW78491   9.201   9.136   5.331 -0.5511  0.3530  0.0436
53500SOL    HW178492   9.241   9.053   5.358  0.2756  0.4725 -0.7849
53500SOL    HW278493   9.223   9.144   5.238  0.0796  1.8908  0.3004
53501SOL     OW78494   0.622   9.362  10.683  0.0276  0.0160  0.0284
53501SOL    HW178495   0.697   9.417  10.661 -0.2510  0.2874 -0.2494
53501SOL    HW278496   0.553   9.425  10.708 -0.0476 -0.2376  0.4614
53502SOL     OW78497   0.904   8.997   2.247 -0.2851 -0.6018 -0.1607
53502SOL    HW178498   0.862   9.035   2.324 -1.7659 -1.0745 -0.7001
53502SOL    HW278499   0.945   9.072   2.203 -0.4960 -0.1379  0.4219
53503SOL     OW78500  10.159  10.693   7.109 -0.0587  0.3192  0.3431
53503SOL    HW178501  10.252  10.715   7.121 -0.0783  0.2926  0.5601
53503SOL    HW278502  10.122  10.769   7.064  0.4241 -0.3898 -1.2968
53504SOL     OW78503  13.703  13.035   5.855  0.3924 -0.5317  0.2671
53504SOL    HW178504  13.712  13.118   5.901  0.7268 -0.7284  0.5601
53504SOL    HW278505  13.644  12.983   5.911 -0.6920 -0.1080 -0.4537
53505SOL     OW78506   5.397   8.361  10.424 -0.3794  0.2022  0.3246
53505SOL    HW178507   5.310   8.322  10.431 -1.1672  1.3275 -2.0890
53505SOL    HW278508   5.414   8.365  10.330  1.0752  2.5890  0.5968
53506SOL     OW78509  10.177  13.461   3.570  0.3778 -0.2041 -0.4798
53506SOL    HW178510  10.256  13.443   3.519 -0.7251 -0.3545 -2.2109
53506SOL    HW278511  10.111  13.402   3.534 -0.5595 -0.0603  0.9086
53507SOL     OW78512   6.963  10.173  10.490 -0.2057 -0.2341  0.0630
53507SOL    HW178513   6.962  10.082  10.461  0.2167 -0.2835  0.1939
53507SOL    HW278514   6.880  10.209  10.458 -0.3411 -0.6408 -0.0562
53508SOL     OW78515   3.975   6.276   4.319 -0.6405 -0.4368  0.1748
53508SOL    HW178516   3.980   6.369   4.298  0.2559 -0.3289  0.7706
53508SOL    HW278517   4.062   6.256   4.356 -1.0354 -1.3582  0.6269
53509SOL     OW78518  13.415  12.698   6.153 -0.0161  0.3477  0.3485
53509SOL    HW178519  13.474  12.728   6.084 -0.1313 -1.0573 -0.3913
53509SOL    HW278520  13.447  12.611   6.175 -0.5531  0.4084  1.4335
53510SOL     OW78521   5.844   3.363   7.476 -0.5125 -0.4847 -0.6587
53510SOL    HW178522   5.836   3.415   7.556  0.5510 -1.0359 -0.1584
53510SOL    HW278523   5.903   3.292   7.501 -1.1345 -1.3579 -1.6031
53511SOL     OW78524   0.313   8.288   2.340  0.2657  0.4099  0.1995
53511SOL    HW178525   0.328   8.236   2.260  0.8485 -0.2527  0.7269
53511SOL    HW278526   0.236   8.341   2.320 -0.3423 -0.6603 -0.3506
53512SOL     OW78527  12.895   2.584   9.746 -0.3047 -0.3452 -0.2450
53512SOL    HW178528  12.826   2.518   9.744  0.6078 -1.3129 -1.5971
53512SOL    HW278529  12.970   2.538   9.784 -0.3054  0.6229  0.9874
53513SOL     OW78530   7.548   9.295   4.470 -0.4943  0.6802  0.4427
53513SOL    HW178531   7.558   9.264   4.560  1.1944  0.4616  0.1974
53513SOL    HW278532   7.615   9.249   4.420 -2.3047 -0.2658 -1.2457
53514SOL     OW78533   2.132   5.599   8.190  0.2448  0.1414 -0.2560
53514SOL    HW178534   2.185   5.540   8.244 -0.1157 -1.8584 -1.9687
53514SOL    HW278535   2.045   5.597   8.229  0.1831 -0.6655 -0.4187
53515SOL     OW78536   8.987  14.041   4.287 -0.2039 -0.0586  1.1156
53515SOL    HW178537   8.964  14.013   4.198 -1.6897  0.6833  1.2446
53515SOL    HW278538   9.051  13.976   4.316  1.5945  0.5983 -1.0778
53516SOL     OW78539   8.436  11.859   3.266  0.2482  0.0392 -0.5309
53516SOL    HW178540   8.531  11.852   3.275  0.3148  0.9527 -0.3762
53516SOL    HW278541   8.414  11.941   3.311 -0.4966  0.3273 -1.3927
53517SOL     OW78542  11.386  10.250  12.287 -0.1990  0.3637 -0.2707
53517SOL    HW178543  11.355  10.203  12.210  1.7924  0.1527 -0.9785
53517SOL    HW278544  11.350  10.200  12.361  0.3855 -1.2518 -1.0345
53518SOL     OW78545   0.934  12.853   9.175  0.2712  0.1466 -0.3034
53518SOL    HW178546   0.872  12.879   9.243 -1.8447 -0.4933 -1.8540
53518SOL    HW278547   0.998  12.924   9.173 -0.6787  1.1038  1.0845
53519SOL     OW78548   1.176   5.553   7.167 -0.0155  0.0082  0.3303
53519SOL    HW178549   1.196   5.474   7.118  1.7905 -1.2453  2.8375
53519SOL    HW278550   1.081   5.551   7.179 -0.2340 -0.7282 -1.2330
53520SOL     OW78551  12.677  10.894   0.448  0.3133 -0.1348  0.4193
53520SOL    HW178552  12.647  10.933   0.366  0.3493 -0.1836  0.3833
53520SOL    HW278553  12.773  10.895   0.442  0.3060 -1.5990 -0.2170
53521SOL     OW78554  11.413   4.495   7.729 -0.4118 -0.5850 -0.1712
53521SOL    HW178555  11.440   4.504   7.637  0.0157  2.0358  0.1330
53521SOL    HW278556  11.475   4.432   7.766  1.1737  0.3869 -1.0575
53522SOL     OW78557  11.754   8.351   4.746  0.0021  0.1531 -0.4781
53522SOL    HW178558  11.785   8.336   4.835 -0.8650 -0.6656 -0.3019
53522SOL    HW278559  11.717   8.268   4.719 -0.1838  0.5314 -1.4330
53523SOL     OW78560  10.735   7.095  13.693  0.0050  0.6957  0.7572
53523SOL    HW178561  10.695   7.008  13.688  0.7712  0.3835 -0.6825
53523SOL    HW278562  10.798   7.088  13.764 -0.2081  0.1838  0.8996
53524SOL     OW78563   8.324   4.410   7.999 -0.1397 -0.1260 -0.1368
53524SOL    HW178564   8.304   4.395   7.907  0.3116 -0.2766 -0.2126
53524SOL    HW278565   8.322   4.323   8.039 -2.3111  0.1355  0.4126
53525SOL     OW78566   9.292   6.677  12.207  0.5809  0.0630 -0.3503
53525SOL    HW178567   9.363   6.662  12.269  0.3473  0.4286  0.0150
53525SOL    HW278568   9.293   6.772  12.193 -0.2914  0.1638  0.2144
53526SOL     OW78569   4.083   9.098  10.183  0.1933  0.3409 -0.0196
53526SOL    HW178570   4.142   9.029  10.214  0.6957  0.7161 -0.1330
53526SOL    HW278571   4.029   9.118  10.260 -1.2629 -1.4772 -0.4791
53527SOL     OW78572  12.821  13.060  13.978  0.2953  0.0053  0.7197
53527SOL    HW178573  12.813  13.143  14.027  0.6089  0.4890 -0.0331
53527SOL    HW278574  12.813  13.086  13.886 -0.6051 -0.9349  0.5173
53528SOL     OW78575  12.135   2.210   1.912 -0.2551  0.4586  0.0227
53528SOL    HW178576  12.049   2.194   1.873 -0.5508  2.8911 -0.4811
53528SOL    HW278577  12.127   2.178   2.002 -0.6335 -2.1801 -0.8630
53529SOL     OW78578   3.832  11.292   7.351 -0.5007 -0.1336 -0.2126
53529SOL    HW178579   3.841  11.336   7.435  0.9478 -2.0113  0.6850
53529SOL    HW278580   3.755  11.331   7.311 -1.4680  0.5150  2.1656
53530SOL     OW78581   8.380  12.638   3.303 -0.2328  0.3996  0.1433
53530SOL    HW178582   8.346  12.592   3.379  0.5781 -1.8334 -0.7613
53530SOL    HW278583   8.465  12.672   3.331 -0.1193 -0.0614  0.3668
53531SOL     OW78584   8.906   7.131   0.295 -0.2431  0.7306  1.0935
53531SOL    HW178585   8.969   7.133   0.367  0.1373  1.2537  0.7519
53531SOL    HW278586   8.897   7.037   0.275 -1.4439  0.4529  2.7487
53532SOL     OW78587   3.662   7.304   9.294  0.1157 -0.0149  0.9958
53532SOL    HW178588   3.605   7.293   9.370  0.3348  1.9484  1.5033
53532SOL    HW278589   3.745   7.334   9.330  0.0256  1.5758 -0.0097
53533SOL     OW78590  11.406   2.190  11.660 -0.2250 -0.4369  0.2551
53533SOL    HW178591  11.462   2.140  11.719 -0.0038  1.7400  2.0120
53533SOL    HW278592  11.466   2.242  11.607 -0.5074  0.2841  0.6279
53534SOL     OW78593   9.320  11.097   8.643  0.3724  0.2479 -0.2768
53534SOL    HW178594   9.337  11.023   8.585 -0.1011  1.0873 -1.5154
53534SOL    HW278595   9.406  11.125   8.674  0.5294 -1.0807  0.5797
53535SOL     OW78596   4.120  10.617  12.150  0.2677  0.1535 -0.4826
53535SOL    HW178597   4.079  10.651  12.229  0.6910  1.2753 -0.7394
53535SOL    HW278598   4.143  10.526  12.173 -1.0856 -0.0685  0.1152
53536SOL     OW78599   8.882   1.945   2.479 -0.6893 -0.2283 -0.7081
53536SOL    HW178600   8.891   1.876   2.413 -0.6301  0.9431 -1.9847
53536SOL    HW278601   8.880   2.026   2.428 -1.5499  0.6686  0.6936
53537SOL     OW78602   6.672  13.641   8.941  0.1922 -0.1462  0.0265
53537SOL    HW178603   6.587  13.674   8.970 -0.0665 -0.8764  0.1149
53537SOL    HW278604   6.734  13.677   9.005  0.2301  1.9813 -1.1295
53538SOL     OW78605   1.822   4.524   2.688 -0.0300 -0.2368 -0.1227
53538SOL    HW178606   1.771   4.596   2.650 -0.7340  0.0024  1.2265
53538SOL    HW278607   1.760   4.452   2.697 -0.2714  0.1609  1.8358
53539SOL     OW78608  13.788  13.013   6.470 -0.3537 -0.3052 -0.5365
53539SOL    HW178609  13.864  12.965   6.436 -0.6878 -1.3150  0.1001
53539SOL    HW278610  13.814  13.037   6.559 -0.5267 -0.0562 -0.5529
53540SOL     OW78611  12.700  13.714   8.598  0.1018 -0.4202 -0.3045
53540SOL    HW178612  12.773  13.705   8.660 -0.2829 -0.0501  0.2066
53540SOL    HW278613  12.636  13.769   8.643  0.5546  1.3614 -1.6691
53541SOL     OW78614   4.779   9.718  10.573  0.1355 -0.1098  0.2021
53541SOL    HW178615   4.868   9.736  10.602  0.8169 -1.5520 -0.9372
53541SOL    HW278616   4.741   9.805  10.560  0.5284  0.5976  3.0333
53542SOL     OW78617   8.759   8.463  11.447  0.4467  0.3722  0.3447
53542SOL    HW178618   8.836   8.448  11.502  1.2593  0.0885 -0.8269
53542SOL    HW278619   8.736   8.376  11.414 -1.9722  0.0177  2.6520
53543SOL     OW78620  11.914   2.194  10.537 -0.7240  0.5565 -0.0640
53543SOL    HW178621  11.875   2.258  10.597 -1.5685  1.9551 -1.9566
53543SOL    HW278622  12.002   2.228  10.519 -0.5325  0.2328  0.2747
53544SOL     OW78623  11.331   8.755  13.714 -0.1493  0.6160  0.1398
53544SOL    HW178624  11.302   8.828  13.659  0.6106  1.1262  0.3915
53544SOL    HW278625  11.427   8.763  13.716 -0.0699 -0.2907  0.3127
53545SOL     OW78626   6.080   2.759   4.330  0.2189  0.0623 -0.3138
53545SOL    HW178627   6.020   2.829   4.303  0.5519  1.1577  1.5899
53545SOL    HW278628   6.048   2.731   4.416  0.4986 -1.6836 -0.7426
53546SOL     OW78629   5.947   8.220   5.540 -0.7027  0.6623 -0.3680
53546SOL    HW178630   5.995   8.297   5.571 -0.1307 -0.0807  0.6181
53546SOL    HW278631   5.857   8.235   5.568 -0.2635  0.1610  1.4256
53547SOL     OW78632   7.215   6.076   7.527  0.2781 -0.0721  0.0834
53547SOL    HW178633   7.251   5.995   7.564 -1.5980 -0.8747  0.2558
53547SOL    HW278634   7.174   6.048   7.445  1.3685  1.0839 -0.8861
53548SOL     OW78635   1.897   4.350   9.449 -0.1107  0.0212  0.5639
53548SOL    HW178636   1.842   4.321   9.376  1.0485  0.3321 -0.4723
53548SOL    HW278637   1.922   4.269   9.494 -0.4630 -0.2134  0.3383
53549SOL     OW78638   4.677  12.212   7.400  0.4020 -0.0936 -0.2410
53549SOL    HW178639   4.619  12.202   7.325  0.9429 -0.1026 -0.6656
53549SOL    HW278640   4.618  12.221   7.475 -0.1846  2.0188 -0.9090
53550SOL     OW78641   0.862  14.053  11.667 -0.2859  0.1541  0.2625
53550SOL    HW178642   0.802  14.090  11.732 -0.6238 -0.6407  0.4100
53550SOL    HW278643   0.940  14.109  11.673 -0.6317  0.5945  0.7644
53551SOL     OW78644  13.892  13.173   8.585  0.0244 -1.0752 -0.4479
53551SOL    HW178645  13.814  13.181   8.640 -0.9947 -2.9959 -1.5052
53551SOL    HW278646  13.921  13.263   8.571 -1.5286 -0.3687  0.6209
53552SOL     OW78647   5.307   3.700   3.030 -0.2436  0.3616 -0.0851
53552SOL    HW178648   5.331   3.702   2.938 -2.3723 -0.0325 -0.7106
53552SOL    HW278649   5.348   3.778   3.068  1.7658 -0.1770 -1.0247
53553SOL     OW78650   8.907   7.546   5.787 -0.5001 -0.3919  0.0138
53553SOL    HW178651   8.972   7.583   5.728 -0.7034 -1.4769 -0.9276
53553SOL    HW278652   8.857   7.621   5.819 -0.8998  0.1647 -1.8006
53554SOL     OW78653   1.074  10.448  12.583  0.1338  0.1782  0.6577
53554SOL    HW178654   0.983  10.476  12.598 -0.0758 -0.7202  1.1611
53554SOL    HW278655   1.076  10.358  12.614  1.5204  0.5725  1.8292
53555SOL     OW78656   3.094   6.215  13.621  0.1229  0.0106 -0.3902
53555SOL    HW178657   3.119   6.230  13.712 -2.6848 -0.2177  0.5304
53555SOL    HW278658   3.103   6.300  13.579  1.8200  0.0369 -0.0214
53556SOL     OW78659  12.893  10.782   7.854  0.0790 -0.3946 -0.2553
53556SOL    HW178660  12.967  10.842   7.853  0.6263 -0.9580  1.9562
53556SOL    HW278661  12.932  10.695   7.841 -0.4198 -0.5391 -0.8655
53557SOL     OW78662   2.068  10.698   9.987 -0.2180 -0.1313 -0.1471
53557SOL    HW178663   2.114  10.767   9.940 -2.0292  1.3821  0.1953
53557SOL    HW278664   2.138  10.645  10.026  1.2502  0.4831 -1.7957
53558SOL     OW78665   0.348  12.235   2.548  0.2678  0.5047  0.3484
53558SOL    HW178666   0.427  12.219   2.600 -0.1362  0.6819  1.0316
53558SOL    HW278667   0.341  12.330   2.544  0.2373  0.4920  0.0547
53559SOL     OW78668  13.600  14.091   2.250 -0.1256  0.2609  0.2520
53559SOL    HW178669  13.512  14.128   2.241 -0.3970 -0.7883 -2.2116
53559SOL    HW278670  13.658  14.168   2.251 -0.9554  0.9066 -0.0863
53560SOL     OW78671   4.405  12.236   1.059 -0.1659 -0.3492 -0.1356
53560SOL    HW178672   4.442  12.281   1.135 -1.0564 -2.8144  1.8952
53560SOL    HW278673   4.480  12.215   1.004  0.2321  4.0970 -1.6345
53561SOL     OW78674  10.489   7.242   1.067 -0.2663 -0.0742  0.2929
53561SOL    HW178675  10.576   7.220   1.033  0.0354 -0.0613  1.0369
53561SOL    HW278676  10.507   7.304   1.138 -0.9342  0.5493 -0.0743
53562SOL     OW78677   4.276   7.738   7.110 -0.2474 -0.4978 -0.0722
53562SOL    HW178678   4.194   7.687   7.114 -0.0871 -0.7125  0.6611
53562SOL    HW278679   4.334   7.686   7.055 -0.0420 -1.1878  0.7765
53563SOL     OW78680   0.870   2.869  11.900 -0.0200  0.2854  0.0044
53563SOL    HW178681   0.835   2.809  11.966  0.1472 -1.0410 -1.0656
53563SOL    HW278682   0.804   2.938  11.892 -0.6016 -0.1754  0.7013
53564SOL     OW78683   5.145   9.308  13.537  0.1443  0.3545  0.2185
53564SOL    HW178684   5.184   9.359  13.467  0.9314  0.5105  0.7484
53564SOL    HW278685   5.096   9.371  13.590  0.2110  0.3720  0.2581
53565SOL     OW78686  11.410   0.653   2.504 -0.2610 -0.0884  0.2320
53565SOL    HW178687  11.503   0.650   2.529  0.0764  0.0793 -0.9504
53565SOL    HW278688  11.401   0.736   2.458 -0.4965 -1.0512 -1.5316
53566SOL     OW78689  11.853  10.001   8.277  0.1117  0.2519 -0.4909
53566SOL    HW178690  11.826  10.059   8.205 -1.3648 -1.7387 -1.6418
53566SOL    HW278691  11.896   9.928   8.234 -3.1638 -2.3540  0.2227
53567SOL     OW78692   3.781   0.130   3.030 -0.2069  0.4996  0.3288
53567SOL    HW178693   3.756   0.222   3.016  0.4201  0.9889  2.1591
53567SOL    HW278694   3.732   0.082   2.963 -3.0580  1.8286  1.2790
53568SOL     OW78695   1.802  13.646   0.541 -0.0531 -0.4165 -0.6276
53568SOL    HW178696   1.875  13.585   0.536 -0.0564 -0.5684  0.9034
53568SOL    HW278697   1.727  13.596   0.509  0.2632 -0.6572 -0.9977
53569SOL     OW78698   4.309   3.477   0.395 -0.1997 -0.4106 -0.7928
53569SOL    HW178699   4.363   3.436   0.327 -1.2754 -0.5358 -1.6100
53569SOL    HW278700   4.273   3.555   0.353  1.8901  1.5143  0.7744
53570SOL     OW78701   3.434   8.011   0.106  0.1282 -0.2719  0.1298
53570SOL    HW178702   3.530   8.014   0.111  0.0486  1.4329  2.0274
53570SOL    HW278703   3.411   8.077   0.041  0.2161  1.5288  1.8303
53571SOL     OW78704  13.598  10.451   3.186  0.0160  0.7434  0.5211
53571SOL    HW178705  13.623  10.527   3.238  0.2569  0.2303  1.1749
53571SOL    HW278706  13.534  10.405   3.240 -0.1561  0.4989  0.1129
53572SOL     OW78707   6.163  13.218  13.169  0.6694 -0.3001  0.0187
53572SOL    HW178708   6.162  13.312  13.182 -1.0718 -0.4899  1.7057
53572SOL    HW278709   6.079  13.198  13.127  1.0968 -1.0928 -0.5002
53573SOL     OW78710  13.257   3.889   5.552  0.3316 -0.5683 -0.3285
53573SOL    HW178711  13.188   3.875   5.616  2.0835  1.0644  2.0768
53573SOL    HW278712  13.227   3.843   5.473 -2.7560 -1.1313  1.0551
53574SOL     OW78713  13.608   5.246   6.249  0.2468 -0.2420  0.3847
53574SOL    HW178714  13.680   5.234   6.187  1.2693  0.5501  1.3914
53574SOL    HW278715  13.623   5.333   6.286 -1.4239  0.0695  0.3859
53575SOL     OW78716   2.746   4.592   1.874 -0.2460  0.1529 -0.3766
53575SOL    HW178717   2.691   4.605   1.797  0.6773 -0.8813 -1.2262
53575SOL    HW278718   2.765   4.498   1.875  0.3196  0.2637  0.7255
53576SOL     OW78719  13.602  13.492   4.166 -0.1245 -0.2338 -0.2630
53576SOL    HW178720  13.558  13.409   4.180  0.3788 -0.2862  1.1799
53576SOL    HW278721  13.531  13.557   4.164 -0.3912 -0.4950  0.4467
53577SOL     OW78722   5.182   3.210  11.083 -0.3956  0.1185  0.0179
53577SOL    HW178723   5.138   3.258  11.153  0.5090 -0.1171  0.7705
53577SOL    HW278724   5.269   3.192  11.118  0.0330 -0.1086 -1.1324
53578SOL     OW78725   2.434   2.408   5.852 -0.6000  0.2298 -0.0061
53578SOL    HW178726   2.390   2.490   5.827  0.8818  0.7950 -0.8850
53578SOL    HW278727   2.387   2.340   5.805 -0.3644  0.8582 -1.1856
53579SOL     OW78728  13.528   0.672   5.357 -0.7998 -0.5038  0.2937
53579SOL    HW178729  13.497   0.761   5.338 -0.1073 -0.5955 -1.3928
53579SOL    HW278730  13.623   0.680   5.359 -0.7184 -1.2659 -0.1679
53580SOL     OW78731   1.002  11.503   4.598 -0.3019  0.5035  0.9434
53580SOL    HW178732   1.042  11.577   4.552  0.0542 -0.0998  0.2515
53580SOL    HW278733   1.050  11.497   4.680  1.5485 -0.5935 -0.1303
53581SOL     OW78734  10.792   2.677   6.832 -0.7193 -0.6268  0.4765
53581SOL    HW178735  10.731   2.679   6.758 -1.6112  0.1755  1.2003
53581SOL    HW278736  10.839   2.595   6.822 -1.8917 -1.2481 -0.1423
53582SOL     OW78737   8.625   3.675   4.632  0.0715 -0.1232  0.8577
53582SOL    HW178738   8.531   3.686   4.623  0.2714  0.9189 -0.2016
53582SOL    HW278739   8.652   3.745   4.691 -0.0443 -1.6381  2.8256
53583SOL     OW78740   4.762   5.630   3.691  0.1733 -0.5716 -0.7335
53583SOL    HW178741   4.810   5.669   3.617 -2.0245  0.2867 -1.7842
53583SOL    HW278742   4.774   5.535   3.680  5.4958 -0.5854  1.7888
53584SOL     OW78743  10.129   2.137   2.426  0.0650 -0.2003  0.3679
53584SOL    HW178744  10.106   2.114   2.516 -2.5616  1.8692  0.3433
53584SOL    HW278745  10.130   2.054   2.379 -1.0442 -1.0748  1.7962
53585SOL     OW78746  12.180   4.037   3.537 -0.0419 -0.9855 -0.1127
53585SOL    HW178747  12.124   3.989   3.597  0.0995 -1.6008 -0.4648
53585SOL    HW278748  12.246   3.974   3.509  1.5908  0.0404  1.2304
53586SOL     OW78749   3.001  12.657  13.245 -0.5211 -0.3473  0.3307
53586SOL    HW178750   3.060  12.612  13.306 -1.4504 -0.7525  0.9445
53586SOL    HW278751   3.056  12.723  13.204  0.1873 -0.2213  1.4389
53587SOL     OW78752   0.315   1.828   9.698  0.1782 -0.0863 -0.1664
53587SOL    HW178753   0.295   1.831   9.791  1.1111 -2.5338  0.1764
53587SOL    HW278754   0.281   1.744   9.668 -1.3642  1.2033 -2.4087
53588SOL     OW78755  12.025   5.674  10.147  0.1430 -0.3814  0.2841
53588SOL    HW178756  11.958   5.606  10.139 -1.8350  1.1806  2.4146
53588SOL    HW278757  11.989   5.749  10.100  1.2433 -0.0418 -0.0442
53589SOL     OW78758  11.254   5.164   2.702 -0.0489 -0.6456 -0.1243
53589SOL    HW178759  11.216   5.252   2.708  1.5030  0.3090 -2.6332
53589SOL    HW278760  11.348   5.179   2.702  0.3439 -2.5796  1.7868
53590SOL     OW78761  12.275  14.003   2.128 -0.5081 -0.3673  0.0444
53590SOL    HW178762  12.285  14.036   2.039 -0.0923  1.4675  0.7093
53590SOL    HW278763  12.350  13.945   2.141  0.5193  0.8637 -0.1994
53591SOL     OW78764   0.870   8.031  13.860 -0.4231 -0.0688  0.4681
53591SOL    HW178765   0.823   8.048  13.942 -1.9844 -2.3469  0.1260
53591SOL    HW278766   0.804   7.995  13.801  0.5661  1.8111 -1.9777
53592SOL     OW78767   4.064  11.411   2.853 -0.6835  0.1750  0.0010
53592SOL    HW178768   4.102  11.414   2.766  0.4443 -1.4734  0.4015
53592SOL    HW278769   4.106  11.483   2.900  1.1740 -0.9263  0.1083
53593SOL     OW78770   5.906   9.068   1.643  0.3780 -0.0092 -0.8902
53593SOL    HW178771   5.844   9.032   1.706  0.2377  0.0852 -0.9720
53593SOL    HW278772   5.876   9.035   1.558  1.3705 -1.2616 -0.7800
53594SOL     OW78773   1.020   5.883   5.975  0.0257 -0.3940  0.2186
53594SOL    HW178774   0.991   5.951   6.035  0.2627 -0.2283  0.1482
53594SOL    HW278775   1.113   5.903   5.959  0.3100 -1.1669  0.7913
53595SOL     OW78776   0.639   7.299   6.902  0.2702 -0.7788 -0.2931
53595SOL    HW178777   0.551   7.329   6.878 -0.0175 -0.1613  1.3488
53595SOL    HW278778   0.692   7.313   6.824 -0.1254  3.0425 -0.0752
53596SOL     OW78779  10.011   9.356   9.097 -0.8085  0.4639  0.5286
53596SOL    HW178780  10.048   9.415   9.031 -3.8482  0.3824 -1.4667
53596SOL    HW278781  10.039   9.268   9.068 -0.3740  0.5762  0.6015
53597SOL     OW78782   5.306   9.090   0.133  0.4322  0.4287 -0.1196
53597SOL    HW178783   5.316   9.046   0.049  0.0298  0.8542 -0.3903
53597SOL    HW278784   5.363   9.041   0.192  0.5402 -0.0137 -0.5845
53598SOL     OW78785  11.863   3.274  10.680  0.2721 -0.2243  0.3835
53598SOL    HW178786  11.872   3.335  10.753  2.1547  0.7579 -0.5768
53598SOL    HW278787  11.953   3.260  10.650 -0.4585 -0.3230 -1.9325
53599SOL     OW78788  11.267   3.473   4.879  0.6507  0.5192 -0.2982
53599SOL    HW178789  11.252   3.449   4.970  1.3771 -1.0321 -0.5525
53599SOL    HW278790  11.271   3.569   4.880 -0.7399  0.5973  1.0586
53600SOL     OW78791   7.039   4.982   0.667 -0.1788 -0.5339  0.1613
53600SOL    HW178792   7.095   4.926   0.721  0.0200 -0.2212  0.2838
53600SOL    HW278793   6.989   5.034   0.730  0.1986 -0.0246  0.0507
53601SOL     OW78794   9.109   6.307  13.193  0.6085 -0.6112  0.2601
53601SOL    HW178795   9.036   6.330  13.251  0.6681  0.0788  0.0689
53601SOL    HW278796   9.086   6.222  13.157 -0.7932  0.2006 -0.8837
53602SOL     OW78797  11.045  10.428  12.246 -0.3618 -0.0669  0.6718
53602SOL    HW178798  11.002  10.441  12.330 -1.5957  0.5012 -0.0269
53602SOL    HW278799  10.974  10.417  12.183  0.5390 -1.2924 -0.1951
53603SOL     OW78800   3.569   3.495  12.837  0.5202  0.6430  0.1068
53603SOL    HW178801   3.616   3.438  12.897 -1.5353 -0.0098  1.1900
53603SOL    HW278802   3.554   3.441  12.760 -2.0344 -0.6358  1.4004
53604SOL     OW78803   7.683   3.940   2.126  0.3922 -0.6402 -0.2864
53604SOL    HW178804   7.683   4.020   2.178 -0.9431 -1.3015  0.8074
53604SOL    HW278805   7.650   3.968   2.040 -1.1429 -0.1611  0.4100
53605SOL     OW78806   9.343   4.723   4.054  0.0644 -0.6514  0.1756
53605SOL    HW178807   9.337   4.814   4.083 -0.6801 -0.3504 -0.8389
53605SOL    HW278808   9.282   4.676   4.110  1.3938 -0.7779  1.5572
53606SOL     OW78809   2.121   1.421   0.666  0.4594  0.5021  0.7896
53606SOL    HW178810   2.205   1.376   0.652  0.7243  1.5204 -1.2322
53606SOL    HW278811   2.136   1.473   0.745  1.7325  0.6281  0.4923
53607SOL     OW78812  11.070   0.624   6.145 -0.1471 -0.5116  0.1794
53607SOL    HW178813  11.060   0.590   6.234  0.6006  0.3738  0.6207
53607SOL    HW278814  11.007   0.696   6.139 -2.0499 -2.1587 -0.9013
53608SOL     OW78815   3.735   3.287   7.976 -0.6032 -0.1325  0.0040
53608SOL    HW178816   3.753   3.211   7.921  0.1240  0.8789 -1.1877
53608SOL    HW278817   3.819   3.332   7.984 -1.3141  1.3502 -0.5594
53609SOL     OW78818   8.668  12.822   0.769 -0.1071 -0.8195 -0.1418
53609SOL    HW178819   8.721  12.745   0.747 -0.2287 -0.9125 -0.1081
53609SOL    HW278820   8.579  12.789   0.778  0.0393 -0.9096  1.1815
53610SOL     OW78821  13.412   9.937   3.412 -0.5022  0.2840 -0.3587
53610SOL    HW178822  13.389   9.882   3.487 -1.0918 -0.9722 -1.4306
53610SOL    HW278823  13.411  10.027   3.447 -0.3176 -0.3056  1.2310
53611SOL     OW78824   0.814  10.409   8.256  0.2235 -0.5233  0.0519
53611SOL    HW178825   0.786  10.351   8.326  0.6454 -2.8615 -1.5869
53611SOL    HW278826   0.749  10.396   8.186 -0.8234  2.5711  0.3140
53612SOL     OW78827   9.426   4.470   8.388  0.1452  0.8549  0.9834
53612SOL    HW178828   9.416   4.426   8.473  0.2192  0.5510  0.8384
53612SOL    HW278829   9.469   4.404   8.333 -1.6061  0.3523  0.1506
53613SOL     OW78830   4.634  12.024   8.564  0.0423 -0.0098 -0.3160
53613SOL    HW178831   4.674  11.938   8.558  0.1687 -0.1149  1.5817
53613SOL    HW278832   4.703  12.085   8.536 -0.4818 -0.5464 -3.0374
53614SOL     OW78833   7.737   1.741  12.652  0.0423  0.1684  0.2360
53614SOL    HW178834   7.771   1.819  12.608 -0.4178  1.8373  2.6248
53614SOL    HW278835   7.796   1.671  12.624  0.5809  1.3573 -1.8674
53615SOL     OW78836   6.052   4.612  10.173  0.5749  0.1088  0.3965
53615SOL    HW178837   6.141   4.608  10.137 -0.3750  1.1878 -2.3179
53615SOL    HW278838   6.008   4.535  10.137  0.1784  0.0074  1.0759
53616SOL     OW78839   7.785   3.557   3.465  0.4148 -0.3342 -0.7969
53616SOL    HW178840   7.856   3.610   3.430 -1.3697  1.7084 -1.5271
53616SOL    HW278841   7.765   3.495   3.394  1.8403 -1.3824 -0.3294
53617SOL     OW78842  10.392  10.203   9.369 -0.1278  0.4386  0.1324
53617SOL    HW178843  10.454  10.223   9.439 -1.5733  1.1090  1.2595
53617SOL    HW278844  10.357  10.117   9.392  0.2701  0.1088 -0.4483
53618SOL     OW78845   6.860   3.465  12.090 -0.3031  0.0804  0.3355
53618SOL    HW178846   6.808   3.397  12.047 -0.0567 -0.7143  1.2620
53618SOL    HW278847   6.874   3.531  12.022  1.2321 -1.7546 -1.2289
53619SOL     OW78848  13.400   9.299   5.868  0.8011 -0.1956  0.2800
53619SOL    HW178849  13.353   9.377   5.897  0.5406  0.3164 -1.4081
53619SOL    HW278850  13.380   9.293   5.774  2.3070 -1.2415  0.0001
53620SOL     OW78851   0.575   6.661  13.192 -0.5543  0.1781  0.4353
53620SOL    HW178852   0.513   6.729  13.220 -1.9117 -0.5984 -0.5647
53620SOL    HW278853   0.570   6.662  13.096 -1.7939 -2.3289  0.3982
53621SOL     OW78854   9.937  12.379   7.032  0.2438 -0.4008  0.1420
53621SOL    HW178855   9.879  12.351   6.961  0.3628  0.5671 -0.3697
53621SOL    HW278856  10.008  12.314   7.032  0.6078 -0.0452 -1.1163
53622SOL     OW78857  13.654   9.682   3.003  0.1922  0.0413 -0.1903
53622SOL    HW178858  13.749   9.688   3.015  0.4152  1.5323 -2.0343
53622SOL    HW278859  13.617   9.696   3.090  1.6588 -0.5248  0.5542
53623SOL     OW78860   2.370  10.086   7.066  0.4676  0.5339  0.9204
53623SOL    HW178861   2.387  10.180   7.066  2.0937  0.2754  2.1450
53623SOL    HW278862   2.278  10.078   7.093 -0.5878  1.8331 -1.9217
53624SOL     OW78863   9.353   5.306  11.696  0.4674  0.2103 -0.8852
53624SOL    HW178864   9.280   5.243  11.700 -1.1981  2.0924  1.1334
53624SOL    HW278865   9.366   5.323  11.603 -1.4438 -0.4769 -1.3199
53625SOL     OW78866  10.900   1.526   5.077  0.3305  0.4274  0.0262
53625SOL    HW178867  10.958   1.536   5.152  1.4755  0.6239 -0.8703
53625SOL    HW278868  10.876   1.433   5.077 -1.8154  0.8625  2.1365
53626SOL     OW78869   2.911   0.699   8.956  0.3570 -0.1541 -0.2345
53626SOL    HW178870   2.874   0.777   8.916 -0.6710  0.2865  1.4720
53626SOL    HW278871   3.005   0.716   8.959  0.2177  0.6911 -0.5501
53627SOL     OW78872  13.481   8.560  11.854 -0.1243  0.1733  0.0018
53627SOL    HW178873  13.573   8.568  11.877  0.4521  1.1601 -2.3555
53627SOL    HW278874  13.447   8.650  11.859 -1.3421 -0.3288  2.0671
53628SOL     OW78875   6.530   1.008  11.784 -0.0397 -0.2511  0.1598
53628SOL    HW178876   6.464   0.990  11.851  2.2210 -0.6700  2.4234
53628SOL    HW278877   6.518   0.938  11.719  0.4624 -2.5545  2.3906
53629SOL     OW78878   1.979   9.228   0.927 -0.0002  0.2858 -0.0697
53629SOL    HW178879   2.044   9.166   0.960  0.4207  1.0146  0.5133
53629SOL    HW278880   1.998   9.234   0.833  1.0246  0.7623  0.1503
53630SOL     OW78881  13.411   8.908   7.006 -0.1290  0.2942  1.0440
53630SOL    HW178882  13.410   8.896   7.101  0.5034 -0.4426  0.9649
53630SOL    HW278883  13.349   8.979   6.990  0.1268  0.7663  2.0603
53631SOL     OW78884  13.851   5.540   4.753 -0.2266 -0.0405 -0.2120
53631SOL    HW178885  13.832   5.501   4.838  0.0514 -1.2939 -0.6896
53631SOL    HW278886  13.799   5.489   4.691  2.7246 -2.0463 -1.2654
53632SOL     OW78887   5.404  12.103  12.382 -0.5186  0.4340 -0.3009
53632SOL    HW178888   5.432  12.122  12.471 -0.4809 -0.9289 -0.0048
53632SOL    HW278889   5.466  12.037  12.350 -1.1778  0.1020 -0.9394
53633SOL     OW78890   4.705   4.791   3.168 -0.4227  0.2290  0.1497
53633SOL    HW178891   4.784   4.818   3.121 -0.0104  1.7597  1.6233
53633SOL    HW278892   4.682   4.706   3.130  0.6729  0.7448 -1.8176
53634SOL     OW78893  11.413  12.828   0.772  0.0177  0.3851 -0.1064
53634SOL    HW178894  11.351  12.899   0.760  1.2065  1.6598  0.8767
53634SOL    HW278895  11.496  12.872   0.793  1.5211 -1.1861 -2.2689
53635SOL     OW78896   7.638  13.828   4.370  0.4385 -0.5154  0.1480
53635SOL    HW178897   7.730  13.854   4.372  0.3387 -0.0216 -0.9817
53635SOL    HW278898   7.636  13.745   4.418  1.7202 -1.2531 -1.0106
53636SOL     OW78899   7.865   8.070   2.416  0.2624  0.1557  0.0809
53636SOL    HW178900   7.905   8.156   2.433  1.0758  0.0592 -1.2384
53636SOL    HW278901   7.859   8.030   2.503  0.5296  1.2546  0.6372
53637SOL     OW78902  11.063  10.780   1.691  0.1601  0.3157  0.3078
53637SOL    HW178903  11.025  10.693   1.682  1.1996  0.0245 -2.0223
53637SOL    HW278904  11.084  10.807   1.602 -1.9469  3.8619  0.6843
53638SOL     OW78905   4.454  12.215   7.984 -0.2309 -0.8054 -0.3703
53638SOL    HW178906   4.548  12.233   7.972 -0.2840  0.0320  0.3752
53638SOL    HW278907   4.419  12.212   7.895  0.0514  1.4561 -0.6027
53639SOL     OW78908   7.166   4.334   2.143  0.3251  0.1833 -0.1180
53639SOL    HW178909   7.224   4.258   2.137  1.0035  0.6750  0.1142
53639SOL    HW278910   7.168   4.371   2.055  0.1919  0.0754 -0.1665
53640SOL     OW78911  13.389   9.672   4.336  0.4936 -0.2912 -0.3610
53640SOL    HW178912  13.399   9.639   4.426 -0.3966  3.0255  1.1163
53640SOL    HW278913  13.478   9.686   4.305  0.8128  0.3216  0.7842
53641SOL     OW78914  10.838  10.441   9.271 -0.7050 -0.5619 -0.1239
53641SOL    HW178915  10.771  10.501   9.304 -1.2742 -0.1541 -1.9076
53641SOL    HW278916  10.887  10.493   9.208 -0.2951 -1.5729 -0.6562
53642SOL     OW78917   4.300  11.361   7.192 -0.3303 -0.0802  0.3068
53642SOL    HW178918   4.282  11.448   7.156  1.0896 -0.3430 -1.1489
53642SOL    HW278919   4.395  11.357   7.199 -0.4399 -1.1026  1.5000
53643SOL     OW78920  13.791   9.309   2.267 -0.2737 -0.1486 -0.4226
53643SOL    HW178921  13.722   9.375   2.272 -0.5275 -0.4392  3.8882
53643SOL    HW278922  13.802   9.279   2.357  4.2875 -1.4466 -1.1605
53644SOL     OW78923   5.142   5.868   7.738  0.1400 -0.4491  1.3178
53644SOL    HW178924   5.126   5.962   7.730 -0.3946 -0.5208  1.5128
53644SOL    HW278925   5.071   5.827   7.688  0.6609 -0.7430  0.7993
53645SOL     OW78926   5.235   9.083   8.242  0.1455  0.0464  0.0267
53645SOL    HW178927   5.197   8.995   8.244 -0.8364  0.4554  1.4003
53645SOL    HW278928   5.178   9.132   8.183  1.1246 -0.3869 -1.3262
53646SOL     OW78929   1.939   1.775   3.074  0.0491  0.2326 -0.3859
53646SOL    HW178930   1.850   1.803   3.094 -0.1936 -0.5468 -0.3761
53646SOL    HW278931   1.964   1.828   2.998 -0.2680  0.7415 -0.1457
53647SOL     OW78932   3.940   3.891   7.814  0.4472  0.3941  0.8418
53647SOL    HW178933   3.859   3.941   7.806 -0.2151 -0.8734 -1.5347
53647SOL    HW278934   3.930   3.820   7.750  2.8640 -0.6076  1.4678
53648SOL     OW78935  13.518  10.412   7.884 -0.4593  0.1221  0.3585
53648SOL    HW178936  13.522  10.318   7.871 -0.4488  0.1512  0.1554
53648SOL    HW278937  13.473  10.446   7.807 -1.2720  0.1908  0.8488
53649SOL     OW78938   9.549   2.594   0.865  0.1713  0.2043  0.0968
53649SOL    HW178939   9.490   2.656   0.822  2.1572  2.8098  0.8859
53649SOL    HW278940   9.615   2.573   0.799  0.9138  0.9587  0.5820
53650SOL     OW78941  12.849   2.931  10.366  0.9368 -0.2483 -0.6833
53650SOL    HW178942  12.872   3.019  10.394 -2.1180  0.5529 -0.3516
53650SOL    HW278943  12.858   2.878  10.446 -0.9536  0.6068  0.1539
53651SOL     OW78944   7.712   4.182   3.798 -0.7124 -0.2797  0.2684
53651SOL    HW178945   7.751   4.106   3.842 -1.3013 -1.2588 -0.8223
53651SOL    HW278946   7.728   4.165   3.705 -1.6491  0.4894 -0.0464
53652SOL     OW78947  11.542   4.251   8.679  0.4956  0.3366  0.3736
53652SOL    HW178948  11.464   4.262   8.733  0.3378  0.0721  0.2037
53652SOL    HW278949  11.604   4.314   8.713  0.7499 -0.4991  1.5105
53653SOL     OW78950  11.872  13.969  13.245  1.0060 -0.0518  0.2024
53653SOL    HW178951  11.800  13.910  13.267  0.1528  0.0907 -1.9248
53653SOL    HW278952  11.927  13.918  13.185  0.8758  0.8809 -0.7560
53654SOL     OW78953  12.767   6.444   6.189  0.3282  0.4352  0.0143
53654SOL    HW178954  12.799   6.403   6.108 -0.5696  0.2047 -0.2402
53654SOL    HW278955  12.816   6.401   6.259 -0.5991 -1.1336 -0.2488
53655SOL     OW78956   3.130   3.524   9.793 -0.1153  0.3297  0.4077
53655SOL    HW178957   3.187   3.460   9.751 -0.3673  0.5625 -0.2963
53655SOL    HW278958   3.137   3.504   9.886 -1.8343 -2.1122  0.1000
53656SOL     OW78959  10.431   5.055   1.454 -0.8456  0.2727  0.3642
53656SOL    HW178960  10.356   5.023   1.404 -0.0796  1.4138 -1.6302
53656SOL    HW278961  10.446   5.144   1.421  2.2049 -0.3702 -0.3515
53657SOL     OW78962   0.063   3.332   2.069  0.4691  0.2114 -0.4072
53657SOL    HW178963  -0.014   3.275   2.078  0.1154  0.4542 -1.7052
53657SOL    HW278964   0.105   3.329   2.155 -1.3376  0.5676  0.5411
53658SOL     OW78965   9.391   2.660   9.470  0.1891  0.9087  0.0065
53658SOL    HW178966   9.337   2.686   9.544  1.0634 -0.4859  1.1948
53658SOL    HW278967   9.474   2.706   9.482 -0.0569  1.5774 -0.7652
53659SOL     OW78968   9.828  12.393  11.528  0.0107  0.0323 -0.7997
53659SOL    HW178969   9.903  12.353  11.572  2.4768  5.0550  0.2553
53659SOL    HW278970   9.864  12.435  11.451 -2.0418  1.1586 -1.2285
53660SOL     OW78971   3.978   5.458  10.903 -0.6040  0.5458  0.2323
53660SOL    HW178972   3.938   5.498  10.826 -1.1880  1.6436  1.0831
53660SOL    HW278973   3.915   5.474  10.974  0.8830  1.4715  1.4109
53661SOL     OW78974   0.068   6.625  10.525 -0.3571  0.0262  0.0842
53661SOL    HW178975   0.108   6.585  10.448  3.0554  2.1191  0.5299
53661SOL    HW278976   0.077   6.558  10.594  2.5853  0.3592  0.1407
53662SOL     OW78977  10.566   0.544   1.971  0.2116  0.2586 -0.4305
53662SOL    HW178978  10.624   0.576   1.902  0.2797 -0.0421 -0.5150
53662SOL    HW278979  10.612   0.468   2.008  0.1157  0.3388 -0.1439
53663SOL     OW78980  13.706   3.944   5.841  0.4193 -0.2104 -0.5510
53663SOL    HW178981  13.657   3.865   5.864  0.3977 -0.4823 -1.4986
53663SOL    HW278982  13.797   3.914   5.834  0.2452 -0.4619 -2.2028
53664SOL     OW78983   7.566  10.663  11.140 -0.1337  0.3415 -0.1207
53664SOL    HW178984   7.543  10.725  11.208  1.6728  1.2447 -0.2774
53664SOL    HW278985   7.593  10.584  11.188 -1.9807 -0.2220  0.0835
53665SOL     OW78986   4.589   9.042   0.590 -0.4090  0.0981  0.2099
53665SOL    HW178987   4.685   9.048   0.595 -0.4706  2.1200 -0.3964
53665SOL    HW278988   4.569   9.063   0.500 -1.4900  0.7686  0.5948
53666SOL     OW78989   7.244   2.921  13.362 -0.4865  0.4704 -0.2880
53666SOL    HW178990   7.200   2.891  13.282 -0.9670 -0.0024  0.1477
53666SOL    HW278991   7.299   2.847  13.388  1.9828  1.6325 -1.7827
53667SOL     OW78992   8.652   3.574  10.284 -0.2227  0.2765 -0.4513
53667SOL    HW178993   8.690   3.586  10.371  2.7086 -0.0345 -1.5835
53667SOL    HW278994   8.651   3.661  10.245 -0.2201  0.2125 -0.5987
53668SOL     OW78995   8.247   5.282   6.460  0.5957  0.5084 -0.2481
53668SOL    HW178996   8.335   5.266   6.428  1.2310  1.1450  1.0714
53668SOL    HW278997   8.224   5.203   6.509  0.5093  0.4271 -0.4181
53669SOL     OW78998   5.771   1.428   7.175  0.2411 -0.0892 -0.1853
53669SOL    HW178999   5.859   1.398   7.198 -0.2868 -2.7939 -1.3266
53669SOL    HW279000   5.760   1.401   7.083 -1.5329  0.8153 -0.2831
53670SOL     OW79001   2.386   8.964   9.895  0.1824  0.8922  0.4253
53670SOL    HW179002   2.386   8.869   9.893 -0.3060  0.8593 -2.5225
53670SOL    HW279003   2.323   8.987   9.964 -0.3661 -0.9217  0.5700
53671SOL     OW79004   1.804   8.896   6.943 -0.5162 -0.7912  0.6222
53671SOL    HW179005   1.819   8.912   7.036 -1.1116 -0.4501  0.6654
53671SOL    HW279006   1.711   8.911   6.931  0.0007  2.4178 -0.6079
53672SOL     OW79007   6.297  14.052   6.328 -0.7756 -0.3694 -0.3063
53672SOL    HW179008   6.363  14.020   6.390 -1.6367 -0.4186  0.5880
53672SOL    HW279009   6.271  13.974   6.279  0.4676 -0.2043 -1.3178
53673SOL     OW79010  10.624   1.081  11.435  0.1270  0.0849 -0.1941
53673SOL    HW179011  10.705   1.132  11.429  1.5147 -2.0964 -0.9325
53673SOL    HW279012  10.633   1.032  11.516 -0.4824 -0.1502 -0.2664
53674SOL     OW79013   6.267   8.368   6.996 -0.0013  0.2751  0.0464
53674SOL    HW179014   6.301   8.281   7.015 -1.1116  0.1172  1.5118
53674SOL    HW279015   6.323   8.427   7.047 -0.2980  0.2516  0.4041
53675SOL     OW79016   4.277  12.486   2.780 -0.0898  0.1364  0.1939
53675SOL    HW179017   4.364  12.515   2.753 -0.3795 -0.7464 -1.9500
53675SOL    HW279018   4.217  12.532   2.721 -0.8340 -1.3980 -0.3022
53676SOL     OW79019   9.930   7.249   2.438  0.0867 -0.5784  0.1581
53676SOL    HW179020   9.840   7.281   2.438 -0.0580 -0.9760  0.2403
53676SOL    HW279021   9.927   7.170   2.493 -0.0393 -2.0810 -1.9107
53677SOL     OW79022   0.325  10.883  14.117  0.1579 -0.4381 -0.5016
53677SOL    HW179023   0.288  10.832  14.044  0.0071  0.0684 -0.7858
53677SOL    HW279024   0.352  10.817  14.181 -1.3833 -0.8446 -0.2136
53678SOL     OW79025   5.467   4.406  10.797 -0.1107  0.3135 -0.5250
53678SOL    HW179026   5.457   4.315  10.769 -0.4693  0.0519  0.4178
53678SOL    HW279027   5.421   4.457  10.731 -0.1934 -0.2141 -0.8766
53679SOL     OW79028   4.726   6.787   0.014 -0.0078  0.1466 -0.7048
53679SOL    HW179029   4.649   6.730   0.010 -0.0042  0.1844 -1.5145
53679SOL    HW279030   4.698   6.867  -0.031  0.0909  0.6565  0.1363
53680SOL     OW79031  10.497  12.115   1.664  0.0678  0.1980  0.2550
53680SOL    HW179032  10.445  12.195   1.659 -0.5039 -0.2204 -1.1228
53680SOL    HW279033  10.566  12.127   1.598  0.2008 -0.2830  0.3024
53681SOL     OW79034  13.827   8.501   5.681  0.2685  0.4273 -0.0838
53681SOL    HW179035  13.756   8.456   5.727  0.9904 -0.4019  0.2588
53681SOL    HW279036  13.812   8.483   5.589  0.0120  0.2776 -0.0122
53682SOL     OW79037   0.763   3.530   9.944  0.4558 -0.0313 -0.0713
53682SOL    HW179038   0.687   3.471   9.946  0.2078  0.2084 -1.6376
53682SOL    HW279039   0.838   3.473   9.957  0.1443 -0.5635 -0.5595
53683SOL     OW79040   1.540   8.518   6.819  0.6692  0.4709  0.3122
53683SOL    HW179041   1.620   8.541   6.867  0.3309  2.1333  0.1348
53683SOL    HW279042   1.473   8.578   6.854 -0.3029 -0.3322 -0.1343
53684SOL     OW79043  13.059  11.579  12.338  0.7091  0.2464  0.1726
53684SOL    HW179044  13.123  11.640  12.373  0.5245  1.6373 -1.7485
53684SOL    HW279045  13.080  11.573  12.245 -0.1520 -1.5599  0.0457
53685SOL     OW79046  10.076   6.071   3.473  0.1217 -0.1707  0.8455
53685SOL    HW179047  10.132   6.026   3.536 -0.5557 -0.2547  1.4031
53685SOL    HW279048  10.102   6.036   3.388  1.3264  0.2302  1.0248
53686SOL     OW79049  11.875   4.850   6.944  0.4947  0.2680 -0.2878
53686SOL    HW179050  11.860   4.914   7.014 -1.2078 -0.1113 -0.2505
53686SOL    HW279051  11.798   4.858   6.888 -0.4974 -2.7053  0.4950
53687SOL     OW79052   4.272   1.554   1.846 -0.5018  0.3235  0.2422
53687SOL    HW179053   4.355   1.599   1.860 -0.0125 -0.8106  1.1678
53687SOL    HW279054   4.277   1.520   1.757 -1.0751  2.4461 -0.6384
53688SOL     OW79055  11.260  12.402  10.343 -0.4457 -0.3823  0.4208
53688SOL    HW179056  11.352  12.395  10.317 -0.3539 -0.6391  0.7997
53688SOL    HW279057  11.246  12.327  10.401 -0.5089  0.4322  1.4967
53689SOL     OW79058  13.963   9.968   8.194  0.1635  0.7918  0.1329
53689SOL    HW179059  13.901   9.915   8.245 -0.3076  0.5105 -0.7116
53689SOL    HW279060  13.908  10.025   8.141  0.6642  1.7664  0.6387
53690SOL     OW79061   7.751  10.628   7.413  0.4896  0.9002  0.2284
53690SOL    HW179062   7.809  10.578   7.356 -0.0792 -0.0123  0.4193
53690SOL    HW279063   7.749  10.715   7.376  0.7872  0.5377 -0.6564
53691SOL     OW79064  13.785   0.096   3.582  0.0533  0.0021 -0.2097
53691SOL    HW179065  13.726   0.046   3.639  1.5760 -0.0405  1.3853
53691SOL    HW279066  13.873   0.069   3.608  0.8308  0.8632 -1.8068
53692SOL     OW79067   0.399   3.247  13.365  0.7261 -0.2109 -0.5192
53692SOL    HW179068   0.313   3.208  13.347 -0.0601  0.8038  0.8421
53692SOL    HW279069   0.433   3.195  13.439  0.7124  0.1912 -0.2285
53693SOL     OW79070   4.853   9.918  11.580  0.1568 -0.1986 -0.0532
53693SOL    HW179071   4.940   9.910  11.541 -0.8694 -2.1341 -2.2297
53693SOL    HW279072   4.836   9.831  11.616 -1.0945 -0.0433 -0.2360
53694SOL     OW79073  10.270  11.852   3.182 -0.1450 -0.3956  0.8498
53694SOL    HW179074  10.314  11.910   3.244  0.1358  2.3996 -1.7083
53694SOL    HW279075  10.191  11.898   3.157  0.3885 -0.7141 -1.7675
53695SOL     OW79076   2.887   9.094  13.832  0.0078  0.4953  0.1990
53695SOL    HW179077   2.800   9.066  13.804  0.0220 -0.8516  1.4113
53695SOL    HW279078   2.905   9.044  13.911  1.3549  1.7085  0.7204
53696SOL     OW79079   7.244   7.349  11.257  0.2377  0.5516 -0.0703
53696SOL    HW179080   7.314   7.310  11.205 -1.3386 -1.9551 -0.4472
53696SOL    HW279081   7.249   7.306  11.342  0.3138  1.7739  0.5793
53697SOL     OW79082  10.224   9.301   9.322  0.2089 -0.1232 -0.5761
53697SOL    HW179083  10.244   9.233   9.387  0.6789 -0.0703 -0.6631
53697SOL    HW279084  10.147   9.268   9.276 -0.7526  0.2950  0.6755
53698SOL     OW79085   6.877   5.498  12.446 -0.7140 -0.1927  0.0087
53698SOL    HW179086   6.849   5.526  12.359  0.5330 -0.5615 -0.5410
53698SOL    HW279087   6.911   5.578  12.487 -1.3667 -0.0039  0.1900
53699SOL     OW79088  13.164   1.014  11.875 -0.2391  0.2398  0.0302
53699SOL    HW179089  13.201   1.010  11.964 -0.1054 -0.9105 -0.0658
53699SOL    HW279090  13.073   0.987  11.886  0.5786 -3.2345 -0.5900
53700SOL     OW79091   0.335   8.493   8.949 -0.0110  0.2305 -0.5094
53700SOL    HW179092   0.269   8.485   9.019 -0.6492 -0.5952 -1.1790
53700SOL    HW279093   0.419   8.481   8.994 -0.2949  1.4634  0.3820
53701SOL     OW79094   8.916   3.196   9.178 -0.0138  0.4059 -0.5636
53701SOL    HW179095   8.836   3.219   9.130  0.1649  1.3039 -0.4591
53701SOL    HW279096   8.966   3.142   9.117 -0.6149 -0.0061 -0.7006
53702SOL     OW79097   3.644   0.599   9.030 -0.3507 -0.1897 -0.3053
53702SOL    HW179098   3.617   0.526   8.973  0.1892  0.2624 -1.1602
53702SOL    HW279099   3.732   0.574   9.060 -0.8269 -0.6573  0.7510
53703SOL     OW79100   3.206  10.124  11.105 -0.0785  0.2440  0.3952
53703SOL    HW179101   3.144  10.105  11.034 -1.8601  0.0331  1.9570
53703SOL    HW279102   3.226  10.039  11.143  1.0947  0.3265  0.0177
53704SOL     OW79103   1.311   2.901  13.365 -0.5183  0.1655 -0.3789
53704SOL    HW179104   1.309   2.806  13.376  0.3595  0.2747  0.8581
53704SOL    HW279105   1.219   2.925  13.353 -0.6390 -0.9660 -2.1398
53705SOL     OW79106   5.763   1.487  12.166 -0.1563 -0.2414  0.5521
53705SOL    HW179107   5.853   1.455  12.158 -0.6947 -1.3788 -2.1168
53705SOL    HW279108   5.772   1.576  12.200  2.0259 -0.0754 -0.2928
53706SOL     OW79109   4.111   2.908   2.666 -0.0987 -0.0967  0.4166
53706SOL    HW179110   4.183   2.847   2.679 -0.1179 -0.1428  0.3085
53706SOL    HW279111   4.132   2.983   2.722 -0.3910 -0.4679  1.0260
53707SOL     OW79112   2.615  13.380  12.939  0.2870 -0.1122 -0.7709
53707SOL    HW179113   2.691  13.344  12.893 -0.5410 -0.4719 -1.8927
53707SOL    HW279114   2.548  13.312  12.931 -0.7140  0.9046 -1.3186
53708SOL     OW79115   1.568   0.427   4.116 -0.4330 -0.0333 -0.3253
53708SOL    HW179116   1.514   0.494   4.073 -1.3625  0.5751  1.6605
53708SOL    HW279117   1.523   0.345   4.097 -2.3412  0.4892  1.5265
53709SOL     OW79118   2.309   8.488   1.042 -0.2271 -0.3288 -0.8037
53709SOL    HW179119   2.288   8.494   1.136  1.6933 -0.9157 -0.2787
53709SOL    HW279120   2.229   8.457   1.002 -0.8132 -1.0318  0.8092
53710SOL     OW79121   1.810  12.896   8.877 -0.0467 -0.2881 -0.2150
53710SOL    HW179122   1.878  12.868   8.938 -0.9741  0.0138  0.9946
53710SOL    HW279123   1.855  12.955   8.816  0.6403  0.4783  1.0010
53711SOL     OW79124   9.836   2.267   9.055  0.1120 -0.4178  0.7826
53711SOL    HW179125   9.845   2.173   9.040  0.9256  0.1185 -3.2372
53711SOL    HW279126   9.757   2.292   9.007 -0.4371  0.9231  2.2874
53712SOL     OW79127  12.056   3.782   7.111 -0.0619 -0.1749  0.2111
53712SOL    HW179128  12.146   3.752   7.118  0.5088  1.0331 -1.2973
53712SOL    HW279129  12.052   3.861   7.165 -0.9693 -1.6523  2.4118
53713SOL     OW79130   0.889   6.173  14.031 -0.6771 -0.0839  0.0333
53713SOL    HW179131   0.821   6.169  14.098 -0.0427 -0.3204  0.6741
53713SOL    HW279132   0.846   6.212  13.956 -1.2682  0.6650  0.7468
53714SOL     OW79133   5.209   6.930   6.030 -0.8823 -0.4367  0.0931
53714SOL    HW179134   5.236   6.975   6.110 -0.5576  0.5881 -0.5738
53714SOL    HW279135   5.257   6.847   6.032 -0.6852 -0.3156  0.8213
53715SOL     OW79136  11.763   8.480   3.011 -0.4694  0.5660 -0.8572
53715SOL    HW179137  11.814   8.541   3.066 -0.5917 -1.4779  1.7144
53715SOL    HW279138  11.672   8.504   3.028 -0.6251 -1.4782  1.8391
53716SOL     OW79139  11.862  10.186   7.623  0.2900  0.0548 -0.0168
53716SOL    HW179140  11.799  10.220   7.688  1.5088  1.3609  0.5446
53716SOL    HW279141  11.944  10.176   7.673  0.9980  0.1401 -1.1411
53717SOL     OW79142   2.454   8.662   0.666 -0.2484  0.2302  0.7711
53717SOL    HW179143   2.487   8.731   0.609 -0.7624  0.1780  0.4078
53717SOL    HW279144   2.416   8.598   0.607 -2.1256  0.8762  1.2195
53718SOL     OW79145  13.489   9.326   8.557  0.8527 -0.1354 -0.2225
53718SOL    HW179146  13.518   9.257   8.499 -0.7248 -1.4978  0.5333
53718SOL    HW279147  13.457   9.395   8.499  0.2063 -1.0639 -0.9906
53719SOL     OW79148   5.065   9.730   1.718  0.1050  0.0424 -0.0584
53719SOL    HW179149   4.991   9.759   1.771 -0.3223 -1.5260  0.2729
53719SOL    HW279150   5.034   9.650   1.675  0.8878  0.5633 -1.6682
53720SOL     OW79151   4.839   2.458  10.764 -0.5245 -0.0538  0.0879
53720SOL    HW179152   4.862   2.478  10.674 -1.4930  0.3822 -0.0746
53720SOL    HW279153   4.747   2.434  10.761 -0.4121 -0.6376  0.8802
53721SOL     OW79154  11.099   1.196   5.036  0.1646  0.2140  0.7055
53721SOL    HW179155  11.165   1.265   5.029  0.9012 -0.4841  0.4902
53721SOL    HW279156  11.016   1.239   5.020  0.6332  1.0123  0.3864
53722SOL     OW79157   4.333  10.507   8.326 -0.1921  0.3164  0.0275
53722SOL    HW179158   4.369  10.443   8.388  1.1222  0.6476 -0.3776
53722SOL    HW279159   4.239  10.509   8.347 -0.2768 -1.7065  0.0773
53723SOL     OW79160   5.729   6.570   5.408 -0.2958 -0.1666  0.0698
53723SOL    HW179161   5.727   6.654   5.363 -1.5054 -0.6329 -0.8103
53723SOL    HW279162   5.637   6.551   5.427 -0.1070 -1.5463 -0.2554
53724SOL     OW79163   7.454   9.002   5.445  0.1281  0.1815  0.0744
53724SOL    HW179164   7.469   9.052   5.525  1.5628 -0.5162  0.2748
53724SOL    HW279165   7.430   8.915   5.475  0.7892 -0.1188 -0.2367
53725SOL     OW79166   1.600  11.402  11.578 -0.4587  0.1427 -0.4139
53725SOL    HW179167   1.554  11.328  11.618 -0.5545  1.3258  1.8015
53725SOL    HW279168   1.538  11.438  11.515 -0.7547 -1.0782 -0.8517
53726SOL     OW79169   5.902   6.136   3.489 -0.1529 -0.5199 -0.2539
53726SOL    HW179170   5.938   6.222   3.467 -2.6843  0.9903  1.0309
53726SOL    HW279171   5.953   6.108   3.565 -0.3820  0.6776  0.3761
53727SOL     OW79172   0.483  13.668   5.530  0.1867 -0.0882 -0.2102
53727SOL    HW179173   0.541  13.717   5.473  1.3146 -1.8951 -0.6876
53727SOL    HW279174   0.408  13.644   5.474  0.4564 -0.3628 -0.4563
53728SOL     OW79175   5.181   6.784   6.802  0.8233 -0.5182  0.3668
53728SOL    HW179176   5.221   6.846   6.741  0.1683 -0.4397  0.0051
53728SOL    HW279177   5.170   6.704   6.751 -2.1067  0.3083 -0.4817
53729SOL     OW79178  12.438   1.440   5.638 -0.3265  0.3477  0.0094
53729SOL    HW179179  12.406   1.524   5.670 -1.2774  0.8009 -1.9864
53729SOL    HW279180  12.514   1.463   5.584  0.3450 -0.2421  0.6858
53730SOL     OW79181   7.029  11.358   2.819 -0.1057 -0.1539 -0.1703
53730SOL    HW179182   7.116  11.397   2.825  0.1663 -0.8357  0.5299
53730SOL    HW279183   7.046  11.265   2.800 -0.6994 -0.1932 -0.5493
53731SOL     OW79184   9.222  13.143  12.344 -0.4490 -0.4327 -0.7237
53731SOL    HW179185   9.208  13.050  12.362  1.5720 -0.4726  1.0147
53731SOL    HW279186   9.317  13.152  12.340 -0.6224  1.5169 -1.1183
53732SOL     OW79187   1.799   5.083  13.170 -0.5148 -0.5373  0.3758
53732SOL    HW179188   1.754   5.148  13.117  0.3108  0.2382  0.6098
53732SOL    HW279189   1.812   5.009  13.111  0.2329  0.2438 -0.4692
53733SOL     OW79190   8.843   1.258   8.807 -0.1430  0.2429  0.2569
53733SOL    HW179191   8.816   1.333   8.860  0.7968  0.3352  0.6254
53733SOL    HW279192   8.939   1.260   8.810 -0.0722  0.2347 -1.4467
53734SOL     OW79193   6.220  10.996   4.412  0.3014  0.4842 -0.1307
53734SOL    HW179194   6.221  11.070   4.352  0.4734  0.6205  0.0382
53734SOL    HW279195   6.245  11.033   4.497  1.2613  0.0954 -0.2213
53735SOL     OW79196   8.171  10.689   3.527  0.1405 -0.0886  0.6176
53735SOL    HW179197   8.229  10.682   3.451 -1.6106 -1.2673 -0.6812
53735SOL    HW279198   8.086  10.659   3.495 -0.7347 -0.2964  2.9761
53736SOL     OW79199  11.962   4.102  13.101 -0.3115 -0.1300  0.1398
53736SOL    HW179200  12.036   4.159  13.085 -1.5539  1.2442 -1.0271
53736SOL    HW279201  11.981   4.059  13.184  2.0124 -0.2475 -0.4024
53737SOL     OW79202  12.430   1.903   6.334  0.2534 -0.0663 -0.2614
53737SOL    HW179203  12.377   1.955   6.274  0.3602  1.2339  0.7386
53737SOL    HW279204  12.490   1.966   6.374  0.9877 -1.1139  0.3413
53738SOL     OW79205  13.535   8.872  14.006  0.1966  0.2020  0.2671
53738SOL    HW179206  13.477   8.913  13.942 -0.9020 -1.3212  0.2445
53738SOL    HW279207  13.621   8.871  13.964 -0.8135 -2.3133 -1.9998
53739SOL     OW79208  11.299  10.521   1.382 -0.7627 -0.5255 -0.0989
53739SOL    HW179209  11.290  10.594   1.443  1.0660 -0.0084 -0.4156
53739SOL    HW279210  11.235  10.540   1.313 -0.4099  0.7093 -0.1056
53740SOL     OW79211   4.236   9.871   1.968  0.0002 -0.3986 -0.6524
53740SOL    HW179212   4.186   9.801   2.011  0.4667 -0.5096 -0.2817
53740SOL    HW279213   4.181   9.949   1.978 -0.0681 -0.5016 -0.1803
53741SOL     OW79214   8.620  13.670  10.903  0.4587 -0.2391 -0.2532
53741SOL    HW179215   8.634  13.765  10.893 -1.8676  0.0821 -1.0190
53741SOL    HW279216   8.531  13.655  10.871  0.5233 -2.6047  0.4729
53742SOL     OW79217  11.229   3.700   3.205  0.0402 -0.7836  0.0750
53742SOL    HW179218  11.185   3.623   3.169 -0.2287 -0.4104 -0.3981
53742SOL    HW279219  11.293   3.725   3.139  2.1976 -2.3184  1.4526
53743SOL     OW79220  12.087   2.889  11.497  0.3558 -0.5198 -0.1164
53743SOL    HW179221  12.151   2.882  11.426 -0.1159 -3.8898 -0.3925
53743SOL    HW279222  12.032   2.811  11.488 -0.2163 -0.7290  3.4955
53744SOL     OW79223   0.833   6.034   1.544 -0.1969  0.0020 -0.9817
53744SOL    HW179224   0.834   6.055   1.451 -0.6463  1.9266 -0.6038
53744SOL    HW279225   0.755   6.077   1.578 -0.0614 -0.6951  0.2840
53745SOL     OW79226   7.630   4.630   2.213 -0.1807 -0.2415 -0.0124
53745SOL    HW179227   7.638   4.725   2.220 -0.0667 -0.1287 -1.3771
53745SOL    HW279228   7.561   4.617   2.147  0.0058 -1.0982 -0.0504
53746SOL     OW79229   1.170   1.654   8.113  0.9656  0.3842  0.2039
53746SOL    HW179230   1.224   1.576   8.106 -1.6195 -1.4007 -2.2128
53746SOL    HW279231   1.196   1.708   8.038 -0.8918 -0.8093 -1.3934
53747SOL     OW79232   4.808  12.958   6.773 -0.4250  0.3846  0.5530
53747SOL    HW179233   4.783  12.937   6.683 -0.6324 -1.7902  1.0700
53747SOL    HW279234   4.884  13.016   6.763  0.1182 -0.5345 -1.0436
53748SOL     OW79235   1.060   7.546   9.101 -0.4993  0.1435  0.8361
53748SOL    HW179236   1.049   7.601   9.178  0.8203  1.3301  0.2244
53748SOL    HW279237   0.972   7.537   9.064 -0.6041  2.9938  0.2133
53749SOL     OW79238   9.579  13.128  11.586  0.1255 -0.1333 -0.0735
53749SOL    HW179239   9.574  13.192  11.657  0.8195  0.0901 -0.2161
53749SOL    HW279240   9.491  13.092  11.580 -0.0426  0.1371  0.6306
53750SOL     OW79241   6.847  12.278   4.608  0.1223  0.4194  0.0915
53750SOL    HW179242   6.888  12.313   4.529  3.8661 -0.9999  1.2032
53750SOL    HW279243   6.826  12.355   4.661  1.3172  1.2459 -0.6047
53751SOL     OW79244   1.808   8.170   4.807  0.2695  0.7252 -0.2234
53751SOL    HW179245   1.761   8.241   4.850 -0.2418 -0.0025  0.4611
53751SOL    HW279246   1.896   8.205   4.792  0.7736  0.7574  2.2803
53752SOL     OW79247  11.575   2.411   7.295  0.4531  0.7984 -0.0364
53752SOL    HW179248  11.529   2.383   7.374 -2.5878  3.3581 -0.6819
53752SOL    HW279249  11.661   2.439   7.326  0.2661 -0.5658  1.9241
53753SOL     OW79250  11.145   3.652   7.429 -0.4791  0.6270  0.0727
53753SOL    HW179251  11.232   3.622   7.456 -0.3412 -0.6395 -1.6036
53753SOL    HW279252  11.090   3.574   7.436 -1.0301  0.9361 -0.7118
53754SOL     OW79253  12.987   0.187   4.324  0.2791  0.1060  0.0923
53754SOL    HW179254  13.050   0.133   4.276 -1.2081 -0.4486 -1.3243
53754SOL    HW279255  13.019   0.277   4.313  0.7690 -0.1532 -0.6742
53755SOL     OW79256   0.184  11.906   7.629  0.1824 -0.1784  0.4223
53755SOL    HW179257   0.249  11.926   7.696 -0.3921 -0.3618  1.0456
53755SOL    HW279258   0.203  11.815   7.603  0.8931  0.1497 -0.2338
53756SOL     OW79259   2.772   2.077  11.810 -0.0290 -0.4792 -0.8729
53756SOL    HW179260   2.694   2.101  11.760 -0.8062 -0.6337  0.2257
53756SOL    HW279261   2.844   2.082  11.747 -0.8813 -0.0414 -1.8326
53757SOL     OW79262   2.149  10.598  13.868 -0.1229  0.2917 -0.0823
53757SOL    HW179263   2.184  10.558  13.948 -1.3767  1.0039  0.8506
53757SOL    HW279264   2.187  10.686  13.867  2.2287 -0.6362 -1.8666
53758SOL     OW79265   9.599  12.851  13.213 -0.3233 -0.3578  0.2720
53758SOL    HW179266   9.515  12.892  13.234  0.6461  1.6284  0.4422
53758SOL    HW279267   9.595  12.837  13.118 -0.7796 -0.1605  0.2569
53759SOL     OW79268   6.522   3.409   3.412 -0.0428 -0.4443 -0.2829
53759SOL    HW179269   6.594   3.370   3.462 -0.2914 -0.4040  0.1131
53759SOL    HW279270   6.447   3.352   3.430 -0.3204  0.0027  0.0124
53760SOL     OW79271   0.040  13.867   2.642  0.5203 -0.0145  0.7131
53760SOL    HW179272   0.133  13.873   2.665  0.3201  0.9015  1.3514
53760SOL    HW279273  -0.006  13.897   2.720 -0.2905  0.2653  0.1446
53761SOL     OW79274   4.130   3.425   1.047 -0.4380 -0.0849 -0.0115
53761SOL    HW179275   4.156   3.350   0.993  0.7874 -1.7413  2.6639
53761SOL    HW279276   4.150   3.501   0.993 -2.3004 -1.5912 -3.1024
53762SOL     OW79277   7.023   7.312  11.458 -0.0049 -0.3275 -0.2404
53762SOL    HW179278   7.058   7.270  11.537  0.7177  1.2969  0.3503
53762SOL    HW279279   6.943   7.264  11.439  1.4371 -2.7975 -0.3993
53763SOL     OW79280  11.055   9.207   3.943 -0.6490 -0.1183  0.1990
53763SOL    HW179281  11.061   9.194   3.849 -1.2140  0.3951  0.0874
53763SOL    HW279282  10.967   9.178   3.967  0.6158 -3.6541  1.1643
53764SOL     OW79283   6.095   9.681  11.512 -0.4730 -0.2246 -0.1806
53764SOL    HW179284   6.085   9.592  11.479  0.7106 -1.0230  1.4879
53764SOL    HW279285   6.183   9.682  11.551  0.9015  2.6130 -2.9004
53765SOL     OW79286   9.691   4.325   5.604  0.2016  0.2035 -0.3614
53765SOL    HW179287   9.701   4.235   5.635 -0.8641 -0.0172 -0.6196
53765SOL    HW279288   9.742   4.377   5.665  0.1668 -0.4880  0.2747
53766SOL     OW79289   8.134   7.979   7.246  0.3628  0.2494 -0.3817
53766SOL    HW179290   8.056   8.008   7.294  0.1419 -2.1192  0.8610
53766SOL    HW279291   8.156   8.053   7.189 -1.1469  2.0432  1.2150
53767SOL     OW79292  12.255   4.744   1.285 -0.3447 -0.9517 -0.0524
53767SOL    HW179293  12.204   4.721   1.207  0.1315 -0.4990 -0.5078
53767SOL    HW279294  12.216   4.691   1.355 -0.3514 -1.8770 -0.7246
53768SOL     OW79295  14.081  10.185   9.591  0.3238  0.3754 -0.2706
53768SOL    HW179296  14.145  10.198   9.521  0.2722 -0.1338 -0.4119
53768SOL    HW279297  14.132  10.147   9.663  0.1587 -0.1636 -0.4335
53769SOL     OW79298   5.134  13.862  12.192  0.2805  0.4198 -0.0099
53769SOL    HW179299   5.213  13.812  12.172 -1.0698 -1.4158 -1.1675
53769SOL    HW279300   5.067  13.795  12.208 -1.1015  1.9036  0.7269
53770SOL     OW79301  13.104   3.711  13.132  0.8875 -0.0924 -0.1187
53770SOL    HW179302  13.054   3.630  13.128  0.5544  0.0825  0.4639
53770SOL    HW279303  13.111   3.731  13.226 -0.4048  1.3958 -0.3069
53771SOL     OW79304  11.956   3.201   1.045 -0.0832  0.4184 -0.4429
53771SOL    HW179305  11.951   3.238   1.133 -1.5403 -0.5654 -0.0752
53771SOL    HW279306  12.038   3.152   1.043  0.9719  2.1234 -0.3403
53772SOL     OW79307  10.131   7.708   3.892 -0.6604  0.2774 -0.1193
53772SOL    HW179308  10.148   7.748   3.977  0.6352 -1.1569  0.3473
53772SOL    HW279309  10.036   7.711   3.882 -1.0016 -0.9979  2.1633
53773SOL     OW79310   5.759   4.352   9.516 -0.1662 -0.5521  0.1416
53773SOL    HW179311   5.794   4.407   9.587 -1.8169 -0.7057  1.1151
53773SOL    HW279312   5.675   4.392   9.494 -0.0348 -0.9660 -1.2382
53774SOL     OW79313  12.593   2.607  10.005 -0.2562  0.3802  0.0329
53774SOL    HW179314  12.502   2.622   9.980 -0.3680 -0.8217 -0.3233
53774SOL    HW279315  12.603   2.657  10.087 -1.1889  0.6385  0.0040
53775SOL     OW79316   5.315   9.557   8.669  0.1818 -0.3097 -0.3098
53775SOL    HW179317   5.340   9.641   8.631  2.4019  0.1086  1.8841
53775SOL    HW279318   5.242   9.578   8.728 -0.1431 -0.1784 -0.7489
53776SOL     OW79319   2.779  10.086   6.151  0.3651  0.6849  0.1165
53776SOL    HW179320   2.809  10.175   6.137 -2.3391  1.6353 -0.2261
53776SOL    HW279321   2.739  10.060   6.068  2.9062 -1.6981 -0.5022
53777SOL     OW79322   4.295   1.051   1.548  0.4356 -0.7583 -0.4024
53777SOL    HW179323   4.386   1.075   1.568  0.6808 -3.0890  1.7353
53777SOL    HW279324   4.243   1.122   1.586  1.2778 -0.3204 -0.0386
53778SOL     OW79325  10.507   0.776   6.936 -0.2243  0.2483  0.0657
53778SOL    HW179326  10.563   0.851   6.956  0.5233 -0.4129  0.5059
53778SOL    HW279327  10.504   0.773   6.841 -0.7699  1.1908  0.0324
53779SOL     OW79328   9.473   7.230   5.226  0.1499 -0.2132 -0.5487
53779SOL    HW179329   9.396   7.196   5.270  0.2921 -0.1228 -0.2303
53779SOL    HW279330   9.541   7.165   5.240  0.1774 -0.2159 -0.6899
53780SOL     OW79331  12.521  13.651  13.414 -0.2899  0.3317  0.0485
53780SOL    HW179332  12.535  13.608  13.329 -1.3331  1.3024 -0.6496
53780SOL    HW279333  12.496  13.740  13.391  0.1015  0.8131  1.4218
53781SOL     OW79334   6.394   4.406  10.998 -0.1427 -0.3166 -0.2189
53781SOL    HW179335   6.424   4.437  11.084 -0.1817 -0.9415  0.0282
53781SOL    HW279336   6.446   4.455  10.935  0.2653 -0.2376  0.1757
53782SOL     OW79337   3.922   7.753   9.424 -0.2443  0.3897 -0.2588
53782SOL    HW179338   3.877   7.798   9.352 -0.7834 -0.3540 -0.3933
53782SOL    HW279339   3.910   7.660   9.406  0.1566  0.1921  0.4589
53783SOL     OW79340   2.040   5.472   5.669 -0.0012 -0.4626 -0.0256
53783SOL    HW179341   2.038   5.381   5.700 -0.0457 -0.4109  0.1229
53783SOL    HW279342   1.953   5.506   5.690 -1.0315 -1.2354 -2.6508
53784SOL     OW79343  13.490   5.938   3.891 -0.1121  0.0684  0.8823
53784SOL    HW179344  13.484   5.849   3.858  2.5807 -0.4362  1.4899
53784SOL    HW279345  13.563   5.977   3.843  0.7655  0.9002  2.7919
53785SOL     OW79346  13.470   0.609  10.240 -0.2561  0.3633  0.0287
53785SOL    HW179347  13.486   0.515  10.245 -2.2771 -0.0054  0.3470
53785SOL    HW279348  13.487   0.641  10.329 -0.9011  0.0515  0.2688
53786SOL     OW79349   2.207   6.645   0.180  0.7441 -0.0514 -0.0308
53786SOL    HW179350   2.207   6.552   0.203  1.2442 -0.5303 -1.7884
53786SOL    HW279351   2.130   6.656   0.124  0.1910  0.8020  0.8769
53787SOL     OW79352   5.132   6.548  13.487  0.0295 -0.5259 -0.1314
53787SOL    HW179353   5.049   6.500  13.481  0.8771 -2.1109  0.2947
53787SOL    HW279354   5.195   6.483  13.516  1.1172  1.0289  1.1547
53788SOL     OW79355  12.760   5.048   6.628 -0.6955 -0.1335 -0.0160
53788SOL    HW179356  12.739   5.138   6.601  1.7991  0.7110  0.5958
53788SOL    HW279357  12.819   5.016   6.560  0.0105 -0.5729  0.7971
53789SOL     OW79358  10.206   1.016   9.187  0.0731  0.0935  0.6861
53789SOL    HW179359  10.195   0.921   9.177  1.3052 -0.1806  1.6576
53789SOL    HW279360  10.227   1.047   9.099 -0.6971 -0.4757  0.2926
53790SOL     OW79361  11.540   9.896   0.571  0.4016  0.0853  0.6989
53790SOL    HW179362  11.561   9.948   0.648  2.6147  0.8345 -0.3405
53790SOL    HW279363  11.591   9.816   0.580  0.0665 -0.1679  0.3918
53791SOL     OW79364  13.207   2.753   2.374  0.4709  0.4178 -0.1034
53791SOL    HW179365  13.139   2.795   2.426  1.2685  2.2471 -0.4486
53791SOL    HW279366  13.167   2.740   2.288  0.8176  2.4577 -0.6266
53792SOL     OW79367   7.873   4.550   6.709 -0.0617  0.3650 -0.1274
53792SOL    HW179368   7.883   4.501   6.791  0.8948 -0.0511 -0.4747
53792SOL    HW279369   7.926   4.628   6.720  0.1597  0.2527 -0.3944
53793SOL     OW79370   0.512  13.940   4.548 -0.3080 -0.8974  0.0517
53793SOL    HW179371   0.607  13.932   4.545 -0.4003 -1.8393 -0.9733
53793SOL    HW279372   0.496  14.026   4.587  0.9643 -0.4695 -0.3262
53794SOL     OW79373   7.567   7.344   1.590  0.4730  0.1167  0.1287
53794SOL    HW179374   7.484   7.298   1.573  0.9434 -1.4583  1.8658
53794SOL    HW279375   7.627   7.309   1.524 -0.5441  2.4875 -2.2710
53795SOL     OW79376   6.374   5.982  10.419 -0.6967 -0.7938 -0.4113
53795SOL    HW179377   6.338   5.894  10.419 -2.1472 -0.2922 -2.8799
53795SOL    HW279378   6.371   6.010  10.327  2.0874  0.9199 -0.1055
53796SOL     OW79379   8.364   4.970   7.191  0.4541  0.1458  0.7518
53796SOL    HW179380   8.377   4.928   7.107 -0.3932 -0.9844  1.1615
53796SOL    HW279381   8.300   4.915   7.236  1.1870  0.4999  2.2932
53797SOL     OW79382  11.797   8.000   9.375  0.0414 -0.3692  0.2040
53797SOL    HW179383  11.872   7.940   9.373 -0.7862 -1.4279 -0.0925
53797SOL    HW279384  11.781   8.021   9.282 -1.4074 -1.9741  0.0301
53798SOL     OW79385  10.154   8.210   2.051 -0.0947 -0.3156 -0.2555
53798SOL    HW179386  10.185   8.122   2.029  1.3163  0.2497 -0.6602
53798SOL    HW279387  10.164   8.216   2.146 -1.3290 -0.9879 -0.0671
53799SOL     OW79388   4.132   7.828   8.526 -0.2284  0.8964  0.5641
53799SOL    HW179389   4.036   7.831   8.534 -0.2366  1.2133  0.3693
53799SOL    HW279390   4.150   7.864   8.440 -0.0078 -0.4424  0.0282
53800SOL     OW79391   1.890  11.283   7.216  0.7161 -0.2462 -0.3242
53800SOL    HW179392   1.834  11.359   7.235  0.8453  0.0612 -1.1355
53800SOL    HW279393   1.970  11.321   7.179  1.6862 -0.6465  1.2634
53801SOL     OW79394   8.857   2.456   1.053  0.0366  0.0913  0.3416
53801SOL    HW179395   8.790   2.419   0.996  0.0450  0.6556 -0.0431
53801SOL    HW279396   8.939   2.446   1.004 -0.2013  2.2540 -0.5947
53802SOL     OW79397  12.251   0.813   0.555  0.2885  0.3607 -0.1788
53802SOL    HW179398  12.204   0.832   0.474  1.1298  1.4533 -0.4294
53802SOL    HW279399  12.284   0.724   0.543  0.1913  0.4237 -0.9226
53803SOL     OW79400   9.136  10.686   6.487 -0.1612 -0.4602 -0.5814
53803SOL    HW179401   9.137  10.612   6.548  0.9498 -0.9561 -1.1769
53803SOL    HW279402   9.084  10.655   6.413  0.4090 -0.7057 -0.8865
53804SOL     OW79403   7.249   3.654   5.228  0.3976 -0.4692 -0.0592
53804SOL    HW179404   7.175   3.650   5.167  2.4231  1.2184 -2.8304
53804SOL    HW279405   7.308   3.585   5.200  2.1901  1.4722 -1.3023
53805SOL     OW79406   3.373   3.939  11.059 -0.0070  0.4121  0.0586
53805SOL    HW179407   3.468   3.954  11.055 -0.0887  1.1346  0.5962
53805SOL    HW279408   3.335   4.014  11.012 -0.2733 -0.7920 -1.7639
53806SOL     OW79409   8.987   7.095  12.286  0.4171  0.3604  0.1396
53806SOL    HW179410   8.964   7.086  12.193  1.7364  0.2970 -0.1979
53806SOL    HW279411   8.936   7.026  12.329  0.6866 -0.3918 -0.7082
53807SOL     OW79412   9.333  12.863   4.304 -0.2545 -0.3988 -0.1466
53807SOL    HW179413   9.405  12.802   4.319 -0.8481 -1.1679 -0.3602
53807SOL    HW279414   9.314  12.854   4.210  0.6202  1.2216 -0.5326
53808SOL     OW79415   9.834   1.060  10.172  0.1513  0.3092 -0.0429
53808SOL    HW179416   9.813   1.153  10.185  0.9149  0.4429  0.2967
53808SOL    HW279417   9.902   1.042  10.237  0.2390 -0.4042 -0.3293
53809SOL     OW79418   7.883   8.301   6.238 -0.3724 -0.5808  0.4483
53809SOL    HW179419   7.968   8.334   6.266 -0.7796  1.8627 -0.8943
53809SOL    HW279420   7.820   8.364   6.272 -1.3263 -0.5878 -1.1833
53810SOL     OW79421   6.443   3.151   8.467  1.2144  0.3322  0.4351
53810SOL    HW179422   6.423   3.080   8.407 -0.3850  0.4891  0.7484
53810SOL    HW279423   6.536   3.139   8.488  1.5425 -0.3140 -1.2489
53811SOL     OW79424  13.662   1.901   2.583  0.2732  0.5891  0.4110
53811SOL    HW179425  13.685   1.943   2.500  0.5350 -0.4428 -0.0620
53811SOL    HW279426  13.601   1.961   2.625 -0.8805  0.5529 -1.1209
53812SOL     OW79427   6.154   9.788   0.987  0.1812 -0.2443  0.7165
53812SOL    HW179428   6.174   9.880   1.005  0.9270 -0.5355  1.4866
53812SOL    HW279429   6.069   9.773   1.027  0.9155 -0.3577  2.3124
53813SOL     OW79430   2.840   9.737   3.395 -0.1031  0.7852 -0.2365
53813SOL    HW179431   2.767   9.756   3.336  0.0586  1.3426 -0.2554
53813SOL    HW279432   2.903   9.807   3.380  0.2859  0.5030  0.0381
53814SOL     OW79433   1.245   3.182   2.469  0.0156 -0.4839  0.7137
53814SOL    HW179434   1.284   3.113   2.523  1.4808 -0.2638 -0.0176
53814SOL    HW279435   1.228   3.140   2.385 -0.4986 -0.3314  0.7362
53815SOL     OW79436   5.577   9.961  10.219 -0.3152  0.2565  0.4274
53815SOL    HW179437   5.542   9.892  10.276 -0.3878 -0.6968 -0.7316
53815SOL    HW279438   5.672   9.957  10.232 -0.4490  1.9352  2.5475
53816SOL     OW79439   3.210   1.253   7.422 -0.4590  0.1263  0.2987
53816SOL    HW179440   3.280   1.245   7.358 -2.4506 -0.1250 -2.0129
53816SOL    HW279441   3.171   1.165   7.427 -0.8901  0.3496  1.1970
53817SOL     OW79442   6.961  10.286   9.542 -0.2755  0.3631 -0.1424
53817SOL    HW179443   6.935  10.341   9.469  0.8848 -0.8097 -1.4813
53817SOL    HW279444   7.036  10.236   9.510  0.8508  0.4649  2.1515
53818SOL     OW79445   3.759   5.188  12.612 -0.5609 -0.0199  0.9821
53818SOL    HW179446   3.838   5.133  12.615 -0.5321 -0.2421 -1.7657
53818SOL    HW279447   3.789   5.273  12.644  0.1862 -0.7086  2.2011
53819SOL     OW79448   9.131   9.777   2.585 -0.0508  0.2127 -0.3137
53819SOL    HW179449   9.073   9.707   2.614 -0.7760 -0.3152 -2.8271
53819SOL    HW279450   9.209   9.732   2.554  0.4072  0.6991  0.1079
53820SOL     OW79451   8.868   9.246   5.616 -0.1581  0.0404 -0.3932
53820SOL    HW179452   8.823   9.314   5.666 -0.7466 -0.3256 -0.4248
53820SOL    HW279453   8.890   9.289   5.533  1.7938  0.9959  0.5314
53821SOL     OW79454  13.489  11.110   0.610 -0.3517  0.1786 -0.1729
53821SOL    HW179455  13.494  11.152   0.696  2.3637  0.3145 -0.3303
53821SOL    HW279456  13.471  11.182   0.550  2.0623  0.8688 -0.1717
53822SOL     OW79457   5.752   7.518   3.599  0.7012  0.0239  0.5555
53822SOL    HW179458   5.726   7.426   3.613  0.3349  0.0696  0.2109
53822SOL    HW279459   5.670   7.563   3.580  0.8428  0.4912  1.0629
53823SOL     OW79460   2.855  10.609   7.335 -0.1689 -0.1587 -0.4872
53823SOL    HW179461   2.813  10.660   7.404 -0.7900 -1.2562 -0.0367
53823SOL    HW279462   2.927  10.563   7.380 -0.2159 -0.4277 -0.6874
53824SOL     OW79463   8.820  10.635   2.463 -0.0789  0.1470  0.2266
53824SOL    HW179464   8.912  10.611   2.451 -0.2546 -0.5961  0.3438
53824SOL    HW279465   8.775  10.598   2.387 -0.2146  0.9320 -0.0891
53825SOL     OW79466  10.622   3.892   5.232  0.4028 -0.5674 -0.1730
53825SOL    HW179467  10.685   3.957   5.263 -0.1691  0.8168 -1.7453
53825SOL    HW279468  10.625   3.899   5.136 -2.3970 -0.1386 -0.3195
53826SOL     OW79469  11.323   3.487   3.497 -0.0031  0.2872 -0.2704
53826SOL    HW179470  11.254   3.427   3.526  1.2806 -0.9563  0.3169
53826SOL    HW279471  11.381   3.495   3.572  0.4229  1.4355 -0.7082
53827SOL     OW79472   1.690  11.218  10.364 -0.2774  0.0790 -0.2512
53827SOL    HW179473   1.638  11.145  10.330 -0.9874  0.6091 -0.3159
53827SOL    HW279474   1.777  11.180  10.379 -0.9145 -1.0613  0.7372
53828SOL     OW79475   3.203   2.913   8.114  0.0298  0.2261 -0.1966
53828SOL    HW179476   3.118   2.896   8.155 -0.7950  1.9168 -1.1035
53828SOL    HW279477   3.259   2.942   8.187 -0.1593 -0.8345  0.3954
53829SOL     OW79478   3.274  13.424   0.829 -0.2721  0.5210  0.0111
53829SOL    HW179479   3.219  13.499   0.852 -1.2154 -0.6833  1.9825
53829SOL    HW279480   3.223  13.376   0.763 -0.6859  0.4421  0.3884
53830SOL     OW79481   2.029   6.651   3.179  0.0700 -0.2311 -0.0064
53830SOL    HW179482   2.111   6.603   3.162  0.4518  0.1793  0.6135
53830SOL    HW279483   2.052   6.714   3.248 -0.7273  0.0124  0.0503
53831SOL     OW79484   6.960   1.030   2.633 -0.0409 -0.0693  0.7018
53831SOL    HW179485   6.974   1.081   2.713 -0.5505 -0.8675  1.3140
53831SOL    HW279486   6.868   1.003   2.638  0.8324 -3.2713  1.7505
53832SOL     OW79487   3.246  13.222   5.862  0.0153  0.3057  0.3014
53832SOL    HW179488   3.216  13.153   5.921 -0.6557  0.6935  0.4266
53832SOL    HW279489   3.288  13.286   5.919 -1.3603  1.0867  0.5108
53833SOL     OW79490   7.154   2.433   8.040 -0.2498 -0.7789 -0.6236
53833SOL    HW179491   7.228   2.492   8.056 -0.6620 -0.3834 -0.1192
53833SOL    HW279492   7.187   2.369   7.977  0.5043 -0.5772 -0.4443
53834SOL     OW79493   7.411   5.046   9.323 -0.1192 -0.4689  0.0569
53834SOL    HW179494   7.448   5.001   9.398  1.9729 -0.4793 -0.9134
53834SOL    HW279495   7.374   4.977   9.268 -2.7987 -0.3713  1.5591
53835SOL     OW79496   1.227   2.787   7.749 -0.0956 -0.7027 -0.0440
53835SOL    HW179497   1.311   2.773   7.793 -0.5543  1.0377  1.5383
53835SOL    HW279498   1.228   2.880   7.726 -1.5274 -0.6915 -0.1562
53836SOL     OW79499   1.866  10.820   5.562 -0.4229  0.3258 -0.0472
53836SOL    HW179500   1.893  10.747   5.618  1.9887  0.4632 -0.9323
53836SOL    HW279501   1.844  10.890   5.623  0.2719 -0.1458  0.7571
53837SOL     OW79502   5.032   7.159  12.475 -0.2348  0.2667  0.4648
53837SOL    HW179503   4.985   7.100  12.416  2.0827 -0.4550 -0.7820
53837SOL    HW279504   4.995   7.245  12.458 -2.7849 -0.5512  1.3678
53838SOL     OW79505   5.536   9.792   4.829  0.1527  0.0968  0.4451
53838SOL    HW179506   5.456   9.836   4.859  0.1509 -0.3224  1.0748
53838SOL    HW279507   5.605   9.831   4.882  0.3693  0.4394 -0.0817
53839SOL     OW79508   5.276   9.117   8.607 -0.0969 -0.4225  0.6457
53839SOL    HW179509   5.290   9.116   8.702  0.1818 -2.6059  0.6320
53839SOL    HW279510   5.338   9.053   8.573 -0.7512 -0.2672 -0.9319
53840SOL     OW79511   9.428   8.680   5.215 -0.0705  0.0356 -0.4499
53840SOL    HW179512   9.479   8.737   5.273 -1.7776  1.0581  0.1247
53840SOL    HW279513   9.424   8.597   5.262 -1.2204  0.7745  0.8327
53841SOL     OW79514   0.684  13.080  12.063 -0.1804 -0.0750 -0.0924
53841SOL    HW179515   0.731  13.152  12.105 -0.7776  0.5093 -0.4077
53841SOL    HW279516   0.715  13.082  11.972 -1.4704  0.9144 -0.5426
53842SOL     OW79517   7.301   0.382   0.891  0.0975  0.0865 -0.3804
53842SOL    HW179518   7.237   0.453   0.892 -2.1157 -1.7819 -1.7609
53842SOL    HW279519   7.250   0.302   0.898  2.3727 -1.4793 -0.4233
53843SOL     OW79520   2.108   0.926  13.420  0.0923  0.6641 -0.2294
53843SOL    HW179521   2.056   0.881  13.487  1.2972  1.7107  1.4923
53843SOL    HW279522   2.173   0.861  13.393 -1.7442 -0.5343 -2.1415
53844SOL     OW79523   9.597  10.508   4.484  0.3746 -0.4718 -0.0182
53844SOL    HW179524   9.524  10.490   4.425  0.7427 -0.9219 -0.3453
53844SOL    HW279525   9.635  10.590   4.450 -0.0709 -0.1533  0.2481
53845SOL     OW79526   5.592   0.454  10.773  0.0051  0.2212 -0.1359
53845SOL    HW179527   5.567   0.522  10.835 -0.3757 -0.2767  0.2640
53845SOL    HW279528   5.687   0.460  10.769 -0.0329  0.8834 -0.2336
53846SOL     OW79529  11.271  12.014   4.425 -0.4450 -0.4001  0.1504
53846SOL    HW179530  11.223  11.931   4.436 -1.6792  0.0249 -1.6053
53846SOL    HW279531  11.239  12.049   4.342  0.0926  1.8388  0.8291
53847SOL     OW79532  11.914   0.756   3.225 -0.1761  0.0163 -0.4987
53847SOL    HW179533  11.839   0.750   3.165  0.0723 -0.2096 -0.7890
53847SOL    HW279534  11.989   0.730   3.172  0.3789  1.9129 -0.7165
53848SOL     OW79535   9.167   6.808   1.240  0.5185  0.1684 -0.7075
53848SOL    HW179536   9.233   6.772   1.180 -0.8807  1.5871 -3.3109
53848SOL    HW279537   9.093   6.748   1.232  0.4646  0.1358 -0.0137
53849SOL     OW79538  11.592   6.460   9.396 -0.6661 -0.2039 -0.0089
53849SOL    HW179539  11.497   6.470   9.404 -0.4776  2.4392 -0.3549
53849SOL    HW279540  11.620   6.437   9.485 -1.5909 -0.9556  0.1151
53850SOL     OW79541  13.362  10.638  12.998 -0.0853  0.2801  0.1723
53850SOL    HW179542  13.402  10.562  13.040 -1.1486 -0.2110  0.3248
53850SOL    HW279543  13.324  10.688  13.071 -0.0637  0.5554 -0.0036
53851SOL     OW79544   7.155   1.292   3.992 -0.6205 -0.6571 -0.0858
53851SOL    HW179545   7.113   1.371   3.958 -1.1910  0.1635  2.3082
53851SOL    HW279546   7.083   1.234   4.015 -0.5242  0.1922  2.7385
53852SOL     OW79547  11.692   6.205   0.221 -0.2082 -0.4859  0.4123
53852SOL    HW179548  11.619   6.146   0.203  0.9261 -1.9523  0.3840
53852SOL    HW279549  11.732   6.220   0.136 -2.2507  2.8792 -0.0937
53853SOL     OW79550   2.417   3.477  13.596 -0.1740  0.0419 -0.5779
53853SOL    HW179551   2.419   3.570  13.572 -1.2430  0.0073 -0.8690
53853SOL    HW279552   2.326   3.452  13.584  0.5021 -1.6933 -2.9814
53854SOL     OW79553   9.635   4.077  13.521 -0.6087 -0.4274 -0.2883
53854SOL    HW179554   9.637   4.171  13.539 -1.9569 -0.6261  1.1505
53854SOL    HW279555   9.712   4.043  13.568 -0.9736 -0.2124  0.4928
53855SOL     OW79556   6.349  13.960   0.001  0.3318 -0.7611 -0.2795
53855SOL    HW179557   6.366  13.930  -0.088  1.0380  0.6084 -0.6351
53855SOL    HW279558   6.270  14.013  -0.007  0.7350 -0.1387 -0.2211
53856SOL     OW79559  10.559   7.991   4.779 -0.2416  0.5931 -0.3899
53856SOL    HW179560  10.649   8.021   4.788  0.8867 -1.8924 -2.0450
53856SOL    HW279561  10.513   8.065   4.739  1.0999  1.8203  0.2315
53857SOL     OW79562   1.788   5.262   0.813 -0.4186  0.2448  0.2144
53857SOL    HW179563   1.795   5.356   0.797 -0.6529  0.1296 -0.6432
53857SOL    HW279564   1.822   5.221   0.733 -2.4257 -0.3625 -0.4022
53858SOL     OW79565   3.399  12.947   6.275 -0.1787  0.5142 -0.6948
53858SOL    HW179566   3.386  12.853   6.262  2.1790  0.0351 -0.0973
53858SOL    HW279567   3.322  12.987   6.235 -1.7970 -1.6984 -0.0239
53859SOL     OW79568   2.340   0.304   8.074 -0.2738 -0.4565  0.2184
53859SOL    HW179569   2.409   0.275   8.014  0.0468  0.4146  0.1500
53859SOL    HW279570   2.304   0.223   8.109  0.3347 -0.9476 -0.2514
53860SOL     OW79571   6.860   8.695   3.427 -0.6214  0.1305  0.3522
53860SOL    HW179572   6.867   8.691   3.332 -2.4434 -0.6644  0.2091
53860SOL    HW279573   6.903   8.777   3.451 -0.0746  0.3114 -1.1386
53861SOL     OW79574   3.058   3.544  10.286  0.7669 -0.4519 -0.1266
53861SOL    HW179575   3.089   3.559  10.375  1.5976 -2.1389 -0.0856
53861SOL    HW279576   3.071   3.627  10.241 -1.2373  0.9454  1.7284
53862SOL     OW79577   2.712   7.705  11.119 -0.4666 -0.0775  0.3165
53862SOL    HW179578   2.670   7.684  11.202  3.1915 -1.0617  2.1688
53862SOL    HW279579   2.663   7.655  11.053 -2.9612  0.0462  1.9548
53863SOL     OW79580   6.067   7.079   7.315  0.2465 -0.9303  0.4575
53863SOL    HW179581   6.048   7.161   7.360  0.5823 -1.5813  1.8376
53863SOL    HW279582   6.101   7.021   7.383  0.2845 -2.1307 -0.5383
53864SOL     OW79583   0.338   3.139   8.001  0.4215  0.1230 -0.3558
53864SOL    HW179584   0.324   3.107   8.090  0.4355 -0.6033 -0.6108
53864SOL    HW279585   0.406   3.205   8.009 -0.9445  1.4942  0.4626
53865SOL     OW79586   2.185   8.033   1.536  0.5271  0.3731 -0.2744
53865SOL    HW179587   2.184   8.107   1.596 -1.9326 -0.8051  1.2983
53865SOL    HW279588   2.195   7.956   1.593  2.6674 -0.6080 -1.8117
53866SOL     OW79589   5.036   5.324   1.149 -0.6024 -0.5136 -0.2154
53866SOL    HW179590   5.094   5.395   1.176 -0.9315  0.1018 -1.0709
53866SOL    HW279591   5.091   5.246   1.149  0.2438  0.0596 -1.0403
53867SOL     OW79592   9.649  12.027   6.733 -0.5041 -0.1990 -0.1738
53867SOL    HW179593   9.642  11.933   6.747  0.6838 -0.3896 -0.7520
53867SOL    HW279594   9.669  12.036   6.640 -1.4960  0.6868 -0.3348
53868SOL     OW79595   8.965  10.331  10.427 -0.2912 -0.0470  0.2597
53868SOL    HW179596   8.876  10.347  10.457 -0.2522 -0.2435  0.4940
53868SOL    HW279597   9.012  10.412  10.445  0.0803 -0.5997  2.0673
53869SOL     OW79598  12.493  14.149   8.256  0.4636 -0.1945  0.3512
53869SOL    HW179599  12.455  14.093   8.188 -0.5488  0.3903  0.4177
53869SOL    HW279600  12.565  14.097   8.292 -0.2911 -1.3536  0.2530
53870SOL     OW79601   8.876  13.356   2.189 -0.8166  0.1620  0.1885
53870SOL    HW179602   8.962  13.391   2.209 -0.4506  0.7017 -2.0111
53870SOL    HW279603   8.884  13.262   2.202  0.0077  0.2371  0.2799
53871SOL     OW79604   0.288  10.141   1.546 -0.5257  0.3307  0.5924
53871SOL    HW179605   0.204  10.163   1.506  0.9620  1.3708 -2.2569
53871SOL    HW279606   0.284  10.047   1.560 -1.4079 -0.0090 -1.5846
53872SOL     OW79607   0.178   0.515   4.261  0.6890 -0.8967  0.0963
53872SOL    HW179608   0.174   0.480   4.350  1.9894 -0.7958  0.2139
53872SOL    HW279609   0.245   0.584   4.265 -2.2686  2.2119  0.0518
53873SOL     OW79610   1.012   5.970  12.772 -0.5671  0.1881 -0.2302
53873SOL    HW179611   1.006   6.058  12.735  1.7016  0.5523  0.1073
53873SOL    HW279612   0.997   5.912  12.698 -0.3721  0.8704 -0.8239
53874SOL     OW79613   9.310   8.660  11.746  0.1454 -0.1706  0.3147
53874SOL    HW179614   9.290   8.569  11.770  1.0820 -1.0514 -1.9427
53874SOL    HW279615   9.400   8.673  11.776  0.0216  0.0106  0.6115
53875SOL     OW79616   8.633  10.439   0.523 -0.5230  0.2717 -0.3285
53875SOL    HW179617   8.593  10.355   0.501 -0.8042  0.7116 -1.6094
53875SOL    HW279618   8.618  10.450   0.617  0.1655 -1.4355  0.0108
53876SOL     OW79619   2.623  10.435  11.662 -0.2071  0.1046 -0.2459
53876SOL    HW179620   2.611  10.453  11.756  1.5626  2.1718 -0.3308
53876SOL    HW279621   2.713  10.403  11.655 -0.4745 -0.4769 -1.2104
53877SOL     OW79622  10.857   5.120   7.155  0.1366  0.0385  0.2556
53877SOL    HW179623  10.828   5.173   7.230 -0.7167 -0.4760  0.3034
53877SOL    HW279624  10.779   5.071   7.129  1.3715 -2.8365  1.5290
53878SOL     OW79625   4.755   3.648   0.302  0.7064 -0.1310 -0.2665
53878SOL    HW179626   4.696   3.687   0.367  1.6706  0.0413  0.5325
53878SOL    HW279627   4.825   3.609   0.354  1.4508 -0.0865 -1.2073
53879SOL     OW79628   9.152   9.147   3.324 -0.7010  0.0373 -0.3565
53879SOL    HW179629   9.126   9.225   3.373 -1.0963 -0.1323 -0.2959
53879SOL    HW279630   9.243   9.164   3.299 -0.5084  0.1465  0.3961
53880SOL     OW79631  13.477   3.820   9.335 -0.2530 -0.0960 -0.5159
53880SOL    HW179632  13.479   3.727   9.359  0.5058  0.1052  0.2631
53880SOL    HW279633  13.444   3.864   9.413  1.1808  0.4631 -0.1907
53881SOL     OW79634   7.586   9.166   2.935 -0.3597 -0.1493  0.0396
53881SOL    HW179635   7.503   9.203   2.906 -0.4549 -0.9037 -0.6955
53881SOL    HW279636   7.580   9.073   2.912  0.2947 -0.4146  0.8767
53882SOL     OW79637   7.448   3.850  10.140 -0.8304 -0.2008 -0.1365
53882SOL    HW179638   7.531   3.809  10.161 -0.1081  0.6754 -1.1536
53882SOL    HW279639   7.388   3.777  10.126  0.3090 -0.9365 -1.4555
53883SOL     OW79640   3.749   6.391   7.278  0.1720 -0.0185  0.0506
53883SOL    HW179641   3.753   6.334   7.355 -0.5892  0.7863  0.7046
53883SOL    HW279642   3.822   6.453   7.291  0.3545 -0.1947 -0.1324
53884SOL     OW79643   8.423   5.438   8.906  0.6728 -0.3425  0.1080
53884SOL    HW179644   8.491   5.503   8.886 -0.3271  0.5122 -0.6043
53884SOL    HW279645   8.346   5.490   8.928 -0.9429 -1.1619 -3.0506
53885SOL     OW79646  11.873   8.997   9.776 -0.2471  0.1890 -0.0148
53885SOL    HW179647  11.859   9.057   9.849 -0.1182 -2.1811  2.0878
53885SOL    HW279648  11.826   8.918   9.800  0.6117 -1.0410 -2.0762
53886SOL     OW79649   3.317   8.520   7.764 -0.0810  0.2218 -0.5916
53886SOL    HW179650   3.350   8.593   7.816  0.7607  0.2361 -1.1281
53886SOL    HW279651   3.317   8.445   7.824 -1.7934  0.8315  0.2171
53887SOL     OW79652   9.755   3.950   7.609  0.3038  0.4336  0.2628
53887SOL    HW179653   9.791   3.862   7.616 -1.5038 -0.4793 -0.9201
53887SOL    HW279654   9.750   3.982   7.699  2.1102 -0.1583  0.6099
53888SOL     OW79655  11.557   5.032   4.134  0.2417  0.3414 -0.0656
53888SOL    HW179656  11.535   4.968   4.067 -0.6936 -1.3429  1.7711
53888SOL    HW279657  11.650   5.017   4.151 -0.4563 -2.3641  2.0584
53889SOL     OW79658   1.783   6.924   0.488  0.3535  0.0407 -0.3106
53889SOL    HW179659   1.791   6.977   0.409  0.9113  1.1999  0.4934
53889SOL    HW279660   1.870   6.930   0.529  0.7024 -2.1880 -0.6040
53890SOL     OW79661   4.867   5.059   3.263 -0.7031  0.3624  0.2259
53890SOL    HW179662   4.875   5.004   3.340  0.0767  1.2445  0.7988
53890SOL    HW279663   4.800   5.124   3.286  0.1792  1.1918  0.5430
53891SOL     OW79664   5.401   0.140  13.530  0.2298 -0.1790  0.4580
53891SOL    HW179665   5.454   0.087  13.470  1.1090  1.5400 -0.3732
53891SOL    HW279666   5.321   0.159  13.481  0.6447  0.6378  0.0779
53892SOL     OW79667  14.033   5.131   8.489  0.1681 -0.4694 -0.1666
53892SOL    HW179668  13.978   5.055   8.472  0.1488 -0.9123  1.6478
53892SOL    HW279669  13.979   5.206   8.467 -0.2627 -0.9556 -0.7791
53893SOL     OW79670  12.978   3.468  13.149 -0.3035  0.4332  0.0393
53893SOL    HW179671  13.016   3.384  13.173 -1.1468  0.4295  1.4796
53893SOL    HW279672  12.955   3.459  13.056 -1.9508 -1.5512  0.5689
53894SOL     OW79673  12.934  11.004   0.393  0.6855  0.3976 -0.0093
53894SOL    HW179674  12.958  11.049   0.474 -1.2306  1.4062  0.0614
53894SOL    HW279675  13.008  11.019   0.334  1.1761  1.4964  0.8535
53895SOL     OW79676   0.520   0.487   6.218  0.1830 -0.3330  0.7708
53895SOL    HW179677   0.559   0.565   6.179  0.2365  0.6610  2.6737
53895SOL    HW279678   0.434   0.479   6.176  0.2072  0.7071  0.5028
53896SOL     OW79679  13.769   6.935   5.249  0.1390 -1.0698 -0.1066
53896SOL    HW179680  13.833   7.006   5.240  0.0432 -0.9434  0.1822
53896SOL    HW279681  13.821   6.855   5.237  0.3304 -0.9651  0.0123
53897SOL     OW79682   7.636   9.283   2.439  0.2182 -0.3951 -0.2077
53897SOL    HW179683   7.657   9.294   2.531 -1.1235  0.8384 -0.0210
53897SOL    HW279684   7.683   9.354   2.395  0.4344 -0.6663 -0.4248
53898SOL     OW79685  10.751   2.551   1.593 -0.5026  0.2646  0.3578
53898SOL    HW179686  10.750   2.642   1.623 -1.2504  0.8217 -1.2850
53898SOL    HW279687  10.842   2.524   1.604  0.0614  1.6887 -0.4951
53899SOL     OW79688   7.787   3.842  10.467  0.1679 -0.3345 -0.2367
53899SOL    HW179689   7.722   3.778  10.497  0.7133 -1.3237 -1.1209
53899SOL    HW279690   7.786   3.836  10.372 -0.2486  1.4851 -0.3884
53900SOL     OW79691   1.723   6.936   8.700  0.1101  0.1002  0.2141
53900SOL    HW179692   1.738   6.952   8.793 -2.0652  1.4320  0.4075
53900SOL    HW279693   1.740   6.842   8.689  1.1998  0.0816  1.7603
53901SOL     OW79694  10.146   9.654   7.679  0.1592  0.0946 -0.5639
53901SOL    HW179695  10.090   9.651   7.602  0.4572  1.2357 -0.8559
53901SOL    HW279696  10.180   9.744   7.680  1.6454 -0.4427 -0.1737
53902SOL     OW79697  13.146  13.711   8.970 -0.0141 -0.7720  0.8019
53902SOL    HW179698  13.213  13.732   8.904 -0.8703 -0.1427  0.1145
53902SOL    HW279699  13.124  13.795   9.009  0.7810 -1.1832  2.2279
53903SOL     OW79700  13.905   1.156   7.967 -0.8343 -0.5697  0.1195
53903SOL    HW179701  13.994   1.146   8.001 -0.3576 -0.7858 -1.1267
53903SOL    HW279702  13.849   1.151   8.044  0.3685  2.1013  1.2848
53904SOL     OW79703  13.824  10.568   8.576  0.4593  0.1823  0.2199
53904SOL    HW179704  13.736  10.597   8.601 -0.1921 -0.3180 -1.3678
53904SOL    HW279705  13.812  10.478   8.546  1.6019 -0.0524  0.4250
53905SOL     OW79706   8.730   6.943  10.149 -0.4961  0.1010 -0.3509
53905SOL    HW179707   8.639   6.974  10.147 -0.3112  0.9674  1.8565
53905SOL    HW279708   8.731   6.866  10.091 -2.6915 -0.1038 -0.1839
53906SOL     OW79709  10.800   7.269   0.604  0.6372  0.6165 -0.2774
53906SOL    HW179710  10.863   7.340   0.607 -1.4479  2.6499 -1.2570
53906SOL    HW279711  10.781   7.257   0.511  0.0403 -0.3962 -0.0524
53907SOL     OW79712   3.839   7.862   2.610 -0.0572 -0.1512 -0.4027
53907SOL    HW179713   3.916   7.904   2.647 -0.4465  0.3580 -0.1574
53907SOL    HW279714   3.869   7.824   2.527  0.6082 -0.5297  0.0038
53908SOL     OW79715   5.513   7.415   7.741 -0.5274 -0.3147 -0.4559
53908SOL    HW179716   5.456   7.398   7.666 -2.3399 -0.9911  1.0004
53908SOL    HW279717   5.483   7.499   7.775  0.3117  0.0078 -0.4832
53909SOL     OW79718   3.437   0.781  11.238 -0.1022  0.8566 -0.0039
53909SOL    HW179719   3.499   0.852  11.253 -0.3886  1.0964  0.0476
53909SOL    HW279720   3.373   0.790  11.308 -0.7358  1.2041 -0.6186
53910SOL     OW79721   1.490   3.685   2.935  0.3824  0.1727  0.0713
53910SOL    HW179722   1.487   3.723   2.847 -0.7645 -0.8511 -0.3719
53910SOL    HW279723   1.420   3.729   2.983 -1.5398 -1.7937 -0.6968
53911SOL     OW79724   9.232  12.891  12.410 -0.9839 -0.2861  0.6045
53911SOL    HW179725   9.197  12.815  12.456 -2.3113  0.0926  0.2865
53911SOL    HW279726   9.246  12.860  12.320 -1.3802 -0.2092  0.5123
53912SOL     OW79727   7.061  10.222   3.509 -0.0629 -0.0333  0.0700
53912SOL    HW179728   7.023  10.281   3.574  0.6021 -0.7158  1.1092
53912SOL    HW279729   7.042  10.263   3.425 -0.6580  1.0384  0.7093
53913SOL     OW79730  13.071   8.306   9.081 -0.4956  0.4019 -0.1001
53913SOL    HW179731  13.016   8.271   9.011 -0.4372  0.5751 -0.2319
53913SOL    HW279732  13.160   8.283   9.054 -0.4635  0.5789 -0.1444
53914SOL     OW79733   7.050   8.213   1.634 -0.6833 -0.1679  0.5640
53914SOL    HW179734   7.038   8.216   1.729 -0.5703 -0.5739  0.5947
53914SOL    HW279735   7.135   8.254   1.619 -1.7691  2.1746  0.3997
53915SOL     OW79736   3.644   5.722  12.385  0.2972 -0.3378  0.4575
53915SOL    HW179737   3.711   5.657  12.362  1.2142 -0.6172  3.4384
53915SOL    HW279738   3.655   5.792  12.322  2.5270 -0.9885  0.0547
53916SOL     OW79739  13.478   9.240   0.533 -0.7785 -1.1044 -0.4998
53916SOL    HW179740  13.534   9.219   0.458 -0.2629 -1.4531 -0.0218
53916SOL    HW279741  13.451   9.330   0.517  0.1828 -0.8155 -0.5789
53917SOL     OW79742   9.021   0.240  11.273  0.1843  0.3583 -0.1787
53917SOL    HW179743   9.089   0.184  11.310 -0.3494 -1.6508 -1.9793
53917SOL    HW279744   8.964   0.262  11.347  1.5896  0.2633  0.9586
53918SOL     OW79745  14.115   1.461   1.293  0.0235 -0.5353  0.1682
53918SOL    HW179746  14.026   1.478   1.260 -0.0353  0.4182  0.7719
53918SOL    HW279747  14.102   1.419   1.377  0.1311 -0.0522  0.4307
53919SOL     OW79748   6.902   5.178   0.859 -0.0800  0.4311 -0.6267
53919SOL    HW179749   6.823   5.124   0.851 -0.5532  1.3808 -2.8833
53919SOL    HW279750   6.943   5.147   0.940 -1.0031 -2.4022 -1.1232
53920SOL     OW79751  10.183  13.256  11.813  0.5054 -0.2390  0.4116
53920SOL    HW179752  10.110  13.254  11.751  0.0475 -1.2763  0.9522
53920SOL    HW279753  10.193  13.348  11.835 -0.9156 -0.1092  0.6317
53921SOL     OW79754   4.925   1.643   7.269 -0.3838  0.1291  0.3061
53921SOL    HW179755   5.011   1.679   7.291 -0.2939 -1.5921  3.3506
53921SOL    HW279756   4.940   1.549   7.261 -1.9637 -0.1936  0.7971
53922SOL     OW79757  11.782  10.290   9.116  0.3470 -0.0871 -0.1071
53922SOL    HW179758  11.776  10.196   9.133 -0.1138 -0.4070 -1.8851
53922SOL    HW279759  11.735  10.331   9.189 -0.7228 -1.2954 -0.0972
53923SOL     OW79760  11.263  10.946   1.808  0.0353  0.4142 -0.2066
53923SOL    HW179761  11.330  10.879   1.820 -0.4696 -0.1029 -0.2685
53923SOL    HW279762  11.183  10.898   1.787 -0.0827  1.0818 -1.3572
53924SOL     OW79763   3.789   3.641   9.008  0.2426  0.4937 -0.3677
53924SOL    HW179764   3.806   3.691   9.088 -0.4029  0.6255 -0.3129
53924SOL    HW279765   3.866   3.584   8.999  0.7419  1.1268 -0.1547
53925SOL     OW79766  13.077   6.062  13.215  0.5251 -0.4473  0.1755
53925SOL    HW179767  13.014   6.057  13.143  0.7253  0.4605 -0.0792
53925SOL    HW279768  13.159   6.086  13.172  0.2025  2.2826  0.8747
53926SOL     OW79769   9.335   6.964  12.135  0.7454 -0.6664 -0.2916
53926SOL    HW179770   9.273   6.950  12.063  2.0631 -1.0900 -1.3863
53926SOL    HW279771   9.355   7.057  12.133  0.0357 -0.4892  0.1928
53927SOL     OW79772  14.023   5.066   8.016  0.4131  0.1009 -0.4020
53927SOL    HW179773  13.968   4.994   8.047  1.4379 -0.5877 -0.1458
53927SOL    HW279774  14.102   5.061   8.069  0.9205  0.7968 -1.0669
53928SOL     OW79775   3.506  10.171   1.003  0.0096 -1.1876 -0.4410
53928SOL    HW179776   3.434  10.233   0.990  0.2543 -0.6509  0.6750
53928SOL    HW279777   3.519  10.169   1.098  1.1020 -1.7137 -0.5901
53929SOL     OW79778   8.272   0.571  12.635  0.0623 -0.4751 -0.4232
53929SOL    HW179779   8.284   0.656  12.678  2.3095  0.1460 -2.0621
53929SOL    HW279780   8.284   0.507  12.705  1.0965  0.5409  0.3728
53930SOL     OW79781  12.401   8.397   8.519 -0.3898  0.8070 -0.5037
53930SOL    HW179782  12.410   8.396   8.614 -0.5693  1.1779 -0.4823
53930SOL    HW279783  12.323   8.450   8.503 -0.5916  0.4131 -0.8378
53931SOL     OW79784   7.213  13.779   9.821  0.7258  0.5472  0.1455
53931SOL    HW179785   7.308  13.785   9.810  0.5684  0.9904 -1.1202
53931SOL    HW279786   7.190  13.858   9.870  1.3392 -1.0570  3.3104
53932SOL     OW79787   8.232  12.909  10.797  0.2761 -0.5124  0.0696
53932SOL    HW179788   8.136  12.909  10.799  0.2437 -1.7701 -0.3646
53932SOL    HW279789   8.258  12.979  10.857 -0.9163  0.4693 -0.5187
53933SOL     OW79790   2.317   1.298   6.671 -0.3189 -0.7074 -0.2265
53933SOL    HW179791   2.292   1.231   6.735  0.1451 -2.7336 -2.0611
53933SOL    HW279792   2.377   1.355   6.719 -1.5949 -0.8913  1.7169
53934SOL     OW79793  10.879   8.781  13.395 -0.0563 -0.4255 -0.2371
53934SOL    HW179794  10.846   8.717  13.458 -1.0597  0.0536 -0.2541
53934SOL    HW279795  10.949   8.827  13.442 -0.2726 -0.5989  0.2620
53935SOL     OW79796   7.176   8.560   9.581  0.0219  0.1015 -0.2757
53935SOL    HW179797   7.194   8.533   9.671  0.9630 -0.3260 -0.5841
53935SOL    HW279798   7.126   8.642   9.590 -1.3774 -0.8204  0.6440
53936SOL     OW79799  10.100   0.771  10.786  0.4163  0.3822 -0.4718
53936SOL    HW179800  10.127   0.838  10.849 -1.0916  1.0678 -0.5097
53936SOL    HW279801  10.035   0.719  10.833  1.5191 -1.0742 -0.4582
53937SOL     OW79802   9.182  11.737   0.413  0.3610 -0.3148  0.7430
53937SOL    HW179803   9.109  11.749   0.475 -0.5694  0.3892 -0.4411
53937SOL    HW279804   9.238  11.672   0.455 -1.1571 -1.1849  1.5326
53938SOL     OW79805   6.682  12.355   1.652  0.3386  0.3976  0.2868
53938SOL    HW179806   6.719  12.290   1.592 -2.1565 -0.1295 -0.8160
53938SOL    HW279807   6.700  12.321   1.739 -0.2036 -1.4036 -0.2586
53939SOL     OW79808  12.028   6.252   6.568  0.2746  0.0817 -0.3957
53939SOL    HW179809  11.978   6.252   6.650 -1.6019 -1.0448 -1.4681
53939SOL    HW279810  12.116   6.223   6.593 -0.1596  0.1246  1.2610
53940SOL     OW79811  10.551   7.344   1.998  0.2577 -0.0904 -0.4428
53940SOL    HW179812  10.626   7.402   2.014 -1.1525  2.1236 -1.4340
53940SOL    HW279813  10.491   7.363   2.070  0.9383 -2.5408  0.8862
53941SOL     OW79814   9.946   3.931   5.280  0.3498 -0.3447 -0.3713
53941SOL    HW179815   9.949   4.026   5.294 -1.5986 -0.2420 -0.3854
53941SOL    HW279816  10.012   3.915   5.212  0.4454  1.0450 -0.6471
53942SOL     OW79817   4.222  13.326  13.125  0.0417  0.6888  0.5148
53942SOL    HW179818   4.285  13.386  13.165  0.7991  0.9173 -0.9354
53942SOL    HW279819   4.265  13.295  13.045 -1.0574 -0.3998  0.3009
53943SOL     OW79820   1.456  11.390   9.807 -0.6618 -0.9372  0.4855
53943SOL    HW179821   1.484  11.409   9.718  0.8913 -2.2469  0.6405
53943SOL    HW279822   1.481  11.467   9.858  0.8598 -1.2155  0.2203
53944SOL     OW79823   8.673  12.889  11.254  0.6260  0.1734 -0.1927
53944SOL    HW179824   8.669  12.849  11.168  0.5426 -2.9815  1.1469
53944SOL    HW279825   8.763  12.878  11.283  0.4769  0.5115  0.4344
53945SOL     OW79826   6.805   9.957  10.297 -0.1272  0.5627  0.1556
53945SOL    HW179827   6.856   9.948  10.217  0.1323  3.2772 -0.0734
53945SOL    HW279828   6.729  10.010  10.272  0.2227  1.9118  1.7760
53946SOL     OW79829   3.607  10.958  12.735  0.2076  0.3580 -0.4010
53946SOL    HW179830   3.654  10.948  12.817  0.1744 -0.1244 -0.4352
53946SOL    HW279831   3.515  10.958  12.760  0.2110  0.9192 -0.3730
53947SOL     OW79832   3.015   8.169   6.074  0.0140 -0.3298  0.0491
53947SOL    HW179833   2.940   8.116   6.048 -0.2291 -0.3289  0.7340
53947SOL    HW279834   2.978   8.250   6.108  0.3769  0.1728 -0.7409
53948SOL     OW79835  10.546   2.932   8.430  0.6352 -0.1472 -0.0669
53948SOL    HW179836  10.511   2.871   8.495  0.2170 -1.0166 -1.0910
53948SOL    HW279837  10.482   3.003   8.427 -0.1760 -0.8746 -0.6481
53949SOL     OW79838   5.214   6.664   1.790 -0.0202 -0.5478  0.2737
53949SOL    HW179839   5.147   6.710   1.840  0.6408  1.0850 -0.2672
53949SOL    HW279840   5.168   6.630   1.713 -0.6142 -1.2280  0.9188
53950SOL     OW79841   9.642   2.761   9.504 -0.5558 -0.1269  0.0279
53950SOL    HW179842   9.677   2.709   9.575 -1.5567  0.3344  0.8874
53950SOL    HW279843   9.666   2.851   9.525 -0.3007 -0.0556 -0.5523
53951SOL     OW79844   4.226   5.740   7.795  0.4775  0.8341 -0.3624
53951SOL    HW179845   4.245   5.651   7.765 -0.1691  0.1743  1.0974
53951SOL    HW279846   4.298   5.760   7.856  0.8956  1.5251 -1.0626
53952SOL     OW79847   4.893  12.885   4.611 -0.4896 -0.2594  0.1558
53952SOL    HW179848   4.986  12.908   4.613 -0.5870  0.1874 -0.2959
53952SOL    HW279849   4.892  12.789   4.605 -0.0322 -0.1863 -1.5694
53953SOL     OW79850  10.484   3.890   7.942  0.8732 -0.0829 -0.2055
53953SOL    HW179851  10.514   3.803   7.967  0.3448  0.0968  1.1011
53953SOL    HW279852  10.535   3.949   7.997 -1.1329  0.2723  1.3714
53954SOL     OW79853   5.562  13.317   0.675  0.7667 -0.0507 -0.6127
53954SOL    HW179854   5.488  13.365   0.638 -0.4524 -1.2530  0.1687
53954SOL    HW279855   5.608  13.382   0.729 -0.7452  0.3268  0.2795
53955SOL     OW79856   6.809   3.504   0.778 -0.3562 -0.4551 -0.3304
53955SOL    HW179857   6.826   3.593   0.748  1.8459 -0.4342  0.7935
53955SOL    HW279858   6.867   3.449   0.724 -1.6263 -1.2312 -0.9519
53956SOL     OW79859   7.482   0.444  11.993 -0.4409  0.2666  0.1973
53956SOL    HW179860   7.455   0.394  11.916 -1.2821 -0.7649  1.1299
53956SOL    HW279861   7.578   0.439  11.992 -0.3833  1.0242 -1.2458
53957SOL     OW79862   9.493  11.021   5.341  0.0770  0.5741  0.3272
53957SOL    HW179863   9.451  10.951   5.392 -0.1268 -0.0237 -0.6363
53957SOL    HW279864   9.503  10.984   5.254  1.0815  1.3297  0.1095
53958SOL     OW79865   9.191  10.576   9.367 -0.0072  0.5478  0.3440
53958SOL    HW179866   9.219  10.643   9.429  1.8747 -1.0153  1.2929
53958SOL    HW279867   9.259  10.509   9.371 -0.7755 -0.4888 -2.0745
53959SOL     OW79868   3.328  12.079   7.187  0.1947  0.0086 -0.1333
53959SOL    HW179869   3.375  12.134   7.124 -1.1311 -0.0798 -1.2640
53959SOL    HW279870   3.297  12.005   7.135 -1.4780  0.2417  0.4675
53960SOL     OW79871   4.519   6.673   0.609  0.5642  0.1876 -0.1026
53960SOL    HW179872   4.546   6.717   0.689 -0.0051  0.2328  0.0686
53960SOL    HW279873   4.549   6.731   0.538 -0.5508  1.0707  0.1296
53961SOL     OW79874   9.476   3.855   2.450 -0.8834 -0.4997  0.0166
53961SOL    HW179875   9.527   3.810   2.519 -2.0012 -2.4765 -0.3698
53961SOL    HW279876   9.541   3.877   2.383 -0.1323 -0.6013  0.6926
53962SOL     OW79877   9.569  12.087   9.215  0.6272  0.2553  0.0362
53962SOL    HW179878   9.606  12.098   9.303 -0.0499 -1.4751  0.5594
53962SOL    HW279879   9.475  12.101   9.226  0.7441  2.1216 -0.8427
53963SOL     OW79880   3.731  11.764   7.154  0.1982 -0.4403  0.6153
53963SOL    HW179881   3.714  11.757   7.248 -0.5729  1.7886  0.7122
53963SOL    HW279882   3.648  11.794   7.117  1.1844  1.2229 -0.3710
53964SOL     OW79883  14.004  11.722   5.660  0.2940 -0.6318  0.1007
53964SOL    HW179884  13.992  11.799   5.716  1.9759 -0.0929 -0.2297
53964SOL    HW279885  13.916  11.686   5.650 -0.2229  0.0187  1.9898
53965SOL     OW79886   5.492   0.996   9.288 -0.1796 -0.5210  0.0405
53965SOL    HW179887   5.433   0.982   9.214  1.2723  1.8985 -1.6832
53965SOL    HW279888   5.572   0.950   9.265 -0.2595 -1.1113  0.8934
53966SOL     OW79889  11.076   7.649   6.652 -0.2454 -0.6531  0.0226
53966SOL    HW179890  11.045   7.633   6.563 -0.6895  0.3837 -0.0166
53966SOL    HW279891  11.127   7.570   6.674  1.2262 -0.2561 -1.7376
53967SOL     OW79892  13.899  10.193   7.294 -0.1153 -0.1189 -0.0323
53967SOL    HW179893  13.831  10.223   7.355 -1.8417 -0.0747 -1.8584
53967SOL    HW279894  13.903  10.262   7.228 -0.9580 -1.7738 -1.8997
53968SOL     OW79895   8.319   8.893  13.960  0.1078 -0.2641 -0.3792
53968SOL    HW179896   8.409   8.882  13.990 -0.1755 -0.2177  0.5212
53968SOL    HW279897   8.314   8.841  13.880  1.2747  0.7590 -1.1525
53969SOL     OW79898   2.569   2.567   4.161 -0.1684 -0.2612  0.2131
53969SOL    HW179899   2.582   2.495   4.222 -0.3003  0.7377  1.4688
53969SOL    HW279900   2.476   2.562   4.138  0.1079 -1.2852 -0.7917
53970SOL     OW79901   5.330   2.732  12.508 -0.0690 -0.8414 -0.0591
53970SOL    HW179902   5.372   2.795  12.567 -1.0339 -0.7907  0.5964
53970SOL    HW279903   5.328   2.650  12.557  0.6400 -1.2367 -0.6798
53971SOL     OW79904  10.829   5.893   8.367  0.4196  0.1769 -0.0166
53971SOL    HW179905  10.756   5.830   8.366 -0.5708  1.3068 -0.3376
53971SOL    HW279906  10.887   5.863   8.297  0.3226 -0.7865  0.2991
53972SOL     OW79907  12.002   1.328   4.102  0.6793 -0.2478 -0.7324
53972SOL    HW179908  11.925   1.382   4.117  2.2509  2.1931 -0.9210
53972SOL    HW279909  11.971   1.238   4.116 -1.3534  0.7919  2.7810
53973SOL     OW79910   6.115  11.756   4.530  0.0185 -0.0734  0.3131
53973SOL    HW179911   6.198  11.788   4.496 -0.4051 -0.4284 -1.1750
53973SOL    HW279912   6.136  11.718   4.615  0.7602  2.9345  1.6246
53974SOL     OW79913   1.978   5.051   2.681  0.1792 -0.0039 -0.3443
53974SOL    HW179914   2.062   5.086   2.653  0.3798  0.7472  1.1088
53974SOL    HW279915   1.983   4.958   2.662  0.6286  0.2998 -1.9060
53975SOL     OW79916   7.931   4.499   9.673  0.0808  0.1125  0.3820
53975SOL    HW179917   8.012   4.523   9.718  2.1538  0.7781 -3.2749
53975SOL    HW279918   7.862   4.537   9.726  2.3347  2.0485  2.1788
53976SOL     OW79919  14.104   4.745   4.241 -0.1364 -0.5611 -0.0568
53976SOL    HW179920  14.067   4.830   4.216  0.3006 -1.0613 -2.7914
53976SOL    HW279921  14.197   4.751   4.217  0.1186 -1.4789  0.6413
53977SOL     OW79922   4.614   0.079   5.100 -0.3724 -0.3089  0.2655
53977SOL    HW179923   4.529   0.096   5.141  0.1234 -1.2719  1.7600
53977SOL    HW279924   4.663   0.160   5.111 -0.8523  0.0131  0.0316
53978SOL     OW79925   4.103  10.689  13.989 -0.2447  0.2366  0.1558
53978SOL    HW179926   4.087  10.668  13.897 -0.3316  0.2627  0.1651
53978SOL    HW279927   4.192  10.655  14.005  0.2496  1.2956 -0.2543
53979SOL     OW79928  13.710  13.724   5.494 -0.2171 -0.0097 -0.2661
53979SOL    HW179929  13.749  13.800   5.537  0.4080 -1.4668  1.9558
53979SOL    HW279930  13.780  13.688   5.440 -0.5763  1.0509 -1.4880
53980SOL     OW79931   4.977   3.780   2.790 -0.6887  0.0495  0.1350
53980SOL    HW179932   5.056   3.777   2.735  1.5845  2.2373  2.9634
53980SOL    HW279933   4.996   3.721   2.862 -1.6796  0.5522  0.8254
53981SOL     OW79934   4.428   1.615   3.460  0.6902 -0.0621 -0.0079
53981SOL    HW179935   4.429   1.701   3.501  0.7323  0.9666 -2.0164
53981SOL    HW279936   4.510   1.610   3.412 -0.2323 -0.3001 -1.6400
53982SOL     OW79937   0.412   7.740   7.338  0.4305 -0.1459 -0.3909
53982SOL    HW179938   0.322   7.727   7.308 -0.3542  2.2857  0.6540
53982SOL    HW279939   0.409   7.723   7.432  1.2156 -0.6563 -0.4490
53983SOL     OW79940  11.014   2.157  11.598 -0.1775 -0.2403 -0.1962
53983SOL    HW179941  11.089   2.192  11.648  0.2322  0.7224 -1.4330
53983SOL    HW279942  10.977   2.234  11.555 -0.1442 -1.1246 -1.8511
53984SOL     OW79943   3.947   9.621   2.673  0.0901  0.6226 -0.0280
53984SOL    HW179944   3.873   9.676   2.645 -0.0246  0.9455  0.9024
53984SOL    HW279945   3.964   9.647   2.763 -1.1217 -2.0870  1.0875
53985SOL     OW79946   4.487   9.952  11.605 -0.6759  0.3842 -0.3065
53985SOL    HW179947   4.394   9.964  11.625 -0.7264 -1.5032  0.8641
53985SOL    HW279948   4.532  10.011  11.666 -1.0717 -0.1682  0.5465
53986SOL     OW79949   8.221   4.218   4.575 -0.0599 -0.4537  0.2179
53986SOL    HW179950   8.136   4.223   4.532  0.4398 -1.1271 -0.8891
53986SOL    HW279951   8.281   4.189   4.506  0.3989 -3.7931  1.8169
53987SOL     OW79952   9.932   5.029  10.116 -0.8553  0.3355 -0.6734
53987SOL    HW179953   9.953   5.026  10.209 -0.8348 -0.2673 -0.6981
53987SOL    HW279954   9.925   5.123  10.097 -0.6614  0.4704 -0.1134
53988SOL     OW79955  11.741  12.757   1.720  0.3214  0.2312 -0.3311
53988SOL    HW179956  11.774  12.689   1.661  1.6661  1.2216 -0.7591
53988SOL    HW279957  11.667  12.716   1.765  0.3324 -1.1035 -1.4674
53989SOL     OW79958   9.944  11.166   0.787 -0.7911 -0.0813 -0.0756
53989SOL    HW179959   9.924  11.073   0.776 -1.7844 -0.2244  2.3021
53989SOL    HW279960   9.862  11.211   0.770 -0.5336  0.2962 -0.3434
53990SOL     OW79961  11.932   5.623   5.275  0.3972  0.0597 -0.1348
53990SOL    HW179962  11.962   5.711   5.253  2.0144 -0.6701 -1.0148
53990SOL    HW279963  11.978   5.565   5.213 -1.2350 -1.3490 -0.1222
53991SOL     OW79964   7.678   3.113  13.235 -0.1239  0.0274 -0.2338
53991SOL    HW179965   7.612   3.106  13.166 -3.7290  0.9316  2.8250
53991SOL    HW279966   7.678   3.206  13.259  2.5005  0.1057 -0.1886
53992SOL     OW79967   0.963  10.209   9.348  0.0614 -0.1356  0.0542
53992SOL    HW179968   1.025  10.170   9.286  0.8480 -0.0689  0.7870
53992SOL    HW279969   1.017  10.239   9.420 -0.8339 -0.0874  0.7167
53993SOL     OW79970   2.003   9.694   5.633 -0.6687 -0.0119  0.5777
53993SOL    HW179971   2.079   9.734   5.675 -0.2477 -0.3080  0.1047
53993SOL    HW279972   1.967   9.636   5.699 -0.9671  0.7340  1.0868
53994SOL     OW79973   9.793   0.161   9.895  0.0223  0.0925  0.0255
53994SOL    HW179974   9.773   0.151   9.988  1.2580 -0.5328  0.2543
53994SOL    HW279975   9.717   0.126   9.850 -1.2100  1.7182  0.7697
53995SOL     OW79976   2.068   8.083  10.830  0.0469 -0.3620  0.0555
53995SOL    HW179977   2.013   8.064  10.754  1.3908  0.7656 -1.2729
53995SOL    HW279978   2.048   8.174  10.852 -0.9039 -0.9072  1.5959
53996SOL     OW79979   8.103   4.977   5.680  0.2297 -0.1697 -0.1399
53996SOL    HW179980   8.091   5.046   5.745 -0.2997  1.3529 -1.7874
53996SOL    HW279981   8.048   4.905   5.710 -1.7477  1.3178 -0.0049
53997SOL     OW79982   3.873  10.302  12.493  0.1498  0.4607 -0.8784
53997SOL    HW179983   3.806  10.233  12.491 -0.0376  0.6558 -1.7683
53997SOL    HW279984   3.825  10.381  12.517 -0.0842  0.7216 -2.0934
53998SOL     OW79985  11.833   1.290  13.753  0.1405  0.1771  0.0063
53998SOL    HW179986  11.805   1.358  13.815  1.0695 -0.2322  0.8959
53998SOL    HW279987  11.823   1.331  13.667 -0.7697  0.9017  0.4397
53999SOL     OW79988   3.944  11.464   8.672  0.3535 -0.1697  0.3113
53999SOL    HW179989   3.908  11.379   8.698  0.8392 -0.1298  1.1388
53999SOL    HW279990   3.871  11.525   8.682 -0.0852 -0.5215 -0.5753
54000SOL     OW79991   4.871   8.085  14.044 -0.1747  0.1087  0.1642
54000SOL    HW179992   4.782   8.055  14.026 -0.1455 -0.0568  0.2936
54000SOL    HW279993   4.882   8.070  14.138 -0.2954  0.8744  0.3137
54001SOL     OW79994  11.992   7.008   8.929  0.2603 -0.0009  0.0767
54001SOL    HW179995  12.075   7.000   8.883  0.5267 -2.6442  0.8667
54001SOL    HW279996  11.957   6.919   8.932 -2.4362  0.9659  0.0998
54002SOL     OW79997   4.981   7.011  11.444 -0.4582  0.4210  0.4419
54002SOL    HW179998   4.995   6.961  11.364  0.1842 -0.2847  0.9821
54002SOL    HW279999   5.003   7.101  11.420  0.1228  0.1485 -0.0681
54003SOL     OW80000   4.020   1.830   7.423 -0.4028 -0.1470  0.1146
54003SOL    HW180001   4.089   1.881   7.464 -0.9559  1.0559 -0.3886
54003SOL    HW280002   3.960   1.808   7.494  0.3460 -0.9618  0.5037
54004SOL     OW80003   6.942  11.088   8.474 -0.0119  1.1743 -0.3046
54004SOL    HW180004   6.957  11.115   8.384  0.3009  0.4948 -0.4624
54004SOL    HW280005   7.026  11.101   8.518  0.3184 -0.1064 -0.5357
54005SOL     OW80006   3.978   0.267   3.477 -0.1539  0.6015  0.0860
54005SOL    HW180007   3.985   0.358   3.506 -1.8548  1.5641 -2.1625
54005SOL    HW280008   3.903   0.232   3.525 -0.7701  1.0854 -0.4849
54006SOL     OW80009   6.861   2.121  10.274  0.3950 -0.6732  0.6841
54006SOL    HW180010   6.809   2.043  10.254 -0.5387  0.3843 -1.3622
54006SOL    HW280011   6.948   2.101  10.240 -0.6622  0.3040 -3.1208
54007SOL     OW80012   1.990  10.450   6.016 -0.2021  0.0687 -0.0812
54007SOL    HW180013   1.967  10.543   6.009  0.6880  0.2476 -0.7451
54007SOL    HW280014   1.991  10.418   5.926 -0.5652 -0.6070  0.1507
54008SOL     OW80015   1.037   0.018   8.037  0.6337  0.1453 -0.8394
54008SOL    HW180016   1.013   0.002   7.946  1.1543  1.1236 -1.1602
54008SOL    HW280017   1.053  -0.069   8.073 -1.5744 -0.4335 -1.0859
54009SOL     OW80018   1.408   0.186   0.022 -0.3503  0.0138  0.1283
54009SOL    HW180019   1.465   0.110   0.036 -1.8023 -1.0414  0.5745
54009SOL    HW280020   1.335   0.173   0.083 -0.4065  2.0377  0.5654
54010SOL     OW80021  13.309  11.230   9.258  0.2159  0.6127  0.0534
54010SOL    HW180022  13.370  11.287   9.304  1.0312 -1.0781  1.1471
54010SOL    HW280023  13.348  11.219   9.171  1.0295  0.2547  0.4536
54011SOL     OW80024   6.770   0.668   4.625 -0.0238 -0.0445 -0.1760
54011SOL    HW180025   6.676   0.676   4.609 -0.1016 -0.8605 -0.1536
54011SOL    HW280026   6.809   0.668   4.537 -0.1976 -1.4398 -0.2703
54012SOL     OW80027   9.128  13.243   4.762  0.0484  0.0278  0.1022
54012SOL    HW180028   9.138  13.289   4.679 -0.9945 -0.0251 -0.0647
54012SOL    HW280029   9.084  13.161   4.740 -0.4060  0.0933  0.7270
54013SOL     OW80030   9.969   1.948   4.306  0.5381 -0.1555  0.7877
54013SOL    HW180031  10.058   1.919   4.325  2.1508  1.6664 -2.9549
54013SOL    HW280032   9.972   2.043   4.315 -1.2229 -0.0855  1.0688
54014SOL     OW80033  10.053   1.356  13.788  0.3702 -0.4150 -0.0334
54014SOL    HW180034  10.047   1.419  13.860  0.3529  0.3637 -0.6978
54014SOL    HW280035   9.963   1.326  13.775  0.1203  0.5791 -0.7051
54015SOL     OW80036   4.305   2.653  13.337 -0.1699 -0.3996 -0.1233
54015SOL    HW180037   4.373   2.695  13.389 -0.4452 -2.6441  2.2131
54015SOL    HW280038   4.226   2.661  13.390 -0.4720 -2.7680 -0.1319
54016SOL     OW80039   4.531   2.474   0.690  0.0564  0.1209 -0.4862
54016SOL    HW180040   4.490   2.538   0.633 -0.2740 -1.2670 -1.8871
54016SOL    HW280041   4.460   2.415   0.715  0.4884 -0.1387  0.1560
54017SOL     OW80042  10.069   4.823   0.986 -0.4044 -0.5016 -0.2162
54017SOL    HW180043  10.103   4.843   0.898 -0.7432  1.1541 -0.0028
54017SOL    HW280044  10.021   4.901   1.012  1.2358 -0.1855  2.2152
54018SOL     OW80045   6.227  12.277   4.288 -0.4293  0.0128 -0.3765
54018SOL    HW180046   6.268  12.225   4.358 -0.9530  0.9298  0.6550
54018SOL    HW280047   6.137  12.291   4.319 -0.9642 -0.3777 -1.7088
54019SOL     OW80048   6.499   8.597  10.884 -0.3570  0.0554  0.1837
54019SOL    HW180049   6.593   8.613  10.891 -0.1212  0.0998 -2.3500
54019SOL    HW280050   6.458   8.679  10.909  0.3337  0.4168  0.1468
54020SOL     OW80051   2.768  10.785  11.140 -0.3861  0.4741 -0.0815
54020SOL    HW180052   2.723  10.728  11.202 -1.0846  2.0090  0.9013
54020SOL    HW280053   2.840  10.823  11.190  1.8428 -1.5968 -1.5153
54021SOL     OW80054   8.726   7.924  11.790  0.0765 -0.5733  0.1984
54021SOL    HW180055   8.785   7.900  11.719  0.4677  0.2589  0.2207
54021SOL    HW280056   8.750   8.015  11.811 -1.0790 -0.2815  0.3396
54022SOL     OW80057  11.837   1.387   9.979 -0.0851  0.4647  0.3472
54022SOL    HW180058  11.768   1.336  10.021  0.2767 -0.0196  0.3611
54022SOL    HW280059  11.812   1.389   9.887  1.1371 -1.8056 -0.0782
54023SOL     OW80060   7.783   5.797   9.637 -0.5183 -0.4235 -0.0701
54023SOL    HW180061   7.817   5.862   9.699 -1.4135 -1.0072  1.0774
54023SOL    HW280062   7.858   5.743   9.614  0.2143  0.8860 -0.9257
54024SOL     OW80063   3.617   2.124   2.317 -0.3619 -0.6310  0.0296
54024SOL    HW180064   3.641   2.031   2.318 -0.3029 -0.6134  0.2239
54024SOL    HW280065   3.698   2.170   2.338 -0.9616 -0.6575  2.8165
54025SOL     OW80066   3.840   6.503   4.176  0.4472 -0.2531 -0.6912
54025SOL    HW180067   3.897   6.547   4.239 -1.4623 -1.2475  1.9244
54025SOL    HW280068   3.893   6.494   4.097  2.8511  1.4271  0.6237
54026SOL     OW80069   1.619   4.258   3.918  0.0505  0.0984 -0.3080
54026SOL    HW180070   1.660   4.171   3.918  2.4739  1.1517 -0.4742
54026SOL    HW280071   1.594   4.272   3.826  1.0240  0.1340 -0.5841
54027SOL     OW80072   0.917   3.010   8.240  0.2239 -0.0749  0.3271
54027SOL    HW180073   0.907   2.924   8.281  2.0735  0.3205  1.7257
54027SOL    HW280074   0.852   3.065   8.282 -0.1287 -0.4718  0.3152
54028SOL     OW80075   2.899  14.012  11.547  0.0775 -0.2940  0.0695
54028SOL    HW180076   2.954  13.981  11.619 -1.3988 -1.1553  0.8866
54028SOL    HW280077   2.825  13.951  11.545 -1.5635  1.5755 -0.0803
54029SOL     OW80078   2.566   0.159   6.600  0.6434  0.2770  0.6042
54029SOL    HW180079   2.562   0.214   6.678 -0.6751  0.1069  0.6670
54029SOL    HW280080   2.480   0.168   6.560  0.7408 -0.9822  0.0797
54030SOL     OW80081   7.899  10.044   6.248 -0.6056  0.2573 -0.6187
54030SOL    HW180082   7.877  10.125   6.202  2.1297  1.5977  0.1560
54030SOL    HW280083   7.908  10.071   6.340 -0.7030 -1.1894 -0.1579
54031SOL     OW80084  11.105  13.923   2.284 -0.9067  0.7059  0.7890
54031SOL    HW180085  11.166  13.913   2.211 -0.4968 -0.3285  1.2504
54031SOL    HW280086  11.155  13.895   2.361 -0.9493  2.9145  1.6688
54032SOL     OW80087   7.356  10.415   1.252 -0.1065 -0.0672 -0.1285
54032SOL    HW180088   7.402  10.491   1.216 -0.3094 -1.4278 -3.6205
54032SOL    HW280089   7.415  10.341   1.235 -1.2385 -1.1105  0.3338
54033SOL     OW80090  13.614   5.824   8.539  0.4909 -0.7321  0.1459
54033SOL    HW180091  13.519   5.813   8.541  0.4038 -0.0164 -0.1257
54033SOL    HW280092  13.641   5.810   8.630 -0.0586  0.6628  0.5520
54034SOL     OW80093   3.496  11.859  10.028 -0.1558  0.2518  0.4171
54034SOL    HW180094   3.464  11.934   9.978 -0.8096  0.5804  1.3048
54034SOL    HW280095   3.542  11.898  10.103  0.5581 -0.2337  0.2526
54035SOL     OW80096   8.724   7.286  12.101 -0.0656 -0.2339  0.5664
54035SOL    HW180097   8.766   7.202  12.084 -1.6665 -1.0470  0.4139
54035SOL    HW280098   8.672   7.303  12.022  0.0020  0.7581  0.7201
54036SOL     OW80099   6.071  12.742  11.513  0.2500 -0.3329  1.2443
54036SOL    HW180100   6.044  12.655  11.543 -1.1383  0.7010  3.2337
54036SOL    HW280101   5.993  12.780  11.473  1.1687 -0.3993 -0.7054
54037SOL     OW80102   8.790  12.735   6.307 -0.1021 -0.4092 -0.1056
54037SOL    HW180103   8.839  12.665   6.351  0.5377  0.7910  1.1801
54037SOL    HW280104   8.820  12.732   6.216  1.4442 -0.5105  0.3825
54038SOL     OW80105   8.644   6.866  14.041  0.8093 -0.0912 -0.1244
54038SOL    HW180106   8.697   6.788  14.024  0.1858 -0.4014 -0.6930
54038SOL    HW280107   8.556   6.832  14.057  0.7015  0.4457  0.4353
54039SOL     OW80108   8.626   8.253   7.052 -0.4295  0.1442  0.5512
54039SOL    HW180109   8.638   8.329   7.109 -1.4590  0.2056  0.7082
54039SOL    HW280110   8.702   8.197   7.069 -0.5137  0.3595  1.6618
54040SOL     OW80111  11.498   7.227   6.171  0.2465 -0.1075  0.0541
54040SOL    HW180112  11.448   7.289   6.224  0.8623  1.9107 -1.5816
54040SOL    HW280113  11.452   7.144   6.181 -2.0762  1.1484  0.4009
54041SOL     OW80114   7.947   5.651  11.760 -0.3296 -0.0212 -0.1714
54041SOL    HW180115   8.028   5.640  11.712 -0.4272 -0.5614 -0.2195
54041SOL    HW280116   7.969   5.628  11.851 -0.5568 -0.7218 -0.2885
54042SOL     OW80117  10.976   4.046   8.995  0.1013  0.0599 -0.1777
54042SOL    HW180118  11.065   4.073   9.017  0.1707  0.6693 -1.1550
54042SOL    HW280119  10.965   3.961   9.039  1.1000  0.0515  0.0767
54043SOL     OW80120  12.088   2.627   4.655 -0.0162  0.0331 -0.9608
54043SOL    HW180121  12.133   2.574   4.721 -1.6041 -1.8093 -1.2758
54043SOL    HW280122  12.152   2.636   4.584  0.0598 -2.2633 -1.2722
54044SOL     OW80123   8.852   2.238   8.321 -0.0749 -0.1686  0.0418
54044SOL    HW180124   8.883   2.238   8.411 -1.2411  0.7665  0.4603
54044SOL    HW280125   8.791   2.164   8.315  1.5090 -1.4921 -0.5594
54045SOL     OW80126   3.317  12.278   3.595  0.2757 -0.0839 -0.0981
54045SOL    HW180127   3.238  12.273   3.650  0.8404  0.1338  0.7542
54045SOL    HW280128   3.331  12.189   3.564 -1.4169  0.1838 -1.9065
54046SOL     OW80129   4.549  12.534   2.733 -0.1241  0.1501  0.1201
54046SOL    HW180130   4.611  12.517   2.662 -1.4146 -1.7714 -0.6198
54046SOL    HW280131   4.604  12.541   2.811  1.1199 -0.3627 -0.6741
54047SOL     OW80132  13.223   0.887  13.081  0.1308 -0.4293 -0.1364
54047SOL    HW180133  13.259   0.975  13.085 -0.3051 -0.2887  1.2238
54047SOL    HW280134  13.201   0.874  12.988  0.7973  0.6279 -0.4612
54048SOL     OW80135   4.843   8.046  10.769 -0.3635  0.7738  0.0647
54048SOL    HW180136   4.766   7.992  10.749 -0.5415  1.2387 -0.5277
54048SOL    HW280137   4.839   8.118  10.706  0.5366  0.8272  0.0533
54049SOL     OW80138  13.347   7.540   0.887 -0.0072  0.1809  0.1992
54049SOL    HW180139  13.275   7.479   0.907 -0.7210  1.4935  1.8031
54049SOL    HW280140  13.420   7.482   0.863 -0.9376 -1.2733  0.6950
54050SOL     OW80141  13.137   6.927   3.430  0.2833  0.1106 -0.1435
54050SOL    HW180142  13.163   6.839   3.458  0.1872  0.0570 -0.2199
54050SOL    HW280143  13.193   6.986   3.480 -1.3270  0.1116  1.7928
54051SOL     OW80144   7.420   4.109   1.371 -0.3234  0.0037  0.0742
54051SOL    HW180145   7.391   4.019   1.355  0.0944 -0.1661  0.2751
54051SOL    HW280146   7.510   4.113   1.338  0.1810 -0.0616  1.3850
54052SOL     OW80147   3.518  13.497   1.677  0.8188 -0.0054 -0.0711
54052SOL    HW180148   3.513  13.575   1.732  1.2786  0.0745 -0.1370
54052SOL    HW280149   3.469  13.520   1.598  0.9874  0.2326 -0.1075
54053SOL     OW80150  13.427   9.330  13.505 -0.1716 -0.7223  0.5762
54053SOL    HW180151  13.398   9.405  13.556 -0.7463  0.0340 -0.8169
54053SOL    HW280152  13.350   9.273  13.501 -0.5445 -0.1676 -0.5108
54054SOL     OW80153   3.808  11.542   3.171  0.2304  0.6831  0.3259
54054SOL    HW180154   3.801  11.598   3.094  2.3845 -1.5961 -1.7129
54054SOL    HW280155   3.896  11.558   3.204  0.0376  0.1865  1.1014
54055SOL     OW80156   5.727  10.735   9.735  0.8482  0.2530  0.1331
54055SOL    HW180157   5.795  10.674   9.765  0.5325 -0.8761 -1.3329
54055SOL    HW280158   5.773  10.795   9.676  0.6596 -0.3037 -0.5947
54056SOL     OW80159  10.952   8.792  12.609  0.5194 -0.1130  0.1366
54056SOL    HW180160  11.014   8.765  12.678  2.0066  2.7206  0.0521
54056SOL    HW280161  10.913   8.872  12.643 -2.5212 -1.3190 -0.2451
54057SOL     OW80162  10.445  12.023   6.160  0.3967  0.7827 -0.5057
54057SOL    HW180163  10.397  12.015   6.243  2.0426 -0.5120  0.3850
54057SOL    HW280164  10.492  12.107   6.169  0.4174  0.7412 -0.1962
54058SOL     OW80165   7.817   7.487   9.445 -0.3995 -0.1525 -0.0099
54058SOL    HW180166   7.838   7.573   9.409 -1.2352 -0.2190 -0.6638
54058SOL    HW280167   7.753   7.505   9.514 -1.3620 -0.3296 -0.8365
54059SOL     OW80168  12.928   1.778   6.467  0.0476 -0.1057 -0.6790
54059SOL    HW180169  13.000   1.716   6.456 -0.4844 -0.6865 -0.9393
54059SOL    HW280170  12.855   1.740   6.418 -0.9225 -0.3264  0.8601
54060SOL     OW80171   1.977   1.143   8.569 -0.5143 -0.0248  0.0880
54060SOL    HW180172   1.962   1.086   8.494 -2.5449  2.2325 -1.3614
54060SOL    HW280173   2.044   1.205   8.539 -1.8932  1.3710 -0.2075
54061SOL     OW80174  10.627   8.482   7.888  0.0983 -0.1188 -0.1910
54061SOL    HW180175  10.715   8.472   7.851 -0.3098  0.3764 -1.3529
54061SOL    HW280176  10.578   8.528   7.820 -0.5122  1.5167  1.2976
54062SOL     OW80177   3.949  11.691  12.432 -0.8145 -0.0601  0.0956
54062SOL    HW180178   4.008  11.677  12.359 -1.1244  0.9940 -0.3770
54062SOL    HW280179   3.925  11.603  12.461  0.8090 -0.5118  0.1754
54063SOL     OW80180  10.434   2.466  12.666  0.3208  0.1896 -0.2713
54063SOL    HW180181  10.391   2.380  12.656  1.3226 -0.2874 -0.5976
54063SOL    HW280182  10.434   2.502  12.578  0.6595  0.1560 -0.2829
54064SOL     OW80183   6.466  12.874   9.167  0.2603  0.1504 -0.2079
54064SOL    HW180184   6.423  12.821   9.233  0.7518 -1.3395 -1.0371
54064SOL    HW280185   6.464  12.963   9.202 -1.9147 -0.1549  0.5411
54065SOL     OW80186   8.770   1.580   5.510 -0.2757  0.1360 -0.4957
54065SOL    HW180187   8.779   1.489   5.482 -3.1383  0.5207 -3.1907
54065SOL    HW280188   8.710   1.576   5.585  0.5562 -0.2556  0.1620
54066SOL     OW80189   8.664   8.564   9.212  0.6067  0.2477 -0.3886
54066SOL    HW180190   8.707   8.579   9.128 -0.2479  3.6826 -0.3856
54066SOL    HW280191   8.573   8.590   9.198 -0.0836 -1.2145  1.0729
54067SOL     OW80192   1.120   7.349   5.995  0.3373 -0.1712  0.0990
54067SOL    HW180193   1.153   7.267   6.031 -0.1900 -0.1839  0.5734
54067SOL    HW280194   1.120   7.335   5.900  0.6958 -0.5466  0.1549
54068SOL     OW80195  10.409   2.008   6.988 -0.1213 -0.3471  0.1992
54068SOL    HW180196  10.331   1.962   7.019 -0.6162 -0.3787 -1.0405
54068SOL    HW280197  10.408   2.092   7.034 -0.6609 -0.5025  0.4751
54069SOL     OW80198   8.918   7.249   3.023 -0.0485 -0.0615 -0.1290
54069SOL    HW180199   8.882   7.239   3.111 -0.0523  1.2119  0.0272
54069SOL    HW280200   9.004   7.288   3.036  0.2290 -0.4786 -0.6634
54070SOL     OW80201   1.125   3.644  12.800 -0.1272 -0.2242 -0.5979
54070SOL    HW180202   1.048   3.678  12.755  0.4338 -0.7919 -2.0331
54070SOL    HW280203   1.154   3.716  12.855 -2.1214 -0.2536  0.5987
54071SOL     OW80204  11.776  11.131   2.169 -0.1998 -0.2598  0.1072
54071SOL    HW180205  11.770  11.218   2.210  0.1363 -0.4640  0.6020
54071SOL    HW280206  11.760  11.070   2.240  1.9496 -0.6730  0.3263
54072SOL     OW80207   3.595  12.983   3.421  0.3675  0.2219  0.0521
54072SOL    HW180208   3.621  12.960   3.511 -0.6157  0.4240  0.3968
54072SOL    HW280209   3.518  12.928   3.404  1.1126 -0.5314 -1.0350
54073SOL     OW80210   3.502  13.512   6.658 -0.3927 -0.2058  0.3788
54073SOL    HW180211   3.541  13.498   6.571  0.2147 -1.4011  0.8187
54073SOL    HW280212   3.429  13.571   6.642 -0.5241 -0.7052 -1.0153
54074SOL     OW80213   5.820  12.075  12.612  0.1183 -0.3048 -0.1740
54074SOL    HW180214   5.803  12.102  12.702 -0.4404  0.6191 -0.5341
54074SOL    HW280215   5.842  11.983  12.618 -1.3210 -0.6246  0.7724
54075SOL     OW80216   8.974   2.962  11.687 -0.2459 -0.3010  0.3255
54075SOL    HW180217   9.029   2.991  11.614 -1.2812  0.2268 -0.2687
54075SOL    HW280218   8.988   2.868  11.692 -0.3447 -0.3812 -0.7196
54076SOL     OW80219   1.430   6.773  10.107  0.2605 -0.1778 -0.1719
54076SOL    HW180220   1.399   6.797  10.194 -0.0321 -0.3639 -0.2208
54076SOL    HW280221   1.417   6.852  10.054 -1.4664 -0.6547 -0.5296
54077SOL     OW80222   1.418  10.274   5.692  0.3047  0.5952 -0.3138
54077SOL    HW180223   1.454  10.311   5.772 -1.7749  0.1814  0.8872
54077SOL    HW280224   1.382  10.349   5.645  0.8314  0.7350 -0.5053
54078SOL     OW80225   1.470   0.523   8.452  0.1247 -0.1460 -0.6317
54078SOL    HW180226   1.548   0.537   8.506  0.2155 -0.0867 -0.7759
54078SOL    HW280227   1.435   0.439   8.481 -1.1609  0.9329  1.1476
54079SOL     OW80228   9.901  10.687   6.182 -0.2541 -0.1182 -0.0465
54079SOL    HW180229   9.826  10.740   6.156 -0.6322 -0.2398  0.7759
54079SOL    HW280230   9.947  10.740   6.247 -0.7818 -0.8990  0.9747
54080SOL     OW80231  12.534   6.259  12.481  0.4999 -0.1685  0.2464
54080SOL    HW180232  12.481   6.181  12.471 -0.5947  0.3712  1.5331
54080SOL    HW280233  12.517   6.310  12.402 -1.8806  0.5211  1.1105
54081SOL     OW80234   1.770  10.566  13.106 -0.8969 -0.3513  0.4077
54081SOL    HW180235   1.685  10.525  13.088 -2.5408  2.7920  0.2820
54081SOL    HW280236   1.763  10.597  13.196  1.3959 -2.6389  1.4951
54082SOL     OW80237  13.704   4.180   5.354 -0.2143 -0.3364  0.2963
54082SOL    HW180238  13.700   4.273   5.376 -0.9797  0.4890 -2.9266
54082SOL    HW280239  13.625   4.143   5.394 -1.9366  1.2161 -1.4693
54083SOL     OW80240  13.678   9.275  11.782  0.5196  0.8146  0.2866
54083SOL    HW180241  13.728   9.201  11.747  0.4781  0.6812  0.5088
54083SOL    HW280242  13.587   9.253  11.766  0.4863  0.6165  0.7477
54084SOL     OW80243   9.591   9.909  13.378 -0.2698 -0.3820  0.1604
54084SOL    HW180244   9.589   9.916  13.282 -1.0802 -0.9030  0.1290
54084SOL    HW280245   9.512   9.956  13.406 -0.1199 -0.3720  0.5642
54085SOL     OW80246   0.299  12.978   4.356  0.3768  0.4294  0.6441
54085SOL    HW180247   0.288  12.915   4.427 -2.2234 -0.7737 -0.7016
54085SOL    HW280248   0.324  13.059   4.400  2.8640 -1.2283  2.5067
54086SOL     OW80249  12.507   4.781   7.257  0.2809 -0.0122  0.1230
54086SOL    HW180250  12.554   4.854   7.218  0.1878  0.2034  0.4115
54086SOL    HW280251  12.451   4.821   7.323 -0.1926 -0.2863 -0.1076
54087SOL     OW80252   3.268   8.085   5.457 -0.0103  0.1819 -0.1128
54087SOL    HW180253   3.304   8.030   5.389  1.0955 -1.6853  1.8737
54087SOL    HW280254   3.332   8.081   5.528 -1.2049  1.8596  1.1340
54088SOL     OW80255  13.162   9.417  11.713 -0.4305  0.3373  0.3867
54088SOL    HW180256  13.244   9.387  11.752  0.2722  1.4783 -0.1638
54088SOL    HW280257  13.175   9.404  11.619 -0.0583  2.3961  0.1195
54089SOL     OW80258   5.775  14.120   8.308  0.4440 -0.4230 -0.4288
54089SOL    HW180259   5.831  14.194   8.282  1.1408 -1.1005 -0.8930
54089SOL    HW280260   5.693  14.136   8.261  1.4652 -1.2853 -2.6605
54090SOL     OW80261   7.150   8.677   4.687  0.6149  0.6290 -0.2127
54090SOL    HW180262   7.183   8.608   4.744  0.2310  0.7462  0.1544
54090SOL    HW280263   7.223   8.697   4.629  0.6393 -0.2881 -0.5152
54091SOL     OW80264   1.967   2.558  12.612 -0.1414  0.6587 -0.1653
54091SOL    HW180265   1.965   2.619  12.538 -0.7580  1.0544  0.1689
54091SOL    HW280266   2.015   2.605  12.680  0.3597  0.3235 -0.2767
54092SOL     OW80267  10.092   1.322   8.919  0.2935  0.0760 -0.1829
54092SOL    HW180268  10.066   1.405   8.878 -1.2014 -0.4993 -0.4431
54092SOL    HW280269  10.010   1.282   8.946  0.8366 -2.0319 -1.4170
54093SOL     OW80270   2.967   3.900   1.146  0.0571 -0.9509  0.2655
54093SOL    HW180271   2.931   3.923   1.061  0.8454 -3.5737 -0.8774
54093SOL    HW280272   2.908   3.834   1.181 -0.4006  0.2714  1.9376
54094SOL     OW80273   6.842  10.040   7.934 -0.1279  0.1333 -0.2672
54094SOL    HW180274   6.909   9.989   7.979  2.2541  0.2408 -3.3359
54094SOL    HW280275   6.869  10.131   7.944  0.8985  0.1235 -2.3432
54095SOL     OW80276   3.048  12.785  11.227 -0.0114  0.2254 -0.1288
54095SOL    HW180277   3.123  12.735  11.193 -0.4898 -1.8214  1.6204
54095SOL    HW280278   3.087  12.848  11.287  0.4160  0.1112 -0.2827
54096SOL     OW80279  11.636   7.483   0.017 -0.2702  0.5428  0.0586
54096SOL    HW180280  11.661   7.395   0.045 -1.6641 -0.0395 -0.4595
54096SOL    HW280281  11.642   7.536   0.096 -0.2124 -0.1960  0.5571
54097SOL     OW80282  10.683   1.399   1.114  0.2234 -0.2251  0.0295
54097SOL    HW180283  10.667   1.414   1.207  0.6668  0.1999  0.0405
54097SOL    HW280284  10.648   1.311   1.097 -1.2341  0.2827  0.2540
54098SOL     OW80285   5.536   3.735  13.436 -0.1760  0.6406 -0.1902
54098SOL    HW180286   5.526   3.640  13.443 -0.4095  0.7436  1.1480
54098SOL    HW280287   5.623   3.748  13.399  0.1915 -0.0876  0.3958
54099SOL     OW80288   5.131  12.393   8.389 -0.3772 -0.1831 -0.3907
54099SOL    HW180289   5.046  12.362   8.357 -0.9173  0.7847  0.0513
54099SOL    HW280290   5.186  12.315   8.390 -0.8670 -0.5790 -1.9454
54100SOL     OW80291   2.560   5.430   6.393 -0.7870 -0.2073  0.7162
54100SOL    HW180292   2.518   5.488   6.456 -0.9184 -0.9439  1.3234
54100SOL    HW280293   2.497   5.423   6.321 -0.6806  0.5583  0.5434
54101SOL     OW80294   3.898  11.388   1.416 -0.2849 -0.1770  0.1264
54101SOL    HW180295   3.872  11.314   1.360 -1.2382 -0.4995  0.9563
54101SOL    HW280296   3.818  11.441   1.423  0.4455  1.0963 -0.6526
54102SOL     OW80297   0.435   9.108   7.023  0.0795 -0.2247  0.4489
54102SOL    HW180298   0.511   9.143   6.977  0.2394 -0.3012  0.6547
54102SOL    HW280299   0.364   9.114   6.959  0.0550  0.6640  0.5527
54103SOL     OW80300  12.246   0.081  11.160  0.2052  0.1667  0.3622
54103SOL    HW180301  12.158   0.071  11.125 -0.4142  0.9978  1.6254
54103SOL    HW280302  12.264  -0.002  11.204  0.4412 -0.3533 -0.6842
54104SOL     OW80303  11.620   2.327  12.073 -0.0191  0.3470 -0.0899
54104SOL    HW180304  11.631   2.321  11.978 -0.3453  1.6645 -0.2397
54104SOL    HW280305  11.698   2.375  12.103  0.3700 -0.5716  0.3908
54105SOL     OW80306   1.485   1.623   7.043 -0.2900 -0.3385  0.2071
54105SOL    HW180307   1.415   1.557   7.052 -0.3533 -0.6437 -1.8818
54105SOL    HW280308   1.457   1.677   6.969  1.1971  0.1870 -0.0036
54106SOL     OW80309   3.036   5.514  12.108  0.5313 -0.6165 -0.4771
54106SOL    HW180310   3.031   5.496  12.202 -0.4438 -0.1220 -0.4155
54106SOL    HW280311   3.039   5.428  12.067 -1.3113 -0.9167 -0.0744
54107SOL     OW80312   4.532   2.327   1.711 -0.3073 -0.0548  0.5101
54107SOL    HW180313   4.572   2.296   1.630  1.0149 -0.5959  1.3509
54107SOL    HW280314   4.508   2.418   1.693  0.2799 -0.0721 -0.3724
54108SOL     OW80315  11.621  10.476  13.624  0.8094  0.0598 -0.3394
54108SOL    HW180316  11.636  10.464  13.530  1.2569  1.2052 -0.4315
54108SOL    HW280317  11.542  10.425  13.642  0.4211  0.2437 -1.4456
54109SOL     OW80318  10.333   5.819  12.691  0.3034  0.2144 -0.3133
54109SOL    HW180319  10.406   5.788  12.744  0.0352  2.1923  1.3210
54109SOL    HW280320  10.255   5.781  12.732  0.2398 -0.0889 -0.7021
54110SOL     OW80321   8.522   6.206  13.075 -0.6392 -0.4337 -0.0470
54110SOL    HW180322   8.513   6.114  13.098  0.1313 -0.9457 -1.6627
54110SOL    HW280323   8.534   6.206  12.980  1.6114  1.1546  0.1690
54111SOL     OW80324   8.917   1.095   5.774  0.2349 -0.0888 -0.3443
54111SOL    HW180325   8.829   1.059   5.762 -0.2782  0.4454  1.5533
54111SOL    HW280326   8.922   1.165   5.709 -1.7136  1.4917  1.0730
54112SOL     OW80327   0.208  13.639   3.935  0.0852  0.1873 -0.2910
54112SOL    HW180328   0.252  13.576   3.992  0.8723  0.1584 -0.9048
54112SOL    HW280329   0.278  13.696   3.903 -0.5823  1.2485  0.0766
54113SOL     OW80330   0.592  12.643   6.430  0.5124 -0.1843 -0.0233
54113SOL    HW180331   0.529  12.675   6.494 -0.1816  2.3449 -1.8206
54113SOL    HW280332   0.600  12.549   6.449 -0.4461  0.2440  3.0017
54114SOL     OW80333   2.406   4.245  13.509 -0.1110  0.1357  0.4879
54114SOL    HW180334   2.414   4.226  13.603  2.5761 -0.0245  0.2940
54114SOL    HW280335   2.482   4.299  13.489 -1.6225  1.7745 -1.2780
54115SOL     OW80336   3.332  12.423   7.749 -0.1049  0.2103  0.8355
54115SOL    HW180337   3.377  12.342   7.773  0.6345  0.9578  2.1188
54115SOL    HW280338   3.372  12.449   7.666  0.4236 -0.1777  0.9614
54116SOL     OW80339  12.905   3.516   3.361 -0.3106 -0.0149 -0.0548
54116SOL    HW180340  12.812   3.519   3.380 -0.6665  0.2529 -1.6675
54116SOL    HW280341  12.934   3.607   3.369 -0.3681  0.0307 -0.3591
54117SOL     OW80342  10.619   4.201   6.572 -0.2354 -0.1882 -0.0304
54117SOL    HW180343  10.540   4.176   6.619  0.5765  0.3282  1.6850
54117SOL    HW280344  10.599   4.183   6.480 -2.0341 -0.8237  0.4466
54118SOL     OW80345  13.247   9.778   2.585  0.2074 -0.1540  0.2380
54118SOL    HW180346  13.302   9.822   2.520  1.8197 -0.9696  1.0032
54118SOL    HW280347  13.231   9.691   2.548 -0.7500  0.1326 -0.0580
54119SOL     OW80348  12.302   8.481   7.982  0.7079  0.5835  0.4540
54119SOL    HW180349  12.277   8.408   8.040  0.3320 -0.5339 -1.0468
54119SOL    HW280350  12.386   8.511   8.017  2.4880 -2.6446 -0.6333
54120SOL     OW80351   3.819   7.914   0.513 -0.2881  0.1337 -0.0085
54120SOL    HW180352   3.739   7.886   0.558 -0.3243  0.0123 -0.1477
54120SOL    HW280353   3.885   7.851   0.543 -1.0074 -2.0457 -2.6445
54121SOL     OW80354   6.059  10.230   9.810  0.4185  0.4952  0.6946
54121SOL    HW180355   6.041  10.144   9.847  1.4049 -1.0587 -2.1446
54121SOL    HW280356   5.973  10.263   9.784  0.2270 -0.8506 -0.5213
54122SOL     OW80357  10.978   4.193  12.213  0.1752  0.5497  0.2645
54122SOL    HW180358  10.892   4.217  12.179 -0.0168 -0.1432  0.2503
54122SOL    HW280359  11.029   4.168  12.136 -0.1878 -0.7984  0.4348
54123SOL     OW80360  10.396  12.053  12.083 -0.5769  0.4787 -0.2707
54123SOL    HW180361  10.410  12.105  12.162 -0.9943 -1.0413  0.8571
54123SOL    HW280362  10.301  12.055  12.071 -0.5734  0.1640 -0.3504
54124SOL     OW80363   4.277  12.342   1.619 -0.6812 -0.2338  0.2681
54124SOL    HW180364   4.237  12.327   1.705  0.7556  1.2513  1.2483
54124SOL    HW280365   4.371  12.344   1.637 -0.4176  1.2858 -1.1359
54125SOL     OW80366  13.952   0.387   2.131 -0.5710 -0.1110  0.3364
54125SOL    HW180367  13.985   0.326   2.066  0.8697 -0.9657  1.8070
54125SOL    HW280368  13.864   0.410   2.101 -1.4557 -3.4329  0.0574
54126SOL     OW80369   3.530   8.649   2.265 -0.0992 -0.2832 -0.4227
54126SOL    HW180370   3.562   8.731   2.228  0.9801  1.1105  3.1544
54126SOL    HW280371   3.608   8.606   2.299 -1.1542  0.5095  3.5449
54127SOL     OW80372   5.489  13.861  11.867 -0.3881  0.1168  0.1395
54127SOL    HW180373   5.514  13.950  11.842  0.5792  0.3385  1.7571
54127SOL    HW280374   5.414  13.840  11.811  1.4800  0.6058 -2.7900
54128SOL     OW80375  12.737   3.889  12.716 -0.1374 -0.2987  0.0382
54128SOL    HW180376  12.832   3.903  12.721 -0.1846 -0.3292  1.2245
54128SOL    HW280377  12.717   3.898  12.623  0.8695  0.7567 -0.1048
54129SOL     OW80378   8.475  11.095   3.460 -0.2415  0.0413 -0.5397
54129SOL    HW180379   8.544  11.052   3.511 -0.6500  0.2972  0.2377
54129SOL    HW280380   8.397  11.043   3.477 -0.3584  0.0692 -0.9883
54130SOL     OW80381   6.853   2.113   2.611 -0.1006  0.2512 -0.4022
54130SOL    HW180382   6.884   2.028   2.641  1.6999  1.2082  0.7204
54130SOL    HW280383   6.821   2.156   2.691 -0.4560  0.8240 -0.8464
54131SOL     OW80384  12.417  12.486   2.889 -0.3366  0.7268 -0.4524
54131SOL    HW180385  12.328  12.507   2.919 -0.1021  1.7710 -0.4354
54131SOL    HW280386  12.458  12.572   2.875  0.5739  0.2548 -0.7459
54132SOL     OW80387   0.012   1.326  12.663 -0.2685 -0.7978 -0.1072
54132SOL    HW180388   0.051   1.238  12.664  0.7291 -0.3632  0.6154
54132SOL    HW280389  -0.032   1.333  12.747 -0.5546 -0.6905 -0.2650
54133SOL     OW80390  13.935  12.682   6.134 -0.5593 -0.2464  0.0896
54133SOL    HW180391  13.936  12.766   6.088 -1.4741 -0.0548  0.4006
54133SOL    HW280392  14.001  12.630   6.090 -0.6556  0.3125 -0.7366
54134SOL     OW80393   9.301   3.917   9.781 -0.5943 -0.0967 -0.4460
54134SOL    HW180394   9.272   4.004   9.752 -1.2351  0.2691  1.1889
54134SOL    HW280395   9.221   3.864   9.780 -0.9655  0.3067  1.9118
54135SOL     OW80396   7.658   2.456   0.380 -0.1080  0.0915  0.2069
54135SOL    HW180397   7.649   2.361   0.387 -1.3934  0.2868  1.9730
54135SOL    HW280398   7.677   2.472   0.288 -2.0170 -1.7307 -0.5732
54136SOL     OW80399   6.480   3.507  13.557  0.4166  0.2146 -0.1294
54136SOL    HW180400   6.452   3.577  13.617 -0.7614 -0.0747 -0.3141
54136SOL    HW280401   6.509   3.437  13.615 -0.0751  0.1934  0.0987
54137SOL     OW80402   1.204   5.537   7.958 -0.2760  0.1322 -0.2400
54137SOL    HW180403   1.149   5.536   8.037 -0.6747  0.5982 -0.5090
54137SOL    HW280404   1.234   5.447   7.949 -1.2913 -0.2099 -0.2952
54138SOL     OW80405  10.812   2.249   8.607  0.7324  0.1808  0.0272
54138SOL    HW180406  10.738   2.267   8.665  1.1260 -0.8138  0.8660
54138SOL    HW280407  10.800   2.158   8.580  1.0298  0.3682 -0.7638
54139SOL     OW80408   8.295   7.323   9.690  0.1125  0.4694  0.2217
54139SOL    HW180409   8.245   7.344   9.611 -1.4222  1.5302  1.3932
54139SOL    HW280410   8.387   7.335   9.665 -0.2658 -0.3645 -1.6843
54140SOL     OW80411   8.170  10.947  10.891  0.1075 -0.2155  0.4371
54140SOL    HW180412   8.075  10.938  10.901  0.2865 -2.6563  0.5299
54140SOL    HW280413   8.188  11.037  10.918 -1.8799 -0.4659  3.0159
54141SOL     OW80414   9.947   7.072   1.507 -0.2945  0.1189 -0.5444
54141SOL    HW180415   9.933   7.084   1.601 -1.1653  1.1008 -0.7923
54141SOL    HW280416   9.940   6.977   1.494 -1.9301  0.1299  0.1104
54142SOL     OW80417   0.218  11.738  13.226  0.0414  0.3361 -0.0802
54142SOL    HW180418   0.249  11.701  13.309  0.3535 -2.6352 -1.4096
54142SOL    HW280419   0.130  11.702  13.216 -0.6284  1.9483 -0.3521
54143SOL     OW80420   1.506  12.728   6.203  0.3472  0.4988 -0.4617
54143SOL    HW180421   1.543  12.733   6.291  1.0124  0.4814 -0.7289
54143SOL    HW280422   1.532  12.811   6.162 -0.2492  0.6556 -0.5386
54144SOL     OW80423   0.173   4.723   0.182 -0.0436  0.2622 -0.0754
54144SOL    HW180424   0.195   4.630   0.184  0.8087  0.3904 -1.6344
54144SOL    HW280425   0.249   4.767   0.220 -1.2007  0.2809  2.4350
54145SOL     OW80426  11.712   3.600   9.842 -0.6606 -0.5227  0.5390
54145SOL    HW180427  11.798   3.640   9.855  0.1973 -0.9143 -3.0268
54145SOL    HW280428  11.717   3.517   9.889  0.9014 -0.5073  0.4587
54146SOL     OW80429   6.270   3.392   4.852  0.0721  0.0498 -0.3055
54146SOL    HW180430   6.222   3.454   4.797 -0.5106 -0.8632 -0.8629
54146SOL    HW280431   6.361   3.421   4.848 -0.2832  1.2982  0.0533
54147SOL     OW80432  11.820   5.318   0.727 -0.2543  0.0541  0.3629
54147SOL    HW180433  11.864   5.329   0.643  0.6348  1.7180  1.0051
54147SOL    HW280434  11.731   5.350   0.712 -0.3006 -0.2683 -0.0910
54148SOL     OW80435   6.054  12.623  12.696  0.1596  0.1847  0.1379
54148SOL    HW180436   5.974  12.654  12.738 -0.9584 -0.8647 -1.1614
54148SOL    HW280437   6.059  12.531  12.720 -0.6225 -0.4987 -2.1589
54149SOL     OW80438   0.236   9.856   0.490 -0.0920 -0.8615  0.1594
54149SOL    HW180439   0.178   9.932   0.488  0.3953 -0.4790 -2.3112
54149SOL    HW280440   0.321   9.891   0.515  0.3769 -0.3100 -1.9645
54150SOL     OW80441   5.286   1.378   8.688  0.0953  0.2764  0.2143
54150SOL    HW180442   5.326   1.381   8.774 -0.7057  0.2282  0.5968
54150SOL    HW280443   5.211   1.318   8.698  0.8709 -0.9475 -0.8914
54151SOL     OW80444  13.315   9.193   6.929  0.6689  0.4153 -0.1033
54151SOL    HW180445  13.330   9.185   6.835 -1.0819  1.2287 -0.4960
54151SOL    HW280446  13.254   9.267   6.938  2.6608  1.9567  1.8849
54152SOL     OW80447   2.373   7.564  12.265 -0.4998  0.0739 -0.5679
54152SOL    HW180448   2.443   7.617  12.226  0.8098 -1.7922 -0.9076
54152SOL    HW280449   2.402   7.549  12.355 -0.8262 -0.1327 -0.4981
54153SOL     OW80450   7.315   1.663   4.244 -0.1446  0.5542  0.3656
54153SOL    HW180451   7.333   1.661   4.149  0.0659  1.2604  0.3831
54153SOL    HW280452   7.224   1.691   4.250  0.2651  1.9535  0.3953
54154SOL     OW80453   1.255  13.915   5.965 -0.0498 -0.3335 -0.1897
54154SOL    HW180454   1.335  13.929   5.914 -0.2038  1.4533  0.0127
54154SOL    HW280455   1.212  14.000   5.967 -0.5886 -0.5919  2.0452
54155SOL     OW80456  11.499   4.705  11.021  0.8812 -0.0461  0.0781
54155SOL    HW180457  11.476   4.617  10.992  0.1692 -0.2779  1.2756
54155SOL    HW280458  11.546   4.692  11.104  2.2180  0.6257 -0.5379
54156SOL     OW80459   5.937  11.644   5.504 -0.0066  0.1062 -0.3331
54156SOL    HW180460   5.922  11.555   5.473 -0.1523 -0.4066  1.1347
54156SOL    HW280461   6.023  11.667   5.470 -0.8798  0.3050 -2.6353
54157SOL     OW80462  10.581   9.143  11.868  0.2041  0.7728 -0.8155
54157SOL    HW180463  10.522   9.204  11.912 -0.6696 -0.7799  0.2675
54157SOL    HW280464  10.553   9.057  11.897  1.9264 -0.1298 -1.6441
54158SOL     OW80465   3.609   6.355   3.274 -0.2907 -0.4593  0.4454
54158SOL    HW180466   3.595   6.345   3.368  1.2460  0.8065  0.8586
54158SOL    HW280467   3.702   6.336   3.261 -0.3881 -0.2212 -0.7576
54159SOL     OW80468   7.569   7.131  10.185 -0.2149  0.3862  0.1998
54159SOL    HW180469   7.488   7.176  10.210  1.0085  1.3407  2.6928
54159SOL    HW280470   7.639   7.179  10.230  1.5510 -1.7035 -0.1581
54160SOL     OW80471   0.738   8.763  11.678 -0.0709 -0.2816 -0.2239
54160SOL    HW180472   0.785   8.726  11.753 -2.0445 -1.3866  0.5660
54160SOL    HW280473   0.803   8.814  11.631  1.4149 -0.0981  1.8871
54161SOL     OW80474  12.715   6.045  13.744 -0.2649 -0.0193 -0.7198
54161SOL    HW180475  12.689   6.067  13.834  2.6024 -0.9932  0.4655
54161SOL    HW280476  12.713   6.129  13.698 -1.0568  0.6295  0.4466
54162SOL     OW80477   2.975  10.274  11.520  0.2883 -0.1070  0.2640
54162SOL    HW180478   3.000  10.302  11.433  3.3063 -2.2240  0.3128
54162SOL    HW280479   2.978  10.178  11.517 -1.5358 -0.3125  2.1977
54163SOL     OW80480   8.642   0.531   0.889 -0.2103  0.5823  0.5063
54163SOL    HW180481   8.706   0.549   0.821 -0.2320  1.2843  0.6635
54163SOL    HW280482   8.691   0.487   0.958 -0.3193 -0.7329 -0.2253
54164SOL     OW80483   6.560   5.808  10.129 -0.3303  0.2160  0.1348
54164SOL    HW180484   6.653   5.804  10.153 -0.6242  1.6553  1.6741
54164SOL    HW280485   6.537   5.717  10.109  1.2805 -0.2509  0.2304
54165SOL     OW80486   3.392   5.878  10.558  0.3726 -0.3913  0.2166
54165SOL    HW180487   3.454   5.872  10.486 -0.1004  1.7593 -0.4484
54165SOL    HW280488   3.314   5.919  10.520 -0.3595 -0.3617  1.6610
54166SOL     OW80489   8.678   7.536   7.317 -0.3660  0.4941 -0.1932
54166SOL    HW180490   8.649   7.501   7.232  1.0045 -3.2862  0.7005
54166SOL    HW280491   8.773   7.542   7.309 -0.4093  2.3491  0.3764
54167SOL     OW80492  13.463   8.237   6.449  0.0906  0.1177 -0.2611
54167SOL    HW180493  13.521   8.173   6.407 -1.0844 -1.0648 -0.1776
54167SOL    HW280494  13.389   8.184   6.481 -0.2480  1.3287  1.0824
54168SOL     OW80495   0.738   9.811   8.249  0.3296  0.2364 -0.4626
54168SOL    HW180496   0.808   9.796   8.313  0.2205  1.5168 -0.0258
54168SOL    HW280497   0.718   9.723   8.215  2.3398 -0.1380 -0.8191
54169SOL     OW80498   8.645   6.459   4.694 -0.6070  0.3867 -0.1896
54169SOL    HW180499   8.708   6.405   4.742 -1.6744 -1.6125 -0.9333
54169SOL    HW280500   8.678   6.548   4.704  1.0645 -0.3353  1.3584
54170SOL     OW80501   3.481   0.230   0.507  0.2508  0.2856 -0.1643
54170SOL    HW180502   3.568   0.226   0.468  0.1347 -0.3874 -0.3512
54170SOL    HW280503   3.463   0.324   0.514  1.3234  0.4541  0.6157
54171SOL     OW80504   1.679   6.467  11.801  0.0737 -0.2764 -0.2718
54171SOL    HW180505   1.618   6.540  11.788 -0.1608 -0.3951  0.1643
54171SOL    HW280506   1.650   6.425  11.882  1.3340  0.2794  0.4978
54172SOL     OW80507  10.550   8.392   9.610 -0.5751 -0.4639  0.4168
54172SOL    HW180508  10.515   8.380   9.698  1.1677  0.7261  1.3517
54172SOL    HW280509  10.619   8.458   9.621 -0.1157 -0.4936 -1.7985
54173SOL     OW80510   8.341   8.019   2.588  0.6589  0.2093 -0.0177
54173SOL    HW180511   8.328   7.991   2.498  0.9191 -1.1918  0.3635
54173SOL    HW280512   8.406   8.090   2.582  1.1186 -0.2727 -0.8785
54174SOL     OW80513   9.325  11.087   4.952  0.1469 -0.1483 -0.3353
54174SOL    HW180514   9.334  11.005   4.904  1.8226 -0.3367  0.2530
54174SOL    HW280515   9.396  11.086   5.015 -1.5250  0.4692  1.6471
54175SOL     OW80516  11.490  12.607   3.570  0.2035 -0.3021  0.4711
54175SOL    HW180517  11.413  12.660   3.551  0.3532 -0.2032  0.1368
54175SOL    HW280518  11.530  12.648   3.646 -1.6344 -1.9719  2.4608
54176SOL     OW80519   3.947   7.739   2.378 -0.0969 -0.1156  0.0923
54176SOL    HW180520   3.916   7.656   2.342 -0.9885  1.0316 -1.9244
54176SOL    HW280521   4.036   7.749   2.346  0.1062 -0.4105  0.5597
54177SOL     OW80522   2.042   1.002   7.529  0.2352  0.1052 -0.5570
54177SOL    HW180523   2.073   0.969   7.445 -0.7537  0.7034 -1.1854
54177SOL    HW280524   1.990   0.931   7.565  1.5583 -0.5669  0.0873
54178SOL     OW80525   2.708   8.420  12.913 -0.3938  0.0818  0.2160
54178SOL    HW180526   2.617   8.409  12.942 -0.4599 -0.2732 -0.1111
54178SOL    HW280527   2.704   8.410  12.818 -0.1042  0.7134  0.1320
54179SOL     OW80528  13.862   8.353   9.541 -0.3341  0.3153 -0.3730
54179SOL    HW180529  13.837   8.390   9.457 -0.1427  0.1754 -0.4933
54179SOL    HW280530  13.864   8.258   9.526 -0.1918  0.2960 -0.2425
54180SOL     OW80531  13.522  11.901  11.957  0.0547 -0.2059 -0.0070
54180SOL    HW180532  13.542  11.964  11.888  0.6891  0.7706  1.0474
54180SOL    HW280533  13.526  11.816  11.913 -0.6396  0.4471 -1.4140
54181SOL     OW80534   6.242   3.086  13.474  0.3337 -0.1138  0.5905
54181SOL    HW180535   6.166   3.136  13.505 -0.3980 -1.2849  0.7569
54181SOL    HW280536   6.213   3.048  13.391  1.6870  1.5892 -0.7319
54182SOL     OW80537  11.790   1.363   5.531  0.4576  1.0183 -0.3654
54182SOL    HW180538  11.703   1.373   5.492 -0.0283  1.2037  0.7179
54182SOL    HW280539  11.847   1.338   5.458 -0.5761  0.5217 -1.0209
54183SOL     OW80540   9.467   6.333   2.639  0.1717 -0.3141  0.4769
54183SOL    HW180541   9.544   6.277   2.629 -0.6329 -1.3941  0.1485
54183SOL    HW280542   9.436   6.315   2.728 -0.2260 -0.5947  0.2872
54184SOL     OW80543  13.702   6.222   5.434  0.0317 -0.0557 -0.0611
54184SOL    HW180544  13.650   6.181   5.503  0.3785 -0.7262 -0.1902
54184SOL    HW280545  13.637   6.264   5.377 -0.1989  1.3864  1.2057
54185SOL     OW80546   0.787   7.809   9.669 -0.2779  0.3620  0.3917
54185SOL    HW180547   0.753   7.738   9.724  1.4160 -0.5631  0.3149
54185SOL    HW280548   0.841   7.765   9.603 -1.0669  1.5657 -1.1096
54186SOL     OW80549   1.428   3.200  14.129  0.1062  0.0239 -0.1464
54186SOL    HW180550   1.489   3.274  14.133  1.2461 -0.7917 -1.6864
54186SOL    HW280551   1.342   3.240  14.141  0.7816  1.4518  0.1618
54187SOL     OW80552  11.519   4.739   0.084  0.3269 -0.1746  0.0358
54187SOL    HW180553  11.610   4.728   0.111  0.3808 -0.2447 -0.1722
54187SOL    HW280554  11.472   4.668   0.128  0.3505 -0.0627  0.2442
54188SOL     OW80555  10.964  10.933   4.832  0.3157  0.0493  0.3382
54188SOL    HW180556  10.923  10.885   4.904 -1.6707  1.6974  0.3868
54188SOL    HW280557  10.897  10.936   4.764  1.4140  0.3566 -0.7527
54189SOL     OW80558   3.659  11.668   6.793 -0.3638  1.1923  0.3028
54189SOL    HW180559   3.629  11.577   6.796  1.6080  0.3140 -2.3639
54189SOL    HW280560   3.581  11.720   6.813 -2.1043 -1.0431 -0.2449
54190SOL     OW80561   6.676   9.496   1.052 -0.2413  0.0924 -0.2958
54190SOL    HW180562   6.693   9.589   1.064 -0.8387  0.4533 -1.9757
54190SOL    HW280563   6.581   9.488   1.052 -0.2072 -0.4112 -0.7940
54191SOL     OW80564  13.151   4.119   7.952  0.0662 -0.0770  0.2110
54191SOL    HW180565  13.142   4.119   8.047  0.7345  1.6022  0.3182
54191SOL    HW280566  13.141   4.027   7.927  0.6810 -0.6835  1.9817
54192SOL     OW80567  13.194   1.820   9.327  0.5474 -0.1102  0.4877
54192SOL    HW180568  13.265   1.791   9.270  1.2971  0.5757  1.0403
54192SOL    HW280569  13.234   1.823   9.414  0.2283  1.5409  0.6062
54193SOL     OW80570   2.228   4.026   0.982  0.2852 -0.1620  0.4382
54193SOL    HW180571   2.155   4.044   1.041 -1.4235 -1.3429 -1.2269
54193SOL    HW280572   2.288   4.099   0.996 -1.6845  1.4140  1.1049
54194SOL     OW80573   9.016   4.768   7.502 -0.6139 -0.2872  0.3302
54194SOL    HW180574   8.924   4.763   7.528 -1.0897  2.3885 -0.5645
54194SOL    HW280575   9.054   4.834   7.559  0.9347 -1.6541  0.9805
54195SOL     OW80576   0.278   8.019   4.789  0.3888  0.0488  0.2374
54195SOL    HW180577   0.186   8.015   4.764  0.2087 -1.6490  1.0419
54195SOL    HW280578   0.325   7.979   4.716  0.2672 -1.0243  0.7316
54196SOL     OW80579   8.153   7.583  10.327  0.3649 -0.0582 -0.1070
54196SOL    HW180580   8.131   7.675  10.308  2.8797  1.0144  1.7315
54196SOL    HW280581   8.167   7.544  10.241 -2.1396  0.8316 -1.0120
54197SOL     OW80582   4.421   4.508   4.293 -0.2257 -0.0806  1.4393
54197SOL    HW180583   4.458   4.528   4.207 -4.1865  0.6538 -0.3238
54197SOL    HW280584   4.466   4.428   4.320  1.6755  0.0614 -0.9529
54198SOL     OW80585   6.285   7.716   7.974 -0.2798  0.2255  0.3549
54198SOL    HW180586   6.326   7.800   7.996 -0.2831 -0.1279  1.8301
54198SOL    HW280587   6.266   7.722   7.880  0.0025  1.7450  0.3718
54199SOL     OW80588  11.558  13.073   5.095 -0.2608 -0.2778  0.7894
54199SOL    HW180589  11.622  13.002   5.091  0.7315  0.5634  1.4073
54199SOL    HW280590  11.584  13.125   5.171 -1.3730  0.3712  0.7437
54200SOL     OW80591   9.612   3.368   2.990  0.2864  0.2809 -0.3922
54200SOL    HW180592   9.644   3.372   3.081  0.3750  1.0567 -0.4545
54200SOL    HW280593   9.648   3.446   2.949 -0.6473  0.4927 -0.8087
54201SOL     OW80594   7.879   7.897   5.957  0.2001  0.2224  0.3809
54201SOL    HW180595   7.851   7.943   5.878  1.0626 -0.2908 -0.2393
54201SOL    HW280596   7.841   7.810   5.950 -0.2932  0.3933  0.8794
54202SOL     OW80597   9.001   5.379   2.354 -0.0714 -0.1848  0.3643
54202SOL    HW180598   9.093   5.402   2.342  0.1413 -0.7167  0.8902
54202SOL    HW280599   8.989   5.376   2.449  0.1491 -3.0134  0.3889
54203SOL     OW80600  11.351   1.117   6.378 -0.3059 -0.3772 -0.2239
54203SOL    HW180601  11.359   1.022   6.390 -2.4354 -0.6377 -0.5015
54203SOL    HW280602  11.297   1.146   6.451  0.6552  0.7125  0.0766
54204SOL     OW80603  12.093   6.742   7.627  0.4890  0.1073  0.7806
54204SOL    HW180604  12.074   6.652   7.604 -0.0865  0.6527 -0.9904
54204SOL    HW280605  12.185   6.754   7.602  0.0666  0.4945 -0.6552
54205SOL     OW80606   2.187   0.067  13.271  0.3321 -0.4614 -0.2492
54205SOL    HW180607   2.133  -0.008  13.245  1.3104 -1.1006 -0.4875
54205SOL    HW280608   2.248   0.032  13.336 -0.2077  0.4850  0.8071
54206SOL     OW80609  13.725   7.339  11.219 -0.1956 -0.1243  0.2929
54206SOL    HW180610  13.757   7.327  11.129 -0.2987 -0.5110  0.3030
54206SOL    HW280611  13.791   7.297  11.273  0.0408  0.4156  0.4234
54207SOL     OW80612  10.261  10.920   5.772 -0.1415 -0.0058 -0.0065
54207SOL    HW180613  10.214  11.003   5.758 -0.5068 -0.0435  0.9420
54207SOL    HW280614  10.204  10.870   5.831 -0.7824 -1.6594 -1.9248
54208SOL     OW80615   7.771  14.036   5.636  0.2765 -0.6771 -0.3263
54208SOL    HW180616   7.776  13.958   5.580 -0.4664 -0.5073 -0.6415
54208SOL    HW280617   7.693  14.023   5.689 -0.0780  0.0201 -0.6548
54209SOL     OW80618   2.294  11.124  10.321 -0.1086  0.2300 -0.6875
54209SOL    HW180619   2.346  11.047  10.300  0.0553 -0.1148  0.8410
54209SOL    HW280620   2.215  11.089  10.362 -0.8253  0.8206 -1.5237
54210SOL     OW80621  10.272  10.637   2.810 -0.1273 -0.5015 -0.2321
54210SOL    HW180622  10.191  10.678   2.780 -0.1233  0.7258  1.3169
54210SOL    HW280623  10.323  10.624   2.731 -1.1043  0.3574 -1.0308
54211SOL     OW80624  13.921   5.717   8.068  0.3924  0.2559 -0.0333
54211SOL    HW180625  13.938   5.712   7.974  0.5334  0.7648 -0.0418
54211SOL    HW280626  13.918   5.626   8.097 -0.8645  0.0438 -0.7411
54212SOL     OW80627   3.278  11.161   6.813 -0.1374  0.8896 -0.5163
54212SOL    HW180628   3.277  11.189   6.721 -1.6567 -0.3801 -0.9282
54212SOL    HW280629   3.290  11.066   6.809 -2.6885  0.4547  0.4347
54213SOL     OW80630  14.088  12.961   4.885  0.4821  0.0775 -0.0430
54213SOL    HW180631  14.132  13.032   4.839  1.2894  0.0530  0.6753
54213SOL    HW280632  14.148  12.936   4.955 -0.4608 -0.2827  0.6651
54214SOL     OW80633   1.229   6.083   5.350 -0.4114  0.3210  0.4133
54214SOL    HW180634   1.158   6.091   5.286  0.1526 -0.8884 -0.3965
54214SOL    HW280635   1.210   6.151   5.415 -1.4122  1.0866 -0.6343
54215SOL     OW80636  12.048  12.153  10.257 -0.2340 -0.1837  0.0386
54215SOL    HW180637  12.000  12.074  10.279  1.7804 -2.0037 -1.6359
54215SOL    HW280638  12.042  12.208  10.335 -1.0689 -2.2948  1.5394
54216SOL     OW80639   6.983  10.767   8.163  0.1094 -0.1287  0.6846
54216SOL    HW180640   6.998  10.765   8.257 -1.0019 -0.4469  0.8739
54216SOL    HW280641   6.943  10.683   8.143 -4.2591  1.6436  0.8070
54217SOL     OW80642  12.491   0.948   5.150 -0.3098  0.4103  0.3761
54217SOL    HW180643  12.567   0.896   5.177 -0.7950  0.4227  1.8507
54217SOL    HW280644  12.479   1.010   5.221 -2.5351 -0.4830  0.8328
54218SOL     OW80645   6.467  10.668  13.436  0.4596  0.7728  0.3421
54218SOL    HW180646   6.392  10.610  13.421  0.4420  1.1122 -0.9580
54218SOL    HW280647   6.438  10.728  13.504 -0.3069  0.6382  0.1433
54219SOL     OW80648  10.162   6.826   8.094 -0.2511 -0.3853 -0.4261
54219SOL    HW180649  10.215   6.753   8.126 -0.4273 -0.8793 -1.2298
54219SOL    HW280650  10.158   6.813   7.999  0.5356  1.2347 -0.7060
54220SOL     OW80651   7.111  11.764  11.109 -0.0173  0.1933  0.4596
54220SOL    HW180652   7.057  11.692  11.078  0.5772 -0.1589  0.2215
54220SOL    HW280653   7.091  11.771  11.202  2.0353 -2.2155  1.1831
54221SOL     OW80654   5.771  10.718  11.711 -0.1299 -0.3657  0.2613
54221SOL    HW180655   5.754  10.632  11.672 -1.7819 -0.2887  0.7353
54221SOL    HW280656   5.850  10.705  11.764  0.3832 -1.2477 -0.6824
54222SOL     OW80657   3.448  12.425  10.252 -0.3558 -0.0353  0.4255
54222SOL    HW180658   3.512  12.392  10.315  1.0987  0.0319 -0.9495
54222SOL    HW280659   3.437  12.517  10.276  0.0169 -0.0629  0.7241
54223SOL     OW80660  12.907   0.852  10.822  0.0989  0.7600 -0.2939
54223SOL    HW180661  12.897   0.757  10.824  0.9960  0.6620  0.7759
54223SOL    HW280662  12.969   0.868  10.750  1.6577  0.3169  0.8968
54224SOL     OW80663   1.456   7.574   2.928 -0.3091 -0.4329 -0.2140
54224SOL    HW180664   1.437   7.508   2.994  1.4823 -2.5355 -1.6788
54224SOL    HW280665   1.485   7.525   2.851 -0.4459  1.9874 -1.9563
54225SOL     OW80666  12.295  12.156   0.711  0.2489 -0.6761  0.2684
54225SOL    HW180667  12.363  12.089   0.710 -0.6175 -1.6605  2.1193
54225SOL    HW280668  12.301  12.195   0.798 -0.3813  0.4968 -0.1833
54226SOL     OW80669   5.367   3.451  12.572 -0.1470  0.4694 -0.0955
54226SOL    HW180670   5.300   3.416  12.513  1.2934 -0.7668 -1.0717
54226SOL    HW280671   5.323   3.458  12.656 -1.7021  0.3809 -0.8552
54227SOL     OW80672   5.268  10.611   7.917  0.1419 -0.2075 -0.0879
54227SOL    HW180673   5.217  10.687   7.889  0.4753  0.9808  2.2756
54227SOL    HW280674   5.231  10.586   8.002  0.9470 -1.8277 -0.1585
54228SOL     OW80675   8.758   5.722  10.242  1.1299  0.5393  0.4861
54228SOL    HW180676   8.777   5.694  10.331  2.3982  1.0878  0.4073
54228SOL    HW280677   8.750   5.640  10.192 -0.2553  0.2102  1.2017
54229SOL     OW80678   8.253  13.296   3.773 -0.2583 -0.1274  0.3899
54229SOL    HW180679   8.274  13.272   3.863  0.0613  1.4400  0.7744
54229SOL    HW280680   8.338  13.302   3.729 -0.4207 -1.0131 -0.0584
54230SOL     OW80681   9.401   8.668  13.133 -0.4661 -0.0988  0.4411
54230SOL    HW180682   9.405   8.755  13.092 -1.0647 -0.6123 -0.7761
54230SOL    HW280683   9.393   8.607  13.059 -3.0595 -0.9842  1.3096
54231SOL     OW80684  11.457   4.569   2.517 -0.2158 -0.1635  0.6162
54231SOL    HW180685  11.488   4.615   2.438 -0.8020  2.4675  1.8220
54231SOL    HW280686  11.404   4.497   2.483 -0.5462  0.9617 -1.4219
54232SOL     OW80687  11.891   8.318  13.315 -0.2358 -0.3245  0.4047
54232SOL    HW180688  11.970   8.303  13.367  0.1046  1.2443  0.4076
54232SOL    HW280689  11.912   8.395  13.262 -1.0194 -1.1525 -1.1560
54233SOL     OW80690   0.604   4.356  12.400  0.1427  0.5174 -0.1594
54233SOL    HW180691   0.618   4.303  12.321 -0.4311 -0.6957  0.5301
54233SOL    HW280692   0.514   4.337  12.426 -0.1441  1.9993  0.0094
54234SOL     OW80693  10.880   2.789   9.003 -0.1105  0.3501 -0.6028
54234SOL    HW180694  10.901   2.711   9.054 -0.4261 -0.0802 -1.1191
54234SOL    HW280695  10.943   2.788   8.931 -0.3126  0.4005 -0.7836
54235SOL     OW80696   6.668   3.330  12.515  0.3426 -0.5151  0.3042
54235SOL    HW180697   6.602   3.383  12.558 -0.1067 -1.3069  0.5985
54235SOL    HW280698   6.619   3.274  12.455  0.6629 -1.5464  0.9722
54236SOL     OW80699   2.888   2.200  10.877 -0.5210  0.2294 -0.1062
54236SOL    HW180700   2.916   2.112  10.854 -0.3225  0.6384 -1.5855
54236SOL    HW280701   2.967   2.254  10.866 -0.7776  0.6766  0.2104
54237SOL     OW80702   0.823   9.308   4.793  0.3651 -0.2748  0.6734
54237SOL    HW180703   0.915   9.283   4.782  1.6013  3.2656  1.6935
54237SOL    HW280704   0.825   9.403   4.803 -3.3882 -0.1312  1.4284
54238SOL     OW80705   3.560   1.567   6.429  0.1000  0.2320  0.1712
54238SOL    HW180706   3.586   1.497   6.369 -0.4812 -1.7347  2.0951
54238SOL    HW280707   3.642   1.593   6.472  0.1115 -0.1624  0.3819
54239SOL     OW80708   9.667   0.944   2.480 -0.1991  0.2801  0.0122
54239SOL    HW180709   9.607   0.873   2.504  0.2784 -0.4966 -1.0164
54239SOL    HW280710   9.610   1.017   2.456 -0.7327 -0.2957 -0.5060
54240SOL     OW80711   1.367  13.581   9.443 -0.4535 -0.0581  0.2712
54240SOL    HW180712   1.382  13.529   9.365  1.0255 -0.2973  0.6722
54240SOL    HW280713   1.287  13.630   9.425 -2.3032 -2.8982  0.1413
54241SOL     OW80714   7.351  13.566  12.352  0.0596 -0.0779  0.3584
54241SOL    HW180715   7.268  13.597  12.387  0.5286 -1.0730  2.5201
54241SOL    HW280716   7.331  13.479  12.316 -0.0411  0.1127 -0.0418
54242SOL     OW80717   1.121  11.875   2.934  0.6035  0.0348 -0.1844
54242SOL    HW180718   1.187  11.913   2.992  0.5003  0.3994 -0.3042
54242SOL    HW280719   1.168  11.808   2.885  0.8723  0.2495 -0.2238
54243SOL     OW80720   5.587  10.797   2.988 -0.2421  0.2622 -0.2919
54243SOL    HW180721   5.651  10.829   3.051 -0.5703  2.2702 -0.9013
54243SOL    HW280722   5.626  10.815   2.902 -0.8736 -0.1028 -0.6643
54244SOL     OW80723   1.925   5.812   7.197  0.3314  0.7310  0.2008
54244SOL    HW180724   1.857   5.863   7.240  0.7171 -0.1180  1.8901
54244SOL    HW280725   1.882   5.773   7.121 -2.1281 -2.5011  2.9728
54245SOL     OW80726  13.554   7.029   1.330  0.0591  0.0603  1.3457
54245SOL    HW180727  13.577   7.065   1.244 -0.1463  0.1703  1.3336
54245SOL    HW280728  13.541   6.936   1.315  1.5070 -0.1896  1.5601
54246SOL     OW80729  10.486   3.977   9.368  0.3738 -0.0176 -0.2611
54246SOL    HW180730  10.521   3.985   9.279  0.7157 -0.6003 -0.1847
54246SOL    HW280731  10.392   3.995   9.358  0.3417 -0.4550 -0.8083
54247SOL     OW80732  10.193  13.662  10.194 -0.3177  0.8521  1.2286
54247SOL    HW180733  10.102  13.633  10.181 -0.2797  1.1883  0.1155
54247SOL    HW280734  10.246  13.596  10.149 -0.1095  1.4553  0.5690
54248SOL     OW80735   4.608   2.725  10.742  0.0247  0.1522 -0.0105
54248SOL    HW180736   4.617   2.660  10.673  0.5071 -0.5887  0.7222
54248SOL    HW280737   4.609   2.673  10.823 -2.1216  0.8167  0.5267
54249SOL     OW80738   8.310  10.990   7.065  0.1681 -0.2676 -0.0375
54249SOL    HW180739   8.292  10.896   7.067  1.4390 -0.5239  0.6050
54249SOL    HW280740   8.337  11.011   7.155  1.1661  0.4357 -0.4833
54250SOL     OW80741   2.199   7.564   7.463 -0.5107  0.5178 -0.5798
54250SOL    HW180742   2.288   7.576   7.495 -0.9648  0.8037  0.6450
54250SOL    HW280743   2.209   7.538   7.371  0.8569 -0.4333 -0.1885
54251SOL     OW80744  10.246   6.416   9.071 -0.5140  0.0075 -0.0062
54251SOL    HW180745  10.316   6.455   9.123 -2.1030 -0.2308  2.4903
54251SOL    HW280746  10.248   6.323   9.093 -1.1151 -0.1451 -0.5515
54252SOL     OW80747   3.787   5.473   2.132  0.2233  0.4314 -0.6067
54252SOL    HW180748   3.869   5.488   2.086 -0.7356 -0.6319 -2.8276
54252SOL    HW280749   3.719   5.485   2.065 -1.1926 -2.3609  0.1678
54253SOL     OW80750   4.702   8.545  12.933 -0.3501 -0.0876 -0.5826
54253SOL    HW180751   4.616   8.504  12.943  0.1569 -1.2989 -0.8728
54253SOL    HW280752   4.689   8.637  12.955 -0.7586 -1.0359  4.2290
54254SOL     OW80753   1.550   3.906   9.996  0.3690  0.0508  0.4224
54254SOL    HW180754   1.568   3.965  10.070 -1.5081  1.9222 -0.4960
54254SOL    HW280755   1.605   3.940   9.925 -0.2626  0.3482  0.0642
54255SOL     OW80756   7.219   1.588   9.917  0.2186 -0.1859 -0.2001
54255SOL    HW180757   7.270   1.566   9.994 -0.3238 -2.2755 -0.3835
54255SOL    HW280758   7.282   1.625   9.855  0.9369  0.0554  0.6637
54256SOL     OW80759   6.876  12.053  10.617  0.1757 -0.5308 -0.7525
54256SOL    HW180760   6.872  12.003  10.699 -3.1627 -1.4966 -1.3599
54256SOL    HW280761   6.870  12.145  10.644 -1.1412 -0.8489  0.1323
54257SOL     OW80762   0.334   0.770   7.048  0.1248 -0.4407  0.1312
54257SOL    HW180763   0.267   0.838   7.038 -1.1841 -1.1828  2.8346
54257SOL    HW280764   0.324   0.715   6.970  0.9479  2.1347 -1.9228
54258SOL     OW80765  13.976  14.107   2.448  0.4509 -0.0226 -0.4528
54258SOL    HW180766  13.885  14.136   2.453  0.4578 -0.1856  0.7613
54258SOL    HW280767  13.997  14.074   2.535  1.2788 -1.2113 -1.0658
54259SOL     OW80768   4.193   3.615   6.789  0.4867  0.3478 -0.0577
54259SOL    HW180769   4.105   3.581   6.806 -0.0861  0.9414 -1.6644
54259SOL    HW280770   4.251   3.558   6.840 -0.7579 -0.5883  0.3593
54260SOL     OW80771  11.478   3.771  12.171 -0.5225 -0.0042 -0.1969
54260SOL    HW180772  11.528   3.726  12.103 -2.7451 -0.4024 -1.6990
54260SOL    HW280773  11.543   3.819  12.221  1.5386 -1.9664 -0.8208
54261SOL     OW80774   6.468   7.015  10.427 -0.1778 -0.2230 -0.3442
54261SOL    HW180775   6.553   6.982  10.455  0.1819 -0.8144 -2.0096
54261SOL    HW280776   6.406   6.945  10.449 -0.0766 -0.2258 -0.0641
54262SOL     OW80777   0.714  12.521   9.256 -1.0206 -0.8076  0.1627
54262SOL    HW180778   0.735  12.547   9.166 -2.4410 -0.6853 -0.1571
54262SOL    HW280779   0.719  12.426   9.255  0.5657 -0.7566  0.3942
54263SOL     OW80780  12.050  10.535   3.562 -0.1963  0.0723  0.2416
54263SOL    HW180781  12.104  10.562   3.637 -1.3169  0.3163  0.9801
54263SOL    HW280782  11.987  10.473   3.598 -0.7737  0.2177 -0.4887
54264SOL     OW80783   3.391   5.355   8.004  0.2744 -0.2051 -0.4320
54264SOL    HW180784   3.319   5.366   7.942 -0.8006  0.7190  0.9165
54264SOL    HW280785   3.363   5.285   8.062  1.5031 -1.4257 -1.2447
54265SOL     OW80786   3.081   6.250  10.172 -0.4111 -0.6241 -1.0290
54265SOL    HW180787   3.129   6.313  10.120  0.3218  0.2632  0.6552
54265SOL    HW280788   3.000   6.235  10.122  0.6728 -0.6004 -2.8839
54266SOL     OW80789   3.130   4.301   9.704 -0.7059 -0.4426 -0.0654
54266SOL    HW180790   3.187   4.257   9.642 -0.8421 -0.3975 -0.2225
54266SOL    HW280791   3.149   4.259   9.788 -2.8725 -2.8478 -0.6425
54267SOL     OW80792   9.833  10.898   6.459  0.8959 -0.5008 -1.1757
54267SOL    HW180793   9.912  10.896   6.405  0.9842  0.5121 -1.1040
54267SOL    HW280794   9.843  10.976   6.513  1.1572 -1.8847  0.8517
54268SOL     OW80795  10.403   2.191   7.235  0.3951 -0.1469 -0.1891
54268SOL    HW180796  10.457   2.265   7.206  0.4887  0.2420  0.9133
54268SOL    HW280797  10.314   2.226   7.236  0.4387 -0.0249  0.3244
54269SOL     OW80798   3.273   6.590  12.984 -0.1146 -0.4602 -0.1075
54269SOL    HW180799   3.332   6.644  12.931  0.3377  1.2350  1.9624
54269SOL    HW280800   3.188   6.634  12.977  0.1503  0.3350  1.2147
54270SOL     OW80801   6.507   4.435   6.129 -0.1700 -0.0447  0.6646
54270SOL    HW180802   6.540   4.519   6.159  1.7400 -0.2503 -0.6724
54270SOL    HW280803   6.517   4.377   6.205 -0.3701  0.6161  1.2122
54271SOL     OW80804  13.642   1.735   5.781 -0.3430 -0.1678  0.2333
54271SOL    HW180805  13.618   1.644   5.763  1.6189 -0.3018 -2.3261
54271SOL    HW280806  13.724   1.729   5.830 -0.1470  0.1744 -0.0380
54272SOL     OW80807   2.976  10.172  10.913 -0.4410  0.4933  0.7520
54272SOL    HW180808   2.946  10.093  10.957  0.3454 -0.8481 -1.0261
54272SOL    HW280809   2.916  10.240  10.944 -2.5644 -1.2098  0.6131
54273SOL     OW80810   1.062   0.291   2.488 -0.4466 -0.3138 -0.4176
54273SOL    HW180811   1.126   0.362   2.480  0.4105 -1.0243  0.0758
54273SOL    HW280812   1.083   0.231   2.416 -0.9091 -0.2825 -0.5841
54274SOL     OW80813   3.250   0.313   9.886  0.1485  0.1962 -0.4577
54274SOL    HW180814   3.169   0.301   9.936  0.8779  1.9976  1.3099
54274SOL    HW280815   3.255   0.237   9.828 -2.5073 -0.2269 -0.2265
54275SOL     OW80816   6.802  13.466   0.546 -0.0391  0.8167  0.2003
54275SOL    HW180817   6.843  13.485   0.631 -1.4469 -0.1274  1.1391
54275SOL    HW280818   6.875  13.437   0.491  1.0311  2.2007  0.8173
54276SOL     OW80819  13.071   9.903   7.373 -0.2763  0.0140 -0.6506
54276SOL    HW180820  12.987   9.904   7.328  0.0868 -0.9110 -1.3716
54276SOL    HW280821  13.096   9.811   7.376  0.3981  0.2036  0.1638
54277SOL     OW80822  11.098   4.068   5.264  0.2205 -0.1827 -0.3015
54277SOL    HW180823  11.148   4.127   5.207 -1.0169  0.5002 -0.7231
54277SOL    HW280824  11.126   4.091   5.353  1.2896 -0.4287 -0.5639
54278SOL     OW80825  12.482   3.022   0.241  0.3414 -0.1951 -0.4415
54278SOL    HW180826  12.489   3.061   0.154 -0.4295  0.1900 -0.3391
54278SOL    HW280827  12.393   2.988   0.245  0.5930 -0.8287 -0.0524
54279SOL     OW80828  11.344  10.597   8.439  0.5736 -0.3166 -0.3732
54279SOL    HW180829  11.287  10.618   8.365  2.2327 -0.9182 -1.8982
54279SOL    HW280830  11.304  10.641   8.514 -1.6700 -0.4349 -1.4280
54280SOL     OW80831   4.665  10.004   8.382  0.0140  0.8423 -0.0665
54280SOL    HW180832   4.655   9.925   8.436 -0.0148  0.1305 -1.0929
54280SOL    HW280833   4.576  10.026   8.356  0.0569  1.0157 -0.0636
54281SOL     OW80834   5.235   3.810   8.011 -0.4992  0.8605  0.0080
54281SOL    HW180835   5.247   3.745   8.080 -1.5030  0.8922  0.2394
54281SOL    HW280836   5.207   3.889   8.057 -1.2300  0.8695 -0.4306
54282SOL     OW80837   6.668   0.583  11.823  0.7707 -0.0626 -0.3751
54282SOL    HW180838   6.675   0.676  11.844 -0.6069  0.4636 -1.9934
54282SOL    HW280839   6.578   0.560  11.847  0.2616 -0.2863 -2.3705
54283SOL     OW80840   9.300   0.592   5.630 -0.3917  0.0093  0.8900
54283SOL    HW180841   9.336   0.658   5.689  1.8861  0.3492 -0.7509
54283SOL    HW280842   9.290   0.637   5.546  3.0789 -1.9777 -0.8517
54284SOL     OW80843   7.091   1.002  12.775  0.2605 -0.1664 -0.1898
54284SOL    HW180844   7.077   0.915  12.737  1.3016 -0.6799  0.5277
54284SOL    HW280845   7.048   0.998  12.861  1.9771 -0.7081  0.7099
54285SOL     OW80846   6.089   5.598   8.091  0.0761  0.0985  0.0895
54285SOL    HW180847   6.051   5.661   8.152 -1.4489 -0.7108  0.0129
54285SOL    HW280848   6.139   5.652   8.030 -0.8143  1.1983  0.2915
54286SOL     OW80849   8.854   1.990   1.769  0.0354 -0.1480 -0.3326
54286SOL    HW180850   8.843   1.942   1.850 -1.2282 -1.0782 -1.0219
54286SOL    HW280851   8.864   1.923   1.702 -2.7185  0.4336 -1.4545
54287SOL     OW80852   1.216   6.305  13.832  0.1993  0.3663 -0.1105
54287SOL    HW180853   1.142   6.249  13.812  0.7001  0.0957 -1.2942
54287SOL    HW280854   1.268   6.255  13.895  1.4985 -1.3160 -2.3461
54288SOL     OW80855  10.217   0.832  11.275  0.2261  0.0309  0.2333
54288SOL    HW180856  10.182   0.918  11.297 -0.1662 -0.0122 -0.2045
54288SOL    HW280857  10.140   0.776  11.267  0.5031 -0.4492  0.8718
54289SOL     OW80858   1.172   0.018   2.036 -0.1659 -0.0281  0.2314
54289SOL    HW180859   1.251  -0.014   1.993 -0.6656  0.1806 -0.8611
54289SOL    HW280860   1.120  -0.060   2.053  0.4011 -0.2045  1.2533
54290SOL     OW80861   7.124  11.015   2.178  0.0122  0.0210 -0.7019
54290SOL    HW180862   7.045  10.964   2.163 -0.3170 -0.0232  0.9553
54290SOL    HW280863   7.098  11.081   2.243  0.7390  1.5597 -1.8828
54291SOL     OW80864   6.916  11.297   4.384 -0.1488 -0.2121 -0.0406
54291SOL    HW180865   6.989  11.357   4.368 -1.1449  1.3470  0.9059
54291SOL    HW280866   6.913  11.241   4.306  1.3626  0.4008 -0.5747
54292SOL     OW80867  11.131   8.974   7.457  0.5458 -0.3686 -0.1392
54292SOL    HW180868  11.180   8.956   7.377 -1.4026 -0.1389 -1.4457
54292SOL    HW280869  11.042   8.992   7.427 -0.6631 -1.9711  2.2303
54293SOL     OW80870  13.057   5.775  10.172  0.0375  0.0109 -0.0891
54293SOL    HW180871  13.114   5.823  10.112 -1.4832 -1.6005 -3.0910
54293SOL    HW280872  12.993   5.839  10.201  0.7880  0.8313 -0.2092
54294SOL     OW80873   2.260   4.537  13.967 -0.5786 -0.1848  0.2992
54294SOL    HW180874   2.212   4.610  14.004 -0.2313  0.3412 -0.2740
54294SOL    HW280875   2.205   4.505  13.896 -0.0417  0.4957 -0.4371
54295SOL     OW80876   5.667   5.265  12.196 -0.0482 -0.6786 -0.2513
54295SOL    HW180877   5.724   5.225  12.261 -0.7519 -0.3767  0.5601
54295SOL    HW280878   5.687   5.358  12.201 -0.2011 -0.6395 -0.3758
54296SOL     OW80879   4.368   0.277   1.847 -0.0620 -0.4169  0.1157
54296SOL    HW180880   4.404   0.333   1.915  1.3446  0.0757 -1.0038
54296SOL    HW280881   4.430   0.282   1.774 -2.2431  0.2712 -1.8287
54297SOL     OW80882   7.826   0.395   8.703  0.1255 -0.6001  0.6518
54297SOL    HW180883   7.757   0.366   8.763  0.4922 -0.8060  0.9756
54297SOL    HW280884   7.857   0.315   8.662 -0.8331 -0.3700 -0.6064
54298SOL     OW80885   4.280   3.052  13.745 -0.2581 -0.4303  0.1274
54298SOL    HW180886   4.373   3.076  13.741 -0.7110  1.3306 -0.8787
54298SOL    HW280887   4.279   2.969  13.792  1.7108  0.1480  1.3276
54299SOL     OW80888   4.685   8.167  11.556 -0.0798 -0.2886 -0.2278
54299SOL    HW180889   4.623   8.095  11.543 -0.4989 -0.6127  2.8637
54299SOL    HW280890   4.630   8.245  11.564 -0.0926 -0.4258  1.4535
54300SOL     OW80891   3.295   5.002  12.087  0.5398 -0.1040  0.3628
54300SOL    HW180892   3.372   5.046  12.050  0.3502 -0.7842 -0.8900
54300SOL    HW280893   3.255   5.067  12.144  0.6582  1.1211 -0.9085
54301SOL     OW80894   7.343   6.299   2.372 -0.1439 -0.1154  0.2993
54301SOL    HW180895   7.296   6.376   2.341 -0.8495  0.0252  1.6183
54301SOL    HW280896   7.322   6.294   2.465  1.3588 -0.8567  0.6459
54302SOL     OW80897  12.714   2.870  12.535 -0.1676 -0.0693 -0.4062
54302SOL    HW180898  12.733   2.959  12.505 -0.9564 -0.1376 -1.1460
54302SOL    HW280899  12.623   2.856  12.510  0.4849 -1.7674 -2.0312
54303SOL     OW80900  13.894  12.875   3.360  0.5218  0.4396  0.4217
54303SOL    HW180901  13.949  12.951   3.376  2.0182 -0.6863  0.8604
54303SOL    HW280902  13.934  12.804   3.411  0.8616 -1.3573 -2.1267
54304SOL     OW80903   8.728   2.955  10.846  0.5504 -0.2557 -0.0042
54304SOL    HW180904   8.730   3.025  10.912  1.5372 -0.1526 -0.1225
54304SOL    HW280905   8.797   2.894  10.874  0.8916 -0.2775 -0.8605
54305SOL     OW80906   3.210   3.907   6.079 -0.1021 -0.0752  0.1374
54305SOL    HW180907   3.274   3.837   6.094 -2.0713 -2.0932 -0.3702
54305SOL    HW280908   3.207   3.916   5.984 -0.0864  0.4994  0.1900
54306SOL     OW80909   1.007  14.109  10.185 -0.5184 -0.5222  0.7768
54306SOL    HW180910   1.004  14.060  10.103 -1.3118 -0.1695  0.5811
54306SOL    HW280911   1.083  14.166  10.177 -1.4484  0.6309 -0.3904
54307SOL     OW80912   7.970   1.685  11.843 -0.5426  0.0172  0.5278
54307SOL    HW180913   8.040   1.620  11.837 -0.6954 -0.1527  0.5821
54307SOL    HW280914   7.976   1.734  11.761 -1.0441 -0.6983  0.0440
54308SOL     OW80915   2.282  13.121   4.266  0.1650 -0.3306 -0.3559
54308SOL    HW180916   2.220  13.060   4.306 -0.1507 -0.0405 -0.3895
54308SOL    HW280917   2.368  13.094   4.299 -0.0890 -0.1038  0.5246
54309SOL     OW80918   9.660   6.780   5.500 -0.1589  0.3469  0.0631
54309SOL    HW180919   9.629   6.757   5.588 -2.3965  0.8561 -0.5228
54309SOL    HW280920   9.745   6.737   5.492 -0.4874 -0.7641  2.0023
54310SOL     OW80921  12.196   6.424   4.068  0.5948  0.3123  0.3165
54310SOL    HW180922  12.155   6.351   4.116  0.0845 -0.6958 -1.5551
54310SOL    HW280923  12.289   6.401   4.066  0.6911  0.5944  1.1888
54311SOL     OW80924  13.096   5.128  11.101 -0.5724 -0.4084  0.0277
54311SOL    HW180925  13.046   5.203  11.133 -1.3380 -1.8339  2.4025
54311SOL    HW280926  13.154   5.165  11.034 -0.0637  2.5193  1.8821
54312SOL     OW80927   7.580   9.977   3.996  0.2487 -0.1954  0.4874
54312SOL    HW180928   7.600   9.883   4.001  0.7697 -0.0580  1.1727
54312SOL    HW280929   7.641  10.017   4.058  0.5459  0.6861 -0.3663
54313SOL     OW80930   2.222  11.507  11.169  0.5273 -0.3975 -0.2914
54313SOL    HW180931   2.296  11.549  11.214 -0.7263  0.2505  1.2196
54313SOL    HW280932   2.164  11.580  11.146 -0.6278 -1.0833  0.3931
54314SOL     OW80933   3.633   7.532  14.048  0.2382  0.1032  0.2146
54314SOL    HW180934   3.541   7.540  14.071 -0.0365 -1.2675 -0.3097
54314SOL    HW280935   3.642   7.442  14.015  1.9186 -0.0528  0.9971
54315SOL     OW80936   5.296   1.037   1.376 -0.0676 -0.1959  0.2018
54315SOL    HW180937   5.278   0.980   1.302  1.1098 -1.7675  1.0603
54315SOL    HW280938   5.347   1.109   1.339  0.1584 -0.7535 -0.5945
54316SOL     OW80939  10.675   2.638   8.824 -0.3253 -0.1774 -0.2646
54316SOL    HW180940  10.689   2.654   8.730  2.1460 -2.0560 -0.3285
54316SOL    HW280941  10.746   2.686   8.867 -0.1278 -1.0950  0.4550
54317SOL     OW80942  11.871   1.033   3.255  0.0744 -0.1946 -0.2247
54317SOL    HW180943  11.960   1.067   3.253  0.1706  0.0558  2.9808
54317SOL    HW280944  11.881   0.938   3.255  0.3947 -0.1666  0.6954
54318SOL     OW80945   6.937  11.964   9.134 -0.2615 -0.2239  0.6338
54318SOL    HW180946   6.886  11.938   9.058 -1.9516  2.1179  0.8469
54318SOL    HW280947   6.879  11.947   9.209 -0.4811  1.6720  0.9536
54319SOL     OW80948  10.021   1.155   7.495  0.1294  0.4100  0.3714
54319SOL    HW180949  10.068   1.072   7.495 -1.0004 -0.4021 -2.8296
54319SOL    HW280950   9.929   1.130   7.502 -0.2772  1.2675 -1.3034
54320SOL     OW80951   4.989   1.941   9.641  0.1406  0.6291  0.0082
54320SOL    HW180952   4.948   1.889   9.710 -1.6532  0.8051 -0.8684
54320SOL    HW280953   5.024   2.018   9.687  0.4269 -0.0457  0.9364
54321SOL     OW80954   2.806   8.641   1.262  0.7642  0.1929 -0.1833
54321SOL    HW180955   2.798   8.682   1.348 -1.8403 -2.5298  1.0749
54321SOL    HW280956   2.727   8.669   1.215  1.1453  0.0450 -0.9253
54322SOL     OW80957   4.736   3.837   1.046  0.0998 -0.0101  0.1489
54322SOL    HW180958   4.674   3.877   1.108 -0.0469 -2.0804  1.4322
54322SOL    HW280959   4.696   3.850   0.960 -1.5563 -0.2627  0.8385
54323SOL     OW80960   9.862   9.361   6.969 -0.5149 -0.0458 -0.2882
54323SOL    HW180961   9.804   9.300   6.923 -0.1064 -1.5593  1.1202
54323SOL    HW280962   9.903   9.412   6.899 -0.0966 -2.0956 -1.6272
54324SOL     OW80963   9.393  14.072   4.731 -0.4303  0.6762 -0.3305
54324SOL    HW180964   9.399  14.164   4.705 -1.1293  0.5535 -0.9714
54324SOL    HW280965   9.477  14.034   4.706 -0.2094  1.1005 -0.2307
54325SOL     OW80966   2.054   5.357  11.189  0.6625  0.0624 -0.2102
54325SOL    HW180967   2.133   5.303  11.189  0.9877  0.5320 -0.3784
54325SOL    HW280968   1.992   5.309  11.244  0.9174 -0.5209 -0.4173
54326SOL     OW80969  12.790   0.708   3.228 -0.3841  0.1584 -0.5161
54326SOL    HW180970  12.834   0.757   3.297  0.9583  0.9747 -1.8779
54326SOL    HW280971  12.725   0.655   3.274  0.1506  0.9874  1.3082
54327SOL     OW80972  12.857   9.206  13.715 -0.3319 -0.0689  0.2025
54327SOL    HW180973  12.894   9.281  13.668  0.1725 -0.0539  0.6029
54327SOL    HW280974  12.843   9.238  13.804 -1.1926 -0.1209  0.0926
54328SOL     OW80975   2.381   1.015   9.687  0.1253 -0.2151 -0.2424
54328SOL    HW180976   2.325   1.014   9.764  0.5359 -2.4323  0.0776
54328SOL    HW280977   2.470   1.007   9.721  0.7149  2.6567 -0.7774
54329SOL     OW80978   0.979   9.833  11.923  0.2590  0.1511 -0.5935
54329SOL    HW180979   0.913   9.898  11.899  1.6548  1.5049 -0.9246
54329SOL    HW280980   0.988   9.778  11.845 -1.8406 -1.3307  0.1120
54330SOL     OW80981   9.491   3.079  10.629  0.6545 -0.1889  0.4686
54330SOL    HW180982   9.438   3.130  10.689  0.6208 -1.2050  1.3395
54330SOL    HW280983   9.489   2.990  10.665  2.6949 -0.3226  0.3635
54331SOL     OW80984  11.708  11.080   7.175 -0.5973  0.2677  0.0243
54331SOL    HW180985  11.703  11.096   7.269  0.3462  2.3324 -0.2255
54331SOL    HW280986  11.734  11.164   7.137  0.8376 -0.9469 -1.9160
54332SOL     OW80987   9.351   2.550  11.181  0.6441  0.0210  0.5674
54332SOL    HW180988   9.445   2.546  11.160  0.9325  1.5611  1.4618
54332SOL    HW280989   9.339   2.484  11.250  1.1004 -0.0478  0.5843
54333SOL     OW80990   2.341  10.991  11.065  0.7179 -0.8009  0.4057
54333SOL    HW180991   2.329  11.080  11.033 -0.9968 -1.0877  0.1643
54333SOL    HW280992   2.430  10.968  11.038  1.5025  1.0919  1.1874
54334SOL     OW80993  11.732   8.521   9.982  0.0667  0.0177 -0.2012
54334SOL    HW180994  11.692   8.440  10.012 -0.1385  0.2905  0.2631
54334SOL    HW280995  11.822   8.497   9.958 -0.0973 -0.4101 -0.3913
54335SOL     OW80996   8.795   9.860   1.078  0.0313  0.6314  1.0785
54335SOL    HW180997   8.740   9.890   1.150 -0.2893  2.1944  0.2527
54335SOL    HW280998   8.740   9.873   1.000  1.1832  1.2625  0.3430
54336SOL     OW80999   9.658   0.304   2.560  0.2957 -0.4000 -0.0306
54336SOL    HW181000   9.608   0.333   2.636  1.5389  1.1570  0.2664
54336SOL    HW281001   9.708   0.382   2.534  1.4240 -1.4695 -1.1958
54337SOL     OW81002   4.336   5.650   6.653 -0.5220  0.0005 -0.3185
54337SOL    HW181003   4.361   5.566   6.691  0.6542  0.4815 -0.0046
54337SOL    HW281004   4.309   5.703   6.727 -0.7283  0.0886 -0.4554
54338SOL     OW81005  14.137   9.775   6.182  1.4433 -0.2753 -0.2370
54338SOL    HW181006  14.123   9.821   6.264  0.6537  1.2657 -1.1854
54338SOL    HW281007  14.232   9.764   6.177  1.5739  0.4743  0.4247
54339SOL     OW81008   2.696   3.149   4.820  0.0832 -0.2227 -0.2304
54339SOL    HW181009   2.761   3.079   4.819 -0.3706 -0.8502  2.8536
54339SOL    HW281010   2.612   3.104   4.827 -0.4843  0.6287 -1.2559
54340SOL     OW81011  13.969   3.348   8.517 -0.0606 -0.2239 -0.4571
54340SOL    HW181012  14.049   3.299   8.499 -0.5507 -1.1337 -0.2280
54340SOL    HW281013  13.900   3.282   8.522 -0.5442  0.3233  1.1420
54341SOL     OW81014   4.103   9.138  11.138 -0.7637 -0.1246 -0.2361
54341SOL    HW181015   4.085   9.048  11.167 -0.5251  0.4306  1.8241
54341SOL    HW281016   4.026   9.187  11.164 -0.8742  0.2886 -1.3214
54342SOL     OW81017   9.897  13.926   0.015 -0.9066 -0.1933  0.1029
54342SOL    HW181018   9.948  13.868   0.072 -1.5341 -0.2199  0.6653
54342SOL    HW281019   9.835  13.867  -0.029  0.0141 -0.2622 -1.1296
54343SOL     OW81020   4.179   1.419   9.501 -0.0454  0.1515  0.4262
54343SOL    HW181021   4.115   1.432   9.430 -1.1200  1.6306  1.5882
54343SOL    HW281022   4.173   1.326   9.522 -1.7677  0.2325  0.4359
54344SOL     OW81023   0.558  12.589   0.031 -0.4443 -0.2596  0.1710
54344SOL    HW181024   0.620  12.638  -0.022 -1.0087 -0.1816 -0.4284
54344SOL    HW281025   0.603  12.506   0.049  0.0165 -0.0217  0.1475
54345SOL     OW81026   7.170   8.920   6.166 -0.0708  0.5589  0.2105
54345SOL    HW181027   7.105   8.891   6.101 -0.6598 -2.1616  1.8235
54345SOL    HW281028   7.234   8.849   6.168  2.6164  2.7698 -0.6800
54346SOL     OW81029   7.769  13.835   6.244  0.3862 -0.2167 -0.2924
54346SOL    HW181030   7.830  13.825   6.317 -0.6712 -0.2505  0.6099
54346SOL    HW281031   7.687  13.799   6.277 -0.5139  1.1423 -0.9734
54347SOL     OW81032  12.955   6.207  11.429  0.5308  0.1014 -0.2515
54347SOL    HW181033  12.886   6.254  11.383  0.2959  1.8063  1.7376
54347SOL    HW281034  13.036   6.237  11.387  0.3237  1.6718  0.4001
54348SOL     OW81035   6.723  10.816   3.846  0.2663 -0.0251 -0.3865
54348SOL    HW181036   6.763  10.815   3.759  0.5381  0.7840 -0.2773
54348SOL    HW281037   6.760  10.893   3.889 -1.8833  1.1761 -0.5141
54349SOL     OW81038   6.928   5.598   5.922 -0.5666  0.0035 -0.0787
54349SOL    HW181039   7.009   5.551   5.943 -1.9073 -2.5959 -0.2978
54349SOL    HW281040   6.868   5.575   5.994 -1.7646  0.1295 -1.0096
54350SOL     OW81041   1.492  10.339   4.023 -0.1001 -0.2693 -0.5944
54350SOL    HW181042   1.580  10.336   3.985  1.0294 -0.4141  1.8563
54350SOL    HW281043   1.462  10.248   4.021  0.4033 -0.4464 -0.1306
54351SOL     OW81044  12.023   0.312   8.011 -0.3055  0.3216 -0.1248
54351SOL    HW181045  12.083   0.374   7.969 -0.4561 -1.3995 -3.1873
54351SOL    HW281046  11.966   0.281   7.941 -3.3678  0.1507  2.1963
54352SOL     OW81047   8.391   4.542   9.349 -0.0387  0.3237  0.2290
54352SOL    HW181048   8.311   4.564   9.396  0.7058  1.2542  1.1194
54352SOL    HW281049   8.368   4.554   9.257 -0.7303  1.2821  0.5075
54353SOL     OW81050  12.130  13.523   3.090  0.3582  0.0659  0.7194
54353SOL    HW181051  12.151  13.439   3.131 -0.1311 -0.8626 -0.8328
54353SOL    HW281052  12.061  13.560   3.145  0.1843 -0.8182  1.1118
54354SOL     OW81053   1.715   5.082   4.772  0.0411  0.1733 -0.1632
54354SOL    HW181054   1.769   5.064   4.850  0.3769  0.9525 -0.2100
54354SOL    HW281055   1.691   4.995   4.740 -1.3406 -0.1812  1.6530
54355SOL     OW81056   1.648  13.824  10.587  1.2102  0.0287 -0.7581
54355SOL    HW181057   1.605  13.904  10.556  1.4532  0.0176 -1.1164
54355SOL    HW281058   1.615  13.755  10.530 -0.6200 -0.5143  0.8194
54356SOL     OW81059  13.622  12.603   3.039 -0.1497  0.0738 -0.6762
54356SOL    HW181060  13.591  12.532   3.095  2.8487 -1.7623 -1.1147
54356SOL    HW281061  13.551  12.615   2.975 -2.3922  0.2374  1.6999
54357SOL     OW81062   9.423  10.600   5.063  0.8498  0.0633  0.2818
54357SOL    HW181063   9.496  10.571   5.118 -0.6101 -3.4628  0.6256
54357SOL    HW281064   9.440  10.559   4.978 -0.6077 -0.6986  0.3317
54358SOL     OW81065   8.745   3.768  11.627 -0.0940 -0.4517 -0.2796
54358SOL    HW181066   8.688   3.768  11.550  2.5874  0.3863 -2.4285
54358SOL    HW281067   8.809   3.699  11.611  0.2766 -0.5660  1.4424
54359SOL     OW81068   7.041   9.249  14.109  0.2497  0.0537 -0.1719
54359SOL    HW181069   7.113   9.311  14.110  1.8112 -1.6823  0.7228
54359SOL    HW281070   7.076   9.172  14.065 -1.4251 -0.4642 -0.6889
54360SOL     OW81071   2.715   7.054   6.882  0.0365 -0.5769  0.6585
54360SOL    HW181072   2.694   6.965   6.911 -0.5149 -0.2551  1.2834
54360SOL    HW281073   2.651   7.110   6.927 -0.8613 -0.0421 -1.1772
54361SOL     OW81074  12.371   6.609   6.351  0.3156  0.2830 -0.2173
54361SOL    HW181075  12.452   6.660   6.353 -0.2251  1.3090 -1.7770
54361SOL    HW281076  12.396   6.526   6.311  0.7854  0.1992  0.2392
54362SOL     OW81077  10.020   8.259   7.068  0.0686  0.4906  0.2315
54362SOL    HW181078  10.065   8.277   6.985  0.5995 -0.9563  0.1737
54362SOL    HW281079  10.031   8.340   7.119 -0.1351  1.3497 -1.0295
54363SOL     OW81080   2.198  10.116  12.224 -0.2012 -0.4471 -0.0628
54363SOL    HW181081   2.192  10.068  12.142  0.4377  0.4170 -0.6307
54363SOL    HW281082   2.132  10.076  12.281  0.2333 -1.9035 -0.5481
54364SOL     OW81083  11.819   6.681  13.972 -0.4138  0.0802  0.4951
54364SOL    HW181084  11.823   6.645  13.883 -1.5806 -0.0156  0.4688
54364SOL    HW281085  11.896   6.646  14.016  1.7481  2.2628 -1.2479
54365SOL     OW81086  12.692   9.068   4.157 -0.6358  0.3248 -0.1807
54365SOL    HW181087  12.625   8.999   4.153 -0.1796 -0.0626 -1.5431
54365SOL    HW281088  12.763   9.037   4.101 -0.0997  1.5737 -0.2398
54366SOL     OW81089  11.501   3.010  12.210  0.3194  0.7303  0.4620
54366SOL    HW181090  11.453   3.090  12.231  1.2163  1.4680 -0.1997
54366SOL    HW281091  11.460   2.978  12.129 -1.8411 -1.0356  2.1185
54367SOL     OW81092   4.338  10.152   7.351  0.3850  0.4624  0.1278
54367SOL    HW181093   4.360  10.067   7.314  0.9280  0.0075  1.4301
54367SOL    HW281094   4.284  10.194   7.284 -1.7350 -1.7490  0.2975
54368SOL     OW81095   0.759  11.242  12.637  0.9864  0.3826 -0.0894
54368SOL    HW181096   0.808  11.309  12.590  1.9159 -0.7863 -0.8604
54368SOL    HW281097   0.794  11.159  12.604 -1.3116 -0.5191 -0.4544
54369SOL     OW81098   8.619  12.948   1.902  0.4313  0.5248  0.0087
54369SOL    HW181099   8.616  12.854   1.882  0.7089  0.3944  0.5555
54369SOL    HW281100   8.559  12.988   1.840 -1.5700 -0.3050  1.3073
54370SOL     OW81101  11.254   0.862   8.027 -0.2082 -0.2525 -0.3376
54370SOL    HW181102  11.336   0.813   8.020  0.1787  0.2468  0.5884
54370SOL    HW281103  11.280   0.952   8.044 -0.9415 -0.4404  2.1331
54371SOL     OW81104   9.037   1.595   1.680 -0.5046  0.1995  0.0468
54371SOL    HW181105   9.128   1.585   1.706 -0.9336 -1.6194  1.0701
54371SOL    HW281106   9.039   1.598   1.585  0.5663 -0.8641  0.0150
54372SOL     OW81107   7.946   6.446   3.027 -0.0241 -0.4071 -0.1346
54372SOL    HW181108   7.883   6.503   2.982  0.9766 -0.3163 -1.4946
54372SOL    HW281109   7.896   6.407   3.099 -0.8056  2.0053  0.7348
54373SOL     OW81110   6.027   5.613   2.226  0.2616 -0.1482 -1.2512
54373SOL    HW181111   6.052   5.705   2.220 -0.4935  0.1514 -0.0725
54373SOL    HW281112   5.932   5.613   2.218  0.1376 -0.6803 -0.0161
54374SOL     OW81113   4.091  10.100   6.441 -0.0172 -0.2438  0.7915
54374SOL    HW181114   4.053  10.166   6.383  0.9712  1.5409  2.0727
54374SOL    HW281115   4.184  10.098   6.416  0.2853  0.0828  1.8579
54375SOL     OW81116   5.052   1.836   9.270 -0.3317  0.5797 -0.2941
54375SOL    HW181117   4.967   1.803   9.299 -0.6795  1.9872  0.3543
54375SOL    HW281118   5.063   1.918   9.318  2.2448 -0.4610  1.1103
54376SOL     OW81119   0.239   0.714  13.111  0.4684  0.4029 -0.2185
54376SOL    HW181120   0.196   0.719  13.196  0.5739  2.1562 -0.2277
54376SOL    HW281121   0.327   0.682  13.130  0.2224 -0.0218  0.2154
54377SOL     OW81122  13.970   2.565   6.968  0.2489 -0.3522  0.2550
54377SOL    HW181123  13.992   2.611   6.887 -0.5481  0.2339  0.3609
54377SOL    HW281124  14.040   2.500   6.978  0.2299 -0.5939 -1.0175
54378SOL     OW81125  10.191   7.080  10.482 -0.9455  0.3921 -0.3915
54378SOL    HW181126  10.143   7.019  10.427 -0.8723 -0.2466  0.2340
54378SOL    HW281127  10.144   7.080  10.565 -0.7887  0.9866 -0.2927
54379SOL     OW81128   7.654   6.599   2.490 -0.3965 -0.1803 -0.3536
54379SOL    HW181129   7.636   6.521   2.542 -1.8178  0.9964  1.0187
54379SOL    HW281130   7.591   6.594   2.418  0.8608 -1.2629 -1.4457
54380SOL     OW81131  13.921   3.622   4.251  0.4605  0.1222  0.5636
54380SOL    HW181132  13.999   3.659   4.209  0.0349  0.2449 -0.1331
54380SOL    HW281133  13.850   3.638   4.189  0.2287 -1.7862  0.2765
54381SOL     OW81134  11.607  11.415   1.786  0.6620 -0.0121 -0.2338
54381SOL    HW181135  11.605  11.464   1.704  0.5550  0.0637 -0.1864
54381SOL    HW281136  11.538  11.455   1.840  0.4354 -0.3468 -0.2743
54382SOL     OW81137  13.197   3.671  11.136  0.1421 -0.2501  0.2396
54382SOL    HW181138  13.172   3.617  11.061  0.5621  2.1742 -1.7822
54382SOL    HW281139  13.152   3.754  11.121  1.2505  0.7231  2.0378
54383SOL     OW81140   9.550   3.594  10.147  0.0530  0.8520 -0.3691
54383SOL    HW181141   9.538   3.531  10.076 -4.3978 -0.5073  1.2564
54383SOL    HW281142   9.624   3.559  10.197 -1.1871 -2.2878 -0.4842
54384SOL     OW81143  10.791   6.660  11.428 -0.6062  0.0331  0.6539
54384SOL    HW181144  10.838   6.593  11.477 -1.3902 -0.6748  0.4599
54384SOL    HW281145  10.701   6.655  11.461 -1.6923 -1.8866 -2.2188
54385SOL     OW81146   8.636  12.426  10.052 -0.1923 -0.1498 -0.0655
54385SOL    HW181147   8.694  12.380  10.112 -1.0060  0.3875  1.1719
54385SOL    HW281148   8.554  12.376  10.055 -0.6776  0.6454  0.3388
54386SOL     OW81149   2.376   3.146   8.676 -0.5385  0.6339  0.0280
54386SOL    HW181150   2.458   3.143   8.627 -1.2428 -0.0494 -1.1687
54386SOL    HW281151   2.369   3.060   8.717 -1.3586  0.1235 -1.1248
54387SOL     OW81152   3.262   9.889   4.941  0.2928 -0.3314 -0.4110
54387SOL    HW181153   3.290   9.979   4.923 -0.7483  0.1239  0.1629
54387SOL    HW281154   3.305   9.867   5.024 -1.6831  0.7079  0.9683
54388SOL     OW81155  13.968   5.894  10.096 -0.2865 -0.3093  0.0889
54388SOL    HW181156  14.037   5.939  10.145 -1.1777  0.3334  0.7775
54388SOL    HW281157  13.944   5.955  10.026  0.1767 -0.7450 -0.4662
54389SOL     OW81158   1.998  13.491   1.028  0.3783 -0.8649 -0.0618
54389SOL    HW181159   1.944  13.518   1.103  0.4850  1.7974 -0.8438
54389SOL    HW281160   2.077  13.545   1.035  0.4407 -0.6379 -2.0024
54390SOL     OW81161   0.339   4.210  12.975  0.4576 -0.1429 -0.2102
54390SOL    HW181162   0.339   4.172  13.063  1.0939 -1.4157 -0.7187
54390SOL    HW281163   0.322   4.135  12.918 -1.8919  0.9885 -1.0791
54391SOL     OW81164   6.756  11.701   6.708  0.5036  0.5781 -0.4965
54391SOL    HW181165   6.743  11.697   6.802 -0.6197 -2.4605 -0.6454
54391SOL    HW281166   6.851  11.705   6.696  0.7690 -0.7644  0.8287
54392SOL     OW81167   1.064   5.378  13.274 -0.0173 -0.9193 -0.1384
54392SOL    HW181168   0.981   5.374  13.226 -1.1272  0.1816  1.5970
54392SOL    HW281169   1.071   5.293  13.317 -0.4766 -0.8455  0.0832
54393SOL     OW81170   4.582   0.474   7.243 -0.6478  0.5749  0.2596
54393SOL    HW181171   4.662   0.508   7.203 -0.5434  1.6916  1.3340
54393SOL    HW281172   4.555   0.402   7.187  1.7506 -0.5790  0.4991
54394SOL     OW81173   8.070  10.936   4.006 -0.5744 -0.0302  0.1578
54394SOL    HW181174   8.098  11.027   4.011 -0.6689 -0.0452  1.2336
54394SOL    HW281175   7.993  10.931   4.063 -0.5605 -0.7793  0.1283
54395SOL     OW81176  10.911  14.121   7.316 -0.7868  1.1995  0.1667
54395SOL    HW181177  10.874  14.043   7.357  2.2306  0.3278  1.5346
54395SOL    HW281178  10.933  14.093   7.227 -1.7484  1.1940 -0.0753
54396SOL     OW81179   3.689   3.060  12.746 -0.2324  0.1692 -0.4180
54396SOL    HW181180   3.665   3.036  12.835  1.1135  1.3093  0.2980
54396SOL    HW281181   3.749   2.991  12.717  0.1401  0.3312 -0.0396
54397SOL     OW81182   4.913  14.062   4.946 -0.4101  0.0048 -0.3070
54397SOL    HW181183   4.848  13.999   4.975 -3.2123  2.7666  0.0069
54397SOL    HW281184   4.901  14.137   5.005  4.0877  0.2654  0.6591
54398SOL     OW81185   6.616   3.646  12.701  0.5184  0.2258 -0.4550
54398SOL    HW181186   6.697   3.660  12.751  0.3229  1.7982 -0.5416
54398SOL    HW281187   6.609   3.723  12.645  0.3688 -1.1739 -2.4491
54399SOL     OW81188   6.459   5.656   7.585 -0.4620  0.0519  0.2708
54399SOL    HW181189   6.537   5.604   7.606 -2.4288 -2.9062  0.9402
54399SOL    HW281190   6.416   5.669   7.669 -1.5472  0.1325 -0.2888
54400SOL     OW81191   8.750  10.785  12.601  0.1346 -0.3434  0.0675
54400SOL    HW181192   8.844  10.767  12.605  0.3546 -0.7838 -3.4185
54400SOL    HW281193   8.709  10.698  12.604  0.1177 -0.4146 -1.2907
54401SOL     OW81194  13.943   7.116   7.924 -0.2436 -0.2009 -0.7815
54401SOL    HW181195  13.915   7.184   7.862  0.4885  1.3167  0.4804
54401SOL    HW281196  13.872   7.112   7.988  0.8331  1.2848  0.5820
54402SOL     OW81197   1.405  10.140   7.481 -0.0103 -0.7331  0.1285
54402SOL    HW181198   1.441  10.096   7.559  1.1245 -0.6947 -0.3596
54402SOL    HW281199   1.318  10.169   7.508 -0.3746 -2.3285  0.8177
54403SOL     OW81200   1.194   8.186   5.978 -0.5328  0.0760 -0.0357
54403SOL    HW181201   1.197   8.255   6.045 -1.4292  0.2214 -0.1347
54403SOL    HW281202   1.109   8.198   5.935 -0.3805 -0.6337 -0.5487
54404SOL     OW81203   8.039   7.808  13.534  0.1008  0.4029  0.5275
54404SOL    HW181204   7.945   7.792  13.529  0.1330  0.1753  0.6356
54404SOL    HW281205   8.078   7.721  13.541  0.0490  0.5003  5.0404
54405SOL     OW81206   8.447  11.763   3.632  0.3323  0.3238 -0.7571
54405SOL    HW181207   8.487  11.676   3.632 -1.1809 -0.5051  2.3402
54405SOL    HW281208   8.475  11.802   3.714 -1.1965  1.6519 -0.8230
54406SOL     OW81209  13.956   4.448   2.812 -0.4216  0.2191 -0.6218
54406SOL    HW181210  14.006   4.369   2.791  0.4797  0.6486 -0.1008
54406SOL    HW281211  13.933   4.438   2.904 -1.0682  0.1602 -0.7815
54407SOL     OW81212  13.497   6.412  12.220 -0.1013  0.3433 -0.2624
54407SOL    HW181213  13.454   6.464  12.152  0.3424  0.7376 -0.2460
54407SOL    HW281214  13.442   6.425  12.298 -0.4115  0.1756 -0.4509
54408SOL     OW81215   1.501   9.655   2.353 -0.1894  0.3236  0.4043
54408SOL    HW181216   1.537   9.700   2.429 -0.5658 -0.1293  0.8595
54408SOL    HW281217   1.406   9.656   2.367 -0.2158 -0.4736  0.3566
54409SOL     OW81218   7.328   0.372  11.744 -0.1747  0.2473  0.0997
54409SOL    HW181219   7.376   0.338  11.668  0.6436  1.8555 -0.1441
54409SOL    HW281220   7.301   0.460  11.718  1.9270  1.6762  2.3918
54410SOL     OW81221  11.919  12.278  12.416  0.0852  0.0038 -0.1485
54410SOL    HW181222  11.975  12.355  12.424  0.3851 -0.1841 -0.4064
54410SOL    HW281223  11.856  12.302  12.347 -1.0673  0.7553  1.1165
54411SOL     OW81224   6.717   9.627   8.113  0.1997 -0.4393  0.3011
54411SOL    HW181225   6.692   9.705   8.063  0.3280 -0.6577 -0.1088
54411SOL    HW281226   6.745   9.661   8.198  1.5235  0.0998 -0.3240
54412SOL     OW81227   0.749   7.744  13.065 -0.1026  0.2046 -0.0301
54412SOL    HW181228   0.809   7.815  13.042 -0.6093  0.2744 -1.2386
54412SOL    HW281229   0.703   7.775  13.143  1.3961  0.1469  0.9075
54413SOL     OW81230   2.169  14.145   4.272 -0.0191 -0.3630  0.0443
54413SOL    HW181231   2.202  14.185   4.353  1.7683 -0.7760 -0.4380
54413SOL    HW281232   2.075  14.138   4.286  0.1229  0.4564  1.7030
54414SOL     OW81233   3.932   8.877   1.456  0.0906  0.5313  0.4411
54414SOL    HW181234   3.849   8.845   1.422  1.2896  0.1109 -2.3301
54414SOL    HW281235   3.967   8.803   1.507 -1.5646  1.0407  2.4657
54415SOL     OW81236   2.522  12.101   0.525 -0.2509  0.1395  0.4244
54415SOL    HW181237   2.462  12.078   0.455  0.5431 -2.1503  0.3997
54415SOL    HW281238   2.541  12.018   0.569  0.3141  1.2951  2.5320
54416SOL     OW81239  12.167   1.223  12.880  0.1742 -0.7915 -0.5825
54416SOL    HW181240  12.117   1.258  12.953  0.0834 -0.3018 -0.8779
54416SOL    HW281241  12.259   1.230  12.907  0.0879 -2.4366  0.3002
54417SOL     OW81242   0.357   1.678   0.978 -0.3104 -0.5599  0.0326
54417SOL    HW181243   0.288   1.640   0.924 -0.2216 -1.4255  0.5087
54417SOL    HW281244   0.374   1.612   1.046 -0.0611  0.2857  0.8137
54418SOL     OW81245  12.008   1.159   4.368 -0.2900  0.3877  0.2677
54418SOL    HW181246  11.925   1.173   4.324  0.2678  3.2855 -0.0664
54418SOL    HW281247  11.987   1.105   4.444 -1.8928 -1.5613 -1.4492
54419SOL     OW81248   1.724  13.429   3.113  0.5795  0.4522 -0.0463
54419SOL    HW181249   1.801  13.374   3.095  1.1075  1.1841 -0.0597
54419SOL    HW281250   1.734  13.453   3.206  0.9976  1.4956 -0.3461
54420SOL     OW81251   5.705   6.580   8.408 -0.6107  0.2222  0.0349
54420SOL    HW181252   5.796   6.560   8.383 -0.5084  0.7781 -0.0461
54420SOL    HW281253   5.707   6.582   8.504 -0.8682 -1.2838  0.0880
54421SOL     OW81254  13.240  10.674  10.371 -0.4610  0.0017 -0.1339
54421SOL    HW181255  13.172  10.726  10.329 -1.3872  0.6229  1.9788
54421SOL    HW281256  13.260  10.605  10.308 -1.9677  0.6669 -1.4176
54422SOL     OW81257   7.381   7.901  13.368 -0.6544 -0.4642 -0.4546
54422SOL    HW181258   7.465   7.867  13.337 -1.3839 -0.8995 -2.0233
54422SOL    HW281259   7.405   7.973  13.428  0.8245 -0.3501 -1.1504
54423SOL     OW81260  11.491   1.847   7.491  0.7927 -0.3212  0.6400
54423SOL    HW181261  11.506   1.921   7.551  0.6974  0.3125 -0.1008
54423SOL    HW281262  11.532   1.874   7.409 -2.3856  0.5518 -0.8178
54424SOL     OW81263  12.665   7.833  12.361 -0.0660 -0.2485  0.0719
54424SOL    HW181264  12.594   7.772  12.382 -0.4168  0.7085  1.8598
54424SOL    HW281265  12.644   7.912  12.410  1.8679  0.3102  0.0808
54425SOL     OW81266  10.815   6.770   7.786 -0.3026 -0.6360 -1.0487
54425SOL    HW181267  10.910   6.770   7.789 -0.1720  2.2746 -2.1603
54425SOL    HW281268  10.792   6.688   7.741  1.6093 -1.5726 -0.4084
54426SOL     OW81269  11.742  12.872   5.034 -0.3008 -0.6372  0.1423
54426SOL    HW181270  11.727  12.778   5.022  1.2158 -0.9519  0.3648
54426SOL    HW281271  11.804  12.895   4.966 -0.1542  0.0511  0.5008
54427SOL     OW81272   0.832   3.530   5.145 -0.1602 -0.4949  0.1106
54427SOL    HW181273   0.773   3.485   5.085  0.0080 -0.2442 -0.2488
54427SOL    HW281274   0.844   3.468   5.217 -0.1540 -0.9157 -0.2428
54428SOL     OW81275   8.537   0.986   1.790  0.0927  0.0821  0.3492
54428SOL    HW181276   8.516   0.903   1.834  0.2419  0.1835  0.6160
54428SOL    HW281277   8.508   1.053   1.852  3.4529  0.2852  1.9327
54429SOL     OW81278   2.800   3.509   6.742 -0.2912 -0.0528  0.3357
54429SOL    HW181279   2.776   3.439   6.682  0.7262 -0.0152 -0.1410
54429SOL    HW281280   2.751   3.586   6.712  0.2508 -0.0203 -0.4955
54430SOL     OW81281  13.662  11.778   2.889 -0.1000  0.6931 -1.1495
54430SOL    HW181282  13.679  11.843   2.957 -1.3315  0.7919 -0.9115
54430SOL    HW281283  13.745  11.770   2.842  1.4255 -0.8482  1.5806
54431SOL     OW81284   9.561   8.661   3.510 -0.3159  0.5235 -0.0583
54431SOL    HW181285   9.511   8.609   3.446 -0.7835  1.1759 -0.2404
54431SOL    HW281286   9.648   8.622   3.510 -0.9254 -0.9149  0.5719
54432SOL     OW81287  12.868   2.404  11.161  0.4041  0.1266 -0.0571
54432SOL    HW181288  12.862   2.441  11.249 -0.0759  0.0365 -0.0524
54432SOL    HW281289  12.961   2.410  11.139  0.9068 -1.9143  1.3510
54433SOL     OW81290  10.031   1.941  11.806  0.2322  0.1253 -0.2731
54433SOL    HW181291  10.067   1.918  11.892 -0.5354 -2.3597 -0.5479
54433SOL    HW281292   9.971   2.014  11.824 -0.8010 -1.0869  1.5231
54434SOL     OW81293   1.950   5.290   3.825 -0.0038 -0.5540 -0.3308
54434SOL    HW181294   2.036   5.321   3.797 -0.5797  0.0945 -1.4422
54434SOL    HW281295   1.955   5.289   3.920  0.9656  0.2756 -0.3554
54435SOL     OW81296   6.484   8.096   9.703  0.4004 -0.4233  0.0827
54435SOL    HW181297   6.430   8.112   9.780 -1.5148 -1.6162 -0.9408
54435SOL    HW281298   6.480   8.002   9.689  0.7585 -0.2455 -1.4331
54436SOL     OW81299   0.124   2.007   7.139  0.0688 -0.5351  0.1635
54436SOL    HW181300   0.181   1.978   7.211  1.3372  2.4479  0.4948
54436SOL    HW281301   0.182   2.056   7.081 -1.4373 -0.8018 -1.6500
54437SOL     OW81302   3.890  11.880   3.514  0.0891 -0.2271 -0.0681
54437SOL    HW181303   3.933  11.937   3.451  1.8914 -1.2307  0.1976
54437SOL    HW281304   3.913  11.916   3.599 -1.2008  0.3182  0.0814
54438SOL     OW81305  13.772   0.751  13.388 -0.6258 -0.6300 -0.2594
54438SOL    HW181306  13.806   0.671  13.429  1.6677  0.0999 -0.5698
54438SOL    HW281307  13.846   0.812  13.389 -1.9287  1.0635 -1.1741
54439SOL     OW81308   9.983  11.339   6.931 -0.5433  0.1041  0.2857
54439SOL    HW181309   9.936  11.413   6.893 -1.6207 -0.4846  0.4164
54439SOL    HW281310  10.007  11.285   6.856  0.4575  0.6929  0.1698
54440SOL     OW81311  12.788   9.130   7.448  0.4975 -0.1191  0.0257
54440SOL    HW181312  12.699   9.134   7.483  0.4398  0.4235 -0.1667
54440SOL    HW281313  12.843   9.114   7.524  0.1410 -1.5812 -0.0011
54441SOL     OW81314  12.216  12.616   6.847  0.4261  0.6035 -0.5390
54441SOL    HW181315  12.141  12.628   6.789 -0.9241 -0.0989  1.0018
54441SOL    HW281316  12.249  12.705   6.862 -2.1945  1.3641  1.3983
54442SOL     OW81317   5.882  13.463  12.490 -0.2148 -0.3832 -0.0465
54442SOL    HW181318   5.971  13.471  12.526  0.6250 -0.0956 -2.0214
54442SOL    HW281319   5.830  13.427  12.562  1.1244  0.9762  1.7104
54443SOL     OW81320   5.085  12.584   2.632 -0.3101 -0.0784  0.4528
54443SOL    HW181321   5.037  12.621   2.558  0.5769  0.1523 -0.0237
54443SOL    HW281322   5.128  12.659   2.672  1.0795 -0.5004 -0.1991
54444SOL     OW81323   0.267   6.915   8.151  0.5464 -0.0787  0.4367
54444SOL    HW181324   0.322   6.989   8.124 -0.1629  0.3722  0.2197
54444SOL    HW281325   0.319   6.872   8.219  1.1353  0.3897  0.3007
54445SOL     OW81326   6.799   7.411  11.035  0.0758 -0.5349 -0.2053
54445SOL    HW181327   6.852   7.341  11.071 -0.4617 -1.8318 -1.8265
54445SOL    HW281328   6.860   7.465  10.984  1.0194  1.8149  3.0727
54446SOL     OW81329  13.241  10.591   8.173 -0.3329 -0.1353  0.3757
54446SOL    HW181330  13.306  10.537   8.217 -1.6201 -0.0283  2.5135
54446SOL    HW281331  13.200  10.532   8.110 -0.6396 -1.2293  1.5649
54447SOL     OW81332   7.348   5.709   9.505  0.8900  0.3670 -0.0004
54447SOL    HW181333   7.347   5.797   9.470  0.9614  0.1476 -0.5572
54447SOL    HW281334   7.432   5.701   9.550  0.8482  0.6037  0.1232
54448SOL     OW81335   4.803   5.792   1.705 -0.2334 -0.3971  0.2517
54448SOL    HW181336   4.773   5.823   1.620 -1.1587 -1.5167  0.1488
54448SOL    HW281337   4.898   5.798   1.701 -0.2877  3.7311  0.7421
54449SOL     OW81338   5.614   7.221   9.731  0.1124 -0.2353 -0.1225
54449SOL    HW181339   5.676   7.175   9.787 -1.3623 -1.1087  0.8694
54449SOL    HW281340   5.557   7.152   9.697  0.0868  0.4549 -1.5811
54450SOL     OW81341  12.920   2.047   2.224  0.1902 -0.1707 -0.1594
54450SOL    HW181342  12.836   2.064   2.266  1.1772  3.4930  0.6973
54450SOL    HW281343  12.977   2.016   2.295  0.1473 -0.4766 -0.2576
54451SOL     OW81344  13.099  12.426   7.870 -0.1562  0.4429  0.1179
54451SOL    HW181345  13.141  12.502   7.911  2.3621  0.0690 -1.4932
54451SOL    HW281346  13.045  12.464   7.800  1.2055  0.8220 -0.7770
54452SOL     OW81347  11.993  13.004   8.711 -0.4074 -0.0179  0.3696
54452SOL    HW181348  11.937  12.998   8.633 -0.2790 -1.5083  0.3601
54452SOL    HW281349  12.012  12.913   8.733  0.6788  0.4301  1.3453
54453SOL     OW81350   4.743  10.795   4.463  0.4408  0.8477 -0.3598
54453SOL    HW181351   4.698  10.851   4.526 -0.8276 -1.0844  0.5280
54453SOL    HW281352   4.818  10.759   4.512 -1.8672 -2.5485  1.0063
54454SOL     OW81353   2.109   0.204   2.672 -0.2732  0.3524  1.0145
54454SOL    HW181354   2.032   0.152   2.696 -0.2122  0.2092  0.8897
54454SOL    HW281355   2.183   0.159   2.713  0.1900 -1.3089 -1.4559
54455SOL     OW81356   9.889   0.914   2.300  0.2637  0.2806  0.2284
54455SOL    HW181357   9.809   0.941   2.347  1.3080  1.5423  1.3829
54455SOL    HW281358   9.903   0.823   2.326 -1.0069 -0.0879 -0.3125
54456SOL     OW81359  10.600   1.533   3.722  1.0984  0.1712 -0.2649
54456SOL    HW181360  10.565   1.569   3.641 -0.9080  1.1036  0.9528
54456SOL    HW281361  10.692   1.560   3.722  1.1294  0.2069 -2.1682
54457SOL     OW81362   7.755   5.680   3.052  0.0588 -0.9215 -0.3443
54457SOL    HW181363   7.677   5.704   3.102  1.0789  2.1157 -0.0010
54457SOL    HW281364   7.725   5.669   2.962 -0.9272 -0.8794 -0.0250
54458SOL     OW81365   9.253   8.859   4.384  0.4846 -0.6820 -0.1841
54458SOL    HW181366   9.161   8.864   4.410  0.2294  0.4916 -1.2231
54458SOL    HW281367   9.301   8.869   4.466 -0.3086  0.4793  0.1643
54459SOL     OW81368  13.325  12.104  10.961 -0.5707  0.3286  0.0135
54459SOL    HW181369  13.298  12.127  10.872  0.9516  1.9347 -0.1024
54459SOL    HW281370  13.386  12.174  10.986  2.4590 -2.3060  0.6665
54460SOL     OW81371  12.441   8.418   5.972  0.3178 -0.0727 -0.1208
54460SOL    HW181372  12.458   8.509   5.947  0.5630 -0.2099 -0.4599
54460SOL    HW281373  12.481   8.366   5.902 -0.5328 -0.4222 -0.3620
54461SOL     OW81374  11.222   3.386   9.496  0.0267 -0.2718  0.5933
54461SOL    HW181375  11.265   3.308   9.531 -0.1635 -1.3832 -1.4417
54461SOL    HW281376  11.131   3.358   9.481  0.0613  0.1840 -0.5597
54462SOL     OW81377  13.496  10.062   2.879 -0.7501  0.0407  0.0181
54462SOL    HW181378  13.476  10.049   2.971  0.9762  1.0259  0.5797
54462SOL    HW281379  13.536  10.148   2.875  0.4060 -0.5189 -1.4368
54463SOL     OW81380   7.270   1.565  14.067 -0.1457  0.6543 -0.1636
54463SOL    HW181381   7.234   1.653  14.062  1.1213  1.2449  0.7349
54463SOL    HW281382   7.356   1.571  14.025  0.6298  0.2515  1.2994
54464SOL     OW81383  13.614   1.126  14.152  0.0189 -0.1598  0.0317
54464SOL    HW181384  13.674   1.095  14.084  1.8084 -1.3684  2.0780
54464SOL    HW281385  13.645   1.214  14.174  1.8124 -1.1695  1.8170
54465SOL     OW81386  10.695  14.121   3.362  0.1319 -0.0884 -0.0152
54465SOL    HW181387  10.741  14.083   3.437 -0.2488  1.0892  0.8485
54465SOL    HW281388  10.656  14.202   3.396 -0.1745  0.4024 -1.4518
54466SOL     OW81389   5.007   2.431  13.185 -0.7595 -0.0491 -0.2231
54466SOL    HW181390   4.964   2.477  13.257 -2.2056 -1.4701 -0.1163
54466SOL    HW281391   4.952   2.450  13.109 -1.4179 -1.5733 -0.1656
54467SOL     OW81392   3.595  12.111   2.822 -0.2528  0.8369 -0.3611
54467SOL    HW181393   3.602  12.057   2.744 -1.8502 -1.7237  1.1220
54467SOL    HW281394   3.595  12.049   2.895  0.3838  3.0508  1.6573
54468SOL     OW81395   5.612   1.510   6.763 -0.3805 -0.4224 -0.1170
54468SOL    HW181396   5.534   1.545   6.806 -0.8779 -0.6427 -0.8280
54468SOL    HW281397   5.579   1.468   6.684  0.4549 -0.5802 -0.3895
54469SOL     OW81398  11.777   5.037   9.419 -0.1887 -0.4823 -0.2706
54469SOL    HW181399  11.799   4.991   9.500 -0.4450  1.3238  0.8910
54469SOL    HW281400  11.682   5.033   9.415 -0.3647  1.3793  0.8070
54470SOL     OW81401   1.340   0.299  10.059  0.4236 -0.5038  0.1129
54470SOL    HW181402   1.247   0.322  10.056  0.7099  0.6376 -0.5629
54470SOL    HW281403   1.342   0.213  10.102 -0.9362 -0.5544  0.1176
54471SOL     OW81404  11.606  12.097   9.318  0.4072  0.4141 -0.1525
54471SOL    HW181405  11.660  12.161   9.363 -1.4041  2.2322 -0.3937
54471SOL    HW281406  11.654  12.076   9.238  0.9625  1.6014 -0.1439
54472SOL     OW81407  14.060   1.957   0.577 -0.7452 -0.1642  0.0024
54472SOL    HW181408  14.099   1.955   0.664  0.6990 -0.0217 -0.6085
54472SOL    HW281409  14.107   1.889   0.528 -1.9013 -0.6148 -0.5300
54473SOL     OW81410   7.657   3.993   4.683 -0.0486 -0.5370  0.3577
54473SOL    HW181411   7.624   3.959   4.766 -1.0039 -1.2343 -0.2976
54473SOL    HW281412   7.634   3.927   4.618  0.4666  0.1116 -0.5106
54474SOL     OW81413  13.580   4.632   6.277 -0.2728 -0.2773 -0.1384
54474SOL    HW181414  13.666   4.657   6.312 -0.8857 -1.1496  2.1075
54474SOL    HW281415  13.530   4.714   6.276  0.1512 -0.0129 -0.1728
54475SOL     OW81416   4.503   0.084  11.890  0.7975  0.2472  0.0976
54475SOL    HW181417   4.465   0.108  11.805 -0.8810 -0.3384  0.6272
54475SOL    HW281418   4.499   0.165  11.941  1.4365  0.4994 -0.2427
54476SOL     OW81419  13.392   6.600   6.227  0.4270 -0.3870  0.2627
54476SOL    HW181420  13.451   6.666   6.265  0.7074 -0.9056  0.7499
54476SOL    HW281421  13.387   6.622   6.134 -2.7134  2.8298  0.9835
54477SOL     OW81422   4.628  13.490   8.299  0.5925  0.0462 -0.4500
54477SOL    HW181423   4.586  13.565   8.341  0.1987 -1.1157  1.3376
54477SOL    HW281424   4.571  13.470   8.224 -0.4935  0.2371  0.3015
54478SOL     OW81425   4.251  12.202   0.052  0.3133 -0.3060  0.2444
54478SOL    HW181426   4.167  12.241   0.077  0.7971  0.9825 -0.1007
54478SOL    HW281427   4.316  12.266   0.078  1.0517 -0.3332 -1.4416
54479SOL     OW81428   0.392   0.195   9.035  0.4185 -0.0222  0.1107
54479SOL    HW181429   0.467   0.201   9.094  2.2498 -0.2002 -2.0797
54479SOL    HW281430   0.383   0.283   8.999 -1.5028  0.4243  1.4713
54480SOL     OW81431   2.383  11.558   4.157  0.3501 -0.3805 -0.2700
54480SOL    HW181432   2.297  11.517   4.159  0.2134 -0.1390 -0.9841
54480SOL    HW281433   2.435  11.508   4.221 -0.1447 -0.9069 -0.2721
54481SOL     OW81434   8.550   6.914   6.421  0.0389 -0.1117 -0.1125
54481SOL    HW181435   8.477   6.867   6.380  0.7219 -0.8204 -0.5285
54481SOL    HW281436   8.515   7.001   6.439 -1.0874 -0.6120  0.1960
54482SOL     OW81437  10.755  13.104  11.659  0.4481 -0.2874 -0.9493
54482SOL    HW181438  10.737  13.039  11.726 -1.1957  1.5519  0.5537
54482SOL    HW281439  10.847  13.127  11.670 -0.0303  0.7330  1.5031
54483SOL     OW81440   6.060  10.547   6.213  0.2440  0.6739 -0.2033
54483SOL    HW181441   6.055  10.495   6.133 -2.2869  0.2186  0.1743
54483SOL    HW281442   6.043  10.484   6.283  0.1263  1.4785  0.5035
54484SOL     OW81443   5.664   9.279   5.604 -0.3886 -0.3251  0.1388
54484SOL    HW181444   5.699   9.189   5.610  0.8068  0.0765 -0.4459
54484SOL    HW281445   5.721   9.330   5.661 -1.0223  0.0858  0.4119
54485SOL     OW81446   2.825  11.952   4.167  0.9857  0.6697  0.1053
54485SOL    HW181447   2.885  11.888   4.206  0.8707  0.3892 -0.1745
54485SOL    HW281448   2.798  12.006   4.241 -1.2355 -1.4165  0.9651
54486SOL     OW81449   4.783   3.781   7.409 -0.3531 -0.3198  0.0100
54486SOL    HW181450   4.798   3.704   7.354 -0.4341  0.9384 -1.9095
54486SOL    HW281451   4.864   3.791   7.459 -0.4468 -1.7780  0.4967
54487SOL     OW81452   5.302   5.229   7.712  0.0474  0.1679 -0.7106
54487SOL    HW181453   5.245   5.191   7.645  1.0709  0.1188 -1.5966
54487SOL    HW281454   5.371   5.164   7.723 -1.3940 -1.0188  2.2859
54488SOL     OW81455   9.581   8.082   7.217 -0.1574  0.4253 -0.1418
54488SOL    HW181456   9.640   8.066   7.291 -0.1723 -0.0351 -0.2287
54488SOL    HW281457   9.636   8.071   7.140 -0.5175 -0.7667 -0.2507
54489SOL     OW81458   4.816   7.513   9.656  0.0644 -0.8338 -0.1569
54489SOL    HW181459   4.879   7.500   9.727 -0.2989  0.3413  0.3864
54489SOL    HW281460   4.753   7.442   9.666  0.7180 -1.4152 -0.0856
54490SOL     OW81461   8.495   9.877   4.121  0.1583 -0.0572 -0.8484
54490SOL    HW181462   8.401   9.895   4.109 -0.4826 -0.9107  2.0256
54490SOL    HW281463   8.523   9.944   4.183  1.3702 -0.0886 -1.3509
54491SOL     OW81464   1.284   3.789   6.019 -0.1702 -0.3931 -0.0105
54491SOL    HW181465   1.309   3.881   6.006 -0.0640 -0.5412 -0.9455
54491SOL    HW281466   1.308   3.770   6.109 -1.9563  1.0663  0.8624
54492SOL     OW81467   6.076  11.725  11.850 -0.2640 -0.2141 -0.2842
54492SOL    HW181468   6.038  11.813  11.845 -1.3580 -0.5930  0.8226
54492SOL    HW281469   6.074  11.703  11.943  0.8174 -1.0760 -0.4433
54493SOL     OW81470  12.140  12.819   3.443  0.3434  0.4718 -0.0721
54493SOL    HW181471  12.192  12.758   3.495 -0.9467 -0.8846 -0.3026
54493SOL    HW281472  12.084  12.763   3.389  0.1895  1.8547 -1.4270
54494SOL     OW81473   7.036   3.963   0.921 -0.4895 -0.3974  0.5036
54494SOL    HW181474   6.964   4.018   0.954 -1.0411 -1.4688  1.1122
54494SOL    HW281475   7.116   4.008   0.950 -0.9050  0.5454  0.2386
54495SOL     OW81476   5.746   2.900  12.740 -0.5430  0.0783 -0.3584
54495SOL    HW181477   5.820   2.843  12.721 -0.6591 -0.6709  1.2755
54495SOL    HW281478   5.781   2.966  12.800  0.0827  3.0143 -3.6014
54496SOL     OW81479  12.002   5.345   5.129 -0.8661  0.7198  0.0095
54496SOL    HW181480  11.923   5.293   5.120  1.4042 -2.7609 -1.7938
54496SOL    HW281481  12.031   5.330   5.219 -1.3737  0.6956  0.1694
54497SOL     OW81482  12.729   5.914  14.115  0.0153  0.5193  0.5131
54497SOL    HW181483  12.810   5.965  14.118 -1.0098  2.2909 -0.3150
54497SOL    HW281484  12.733   5.858  14.193  1.8332  0.8455  0.7004
54498SOL     OW81485   7.696  13.427   4.055 -0.0268  0.4040 -0.1160
54498SOL    HW181486   7.604  13.445   4.035 -0.4188 -0.2691  1.0027
54498SOL    HW281487   7.712  13.339   4.019 -0.0427  0.2082  0.3472
54499SOL     OW81488   2.173  12.776   3.931 -0.3904  0.3431 -0.2486
54499SOL    HW181489   2.191  12.855   3.982 -0.2235  0.4661 -0.4959
54499SOL    HW281490   2.255  12.728   3.930 -1.4560 -1.9186  3.4061
54500SOL     OW81491  12.529  12.270  14.124  0.3663  0.3018  0.0241
54500SOL    HW181492  12.451  12.225  14.093  0.1271  0.9447 -0.3244
54500SOL    HW281493  12.499  12.357  14.149  1.0339  0.6950 -0.4926
54501SOL     OW81494   1.710   3.769   4.949 -0.1961  0.2532  0.3991
54501SOL    HW181495   1.745   3.757   5.037 -1.3874 -0.3471  0.8111
54501SOL    HW281496   1.618   3.744   4.956 -0.5048  0.9652 -0.8422
54502SOL     OW81497  13.234   0.808  12.499 -0.1900  0.0588 -0.6758
54502SOL    HW181498  13.282   0.875  12.452 -0.6012  0.5812 -0.3666
54502SOL    HW281499  13.286   0.792  12.578 -0.5430  0.6654 -0.3133
54503SOL     OW81500   7.396   4.635  11.323 -0.0191 -0.1926 -0.1389
54503SOL    HW181501   7.438   4.662  11.405  0.8909 -0.4969 -0.4882
54503SOL    HW281502   7.319   4.586  11.351  0.5338 -0.6993  0.5517
54504SOL     OW81503   0.067  11.281  11.080  0.0387 -0.4614  0.2594
54504SOL    HW181504   0.160  11.285  11.102  0.3222  0.9278 -1.0165
54504SOL    HW281505   0.025  11.342  11.141  0.2844  0.4915 -0.4966
54505SOL     OW81506   8.081   5.473  13.733  0.4665  0.2124 -0.5421
54505SOL    HW181507   8.087   5.568  13.743  0.4680  0.2105 -0.5278
54505SOL    HW281508   8.154   5.439  13.785 -0.3147  0.1328  0.5308
54506SOL     OW81509   2.655  11.410   9.120  0.1954  0.2822  0.5113
54506SOL    HW181510   2.574  11.438   9.162 -0.4682 -0.6869 -0.0721
54506SOL    HW281511   2.656  11.315   9.131  0.9926  0.2263  0.0486
54507SOL     OW81512   6.408   7.425   0.992  0.7975  0.3620  0.1374
54507SOL    HW181513   6.439   7.486   0.925  1.2816  0.2235  0.2284
54507SOL    HW281514   6.484   7.369   1.009  0.8766  0.7685  1.2164
54508SOL     OW81515   9.385  12.576   1.908  0.1832 -0.5165 -0.1062
54508SOL    HW181516   9.398  12.487   1.877 -0.8512 -0.3515 -1.0638
54508SOL    HW281517   9.373  12.568   2.003 -2.2006 -1.6834 -0.4322
54509SOL     OW81518   9.983   1.494   9.342  0.2521 -0.4934  0.0403
54509SOL    HW181519   9.951   1.493   9.432  0.5838 -0.1640  0.1650
54509SOL    HW281520  10.034   1.413   9.334  1.3168  0.1000  0.5639
54510SOL     OW81521   3.978   7.988  12.862 -0.0345 -0.7863  0.3217
54510SOL    HW181522   4.008   8.055  12.924  0.9582  0.0859 -1.0409
54510SOL    HW281523   3.892   8.019  12.834 -0.4976 -1.1944  1.2546
54511SOL     OW81524   8.134   0.396   0.510  0.7197  0.0502 -0.5870
54511SOL    HW181525   8.174   0.457   0.572  0.0977 -0.4280  0.3149
54511SOL    HW281526   8.206   0.343   0.478  0.6968 -2.1723  2.5487
54512SOL     OW81527  10.499  12.198   7.286 -0.3388 -0.6679 -0.2459
54512SOL    HW181528  10.494  12.200   7.381  2.6637 -0.1461  0.0209
54512SOL    HW281529  10.588  12.167   7.268 -1.3459 -2.3825 -2.9450
54513SOL     OW81530   2.863   0.680   5.390 -0.0676 -0.4168 -0.5552
54513SOL    HW181531   2.862   0.754   5.452 -0.0631 -0.4162 -0.5558
54513SOL    HW281532   2.843   0.720   5.305  0.0238 -0.4030 -0.5698
54514SOL     OW81533   7.514  13.886  13.934  0.0333  0.2120  0.3724
54514SOL    HW181534   7.493  13.895  13.841 -1.4378  1.6969  0.7899
54514SOL    HW281535   7.565  13.965  13.954  0.2376 -0.0408  0.8544
54515SOL     OW81536   6.612  10.639   5.783  0.4572 -0.3949  0.1336
54515SOL    HW181537   6.565  10.556   5.782  1.8108 -1.1766 -0.5003
54515SOL    HW281538   6.617  10.665   5.691 -0.1937  0.5423  0.3489
54516SOL     OW81539  13.433   0.543   7.817 -0.0588  0.0830 -0.0169
54516SOL    HW181540  13.347   0.502   7.808 -0.1041  0.4754 -1.5861
54516SOL    HW281541  13.476   0.530   7.733  1.1021  0.6398  0.4555
54517SOL     OW81542   6.954   4.460   9.479 -0.0999  0.1312 -0.3549
54517SOL    HW181543   6.953   4.437   9.572 -2.7544 -1.0794 -0.5647
54517SOL    HW281544   6.862   4.479   9.458  0.4526  0.5849 -2.6820
54518SOL     OW81545   1.594   2.970  10.124  0.1854  1.6349  0.0876
54518SOL    HW181546   1.567   2.878  10.129 -1.4037  2.0260 -0.7296
54518SOL    HW281547   1.623   2.991  10.213  1.4299  0.1196  0.0800
54519SOL     OW81548   9.244  10.795   7.510 -0.2860 -0.2774 -0.0230
54519SOL    HW181549   9.274  10.748   7.588 -1.9552 -0.2355  0.6771
54519SOL    HW281550   9.241  10.728   7.442  2.3401 -0.0783 -0.4263
54520SOL     OW81551   1.990   7.664   3.014  0.1293 -0.3788  0.2216
54520SOL    HW181552   1.894   7.675   3.010  0.1253 -0.2827  0.5433
54520SOL    HW281553   2.004   7.603   3.087  0.3692  0.4095  0.8521
54521SOL     OW81554  12.341  12.905   9.658  0.0630  0.5560  0.1642
54521SOL    HW181555  12.423  12.955   9.652  0.5117  0.0791  1.8807
54521SOL    HW281556  12.276  12.962   9.617  1.3010  0.7542 -1.6844
54522SOL     OW81557   7.643   2.479   0.106 -0.0936 -0.0151  0.1754
54522SOL    HW181558   7.660   2.571   0.085 -0.2182  0.0673  0.4402
54522SOL    HW281559   7.588   2.448   0.033  0.5288 -0.0766 -0.2832
54523SOL     OW81560   1.322  11.971   3.097 -0.0809 -0.1720  0.4718
54523SOL    HW181561   1.411  12.005   3.108 -0.4616  0.5111  1.5692
54523SOL    HW281562   1.266  12.039   3.134 -0.9202 -1.6736  2.0865
54524SOL     OW81563   3.417   6.498   2.547  0.4260  0.5836  0.0189
54524SOL    HW181564   3.480   6.458   2.487  0.8889 -0.8886  1.4032
54524SOL    HW281565   3.334   6.457   2.527  0.6928 -0.3327  0.7317
54525SOL     OW81566   7.649   9.031  13.405  0.3347 -0.8642 -0.1680
54525SOL    HW181567   7.628   9.017  13.498 -0.2445 -1.9675 -0.4556
54525SOL    HW281568   7.713   9.103  13.406 -3.4535  2.8812  0.7270
54526SOL     OW81569  10.799   9.122  10.089 -0.5725 -0.2451 -0.6772
54526SOL    HW181570  10.790   9.209  10.050 -1.7945  0.6564  1.4541
54526SOL    HW281571  10.849   9.135  10.169 -1.9549 -1.2190  0.4087
54527SOL     OW81572  13.059  11.453   8.502  0.0442 -0.2807 -0.4422
54527SOL    HW181573  12.964  11.461   8.512  0.1143  1.1115 -0.6036
54527SOL    HW281574  13.092  11.542   8.520  1.2361 -0.5561 -1.1878
54528SOL     OW81575  11.402   4.134   7.050 -0.9921 -0.7850  0.2994
54528SOL    HW181576  11.424   4.078   7.124 -0.7343 -1.2910 -0.1451
54528SOL    HW281577  11.384   4.073   6.978 -0.3600 -0.2981 -0.2952
54529SOL     OW81578   4.549  13.270   6.747 -0.2956 -0.6692  0.1473
54529SOL    HW181579   4.608  13.334   6.708 -2.4208  2.6890  1.9962
54529SOL    HW281580   4.498  13.236   6.672  0.7507 -0.0877 -0.8601
54530SOL     OW81581   4.850  10.161   0.922 -0.6491 -0.4347 -0.3008
54530SOL    HW181582   4.848  10.243   0.970 -2.7647  0.0438 -1.1191
54530SOL    HW281583   4.904  10.181   0.845 -1.8902  0.5050 -0.9651
54531SOL     OW81584  13.910  11.414  12.413  0.5409 -0.2493 -0.2693
54531SOL    HW181585  13.924  11.485  12.351  0.3014  0.1597  0.1345
54531SOL    HW281586  13.901  11.336  12.359 -1.0697  0.3015 -0.8555
54532SOL     OW81587   1.916   2.698   3.165 -0.4706 -0.0360  0.0802
54532SOL    HW181588   1.877   2.627   3.115  0.4806  0.5458 -1.5704
54532SOL    HW281589   1.985   2.733   3.108 -0.9849  2.2913  0.7633
54533SOL     OW81590  10.469   9.915   1.169 -0.4187  0.4266  0.4092
54533SOL    HW181591  10.407   9.975   1.129  0.2240  1.4793  0.9586
54533SOL    HW281592  10.552   9.963   1.169 -0.1631  0.0122  1.9701
54534SOL     OW81593   7.229   5.343  11.321 -0.7570 -0.4515  0.1007
54534SOL    HW181594   7.304   5.289  11.345 -1.3873 -0.6515  1.7800
54534SOL    HW281595   7.266   5.427  11.296 -0.0019  0.4586  3.6826
54535SOL     OW81596   5.474  10.596   3.696  0.0657 -0.3978 -0.1702
54535SOL    HW181597   5.458  10.566   3.786  0.4304 -0.4314 -0.1142
54535SOL    HW281598   5.556  10.643   3.701  0.4616 -1.0189 -0.6258
54536SOL     OW81599   2.550  14.130   4.136 -0.2292  0.2381 -0.2698
54536SOL    HW181600   2.540  14.043   4.175  0.8056 -0.7142 -2.0007
54536SOL    HW281601   2.462  14.167   4.138 -0.7606 -1.0014  0.1680
54537SOL     OW81602   2.434   0.773   7.220  0.2099 -0.1525  0.2721
54537SOL    HW181603   2.462   0.862   7.243 -1.0169  0.1973  0.4655
54537SOL    HW281604   2.407   0.734   7.303 -3.5250  0.8608 -0.2810
54538SOL     OW81605   1.903  10.223   2.455 -0.1436 -0.0227  0.5602
54538SOL    HW181606   1.938  10.172   2.382 -0.1046 -0.0833  0.6202
54538SOL    HW281607   1.808  10.208   2.452 -0.0731 -0.6357  0.9734
54539SOL     OW81608   5.812   6.885   9.079  0.1110 -0.0832 -0.1514
54539SOL    HW181609   5.840   6.796   9.100 -0.9188 -0.3763  0.0238
54539SOL    HW281610   5.868   6.941   9.133  0.0666 -0.6667  0.5121
54540SOL     OW81611   8.833  13.166  12.280 -0.0835 -0.2827 -0.5675
54540SOL    HW181612   8.865  13.090  12.329  0.9034  0.2578 -0.3490
54540SOL    HW281613   8.757  13.133  12.232 -1.1465 -0.8288  1.3644
54541SOL     OW81614   9.184   1.617   7.943  0.1517 -0.2629  0.1316
54541SOL    HW181615   9.106   1.671   7.935  0.2690 -0.1695 -0.3660
54541SOL    HW281616   9.194   1.604   8.038  0.1835  0.6644  0.2622
54542SOL     OW81617   7.052   3.992   2.985  0.3705 -0.3759  0.8073
54542SOL    HW181618   7.136   4.025   2.954  0.3179  0.5679  1.6266
54542SOL    HW281619   6.998   4.070   2.996 -1.0250 -1.0453 -0.8117
54543SOL     OW81620   7.046   9.997   0.744  0.2292 -0.1562  0.1800
54543SOL    HW181621   7.078  10.037   0.825 -1.6369 -1.1251  1.4871
54543SOL    HW281622   7.094   9.915   0.737 -0.4124 -0.6247  0.9944
54544SOL     OW81623  12.501   6.815   7.226 -0.2872 -0.2347 -0.4375
54544SOL    HW181624  12.417   6.861   7.221 -1.1576 -1.8119 -1.0749
54544SOL    HW281625  12.523   6.797   7.135  0.9153  0.4018 -0.2934
54545SOL     OW81626  12.101  12.859   5.866 -0.0731  0.3097  0.0747
54545SOL    HW181627  12.006  12.858   5.859 -0.0638 -0.2839  0.0310
54545SOL    HW281628  12.122  12.793   5.932  0.3720 -0.3792 -0.7385
54546SOL     OW81629  10.059  11.340   8.867  0.1439 -0.5336  0.3089
54546SOL    HW181630  10.062  11.401   8.941 -0.2609  0.0998 -0.1873
54546SOL    HW281631  10.075  11.254   8.907  0.1497 -0.1787  1.1012
54547SOL     OW81632   5.407  14.124   7.144  0.0558 -0.2066 -0.4557
54547SOL    HW181633   5.386  14.165   7.227  2.1334  0.4363 -0.1880
54547SOL    HW281634   5.423  14.032   7.165 -0.5247 -0.2834 -0.3455
54548SOL     OW81635  12.497   1.453   2.123 -0.4727 -0.3365  0.0917
54548SOL    HW181636  12.480   1.536   2.078  0.4619 -0.3916 -0.3989
54548SOL    HW281637  12.569   1.473   2.183  0.4869 -1.0224 -0.7949
54549SOL     OW81638  12.509   6.519   7.292 -0.3716 -0.2090 -0.2902
54549SOL    HW181639  12.512   6.592   7.230  0.1025 -0.4813 -0.5967
54549SOL    HW281640  12.548   6.446   7.244 -1.2440 -0.7782 -0.1373
54550SOL     OW81641   5.794   1.135   0.965 -0.1740  0.3060  0.1349
54550SOL    HW181642   5.813   1.042   0.976 -1.0521  0.0639 -0.2467
54550SOL    HW281643   5.865   1.180   1.011  0.6171 -0.5359 -0.2357
54551SOL     OW81644   0.574   0.562   9.228 -0.1079 -0.0637 -0.0093
54551SOL    HW181645   0.621   0.525   9.303  0.3928  1.5280  0.4866
54551SOL    HW281646   0.637   0.558   9.156  1.2106  2.7829  0.8321
54552SOL     OW81647   1.260   5.931   4.970 -0.3373  0.0643  0.1301
54552SOL    HW181648   1.228   5.931   5.060  0.8386 -0.7702  0.5807
54552SOL    HW281649   1.322   6.004   4.966 -1.3879  0.9527 -0.4076
54553SOL     OW81650  12.556   7.214   3.172 -0.0629 -0.3265  0.2556
54553SOL    HW181651  12.574   7.129   3.132 -1.2090 -0.8187  0.7489
54553SOL    HW281652  12.607   7.213   3.253  0.9179 -0.0201 -0.3475
54554SOL     OW81653   7.490  13.124   8.993  0.7556  0.7071  0.1043
54554SOL    HW181654   7.408  13.157   8.957 -0.1432 -1.2320  0.2449
54554SOL    HW281655   7.519  13.192   9.054 -0.6865  1.4716 -0.0255
54555SOL     OW81656   5.000   1.833  13.366 -0.0977  0.2162 -0.0159
54555SOL    HW181657   4.905   1.842  13.366  0.0014  1.4083  1.0402
54555SOL    HW281658   5.018   1.779  13.289 -1.5316  1.0324 -0.9768
54556SOL     OW81659   0.338   6.452   2.971 -0.3578 -0.0923  0.0876
54556SOL    HW181660   0.385   6.530   2.940 -0.2827 -0.4841 -0.8315
54556SOL    HW281661   0.246   6.474   2.959 -0.3184 -0.9396 -2.3344
54557SOL     OW81662  14.052   0.285   1.884  0.0994  0.3388 -0.1267
54557SOL    HW181663  14.115   0.352   1.859  2.0694 -1.1671  0.4757
54557SOL    HW281664  14.106   0.211   1.913 -1.9668 -0.6533  1.4989
54558SOL     OW81665   5.314   9.459   3.342 -0.1370 -0.3171  0.0212
54558SOL    HW181666   5.301   9.534   3.400 -0.5186 -0.8624  0.6592
54558SOL    HW281667   5.351   9.496   3.262  0.0702  0.4959  0.4841
54559SOL     OW81668   8.234   7.514   1.341  0.3630 -0.2093  0.1352
54559SOL    HW181669   8.284   7.509   1.259 -0.5495 -1.4130 -0.3889
54559SOL    HW281670   8.280   7.579   1.394  0.5916  1.1142 -1.5915
54560SOL     OW81671   4.749   0.683   5.983  0.1730  0.0148 -0.1172
54560SOL    HW181672   4.671   0.705   6.033  1.1055  0.2020  1.2875
54560SOL    HW281673   4.770   0.763   5.934  0.5487  0.5651  0.9334
54561SOL     OW81674   4.809   5.722  13.646 -0.0762 -0.5428  0.8409
54561SOL    HW181675   4.745   5.716  13.717  1.0104  1.3604  2.0501
54561SOL    HW281676   4.819   5.816  13.630  1.2602 -0.8574 -0.4084
54562SOL     OW81677   0.632   5.371   2.020  0.3871  0.8906  0.0542
54562SOL    HW181678   0.565   5.330   1.964 -0.0584  0.8390  0.6137
54562SOL    HW281679   0.658   5.449   1.971  1.0838  0.0791 -0.9212
54563SOL     OW81680   3.589  14.018  10.234  0.2720  0.5178  0.2159
54563SOL    HW181681   3.625  14.004  10.322 -0.3849  0.0307  0.4057
54563SOL    HW281682   3.496  14.035  10.249 -0.4020 -2.0812 -0.5510
54564SOL     OW81683   3.931   4.275   9.902 -0.5000  0.8802 -0.1293
54564SOL    HW181684   4.012   4.226   9.914  0.1023  2.3479  2.6415
54564SOL    HW281685   3.943   4.320   9.818  0.8437 -0.1488 -0.5247
54565SOL     OW81686  10.298   1.713   1.907  0.0531  0.3397 -0.1743
54565SOL    HW181687  10.371   1.774   1.920  0.4667 -0.2753  0.4619
54565SOL    HW281688  10.330   1.631   1.943 -0.6568 -0.1490 -0.6472
54566SOL     OW81689   0.926   3.627   0.289  0.0548 -0.0823  0.5212
54566SOL    HW181690   0.931   3.675   0.372  1.9427  0.8465 -0.0594
54566SOL    HW281691   0.915   3.535   0.315 -0.5715  0.3152  1.7451
54567SOL     OW81692   1.795  11.550   2.073  0.0313  0.0255  0.5381
54567SOL    HW181693   1.851  11.574   2.147  0.9362 -0.4230  0.0114
54567SOL    HW281694   1.855  11.544   1.999 -1.0220  1.6338 -0.5061
54568SOL     OW81695  12.371   7.029   4.207 -1.0729 -0.8196  0.0639
54568SOL    HW181696  12.284   6.995   4.231  0.2009 -4.1180  0.4750
54568SOL    HW281697  12.393   7.090   4.278 -2.2100 -1.4627  1.0078
54569SOL     OW81698  10.669  12.322   2.493  0.4237 -0.3544 -0.3190
54569SOL    HW181699  10.646  12.358   2.579 -0.4108 -0.8353 -0.3259
54569SOL    HW281700  10.622  12.377   2.430  0.0661 -0.7281 -0.3891
54570SOL     OW81701   5.691   6.366   9.011 -0.7400  0.3536  0.0952
54570SOL    HW181702   5.738   6.434   9.058  0.3649  0.7656 -1.4979
54570SOL    HW281703   5.648   6.412   8.938 -0.6240 -0.5333 -0.5548
54571SOL     OW81704  12.157  12.103   9.764 -0.2237  0.6194 -0.3223
54571SOL    HW181705  12.112  12.184   9.743 -1.7805 -0.7390 -2.6659
54571SOL    HW281706  12.183  12.067   9.680  0.4010 -1.3161  0.6348
54572SOL     OW81707   2.257   6.136  12.437  0.0512  0.5516 -0.2233
54572SOL    HW181708   2.271   6.079  12.512 -0.1201  0.0423 -0.5752
54572SOL    HW281709   2.344   6.151  12.401  0.1482  0.8997  0.1466
54573SOL     OW81710   0.876   9.402  10.008 -0.0879  0.0980 -0.3829
54573SOL    HW181711   0.918   9.378  10.091 -1.0399  1.6298  0.5842
54573SOL    HW281712   0.794   9.353  10.008  0.1672 -0.3361 -0.7033
54574SOL     OW81713  12.636   6.904   8.302 -0.1829  0.4804 -0.2651
54574SOL    HW181714  12.566   6.941   8.249 -0.9286  0.2955  0.5726
54574SOL    HW281715  12.611   6.813   8.315 -0.2163  0.6207  0.7322
54575SOL     OW81716  12.251   9.490  12.400 -0.9321 -0.4180  0.0857
54575SOL    HW181717  12.248   9.559  12.334 -0.7366 -1.0461 -0.5901
54575SOL    HW281718  12.180   9.430  12.376  1.0161 -2.2937 -1.4267
54576SOL     OW81719   3.306  10.261   4.077  0.1667 -0.4003 -0.2332
54576SOL    HW181720   3.302  10.202   4.001  1.6245 -2.5103  1.2139
54576SOL    HW281721   3.389  10.240   4.119 -0.6549  0.6207  2.0403
54577SOL     OW81722   0.128   5.889  12.282 -0.1851 -0.4434 -0.0354
54577SOL    HW181723   0.133   5.984  12.292  1.5057 -0.2302 -2.1613
54577SOL    HW281724   0.044   5.874  12.237 -1.2822 -0.1814  1.8245
54578SOL     OW81725   5.530  10.079   5.746 -0.1159 -0.2452  0.3601
54578SOL    HW181726   5.611  10.079   5.696 -0.3130  1.2639 -0.0211
54578SOL    HW281727   5.540  10.150   5.809 -0.1193 -1.7315  2.1161
54579SOL     OW81728   0.942   3.543   0.007 -0.3698  0.3510  0.3879
54579SOL    HW181729   1.008   3.609  -0.015 -1.3857  1.2217 -0.1326
54579SOL    HW281730   0.886   3.585   0.072 -0.6880 -0.2006  0.4742
54580SOL     OW81731   6.591   7.285   8.315  0.3868  0.4649 -0.0108
54580SOL    HW181732   6.575   7.378   8.299 -2.2837 -0.0773 -1.0372
54580SOL    HW281733   6.538   7.265   8.393  0.5921 -0.2813 -0.0559
54581SOL     OW81734  12.102  14.064  13.396  0.2825  0.3220  0.3452
54581SOL    HW181735  12.068  14.049  13.484  0.8780 -0.8559  0.3992
54581SOL    HW281736  12.046  14.010  13.339  1.6493 -1.2275  0.3788
54582SOL     OW81737   2.611  12.002   5.009 -0.2952 -0.1644 -0.4155
54582SOL    HW181738   2.705  11.983   5.001  0.2307  1.5411  1.0123
54582SOL    HW281739   2.588  12.046   4.927 -0.1131 -1.3944 -1.1633
54583SOL     OW81740   8.295   0.060   7.180 -0.2100 -0.1101 -0.1950
54583SOL    HW181741   8.308  -0.010   7.244 -0.2704  0.3104  0.2771
54583SOL    HW281742   8.219   0.108   7.211 -0.3858 -0.0518 -0.7154
54584SOL     OW81743   4.454   9.567  13.013  0.4617 -0.3938 -0.4630
54584SOL    HW181744   4.420   9.503  13.075 -0.0677  0.0270 -0.3129
54584SOL    HW281745   4.429   9.534  12.927  0.5547 -0.6019 -0.4098
54585SOL     OW81746   1.691  10.272  10.217  0.0391 -0.2241 -0.3686
54585SOL    HW181747   1.686  10.367  10.217  1.7714 -0.1044  0.2344
54585SOL    HW281748   1.736  10.250  10.136 -0.9783 -0.6078 -0.8565
54586SOL     OW81749  10.487  13.542   6.214 -0.4459 -0.2106  0.7010
54586SOL    HW181750  10.531  13.496   6.286  1.3384 -1.2700 -0.9685
54586SOL    HW281751  10.396  13.514   6.220 -0.7675  1.0368  3.4968
54587SOL     OW81752  12.555   6.195  11.439 -0.2397 -0.4312 -0.0697
54587SOL    HW181753  12.568   6.110  11.481  0.6746 -0.6073 -0.6727
54587SOL    HW281754  12.603   6.188  11.357  1.9303  1.4970  0.9406
54588SOL     OW81755   3.625   8.183   5.951 -0.0013  0.3594 -0.2505
54588SOL    HW181756   3.702   8.202   6.004 -0.3246 -0.4283  0.5287
54588SOL    HW281757   3.577   8.117   6.001 -0.8016  0.2890 -1.0804
54589SOL     OW81758  11.731   9.075   7.526 -0.4676 -0.0962  0.1984
54589SOL    HW181759  11.708   9.080   7.433  1.4051  0.2487 -0.3044
54589SOL    HW281760  11.661   9.024   7.566 -0.7720 -1.1747 -1.6089
54590SOL     OW81761   8.090   1.254   5.914  0.2287  0.1584  0.1207
54590SOL    HW181762   8.184   1.243   5.906  0.6877  3.3514 -0.2172
54590SOL    HW281763   8.077   1.288   6.003 -0.0779  3.0442 -0.9027
54591SOL     OW81764   1.394   5.091   4.525 -0.0475  0.4358 -0.3515
54591SOL    HW181765   1.384   4.998   4.502 -3.5302  0.9399 -1.4743
54591SOL    HW281766   1.337   5.103   4.600 -0.2358  1.8118 -0.6941
54592SOL     OW81767  10.987   2.890  11.388 -0.0236  0.0205 -0.0114
54592SOL    HW181768  11.055   2.827  11.363 -0.7053 -1.3551  1.4369
54592SOL    HW281769  10.964   2.934  11.306  1.4013 -0.6871 -0.8244
54593SOL     OW81770  13.650  11.852   4.779 -0.2059  0.5817 -0.1173
54593SOL    HW181771  13.574  11.809   4.819 -0.7602 -0.8006 -2.4655
54593SOL    HW281772  13.628  11.945   4.781 -0.2260  0.6010  2.5812
54594SOL     OW81773   3.526   2.629   8.849 -0.0535  0.0909 -0.3668
54594SOL    HW181774   3.609   2.626   8.897 -0.6766 -1.2377  0.6907
54594SOL    HW281775   3.531   2.556   8.787  0.9707  2.1046 -2.8476
54595SOL     OW81776  13.223   7.869   9.045 -0.5954  0.0354  0.3512
54595SOL    HW181777  13.204   7.856   9.138 -0.8672 -0.0130  0.2898
54595SOL    HW281778  13.212   7.782   9.006  1.4180 -0.3804  0.5903
54596SOL     OW81779   6.443   8.092  12.569  0.1693  0.7275 -0.7234
54596SOL    HW181780   6.517   8.150  12.586  0.2025  0.5933 -0.3909
54596SOL    HW281781   6.474   8.006  12.597 -0.3209  0.7739 -0.0133
54597SOL     OW81782   2.105  10.644   8.124 -0.5080 -0.4012  0.0610
54597SOL    HW181783   2.040  10.600   8.069 -0.9007 -0.5117  0.6065
54597SOL    HW281784   2.110  10.733   8.089  0.0267 -0.7673 -0.8225
54598SOL     OW81785   1.374  13.752   4.523 -0.7554  0.3269  0.1578
54598SOL    HW181786   1.399  13.662   4.501  1.1949  0.3460  2.0362
54598SOL    HW281787   1.280  13.756   4.504 -0.7020 -1.8181 -0.8086
54599SOL     OW81788   9.612  10.802   1.692 -0.1703 -0.1612 -0.4754
54599SOL    HW181789   9.622  10.897   1.681 -0.3760 -0.1846 -0.8974
54599SOL    HW281790   9.690  10.775   1.741 -0.7520  0.4200  0.8362
54600SOL     OW81791   7.302   3.600   2.613  0.0615 -0.3694  0.4061
54600SOL    HW181792   7.372   3.552   2.659  1.5454  0.3129 -1.0355
54600SOL    HW281793   7.344   3.632   2.533 -2.1690 -0.7122 -0.9874
54601SOL     OW81794  13.482  10.443  11.906  0.4798  0.1820  0.1560
54601SOL    HW181795  13.457  10.374  11.968 -1.1376 -0.6798 -1.3770
54601SOL    HW281796  13.414  10.510  11.916  1.0743  0.7714  0.3730
54602SOL     OW81797   0.650   4.486  13.061 -0.0301 -0.5756 -0.2320
54602SOL    HW181798   0.645   4.562  13.002  3.0155  0.2540  0.4012
54602SOL    HW281799   0.695   4.518  13.139 -2.5804 -2.0300  2.0051
54603SOL     OW81800   9.944  11.227   7.503  0.4502  0.3790 -0.2449
54603SOL    HW181801   9.886  11.291   7.462 -0.6222 -0.3440  0.1100
54603SOL    HW281802   9.979  11.273   7.580  0.3959  0.8345 -0.4867
54604SOL     OW81803   6.710   9.557  10.173  0.4462 -0.1990  0.1892
54604SOL    HW181804   6.673   9.523  10.092  0.3889  0.1201  0.0807
54604SOL    HW281805   6.804   9.540  10.167  0.5799  0.6808 -0.3704
54605SOL     OW81806   8.459  10.096   1.186  0.0548  0.1052 -0.5148
54605SOL    HW181807   8.476  10.128   1.098 -0.1702 -0.5717 -0.8091
54605SOL    HW281808   8.494  10.164   1.244 -0.0324  0.6705 -1.1240
54606SOL     OW81809   7.724   7.784   2.977  0.4393 -0.6660  0.0807
54606SOL    HW181810   7.710   7.725   2.903  1.0653 -1.5928  0.6723
54606SOL    HW281811   7.814   7.816   2.966  0.4157 -0.5400  0.2556
54607SOL     OW81812  11.216   8.642  13.307 -0.7937 -0.6854 -0.4438
54607SOL    HW181813  11.280   8.572  13.298  2.2198  1.8464 -0.6591
54607SOL    HW281814  11.168   8.621  13.387  1.8438 -1.7212  1.0028
54608SOL     OW81815  13.408   5.424   6.931 -0.2993 -0.2920 -0.0258
54608SOL    HW181816  13.493   5.454   6.963  0.8370 -2.4502 -0.7943
54608SOL    HW281817  13.349   5.432   7.006  0.7175  0.7038  0.6876
54609SOL     OW81818   4.028  10.627  12.673 -0.3431  0.0107 -0.3090
54609SOL    HW181819   4.046  10.684  12.748 -0.7056 -0.2504 -0.0211
54609SOL    HW281820   3.965  10.563  12.706 -0.6860  0.0375 -0.9014
54610SOL     OW81821   9.914   3.831   6.798 -0.4354  0.7159  0.3065
54610SOL    HW181822   9.881   3.824   6.708 -0.0569  0.8745  0.1542
54610SOL    HW281823   9.839   3.864   6.848 -0.7109  0.4229  0.0913
54611SOL     OW81824   5.674   2.405   0.272  0.5433  0.0975 -0.2748
54611SOL    HW181825   5.692   2.434   0.182  1.6502  1.8088  0.4484
54611SOL    HW281826   5.637   2.481   0.315  0.5184 -0.5342  0.8713
54612SOL     OW81827  13.870  12.224   1.296  0.5350  0.9700  0.1180
54612SOL    HW181828  13.958  12.210   1.330  0.6881 -2.4662 -1.3623
54612SOL    HW281829  13.879  12.217   1.201 -1.4631 -0.6956 -0.0107
54613SOL     OW81830   8.522   6.128   7.526 -0.5716 -0.3728 -0.0314
54613SOL    HW181831   8.469   6.170   7.459 -1.6549  0.0056  1.0142
54613SOL    HW281832   8.573   6.199   7.565 -1.5847 -0.1819  0.9983
54614SOL     OW81833   9.437  10.373   5.879  0.3769 -0.7518 -0.1533
54614SOL    HW181834   9.419  10.283   5.850 -0.6055 -0.8141  0.6058
54614SOL    HW281835   9.478  10.362   5.965  0.7036 -0.4729 -0.2676
54615SOL     OW81836   7.013   3.350  13.019  0.5878 -0.4158  0.1814
54615SOL    HW181837   7.004   3.310  13.106  1.5296  0.1549  0.5589
54615SOL    HW281838   6.980   3.439  13.031  0.4383 -0.4297 -0.1288
54616SOL     OW81839   9.756   0.292   7.221  0.1333  0.2081 -0.1536
54616SOL    HW181840   9.774   0.227   7.289 -0.4641 -1.6152 -1.6557
54616SOL    HW281841   9.661   0.305   7.225 -0.1302 -1.0131 -1.5156
54617SOL     OW81842  12.973  13.994   4.783 -0.3995 -0.8520  0.0345
54617SOL    HW181843  12.955  14.086   4.800 -0.3781 -0.4147 -2.0032
54617SOL    HW281844  12.891  13.960   4.747 -0.4965 -1.7089  1.0398
54618SOL     OW81845   6.341   6.118   7.580 -0.1080  0.2251  0.3261
54618SOL    HW181846   6.398   6.194   7.566 -1.7011  1.4884  0.3084
54618SOL    HW281847   6.386   6.046   7.536  0.7421  1.5015 -1.0231
54619SOL     OW81848   1.430  11.843   0.670  0.6970  0.2847 -0.2329
54619SOL    HW181849   1.358  11.860   0.609 -0.8970 -1.5019  1.0606
54619SOL    HW281850   1.460  11.931   0.696 -1.7705  1.1257  0.0356
54620SOL     OW81851   2.380   0.027   8.475 -0.5329 -0.1202  0.1383
54620SOL    HW181852   2.473   0.038   8.457 -0.3224 -0.7430  0.8008
54620SOL    HW281853   2.348   0.116   8.487 -0.1099  0.1240 -0.4669
54621SOL     OW81854   2.824  12.708   2.532  0.1370 -0.0424 -0.0515
54621SOL    HW181855   2.791  12.699   2.442 -0.7507 -0.7027  0.3326
54621SOL    HW281856   2.823  12.619   2.567  2.6631 -0.1694 -0.1171
54622SOL     OW81857  12.786  10.760  12.186  0.0627  0.5364  0.0590
54622SOL    HW181858  12.753  10.675  12.158  1.0586  0.1786 -0.0687
54622SOL    HW281859  12.779  10.759  12.281 -1.2278  0.8702 -0.0209
54623SOL     OW81860   3.461  13.394   8.604 -0.6543  0.1073  0.1122
54623SOL    HW181861   3.421  13.310   8.626 -1.3379  0.2539 -0.5184
54623SOL    HW281862   3.420  13.457   8.663 -0.9867  0.1745 -0.1855
54624SOL     OW81863   5.736  13.315   1.146 -0.1179  0.0497 -0.0067
54624SOL    HW181864   5.662  13.315   1.207  0.9006  0.6575  1.2873
54624SOL    HW281865   5.776  13.401   1.157 -0.1009  0.3169 -1.8346
54625SOL     OW81866  12.137   3.083   6.595 -0.0372 -0.7840 -0.1095
54625SOL    HW181867  12.049   3.080   6.631  1.0612  1.5508  3.2880
54625SOL    HW281868  12.188   3.027   6.653  0.9736 -1.0175 -1.1897
54626SOL     OW81869  13.605   8.467   1.719  0.0773  0.0801 -0.9350
54626SOL    HW181870  13.602   8.557   1.751 -1.0145 -0.2044 -0.1317
54626SOL    HW281871  13.698   8.447   1.709  0.3136  1.7532 -2.5346
54627SOL     OW81872   6.787  13.608  10.896  0.2867 -0.2356 -0.4217
54627SOL    HW181873   6.817  13.559  10.819  2.8323 -2.0900  1.5622
54627SOL    HW281874   6.838  13.689  10.894  1.6344 -1.0433  0.1571
54628SOL     OW81875   7.506   7.305  11.719 -0.4926 -0.1021 -0.0680
54628SOL    HW181876   7.479   7.284  11.630  0.7076 -0.2967 -0.4062
54628SOL    HW281877   7.455   7.383  11.742  1.6638  2.1174 -2.2492
54629SOL     OW81878   4.998   0.063  10.452 -0.5109 -0.0796 -0.1575
54629SOL    HW181879   5.090   0.044  10.433 -0.9361  0.1549 -2.7194
54629SOL    HW281880   4.997   0.155  10.478  0.0466 -0.2518  0.4952
54630SOL     OW81881   0.043  11.954   2.792  0.0724  0.5867 -0.7985
54630SOL    HW181882   0.010  11.956   2.882  2.2968 -0.5741  0.1364
54630SOL    HW281883   0.120  12.011   2.794  0.1506  0.5419 -1.9841
54631SOL     OW81884  10.209   6.334  13.871  0.1662  0.6790  0.4003
54631SOL    HW181885  10.139   6.392  13.901 -0.5919  0.7587 -1.3509
54631SOL    HW281886  10.277   6.342  13.937 -0.3814  2.7147  0.7871
54632SOL     OW81887  10.781   5.898   0.907  0.1822 -0.0974  0.1492
54632SOL    HW181888  10.836   5.903   0.985 -0.9568  0.2311  0.9673
54632SOL    HW281889  10.696   5.933   0.936  0.4554  2.5487 -1.9470
54633SOL     OW81890   3.507   6.551   6.775 -0.8197  0.0216  0.9806
54633SOL    HW181891   3.509   6.601   6.693 -3.8582  1.1597  1.4784
54633SOL    HW281892   3.510   6.617   6.844 -0.6690 -0.7771  1.7608
54634SOL     OW81893   3.984  11.297  12.175 -0.2935 -0.2645  0.0615
54634SOL    HW181894   3.900  11.341  12.191  1.2572  1.8209  4.1720
54634SOL    HW281895   3.972  11.209  12.211 -0.3825  0.5388  2.1427
54635SOL     OW81896   8.556   2.519  13.782  0.1434  0.4096  0.6168
54635SOL    HW181897   8.521   2.580  13.717  1.9184 -0.4087 -1.1800
54635SOL    HW281898   8.577   2.574  13.858  0.1846  1.7622 -0.3481
54636SOL     OW81899   4.496   7.274   2.155  0.6870 -0.4881 -0.4696
54636SOL    HW181900   4.528   7.245   2.069  1.0868 -0.4096 -0.3507
54636SOL    HW281901   4.559   7.239   2.217  2.2645  2.1100 -0.4466
54637SOL     OW81902   9.853   5.124   4.601 -0.0609 -0.2412 -0.3435
54637SOL    HW181903   9.905   5.197   4.637  0.4960  0.4556 -2.4147
54637SOL    HW281904   9.914   5.051   4.598 -0.2061 -0.4009  0.3889
54638SOL     OW81905  10.426   7.903   0.264  0.3464  0.2455 -0.0606
54638SOL    HW181906  10.461   7.971   0.321 -0.1367  1.0472 -0.7086
54638SOL    HW281907  10.483   7.827   0.280  0.5302  0.6091  1.0966
54639SOL     OW81908   0.661  10.532  12.334  0.2285  0.6110  0.5261
54639SOL    HW181909   0.680  10.438  12.339 -2.1140  0.0744  0.5932
54639SOL    HW281910   0.737  10.574  12.374  1.8382 -1.1709 -0.4825
54640SOL     OW81911  12.861   7.438  11.323  0.7876 -0.0132  0.2525
54640SOL    HW181912  12.814   7.439  11.406 -0.8073 -0.6395 -0.5972
54640SOL    HW281913  12.939   7.385  11.340 -0.7074 -2.2102  0.7779
54641SOL     OW81914   4.931   9.197   2.050  0.0948 -0.0891 -0.1792
54641SOL    HW181915   4.925   9.234   1.961  2.9845 -0.5981 -0.6809
54641SOL    HW281916   4.935   9.274   2.107  0.8829  0.3034 -0.7457
54642SOL     OW81917   7.792   8.089   4.172 -0.2104  0.2851  0.6890
54642SOL    HW181918   7.834   8.079   4.258 -0.7252 -3.0460  0.6749
54642SOL    HW281919   7.862   8.072   4.110 -0.4816 -0.4351  0.5654
54643SOL     OW81920   5.331   8.811  13.860 -0.4661  0.0289  0.3354
54643SOL    HW181921   5.274   8.736  13.879 -0.4466  0.2109  1.1539
54643SOL    HW281922   5.420   8.778  13.877 -0.1533 -0.6854 -2.2947
54644SOL     OW81923   1.111  13.353   7.012 -0.0740  0.4611  0.3657
54644SOL    HW181924   1.122  13.270   7.057 -0.3302  0.7436  0.9535
54644SOL    HW281925   1.017  13.360   6.997  0.1395 -0.4127 -1.7192
54645SOL     OW81926   5.075  12.608   7.586 -0.0698 -0.3851 -0.4694
54645SOL    HW181927   5.147  12.546   7.573 -0.6647 -1.2850  0.3242
54645SOL    HW281928   5.054  12.601   7.679 -0.9991  0.0586 -0.6296
54646SOL     OW81929  10.736  11.357   1.260  0.0666  0.0928  0.0012
54646SOL    HW181930  10.756  11.448   1.280 -0.3526  0.1961 -0.0316
54646SOL    HW281931  10.741  11.312   1.345 -1.0386  0.4025  0.2507
54647SOL     OW81932  12.217  13.299   3.236  0.0449 -0.4724 -0.2804
54647SOL    HW181933  12.214  13.208   3.264 -0.7450 -0.4521 -0.2851
54647SOL    HW281934  12.193  13.349   3.314  1.0366 -0.2262 -0.1176
54648SOL     OW81935  10.943  14.053   1.659  0.4102 -0.0380  0.1183
54648SOL    HW181936  10.911  14.038   1.570 -0.0542 -0.4426  0.3534
54648SOL    HW281937  10.995  13.976   1.680  1.5810  0.6271 -0.2706
54649SOL     OW81938   6.262   7.540  12.930 -0.1872 -0.0464 -0.4280
54649SOL    HW181939   6.167   7.537  12.916 -0.4889 -1.0558  1.4864
54649SOL    HW281940   6.298   7.483  12.863 -1.0260 -0.3447 -0.6401
54650SOL     OW81941   7.985   6.606   9.211 -0.3790 -0.5643  0.4135
54650SOL    HW181942   7.990   6.536   9.147 -1.9959 -0.6433  0.3320
54650SOL    HW281943   7.901   6.592   9.256 -0.0809  0.4940  1.3528
54651SOL     OW81944   9.895  13.353   9.023  0.2777  0.1343 -0.0379
54651SOL    HW181945   9.938  13.286   9.075  3.0447  0.5914 -1.5141
54651SOL    HW281946   9.817  13.377   9.073  1.0809 -1.6709  2.2357
54652SOL     OW81947   9.378  12.626  10.046 -0.7748 -0.4618  0.5002
54652SOL    HW181948   9.353  12.699   9.990 -1.4983 -0.9074  0.2306
54652SOL    HW281949   9.466  12.648  10.076 -0.4236 -0.1554 -0.7102
54653SOL     OW81950   9.746   2.101   0.415  0.2035  0.4636  0.0938
54653SOL    HW181951   9.727   2.161   0.487  1.1332  0.5576  0.2702
54653SOL    HW281952   9.741   2.155   0.336  1.5644  0.9156  0.2946
54654SOL     OW81953   4.174  11.626  10.620  0.2208  0.0175  0.0300
54654SOL    HW181954   4.198  11.636  10.712  0.5825 -0.7799  0.0263
54654SOL    HW281955   4.079  11.641  10.619  0.1544 -0.3285  0.5900
54655SOL     OW81956  11.763   6.935  10.272 -0.1252  1.3784 -0.1929
54655SOL    HW181957  11.816   6.963  10.346  1.1385  1.6877 -1.1796
54655SOL    HW281958  11.774   7.004  10.207  2.0115 -0.6475 -2.1885
54656SOL     OW81959  10.852   9.993   6.777  0.0368 -0.0489  0.3097
54656SOL    HW181960  10.811   9.957   6.699 -0.2444  1.1677 -0.1371
54656SOL    HW281961  10.816  10.082   6.783  0.2261 -0.0444  1.6960
54657SOL     OW81962  13.730   7.008  11.117 -0.5324 -0.5382 -0.3166
54657SOL    HW181963  13.685   6.957  11.185  0.2698 -2.6791 -1.2853
54657SOL    HW281964  13.823   6.997  11.137 -0.3372  0.2059 -0.8020
54658SOL     OW81965  13.101  11.435   0.144 -0.4543 -0.3125 -0.3014
54658SOL    HW181966  13.082  11.477   0.060 -2.2825  0.0209  0.2471
54658SOL    HW281967  13.029  11.374   0.157  0.5394 -1.3541  0.4003
54659SOL     OW81968   5.164  11.205   2.585 -0.7305  0.0413 -0.2422
54659SOL    HW181969   5.105  11.278   2.603  0.1854  1.3155 -2.1318
54659SOL    HW281970   5.184  11.212   2.492  0.6382 -1.6973 -0.1370
54660SOL     OW81971   5.217  10.397   5.622  0.3430  0.5932 -0.2992
54660SOL    HW181972   5.139  10.432   5.578 -0.0169  1.1054  0.7149
54660SOL    HW281973   5.184  10.330   5.680  0.7732  0.1950 -0.5084
54661SOL     OW81974  13.607  13.897   9.608 -0.2669 -0.5028 -0.0839
54661SOL    HW181975  13.663  13.821   9.627 -0.1325 -0.8669 -1.8289
54661SOL    HW281976  13.519  13.860   9.601 -0.3711 -0.3089  0.1847
54662SOL     OW81977   6.723   7.008   0.946 -0.5298  0.0204  0.5419
54662SOL    HW181978   6.806   7.006   0.992 -0.6354  1.2303  0.8147
54662SOL    HW281979   6.747   7.010   0.853 -0.1707  2.3580  0.6416
54663SOL     OW81980  12.310   8.156   8.387  0.1878  0.0321  0.5073
54663SOL    HW181981  12.346   8.236   8.425  1.1576  0.3664 -1.0526
54663SOL    HW281982  12.385   8.096   8.381 -0.5645 -1.1252  1.8712
54664SOL     OW81983   8.652  13.039   3.629  0.0548  0.6876 -0.2563
54664SOL    HW181984   8.747  13.035   3.637  0.0695  1.5873  0.1573
54664SOL    HW281985   8.636  13.028   3.535  0.4948 -0.4894 -0.2051
54665SOL     OW81986   8.478   2.285  13.312  0.1070 -0.1677 -0.4113
54665SOL    HW181987   8.399   2.280  13.366 -0.5650 -1.5086 -1.4393
54665SOL    HW281988   8.480   2.375  13.280  0.1610  0.4601  1.2888
54666SOL     OW81989   8.599   6.906   9.148 -0.2504  0.4041  0.1264
54666SOL    HW181990   8.630   6.924   9.237  0.4166  1.0352 -0.2308
54666SOL    HW281991   8.566   6.990   9.116 -0.5291  0.1706 -0.2172
54667SOL     OW81992  12.742   0.379   9.571 -0.6134 -0.4359  0.3322
54667SOL    HW181993  12.836   0.364   9.561 -0.7371 -2.0419  1.2675
54667SOL    HW281994  12.731   0.473   9.555  0.8875 -0.5173 -1.5713
54668SOL     OW81995   7.021  12.325  11.294 -0.0066 -0.3908  0.0319
54668SOL    HW181996   7.026  12.272  11.214  0.5324  0.5143 -0.5482
54668SOL    HW281997   7.028  12.415  11.263  1.6292 -0.0819  1.2155
54669SOL     OW81998   3.270   5.138   0.533 -0.3308 -0.2132 -0.0421
54669SOL    HW181999   3.285   5.177   0.447  0.1702  0.8946  0.5199
54669SOL    HW282000   3.178   5.156   0.552 -1.1433 -2.5738 -1.3341
54670SOL     OW82001   5.765   2.159   0.315  0.0637  0.0213 -0.5689
54670SOL    HW182002   5.697   2.116   0.367  0.6192 -0.1535  0.0406
54670SOL    HW282003   5.729   2.244   0.293 -0.9328 -0.6323 -1.5271
54671SOL     OW82004  13.470   9.688  10.305 -0.1742  0.0937 -0.5128
54671SOL    HW182005  13.476   9.597  10.334 -1.6959 -0.3089 -1.4064
54671SOL    HW282006  13.403   9.727  10.361  0.3086  0.6248 -0.2891
54672SOL     OW82007   5.049   8.943   2.159 -0.4568 -0.4184  0.5169
54672SOL    HW182008   5.032   9.037   2.155  0.5067 -0.2695 -0.9232
54672SOL    HW282009   4.997   8.906   2.087  1.7072 -0.4992 -1.1142
54673SOL     OW82010  13.661   1.530   1.883  0.0767 -0.2125  0.0090
54673SOL    HW182011  13.632   1.579   1.960 -1.5291 -0.9441 -0.0890
54673SOL    HW282012  13.648   1.438   1.906  0.2258 -0.4735 -0.8923
54674SOL     OW82013   3.578   2.476   1.783  0.2932 -0.3454  0.6679
54674SOL    HW182014   3.644   2.490   1.851  0.8027  1.6351 -0.1998
54674SOL    HW282015   3.500   2.449   1.832  1.0182 -0.2450  1.9256
54675SOL     OW82016   0.431  11.463  12.147 -0.1884  0.0070  0.5535
54675SOL    HW182017   0.487  11.398  12.191  1.2525 -0.0370 -1.2630
54675SOL    HW282018   0.485  11.541  12.140 -1.0616  0.6248  0.4967
54676SOL     OW82019   1.534   4.943   1.545  0.0895 -0.3683 -0.3483
54676SOL    HW182020   1.575   5.026   1.519  0.0374 -0.0197  0.6485
54676SOL    HW282021   1.519   4.897   1.462 -0.1491  0.7443 -0.9443
54677SOL     OW82022   8.463  12.238  13.100 -0.0579  0.3473 -0.3601
54677SOL    HW182023   8.479  12.201  13.012  3.2667  1.5088 -0.3962
54677SOL    HW282024   8.469  12.162  13.158 -1.5244 -0.3172 -1.0132
54678SOL     OW82025   0.498  10.402   1.146  0.0782  0.4670 -0.1261
54678SOL    HW182026   0.419  10.347   1.139  0.6177 -0.2208 -0.9828
54678SOL    HW282027   0.498  10.431   1.237 -0.8584  0.0028  0.0390
54679SOL     OW82028  11.486   2.131  10.704 -0.2139 -0.0131 -0.0355
54679SOL    HW182029  11.439   2.056  10.668 -2.9319  1.9674 -0.9205
54679SOL    HW282030  11.499   2.189  10.628  0.5952  1.0139  0.8594
54680SOL     OW82031  12.591   0.296   5.033  0.0397  0.2269 -0.0590
54680SOL    HW182032  12.588   0.337   4.946  0.8629  0.6028  0.0917
54680SOL    HW282033  12.683   0.292   5.055 -0.0546 -1.1868  0.1868
54681SOL     OW82034   0.652   4.209   8.680 -0.1283  0.0484  0.0438
54681SOL    HW182035   0.682   4.164   8.601  1.5309  1.2577 -0.0782
54681SOL    HW282036   0.639   4.139   8.744 -1.9965 -0.9990 -1.4080
54682SOL     OW82037  12.760   7.600   3.292  0.2568  0.4389  0.2592
54682SOL    HW182038  12.762   7.695   3.303 -1.4605  0.7275 -1.4396
54682SOL    HW282039  12.761   7.587   3.197 -5.0463 -0.9347  0.1223
54683SOL     OW82040   1.735   3.018  12.817 -0.5056 -0.6336  0.5128
54683SOL    HW182041   1.672   3.052  12.880 -0.5570 -0.4458  0.3596
54683SOL    HW282042   1.706   3.052  12.732  0.2080  0.0356  0.5288
54684SOL     OW82043   7.317   9.828   1.973  0.6424  0.1263  0.0917
54684SOL    HW182044   7.315   9.923   1.969  2.4520  0.2674  1.4127
54684SOL    HW282045   7.355   9.801   1.889  1.1796  0.6605  0.1538
54685SOL     OW82046  10.535   5.260  12.903 -0.0362  0.5936 -0.0851
54685SOL    HW182047  10.468   5.228  12.842  0.2893 -1.7022  0.6520
54685SOL    HW282048  10.617   5.251  12.855  0.3675 -2.3359  0.9253
54686SOL     OW82049  10.251  10.977  10.167 -0.3067  0.5948  0.0604
54686SOL    HW182050  10.211  11.045  10.219  1.1258  0.6148  1.2013
54686SOL    HW282051  10.266  11.017  10.081  2.0022  2.3482  1.1710
54687SOL     OW82052   4.506   1.442  13.892 -0.3287 -0.5325 -0.0870
54687SOL    HW182053   4.420   1.479  13.873 -0.4361 -0.1091  1.1760
54687SOL    HW282054   4.551   1.442  13.807 -2.2093 -2.5756 -1.1842
54688SOL     OW82055   3.412  13.310   6.195 -0.1980  0.4108  0.3498
54688SOL    HW182056   3.483  13.312   6.259  0.1956  0.2592 -0.0835
54688SOL    HW282057   3.346  13.370   6.231  1.1271  2.4167 -0.3848
54689SOL     OW82058  12.806   4.292   8.230 -0.1040 -0.1824 -0.1810
54689SOL    HW182059  12.821   4.335   8.314 -1.0941 -0.7678  0.3135
54689SOL    HW282060  12.717   4.318   8.206 -0.5170 -1.5111 -0.1324
54690SOL     OW82061  12.044   9.071   3.334  0.1750  0.2129  0.0867
54690SOL    HW182062  12.003   8.997   3.380  0.7826 -0.6052 -0.6392
54690SOL    HW282063  12.012   9.148   3.380  0.0806 -0.5307  1.3312
54691SOL     OW82064   4.134   5.114  11.488 -0.3378 -0.1160  0.1508
54691SOL    HW182065   4.219   5.070  11.494 -0.3656 -0.1619  0.2084
54691SOL    HW282066   4.126   5.163  11.570  0.7466  1.8914 -0.8712
54692SOL     OW82067   3.769   3.117  13.071 -0.3118 -0.4248 -0.5289
54692SOL    HW182068   3.761   3.191  13.010 -0.3890 -0.4584 -0.5588
54692SOL    HW282069   3.790   3.042  13.016 -0.9171 -0.5669 -0.5796
54693SOL     OW82070   5.153  11.897   3.946 -0.7398 -0.0940  0.7905
54693SOL    HW182071   5.136  11.883   3.853 -1.0121 -0.5419  0.9034
54693SOL    HW282072   5.094  11.836   3.991 -0.5704  0.0767  1.2551
54694SOL     OW82073   5.138  12.717  13.823 -0.2089  0.1388  0.3839
54694SOL    HW182074   5.064  12.691  13.767 -0.2151 -0.1240  0.5126
54694SOL    HW282075   5.164  12.636  13.866 -1.7095  0.7428  2.6035
54695SOL     OW82076   3.369   7.886  13.920 -0.5374 -0.3026 -0.1039
54695SOL    HW182077   3.461   7.878  13.945  0.6544  0.2278 -3.6587
54695SOL    HW282078   3.355   7.980  13.909 -0.7762 -0.4969 -1.7304
54696SOL     OW82079  10.131   7.613  11.983  0.0580  0.0836 -0.2480
54696SOL    HW182080  10.142   7.643  11.893  0.5318 -0.1767 -0.2839
54696SOL    HW282081  10.039   7.626  12.002  0.6628  4.0979  0.6642
54697SOL     OW82082  10.022  10.511   3.117 -0.1982  0.0916  0.2661
54697SOL    HW182083  10.100  10.526   3.172  0.5781 -0.6673 -0.5921
54697SOL    HW282084  10.057  10.509   3.028 -1.0414 -1.3857 -0.0481
54698SOL     OW82085  13.894   6.590   4.453 -0.1965 -0.6069 -0.1219
54698SOL    HW182086  13.910   6.496   4.466  1.3954 -0.1644  1.4882
54698SOL    HW282087  13.799   6.598   4.456 -0.3150 -1.8952  2.2408
54699SOL     OW82088   2.902  12.446   1.295  0.5952  0.3889  0.2387
54699SOL    HW182089   2.964  12.473   1.362 -0.6237 -0.1760  1.6367
54699SOL    HW282090   2.860  12.527   1.266  0.5481  0.5522  0.7544
54700SOL     OW82091   6.780  12.241   9.796  0.6090 -0.3686 -0.7878
54700SOL    HW182092   6.787  12.153   9.832  0.0576  0.5905  1.8878
54700SOL    HW282093   6.693  12.271   9.821  2.6036  2.9333  3.7647
54701SOL     OW82094  13.444   2.550   6.324  0.5820  0.0712  0.0139
54701SOL    HW182095  13.504   2.488   6.366 -0.4465 -1.1362 -0.2247
54701SOL    HW282096  13.409   2.602   6.397  2.3978  1.2778  0.0807
54702SOL     OW82097   6.419   0.678   7.542  0.2805 -0.2540  0.7165
54702SOL    HW182098   6.394   0.769   7.556  0.1752 -0.0791 -0.4538
54702SOL    HW282099   6.513   0.676   7.557  0.9840  0.8700 -2.5697
54703SOL     OW82100   3.085   2.936   9.645  0.1360  0.3739 -0.1977
54703SOL    HW182101   3.154   2.870   9.638  2.0245  2.2493 -0.1688
54703SOL    HW282102   3.054   2.930   9.735 -1.9312 -2.4664 -0.9499
54704SOL     OW82103   3.037  10.450   7.443 -0.2268  0.0407 -0.7340
54704SOL    HW182104   3.008  10.359   7.456  0.2135 -0.2048 -1.4274
54704SOL    HW282105   3.123  10.442   7.402 -0.0802  0.7766 -0.5821
54705SOL     OW82106  13.296   6.659   6.785 -0.1076  0.0536  0.2393
54705SOL    HW182107  13.258   6.741   6.752  0.3095  0.0380 -0.2854
54705SOL    HW282108  13.386   6.682   6.809  0.9075 -0.8045 -2.3841
54706SOL     OW82109   8.478   4.383   6.298  0.1400 -0.1238 -0.3715
54706SOL    HW182110   8.519   4.392   6.384 -0.6673 -0.2586  0.0436
54706SOL    HW282111   8.501   4.464   6.252 -0.1163  0.3382  0.2859
54707SOL     OW82112   7.600   5.951  10.181  0.4817  0.4706  0.0774
54707SOL    HW182113   7.666   5.916  10.120 -1.9086  0.1333 -2.5401
54707SOL    HW282114   7.570   5.874  10.230 -0.1330  0.0178 -0.9782
54708SOL     OW82115  12.044  11.827   7.489  0.4252 -0.2213 -0.2478
54708SOL    HW182116  12.015  11.825   7.580 -1.0458  0.2570 -0.6880
54708SOL    HW282117  11.990  11.894   7.447  0.9553 -0.5512 -1.5219
54709SOL     OW82118  11.373  11.528   7.231  0.0095  0.1370  0.2650
54709SOL    HW182119  11.391  11.590   7.160  0.4763 -1.3393 -0.9703
54709SOL    HW282120  11.323  11.578   7.295 -0.7937  1.4318 -1.2980
54710SOL     OW82121  10.832   0.355   8.768 -0.3001 -0.2179  0.2663
54710SOL    HW182122  10.755   0.298   8.772  0.2752 -0.9493  1.7107
54710SOL    HW282123  10.803   0.437   8.808 -0.5041 -0.2891  0.2658
54711SOL     OW82124   4.272   8.575   0.846 -0.7376 -0.8769  0.2687
54711SOL    HW182125   4.283   8.670   0.852  1.2052 -1.1144  1.4089
54711SOL    HW282126   4.277   8.555   0.753  1.1534 -0.0588  0.1614
54712SOL     OW82127  12.977  13.090  12.743  0.7656  0.4072  0.3499
54712SOL    HW182128  12.942  13.178  12.761  1.2520  0.8455 -0.7497
54712SOL    HW282129  13.029  13.069  12.821  0.5039  1.0145  0.6988
54713SOL     OW82130   0.509   8.362   2.529 -0.1789  0.0573  0.1169
54713SOL    HW182131   0.495   8.455   2.549  0.2863  0.3938 -1.0070
54713SOL    HW282132   0.431   8.336   2.480  0.1794  0.1697 -0.5275
54714SOL     OW82133   0.466   2.897  12.103 -0.0441 -0.0299 -0.2256
54714SOL    HW182134   0.421   2.981  12.095  0.3905  0.0960 -1.7548
54714SOL    HW282135   0.429   2.843  12.032  0.5534 -0.7014 -0.0461
54715SOL     OW82136   6.648   2.055   1.363 -0.4853 -0.0018 -0.5442
54715SOL    HW182137   6.667   1.981   1.420 -1.7044  0.8685  1.0963
54715SOL    HW282138   6.715   2.051   1.295  1.7406 -0.4796  1.5267
54716SOL     OW82139   8.739   8.967  11.437  0.1879  0.0274  0.0096
54716SOL    HW182140   8.697   9.011  11.511 -0.9247 -1.2197  0.1398
54716SOL    HW282141   8.824   8.940  11.471 -0.1106 -0.0889  0.6834
54717SOL     OW82142   9.057   6.256  11.066 -0.2304 -0.1187  0.5249
54717SOL    HW182143   9.141   6.216  11.045  0.1285  0.6189  0.5374
54717SOL    HW282144   9.000   6.182  11.087 -0.2268 -0.8054 -1.6531
54718SOL     OW82145   1.634   4.662  10.249 -1.1340  0.0091 -0.3271
54718SOL    HW182146   1.728   4.656  10.266 -1.0149 -2.4688 -1.4466
54718SOL    HW282147   1.593   4.645  10.333 -0.5611 -2.0784 -0.4311
54719SOL     OW82148   8.063   7.764  10.787  0.1682 -0.1915 -0.6426
54719SOL    HW182149   7.968   7.766  10.802 -0.1729  1.7794 -2.5874
54719SOL    HW282150   8.073   7.730  10.698  1.2286  0.4403 -0.7831
54720SOL     OW82151  13.512  12.647   0.253 -0.3791  0.6583 -0.6127
54720SOL    HW182152  13.476  12.615   0.336  1.7084 -0.1529  0.0460
54720SOL    HW282153  13.484  12.582   0.188  0.1863 -0.1565 -0.0531
54721SOL     OW82154  11.883   4.610  12.745 -0.2931 -0.6125  0.1021
54721SOL    HW182155  11.857   4.679  12.806  0.1504 -0.1420 -0.2306
54721SOL    HW282156  11.812   4.546  12.749 -1.0229  0.1704 -0.0607
54722SOL     OW82157  10.037   5.949  10.410 -0.0145 -0.5812  0.0041
54722SOL    HW182158  10.005   6.034  10.377  1.2176  0.4408  1.3159
54722SOL    HW282159  10.120   5.935  10.364 -0.3857 -1.2714 -0.4724
54723SOL     OW82160   5.254   3.853   3.535 -0.1059 -0.1533  0.1223
54723SOL    HW182161   5.325   3.796   3.564 -1.4302 -2.9454 -1.6999
54723SOL    HW282162   5.292   3.905   3.465 -0.0065 -2.4742 -1.6809
54724SOL     OW82163  12.363   3.207  11.102  0.0996  0.4796  0.4189
54724SOL    HW182164  12.396   3.127  11.142 -1.3283  0.3352  1.3500
54724SOL    HW282165  12.437   3.240  11.050  0.6552 -1.5350 -0.1590
54725SOL     OW82166  13.553   6.012  10.971  0.6872 -0.6382  0.2995
54725SOL    HW182167  13.615   6.023  10.899 -0.1498 -0.6691 -0.4400
54725SOL    HW282168  13.517   5.924  10.958  1.0144 -0.9174  1.1566
54726SOL     OW82169   0.292   9.571   8.621  0.4108 -0.1687  0.4809
54726SOL    HW182170   0.353   9.573   8.547  0.8753  0.5289  0.8682
54726SOL    HW282171   0.265   9.662   8.632  0.0745 -0.3204  0.9431
54727SOL     OW82172   3.696  10.006  11.717  0.8840  0.4923 -0.2205
54727SOL    HW182173   3.767  10.019  11.779  0.1683 -1.6195  1.1249
54727SOL    HW282174   3.711   9.919  11.680 -0.6556  0.2434 -0.3464
54728SOL     OW82175   2.886   8.499  11.128  0.1106 -0.2204 -0.9229
54728SOL    HW182176   2.833   8.421  11.111 -0.2688 -0.8378  2.4376
54728SOL    HW282177   2.850   8.536  11.208  2.5835  1.3657 -0.4215
54729SOL     OW82178   6.684  11.414  10.213  0.4953 -0.1822 -0.5015
54729SOL    HW182179   6.663  11.505  10.231  2.0679 -0.1463  1.6439
54729SOL    HW282180   6.777  11.415  10.191  0.2492 -1.1434 -1.6387
54730SOL     OW82181   1.782   7.889   3.336  0.1210  0.0512 -0.1863
54730SOL    HW182182   1.719   7.848   3.395  0.3249  1.4564  1.0745
54730SOL    HW282183   1.867   7.857   3.364  0.1669  0.1973 -0.1581
54731SOL     OW82184  13.938   7.766   5.170 -0.4217 -0.3223  0.0396
54731SOL    HW182185  13.952   7.853   5.209 -0.0873 -0.3462 -0.0238
54731SOL    HW282186  13.858   7.775   5.120 -0.3004  0.0002 -0.1005
54732SOL     OW82187   9.656  12.528   7.111 -0.2662  0.0151 -0.7147
54732SOL    HW182188   9.641  12.613   7.070  2.7511  0.9596 -0.0852
54732SOL    HW282189   9.701  12.477   7.045  2.3928  0.6991  0.4420
54733SOL     OW82190   8.616   4.455   4.351  0.5493 -0.2200 -0.6620
54733SOL    HW182191   8.685   4.442   4.416 -0.5872  0.5048  0.7427
54733SOL    HW282192   8.579   4.541   4.373  0.8362  0.5426 -2.9585
54734SOL     OW82193  13.912   2.235  13.730 -0.2016 -0.0318  0.3628
54734SOL    HW182194  13.851   2.202  13.664  0.7835  1.2534 -1.2664
54734SOL    HW282195  13.975   2.164  13.741 -0.0419 -0.0380 -0.5262
54735SOL     OW82196   5.977   4.829   3.243 -0.5068  0.0316 -0.3134
54735SOL    HW182197   5.887   4.835   3.273  0.0835  1.3888  1.3320
54735SOL    HW282198   5.986   4.898   3.177 -0.1325  1.3842  1.1049
54736SOL     OW82199   9.585  10.136   5.375 -0.2332 -0.3898 -0.0011
54736SOL    HW182200   9.575  10.052   5.419  0.5779  0.0011  0.9718
54736SOL    HW282201   9.503  10.149   5.328  0.1632 -2.4131 -1.4058
54737SOL     OW82202   5.135   4.063   5.142 -0.1267  0.2767 -0.2680
54737SOL    HW182203   5.043   4.087   5.141  0.0401  1.1194  1.2419
54737SOL    HW282204   5.141   3.995   5.209  0.5644  1.3866  0.8507
54738SOL     OW82205  11.132  10.327  12.737  0.0555 -0.2186 -0.0591
54738SOL    HW182206  11.049  10.320  12.785  0.0741  0.9373  0.1619
54738SOL    HW282207  11.178  10.245  12.757 -0.0560  0.1116  1.6662
54739SOL     OW82208  12.725   7.375   6.846 -0.2675 -0.2459  0.1712
54739SOL    HW182209  12.679   7.454   6.817 -0.3450  0.4408  2.0507
54739SOL    HW282210  12.662   7.304   6.832 -0.7938  0.2531 -0.0435
54740SOL     OW82211  12.326  12.646   5.152 -0.3389  0.3387  0.2389
54740SOL    HW182212  12.230  12.649   5.158 -0.2450  1.2709  1.8478
54740SOL    HW282213  12.343  12.603   5.069 -2.1370 -1.4235  0.7137
54741SOL     OW82214  11.577   6.701   9.919 -0.1717  0.5825  0.2911
54741SOL    HW182215  11.659   6.672   9.960  0.4738 -0.1595 -1.4296
54741SOL    HW282216  11.516   6.629   9.934  0.8741 -1.0130 -2.3028
54742SOL     OW82217   4.810   7.845   2.802  0.3564 -0.6128  0.3254
54742SOL    HW182218   4.762   7.903   2.742  0.5446  0.4842  1.2130
54742SOL    HW282219   4.754   7.768   2.811 -0.2660 -0.2370 -0.2536
54743SOL     OW82220  13.188  10.446   6.831  0.3519 -0.2487 -0.5241
54743SOL    HW182221  13.153  10.523   6.786  1.5968 -0.8603 -2.6757
54743SOL    HW282222  13.233  10.481   6.907  0.2426  1.0917 -1.0547
54744SOL     OW82223   3.745   4.370   4.981 -0.1934 -0.3317 -0.1197
54744SOL    HW182224   3.706   4.412   4.905 -0.8327  0.1445  0.4601
54744SOL    HW282225   3.839   4.371   4.963 -0.3383 -0.2409 -0.9025
54745SOL     OW82226  12.226   6.290  10.781 -0.1593 -0.1254  0.2755
54745SOL    HW182227  12.181   6.359  10.830  2.8241  0.6226  2.2579
54745SOL    HW282228  12.216   6.212  10.836  2.0913  0.4076  1.5503
54746SOL     OW82229   5.874  13.534   7.322  0.2932 -0.3055  0.3716
54746SOL    HW182230   5.898  13.467   7.386  0.5374 -0.4092  0.1710
54746SOL    HW282231   5.831  13.486   7.252  1.0076 -0.3295 -0.0557
54747SOL     OW82232   9.687  14.139   7.181 -0.0631 -0.0890  0.1560
54747SOL    HW182233   9.769  14.141   7.132 -0.1989 -1.5854 -0.2014
54747SOL    HW282234   9.705  14.083   7.256 -0.9002 -0.9714 -0.2694
54748SOL     OW82235   7.320   0.262   9.877  0.6614 -0.0380 -0.3053
54748SOL    HW182236   7.314   0.323   9.803 -1.0123  0.0013 -0.1740
54748SOL    HW282237   7.232   0.226   9.886  1.0981 -0.8541  0.9971
54749SOL     OW82238  11.272   9.751   1.345 -0.1110  0.2788  0.5295
54749SOL    HW182239  11.284   9.841   1.316 -1.9830  1.3515  2.7778
54749SOL    HW282240  11.361   9.721   1.367  0.5769  1.4041 -0.5636
54750SOL     OW82241   4.580  13.747   5.669  0.3837 -0.4747  0.6352
54750SOL    HW182242   4.618  13.822   5.623 -0.9872  1.7937  2.9684
54750SOL    HW282243   4.632  13.672   5.639  2.4562  1.4988 -1.0797
54751SOL     OW82244   0.860   5.009   5.570 -0.3854  0.2154 -0.0790
54751SOL    HW182245   0.851   5.000   5.475 -0.8487  0.3116 -0.0472
54751SOL    HW282246   0.829   5.098   5.588  1.6261  0.9733 -0.0740
54752SOL     OW82247  12.459   9.855   2.521 -0.0298  0.6479 -0.2505
54752SOL    HW182248  12.484   9.948   2.515  0.4020  0.5920  0.5218
54752SOL    HW282249  12.536   9.807   2.491  0.0536  0.5204  0.1651
54753SOL     OW82250   5.673   5.020   3.190 -0.3081  0.2240  0.6330
54753SOL    HW182251   5.683   4.934   3.230 -0.0400 -0.8935 -1.6597
54753SOL    HW282252   5.589   5.016   3.145  0.3163  0.6431 -0.6180
54754SOL     OW82253   3.189   3.548   3.225 -0.1931  0.1935 -0.1755
54754SOL    HW182254   3.214   3.640   3.231  1.0318 -0.1370  0.0191
54754SOL    HW282255   3.149   3.527   3.310 -1.3416  0.7720 -0.5519
54755SOL     OW82256   4.534  13.790  14.114 -0.2476  0.1278  0.2748
54755SOL    HW182257   4.488  13.831  14.188  0.3553  0.0034  0.7314
54755SOL    HW282258   4.575  13.864  14.069 -0.1779  0.1541  0.3790
54756SOL     OW82259   0.917   0.500   5.722 -0.0156 -0.0328  0.4489
54756SOL    HW182260   0.863   0.485   5.800  0.2799  0.0712  0.6779
54756SOL    HW282261   1.002   0.460   5.745  0.2544  0.5134  0.4081
54757SOL     OW82262   1.450   7.002   5.669  0.0076  0.4855 -0.0657
54757SOL    HW182263   1.478   6.988   5.759 -0.1569  1.6307  0.1732
54757SOL    HW282264   1.365   6.960   5.663 -0.5402  1.4543  0.6717
54758SOL     OW82265  12.033   8.844  10.226 -0.2678  0.7573  0.0169
54758SOL    HW182266  12.063   8.929  10.258  2.6940  0.2497 -1.0888
54758SOL    HW282267  12.056   8.845  10.133  2.4014 -2.1707  0.5001
54759SOL     OW82268   7.097   5.139  10.113  0.1369 -0.7087  0.1562
54759SOL    HW182269   7.025   5.082  10.087 -1.6896  0.5013  2.2343
54759SOL    HW282270   7.088   5.148  10.208 -0.1173  3.4851 -0.0797
54760SOL     OW82271  10.623  10.913   3.904 -0.0910  0.5469  0.2610
54760SOL    HW182272  10.643  11.006   3.896  0.5659  0.3163 -1.1684
54760SOL    HW282273  10.705  10.868   3.880 -0.3350 -0.4117  1.1110
54761SOL     OW82274   7.286   4.591   4.508 -0.1801  0.5412 -0.5038
54761SOL    HW182275   7.280   4.606   4.414 -2.0746  0.1247 -0.5018
54761SOL    HW282276   7.266   4.498   4.519  0.0642  0.5780  0.2963
54762SOL     OW82277  13.200   9.207  13.539 -0.0358  0.2030 -0.0157
54762SOL    HW182278  13.211   9.112  13.538 -0.6306  0.1244 -0.9163
54762SOL    HW282279  13.131   9.223  13.603  1.5335  0.2436  1.7461
54763SOL     OW82280   9.011   9.979  12.520  0.4726 -0.1243 -0.3732
54763SOL    HW182281   9.098   9.940  12.522 -0.1890 -1.6590  0.3792
54763SOL    HW282282   9.021  10.064  12.562  2.1511  1.0369 -2.8771
54764SOL     OW82283  10.946   4.706   3.821  0.3672  0.2743 -0.0452
54764SOL    HW182284  11.002   4.695   3.744 -0.9004  0.6610 -1.0679
54764SOL    HW282285  10.860   4.677   3.791 -0.0605  0.0272  1.3744
54765SOL     OW82286   2.772   4.560   0.935 -0.0831 -0.1982 -0.0201
54765SOL    HW182287   2.847   4.584   0.988 -1.2662 -0.5112  1.9099
54765SOL    HW282288   2.800   4.576   0.844  2.0202  0.3502  0.6688
54766SOL     OW82289   5.808   1.961   4.063 -0.4374  0.2809 -0.7260
54766SOL    HW182290   5.839   1.892   4.005 -1.4753  0.0779 -1.0614
54766SOL    HW282291   5.887   1.997   4.103  0.1030 -1.3003 -0.2988
54767SOL     OW82292   9.711   5.331   5.368 -0.5219  0.2201  0.2933
54767SOL    HW182293   9.738   5.423   5.364 -0.9718  0.3556  0.3321
54767SOL    HW282294   9.743   5.300   5.453  0.5592  0.0395 -0.1586
54768SOL     OW82295   2.284   1.876   1.832 -0.2460 -0.4689  0.2028
54768SOL    HW182296   2.258   1.968   1.832  1.4820  0.0741 -0.7889
54768SOL    HW282297   2.225   1.834   1.895 -2.8540  0.7699 -1.2364
54769SOL     OW82298   3.380   2.499   9.788 -0.0819  0.0818 -0.1663
54769SOL    HW182299   3.411   2.480   9.699  0.9415  1.5363 -0.1641
54769SOL    HW282300   3.290   2.529   9.776 -0.9142 -2.2831 -0.3883
54770SOL     OW82301   4.073  13.323   4.089 -0.1791 -0.6823  0.7145
54770SOL    HW182302   4.028  13.278   4.160  0.8155 -1.4261  0.8927
54770SOL    HW282303   4.165  13.297   4.098  0.3286  0.9696  0.4860
54771SOL     OW82304   8.040  13.678   2.790  0.5637  1.0338  0.6432
54771SOL    HW182305   8.005  13.632   2.713  1.5478  3.4954 -1.4095
54771SOL    HW282306   7.967  13.731   2.821  1.3575  3.6659 -1.6342
54772SOL     OW82307  11.794  13.425  13.382  0.7295 -0.1360 -0.3691
54772SOL    HW182308  11.833  13.371  13.314  0.6423 -0.1789 -0.3852
54772SOL    HW282309  11.848  13.409  13.459  2.6181  2.0592 -1.1132
54773SOL     OW82310   8.797   9.516   7.867  0.0545  0.0838  0.3311
54773SOL    HW182311   8.777   9.430   7.903 -1.6245 -0.1268 -0.9976
54773SOL    HW282312   8.766   9.578   7.933 -1.6541 -0.3217 -0.0306
54774SOL     OW82313   5.143  12.931  10.690  0.6014 -0.0198 -0.0739
54774SOL    HW182314   5.203  12.948  10.762  1.2782  0.2060 -0.6714
54774SOL    HW282315   5.059  12.910  10.732  1.0698 -0.2361  0.7715
54775SOL     OW82316   6.782   5.815  12.711  0.4209 -0.0056 -0.4322
54775SOL    HW182317   6.738   5.896  12.737  0.8689  0.8228 -2.0595
54775SOL    HW282318   6.838   5.793  12.785 -1.1057  0.0982  0.8048
54776SOL     OW82319  12.810   5.370   0.699 -0.5009  0.6292  0.1885
54776SOL    HW182320  12.901   5.357   0.672 -0.9482  1.3901 -1.8732
54776SOL    HW282321  12.782   5.448   0.652 -1.6125  1.6891  2.4500
54777SOL     OW82322   5.023   3.328   3.397  0.3076  0.5279  0.3849
54777SOL    HW182323   4.982   3.263   3.340  1.8939 -0.3372  0.1696
54777SOL    HW282324   5.014   3.292   3.485  1.2871 -0.0819  0.2543
54778SOL     OW82325  10.017   4.637   2.561 -0.1701  0.3470  0.2515
54778SOL    HW182326   9.922   4.649   2.558 -0.5699 -2.4218 -0.3290
54778SOL    HW282327  10.035   4.605   2.649  0.2481  0.7584  0.3248
54779SOL     OW82328  12.709  10.492   2.259 -0.4558 -0.4203  0.5801
54779SOL    HW182329  12.684  10.582   2.279 -0.4675 -0.0433 -1.0240
54779SOL    HW282330  12.634  10.457   2.210  0.4169 -0.5927 -0.6850
54780SOL     OW82331   2.589   9.394   7.608 -0.1752 -0.2593 -0.7457
54780SOL    HW182332   2.533   9.443   7.547  1.0932  1.0238 -0.9329
54780SOL    HW282333   2.596   9.451   7.684  3.3913  1.1966 -1.9474
54781SOL     OW82334   8.291   3.377  11.672  0.7609  0.2522 -0.0691
54781SOL    HW182335   8.219   3.390  11.734  1.0161 -0.0519  0.2978
54781SOL    HW282336   8.309   3.465  11.638  0.1048  0.3041 -0.2951
54782SOL     OW82337   5.070   0.937   1.686  0.5232 -0.4126  0.2843
54782SOL    HW182338   5.073   0.930   1.591 -0.4524 -0.3946  0.2399
54782SOL    HW282339   5.141   0.997   1.708  0.0987  0.4125 -0.5258
54783SOL     OW82340   8.116   6.239   4.150 -0.1959 -0.2654 -0.0810
54783SOL    HW182341   8.116   6.226   4.245 -0.0998 -2.4774 -0.3253
54783SOL    HW282342   8.042   6.186   4.119  1.1282 -1.4254 -1.4089
54784SOL     OW82343   3.288   0.855  11.445 -0.1700 -0.0600  0.2007
54784SOL    HW182344   3.197   0.865  11.474 -0.4148 -1.6702  0.0487
54784SOL    HW282345   3.338   0.908  11.507 -1.1393  0.3183  0.6859
54785SOL     OW82346   6.230   3.930   5.411 -0.4925  0.5845  0.1121
54785SOL    HW182347   6.296   3.957   5.346 -0.5098  2.3039  0.7537
54785SOL    HW282348   6.226   4.003   5.472 -0.5656 -0.9497  2.0114
54786SOL     OW82349   5.610  11.882   5.503  0.1263  0.4380 -0.2735
54786SOL    HW182350   5.701  11.859   5.488  0.3506  1.8436 -1.1885
54786SOL    HW282351   5.565  11.797   5.513  1.6238 -0.2576  0.9606
54787SOL     OW82352   7.483   7.578   0.472  0.5391  0.2672  0.1997
54787SOL    HW182353   7.441   7.595   0.556 -0.6605  0.1939 -0.3599
54787SOL    HW282354   7.549   7.646   0.463 -1.3687  2.1689 -0.1486
54788SOL     OW82355  12.932  12.441  12.096 -0.7579 -0.2624 -0.0683
54788SOL    HW182356  12.961  12.465  12.009 -1.8628 -1.3266 -0.7668
54788SOL    HW282357  12.997  12.378  12.127 -0.0345  0.5723  0.1497
54789SOL     OW82358   3.462   5.939   3.061  0.5566  0.2077  0.5058
54789SOL    HW182359   3.477   5.899   2.975 -0.2158  1.6915 -0.3544
54789SOL    HW282360   3.508   6.023   3.056  0.8622  0.1228  1.7172
54790SOL     OW82361   9.885   0.036   3.977 -0.0681 -0.4780  0.5128
54790SOL    HW182362   9.860  -0.036   3.920  1.0643  0.3354 -1.0937
54790SOL    HW282363   9.960   0.076   3.934 -1.7206  2.7957  0.3175
54791SOL     OW82364   7.464   4.518   9.855  0.1459  0.1424  0.1769
54791SOL    HW182365   7.418   4.596   9.886 -1.1291  0.0111 -1.3010
54791SOL    HW282366   7.520   4.550   9.784 -1.8764 -0.5049 -1.8301
54792SOL     OW82367  10.389   9.003   1.815 -0.1462 -0.2996 -0.4015
54792SOL    HW182368  10.423   8.937   1.754 -0.1813 -0.5589 -0.1454
54792SOL    HW282369  10.367   9.078   1.760 -0.3948 -0.6153 -0.7410
54793SOL     OW82370  10.602   9.460   0.680  0.7361  0.2670 -0.2190
54793SOL    HW182371  10.616   9.542   0.727  0.0533  0.0452  0.3888
54793SOL    HW282372  10.516   9.471   0.638  1.3206  0.4549 -1.4138
54794SOL     OW82373  12.551   7.914   7.044  0.2204 -0.1596 -0.4582
54794SOL    HW182374  12.490   7.911   6.971  0.6446  1.5676 -0.9357
54794SOL    HW282375  12.539   8.001   7.083  1.6823 -0.1372  0.0244
54795SOL     OW82376   9.889   4.864   2.760 -0.1847  0.3750 -0.5022
54795SOL    HW182377   9.958   4.801   2.780  0.3548  0.7701 -1.0963
54795SOL    HW282378   9.875   4.855   2.665 -0.1567  1.0846 -0.5798
54796SOL     OW82379   1.225   9.543  13.438 -0.8391 -1.0126 -0.3719
54796SOL    HW182380   1.320   9.550  13.449 -1.0716 -1.5162  3.6763
54796SOL    HW282381   1.192   9.630  13.461 -1.3896 -1.4035  0.3786
54797SOL     OW82382   4.291  13.875   9.124 -0.0857  0.5640  0.6932
54797SOL    HW182383   4.249  13.960   9.113 -0.5830  0.1934 -0.4804
54797SOL    HW282384   4.358  13.872   9.055 -0.8116 -0.4158  0.0072
54798SOL     OW82385  12.546   4.366   8.227  0.8077  0.6098 -0.0345
54798SOL    HW182386  12.520   4.405   8.310  1.7759 -0.4328  0.7958
54798SOL    HW282387  12.487   4.404   8.162 -2.5807 -1.3162  1.6568
54799SOL     OW82388   2.741  10.108   4.381  0.1764 -0.6589  0.4334
54799SOL    HW182389   2.663  10.053   4.384  0.4888 -1.3198 -1.7156
54799SOL    HW282390   2.809  10.057   4.424  0.2142 -1.5296 -0.6392
54800SOL     OW82391  10.389   7.007  12.603  0.3508  0.4119 -0.1864
54800SOL    HW182392  10.310   6.952  12.605  1.1246 -0.6939  0.8618
54800SOL    HW282393  10.413   7.010  12.510  1.1667 -2.3547 -0.1398
54801SOL     OW82394   6.703   3.391  10.079  0.1420  0.2563 -0.0492
54801SOL    HW182395   6.736   3.319  10.024  1.0702 -0.3332  1.2206
54801SOL    HW282396   6.781   3.441  10.103 -0.4330  1.4032 -0.4841
54802SOL     OW82397   9.825   8.740   7.304 -0.0837 -0.2153 -0.3330
54802SOL    HW182398   9.911   8.729   7.343  0.3386  0.4134 -1.0725
54802SOL    HW282399   9.787   8.652   7.304  0.7614 -0.5840 -0.4888
54803SOL     OW82400   7.577   4.129   0.199  0.0225  0.6199 -0.4320
54803SOL    HW182401   7.584   4.089   0.112 -0.1045 -0.8390  0.2117
54803SOL    HW282402   7.668   4.137   0.228  0.0560  0.9487 -0.6211
54804SOL     OW82403   8.414   3.402   0.859  0.0969 -0.0028 -0.0510
54804SOL    HW182404   8.443   3.476   0.805  0.2440  0.5843  0.8122
54804SOL    HW282405   8.344   3.438   0.913 -0.5049 -0.7581 -0.3134
54805SOL     OW82406   7.782   3.396   0.618  0.2091  0.3926  0.3213
54805SOL    HW182407   7.763   3.450   0.695 -0.5449  0.0258  0.4069
54805SOL    HW282408   7.752   3.308   0.643  2.3469 -0.3070  0.5666
54806SOL     OW82409   9.218   9.425   2.798  0.1738  0.1729 -0.7006
54806SOL    HW182410   9.258   9.418   2.884  1.1751  0.3828 -1.1360
54806SOL    HW282411   9.196   9.334   2.774  0.2316  0.0747 -0.3809
54807SOL     OW82412   8.531   2.795   5.229 -0.4505  0.3294 -0.3786
54807SOL    HW182413   8.486   2.879   5.223  1.1733  1.2718  0.0009
54807SOL    HW282414   8.612   2.815   5.276  0.3577 -1.2989 -1.0156
54808SOL     OW82415   1.444   3.825   2.333  0.8965  0.4211  0.5103
54808SOL    HW182416   1.390   3.778   2.398 -0.3698  0.4592 -0.4765
54808SOL    HW282417   1.534   3.801   2.355  0.4867  0.2034  2.1002
54809SOL     OW82418   9.038   4.216   6.109 -0.2910  0.4904  0.0934
54809SOL    HW182419   9.070   4.160   6.180 -1.1728 -0.1004  0.0348
54809SOL    HW282420   9.055   4.166   6.029  0.4573  1.0439 -0.1077
54810SOL     OW82421   6.619   0.383  13.305  0.1064  0.3125  0.1616
54810SOL    HW182422   6.704   0.381  13.349 -0.6917  1.4057  1.8668
54810SOL    HW282423   6.625   0.457  13.244  1.1019 -0.9997 -1.4149
54811SOL     OW82424   8.550  12.068  12.358  0.0963  0.3816  0.2444
54811SOL    HW182425   8.545  11.988  12.306  0.8289 -0.4339  1.3711
54811SOL    HW282426   8.463  12.107  12.352 -0.7765 -1.3427  0.9405
54812SOL     OW82427  10.317  12.354   0.560 -0.4125 -0.2084 -0.0217
54812SOL    HW182428  10.374  12.278   0.549 -0.5325 -0.2365 -0.4744
54812SOL    HW282429  10.284  12.373   0.472  0.0321  0.7022 -0.0019
54813SOL     OW82430  12.277   6.799   6.080  0.0851  0.5958 -0.3364
54813SOL    HW182431  12.219   6.823   6.008  0.2809  1.5716 -0.1868
54813SOL    HW282432  12.257   6.863   6.149  0.8513  0.5185 -0.0321
54814SOL     OW82433   6.862  11.504   4.952 -0.2173 -0.9786 -0.2461
54814SOL    HW182434   6.809  11.458   4.887 -1.0636  1.2797 -1.2437
54814SOL    HW282435   6.911  11.569   4.901 -2.7071  2.5441  1.4697
54815SOL     OW82436   3.352   3.416  13.770  0.3733 -0.3383  0.3802
54815SOL    HW182437   3.318   3.387  13.855 -0.2969 -0.1140  0.1971
54815SOL    HW282438   3.438   3.453  13.790 -0.0153  0.2373  1.0593
54816SOL     OW82439  12.641  11.985   0.435  0.6907  0.6522 -0.5144
54816SOL    HW182440  12.673  12.057   0.490  2.5802 -1.3673  1.2280
54816SOL    HW282441  12.699  11.985   0.359  0.7534  0.8926 -0.4685
54817SOL     OW82442   2.844   8.370   1.494  0.2287  0.4989 -0.5254
54817SOL    HW182443   2.796   8.352   1.413  1.0979  0.0897 -0.9644
54817SOL    HW282444   2.935   8.381   1.466  0.1278  3.5426 -0.0481
54818SOL     OW82445  11.470  13.246   1.364  0.2055  0.0965 -0.2086
54818SOL    HW182446  11.496  13.159   1.334  0.0379 -0.1056  0.2204
54818SOL    HW282447  11.407  13.276   1.299  1.5220  0.6108 -1.2756
54819SOL     OW82448   8.246   0.488  11.387 -0.0107  0.4571 -0.3243
54819SOL    HW182449   8.199   0.429  11.327 -1.9488  1.1604  0.4238
54819SOL    HW282450   8.325   0.440  11.411 -1.7522 -2.1529  0.6770
54820SOL     OW82451   1.516   4.836   7.723  0.9545  0.5418 -0.1574
54820SOL    HW182452   1.574   4.797   7.657 -0.7400 -2.2509 -0.1422
54820SOL    HW282453   1.505   4.926   7.695  1.9826  0.0148 -2.4749
54821SOL     OW82454   1.189   5.620   1.536  0.3439 -0.1587 -0.4203
54821SOL    HW182455   1.235   5.600   1.618  1.8758  2.6855 -0.4487
54821SOL    HW282456   1.146   5.703   1.552  0.8171  0.5615 -2.5232
54822SOL     OW82457   8.427   7.740   8.563  0.1063 -0.2482  0.0380
54822SOL    HW182458   8.479   7.804   8.516  0.8367 -1.2519 -0.5662
54822SOL    HW282459   8.489   7.696   8.621 -0.9709  1.7641  2.9581
54823SOL     OW82460  11.641   3.587   2.377 -0.3521  0.3218  0.0388
54823SOL    HW182461  11.733   3.567   2.393  0.2630  1.5766 -1.6477
54823SOL    HW282462  11.600   3.501   2.365  0.1163 -0.3972  2.8073
54824SOL     OW82463   0.150   9.565  10.175 -0.1474 -0.1392 -0.1497
54824SOL    HW182464   0.137   9.470  10.172  0.1834 -0.2911  1.7187
54824SOL    HW282465   0.242   9.577  10.149  0.1299 -0.4598  0.6348
54825SOL     OW82466   1.896   9.750   8.215  0.4745  0.5678 -0.7592
54825SOL    HW182467   1.963   9.760   8.147 -0.9459  0.6723 -2.2213
54825SOL    HW282468   1.841   9.828   8.205 -0.5469 -0.0993 -0.4054
54826SOL     OW82469   7.502   4.655   2.938 -0.2571 -0.2944 -0.5141
54826SOL    HW182470   7.496   4.740   2.983 -0.3159  0.5056 -1.9722
54826SOL    HW282471   7.428   4.654   2.878 -1.5709 -2.3766  1.0075
54827SOL     OW82472  13.348  13.455   4.018  0.2303 -0.0210  0.2079
54827SOL    HW182473  13.275  13.417   4.067  0.6027  1.4035  1.9698
54827SOL    HW282474  13.419  13.391   4.026 -0.9505 -1.7553 -2.1208
54828SOL     OW82475  12.467   7.358   7.686  0.2722 -0.0285  0.2962
54828SOL    HW182476  12.379   7.321   7.693  0.3759 -0.3959 -0.2281
54828SOL    HW282477  12.466   7.406   7.603  2.0342 -4.3835 -2.6631
54829SOL     OW82478  12.342  11.054   2.298  1.1514  0.4490  0.0749
54829SOL    HW182479  12.342  11.079   2.205  0.0354  0.3115  0.0358
54829SOL    HW282480  12.400  11.119   2.339  1.8511  0.3682 -0.7438
54830SOL     OW82481   4.208   8.575  11.561 -0.0063 -0.3243 -0.2404
54830SOL    HW182482   4.262   8.497  11.576  0.0318 -0.7365 -2.2452
54830SOL    HW282483   4.209   8.587  11.466  1.3572  3.0883  0.0362
54831SOL     OW82484   8.191  10.199   1.573 -0.1690  0.4613 -0.1766
54831SOL    HW182485   8.103  10.235   1.580 -0.5637 -0.6852  1.4451
54831SOL    HW282486   8.198  10.171   1.481 -1.1971  1.2309 -0.5132
54832SOL     OW82487   6.493   7.047  12.113  0.4330 -0.0789  0.2467
54832SOL    HW182488   6.558   7.099  12.066  1.1400 -0.0104  1.2588
54832SOL    HW282489   6.409   7.073  12.076  0.9479  0.1408 -0.7954
54833SOL     OW82490   2.496   7.247  13.301 -0.0500 -0.3823  0.4162
54833SOL    HW182491   2.445   7.187  13.356 -0.3234 -0.3845  0.1617
54833SOL    HW282492   2.432   7.288  13.244  0.3431 -1.1102 -0.5869
54834SOL     OW82493   2.044   6.468  10.241 -0.4852  0.2405  0.8081
54834SOL    HW182494   2.037   6.410  10.165  0.7522  0.2315  0.6715
54834SOL    HW282495   2.068   6.411  10.313 -0.2843  0.4334  0.8976
54835SOL     OW82496  14.152   5.868  11.338  0.2161 -0.0653  0.3040
54835SOL    HW182497  14.104   5.819  11.404 -1.6244 -0.5538 -1.2952
54835SOL    HW282498  14.221   5.809  11.308  0.8657  0.0492  1.5101
54836SOL     OW82499   9.496  13.647  12.290 -0.3884  0.2423  0.4694
54836SOL    HW182500   9.492  13.687  12.377 -1.9545 -2.8214  1.9838
54836SOL    HW282501   9.435  13.698  12.237 -2.5182 -0.1577  2.3586
54837SOL     OW82502  10.720   1.816  13.334  0.1459  0.0935  0.2513
54837SOL    HW182503  10.796   1.758  13.323  0.2921  0.3703 -0.2448
54837SOL    HW282504  10.757   1.902  13.352 -0.0452  0.2295  0.0067
54838SOL     OW82505   4.381  11.910   7.563 -0.0083  0.0390 -0.2613
54838SOL    HW182506   4.325  11.981   7.594 -0.7481 -1.0404  0.9475
54838SOL    HW282507   4.387  11.923   7.469 -1.0306  1.0601 -0.1968
54839SOL     OW82508   6.074  13.265  13.921 -0.2613 -0.8117 -0.0977
54839SOL    HW182509   6.025  13.295  13.845  1.1115 -0.5032 -0.9077
54839SOL    HW282510   6.055  13.172  13.927  0.1148 -0.9814 -1.2325
54840SOL     OW82511  12.942   3.098  12.671  0.0014 -0.0010  0.3036
54840SOL    HW182512  12.940   3.168  12.737 -1.7705  0.0011  0.3110
54840SOL    HW282513  12.866   3.117  12.615  0.8470 -0.6202 -1.0919
54841SOL     OW82514   1.656   3.740  12.341 -0.0439  0.3360 -0.8954
54841SOL    HW182515   1.695   3.726  12.255  2.4973 -3.8395  0.5928
54841SOL    HW282516   1.624   3.653  12.367  1.6284  0.7047  3.2342
54842SOL     OW82517   8.358   6.265   6.253  0.2413 -0.1198  0.3400
54842SOL    HW182518   8.447   6.241   6.279  0.6127  2.8978  2.4553
54842SOL    HW282519   8.304   6.191   6.280  2.1249 -2.6157 -2.2084
54843SOL     OW82520   0.743   6.025  11.398 -0.2604 -0.0955  0.0206
54843SOL    HW182521   0.730   5.936  11.365 -0.4211 -0.0065 -0.1589
54843SOL    HW282522   0.663   6.071  11.374  0.3093  0.4231 -0.9613
54844SOL     OW82523   3.278   4.894  11.522 -0.3652 -0.2279 -0.0148
54844SOL    HW182524   3.296   4.924  11.612 -0.3384 -0.3802  0.0307
54844SOL    HW282525   3.184   4.875  11.522 -0.2117 -1.0327  0.2183
54845SOL     OW82526   4.188   4.169  11.538  0.1423 -0.2068 -0.0788
54845SOL    HW182527   4.180   4.254  11.494 -0.3455 -0.0014  0.3937
54845SOL    HW282528   4.097   4.143  11.555  0.3287 -0.1968  0.9656
54846SOL     OW82529  13.137   4.753   4.214 -0.0530 -0.0962  0.4996
54846SOL    HW182530  13.193   4.676   4.217  0.5595  0.3220  0.0155
54846SOL    HW282531  13.048   4.718   4.223  0.0385 -1.0906 -1.7017
54847SOL     OW82532   1.343   5.615  12.311  0.0873  0.2944 -0.2066
54847SOL    HW182533   1.311   5.668  12.384  0.4064  0.1150  0.0634
54847SOL    HW282534   1.290   5.535  12.315 -0.8814  0.8632 -1.0348
54848SOL     OW82535   2.074  12.189  10.563 -0.0946 -0.7854 -0.5017
54848SOL    HW182536   2.039  12.230  10.642 -0.3326 -1.1442 -0.4180
54848SOL    HW282537   2.004  12.131  10.534  0.5121 -1.6828 -0.1996
54849SOL     OW82538   3.915   3.414   4.375 -0.1490  0.1499 -0.3634
54849SOL    HW182539   3.976   3.450   4.311 -0.4196  2.1184  0.4089
54849SOL    HW282540   3.836   3.467   4.365 -0.7781 -0.5901  0.4943
54850SOL     OW82541  13.300   4.413  11.070 -0.0643  0.6025  0.3511
54850SOL    HW182542  13.340   4.400  10.984  1.3127  0.4321  0.9759
54850SOL    HW282543  13.220   4.462  11.053 -0.6882 -0.8534 -1.1781
54851SOL     OW82544   2.938   5.168   2.589  0.0736 -0.1470 -0.4427
54851SOL    HW182545   3.023   5.133   2.562  0.1221 -1.3172  1.1052
54851SOL    HW282546   2.954   5.206   2.675 -0.6342  1.1184 -0.8515
54852SOL     OW82547  10.788   1.923   5.174 -0.0716 -0.0459 -0.1467
54852SOL    HW182548  10.873   1.967   5.185  0.3641 -0.8393 -0.2296
54852SOL    HW282549  10.764   1.939   5.082  1.0224 -1.5530 -0.7439
54853SOL     OW82550   2.351   4.153   0.153 -0.1010  0.0506 -0.3481
54853SOL    HW182551   2.337   4.199   0.070  0.6633  0.6658 -0.1455
54853SOL    HW282552   2.348   4.222   0.219 -2.7686 -0.6485  0.4103
54854SOL     OW82553   0.088   2.725   5.434  0.1577  0.2320  0.1914
54854SOL    HW182554   0.050   2.680   5.359 -1.2898  1.0701  0.3806
54854SOL    HW282555   0.156   2.666   5.466  1.5133  0.2968 -2.3575
54855SOL     OW82556   6.509   3.071  13.199  0.0119 -0.2290 -0.2925
54855SOL    HW182557   6.417   3.048  13.187  0.5336 -1.6542 -2.1062
54855SOL    HW282558   6.538   3.019  13.274 -0.1170 -1.5992 -1.1686
54856SOL     OW82559   8.403   5.562  10.549 -0.2835  0.3700  0.3663
54856SOL    HW182560   8.420   5.651  10.518  0.5397  0.4970  1.1472
54856SOL    HW282561   8.381   5.513  10.469  0.5325  0.9849 -0.2596
54857SOL     OW82562  12.440   3.491   5.226  0.8188  0.5473 -0.2703
54857SOL    HW182563  12.394   3.494   5.142  0.8146 -0.4034 -0.3061
54857SOL    HW282564  12.407   3.413   5.269  0.8438  1.0097  0.6128
54858SOL     OW82565   2.182   8.614  10.165  0.0317  0.0119 -0.3528
54858SOL    HW182566   2.215   8.552  10.100 -1.2535 -0.1827 -0.8395
54858SOL    HW282567   2.100   8.646  10.129  0.4717  1.7431  0.0543
54859SOL     OW82568  12.004   2.702   0.659 -0.3448  0.5097  0.1908
54859SOL    HW182569  11.948   2.628   0.637 -0.5017  1.1655 -1.8350
54859SOL    HW282570  12.019   2.694   0.753 -1.1929 -1.4905  0.2047
54860SOL     OW82571   8.746   7.873   8.074  0.0280 -0.1459  0.6701
54860SOL    HW182572   8.736   7.936   8.003 -0.6114  0.2465  1.0914
54860SOL    HW282573   8.812   7.812   8.043  0.6727  0.7326  0.2484
54861SOL     OW82574  10.115  12.406   3.860  0.6276  0.2393  0.1633
54861SOL    HW182575  10.079  12.492   3.882  0.9953  0.0205  1.8151
54861SOL    HW282576  10.111  12.357   3.943 -2.4262 -2.3983 -1.3032
54862SOL     OW82577  13.049  10.305   4.073 -0.2312 -0.0425 -0.2969
54862SOL    HW182578  12.982  10.368   4.096 -0.2419 -0.1712  0.0330
54862SOL    HW282579  13.069  10.323   3.981  0.5171  1.1321  0.0772
54863SOL     OW82580   5.805   8.556   5.441  0.5093  0.4275  0.2126
54863SOL    HW182581   5.780   8.593   5.525  0.9241  1.4913 -0.1170
54863SOL    HW282582   5.776   8.621   5.377 -0.8627 -0.8872 -0.5835
54864SOL     OW82583   1.112   2.466  13.400  0.2877 -0.7053 -0.0401
54864SOL    HW182584   1.201   2.483  13.371  0.7681 -1.4870  0.9502
54864SOL    HW282585   1.065   2.442  13.319  1.1973 -1.2051 -0.4376
54865SOL     OW82586   0.735   6.701   9.358  0.0511  0.3457 -0.8114
54865SOL    HW182587   0.677   6.678   9.431  1.4402 -1.3839 -0.1698
54865SOL    HW282588   0.777   6.782   9.385 -1.1531  0.9633 -0.7428
54866SOL     OW82589  13.236   2.055   7.132  0.7060  0.5845  0.2792
54866SOL    HW182590  13.192   2.015   7.057  1.1097  1.5125 -0.4680
54866SOL    HW282591  13.260   1.980   7.188  0.4446 -0.1206 -0.5263
54867SOL     OW82592   8.796   7.066   1.611  0.1466 -0.0490  0.3463
54867SOL    HW182593   8.726   7.106   1.559 -0.1870  0.6590  1.2986
54867SOL    HW282594   8.858   7.137   1.626  0.3799 -0.3172  0.6603
54868SOL     OW82595  10.218  12.922  10.721 -0.8399  0.3499 -0.3860
54868SOL    HW182596  10.271  12.989  10.677  0.0332  1.8904  2.7081
54868SOL    HW282597  10.133  12.964  10.736 -0.8422  0.1723  0.1248
54869SOL     OW82598   9.498  11.744   6.541  0.1980  0.1586  0.2972
54869SOL    HW182599   9.410  11.767   6.513  0.5645  1.2067 -0.0516
54869SOL    HW282600   9.543  11.718   6.461  0.1432 -0.5971  0.5085
54870SOL     OW82601   4.911  13.279   2.857  0.8121  0.1218  0.1884
54870SOL    HW182602   4.923  13.332   2.778  1.4385 -1.5383 -0.8714
54870SOL    HW282603   4.828  13.233   2.843  0.7910  0.0119  0.6382
54871SOL     OW82604   6.544  13.831   2.384 -0.1617 -0.0658 -0.5395
54871SOL    HW182605   6.503  13.745   2.377  0.2523 -0.3653  0.5602
54871SOL    HW282606   6.558  13.843   2.478  0.4047  0.9151 -0.7393
54872SOL     OW82607   5.575  12.536   6.709  0.2752 -0.1794 -0.7585
54872SOL    HW182608   5.481  12.549   6.696  0.3177  3.0817  1.0128
54872SOL    HW282609   5.582  12.451   6.752 -2.1820  0.5400  1.3402
54873SOL     OW82610   5.862  12.856  11.381 -1.0758  0.1729 -0.1294
54873SOL    HW182611   5.796  12.884  11.444 -2.3068 -1.8160 -0.4436
54873SOL    HW282612   5.812  12.825  11.305  0.2266 -0.6891 -0.6901
54874SOL     OW82613  11.821   1.786   1.145 -0.1168 -0.1065  0.5192
54874SOL    HW182614  11.892   1.840   1.111 -1.2748  0.3318 -1.3526
54874SOL    HW282615  11.801   1.824   1.230  0.6375  0.9525  0.2397
54875SOL     OW82616   2.575   8.918  10.924 -0.0710 -0.1688  0.1667
54875SOL    HW182617   2.563   8.882  11.012  1.2525  1.5238  1.0993
54875SOL    HW282618   2.602   8.844  10.871  0.8339 -0.9238  1.6133
54876SOL     OW82619   1.008   7.629   5.946 -0.3230 -0.6021  0.6233
54876SOL    HW182620   1.102   7.632   5.925  0.1413 -3.4740  1.7481
54876SOL    HW282621   0.996   7.543   5.987 -3.5169 -0.4326  0.2878
54877SOL     OW82622   9.598   0.813   4.343 -0.6222 -0.0230  0.5464
54877SOL    HW182623   9.545   0.745   4.300  2.1793 -1.6675 -0.5221
54877SOL    HW282624   9.556   0.895   4.316 -1.0924 -1.1369 -2.5596
54878SOL     OW82625   6.022  12.330  13.055  0.0190  0.2838  0.0235
54878SOL    HW182626   5.979  12.245  13.042 -0.5587  0.7748 -1.4777
54878SOL    HW282627   5.950  12.393  13.056  0.2415  0.6520  3.0450
54879SOL     OW82628   9.556  11.603  11.440 -0.2119  0.4412  0.0470
54879SOL    HW182629   9.635  11.601  11.494 -0.1036  0.3289 -0.1136
54879SOL    HW282630   9.491  11.646  11.495 -0.0440  0.5191  0.1879
54880SOL     OW82631   8.583   6.638  11.838  0.0902 -0.5028 -0.7535
54880SOL    HW182632   8.571   6.715  11.782 -1.2681 -1.0472 -1.2438
54880SOL    HW282633   8.660   6.594  11.803  0.4462  0.2470 -0.9204
54881SOL     OW82634  13.612   4.382  13.292 -0.0915  0.4802  0.0755
54881SOL    HW182635  13.701   4.417  13.296  0.4762 -0.9813  1.4250
54881SOL    HW282636  13.562   4.438  13.352 -0.1164  1.3379 -0.7271
54882SOL     OW82637   1.640   8.528   8.644  0.4073 -0.0062 -0.1944
54882SOL    HW182638   1.657   8.531   8.738 -0.7292  1.3202 -0.0025
54882SOL    HW282639   1.701   8.461   8.611  0.1690 -1.1911  1.6011
54883SOL     OW82640   8.743  10.836   1.178 -0.1232  0.3983 -0.1180
54883SOL    HW182641   8.773  10.877   1.259 -1.0906  0.3584  0.2770
54883SOL    HW282642   8.721  10.910   1.121  2.6895  0.4953 -1.2484
54884SOL     OW82643   4.491   6.270   3.628  0.6774 -0.6953  0.0836
54884SOL    HW182644   4.417   6.226   3.586  0.7094 -0.1627 -0.5397
54884SOL    HW282645   4.568   6.230   3.588  0.7075 -0.1834 -0.3858
54885SOL     OW82646   3.615  10.869   3.691 -0.4029  0.1386  0.0687
54885SOL    HW182647   3.551  10.940   3.700 -1.0212 -0.6240  2.3151
54885SOL    HW282648   3.685  10.907   3.637 -0.5673  2.5647  1.4188
54886SOL     OW82649  10.634  14.012   7.074 -0.1592  0.2377 -0.8699
54886SOL    HW182650  10.728  13.999   7.060 -0.5856 -1.4357 -2.5041
54886SOL    HW282651  10.598  13.924   7.086 -1.3998  0.9242  0.8224
54887SOL     OW82652   5.527  13.430  11.284 -0.6271 -0.1112  0.1790
54887SOL    HW182653   5.570  13.351  11.316 -3.3071 -2.1052 -0.8561
54887SOL    HW282654   5.445  13.435  11.332 -1.1651  1.2588 -0.7976
54888SOL     OW82655   8.955  11.064  11.445 -0.5845 -0.2570  0.6525
54888SOL    HW182656   9.043  11.028  11.455  0.3590  2.0452  1.0868
54888SOL    HW282657   8.934  11.102  11.531 -0.6355  2.0858 -0.3469
54889SOL     OW82658   4.460  11.205  11.996  0.0961 -0.1251 -0.5192
54889SOL    HW182659   4.501  11.160  12.070  0.4536  1.3525  0.2235
54889SOL    HW282660   4.381  11.245  12.032  0.6220  1.1678 -0.7479
54890SOL     OW82661   5.352   6.086   4.972 -0.2358  0.6582  0.1794
54890SOL    HW182662   5.356   6.182   4.962 -0.1488  0.7106  0.6789
54890SOL    HW282663   5.351   6.053   4.883  2.0191  1.0422 -0.0522
54891SOL     OW82664   9.427   0.644   0.387  0.2745  0.3945 -0.5456
54891SOL    HW182665   9.494   0.704   0.354  1.4785  0.1416  1.2839
54891SOL    HW282666   9.439   0.564   0.337  2.7997 -0.3720  1.1075
54892SOL     OW82667   6.521   9.292   0.347  0.1212  0.7583  0.0211
54892SOL    HW182668   6.473   9.374   0.362  0.1454  0.7252  0.2791
54892SOL    HW282669   6.515   9.245   0.430  0.2722  0.5826 -0.0671
54893SOL     OW82670  10.320   8.757   8.562  0.2583 -0.3095 -0.1255
54893SOL    HW182671  10.318   8.833   8.621  0.4206 -0.3680 -0.0462
54893SOL    HW282672  10.232   8.720   8.568 -0.2984  0.7353 -1.2921
54894SOL     OW82673   7.946  11.524  12.284 -0.5467  0.1200  0.0621
54894SOL    HW182674   7.993  11.601  12.317 -1.3540  0.8712 -0.4869
54894SOL    HW282675   7.969  11.520  12.192  1.4684 -1.7995  0.5757
54895SOL     OW82676  12.479  11.774  14.076 -0.0114  0.6441 -0.4096
54895SOL    HW182677  12.511  11.808  14.160  1.0066 -1.1599 -0.0102
54895SOL    HW282678  12.387  11.799  14.073  0.1684  1.5424  0.8120
54896SOL     OW82679   7.339  11.848   4.524  0.6446 -0.0720 -0.0558
54896SOL    HW182680   7.399  11.785   4.563 -0.0602 -1.3475 -0.9765
54896SOL    HW282681   7.380  11.871   4.440  0.2715 -0.2943 -0.3002
54897SOL     OW82682   5.248  12.167   3.673 -0.6543 -0.2448  0.0480
54897SOL    HW182683   5.236  12.163   3.578  2.0441 -0.2522 -0.3666
54897SOL    HW282684   5.162  12.195   3.707 -2.2046 -1.9118 -2.1907
54898SOL     OW82685   2.876  12.083  13.710  0.3077 -0.3696  0.9375
54898SOL    HW182686   2.855  12.167  13.670  1.9436  0.3841  1.5913
54898SOL    HW282687   2.799  12.029  13.693 -0.5575  1.0766  0.0370
54899SOL     OW82688   6.053   6.955   8.474  0.2245  0.6200  0.4239
54899SOL    HW182689   6.043   7.032   8.530 -1.7244  0.3691  0.4972
54899SOL    HW282690   6.105   6.894   8.527  0.7968  1.4348  0.8280
54900SOL     OW82691   4.368  12.584   6.625  0.2413 -0.0476 -0.3171
54900SOL    HW182692   4.313  12.518   6.666  0.8933 -1.1592 -1.1702
54900SOL    HW282693   4.424  12.615   6.696 -0.1894 -0.2831  0.1361
54901SOL     OW82694  11.746   4.991  11.516  0.4177  0.3076 -0.2910
54901SOL    HW182695  11.658   5.028  11.521  0.1547 -0.2957 -0.3659
54901SOL    HW282696  11.801   5.054  11.562 -0.3548 -0.2621  1.4874
54902SOL     OW82697   6.158  10.406  13.562  0.3064 -0.2970 -0.5004
54902SOL    HW182698   6.128  10.489  13.600  2.5882  0.6202 -0.5706
54902SOL    HW282699   6.127  10.339  13.623 -1.1965  0.6042 -0.2116
54903SOL     OW82700  11.984  11.500  10.774 -0.0996 -0.1195  0.0725
54903SOL    HW182701  12.067  11.464  10.805 -0.2891 -0.6528 -0.0368
54903SOL    HW282702  11.919  11.435  10.799 -0.5234  0.4301  0.4125
54904SOL     OW82703   7.235  13.493   9.525  0.4889 -0.5486  0.5406
54904SOL    HW182704   7.145  13.467   9.541  0.2435 -0.0466  0.0239
54904SOL    HW282705   7.229  13.584   9.496  1.2199 -0.3034  1.1285
54905SOL     OW82706   7.951   0.661   8.177 -0.4389 -0.5668  0.2334
54905SOL    HW182707   8.001   0.614   8.110 -0.0654  1.0528 -0.6737
54905SOL    HW282708   7.963   0.608   8.256  1.5166 -1.0112 -0.2951
54906SOL     OW82709  12.147   3.157  11.832  0.0906 -0.4377  0.1741
54906SOL    HW182710  12.240   3.141  11.848 -0.0407 -1.7081 -0.1859
54906SOL    HW282711  12.141   3.169  11.737  0.0242  0.7318  0.3202
54907SOL     OW82712   6.071   6.664  13.155  0.2052 -0.2687  0.9827
54907SOL    HW182713   6.157   6.669  13.114 -0.4562  1.6024 -0.3683
54907SOL    HW282714   6.015   6.624  13.088 -0.3840  0.5248  0.9855
54908SOL     OW82715   0.735   3.577   2.326 -0.0992  0.3518 -0.0518
54908SOL    HW182716   0.665   3.553   2.265 -0.0580  1.6574 -0.6401
54908SOL    HW282717   0.814   3.576   2.273  0.2391 -0.3759  0.4416
54909SOL     OW82718   5.767   5.181  13.023 -1.0654  0.2496 -0.0015
54909SOL    HW182719   5.749   5.261  12.974  0.0025  0.3472 -0.2510
54909SOL    HW282720   5.793   5.117  12.956  3.2142  1.1478  0.5259
54910SOL     OW82721   2.792  12.145   9.571  0.5497  0.1058 -0.2691
54910SOL    HW182722   2.714  12.125   9.520  1.3713 -1.7797 -0.8935
54910SOL    HW282723   2.862  12.153   9.507  1.1151  0.4400  0.3704
54911SOL     OW82724  11.500  12.958   4.478  0.4015  0.2444  0.1401
54911SOL    HW182725  11.593  12.944   4.496  0.1676 -0.1193  1.1598
54911SOL    HW282726  11.495  13.049   4.449  1.0960  0.2207 -0.0668
54912SOL     OW82727   5.720   3.907   5.183 -0.2783 -0.3810 -0.3666
54912SOL    HW182728   5.698   3.991   5.142 -0.9462 -0.6124 -0.5010
54912SOL    HW282729   5.688   3.915   5.273 -0.1417 -0.4118 -0.3150
54913SOL     OW82730   4.272  10.429   7.624 -0.5979 -0.3319  0.2989
54913SOL    HW182731   4.177  10.428   7.611 -0.6440 -1.4283  0.6120
54913SOL    HW282732   4.287  10.496   7.692 -0.9116  1.3397 -1.2040
54914SOL     OW82733   0.090  12.044   9.780 -0.7376  0.1283  0.1214
54914SOL    HW182734   0.124  12.076   9.864  1.0909 -1.6564  0.1598
54914SOL    HW282735   0.069  11.952   9.797 -1.0593 -0.0450 -1.1795
54915SOL     OW82736   0.162   8.585   1.651 -0.1114 -0.1963 -0.0094
54915SOL    HW182737   0.152   8.494   1.625 -2.3325 -0.3447  1.1366
54915SOL    HW282738   0.249   8.589   1.692  1.0382 -1.1900 -2.1823
54916SOL     OW82739   6.261   8.763   9.437 -0.3698 -0.0487 -0.0234
54916SOL    HW182740   6.190   8.699   9.431 -1.7201  1.4864 -4.4358
54916SOL    HW282741   6.337   8.712   9.465 -2.3551 -2.5257  1.2378
54917SOL     OW82742   3.564   9.479   3.536  0.0068 -0.8038  0.0703
54917SOL    HW182743   3.470   9.472   3.519  0.2128  0.6285 -2.0484
54917SOL    HW282744   3.599   9.393   3.514 -0.9259 -1.7779  2.1619
54918SOL     OW82745  13.322   4.882  14.004 -0.4209  0.3441 -0.7175
54918SOL    HW182746  13.407   4.908  14.041 -0.8226 -0.7644  1.0994
54918SOL    HW282747  13.345   4.822  13.932  0.3370  0.6550 -0.7510
54919SOL     OW82748  11.561   7.790  14.110  0.4265  0.8562  0.5312
54919SOL    HW182749  11.520   7.869  14.075 -0.4458 -0.1232 -0.7396
54919SOL    HW282750  11.498   7.756  14.174 -0.9300 -0.6932 -1.4794
54920SOL     OW82751   4.245   1.682  12.727 -0.3792 -0.1959  0.2159
54920SOL    HW182752   4.199   1.620  12.783 -1.8863  1.3280  0.7769
54920SOL    HW282753   4.271   1.632  12.650  0.4907 -2.0155  1.6312
54921SOL     OW82754   5.908  11.029   5.660 -0.1318  1.0654 -0.1703
54921SOL    HW182755   5.851  11.103   5.638 -1.6119 -0.1854 -0.7467
54921SOL    HW282756   5.962  11.061   5.732 -1.1040  2.5344 -0.0442
54922SOL     OW82757   9.778  10.873  12.502  0.1015 -0.8741 -0.6576
54922SOL    HW182758   9.837  10.948  12.493 -0.0694 -0.7437 -0.6931
54922SOL    HW282759   9.726  10.874  12.422 -1.8731  0.6757  0.5438
54923SOL     OW82760   7.419  13.523   9.745 -0.0597  0.3847 -0.3083
54923SOL    HW182761   7.443  13.612   9.718 -0.3788  0.1709 -1.3165
54923SOL    HW282762   7.345  13.500   9.689  1.4555 -1.3894 -1.7257
54924SOL     OW82763  10.833  13.540   0.205  0.6531 -0.0386 -0.1612
54924SOL    HW182764  10.875  13.507   0.285 -0.7031  0.8192  0.9617
54924SOL    HW282765  10.739  13.538   0.226  0.0860 -1.6145 -2.4509
54925SOL     OW82766  11.615   3.080   8.639 -0.7898 -0.4172  0.4957
54925SOL    HW182767  11.695   3.058   8.687 -2.0046 -3.2521  1.4413
54925SOL    HW282768  11.563   3.130   8.701 -0.0430  0.8816  0.0975
54926SOL     OW82769  12.783  10.435   6.595 -0.1370 -0.0800 -0.3515
54926SOL    HW182770  12.766  10.400   6.683  0.0638  0.1289 -0.2291
54926SOL    HW282771  12.696  10.445   6.556 -0.2196 -0.2909 -0.2213
54927SOL     OW82772  12.059  13.427   8.386  0.1617 -0.5467  0.6995
54927SOL    HW182773  12.032  13.400   8.298 -0.8222 -2.0857  1.4348
54927SOL    HW282774  12.018  13.512   8.398  1.4800  0.3813 -0.8304
54928SOL     OW82775   9.020   2.004  13.539 -0.2482  0.1802 -0.0336
54928SOL    HW182776   8.976   2.003  13.454  0.3524 -0.1059 -0.3482
54928SOL    HW282777   8.966   1.948  13.595  1.9322 -3.9026 -1.5848
54929SOL     OW82778   0.392   5.398   7.593  0.1309 -0.0312 -0.3820
54929SOL    HW182779   0.486   5.405   7.610 -0.0445  0.0772  0.5879
54929SOL    HW282780   0.353   5.472   7.641 -0.5860 -0.8928  0.4053
54930SOL     OW82781  11.972  13.769   7.242  0.3246  0.1601 -0.2421
54930SOL    HW182782  11.995  13.692   7.294  1.5059  0.6404 -0.0062
54930SOL    HW282783  11.951  13.734   7.155 -1.7104 -0.6526  0.5290
54931SOL     OW82784  13.301  10.534   6.258 -0.2368  0.1288  1.0268
54931SOL    HW182785  13.283  10.564   6.169 -1.2238 -1.2317  0.7444
54931SOL    HW282786  13.396  10.517   6.258 -0.6429 -3.0744 -0.8834
54932SOL     OW82787  12.282   2.666   8.689  0.0182 -0.2698 -0.2951
54932SOL    HW182788  12.320   2.581   8.712 -1.1946 -0.3688  1.5586
54932SOL    HW282789  12.188   2.653   8.701 -0.6168  0.2676 -3.7041
54933SOL     OW82790   8.658  11.651   0.677 -0.5537 -0.5145 -0.1720
54933SOL    HW182791   8.583  11.709   0.664 -1.2366 -1.7078 -1.9436
54933SOL    HW282792   8.695  11.641   0.589  2.4238  0.9250  0.7702
54934SOL     OW82793  11.785   4.596   9.722  0.4175  0.1714 -0.0936
54934SOL    HW182794  11.754   4.555   9.802 -2.8055  1.0252 -0.7590
54934SOL    HW282795  11.833   4.527   9.676  2.0545 -0.4156  2.3175
54935SOL     OW82796   7.083   9.483   6.038  0.3910  0.0492  0.0736
54935SOL    HW182797   7.044   9.471   6.124  0.0600 -1.3150 -0.2422
54935SOL    HW282798   7.020   9.536   5.990  1.6234  2.8193  1.3452
54936SOL     OW82799   6.710  11.204   7.551 -1.2584 -0.5968 -0.0467
54936SOL    HW182800   6.767  11.280   7.559 -0.3366 -1.2073 -0.5574
54936SOL    HW282801   6.728  11.152   7.629  0.9523 -2.1048 -1.4540
54937SOL     OW82802   7.168  12.472  14.083  0.7871 -0.4921  0.2521
54937SOL    HW182803   7.150  12.379  14.070  2.1769 -0.6377 -0.8451
54937SOL    HW282804   7.092  12.517  14.046  0.8418 -1.1500 -0.6807
54938SOL     OW82805   7.415  12.079   2.418  0.0889 -0.4116  0.3282
54938SOL    HW182806   7.377  12.166   2.432  0.5632 -0.3229  1.1610
54938SOL    HW282807   7.504  12.087   2.452 -0.6724 -1.9573  2.9628
54939SOL     OW82808  10.847   3.042   0.343 -0.5916  0.0059  0.4434
54939SOL    HW182809  10.937   3.040   0.375 -0.4479 -2.2362  0.1203
54939SOL    HW282810  10.851   3.092   0.262  0.4613 -0.3887  0.2386
54940SOL     OW82811  13.882   5.983   5.269  0.4703 -0.4739 -0.0717
54940SOL    HW182812  13.926   6.052   5.318  1.5498  1.0369 -2.9481
54940SOL    HW282813  13.797   6.019   5.246 -1.1576 -2.1629  2.6705
54941SOL     OW82814   1.608   7.687  11.421  0.1053 -0.6849 -0.5177
54941SOL    HW182815   1.697   7.711  11.446 -0.6850  1.2473  0.6304
54941SOL    HW282816   1.593   7.602  11.462  0.5199  0.1917  1.5253
54942SOL     OW82817   5.377   4.388   8.876  0.7402 -0.4979 -0.4461
54942SOL    HW182818   5.381   4.321   8.944  2.7851  0.5347  0.5225
54942SOL    HW282819   5.351   4.468   8.922  0.3187 -0.1708 -1.2281
54943SOL     OW82820   7.640   1.345  12.245 -0.6227  0.5565  0.4175
54943SOL    HW182821   7.590   1.400  12.185 -0.3810  1.3785  0.9571
54943SOL    HW282822   7.699   1.295  12.189 -1.0047  0.6802 -0.0985
54944SOL     OW82823   3.818   9.453  10.497  0.1470  0.1407  0.2313
54944SOL    HW182824   3.774   9.483  10.576  3.7532  0.8965  2.2006
54944SOL    HW282825   3.822   9.530  10.441 -0.4376  0.2250  0.3009
54945SOL     OW82826  13.247  11.880  10.235  0.0291 -0.2374 -0.2679
54945SOL    HW182827  13.295  11.904  10.155 -0.2107  2.0093  0.2082
54945SOL    HW282828  13.315  11.862  10.299  0.3317  2.5198  0.2833
54946SOL     OW82829   4.422  14.011  13.260 -0.4855  0.0676  0.4540
54946SOL    HW182830   4.462  14.060  13.188 -0.4501 -2.4828 -1.3683
54946SOL    HW282831   4.482  14.023  13.333  1.1540  0.1982 -0.8495
54947SOL     OW82832   9.194   0.141   7.764  0.0579  0.1050 -0.1074
54947SOL    HW182833   9.134   0.130   7.839 -1.0298  0.0905 -0.9514
54947SOL    HW282834   9.226   0.052   7.748  0.5509  0.1589  0.5375
54948SOL     OW82835  11.969   2.122   5.340 -0.5091  0.1612  0.1195
54948SOL    HW182836  12.026   2.187   5.381 -0.2754  0.1622 -0.1962
54948SOL    HW282837  12.030   2.061   5.298 -0.7351  0.7229 -1.0774
54949SOL     OW82838   5.470  13.101  11.521  0.4418 -0.6774  0.0051
54949SOL    HW182839   5.375  13.106  11.508  0.1903 -1.0104  1.5904
54949SOL    HW282840   5.493  13.186  11.560  0.7907 -0.6498 -0.2525
54950SOL     OW82841   5.967   0.923  13.746  0.1001  1.0859  0.0362
54950SOL    HW182842   5.947   0.964  13.831 -1.2595  1.0109 -0.2243
54950SOL    HW282843   6.063   0.923  13.742  0.1759  2.0904  1.0821
54951SOL     OW82844   7.074   0.675  10.617  0.4904  0.1458  0.0943
54951SOL    HW182845   7.163   0.651  10.646  0.0238 -0.7453  0.8811
54951SOL    HW282846   7.032   0.591  10.600 -0.6231  0.4822  1.0594
54952SOL     OW82847   7.933  11.120   8.661  0.4151  0.2573 -0.1241
54952SOL    HW182848   7.917  11.201   8.614 -0.7921 -0.3592 -0.8403
54952SOL    HW282849   7.946  11.055   8.592  0.0781 -0.3895  0.4101
54953SOL     OW82850  11.001   8.693   8.771  0.3724 -0.0741  0.4319
54953SOL    HW182851  10.976   8.620   8.714  1.7015 -1.5541  1.6254
54953SOL    HW282852  11.003   8.655   8.859  1.3582  1.3410  1.0682
54954SOL     OW82853   5.117   5.952  10.347  0.2804 -0.1703  0.2285
54954SOL    HW182854   5.045   6.005  10.313 -0.5012 -0.0170  2.0128
54954SOL    HW282855   5.191   6.013  10.353  0.5869 -0.3043 -1.5082
54955SOL     OW82856   0.637   2.423  11.047  0.4749 -0.9442 -0.4308
54955SOL    HW182857   0.569   2.363  11.078  0.8853 -0.3520  1.7588
54955SOL    HW282858   0.719   2.380  11.071  0.8785 -0.9286 -1.6813
54956SOL     OW82859   4.455  11.092  10.289  0.3158 -0.1678 -0.0060
54956SOL    HW182860   4.520  11.106  10.220  1.1973 -1.1475  0.5858
54956SOL    HW282861   4.487  11.144  10.363  1.6039 -2.2112  0.9699
54957SOL     OW82862   2.747  13.103   8.831 -0.0869  0.0986 -0.7037
54957SOL    HW182863   2.684  13.079   8.899  0.1528 -1.2369 -0.9216
54957SOL    HW282864   2.800  13.172   8.870  1.0485 -1.6639  1.0894
54958SOL     OW82865   9.109   6.967  12.690 -0.2314  0.0236  0.2714
54958SOL    HW182866   9.078   6.893  12.742  1.5399 -0.9883 -0.0188
54958SOL    HW282867   9.178   6.930  12.634 -2.7701  0.7110 -3.7742
54959SOL     OW82868   0.783  11.181   9.906  0.0855  0.3854 -0.1825
54959SOL    HW182869   0.699  11.226   9.918 -0.1520  0.1259 -0.8745
54959SOL    HW282870   0.808  11.153   9.994 -0.2941  0.9182  0.1012
54960SOL     OW82871  12.979   9.365   7.431 -0.5628 -0.5065 -0.0750
54960SOL    HW182872  12.924   9.294   7.466 -1.5825 -1.0862 -2.5855
54960SOL    HW282873  13.044   9.320   7.376  0.2187  0.3914  0.0920
54961SOL     OW82874  12.003   9.808   3.070 -0.1841 -0.3606  0.4598
54961SOL    HW182875  12.070   9.876   3.077 -0.5801  0.0785  0.0625
54961SOL    HW282876  11.940   9.844   3.008 -0.9167 -0.6625  1.0229
54962SOL     OW82877  10.908   5.328   9.967 -0.1138 -0.0701 -0.2422
54962SOL    HW182878  10.955   5.387  10.026 -0.2319 -1.0879  0.8888
54962SOL    HW282879  10.947   5.242   9.982 -1.6131 -0.7467 -0.0322
54963SOL     OW82880   1.670   3.326   0.979  0.5786 -0.6335  0.0571
54963SOL    HW182881   1.620   3.342   1.059 -1.3565 -2.1957 -0.7676
54963SOL    HW282882   1.693   3.233   0.983 -0.7629 -1.0908 -1.8153
54964SOL     OW82883   1.399   3.441   2.801 -0.2558  0.0876  0.2669
54964SOL    HW182884   1.334   3.438   2.872 -0.6756 -0.8431 -0.1436
54964SOL    HW282885   1.459   3.510   2.827 -1.3336  0.8729  0.7215
54965SOL     OW82886   0.834   0.561  10.802  0.2703  0.1180 -0.3039
54965SOL    HW182887   0.809   0.474  10.834 -2.4873  0.7728 -0.4268
54965SOL    HW282888   0.926   0.570  10.828 -0.1810 -1.6269  2.3841
54966SOL     OW82889   1.151   8.007   3.671  1.1567 -0.2492  0.0573
54966SOL    HW182890   1.147   8.029   3.764  0.1350 -1.1416  0.2428
54966SOL    HW282891   1.168   7.913   3.669  3.6866  0.1581 -0.7074
54967SOL     OW82892  11.207   1.555  12.128  0.2849 -0.1548 -0.0947
54967SOL    HW182893  11.184   1.463  12.117  2.9871 -0.9122 -0.1114
54967SOL    HW282894  11.285   1.554  12.183 -0.1508  2.2048  0.6540
54968SOL     OW82895   0.432   0.011   4.656 -0.7262  0.0569 -0.4887
54968SOL    HW182896   0.454   0.056   4.574 -0.1535 -0.4449 -0.6190
54968SOL    HW282897   0.341   0.034   4.672 -0.0725  2.4227  0.2112
54969SOL     OW82898   0.596   6.565  11.176  0.2544  0.1683 -0.1270
54969SOL    HW182899   0.619   6.557  11.268  0.9293 -1.5530 -0.3984
54969SOL    HW282900   0.667   6.617  11.137 -0.1321  1.0618  0.3358
54970SOL     OW82901   5.288   4.335  13.465 -0.3858  0.5152  0.4462
54970SOL    HW182902   5.194   4.349  13.452 -0.2854  2.3258  1.3009
54970SOL    HW282903   5.302   4.355  13.558  0.9462  0.9164  0.1749
54971SOL     OW82904   2.082   3.504   2.703 -1.0352 -0.1244 -0.2704
54971SOL    HW182905   2.110   3.594   2.716  0.9948 -0.5786 -1.0990
54971SOL    HW282906   2.053   3.501   2.612 -1.0021 -0.3215 -0.2752
54972SOL     OW82907   6.814  13.469   9.337  0.7470  0.3729  0.1011
54972SOL    HW182908   6.736  13.505   9.295  0.1980  0.7497  1.3856
54972SOL    HW282909   6.842  13.398   9.279 -0.4884  0.2974 -0.4302
54973SOL     OW82910   9.081  10.765   0.071  0.2693  0.2758  0.1062
54973SOL    HW182911   9.089  10.850   0.028 -2.1742  1.0861  1.0747
54973SOL    HW282912   9.074  10.786   0.164  1.6289 -1.1833  0.5880
54974SOL     OW82913   1.054   5.758   8.557 -0.0597  0.1009  0.1384
54974SOL    HW182914   0.983   5.763   8.620 -2.6033 -2.1955 -2.2681
54974SOL    HW282915   1.099   5.676   8.579  0.3951  0.3757  0.2418
54975SOL     OW82916  10.705   0.170   7.936  0.0119 -0.1129 -0.0312
54975SOL    HW182917  10.626   0.159   7.989 -0.0478 -1.5590 -0.3693
54975SOL    HW282918  10.741   0.254   7.963 -1.1295  0.1245  0.8137
54976SOL     OW82919   9.761   2.133   6.663 -0.2487 -0.3927  0.4893
54976SOL    HW182920   9.704   2.168   6.731  0.5098 -1.3079  1.6151
54976SOL    HW282921   9.764   2.039   6.679  1.7795 -0.3411  0.6278
54977SOL     OW82922  14.128   4.472  12.578 -0.1617 -0.3148  0.1131
54977SOL    HW182923  14.179   4.527  12.637 -0.0398 -0.9428  0.6018
54977SOL    HW282924  14.067   4.426  12.636 -0.3607 -0.5865 -0.3106
54978SOL     OW82925   5.444  11.622   2.965  0.3904  0.0825 -0.5376
54978SOL    HW182926   5.462  11.564   2.891 -1.5443  2.0720 -2.7580
54978SOL    HW282927   5.514  11.688   2.961 -0.6363  1.1631 -1.7817
54979SOL     OW82928  11.870   8.749   3.792 -0.1346 -0.0307  0.3157
54979SOL    HW182929  11.881   8.815   3.723  0.4825 -0.2784  0.1708
54979SOL    HW282930  11.777   8.752   3.813 -0.3894 -0.1480 -0.7344
54980SOL     OW82931  13.689   1.067   3.893 -0.2562 -0.0634 -0.5034
54980SOL    HW182932  13.635   1.029   3.824  0.0259  1.6590 -1.7382
54980SOL    HW282933  13.744   0.994   3.923 -1.3435 -1.1764 -1.1063
54981SOL     OW82934   7.306  12.084   6.574 -0.5046  0.2252  0.3578
54981SOL    HW182935   7.368  12.011   6.565  1.4212  1.6782  1.0712
54981SOL    HW282936   7.243  12.053   6.639 -0.1731 -1.0927  0.0812
54982SOL     OW82937  13.950   0.384   3.010 -0.3858 -0.4411 -0.1530
54982SOL    HW182938  13.881   0.319   3.003 -0.6276 -0.3827  1.4516
54982SOL    HW282939  13.982   0.395   2.920 -0.9622 -2.0810 -0.5778
54983SOL     OW82940  12.278   2.531   2.818 -0.3635 -0.0259 -0.0167
54983SOL    HW182941  12.307   2.561   2.732 -3.2721 -1.0398 -1.4884
54983SOL    HW282942  12.318   2.592   2.880  1.9210  0.6710 -2.0325
54984SOL     OW82943   2.565   8.372   0.927 -0.0784 -0.0233  0.1778
54984SOL    HW182944   2.594   8.462   0.917  0.7052 -0.2517  0.2940
54984SOL    HW282945   2.474   8.378   0.954 -0.1801  0.7214 -0.3258
54985SOL     OW82946  11.118   2.682   3.078  0.7395 -0.9175 -0.0173
54985SOL    HW182947  11.158   2.671   3.164 -1.3784  2.3654  1.5897
54985SOL    HW282948  11.190   2.706   3.020  1.8132 -0.2665  1.5460
54986SOL     OW82949  11.299   8.157  13.145 -0.6821 -0.0458  0.0812
54986SOL    HW182950  11.360   8.109  13.201  1.4241  1.1436 -1.0381
54986SOL    HW282951  11.285   8.099  13.070  0.8034  0.4666 -0.6417
54987SOL     OW82952   1.786   3.554   1.796  0.1480  0.0447  0.1321
54987SOL    HW182953   1.711   3.515   1.840  0.9809  0.2584  1.8043
54987SOL    HW282954   1.751   3.632   1.752 -1.2285 -1.6519 -1.9822
54988SOL     OW82955  13.757  12.808  13.815  0.3886 -0.2154  0.2534
54988SOL    HW182956  13.823  12.779  13.753  0.5588 -0.2739  0.4585
54988SOL    HW282957  13.805  12.822  13.897  0.8077  3.1810 -0.4473
54989SOL     OW82958  12.561  10.952   8.028 -0.0808 -0.3998 -0.4989
54989SOL    HW182959  12.525  10.961   8.117 -0.3703  0.9938 -0.7310
54989SOL    HW282960  12.656  10.959   8.040 -0.0764 -0.8390 -0.2418
54990SOL     OW82961  11.733   1.573   3.365 -0.2995  0.2822 -0.0097
54990SOL    HW182962  11.814   1.586   3.415 -0.2924 -1.0950  0.3856
54990SOL    HW282963  11.680   1.516   3.421  0.5420 -3.0999 -2.3629
54991SOL     OW82964   7.172   0.795   0.864  0.0636 -0.4920 -0.3506
54991SOL    HW182965   7.161   0.705   0.895 -0.1732 -0.3344  0.0350
54991SOL    HW282966   7.087   0.818   0.828 -0.1445 -0.1268  0.3511
54992SOL     OW82967  10.887   0.645  11.550 -0.2669  0.3519 -0.5227
54992SOL    HW182968  10.840   0.671  11.471 -0.9748 -0.0357 -0.2426
54992SOL    HW282969  10.818   0.630  11.615 -0.0074 -2.8438 -0.8364
54993SOL     OW82970   1.326   9.546   6.756  0.1175  0.6744 -0.6125
54993SOL    HW182971   1.399   9.541   6.694 -0.8217  0.2848 -1.7066
54993SOL    HW282972   1.250   9.569   6.703 -0.7044  0.3654  0.3940
54994SOL     OW82973   9.646   8.140  10.696  0.1835  0.3350  0.1960
54994SOL    HW182974   9.594   8.138  10.777 -1.4988  2.0574 -0.7655
54994SOL    HW282975   9.625   8.057  10.652  0.0699 -0.0164  0.9012
54995SOL     OW82976   6.047   6.308   2.041  0.0668 -0.4019  0.3086
54995SOL    HW182977   5.973   6.356   2.078 -1.5336 -2.9362  0.6129
54995SOL    HW282978   6.009   6.252   1.974  1.5831 -2.2199  0.8832
54996SOL     OW82979   6.822   0.246   4.725 -0.2060 -0.1213 -0.1897
54996SOL    HW182980   6.825   0.155   4.694  1.8567  0.2567 -1.2296
54996SOL    HW282981   6.735   0.276   4.700 -0.0239 -1.0567 -2.1451
54997SOL     OW82982   8.024   2.302   2.041  0.7487 -0.0976  0.2350
54997SOL    HW182983   8.033   2.379   1.985 -0.5152 -0.5504 -0.6308
54997SOL    HW282984   8.103   2.250   2.023 -0.0691 -0.6840 -1.8861
54998SOL     OW82985   6.752   1.726  12.361  0.5381  0.0685 -0.0855
54998SOL    HW182986   6.836   1.700  12.322 -0.2367  0.4231 -2.1260
54998SOL    HW282987   6.728   1.806  12.313 -0.8064  0.1591  0.7052
54999SOL     OW82988   8.413   0.488  13.979  0.0886  0.1116  0.6830
54999SOL    HW182989   8.396   0.447  14.064  2.0749  0.6611  1.3978
54999SOL    HW282990   8.380   0.578  13.990 -2.4493 -0.6220 -0.2213
55000SOL     OW82991   5.939   3.786   0.791  0.7350  0.2280 -0.5877
55000SOL    HW182992   5.911   3.811   0.878  2.5375  0.9057 -0.1515
55000SOL    HW282993   5.944   3.690   0.793 -1.1838  0.0938 -0.6272
55001SOL     OW82994   7.086  11.806   8.385  0.2130 -0.4308  0.1126
55001SOL    HW182995   7.047  11.722   8.409  0.4270 -0.6316 -0.2341
55001SOL    HW282996   7.177  11.785   8.365  0.5778  0.0712  1.1500
55002SOL     OW82997   1.214   4.061   0.038  0.1517  0.2851 -0.2947
55002SOL    HW182998   1.247   4.114  -0.035  0.4871 -1.6673 -1.6266
55002SOL    HW282999   1.291   4.044   0.092  0.3271  0.0198 -0.6212
55003SOL     OW83000   1.931   4.833   9.494 -0.0451  0.1030 -0.1190
55003SOL    HW183001   1.872   4.788   9.555  1.1962 -1.3788  0.0308
55003SOL    HW283002   1.935   4.776   9.418  2.2119 -0.5501  0.4162
55004SOL     OW83003  12.133   7.234  12.770  0.1294  0.1017  0.5934
55004SOL    HW183004  12.092   7.155  12.736  1.1453 -0.7097  1.2061
55004SOL    HW283005  12.112   7.234  12.864 -1.0392  1.3160  0.3740
55005SOL     OW83006  13.271  13.288  13.352 -0.2426 -0.5336  0.0609
55005SOL    HW183007  13.208  13.280  13.280  0.8969 -0.3631 -0.9982
55005SOL    HW283008  13.356  13.273  13.310  0.4723 -0.1851  1.3419
55006SOL     OW83009   2.515   0.254   7.861  0.3560  0.0667 -0.6784
55006SOL    HW183010   2.605   0.276   7.840  0.1416  0.3990 -1.2713
55006SOL    HW283011   2.512   0.159   7.861  0.6775  0.0586 -0.7721
55007SOL     OW83012   8.615   6.635   7.529  0.0181 -0.3827  0.3685
55007SOL    HW183013   8.591   6.728   7.522  1.3292 -0.0048  0.4556
55007SOL    HW283014   8.711   6.636   7.532  0.1025 -1.8066 -0.6567
55008SOL     OW83015  14.093  11.238  11.474 -0.1815 -0.0363 -0.1023
55008SOL    HW183016  14.150  11.171  11.513  0.6558  0.5486 -0.2850
55008SOL    HW283017  14.028  11.189  11.424  2.0536 -0.7327 -2.5723
55009SOL     OW83018  14.147   0.175   7.106 -0.1953 -0.2796 -0.0129
55009SOL    HW183019  14.169   0.082   7.103  1.3495 -0.0322  1.6752
55009SOL    HW283020  14.225   0.218   7.071 -0.9071  0.4126 -0.8021
55010SOL     OW83021   7.119   8.944   6.494  0.0032 -0.7324  0.1631
55010SOL    HW183022   7.200   8.965   6.449  0.0922 -1.5925 -0.0918
55010SOL    HW283023   7.087   9.028   6.527  0.5335 -0.2659 -0.5004
55011SOL     OW83024  13.123   0.477   7.933 -0.1353 -0.3518 -0.2724
55011SOL    HW183025  13.058   0.547   7.933 -0.4320 -0.5976  1.2004
55011SOL    HW283026  13.109   0.432   7.850 -0.3671  0.9255 -0.9614
55012SOL     OW83027   1.939   3.467   1.116  0.1848 -0.1630 -0.1805
55012SOL    HW183028   1.903   3.411   1.048 -2.7802 -0.0506  1.1586
55012SOL    HW283029   1.913   3.426   1.198  0.0439  1.8470  0.8639
55013SOL     OW83030   7.562   9.542   0.673  0.0061 -0.7832 -0.3451
55013SOL    HW183031   7.558   9.451   0.643  0.6139 -0.4479 -1.5284
55013SOL    HW283032   7.470   9.569   0.679 -0.2444 -1.9076  1.5198
55014SOL     OW83033   7.945   7.981  10.328 -0.5235 -0.3225 -0.3937
55014SOL    HW183034   7.970   7.930  10.406 -0.0655  1.6040  0.8009
55014SOL    HW283035   7.877   8.041  10.360  0.3112  1.1189 -1.2433
55015SOL     OW83036   3.596  12.494  12.616 -0.5677  0.3501  0.2659
55015SOL    HW183037   3.620  12.476  12.525  0.2158 -4.1186  1.1069
55015SOL    HW283038   3.620  12.586  12.630 -0.5784  1.1694 -3.9024
55016SOL     OW83039  13.848   1.088   0.736 -0.1619 -0.4826  0.6183
55016SOL    HW183040  13.899   1.009   0.753 -0.5706 -1.3186 -1.7027
55016SOL    HW283041  13.762   1.070   0.775  0.4790 -0.1223  2.2713
55017SOL     OW83042   2.761   3.178  11.604 -0.0467  0.3851 -0.2963
55017SOL    HW183043   2.669   3.195  11.582 -0.6702 -3.9598 -2.1293
55017SOL    HW283044   2.809   3.196  11.524  0.1907 -0.2877 -0.3133
55018SOL     OW83045  10.239   0.489  12.471 -0.3617 -0.0351  0.1669
55018SOL    HW183046  10.258   0.561  12.411 -1.6138  0.1124 -0.0865
55018SOL    HW283047  10.180   0.527  12.536 -0.7866 -0.7395  0.2029
55019SOL     OW83048  11.465   1.562   1.166 -0.0412 -0.1832 -0.0855
55019SOL    HW183049  11.416   1.632   1.209 -0.9572 -1.0637  0.3577
55019SOL    HW283050  11.435   1.482   1.209  0.7133 -0.8858 -0.8221
55020SOL     OW83051   4.080  13.647   4.724  0.4963  0.1487 -0.4705
55020SOL    HW183052   4.046  13.616   4.808  0.1659  0.2151 -0.5768
55020SOL    HW283053   4.141  13.579   4.696 -0.4285 -0.5459 -0.8339
55021SOL     OW83054  10.822   9.107   4.060  0.4498  0.4784  0.5004
55021SOL    HW183055  10.774   9.169   4.116  1.8504  0.3762  1.9008
55021SOL    HW283056  10.805   9.021   4.099 -0.8620  0.0154 -0.9829
55022SOL     OW83057   6.725   3.434   6.335  0.3303 -0.5224 -0.1074
55022SOL    HW183058   6.776   3.509   6.305 -0.8184  0.6121  0.6715
55022SOL    HW283059   6.774   3.400   6.410 -0.5043  1.1937  1.2939
55023SOL     OW83060  12.446   3.369   2.061 -0.1532  0.7622  0.5410
55023SOL    HW183061  12.530   3.326   2.076 -0.2477  0.1547 -0.5533
55023SOL    HW283062  12.381   3.309   2.097 -0.2733  0.0352 -0.8333
55024SOL     OW83063   9.928   8.331   7.591  0.3164  0.4095 -0.0887
55024SOL    HW183064   9.990   8.283   7.646  0.4682 -1.2635 -1.6115
55024SOL    HW283065   9.843   8.297   7.616  0.3808 -0.3082 -0.7970
55025SOL     OW83066   0.911   5.426   0.436 -0.0005 -0.0648 -0.2732
55025SOL    HW183067   1.002   5.453   0.433  0.2667 -0.7441  1.0304
55025SOL    HW283068   0.865   5.500   0.476 -0.3056  0.8959 -2.2886
55026SOL     OW83069  13.951   0.084   9.423  0.7310 -0.4852 -0.0091
55026SOL    HW183070  13.901   0.004   9.437  0.5728 -0.4816 -0.5164
55026SOL    HW283071  13.987   0.075   9.334  0.5312  0.1022 -0.1577
55027SOL     OW83072   3.567  11.438   2.858  0.2363 -0.2437 -0.1541
55027SOL    HW183073   3.482  11.445   2.902 -1.0931  0.2542 -2.6495
55027SOL    HW283074   3.626  11.490   2.914 -1.5830  1.2111  0.5299
55028SOL     OW83075  13.701   5.518   7.507 -0.1880  0.2165  0.7192
55028SOL    HW183076  13.630   5.470   7.550 -1.4713  1.0163 -0.4004
55028SOL    HW283077  13.751   5.557   7.578  0.2033 -1.7732  1.6133
55029SOL     OW83078   0.760   6.367   4.458 -0.2783  0.0356  0.1416
55029SOL    HW183079   0.712   6.335   4.535  0.3439  1.6938  1.2775
55029SOL    HW283080   0.695   6.366   4.388 -1.3710  0.1256  1.1102
55030SOL     OW83081   7.336   2.358   4.848 -0.0122 -0.1571  0.1316
55030SOL    HW183082   7.290   2.410   4.914 -0.5739 -1.0983  0.5006
55030SOL    HW283083   7.412   2.411   4.825 -0.9696  1.1795 -0.0779
55031SOL     OW83084   8.555   8.577   7.720  0.2308 -0.2618  0.1830
55031SOL    HW183085   8.494   8.564   7.793 -1.8575  2.1534 -0.9670
55031SOL    HW283086   8.579   8.669   7.724  0.7528 -0.2714 -1.6580
55032SOL     OW83087   7.821   1.239  10.956  0.2653 -0.3998  0.0798
55032SOL    HW183088   7.813   1.335  10.955 -0.4768 -0.4538 -0.8538
55032SOL    HW283089   7.914   1.223  10.937  0.2543  0.1287 -0.4648
55033SOL     OW83090   6.403   4.315   8.505 -0.1807 -0.1210 -0.1929
55033SOL    HW183091   6.313   4.315   8.472 -0.2567  0.1192  0.0141
55033SOL    HW283092   6.428   4.407   8.507  0.8330 -0.2884 -2.3375
55034SOL     OW83093  11.717   8.065  13.645  0.0276  0.3542  0.3717
55034SOL    HW183094  11.720   8.038  13.554 -0.8717 -1.7554  0.8996
55034SOL    HW283095  11.640   8.020  13.681  0.3697  1.0988  2.1740
55035SOL     OW83096  10.958   1.083   4.427  0.4534  0.5100 -0.4453
55035SOL    HW183097  10.952   1.081   4.332  1.3581 -0.9781 -0.5006
55035SOL    HW283098  10.898   1.153   4.454 -1.7307 -0.6860 -1.9513
55036SOL     OW83099   8.544   3.291   2.620  0.1500 -0.9255 -0.0494
55036SOL    HW183100   8.621   3.247   2.583  1.5429 -0.6234  2.2799
55036SOL    HW283101   8.567   3.384   2.618  0.5636 -0.9229  1.9750
55037SOL     OW83102   8.371   7.481   0.262 -0.0899 -0.2675  0.2289
55037SOL    HW183103   8.457   7.479   0.219  0.8854  0.5249  2.0411
55037SOL    HW283104   8.348   7.574   0.262  0.7609  0.0188  2.8709
55038SOL     OW83105  10.283  11.120  13.447  0.5191  0.4729 -0.3964
55038SOL    HW183106  10.264  11.138  13.540  1.0077 -0.7675 -0.0390
55038SOL    HW283107  10.376  11.137  13.438  0.3342  1.2838 -0.8432
55039SOL     OW83108  13.955   8.375  11.035 -0.5183  0.3584 -0.2134
55039SOL    HW183109  14.013   8.451  11.041  0.2687 -0.3133  1.4949
55039SOL    HW283110  13.871   8.407  11.068 -0.5241  0.7724 -0.6160
55040SOL     OW83111  11.463  13.535  11.723 -0.5532  0.1206  0.6294
55040SOL    HW183112  11.435  13.524  11.814 -1.0553 -1.3829  0.3187
55040SOL    HW283113  11.397  13.488  11.672 -0.1698  0.7818 -0.5059
55041SOL     OW83114   0.549  14.033   7.037 -0.3347  0.0389  0.3175
55041SOL    HW183115   0.552  14.106   6.975 -1.3941 -0.5131 -0.4067
55041SOL    HW283116   0.641  14.018   7.060  0.0272  0.6541 -0.6406
55042SOL     OW83117   8.387   6.409   5.773  0.2734  0.2478  0.1412
55042SOL    HW183118   8.404   6.352   5.848  0.3096  0.3367  0.2014
55042SOL    HW283119   8.447   6.483   5.785  0.2507  0.2819  0.0463
55043SOL     OW83120   8.304   0.547   7.347 -0.4596  0.1498 -0.5132
55043SOL    HW183121   8.370   0.533   7.280  0.8297  2.2090  0.2228
55043SOL    HW283122   8.280   0.460   7.377  4.2472 -0.7389  1.3912
55044SOL     OW83123  10.772  12.160   4.100 -0.1323  0.0265  0.3215
55044SOL    HW183124  10.799  12.070   4.117  1.0444  0.6417  2.0357
55044SOL    HW283125  10.792  12.207   4.181 -1.0025  1.7745 -0.4142
55045SOL     OW83126   1.058   9.008   6.331 -0.2124  0.5924  0.0665
55045SOL    HW183127   0.964   8.997   6.315 -0.4664 -2.0839  2.4946
55045SOL    HW283128   1.063   9.068   6.405 -0.0671  0.2704  0.3211
55046SOL     OW83129   8.602  11.841   2.325 -0.6006 -0.2267 -0.7711
55046SOL    HW183130   8.570  11.763   2.281 -1.9375 -1.2859  1.8187
55046SOL    HW283131   8.689  11.817   2.358 -1.8352 -1.5332  1.8354
55047SOL     OW83132  13.983  13.411   3.505  0.0316  0.0846  0.2242
55047SOL    HW183133  13.946  13.498   3.493  1.7149  0.5762 -1.9475
55047SOL    HW283134  14.077  13.425   3.515  0.4047 -1.4723 -0.6759
55048SOL     OW83135   7.791  10.496   3.239  0.5297  0.4128 -0.0852
55048SOL    HW183136   7.731  10.571   3.240 -0.4053 -0.2937 -1.3730
55048SOL    HW283137   7.832  10.498   3.326  0.1611  2.1143  0.0913
55049SOL     OW83138  13.309  10.905  13.912 -0.2232  0.2110  0.1691
55049SOL    HW183139  13.363  10.981  13.887 -0.2346  1.4897  3.5399
55049SOL    HW283140  13.372  10.833  13.917  0.7184  1.0672  1.3711
55050SOL     OW83141   0.185  10.065  13.308 -0.0859  0.4034 -0.1339
55050SOL    HW183142   0.169  10.011  13.232 -1.8641 -2.4621  2.0843
55050SOL    HW283143   0.099  10.102  13.331  0.7362  2.6986 -0.4610
55051SOL     OW83144  13.524   7.934  10.103 -0.1695  0.0458  0.0829
55051SOL    HW183145  13.559   7.960  10.188  0.8205 -0.0856 -0.2606
55051SOL    HW283146  13.537   7.839  10.100  0.6336  0.1567 -0.5497
55052SOL     OW83147   5.708   9.771  13.920 -0.2079  0.5885  0.1627
55052SOL    HW183148   5.692   9.685  13.957  2.0799 -0.1597 -0.4341
55052SOL    HW283149   5.716   9.829  13.996 -2.3794  0.4883  0.5546
55053SOL     OW83150   4.800  13.885  13.304 -0.0255 -0.1667  0.3041
55053SOL    HW183151   4.771  13.975  13.323  0.4976  0.0290  0.1806
55053SOL    HW283152   4.888  13.880  13.341 -0.2180 -0.7715  0.7063
55054SOL     OW83153  10.571   5.294   5.551  0.4739 -0.2915  0.2937
55054SOL    HW183154  10.609   5.356   5.613  1.0016 -0.1620 -0.1525
55054SOL    HW283155  10.537   5.223   5.606  1.1869 -0.3132  0.7192
55055SOL     OW83156  11.625   5.295  10.893  0.3343 -0.3392 -0.1467
55055SOL    HW183157  11.708   5.256  10.865  0.2460 -0.7179  0.1014
55055SOL    HW283158  11.568   5.287  10.817  0.6011  0.1511 -0.4025
55056SOL     OW83159  14.155   7.409   7.674  0.1229 -0.1872 -0.2061
55056SOL    HW183160  14.229   7.349   7.663 -0.1581 -0.2175 -2.4269
55056SOL    HW283161  14.145   7.419   7.768  0.0431 -3.8314  0.2928
55057SOL     OW83162  13.309   6.403   9.711  0.4187  0.2978 -0.1399
55057SOL    HW183163  13.233   6.353   9.681 -0.2103  1.5169 -0.6870
55057SOL    HW283164  13.375   6.337   9.732 -0.5952 -0.7709 -0.1824
55058SOL     OW83165   9.774   2.559   2.241 -0.2109 -0.2320  0.0074
55058SOL    HW183166   9.762   2.468   2.268 -0.0317 -0.6120 -1.1737
55058SOL    HW283167   9.694   2.583   2.196  0.0698 -0.0681 -0.4128
55059SOL     OW83168  12.603  10.123  13.523 -0.3635  0.1304  0.0685
55059SOL    HW183169  12.692  10.135  13.555 -0.6330  0.2956  0.7882
55059SOL    HW283170  12.570  10.212  13.509 -0.3863  0.0682 -0.2764
55060SOL     OW83171   8.516   5.608   7.016 -0.5313 -0.3791 -0.0219
55060SOL    HW183172   8.579   5.649   6.956 -2.1000  1.4306 -0.5471
55060SOL    HW283173   8.569   5.550   7.071  1.2492 -0.6216 -1.8605
55061SOL     OW83174   8.946   0.078  10.241 -0.3384 -0.0055 -0.1598
55061SOL    HW183175   8.886   0.006  10.263 -0.2754  0.3412  1.2315
55061SOL    HW283176   8.985   0.102  10.325 -0.0263  1.3673 -0.6875
55062SOL     OW83177  10.205   9.390   2.486 -0.4761 -0.1290  0.0138
55062SOL    HW183178  10.126   9.386   2.540 -1.4956  0.2453 -1.4067
55062SOL    HW283179  10.245   9.475   2.508  0.8354 -1.2599  2.4127
55063SOL     OW83180  12.477   7.785   4.216 -0.4988 -0.2523 -0.4073
55063SOL    HW183181  12.532   7.791   4.294 -0.2968  1.1375 -0.6406
55063SOL    HW283182  12.422   7.708   4.232 -0.2915 -0.1336  0.9972
55064SOL     OW83183  14.079   9.453   4.492  0.3972 -0.1089 -0.1858
55064SOL    HW183184  14.132   9.531   4.478 -0.1365  0.3574  0.3436
55064SOL    HW283185  14.107   9.420   4.578 -0.9362  0.7951  0.6436
55065SOL     OW83186  11.801   2.647   1.861 -0.4385 -0.5163 -0.3448
55065SOL    HW183187  11.887   2.676   1.892  0.4544 -1.7404 -1.5426
55065SOL    HW283188  11.775   2.714   1.798 -0.4377 -0.0785  0.1082
55066SOL     OW83189   5.116   8.693   0.958 -0.6437 -0.5989 -0.1115
55066SOL    HW183190   5.188   8.756   0.956 -1.7873  0.8111  0.9893
55066SOL    HW283191   5.159   8.607   0.952  0.9497  0.2390 -1.6254
55067SOL     OW83192  12.195   2.833   5.799  0.3552 -0.5590 -0.4211
55067SOL    HW183193  12.120   2.892   5.798  0.6209 -0.2213 -0.7375
55067SOL    HW283194  12.249   2.864   5.871  0.5092 -0.3917 -0.6058
55068SOL     OW83195   3.686   0.611   7.244  0.0974  0.2983  0.0233
55068SOL    HW183196   3.686   0.525   7.287  0.8633 -0.3971 -1.3111
55068SOL    HW283197   3.766   0.612   7.192 -1.2822  0.6289 -2.2536
55069SOL     OW83198   0.434   6.927   3.405 -0.2062  0.5764  0.0485
55069SOL    HW183199   0.371   6.998   3.418 -0.4327  0.6630 -1.3088
55069SOL    HW283200   0.496   6.936   3.477 -0.0061  2.4017 -0.3052
55070SOL     OW83201   0.716  13.901   2.972 -0.1461 -0.6491 -0.0747
55070SOL    HW183202   0.812  13.899   2.971 -0.1453 -0.8763  0.2908
55070SOL    HW283203   0.690  13.812   2.952 -0.2711 -0.7482  0.5034
55071SOL     OW83204  11.892   0.306   6.967 -0.2426  0.1525  0.2845
55071SOL    HW183205  11.944   0.360   6.907 -0.0997 -0.4667 -0.1698
55071SOL    HW283206  11.889   0.220   6.924 -2.4000  0.3840 -0.1601
55072SOL     OW83207   6.188  11.311   9.557  0.2496 -0.0884 -0.3212
55072SOL    HW183208   6.123  11.381   9.547  0.7044  0.1334 -1.9858
55072SOL    HW283209   6.263  11.355   9.599 -0.5016 -0.2747  1.3080
55073SOL     OW83210   2.988   8.129  13.697  0.3725 -0.9849  0.3086
55073SOL    HW183211   2.898   8.103  13.715  0.0360 -1.5106 -1.8788
55073SOL    HW283212   3.040   8.051  13.717  0.1931 -1.1038  0.3114
55074SOL     OW83213  13.257   5.912   0.050  0.2229 -0.2477  0.4208
55074SOL    HW183214  13.344   5.886   0.021  0.7077  1.5230  0.1589
55074SOL    HW283215  13.247   5.871   0.136  1.5429 -0.0820  0.6754
55075SOL     OW83216   6.446   2.711  13.050 -0.2290 -0.2264 -0.0076
55075SOL    HW183217   6.438   2.715  12.954 -1.3317  0.5738  0.1006
55075SOL    HW283218   6.535   2.679  13.065  0.0665 -0.0803 -1.2991
55076SOL     OW83219   9.485   7.234   4.683  0.7067 -0.2923  0.2009
55076SOL    HW183220   9.467   7.172   4.611  0.2438 -0.6902  0.6481
55076SOL    HW283221   9.428   7.204   4.754  0.4030  0.7124  0.3926
55077SOL     OW83222  10.406   0.595   7.115  0.0281  0.1123 -0.3001
55077SOL    HW183223  10.449   0.611   7.031  0.5065 -2.7145 -0.7197
55077SOL    HW283224  10.478   0.591   7.178  0.4685 -3.4311 -0.8083
55078SOL     OW83225   6.605   6.867   8.377  0.2038  0.3519  0.5218
55078SOL    HW183226   6.647   6.900   8.456 -1.4158  1.6802  0.8784
55078SOL    HW283227   6.579   6.778   8.399  0.4794  0.4332  1.1979
55079SOL     OW83228  11.989   9.054   0.749  0.4293 -0.2314 -0.0031
55079SOL    HW183229  12.080   9.070   0.775  0.4935 -0.8484  0.1642
55079SOL    HW283230  11.942   9.133   0.776  0.6845 -0.4405  1.1077
55080SOL     OW83231  12.192   2.225   3.153 -0.3497  0.1388  0.2698
55080SOL    HW183232  12.282   2.247   3.132 -0.1464  0.6243  1.5751
55080SOL    HW283233  12.178   2.139   3.112 -0.1374  1.1620 -2.1327
55081SOL     OW83234   3.104   7.399   9.117 -0.0866  0.2942 -0.7657
55081SOL    HW183235   3.124   7.487   9.150  0.9565 -0.3122  0.2997
55081SOL    HW283236   3.008   7.397   9.111 -0.2766  0.8261  1.2116
55082SOL     OW83237   7.877  10.377   0.284  0.7118 -0.2703  0.3963
55082SOL    HW183238   7.851  10.404   0.196  0.2471 -2.0575 -0.0469
55082SOL    HW283239   7.850  10.449   0.340 -1.6306 -0.3268 -0.5618
55083SOL     OW83240   5.909   5.543   0.309 -0.2799 -0.4317  0.2044
55083SOL    HW183241   5.913   5.638   0.319  1.0361 -0.5253  0.7722
55083SOL    HW283242   6.000   5.515   0.307 -0.6479 -1.6866 -0.0056
55084SOL     OW83243   7.442   7.179   0.636  0.2493 -0.0414  0.2505
55084SOL    HW183244   7.384   7.253   0.616  1.0122  0.2631 -0.9124
55084SOL    HW283245   7.528   7.219   0.649  0.9269 -0.8136 -1.5915
55085SOL     OW83246   7.836   0.325   6.919 -0.3321  0.2228 -0.0928
55085SOL    HW183247   7.840   0.264   6.993 -1.7006 -1.3550 -1.2403
55085SOL    HW283248   7.832   0.268   6.841 -3.5288  1.6358 -1.1348
55086SOL     OW83249   8.232   0.434  10.387  0.4432 -0.4906  0.1783
55086SOL    HW183250   8.219   0.506  10.449 -0.3579  0.7186 -1.3172
55086SOL    HW283251   8.143   0.403  10.367  0.0684  2.3734 -3.9031
55087SOL     OW83252   4.986  10.265   5.719 -0.1397  0.4287 -0.2154
55087SOL    HW183253   4.949  10.351   5.740 -0.3858  0.7268 -1.7632
55087SOL    HW283254   4.942  10.239   5.638 -0.2796 -1.3014  0.3613
55088SOL     OW83255  10.123   2.660  13.081 -0.3046 -0.3388  0.7584
55088SOL    HW183256  10.084   2.645  12.995 -0.9648  0.3760  0.9196
55088SOL    HW283257  10.212   2.626  13.074 -0.6797 -1.2281  0.1156
55089SOL     OW83258   7.712  10.816   8.410  0.1522 -0.0767  0.3797
55089SOL    HW183259   7.736  10.902   8.446  1.3480 -0.5776  0.8208
55089SOL    HW283260   7.743  10.818   8.320 -0.8454  0.3509  0.0240
55090SOL     OW83261  11.322  12.692  10.361  0.4710  0.4893  0.1893
55090SOL    HW183262  11.326  12.609  10.408  1.4155 -0.1099 -0.8995
55090SOL    HW283263  11.235  12.692  10.320  1.2023 -0.9750 -1.5136
55091SOL     OW83264   5.847   7.471   9.756 -0.5569 -0.3795 -0.0342
55091SOL    HW183265   5.904   7.512   9.821  0.8544 -1.4118 -0.5579
55091SOL    HW283266   5.904   7.408   9.711 -1.4908  0.2366 -2.2165
55092SOL     OW83267   7.622   0.678  11.304  0.4653 -0.1491 -0.5278
55092SOL    HW183268   7.603   0.724  11.222  0.2143  0.7856  0.0430
55092SOL    HW283269   7.545   0.624  11.321  0.7955 -0.8751 -1.2429
55093SOL     OW83270  11.993   2.023  10.130 -0.0414 -0.0398  0.2331
55093SOL    HW183271  12.082   1.998  10.155  0.5404  3.0223  1.6427
55093SOL    HW283272  11.938   1.952  10.163  1.7689 -1.7185 -0.1656
55094SOL     OW83273   4.614   0.884  13.163  0.4841 -0.0596  0.2794
55094SOL    HW183274   4.572   0.871  13.078  1.5763 -0.5035 -0.2159
55094SOL    HW283275   4.628   0.796  13.196  2.8118 -0.0336 -0.4949
55095SOL     OW83276   4.588   8.175   3.618 -0.3457 -0.1159  0.1939
55095SOL    HW183277   4.680   8.151   3.617 -0.1636  0.4248 -2.3288
55095SOL    HW283278   4.560   8.159   3.708  1.6417 -2.3443  0.5158
55096SOL     OW83279  10.222  11.562   0.533  0.6843  0.0605  0.5739
55096SOL    HW183280  10.290  11.611   0.487 -1.2339  0.8673 -1.6117
55096SOL    HW283281  10.221  11.477   0.489 -1.3130  0.9132 -1.2481
55097SOL     OW83282   5.236  13.099   4.141  0.5160  0.0665 -0.2546
55097SOL    HW183283   5.322  13.096   4.182  0.0267 -0.4640  0.7699
55097SOL    HW283284   5.249  13.055   4.056  1.3273  0.3158 -0.2686
55098SOL     OW83285  12.264   5.650   8.030  0.0491 -0.0520  0.4745
55098SOL    HW183286  12.236   5.714   7.964  1.5815  0.1209 -0.0437
55098SOL    HW283287  12.200   5.659   8.100 -0.8281  0.7371 -0.3923
55099SOL     OW83288   4.442   1.439  13.015 -0.0884  0.3522  0.4192
55099SOL    HW183289   4.480   1.516  13.059 -1.6296  1.1555  0.4243
55099SOL    HW283290   4.440   1.464  12.923 -0.9642  0.5009  0.4722
55100SOL     OW83291   1.086   2.149   2.493 -0.1146 -0.9166 -0.3846
55100SOL    HW183292   0.998   2.186   2.488  0.3796  0.5194  0.8071
55100SOL    HW283293   1.072   2.056   2.509 -1.4358 -0.6318  0.2908
55101SOL     OW83294   5.264  10.458  10.102 -0.1347 -0.5208  0.5898
55101SOL    HW183295   5.276  10.552  10.117  0.1222 -0.3333 -0.6450
55101SOL    HW283296   5.177  10.439  10.137 -0.9162  0.5578 -0.6783
55102SOL     OW83297   0.357   0.222   4.933  0.2652  0.5712 -0.4387
55102SOL    HW183298   0.313   0.303   4.908  0.5776  0.2513 -2.1241
55102SOL    HW283299   0.450   0.241   4.921  0.4249  0.3286  0.3396
55103SOL     OW83300   3.555   3.223   9.635 -0.3989 -0.3394 -0.0034
55103SOL    HW183301   3.459   3.224   9.632 -0.3700 -0.4912 -1.6066
55103SOL    HW283302   3.582   3.290   9.572  0.5734  0.1681  0.9018
55104SOL     OW83303   0.575  13.449   6.769 -0.0585  0.2241  0.1533
55104SOL    HW183304   0.539  13.419   6.685 -0.0060  2.1693 -0.6168
55104SOL    HW283305   0.531  13.396   6.834  1.3741 -2.8192 -1.1326
55105SOL     OW83306  12.972   6.782   7.213 -0.6224  0.4047  1.0357
55105SOL    HW183307  12.892   6.741   7.247  0.9929 -1.2448  3.0267
55105SOL    HW283308  12.962   6.875   7.234 -1.6881  0.1125  1.9150
55106SOL     OW83309  12.555   8.482   6.511  0.3051  0.1829 -0.2387
55106SOL    HW183310  12.530   8.466   6.420  1.1355  0.9943 -0.6200
55106SOL    HW283311  12.645   8.451   6.516  0.6976  1.3193 -0.0411
55107SOL     OW83312   6.275   5.288   9.896  0.1386 -0.4705  0.0640
55107SOL    HW183313   6.185   5.318   9.879  0.0573 -0.9864 -0.4318
55107SOL    HW283314   6.267   5.194   9.911  0.6465 -0.6017 -0.4284
55108SOL     OW83315   3.148  10.357   0.941 -0.2280  0.1676  0.1470
55108SOL    HW183316   3.232  10.399   0.958 -0.5322 -0.0066  2.4543
55108SOL    HW283317   3.141  10.289   1.008 -1.5064 -0.9094 -1.0115
55109SOL     OW83318  13.489   9.316   2.373 -0.0812  0.1306 -0.1591
55109SOL    HW183319  13.492   9.296   2.279 -0.4001 -0.8904  0.0372
55109SOL    HW283320  13.398   9.342   2.388 -0.1884 -0.3281 -0.0124
55110SOL     OW83321   9.925   5.438  14.111  0.3869  0.2864 -0.1021
55110SOL    HW183322   9.914   5.530  14.135  0.9111  0.0590  1.0556
55110SOL    HW283323   9.976   5.441  14.030  2.3900  0.9816  1.1159
55111SOL     OW83324   8.217  10.957   1.785  0.0221 -0.0393  0.2799
55111SOL    HW183325   8.128  10.921   1.782  0.0943 -0.1990  0.0616
55111SOL    HW283326   8.265  10.908   1.719 -0.2064  1.3415 -0.9486
55112SOL     OW83327  13.554   4.954   3.514  0.3505 -0.1593 -0.3747
55112SOL    HW183328  13.528   5.028   3.569  0.4946  0.5995 -1.2887
55112SOL    HW283329  13.585   4.995   3.433  2.7767 -1.0779 -0.0116
55113SOL     OW83330   2.097  14.091   1.202  0.7163 -0.0628  0.5947
55113SOL    HW183331   2.161  14.055   1.140 -1.0521 -0.9403 -0.8240
55113SOL    HW283332   2.090  14.183   1.178 -0.0484 -0.4236 -0.6350
55114SOL     OW83333   9.947  11.159   0.241  0.4865 -0.1967 -0.1881
55114SOL    HW183334   9.960  11.112   0.323  1.2338  0.6040  0.1723
55114SOL    HW283335   9.932  11.250   0.268 -1.9257 -0.3345 -0.8138
55115SOL     OW83336   3.430   4.192   3.760  0.3735 -0.1065  0.0771
55115SOL    HW183337   3.417   4.232   3.674 -1.0290 -0.7431 -0.0349
55115SOL    HW283338   3.404   4.260   3.822  0.3012 -0.0300 -0.0370
55116SOL     OW83339   8.318  13.631   1.352  0.6537  0.3527  0.4749
55116SOL    HW183340   8.373  13.708   1.367 -0.8420  1.5473  0.1071
55116SOL    HW283341   8.252  13.661   1.289  0.0695 -1.2618  0.2730
55117SOL     OW83342   4.485   8.758   1.489  0.0328 -0.3205 -0.6685
55117SOL    HW183343   4.411   8.778   1.432 -1.1229 -0.6190  0.7001
55117SOL    HW283344   4.526   8.843   1.507 -0.6334 -0.0236 -0.5428
55118SOL     OW83345   7.196  10.435  13.223 -0.1492  0.0452 -0.6908
55118SOL    HW183346   7.164  10.514  13.265  0.3391 -0.3249  0.4287
55118SOL    HW283347   7.289  10.452  13.208 -0.5675  0.7368 -3.0273
55119SOL     OW83348   6.939  13.415   4.098 -0.3672  0.6960  0.7534
55119SOL    HW183349   6.918  13.348   4.033  0.1604 -1.2370  2.4477
55119SOL    HW283350   6.857  13.430   4.144 -0.1565  0.0389  1.3637
55120SOL     OW83351   9.276  12.265  10.016  0.0092 -0.2641  0.0350
55120SOL    HW183352   9.253  12.315  10.094 -0.4810 -1.2217  0.5307
55120SOL    HW283353   9.227  12.307   9.945 -2.1412 -1.3071  0.8024
55121SOL     OW83354   9.528  12.278  11.609  0.4306  0.1224  0.1368
55121SOL    HW183355   9.562  12.265  11.698  0.0143  0.6550  0.3739
55121SOL    HW283356   9.606  12.301  11.558  0.8235 -1.0601  0.1628
55122SOL     OW83357  12.793   5.772   9.642 -0.4814  0.2102 -0.4518
55122SOL    HW183358  12.775   5.701   9.704  0.3260  0.7867  0.4870
55122SOL    HW283359  12.803   5.850   9.698 -2.3103  1.2770 -1.5188
55123SOL     OW83360  13.460   0.572   3.794 -0.1747 -0.2206  0.5680
55123SOL    HW183361  13.514   0.504   3.835 -0.5297 -1.5393 -1.0766
55123SOL    HW283362  13.522   0.622   3.741 -0.0756  0.1460  1.0264
55124SOL     OW83363   8.138   6.132  11.116  0.0624 -0.3264  0.1809
55124SOL    HW183364   8.213   6.191  11.111 -0.7590  0.6664 -1.3126
55124SOL    HW283365   8.062   6.190  11.114 -0.7585 -1.3219  1.4034
55125SOL     OW83366   3.307   2.981  12.869 -0.0729 -0.1039  0.3060
55125SOL    HW183367   3.316   3.075  12.885 -0.2750 -0.1278  0.5661
55125SOL    HW283368   3.321   2.971  12.775  1.3692  0.0134  0.4759
55126SOL     OW83369   1.664   3.735   2.440 -0.3792  0.1175 -0.0793
55126SOL    HW183370   1.745   3.758   2.486 -0.1360  1.3660 -1.0852
55126SOL    HW283371   1.692   3.708   2.353 -1.0122  0.1774 -0.3068
55127SOL     OW83372   0.811   8.102   1.594 -0.4973 -0.1035  0.2459
55127SOL    HW183373   0.877   8.072   1.531 -0.7150 -2.1457  0.9331
55127SOL    HW283374   0.733   8.052   1.573  0.1216 -2.9145  3.6888
55128SOL     OW83375   9.798   1.771   8.919  0.3038 -0.1059  0.0123
55128SOL    HW183376   9.845   1.691   8.897 -0.2471 -0.3425 -0.3441
55128SOL    HW283377   9.732   1.779   8.850 -1.3089 -0.7256  1.4117
55129SOL     OW83378  10.524  10.372   7.769  0.1906 -0.4552  0.5243
55129SOL    HW183379  10.490  10.412   7.849  1.1328  2.3371 -0.3445
55129SOL    HW283380  10.469  10.408   7.699  1.9966  0.6019 -0.4375
55130SOL     OW83381  11.673   4.774  10.333  0.5962  0.0342 -0.2164
55130SOL    HW183382  11.745   4.734  10.285  0.5781  0.1292 -0.3244
55130SOL    HW283383  11.671   4.728  10.417 -1.3535 -2.3676 -1.4240
55131SOL     OW83384  10.379  11.134   6.742  0.4631 -0.2699  0.2695
55131SOL    HW183385  10.293  11.138   6.784  0.4501  1.2225  0.1655
55131SOL    HW283386  10.366  11.080   6.665 -0.4419  0.0896  0.1569
55132SOL     OW83387   3.620   0.886   7.260  0.3730 -0.5133  1.0082
55132SOL    HW183388   3.529   0.860   7.246  0.5271 -0.9971  0.8883
55132SOL    HW283389   3.671   0.806   7.248  0.9275 -0.0189 -0.0830
55133SOL     OW83390   9.111   1.225   8.918 -0.0061 -0.2094  0.4314
55133SOL    HW183391   9.170   1.155   8.890 -1.4935 -1.3505  0.0060
55133SOL    HW283392   9.082   1.199   9.005 -0.2702  0.0884  0.4323
55134SOL     OW83393   3.068   3.447   2.099 -0.0186  0.6728  0.0092
55134SOL    HW183394   3.023   3.382   2.154  0.4530  0.0491 -0.3277
55134SOL    HW283395   3.151   3.405   2.076  0.0029  1.1318 -0.7709
55135SOL     OW83396   2.995   9.976  12.962 -0.4152  0.4658 -0.1045
55135SOL    HW183397   3.040   9.904  12.919  0.6638  0.1170  1.5032
55135SOL    HW283398   2.942  10.016  12.893 -0.1835 -1.1615 -1.2835
55136SOL     OW83399   4.318   3.621   8.421  0.3803  0.1531  0.9774
55136SOL    HW183400   4.386   3.576   8.371  0.6903  1.3197  0.3071
55136SOL    HW283401   4.249   3.638   8.356  0.3037  0.6901  1.1925
55137SOL     OW83402   6.805  10.677   2.360 -0.5879 -0.5098 -0.3034
55137SOL    HW183403   6.855  10.738   2.416 -1.3391 -1.3518  1.3389
55137SOL    HW283404   6.714  10.687   2.389 -1.3699  0.5035 -2.7951
55138SOL     OW83405   0.645   9.496  13.911 -0.4779  0.5976 -0.0465
55138SOL    HW183406   0.694   9.415  13.925 -0.9717  0.2305 -0.4071
55138SOL    HW283407   0.684   9.558  13.973  0.2658  0.2441 -0.1452
55139SOL     OW83408   6.172   8.622  12.178 -0.0244  0.1060  0.0180
55139SOL    HW183409   6.154   8.691  12.114 -0.0901 -0.4139 -0.5400
55139SOL    HW283410   6.242   8.657  12.233 -0.4707  0.8447  0.1152
55140SOL     OW83411   9.680  11.217   2.356  0.0577 -0.4326 -0.2275
55140SOL    HW183412   9.644  11.139   2.398 -0.9841 -0.5310 -1.2473
55140SOL    HW283413   9.615  11.241   2.289  0.3649  1.2916  0.0282
55141SOL     OW83414  13.820   4.070  12.764 -0.3888 -0.3916  0.7994
55141SOL    HW183415  13.872   4.144  12.732 -0.6444 -0.2371  0.7382
55141SOL    HW283416  13.795   4.022  12.684 -1.3997  0.2405  0.7104
55142SOL     OW83417   2.320  11.193   3.789  0.1179 -0.0228 -0.3729
55142SOL    HW183418   2.261  11.224   3.858  0.3681 -0.1012 -0.1214
55142SOL    HW283419   2.275  11.117   3.752  0.7710 -1.0740  0.8930
55143SOL     OW83420  13.860   2.210   7.670  0.7473  0.3823 -0.2332
55143SOL    HW183421  13.883   2.152   7.742  0.6330  0.1553 -0.3764
55143SOL    HW283422  13.902   2.293   7.691 -2.0860  1.4468  1.8923
55144SOL     OW83423   5.665  10.583   2.232 -0.1490 -0.2460 -0.0002
55144SOL    HW183424   5.590  10.627   2.271  0.1450 -0.4127  0.7623
55144SOL    HW283425   5.641  10.490   2.230 -0.8960 -0.0645 -1.8915
55145SOL     OW83426   1.977   1.882   4.349 -0.7801  0.0581  0.0712
55145SOL    HW183427   2.035   1.806   4.343  0.1719  0.8706 -2.8486
55145SOL    HW283428   1.889   1.846   4.338 -0.2889 -0.6540 -2.0503
55146SOL     OW83429   8.730   3.868   2.671  0.1868 -0.3093 -0.3626
55146SOL    HW183430   8.810   3.840   2.626  0.1790  1.7911 -1.8461
55146SOL    HW283431   8.756   3.875   2.763  1.0669 -1.7880 -0.4687
55147SOL     OW83432   6.162   3.565  11.629 -0.4499  0.0986 -0.6485
55147SOL    HW183433   6.111   3.490  11.599  0.8836 -0.7421 -0.8668
55147SOL    HW283434   6.183   3.546  11.721  3.6726 -2.0901 -1.8018
55148SOL     OW83435   8.131   9.337   0.297 -0.4421 -0.0893  0.5160
55148SOL    HW183436   8.123   9.248   0.263  0.1975  0.3892 -0.9548
55148SOL    HW283437   8.054   9.383   0.263  0.8892  0.7451 -1.4886
55149SOL     OW83438   2.393  12.301   4.535 -0.0819  0.2714 -0.5415
55149SOL    HW183439   2.483  12.276   4.555  0.1317  0.7564 -0.8805
55149SOL    HW283440   2.399  12.391   4.503 -0.3722 -0.4307 -2.8120
55150SOL     OW83441   9.554  11.296  11.877  0.4380 -0.3064  0.4253
55150SOL    HW183442   9.482  11.357  11.860  0.2247 -0.7232 -0.1816
55150SOL    HW283443   9.629  11.334  11.830 -0.5240 -2.2845 -3.0410
55151SOL     OW83444  12.871  13.376  11.058 -0.1701 -0.3107 -0.6575
55151SOL    HW183445  12.947  13.368  11.114 -0.7727  1.5330  0.4829
55151SOL    HW283446  12.887  13.455  11.006 -1.3276  0.1477 -0.3394
55152SOL     OW83447   7.740   8.990   8.372 -0.0513 -0.2691 -0.1929
55152SOL    HW183448   7.646   9.001   8.388 -0.4894 -1.1269 -1.9443
55152SOL    HW283449   7.773   8.947   8.451 -0.9667  0.7561  0.7676
55153SOL     OW83450  12.946   0.853   1.785 -0.6785  0.2452  0.3891
55153SOL    HW183451  12.963   0.914   1.714 -0.1084  0.4783  0.7178
55153SOL    HW283452  12.861   0.879   1.819 -0.4203  0.8977  0.5571
55154SOL     OW83453  11.390  12.258   2.076 -0.3086  0.2957 -0.0851
55154SOL    HW183454  11.414  12.293   2.162  0.3424  1.0474 -0.5573
55154SOL    HW283455  11.436  12.315   2.013  0.0576 -0.8734 -0.9035
55155SOL     OW83456   8.637   4.397  10.496 -0.7220 -0.0936  0.1752
55155SOL    HW183457   8.652   4.466  10.431 -2.9426 -0.6146 -0.9786
55155SOL    HW283458   8.640   4.441  10.580  0.9447  0.8324 -0.3190
55156SOL     OW83459   9.716   7.248   2.833 -0.0245 -0.3287 -0.6811
55156SOL    HW183460   9.779   7.316   2.856 -0.9091  0.9535 -1.9343
55156SOL    HW283461   9.631   7.285   2.854 -0.6048 -0.5568 -2.4208
55157SOL     OW83462  10.914  10.150   4.555  0.1725 -0.3329  0.5489
55157SOL    HW183463  10.821  10.151   4.576  0.0894 -0.2546  0.1795
55157SOL    HW283464  10.924  10.078   4.493  0.0436  0.7553 -0.8016
55158SOL     OW83465   6.752  12.301  10.974  0.5112  0.5027  0.2759
55158SOL    HW183466   6.757  12.395  10.995  0.5107  0.6276 -0.2515
55158SOL    HW283467   6.764  12.298  10.879  0.5865 -0.0417  0.3004
55159SOL     OW83468  12.419  10.586   1.312  0.5459  0.2306 -0.0417
55159SOL    HW183469  12.492  10.528   1.336  1.3170  0.9109 -0.6904
55159SOL    HW283470  12.360  10.531   1.261  1.2498 -0.0149 -0.6137
55160SOL     OW83471   3.999   0.585   4.199  0.4834  0.5562 -0.4820
55160SOL    HW183472   4.009   0.678   4.180  3.0456  0.7943  1.3938
55160SOL    HW283473   4.088   0.550   4.191 -0.3184 -1.5991 -0.4932
55161SOL     OW83474   0.313  11.370  11.627 -0.0439 -0.2677  0.2865
55161SOL    HW183475   0.395  11.373  11.579 -2.3781  1.3428 -4.1662
55161SOL    HW283476   0.299  11.277  11.645  0.7357 -1.1217 -2.9330
55162SOL     OW83477   5.411   2.908   7.318  0.7488 -0.2227  0.0524
55162SOL    HW183478   5.381   2.950   7.399  0.4986  1.0616 -0.6737
55162SOL    HW283479   5.330   2.886   7.271  0.8762  1.0565 -0.8226
55163SOL     OW83480   6.934   3.648   5.873 -0.3484  0.4116 -0.4766
55163SOL    HW183481   6.987   3.723   5.901  1.9624 -1.4472  0.4727
55163SOL    HW283482   6.998   3.581   5.848 -2.3192 -1.0632 -1.9112
55164SOL     OW83483   4.399  11.988   4.525 -0.4166 -0.2364 -0.6948
55164SOL    HW183484   4.464  11.968   4.591  0.6886  0.7297 -1.4510
55164SOL    HW283485   4.392  11.908   4.473 -0.1710 -0.4996 -0.3230
55165SOL     OW83486   0.859  13.429   2.609  0.5654  0.4837 -0.2243
55165SOL    HW183487   0.779  13.450   2.561  0.3224  0.6160  0.2347
55165SOL    HW283488   0.917  13.390   2.543 -0.6074 -1.4862 -0.1818
55166SOL     OW83489   9.177  13.838   2.704 -0.2784  0.4241 -0.2862
55166SOL    HW183490   9.221  13.782   2.768 -0.3988  1.3181  0.5970
55166SOL    HW283491   9.244  13.902   2.678 -0.5670  0.7671 -0.1912
55167SOL     OW83492   0.744   6.501   1.220 -0.1740 -0.0401  0.3449
55167SOL    HW183493   0.834   6.492   1.190  0.6467  2.1629  1.9259
55167SOL    HW283494   0.691   6.467   1.148  1.8171  1.0931 -1.7671
55168SOL     OW83495  10.599   8.990   0.688  0.2365  0.6290  0.0736
55168SOL    HW183496  10.513   8.961   0.657 -0.0576 -0.5633  1.8087
55168SOL    HW283497  10.661   8.943   0.634 -0.1960  1.1077 -0.8597
55169SOL     OW83498   1.860   4.803  12.489  0.1883 -0.3073 -0.1190
55169SOL    HW183499   1.899   4.842  12.567  1.1705 -0.1106 -0.6893
55169SOL    HW283500   1.862   4.709  12.505  0.8382 -0.2964 -0.1041
55170SOL     OW83501  13.202   3.725  13.881 -0.1218  0.1113 -0.5563
55170SOL    HW183502  13.119   3.768  13.860 -0.8986 -1.1341 -0.2101
55170SOL    HW283503  13.220   3.669  13.805 -0.7874 -1.2893  0.2732
55171SOL     OW83504  10.873  11.692  13.854 -0.0904  0.3232  0.8872
55171SOL    HW183505  10.861  11.692  13.759 -0.4120  2.8575  0.8755
55171SOL    HW283506  10.795  11.646  13.887 -1.3970  1.8047  0.0176
55172SOL     OW83507   1.412   3.413   2.384  0.2088  0.4084 -0.4581
55172SOL    HW183508   1.362   3.401   2.303 -0.9153  1.2746  0.0749
55172SOL    HW283509   1.375   3.348   2.445  0.7479  0.0584 -0.4991
55173SOL     OW83510   8.382   2.752  10.189 -0.1581  0.3587  0.4137
55173SOL    HW183511   8.287   2.750  10.177 -0.1521 -2.5507  0.1995
55173SOL    HW283512   8.415   2.684  10.131  1.9803  0.6554  1.2083
55174SOL     OW83513   0.951   1.308  12.478  0.0984  0.0411 -0.4954
55174SOL    HW183514   1.030   1.298  12.531 -0.1553  1.1824  0.1324
55174SOL    HW283515   0.977   1.278  12.391  1.2139  0.3533 -0.2862
55175SOL     OW83516  11.286  11.949   9.975 -0.0278  0.6029  1.0458
55175SOL    HW183517  11.341  11.888   9.925 -1.1350  1.2394 -1.0682
55175SOL    HW283518  11.345  11.987  10.039  1.1999 -1.1054  1.0127
55176SOL     OW83519   8.368   0.120   7.567 -0.7895  0.1351 -0.3269
55176SOL    HW183520   8.345   0.031   7.543 -1.3874  0.2516 -0.2269
55176SOL    HW283521   8.306   0.142   7.637  0.3351  0.1013  0.7136
55177SOL     OW83522  13.059  12.016   8.093 -0.1752 -0.6858  0.3015
55177SOL    HW183523  13.028  12.092   8.043  0.2879 -1.3409 -1.0464
55177SOL    HW283524  12.981  11.983   8.137 -0.4888  0.2417  0.4655
55178SOL     OW83525  10.862   6.297   7.520 -0.4936 -0.0702 -0.2812
55178SOL    HW183526  10.778   6.259   7.496 -1.6260 -0.1643  3.2065
55178SOL    HW283527  10.900   6.327   7.438 -3.7327 -0.3653 -2.0375
55179SOL     OW83528   9.964   6.413   1.037 -0.5372 -0.6059  0.0606
55179SOL    HW183529   9.975   6.492   1.090  1.5615  1.4369 -3.0405
55179SOL    HW283530   9.876   6.422   0.998  0.2678  1.2042 -1.5174
55180SOL     OW83531   3.126   9.568  11.653 -0.3743 -0.5069 -0.1314
55180SOL    HW183532   3.195   9.540  11.713  0.6421  1.4055 -0.3245
55180SOL    HW283533   3.170   9.579  11.569 -1.1155 -0.1940 -0.4891
55181SOL     OW83534  12.067   5.133  14.031  0.1217  0.1473  1.0899
55181SOL    HW183535  11.997   5.134  14.096 -1.0210  0.3240 -0.0856
55181SOL    HW283536  12.112   5.050  14.045  0.2747  0.4452  2.4642
55182SOL     OW83537   0.962  13.736   4.886 -0.4352  0.1468  0.0950
55182SOL    HW183538   0.987  13.661   4.832 -0.5949 -0.5123  0.9129
55182SOL    HW283539   0.962  13.810   4.825 -1.7936 -0.7697 -1.0954
55183SOL     OW83540   2.602  11.463   2.265  0.0186 -0.2705  0.3071
55183SOL    HW183541   2.686  11.483   2.306  0.4279 -0.6273 -0.3447
55183SOL    HW283542   2.540  11.525   2.304  0.5273 -0.1781  0.9821
55184SOL     OW83543   6.761   5.028  11.556  0.0455  0.0865 -0.1144
55184SOL    HW183544   6.788   5.119  11.545 -0.9034  0.2438 -1.1829
55184SOL    HW283545   6.700   5.011  11.485 -1.5944 -0.6962  1.3843
55185SOL     OW83546   7.070  12.559   2.922  0.0530  0.0029  0.3146
55185SOL    HW183547   6.992  12.614   2.927  0.9611  1.6477 -1.8803
55185SOL    HW283548   7.141  12.616   2.952  0.4835 -1.4438  2.2082
55186SOL     OW83549  11.733   1.294   2.336  0.0052  0.3828 -0.2510
55186SOL    HW183550  11.826   1.299   2.359  0.1910  0.1563 -0.9175
55186SOL    HW283551  11.731   1.235   2.260 -0.8239 -0.6151  0.5287
55187SOL     OW83552   0.630   8.079   0.290 -0.0679  0.3045 -0.0690
55187SOL    HW183553   0.569   8.037   0.351 -2.4007  1.1764 -1.6427
55187SOL    HW283554   0.659   8.157   0.336 -1.4124  0.7039  0.1592
55188SOL     OW83555   3.453  13.680   0.492 -0.3533  0.4638 -0.1668
55188SOL    HW183556   3.453  13.614   0.422  1.4832 -0.6016  0.7591
55188SOL    HW283557   3.515  13.747   0.462  0.8883 -0.2830  0.6300
55189SOL     OW83558   8.219   7.314  13.804  0.4219 -0.0280 -0.2103
55189SOL    HW183559   8.208   7.352  13.891  0.9738  2.4504 -1.1130
55189SOL    HW283560   8.131   7.290  13.777  0.1110  0.0848  0.6640
55190SOL     OW83561  12.869  10.866  11.400  0.2600 -0.4840  0.5035
55190SOL    HW183562  12.823  10.935  11.352  1.0534 -1.1612 -1.3583
55190SOL    HW283563  12.896  10.907  11.482  1.3354  1.6922 -0.8338
55191SOL     OW83564   5.680  11.855   3.557  0.0034 -0.4355  0.5136
55191SOL    HW183565   5.648  11.772   3.523  1.8191 -0.6635 -0.7813
55191SOL    HW283566   5.607  11.916   3.546 -0.7810 -1.4598 -0.0679
55192SOL     OW83567  11.867   9.996   2.421 -0.2989  0.3157 -0.3032
55192SOL    HW183568  11.955  10.026   2.441 -0.8943  1.6570  0.4448
55192SOL    HW283569  11.819  10.076   2.398 -1.0694 -0.5152 -1.7027
55193SOL     OW83570   9.599   8.700   1.118 -0.0454  0.3344 -0.1387
55193SOL    HW183571   9.607   8.622   1.062 -1.5407  0.3038 -0.3528
55193SOL    HW283572   9.621   8.669   1.205 -1.8796 -0.6803  0.0095
55194SOL     OW83573  12.666  11.109   1.841  0.5899 -0.2316 -0.1343
55194SOL    HW183574  12.745  11.157   1.814  0.7950 -0.3448  0.2602
55194SOL    HW283575  12.629  11.076   1.759 -0.0915  1.4157 -0.5392
55195SOL     OW83576  14.067   5.141  11.879 -0.5374 -0.1890  0.6529
55195SOL    HW183577  14.039   5.233  11.873  2.1805  0.6934  0.0828
55195SOL    HW283578  14.121   5.138  11.958 -0.3272 -1.2219  0.4784
55196SOL     OW83579  11.865   5.042  10.376 -0.0254 -0.1484  0.0393
55196SOL    HW183580  11.917   4.985  10.433  1.4047 -0.6818 -1.6941
55196SOL    HW283581  11.831   4.983  10.309 -2.8491  0.2127  1.0530
55197SOL     OW83582   6.070   3.994   5.112  0.1356 -0.1466 -0.0269
55197SOL    HW183583   6.124   3.916   5.102 -1.9449 -1.7751  0.7959
55197SOL    HW283584   6.048   3.996   5.205 -2.4612 -0.4702 -0.5698
55198SOL     OW83585   2.260  12.774   9.895 -0.5508 -0.1234 -0.0092
55198SOL    HW183586   2.223  12.841   9.953 -2.4237 -1.2995  0.2361
55198SOL    HW283587   2.261  12.815   9.809 -1.6269  0.2681  0.1486
55199SOL     OW83588   0.646   3.305   1.536 -0.3292  0.3841  0.5387
55199SOL    HW183589   0.694   3.369   1.588  0.2548  0.1383  0.3096
55199SOL    HW283590   0.579   3.272   1.596 -1.3771  1.9994  0.3139
55200SOL     OW83591   4.097   3.613  12.663 -0.1691 -0.3364 -0.1084
55200SOL    HW183592   4.148   3.536  12.639 -0.6612 -0.1760 -1.7444
55200SOL    HW283593   4.160   3.670  12.708  0.1674 -1.7092  1.2571
55201SOL     OW83594   6.077  11.583   2.804 -0.2327 -0.3369 -0.0830
55201SOL    HW183595   6.068  11.601   2.898 -3.1657  0.6037 -0.4649
55201SOL    HW283596   6.155  11.632   2.778  1.3104 -1.5060  2.0114
55202SOL     OW83597   1.244  11.960   1.705 -0.3714 -0.2258 -0.2894
55202SOL    HW183598   1.280  12.042   1.740 -1.4725 -0.6190  1.9061
55202SOL    HW283599   1.193  11.988   1.629  0.5885  0.9046 -0.5560
55203SOL     OW83600  11.459   7.951  10.857 -0.1341 -0.0839 -1.0501
55203SOL    HW183601  11.514   8.029  10.863  0.0476 -0.1762 -1.4631
55203SOL    HW283602  11.498   7.900  10.786  0.6148 -1.2504  0.1777
55204SOL     OW83603   5.235  13.585   3.923 -0.0823  0.2192 -0.6111
55204SOL    HW183604   5.231  13.529   4.000 -1.2535  2.1415  0.8064
55204SOL    HW283605   5.265  13.527   3.853 -1.2585 -2.1730  0.7455
55205SOL     OW83606   0.284  10.570   8.758 -0.6595 -0.4444  1.3349
55205SOL    HW183607   0.360  10.563   8.816 -0.4663  2.4236  1.5551
55205SOL    HW283608   0.210  10.581   8.816 -0.7917  0.0491  1.0756
55206SOL     OW83609   3.117   2.501   0.859 -0.1186  0.8796 -0.3278
55206SOL    HW183610   3.166   2.431   0.903  0.1331  1.5371  0.4383
55206SOL    HW283611   3.178   2.533   0.792  0.0196  0.8270 -0.2290
55207SOL     OW83612   2.875   0.926   8.278  0.2535 -0.3619 -0.3832
55207SOL    HW183613   2.894   1.015   8.251 -0.1306 -0.6318 -1.6349
55207SOL    HW283614   2.905   0.921   8.369 -0.8157  1.3679  0.1026
55208SOL     OW83615   8.032   4.343  12.863 -0.0639  0.1310  0.2375
55208SOL    HW183616   7.986   4.298  12.935  1.6556 -0.7577  0.8355
55208SOL    HW283617   8.007   4.435  12.873  1.6874  0.4139  3.3356
55209SOL     OW83618  10.804   2.679  11.226  0.7997  0.4152 -0.0385
55209SOL    HW183619  10.730   2.664  11.286 -0.7395  1.4104 -1.6111
55209SOL    HW283620  10.859   2.743  11.271 -0.4290  1.2907  0.2728
55210SOL     OW83621   2.494   2.607   4.953  0.0248  0.2061 -0.3219
55210SOL    HW183622   2.558   2.672   4.924  0.2857 -0.5331 -1.4829
55210SOL    HW283623   2.546   2.542   5.000 -0.4118  1.4549  2.0246
55211SOL     OW83624   2.552  12.803   1.050  0.8054 -0.2734 -0.4228
55211SOL    HW183625   2.629  12.826   0.999  1.0082 -0.3345 -0.1481
55211SOL    HW283626   2.507  12.887   1.064  0.3456 -0.3557 -1.3347
55212SOL     OW83627   5.723  10.110   4.237  0.2572 -0.0174  1.0429
55212SOL    HW183628   5.650  10.116   4.174  0.4781  0.4885  0.8316
55212SOL    HW283629   5.766  10.195   4.231  1.5976 -0.7234  0.2816
55213SOL     OW83630   6.469  13.353   9.906  0.1267  0.2467 -0.3943
55213SOL    HW183631   6.403  13.284   9.912  0.3266 -0.1722 -2.3766
55213SOL    HW283632   6.419  13.435   9.901 -0.3126 -0.0894 -2.2033
55214SOL     OW83633  13.712  11.340   6.349  0.1951  0.3050  0.2690
55214SOL    HW183634  13.695  11.432   6.329  0.6060  0.5271  0.9185
55214SOL    HW283635  13.676  11.327   6.437  0.1587 -0.1502  0.1908
55215SOL     OW83636   6.914   2.237  13.398  0.1989  0.2168 -0.0539
55215SOL    HW183637   6.876   2.230  13.311  0.0575 -0.3158  0.0451
55215SOL    HW283638   6.856   2.297  13.445 -1.8181 -2.1979  0.7497
55216SOL     OW83639   8.738   5.079   4.175 -0.3101 -0.1722 -0.6929
55216SOL    HW183640   8.649   5.101   4.202  0.4591  0.7906  1.2372
55216SOL    HW283641   8.780   5.047   4.255  1.2221 -0.1088 -1.4410
55217SOL     OW83642  13.837   5.655   3.424 -0.0655  0.4669 -0.1365
55217SOL    HW183643  13.747   5.636   3.399 -0.3162 -0.4136  1.3468
55217SOL    HW283644  13.849   5.747   3.399 -0.5941 -0.0252 -2.4509
55218SOL     OW83645   6.842   3.330   9.479 -0.2775  0.3181 -0.5260
55218SOL    HW183646   6.859   3.418   9.448 -2.0114  0.7865 -0.2526
55218SOL    HW283647   6.865   3.332   9.572 -0.0467  0.3834 -0.5834
55219SOL     OW83648   7.204   4.132  10.919  0.6756  0.0930  0.2414
55219SOL    HW183649   7.203   4.038  10.902 -1.9658  0.2899 -1.2262
55219SOL    HW283650   7.291   4.161  10.889  0.9051 -1.6174 -0.8949
55220SOL     OW83651   3.829   6.199   5.577 -0.1778 -0.1689  0.5943
55220SOL    HW183652   3.761   6.200   5.510 -1.2290  0.8357  1.6258
55220SOL    HW283653   3.846   6.291   5.595  0.7441 -0.4234  1.0661
55221SOL     OW83654   2.378   2.145   9.978  0.2102  0.0272  0.4550
55221SOL    HW183655   2.325   2.142   9.899 -0.6923 -0.3569  1.0621
55221SOL    HW283656   2.454   2.090   9.959  0.4262  0.6106 -0.4272
55222SOL     OW83657  10.481  10.164  14.114  0.4903 -0.4327  0.0687
55222SOL    HW183658  10.458  10.155  14.207  1.1898 -3.4598  0.0437
55222SOL    HW283659  10.400  10.145  14.068  0.0100  1.5904  0.0026
55223SOL     OW83660   0.218  11.837   6.655 -0.7251  0.2575  0.3022
55223SOL    HW183661   0.225  11.745   6.679 -2.2650  0.0964  0.2513
55223SOL    HW283662   0.269  11.845   6.574  1.7431  0.0944  1.7279
55224SOL     OW83663   5.261   3.477   5.019  0.6538 -0.4167  0.0975
55224SOL    HW183664   5.211   3.467   4.938 -0.0708  2.8639  0.0017
55224SOL    HW283665   5.337   3.419   5.008  0.7728  0.1528 -3.1015
55225SOL     OW83666  10.393   1.858  13.670  0.2949  0.1744  0.3377
55225SOL    HW183667  10.423   1.878  13.581  0.3657  0.9875  0.5404
55225SOL    HW283668  10.346   1.775  13.661  1.5450 -0.5107 -0.2108
55226SOL     OW83669   4.037   8.135  10.878  0.2380  0.4309  0.1312
55226SOL    HW183670   4.029   8.165  10.968 -0.3311 -1.9969  0.9601
55226SOL    HW283671   4.103   8.065  10.881 -0.8326 -0.7056 -1.0069
55227SOL     OW83672  11.932  12.890   8.408 -0.5069  0.5125  0.2879
55227SOL    HW183673  11.941  12.967   8.352 -0.5038 -2.4353 -4.2237
55227SOL    HW283674  11.845  12.855   8.389 -0.5330 -0.6736  2.2326
55228SOL     OW83675   3.274  13.764   0.986 -0.7327  0.6398 -0.1588
55228SOL    HW183676   3.274  13.785   1.079 -1.3266 -0.0320  0.0045
55228SOL    HW283677   3.292  13.847   0.942  2.7599  0.4423  0.6303
55229SOL     OW83678  11.832   0.475   8.204  0.2285  0.2051 -0.3320
55229SOL    HW183679  11.758   0.435   8.159 -0.6933  1.5676 -0.0839
55229SOL    HW283680  11.903   0.474   8.140 -0.2554 -0.3347 -0.8670
55230SOL     OW83681   5.295  13.495  11.434 -0.4195  0.4606 -0.1466
55230SOL    HW183682   5.262  13.584  11.424 -0.2101  0.3937 -1.8441
55230SOL    HW283683   5.238  13.442  11.378 -1.4817 -0.7592  1.9742
55231SOL     OW83684   8.467   0.885   6.339 -0.5457 -0.5001  0.2009
55231SOL    HW183685   8.555   0.884   6.303 -0.4394 -0.4665  0.4632
55231SOL    HW283686   8.437   0.794   6.332 -0.5584 -0.4783 -0.0504
55232SOL     OW83687   3.869   4.212   6.396 -0.2419 -0.3834 -0.2154
55232SOL    HW183688   3.904   4.256   6.319 -0.7501  0.1357 -0.1531
55232SOL    HW283689   3.780   4.247   6.406 -0.3926 -0.8815  0.2617
55233SOL     OW83690   9.538   5.381   7.373  0.0316 -0.2936  0.5600
55233SOL    HW183691   9.568   5.337   7.294 -0.3853  0.9330 -0.3250
55233SOL    HW283692   9.528   5.311   7.438  1.1450 -1.2179 -0.2232
55234SOL     OW83693  10.785   2.954   9.193  0.3422 -0.1440 -0.2314
55234SOL    HW183694  10.852   2.954   9.261 -0.4364 -0.4571  0.5422
55234SOL    HW283695  10.826   2.908   9.119  0.5306 -1.4840  0.6770
55235SOL     OW83696  10.692   5.889   9.906 -0.3077  0.5745 -0.1997
55235SOL    HW183697  10.655   5.921   9.824 -0.6953 -0.6988 -0.5363
55235SOL    HW283698  10.777   5.933   9.912  0.0178  0.1795 -1.6165
55236SOL     OW83699   6.324  13.670   8.102  0.0181  0.5592  0.4773
55236SOL    HW183700   6.293  13.614   8.031  1.4766  0.3269 -0.0033
55236SOL    HW283701   6.272  13.750   8.093 -0.0139  0.4207 -0.6715
55237SOL     OW83702  10.550  12.314   8.473 -0.2225  0.1363 -0.5445
55237SOL    HW183703  10.528  12.392   8.422 -0.3005  0.3227 -0.2246
55237SOL    HW283704  10.621  12.273   8.424  0.0230  0.5669 -0.5505
55238SOL     OW83705  11.257   4.084   8.996  0.6335  0.0500  0.0072
55238SOL    HW183706  11.291   4.010   9.046 -0.2647 -2.3420 -2.6661
55238SOL    HW283707  11.332   4.143   8.985  2.5179 -2.3684 -1.0116
55239SOL     OW83708   1.125   0.582   8.026 -0.0681  0.3528 -0.2403
55239SOL    HW183709   1.096   0.646   7.961 -0.9547  0.4888  0.2798
55239SOL    HW283710   1.072   0.600   8.104 -0.1758 -0.8729 -0.0080
55240SOL     OW83711   5.013   0.454   6.959 -0.0435 -0.7619 -0.3188
55240SOL    HW183712   4.945   0.402   7.000 -0.6118  0.7351  0.7250
55240SOL    HW283713   5.065   0.488   7.032 -0.6677  1.4140 -0.8160
55241SOL     OW83714   3.682  13.898   8.080 -0.0180 -0.1582  0.0510
55241SOL    HW183715   3.735  13.819   8.086 -0.7205 -0.5829  0.7096
55241SOL    HW283716   3.597  13.874   8.117 -0.8736  0.3435 -1.4829
55242SOL     OW83717   9.505   7.811   5.350 -0.3714 -0.0402  0.4473
55242SOL    HW183718   9.459   7.846   5.273 -1.4046 -1.1913  0.5154
55242SOL    HW283719   9.597   7.810   5.324 -0.6323  0.1911 -0.5425
55243SOL     OW83720   4.761   9.504   2.605  0.1071 -0.1205 -0.8134
55243SOL    HW183721   4.808   9.433   2.560  1.5293 -0.9401  1.7329
55243SOL    HW283722   4.825   9.539   2.668 -1.5243  1.3998  0.0970
55244SOL     OW83723   9.867   3.998  12.210 -0.1889  0.2331  0.1984
55244SOL    HW183724   9.885   3.980  12.302 -0.5396 -1.2264  0.0137
55244SOL    HW283725   9.772   4.009  12.205 -0.1516  0.5105  0.0369
55245SOL     OW83726   6.097   6.426   4.972  0.1205  0.2390  0.0972
55245SOL    HW183727   6.177   6.402   5.018  0.3105  1.9148  0.7135
55245SOL    HW283728   6.116   6.408   4.880  0.8756 -0.2303  0.3376
55246SOL     OW83729  11.080   9.809   9.354  0.1096  0.3847  0.4283
55246SOL    HW183730  11.115   9.720   9.353  0.4086  0.4991  0.6254
55246SOL    HW283731  10.985   9.797   9.355 -0.0902  0.0344 -3.9670
55247SOL     OW83732  14.022  11.823   4.476  0.5448 -0.1797 -1.4478
55247SOL    HW183733  14.083  11.865   4.416  0.1810  1.7549 -0.5494
55247SOL    HW283734  14.049  11.732   4.478  2.8327  0.4376 -1.7609
55248SOL     OW83735  13.182   4.514   8.732 -0.1314 -0.7752 -0.4601
55248SOL    HW183736  13.178   4.599   8.775 -0.8382 -1.6777  1.3931
55248SOL    HW283737  13.257   4.520   8.673  0.5446  0.7465  0.5077
55249SOL     OW83738   3.897  10.715   8.223  0.1105  0.1525 -0.1563
55249SOL    HW183739   3.879  10.803   8.190  0.7943  1.1269  1.9287
55249SOL    HW283740   3.932  10.668   8.146 -1.7953  1.1459 -1.7208
55250SOL     OW83741   9.817   8.082   3.628 -0.8649 -0.6733  0.2512
55250SOL    HW183742   9.729   8.095   3.662 -1.0167 -1.0549  0.0072
55250SOL    HW283743   9.828   8.151   3.563 -0.3707  0.4096  1.4244
55251SOL     OW83744  13.962   4.891  11.804  0.6085 -0.5947 -0.3214
55251SOL    HW183745  14.038   4.844  11.768  0.5905  0.1606 -1.3653
55251SOL    HW283746  13.995   4.979  11.823 -0.0466 -0.2080 -0.9481
55252SOL     OW83747   8.067   4.627  10.944 -0.8120  0.4392  0.0730
55252SOL    HW183748   8.106   4.624  10.857 -0.6420 -0.4253  0.1772
55252SOL    HW283749   8.042   4.537  10.963  0.6918  0.2918  1.6055
55253SOL     OW83750  12.133   4.534   3.169 -0.6777 -0.4973 -0.2345
55253SOL    HW183751  12.166   4.616   3.132  0.5850  0.3734  2.5400
55253SOL    HW283752  12.045   4.555   3.199 -0.3863 -0.1233  0.3979
55254SOL     OW83753  11.213   3.167   1.937 -0.4349  0.1028  0.5782
55254SOL    HW183754  11.245   3.085   1.899  2.4983  0.3233  2.2397
55254SOL    HW283755  11.180   3.143   2.023 -1.6514  0.4152  0.2218
55255SOL     OW83756   8.363   1.736   7.320  0.1447 -0.0165 -0.7834
55255SOL    HW183757   8.457   1.751   7.329  0.2778 -0.8823 -0.6784
55255SOL    HW283758   8.337   1.692   7.401 -0.6404  1.5214 -0.1566
55256SOL     OW83759   2.342   7.219   7.474  1.0226 -0.0139  0.3881
55256SOL    HW183760   2.326   7.158   7.546  1.3461 -0.4543  0.0918
55256SOL    HW283761   2.356   7.162   7.397 -0.7476  0.4524 -0.3342
55257SOL     OW83762   7.423   1.641   6.237 -0.4475 -0.1347  0.1549
55257SOL    HW183763   7.415   1.582   6.312 -0.6548 -0.3084 -0.0021
55257SOL    HW283764   7.384   1.592   6.164  0.0889 -0.1174 -0.1487
55258SOL     OW83765   0.039  13.337   7.299  0.8563 -0.2462  0.2866
55258SOL    HW183766   0.129  13.364   7.313  0.4991  1.1543  0.0560
55258SOL    HW283767  -0.011  13.384   7.366  0.3262 -1.2309  0.5988
55259SOL     OW83768  10.310   7.658   6.042 -0.4365 -0.3469  0.1565
55259SOL    HW183769  10.398   7.670   6.008  0.0198 -0.3507  1.2826
55259SOL    HW283770  10.283   7.746   6.070 -1.7081  0.1013 -2.2188
55260SOL     OW83771   9.484   1.843   3.046  0.0476 -0.6105  0.4858
55260SOL    HW183772   9.432   1.892   2.982 -1.4615 -1.7751  0.7684
55260SOL    HW283773   9.572   1.838   3.006 -0.3283  0.4094 -0.5431
55261SOL     OW83774   5.822   5.709   3.723  0.3036  0.6847  0.2817
55261SOL    HW183775   5.801   5.626   3.766  1.1023  0.0217 -0.5924
55261SOL    HW283776   5.839   5.686   3.632  1.1384  1.7305  0.1566
55262SOL     OW83777  11.211   0.997   5.174  0.2538  0.5709  0.3955
55262SOL    HW183778  11.225   1.056   5.248  1.3720  0.6138  0.1685
55262SOL    HW283779  11.145   1.041   5.120 -0.7209  0.4465  1.4522
55263SOL     OW83780  10.391  11.035  12.188 -0.0538  0.2441 -0.0899
55263SOL    HW183781  10.421  11.112  12.140  1.5234 -1.2909 -1.7176
55263SOL    HW283782  10.321  10.999  12.133 -1.1415  0.7228  0.9196
55264SOL     OW83783   5.726   1.898   7.984 -0.4945 -0.0742  0.0294
55264SOL    HW183784   5.653   1.922   7.927 -1.0176  0.5497  0.9373
55264SOL    HW283785   5.684   1.854   8.059  0.2965 -2.3563 -0.7740
55265SOL     OW83786   0.718   8.272   2.363  1.1320  0.4328  0.0907
55265SOL    HW183787   0.650   8.316   2.415  1.0927  1.0776 -0.4901
55265SOL    HW283788   0.722   8.323   2.281  0.9242 -0.7801 -0.6963
55266SOL     OW83789   7.336  10.339  10.498  0.1847  0.0722 -0.3863
55266SOL    HW183790   7.252  10.370  10.533  0.3283  0.8527 -0.7100
55266SOL    HW283791   7.383  10.306  10.574 -0.6779 -1.0173 -0.2930
55267SOL     OW83792   0.012   3.356   3.262  0.1952  0.2467 -0.7079
55267SOL    HW183793  -0.027   3.303   3.193 -0.4352 -1.2946  0.7549
55267SOL    HW283794  -0.049   3.348   3.335 -1.8298  5.8458 -1.3167
55268SOL     OW83795   1.399   7.243   5.285  0.2568  0.0319 -0.0983
55268SOL    HW183796   1.304   7.248   5.274  0.4863  0.3244 -2.3204
55268SOL    HW283797   1.422   7.155   5.256  0.9688  1.0287 -2.8861
55269SOL     OW83798  12.778   1.961   3.603 -0.3318 -0.2318 -0.0284
55269SOL    HW183799  12.807   1.946   3.513  0.0203 -1.0135  0.2109
55269SOL    HW283800  12.763   2.056   3.608 -0.4259 -0.1912 -0.9276
55270SOL     OW83801   5.522  13.140   2.799  0.3056 -0.3135  0.0456
55270SOL    HW183802   5.492  13.187   2.721  0.8114  1.3893  0.8538
55270SOL    HW283803   5.443  13.124   2.850  0.3894  1.8364  0.9142
55271SOL     OW83804   4.251  12.250   3.060  0.1389 -0.1174  0.3209
55271SOL    HW183805   4.263  12.212   3.147 -1.7460  0.8490  1.0617
55271SOL    HW283806   4.163  12.288   3.062 -0.4396 -1.0673 -2.4113
55272SOL     OW83807   2.210  10.789   7.153 -0.4646  0.1500 -0.6540
55272SOL    HW183808   2.127  10.745   7.173 -2.0640  2.1417 -2.4611
55272SOL    HW283809   2.212  10.864   7.212 -1.3359  1.5973 -2.3695
55273SOL     OW83810   6.764   0.373   6.212 -0.0437  0.0956  0.2008
55273SOL    HW183811   6.853   0.348   6.187  0.1212  0.7582  0.1010
55273SOL    HW283812   6.772   0.402   6.303  0.3356  2.5246 -0.5571
55274SOL     OW83813  12.708  12.153  10.614 -0.1923  0.4131 -0.1643
55274SOL    HW183814  12.710  12.152  10.710 -1.7183  0.4853 -0.1138
55274SOL    HW283815  12.616  12.168  10.592 -0.1156 -1.0712 -1.6646
55275SOL     OW83816   6.952   4.428   8.033  0.1542 -0.0871 -0.1928
55275SOL    HW183817   6.989   4.459   8.116  0.0722 -0.8028  0.1134
55275SOL    HW283818   7.016   4.457   7.967  0.0452  0.7939  0.0719
55276SOL     OW83819  13.511   7.453  11.123 -0.1040 -0.0295  0.4327
55276SOL    HW183820  13.575   7.393  11.162 -1.9969 -1.6250  1.2895
55276SOL    HW283821  13.488   7.413  11.039  0.5603  0.9371 -0.2241
55277SOL     OW83822   7.925  11.456   7.087 -0.1521  0.2989  0.4027
55277SOL    HW183823   7.859  11.398   7.050 -0.5631  0.5371  0.7517
55277SOL    HW283824   7.944  11.519   7.017 -1.4436  1.1783  0.8101
55278SOL     OW83825   1.427  12.044   3.676 -0.2270 -0.2225  0.3536
55278SOL    HW183826   1.464  12.080   3.756  1.4777 -2.9600  0.9459
55278SOL    HW283827   1.344  12.005   3.702  0.4715 -1.3881  0.9376
55279SOL     OW83828   1.499   5.673   8.514  0.4742 -0.4931 -0.0393
55279SOL    HW183829   1.441   5.665   8.439  1.1351  2.2676 -0.9726
55279SOL    HW283830   1.584   5.697   8.476  0.9142  0.6080  1.5337
55280SOL     OW83831   3.081   4.162  11.977  0.0736 -0.5208  0.1971
55280SOL    HW183832   3.132   4.095  12.023 -0.2401 -1.0875 -0.2724
55280SOL    HW283833   3.025   4.200  12.045  0.5561 -0.4309  0.5554
55281SOL     OW83834   8.566   8.356   4.207 -0.3112  0.7019  0.0979
55281SOL    HW183835   8.551   8.421   4.138  2.8236  1.4429 -0.0489
55281SOL    HW283836   8.652   8.319   4.186 -0.1365 -0.4520  2.5562
55282SOL     OW83837   2.078  11.640   3.004  0.4046  0.2093 -0.1480
55282SOL    HW183838   2.080  11.704   3.075  0.1364 -0.3742  0.3904
55282SOL    HW283839   1.988  11.645   2.970  0.3530  0.0453 -0.0363
55283SOL     OW83840  13.036   7.031   7.326  0.1323 -0.1563  0.5669
55283SOL    HW183841  12.947   7.059   7.304 -0.0867 -0.8622  0.5395
55283SOL    HW283842  13.077   7.109   7.363  0.1150  0.7439 -1.1673
55284SOL     OW83843   6.309   3.529  13.830  0.2758 -0.2592  0.1017
55284SOL    HW183844   6.321   3.445  13.873  0.2348 -0.8699 -1.0357
55284SOL    HW283845   6.259   3.581  13.892 -1.0906 -1.6145  0.1780
55285SOL     OW83846   2.721   8.933  10.618 -0.1644  0.0574 -0.1323
55285SOL    HW183847   2.715   8.851  10.667 -2.6451  0.1988 -0.0303
55285SOL    HW283848   2.751   8.997  10.682 -4.1098  0.4233  1.6905
55286SOL     OW83849  11.719   0.111   1.090  0.8222 -0.0094  0.2656
55286SOL    HW183850  11.787   0.047   1.108  1.2511  0.4223  0.1961
55286SOL    HW283851  11.766   0.194   1.079  0.2100  0.4795  1.1926
55287SOL     OW83852  10.275   2.306   1.840  0.0788  0.1166  0.3401
55287SOL    HW183853  10.228   2.261   1.769 -0.5472  0.9647  0.1967
55287SOL    HW283854  10.206   2.339   1.897  0.5297  0.6407  0.5930
55288SOL     OW83855   6.871  10.375   3.700 -0.3864 -0.3418  0.1625
55288SOL    HW183856   6.910  10.455   3.736 -1.1714  0.4250 -0.6427
55288SOL    HW283857   6.804  10.351   3.764 -0.0155 -0.4812  0.5063
55289SOL     OW83858   0.189  12.873   9.983 -0.2541 -0.2415  0.1308
55289SOL    HW183859   0.186  12.956   9.936 -0.5777 -2.5021 -4.4256
55289SOL    HW283860   0.101  12.863  10.019 -1.2557  0.1331 -2.0103
55290SOL     OW83861   0.535  12.685  11.002  0.2534 -0.1036  0.3237
55290SOL    HW183862   0.507  12.736  10.926  1.7187 -1.7832 -1.4632
55290SOL    HW283863   0.612  12.731  11.034 -0.1880  0.4459  0.6020
55291SOL     OW83864  10.139   9.057  13.209 -0.3379 -0.1335  0.4996
55291SOL    HW183865  10.089   9.124  13.162  2.1862  1.4906 -0.1143
55291SOL    HW283866  10.089   9.041  13.289 -0.1818  4.0365  1.6927
55292SOL     OW83867  12.302  13.224   2.697  0.1764  0.4421  0.5060
55292SOL    HW183868  12.260  13.271   2.625  0.1430  0.3729  0.4809
55292SOL    HW283869  12.391  13.207   2.667 -0.0603 -0.2417  0.1882
55293SOL     OW83870   2.710   2.556   6.084 -0.0776 -0.0894 -0.2815
55293SOL    HW183871   2.768   2.582   6.156  0.8810  0.3108 -1.1736
55293SOL    HW283872   2.663   2.480   6.118  0.6694 -0.1760  0.6188
55294SOL     OW83873   0.798   7.279   6.417  0.2515 -0.1946 -0.0489
55294SOL    HW183874   0.740   7.310   6.348 -0.8341 -0.0540  0.9076
55294SOL    HW283875   0.855   7.215   6.373 -0.0529  0.2965 -1.1814
55295SOL     OW83876  11.908   4.984   6.279 -0.4496 -1.1387  0.1313
55295SOL    HW183877  11.937   5.002   6.368 -1.2929  2.3143 -0.1474
55295SOL    HW283878  11.990   4.971   6.230  0.4869  2.3865  0.4896
55296SOL     OW83879  13.696   3.809   1.408 -0.2570  0.0092  0.0599
55296SOL    HW183880  13.694   3.715   1.386  0.2989  0.5533 -2.7205
55296SOL    HW283881  13.789   3.830   1.413 -0.3739  0.5440  0.0544
55297SOL     OW83882   8.171   7.088   4.239 -0.0173  0.7336 -0.5903
55297SOL    HW183883   8.118   7.135   4.303  1.2715  1.8710 -0.3038
55297SOL    HW283884   8.259   7.088   4.277  0.7319  1.2531 -2.2417
55298SOL     OW83885   9.306   3.782   7.194  0.2875 -0.0913  0.5548
55298SOL    HW183886   9.342   3.704   7.236  0.0419 -0.0678  0.8188
55298SOL    HW283887   9.366   3.852   7.217  1.5550 -0.5263 -1.2411
55299SOL     OW83888   0.823  12.746   6.231 -0.1522  0.5866  0.4842
55299SOL    HW183889   0.820  12.799   6.310 -0.5179  0.7296  0.3723
55299SOL    HW283890   0.826  12.656   6.263  1.8301  0.6864  0.7116
55300SOL     OW83891  10.949  10.943   9.025  0.3854  0.1495  0.0111
55300SOL    HW183892  10.861  10.923   9.058  0.7956 -1.1892  0.3713
55300SOL    HW283893  10.943  10.930   8.931 -0.0146  0.9038 -0.0703
55301SOL     OW83894   3.434  10.272  10.824 -0.1294  1.0064 -0.2382
55301SOL    HW183895   3.502  10.247  10.761 -0.2699  0.3280 -0.1250
55301SOL    HW283896   3.353  10.272  10.773 -0.3065  0.0358  0.0333
55302SOL     OW83897   6.995  10.471  11.553  0.3238  0.1511  0.1195
55302SOL    HW183898   7.037  10.429  11.628 -0.8540 -0.6455  0.3731
55302SOL    HW283899   7.050  10.450  11.479  1.8398  1.4471  0.8278
55303SOL     OW83900   8.920  13.212   3.481 -0.0527 -0.5811  0.0424
55303SOL    HW183901   8.878  13.280   3.534  0.2682 -0.5985  0.3266
55303SOL    HW283902   8.964  13.156   3.545  0.9639 -0.1857 -0.2817
55304SOL     OW83903  12.716   6.425   3.514  0.1230 -0.1903  0.0973
55304SOL    HW183904  12.765   6.357   3.467  0.0012  0.0280 -0.3429
55304SOL    HW283905  12.625   6.396   3.510  0.0392  0.1353 -0.3142
55305SOL     OW83906   8.067   7.287   7.618 -0.4920  0.1028 -0.2363
55305SOL    HW183907   8.064   7.325   7.530  0.3665 -0.4438 -0.5156
55305SOL    HW283908   8.148   7.319   7.656 -1.2718  1.0411  0.7106
55306SOL     OW83909   0.852   6.852  10.258  0.0626 -0.0168 -0.2304
55306SOL    HW183910   0.946   6.832  10.257  0.0628 -0.1795 -2.3492
55306SOL    HW283911   0.840   6.910  10.183 -1.3068  1.2531  0.9303
55307SOL     OW83912   4.432   2.240  12.859 -0.1740 -0.1979  0.3291
55307SOL    HW183913   4.388   2.301  12.800  0.9142  1.1703  0.8772
55307SOL    HW283914   4.522   2.274  12.865 -0.5593  0.5156  3.7713
55308SOL     OW83915   7.428   3.787  10.713  0.2180 -0.2404 -0.3533
55308SOL    HW183916   7.482   3.722  10.756  0.7626  0.0405 -0.5980
55308SOL    HW283917   7.482   3.819  10.640 -0.7924 -0.9480 -1.4635
55309SOL     OW83918  13.522   1.864   6.213  0.3711 -0.3012  0.0597
55309SOL    HW183919  13.523   1.959   6.218  1.1613 -0.3226  0.4609
55309SOL    HW283920  13.443   1.843   6.163  1.3131  0.6565 -1.9536
55310SOL     OW83921  13.810   6.992   9.349  0.7422  0.5266 -0.1259
55310SOL    HW183922  13.815   7.077   9.393 -0.8742 -0.4728  2.1534
55310SOL    HW283923  13.749   7.007   9.276  0.7330  1.3871  0.0433
55311SOL     OW83924   0.156   3.052   9.873 -0.4618  0.1844  0.1445
55311SOL    HW183925   0.061   3.055   9.862 -0.4239 -1.2045 -0.8762
55311SOL    HW283926   0.184   3.143   9.878 -1.8841  0.5978  0.8530
55312SOL     OW83927   6.491  11.271  13.379 -0.7659 -0.0274  0.1425
55312SOL    HW183928   6.399  11.265  13.403 -0.8497 -0.9262 -0.3491
55312SOL    HW283929   6.537  11.228  13.452 -0.8493 -0.7911 -0.2469
55313SOL     OW83930   4.214  11.290   6.827 -0.4505  0.4658  0.7479
55313SOL    HW183931   4.149  11.305   6.896 -2.4094  1.4425 -1.1686
55313SOL    HW283932   4.232  11.377   6.792 -0.9058 -0.1364 -1.1163
55314SOL     OW83933   1.247   0.468  11.787 -0.4749 -0.4178  0.1019
55314SOL    HW183934   1.174   0.506  11.836  1.1566  1.1790  1.4312
55314SOL    HW283935   1.323   0.521  11.812  1.1064 -1.8295 -1.4404
55315SOL     OW83936   8.166  10.114  12.196  0.0396 -0.1859  0.1271
55315SOL    HW183937   8.110  10.041  12.222  0.7453 -1.2489 -1.2414
55315SOL    HW283938   8.178  10.104  12.102 -1.5813  2.9197 -0.5603
55316SOL     OW83939   9.447   5.323  11.188 -0.1906 -0.3743  0.3770
55316SOL    HW183940   9.432   5.373  11.107 -1.8687  0.1942  0.9874
55316SOL    HW283941   9.530   5.278  11.173 -0.2293  0.0659 -1.4863
55317SOL     OW83942   5.296   1.598   9.376  0.1852  0.0210  0.1497
55317SOL    HW183943   5.301   1.539   9.452 -0.0620  0.3579  0.4315
55317SOL    HW283944   5.212   1.578   9.335  0.3839 -0.2630 -0.1236
55318SOL     OW83945   3.005  12.921   4.771  0.0994 -0.1227  0.1324
55318SOL    HW183946   2.923  12.877   4.792  0.8530 -1.8801 -0.3370
55318SOL    HW283947   3.072  12.868   4.815  1.1222  0.0870 -1.0970
55319SOL     OW83948   3.471  10.660   7.200 -0.4914  0.3903 -0.6082
55319SOL    HW183949   3.448  10.722   7.130 -1.3885  1.6276  0.7187
55319SOL    HW283950   3.514  10.588   7.155 -0.1753  1.5877 -2.3250
55320SOL     OW83951   7.489   1.542  11.300 -0.5561  0.5794  0.2460
55320SOL    HW183952   7.508   1.523  11.392  0.4629  2.2766  0.4279
55320SOL    HW283953   7.572   1.532  11.255 -1.2364 -1.1582 -0.7083
55321SOL     OW83954   8.494   8.833   0.796 -0.1548  0.3686 -0.6629
55321SOL    HW183955   8.576   8.837   0.844 -2.0588 -0.5008  3.0095
55321SOL    HW283956   8.485   8.741   0.770 -0.9336 -0.0408  0.9494
55322SOL     OW83957   4.431   0.017   1.045  0.1304  0.3165 -0.2317
55322SOL    HW183958   4.419  -0.027   1.129 -2.2858  1.3887  0.0707
55322SOL    HW283959   4.342   0.029   1.012  0.9415  1.4558 -2.1459
55323SOL     OW83960   7.052   5.913   3.285 -0.4623 -0.4065 -0.6187
55323SOL    HW183961   7.096   5.828   3.291  1.2535  0.4771 -0.0462
55323SOL    HW283962   7.118   5.977   3.312 -1.4668  1.2073 -1.7866
55324SOL     OW83963  11.242   0.726   9.595 -0.1474  0.4558 -0.3493
55324SOL    HW183964  11.320   0.674   9.578 -0.6482 -0.5235  0.2411
55324SOL    HW283965  11.241   0.737   9.690 -0.5043  0.8269 -0.3951
55325SOL     OW83966   9.113   6.529   5.916  0.3979  0.3825  0.7438
55325SOL    HW183967   9.125   6.440   5.950 -1.0939  0.2993  1.1416
55325SOL    HW283968   9.191   6.576   5.945  1.0503 -0.7037  0.8243
55326SOL     OW83969  10.601   8.080  11.308  0.0744 -0.6131  0.4889
55326SOL    HW183970  10.663   8.030  11.255  0.3879 -0.8114  1.0457
55326SOL    HW283971  10.647   8.161  11.330  0.1163 -0.7363  0.8566
55327SOL     OW83972   9.037   4.358   0.325 -0.4994 -0.3695  0.2178
55327SOL    HW183973   9.055   4.452   0.312 -0.4713 -0.5226 -0.9696
55327SOL    HW283974   9.067   4.317   0.244 -0.7115 -1.3845  0.6447
55328SOL     OW83975   2.113   0.513   6.969  0.0337 -0.0566 -0.2493
55328SOL    HW183976   2.086   0.426   6.999 -0.3071  0.4666  1.0441
55328SOL    HW283977   2.104   0.509   6.874 -0.8251 -1.1634 -0.1492
55329SOL     OW83978   0.881  10.095   5.674 -0.1764  0.3505 -0.6434
55329SOL    HW183979   0.941  10.079   5.601 -1.6832 -0.2140 -1.7961
55329SOL    HW283980   0.913  10.176   5.714  1.5014 -0.0714 -1.0485
55330SOL     OW83981   2.052   3.747  13.796  0.2383 -0.7018 -0.2726
55330SOL    HW183982   2.084   3.765  13.707  2.5282 -3.9519 -0.3266
55330SOL    HW283983   1.996   3.670  13.785  0.1592 -0.8410  1.0233
55331SOL     OW83984  11.879  13.806   6.475 -0.7011 -0.0374  0.6043
55331SOL    HW183985  11.944  13.838   6.412 -2.0934  0.1717 -0.8167
55331SOL    HW283986  11.883  13.711   6.467 -0.0556 -0.0581  1.0947
55332SOL     OW83987  12.387   4.075  12.147  0.0506 -0.1417  0.3812
55332SOL    HW183988  12.426   3.988  12.151 -1.0850 -0.6647  0.2704
55332SOL    HW283989  12.451   4.132  12.191  0.6141 -1.0874  0.8061
55333SOL     OW83990  13.438  14.145   2.593 -0.4366  0.0584  0.1712
55333SOL    HW183991  13.446  14.066   2.540  2.7295  0.4173 -0.0914
55333SOL    HW283992  13.378  14.201   2.542 -1.2456 -1.4133 -0.5706
55334SOL     OW83993   2.851  10.325   6.428 -0.1520 -0.0187  0.3704
55334SOL    HW183994   2.781  10.335   6.363 -0.9127  1.1712  1.3292
55334SOL    HW283995   2.864  10.231   6.434 -1.3313 -0.2370 -0.1923
55335SOL     OW83996  11.331  11.275   5.267 -0.2661  0.0459 -0.2835
55335SOL    HW183997  11.266  11.251   5.201 -0.0380  0.8934 -0.8409
55335SOL    HW283998  11.354  11.366   5.245 -0.2106  0.3592  0.9812
55336SOL     OW83999   3.891   8.725  12.986 -0.5819 -0.0925  0.2787
55336SOL    HW184000   3.868   8.770  12.905  0.2023  0.9260  0.6028
55336SOL    HW284001   3.813   8.673  13.008 -1.0615  0.1760 -0.7315
55337SOL     OW84002   3.136   0.895   5.137  0.2534  0.1047 -0.4331
55337SOL    HW184003   3.051   0.854   5.120  0.9192 -1.9057  0.6993
55337SOL    HW284004   3.198   0.845   5.084  0.8089  1.2879 -0.9328
55338SOL     OW84005   6.061   7.660   6.242 -0.6674 -0.5967 -0.2183
55338SOL    HW184006   6.093   7.626   6.158  0.3811 -0.5457  0.1489
55338SOL    HW284007   6.000   7.593   6.273 -0.7266 -0.8234 -0.8140
55339SOL     OW84008  11.508   3.671   3.296  0.4060 -1.0605  0.2382
55339SOL    HW184009  11.459   3.696   3.218  1.1367 -0.7132 -0.1162
55339SOL    HW284010  11.450   3.611   3.342  0.4630 -2.3276 -1.2480
55340SOL     OW84011   0.198   6.206  10.023  0.2168  0.3135  0.1162
55340SOL    HW184012   0.270   6.269  10.028  0.9274 -0.5257  0.6878
55340SOL    HW284013   0.231   6.136   9.968 -0.4617  0.2783 -0.2610
55341SOL     OW84014  13.096   6.840  11.333  0.7559  0.4004  0.0709
55341SOL    HW184015  13.190   6.841  11.313  1.0947 -0.0887  1.5500
55341SOL    HW284016  13.054   6.842  11.247  2.1267 -1.1244 -0.6947
55342SOL     OW84017   0.610   5.533   7.317 -0.1604  0.2556 -0.8421
55342SOL    HW184018   0.560   5.596   7.266  2.0215  1.0255 -2.1301
55342SOL    HW284019   0.617   5.456   7.260 -0.3217 -0.0603 -0.4439
55343SOL     OW84020   5.463   3.105   5.402 -0.1307  0.1793  0.6088
55343SOL    HW184021   5.527   3.135   5.337 -0.4756  1.2069  0.7374
55343SOL    HW284022   5.469   3.009   5.399  0.6200  0.2445 -0.1695
55344SOL     OW84023   3.841   0.134   1.507  0.3430 -0.3375 -0.5619
55344SOL    HW184024   3.787   0.147   1.585  2.8010 -0.3371  1.2523
55344SOL    HW284025   3.826   0.042   1.484 -0.8646 -0.1794 -0.5027
55345SOL     OW84026   9.264   8.023   4.888  0.2893 -0.5132 -0.4868
55345SOL    HW184027   9.256   8.029   4.793 -1.5516 -1.5952 -0.4307
55345SOL    HW284028   9.192   8.076   4.922  0.0090 -1.3744  0.2870
55346SOL     OW84029  13.624   6.868   8.559 -0.6879 -0.0419  0.3175
55346SOL    HW184030  13.547   6.822   8.525  0.3626  0.6941 -3.5496
55346SOL    HW284031  13.588   6.951   8.593 -1.8627 -0.9110  1.2812
55347SOL     OW84032  11.464   5.811   7.823  0.1515  0.0163 -1.3066
55347SOL    HW184033  11.514   5.730   7.811  0.2670 -0.0159 -0.6376
55347SOL    HW284034  11.414   5.820   7.742  0.1223 -0.7340 -1.3814
55348SOL     OW84035   9.808  10.668  11.274  0.1175 -0.2773 -0.0755
55348SOL    HW184036   9.867  10.721  11.221  0.3290 -0.0631  0.3765
55348SOL    HW284037   9.864  10.625  11.338 -0.1404 -0.5316 -0.0167
55349SOL     OW84038   1.594   7.826   0.516  0.3232 -0.1066 -0.3739
55349SOL    HW184039   1.527   7.849   0.580  0.7589  0.9166 -0.2666
55349SOL    HW284040   1.661   7.781   0.566 -0.7656 -2.1999 -0.6673
55350SOL     OW84041   1.970   0.704   7.575  0.4327  0.0168 -0.0788
55350SOL    HW184042   2.056   0.699   7.617  0.2348 -1.2298  0.2079
55350SOL    HW284043   1.964   0.624   7.522 -1.0373 -0.5330  0.8686
55351SOL     OW84044  13.868   8.149  13.489  0.1493  0.3497 -0.3892
55351SOL    HW184045  13.815   8.152  13.409 -2.1090  2.1519  1.0431
55351SOL    HW284046  13.941   8.207  13.472  1.1259 -1.2268 -1.9738
55352SOL     OW84047  14.083   7.766   4.237 -0.4376  0.0159  0.3959
55352SOL    HW184048  14.005   7.762   4.182  0.0208 -1.6773 -0.1824
55352SOL    HW284049  14.151   7.803   4.181 -0.8571  1.8136  1.0013
55353SOL     OW84050   6.061   0.371  11.772 -0.3938 -0.3202 -0.4240
55353SOL    HW184051   6.130   0.389  11.709 -0.3970 -0.8439 -0.5781
55353SOL    HW284052   5.992   0.433  11.750 -1.1245 -1.6533 -2.0901
55354SOL     OW84053   7.883   7.282   5.049  0.1668  0.2030 -0.3730
55354SOL    HW184054   7.944   7.329   5.106 -0.8579 -1.0923  1.9492
55354SOL    HW284055   7.797   7.319   5.070 -0.1782  0.0925 -1.5302
55355SOL     OW84056   0.110  13.681   8.711 -0.1236  0.3611  0.0866
55355SOL    HW184057   0.107  13.585   8.713  0.1225  0.3643  0.7719
55355SOL    HW284058   0.135  13.702   8.621  0.3134 -0.2344  0.0604
55356SOL     OW84059  13.745  12.933   6.754  0.4298 -0.4375 -0.0762
55356SOL    HW184060  13.802  12.990   6.806  1.1118  0.8855 -2.1538
55356SOL    HW284061  13.791  12.849   6.752  1.2191 -0.0164  0.0780
55357SOL     OW84062   9.128   7.342  11.118 -0.4096 -0.2915 -0.7329
55357SOL    HW184063   9.117   7.431  11.084 -2.5954  0.0789  0.7232
55357SOL    HW284064   9.205   7.347  11.174 -0.0367  0.4864 -1.2940
55358SOL     OW84065   1.913   5.217   4.170 -0.2448  0.0985 -0.6690
55358SOL    HW184066   1.866   5.282   4.221  1.6234  0.3093  0.9068
55358SOL    HW284067   1.905   5.136   4.221  0.8381  0.0851 -0.4978
55359SOL     OW84068   2.280   9.190   0.381 -0.7168 -0.0324  0.4553
55359SOL    HW184069   2.222   9.249   0.333  0.4056  1.4152  0.8321
55359SOL    HW284070   2.281   9.224   0.470  2.5036  1.4673 -0.0224
55360SOL     OW84071  13.968   0.007  12.280  0.4054  0.0075 -0.1259
55360SOL    HW184072  14.045  -0.048  12.290  0.0844 -0.5995 -0.8604
55360SOL    HW284073  14.002   0.095  12.261  0.9368  0.2676  1.8485
55361SOL     OW84074   6.829  13.005   9.479 -0.1309 -0.5140  0.4865
55361SOL    HW184075   6.849  13.049   9.561  2.2388  0.4019 -0.4920
55361SOL    HW284076   6.739  13.029   9.460  0.0564  1.2795  1.6080
55362SOL     OW84077  11.305   1.211  13.783  0.0076 -0.5278  0.2142
55362SOL    HW184078  11.368   1.178  13.847 -0.0119 -0.9663  0.0139
55362SOL    HW284079  11.341   1.295  13.755  0.3867 -0.6695  0.2676
55363SOL     OW84080   5.383  11.085  10.070  0.8973  0.9108 -0.4476
55363SOL    HW184081   5.375  11.180  10.078  1.9901  0.9997 -0.3024
55363SOL    HW284082   5.427  11.057  10.150 -1.3854 -0.0191  0.5524
55364SOL     OW84083   1.464  12.861   0.662  0.2020  0.0940 -0.0590
55364SOL    HW184084   1.473  12.873   0.567  0.0861 -0.7073 -0.1811
55364SOL    HW284085   1.517  12.783   0.681  1.9236  1.4479  0.8759
55365SOL     OW84086   1.343   4.883   0.651  0.5437 -0.0691  0.0291
55365SOL    HW184087   1.377   4.805   0.607  0.5167  0.5399 -1.0803
55365SOL    HW284088   1.248   4.875   0.645  0.5477  0.8476 -1.5335
55366SOL     OW84089   8.570  13.648  14.015 -0.1315 -0.2549 -0.2920
55366SOL    HW184090   8.615  13.590  14.077  0.5407  0.7260  0.1651
55366SOL    HW284091   8.493  13.598  13.987  1.3801 -2.1079 -1.3496
55367SOL     OW84092  13.473   7.709   8.400  0.0002  0.4089  0.6493
55367SOL    HW184093  13.517   7.783   8.443  0.9789  0.3102 -0.1419
55367SOL    HW284094  13.525   7.694   8.321 -0.4535 -0.8510  0.5806
55368SOL     OW84095  10.116  14.128   8.013 -0.3499 -0.2299 -0.2706
55368SOL    HW184096  10.208  14.102   8.004 -0.1413  0.4746 -0.2077
55368SOL    HW284097  10.072  14.088   7.938  0.0423 -0.4111 -0.4054
55369SOL     OW84098  11.328   7.911  11.468  0.6883 -0.0587 -0.6568
55369SOL    HW184099  11.303   7.821  11.486 -0.4088  0.1315 -1.1365
55369SOL    HW284100  11.367   7.910  11.381 -0.3825  0.0887 -1.1568
55370SOL     OW84101   4.314  11.365   5.337  0.0247  0.7905 -0.4515
55370SOL    HW184102   4.240  11.418   5.369 -1.2536 -0.3021 -1.4754
55370SOL    HW284103   4.305  11.281   5.382  0.8016  0.7212 -0.4114
55371SOL     OW84104  13.269   2.001   3.498  0.1916 -0.2599 -0.9194
55371SOL    HW184105  13.189   1.962   3.534  0.0716 -0.2588 -1.1854
55371SOL    HW284106  13.335   1.932   3.507  0.4264  0.0920  0.2644
55372SOL     OW84107   6.608   4.461   8.292 -0.4823 -0.7265  0.2032
55372SOL    HW184108   6.523   4.440   8.253  0.4412 -2.2424 -1.0842
55372SOL    HW284109   6.662   4.489   8.218 -0.4790  2.6097  1.3034
55373SOL     OW84110   0.778   4.624  13.273  0.2674  0.9091  0.6840
55373SOL    HW184111   0.836   4.588  13.341  0.6112 -0.5902 -0.3319
55373SOL    HW284112   0.738   4.700  13.313  0.9976  0.4806  2.3211
55374SOL     OW84113   3.125   8.953   4.526  0.3845  0.0508 -0.4075
55374SOL    HW184114   3.089   9.033   4.564 -0.6234 -0.8417  0.5874
55374SOL    HW284115   3.213   8.978   4.498  0.1415  1.4715 -0.0186
55375SOL     OW84116  12.172  11.239   8.051  0.0716 -0.1205  0.0804
55375SOL    HW184117  12.233  11.216   8.120 -2.4282  1.6877  3.1767
55375SOL    HW284118  12.139  11.156   8.019  0.0274 -1.0653  2.3938
55376SOL     OW84119  11.009  11.999   5.336 -0.0078  0.3106  0.6748
55376SOL    HW184120  10.997  11.944   5.259 -0.6696  0.5669  0.5843
55376SOL    HW284121  10.920  12.010   5.371  0.2318  0.5653  1.2136
55377SOL     OW84122   9.698   5.919  11.667 -0.1198 -0.1466  0.5307
55377SOL    HW184123   9.694   5.955  11.756 -0.1316 -0.8415  0.8195
55377SOL    HW284124   9.776   5.958  11.629 -1.0407  1.4924  0.2424
55378SOL     OW84125   6.025   0.449  10.535 -0.3488  0.4382  0.0779
55378SOL    HW184126   6.031   0.358  10.508  0.3978  0.7219 -0.7531
55378SOL    HW284127   5.988   0.494  10.460 -0.6499  0.8331  0.4584
55379SOL     OW84128  10.922   0.292   1.294  0.2850  0.0891  0.8032
55379SOL    HW184129  10.989   0.226   1.279  0.0662 -0.0129  0.2490
55379SOL    HW284130  10.918   0.301   1.389  1.2644  0.2856  0.8335
55380SOL     OW84131   9.111   2.863   9.999  0.3230 -0.2896  0.3636
55380SOL    HW184132   9.206   2.877  10.001  0.3426 -0.3047 -0.2101
55380SOL    HW284133   9.082   2.882  10.088  0.9700 -1.0648  0.7482
55381SOL     OW84134   0.644   5.610   2.192 -0.3714 -0.3270  0.3802
55381SOL    HW184135   0.600   5.583   2.111  0.0982  0.1486 -0.0401
55381SOL    HW284136   0.708   5.540   2.208  1.0327  0.6294 -0.8581
55382SOL     OW84137   6.655   9.473   2.762  0.7871 -0.0783  0.3477
55382SOL    HW184138   6.596   9.463   2.687  0.1135 -1.6941  1.0553
55382SOL    HW284139   6.654   9.567   2.780  0.6202  0.2958 -1.3646
55383SOL     OW84140  11.960   7.315   5.249  0.0979  0.1082 -0.6019
55383SOL    HW184141  11.952   7.220   5.258  2.4910 -0.1299 -0.3776
55383SOL    HW284142  12.010   7.328   5.168 -0.1666  1.1747 -0.6169
55384SOL     OW84143   9.830   9.648  11.263 -0.3449 -0.6252 -0.2151
55384SOL    HW184144   9.855   9.666  11.172 -0.0841 -0.2648 -0.0751
55384SOL    HW284145   9.739   9.678  11.269  0.1127  0.8056  0.0445
55385SOL     OW84146  12.937   0.598   2.114 -0.1449  0.4160 -0.4584
55385SOL    HW184147  13.003   0.667   2.105  0.1045  0.1471 -0.7117
55385SOL    HW284148  12.935   0.555   2.029 -0.8422  0.5916 -0.5278
55386SOL     OW84149  11.703   0.243  13.760 -0.2980 -0.5032  0.0885
55386SOL    HW184150  11.656   0.180  13.706  0.9895 -1.3172 -0.1308
55386SOL    HW284151  11.735   0.192  13.835  1.7910 -0.4244 -0.6920
55387SOL     OW84152  12.314   1.157   6.545  0.0260 -0.0665 -0.4637
55387SOL    HW184153  12.288   1.250   6.547 -1.2394 -0.3808 -1.0881
55387SOL    HW284154  12.301   1.131   6.454 -0.6179 -1.1244 -0.0845
55388SOL     OW84155   7.627  10.028  12.442 -0.0764 -0.3773  0.1398
55388SOL    HW184156   7.707   9.977  12.457 -0.7575 -1.6086 -0.2709
55388SOL    HW284157   7.583  10.029  12.528 -0.4798 -1.2516 -0.0445
55389SOL     OW84158   2.855  12.176   7.956 -0.1079 -0.3986  0.5668
55389SOL    HW184159   2.867  12.213   7.869  2.7080  0.1646  1.1000
55389SOL    HW284160   2.822  12.087   7.940  1.7382 -0.8371 -1.1711
55390SOL     OW84161   8.861   1.971  11.703 -0.4559  0.3497 -0.6934
55390SOL    HW184162   8.839   2.034  11.634  0.2479  0.2793 -0.9851
55390SOL    HW284163   8.940   2.006  11.744 -0.9839  0.5038  0.2334
55391SOL     OW84164   4.202  11.240   9.054 -0.7954 -0.1681  0.0966
55391SOL    HW184165   4.222  11.191   9.133 -2.2897 -0.5812  0.2435
55391SOL    HW284166   4.284  11.237   9.003 -0.5048 -1.8672  0.5911
55392SOL     OW84167  13.880   3.992   8.188  1.1261  0.2087 -0.1917
55392SOL    HW184168  13.922   3.995   8.102  1.4743 -0.0835 -0.0314
55392SOL    HW284169  13.799   3.942   8.173 -0.1782  2.4029 -0.9187
55393SOL     OW84170  11.567  12.009   7.498 -0.6390  0.2300 -0.2828
55393SOL    HW184171  11.624  11.988   7.424  0.1657 -0.6626  0.5601
55393SOL    HW284172  11.523  11.926   7.519  0.7298 -0.0984  1.5409
55394SOL     OW84173  13.161   2.993   3.911  0.0522 -0.2027 -0.1893
55394SOL    HW184174  13.088   2.977   3.850 -1.2293 -0.4880  1.3612
55394SOL    HW284175  13.211   2.911   3.909  0.4595  0.0490 -1.3880
55395SOL     OW84176  10.560   8.541  13.628 -0.6033  0.5497 -0.7130
55395SOL    HW184177  10.513   8.617  13.594 -2.2956 -0.6363 -1.2049
55395SOL    HW284178  10.527   8.530  13.717  1.4482  1.7775  0.2418
55396SOL     OW84179  11.990   4.247  10.667  0.0111  0.4368  0.0483
55396SOL    HW184180  11.917   4.309  10.665  1.0841  1.7397 -0.7673
55396SOL    HW284181  11.955   4.170  10.711 -2.3634  0.3391 -1.8370
55397SOL     OW84182   1.952  13.008   7.999 -0.2183 -0.7966  0.4729
55397SOL    HW184183   1.864  13.046   7.993  0.0148  0.0742  2.0735
55397SOL    HW284184   1.952  12.959   8.081  1.1117  0.1156  1.0575
55398SOL     OW84185   5.015   9.174   4.953  0.1222  0.1059 -0.0041
55398SOL    HW184186   4.947   9.212   5.009  1.5264  2.0188  0.4613
55398SOL    HW284187   5.091   9.229   4.966  1.0300 -0.4462 -2.4970
55399SOL     OW84188  10.977   1.581   7.562  0.2176 -0.4958  0.0445
55399SOL    HW184189  10.971   1.614   7.473  0.0006  0.1844  0.3058
55399SOL    HW284190  10.944   1.652   7.617  0.8103 -0.7149  0.7052
55400SOL     OW84191  14.132   7.072  14.151 -0.5194 -0.0158  0.3142
55400SOL    HW184192  14.189   7.015  14.204 -1.2041  0.2567  1.3641
55400SOL    HW284193  14.046   7.031  14.156 -0.7984  0.5513  0.2051
55401SOL     OW84194   1.259   2.501   9.189  0.3134  0.1049  0.4543
55401SOL    HW184195   1.244   2.406   9.189 -2.2316  0.4233 -0.4541
55401SOL    HW284196   1.289   2.520   9.278 -2.1628 -1.2248  1.6977
55402SOL     OW84197   1.604  11.235  10.807 -0.6180  0.1745 -0.2419
55402SOL    HW184198   1.567  11.318  10.774 -0.9896  0.2967  0.4518
55402SOL    HW284199   1.565  11.168  10.752 -2.6534  0.2197  1.0522
55403SOL     OW84200   3.616  13.470   4.868  0.6217 -0.6498 -0.1644
55403SOL    HW184201   3.556  13.409   4.823  0.0410  0.7628 -1.3919
55403SOL    HW284202   3.694  13.471   4.812  0.8253 -0.6278  0.1199
55404SOL     OW84203  13.055  10.864   3.658 -0.1734 -0.2311 -0.4918
55404SOL    HW184204  12.992  10.807   3.700 -0.9502  0.9003 -0.0761
55404SOL    HW284205  13.131  10.865   3.717  1.0571 -2.9753 -1.8132
55405SOL     OW84206   9.069  12.068   9.277  0.0330 -0.1921 -0.7667
55405SOL    HW184207   9.035  12.084   9.365 -0.0694 -0.8943 -0.6755
55405SOL    HW284208   9.164  12.065   9.289  0.0313 -0.0601 -0.7187
55406SOL     OW84209   8.310   5.806  10.383  0.1412  0.5565 -0.1987
55406SOL    HW184210   8.347   5.860  10.453 -0.2079  0.0095  0.4259
55406SOL    HW284211   8.369   5.819  10.309  0.5914  1.0541  0.2383
55407SOL     OW84212  12.845   0.247  13.118  0.2013 -0.2777  0.5866
55407SOL    HW184213  12.908   0.262  13.189  0.6681  3.1768 -0.4013
55407SOL    HW284214  12.760   0.243  13.162  0.7107 -1.0352  1.5586
55408SOL     OW84215   3.116  12.321   4.037 -0.0556 -0.3749  0.1531
55408SOL    HW184216   3.198  12.357   4.003 -1.4273  1.3281 -1.5549
55408SOL    HW284217   3.143  12.262   4.107  2.7061 -1.0586 -1.3501
55409SOL     OW84218   5.475   3.583   6.373  0.0260 -0.1082 -0.6734
55409SOL    HW184219   5.471   3.555   6.281  0.1429 -0.6752 -0.5083
55409SOL    HW284220   5.384   3.605   6.394 -0.3782 -1.9057 -0.3479
55410SOL     OW84221  11.762   5.536   5.494  0.2845  0.9218 -0.1304
55410SOL    HW184222  11.816   5.584   5.432 -1.0622  1.0685 -1.2459
55410SOL    HW284223  11.672   5.563   5.475 -0.4319 -1.1571 -0.0487
55411SOL     OW84224  12.291   0.945   3.844 -0.0680  0.5691 -0.3627
55411SOL    HW184225  12.331   1.002   3.778  0.7989  0.4621  0.0609
55411SOL    HW284226  12.296   0.995   3.925 -0.5693  0.4478 -0.2517
55412SOL     OW84227   1.629   4.922   1.053 -0.7015  0.3727 -0.0172
55412SOL    HW184228   1.637   4.839   1.005 -3.2417 -0.2756  0.5461
55412SOL    HW284229   1.560   4.969   1.008 -0.2503  1.6049  0.5389
55413SOL     OW84230  12.982  10.584   1.108  0.3148  0.0379  0.2407
55413SOL    HW184231  13.052  10.580   1.173  0.6614  1.2823 -0.0293
55413SOL    HW284232  12.991  10.670   1.068 -2.2488  0.8471  1.1930
55414SOL     OW84233   5.711   7.874  12.477 -0.6148  0.2920  0.2871
55414SOL    HW184234   5.764   7.944  12.439  0.1683  0.7273  2.0594
55414SOL    HW284235   5.661   7.917  12.546 -1.7584 -0.5148 -0.0096
55415SOL     OW84236  12.546   5.214   9.065  0.1300  0.0458  0.1938
55415SOL    HW184237  12.557   5.241   8.974  0.0530 -0.6356 -0.0228
55415SOL    HW284238  12.634   5.188   9.092  0.2899  0.8962  0.5401
55416SOL     OW84239   8.755  11.345   3.679  0.8642  0.0063  0.3040
55416SOL    HW184240   8.828  11.399   3.709  0.2955 -0.5487  3.0275
55416SOL    HW284241   8.796  11.268   3.640  1.7667 -0.1560  1.5074
55417SOL     OW84242   8.167  12.435   7.814 -0.3738  0.2576  0.1701
55417SOL    HW184243   8.157  12.454   7.721 -2.4719  1.2278  0.5439
55417SOL    HW284244   8.201  12.345   7.816 -0.4048  0.1694 -1.5075
55418SOL     OW84245  10.887   1.137  11.499 -0.3019 -0.3144 -0.2688
55418SOL    HW184246  10.974   1.149  11.536 -0.3066  2.1809 -0.9299
55418SOL    HW284247  10.899   1.071  11.430  0.8381 -0.7294  0.3007
55419SOL     OW84248   2.926   9.031   7.985 -0.4393 -0.6082  0.7085
55419SOL    HW184249   2.986   9.013   8.057 -0.3087 -1.4813  0.3997
55419SOL    HW284250   2.970   9.097   7.932  1.3809 -2.8056 -0.7550
55420SOL     OW84251   8.305  12.013   4.149 -0.5905  0.2934  0.0450
55420SOL    HW184252   8.264  11.932   4.178 -0.2039  0.0861  0.0248
55420SOL    HW284253   8.327  11.998   4.057 -0.1818  0.2797  0.1420
55421SOL     OW84254  13.304   1.878   2.453  0.7404  0.0281  0.2154
55421SOL    HW184255  13.286   1.972   2.458  2.7479  0.4117  1.7500
55421SOL    HW284256  13.370   1.870   2.385 -0.9561 -0.6063 -1.4236
55422SOL     OW84257   4.665  10.522  11.843 -0.0184  0.1606  0.3087
55422SOL    HW184258   4.637  10.475  11.764 -0.8915  1.0034  0.0857
55422SOL    HW284259   4.701  10.455  11.900 -1.0844 -0.7511 -0.0583
55423SOL     OW84260   6.004   0.238   2.011 -0.3082  0.5541  0.3312
55423SOL    HW184261   6.071   0.286   1.963 -1.0778  0.2453 -1.0960
55423SOL    HW284262   5.924   0.251   1.961 -0.8020 -1.1346  0.6135
55424SOL     OW84263   0.325   2.744   3.698  0.4310  0.2444  0.1911
55424SOL    HW184264   0.328   2.743   3.602  0.3549  0.9135  0.1799
55424SOL    HW284265   0.403   2.793   3.724  1.1783 -1.0489  0.5242
55425SOL     OW84266   0.137   0.471   4.873  0.1890  0.0114 -0.4128
55425SOL    HW184267   0.164   0.448   4.784 -1.0522 -0.5907 -0.6530
55425SOL    HW284268   0.068   0.536   4.861 -0.3663 -0.4713  0.0769
55426SOL     OW84269   8.083   4.105   6.354 -0.4092  0.5601  0.0733
55426SOL    HW184270   8.091   4.116   6.260 -2.9881  1.5854 -0.1139
55426SOL    HW284271   8.112   4.188   6.391  1.2437 -0.0707  0.2914
55427SOL     OW84272   4.080   2.852   8.549 -0.2981  0.3233 -0.1393
55427SOL    HW184273   4.040   2.919   8.494 -0.6079  1.1859  1.1190
55427SOL    HW284274   4.155   2.821   8.498  0.6215  2.5315 -0.2101
55428SOL     OW84275   7.393   9.915  12.903  0.3538 -0.0865  0.2409
55428SOL    HW184276   7.468   9.856  12.911  0.1355 -1.0753 -3.4275
55428SOL    HW284277   7.317   9.856  12.899 -0.4246  0.7812  1.3441
55429SOL     OW84278  13.665   3.771  12.606  0.3650 -0.0426 -0.0597
55429SOL    HW184279  13.721   3.698  12.582  1.6752  0.6539  0.7889
55429SOL    HW284280  13.709   3.848  12.570 -1.1891  0.3451 -1.2876
55430SOL     OW84281   3.980   4.420   0.875  0.1650 -0.7225 -0.2403
55430SOL    HW184282   3.993   4.379   0.960  0.9199 -1.4758 -0.6999
55430SOL    HW284283   3.974   4.347   0.813 -0.4429 -0.1921 -0.8311
55431SOL     OW84284  12.795   0.084   6.801 -0.6917  0.4989 -0.2665
55431SOL    HW184285  12.864   0.117   6.860 -0.2979  0.5843 -0.7635
55431SOL    HW284286  12.813   0.127   6.718 -1.9196  1.2592 -0.1658
55432SOL     OW84287  13.311  13.803  12.431 -0.2802  0.4252  0.3535
55432SOL    HW184288  13.393  13.842  12.400 -0.3861 -1.1421 -2.2056
55432SOL    HW284289  13.337  13.719  12.469 -0.7022 -0.3669 -1.0420
55433SOL     OW84290   7.008   6.970   8.833 -0.3084 -0.2546  0.3363
55433SOL    HW184291   6.948   7.033   8.873  1.9100  0.7935  2.2552
55433SOL    HW284292   7.094   6.994   8.868  1.3236 -1.4498 -2.5313
55434SOL     OW84293   2.919  11.499   3.703 -0.3877 -0.0885  0.2470
55434SOL    HW184294   2.973  11.437   3.752  0.9436 -1.1135 -2.3037
55434SOL    HW284295   2.844  11.447   3.674 -0.7529  0.2816  0.5316
55435SOL     OW84296   7.513  11.129   5.281 -0.4511  0.1460  0.0425
55435SOL    HW184297   7.491  11.090   5.366 -0.4256  0.6464  0.2833
55435SOL    HW284298   7.443  11.099   5.222 -1.5494  1.3328  0.6874
55436SOL     OW84299  10.209   7.555   5.317 -0.0053 -0.0164 -0.0611
55436SOL    HW184300  10.169   7.521   5.397  0.2672 -0.4347 -0.0955
55436SOL    HW284301  10.144   7.539   5.249  0.8272 -2.2213 -0.4243
55437SOL     OW84302  12.358  12.314   9.121 -0.5382 -0.0946 -0.3664
55437SOL    HW184303  12.284  12.321   9.180  0.5673  0.7165  0.9851
55437SOL    HW284304  12.418  12.383   9.149 -0.0039  0.4062 -2.5218
55438SOL     OW84305  12.894   2.566   1.829  0.1051  0.3075 -0.2842
55438SOL    HW184306  12.872   2.605   1.744 -2.7609  3.3764  1.6110
55438SOL    HW284307  12.849   2.482   1.830  1.2635 -0.4076 -2.1934
55439SOL     OW84308   4.818   5.818   8.081 -0.2774  0.0384  0.3092
55439SOL    HW184309   4.824   5.908   8.049 -0.5391 -0.2798 -0.6706
55439SOL    HW284310   4.847   5.764   8.008 -0.9042 -0.7162  0.6001
55440SOL     OW84311   3.854   7.891   0.822  0.2727  0.5916  0.2374
55440SOL    HW184312   3.869   7.980   0.851  0.5800  0.6829 -0.1921
55440SOL    HW284313   3.922   7.839   0.865 -0.1621  0.4915  0.8196
55441SOL     OW84314   7.613   9.650   1.490  0.0538 -0.5522  0.2384
55441SOL    HW184315   7.618   9.745   1.480  2.9277 -0.4375  1.6014
55441SOL    HW284316   7.599   9.617   1.401 -0.0264  1.0983 -0.3945
55442SOL     OW84317  12.948   9.490   6.075 -0.3072  0.3139  0.3796
55442SOL    HW184318  12.879   9.458   6.133 -0.9024 -1.4018 -1.1584
55442SOL    HW284319  12.945   9.586   6.085  0.3149  0.0965  3.8297
55443SOL     OW84320   6.083  11.312   7.781  0.6021  0.3010 -0.4881
55443SOL    HW184321   6.119  11.228   7.811  0.9391  0.5798 -0.1069
55443SOL    HW284322   5.996  11.316   7.821  1.2645  0.9329  0.9686
55444SOL     OW84323   2.978   5.503  12.395 -0.2548  0.2672 -0.2372
55444SOL    HW184324   2.902   5.560  12.378 -0.2232  0.9962  1.7813
55444SOL    HW284325   2.945   5.414  12.384 -1.1784  0.6032 -0.2545
55445SOL     OW84326  11.279  12.711   3.127 -0.5727 -0.2671  0.0108
55445SOL    HW184327  11.207  12.660   3.090 -0.8529 -2.0108  2.6769
55445SOL    HW284328  11.236  12.784   3.172 -0.9484 -1.9788  2.6626
55446SOL     OW84329   9.183   8.311   0.822 -0.1838  0.9102 -0.3409
55446SOL    HW184330   9.135   8.354   0.893 -1.9489 -0.1648 -0.8164
55446SOL    HW284331   9.115   8.280   0.763  1.0648 -1.3211 -0.7226
55447SOL     OW84332   6.909   6.719   0.080  0.4508  0.1251 -0.4390
55447SOL    HW184333   6.949   6.803   0.104  2.3431 -0.6771 -0.6310
55447SOL    HW284334   6.889   6.728  -0.013  0.8791  0.2957 -0.5196
55448SOL     OW84335  13.417  11.931   3.420  0.0244 -0.4319 -0.3017
55448SOL    HW184336  13.330  11.893   3.407 -1.0386  0.6592  2.8427
55448SOL    HW284337  13.402  12.025   3.423  1.1234 -0.2647  1.2166
55449SOL     OW84338   3.945   4.581   6.300 -0.6283  0.0713 -0.1840
55449SOL    HW184339   3.901   4.655   6.341 -0.3222 -0.2498  0.7498
55449SOL    HW284340   3.874   4.528   6.263 -1.1645 -0.8423  1.9653
55450SOL     OW84341   4.482  14.145   7.733  0.1459 -0.1110  0.5471
55450SOL    HW184342   4.536  14.204   7.786 -0.5022 -0.1617  1.2825
55450SOL    HW284343   4.534  14.064   7.728  0.6684  0.2371  0.2305
55451SOL     OW84344  13.359   2.737  10.244 -0.0122  0.3161 -0.2970
55451SOL    HW184345  13.412   2.815  10.262  1.2119 -0.4692 -0.3399
55451SOL    HW284346  13.271   2.761  10.272 -0.2425  2.5988 -2.6188
55452SOL     OW84347   1.837  11.342   5.336  0.0903 -0.8078 -0.1305
55452SOL    HW184348   1.910  11.388   5.294  0.0400 -1.7560 -1.3047
55452SOL    HW284349   1.836  11.256   5.295 -1.4352 -0.9529  0.1540
55453SOL     OW84350   0.597   1.306   5.060 -0.0321  0.2251  0.2173
55453SOL    HW184351   0.535   1.298   5.133 -1.0853  0.4229 -0.6176
55453SOL    HW284352   0.569   1.239   4.998  0.3812  0.5427 -0.3186
55454SOL     OW84353   7.573   7.490  13.079  0.6257  0.1252 -0.4919
55454SOL    HW184354   7.548   7.501  12.987 -0.0658  0.3613 -0.2788
55454SOL    HW284355   7.569   7.396  13.094 -0.3785  0.1739 -0.3983
55455SOL     OW84356  12.530   1.150   8.461 -0.2573  0.5824 -0.3293
55455SOL    HW184357  12.452   1.100   8.436 -0.2497  0.9459 -1.1151
55455SOL    HW284358  12.591   1.136   8.389  0.6095 -0.1142  0.5172
55456SOL     OW84359  10.563   2.841   1.904 -0.3077  0.6054 -0.2990
55456SOL    HW184360  10.483   2.797   1.878 -1.7911  3.8432 -1.6915
55456SOL    HW284361  10.549   2.864   1.996 -2.1086  3.1981 -1.1397
55457SOL     OW84362   6.616   5.172   7.208 -0.2822  0.2806  0.0626
55457SOL    HW184363   6.594   5.242   7.146  3.6413  1.0933 -0.6920
55457SOL    HW284364   6.662   5.216   7.279  0.4733 -1.3000  0.5962
55458SOL     OW84365  13.315   9.413   6.705  0.0084  0.1221  0.0241
55458SOL    HW184366  13.271   9.457   6.632 -1.3112 -1.7071 -0.3671
55458SOL    HW284367  13.259   9.432   6.781 -0.2898 -0.4798 -0.0473
55459SOL     OW84368  10.064   8.211   8.252  0.4585 -0.6605 -0.1825
55459SOL    HW184369  10.123   8.229   8.178 -1.1147  3.6028 -0.6729
55459SOL    HW284370  10.079   8.284   8.312 -1.2005 -1.8782  1.8169
55460SOL     OW84371   2.424  10.300   3.865  0.4561 -0.5185  0.0821
55460SOL    HW184372   2.508  10.255   3.856  0.3962 -0.7160  0.4665
55460SOL    HW284373   2.409  10.303   3.960  0.0759 -0.4000  0.0188
55461SOL     OW84374   7.523   6.947   9.490  0.4088  0.1630 -0.0291
55461SOL    HW184375   7.535   6.862   9.534 -2.2051  0.0015  0.5573
55461SOL    HW284376   7.553   6.932   9.401  2.7789 -0.4796  0.8127
55462SOL     OW84377   3.602   9.097   8.125 -0.2252  0.0371  0.2517
55462SOL    HW184378   3.581   9.132   8.039 -0.3690  0.6297  0.5184
55462SOL    HW284379   3.593   9.172   8.184  0.1615 -0.2884  0.7382
55463SOL     OW84380   0.619  10.216   6.079 -0.5192  0.0757 -0.0089
55463SOL    HW184381   0.666  10.282   6.130  0.1759  0.2374 -0.8180
55463SOL    HW284382   0.688  10.157   6.049 -0.9873 -0.3378 -0.2716
55464SOL     OW84383  12.887   2.142  10.666 -0.1767 -0.1080 -0.0445
55464SOL    HW184384  12.944   2.211  10.631  0.1963 -1.0289 -1.3022
55464SOL    HW284385  12.831   2.188  10.729  2.3307  0.7315  1.7354
55465SOL     OW84386   4.764   5.332   6.970 -0.2751 -0.1308  0.5842
55465SOL    HW184387   4.699   5.313   7.037  2.1590  0.4459  3.2724
55465SOL    HW284388   4.814   5.250   6.961 -1.2408 -0.5706 -1.4579
55466SOL     OW84389  14.148   1.248  13.300  0.2380  0.3373  0.8149
55466SOL    HW184390  14.125   1.254  13.207  1.8318  0.6494  0.4191
55466SOL    HW284391  14.217   1.183  13.304 -0.6764 -0.6007  1.9778
55467SOL     OW84392   5.471   8.254   5.981 -0.3805  0.5231  0.2785
55467SOL    HW184393   5.432   8.251   6.069 -0.3431  1.0930  0.3159
55467SOL    HW284394   5.534   8.325   5.985 -0.4703  0.6383 -0.2509
55468SOL     OW84395   2.383   0.659  13.024 -0.0868  0.0110 -0.1870
55468SOL    HW184396   2.304   0.615  12.994  1.2032 -1.5907 -1.4595
55468SOL    HW284397   2.363   0.752  13.018 -2.5514 -0.3311  1.5416
55469SOL     OW84398  11.514   2.565   8.501 -0.2341 -0.0463  0.4123
55469SOL    HW184399  11.599   2.609   8.490 -1.4138  1.9571 -1.7571
55469SOL    HW284400  11.516   2.493   8.438 -0.9471  1.5076 -1.5088
55470SOL     OW84401   5.898  13.053   1.105 -0.5656 -0.2893  0.0454
55470SOL    HW184402   5.975  12.999   1.123 -0.1348  0.1246 -0.4947
55470SOL    HW284403   5.906  13.127   1.165 -0.3115 -0.0377 -0.2894
55471SOL     OW84404   8.113   8.570   4.998  0.2449  0.3927  0.7210
55471SOL    HW184405   8.165   8.610   5.068 -0.6276  0.7725  1.1572
55471SOL    HW284406   8.112   8.636   4.928  0.8647  0.1319  0.4524
55472SOL     OW84407   9.134   7.223   2.559  0.0440  0.1263 -0.2765
55472SOL    HW184408   9.104   7.158   2.622  0.9096  1.7783  1.9692
55472SOL    HW284409   9.076   7.298   2.571  2.7562  2.1023  1.7682
55473SOL     OW84410   0.797  11.363   6.495 -0.2296 -0.0993  0.2948
55473SOL    HW184411   0.823  11.430   6.431  0.7207 -0.5699  0.1785
55473SOL    HW284412   0.790  11.282   6.445  0.0894 -0.3840  0.7009
55474SOL     OW84413   4.520   3.792   1.447 -0.2900  0.1045 -0.2165
55474SOL    HW184414   4.469   3.790   1.367 -0.8165 -0.7321  0.1265
55474SOL    HW284415   4.545   3.701   1.462  0.7364  0.4039 -0.0144
55475SOL     OW84416   7.027   4.111   1.340 -0.2020 -0.1340 -0.3376
55475SOL    HW184417   7.062   4.068   1.262  1.1841 -0.9108  0.6715
55475SOL    HW284418   7.055   4.202   1.332 -0.9537  0.0393 -1.2211
55476SOL     OW84419   2.857   5.352   0.776  0.5081  0.1311 -0.2237
55476SOL    HW184420   2.792   5.316   0.836  0.7507  0.3249  0.1600
55476SOL    HW284421   2.807   5.371   0.696 -0.4761  2.5730  0.8696
55477SOL     OW84422   7.519   9.264   4.759 -0.3941  0.0270 -0.4071
55477SOL    HW184423   7.436   9.223   4.736  0.4478 -2.1168  0.1769
55477SOL    HW284424   7.576   9.192   4.784  0.6605  1.6733  2.4168
55478SOL     OW84425  11.785   2.602   1.537  0.3138 -0.2990  0.3310
55478SOL    HW184426  11.824   2.537   1.597  0.0773 -0.2710  0.5171
55478SOL    HW284427  11.790   2.685   1.585 -1.5209 -0.5667  1.0898
55479SOL     OW84428   4.501   9.153   4.190  0.5262 -0.5196  0.1818
55479SOL    HW184429   4.551   9.226   4.227  1.6158 -1.1258 -0.0253
55479SOL    HW284430   4.546   9.075   4.223 -1.5681 -1.1675  1.7230
55480SOL     OW84431   5.018   7.721   6.371  0.6938  0.0575 -0.0639
55480SOL    HW184432   5.000   7.648   6.312 -0.9773  0.4721 -0.1208
55480SOL    HW284433   4.935   7.767   6.378  1.6590  1.8538  0.1306
55481SOL     OW84434   1.165   4.098  11.526 -0.4065  0.4655 -0.1147
55481SOL    HW184435   1.071   4.101  11.506 -0.8049  1.7095  1.6311
55481SOL    HW284436   1.179   4.011  11.562 -0.5821 -0.2048 -1.6022
55482SOL     OW84437  11.242   4.375  12.189  0.0741  0.2996 -0.5441
55482SOL    HW184438  11.326   4.380  12.145  1.0111 -0.7966  1.0214
55482SOL    HW284439  11.238   4.287  12.226 -0.6090  1.1154  1.5377
55483SOL     OW84440   1.056   1.147   3.479 -0.0936 -0.2096 -0.6556
55483SOL    HW184441   0.969   1.163   3.442  0.7317  0.7781 -2.2450
55483SOL    HW284442   1.057   1.199   3.559 -0.1195  1.8441 -1.9142
55484SOL     OW84443  11.014   8.937   2.539  0.3767  0.7008 -0.2819
55484SOL    HW184444  10.944   8.925   2.474  0.2686  0.4400 -0.1189
55484SOL    HW284445  10.979   8.897   2.619  0.9928 -0.0624 -0.3841
55485SOL     OW84446   3.414   4.541  11.310  0.7465  0.4283 -0.4618
55485SOL    HW184447   3.395   4.449  11.326 -0.2050  0.9427  1.7577
55485SOL    HW284448   3.358   4.564  11.236  3.4405 -1.4817 -3.3580
55486SOL     OW84449   1.754   8.925   8.048 -0.0139 -0.0270 -0.5393
55486SOL    HW184450   1.772   8.985   7.976  0.8329 -1.1471 -1.2968
55486SOL    HW284451   1.709   8.851   8.006 -1.7248  0.3735  0.4885
55487SOL     OW84452   7.409   8.572  10.408 -0.1206 -0.6575  0.7403
55487SOL    HW184453   7.314   8.567  10.418 -0.2716  0.9104  0.2480
55487SOL    HW284454   7.430   8.665  10.418  1.3956 -1.0029  1.0489
55488SOL     OW84455  13.143   9.693  11.684 -1.1013  0.2366  0.2269
55488SOL    HW184456  13.056   9.686  11.725 -0.3262  0.8011  2.0717
55488SOL    HW284457  13.173   9.602  11.679 -1.6450  0.0664 -0.0992
55489SOL     OW84458   3.584   3.610   7.420 -0.1322  0.7176  0.3029
55489SOL    HW184459   3.584   3.666   7.342  2.2712 -1.2176 -1.2671
55489SOL    HW284460   3.660   3.638   7.470 -0.4642  0.5782  0.9005
55490SOL     OW84461   0.710  11.096  11.799 -0.4629  0.3163  0.1399
55490SOL    HW184462   0.726  11.182  11.760  2.7681  1.4384  3.3531
55490SOL    HW284463   0.655  11.115  11.876  0.2693 -0.4199  0.8674
55491SOL     OW84464  12.035   3.258   7.183  0.3069 -0.2154  0.3936
55491SOL    HW184465  12.010   3.222   7.268  0.5240 -1.4582 -0.0553
55491SOL    HW284466  12.028   3.353   7.195 -1.8878 -0.4142  1.1186
55492SOL     OW84467   1.336   5.082   8.427 -0.3430 -0.4319 -0.5026
55492SOL    HW184468   1.359   5.160   8.478 -0.1669  1.3650 -3.1561
55492SOL    HW284469   1.387   5.091   8.346 -0.5808 -3.1662 -1.0401
55493SOL     OW84470   5.228   8.605   8.284  0.0624 -0.3863 -0.6090
55493SOL    HW184471   5.274   8.613   8.367 -0.0735 -0.9066 -0.4824
55493SOL    HW284472   5.170   8.681   8.280 -0.5161 -0.7808  0.1350
55494SOL     OW84473   0.694   9.641   7.590  0.2475 -0.2828  0.6760
55494SOL    HW184474   0.610   9.665   7.629  1.4915  3.3047  1.5086
55494SOL    HW284475   0.729   9.572   7.647 -1.9843 -1.7623  0.3704
55495SOL     OW84476  11.353  11.299   3.168 -0.4520  0.1832  0.3947
55495SOL    HW184477  11.394  11.344   3.242  1.7437 -0.5467 -0.2842
55495SOL    HW284478  11.356  11.206   3.192 -0.0286 -0.0271 -0.4532
55496SOL     OW84479  11.060   3.737   1.977 -0.3355 -0.1879  0.3503
55496SOL    HW184480  10.996   3.713   1.910 -0.7341 -0.5737  0.8629
55496SOL    HW284481  11.059   3.833   1.977  1.7996 -0.0146 -2.2137
55497SOL     OW84482  13.727  10.187  11.934  0.7283  0.0745 -0.0214
55497SOL    HW184483  13.751  10.253  11.869  0.8484  0.9895  0.9287
55497SOL    HW284484  13.655  10.139  11.894  1.2834  0.1232 -1.1374
55498SOL     OW84485   4.884  13.158   3.605 -0.0874 -0.0439  0.1319
55498SOL    HW184486   4.830  13.103   3.549 -1.1271  1.7790 -0.7512
55498SOL    HW284487   4.840  13.156   3.690  0.7909 -1.8071  0.5904
55499SOL     OW84488   7.685   3.684  11.542  0.2458  0.2848 -0.2692
55499SOL    HW184489   7.712   3.670  11.633  2.5397  1.6277 -0.6580
55499SOL    HW284490   7.666   3.596  11.509  2.1060 -0.5798  0.7664
55500SOL     OW84491   1.742  10.017  14.152 -0.0948  0.1303  0.3289
55500SOL    HW184492   1.749  10.112  14.160  0.5210 -0.0534  3.5599
55500SOL    HW284493   1.650   9.999  14.169  0.1782  0.1119  2.0650
55501SOL     OW84494  10.355   2.311   2.162  0.0302  0.2005 -0.4379
55501SOL    HW184495  10.388   2.377   2.223  1.0279 -1.2090  0.5927
55501SOL    HW284496  10.427   2.296   2.100 -0.1121 -0.0831 -0.5381
55502SOL     OW84497   8.418  12.563  10.260  0.3042  0.0881 -0.0990
55502SOL    HW184498   8.329  12.592  10.280 -0.1129 -1.3807  0.3178
55502SOL    HW284499   8.444  12.615  10.185 -1.2396 -0.0581 -0.7784
55503SOL     OW84500   7.602   5.470  13.205 -0.8468 -0.0902  0.0054
55503SOL    HW184501   7.658   5.535  13.162 -0.5104 -0.2432  0.2074
55503SOL    HW284502   7.526   5.520  13.236  0.1758  0.5274  1.6376
55504SOL     OW84503   1.925  14.112  10.033 -0.1121  0.0414 -0.1296
55504SOL    HW184504   2.009  14.134  10.072  1.2743 -0.3429 -2.6780
55504SOL    HW284505   1.869  14.090  10.107  1.1407  3.0064  1.8865
55505SOL     OW84506   3.409  14.057   9.481  0.2685  0.4480 -0.2702
55505SOL    HW184507   3.342  14.105   9.432  0.6804  0.8165 -0.4836
55505SOL    HW284508   3.406  13.968   9.446  0.3987  0.6495 -0.7973
55506SOL     OW84509   7.615   6.575  12.137  0.1064  0.1450 -0.7845
55506SOL    HW184510   7.596   6.483  12.121  1.4764 -0.2963 -0.0730
55506SOL    HW284511   7.568   6.596  12.218 -1.9725  0.7149 -2.0710
55507SOL     OW84512  13.008   1.534  13.911  0.4468  0.5693  0.2945
55507SOL    HW184513  13.070   1.498  13.975 -0.2047 -0.5171  0.3389
55507SOL    HW284514  13.036   1.625  13.900  1.0175  0.5806  1.5791
55508SOL     OW84515   9.542  12.899   2.546  0.1317  0.1286 -0.1440
55508SOL    HW184516   9.563  12.931   2.459  1.3266  1.0363  0.4542
55508SOL    HW284517   9.625  12.898   2.593 -0.0995 -2.4720  0.3485
55509SOL     OW84518   3.275  10.364   8.052  0.2667  0.2326  0.1735
55509SOL    HW184519   3.347  10.427   8.060  0.2527  0.1386  1.1605
55509SOL    HW284520   3.249  10.368   7.960  0.2660  1.6685  0.2244
55510SOL     OW84521   5.534  11.588   2.054  0.5248 -0.3762  1.2070
55510SOL    HW184522   5.441  11.578   2.074 -0.0615 -0.1011 -1.0859
55510SOL    HW284523   5.536  11.649   1.980  2.3628 -1.7957 -0.0155
55511SOL     OW84524  12.411  12.542  12.623  0.8480 -0.1836  0.1753
55511SOL    HW184525  12.387  12.633  12.634  0.6622 -0.0972 -0.8487
55511SOL    HW284526  12.365  12.496  12.693 -0.1168  0.3387 -0.1016
55512SOL     OW84527  12.028  11.706  12.898  0.1230 -0.2256  0.4145
55512SOL    HW184528  12.053  11.728  12.987 -0.3812 -0.2990  0.5741
55512SOL    HW284529  11.955  11.645  12.907 -0.8088  0.8036 -0.0499
55513SOL     OW84530  11.804   0.752   5.690  0.3013 -0.2012 -0.8542
55513SOL    HW184531  11.881   0.695   5.694 -0.5790 -1.3345  0.6423
55513SOL    HW284532  11.772   0.756   5.779 -2.0569 -0.6935 -1.6224
55514SOL     OW84533   7.519   5.893   8.091 -0.0515  0.0555  0.9646
55514SOL    HW184534   7.444   5.891   8.150 -0.7476 -2.3198  0.1273
55514SOL    HW284535   7.495   5.956   8.023 -1.5305 -1.0129  0.4522
55515SOL     OW84536   2.518   9.019  12.501  0.0582  0.4131  0.3992
55515SOL    HW184537   2.584   8.972  12.450 -2.1373 -1.4852 -0.8997
55515SOL    HW284538   2.484   9.086  12.441 -1.0752 -0.4495  0.0416
55516SOL     OW84539  12.468   4.323   4.794  0.3764  0.3408  0.1678
55516SOL    HW184540  12.531   4.320   4.722 -0.6213  0.6610 -0.7551
55516SOL    HW284541  12.383   4.314   4.751 -0.2171  0.0222  1.3711
55517SOL     OW84542   8.487   2.017   0.164 -0.6240 -0.7812  0.2512
55517SOL    HW184543   8.567   2.019   0.216  0.2540  0.3936 -1.0756
55517SOL    HW284544   8.431   1.954   0.209  0.4166 -0.4604  2.1042
55518SOL     OW84545   4.966   4.180   2.401  0.0174  0.1472  0.5305
55518SOL    HW184546   4.947   4.272   2.418  2.9256  0.4466  2.8623
55518SOL    HW284547   4.926   4.133   2.475  0.9722 -0.0994  0.9099
55519SOL     OW84548   4.214  13.342   9.898 -0.0053 -0.3168  0.0556
55519SOL    HW184549   4.277  13.272   9.913  1.5610  0.5913 -1.8589
55519SOL    HW284550   4.178  13.324   9.811  0.5701  1.3336 -0.5481
55520SOL     OW84551  13.061  13.729   0.994 -0.5234  0.6213 -0.1274
55520SOL    HW184552  13.053  13.653   1.051  1.4908  0.0161 -0.5718
55520SOL    HW284553  13.092  13.693   0.911  0.7659  1.9304 -0.2569
55521SOL     OW84554   1.854   4.486   9.080 -0.3261 -0.1750 -0.1971
55521SOL    HW184555   1.832   4.539   9.003  1.6609  1.1217  0.0492
55521SOL    HW284556   1.772   4.481   9.129 -1.0399  1.0929 -1.1794
55522SOL     OW84557   0.529   1.500  10.757  0.3932  0.3640  0.1103
55522SOL    HW184558   0.596   1.536  10.814  0.3730  1.5890 -0.6063
55522SOL    HW284559   0.570   1.423  10.717  1.0497  0.5883  0.3439
55523SOL     OW84560   6.055   5.363  12.831  0.3216  0.3401 -0.1342
55523SOL    HW184561   6.005   5.424  12.776  0.6318  0.4018 -0.3487
55523SOL    HW284562   6.001   5.284  12.834  0.8898 -0.1351 -1.5926
55524SOL     OW84563   6.037   2.845  12.528  0.1546 -0.2946 -0.3840
55524SOL    HW184564   6.013   2.775  12.589  0.4640 -0.1259 -0.0653
55524SOL    HW284565   6.077   2.912  12.583 -0.4592  0.2855 -0.6398
55525SOL     OW84566   4.150   3.222   3.078  0.4245  0.1180  0.1854
55525SOL    HW184567   4.147   3.138   3.123 -0.0919  0.5006  0.8916
55525SOL    HW284568   4.185   3.202   2.991  3.2353 -0.3707  1.3163
55526SOL     OW84569  13.958  11.453   7.044 -0.6423  0.1182 -0.6003
55526SOL    HW184570  13.866  11.449   7.017 -0.7824 -1.6283  0.0153
55526SOL    HW284571  13.992  11.365   7.026  1.0479  0.8671 -1.2518
55527SOL     OW84572   0.416   3.717  10.910  0.3072 -0.2759  0.1378
55527SOL    HW184573   0.336   3.680  10.873  0.8001 -0.5806 -0.6313
55527SOL    HW284574   0.386   3.794  10.959 -0.5216 -0.7182  0.3412
55528SOL     OW84575  12.289  12.069  13.379  0.3917 -0.2197 -0.4339
55528SOL    HW184576  12.261  12.043  13.292  0.1611 -0.6620 -0.2291
55528SOL    HW284577  12.288  12.165  13.377 -2.5258 -0.1409 -0.0096
55529SOL     OW84578  10.488  11.013   2.923 -0.3773 -0.6231  0.1259
55529SOL    HW184579  10.494  11.020   2.828 -0.3458 -0.2676  0.1530
55529SOL    HW284580  10.579  11.012   2.953 -0.3873  0.5725  0.2404
55530SOL     OW84581   3.426  13.706  10.487 -0.1470  0.5151 -0.0771
55530SOL    HW184582   3.514  13.674  10.507  0.0474  0.9672 -0.1806
55530SOL    HW284583   3.426  13.797  10.518 -0.6936  0.4117  0.2384
55531SOL     OW84584   4.394   6.475  13.684  0.6275  0.4523  0.1392
55531SOL    HW184585   4.387   6.488  13.589 -1.0832 -0.7905  0.0677
55531SOL    HW284586   4.460   6.406  13.693 -0.7707 -1.0140 -0.3263
55532SOL     OW84587  12.679   8.163   9.034  0.3516 -0.4294  0.0475
55532SOL    HW184588  12.700   8.076   8.999 -1.5720 -0.5191 -0.9845
55532SOL    HW284589  12.669   8.148   9.128 -1.0589 -1.5889 -0.2543
55533SOL     OW84590   0.564   0.292   1.138  0.7988 -0.3711 -0.5130
55533SOL    HW184591   0.646   0.243   1.137  0.7363 -0.5365  0.9080
55533SOL    HW284592   0.535   0.288   1.229 -0.0946  0.8392 -0.7287
55534SOL     OW84593   6.311  13.166  11.848  0.4553  0.2350  0.5030
55534SOL    HW184594   6.353  13.192  11.766 -1.7061  0.3229 -0.6498
55534SOL    HW284595   6.297  13.247  11.895  1.0243  0.2682  0.6185
55535SOL     OW84596  13.646  12.371   2.039 -0.0135  0.2611  0.0094
55535SOL    HW184597  13.653  12.344   1.947  0.6824 -2.1376  0.7016
55535SOL    HW284598  13.735  12.394   2.064  0.2185 -1.2800  0.6713
55536SOL     OW84599  11.716   0.516  13.438  0.2824 -0.6841  0.4497
55536SOL    HW184600  11.644   0.478  13.388  0.0783 -1.0742  1.0329
55536SOL    HW284601  11.708   0.610  13.423  0.0751 -0.7798 -0.0547
55537SOL     OW84602   6.490   8.391   9.339  0.1429 -0.9518  0.6016
55537SOL    HW184603   6.486   8.390   9.435 -0.1907 -2.3924  0.5916
55537SOL    HW284604   6.562   8.452   9.319 -2.2326  2.5044  1.5964
55538SOL     OW84605   8.714   0.448   8.273  0.0244 -0.0942 -0.2833
55538SOL    HW184606   8.716   0.403   8.189 -1.2648 -1.4697  0.3604
55538SOL    HW284607   8.788   0.411   8.322  1.0755  1.0632 -0.9397
55539SOL     OW84608  12.241   2.208  11.583  0.4018  0.6330  0.0348
55539SOL    HW184609  12.255   2.246  11.670  1.6622  0.7151 -0.1856
55539SOL    HW284610  12.304   2.137  11.577  1.2553  1.4621 -1.2911
55540SOL     OW84611   3.626   4.550   5.288 -0.3034 -0.3851  0.1098
55540SOL    HW184612   3.646   4.582   5.376 -2.1374  0.3155  0.3138
55540SOL    HW284613   3.685   4.598   5.231  0.8074 -0.7355  0.9359
55541SOL     OW84614  11.525  11.991  10.889 -0.3265 -0.2432 -0.3560
55541SOL    HW184615  11.536  11.928  10.961 -0.7734 -0.2827 -0.3232
55541SOL    HW284616  11.495  12.071  10.931  1.8335  0.5396 -0.1765
55542SOL     OW84617   3.980   8.063  11.529  0.2161 -0.0739  0.4850
55542SOL    HW184618   4.024   8.147  11.541 -0.1023  0.1364  0.1637
55542SOL    HW284619   3.891   8.077  11.561 -0.3518  0.2108 -1.1336
55543SOL     OW84620   5.884   7.478   2.212 -0.0551 -0.4628 -0.2046
55543SOL    HW184621   5.890   7.383   2.205  1.9535 -0.4928  0.9940
55543SOL    HW284622   5.896   7.497   2.305  2.1923  1.0233 -0.7066
55544SOL     OW84623  11.963   6.645   0.922 -0.0123  0.4594  0.1626
55544SOL    HW184624  11.969   6.549   0.924  1.4400  0.5259 -0.0029
55544SOL    HW284625  11.899   6.663   0.853  0.0452 -0.3884 -0.1306
55545SOL     OW84626   0.827   8.449   9.826 -0.3751 -0.5008 -0.5699
55545SOL    HW184627   0.828   8.353   9.828  1.4270 -0.5553 -1.6288
55545SOL    HW284628   0.866   8.475   9.909  0.3556 -0.7411 -0.8259
55546SOL     OW84629   3.106   6.449  13.444 -0.3861  0.0260 -0.0842
55546SOL    HW184630   3.062   6.415  13.365 -0.7906  0.7898 -0.1935
55546SOL    HW284631   3.139   6.535  13.418 -0.7074  0.3726  0.6444
55547SOL     OW84632   3.747   9.100   1.538  0.3429 -0.4364 -0.4028
55547SOL    HW184633   3.743   9.080   1.444 -0.3153 -2.0363 -0.0580
55547SOL    HW284634   3.841   9.103   1.557  0.4736 -1.2107 -0.8947
55548SOL     OW84635  10.209   8.788   7.606 -0.2119  0.1287 -0.4081
55548SOL    HW184636  10.143   8.729   7.642 -0.8067  1.8728  1.6033
55548SOL    HW284637  10.282   8.783   7.668 -0.0113  0.9851 -0.5606
55549SOL     OW84638  10.158   6.651  11.140 -0.2037  0.5870 -0.8708
55549SOL    HW184639  10.148   6.606  11.056 -0.3217 -0.7215 -0.1774
55549SOL    HW284640  10.068   6.660  11.173 -0.1194  0.6976 -0.6729
55550SOL     OW84641   2.629   7.566   9.325  0.1034  0.1372  0.0206
55550SOL    HW184642   2.645   7.660   9.338  0.3149  0.0844  0.1502
55550SOL    HW284643   2.598   7.559   9.235 -2.1296  0.6087  0.6906
55551SOL     OW84644  13.976  11.773   2.931  0.1767  0.0450 -0.0542
55551SOL    HW184645  14.069  11.750   2.932 -0.2360 -1.8528 -1.1162
55551SOL    HW284646  13.968  11.843   2.996  2.2315 -0.1742  0.5010
55552SOL     OW84647  12.942   6.691   5.464  0.5787  0.3173 -0.2064
55552SOL    HW184648  13.007   6.741   5.414  1.1261 -0.5785 -0.4269
55552SOL    HW284649  12.860   6.739   5.453  1.0821  1.1510 -0.4076
55553SOL     OW84650   9.473   8.239  12.869  0.1865 -0.2318 -0.2212
55553SOL    HW184651   9.439   8.256  12.781  0.0135  1.0676  0.0688
55553SOL    HW284652   9.554   8.191  12.855  0.3767  0.3238 -1.1246
55554SOL     OW84653   9.698   6.070   3.411  0.4872  0.1438  0.1247
55554SOL    HW184654   9.744   6.123   3.345 -0.4053 -0.3730 -0.9525
55554SOL    HW284655   9.625   6.031   3.363  0.8341 -1.6772  0.9930
55555SOL     OW84656  13.642   5.721  12.254 -0.7893 -0.4993  0.4331
55555SOL    HW184657  13.573   5.787  12.255 -0.1399  0.2486 -0.9981
55555SOL    HW284658  13.710   5.755  12.312 -0.8480 -0.3523  0.4153
55556SOL     OW84659   0.830   9.207   1.706 -0.0939  0.2669  0.2901
55556SOL    HW184660   0.851   9.174   1.619 -0.7181 -1.2431  0.6626
55556SOL    HW284661   0.915   9.215   1.750  0.1480  0.0491 -0.1331
55557SOL     OW84662   3.613   4.497   3.658 -0.5908 -0.6862 -0.3077
55557SOL    HW184663   3.597   4.516   3.751  0.0594 -2.2401  0.1554
55557SOL    HW284664   3.531   4.458   3.628 -0.5849 -0.7782 -0.2071
55558SOL     OW84665   2.208  13.950  13.035 -0.3953 -0.0183  0.1911
55558SOL    HW184666   2.231  14.039  13.007  1.8374 -0.3950  0.6581
55558SOL    HW284667   2.113  13.952  13.043 -0.4086  2.3554  0.2571
55559SOL     OW84668   8.306   5.187   3.698  0.9196  0.1431 -0.5772
55559SOL    HW184669   8.357   5.216   3.774  1.7177 -0.3332 -0.9269
55559SOL    HW284670   8.319   5.255   3.633  1.5214 -0.2151 -0.8406
55560SOL     OW84671   3.723   9.227   6.900  0.5071  0.7265  0.5688
55560SOL    HW184672   3.678   9.142   6.910  0.3684  0.9599  2.1948
55560SOL    HW284673   3.742   9.232   6.807  1.5827 -1.6389  0.5812
55561SOL     OW84674   7.031  12.943   1.037  0.2535  0.1788  1.4048
55561SOL    HW184675   7.063  12.937   1.127  0.1881 -2.5705  1.3198
55561SOL    HW284676   6.937  12.928   1.044  0.5048 -1.9925  0.7699
55562SOL     OW84677   6.190  11.660   8.156  0.0056 -0.5874  0.3316
55562SOL    HW184678   6.139  11.703   8.225  0.8788 -0.2652  0.7938
55562SOL    HW284679   6.177  11.567   8.172 -0.5040 -0.5132  0.3858
55563SOL     OW84680   6.205   2.480   4.335  0.0752 -0.4426  0.2400
55563SOL    HW184681   6.160   2.451   4.414  0.3283 -1.9413 -0.1466
55563SOL    HW284682   6.156   2.557   4.307  0.0629  0.2105  1.9190
55564SOL     OW84683   6.708   6.242  11.219  0.1566  0.3973  0.1946
55564SOL    HW184684   6.725   6.296  11.142  0.1820 -0.3797 -0.3633
55564SOL    HW284685   6.790   6.243  11.268  0.3131  0.4651 -0.0694
55565SOL     OW84686   7.573   4.401   3.835  0.5516  0.3594 -0.1833
55565SOL    HW184687   7.499   4.360   3.880  1.2550 -0.2674  0.4236
55565SOL    HW284688   7.645   4.340   3.846  1.8818  2.1047  1.5353
55566SOL     OW84689  10.291   6.646   1.027  0.1326  0.0020 -0.0832
55566SOL    HW184690  10.277   6.584   1.098 -0.1464 -0.0689 -0.1999
55566SOL    HW284691  10.344   6.598   0.963  0.5759  0.1390  0.1734
55567SOL     OW84692   4.492  10.139   0.029 -0.2814 -0.1815 -0.1176
55567SOL    HW184693   4.509  10.094  -0.054 -2.0350  1.0784 -1.2247
55567SOL    HW284694   4.570  10.123   0.082  1.2609 -0.3072 -2.3246
55568SOL     OW84695   5.120  13.309  10.007 -0.1274 -0.5426 -0.0986
55568SOL    HW184696   5.057  13.262  10.062 -1.2201 -0.0730 -0.9174
55568SOL    HW284697   5.206  13.281  10.040 -0.7466 -0.6980  1.4618
55569SOL     OW84698  13.880  12.599   1.724  0.5963  0.2162  0.6727
55569SOL    HW184699  13.915  12.543   1.655  1.1293  1.9818 -0.5566
55569SOL    HW284700  13.948  12.597   1.792 -0.1820 -1.9774  1.4801
55570SOL     OW84701   1.148   6.978   1.941  0.1537 -0.6183  0.2010
55570SOL    HW184702   1.227   6.964   1.994  0.0610 -2.2466 -0.0166
55570SOL    HW284703   1.076   6.949   1.998 -0.1837 -0.0887  0.0437
55571SOL     OW84704   6.481   2.000  11.181 -0.7607  0.1480 -0.0411
55571SOL    HW184705   6.451   1.946  11.107 -1.2128  2.1718 -1.4049
55571SOL    HW284706   6.401   2.032  11.222 -0.5020  0.5903  0.1243
55572SOL     OW84707   6.084   4.675   5.360  0.5824  0.0123 -0.2905
55572SOL    HW184708   6.091   4.701   5.452  1.9508 -0.7835 -0.1398
55572SOL    HW284709   6.148   4.730   5.315  1.1135 -0.7406 -0.4841
55573SOL     OW84710   5.095  10.906  13.767 -0.0255  0.1845 -0.3316
55573SOL    HW184711   5.033  10.836  13.785 -0.2809  0.3599 -0.5123
55573SOL    HW284712   5.101  10.955  13.849 -1.7178  1.4021 -0.8488
55574SOL     OW84713  12.145   5.972   4.109 -0.1181 -0.3750  0.5127
55574SOL    HW184714  12.110   5.890   4.075  0.7819 -0.0336 -1.3463
55574SOL    HW284715  12.071   6.032   4.107 -0.1254 -0.3937 -0.8382
55575SOL     OW84716   9.981  13.766   8.873 -0.1558 -0.3887  0.3280
55575SOL    HW184717   9.890  13.770   8.901  0.0538  1.4014  0.8289
55575SOL    HW284718   9.990  13.837   8.810  1.5076  1.1975  2.2227
55576SOL     OW84719  13.679   4.686   5.431 -0.1776  0.4867 -0.0721
55576SOL    HW184720  13.604   4.647   5.386 -0.6329  2.2978 -0.9560
55576SOL    HW284721  13.657   4.779   5.441  0.8568  0.5929  1.9745
55577SOL     OW84722   5.781   4.999   8.050 -0.0379 -0.0303  0.1131
55577SOL    HW184723   5.756   5.013   8.141 -1.3335  0.5626 -0.3100
55577SOL    HW284724   5.774   4.905   8.037  1.8110 -0.3509  1.0555
55578SOL     OW84725  13.226   0.828   9.154  0.1874 -0.1992 -0.9910
55578SOL    HW184726  13.184   0.780   9.226 -0.6464  1.2247 -0.4687
55578SOL    HW284727  13.162   0.826   9.083  0.3273 -0.2136 -1.1169
55579SOL     OW84728   7.991  13.373   3.738  0.5246 -0.6901 -0.5615
55579SOL    HW184729   8.006  13.439   3.670 -0.4503 -1.2224 -1.3307
55579SOL    HW284730   8.076  13.332   3.750  1.2214  0.8759  0.1403
55580SOL     OW84731   6.066   8.559   5.979 -0.2450 -0.4286 -0.5973
55580SOL    HW184732   6.108   8.604   6.052 -0.3669 -1.6136  0.2438
55580SOL    HW284733   6.139   8.522   5.929 -0.2106 -1.0965 -0.0673
55581SOL     OW84734  12.967   1.427   2.878  0.4751 -0.0181  0.2161
55581SOL    HW184735  13.049   1.465   2.848 -0.4824  3.1239  1.1642
55581SOL    HW284736  12.954   1.464   2.965 -2.1908  0.0117 -0.1142
55582SOL     OW84737   1.924   4.444   6.709 -0.3707  0.3976 -0.5737
55582SOL    HW184738   1.898   4.472   6.797 -0.8214 -0.9197 -0.2586
55582SOL    HW284739   2.018   4.428   6.715  0.2926  3.4838 -1.2476
55583SOL     OW84740   0.990   1.013  11.589  0.5456  0.1416  0.3391
55583SOL    HW184741   0.973   0.939  11.531  2.1098 -0.8951  1.1522
55583SOL    HW284742   1.083   1.033  11.578  0.2668  1.7102  0.4918
55584SOL     OW84743  13.852  10.940  14.019 -0.2608 -0.1683  0.1841
55584SOL    HW184744  13.921  10.991  14.061 -0.8875  1.8168 -1.0644
55584SOL    HW284745  13.771  10.986  14.040 -0.8907 -0.7633 -0.8391
55585SOL     OW84746  11.869   5.906  13.041  0.3912  0.0159  0.3584
55585SOL    HW184747  11.775   5.909  13.026  0.4868 -1.5813 -0.6989
55585SOL    HW284748  11.884   5.826  13.092  1.1454  0.4574  0.8641
55586SOL     OW84749   5.593   0.548  13.707 -0.6061 -0.0961  0.4108
55586SOL    HW184750   5.675   0.593  13.727  0.1552 -0.7288 -1.1488
55586SOL    HW284751   5.612   0.456  13.724 -0.3817 -0.4783 -1.6600
55587SOL     OW84752  11.172   5.805   6.823  0.3076  0.8365 -0.2384
55587SOL    HW184753  11.267   5.810   6.830  0.6798 -2.8273 -0.7154
55587SOL    HW284754  11.145   5.749   6.895 -1.4895  1.5960 -0.2637
55588SOL     OW84755   3.833   1.213  11.878 -0.6429 -0.5718  0.8251
55588SOL    HW184756   3.804   1.272  11.948 -0.0863  0.0688  0.5231
55588SOL    HW284757   3.860   1.133  11.924 -0.0926 -0.0829  1.3738
55589SOL     OW84758  12.228   8.773  11.250 -0.1365  0.0761  0.1591
55589SOL    HW184759  12.240   8.825  11.330  1.5472  0.6015 -0.3935
55589SOL    HW284760  12.282   8.695  11.264  1.3852  0.8752 -1.0489
55590SOL     OW84761   5.172   6.524   2.444  0.1441  0.1118 -0.1165
55590SOL    HW184762   5.080   6.501   2.449  0.1201  0.3237  0.6086
55590SOL    HW284763   5.175   6.606   2.395  0.0064 -0.1873 -0.6307
55591SOL     OW84764   2.060  11.583   5.197 -0.8595  0.2367  0.0435
55591SOL    HW184765   2.133  11.619   5.148  0.5530 -0.6563  1.4097
55591SOL    HW284766   2.088  11.496   5.224 -1.7085  0.5071  2.0410
55592SOL     OW84767   7.124  13.081   4.256  0.1564  0.2466 -0.1159
55592SOL    HW184768   7.161  13.166   4.229  0.8097 -0.2372 -0.7923
55592SOL    HW284769   7.092  13.043   4.174  1.0581 -0.7245 -0.0415
55593SOL     OW84770  13.776   0.726  13.090  0.9731 -0.2582 -0.0942
55593SOL    HW184771  13.802   0.763  13.174  0.2065  1.0037 -0.3794
55593SOL    HW284772  13.700   0.778  13.063 -0.0800 -1.9793 -0.6022
55594SOL     OW84773   5.573   6.798   4.797 -0.0116  0.1442  0.4162
55594SOL    HW184774   5.483   6.789   4.827 -0.1227 -1.2564 -0.2512
55594SOL    HW284775   5.568   6.782   4.702  0.6054  2.4840 -0.0677
55595SOL     OW84776  11.984   3.450   4.166 -0.0942  0.5935  0.4319
55595SOL    HW184777  11.966   3.432   4.074 -0.1739  1.0965  0.3515
55595SOL    HW284778  11.898   3.450   4.208 -0.0681  0.4916  0.4854
55596SOL     OW84779   4.527   0.230   1.377  0.0617 -0.0938 -0.3311
55596SOL    HW184780   4.445   0.181   1.376  0.8425 -1.4510 -1.2735
55596SOL    HW284781   4.589   0.173   1.332  1.0556  1.7253 -1.3680
55597SOL     OW84782   3.751   3.275   8.468  0.0095  0.0623  0.0748
55597SOL    HW184783   3.711   3.224   8.398 -0.3874 -0.8934  0.9641
55597SOL    HW284784   3.755   3.364   8.434 -2.1208  0.0401 -0.3662
55598SOL     OW84785   0.853  10.454   6.185  0.2704 -0.0262  0.0485
55598SOL    HW184786   0.919  10.497   6.241  1.3952 -0.5643 -0.8266
55598SOL    HW284787   0.904  10.393   6.131 -1.3047 -3.1442  1.8082
55599SOL     OW84788   1.084   3.334  11.528  0.5171  0.4015 -0.3914
55599SOL    HW184789   1.149   3.373  11.586  0.8926  0.2953 -0.7419
55599SOL    HW284790   1.000   3.363  11.563  0.6586 -0.8424  1.0922
55600SOL     OW84791   6.575   0.667   7.925  0.5305  0.3864 -0.1699
55600SOL    HW184792   6.571   0.681   8.020 -1.1275 -0.7531 -0.0382
55600SOL    HW284793   6.494   0.620   7.904  1.5688 -0.7078 -1.9339
55601SOL     OW84794   2.819   1.208   3.675  0.2917 -0.3911 -0.6356
55601SOL    HW184795   2.775   1.257   3.745  0.2191 -0.8525 -0.3538
55601SOL    HW284796   2.748   1.184   3.615  0.4080  0.3338 -1.0718
55602SOL     OW84797   0.750   3.980   7.862  0.0549 -0.2089  0.4169
55602SOL    HW184798   0.673   3.985   7.918 -0.0376  1.1420  0.2115
55602SOL    HW284799   0.722   4.020   7.779  0.8196 -0.1898  0.1595
55603SOL     OW84800  10.843   8.980   5.994  0.1429 -0.3265  0.6251
55603SOL    HW184801  10.908   8.993   6.063 -0.7681 -0.6568  1.5866
55603SOL    HW284802  10.819   8.887   6.000  0.0265 -0.3494 -0.1138
55604SOL     OW84803   7.444  12.625   1.774 -0.6938  0.3936 -0.0954
55604SOL    HW184804   7.385  12.691   1.812 -0.0625  0.8070  0.1880
55604SOL    HW284805   7.415  12.617   1.683 -0.4951  1.4140 -0.2703
55605SOL     OW84806   4.163   6.575   8.549  0.1902  0.5847 -0.6511
55605SOL    HW184807   4.180   6.656   8.500 -0.2906  0.6053 -0.7836
55605SOL    HW284808   4.078   6.545   8.518 -0.0170  0.4723  0.0029
55606SOL     OW84809   4.600  12.424   9.773 -0.1017  0.1260 -0.6820
55606SOL    HW184810   4.666  12.372   9.818  0.9001  1.3435 -0.6920
55606SOL    HW284811   4.520  12.371   9.778  0.9436 -1.5353 -0.9782
55607SOL     OW84812   8.169  13.102  10.448 -0.1007  0.6949  0.0870
55607SOL    HW184813   8.098  13.072  10.391 -1.1887 -1.4475  2.3623
55607SOL    HW284814   8.137  13.184  10.485  0.3367  1.7573 -1.7576
55608SOL     OW84815   0.498   8.909  11.714 -0.2321 -0.6285  0.7878
55608SOL    HW184816   0.507   8.998  11.749 -1.7163 -0.8675  1.8529
55608SOL    HW284817   0.585   8.870  11.728  0.5856  0.7692 -0.1319
55609SOL     OW84818   0.093   9.786  12.855 -0.6062  0.1894 -0.0792
55609SOL    HW184819   0.080   9.836  12.774  2.4560  1.1726 -0.1025
55609SOL    HW284820   0.101   9.695  12.826  2.0882  0.6819 -1.2502
55610SOL     OW84821  11.436   7.667   3.086  0.4763 -0.3924  0.3797
55610SOL    HW184822  11.387   7.601   3.135  1.0916 -1.5879 -0.5634
55610SOL    HW284823  11.438   7.634   2.997 -0.6587  1.7523 -0.5189
55611SOL     OW84824   0.297   9.850   3.554 -0.2518  0.0977 -0.0538
55611SOL    HW184825   0.330   9.904   3.625  1.1526 -0.2549 -0.4162
55611SOL    HW284826   0.316   9.760   3.580 -1.6913 -0.1923  0.0972
55612SOL     OW84827  10.080   3.888   8.238 -0.2533  0.1545 -0.1657
55612SOL    HW184828  10.130   3.846   8.308  1.6772 -0.0171 -1.5752
55612SOL    HW284829  10.146   3.927   8.181 -1.8538  1.8861 -0.9263
55613SOL     OW84830  13.786  13.922   1.192  0.1288  0.1438  0.1020
55613SOL    HW184831  13.850  13.989   1.166  0.2891  0.7861  1.9616
55613SOL    HW284832  13.809  13.902   1.283 -1.2243 -0.9135  0.2366
55614SOL     OW84833   1.220   8.632  12.035  0.0352 -0.0788  0.0760
55614SOL    HW184834   1.203   8.547  11.995  1.3942 -1.1084  1.5527
55614SOL    HW284835   1.157   8.638  12.107 -0.6791  0.6044 -0.5894
55615SOL     OW84836   5.596   4.133   5.075  0.0683  0.1507 -0.0181
55615SOL    HW184837   5.605   4.101   4.985  0.4071 -0.4788  0.2305
55615SOL    HW284838   5.527   4.199   5.070 -1.3511 -1.2782 -0.4107
55616SOL     OW84839   0.925   2.490   3.068  0.1000 -0.1224 -0.4426
55616SOL    HW184840   0.954   2.402   3.091 -1.2959 -0.2164  1.2039
55616SOL    HW284841   0.923   2.537   3.152  0.9381  1.5426 -1.3016
55617SOL     OW84842   0.431   3.128   7.619 -0.0642  0.3017 -0.2724
55617SOL    HW184843   0.400   3.207   7.662  1.2526  0.5194  0.3342
55617SOL    HW284844   0.361   3.104   7.558 -0.5376  1.8453 -0.3740
55618SOL     OW84845  12.136   1.467  12.546 -0.6151  0.2348 -0.1400
55618SOL    HW184846  12.145   1.481  12.452 -0.2244 -1.1013 -0.3190
55618SOL    HW284847  12.055   1.511  12.569 -1.0443  0.0338 -1.2219
55619SOL     OW84848  12.535   4.745  14.111 -0.2113  0.2107  0.2442
55619SOL    HW184849  12.606   4.700  14.064 -0.3022  0.2910  0.0249
55619SOL    HW284850  12.545   4.837  14.087  0.7007  0.5067  1.6320
55620SOL     OW84851   9.742   3.998   0.245  0.1880 -0.1608 -0.4080
55620SOL    HW184852   9.657   4.042   0.236 -0.6302 -1.4201  0.6593
55620SOL    HW284853   9.791   4.023   0.167 -0.8121  1.3396 -0.5980
55621SOL     OW84854  11.288  10.232   9.319  0.4048 -0.8212 -0.3319
55621SOL    HW184855  11.268  10.147   9.359  1.6692 -0.8688  0.2701
55621SOL    HW284856  11.244  10.230   9.234 -0.1128 -1.8206 -0.0526
55622SOL     OW84857   7.889   9.313  11.541 -0.2335  0.3199  0.1346
55622SOL    HW184858   7.842   9.362  11.474  0.0062  0.3743  0.0048
55622SOL    HW284859   7.957   9.373  11.572 -1.0864  0.7259  1.2747
55623SOL     OW84860   9.823   1.270   6.892 -0.1431  0.1446 -0.1723
55623SOL    HW184861   9.873   1.241   6.968  0.1226  1.3800  0.1437
55623SOL    HW284862   9.856   1.217   6.819 -0.2637 -0.9091  0.5203
55624SOL     OW84863  13.645   3.227   7.645  0.3700 -0.2172 -0.0047
55624SOL    HW184864  13.700   3.289   7.692  1.6373 -1.3087  0.0309
55624SOL    HW284865  13.672   3.236   7.554 -0.2227  0.0566 -0.1538
55625SOL     OW84866   7.648  12.777  10.096 -0.0073  0.3481  0.0704
55625SOL    HW184867   7.688  12.690  10.088  0.8619  0.8468 -1.5201
55625SOL    HW284868   7.721  12.838  10.080 -1.1940  1.3053 -2.2223
55626SOL     OW84869   4.733   4.921   8.295  0.5537 -0.5681  0.6002
55626SOL    HW184870   4.791   4.934   8.220  0.8094 -0.6946  0.7741
55626SOL    HW284871   4.744   4.999   8.349 -2.0944  1.1377 -1.0846
55627SOL     OW84872   8.631  13.406  12.386  0.1148  0.2108 -0.3794
55627SOL    HW184873   8.588  13.397  12.302 -0.9298  0.2858  0.1374
55627SOL    HW284874   8.590  13.339  12.441  0.9302  0.0231  0.0176
55628SOL     OW84875   6.781  12.699   4.302  0.1132 -0.0691 -0.2386
55628SOL    HW184876   6.702  12.711   4.354 -0.1157  0.8325 -0.7696
55628SOL    HW284877   6.830  12.780   4.314  2.0222 -1.4097  1.7893
55629SOL     OW84878   4.952  13.886   5.674  0.5577 -0.0090  0.3155
55629SOL    HW184879   4.887  13.841   5.620  1.3362 -1.2281  0.3653
55629SOL    HW284880   5.007  13.816   5.709  2.3706  1.0178 -0.3379
55630SOL     OW84881   5.821   5.815   2.064  0.6951 -0.0477  0.0889
55630SOL    HW184882   5.801   5.790   1.974  0.0789  1.8256 -0.3481
55630SOL    HW284883   5.752   5.775   2.116 -0.2056  0.6384 -0.5570
55631SOL     OW84884   8.070   8.703   2.278  0.1725 -0.1793  0.2555
55631SOL    HW184885   8.107   8.619   2.306 -1.0526 -0.4112  1.2892
55631SOL    HW284886   8.067   8.755   2.358 -2.2015 -0.3812  0.3788
55632SOL     OW84887  10.797   5.297   8.656 -0.0494  0.1374 -0.1274
55632SOL    HW184888  10.727   5.233   8.650 -1.4603  1.6140 -0.1604
55632SOL    HW284889  10.878   5.245   8.651 -1.0945 -1.7730  1.4046
55633SOL     OW84890  10.935   0.244  10.969 -0.0001 -0.6816 -0.2152
55633SOL    HW184891  10.913   0.253  11.062 -1.6954 -0.6517 -0.5831
55633SOL    HW284892  10.852   0.259  10.923  0.6913 -1.2048 -1.7087
55634SOL     OW84893   9.417   4.002  12.487 -0.0025 -0.2334 -0.1284
55634SOL    HW184894   9.351   4.056  12.531 -0.0904  0.1997 -0.7816
55634SOL    HW284895   9.399   3.913  12.518  0.6997  0.2011  1.6351
55635SOL     OW84896   6.888   1.715   4.673 -0.1853 -0.3758 -0.7102
55635SOL    HW184897   6.818   1.661   4.710 -0.2919 -0.8024 -1.5131
55635SOL    HW284898   6.966   1.660   4.677  0.2326  0.2735  0.6337
55636SOL     OW84899   9.354   5.411   5.755  0.8616  0.2646  0.0309
55636SOL    HW184900   9.380   5.447   5.670  1.1617 -0.1749 -0.0651
55636SOL    HW284901   9.426   5.353   5.780  0.1516 -0.6899 -0.0734
55637SOL     OW84902   4.234  12.926   5.498 -0.3449  0.0055  0.0231
55637SOL    HW184903   4.312  12.952   5.448 -1.1294 -1.0310 -1.8253
55637SOL    HW284904   4.178  12.881   5.434 -1.3363 -1.5465  1.8867
55638SOL     OW84905   8.569   6.783  12.688 -0.2142 -0.4053 -0.0692
55638SOL    HW184906   8.526   6.726  12.752 -1.6320  2.9311  2.2789
55638SOL    HW284907   8.608   6.853  12.741 -0.1810  1.7909 -2.7731
55639SOL     OW84908   8.721   6.595  13.989  0.1369 -0.6168 -0.1311
55639SOL    HW184909   8.766   6.510  13.988  1.4416  0.0132  0.7099
55639SOL    HW284910   8.639   6.578  14.034  0.9845 -1.2079  1.2837
55640SOL     OW84911   4.811  13.715   7.817  0.0511 -0.1791 -0.0854
55640SOL    HW184912   4.778  13.634   7.778 -1.8434 -0.0384  1.0751
55640SOL    HW284913   4.900  13.695   7.844 -0.4029 -1.9242  0.2362
55641SOL     OW84914   6.047   3.437   7.191  0.7533  0.4764 -0.5101
55641SOL    HW184915   5.994   3.411   7.266  1.3040  0.7076 -0.0276
55641SOL    HW284916   6.136   3.444   7.227  0.8834  1.4332 -0.9801
55642SOL     OW84917  13.498  11.603  11.354  0.4348  0.1085 -0.0094
55642SOL    HW184918  13.576  11.577  11.305  0.4710  0.4877 -0.1579
55642SOL    HW284919  13.430  11.543  11.325  0.8216 -0.6377  0.5879
55643SOL     OW84920   7.740   9.391   1.486 -0.5686 -0.2281  0.9576
55643SOL    HW184921   7.775   9.480   1.478 -0.4943 -0.3479 -0.3169
55643SOL    HW284922   7.659   9.401   1.536 -0.2924  0.4812  1.2691
55644SOL     OW84923   7.600   6.981   1.777 -0.1473  0.2460  0.0352
55644SOL    HW184924   7.574   7.029   1.699  0.6245  2.1389  0.8901
55644SOL    HW284925   7.544   7.015   1.847 -1.0755 -1.6658  0.2936
55645SOL     OW84926   8.264   7.299  11.499 -0.6066 -0.2513 -0.1079
55645SOL    HW184927   8.277   7.273  11.590  0.2731 -0.8521 -0.3995
55645SOL    HW284928   8.351   7.323  11.468 -0.8868 -0.1494 -0.8245
55646SOL     OW84929  14.077   1.691  13.412  0.0867 -0.3792  0.1955
55646SOL    HW184930  14.067   1.787  13.409  1.2756 -0.2580 -0.4243
55646SOL    HW284931  14.011   1.659  13.350  0.0035  0.0603  0.0462
55647SOL     OW84932   4.615  12.716   6.810  0.2250 -0.1656  0.6565
55647SOL    HW184933   4.585  12.804   6.788  0.3845 -0.3378 -0.2692
55647SOL    HW284934   4.613  12.714   6.906  2.4785  1.6479  0.8245
55648SOL     OW84935   1.900   3.476  11.423  0.3647  0.2943  0.2362
55648SOL    HW184936   1.883   3.494  11.515 -0.7744 -1.0909  0.3314
55648SOL    HW284937   1.994   3.461  11.418  0.3727 -0.0189  1.2493
55649SOL     OW84938   9.442  12.939   4.821 -0.2818 -0.0913 -0.2168
55649SOL    HW184939   9.477  13.020   4.858  3.8593 -1.7742  0.0825
55649SOL    HW284940   9.519  12.885   4.804 -2.7885 -4.4972  0.7687
55650SOL     OW84941   9.362   9.085   6.550 -0.0128 -0.0099  0.4053
55650SOL    HW184942   9.455   9.097   6.530  0.2786 -1.7460  0.6190
55650SOL    HW284943   9.357   9.092   6.645 -0.0772 -0.0927  0.4075
55651SOL     OW84944   9.305  13.399   8.109  0.3751  0.1699 -0.5348
55651SOL    HW184945   9.260  13.327   8.152  0.8042  0.5701  0.6263
55651SOL    HW284946   9.256  13.413   8.028  0.7256 -1.9023 -1.1760
55652SOL     OW84947   3.588   5.633  11.872 -0.1250  0.9670  0.1370
55652SOL    HW184948   3.660   5.571  11.879 -0.5066  0.5807  0.7836
55652SOL    HW284949   3.536   5.601  11.798  1.0621  2.0075 -1.1950
55653SOL     OW84950   6.317   6.820  13.838  0.3509  0.1080 -0.1219
55653SOL    HW184951   6.289   6.910  13.855  0.8364  0.2965 -0.2867
55653SOL    HW284952   6.237   6.769  13.840  0.0000  0.6266 -0.5817
55654SOL     OW84953   5.347   3.512   0.762 -0.3955  0.5195 -0.5419
55654SOL    HW184954   5.258   3.536   0.790 -1.0096 -2.6987  0.6972
55654SOL    HW284955   5.334   3.472   0.676 -0.7460 -2.6254  0.8308
55655SOL     OW84956   7.063   2.532  11.030  0.0366  0.5445  0.3609
55655SOL    HW184957   7.029   2.522  10.941 -1.8023  2.0757  0.8078
55655SOL    HW284958   6.997   2.490  11.085  0.6945  0.4017  1.0541
55656SOL     OW84959   2.142  13.598   7.226  0.1441 -0.1138  0.2886
55656SOL    HW184960   2.140  13.686   7.263 -1.0959 -0.9477  2.3906
55656SOL    HW284961   2.059  13.590   7.179  0.4430 -0.0349 -0.2628
55657SOL     OW84962  11.242   9.105   8.067  0.0731 -0.3477  0.8773
55657SOL    HW184963  11.229   9.129   8.159 -0.2308  3.1318  0.0308
55657SOL    HW284964  11.330   9.066   8.065  0.9007  1.3292  2.3783
55658SOL     OW84965  11.609   4.338   4.477 -0.0727  0.3216 -0.3625
55658SOL    HW184966  11.620   4.432   4.487 -1.5209  0.6794 -1.7505
55658SOL    HW284967  11.584   4.307   4.564  1.3429  1.0233  0.3368
55659SOL     OW84968  10.997   3.545   2.657  0.2981 -0.0821 -0.0922
55659SOL    HW184969  11.042   3.574   2.737  3.0660  0.3294 -1.6612
55659SOL    HW284970  10.959   3.461   2.680 -0.8343  0.9582  2.2211
55660SOL     OW84971   2.620   0.721   6.087 -0.6243 -0.1608  0.3089
55660SOL    HW184972   2.578   0.710   6.001  0.8716  0.5440 -0.5578
55660SOL    HW284973   2.605   0.638   6.132  0.1159 -1.2619 -1.3640
55661SOL     OW84974   4.829   6.619   6.708 -0.1241 -0.2471  0.6296
55661SOL    HW184975   4.853   6.709   6.725  0.2160 -0.1301 -0.4028
55661SOL    HW284976   4.878   6.568   6.772  0.1623  0.2549  0.8136
55662SOL     OW84977   7.404   2.967   4.798 -0.8745  0.4452 -0.4269
55662SOL    HW184978   7.460   2.949   4.722  0.8150  1.6889  0.4594
55662SOL    HW284979   7.463   3.005   4.863 -1.6332 -2.9073  2.5811
55663SOL     OW84980  13.558   0.602   0.447  0.1128 -0.6561  0.2331
55663SOL    HW184981  13.469   0.622   0.477  0.7515  0.4503  1.4946
55663SOL    HW284982  13.582   0.523   0.495 -0.0514 -0.7493  0.1644
55664SOL     OW84983   7.710  13.193   5.540  0.2531  0.3801 -0.2723
55664SOL    HW184984   7.690  13.287   5.537 -0.2206  0.2655 -0.8753
55664SOL    HW284985   7.803  13.189   5.563  0.3052  1.0007 -0.3525
55665SOL     OW84986  13.089   1.152   0.518 -0.0074  0.2420  0.1053
55665SOL    HW184987  13.040   1.145   0.436 -1.1393  1.4753  0.6225
55665SOL    HW284988  13.025   1.186   0.581  1.3571  1.3404  0.9740
55666SOL     OW84989   2.223   9.603  12.621 -0.2907 -0.0654 -0.1156
55666SOL    HW184990   2.140   9.555  12.618 -1.1123  1.2256  0.4386
55666SOL    HW284991   2.284   9.543  12.664 -1.4252 -0.4322  1.0764
55667SOL     OW84992  10.226   6.817  14.062 -0.1336 -0.2504  0.1232
55667SOL    HW184993  10.222   6.912  14.046 -0.2264 -0.5136 -1.6523
55667SOL    HW284994  10.202   6.807  14.154 -3.0812  1.2551 -0.3417
55668SOL     OW84995  14.065   9.981   6.360 -0.6982 -0.4045  0.3920
55668SOL    HW184996  14.099  10.009   6.275 -0.5486 -2.5246 -0.2992
55668SOL    HW284997  14.095  10.049   6.421  1.4077 -0.1279 -0.8314
55669SOL     OW84998   5.384   9.110  12.736  0.1246 -0.2418  0.1487
55669SOL    HW184999   5.385   9.188  12.679  0.1025  0.5546  1.2127
55669SOL    HW285000   5.476   9.098  12.760 -0.0164  0.1636  0.9152
55670SOL     OW85001   0.539  12.979   0.326  0.6099 -0.3109  0.2383
55670SOL    HW185002   0.601  12.922   0.371  0.5104 -1.0085 -0.4977
55670SOL    HW285003   0.545  13.062   0.374  1.7562 -0.5084  0.4770
55671SOL     OW85004  10.568  13.888   4.987 -0.2420 -0.0033 -0.4796
55671SOL    HW185005  10.661  13.867   4.976  0.0617  0.4280  0.9830
55671SOL    HW285006  10.522  13.811   4.953  0.6589 -0.3793 -0.8892
55672SOL     OW85007  13.652   9.594   5.789 -0.3762  0.6322  0.0282
55672SOL    HW185008  13.692   9.517   5.749  3.1300  1.6378  1.1950
55672SOL    HW285009  13.614   9.562   5.871 -1.1975 -0.2355 -0.6803
55673SOL     OW85010   5.823  13.354   9.459  0.1332 -0.0861 -0.1400
55673SOL    HW185011   5.804  13.433   9.407 -0.0069 -0.2099 -0.2786
55673SOL    HW285012   5.739  13.332   9.499 -0.1637 -0.9604 -1.1937
55674SOL     OW85013  11.170  13.964   4.030 -0.4757 -0.1816  0.0889
55674SOL    HW185014  11.145  13.960   4.123 -0.1559  0.4385  0.2088
55674SOL    HW285015  11.263  13.984   4.031 -0.4858 -0.1060 -0.3661
55675SOL     OW85016   6.560   3.730  12.960 -0.2464 -0.2954  0.0056
55675SOL    HW185017   6.502   3.806  12.962 -0.3281 -0.3627  0.2409
55675SOL    HW285018   6.556   3.699  12.869 -0.9593 -0.5912  0.1310
55676SOL     OW85019   8.686   9.992  13.730 -0.0945  0.2109  0.1651
55676SOL    HW185020   8.629  10.007  13.655 -2.0013 -0.2111  1.4768
55676SOL    HW285021   8.694   9.897  13.737  0.2437  0.2508  0.3820
55677SOL     OW85022  14.056   3.362  11.943  0.2393 -0.1645  0.4680
55677SOL    HW185023  14.095   3.281  11.911 -0.9334 -1.8463  2.9618
55677SOL    HW285024  13.963   3.343  11.948 -0.2845  1.9563 -0.4424
55678SOL     OW85025   5.535   4.977   4.930  0.2697 -0.8682  0.5187
55678SOL    HW185026   5.536   4.940   4.842 -1.2159  2.3572 -1.0381
55678SOL    HW285027   5.610   4.937   4.973  1.8190 -1.7072 -2.6202
55679SOL     OW85028  13.165   6.151   3.516  0.0042 -0.2196 -0.1026
55679SOL    HW185029  13.094   6.092   3.492 -1.1848 -0.0723  2.6225
55679SOL    HW285030  13.168   6.217   3.447 -0.2909 -2.0236 -1.9225
55680SOL     OW85031   8.054   9.764   1.190 -0.2854  0.0493  0.0662
55680SOL    HW185032   8.046   9.678   1.148 -1.5248 -0.2635  0.8826
55680SOL    HW285033   8.054   9.826   1.118  0.0481 -0.5996 -0.5068
55681SOL     OW85034   7.083   6.515   0.033  0.5609  0.6899 -0.0654
55681SOL    HW185035   7.033   6.589   0.069  0.0139  0.2585  0.0811
55681SOL    HW285036   7.170   6.523   0.073  0.1138  0.5156  0.9663
55682SOL     OW85037  12.982   0.271  12.849 -0.1260 -0.1461 -0.5210
55682SOL    HW185038  12.896   0.310  12.839  0.6701  1.4340 -1.5144
55682SOL    HW285039  12.980   0.230  12.935 -1.2537  1.4753  0.2709
55683SOL     OW85040   5.322   7.731   0.635  0.2388 -0.3887 -0.0802
55683SOL    HW185041   5.403   7.680   0.635 -0.1010 -0.9571  1.1889
55683SOL    HW285042   5.269   7.690   0.566  0.0917 -1.5891  0.7078
55684SOL     OW85043   8.145   0.571  10.607 -0.0194  0.1746  0.3881
55684SOL    HW185044   8.188   0.519  10.675 -1.1561 -2.7586 -0.9586
55684SOL    HW285045   8.077   0.620  10.654  0.7446  0.0429  1.6703
55685SOL     OW85046   8.836   8.549   1.253 -0.3747  0.6678 -0.1920
55685SOL    HW185047   8.883   8.617   1.205  0.5006  0.4087  0.2833
55685SOL    HW285048   8.791   8.596   1.323 -1.1624  0.9676 -0.8866
55686SOL     OW85049  11.732   5.801   0.809 -0.0983  0.6493  0.4448
55686SOL    HW185050  11.716   5.714   0.846 -2.4718  0.2762 -1.2106
55686SOL    HW285051  11.659   5.854   0.840 -0.6461  1.0469 -1.3866
55687SOL     OW85052   8.884   8.414   5.979 -0.8843  0.2656  0.1810
55687SOL    HW185053   8.868   8.497   5.933  0.5097  0.0686 -0.7382
55687SOL    HW285054   8.936   8.363   5.917 -1.1687 -1.0478  1.0000
55688SOL     OW85055  12.074   9.560   8.561 -0.4052 -0.0763  0.1613
55688SOL    HW185056  12.015   9.488   8.586  0.1398 -0.3314  0.7500
55688SOL    HW285057  12.157   9.517   8.541 -0.3290  0.3112 -0.3730
55689SOL     OW85058   2.459  10.132   5.577 -0.0460  0.1359  0.4814
55689SOL    HW185059   2.540  10.082   5.563  0.7331  1.0235  1.6285
55689SOL    HW285060   2.391  10.080   5.533  1.6657  1.4219 -4.3428
55690SOL     OW85061   5.917  13.324   3.252  0.0853  0.3176 -0.1219
55690SOL    HW185062   5.953  13.261   3.314  0.3223  0.4071 -0.1672
55690SOL    HW285063   5.825  13.334   3.277  0.8255  2.5438  2.0312
55691SOL     OW85064  10.380   4.377   9.785  0.1906  0.0376  0.2993
55691SOL    HW185065  10.438   4.320   9.735  0.1227  1.3345 -1.3533
55691SOL    HW285066  10.432   4.456   9.801 -0.2445  0.1632  1.1445
55692SOL     OW85067   0.945  10.294   6.603 -0.7897 -0.2290 -0.5689
55692SOL    HW185068   0.918  10.246   6.681 -1.2675  1.5268  0.4034
55692SOL    HW285069   1.025  10.340   6.630 -0.3642 -0.4250 -1.4550
55693SOL     OW85070  10.610   9.660   3.114 -0.0846 -0.6150 -0.0017
55693SOL    HW185071  10.549   9.595   3.080  0.5208 -1.5197  0.6053
55693SOL    HW285072  10.649   9.699   3.036  0.1032 -1.5220 -0.3741
55694SOL     OW85073   1.916  10.263   8.320 -0.2130 -0.2671 -0.5079
55694SOL    HW185074   1.993  10.237   8.370 -1.3435 -1.5412  0.6456
55694SOL    HW285075   1.877  10.334   8.371 -0.2537 -0.1711 -0.6720
55695SOL     OW85076   3.801  11.247  10.399 -0.3168  0.2518 -0.0833
55695SOL    HW185077   3.886  11.206  10.413  0.7363  2.4703  0.4617
55695SOL    HW285078   3.775  11.219  10.311  0.2509 -1.6388  0.3233
55696SOL     OW85079   2.835  12.922   3.290  0.2966 -0.1449  0.2195
55696SOL    HW185080   2.819  12.851   3.228 -1.9076  0.2626  0.2281
55696SOL    HW285081   2.830  12.880   3.376 -2.4156  0.1103  0.2997
55697SOL     OW85082  13.166  10.339   9.850  0.3169 -0.0450  0.1998
55697SOL    HW185083  13.246  10.286   9.847  0.2950 -0.3152  2.5355
55697SOL    HW285084  13.173  10.396   9.774  2.4459 -0.4784 -0.0114
55698SOL     OW85085   9.392   0.953   3.615  0.1923  0.4570 -0.3531
55698SOL    HW185086   9.381   1.017   3.545  0.9445  1.6586  0.5954
55698SOL    HW285087   9.448   0.996   3.679  0.1029 -0.8752  0.6725
55699SOL     OW85088   6.317   7.719   7.696  0.3088  0.6199 -0.2082
55699SOL    HW185089   6.366   7.800   7.699  1.1177  0.1232  0.2974
55699SOL    HW285090   6.327   7.687   7.606  1.1099  0.4087 -0.0471
55700SOL     OW85091   0.720   1.903   2.345  0.2630  0.1197  0.3528
55700SOL    HW185092   0.648   1.898   2.408  0.4530 -0.0545  0.5598
55700SOL    HW285093   0.781   1.835   2.374  0.6393  0.4506  0.3456
55701SOL     OW85094   1.681   9.394  11.551 -0.7219 -0.2553  0.4472
55701SOL    HW185095   1.707   9.316  11.503 -1.4282 -1.1965  1.5650
55701SOL    HW285096   1.587   9.384  11.565 -0.6033  0.2171  1.6235
55702SOL     OW85097   8.687   6.776   9.615 -0.4826 -0.1495 -0.7248
55702SOL    HW185098   8.646   6.765   9.701  0.6846 -0.8259 -0.2330
55702SOL    HW285099   8.618   6.814   9.560 -1.1186  0.6961  0.6185
55703SOL     OW85100   7.565   9.866   2.286 -0.0540 -0.1243 -0.5177
55703SOL    HW185101   7.545   9.915   2.366  1.4727 -0.5536  0.1685
55703SOL    HW285102   7.578   9.776   2.316  1.5077 -0.1142 -1.0614
55704SOL     OW85103   9.688   4.894   8.938  0.2405  0.2614  0.1677
55704SOL    HW185104   9.665   4.890   9.031 -0.2185  1.1175  0.0991
55704SOL    HW285105   9.639   4.821   8.899 -0.0701  0.2883  0.4936
55705SOL     OW85106  11.801   3.583   7.884 -0.6803  0.1247  0.2215
55705SOL    HW185107  11.755   3.500   7.873 -3.6786  1.7768 -0.9748
55705SOL    HW285108  11.790   3.605   7.976 -1.0987 -0.1605  0.2418
55706SOL     OW85109   9.354  13.861   1.075 -0.4820  0.4173 -0.3583
55706SOL    HW185110   9.340  13.768   1.091  0.2738  0.0446 -1.6995
55706SOL    HW285111   9.430  13.884   1.127 -0.1604  0.0786 -0.6761
55707SOL     OW85112   9.064  11.066   9.495  0.2705 -0.1791 -0.2490
55707SOL    HW185113   8.981  11.095   9.456 -0.1501 -0.3025  0.5409
55707SOL    HW285114   9.039  10.995   9.555  0.8275  0.3986  0.6898
55708SOL     OW85115   5.222   2.983   3.509 -0.4201 -0.0865 -0.4733
55708SOL    HW185116   5.274   3.031   3.573 -0.9133  0.4607 -0.4791
55708SOL    HW285117   5.246   3.022   3.425 -0.0643 -0.5418 -0.5895
55709SOL     OW85118  13.867   0.967   4.573 -0.2567 -0.1956 -0.0582
55709SOL    HW185119  13.781   0.927   4.587 -0.9951  0.2759 -2.6378
55709SOL    HW285120  13.852   1.032   4.504  1.9205  0.9185  0.4217
55710SOL     OW85121   8.344   8.607   0.731  0.6807  0.1775 -0.2786
55710SOL    HW185122   8.286   8.606   0.807  0.0978 -0.1672 -0.7175
55710SOL    HW285123   8.398   8.528   0.741  1.1400  0.5422  0.1727
55711SOL     OW85124   3.154   1.605   9.701  0.0348  0.3593 -0.2938
55711SOL    HW185125   3.121   1.542   9.765  0.6302 -1.2907 -1.5352
55711SOL    HW285126   3.091   1.677   9.704  0.6685  0.9397  2.9510
55712SOL     OW85127   6.077  12.994  13.747 -0.0909 -0.1380  0.3793
55712SOL    HW185128   6.144  12.948  13.697  2.0096  2.4226  0.6291
55712SOL    HW285129   6.009  13.014  13.683  0.4059 -0.8617 -0.3914
55713SOL     OW85130   8.164   0.010   5.706 -0.5366  0.1797 -0.2399
55713SOL    HW185131   8.094  -0.034   5.656 -0.6192  0.7411 -0.6296
55713SOL    HW285132   8.119   0.078   5.755 -0.2797  0.4778 -0.4130
55714SOL     OW85133  12.217   4.464   1.112  0.3455 -0.0208 -0.1280
55714SOL    HW185134  12.262   4.394   1.065 -1.3500 -2.5368  1.6860
55714SOL    HW285135  12.165   4.508   1.045  1.8321 -0.1319 -1.4150
55715SOL     OW85136  12.176   5.894   7.121  0.0245  0.4398  0.0324
55715SOL    HW185137  12.217   5.852   7.196 -1.7441 -2.1484 -0.2771
55715SOL    HW285138  12.220   5.855   7.045 -0.9030 -0.0905 -0.2565
55716SOL     OW85139   4.924   3.459   4.462  0.2494  0.5913  0.3293
55716SOL    HW185140   4.986   3.398   4.423  0.7433  0.3417  1.4742
55716SOL    HW285141   4.888   3.413   4.538  1.0740  1.9060  1.5675
55717SOL     OW85142  13.670   2.166  13.023 -0.2567 -0.4137  0.3188
55717SOL    HW185143  13.629   2.245  13.058 -1.5578 -0.0091 -1.9614
55717SOL    HW285144  13.598   2.114  12.988  0.8590 -1.2448 -0.8444
55718SOL     OW85145   3.514   1.449  12.878 -0.5249 -0.3664 -0.2265
55718SOL    HW185146   3.483   1.389  12.945 -0.9972 -0.0573 -0.1633
55718SOL    HW285147   3.558   1.519  12.927 -0.5496 -0.3249 -0.2641
55719SOL     OW85148  13.766   2.914  13.551  0.2003 -0.4765  0.0607
55719SOL    HW185149  13.834   2.938  13.615  0.7605 -0.1947 -0.6332
55719SOL    HW285150  13.771   2.819  13.544  0.5854 -0.4475 -0.0560
55720SOL     OW85151   8.209  12.047   2.684 -0.1845 -0.3455  0.5601
55720SOL    HW185152   8.218  12.142   2.675 -1.8281 -0.2301 -0.0675
55720SOL    HW285153   8.253  12.011   2.606  0.4046 -0.1160  0.7793
55721SOL     OW85154   9.534   9.113   3.637  1.1411  0.1328 -0.3588
55721SOL    HW185155   9.564   9.185   3.693  0.9254 -0.2845  0.3074
55721SOL    HW285156   9.570   9.034   3.678  0.3933 -0.2397 -0.4120
55722SOL     OW85157   9.792   4.529  11.283  0.3856  0.7295 -0.4961
55722SOL    HW185158   9.801   4.475  11.205 -2.0431 -0.6844  0.1139
55722SOL    HW285159   9.710   4.577  11.270  0.3517  1.0720  0.8273
55723SOL     OW85160   7.214  13.783  13.228  0.5923 -0.6259 -0.3049
55723SOL    HW185161   7.199  13.772  13.134 -1.5582 -1.2516  0.0633
55723SOL    HW285162   7.274  13.712  13.251 -1.8117 -2.8924 -0.5834
55724SOL     OW85163   7.224   7.285  13.211  0.3839 -0.1801 -0.5288
55724SOL    HW185164   7.182   7.334  13.140  0.9502  1.2436  0.0745
55724SOL    HW285165   7.316   7.278  13.185  0.3568 -0.7258 -0.4914
55725SOL     OW85166   3.732   1.429  12.044 -0.2394 -0.0559  0.0686
55725SOL    HW185167   3.714   1.475  11.962 -1.0949  0.5219  0.5559
55725SOL    HW285168   3.803   1.479  12.085  0.0335 -0.2128 -0.2093
55726SOL     OW85169   2.050  10.929  11.803  0.0612 -0.4886  0.0469
55726SOL    HW185170   2.048  10.946  11.709  0.6044  0.4305  0.1820
55726SOL    HW285171   1.967  10.965  11.836  1.2739  2.2968  0.3548
55727SOL     OW85172   1.496   6.559   3.482  0.1860  0.7045 -0.1095
55727SOL    HW185173   1.552   6.481   3.488 -1.0580 -0.1729  0.5045
55727SOL    HW285174   1.555   6.632   3.498  1.1682 -0.1864  0.4660
55728SOL     OW85175   5.099  11.185   5.457 -0.0266  0.1453  0.4585
55728SOL    HW185176   5.024  11.127   5.463 -0.3424  0.6362  1.7165
55728SOL    HW285177   5.167  11.142   5.509  0.9373 -0.7964 -1.4986
55729SOL     OW85178   8.957   3.870  14.145  0.7393 -0.3264 -0.5562
55729SOL    HW185179   8.923   3.907  14.064  0.8702  2.0518  0.3999
55729SOL    HW285180   9.050   3.857  14.129  0.6515 -0.4441 -0.9770
55730SOL     OW85181   1.895   9.667  11.359  0.1058  0.1306 -0.2728
55730SOL    HW185182   1.860   9.729  11.295 -0.9235  0.1108  0.2494
55730SOL    HW285183   1.818   9.635  11.406  0.9450  1.8392  2.5186
55731SOL     OW85184   0.648  11.229  10.225  0.0569  0.0206 -0.2981
55731SOL    HW185185   0.592  11.185  10.289  1.0747 -0.4078  0.3173
55731SOL    HW285186   0.724  11.172  10.216  0.5249  0.7230 -0.9218
55732SOL     OW85187   8.769   2.978  11.407  0.2159 -0.4382 -0.1488
55732SOL    HW185188   8.815   3.062  11.413 -0.0871 -0.2905  0.1013
55732SOL    HW285189   8.747   2.956  11.497  0.2873 -0.7865 -0.2141
55733SOL     OW85190   7.654   5.784   0.103  0.3718  0.3483  0.0560
55733SOL    HW185191   7.707   5.714   0.141  0.7469  0.9260  0.6013
55733SOL    HW285192   7.599   5.739   0.038  1.6020 -0.2312 -0.6072
55734SOL     OW85193   8.165   0.148   7.782  0.7262 -0.1466 -0.5421
55734SOL    HW185194   8.198   0.237   7.793  1.9721 -0.6549  0.0356
55734SOL    HW285195   8.069   0.158   7.783  0.8382  1.1965 -0.6935
55735SOL     OW85196   0.921  10.111  13.456  0.2293 -0.1088  0.5273
55735SOL    HW185197   0.927  10.192  13.507 -2.4941  0.9559 -0.6462
55735SOL    HW285198   0.888  10.046  13.519 -2.3889  1.0103  0.4498
55736SOL     OW85199   6.188  12.946   1.445  0.5380 -0.2476  0.5906
55736SOL    HW185200   6.245  12.971   1.517 -1.4685  0.9964  1.8258
55736SOL    HW285201   6.100  12.966   1.475 -0.3792  0.6177 -2.2996
55737SOL     OW85202   5.576   1.461   5.430  0.4208 -0.2219  0.6675
55737SOL    HW185203   5.567   1.498   5.342  1.7100 -0.0018  0.6174
55737SOL    HW285204   5.528   1.521   5.487  1.3873  0.8251  0.4002
55738SOL     OW85205   4.379  10.992  10.650  0.2313 -0.3977 -0.9130
55738SOL    HW185206   4.431  11.040  10.586 -0.3832  1.7420  0.1077
55738SOL    HW285207   4.417  11.016  10.735 -1.1625 -0.3557 -0.2653
55739SOL     OW85208   3.474  10.709   9.816  0.2035  0.3027  0.1177
55739SOL    HW185209   3.510  10.655   9.887  0.6971 -1.4964 -1.3878
55739SOL    HW285210   3.385  10.675   9.804  0.1923  0.4647 -0.2449
55740SOL     OW85211   8.722   3.321  12.119 -0.2659 -0.2916 -0.2036
55740SOL    HW185212   8.681   3.243  12.154 -1.5742 -0.0619 -1.1337
55740SOL    HW285213   8.801   3.333  12.171  0.4912 -2.7732 -0.6552
55741SOL     OW85214   9.046   0.022   5.399  0.7076 -0.3080 -0.0553
55741SOL    HW185215   9.032  -0.058   5.348  0.6455 -0.4483  0.1800
55741SOL    HW285216   9.141   0.025   5.414  0.6247 -0.7437  0.5889
55742SOL     OW85217  11.780   3.234   9.566 -0.1731 -0.3416 -0.2898
55742SOL    HW185218  11.787   3.200   9.477 -1.5973  1.0117 -0.9446
55742SOL    HW285219  11.758   3.327   9.556 -3.0748 -0.7121  1.4241
55743SOL     OW85220   8.899   5.027   7.437 -0.1841  0.3488  0.2631
55743SOL    HW185221   8.900   5.060   7.527 -1.2060 -1.3373  0.9312
55743SOL    HW285222   8.985   5.051   7.403  0.0331  1.4922  1.5016
55744SOL     OW85223  12.803  10.774   5.214 -0.2051 -0.0868 -0.7047
55744SOL    HW185224  12.852  10.724   5.280  1.9250  2.5280 -0.1280
55744SOL    HW285225  12.846  10.751   5.131  0.8458  0.7977 -0.4294
55745SOL     OW85226   7.337   8.009  12.758  0.1261 -0.3860  0.1700
55745SOL    HW185227   7.296   8.037  12.840  1.9013 -2.4601  1.8400
55745SOL    HW285228   7.370   7.922  12.775  1.2543 -0.5912 -2.5492
55746SOL     OW85229   4.549  11.550   6.782  0.2566  0.0331 -0.2980
55746SOL    HW185230   4.460  11.579   6.799 -1.4037 -3.3886 -2.1582
55746SOL    HW285231   4.586  11.618   6.725 -0.7431  1.9348  1.1920
55747SOL     OW85232   1.692   2.543  12.477 -0.8947  0.0842 -0.2811
55747SOL    HW185233   1.708   2.592  12.558 -1.5952  0.2171 -0.2145
55747SOL    HW285234   1.752   2.469  12.481  1.1573  1.5969 -0.9948
55748SOL     OW85235   9.293   6.112   5.220 -0.4065 -0.1358  0.2851
55748SOL    HW185236   9.219   6.051   5.221 -0.0709 -0.5400  1.0061
55748SOL    HW285237   9.261   6.190   5.264 -0.7316  0.0978 -0.3457
55749SOL     OW85238  11.317  13.493   7.752  0.4074  0.1830 -0.8561
55749SOL    HW185239  11.390  13.483   7.690  0.4543 -0.7103 -0.6695
55749SOL    HW285240  11.357  13.535   7.828  0.3714  1.1941 -1.3795
55750SOL     OW85241  11.151  13.275   7.567 -0.2224 -0.3256  0.6669
55750SOL    HW185242  11.195  13.306   7.646  0.2834 -1.2634  0.7668
55750SOL    HW285243  11.074  13.228   7.598 -2.0365  2.3151  0.4567
55751SOL     OW85244   8.704  11.482   6.989 -0.0183 -0.0749 -0.7730
55751SOL    HW185245   8.696  11.404   7.043 -1.6693  0.8705  0.4630
55751SOL    HW285246   8.690  11.451   6.900 -2.1229 -1.0464 -0.1868
55752SOL     OW85247   6.428   2.077  12.107 -0.7196 -0.3624  0.1016
55752SOL    HW185248   6.454   2.085  12.015  0.6033 -1.0916  0.3987
55752SOL    HW285249   6.389   2.162  12.129  0.3786  0.3574 -0.6872
55753SOL     OW85250  11.790  13.039  12.355 -0.4033 -0.0168 -0.2519
55753SOL    HW185251  11.851  13.075  12.290 -1.9891 -1.7388 -2.8816
55753SOL    HW285252  11.770  13.113  12.412  1.0864  1.6083 -1.7123
55754SOL     OW85253   4.041   3.344   9.237 -0.0570  0.5283  0.3034
55754SOL    HW185254   4.098   3.336   9.313 -1.9858  1.0559  1.9002
55754SOL    HW285255   4.052   3.263   9.188  0.4253 -0.2826  1.7319
55755SOL     OW85256   4.959   7.346   2.122 -0.2532 -1.0021  0.7678
55755SOL    HW185257   4.886   7.400   2.154 -0.7519 -1.0959 -0.1877
55755SOL    HW285258   5.027   7.356   2.189 -0.2477  0.9948  0.5386
55756SOL     OW85259  13.717   3.074  10.690 -0.8495  0.0155  0.3728
55756SOL    HW185260  13.706   3.158  10.645  1.2531  0.9203  1.4107
55756SOL    HW285261  13.792   3.034  10.647 -0.4975 -0.3410  1.3140
55757SOL     OW85262   8.644   9.205   1.165 -0.7727  0.6919  0.2166
55757SOL    HW185263   8.592   9.205   1.246  0.2946 -0.3813  0.9223
55757SOL    HW285264   8.735   9.205   1.194 -0.3626  0.7285 -1.0028
55758SOL     OW85265   1.188   7.178   0.656 -0.3567 -0.3114  0.8525
55758SOL    HW185266   1.235   7.161   0.738  0.0704  1.6949  1.0817
55758SOL    HW285267   1.226   7.260   0.624 -2.3176  0.3143 -0.0042
55759SOL     OW85268   5.046   8.023   6.995 -0.3494 -0.6925  0.2885
55759SOL    HW185269   5.034   7.957   6.927 -1.7945 -0.5248  0.3498
55759SOL    HW285270   5.141   8.030   7.005 -0.1357 -1.5107 -0.9249
55760SOL     OW85271  12.938   9.538   9.626 -0.1408  0.9279  0.4950
55760SOL    HW185272  12.983   9.586   9.556  0.5297  0.2294  0.4306
55760SOL    HW285273  13.009   9.507   9.683 -0.6146  0.6772  0.9533
55761SOL     OW85274   6.277  11.045   6.553  0.0644  0.3363  0.0703
55761SOL    HW185275   6.218  10.970   6.562  0.5368  0.1135  1.5623
55761SOL    HW285276   6.224  11.112   6.509 -0.4694 -0.7302 -0.9812
55762SOL     OW85277   8.796   6.313  13.955 -0.7085  0.0157 -0.7616
55762SOL    HW185278   8.858   6.270  14.014  0.4824 -0.8031 -2.5357
55762SOL    HW285279   8.714   6.266  13.967 -1.0566  1.0830  1.5865
55763SOL     OW85280   6.067   5.325   3.766  0.1511  0.1795  0.5233
55763SOL    HW185281   6.141   5.298   3.712 -0.4752  0.6119 -0.5707
55763SOL    HW285282   5.990   5.310   3.712 -0.4558  1.1014  1.0922
55764SOL     OW85283   5.562   0.077   6.763  0.3003  0.0002  0.1620
55764SOL    HW185284   5.492   0.013   6.774 -0.3058  0.3538 -1.3523
55764SOL    HW285285   5.623   0.060   6.835 -0.0562 -1.9752  0.0351
55765SOL     OW85286   5.822  10.383   4.222 -0.0930  0.8967  0.1713
55765SOL    HW185287   5.873  10.411   4.146 -0.7475 -1.3087 -1.1933
55765SOL    HW285288   5.756  10.452   4.234 -0.3141  1.0538 -1.6275
55766SOL     OW85289   0.395   0.441   0.124 -0.8155 -0.4548 -0.1780
55766SOL    HW185290   0.430   0.530   0.113 -0.8531 -0.1142  1.9721
55766SOL    HW285291   0.314   0.453   0.173 -1.4126 -1.6270 -0.8350
55767SOL     OW85292  13.062  10.539  10.569  0.3074 -0.1857  0.0072
55767SOL    HW185293  13.139  10.553  10.515 -0.9717  1.4128 -1.5422
55767SOL    HW285294  13.021  10.625  10.575 -0.1473 -0.4813  2.7930
55768SOL     OW85295   3.133   9.704  10.483  0.6159 -0.0306  0.3067
55768SOL    HW185296   3.180   9.760  10.546  0.3202  1.1232 -0.4761
55768SOL    HW285297   3.117   9.761  10.408 -0.6739 -0.8614 -0.0681
55769SOL     OW85298  11.037   2.400  12.458  0.5024  0.1109  0.7349
55769SOL    HW185299  11.014   2.380  12.367  0.3406  0.0991  0.7766
55769SOL    HW285300  10.961   2.370  12.509 -1.1075  3.4525  0.5597
55770SOL     OW85301  11.653   3.183   0.421 -0.0898 -0.1992 -0.2104
55770SOL    HW185302  11.580   3.223   0.375  0.5863  3.1718  1.3003
55770SOL    HW285303  11.731   3.226   0.384  0.7250 -0.2531  1.3297
55771SOL     OW85304   7.504  11.618  13.893 -0.2998 -0.0888 -0.1771
55771SOL    HW185305   7.465  11.666  13.966 -1.4563 -1.5203  0.1861
55771SOL    HW285306   7.574  11.675  13.861  0.3314  0.5133  2.1314
55772SOL     OW85307   2.827   7.841   2.246 -0.1297  0.2742  0.0237
55772SOL    HW185308   2.838   7.750   2.219  2.0995  0.0694  1.4383
55772SOL    HW285309   2.751   7.839   2.305  1.4498 -1.2259  2.1566
55773SOL     OW85310   7.643   0.982   4.221  0.2038 -0.1089  0.0051
55773SOL    HW185311   7.583   0.987   4.296  0.0353 -1.0129 -0.0579
55773SOL    HW285312   7.604   1.041   4.156 -0.4404 -0.4154  0.0973
55774SOL     OW85313   0.140  11.039   0.108  0.5128 -0.1390  0.1122
55774SOL    HW185314   0.210  10.984   0.072 -0.4054 -1.7646  0.7091
55774SOL    HW285315   0.140  11.020   0.201 -0.9010 -0.4158  0.0848
55775SOL     OW85316   3.524   8.899  12.731 -0.3505  0.3486  0.6313
55775SOL    HW185317   3.536   8.994  12.722 -0.6036  0.3018 -0.2676
55775SOL    HW285318   3.529   8.865  12.642 -0.1323 -0.5085  0.9518
55776SOL     OW85319   8.594   8.366   9.937 -0.2902  0.8000  0.1297
55776SOL    HW185320   8.506   8.329   9.928 -0.2091  0.7498 -0.4759
55776SOL    HW285321   8.596   8.399  10.027  0.1557 -1.9658  1.2342
55777SOL     OW85322   1.694  11.862   1.586  0.2186 -0.5541 -0.1288
55777SOL    HW185323   1.727  11.898   1.669  0.0008 -0.0623 -0.2534
55777SOL    HW285324   1.711  11.768   1.593 -0.3198 -0.6035  0.7199
55778SOL     OW85325  11.983   1.919  13.163  0.0328  0.2983  0.0564
55778SOL    HW185326  12.025   1.833  13.169  1.0611  0.8436  1.2429
55778SOL    HW285327  12.040   1.976  13.214 -0.0485  1.9189 -1.5977
55779SOL     OW85328   2.505   9.648   8.490  0.2233  0.7250 -0.3457
55779SOL    HW185329   2.420   9.639   8.447 -0.8871 -0.8105  1.9489
55779SOL    HW285330   2.524   9.742   8.486 -2.2540  1.3328  0.1834
55780SOL     OW85331  12.768   2.479   7.558 -0.4343  0.5217  0.4028
55780SOL    HW185332  12.761   2.524   7.643  1.3980  0.4562  0.6303
55780SOL    HW285333  12.707   2.405   7.565  1.0657 -0.6176  2.4460
55781SOL     OW85334   8.396   8.444  12.539  0.3329  0.4868  0.3042
55781SOL    HW185335   8.438   8.503  12.477 -1.0745 -1.0263 -2.2725
55781SOL    HW285336   8.387   8.362  12.491 -1.4854 -0.5593  2.2812
55782SOL     OW85337   1.818   9.958  10.562 -0.5036 -0.1371 -0.7536
55782SOL    HW185338   1.862   9.964  10.647 -2.2444  1.2358  0.1354
55782SOL    HW285339   1.816   9.865  10.541 -0.5473 -0.5592  1.0163
55783SOL     OW85340  14.064  10.806   6.869 -0.1406  0.6973 -0.5704
55783SOL    HW185341  14.146  10.847   6.840  0.4366 -0.6124 -0.9024
55783SOL    HW285342  14.071  10.716   6.837  0.0058 -0.5283  2.5948
55784SOL     OW85343   9.370   4.249   6.792 -0.5713 -0.4360  0.4146
55784SOL    HW185344   9.318   4.274   6.868 -1.3748  0.7310 -0.4689
55784SOL    HW285345   9.377   4.330   6.740  1.9397 -0.6008  0.3590
55785SOL     OW85346  10.348   7.350   4.238  0.0353  0.3360  0.5419
55785SOL    HW185347  10.278   7.384   4.293 -0.4000  0.6266 -0.1738
55785SOL    HW285348  10.342   7.401   4.157  0.5414 -0.2031  0.1529
55786SOL     OW85349   3.543   6.753   0.007 -0.4877 -0.6301 -0.5033
55786SOL    HW185350   3.555   6.771   0.100  2.4955 -0.2988 -0.8541
55786SOL    HW285351   3.530   6.840  -0.032  1.2236 -0.4381 -0.7030
55787SOL     OW85352   7.330   3.978  12.084  0.6493  0.0297 -0.1772
55787SOL    HW185353   7.378   3.956  12.164  0.6910 -2.1172 -0.7202
55787SOL    HW285354   7.375   3.929  12.016 -1.3983 -0.9009 -0.9416
55788SOL     OW85355  11.100   2.611  11.691  0.3331 -0.0668  0.8903
55788SOL    HW185356  11.161   2.564  11.633  2.2832  1.8182  1.2629
55788SOL    HW285357  11.105   2.563  11.773 -1.9084 -2.3385 -0.1676
55789SOL     OW85358  14.130   9.263   0.548 -0.3816  0.1855  0.5266
55789SOL    HW185359  14.153   9.245   0.639 -0.6372  0.0167  0.5584
55789SOL    HW285360  14.128   9.359   0.542  1.8294  0.2838  0.1456
55790SOL     OW85361  12.529  10.332  11.558 -0.4052 -0.4923 -0.0905
55790SOL    HW185362  12.445  10.354  11.599  0.3847  1.8249  0.4325
55790SOL    HW285363  12.508  10.320  11.465 -1.1133  1.8957 -0.3094
55791SOL     OW85364  12.067   2.639  13.806 -0.4637 -0.5415 -0.0765
55791SOL    HW185365  11.989   2.637  13.752 -1.9728  1.1932  1.8341
55791SOL    HW285366  12.035   2.618  13.894  1.3923 -0.6396  0.6147
55792SOL     OW85367   3.436  13.757  13.552  0.2435 -0.2428 -0.9067
55792SOL    HW185368   3.459  13.707  13.630 -0.1864  1.1833  0.1638
55792SOL    HW285369   3.347  13.788  13.567  0.8103  1.6345 -1.0770
55793SOL     OW85370   9.395  12.155   6.475 -0.1617  0.3803 -0.6090
55793SOL    HW185371   9.386  12.241   6.518 -0.7246 -0.2221  0.5032
55793SOL    HW285372   9.454  12.106   6.533 -0.7063 -0.3515 -0.6762
55794SOL     OW85373  12.651  10.483  10.805 -0.4685 -0.0078  0.0718
55794SOL    HW185374  12.670  10.561  10.753 -1.6280  0.0714 -0.2593
55794SOL    HW285375  12.728  10.472  10.860  0.7290  0.0096 -1.5155
55795SOL     OW85376   2.101   4.603   9.003 -0.0783  0.0395 -0.0182
55795SOL    HW185377   2.118   4.669   9.070 -0.6858 -0.5299  0.7149
55795SOL    HW285378   2.018   4.563   9.029 -0.1445 -0.4396 -0.9159
55796SOL     OW85379   9.025   5.421   5.499  0.2830  0.1059  0.0213
55796SOL    HW185380   9.116   5.448   5.490  0.0007  1.1761  0.2181
55796SOL    HW285381   9.015   5.399   5.591 -0.3789  2.8936  0.6943
55797SOL     OW85382  10.942   4.986   9.378 -0.2044 -0.0542 -0.0952
55797SOL    HW185383  11.000   5.005   9.304  1.2659 -0.5253  0.8810
55797SOL    HW285384  10.936   4.890   9.378 -3.0765  0.0122 -1.6673
55798SOL     OW85385   8.497   1.614  10.201  0.1126 -0.7131  0.3317
55798SOL    HW185386   8.557   1.653  10.138 -1.0421 -0.5235 -0.6926
55798SOL    HW285387   8.543   1.620  10.285  1.0745  0.3780 -0.2423
55799SOL     OW85388  12.753   1.868   1.500  0.5847  0.3096 -0.3743
55799SOL    HW185389  12.757   1.825   1.414  1.6984 -0.9296  0.2535
55799SOL    HW285390  12.677   1.828   1.542  1.8276 -1.4546  0.3496
55800SOL     OW85391  10.417   1.536  11.022  0.4790  0.1665  0.0036
55800SOL    HW185392  10.324   1.519  11.005  0.5561  0.2091 -0.4923
55800SOL    HW285393  10.418   1.606  11.087  0.1664  0.3491 -0.1875
55801SOL     OW85394  11.219   5.927  12.733 -0.0492  0.4239 -0.2966
55801SOL    HW185395  11.263   5.993  12.787 -0.7400  0.2490  0.5074
55801SOL    HW285396  11.251   5.943  12.645  0.2558  1.4516 -0.0181
55802SOL     OW85397   6.902   0.337   8.008  0.2448 -0.0955 -0.5124
55802SOL    HW185398   6.893   0.414   8.065 -2.4794 -1.3904  1.0116
55802SOL    HW285399   6.966   0.282   8.052  0.9364  0.5272 -0.7162
55803SOL     OW85400   3.849   8.585  12.054  1.2432 -0.1669 -0.5716
55803SOL    HW185401   3.884   8.501  12.023  0.9608 -0.5430  0.1124
55803SOL    HW285402   3.857   8.643  11.978  0.7995 -0.9911 -1.2767
55804SOL     OW85403  13.564   0.926   8.043 -0.0643 -0.3485 -0.0538
55804SOL    HW185404  13.532   0.981   8.115  1.1678 -0.9911  1.0366
55804SOL    HW285405  13.595   0.989   7.978  0.4277  0.2689  0.7475
55805SOL     OW85406  11.828   0.082  13.304 -0.2978  0.3425 -0.1403
55805SOL    HW185407  11.735   0.091  13.283 -0.5747  1.4910  1.4765
55805SOL    HW285408  11.847  -0.011  13.287 -1.8935 -0.0593  0.1026
55806SOL     OW85409   4.250  10.156   7.939 -0.4877  0.2970 -0.0895
55806SOL    HW185410   4.168  10.204   7.947 -1.7910 -1.7776 -0.3246
55806SOL    HW285411   4.224  10.068   7.912  1.7334 -0.7678  0.9829
55807SOL     OW85412   1.118  12.751   7.424  0.0558 -0.3151 -0.3456
55807SOL    HW185413   1.088  12.668   7.388  1.1481 -0.3469 -1.2414
55807SOL    HW285414   1.081  12.754   7.512 -0.4761 -1.4800 -0.5171
55808SOL     OW85415   1.535  11.279   7.345  0.7803 -0.3778  0.2130
55808SOL    HW185416   1.600  11.347   7.328 -0.7198  1.1748  0.3848
55808SOL    HW285417   1.502  11.255   7.258  1.8990 -1.5494  0.0811
55809SOL     OW85418   5.994   6.457   6.324 -0.2243  0.7537  0.9372
55809SOL    HW185419   5.941   6.426   6.251  1.5244  0.6600 -0.3590
55809SOL    HW285420   5.936   6.517   6.372 -1.8649 -0.2626  0.3198
55810SOL     OW85421   3.687  13.837   6.291  0.2503 -0.1019 -0.3750
55810SOL    HW185422   3.635  13.841   6.211  0.0649 -1.2210 -0.3157
55810SOL    HW285423   3.737  13.756   6.283  1.2796  0.4714  0.0086
55811SOL     OW85424  12.630   1.410   9.357  0.2030 -0.3686  0.2905
55811SOL    HW185425  12.557   1.422   9.419  0.5102 -1.5340  0.9051
55811SOL    HW285426  12.589   1.418   9.271 -0.1917  1.5452  0.5979
55812SOL     OW85427  13.318   5.735  10.795  0.2905  0.1523  0.6754
55812SOL    HW185428  13.348   5.753  10.884 -0.6947  0.5821  0.9389
55812SOL    HW285429  13.299   5.821  10.758  1.1266  0.0054 -0.1205
55813SOL     OW85430   6.228   9.295   4.621  0.4305  0.7516 -0.2054
55813SOL    HW185431   6.172   9.319   4.694 -0.0212 -0.1928 -0.2369
55813SOL    HW285432   6.182   9.328   4.544  1.2305  2.3558 -0.0539
55814SOL     OW85433   7.131  11.295  11.070 -0.1370 -0.6456  0.2787
55814SOL    HW185434   7.131  11.267  10.979  1.6285 -0.5728  0.2234
55814SOL    HW285435   7.054  11.351  11.078  1.4812  2.2126 -2.1077
55815SOL     OW85436   5.442  10.273   3.694 -0.1553  0.2058  0.2446
55815SOL    HW185437   5.446  10.326   3.615 -1.2969 -1.4391 -0.9847
55815SOL    HW285438   5.349  10.263   3.712  0.0516 -0.8545  0.7959
55816SOL     OW85439  13.233   2.584   7.864 -0.6684 -0.5801 -0.1963
55816SOL    HW185440  13.193   2.653   7.917  0.0559  1.0494 -1.6470
55816SOL    HW285441  13.175   2.576   7.788  0.8616  0.7500 -1.5891
55817SOL     OW85442   1.852   3.085  12.563 -0.5550  0.1483 -0.0257
55817SOL    HW185443   1.841   3.173  12.597  1.6099  0.0717  1.0702
55817SOL    HW285444   1.916   3.094  12.492 -0.3861 -0.5204  0.0271
55818SOL     OW85445  11.613   3.622   5.555  0.2355 -0.8534 -0.0056
55818SOL    HW185446  11.697   3.587   5.526  1.1062  0.4143  0.8869
55818SOL    HW285447  11.600   3.583   5.641  0.5681 -0.0459  0.4210
55819SOL     OW85448   6.080   2.648   7.411 -0.4258  0.4236  0.4883
55819SOL    HW185449   6.098   2.738   7.440 -1.3214  0.7733  0.0053
55819SOL    HW285450   6.162   2.620   7.370 -0.2774  1.2073  0.2112
55820SOL     OW85451   1.040   1.583   4.593  0.0234  0.2504 -0.4838
55820SOL    HW185452   0.970   1.519   4.598 -0.6045  1.0269  1.8733
55820SOL    HW285453   1.112   1.544   4.642  0.6847  0.1469 -1.5115
55821SOL     OW85454   2.088   3.111   7.502  0.1852  0.7350 -0.3014
55821SOL    HW185455   2.177   3.098   7.468  0.0814  1.4606 -0.8685
55821SOL    HW285456   2.037   3.040   7.463  1.0312 -1.4727  2.2313
55822SOL     OW85457  12.951  13.224  11.429 -0.6006 -0.7946 -0.0170
55822SOL    HW185458  12.953  13.290  11.498  2.9081 -0.4305 -0.2967
55822SOL    HW285459  12.999  13.264  11.356  0.6429 -3.1686 -0.6239
55823SOL     OW85460   6.348   4.324   2.414 -0.1778  0.0131 -0.6679
55823SOL    HW185461   6.400   4.284   2.484 -0.6045  0.1436 -0.2682
55823SOL    HW285462   6.378   4.282   2.334  1.0904  0.6405 -0.5433
55824SOL     OW85463  12.317   3.171   0.812 -1.1928 -0.2877  0.2439
55824SOL    HW185464  12.330   3.160   0.907  2.1533 -1.7437 -0.2335
55824SOL    HW285465  12.374   3.244   0.788 -2.8379  0.7943 -0.5855
55825SOL     OW85466   1.490   1.190   8.746  0.1033  0.3707  0.1873
55825SOL    HW185467   1.579   1.215   8.771 -0.4088 -0.0024  2.7014
55825SOL    HW285468   1.499   1.102   8.709  0.8364  0.5950 -0.1927
55826SOL     OW85469   6.349  12.721  11.380 -1.2004  0.3295 -0.0856
55826SOL    HW185470   6.294  12.791  11.346  0.4470  2.4139  1.3139
55826SOL    HW285471   6.290  12.669  11.435 -2.6284  0.0677 -1.7599
55827SOL     OW85472   3.668   9.411   6.235 -0.0222 -0.0420 -0.5003
55827SOL    HW185473   3.616   9.369   6.304  0.7943  0.2143  0.2879
55827SOL    HW285474   3.611   9.408   6.157 -0.4120 -1.5815 -0.1876
55828SOL     OW85475  12.808  13.737   2.086 -0.0290  0.7534  0.7201
55828SOL    HW185476  12.805  13.700   2.174  2.1620  2.2684  1.5414
55828SOL    HW285477  12.777  13.668   2.029 -1.7461 -0.2064  2.6821
55829SOL     OW85478   6.916   2.075   0.493 -0.0498  0.1019 -0.4441
55829SOL    HW185479   6.920   2.095   0.400  0.7442  0.3309 -0.3691
55829SOL    HW285480   6.906   1.980   0.497 -0.0355  0.0860 -0.7669
55830SOL     OW85481  10.353   8.311   0.161 -0.4397 -0.2872 -0.3329
55830SOL    HW185482  10.264   8.279   0.143 -0.0665 -2.6198  1.4309
55830SOL    HW285483  10.344   8.362   0.241 -0.0582 -1.6406  0.6125
55831SOL     OW85484   0.462   9.901   5.079 -0.2571  0.5850 -0.1448
55831SOL    HW185485   0.502   9.936   5.158  2.3775  0.3388 -1.2662
55831SOL    HW285486   0.440   9.810   5.101  0.0010  0.6635  0.4537
55832SOL     OW85487   9.049   5.288   5.783  0.6565 -0.1164 -0.2469
55832SOL    HW185488   9.005   5.264   5.864 -0.4074  0.5424 -0.6048
55832SOL    HW285489   9.141   5.299   5.808  0.3503  0.0487  0.8661
55833SOL     OW85490  12.622  10.900   6.356  0.4108 -0.5494  0.3990
55833SOL    HW185491  12.588  10.937   6.438 -1.4181  0.5883 -0.8166
55833SOL    HW285492  12.638  10.977   6.301  3.2940 -1.1603  0.2238
55834SOL     OW85493   2.237   3.910  11.233 -0.1747 -0.0622 -0.5398
55834SOL    HW185494   2.283   3.899  11.150 -1.2938  1.9400 -1.5001
55834SOL    HW285495   2.257   4.000  11.260 -1.2225 -0.1090  0.4750
55835SOL     OW85496  10.532   1.020   3.346  0.1357  0.1615 -0.0423
55835SOL    HW185497  10.599   1.033   3.413  1.7424 -1.2829 -1.2683
55835SOL    HW285498  10.526   0.925   3.335 -3.1383  0.1153  0.9166
55836SOL     OW85499  12.020   0.809   3.494  0.2680 -0.0136 -0.4227
55836SOL    HW185500  11.983   0.768   3.416 -0.0994  0.3731 -0.4540
55836SOL    HW285501  12.069   0.884   3.461 -0.8413  0.8271 -0.1926
55837SOL     OW85502   8.855  12.109  13.697  0.0843 -0.4387 -0.4193
55837SOL    HW185503   8.912  12.073  13.766 -1.5904 -0.3035  1.1129
55837SOL    HW285504   8.909  12.108  13.618  2.0043 -0.8468  0.8340
55838SOL     OW85505  10.150   6.794   9.063 -0.1945 -0.2123  0.3451
55838SOL    HW185506  10.139   6.866   9.000 -1.0795 -0.5004  0.1488
55838SOL    HW285507  10.152   6.837   9.148 -2.7662 -0.0543  0.4010
55839SOL     OW85508   8.658   7.477  10.457 -0.5845  0.6543  0.1282
55839SOL    HW185509   8.605   7.554  10.436  0.0926  0.9345 -0.5765
55839SOL    HW285510   8.733   7.481  10.397 -0.2408 -0.2414  0.4722
55840SOL     OW85511   4.985  11.271   1.126 -0.2908  0.1511  0.2135
55840SOL    HW185512   4.975  11.226   1.209 -0.8848  0.0373  0.0834
55840SOL    HW285513   4.896  11.287   1.095 -0.0843  0.5712 -0.1971
55841SOL     OW85514  11.254   9.949  10.811 -0.2879 -0.0757 -0.0372
55841SOL    HW185515  11.201   9.981  10.738 -1.7715  1.7498  1.7276
55841SOL    HW285516  11.202   9.878  10.848  0.2958 -0.7617 -0.5139
55842SOL     OW85517   5.526   9.819   5.160  0.8569  0.8677  0.2138
55842SOL    HW185518   5.462   9.880   5.123  2.0342  3.0273  1.5041
55842SOL    HW285519   5.579   9.791   5.085 -0.4205  0.4894 -0.5751
55843SOL     OW85520  13.079  12.881   7.643  0.2071  0.4324 -0.3687
55843SOL    HW185521  13.056  12.811   7.581  0.5801  0.0108 -0.0351
55843SOL    HW285522  13.089  12.959   7.588  2.2064 -0.2712 -1.0903
55844SOL     OW85523   0.906   8.329   0.963 -0.3722 -0.4213 -0.4756
55844SOL    HW185524   0.942   8.379   0.889 -1.0563  1.3179  0.3032
55844SOL    HW285525   0.939   8.375   1.041 -1.2148 -1.0561  0.2789
55845SOL     OW85526   1.145   0.334   7.689 -0.1392 -0.3617 -0.6939
55845SOL    HW185527   1.224   0.329   7.744 -1.2522  0.1026  1.0174
55845SOL    HW285528   1.107   0.247   7.694 -0.2510 -0.3147 -0.7286
55846SOL     OW85529   2.569  13.331  11.313 -0.1693 -0.3963  0.4762
55846SOL    HW185530   2.585  13.314  11.406  1.6467 -0.4743  0.1762
55846SOL    HW285531   2.567  13.244  11.273 -1.7429 -0.4157  0.5194
55847SOL     OW85532   4.468  12.860   9.927  0.0100  0.2324  0.3290
55847SOL    HW185533   4.485  12.778   9.973  0.3591 -0.0043 -0.2179
55847SOL    HW285534   4.498  12.845   9.837 -1.0811  0.5295 -0.1128
55848SOL     OW85535  11.498  12.403   2.547  0.7591 -0.0792 -0.1269
55848SOL    HW185536  11.457  12.394   2.633  1.1774 -1.3165 -0.0382
55848SOL    HW285537  11.556  12.479   2.556  0.5191  0.0312  0.5669
55849SOL     OW85538  13.562   0.905  11.785  0.1667  0.1757 -0.4077
55849SOL    HW185539  13.532   0.852  11.711  0.2987 -0.2755 -0.1385
55849SOL    HW285540  13.644   0.944  11.754 -0.5527  1.2288 -1.0606
55850SOL     OW85541   6.413  11.499  12.634 -0.0431  0.6111  0.0159
55850SOL    HW185542   6.381  11.411  12.617 -0.5276  0.4471  1.5435
55850SOL    HW285543   6.335  11.554  12.635  0.0324  0.7231  0.8840
55851SOL     OW85544   0.297   0.382   9.708 -0.4042 -0.2702  0.0904
55851SOL    HW185545   0.331   0.433   9.781  0.1657 -0.5460  0.0242
55851SOL    HW285546   0.205   0.368   9.729 -0.0591 -1.0819  1.1856
55852SOL     OW85547   7.901   7.375   8.525  1.0756  0.0285  0.7481
55852SOL    HW185548   7.952   7.297   8.502 -1.5732 -1.3170 -1.0168
55852SOL    HW285549   7.840   7.345   8.591  0.7135  0.8973  0.8171
55853SOL     OW85550  11.374  12.968  11.697  0.6591 -0.4166 -0.2191
55853SOL    HW185551  11.415  12.940  11.778  0.7954  2.4158  0.8245
55853SOL    HW285552  11.448  12.996  11.642  0.4343 -0.1601 -0.3915
55854SOL     OW85553   0.245   3.558   1.241 -0.6966 -0.1235 -0.0655
55854SOL    HW185554   0.173   3.585   1.298  0.1642  0.5570  0.7272
55854SOL    HW285555   0.221   3.593   1.155 -1.2326  0.2298  0.2207
55855SOL     OW85556  12.209  13.340   4.973 -0.1174  0.6213  0.1527
55855SOL    HW185557  12.160  13.298   5.044 -2.5915 -1.5158 -2.5761
55855SOL    HW285558  12.287  13.285   4.962 -0.4346  0.1329  0.3145
55856SOL     OW85559   4.827   0.852   9.462 -0.3404 -0.1675  0.5933
55856SOL    HW185560   4.853   0.926   9.407  2.1799 -0.5636  1.0869
55856SOL    HW285561   4.824   0.889   9.551 -3.7565  0.3265  0.3934
55857SOL     OW85562   0.993   7.443   6.764  0.1465 -0.1703  0.5993
55857SOL    HW185563   0.973   7.473   6.853 -1.4387  0.1347  0.1699
55857SOL    HW285564   0.909   7.445   6.718  0.9835  0.0032 -1.0165
55858SOL     OW85565  11.503  11.946   2.031  0.2684 -0.2207  0.1199
55858SOL    HW185566  11.555  11.891   1.972 -1.4601 -0.6798 -1.0560
55858SOL    HW285567  11.501  12.032   1.990 -3.2434 -1.1826 -2.1966
55859SOL     OW85568   0.145   8.530   8.160 -0.3707 -0.1290  0.0271
55859SOL    HW185569   0.224   8.478   8.172 -0.6942 -0.4186  0.9575
55859SOL    HW285570   0.104   8.532   8.247 -1.6351 -0.3883 -0.5425
55860SOL     OW85571   3.066   4.289   9.026 -0.0900  0.1142 -0.1614
55860SOL    HW185572   3.039   4.377   9.000  0.0133 -0.1449 -1.1878
55860SOL    HW285573   3.135   4.265   8.963  0.5575 -0.3283  0.6954
55861SOL     OW85574   5.308   5.901   4.078 -0.6512 -0.5729  0.7129
55861SOL    HW185575   5.371   5.928   4.144 -0.0954 -0.3127  0.0826
55861SOL    HW285576   5.284   5.812   4.102  0.2241 -0.7995  0.7626
55862SOL     OW85577   2.895   7.976   8.814 -0.3531  0.2685  0.2093
55862SOL    HW185578   2.820   7.925   8.784 -0.0820  0.5243 -0.9643
55862SOL    HW285579   2.963   7.911   8.831  0.0506  0.2042 -1.4518
55863SOL     OW85580   2.004   7.852   6.047 -0.0247  0.6977  0.5531
55863SOL    HW185581   2.046   7.866   6.132  0.8696  1.4376  0.0048
55863SOL    HW285582   2.029   7.763   6.022 -0.4661  0.3998  1.1532
55864SOL     OW85583   2.126  13.219   0.974 -0.4742  0.3131  0.3164
55864SOL    HW185584   2.182  13.283   0.932 -1.0155 -0.1033 -1.1091
55864SOL    HW285585   2.037  13.244   0.949 -0.7045 -0.8664 -0.1227
55865SOL     OW85586   7.404   1.004   9.110  0.1558  0.1233  0.5942
55865SOL    HW185587   7.442   0.922   9.143 -1.1418 -0.2108  1.3376
55865SOL    HW285588   7.475   1.045   9.062  1.4874 -0.4281  1.9965
55866SOL     OW85589  11.357  12.099   8.028  0.0606 -0.2370 -0.1132
55866SOL    HW185590  11.287  12.082   7.965  0.4256 -0.3158 -0.5003
55866SOL    HW285591  11.401  12.015   8.038  0.8849  0.0993 -0.8330
55867SOL     OW85592   4.322  12.828   9.269 -0.5730  0.1185 -0.1609
55867SOL    HW185593   4.330  12.923   9.278  2.4275 -0.2282  2.9004
55867SOL    HW285594   4.408  12.794   9.294 -1.7969 -3.4713 -0.2210
55868SOL     OW85595   2.018   9.834  12.600 -0.2866  0.0428 -0.2385
55868SOL    HW185596   2.109   9.804  12.590 -0.0178  0.5163  0.6421
55868SOL    HW285597   1.967   9.754  12.608  0.2601 -0.2268  0.7883
55869SOL     OW85598  10.037   8.376   5.526 -0.0977  0.1114  0.3501
55869SOL    HW185599  10.126   8.342   5.523 -0.2809 -0.3399 -0.2235
55869SOL    HW285600   9.982   8.304   5.494 -0.6107  0.5736  0.1624
55870SOL     OW85601  12.541   6.102   7.691  0.3901  0.0959  0.1856
55870SOL    HW185602  12.598   6.121   7.616  0.3908  0.0909  0.1852
55870SOL    HW285603  12.471   6.167   7.685  0.3668  0.0692  0.1561
55871SOL     OW85604   7.870  11.390  11.587 -0.2326  0.6292  0.6123
55871SOL    HW185605   7.851  11.322  11.653  1.0122 -0.6222 -0.2600
55871SOL    HW285606   7.964  11.383  11.572 -0.0334  2.7175  0.6109
55872SOL     OW85607  11.308  10.293   5.946 -0.0798 -0.4131  0.7758
55872SOL    HW185608  11.272  10.364   5.892  0.2071  0.5908  1.8722
55872SOL    HW285609  11.358  10.239   5.885  0.0084  0.5407 -0.0080
55873SOL     OW85610  14.036   1.801   1.710 -0.0328  0.4945  0.5969
55873SOL    HW185611  14.119   1.847   1.697 -0.3012  1.0892  0.8972
55873SOL    HW285612  14.045   1.719   1.662  0.7480  0.5279  0.6775
55874SOL     OW85613   1.132   0.201  13.745 -0.0322  0.2620 -0.2263
55874SOL    HW185614   1.109   0.291  13.720 -1.2755  0.3998  1.2429
55874SOL    HW285615   1.105   0.195  13.837  0.2776 -1.5397 -0.2290
55875SOL     OW85616   0.669  11.391  11.101  0.6029 -0.1383  0.2276
55875SOL    HW185617   0.753  11.347  11.084  1.4359  1.1376  0.8851
55875SOL    HW285618   0.671  11.468  11.043 -0.1824 -0.1830  0.1389
55876SOL     OW85619  12.783   4.575   8.030 -0.1268 -0.1604  0.1928
55876SOL    HW185620  12.726   4.650   8.044 -0.7793 -0.1881 -1.9463
55876SOL    HW285621  12.734   4.501   8.065 -0.9503 -0.0235 -0.6413
55877SOL     OW85622   6.597   5.752  12.393 -0.3843 -0.4091  0.1485
55877SOL    HW185623   6.692   5.751  12.378 -0.2030 -0.2377  1.2194
55877SOL    HW285624   6.578   5.842  12.422 -1.4568  0.6842 -3.3790
55878SOL     OW85625  11.639  13.765  10.760  0.4839 -0.2808  0.7349
55878SOL    HW185626  11.610  13.766  10.851 -0.1343 -0.7672  0.5556
55878SOL    HW285627  11.725  13.806  10.761 -0.0641  0.9101  1.3464
55879SOL     OW85628  12.291   3.205   9.397  0.4079  0.6279 -0.2130
55879SOL    HW185629  12.323   3.295   9.393  0.7270  0.6198  1.2721
55879SOL    HW285630  12.369   3.151   9.395  0.1999  0.3448 -1.4471
55880SOL     OW85631   8.647  12.096   7.850 -0.3817 -0.1334 -0.1428
55880SOL    HW185632   8.666  12.152   7.926  0.0876  0.1373 -0.4483
55880SOL    HW285633   8.586  12.148   7.797 -0.4693 -0.1921 -0.0991
55881SOL     OW85634   2.470   4.772  11.304 -0.1734  0.3222  0.2134
55881SOL    HW185635   2.504   4.845  11.356 -1.5142  0.8826  0.3435
55881SOL    HW285636   2.519   4.777  11.222  2.7129 -1.2037  1.6937
55882SOL     OW85637  10.823   4.580   0.209 -0.3178 -0.0686  0.3507
55882SOL    HW185638  10.855   4.490   0.208  1.7874  0.6148 -1.7141
55882SOL    HW285639  10.901   4.633   0.226 -1.3897  1.4251  0.8272
55883SOL     OW85640   9.888   8.203   7.964  0.4032 -0.3175 -0.5576
55883SOL    HW185641   9.834   8.144   8.016  0.2037  0.4319  0.1092
55883SOL    HW285642   9.978   8.181   7.989  0.3777 -1.0818 -1.1341
55884SOL     OW85643  12.620  11.193   9.826 -0.2127  0.8985  0.1406
55884SOL    HW185644  12.525  11.194   9.815 -0.0213  1.9271 -1.6765
55884SOL    HW285645  12.641  11.101   9.843 -1.2944  0.1492 -2.2022
55885SOL     OW85646  12.469   6.250   8.599  0.2080  0.0936 -0.3268
55885SOL    HW185647  12.433   6.176   8.647 -2.3370  2.0583  1.0070
55885SOL    HW285648  12.491   6.315   8.666  1.8834  0.8208 -1.4826
55886SOL     OW85649   9.278  10.044   9.803 -0.0966 -0.3841 -0.0257
55886SOL    HW185650   9.308   9.984   9.871 -1.3190 -1.1459 -0.1159
55886SOL    HW285651   9.203  10.089   9.842  0.6258  0.9055 -0.0656
55887SOL     OW85652   4.100  10.439   4.835 -0.0571  0.3847 -0.5840
55887SOL    HW185653   4.191  10.442   4.866 -0.1044  0.6892 -0.4718
55887SOL    HW285654   4.066  10.527   4.852 -0.3970  0.2480 -0.5552
55888SOL     OW85655   0.783   5.484   7.969 -0.0727  0.4007  0.2927
55888SOL    HW185656   0.788   5.567   7.921  0.8114  0.0502 -0.2511
55888SOL    HW285657   0.706   5.440   7.932 -0.6187  1.0123  0.6675
55889SOL     OW85658   8.284   9.363   3.695  0.2361 -0.2600  0.2901
55889SOL    HW185659   8.294   9.313   3.776  1.2326  1.1785  1.1022
55889SOL    HW285660   8.351   9.431   3.700  0.5466 -0.3319 -1.9186
55890SOL     OW85661  10.410   7.073   7.983  0.0524  0.0711 -0.2113
55890SOL    HW185662  10.464   7.120   7.919 -0.1866 -0.5211 -0.8586
55890SOL    HW285663  10.452   6.987   7.991 -0.7933 -0.4003 -0.7330
55891SOL     OW85664   9.959   1.892   8.116  0.1686 -0.6368  0.0394
55891SOL    HW185665   9.867   1.881   8.089 -0.6468 -0.7748  2.6172
55891SOL    HW285666   9.989   1.968   8.065 -1.7103  0.0639 -0.1343
55892SOL     OW85667   6.014   5.459   3.117 -0.4473  0.2434  0.1880
55892SOL    HW185668   5.943   5.512   3.082 -0.2303  1.2729  1.2535
55892SOL    HW285669   5.971   5.394   3.173 -0.8464 -1.7667 -2.2644
55893SOL     OW85670  10.051   1.646   5.687 -0.0854  0.6392 -0.2924
55893SOL    HW185671  10.147   1.650   5.687 -0.0488 -0.0631 -0.4047
55893SOL    HW285672  10.030   1.573   5.628 -0.6867  0.7144 -0.1796
55894SOL     OW85673   7.592   8.720   2.166 -0.0091  0.0761 -0.1482
55894SOL    HW185674   7.625   8.685   2.249  0.0780  1.7938  0.5710
55894SOL    HW285675   7.525   8.657   2.138 -1.4303  0.4219  2.2282
55895SOL     OW85676  10.099  10.433   0.192  0.2052 -0.8750  0.2916
55895SOL    HW185677  10.106  10.523   0.159  0.3926 -1.5179 -1.5275
55895SOL    HW285678  10.050  10.442   0.274  1.2315  1.0000  0.7643
55896SOL     OW85679  13.868  11.875   6.149  0.3201  0.2325 -0.1522
55896SOL    HW185680  13.877  11.900   6.057 -2.0569 -0.0077 -0.5152
55896SOL    HW285681  13.851  11.781   6.147  0.4637  0.1853  0.5544
55897SOL     OW85682  13.783   2.458  11.062 -0.6126 -0.2122  0.1362
55897SOL    HW185683  13.793   2.387  10.999 -0.1505 -0.0444  0.0125
55897SOL    HW285684  13.873   2.483  11.085 -0.7569 -0.7915  1.4554
55898SOL     OW85685   3.501   0.073   2.932  0.0867 -0.5579 -0.2491
55898SOL    HW185686   3.478   0.002   2.873 -0.3364  0.1498 -0.9630
55898SOL    HW285687   3.522   0.147   2.874  0.1999 -0.0055  0.4746
55899SOL     OW85688   7.794   8.872   1.813  0.0174  0.4726 -0.1876
55899SOL    HW185689   7.858   8.926   1.857  0.3415  0.3387 -0.4880
55899SOL    HW285690   7.832   8.784   1.813 -0.4394  0.2733  0.1711
55900SOL     OW85691  10.487   2.514  12.152 -0.4086 -0.1611 -0.0386
55900SOL    HW185692  10.419   2.520  12.085 -0.3699  0.2135 -0.0427
55900SOL    HW285693  10.553   2.577  12.125 -0.6607  0.4143  0.6641
55901SOL     OW85694   8.402   8.350   7.882  0.7119  0.2878  0.1492
55901SOL    HW185695   8.382   8.305   7.800  0.0131  0.3978  0.2517
55901SOL    HW285696   8.451   8.286   7.933  0.2927 -0.1292  0.0373
55902SOL     OW85697   1.924  10.680   4.911 -0.3918  0.0721 -0.4934
55902SOL    HW185698   1.924  10.772   4.885  3.2002  0.3154 -0.1613
55902SOL    HW285699   1.974  10.678   4.992  1.8353 -2.3752 -1.7779
55903SOL     OW85700   3.817   5.533  12.320 -0.1413 -0.7076 -0.3532
55903SOL    HW185701   3.789   5.499  12.235 -1.1252  0.6545 -0.5957
55903SOL    HW285702   3.913   5.524  12.319 -0.0476  0.2019 -2.0238
55904SOL     OW85703   0.988  10.151   9.766  0.1802  0.6480  0.0892
55904SOL    HW185704   1.013  10.064   9.798 -1.4165  0.0700 -0.1437
55904SOL    HW285705   1.059  10.177   9.708  1.4451  0.1991  1.3854
55905SOL     OW85706   9.299   7.379   5.479 -0.0090 -0.1178 -0.1255
55905SOL    HW185707   9.332   7.459   5.438 -0.1849  0.8923  1.5966
55905SOL    HW285708   9.376   7.323   5.486  1.0282  1.4176  2.0067
55906SOL     OW85709  10.894  11.598   1.894  0.1914  0.3665 -0.2554
55906SOL    HW185710  10.866  11.558   1.976  1.4633  0.5136  0.2845
55906SOL    HW285711  10.911  11.690   1.917  1.7195  0.1353 -0.3623
55907SOL     OW85712   5.255   8.228   9.354  0.1672 -0.1129  0.3374
55907SOL    HW185713   5.307   8.156   9.320  1.5269  0.3190  1.4268
55907SOL    HW285714   5.318   8.298   9.370 -0.9589  0.9177  0.3911
55908SOL     OW85715   3.912   7.501   3.443 -0.2821  0.2204 -0.3391
55908SOL    HW185716   3.966   7.497   3.365  1.3705  0.4688  0.7401
55908SOL    HW285717   3.831   7.456   3.419  1.1717 -1.9848 -1.4232
55909SOL     OW85718   0.153   6.528   4.219 -0.2343 -0.8412 -0.1247
55909SOL    HW185719   0.162   6.583   4.297  0.9089  0.4371 -1.0951
55909SOL    HW285720   0.061   6.536   4.194  0.2169  2.0944 -1.1931
55910SOL     OW85721   9.621   6.139  12.661  0.2959  0.6771 -0.5161
55910SOL    HW185722   9.538   6.141  12.614  0.2389 -0.7544 -0.5022
55910SOL    HW285723   9.678   6.083  12.608  0.7145  0.2882  0.3239
55911SOL     OW85724   6.925   1.869   5.518 -0.1614  0.1765  0.5574
55911SOL    HW185725   6.872   1.802   5.561 -0.2933 -0.4813 -0.5747
55911SOL    HW285726   6.927   1.842   5.426 -0.1298  1.6749  0.0871
55912SOL     OW85727  13.326   6.347  14.015 -0.2772  0.4464  0.2397
55912SOL    HW185728  13.320   6.441  13.998  2.0735  0.6414  0.1985
55912SOL    HW285729  13.358   6.340  14.105 -1.5016 -0.3751  0.6480
55913SOL     OW85730   1.560   7.917   5.147 -0.3223 -0.4123 -0.0659
55913SOL    HW185731   1.537   7.982   5.214 -1.9241  1.5191 -2.3339
55913SOL    HW285732   1.504   7.842   5.165 -1.3263  0.4087  0.2887
55914SOL     OW85733   6.830   0.101   1.166 -0.0026 -0.2528  0.2030
55914SOL    HW185734   6.792   0.189   1.161 -1.1447 -0.7745 -0.8391
55914SOL    HW285735   6.758   0.046   1.196  0.5431 -0.9412  0.2701
55915SOL     OW85736   0.888   9.819  11.414  0.2496  0.0400 -0.0262
55915SOL    HW185737   0.798   9.840  11.441 -0.1545 -0.2650 -1.0621
55915SOL    HW285738   0.917   9.753  11.477  0.5524  1.6955  1.6246
55916SOL     OW85739   2.150   3.290   2.367  0.4042 -0.1274  0.3141
55916SOL    HW185740   2.093   3.259   2.296 -0.5566 -0.2273  1.1122
55916SOL    HW285741   2.235   3.303   2.325 -0.2908  0.3891 -0.9958
55917SOL     OW85742   2.815  11.730   6.823  0.1664 -0.9855  0.0661
55917SOL    HW185743   2.721  11.717   6.823  0.1435 -0.8177 -0.0346
55917SOL    HW285744   2.831  11.794   6.754  0.1679  0.4669  1.3824
55918SOL     OW85745   4.823   0.835  10.558  0.2043  0.2391 -0.2133
55918SOL    HW185746   4.871   0.780  10.620 -2.0532 -2.0963 -0.3660
55918SOL    HW285747   4.745   0.864  10.607  0.0505  1.1288 -0.9614
55919SOL     OW85748   4.716  11.983   9.958 -0.5086  0.0122 -0.3715
55919SOL    HW185749   4.736  11.921   9.888  0.6179  0.4235 -0.4350
55919SOL    HW285750   4.764  11.950  10.034 -0.1307  0.6401 -0.3328
55920SOL     OW85751   9.382   8.970  10.703  0.1273 -0.4458  0.8683
55920SOL    HW185752   9.378   9.060  10.737  0.5473  0.2462 -0.8011
55920SOL    HW285753   9.419   8.919  10.774  2.1294  1.1468  1.0565
55921SOL     OW85754   2.904   9.716  12.572  0.1127 -0.1302 -0.2105
55921SOL    HW185755   2.913   9.755  12.485  0.7709  0.4105  0.0933
55921SOL    HW285756   2.915   9.789  12.632 -2.0005 -0.1874  0.3202
55922SOL     OW85757   4.832   8.498   9.289  0.0172 -0.8773  0.4548
55922SOL    HW185758   4.875   8.415   9.309  1.6898  0.1799  1.4916
55922SOL    HW285759   4.876   8.562   9.345  0.8049  1.2435 -2.3549
55923SOL     OW85760   6.111   5.247  13.206  0.4619 -0.6194  0.1865
55923SOL    HW185761   6.092   5.248  13.300  1.3368  0.4874  0.3757
55923SOL    HW285762   6.153   5.163  13.191  0.7995 -0.5923  0.9007
55924SOL     OW85763   8.872   5.913   3.021  0.2512  0.1126  0.5926
55924SOL    HW185764   8.848   5.997   2.982  1.5064  0.9497  1.5290
55924SOL    HW285765   8.919   5.867   2.951 -2.5855 -0.9344 -0.7586
55925SOL     OW85766   6.893   4.399  14.063  0.1257 -0.5861 -0.0389
55925SOL    HW185767   6.942   4.406  13.982 -1.6302  1.4079 -1.0257
55925SOL    HW285768   6.959   4.392  14.131  1.6514 -1.7968 -1.5607
55926SOL     OW85769  10.411   5.724   6.793  0.1883  0.0327 -0.1187
55926SOL    HW185770  10.368   5.716   6.708  0.5032 -2.0977 -0.1440
55926SOL    HW285771  10.470   5.649   6.797 -0.0934 -0.1434  2.1304
55927SOL     OW85772   3.241   2.211  11.889 -0.0898  0.7904 -0.1859
55927SOL    HW185773   3.211   2.167  11.968 -2.0739 -0.9325 -1.7652
55927SOL    HW285774   3.223   2.304  11.904 -2.6014  0.2415  0.5246
55928SOL     OW85775  12.937  11.921   0.922 -0.4477  0.1294 -0.0321
55928SOL    HW185776  12.972  11.890   1.006 -0.2036  0.2875 -0.0747
55928SOL    HW285777  12.924  11.842   0.871 -0.3392  0.0522  0.0578
55929SOL     OW85778  14.106   3.728   9.545  0.1650  0.3360  0.5208
55929SOL    HW185779  14.030   3.682   9.512  1.8798 -0.5974 -2.4684
55929SOL    HW285780  14.096   3.818   9.514  0.3196  0.1864  0.0328
55930SOL     OW85781   3.970   2.197  12.490 -0.1865  0.4535 -0.0888
55930SOL    HW185782   3.981   2.106  12.462  1.7157  1.3924 -2.7879
55930SOL    HW285783   3.878   2.216  12.474 -0.9289 -1.2499  1.6562
55931SOL     OW85784  12.532  11.249   3.236 -0.6033  0.1512 -0.2382
55931SOL    HW185785  12.613  11.199   3.245 -0.7920 -0.0652  0.2847
55931SOL    HW285786  12.534  11.281   3.145  1.1379  2.0399  0.3911
55932SOL     OW85787   0.503   6.122  11.174 -0.1631 -0.2083  0.8288
55932SOL    HW185788   0.480   6.038  11.214 -1.1844 -0.0380  0.6209
55932SOL    HW285789   0.526   6.099  11.083  1.1908 -0.4635  1.2138
55933SOL     OW85790   9.240   5.463  10.701 -0.2612  0.3778 -0.0689
55933SOL    HW185791   9.251   5.558  10.692 -0.1782  0.3031 -0.7833
55933SOL    HW285792   9.155   5.445  10.662  0.4003 -0.0431 -1.3617
55934SOL     OW85793  13.146   8.550  12.067 -0.4311  0.0443 -0.0817
55934SOL    HW185794  13.112   8.555  12.157  1.2898 -1.1279  0.6914
55934SOL    HW285795  13.236   8.581  12.073 -0.7752  1.5099 -1.7517
55935SOL     OW85796   3.018   0.733   2.231  0.1091 -0.4161  0.0603
55935SOL    HW185797   3.077   0.724   2.306 -0.4170 -0.9260  0.4310
55935SOL    HW285798   2.986   0.823   2.236 -0.2649 -0.5784  0.7234
55936SOL     OW85799   6.654   2.781   0.240  0.1022  0.4030 -0.0352
55936SOL    HW185800   6.703   2.748   0.165 -1.3567  0.3983 -1.0081
55936SOL    HW285801   6.675   2.719   0.311  1.5765  0.4734 -0.3705
55937SOL     OW85802  10.485  10.448   4.016  0.3367 -0.4375 -0.1952
55937SOL    HW185803  10.553  10.386   3.988 -1.7241 -1.8920 -2.2661
55937SOL    HW285804  10.473  10.506   3.941 -1.3349 -0.7928 -0.2246
55938SOL     OW85805   6.210  12.893   0.828 -0.3366 -0.2253  0.2056
55938SOL    HW185806   6.290  12.944   0.845 -1.1520  2.3037 -2.7511
55938SOL    HW285807   6.150  12.918   0.898  0.4100  0.2295  0.6980
55939SOL     OW85808   3.747   9.226   7.304 -0.0353  0.0933 -0.4729
55939SOL    HW185809   3.702   9.154   7.260 -1.0530  1.2921 -1.4581
55939SOL    HW285810   3.680   9.269   7.356  0.5538  0.3756  0.0716
55940SOL     OW85811   4.590  13.672   1.837 -0.7916  0.0940 -0.4360
55940SOL    HW185812   4.518  13.735   1.828 -0.5350  0.2504 -1.4817
55940SOL    HW285813   4.604  13.666   1.932 -1.2499  1.1187 -0.2854
55941SOL     OW85814   8.105   2.617   3.823  0.8998 -0.4626  0.4127
55941SOL    HW185815   8.169   2.683   3.850 -0.7073  1.1897  0.4406
55941SOL    HW285816   8.074   2.579   3.905 -0.2823  0.9095  0.6507
55942SOL     OW85817   3.613  12.651  11.007  0.4932  0.4780 -0.2510
55942SOL    HW185818   3.529  12.654  10.962 -0.3084  1.0298  1.2168
55942SOL    HW285819   3.606  12.717  11.075  2.2779  0.7994 -0.3408
55943SOL     OW85820   4.559   6.249   3.969 -0.3503  0.3661 -0.4144
55943SOL    HW185821   4.479   6.300   3.972 -0.8646 -0.4577  0.5175
55943SOL    HW285822   4.531   6.159   3.982  0.7537  0.0944  0.2726
55944SOL     OW85823  10.292   0.223   7.555 -0.3911  0.0120 -0.0398
55944SOL    HW185824  10.340   0.194   7.477 -0.1646  2.7213 -1.0366
55944SOL    HW285825  10.351   0.204   7.628 -0.0351 -1.3924 -0.6646
55945SOL     OW85826  11.033  11.146  13.847  0.5839 -0.1207 -0.3419
55945SOL    HW185827  10.971  11.112  13.913  0.3443  1.5461  0.3233
55945SOL    HW285828  11.112  11.093  13.860  0.4334 -0.0518  1.0924
55946SOL     OW85829   5.654   0.269  13.718 -0.2243 -0.1752  0.0085
55946SOL    HW185830   5.592   0.202  13.691 -1.7116  1.0572  0.2250
55946SOL    HW285831   5.633   0.287  13.810  0.0780  0.6463 -0.0646
55947SOL     OW85832  12.878   9.892  13.524 -0.6247  0.3978 -0.0007
55947SOL    HW185833  12.799   9.844  13.497 -2.4730  1.7708  2.5989
55947SOL    HW285834  12.943   9.823  13.540 -0.7578 -0.7038 -3.4072
55948SOL     OW85835   7.307  12.778  11.855 -0.1662 -0.1672 -0.6297
55948SOL    HW185836   7.396  12.810  11.845 -0.0590  0.2906  1.2604
55948SOL    HW285837   7.315  12.698  11.907 -0.8274 -0.1712 -0.5173
55949SOL     OW85838   9.588   3.051   7.210 -0.0159 -0.0766  0.2220
55949SOL    HW185839   9.587   2.957   7.189  2.0336  0.3608 -2.3327
55949SOL    HW285840   9.634   3.056   7.294 -1.2370 -1.3792  1.0242
55950SOL     OW85841  11.479  12.429   5.788 -0.8664  0.1258  0.3525
55950SOL    HW185842  11.407  12.369   5.767 -0.9242 -0.4769  2.1074
55950SOL    HW285843  11.498  12.473   5.706 -1.6657 -1.3993 -0.7035
55951SOL     OW85844  10.710   8.964  14.075 -0.2069 -0.1446  0.6953
55951SOL    HW185845  10.784   8.947  14.134  0.3281 -0.1190  0.0435
55951SOL    HW285846  10.681   8.878  14.047 -0.5602 -0.1638  1.1043
55952SOL     OW85847   8.945   1.604  13.710  0.0037  0.0850 -0.3174
55952SOL    HW185848   8.947   1.515  13.746 -1.0192  1.0388  2.3348
55952SOL    HW285849   8.867   1.644  13.748  0.3161  2.0707 -1.6121
55953SOL     OW85850  12.859   6.965   1.892  0.2566 -0.0951  0.4963
55953SOL    HW185851  12.787   6.922   1.937  0.8818  0.8410  2.5102
55953SOL    HW285852  12.881   7.040   1.948  0.9434  1.3001 -1.5078
55954SOL     OW85853  13.090  12.204  11.590 -0.1102 -0.2894 -0.4858
55954SOL    HW185854  13.088  12.150  11.511 -2.5681 -2.4718  0.9179
55954SOL    HW285855  13.165  12.171  11.639  0.7987  0.3624 -1.4058
55955SOL     OW85856   7.644   5.381   3.768  0.1455  0.2011 -0.3460
55955SOL    HW185857   7.734   5.411   3.763  0.0627  0.5665  0.2555
55955SOL    HW285858   7.651   5.285   3.776  0.7101  0.4130  3.7143
55956SOL     OW85859  10.366   3.788   3.503  0.2883  0.4207  0.4557
55956SOL    HW185860  10.432   3.757   3.442  0.6937 -0.2755  1.2159
55956SOL    HW285861  10.403   3.768   3.590 -1.6551 -1.6342  0.8933
55957SOL     OW85862   6.889  10.522   9.376 -0.5197 -0.2043 -0.2576
55957SOL    HW185863   6.862  10.478   9.296 -0.6087 -0.1195 -0.2737
55957SOL    HW285864   6.807  10.548   9.418 -0.4847 -0.4825 -0.0088
55958SOL     OW85865   0.342   9.602   5.080  0.0069 -0.6368  0.2641
55958SOL    HW185866   0.317   9.562   5.163  0.1296  0.4385  0.8326
55958SOL    HW285867   0.262   9.602   5.028 -0.1611 -0.9667  0.5229
55959SOL     OW85868  11.357   3.442   0.925 -0.4117  0.3030 -0.1431
55959SOL    HW185869  11.388   3.520   0.971 -0.6148  0.1450  0.2612
55959SOL    HW285870  11.397   3.449   0.838  1.0831 -0.0691  0.4697
55960SOL     OW85871  11.748   5.396   8.347  0.9299  0.1520 -0.2221
55960SOL    HW185872  11.798   5.362   8.273  1.4909 -0.4256  0.4020
55960SOL    HW285873  11.666   5.346   8.345  1.3385 -0.5463  0.0977
55961SOL     OW85874  12.728  10.905   3.442 -0.4389  0.3500 -0.0160
55961SOL    HW185875  12.658  10.897   3.506  0.9330  0.7702  1.6214
55961SOL    HW285876  12.791  10.837   3.467  0.4299  0.9592 -0.4856
55962SOL     OW85877  11.494   9.010   9.461  0.4178 -0.0201 -0.1545
55962SOL    HW185878  11.400   9.019   9.450  0.1981 -2.9975 -1.4755
55962SOL    HW285879  11.506   8.988   9.553 -0.1545  0.3878  0.0217
55963SOL     OW85880   7.796   2.178  13.886  0.2355 -0.1357 -0.4848
55963SOL    HW185881   7.813   2.211  13.797  1.3970  0.8303  0.0737
55963SOL    HW285882   7.882   2.153  13.919 -0.3732 -1.8866 -0.1465
55964SOL     OW85883   6.133  12.795   3.595  0.1427 -0.5615 -0.0533
55964SOL    HW185884   6.142  12.798   3.690 -0.2270  0.8793 -0.0450
55964SOL    HW285885   6.208  12.742   3.566  0.8515 -0.1578  0.9681
55965SOL     OW85886   8.416   8.080  10.126  0.2746  0.3569 -0.8238
55965SOL    HW185887   8.507   8.056  10.110  0.3693  0.3167 -0.2375
55965SOL    HW285888   8.413   8.102  10.219 -0.2504  0.6457 -0.9054
55966SOL     OW85889  13.214   9.206   4.336  0.1739 -0.3301 -0.2426
55966SOL    HW185890  13.309   9.219   4.335 -0.1633  2.9759 -0.9916
55966SOL    HW285891  13.184   9.251   4.257 -2.0812 -0.6889  0.3600
55967SOL     OW85892  11.516  12.248   3.048  0.1193  0.1441  0.8311
55967SOL    HW185893  11.566  12.206   2.978  0.5644  1.2409  0.4853
55967SOL    HW285894  11.508  12.339   3.021  0.1703  0.5522  2.1394
55968SOL     OW85895   0.494   5.000  10.655 -0.5468  0.4026  0.8405
55968SOL    HW185896   0.503   5.053  10.576  1.6274  0.8425  1.3213
55968SOL    HW285897   0.417   4.946  10.639 -0.0179  0.2955 -1.6923
55969SOL     OW85898   7.647  10.769  10.318  0.0527 -0.0752  0.1552
55969SOL    HW185899   7.689  10.841  10.271  1.9105 -1.4438 -0.4183
55969SOL    HW285900   7.561  10.759  10.276 -0.9431  2.7605  1.3003
55970SOL     OW85901   8.370   7.270   7.358 -0.1143  0.0439  0.4328
55970SOL    HW185902   8.427   7.310   7.292  0.1240 -0.5003  0.2975
55970SOL    HW285903   8.328   7.344   7.402  0.1931  0.4322  0.0853
55971SOL     OW85904   2.752   6.557   9.402  0.3873 -0.0806 -0.4375
55971SOL    HW185905   2.679   6.618   9.387  0.7060  0.1653 -1.0095
55971SOL    HW285906   2.734   6.485   9.343  0.1820 -0.4002  0.0089
55972SOL     OW85907   6.698   9.223   5.726 -0.5139  0.1193 -0.2137
55972SOL    HW185908   6.612   9.207   5.764  0.2816 -2.1540  0.8708
55972SOL    HW285909   6.740   9.284   5.787 -0.6949 -0.3299  0.3806
55973SOL     OW85910   5.347   9.977  14.007 -0.1761 -0.5270 -0.0941
55973SOL    HW185911   5.258   9.942  14.001 -0.4733  0.2534 -0.3314
55973SOL    HW285912   5.398   9.906  14.046 -1.0454 -0.7233  0.7038
55974SOL     OW85913  13.749   4.503   1.408 -0.4335 -0.0428  0.5024
55974SOL    HW185914  13.681   4.550   1.456  0.5741  0.3710  1.5687
55974SOL    HW285915  13.785   4.568   1.347 -0.5884 -0.1046  0.3410
55975SOL     OW85916  10.933   9.183  12.929  0.0288  0.1413 -0.3738
55975SOL    HW185917  11.007   9.162  12.871 -1.1883 -0.8816 -1.6112
55975SOL    HW285918  10.934   9.114  12.995 -0.3322 -0.3929 -0.9116
55976SOL     OW85919   3.609   4.768   0.100  0.1450 -0.2958  0.4024
55976SOL    HW185920   3.517   4.752   0.081 -0.3281  0.0193  2.2251
55976SOL    HW285921   3.627   4.854   0.061 -1.0231  0.7428  2.0656
55977SOL     OW85922   3.705   8.989  11.103  0.2559 -0.0823  0.3672
55977SOL    HW185923   3.759   8.968  11.027 -2.3321  0.0335 -1.6515
55977SOL    HW285924   3.730   8.925  11.169  1.4494 -1.2731 -1.1728
55978SOL     OW85925   3.325   3.408  12.128  0.3182  0.5514 -0.1135
55978SOL    HW185926   3.242   3.453  12.144  0.7513  1.6814 -0.9268
55978SOL    HW285927   3.337   3.413  12.033  1.0156 -0.1775 -0.0737
55979SOL     OW85928   0.150   4.394  12.146 -0.6802  0.1110  0.6007
55979SOL    HW185929   0.178   4.419  12.234 -4.4568 -0.2617  2.1075
55979SOL    HW285930   0.057   4.418  12.143 -1.5481 -2.8838 -2.0533
55980SOL     OW85931  13.228   5.267   1.032  0.2803 -0.2149  0.2849
55980SOL    HW185932  13.221   5.356   0.999 -1.3306  0.7300  2.8827
55980SOL    HW285933  13.257   5.277   1.123 -0.7795 -2.2644  0.9101
55981SOL     OW85934  13.504   0.155   7.411 -0.1774  0.0305 -0.4900
55981SOL    HW185935  13.563   0.120   7.477  1.1477  1.1784 -1.0216
55981SOL    HW285936  13.440   0.207   7.460  0.9182  1.0449 -0.0978
55982SOL     OW85937   4.210   9.238   3.559 -0.5116 -0.3640  0.3551
55982SOL    HW185938   4.242   9.235   3.650  1.0973 -2.7578 -0.1884
55982SOL    HW285939   4.270   9.298   3.515 -1.6282  1.2377  0.9259
55983SOL     OW85940  12.019   8.108  12.580  0.0162  0.5104 -0.5048
55983SOL    HW185941  11.938   8.138  12.539 -0.3865  0.1652  0.0226
55983SOL    HW285942  12.071   8.188  12.591 -0.0542  0.6674 -1.2655
55984SOL     OW85943   5.170   1.209  12.232 -0.0878 -0.0987 -0.3729
55984SOL    HW185944   5.256   1.233  12.198 -0.6697 -0.7082 -2.3934
55984SOL    HW285945   5.126   1.293  12.246  0.6229  0.1991  0.1515
55985SOL     OW85946  12.273  10.145  13.812  0.7781  0.2230 -0.6083
55985SOL    HW185947  12.267  10.055  13.843  3.8941  0.3228  0.5990
55985SOL    HW285948  12.219  10.195  13.874  3.2215 -0.2191  2.0840
55986SOL     OW85949   1.444   6.136   5.020 -0.0199  0.1099 -0.2941
55986SOL    HW185950   1.493   6.186   5.085  1.1813 -0.4483 -0.7350
55986SOL    HW285951   1.503   6.065   4.995 -0.1600  0.6881 -2.4682
55987SOL     OW85952   6.776  11.817  12.875 -0.1704 -0.4274  0.0225
55987SOL    HW185953   6.736  11.743  12.830  0.3833 -0.6594 -0.0954
55987SOL    HW285954   6.706  11.852  12.931  0.1939 -2.5447  1.9829
55988SOL     OW85955   0.222   0.846   1.998  0.3405  0.0056 -0.5986
55988SOL    HW185956   0.196   0.754   2.004 -0.8100  0.0647 -3.4190
55988SOL    HW285957   0.239   0.871   2.089 -1.7843 -2.2846  0.5605
55989SOL     OW85958   9.687   6.638   3.288 -0.4370  0.3681  0.3231
55989SOL    HW185959   9.747   6.667   3.357 -1.2125  0.4107  0.9901
55989SOL    HW285960   9.745   6.605   3.219  0.3404 -0.5213  1.3620
55990SOL     OW85961  10.595  11.171   3.376  0.5029 -0.2826 -1.0400
55990SOL    HW185962  10.620  11.087   3.339 -2.7985 -1.4190 -0.9716
55990SOL    HW285963  10.575  11.152   3.468 -0.2732  0.5457 -1.0174
55991SOL     OW85964   7.447  12.389   4.924  0.7156  0.0341  0.1688
55991SOL    HW185965   7.421  12.334   4.998  2.1436  1.4859  1.8342
55991SOL    HW285966   7.534  12.358   4.899 -0.0415 -0.9133 -1.4272
55992SOL     OW85967   8.855   3.402   5.811  0.0332 -0.2275 -0.4734
55992SOL    HW185968   8.787   3.382   5.747 -0.1147 -1.1524 -0.0369
55992SOL    HW285969   8.925   3.339   5.791  0.1421 -0.2661  0.0349
55993SOL     OW85970   7.195  13.531   5.890 -0.3453 -0.2354 -0.0283
55993SOL    HW185971   7.257  13.466   5.857  0.3294  0.1848  0.3767
55993SOL    HW285972   7.248  13.610   5.904 -1.0823  0.3019 -0.1890
55994SOL     OW85973   0.719   0.760   4.372 -0.1282  0.7257  0.0253
55994SOL    HW185974   0.803   0.781   4.414  0.6863 -1.3145 -0.4930
55994SOL    HW285975   0.700   0.836   4.317  1.7810  0.9108 -0.4367
55995SOL     OW85976   7.751   1.060   8.025 -0.2648 -0.2204  0.2023
55995SOL    HW185977   7.693   1.004   7.973  0.4436  0.2539 -1.1758
55995SOL    HW285978   7.828   1.005   8.041  1.3229  0.8401 -2.8861
55996SOL     OW85979   4.137   6.206  13.270 -0.2170  0.2908 -0.2113
55996SOL    HW185980   4.232   6.214  13.281 -0.1721  0.8761 -0.9336
55996SOL    HW285981   4.124   6.212  13.176 -0.7323 -2.5726 -0.3935
55997SOL     OW85982  13.959  13.758   4.765 -0.2553  0.2343  0.5012
55997SOL    HW185983  13.879  13.717   4.733  2.0421 -3.4948 -1.2382
55997SOL    HW285984  14.005  13.786   4.685  0.6102  1.3923  1.3753
55998SOL     OW85985   4.303  12.846   1.057 -0.3334 -0.3278  0.6462
55998SOL    HW185986   4.273  12.934   1.078  0.3306 -0.6094  3.0882
55998SOL    HW285987   4.320  12.806   1.142  2.8474 -1.6071 -0.4675
55999SOL     OW85988  10.346  11.073   5.085  0.6847 -0.1838 -0.3279
55999SOL    HW185989  10.359  11.091   4.992  0.2149 -0.5103 -0.4623
55999SOL    HW285990  10.259  11.108   5.105  0.8328 -0.0102  0.0153
56000SOL     OW85991  12.514   8.186   5.543  0.3703  0.5478  0.1627
56000SOL    HW185992  12.545   8.195   5.453 -0.3807  0.9680 -0.0568
56000SOL    HW285993  12.567   8.115   5.579  0.2537 -0.0472 -0.8014
56001SOL     OW85994   0.593   3.444   5.451  0.3102 -0.0511 -0.1863
56001SOL    HW185995   0.560   3.525   5.492  0.7408 -0.1316  0.3405
56001SOL    HW285996   0.515   3.397   5.425  0.0554  0.7828 -1.0033
56002SOL     OW85997   9.019   0.970   2.266  0.0029  0.2963  0.1161
56002SOL    HW185998   9.113   0.977   2.283  0.1927 -0.0611 -0.7205
56002SOL    HW285999   9.010   0.888   2.217 -0.5981  0.8973 -0.8018
56003SOL     OW86000   5.859   2.405   4.313  0.1918 -0.0485  0.0234
56003SOL    HW186001   5.856   2.458   4.233 -1.1414  1.4547  1.0191
56003SOL    HW286002   5.849   2.467   4.384 -0.2617 -1.5234  1.3119
56004SOL     OW86003   6.474  10.727  10.010 -0.4092 -0.4986 -0.1977
56004SOL    HW186004   6.546  10.784  10.038 -2.9725  1.7868  2.3453
56004SOL    HW286005   6.400  10.787   9.996 -2.8876 -3.0328  1.1772
56005SOL     OW86006  13.160   2.386   9.815 -0.3289  0.2156  0.2627
56005SOL    HW186007  13.127   2.308   9.772 -2.2424  0.3563  1.3641
56005SOL    HW286008  13.117   2.386   9.901  1.7892  1.0047  1.3973
56006SOL     OW86009   5.817   5.880   7.710 -0.2212 -0.5376 -0.1237
56006SOL    HW186010   5.806   5.950   7.775 -1.7010  0.4442 -1.3490
56006SOL    HW286011   5.729   5.843   7.699  0.0569 -0.8995 -1.3047
56007SOL     OW86012   6.167   1.507   4.511 -0.1437  0.3385  0.0744
56007SOL    HW186013   6.137   1.462   4.591 -1.0105 -2.0420 -1.4789
56007SOL    HW286014   6.231   1.571   4.542 -0.7511 -0.2033  2.7071
56008SOL     OW86015   0.626  12.580   1.960 -0.1817  0.4337 -0.5330
56008SOL    HW186016   0.613  12.603   1.868 -0.5604 -2.6049 -1.3444
56008SOL    HW286017   0.664  12.492   1.958 -2.1075 -0.6026  2.2405
56009SOL     OW86018   1.698  12.428   5.813 -0.5704 -0.4985  0.2150
56009SOL    HW186019   1.766  12.493   5.832 -0.9665 -0.1680  0.5289
56009SOL    HW286020   1.624  12.454   5.868 -0.2689 -2.0271  1.4054
56010SOL     OW86021  13.532   7.172  13.349 -0.0573 -0.0869  0.0919
56010SOL    HW186022  13.455   7.120  13.326 -0.8969  1.3072 -0.3538
56010SOL    HW286023  13.603   7.109  13.353 -1.1951 -1.4066  0.4234
56011SOL     OW86024   9.229  12.079  10.608  0.1091  0.0255 -0.1088
56011SOL    HW186025   9.266  12.008  10.661 -3.3513 -1.9691 -0.0934
56011SOL    HW286026   9.231  12.045  10.519 -1.4964 -0.1219 -0.1127
56012SOL     OW86027   7.797   8.406  12.310 -0.4595 -0.5760 -0.4525
56012SOL    HW186028   7.827   8.470  12.245 -1.9134  1.7588  1.0289
56012SOL    HW286029   7.704   8.426  12.322 -0.2654 -0.9258  2.2911
56013SOL     OW86030   5.972   4.628   4.178  0.1623 -0.1865 -0.6609
56013SOL    HW186031   5.903   4.656   4.118 -1.0826  0.1689  0.8757
56013SOL    HW286032   5.930   4.563   4.235  1.7009 -1.6299 -1.0626
56014SOL     OW86033   9.817   6.608   2.694  0.2818 -0.7136 -0.3598
56014SOL    HW186034   9.737   6.632   2.740  1.6683 -0.1566  1.9642
56014SOL    HW286035   9.829   6.515   2.711 -0.4981 -1.0968 -1.7977
56015SOL     OW86036  13.311   1.582   9.662  0.3832 -0.1670  0.3343
56015SOL    HW186037  13.331   1.674   9.645  0.7350 -0.6649 -2.3551
56015SOL    HW286038  13.260   1.555   9.586  1.4611 -2.5368  0.3893
56016SOL     OW86039   1.444  10.125   9.847  0.5216 -0.3639 -0.0538
56016SOL    HW186040   1.513  10.146   9.910  0.3991 -0.2762  0.0501
56016SOL    HW286041   1.490  10.080   9.776  0.8161  0.4222 -0.3774
56017SOL     OW86042   9.038   6.773  11.202 -0.5445 -0.2653  0.3422
56017SOL    HW186043   9.014   6.742  11.289 -0.9663  1.2203  0.7923
56017SOL    HW286044   9.052   6.694  11.150 -1.6514 -1.1708  1.3877
56018SOL     OW86045   7.893   4.454   2.019  0.0454 -0.0894 -0.0526
56018SOL    HW186046   7.846   4.536   2.003 -1.5076 -0.7592  0.8750
56018SOL    HW286047   7.903   4.415   1.932 -0.8896  0.2054 -0.3070
56019SOL     OW86048   8.666  13.353   8.317 -0.3155 -0.3737 -0.0702
56019SOL    HW186049   8.578  13.390   8.308  0.0868  0.2884 -1.6145
56019SOL    HW286050   8.676  13.337   8.411 -1.7418  0.3708  0.2334
56020SOL     OW86051   3.287  13.443   5.555  0.4747  0.9285  0.2508
56020SOL    HW186052   3.228  13.377   5.518  0.3677  0.9136  0.4427
56020SOL    HW286053   3.304  13.504   5.483  0.5861  0.6825  0.0672
56021SOL     OW86054   7.042   9.780   7.809  0.1749 -0.3038  0.1481
56021SOL    HW186055   6.947   9.783   7.818  0.1019  1.6438 -0.8108
56021SOL    HW286056   7.057   9.709   7.746 -0.6642 -0.3691  0.0078
56022SOL     OW86057  12.306   6.799  13.911  0.2079 -0.0742 -0.2862
56022SOL    HW186058  12.329   6.883  13.871 -1.8764 -0.0814 -1.6543
56022SOL    HW286059  12.347   6.734  13.855 -0.6765 -0.0088 -1.0470
56023SOL     OW86060   1.444   5.732  10.336  0.3046  0.2260 -0.2010
56023SOL    HW186061   1.465   5.825  10.323 -0.2682  0.4157  0.1673
56023SOL    HW286062   1.471   5.713  10.425  0.0892  0.1408 -0.1514
56024SOL     OW86063   5.815  11.726   7.151 -0.3230 -0.2877  0.7199
56024SOL    HW186064   5.885  11.786   7.127 -1.9129  2.0995  1.6943
56024SOL    HW286065   5.814  11.661   7.081  3.5643 -1.1755  1.2486
56025SOL     OW86066   0.177   0.952  11.025  0.7308 -0.2042  0.4690
56025SOL    HW186067   0.190   0.865  10.988  1.3250 -0.5670  1.4936
56025SOL    HW286068   0.094   0.982  10.988  0.6227 -1.1258 -0.0461
56026SOL     OW86069   0.662  13.655   2.883  0.6069 -0.2238 -0.7762
56026SOL    HW186070   0.661  13.560   2.895  2.6840 -0.0766  1.2872
56026SOL    HW286071   0.659  13.667   2.788 -0.2912 -2.2936 -1.0711
56027SOL     OW86072   9.944   5.187   2.050  0.5201 -0.2837 -0.1479
56027SOL    HW186073  10.028   5.152   2.080  0.9592  0.2929 -0.6891
56027SOL    HW286074   9.888   5.109   2.043  1.5502 -0.9425 -1.5599
56028SOL     OW86075  14.117   0.858   1.546 -0.2199  0.2485  0.1654
56028SOL    HW186076  14.036   0.873   1.496 -1.0146 -1.9949  0.6583
56028SOL    HW286077  14.102   0.776   1.592  2.0427  0.2035  0.9546
56029SOL     OW86078   4.824   7.677   0.283 -0.0472  0.2683 -0.3115
56029SOL    HW186079   4.913   7.706   0.301  0.7066 -2.1034  0.0765
56029SOL    HW286080   4.821   7.587   0.314 -2.5796  0.2533 -0.3788
56030SOL     OW86081   9.239   1.544   8.204  0.4467 -0.2063 -0.1143
56030SOL    HW186082   9.168   1.506   8.256  0.4857  1.3780  1.2127
56030SOL    HW286083   9.274   1.614   8.260  2.0148  0.0908 -1.3867
56031SOL     OW86084   8.260   8.027  11.214  0.2976  0.6436 -0.1030
56031SOL    HW186085   8.290   8.052  11.301 -0.4784  0.3475  0.2536
56031SOL    HW286086   8.241   8.109  11.170 -1.2052  0.7456  0.6895
56032SOL     OW86087  13.113   2.824   1.238 -0.0437  0.4095 -0.7670
56032SOL    HW186088  13.038   2.875   1.206 -0.7009  1.6773  2.4118
56032SOL    HW286089  13.181   2.889   1.254  0.3876 -0.2046 -0.0539
56033SOL     OW86090   2.289  10.803   0.505  0.2215  0.3953 -0.0913
56033SOL    HW186091   2.231  10.847   0.443 -0.7356 -2.0826 -1.1013
56033SOL    HW286092   2.355  10.762   0.450 -1.1752 -2.6394  0.2923
56034SOL     OW86093  11.346  11.292   4.165 -0.0239 -0.4160  0.0324
56034SOL    HW186094  11.267  11.324   4.123  0.3844  0.0914 -0.3641
56034SOL    HW286095  11.393  11.246   4.095 -0.2890 -1.3272  0.4312
56035SOL     OW86096   4.692  12.828  10.694  0.2191  0.1977 -0.0875
56035SOL    HW186097   4.630  12.804  10.762 -0.4808 -0.6016 -0.9880
56035SOL    HW286098   4.653  12.903  10.650  0.9920  1.1489  0.8031
56036SOL     OW86099   5.588   9.524  13.100 -0.3064 -0.4864  0.0994
56036SOL    HW186100   5.548   9.488  13.022 -1.3270  0.1563  0.3080
56036SOL    HW286101   5.562   9.465  13.171  1.5416 -1.7122 -0.1704
56037SOL     OW86102   6.668   7.557   0.924 -0.8722  0.1647  0.0185
56037SOL    HW186103   6.761   7.575   0.911 -0.4328 -0.3437  1.9921
56037SOL    HW286104   6.650   7.480   0.871 -0.5327  1.0675 -1.4448
56038SOL     OW86105   3.594  10.500   4.424  0.2322 -0.2033 -0.0184
56038SOL    HW186106   3.640  10.562   4.368  0.1948 -0.6068 -0.4987
56038SOL    HW286107   3.503  10.530   4.422  0.2477 -0.1600 -0.0983
56039SOL     OW86108   3.844   2.218   4.856  0.1117 -0.2354  0.0345
56039SOL    HW186109   3.934   2.203   4.828 -0.1111  0.1101 -0.9081
56039SOL    HW286110   3.811   2.131   4.879  0.6217 -0.3881  0.1943
56040SOL     OW86111   7.913   3.796   9.462 -0.5948 -0.2977 -0.0446
56040SOL    HW186112   7.942   3.825   9.549 -0.2576  1.0871 -0.6040
56040SOL    HW286113   7.993   3.793   9.409 -1.0270  0.4739 -0.7495
56041SOL     OW86114  11.124   3.403   7.181 -0.2681  0.5767  0.1508
56041SOL    HW186115  11.096   3.421   7.271  1.3595 -0.3023  0.8729
56041SOL    HW286116  11.194   3.338   7.190  1.2123  1.8145 -1.6149
56042SOL     OW86117   2.719  10.943  13.845 -0.4592 -0.4838 -0.2944
56042SOL    HW186118   2.727  10.998  13.923  0.5723 -0.5447 -0.3473
56042SOL    HW286119   2.728  10.854  13.878  0.3366 -0.4942 -0.5141
56043SOL     OW86120  10.733   0.612  12.867  0.3810  0.7841 -0.0358
56043SOL    HW186121  10.660   0.553  12.849 -0.3739  2.2812 -2.2574
56043SOL    HW286122  10.785   0.611  12.787  1.7568  1.1834  0.8313
56044SOL     OW86123   0.807  12.088   2.508 -0.5809 -0.1219 -0.0720
56044SOL    HW186124   0.828  12.092   2.602 -0.0158 -2.9279  0.0233
56044SOL    HW286125   0.891  12.102   2.464 -0.5293 -0.4379 -0.0791
56045SOL     OW86126   1.944   1.935   0.927 -0.2882  0.0376 -0.6664
56045SOL    HW186127   1.927   2.020   0.965 -0.5820 -0.2905 -0.0480
56045SOL    HW286128   1.991   1.953   0.846  1.9655  0.6690  0.7053
56046SOL     OW86129   5.057   9.403   8.923  0.4680 -0.0184 -0.5183
56046SOL    HW186130   5.080   9.494   8.903  1.0210 -0.1750 -0.6167
56046SOL    HW286131   5.019   9.407   9.011  0.8437  0.2601 -0.3629
56047SOL     OW86132   3.515   3.176   6.765  0.2170 -0.2586  0.1949
56047SOL    HW186133   3.588   3.184   6.704 -1.5058 -1.1559 -2.0836
56047SOL    HW286134   3.511   3.262   6.808  0.3444  1.0929 -2.3075
56048SOL     OW86135  11.754   3.651   7.616 -0.4314  0.1206 -0.1008
56048SOL    HW186136  11.679   3.710   7.619  0.3078  1.0226  1.6491
56048SOL    HW286137  11.777   3.635   7.707  2.4867  1.1776 -0.5514
56049SOL     OW86138   7.102   4.203   3.524 -0.3411 -0.4686  0.4648
56049SOL    HW186139   7.126   4.294   3.505 -1.4146  0.0740  1.5670
56049SOL    HW286140   7.146   4.183   3.606  1.1784 -1.5171 -0.5459
56050SOL     OW86141   2.087   0.403   2.889 -0.0600  0.3275 -0.2828
56050SOL    HW186142   2.176   0.401   2.853 -0.0132 -1.4434 -0.1708
56050SOL    HW286143   2.046   0.324   2.854 -0.5834 -0.5325  2.1213
56051SOL     OW86144  13.137   0.663   2.437  0.4685 -0.0818 -0.3978
56051SOL    HW186145  13.220   0.647   2.392  0.7209 -0.5899  0.2404
56051SOL    HW286146  13.158   0.729   2.504  0.4249 -0.4258 -0.0417
56052SOL     OW86147   8.826   8.091  13.796 -0.3521  0.2383 -0.3719
56052SOL    HW186148   8.876   8.111  13.875 -1.9899  1.6930  0.3647
56052SOL    HW286149   8.879   8.026  13.750  1.3113  0.3753  1.2281
56053SOL     OW86150   8.987  13.821   0.275  0.1782  1.5322  1.0292
56053SOL    HW186151   9.057  13.883   0.253 -0.1363  1.4959 -0.1514
56053SOL    HW286152   8.993  13.810   0.370  1.3917  1.9865  1.0203
56054SOL     OW86153   4.310   4.377   2.526 -0.1985 -0.2082  0.4615
56054SOL    HW186154   4.337   4.459   2.485  1.6479 -0.1154  1.7455
56054SOL    HW286155   4.316   4.312   2.455 -0.7422  0.5810 -0.3287
56055SOL     OW86156  10.910   0.869   9.786  0.2851  0.0793 -0.1898
56055SOL    HW186157  10.934   0.792   9.836  0.5366  0.1152 -0.2542
56055SOL    HW286158  10.956   0.941   9.828 -0.3376  0.2745  0.1731
56056SOL     OW86159   1.374  11.872  13.152 -0.3254 -0.2888  0.0661
56056SOL    HW186160   1.371  11.795  13.095 -0.9021  0.8241 -1.5103
56056SOL    HW286161   1.341  11.842  13.236 -0.1065 -1.8544 -0.3838
56057SOL     OW86162  12.491   8.083   4.945 -0.5317 -0.3501  0.1818
56057SOL    HW186163  12.445   8.128   5.016  1.5004  0.3810  1.1283
56057SOL    HW286164  12.490   7.991   4.972 -0.7852 -0.2386  0.5723
56058SOL     OW86165  10.896   4.322  10.775 -0.0587  1.1877 -0.0979
56058SOL    HW186166  10.916   4.381  10.847  0.7375  0.6500  0.1340
56058SOL    HW286167  10.914   4.235  10.810 -1.2009  0.8005 -0.4411
56059SOL     OW86168  10.204   5.999  12.528 -0.0168  0.4838  0.0891
56059SOL    HW186169  10.272   6.040  12.475  0.2315 -0.0535 -0.0181
56059SOL    HW286170  10.251   5.936  12.582 -0.5292 -0.4916 -0.5825
56060SOL     OW86171  11.167   2.094  12.430  0.0549  0.1145 -0.0738
56060SOL    HW186172  11.199   2.155  12.497 -0.8236 -0.1766  0.6311
56060SOL    HW286173  11.074   2.082  12.450 -0.3441  0.3894 -1.6494
56061SOL     OW86174   4.452   3.612  11.884  0.7249  0.1887 -0.6747
56061SOL    HW186175   4.538   3.609  11.928  0.0087  0.6975  0.8355
56061SOL    HW286176   4.426   3.520  11.879  0.8096  0.1218  0.0097
56062SOL     OW86177   8.343   5.439   4.363  0.4476  0.2493 -0.1401
56062SOL    HW186178   8.292   5.411   4.439 -1.1794  2.4520 -0.3351
56062SOL    HW286179   8.417   5.488   4.400  1.2294 -1.0520  0.0709
56063SOL     OW86180  11.951  12.419   1.331 -0.1943  0.7417 -0.2729
56063SOL    HW186181  11.978  12.354   1.266 -0.3902  1.5644 -1.2010
56063SOL    HW286182  12.022  12.421   1.395  1.0832  1.4891 -1.6414
56064SOL     OW86183  11.299  12.487   4.475  0.2890  0.0399 -0.2417
56064SOL    HW186184  11.267  12.575   4.457 -0.0739 -0.1954 -0.7919
56064SOL    HW286185  11.286  12.475   4.569 -1.8885 -0.2878 -0.5256
56065SOL     OW86186   0.294   7.059   6.204 -0.4113  0.2225  0.3388
56065SOL    HW186187   0.379   7.024   6.229 -0.8632 -0.6358  0.7405
56065SOL    HW286188   0.246   7.066   6.287 -1.0242 -0.1273  0.0188
56066SOL     OW86189   2.955   0.407   9.343  0.3814  0.2032  0.2679
56066SOL    HW186190   2.892   0.384   9.275  1.7115 -2.4895 -0.1993
56066SOL    HW286191   2.922   0.364   9.422  0.1018  1.3088  0.7769
56067SOL     OW86192  10.856   2.603   0.309 -0.0197  0.6088  0.3027
56067SOL    HW186193  10.810   2.651   0.377 -2.0295 -2.3161  1.2094
56067SOL    HW286194  10.796   2.604   0.234  0.3925  0.4119 -0.0372
56068SOL     OW86195   8.089   4.585   0.288 -0.2161 -0.1259  0.2785
56068SOL    HW186196   8.088   4.561   0.196  1.0557  0.3822  0.1136
56068SOL    HW286197   8.179   4.614   0.305 -0.1086 -1.2509  1.9446
56069SOL     OW86198   8.901   5.102   7.742  0.3855 -0.7114  0.1069
56069SOL    HW186199   8.887   5.143   7.827 -1.0118  0.8746 -0.8160
56069SOL    HW286200   8.979   5.145   7.707 -1.6294  2.1883 -1.2905
56070SOL     OW86201   8.043   7.907   8.367 -0.0638  0.2236 -0.1093
56070SOL    HW186202   8.116   7.850   8.392 -1.8563 -2.4345 -0.5242
56070SOL    HW286203   8.023   7.957   8.446  0.6694 -0.7371  0.7127
56071SOL     OW86204  10.785  13.421   4.365  0.1515 -0.1332  0.3033
56071SOL    HW186205  10.788  13.484   4.293 -1.6587  0.4767  0.7112
56071SOL    HW286206  10.873  13.423   4.403  0.9822 -0.0931 -1.5504
56072SOL     OW86207   5.859   5.998   8.908 -0.0794 -0.1218 -0.1109
56072SOL    HW186208   5.768   5.987   8.937  0.4188 -2.8041  0.6818
56072SOL    HW286209   5.891   6.073   8.958 -1.2753 -0.4381  1.1845
56073SOL     OW86210  13.950   7.797   9.480 -0.0396 -0.3822  0.1149
56073SOL    HW186211  13.913   7.785   9.568 -1.4162  1.6512 -0.1271
56073SOL    HW286212  13.880   7.838   9.430  1.1238 -0.4276 -1.6166
56074SOL     OW86213   3.922  11.463  10.112 -0.2059 -0.1836  0.2062
56074SOL    HW186214   3.849  11.413  10.149 -0.7461  0.6230  0.2658
56074SOL    HW286215   3.954  11.410  10.040 -0.8234 -0.5743  0.2138
56075SOL     OW86216   9.406   9.478   1.330 -0.2608 -0.3654  0.6056
56075SOL    HW186217   9.316   9.448   1.317 -0.4317 -0.0290  0.9777
56075SOL    HW286218   9.418   9.548   1.266  0.0806 -1.0823 -0.1430
56076SOL     OW86219   4.604  12.208  12.751  0.1468 -0.1992 -0.0949
56076SOL    HW186220   4.664  12.282  12.762 -0.3363  0.3769 -1.1865
56076SOL    HW286221   4.596  12.170  12.839 -0.7941  1.9868  0.8285
56077SOL     OW86222   5.606   0.098   7.520 -0.4837 -0.1904  0.9175
56077SOL    HW186223   5.627   0.178   7.568 -0.7025  0.8115 -0.6098
56077SOL    HW286224   5.551   0.127   7.447  1.8626 -1.2598 -1.4543
56078SOL     OW86225  14.012   1.136   6.932 -0.3438 -0.2516  0.3240
56078SOL    HW186226  13.970   1.056   6.900 -0.6585 -0.3696  1.0102
56078SOL    HW286227  14.015   1.125   7.027 -1.0220  0.8605  0.4891
56079SOL     OW86228   7.015   4.588  11.742  0.1566  0.6850  1.0017
56079SOL    HW186229   7.006   4.572  11.836 -0.8991 -0.7424  0.6870
56079SOL    HW286230   6.927   4.615  11.714  0.7005  2.1410  0.5824
56080SOL     OW86231   7.422   6.426  12.641  0.2469 -0.3847 -0.3001
56080SOL    HW186232   7.469   6.423  12.558  0.7847 -0.0850 -0.0115
56080SOL    HW286233   7.391   6.516  12.648 -3.2341 -1.2358 -2.0282
56081SOL     OW86234  14.069   8.718   9.245  0.2117  0.0854  0.2832
56081SOL    HW186235  14.010   8.771   9.193  0.7929 -0.4123 -0.9280
56081SOL    HW286236  14.082   8.767   9.326 -0.4953  1.0111 -0.1577
56082SOL     OW86237  12.797   3.462   0.559  0.2640 -0.0532  0.3193
56082SOL    HW186238  12.887   3.473   0.529  1.1485  1.7987  3.2771
56082SOL    HW286239  12.782   3.367   0.557  2.6394 -0.4862  0.7011
56083SOL     OW86240   8.525   5.013  12.392  0.3833 -0.0103 -0.4891
56083SOL    HW186241   8.589   4.978  12.453  1.3192 -2.1568 -2.5270
56083SOL    HW286242   8.454   4.948  12.393  0.9580 -0.7371 -2.4568
56084SOL     OW86243   9.918   8.026   6.196  0.6735 -0.1926 -0.0709
56084SOL    HW186244   9.948   7.937   6.214 -2.1653 -0.9549  1.4838
56084SOL    HW286245   9.840   8.015   6.141 -0.6869  1.1687  1.4718
56085SOL     OW86246   1.706   2.333   9.432  0.1442  0.2172 -0.1377
56085SOL    HW186247   1.704   2.245   9.470  1.5804  0.6597  1.0838
56085SOL    HW286248   1.756   2.385   9.496  0.1538  1.6826 -1.2972
56086SOL     OW86249   7.780   4.045  10.006 -0.0309  0.3777 -0.3871
56086SOL    HW186250   7.822   3.981  10.063  1.8841 -0.4111 -2.5373
56086SOL    HW286251   7.766   3.999   9.923  0.5374  2.4128 -1.6957
56087SOL     OW86252   0.286  13.179   9.610  0.1029  0.4595  0.4627
56087SOL    HW186253   0.239  13.096   9.606  0.9367  0.0107 -0.5250
56087SOL    HW286254   0.218  13.244   9.630 -0.8485 -0.2276 -0.4408
56088SOL     OW86255   4.897   1.129   7.591 -0.2982 -0.4645  0.6500
56088SOL    HW186256   4.985   1.161   7.572 -0.4534  1.0138  2.2255
56088SOL    HW286257   4.851   1.133   7.508  0.7402  0.0112  0.0830
56089SOL     OW86258  10.984   1.875   0.072  0.1696 -0.5495 -0.1386
56089SOL    HW186259  10.988   1.806   0.138  1.0788 -0.5834 -0.2248
56089SOL    HW286260  10.958   1.830  -0.009  5.0715 -1.7445 -1.3696
56090SOL     OW86261   3.004   7.471   0.717  0.1718  0.2656  0.2498
56090SOL    HW186262   3.027   7.407   0.650 -3.0453 -0.6231 -0.1736
56090SOL    HW286263   3.030   7.431   0.799  0.2218 -0.5826 -0.1720
56091SOL     OW86264   6.513   8.950   9.841 -0.4105 -0.0770  0.2571
56091SOL    HW186265   6.555   8.865   9.850 -0.1237  0.0953  0.5870
56091SOL    HW286266   6.446   8.951   9.910  0.5110  0.4973  1.1876
56092SOL     OW86267   9.268   6.749   2.870  0.1638  0.2972 -0.0190
56092SOL    HW186268   9.192   6.806   2.859 -1.7027 -1.1568  3.5567
56092SOL    HW286269   9.316   6.786   2.944  1.5321 -0.2551 -0.5948
56093SOL     OW86270  13.994   4.283   0.214  0.1833  0.1022  0.3478
56093SOL    HW186271  13.982   4.378   0.204  0.4028  0.1470  0.4971
56093SOL    HW286272  13.954   4.246   0.135 -2.4333  0.1173  1.5781
56094SOL     OW86273   2.506  12.008   2.757  0.1436  0.1587  1.0734
56094SOL    HW186274   2.520  11.922   2.796  2.1279 -0.7015 -1.2287
56094SOL    HW286275   2.585  12.057   2.780  0.6682  0.1092 -0.4949
56095SOL     OW86276   6.417  12.873   3.324  0.5922 -0.0953  0.0164
56095SOL    HW186277   6.493  12.925   3.349  0.8536  0.0445 -1.0218
56095SOL    HW286278   6.433  12.787   3.363  2.8513 -1.0554 -2.6907
56096SOL     OW86279   1.160   8.659   8.681 -0.8362 -0.3139  0.4362
56096SOL    HW186280   1.231   8.655   8.616 -0.0016  0.3919  1.2758
56096SOL    HW286281   1.158   8.571   8.719 -0.7095 -0.4656  0.0988
56097SOL     OW86282   4.590   3.059   5.794  0.5048  0.3521 -0.1831
56097SOL    HW186283   4.658   3.099   5.849  0.7594  1.4374 -1.2300
56097SOL    HW286284   4.524   3.127   5.785  0.3568  0.1068 -1.0124
56098SOL     OW86285   8.596   1.602   7.820 -0.4518 -0.3063  0.8906
56098SOL    HW186286   8.531   1.606   7.749  0.3641  1.0765  0.1723
56098SOL    HW286287   8.543   1.591   7.900 -1.3451 -2.7192  0.0553
56099SOL     OW86288  10.207   3.785  10.243 -0.0251 -0.1329 -0.4761
56099SOL    HW186289  10.300   3.789  10.268  0.6227 -1.5396 -2.3971
56099SOL    HW286290  10.179   3.876  10.240  1.8592  0.4787 -1.6366
56100SOL     OW86291   9.497   8.629   1.667 -0.2865 -0.2665 -0.1737
56100SOL    HW186292   9.574   8.572   1.662 -1.3064 -1.7720  0.5785
56100SOL    HW286293   9.516   8.687   1.741  0.6574  0.2149 -0.7792
56101SOL     OW86294   1.716  12.112   6.939  0.0964 -0.5839 -0.3708
56101SOL    HW186295   1.708  12.114   7.034 -0.9606 -1.0334 -0.4371
56101SOL    HW286296   1.799  12.067   6.923  0.1834 -0.6850  0.3304
56102SOL     OW86297   7.432   2.272  10.498 -0.2273 -0.0161 -0.4807
56102SOL    HW186298   7.511   2.218  10.504 -0.0421  0.1008 -1.7054
56102SOL    HW286299   7.417   2.302  10.588  3.7085  3.6654 -0.7168
56103SOL     OW86300   2.152   2.485  11.928 -0.6378 -0.5456  0.0214
56103SOL    HW186301   2.176   2.556  11.867  0.2312 -1.0452 -0.2355
56103SOL    HW286302   2.200   2.506  12.008 -1.6307  0.0065  0.4906
56104SOL     OW86303  11.737  11.988   1.254 -0.0277 -0.2197 -0.9805
56104SOL    HW186304  11.772  11.981   1.165 -1.0378 -0.5571 -1.3664
56104SOL    HW286305  11.763  12.076   1.283  1.4106 -0.5741 -1.1059
56105SOL     OW86306   9.547   1.039   4.069  0.0367 -0.9397 -0.1920
56105SOL    HW186307   9.639   1.054   4.049 -0.0319 -0.2222  0.0278
56105SOL    HW286308   9.521   0.967   4.011  0.6492 -0.9308 -0.4778
56106SOL     OW86309   2.836   9.343   9.531 -0.2336 -0.0334  0.1445
56106SOL    HW186310   2.869   9.305   9.450  1.8856 -0.9011  1.3331
56106SOL    HW286311   2.907   9.331   9.594 -2.2914 -0.6045  2.5130
56107SOL     OW86312   7.757   5.900  12.554  0.0534 -0.2095 -0.4033
56107SOL    HW186313   7.832   5.856  12.595  0.6002  0.1217 -1.0352
56107SOL    HW286314   7.784   5.992  12.548 -0.2335 -0.1625 -1.0169
56108SOL     OW86315   2.115   5.433   4.129 -0.1801 -0.5396 -0.5178
56108SOL    HW186316   2.045   5.370   4.144  0.7786 -1.2485  1.2652
56108SOL    HW286317   2.174   5.423   4.204  0.9430  1.2358 -1.0811
56109SOL     OW86318  12.954   5.054   4.848  0.0058  0.3194  0.2757
56109SOL    HW186319  12.889   4.984   4.854  0.8276 -0.3337  1.9322
56109SOL    HW286320  12.902   5.134   4.835 -0.9184 -0.5758 -2.2923
56110SOL     OW86321   0.281  13.377   8.874  0.2720  0.1961 -0.6853
56110SOL    HW186322   0.259  13.371   8.781  0.3522 -0.5174 -0.6657
56110SOL    HW286323   0.373  13.406   8.876 -0.1671  1.6668 -0.7931
56111SOL     OW86324   7.530  13.328   6.106  0.2544 -0.4519 -0.2468
56111SOL    HW186325   7.586  13.401   6.078 -0.1235 -0.3212 -0.6643
56111SOL    HW286326   7.479  13.364   6.179 -0.4835 -0.0576 -0.9461
56112SOL     OW86327  12.441   8.991  11.684  0.0365 -0.0763 -0.1513
56112SOL    HW186328  12.513   9.032  11.636  1.2634  0.4830  2.0278
56112SOL    HW286329  12.419   9.054  11.752 -1.1784 -1.1029  0.4372
56113SOL     OW86330   8.437  11.417   5.384  0.3913 -0.1970  0.3131
56113SOL    HW186331   8.522  11.374   5.370  0.8558  1.1719 -1.4579
56113SOL    HW286332   8.449  11.467   5.465  1.8988  1.3231 -0.7917
56114SOL     OW86333  11.614   3.078   9.701  0.2025 -0.0748 -0.3017
56114SOL    HW186334  11.659   3.152   9.659 -0.4967  1.0025  0.7816
56114SOL    HW286335  11.637   3.002   9.647  0.5334  1.0047 -1.7413
56115SOL     OW86336   5.967   1.420  11.172  0.2136 -0.2421  0.0657
56115SOL    HW186337   6.038   1.366  11.206  0.9201  0.8664  0.4121
56115SOL    HW286338   6.010   1.498  11.137 -0.7760  0.1453 -0.3515
56116SOL     OW86339   2.538   6.448  11.058  0.3852  0.1070 -0.1709
56116SOL    HW186340   2.625   6.473  11.086  0.3213  0.0302  0.1027
56116SOL    HW286341   2.525   6.492  10.974  0.9479 -0.4237 -0.5381
56117SOL     OW86342  12.405  13.484   4.243  0.0239  0.2735 -0.0593
56117SOL    HW186343  12.395  13.406   4.189  0.2158 -0.9731  1.6105
56117SOL    HW286344  12.334  13.542   4.216 -0.6296 -0.8267 -0.7717
56118SOL     OW86345  10.960   2.315  13.602 -0.0171  0.2946  0.6242
56118SOL    HW186346  10.946   2.408  13.584  0.4444  0.2313 -0.1026
56118SOL    HW286347  10.899   2.269  13.544  1.6627  0.0823 -1.0798
56119SOL     OW86348   4.063   0.209   4.457 -0.3272 -0.0049  0.0696
56119SOL    HW186349   3.969   0.227   4.465 -0.7798 -2.0012 -0.3919
56119SOL    HW286350   4.104   0.278   4.510 -2.1019  0.2736  1.1924
56120SOL     OW86351   3.307   8.326   4.207  0.0936  0.3410 -0.3664
56120SOL    HW186352   3.309   8.322   4.302  1.0536  0.6699 -0.3682
56120SOL    HW286353   3.340   8.241   4.179  2.3317  1.1552 -0.3852
56121SOL     OW86354   8.555  10.938  11.261  0.2277  0.0026 -0.1705
56121SOL    HW186355   8.477  10.986  11.235 -0.0520  0.1153  0.8365
56121SOL    HW286356   8.606  11.000  11.312 -1.0837 -1.2535  2.9037
56122SOL     OW86357   4.496   7.931   6.846 -0.1079  0.3033 -0.3021
56122SOL    HW186358   4.416   7.931   6.794 -0.0589  0.6580 -0.3815
56122SOL    HW286359   4.526   7.840   6.844  0.7108  0.5599 -2.1551
56123SOL     OW86360  10.258  10.085   9.826  0.0318 -0.1297 -0.2024
56123SOL    HW186361  10.181  10.061   9.775  0.4816 -0.4603 -0.7490
56123SOL    HW286362  10.306  10.145   9.769  0.4698 -0.3870 -0.1098
56124SOL     OW86363  12.642   8.207  11.896  0.7534  0.8933 -0.3560
56124SOL    HW186364  12.702   8.276  11.923  0.2244  1.3073 -0.2056
56124SOL    HW286365  12.576   8.205  11.965  1.1515 -0.2653  0.0108
56125SOL     OW86366   9.624   8.078   1.834  0.1159 -0.2174 -0.2641
56125SOL    HW186367   9.683   8.147   1.803  0.1093 -0.4782 -0.8687
56125SOL    HW286368   9.543   8.125   1.857  0.4539  0.1030  0.3071
56126SOL     OW86369   8.593   1.981   3.555  0.2347  0.5303 -0.2196
56126SOL    HW186370   8.609   2.075   3.543 -0.1417  0.7392  0.8531
56126SOL    HW286371   8.581   1.971   3.649 -0.0115 -0.5569 -0.3649
56127SOL     OW86372   4.401   2.874   0.026 -0.2942  0.0124 -0.0697
56127SOL    HW186373   4.470   2.920  -0.021 -1.3034  0.8023 -0.8064
56127SOL    HW286374   4.324   2.929   0.017 -1.0286 -0.8365  0.7662
56128SOL     OW86375  11.266  13.000   5.897 -0.7631  0.7932  0.0541
56128SOL    HW186376  11.253  13.055   5.974 -2.3537 -0.0750  0.4439
56128SOL    HW286377  11.237  12.913   5.924 -0.2517  0.2050 -1.1820
56129SOL     OW86378   7.334  10.671   5.837  0.3219 -0.0808 -0.3577
56129SOL    HW186379   7.249  10.660   5.794  0.7129 -3.0052 -0.6155
56129SOL    HW286380   7.313  10.715   5.919 -1.4042 -0.3607 -0.5935
56130SOL     OW86381   9.269  10.540  12.428  0.4319  0.4270 -0.2418
56130SOL    HW186382   9.239  10.503  12.345 -1.2273 -0.1537  0.5830
56130SOL    HW286383   9.284  10.463  12.483 -1.7989  0.8616  1.0712
56131SOL     OW86384  11.924   9.289   3.462  0.1813 -0.0625 -0.0625
56131SOL    HW186385  12.006   9.290   3.512  0.2373 -1.8158 -0.0419
56131SOL    HW286386  11.855   9.295   3.527  0.2747  0.0592  0.0262
56132SOL     OW86387  13.245   3.845   3.482  0.0105  0.3917 -0.1839
56132SOL    HW186388  13.152   3.823   3.474 -0.3536  2.2705 -1.7366
56132SOL    HW286389  13.288   3.792   3.415  0.0545 -0.2964  0.3737
56133SOL     OW86390  12.988  11.454   4.052  0.5570  0.3156 -0.4282
56133SOL    HW186391  13.079  11.471   4.077  0.8449  0.7231 -1.6698
56133SOL    HW286392  12.942  11.535   4.074 -0.0073 -0.6246  2.2341
56134SOL     OW86393   2.320   2.170   5.307 -0.2096  0.2024 -0.1578
56134SOL    HW186394   2.228   2.156   5.287  0.0609  0.1031 -1.3992
56134SOL    HW286395   2.366   2.097   5.265  0.4474  0.2983  0.3711
56135SOL     OW86396   0.352  12.856  13.322  0.2815  0.0372 -0.3186
56135SOL    HW186397   0.408  12.782  13.345 -0.2348 -0.7131 -1.3956
56135SOL    HW286398   0.404  12.933  13.346  0.7072 -0.6619  1.0963
56136SOL     OW86399   5.476   2.947   2.946 -0.1266  0.0378  0.2484
56136SOL    HW186400   5.562   2.990   2.943  0.1598 -0.0620  3.3482
56136SOL    HW286401   5.479   2.895   3.027 -2.9796 -0.2908  0.2269
56137SOL     OW86402   3.851  11.239  12.922  0.2076 -0.0021  0.3052
56137SOL    HW186403   3.841  11.147  12.948  1.4389 -0.1298  0.3753
56137SOL    HW286404   3.767  11.261  12.882 -0.1928 -1.0848  0.4955
56138SOL     OW86405  13.612  11.885   9.626 -0.2545  0.4324 -0.3748
56138SOL    HW186406  13.570  11.936   9.557 -1.8922  1.1129  1.0399
56138SOL    HW286407  13.640  11.805   9.583 -1.0196  0.9318 -1.8727
56139SOL     OW86408   2.802   9.559   4.102  0.0722 -0.2304  0.2473
56139SOL    HW186409   2.777   9.539   4.192 -0.2537 -1.8266 -0.1651
56139SOL    HW286410   2.893   9.528   4.095 -0.4965 -1.8578 -0.4525
56140SOL     OW86411   7.058  13.408  13.748  0.1681  1.0698  0.4786
56140SOL    HW186412   7.144  13.417  13.707 -0.6170  0.3135 -1.4645
56140SOL    HW286413   7.060  13.469  13.822  1.8576  2.1393 -0.3832
56141SOL     OW86414   1.818   0.750   1.226  0.0092 -0.1031 -0.8432
56141SOL    HW186415   1.908   0.722   1.206 -0.4083 -1.5248 -0.8847
56141SOL    HW286416   1.782   0.678   1.278 -0.8115  0.8815 -0.0124
56142SOL     OW86417   0.404   9.606   1.614  0.4428 -0.0853  0.5179
56142SOL    HW186418   0.488   9.559   1.611  0.6116  0.2191  0.2697
56142SOL    HW286419   0.354   9.562   1.682  1.5723  0.9961  2.1259
56143SOL     OW86420  12.074   5.359   3.498  0.0276 -0.0137 -0.8704
56143SOL    HW186421  12.152   5.403   3.533 -0.4409  0.7015 -0.7119
56143SOL    HW286422  12.002   5.389   3.553 -0.4592 -0.1930 -1.3931
56144SOL     OW86423  13.293   2.874  13.078  0.0031 -0.2339  0.6216
56144SOL    HW186424  13.280   2.846  13.168 -2.3003 -1.2435  0.0378
56144SOL    HW286425  13.228   2.825  13.028  2.8119 -1.6452 -2.0100
56145SOL     OW86426  10.578   0.554  13.162 -0.2896  0.2385  0.1493
56145SOL    HW186427  10.664   0.518  13.181 -0.7358  0.2696  2.4379
56145SOL    HW286428  10.522   0.524  13.234 -1.6817  1.9930 -0.1252
56146SOL     OW86429   0.145   7.990   8.763 -0.0955 -0.2393 -0.3757
56146SOL    HW186430   0.082   8.061   8.772 -1.6054 -1.5637 -0.0812
56146SOL    HW286431   0.202   7.998   8.840 -0.0872  0.7815 -0.4805
56147SOL     OW86432  10.351   0.781   9.973  0.5326 -0.2509 -0.6786
56147SOL    HW186433  10.363   0.696  10.014 -0.0642  0.2908  0.6719
56147SOL    HW286434  10.339   0.762   9.880 -3.3726 -2.0061 -0.0070
56148SOL     OW86435   0.406   9.484   0.020 -0.5108 -0.3719 -0.2761
56148SOL    HW186436   0.392   9.568  -0.024 -0.6635  0.0767  0.6123
56148SOL    HW286437   0.490   9.453  -0.014 -1.3162 -0.7881 -2.0387
56149SOL     OW86438   8.795   7.540   4.464  0.5228  0.2698  0.2830
56149SOL    HW186439   8.853   7.617   4.460  0.3103  0.3702 -2.1071
56149SOL    HW286440   8.854   7.465   4.462  0.6504  0.3804 -1.2728
56150SOL     OW86441   8.264   1.917   4.625 -0.0575 -0.1215  0.1798
56150SOL    HW186442   8.237   1.834   4.586 -0.8223  0.0868  0.2491
56150SOL    HW286443   8.260   1.902   4.719 -1.5447  0.3785  0.2331
56151SOL     OW86444   1.047   8.052   2.986 -0.4112 -0.4547 -0.0048
56151SOL    HW186445   0.955   8.071   3.003  0.1351  0.9722  1.6859
56151SOL    HW286446   1.069   7.980   3.045 -0.2772 -0.3274  0.1023
56152SOL     OW86447  11.431  11.685   3.400 -0.7312  0.4934  0.2637
56152SOL    HW186448  11.444  11.776   3.425  0.7054  1.1445 -2.4647
56152SOL    HW286449  11.340  11.681   3.370 -0.7640  1.0666  0.2696
56153SOL     OW86450  12.732  12.858   6.708 -0.4803  0.2663  0.7026
56153SOL    HW186451  12.663  12.893   6.651  0.1187 -0.2632 -0.3633
56153SOL    HW286452  12.751  12.929   6.769 -0.9792  0.9269  0.1045
56154SOL     OW86453   3.375   7.762   0.406  0.0127 -0.2411  0.6160
56154SOL    HW186454   3.438   7.832   0.422 -0.7125  1.7259 -3.6422
56154SOL    HW286455   3.301   7.783   0.463  0.6745  1.2174  0.9800
56155SOL     OW86456   8.800  13.303   5.408 -0.1863  0.2430  0.6118
56155SOL    HW186457   8.879  13.252   5.428 -0.5650  0.2823  2.3928
56155SOL    HW286458   8.828  13.394   5.415 -0.1590  0.2647  0.2313
56156SOL     OW86459   2.303   0.360   7.412  1.0587  0.0224 -0.1017
56156SOL    HW186460   2.231   0.404   7.366  1.0987 -1.2020 -1.3826
56156SOL    HW286461   2.353   0.317   7.343  2.9144  0.6424  0.7815
56157SOL     OW86462  10.058  14.037   2.399  0.2865 -0.4731  0.0311
56157SOL    HW186463  10.139  13.991   2.374  0.3677 -0.4590  0.2722
56157SOL    HW286464  10.064  14.047   2.494 -0.5741 -1.5871  0.2254
56158SOL     OW86465   2.841   7.942  10.562  0.1125  0.3697  0.8394
56158SOL    HW186466   2.851   7.927  10.468  4.1678 -0.4320  1.1996
56158SOL    HW286467   2.796   7.863  10.594  0.1356 -0.0956 -0.2165
56159SOL     OW86468   2.016  11.881  13.046  0.7610 -0.0131  0.5282
56159SOL    HW186469   1.990  11.963  13.003 -0.7555 -0.6127  0.2491
56159SOL    HW286470   2.095  11.854  13.001  1.3825  1.3810  0.7339
56160SOL     OW86471   7.448  11.164   1.630  0.2682 -0.4460  0.6412
56160SOL    HW186472   7.506  11.239   1.640  0.3932 -0.5865  0.9808
56160SOL    HW286473   7.370  11.200   1.586  1.0278 -0.4658 -0.7762
56161SOL     OW86474   7.404   0.116  10.548  0.2102  0.2344 -0.3764
56161SOL    HW186475   7.313   0.141  10.560  0.0116 -0.9150  0.8345
56161SOL    HW286476   7.402   0.048  10.481  0.2226  0.4743 -0.6203
56162SOL     OW86477   7.069   7.769  10.084  0.3083 -0.2256 -0.3027
56162SOL    HW186478   7.082   7.674  10.075  2.5634  0.0192 -0.2189
56162SOL    HW286479   7.030   7.780  10.171 -1.3947 -1.1349 -0.9050
56163SOL     OW86480  10.902   3.684   0.351 -0.4105 -0.1128  0.1642
56163SOL    HW186481  10.925   3.685   0.444 -3.1512 -2.3801  0.9949
56163SOL    HW286482  10.981   3.651   0.308  0.9859  1.1741  1.5857
56164SOL     OW86483   2.913   7.695   8.629  0.0225 -0.2402 -0.1364
56164SOL    HW186484   2.939   7.654   8.711  1.1251  0.5457 -0.0686
56164SOL    HW286485   2.817   7.692   8.630  0.0415 -2.9835 -0.2640
56165SOL     OW86486   2.843  10.247   2.064 -0.1971 -0.0646 -0.1624
56165SOL    HW186487   2.863  10.190   2.138  0.1735 -0.6259 -0.6842
56165SOL    HW286488   2.809  10.327   2.103  1.6879  0.3576  0.7152
56166SOL     OW86489  12.446   5.430   5.691  0.5815  0.3194  0.8259
56166SOL    HW186490  12.501   5.378   5.749  0.3424 -1.1431 -0.2023
56166SOL    HW286491  12.467   5.521   5.713  5.2353 -0.0246 -1.1069
56167SOL     OW86492   1.498   7.143   1.219  0.2507 -0.3177 -0.5972
56167SOL    HW186493   1.427   7.088   1.186 -0.8440 -0.0134  1.1462
56167SOL    HW286494   1.488   7.225   1.170 -0.4038 -0.3854 -0.5931
56168SOL     OW86495   0.690  11.519   3.897 -0.3109  0.1376 -0.1745
56168SOL    HW186496   0.618  11.472   3.939  1.4220 -1.6953  0.8906
56168SOL    HW286497   0.751  11.451   3.869  1.4831  1.6489 -0.1875
56169SOL     OW86498   5.105   1.638  13.094  0.3900 -0.1354  0.2021
56169SOL    HW186499   5.037   1.592  13.144  0.0835 -0.0705 -0.1513
56169SOL    HW286500   5.074   1.635  13.003 -0.5648  2.3494  0.3640
56170SOL     OW86501  12.191  11.673  11.577  0.1527 -0.5811  0.1585
56170SOL    HW186502  12.255  11.695  11.645  1.5455 -1.3129 -0.8540
56170SOL    HW286503  12.185  11.753  11.524 -0.4306 -0.2346  0.7235
56171SOL     OW86504   0.164  11.602   0.019 -0.0395 -0.2710 -0.1591
56171SOL    HW186505   0.119  11.524   0.051 -0.6308 -0.1564 -0.7130
56171SOL    HW286506   0.116  11.628  -0.059 -0.1507  0.9339  0.2895
56172SOL     OW86507   7.874   3.296   8.726 -0.4987  0.0036  0.1867
56172SOL    HW186508   7.910   3.366   8.671 -0.7142 -0.1011 -0.0909
56172SOL    HW286509   7.825   3.241   8.665 -1.1860  0.1763  0.5757
56173SOL     OW86510   5.309   9.200   3.211  0.0837  0.2330  0.3338
56173SOL    HW186511   5.217   9.180   3.190  0.0124 -1.0381  1.6655
56173SOL    HW286512   5.305   9.277   3.267 -0.3284 -0.7001  1.6351
56174SOL     OW86513  13.970  11.141   9.057  0.0581 -0.4206  0.4726
56174SOL    HW186514  13.941  11.154   8.967 -1.1671  0.1375  0.9287
56174SOL    HW286515  14.051  11.192   9.064  0.0477 -0.3062 -0.2522
56175SOL     OW86516  12.832   0.617   4.295  0.4099 -0.7155 -0.0886
56175SOL    HW186517  12.851   0.692   4.239  2.1010 -0.7600  0.3684
56175SOL    HW286518  12.772   0.651   4.361 -0.7413 -0.3927 -1.2576
56176SOL     OW86519   9.385   1.862  12.473 -0.0074  0.2697 -0.5434
56176SOL    HW186520   9.411   1.929  12.410  0.9591  1.0459  0.6399
56176SOL    HW286521   9.467   1.824  12.502 -0.4612 -0.2521  0.0686
56177SOL     OW86522   1.701   3.900  13.379 -0.4042 -0.0652 -0.1177
56177SOL    HW186523   1.678   3.980  13.428  0.3376 -0.3883  0.7840
56177SOL    HW286524   1.707   3.929  13.288  1.7790  1.3687  0.3950
56178SOL     OW86525   1.765   7.116   3.994 -0.1328  0.3868 -0.3666
56178SOL    HW186526   1.807   7.049   3.940  0.4402 -0.1989  0.7518
56178SOL    HW286527   1.836   7.175   4.018 -0.3785  0.6457 -0.2740
56179SOL     OW86528   4.670   3.989   6.087 -0.1372 -0.3883  0.1742
56179SOL    HW186529   4.653   4.069   6.037  0.0219  0.0965  0.8778
56179SOL    HW286530   4.682   3.921   6.021  2.4823  0.6836 -0.5937
56180SOL     OW86531   4.237   2.847   7.103  0.3414  0.2611  0.2057
56180SOL    HW186532   4.237   2.751   7.108 -2.3805  0.2248  1.2752
56180SOL    HW286533   4.229   2.875   7.194 -2.4277  1.3318 -0.2832
56181SOL     OW86534  10.909   2.941  11.882 -0.2903 -0.3043  0.3780
56181SOL    HW186535  10.880   2.850  11.884 -0.1159 -0.3654  0.1849
56181SOL    HW286536  10.975   2.944  11.812  0.4501 -0.2616  1.0525
56182SOL     OW86537   0.849   8.592  10.757  0.2437 -0.4506  0.0559
56182SOL    HW186538   0.803   8.666  10.718  0.6008  0.1977  0.8263
56182SOL    HW286539   0.780   8.543  10.802  0.2111  0.2596  0.8101
56183SOL     OW86540   4.688   3.492  11.122  0.4331 -0.3109 -0.3690
56183SOL    HW186541   4.636   3.545  11.061 -0.4233  0.1298  0.7133
56183SOL    HW286542   4.696   3.407  11.079  1.0414  0.3954 -1.7191
56184SOL     OW86543   3.504   1.858   8.188 -0.3041 -0.2443 -0.1767
56184SOL    HW186544   3.553   1.844   8.268  0.4317  2.1906 -0.1002
56184SOL    HW286545   3.538   1.793   8.126  1.1051 -0.3397  0.6749
56185SOL     OW86546  10.945   8.128  12.378 -0.3830 -0.3389  0.6036
56185SOL    HW186547  10.873   8.098  12.434 -0.1470  0.1666  1.1896
56185SOL    HW286548  11.002   8.176  12.437 -0.2312  0.3910 -0.1249
56186SOL     OW86549   4.268   1.373   9.152 -0.1622 -0.8630 -0.5672
56186SOL    HW186550   4.274   1.298   9.093  1.4023 -1.1810 -0.0639
56186SOL    HW286551   4.249   1.334   9.238  1.8891 -0.8440 -0.0625
56187SOL     OW86552  10.865   5.312   3.868  0.2166  0.0899  0.1606
56187SOL    HW186553  10.831   5.298   3.956  0.1778  1.0058  0.2980
56187SOL    HW286554  10.828   5.240   3.817  0.8418 -0.8774  1.0440
56188SOL     OW86555   2.547   1.025   7.256  0.2637  0.4818 -0.3219
56188SOL    HW186556   2.477   1.082   7.225 -1.1810  0.1452  2.1289
56188SOL    HW286557   2.606   1.083   7.304  1.1105  0.5617 -1.4030
56189SOL     OW86558  10.102  13.634   9.528  0.0991  0.3584  0.1237
56189SOL    HW186559  10.045  13.591   9.464  1.3932  0.4029 -1.1093
56189SOL    HW286560  10.188  13.637   9.485  0.7877  1.2392  1.5016
56190SOL     OW86561   3.062   0.060   2.195 -0.4757 -0.3229 -0.6173
56190SOL    HW186562   3.073   0.138   2.250  0.2718 -1.6917  1.2657
56190SOL    HW286563   3.016   0.092   2.118  0.8671  2.2259 -0.4713
56191SOL     OW86564  10.118   1.973   5.534  0.2561 -0.0699  0.5318
56191SOL    HW186565  10.180   1.930   5.593  0.9679 -0.6747 -0.6047
56191SOL    HW286566  10.053   1.906   5.513  0.2238  0.0196  0.3376
56192SOL     OW86567  11.115   6.293  14.085  0.5837 -0.2417 -0.1516
56192SOL    HW186568  11.063   6.321  14.160  0.5653  2.9805 -1.2351
56192SOL    HW286569  11.147   6.205  14.109 -1.9350 -0.6211  2.2462
56193SOL     OW86570   3.667   3.526  13.625  0.3831  0.1403 -0.3151
56193SOL    HW186571   3.671   3.484  13.710  0.4576  2.0812  0.6987
56193SOL    HW286572   3.627   3.611  13.642 -0.0757  0.3811 -2.3107
56194SOL     OW86573   0.922  11.198   1.140 -0.4355 -0.2019 -0.4749
56194SOL    HW186574   0.838  11.182   1.098 -0.8314 -2.2912  0.9763
56194SOL    HW286575   0.969  11.115   1.133  0.1142 -0.1351  1.7225
56195SOL     OW86576  11.232   6.544   4.329  0.0133  0.0024  0.2924
56195SOL    HW186577  11.193   6.616   4.280  3.3210  1.2179 -0.8949
56195SOL    HW286578  11.313   6.524   4.281  0.3751 -2.9819  1.8902
56196SOL     OW86579   4.581   1.452  14.153  0.0606 -0.4106 -0.4351
56196SOL    HW186580   4.608   1.543  14.165 -0.5626 -0.5088  2.4038
56196SOL    HW286581   4.516   1.456  14.083 -1.4717  1.7307  0.9363
56197SOL     OW86582  13.910   6.859   0.275 -0.1813 -0.0330 -0.1315
56197SOL    HW186583  13.969   6.787   0.296  0.0524  0.1577 -0.1216
56197SOL    HW286584  13.908   6.912   0.354  0.9847  0.8827 -0.6851
56198SOL     OW86585   7.605   0.918   6.867 -0.5191  0.5311 -0.0002
56198SOL    HW186586   7.686   0.961   6.896 -1.1704  1.9658 -0.2573
56198SOL    HW286587   7.537   0.954   6.924 -1.3140  0.9816 -1.2073
56199SOL     OW86588   1.179  13.505   5.870 -0.4425 -0.4578 -0.0869
56199SOL    HW186589   1.223  13.423   5.849 -0.0271 -0.3230  0.2521
56199SOL    HW286590   1.219  13.569   5.811  0.3544 -0.1838  0.7375
56200SOL     OW86591  13.665   3.554   8.956  1.0356  0.0319 -0.0671
56200SOL    HW186592  13.608   3.596   8.891  1.2073 -0.2759 -0.4220
56200SOL    HW286593  13.607   3.497   9.005  0.5938  1.4319  1.1044
56201SOL     OW86594   6.141  10.805   6.577  0.0489  0.1726 -0.0499
56201SOL    HW186595   6.045  10.805   6.572  0.0192  0.4112  0.4201
56201SOL    HW286596   6.168  10.733   6.520 -0.4637 -0.5746  0.6200
56202SOL     OW86597   1.901  13.905   7.289 -0.0358  0.6755 -0.3272
56202SOL    HW186598   1.820  13.954   7.304 -0.3202 -0.0091  0.4836
56202SOL    HW286599   1.915  13.856   7.371  1.1063  0.6538 -0.5146
56203SOL     OW86600  11.869   6.231   0.546 -0.2558 -0.3297 -0.3936
56203SOL    HW186601  11.811   6.169   0.589  0.4773  0.3058  1.6386
56203SOL    HW286602  11.929   6.176   0.495 -2.2428 -1.0124 -2.1674
56204SOL     OW86603  12.778   8.424  12.004 -0.2409 -0.4249 -0.2203
56204SOL    HW186604  12.701   8.473  12.033 -1.6745 -1.7561 -1.5680
56204SOL    HW286605  12.813   8.474  11.930  0.7795  0.6546  0.9522
56205SOL     OW86606  12.848   7.550  12.435 -0.3865  0.1766  0.0672
56205SOL    HW186607  12.874   7.627  12.486  0.0987  0.0094  0.0765
56205SOL    HW286608  12.765   7.575  12.395 -1.1864  0.0322  1.5699
56206SOL     OW86609   0.723   2.011   8.532  0.1041 -0.4373  0.5607
56206SOL    HW186610   0.801   1.957   8.520  2.3736  2.5337  0.8745
56206SOL    HW286611   0.733   2.050   8.619 -1.2186  0.7480  0.2248
56207SOL     OW86612   8.933   0.690  14.139 -0.0676  0.4708  0.4192
56207SOL    HW186613   8.878   0.769  14.133  0.9692  1.2249  0.5215
56207SOL    HW286614   8.958   0.672  14.048 -0.7693 -0.0921  0.3306
56208SOL     OW86615  13.198   0.946   2.890 -1.0588  0.0634  0.4037
56208SOL    HW186616  13.272   0.997   2.924 -1.6175 -0.5004  2.6820
56208SOL    HW286617  13.131   1.011   2.869 -0.0109  0.5764 -1.6221
56209SOL     OW86618   7.103   7.823   9.560 -0.1022  0.5986 -0.3021
56209SOL    HW186619   7.196   7.802   9.548 -0.8110 -1.6794 -3.0314
56209SOL    HW286620   7.096   7.848   9.652  2.8203 -1.6668  0.7121
56210SOL     OW86621  12.268   7.035   7.411 -0.1755  0.4941 -0.4094
56210SOL    HW186622  12.239   6.959   7.360  0.0766 -0.5579  0.9471
56210SOL    HW286623  12.187   7.081   7.434 -0.5619 -0.7873  0.8814
56211SOL     OW86624   6.962   0.648   3.428  0.0887  0.5393  0.3838
56211SOL    HW186625   7.038   0.664   3.485 -1.4331  1.4548  2.2525
56211SOL    HW286626   6.998   0.653   3.340  1.7598  4.1068  1.0686
56212SOL     OW86627  11.956   4.144   4.733  0.5082 -0.3348  0.0319
56212SOL    HW186628  11.879   4.171   4.783 -0.2070 -1.2189 -0.5714
56212SOL    HW286629  11.951   4.048   4.731  1.1211 -0.3568 -0.8044
56213SOL     OW86630   0.856  10.576  13.483 -0.3637  0.1769 -0.3677
56213SOL    HW186631   0.932  10.614  13.439  1.1063 -1.1138  0.9487
56213SOL    HW286632   0.789  10.570  13.414  1.2683 -0.2021 -2.0013
56214SOL     OW86633   0.030   9.244   6.688 -0.1837 -0.0745 -0.7622
56214SOL    HW186634  -0.030   9.171   6.676 -0.0952 -0.3075  0.0877
56214SOL    HW286635  -0.020   9.310   6.736  0.8053 -1.1509  1.9302
56215SOL     OW86636   9.694   1.840   9.794  0.2821  0.2185 -0.4928
56215SOL    HW186637   9.642   1.915   9.764 -0.5231 -0.7394 -1.5395
56215SOL    HW286638   9.705   1.786   9.716  0.1041 -1.1974  0.4461
56216SOL     OW86639   5.217   0.790   8.118  0.0295  0.3243  0.2319
56216SOL    HW186640   5.292   0.730   8.121  0.3700  0.7194 -0.1744
56216SOL    HW286641   5.158   0.751   8.053  0.6599  0.8871 -0.6908
56217SOL     OW86642   1.248   2.733   5.322  0.1283  0.1814 -0.1664
56217SOL    HW186643   1.292   2.766   5.401 -0.4730  0.6353 -0.0126
56217SOL    HW286644   1.192   2.806   5.294 -0.3835 -0.3223 -0.4661
56218SOL     OW86645  12.651   7.771   1.485  0.4473 -0.2230 -0.4136
56218SOL    HW186646  12.582   7.836   1.475 -0.5171 -0.5370  2.9448
56218SOL    HW286647  12.728   7.822   1.512  0.1490 -0.2926  0.5972
56219SOL     OW86648   7.779   4.949   3.395  0.4096 -0.2341  0.0578
56219SOL    HW186649   7.815   4.866   3.425 -0.5524 -0.3266  1.0446
56219SOL    HW286650   7.852   4.993   3.352  1.5088 -0.6934  1.3749
56220SOL     OW86651   9.346   9.046   7.369  0.0820 -0.3671  0.6692
56220SOL    HW186652   9.348   9.139   7.347 -0.4370 -0.7551 -1.2444
56220SOL    HW286653   9.263   9.015   7.334  0.7021 -1.7499  0.3379
56221SOL     OW86654   0.839  11.653   7.973 -0.5798 -0.1642  0.4089
56221SOL    HW186655   0.908  11.588   7.993 -0.6954 -0.4093  0.0207
56221SOL    HW286656   0.766  11.600   7.942 -0.7900  0.1335  0.4020
56222SOL     OW86657   2.649   2.874   7.506 -0.1763 -0.1005 -0.7245
56222SOL    HW186658   2.722   2.819   7.532  3.4853  4.4489 -0.1751
56222SOL    HW286659   2.674   2.909   7.420 -1.3921  2.0944 -0.2498
56223SOL     OW86660   7.924   4.412   4.442 -0.3841 -0.1170 -0.1234
56223SOL    HW186661   7.888   4.328   4.468 -1.5545 -0.1306 -1.6003
56223SOL    HW286662   7.969   4.395   4.359  1.3109  0.3072  0.6729
56224SOL     OW86663  12.427  12.746   2.542 -0.0316 -0.1488 -0.4935
56224SOL    HW186664  12.343  12.766   2.584  0.5446 -1.8875  1.7038
56224SOL    HW286665  12.484  12.820   2.567  0.2767 -1.0999  1.9236
56225SOL     OW86666   8.405  12.162   5.234  0.0884 -0.4872 -0.9521
56225SOL    HW186667   8.380  12.222   5.164 -1.2075 -0.7014 -0.7064
56225SOL    HW286668   8.416  12.218   5.311  2.2349 -0.1510 -1.4352
56226SOL     OW86669  13.438  12.478   9.936 -0.1414 -0.2241  0.3764
56226SOL    HW186670  13.528  12.499   9.960 -0.2093  0.7029 -0.1396
56226SOL    HW286671  13.426  12.517   9.850 -1.6528  1.5000  1.2883
56227SOL     OW86672  11.560   6.469   6.139  0.2085  0.0601 -0.2362
56227SOL    HW186673  11.544   6.508   6.224  1.6508  0.6723 -0.2074
56227SOL    HW286674  11.490   6.502   6.083 -0.9789 -0.6677  0.7839
56228SOL     OW86675   1.975   1.390   3.699  0.0787 -0.3441  0.6440
56228SOL    HW186676   2.071   1.399   3.699  0.1854 -1.3177  0.9620
56228SOL    HW286677   1.942   1.480   3.693  0.9827 -0.1189 -3.0641
56229SOL     OW86678  10.403   3.798   7.379 -0.0827 -0.1136  0.0630
56229SOL    HW186679  10.497   3.779   7.377 -0.0199  0.2305 -1.7335
56229SOL    HW286680  10.388   3.835   7.466  1.3189 -0.7136  0.5977
56230SOL     OW86681   8.824   8.198   1.049  0.1567 -0.1718 -0.4318
56230SOL    HW186682   8.773   8.215   0.969 -2.4742 -0.1898  1.1378
56230SOL    HW286683   8.777   8.245   1.118  0.9118 -2.1742  1.5603
56231SOL     OW86684   3.055   7.810   3.475  0.0694  0.2939  0.5487
56231SOL    HW186685   3.039   7.896   3.514  2.2216  1.4740 -0.9604
56231SOL    HW286686   3.054   7.827   3.381  1.3647 -1.1508  0.2413
56232SOL     OW86687   5.937   2.915   0.309  0.5638 -0.4187  0.3698
56232SOL    HW186688   5.914   2.825   0.284  0.9991 -0.6490  0.7952
56232SOL    HW286689   5.968   2.908   0.399 -1.3526  0.4745  1.1399
56233SOL     OW86690   1.243   0.533   2.768 -0.1809  0.1747 -0.0084
56233SOL    HW186691   1.211   0.455   2.813 -0.9634 -0.4486 -1.5629
56233SOL    HW286692   1.171   0.558   2.710  0.2838  1.7278  0.0312
56234SOL     OW86693   6.380   6.055   6.390 -0.0343 -0.0704  0.2398
56234SOL    HW186694   6.322   6.099   6.451 -1.1464 -0.5563 -0.4411
56234SOL    HW286695   6.417   5.983   6.441  1.7878  1.5614  1.3533
56235SOL     OW86696   3.192   5.690   2.246  0.4463  0.0014  0.2483
56235SOL    HW186697   3.097   5.691   2.240  0.3403  1.0843  1.6219
56235SOL    HW286698   3.212   5.613   2.300  0.5711 -1.8449 -2.2789
56236SOL     OW86699  10.545   9.484  11.013 -0.0093  0.0065 -0.1170
56236SOL    HW186700  10.469   9.470  10.957  0.0968 -0.7420 -0.0850
56236SOL    HW286701  10.551   9.404  11.066  1.3513 -0.3513 -0.7753
56237SOL     OW86702   2.135   4.704  10.080 -0.4687  0.1842  0.0959
56237SOL    HW186703   2.147   4.664   9.994  0.3384  0.6281 -0.0181
56237SOL    HW286704   2.041   4.700  10.097 -0.6265  0.0715 -0.7953
56238SOL     OW86705   0.283   5.617  10.342 -0.0476  0.2392  0.6037
56238SOL    HW186706   0.232   5.687  10.300 -0.5100 -0.7305 -0.5291
56238SOL    HW286707   0.372   5.650  10.343 -0.4633  1.4140  1.3777
56239SOL     OW86708   8.771  12.218   6.124 -0.5899  0.3606 -0.2701
56239SOL    HW186709   8.856  12.216   6.080  0.1533  0.0487  1.0908
56239SOL    HW286710   8.762  12.308   6.156  0.2499 -0.1001  1.3886
56240SOL     OW86711   3.926   9.445   6.085  0.1325 -0.4944 -0.6144
56240SOL    HW186712   3.853   9.404   6.133 -0.9157  0.4120 -1.3697
56240SOL    HW286713   3.995   9.455   6.151 -1.0000  0.0649  0.5392
56241SOL     OW86714  13.753   0.061   8.194 -0.5814 -0.0074 -0.0511
56241SOL    HW186715  13.812   0.089   8.124  0.9630 -1.8655  0.4263
56241SOL    HW286716  13.767   0.124   8.265  3.3878 -2.0726  1.2918
56242SOL     OW86717  10.329   1.676   3.868 -0.0827  0.7691  0.2502
56242SOL    HW186718  10.295   1.730   3.797 -0.6962  0.9713  0.6903
56242SOL    HW286719  10.398   1.624   3.827 -0.3457  0.9676 -0.4691
56243SOL     OW86720   2.558   8.415  10.113  0.4233  0.0739 -0.4924
56243SOL    HW186721   2.532   8.343  10.056  1.9279 -0.0930 -1.0063
56243SOL    HW286722   2.559   8.377  10.201 -0.0210 -0.1847 -0.5947
56244SOL     OW86723  10.118   8.280   0.914 -0.4927 -0.1908 -0.3181
56244SOL    HW186724  10.078   8.345   0.972  1.0472 -0.6751  1.3749
56244SOL    HW286725  10.075   8.198   0.936 -0.5042 -0.2320 -0.4881
56245SOL     OW86726   6.280   5.544   2.296 -0.1534  0.2923 -0.2193
56245SOL    HW186727   6.192   5.575   2.275  0.1864 -0.3322 -2.9047
56245SOL    HW286728   6.329   5.624   2.319 -0.6582  1.0893 -1.7562
56246SOL     OW86729   0.739   0.337   5.329  0.5451 -0.2349 -0.0495
56246SOL    HW186730   0.681   0.265   5.304 -0.1791  0.6020 -0.9006
56246SOL    HW286731   0.822   0.317   5.288  0.1273 -0.2139 -0.9268
56247SOL     OW86732   6.979  10.803   9.278 -0.1895  0.1321 -0.1797
56247SOL    HW186733   7.009  10.777   9.191 -0.4450  0.4033 -0.3504
56247SOL    HW286734   6.958  10.720   9.322 -0.7293  0.0225 -0.6212
56248SOL     OW86735   6.882  13.015   1.356 -0.6949 -0.1762  0.0107
56248SOL    HW186736   6.931  12.973   1.427 -1.9768 -0.0836  0.9828
56248SOL    HW286737   6.927  13.098   1.342  0.5113 -0.8629 -0.3836
56249SOL     OW86738   4.730  13.132   6.157  0.7473  0.3353 -0.3099
56249SOL    HW186739   4.727  13.039   6.181  0.4185  0.6149  0.8286
56249SOL    HW286740   4.817  13.161   6.186  1.8543 -0.1361 -2.8879
56250SOL     OW86741  11.314   6.188   5.399 -0.0657  0.5232 -0.2410
56250SOL    HW186742  11.393   6.173   5.450 -1.1325 -0.3443  1.2040
56250SOL    HW286743  11.321   6.280   5.371  2.0308  0.1295 -1.2469
56251SOL     OW86744   3.949  10.716   4.237 -0.2993 -0.0089  0.0987
56251SOL    HW186745   3.948  10.639   4.180 -2.0042 -0.6536  0.9227
56251SOL    HW286746   4.030  10.707   4.288 -0.1416 -0.8991 -0.2885
56252SOL     OW86747  13.714  13.738   7.880  0.1669 -0.1027  0.7464
56252SOL    HW186748  13.743  13.765   7.967 -0.0761  1.0669  0.4805
56252SOL    HW286749  13.758  13.799   7.821  1.6385 -1.8985 -0.1068
56253SOL     OW86750   7.294   0.523  12.565 -0.7588  0.3591 -0.0405
56253SOL    HW186751   7.236   0.497  12.637 -0.7757  0.9903  0.1728
56253SOL    HW286752   7.238   0.576  12.508 -0.7421 -0.1244 -0.5171
56254SOL     OW86753  12.156   4.457   7.641  0.2130 -0.2280 -0.2843
56254SOL    HW186754  12.178   4.512   7.716  2.2708  0.8660 -1.6108
56254SOL    HW286755  12.230   4.397   7.633 -0.2506 -0.7048 -1.0926
56255SOL     OW86756   9.858   6.333  13.344 -0.0347 -0.0475  0.2130
56255SOL    HW186757   9.830   6.293  13.262  0.5906  1.5554 -0.8445
56255SOL    HW286758   9.911   6.267  13.387  0.5475 -0.5497 -1.2156
56256SOL     OW86759   3.107  12.765   1.592 -0.1851 -0.0568 -0.0172
56256SOL    HW186760   3.037  12.700   1.588 -0.1916 -0.0320 -0.3835
56256SOL    HW286761   3.143  12.765   1.504  0.7864 -0.6251  0.3667
56257SOL     OW86762   6.209  11.843  13.817 -0.2562  0.7013 -0.5309
56257SOL    HW186763   6.293  11.888  13.823 -0.5345  1.3837 -1.4454
56257SOL    HW286764   6.145  11.914  13.806 -0.8644  0.1503 -0.6094
56258SOL     OW86765   5.543   8.660   0.375  0.7237 -0.4522  0.3044
56258SOL    HW186766   5.634   8.686   0.388  1.5592 -2.6952 -0.5325
56258SOL    HW286767   5.518   8.616   0.456  0.5094 -0.1620  0.3958
56259SOL     OW86768   9.240   4.653   5.356 -0.0161  0.7046  0.4078
56259SOL    HW186769   9.197   4.650   5.271  1.9767  1.0875 -0.6882
56259SOL    HW286770   9.240   4.563   5.387  0.5337  0.3007 -0.7211
56260SOL     OW86771  10.185   9.604   1.921 -0.6102 -0.4159  0.5882
56260SOL    HW186772  10.196   9.590   1.828  0.3022  3.4298 -0.0472
56260SOL    HW286773  10.201   9.697   1.934 -1.5642 -0.5927  4.4833
56261SOL     OW86774  12.794   1.645   0.037  0.4201  0.2758 -0.5662
56261SOL    HW186775  12.761   1.636   0.127  0.3136 -0.2341 -0.6519
56261SOL    HW286776  12.889   1.653   0.048  0.4462 -0.1884 -0.4279
56262SOL     OW86777  12.034  12.617   3.661  0.3539  0.0607  0.5386
56262SOL    HW186778  11.951  12.585   3.625 -0.5429  1.5587  1.1903
56262SOL    HW286779  12.101  12.577   3.605 -0.8942  0.5684 -1.4258
56263SOL     OW86780  12.864   8.688   4.116  0.7477  0.0106 -0.1036
56263SOL    HW186781  12.884   8.721   4.204 -0.4891 -1.6097  0.8287
56263SOL    HW286782  12.950   8.665   4.079  1.5791  3.1306 -0.4213
56264SOL     OW86783  13.194  10.079   4.094 -0.1468  0.0953  0.3666
56264SOL    HW186784  13.144  10.160   4.106  0.2262  0.1379  1.6702
56264SOL    HW286785  13.187  10.034   4.177 -0.5251 -1.3334 -0.4104
56265SOL     OW86786  11.883   3.926  12.525 -0.2981  0.1747 -0.5672
56265SOL    HW186787  11.874   4.003  12.468 -1.1550  1.8942  1.7132
56265SOL    HW286788  11.797   3.916  12.565  0.6569  0.1143  1.6320
56266SOL     OW86789  12.715  12.686  11.922  0.0040  0.1680  0.0365
56266SOL    HW186790  12.756  12.685  12.009  1.7853  1.6593 -0.7272
56266SOL    HW286791  12.689  12.595  11.907 -0.2547 -0.1342  2.0804
56267SOL     OW86792   5.416   0.908  12.124  0.2646 -0.3087 -0.3810
56267SOL    HW186793   5.458   0.988  12.093 -0.5112  0.6483  0.9404
56267SOL    HW286794   5.347   0.891  12.060  1.0506 -0.4921 -1.1976
56268SOL     OW86795   0.173   2.651   2.849  0.0044  0.4695  0.1757
56268SOL    HW186796   0.214   2.726   2.806  0.2892  0.5783  0.6210
56268SOL    HW286797   0.128   2.604   2.779 -2.8771  2.7475  0.3033
56269SOL     OW86798   1.481  10.821  10.704 -0.0035  0.1790  0.2436
56269SOL    HW186799   1.526  10.761  10.764  0.5067  0.3292  0.0160
56269SOL    HW286800   1.533  10.901  10.706 -0.7978  0.7021  0.7076
56270SOL     OW86801   1.794   8.511   3.484  0.3375  0.5687  0.2256
56270SOL    HW186802   1.862   8.457   3.524 -0.8524 -0.6117  0.7178
56270SOL    HW286803   1.716   8.494   3.536 -0.4463  1.5765 -0.5774
56271SOL     OW86804   9.155   0.913   0.512  0.1647  0.7097  0.6205
56271SOL    HW186805   9.061   0.931   0.504  0.5268  2.5093 -0.1414
56271SOL    HW286806   9.163   0.818   0.501 -1.5223  0.5686  0.3950
56272SOL     OW86807  11.394   3.430   7.830 -0.0431 -0.8063  0.7685
56272SOL    HW186808  11.317   3.374   7.843  1.1042 -2.1157  2.2705
56272SOL    HW286809  11.468   3.370   7.835  1.0959  0.2581 -1.6777
56273SOL     OW86810   2.610   8.087  11.799 -0.2931 -0.2791  0.3432
56273SOL    HW186811   2.572   8.031  11.731 -1.1013 -0.2095  0.7190
56273SOL    HW286812   2.565   8.170  11.789  0.9223  0.3278 -0.2259
56274SOL     OW86813   7.321  13.170   6.555  0.0041 -0.2132 -0.3443
56274SOL    HW186814   7.291  13.085   6.587  2.2009 -0.5126  1.1258
56274SOL    HW286815   7.372  13.150   6.477  0.3340 -0.2230 -0.1266
56275SOL     OW86816  13.095   2.133   5.014  0.0180 -0.0950  0.2382
56275SOL    HW186817  13.097   2.123   4.919 -1.0731 -0.8373  0.2654
56275SOL    HW286818  13.186   2.149   5.039  0.2622  0.4527 -0.9606
56276SOL     OW86819   3.566   5.081   0.202  0.3735 -0.3095  0.0459
56276SOL    HW186820   3.659   5.068   0.222  0.2160 -1.3258  0.1490
56276SOL    HW286821   3.528   5.112   0.285  0.4097 -0.9853  0.3193
56277SOL     OW86822   0.738   4.852   0.983  0.2375 -1.1446 -0.4734
56277SOL    HW186823   0.696   4.914   0.923  1.0365  0.2425  0.3668
56277SOL    HW286824   0.830   4.877   0.983  0.4447 -1.8518  0.4709
56278SOL     OW86825   4.745   4.059   7.414 -0.1295  0.9467  0.0204
56278SOL    HW186826   4.786   4.071   7.500 -0.1207 -0.9397  0.3138
56278SOL    HW286827   4.765   3.969   7.390 -1.6194  0.8964 -1.1888
56279SOL     OW86828  11.915   1.738   9.468  0.2313  0.5782  0.0510
56279SOL    HW186829  12.002   1.753   9.507  0.4037  2.7481 -1.0295
56279SOL    HW286830  11.916   1.789   9.387 -1.1420 -1.5102 -1.3731
56280SOL     OW86831   3.804  10.547   8.893 -0.0062 -0.4183  0.3059
56280SOL    HW186832   3.742  10.488   8.935  0.7734 -1.1456  0.4688
56280SOL    HW286833   3.783  10.542   8.800 -0.7366 -0.0038  0.4490
56281SOL     OW86834   8.284   8.208   6.705 -0.3218 -0.1535  0.2560
56281SOL    HW186835   8.375   8.229   6.726 -0.1543 -2.0121  1.6770
56281SOL    HW286836   8.240   8.204   6.790 -2.0503  1.8034 -0.4611
56282SOL     OW86837   0.200   1.273   6.044  0.0541  0.1843  0.3167
56282SOL    HW186838   0.129   1.309   5.991 -1.1343 -1.9769  0.3240
56282SOL    HW286839   0.177   1.295   6.134 -0.6087 -0.4186  0.3118
56283SOL     OW86840   7.646   0.404   8.909  0.8548  0.2719  0.1179
56283SOL    HW186841   7.588   0.467   8.867  0.9373 -1.0349 -2.0681
56283SOL    HW286842   7.650   0.433   9.001 -0.4255  2.4192 -0.4407
56284SOL     OW86843   5.643   6.811   5.327  0.0889 -0.1762 -0.1112
56284SOL    HW186844   5.551   6.806   5.352  0.1987  1.8482  0.8191
56284SOL    HW286845   5.642   6.806   5.232 -1.1804  1.8096 -0.2469
56285SOL     OW86846  13.668   4.169  12.033  0.4977 -0.0521 -0.4882
56285SOL    HW186847  13.671   4.143  11.941 -0.9282 -0.3019 -0.4894
56285SOL    HW286848  13.625   4.255  12.033  0.0704 -0.2588 -0.0308
56286SOL     OW86849  11.147   1.266  14.012  0.2001 -0.7141  0.2917
56286SOL    HW186850  11.170   1.227  13.927  1.4091  2.9013 -1.2377
56286SOL    HW286851  11.095   1.343  13.990  2.5154  1.6991  2.5669
56287SOL     OW86852   9.390   8.173   0.112  0.3373 -0.1734 -0.2724
56287SOL    HW186853   9.330   8.099   0.103 -0.4777  0.3293  0.7973
56287SOL    HW286854   9.468   8.136   0.153 -0.1167 -0.4237  0.3767
56288SOL     OW86855   0.186   2.766   6.817  0.1159  0.5097  0.6488
56288SOL    HW186856   0.229   2.850   6.832  1.4332 -0.2551  1.3132
56288SOL    HW286857   0.178   2.727   6.904  2.8207 -1.5882  0.1046
56289SOL     OW86858   6.998  11.574  10.762  0.0387 -0.4058  0.2930
56289SOL    HW186859   6.937  11.617  10.822 -0.4934  0.3973 -0.7997
56289SOL    HW286860   6.997  11.628  10.683  1.2643 -1.0456 -0.1933
56290SOL     OW86861   9.818   6.526   9.255 -0.7162 -0.0326  0.0554
56290SOL    HW186862   9.774   6.443   9.236  0.7012 -0.8773  0.2940
56290SOL    HW286863   9.889   6.530   9.191  0.0317  0.3342  0.8857
56291SOL     OW86864   5.792   8.595  10.342 -0.8099  0.4201  0.0458
56291SOL    HW186865   5.704   8.586  10.304 -0.1037 -0.9702 -1.4275
56291SOL    HW286866   5.833   8.511  10.324  1.2182  1.4481 -0.3892
56292SOL     OW86867   4.094   3.362  12.956  0.2680  0.6481  0.4328
56292SOL    HW186868   4.104   3.269  12.933 -0.9031  0.7539 -0.6286
56292SOL    HW286869   4.173   3.383  13.006  0.5118 -0.9408  0.7689
56293SOL     OW86870   1.441  13.745   0.772  0.3870 -0.4501  0.6976
56293SOL    HW186871   1.465  13.713   0.685 -0.0937  0.2379  0.3107
56293SOL    HW286872   1.522  13.782   0.807  0.3054  0.3299  0.0742
56294SOL     OW86873   3.744   8.526  14.051  0.0672 -0.0832  0.4073
56294SOL    HW186874   3.767   8.601  13.996 -1.2680  1.9893  2.4892
56294SOL    HW286875   3.816   8.520  14.115  0.7311 -1.3571 -0.4117
56295SOL     OW86876   0.955   0.166   7.097 -0.2160 -0.3588 -0.2045
56295SOL    HW186877   1.007   0.195   7.172  0.2332 -0.6853 -0.3945
56295SOL    HW286878   1.013   0.174   7.022 -0.8763  0.6499 -0.6454
56296SOL     OW86879   2.607   5.694   7.743  0.2029  0.8403  0.0563
56296SOL    HW186880   2.670   5.750   7.697 -1.7449  1.4512 -2.0122
56296SOL    HW286881   2.539   5.753   7.773 -1.2664 -0.1819 -1.0773
56297SOL     OW86882  10.943  10.530   0.932 -0.1209 -0.2620 -0.3447
56297SOL    HW186883  10.921  10.566   0.846 -0.6359 -0.6134 -0.3638
56297SOL    HW286884  10.903  10.443   0.933  0.2772 -0.4465  0.0768
56298SOL     OW86885   2.629  13.800  13.462  0.6877  0.0712  0.4497
56298SOL    HW186886   2.563  13.815  13.394  0.7985  0.0734  0.3417
56298SOL    HW286887   2.590  13.735  13.520  0.6525 -0.0374  0.3032
56299SOL     OW86888   5.611  12.879   4.047 -0.1602 -0.2074 -0.2109
56299SOL    HW186889   5.600  12.784   4.058  0.0859 -0.2837 -0.5615
56299SOL    HW286890   5.541  12.918   4.098  0.2458 -0.5577  0.6277
56300SOL     OW86891   8.982   6.400   6.871  0.0531 -0.1327 -0.5977
56300SOL    HW186892   9.024   6.356   6.797 -0.7848  0.9385 -1.7501
56300SOL    HW286893   8.896   6.359   6.879  0.9673 -1.8384  1.3127
56301SOL     OW86894   4.209   9.901   2.788  0.1816 -0.0283 -0.1787
56301SOL    HW186895   4.120   9.871   2.771 -0.3772  1.5099 -0.0996
56301SOL    HW286896   4.226   9.875   2.878 -0.0522 -0.6399 -0.3094
56302SOL     OW86897  11.326   6.990   6.268  0.5197  0.3085  0.2205
56302SOL    HW186898  11.369   7.055   6.324  0.7219 -0.0126  0.4425
56302SOL    HW286899  11.247   6.965   6.315 -0.0077  1.0137 -0.2605
56303SOL     OW86900   2.672  14.131  10.314  0.7528 -0.1708 -0.4238
56303SOL    HW186901   2.656  14.169  10.401  0.4872  1.5010 -1.1615
56303SOL    HW286902   2.599  14.071  10.301  0.1401  0.4444  0.0478
56304SOL     OW86903  11.509   5.278   3.999 -0.2395  0.0520  0.3556
56304SOL    HW186904  11.524   5.222   4.075 -0.9821 -0.6057  0.0368
56304SOL    HW286905  11.484   5.217   3.929  0.2391  0.6607 -0.3615
56305SOL     OW86906  13.982   4.021   8.827  0.0721 -0.3418 -0.1644
56305SOL    HW186907  13.902   4.007   8.878 -0.2200  0.6879 -0.3056
56305SOL    HW286908  14.026   3.936   8.826  0.1715 -0.3658  1.9257
56306SOL     OW86909   0.288   2.048   4.209 -0.3618 -0.4799 -0.3508
56306SOL    HW186910   0.366   1.993   4.206  1.0661  1.4124 -0.0181
56306SOL    HW286911   0.258   2.042   4.300  0.0354 -0.3934 -0.2114
56307SOL     OW86912   6.530  11.972  11.607  0.1780  0.0958  0.3213
56307SOL    HW186913   6.618  11.986  11.641 -0.3980  0.8168  1.5925
56307SOL    HW286914   6.527  11.878  11.585  0.9998 -0.1012  1.0103
56308SOL     OW86915  10.995   4.862   1.710  0.0086 -0.2397 -0.1428
56308SOL    HW186916  11.069   4.916   1.681 -0.2356 -0.3821 -1.0732
56308SOL    HW286917  11.025   4.822   1.792  0.0303  1.6316  0.8028
56309SOL     OW86918  10.228   8.357  11.052  0.5142 -0.1973  0.3115
56309SOL    HW186919  10.145   8.332  11.011  0.7050 -0.1641 -0.1110
56309SOL    HW286920  10.293   8.299  11.011  0.8017  0.2529  0.1178
56310SOL     OW86921   9.626  13.891   2.767  0.0359  0.2050  0.0861
56310SOL    HW186922   9.601  13.982   2.785  1.4273  0.2867  2.0287
56310SOL    HW286923   9.718  13.887   2.793  0.6112 -1.2673 -1.9868
56311SOL     OW86924  12.409  10.600  12.741  0.6795 -0.1481 -0.6510
56311SOL    HW186925  12.353  10.677  12.741  1.1744  0.2174 -0.2066
56311SOL    HW286926  12.439  10.592  12.651 -0.8084 -0.8942 -1.1271
56312SOL     OW86927   9.931   6.312   9.478 -0.0966 -0.1617 -0.9091
56312SOL    HW186928   9.840   6.337   9.462  0.6135  1.4367 -2.8700
56312SOL    HW286929   9.948   6.242   9.415 -0.3165 -1.3696  0.3496
56313SOL     OW86930  12.409  13.553   5.462 -0.8786  0.3726 -0.2325
56313SOL    HW186931  12.373  13.472   5.499 -2.1184  0.9149 -0.2217
56313SOL    HW286932  12.483  13.574   5.519 -1.8839  0.4234  1.1051
56314SOL     OW86933  13.233   1.594   4.054 -0.2603 -0.4548 -0.2622
56314SOL    HW186934  13.250   1.508   4.016  1.3523 -0.0279 -0.5778
56314SOL    HW286935  13.264   1.656   3.987 -0.1882  0.3496  0.4998
56315SOL     OW86936  12.031   9.808   9.483 -0.2907  0.5391  0.1059
56315SOL    HW186937  11.938   9.822   9.501 -0.4873 -1.0180  0.4772
56315SOL    HW286938  12.041   9.825   9.389 -1.2305 -0.4906 -0.2031
56316SOL     OW86939   3.894   9.512   0.833  1.0017  0.3176 -0.2602
56316SOL    HW186940   3.966   9.572   0.811  1.0572  0.4035  0.1459
56316SOL    HW286941   3.826   9.533   0.769  2.1099 -1.2396 -2.0524
56317SOL     OW86942   4.198   9.313   6.274  0.1312  0.3798  0.1577
56317SOL    HW186943   4.233   9.275   6.193 -0.2889 -0.4772  0.3715
56317SOL    HW286944   4.206   9.407   6.261 -0.8558  0.2947 -1.3061
56318SOL     OW86945   5.025   6.821   8.940  0.1866  0.0936  0.3362
56318SOL    HW186946   4.936   6.858   8.943  0.1622 -0.0142  1.1419
56318SOL    HW286947   5.080   6.888   8.981  0.3853 -0.0895  0.3681
56319SOL     OW86948   4.388  12.283   0.314 -0.4902  0.3135  0.0398
56319SOL    HW186949   4.382  12.342   0.390 -1.9152 -0.4289  0.5522
56319SOL    HW286950   4.474  12.242   0.322 -0.6271  0.2091  1.2989
56320SOL     OW86951  13.369  12.791   9.472  0.4133 -0.0962  0.6247
56320SOL    HW186952  13.355  12.882   9.448  1.3990  0.0600  0.6068
56320SOL    HW286953  13.391  12.793   9.565 -1.0785 -0.4794  1.0146
56321SOL     OW86954  10.919   1.991  11.335  0.4211 -0.2610 -0.0088
56321SOL    HW186955  10.929   1.996  11.430 -1.8754 -0.4499  0.3067
56321SOL    HW286956  10.894   2.080  11.309  0.4376 -0.3526 -0.3371
56322SOL     OW86957  13.855  13.248   4.794 -0.2526  0.4902  0.3499
56322SOL    HW186958  13.834  13.296   4.715  0.9273  0.0366 -0.2614
56322SOL    HW286959  13.833  13.157   4.774  0.1051  0.3647  0.5137
56323SOL     OW86960   0.187  13.853   0.008  0.3239 -0.0092  0.0827
56323SOL    HW186961   0.251  13.782   0.013  1.9419  1.1933 -2.1155
56323SOL    HW286962   0.239  13.933   0.007 -1.3282  1.1216  0.0050
56324SOL     OW86963   7.946   8.375   0.930  0.1790 -0.1639 -0.5729
56324SOL    HW186964   7.912   8.399   0.844  1.6292  2.0484 -0.6176
56324SOL    HW286965   8.039   8.397   0.926 -0.0316  1.6503  2.0619
56325SOL     OW86966   3.005  12.042  13.099 -0.0590  0.1508  0.5890
56325SOL    HW186967   2.915  12.011  13.108  0.0847 -0.3827  0.2008
56325SOL    HW286968   3.023  12.037  13.005  0.5407 -0.2124  0.7202
56326SOL     OW86969  11.070  11.241   8.977 -0.5739  1.0548 -0.4856
56326SOL    HW186970  11.157  11.201   8.986 -0.9097  0.7434  2.3813
56326SOL    HW286971  11.015  11.170   8.943 -0.3580  0.2125  0.8503
56327SOL     OW86972  10.584   6.449   4.650  0.5468 -0.5776 -0.0574
56327SOL    HW186973  10.536   6.398   4.584  0.2267 -1.4561  0.8308
56327SOL    HW286974  10.522   6.517   4.678  0.2117 -1.0133  0.2711
56328SOL     OW86975   7.445   5.251  13.038 -0.2928  0.2964  0.0257
56328SOL    HW186976   7.539   5.251  13.057 -0.0507  1.7972 -1.0438
56328SOL    HW286977   7.403   5.255  13.124  0.4784 -3.1574  0.7454
56329SOL     OW86978   3.553  11.112  13.593  0.2460 -0.0976  0.1802
56329SOL    HW186979   3.616  11.148  13.656 -0.9603 -1.2027  2.1198
56329SOL    HW286980   3.601  11.041  13.550  1.0848  0.6573 -0.1526
56330SOL     OW86981   5.142   0.498  10.000 -0.7385  0.0569  0.5733
56330SOL    HW186982   5.171   0.553  10.072  1.0086 -2.2398  1.7373
56330SOL    HW286983   5.176   0.541   9.922  3.3649 -0.8090  1.6526
56331SOL     OW86984  10.841   0.310   4.524 -0.0707 -0.9498  0.8779
56331SOL    HW186985  10.919   0.288   4.575 -0.0420 -0.7680  0.9124
56331SOL    HW286986  10.875   0.336   4.438  0.0619  1.0942  1.5081
56332SOL     OW86987   6.610   8.464   3.501 -0.1202 -0.0507 -0.5375
56332SOL    HW186988   6.689   8.511   3.474  0.5676 -0.9121 -0.0223
56332SOL    HW286989   6.606   8.474   3.596 -0.6149 -0.0455 -0.5530
56333SOL     OW86990   1.043   9.301   0.067  0.6117  0.0060 -0.0059
56333SOL    HW186991   1.098   9.260  -0.001 -0.6443 -0.8171 -0.5645
56333SOL    HW286992   0.983   9.231   0.095 -0.3840  0.9639  0.3293
56334SOL     OW86993   5.668  13.305   5.151 -0.0423  0.1532 -0.5964
56334SOL    HW186994   5.727  13.378   5.167 -1.2008  0.7183  1.5657
56334SOL    HW286995   5.640  13.316   5.060  1.0459  1.4307 -0.8099
56335SOL     OW86996   1.065   1.422   1.773  0.5409 -0.1814 -0.4952
56335SOL    HW186997   1.000   1.489   1.751  2.4138  1.6538 -0.7344
56335SOL    HW286998   1.071   1.425   1.868  1.2967  0.7055 -0.5578
56336SOL     OW86999   4.445   2.503   6.259 -0.3775 -0.4723  0.3993
56336SOL    HW187000   4.464   2.475   6.169  0.0626  1.6856 -0.2500
56336SOL    HW287001   4.381   2.574   6.248  1.5370  1.5231  1.5491
56337SOL     OW87002   4.104   4.756   1.181  0.1702 -0.0251 -0.4058
56337SOL    HW187003   4.033   4.721   1.234  0.4881  0.3434  0.2793
56337SOL    HW287004   4.062   4.819   1.123  0.0994  1.4208  1.1077
56338SOL     OW87005   1.791   9.582  12.125  0.1218  0.2233  0.0640
56338SOL    HW187006   1.764   9.667  12.159  3.5756  1.2358  0.5941
56338SOL    HW287007   1.743   9.573  12.043 -0.1528  2.8179 -0.1489
56339SOL     OW87008   1.734   2.759   5.013 -0.0797  0.5486 -0.0086
56339SOL    HW187009   1.812   2.814   5.006 -0.1893  0.7243  0.1300
56339SOL    HW287010   1.708   2.743   4.923  1.8854 -2.0662 -0.2232
56340SOL     OW87011   5.970   1.489   7.941 -0.4822  0.0072 -0.2104
56340SOL    HW187012   5.941   1.580   7.934 -0.2574  0.1969  0.9728
56340SOL    HW287013   5.929   1.457   8.021  1.1359 -0.2387  0.5748
56341SOL     OW87014  10.922   7.881  11.881 -0.6375 -0.1591  0.3456
56341SOL    HW187015  10.937   7.791  11.908  0.1813 -0.3942 -0.8012
56341SOL    HW287016  10.985   7.895  11.810 -0.1512  1.5855  1.0753
56342SOL     OW87017   6.275  11.397   0.778 -0.0907  0.1750 -0.3991
56342SOL    HW187018   6.254  11.488   0.758 -2.3244 -0.3021 -0.4620
56342SOL    HW287019   6.335  11.402   0.853 -0.2161  1.6936 -0.3786
56343SOL     OW87020   5.111   0.227  11.827  0.5228 -0.0061 -0.0511
56343SOL    HW187021   5.202   0.215  11.853  0.4491  0.5466  0.5015
56343SOL    HW287022   5.062   0.225  11.910 -0.0681 -1.1219 -0.4083
56344SOL     OW87023  12.841  10.787  13.696 -0.7188  0.3124  0.3490
56344SOL    HW187024  12.881  10.818  13.615  0.3800  1.0817  1.1654
56344SOL    HW287025  12.747  10.796  13.680 -0.5011  1.6494 -0.4045
56345SOL     OW87026  11.784   6.761   6.528 -0.0384 -0.4886  0.0029
56345SOL    HW187027  11.817   6.738   6.441 -0.4451  2.1942 -0.9389
56345SOL    HW287028  11.727   6.836   6.514 -0.7547 -0.4460  2.5202
56346SOL     OW87029   9.412   0.755   1.815  0.1409  0.1997  0.0353
56346SOL    HW187030   9.439   0.762   1.724 -0.8164  1.7269 -0.1740
56346SOL    HW287031   9.316   0.759   1.813  0.1287  2.6444  1.1914
56347SOL     OW87032   4.537   1.589  11.775  0.5084  0.4798 -0.0376
56347SOL    HW187033   4.531   1.517  11.711  0.4545  0.4164  0.0382
56347SOL    HW287034   4.560   1.546  11.857 -0.5607  0.4159  0.2434
56348SOL     OW87035   0.172   1.693   8.637  0.3203 -0.2446  0.1144
56348SOL    HW187036   0.263   1.712   8.661  0.2481 -1.0359  1.0897
56348SOL    HW287037   0.124   1.702   8.719 -0.2982 -0.9292 -0.1604
56349SOL     OW87038   6.410  13.547   1.950 -0.0551  0.4349 -0.0877
56349SOL    HW187039   6.493  13.539   1.998  0.5400 -0.1152 -1.1676
56349SOL    HW287040   6.437  13.563   1.860 -1.1475  0.9161 -0.3369
56350SOL     OW87041  13.460   2.808  12.457 -0.1582 -0.0192 -0.7032
56350SOL    HW187042  13.392   2.855  12.408 -0.2148  1.2070  0.4918
56350SOL    HW287043  13.413   2.765  12.528  0.2801  0.8077  0.1126
56351SOL     OW87044   9.066   6.725  12.855 -0.0010 -0.0759 -0.2037
56351SOL    HW187045   9.105   6.669  12.922  1.3763  2.4451  1.2681
56351SOL    HW287046   8.972   6.724  12.874  0.0939 -1.2767  0.2473
56352SOL     OW87047   9.201  14.057   1.768  0.1525 -0.0187  0.0533
56352SOL    HW187048   9.197  14.152   1.779 -2.3986 -0.0298 -0.0993
56352SOL    HW287049   9.175  14.022   1.853 -1.1818 -0.4852 -0.5117
56353SOL     OW87050   4.791  13.690  11.186 -0.0086 -0.3026 -0.3631
56353SOL    HW187051   4.874  13.735  11.170  0.6514 -1.7309 -1.0629
56353SOL    HW287052   4.727  13.737  11.133  0.5303  0.2224 -0.5496
56354SOL     OW87053   0.518  13.748   3.555 -0.1653 -0.0979 -0.0238
56354SOL    HW187054   0.462  13.800   3.497 -0.1610  1.3159  1.1884
56354SOL    HW287055   0.533  13.667   3.507 -3.5055 -0.6937 -0.2921
56355SOL     OW87056  11.379   2.443  12.193  0.2235 -0.0474 -0.3709
56355SOL    HW187057  11.462   2.417  12.153  1.0452 -0.5782  1.5392
56355SOL    HW287058  11.404   2.510  12.257 -0.5683 -1.3409  1.3558
56356SOL     OW87059   2.318   3.968  10.407  0.1046  0.2444 -0.0382
56356SOL    HW187060   2.241   3.953  10.352  0.3490 -1.0109 -0.0591
56356SOL    HW287061   2.283   4.012  10.485 -0.6588 -0.4547  0.0284
56357SOL     OW87062   0.851   1.848   0.836  0.3248 -0.2738 -0.0190
56357SOL    HW187063   0.876   1.897   0.758 -2.0012  0.5205 -0.3383
56357SOL    HW287064   0.932   1.838   0.886  1.0880  3.0681 -0.4082
56358SOL     OW87065   5.905   1.537   0.562 -0.2051 -0.3505  0.4708
56358SOL    HW187066   5.891   1.626   0.530 -1.8870 -0.3300  1.1216
56358SOL    HW287067   5.911   1.484   0.482 -1.9699  0.0079  0.0418
56359SOL     OW87068   9.038   7.085   0.811 -0.6054 -0.3161 -0.0717
56359SOL    HW187069   9.074   7.020   0.751  1.8171  0.5021  0.3646
56359SOL    HW287070   9.088   7.073   0.892 -1.3878  0.8761  0.6203
56360SOL     OW87071   8.200   5.647   8.146  0.0232 -0.8204 -0.1677
56360SOL    HW187072   8.206   5.572   8.206  1.4106 -2.8060 -2.5671
56360SOL    HW287073   8.263   5.710   8.179  1.1350 -2.0909  0.2454
56361SOL     OW87074  11.629  12.728  13.723 -0.4377  0.0411  0.4157
56361SOL    HW187075  11.713  12.682  13.729 -0.7830 -0.5022  1.1903
56361SOL    HW287076  11.584  12.707  13.804 -1.8651 -0.7405 -0.5282
56362SOL     OW87077   2.077   1.881   2.441 -0.7135 -0.7148  0.2931
56362SOL    HW187078   2.085   1.792   2.406  0.5465 -0.5917  0.2132
56362SOL    HW287079   2.046   1.870   2.530 -1.3157 -1.1884  0.0293
56363SOL     OW87080   5.926  11.773  12.231  0.4709  0.8867  0.3093
56363SOL    HW187081   5.904  11.700  12.289 -0.1355 -0.2954 -1.3190
56363SOL    HW287082   5.913  11.851  12.284 -1.9975 -0.0324  1.2036
56364SOL     OW87083  10.085   8.416   5.015 -0.4707  0.1515 -0.1974
56364SOL    HW187084  10.059   8.367   4.937  2.0107 -1.1307 -0.3279
56364SOL    HW287085  10.075   8.508   4.991 -0.6349 -0.2368 -1.6991
56365SOL     OW87086   8.879  13.911   0.760 -0.3450  0.5217  0.2737
56365SOL    HW187087   8.864  14.006   0.753  1.7504  0.8446 -0.5436
56365SOL    HW287088   8.866  13.892   0.852  0.5824  1.8994  0.7307
56366SOL     OW87089   6.784   6.504  13.146  1.1620  0.1048 -0.2100
56366SOL    HW187090   6.736   6.422  13.131  1.9134 -0.0913 -1.7102
56366SOL    HW287091   6.875   6.477  13.159  1.1665  0.5985  0.8712
56367SOL     OW87092   8.345  13.653  13.338  0.3184  0.0738 -0.4796
56367SOL    HW187093   8.388  13.567  13.334  0.3668 -0.0433  1.6195
56367SOL    HW287094   8.417  13.716  13.333  0.3443 -0.0126 -1.2822
56368SOL     OW87095   1.787   6.594   9.377 -0.3456  0.5082  0.3067
56368SOL    HW187096   1.880   6.601   9.354 -0.9228  1.0341 -2.2496
56368SOL    HW287097   1.757   6.684   9.381 -0.8331  0.3278  0.6691
56369SOL     OW87098   3.276   8.430   0.670 -0.8693 -0.0863  0.3073
56369SOL    HW187099   3.199   8.420   0.727 -0.9817 -1.1785 -0.0282
56369SOL    HW287100   3.252   8.385   0.589  1.0204 -2.7415  1.0837
56370SOL     OW87101  13.583  13.740   6.823 -0.0745 -0.3101 -0.4608
56370SOL    HW187102  13.633  13.669   6.863  2.8035  1.0516 -1.4249
56370SOL    HW287103  13.601  13.817   6.877  0.1108  0.5356 -1.6914
56371SOL     OW87104   8.785   8.567  13.301  0.0255 -0.3558 -0.2093
56371SOL    HW187105   8.691   8.569  13.317 -0.1299 -0.3381 -1.0959
56371SOL    HW287106   8.795   8.594  13.210  0.9703  0.6413  0.1659
56372SOL     OW87107   6.492   5.900   7.493 -0.1312 -0.4764  0.1421
56372SOL    HW187108   6.495   5.818   7.542  1.6985 -0.7945 -0.4250
56372SOL    HW287109   6.560   5.891   7.427 -2.2166  0.1092 -2.2483
56373SOL     OW87110   5.579   7.930  10.534 -0.7580 -0.6205  0.1094
56373SOL    HW187111   5.520   7.876  10.482 -0.1833 -2.0461  0.8774
56373SOL    HW287112   5.543   7.926  10.623 -0.1682 -0.5379  0.3560
56374SOL     OW87113   6.216  13.141  12.241  0.0267 -0.2751 -0.0817
56374SOL    HW187114   6.309  13.123  12.253  0.2408  0.8539 -0.0077
56374SOL    HW287115   6.207  13.235  12.256 -0.7793  0.0537 -2.2513
56375SOL     OW87116  10.982   0.315  13.656 -0.2820 -0.5497  0.2717
56375SOL    HW187117  10.963   0.330  13.749 -4.8594 -1.4441 -0.2867
56375SOL    HW287118  11.003   0.402  13.622 -2.3904  0.5202  1.4916
56376SOL     OW87119  11.304   6.000  11.297 -0.1603  0.3096  0.0996
56376SOL    HW187120  11.274   6.059  11.366 -0.0076  0.3901  0.1000
56376SOL    HW287121  11.341   6.058  11.231  2.0131  0.1588  1.0645
56377SOL     OW87122   8.686   9.119   3.018  0.1369  0.0610  0.0431
56377SOL    HW187123   8.764   9.159   3.056 -0.1392  1.5435 -0.8297
56377SOL    HW287124   8.631   9.096   3.092 -0.6013  3.2925  0.6623
56378SOL     OW87125  13.131   6.084   8.711 -0.1900 -0.4146 -0.3989
56378SOL    HW187126  13.092   6.053   8.792 -1.9140  1.1486 -0.5605
56378SOL    HW287127  13.186   6.158   8.737  0.3168 -0.7381 -0.5244
56379SOL     OW87128   6.406   4.745  13.753 -0.5246 -0.2911  1.0526
56379SOL    HW187129   6.457   4.820  13.722  0.4793 -0.7071  1.6466
56379SOL    HW287130   6.322   4.783  13.781 -0.5665  0.3992  0.0440
56380SOL     OW87131  12.843   6.471   9.365 -0.2296  0.5056 -0.3193
56380SOL    HW187132  12.842   6.536   9.435  1.1969  0.0277  0.1827
56380SOL    HW287133  12.931   6.431   9.370  0.6776  1.7845 -3.5896
56381SOL     OW87134   1.718  14.024  10.246  0.0373  1.0972  0.2414
56381SOL    HW187135   1.795  14.010  10.301  0.8443  1.4845 -0.7462
56381SOL    HW287136   1.678  13.938  10.238  0.9177  0.6952  0.0129
56382SOL     OW87137  13.671   3.788   6.948 -0.5599  0.0645 -0.2654
56382SOL    HW187138  13.616   3.811   7.023 -0.0285  1.3800 -0.2369
56382SOL    HW287139  13.704   3.701   6.967  1.8196  1.3970  2.4738
56383SOL     OW87140  12.858  12.021   5.383 -0.3112  0.5059  0.5277
56383SOL    HW187141  12.925  12.077   5.344 -0.1823 -0.4930 -0.7316
56383SOL    HW287142  12.908  11.953   5.429 -0.4247 -0.6406 -0.9921
56384SOL     OW87143  11.312   9.042   4.392  0.3945 -0.0132 -0.3212
56384SOL    HW187144  11.279   9.046   4.302  1.6241 -1.8418 -0.9229
56384SOL    HW287145  11.255   9.100   4.442  0.4513  2.0736 -2.5008
56385SOL     OW87146   8.957   3.844  12.108  0.3452 -0.3441 -0.1342
56385SOL    HW187147   8.881   3.849  12.049 -0.2576  1.0156  0.7143
56385SOL    HW287148   8.993   3.757  12.092 -0.2917 -0.3385 -1.8948
56386SOL     OW87149  11.012   2.009  10.397  0.0449  0.5112  0.6714
56386SOL    HW187150  11.003   2.104  10.408  0.2208  0.7383 -0.8935
56386SOL    HW287151  11.106   1.996  10.385 -0.0615  0.2444  0.1064
56387SOL     OW87152   7.313   2.563   2.923  0.3204 -0.1128 -0.4152
56387SOL    HW187153   7.379   2.549   2.991 -0.9893 -2.4676  0.4553
56387SOL    HW287154   7.342   2.509   2.849  0.8856  1.1902 -1.1939
56388SOL     OW87155  11.151  12.097   3.925  0.2631  0.0429  0.2507
56388SOL    HW187156  11.219  12.155   3.958 -0.4233  1.6639 -1.0268
56388SOL    HW287157  11.126  12.043   4.000  1.6326  0.7078  1.2147
56389SOL     OW87158   6.188  11.784   7.442 -0.4051 -0.1366  0.0428
56389SOL    HW187159   6.153  11.715   7.499 -2.6871  0.7207 -0.2079
56389SOL    HW287160   6.201  11.741   7.358 -0.5521 -0.5567  0.2298
56390SOL     OW87161   9.920   0.674   5.218 -0.4669 -0.1069 -0.2044
56390SOL    HW187162   9.967   0.722   5.286  0.1313  1.3254 -1.5734
56390SOL    HW287163   9.982   0.606   5.190 -0.3932 -0.1628  0.0867
56391SOL     OW87164  12.835  13.300   0.212 -0.1925 -0.6020 -0.1296
56391SOL    HW187165  12.907  13.255   0.169 -0.9990 -1.4306 -0.6449
56391SOL    HW287166  12.798  13.235   0.271  0.3185  0.2335  1.1745
56392SOL     OW87167   3.280  10.160  12.705 -0.0148  0.0920  0.8164
56392SOL    HW187168   3.226  10.097  12.658  0.4439 -0.6191  1.2163
56392SOL    HW287169   3.248  10.157  12.795  1.6191 -1.4785  1.4240
56393SOL     OW87170  11.568  11.800   4.019 -0.2488 -0.4444 -0.2540
56393SOL    HW187171  11.561  11.774   4.111 -0.4373  1.8245  0.4560
56393SOL    HW287172  11.480  11.833   3.997 -0.0419 -0.3973 -1.0507
56394SOL     OW87173   9.739  12.413   0.894 -0.1768 -0.0927  0.1790
56394SOL    HW187174   9.770  12.498   0.925  0.5949 -0.3087  0.0305
56394SOL    HW287175   9.818  12.358   0.893 -0.8129 -1.0694  1.1354
56395SOL     OW87176   8.768   5.319   5.418  0.4167 -0.0434 -0.7300
56395SOL    HW187177   8.857   5.345   5.442  0.7398 -3.2153  2.2717
56395SOL    HW287178   8.778   5.235   5.374 -1.0410  0.1943 -1.5740
56396SOL     OW87179   4.157  13.288   9.626 -0.6359 -0.0781  0.5024
56396SOL    HW187180   4.094  13.263   9.559 -1.3200 -1.4553  1.6031
56396SOL    HW287181   4.242  13.262   9.590 -0.7320  1.1591 -0.7010
56397SOL     OW87182  12.694   9.103  11.793 -0.4861  0.2046  1.0506
56397SOL    HW187183  12.755   9.051  11.845 -0.4512 -0.7370  0.1095
56397SOL    HW287184  12.720   9.194  11.809  0.3430 -0.1220  1.6432
56398SOL     OW87185  13.916   9.921   7.513  0.5357 -0.5570 -0.3345
56398SOL    HW187186  13.846   9.938   7.576  1.0254 -0.8991  0.3185
56398SOL    HW287187  13.901   9.831   7.484  0.8209 -0.7029 -0.0358
56399SOL     OW87188   6.572   9.984  10.919  0.4612  0.3741  0.2870
56399SOL    HW187189   6.529   9.924  10.859  1.3339 -0.5966  0.6080
56399SOL    HW287190   6.522   9.976  11.001  0.8060 -0.2187  0.4461
56400SOL     OW87191   2.022  13.305   7.590 -0.2741 -0.2587  0.0560
56400SOL    HW187192   2.089  13.262   7.643 -1.1022 -0.6703  0.7896
56400SOL    HW287193   2.006  13.389   7.634  0.3367  0.2110 -0.5876
56401SOL     OW87194   3.491  12.538   6.894 -0.7667  0.2338  0.2180
56401SOL    HW187195   3.554  12.595   6.937 -0.4927 -0.5767  0.9216
56401SOL    HW287196   3.543  12.466   6.859 -0.9157  1.0818 -1.9118
56402SOL     OW87197   0.396  13.016   7.354  0.0612  0.2858 -0.0812
56402SOL    HW187198   0.325  13.039   7.414 -0.4489  1.1600 -0.9955
56402SOL    HW287199   0.476  13.028   7.405 -0.4468 -1.8563  1.3506
56403SOL     OW87200   5.915   5.467   6.481  0.5147  0.5977  0.1699
56403SOL    HW187201   5.941   5.450   6.572  0.4637  1.1252  0.2896
56403SOL    HW287202   5.989   5.515   6.444 -0.0994  1.7463  0.3930
56404SOL     OW87203  13.134   4.358  12.988 -0.0379  0.3026  0.0680
56404SOL    HW187204  13.093   4.307  12.919 -1.2637  1.6725 -0.2719
56404SOL    HW287205  13.220   4.318  13.000 -1.6790 -3.1841  1.3713
56405SOL     OW87206   8.583  13.159  11.578 -0.1432 -0.1477 -0.5418
56405SOL    HW187207   8.672  13.130  11.557 -0.0471  1.2047 -2.2479
56405SOL    HW287208   8.570  13.236  11.523 -1.9693  0.3692  0.5460
56406SOL     OW87209   0.308  11.792  12.913  0.7760  0.0817  0.6237
56406SOL    HW187210   0.298  11.746  12.997 -0.1011 -0.7548  0.0762
56406SOL    HW287211   0.232  11.849  12.908  0.5941 -0.1991  0.1884
56407SOL     OW87212   2.230  11.251   0.119  0.2804  0.3539  0.2690
56407SOL    HW187213   2.290  11.295   0.180 -0.3707  0.7368  0.6423
56407SOL    HW287214   2.143  11.285   0.141 -0.1810 -0.7464  0.2283
56408SOL     OW87215   9.795   1.463   4.808  0.3424 -0.0597  0.2453
56408SOL    HW187216   9.828   1.552   4.796  3.8842 -1.3514 -1.1060
56408SOL    HW287217   9.808   1.445   4.901 -1.4342  1.1015  0.7731
56409SOL     OW87218   7.289  10.012  10.699 -0.2178  0.1712  0.3048
56409SOL    HW187219   7.318   9.948  10.763 -2.0042 -0.4929  0.5165
56409SOL    HW287220   7.345  10.089  10.714  1.1076 -0.8710  0.8912
56410SOL     OW87221   6.758   3.422   5.456  0.1230  0.4560  0.1756
56410SOL    HW187222   6.730   3.452   5.543  0.2872  0.4833  0.2192
56410SOL    HW287223   6.843   3.379   5.471 -0.1509 -0.1093  0.1272
56411SOL     OW87224  13.753  10.678   5.059 -0.0143 -0.0920  0.0268
56411SOL    HW187225  13.725  10.759   5.016 -2.2496 -0.6980  0.2145
56411SOL    HW287226  13.802  10.707   5.136  0.9198  1.0325 -0.9578
56412SOL     OW87227   6.238   6.486  11.555  0.7893 -0.0227  0.5153
56412SOL    HW187228   6.247   6.402  11.511  2.6525 -0.1007  0.9629
56412SOL    HW287229   6.200   6.463  11.640  1.9646 -0.5506  0.9300
56413SOL     OW87230   6.536   5.379   2.646  0.2349  0.0861 -0.0409
56413SOL    HW187231   6.468   5.371   2.713 -3.2308 -1.8708 -3.4329
56413SOL    HW287232   6.600   5.312   2.670 -2.5241 -2.8329 -0.1865
56414SOL     OW87233   1.270   5.552   5.683  0.7368 -0.4165 -0.0666
56414SOL    HW187234   1.302   5.519   5.767 -2.1693  0.4078  1.5189
56414SOL    HW287235   1.259   5.646   5.697 -1.9227 -0.5729 -0.5004
56415SOL     OW87236  10.069  11.185   6.343 -0.3302  0.0879 -0.3035
56415SOL    HW187237  10.097  11.144   6.261 -1.4401 -0.3260 -0.5031
56415SOL    HW287238  10.141  11.242   6.368  0.1451 -0.0020 -1.4219
56416SOL     OW87239  12.132  10.716   9.339  0.4266  0.5157 -0.0886
56416SOL    HW187240  12.198  10.785   9.329  0.2675  0.5597 -0.9892
56416SOL    HW287241  12.172  10.653   9.398  1.4390  0.3683 -0.8971
56417SOL     OW87242  14.006   2.831  10.700 -0.3802  0.0631  0.0505
56417SOL    HW187243  14.096   2.803  10.718 -0.9242 -1.5685  0.4599
56417SOL    HW287244  14.003   2.847  10.606 -0.0697 -1.6192 -0.2809
56418SOL     OW87245  10.213   5.086   4.738 -0.5655 -0.0928  0.2940
56418SOL    HW187246  10.137   5.143   4.753 -1.1115 -0.6807 -0.1556
56418SOL    HW287247  10.175   4.998   4.730  0.2462 -0.4966  0.8066
56419SOL     OW87248  13.262  13.299   5.906 -0.3493 -0.5397  0.1981
56419SOL    HW187249  13.309  13.376   5.938 -0.3241 -1.0361  1.4061
56419SOL    HW287250  13.313  13.269   5.832 -0.5494  0.7990 -0.5130
56420SOL     OW87251   5.976   3.604   3.889 -1.4216 -0.0953  0.2098
56420SOL    HW187252   5.952   3.513   3.873 -3.4841  0.1344  1.6399
56420SOL    HW287253   5.917   3.655   3.833  1.6417  0.4188 -2.8435
56421SOL     OW87254   7.524   4.488   0.646  0.0337 -0.6526  0.1175
56421SOL    HW187255   7.454   4.432   0.680 -1.1802 -0.3173 -1.6616
56421SOL    HW287256   7.485   4.530   0.569  1.3930  1.5169  0.5377
56422SOL     OW87257   0.215   3.793   1.475  0.2805  0.1858  0.2817
56422SOL    HW187258   0.211   3.831   1.563 -0.9499 -2.8865  1.7071
56422SOL    HW287259   0.142   3.730   1.473 -1.1692  1.6804 -3.7774
56423SOL     OW87260  13.121   2.851   1.796  0.0242  0.0038 -0.1496
56423SOL    HW187261  13.208   2.872   1.830 -0.3248  1.4431 -0.0957
56423SOL    HW287262  13.138   2.801   1.716  0.8966  0.0832 -0.0215
56424SOL     OW87263  13.211  11.481   3.646  0.5898 -0.2494  0.3286
56424SOL    HW187264  13.285  11.517   3.695  0.9784 -0.7935  0.1507
56424SOL    HW287265  13.220  11.386   3.655 -1.0327 -0.3271  1.7109
56425SOL     OW87266  10.487  12.732   3.325 -0.0641  0.4242 -0.1859
56425SOL    HW187267  10.483  12.806   3.264 -0.3786  1.6564  1.2680
56425SOL    HW287268  10.418  12.751   3.389 -0.6356 -1.5181 -0.1716
56426SOL     OW87269   3.891  13.695  13.215 -0.0650 -0.1460 -0.4650
56426SOL    HW187270   3.922  13.606  13.197  0.1030  0.3981 -3.3609
56426SOL    HW287271   3.815  13.682  13.272 -0.0485 -2.1609 -0.8105
56427SOL     OW87272   8.786  13.097  12.636  0.2689  0.1508  0.0675
56427SOL    HW187273   8.692  13.087  12.652  0.1366  0.9073 -0.1670
56427SOL    HW287274   8.801  13.050  12.554 -0.0450  0.5925 -0.2524
56428SOL     OW87275  11.786   9.738  11.774  0.3984  0.2058 -0.7057
56428SOL    HW187276  11.802   9.651  11.736  2.2957  0.2998 -0.2217
56428SOL    HW287277  11.697   9.732  11.809 -0.7707 -0.4722 -3.4725
56429SOL     OW87278   7.471   7.903  11.402 -0.0123  0.0405  0.1124
56429SOL    HW187279   7.399   7.853  11.363 -0.0326 -0.4346  0.7489
56429SOL    HW287280   7.451   7.994  11.381  0.1443 -0.2172 -1.2589
56430SOL     OW87281  10.601   7.504   0.254  0.7494 -0.0468  0.5411
56430SOL    HW187282  10.583   7.581   0.309  1.3634  1.1570 -0.8553
56430SOL    HW287283  10.549   7.434   0.293 -0.8844  1.4049  1.1302
56431SOL     OW87284   6.216   4.623  10.878  0.0422  0.0423 -0.3962
56431SOL    HW187285   6.301   4.614  10.921  0.3007 -0.9880 -1.0741
56431SOL    HW287286   6.169   4.543  10.900  0.1389 -0.4665 -1.8728
56432SOL     OW87287   9.639   1.063   5.500 -0.4878  0.0875 -0.2783
56432SOL    HW187288   9.624   1.155   5.523 -0.5593  0.0021  0.0214
56432SOL    HW287289   9.671   1.023   5.581 -2.9211 -0.7406  0.3746
56433SOL     OW87290   8.830   9.418   3.152  0.4702  0.2059 -0.8451
56433SOL    HW187291   8.884   9.338   3.150  0.7832  0.3742  0.1393
56433SOL    HW287292   8.859   9.468   3.076  1.7764  0.3229 -0.2994
56434SOL     OW87293  11.304   2.647   3.286  0.6819  0.3482 -0.2601
56434SOL    HW187294  11.283   2.641   3.379 -1.1932  0.9079 -0.6006
56434SOL    HW287295  11.388   2.602   3.277  0.5522 -0.3388  1.5747
56435SOL     OW87296  13.689  10.938  13.018  0.4920 -0.1732 -0.2152
56435SOL    HW187297  13.670  10.852  12.981  0.6854  0.0955 -0.9614
56435SOL    HW287298  13.628  10.997  12.975 -0.4713 -0.1006  1.1762
56436SOL     OW87299   8.817  14.090  13.914  0.6145 -0.0444  0.9653
56436SOL    HW187300   8.819  14.148  13.991  0.1714  1.5865 -0.1930
56436SOL    HW287301   8.814  14.150  13.839 -1.6188 -1.5364 -0.2696
56437SOL     OW87302   5.385   0.727   5.102  0.0693 -0.0454  0.0163
56437SOL    HW187303   5.394   0.638   5.068 -1.2381  0.1821 -0.9957
56437SOL    HW287304   5.442   0.780   5.046 -0.9657  0.0973 -0.9446
56438SOL     OW87305  11.152  11.234   8.514 -0.7216 -0.6799 -0.2206
56438SOL    HW187306  11.150  11.290   8.436 -0.5607 -1.5236 -0.8339
56438SOL    HW287307  11.135  11.295   8.587  1.4028  0.5222 -0.6528
56439SOL     OW87308   4.704  13.357   6.546 -0.1453 -0.1697  0.0930
56439SOL    HW187309   4.667  13.400   6.469  0.5220  1.7077  0.7675
56439SOL    HW287310   4.707  13.264   6.523 -1.2225  0.1815 -1.6034
56440SOL     OW87311   7.333  11.200  11.678  0.3059 -0.0692  0.3073
56440SOL    HW187312   7.416  11.246  11.663  0.3108 -0.3151 -0.5313
56440SOL    HW287313   7.316  11.209  11.771  1.1544  0.1992  0.4443
56441SOL     OW87314   2.350   4.791  13.019  0.2397  0.0354  0.2427
56441SOL    HW187315   2.329   4.784  13.112 -0.5754 -0.3276  0.0395
56441SOL    HW287316   2.265   4.794  12.975  0.4942  3.7282 -0.2845
56442SOL     OW87317  10.945  11.787   5.561  0.1205  0.2119  0.1350
56442SOL    HW187318  10.863  11.759   5.521 -0.0028 -0.1223  0.5956
56442SOL    HW287319  10.921  11.859   5.619  0.2665  0.5694 -0.2453
56443SOL     OW87320  10.632   2.659   6.567  0.0308 -0.6123  0.1105
56443SOL    HW187321  10.633   2.736   6.511 -2.2311 -0.3902  0.2677
56443SOL    HW287322  10.635   2.585   6.506  0.1045 -0.3844 -0.1635
56444SOL     OW87323  11.484   6.438   3.495 -0.4049  0.2266 -0.4609
56444SOL    HW187324  11.451   6.348   3.491 -0.6662  0.1624  1.9246
56444SOL    HW287325  11.445   6.481   3.418  0.5065 -1.8911 -2.2226
56445SOL     OW87326  12.741   2.673   2.513 -0.0522 -0.3736 -0.3281
56445SOL    HW187327  12.767   2.598   2.567  1.5183  1.1215  1.1134
56445SOL    HW287328  12.657   2.702   2.550 -0.4541 -1.1425 -0.6241
56446SOL     OW87329   7.497   3.201   6.349  0.3355  0.0842  0.2853
56446SOL    HW187330   7.587   3.224   6.369 -0.0154  1.6409  0.2375
56446SOL    HW287331   7.483   3.116   6.391  1.7673 -0.1129  0.3928
56447SOL     OW87332   2.575   5.216  10.281  0.4637 -0.3723 -0.9041
56447SOL    HW187333   2.515   5.290  10.293  3.3479  2.0294 -0.0768
56447SOL    HW287334   2.520   5.139  10.291 -1.9967  1.5747  2.8738
56448SOL     OW87335   1.841   5.061   3.669 -0.7398  0.3699 -0.3382
56448SOL    HW187336   1.864   5.060   3.576  1.5320 -1.6193  0.1344
56448SOL    HW287337   1.875   5.144   3.702  2.7358 -0.8366 -0.4805
56449SOL     OW87338  10.690  11.555  14.012  0.5203 -0.2894  0.3921
56449SOL    HW187339  10.742  11.551  14.092  0.1025  0.9372  0.7394
56449SOL    HW287340  10.634  11.631  14.024 -0.2286 -0.6650 -0.6622
56450SOL     OW87341   8.284   3.232  13.345  0.3800  0.4259  0.0421
56450SOL    HW187342   8.265   3.249  13.437 -1.8659 -0.6860 -0.1359
56450SOL    HW287343   8.366   3.278  13.328 -0.0293  2.0783  2.1376
56451SOL     OW87344   1.542  10.990   7.741 -0.0649 -0.3114 -0.7787
56451SOL    HW187345   1.544  11.052   7.668  1.4654 -0.8254 -1.2280
56451SOL    HW287346   1.556  10.905   7.699  0.9299 -0.6043  0.0968
56452SOL     OW87347   9.563  11.227   8.736  0.4542 -0.1741 -0.0611
56452SOL    HW187348   9.658  11.216   8.728  0.4655  1.0222 -2.2875
56452SOL    HW287349   9.552  11.320   8.758 -0.2039  0.1325 -1.5469
56453SOL     OW87350   3.302  12.680   2.285  0.1979 -0.2533  0.6007
56453SOL    HW187351   3.322  12.703   2.376 -0.7064  1.6708  0.3747
56453SOL    HW287352   3.229  12.738   2.262 -1.0693 -2.2580 -0.6738
56454SOL     OW87353  11.471  12.394  12.670 -0.0233  0.3809 -0.0059
56454SOL    HW187354  11.542  12.445  12.631  1.0360 -1.2767 -0.3451
56454SOL    HW287355  11.487  12.398  12.764  1.5037 -1.2735 -0.1474
56455SOL     OW87356  12.705   3.376   1.107  0.2126  0.2822 -0.0426
56455SOL    HW187357  12.735   3.352   1.195 -0.5683  2.0703  0.7611
56455SOL    HW287358  12.660   3.298   1.075 -0.2659 -0.1113  1.5188
56456SOL     OW87359   7.691   3.782   8.422  0.3737 -0.1283  0.0191
56456SOL    HW187360   7.680   3.792   8.327 -1.2483  1.0615  0.2904
56456SOL    HW287361   7.679   3.689   8.437  0.9634 -0.3837 -0.9742
56457SOL     OW87362  11.057  10.670   2.928  0.8168 -0.0176  0.5837
56457SOL    HW187363  10.987  10.724   2.965 -1.2601 -1.3936 -1.0735
56457SOL    HW287364  11.071  10.705   2.840 -1.3700 -2.6511 -0.9639
56458SOL     OW87365   2.050  10.892   2.152  0.1073 -0.0016 -0.7992
56458SOL    HW187366   1.986  10.958   2.180  0.7801 -0.5541  2.3684
56458SOL    HW287367   1.997  10.816   2.129 -0.4891  0.0541  0.2965
56459SOL     OW87368   0.344   0.919   7.561 -0.1463 -0.1946 -0.2651
56459SOL    HW187369   0.342   0.826   7.538 -0.2013 -0.9721  2.5133
56459SOL    HW287370   0.436   0.937   7.580 -0.4123 -0.3145  1.2877
56460SOL     OW87371   6.571  13.145   2.437  0.1806 -0.3394  0.1141
56460SOL    HW187372   6.499  13.180   2.386 -0.1617 -1.5235 -0.2441
56460SOL    HW287373   6.553  13.051   2.444  1.3776 -0.5634  0.5191
56461SOL     OW87374  13.690   2.060  10.012  0.0357 -0.2260 -0.4513
56461SOL    HW187375  13.653   2.148  10.003 -1.6194 -0.7005  1.0193
56461SOL    HW287376  13.752   2.067  10.084 -2.6764 -0.8949  2.1293
56462SOL     OW87377   5.695   4.310  13.032  0.3290 -0.1110  0.0088
56462SOL    HW187378   5.754   4.257  12.980 -0.5110  0.9385 -2.1228
56462SOL    HW287379   5.622   4.251  13.053  0.7832 -0.6036  0.2327
56463SOL     OW87380  10.484   0.635   6.689  0.2156 -0.1163  0.4916
56463SOL    HW187381  10.469   0.649   6.595 -2.6005  0.3378  0.9094
56463SOL    HW287382  10.485   0.540   6.700 -1.7246 -0.2079  0.2260
56464SOL     OW87383  12.641   4.287   2.085 -0.0317  0.3937 -0.1475
56464SOL    HW187384  12.546   4.277   2.077 -0.1645  0.9049  0.6727
56464SOL    HW287385  12.672   4.199   2.107 -0.2602  0.1338 -0.8448
56465SOL     OW87386   5.071  14.079   0.488  0.1589  0.2829 -0.1900
56465SOL    HW187387   5.037  14.076   0.578 -0.1698 -0.3986 -0.3376
56465SOL    HW287388   5.010  14.137   0.442 -1.1578 -1.3515 -0.5876
56466SOL     OW87389   6.345  11.493   6.613  0.0925  0.2507 -0.2520
56466SOL    HW187390   6.273  11.435   6.588 -0.0276  0.4885 -0.4671
56466SOL    HW287391   6.332  11.571   6.559 -0.0030  0.6579  0.3457
56467SOL     OW87392   0.060   0.815  14.091 -0.0745 -0.5008  0.1133
56467SOL    HW187393   0.151   0.836  14.073  0.9299 -4.2462  0.0698
56467SOL    HW287394   0.021   0.801  14.004 -0.5056  0.2666  0.1710
56468SOL     OW87395   2.424  12.596   7.936 -0.0028  0.5235  0.2061
56468SOL    HW187396   2.478  12.518   7.931  0.5490  0.8854  0.3774
56468SOL    HW287397   2.433  12.638   7.851  1.4068  1.4960  0.8040
56469SOL     OW87398   6.182   9.023   2.013  0.5518  0.0452  0.3715
56469SOL    HW187399   6.209   9.065   1.931  0.3126  0.1815  0.3604
56469SOL    HW287400   6.203   8.930   2.000  0.6835  0.0948  0.2257
56470SOL     OW87401  11.633   0.137  11.269  0.0068 -0.3261  0.2992
56470SOL    HW187402  11.586   0.201  11.215 -0.5453  0.1803  1.3610
56470SOL    HW287403  11.725   0.151  11.248 -0.0288  1.4663  1.1826
56471SOL     OW87404  10.556  11.048  13.638  0.8231 -0.2868 -0.3171
56471SOL    HW187405  10.586  11.132  13.603  3.0461 -0.5140  0.8940
56471SOL    HW287406  10.599  11.040  13.723 -1.4559 -1.4655  0.8270
56472SOL     OW87407   2.367   4.192  11.197 -0.4723 -0.0396 -0.0874
56472SOL    HW187408   2.437   4.242  11.239 -1.3250  0.1178  1.1799
56472SOL    HW287409   2.307   4.171  11.267 -1.2214 -1.0117 -0.9952
56473SOL     OW87410   0.631   6.741  10.166  0.5146  0.1388  0.0187
56473SOL    HW187411   0.585   6.667  10.207  2.1318 -2.5464 -2.5764
56473SOL    HW287412   0.719   6.738  10.203  0.6148  0.6947 -0.1703
56474SOL     OW87413  12.628  12.197   3.780  0.6129 -0.0130 -0.3754
56474SOL    HW187414  12.653  12.104   3.783  2.4695  0.4064 -1.3829
56474SOL    HW287415  12.586  12.213   3.864  0.0205 -1.8203 -0.2736
56475SOL     OW87416  12.138  11.622   6.479 -0.0482 -0.4769 -0.1194
56475SOL    HW187417  12.216  11.574   6.508 -0.1245  0.5691  2.0946
56475SOL    HW287418  12.161  11.714   6.494 -1.8064 -0.1680  0.9360
56476SOL     OW87419   0.588   7.692   5.494  0.4340 -0.6123  0.8044
56476SOL    HW187420   0.539   7.699   5.412  1.4809 -2.6151 -0.0563
56476SOL    HW287421   0.525   7.656   5.557 -0.1413  0.1654  0.6946
56477SOL     OW87422   2.623  10.658   8.336 -0.0696 -0.1500  0.4743
56477SOL    HW187423   2.612  10.700   8.251  0.3122 -0.9005  0.0401
56477SOL    HW287424   2.717  10.666   8.355 -0.2834  0.7049  1.1981
56478SOL     OW87425  11.535   8.043   4.868  0.2807 -0.4485  0.4547
56478SOL    HW187426  11.594   8.007   4.934 -1.7178 -2.3723  1.3062
56478SOL    HW287427  11.477   7.970   4.846 -0.3797  0.7213 -1.9995
56479SOL     OW87428   9.203   5.789   4.947  0.1272  0.0683  0.1162
56479SOL    HW187429   9.120   5.745   4.931  0.7676 -0.8129 -0.9082
56479SOL    HW287430   9.218   5.841   4.868  0.5454  0.2255  0.2933
56480SOL     OW87431  13.935   4.227   3.951 -0.4344 -0.5487  0.3282
56480SOL    HW187432  13.857   4.282   3.952 -1.3529 -1.7873  2.0080
56480SOL    HW287433  13.902   4.138   3.937  1.0627 -0.7259 -3.0748
56481SOL     OW87434  10.211   2.900   8.531 -0.2783 -0.2095  0.3170
56481SOL    HW187435  10.153   2.954   8.585  1.9686  2.0169  0.7185
56481SOL    HW287436  10.292   2.895   8.581  0.5432 -1.5446 -1.0623
56482SOL     OW87437   0.868   9.644   2.160  0.5406  0.0348  0.6857
56482SOL    HW187438   0.807   9.713   2.133  0.2217 -0.4103  0.2563
56482SOL    HW287439   0.943   9.692   2.196  0.2830  0.6039  0.4869
56483SOL     OW87440  13.026  10.849  13.145 -0.3790 -0.0456 -0.5224
56483SOL    HW187441  13.000  10.769  13.099  1.2505 -0.7860 -0.2132
56483SOL    HW287442  13.121  10.844  13.149 -0.2746  1.7655 -0.1969
56484SOL     OW87443   9.278   1.696   1.221 -0.1308 -0.2952  0.2120
56484SOL    HW187444   9.358   1.737   1.252  0.5035 -0.3159 -1.3063
56484SOL    HW287445   9.226   1.769   1.186  0.2048 -0.5172 -0.8053
56485SOL     OW87446   9.410   4.311  10.660  0.4057  0.5211  0.4696
56485SOL    HW187447   9.374   4.322  10.748  1.2706 -0.3713  0.9468
56485SOL    HW287448   9.473   4.383  10.651  0.5747  0.4088  0.7254
56486SOL     OW87449  10.013   4.113   4.122  0.5267 -0.2594  0.2213
56486SOL    HW187450  10.050   4.039   4.170 -1.4503 -1.0898  0.5904
56486SOL    HW287451   9.928   4.128   4.164  0.2486  1.2731 -0.8068
56487SOL     OW87452   0.024   5.392   2.601  0.3736  0.6910 -0.1242
56487SOL    HW187453   0.091   5.392   2.670 -0.4548  2.1219  0.7407
56487SOL    HW287454   0.074   5.390   2.519  1.4167 -0.1024  0.5059
56488SOL     OW87455   3.624   3.224   8.240  0.4062  0.2215  0.4480
56488SOL    HW187456   3.536   3.260   8.238  0.4464  0.3335  0.6698
56488SOL    HW287457   3.663   3.250   8.156  0.8255  1.6836  1.0579
56489SOL     OW87458   4.037   6.944   7.629  0.0899 -0.4678  0.1340
56489SOL    HW187459   3.980   6.870   7.607  0.5886 -0.6562 -0.5743
56489SOL    HW287460   4.065   6.927   7.719  0.6095 -1.4266 -0.1915
56490SOL     OW87461   0.801   5.914   7.118  0.0109  0.3714 -1.0392
56490SOL    HW187462   0.798   5.873   7.032 -0.6820  0.0766 -0.8860
56490SOL    HW287463   0.745   5.992   7.110  1.8085  1.6685 -1.5028
56491SOL     OW87464  11.812   5.882   4.715 -0.1078  1.0208 -0.3551
56491SOL    HW187465  11.798   5.815   4.648  2.6946  0.0090 -0.0796
56491SOL    HW287466  11.777   5.842   4.795 -1.3286  1.2608 -0.7440
56492SOL     OW87467  12.617   2.053   1.784 -0.7955 -0.4622 -0.5547
56492SOL    HW187468  12.605   2.048   1.690 -1.2393  0.5238 -0.5604
56492SOL    HW287469  12.531   2.037   1.821 -0.6320 -0.7990 -0.3087
56493SOL     OW87470   1.096  10.214   2.938 -0.3441  0.1166  0.3357
56493SOL    HW187471   1.145  10.167   2.870  0.2813  1.6157 -0.2867
56493SOL    HW287472   1.133  10.182   3.021  1.3506  0.8280 -0.1109
56494SOL     OW87473  12.935  10.631   1.472  0.4290 -0.0337 -0.1314
56494SOL    HW187474  13.010  10.608   1.418 -1.1391 -2.0310 -1.6236
56494SOL    HW287475  12.924  10.725   1.460  0.8375 -0.2361 -2.4243
56495SOL     OW87476   8.038   3.503   0.555 -0.0684 -0.4690 -0.8767
56495SOL    HW187477   7.957   3.458   0.578  0.9975 -0.9330  2.5459
56495SOL    HW287478   8.093   3.434   0.517 -0.3934 -0.7727 -0.7970
56496SOL     OW87479   9.305  12.628   9.226  0.4651  0.0150  0.1269
56496SOL    HW187480   9.242  12.675   9.172 -0.5123 -1.4153 -0.0066
56496SOL    HW287481   9.259  12.551   9.257  1.6448 -0.2418  1.3655
56497SOL     OW87482   9.037   2.891   8.375 -0.1252 -0.3616 -0.4195
56497SOL    HW187483   9.102   2.916   8.440  0.2703 -0.5979 -0.7243
56497SOL    HW287484   8.994   2.814   8.413  0.0632 -0.4633 -0.4126
56498SOL     OW87485   7.294   9.814   4.981  0.5226 -0.3571  0.5689
56498SOL    HW187486   7.217   9.759   4.994 -0.7287  1.1519 -0.1071
56498SOL    HW287487   7.268   9.900   5.015  0.0940  1.5072 -3.7746
56499SOL     OW87488   4.099   2.168   4.776 -0.3508 -0.1579  0.1033
56499SOL    HW187489   4.131   2.225   4.846 -1.1594  1.9527 -1.1255
56499SOL    HW287490   4.170   2.105   4.762  0.2480  0.0036  2.0830
56500SOL     OW87491   6.756   1.790  12.645 -0.0776 -0.2823  0.0640
56500SOL    HW187492   6.760   1.795  12.549  4.0265 -0.9200  0.0333
56500SOL    HW287493   6.757   1.696  12.664 -0.3463 -0.1536  0.7506
56501SOL     OW87494   4.232  10.142  11.714  0.3452 -0.3339  0.1729
56501SOL    HW187495   4.141  10.132  11.743 -0.9869  1.9927 -2.6546
56501SOL    HW287496   4.271  10.204  11.775  0.2643 -1.6928  1.6789
56502SOL     OW87497  13.282  13.617   3.129  0.3336  0.1662  0.4349
56502SOL    HW187498  13.354  13.650   3.075 -1.9300  2.5500 -1.3585
56502SOL    HW287499  13.268  13.527   3.099  0.3405  0.8266 -1.6365
56503SOL     OW87500  11.141   4.625   8.445 -0.3106 -0.2329  0.1043
56503SOL    HW187501  11.220   4.591   8.487 -1.4311 -2.5533  0.5014
56503SOL    HW287502  11.159   4.616   8.351  1.2911  2.8036  0.0026
56504SOL     OW87503  13.681  12.008   0.220 -0.3592 -0.1069  0.3770
56504SOL    HW187504  13.726  12.017   0.304 -0.4885 -0.3227  0.4691
56504SOL    HW287505  13.741  11.954   0.167 -0.4336 -0.2604  0.4468
56505SOL     OW87506  11.794   1.354   1.717  0.2611  0.3823  0.1968
56505SOL    HW187507  11.816   1.428   1.774  0.6228 -1.0416  1.9793
56505SOL    HW287508  11.699   1.347   1.721  0.4092 -0.9421  2.2954
56506SOL     OW87509   4.808   0.476   6.671  0.7336  0.2791  0.3193
56506SOL    HW187510   4.808   0.565   6.636  1.2890 -0.1896 -0.9332
56506SOL    HW287511   4.899   0.447   6.663 -0.0986 -1.8297 -3.1901
56507SOL     OW87512   0.678   6.950   8.858  0.2854  0.1851  0.4526
56507SOL    HW187513   0.669   6.854   8.858 -2.1196  0.3433  0.7278
56507SOL    HW287514   0.772   6.965   8.855  0.7149 -2.1863 -1.4509
56508SOL     OW87515  13.813   9.109   8.083 -0.0866  0.0337  0.7522
56508SOL    HW187516  13.856   9.169   8.021  1.4461 -0.2425  1.5023
56508SOL    HW287517  13.861   9.121   8.165  1.8502 -3.7946  0.4061
56509SOL     OW87518   9.589  12.822   4.561 -0.2710  0.2683 -0.1663
56509SOL    HW187519   9.577  12.800   4.469  2.1027 -1.6898 -0.1167
56509SOL    HW287520   9.575  12.916   4.566 -1.2011  0.2912 -2.3520
56510SOL     OW87521   1.676  12.207   0.242  0.4283 -0.2937  0.1993
56510SOL    HW187522   1.764  12.168   0.239  0.7322  0.2448  1.3200
56510SOL    HW287523   1.672  12.265   0.167  2.0446  1.6720  1.5217
56511SOL     OW87524   1.727   9.725   0.843 -0.5417 -0.2406 -0.2899
56511SOL    HW187525   1.703   9.694   0.756 -0.2577 -0.1368 -0.4097
56511SOL    HW287526   1.644   9.739   0.888 -0.6789 -3.0988  0.4830
56512SOL     OW87527   7.286   9.995  10.008  0.8625 -0.0378  0.7064
56512SOL    HW187528   7.299  10.022  10.098  2.0934  2.9811 -0.2667
56512SOL    HW287529   7.192   9.974  10.002  1.1411 -2.5950  3.1223
56513SOL     OW87530   8.522   7.569   9.110 -0.0841 -0.1525 -0.3263
56513SOL    HW187531   8.521   7.507   9.037  0.7033 -1.3759  0.6491
56513SOL    HW287532   8.600   7.545   9.160 -0.8408  0.3494  1.1541
56514SOL     OW87533  13.222   0.447  11.894  0.2579 -0.0700  0.5087
56514SOL    HW187534  13.262   0.467  11.810 -0.1211 -0.5045  0.2176
56514SOL    HW287535  13.215   0.351  11.895 -3.3054  0.0295 -0.6847
56515SOL     OW87536   0.797  12.571   1.210  0.0235 -0.0850  0.8684
56515SOL    HW187537   0.850  12.646   1.236  1.1131 -0.1451 -0.9813
56515SOL    HW287538   0.811  12.564   1.116 -2.9205 -0.4254  0.3682
56516SOL     OW87539   3.516   1.462   6.010 -0.4857 -0.3497  0.6541
56516SOL    HW187540   3.542   1.492   5.923 -0.3054  1.0349  1.1642
56516SOL    HW287541   3.588   1.488   6.067 -0.1700 -2.0880  1.0874
56517SOL     OW87542  11.796   9.060   6.333  0.3830 -0.1651 -0.2779
56517SOL    HW187543  11.791   9.036   6.425  3.3783 -1.3208 -0.2838
56517SOL    HW287544  11.845   9.143   6.333 -0.7068  0.4914 -0.7822
56518SOL     OW87545   4.864   4.656  10.592 -0.9120  0.2171  0.4367
56518SOL    HW187546   4.769   4.663  10.585 -0.9009 -0.8406 -1.3523
56518SOL    HW287547   4.890   4.733  10.643 -2.7855  0.0191  1.8045
56519SOL     OW87548  10.478   0.664   7.611  0.2302 -0.3159 -0.4763
56519SOL    HW187549  10.508   0.573   7.610  0.4918 -0.2283 -0.7423
56519SOL    HW287550  10.398   0.664   7.559  0.0814 -0.4410 -0.2518
56520SOL     OW87551   5.487   0.978   4.616  0.5275  0.0937 -0.5051
56520SOL    HW187552   5.573   0.953   4.583  0.6237  1.6069 -1.5214
56520SOL    HW287553   5.507   1.040   4.687  0.2918  0.9249 -1.1522
56521SOL     OW87554   2.700   5.941   8.033  0.2705 -0.5296 -0.4264
56521SOL    HW187555   2.666   5.957   8.121 -0.5121 -2.0504 -0.4043
56521SOL    HW287556   2.691   6.024   7.988  1.8114  0.6250  1.2582
56522SOL     OW87557   8.810   5.911   7.789  0.5026 -0.0443 -0.0310
56522SOL    HW187558   8.796   5.967   7.712  1.0898  0.5684  0.2996
56522SOL    HW287559   8.897   5.872   7.774  0.1863 -0.7210 -0.1584
56523SOL     OW87560   0.218   1.611   9.535 -0.1615  0.0529 -0.5192
56523SOL    HW187561   0.292   1.552   9.547 -0.6358 -0.9063 -2.0104
56523SOL    HW287562   0.199   1.607   9.442 -0.2770  2.5480 -0.6763
56524SOL     OW87563   8.558   2.583   9.971 -0.2372  0.1893  0.4397
56524SOL    HW187564   8.487   2.538   9.926  0.7068 -1.4471  0.5118
56524SOL    HW287565   8.616   2.613   9.901 -0.7273  1.1090  0.4062
56525SOL     OW87566   6.890  11.661  12.448  0.4833 -0.5716  0.1113
56525SOL    HW187567   6.951  11.609  12.397  2.0842 -0.1132  1.4670
56525SOL    HW287568   6.943  11.700  12.517 -0.9776  1.4639  0.1873
56526SOL     OW87569  11.821   4.895   5.537 -0.0400 -0.3059 -0.3101
56526SOL    HW187570  11.803   4.813   5.490  0.8750 -0.4376 -0.4560
56526SOL    HW287571  11.887   4.939   5.483  0.5126 -0.1326  0.5000
56527SOL     OW87572   4.566   2.817   6.221 -0.3298  0.1192 -0.6425
56527SOL    HW187573   4.621   2.802   6.298 -1.1052 -0.8396 -0.2411
56527SOL    HW287574   4.478   2.796   6.251 -0.6020 -0.6110 -1.8887
56528SOL     OW87575  12.329   0.685  14.070  0.3349 -0.0141 -0.4026
56528SOL    HW187576  12.402   0.707  14.013 -0.5278 -0.0865 -1.5743
56528SOL    HW287577  12.255   0.736  14.036 -0.4692 -0.9079 -0.0519
56529SOL     OW87578  10.516   8.934  12.604 -0.1947  0.2974 -0.2663
56529SOL    HW187579  10.565   8.952  12.524  0.4946  1.5861  0.4242
56529SOL    HW287580  10.491   8.842  12.596  2.4713 -0.4734 -0.5648
56530SOL     OW87581   1.632  10.302   8.907  0.0649 -0.0041  1.0596
56530SOL    HW187582   1.557  10.354   8.880  0.0481 -0.1104  0.9024
56530SOL    HW287583   1.640  10.319   9.001  0.0230  0.2337  1.0213
56531SOL     OW87584   1.618   9.655   8.186 -0.4407 -0.5338 -0.2112
56531SOL    HW187585   1.698   9.607   8.164  0.4413  0.4196  0.7955
56531SOL    HW287586   1.550   9.588   8.188  0.5814 -1.6019  0.2701
56532SOL     OW87587   0.568   6.845   8.031  0.3891  0.2968  0.3942
56532SOL    HW187588   0.544   6.901   7.957  0.8266  0.4353  0.3501
56532SOL    HW287589   0.564   6.903   8.107  1.0619  0.4599  0.3186
56533SOL     OW87590  13.332   0.491   6.033  0.2629  0.3088 -0.0154
56533SOL    HW187591  13.360   0.465   6.120 -1.5629 -0.1544  0.4722
56533SOL    HW287592  13.329   0.587   6.036  1.0585  0.3316  0.1389
56534SOL     OW87593   2.154   8.537  11.731  0.1885 -0.2378 -0.0199
56534SOL    HW187594   2.235   8.566  11.686  0.1494  0.2512  0.2168
56534SOL    HW287595   2.172   8.552  11.824 -0.5444  0.8438 -0.0351
56535SOL     OW87596  13.985   5.559  11.302 -0.5694  1.0935  0.7916
56535SOL    HW187597  14.000   5.623  11.371  0.1752  1.0842  0.6491
56535SOL    HW287598  14.072   5.540  11.267 -0.6314 -0.7583  1.5006
56536SOL     OW87599   6.434   5.673  13.845 -0.7324 -0.0637  0.4694
56536SOL    HW187600   6.412   5.584  13.873  0.4821 -0.2397  0.9517
56536SOL    HW287601   6.394   5.729  13.911 -1.2618 -0.2540  0.3211
56537SOL     OW87602   4.420   7.100  10.114 -0.5273 -0.1697  0.7210
56537SOL    HW187603   4.330   7.126  10.096 -0.1952  0.5910  0.0950
56537SOL    HW287604   4.415   7.050  10.195 -1.5716 -0.5262  0.4475
56538SOL     OW87605   3.453  13.026   9.703 -0.3399 -0.1475 -0.4829
56538SOL    HW187606   3.439  13.082   9.627  0.8184  0.4127 -0.3096
56538SOL    HW287607   3.495  12.948   9.668  2.2581  1.0282 -0.2174
56539SOL     OW87608   6.987   8.123   8.313  0.1736 -0.2083 -0.1155
56539SOL    HW187609   7.062   8.144   8.257  0.2168  1.2419  0.4326
56539SOL    HW287610   7.022   8.129   8.402 -0.0995 -1.6284  0.0997
56540SOL     OW87611  11.237   7.844  10.103 -0.0075 -0.0638 -0.1802
56540SOL    HW187612  11.168   7.794  10.059 -1.3330  1.3893  0.1603
56540SOL    HW287613  11.203   7.933  10.106  1.6770  0.5789  0.4945
56541SOL     OW87614   0.226   8.804  11.904 -0.1717  0.3036 -0.4079
56541SOL    HW187615   0.199   8.895  11.914  2.5661  1.0556  1.2466
56541SOL    HW287616   0.318   8.809  11.877  0.3625 -1.9384  0.7261
56542SOL     OW87617  12.534   9.222   8.384 -0.1509  0.1972  0.2150
56542SOL    HW187618  12.621   9.209   8.421 -0.7656 -0.4119  1.5183
56542SOL    HW287619  12.548   9.281   8.309  1.2626  0.7411  0.8687
56543SOL     OW87620   8.661  11.272   8.850 -0.7165 -0.4259  0.8112
56543SOL    HW187621   8.631  11.195   8.899 -0.8114 -0.2571  1.0217
56543SOL    HW287622   8.687  11.334   8.918 -2.0541  0.3062  0.6860
56544SOL     OW87623   5.737   4.036  12.131  0.3821  0.6072  0.3506
56544SOL    HW187624   5.818   4.084  12.146 -0.7905  2.5781  0.7522
56544SOL    HW287625   5.726   3.982  12.210  2.4044 -1.5345 -0.6879
56545SOL     OW87626   5.451   9.134   5.167 -0.0990 -0.2959  0.2366
56545SOL    HW187627   5.365   9.170   5.145  0.6404  1.0129 -0.6269
56545SOL    HW287628   5.494   9.202   5.218  0.9645 -0.3102 -0.6000
56546SOL     OW87629   4.987   3.302   0.166 -0.5774 -0.3325 -0.0895
56546SOL    HW187630   5.003   3.375   0.225 -0.1933 -0.0804 -0.5020
56546SOL    HW287631   5.018   3.225   0.213  0.7228 -0.0091 -0.3712
56547SOL     OW87632   6.836  13.460   1.054  0.4002 -0.0716 -0.2358
56547SOL    HW187633   6.887  13.491   1.129  0.4214 -1.3690  0.2993
56547SOL    HW287634   6.873  13.375   1.033  0.2809  0.2023 -1.6341
56548SOL     OW87635   3.586  12.404   1.762 -0.2616  0.3877 -0.0333
56548SOL    HW187636   3.569  12.319   1.804 -0.4334  0.1605 -0.5468
56548SOL    HW287637   3.622  12.381   1.676  0.1745  0.8447  0.0227
56549SOL     OW87638   0.387   6.028   7.164 -0.1160 -0.2284  0.4782
56549SOL    HW187639   0.337   6.019   7.246 -1.1878  0.1209 -0.1172
56549SOL    HW287640   0.334   6.088   7.111  1.1507  0.4761 -0.0283
56550SOL     OW87641  10.034   7.136   9.838  0.0913  0.0868  0.3236
56550SOL    HW187642  10.126   7.138   9.865 -0.0984  0.2215  0.9729
56550SOL    HW287643  10.011   7.227   9.821 -0.1090  0.1326  0.8205
56551SOL     OW87644   5.444  11.123   8.868  0.5390  0.1368  0.2727
56551SOL    HW187645   5.380  11.193   8.855  0.3299 -0.2216 -0.6725
56551SOL    HW287646   5.506  11.133   8.796  1.8916  0.8257  1.4759
56552SOL     OW87647   7.298  11.656  12.475  0.3659 -0.4867 -0.1069
56552SOL    HW187648   7.245  11.664  12.555  0.8894  1.2570  0.1088
56552SOL    HW287649   7.260  11.581  12.429 -1.1872 -0.3435  0.8515
56553SOL     OW87650  13.474   5.233   5.997 -0.3817 -0.3887  0.1362
56553SOL    HW187651  13.513   5.242   6.084 -1.1024  0.1284  0.4106
56553SOL    HW287652  13.444   5.321   5.974 -0.5974 -0.6054 -0.4474
56554SOL     OW87653   2.236   9.685   7.025 -0.1869 -0.3092  0.5907
56554SOL    HW187654   2.310   9.661   7.081  1.5737  0.5170 -1.2348
56554SOL    HW287655   2.201   9.765   7.064 -0.2445 -0.7959  1.5651
56555SOL     OW87656   8.240  10.255   5.423 -0.2463  0.1991  0.1388
56555SOL    HW187657   8.180  10.246   5.349 -2.1964  0.5659  1.6135
56555SOL    HW287658   8.296  10.330   5.399 -0.1227 -0.3439 -1.3955
56556SOL     OW87659   9.916  10.741  10.498  0.1882  0.5767  0.0374
56556SOL    HW187660  10.005  10.747  10.534  0.4456 -0.9409 -0.2689
56556SOL    HW287661   9.864  10.798  10.555  0.6860 -1.2293  2.4799
56557SOL     OW87662  10.122  11.042   6.112  0.1738  0.0405 -0.5617
56557SOL    HW187663  10.215  11.042   6.132  0.2190  0.2199 -0.7646
56557SOL    HW287664  10.114  10.987   6.034  0.0644 -0.2564 -0.3439
56558SOL     OW87665   2.302   8.409   3.192  0.0832  0.0170  0.2384
56558SOL    HW187666   2.352   8.483   3.226 -1.4303  0.5401  1.4627
56558SOL    HW287667   2.290   8.427   3.099  2.0462 -0.0929 -0.0771
56559SOL     OW87668  12.600   3.313  13.436 -0.0444  0.6772 -0.2054
56559SOL    HW187669  12.613   3.372  13.362  2.1628 -0.3978 -0.7432
56559SOL    HW287670  12.686   3.309  13.479 -0.7163 -0.4349  1.1215
56560SOL     OW87671   2.254  10.689  11.337 -0.8117 -0.0076 -0.2933
56560SOL    HW187672   2.337  10.671  11.379  0.2319  0.4916 -2.0382
56560SOL    HW287673   2.196  10.718  11.409  0.5120 -0.2962  0.9269
56561SOL     OW87674  14.023   1.563   1.612 -0.0650 -0.4679 -0.4549
56561SOL    HW187675  13.965   1.514   1.553  0.2532 -1.4885  0.0590
56561SOL    HW287676  14.001   1.530   1.699  2.3892 -2.1329 -0.3516
56562SOL     OW87677   3.487   6.455  12.210 -0.4429 -0.5140 -0.1482
56562SOL    HW187678   3.436   6.448  12.129  0.2118 -2.7767 -0.4437
56562SOL    HW287679   3.423   6.470  12.278 -1.2200 -0.5839 -0.8483
56563SOL     OW87680   1.910   0.612   6.524 -0.0544  0.3692  0.5037
56563SOL    HW187681   1.913   0.698   6.484  0.0156  0.1169 -0.0345
56563SOL    HW287682   1.854   0.560   6.466  0.1288 -0.0245  0.6723
56564SOL     OW87683   8.387   4.879   1.748 -0.4802  0.1548 -0.4079
56564SOL    HW187684   8.418   4.801   1.794 -0.8397  0.4466  0.3339
56564SOL    HW287685   8.358   4.846   1.663  1.6170 -0.1681 -1.0659
56565SOL     OW87686   6.552  10.545  12.697  0.5090  0.0243 -0.0502
56565SOL    HW187687   6.488  10.485  12.657  2.1062 -2.5050  0.9564
56565SOL    HW287688   6.567  10.508  12.784  4.3298 -0.3610 -0.7367
56566SOL     OW87689   1.754   4.309   3.229 -0.0922  0.2416 -0.5500
56566SOL    HW187690   1.846   4.316   3.203  1.1043 -0.7942  2.9130
56566SOL    HW287691   1.728   4.220   3.205  0.6727 -0.3651  0.8168
56567SOL     OW87692  11.374  11.683   1.102 -0.1917  0.5306 -0.0394
56567SOL    HW187693  11.307  11.642   1.048 -0.0293 -0.7118  0.6705
56567SOL    HW287694  11.333  11.763   1.135 -0.4006  1.1481 -1.6952
56568SOL     OW87695   2.622  13.849   9.015 -0.7471  0.0160 -0.3472
56568SOL    HW187696   2.556  13.910   8.982 -0.3266  0.9276  0.4385
56568SOL    HW287697   2.571  13.777   9.052 -1.3625  0.9832  0.7895
56569SOL     OW87698   9.750  13.270   4.405 -0.2953 -0.1544  0.5132
56569SOL    HW187699   9.719  13.316   4.327 -1.0464 -1.7891 -0.2204
56569SOL    HW287700   9.788  13.338   4.460 -1.4434  1.3365 -0.4414
56570SOL     OW87701  12.004   2.698  10.077  0.0703  0.0543 -0.3819
56570SOL    HW187702  11.938   2.709  10.145  0.1251 -0.1627 -0.2929
56570SOL    HW287703  11.964   2.733   9.998 -0.8865 -1.8369 -0.7694
56571SOL     OW87704   9.963  12.375   1.463  0.0367 -1.1093  0.5686
56571SOL    HW187705   9.993  12.325   1.539 -1.5432  1.4541  3.0874
56571SOL    HW287706   9.870  12.389   1.478 -0.1384  0.2413 -1.3894
56572SOL     OW87707  12.179   3.512   2.321 -0.1366  0.5339 -0.0311
56572SOL    HW187708  12.192   3.418   2.311 -0.2640  0.5751 -0.6044
56572SOL    HW287709  12.221   3.533   2.405 -0.7604 -0.1548  0.4652
56573SOL     OW87710   2.286   6.271  13.064  0.0218 -0.3344  0.2715
56573SOL    HW187711   2.214   6.214  13.039 -0.7782  0.7636  0.0320
56573SOL    HW287712   2.364   6.217  13.053 -0.6448 -1.1092 -0.7848
56574SOL     OW87713   2.401   2.997   2.275 -0.5632 -0.1653 -0.4799
56574SOL    HW187714   2.388   3.016   2.368 -1.4042  1.9261 -0.9908
56574SOL    HW287715   2.319   2.958   2.247 -1.9246  2.9616 -1.2052
56575SOL     OW87716   5.030   9.610   9.944 -0.0824  0.2314 -0.3064
56575SOL    HW187717   5.009   9.541  10.007  0.5685  0.3069  0.0043
56575SOL    HW287718   4.986   9.583   9.864  0.6918 -0.9025 -0.3850
56576SOL     OW87719   8.126   7.508  12.661 -0.4345  0.0471  0.3059
56576SOL    HW187720   8.198   7.541  12.609  1.2676 -0.0449  2.4615
56576SOL    HW287721   8.092   7.586  12.706 -2.2560  0.2273 -1.2583
56577SOL     OW87722   5.117   9.292   3.891 -0.3949 -0.2463  0.5938
56577SOL    HW187723   5.183   9.350   3.855 -0.5495 -0.1795  0.4211
56577SOL    HW287724   5.167   9.229   3.944  0.3754 -2.8910 -2.8668
56578SOL     OW87725   6.298   7.349   4.071 -0.0174 -0.6347  0.3088
56578SOL    HW187726   6.290   7.362   4.166 -0.3603  0.6053  0.1233
56578SOL    HW287727   6.208   7.337   4.041  0.0880 -0.9934  0.1237
56579SOL     OW87728   0.322  10.319  12.575 -0.4638 -0.5470 -0.3412
56579SOL    HW187729   0.285  10.296  12.660 -1.0233  0.4874 -0.2894
56579SOL    HW287730   0.387  10.387  12.595  0.2337 -1.1150 -0.6243
56580SOL     OW87731   6.767   2.457  13.552  0.0653 -0.1616 -0.5233
56580SOL    HW187732   6.672   2.472  13.549 -0.4371 -1.6044  2.8453
56580SOL    HW287733   6.803   2.543  13.575 -0.9407 -0.2830  1.9056
56581SOL     OW87734  13.755   5.762   2.976 -0.3510  0.1149  0.3590
56581SOL    HW187735  13.692   5.761   2.904 -0.7996  0.3165  0.7436
56581SOL    HW287736  13.747   5.676   3.016  1.9188 -1.0872 -1.5329
56582SOL     OW87737   1.630  12.939   3.608 -0.0231  0.3665  0.0725
56582SOL    HW187738   1.681  12.988   3.543 -0.4436 -0.4006 -0.8697
56582SOL    HW287739   1.695  12.889   3.657  0.1432 -1.1933 -1.6198
56583SOL     OW87740  10.365   8.530  13.833 -0.2540  0.3018 -0.5330
56583SOL    HW187741  10.367   8.482  13.916  0.4253 -1.1380 -1.3456
56583SOL    HW287742  10.342   8.620  13.858  0.4767  0.0360  1.2723
56584SOL     OW87743   7.206   0.893   2.543  0.4659 -0.5010  0.8181
56584SOL    HW187744   7.205   0.912   2.637  2.6777  0.3881  0.7171
56584SOL    HW287745   7.262   0.816   2.534 -0.8090 -1.4173  0.2999
56585SOL     OW87746   2.528   3.660   9.380 -0.0891  0.3217  0.0495
56585SOL    HW187747   2.463   3.719   9.341 -0.3429  1.9145  2.6117
56585SOL    HW287748   2.487   3.631   9.462  1.2281 -1.1324  0.2401
56586SOL     OW87749   9.188   1.634  10.535 -0.5842  0.2419 -0.5870
56586SOL    HW187750   9.262   1.574  10.538 -0.3595  0.5374  0.0045
56586SOL    HW287751   9.185   1.665  10.444  0.4019  0.7022 -0.4692
56587SOL     OW87752   0.978  12.629   1.901 -0.3350 -0.0887  0.5505
56587SOL    HW187753   0.913  12.559   1.902 -0.0536 -0.3609  0.0419
56587SOL    HW287754   0.939  12.697   1.846 -1.5691  1.1063  2.7788
56588SOL     OW87755   1.156  10.282   7.864  0.3650 -0.3406 -0.5314
56588SOL    HW187756   1.088  10.217   7.887 -1.5770  1.6381 -0.3404
56588SOL    HW287757   1.223  10.271   7.932 -0.8731 -0.8187  0.6635
56589SOL     OW87758   0.415   1.434   7.913  0.0747  0.2591 -0.0271
56589SOL    HW187759   0.428   1.339   7.908  0.6342  0.1428  2.4125
56589SOL    HW287760   0.486   1.471   7.859  2.3222 -0.6939  2.0761
56590SOL     OW87761   7.424   8.999  13.257  0.2292 -0.1643  0.2500
56590SOL    HW187762   7.453   8.914  13.226  1.2662  0.6895 -1.2448
56590SOL    HW287763   7.475   9.015  13.336  0.4733 -0.6509  0.1889
56591SOL     OW87764   4.391  10.604   2.183 -0.5956  0.1394 -0.1832
56591SOL    HW187765   4.472  10.651   2.162  0.8474 -2.0704  0.1770
56591SOL    HW287766   4.339  10.668   2.233  1.6322  1.1347  1.0130
56592SOL     OW87767   6.983  11.260   6.637 -0.1856 -0.4581  0.2808
56592SOL    HW187768   6.958  11.202   6.566 -1.0689 -1.0810  1.0834
56592SOL    HW287769   7.025  11.334   6.593 -0.4256 -0.9762 -0.8620
56593SOL     OW87770   9.530   1.156   9.030  0.6135 -1.3468 -0.2999
56593SOL    HW187771   9.581   1.162   8.948  1.2284 -1.6768  0.0522
56593SOL    HW287772   9.487   1.071   9.025  0.4451 -1.2569 -0.3957
56594SOL     OW87773  13.597   8.262   5.703 -0.3768  0.6344 -0.5476
56594SOL    HW187774  13.635   8.209   5.633  0.2351  1.4580 -0.8568
56594SOL    HW287775  13.579   8.200   5.773  0.2607  0.0072 -0.9260
56595SOL     OW87776   2.378   1.000  11.541 -0.1349  0.3640 -0.3692
56595SOL    HW187777   2.334   0.939  11.599 -0.1313  0.7743  0.0702
56595SOL    HW287778   2.313   1.068  11.524  0.2489  0.8553  0.0996
56596SOL     OW87779  12.669   7.405   3.656 -0.8502  0.3209 -0.4632
56596SOL    HW187780  12.638   7.334   3.712  2.8667 -1.5476 -0.4253
56596SOL    HW287781  12.676   7.481   3.714 -0.7527 -0.5152  0.6558
56597SOL     OW87782   2.050  10.611   2.303  0.1275 -0.0212  0.1302
56597SOL    HW187783   2.044  10.543   2.369 -1.5526  1.3847  1.5349
56597SOL    HW287784   2.137  10.600   2.265  0.3135 -2.2366  1.0280
56598SOL     OW87785   4.706   9.085   8.039 -0.2969 -0.3415 -1.0522
56598SOL    HW187786   4.673   9.025   8.105  0.4362  0.7609  0.3711
56598SOL    HW287787   4.756   9.031   7.979 -0.8175 -1.3316 -0.6107
56599SOL     OW87788   0.910   8.167   5.050 -0.2433 -0.3707  0.5960
56599SOL    HW187789   0.835   8.219   5.080 -0.2111 -0.0318  0.0866
56599SOL    HW287790   0.904   8.167   4.955  0.5674 -0.0963  0.5343
56600SOL     OW87791   5.959   5.704   5.635 -0.2654  0.2291  0.4431
56600SOL    HW187792   5.967   5.612   5.613  2.1019 -0.0086  1.9624
56600SOL    HW287793   5.903   5.706   5.713 -1.0649  0.2007 -0.1164
56601SOL     OW87794   6.193   5.058  10.485  0.3127  0.5385  0.1615
56601SOL    HW187795   6.251   4.996  10.529  1.3647  0.9339 -0.6131
56601SOL    HW287796   6.231   5.144  10.506  1.6182  0.7003 -2.4815
56602SOL     OW87797   5.730   5.064   2.865 -0.0925  0.5043  0.2296
56602SOL    HW187798   5.768   4.981   2.836 -0.8886  0.5622 -1.0745
56602SOL    HW287799   5.647   5.039   2.905  0.2361  0.5844  0.9927
56603SOL     OW87800   4.333   6.963   8.820 -0.1195  0.2109  0.3977
56603SOL    HW187801   4.378   7.021   8.759 -0.4476  0.4487  0.3806
56603SOL    HW287802   4.318   6.882   8.771 -0.4575  0.4324  0.1328
56604SOL     OW87803  11.508  10.952  10.554 -0.3255 -0.6763  0.2595
56604SOL    HW187804  11.548  10.903  10.625  0.2947 -0.8126 -0.1729
56604SOL    HW287805  11.533  11.043  10.569 -0.1576 -0.7117  0.1915
56605SOL     OW87806   3.758   0.010   5.769  0.8967  0.3196  0.6233
56605SOL    HW187807   3.802   0.071   5.710  2.2200  0.4162  1.6537
56605SOL    HW287808   3.665   0.020   5.749  1.2006  1.4851 -0.3347
56606SOL     OW87809   3.524  12.936   4.341 -0.5383  0.4340 -0.0414
56606SOL    HW187810   3.479  12.963   4.421 -1.3305  0.4327 -0.4769
56606SOL    HW287811   3.518  12.840   4.342 -0.4239  0.4276 -0.0272
56607SOL     OW87812  10.491   4.952   1.730 -0.1217 -0.2336 -0.2183
56607SOL    HW187813  10.582   4.970   1.755  0.5313 -2.3437 -0.8992
56607SOL    HW287814  10.481   4.994   1.645 -0.7853  2.5834  1.1232
56608SOL     OW87815  11.626   9.775  10.206  0.3304 -0.4024 -0.0514
56608SOL    HW187816  11.629   9.870  10.192 -0.3929 -0.3036  0.4174
56608SOL    HW287817  11.713   9.744  10.181 -0.2020  0.0349 -2.7202
56609SOL     OW87818   8.222   0.333   7.477  0.2816  0.0364  0.7946
56609SOL    HW187819   8.285   0.267   7.506 -0.3680 -1.4209 -0.9316
56609SOL    HW287820   8.179   0.362   7.557  1.3445 -0.8502  1.7127
56610SOL     OW87821   2.005   8.728   5.434  0.2291  0.4331 -0.0322
56610SOL    HW187822   1.932   8.669   5.414 -0.2665  0.7530  0.8028
56610SOL    HW287823   2.002   8.739   5.529  1.5091  0.2716  0.0522
56611SOL     OW87824   7.586   2.495   6.159  0.5687  0.9614 -0.5906
56611SOL    HW187825   7.498   2.520   6.188  0.6482  1.1298 -0.4913
56611SOL    HW287826   7.607   2.557   6.090  0.6634  1.0060 -0.5220
56612SOL     OW87827   2.669  11.292   0.766 -0.4229  0.0103  0.0907
56612SOL    HW187828   2.687  11.281   0.673  1.2817  1.9335  0.1070
56612SOL    HW287829   2.730  11.233   0.810 -0.1711  0.2138  0.0127
56613SOL     OW87830  10.947   5.618  11.362 -0.1798 -0.0406  0.4824
56613SOL    HW187831  10.902   5.571  11.292 -1.8377 -0.8337  2.0220
56613SOL    HW287832  11.019   5.664  11.317 -2.1907  0.9017 -2.0017
56614SOL     OW87833   1.004   6.673   8.877  0.5917 -0.5682  0.4006
56614SOL    HW187834   1.040   6.713   8.797 -1.2198 -0.7867 -0.5684
56614SOL    HW287835   0.909   6.673   8.864  0.2858 -1.1714  2.3085
56615SOL     OW87836  13.324  10.282  12.087  0.2920 -0.3828  0.0424
56615SOL    HW187837  13.394  10.263  12.149  1.1054 -0.9744 -1.0259
56615SOL    HW287838  13.243  10.259  12.133  0.8533 -0.4461  1.0057
56616SOL     OW87839  12.300  10.412   6.108 -0.5219  0.1842  0.0173
56616SOL    HW187840  12.274  10.320   6.122  1.9999 -0.7194 -0.6582
56616SOL    HW287841  12.314  10.446   6.196 -2.7514  0.3973  0.3520
56617SOL     OW87842   6.130  12.986   0.545 -0.6490 -0.0422  0.1004
56617SOL    HW187843   6.166  13.009   0.631 -0.2110  1.0044 -0.3406
56617SOL    HW287844   6.044  12.950   0.564 -0.2857 -0.4629  1.0296
56618SOL     OW87845   8.863   7.339  10.892 -0.7077  0.4491  0.0402
56618SOL    HW187846   8.942   7.289  10.910 -2.0341 -1.4123  0.9817
56618SOL    HW287847   8.800   7.310  10.957 -3.2246 -0.6607 -2.6341
56619SOL     OW87848   6.925   0.169   2.319 -0.1850  0.2443 -0.2491
56619SOL    HW187849   6.923   0.088   2.370  2.0869  0.3302  0.1219
56619SOL    HW287850   6.891   0.145   2.233 -0.3991 -0.8736  0.1278
56620SOL     OW87851   3.851   4.318  10.294  0.4337  0.0933  0.4949
56620SOL    HW187852   3.827   4.264  10.369  1.7478 -0.6579  0.4011
56620SOL    HW287853   3.883   4.399  10.334 -1.3503  0.7869  0.6382
56621SOL     OW87854   0.046  13.650   7.227  0.8693 -0.0519 -0.4526
56621SOL    HW187855  -0.007  13.723   7.194  1.3690  1.3115  1.5811
56621SOL    HW287856   0.001  13.571   7.196 -0.6117  1.0845 -1.3299
56622SOL     OW87857   7.158   6.494   6.020 -0.7478 -0.1562  0.0318
56622SOL    HW187858   7.226   6.536   5.968 -0.5476  0.6677  0.9206
56622SOL    HW287859   7.108   6.567   6.057  0.5523 -0.5609  2.8755
56623SOL     OW87860   5.110   5.467   7.818  0.2573 -0.4604  0.1820
56623SOL    HW187861   5.168   5.391   7.827 -0.2865 -1.1149 -1.3960
56623SOL    HW287862   5.138   5.508   7.736  0.9213  1.4255  1.2886
56624SOL     OW87863  13.816  10.552   6.636 -0.1885  0.5751 -0.2557
56624SOL    HW187864  13.722  10.539   6.627 -0.2806  1.0536 -0.0527
56624SOL    HW287865  13.854  10.465   6.624 -0.7206  0.2213  0.4945
56625SOL     OW87866   6.892  10.770   3.574 -0.2484  0.1888  0.4626
56625SOL    HW187867   6.943  10.839   3.532  0.9880 -1.5733 -1.1365
56625SOL    HW287868   6.816  10.758   3.517 -0.4829  0.2677  0.7573
56626SOL     OW87869   3.836   9.188  11.223  0.4325  0.0049 -0.1444
56626SOL    HW187870   3.832   9.166  11.316  0.2016  2.9959  0.6499
56626SOL    HW287871   3.777   9.125  11.181  0.6350 -1.4753  1.6903
56627SOL     OW87872   7.315   2.894  11.552  0.4313  0.3836  0.5133
56627SOL    HW187873   7.230   2.919  11.586  0.0075 -0.9493  0.4983
56627SOL    HW287874   7.313   2.798  11.550  1.3557  0.3639 -0.9498
56628SOL     OW87875  11.484   5.746   0.231  0.2007  0.0782  0.5711
56628SOL    HW187876  11.567   5.792   0.243 -0.2264  0.5155  2.0869
56628SOL    HW287877  11.459   5.764   0.141  1.0012  1.2142  0.5606
56629SOL     OW87878  10.140   7.567  13.604  0.3160  0.0867 -0.0672
56629SOL    HW187879  10.129   7.596  13.695 -0.4544  1.0204 -0.4248
56629SOL    HW287880  10.146   7.472  13.609  1.6685  0.2096  1.0736
56630SOL     OW87881  12.678   0.750   2.403 -0.0525  0.4977  0.1162
56630SOL    HW187882  12.710   0.778   2.317 -0.5491  1.9031  0.3713
56630SOL    HW287883  12.731   0.673   2.423 -1.7766 -1.6243 -2.6795
56631SOL     OW87884   4.941   9.664   0.660 -0.0964  0.7222  0.3337
56631SOL    HW187885   5.033   9.678   0.683 -0.6532  3.4954  1.2903
56631SOL    HW287886   4.922   9.730   0.594 -2.2677  2.9623  2.9195
56632SOL     OW87887   0.563   8.728   5.032 -0.3275 -0.7724  0.1290
56632SOL    HW187888   0.492   8.709   5.092 -0.5426  0.6261  0.3545
56632SOL    HW287889   0.643   8.715   5.083 -0.4974 -0.0280  0.5905
56633SOL     OW87890   9.894   6.306  11.050  0.2852 -0.6722  0.0421
56633SOL    HW187891   9.802   6.330  11.055  0.6663  0.8554  0.3003
56633SOL    HW287892   9.910   6.289  10.957  0.8759  4.3749 -1.1261
56634SOL     OW87893   0.683  10.341   3.666  0.5622 -0.3747  0.3203
56634SOL    HW187894   0.770  10.378   3.679  0.1010  1.1042 -0.5859
56634SOL    HW287895   0.643  10.344   3.753  1.7637 -2.1134  0.9873
56635SOL     OW87896  13.847  13.613   2.505  0.5150 -0.2671 -0.4113
56635SOL    HW187897  13.807  13.661   2.577  1.1697 -1.0905  0.5259
56635SOL    HW287898  13.929  13.579   2.541  0.1101 -2.0296 -1.0375
56636SOL     OW87899   9.357   5.527   6.523 -0.2936  0.8010  0.3235
56636SOL    HW187900   9.373   5.478   6.603 -0.1298  1.8813  0.9745
56636SOL    HW287901   9.303   5.602   6.551 -3.7561 -0.8761 -1.1954
56637SOL     OW87902   7.862  12.895   9.269  0.0290 -0.0820  0.0801
56637SOL    HW187903   7.923  12.937   9.330 -0.3497 -1.7091  1.6341
56637SOL    HW287904   7.777  12.899   9.313 -0.4653 -0.3067 -0.8362
56638SOL     OW87905   5.985   1.921   8.561 -0.2549  0.1991  0.6816
56638SOL    HW187906   6.062   1.903   8.506 -1.0835 -0.1833 -0.3758
56638SOL    HW287907   5.928   1.845   8.548 -1.0212  0.6962  1.0910
56639SOL     OW87908   4.669  10.252   9.144 -0.6211  0.5087 -0.4214
56639SOL    HW187909   4.670  10.339   9.185 -1.0298  1.1398 -1.6677
56639SOL    HW287910   4.577  10.225   9.147 -0.8588  1.0583 -1.8378
56640SOL     OW87911   2.821  12.339  12.032 -0.2044 -0.7680 -0.5652
56640SOL    HW187912   2.913  12.337  12.057 -0.2436  0.1097 -0.3248
56640SOL    HW287913   2.809  12.260  11.979  0.3235 -1.6881  0.6298
56641SOL     OW87914   8.200  12.366  11.129 -0.1273  0.8060 -0.1266
56641SOL    HW187915   8.260  12.428  11.090  3.3312 -2.7007 -0.9565
56641SOL    HW287916   8.228  12.359  11.220 -1.4892  1.4464  0.3808
56642SOL     OW87917  12.624  10.110  10.906  0.2183  0.3414  0.0285
56642SOL    HW187918  12.714  10.136  10.929 -0.0164  1.3417 -0.1404
56642SOL    HW287919  12.587  10.187  10.863 -0.2154 -0.6076 -1.3518
56643SOL     OW87920   9.543  11.780   6.809  0.1433  0.4661  0.3554
56643SOL    HW187921   9.538  11.781   6.713  1.1840 -3.4595  0.1108
56643SOL    HW287922   9.458  11.747   6.837 -0.0960  1.4435  0.8223
56644SOL     OW87923   2.505  12.521   4.426  0.3457 -0.1689 -0.4869
56644SOL    HW187924   2.553  12.488   4.351  0.4546  0.7097 -0.8173
56644SOL    HW287925   2.572  12.543   4.490  0.3251  0.0528 -0.5387
56645SOL     OW87926  13.251   6.377   2.456 -0.4357  0.1420 -0.4609
56645SOL    HW187927  13.203   6.340   2.382  0.1726  0.0870 -0.8431
56645SOL    HW287928  13.305   6.304   2.488 -0.2308  0.3360 -0.3630
56646SOL     OW87929   0.936   4.647   9.319 -0.4786  0.3865 -0.4709
56646SOL    HW187930   0.872   4.606   9.260 -0.1663 -0.5334 -0.2009
56646SOL    HW287931   0.966   4.574   9.374  0.9860  0.7431 -0.7642
56647SOL     OW87932  13.054   9.417   1.000  0.0265  0.5812  0.3899
56647SOL    HW187933  13.056   9.339   1.054  1.4680 -0.6921 -1.3756
56647SOL    HW287934  13.135   9.464   1.021 -0.3041  1.0464  0.6520
56648SOL     OW87935   8.422  11.852  12.199  0.0724 -0.4812 -0.2538
56648SOL    HW187936   8.330  11.868  12.182  0.4098  0.1160 -1.6585
56648SOL    HW287937   8.439  11.766  12.160  0.1321 -0.5416 -0.0945
56649SOL     OW87938   9.122   4.766   9.506 -0.0667  0.0689  0.0480
56649SOL    HW187939   9.141   4.854   9.538  0.6709  0.5814 -1.6705
56649SOL    HW287940   9.133   4.772   9.411 -1.8440 -1.4240 -0.3134
56650SOL     OW87941   8.385   4.674  14.023  0.7784  0.0072 -0.0769
56650SOL    HW187942   8.298   4.708  14.043  0.8167  0.1492 -0.1440
56650SOL    HW287943   8.375   4.631  13.938  0.9220  0.6079 -0.4033
56651SOL     OW87944   7.828   8.299  12.840  0.0919 -0.0376  0.3386
56651SOL    HW187945   7.788   8.351  12.770  1.3911  2.0348  1.0464
56651SOL    HW287946   7.785   8.214  12.834 -0.6369  0.4246 -2.2478
56652SOL     OW87947  13.149  10.076  13.083  0.1326  0.3781 -0.3481
56652SOL    HW187948  13.234  10.106  13.116 -0.4316 -0.2248  1.7892
56652SOL    HW287949  13.114  10.022  13.153 -2.1301  0.7762 -1.0923
56653SOL     OW87950   7.498   8.358  13.607  0.5659 -0.0290  0.1798
56653SOL    HW187951   7.586   8.353  13.569 -0.0662  0.9305 -1.5210
56653SOL    HW287952   7.511   8.340  13.700  2.4491 -0.6842 -0.1702
56654SOL     OW87953   9.369  11.847   0.248  0.0192 -0.3287  0.1992
56654SOL    HW187954   9.361  11.784   0.176  0.6193  0.5931 -0.6889
56654SOL    HW287955   9.302  11.818   0.311 -0.3431 -1.3055 -0.5939
56655SOL     OW87956  13.011  13.183   1.045 -0.1725  0.0662  0.1821
56655SOL    HW187957  12.920  13.176   1.016 -0.2518  2.9049 -0.6032
56655SOL    HW287958  13.049  13.097   1.027 -2.2645 -0.6833 -1.0510
56656SOL     OW87959   4.795   7.894   9.324  0.0716  0.0972  0.6111
56656SOL    HW187960   4.837   7.808   9.330  1.2594  0.5574 -0.5306
56656SOL    HW287961   4.866   7.954   9.301 -1.3750  0.6399 -3.2398
56657SOL     OW87962   5.302   3.914   1.647 -0.1118 -0.1660  0.8291
56657SOL    HW187963   5.378   3.857   1.641  0.2852  0.2686  1.5704
56657SOL    HW287964   5.306   3.968   1.568  1.0028  0.6284  1.3966
56658SOL     OW87965   7.596  11.714   5.585  0.5353  0.3793 -0.0269
56658SOL    HW187966   7.593  11.648   5.655  1.6408 -0.4796 -0.7651
56658SOL    HW287967   7.520  11.693   5.530 -0.3023  1.0191  0.8543
56659SOL     OW87968   0.969   4.713  11.150  0.5265  0.6783  0.2783
56659SOL    HW187969   0.987   4.646  11.083  1.4344 -0.4283  1.5600
56659SOL    HW287970   1.031   4.783  11.132 -0.1119  0.9863 -0.7995
56660SOL     OW87971   7.860   4.744   0.338  0.4219  0.0399 -0.5390
56660SOL    HW187972   7.951   4.718   0.327  0.3949 -0.2798 -0.0375
56660SOL    HW287973   7.842   4.731   0.431 -0.1483  0.0585 -0.6407
56661SOL     OW87974   5.848   2.772   5.373  0.0086 -0.5459 -0.0619
56661SOL    HW187975   5.788   2.702   5.348  0.7157 -1.0824 -0.2910
56661SOL    HW287976   5.833   2.784   5.467  0.8389 -1.9863  0.2981
56662SOL     OW87977   7.535   9.427   4.948 -0.0678 -0.5512 -0.0242
56662SOL    HW187978   7.528   9.356   4.885 -0.9628  0.0444 -0.6202
56662SOL    HW287979   7.522   9.385   5.033  0.1572 -1.2136 -0.3141
56663SOL     OW87980   2.514  11.419  13.455 -0.2950  0.3069 -0.1153
56663SOL    HW187981   2.599  11.395  13.419 -0.3506  0.8820 -0.6408
56663SOL    HW287982   2.451  11.385  13.392 -0.3834  1.5826 -0.7403
56664SOL     OW87983   8.334   8.213   9.180 -0.3196 -0.3246 -0.1034
56664SOL    HW187984   8.326   8.177   9.269 -1.1832  1.8425  0.7495
56664SOL    HW287985   8.420   8.183   9.150 -0.4003 -1.8795  1.0631
56665SOL     OW87986   6.504  11.101   6.940 -0.1668 -0.6357 -0.0223
56665SOL    HW187987   6.541  11.086   6.854  0.0631 -1.5029  0.2234
56665SOL    HW287988   6.511  11.017   6.985  0.2445 -0.0527  1.0412
56666SOL     OW87989   1.315   8.214   7.576  0.0177  0.1821  0.0370
56666SOL    HW187990   1.328   8.127   7.614 -1.7253 -1.2095 -2.2159
56666SOL    HW287991   1.238   8.249   7.622  0.0356  0.0397  0.1751
56667SOL     OW87992  12.761  10.080   6.555  0.0991 -0.1682 -0.3014
56667SOL    HW187993  12.718   9.996   6.540  1.4511 -0.6104 -2.0261
56667SOL    HW287994  12.734  10.135   6.482  1.9943 -0.2996 -1.1484
56668SOL     OW87995   1.608   7.067  12.955  0.3552  0.7695  0.0815
56668SOL    HW187996   1.676   7.128  12.925  2.2424 -0.1468  2.1828
56668SOL    HW287997   1.572   7.109  13.033  0.4120  0.0283  0.5097
56669SOL     OW87998   5.722  13.636   7.951 -0.4810  0.3667 -0.0092
56669SOL    HW187999   5.665  13.704   7.914  0.4763  0.5610 -1.1773
56669SOL    HW288000   5.680  13.613   8.034 -1.4152  1.6097 -0.0991
56670SOL     OW88001  11.886   2.406  10.996 -0.4501  0.3147 -0.4319
56670SOL    HW188002  11.934   2.328  11.024  0.6009  0.5217 -1.5774
56670SOL    HW288003  11.796   2.390  11.024 -0.1809 -1.1448 -0.3252
56671SOL     OW88004   6.172  10.728  12.169 -0.1357  0.0810 -0.5289
56671SOL    HW188005   6.257  10.691  12.144  0.9622  2.5305 -0.7214
56671SOL    HW288006   6.193  10.814  12.206 -2.5758  1.0319 -1.1489
56672SOL     OW88007   7.280   7.556   5.912 -0.0165 -0.4449  0.3270
56672SOL    HW188008   7.296   7.596   5.826 -1.9425 -0.0615  0.0827
56672SOL    HW288009   7.231   7.476   5.892  2.9052 -2.5488  0.8829
56673SOL     OW88010   2.232  13.741   4.757  0.4136 -0.2090  0.0200
56673SOL    HW188011   2.228  13.664   4.699 -0.3984 -0.4356  0.3517
56673SOL    HW288012   2.307  13.724   4.814 -0.8096 -1.6996  1.3225
56674SOL     OW88013   2.046   9.799  13.490  0.4305 -0.7141  0.5111
56674SOL    HW188014   2.132   9.827  13.460  0.5362 -0.4809  1.0189
56674SOL    HW288015   2.063   9.751  13.571  0.0648 -0.4111  0.7751
56675SOL     OW88016   4.072  13.537  12.593 -0.0322  0.0860 -0.6409
56675SOL    HW188017   4.010  13.476  12.633 -0.7243  0.7025 -0.7440
56675SOL    HW288018   4.098  13.495  12.511  0.6960 -0.7720  0.0245
56676SOL     OW88019   7.435   4.692  13.618 -0.1083 -0.4301  0.4293
56676SOL    HW188020   7.402   4.767  13.569  0.6935 -0.3707 -0.0498
56676SOL    HW288021   7.393   4.617  13.578  1.0750 -0.4506 -0.8868
56677SOL     OW88022   8.041   9.893  13.770  0.2856  0.2945  0.4723
56677SOL    HW188023   8.060   9.934  13.686 -0.8585 -1.7537 -0.8691
56677SOL    HW288024   8.118   9.912  13.824  1.1985  1.3806 -1.1340
56678SOL     OW88025   9.750  11.522   0.346 -0.3130 -0.7168  0.1123
56678SOL    HW188026   9.694  11.508   0.270 -2.3595  1.0928  1.1921
56678SOL    HW288027   9.690  11.525   0.420  1.5163 -1.4013  1.7191
56679SOL     OW88028   3.369  11.653   9.323  0.2537  0.4963  0.4806
56679SOL    HW188029   3.426  11.614   9.257  0.5318 -0.0279  1.0263
56679SOL    HW288030   3.285  11.609   9.310  0.6004 -0.3911  1.1761
56680SOL     OW88031   8.743   0.794   9.730 -0.1302 -0.2479 -0.0939
56680SOL    HW188032   8.752   0.803   9.825 -1.1614 -1.3039  0.1195
56680SOL    HW288033   8.832   0.773   9.700  0.0300 -0.8467  0.7575
56681SOL     OW88034   9.458   7.367   2.922  0.3809  0.2879 -0.0852
56681SOL    HW188035   9.436   7.360   2.829 -0.6909  1.1161  0.0811
56681SOL    HW288036   9.427   7.454   2.947  0.0907 -0.1559  1.1830
56682SOL     OW88037   4.455   5.919   1.659 -0.1804  0.1287 -0.6706
56682SOL    HW188038   4.531   5.924   1.602 -0.0886 -0.4216 -0.5953
56682SOL    HW288039   4.485   5.871   1.736 -0.5855 -0.0412 -0.6161
56683SOL     OW88040   5.012   2.508   3.569  0.3334  0.1125 -0.3786
56683SOL    HW188041   5.075   2.540   3.634 -0.4194  1.0960 -0.1081
56683SOL    HW288042   4.928   2.508   3.615  0.0027 -0.4534 -0.9656
56684SOL     OW88043   8.609   9.960   1.643  0.0693  0.7786  0.1761
56684SOL    HW188044   8.617   9.874   1.602  2.8976  1.3662 -0.7437
56684SOL    HW288045   8.700   9.991   1.652 -0.7997  3.2571  1.3721
56685SOL     OW88046   5.379   1.869  13.601  0.5565 -0.1290 -0.1864
56685SOL    HW188047   5.414   1.901  13.684 -0.3050 -1.1259  0.6060
56685SOL    HW288048   5.438   1.903  13.534  1.0663  0.9943  0.8037
56686SOL     OW88049   6.068  10.814   1.615 -0.1440  0.0896 -0.2421
56686SOL    HW188050   6.017  10.878   1.665 -2.4189 -0.6574 -1.4712
56686SOL    HW288051   6.102  10.753   1.681  1.1553  1.8740  0.8318
56687SOL     OW88052   4.982   1.983  12.848  0.0700 -0.3812  0.1177
56687SOL    HW188053   5.066   1.940  12.832 -0.7005 -3.7965  3.7664
56687SOL    HW288054   5.004   2.055  12.907  0.5585 -0.5664  0.1732
56688SOL     OW88055   3.433   4.242  12.845 -0.0755  0.2101  0.3623
56688SOL    HW188056   3.346   4.248  12.805  1.2636 -0.7027 -3.0696
56688SOL    HW288057   3.460   4.332  12.858 -1.3601  0.5074  1.2000
56689SOL     OW88058   8.568  12.436   4.082 -0.2854  0.3206 -0.3869
56689SOL    HW188059   8.621  12.472   4.153  0.3115 -1.8088  0.3222
56689SOL    HW288060   8.492  12.493   4.078  0.6219  1.6528  0.6300
56690SOL     OW88061   0.958   5.478   2.252 -0.1879 -0.3418  0.6766
56690SOL    HW188062   0.994   5.540   2.316 -1.6742  0.4300  0.8248
56690SOL    HW288063   1.035   5.438   2.211  0.9117  2.4826 -0.2800
56691SOL     OW88064   9.737  12.791  10.801  0.2950  0.4806  0.1849
56691SOL    HW188065   9.720  12.698  10.816 -1.8602  0.9771  1.2019
56691SOL    HW288066   9.723  12.832  10.887 -1.7915  2.0777 -0.8089
56692SOL     OW88067   9.428  12.235   1.847 -0.0327  0.5192 -0.4727
56692SOL    HW188068   9.515  12.216   1.883 -0.2938  1.6966  0.9060
56692SOL    HW288069   9.377  12.156   1.866  0.3145  0.4483  0.2183
56693SOL     OW88070  12.250   8.425   7.242  0.0937  0.0577 -0.2347
56693SOL    HW188071  12.202   8.406   7.162 -0.8904  0.6021  0.2087
56693SOL    HW288072  12.241   8.520   7.253 -0.7641 -0.1663  1.1283
56694SOL     OW88073   5.576  11.334  11.779  0.3874 -0.6802 -0.5775
56694SOL    HW188074   5.484  11.306  11.775  0.5489 -1.1956 -0.8010
56694SOL    HW288075   5.590  11.358  11.871 -0.2502  0.3869 -0.7368
56695SOL     OW88076  12.715   3.958   6.497 -0.4752 -0.4193 -0.3633
56695SOL    HW188077  12.656   3.955   6.572 -0.8946  0.0871 -0.6736
56695SOL    HW288078  12.794   4.000   6.531  0.1069 -1.9838  0.3143
56696SOL     OW88079   8.441  10.456   7.177 -0.1200 -0.5939 -0.4941
56696SOL    HW188080   8.467  10.528   7.119 -0.1672 -0.0202  0.1898
56696SOL    HW288081   8.522  10.427   7.218 -0.4633  1.3107  1.7718
56697SOL     OW88082  13.003  12.389   2.925  0.1346 -0.4010  0.4807
56697SOL    HW188083  13.054  12.461   2.888  0.0009 -0.8416 -0.5810
56697SOL    HW288084  12.917  12.395   2.884  0.0016 -0.9326  0.6622
56698SOL     OW88085   8.102  11.142  13.491  0.7536 -0.3273  0.9203
56698SOL    HW188086   8.088  11.172  13.401  0.8191  1.2253  1.4131
56698SOL    HW288087   8.101  11.046  13.484 -0.6764 -0.2452 -0.5129
56699SOL     OW88088   4.692  12.392  10.069  0.5515  0.1800  0.2109
56699SOL    HW188089   4.767  12.390  10.010  0.0458  0.7453 -0.4673
56699SOL    HW288090   4.646  12.310  10.051 -0.2275  0.8660 -1.0368
56700SOL     OW88091  10.976  11.495  12.396 -0.0917  0.5062  0.0039
56700SOL    HW188092  11.021  11.416  12.428  0.1378  0.3311 -0.7175
56700SOL    HW288093  10.900  11.504  12.452 -0.8558 -1.0118 -0.7191
56701SOL     OW88094   9.862  11.570  13.001  0.4252  0.2070 -0.6110
56701SOL    HW188095   9.796  11.505  13.024  0.9887  0.0539  0.6765
56701SOL    HW288096   9.939  11.545  13.052  0.6895  1.8147 -0.1660
56702SOL     OW88097   7.683   5.315   2.245  0.4129 -0.0109  0.0224
56702SOL    HW188098   7.698   5.221   2.252 -1.8147 -0.3120  3.5199
56702SOL    HW288099   7.614   5.324   2.179 -0.0628 -1.0043  0.3601
56703SOL     OW88100   4.614   6.724  12.764 -0.1373 -0.1206 -0.5894
56703SOL    HW188101   4.616   6.737  12.858 -1.2936 -2.2478 -0.1917
56703SOL    HW288102   4.706   6.723  12.737  0.2199 -0.0728  0.6029
56704SOL     OW88103   3.352  13.593  12.049  0.1967 -0.2194  0.5468
56704SOL    HW188104   3.439  13.632  12.048 -0.1150  0.5672  1.4560
56704SOL    HW288105   3.314  13.622  12.132 -0.9729 -0.4353  0.1134
56705SOL     OW88106   6.058   0.871  14.090  0.0194 -0.1341 -0.4407
56705SOL    HW188107   6.091   0.946  14.039  0.0806 -0.6570 -1.1847
56705SOL    HW288108   6.112   0.797  14.062  1.2521 -0.1046  1.7101
56706SOL     OW88109   1.595   8.789   0.126  0.5905 -0.0859  0.2822
56706SOL    HW188110   1.636   8.763   0.044  1.7406 -2.0246  1.3933
56706SOL    HW288111   1.665   8.830   0.176 -0.4244  2.3932 -0.1395
56707SOL     OW88112  13.883  10.411   9.255 -0.2971 -1.0864  0.1973
56707SOL    HW188113  13.891  10.430   9.349 -0.3613 -0.6646  0.1203
56707SOL    HW288114  13.880  10.315   9.250  0.5574 -1.1464  0.5577
56708SOL     OW88115   6.048   9.089   0.748 -0.6393 -0.0024 -0.3742
56708SOL    HW188116   6.128   9.138   0.726  0.6753 -1.9737 -0.2668
56708SOL    HW288117   6.051   9.079   0.843 -1.6575  0.8760 -0.2237
56709SOL     OW88118  11.734  13.255   0.172  0.3236  0.3928 -0.2936
56709SOL    HW188119  11.775  13.339   0.153  0.7006  0.3668  0.3573
56709SOL    HW288120  11.779  13.224   0.251  1.6421 -1.3692 -1.6558
56710SOL     OW88121   9.899   1.177   0.550  0.3156  0.2894 -0.5956
56710SOL    HW188122   9.827   1.116   0.566 -0.1559  0.8877 -0.4469
56710SOL    HW288123   9.899   1.235   0.626  0.3534  0.8852 -1.0431
56711SOL     OW88124  10.479   3.546   4.130  0.6026  0.5040  0.4271
56711SOL    HW188125  10.509   3.530   4.041  1.4983  0.3197  0.7547
56711SOL    HW288126  10.512   3.472   4.181 -0.8170  0.0432  0.7259
56712SOL     OW88127   0.330  10.668   9.099 -0.1172 -0.3572 -0.2768
56712SOL    HW188128   0.401  10.623   9.054 -1.7466  0.6971 -4.3820
56712SOL    HW288129   0.252  10.619   9.075 -1.4620  2.2708 -1.6374
56713SOL     OW88130   5.879   4.906  12.396 -1.2594 -0.1034  0.0324
56713SOL    HW188131   5.898   4.939  12.309 -1.6092 -0.8305 -0.3247
56713SOL    HW288132   5.813   4.966  12.431  0.6849  1.7135  0.8104
56714SOL     OW88133   6.651   8.197  10.062  0.1329 -0.2393  0.5583
56714SOL    HW188134   6.691   8.185  10.148  1.5565  0.1997 -0.0093
56714SOL    HW288135   6.716   8.247  10.012 -1.8723  2.1185  0.1094
56715SOL     OW88136  13.199   7.600   2.598  0.2596 -0.3551  0.4300
56715SOL    HW188137  13.186   7.578   2.506  0.3287  3.4234 -0.6519
56715SOL    HW288138  13.215   7.516   2.641  0.5218 -2.2456 -3.0237
56716SOL     OW88139   5.701  14.015  10.446  0.7539 -0.5782  0.4769
56716SOL    HW188140   5.709  13.920  10.439  1.0121 -0.6230  1.2220
56716SOL    HW288141   5.772  14.049  10.392  1.0527 -0.8280  0.7048
56717SOL     OW88142   3.313   6.501  12.453  0.7188  0.0092 -0.1747
56717SOL    HW188143   3.276   6.587  12.472 -0.2545 -0.0668 -1.6066
56717SOL    HW288144   3.237   6.443  12.446  1.1180 -0.3626 -2.1416
56718SOL     OW88145   0.205   3.631  12.006  0.0551 -0.1921 -0.4808
56718SOL    HW188146   0.111   3.616  12.016  0.3415 -1.6311  0.4517
56718SOL    HW288147   0.236   3.554  11.958  0.7422  0.3261 -0.8806
56719SOL     OW88148  13.399  11.168   7.530  0.5219  0.5034  0.1867
56719SOL    HW188149  13.462  11.117   7.478  0.3212  0.8238 -0.3769
56719SOL    HW288150  13.450  11.241   7.565  0.9857 -0.4579  1.6049
56720SOL     OW88151  12.750  12.081  11.192 -0.1465 -0.2260  0.3733
56720SOL    HW188152  12.764  12.167  11.231  1.3114  0.0482 -0.6580
56720SOL    HW288153  12.776  12.019  11.261 -0.7473  0.1474  0.9520
56721SOL     OW88154   8.459   7.390  12.606 -0.3537  0.2261  0.3554
56721SOL    HW188155   8.451   7.485  12.609  0.5775  0.3282 -0.0654
56721SOL    HW288156   8.514   7.368  12.681  1.0517  0.2291 -0.6294
56722SOL     OW88157   1.766   9.143  13.185 -0.1671  0.0537  0.4146
56722SOL    HW188158   1.699   9.112  13.246 -1.0521  0.6043 -0.2459
56722SOL    HW288159   1.738   9.111  13.100 -1.2017  2.6486 -0.3328
56723SOL     OW88160   9.622  10.245  13.409 -0.3826  0.4188  0.0520
56723SOL    HW188161   9.645  10.336  13.426 -0.4675  0.2727  0.9903
56723SOL    HW288162   9.569  10.218  13.484  1.2494 -0.9608  0.8142
56724SOL     OW88163   9.829   4.734   5.325 -0.4487  0.0382 -0.0720
56724SOL    HW188164   9.858   4.758   5.237 -1.8334  0.2408 -0.4919
56724SOL    HW288165   9.832   4.815   5.375 -3.5148  0.8786 -1.0452
56725SOL     OW88166   0.535  10.926   9.509 -0.3217  0.0714 -0.3701
56725SOL    HW188167   0.629  10.911   9.512  0.0537  1.9570 -1.0065
56725SOL    HW288168   0.497  10.841   9.487  0.9768 -1.3502  2.3956
56726SOL     OW88169   1.490  11.392   5.066 -0.2868  0.5084  0.5839
56726SOL    HW188170   1.521  11.471   5.021  2.1261 -0.7355 -0.0782
56726SOL    HW288171   1.548  11.323   5.036 -1.1699 -1.1936  2.5746
56727SOL     OW88172   0.901   3.240   4.941  0.3740 -0.5037 -0.4248
56727SOL    HW188173   0.855   3.324   4.947  1.0307 -0.2300  1.3158
56727SOL    HW288174   0.836   3.175   4.970  1.1054 -0.0725  2.4420
56728SOL     OW88175   8.178  13.000   3.450 -0.6623 -0.0619  0.1394
56728SOL    HW188176   8.151  13.020   3.540 -1.1407  0.4495 -0.1072
56728SOL    HW288177   8.218  12.914   3.455 -0.4812  0.0587  0.8839
56729SOL     OW88178   0.710   6.687   8.903 -0.1283  1.1124 -0.4035
56729SOL    HW188179   0.674   6.662   8.988  3.7011 -1.4387  0.6882
56729SOL    HW288180   0.685   6.616   8.844  1.1376  0.4579 -0.1794
56730SOL     OW88181   4.546   9.433   6.462 -0.2425  0.2595 -0.3462
56730SOL    HW188182   4.594   9.470   6.536  1.7998 -0.9200 -1.0101
56730SOL    HW288183   4.454   9.455   6.480  0.3371  1.2155  1.7926
56731SOL     OW88184  10.290   8.955   3.949  0.3157 -0.4784 -0.1370
56731SOL    HW188185  10.335   8.945   3.866 -0.0096 -1.1407 -0.2384
56731SOL    HW288186  10.331   8.891   4.007 -0.7123 -1.3366 -0.3287
56732SOL     OW88187  11.039   7.686   6.199 -0.2280 -0.0812  0.0153
56732SOL    HW188188  11.085   7.611   6.161  1.6080  0.6192  0.7513
56732SOL    HW288189  11.047   7.755   6.133 -1.6521 -0.4221 -0.5329
56733SOL     OW88190   8.141   4.297   6.793  0.0982  0.1708  0.1631
56733SOL    HW188191   8.108   4.209   6.814 -0.0542  0.6966  2.3266
56733SOL    HW288192   8.099   4.319   6.710 -0.0615 -1.6980 -0.2900
56734SOL     OW88193  12.558   7.210   8.299  0.4046  0.2624  0.3102
56734SOL    HW188194  12.587   7.290   8.255  0.9038 -0.5608 -0.9049
56734SOL    HW288195  12.495   7.171   8.239 -0.0343 -0.1309  1.0153
56735SOL     OW88196   1.867   0.102  14.004 -0.6362 -0.2387 -0.0443
56735SOL    HW188197   1.880   0.189  13.965 -0.7646 -0.0293  0.3767
56735SOL    HW288198   1.781   0.075  13.972 -0.5057 -0.3037 -0.3461
56736SOL     OW88199   1.226  10.706  10.695 -0.2551  0.4725 -0.3125
56736SOL    HW188200   1.312  10.748  10.695  0.1424 -0.2333 -2.6832
56736SOL    HW288201   1.239  10.625  10.647 -2.3219  0.5022 -1.0138
56737SOL     OW88202  13.420   0.683   7.311  0.5841  0.8679  0.0300
56737SOL    HW188203  13.335   0.727   7.306 -0.6387 -1.0230  2.0863
56737SOL    HW288204  13.444   0.666   7.220 -1.2151  1.5251 -0.5988
56738SOL     OW88205   7.167   8.767   2.173  0.4613  0.4030  0.0805
56738SOL    HW188206   7.083   8.723   2.176  1.8351 -2.5002 -0.1397
56738SOL    HW288207   7.188   8.785   2.265  1.1909 -2.4229  0.5864
56739SOL     OW88208   1.075   5.772   7.645  0.5025 -0.4493  0.0963
56739SOL    HW188209   1.090   5.816   7.729 -1.5527 -0.9655  0.7900
56739SOL    HW288210   0.986   5.797   7.621  1.4298  0.6437 -2.5625
56740SOL     OW88211   2.206  10.120   4.009 -0.7687  0.1298  0.2913
56740SOL    HW188212   2.279  10.079   4.056 -2.5589 -1.6559  1.6769
56740SOL    HW288213   2.204  10.210   4.043  0.2942 -0.0118  0.7990
56741SOL     OW88214   2.681  11.503  10.802  0.0884 -0.7682  0.3735
56741SOL    HW188215   2.702  11.430  10.743  1.0625 -0.4776  0.3475
56741SOL    HW288216   2.586  11.512  10.797  0.0979 -1.1892 -0.6274
56742SOL     OW88217  10.061  10.784   3.733 -0.0380  0.0362 -0.3858
56742SOL    HW188218  10.116  10.858   3.758 -0.6527  0.1241  0.8111
56742SOL    HW288219  10.002  10.773   3.808 -1.5239 -0.1580 -1.5456
56743SOL     OW88220   0.351  11.960  13.300  0.1535  0.2599 -0.6355
56743SOL    HW188221   0.311  11.880  13.265  0.7394  0.3223 -1.4671
56743SOL    HW288222   0.444  11.952  13.278  0.5073  0.4310  0.6727
56744SOL     OW88223   5.863   9.635   6.795 -0.2365  0.5962  0.4554
56744SOL    HW188224   5.941   9.602   6.839 -2.1966 -1.5223  2.6202
56744SOL    HW288225   5.833   9.707   6.850  0.3873  1.7222 -0.6303
56745SOL     OW88226  12.869   4.032  12.213  0.3227 -0.1459  0.0546
56745SOL    HW188227  12.954   3.989  12.205  0.1739 -0.7052  1.3255
56745SOL    HW288228  12.877   4.088  12.289 -0.1647  0.5053 -0.3598
56746SOL     OW88229  14.129  13.060   9.834 -0.3566  0.7982 -0.4418
56746SOL    HW188230  14.056  13.036   9.778 -0.2944  1.4519 -0.8140
56746SOL    HW288231  14.206  13.055   9.777  0.2185 -1.8539  0.4177
56747SOL     OW88232  13.176   5.969   0.584  0.0054  0.2382 -0.7249
56747SOL    HW188233  13.158   5.967   0.678  0.1349 -0.3762 -0.7156
56747SOL    HW288234  13.090   5.961   0.543  0.1049 -1.2325 -0.6685
56748SOL     OW88235   5.526   3.270   3.084  0.0503 -0.3053 -0.0440
56748SOL    HW188236   5.544   3.195   3.140  0.2177 -0.3162 -0.1119
56748SOL    HW288237   5.452   3.314   3.126  0.2790 -0.2236  0.2749
56749SOL     OW88238  10.936   8.079  12.897 -0.1248  0.1014 -0.3374
56749SOL    HW188239  10.899   8.107  12.981 -1.0345 -1.1810 -0.2872
56749SOL    HW288240  11.023   8.045  12.919  0.6639  2.0267 -0.2893
56750SOL     OW88241   6.983   9.342   8.849 -0.2284  0.7412 -0.0720
56750SOL    HW188242   7.041   9.275   8.886 -0.4031  0.2122 -0.7641
56750SOL    HW288243   6.955   9.393   8.926 -1.4550 -0.9982  0.7070
56751SOL     OW88244  10.620   9.612   5.362  0.7698  0.5623 -0.1866
56751SOL    HW188245  10.623   9.622   5.457  0.4424  0.2871 -0.1464
56751SOL    HW288246  10.603   9.700   5.329  1.2518  0.7280 -0.0128
56752SOL     OW88247   2.064  10.818   8.876  0.5038 -0.2003  0.3930
56752SOL    HW188248   1.994  10.882   8.860 -0.0239 -0.6990  0.6484
56752SOL    HW288249   2.105  10.806   8.791 -0.3445 -0.6077  0.0269
56753SOL     OW88250   6.807   0.138  12.428  0.2289  0.0310 -0.1573
56753SOL    HW188251   6.783   0.154  12.337 -0.6491  2.2033  0.3919
56753SOL    HW288252   6.787   0.045  12.442 -2.1804  0.2897 -1.4287
56754SOL     OW88253  12.216  13.260  13.590 -0.2072  0.0678  0.3192
56754SOL    HW188254  12.125  13.291  13.584 -0.3303 -0.2527  0.4927
56754SOL    HW288255  12.246  13.256  13.499 -0.5417 -0.3353  0.2254
56755SOL     OW88256  12.044   1.113   2.510 -0.0030  0.6184  0.2099
56755SOL    HW188257  12.030   1.203   2.481 -1.4385 -0.3487 -2.3898
56755SOL    HW288258  11.957   1.085   2.541 -0.8785 -1.2500 -3.4433
56756SOL     OW88259   3.381   0.202   1.370 -0.2570 -0.1644 -0.2246
56756SOL    HW188260   3.459   0.233   1.323  1.9274 -1.9751  1.9116
56756SOL    HW288261   3.347   0.279   1.414 -0.2031  0.8194 -1.8320
56757SOL     OW88262  12.661   9.343   7.690  0.0736  0.5142 -0.2177
56757SOL    HW188263  12.567   9.361   7.692 -0.2376 -1.0105  0.3264
56757SOL    HW288264  12.692   9.389   7.612 -0.6987  2.8086  0.7268
56758SOL     OW88265  12.979   0.905   4.223 -0.0724 -0.2437 -0.2885
56758SOL    HW188266  12.959   0.976   4.163 -0.8935 -0.9864 -0.9195
56758SOL    HW288267  13.017   0.836   4.168 -1.5148 -1.2226 -0.1307
56759SOL     OW88268  13.743   5.632   3.757 -0.0519 -0.1692 -0.7314
56759SOL    HW188269  13.777   5.584   3.681  1.5777 -1.0022  0.4680
56759SOL    HW288270  13.797   5.602   3.830 -0.5810  1.7382  0.4974
56760SOL     OW88271   4.049  10.820   1.886  0.5250  0.0515  0.0113
56760SOL    HW188272   4.034  10.755   1.818  1.8331 -1.2155  0.8852
56760SOL    HW288273   3.991  10.893   1.863 -1.7085 -1.7844 -0.4535
56761SOL     OW88274  13.399  11.960   8.427  0.1063 -0.0719 -0.3862
56761SOL    HW188275  13.439  11.972   8.513 -1.8559 -1.4941  0.8167
56761SOL    HW288276  13.460  11.902   8.380  0.2962 -0.8257  0.7546
56762SOL     OW88277   8.254   8.309  11.162  0.3653  0.4617  0.0832
56762SOL    HW188278   8.286   8.337  11.248 -0.5611  2.1731 -0.0828
56762SOL    HW288279   8.164   8.341  11.158  0.8206  1.7519 -2.0541
56763SOL     OW88280   3.400  10.769   2.803 -0.3658  0.5095  0.2434
56763SOL    HW188281   3.402  10.736   2.713  0.0145  0.2357  0.3512
56763SOL    HW288282   3.448  10.704   2.854  2.1002  2.0852  0.1567
56764SOL     OW88283   9.320   4.871   6.894 -0.2916 -0.1458 -0.1520
56764SOL    HW188284   9.376   4.949   6.884  0.2675 -0.3371  1.2619
56764SOL    HW288285   9.286   4.855   6.806  0.3334  1.1381 -0.6584
56765SOL     OW88286   2.084   0.808   1.787 -0.4054  0.7187 -0.0372
56765SOL    HW188287   2.174   0.778   1.772 -0.6486 -0.2321  0.3843
56765SOL    HW288288   2.030   0.730   1.779 -1.4256  1.5267 -1.9955
56766SOL     OW88289   2.676   7.031   4.912 -0.5929 -0.2898 -0.1981
56766SOL    HW188290   2.727   6.949   4.910  0.7134  0.5051 -0.5831
56766SOL    HW288291   2.660   7.051   4.819  3.1697  2.2816 -0.4915
56767SOL     OW88292   1.407   7.113   9.589  0.5114  0.5552 -0.2096
56767SOL    HW188293   1.470   7.184   9.596  0.6315  0.5946 -1.4678
56767SOL    HW288294   1.424   7.075   9.502  1.7011 -2.1826  1.1074
56768SOL     OW88295  12.533   9.489  11.760 -0.0007 -0.3003 -0.6468
56768SOL    HW188296  12.607   9.478  11.700 -0.1345  0.0680 -0.8858
56768SOL    HW288297  12.456   9.479  11.705 -0.1280  0.7913 -0.6974
56769SOL     OW88298  12.643  13.272   6.565  0.1931 -0.5659 -0.7710
56769SOL    HW188299  12.603  13.359   6.562  1.4707  0.0648 -0.0591
56769SOL    HW288300  12.592  13.224   6.631 -0.0876 -0.1441 -0.6817
56770SOL     OW88301   3.413   7.061   2.891 -0.1755  0.2798 -0.0159
56770SOL    HW188302   3.320   7.049   2.909 -0.0638  1.2547  1.3603
56770SOL    HW288303   3.417   7.084   2.798 -1.2078 -0.6077 -0.3056
56771SOL     OW88304  10.475   2.107  11.997 -0.0096  0.6633 -0.3594
56771SOL    HW188305  10.414   2.085  11.928  0.4147 -1.8894 -0.0331
56771SOL    HW288306  10.518   2.024  12.019  1.7666  1.8737  1.1406
56772SOL     OW88307  10.105   8.739   3.367  0.3496  0.0816 -0.1744
56772SOL    HW188308  10.058   8.656   3.370  0.5842 -0.0276  0.4788
56772SOL    HW288309  10.197   8.715   3.369  0.4208  0.3902  1.0979
56773SOL     OW88310   1.814   2.776   1.956 -0.0802  0.3792  0.4451
56773SOL    HW188311   1.770   2.730   2.028 -0.5188  0.8784  0.5045
56773SOL    HW288312   1.906   2.752   1.964 -0.4615 -1.4602 -0.2494
56774SOL     OW88313  13.273   6.172   1.394 -0.0523  0.4455 -0.2141
56774SOL    HW188314  13.307   6.088   1.363  0.7736  0.0542  1.6113
56774SOL    HW288315  13.244   6.154   1.484 -3.1376  1.2876 -0.9154
56775SOL     OW88316   7.225  13.561   3.602  0.8135  0.9146  0.0815
56775SOL    HW188317   7.186  13.492   3.549  2.2195 -0.1523  0.3768
56775SOL    HW288318   7.159  13.580   3.669  2.2106 -4.0955  3.4632
56776SOL     OW88319   0.740   2.130   2.754 -0.7105 -0.2954 -0.0526
56776SOL    HW188320   0.742   2.110   2.661 -1.2533 -0.5228 -0.0187
56776SOL    HW288321   0.758   2.223   2.760  0.3103 -0.4689 -0.3202
56777SOL     OW88322  11.319   0.427   4.702  0.3365  0.1049 -0.2936
56777SOL    HW188323  11.252   0.473   4.752 -1.0858 -0.1343 -1.8708
56777SOL    HW288324  11.369   0.378   4.767 -1.5302 -0.3478  0.8733
56778SOL     OW88325   3.894   0.382  13.250 -0.1540 -0.2783  0.2040
56778SOL    HW188326   3.938   0.392  13.334  0.2294 -0.8328  0.0724
56778SOL    HW288327   3.816   0.437  13.257  0.8592  1.2213  0.2158
56779SOL     OW88328  13.177   9.395   9.341  0.4226 -0.2647  0.0528
56779SOL    HW188329  13.210   9.330   9.404  0.0330 -0.3171  0.2072
56779SOL    HW288330  13.152   9.470   9.395  3.1977  1.0451 -0.3211
56780SOL     OW88331   1.588  13.482  10.836 -0.1389 -0.1023 -0.3595
56780SOL    HW188332   1.569  13.575  10.842  1.0098  0.1003  0.3325
56780SOL    HW288333   1.508  13.444  10.800  0.0226  1.3909 -2.4685
56781SOL     OW88334   9.899  10.248   3.906  0.1870 -0.3668 -0.3966
56781SOL    HW188335   9.849  10.185   3.855 -0.4701 -0.9770  0.9491
56781SOL    HW288336   9.842  10.272   3.979  1.5999 -0.6084  0.8447
56782SOL     OW88337   6.120  11.850   7.920  0.2985 -0.1213  0.0314
56782SOL    HW188338   6.102  11.769   7.969  1.9064 -0.4373  0.1620
56782SOL    HW288339   6.065  11.916   7.962 -0.6509 -1.0361  0.2606
56783SOL     OW88340   0.107   2.390  12.038 -0.0289 -0.4680 -0.4889
56783SOL    HW188341   0.179   2.330  12.018  0.1942  0.1726 -1.6845
56783SOL    HW288342   0.089   2.376  12.131 -0.1446 -2.5398 -0.7905
56784SOL     OW88343  12.134  12.099   2.750  0.1004  0.2027  0.7651
56784SOL    HW188344  12.143  12.183   2.794  0.2472 -0.3464  1.8349
56784SOL    HW288345  12.188  12.039   2.802  0.4991 -0.4310 -0.3300
56785SOL     OW88346   7.611  12.141   9.373 -0.0924  0.1728 -0.7518
56785SOL    HW188347   7.615  12.058   9.325 -0.3212  0.0205 -0.5102
56785SOL    HW288348   7.621  12.208   9.305  1.1815 -0.0655 -0.8200
56786SOL     OW88349   8.325  11.052   9.805  0.2999 -0.3592 -0.5566
56786SOL    HW188350   8.398  10.993   9.786  1.1548  0.5409 -0.1683
56786SOL    HW288351   8.264  10.999   9.856  0.8444 -1.0314 -0.5825
56787SOL     OW88352  10.317   8.961   2.071 -0.0571 -0.2958 -0.0779
56787SOL    HW188353  10.224   8.984   2.061 -0.5108 -1.3602  1.3686
56787SOL    HW288354  10.354   8.976   1.985 -1.7301 -0.5134 -0.8821
56788SOL     OW88355   1.063  10.881  10.279  0.5427  0.1803 -0.0514
56788SOL    HW188356   1.152  10.852  10.301  0.2550  0.3530  1.4205
56788SOL    HW288357   1.012  10.865  10.358 -0.1758  2.4551 -0.0024
56789SOL     OW88358   3.727   8.853   8.698 -0.1237  0.3081  0.0380
56789SOL    HW188359   3.765   8.896   8.774 -0.4647 -0.0706  0.4224
56789SOL    HW288360   3.749   8.911   8.624 -2.3393  2.2686  0.7940
56790SOL     OW88361   7.509  11.877   6.603 -0.0858  0.2742  0.4050
56790SOL    HW188362   7.532  11.925   6.682  2.9987 -1.3538  0.6526
56790SOL    HW288363   7.497  11.787   6.632 -1.3896  0.0774 -0.6589
56791SOL     OW88364  11.446   6.986   2.150  0.7066 -0.3701 -0.4607
56791SOL    HW188365  11.417   6.897   2.170  1.1408 -0.7763 -1.5750
56791SOL    HW288366  11.365   7.037   2.142  0.4108 -0.8930 -0.8108
56792SOL     OW88367   7.428   9.263   2.215 -0.6962  0.3834  0.0974
56792SOL    HW188368   7.424   9.171   2.189 -1.4084  0.5761 -0.5070
56792SOL    HW288369   7.509   9.270   2.265 -1.4145 -0.9146  1.5129
56793SOL     OW88370   9.509   3.296   6.013  0.4635 -0.1152  0.0583
56793SOL    HW188371   9.541   3.373   5.965  2.2427 -1.0057 -0.2984
56793SOL    HW288372   9.420   3.284   5.981  0.2210  1.6446 -0.0481
56794SOL     OW88373   9.607   8.474   1.989  0.1310 -0.0720  0.2953
56794SOL    HW188374   9.520   8.435   2.001 -0.4353  0.9236 -0.4329
56794SOL    HW288375   9.656   8.409   1.940 -0.9038  0.2381 -1.1942
56795SOL     OW88376   7.555   4.414  14.062 -0.6904 -0.2748  1.3038
56795SOL    HW188377   7.561   4.464  13.981 -1.3218 -2.4461 -0.1907
56795SOL    HW288378   7.585   4.474  14.131 -1.1363  1.9854 -0.3687
56796SOL     OW88379   6.434   5.093   1.459 -0.3381  0.3878  0.1314
56796SOL    HW188380   6.434   5.052   1.545 -0.7609 -0.0333 -0.0657
56796SOL    HW288381   6.375   5.039   1.407  0.4305  0.2358 -0.6079
56797SOL     OW88382  11.074   3.826   8.402  0.1789 -0.7324 -0.6443
56797SOL    HW188383  11.134   3.797   8.334  2.6835  3.1995 -0.3853
56797SOL    HW288384  11.025   3.898   8.362  1.8487  1.8118  1.5862
56798SOL     OW88385  10.518   0.845  12.275  1.0884  0.0588  0.0946
56798SOL    HW188386  10.531   0.768  12.219  0.6274  0.5001 -0.6381
56798SOL    HW288387  10.450   0.819  12.337  1.3617 -0.3204  0.2382
56799SOL     OW88388   3.921  12.358  13.164 -0.2893  0.1377  0.3495
56799SOL    HW188389   3.942  12.276  13.209 -0.2231 -0.0498 -0.0206
56799SOL    HW288390   3.893  12.332  13.077 -1.6477  0.4158  0.6838
56800SOL     OW88391  10.677   9.822   0.529 -0.2598 -0.0735 -0.3323
56800SOL    HW188392  10.632   9.741   0.508 -0.1345 -0.4548  0.7947
56800SOL    HW288393  10.768   9.795   0.546  0.0855  0.4878 -1.1802
56801SOL     OW88394  10.007   3.292   7.773  0.1835 -0.0159  0.0255
56801SOL    HW188395  10.062   3.304   7.850  1.0897 -1.1018 -0.4247
56801SOL    HW288396  10.062   3.322   7.700 -1.2746  2.6872 -0.0981
56802SOL     OW88397   0.463   4.003   6.874 -0.4232 -0.7194 -0.4448
56802SOL    HW188398   0.508   3.971   6.952  0.0173 -1.1776 -0.8800
56802SOL    HW288399   0.471   3.932   6.810 -1.1491 -0.5186 -0.7668
56803SOL     OW88400   8.339   1.629   5.630  0.6705  0.1293  0.4093
56803SOL    HW188401   8.363   1.538   5.649  4.1673  1.1473  1.7003
56803SOL    HW288402   8.295   1.625   5.545  1.2790 -2.6956  0.1153
56804SOL     OW88403  10.802  13.280   2.517  0.0314 -0.7534 -0.9791
56804SOL    HW188404  10.716  13.308   2.549  1.4734  0.1549  2.5070
56804SOL    HW288405  10.849  13.361   2.497  1.4957 -0.9225  1.4139
56805SOL     OW88406   9.439  10.203   0.906  0.1118 -0.2644 -0.2778
56805SOL    HW188407   9.498  10.132   0.932  0.9598 -0.0710 -1.5698
56805SOL    HW288408   9.445  10.206   0.811 -0.7713  0.8234 -0.3282
56806SOL     OW88409  12.979  11.676  13.435 -0.2430  0.2149  0.1662
56806SOL    HW188410  12.906  11.641  13.384  0.4654 -0.0644 -0.6854
56806SOL    HW288411  12.981  11.624  13.514 -0.5522 -0.2224 -0.1108
56807SOL     OW88412   5.556   0.308  11.058  0.0262 -0.1701 -0.1313
56807SOL    HW188413   5.527   0.219  11.079  0.2516 -0.6359 -1.6579
56807SOL    HW288414   5.486   0.345  11.005  0.3220  0.2429 -0.2415
56808SOL     OW88415   5.521   7.618   3.528  0.3959 -0.4843 -0.1025
56808SOL    HW188416   5.463   7.592   3.457  1.2106  0.7796 -1.2740
56808SOL    HW288417   5.463   7.635   3.602 -0.8986  1.6294 -1.4983
56809SOL     OW88418   7.378  13.783   7.735 -0.3961  0.6751 -0.2224
56809SOL    HW188419   7.360  13.697   7.696  0.7230 -1.6649  3.8487
56809SOL    HW288420   7.472  13.783   7.751 -0.5212  2.2652  0.6940
56810SOL     OW88421   0.619   2.072   6.351  0.4486 -0.1038 -0.2430
56810SOL    HW188422   0.634   1.989   6.306  0.2592 -0.0820 -0.3473
56810SOL    HW288423   0.639   2.053   6.443 -1.1656 -0.7150  0.0186
56811SOL     OW88424   2.559   8.340  12.003  0.6107 -0.2688 -0.2488
56811SOL    HW188425   2.570   8.429  12.035 -1.8901 -0.0124  0.0866
56811SOL    HW288426   2.607   8.286  12.066  0.5436  0.6943  0.6575
56812SOL     OW88427   4.350   3.445   3.134 -0.2586 -0.0006  0.0798
56812SOL    HW188428   4.325   3.402   3.217 -1.7108  1.0896  0.2238
56812SOL    HW288429   4.307   3.530   3.137  1.9082  1.1834 -0.5829
56813SOL     OW88430   2.291   3.667  13.966 -0.5528 -0.5463 -0.3576
56813SOL    HW188431   2.331   3.718  14.035  0.7132 -2.0387  0.0710
56813SOL    HW288432   2.234   3.729  13.920 -0.7761  0.6851  1.4589
56814SOL     OW88433   8.962   9.178   3.134  0.3113  0.0847  0.7287
56814SOL    HW188434   9.030   9.159   3.199 -0.2647 -2.3918  0.7379
56814SOL    HW288435   8.993   9.136   3.054  0.3457  1.8750 -0.2391
56815SOL     OW88436  14.080  13.547  13.617  0.2014 -0.1882 -0.4674
56815SOL    HW188437  14.098  13.592  13.700 -1.4879 -0.5145  0.1052
56815SOL    HW288438  14.099  13.455  13.635 -1.4520 -0.4741  0.0224
56816SOL     OW88439  10.657  12.663  10.960  0.5004 -0.0238  0.5369
56816SOL    HW188440  10.671  12.614  11.041  2.1479  0.8338  0.8097
56816SOL    HW288441  10.711  12.619  10.895  3.2890  2.1693  1.1394
56817SOL     OW88442   0.190   2.246  11.024 -0.6896  0.2849 -0.6203
56817SOL    HW188443   0.228   2.285  10.945  1.3450 -1.5996 -0.6932
56817SOL    HW288444   0.190   2.152  11.007 -0.5235 -0.1578  1.4558
56818SOL     OW88445  10.634   6.235   0.930  0.1782  0.0947  0.0946
56818SOL    HW188446  10.668   6.189   0.853  2.5978  0.2104  0.9829
56818SOL    HW288447  10.543   6.207   0.937 -0.0973  0.0399 -2.7442
56819SOL     OW88448   1.327  12.707  12.788 -0.3766  0.2397  0.1601
56819SOL    HW188449   1.346  12.675  12.877  1.4846 -1.0208 -0.6366
56819SOL    HW288450   1.235  12.681  12.774 -0.8975  0.9615  1.8845
56820SOL     OW88451  12.779   6.126   0.565  0.0507 -0.9816  0.0848
56820SOL    HW188452  12.847   6.170   0.616  0.5672 -0.8363 -0.7171
56820SOL    HW288453  12.824   6.097   0.486 -0.4663 -2.2701  0.2481
56821SOL     OW88454   3.989   5.310  10.426 -0.3432 -0.2048 -0.0032
56821SOL    HW188455   4.059   5.275  10.371  0.3078  0.6249  0.2612
56821SOL    HW288456   4.035   5.349  10.501 -1.1814 -0.8982  0.8937
56822SOL     OW88457   9.253   0.517   2.441  0.0355 -0.1096  0.0865
56822SOL    HW188458   9.259   0.577   2.367  1.1192  1.0886  1.1034
56822SOL    HW288459   9.293   0.436   2.410 -0.8702 -0.1174 -1.1035
56823SOL     OW88460  11.060   9.780   3.302 -0.0621  0.0820 -0.1242
56823SOL    HW188461  11.063   9.754   3.394 -1.5780 -0.0334 -0.0769
56823SOL    HW288462  11.046   9.698   3.255 -0.2916  0.2578 -0.3660
56824SOL     OW88463   9.549   5.900   1.529  0.3565 -0.4813  0.4524
56824SOL    HW188464   9.533   5.808   1.509  2.5268 -1.0698  1.2349
56824SOL    HW288465   9.643   5.906   1.546  0.3541  1.9681  0.0040
56825SOL     OW88466   1.787   9.469  11.792  0.1691  0.4412 -0.2177
56825SOL    HW188467   1.883   9.474  11.798  0.2888 -1.9428  1.2622
56825SOL    HW288468   1.771   9.439  11.703  1.0240 -1.5063  0.2210
56826SOL     OW88469  11.480   4.833   3.973  0.1189 -0.0068 -0.1431
56826SOL    HW188470  11.420   4.784   3.917 -0.1212  0.9823 -0.7860
56826SOL    HW288471  11.561   4.782   3.972 -0.9012 -1.7308  1.3197
56827SOL     OW88472   8.993  12.658  14.010  0.4161 -0.5157  0.3847
56827SOL    HW188473   9.043  12.739  14.011 -0.8413  0.2994 -0.0964
56827SOL    HW288474   9.040  12.600  14.069  2.9031 -0.4256 -1.3757
56828SOL     OW88475  10.903   8.556  12.920  0.5759  0.5171 -0.7247
56828SOL    HW188476  10.819   8.512  12.929  0.2024  1.0644 -1.4232
56828SOL    HW288477  10.910   8.612  12.998  0.9156 -0.5278  0.0084
56829SOL     OW88478  10.645   8.164   8.638  0.0620 -0.7214 -0.0422
56829SOL    HW188479  10.731   8.131   8.664  0.3213 -0.0851 -0.0897
56829SOL    HW288480  10.603   8.088   8.596  0.0348 -1.4563  1.2784
56830SOL     OW88481   5.403  11.085   5.977 -0.3072 -0.1247 -0.0433
56830SOL    HW188482   5.421  10.992   5.982 -1.1231 -0.3400 -0.8207
56830SOL    HW288483   5.318  11.095   6.019  0.0459  0.3609  0.5661
56831SOL     OW88484   3.831   6.723   8.324 -0.2855 -0.1722 -0.1335
56831SOL    HW188485   3.855   6.813   8.348 -2.6351  1.0332 -1.8747
56831SOL    HW288486   3.737   6.727   8.307 -0.8919 -3.4377  1.5639
56832SOL     OW88487   3.686  10.328   5.036 -0.0170  0.4142 -0.2494
56832SOL    HW188488   3.743  10.394   5.075  0.1274  1.1396 -1.6385
56832SOL    HW288489   3.745  10.255   5.015 -0.2685 -0.4422  1.8047
56833SOL     OW88490  11.754  10.638   6.803  0.1739  0.1520 -0.3270
56833SOL    HW188491  11.715  10.587   6.732 -1.1463  1.7662 -0.8121
56833SOL    HW288492  11.680  10.686   6.841  1.1122  0.4723  1.1603
56834SOL     OW88493   5.047  13.488  11.821 -0.1334  0.5036 -0.0935
56834SOL    HW188494   5.006  13.488  11.907  0.1267  2.3082  0.0800
56834SOL    HW288495   4.975  13.491  11.759 -0.3159 -0.5615  0.0492
56835SOL     OW88496   7.929  12.526  13.225 -0.0020 -0.3786  0.3139
56835SOL    HW188497   7.962  12.533  13.315 -0.7118  2.1615  0.4566
56835SOL    HW288498   8.003  12.493  13.175  0.9343 -0.2829  1.5751
56836SOL     OW88499  12.886  11.641   1.352  0.1243  0.1160  0.5030
56836SOL    HW188500  12.795  11.612   1.354 -0.0273  0.4717 -0.4877
56836SOL    HW288501  12.919  11.627   1.441  0.2806 -3.7310  0.0009
56837SOL     OW88502  10.193   6.891   9.321  0.6205 -0.5436  0.2845
56837SOL    HW188503  10.210   6.825   9.389  1.4597  0.7651  1.4137
56837SOL    HW288504  10.276   6.938   9.313  0.2034  0.0178 -0.8984
56838SOL     OW88505  13.143   3.052   6.711  0.2442 -0.0489 -0.0149
56838SOL    HW188506  13.068   3.014   6.665 -0.0304  0.6351 -0.1414
56838SOL    HW288507  13.151   3.000   6.791 -0.3503 -0.1347 -0.0077
56839SOL     OW88508   5.293   4.445   4.700  0.3644  0.0886  0.1819
56839SOL    HW188509   5.292   4.496   4.619  1.1791 -0.5304 -0.2355
56839SOL    HW288510   5.353   4.493   4.757 -0.4062  0.6647  0.5304
56840SOL     OW88511   8.030   8.613   2.776 -0.7629 -0.4904 -0.4224
56840SOL    HW188512   8.111   8.641   2.735 -0.0928 -1.8736 -0.1210
56840SOL    HW288513   8.049   8.525   2.809 -1.6678  0.0316  1.6832
56841SOL     OW88514   6.671   2.856   9.827 -0.0082 -0.3034  0.6038
56841SOL    HW188515   6.710   2.786   9.773  0.8816  0.3496  0.3779
56841SOL    HW288516   6.633   2.916   9.763  1.0198  0.4563  0.6824
56842SOL     OW88517   6.040  13.553   9.795 -0.0830  0.3797 -0.1531
56842SOL    HW188518   5.976  13.483   9.785 -0.1429  0.3219  0.6064
56842SOL    HW288519   6.054  13.585   9.705 -0.8993  0.1568 -0.3673
56843SOL     OW88520  13.550   0.431  10.801 -0.4094  0.2670  1.1518
56843SOL    HW188521  13.621   0.385  10.846 -0.1397 -0.4548  0.0224
56843SOL    HW288522  13.581   0.440  10.711 -1.8304 -0.2526  0.5891
56844SOL     OW88523   1.316   5.169   2.453 -0.3437 -0.4739  0.9409
56844SOL    HW188524   1.281   5.125   2.376 -0.3237 -0.2495  0.8051
56844SOL    HW288525   1.291   5.261   2.443  0.1761 -0.3339  0.9045
56845SOL     OW88526   6.363   6.683   6.242 -0.4242 -0.4166  0.1723
56845SOL    HW188527   6.328   6.611   6.295 -1.0769 -0.9417 -0.9187
56845SOL    HW288528   6.436   6.644   6.194 -0.4237 -0.1986 -0.0035
56846SOL     OW88529   0.518   3.967  11.270  0.3720  0.0107 -0.5440
56846SOL    HW188530   0.554   4.051  11.300  1.0384 -0.6059  0.4153
56846SOL    HW288531   0.547   3.903  11.334  0.6342 -1.1303 -1.7467
56847SOL     OW88532   0.699   5.344  10.916 -0.0576  0.0619 -0.2486
56847SOL    HW188533   0.660   5.276  10.970 -1.5924  0.2558 -1.0803
56847SOL    HW288534   0.699   5.422  10.973 -2.1693  0.4057 -0.6476
56848SOL     OW88535   8.185   0.663  13.098 -0.0523 -0.4050 -0.4000
56848SOL    HW188536   8.226   0.712  13.027  0.8967 -2.0321 -1.0135
56848SOL    HW288537   8.094   0.653  13.071 -0.7077  2.2591  0.4515
56849SOL     OW88538   1.976   4.546   2.913 -0.4790 -0.3470 -0.3603
56849SOL    HW188539   1.932   4.541   2.828  1.4867  0.7739 -1.5319
56849SOL    HW288540   2.028   4.466   2.918 -1.7795 -1.1883  0.5764
56850SOL     OW88541   4.525   9.417   2.307 -0.1878  0.1316 -0.2661
56850SOL    HW188542   4.439   9.436   2.344 -0.0311 -0.1745  0.2642
56850SOL    HW288543   4.548   9.330   2.341  0.8983  0.7500  0.6574
56851SOL     OW88544  11.655   2.822   9.570  0.3703  0.1113 -0.4035
56851SOL    HW188545  11.651   2.818   9.474  1.6953 -0.3421 -0.4567
56851SOL    HW288546  11.564   2.810   9.598  0.2501 -2.2216 -1.5296
56852SOL     OW88547  11.339   4.003   6.792  0.2700  0.4344  0.8818
56852SOL    HW188548  11.391   3.923   6.779  1.9700  1.2912  1.9898
56852SOL    HW288549  11.250   3.971   6.808  0.5167 -1.1244 -0.5129
56853SOL     OW88550  11.577  10.821   5.823 -0.2119  0.0148  0.1867
56853SOL    HW188551  11.557  10.736   5.785  0.5035 -0.2305  0.3317
56853SOL    HW288552  11.584  10.881   5.749  0.8139 -0.3826 -0.0579
56854SOL     OW88553   3.396   5.756   2.468 -0.4117 -0.1597 -0.0440
56854SOL    HW188554   3.488   5.764   2.444 -0.8705  0.6773 -1.6981
56854SOL    HW288555   3.355   5.716   2.391 -1.4162 -0.5946  0.6961
56855SOL     OW88556  10.727   4.211   8.245  0.3377  0.8619 -0.2275
56855SOL    HW188557  10.637   4.182   8.260  0.5506  0.1607 -0.2414
56855SOL    HW288558  10.726   4.304   8.266 -0.5525  1.0250 -0.9111
56856SOL     OW88559   1.051   7.725   0.190 -0.1547 -0.2142 -0.3842
56856SOL    HW188560   1.048   7.635   0.159 -2.8372 -0.2396 -0.2807
56856SOL    HW288561   0.962   7.759   0.177  0.0555  1.5844  1.9677
56857SOL     OW88562   8.103   8.670  13.188 -0.4623  0.6450  0.5614
56857SOL    HW188563   8.170   8.673  13.119  0.3427 -3.0854  0.9458
56857SOL    HW288564   8.104   8.757  13.227  3.1811  1.2030 -0.3963
56858SOL     OW88565   9.476   1.258   0.258  0.5413 -0.1267 -0.6110
56858SOL    HW188566   9.385   1.239   0.279  0.5101  0.5891 -0.0555
56858SOL    HW288567   9.472   1.314   0.180  0.4618  0.4397 -0.2104
56859SOL     OW88568   1.940   8.647   8.260  0.3773 -0.8837 -0.2205
56859SOL    HW188569   1.953   8.741   8.253  1.1754 -1.0343 -0.9343
56859SOL    HW288570   1.850   8.633   8.231  0.7258 -0.4881 -1.5498
56860SOL     OW88571   2.585  11.406   8.037 -0.2435 -0.3149 -0.0047
56860SOL    HW188572   2.514  11.459   8.074  0.1958 -0.3900  0.9554
56860SOL    HW288573   2.553  11.383   7.949 -0.8539  0.7351 -0.0880
56861SOL     OW88574   2.701   8.780   6.414 -0.1521 -0.4521  0.3057
56861SOL    HW188575   2.697   8.841   6.488 -0.1799  0.5022 -0.4670
56861SOL    HW288576   2.725   8.835   6.339  0.6841 -1.5384 -0.2500
56862SOL     OW88577  13.447   9.609   1.269  0.1416 -0.0758 -0.0250
56862SOL    HW188578  13.480   9.669   1.336  0.6693 -0.9479  0.5098
56862SOL    HW288579  13.388   9.551   1.316  0.4407 -0.6334 -0.3258
56863SOL     OW88580  10.300   4.678   1.021 -0.0238 -0.5579 -0.4482
56863SOL    HW188581  10.357   4.728   0.962 -1.0832  0.0257 -0.9910
56863SOL    HW288582  10.214   4.718   1.011 -0.5908 -1.5924  0.1829
56864SOL     OW88583   1.908   0.780  11.707  0.0064 -0.1444  0.4831
56864SOL    HW188584   1.831   0.837  11.712 -0.2033 -0.4106  0.3338
56864SOL    HW288585   1.897   0.719  11.780  0.1591 -0.0831  0.5585
56865SOL     OW88586   1.100   4.739   8.732  0.1012  0.5003  0.0426
56865SOL    HW188587   1.078   4.679   8.803  0.1793 -0.6583 -0.8735
56865SOL    HW288588   1.017   4.778   8.707 -0.3793 -1.0702 -0.9464
56866SOL     OW88589   9.619  10.683   9.789 -0.2917 -0.3288  0.8087
56866SOL    HW188590   9.595  10.671   9.698  0.5193  0.5671  0.4572
56866SOL    HW288591   9.684  10.615   9.806  1.0512  0.7238  0.1041
56867SOL     OW88592   7.572   8.922   3.154  0.1058 -0.6344  0.1462
56867SOL    HW188593   7.493   8.943   3.104 -0.0784 -0.1762  0.6226
56867SOL    HW288594   7.594   9.003   3.199  0.4356 -0.9642  0.5855
56868SOL     OW88595  11.445   4.203  10.541 -0.0853 -0.0803  0.6287
56868SOL    HW188596  11.532   4.242  10.547 -0.6366  1.6192 -1.2853
56868SOL    HW288597  11.392   4.250  10.605 -0.1602  0.6445  0.0458
56869SOL     OW88598   2.694  10.456   2.174  0.4681 -0.4054 -0.2369
56869SOL    HW188599   2.612  10.488   2.213  0.3802 -2.1096  1.1319
56869SOL    HW288600   2.756  10.528   2.185  0.1966 -0.4644  2.3970
56870SOL     OW88601   7.173   2.139   2.747  0.2749 -0.1665  0.4896
56870SOL    HW188602   7.263   2.120   2.721  0.1736 -0.1455  0.1142
56870SOL    HW288603   7.131   2.169   2.666 -0.5320 -1.8233  0.2399
56871SOL     OW88604   7.399  12.105   3.977  0.6504 -0.0159  0.2481
56871SOL    HW188605   7.368  12.189   3.946 -1.7100 -1.6911 -2.3974
56871SOL    HW288606   7.371  12.101   4.069 -1.5122  1.1036 -0.3002
56872SOL     OW88607   1.112   7.677  13.856 -0.1488 -0.0832 -0.3301
56872SOL    HW188608   1.168   7.617  13.904  1.2939  1.6382  0.2454
56872SOL    HW288609   1.152   7.684  13.769  0.1357  0.5969 -0.1527
56873SOL     OW88610   4.696  11.568   5.522 -0.4504  0.1046 -0.1554
56873SOL    HW188611   4.671  11.555   5.613  1.2157 -1.9147  0.1014
56873SOL    HW288612   4.644  11.503   5.474  0.5684 -0.6827 -0.2457
56874SOL     OW88613  13.124  13.993  13.318 -0.1959  0.4159 -0.5442
56874SOL    HW188614  13.148  13.925  13.254 -0.7234  0.1408 -0.4543
56874SOL    HW288615  13.083  13.945  13.390  1.9641  0.5072  0.8425
56875SOL     OW88616   5.563   7.284   7.230 -0.3745  0.0035  0.0463
56875SOL    HW188617   5.558   7.189   7.236 -1.5872 -0.0875 -1.7186
56875SOL    HW288618   5.503   7.316   7.298 -0.9082 -0.5128 -0.1760
56876SOL     OW88619   6.070  10.843   5.581  0.5053  0.0286 -0.1596
56876SOL    HW188620   6.016  10.913   5.617 -1.6934 -1.1768 -0.8992
56876SOL    HW288621   6.104  10.878   5.498 -1.8730 -0.2291 -1.3235
56877SOL     OW88622  10.816   5.858   2.239  0.0139  0.1199  0.0706
56877SOL    HW188623  10.790   5.782   2.187  0.4859 -1.1340  1.5935
56877SOL    HW288624  10.733   5.901   2.263 -0.3919 -1.0380  0.8045
56878SOL     OW88625  11.356  10.461   4.692 -0.2919 -0.2385  0.2064
56878SOL    HW188626  11.300  10.386   4.669  0.5524 -0.3555 -1.6255
56878SOL    HW288627  11.295  10.526   4.725 -1.4070 -0.7742 -0.7010
56879SOL     OW88628  13.465   5.665   3.813  0.0997 -0.0766  0.0298
56879SOL    HW188629  13.406   5.621   3.874  0.1346  0.1686  0.2454
56879SOL    HW288630  13.552   5.633   3.837  0.0025 -0.8605 -0.6523
56880SOL     OW88631   1.470   4.169   6.842 -0.3945 -0.5439  0.3575
56880SOL    HW188632   1.407   4.130   6.782  0.1941 -0.8490 -0.0756
56880SOL    HW288633   1.535   4.211   6.784  0.2930 -1.0210  0.7683
56881SOL     OW88634   9.935  12.862   9.427 -0.6939  0.7316  0.1407
56881SOL    HW188635   9.972  12.776   9.406  0.3305  1.1040  0.3608
56881SOL    HW288636  10.000  12.902   9.485 -0.8995  1.8743 -0.3924
56882SOL     OW88637   0.588   2.789   5.101  0.2068 -0.7158 -0.1249
56882SOL    HW188638   0.546   2.765   5.183 -0.5777 -1.4507 -0.7237
56882SOL    HW288639   0.664   2.841   5.127 -1.0598  0.6523  0.9747
56883SOL     OW88640   0.470   6.211  11.435  0.0398  0.0079 -0.1046
56883SOL    HW188641   0.445   6.300  11.458  0.4400  0.4656 -1.3511
56883SOL    HW288642   0.458   6.206  11.340  0.8294 -0.9966 -0.1730
56884SOL     OW88643  13.761   2.495   9.718 -0.0011 -0.0880  0.2724
56884SOL    HW188644  13.774   2.589   9.703  0.6604  0.0019  1.3495
56884SOL    HW288645  13.793   2.453   9.638 -0.5528  0.6079 -0.3326
56885SOL     OW88646  11.351   4.270   1.013 -0.0475  0.2699 -0.1848
56885SOL    HW188647  11.432   4.226   0.987  0.2927  0.0942  1.0779
56885SOL    HW288648  11.377   4.359   1.034  0.2779 -0.3422  2.3119
56886SOL     OW88649   7.705   9.437  12.985 -0.1632 -0.4053 -0.6479
56886SOL    HW188650   7.658   9.354  12.990 -2.0071  0.5845 -0.5858
56886SOL    HW288651   7.754   9.442  13.067  0.5577 -1.7297 -0.9654
56887SOL     OW88652   7.120   8.027  11.130 -0.1696 -0.1334 -0.0332
56887SOL    HW188653   7.075   8.015  11.046 -1.1846  1.0951  0.3032
56887SOL    HW288654   7.094   7.950  11.181 -2.3700  0.7465  0.3106
56888SOL     OW88655   1.136   6.231  12.306 -0.0177  0.0729 -0.2579
56888SOL    HW188656   1.114   6.194  12.391 -0.6906 -2.2769 -1.3759
56888SOL    HW288657   1.176   6.159  12.258  1.2515  1.6071 -1.6382
56889SOL     OW88658  13.472  12.610  12.148 -0.3675  0.1753 -0.0007
56889SOL    HW188659  13.458  12.598  12.054 -0.0817 -1.7417  0.1657
56889SOL    HW288660  13.398  12.567  12.190  0.8921 -1.4710  0.6712
56890SOL     OW88661  12.171  11.883  12.256  0.1987  0.7965 -0.0440
56890SOL    HW188662  12.202  11.974  12.265 -1.1802  1.3502 -0.6254
56890SOL    HW288663  12.231  11.844  12.192  0.3533  1.5124 -0.3457
56891SOL     OW88664   5.321  13.759  12.393  0.5270  0.4963  0.3376
56891SOL    HW188665   5.353  13.797  12.311  0.9230  0.5727  0.5239
56891SOL    HW288666   5.400  13.725  12.436  0.0944 -1.3409 -0.2239
56892SOL     OW88667   6.332   6.288   4.985  0.3153 -0.1437 -0.4147
56892SOL    HW188668   6.366   6.334   5.061  3.7901  0.7577 -2.3268
56892SOL    HW288669   6.362   6.198   4.996  1.8221  0.2306 -1.1584
56893SOL     OW88670   0.024  13.119  10.156 -0.2673  0.0185 -0.0959
56893SOL    HW188671   0.033  13.171  10.076  1.3305 -1.5966 -1.0397
56893SOL    HW288672   0.071  13.169  10.222 -1.0758  1.0662 -0.2806
56894SOL     OW88673  12.943   0.635   4.903  0.7180  0.3884  0.1540
56894SOL    HW188674  12.975   0.726   4.896  0.6382  0.4128  0.1064
56894SOL    HW288675  13.001   0.595   4.967  0.2362  0.7044  0.8044
56895SOL     OW88676  11.736   3.022   2.976 -0.6750  0.0482  0.0405
56895SOL    HW188677  11.664   2.983   2.927  0.1787 -0.3584 -0.9134
56895SOL    HW288678  11.815   2.998   2.927 -0.0061  1.8759  0.1345
56896SOL     OW88679   6.317   1.199  12.144  0.4284 -0.2300 -0.1848
56896SOL    HW188680   6.401   1.216  12.184  0.3940 -2.8096  1.1977
56896SOL    HW288681   6.263   1.275  12.166  2.0529  0.9898 -0.2553
56897SOL     OW88682   5.552   1.381   9.767 -0.2222 -0.0415 -0.3123
56897SOL    HW188683   5.608   1.308   9.736 -0.4502 -0.0195 -0.7903
56897SOL    HW288684   5.612   1.439   9.813  0.1832  0.0408 -0.9267
56898SOL     OW88685   0.979  13.612  12.135  0.6002  0.2566 -0.0410
56898SOL    HW188686   1.017  13.527  12.159  2.3791  0.9143 -0.3499
56898SOL    HW288687   1.041  13.649  12.072 -0.2281  1.7206 -0.0483
56899SOL     OW88688   7.313   3.502  10.847  0.6801  0.0222 -0.0712
56899SOL    HW188689   7.371   3.429  10.870 -0.7720 -0.4038  2.5162
56899SOL    HW288690   7.361   3.580  10.874 -0.3576 -0.3918  3.3432
56900SOL     OW88691   4.820  13.055   8.454 -0.6705 -0.0691 -0.4821
56900SOL    HW188692   4.771  13.136   8.468 -0.3980  0.3004 -1.5795
56900SOL    HW288693   4.850  13.060   8.363  0.1405 -0.9708 -0.2854
56901SOL     OW88694   0.454  11.725  13.688 -0.1582 -0.5643 -0.2686
56901SOL    HW188695   0.519  11.679  13.740  1.3839  1.1122 -0.6121
56901SOL    HW288696   0.501  11.800  13.652 -1.9054 -0.1230 -1.7779
56902SOL     OW88697   3.060   5.842   5.022  0.0809  0.5178  0.1619
56902SOL    HW188698   3.105   5.907   4.967  1.2680 -0.7975 -0.4828
56902SOL    HW288699   2.970   5.874   5.027 -0.2613  0.4321 -3.0758
56903SOL     OW88700   4.645  11.718   7.771 -0.4755  0.3032  0.2522
56903SOL    HW188701   4.730  11.678   7.748 -0.8526 -0.0168 -0.6304
56903SOL    HW288702   4.668  11.792   7.826  0.3224 -0.3940  0.8942
56904SOL     OW88703  10.587   3.170   5.587  0.0883  0.0599 -0.5482
56904SOL    HW188704  10.661   3.110   5.578  1.0884  1.4864 -2.5640
56904SOL    HW288705  10.615   3.249   5.541 -1.9489  1.3597  0.3437
56905SOL     OW88706   0.860  12.855  13.381 -0.2330  0.3029 -0.0939
56905SOL    HW188707   0.787  12.873  13.322  0.1384  1.4309 -0.2216
56905SOL    HW288708   0.830  12.780  13.433 -1.5757  0.8864  0.0142
56906SOL     OW88709   3.619  13.406   0.521 -0.2239 -0.5125  0.4548
56906SOL    HW188710   3.613  13.423   0.615 -0.2420  0.9716  0.2163
56906SOL    HW288711   3.712  13.419   0.501 -0.5527  1.3173 -0.0681
56907SOL     OW88712  10.441   5.367   8.006 -0.0551  0.1802 -0.0035
56907SOL    HW188713  10.421   5.345   7.915  0.0912 -1.6877  0.3759
56907SOL    HW288714  10.518   5.315   8.027  0.0459  0.7582  1.1290
56908SOL     OW88715   7.547   1.301   2.996 -0.0610 -0.1598  0.6399
56908SOL    HW188716   7.564   1.211   2.968  1.1814  0.6366 -1.3746
56908SOL    HW288717   7.633   1.338   3.011 -0.5527  0.7776  1.2472
56909SOL     OW88718  14.103  12.649  12.570  0.0866  0.7362  0.0701
56909SOL    HW188719  14.078  12.603  12.649 -0.1714  0.9305  0.1027
56909SOL    HW288720  14.137  12.581  12.512 -0.0251  0.5484  0.2256
56910SOL     OW88721   3.727   9.659   0.673 -0.0610 -0.2119  0.0412
56910SOL    HW188722   3.650   9.662   0.615 -0.0054  0.8159 -0.0120
56910SOL    HW288723   3.728   9.746   0.714  1.1389 -0.1671 -0.0589
56911SOL     OW88724   9.367   2.341   5.529  0.0587 -0.3542 -0.2949
56911SOL    HW188725   9.349   2.373   5.617 -0.1178  2.0808 -1.1365
56911SOL    HW288726   9.457   2.369   5.511  0.6521 -2.1805 -0.3763
56912SOL     OW88727   1.393   2.308   4.701 -0.0575  0.3335  0.2554
56912SOL    HW188728   1.344   2.259   4.767  0.1173 -0.5091 -0.2292
56912SOL    HW288729   1.354   2.395   4.702 -0.0942  0.3211  1.4362
56913SOL     OW88730  12.465   3.295   3.514 -0.8588 -0.6080 -0.0220
56913SOL    HW188731  12.481   3.387   3.535 -2.3639 -0.0185 -1.2446
56913SOL    HW288732  12.370   3.286   3.516 -0.8028 -1.8181 -1.1356
56914SOL     OW88733   9.175   9.773   2.057 -0.1218  0.0363 -0.6934
56914SOL    HW188734   9.232   9.839   2.098 -0.6782 -0.6037  1.2219
56914SOL    HW288735   9.235   9.710   2.017  0.7243 -1.5500  2.7211
56915SOL     OW88736  13.171   1.781   1.446 -0.2480 -0.1388  0.3604
56915SOL    HW188737  13.237   1.807   1.510  0.5524  0.4768 -0.6943
56915SOL    HW288738  13.198   1.822   1.364  0.6353 -3.5084 -1.2364
56916SOL     OW88739   4.780   2.548   3.419 -0.0366 -0.3190  0.1453
56916SOL    HW188740   4.734   2.506   3.492  0.6573  1.7972  1.8977
56916SOL    HW288741   4.870   2.558   3.449 -0.0219  1.7617 -0.4395
56917SOL     OW88742  13.927   5.175  10.004  0.7597 -0.4033  0.0852
56917SOL    HW188743  13.947   5.173  10.097  0.7362  1.2480  0.1694
56917SOL    HW288744  13.914   5.084   9.979  1.0769 -0.8901  1.6216
56918SOL     OW88745   0.648   5.901  12.812 -0.5012  0.5174 -0.2547
56918SOL    HW188746   0.728   5.898  12.760 -0.5285  0.0009 -0.2697
56918SOL    HW288747   0.657   5.828  12.874 -1.0221  0.3676 -0.3515
56919SOL     OW88748   0.995   4.459   7.645  0.0856 -0.1733  0.0537
56919SOL    HW188749   0.903   4.439   7.663  0.2721 -1.0235  0.1058
56919SOL    HW288750   0.992   4.516   7.568 -0.5331  0.6663  0.6778
56920SOL     OW88751   1.552   8.198   3.708  0.2512 -0.0757 -0.0677
56920SOL    HW188752   1.494   8.130   3.674 -1.8814  1.0421  1.1287
56920SOL    HW288753   1.542   8.193   3.803  1.3827  0.8031  0.1188
56921SOL     OW88754  11.008   5.614  12.963  0.0352 -0.1045 -0.5357
56921SOL    HW188755  11.012   5.706  12.990  0.0412 -0.0634 -0.6765
56921SOL    HW288756  11.082   5.604  12.903 -0.6513  0.0910 -1.4274
56922SOL     OW88757   9.160   1.743  10.267 -0.1406  0.4506  0.1530
56922SOL    HW188758   9.065   1.729  10.263 -0.0419 -0.0935 -0.6829
56922SOL    HW288759   9.194   1.695  10.191  1.1164 -1.8348  2.0516
56923SOL     OW88760   1.235   8.601  11.618 -0.2337  0.4384  0.7665
56923SOL    HW188761   1.177   8.651  11.561  1.2945  0.6918 -0.6397
56923SOL    HW288762   1.280   8.666  11.671 -0.2549  0.3520  0.8919
56924SOL     OW88763  11.985  13.111   8.204 -0.6185 -0.0360 -0.1185
56924SOL    HW188764  11.954  13.045   8.141 -1.1306 -0.3658  0.4696
56924SOL    HW288765  11.961  13.194   8.163  0.1608 -0.1919 -0.9344
56925SOL     OW88766   0.969  10.492   4.741  0.2278 -0.4032  0.0153
56925SOL    HW188767   0.981  10.398   4.746  0.5423 -0.5826 -2.6682
56925SOL    HW288768   1.054  10.526   4.713 -0.4204  0.3978 -1.0886
56926SOL     OW88769   7.000   5.960   3.981 -0.8671  0.3479  0.3455
56926SOL    HW188770   7.039   5.991   4.063 -3.6761  2.3926  1.0563
56926SOL    HW288771   7.070   5.966   3.917  0.7624  0.9946  2.0917
56927SOL     OW88772   8.119   0.725   4.045 -1.1768 -0.5166 -0.0250
56927SOL    HW188773   8.093   0.798   3.989  0.2785 -0.4477 -0.6630
56927SOL    HW288774   8.042   0.669   4.048 -1.1754 -0.7958 -2.5643
56928SOL     OW88775  11.277   7.579   5.957 -0.0443  0.1139 -0.6353
56928SOL    HW188776  11.264   7.500   5.904  3.1779 -1.4097  0.5666
56928SOL    HW288777  11.250   7.553   6.045  1.6395  0.0276 -0.0985
56929SOL     OW88778  12.611  11.800   7.434 -0.1634 -0.2083  0.1128
56929SOL    HW188779  12.650  11.844   7.509  0.7285 -0.2313 -0.3192
56929SOL    HW288780  12.542  11.745   7.471 -1.2322  1.4547  0.6655
56930SOL     OW88781   1.342   4.629   9.227  0.3749  0.0184 -0.2099
56930SOL    HW188782   1.329   4.625   9.322 -0.0588  0.2075 -0.2574
56930SOL    HW288783   1.313   4.718   9.203 -1.7107 -0.7551 -0.8277
56931SOL     OW88784   0.028  13.010  10.648 -0.6192 -0.0437 -0.0804
56931SOL    HW188785   0.025  13.005  10.553 -3.7009  0.0048 -0.0953
56931SOL    HW288786   0.009  13.102  10.668 -1.9250 -0.4143  0.5385
56932SOL     OW88787   7.093   0.327   6.507  0.1130 -0.0700 -0.0843
56932SOL    HW188788   7.010   0.347   6.464 -0.3485  0.2184  0.9101
56932SOL    HW288789   7.069   0.268   6.579  0.4602  1.5808  1.4618
56933SOL     OW88790  13.849   4.212  13.075  0.1898 -0.0458 -0.4728
56933SOL    HW188791  13.835   4.199  13.169 -0.7305 -1.8046 -0.8106
56933SOL    HW288792  13.761   4.232  13.041  0.3148 -0.5870 -1.1205
56934SOL     OW88793  13.783   9.278   4.152  0.1514  0.2902  0.3233
56934SOL    HW188794  13.829   9.283   4.068 -0.7179  1.2488 -0.1134
56934SOL    HW288795  13.758   9.369   4.171 -1.4299 -0.1872  0.6238
56935SOL     OW88796   0.356   6.765   5.289 -0.1522 -0.1917 -0.2557
56935SOL    HW188797   0.398   6.819   5.222  0.7131  1.2524  1.3324
56935SOL    HW288798   0.300   6.827   5.336  0.6000 -0.7137  1.4087
56936SOL     OW88799   0.720  13.853  12.124 -0.7678 -0.1049 -0.1928
56936SOL    HW188800   0.696  13.835  12.215 -3.2564 -1.7595 -1.0797
56936SOL    HW288801   0.801  13.905  12.131 -0.0182 -1.4177  2.9002
56937SOL     OW88802   1.406   9.509   7.756 -0.4769  0.0297 -0.1583
56937SOL    HW188803   1.323   9.490   7.710 -0.3603 -1.4536  0.2020
56937SOL    HW288804   1.458   9.430   7.745  1.3043  1.2745 -1.1741
56938SOL     OW88805   5.429   6.763   8.870  0.5702 -0.3406 -0.1755
56938SOL    HW188806   5.450   6.697   8.804 -0.1115 -1.5187  0.7554
56938SOL    HW288807   5.497   6.752   8.937  0.9088  0.4431 -0.3765
56939SOL     OW88808   2.354   7.730   0.325 -0.3968  0.6758  0.2588
56939SOL    HW188809   2.369   7.637   0.342 -0.1998  1.0226  2.2002
56939SOL    HW288810   2.380   7.742   0.234 -1.9766 -1.4736 -0.5434
56940SOL     OW88811   1.213   0.985   1.240  0.0033 -0.5219 -0.6733
56940SOL    HW188812   1.122   0.965   1.219  0.6288 -2.1816 -2.1300
56940SOL    HW288813   1.231   1.067   1.195 -0.8585  0.0140 -0.0626
56941SOL     OW88814   0.823   5.845   5.023 -0.0053 -1.3774  0.4782
56941SOL    HW188815   0.749   5.808   4.975  0.0453 -0.5492 -0.2538
56941SOL    HW288816   0.783   5.902   5.089 -0.0740  1.4456 -1.7959
56942SOL     OW88817   1.160   5.801  10.266 -0.0374  0.0985  0.3189
56942SOL    HW188818   1.234   5.759  10.309 -0.7235  0.6877  2.1472
56942SOL    HW288819   1.182   5.798  10.173  0.9730 -2.2185  0.5691
56943SOL     OW88820   7.068   9.457  12.443 -0.4291 -0.0270 -0.3760
56943SOL    HW188821   7.050   9.438  12.351 -1.1346 -0.1115 -0.2315
56943SOL    HW288822   7.144   9.403  12.465  0.2803  0.6341 -1.1328
56944SOL     OW88823   6.139   5.234   5.655 -0.0190 -0.1951  0.6276
56944SOL    HW188824   6.171   5.202   5.740 -0.1406 -1.6413  0.1512
56944SOL    HW288825   6.191   5.187   5.590 -1.8053 -1.2345 -0.1316
56945SOL     OW88826   1.731  12.731  13.381  0.0499 -0.0944 -0.2920
56945SOL    HW188827   1.775  12.787  13.445 -1.4395 -2.3180  2.9462
56945SOL    HW288828   1.793  12.660  13.364  0.6282  0.7328 -1.7809
56946SOL     OW88829   9.022   6.338  10.384  0.2122 -0.7110 -0.1803
56946SOL    HW188830   8.997   6.399  10.315 -0.1183  2.0052  2.1568
56946SOL    HW288831   9.118   6.339  10.382  0.2153 -1.2092 -0.9944
56947SOL     OW88832   4.402   1.840   5.337 -0.2344  0.3087 -0.3844
56947SOL    HW188833   4.444   1.831   5.252  0.7139 -0.6861  0.1712
56947SOL    HW288834   4.410   1.754   5.378  0.4610  1.0803  1.2252
56948SOL     OW88835   9.800   6.066  12.890  0.0490 -0.1614  0.0795
56948SOL    HW188836   9.873   6.114  12.851 -2.0142  2.0165 -1.4048
56948SOL    HW288837   9.727   6.081  12.830 -2.3940  0.2493  2.9149
56949SOL     OW88838  12.488   1.485   6.001  0.2254  0.4716 -0.3659
56949SOL    HW188839  12.555   1.517   5.941  0.6113 -1.1751 -0.8537
56949SOL    HW288840  12.491   1.390   5.993  0.2592  0.1730  2.2115
56950SOL     OW88841   1.174   0.466  13.705 -0.1140  0.0538 -0.2006
56950SOL    HW188842   1.260   0.497  13.731 -0.3082  0.9965 -0.6298
56950SOL    HW288843   1.115   0.537  13.728 -0.5842 -0.0036 -1.1693
56951SOL     OW88844   1.841  10.870   2.908  0.1869 -0.0418  1.2831
56951SOL    HW188845   1.830  10.779   2.936 -0.1613 -0.1654  0.7427
56951SOL    HW288846   1.762  10.890   2.858  0.8906  0.1090  0.2016
56952SOL     OW88847  13.976   3.925  12.185  0.5401  0.6675 -0.0242
56952SOL    HW188848  14.043   3.901  12.249 -0.4247 -0.3048  0.6689
56952SOL    HW288849  13.958   3.843  12.137  1.5191  1.4592 -1.8480
56953SOL     OW88850  11.487   1.436  12.104  0.1076  0.8699  0.2265
56953SOL    HW188851  11.575   1.401  12.122  0.2664  0.0979 -1.7954
56953SOL    HW288852  11.438   1.361  12.069 -0.6176  1.8427 -0.9175
56954SOL     OW88853   6.944   3.515   4.632  0.2379  0.2019 -0.0271
56954SOL    HW188854   6.999   3.587   4.662  0.4583 -0.0870  0.2812
56954SOL    HW288855   6.989   3.480   4.556 -0.5716  1.2457 -1.0219
56955SOL     OW88856   9.612   5.253   4.021 -0.6694 -0.0105  0.7048
56955SOL    HW188857   9.629   5.323   4.084 -0.6925  1.5865 -0.9828
56955SOL    HW288858   9.689   5.197   4.025  0.7287  1.7800  0.0004
56956SOL     OW88859   5.326   2.094   9.197 -0.2150 -0.0376  0.6060
56956SOL    HW188860   5.354   2.005   9.218  3.0012  1.0575  1.5773
56956SOL    HW288861   5.342   2.102   9.103 -0.4945 -0.4599  0.5190
56957SOL     OW88862  11.774   6.046   4.432 -0.3948 -0.6799 -0.0877
56957SOL    HW188863  11.854   6.052   4.486 -0.6083  0.0510  0.1612
56957SOL    HW288864  11.785   5.966   4.382  1.0369 -0.0038 -0.9143
56958SOL     OW88865   1.319   0.063   5.453  0.5617 -0.4168 -0.2748
56958SOL    HW188866   1.244   0.121   5.437  1.0935  0.3635  0.0244
56958SOL    HW288867   1.305  -0.010   5.393  0.8442  0.9045 -2.0033
56959SOL     OW88868   7.167  13.353   8.082  0.0581 -0.5545  0.2048
56959SOL    HW188869   7.105  13.288   8.116 -2.0325  1.3166  0.2031
56959SOL    HW288870   7.196  13.317   7.998 -0.4165 -1.8548  0.5767
56960SOL     OW88871   2.666  11.495  10.424  0.1444  0.1706 -0.5239
56960SOL    HW188872   2.665  11.435  10.498 -2.0212 -2.1028 -2.2210
56960SOL    HW288873   2.740  11.553  10.441  0.3146 -0.8452  2.8810
56961SOL     OW88874   5.068   6.672   9.820 -0.6979  0.0173 -0.1701
56961SOL    HW188875   5.109   6.669   9.906 -0.0160  1.4891 -0.4077
56961SOL    HW288876   4.982   6.709   9.836 -0.0687  1.5757 -0.2638
56962SOL     OW88877   1.142  12.322   5.076  0.0646  0.7485 -0.3871
56962SOL    HW188878   1.174  12.388   5.015 -1.2606  1.5688 -0.2375
56962SOL    HW288879   1.183  12.344   5.160  0.2685  0.8751 -0.5206
56963SOL     OW88880   9.404  13.222   4.371  0.0291 -0.5627  0.5064
56963SOL    HW188881   9.426  13.164   4.444  2.5352 -0.2475  0.0872
56963SOL    HW288882   9.452  13.186   4.296 -1.9804 -0.5027 -0.8824
56964SOL     OW88883   7.080  12.520   8.750 -0.3871 -0.3835 -0.0068
56964SOL    HW188884   7.078  12.616   8.743  1.3393 -0.3239 -0.1821
56964SOL    HW288885   6.991  12.496   8.776 -1.5011  1.0779 -2.0959
56965SOL     OW88886   6.334   5.887  13.673 -0.1488 -0.1067 -0.3280
56965SOL    HW188887   6.303   5.833  13.745  0.3954  0.6683  0.5197
56965SOL    HW288888   6.409   5.839  13.637  1.2536  0.7234  1.3633
56966SOL     OW88889   9.888   5.967  12.539 -0.0332  0.2043  0.1796
56966SOL    HW188890   9.976   6.001  12.524  0.0865  0.1327  0.7078
56966SOL    HW288891   9.902   5.874  12.558 -0.2499  0.1310 -0.0162
56967SOL     OW88892   5.866   7.704   7.522  0.3714  0.1489  0.6158
56967SOL    HW188893   5.775   7.706   7.551  0.6946 -2.5965  2.1881
56967SOL    HW288894   5.867   7.646   7.447  0.9113 -0.5037  1.1129
56968SOL     OW88895   7.374  13.426  10.530  0.2011 -0.1388 -1.0219
56968SOL    HW188896   7.334  13.450  10.447 -2.8733 -1.2188  0.0093
56968SOL    HW288897   7.330  13.481  10.595 -0.2173 -1.9073  0.2817
56969SOL     OW88898   5.916   9.010   0.176 -0.6069  0.1338 -0.0243
56969SOL    HW188899   5.922   9.052   0.091 -0.9696 -1.8358 -1.0971
56969SOL    HW288900   5.901   9.081   0.238  1.4981  1.8314 -1.3381
56970SOL     OW88901  12.516   9.218   9.433 -0.4826 -0.1126  0.2374
56970SOL    HW188902  12.531   9.161   9.508  1.9082  2.9019  2.3120
56970SOL    HW288903  12.596   9.209   9.380 -0.7268  0.2115 -0.1925
56971SOL     OW88904   0.084  10.342   5.693  0.0996 -0.7388  0.0118
56971SOL    HW188905   0.043  10.401   5.755 -1.6769 -1.6672 -0.1965
56971SOL    HW288906   0.068  10.382   5.607  0.2958 -0.7229 -0.0173
56972SOL     OW88907  13.566   0.775   7.660 -0.2960  0.0436 -0.6882
56972SOL    HW188908  13.549   0.688   7.624 -0.3527  0.1944 -1.0325
56972SOL    HW288909  13.503   0.832   7.616 -1.8068 -0.1053  1.1847
56973SOL     OW88910   3.828   1.820   4.091 -0.2880  0.2183 -0.2386
56973SOL    HW188911   3.894   1.875   4.049 -1.4714  2.1580  0.3427
56973SOL    HW288912   3.863   1.804   4.178 -0.5100  1.1570  0.0348
56974SOL     OW88913   6.731   6.046  10.987  0.5375 -0.0468  0.1201
56974SOL    HW188914   6.742   6.122  11.044 -0.1928 -0.0895  0.3345
56974SOL    HW288915   6.637   6.026  10.992  0.8528 -1.4710  0.7193
56975SOL     OW88916   7.522   5.153   1.732 -0.0163 -0.8447 -0.3383
56975SOL    HW188917   7.456   5.137   1.800  1.1840 -1.8807  0.6306
56975SOL    HW288918   7.556   5.240   1.751 -0.0146 -0.9441  0.1335
56976SOL     OW88919   2.057   0.854   0.663 -0.1822  0.0672 -0.2847
56976SOL    HW188920   2.053   0.785   0.597 -0.1905  1.2878 -1.6070
56976SOL    HW288921   1.969   0.855   0.701  0.3525 -1.9206  1.1655
56977SOL     OW88922   1.673   9.083   9.195 -0.7455  0.1524  0.2885
56977SOL    HW188923   1.671   9.024   9.270 -1.4878  0.0801  0.2242
56977SOL    HW288924   1.740   9.047   9.137 -1.0416 -0.5010  0.3497
56978SOL     OW88925  14.031   7.133   6.730 -0.4455 -0.4133  0.2186
56978SOL    HW188926  14.095   7.169   6.669  1.1599  2.0059  3.0340
56978SOL    HW288927  13.955   7.191   6.722 -0.1066  0.1091  0.7008
56979SOL     OW88928  12.613  12.996   7.284 -0.1054  0.0383  0.1169
56979SOL    HW188929  12.691  12.979   7.337 -0.1215  1.6725  0.7147
56979SOL    HW288930  12.540  12.990   7.347 -0.1494  1.7379  0.2706
56980SOL     OW88931   0.681   6.807  11.570  0.4750  0.1662  0.3091
56980SOL    HW188932   0.634   6.856  11.638 -0.2777 -0.5095  0.2847
56980SOL    HW288933   0.772   6.834  11.580  0.1374  1.2795  0.5463
56981SOL     OW88934   7.910  10.195   1.536  0.0102 -0.8838 -0.4404
56981SOL    HW188935   7.879  10.285   1.527 -0.9974 -1.1163  0.5323
56981SOL    HW288936   7.870  10.164   1.617 -0.4592 -2.5443 -1.2772
56982SOL     OW88937  10.957   5.877   9.392  0.6036  0.3391  0.1733
56982SOL    HW188938  11.041   5.839   9.368 -0.1058 -0.8219 -0.5718
56982SOL    HW288939  10.907   5.879   9.310  0.4940  2.6745  0.2284
56983SOL     OW88940   8.299  10.756  11.333  0.0690 -0.1938  0.2256
56983SOL    HW188941   8.247  10.728  11.258  0.8882  1.5075 -1.0466
56983SOL    HW288942   8.385  10.777  11.297  0.6586  0.1517  1.7309
56984SOL     OW88943   8.533   5.192   1.301  0.2543 -0.4215  0.2205
56984SOL    HW188944   8.479   5.137   1.244  1.2242 -0.9167 -0.2720
56984SOL    HW288945   8.483   5.272   1.313 -0.5790 -0.8657 -0.2055
56985SOL     OW88946   5.963  12.050   8.573 -0.5170 -0.3290 -0.2769
56985SOL    HW188947   5.982  11.959   8.593 -0.0489 -0.2080 -0.1573
56985SOL    HW288948   5.875  12.065   8.608 -0.6759 -0.7841 -0.4722
56986SOL     OW88949   9.736  10.028  13.626 -0.2193 -0.0973  0.5877
56986SOL    HW188950   9.711   9.990  13.542 -1.3035 -2.8680  2.0094
56986SOL    HW288951   9.691  10.112  13.630 -2.2738 -1.0943 -0.5531
56987SOL     OW88952   6.073  11.056   5.876 -0.1786 -0.4314 -0.1764
56987SOL    HW188953   6.136  11.121   5.908 -0.9976  0.5417 -0.4716
56987SOL    HW288954   6.007  11.051   5.945 -0.2300 -0.7964 -0.2501
56988SOL     OW88955  10.379   7.820   5.667  0.0286 -0.1139  0.3421
56988SOL    HW188956  10.301   7.874   5.659 -0.0529 -0.2513  0.2024
56988SOL    HW288957  10.434   7.866   5.731  0.7250  1.0507 -1.0333
56989SOL     OW88958   0.293   9.321   7.862  0.1067 -0.1663 -0.3123
56989SOL    HW188959   0.352   9.392   7.887 -1.4383  1.0829 -0.0261
56989SOL    HW288960   0.225   9.363   7.810  0.1949 -1.7999 -1.8416
56990SOL     OW88961   7.706   8.585   7.658 -0.3093  0.2658 -0.3647
56990SOL    HW188962   7.689   8.635   7.738  2.3577 -0.5360  0.8179
56990SOL    HW288963   7.656   8.504   7.669 -0.3587  0.3764  0.2319
56991SOL     OW88964   9.073   1.781   6.734 -0.1489  0.6609 -0.5219
56991SOL    HW188965   9.033   1.706   6.692 -1.5641  1.8569 -1.4121
56991SOL    HW288966   9.046   1.775   6.825  3.0579 -2.0277  0.4723
56992SOL     OW88967  11.104   1.537   8.435  0.8557  0.0503  0.0845
56992SOL    HW188968  11.021   1.554   8.479  0.3494  0.3828 -0.9701
56992SOL    HW288969  11.134   1.622   8.404  1.2091 -0.1677 -0.1968
56993SOL     OW88970   8.789   0.563   6.883  0.8208  0.4747 -0.1269
56993SOL    HW188971   8.816   0.562   6.975 -2.3232  1.1700  0.9056
56993SOL    HW288972   8.694   0.563   6.885  0.6132  1.1761 -3.4112
56994SOL     OW88973   7.088  12.075  11.671  0.7197 -0.4808 -0.1479
56994SOL    HW188974   7.042  12.153  11.640 -2.7162 -1.2895  2.3319
56994SOL    HW288975   7.124  12.035  11.592 -1.9657  0.8487 -2.1966
56995SOL     OW88976   5.003  10.468   9.352  0.1265  0.1589 -0.2843
56995SOL    HW188977   4.961  10.486   9.437  0.3982 -2.7897  0.5820
56995SOL    HW288978   5.083  10.520   9.354 -1.0940  2.1075  0.1376
56996SOL     OW88979  13.596   3.314   7.209 -0.5725  0.4026 -0.3071
56996SOL    HW188980  13.564   3.384   7.265 -2.4246  0.5817 -1.4824
56996SOL    HW288981  13.518   3.285   7.161  0.3099 -1.9338 -0.4144
56997SOL     OW88982   5.701   9.545   2.857  0.0213 -0.8757  0.3401
56997SOL    HW188983   5.762   9.608   2.893  0.0123 -0.2805 -0.6503
56997SOL    HW288984   5.753   9.493   2.795 -0.4778 -0.2766 -0.6095
56998SOL     OW88985   4.055   9.148   0.476 -0.0557  0.3345  0.5854
56998SOL    HW188986   4.105   9.113   0.402  0.1050 -1.1728  1.3667
56998SOL    HW288987   4.114   9.138   0.551 -0.4198  1.3514  1.0262
56999SOL     OW88988  12.080   7.770   3.339 -0.4645  0.3685 -0.2050
56999SOL    HW188989  12.123   7.835   3.394  0.3760 -0.5408  0.2486
56999SOL    HW288990  12.077   7.810   3.252  0.4058  0.8505 -0.0253
57000SOL     OW88991   5.361   5.623   9.197  0.4712  0.4469  0.8312
57000SOL    HW188992   5.436   5.576   9.161  2.0353  2.9023  0.6786
57000SOL    HW288993   5.398   5.678   9.266 -1.8251 -1.1095  3.5403
57001SOL     OW88994   7.488   1.718   1.098 -0.2136  0.4287 -0.4825
57001SOL    HW188995   7.545   1.785   1.135 -1.8944  2.7071 -1.7589
57001SOL    HW288996   7.501   1.724   1.003 -0.8985 -0.6220 -0.6675
57002SOL     OW88997  12.719  10.620   3.518  0.0403 -0.1550  0.5321
57002SOL    HW188998  12.632  10.585   3.537  0.1998 -0.9579 -0.1794
57002SOL    HW288999  12.771  10.544   3.491  0.4798  0.5767 -0.7462
57003SOL     OW89000   2.581  13.330   7.583 -0.1620  0.0600 -1.0369
57003SOL    HW189001   2.488  13.306   7.575 -0.0012 -0.4903 -1.3213
57003SOL    HW289002   2.628  13.251   7.558  0.3990 -0.1115  0.4817
57004SOL     OW89003  10.248   3.928  12.211  0.3323  0.4836  0.1357
57004SOL    HW189004  10.247   4.002  12.272  1.7862  1.1034 -0.5513
57004SOL    HW289005  10.337   3.927  12.176 -0.5489  0.4478 -2.3162
57005SOL     OW89006   4.182   7.198  13.915  0.1942  0.6255  0.0856
57005SOL    HW189007   4.158   7.204  14.007  0.5327  0.1074  0.2129
57005SOL    HW289008   4.191   7.104  13.898 -1.1211  0.6250 -0.8038
57006SOL     OW89009  12.060   1.837  13.876  0.3770 -0.0819  0.3742
57006SOL    HW189010  12.082   1.744  13.880 -2.2974 -0.8512 -0.4925
57006SOL    HW289011  11.981   1.845  13.929 -0.5127  1.2826 -1.0633
57007SOL     OW89012   7.658  12.087  12.409  0.3551  0.2830  0.2699
57007SOL    HW189013   7.690  12.176  12.423 -0.0902  0.2855  1.3840
57007SOL    HW289014   7.574  12.084  12.454  0.2527 -0.6343  0.0429
57008SOL     OW89015   0.686   8.236   4.614 -0.2381 -0.6725  0.4570
57008SOL    HW189016   0.760   8.218   4.556 -0.4472  1.7574 -0.7018
57008SOL    HW289017   0.609   8.227   4.558 -0.5537  0.1001  0.7556
57009SOL     OW89018   7.984   4.733   5.817  0.0164  0.0272  0.2338
57009SOL    HW189019   8.021   4.652   5.852 -0.3387  0.7778  2.5078
57009SOL    HW289020   7.912   4.704   5.760  0.2012 -1.2536  0.6254
57010SOL     OW89021   6.850  11.044   2.745 -0.2043  0.3788  0.2026
57010SOL    HW189022   6.820  11.000   2.825  0.3985 -1.3533 -0.4762
57010SOL    HW289023   6.945  11.041   2.750 -0.1576  1.3579 -0.0156
57011SOL     OW89024   6.923  11.639   0.522  0.2883 -0.3131 -0.2868
57011SOL    HW189025   6.991  11.641   0.455  0.3303 -0.3626 -0.2462
57011SOL    HW289026   6.895  11.548   0.525 -0.5788 -0.0856 -1.1053
57012SOL     OW89027  10.119   4.819   1.524  0.0213  0.3635 -0.0902
57012SOL    HW189028  10.156   4.732   1.508 -0.9558 -0.3071  1.1525
57012SOL    HW289029  10.056   4.832   1.454  2.0169  1.2396 -1.8472
57013SOL     OW89030   0.077   5.399   1.995  0.2143 -0.3166  0.0642
57013SOL    HW189031   0.005   5.391   1.933  0.3873 -1.3456 -0.0277
57013SOL    HW289032   0.144   5.449   1.948  0.1496 -0.6657 -0.4023
57014SOL     OW89033   8.444   3.078   6.805  0.4186  0.1732  0.4864
57014SOL    HW189034   8.476   3.077   6.895 -0.1969  2.1627  0.7786
57014SOL    HW289035   8.524   3.080   6.751  0.9395  3.3430  1.1652
57015SOL     OW89036  13.234   3.100  12.600 -0.3488 -0.4058 -0.1827
57015SOL    HW189037  13.159   3.134  12.648  1.4295  0.3002  2.3036
57015SOL    HW289038  13.278   3.042  12.661  0.9425 -1.1121 -1.6894
57016SOL     OW89039   4.311   4.863   4.607 -0.1291  0.1150 -0.1524
57016SOL    HW189040   4.316   4.812   4.688  0.3779  0.2385 -0.1039
57016SOL    HW289041   4.253   4.811   4.550  1.3338 -1.1454 -0.5572
57017SOL     OW89042  11.502  11.273   9.521  0.2794 -0.0302 -0.2489
57017SOL    HW189043  11.469  11.186   9.499 -1.4154  0.6631 -0.6413
57017SOL    HW289044  11.480  11.284   9.614  2.6473 -0.8943  0.4904
57018SOL     OW89045   8.763   3.078  10.603 -0.1715 -0.1424 -0.4757
57018SOL    HW189046   8.675   3.056  10.573 -0.5643  0.5974  0.1248
57018SOL    HW289047   8.763   3.057  10.696 -0.2321  1.3787 -0.1128
57019SOL     OW89048  11.947   3.367  13.424 -0.0320 -0.1839 -0.2147
57019SOL    HW189049  11.995   3.345  13.504  1.1191  2.0186 -0.2264
57019SOL    HW289050  11.860   3.330  13.438  1.5334 -4.5696 -0.2851
57020SOL     OW89051   7.443   5.740   1.633 -0.1505  0.0603  0.0649
57020SOL    HW189052   7.409   5.756   1.721  1.9065 -0.7338  1.0507
57020SOL    HW289053   7.423   5.648   1.615  0.3877 -0.0791  0.1610
57021SOL     OW89054   9.756   2.346   5.114  0.2995 -0.3026  0.1460
57021SOL    HW189055   9.851   2.341   5.123  0.4065 -2.8937 -1.5605
57021SOL    HW289056   9.741   2.410   5.045  0.6660  1.1258  1.3336
57022SOL     OW89057   1.099  11.663   9.484 -0.3784  0.2043  0.3368
57022SOL    HW189058   1.189  11.688   9.506 -0.6078  0.6108  0.8237
57022SOL    HW289059   1.107  11.573   9.452  0.3052  0.4996 -0.3704
57023SOL     OW89060   6.457   6.813   3.839  0.5150 -0.4553 -0.6341
57023SOL    HW189061   6.477   6.753   3.911 -1.2048 -1.7414 -1.1762
57023SOL    HW289062   6.460   6.759   3.761  0.5377  0.5287 -1.3293
57024SOL     OW89063   6.317  12.091   3.139  0.3335  0.9333 -0.6025
57024SOL    HW189064   6.411  12.074   3.132  0.2573  0.7153 -1.1376
57024SOL    HW289065   6.275  12.012   3.105 -0.0898 -0.0466  1.9706
57025SOL     OW89066   7.490   4.261   9.772  0.2868  0.5977  0.1106
57025SOL    HW189067   7.455   4.208   9.844  3.1356 -0.0668  1.1259
57025SOL    HW289068   7.482   4.351   9.802  1.3112  0.3313  1.2264
57026SOL     OW89069   5.100   6.010   3.064 -0.2152  0.2914  0.2065
57026SOL    HW189070   5.120   6.103   3.075  2.4520 -0.1551 -0.1310
57026SOL    HW289071   5.147   5.967   3.136  0.0053 -0.8990 -0.6245
57027SOL     OW89072   9.134  11.150   1.928 -0.4136 -0.3711  0.0209
57027SOL    HW189073   9.189  11.088   1.880 -0.8684  0.2496 -1.3581
57027SOL    HW289074   9.049  11.144   1.886 -0.8299  0.2196  0.7556
57028SOL     OW89075   6.723   9.688   4.136 -0.1800  0.0478  0.4038
57028SOL    HW189076   6.697   9.634   4.062 -0.1567  0.5388  0.0331
57028SOL    HW289077   6.813   9.715   4.117 -0.0044 -0.2215  0.8439
57029SOL     OW89078   1.106   3.271  11.206  0.0927 -0.2579  0.6088
57029SOL    HW189079   1.127   3.357  11.240  0.6668 -0.0350 -0.2696
57029SOL    HW289080   1.172   3.213  11.244  1.4114  0.1685 -0.8757
57030SOL     OW89081   8.147   3.044   0.400  0.2650 -0.4334  0.4210
57030SOL    HW189082   8.171   2.953   0.382 -0.6975 -0.2808 -2.0426
57030SOL    HW289083   8.114   3.077   0.316 -0.2096  1.9465  1.4626
57031SOL     OW89084  13.717  12.311   0.388  0.2546  0.2464 -0.3781
57031SOL    HW189085  13.793  12.365   0.413 -0.1010  1.0745 -1.0244
57031SOL    HW289086  13.694  12.264   0.468  1.1550  0.3506 -0.0439
57032SOL     OW89087  13.502   2.199  12.098  0.2114  0.0447  0.5930
57032SOL    HW189088  13.537   2.132  12.156 -1.0204  0.1307  1.4772
57032SOL    HW289089  13.538   2.281  12.131 -0.5302  0.0999  1.2934
57033SOL     OW89090   8.292   9.902   5.691 -0.0226  0.0842 -0.3369
57033SOL    HW189091   8.225   9.849   5.648 -0.9359  1.3085 -0.4584
57033SOL    HW289092   8.371   9.887   5.639 -0.0955 -1.5628 -0.0476
57034SOL     OW89093   7.205  11.690   3.911  0.7852 -0.2182  0.6187
57034SOL    HW189094   7.296  11.716   3.896  0.6073  0.1405  0.1577
57034SOL    HW289095   7.184  11.725   3.998  0.5859  1.0935  0.0578
57035SOL     OW89096  10.139  13.771   3.934  0.3952 -0.1813 -0.4163
57035SOL    HW189097  10.203  13.701   3.925  0.2209 -0.3675 -0.2139
57035SOL    HW289098  10.141  13.794   4.027  1.0038  0.6043 -0.6150
57036SOL     OW89099   8.864   0.835   3.271 -0.0569  0.4301  0.8385
57036SOL    HW189100   8.790   0.830   3.332  1.2299 -1.0037  2.3542
57036SOL    HW289101   8.903   0.920   3.288  0.3866 -0.0177  2.1809
57037SOL     OW89102   2.214  13.330   8.014 -0.2165 -0.0371  0.3827
57037SOL    HW189103   2.200  13.323   7.919 -0.3288  0.5155  0.3517
57037SOL    HW289104   2.309  13.334   8.024 -0.2276  1.2392  0.1747
57038SOL     OW89105   7.169   5.135   4.219 -0.4971  0.4367  0.1334
57038SOL    HW189106   7.242   5.081   4.187  1.3643  1.9638  1.5995
57038SOL    HW289107   7.141   5.093   4.300  0.7877  1.4737  1.1447
57039SOL     OW89108  13.877  10.906   9.263  0.6108 -0.0902 -0.1023
57039SOL    HW189109  13.860  10.827   9.212 -0.2091 -0.1300  0.2081
57039SOL    HW289110  13.917  10.966   9.201  1.4424 -0.8173 -0.2879
57040SOL     OW89111   6.467  12.356   7.694  0.2188 -0.0438 -0.1809
57040SOL    HW189112   6.483  12.364   7.788  0.6687  0.5830 -0.3078
57040SOL    HW289113   6.420  12.436   7.670 -0.3791 -0.4467 -0.3997
57041SOL     OW89114   9.669  12.901  11.075  0.2877 -0.4794  0.4425
57041SOL    HW189115   9.578  12.910  11.049 -0.4310 -4.2694  1.1111
57041SOL    HW289116   9.667  12.901  11.171  0.8501 -1.2130  0.4694
57042SOL     OW89117   3.288   2.628   1.732  0.0039  0.2781 -0.2738
57042SOL    HW189118   3.266   2.679   1.809 -1.5411  0.0299 -0.5215
57042SOL    HW289119   3.318   2.544   1.766 -0.0011  0.4167  0.0724
57043SOL     OW89120   8.165   4.161   7.790  0.1725 -0.4010  0.4420
57043SOL    HW189121   8.199   4.239   7.745 -0.7686  0.0993  0.5642
57043SOL    HW289122   8.242   4.106   7.804  0.8519  0.4903  0.3240
57044SOL     OW89123   9.946   8.757  11.643  0.1656  0.6032  0.7500
57044SOL    HW189124   9.855   8.787  11.651  0.6486  2.2623  0.3994
57044SOL    HW289125   9.951   8.721  11.554 -0.3886 -0.4247  1.1228
57045SOL     OW89126   5.276   3.567   4.345  0.0714 -0.6974  0.6086
57045SOL    HW189127   5.369   3.542   4.345  0.2900 -0.0290 -0.9247
57045SOL    HW289128   5.239   3.521   4.270 -0.8019 -0.8049  1.1006
57046SOL     OW89129  12.085   3.363   4.741  0.4524 -0.3918  0.6107
57046SOL    HW189130  12.111   3.286   4.792  0.2952  0.2475  1.6967
57046SOL    HW289131  12.164   3.389   4.695  0.2338 -1.8384 -0.6476
57047SOL     OW89132   3.578   2.145   9.796  0.6882  0.0211  0.2681
57047SOL    HW189133   3.666   2.157   9.761  0.3814 -0.7013 -0.8028
57047SOL    HW289134   3.520   2.167   9.723  0.0348 -1.8898  0.1596
57048SOL     OW89135   3.476   4.795   5.571 -0.4543 -0.4389 -0.2554
57048SOL    HW189136   3.486   4.890   5.576 -1.3033 -0.3743  0.5519
57048SOL    HW289137   3.474   4.766   5.663  0.2699 -1.2944 -0.4946
57049SOL     OW89138  10.710   4.669   1.307  0.4032  0.0652 -0.4323
57049SOL    HW189139  10.735   4.640   1.395  1.4153 -0.4537 -0.8754
57049SOL    HW289140  10.729   4.594   1.251 -0.1116  0.4346 -1.1169
57050SOL     OW89141  10.755  10.026   3.086  0.2576 -0.4136  0.3149
57050SOL    HW189142  10.774   9.944   3.041 -0.5228 -0.9890  1.0171
57050SOL    HW289143  10.751  10.003   3.179 -1.6891  0.0729  0.3971
57051SOL     OW89144   8.407  13.757   5.205  0.2541 -0.4199 -0.8180
57051SOL    HW189145   8.495  13.733   5.234  0.4265  0.0820 -0.9118
57051SOL    HW289146   8.384  13.832   5.260  0.5997  0.5690 -1.9552
57052SOL     OW89147   2.472   8.634   1.685  0.0181  0.1483 -0.3438
57052SOL    HW189148   2.538   8.686   1.639 -1.2685  0.0530 -2.4180
57052SOL    HW289149   2.444   8.569   1.621 -0.0023 -1.7529  1.4644
57053SOL     OW89150   8.113   4.043   9.783  0.4453 -0.0460  0.1295
57053SOL    HW189151   8.139   4.066   9.873  0.5111  0.8010 -0.1010
57053SOL    HW289152   8.068   4.121   9.751  0.0224 -0.5166 -0.4192
57054SOL     OW89153  12.415   8.166  12.663  0.3460  0.5171 -0.6825
57054SOL    HW189154  12.395   8.257  12.638  1.2246  1.1117  0.6940
57054SOL    HW289155  12.490   8.173  12.721 -0.7751 -0.9220  1.0389
57055SOL     OW89156   3.541   8.634   8.515 -0.1707  0.1618  0.2237
57055SOL    HW189157   3.629   8.671   8.506  0.8113 -1.3295  2.6824
57055SOL    HW289158   3.553   8.540   8.500 -1.3150 -0.0584  0.5901
57056SOL     OW89159   2.825   4.177   0.598  0.0235 -0.5535  0.1556
57056SOL    HW189160   2.795   4.212   0.514 -0.1253  0.3556  0.5754
57056SOL    HW289161   2.756   4.200   0.660  0.1907 -1.1025  0.5592
57057SOL     OW89162   3.798  10.542  13.275  0.6330 -0.2797 -0.2363
57057SOL    HW189163   3.839  10.506  13.353  2.0281  0.2021 -0.7072
57057SOL    HW289164   3.781  10.465  13.219  0.0512 -0.5743  0.3363
57058SOL     OW89165   5.088   1.433   1.146  0.3734 -0.2423  0.7962
57058SOL    HW189166   5.109   1.524   1.127 -0.8199 -0.3017 -1.1278
57058SOL    HW289167   5.036   1.436   1.226 -0.9930  0.9689 -0.0887
57059SOL     OW89168  12.342  10.545  10.473  0.0972 -0.4259  0.3704
57059SOL    HW189169  12.436  10.561  10.485  0.0974  0.6441 -0.8021
57059SOL    HW289170  12.316  10.608  10.406 -1.1457 -1.7649 -0.4515
57060SOL     OW89171   0.535   5.843  10.794 -0.0180 -0.2089  0.1653
57060SOL    HW189172   0.475   5.895  10.741 -0.7321 -1.5026 -0.3648
57060SOL    HW289173   0.619   5.850  10.748 -0.0602  0.6112  0.2082
57061SOL     OW89174  13.293   0.941   2.190 -0.0510  0.4049  0.0614
57061SOL    HW189175  13.350   0.877   2.233  0.3682 -0.2877 -1.4436
57061SOL    HW289176  13.228   0.889   2.143  0.5124  1.0282 -1.4859
57062SOL     OW89177   8.936   5.822  11.841  0.5991 -0.0799 -0.2222
57062SOL    HW189178   8.883   5.742  11.847  1.5445 -0.7526 -0.6254
57062SOL    HW289179   8.905   5.866  11.762 -1.1651  0.9030  0.9401
57063SOL     OW89180   0.147  11.572  11.558  0.3556  0.1977  0.0876
57063SOL    HW189181   0.221  11.611  11.513  0.0165  1.0349  0.2332
57063SOL    HW289182   0.177  11.485  11.584  1.0269  0.2477 -0.5024
57064SOL     OW89183  10.563  13.439   1.907  0.0077  0.0462  0.0536
57064SOL    HW189184  10.588  13.384   1.981  0.8470  0.6197  0.2110
57064SOL    HW289185  10.606  13.399   1.832  1.2595  0.9116  0.2906
57065SOL     OW89186  13.251  11.645   5.758  0.4358  0.3865  0.3622
57065SOL    HW189187  13.268  11.673   5.667  3.2175 -0.2335  0.5900
57065SOL    HW289188  13.312  11.697   5.810 -0.7620  0.3591  1.8521
57066SOL     OW89189   3.584   1.403   1.303  0.8572 -0.7989  0.1334
57066SOL    HW189190   3.577   1.497   1.291 -0.7974 -0.7674  1.0216
57066SOL    HW289191   3.628   1.371   1.225  1.2352  0.6810 -0.2732
57067SOL     OW89192  10.565   7.593   2.316 -0.4291 -0.0134 -0.0404
57067SOL    HW189193  10.619   7.547   2.380 -0.0324  0.8061  0.2263
57067SOL    HW289194  10.619   7.597   2.237 -0.7685 -0.6788 -0.3205
57068SOL     OW89195   9.601   6.405  13.509 -0.6269  0.5703  0.3390
57068SOL    HW189196   9.520   6.402  13.457 -0.1092 -0.0418 -0.4515
57068SOL    HW289197   9.670   6.385  13.447 -0.0610 -1.0072  1.4115
57069SOL     OW89198   4.190   6.009   3.880 -0.1067 -0.0706 -0.0260
57069SOL    HW189199   4.233   5.942   3.828  1.0521  0.6698 -0.0525
57069SOL    HW289200   4.229   6.091   3.851  1.3940  0.3128  2.7140
57070SOL     OW89201   4.298   4.669  12.370  0.3159 -0.1194  0.4449
57070SOL    HW189202   4.391   4.668  12.345  0.1790 -0.0452 -0.0620
57070SOL    HW289203   4.296   4.623  12.454  1.2821  2.5206  2.0454
57071SOL     OW89204   8.827  11.436   5.913  0.1440 -0.0257 -0.1697
57071SOL    HW189205   8.741  11.394   5.907  0.4164 -0.7485  0.7144
57071SOL    HW289206   8.840  11.476   5.827 -2.1006  2.1658  0.4075
57072SOL     OW89207  10.897   5.258  10.327 -0.0351 -0.3416  0.1210
57072SOL    HW189208  10.831   5.238  10.260  0.2871 -1.0563  0.0010
57072SOL    HW289209  10.869   5.341  10.365  0.1429  0.4324 -1.3627
57073SOL     OW89210   9.884   9.121   7.432 -0.7321  0.0350  0.1174
57073SOL    HW189211   9.854   9.046   7.484 -0.0862  0.0503  0.5293
57073SOL    HW289212   9.972   9.139   7.465  1.2167 -2.1732 -3.2818
57074SOL     OW89213   3.366   4.947   6.598 -0.5880  0.0246  0.1673
57074SOL    HW189214   3.416   5.013   6.550  0.4598  0.1432  1.3910
57074SOL    HW289215   3.367   4.975   6.689  0.4859 -2.0094  0.8517
57075SOL     OW89216   4.842   0.309  14.046  0.0778 -0.4127  0.8341
57075SOL    HW189217   4.795   0.248  14.103 -0.9676 -0.3122  0.1161
57075SOL    HW289218   4.875   0.255  13.975 -0.6695 -0.1861  0.3061
57076SOL     OW89219   5.320   3.051   3.272 -0.1355  0.2296 -0.2260
57076SOL    HW189220   5.407   3.034   3.238 -0.3708 -0.5670 -0.4510
57076SOL    HW289221   5.261   3.000   3.216 -0.5143 -1.3002  1.4432
57077SOL     OW89222   6.860   4.849   0.492 -0.1635  1.0328 -0.2146
57077SOL    HW189223   6.791   4.884   0.436 -0.3481  0.5840 -0.2733
57077SOL    HW289224   6.921   4.922   0.504  0.4528  0.8316 -1.9077
57078SOL     OW89225  11.846   0.256  10.785  0.4178  0.4410 -0.2858
57078SOL    HW189226  11.928   0.229  10.827 -0.1560 -0.6876  0.1461
57078SOL    HW289227  11.802   0.309  10.852  1.2759  2.0066 -0.9203
57079SOL     OW89228   4.006  13.845   1.112  0.0181  0.5144  0.1163
57079SOL    HW189229   3.934  13.791   1.144  1.0082 -0.2706  1.0902
57079SOL    HW289230   4.055  13.868   1.190 -0.1984  2.6025 -0.3124
57080SOL     OW89231   0.665   4.321   9.679  0.0451 -0.1953 -0.0399
57080SOL    HW189232   0.738   4.366   9.636  1.5323 -1.5623  0.9425
57080SOL    HW289233   0.686   4.326   9.772 -0.5371 -1.5625  0.1891
57081SOL     OW89234   7.430   1.284   0.346  0.1694  0.3687  0.1325
57081SOL    HW189235   7.502   1.330   0.302  0.3947  1.1183  1.2456
57081SOL    HW289236   7.378   1.248   0.274  1.9829 -0.7279 -0.7138
57082SOL     OW89237  11.286   4.215  10.931 -0.2203 -0.3089  0.3797
57082SOL    HW189238  11.256   4.255  10.850 -0.6005  0.0717  0.7078
57082SOL    HW289239  11.281   4.121  10.914 -1.4657 -0.2505  0.3873
57083SOL     OW89240  10.561   8.244   8.904 -0.1152 -0.4703  0.5192
57083SOL    HW189241  10.603   8.223   8.821  1.8942 -2.7293  1.9690
57083SOL    HW289242  10.471   8.215   8.893  0.3844 -1.7442 -0.5524
57084SOL     OW89243  11.859   3.348  11.706 -0.3610 -0.2452  0.1381
57084SOL    HW189244  11.783   3.406  11.712 -0.0155  0.1558  0.8651
57084SOL    HW289245  11.856   3.297  11.787 -0.2861 -0.7675 -0.1894
57085SOL     OW89246   0.258   5.559   3.178  0.0685 -0.5721 -0.1605
57085SOL    HW189247   0.197   5.604   3.236  1.0364  0.6345 -0.0295
57085SOL    HW289248   0.281   5.624   3.112  1.5217 -0.8516  0.0304
57086SOL     OW89249   1.681   2.508   0.369 -0.1833  0.5843 -0.9614
57086SOL    HW189250   1.594   2.549   0.367 -1.1019 -1.2993 -2.1599
57086SOL    HW289251   1.711   2.522   0.459 -1.5699  1.5821 -0.6088
57087SOL     OW89252   8.353   3.061   0.649 -0.4915  0.4355 -0.1505
57087SOL    HW189253   8.268   3.071   0.605 -2.0100 -0.2150  2.4193
57087SOL    HW289254   8.400   3.142   0.629 -1.2569  0.3691 -2.5004
57088SOL     OW89255   7.242   7.550  12.982 -0.3311 -0.1701 -0.1351
57088SOL    HW189256   7.205   7.582  12.900 -0.8834  0.4540  0.3472
57088SOL    HW289257   7.293   7.473  12.957 -0.9511 -0.3143 -0.9785
57089SOL     OW89258  13.405   4.450   2.573  0.1891  0.0274  0.2507
57089SOL    HW189259  13.498   4.467   2.582  0.2138  0.0107  0.0340
57089SOL    HW289260  13.400   4.368   2.523  0.0504  0.5943 -0.6855
57090SOL     OW89261   6.144   6.492  10.381 -0.3829 -0.0844  0.7475
57090SOL    HW189262   6.200   6.502  10.458  0.1376 -0.1637  0.3811
57090SOL    HW289263   6.108   6.404  10.389 -0.1619 -0.1705  0.7865
57091SOL     OW89264   8.792  12.762   2.848  0.2598 -0.7013  0.4452
57091SOL    HW189265   8.727  12.740   2.781 -0.1419 -0.0215  0.5958
57091SOL    HW289266   8.740  12.777   2.927  0.5875 -0.0112  0.5339
57092SOL     OW89267  11.031  13.129   2.612  0.0252 -0.7072 -0.3247
57092SOL    HW189268  11.050  13.074   2.536  0.7500 -1.4006  0.3334
57092SOL    HW289269  10.940  13.156   2.600 -0.2415 -1.7717 -0.8482
57093SOL     OW89270   1.920  10.606   8.682 -0.0112 -0.2852 -0.2974
57093SOL    HW189271   2.013  10.601   8.704 -0.1103 -0.5891  0.0767
57093SOL    HW289272   1.907  10.695   8.651  0.0892  0.2770  1.1678
57094SOL     OW89273   1.917   1.152  12.664  0.2084 -0.2358  0.1973
57094SOL    HW189274   1.902   1.244  12.642  1.3058  0.3952  1.8659
57094SOL    HW289275   1.833   1.120  12.698 -0.2294  0.0826 -0.5781
57095SOL     OW89276  13.879   6.705  10.951 -0.0450  0.3407  0.7547
57095SOL    HW189277  13.801   6.759  10.938  0.3714  1.2536  1.8090
57095SOL    HW289278  13.951   6.756  10.913  0.0255 -0.5671 -0.3542
57096SOL     OW89279   0.908   1.819  11.639  0.2140  0.0806  0.0900
57096SOL    HW189280   0.924   1.908  11.671 -0.6055 -0.2994  1.6257
57096SOL    HW289281   0.981   1.768  11.673  0.3325  0.0288 -0.2367
57097SOL     OW89282  11.556   8.490   9.672  0.2939  0.1464  0.1024
57097SOL    HW189283  11.627   8.429   9.693  0.3662 -0.3991 -1.5807
57097SOL    HW289284  11.477   8.447   9.705  0.4491 -0.4834 -0.3274
57098SOL     OW89285   9.731   8.105   6.543  0.2870 -0.3879 -0.0618
57098SOL    HW189286   9.654   8.144   6.502 -0.2335 -2.0156 -0.7381
57098SOL    HW289287   9.806   8.143   6.496 -0.2044 -0.4031 -0.8679
57099SOL     OW89288   8.635   6.361  12.438 -0.1268  0.2340 -0.0768
57099SOL    HW189289   8.630   6.320  12.524 -0.1313  0.0036 -0.1863
57099SOL    HW289290   8.724   6.344  12.408 -0.8050 -1.7845 -1.1463
57100SOL     OW89291   3.719   4.078  11.052 -0.5410  0.3230 -0.2603
57100SOL    HW189292   3.688   3.988  11.061  0.8517 -0.3518 -1.6971
57100SOL    HW289293   3.783   4.089  11.122 -0.1310 -0.0807 -0.5690
57101SOL     OW89294   5.832   1.130   9.559  0.3940 -0.2414  0.3179
57101SOL    HW189295   5.862   1.170   9.640 -0.6307  0.0467  0.5673
57101SOL    HW289296   5.910   1.087   9.523  1.1449  0.6687  0.8186
57102SOL     OW89297  13.022   4.310   3.072  0.2631 -0.6898 -0.2633
57102SOL    HW189298  13.016   4.395   3.028  2.5310 -0.1285  0.3844
57102SOL    HW289299  12.943   4.306   3.125 -0.7104  0.2467 -1.5653
57103SOL     OW89300   9.425   9.786  12.291  0.5341  0.1384  0.2528
57103SOL    HW189301   9.479   9.819  12.219  0.2614  1.3925  0.5990
57103SOL    HW289302   9.355   9.736  12.249  1.8570 -1.4182 -0.2075
57104SOL     OW89303  13.882   9.736  13.901 -0.0512  0.2232 -0.5387
57104SOL    HW189304  13.916   9.673  13.964  0.5525 -0.6607 -1.7303
57104SOL    HW289305  13.855   9.811  13.955  0.5764 -0.4488  0.7483
57105SOL     OW89306   7.915   4.902   8.608  0.0408  0.3549  0.0735
57105SOL    HW189307   7.900   4.824   8.555  2.9882  1.7391 -3.1692
57105SOL    HW289308   7.959   4.870   8.687 -0.5739 -1.4208 -0.2836
57106SOL     OW89309  14.110   8.183   3.447  0.7948  0.1497  0.0225
57106SOL    HW189310  14.160   8.226   3.516  1.3276  0.8764 -0.7991
57106SOL    HW289311  14.063   8.254   3.403  0.8065 -0.2419 -0.6399
57107SOL     OW89312  11.361   0.609   3.597  0.3360  0.2705  0.0501
57107SOL    HW189313  11.399   0.524   3.575  0.2578  0.1485  0.3778
57107SOL    HW289314  11.406   0.671   3.539  0.2288 -0.0213 -0.3537
57108SOL     OW89315  12.579   6.842   3.647  0.3116  0.3054  0.2017
57108SOL    HW189316  12.597   6.824   3.739  2.2113  1.1106  0.0194
57108SOL    HW289317  12.574   6.937   3.641 -1.4632  0.2208 -0.2753
57109SOL     OW89318  12.731   0.409   1.772 -0.4093 -0.1515  0.4094
57109SOL    HW189319  12.795   0.350   1.733 -0.9745  0.3959 -1.4636
57109SOL    HW289320  12.783   0.474   1.818  0.2967 -0.8739  0.6540
57110SOL     OW89321   7.006   3.815  13.385  0.0286  0.5459  0.0663
57110SOL    HW189322   7.058   3.735  13.392 -0.4455  0.3403  1.4718
57110SOL    HW289323   6.920   3.786  13.354  0.7282  0.9153 -2.5290
57111SOL     OW89324  11.403  10.357  11.324 -0.3464 -0.4113 -0.1177
57111SOL    HW189325  11.457  10.332  11.398 -0.1173  1.2313  0.3166
57111SOL    HW289326  11.465  10.376  11.253 -0.5500 -1.7105 -0.6788
57112SOL     OW89327  11.081   0.143  10.692  0.3049 -0.0959 -0.3414
57112SOL    HW189328  11.141   0.087  10.643  0.1703 -0.5760  0.0300
57112SOL    HW289329  11.127   0.165  10.773  0.4940  0.6261 -0.6362
57113SOL     OW89330   2.380   8.128   5.124 -0.1996  0.3223  0.6562
57113SOL    HW189331   2.297   8.136   5.077  0.0262  1.3257  0.4057
57113SOL    HW289332   2.445   8.163   5.063  0.3057  0.2311  1.1391
57114SOL     OW89333   9.307   7.245  11.526 -0.5077  0.5925 -0.2682
57114SOL    HW189334   9.282   7.252  11.618 -3.0920 -0.5975 -0.7987
57114SOL    HW289335   9.342   7.157  11.517  1.2503  1.2342 -0.1671
57115SOL     OW89336  12.616   0.515   7.088 -0.8960  0.6405  0.1443
57115SOL    HW189337  12.565   0.556   7.018  0.4635  4.3800  1.1297
57115SOL    HW289338  12.706   0.540   7.070  0.0101 -1.5922  1.1939
57116SOL     OW89339   3.232   5.016   6.209 -0.0674 -0.1978  0.2559
57116SOL    HW189340   3.211   4.930   6.245 -3.4856 -0.7079 -2.4787
57116SOL    HW289341   3.318   5.006   6.169 -0.3431 -2.3067  0.1101
57117SOL     OW89342   3.058   1.917   9.566  0.0421  0.8925 -0.9039
57117SOL    HW189343   3.001   1.867   9.625  2.0628  0.7727  1.1241
57117SOL    HW289344   3.037   1.885   9.479 -0.9962 -1.1581  0.0265
57118SOL     OW89345   5.151  10.077  10.108  0.1554 -0.3401 -0.1037
57118SOL    HW189346   5.109  10.004  10.063 -2.6447  0.2501  1.2885
57118SOL    HW289347   5.129  10.063  10.200 -0.3201  2.0997  0.2247
57119SOL     OW89348   8.243  13.144  13.960  0.2266  0.4032  0.3590
57119SOL    HW189349   8.294  13.149  14.041  2.1446  0.2362 -0.7723
57119SOL    HW289350   8.262  13.057  13.925  0.9534  1.1448 -1.1829
57120SOL     OW89351   3.524   4.116   7.857 -0.5462 -0.1333 -0.5350
57120SOL    HW189352   3.508   4.040   7.801 -1.5516 -0.3269 -0.0116
57120SOL    HW289353   3.560   4.182   7.798  0.8718 -1.1874 -0.8874
57121SOL     OW89354   3.688  12.165  12.202 -0.4066  0.4093  0.3922
57121SOL    HW189355   3.600  12.140  12.231 -0.5797  1.5260  0.9062
57121SOL    HW289356   3.746  12.098  12.238 -1.0803 -0.5724 -0.3034
57122SOL     OW89357   7.804  11.799   2.821 -0.5425  0.1954 -0.0182
57122SOL    HW189358   7.804  11.794   2.726  0.2625  1.0855 -0.0850
57122SOL    HW289359   7.730  11.854   2.843 -1.1310 -0.5566 -0.0794
57123SOL     OW89360   0.477   9.655   6.945 -0.0936  0.4381 -0.2229
57123SOL    HW189361   0.517   9.692   6.866 -0.0623  1.8512  0.4402
57123SOL    HW289362   0.544   9.663   7.012 -0.7756  0.9866  0.4080
57124SOL     OW89363   3.817   4.868  12.377  0.0545  0.3063  0.3359
57124SOL    HW189364   3.796   4.812  12.303 -0.3957  2.4470 -1.2405
57124SOL    HW289365   3.913   4.867  12.382  0.1402  0.8885 -0.9154
57125SOL     OW89366  14.116   6.029   3.661 -0.6256  0.1774  0.1200
57125SOL    HW189367  14.119   5.961   3.729  0.9317  1.3201  1.2848
57125SOL    HW289368  14.207   6.037   3.632 -1.0236  0.7961 -0.9994
57126SOL     OW89369   2.130  12.803  11.350 -0.6314 -0.2286 -0.4804
57126SOL    HW189370   2.225  12.807  11.363 -0.8969  1.0878  1.3311
57126SOL    HW289371   2.102  12.726  11.400 -0.5612 -0.5207 -0.8811
57127SOL     OW89372  11.610   4.032  10.265  0.7282  0.6214 -0.4660
57127SOL    HW189373  11.652   4.052  10.349 -0.8444  0.3489  0.4254
57127SOL    HW289374  11.549   3.962  10.285 -1.3166  2.0649 -1.3200
57128SOL     OW89375   9.818  11.239   7.788  0.2733  0.0262  0.1277
57128SOL    HW189376   9.906  11.266   7.763 -0.1031 -0.9323 -2.5318
57128SOL    HW289377   9.760  11.301   7.745 -0.4015 -0.3867  0.4258
57129SOL     OW89378  11.744   8.455   1.498  0.0487  0.5185  0.4060
57129SOL    HW189379  11.705   8.514   1.433 -1.3100  0.8363  1.4494
57129SOL    HW289380  11.718   8.367   1.470 -1.1595  0.7022  0.8718
57130SOL     OW89381  11.931   6.737   1.569 -0.2646  0.0897 -0.3302
57130SOL    HW189382  12.016   6.695   1.575 -0.0251  0.8218  2.1328
57130SOL    HW289383  11.875   6.690   1.630 -0.8955  1.2488  0.0357
57131SOL     OW89384   4.331   2.304   0.724 -0.0491  0.0821  0.3649
57131SOL    HW189385   4.344   2.224   0.774  1.9507 -0.4475 -0.8847
57131SOL    HW289386   4.237   2.310   0.711 -0.4279 -0.8478  2.3666
57132SOL     OW89387  12.267   1.716   5.536  0.0080 -0.4628 -0.1067
57132SOL    HW189388  12.283   1.679   5.449 -1.5208 -1.0914 -0.1654
57132SOL    HW289389  12.185   1.765   5.526  1.3353  1.9731  0.2918
57133SOL     OW89390   4.617   3.943   6.404 -0.1095 -0.1181 -0.3686
57133SOL    HW189391   4.691   3.905   6.451 -1.7082 -0.0648  2.4218
57133SOL    HW289392   4.575   4.000   6.468 -2.0054  0.6411 -2.1666
57134SOL     OW89393  12.138   3.501   3.104 -0.1164  0.4183  0.2735
57134SOL    HW189394  12.197   3.568   3.139  1.1768 -0.3441 -0.3783
57134SOL    HW289395  12.172   3.481   3.017 -1.3295 -0.0851 -0.1169
57135SOL     OW89396  11.954  10.589  13.990 -0.2897  0.4061  0.7887
57135SOL    HW189397  11.859  10.575  13.996 -0.1396 -0.8704  0.4818
57135SOL    HW289398  11.973  10.656  14.055 -1.5238  1.2959  0.2624
57136SOL     OW89399   5.748  10.676  13.662  0.2719  0.1578  0.0630
57136SOL    HW189400   5.759  10.604  13.600 -0.7118  0.4122 -0.4199
57136SOL    HW289401   5.682  10.732  13.622  0.8758  1.2302  0.5276
57137SOL     OW89402   7.543  11.363   6.678 -0.3380 -0.2017  0.2632
57137SOL    HW189403   7.463  11.344   6.629 -0.2577 -0.3255  0.1807
57137SOL    HW289404   7.587  11.279   6.686 -0.9896 -0.4423  1.7018
57138SOL     OW89405  12.920   8.605   1.319 -0.7183 -0.2453  0.0998
57138SOL    HW189406  12.854   8.590   1.251 -1.4249 -1.6204  1.0415
57138SOL    HW289407  12.903   8.537   1.384 -0.3402  1.2623  1.8670
57139SOL     OW89408   4.259   5.410  11.925  0.2052  0.1948  0.4402
57139SOL    HW189409   4.194   5.380  11.988  0.8435 -0.8936  0.6075
57139SOL    HW289410   4.325   5.341  11.924  1.1564  1.0826 -0.0301
57140SOL     OW89411   7.555   0.927   3.464  0.0465 -0.0135 -0.3009
57140SOL    HW189412   7.554   1.021   3.482  0.6421  0.3128 -1.7923
57140SOL    HW289413   7.640   0.898   3.497  0.1956  0.1338 -0.5518
57141SOL     OW89414  11.099   0.924   7.189  0.0491 -0.1962 -0.0409
57141SOL    HW189415  11.098   0.830   7.172 -2.2239  0.0734 -1.9698
57141SOL    HW289416  11.016   0.941   7.233 -0.2608  1.0905 -1.0716
57142SOL     OW89417   2.293   3.061   0.338  0.2387  0.2863 -0.4164
57142SOL    HW189418   2.273   3.016   0.420 -0.4344 -0.8908 -1.1925
57142SOL    HW289419   2.376   3.105   0.354  0.8148 -1.0562  0.4641
57143SOL     OW89420   0.790   8.481   8.216 -0.0097 -0.4827 -0.2312
57143SOL    HW189421   0.882   8.463   8.197  0.7897  1.9300  0.9856
57143SOL    HW289422   0.749   8.493   8.130  0.4701 -2.6796 -0.8454
57144SOL     OW89423  13.556  12.043   5.121 -0.9124  0.3950 -0.2983
57144SOL    HW189424  13.634  12.072   5.073 -1.4662  0.3827 -1.2284
57144SOL    HW289425  13.581  11.958   5.157  0.0184  1.0652  0.7122
57145SOL     OW89426   2.371   2.293  13.709 -0.2674  0.2983 -0.3443
57145SOL    HW189427   2.363   2.231  13.636  0.9641  0.3976 -0.5794
57145SOL    HW289428   2.331   2.373  13.677 -0.3122  0.1476 -0.6674
57146SOL     OW89429   8.120   1.690   7.855 -0.1229  0.4550 -0.2283
57146SOL    HW189430   8.212   1.704   7.831 -0.6547  2.2096 -1.4416
57146SOL    HW289431   8.110   1.735   7.939 -0.1982  1.5500 -0.8090
57147SOL     OW89432  11.532  10.593  12.470  0.1519 -0.0641  0.4529
57147SOL    HW189433  11.446  10.569  12.435  0.0895  0.7788 -0.0068
57147SOL    HW289434  11.514  10.616  12.562  0.3001 -2.1776  1.0671
57148SOL     OW89435  11.319   7.620   4.641 -0.3013 -0.1569  0.2236
57148SOL    HW189436  11.225   7.606   4.650 -0.3311 -0.7274 -0.8800
57148SOL    HW289437  11.332   7.644   4.550  0.8622 -2.3201 -0.2456
57149SOL     OW89438  11.101   3.092   4.121  0.3834 -0.3630  0.5190
57149SOL    HW189439  11.182   3.044   4.141  0.4913 -0.8218 -0.9016
57149SOL    HW289440  11.032   3.043   4.165  0.9010  0.2256  2.0283
57150SOL     OW89441   4.277   6.133   8.451 -0.1908  0.6621  0.1093
57150SOL    HW189442   4.323   6.217   8.443  0.2193  0.4107 -0.2332
57150SOL    HW289443   4.244   6.132   8.540  1.3927  0.3838  0.7227
57151SOL     OW89444   1.827   9.405   1.139 -0.3000 -0.2042  0.2050
57151SOL    HW189445   1.836   9.333   1.076 -0.8629 -0.8105  0.7932
57151SOL    HW289446   1.861   9.482   1.093 -1.9877 -0.3263 -1.3824
57152SOL     OW89447   7.321   9.478  10.334  0.6497  1.1553  0.3903
57152SOL    HW189448   7.298   9.436  10.251 -0.0820  1.1702  0.5848
57152SOL    HW289449   7.407   9.517  10.318  0.7951  0.6116 -0.1624
57153SOL     OW89450   1.105  12.484   0.117 -0.1063  0.3899  0.6371
57153SOL    HW189451   1.150  12.521   0.193 -0.7276 -0.6149  1.5103
57153SOL    HW289452   1.172  12.430   0.074  0.3654  1.2874  0.2130
57154SOL     OW89453   8.108   7.249   4.482  0.9321 -0.2773  0.4788
57154SOL    HW189454   8.048   7.322   4.500  0.8205 -0.5145  1.1011
57154SOL    HW289455   8.195   7.289   4.479  0.8765 -0.1243  0.8827
57155SOL     OW89456   3.003   4.535   8.942 -0.0120 -0.1555 -0.0979
57155SOL    HW189457   2.922   4.558   8.897  0.0672  1.6362  0.5873
57155SOL    HW289458   2.996   4.578   9.027  2.3018  1.4190 -0.5995
57156SOL     OW89459   1.105   5.103   1.939 -0.3514 -0.0555 -0.4320
57156SOL    HW189460   1.059   5.036   1.888 -1.6261 -0.6877  1.4479
57156SOL    HW289461   1.065   5.186   1.911 -0.2688 -0.2737 -1.2215
57157SOL     OW89462   4.088   0.599   8.155 -0.1867  0.3943 -0.4308
57157SOL    HW189463   4.113   0.511   8.127  0.6007  0.5885 -0.3459
57157SOL    HW289464   4.042   0.585   8.238 -0.4576  0.0305 -0.6360
57158SOL     OW89465   6.580   9.328   9.081 -0.2338  0.3204  0.3036
57158SOL    HW189466   6.535   9.385   9.019  1.7719  0.8330 -0.7784
57158SOL    HW289467   6.577   9.376   9.164  0.6467  1.6556 -0.3840
57159SOL     OW89468   2.958   0.469   8.785  0.2911 -0.6570  0.4263
57159SOL    HW189469   2.984   0.555   8.821 -1.4855  0.7321 -1.3950
57159SOL    HW289470   2.866   0.479   8.763  0.0386 -3.0693  0.1141
57160SOL     OW89471   7.648  11.317   2.285  0.5057  0.6740  0.9401
57160SOL    HW189472   7.569  11.320   2.339 -0.3604  2.0069 -0.3280
57160SOL    HW289473   7.709  11.376   2.329  0.8967 -0.4911  2.0189
57161SOL     OW89474  11.429   0.907   0.015  0.1140 -0.4602 -0.3021
57161SOL    HW189475  11.457   0.829  -0.034 -1.1121 -2.2826  1.7103
57161SOL    HW289476  11.338   0.920  -0.012 -0.2125 -0.7922  0.6268
57162SOL     OW89477  11.570   1.727   5.783 -0.1882 -0.7075  0.2876
57162SOL    HW189478  11.574   1.817   5.816 -2.1542 -0.6950  0.6203
57162SOL    HW289479  11.562   1.673   5.862 -1.4126 -0.9647  0.0054
57163SOL     OW89480   6.941  10.038   3.697  0.3494  0.1447  0.1219
57163SOL    HW189481   6.851  10.064   3.678  0.2045 -0.3118  0.1959
57163SOL    HW289482   6.985  10.041   3.611  0.2605  0.3340  0.0817
57164SOL     OW89483   2.768   0.526   2.849 -0.0090 -0.3602 -0.1507
57164SOL    HW189484   2.700   0.589   2.824 -1.0099 -1.2990  0.0901
57164SOL    HW289485   2.719   0.452   2.885  1.0686 -1.6417 -1.2056
57165SOL     OW89486   4.972   2.784  12.841  0.4413  0.2510 -0.6009
57165SOL    HW189487   5.040   2.808  12.904  0.3611 -0.3106 -0.2817
57165SOL    HW289488   5.004   2.703  12.801  0.1113  0.1529 -0.6740
57166SOL     OW89489   4.404   3.905   0.409 -0.5029  0.1828  0.0551
57166SOL    HW189490   4.366   3.974   0.464 -1.6856 -0.9202  0.6950
57166SOL    HW289491   4.452   3.849   0.471 -2.3398 -1.4046  0.1419
57167SOL     OW89492   2.347   6.538   0.828 -0.4817  0.1413 -0.0063
57167SOL    HW189493   2.394   6.608   0.782 -0.0189 -0.1934 -0.0453
57167SOL    HW289494   2.398   6.523   0.907 -1.2069  0.6264  0.5654
57168SOL     OW89495   6.421   7.152   8.073 -0.1063  0.1241 -0.1565
57168SOL    HW189496   6.431   7.247   8.080  0.0914 -0.0006  2.1106
57168SOL    HW289497   6.428   7.120   8.163  0.4260 -2.1178 -0.9108
57169SOL     OW89498   0.254  11.146  11.794  0.2277  0.2684  0.2951
57169SOL    HW189499   0.195  11.110  11.860 -1.0973  2.3250  0.3381
57169SOL    HW289500   0.339  11.148  11.836  0.0584 -1.3211  0.7935
57170SOL     OW89501   1.782   5.693  13.188 -0.1412 -0.2594 -0.2177
57170SOL    HW189502   1.744   5.715  13.102  0.7597  1.0391 -0.3162
57170SOL    HW289503   1.707   5.690  13.247 -0.8614 -1.8373 -1.1490
57171SOL     OW89504  10.304  11.749  10.598  0.0168 -0.0041 -0.4640
57171SOL    HW189505  10.289  11.840  10.574  1.7913  0.3421 -0.3482
57171SOL    HW289506  10.216  11.711  10.603 -0.7643  1.7440 -0.2939
57172SOL     OW89507  13.300  10.174   8.762  0.3005  0.1029 -0.2372
57172SOL    HW189508  13.244  10.115   8.711 -0.1530  1.4628 -1.3809
57172SOL    HW289509  13.255  10.258   8.759  0.8558  0.5115  1.4914
57173SOL     OW89510   1.231  12.140  12.467  0.0568  0.3846  0.2610
57173SOL    HW189511   1.255  12.062  12.417 -0.3376 -0.3396  1.1777
57173SOL    HW289512   1.136  12.146  12.460  0.1306  1.1506 -0.3108
57174SOL     OW89513  10.276  11.188  11.442 -0.0881  0.5142 -0.2236
57174SOL    HW189514  10.232  11.271  11.456 -0.6047  0.0973  0.7543
57174SOL    HW289515  10.257  11.137  11.521  2.6086  0.5060  0.5204
57175SOL     OW89516  13.757   4.406   7.783 -0.4521 -0.2239 -0.1908
57175SOL    HW189517  13.690   4.363   7.837 -0.4710  0.4329  0.3169
57175SOL    HW289518  13.762   4.352   7.704  0.6424 -2.0901  1.0705
57176SOL     OW89519   8.358   5.219  12.595  0.4685  0.1724  0.1930
57176SOL    HW189520   8.333   5.128  12.605  0.2777  0.2930  0.9440
57176SOL    HW289521   8.419   5.220  12.521 -0.7665 -0.3046 -0.8601
57177SOL     OW89522  11.050   7.763   5.260  0.5642  0.6127  0.0903
57177SOL    HW189523  11.048   7.747   5.355 -1.6196 -0.2539 -0.0609
57177SOL    HW289524  11.025   7.855   5.251  3.2206  1.4715  0.4086
57178SOL     OW89525  11.081   5.733   1.947 -0.4590  0.6088  0.0348
57178SOL    HW189526  11.038   5.812   1.982  0.4785  1.2339 -0.1916
57178SOL    HW289527  11.128   5.697   2.022  0.9132  1.5157 -0.3434
57179SOL     OW89528   7.974   6.853   8.119  0.0821  0.0553 -0.0337
57179SOL    HW189529   7.884   6.841   8.150  0.2536 -3.5787 -0.4868
57179SOL    HW289530   7.966   6.863   8.024  0.1220 -0.3025 -0.0783
57180SOL     OW89531  12.774   6.982  12.977  0.3404  0.0569  0.4688
57180SOL    HW189532  12.693   6.931  12.967  1.2587 -1.5252  0.7659
57180SOL    HW289533  12.744   7.070  12.997 -1.3339 -0.2225 -0.5775
57181SOL     OW89534   7.986  12.377   7.519  0.0402  0.4753  0.4282
57181SOL    HW189535   7.928  12.391   7.444 -0.4774 -2.8045  0.0400
57181SOL    HW289536   8.061  12.435   7.503 -0.1154  0.0135 -2.6032
57182SOL     OW89537   2.617   6.246   0.261  0.3476  0.2393 -0.0671
57182SOL    HW189538   2.564   6.272   0.336 -0.4040  0.8906 -0.8079
57182SOL    HW289539   2.685   6.312   0.255  0.6012  0.0074  0.2300
57183SOL     OW89540  10.721   9.008  10.832  0.0402  0.2921 -0.3035
57183SOL    HW189541  10.790   8.945  10.854  0.3091  1.2413  1.8178
57183SOL    HW289542  10.643   8.954  10.820  0.3059 -0.5112  1.2392
57184SOL     OW89543   7.002   9.366   6.875  0.1320 -0.4849  0.0766
57184SOL    HW189544   7.090   9.402   6.868  0.3205 -1.2213 -2.2693
57184SOL    HW289545   6.944   9.442   6.872  0.6356 -0.1098 -0.3549
57185SOL     OW89546  11.936   3.195   9.798 -0.0109 -0.2586  0.3695
57185SOL    HW189547  11.910   3.209   9.707 -0.0404 -1.8140  0.1045
57185SOL    HW289548  11.887   3.261   9.848 -1.3686 -0.5270 -0.5529
57186SOL     OW89549  13.597  13.505   1.204 -0.3437 -0.2462 -0.2441
57186SOL    HW189550  13.523  13.461   1.162  0.1713 -0.7611 -0.6228
57186SOL    HW289551  13.606  13.462   1.289 -1.5462  0.9645  0.5484
57187SOL     OW89552  12.125   3.659  13.018  0.2147  0.1482 -0.0104
57187SOL    HW189553  12.087   3.708  13.091  1.3628 -1.5671  1.8563
57187SOL    HW289554  12.079   3.575  13.019 -0.6191  0.5231 -2.1300
57188SOL     OW89555  11.030   0.843   5.518  0.1499 -1.0468  0.0115
57188SOL    HW189556  11.023   0.899   5.441 -0.0715  1.0546  1.4837
57188SOL    HW289557  11.039   0.754   5.482  2.1884  0.0306 -2.4736
57189SOL     OW89558   5.335  12.210  11.677 -0.1111 -0.4356  0.2724
57189SOL    HW189559   5.408  12.165  11.721 -0.7293 -0.0428  1.7548
57189SOL    HW289560   5.315  12.284  11.734  0.1900  1.1719 -1.5679
57190SOL     OW89561   7.512   7.494  12.784 -0.2940  0.8759 -0.0106
57190SOL    HW189562   7.604   7.481  12.759 -0.3827  2.6137 -1.4783
57190SOL    HW289563   7.467   7.415  12.754  0.7573 -0.2201  1.1652
57191SOL     OW89564   8.370   0.335   3.481  0.8894  0.3509 -0.5819
57191SOL    HW189565   8.348   0.409   3.426 -0.1873  0.2702 -0.2902
57191SOL    HW289566   8.455   0.356   3.518  0.6199  1.4105 -0.5493
57192SOL     OW89567   6.072   3.326  12.257 -0.2815  0.7029  0.9705
57192SOL    HW189568   6.103   3.415  12.243 -0.2600  0.9349  2.3725
57192SOL    HW289569   5.977   3.335  12.268 -0.4469  0.3894 -0.0156
57193SOL     OW89570   4.779   3.912   1.492 -0.3620  0.0155 -0.0881
57193SOL    HW189571   4.806   3.846   1.556 -2.5268  0.2878  1.2171
57193SOL    HW289572   4.712   3.869   1.439  0.2791  0.2990 -1.1685
57194SOL     OW89573   3.142   0.316  12.054  0.6329 -0.1742  0.0769
57194SOL    HW189574   3.050   0.341  12.060  0.6473  0.0007 -0.3600
57194SOL    HW289575   3.140   0.230  12.011  0.7693  0.8788 -2.2202
57195SOL     OW89576   2.750   9.458  10.822  0.0924 -0.1171  0.5040
57195SOL    HW189577   2.790   9.469  10.908 -1.6938  0.1224  1.3583
57195SOL    HW289578   2.723   9.547  10.797  2.2816  0.1525 -1.2389
57196SOL     OW89579   5.591   1.812  11.555  0.6096  0.4042 -0.0906
57196SOL    HW189580   5.500   1.839  11.565  0.2007 -0.0385 -2.2857
57196SOL    HW289581   5.590   1.717  11.564  0.8521  0.3936 -0.1491
57197SOL     OW89582   4.999  12.455   8.808 -0.8041  0.1575  0.1735
57197SOL    HW189583   5.062  12.484   8.742 -0.6650  1.3208  0.7827
57197SOL    HW289584   4.935  12.526   8.812 -0.7264  0.1706  1.3876
57198SOL     OW89585   2.545   8.399   4.649  0.2890 -0.0790 -0.1465
57198SOL    HW189586   2.471   8.341   4.667  0.6863 -0.2706  0.9615
57198SOL    HW289587   2.616   8.340   4.623  0.1428  0.0857 -0.9668
57199SOL     OW89588  11.864   1.532  10.757  0.0209 -0.1442  0.1010
57199SOL    HW189589  11.815   1.480  10.693  0.3521  0.9683 -1.1095
57199SOL    HW289590  11.886   1.470  10.827 -1.3638 -1.1244 -0.2917
57200SOL     OW89591   7.166   4.318  11.349  0.0754 -0.5692 -0.5316
57200SOL    HW189592   7.142   4.401  11.389  0.6931 -1.4413  1.8218
57200SOL    HW289593   7.242   4.338  11.294 -0.6158  0.6208 -1.0981
57201SOL     OW89594  13.703   2.064   9.538  0.2828  0.1204  0.4301
57201SOL    HW189595  13.771   2.069   9.604  1.1251  1.5985 -0.5088
57201SOL    HW289596  13.633   2.121   9.571  1.6734  2.8133 -0.9645
57202SOL     OW89597  10.567  13.307   0.054 -0.6374  0.2143 -0.6756
57202SOL    HW189598  10.483  13.277   0.089 -1.2067  0.3108 -1.9170
57202SOL    HW289599  10.629  13.238   0.079 -1.1329  0.0007  0.0072
57203SOL     OW89600   8.781   2.045   5.851 -0.1849  0.1375 -0.8744
57203SOL    HW189601   8.853   1.986   5.825 -1.6837 -1.3565 -1.8462
57203SOL    HW289602   8.763   2.096   5.773 -1.1164 -0.5316 -1.1126
57204SOL     OW89603   9.188   4.878   8.834  0.6981  0.1154 -0.2661
57204SOL    HW189604   9.255   4.816   8.806  0.3337 -0.2860 -0.2587
57204SOL    HW289605   9.178   4.862   8.927  1.1978  0.7689 -0.0857
57205SOL     OW89606   6.100   3.806  12.892 -0.2973  0.2679 -0.1322
57205SOL    HW189607   6.175   3.787  12.834 -1.4112  0.9895 -1.9057
57205SOL    HW289608   6.078   3.897  12.871 -1.3450  0.2239  0.7561
57206SOL     OW89609  12.128   4.105   9.985  0.5249 -0.8463  0.0925
57206SOL    HW189610  12.168   4.020   9.965 -0.0315 -1.0470 -0.2027
57206SOL    HW289611  12.202   4.164   9.997  0.9143 -1.2039 -0.4605
57207SOL     OW89612  11.941   0.969   8.245  0.1133 -0.0770 -0.3547
57207SOL    HW189613  11.853   0.937   8.226 -0.0818  1.0243 -1.4919
57207SOL    HW289614  11.932   1.013   8.330 -0.3816 -0.1648 -0.3565
57208SOL     OW89615   0.244  10.691   5.953  0.9607 -0.6388  0.7211
57208SOL    HW189616   0.247  10.672   5.860  1.1324 -0.0581  0.6100
57208SOL    HW289617   0.249  10.786   5.960 -0.3001 -0.5809  1.2671
57209SOL     OW89618  10.294  10.533   5.388  0.5190 -0.2060  0.3368
57209SOL    HW189619  10.351  10.590   5.440  1.0946 -0.1130 -0.3867
57209SOL    HW289620  10.353  10.467   5.352 -0.1014 -1.1110  0.9422
57210SOL     OW89621  12.985   6.976   4.499 -0.1957  0.0825 -0.2544
57210SOL    HW189622  12.940   6.944   4.421  1.9791  0.9287 -1.9782
57210SOL    HW289623  13.061   7.023   4.465  1.9768 -1.2075  2.4234
57211SOL     OW89624   0.458  12.891  12.817 -0.0707  0.0562 -0.6473
57211SOL    HW189625   0.491  12.971  12.776  0.5817  0.4163  0.5169
57211SOL    HW289626   0.489  12.897  12.907 -0.1523 -1.4390 -0.5051
57212SOL     OW89627   3.368   2.980   5.436  0.1212  0.2529  0.3584
57212SOL    HW189628   3.444   2.928   5.410  0.9261  1.5314  0.0814
57212SOL    HW289629   3.294   2.937   5.393  0.8529 -0.2901 -0.3965
57213SOL     OW89630   7.027  11.223   7.195  0.1120 -0.6537  0.3954
57213SOL    HW189631   6.946  11.211   7.145 -1.0653  1.0590  1.7651
57213SOL    HW289632   7.063  11.306   7.163  0.9056 -0.9960  0.3750
57214SOL     OW89633   9.671   4.154   0.613  0.0554  0.4411 -0.1762
57214SOL    HW189634   9.706   4.242   0.627  0.5753 -0.0297  1.6441
57214SOL    HW289635   9.576   4.167   0.613  0.1255  1.0184 -0.1494
57215SOL     OW89636   6.950   8.083  12.035  0.5973 -0.2269  0.2431
57215SOL    HW189637   7.043   8.098  12.050  0.9314  1.7537 -2.7861
57215SOL    HW289638   6.917   8.047  12.117  4.0922 -1.5011  1.2581
57216SOL     OW89639   6.326   8.352  13.396  0.3913  0.1246 -0.3945
57216SOL    HW189640   6.409   8.387  13.429  0.9689 -0.7428 -0.8857
57216SOL    HW289641   6.343   8.259  13.382 -0.8831 -0.2154  0.1650
57217SOL     OW89642   2.757   9.080  12.845 -0.4528  0.4188 -0.1063
57217SOL    HW189643   2.795   8.993  12.842 -0.2506  0.4793  0.5053
57217SOL    HW289644   2.832   9.139  12.839 -0.5327  0.5432  0.0946
57218SOL     OW89645  10.272   1.195   3.252 -0.0943  0.7424  0.0101
57218SOL    HW189646  10.288   1.162   3.164 -1.5395 -0.8030  0.2738
57218SOL    HW289647  10.359   1.205   3.290  0.5574  1.5371 -1.6003
57219SOL     OW89648   7.051   2.896   3.143 -0.2496 -0.6857 -0.5797
57219SOL    HW189649   7.087   2.984   3.157 -0.3523 -0.8215  0.6042
57219SOL    HW289650   6.956   2.909   3.141 -0.2107 -0.4806 -2.6146
57220SOL     OW89651   1.753   2.860   4.227 -0.5317  0.4596 -0.1374
57220SOL    HW189652   1.681   2.823   4.278 -1.0109  1.1017 -0.3325
57220SOL    HW289653   1.831   2.835   4.275 -0.9526  0.6908  0.6820
57221SOL     OW89654  13.689   1.517   9.827  0.3192 -0.7821  0.1092
57221SOL    HW189655  13.648   1.498   9.742 -0.6187  0.2248  0.3057
57221SOL    HW289656  13.621   1.562   9.876  0.6133 -1.9907  1.6899
57222SOL     OW89657   8.687   1.259   1.557  0.0881 -0.4375  0.2934
57222SOL    HW189658   8.744   1.261   1.634  0.2237  1.1186  0.1825
57222SOL    HW289659   8.710   1.338   1.508 -1.0907 -0.5907 -0.5454
57223SOL     OW89660  11.361  14.150  13.366 -0.2218  0.1309  0.1481
57223SOL    HW189661  11.365  14.075  13.425  2.3474  0.1789  0.1449
57223SOL    HW289662  11.271  14.182  13.374 -1.0057 -2.1020  1.1705
57224SOL     OW89663   6.820   7.996  12.287 -0.2967  0.2299  0.3776
57224SOL    HW189664   6.805   7.940  12.363 -0.7927 -0.9729 -0.5850
57224SOL    HW289665   6.799   8.084  12.318 -0.9742 -0.3033  1.4864
57225SOL     OW89666   5.464   3.494   6.124  0.1966  0.0814  0.4337
57225SOL    HW189667   5.383   3.503   6.073 -0.0826  0.6269  0.9486
57225SOL    HW289668   5.534   3.499   6.059 -0.1516  0.7801  0.0975
57226SOL     OW89669  13.079  12.470  13.598  0.2005  0.1667  0.6400
57226SOL    HW189670  13.088  12.397  13.660  0.2122  1.7346  2.5979
57226SOL    HW289671  13.093  12.548  13.652 -3.6885  1.8418 -0.4960
57227SOL     OW89672  12.833   1.085   4.750 -0.1994  0.2824  0.7751
57227SOL    HW189673  12.818   1.177   4.731 -0.2215  0.4943  1.7713
57227SOL    HW289674  12.925   1.080   4.775 -0.4371  0.2166  1.6815
57228SOL     OW89675  11.792   1.761  10.153  0.2503  0.0246 -0.0971
57228SOL    HW189676  11.734   1.826  10.194  1.2219  1.0198 -0.2571
57228SOL    HW289677  11.740   1.725  10.081 -0.8315 -0.4541  0.8882
57229SOL     OW89678   4.119  10.986   4.575 -0.0408  0.4807  0.4931
57229SOL    HW189679   4.165  10.939   4.645 -0.2933  0.9579  0.9847
57229SOL    HW289680   4.160  11.072   4.572 -0.2926  0.5967  0.3181
57230SOL     OW89681  11.770  10.620   5.547  0.7456  0.2448 -0.1892
57230SOL    HW189682  11.773  10.619   5.452  1.2207 -1.2262 -0.1877
57230SOL    HW289683  11.677  10.632   5.568  0.5218 -0.2442 -0.8645
57231SOL     OW89684   2.987  13.185   8.316  0.0422  0.0010  0.0688
57231SOL    HW189685   3.004  13.102   8.270 -0.0054 -0.9503  1.6921
57231SOL    HW289686   2.909  13.219   8.275 -1.0666 -1.7547  0.5953
57232SOL     OW89687   1.137   0.583  12.336 -0.2662  0.0508  0.4569
57232SOL    HW189688   1.136   0.492  12.306  0.0121  0.3769 -0.5827
57232SOL    HW289689   1.061   0.622  12.293 -0.3304  0.3430  0.8294
57233SOL     OW89690  10.108   8.696   0.709 -0.2548  0.2338 -0.2069
57233SOL    HW189691  10.105   8.643   0.789  0.6431 -0.1607 -0.4253
57233SOL    HW289692  10.016   8.716   0.691 -0.3947  1.5209  1.6832
57234SOL     OW89693   2.675  12.630   2.307 -0.0338  0.0100  0.4966
57234SOL    HW189694   2.630  12.593   2.231  0.0302  0.1213  0.4026
57234SOL    HW289695   2.631  12.713   2.323  0.4128  0.3289  0.1306
57235SOL     OW89696  10.818   0.720   3.956  0.4323 -0.8091 -0.3981
57235SOL    HW189697  10.773   0.770   4.024  1.9677  0.9882 -0.6464
57235SOL    HW289698  10.749   0.666   3.917 -1.0150  0.1167  0.7765
57236SOL     OW89699  12.675   8.492   3.722 -0.1151  0.1307  0.2459
57236SOL    HW189700  12.722   8.548   3.661  2.8680 -1.5203  0.8396
57236SOL    HW289701  12.642   8.419   3.669  1.5031 -0.7246  0.3608
57237SOL     OW89702   0.301   7.086  10.692  0.1571  0.0092  0.1742
57237SOL    HW189703   0.218   7.134  10.696  0.0427 -0.2366  2.6428
57237SOL    HW289704   0.276   6.994  10.690  0.3849 -0.0440 -0.4017
57238SOL     OW89705  12.116  12.473  14.120 -0.0319  0.0660  0.4423
57238SOL    HW189706  12.194  12.501  14.073 -1.5407  1.9445 -1.1127
57238SOL    HW289707  12.139  12.481  14.213  2.3802 -1.8992  0.1223
57239SOL     OW89708   6.113   0.260   2.573  0.1146  0.0591  0.0422
57239SOL    HW189709   6.150   0.258   2.485 -0.0257  1.0139 -0.0529
57239SOL    HW289710   6.060   0.181   2.579 -0.3025  0.2514 -0.9281
57240SOL     OW89711   7.731  13.846   5.943 -0.7140 -0.1567  0.2754
57240SOL    HW189712   7.655  13.885   5.901 -0.5581  1.1289  1.1228
57240SOL    HW289713   7.723  13.871   6.035 -0.8883 -2.6323  0.9963
57241SOL     OW89714  13.884   1.787  10.433  0.2884 -0.1285  0.6633
57241SOL    HW189715  13.964   1.734  10.432  0.0637 -0.5186 -1.6214
57241SOL    HW289716  13.913   1.875  10.407  0.0744 -0.1151  0.4696
57242SOL     OW89717   3.965   0.123   8.663 -0.4396  0.3377 -0.0144
57242SOL    HW189718   3.891   0.134   8.602  0.8215  0.1250 -1.6672
57242SOL    HW289719   3.941   0.048   8.717 -2.1087  1.2523  0.5773
57243SOL     OW89720   1.455  11.235   5.387 -0.5045 -0.1629 -0.1686
57243SOL    HW189721   1.473  11.196   5.301 -1.1540  0.4811 -0.6065
57243SOL    HW289722   1.537  11.278   5.411 -0.2175 -0.6114 -0.3109
57244SOL     OW89723   7.523   8.947   6.955  0.0308 -0.0834 -0.2779
57244SOL    HW189724   7.474   8.976   7.033  0.8019 -1.6529  0.8317
57244SOL    HW289725   7.455   8.926   6.891 -0.6274  1.0117  0.0278
57245SOL     OW89726   0.940   2.788   2.934  0.1553  0.4346  0.0920
57245SOL    HW189727   1.025   2.746   2.947 -0.3187 -1.2944 -1.8788
57245SOL    HW289728   0.899   2.787   3.020  0.4868 -2.5402  0.2901
57246SOL     OW89729   7.344   9.305   8.599  0.3798  0.3060  0.2115
57246SOL    HW189730   7.348   9.220   8.643 -1.1584  0.2069  0.2050
57246SOL    HW289731   7.431   9.316   8.561  1.2262 -0.3714  1.8432
57247SOL     OW89732   5.808   0.738   0.348 -0.3386  0.6491  0.0261
57247SOL    HW189733   5.891   0.756   0.304 -0.3272 -0.9366 -0.6676
57247SOL    HW289734   5.750   0.808   0.318  0.0978  0.4553 -1.3711
57248SOL     OW89735   9.401   7.589   9.776 -0.1217 -0.7590 -0.1105
57248SOL    HW189736   9.361   7.507   9.747 -1.1287 -0.2232 -0.2650
57248SOL    HW289737   9.332   7.632   9.827  0.1578  0.3139 -0.6292
57249SOL     OW89738   6.020  13.314   2.995  0.2742 -0.0116  0.2841
57249SOL    HW189739   5.982  13.323   3.082  0.9063  1.4408  0.4323
57249SOL    HW289740   5.955  13.264   2.945 -1.4308  1.6484  0.7685
57250SOL     OW89741  10.811   1.835   4.873 -0.0264 -0.2340  0.2461
57250SOL    HW189742  10.786   1.868   4.786  1.6167  0.4225 -0.0198
57250SOL    HW289743  10.748   1.766   4.891 -0.1972 -0.6428 -1.6475
57251SOL     OW89744   3.558  12.800   0.002  0.2885  0.0589 -0.6441
57251SOL    HW189745   3.468  12.829   0.019 -0.3789 -2.2401  0.1286
57251SOL    HW289746   3.612  12.850   0.063 -0.7731 -0.2582  0.5871
57252SOL     OW89747   3.786   2.662  11.108  0.4147  0.3297 -0.4431
57252SOL    HW189748   3.694   2.635  11.103  0.9078 -1.5648 -0.0740
57252SOL    HW289749   3.782   2.755  11.130 -1.4048  0.4065 -0.8851
57253SOL     OW89750   5.238   1.018   5.364 -0.2864  0.1317 -0.2010
57253SOL    HW189751   5.167   0.986   5.419  0.4275 -0.3873  0.4451
57253SOL    HW289752   5.265   1.101   5.403 -0.4355  0.2561 -0.3599
57254SOL     OW89753  14.060   8.715   6.343  0.4211 -0.0912 -0.2648
57254SOL    HW189754  13.992   8.782   6.350 -0.3447 -0.9184  0.3597
57254SOL    HW289755  14.036   8.664   6.266  0.7011  0.0032 -0.4186
57255SOL     OW89756   2.855  13.243   0.940 -0.1984  0.2256  0.1779
57255SOL    HW189757   2.879  13.192   0.863  0.8024  1.7494 -0.5620
57255SOL    HW289758   2.937  13.283   0.970 -0.7323  0.4276  1.4728
57256SOL     OW89759   1.321   1.409   0.043 -0.1739 -0.1496  0.2801
57256SOL    HW189760   1.246   1.448  -0.003  0.6888  2.1679  0.6879
57256SOL    HW289761   1.282   1.349   0.106 -1.7081  0.9390  0.4270
57257SOL     OW89762   5.106   9.908   6.438 -0.3904 -0.0254  0.0800
57257SOL    HW189763   5.066   9.856   6.507 -0.6801  1.9682  1.5162
57257SOL    HW289764   5.035   9.929   6.379 -0.2074 -1.4683 -0.6914
57258SOL     OW89765   1.249   4.392  10.272  0.0206 -0.1748 -0.0171
57258SOL    HW189766   1.221   4.311  10.229  2.3634 -1.3650  0.5528
57258SOL    HW289767   1.234   4.460  10.206  0.3140 -1.4511 -1.4640
57259SOL     OW89768  12.796   0.974  13.225 -0.1067 -0.4593 -0.2619
57259SOL    HW189769  12.794   1.015  13.312 -0.5354  1.5753 -1.1845
57259SOL    HW289770  12.778   0.882  13.242  0.6648 -0.2741  1.8912
57260SOL     OW89771   8.540   9.012   5.676  0.0105 -0.8495 -0.1252
57260SOL    HW189772   8.551   9.032   5.583 -1.5294 -2.1638 -0.6329
57260SOL    HW289773   8.456   9.051   5.699 -0.5952 -2.2588  0.1649
57261SOL     OW89774   9.370  10.299   2.005 -0.4310 -0.1519  0.0869
57261SOL    HW189775   9.299  10.251   1.962  0.6989 -1.9513  0.0992
57261SOL    HW289776   9.403  10.238   2.071  2.3985 -0.2008 -1.2356
57262SOL     OW89777   7.389  11.921   9.315  0.2015 -0.7241 -0.0863
57262SOL    HW189778   7.450  11.919   9.389  0.0707 -0.0763  0.0493
57262SOL    HW289779   7.440  11.955   9.242 -0.5271  2.1319  0.5939
57263SOL     OW89780   8.289  12.973   4.541 -0.1611 -0.0228 -0.5203
57263SOL    HW189781   8.234  13.051   4.544  1.3814  1.0786  0.7710
57263SOL    HW289782   8.360  12.991   4.602  2.5020 -0.7182 -3.1321
57264SOL     OW89783   8.685   1.170  14.019 -0.1378 -0.3466  0.5280
57264SOL    HW189784   8.690   1.265  14.023  0.5589 -0.3708  0.4474
57264SOL    HW289785   8.655   1.143  14.106 -0.5912 -0.0392  0.4654
57265SOL     OW89786   9.166  13.595   3.847  0.0777 -0.1162 -0.0082
57265SOL    HW189787   9.163  13.634   3.760  1.8143 -0.8256 -0.4418
57265SOL    HW289788   9.077  13.602   3.880 -0.8447 -0.6469 -2.1993
57266SOL     OW89789   7.933   4.320   6.535  0.3891 -0.4370  0.1065
57266SOL    HW189790   7.881   4.382   6.587 -2.8844 -2.1928 -0.7538
57266SOL    HW289791   7.974   4.373   6.468  0.1153  1.1627  1.1472
57267SOL     OW89792   3.968   6.695  11.525  0.8185  0.2799  0.1670
57267SOL    HW189793   3.956   6.654  11.440  0.2668 -1.4159  1.0156
57267SOL    HW289794   3.889   6.747  11.537  0.7101  0.2036 -0.1887
57268SOL     OW89795   9.207   3.563   1.643  0.9912  0.3050  0.2993
57268SOL    HW189796   9.153   3.489   1.670  2.6424 -1.0038  0.1882
57268SOL    HW289797   9.147   3.620   1.594  0.0843 -2.0102 -1.4942
57269SOL     OW89798   4.748   4.644   7.298  0.2682  0.1010 -0.1415
57269SOL    HW189799   4.823   4.674   7.349  0.0126 -0.4028  0.5468
57269SOL    HW289800   4.729   4.717   7.239  1.1057  0.3523 -0.1146
57270SOL     OW89801   3.247   2.937   7.581 -0.9822  0.4493  0.2005
57270SOL    HW189802   3.212   2.856   7.543  1.7595 -0.5407 -0.4834
57270SOL    HW289803   3.260   2.916   7.674 -3.0799  1.1976  0.7119
57271SOL     OW89804   9.549   8.850   9.083  0.5973 -0.6766 -0.0961
57271SOL    HW189805   9.606   8.913   9.127 -1.1472  0.4862  0.5774
57271SOL    HW289806   9.587   8.765   9.104  2.0306  0.0515  0.3975
57272SOL     OW89807   1.837   1.769  11.261  0.1068  0.6543 -0.1933
57272SOL    HW189808   1.745   1.766  11.236 -0.5238  1.8704  1.7142
57272SOL    HW289809   1.838   1.737  11.352  1.4925  1.1099 -0.0229
57273SOL     OW89810   5.483   9.793  11.096  0.4031  0.0434 -0.0740
57273SOL    HW189811   5.436   9.765  11.017  0.8616  0.4133 -0.4830
57273SOL    HW289812   5.472   9.888  11.099  0.8949  0.1000 -0.0243
57274SOL     OW89813  12.115  13.881   6.911 -0.1467  0.2349  0.1051
57274SOL    HW189814  12.138  13.795   6.945 -0.4022 -0.3254 -1.0632
57274SOL    HW289815  12.026  13.870   6.877 -0.3524  1.0803  0.3524
57275SOL     OW89816   4.373   1.099  14.087  0.2058  0.0361 -0.0653
57275SOL    HW189817   4.330   1.053  14.159  1.2279 -2.0370 -0.7213
57275SOL    HW289818   4.459   1.123  14.123 -0.1099  1.0112  0.0885
57276SOL     OW89819  13.797   5.587  13.101  0.0464  0.3203  0.4917
57276SOL    HW189820  13.772   5.679  13.098  1.3987  0.7927  2.1637
57276SOL    HW289821  13.832   5.569  13.013 -0.6343  1.2682  0.0168
57277SOL     OW89822  10.720   7.880   5.914 -0.6401 -0.4092  0.7476
57277SOL    HW189823  10.765   7.947   5.965 -1.3080  0.3364  0.3783
57277SOL    HW289824  10.774   7.870   5.835 -0.5937 -0.2214  0.7532
57278SOL     OW89825  13.745   0.384   1.079 -0.1654  0.1031  0.0324
57278SOL    HW189826  13.831   0.406   1.044 -0.3475  1.1983  0.2214
57278SOL    HW289827  13.684   0.404   1.008 -0.3386  0.2140  0.2088
57279SOL     OW89828  13.564   3.986   4.519 -0.5196 -0.1183 -0.1550
57279SOL    HW189829  13.506   4.060   4.536  0.0025  0.4884 -0.9359
57279SOL    HW289830  13.651   4.018   4.541 -0.4137 -0.9021  0.6572
57280SOL     OW89831   2.711  10.820  12.109 -0.2427  0.2680 -0.1729
57280SOL    HW189832   2.618  10.799  12.118 -0.0955 -0.1509  0.4043
57280SOL    HW289833   2.734  10.788  12.021  0.0030 -2.2127  0.7019
57281SOL     OW89834   8.486   5.775   5.671 -0.4051 -0.1383 -0.5187
57281SOL    HW189835   8.535   5.832   5.730  0.6473 -0.4754 -1.0390
57281SOL    HW289836   8.442   5.835   5.610  0.5704  0.1351 -0.9655
57282SOL     OW89837   9.493  12.325   7.437 -0.3486 -0.0925  0.0889
57282SOL    HW189838   9.540  12.254   7.481 -0.8566 -0.3661  0.2014
57282SOL    HW289839   9.402  12.297   7.436 -0.4940  0.3638 -0.2568
57283SOL     OW89840   6.577   8.537   0.585  0.0940 -0.1327 -0.0911
57283SOL    HW189841   6.594   8.485   0.663  1.6582  0.1149 -0.2350
57283SOL    HW289842   6.499   8.588   0.607  1.8728  1.7975  2.3400
57284SOL     OW89843  12.573   5.254   5.216 -0.2874  0.0547  0.1627
57284SOL    HW189844  12.490   5.212   5.237 -1.7884  2.6112 -0.1321
57284SOL    HW289845  12.581   5.326   5.279  1.4579  0.1694 -0.1283
57285SOL     OW89846   0.899  10.822  10.046  0.0035 -0.4669  1.0331
57285SOL    HW189847   0.951  10.802  10.124  2.4652 -0.8013 -0.5777
57285SOL    HW289848   0.901  10.741   9.995  1.6107  0.7523 -0.9988
57286SOL     OW89849   6.037  10.990   8.904 -0.0415  0.2805  0.3521
57286SOL    HW189850   5.993  10.951   8.980  0.2232 -1.6463 -0.4269
57286SOL    HW289851   6.123  10.949   8.902  0.1160  0.6329 -0.7402
57287SOL     OW89852   9.277  12.815  12.151  0.1053  0.4014  0.7082
57287SOL    HW189853   9.238  12.773  12.074 -0.0589  1.6772  0.0619
57287SOL    HW289854   9.362  12.846  12.121 -0.7638  2.7039  0.3641
57288SOL     OW89855   2.937   7.904   9.213  0.0323  0.5752 -0.0113
57288SOL    HW189856   2.982   7.938   9.135  0.1413  1.3509  0.3802
57288SOL    HW289857   2.889   7.980   9.248 -1.3364 -0.1618 -0.2429
57289SOL     OW89858   3.959   2.319  11.924 -0.0071 -0.3934 -0.0019
57289SOL    HW189859   3.891   2.363  11.873  0.5686  1.1426  0.4881
57289SOL    HW289860   3.922   2.311  12.012  0.8859  1.7215  0.6374
57290SOL     OW89861  11.542   5.079   1.916  0.4941  0.1250 -0.5780
57290SOL    HW189862  11.578   5.162   1.948 -1.1611  0.1672  1.3874
57290SOL    HW289863  11.530   5.027   1.995 -0.9792 -0.9702 -1.4783
57291SOL     OW89864   2.215   8.220   5.427  0.1444 -0.3533  0.4167
57291SOL    HW189865   2.212   8.238   5.333 -0.8466 -1.1697  0.2840
57291SOL    HW289866   2.304   8.187   5.442  0.4249  0.1168 -0.1639
57292SOL     OW89867   3.324   6.648  10.151 -0.1724 -0.2265 -0.3216
57292SOL    HW189868   3.379   6.571  10.163 -0.7833 -0.6636 -0.2766
57292SOL    HW289869   3.320   6.661  10.057 -0.0492 -0.2382 -0.3284
57293SOL     OW89870   1.309   9.701   1.165 -0.0018 -0.1553  0.7947
57293SOL    HW189871   1.366   9.695   1.241  0.2153 -0.3446  0.6215
57293SOL    HW289872   1.259   9.619   1.166  0.2658 -0.3260  0.5311
57294SOL     OW89873  13.867   8.763   8.607  0.2341  0.0206 -0.3079
57294SOL    HW189874  13.892   8.815   8.683 -1.4506 -0.0261  0.3277
57294SOL    HW289875  13.774   8.746   8.619  0.3687 -1.7352 -1.3513
57295SOL     OW89876   2.861   9.617   5.470  0.4119 -0.2310  0.1063
57295SOL    HW189877   2.928   9.559   5.505  0.9985  1.2557  1.5687
57295SOL    HW289878   2.909   9.685   5.422 -0.1196  0.1225  0.0546
57296SOL     OW89879  12.840   1.776  13.731  0.6791  0.4122 -0.0261
57296SOL    HW189880  12.845   1.787  13.826 -0.4373  0.6626  0.0166
57296SOL    HW289881  12.815   1.684  13.719  1.6258  0.1597 -0.1099
57297SOL     OW89882   3.921   9.336   7.029  0.1071  0.5704 -0.1522
57297SOL    HW189883   3.838   9.311   6.988 -0.1169  0.9991  0.0304
57297SOL    HW289884   3.913   9.307   7.120  0.2901  0.3226 -0.2139
57298SOL     OW89885   7.784  12.661   0.670  0.2974 -0.0918 -0.0678
57298SOL    HW189886   7.854  12.622   0.618 -2.1701 -3.1704 -1.4024
57298SOL    HW289887   7.770  12.600   0.742 -1.5505 -0.0760 -0.3619
57299SOL     OW89888   6.064  12.940   4.380 -0.4729 -0.7047 -0.3812
57299SOL    HW189889   6.038  13.003   4.313 -0.4115  1.4300  1.4859
57299SOL    HW289890   6.150  12.909   4.352  0.0295  0.9590 -0.7902
57300SOL     OW89891   4.339   4.450   4.821  0.1467 -0.2416  0.5388
57300SOL    HW189892   4.366   4.469   4.731 -0.4609 -0.7183  0.2476
57300SOL    HW289893   4.302   4.362   4.817  0.7691 -0.5596  1.3970
57301SOL     OW89894   7.994   7.631  11.140 -0.1150  0.5670 -0.1355
57301SOL    HW189895   7.977   7.540  11.114 -1.1965  0.4592  0.8458
57301SOL    HW289896   8.015   7.625  11.233  2.1599  1.1001 -0.5577
57302SOL     OW89897   6.517   4.860   5.241 -0.3656  0.2305  0.3788
57302SOL    HW189898   6.576   4.785   5.227  0.0753  0.5951  0.2658
57302SOL    HW289899   6.544   4.896   5.325 -0.4854  0.3467  0.3674
57303SOL     OW89900   5.403  10.595   2.954  0.4142  0.1240 -0.2147
57303SOL    HW189901   5.470  10.660   2.974  1.8177 -1.5029  0.6265
57303SOL    HW289902   5.426  10.563   2.867  0.5346 -0.1974 -0.0651
57304SOL     OW89903   6.533   9.235   4.271  0.1049 -0.2143 -0.8279
57304SOL    HW189904   6.627   9.221   4.268  0.1319 -0.0400 -0.8164
57304SOL    HW289905   6.522   9.310   4.329 -0.1249 -0.9835  0.1460
57305SOL     OW89906  13.211   8.465   7.655  0.1873 -0.6613 -0.1105
57305SOL    HW189907  13.272   8.504   7.718  1.1107 -1.7566 -0.2975
57305SOL    HW289908  13.130   8.514   7.667  0.9489  0.4819  0.5092
57306SOL     OW89909  11.790   6.805   9.328  0.0358 -0.2968 -0.0070
57306SOL    HW189910  11.798   6.845   9.415 -0.0262 -1.0184  0.3366
57306SOL    HW289911  11.879   6.808   9.292  0.5865 -2.2004  1.0766
57307SOL     OW89912  13.809  12.654   5.298  0.7044 -0.2720  0.0374
57307SOL    HW189913  13.827  12.748   5.310  0.5688 -0.3509  0.9388
57307SOL    HW289914  13.734  12.652   5.238 -0.8567  0.3052  1.8590
57308SOL     OW89915   5.693  11.768   9.920  0.1224 -0.7158 -0.3110
57308SOL    HW189916   5.662  11.822   9.993  1.4561 -0.9723  0.4862
57308SOL    HW289917   5.645  11.686   9.928  0.5358 -0.8914  0.5504
57309SOL     OW89918   9.773   1.732  10.548 -0.0840  0.0816 -1.0744
57309SOL    HW189919   9.800   1.782  10.470 -0.7011  1.0171 -0.7042
57309SOL    HW289920   9.855   1.698  10.583  0.4908  1.6066 -0.8253
57310SOL     OW89921  10.252   0.728   1.454 -0.0669 -0.3142  0.4311
57310SOL    HW189922  10.163   0.693   1.453  0.1781 -0.9418  0.2982
57310SOL    HW289923  10.290   0.695   1.535 -0.2921  0.8467  1.0431
57311SOL     OW89924  12.049   1.462   6.729  0.0761  0.0334  0.1985
57311SOL    HW189925  12.118   1.463   6.663 -0.7085 -3.2131 -0.8513
57311SOL    HW289926  12.095   1.469   6.812  1.7013 -1.7524 -0.4896
57312SOL     OW89927  13.386   9.831   3.676 -0.6999 -0.0813  0.2344
57312SOL    HW189928  13.413   9.739   3.674 -0.6048 -0.0475 -1.8126
57312SOL    HW289929  13.407   9.859   3.766  0.6842 -1.6294  0.4677
57313SOL     OW89930   0.683   0.258   5.623  0.1229  0.8690 -0.5438
57313SOL    HW189931   0.684   0.327   5.556 -0.2620 -0.7006 -2.2426
57313SOL    HW289932   0.599   0.215   5.611 -0.0729  0.7134  1.1847
57314SOL     OW89933   8.033   5.722  13.843 -0.6240  0.7915 -0.0330
57314SOL    HW189934   8.109   5.770  13.876  0.7301 -0.8269 -0.6705
57314SOL    HW289935   7.968   5.731  13.913  0.4732  1.4208  0.9480
57315SOL     OW89936   2.911   4.867   2.924 -0.1831 -0.0606  0.0106
57315SOL    HW189937   2.969   4.835   2.993  0.4480  0.8278 -0.0851
57315SOL    HW289938   2.969   4.915   2.864 -1.0011  0.7601 -0.1434
57316SOL     OW89939   1.961   0.854   9.371  0.1997  0.1528  0.1766
57316SOL    HW189940   2.023   0.926   9.363  1.6123 -0.7929  1.8070
57316SOL    HW289941   1.951   0.842   9.466 -0.1176 -1.6818 -0.0593
57317SOL     OW89942   8.223   2.924  11.919  0.2269 -0.5105 -0.5846
57317SOL    HW189943   8.194   2.869  11.846  1.3762 -1.5193 -0.3166
57317SOL    HW289944   8.300   2.970  11.886 -0.3071  0.4158 -0.5697
57318SOL     OW89945   3.488  11.394   5.698  0.1937 -0.0703  0.0176
57318SOL    HW189946   3.520  11.476   5.737 -0.1588 -0.4720  1.2155
57318SOL    HW289947   3.425  11.421   5.632  1.0399  0.6582 -0.5065
57319SOL     OW89948   6.022   8.969   3.647 -0.8914 -0.6411  0.5910
57319SOL    HW189949   6.050   8.878   3.643 -0.7218 -0.5943  0.7158
57319SOL    HW289950   6.102   9.019   3.636 -1.0311 -0.5041  0.1328
57320SOL     OW89951   1.754   6.846  12.613 -0.2077 -0.1681 -0.4308
57320SOL    HW189952   1.671   6.857  12.659  0.1993 -0.4469  0.3852
57320SOL    HW289953   1.811   6.913  12.650 -0.2342  0.4107 -1.4117
57321SOL     OW89954   6.276  12.614   7.650 -0.1540 -0.3897 -0.3729
57321SOL    HW189955   6.267  12.698   7.606 -1.0594  0.0369  0.6206
57321SOL    HW289956   6.197  12.566   7.627 -0.1939 -0.5232  0.0469
57322SOL     OW89957   0.236   0.036  12.706 -0.0629 -0.1261  0.4567
57322SOL    HW189958   0.312   0.033  12.764 -0.7020  1.1213  1.4139
57322SOL    HW289959   0.161   0.050  12.765 -0.6312  2.0931 -0.6814
57323SOL     OW89960   1.599   8.549   0.611  0.3954 -0.2447 -0.2305
57323SOL    HW189961   1.557   8.582   0.532  1.3511 -0.1604 -0.7029
57323SOL    HW289962   1.675   8.605   0.624  1.4159 -1.5519 -0.4236
57324SOL     OW89963   7.755   6.416   7.233  0.7114 -0.3617 -0.1337
57324SOL    HW189964   7.712   6.396   7.150  2.8843 -1.9282 -0.9965
57324SOL    HW289965   7.761   6.331   7.277  0.7137  0.2374  1.0350
57325SOL     OW89966  10.869  13.332   6.604  0.3351 -0.3086  0.1044
57325SOL    HW189967  10.956  13.365   6.583  0.1741 -0.1632 -0.3404
57325SOL    HW289968  10.885  13.264   6.670  0.7841 -0.3061  0.0035
57326SOL     OW89969   2.998  13.954  14.130  0.5233  0.0364 -0.8208
57326SOL    HW189970   3.041  14.024  14.080  0.4870  0.1209 -0.7326
57326SOL    HW289971   2.965  13.997  14.209  1.0705 -0.2059 -0.4538
57327SOL     OW89972   7.001   8.644   0.114  0.0739  0.3031 -0.2042
57327SOL    HW189973   7.005   8.583   0.041  0.9896  1.7604 -1.4396
57327SOL    HW289974   6.928   8.703   0.093 -0.1333  0.2835  0.4355
57328SOL     OW89975   3.268   5.727  13.844  0.0348  0.1533  0.0678
57328SOL    HW189976   3.178   5.696  13.842  0.4932 -1.3543 -2.6929
57328SOL    HW289977   3.263   5.819  13.818 -0.7196  0.0181 -0.2929
57329SOL     OW89978   8.038   6.316   5.909 -0.3969 -0.0443 -0.4016
57329SOL    HW189979   8.083   6.378   5.852  1.7628 -1.9263 -0.8751
57329SOL    HW289980   7.990   6.259   5.849  1.3277 -1.6005 -0.3981
57330SOL     OW89981  11.239   8.373  10.938  0.2144 -0.3203 -0.1069
57330SOL    HW189982  11.149   8.402  10.953 -0.3141  0.1240 -3.3958
57330SOL    HW289983  11.248   8.293  10.989 -1.2412  0.8505  2.1313
57331SOL     OW89984   9.934   3.452   7.197 -0.3559 -0.3678 -0.5061
57331SOL    HW189985   9.899   3.413   7.117 -1.3410  0.5880 -0.5683
57331SOL    HW289986   9.951   3.543   7.173 -1.3454  0.1166  0.5514
57332SOL     OW89987   9.726   6.170   4.858 -0.1373 -0.4870 -0.1377
57332SOL    HW189988   9.794   6.237   4.857 -0.2671 -0.3564 -0.9313
57332SOL    HW289989   9.703   6.158   4.766 -0.7817 -0.9479  0.0766
57333SOL     OW89990  12.932   9.486   2.966 -0.4151  0.1110 -0.2594
57333SOL    HW189991  12.980   9.526   2.894 -0.6940  0.7648 -0.0885
57333SOL    HW289992  12.986   9.411   2.992 -0.7833 -0.7205 -1.7664
57334SOL     OW89993  10.050  11.893  11.637  0.1898 -0.2728  0.3928
57334SOL    HW189994   9.990  11.903  11.563  0.6852  0.2416  0.0509
57334SOL    HW289995  10.136  11.886  11.597  0.5312  0.6563  0.9352
57335SOL     OW89996   6.116   1.864   9.084  0.3999 -0.2645 -0.0151
57335SOL    HW189997   6.049   1.878   9.017 -0.2287  1.6580  0.9231
57335SOL    HW289998   6.067   1.830   9.159  0.8831 -1.1555 -0.0970
57336SOL     OW89999   5.698  10.841   8.766  0.5266 -0.1318 -0.3471
57336SOL    HW190000   5.745  10.914   8.725  1.4945 -0.1583  0.6664
57336SOL    HW290001   5.711  10.854   8.860 -0.8358 -0.6043 -0.0710
57337SOL     OW90002   8.033   3.183   0.182 -0.4088 -0.0964 -0.1855
57337SOL    HW190003   8.036   3.277   0.169 -1.2310 -0.2221 -1.4674
57337SOL    HW290004   7.940   3.162   0.188 -0.2077 -0.6651  1.5854
57338SOL     OW90005   5.231  13.312   2.712  0.6684 -0.5176  0.1105
57338SOL    HW190006   5.160  13.349   2.658 -0.7010 -2.7895  0.2041
57338SOL    HW290007   5.280  13.257   2.651  0.1935 -1.6859  0.7342
57339SOL     OW90008  12.141  13.709   4.271 -0.3353  0.3343  0.2942
57339SOL    HW190009  12.103  13.639   4.219 -3.1986  3.3914 -2.1611
57339SOL    HW290010  12.091  13.710   4.352 -1.6148  0.6563 -0.4729
57340SOL     OW90011   4.928   5.703   5.425  0.2160  0.1309 -0.3928
57340SOL    HW190012   4.837   5.734   5.420  0.7077  2.9856  3.1783
57340SOL    HW290013   4.939   5.678   5.517  3.3794  1.2499 -0.3455
57341SOL     OW90014   1.529   9.992   1.235  0.4379 -0.2056 -0.3679
57341SOL    HW190015   1.520   9.906   1.277  1.2490  0.4324  1.1860
57341SOL    HW290016   1.508  10.055   1.304 -0.0676  0.8733 -1.4650
57342SOL     OW90017  12.248   8.575   0.324  0.0721 -0.4038  0.3332
57342SOL    HW190018  12.275   8.635   0.393 -1.4583  0.3822  0.2763
57342SOL    HW290019  12.285   8.611   0.244 -1.0356  0.6334  0.2650
57343SOL     OW90020   0.449   5.302   5.241 -0.2498  0.2587 -0.1048
57343SOL    HW190021   0.437   5.373   5.304  0.1975  1.1879 -1.0349
57343SOL    HW290022   0.384   5.320   5.172 -2.8531 -2.3867  1.4016
57344SOL     OW90023   0.800   3.470   8.489  0.0018  0.1954 -0.3891
57344SOL    HW190024   0.768   3.513   8.568  2.4101 -1.0161  1.3570
57344SOL    HW290025   0.869   3.528   8.457 -0.2792  0.1747 -1.0464
57345SOL     OW90026  12.821  10.043  12.581  0.5502  0.8107  0.2229
57345SOL    HW190027  12.744  10.073  12.534  0.4025  0.9848  0.5768
57345SOL    HW290028  12.788   9.977  12.642  0.7914  0.3279 -0.1611
57346SOL     OW90029   1.763   0.205   0.320 -0.2163 -0.2640  0.0913
57346SOL    HW190030   1.826   0.177   0.254 -1.3734 -0.6900 -0.8790
57346SOL    HW290031   1.707   0.267   0.274 -1.1910 -0.7484  0.5905
57347SOL     OW90032   8.330   1.725   8.490  0.1980  0.4810  0.2943
57347SOL    HW190033   8.421   1.696   8.487  0.4319  1.2301 -0.1474
57347SOL    HW290034   8.297   1.707   8.402  0.2207  1.1485  0.1479
57348SOL     OW90035   8.074   5.710   8.736 -0.3518 -0.1339 -0.2023
57348SOL    HW190036   8.043   5.633   8.689  2.5971 -2.0594  0.7417
57348SOL    HW290037   8.139   5.750   8.678  1.3458 -0.9831  1.0229
57349SOL     OW90038  10.353  12.889   8.307  0.3104 -0.3621 -0.4198
57349SOL    HW190039  10.285  12.826   8.286  2.0189 -2.2202 -0.6137
57349SOL    HW290040  10.344  12.904   8.401 -1.0478  0.2819 -0.6419
57350SOL     OW90041  10.766   6.831  13.376 -0.5076  0.7430  0.7215
57350SOL    HW190042  10.697   6.844  13.441 -0.1582  1.7608  0.9128
57350SOL    HW290043  10.836   6.787  13.423 -1.0746 -0.4438  0.4868
57351SOL     OW90044   8.479   0.138  12.564 -0.7649  0.2217  0.0969
57351SOL    HW190045   8.565   0.097  12.555 -1.0029  0.1004 -2.3657
57351SOL    HW290046   8.497   0.231  12.570 -0.4373  0.1889 -0.3348
57352SOL     OW90047   7.557  14.038  13.032  0.3552 -0.5953 -0.3318
57352SOL    HW190048   7.580  13.949  13.004 -0.1438 -0.6044 -0.7160
57352SOL    HW290049   7.602  14.096  12.971  1.3553 -0.5560  0.4158
57353SOL     OW90050   4.242   2.132  12.310 -0.5102  0.4832  0.6444
57353SOL    HW190051   4.210   2.042  12.307  5.1564 -2.0231 -2.5716
57353SOL    HW290052   4.302   2.133  12.385  0.6942  0.9671 -0.2962
57354SOL     OW90053   2.069   0.107   6.338 -0.3643 -0.7189  0.0221
57354SOL    HW190054   2.053   0.024   6.383 -0.7398 -1.6056 -1.6720
57354SOL    HW290055   1.988   0.125   6.291 -0.2161  0.5384  0.2159
57355SOL     OW90056  13.392   6.396  12.721 -0.2484 -0.0449 -0.0546
57355SOL    HW190057  13.364   6.315  12.678  0.8801 -0.2651 -0.4061
57355SOL    HW290058  13.416   6.454  12.648 -0.4215  0.3711  0.2176
57356SOL     OW90059  11.360   7.272   8.632 -0.2959 -0.2146  0.9565
57356SOL    HW190060  11.310   7.315   8.562 -1.4165 -0.9900  1.2542
57356SOL    HW290061  11.392   7.344   8.686 -1.2144  0.3151  0.8233
57357SOL     OW90062  10.370   5.271  12.673  0.2565 -0.2592  0.0695
57357SOL    HW190063  10.335   5.184  12.656 -0.7534  0.4715 -1.9057
57357SOL    HW290064  10.402   5.301  12.588  0.8735  1.1687  0.7764
57358SOL     OW90065   8.336   2.140   9.123 -0.2722 -0.1804 -0.2362
57358SOL    HW190066   8.362   2.071   9.062 -1.3667  0.6062 -1.6533
57358SOL    HW290067   8.339   2.221   9.071  1.3042  0.9435  1.4597
57359SOL     OW90068   2.645  13.657   0.707  0.8731 -0.2937  0.2336
57359SOL    HW190069   2.682  13.599   0.773  3.8633  1.8100  0.6026
57359SOL    HW290070   2.678  13.744   0.730 -0.8268  1.0814 -2.0663
57360SOL     OW90071   2.168   1.252   0.205  0.1620  0.2297  0.1384
57360SOL    HW190072   2.156   1.167   0.247  0.2451 -0.1352 -0.5679
57360SOL    HW290073   2.084   1.269   0.162 -0.1600  0.9227  1.0050
57361SOL     OW90074   4.946   6.453   1.382  0.3505  0.2981 -0.2158
57361SOL    HW190075   4.927   6.539   1.419  0.0441  0.5199 -0.8730
57361SOL    HW290076   4.999   6.471   1.304 -0.6830 -0.0020 -1.0248
57362SOL     OW90077   8.459  11.489   4.119  0.2904  1.1236  0.1823
57362SOL    HW190078   8.440  11.408   4.167 -1.3993  1.8900  0.8702
57362SOL    HW290079   8.478  11.459   4.030 -2.2391  0.0549 -0.0813
57363SOL     OW90080   5.032  11.934   3.454 -0.4609  0.5851  0.3911
57363SOL    HW190081   5.090  11.999   3.417 -0.9379  1.4086  1.0552
57363SOL    HW290082   5.032  11.862   3.391  0.2164  1.1458 -0.2529
57364SOL     OW90083   0.431   9.279  11.845 -0.2291 -0.2006  0.4953
57364SOL    HW190084   0.507   9.334  11.865 -0.3099 -0.0565  0.4057
57364SOL    HW290085   0.372   9.291  11.920 -1.4474  1.9397 -0.7202
57365SOL     OW90086   0.588   2.008   9.815 -0.3343  0.5574 -0.1665
57365SOL    HW190087   0.558   2.059   9.740 -0.5508  0.3636 -0.2115
57365SOL    HW290088   0.624   2.073   9.876 -1.8160  0.9103  0.3711
57366SOL     OW90089   9.364   2.648   2.269 -0.1395 -0.1031 -0.2689
57366SOL    HW190090   9.413   2.654   2.187  0.4050 -1.7077 -0.1099
57366SOL    HW290091   9.426   2.607   2.330  0.0342  2.4943  1.4528
57367SOL     OW90092  11.012   4.381   0.091 -0.2548 -0.1735 -0.2802
57367SOL    HW190093  10.971   4.308   0.044  1.0485 -0.1010 -1.5839
57367SOL    HW290094  11.056   4.431   0.023 -0.7780  1.6250  0.6542
57368SOL     OW90095   2.750  12.692   3.122 -0.3066  0.1817 -0.0885
57368SOL    HW190096   2.695  12.624   3.162  2.1986 -1.4172  0.8731
57368SOL    HW290097   2.818  12.644   3.076 -0.1507  2.0812 -1.9958
57369SOL     OW90098   8.838  12.537   6.913  0.4865  0.4648 -0.1533
57369SOL    HW190099   8.871  12.457   6.953 -0.6308  0.4111  0.7171
57369SOL    HW290100   8.787  12.507   6.838 -1.0491  0.2203  0.9381
57370SOL     OW90101   9.314   2.488  10.149  0.2479 -0.7205  0.3699
57370SOL    HW190102   9.388   2.547  10.164 -0.6046  0.2086  1.1428
57370SOL    HW290103   9.298   2.447  10.235  0.0353 -1.1105  0.1476
57371SOL     OW90104   8.192   9.776   8.049 -0.6558 -0.2096  0.4185
57371SOL    HW190105   8.099   9.752   8.051 -0.7853  0.2836  0.4525
57371SOL    HW290106   8.226   9.731   7.972 -1.1162  0.2672 -0.0756
57372SOL     OW90107   2.699  13.507   6.903  0.3591 -0.2344  0.3560
57372SOL    HW190108   2.642  13.483   6.830  0.3726 -3.1140  1.1924
57372SOL    HW290109   2.780  13.536   6.862 -0.2571 -0.0600 -0.7704
57373SOL     OW90110   6.713   6.795  12.380  0.8505  0.3616 -0.1014
57373SOL    HW190111   6.696   6.721  12.437  2.3558 -0.1490 -0.2548
57373SOL    HW290112   6.630   6.813  12.337 -0.3806  0.9044  2.3641
57374SOL     OW90113   7.620  12.451   1.555  0.3495 -0.5600 -0.1967
57374SOL    HW190114   7.562  12.380   1.583 -0.0268  0.0773  0.7103
57374SOL    HW290115   7.561  12.519   1.522  0.7601 -1.0803 -2.1360
57375SOL     OW90116   3.239   3.740  11.186  0.4235  0.5909  0.1042
57375SOL    HW190117   3.270   3.817  11.138 -0.5208 -0.6236 -2.6990
57375SOL    HW290118   3.317   3.686  11.199  0.5222  0.2100 -1.6794
57376SOL     OW90119   8.310   9.177   7.739 -0.8398  0.6858 -0.4476
57376SOL    HW190120   8.350   9.122   7.671 -2.0807  1.0676 -1.5238
57376SOL    HW290121   8.362   9.257   7.738 -0.8768  0.7096 -1.0055
57377SOL     OW90122  10.220   0.883   1.820 -0.2049  0.5142  0.3965
57377SOL    HW190123  10.286   0.815   1.806 -0.7795 -0.0966  0.5933
57377SOL    HW290124  10.157   0.842   1.879 -1.0569  0.8901 -0.2415
57378SOL     OW90125  11.130   8.869   7.969  0.9306 -0.4913  0.2705
57378SOL    HW190126  11.129   8.952   8.018  1.9652 -0.3741  0.1087
57378SOL    HW290127  11.058   8.878   7.906 -0.1470 -0.4666  1.4645
57379SOL     OW90128   8.033   5.631  12.858  0.6724 -0.1147  0.4596
57379SOL    HW190129   8.043   5.706  12.801  1.4206 -0.4298  0.1683
57379SOL    HW290130   8.044   5.666  12.947  1.6118  0.0362  0.2977
57380SOL     OW90131  11.517   6.690   9.669 -0.6380  0.4862 -0.1511
57380SOL    HW190132  11.541   6.686   9.761 -0.8663 -0.5479 -0.1332
57380SOL    HW290133  11.594   6.660   9.622 -0.6138  0.7623 -0.2938
57381SOL     OW90134   6.786   3.562   5.018  0.2470 -0.0303 -0.3413
57381SOL    HW190135   6.796   3.496   4.950 -1.5097 -0.4519 -0.2512
57381SOL    HW290136   6.749   3.514   5.093  0.1582  0.8087  0.1714
57382SOL     OW90137   3.419   5.638  10.022  0.3301  0.1511 -0.1011
57382SOL    HW190138   3.353   5.700   9.992  1.5853  1.5912  0.0185
57382SOL    HW290139   3.418   5.568   9.955 -0.2934  0.8691 -0.8659
57383SOL     OW90140   6.847  11.126  13.355 -0.0046  0.5381 -0.1603
57383SOL    HW190141   6.877  11.173  13.277  1.1884 -0.3121 -0.2410
57383SOL    HW290142   6.774  11.072  13.324 -1.9227  2.8381  0.0964
57384SOL     OW90143   4.307   6.187  10.623  0.6032  0.3151  0.2945
57384SOL    HW190144   4.375   6.120  10.632  0.4937  0.1294 -0.1851
57384SOL    HW290145   4.249   6.152  10.555 -1.1630 -0.5510  2.1271
57385SOL     OW90146   4.964   9.211   0.851  0.3581 -0.8946 -0.5209
57385SOL    HW190147   4.888   9.158   0.823  0.8054 -2.3559  0.8807
57385SOL    HW290148   4.925   9.291   0.887 -0.6518 -2.0188  1.0540
57386SOL     OW90149   2.373   7.540   8.094 -0.8186 -0.2814  0.1365
57386SOL    HW190150   2.411   7.493   8.020  0.0879 -0.1510  0.5028
57386SOL    HW290151   2.282   7.556   8.068 -0.6517 -0.6658 -0.7352
57387SOL     OW90152   6.853   2.756   9.275  0.3750 -0.2926  0.0396
57387SOL    HW190153   6.910   2.780   9.348  2.8575  0.4188 -1.9829
57387SOL    HW290154   6.843   2.661   9.282  2.2201 -0.5080  0.2623
57388SOL     OW90155   9.168   6.923   4.019  0.5986  0.1508 -0.0470
57388SOL    HW190156   9.090   6.873   3.996  0.0973  0.3961  1.0683
57388SOL    HW290157   9.235   6.892   3.959 -0.5423  0.4731 -1.5381
57389SOL     OW90158  10.934   6.892   1.368 -0.0041 -0.0083 -0.2283
57389SOL    HW190159  10.853   6.920   1.326 -0.8157 -1.7455  0.0750
57389SOL    HW290160  10.965   6.970   1.414 -1.4242  0.7429 -0.4646
57390SOL     OW90161   3.716   0.468   5.737 -0.0990  0.1126 -0.2695
57390SOL    HW190162   3.807   0.486   5.758 -0.2369 -0.9574  1.4873
57390SOL    HW290163   3.720   0.405   5.665  0.5814 -0.3878  0.1907
57391SOL     OW90164   8.315  10.609   3.310  0.3715 -0.5514  0.0289
57391SOL    HW190165   8.367  10.530   3.294  0.3191 -0.5505 -0.1476
57391SOL    HW290166   8.239  10.599   3.253  1.2198  0.4672 -1.3678
57392SOL     OW90167   2.157  13.261   8.664  0.0695 -1.0691  1.1056
57392SOL    HW190168   2.084  13.299   8.712  0.3778  0.0144  0.7455
57392SOL    HW290169   2.205  13.211   8.730  0.6196  0.5861  2.0290
57393SOL     OW90170   6.599   1.173   8.995 -0.1186 -0.3695 -0.0287
57393SOL    HW190171   6.545   1.246   9.027 -0.1732  0.2760 -1.5133
57393SOL    HW290172   6.628   1.128   9.075 -0.2190  1.1763  0.9293
57394SOL     OW90173   0.952   0.436  12.905  0.3139 -0.3437  0.4745
57394SOL    HW190174   0.929   0.408  12.994 -2.0500 -0.3953 -0.0805
57394SOL    HW290175   0.885   0.397  12.850  2.2633 -1.0873 -1.4982
57395SOL     OW90176  10.277   3.242  11.248 -0.3134 -0.0981  0.2430
57395SOL    HW190177  10.230   3.170  11.206  0.1366 -1.4761  2.0003
57395SOL    HW290178  10.333   3.201  11.313  0.3364  1.8143  0.9851
57396SOL     OW90179  11.358   8.469  10.610  0.4149  0.5616 -0.0148
57396SOL    HW190180  11.273   8.505  10.632  0.2464  0.2622 -0.1652
57396SOL    HW290181  11.346   8.374  10.615  0.7013  0.5148 -0.1644
57397SOL     OW90182   9.227  12.067   1.691  0.0808  0.5832 -0.1662
57397SOL    HW190183   9.187  11.999   1.636  0.5560 -0.4275  0.6906
57397SOL    HW290184   9.298  12.102   1.638  0.0015  0.2084 -0.5265
57398SOL     OW90185   9.734   5.969   1.751  0.7521  0.0190 -0.0513
57398SOL    HW190186   9.695   6.056   1.759 -1.1289 -0.8559  1.0250
57398SOL    HW290187   9.739   5.954   1.656 -0.1170  0.7900 -0.2333
57399SOL     OW90188   6.504   7.010   6.189 -0.2288  0.6068 -0.5962
57399SOL    HW190189   6.521   6.931   6.138 -0.1490  0.4948 -0.3958
57399SOL    HW290190   6.575   7.070   6.164  0.9016 -0.0957  0.7344
57400SOL     OW90191   3.506   9.050   6.638 -0.5814  0.1656 -0.3436
57400SOL    HW190192   3.577   9.086   6.693 -0.3608  3.1398 -2.3104
57400SOL    HW290193   3.433   9.038   6.699  0.9521 -1.0533  1.3711
57401SOL     OW90194  13.849   3.203   1.057  0.0121  0.1689  0.3398
57401SOL    HW190195  13.809   3.282   1.020 -2.3426 -0.3553  1.5236
57401SOL    HW290196  13.785   3.134   1.039  2.2814 -1.6852 -1.2240
57402SOL     OW90197   9.499   1.958   8.633  0.3399 -0.3865  0.7225
57402SOL    HW190198   9.584   1.975   8.674  0.0545  0.5909  0.9536
57402SOL    HW290199   9.451   2.040   8.644 -0.9007 -1.1568  1.2361
57403SOL     OW90200   1.940   6.438  10.899 -0.7737 -0.4384  0.1079
57403SOL    HW190201   1.896   6.383  10.964  0.0103 -0.3110  0.7722
57403SOL    HW290202   1.997   6.377  10.852  1.1725 -0.0356  1.7883
57404SOL     OW90203   4.191   6.805   9.088  0.8102  0.0884 -0.3471
57404SOL    HW190204   4.268   6.861   9.096  0.5624  0.4099 -0.1461
57404SOL    HW290205   4.225   6.717   9.073  1.2582 -0.0655  1.3876
57405SOL     OW90206   0.894   3.142   9.182 -0.1525  0.0890 -0.2723
57405SOL    HW190207   0.803   3.141   9.214 -0.8645  2.3359 -1.9489
57405SOL    HW290208   0.941   3.194   9.247 -0.1760 -0.5580  0.2765
57406SOL     OW90209   2.635  13.692   5.603  0.3333 -0.9160 -0.1426
57406SOL    HW190210   2.597  13.605   5.590 -1.3276 -0.1244 -0.8505
57406SOL    HW290211   2.621  13.711   5.696 -0.9652 -0.6730 -0.3754
57407SOL     OW90212   6.188   3.539   1.469  0.2962 -0.1795 -0.4716
57407SOL    HW190213   6.102   3.564   1.505 -0.3138 -2.2646 -0.3793
57407SOL    HW290214   6.222   3.620   1.431 -1.1917  0.9693  0.5166
57408SOL     OW90215   8.732  10.539   2.212  0.2874 -0.4543 -0.2797
57408SOL    HW190216   8.648  10.492   2.214  0.3436 -0.6415 -1.5592
57408SOL    HW290217   8.720  10.605   2.144 -0.4038  2.6459  2.5938
57409SOL     OW90218   4.071   5.311  11.323  0.4347  0.0052 -0.0957
57409SOL    HW190219   3.999   5.364  11.357 -0.8691 -1.2198 -0.8070
57409SOL    HW290220   4.088   5.247  11.391  1.5278  0.8582  0.4645
57410SOL     OW90221   2.391   9.640   1.639  0.3760 -0.2147  0.0043
57410SOL    HW190222   2.378   9.641   1.545 -0.1947 -1.0178  0.0657
57410SOL    HW290223   2.483   9.664   1.651  0.3423  0.3103 -0.7212
57411SOL     OW90224   8.565   3.769   1.524 -0.1315  0.5363 -0.0407
57411SOL    HW190225   8.484   3.812   1.496  0.6345  1.4008 -1.0483
57411SOL    HW290226   8.566   3.687   1.475 -0.7931  0.1313  0.6115
57412SOL     OW90227   5.379   4.665   6.226  0.1568 -0.4728 -0.1231
57412SOL    HW190228   5.396   4.571   6.224 -0.2067 -0.5366 -0.3938
57412SOL    HW290229   5.436   4.699   6.295  1.2901 -0.6790 -0.9455
57413SOL     OW90230   9.453  10.474   4.817  0.4112  0.3504  0.0576
57413SOL    HW190231   9.375  10.459   4.763 -0.2052  0.6450  0.8375
57413SOL    HW290232   9.515  10.408   4.788  0.2174  0.7129 -1.2267
57414SOL     OW90233   8.752   7.375   1.300 -0.4002  0.0074 -0.1683
57414SOL    HW190234   8.822   7.405   1.358  0.6815 -1.1070 -0.8401
57414SOL    HW290235   8.723   7.455   1.255  0.6784  0.4626 -0.1105
57415SOL     OW90236   1.500   5.562   4.156 -0.2432 -0.2639 -0.0407
57415SOL    HW190237   1.522   5.627   4.222 -0.6031  0.1803 -0.3507
57415SOL    HW290238   1.585   5.535   4.120 -0.0313 -0.6832  0.7570
57416SOL     OW90239   7.725  14.059  10.842 -0.1858  0.3568  0.6173
57416SOL    HW190240   7.687  13.999  10.778 -0.3686  1.6934 -0.5689
57416SOL    HW290241   7.703  14.147  10.810  0.7718  1.0961  1.8559
57417SOL     OW90242  11.495  10.189   7.390  0.4022 -0.3214 -0.0653
57417SOL    HW190243  11.551  10.181   7.314  0.6391 -0.8633  0.1647
57417SOL    HW290244  11.406  10.176   7.356  0.6042 -1.8157 -0.0508
57418SOL     OW90245  12.169  12.286   7.189  0.2359  0.0411  0.1506
57418SOL    HW190246  12.253  12.316   7.155  0.7198  0.4203  1.5917
57418SOL    HW290247  12.112  12.362   7.183  0.3629  0.1510  0.3354
57419SOL     OW90248   1.132   2.920  11.811  0.1448  0.5219  0.7367
57419SOL    HW190249   1.181   2.853  11.858 -0.5874  0.7373  1.8489
57419SOL    HW290250   1.040   2.893  11.820 -0.1374  1.5179  0.9548
57420SOL     OW90251  13.827   5.764   4.581 -0.3932 -0.5985  0.2187
57420SOL    HW190252  13.748   5.728   4.542 -0.6473 -0.8681  0.9680
57420SOL    HW290253  13.852   5.702   4.649 -0.1559  0.0272  0.7216
57421SOL     OW90254   4.881   0.809   6.261 -0.0339  0.0501 -0.0857
57421SOL    HW190255   4.947   0.745   6.288  0.5952  0.8114  0.2452
57421SOL    HW290256   4.854   0.780   6.174 -2.4983 -2.7641  1.4354
57422SOL     OW90257   7.513  10.150   5.919 -0.3396 -0.7762  0.1828
57422SOL    HW190258   7.524  10.159   6.014 -2.2500  0.1627  0.3607
57422SOL    HW290259   7.419  10.136   5.908 -0.2016 -0.4323 -1.6167
57423SOL     OW90260   3.612  11.972  10.730 -0.5714 -0.1739  0.7368
57423SOL    HW190261   3.590  12.065  10.738  0.5784  0.2071 -0.1317
57423SOL    HW290262   3.533  11.926  10.755 -1.6487  1.0768 -0.2128
57424SOL     OW90263  12.207   3.729   8.141  0.0238  0.3159  0.3037
57424SOL    HW190264  12.175   3.694   8.057  0.8193  1.0626 -0.3244
57424SOL    HW290265  12.195   3.823   8.134  1.9143  0.5943  0.2163
57425SOL     OW90266   7.688   3.746   6.324 -0.4336 -0.2340  0.5776
57425SOL    HW190267   7.603   3.766   6.286  0.5548  0.0572 -1.6686
57425SOL    HW290268   7.741   3.824   6.307  0.6481 -0.9172  0.7123
57426SOL     OW90269   9.651   0.134  11.023  0.8534  0.8180  0.3748
57426SOL    HW190270   9.701   0.167  11.097  1.4315  0.5718  0.1016
57426SOL    HW290271   9.715   0.086  10.970  0.3503  0.5830 -0.0314
57427SOL     OW90272   4.826  10.335   3.052  0.1441  0.1437 -0.0893
57427SOL    HW190273   4.899  10.284   3.088  0.3765  1.1291  0.8982
57427SOL    HW290274   4.842  10.336   2.957  0.2928 -1.3329 -0.1039
57428SOL     OW90275   7.535  12.171   7.747  0.4729 -0.7821  0.0590
57428SOL    HW190276   7.492  12.118   7.680  0.4222 -0.9689  0.2386
57428SOL    HW290277   7.606  12.216   7.701  0.2206 -0.6380 -0.1938
57429SOL     OW90278   7.545  12.637  11.420  0.0148  0.5720  0.0987
57429SOL    HW190279   7.565  12.633  11.327  1.4867  0.3789  0.4006
57429SOL    HW290280   7.493  12.717  11.430 -0.7343  0.2325 -0.9715
57430SOL     OW90281   7.294   3.407   8.467 -0.1141  0.5038  0.4184
57430SOL    HW190282   7.330   3.324   8.437  1.3240  1.4445 -0.6330
57430SOL    HW290283   7.299   3.403   8.563 -0.5003 -0.7858  0.3899
57431SOL     OW90284   6.626  13.895  12.140  0.1914 -0.8484 -0.2136
57431SOL    HW190285   6.703  13.941  12.171  1.1209 -1.8513 -0.9319
57431SOL    HW290286   6.635  13.806  12.175 -1.7905 -0.4469  1.5331
57432SOL     OW90287   5.878   9.459   5.423 -0.2333 -0.0375  0.0667
57432SOL    HW190288   5.849   9.376   5.460 -0.2442 -1.5244 -2.9240
57432SOL    HW290289   5.973   9.456   5.428 -0.2446 -0.1406  0.1976
57433SOL     OW90290   9.275   0.355   9.506 -0.3464 -0.2862 -0.3426
57433SOL    HW190291   9.236   0.399   9.582  0.5449  1.2240 -0.7370
57433SOL    HW290292   9.304   0.425   9.449  0.5832 -1.3912 -1.2861
57434SOL     OW90293   1.531   8.941   9.902 -0.3478  0.3547 -0.2923
57434SOL    HW190294   1.507   9.033   9.886 -0.9272  0.3049  0.2376
57434SOL    HW290295   1.532   8.900   9.816 -1.6482  0.4902 -0.3858
57435SOL     OW90296   5.818   2.950   9.717  0.4047 -0.6753 -0.0241
57435SOL    HW190297   5.896   2.894   9.717 -0.0107 -1.2631 -0.0724
57435SOL    HW290298   5.816   2.989   9.805  3.1872  2.8444 -1.2723
57436SOL     OW90299  12.173   5.370   5.633  0.4299  0.7628  0.2239
57436SOL    HW190300  12.125   5.374   5.716 -0.4495 -1.5754 -0.0844
57436SOL    HW290301  12.256   5.412   5.651  0.6683 -0.5600  2.6486
57437SOL     OW90302  10.956   9.208  10.891  0.1493  0.2303 -0.2003
57437SOL    HW190303  10.948   9.252  10.976  0.2846 -0.4371  0.1685
57437SOL    HW290304  10.875   9.157  10.884  0.2482  0.1004 -0.3654
57438SOL     OW90305   3.722   4.812   6.163  0.7792  0.2413 -0.2015
57438SOL    HW190306   3.706   4.880   6.229 -2.3536  0.2457 -0.8124
57438SOL    HW290307   3.751   4.737   6.213 -0.6575  0.5200  1.1588
57439SOL     OW90308   4.765  11.332   7.353 -0.1070  0.1218  0.4415
57439SOL    HW190309   4.859  11.330   7.371  0.1388 -1.2633 -0.7351
57439SOL    HW290310   4.732  11.407   7.402  1.9639  1.9802 -0.8001
57440SOL     OW90311  12.799   4.669   3.102  0.0100 -0.6853 -0.3002
57440SOL    HW190312  12.764   4.743   3.054  0.8008 -0.8084 -1.0849
57440SOL    HW290313  12.841   4.614   3.036  2.9145  0.1451  0.7096
57441SOL     OW90314   7.923   1.940   0.761  0.4425  0.2176  0.5422
57441SOL    HW190315   7.945   2.032   0.746 -0.4175  0.1044 -1.8713
57441SOL    HW290316   7.984   1.891   0.705 -0.9744 -0.4733 -0.4768
57442SOL     OW90317   4.390   7.119   7.986 -0.5882 -0.4151  0.0746
57442SOL    HW190318   4.330   7.108   7.912 -1.1980 -1.3382  0.6870
57442SOL    HW290319   4.333   7.123   8.063 -0.0238  1.4878  0.4481
57443SOL     OW90320   9.020  13.692   1.727 -0.3288 -0.1036  0.0748
57443SOL    HW190321   9.110  13.667   1.750  0.1101 -0.2417 -1.6670
57443SOL    HW290322   9.030  13.759   1.659 -1.4795 -1.6778 -1.7704
57444SOL     OW90323  12.067   2.116  12.486  0.2616  0.2355  0.1363
57444SOL    HW190324  12.118   2.123  12.406 -0.2419  2.8858 -0.0365
57444SOL    HW290325  11.976   2.131  12.458  0.1550  1.8710  1.2266
57445SOL     OW90326  11.101   4.562  10.606 -0.6565  0.0456 -0.0375
57445SOL    HW190327  11.122   4.635  10.548 -0.7570 -0.7456 -1.1096
57445SOL    HW290328  11.123   4.593  10.694  1.5008  0.5714 -0.7012
57446SOL     OW90329  11.095  12.708  13.531 -0.3932 -0.1613 -0.1435
57446SOL    HW190330  11.037  12.633  13.513 -3.3906  1.9585 -0.1490
57446SOL    HW290331  11.082  12.725  13.624 -0.4547  0.8345 -0.3227
57447SOL     OW90332  13.075   2.056   5.767 -0.5865 -0.2507  0.1274
57447SOL    HW190333  13.062   2.145   5.801  0.6727  0.4757 -1.2113
57447SOL    HW290334  13.156   2.026   5.808 -0.1233 -0.1354 -0.6949
57448SOL     OW90335  10.906  10.104   1.948  1.0535  0.4722  0.1966
57448SOL    HW190336  10.914  10.089   2.042 -0.1088  1.3319  0.4580
57448SOL    HW290337  10.994  10.128   1.919  1.2763  0.8833  1.2010
57449SOL     OW90338   1.761   1.870   0.585 -0.4122 -0.4678  0.3270
57449SOL    HW190339   1.722   1.872   0.498  0.5190 -1.7856 -0.1534
57449SOL    HW290340   1.685   1.859   0.644 -1.3981  3.5597  0.0643
57450SOL     OW90341  12.112   6.260   8.462 -0.1275  0.4410 -0.1252
57450SOL    HW190342  12.197   6.294   8.432  1.5316 -0.4614  2.9975
57450SOL    HW290343  12.095   6.309   8.543 -1.7363 -0.6032  0.1975
57451SOL     OW90344   4.875   7.378   9.395 -0.0663  0.0326  0.1058
57451SOL    HW190345   4.959   7.344   9.364 -0.3993 -0.4910 -0.2392
57451SOL    HW290346   4.874   7.359   9.488 -0.6480 -1.8454 -0.2268
57452SOL     OW90347   0.527  11.591   0.621  0.6868  0.3954  0.5920
57452SOL    HW190348   0.508  11.553   0.536  1.0494  0.8537  0.2993
57452SOL    HW290349   0.623  11.596   0.625  0.6525  1.5087  0.5048
57453SOL     OW90350   0.027   9.393   2.085  0.2382 -0.6935  0.6161
57453SOL    HW190351  -0.035   9.465   2.074  0.1198 -0.5614  2.0211
57453SOL    HW290352  -0.029   9.318   2.109  0.3859 -1.2018 -0.5633
57454SOL     OW90353  10.160   8.971  12.491  0.2312  0.5068  0.5073
57454SOL    HW190354  10.233   8.921  12.454 -1.6865 -1.4779 -0.8003
57454SOL    HW290355  10.188   9.062  12.484  2.2220 -0.1375 -0.7427
57455SOL     OW90356  11.593   4.669   4.460 -0.4245 -0.4254 -0.3915
57455SOL    HW190357  11.688   4.680   4.460 -0.5120  1.4510  2.1781
57455SOL    HW290358  11.572   4.640   4.372  2.5929 -1.8731 -0.7882
57456SOL     OW90359  11.190   2.570   6.752 -0.2980  0.1326 -0.2474
57456SOL    HW190360  11.129   2.643   6.763 -0.4387  0.3061 -1.9178
57456SOL    HW290361  11.276   2.611   6.743 -0.5114  0.2314 -2.3483
57457SOL     OW90362   2.920  11.986   9.192  0.0083 -0.0584 -0.3412
57457SOL    HW190363   2.841  11.934   9.176  0.7718 -0.8340 -1.7826
57457SOL    HW290364   2.992  11.926   9.175  0.9525  0.3992  1.7606
57458SOL     OW90365   7.886   1.966  13.388 -0.3070  0.8308  0.5840
57458SOL    HW190366   7.872   2.044  13.442  0.2993  0.6048  1.0932
57458SOL    HW290367   7.978   1.943  13.405 -0.1300  0.7124 -0.4983
57459SOL     OW90368  13.738  10.766  12.093  0.1703  0.5060  0.9689
57459SOL    HW190369  13.796  10.719  12.152 -0.2349  0.3568  1.2459
57459SOL    HW290370  13.792  10.839  12.061  0.4350  0.5090  1.4075
57460SOL     OW90371  12.159   6.019   3.665 -0.2126 -0.4010  0.1309
57460SOL    HW190372  12.145   6.080   3.738 -0.9965 -0.7940  0.3108
57460SOL    HW290373  12.084   6.033   3.607  0.1356 -0.4723 -0.3448
57461SOL     OW90374   5.878  13.812  13.079 -0.5401  0.1434 -0.1385
57461SOL    HW190375   5.927  13.732  13.095 -1.6654 -0.5676 -0.0695
57461SOL    HW290376   5.850  13.841  13.166  0.5284  1.0707 -0.0865
57462SOL     OW90377  11.377   3.395   3.009 -0.0990  0.9929  0.5239
57462SOL    HW190378  11.378   3.378   3.103  0.4596  1.0152  0.5223
57462SOL    HW290379  11.395   3.489   3.001 -0.7421  1.1128  0.4192
57463SOL     OW90380  12.785   2.165   5.329 -0.3943 -0.5251  0.0089
57463SOL    HW190381  12.702   2.158   5.282 -0.6631 -1.2900  0.5721
57463SOL    HW290382  12.808   2.257   5.323 -1.6004 -0.1779  0.3757
57464SOL     OW90383   0.182   1.586   6.968  0.4091 -0.0234  0.5631
57464SOL    HW190384   0.166   1.616   7.058 -1.9686  0.8076 -0.0556
57464SOL    HW290385   0.142   1.499   6.965 -1.2227  0.7225 -0.1520
57465SOL     OW90386   9.466  13.366   4.616 -0.5093  0.5649  0.4066
57465SOL    HW190387   9.511  13.450   4.606  1.5987 -0.4932  0.4915
57465SOL    HW290388   9.433  13.346   4.528  0.0804  0.8858  0.1070
57466SOL     OW90389  12.504   7.237   1.916  0.1658 -0.0027 -0.7027
57466SOL    HW190390  12.489   7.145   1.896 -0.4567  0.1513 -0.9573
57466SOL    HW290391  12.589   7.257   1.875  0.1086 -0.3544 -0.9932
57467SOL     OW90392  12.549  10.054   8.586 -0.9163  0.2537  0.3238
57467SOL    HW190393  12.579  10.004   8.509 -0.7619  0.8150  0.0074
57467SOL    HW290394  12.472  10.008   8.617  1.2456 -2.3418  2.2736
57468SOL     OW90395   1.795  10.479   0.740  0.3633  0.1508  0.3356
57468SOL    HW190396   1.824  10.533   0.666 -0.0065  1.3462  1.0229
57468SOL    HW290397   1.875  10.460   0.788  0.6030 -0.6162 -0.3414
57469SOL     OW90398  11.797   1.863   5.092 -0.0848  0.4939  0.0999
57469SOL    HW190399  11.865   1.911   5.046 -0.9276  2.0626  0.4113
57469SOL    HW290400  11.837   1.779   5.115  1.0307  0.5355 -1.5609
57470SOL     OW90401   5.628   1.908   5.819 -0.9448 -0.1572  0.3123
57470SOL    HW190402   5.553   1.949   5.776  0.3487  1.3420 -0.6435
57470SOL    HW290403   5.703   1.936   5.767  0.2691 -1.7536  1.1397
57471SOL     OW90404  11.909   2.503  13.215 -0.3052  0.0472 -0.0706
57471SOL    HW190405  11.946   2.586  13.248  1.2081  0.6482 -2.9308
57471SOL    HW290406  11.876   2.525  13.128 -0.1429 -2.3094 -0.7873
57472SOL     OW90407   4.171  13.644  11.611  0.3334 -0.5081  0.2974
57472SOL    HW190408   4.234  13.704  11.650  0.2159 -0.7927  0.9407
57472SOL    HW290409   4.094  13.649  11.668  0.3675 -1.3469  0.4289
57473SOL     OW90410   6.881   9.581   0.384  0.1159  0.5672 -0.0316
57473SOL    HW190411   6.817   9.520   0.349 -0.6867  2.0826 -1.3662
57473SOL    HW290412   6.919   9.623   0.307  2.1187  0.3368  0.7595
57474SOL     OW90413  10.039   7.858  12.922  0.3287 -0.8720  0.1924
57474SOL    HW190414  10.024   7.764  12.914  0.4933 -1.1344  2.3451
57474SOL    HW290415  10.135   7.866  12.928  0.2463 -0.9287  2.8026
57475SOL     OW90416   7.694   4.261   9.400  0.2025 -0.1291 -0.5656
57475SOL    HW190417   7.757   4.194   9.374  1.0364  0.2620  0.3449
57475SOL    HW290418   7.685   4.249   9.495  0.8498  1.3973 -0.2717
57476SOL     OW90419   0.781  13.042   0.468 -0.1128 -0.1695 -0.3923
57476SOL    HW190420   0.795  13.118   0.412 -1.5736 -0.8369 -1.7115
57476SOL    HW290421   0.869  13.007   0.483  0.5892  1.7904  0.3074
57477SOL     OW90422   8.739  13.211   0.327  0.1214 -0.0726 -0.2517
57477SOL    HW190423   8.724  13.292   0.374  3.7111  1.5207 -1.5373
57477SOL    HW290424   8.700  13.226   0.240 -2.5590 -1.3281  0.6080
57478SOL     OW90425   7.452  11.704   2.756  0.6131  0.3582  0.5552
57478SOL    HW190426   7.498  11.785   2.779 -0.6753  1.2670  0.0592
57478SOL    HW290427   7.414  11.722   2.670  1.6019 -1.3592 -0.3002
57479SOL     OW90428   9.602   1.417  13.140 -0.0923 -0.2049  1.1924
57479SOL    HW190429   9.592   1.510  13.119 -2.4461 -0.6558 -0.0722
57479SOL    HW290430   9.546   1.403  13.216  0.1103 -0.6147  1.2697
57480SOL     OW90431   5.696  11.936  10.196  0.1770 -0.3265  0.2447
57480SOL    HW190432   5.627  11.925  10.261 -1.8859  2.6112 -1.2305
57480SOL    HW290433   5.744  12.013  10.225  0.5994 -0.2590 -0.6103
57481SOL     OW90434  11.179  10.144   6.141 -0.2385 -0.0194  0.0393
57481SOL    HW190435  11.219  10.176   6.061  0.7111 -1.1921  0.0086
57481SOL    HW290436  11.249  10.147   6.206 -0.5439 -0.5986  0.4041
57482SOL     OW90437  11.303  10.147   2.118  0.8923 -0.1128  0.4267
57482SOL    HW190438  11.310  10.072   2.177  0.6590  1.4094  2.4953
57482SOL    HW290439  11.381  10.142   2.063  0.9229 -1.7907  0.5636
57483SOL     OW90440   3.047   1.372   9.560  0.6261  0.1213  0.3552
57483SOL    HW190441   3.064   1.436   9.629  2.5587  0.0048  0.0404
57483SOL    HW290442   3.133   1.353   9.523 -0.2078 -0.8085 -1.2192
57484SOL     OW90443  10.719   9.823  13.415 -0.0517  0.0885 -0.9897
57484SOL    HW190444  10.741   9.907  13.455  1.3100  0.0158 -1.5354
57484SOL    HW290445  10.802   9.775  13.412 -1.1469 -2.2020  1.3960
57485SOL     OW90446   7.204   3.453  11.731  0.3154 -0.2219 -0.4339
57485SOL    HW190447   7.213   3.357  11.728 -0.9135 -0.3369 -1.6042
57485SOL    HW290448   7.292   3.485  11.746  0.9974 -1.4971 -1.4983
57486SOL     OW90449  11.069  12.653   1.800 -0.6934  0.1243 -0.0457
57486SOL    HW190450  10.986  12.689   1.832 -0.1551  0.6896  0.7508
57486SOL    HW290451  11.121  12.638   1.878  0.4610  1.0610 -0.5930
57487SOL     OW90452   9.589   0.228   5.372  0.0614  0.3613  0.8049
57487SOL    HW190453   9.505   0.217   5.327 -0.9128  1.1202  2.3604
57487SOL    HW290454   9.605   0.323   5.369  1.3134  0.1456 -0.2120
57488SOL     OW90455   7.313   2.988  13.726  0.4637  0.1165  0.2983
57488SOL    HW190456   7.281   2.998  13.816 -0.5848  0.4671 -0.0988
57488SOL    HW290457   7.315   3.078  13.691  0.7791 -0.0258 -0.0619
57489SOL     OW90458   6.860   5.639  13.661 -0.4208 -0.5201  0.2847
57489SOL    HW190459   6.857   5.544  13.650 -0.1224 -0.4170 -0.8208
57489SOL    HW290460   6.948   5.664  13.634 -0.6314  0.1182  0.1627
57490SOL     OW90461   2.995   7.671   8.921 -0.1948 -0.5364  0.2139
57490SOL    HW190462   3.086   7.675   8.953 -0.2105 -1.7285  0.4396
57490SOL    HW290463   2.944   7.645   8.998 -0.6970 -0.1600  0.0102
57491SOL     OW90464  10.342   0.108   3.565  0.0938 -0.0085 -0.3565
57491SOL    HW190465  10.251   0.116   3.594  0.1999 -1.1182  0.3500
57491SOL    HW290466  10.341   0.141   3.475 -0.8680  0.6430 -0.1228
57492SOL     OW90467   3.953   0.738   0.582 -0.2200  0.6229 -0.2611
57492SOL    HW190468   3.968   0.654   0.626 -0.7651  0.9012  0.4696
57492SOL    HW290469   3.983   0.723   0.492 -0.6326 -0.4714 -0.2422
57493SOL     OW90470  13.440   6.660   0.339 -0.4983  0.1225 -0.2313
57493SOL    HW190471  13.481   6.574   0.339 -1.8497 -0.5532  0.1050
57493SOL    HW290472  13.449   6.691   0.249 -0.3003 -0.5154 -0.4347
57494SOL     OW90473  13.866   7.194  10.324  0.4227  0.6426 -0.3935
57494SOL    HW190474  13.937   7.130  10.321  1.9267  2.0716  1.7985
57494SOL    HW290475  13.889   7.252  10.396 -2.2703  2.0482 -0.5392
57495SOL     OW90476   4.867   4.112   5.126 -0.7237 -0.4674  0.1058
57495SOL    HW190477   4.807   4.038   5.127 -0.4521 -0.6955  1.1656
57495SOL    HW290478   4.811   4.189   5.139 -0.9919 -0.4901 -0.8796
57496SOL     OW90479  11.302   2.150   3.603  0.5782  0.3066  0.3849
57496SOL    HW190480  11.309   2.138   3.508  0.0033 -0.7260  0.4557
57496SOL    HW290481  11.379   2.107   3.639  0.1094 -0.5066  0.4510
57497SOL     OW90482   3.811   2.365  12.219 -0.0635  0.3114 -0.1692
57497SOL    HW190483   3.794   2.423  12.293 -2.1077 -1.3526  0.7699
57497SOL    HW290484   3.737   2.379  12.161 -1.9088 -2.9032  1.1861
57498SOL     OW90485  11.016   4.945  11.490 -0.5334  0.6277 -0.1541
57498SOL    HW190486  11.109   4.960  11.470 -0.2069  0.5823  1.2503
57498SOL    HW290487  10.970   4.994  11.422  0.5294  1.8842 -0.0238
57499SOL     OW90488  10.783   3.562   4.696  0.4712  0.1033 -0.5389
57499SOL    HW190489  10.813   3.642   4.740  1.0404 -0.2724 -0.2290
57499SOL    HW290490  10.689   3.558   4.713  0.4178  0.7701 -0.6626
57500SOL     OW90491  12.011  10.377  12.631 -0.4159  0.1476  0.1440
57500SOL    HW190492  11.981  10.302  12.581  0.4785  0.8343 -1.4981
57500SOL    HW290493  11.932  10.411  12.672 -1.0473 -0.9016 -0.1598
57501SOL     OW90494   1.931   0.941   2.442 -0.1847  0.3739 -0.1253
57501SOL    HW190495   1.853   0.955   2.389 -0.2220  0.0929 -0.1438
57501SOL    HW290496   1.897   0.926   2.531 -0.1650 -0.0277 -0.1861
57502SOL     OW90497   2.145   7.707  13.964  0.2601 -0.8361  0.3675
57502SOL    HW190498   2.170   7.621  13.997 -0.1061 -1.0063  0.2105
57502SOL    HW290499   2.088   7.743  14.033  0.7612 -0.5346  0.6326
57503SOL     OW90500  12.905   5.372   9.783  0.4160 -0.0277 -0.4788
57503SOL    HW190501  12.900   5.418   9.699 -0.3260 -3.7811 -2.7342
57503SOL    HW290502  12.998   5.371   9.804  0.9967 -1.0432 -2.6784
57504SOL     OW90503   4.624  13.330  11.303 -0.5204  0.0808 -0.1071
57504SOL    HW190504   4.624  13.356  11.395  0.3129  0.8602 -0.3147
57504SOL    HW290505   4.695  13.267  11.295 -0.9169 -0.3742 -0.1241
57505SOL     OW90506   7.694   4.174   5.746  0.0199  0.3381 -0.3741
57505SOL    HW190507   7.708   4.176   5.841 -0.1495 -3.0733 -0.1761
57505SOL    HW290508   7.781   4.164   5.708 -0.0986 -0.7468 -0.3902
57506SOL     OW90509  12.218  10.692  11.829 -0.1949 -0.4875  0.6411
57506SOL    HW190510  12.145  10.658  11.882 -0.9772  0.4797  0.2112
57506SOL    HW290511  12.196  10.784  11.815  0.1120 -0.6547 -1.1552
57507SOL     OW90512   0.157   1.080   8.430  0.2156 -0.1197 -0.0995
57507SOL    HW190513   0.187   1.100   8.519  0.4838  0.2269 -0.2634
57507SOL    HW290514   0.162   1.164   8.384 -2.1170  0.2490  0.1633
57508SOL     OW90515  13.193   5.475   2.779 -0.3541 -0.2473 -0.3503
57508SOL    HW190516  13.231   5.449   2.863 -2.1806  2.0412  1.3245
57508SOL    HW290517  13.198   5.397   2.725  2.2409 -1.3993  1.3444
57509SOL     OW90518   6.808   4.494   2.492  0.7306  0.3230  0.3507
57509SOL    HW190519   6.848   4.407   2.503 -0.0423  0.0522  1.2032
57509SOL    HW290520   6.730   4.478   2.439 -0.5918  0.1035  2.2614
57510SOL     OW90521   8.261   2.556   0.925  0.4420  0.1804  0.5285
57510SOL    HW190522   8.341   2.556   0.872 -0.2440  0.7815 -0.5483
57510SOL    HW290523   8.245   2.649   0.944 -0.5138  0.1670 -0.1085
57511SOL     OW90524   6.765   6.092  10.692  0.5635 -0.0261  0.3207
57511SOL    HW190525   6.749   6.069  10.783 -1.2905  2.4843  0.7224
57511SOL    HW290526   6.717   6.027  10.641 -2.2995  1.1700  1.3195
57512SOL     OW90527   2.187   2.054   9.798 -0.3029  0.4366  0.6329
57512SOL    HW190528   2.233   2.037   9.716  2.7848  1.9376  1.9144
57512SOL    HW290529   2.108   2.102   9.771  0.1236  0.0543 -1.5049
57513SOL     OW90530   7.257   3.365   6.957 -0.5172  0.1311  0.1919
57513SOL    HW190531   7.289   3.279   6.982  0.4150  0.6100  0.6645
57513SOL    HW290532   7.182   3.381   7.014 -1.0610 -0.5950 -0.2917
57514SOL     OW90533   4.953   5.177   2.182 -0.2243  0.5655 -0.1931
57514SOL    HW190534   4.889   5.238   2.219 -0.6852  0.2009 -0.3685
57514SOL    HW290535   4.923   5.091   2.211 -0.1470  0.3435 -0.7597
57515SOL     OW90536  12.626   7.438   0.222 -0.0285 -0.0108 -0.3656
57515SOL    HW190537  12.556   7.378   0.251  0.2989 -0.7791 -1.1250
57515SOL    HW290538  12.627   7.429   0.127  0.5880  0.5870 -0.4182
57516SOL     OW90539   1.622   6.282  10.292 -0.0116 -0.2446  0.0449
57516SOL    HW190540   1.638   6.315  10.380  0.0023  0.3855 -0.1941
57516SOL    HW290541   1.576   6.353  10.247  0.2696 -0.4347 -0.5571
57517SOL     OW90542  11.148   5.682   6.179  0.5773  0.4659  0.2137
57517SOL    HW190543  11.104   5.737   6.244 -0.0293  0.9010 -0.5561
57517SOL    HW290544  11.139   5.593   6.214  0.9965  0.7746  1.1398
57518SOL     OW90545   5.789   5.286   7.241  0.2625  0.0988  0.1745
57518SOL    HW190546   5.753   5.221   7.301  0.7944 -0.7010 -0.3431
57518SOL    HW290547   5.826   5.354   7.298 -4.9464  2.8511  0.8435
57519SOL     OW90548   7.240   3.152  10.064 -0.2439 -0.4602 -0.0036
57519SOL    HW190549   7.310   3.090  10.045 -0.4135 -0.5163 -0.4697
57519SOL    HW290550   7.255   3.179  10.154  0.3562 -0.4968 -0.0885
57520SOL     OW90551  13.599   7.837   3.110 -0.4357  0.1698 -0.0082
57520SOL    HW190552  13.578   7.822   3.018 -1.7685  2.3319 -0.1255
57520SOL    HW290553  13.633   7.753   3.141 -0.3464 -0.7234 -2.3433
57521SOL     OW90554  11.247   2.303   0.521 -0.2826  0.3837  0.3574
57521SOL    HW190555  11.169   2.343   0.484 -0.1380  1.9157  1.5493
57521SOL    HW290556  11.293   2.377   0.563  0.4982 -0.9025  1.8677
57522SOL     OW90557   3.860  10.423   9.346 -0.2396  0.8085  0.6245
57522SOL    HW190558   3.922  10.381   9.286 -0.6407  0.2546  0.5946
57522SOL    HW290559   3.785  10.446   9.290 -0.4974  0.5409  0.8575
57523SOL     OW90560   5.276   0.342  11.548 -0.3746  0.0346  0.4421
57523SOL    HW190561   5.359   0.306  11.581  0.1705  0.9133  0.0507
57523SOL    HW290562   5.234   0.380  11.626  0.3946  1.1108  0.3478
57524SOL     OW90563   2.395   6.407  10.071  0.1196  0.1764 -0.0973
57524SOL    HW190564   2.347   6.336  10.113  0.6170  0.5301  1.1113
57524SOL    HW290565   2.362   6.408   9.981 -0.5790 -0.9560  0.1223
57525SOL     OW90566   7.512  13.566  13.720  0.2098 -0.1279  0.1564
57525SOL    HW190567   7.527  13.472  13.710 -1.4095 -0.4083  0.0976
57525SOL    HW290568   7.417  13.575  13.730  0.2417  1.5806 -0.6210
57526SOL     OW90569  12.656  13.889  11.895 -0.2148 -0.3589  0.4416
57526SOL    HW190570  12.617  13.886  11.807 -0.3886  1.5760  0.4018
57526SOL    HW290571  12.724  13.822  11.893 -0.0586 -0.2057 -1.2666
57527SOL     OW90572   0.884   9.384  13.994  0.2517  0.4213 -1.1728
57527SOL    HW190573   0.970   9.344  13.982 -0.5133 -1.5086 -0.5339
57527SOL    HW290574   0.885   9.417  14.084  0.1072 -0.1789 -0.9490
57528SOL     OW90575   2.521   7.927   7.964  0.0055  0.6760 -0.6434
57528SOL    HW190576   2.494   8.018   7.978  1.7486  1.2264 -0.5774
57528SOL    HW290577   2.511   7.886   8.050  0.8952  1.3137 -0.2054
57529SOL     OW90578  13.040  12.125  10.603  0.6440 -0.1384 -0.1866
57529SOL    HW190579  13.032  12.043  10.651 -0.0361  0.2834  0.4424
57529SOL    HW290580  13.084  12.184  10.663  2.7221 -0.5192 -1.2609
57530SOL     OW90581   7.997   2.167   4.908 -0.6029  0.2904 -0.0010
57530SOL    HW190582   8.040   2.116   4.977  2.1972  1.4617 -0.7361
57530SOL    HW290583   7.998   2.110   4.831  1.0428  0.8059 -0.3932
57531SOL     OW90584   8.396  10.470  10.957  0.2104  0.4166 -0.2474
57531SOL    HW190585   8.473  10.449  11.009  0.4349 -1.3106 -1.1810
57531SOL    HW290586   8.421  10.445  10.868 -0.8586  1.4129 -0.8478
57532SOL     OW90587  13.488   3.836  10.943  0.4156 -0.5015 -0.1827
57532SOL    HW190588  13.439   3.778  10.885 -1.2657  1.0677 -0.4188
57532SOL    HW290589  13.527   3.901  10.885  1.4066 -0.7689  0.1725
57533SOL     OW90590   3.151  10.363   3.419 -0.4688  0.1618 -0.5338
57533SOL    HW190591   3.239  10.400   3.425 -0.1348 -0.7144  0.2851
57533SOL    HW290592   3.094  10.439   3.403  0.5108  0.6229 -2.0058
57534SOL     OW90593   6.449  10.115   1.321  0.7542 -0.0850  0.5665
57534SOL    HW190594   6.401  10.037   1.294  0.6519  0.2618 -0.2836
57534SOL    HW290595   6.501  10.139   1.244  1.8300 -0.1049  1.2652
57535SOL     OW90596   1.294  12.669  13.450 -0.0158  1.0054 -0.5502
57535SOL    HW190597   1.389  12.670  13.462 -0.1031  0.0646  0.3925
57535SOL    HW290598   1.261  12.733  13.514 -0.1368 -0.2734  0.7229
57536SOL     OW90599   0.527   1.553   8.841 -0.0846  0.0482 -0.2969
57536SOL    HW190600   0.493   1.574   8.928 -2.4673 -0.0703 -1.1102
57536SOL    HW290601   0.513   1.633   8.790 -1.4261 -0.7561 -1.2675
57537SOL     OW90602  13.861   8.950   3.891  0.7587 -0.1296  0.3568
57537SOL    HW190603  13.921   9.024   3.891  0.0305  0.4786  0.2652
57537SOL    HW290604  13.842   8.935   3.798  0.7433 -0.2936  0.3862
57538SOL     OW90605  12.274   8.848   0.458 -0.1901 -0.1286  0.3142
57538SOL    HW190606  12.312   8.882   0.540 -0.0751 -0.2071  0.2943
57538SOL    HW290607  12.303   8.910   0.391  1.9132 -1.4556 -0.0870
57539SOL     OW90608  11.930   9.964  10.847  0.2667  0.1329  0.2395
57539SOL    HW190609  11.843   9.956  10.885  0.5208 -0.2291  0.7516
57539SOL    HW290610  11.919  10.027  10.775 -0.3422  0.3491  0.5164
57540SOL     OW90611  13.076   9.077  10.866  0.3860 -0.9444 -0.2689
57540SOL    HW190612  13.160   9.031  10.858  0.9279 -0.4622  1.8220
57540SOL    HW290613  13.011   9.016  10.832  1.4347 -1.9307 -0.5560
57541SOL     OW90614   4.537  11.255   5.865 -0.2680 -0.1383  0.4969
57541SOL    HW190615   4.546  11.216   5.778 -0.1317  0.2789  0.3215
57541SOL    HW290616   4.552  11.349   5.851 -1.0307  0.0412  0.8370
57542SOL     OW90617   3.731  12.461  10.729  0.5446  0.1223  0.0166
57542SOL    HW190618   3.693  12.537  10.773  0.5479 -0.4996  1.1241
57542SOL    HW290619   3.816  12.448  10.771  0.8984 -0.0240 -0.7128
57543SOL     OW90620   5.424  12.694   3.786  0.9735 -0.4319  0.1601
57543SOL    HW190621   5.447  12.666   3.875 -1.3990 -1.7240  0.4437
57543SOL    HW290622   5.413  12.612   3.738  0.2320  0.2016 -0.7727
57544SOL     OW90623  10.057   6.699  11.990 -0.1985 -0.7623  0.2610
57544SOL    HW190624  10.026   6.664  11.906 -1.1519  2.1078 -0.6693
57544SOL    HW290625   9.980   6.740  12.029  0.5098 -1.0676  2.0527
57545SOL     OW90626   2.395   9.173   0.793  0.1004  0.2383  0.0321
57545SOL    HW190627   2.414   9.082   0.768 -0.1634 -0.0539  0.8558
57545SOL    HW290628   2.388   9.220   0.710 -2.2600 -0.9877 -0.5528
57546SOL     OW90629  12.160   8.026   0.751  0.2823 -0.2270 -0.1686
57546SOL    HW190630  12.145   7.940   0.711 -0.0107 -0.6401  0.8178
57546SOL    HW290631  12.153   8.011   0.845 -0.4263  0.9944 -0.0011
57547SOL     OW90632   4.544   0.079  13.812  0.1834  0.1719 -0.0907
57547SOL    HW190633   4.473   0.144  13.816  0.0841  0.3131 -2.5121
57547SOL    HW290634   4.616   0.126  13.768  1.5146 -0.2353  1.5544
57548SOL     OW90635   8.997   0.833   5.904 -0.3000  0.0238 -0.1637
57548SOL    HW190636   8.964   0.769   5.841 -0.2778 -0.5906  0.4372
57548SOL    HW290637   8.965   0.917   5.871 -1.1168 -0.3868 -0.4667
57549SOL     OW90638  12.833   5.889   6.021  0.1347 -0.2700  0.2300
57549SOL    HW190639  12.757   5.848   6.062 -0.7838  0.6941 -0.4664
57549SOL    HW290640  12.825   5.982   6.041  0.9775 -0.1119 -0.0992
57550SOL     OW90641  13.725  12.969   0.119  0.4465  0.2381  0.1503
57550SOL    HW190642  13.700  12.884   0.156 -1.6958  0.3689 -0.8746
57550SOL    HW290643  13.653  13.027   0.141  0.5342  1.0648 -1.5675
57551SOL     OW90644   0.042  12.053   6.518 -0.5677 -0.1813 -0.5434
57551SOL    HW190645   0.065  12.004   6.440 -2.3868 -0.9052 -0.6659
57551SOL    HW290646   0.049  12.145   6.492 -0.0600 -0.4078 -1.2091
57552SOL     OW90647  10.165  11.611   4.758 -0.2092  0.3022 -0.2133
57552SOL    HW190648  10.213  11.649   4.832  1.3956 -0.5291 -0.7804
57552SOL    HW290649  10.073  11.627   4.779  0.2472  1.0867  1.4046
57553SOL     OW90650   5.730   7.871  13.844 -0.2710 -0.0281 -0.3738
57553SOL    HW190651   5.817   7.909  13.834 -0.1262  0.0084  0.8681
57553SOL    HW290652   5.733   7.827  13.929 -1.4363 -0.1036 -0.3593
57554SOL     OW90653   3.210   7.911   5.211 -0.0555  0.2272 -0.1038
57554SOL    HW190654   3.114   7.921   5.207  0.0667  1.0460 -1.7660
57554SOL    HW290655   3.244   7.995   5.180  1.2146 -0.1555  0.1962
57555SOL     OW90656   8.142   8.586   3.897 -0.2846  0.4356  0.7177
57555SOL    HW190657   8.076   8.543   3.843 -0.1265  0.1039  0.7859
57555SOL    HW290658   8.095   8.613   3.976 -0.9998  2.7816 -0.4401
57556SOL     OW90659  12.985   3.198   8.563 -0.0527  0.2374 -0.0650
57556SOL    HW190660  13.029   3.253   8.498 -1.2740 -0.5175 -1.5973
57556SOL    HW290661  12.937   3.133   8.511 -1.4165 -0.1414  1.5830
57557SOL     OW90662   0.187   8.164  11.462 -0.3164 -0.2018  0.2241
57557SOL    HW190663   0.263   8.119  11.425 -0.7189  0.5296 -1.6257
57557SOL    HW290664   0.221   8.246  11.496 -0.1777 -0.1780  0.0262
57558SOL     OW90665  11.465   4.746   4.777 -0.2509 -0.0048  0.7019
57558SOL    HW190666  11.400   4.689   4.817  0.3300 -0.4146  1.0884
57558SOL    HW290667  11.436   4.757   4.686 -0.0261 -1.4623  0.4330
57559SOL     OW90668  13.227   8.191   6.611  0.2547  0.3857  0.0968
57559SOL    HW190669  13.148   8.244   6.619 -0.5345 -0.8504  0.7335
57559SOL    HW290670  13.286   8.224   6.679 -0.0012  0.8058  0.1153
57560SOL     OW90671   3.044  10.894  13.192 -0.0793 -0.2163  0.0117
57560SOL    HW190672   2.965  10.842  13.203 -1.5071  1.5717 -1.1805
57560SOL    HW290673   3.105  10.837  13.145 -1.5428 -0.8790 -1.1479
57561SOL     OW90674  13.329  13.086   9.413  0.3108 -0.2155  0.2580
57561SOL    HW190675  13.252  13.031   9.403 -0.3111  0.6625  0.0930
57561SOL    HW290676  13.312  13.138   9.492  1.3612 -0.9914  1.0297
57562SOL     OW90677  10.369   2.945   5.546  0.1773  0.0500 -0.5586
57562SOL    HW190678  10.393   2.914   5.459 -0.7775  1.5554 -1.3980
57562SOL    HW290679  10.439   3.006   5.570  0.5888 -0.5806 -0.1358
57563SOL     OW90680  11.801   9.658   8.782 -0.1942 -0.3305  0.4480
57563SOL    HW190681  11.772   9.583   8.730  0.3573  0.8428 -1.6435
57563SOL    HW290682  11.872   9.623   8.836 -0.4688 -1.4809  0.0987
57564SOL     OW90683  11.762   5.720  11.767  0.4575  0.0088  0.4429
57564SOL    HW190684  11.737   5.706  11.676  0.5953 -0.4769  0.4740
57564SOL    HW290685  11.832   5.655  11.783 -0.1391 -0.4819  1.1335
57565SOL     OW90686   4.697  12.501   6.683 -0.0591 -0.0805  0.3505
57565SOL    HW190687   4.647  12.444   6.742 -2.8212  1.4869 -0.2881
57565SOL    HW290688   4.681  12.589   6.717  0.1997  0.6668 -1.3827
57566SOL     OW90689   5.182   3.187   1.140 -0.1776  0.2089  0.6842
57566SOL    HW190690   5.118   3.223   1.080 -0.0254 -0.4106  0.1298
57566SOL    HW290691   5.169   3.234   1.222 -0.9274  0.5053  0.3973
57567SOL     OW90692  14.132   9.487  12.463 -0.2228  0.1340 -0.2698
57567SOL    HW190693  14.184   9.559  12.497 -0.2364 -0.3844  0.8908
57567SOL    HW290694  14.094   9.446  12.540 -0.5895 -0.8313 -0.9403
57568SOL     OW90695   4.857   2.504   2.373  0.0670  0.3319  0.3812
57568SOL    HW190696   4.788   2.560   2.410 -0.1947 -0.1099  0.5779
57568SOL    HW290697   4.815   2.460   2.299 -0.9358 -2.3929  2.3660
57569SOL     OW90698   2.480   7.272  12.148  0.8003 -0.4368  0.0928
57569SOL    HW190699   2.401   7.304  12.106  0.2229 -2.3976 -0.4141
57569SOL    HW290700   2.449   7.225  12.226  1.4679 -1.1241 -0.0470
57570SOL     OW90701  12.130   0.211   7.734 -0.1892 -0.8513 -0.1404
57570SOL    HW190702  12.188   0.244   7.803  0.0059 -0.3108 -0.5642
57570SOL    HW290703  12.188   0.197   7.659 -0.5207 -0.7923 -0.4059
57571SOL     OW90704   4.051  11.225  13.540  0.5146  0.4898 -0.0464
57571SOL    HW190705   4.027  11.312  13.509  0.1795  0.0872 -0.9447
57571SOL    HW290706   3.987  11.167  13.498  3.1260 -0.6716 -2.7514
57572SOL     OW90707  10.942   6.227   4.360 -0.5010  0.0607  0.8786
57572SOL    HW190708  10.919   6.288   4.430 -0.0133 -0.0937  1.1831
57572SOL    HW290709  11.037   6.220   4.365 -0.1785  1.8022 -1.2635
57573SOL     OW90710   4.915   7.666   2.473  0.4761 -0.4464 -0.3255
57573SOL    HW190711   4.998   7.688   2.515  0.4177 -1.4778  0.3750
57573SOL    HW290712   4.925   7.575   2.445  0.1651 -0.0755 -1.7420
57574SOL     OW90713   5.586  12.340   9.364  0.1859  0.0980 -0.3341
57574SOL    HW190714   5.679  12.362   9.352  0.1381  0.0941 -0.7334
57574SOL    HW290715   5.577  12.254   9.323  0.3461 -0.6275  1.1130
57575SOL     OW90716  11.103   9.990  13.400  0.3396 -0.0402 -0.4270
57575SOL    HW190717  11.160   9.913  13.397  0.5843  0.1387 -0.3428
57575SOL    HW290718  11.111  10.030  13.314  0.5413  0.1291 -0.3306
57576SOL     OW90719  13.943   9.855   9.021 -0.0341  0.5639 -0.6624
57576SOL    HW190720  13.878   9.875   8.954  0.3198  2.2429 -0.5406
57576SOL    HW290721  13.927   9.920   9.090  0.9950  0.2322 -0.0895
57577SOL     OW90722   1.519   6.228  11.040  0.3091  0.2665 -0.3360
57577SOL    HW190723   1.435   6.269  11.058 -0.0433 -0.3231 -0.5914
57577SOL    HW290724   1.547   6.192  11.125  0.9855  1.6604  0.0553
57578SOL     OW90725   8.943   9.731   0.874  0.3002 -0.6451 -0.3630
57578SOL    HW190726   8.949   9.640   0.903 -0.1024 -0.5337  0.0940
57578SOL    HW290727   8.884   9.772   0.937 -1.7209 -0.7110 -2.0651
57579SOL     OW90728   9.298   8.658   3.633  0.1578  0.1269 -0.4748
57579SOL    HW190729   9.384   8.663   3.592  1.0699  1.9124  1.5097
57579SOL    HW290730   9.276   8.748   3.656 -1.9404 -0.3766 -0.2680
57580SOL     OW90731  13.436   6.615   9.520  0.4990  0.5479 -0.1989
57580SOL    HW190732  13.487   6.591   9.443 -1.9204  1.6722 -2.3282
57580SOL    HW290733  13.384   6.537   9.540  0.0849  0.7002 -0.6527
57581SOL     OW90734   2.332   1.795   8.542  0.0495 -0.3185 -0.2999
57581SOL    HW190735   2.358   1.885   8.561  3.1522 -1.1995  0.2229
57581SOL    HW290736   2.321   1.754   8.628  1.4955 -1.1183 -0.4687
57582SOL     OW90737   5.741  10.208   8.490 -0.5371  0.0586  0.7400
57582SOL    HW190738   5.808  10.265   8.527  0.9564 -1.0539 -0.1569
57582SOL    HW290739   5.731  10.137   8.554 -1.1863  0.4331  1.0677
57583SOL     OW90740  13.915   4.591   3.403 -0.1505 -0.0566  0.0185
57583SOL    HW190741  13.844   4.527   3.404 -2.1056  1.9063 -2.4492
57583SOL    HW290742  13.886   4.660   3.462 -0.2736  0.7251 -0.9418
57584SOL     OW90743   6.651   4.064   2.917  0.4452 -0.7090  0.1682
57584SOL    HW190744   6.672   4.110   2.836  4.1766 -3.8967 -1.0269
57584SOL    HW290745   6.725   4.083   2.975 -1.0808 -0.2385  2.0634
57585SOL     OW90746   7.672  10.032   0.602  0.2526  0.1779 -0.5803
57585SOL    HW190747   7.709   9.950   0.570  0.9515  0.9163 -1.7615
57585SOL    HW290748   7.696  10.096   0.535  0.1238  1.4354  0.5435
57586SOL     OW90749   9.059   7.420   8.213  0.2723 -0.3765  0.5304
57586SOL    HW190750   9.098   7.495   8.167  0.2318  0.0279  1.1432
57586SOL    HW290751   9.117   7.347   8.192  0.7756 -0.0007  0.5782
57587SOL     OW90752   1.336   1.294   6.361 -0.1267  0.3709 -0.0473
57587SOL    HW190753   1.372   1.245   6.287  0.8655 -0.1972  0.7776
57587SOL    HW290754   1.242   1.298   6.344  0.3069  2.4300 -2.5912
57588SOL     OW90755   9.717   2.686  10.540 -0.2775  0.0943  0.1050
57588SOL    HW190756   9.695   2.604  10.497 -0.0983  0.5113 -0.7975
57588SOL    HW290757   9.800   2.713  10.502  0.4731 -0.0817  1.5240
57589SOL     OW90758   7.285  10.150   0.987  0.0950  0.5049 -0.1947
57589SOL    HW190759   7.359  10.156   0.927  0.7903 -0.8913  0.4617
57589SOL    HW290760   7.262  10.057   0.986 -1.0175  0.7624  0.3655
57590SOL     OW90761   1.512  12.616   0.784  0.0895  0.1879  0.3211
57590SOL    HW190762   1.421  12.645   0.782 -0.2679 -0.5265  2.7784
57590SOL    HW290763   1.547  12.653   0.866  1.4685 -1.0401  0.3326
57591SOL     OW90764   7.994   6.446  13.436  0.0629  0.0569  0.2805
57591SOL    HW190765   7.981   6.396  13.355  1.8500  0.6349 -0.4024
57591SOL    HW290766   8.048   6.390  13.491  0.0929  0.2722  0.4730
57592SOL     OW90767   2.145   1.818   7.949  0.3036  0.4321 -0.0725
57592SOL    HW190768   2.234   1.784   7.936 -0.6557 -2.0311 -0.7227
57592SOL    HW290769   2.150   1.867   8.031  2.2986  0.4763 -0.1749
57593SOL     OW90770  13.089   0.868   2.030 -0.2863 -0.1686  0.7272
57593SOL    HW190771  13.064   0.873   1.938 -0.3862 -1.3127  0.6769
57593SOL    HW290772  13.063   0.952   2.067 -0.4996  0.1956 -0.2250
57594SOL     OW90773   0.022   3.535   2.814  0.1164 -0.5287 -0.2234
57594SOL    HW190774   0.037   3.564   2.904 -1.8262 -1.5554  0.4920
57594SOL    HW290775   0.055   3.445   2.812  1.6523  0.0124 -1.0521
57595SOL     OW90776  10.748   2.831   7.059  0.3333  0.4241 -0.1095
57595SOL    HW190777  10.788   2.916   7.041  0.1186  0.1118 -2.3274
57595SOL    HW290778  10.761   2.781   6.979 -2.0817 -0.6411  0.0879
57596SOL     OW90779   3.249  12.277  10.976 -0.1088  0.6948 -0.4466
57596SOL    HW190780   3.156  12.275  10.951 -0.2441 -2.2373 -0.0695
57596SOL    HW290781   3.295  12.239  10.901  0.4321 -0.4025  0.4143
57597SOL     OW90782   1.168   8.519  11.040 -0.9199  0.2708 -0.2965
57597SOL    HW190783   1.118   8.590  11.081 -0.2005  0.5592  0.0975
57597SOL    HW290784   1.153   8.530  10.946 -0.3417  1.3190 -0.2840
57598SOL     OW90785   5.006   2.763   7.048 -0.4998 -0.1242 -0.2449
57598SOL    HW190786   5.033   2.851   7.076 -2.4223  0.5128 -0.2375
57598SOL    HW290787   5.033   2.706   7.120  0.1469  0.5635  0.0719
57599SOL     OW90788  12.128   3.118   0.336 -0.0466 -0.1764 -0.0322
57599SOL    HW190789  12.162   3.104   0.425 -0.5541 -1.8905 -0.0728
57599SOL    HW290790  12.166   3.048   0.284  1.7988  1.9236 -1.6817
57600SOL     OW90791   9.886   9.273  13.742 -0.4081 -0.1537 -0.5874
57600SOL    HW190792   9.966   9.221  13.737 -0.3439 -0.1393  0.1102
57600SOL    HW290793   9.823   9.216  13.787 -0.0718  0.6483  0.9907
57601SOL     OW90794  13.062   3.599   7.921  0.5237 -0.1632 -0.2919
57601SOL    HW190795  13.108   3.545   7.857  2.6075  0.4843  0.5590
57601SOL    HW290796  13.132   3.646   7.967 -0.9120 -0.1014  1.9963
57602SOL     OW90797   6.727   9.189  13.391 -0.2376 -0.0539  0.4363
57602SOL    HW190798   6.679   9.271  13.381  4.1234  2.5683 -2.2266
57602SOL    HW290799   6.718   9.145  13.307  1.7195  0.4754 -0.1109
57603SOL     OW90800   5.003   4.374  13.409  0.2224 -0.0194 -0.1094
57603SOL    HW190801   4.962   4.460  13.418 -0.0961  0.0897 -2.0480
57603SOL    HW290802   5.018   4.365  13.314  1.1375 -1.6897  0.1595
57604SOL     OW90803   6.737   0.709  11.169  0.1823  0.5377 -0.0376
57604SOL    HW190804   6.820   0.712  11.122 -0.2759  1.4391 -0.8197
57604SOL    HW290805   6.736   0.790  11.221 -1.7702  2.5315 -2.8619
57605SOL     OW90806   8.274  12.684   5.953 -0.1078 -0.1501 -0.0241
57605SOL    HW190807   8.327  12.655   5.879 -0.4614 -2.8111  0.6678
57605SOL    HW290808   8.191  12.713   5.915  0.4919  0.6082 -0.7988
57606SOL     OW90809   9.606   5.076   9.441 -0.3995  0.0982 -0.4182
57606SOL    HW190810   9.513   5.086   9.424 -0.5854 -0.2790  0.3253
57606SOL    HW290811   9.614   4.991   9.486  0.4817 -0.6043 -1.8048
57607SOL     OW90812  11.112   0.591   5.419  0.4082 -0.0625  0.1680
57607SOL    HW190813  11.174   0.613   5.349 -0.2309 -0.4694 -0.5415
57607SOL    HW290814  11.040   0.547   5.374  0.2750 -0.9029  1.1630
57608SOL     OW90815   8.813  10.565   6.894 -0.6634 -0.3663 -0.4302
57608SOL    HW190816   8.880  10.631   6.878 -1.5993  1.2374  1.8033
57608SOL    HW290817   8.758  10.567   6.815 -1.0252  2.0261 -0.2013
57609SOL     OW90818  13.631   6.419  11.052 -0.4460 -0.1082  0.1712
57609SOL    HW190819  13.700   6.478  11.081 -0.9950  0.0019  1.2844
57609SOL    HW290820  13.599   6.458  10.971 -1.0006  1.2877  1.0456
57610SOL     OW90821   0.126   2.332  13.317  0.3214 -0.4209 -0.8737
57610SOL    HW190822   0.140   2.263  13.252 -1.1814  0.1484 -1.8405
57610SOL    HW290823   0.098   2.286  13.396 -0.1342 -0.9693 -1.3474
57611SOL     OW90824   7.085   4.573   3.116 -0.1529 -0.3854  0.3067
57611SOL    HW190825   7.176   4.592   3.095 -0.2994 -0.3628 -0.3481
57611SOL    HW290826   7.065   4.628   3.192  0.5605 -0.8754  0.8487
57612SOL     OW90827  12.263  11.445   6.665  0.3818  0.4022  0.1948
57612SOL    HW190828  12.212  11.392   6.726 -0.0469  1.0616  0.4223
57612SOL    HW290829  12.295  11.383   6.600 -0.5220 -0.0659  0.1767
57613SOL     OW90830   6.681   8.105  12.885  0.0366  0.0182  0.6935
57613SOL    HW190831   6.606   8.114  12.944 -1.0682  0.2081 -0.6954
57613SOL    HW290832   6.651   8.046  12.816  0.9502  0.5953 -0.2261
57614SOL     OW90833  12.261   9.678  12.667 -0.7736  0.3803 -0.2672
57614SOL    HW190834  12.195   9.713  12.726 -0.1525 -1.3915  1.5980
57614SOL    HW290835  12.213   9.653  12.588 -2.0133  0.7418  0.3542
57615SOL     OW90836   9.875   3.042   9.285  0.1489  0.0242  0.6227
57615SOL    HW190837   9.933   2.966   9.288 -0.1648 -0.2065  1.0742
57615SOL    HW290838   9.787   3.006   9.299  0.1073  0.5698  1.9557
57616SOL     OW90839   0.446   0.268   8.207  0.0091 -0.1137  0.0083
57616SOL    HW190840   0.503   0.253   8.132  0.8340 -1.6488  0.8881
57616SOL    HW290841   0.388   0.192   8.209 -2.5161  1.6314 -1.1467
57617SOL     OW90842   6.608  10.053  13.182  0.4011  0.3023  0.1534
57617SOL    HW190843   6.700  10.060  13.157  0.5519  2.3303  1.0828
57617SOL    HW290844   6.609  10.051  13.277 -0.5573  2.3818  0.2601
57618SOL     OW90845   2.183   7.836  11.619  0.4087 -0.0381 -0.0534
57618SOL    HW190846   2.187   7.798  11.532 -0.3312  0.1181 -0.1592
57618SOL    HW290847   2.091   7.858  11.632  0.0683 -2.1893  1.6879
57619SOL     OW90848   8.197  10.200   1.850  0.0099  0.2572 -0.3691
57619SOL    HW190849   8.213  10.111   1.881  2.2695  1.2080  1.5166
57619SOL    HW290850   8.216  10.196   1.756 -0.1098 -1.2841 -0.3478
57620SOL     OW90851   3.884   1.469  11.494 -0.0626 -0.1020  0.0082
57620SOL    HW190852   3.897   1.378  11.520 -3.4277 -1.0617 -1.0724
57620SOL    HW290853   3.969   1.511  11.508  1.8305 -3.5325 -0.1200
57621SOL     OW90854   7.447  11.926  10.862  0.1517  0.4020  0.4779
57621SOL    HW190855   7.417  12.012  10.831 -2.8665 -0.4250  0.8626
57621SOL    HW290856   7.455  11.873  10.783  2.1265  1.0036  0.2276
57622SOL     OW90857   8.915   2.221   9.824  0.2806  0.4831 -0.2813
57622SOL    HW190858   8.883   2.136   9.794  0.2887  0.6228 -0.6837
57622SOL    HW290859   8.883   2.228   9.914 -0.0262  0.2146 -0.3686
57623SOL     OW90860   8.026  11.395   5.809  0.2344 -0.5003 -0.4768
57623SOL    HW190861   8.040  11.430   5.721 -1.1154  0.4195 -0.3576
57623SOL    HW290862   8.014  11.301   5.796 -1.8218 -0.1557 -1.5616
57624SOL     OW90863  11.102   4.136   8.325 -0.4251  0.5014  0.1660
57624SOL    HW190864  11.186   4.150   8.369 -0.8326 -1.1636  1.6068
57624SOL    HW290865  11.123   4.076   8.253  0.0087  2.1600 -1.1670
57625SOL     OW90866   5.201   0.657  12.549  0.2562 -0.0307 -0.4446
57625SOL    HW190867   5.113   0.680  12.579  0.0454 -0.6337 -0.5953
57625SOL    HW290868   5.195   0.565  12.522  1.3717 -0.6530  1.2339
57626SOL     OW90869   9.147   1.775  11.251  0.6877  0.2203  0.6761
57626SOL    HW190870   9.208   1.713  11.291  0.7718  0.1105  0.3797
57626SOL    HW290871   9.154   1.854  11.304 -0.0051 -0.2819  1.5358
57627SOL     OW90872  10.944   6.819   0.699  0.0887 -0.1339 -0.3164
57627SOL    HW190873  10.927   6.770   0.618 -1.1169  0.4841 -0.4517
57627SOL    HW290874  10.994   6.895   0.671 -0.4859  0.1760 -0.5253
57628SOL     OW90875   2.302  10.688   6.029  0.4436  0.4849  0.2489
57628SOL    HW190876   2.270  10.600   6.011 -0.5591  0.5099  1.7185
57628SOL    HW290877   2.344  10.680   6.115  1.1896  1.2455 -0.0362
57629SOL     OW90878  13.147  10.835   8.112 -0.0566 -0.3116 -0.1026
57629SOL    HW190879  13.206  10.849   8.038  1.5922 -0.4786  1.1012
57629SOL    HW290880  13.165  10.744   8.140 -0.8821 -0.3615  0.2941
57630SOL     OW90881  10.632   0.341   4.301  0.2022  0.1260  0.0576
57630SOL    HW190882  10.560   0.282   4.323  0.0990 -0.0776 -0.7570
57630SOL    HW290883  10.674   0.361   4.384  1.4839 -2.7059  0.1990
57631SOL     OW90884  12.844   0.859  11.390  0.0610  0.0453  0.4868
57631SOL    HW190885  12.867   0.819  11.474  0.7406 -0.7984 -0.0884
57631SOL    HW290886  12.748   0.863  11.391  0.0099 -0.9704  0.8515
57632SOL     OW90887   9.114  12.108   2.406  0.6831  0.2487  0.4116
57632SOL    HW190888   9.033  12.129   2.360  1.1146 -1.4365 -1.2427
57632SOL    HW290889   9.174  12.077   2.338  3.0777  2.2541  1.4409
57633SOL     OW90890   7.312   1.479   6.028  0.1569 -0.2403 -0.4192
57633SOL    HW190891   7.220   1.452   6.027  0.4813 -1.3880 -0.5322
57633SOL    HW290892   7.332   1.500   5.937 -0.5685  2.1249 -0.0848
57634SOL     OW90893  10.890  11.865   2.356  0.4830  0.2123  0.2644
57634SOL    HW190894  10.904  11.959   2.350  1.4463  0.0921  0.5085
57634SOL    HW290895  10.823  11.847   2.290  1.1637  0.8947 -0.6511
57635SOL     OW90896  13.921   9.761   3.668 -0.1903 -0.1416  0.3734
57635SOL    HW190897  13.846   9.815   3.691  0.0575  0.1042  0.6136
57635SOL    HW290898  13.903   9.730   3.579  0.2842  1.4123 -0.2933
57636SOL     OW90899   3.745  13.783   1.187  0.1510 -0.2439  0.3458
57636SOL    HW190900   3.691  13.849   1.231  0.1510 -1.4304  2.2368
57636SOL    HW290901   3.723  13.792   1.095  0.7483  2.9137  0.3945
57637SOL     OW90902  13.467   8.941   8.660 -0.2305 -0.4519 -0.1362
57637SOL    HW190903  13.408   8.952   8.734 -0.0954 -3.2543  0.4854
57637SOL    HW290904  13.417   8.973   8.585  0.1468  3.8306  1.1567
57638SOL     OW90905   3.511   1.442   8.938  0.2474  0.4783  0.2310
57638SOL    HW190906   3.466   1.358   8.945 -0.4842  0.8979  0.7713
57638SOL    HW290907   3.603   1.421   8.950  0.3183 -0.5066 -1.6301
57639SOL     OW90908   7.314   5.657  10.085  0.2425 -0.1336 -0.1693
57639SOL    HW190909   7.360   5.580  10.119  1.2748  0.7017  0.3958
57639SOL    HW290910   7.371   5.690  10.015 -0.9972 -0.8064 -1.5667
57640SOL     OW90911   4.351   7.138   8.507  0.1227  0.6365 -0.2331
57640SOL    HW190912   4.425   7.089   8.470 -1.4591  0.2310 -3.1731
57640SOL    HW290913   4.392   7.202   8.566  2.6803 -0.5186 -0.6051
57641SOL     OW90914  13.157   9.558  12.551 -0.0493  0.4718  0.6899
57641SOL    HW190915  13.128   9.648  12.535 -2.2290 -0.2936  0.0080
57641SOL    HW290916  13.164   9.552  12.646 -1.8466  0.8608  0.8918
57642SOL     OW90917  12.683   5.933   1.052 -0.1203 -0.0808 -0.3814
57642SOL    HW190918  12.720   5.881   0.981  0.0783  0.4187 -0.6492
57642SOL    HW290919  12.757   5.985   1.085 -0.3790  0.2576 -0.3267
57643SOL     OW90920   3.962   2.927  14.065  0.7872 -0.4964 -0.0624
57643SOL    HW190921   3.909   3.001  14.034  1.2278 -0.0173  0.2980
57643SOL    HW290922   3.945   2.857  14.002 -1.6539 -0.9682  1.0212
57644SOL     OW90923   6.473   3.445   6.772  0.2373 -0.0012 -1.0074
57644SOL    HW190924   6.393   3.493   6.751  1.4141  1.5570 -2.1521
57644SOL    HW290925   6.445   3.379   6.836 -1.2146  3.1600  1.9145
57645SOL     OW90926   9.974  10.286   9.404  0.2369 -0.0563  0.0462
57645SOL    HW190927  10.052  10.321   9.447  0.1344  0.8600 -0.4659
57645SOL    HW290928   9.933  10.230   9.469  0.4765  0.7191  0.8890
57646SOL     OW90929   4.939  12.933  12.568 -0.2465  0.3657  0.0018
57646SOL    HW190930   5.001  12.949  12.496  1.7631 -1.3718  1.2014
57646SOL    HW290931   4.911  13.020  12.596  3.0972  1.4213  0.5331
57647SOL     OW90932  11.693   8.412   9.165 -0.1804  0.0495  0.1187
57647SOL    HW190933  11.661   8.415   9.255  0.7818  1.9370  0.4427
57647SOL    HW290934  11.705   8.504   9.140  0.9956 -0.4674 -1.4189
57648SOL     OW90935   2.096  12.940   7.175 -0.0736  0.0625 -0.1085
57648SOL    HW190936   2.176  12.912   7.218 -0.1116  0.8771  0.5152
57648SOL    HW290937   2.075  12.869   7.115  1.5923  0.2291 -0.9469
57649SOL     OW90938  10.032   8.746   2.726  0.2252  0.6045  0.3835
57649SOL    HW190939   9.994   8.833   2.710  0.3009  0.8965  1.6351
57649SOL    HW290940  10.126   8.759   2.713  0.2627  0.7830  0.7988
57650SOL     OW90941   7.513  11.563   7.406  0.3426 -0.2228 -0.2285
57650SOL    HW190942   7.499  11.490   7.346  1.4963 -0.8058  0.1772
57650SOL    HW290943   7.562  11.526   7.479 -0.4083  0.6306  0.7534
57651SOL     OW90944   3.363   1.772  10.580  0.3234  0.0417  0.7955
57651SOL    HW190945   3.418   1.708  10.535  0.4455  0.3101  0.5550
57651SOL    HW290946   3.359   1.742  10.671  0.1040 -0.4879  0.6151
57652SOL     OW90947   5.219   8.961   6.369  0.5366 -0.0419  0.2066
57652SOL    HW190948   5.262   8.900   6.309 -0.9206  0.0797 -1.0134
57652SOL    HW290949   5.174   9.023   6.313 -1.8032 -0.5670  1.3686
57653SOL     OW90950   6.082  10.097  13.505 -0.1637 -0.0214 -0.0357
57653SOL    HW190951   6.045  10.009  13.509 -0.0388 -0.0267  1.4370
57653SOL    HW290952   6.037  10.138  13.431 -1.7866 -0.6179  0.5707
57654SOL     OW90953   1.068   9.217   2.352 -0.7713  0.4269  0.1397
57654SOL    HW190954   1.161   9.225   2.371 -0.6844  1.2119 -0.5663
57654SOL    HW290955   1.026   9.223   2.438 -0.1948  0.4571  0.4268
57655SOL     OW90956   5.241   8.643   7.172  0.4588  0.7060  0.0237
57655SOL    HW190957   5.167   8.587   7.195  1.4850 -1.1232 -0.8426
57655SOL    HW290958   5.212   8.732   7.192 -1.7483  0.0017  0.2146
57656SOL     OW90959   8.202   6.299   6.654 -0.4969  0.1757  0.1678
57656SOL    HW190960   8.190   6.349   6.573 -1.4053 -1.2404 -0.6150
57656SOL    HW290961   8.159   6.352   6.721 -0.2008  1.1100 -0.3632
57657SOL     OW90962   7.343   4.779   4.716  0.0713 -0.2532  0.5241
57657SOL    HW190963   7.316   4.731   4.637 -0.5333 -0.5416  0.8963
57657SOL    HW290964   7.359   4.711   4.781  0.1494  0.0058  0.7761
57658SOL     OW90965   0.203   5.748   1.553 -0.0918 -0.1277  0.3528
57658SOL    HW190966   0.280   5.793   1.519 -0.0230 -0.4934  0.0121
57658SOL    HW290967   0.133   5.813   1.548  0.1850  0.1981  0.6409
57659SOL     OW90968   9.615  10.792  13.182 -0.3493 -0.4983 -0.9196
57659SOL    HW190969   9.582  10.773  13.269 -1.1997 -2.6113 -1.6299
57659SOL    HW290970   9.676  10.865  13.194 -2.4259  1.0527  1.0128
57660SOL     OW90971   1.493  11.958   1.397  0.4814  0.1019 -0.2200
57660SOL    HW190972   1.556  11.961   1.469  0.2415 -1.5443  0.0897
57660SOL    HW290973   1.511  11.875   1.352  0.9342  1.2708 -2.3634
57661SOL     OW90974  11.656  11.512   8.299  0.6644 -0.4400 -0.0484
57661SOL    HW190975  11.623  11.591   8.342  1.0207 -0.4233  0.1993
57661SOL    HW290976  11.640  11.528   8.206 -0.4576 -0.6437  0.1000
57662SOL     OW90977  12.471   7.468  10.174  0.0694 -0.0126 -0.1069
57662SOL    HW190978  12.504   7.379  10.156  1.3559  0.5562 -0.6830
57662SOL    HW290979  12.545   7.513  10.214 -1.2108  0.2245  2.2089
57663SOL     OW90980  10.967   5.338  12.970  0.4398  0.1250  0.0508
57663SOL    HW190981  10.987   5.425  12.937 -1.8244  0.1599 -1.4537
57663SOL    HW290982  10.928   5.353  13.056 -0.6516  0.6883 -0.5246
57664SOL     OW90983   2.820  12.935  12.621 -0.3270 -0.0431 -0.1923
57664SOL    HW190984   2.813  12.851  12.575 -0.4579  0.0198 -0.2858
57664SOL    HW290985   2.903  12.928  12.670  0.1524  0.1441 -0.9570
57665SOL     OW90986  13.103   7.498  10.872 -0.4817  0.3700  0.2580
57665SOL    HW190987  13.120   7.580  10.917  1.7406  0.9091 -1.3603
57665SOL    HW290988  13.032   7.518  10.811 -0.8839  0.6885  0.8252
57666SOL     OW90989   9.499  10.925   0.841 -0.6955  0.5624  0.0696
57666SOL    HW190990   9.545  10.850   0.878 -0.3370  0.3550 -0.7712
57666SOL    HW290991   9.406  10.904   0.854 -0.6146 -0.2625 -0.5862
57667SOL     OW90992   7.058  12.857   5.979 -0.2426  0.1194  0.4333
57667SOL    HW190993   7.029  12.894   5.896 -0.0162 -0.2876  0.1651
57667SOL    HW290994   7.135  12.805   5.956  0.6103  1.0398  1.0933
57668SOL     OW90995  10.517   1.807  10.081  0.0643 -0.1859 -0.2551
57668SOL    HW190996  10.590   1.747  10.064  0.4575 -0.0627  0.8991
57668SOL    HW290997  10.553   1.872  10.140 -0.2915  1.3611 -1.6554
57669SOL     OW90998  11.376   8.491  12.154  0.0284  0.3337 -0.1503
57669SOL    HW190999  11.417   8.549  12.219  1.3658 -0.9669  0.2418
57669SOL    HW291000  11.424   8.508  12.073  0.0906  0.1631 -0.1517
57670SOL     OW91001  11.780   6.271  14.123 -0.1687  0.3466  0.2240
57670SOL    HW191002  11.748   6.225  14.045  0.2288  0.7128 -0.1611
57670SOL    HW291003  11.867   6.303  14.098  0.5768 -0.7466  1.2996
57671SOL     OW91004   3.543   1.788   4.733  0.0701  0.1214 -0.1527
57671SOL    HW191005   3.634   1.804   4.756 -0.1576 -0.5458  1.3361
57671SOL    HW291006   3.544   1.781   4.637  0.8700  4.2367 -0.6463
57672SOL     OW91007   0.520  10.777   1.112  0.2334 -0.1429  0.0605
57672SOL    HW191008   0.534  10.825   1.030 -1.4146  0.0118 -0.1712
57672SOL    HW291009   0.425  10.764   1.116  0.2902 -0.2456  1.8957
57673SOL     OW91010   9.722   7.761   7.755 -0.2978  0.2247  0.2463
57673SOL    HW191011   9.660   7.730   7.689  1.2127 -0.0899 -1.0870
57673SOL    HW291012   9.690   7.725   7.838 -0.8786 -1.4533 -0.6742
57674SOL     OW91013   0.605   5.955  12.330 -0.2503  1.0391  0.2207
57674SOL    HW191014   0.653   5.899  12.269 -0.5195  0.4719  0.5295
57674SOL    HW291015   0.668   6.023  12.354  0.6835 -0.1293  1.2278
57675SOL     OW91016  11.447  11.993   8.411  0.3659 -0.6112  0.0348
57675SOL    HW191017  11.504  11.965   8.483  0.1156 -0.2413  0.3866
57675SOL    HW291018  11.442  11.917   8.354  0.6609 -0.8765  0.3507
57676SOL     OW91019  11.393  13.636   8.853  0.2211  0.3388 -0.3996
57676SOL    HW191020  11.348  13.714   8.821 -1.5081 -0.3042  0.3364
57676SOL    HW291021  11.423  13.659   8.941  1.3554  0.7577 -0.8787
57677SOL     OW91022   2.000  10.203  12.734 -0.4961 -0.1945 -0.4715
57677SOL    HW191023   1.996  10.294  12.704  1.0161 -0.0717 -0.3991
57677SOL    HW291024   2.056  10.207  12.812 -1.9332 -0.9330  0.6479
57678SOL     OW91025   6.103   8.542  10.152 -0.1634 -0.1850  0.3801
57678SOL    HW191026   6.087   8.476  10.220 -0.0843 -0.5683  0.0291
57678SOL    HW291027   6.092   8.495  10.070 -2.7282  0.8475  0.0585
57679SOL     OW91028   0.064   3.446   0.247  0.3196 -0.2549  0.4144
57679SOL    HW191029   0.104   3.533   0.243  0.6238 -0.4100  0.0170
57679SOL    HW291030  -0.030   3.463   0.245  0.3779  0.0116 -1.1267
57680SOL     OW91031  11.508   3.331   6.414  0.5988 -0.5346  0.7214
57680SOL    HW191032  11.484   3.400   6.352  1.4457 -1.1890 -0.3883
57680SOL    HW291033  11.429   3.317   6.466  0.0524  0.4666  0.1955
57681SOL     OW91034   9.992   2.925   5.251 -0.6423  0.2674 -0.9686
57681SOL    HW191035   9.929   2.979   5.298 -0.0730  0.6427 -0.6309
57681SOL    HW291036   9.988   2.840   5.295  1.0632  1.0596  0.8816
57682SOL     OW91037   1.412  12.670   6.993 -0.8065  0.9253 -0.5740
57682SOL    HW191038   1.347  12.604   7.017 -1.0817  0.7158 -1.7884
57682SOL    HW291039   1.381  12.751   7.034 -0.0493  0.1841  1.5745
57683SOL     OW91040   1.141   5.611   0.008 -0.2692  0.0164  0.3616
57683SOL    HW191041   1.229   5.647   0.001 -0.2511 -0.0222  0.3959
57683SOL    HW291042   1.128   5.595   0.102 -1.4566  2.9221  0.7893
57684SOL     OW91043   7.819   0.103   4.367 -0.1419 -0.0653 -0.0046
57684SOL    HW191044   7.770   0.033   4.324 -2.4236  1.9308 -0.8765
57684SOL    HW291045   7.858   0.061   4.444  0.0839 -2.6523 -1.4297
57685SOL     OW91046   4.820   8.417   6.354 -0.0826  0.4466  0.6910
57685SOL    HW191047   4.861   8.403   6.439 -0.6627  1.9984  1.2554
57685SOL    HW291048   4.732   8.378   6.363 -0.3291  1.0567  0.9893
57686SOL     OW91049   5.394   7.605   3.790  0.4100 -0.0316 -0.0875
57686SOL    HW191050   5.432   7.668   3.851 -0.1504 -0.8003  1.0916
57686SOL    HW291051   5.413   7.520   3.829 -1.2865 -0.4848 -0.2103
57687SOL     OW91052   8.211  11.904  13.274  0.4582  0.2762 -0.5155
57687SOL    HW191053   8.235  11.942  13.189  0.6227 -2.2911 -1.6932
57687SOL    HW291054   8.123  11.868  13.259  0.4102 -0.0316  0.4806
57688SOL     OW91055  11.405   8.942   3.502 -0.1104 -0.2739 -0.3091
57688SOL    HW191056  11.352   8.992   3.440 -1.1868  0.9147  1.4393
57688SOL    HW291057  11.342   8.883   3.545  0.6135 -1.1215 -0.3861
57689SOL     OW91058   7.833   7.211   7.954 -0.1128 -0.3170 -0.0301
57689SOL    HW191059   7.878   7.293   7.975 -0.3254 -0.5708  1.5510
57689SOL    HW291060   7.809   7.174   8.039  0.0066 -2.0467 -0.7043
57690SOL     OW91061   2.683  13.435  14.103 -0.0376  0.6328  0.1132
57690SOL    HW191062   2.704  13.342  14.118 -0.5681  0.7215  1.5387
57690SOL    HW291063   2.765  13.472  14.071  0.2918 -0.2560 -0.1172
57691SOL     OW91064  10.239  11.523  13.930 -0.5542  0.2447  0.1408
57691SOL    HW191065  10.263  11.474  13.852 -0.7905  1.5941 -0.8083
57691SOL    HW291066  10.290  11.482  14.000  0.1442 -0.5825 -0.8218
57692SOL     OW91067   9.599   4.792   5.702 -0.1376 -0.1609  0.0857
57692SOL    HW191068   9.583   4.710   5.749 -0.0465  0.4608  1.2363
57692SOL    HW291069   9.513   4.816   5.667 -0.1795 -0.7047 -0.1912
57693SOL     OW91070   0.494   4.837   3.721 -0.6310  0.6263  0.3728
57693SOL    HW191071   0.577   4.798   3.696 -0.8433 -0.4740  1.3255
57693SOL    HW291072   0.428   4.784   3.676 -0.8389  1.4793 -0.3642
57694SOL     OW91073   2.835   7.006  11.586  0.2568 -0.1967 -0.0796
57694SOL    HW191074   2.920   7.047  11.567  0.1004  0.5580  0.7909
57694SOL    HW291075   2.793   7.000  11.500  2.3651 -3.4757 -1.0943
57695SOL     OW91076   7.016   5.096   3.043 -0.6252 -0.6606 -0.0310
57695SOL    HW191077   7.054   5.173   3.000 -2.9025  0.2580 -0.5567
57695SOL    HW291078   6.945   5.132   3.097 -0.9920 -2.2971  0.6175
57696SOL     OW91079   1.000   7.531   0.783  0.3062  0.0786 -0.3007
57696SOL    HW191080   1.073   7.500   0.730 -0.8905 -1.9068 -0.9141
57696SOL    HW291081   0.946   7.583   0.723  0.6064  0.5529 -0.1611
57697SOL     OW91082   7.832   3.476   4.650 -0.1994  0.3071  0.4096
57697SOL    HW191083   7.869   3.390   4.631  0.4285  0.9747 -1.5738
57697SOL    HW291084   7.738   3.467   4.631 -0.0268  0.2175 -0.4388
57698SOL     OW91085  11.479  10.986   8.421 -0.3238 -0.4011  0.4711
57698SOL    HW191086  11.449  10.987   8.330  0.7812  2.6133  0.0345
57698SOL    HW291087  11.543  10.915   8.424 -0.7219 -0.8630 -0.9633
57699SOL     OW91088   6.330   7.069  12.662 -0.3850 -0.2355  0.2998
57699SOL    HW191089   6.236   7.048  12.657 -0.9725  1.9315  0.9367
57699SOL    HW291090   6.368   6.999  12.715 -1.7909 -0.7385  0.6842
57700SOL     OW91091  11.207   0.428   8.027 -0.4474 -0.6069 -0.4532
57700SOL    HW191092  11.253   0.481   8.092 -0.7474 -0.5206 -0.3061
57700SOL    HW291093  11.230   0.467   7.943 -0.3083 -0.5201 -0.3746
57701SOL     OW91094   0.664   5.146   9.710  0.0040 -0.1756 -0.1739
57701SOL    HW191095   0.746   5.147   9.661 -0.5925 -0.0671 -1.2122
57701SOL    HW291096   0.598   5.125   9.644 -0.9869  1.2079  0.3475
57702SOL     OW91097   4.736   9.395  13.030 -0.3003 -0.5587 -0.5797
57702SOL    HW191098   4.804   9.328  13.034  3.8544  3.1324 -1.2273
57702SOL    HW291099   4.684   9.381  13.109  3.4879 -1.6011  2.0348
57703SOL     OW91100   7.179   4.136   9.930  0.5475  0.7017 -0.0821
57703SOL    HW191101   7.217   4.224   9.932  0.5543  0.7173  2.1836
57703SOL    HW291102   7.148   4.121  10.020 -0.7479 -1.0675 -0.7529
57704SOL     OW91103  11.731   3.774   3.443 -0.3616  0.2148  0.2611
57704SOL    HW191104  11.798   3.826   3.398  0.4091 -1.5908 -0.7674
57704SOL    HW291105  11.667   3.753   3.375  0.7401 -2.4176 -0.0789
57705SOL     OW91106   6.544  12.201   1.208 -0.3205  0.0956 -0.0668
57705SOL    HW191107   6.634  12.231   1.220  0.1183 -1.2635  0.1430
57705SOL    HW291108   6.504  12.210   1.294 -0.4987  0.9971 -0.2296
57706SOL     OW91109   9.283  11.330   9.212 -0.2895  0.3690  0.5883
57706SOL    HW191110   9.372  11.355   9.185 -0.4333  1.1380  0.8132
57706SOL    HW291111   9.296  11.251   9.265  0.2180  0.2273  0.2712
57707SOL     OW91112   0.884   0.154   4.113 -0.2810 -0.2161  0.1501
57707SOL    HW191113   0.803   0.103   4.109 -0.5646  0.2518 -0.2331
57707SOL    HW291114   0.883   0.207   4.033  1.5886 -1.9826 -1.1364
57708SOL     OW91115  10.120  10.387   7.834  0.2730 -0.2099 -0.1812
57708SOL    HW191116  10.120  10.452   7.904  0.3230  1.0695 -1.3149
57708SOL    HW291117  10.205  10.398   7.792  0.0926 -0.6892 -0.6764
57709SOL     OW91118   8.268   2.256  12.812  0.0467  0.3902  0.2312
57709SOL    HW191119   8.241   2.277  12.902 -1.1278  0.2909 -0.0886
57709SOL    HW291120   8.272   2.160  12.810 -2.5705  0.2269 -0.5223
57710SOL     OW91121   3.251   1.263  10.740 -0.1173 -0.4221 -0.2926
57710SOL    HW191122   3.230   1.218  10.821 -0.3006 -1.5113 -0.9229
57710SOL    HW291123   3.183   1.329  10.729 -1.0307 -1.3648 -0.3815
57711SOL     OW91124  10.148  13.135   5.576 -0.4044 -0.6680 -0.4643
57711SOL    HW191125  10.152  13.197   5.504 -3.1545  0.1177 -0.0498
57711SOL    HW291126  10.089  13.066   5.545 -1.0090 -0.7117  0.7336
57712SOL     OW91127   7.367   8.052  11.072 -0.0601  0.5436  0.1314
57712SOL    HW191128   7.367   8.013  10.985  0.5409  1.0868 -0.1178
57712SOL    HW291129   7.277   8.044  11.102 -0.4943  1.2211 -0.9371
57713SOL     OW91130   6.318  12.655  12.708  0.2263  0.9640 -0.9760
57713SOL    HW191131   6.233  12.649  12.754  0.4549  0.1055 -0.6374
57713SOL    HW291132   6.306  12.601  12.630  2.1312 -4.2548  1.8133
57714SOL     OW91133   1.249   8.795   1.460 -0.3897  0.1102 -0.3872
57714SOL    HW191134   1.276   8.717   1.508 -1.5397  0.4747  0.9246
57714SOL    HW291135   1.170   8.768   1.412 -0.4249  0.2913 -0.4331
57715SOL     OW91136   3.967   2.830   0.900 -0.0145  0.0096 -0.1493
57715SOL    HW191137   3.876   2.834   0.868 -0.0194 -0.5651 -0.2167
57715SOL    HW291138   4.005   2.755   0.855  0.6322  0.5238 -0.4580
57716SOL     OW91139   1.490  12.318   3.397  0.6134  0.0898 -0.1426
57716SOL    HW191140   1.502  12.412   3.404  1.3377  0.1001 -1.2109
57716SOL    HW291141   1.569  12.281   3.437  1.0744 -0.0092 -1.1066
57717SOL     OW91142   1.275  11.747   7.935 -0.5234  0.4732 -0.3820
57717SOL    HW191143   1.216  11.778   7.867 -2.0283 -1.4132 -0.0168
57717SOL    HW291144   1.311  11.665   7.900  1.3147  1.1659 -0.2527
57718SOL     OW91145  10.188  13.861  12.789  0.5931  0.0294 -0.0645
57718SOL    HW191146  10.130  13.883  12.862 -1.5482  1.0897 -1.9441
57718SOL    HW291147  10.163  13.772  12.765 -0.4235  0.5251 -0.9430
57719SOL     OW91148   8.111  12.414   3.915 -0.4930  0.0927  0.0146
57719SOL    HW191149   8.032  12.362   3.926 -0.4701 -0.1814 -1.0269
57719SOL    HW291150   8.135  12.441   4.004 -1.8771  0.3746  0.3230
57720SOL     OW91151   3.336   2.584  13.323 -0.5981 -0.5940  0.8080
57720SOL    HW191152   3.367   2.665  13.363 -1.7075 -0.6325  1.8002
57720SOL    HW291153   3.355   2.517  13.389  0.6801 -1.2448 -0.1632
57721SOL     OW91154   5.720   3.625   1.038  0.1651 -0.1534  0.0132
57721SOL    HW191155   5.779   3.700   1.043  1.1457 -0.8942 -0.1364
57721SOL    HW291156   5.771   3.557   0.994 -0.8393 -0.7882 -0.2007
57722SOL     OW91157  12.493   2.407   6.509  0.3656 -0.5258 -0.2258
57722SOL    HW191158  12.474   2.379   6.419 -0.0488 -1.2597  0.0873
57722SOL    HW291159  12.416   2.379   6.560  1.6274 -2.3268  0.8089
57723SOL     OW91160   8.314   6.035   5.920 -0.3241  0.4780  0.3550
57723SOL    HW191161   8.385   5.970   5.924 -1.1957 -0.5134  0.2843
57723SOL    HW291162   8.358   6.119   5.931  0.6733 -0.2074  2.0806
57724SOL     OW91163  12.028  13.208  11.876 -0.9299  0.4664  0.1131
57724SOL    HW191164  12.109  13.259  11.870 -0.6948  0.2197  0.9497
57724SOL    HW291165  12.050  13.136  11.936 -1.1981 -0.7291 -1.1709
57725SOL     OW91166   8.714  13.758   7.242 -0.0886 -0.2207  0.5188
57725SOL    HW191167   8.653  13.812   7.192  0.6593  0.8784  0.7554
57725SOL    HW291168   8.793  13.754   7.188  0.9996  1.5896  1.8471
57726SOL     OW91169   9.884   0.521   4.793  0.1984 -0.2825 -0.7028
57726SOL    HW191170   9.901   0.607   4.833  2.0813 -0.6300 -0.6838
57726SOL    HW291171   9.916   0.529   4.704 -0.1857 -0.7938 -0.8907
57727SOL     OW91172   5.633  10.845   5.347  0.2929  0.8756  0.1781
57727SOL    HW191173   5.692  10.882   5.281  2.3214  0.9187  1.8805
57727SOL    HW291174   5.573  10.790   5.297  1.8377  0.7605 -1.7004
57728SOL     OW91175  11.169   3.777   8.919 -0.5696  0.2568  0.8857
57728SOL    HW191176  11.145   3.688   8.892 -0.0892  0.0386  1.1849
57728SOL    HW291177  11.137   3.832   8.848 -0.2419 -0.2204  0.3645
57729SOL     OW91178   6.780  13.838   1.558 -0.0271 -0.1105 -0.3541
57729SOL    HW191179   6.772  13.773   1.628  1.3411 -0.7747 -0.7798
57729SOL    HW291180   6.856  13.890   1.582  1.4112 -1.2938 -2.0364
57730SOL     OW91181   6.563  14.152   7.465  0.9375  0.8277 -0.4301
57730SOL    HW191182   6.592  14.086   7.528 -1.7923 -0.8205 -0.7543
57730SOL    HW291183   6.494  14.200   7.511 -0.2526  0.3936 -1.6978
57731SOL     OW91184  13.185   2.451   4.818  0.2215 -0.4552  0.6661
57731SOL    HW191185  13.172   2.492   4.733 -2.6296 -0.7420  0.8592
57731SOL    HW291186  13.240   2.512   4.867  0.0886  0.7657 -0.6589
57732SOL     OW91187   2.906   8.676   0.233  0.2994  0.3777 -0.1422
57732SOL    HW191188   2.934   8.591   0.266  1.4276  0.7592 -0.0862
57732SOL    HW291189   2.841   8.707   0.296  0.7035  0.0566  0.4291
57733SOL     OW91190   9.743   0.080   5.177 -0.4850  0.7139 -0.2053
57733SOL    HW191191   9.789   0.139   5.118 -1.5000  0.0946 -1.6827
57733SOL    HW291192   9.712   0.136   5.248  1.7514  1.2793  0.4022
57734SOL     OW91193   1.846  13.768   9.435  0.3009  0.5251  0.8478
57734SOL    HW191194   1.925  13.715   9.423 -1.0421 -1.8956  1.9691
57734SOL    HW291195   1.832  13.770   9.530 -0.0585  2.3985  0.7880
57735SOL     OW91196   1.761   9.701  10.569 -0.0285  0.3171 -0.0325
57735SOL    HW191197   1.848   9.660  10.572  0.3100  1.0639  2.1999
57735SOL    HW291198   1.708   9.639  10.519  0.9166 -2.0110  1.6230
57736SOL     OW91199   7.202   1.127   3.645  0.6698 -0.0856  0.0797
57736SOL    HW191200   7.150   1.047   3.653 -1.9389  1.3929 -0.9528
57736SOL    HW291201   7.225   1.132   3.552 -1.4974  1.5986 -0.4557
57737SOL     OW91202  11.764   4.894  12.084 -0.0454 -0.3200  0.0916
57737SOL    HW191203  11.819   4.947  12.142  1.6446 -1.1818 -0.6671
57737SOL    HW291204  11.675   4.911  12.114  0.7566 -1.2806  3.4637
57738SOL     OW91205  13.362   6.305   8.701 -0.1126  0.1383 -0.1414
57738SOL    HW191206  13.299   6.366   8.663 -0.7792  0.8204  1.9261
57738SOL    HW291207  13.430   6.295   8.634 -2.1614 -0.2634 -2.2543
57739SOL     OW91208  11.892   6.896   4.657 -0.0141 -0.2471 -0.3410
57739SOL    HW191209  11.947   6.820   4.639 -0.2145 -0.1267 -1.5755
57739SOL    HW291210  11.807   6.860   4.680  0.4864 -0.4287  1.3404
57740SOL     OW91211   8.012  10.675   6.387 -0.4979 -0.5007 -0.1882
57740SOL    HW191212   8.002  10.719   6.471  1.0466  0.6581 -0.5810
57740SOL    HW291213   8.048  10.589   6.409 -0.6708 -0.4358  0.3611
57741SOL     OW91214   7.645   9.498   9.215 -0.3291  0.3590 -0.0235
57741SOL    HW191215   7.560   9.461   9.192 -0.2457 -1.0920  1.7305
57741SOL    HW291216   7.633   9.534   9.303  1.2867 -1.7387  1.1635
57742SOL     OW91217   8.574   2.543   0.234 -0.6230  0.0553 -0.4533
57742SOL    HW191218   8.527   2.476   0.283  0.5666 -0.5052 -0.0334
57742SOL    HW291219   8.657   2.501   0.210 -0.7532  0.6623 -2.0664
57743SOL     OW91220   6.880   3.771   0.775 -0.4423  0.1966 -0.4508
57743SOL    HW191221   6.938   3.847   0.779 -2.1787  1.5413  0.4772
57743SOL    HW291222   6.842   3.765   0.863 -1.5346 -0.7655 -0.9564
57744SOL     OW91223   0.223   2.275   4.746 -0.6079  0.0198 -0.0530
57744SOL    HW191224   0.265   2.340   4.803 -1.2102  0.0261  0.4019
57744SOL    HW291225   0.268   2.283   4.662 -1.0473  1.4341 -0.1815
57745SOL     OW91226   5.342   0.118   7.679 -0.0977 -0.1850  0.7020
57745SOL    HW191227   5.384   0.063   7.745  0.7898  1.0563  1.2066
57745SOL    HW291228   5.383   0.204   7.690 -0.5019  0.2500 -0.9339
57746SOL     OW91229   3.402  11.571  13.916  0.6853 -0.0377  0.0148
57746SOL    HW191230   3.465  11.553  13.847  1.2786  1.6678  0.0821
57746SOL    HW291231   3.320  11.532  13.885  1.3352 -0.7410 -0.8575
57747SOL     OW91232   1.614   5.964   1.802  0.8710 -0.1336 -0.4352
57747SOL    HW191233   1.554   5.925   1.739  1.4741 -0.3578 -0.8791
57747SOL    HW291234   1.639   6.048   1.762  0.9074 -0.0700 -0.2804
57748SOL     OW91235   3.067   6.260  10.604  0.2052  0.4971 -0.1252
57748SOL    HW191236   3.086   6.350  10.576 -2.4481  1.1401 -0.1800
57748SOL    HW291237   3.015   6.223  10.533 -0.6999 -0.2524  0.8820
57749SOL     OW91238   2.439   9.343  11.401  0.3406  0.0376  0.5786
57749SOL    HW191239   2.516   9.399  11.416 -0.5130  1.4002  0.0228
57749SOL    HW291240   2.458   9.298  11.319  1.0342 -0.5247  1.0319
57750SOL     OW91241   2.033   2.305   0.447 -0.3045  0.3984 -0.1563
57750SOL    HW191242   2.015   2.304   0.541 -1.3174  1.3409 -0.3251
57750SOL    HW291243   1.958   2.261   0.407  0.7822 -1.2914 -0.4611
57751SOL     OW91244  11.102   2.756   7.048  0.0905  0.0875  0.6722
57751SOL    HW191245  11.048   2.769   6.970  1.9038  1.1082 -0.4658
57751SOL    HW291246  11.059   2.683   7.094  0.5446 -2.5739 -2.7380
57752SOL     OW91247  11.012   4.041   7.565 -0.1409 -0.7435 -0.2324
57752SOL    HW191248  10.954   4.073   7.634 -1.2373 -1.3814 -0.8406
57752SOL    HW291249  11.048   3.960   7.600 -1.4555 -1.5859 -0.7644
57753SOL     OW91250  13.300   7.941   6.531 -0.2182  0.0961  0.2144
57753SOL    HW191251  13.253   7.879   6.586 -2.1717 -0.7566 -2.2545
57753SOL    HW291252  13.245   8.020   6.531  0.2506  0.4306  0.1891
57754SOL     OW91253   5.129   4.371   6.104  0.0949 -0.1990 -0.4693
57754SOL    HW191254   5.153   4.459   6.076 -1.6877  1.2804  2.2384
57754SOL    HW291255   5.042   4.357   6.067 -1.2303  0.7999  2.0275
57755SOL     OW91256   4.875   0.958   9.711 -0.0275 -0.4475 -0.4360
57755SOL    HW191257   4.967   0.967   9.685  0.0347  0.4139  0.0305
57755SOL    HW291258   4.860   1.032   9.770 -0.5926 -1.4645  0.7333
57756SOL     OW91259   8.790   6.776   7.206 -0.1693  0.0346 -0.5846
57756SOL    HW191260   8.788   6.839   7.134  0.2296  1.2744  0.4483
57756SOL    HW291261   8.756   6.825   7.281  2.1301 -0.2796  0.7511
57757SOL     OW91262   0.102   3.274  11.623  0.1689 -0.2624 -0.0433
57757SOL    HW191263   0.019   3.283  11.577  0.9914  2.2054 -1.1965
57757SOL    HW291264   0.130   3.184  11.604 -1.3717 -0.5447 -1.1408
57758SOL     OW91265   2.677   8.618   0.353  0.4709  0.3563 -0.1923
57758SOL    HW191266   2.706   8.527   0.351  1.5104  0.6232  1.2152
57758SOL    HW291267   2.589   8.614   0.393 -0.2002 -0.1580 -1.6587
57759SOL     OW91268   6.367   2.355  11.761  0.3381  0.3723  0.0030
57759SOL    HW191269   6.423   2.433  11.761  1.1082 -0.1197 -1.9111
57759SOL    HW291270   6.421   2.286  11.800  0.4626  0.2861 -0.3207
57760SOL     OW91271  10.392   6.905   6.134  0.0077  0.0867 -0.3394
57760SOL    HW191272  10.344   6.987   6.122 -0.5585 -0.2569 -0.5193
57760SOL    HW291273  10.323   6.839   6.142  0.4336 -0.2398  0.8578
57761SOL     OW91274   0.291   9.218  11.011 -0.4640  0.0285  0.1041
57761SOL    HW191275   0.383   9.239  10.995 -0.1215 -1.6591 -0.3248
57761SOL    HW291276   0.252   9.210  10.924 -0.2151 -2.4567  0.1678
57762SOL     OW91277   3.177   1.057   1.655  0.3609  0.6006 -0.7076
57762SOL    HW191278   3.103   1.111   1.683 -0.7437 -1.8355  1.4956
57762SOL    HW291279   3.254   1.101   1.691 -0.4132  1.1630  0.2939
57763SOL     OW91280  11.072   8.765   3.499  0.1696  0.3330 -0.0468
57763SOL    HW191281  10.993   8.729   3.459 -0.2035  0.4593  0.5546
57763SOL    HW291282  11.133   8.691   3.503 -0.6242 -0.2963  1.2632
57764SOL     OW91283   0.763   3.013  13.581 -0.5576 -0.3958  0.2258
57764SOL    HW191284   0.849   3.054  13.592 -0.2448 -1.0460  0.2972
57764SOL    HW291285   0.739   3.032  13.490 -1.0933  1.1630  0.6580
57765SOL     OW91286  13.604   0.820  11.469  0.2242 -0.0864 -0.2123
57765SOL    HW191287  13.674   0.874  11.506  1.0573 -1.2067 -0.1060
57765SOL    HW291288  13.650   0.753  11.418 -0.7821 -0.7126 -0.3242
57766SOL     OW91289   3.345   9.872   0.562  0.5307 -0.3099  0.6124
57766SOL    HW191290   3.274   9.891   0.624 -0.0180 -0.9725  0.2011
57766SOL    HW291291   3.408   9.942   0.576 -0.9593  1.2527 -0.1830
57767SOL     OW91292  13.975  13.812   0.963 -0.3016  0.1005 -0.7027
57767SOL    HW191293  13.939  13.855   0.885 -2.0465 -0.2533 -0.1404
57767SOL    HW291294  13.899  13.774   1.007  0.4738  1.2245  1.7725
57768SOL     OW91295   5.461   0.759   1.278  0.5217 -0.2783 -0.7491
57768SOL    HW191296   5.407   0.833   1.250 -1.2640 -1.4906 -0.6497
57768SOL    HW291297   5.486   0.716   1.196 -0.0804 -0.6573 -0.7434
57769SOL     OW91298   6.558  13.130  11.355 -0.1190 -0.8130  0.6090
57769SOL    HW191299   6.649  13.159  11.344 -0.2197 -0.7565 -0.0605
57769SOL    HW291300   6.544  13.135  11.450 -0.1656  1.4493  0.5509
57770SOL     OW91301   5.141   3.409   1.999 -0.0840  0.1911  0.0495
57770SOL    HW191302   5.203   3.463   1.950 -0.5355 -0.5100 -1.3528
57770SOL    HW291303   5.181   3.399   2.085  1.1977  0.6919 -0.4550
57771SOL     OW91304   6.544   8.328   8.585  0.5117  0.2573 -0.1828
57771SOL    HW191305   6.516   8.323   8.493  0.6501 -1.0743 -0.1624
57771SOL    HW291306   6.567   8.420   8.597 -1.8344  0.9896 -0.7922
57772SOL     OW91307   7.233  13.030   7.354 -0.4111 -0.5087 -0.6777
57772SOL    HW191308   7.275  12.947   7.379  0.4813  0.0371 -0.3313
57772SOL    HW291309   7.158  13.037   7.414 -0.3704 -0.9562 -0.5688
57773SOL     OW91310   8.452   0.562   8.618 -0.1685 -0.0990  0.5425
57773SOL    HW191311   8.531   0.514   8.643 -0.6242 -1.0355  0.2226
57773SOL    HW291312   8.382   0.497   8.623 -0.8518  0.6180  0.4209
57774SOL     OW91313  11.068   7.124   1.832  0.0347  0.2382 -0.2866
57774SOL    HW191314  11.006   7.093   1.899  0.0640 -0.3310 -0.5122
57774SOL    HW291315  11.104   7.205   1.868 -2.9385  2.2366 -1.3835
57775SOL     OW91316  12.403   9.671   6.906 -0.1849  0.3692  0.3461
57775SOL    HW191317  12.309   9.689   6.911 -0.2603 -0.2136  1.3997
57775SOL    HW291318  12.418   9.647   6.815 -1.6103 -2.3422  0.7194
57776SOL     OW91319   9.264   2.819   1.958 -0.0803  0.1574  0.0065
57776SOL    HW191320   9.324   2.858   2.022  0.1040  0.0619 -0.1053
57776SOL    HW291321   9.286   2.726   1.959  0.1484  0.2048 -0.4300
57777SOL     OW91322  13.435   4.555   7.643  0.0368  0.0794  0.6225
57777SOL    HW191323  13.415   4.534   7.552  2.5278  0.6099 -0.1308
57777SOL    HW291324  13.444   4.471   7.687  0.6573 -0.2344 -0.0935
57778SOL     OW91325   5.111   4.740   6.448  0.3381  0.0418  0.2772
57778SOL    HW191326   5.034   4.710   6.400  0.3572 -1.4919  1.1221
57778SOL    HW291327   5.126   4.672   6.514  1.3512  1.2018  1.3037
57779SOL     OW91328   3.916  12.617   0.180 -0.2006  0.1532  0.2679
57779SOL    HW191329   3.908  12.672   0.259  0.5739  0.3992  0.1887
57779SOL    HW291330   3.939  12.679   0.111 -1.9031  0.0931 -0.3973
57780SOL     OW91331   5.441   8.878   0.268 -0.1167  0.4575 -0.9659
57780SOL    HW191332   5.521   8.883   0.215  0.7354 -1.3278  0.0776
57780SOL    HW291333   5.441   8.789   0.303 -1.4304  1.1128  0.8305
57781SOL     OW91334   4.734   8.439  10.427 -0.2753  0.0627  0.0205
57781SOL    HW191335   4.655   8.460  10.477  0.1501  1.3739  0.1788
57781SOL    HW291336   4.702   8.414  10.340 -0.9415 -0.9231  0.5385
57782SOL     OW91337   0.925   4.951  13.277 -0.1087  0.1257 -0.0853
57782SOL    HW191338   0.836   4.987  13.269 -0.4644 -1.0624 -2.1581
57782SOL    HW291339   0.968   5.008  13.341 -1.7338  1.9735 -0.5357
57783SOL     OW91340   1.042   3.785  12.487  0.4196  0.4444 -0.2969
57783SOL    HW191341   1.066   3.877  12.481 -0.6497  0.6688 -1.4494
57783SOL    HW291342   1.111   3.739  12.438  0.8955  0.6166  0.1939
57784SOL     OW91343   4.792   3.060   2.964  0.3528  0.1507  0.3840
57784SOL    HW191344   4.702   3.090   2.952 -0.1497 -0.8818  1.3611
57784SOL    HW291345   4.817   3.023   2.880 -0.3501 -0.0697  0.2652
57785SOL     OW91346   7.043   6.289  12.865 -0.1095  0.0658  0.6773
57785SOL    HW191347   7.078   6.303  12.777  1.2401  0.9319  1.3229
57785SOL    HW291348   7.041   6.194  12.875 -0.0754 -0.0417 -0.1983
57786SOL     OW91349  11.472   4.887  11.767  1.1911 -0.0060  0.2659
57786SOL    HW191350  11.476   4.921  11.678  0.6367 -1.5677 -0.3769
57786SOL    HW291351  11.398   4.933  11.806 -0.6858 -1.6768 -1.1533
57787SOL     OW91352  10.497  11.922  13.537 -0.1315 -0.2898  0.1126
57787SOL    HW191353  10.418  11.927  13.483  1.2106 -2.4997 -2.2590
57787SOL    HW291354  10.465  11.894  13.623 -2.0251 -0.0687 -0.4666
57788SOL     OW91355   6.000   7.147  11.175  0.1891 -0.2631  0.0029
57788SOL    HW191356   5.937   7.219  11.179  0.6358  0.1172  0.3923
57788SOL    HW291357   6.062   7.173  11.107 -0.3335 -0.8611 -0.7153
57789SOL     OW91358   3.095   7.776   9.392  0.0912  0.0122  0.0727
57789SOL    HW191359   3.065   7.816   9.310 -1.1623  0.7395  0.8732
57789SOL    HW291360   3.039   7.813   9.459  0.7068 -1.0495  1.2003
57790SOL     OW91361   0.314   4.696   0.983 -0.2354  0.3176  0.7041
57790SOL    HW191362   0.328   4.662   0.894  1.5894 -0.8354  1.3844
57790SOL    HW291363   0.261   4.775   0.970 -0.7247 -0.2844 -1.3264
57791SOL     OW91364  13.197   0.082   0.549  0.0780  0.0616 -0.1876
57791SOL    HW191365  13.181   0.061   0.641 -0.0810  1.5536  0.1425
57791SOL    HW291366  13.114   0.063   0.505 -0.2601  0.6026  0.2121
57792SOL     OW91367   8.653   3.073   0.940  0.1278 -0.5653 -0.6931
57792SOL    HW191368   8.563   3.050   0.965  0.3465  1.1271  2.2059
57792SOL    HW291369   8.706   3.001   0.972 -0.0775 -0.9281 -1.1667
57793SOL     OW91370   2.928   9.652   3.081  0.2392 -0.0839  0.2114
57793SOL    HW191371   2.930   9.711   3.156  0.7505 -1.2245  1.1157
57793SOL    HW291372   2.995   9.686   3.022  0.3113  0.4150  0.5722
57794SOL     OW91373  10.527  11.558   4.281  0.0611 -0.1743  0.2694
57794SOL    HW191374  10.481  11.599   4.355 -1.0768 -0.3932 -0.2988
57794SOL    HW291375  10.468  11.489   4.251  1.0001 -0.8124 -0.1606
57795SOL     OW91376   9.424   2.042   7.349  0.1979  0.0352  0.2606
57795SOL    HW191377   9.470   2.017   7.269  0.0347  1.2541 -0.2358
57795SOL    HW291378   9.403   1.959   7.392 -0.5792 -0.7046 -1.4560
57796SOL     OW91379   3.284  12.553  10.589 -0.0703 -0.2383  0.3180
57796SOL    HW191380   3.324  12.617  10.647 -0.3557  0.6620 -0.4600
57796SOL    HW291381   3.316  12.576  10.501 -0.8804 -0.6019 -0.0835
57797SOL     OW91382  12.687  13.984   9.086 -0.0582 -1.0998  1.0336
57797SOL    HW191383  12.740  14.016   9.159 -1.2261  1.5385  0.8190
57797SOL    HW291384  12.600  13.970   9.123 -1.5970  3.3331 -0.2153
57798SOL     OW91385   5.541   2.294  10.743  0.1287  0.1425  0.1797
57798SOL    HW191386   5.446   2.291  10.729  0.0932 -0.5265  0.5400
57798SOL    HW291387   5.569   2.203  10.740  0.8926  0.3899 -0.7563
57799SOL     OW91388   7.069   9.626   3.192 -0.5685 -0.4387 -0.4377
57799SOL    HW191389   6.978   9.651   3.210 -0.4439  1.1537 -1.8202
57799SOL    HW291390   7.084   9.653   3.102  1.3895 -0.3676 -0.1363
57800SOL     OW91391   9.947  13.247   9.345 -0.2818 -0.3367 -0.1584
57800SOL    HW191392  10.011  13.192   9.299  0.0001 -0.4269  0.3423
57800SOL    HW291393   9.985  13.263   9.431 -0.5826  0.2520 -0.1273
57801SOL     OW91394  13.356   6.615   7.862  0.6329  0.0297 -0.3501
57801SOL    HW191395  13.270   6.639   7.896  1.2779  1.2445  0.5098
57801SOL    HW291396  13.415   6.624   7.937  1.8229  1.1899 -1.3683
57802SOL     OW91397   1.948   0.163   2.914  0.5241 -0.8840  0.2064
57802SOL    HW191398   1.894   0.110   2.855  1.6565 -2.1142  0.2339
57802SOL    HW291399   2.026   0.110   2.929  1.4396  0.5603  0.7156
57803SOL     OW91400   3.513   2.999   4.341  0.0276  0.5215 -0.0207
57803SOL    HW191401   3.451   3.058   4.298  0.1462  0.8349  0.2405
57803SOL    HW291402   3.483   2.995   4.432 -0.4043 -0.3791 -0.1921
57804SOL     OW91403   5.418  11.333  12.020 -0.1294  0.1075  0.0745
57804SOL    HW191404   5.446  11.310  12.109 -2.1123 -3.4265 -0.0153
57804SOL    HW291405   5.351  11.400  12.032  1.1592  1.2812  1.0032
57805SOL     OW91406  11.420   5.648   9.468  0.6817 -0.0557  0.1359
57805SOL    HW191407  11.432   5.555   9.451  0.1494  0.3182 -2.9189
57805SOL    HW291408  11.509   5.684   9.474  0.9932 -0.3372 -1.9713
57806SOL     OW91409   6.268   4.284   7.820  0.0532  0.2158 -0.5041
57806SOL    HW191410   6.252   4.359   7.763 -2.1969 -0.0412 -0.2872
57806SOL    HW291411   6.305   4.322   7.900  2.8570  0.6129 -1.8606
57807SOL     OW91412  10.941   7.601   2.749 -0.4202  0.5834 -0.1661
57807SOL    HW191413  11.005   7.554   2.803  1.4125  0.5029 -2.2673
57807SOL    HW291414  10.856   7.575   2.785  0.6409 -1.2360  1.2099
57808SOL     OW91415  13.412   2.387  11.264  0.7869 -0.2009 -0.9523
57808SOL    HW191416  13.473   2.319  11.293  0.2813 -0.7829 -1.2033
57808SOL    HW291417  13.426   2.460  11.324  2.5307  0.1233 -1.7144
57809SOL     OW91418   4.717   1.057   6.243 -0.1713 -0.2144 -0.1579
57809SOL    HW191419   4.756   1.106   6.171 -2.0187 -0.0187 -1.0819
57809SOL    HW291420   4.623   1.057   6.225 -0.5624 -1.3130  1.5545
57810SOL     OW91421   1.570   2.775  10.472 -0.2831 -0.0795  0.6071
57810SOL    HW191422   1.645   2.766  10.530  0.4342 -0.9959 -0.4128
57810SOL    HW291423   1.550   2.686  10.444 -0.8416  0.3006 -0.2561
57811SOL     OW91424  10.680   9.328   3.531 -0.2118 -0.3381  0.4872
57811SOL    HW191425  10.724   9.342   3.447  0.0290 -0.6535  0.5547
57811SOL    HW291426  10.752   9.311   3.593 -0.1792  2.1480  1.2669
57812SOL     OW91427   6.622   0.438  10.987 -0.0501  0.1402  0.1089
57812SOL    HW191428   6.701   0.388  11.009 -0.0518 -0.3741 -0.9798
57812SOL    HW291429   6.564   0.374  10.947 -0.5757  0.7535 -0.1246
57813SOL     OW91430   3.035  13.144   4.604 -0.2021 -0.0882 -0.2041
57813SOL    HW191431   3.038  13.068   4.662 -0.8867  0.4449  0.5592
57813SOL    HW291432   3.047  13.108   4.516  0.5839 -0.9453  0.2369
57814SOL     OW91433   3.980   6.436   0.356  0.4096 -0.0142  0.2273
57814SOL    HW191434   4.046   6.466   0.293 -1.9377  1.6222 -1.6300
57814SOL    HW291435   3.953   6.350   0.322 -0.8620  0.8694 -1.1595
57815SOL     OW91436  10.092   5.713  11.158  0.2805 -0.7502 -0.1661
57815SOL    HW191437  10.168   5.731  11.214  0.4749  0.1834 -0.7053
57815SOL    HW291438  10.127   5.658  11.088  0.2595 -1.0678  0.0700
57816SOL     OW91439  13.171   2.958   0.643 -0.0851 -0.2459 -0.1838
57816SOL    HW191440  13.138   2.949   0.554  1.0265  0.5305 -0.7073
57816SOL    HW291441  13.142   2.879   0.688 -1.5618 -0.1621 -0.9354
57817SOL     OW91442   1.699   8.752   1.344  0.8595  0.1063  0.1323
57817SOL    HW191443   1.751   8.755   1.264  0.1432  1.0329 -0.3160
57817SOL    HW291444   1.703   8.841   1.379 -1.1950  0.4658 -0.4458
57818SOL     OW91445   9.244   5.553   8.347 -0.9369 -0.0065 -0.1912
57818SOL    HW191446   9.332   5.570   8.312 -0.2383  0.7540  1.7602
57818SOL    HW291447   9.259   5.534   8.440 -2.7954 -0.6055  0.0313
57819SOL     OW91448   0.254   2.082   6.359 -0.4565  0.5250 -0.1003
57819SOL    HW191449   0.305   2.011   6.396 -1.9350 -0.5939 -0.1457
57819SOL    HW291450   0.266   2.073   6.264  0.9319  1.5781 -0.0607
57820SOL     OW91451   0.459   7.175   3.857  0.0157  0.1912 -0.2682
57820SOL    HW191452   0.365   7.184   3.839  0.0934  0.6987 -0.4220
57820SOL    HW291453   0.501   7.239   3.800  0.4482  0.0933 -0.0659
57821SOL     OW91454   2.229   9.076  13.660  0.4721 -0.2262  0.5607
57821SOL    HW191455   2.158   9.114  13.608 -0.2817  0.0782  1.7866
57821SOL    HW291456   2.306   9.129  13.639  0.5427 -0.9816 -1.3034
57822SOL     OW91457   9.820   3.453   5.925 -0.3974 -0.4619  0.5056
57822SOL    HW191458   9.877   3.451   5.847 -1.0226 -3.0591  0.0124
57822SOL    HW291459   9.739   3.495   5.894  0.3925  1.2336  0.6192
57823SOL     OW91460   5.298   6.828   9.507  0.3039  0.1859  0.0075
57823SOL    HW191461   5.268   6.777   9.582 -0.7020 -0.2343 -0.6702
57823SOL    HW291462   5.393   6.815   9.506 -0.0296 -2.8798 -0.9766
57824SOL     OW91463   9.826   9.100   5.287  0.1179  0.0622  0.0589
57824SOL    HW191464   9.796   9.124   5.199  0.0260  0.6483  0.2436
57824SOL    HW291465   9.902   9.156   5.303  1.1377 -1.1761 -0.2723
57825SOL     OW91466   8.964   6.742   9.557 -0.1708 -0.1526  0.0076
57825SOL    HW191467   8.975   6.835   9.535 -1.2204 -0.0744 -0.2896
57825SOL    HW291468   8.869   6.731   9.566 -0.1450 -1.4053 -0.9201
57826SOL     OW91469   9.918   0.492   2.648 -0.2442 -0.3572  0.0755
57826SOL    HW191470   9.980   0.547   2.599  0.2009  0.3998  1.4286
57826SOL    HW291471   9.920   0.528   2.737 -0.3978 -2.1992  0.8628
57827SOL     OW91472   9.338  14.093  11.683  0.0403  0.6004 -0.2263
57827SOL    HW191473   9.330  14.020  11.745 -0.5716 -0.5503 -1.5971
57827SOL    HW291474   9.396  14.155  11.727 -0.8142  0.1058  1.7319
57828SOL     OW91475   2.703   8.724  10.791 -0.0401  0.1555  0.0824
57828SOL    HW191476   2.781   8.730  10.846  1.2931 -0.6453 -1.6381
57828SOL    HW291477   2.697   8.632  10.767 -0.9463  0.3902 -0.6323
57829SOL     OW91478  13.133   6.049   7.940 -0.0361  0.7528  0.2011
57829SOL    HW191479  13.050   6.067   7.895 -0.2369  2.8815  1.2924
57829SOL    HW291480  13.124   6.093   8.025  0.8628 -1.9496  1.8320
57830SOL     OW91481  10.952   0.630   5.023 -0.4470 -0.1825  0.4289
57830SOL    HW191482  10.929   0.709   5.072 -0.6776 -0.8993  1.5045
57830SOL    HW291483  10.939   0.559   5.084  0.3071 -1.0227 -0.3494
57831SOL     OW91484  12.158  10.012   9.641  0.3983 -0.5629 -0.1332
57831SOL    HW191485  12.134   9.932   9.595 -0.8242  0.7094 -1.8396
57831SOL    HW291486  12.082  10.033   9.695  0.8181 -0.6774  0.5150
57832SOL     OW91487   8.867   7.829   5.813 -0.0100 -0.2108  0.0641
57832SOL    HW191488   8.800   7.895   5.829 -0.3119 -0.7747  1.1772
57832SOL    HW291489   8.870   7.821   5.718  0.2243  1.5907 -0.1202
57833SOL     OW91490   7.422   3.156   3.585  0.7967  0.0958 -0.0798
57833SOL    HW191491   7.378   3.114   3.659  1.6475  0.0528  0.4133
57833SOL    HW291492   7.351   3.197   3.535  0.2097  0.1036  0.7375
57834SOL     OW91493   5.995   5.001   7.477 -0.2234  0.5669  0.2261
57834SOL    HW191494   5.935   5.045   7.537 -1.0793 -0.4048  0.1219
57834SOL    HW291495   5.947   4.923   7.448  0.1021  1.0704 -1.8318
57835SOL     OW91496   2.333   9.926  11.087  0.1523  0.5702  0.5839
57835SOL    HW191497   2.401   9.877  11.133 -0.3879  2.4368  3.6905
57835SOL    HW291498   2.379  10.000  11.048  0.3026  0.0940 -0.1775
57836SOL     OW91499   5.794   9.521   6.291  0.0466 -0.3237 -0.4113
57836SOL    HW191500   5.798   9.560   6.203  0.7424 -0.8609 -0.6288
57836SOL    HW291501   5.875   9.470   6.298 -0.4735 -1.0930  0.1615
57837SOL     OW91502   6.727  12.907   6.175 -0.0010  0.4134  0.1487
57837SOL    HW191503   6.809  12.922   6.222  1.0845  1.8962 -2.0420
57837SOL    HW291504   6.667  12.873   6.241  1.8178  1.0731  2.2489
57838SOL     OW91505   7.910   8.235  10.065  0.2674  0.3010 -0.2498
57838SOL    HW191506   7.967   8.298  10.020  0.2592  0.0767 -0.5746
57838SOL    HW291507   7.963   8.204  10.139  1.1455 -1.0036 -1.3779
57839SOL     OW91508  10.357   5.107  12.035  0.1946 -0.2163  0.3860
57839SOL    HW191509  10.378   5.129  12.126 -0.6843 -0.3615  0.6322
57839SOL    HW291510  10.408   5.169  11.983  0.1355  0.3523  0.9952
57840SOL     OW91511   3.409  11.995  12.651  0.0527  0.2776  0.0102
57840SOL    HW191512   3.470  11.923  12.667 -0.5866 -0.2728 -0.0254
57840SOL    HW291513   3.466  12.072  12.641  0.6121  0.5923  3.9643
57841SOL     OW91514   2.606  11.733   7.488 -0.3388 -0.2246  0.1716
57841SOL    HW191515   2.588  11.720   7.581  0.1342  1.5869  0.5615
57841SOL    HW291516   2.535  11.790   7.458  0.8763  1.3108  0.0771
57842SOL     OW91517   1.954   3.947   8.566 -0.2611  0.2381  0.1094
57842SOL    HW191518   1.969   3.856   8.591  3.4712  1.2432  2.3189
57842SOL    HW291519   1.898   3.982   8.635  1.1608  0.3741  1.2439
57843SOL     OW91520   2.068   5.249   4.840  0.2685 -0.0688 -0.0380
57843SOL    HW191521   2.010   5.183   4.877 -0.4111  0.1857 -0.6258
57843SOL    HW291522   2.153   5.231   4.879 -0.3163 -0.0950  1.3037
57844SOL     OW91523   5.747  11.894   6.853  0.8722  0.4383 -0.1731
57844SOL    HW191524   5.662  11.852   6.867  1.6254 -0.8670  0.6509
57844SOL    HW291525   5.740  11.931   6.765 -0.7035  0.7782  0.0537
57845SOL     OW91526   4.221   3.228  10.965  0.4007 -0.2503  0.3009
57845SOL    HW191527   4.195   3.142  10.997 -2.6502 -0.6229 -2.7008
57845SOL    HW291528   4.181   3.289  11.026 -2.5746 -0.9693 -0.7868
57846SOL     OW91529   5.183  13.330   5.894 -0.0471 -0.3338  0.3471
57846SOL    HW191530   5.146  13.354   5.809 -1.3976 -0.2260  0.9422
57846SOL    HW291531   5.235  13.407   5.920 -1.3757  0.5133  0.5769
57847SOL     OW91532   3.124   8.376   1.108  0.5010 -0.7628 -0.5042
57847SOL    HW191533   3.136   8.281   1.107  1.0384 -0.6928 -1.4010
57847SOL    HW291534   3.121   8.401   1.015  2.2315  0.3173 -0.3142
57848SOL     OW91535   2.559   9.759  11.748  0.5263  0.3003  0.5052
57848SOL    HW191536   2.514   9.807  11.679  0.3612 -0.6298 -0.0455
57848SOL    HW291537   2.553   9.667  11.722  2.5021  0.1075  0.5290
57849SOL     OW91538   8.912   0.016   0.279  0.1405 -0.2691 -0.1876
57849SOL    HW191539   8.879  -0.009   0.193  3.6354  2.0569 -2.4189
57849SOL    HW291540   8.990  -0.038   0.292  0.6592  0.6653  0.7028
57850SOL     OW91541  13.095   1.907   3.066 -0.3536 -0.9903 -0.2370
57850SOL    HW191542  13.016   1.856   3.051 -0.2343 -1.3377  0.2944
57850SOL    HW291543  13.166   1.843   3.061 -0.1717 -0.8091  0.0618
57851SOL     OW91544   3.335   4.817   0.036  0.0322  0.1272 -0.6874
57851SOL    HW191545   3.321   4.912   0.036  0.4002  0.1885  0.0675
57851SOL    HW291546   3.247   4.780   0.035 -0.1630  0.4908  0.6779
57852SOL     OW91547  10.378   4.776   3.191  0.1880 -0.4524 -0.0507
57852SOL    HW191548  10.466   4.798   3.224 -0.3198  0.6231  0.6550
57852SOL    HW291549  10.393   4.703   3.131  1.8730  1.0511 -1.5960
57853SOL     OW91550   4.641   2.945   5.546  0.5218  0.4989  0.6258
57853SOL    HW191551   4.616   2.984   5.630  0.4687 -0.8597  1.2729
57853SOL    HW291552   4.720   2.894   5.566 -0.6760 -1.5880  0.3871
57854SOL     OW91553  10.063   7.239   7.078  0.0312 -0.2091  0.1768
57854SOL    HW191554  10.142   7.213   7.030  0.5615  0.8634  0.4448
57854SOL    HW291555  10.018   7.156   7.096  1.0786 -0.8365 -0.0026
57855SOL     OW91556  11.972  13.286   6.192  0.0576 -0.4439  0.3107
57855SOL    HW191557  11.906  13.218   6.179 -0.3365 -0.2135  1.0616
57855SOL    HW291558  12.043  13.261   6.133 -0.9715 -0.3229 -1.0359
57856SOL     OW91559  11.412  12.732   2.407  0.6218  0.2504 -0.0626
57856SOL    HW191560  11.490  12.709   2.458  0.5774 -0.7944 -0.4555
57856SOL    HW291561  11.446  12.787   2.336  0.9722 -0.0524 -0.1312
57857SOL     OW91562   1.259   2.693   9.661 -0.6383 -0.6142 -0.1714
57857SOL    HW191563   1.174   2.734   9.642  0.8762  2.7595 -0.5111
57857SOL    HW291564   1.263   2.689   9.756 -1.1241 -0.7087 -0.1494
57858SOL     OW91565   4.385   1.023   3.495 -0.1733  0.0971 -0.4043
57858SOL    HW191566   4.440   0.974   3.433  0.0619 -0.1623  0.0070
57858SOL    HW291567   4.394   1.114   3.468  0.2372  0.0270 -0.5114
57859SOL     OW91568   2.554   6.079   1.659 -0.5351  0.4691  0.2645
57859SOL    HW191569   2.649   6.094   1.657  0.0837 -2.5231  1.3757
57859SOL    HW291570   2.525   6.120   1.741  0.2203 -0.2453  0.9215
57860SOL     OW91571   3.514   1.244   1.495 -0.0676  0.4971  0.9543
57860SOL    HW191572   3.488   1.177   1.432 -2.1484  0.8596  1.3615
57860SOL    HW291573   3.540   1.318   1.441  0.8543 -0.1123  0.5223
57861SOL     OW91574  12.432   5.143   8.362 -0.0041  0.1145  0.1270
57861SOL    HW191575  12.444   5.048   8.361  0.7653  0.1684 -2.3475
57861SOL    HW291576  12.486   5.175   8.290 -2.2078  2.1726 -0.7565
57862SOL     OW91577  13.301   9.370   9.113  0.3715 -0.4957  0.2015
57862SOL    HW191578  13.377   9.313   9.129  0.6580 -0.0107  0.5871
57862SOL    HW291579  13.244   9.356   9.188  1.2424  1.0082  1.1930
57863SOL     OW91580  10.760   8.343  10.695 -0.0889 -0.2921 -0.3352
57863SOL    HW191581  10.726   8.428  10.721  0.3895 -1.0935  3.4812
57863SOL    HW291582  10.705   8.279  10.741  1.6386 -1.8817 -0.3249
57864SOL     OW91583   0.814   3.299   1.265 -0.3001 -0.4133  0.5063
57864SOL    HW191584   0.850   3.211   1.263 -0.9673 -0.6920  0.4453
57864SOL    HW291585   0.738   3.293   1.323 -2.5683 -0.7563 -2.3039
57865SOL     OW91586   6.930  11.477   4.143  0.5153  0.6553  0.2843
57865SOL    HW191587   6.909  11.564   4.109  0.3379  0.6126  0.2846
57865SOL    HW291588   6.867  11.419   4.101  0.1035  0.6403  0.9107
57866SOL     OW91589   2.041   2.552   8.023 -0.1889  0.1426  0.1405
57866SOL    HW191590   2.075   2.511   7.944  0.1598  0.4879  0.1053
57866SOL    HW291591   2.090   2.511   8.094 -0.6274 -0.2961  0.2002
57867SOL     OW91592   3.939   6.650   3.716 -0.4910 -0.0992  0.0095
57867SOL    HW191593   3.982   6.726   3.678  0.5978 -0.0274  1.3267
57867SOL    HW291594   3.919   6.594   3.641  1.7982 -0.0797 -0.6909
57868SOL     OW91595   6.344   2.518  12.809  0.0828  0.2292  0.2329
57868SOL    HW191596   6.323   2.467  12.731 -0.0757  0.2259  0.2768
57868SOL    HW291597   6.273   2.582  12.815  0.5595  0.8160 -0.1341
57869SOL     OW91598   7.886   3.370  14.086 -0.0454 -0.1184 -0.2210
57869SOL    HW191599   7.791   3.374  14.076  0.0192 -1.3798 -1.8330
57869SOL    HW291600   7.901   3.291  14.138  0.1163  0.0206 -0.0578
57870SOL     OW91601   2.761   8.160   2.262 -0.2768  0.3011 -0.0447
57870SOL    HW191602   2.765   8.110   2.181  0.5356  3.0297 -1.8413
57870SOL    HW291603   2.705   8.235   2.242 -0.2468  0.9481  2.0139
57871SOL     OW91604   5.469   8.357   1.343  0.0580 -0.7145  0.2863
57871SOL    HW191605   5.550   8.408   1.341  0.4017 -1.1421  1.7793
57871SOL    HW291606   5.431   8.369   1.256  0.1736  1.9528  0.5173
57872SOL     OW91607  11.638  11.515  10.256  0.0393  0.3532 -0.4623
57872SOL    HW191608  11.731  11.513  10.234 -0.2141 -0.5398 -1.5464
57872SOL    HW291609  11.599  11.573  10.190 -0.0463  1.6093  0.6373
57873SOL     OW91610   0.806   1.852  10.044 -0.3564 -0.2533 -0.4601
57873SOL    HW191611   0.865   1.926  10.027 -0.8926  0.2164 -0.3007
57873SOL    HW291612   0.857   1.775  10.019  0.1719  0.1759 -0.7327
57874SOL     OW91613   9.832   7.149   1.215 -0.0627  0.2046 -0.1165
57874SOL    HW191614   9.871   7.157   1.128 -0.5107 -0.0015 -0.3415
57874SOL    HW291615   9.899   7.183   1.275  0.1362  0.6136 -0.5657
57875SOL     OW91616   6.428   2.945   3.490 -0.3433  0.6014 -0.1326
57875SOL    HW191617   6.480   2.918   3.565  0.6710  1.5998 -0.4499
57875SOL    HW291618   6.370   2.871   3.473  2.4041 -1.4829 -1.0479
57876SOL     OW91619   0.597   9.404   1.974 -0.1397 -0.3385 -0.0003
57876SOL    HW191620   0.667   9.415   2.038 -0.7632 -0.1077  0.6618
57876SOL    HW291621   0.517   9.401   2.027 -0.6744 -0.0705 -0.7794
57877SOL     OW91622   5.060   4.955   6.689  0.0116  0.1245  0.2522
57877SOL    HW191623   5.136   4.946   6.630  0.1156  0.2593  0.3672
57877SOL    HW291624   5.094   4.930   6.775 -0.6493 -2.1812 -0.0888
57878SOL     OW91625   8.585  12.224   9.711  0.2972 -0.4014 -0.6099
57878SOL    HW191626   8.674  12.188   9.714  0.2453 -0.4872  1.4298
57878SOL    HW291627   8.530  12.151   9.683  0.8387 -0.3621 -1.8323
57879SOL     OW91628   3.515   7.648  11.802 -0.4197 -0.4494  0.1174
57879SOL    HW191629   3.470   7.579  11.754 -1.1405 -1.4894  2.1595
57879SOL    HW291630   3.605   7.616  11.813 -0.4903 -0.6130  0.2178
57880SOL     OW91631   8.729   7.888   0.160 -0.3640 -0.2929 -0.5324
57880SOL    HW191632   8.719   7.798   0.129 -0.0512 -1.5170  2.4946
57880SOL    HW291633   8.743   7.940   0.081  0.1983 -2.9979 -2.3494
57881SOL     OW91634   5.447  12.588   9.347  0.2431 -0.6459 -0.3054
57881SOL    HW191635   5.506  12.662   9.329 -0.2118 -0.2015 -0.0019
57881SOL    HW291636   5.505  12.513   9.357  0.8459 -0.0436  0.9362
57882SOL     OW91637  13.430   5.097   1.872  0.3526  0.2795 -0.0119
57882SOL    HW191638  13.512   5.144   1.892 -0.1606  0.7047  1.1618
57882SOL    HW291639  13.437   5.015   1.922  0.0839  0.2910  0.0419
57883SOL     OW91640   8.196   9.841   7.712  0.0804  0.1753 -0.1706
57883SOL    HW191641   8.144   9.822   7.790  0.9919 -2.3325 -0.0994
57883SOL    HW291642   8.138   9.894   7.657 -0.3602  2.6427  2.4186
57884SOL     OW91643  11.122   8.466  13.536  0.0114 -0.0584 -0.4876
57884SOL    HW191644  11.210   8.479  13.570 -0.6585  1.0368  0.9102
57884SOL    HW291645  11.071   8.438  13.612 -1.0864  0.4666 -1.0083
57885SOL     OW91646  13.548   6.121  11.495  0.5250 -0.1334  0.5943
57885SOL    HW191647  13.524   6.208  11.527  0.9216  0.1391  0.1687
57885SOL    HW291648  13.491   6.106  11.419  1.0581  0.1352  0.1302
57886SOL     OW91649  10.178  10.266   9.202 -0.2668  0.1287  0.3283
57886SOL    HW191650  10.251  10.250   9.262  0.7570 -0.5230 -1.0365
57886SOL    HW291651  10.108  10.298   9.258  0.7706 -0.0869  1.8154
57887SOL     OW91652   0.945   9.398   3.254  0.2677  0.3104 -0.2012
57887SOL    HW191653   0.851   9.389   3.271  0.1911 -1.3578 -1.2643
57887SOL    HW291654   0.975   9.461   3.318 -1.2152 -0.6651  1.5480
57888SOL     OW91655  10.643   5.473  11.186 -0.1920  0.2906  0.5870
57888SOL    HW191656  10.584   5.455  11.114 -0.8293 -1.6122  1.5273
57888SOL    HW291657  10.725   5.499  11.144 -0.0588 -2.2555 -0.9078
57889SOL     OW91658   6.675  12.506   2.037 -0.1944 -0.0457 -0.0449
57889SOL    HW191659   6.583  12.478   2.041 -0.0027 -0.6319  0.6329
57889SOL    HW291660   6.720  12.432   1.996  0.0534  0.0097  0.1276
57890SOL     OW91661   2.172   9.229   5.033 -0.0675 -0.1828 -0.2027
57890SOL    HW191662   2.200   9.272   5.114 -0.8616 -1.4709  0.7957
57890SOL    HW291663   2.114   9.293   4.992  1.8688  1.2904 -0.7939
57891SOL     OW91664   8.097   5.996   0.794 -0.7683 -0.0496  0.0181
57891SOL    HW191665   8.031   6.062   0.817 -0.2007  0.0868  1.3259
57891SOL    HW291666   8.164   6.046   0.747  0.7299  0.8358  2.8695
57892SOL     OW91667   3.116   2.141   5.555  0.1283  0.2671 -0.2957
57892SOL    HW191668   3.066   2.210   5.599  0.2434 -0.1678  0.5375
57892SOL    HW291669   3.170   2.188   5.492  0.5424  1.0032  0.5745
57893SOL     OW91670  10.548   8.466   9.131 -0.4931 -0.0883  0.3697
57893SOL    HW191671  10.548   8.392   9.071 -0.1824 -0.2782  0.6025
57893SOL    HW291672  10.462   8.463   9.173 -0.6619 -0.0310  0.0323
57894SOL     OW91673   8.477  13.416  12.170 -0.3716  0.3603 -0.5134
57894SOL    HW191674   8.427  13.350  12.123  0.3519  0.4203 -1.3768
57894SOL    HW291675   8.551  13.437  12.113 -1.1990  2.7792 -0.8467
57895SOL     OW91676  12.672  11.543  13.231  0.5194  0.4530 -0.2306
57895SOL    HW191677  12.659  11.524  13.324 -2.8217 -0.6480 -0.7847
57895SOL    HW291678  12.619  11.477  13.186  2.5879  0.5060 -2.9942
57896SOL     OW91679   1.186   7.370  11.550  0.3203 -0.0306 -0.0782
57896SOL    HW191680   1.213   7.278  11.554  0.4452 -0.0633 -1.3199
57896SOL    HW291681   1.183   7.390  11.457 -1.0182  0.8418  0.1190
57897SOL     OW91682   1.990   0.343  10.262 -0.4506 -0.8172  0.8260
57897SOL    HW191683   1.915   0.398  10.238  0.4479 -0.0698 -0.4189
57897SOL    HW291684   2.025   0.312  10.178  1.9451  0.6488  1.1737
57898SOL     OW91685   9.738   7.015   4.539 -0.5071 -0.3035  0.2516
57898SOL    HW191686   9.706   7.099   4.507 -0.4553 -0.2927  0.2283
57898SOL    HW291687   9.737   6.958   4.462 -1.3264 -0.5602  0.4353
57899SOL     OW91688   8.298   3.144   2.771  0.4869 -0.3989  0.3853
57899SOL    HW191689   8.296   3.048   2.761  1.7279 -0.3360 -0.9047
57899SOL    HW291690   8.361   3.173   2.704  1.5119  1.1704  1.9530
57900SOL     OW91691  13.455   3.548   7.113 -0.0822 -0.4330 -0.3581
57900SOL    HW191692  13.368   3.541   7.154  0.0040  0.7745  0.0760
57900SOL    HW291693  13.447   3.499   7.031 -0.8206 -1.3167  0.2198
57901SOL     OW91694  10.944   7.857   0.121  0.5734 -0.2754 -0.2404
57901SOL    HW191695  10.945   7.858   0.025  0.1049 -1.2687 -0.2728
57901SOL    HW291696  10.890   7.781   0.143  0.7015 -0.0727  0.8138
57902SOL     OW91697   5.790  11.338   4.388 -0.4578  0.6885 -0.1615
57902SOL    HW191698   5.758  11.313   4.475 -2.0290 -0.1668 -0.9413
57902SOL    HW291699   5.856  11.405   4.405  1.6449 -1.6950  1.8740
57903SOL     OW91700   6.088   4.026  10.768  0.6774  0.2568  0.0183
57903SOL    HW191701   6.124   3.984  10.689  1.7046 -1.0272  1.1175
57903SOL    HW291702   6.142   3.993  10.839 -0.5765  0.9568  1.3468
57904SOL     OW91703   8.679  10.594   1.088  0.2428  0.3812 -0.6759
57904SOL    HW191704   8.748  10.534   1.115 -2.2790 -1.7684  1.5472
57904SOL    HW291705   8.698  10.676   1.134  0.0296 -0.9761  2.0058
57905SOL     OW91706   0.579  13.886  11.045  0.1850  0.2815  0.4251
57905SOL    HW191707   0.588  13.925  10.958 -0.3233 -0.4225  0.0586
57905SOL    HW291708   0.532  13.804  11.031 -0.8684  0.6719  1.4906
57906SOL     OW91709   1.137   4.406  13.180  0.1812 -0.0511 -0.5276
57906SOL    HW191710   1.080   4.334  13.209  0.7073  0.1830  1.2446
57906SOL    HW291711   1.078   4.477  13.157 -0.2833  0.0846  0.9920
57907SOL     OW91712   5.262   3.200   5.937  0.0888 -0.7265  0.1174
57907SOL    HW191713   5.229   3.112   5.953  0.9632 -1.7401 -2.9350
57907SOL    HW291714   5.357   3.192   5.948 -0.0094  0.6994  2.9149
57908SOL     OW91715   3.042  10.622   8.085 -0.4434 -0.6626 -0.1901
57908SOL    HW191716   2.999  10.541   8.111  1.2961 -0.9481  2.1560
57908SOL    HW291717   3.040  10.676   8.164 -0.6513  1.2185 -1.4051
57909SOL     OW91718   6.146   9.714  11.251 -0.6514 -0.0394 -0.4900
57909SOL    HW191719   6.120   9.635  11.204  0.7585 -0.8226 -0.0042
57909SOL    HW291720   6.100   9.707  11.335 -2.5112  0.9484 -1.3638
57910SOL     OW91721   7.332   3.886   8.314 -0.1119 -0.3706  0.1426
57910SOL    HW191722   7.386   3.884   8.235 -0.6676 -0.6884 -0.2425
57910SOL    HW291723   7.364   3.814   8.367  1.0263  0.5532  0.7375
57911SOL     OW91724   0.711  13.238   7.681 -0.4297 -0.0132  0.3744
57911SOL    HW191725   0.769  13.166   7.708  1.3887  1.4814  0.6368
57911SOL    HW291726   0.649  13.197   7.620  0.3223 -1.8715  0.7983
57912SOL     OW91727   8.783  13.653   4.345 -0.1801 -0.0745 -0.4056
57912SOL    HW191728   8.701  13.659   4.394 -0.1968 -2.0416 -0.0802
57912SOL    HW291729   8.814  13.564   4.363  0.2342 -0.6209 -3.3324
57913SOL     OW91730   9.704   0.472   4.204  0.2418  0.2556  0.8738
57913SOL    HW191731   9.707   0.562   4.171 -2.0147  0.8535  2.0792
57913SOL    HW291732   9.648   0.425   4.143  0.4647 -0.0412  0.8951
57914SOL     OW91733   4.925   7.650   9.389 -0.1354 -0.1146  0.2311
57914SOL    HW191734   4.879   7.567   9.376 -0.2730 -0.2815  1.6634
57914SOL    HW291735   4.929   7.661   9.484  1.7008  0.5013  0.1267
57915SOL     OW91736   4.478   7.601   6.030 -0.3019  0.0620  1.0776
57915SOL    HW191737   4.400   7.607   5.974 -0.5501  0.9694  1.4939
57915SOL    HW291738   4.548   7.574   5.971 -0.1375  2.7732 -0.1281
57916SOL     OW91739   2.216  12.597   6.713 -0.3280  0.1112 -0.1700
57916SOL    HW191740   2.134  12.645   6.721 -0.1288  0.4206  0.0343
57916SOL    HW291741   2.205  12.542   6.636 -0.8612 -0.1133  0.0642
57917SOL     OW91742   6.868   0.730   8.497  0.0588 -0.6749 -0.0831
57917SOL    HW191743   6.778   0.699   8.485 -0.8483  1.4422  0.7379
57917SOL    HW291744   6.906   0.670   8.560 -2.1117  0.6005  2.6569
57918SOL     OW91745   3.322   0.579  12.403 -0.1321  0.3361  0.6673
57918SOL    HW191746   3.242   0.626  12.425  1.1048  2.8909  0.0287
57918SOL    HW291747   3.310   0.552  12.312 -0.4088  0.3688  0.6932
57919SOL     OW91748  13.557   2.509   2.682  0.3976  0.2940 -0.2133
57919SOL    HW191749  13.541   2.516   2.776 -0.1309  2.4810 -0.4032
57919SOL    HW291750  13.495   2.444   2.651 -1.1100  1.2736  0.6283
57920SOL     OW91751   8.515   8.947   1.588 -0.2898  0.0026  0.8749
57920SOL    HW191752   8.580   8.889   1.627  0.7031  0.4048 -0.1165
57920SOL    HW291753   8.445   8.953   1.653  1.0266  0.1909  2.3337
57921SOL     OW91754   9.161   5.671   3.434  0.0512 -0.3477 -0.2523
57921SOL    HW191755   9.224   5.617   3.482  0.9296 -0.1737 -1.1717
57921SOL    HW291756   9.199   5.680   3.347 -0.7431  0.6356 -0.5153
57922SOL     OW91757  13.329   5.016   1.327  0.3029 -0.2998  0.9070
57922SOL    HW191758  13.385   4.973   1.392  2.2310 -0.2037 -0.5916
57922SOL    HW291759  13.315   4.949   1.260  3.1634  1.1133 -1.3514
57923SOL     OW91760  13.591   6.539  13.969  0.0626  0.0624  0.0449
57923SOL    HW191761  13.658   6.557  13.904  0.6424  0.2693  0.6987
57923SOL    HW291762  13.513   6.584  13.936  0.5183  0.6950 -0.1882
57924SOL     OW91763   7.346  12.520  10.191 -0.3597  0.1984  0.0776
57924SOL    HW191764   7.407  12.448  10.207 -0.2687  0.1808 -0.3407
57924SOL    HW291765   7.364  12.583  10.261  0.7161  0.5773 -0.5263
57925SOL     OW91766   7.764   9.450  11.345  0.6565 -0.0681  0.1760
57925SOL    HW191767   7.787   9.522  11.287 -1.2527 -1.6240 -2.7836
57925SOL    HW291768   7.677   9.472  11.377 -1.5050 -2.3119 -3.4669
57926SOL     OW91769   3.290   9.348   6.430 -0.4046  0.1568 -0.0349
57926SOL    HW191770   3.279   9.406   6.356  1.8722 -0.3297 -0.8372
57926SOL    HW291771   3.286   9.406   6.507  1.1505  1.3215 -0.7733
57927SOL     OW91772   8.114   3.607   7.409 -0.4891 -0.3177 -0.4492
57927SOL    HW191773   8.066   3.626   7.489  0.1265  0.9290 -0.3434
57927SOL    HW291774   8.073   3.663   7.343 -1.4605 -1.8492 -1.2121
57928SOL     OW91775  12.937   0.946   5.091  0.4317  0.2450 -0.6693
57928SOL    HW191776  12.954   0.945   4.997  0.4563  2.2945 -0.7360
57928SOL    HW291777  12.893   1.030   5.106 -0.6638 -0.5764  0.9834
57929SOL     OW91778   7.675   6.844   8.780 -0.0774 -0.2344 -0.0207
57929SOL    HW191779   7.611   6.915   8.782  0.3568  0.1607 -0.0468
57929SOL    HW291780   7.756   6.883   8.813 -0.5363 -1.4607  2.8602
57930SOL     OW91781   7.679   7.783   4.270 -0.2867  0.4347 -0.9497
57930SOL    HW191782   7.637   7.858   4.311 -0.3541 -0.8823  1.5778
57930SOL    HW291783   7.771   7.809   4.261 -0.0250  0.4220  1.1381
57931SOL     OW91784  12.651   2.908   7.636 -0.2709 -0.1810  0.2603
57931SOL    HW191785  12.712   2.867   7.574 -1.0188  0.0147 -0.6197
57931SOL    HW291786  12.575   2.933   7.583 -2.0949 -2.3514  1.6515
57932SOL     OW91787  10.443   5.342   2.815  0.0188  0.2206  0.2565
57932SOL    HW191788  10.462   5.253   2.784  1.2211  0.4098  0.4246
57932SOL    HW291789  10.455   5.397   2.737 -1.4549  0.1742 -0.0354
57933SOL     OW91790  10.511   8.578  10.038  0.4904  0.5500  0.0149
57933SOL    HW191791  10.454   8.633  10.092 -0.4060 -0.2211 -0.1138
57933SOL    HW291792  10.573   8.540  10.099  0.5303  0.9784  0.2443
57934SOL     OW91793   3.650  12.396  11.029  0.1383  0.3865  0.5608
57934SOL    HW191794   3.633  12.489  11.018  1.0768  0.4603 -0.4476
57934SOL    HW291795   3.676  12.366  10.942 -2.1764 -1.2723  0.3351
57935SOL     OW91796   9.879   7.518  11.265  0.4945 -0.4946  0.2733
57935SOL    HW191797   9.932   7.472  11.330 -0.5849 -0.2398  1.3691
57935SOL    HW291798   9.801   7.463  11.255 -0.3844  0.5966  0.9169
57936SOL     OW91799   7.756   0.199   7.170  0.2819  0.4745  0.2410
57936SOL    HW191800   7.773   0.245   7.252 -1.9244  1.0250  0.4621
57936SOL    HW291801   7.700   0.125   7.194  1.5962 -0.8290 -0.4853
57937SOL     OW91802  11.051   9.509   2.699  0.4936  0.0593 -0.0155
57937SOL    HW191803  11.015   9.574   2.638  0.9507  0.4656  0.1371
57937SOL    HW291804  11.059   9.429   2.647  0.5711  0.3137 -0.4008
57938SOL     OW91805   8.557   2.116   4.303  0.1385  0.2856  0.3154
57938SOL    HW191806   8.482   2.078   4.258  0.7814  0.0485 -0.5941
57938SOL    HW291807   8.543   2.096   4.396 -0.8113  0.0753  0.1308
57939SOL     OW91808  12.904   9.159  12.218 -0.4205  0.1914  0.2177
57939SOL    HW191809  12.869   9.247  12.234 -0.5682  0.5942 -1.9833
57939SOL    HW291810  12.841   9.100  12.259  0.1488  1.1002  2.5179
57940SOL     OW91811  13.696   0.476   2.065  0.0965 -0.3967  0.1118
57940SOL    HW191812  13.727   0.567   2.062  0.6021 -0.5501  0.4496
57940SOL    HW291813  13.603   0.481   2.044  0.7103 -0.1214 -2.8900
57941SOL     OW91814  10.391   8.945  12.878  0.5328  0.4852  0.0270
57941SOL    HW191815  10.434   8.919  12.797 -0.3770 -0.8035 -0.0583
57941SOL    HW291816  10.335   9.018  12.853  1.6118  1.2879 -0.1228
57942SOL     OW91817  14.101   2.094   6.731  0.4250 -0.2279  0.5597
57942SOL    HW191818  14.194   2.084   6.753  0.3095 -0.1396  1.1073
57942SOL    HW291819  14.071   2.005   6.712  1.0958 -0.0326 -1.6214
57943SOL     OW91820   1.808   4.632   4.639 -0.4654 -0.1229 -0.0592
57943SOL    HW191821   1.885   4.592   4.600 -0.3104 -2.0087  2.0039
57943SOL    HW291822   1.842   4.701   4.695 -0.2607 -0.7504  0.6086
57944SOL     OW91823  10.448   0.970   8.503  0.2342  0.3306  0.4384
57944SOL    HW191824  10.446   0.980   8.598  0.2482 -0.0024  0.4774
57944SOL    HW291825  10.367   0.924   8.482  0.0020  0.8338  0.2321
57945SOL     OW91826   0.801   6.223   9.397  0.3807  0.0624  0.1884
57945SOL    HW191827   0.828   6.264   9.315 -3.0509  0.5677 -0.8802
57945SOL    HW291828   0.776   6.134   9.373 -2.7085  0.8270  0.0317
57946SOL     OW91829   5.767   2.698   1.113  0.2060 -0.3748  0.1803
57946SOL    HW191830   5.769   2.789   1.084  3.6030 -0.6189 -0.8836
57946SOL    HW291831   5.767   2.647   1.031 -0.2112 -1.2860  0.7301
57947SOL     OW91832  12.931   0.479  13.569  0.1193  0.0354  0.1035
57947SOL    HW191833  12.992   0.459  13.640 -0.2516  1.3533  0.8199
57947SOL    HW291834  12.936   0.574  13.558 -0.3958 -0.0590 -1.1257
57948SOL     OW91835   9.704  14.008   6.863 -0.6236 -0.2218 -0.4812
57948SOL    HW191836   9.773  13.962   6.911 -0.4832  0.2699 -0.1917
57948SOL    HW291837   9.631  14.011   6.925 -0.2975  0.7860 -0.1210
57949SOL     OW91838  11.042   3.638   3.894  0.1641 -0.2697  0.3871
57949SOL    HW191839  11.003   3.558   3.858  1.2822 -0.8639  0.4594
57949SOL    HW291840  11.053   3.695   3.819 -0.3872 -0.2893  0.2885
57950SOL     OW91841   5.629   5.860  10.652 -0.6747  0.1530 -0.1750
57950SOL    HW191842   5.642   5.849  10.746 -0.7406  1.9158  0.0822
57950SOL    HW291843   5.534   5.869  10.642 -0.8631 -2.0219 -0.6910
57951SOL     OW91844  10.712   5.376   4.639 -0.3567 -0.0543 -0.3538
57951SOL    HW191845  10.634   5.350   4.688 -0.5101 -2.7416 -1.8526
57951SOL    HW291846  10.679   5.429   4.567 -0.5271  0.7377  0.2990
57952SOL     OW91847   4.564   0.061   8.452 -0.2147 -0.0470 -0.4596
57952SOL    HW191848   4.510   0.069   8.530 -1.1669  0.3628 -1.1325
57952SOL    HW291849   4.625   0.135   8.458  0.6617 -0.8346  0.5812
57953SOL     OW91850   9.359   0.959  10.738  0.2467  0.0181 -0.2256
57953SOL    HW191851   9.415   0.915  10.802 -0.7179 -0.7613  0.1120
57953SOL    HW291852   9.405   1.041  10.719  0.7260  0.1284  1.2344
57954SOL     OW91853   9.705   9.798   6.814 -0.1753 -0.7137  0.3203
57954SOL    HW191854   9.613   9.811   6.793 -0.0261 -1.6900 -1.1392
57954SOL    HW291855   9.750   9.872   6.772 -0.1859 -0.8562  0.0586
57955SOL     OW91856   1.014   0.518   5.445  0.0326 -0.1750 -0.3671
57955SOL    HW191857   0.962   0.493   5.521  1.5082 -0.1331  0.7001
57955SOL    HW291858   1.044   0.607   5.464 -0.2571  0.1580 -1.3895
57956SOL     OW91859  12.445   4.821   8.486  0.4094 -0.2032  0.0151
57956SOL    HW191860  12.530   4.859   8.462 -0.3168  1.1981 -0.4821
57956SOL    HW291861  12.429   4.852   8.575  0.3625 -0.3668  0.0643
57957SOL     OW91862   1.558   9.596  13.113  0.0178  0.4291  0.5275
57957SOL    HW191863   1.634   9.615  13.059 -0.2982 -0.2290 -0.1660
57957SOL    HW291864   1.499   9.548  13.055 -0.2568 -0.4317  1.4909
57958SOL     OW91865   1.951  12.347  10.764  0.0886  0.5413 -0.4092
57958SOL    HW191866   2.029  12.399  10.785 -0.1030 -0.0022  2.0240
57958SOL    HW291867   1.895  12.405  10.713  1.0847  1.7403 -0.1799
57959SOL     OW91868   9.310  13.587   1.089  0.1405  0.6718 -0.0319
57959SOL    HW191869   9.384  13.536   1.057  0.3094 -0.6687  2.2581
57959SOL    HW291870   9.237  13.560   1.035  0.5530 -0.9003  0.1540
57960SOL     OW91871  14.046   4.730   1.203 -0.3890 -0.3020 -0.9202
57960SOL    HW191872  14.118   4.793   1.202 -0.6589  0.1016  0.9207
57960SOL    HW291873  13.975   4.776   1.248 -0.6265 -1.8766  0.4020
57961SOL     OW91874  11.211   6.107   7.406 -0.1575  0.1465 -0.0729
57961SOL    HW191875  11.298   6.128   7.373  0.2079  1.8123  1.7669
57961SOL    HW291876  11.152   6.161   7.352 -0.0692 -0.7818 -1.1389
57962SOL     OW91877   1.211  11.094  12.239 -0.5856 -0.8826 -0.4074
57962SOL    HW191878   1.224  10.999  12.240  0.7239 -0.7643  2.1433
57962SOL    HW291879   1.218  11.120  12.331 -0.0778  1.8006 -1.1282
57963SOL     OW91880   1.268   0.897  11.115 -0.0154  0.5719  0.2105
57963SOL    HW191881   1.305   0.974  11.072  1.9451  0.0542  0.8229
57963SOL    HW291882   1.187   0.927  11.155 -0.6031  1.6567 -1.7121
57964SOL     OW91883   1.592   5.722   8.118 -0.2535  0.0316  0.1419
57964SOL    HW191884   1.519   5.721   8.056 -0.0497  1.6426 -0.1694
57964SOL    HW291885   1.604   5.630   8.142 -2.1302 -0.3133 -0.0758
57965SOL     OW91886   9.904   6.685   6.140 -0.0060 -1.3117  0.4902
57965SOL    HW191887   9.874   6.754   6.082  1.6426 -0.5966  0.4259
57965SOL    HW291888   9.861   6.701   6.224 -0.7109 -1.0532  0.0771
57966SOL     OW91889  10.332   4.097   3.300 -0.2536 -0.3845 -0.7409
57966SOL    HW191890  10.392   4.169   3.279 -1.3336  0.9228  0.4287
57966SOL    HW291891  10.324   4.048   3.218  0.2749  1.0184 -1.6866
57967SOL     OW91892   0.202   8.788   7.203 -0.1265 -0.0894  0.4428
57967SOL    HW191893   0.271   8.804   7.138 -0.9358 -1.9098 -0.9686
57967SOL    HW291894   0.233   8.712   7.252 -0.4206  0.0501  0.8428
57968SOL     OW91895   3.046   7.412  13.570  0.1475  0.5234  0.0194
57968SOL    HW191896   2.997   7.494  13.564  0.8490  1.0040  0.6524
57968SOL    HW291897   3.131   7.432  13.532  0.2274  0.0045 -0.0795
57969SOL     OW91898   1.018  13.330  11.374  0.3815 -0.4066 -0.3338
57969SOL    HW191899   1.086  13.333  11.307  0.9081 -0.2244  0.2019
57969SOL    HW291900   0.942  13.371  11.333  0.7477 -0.1552 -0.7647
57970SOL     OW91901   7.221   8.783   5.204  0.0721 -0.1317  0.0228
57970SOL    HW191902   7.231   8.740   5.289 -3.1740  0.0846  0.6413
57970SOL    HW291903   7.235   8.876   5.223 -0.1832 -0.1341  0.2258
57971SOL     OW91904   8.831   0.862   8.690  0.0474  0.7338  0.0916
57971SOL    HW191905   8.745   0.837   8.725  0.2373 -0.4304 -0.2438
57971SOL    HW291906   8.894   0.821   8.749  0.3832  1.5949  0.3439
57972SOL     OW91907   4.888  11.522   3.558  0.0189  0.0414  0.6843
57972SOL    HW191908   4.832  11.499   3.632 -0.3467 -1.7168 -0.0873
57972SOL    HW291909   4.950  11.450   3.552  0.8963  0.8191  0.0829
57973SOL     OW91910   1.869   4.372   1.724 -0.1502 -0.3540 -0.3685
57973SOL    HW191911   1.803   4.379   1.792  0.5725  1.6060  0.1833
57973SOL    HW291912   1.902   4.461   1.712  2.3562 -1.2220 -0.6532
57974SOL     OW91913  13.915  10.600   7.353 -0.0583 -0.1701  0.6516
57974SOL    HW191914  13.832  10.578   7.310  0.2327  0.7023 -0.4219
57974SOL    HW291915  13.963  10.651   7.287  0.1840  1.7253  2.1836
57975SOL     OW91916   4.672   4.204   0.976 -0.0017 -0.0085 -0.0152
57975SOL    HW191917   4.641   4.258   0.903  0.7424  0.6397  0.1337
57975SOL    HW291918   4.595   4.194   1.032 -0.2219  0.7136 -0.1659
57976SOL     OW91919   0.153   4.695  11.369 -0.5624 -0.3566 -0.1595
57976SOL    HW191920   0.136   4.623  11.430  0.4800 -1.0094 -0.6044
57976SOL    HW291921   0.110   4.771  11.409 -1.0382 -1.0643  0.7044
57977SOL     OW91922   4.049   4.136   2.482  0.2336  0.1226  0.1502
57977SOL    HW191923   4.127   4.145   2.427  1.4804 -1.7488  1.4886
57977SOL    HW291924   3.985   4.092   2.425  0.7839  0.0099 -0.3967
57978SOL     OW91925   6.603  14.008   6.108 -0.1519  0.1487  0.0607
57978SOL    HW191926   6.697  14.022   6.106 -0.0549  0.6900  3.5773
57978SOL    HW291927   6.591  13.925   6.154 -1.4148 -0.8636 -1.9283
57979SOL     OW91928   4.814  10.918   8.755  0.3294 -0.8881 -0.6568
57979SOL    HW191929   4.738  10.866   8.781 -0.2734  0.8008  1.1936
57979SOL    HW291930   4.780  11.007   8.745  1.7849 -0.3749 -1.2641
57980SOL     OW91931   8.332   2.419   9.857  0.1510  0.1399 -0.1554
57980SOL    HW191932   8.364   2.419   9.767 -0.0102 -1.5191 -0.2469
57980SOL    HW291933   8.238   2.404   9.849  0.2817 -1.0017  0.3038
57981SOL     OW91934   5.408  13.323   7.532  0.8740  0.3940  0.1878
57981SOL    HW191935   5.424  13.295   7.622  0.3080 -2.4133 -0.4903
57981SOL    HW291936   5.333  13.270   7.504 -0.5609  2.9806 -1.1904
57982SOL     OW91937   0.560  12.435   6.811  0.3299  0.7000  0.7425
57982SOL    HW191938   0.533  12.517   6.852  0.7759  1.7592 -0.9698
57982SOL    HW291939   0.649  12.420   6.844  0.3614  1.0690  0.8330
57983SOL     OW91940   6.787   1.702  11.973 -0.0966 -0.0293 -0.5447
57983SOL    HW191941   6.727   1.721  11.901  1.2678  0.8212 -1.5011
57983SOL    HW291942   6.749   1.747  12.048 -0.2043  1.2775 -1.3505
57984SOL     OW91943  12.519   0.882   4.232  0.1858  0.4566 -0.0193
57984SOL    HW191944  12.497   0.913   4.319  0.6608  0.4407  0.1053
57984SOL    HW291945  12.448   0.822   4.209  1.0926 -1.1504  1.1879
57985SOL     OW91946   1.331   5.058   9.850  0.2576  0.2649 -0.1929
57985SOL    HW191947   1.368   5.138   9.888  0.0962  1.1525 -1.8469
57985SOL    HW291948   1.241   5.080   9.829  0.1889 -0.3781 -0.6086
57986SOL     OW91949  13.475  12.124  13.602 -0.1675 -0.4866 -0.3282
57986SOL    HW191950  13.408  12.079  13.653 -0.5301  0.3609 -0.0470
57986SOL    HW291951  13.551  12.066  13.606 -0.7542 -1.2730 -0.3229
57987SOL     OW91952   7.574   8.449   0.791  0.7880 -0.3022  0.5638
57987SOL    HW191953   7.661   8.472   0.760  0.8245 -0.8280  0.2611
57987SOL    HW291954   7.589   8.372   0.847  0.3917 -1.1006 -0.4038
57988SOL     OW91955   2.348   7.012   9.426  0.0307  0.4192 -0.5373
57988SOL    HW191956   2.367   6.958   9.349  1.0209 -2.0301  1.2830
57988SOL    HW291957   2.252   7.012   9.431 -0.0235 -0.0434 -1.3511
57989SOL     OW91958  12.932   7.402   9.547 -0.5158 -0.1335 -0.1312
57989SOL    HW191959  12.844   7.393   9.511 -0.4147 -0.4951 -0.2855
57989SOL    HW291960  12.932   7.489   9.589 -2.0389 -1.3912  2.8034
57990SOL     OW91961   6.847   9.613   6.003  0.6558  1.0490  0.2769
57990SOL    HW191962   6.815   9.581   6.087  0.0229 -2.0248 -0.9729
57990SOL    HW291963   6.798   9.693   5.986 -1.3314  0.1667  1.5613
57991SOL     OW91964  11.418   7.258  10.171 -0.0832  0.5595  0.1846
57991SOL    HW191965  11.446   7.200  10.101  0.7800 -0.4654  1.3346
57991SOL    HW291966  11.373   7.330  10.127 -0.3219 -0.4931 -1.3374
57992SOL     OW91967   8.897   5.842   2.750  0.0950  0.6884 -0.4149
57992SOL    HW191968   8.802   5.852   2.756  0.1089  0.0149  2.0603
57992SOL    HW291969   8.911   5.782   2.677 -1.5200 -0.6723  0.3407
57993SOL     OW91970  11.160   8.109   9.021 -0.4143 -0.0021  0.7764
57993SOL    HW191971  11.234   8.107   9.082  1.0855 -1.1929 -0.9715
57993SOL    HW291972  11.151   8.201   8.998  0.2205  0.2221  1.3729
57994SOL     OW91973  10.790  10.752   5.579 -0.2235 -0.2835  0.5699
57994SOL    HW191974  10.806  10.841   5.548 -2.3731  0.1345  0.5199
57994SOL    HW291975  10.763  10.762   5.670  1.0477 -1.0628  1.0702
57995SOL     OW91976  11.580  11.561   2.384  0.4828  0.8376  0.3845
57995SOL    HW191977  11.591  11.641   2.435 -0.6328  1.2179  0.0357
57995SOL    HW291978  11.538  11.588   2.303 -1.8606 -0.3239  1.1078
57996SOL     OW91979   6.521   8.041   4.007  0.0676 -0.1165  0.0992
57996SOL    HW191980   6.492   8.132   4.013  2.4571  0.9455 -2.4215
57996SOL    HW291981   6.614   8.044   4.032  0.5558 -1.5563 -1.3534
57997SOL     OW91982   3.520   0.546   6.609  0.4691  0.8312 -0.7709
57997SOL    HW191983   3.443   0.510   6.652 -0.3147  1.1544 -1.8579
57997SOL    HW291984   3.535   0.489   6.535  0.8640  1.1656 -0.9497
57998SOL     OW91985   2.479  13.659  12.663  0.1758  0.9842 -0.4213
57998SOL    HW191986   2.571  13.633  12.661 -0.3092 -1.3278  1.9362
57998SOL    HW291987   2.457  13.665  12.756 -2.5823 -0.7175 -0.8523
57999SOL     OW91988   7.593   3.640   5.199  0.4357 -0.6601 -0.3024
57999SOL    HW191989   7.561   3.622   5.288  1.6013  0.4853  0.3868
57999SOL    HW291990   7.650   3.565   5.179 -0.9537 -1.6454 -0.6900
58000SOL     OW91991   0.517   5.548   3.471  0.5418  0.3581 -0.0024
58000SOL    HW191992   0.422   5.562   3.478  0.8894  1.9557  2.6170
58000SOL    HW291993   0.550   5.629   3.433  1.1431  1.2193  2.2258
58001SOL     OW91994  12.215   8.856  12.001 -0.8549  0.3120  0.2226
58001SOL    HW191995  12.263   8.935  11.977 -1.0774  0.5377  0.5035
58001SOL    HW291996  12.283   8.791  12.021 -0.6510  0.8356  1.2928
58002SOL     OW91997   5.823  11.408   6.115  0.8154 -0.0282  0.5561
58002SOL    HW191998   5.796  11.499   6.119 -0.5547 -0.3894  0.0904
58002SOL    HW291999   5.868  11.400   6.030 -1.1964 -0.2927 -0.5430
58003SOL     OW92000   7.618   6.409  11.775  0.0381  0.0419  0.0129
58003SOL    HW192001   7.676   6.334  11.785 -0.2452 -0.2155 -0.2120
58003SOL    HW292002   7.574   6.417  11.859 -0.3218 -0.3848 -0.1273
58004SOL     OW92003   2.619   3.177   7.323 -0.4968  0.1339  0.8213
58004SOL    HW192004   2.607   3.095   7.276  0.2268  0.1552  0.5886
58004SOL    HW292005   2.625   3.243   7.254  0.1554  0.2189  0.9536
58005SOL     OW92006   7.868   2.186   0.573  0.1698  0.2830  0.2602
58005SOL    HW192007   7.903   2.272   0.551 -1.8356  0.8415 -0.8807
58005SOL    HW292008   7.776   2.190   0.551  0.2346 -2.5527 -0.9427
58006SOL     OW92009   9.479   8.898  13.034  0.5710 -0.0502 -0.4527
58006SOL    HW192010   9.562   8.875  13.077  0.3376  2.4092  1.5017
58006SOL    HW292011   9.504   8.965  12.970  0.3099 -0.5743 -1.1078
58007SOL     OW92012  10.920   7.261  11.663  0.1327  0.1732 -0.0658
58007SOL    HW192013  10.884   7.243  11.750 -0.6697  2.0810  0.0516
58007SOL    HW292014  11.000   7.209  11.659  0.6367  0.6647  2.1590
58008SOL     OW92015   0.463   3.687  13.212 -0.3064 -0.0850 -0.9814
58008SOL    HW192016   0.388   3.747  13.207 -0.2644 -0.0714 -1.4318
58008SOL    HW292017   0.512   3.703  13.132 -0.8329 -1.4415 -1.6006
58009SOL     OW92018  13.194   4.909  12.498 -0.2238  0.3849 -0.7103
58009SOL    HW192019  13.146   4.833  12.466 -1.4377  1.2508 -1.0107
58009SOL    HW292020  13.135   4.983  12.484  1.1449  1.4825 -0.9699
58010SOL     OW92021   3.808  12.571   7.399 -0.1627 -0.6260  0.0770
58010SOL    HW192022   3.722  12.596   7.365  0.8105  0.9029 -1.4612
58010SOL    HW292023   3.833  12.495   7.346 -0.6017 -1.1566  0.6185
58011SOL     OW92024   4.367   1.833  10.634 -0.1702 -0.0601  0.3413
58011SOL    HW192025   4.394   1.741  10.633 -0.2001 -0.1092  1.7272
58011SOL    HW292026   4.283   1.832  10.681 -0.1521  0.6720  0.4003
58012SOL     OW92027   9.701   2.370   3.184 -0.0399  0.2758 -0.0169
58012SOL    HW192028   9.646   2.292   3.197  0.3647 -0.2658 -1.3859
58012SOL    HW292029   9.774   2.358   3.244 -0.5470  0.1603  0.5867
58013SOL     OW92030   4.909   9.931   1.412 -0.0661 -0.5298 -0.3865
58013SOL    HW192031   4.916   9.880   1.332  1.0265 -1.5381  0.3086
58013SOL    HW292032   4.963  10.009   1.396  1.2607 -1.3707 -0.1995
58014SOL     OW92033   9.377  13.041   7.257  0.3030 -0.3550  0.0141
58014SOL    HW192034   9.303  12.982   7.241 -0.1248  0.5054 -1.3832
58014SOL    HW292035   9.337  13.121   7.291  0.6487 -0.0933 -0.1887
58015SOL     OW92036   7.278   3.794   7.567  0.1553  0.6719 -0.2362
58015SOL    HW192037   7.215   3.732   7.529  0.3680 -0.0478  0.5495
58015SOL    HW292038   7.346   3.738   7.605  0.8598  1.4230 -0.3693
58016SOL     OW92039  13.637  13.104   0.423 -0.6067  0.1023 -0.5107
58016SOL    HW192040  13.622  13.101   0.328  1.2382 -0.5347 -0.8118
58016SOL    HW292041  13.618  13.015   0.453 -2.5245  0.6293 -0.0185
58017SOL     OW92042   7.929   8.838   2.920  0.3789 -0.2516  0.6419
58017SOL    HW192043   7.860   8.791   2.966  0.2896 -0.7099  0.0512
58017SOL    HW292044   7.989   8.770   2.892 -0.4583 -0.1917 -1.4342
58018SOL     OW92045   2.256  10.711   3.311  0.0397  0.4520  0.1497
58018SOL    HW192046   2.339  10.736   3.351  1.1740  1.1687 -2.4521
58018SOL    HW292047   2.281  10.670   3.228 -2.0466 -3.1820  1.0712
58019SOL     OW92048   0.310   0.135   0.298 -0.6621 -0.2594 -0.2361
58019SOL    HW192049   0.305   0.206   0.362 -1.6638 -0.5826  0.0636
58019SOL    HW292050   0.364   0.170   0.227 -2.5575  1.4897 -0.9227
58020SOL     OW92051  13.307   7.041  13.303 -0.3011  0.5381  0.0595
58020SOL    HW192052  13.259   7.072  13.226 -0.0983  0.1151 -0.2412
58020SOL    HW292053  13.268   6.956  13.324  0.2061  0.2626 -0.0930
58021SOL     OW92054  13.790   8.036   6.648  0.0980 -0.4801  0.2104
58021SOL    HW192055  13.705   8.047   6.689  0.5747 -0.9795  1.3932
58021SOL    HW292056  13.853   8.063   6.716  0.8699  1.9134 -1.3056
58022SOL     OW92057  13.987   7.850  13.561  0.7521  0.1309  0.8361
58022SOL    HW192058  13.946   7.920  13.510  0.1105 -0.6176  0.2994
58022SOL    HW292059  13.920   7.783  13.567  1.9524 -1.2046 -0.2021
58023SOL     OW92060   5.730   1.630   0.958 -0.4140  0.3854 -0.3124
58023SOL    HW192061   5.681   1.574   1.018 -2.8339 -0.0134 -2.4848
58023SOL    HW292062   5.774   1.568   0.899  0.3700  0.7873 -0.1704
58024SOL     OW92063   8.578  10.235   1.911 -0.1713 -0.5716 -0.0636
58024SOL    HW192064   8.516  10.162   1.910  1.2043 -1.8009  1.0278
58024SOL    HW292065   8.582  10.264   1.820 -1.1169 -1.5158 -0.4295
58025SOL     OW92066   3.353   1.063  10.593 -0.0760  0.5213 -0.0877
58025SOL    HW192067   3.296   1.116  10.649  0.3858  0.5210  0.4029
58025SOL    HW292068   3.408   1.015  10.655 -0.7079 -0.7889 -0.5297
58026SOL     OW92069   2.638   3.794  13.839 -0.1282 -0.3405  0.1448
58026SOL    HW192070   2.610   3.856  13.906  1.3476 -1.0178  1.4571
58026SOL    HW292071   2.577   3.721  13.846 -1.1312  0.3996 -0.5832
58027SOL     OW92072  13.956   2.834  12.035  0.4978  0.2182 -0.5610
58027SOL    HW192073  13.938   2.853  12.127 -0.0723  1.0698 -0.8397
58027SOL    HW292074  13.891   2.767  12.011  2.5395 -2.3071  0.4301
58028SOL     OW92075   3.205  12.783   0.495  0.6385 -0.2241  0.1143
58028SOL    HW192076   3.235  12.752   0.581  0.5896 -0.9342 -0.1185
58028SOL    HW292077   3.275  12.840   0.464  1.0803 -0.6994  0.2213
58029SOL     OW92078  11.189  10.891   8.801  0.0493 -0.3862 -0.2031
58029SOL    HW192079  11.244  10.928   8.731 -1.9893 -0.7132 -2.0798
58029SOL    HW292080  11.188  10.797   8.783 -0.9546 -0.4070 -0.0781
58030SOL     OW92081   2.212   7.418   1.012 -0.4074 -0.5707 -0.0698
58030SOL    HW192082   2.255   7.500   0.990  0.5186 -1.0355 -0.0106
58030SOL    HW292083   2.264   7.350   0.970 -0.9968 -1.1600  0.1202
58031SOL     OW92084   7.248  10.208   1.603  0.0109  0.1560 -0.1420
58031SOL    HW192085   7.208  10.170   1.681  0.8190 -0.8682 -0.2007
58031SOL    HW292086   7.177  10.254   1.559 -0.7236 -0.2619  0.5909
58032SOL     OW92087   9.521   2.588  12.165  0.0164 -0.8106  0.2292
58032SOL    HW192088   9.452   2.602  12.100 -0.0352 -1.7159  0.0772
58032SOL    HW292089   9.527   2.671  12.212 -0.3328 -0.3278 -0.5629
58033SOL     OW92090   0.540  11.885   3.775 -0.1675  0.1265 -0.1486
58033SOL    HW192091   0.619  11.867   3.827  0.5189  1.2932 -0.7724
58033SOL    HW292092   0.484  11.809   3.792  1.5128 -1.2771 -0.5472
58034SOL     OW92093  10.913  10.017   0.913  0.0719  0.3652 -0.2774
58034SOL    HW192094  10.826  10.001   0.877  0.3991 -1.9098 -0.2063
58034SOL    HW292095  10.970   9.956   0.866  1.6610  1.7578 -0.2984
58035SOL     OW92096  10.414   2.799  12.179 -0.1945  0.1528  0.3340
58035SOL    HW192097  10.329   2.764  12.204 -0.0456  0.8642  1.9547
58035SOL    HW292098  10.442   2.851  12.254  1.3792  0.4767 -0.4280
58036SOL     OW92099   1.234  11.581   5.376  0.2033  0.3019  0.0219
58036SOL    HW192100   1.300  11.569   5.445  0.2267  1.5142  0.2256
58036SOL    HW292101   1.269  11.652   5.321 -0.6620  0.5617 -0.2035
58037SOL     OW92102   3.266   5.246   8.810  0.3337 -0.5563 -0.2476
58037SOL    HW192103   3.275   5.323   8.754 -3.3735 -0.6774 -1.2785
58037SOL    HW292104   3.283   5.172   8.751  0.9240 -0.6313  0.0021
58038SOL     OW92105  11.397   6.674   3.981 -0.6292 -0.4648 -0.2823
58038SOL    HW192106  11.357   6.675   3.894 -1.6077  1.7191  0.1125
58038SOL    HW292107  11.325   6.696   4.040 -0.1787 -2.7694  1.2234
58039SOL     OW92108   9.829   8.345   1.391  0.6076  0.3916  1.1713
58039SOL    HW192109   9.785   8.311   1.313  2.0735 -0.9744  0.9051
58039SOL    HW292110   9.786   8.429   1.407 -1.5231 -0.4945  0.4595
58040SOL     OW92111  10.683   2.518   2.698  0.3259 -0.2801  0.1628
58040SOL    HW192112  10.711   2.559   2.780 -0.0928  1.2604 -0.4235
58040SOL    HW292113  10.676   2.425   2.719  0.2862  0.0695  1.8556
58041SOL     OW92114   9.913   0.643  13.928  0.4692  0.0090  0.2371
58041SOL    HW192115   9.818   0.636  13.912  0.4521 -1.2973  0.7639
58041SOL    HW292116   9.919   0.676  14.018  0.5424  1.1267 -0.1573
58042SOL     OW92117  11.268   4.132   1.704 -0.6657 -0.1914 -0.1291
58042SOL    HW192118  11.364   4.135   1.705 -0.6651  0.1084  1.3639
58042SOL    HW292119  11.243   4.209   1.652 -0.0964  2.0537  2.6612
58043SOL     OW92120  13.648  14.014  11.103  0.1417  0.2243 -0.0521
58043SOL    HW192121  13.629  13.928  11.065  0.1800  0.0810  0.2491
58043SOL    HW292122  13.666  13.996  11.195  1.9379  0.3170 -0.3452
58044SOL     OW92123  11.523   8.226   6.990  0.4417  0.2422 -0.0211
58044SOL    HW192124  11.545   8.270   6.908 -0.7271  0.6102 -0.1548
58044SOL    HW292125  11.606   8.223   7.039  0.6755  2.1538 -0.2173
58045SOL     OW92126   0.074   9.131  13.178  0.3230 -0.6540  0.3733
58045SOL    HW192127   0.095   9.185  13.102 -0.5472 -0.7215  0.0707
58045SOL    HW292128   0.000   9.176  13.220 -0.6201 -1.7354 -0.0501
58046SOL     OW92129   7.102   1.558   4.682  0.0402  0.2027 -0.2504
58046SOL    HW192130   7.175   1.561   4.620  0.8700 -0.3165  0.6737
58046SOL    HW292131   7.114   1.476   4.729 -2.2604 -0.8622 -1.3740
58047SOL     OW92132   2.041   5.790  12.436  0.1724  0.2531  0.0174
58047SOL    HW192133   2.000   5.824  12.515 -0.3522  0.8798 -0.5101
58047SOL    HW292134   1.983   5.719  12.408  0.1585  0.2711 -0.0002
58048SOL     OW92135   5.883  10.815   6.546  0.6673 -0.0669 -0.0821
58048SOL    HW192136   5.817  10.747   6.565  1.5021 -0.6317  0.9353
58048SOL    HW292137   5.844  10.896   6.579 -0.8241  0.2043 -2.3283
58049SOL     OW92138   9.120   5.173  13.802  0.2798 -0.6240  0.5125
58049SOL    HW192139   9.070   5.099  13.835 -0.0404 -0.4294  0.4760
58049SOL    HW292140   9.096   5.179  13.709  2.0393 -1.8682 -0.0649
58050SOL     OW92141  10.080   5.296  10.516  0.0336 -0.4805 -0.3229
58050SOL    HW192142  10.168   5.261  10.521  0.2074 -0.3801 -2.0519
58050SOL    HW292143  10.084   5.379  10.564  0.6749 -0.8415  0.2530
58051SOL     OW92144   5.672   9.787  11.881  0.0675 -0.1244  0.7871
58051SOL    HW192145   5.682   9.852  11.951 -0.3741  0.2322  0.5254
58051SOL    HW292146   5.762   9.772  11.850  0.2901 -0.4265  1.5467
58052SOL     OW92147   5.913   5.642  11.398 -0.4353 -0.4333 -0.3671
58052SOL    HW192148   5.895   5.671  11.309  0.2761  0.7133 -0.1465
58052SOL    HW292149   5.998   5.598  11.393 -0.4437 -0.4606 -0.2773
58053SOL     OW92150  13.029   8.649  12.302  0.0097 -0.1734 -0.0349
58053SOL    HW192151  12.943   8.677  12.333  1.6430  1.1319  4.0412
58053SOL    HW292152  13.086   8.725  12.319  2.3895 -1.7920 -0.3037
58054SOL     OW92153   6.894  11.368   1.503 -0.0434 -0.0424 -0.7018
58054SOL    HW192154   6.844  11.373   1.585 -0.8141  0.4029 -1.1890
58054SOL    HW292155   6.941  11.285   1.508  1.2872  0.7323  0.9657
58055SOL     OW92156  12.248   4.896   6.530  0.0552  0.3102  0.1413
58055SOL    HW192157  12.260   4.805   6.504  1.0895  0.3033  0.5974
58055SOL    HW292158  12.166   4.896   6.581  0.0815 -0.3736  0.1889
58056SOL     OW92159   1.477  10.873   6.119 -0.0029 -0.4551 -0.1207
58056SOL    HW192160   1.497  10.862   6.026  2.3048 -0.4115  0.3156
58056SOL    HW292161   1.404  10.935   6.120 -0.4915 -0.9371 -1.9076
58057SOL     OW92162   8.363   7.376   2.185 -0.2002 -0.1407 -0.1883
58057SOL    HW192163   8.399   7.411   2.104 -2.0346 -0.7810 -1.3277
58057SOL    HW292164   8.312   7.300   2.159 -0.5519 -0.5889  1.6239
58058SOL     OW92165  10.232   9.628  10.401  0.0486  0.4119 -0.2811
58058SOL    HW192166  10.268   9.704  10.353  0.2373  0.4126 -0.1398
58058SOL    HW292167  10.297   9.610  10.469  0.9852 -1.0821 -1.4909
58059SOL     OW92168  13.744   3.239   5.226  0.2459  0.8230  0.2665
58059SOL    HW192169  13.780   3.326   5.242  1.3156  0.3048  0.7878
58059SOL    HW292170  13.773   3.217   5.138  1.3722  0.3470  0.7392
58060SOL     OW92171   6.306   1.600   2.059  0.1324 -0.0220  0.7653
58060SOL    HW192172   6.372   1.668   2.062 -1.4489  1.7465 -1.3916
58060SOL    HW292173   6.351   1.525   2.020  1.0450  0.9309 -0.0841
58061SOL     OW92174  13.851   9.340   4.993 -0.0238 -0.3746 -0.3235
58061SOL    HW192175  13.767   9.300   4.974 -0.4404 -0.1375  0.9536
58061SOL    HW292176  13.847   9.426   4.951 -2.2244  1.5101  3.2335
58062SOL     OW92177   6.809   6.998  11.001 -0.3474  0.1775  0.2481
58062SOL    HW192178   6.878   7.063  11.014  0.7907 -0.6007 -1.6044
58062SOL    HW292179   6.735   7.049  10.966  0.5366  0.5155 -1.2186
58063SOL     OW92180   4.310   4.567   9.370  0.0500 -0.4741 -0.1318
58063SOL    HW192181   4.308   4.662   9.377 -2.5154 -0.5603  2.2441
58063SOL    HW292182   4.366   4.539   9.442 -1.5329 -0.7525  1.0500
58064SOL     OW92183   4.999   2.861   0.756  0.1962 -0.1008  0.0936
58064SOL    HW192184   4.963   2.936   0.709 -0.2706 -1.4106 -1.7452
58064SOL    HW292185   4.939   2.848   0.830 -0.1596  0.8344 -0.0173
58065SOL     OW92186  12.952  11.499  13.164 -0.6246 -0.2415 -0.3938
58065SOL    HW192187  12.864  11.530  13.181 -0.2300 -0.0868  1.6504
58065SOL    HW292188  12.946  11.452  13.081 -2.4322  0.4593 -0.6907
58066SOL     OW92189   9.140   3.846  13.440 -0.4428  0.0597 -0.0461
58066SOL    HW192190   9.143   3.785  13.366 -0.1428  0.5568 -0.4520
58066SOL    HW292191   9.157   3.932  13.401 -1.3032  0.4698  0.4458
58067SOL     OW92192   9.610  10.548  11.156  0.5779 -0.0950  0.1917
58067SOL    HW192193   9.545  10.617  11.147  3.3202  2.4387 -2.3338
58067SOL    HW292194   9.685  10.591  11.198  1.7213 -2.0697  0.2866
58068SOL     OW92195   0.049  11.065   9.476 -0.0480  0.6617  0.6969
58068SOL    HW192196   0.014  10.978   9.456  1.3490  0.6940 -2.4298
58068SOL    HW292197   0.131  11.048   9.521  0.2571  0.3151  0.0307
58069SOL     OW92198  12.960  13.936  13.815  0.4559 -0.8171  0.3591
58069SOL    HW192199  12.869  13.913  13.831  0.0263  1.1698  1.0970
58069SOL    HW292200  12.960  13.974  13.727  0.0007  1.6303  1.3439
58070SOL     OW92201   1.346   5.218  14.155 -0.4743 -0.5843 -0.4504
58070SOL    HW192202   1.431   5.185  14.182  0.2674  0.3098 -1.5813
58070SOL    HW292203   1.287   5.196  14.227  1.4307  2.0266  2.0881
58071SOL     OW92204   0.010   0.282  11.558 -0.3261  0.4830  0.2571
58071SOL    HW192205   0.027   0.237  11.641 -2.0451  0.8961  0.8891
58071SOL    HW292206  -0.082   0.309  11.564 -0.8656 -0.4903 -2.2706
58072SOL     OW92207  13.978   6.393   9.389 -0.5173 -0.0004  0.0509
58072SOL    HW192208  13.896   6.423   9.427 -0.8192  1.2083 -1.4367
58072SOL    HW292209  14.029   6.360   9.463 -1.2534  1.7495  1.3965
58073SOL     OW92210   1.271   9.260   1.081 -0.2400 -0.5094 -0.1045
58073SOL    HW192211   1.357   9.297   1.060  0.1242 -1.2093  0.1238
58073SOL    HW292212   1.284   9.165   1.078 -1.0863 -0.6274 -0.3889
58074SOL     OW92213   8.043  13.335  12.112 -0.5078 -0.1279 -0.0332
58074SOL    HW192214   8.013  13.421  12.144  0.5310  0.2428 -0.0090
58074SOL    HW292215   7.986  13.272  12.156 -1.5373  0.5630 -0.3466
58075SOL     OW92216   1.624   5.815   0.183  0.1654 -0.5301  0.2584
58075SOL    HW192217   1.687   5.787   0.116 -0.5903 -0.8872 -0.3159
58075SOL    HW292218   1.678   5.853   0.252  1.2254 -2.7524  0.7720
58076SOL     OW92219  11.241  11.334   6.571  0.1828 -0.3869  0.0685
58076SOL    HW192220  11.182  11.261   6.555 -2.4825  1.4023  1.0951
58076SOL    HW292221  11.233  11.352   6.664  1.3519  0.7691 -0.0249
58077SOL     OW92222  14.071  10.787  12.577 -0.1570 -0.0437 -0.6510
58077SOL    HW192223  14.044  10.870  12.537 -0.1096  0.1562 -0.2734
58077SOL    HW292224  14.019  10.782  12.657  0.7413  0.2230 -0.0434
58078SOL     OW92225   4.034   0.891   4.117 -0.1483  0.0421 -0.5000
58078SOL    HW192226   3.974   0.908   4.190  0.7332  1.2397 -0.0103
58078SOL    HW292227   3.979   0.851   4.049 -1.0413 -0.8968  0.7136
58079SOL     OW92228   2.575   1.367   7.727 -0.4195  0.0182  0.3939
58079SOL    HW192229   2.550   1.286   7.771 -0.1925  0.1719  0.8041
58079SOL    HW292230   2.663   1.386   7.759 -0.0253 -0.1678 -0.5558
58080SOL     OW92231   5.940  13.315   7.478 -0.1829 -0.2933  0.7802
58080SOL    HW192232   5.884  13.268   7.539  1.0284 -0.3619  1.8911
58080SOL    HW292233   6.020  13.263   7.474  0.1414  0.2401 -0.1080
58081SOL     OW92234  10.612  11.919   2.975 -0.2751  0.5363  0.1335
58081SOL    HW192235  10.654  11.987   2.922  0.7924 -0.3860 -0.2485
58081SOL    HW292236  10.521  11.918   2.945  0.3184 -0.0363 -1.7996
58082SOL     OW92237   7.473   2.540   0.570 -0.4489  0.1886  0.1085
58082SOL    HW192238   7.522   2.503   0.497  1.2437  1.2590  0.6248
58082SOL    HW292239   7.387   2.500   0.565  0.2404 -1.1987 -1.3238
58083SOL     OW92240   7.151   8.620  10.448  0.1437  0.4307  0.1754
58083SOL    HW192241   7.071   8.665  10.418 -1.4222 -0.5920  2.5025
58083SOL    HW292242   7.144   8.621  10.544  2.2734 -0.9043  0.4049
58084SOL     OW92243   8.009   1.564   7.482  0.0163 -0.2918  0.0921
58084SOL    HW192244   7.922   1.559   7.521  0.4053 -1.2022  0.8868
58084SOL    HW292245   7.995   1.603   7.396 -1.4982 -2.5297 -0.7581
58085SOL     OW92246  13.189   5.014  12.980 -0.3295 -0.3497  0.3034
58085SOL    HW192247  13.199   4.918  12.976 -1.6391 -0.4381 -1.5854
58085SOL    HW292248  13.104   5.031  12.941  1.3447  1.8366 -2.7702
58086SOL     OW92249  12.698   3.410   6.386 -1.0205 -0.1090 -0.4206
58086SOL    HW192250  12.732   3.499   6.398 -1.8978  0.2392 -0.4665
58086SOL    HW292251  12.766   3.366   6.336  0.5961 -0.2302  1.7408
58087SOL     OW92252   7.790   4.219   6.838 -0.0288 -0.1845  0.4120
58087SOL    HW192253   7.719   4.182   6.890 -3.7292  3.2247 -1.5795
58087SOL    HW292254   7.792   4.165   6.759 -0.2265 -0.4389  0.5790
58088SOL     OW92255  10.809  10.243   6.798  0.0078 -0.3747 -0.2342
58088SOL    HW192256  10.901  10.268   6.801 -0.2363  0.9282 -1.9171
58088SOL    HW292257  10.765  10.302   6.859 -0.1291  1.3777 -1.9249
58089SOL     OW92258   9.278   1.317   4.009 -0.7164  0.0134 -0.0086
58089SOL    HW192259   9.271   1.236   3.959  1.1202 -0.3801  0.2942
58089SOL    HW292260   9.360   1.308   4.058 -2.1100  0.6534  2.6224
58090SOL     OW92261  11.884   2.527  12.940 -0.5107 -0.0033  0.4868
58090SOL    HW192262  11.856   2.597  12.880  0.2641 -0.3449 -0.2911
58090SOL    HW292263  11.831   2.452  12.916 -1.3352  0.2894  1.3155
58091SOL     OW92264   7.300   2.091   4.431  0.2310  0.5914 -0.3803
58091SOL    HW192265   7.266   2.107   4.344  1.6966 -3.3710 -1.9100
58091SOL    HW292266   7.308   2.178   4.471 -2.3097  2.3857 -3.3998
58092SOL     OW92267  10.420   2.295  11.343  0.0113 -0.1373 -0.4507
58092SOL    HW192268  10.428   2.390  11.340 -0.4738 -0.1154 -3.3081
58092SOL    HW292269  10.349   2.274  11.282  0.1539 -2.3669  0.0350
58093SOL     OW92270   9.430   4.545   9.061 -0.1475  0.3543  0.0085
58093SOL    HW192271   9.501   4.586   9.111 -0.4443  0.4489  0.3562
58093SOL    HW292272   9.374   4.618   9.035  0.4300  0.4052 -1.1675
58094SOL     OW92273   2.477   1.756  14.155  0.3324 -0.1775 -0.4811
58094SOL    HW192274   2.540   1.706  14.104  0.0505 -1.1660  0.1042
58094SOL    HW292275   2.527   1.831  14.188  0.6824  0.1173 -1.6314
58095SOL     OW92276  13.783   0.763   8.005  0.4049  0.2108 -0.4725
58095SOL    HW192277  13.806   0.786   7.915 -0.6891  0.8782 -0.6004
58095SOL    HW292278  13.706   0.817   8.024  0.2282 -0.4127  0.6376
58096SOL     OW92279   2.162  12.467  11.262 -0.5391  0.7702 -0.0825
58096SOL    HW192280   2.070  12.491  11.258 -0.5442  0.7192 -0.3247
58096SOL    HW292281   2.166  12.381  11.220 -0.1230  1.5628 -1.7669
58097SOL     OW92282   8.351  13.036   1.181  0.1041 -0.3135  0.0976
58097SOL    HW192283   8.310  12.951   1.198  0.5641 -0.7557 -0.9201
58097SOL    HW292284   8.419  13.017   1.116 -0.1860  0.9224 -0.5973
58098SOL     OW92285   4.962   2.377   9.572 -0.6510 -0.3231 -0.0311
58098SOL    HW192286   5.057   2.366   9.561 -0.4820  0.0738  0.9071
58098SOL    HW292287   4.953   2.451   9.631 -1.5475 -0.5219  0.1001
58099SOL     OW92288   7.558   5.642   9.645  0.6651  0.0355  0.2962
58099SOL    HW192289   7.637   5.696   9.644  1.0403 -0.5122  0.0470
58099SOL    HW292290   7.591   5.552   9.648  0.0717 -0.2673 -1.4045
58100SOL     OW92291   9.715   9.162   1.651  0.0148 -0.2555 -0.3797
58100SOL    HW192292   9.685   9.238   1.602  1.5606  0.2040 -0.6829
58100SOL    HW292293   9.700   9.185   1.743 -1.1586 -0.3460 -0.5336
58101SOL     OW92294   0.067  11.931   6.939 -0.8267  0.9235 -0.1338
58101SOL    HW192295   0.130  11.979   6.992  1.3650 -0.7003 -1.0974
58101SOL    HW292296   0.015  11.882   7.003  0.5359  0.4268  0.6503
58102SOL     OW92297   0.942  13.418   6.557 -0.3666  0.2567 -0.1247
58102SOL    HW192298   0.889  13.418   6.637 -1.2401  0.3161 -0.6860
58102SOL    HW292299   0.910  13.494   6.508  0.7030  0.6822 -0.1848
58103SOL     OW92300   2.055   6.421   8.673 -0.1846  0.6873 -0.3435
58103SOL    HW192301   2.011   6.442   8.591 -0.7134  0.2998 -0.1622
58103SOL    HW292302   2.003   6.351   8.711  1.6560 -1.1664 -1.0496
58104SOL     OW92303  10.538   2.083   2.296 -0.5508 -0.5308 -0.2473
58104SOL    HW192304  10.622   2.063   2.256  0.7085  1.1196  1.3646
58104SOL    HW292305  10.488   2.125   2.227 -0.2238 -1.8794 -1.3379
58105SOL     OW92306   6.205  12.251   7.442  0.1013 -0.3721 -0.1373
58105SOL    HW192307   6.260  12.179   7.474  1.6421  0.6404 -0.3785
58105SOL    HW292308   6.167  12.217   7.361  0.1553 -1.2065  0.1794
58106SOL     OW92309   4.201   2.303  11.096  0.4266 -0.5258 -0.4607
58106SOL    HW192310   4.234   2.219  11.128 -1.1649 -0.5387  1.3437
58106SOL    HW292311   4.118   2.281  11.052  1.2639 -0.1687 -2.3039
58107SOL     OW92312  10.258   9.790  14.047 -0.2595 -0.3624 -0.0597
58107SOL    HW192313  10.213   9.845  14.111 -0.1243  1.4295 -1.4310
58107SOL    HW292314  10.188   9.738  14.008 -1.3693  2.5711 -2.3543
58108SOL     OW92315  11.627   9.670   5.897 -0.2534  0.0743  0.5879
58108SOL    HW192316  11.668   9.603   5.842  0.5516 -0.4788  1.8441
58108SOL    HW292317  11.535   9.642   5.904 -0.4271  0.2649 -0.6102
58109SOL     OW92318   5.666  10.447  11.646  0.7918  0.3791  0.0081
58109SOL    HW192319   5.736  10.382  11.643  1.2590  0.8626  0.1856
58109SOL    HW292320   5.590  10.402  11.609  1.0574 -0.3176  0.2880
58110SOL     OW92321   9.222   7.893  10.348 -0.1169 -0.1070 -1.0063
58110SOL    HW192322   9.186   7.982  10.349 -0.7758 -0.3274  1.1807
58110SOL    HW292323   9.263   7.883  10.434 -0.1949 -1.9648 -1.1390
58111SOL     OW92324   2.732   2.916   5.975  0.4966  0.0205 -0.4379
58111SOL    HW192325   2.734   2.875   6.062 -1.6193  0.1659 -0.2773
58111SOL    HW292326   2.738   3.010   5.993  2.2000 -0.0200 -0.6200
58112SOL     OW92327   9.358   8.321   0.588  0.3323  0.3769 -0.0213
58112SOL    HW192328   9.329   8.352   0.674 -2.6489 -1.9317  0.0065
58112SOL    HW292329   9.306   8.371   0.526  0.0060 -0.2537 -0.2694
58113SOL     OW92330   8.426  13.468   8.945 -0.1254  0.0584 -0.2186
58113SOL    HW192331   8.518  13.446   8.931 -0.3382 -0.5247 -0.7140
58113SOL    HW292332   8.399  13.414   9.020  0.1972  0.9631  0.5698
58114SOL     OW92333   2.591   5.550  12.677  0.4354 -0.1332  0.3578
58114SOL    HW192334   2.546   5.470  12.705 -1.0802  0.4815 -0.2143
58114SOL    HW292335   2.533   5.620  12.705 -0.6502  0.5837 -3.2742
58115SOL     OW92336   3.463   7.122   2.594  0.1107  0.2601  0.0738
58115SOL    HW192337   3.443   7.054   2.530  1.5678 -0.7092  0.6045
58115SOL    HW292338   3.532   7.175   2.552  0.3162  0.2620  0.4103
58116SOL     OW92339   2.951  12.398   3.461 -0.3806 -0.0211 -0.1972
58116SOL    HW192340   2.875  12.448   3.487 -0.1125 -0.4372  1.4879
58116SOL    HW292341   2.948  12.319   3.515 -0.5460 -1.6668 -2.4253
58117SOL     OW92342   2.695   7.759   3.762  0.4485 -0.0588 -0.9527
58117SOL    HW192343   2.696   7.669   3.730  1.2403 -1.5193  2.7149
58117SOL    HW292344   2.620   7.763   3.821  1.1248  1.3072 -0.1150
58118SOL     OW92345  13.345  12.162   5.660  0.3207 -0.1636  0.3826
58118SOL    HW192346  13.331  12.248   5.700 -1.2968 -0.9879  1.7160
58118SOL    HW292347  13.284  12.159   5.586  0.6657 -0.0173  0.0908
58119SOL     OW92348   0.458   5.753   5.948 -0.1118 -0.4528  0.0700
58119SOL    HW192349   0.539   5.725   5.990  0.1635 -2.2571 -1.5722
58119SOL    HW292350   0.465   5.849   5.944  0.7962 -0.3767  2.1303
58120SOL     OW92351   8.595  11.520  10.728 -0.1400 -0.0658  0.2811
58120SOL    HW192352   8.611  11.474  10.646 -0.7905 -0.2576  0.2570
58120SOL    HW292353   8.542  11.460  10.780  2.2597 -0.9779  1.8449
58121SOL     OW92354   7.220   2.254   9.083  0.1581  0.2283  0.3446
58121SOL    HW192355   7.234   2.187   9.017  0.6645  0.6143  0.0594
58121SOL    HW292356   7.140   2.226   9.129 -0.0741 -0.1512 -0.2836
58122SOL     OW92357   8.782   5.911   1.996 -0.5241 -0.1152 -0.1627
58122SOL    HW192358   8.729   5.841   1.957 -0.6470 -0.6633  0.9378
58122SOL    HW292359   8.850   5.865   2.045 -0.1094  0.5595 -0.0964
58123SOL     OW92360  11.897   8.563   8.049  0.3676 -0.2335 -0.5772
58123SOL    HW192361  11.915   8.657   8.048  0.4442 -0.2145  0.7621
58123SOL    HW292362  11.802   8.556   8.057  0.3927 -0.2564 -0.2672
58124SOL     OW92363   4.853   9.614   7.754  0.2749 -0.5862 -0.2087
58124SOL    HW192364   4.885   9.688   7.807  1.7233 -1.2015 -0.1712
58124SOL    HW292365   4.886   9.632   7.666 -1.5196  0.0664 -0.7871
58125SOL     OW92366   7.324   6.505  12.223  0.6592 -0.0336 -0.1656
58125SOL    HW192367   7.318   6.599  12.240  0.0474  0.4019 -2.4451
58125SOL    HW292368   7.237   6.472  12.244 -0.0439  0.4674 -2.1232
58126SOL     OW92369   8.742   8.890   6.772  0.2076  0.1944 -0.0618
58126SOL    HW192370   8.732   8.985   6.770  3.9449  0.7699  0.1500
58126SOL    HW292371   8.736   8.863   6.680 -2.6454  0.2754  0.0309
58127SOL     OW92372   0.734   5.039   9.226  0.5118 -0.0900  0.7286
58127SOL    HW192373   0.820   4.998   9.231  0.0554 -1.1484  0.1516
58127SOL    HW292374   0.673   4.967   9.206 -0.1112  1.0182 -1.9372
58128SOL     OW92375  10.829  13.465  14.098 -0.3992 -0.3806 -0.3697
58128SOL    HW192376  10.912  13.422  14.080  1.8704  3.5081 -0.3421
58128SOL    HW292377  10.822  13.465  14.194  0.5340  0.7803 -0.2803
58129SOL     OW92378   3.168  10.097  10.678 -0.4719  0.4129 -0.3740
58129SOL    HW192379   3.186  10.009  10.709  2.8833  0.5133 -1.6398
58129SOL    HW292380   3.096  10.128  10.733 -0.3650 -2.3479  1.4759
58130SOL     OW92381   6.030   4.390  11.711  0.4508  0.3274 -0.8224
58130SOL    HW192382   6.069   4.305  11.692 -1.4756 -0.7499 -0.2723
58130SOL    HW292383   5.955   4.396  11.652 -0.6139  0.7168  0.5142
58131SOL     OW92384   3.493   4.791  11.385  0.0688  0.5505  0.1437
58131SOL    HW192385   3.430   4.827  11.448 -2.1805  0.4977 -1.9526
58131SOL    HW292386   3.459   4.704  11.363  1.4568  0.0896 -0.2830
58132SOL     OW92387   1.125   2.439   0.507 -0.5340  0.0615 -0.2345
58132SOL    HW192388   1.206   2.390   0.496 -0.6794  0.0390 -1.3697
58132SOL    HW292389   1.153   2.527   0.531 -0.2241 -0.2529  0.5629
58133SOL     OW92390  12.354  11.494   1.171  0.3731  0.8536 -0.2958
58133SOL    HW192391  12.429  11.455   1.126 -0.5227 -0.4986 -0.6859
58133SOL    HW292392  12.300  11.530   1.101  0.1018  0.8142 -0.1089
58134SOL     OW92393  11.162  10.128   1.869  0.2432 -0.1973 -0.3224
58134SOL    HW192394  11.250  10.103   1.895  0.1823  0.9181  1.0805
58134SOL    HW292395  11.147  10.213   1.911 -1.9401 -0.9046  0.5048
58135SOL     OW92396   9.561   3.763  13.590 -0.0597 -0.6945 -0.0471
58135SOL    HW192397   9.573   3.850  13.551  0.1923 -0.8333 -0.2864
58135SOL    HW292398   9.477   3.733  13.555  0.0024 -0.6767 -0.2132
58136SOL     OW92399   2.558  12.235  14.074 -0.0420 -0.5243  0.0506
58136SOL    HW192400   2.493  12.165  14.072  0.2055 -0.7573  0.1437
58136SOL    HW292401   2.636  12.195  14.112 -0.3275  0.1565  1.4592
58137SOL     OW92402   4.998   4.699  14.146 -0.1689 -0.4335 -0.0568
58137SOL    HW192403   5.071   4.656  14.101  0.8866  0.4139  0.7840
58137SOL    HW292404   4.962   4.759  14.080  1.4550  0.9024  0.2006
58138SOL     OW92405   9.464   6.882   6.564 -0.0252  0.5250 -0.0078
58138SOL    HW192406   9.408   6.959   6.572 -0.7277  0.0619 -0.3172
58138SOL    HW292407   9.430   6.835   6.488  0.0262 -0.3840  0.5122
58139SOL     OW92408   3.182   9.450   2.742  0.1318 -0.3066 -0.0235
58139SOL    HW192409   3.093   9.470   2.711  0.3797  1.4357  0.3070
58139SOL    HW292410   3.193   9.505   2.819  1.2830 -1.0101  0.3364
58140SOL     OW92411   7.714  11.719   2.239  0.9364 -0.1008 -0.3134
58140SOL    HW192412   7.631  11.673   2.249  0.3384  0.5424 -1.9094
58140SOL    HW292413   7.691  11.801   2.196  2.0848  1.3351  1.6490
58141SOL     OW92414  13.246   6.687  10.422  0.3690  0.4720  1.0547
58141SOL    HW192415  13.259   6.763  10.479 -0.0954  0.6664  0.9111
58141SOL    HW292416  13.333   6.648  10.414  0.6908  1.2046  0.8319
58142SOL     OW92417   3.074   0.597  13.184 -0.0071 -0.5373 -0.5723
58142SOL    HW192418   2.999   0.542  13.207 -0.1823  0.3773  1.1474
58142SOL    HW292419   3.125   0.542  13.123 -0.9644 -1.9929 -0.1218
58143SOL     OW92420  10.960   2.737   4.734  0.4680 -0.3695  0.1713
58143SOL    HW192421  10.891   2.713   4.795  1.0836  0.6125  1.3006
58143SOL    HW292422  10.920   2.731   4.648 -1.8349  2.6287  0.8835
58144SOL     OW92423  14.012   8.212   7.657  0.2929 -0.1463 -0.3241
58144SOL    HW192424  14.090   8.198   7.710  1.2497  0.9366 -1.3963
58144SOL    HW292425  13.942   8.228   7.721  2.1623  5.3034  0.8151
58145SOL     OW92426   3.982  10.270   4.210 -0.2038  0.5346  0.6129
58145SOL    HW192427   4.049  10.310   4.265 -1.7640  0.9291  2.3089
58145SOL    HW292428   3.904  10.265   4.266 -1.3469 -0.7314 -0.9984
58146SOL     OW92429  10.084   6.771   5.358 -0.5599 -0.6902 -0.0229
58146SOL    HW192430  10.099   6.853   5.406  0.0837 -0.6691 -0.2619
58146SOL    HW292431  10.052   6.799   5.272 -0.9192 -0.7095  0.1009
58147SOL     OW92432  11.031   2.984   5.248  0.8278  0.9872  0.5426
58147SOL    HW192433  11.120   3.019   5.247  0.6864  1.3550 -1.1153
58147SOL    HW292434  10.974   3.061   5.251  0.5497  0.7787  0.7101
58148SOL     OW92435  11.199  12.395   6.490 -0.2863  0.5958  0.3718
58148SOL    HW192436  11.269  12.341   6.526  0.8294  1.2728 -0.7193
58148SOL    HW292437  11.191  12.469   6.552  0.3177  0.7798  0.2319
58149SOL     OW92438  10.175  13.980   1.395 -0.0479 -0.8073 -0.1781
58149SOL    HW192439  10.230  13.929   1.336  1.1739  2.5287 -2.2198
58149SOL    HW292440  10.086  13.969   1.362  0.0047 -2.4082  0.1360
58150SOL     OW92441   8.370  12.833   4.264  0.5440  0.3399  1.0495
58150SOL    HW192442   8.437  12.899   4.283  0.1679  0.7906  0.8430
58150SOL    HW292443   8.344  12.800   4.349  1.4463 -0.2638  1.0989
58151SOL     OW92444   6.393  11.762   1.993  1.0239  0.1192  0.0127
58151SOL    HW192445   6.324  11.710   2.033  1.3277  0.5583  1.1492
58151SOL    HW292446   6.400  11.729   1.903 -1.7480  1.1552 -0.6608
58152SOL     OW92447  11.161   8.757   6.465  0.1369 -0.0394 -0.0362
58152SOL    HW192448  11.114   8.685   6.422  0.5408 -0.9188  0.9401
58152SOL    HW292449  11.113   8.772   6.546  1.9236 -1.5340  1.4046
58153SOL     OW92450  13.474   7.357   5.841 -0.1995 -0.6530  0.4001
58153SOL    HW192451  13.472   7.447   5.808 -0.6747 -0.3632  1.1987
58153SOL    HW292452  13.384   7.339   5.866  0.2716 -0.5644  2.3161
58154SOL     OW92453   2.169  11.260  10.040  0.0627  0.0048 -0.2272
58154SOL    HW192454   2.091  11.211  10.013 -0.5052  0.6727  0.1820
58154SOL    HW292455   2.233  11.241   9.971 -1.8545  2.9720 -3.1045
58155SOL     OW92456   5.965  12.959   7.206  0.0546 -0.4175  0.2009
58155SOL    HW192457   6.031  12.899   7.239  0.5480  0.0003 -0.0092
58155SOL    HW292458   6.013  13.039   7.186 -0.0557 -0.8873 -2.2675
58156SOL     OW92459  13.110   4.475  13.983  0.3998 -0.6656 -0.6366
58156SOL    HW192460  13.123   4.420  13.905  0.8278  0.6301 -1.5191
58156SOL    HW292461  13.066   4.553  13.949  0.5711 -0.0933  0.4327
58157SOL     OW92462   3.020   2.384   2.212  0.6033 -0.3646 -0.2943
58157SOL    HW192463   3.069   2.397   2.293 -0.1330 -0.7700  0.2328
58157SOL    HW292464   3.068   2.315   2.166  1.7720  0.7640 -0.8448
58158SOL     OW92465   7.121   8.623   7.283  0.7106  0.6196  0.1001
58158SOL    HW192466   7.206   8.638   7.242  1.0836  0.0333  0.6519
58158SOL    HW292467   7.105   8.703   7.333  0.8721  0.7847 -0.1076
58159SOL     OW92468   8.403   0.476  12.220 -0.2053  0.5183  0.3417
58159SOL    HW192469   8.403   0.567  12.190 -2.2953  1.5652  3.1460
58159SOL    HW292470   8.492   0.462  12.251  0.6267  0.9640 -1.6231
58160SOL     OW92471   7.220   0.344  13.253  0.8629  0.0810  0.1186
58160SOL    HW192472   7.166   0.269  13.228 -0.4936  1.0925 -0.0953
58160SOL    HW292473   7.254   0.377  13.170 -1.3771  1.7498 -0.2399
58161SOL     OW92474   1.835   7.705  13.675  0.0511 -0.1725  0.3560
58161SOL    HW192475   1.771   7.717  13.605 -0.7952 -0.1384  1.1188
58161SOL    HW292476   1.785   7.665  13.746  0.7877  0.2296  1.1118
58162SOL     OW92477   2.941   7.700   9.744  0.2135  0.3457 -0.4771
58162SOL    HW192478   2.952   7.606   9.733 -1.4213 -0.0177  0.5982
58162SOL    HW292479   3.010   7.725   9.806 -0.7332 -0.6187  1.0617
58163SOL     OW92480   3.380   9.636  13.682  0.0251 -1.3172 -0.4364
58163SOL    HW192481   3.405   9.545  13.697  0.0367 -1.2236  0.1081
58163SOL    HW292482   3.306   9.651  13.741 -0.7771 -1.3341 -1.4053
58164SOL     OW92483   9.871   0.058   4.245 -0.2360 -0.0992 -0.5226
58164SOL    HW192484   9.880   0.056   4.150  1.9941 -0.6045 -0.3451
58164SOL    HW292485   9.778   0.079   4.260 -0.0986  2.8439 -2.7844
58165SOL     OW92486   1.473   0.184   4.847  0.5738 -0.2937 -0.1466
58165SOL    HW192487   1.497   0.208   4.758  4.8478  1.1566  1.1131
58165SOL    HW292488   1.454   0.267   4.890  0.5973 -0.7369  0.7460
58166SOL     OW92489  12.431   5.225  13.863  0.3305  0.3086  0.3768
58166SOL    HW192490  12.502   5.265  13.812  1.4290  0.3795  1.8716
58166SOL    HW292491  12.360   5.212  13.801  0.7182  2.5926 -0.6396
58167SOL     OW92492   0.161   6.996   9.847  0.1978  0.0120 -0.0721
58167SOL    HW192493   0.194   6.969   9.761  0.8354  0.2087  0.0993
58167SOL    HW292494   0.079   6.949   9.858  0.3279 -0.3456 -0.6073
58168SOL     OW92495   8.773   3.980   4.064  0.3942 -0.0993  0.1419
58168SOL    HW192496   8.815   3.948   4.144  1.1135 -0.4148 -0.3563
58168SOL    HW292497   8.811   4.067   4.051  1.0220 -0.4422 -0.3875
58169SOL     OW92498   5.660  10.894   5.938 -0.4756 -0.2737  0.0780
58169SOL    HW192499   5.737  10.839   5.923 -0.3584 -0.3185  0.8065
58169SOL    HW292500   5.695  10.983   5.947 -0.3801 -0.4317  1.4595
58170SOL     OW92501  11.659   3.810   2.206  0.3133  0.4854 -0.6546
58170SOL    HW192502  11.611   3.770   2.133  1.5091  0.7995 -1.6582
58170SOL    HW292503  11.666   3.740   2.271  2.3723 -1.0579 -2.3694
58171SOL     OW92504   9.449  10.313   5.568 -0.4650  0.0596 -0.7230
58171SOL    HW192505   9.473  10.283   5.480  0.2256 -0.8269 -0.2475
58171SOL    HW292506   9.409  10.237   5.609 -1.6851  0.7561 -0.5843
58172SOL     OW92507   0.055  10.851   7.524  0.0534  0.0596 -0.1379
58172SOL    HW192508   0.098  10.928   7.486  1.3177 -0.1946  0.7037
58172SOL    HW292509   0.073  10.859   7.618 -0.6225 -0.7673  0.0653
58173SOL     OW92510   5.841   1.361   2.640  0.4651  0.1630  0.8632
58173SOL    HW192511   5.921   1.388   2.684 -0.3600  1.2807  1.7454
58173SOL    HW292512   5.775   1.358   2.710 -0.4113 -0.0907  0.0504
58174SOL     OW92513   3.602   6.642   3.301 -0.2561  0.1180  0.1614
58174SOL    HW192514   3.576   6.550   3.287 -0.0436  0.1027 -0.1408
58174SOL    HW292515   3.531   6.679   3.353 -1.1668  0.2073 -1.0910
58175SOL     OW92516  10.549   5.800  12.877  0.0587 -0.4530 -0.3460
58175SOL    HW192517  10.526   5.817  12.968 -1.5152 -0.9556 -0.6166
58175SOL    HW292518  10.640   5.830  12.869  0.4004 -0.8491  1.4941
58176SOL     OW92519   9.718   8.709   2.007 -1.0553 -0.3167  0.3337
58176SOL    HW192520   9.696   8.617   1.993 -1.4978 -0.1431 -0.1311
58176SOL    HW292521   9.668   8.757   1.940 -0.4301  0.2184  0.2395
58177SOL     OW92522   2.364   2.977   7.118  0.4592  0.1536  0.3599
58177SOL    HW192523   2.342   2.985   7.026 -2.5835  0.0053  0.9947
58177SOL    HW292524   2.358   2.883   7.137 -0.7346  0.3479  1.0595
58178SOL     OW92525   6.630   4.742   0.189 -0.2610  0.4414  0.5431
58178SOL    HW192526   6.573   4.700   0.124 -1.7877  1.0623  1.4448
58178SOL    HW292527   6.715   4.748   0.145 -1.3662  1.3354 -1.6426
58179SOL     OW92528   5.908  11.451  13.437  0.9298  0.4334 -0.2669
58179SOL    HW192529   5.833  11.447  13.496  0.7340 -0.9728 -0.5690
58179SOL    HW292530   5.935  11.543  13.438 -0.9238  1.0092 -0.3377
58180SOL     OW92531   5.117   8.437  10.795  0.0468 -0.0295 -0.2258
58180SOL    HW192532   5.118   8.428  10.890  2.4857  1.8325  0.0092
58180SOL    HW292533   5.128   8.348  10.762  0.2210 -0.5718  1.2490
58181SOL     OW92534   2.576   5.206  11.172  0.0256 -0.0686  0.0499
58181SOL    HW192535   2.594   5.140  11.106  1.4494 -1.0212  1.3256
58181SOL    HW292536   2.661   5.228  11.209 -0.8086 -0.5469  2.4521
58182SOL     OW92537  11.299   4.977  11.396  0.2857  0.3727 -0.1909
58182SOL    HW192538  11.249   5.044  11.349  1.0530  0.5841 -0.7254
58182SOL    HW292539  11.316   4.910  11.330 -1.1584 -0.7655  0.5299
58183SOL     OW92540  14.106   4.994  13.460  0.0144  0.7514 -0.1872
58183SOL    HW192541  14.139   4.929  13.398 -2.2115  0.2044 -0.8873
58183SOL    HW292542  14.112   4.951  13.545 -3.7629 -1.6047 -0.8584
58184SOL     OW92543   9.703   8.826   6.996  0.7921  0.7029  0.2586
58184SOL    HW192544   9.646   8.797   7.068  1.6884  0.1110  0.7429
58184SOL    HW292545   9.647   8.824   6.919 -0.4564  2.2081  1.0503
58185SOL     OW92546   9.049   4.209  11.503 -0.0085 -0.8036  0.0888
58185SOL    HW192547   8.954   4.203  11.510 -0.3008  1.6945 -0.6884
58185SOL    HW292548   9.080   4.207  11.594 -1.0352  0.7127  0.5132
58186SOL     OW92549   2.308   0.332   5.406 -0.0382  0.1918 -0.1705
58186SOL    HW192550   2.340   0.288   5.326  0.5113  2.2994 -1.1860
58186SOL    HW292551   2.214   0.344   5.390 -0.9647 -3.4045  1.5589
58187SOL     OW92552   6.601   5.077   0.587  0.4159 -0.1060  0.5215
58187SOL    HW192553   6.609   5.171   0.575  1.2163 -0.2394 -0.0941
58187SOL    HW292554   6.642   5.039   0.509  0.5594 -0.9634  0.9977
58188SOL     OW92555  11.456   1.019   9.778  0.4368  0.0353  0.1052
58188SOL    HW192556  11.387   1.061   9.726  0.6461  0.9994  0.5816
58188SOL    HW292557  11.439   1.047   9.868  2.1400  1.3166  0.0803
58189SOL     OW92558   3.666   7.513   9.102  0.3992  0.1378  0.4698
58189SOL    HW192559   3.752   7.550   9.080  0.8550 -1.7158 -1.1623
58189SOL    HW292560   3.686   7.425   9.135 -0.8426 -0.1161  0.5667
58190SOL     OW92561  11.329   2.134   3.339  0.0102  0.3207  0.0520
58190SOL    HW192562  11.312   2.175   3.254 -1.6601 -0.1244  0.1391
58190SOL    HW292563  11.402   2.074   3.322 -0.9543 -0.5333 -1.3599
58191SOL     OW92564   8.638   2.599   9.282  0.3345 -0.2969  0.0920
58191SOL    HW192565   8.682   2.516   9.301  2.2398  0.6400  0.1157
58191SOL    HW292566   8.655   2.615   9.189  0.1791  0.1653  0.1383
58192SOL     OW92567  13.800   2.570   6.013 -0.2356 -0.2882 -0.3203
58192SOL    HW192568  13.875   2.581   6.071 -0.1517  0.1300 -0.5089
58192SOL    HW292569  13.724   2.573   6.072 -0.1960  0.8991 -0.3081
58193SOL     OW92570   7.321   8.492   1.816 -0.7289 -0.3277  0.1001
58193SOL    HW192571   7.286   8.466   1.901 -0.2891  0.5257  0.5680
58193SOL    HW292572   7.245   8.495   1.758 -1.1180 -0.4290  0.5946
58194SOL     OW92573   3.700   9.503  12.815 -0.4568  0.2346 -0.3640
58194SOL    HW192574   3.720   9.524  12.724  1.0652  0.0016 -0.1040
58194SOL    HW292575   3.628   9.440  12.809  0.8729 -1.2606 -1.5081
58195SOL     OW92576   8.165  10.656   8.779 -0.1396  0.2209  0.1208
58195SOL    HW192577   8.125  10.653   8.692  0.2068 -0.7058 -0.0210
58195SOL    HW292578   8.178  10.749   8.796  0.3492  0.3963 -1.0834
58196SOL     OW92579   7.832  11.012   4.496  0.2370  0.0838  0.3512
58196SOL    HW192580   7.777  10.934   4.492  1.4211 -0.8233  0.9696
58196SOL    HW292581   7.830  11.047   4.406  0.1841 -1.0185 -0.0953
58197SOL     OW92582   9.985   6.023   1.796  0.7565  0.0279 -0.7339
58197SOL    HW192583   9.894   5.998   1.810  1.3404 -1.8766 -0.0061
58197SOL    HW292584  10.026   5.946   1.757  2.4178  0.2138  0.5189
58198SOL     OW92585   1.662  11.840   6.531 -0.2094 -0.1337 -0.3491
58198SOL    HW192586   1.600  11.805   6.467 -1.8459  0.5987  0.7495
58198SOL    HW292587   1.662  11.935   6.514  0.2859 -0.0821 -0.0669
58199SOL     OW92588   3.797  12.651  12.390  0.3049  0.0857  0.3704
58199SOL    HW192589   3.748  12.717  12.438 -0.6546  0.6757 -1.3488
58199SOL    HW292590   3.731  12.592  12.354  1.1294 -1.7439  1.6810
58200SOL     OW92591  12.987   0.373  12.113 -0.0591  0.1959 -0.1605
58200SOL    HW192592  13.060   0.369  12.174  0.8711 -1.2376 -1.2981
58200SOL    HW292593  12.968   0.466  12.103 -1.1897  0.4804  3.3319
58201SOL     OW92594   7.206   4.536  10.220 -0.2506  0.2317 -0.0310
58201SOL    HW192595   7.260   4.457  10.230 -1.5629 -0.7389 -0.3037
58201SOL    HW292596   7.121   4.512  10.257 -1.7919  0.2773 -3.2116
58202SOL     OW92597   3.587   7.919   8.312  1.0369 -0.0695  0.6714
58202SOL    HW192598   3.530   7.845   8.333 -1.7622  1.4274 -0.9966
58202SOL    HW292599   3.552   7.992   8.364  3.1876  0.3570  1.6356
58203SOL     OW92600   3.338  10.597   3.144 -0.1118 -0.0036 -0.3054
58203SOL    HW192601   3.246  10.620   3.136 -0.3300 -0.5829  0.4425
58203SOL    HW292602   3.375  10.666   3.200  0.2910  1.1562 -1.9328
58204SOL     OW92603  13.027   3.547  12.072 -0.2954 -0.0978  0.0840
58204SOL    HW192604  12.954   3.486  12.070 -1.8622  1.6976  0.5994
58204SOL    HW292605  13.095   3.504  12.019 -1.1807 -2.4110  0.7170
58205SOL     OW92606   9.916  11.868   2.890 -0.3728 -0.3720 -0.2577
58205SOL    HW192607   9.945  11.793   2.838  1.1423 -1.7333  2.3688
58205SOL    HW292608   9.836  11.840   2.933 -1.5298  0.6924 -1.6099
58206SOL     OW92609  11.154  10.167  10.614  0.3296  0.3548 -0.3049
58206SOL    HW192610  11.216  10.125  10.555  0.2740 -2.1269  1.2651
58206SOL    HW292611  11.078  10.187  10.560  0.8528 -0.4740 -1.3752
58207SOL     OW92612   9.716  13.152  13.323 -0.0007 -0.0190 -0.4251
58207SOL    HW192613   9.772  13.227  13.301  0.5653 -1.1785 -3.5680
58207SOL    HW292614   9.775  13.089  13.363  0.3508 -0.1280 -1.0913
58208SOL     OW92615   0.950   0.155   4.588 -0.3582 -0.2565  0.4498
58208SOL    HW192616   1.027   0.100   4.575 -0.7779 -1.0691  1.3001
58208SOL    HW292617   0.934   0.195   4.503  0.1056 -1.2580 -0.1160
58209SOL     OW92618  11.048   3.350   1.812  0.0479  0.0846 -0.2863
58209SOL    HW192619  11.111   3.409   1.770 -0.3115  1.1431  0.6065
58209SOL    HW292620  11.102   3.285   1.855  0.6979  1.9641  1.9335
58210SOL     OW92621   7.991  13.527   2.072 -0.5842 -0.3198 -0.3165
58210SOL    HW192622   7.895  13.525   2.069 -0.6692 -2.4087  1.2070
58210SOL    HW292623   8.018  13.475   1.997 -0.6205  0.6788 -1.0268
58211SOL     OW92624  10.293  10.778   8.221 -0.2006 -0.1920  0.4399
58211SOL    HW192625  10.238  10.844   8.263  0.2499  0.9223 -0.6605
58211SOL    HW292626  10.363  10.761   8.284 -1.7961 -1.7202  1.9165
58212SOL     OW92627  12.531   8.316   1.445 -0.2284 -0.5098 -0.1602
58212SOL    HW192628  12.478   8.395   1.453  0.1200 -0.3129  0.2955
58212SOL    HW292629  12.615   8.340   1.483  0.0385 -0.9544 -0.4627
58213SOL     OW92630  13.854   1.584   2.342 -0.6994  0.7525  0.0751
58213SOL    HW192631  13.812   1.507   2.304  1.2870 -0.6713  0.5738
58213SOL    HW292632  13.891   1.553   2.425  2.2350  1.5108 -0.8070
58214SOL     OW92633   3.785  14.102  12.680 -0.1574  0.0947 -0.0906
58214SOL    HW192634   3.768  14.143  12.764  1.3456  0.2800  0.1416
58214SOL    HW292635   3.763  14.169  12.615 -3.0665 -0.6254  0.0052
58215SOL     OW92636  13.964   7.664   5.432 -0.2393  0.1822  0.4462
58215SOL    HW192637  13.949   7.695   5.343  0.6486 -1.6275 -0.3941
58215SOL    HW292638  13.876   7.655   5.470 -0.6900 -0.0192 -0.6178
58216SOL     OW92639   4.329   4.577  11.261  0.0131  0.3222 -0.5161
58216SOL    HW192640   4.394   4.640  11.291  1.1257 -0.1099 -1.8887
58216SOL    HW292641   4.376   4.524  11.197 -1.2126 -1.1816 -0.2085
58217SOL     OW92642   7.586   3.426  11.488 -0.3124 -0.6069 -0.0940
58217SOL    HW192643   7.544   3.350  11.449 -0.8028 -1.7822  2.4878
58217SOL    HW292644   7.514   3.478  11.525  0.0584  0.8660 -1.3474
58218SOL     OW92645  11.052  14.137  11.690  0.4388  0.0876 -0.0040
58218SOL    HW192646  11.130  14.192  11.703 -0.2878  1.0887  0.2632
58218SOL    HW292647  11.003  14.146  11.772 -0.2473 -0.0558 -0.3927
58219SOL     OW92648   5.618   4.253  10.426 -0.2513 -0.4516  0.0068
58219SOL    HW192649   5.705   4.284  10.453 -0.0745 -0.1410 -0.8816
58219SOL    HW292650   5.607   4.171  10.473 -0.7258  0.9132  2.4095
58220SOL     OW92651   2.257  12.443   9.360  0.4086  0.0984 -0.2980
58220SOL    HW192652   2.223  12.488   9.283 -1.3139  0.3503  0.5557
58220SOL    HW292653   2.246  12.505   9.432 -1.0985 -1.2512  0.7240
58221SOL     OW92654   5.395   9.806   8.481 -0.1512  0.0205 -0.2380
58221SOL    HW192655   5.339   9.866   8.532  0.0214  0.5680 -0.6870
58221SOL    HW292656   5.341   9.781   8.406 -0.3938 -0.7658  0.1849
58222SOL     OW92657   8.800   7.741  13.884  0.4921 -0.4213  0.2927
58222SOL    HW192658   8.737   7.768  13.951 -0.2169  1.3913 -1.0259
58222SOL    HW292659   8.835   7.658  13.917 -1.4496 -0.7298  1.8095
58223SOL     OW92660   7.511  11.621   0.304 -0.1171 -0.0617 -0.1286
58223SOL    HW192661   7.580  11.558   0.324 -0.4344  0.5057  3.5379
58223SOL    HW292662   7.549  11.678   0.238  1.5295 -1.8817 -0.8448
58224SOL     OW92663   1.945   7.686   1.827  0.1558 -0.4419  0.2905
58224SOL    HW192664   1.955   7.732   1.910 -1.1575  1.6942 -0.6405
58224SOL    HW292665   2.024   7.709   1.778  0.2591 -0.5179  0.4201
58225SOL     OW92666   1.377  13.160   2.666 -0.0983 -0.4206  0.2653
58225SOL    HW192667   1.339  13.239   2.704 -0.1746 -0.6146  0.5998
58225SOL    HW292668   1.401  13.106   2.741 -0.8163 -1.0802  0.0450
58226SOL     OW92669   2.878   8.704  10.122  0.2138  0.0057  0.4040
58226SOL    HW192670   2.923   8.665  10.047 -1.5260 -4.8150  1.5115
58226SOL    HW292671   2.795   8.734  10.086 -0.2451 -1.4622  0.1587
58227SOL     OW92672   8.895   3.720   8.898  0.2475  0.5458 -0.1416
58227SOL    HW192673   8.830   3.736   8.829 -0.8720 -1.5062  0.3551
58227SOL    HW292674   8.875   3.785   8.965 -1.2089  0.0780 -0.0820
58228SOL     OW92675  12.712  13.984  14.073 -0.3735  0.9277 -0.0965
58228SOL    HW192676  12.710  13.943  13.987  0.9595 -0.5071  0.5239
58228SOL    HW292677  12.699  13.912  14.135  1.2082  1.5205  0.9943
58229SOL     OW92678   0.070  11.361   5.974 -0.5966 -0.0106  0.2822
58229SOL    HW192679   0.039  11.430   5.916  0.4817  0.2831  0.0408
58229SOL    HW292680  -0.004  11.300   5.981  0.0814 -1.5587 -3.6743
58230SOL     OW92681  10.353  10.306   2.493 -0.7610 -0.4164 -0.0102
58230SOL    HW192682  10.317  10.300   2.404  0.3134 -0.2245 -0.4738
58230SOL    HW292683  10.369  10.399   2.506 -0.4059 -0.4996  0.1697
58231SOL     OW92684   4.839  10.361   3.633 -0.4351  0.1036 -0.3033
58231SOL    HW192685   4.871  10.271   3.628  2.2637  0.9417  0.2740
58231SOL    HW292686   4.823  10.376   3.726  0.9325  0.7336 -0.1416
58232SOL     OW92687   4.856  12.243   1.777  0.0085  0.1419  0.0625
58232SOL    HW192688   4.877  12.177   1.711  2.0122 -0.0340  0.8048
58232SOL    HW292689   4.820  12.193   1.850  0.0920  0.0635  0.0496
58233SOL     OW92690  12.327   7.897   7.686 -0.5216  0.3131 -0.0893
58233SOL    HW192691  12.291   7.876   7.599 -0.6396 -1.6707  0.4068
58233SOL    HW292692  12.410   7.941   7.667  0.1462 -1.3677 -1.2264
58234SOL     OW92693   6.866   5.864  13.142 -0.1982 -0.6325  0.0839
58234SOL    HW192694   6.954   5.851  13.177  0.7377 -0.2239 -1.9532
58234SOL    HW292695   6.827   5.930  13.199  1.2042 -0.0521  0.4172
58235SOL     OW92696   3.539   8.170   4.380 -0.3065 -0.8689 -0.2548
58235SOL    HW192697   3.607   8.162   4.448 -0.7519  1.3868  0.5176
58235SOL    HW292698   3.589   8.180   4.299  0.4187  2.1081  0.4505
58236SOL     OW92699   8.555  11.238   1.940 -0.0536  0.1184  0.2931
58236SOL    HW192700   8.624  11.200   1.995 -1.0146 -1.7288  0.2853
58236SOL    HW292701   8.603  11.290   1.875  1.3065 -0.5530  0.7105
58237SOL     OW92702   2.819   6.045   2.026  0.7017 -0.0125 -0.5720
58237SOL    HW192703   2.776   6.087   2.101  1.7273  0.7904 -0.4041
58237SOL    HW292704   2.752   5.988   1.989  0.1052 -0.2551  0.8179
58238SOL     OW92705   0.216  12.875   8.668 -0.2298  0.8277 -0.1596
58238SOL    HW192706   0.160  12.927   8.725 -0.7304 -0.5542  0.6397
58238SOL    HW292707   0.214  12.922   8.584 -2.1067  1.1372  0.0199
58239SOL     OW92708   5.348   0.217  14.122 -0.2880  0.3534  0.4047
58239SOL    HW192709   5.377   0.126  14.118  1.4646  0.8663  0.1851
58239SOL    HW292710   5.292   0.229  14.046 -0.1186 -0.4217  0.1521
58240SOL     OW92711   3.517  12.791  10.040 -0.2063  0.1251 -0.0761
58240SOL    HW192712   3.533  12.873  10.085 -1.2053  0.7019 -0.7470
58240SOL    HW292713   3.578  12.729  10.080 -0.1110  0.9554  1.0861
58241SOL     OW92714  10.247  13.933  10.662 -0.1607 -0.4842 -0.4910
58241SOL    HW192715  10.158  13.927  10.626 -0.2156 -2.4803 -0.0941
58241SOL    HW292716  10.238  13.994  10.735 -1.1957 -0.6479 -0.4600
58242SOL     OW92717  13.873  12.217   2.786  0.1312  0.2351 -0.0750
58242SOL    HW192718  13.870  12.132   2.743 -0.3896  1.2950 -2.2529
58242SOL    HW292719  13.949  12.261   2.747  0.3164  0.8367  0.9336
58243SOL     OW92720   7.306   3.423  13.269 -0.0753 -0.4104  0.1139
58243SOL    HW192721   7.283   3.332  13.288 -1.1868 -0.6428 -1.9762
58243SOL    HW292722   7.305   3.428  13.173  2.9516  1.0942  0.0211
58244SOL     OW92723   3.013   3.122   1.800  0.0028 -0.0456  0.3192
58244SOL    HW192724   2.974   3.103   1.715 -1.0014 -0.3842  0.8410
58244SOL    HW292725   3.100   3.082   1.797  0.3129  0.6661 -0.8419
58245SOL     OW92726   2.927   8.205   5.123  0.6060 -0.0571 -0.6515
58245SOL    HW192727   2.836   8.188   5.149  0.1415 -0.2528 -2.2601
58245SOL    HW292728   2.979   8.185   5.201 -0.8743  2.1552  1.0608
58246SOL     OW92729  10.131  13.896   5.618 -0.2910 -0.0899 -0.5444
58246SOL    HW192730  10.165  13.876   5.530  0.1831  1.7232 -0.8194
58246SOL    HW292731  10.081  13.977   5.606  1.5483  1.4150  1.1746
58247SOL     OW92732  13.903  13.202  14.131  0.0627  0.3151 -0.1663
58247SOL    HW192733  13.850  13.193  14.052 -0.6217  2.4642 -0.0132
58247SOL    HW292734  13.962  13.276  14.112  2.0084 -1.0586  0.2323
58248SOL     OW92735   6.460   3.427  12.707  0.5328  0.4524  0.0636
58248SOL    HW192736   6.372   3.445  12.740 -0.0327 -0.7895 -0.7324
58248SOL    HW292737   6.502   3.514  12.705 -0.3631  0.9536  1.2384
58249SOL     OW92738  12.131   0.463   2.124  0.2697 -0.4535 -0.5335
58249SOL    HW192739  12.221   0.433   2.135  0.0006 -1.6733 -1.3976
58249SOL    HW292740  12.082   0.419   2.193  0.3173  0.1788 -0.0879
58250SOL     OW92741   3.575   9.216  13.856  0.0838 -0.2872 -0.0305
58250SOL    HW192742   3.485   9.235  13.885  0.2325 -0.8905  0.8578
58250SOL    HW292743   3.610   9.157  13.923  1.2575  0.1916 -0.1993
58251SOL     OW92744   6.778  13.117   0.788  0.5581  0.2919 -0.0937
58251SOL    HW192745   6.737  13.089   0.706  1.8115  0.8077 -0.9328
58251SOL    HW292746   6.728  13.193   0.816 -0.4371 -0.4233  0.1082
58252SOL     OW92747  11.717  10.981   6.811 -0.1317  0.4230 -0.6387
58252SOL    HW192748  11.784  11.031   6.764  1.0371 -0.3946  0.1054
58252SOL    HW292749  11.763  10.940   6.884 -1.3026 -0.7218 -0.4849
58253SOL     OW92750   2.460   8.269   8.582  0.0526  0.0008 -1.0534
58253SOL    HW192751   2.470   8.336   8.651 -0.9648  0.1243 -1.0108
58253SOL    HW292752   2.435   8.319   8.504 -0.1417 -0.2822 -1.1695
58254SOL     OW92753   1.841   0.174   6.810  0.3129 -0.5846  0.0720
58254SOL    HW192754   1.778   0.107   6.783  0.4752 -0.5261 -0.4801
58254SOL    HW292755   1.919   0.155   6.757 -0.4170  1.4562 -1.9015
58255SOL     OW92756   0.978  13.814  12.343  0.1034 -0.0037  0.1209
58255SOL    HW192757   0.983  13.756  12.419  1.5125 -0.5360 -0.3308
58255SOL    HW292758   0.937  13.762  12.275 -0.4355  0.2070  0.2800
58256SOL     OW92759   0.169  12.374   8.065 -0.4029  0.1345 -0.3444
58256SOL    HW192760   0.179  12.443   7.999  1.6875 -1.3542 -1.7138
58256SOL    HW292761   0.172  12.421   8.148 -1.4560  1.9129 -1.2301
58257SOL     OW92762   2.256  10.340   9.196 -0.0378  0.4727 -0.1582
58257SOL    HW192763   2.267  10.392   9.275 -1.8331  0.2818  0.2739
58257SOL    HW292764   2.177  10.288   9.213  1.0009 -1.4857 -1.0518
58258SOL     OW92765  12.208   3.676   1.257 -0.0287  0.1565  0.4145
58258SOL    HW192766  12.162   3.653   1.176 -0.3552 -0.1096  0.6714
58258SOL    HW292767  12.167   3.757   1.285  1.8875  1.7413 -1.0958
58259SOL     OW92768   2.040   3.580  12.439  0.2337 -0.3981 -0.1466
58259SOL    HW192769   2.129   3.579  12.404  0.0779  0.3945 -0.5690
58259SOL    HW292770   2.049   3.542  12.527  1.0351 -0.0707 -0.0768
58260SOL     OW92771   0.304   3.914  10.158  0.0841 -0.8289 -0.5759
58260SOL    HW192772   0.385   3.952  10.124  0.5310 -0.8424  0.4621
58260SOL    HW292773   0.327   3.823  10.180  0.2523 -0.3750  1.2713
58261SOL     OW92774   8.558   3.344   9.440  0.2074  0.2223  0.2402
58261SOL    HW192775   8.637   3.351   9.386  0.3421  1.6890  0.5854
58261SOL    HW292776   8.588   3.363   9.529 -0.3618 -0.1671  0.5196
58262SOL     OW92777  13.443   7.578   5.665 -0.6437  0.1027  0.5999
58262SOL    HW192778  13.426   7.534   5.581 -0.9681  1.2783  0.0267
58262SOL    HW292779  13.459   7.669   5.641 -0.9016  0.4871  1.8424
58263SOL     OW92780  12.441  11.356   3.987 -0.0066 -0.3452  0.2694
58263SOL    HW192781  12.478  11.337   4.073  2.1210  0.6844 -0.3463
58263SOL    HW292782  12.517  11.378   3.933 -1.4795  1.3016 -1.2554
58264SOL     OW92783   8.525   0.311   1.796 -0.6109 -0.3011 -0.5254
58264SOL    HW192784   8.449   0.370   1.796  0.0773  0.6360 -1.5376
58264SOL    HW292785   8.513   0.256   1.719 -0.2488 -0.1159 -0.7182
58265SOL     OW92786  10.849   4.224  14.118 -0.0051 -0.2536 -0.0008
58265SOL    HW192787  10.765   4.269  14.129  0.0410 -0.5466  2.0699
58265SOL    HW292788  10.830   4.132  14.133  0.7722 -0.2398  1.2604
58266SOL     OW92789   8.866   6.726   5.918  0.0205  0.0422 -0.5976
58266SOL    HW192790   8.917   6.646   5.932  0.2844  0.4651  1.1959
58266SOL    HW292791   8.800   6.702   5.853  0.5638 -1.4026 -0.6560
58267SOL     OW92792  12.942  13.820  10.285  0.1526 -0.0532 -0.2879
58267SOL    HW192793  12.977  13.869  10.359 -2.6925  3.0297 -0.7456
58267SOL    HW292794  12.965  13.872  10.209 -0.9826 -0.6491 -1.0707
58268SOL     OW92795   1.400   5.328   8.569 -0.0486  0.7631  0.9456
58268SOL    HW192796   1.489   5.343   8.602  0.0946  1.2937  0.3483
58268SOL    HW292797   1.365   5.416   8.554  0.2379  0.5707 -1.1473
58269SOL     OW92798   8.949   0.379   5.944 -0.2308  0.7594 -0.1773
58269SOL    HW192799   8.927   0.445   6.009 -0.3963  0.3081  0.2379
58269SOL    HW292800   9.042   0.361   5.958 -0.0386  1.3436 -0.6999
58270SOL     OW92801  13.414   1.306   5.846 -0.3357 -0.1117  0.1208
58270SOL    HW192802  13.405   1.234   5.909 -0.8741  0.0519  0.2334
58270SOL    HW292803  13.325   1.333   5.828 -0.1085  1.1913  0.8509
58271SOL     OW92804  11.643   7.447   3.375  0.4843 -0.0397 -0.6571
58271SOL    HW192805  11.672   7.512   3.311  0.5289  1.7025  1.0573
58271SOL    HW292806  11.549   7.438   3.359  0.2417  1.3754 -0.1602
58272SOL     OW92807   0.162   9.764  13.714 -0.3455  0.7114  0.4173
58272SOL    HW192808   0.066   9.771  13.719 -0.2994  1.1789  0.8039
58272SOL    HW292809   0.188   9.836  13.657 -0.3922 -0.8780 -1.7155
58273SOL     OW92810   9.300   7.280   4.937 -0.3503  0.5053  0.2680
58273SOL    HW192811   9.243   7.263   5.012  0.6599  0.1701  0.9799
58273SOL    HW292812   9.373   7.220   4.949 -0.4202  0.0756 -1.2786
58274SOL     OW92813   6.653   3.568   1.225  0.1672 -0.0882 -0.4107
58274SOL    HW192814   6.642   3.495   1.163  0.2958 -1.8257  1.5099
58274SOL    HW292815   6.746   3.568   1.246 -0.1058 -0.5271  0.9011
58275SOL     OW92816   5.298   1.954   9.822 -0.3790 -0.3307  0.3009
58275SOL    HW192817   5.218   1.940   9.872  0.5077 -1.0931  1.5757
58275SOL    HW292818   5.334   2.036   9.855 -0.7765  0.1829 -0.5024
58276SOL     OW92819   5.278   1.871  12.721  0.2640  0.5623  0.4744
58276SOL    HW192820   5.255   1.833  12.806  0.0614  0.3252  0.3164
58276SOL    HW292821   5.359   1.827  12.696  0.6875  1.1188  0.8542
58277SOL     OW92822   3.293   5.969  11.370  0.3525 -0.3910 -0.1319
58277SOL    HW192823   3.337   5.924  11.441  0.1757  1.1715  1.0293
58277SOL    HW292824   3.361   5.986  11.305  0.2668 -2.9880 -1.0315
58278SOL     OW92825  10.773   4.076  10.445  0.3833 -0.2370  0.3584
58278SOL    HW192826  10.686   4.040  10.427 -1.0809  3.1839 -0.1841
58278SOL    HW292827  10.826   4.047  10.371 -1.1584  0.1656 -0.9587
58279SOL     OW92828  11.984  13.900   2.476  0.8026  0.2174 -0.2169
58279SOL    HW192829  12.056  13.918   2.535  0.4825 -1.4949  0.7546
58279SOL    HW292830  12.012  13.823   2.427 -0.5534 -0.7983  0.5518
58280SOL     OW92831   4.885   9.004   3.205  0.0444  0.3038 -0.0528
58280SOL    HW192832   4.884   8.937   3.136  0.4120  0.5606 -0.3086
58280SOL    HW292833   4.955   9.064   3.180 -0.1206  0.6528  0.3074
58281SOL     OW92834  14.042   4.497   3.073  0.3817 -0.4504  0.0608
58281SOL    HW192835  14.133   4.477   3.093  1.3379  2.4816 -0.8274
58281SOL    HW292836  14.030   4.587   3.104 -1.8874 -0.3831 -0.8309
58282SOL     OW92837  10.244   7.304   5.866 -0.8346  0.0765 -0.4034
58282SOL    HW192838  10.288   7.306   5.951 -0.2139  2.7326 -0.7095
58282SOL    HW292839  10.309   7.266   5.806 -0.2576  0.7329 -0.1971
58283SOL     OW92840   0.663  11.255   0.426  0.2652  0.6968  0.2065
58283SOL    HW192841   0.716  11.193   0.475 -0.7970  0.1833  0.7318
58283SOL    HW292842   0.714  11.272   0.346 -0.6917 -3.1953 -1.4877
58284SOL     OW92843   7.577  11.041   9.106  0.2925  0.3924 -0.5678
58284SOL    HW192844   7.623  10.988   9.041 -0.0935  0.6331 -1.0354
58284SOL    HW292845   7.497  10.993   9.125  1.6065 -1.0916  1.7626
58285SOL     OW92846   3.126   6.296   5.364  0.5054  0.2335  0.4265
58285SOL    HW192847   3.196   6.275   5.426  0.0195  0.4818  1.0655
58285SOL    HW292848   3.051   6.320   5.418  0.9070  3.3679 -0.2401
58286SOL     OW92849  10.603   6.881   9.710  0.1109 -0.0257 -0.3556
58286SOL    HW192850  10.675   6.931   9.750  0.3453 -0.1030 -0.6734
58286SOL    HW292851  10.553   6.847   9.784  0.5434 -0.1739 -0.1253
58287SOL     OW92852   6.043   3.600  11.309 -0.4660 -0.4212  0.2640
58287SOL    HW192853   6.038   3.694  11.325  0.3919 -0.2627 -0.3253
58287SOL    HW292854   6.113   3.570  11.367 -1.0244 -0.7795  0.7675
58288SOL     OW92855   5.224  13.969   8.330 -0.0551  0.1214  0.5907
58288SOL    HW192856   5.226  13.983   8.425  2.5876  0.3642  0.5806
58288SOL    HW292857   5.225  13.874   8.319  0.4092  0.0983  0.8233
58289SOL     OW92858   6.044   6.226  11.854  0.2117 -0.1384 -0.1510
58289SOL    HW192859   6.041   6.200  11.946 -1.0657 -0.7781 -0.3508
58289SOL    HW292860   6.020   6.146  11.806 -1.8091  0.8357 -0.8842
58290SOL     OW92861   9.932   1.041   3.484 -0.2606 -0.3128 -0.0309
58290SOL    HW192862   9.938   0.951   3.452  0.5116 -0.2105 -0.1826
58290SOL    HW292863   9.984   1.092   3.422  1.5810 -0.1618  1.5527
58291SOL     OW92864   7.480   1.070   7.846 -0.0788  0.0125 -0.0401
58291SOL    HW192865   7.524   1.140   7.894 -0.5432  0.7264 -0.6497
58291SOL    HW292866   7.488   1.094   7.754  3.8128 -3.0006 -0.7812
58292SOL     OW92867   5.495  12.664   4.904 -0.2500  0.1819 -0.4208
58292SOL    HW192868   5.518  12.730   4.968 -1.2704  0.2458 -0.1045
58292SOL    HW292869   5.447  12.598   4.954  1.4050 -1.2182 -0.5674
58293SOL     OW92870   6.523   0.517   3.002  0.4906 -0.3945 -0.0520
58293SOL    HW192871   6.594   0.579   2.989  1.4124 -1.1406  1.1555
58293SOL    HW292872   6.541   0.447   2.939  0.6552 -0.4420  0.0481
58294SOL     OW92873   9.376   6.345   2.892 -0.2241  0.5258  0.1088
58294SOL    HW192874   9.344   6.263   2.932 -0.0703  1.2402  1.7903
58294SOL    HW292875   9.372   6.409   2.963 -0.5692  2.0563 -1.2421
58295SOL     OW92876  12.900   0.641   5.973 -0.1395  0.4221 -0.1080
58295SOL    HW192877  12.982   0.665   5.929  0.3124 -1.3057 -0.3027
58295SOL    HW292878  12.834   0.642   5.903 -0.2384  1.4882 -0.0173
58296SOL     OW92879   4.695   5.534  11.488  0.3772  0.0964 -0.1106
58296SOL    HW192880   4.784   5.500  11.490  0.5634  0.5199 -0.8696
58296SOL    HW292881   4.706   5.629  11.494 -0.1011  0.0821  1.3607
58297SOL     OW92882   9.579  13.365   8.863  0.0939 -0.9831 -0.3202
58297SOL    HW192883   9.535  13.284   8.838  1.2986 -2.1544  1.1090
58297SOL    HW292884   9.628  13.342   8.942  0.0039  1.3172  0.4833
58298SOL     OW92885  13.847   5.492   6.905  0.2233  0.5777  0.2610
58298SOL    HW192886  13.922   5.470   6.961 -0.6314 -0.3600  1.0819
58298SOL    HW292887  13.803   5.409   6.891  0.4822  0.7701 -1.9648
58299SOL     OW92888   7.184   9.723   1.571 -0.2820  0.2975  0.5193
58299SOL    HW192889   7.225   9.637   1.561 -1.0616 -0.2295  1.6162
58299SOL    HW292890   7.096   9.704   1.602 -0.5163  1.5004  0.6434
58300SOL     OW92891  14.120   8.769  11.917 -0.2740  0.5733  0.5145
58300SOL    HW192892  14.215   8.766  11.927 -0.0245  3.0510 -0.5808
58300SOL    HW292893  14.089   8.697  11.972  2.1227  0.6958  2.1943
58301SOL     OW92894   4.946   8.798   1.903  0.3885  0.2208  0.3156
58301SOL    HW192895   4.931   8.706   1.923  0.1822  0.1642 -0.0927
58301SOL    HW292896   5.009   8.798   1.832 -1.3044  0.2977 -1.2728
58302SOL     OW92897   9.734  10.709   6.628  0.4998 -0.5912  0.0344
58302SOL    HW192898   9.824  10.711   6.663  0.0795  4.7694  1.7360
58302SOL    HW292899   9.739  10.758   6.546 -1.0999  2.7948  1.7581
58303SOL     OW92900   1.734   1.908   3.908 -0.2152  0.1696 -0.2060
58303SOL    HW192901   1.819   1.881   3.874  0.3458 -0.7424  1.7785
58303SOL    HW292902   1.674   1.839   3.881 -0.4317  0.9481 -1.8422
58304SOL     OW92903   1.669   7.607  12.894  0.2250  0.1348 -0.3276
58304SOL    HW192904   1.764   7.617  12.891  0.4518 -1.4886  0.4264
58304SOL    HW292905   1.642   7.608  12.802  0.9063  1.0398 -0.5300
58305SOL     OW92906   9.645  12.442  10.184 -0.0878  0.3307 -0.0162
58305SOL    HW192907   9.645  12.536  10.162  1.0657  0.1722 -0.7837
58305SOL    HW292908   9.580  12.434  10.254 -2.3453  1.2540 -1.8398
58306SOL     OW92909  11.575   2.804   5.444 -0.4675  0.4443  0.6172
58306SOL    HW192910  11.641   2.873   5.437  0.2824 -0.3622 -0.5814
58306SOL    HW292911  11.619   2.732   5.488  0.0240 -0.7135 -1.6400
58307SOL     OW92912  13.095   8.141   5.272 -0.1858 -0.0800  0.9389
58307SOL    HW192913  13.127   8.190   5.197 -1.1997  0.2148  0.6762
58307SOL    HW292914  13.021   8.193   5.304 -2.7621 -2.4199 -0.7015
58308SOL     OW92915   1.332   1.776   6.869 -0.8424 -0.6023 -0.0580
58308SOL    HW192916   1.264   1.816   6.924 -1.2446 -1.0279 -0.2385
58308SOL    HW292917   1.356   1.844   6.807  1.7168  0.9704  2.4115
58309SOL     OW92918   3.183   6.296   2.400  0.4564  0.1425 -0.1068
58309SOL    HW192919   3.209   6.213   2.439 -0.7952 -0.5254 -0.6118
58309SOL    HW292920   3.088   6.299   2.413  0.7045  2.3895  1.5651
58310SOL     OW92921   1.528   9.899   5.112  0.5880 -0.3731  0.5806
58310SOL    HW192922   1.510   9.805   5.105 -1.3190 -0.0829  1.0488
58310SOL    HW292923   1.471   9.929   5.183 -1.5915  1.7532 -1.8284
58311SOL     OW92924   4.629   7.265   2.774  0.0226  0.3100 -0.5817
58311SOL    HW192925   4.636   7.352   2.734  0.7880  0.7354  0.4239
58311SOL    HW292926   4.701   7.215   2.736  0.0036  0.3304 -0.6447
58312SOL     OW92927   7.038  13.690  11.734 -0.6496  0.1389 -0.3302
58312SOL    HW192928   7.060  13.780  11.710 -0.3495  0.6264  1.5983
58312SOL    HW292929   6.958  13.697  11.786 -1.5343 -0.8974 -1.4982
58313SOL     OW92930   5.795   6.874   2.327 -0.0240  0.3318  0.3723
58313SOL    HW192931   5.794   6.808   2.257 -0.6390 -1.0565  1.6261
58313SOL    HW292932   5.705   6.875   2.360  0.3315  0.7161  1.3564
58314SOL     OW92933   0.597  13.119   9.154 -0.1367 -0.4193  0.2403
58314SOL    HW192934   0.585  13.117   9.249 -0.8117 -1.2994  0.1433
58314SOL    HW292935   0.692  13.125   9.142 -0.0173 -0.7895  0.9596
58315SOL     OW92936  12.077   3.652   0.893  0.7053 -0.3541 -0.0628
58315SOL    HW192937  12.162   3.686   0.923  0.6564  0.1450 -0.4815
58315SOL    HW292938  12.097   3.603   0.814  0.5955 -0.1794 -0.1993
58316SOL     OW92939  12.491   4.357  13.014 -0.1474 -0.2216 -0.7046
58316SOL    HW192940  12.459   4.406  12.938  1.0668  2.2108  0.2471
58316SOL    HW292941  12.554   4.296  12.978 -1.3347 -0.8101 -1.8889
58317SOL     OW92942  11.643   3.004  10.821  0.0680  0.2509 -0.5656
58317SOL    HW192943  11.669   3.056  10.897 -0.8877 -0.2933  0.1626
58317SOL    HW292944  11.671   2.915  10.841 -1.3701 -0.1452 -0.2309
58318SOL     OW92945   4.241   5.594   1.075 -0.4207 -0.1912 -0.6395
58318SOL    HW192946   4.262   5.638   1.157 -1.0599 -1.2497  0.1264
58318SOL    HW292947   4.251   5.500   1.095  0.7775 -0.4261 -2.1703
58319SOL     OW92948  11.845   7.814  14.131 -0.2001 -0.1438  0.6848
58319SOL    HW192949  11.753   7.800  14.154 -1.1691  2.4613 -1.1199
58319SOL    HW292950  11.885   7.848  14.211 -1.2748  0.4207  1.0047
58320SOL     OW92951   6.994   5.485   3.146 -0.4518  0.1942  0.1071
58320SOL    HW192952   7.061   5.441   3.094  1.6511  0.6612  2.2203
58320SOL    HW292953   6.970   5.561   3.094 -0.7651 -0.9935 -1.5403
58321SOL     OW92954  11.959   3.823   5.433 -0.1493 -0.1542  0.2509
58321SOL    HW192955  11.973   3.908   5.473 -1.7173  0.7113 -0.9268
58321SOL    HW292956  11.992   3.760   5.497  1.7335  1.3324  0.8182
58322SOL     OW92957  13.895  10.807   7.528  0.0314  0.0791  0.7148
58322SOL    HW192958  13.885  10.735   7.467 -2.3351  1.1140 -0.2787
58322SOL    HW292959  13.978  10.848   7.504 -0.5437  0.0984 -1.4764
58323SOL     OW92960   8.592  10.194   4.800 -0.0505  0.1095 -0.2159
58323SOL    HW192961   8.614  10.280   4.764 -0.9628  0.6626  0.4937
58323SOL    HW292962   8.533  10.156   4.734 -2.1924  1.3609  0.8550
58324SOL     OW92963   8.793   0.658   0.335 -0.0939  0.1705  0.0436
58324SOL    HW192964   8.791   0.599   0.260 -0.0153  1.4708 -1.0365
58324SOL    HW292965   8.782   0.602   0.411 -1.1835 -1.1018 -1.0015
58325SOL     OW92966   4.482   0.896  12.345 -0.1949  0.4441 -0.2429
58325SOL    HW192967   4.516   0.921  12.431  0.8218  0.1109 -0.5310
58325SOL    HW292968   4.424   0.968  12.320  0.0485  0.8763  0.4121
58326SOL     OW92969   6.525   4.310   2.619 -0.1685  0.3100 -0.1972
58326SOL    HW192970   6.599   4.251   2.604 -0.9185 -1.2229  1.6375
58326SOL    HW292971   6.560   4.380   2.673  0.3488  0.6378 -0.9430
58327SOL     OW92972   6.398   3.238   7.563  0.0410 -0.2144 -0.0753
58327SOL    HW192973   6.391   3.288   7.644 -0.8694 -0.9606  0.3248
58327SOL    HW292974   6.395   3.146   7.590 -0.6077 -0.4763 -0.9654
58328SOL     OW92975   8.275   6.112  11.492  0.2127  0.1929  0.4017
58328SOL    HW192976   8.344   6.055  11.526 -0.5192 -0.9272  0.0460
58328SOL    HW292977   8.209   6.114  11.562  0.2037  0.5693  0.3878
58329SOL     OW92978   4.189   5.860   1.035  0.8291 -0.3989 -0.8340
58329SOL    HW192979   4.191   5.765   1.043 -0.2427 -0.5803 -2.2330
58329SOL    HW292980   4.204   5.893   1.124  0.8267 -1.8704 -0.2675
58330SOL     OW92981   7.491   8.006  12.043  0.7047 -0.1866 -0.0831
58330SOL    HW192982   7.458   8.069  11.978 -1.6254 -0.2921  0.8834
58330SOL    HW292983   7.549   8.056  12.099 -2.0888  1.6181  1.4671
58331SOL     OW92984  12.364  13.766   6.277 -0.2005  0.6594  0.0381
58331SOL    HW192985  12.321  13.711   6.342 -0.8411 -0.2351 -1.1043
58331SOL    HW292986  12.357  13.855   6.313 -0.8155  0.2250  1.0335
58332SOL     OW92987   9.847  13.441   1.922  0.0834  0.0747  0.2780
58332SOL    HW192988   9.899  13.515   1.891  1.8783 -1.3044 -0.2261
58332SOL    HW292989   9.873  13.368   1.866 -0.8983 -1.1659  1.3513
58333SOL     OW92990   7.855   6.178  12.520  0.0901  0.0770  0.2580
58333SOL    HW192991   7.918   6.219  12.463 -0.4684  1.7675  0.8078
58333SOL    HW292992   7.867   6.220  12.605 -1.9747  0.7205  0.2987
58334SOL     OW92993   6.093   4.013   2.898  0.0707  0.0276 -0.6557
58334SOL    HW192994   6.042   4.029   2.977  1.5309  0.2499  0.2697
58334SOL    HW292995   6.118   4.100   2.867  1.2636 -0.1146 -0.1511
58335SOL     OW92996   1.432   2.906   3.481 -0.2551  0.0659  0.2980
58335SOL    HW192997   1.484   2.944   3.551  0.7181  0.6947 -0.7355
58335SOL    HW292998   1.494   2.852   3.431 -1.3034 -1.8055  0.9192
58336SOL     OW92999   4.344  12.384  12.070  0.3795 -0.2076  0.1714
58336SOL    HW193000   4.311  12.437  11.998  0.3240  0.4794  0.7011
58336SOL    HW293001   4.271  12.378  12.132 -0.1416 -2.1483 -0.5383
58337SOL     OW93002   5.750   2.638   9.713  0.3872 -0.1953 -0.4859
58337SOL    HW193003   5.687   2.663   9.780  1.7027  1.2070  0.2984
58337SOL    HW293004   5.749   2.710   9.651  2.7702  1.0059  0.7249
58338SOL     OW93005   8.034   5.950  10.605  0.0621  0.5000  0.3534
58338SOL    HW193006   8.097   5.942  10.534  0.1346  2.2118  0.1814
58338SOL    HW293007   8.027   5.861  10.641  1.8326  0.0767 -0.2288
58339SOL     OW93008   9.349  11.173  12.281  1.1188  0.1689 -0.0672
58339SOL    HW193009   9.323  11.223  12.358  0.4228 -0.1782 -0.0670
58339SOL    HW293010   9.407  11.232  12.232  1.3972  0.4609  0.6133
58340SOL     OW93011   9.650   7.170   7.492 -0.1989  0.3741  0.6285
58340SOL    HW193012   9.674   7.155   7.401  0.4338 -0.7680  0.9663
58340SOL    HW293013   9.607   7.256   7.491  1.0086  1.0113 -0.5129
58341SOL     OW93014  11.007   7.902   7.893  0.5755  0.4357  0.0525
58341SOL    HW193015  11.075   7.969   7.902  1.2345 -0.2686  0.4050
58341SOL    HW293016  10.926   7.947   7.917  0.9063  1.2825 -0.3579
58342SOL     OW93017   9.922   9.613   9.817 -0.5048  0.0394  0.1753
58342SOL    HW193018   9.865   9.659   9.879 -0.2432 -1.1123  1.3254
58342SOL    HW293019   9.862   9.578   9.751 -1.0826 -0.5826  1.0016
58343SOL     OW93020   5.094   9.080   7.570 -0.1983 -0.0216  0.3450
58343SOL    HW193021   5.019   9.125   7.610 -1.4115 -2.3295  0.8529
58343SOL    HW293022   5.161   9.081   7.638 -0.8681 -0.5298  1.0341
58344SOL     OW93023  11.032   1.113   6.343  0.1893 -0.2750 -0.2994
58344SOL    HW193024  11.110   1.060   6.355 -0.8510 -1.8442 -0.1190
58344SOL    HW293025  11.028   1.129   6.248  1.3633  0.8794 -0.1739
58345SOL     OW93026   5.996   5.858  13.171 -0.2013  0.2968  0.2039
58345SOL    HW193027   6.043   5.795  13.116 -1.6344 -1.4631  0.8576
58345SOL    HW293028   5.915   5.876  13.123 -0.5413  0.3314  0.7714
58346SOL     OW93029   3.902   0.528   8.350 -0.6388  0.2244 -0.2009
58346SOL    HW193030   3.943   0.448   8.383  1.2556  2.0486  2.2771
58346SOL    HW293031   3.813   0.526   8.385  0.0871  0.1903  1.7406
58347SOL     OW93032  10.625   7.921   9.794  0.3286  0.6079 -0.5249
58347SOL    HW193033  10.563   7.913   9.866  1.5734 -2.7151  0.3842
58347SOL    HW293034  10.571   7.935   9.717 -1.5451 -1.1529  0.3646
58348SOL     OW93035   7.422  12.007   7.562 -0.5155  0.3142 -0.0036
58348SOL    HW193036   7.345  12.039   7.516 -1.8407 -1.3524  0.9373
58348SOL    HW293037   7.465  11.948   7.500  0.9876  2.4462 -1.1190
58349SOL     OW93038   8.208   6.034  13.821  0.5046  0.5228  0.2486
58349SOL    HW193039   8.263   6.023  13.899 -1.5122 -2.1222  1.4328
58349SOL    HW293040   8.252   5.983  13.753  1.8067  2.1349 -0.2033
58350SOL     OW93041   8.536   1.139  12.458 -0.1643 -0.0119 -0.7774
58350SOL    HW193042   8.550   1.188  12.539 -0.0454  0.8141 -1.2821
58350SOL    HW293043   8.481   1.065  12.483  0.5527 -0.2269  0.2044
58351SOL     OW93044   6.945   0.642   4.152 -0.4281  0.5300  0.3481
58351SOL    HW193045   6.956   0.627   4.059  0.8285  0.9855  0.3991
58351SOL    HW293046   6.858   0.608   4.172 -0.5917  0.1514 -0.9212
58352SOL     OW93047   2.747  10.174   5.080 -0.3171  0.4750  0.4302
58352SOL    HW193048   2.698  10.136   5.154 -1.2822  1.5522  0.3758
58352SOL    HW293049   2.762  10.265   5.106 -0.7776  0.8983 -0.7509
58353SOL     OW93050   5.707  12.730   7.072 -0.3398  0.0989  0.5797
58353SOL    HW193051   5.775  12.665   7.054  0.0247 -0.1163  2.5382
58353SOL    HW293052   5.744  12.786   7.140 -0.7983  2.1744 -0.7873
58354SOL     OW93053   7.733   5.581   2.778 -0.0878  0.3236  0.5832
58354SOL    HW193054   7.639   5.600   2.779 -0.1093  0.3099  2.5445
58354SOL    HW293055   7.738   5.486   2.769 -0.1924  0.4212 -0.8000
58355SOL     OW93056   8.520   1.524  10.733  1.0034  0.0371  0.2462
58355SOL    HW193057   8.479   1.603  10.699  1.7042 -0.4845 -1.9978
58355SOL    HW293058   8.453   1.483  10.786  0.2108  1.5003  0.4245
58356SOL     OW93059  10.628   9.411   7.070 -0.4528  0.1781 -0.2252
58356SOL    HW193060  10.599   9.407   7.161 -1.7558  0.6012 -0.6009
58356SOL    HW293061  10.631   9.505   7.050  1.9728  0.2283  0.0025
58357SOL     OW93062  10.084   3.408  11.009 -0.1709  0.2141  0.4031
58357SOL    HW193063   9.990   3.420  10.995 -0.4395  0.1014  1.9275
58357SOL    HW293064  10.119   3.497  11.012 -0.2430  0.2595 -0.0055
58358SOL     OW93065   5.877  11.423   1.264  0.4897 -0.6118 -0.0462
58358SOL    HW193066   5.805  11.484   1.246 -0.3198 -1.8736 -1.2598
58358SOL    HW293067   5.952  11.462   1.219  0.0075 -0.4483 -0.7283
58359SOL     OW93068   7.262   2.441  12.440  0.3270  0.0479  0.7686
58359SOL    HW193069   7.328   2.374  12.460  0.3988 -0.0012  0.3855
58359SOL    HW293070   7.212   2.451  12.521  0.3076 -0.4804  0.8242
58360SOL     OW93071   3.602  13.148   4.191 -0.0249 -0.4471  0.3052
58360SOL    HW193072   3.602  13.228   4.244 -4.0155 -0.4405  0.6235
58360SOL    HW293073   3.582  13.078   4.252  0.2201 -1.2186 -0.4732
58361SOL     OW93074   3.562   2.455  12.650  0.5343 -0.2220 -0.0663
58361SOL    HW193075   3.502   2.519  12.687  1.9026  0.9963  0.1314
58361SOL    HW293076   3.597   2.408  12.726 -0.2033 -0.9817 -0.1860
58362SOL     OW93077   1.793   6.977  10.568  0.2123  0.3889  0.1259
58362SOL    HW193078   1.853   7.051  10.566 -0.3638  0.8702  0.4178
58362SOL    HW293079   1.821   6.926  10.644  0.1131  0.7312  0.3960
58363SOL     OW93080   3.929   1.965   2.607  0.8444 -0.1733 -0.0330
58363SOL    HW193081   3.981   1.897   2.564  0.6150 -0.0982 -0.4301
58363SOL    HW293082   3.845   1.924   2.625  0.5429  0.1321 -0.6876
58364SOL     OW93083   9.603  13.981  11.273  0.7539 -0.7094 -0.0268
58364SOL    HW193084   9.554  14.059  11.248  0.4047 -0.6001  0.9448
58364SOL    HW293085   9.578  13.915  11.208  0.5553 -0.2012 -0.4766
58365SOL     OW93086   1.027  13.598  12.522 -0.1594  0.6020 -0.1662
58365SOL    HW193087   1.084  13.638  12.455  0.1641  0.6979  0.1627
58365SOL    HW293088   1.010  13.510  12.489  0.5323  0.4227 -0.0627
58366SOL     OW93089   4.085   4.015   8.141  0.0240 -0.0965 -0.7387
58366SOL    HW193090   4.098   3.951   8.072 -1.3092 -2.1312  0.8009
58366SOL    HW293091   4.001   3.992   8.181 -0.8889  3.0780 -0.5535
58367SOL     OW93092   1.493   4.844   9.907 -0.3622 -0.0485  0.1796
58367SOL    HW193093   1.473   4.818   9.997  1.1372 -2.6038 -0.1485
58367SOL    HW293094   1.469   4.937   9.903 -1.6102 -0.1758  2.8337
58368SOL     OW93095   0.811   1.305  13.481  0.1553  0.3661 -0.0422
58368SOL    HW193096   0.816   1.259  13.398 -1.1548 -1.6477  0.9174
58368SOL    HW293097   0.807   1.398  13.457  1.2884 -0.0605 -2.1146
58369SOL     OW93098  13.570   5.306   3.403 -0.0161 -0.4863 -0.0257
58369SOL    HW193099  13.581   5.230   3.346 -0.8258 -0.6429  0.0221
58369SOL    HW293100  13.632   5.291   3.475  1.4345 -0.0088 -1.1183
58370SOL     OW93101   8.397   2.792   7.519  0.2675  0.3488 -0.6366
58370SOL    HW193102   8.432   2.725   7.577  0.0205 -0.9987 -1.9928
58370SOL    HW293103   8.312   2.814   7.556  0.6063  0.3797  0.1571
58371SOL     OW93104   9.399  11.533   7.399  0.2896 -0.0897  0.5358
58371SOL    HW193105   9.360  11.457   7.442  0.5853  0.1653  1.2778
58371SOL    HW293106   9.345  11.607   7.428  1.1196  0.2240  1.3255
58372SOL     OW93107  11.887   3.049   8.697  0.0096  0.0819  0.0434
58372SOL    HW193108  11.982   3.046   8.685  0.2631  2.6301  0.8608
58372SOL    HW293109  11.869   3.140   8.720 -2.3370 -0.8765  2.4048
58373SOL     OW93110  11.263   6.028  12.140 -0.2235  0.5221 -0.0585
58373SOL    HW193111  11.280   5.995  12.052  0.9378 -0.7613  0.5858
58373SOL    HW293112  11.350   6.046  12.176 -0.5694 -0.3227  1.2881
58374SOL     OW93113   1.298   5.176   8.767  0.1855  0.0878 -0.5021
58374SOL    HW193114   1.321   5.230   8.691  2.0687 -1.1057 -0.8278
58374SOL    HW293115   1.261   5.238   8.830 -0.5618  1.2499 -2.0167
58375SOL     OW93116   8.289   4.675   7.957  0.0008 -0.2420 -0.4688
58375SOL    HW193117   8.321   4.602   8.009 -1.0530  0.2075  0.8517
58375SOL    HW293118   8.309   4.650   7.866  2.3435 -0.7892  0.1440
58376SOL     OW93119   1.735   8.683  12.603 -0.6357  0.2054  0.5968
58376SOL    HW193120   1.717   8.597  12.640  0.6837  0.0217  0.8332
58376SOL    HW293121   1.652   8.708  12.561 -0.9524 -1.2978  0.2572
58377SOL     OW93122  12.938  12.559   7.662 -0.3186 -0.1202 -0.3951
58377SOL    HW193123  12.894  12.610   7.729 -1.1676  0.9285 -1.6953
58377SOL    HW293124  12.875  12.491   7.638 -0.7880  0.6276 -1.3823
58378SOL     OW93125   5.479   3.438  10.810  0.2538 -0.5331 -0.2698
58378SOL    HW193126   5.389   3.465  10.797  0.2902  0.4836  1.2964
58378SOL    HW293127   5.514   3.424  10.722 -1.1259  0.0490 -0.9250
58379SOL     OW93128   8.609   5.108  11.824 -0.2713 -0.2798 -1.0960
58379SOL    HW193129   8.635   5.144  11.909 -0.8695 -1.5053 -0.3705
58379SOL    HW293130   8.651   5.023  11.820 -0.7590 -0.4937 -1.7444
58380SOL     OW93131   8.450   0.398   2.516  0.1139  0.6739 -0.0411
58380SOL    HW193132   8.524   0.366   2.566  0.7587 -0.4139 -1.6037
58380SOL    HW293133   8.470   0.375   2.425 -1.5441  1.4964 -0.6712
58381SOL     OW93134  12.674  11.377  12.298 -0.0787  0.3247 -0.5484
58381SOL    HW193135  12.677  11.291  12.255  1.2964  0.3151 -0.5007
58381SOL    HW293136  12.737  11.368  12.370  0.7474  1.6461 -1.0786
58382SOL     OW93137  10.171  11.985  12.201 -1.0029  0.4324  0.1830
58382SOL    HW193138  10.149  12.006  12.292 -1.5975 -0.1812  0.1845
58382SOL    HW293139  10.184  11.890  12.200 -2.3231  0.2437 -0.6421
58383SOL     OW93140  10.042   4.800   7.432  0.1025 -0.3820  0.0348
58383SOL    HW193141  10.124   4.823   7.389  0.3014  0.1573  0.6844
58383SOL    HW293142   9.974   4.841   7.377  0.3995  0.9938  0.6531
58384SOL     OW93143   3.917   0.977  13.546  0.4328  0.2013  0.1386
58384SOL    HW193144   4.005   0.949  13.572  0.4407 -0.5369 -0.6170
58384SOL    HW293145   3.887   1.032  13.618  0.2099 -2.1826  1.9818
58385SOL     OW93146  13.538   7.354   2.315 -0.2158  0.0993 -0.4808
58385SOL    HW193147  13.516   7.275   2.364 -1.8105  0.4411 -0.5861
58385SOL    HW293148  13.543   7.423   2.381 -1.8239  0.4539 -0.6787
58386SOL     OW93149  13.404   4.835  12.675 -0.4681  0.2913 -0.3477
58386SOL    HW193150  13.409   4.931  12.665 -1.6856  0.2580 -1.8192
58386SOL    HW293151  13.327   4.811  12.624 -0.7787 -1.3890  0.8400
58387SOL     OW93152   8.180   7.306   8.382  0.4102 -0.2629  0.8192
58387SOL    HW193153   8.262   7.354   8.386 -0.3457  1.9151 -3.6786
58387SOL    HW293154   8.113   7.373   8.366 -1.1203 -2.3593 -2.8650
58388SOL     OW93155   1.328   8.865   7.050  0.2619 -0.0169 -0.2444
58388SOL    HW193156   1.259   8.870   6.985  1.0309  2.8376 -0.9853
58388SOL    HW293157   1.407   8.842   7.000  0.4019 -0.3217  0.1085
58389SOL     OW93158   9.541  10.568   8.527  0.8980  0.0297  0.3525
58389SOL    HW193159   9.502  10.498   8.579 -0.5117  0.4483 -0.0935
58389SOL    HW293160   9.585  10.524   8.455 -2.5839 -0.3970 -1.7165
58390SOL     OW93161   0.019   9.809   4.821  0.0338  0.1008  0.3289
58390SOL    HW193162   0.066   9.858   4.888 -0.5016  0.7689  0.2130
58390SOL    HW293163   0.055   9.720   4.827  1.1119  0.5357  0.4311
58391SOL     OW93164  10.053   3.317   6.444 -0.0116 -0.1479  0.2809
58391SOL    HW193165  10.062   3.382   6.513  0.0797  0.2996 -0.1446
58391SOL    HW293166  10.089   3.237   6.481 -0.6222 -0.0953  1.0045
58392SOL     OW93167   8.577   8.557   3.719  0.0041  0.2884 -0.4493
58392SOL    HW193168   8.635   8.619   3.674  0.2855  0.3661  0.0222
58392SOL    HW293169   8.502   8.611   3.745 -0.5512  0.0830 -1.5333
58393SOL     OW93170  12.786   7.462   7.558  0.2707 -0.0296  0.4704
58393SOL    HW193171  12.779   7.416   7.642  1.0798 -1.1709 -0.0528
58393SOL    HW293172  12.764   7.395   7.493 -2.6578  1.4209 -0.1853
58394SOL     OW93173   3.762   5.007   9.985  0.4024 -0.7823 -0.1304
58394SOL    HW193174   3.717   4.949  10.046 -1.0071  0.9265  0.5059
58394SOL    HW293175   3.853   5.007  10.014 -0.3485  0.5215  2.4672
58395SOL     OW93176   7.094  13.926   9.439 -0.0487  0.4098  0.5527
58395SOL    HW193177   7.049  13.845   9.415  2.7059 -0.9489 -0.4699
58395SOL    HW293178   7.054  13.952   9.522 -0.4659 -2.4609  1.3510
58396SOL     OW93179   3.596   4.595   0.721  0.5027 -0.2308 -0.5149
58396SOL    HW193180   3.635   4.556   0.643  1.5438 -0.9504  0.3357
58396SOL    HW293181   3.508   4.557   0.726  1.1180 -1.6559 -0.2959
58397SOL     OW93182   9.820  10.236   5.983 -0.9807  0.3634 -0.2576
58397SOL    HW193183   9.880  10.209   6.053 -1.6610 -1.0446 -0.1856
58397SOL    HW293184   9.743  10.270   6.029 -0.8221  0.8375 -0.3395
58398SOL     OW93185   0.549  11.308  11.498 -0.7422  0.1707 -0.0809
58398SOL    HW193186   0.541  11.255  11.420 -0.7139 -1.7595  1.1706
58398SOL    HW293187   0.643  11.310  11.517 -0.5811  1.8343 -0.8381
58399SOL     OW93188   5.747   3.123   6.118 -0.4339  0.3344  0.0093
58399SOL    HW193189   5.688   3.053   6.144 -1.7586  0.6175 -1.9847
58399SOL    HW293190   5.754   3.179   6.195  1.3308 -2.3132  1.9524
58400SOL     OW93191   2.636   7.112  10.955  0.1543  0.4599  0.2600
58400SOL    HW193192   2.640   7.180  10.887 -0.3673  1.6622  1.3769
58400SOL    HW293193   2.709   7.054  10.936  1.2951  1.9581 -0.1166
58401SOL     OW93194  12.798   4.460   9.260  0.7363 -0.1478 -0.1655
58401SOL    HW193195  12.848   4.387   9.224  1.7048  0.1329  0.5421
58401SOL    HW293196  12.864   4.527   9.279  0.1307  0.1546  1.0161
58402SOL     OW93197   2.142   4.194  11.371 -0.2373 -0.5629 -0.1528
58402SOL    HW193198   2.126   4.214  11.463 -1.4534  0.6216 -0.5891
58402SOL    HW293199   2.055   4.183  11.333  0.2031 -0.1440 -1.3301
58403SOL     OW93200   8.839   7.064  12.049  0.1559 -0.2693  0.2701
58403SOL    HW193201   8.778   6.992  12.065 -0.0999 -0.4221 -1.1718
58403SOL    HW293202   8.882   7.040  11.967  1.0097  0.6058  0.4503
58404SOL     OW93203   4.320   0.813   5.792  0.7025 -0.7406  0.9025
58404SOL    HW193204   4.253   0.838   5.856 -0.6809 -0.7929 -0.4930
58404SOL    HW293205   4.321   0.884   5.729 -0.4233 -2.2295 -0.8942
58405SOL     OW93206   4.864  11.897   6.015 -0.0566  0.2534  0.2003
58405SOL    HW193207   4.838  11.947   6.092  1.1984 -2.4602  2.5719
58405SOL    HW293208   4.958  11.912   6.007 -0.0908  0.1379 -0.5196
58406SOL     OW93209   7.522   2.995  12.554 -0.3988  0.2458 -0.3342
58406SOL    HW193210   7.457   3.029  12.493 -1.4527  2.1272  1.6775
58406SOL    HW293211   7.568   3.073  12.586  0.2128 -0.6715  1.1169
58407SOL     OW93212   4.960   2.255  11.807  0.5324  0.3662 -0.2485
58407SOL    HW193213   5.017   2.317  11.852  0.6224 -0.3460  0.6424
58407SOL    HW293214   5.006   2.236  11.725  0.2775  1.8165 -0.7707
58408SOL     OW93215   8.418   0.989   2.076  0.0474  0.4116  0.3815
58408SOL    HW193216   8.512   0.973   2.084 -0.2249 -1.0281  0.8652
58408SOL    HW293217   8.379   0.948   2.154 -1.2601 -1.6149 -1.2404
58409SOL     OW93218  10.512   8.507  12.100  0.1247  0.1385 -0.3066
58409SOL    HW193219  10.502   8.438  12.165 -2.6430 -0.8841 -1.6397
58409SOL    HW293220  10.575   8.473  12.037 -2.0392 -1.8237 -1.5612
58410SOL     OW93221   3.701  12.719  13.668  0.5091 -0.6881  0.0797
58410SOL    HW193222   3.792  12.734  13.692  0.7876  0.2813 -1.5101
58410SOL    HW293223   3.652  12.783  13.720  0.5909 -1.8647  1.6859
58411SOL     OW93224  12.420   2.820   9.321  0.4561  0.0348  1.1211
58411SOL    HW193225  12.356   2.869   9.270 -1.5082  0.2738  3.5752
58411SOL    HW293226  12.382   2.733   9.331  1.7113 -0.5997  0.6366
58412SOL     OW93227   4.578   3.860  13.567 -0.0049  0.3294  0.4065
58412SOL    HW193228   4.534   3.838  13.649  1.5228 -0.4405  1.0532
58412SOL    HW293229   4.592   3.776  13.523 -0.0210  0.6562 -0.2393
58413SOL     OW93230   4.371  13.486   7.805 -0.3347 -0.0727  0.2279
58413SOL    HW193231   4.334  13.416   7.859 -2.7752  0.8083 -0.1721
58413SOL    HW293232   4.349  13.462   7.715 -3.2152  2.1090  0.1771
58414SOL     OW93233  10.522   6.187  10.868  0.9542 -0.3228  0.2303
58414SOL    HW193234  10.582   6.215  10.937 -0.6763 -1.0322  2.0019
58414SOL    HW293235  10.439   6.229  10.889  0.2968 -0.8972 -1.0821
58415SOL     OW93236  11.351   4.578   0.913 -0.2628 -0.1685  0.1873
58415SOL    HW193237  11.301   4.649   0.955  0.0158 -0.0375  0.2999
58415SOL    HW293238  11.289   4.506   0.905 -0.8146  0.3794 -0.7301
58416SOL     OW93239  10.789   9.048   7.077  0.5600  0.1623 -0.0013
58416SOL    HW193240  10.697   9.074   7.076  0.7853  0.9932  0.1948
58416SOL    HW293241  10.817   9.055   6.985  0.5158  0.2305 -0.0093
58417SOL     OW93242  12.491   3.116   5.495  0.0782 -0.1916  0.4723
58417SOL    HW193243  12.540   3.034   5.485  1.9033  0.3844  3.4912
58417SOL    HW293244  12.418   3.108   5.434  0.0180 -4.1787  0.8296
58418SOL     OW93245   2.754   3.124   6.330 -0.1430  0.8577  0.2820
58418SOL    HW193246   2.835   3.099   6.375 -0.7622  0.6293  1.2948
58418SOL    HW293247   2.689   3.130   6.400 -1.4753 -0.8886 -0.7355
58419SOL     OW93248   3.744   8.276   0.671 -0.1106 -0.2660 -0.1360
58419SOL    HW193249   3.719   8.314   0.755  1.6835 -0.9372  0.7731
58419SOL    HW293250   3.797   8.200   0.695 -0.3549 -1.0317 -1.8938
58420SOL     OW93251  11.697  12.548   4.447  0.1517  0.0976 -0.3630
58420SOL    HW193252  11.673  12.494   4.522 -1.4880 -0.0802 -0.9494
58420SOL    HW293253  11.764  12.608   4.479  2.2011 -2.3635  0.2781
58421SOL     OW93254  13.115  12.653   1.041 -0.6556 -0.3327 -0.6327
58421SOL    HW193255  13.161  12.576   1.075  2.5121  1.5013 -0.2982
58421SOL    HW293256  13.154  12.667   0.954  0.9854  2.3848  0.4143
58422SOL     OW93257  10.975   5.328   2.066 -0.4211  0.5913  0.4066
58422SOL    HW193258  11.057   5.376   2.072 -0.1914  0.2367  0.1470
58422SOL    HW293259  10.956   5.325   1.972  0.9445 -2.0984  0.1290
58423SOL     OW93260   3.566  12.763   8.165  0.5049  0.5020 -0.3695
58423SOL    HW193261   3.596  12.681   8.203 -0.2492  0.9875  1.3915
58423SOL    HW293262   3.602  12.764   8.077  0.0298 -1.9878 -0.6449
58424SOL     OW93263   8.198   3.799   5.334  0.1601 -0.8886 -0.5304
58424SOL    HW193264   8.132   3.761   5.277  1.0159  0.2967 -2.4292
58424SOL    HW293265   8.278   3.749   5.315  0.3236 -0.8716  0.0908
58425SOL     OW93266  10.250   0.056   5.523 -0.1155 -0.0353 -0.4136
58425SOL    HW193267  10.161   0.053   5.559 -0.9615 -1.5015 -2.4235
58425SOL    HW293268  10.267  -0.034   5.493  2.6815 -0.1891  1.2236
58426SOL     OW93269   6.280   9.376  13.514  0.4748  0.0509 -0.1106
58426SOL    HW193270   6.252   9.460  13.478 -0.4874 -0.6595 -1.0915
58426SOL    HW293271   6.360   9.355  13.466  0.6152  0.3084  0.0060
58427SOL     OW93272   0.372   1.295   4.558 -0.2759 -0.2036  0.2062
58427SOL    HW193273   0.291   1.345   4.553  0.1875  0.5887  0.5379
58427SOL    HW293274   0.352   1.222   4.616 -1.1471 -0.7907 -0.7897
58428SOL     OW93275   9.308   3.903  13.833 -0.6178  0.1522  0.0988
58428SOL    HW193276   9.314   3.999  13.828  0.4957  0.0396 -1.7898
58428SOL    HW293277   9.383   3.877  13.886  0.2528  0.2388 -1.0637
58429SOL     OW93278  11.463   7.682  11.197  0.1677  0.2746  0.3475
58429SOL    HW193279  11.420   7.601  11.170 -0.5260  0.3956  1.0367
58429SOL    HW293280  11.549   7.679  11.156 -1.3621  1.2378 -3.3486
58430SOL     OW93281   1.352   4.005  10.432 -0.4135  0.3282  0.4577
58430SOL    HW193282   1.273   4.040  10.389 -1.5016 -1.9356  0.4808
58430SOL    HW293283   1.378   3.931  10.378  1.5024  0.7785  0.6944
58431SOL     OW93284  14.061   8.327   4.767 -0.0413 -0.3134 -0.2895
58431SOL    HW193285  14.051   8.422   4.759 -0.0656 -0.4097 -1.7160
58431SOL    HW293286  13.978   8.291   4.736 -0.1209 -0.8040  0.4656
58432SOL     OW93287   1.795   9.014   2.370 -0.2193 -0.2200 -0.3499
58432SOL    HW193288   1.861   9.082   2.379  0.5722 -0.8863 -1.0264
58432SOL    HW293289   1.734   9.048   2.305 -0.2812  0.1907 -0.0798
58433SOL     OW93290   0.402   0.199  12.188 -0.1353  0.0496 -0.3135
58433SOL    HW193291   0.459   0.219  12.262  0.5405  0.4965 -0.9484
58433SOL    HW293292   0.313   0.203  12.225  0.2138 -0.2630  0.5885
58434SOL     OW93293   0.707   2.144  10.512 -0.9372  0.5048 -0.1755
58434SOL    HW193294   0.735   2.151  10.421  0.7632 -0.8226  0.1860
58434SOL    HW293295   0.631   2.085  10.510 -1.0048  0.6075 -0.7480
58435SOL     OW93296  13.744   9.359  13.325 -0.0769 -0.4800 -0.7691
58435SOL    HW193297  13.661   9.314  13.310  0.1103 -1.2783  0.4396
58435SOL    HW293298  13.728   9.413  13.403 -0.1112  1.1371 -1.8328
58436SOL     OW93299   3.081   6.981   2.399  0.4931  0.1534 -0.7257
58436SOL    HW193300   3.070   7.076   2.405 -1.7140  0.1004 -2.6168
58436SOL    HW293301   2.995   6.946   2.422  1.4842 -1.4956  0.7436
58437SOL     OW93302   5.626   6.851   4.124 -0.0316 -0.3747 -0.2058
58437SOL    HW193303   5.611   6.823   4.033 -1.4218 -0.8010  0.1249
58437SOL    HW293304   5.673   6.934   4.116 -1.5764  0.4408 -1.3768
58438SOL     OW93305   0.363   2.318  10.504  1.0130  0.5969 -0.2914
58438SOL    HW193306   0.404   2.386  10.451  1.2377  0.9174  0.2789
58438SOL    HW293307   0.348   2.245  10.444  0.7576  1.1585 -0.9118
58439SOL     OW93308  13.692  11.084   7.628 -0.8079  0.0003 -0.3809
58439SOL    HW193309  13.752  11.034   7.682  0.2358 -0.5346 -1.9765
58439SOL    HW293310  13.722  11.174   7.636 -1.9322  0.2810  1.5039
58440SOL     OW93311   7.816   4.261  10.664  0.3286 -0.4338  0.3589
58440SOL    HW193312   7.803   4.355  10.666 -1.7944 -0.6658 -0.5506
58440SOL    HW293313   7.871   4.246  10.586  0.2702  0.0052  0.2339
58441SOL     OW93314   4.722  12.497   2.487  0.2892 -1.0304  0.0721
58441SOL    HW193315   4.773  12.442   2.547  0.6380 -0.7547  0.0303
58441SOL    HW293316   4.788  12.538   2.430  0.0516 -0.3576  0.2793
58442SOL     OW93317  12.497   7.391  10.880  0.6593 -0.1178  0.3317
58442SOL    HW193318  12.573   7.436  10.843  1.1044 -0.0840  1.2441
58442SOL    HW293319  12.470   7.447  10.953 -0.3506 -0.0463 -0.0799
58443SOL     OW93320   4.037   8.964   8.569  0.3573  0.0938  0.0872
58443SOL    HW193321   4.052   8.893   8.506  0.0366 -0.1021  0.2330
58443SOL    HW293322   4.080   9.040   8.529  0.5029 -0.1253 -0.1788
58444SOL     OW93323   4.011   6.612   1.305 -0.7445  0.0901 -0.2908
58444SOL    HW193324   4.002   6.574   1.218  0.2558 -2.1222  0.4939
58444SOL    HW293325   3.985   6.542   1.365  1.0215  0.6414  1.2480
58445SOL     OW93326   3.176  13.011  10.734  0.3065 -0.3230  0.3469
58445SOL    HW193327   3.207  12.928  10.769  0.8894 -0.1715  0.2171
58445SOL    HW293328   3.174  13.070  10.810 -1.1318 -0.7307  0.6364
58446SOL     OW93329   2.868   9.754   3.918 -0.0927 -0.6089 -0.0533
58446SOL    HW193330   2.829   9.700   3.987 -0.2423  0.1476  0.4636
58446SOL    HW293331   2.859   9.701   3.838 -0.4572 -1.2385  0.3942
58447SOL     OW93332  11.462   3.999   3.095  0.3866  0.0509 -0.2684
58447SOL    HW193333  11.542   4.033   3.054  1.6830 -0.5028  1.6533
58447SOL    HW293334  11.458   3.908   3.066  0.4494  0.0844 -0.3834
58448SOL     OW93335   7.017   3.173  10.937 -0.2446  0.3718  0.0070
58448SOL    HW193336   7.030   3.179  10.842 -1.3734  0.1863 -0.1796
58448SOL    HW293337   6.978   3.086  10.951  0.5454  0.1224  0.7244
58449SOL     OW93338   2.225   6.941   5.587  0.1134 -0.1908 -0.3299
58449SOL    HW193339   2.294   6.993   5.546  0.7690 -0.6043  0.2153
58449SOL    HW293340   2.213   6.866   5.529  1.5053 -1.1218  0.4972
58450SOL     OW93341   5.269   9.214   6.115 -0.3268  0.2102  0.3876
58450SOL    HW193342   5.185   9.176   6.143  0.1531  0.0254  1.6059
58450SOL    HW293343   5.333   9.144   6.129  0.4399  1.1635  1.8592
58451SOL     OW93344  10.453  10.594   9.158 -0.1243 -0.6673 -0.4883
58451SOL    HW193345  10.497  10.509   9.154  1.5364  0.1088  0.2299
58451SOL    HW293346  10.435  10.616   9.067  1.1412 -0.9659 -0.8333
58452SOL     OW93347   9.735   7.769   4.264 -0.1757  0.4495 -0.0586
58452SOL    HW193348   9.783   7.850   4.248 -0.3849  0.2639 -1.8792
58452SOL    HW293349   9.661   7.773   4.204  0.4134 -1.5695 -1.0048
58453SOL     OW93350   3.639   4.991  10.947  0.5483  0.0313  0.4163
58453SOL    HW193351   3.688   5.059  10.992  0.9829  0.3254 -0.4716
58453SOL    HW293352   3.641   4.916  11.007  2.0206  0.0648  0.4511
58454SOL     OW93353   3.695   2.993  11.430 -0.0006  0.1230 -0.0416
58454SOL    HW193354   3.717   2.918  11.485  0.4194  0.3719  0.1305
58454SOL    HW293355   3.602   3.009  11.447 -0.1164 -0.4173 -0.1511
58455SOL     OW93356   4.143   8.624  12.998 -0.0325  0.2392  0.2248
58455SOL    HW193357   4.163   8.674  13.077 -0.2182  0.2988  0.2353
58455SOL    HW293358   4.052   8.649  12.977  0.6165  1.6900 -1.0873
58456SOL     OW93359   1.297   1.360  11.978  0.4815  0.2267 -0.2033
58456SOL    HW193360   1.272   1.386  11.890 -0.2627  0.2420 -0.0001
58456SOL    HW293361   1.283   1.265  11.980  0.0985  0.2845  0.0156
58457SOL     OW93362   3.641  11.479   5.083  0.3106  0.3039 -0.2838
58457SOL    HW193363   3.580  11.473   5.156  1.1386  2.5260  0.6662
58457SOL    HW293364   3.633  11.394   5.039  1.1794 -1.9710  3.4677
58458SOL     OW93365   0.175   7.298   1.042 -0.0507 -0.0941  0.2954
58458SOL    HW193366   0.202   7.379   1.000  1.5385 -0.3454  0.7687
58458SOL    HW293367   0.248   7.238   1.028 -1.1405 -1.4165  0.0550
58459SOL     OW93368   7.842   3.427   9.426 -0.1592 -0.0677  0.4102
58459SOL    HW193369   7.838   3.484   9.349 -1.0458  0.8003  1.0665
58459SOL    HW293370   7.758   3.442   9.470 -0.1572 -1.4442  0.9201
58460SOL     OW93371   1.119   7.201   6.633  0.4021  0.3661 -0.6938
58460SOL    HW193372   1.072   7.272   6.678  0.0981  0.5621 -1.3038
58460SOL    HW293373   1.211   7.215   6.656  0.2335  0.3895 -0.0387
58461SOL     OW93374   1.348  12.761  11.590  0.2088  0.2318 -0.4332
58461SOL    HW193375   1.378  12.824  11.656  2.6023 -1.1673 -0.0670
58461SOL    HW293376   1.281  12.709  11.636  0.0356  0.8631  0.0533
58462SOL     OW93377  11.636   0.142   5.458 -0.2258  0.2478  0.2838
58462SOL    HW193378  11.726   0.111   5.467 -0.5655 -0.6699  0.6206
58462SOL    HW293379  11.640   0.233   5.486  0.5905  0.2062  0.3461
58463SOL     OW93380   1.335   8.462  12.695 -0.7953 -0.4135 -0.3999
58463SOL    HW193381   1.249   8.437  12.728 -1.6277  0.2754 -1.9277
58463SOL    HW293382   1.357   8.542  12.743 -1.9304  0.5068 -1.3450
58464SOL     OW93383   9.758   1.025  10.883  0.4496  0.0767 -0.5194
58464SOL    HW193384   9.791   1.055  10.968 -1.9787 -0.4986  0.7120
58464SOL    HW293385   9.757   0.929  10.890 -0.3704  0.0437 -0.9492
58465SOL     OW93386  12.614   2.595   1.979 -0.3839  0.5203 -0.1219
58465SOL    HW193387  12.611   2.679   1.934 -0.2246 -0.1735 -1.4924
58465SOL    HW293388  12.669   2.610   2.056 -0.0819  1.5748 -0.5313
58466SOL     OW93389   0.453   2.793  12.676 -0.2499 -0.3225 -0.0452
58466SOL    HW193390   0.502   2.871  12.651 -0.6995 -0.0426 -0.0753
58466SOL    HW293391   0.519   2.727  12.697  0.1364  0.4413  1.1807
58467SOL     OW93392   4.592   4.622  10.602 -0.3810 -0.3176  0.4020
58467SOL    HW193393   4.529   4.693  10.617  1.0717  0.8983  0.9790
58467SOL    HW293394   4.537   4.546  10.581 -2.0452  0.6402  1.0533
58468SOL     OW93395   9.091   6.591   2.166 -0.3510 -0.1716  1.1222
58468SOL    HW193396   8.998   6.606   2.153 -0.1558 -0.0826 -0.2676
58468SOL    HW293397   9.106   6.503   2.133  0.3887  0.5369 -0.5644
58469SOL     OW93398  11.928   5.780   2.317  0.0621  0.0612 -0.3921
58469SOL    HW193399  12.021   5.791   2.295  0.4711  0.4927  1.3919
58469SOL    HW293400  11.927   5.770   2.412 -1.7531  0.3067 -0.3545
58470SOL     OW93401   9.548   6.205   1.119  0.0090 -0.3744 -0.0220
58470SOL    HW193402   9.586   6.278   1.070  1.4853 -0.2957  1.1745
58470SOL    HW293403   9.453   6.213   1.104  0.1126  1.8367  0.1545
58471SOL     OW93404   4.539   7.955   2.056 -0.4864  0.0074  0.2677
58471SOL    HW193405   4.594   7.877   2.047 -1.4549 -0.7665  0.8230
58471SOL    HW293406   4.547   8.000   1.971  1.2102  0.0877  0.4407
58472SOL     OW93407   2.660   9.855  13.794  0.3754 -0.3420 -0.1224
58472SOL    HW193408   2.746   9.830  13.828  1.2636  1.2027 -1.1348
58472SOL    HW293409   2.677   9.879  13.703 -1.3873 -1.3185 -0.7583
58473SOL     OW93410  12.602   6.859  10.128  0.0340 -0.8145 -0.1470
58473SOL    HW193411  12.510   6.834  10.118  0.1234 -1.3891  0.4035
58473SOL    HW293412  12.639   6.792  10.185  0.9175 -0.8507 -0.7411
58474SOL     OW93413   2.355   7.853   1.329  0.2615 -0.1684 -0.2519
58474SOL    HW193414   2.357   7.944   1.359 -0.9935 -0.3797  0.5456
58474SOL    HW293415   2.266   7.840   1.295  0.4268 -1.0788 -0.3796
58475SOL     OW93416  10.349   3.028   4.303  0.4432  0.1893  0.0912
58475SOL    HW193417  10.263   3.070   4.302 -1.0732 -2.2604 -4.5508
58475SOL    HW293418  10.408   3.093   4.265 -0.5964  0.1867 -1.6149
58476SOL     OW93419   5.285   4.392   8.505  0.5091 -0.1914 -0.2058
58476SOL    HW193420   5.364   4.390   8.559  0.9185 -1.2528 -0.8251
58476SOL    HW293421   5.286   4.478   8.463  0.2819  0.5814  1.3020
58477SOL     OW93422   0.401  12.404   9.799  0.3796  0.6149  0.3899
58477SOL    HW193423   0.323  12.357   9.830  1.6733 -0.3535  2.4204
58477SOL    HW293424   0.463  12.334   9.778  1.3111  1.3867  0.5273
58478SOL     OW93425   3.052  12.706   7.424  0.5115  0.9446  0.1259
58478SOL    HW193426   3.065  12.642   7.493 -0.3593  0.1269 -0.4392
58478SOL    HW293427   3.080  12.789   7.462  0.8012  0.3742  1.1759
58479SOL     OW93428   6.349   3.461  10.548  0.0483 -0.3855 -0.1683
58479SOL    HW193429   6.289   3.392  10.576 -1.9975  1.6862  0.8092
58479SOL    HW293430   6.398   3.484  10.627  0.5051 -0.4485 -0.4230
58480SOL     OW93431  12.011   1.095  13.864 -0.0331 -0.5438  0.1113
58480SOL    HW193432  12.019   1.139  13.948 -2.4697 -0.6535  0.4657
58480SOL    HW293433  11.945   1.146  13.816 -0.2804 -1.7287 -0.8738
58481SOL     OW93434   1.725   1.640  12.174  0.5992 -0.4483  0.4084
58481SOL    HW193435   1.659   1.574  12.196  0.9359 -0.9782 -0.1123
58481SOL    HW293436   1.738   1.690  12.255 -0.0099 -0.7123  0.6764
58482SOL     OW93437   6.257   7.515  11.486 -0.0703 -0.5212 -0.1715
58482SOL    HW193438   6.214   7.434  11.460 -1.2804 -0.2892  0.9765
58482SOL    HW293439   6.293   7.550  11.405 -2.2275 -0.6414 -1.2667
58483SOL     OW93440   5.226  11.320  13.634 -0.4941  0.7399  0.0172
58483SOL    HW193441   5.241  11.371  13.554 -0.0289  0.1668 -0.2630
58483SOL    HW293442   5.179  11.243  13.605  0.5934  0.0117  0.1220
58484SOL     OW93443  11.794  12.647   5.989  0.1057  0.3235  0.0583
58484SOL    HW193444  11.860  12.591   5.948 -0.6703 -0.9484  0.5069
58484SOL    HW293445  11.738  12.675   5.917  1.6019  2.1565 -0.4824
58485SOL     OW93446  10.681   9.966   8.821 -0.2319 -0.0683  0.2216
58485SOL    HW193447  10.675   9.878   8.785  0.2518  0.1050 -0.3020
58485SOL    HW293448  10.656   9.956   8.913 -2.1453 -0.4041 -0.2910
58486SOL     OW93449   4.437  12.823   1.968  0.7867  0.2532  0.4885
58486SOL    HW193450   4.394  12.764   2.029  1.4235  1.2758  2.0024
58486SOL    HW293451   4.527  12.790   1.963  0.2841 -0.9889 -1.4899
58487SOL     OW93452   1.924   5.068   3.402 -0.2782 -0.1557  0.3060
58487SOL    HW193453   2.020   5.068   3.392 -0.0983 -0.7144  1.7724
58487SOL    HW293454   1.891   5.057   3.313  1.0331 -0.1507 -0.2048
58488SOL     OW93455   8.263  13.573   1.829 -0.4280 -0.1286  0.0136
58488SOL    HW193456   8.289  13.658   1.865  2.4943 -0.4906 -0.9702
58488SOL    HW293457   8.168  13.578   1.821 -0.5111  2.3614  1.6420
58489SOL     OW93458   0.887   1.161   7.486  0.0931 -0.0652  0.2912
58489SOL    HW193459   0.936   1.105   7.547  0.6541 -0.0363 -0.1263
58489SOL    HW293460   0.900   1.120   7.401  0.5452  0.7124 -0.0270
58490SOL     OW93461   2.385   2.470  12.782  0.2569  0.1806 -0.2765
58490SOL    HW193462   2.455   2.466  12.846  0.1123  2.2071  0.0636
58490SOL    HW293463   2.426   2.505  12.703  0.0644 -0.6608 -0.7659
58491SOL     OW93464   2.625   3.865  12.964 -1.1040  0.0576 -0.8434
58491SOL    HW193465   2.557   3.808  12.928 -1.4807  0.6505 -1.0888
58491SOL    HW293466   2.595   3.954  12.944 -1.3658  0.4213  1.0115
58492SOL     OW93467   3.534   5.740   3.450 -0.1749  0.0177 -0.5082
58492SOL    HW193468   3.547   5.676   3.380  0.0892  2.4952 -2.8398
58492SOL    HW293469   3.615   5.790   3.453 -0.4101  0.3503  1.2095
58493SOL     OW93470  11.581   1.983   8.140 -0.3657 -0.5220  0.2440
58493SOL    HW193471  11.577   1.965   8.234  0.0539 -2.4751 -0.0706
58493SOL    HW293472  11.638   1.915   8.105 -0.8112 -0.0529 -1.4974
58494SOL     OW93473  14.034   4.754   0.724 -0.5052  0.0755 -0.4148
58494SOL    HW193474  13.971   4.821   0.751 -3.0941 -2.5252  0.4590
58494SOL    HW293475  13.990   4.706   0.654  1.3202 -0.7282 -1.0887
58495SOL     OW93476   2.962   8.169  12.819  0.3080 -0.7247  0.5052
58495SOL    HW193477   3.004   8.119  12.749 -1.9645 -0.0229 -1.5125
58495SOL    HW293478   2.920   8.104  12.874  1.7820 -1.2757  1.0009
58496SOL     OW93479  11.052   1.033   4.101 -0.2894  0.0713  0.5657
58496SOL    HW193480  11.001   1.027   4.021  0.4284 -0.9441  0.1554
58496SOL    HW293481  11.042   0.947   4.143  0.1906  0.2273  1.0226
58497SOL     OW93482   2.281   8.359   2.598 -0.0768  0.4444 -0.2640
58497SOL    HW193483   2.223   8.429   2.569 -1.1639 -0.8115 -1.2355
58497SOL    HW293484   2.369   8.389   2.574 -0.3765  2.0586  0.5858
58498SOL     OW93485   5.189  12.263  12.526  0.6215  0.2339 -1.3077
58498SOL    HW193486   5.275  12.252  12.486  1.9426 -1.5807  1.6384
58498SOL    HW293487   5.207  12.309  12.608 -1.4310  1.0274 -1.2534
58499SOL     OW93488   2.416  11.093   1.833 -0.1817 -0.2875  0.3430
58499SOL    HW193489   2.372  11.145   1.766  1.2259  0.4113 -0.0775
58499SOL    HW293490   2.444  11.013   1.788  0.3923 -0.0043  0.1794
58500SOL     OW93491   6.331   5.703   7.821  0.1800  0.3164  0.0829
58500SOL    HW193492   6.258   5.754   7.856  0.6532 -0.9194  3.1761
58500SOL    HW293493   6.407   5.733   7.871  1.0579 -1.1332 -0.3280
58501SOL     OW93494   6.781  13.570   7.855  0.1667  0.2899  0.3024
58501SOL    HW193495   6.814  13.516   7.926  0.4942  2.4957  1.9196
58501SOL    HW293496   6.857  13.586   7.799  0.4128  0.2797  0.6330
58502SOL     OW93497   3.588  10.903  11.999 -0.2082  0.6172 -0.2411
58502SOL    HW193498   3.660  10.956  12.034  0.4970  0.2547 -1.1057
58502SOL    HW293499   3.524  10.968  11.968 -0.0787  0.9447  0.1704
58503SOL     OW93500  10.537   8.892   6.543  0.4014 -0.5271  0.2148
58503SOL    HW193501  10.522   8.866   6.452 -1.4862  0.5234  0.1944
58503SOL    HW293502  10.555   8.809   6.588 -0.3340 -1.2597 -0.7888
58504SOL     OW93503  12.946   6.319   1.268 -0.4334 -0.2889  0.0125
58504SOL    HW193504  12.918   6.407   1.241 -0.5052 -0.3994 -0.2787
58504SOL    HW293505  12.902   6.304   1.351 -1.3849 -0.5250 -0.5204
58505SOL     OW93506  12.213   4.888  11.050 -0.2005  0.0325  0.3269
58505SOL    HW193507  12.222   4.797  11.077  0.7270 -0.0892 -0.3276
58505SOL    HW293508  12.156   4.886  10.974  0.6784 -0.1367 -0.3380
58506SOL     OW93509   0.532  10.840   6.453 -0.4437  0.2857 -0.6407
58506SOL    HW193510   0.498  10.753   6.471 -1.4381  0.8140  0.1898
58506SOL    HW293511   0.576  10.866   6.534  0.7250  0.1740 -1.2272
58507SOL     OW93512   4.086  11.820   6.588  0.2505  0.0880  0.2874
58507SOL    HW193513   4.115  11.908   6.563  0.6385 -0.1501 -0.1245
58507SOL    HW293514   4.032  11.791   6.514 -0.1593  0.1108  0.5756
58508SOL     OW93515   3.172   8.178  11.976  0.2020 -0.1903  0.5482
58508SOL    HW193516   3.163   8.084  11.991  0.7618  0.0638  2.7879
58508SOL    HW293517   3.258   8.189  11.937  0.6288 -0.5278  1.3759
58509SOL     OW93518  13.019  10.793   2.353 -0.2180 -0.0620  0.2257
58509SOL    HW193519  12.940  10.783   2.407 -0.2395 -2.1472 -0.1215
58509SOL    HW293520  13.054  10.704   2.346  1.6325  0.6917 -0.4488
58510SOL     OW93521  11.190  11.848  11.771  0.5525 -0.2891  0.6420
58510SOL    HW193522  11.225  11.914  11.831  0.7505 -0.0372  0.2487
58510SOL    HW293523  11.108  11.885  11.739  0.6383 -0.2517  0.4613
58511SOL     OW93524  13.835  10.761  10.447 -0.4646 -0.5030  0.0441
58511SOL    HW193525  13.851  10.712  10.528  0.4018  0.3551  0.4112
58511SOL    HW293526  13.751  10.804  10.461  1.2330  2.5551  2.0479
58512SOL     OW93527   1.998   9.567  10.556  0.0391  0.6486 -0.7416
58512SOL    HW193528   2.055   9.558  10.480 -0.6266 -0.0401 -1.1695
58512SOL    HW293529   2.052   9.614  10.620 -0.2328  3.6209 -2.5097
58513SOL     OW93530   9.198   3.191  11.075 -0.0037  0.0663  0.4137
58513SOL    HW193531   9.259   3.127  11.112 -0.1058 -1.6618 -2.1508
58513SOL    HW293532   9.118   3.141  11.060 -1.5053  1.8414  1.9614
58514SOL     OW93533   9.269  12.982   2.632 -0.6634 -0.1109 -0.0763
58514SOL    HW193534   9.238  13.031   2.556  0.2983 -1.7146 -1.5755
58514SOL    HW293535   9.332  12.920   2.596  0.8275 -0.0427  2.2328
58515SOL     OW93536   2.637   9.066   3.362  0.6569  0.3390  0.0620
58515SOL    HW193537   2.696   9.068   3.286  1.0455  0.8856  0.3775
58515SOL    HW293538   2.690   9.030   3.433  0.0315 -1.0389 -0.1358
58516SOL     OW93539  10.534  10.972   8.099 -0.5184  0.3966 -0.2149
58516SOL    HW193540  10.553  10.884   8.067  0.2597  1.0520 -1.6840
58516SOL    HW293541  10.605  10.991   8.161  0.2703  0.5832 -1.1482
58517SOL     OW93542   7.314   4.042   2.871 -0.5952 -0.0525 -0.2271
58517SOL    HW193543   7.384   4.106   2.884  0.7563 -1.2797 -1.0939
58517SOL    HW293544   7.269   4.070   2.791 -0.2878  0.0747 -0.3564
58518SOL     OW93545   7.540  13.411   7.730  0.0958 -0.3625 -0.1962
58518SOL    HW193546   7.635  13.423   7.724 -0.0036 -0.0391 -1.2336
58518SOL    HW293547   7.521  13.339   7.671 -0.3877 -0.0073 -0.4747
58519SOL     OW93548   0.060   1.568   0.235  0.1693  0.6538  0.0832
58519SOL    HW193549   0.042   1.531   0.149  0.4428  0.9660 -0.1136
58519SOL    HW293550   0.107   1.500   0.281 -0.0041  0.4735 -0.0025
58520SOL     OW93551   1.538   0.846  13.883  0.2291 -0.1339  0.4059
58520SOL    HW193552   1.537   0.940  13.868 -1.2068 -0.3039 -0.7542
58520SOL    HW293553   1.462   0.830  13.939 -1.4532 -0.9242 -1.9414
58521SOL     OW93554  10.147   6.108   7.299  0.3668 -0.4801 -0.6048
58521SOL    HW193555  10.064   6.138   7.264  0.3271 -1.1821 -1.1521
58521SOL    HW293556  10.199   6.187   7.312 -0.0412 -0.1147 -1.1727
58522SOL     OW93557  12.369   2.597  13.230  0.3045 -0.2904  0.2193
58522SOL    HW193558  12.299   2.538  13.204 -0.3082  0.2111  0.6840
58522SOL    HW293559  12.402   2.561  13.313 -0.5033  0.3575  0.8366
58523SOL     OW93560  10.232   9.391   3.848  0.1043 -0.2010  1.0280
58523SOL    HW193561  10.327   9.399   3.858  0.5189 -3.7701  1.3223
58523SOL    HW293562  10.214   9.427   3.761  1.4725  1.6659  1.4473
58524SOL     OW93563   7.007  13.556   2.721 -0.3514 -0.8760 -0.1410
58524SOL    HW193564   7.007  13.650   2.738 -0.4090 -0.8279 -0.4019
58524SOL    HW293565   6.953  13.519   2.791 -1.1645 -0.6076 -0.6224
58525SOL     OW93566  13.683   6.939  13.920 -0.5284  0.2845 -0.0233
58525SOL    HW193567  13.777   6.943  13.904 -0.7444  0.1917 -1.4198
58525SOL    HW293568  13.671   6.863  13.976  0.3237  0.8974  1.0433
58526SOL     OW93569   5.326  12.727   4.262 -0.6775 -0.4030  0.0516
58526SOL    HW193570   5.323  12.672   4.340  1.4187  2.3621  2.2857
58526SOL    HW293571   5.394  12.688   4.207  0.4546 -0.3786  1.3837
58527SOL     OW93572   8.964   9.068   1.896 -0.0587  0.1964 -0.0121
58527SOL    HW193573   8.988   9.118   1.818  1.3949  1.5644  1.2294
58527SOL    HW293574   8.994   9.122   1.969 -3.8952  0.3258  1.6674
58528SOL     OW93575  12.139   5.063   0.949  0.3559  0.2654 -0.7663
58528SOL    HW193576  12.140   5.023   1.036 -0.2644 -1.4320 -1.4956
58528SOL    HW293577  12.229   5.093   0.935  0.8695 -0.9495 -0.2045
58529SOL     OW93578  10.428   0.790   2.525  0.3216 -0.0889  0.1680
58529SOL    HW193579  10.512   0.793   2.478 -1.1609  1.3352 -2.5998
58529SOL    HW293580  10.375   0.729   2.474 -0.5203 -0.5749  1.5970
58530SOL     OW93581   4.331   7.396  11.482  0.3846 -0.2707  0.2496
58530SOL    HW193582   4.334   7.310  11.441 -0.4872 -0.0772 -0.2657
58530SOL    HW293583   4.237   7.418  11.483  0.6614  1.0342 -0.4240
58531SOL     OW93584   4.899  11.884   3.699  0.3012  0.4564  0.4074
58531SOL    HW193585   4.833  11.948   3.726 -0.6117 -0.2350 -0.1457
58531SOL    HW293586   4.929  11.914   3.614 -0.6867 -0.2414 -0.2082
58532SOL     OW93587   7.907  13.993  11.012  0.1794 -0.1300 -0.1597
58532SOL    HW193588   7.827  14.029  10.975  0.7096  1.1593 -0.0883
58532SOL    HW293589   7.919  14.039  11.095  1.3257  0.1718 -0.4764
58533SOL     OW93590   5.833   6.938   5.114  0.0388  0.2695  0.4799
58533SOL    HW193591   5.919   6.898   5.122  0.3035  0.3309 -1.4750
58533SOL    HW293592   5.774   6.865   5.092  0.0839  0.5544 -0.6807
58534SOL     OW93593   5.636   2.047  10.766 -0.3780 -0.0355  0.3127
58534SOL    HW193594   5.599   1.958  10.765 -0.6450  0.0234 -2.3875
58534SOL    HW293595   5.720   2.038  10.809 -0.4917 -1.5745  0.2597
58535SOL     OW93596   8.512   0.830   0.765 -0.1601  0.1353 -0.6989
58535SOL    HW193597   8.594   0.781   0.772 -0.6891 -0.6881 -0.0916
58535SOL    HW293598   8.528   0.910   0.814  0.9291  0.9076 -2.2341
58536SOL     OW93599  10.376  11.534  11.377 -0.2564 -0.6470 -0.2438
58536SOL    HW193600  10.346  11.444  11.362 -0.9377 -0.1252 -2.3976
58536SOL    HW293601  10.453  11.543  11.321  1.1442 -0.5168  1.6268
58537SOL     OW93602  11.248   0.636  10.692  0.0685  0.3239 -0.1972
58537SOL    HW193603  11.210   0.560  10.646  0.1882 -0.8306  1.5263
58537SOL    HW293604  11.342   0.624  10.682  0.0695  0.9496 -0.9924
58538SOL     OW93605   0.391   1.174  10.579  0.4318 -0.7011  0.2067
58538SOL    HW193606   0.470   1.193  10.630  1.8248  0.0657 -2.0930
58538SOL    HW293607   0.355   1.094  10.619  2.0150 -0.7160  1.7094
58539SOL     OW93608   0.312   1.240   9.949 -0.4721 -0.4840 -0.0334
58539SOL    HW193609   0.357   1.323   9.966 -0.7898 -0.0088 -1.3471
58539SOL    HW293610   0.364   1.174   9.994 -0.0723  0.3993  0.8257
58540SOL     OW93611   0.638   0.320   3.770 -0.2798  0.3561 -0.3195
58540SOL    HW193612   0.589   0.402   3.778 -1.1441 -0.2703  1.2431
58540SOL    HW293613   0.718   0.335   3.821 -0.0340  0.5177 -0.7520
58541SOL     OW93614  10.376   0.197  13.650  0.3262 -0.2275 -0.6982
58541SOL    HW193615  10.358   0.103  13.646 -1.6449  0.1535 -1.9068
58541SOL    HW293616  10.439   0.206  13.722  0.8264 -2.4903 -0.7725
58542SOL     OW93617  12.586   8.255  13.585 -0.1512  1.0602 -0.1904
58542SOL    HW193618  12.562   8.231  13.675  1.7015  1.0986  0.3562
58542SOL    HW293619  12.531   8.331  13.565 -2.8919 -0.7862 -0.3164
58543SOL     OW93620   4.444  13.027   5.282  0.6806 -0.9175 -0.1490
58543SOL    HW193621   4.517  12.965   5.278  1.0294 -0.6843  1.7164
58543SOL    HW293622   4.415  13.036   5.192  0.4171 -4.0352 -0.4701
58544SOL     OW93623   6.434  12.103  13.283  0.0596 -0.1249 -0.8558
58544SOL    HW193624   6.476  12.049  13.216 -1.3335  1.6515 -3.3620
58544SOL    HW293625   6.375  12.160  13.233 -0.8243  1.5619  1.9088
58545SOL     OW93626   7.215  11.375  13.952 -0.4228  0.0360 -0.4625
58545SOL    HW193627   7.157  11.299  13.943 -0.0356 -0.5115  1.2936
58545SOL    HW293628   7.303  11.339  13.946 -0.2467  0.4577 -0.3969
58546SOL     OW93629   1.059   1.879  13.982  0.1678  0.0778 -0.3888
58546SOL    HW193630   1.040   1.800  14.033  3.6138  0.2739  1.5092
58546SOL    HW293631   1.084   1.847  13.896 -0.5643 -0.7220 -0.3148
58547SOL     OW93632   2.808   7.873  12.541  0.0297 -0.4074  0.8969
58547SOL    HW193633   2.790   7.962  12.571 -1.5261 -1.0033  1.8471
58547SOL    HW293634   2.882   7.845  12.595  1.3528  0.6877 -0.2603
58548SOL     OW93635   4.534   6.170   6.625  0.6949  0.4033  0.3069
58548SOL    HW193636   4.472   6.217   6.680  1.9402  2.3794  0.1107
58548SOL    HW293637   4.510   6.194   6.535  1.0533  0.2904  0.1787
58549SOL     OW93638   1.010   2.753  10.941 -0.6789 -0.0631 -0.0405
58549SOL    HW193639   1.034   2.660  10.940 -0.4391 -0.0293  0.9568
58549SOL    HW293640   1.092   2.799  10.924  0.4146  0.0853  4.2889
58550SOL     OW93641  11.085  13.118   6.426  0.2842 -0.1093  0.2009
58550SOL    HW193642  11.177  13.121   6.401  0.9120  3.9019  2.1833
58550SOL    HW293643  11.087  13.110   6.522 -1.5110 -1.0532  0.2011
58551SOL     OW93644   9.935   0.685   7.514 -1.2698  0.5927 -0.2540
58551SOL    HW193645   9.843   0.659   7.510 -1.1182 -0.0970  0.4142
58551SOL    HW293646   9.981   0.613   7.470 -0.9529  0.3550  0.4580
58552SOL     OW93647   0.399   5.258   3.645 -0.1041  0.2782 -0.4598
58552SOL    HW193648   0.456   5.315   3.696 -0.1962 -0.7834  0.8840
58552SOL    HW293649   0.337   5.317   3.603 -0.7124  1.1411  1.5556
58553SOL     OW93650   4.237   6.005  13.471 -0.1979 -0.0165  0.3461
58553SOL    HW193651   4.200   5.957  13.546 -1.7930 -0.1164 -0.4483
58553SOL    HW293652   4.161   6.025  13.416  1.0464 -1.0051 -1.8681
58554SOL     OW93653  10.324   1.894   5.705  0.1536 -0.2385 -0.4641
58554SOL    HW193654  10.398   1.905   5.764 -1.1047 -1.3853  1.4320
58554SOL    HW293655  10.314   1.799   5.696 -1.2104 -0.1122 -0.4767
58555SOL     OW93656   3.637   0.169  11.630  0.4300 -0.4609 -1.1009
58555SOL    HW193657   3.709   0.109  11.611  1.0663  0.2040 -0.8591
58555SOL    HW293658   3.633   0.226  11.553  0.8562  0.1577 -0.6788
58556SOL     OW93659  10.294   3.078  14.077  0.1732 -0.1579 -0.0631
58556SOL    HW193660  10.272   3.067  13.984 -0.8803 -0.6714  0.2362
58556SOL    HW293661  10.217   3.120  14.115 -0.0835 -1.4617  0.9116
58557SOL     OW93662   2.381   4.393   4.510  0.8150  0.5603  0.4164
58557SOL    HW193663   2.412   4.483   4.509 -2.5515  1.9218 -1.7199
58557SOL    HW293664   2.361   4.374   4.601  0.0705  2.6253  0.7186
58558SOL     OW93665   4.208   4.301   7.878  0.7460 -0.2771 -0.1101
58558SOL    HW193666   4.155   4.311   7.799  0.8969  3.3518  0.0989
58558SOL    HW293667   4.253   4.217   7.866 -1.3560 -1.1860 -2.5086
58559SOL     OW93668  10.695   0.329   2.236  0.3103  0.8116 -0.1522
58559SOL    HW193669  10.724   0.266   2.302 -0.3821  1.3996  0.7502
58559SOL    HW293670  10.705   0.283   2.153  2.6280  0.5776  0.1954
58560SOL     OW93671   8.588   9.099   3.969  0.8028 -0.2523 -0.2065
58560SOL    HW193672   8.648   9.029   3.943  1.1077 -0.1020  0.0783
58560SOL    HW293673   8.603   9.110   4.063 -0.7130 -1.2006  0.1809
58561SOL     OW93674   9.881   9.529   3.005 -0.0948  0.2990 -0.6004
58561SOL    HW193675   9.967   9.554   3.038 -0.8810 -0.6651  2.4747
58561SOL    HW293676   9.849   9.608   2.960  2.2716  0.7050 -1.7399
58562SOL     OW93677   7.559   3.583  13.298  0.5132  0.5541 -0.5221
58562SOL    HW193678   7.534   3.665  13.342  0.5391 -0.3373  1.2404
58562SOL    HW293679   7.484   3.525  13.313  0.4837  0.2543 -1.7918
58563SOL     OW93680   0.103   9.459   7.453  0.8535  0.3544  0.4773
58563SOL    HW193681   0.029   9.484   7.397  0.6369  0.5643  0.8467
58563SOL    HW293682   0.078   9.374   7.490 -0.8236  1.8768  3.2767
58564SOL     OW93683   7.207  10.420   0.980 -0.1225 -0.5269  0.4677
58564SOL    HW193684   7.258  10.390   1.055  0.2373 -0.0385  0.4274
58564SOL    HW293685   7.216  10.351   0.914 -1.5213 -1.5876  1.3236
58565SOL     OW93686   5.986   9.627   6.063 -0.2681 -0.0872  0.7250
58565SOL    HW193687   5.964   9.719   6.050 -1.8815 -0.7848 -2.6190
58565SOL    HW293688   6.078   9.620   6.039 -0.5650  0.4216 -0.5907
58566SOL     OW93689   9.690  12.491   6.842  0.1630 -0.0671  0.1462
58566SOL    HW193690   9.732  12.577   6.849  1.3926 -0.6723  0.4642
58566SOL    HW293691   9.596  12.510   6.847  0.1578  1.6451 -3.4364
58567SOL     OW93692  12.382   7.939   2.244  0.5524 -0.1058  0.3448
58567SOL    HW193693  12.383   7.843   2.245 -0.8245 -0.2202 -1.9828
58567SOL    HW293694  12.475   7.964   2.247  0.9295 -1.4967  0.9506
58568SOL     OW93695  11.810  10.510  11.008  0.3563 -0.0579  0.2034
58568SOL    HW193696  11.851  10.423  11.008  1.3797  0.4095  1.0900
58568SOL    HW293697  11.868  10.564  11.061 -0.0671  1.2773 -0.6490
58569SOL     OW93698   0.680  12.292   1.697  0.0515  0.2663 -0.2631
58569SOL    HW193699   0.616  12.338   1.644 -1.1026 -0.0118  0.8199
58569SOL    HW293700   0.712  12.221   1.641 -3.2898 -1.8576  0.2067
58570SOL     OW93701   4.312   6.223   7.125  0.6077 -0.1453 -0.1995
58570SOL    HW193702   4.327   6.152   7.187  2.0528 -0.7477 -1.1909
58570SOL    HW293703   4.276   6.180   7.047  0.1465  0.4155 -0.3079
58571SOL     OW93704   1.168   2.384   3.553 -0.5983  0.2510 -0.1649
58571SOL    HW193705   1.119   2.315   3.597 -0.7142 -0.0311 -0.7211
58571SOL    HW293706   1.185   2.349   3.466 -0.1771  0.7054 -0.2693
58572SOL     OW93707   7.161   2.461   6.223 -0.1742 -1.0366 -0.5186
58572SOL    HW193708   7.109   2.459   6.303 -1.4292 -1.1047 -1.3083
58572SOL    HW293709   7.214   2.540   6.231 -2.4422  0.6224 -0.8854
58573SOL     OW93710   2.198   8.369  10.585  0.1032 -0.4622 -0.5908
58573SOL    HW193711   2.206   8.424  10.662 -1.3384 -0.0176 -0.7288
58573SOL    HW293712   2.268   8.398  10.527  0.1392  0.3626 -0.1430
58574SOL     OW93713  11.202   4.801  12.132 -0.0273  0.0208 -0.0396
58574SOL    HW193714  11.201   4.844  12.047  0.4128 -1.8217 -1.0289
58574SOL    HW293715  11.187   4.871  12.195 -1.6873  1.2501 -1.6975
58575SOL     OW93716  12.108   9.839  10.581  0.3727  0.3789  0.1441
58575SOL    HW193717  12.157   9.886  10.648 -0.6806 -0.0760  1.2697
58575SOL    HW293718  12.078   9.759  10.624 -0.3453  0.0818 -0.8635
58576SOL     OW93719  10.197  12.333  12.405 -0.1954  1.0899 -0.3211
58576SOL    HW193720  10.165  12.394  12.471 -1.9828  1.9796 -1.8969
58576SOL    HW293721  10.279  12.371  12.375  1.5465 -0.2039  2.4541
58577SOL     OW93722   6.857  10.927   2.992  0.6086 -0.7526  0.0405
58577SOL    HW193723   6.858  10.838   2.957  0.4018 -1.2767  1.2715
58577SOL    HW293724   6.911  10.922   3.071 -0.7365 -0.2107  1.0379
58578SOL     OW93725   0.146   3.760  11.199  0.3773 -0.4284 -0.1393
58578SOL    HW193726   0.120   3.681  11.153 -2.1426  0.1187  0.1559
58578SOL    HW293727   0.167   3.731  11.288  0.1681 -0.8637 -0.2306
58579SOL     OW93728   2.891   2.261   1.398  0.8261  0.1671  0.0061
58579SOL    HW193729   2.957   2.192   1.389  1.1447  0.2832  1.2949
58579SOL    HW293730   2.942   2.342   1.400  0.4980  0.4012 -0.8654
58580SOL     OW93731  10.328  14.086  12.645  0.1229  0.4347 -0.3991
58580SOL    HW193732  10.275  14.007  12.655  0.3017  0.2306 -0.9901
58580SOL    HW293733  10.282  14.137  12.579 -1.8427  2.4377  2.2761
58581SOL     OW93734  11.262  12.242  12.016 -0.1175 -0.8833 -0.7176
58581SOL    HW193735  11.312  12.288  12.084  2.2950 -0.1330 -2.8482
58581SOL    HW293736  11.194  12.195  12.064  0.8639  0.3577  2.1002
58582SOL     OW93737   1.170   6.771   1.753 -0.3900 -0.6355 -0.7314
58582SOL    HW193738   1.183   6.808   1.841  1.1348 -0.0769 -1.1554
58582SOL    HW293739   1.090   6.813   1.722  0.3693  1.0881 -0.5226
58583SOL     OW93740   3.665   0.971  13.965 -0.2250 -0.0645  0.2495
58583SOL    HW193741   3.741   0.970  14.024  0.0240  0.3939 -0.0502
58583SOL    HW293742   3.698   1.013  13.885  0.0307 -2.5493 -1.0390
58584SOL     OW93743  10.994  10.656   0.566  0.2296 -0.0086 -0.2306
58584SOL    HW193744  11.031  10.567   0.564 -0.0455 -0.1843  1.3259
58584SOL    HW293745  10.909  10.647   0.522 -0.6007 -0.9472  1.4561
58585SOL     OW93746   7.548   2.012   3.684 -0.0934  0.0356  0.7717
58585SOL    HW193747   7.490   1.954   3.635 -0.2897  0.1720  0.8425
58585SOL    HW293748   7.492   2.085   3.711  0.4277  0.9479 -0.4825
58586SOL     OW93749  13.106   9.566   0.687 -0.3389  0.4198  0.9200
58586SOL    HW193750  13.027   9.556   0.635  0.5197 -2.6826 -0.0196
58586SOL    HW293751  13.098   9.499   0.755  1.3133  0.2043  0.9450
58587SOL     OW93752  13.497   2.539   8.581  0.2899  0.4787 -0.4077
58587SOL    HW193753  13.546   2.593   8.519 -0.2164  0.5532 -0.7533
58587SOL    HW293754  13.561   2.512   8.646  0.9407 -0.0213 -1.2485
58588SOL     OW93755   5.152   5.724   3.612 -0.0965 -0.3952 -0.0537
58588SOL    HW193756   5.132   5.676   3.693 -1.3848  2.5370  1.5521
58588SOL    HW293757   5.076   5.708   3.556  0.3687 -1.6943 -0.3488
58589SOL     OW93758   9.451  13.420   7.202  0.0423  0.7362 -0.0514
58589SOL    HW193759   9.356  13.430   7.213  0.0404  0.1426  0.5104
58589SOL    HW293760   9.462  13.393   7.111 -0.1446  3.1232 -0.8552
58590SOL     OW93761  11.158   7.186   4.081 -1.3128  0.1698  0.5290
58590SOL    HW193762  11.136   7.260   4.137  1.2551  1.2105  0.3025
58590SOL    HW293763  11.234   7.216   4.031 -0.6051 -2.3891 -0.0621
58591SOL     OW93764   1.020  13.537   4.701  0.1974  0.5664  0.0592
58591SOL    HW193765   1.090  13.482   4.667 -0.8585 -0.5426 -0.4030
58591SOL    HW293766   0.940  13.489   4.680 -0.6687  1.4838  1.1555
58592SOL     OW93767   6.185   0.566  12.526  0.0919 -0.4000 -0.6007
58592SOL    HW193768   6.168   0.501  12.594 -1.8539 -0.8248 -1.4006
58592SOL    HW293769   6.109   0.559  12.468  0.9338  1.0362 -1.9484
58593SOL     OW93770   0.083   6.299   8.079 -0.2406  0.1048 -0.4370
58593SOL    HW193771   0.076   6.270   8.170 -0.9495 -1.1828 -0.8672
58593SOL    HW293772   0.016   6.367   8.071  1.2530  1.7608  0.5203
58594SOL     OW93773   1.909  12.777  13.033 -0.0488 -0.2444 -0.0911
58594SOL    HW193774   1.848  12.836  13.076  0.4601 -0.0709  0.4165
58594SOL    HW293775   1.874  12.690  13.050  0.2426 -0.1903  0.8537
58595SOL     OW93776   5.260  13.659   1.970  0.2548 -0.3939  0.2222
58595SOL    HW193777   5.258  13.696   2.059  0.2435 -1.3462  0.6321
58595SOL    HW293778   5.170  13.633   1.952  0.6602 -2.6597  1.0355
58596SOL     OW93779   7.045   7.606   5.635  0.0517  0.1736 -0.0596
58596SOL    HW193780   7.074   7.548   5.705 -1.2955 -0.2218  0.2019
58596SOL    HW293781   7.121   7.615   5.578  0.6141 -0.9520  0.4855
58597SOL     OW93782   6.165   7.359   3.318 -0.1377  0.1210  0.3797
58597SOL    HW193783   6.159   7.269   3.350  0.0476 -0.0228  0.0127
58597SOL    HW293784   6.097   7.406   3.367  0.3876 -0.0098  1.2555
58598SOL     OW93785   1.013   2.069   6.106 -0.5094  0.0249 -0.0735
58598SOL    HW193786   1.033   2.144   6.162  1.5103 -0.2880 -0.2839
58598SOL    HW293787   1.098   2.027   6.091 -1.2854 -1.1062 -1.6626
58599SOL     OW93788   0.280  10.960   2.391  0.0935  0.7794 -0.3469
58599SOL    HW193789   0.366  10.925   2.366 -0.5167 -0.8474 -0.2936
58599SOL    HW293790   0.261  11.026   2.324  1.2858  1.0361 -0.4619
58600SOL     OW93791  10.155   5.113   9.706 -0.2464  0.2447  0.2871
58600SOL    HW193792  10.192   5.199   9.686 -0.5618  0.5275  0.8907
58600SOL    HW293793  10.186   5.057   9.635  0.2449  0.7749  0.0691
58601SOL     OW93794   4.999  12.238   9.353 -0.4907 -0.5819 -0.1498
58601SOL    HW193795   4.935  12.291   9.306 -0.0284 -1.0686 -1.3736
58601SOL    HW293796   5.081  12.286   9.343 -0.2330 -1.0977 -0.5456
58602SOL     OW93797   4.760   5.949   8.451  0.1220  0.3238  1.0633
58602SOL    HW193798   4.712   5.995   8.520 -0.2354  0.7910  0.5137
58602SOL    HW293799   4.849   5.940   8.486 -0.2725 -0.2381  1.9443
58603SOL     OW93800   9.965   2.571  12.863  0.2430 -0.0115  0.0741
58603SOL    HW193801  10.003   2.570  12.776  0.6245 -0.1904  0.2414
58603SOL    HW293802   9.884   2.621  12.853  1.5237  2.2538  0.1233
58604SOL     OW93803   2.333  12.172   1.381 -0.7090  0.5344 -0.0177
58604SOL    HW193804   2.299  12.142   1.297 -1.1785  1.2128 -0.0707
58604SOL    HW293805   2.363  12.261   1.365 -0.1994  0.4409  0.3785
58605SOL     OW93806   7.226   0.743  13.881  0.0754  0.0982 -0.1568
58605SOL    HW193807   7.220   0.838  13.891 -2.0710  0.0006  0.0942
58605SOL    HW293808   7.298   0.717  13.938  2.2477  1.7718 -1.9747
58606SOL     OW93809  10.460   1.631  12.870  1.0649  0.1386  0.2192
58606SOL    HW193810  10.533   1.575  12.842  1.1410 -0.2013  1.0589
58606SOL    HW293811  10.497   1.684  12.940  0.6664  0.4051  0.2259
58607SOL     OW93812   2.220   4.283  10.449 -0.1345  0.2729 -0.0599
58607SOL    HW193813   2.131   4.249  10.449 -0.7446  1.7215  1.3661
58607SOL    HW293814   2.268   4.226  10.510 -0.5256  0.4835  0.4515
58608SOL     OW93815   2.110   0.391   8.770 -0.6011  0.1589 -0.1311
58608SOL    HW193816   2.027   0.373   8.727  0.0813 -0.1095 -1.3968
58608SOL    HW293817   2.167   0.318   8.745 -0.3236 -0.3396  1.7485
58609SOL     OW93818  12.803  13.170   3.640  0.5975  0.3288  0.4329
58609SOL    HW193819  12.799  13.169   3.544  1.1845  2.1171  0.3493
58609SOL    HW293820  12.722  13.214   3.667 -1.0629 -2.7574  0.9846
58610SOL     OW93821   2.507   5.674   1.250  0.3932 -0.3926 -0.1519
58610SOL    HW193822   2.417   5.658   1.277  0.7531 -1.0636  0.6927
58610SOL    HW293823   2.503   5.755   1.200 -0.4424  0.4839  1.2556
58611SOL     OW93824   4.772  10.094   1.155  0.5460 -0.1051  1.0401
58611SOL    HW193825   4.752  10.000   1.153 -2.3978  0.4037  1.9828
58611SOL    HW293826   4.829  10.108   1.079  0.0018 -2.4454  0.1241
58612SOL     OW93827   9.169   5.282   7.680  0.3167  0.2463 -0.1605
58612SOL    HW193828   9.245   5.293   7.623  1.2388  0.3635  1.0522
58612SOL    HW293829   9.204   5.287   7.769 -1.3471  1.9018  0.4594
58613SOL     OW93830   7.150   9.318   5.280  0.4180 -0.6606 -0.6677
58613SOL    HW193831   7.056   9.328   5.297  0.3531 -1.3750 -0.5887
58613SOL    HW293832   7.188   9.402   5.306 -0.3544  0.0903 -1.8643
58614SOL     OW93833   8.605   7.171   9.055  0.4106 -0.7300  0.2797
58614SOL    HW193834   8.549   7.159   8.979 -0.7564  0.3166  0.9313
58614SOL    HW293835   8.669   7.237   9.028 -0.8073  0.6185  0.5828
58615SOL     OW93836  13.262   0.890   9.797 -0.6186  0.4827  0.1632
58615SOL    HW193837  13.170   0.908   9.815 -1.3425 -2.0868 -0.5749
58615SOL    HW293838  13.269   0.899   9.702 -0.2280  0.2254  0.1670
58616SOL     OW93839   7.102   8.814   9.609  0.2283 -0.1543 -0.3009
58616SOL    HW193840   7.026   8.863   9.577  0.6502  0.8051  0.1355
58616SOL    HW293841   7.117   8.846   9.698  1.6237  0.2709 -0.6554
58617SOL     OW93842  13.255   0.381  14.146  0.3016  0.8001  0.1160
58617SOL    HW193843  13.262   0.472  14.118  1.5218  0.9954  0.9764
58617SOL    HW293844  13.210   0.385  14.231 -3.7649  0.1835 -1.7867
58618SOL     OW93845   5.615   1.071  13.953  0.0359  0.1143  0.0725
58618SOL    HW193846   5.548   1.071  13.884  2.6706 -0.0340 -2.7224
58618SOL    HW293847   5.630   0.979  13.972 -0.1731  0.1305  0.3246
58619SOL     OW93848   1.344   7.976   4.330 -0.7337  0.2667 -0.1147
58619SOL    HW193849   1.351   8.069   4.311 -0.1288 -0.2221 -2.6959
58619SOL    HW293850   1.412   7.960   4.395 -0.0236  1.4239 -0.5371
58620SOL     OW93851   6.407  12.548   5.711  0.3294 -0.2728 -0.5741
58620SOL    HW193852   6.365  12.590   5.785  1.4712  0.6790 -0.4390
58620SOL    HW293853   6.500  12.546   5.734  0.7105  0.0692 -1.9827
58621SOL     OW93854   9.525   2.406   1.067  1.0289  0.6345  0.3419
58621SOL    HW193855   9.544   2.466   0.995 -0.0003 -0.0367 -0.5284
58621SOL    HW293856   9.439   2.433   1.099  0.7605 -0.0629  0.2380
58622SOL     OW93857  11.863   1.445   3.827 -0.4484 -0.1919 -0.3415
58622SOL    HW193858  11.927   1.516   3.836 -0.7733  0.1179 -0.4632
58622SOL    HW293859  11.778   1.487   3.841 -0.4936 -1.1440  3.0080
58623SOL     OW93860   4.914   1.478  10.321 -0.2112 -0.3192 -0.0241
58623SOL    HW193861   4.914   1.562  10.367  1.2644  0.0974 -0.7202
58623SOL    HW293862   4.936   1.414  10.388  0.6668  0.1230  0.1222
58624SOL     OW93863   1.126   0.716   9.014  0.2731 -0.4839  0.4975
58624SOL    HW193864   1.128   0.760   9.099  1.4834 -0.2911  0.3866
58624SOL    HW293865   1.092   0.782   8.954  0.1473 -0.3661  0.6955
58625SOL     OW93866   9.657   1.575   0.901  0.1177 -0.2124  0.1196
58625SOL    HW193867   9.657   1.588   0.806  0.2090 -0.5519  0.0723
58625SOL    HW293868   9.739   1.528   0.919 -0.3333 -0.9606  0.2518
58626SOL     OW93869  11.326  13.204   4.637  0.1058  0.4698 -0.4371
58626SOL    HW193870  11.269  13.246   4.573 -0.0811 -0.3783 -0.8449
58626SOL    HW293871  11.409  13.253   4.632  0.3057  0.0210 -1.7853
58627SOL     OW93872   9.237   4.201   8.491 -0.5010 -0.1740  0.4603
58627SOL    HW193873   9.302   4.249   8.543 -0.6754 -0.7624  1.2457
58627SOL    HW293874   9.154   4.243   8.511 -1.1317 -2.4758  3.4356
58628SOL     OW93875   6.409  12.913  10.309 -0.0345  0.1909 -0.4542
58628SOL    HW193876   6.405  12.817  10.302  1.5695  0.0484  0.0128
58628SOL    HW293877   6.492  12.935  10.266  0.1195  1.2591  0.3617
58629SOL     OW93878  11.756   5.783   8.746  0.0497  0.1321 -0.6807
58629SOL    HW193879  11.839   5.828   8.760 -0.6055  1.2099 -0.0179
58629SOL    HW293880  11.690   5.851   8.762 -0.9467 -0.6195 -1.5035
58630SOL     OW93881   9.574   4.373   2.365 -0.3963  0.1621  0.8956
58630SOL    HW193882   9.500   4.374   2.303 -0.2360 -2.6723  0.5558
58630SOL    HW293883   9.623   4.294   2.343  1.5616  0.8415  2.5295
58631SOL     OW93884  13.376   6.474   1.745  0.3468  0.2001 -0.5461
58631SOL    HW193885  13.385   6.534   1.671 -1.3106  0.0274 -0.9257
58631SOL    HW293886  13.288   6.440   1.737  0.0397  0.3417  1.6466
58632SOL     OW93887   6.773   7.231  12.236 -0.0053 -0.0498 -0.0886
58632SOL    HW193888   6.683   7.261  12.221  0.6869  2.3604  0.2895
58632SOL    HW293889   6.822   7.310  12.258  2.3207 -1.2376 -0.6710
58633SOL     OW93890   2.591   7.074   2.113 -0.1617  0.1258 -0.0874
58633SOL    HW193891   2.677   7.043   2.143 -0.3997 -0.1421  0.3250
58633SOL    HW293892   2.555   7.000   2.064 -0.7366 -0.2608  0.9075
58634SOL     OW93893   8.736   9.103   2.345  0.3869  0.5321 -0.4020
58634SOL    HW193894   8.785   9.020   2.345  2.0855  1.4571  0.8500
58634SOL    HW293895   8.733   9.129   2.253  0.8157 -0.3593 -0.6855
58635SOL     OW93896   9.465   1.598  11.592  0.2182 -0.5484  0.5931
58635SOL    HW193897   9.540   1.624  11.538  0.7136 -0.8568  1.1140
58635SOL    HW293898   9.503   1.539  11.658 -0.6607 -1.5933  0.1999
58636SOL     OW93899   8.830   0.119   1.665 -0.0281 -0.5280 -0.1326
58636SOL    HW193900   8.823   0.024   1.672 -0.1100 -0.5420 -0.4133
58636SOL    HW293901   8.832   0.136   1.571  0.7515 -0.3129 -0.0857
58637SOL     OW93902  13.375   2.451   0.552 -0.3396 -0.2595  0.1533
58637SOL    HW193903  13.371   2.531   0.605  0.1643  0.1023 -0.3381
58637SOL    HW293904  13.303   2.459   0.490 -1.3583 -1.0076  1.2087
58638SOL     OW93905   6.299   7.890   4.823  0.1621 -0.0497  0.5183
58638SOL    HW193906   6.384   7.892   4.867  1.1372 -1.8052 -1.1315
58638SOL    HW293907   6.247   7.956   4.868  1.9229  0.0633  2.5262
58639SOL     OW93908   7.213  10.863   6.098  0.0495  0.4541 -0.3249
58639SOL    HW193909   7.252  10.928   6.040 -0.1027 -0.7122 -1.8040
58639SOL    HW293910   7.122  10.891   6.108  0.2094  0.9456 -0.2132
58640SOL     OW93911   5.562  10.987   1.384  0.0867  0.3159 -0.2126
58640SOL    HW193912   5.592  10.905   1.424 -0.5144  0.3832  0.3898
58640SOL    HW293913   5.626  11.052   1.410 -0.6044  0.4816  1.1559
58641SOL     OW93914  11.313  10.778   0.606 -0.0401 -0.4078  0.2725
58641SOL    HW193915  11.363  10.712   0.653  0.7009 -1.8195 -2.3194
58641SOL    HW293916  11.227  10.739   0.594  0.1179 -0.5328 -0.4815
58642SOL     OW93917   2.778   9.344  13.772  0.0371  0.2425  0.0107
58642SOL    HW193918   2.804   9.414  13.831  1.5505 -1.1022  1.0277
58642SOL    HW293919   2.840   9.273  13.791 -1.4094 -1.3521 -1.0025
58643SOL     OW93920  12.517   3.444   5.639  0.2324 -1.0848  0.8145
58643SOL    HW193921  12.516   3.359   5.595 -0.2042  0.3202 -2.1453
58643SOL    HW293922  12.590   3.491   5.598 -0.4160  0.4537  1.3509
58644SOL     OW93923   2.479   7.563  12.514 -0.1158  0.4901 -0.4956
58644SOL    HW193924   2.394   7.566  12.557  0.4402  1.9146  0.5953
58644SOL    HW293925   2.537   7.612  12.572  1.7757 -1.5152 -0.5317
58645SOL     OW93926  11.066   0.995   8.688  0.1281 -0.1398  0.2144
58645SOL    HW193927  11.076   0.900   8.702 -0.6970 -0.1110  1.0631
58645SOL    HW293928  11.012   1.003   8.610  0.1643 -0.3674  0.1654
58646SOL     OW93929  10.338   6.996   1.235 -0.5707  0.0106 -0.0565
58646SOL    HW193930  10.331   7.017   1.328 -1.5867 -0.8334  0.0725
58646SOL    HW293931  10.392   7.066   1.198  0.1370  0.1571  1.2272
58647SOL     OW93932   0.938  12.471  13.974  0.1367 -0.0654  0.2885
58647SOL    HW193933   1.018  12.477  13.922  0.3949  0.2824  0.7179
58647SOL    HW293934   0.870  12.511  13.919  0.2768 -0.2726 -0.0373
58648SOL     OW93935   2.219   5.730   4.990  0.3763 -0.1239 -0.0956
58648SOL    HW193936   2.227   5.654   5.047 -1.0985  0.5225  1.0423
58648SOL    HW293937   2.254   5.803   5.041 -1.2940  0.5239  0.1916
58649SOL     OW93938   0.722   2.468   8.484  0.4910 -0.4802  0.0150
58649SOL    HW193939   0.637   2.479   8.526 -1.5705  2.1647 -4.0884
58649SOL    HW293940   0.710   2.393   8.425  0.7951  0.1494 -0.8767
58650SOL     OW93941   7.574  13.115   5.953 -0.4891  0.3562  0.4165
58650SOL    HW193942   7.561  13.025   5.983 -0.3632 -0.0208 -0.6097
58650SOL    HW293943   7.538  13.169   6.023 -1.4316 -0.5198  0.6366
58651SOL     OW93944   6.214   6.417   5.631 -0.4512 -0.6690 -0.5588
58651SOL    HW193945   6.121   6.418   5.653 -0.4254 -0.4342 -0.4607
58651SOL    HW293946   6.257   6.378   5.707 -0.7803 -3.8197 -1.8293
58652SOL     OW93947  12.135   5.304   4.623  0.3625 -0.1837  0.7468
58652SOL    HW193948  12.106   5.277   4.710 -0.1589  0.4583  0.7783
58652SOL    HW293949  12.054   5.324   4.576  0.6991  0.9215  0.6003
58653SOL     OW93950  10.773   0.282  11.495 -0.4172  0.1856 -0.0350
58653SOL    HW193951  10.848   0.294  11.553 -0.0578 -0.0728 -0.4466
58653SOL    HW293952  10.766   0.188  11.482 -0.8652  0.2008  0.0660
58654SOL     OW93953   8.493   6.930   1.975  0.0329  0.3905 -0.0279
58654SOL    HW193954   8.563   6.878   1.935 -0.9096 -0.4415 -0.6415
58654SOL    HW293955   8.422   6.867   1.989 -0.6285  1.2371  0.5212
58655SOL     OW93956   5.775   1.927   0.022 -0.0334 -0.2488 -0.4729
58655SOL    HW193957   5.698   1.963   0.067 -1.8609 -1.5500 -2.3932
58655SOL    HW293958   5.802   1.997  -0.038  1.1902  0.7203  1.1122
58656SOL     OW93959   8.549   7.945  12.470 -0.1496 -0.5316 -0.1617
58656SOL    HW193960   8.495   7.915  12.397 -0.3650  1.6335 -0.9579
58656SOL    HW293961   8.636   7.907  12.452 -0.9307 -2.6775  0.2599
58657SOL     OW93962  13.537   1.354   6.294  0.1681  0.7581 -0.2050
58657SOL    HW193963  13.511   1.334   6.384  0.3073  0.6028 -0.1980
58657SOL    HW293964  13.618   1.405   6.303  0.3381  0.4954 -0.2508
58658SOL     OW93965   6.238   7.369  13.557 -0.0989 -0.0742 -0.7519
58658SOL    HW193966   6.149   7.371  13.521 -0.4695 -2.2554 -0.1027
58658SOL    HW293967   6.289   7.322  13.491 -0.0374 -1.1501  0.0435
58659SOL     OW93968  13.444  11.227   2.666  0.5322  0.4331 -0.6634
58659SOL    HW193969  13.509  11.247   2.598  0.5798  2.6062 -0.0632
58659SOL    HW293970  13.471  11.281   2.741 -1.2533  0.4350  0.0183
58660SOL     OW93971   2.757   1.403  13.764 -0.1934 -0.4707  0.5239
58660SOL    HW193972   2.700   1.339  13.721 -0.8574  0.6053 -0.2225
58660SOL    HW293973   2.779   1.466  13.695  0.5559  0.0523  1.2186
58661SOL     OW93974   1.404   0.522  13.814  0.6253  0.3068  0.8850
58661SOL    HW193975   1.448   0.590  13.763  0.0890  0.3149  0.4309
58661SOL    HW293976   1.474   0.463  13.842  0.7525 -0.5591 -1.1424
58662SOL     OW93977   1.392  11.334   4.337 -0.0394  0.3656  0.4112
58662SOL    HW193978   1.459  11.269   4.356  0.2403 -0.1488 -1.9985
58662SOL    HW293979   1.318  11.311   4.393  0.2837 -1.6758  0.0606
58663SOL     OW93980   2.747   7.455  11.447 -0.1232  0.2453  0.1802
58663SOL    HW193981   2.763   7.388  11.513  0.2956  1.4627  1.3695
58663SOL    HW293982   2.800   7.429  11.372  1.5797  0.2439  1.3334
58664SOL     OW93983  12.424  12.073   7.098 -0.5546 -0.3878  0.6091
58664SOL    HW193984  12.481  12.146   7.121 -1.1917  0.7509 -1.2126
58664SOL    HW293985  12.397  12.036   7.182  0.7202  0.7056  1.5498
58665SOL     OW93986  13.420   3.446   6.061  0.4112  0.5667  0.4088
58665SOL    HW193987  13.371   3.466   5.981 -0.6074 -1.1916  0.5522
58665SOL    HW293988  13.353   3.441   6.129  0.8991 -0.8332  0.8082
58666SOL     OW93989  10.711   9.225   0.091  0.1237 -0.7897 -0.1669
58666SOL    HW193990  10.619   9.233   0.119  0.5611  0.0415  1.1246
58666SOL    HW293991  10.718   9.136   0.057 -1.5190 -0.4102 -1.7142
58667SOL     OW93992  13.372   6.917   4.047 -0.5861 -0.2978 -0.0678
58667SOL    HW193993  13.334   6.860   3.980 -0.7781 -0.0344 -0.1833
58667SOL    HW293994  13.297   6.954   4.093 -0.4571 -0.3429  0.1808
58668SOL     OW93995   9.236   2.634   0.133  0.4128  0.0449  0.1995
58668SOL    HW193996   9.177   2.628   0.208 -1.2905  0.6053 -1.0195
58668SOL    HW293997   9.297   2.704   0.155 -0.8753  1.0919  0.5659
58669SOL     OW93998   6.095   6.327   0.137  0.0631 -0.0726  0.0160
58669SOL    HW193999   6.094   6.264   0.209 -1.5107  1.1858  1.1582
58669SOL    HW294000   6.188   6.343   0.121  0.4600  0.1019  2.2328
58670SOL     OW94001   2.858   4.615  11.357  0.3522 -0.0789  0.9493
58670SOL    HW194002   2.921   4.581  11.293 -0.0410 -1.0638  1.0661
58670SOL    HW294003   2.776   4.571  11.335 -0.5035  1.7300  0.3423
58671SOL     OW94004   8.994  13.343  10.335 -0.2034  0.2812  0.3748
58671SOL    HW194005   9.049  13.414  10.368 -1.6115  1.4619  0.2736
58671SOL    HW294006   8.919  13.387  10.296 -0.4785 -1.2320 -0.8857
58672SOL     OW94007   7.665   4.866  10.039 -0.1545  0.0815 -0.5966
58672SOL    HW194008   7.595   4.803  10.059 -0.2574  0.8132  1.6777
58672SOL    HW294009   7.734   4.813  10.000 -2.2205 -0.5472 -3.8517
58673SOL     OW94010   5.559   6.214   3.424 -0.4699 -0.0976 -0.0488
58673SOL    HW194011   5.568   6.208   3.519 -0.7912 -0.4402 -0.0371
58673SOL    HW294012   5.493   6.149   3.402  1.9948 -2.5228 -0.8840
58674SOL     OW94013  12.419   2.950   1.273 -0.0694 -0.3296  0.3867
58674SOL    HW194014  12.371   2.886   1.326  0.4930 -0.2645  0.9865
58674SOL    HW294015  12.442   3.020   1.334 -2.4318  1.5106 -0.6277
58675SOL     OW94016  12.303   9.543  10.361 -0.2700 -0.3371  0.0861
58675SOL    HW194017  12.340   9.602  10.427 -0.8058 -1.4659  1.4453
58675SOL    HW294018  12.372   9.479  10.344 -1.2111 -1.9783  2.0406
58676SOL     OW94019   3.016  11.601   5.586  0.0017  0.0078  0.2962
58676SOL    HW194020   3.095  11.552   5.565  0.0782  0.7338 -1.2741
58676SOL    HW294021   2.949  11.567   5.526  0.0449  1.6949 -0.7951
58677SOL     OW94022   7.543   8.801  13.809 -0.0945  0.4136  0.2068
58677SOL    HW194023   7.551   8.817  13.903  2.9224 -0.1928  0.1644
58677SOL    HW294024   7.575   8.711  13.798 -0.2643  0.5237 -1.4183
58678SOL     OW94025  12.181   8.006   2.653 -0.3247 -0.4419  0.0507
58678SOL    HW194026  12.216   7.917   2.650 -0.3584 -0.4394 -0.4361
58678SOL    HW294027  12.212   8.047   2.573 -1.2822 -0.3794 -0.3047
58679SOL     OW94028   4.555   0.503  10.788  0.7085  0.2564  0.4092
58679SOL    HW194029   4.619   0.534  10.852  0.8153  2.6352 -0.7230
58679SOL    HW294030   4.609   0.464  10.718  0.8986  1.4501 -0.1304
58680SOL     OW94031   9.281   2.778  10.935 -0.3672 -0.1225 -0.7109
58680SOL    HW194032   9.337   2.848  10.968  0.6709 -1.5346  0.6742
58680SOL    HW294033   9.340   2.717  10.891 -0.9278 -1.0891 -0.1870
58681SOL     OW94034   6.299   2.421   4.838 -0.1395 -0.2707  0.3879
58681SOL    HW194035   6.321   2.402   4.929  1.1025  0.4170  0.2581
58681SOL    HW294036   6.357   2.363   4.787  2.1587  2.1262  0.0260
58682SOL     OW94037   4.292   3.979   3.125  0.1110  0.0331 -0.2441
58682SOL    HW194038   4.239   3.958   3.202 -1.8966 -0.9798 -1.7973
58682SOL    HW294039   4.253   4.059   3.091 -0.6009 -0.8267 -1.5158
58683SOL     OW94040  13.758   8.797   4.200 -0.5155 -0.6754 -0.0493
58683SOL    HW194041  13.786   8.711   4.230 -0.3285  0.5080  3.8127
58683SOL    HW294042  13.832   8.854   4.220 -1.0017  0.5565 -1.5935
58684SOL     OW94043   9.401  12.389  10.379 -0.3844 -0.2889  0.0981
58684SOL    HW194044   9.397  12.479  10.411  2.0719 -0.0993  0.0334
58684SOL    HW294045   9.347  12.389  10.300  0.1920  1.3310 -0.3312
58685SOL     OW94046   4.408   0.875   6.977 -0.4756  0.3070  0.1153
58685SOL    HW194047   4.417   0.783   7.004 -0.0670  0.2033 -0.3446
58685SOL    HW294048   4.447   0.877   6.889 -0.6190  0.8905  0.0651
58686SOL     OW94049   3.014   9.725   7.579 -0.3294  0.5937 -0.1210
58686SOL    HW194050   3.034   9.685   7.664 -0.0314 -0.9691 -0.9002
58686SOL    HW294051   2.918   9.729   7.577 -0.3296  1.1436  0.4940
58687SOL     OW94052   9.048   0.701   5.613 -0.0548  0.0838  0.1999
58687SOL    HW194053   8.980   0.661   5.668 -1.4197 -2.7779 -3.1266
58687SOL    HW294054   9.122   0.641   5.620  1.2098  1.7145  1.6452
58688SOL     OW94055   3.731   5.094  11.556 -0.1300 -0.1068  0.7265
58688SOL    HW194056   3.765   5.041  11.483 -0.3664 -0.6751  1.0230
58688SOL    HW294057   3.780   5.176  11.551  0.6173 -0.5538  0.5804
58689SOL     OW94058   1.008   2.721   7.944 -0.1534 -0.6932  0.2579
58689SOL    HW194059   1.070   2.744   7.875  0.9219  0.4851  1.5521
58689SOL    HW294060   0.938   2.787   7.937  0.7842  0.4604  1.2797
58690SOL     OW94061  10.476   2.770   9.462 -0.3879  0.4920 -0.4109
58690SOL    HW194062  10.523   2.764   9.545 -0.9366 -1.8762 -0.2138
58690SOL    HW294063  10.391   2.809   9.485 -0.1028  0.9218 -0.0704
58691SOL     OW94064   3.053   2.232   3.119  0.5397 -0.5065  0.0988
58691SOL    HW194065   3.102   2.310   3.094  1.8686 -0.9544  1.1699
58691SOL    HW294066   3.025   2.249   3.209  0.1675 -0.9531  0.0715
58692SOL     OW94067   6.730  11.466   7.224 -0.2955 -0.0466 -0.0160
58692SOL    HW194068   6.658  11.406   7.208 -0.4024 -0.2078  1.0302
58692SOL    HW294069   6.699  11.524   7.293 -0.5469  1.8326 -1.6246
58693SOL     OW94070  10.052   2.453   0.294  0.0031  0.3143  0.3047
58693SOL    HW194071  10.119   2.490   0.237  1.3267 -1.1662  0.8280
58693SOL    HW294072  10.012   2.383   0.242  0.2680 -0.1329  0.6927
58694SOL     OW94073   8.427   1.377   7.593  0.5727 -0.3603 -0.0121
58694SOL    HW194074   8.503   1.318   7.587 -0.3287 -1.6450  0.7117
58694SOL    HW294075   8.358   1.332   7.544  0.4062  1.0562 -1.1432
58695SOL     OW94076  10.058  10.788   8.842  0.1399  0.0277  0.3386
58695SOL    HW194077  10.006  10.766   8.766 -0.1751 -1.8440  1.0465
58695SOL    HW294078  10.125  10.719   8.846  0.4413  0.3641  1.4669
58696SOL     OW94079  12.662   9.985   9.731 -0.0954 -0.5475 -0.1180
58696SOL    HW194080  12.596   9.950   9.672 -0.7116 -0.0226  0.2478
58696SOL    HW294081  12.617   9.994   9.816  0.1404  0.7332 -0.0976
58697SOL     OW94082   0.817  11.348  13.222 -0.1818  0.4787  0.4118
58697SOL    HW194083   0.836  11.402  13.145  0.9821 -0.0627  0.3053
58697SOL    HW294084   0.785  11.266  13.186  0.3288  0.2378  0.5076
58698SOL     OW94085  10.917  10.032   5.297 -0.3323 -0.7840  0.2838
58698SOL    HW194086  10.884  10.007   5.210 -0.3142 -1.9013  0.5781
58698SOL    HW294087  11.000  10.077   5.280 -0.6305 -0.4433 -0.3037
58699SOL     OW94088  10.530   9.008   9.682 -0.0068 -0.0201 -0.4118
58699SOL    HW194089  10.465   9.005   9.753 -0.5931  0.2196 -0.9295
58699SOL    HW294090  10.614   9.010   9.727 -0.1676 -3.0671  0.3032
58700SOL     OW94091   2.798   3.352  10.691  0.1318  0.2353 -0.2886
58700SOL    HW194092   2.847   3.350  10.608  1.7809 -0.5993  0.6555
58700SOL    HW294093   2.788   3.260  10.716 -1.8767  0.3871 -0.3742
58701SOL     OW94094  11.820   6.137   8.680 -0.1315 -0.5165 -0.3182
58701SOL    HW194095  11.761   6.211   8.665  2.1819  1.6409  0.5477
58701SOL    HW294096  11.811   6.117   8.773 -0.9279 -1.5299 -0.5997
58702SOL     OW94097  12.627   5.604   3.158  0.1386  0.3727  0.0070
58702SOL    HW194098  12.667   5.690   3.169 -0.2056  0.7424 -1.4614
58702SOL    HW294099  12.618   5.593   3.064 -1.1131 -0.6871  0.2165
58703SOL     OW94100  11.816  12.278   5.205  0.3789  0.2692 -0.3446
58703SOL    HW194101  11.846  12.204   5.151  1.0470 -0.3161  0.8024
58703SOL    HW294102  11.766  12.237   5.275  1.9683  0.7540  1.1343
58704SOL     OW94103   6.126  13.695   2.258  0.3059 -0.2473  0.1549
58704SOL    HW194104   6.198  13.683   2.320  0.9462  3.5341  0.3671
58704SOL    HW294105   6.050  13.714   2.313 -0.5734 -2.5924 -0.1364
58705SOL     OW94106   4.620   8.872   6.651 -0.3368 -0.3088 -0.6514
58705SOL    HW194107   4.590   8.962   6.664  0.6696 -0.0387 -0.1038
58705SOL    HW294108   4.587   8.848   6.564 -1.2902  0.3028 -0.4692
58706SOL     OW94109   9.325   4.142  12.233  0.1254  0.3812  0.7748
58706SOL    HW194110   9.355   4.209  12.172  1.0442 -0.9857 -0.3421
58706SOL    HW294111   9.242   4.176  12.267 -0.3030  1.2872 -1.0627
58707SOL     OW94112   5.654   6.350  10.766 -0.0527  0.0174 -0.3853
58707SOL    HW194113   5.745   6.342  10.792  0.4351 -0.0250 -1.9829
58707SOL    HW294114   5.631   6.441  10.783  0.5468  0.2410 -0.7554
58708SOL     OW94115   2.695   1.770  12.576 -0.7260  0.0127 -0.2484
58708SOL    HW194116   2.773   1.800  12.528 -0.1563 -0.8633  0.1137
58708SOL    HW294117   2.628   1.835  12.555  0.1404  0.8618 -0.4577
58709SOL     OW94118   5.602   0.706  10.409  0.0217  0.3831 -0.1121
58709SOL    HW194119   5.666   0.691  10.479 -1.3636  0.5761  1.2593
58709SOL    HW294120   5.555   0.623  10.401 -1.9263  1.2414  1.4719
58710SOL     OW94121   7.849  11.319  10.527 -0.2278 -0.1373  0.6951
58710SOL    HW194122   7.765  11.316  10.480  0.3176 -2.1639 -0.2533
58710SOL    HW294123   7.908  11.266  10.474  1.6970  1.2451  1.3437
58711SOL     OW94124  12.256   4.053   8.068  0.1760 -0.1568  0.0575
58711SOL    HW194125  12.351   4.069   8.069  0.2446 -0.5788  0.4148
58711SOL    HW294126  12.225   4.090   8.150  0.2251 -1.1491  0.5410
58712SOL     OW94127   5.852   0.594   7.788  0.4500  0.5253 -0.0562
58712SOL    HW194128   5.758   0.578   7.782  0.3724  0.9502  0.0193
58712SOL    HW294129   5.892   0.510   7.766  0.0787  0.6920 -1.4843
58713SOL     OW94130  12.990   1.381   4.083 -0.3086  0.3204  0.0524
58713SOL    HW194131  12.937   1.452   4.045  0.1401  0.2567 -0.7094
58713SOL    HW294132  13.059   1.426   4.131 -0.7000  0.3990  0.5554
58714SOL     OW94133   8.259  12.545   3.522 -0.0807 -0.3174  0.1054
58714SOL    HW194134   8.203  12.578   3.592 -0.8926 -1.3633 -0.0184
58714SOL    HW294135   8.225  12.457   3.503 -0.1645  0.1019 -1.9173
58715SOL     OW94136   1.017  13.559   9.529  0.3350 -0.3021 -0.2016
58715SOL    HW194137   0.937  13.508   9.545 -1.7433  2.5808 -0.6640
58715SOL    HW294138   1.026  13.561   9.434 -0.0125  0.7590 -0.2187
58716SOL     OW94139   2.083   2.717   2.370 -0.3812 -0.0098 -0.1634
58716SOL    HW194140   2.139   2.670   2.432  1.2556 -1.4214 -2.5326
58716SOL    HW294141   2.010   2.657   2.353 -0.5839  0.1775  0.0431
58717SOL     OW94142   7.551   9.330   6.736 -0.0084 -0.3339  0.0212
58717SOL    HW194143   7.545   9.391   6.809 -1.9858 -3.0174  2.3191
58717SOL    HW294144   7.461   9.305   6.717  0.6397 -1.6934 -1.5563
58718SOL     OW94145   8.008   7.921  11.136  0.6037 -0.1894 -0.2165
58718SOL    HW194146   8.005   7.825  11.135 -0.4908 -0.1672 -1.0320
58718SOL    HW294147   8.101   7.942  11.139  0.8523 -1.2612  3.0801
58719SOL     OW94148  10.938   6.923  12.969 -0.2010 -0.6648  0.4598
58719SOL    HW194149  10.995   6.931  13.046 -0.1985  0.8109  0.3416
58719SOL    HW294150  10.858   6.883  13.003 -0.1941 -0.0515  1.2356
58720SOL     OW94151   7.588   4.970   1.229  0.4984 -0.2174 -0.3537
58720SOL    HW194152   7.553   5.012   1.307 -0.4099 -1.7427  0.0880
58720SOL    HW294153   7.581   5.037   1.161  1.9418  1.3736  0.9772
58721SOL     OW94154  12.934   8.107   9.211 -0.1564 -0.9229 -0.7780
58721SOL    HW194155  12.982   8.179   9.172  0.1409 -1.2140 -0.9586
58721SOL    HW294156  12.895   8.061   9.136 -0.3212 -0.9670 -0.6679
58722SOL     OW94157   8.143   3.640   9.460  0.0824 -0.0554  0.0008
58722SOL    HW194158   8.180   3.721   9.496  0.5531 -0.5432  0.6406
58722SOL    HW294159   8.120   3.588   9.537 -0.1118 -0.5779 -0.4031
58723SOL     OW94160   6.672  10.055   5.005  0.1040  0.0812 -0.0776
58723SOL    HW194161   6.757  10.020   5.030 -0.3945 -0.4424  0.9732
58723SOL    HW294162   6.609   9.992   5.041 -0.7253  0.4892 -0.7826
58724SOL     OW94163  12.016   2.723   6.467  0.3498  0.2173  0.0443
58724SOL    HW194164  11.961   2.785   6.418 -1.3559 -1.1452  0.1591
58724SOL    HW294165  12.044   2.659   6.401  0.5241  0.0484  0.2803
58725SOL     OW94166   3.846   3.737   2.566  0.3492 -0.1666 -0.3753
58725SOL    HW194167   3.925   3.780   2.597  0.2213  0.6515 -1.1421
58725SOL    HW294168   3.776   3.802   2.581 -0.3034 -1.0978  0.8567
58726SOL     OW94169   1.415   3.001  10.409  0.0962  0.0366  0.1391
58726SOL    HW194170   1.458   3.062  10.470 -0.6844  1.8205 -1.0305
58726SOL    HW294171   1.460   2.918  10.424  2.8999  1.4170  0.1096
58727SOL     OW94172  14.013   6.724   1.475 -0.1151 -0.1178 -0.0829
58727SOL    HW194173  13.959   6.742   1.553 -0.3545 -1.4854  0.1068
58727SOL    HW294174  13.950   6.724   1.403  0.0742  0.9436 -0.2603
58728SOL     OW94175   6.090   8.684   3.675 -0.1939  0.1752 -0.5660
58728SOL    HW194176   6.080   8.589   3.666 -1.4782  0.2651 -0.3535
58728SOL    HW294177   6.158   8.695   3.742 -0.6980 -0.6158  0.0990
58729SOL     OW94178   8.311   0.818  12.789  0.3983 -0.2594  0.6852
58729SOL    HW194179   8.402   0.839  12.811  0.3026  0.7141  0.1902
58729SOL    HW294180   8.259   0.858  12.859  0.2701  0.3437  0.2458
58730SOL     OW94181  11.468   9.712   3.365 -0.0462  0.0546  0.2632
58730SOL    HW194182  11.403   9.670   3.422  0.7354  0.7218  1.7002
58730SOL    HW294183  11.434   9.699   3.277 -1.2828 -1.0622  0.8619
58731SOL     OW94184   1.828   3.721  12.117 -0.2051 -0.6749 -0.4359
58731SOL    HW194185   1.876   3.745  12.038  1.2771  0.0240  0.6337
58731SOL    HW294186   1.881   3.653  12.158 -1.2799 -1.4772 -0.3450
58732SOL     OW94187   0.015   4.383  10.029  0.6350  0.4383 -0.1931
58732SOL    HW194188   0.002   4.340  10.114  0.0596 -0.6357 -0.8034
58732SOL    HW294189   0.054   4.315   9.974  1.9568  1.4193 -0.5261
58733SOL     OW94190   7.844   4.141   0.971  0.0644 -0.4732  0.3055
58733SOL    HW194191   7.773   4.152   0.908  0.0037  0.6042  0.5340
58733SOL    HW294192   7.886   4.059   0.946  1.5990  1.0605 -2.7482
58734SOL     OW94193  10.845  10.277   0.982 -0.4541 -0.8480 -0.0656
58734SOL    HW194194  10.875  10.188   0.961  1.6188 -0.4598  1.0334
58734SOL    HW294195  10.885  10.297   1.066  1.5127  2.1825 -1.5512
58735SOL     OW94196   4.267   1.319   5.788 -0.3109  0.0919 -0.0397
58735SOL    HW194197   4.292   1.352   5.874 -0.3156 -0.0608  0.0205
58735SOL    HW294198   4.321   1.368   5.726  1.2411 -1.2927  0.1776
58736SOL     OW94199  12.753   0.414  12.553  0.7803  0.0941 -0.5234
58736SOL    HW194200  12.668   0.372  12.560  0.2780  1.1365 -0.1726
58736SOL    HW294201  12.816   0.342  12.554 -0.0883 -0.6734 -0.6257
58737SOL     OW94202   1.288  13.410   1.768  0.1639 -0.1781 -0.0377
58737SOL    HW194203   1.193  13.401   1.762  0.0234  1.1608 -0.0753
58737SOL    HW294204   1.320  13.320   1.770 -1.1832 -0.6771  1.4319
58738SOL     OW94205   0.797   4.573   1.984 -0.0770  0.0331  0.3897
58738SOL    HW194206   0.716   4.624   1.981  0.2543  0.5546  0.1539
58738SOL    HW294207   0.803   4.543   2.075 -1.6165 -1.8110 -0.0290
58739SOL     OW94208   7.677   8.303   9.538 -0.1697 -0.3065 -0.1785
58739SOL    HW194209   7.680   8.207   9.543  0.7699 -0.3279 -0.9020
58739SOL    HW294210   7.673   8.321   9.444  0.2520  0.3736 -0.0671
58740SOL     OW94211   1.394  13.697   6.126 -0.3607 -0.0419  0.2693
58740SOL    HW194212   1.306  13.720   6.097  0.7015  0.6738 -2.8217
58740SOL    HW294213   1.386  13.607   6.158 -1.8674 -0.8946 -2.2021
58741SOL     OW94214   3.003   9.786   5.319  0.2421 -0.4065 -0.1813
58741SOL    HW194215   3.044   9.870   5.299 -1.7778  0.6046 -0.2803
58741SOL    HW294216   2.974   9.752   5.235  0.5923 -0.9692 -0.0800
58742SOL     OW94217   5.179  11.669  13.565  0.4496 -0.4860  0.2252
58742SOL    HW194218   5.103  11.620  13.595 -1.0946  0.3905 -1.9693
58742SOL    HW294219   5.176  11.751  13.613  0.8671 -1.0057  1.1672
58743SOL     OW94220  11.885   6.021   9.708  0.2348 -0.1511  0.4677
58743SOL    HW194221  11.917   6.030   9.619 -1.2794 -0.2443 -0.1212
58743SOL    HW294222  11.831   6.099   9.722 -0.6338 -0.7882  0.7976
58744SOL     OW94223  10.264  11.886  13.378  0.3574 -0.2719 -0.5132
58744SOL    HW194224  10.238  11.922  13.293  0.3357  2.2161  0.4664
58744SOL    HW294225  10.186  11.895  13.433  1.4307  1.9283  0.8234
58745SOL     OW94226   5.762   3.429   6.396 -0.5188  0.0302 -0.6390
58745SOL    HW194227   5.680   3.411   6.349  0.5447 -1.7482 -1.9249
58745SOL    HW294228   5.813   3.483   6.335 -0.9406  1.7024  0.4255
58746SOL     OW94229   7.673   0.690  14.082  0.9935  0.0846  0.0062
58746SOL    HW194230   7.730   0.662  14.011  2.1620 -0.2018  1.0165
58746SOL    HW294231   7.733   0.717  14.151  0.0276 -2.9687  2.2641
58747SOL     OW94232  12.728   0.936   8.019 -0.2850  0.5591 -0.6200
58747SOL    HW194233  12.785   0.957   7.945  0.5999 -0.8507 -0.3691
58747SOL    HW294234  12.643   0.916   7.979  0.7093 -2.2975 -1.5276
58748SOL     OW94235   0.689   9.148   0.763  0.2620 -0.1090 -0.0392
58748SOL    HW194236   0.658   9.206   0.693  0.6532 -0.0085 -0.1288
58748SOL    HW294237   0.645   9.064   0.745  0.7918 -0.2454 -0.7319
58749SOL     OW94238   6.925   8.726  10.355  0.1877  0.3871  0.3572
58749SOL    HW194239   6.861   8.687  10.295  2.0931 -1.1970 -0.7689
58749SOL    HW294240   6.927   8.818  10.331 -1.0125  0.2879 -0.1934
58750SOL     OW94241   9.352  12.759   6.608  0.2153  0.3176 -0.0035
58750SOL    HW194242   9.339  12.847   6.573 -0.9444  0.5169  0.8402
58750SOL    HW294243   9.315  12.701   6.542  1.8220  0.3560 -1.0014
58751SOL     OW94244   4.606  13.589   8.814 -0.2689 -0.1871 -0.3259
58751SOL    HW194245   4.602  13.496   8.793  1.2929 -0.4974  0.5864
58751SOL    HW294246   4.699  13.606   8.832 -0.6607  1.3193  0.4880
58752SOL     OW94247   0.790  10.208   2.986  0.5781  0.7166  0.3698
58752SOL    HW194248   0.759  10.132   3.035 -0.6491  1.2625  0.5006
58752SOL    HW294249   0.885  10.198   2.983  0.4750 -0.5788  0.7627
58753SOL     OW94250   1.273   8.598  14.040 -0.1590 -0.1330 -0.2300
58753SOL    HW194251   1.353   8.545  14.030  0.5752  1.0174 -0.5705
58753SOL    HW294252   1.217   8.569  13.968  1.2634  1.3158 -2.0161
58754SOL     OW94253   1.790   9.106   9.913 -0.3794  0.2766 -0.6650
58754SOL    HW194254   1.851   9.097   9.986  0.4923  0.2517 -1.3866
58754SOL    HW294255   1.747   9.021   9.907  0.4517 -0.1345 -0.9636
58755SOL     OW94256   1.505   2.145   5.079  0.3632 -0.2741  0.3028
58755SOL    HW194257   1.537   2.131   5.168  1.2916 -0.9992 -0.1227
58755SOL    HW294258   1.559   2.216   5.045 -1.5957  1.6981  1.0809
58756SOL     OW94259   5.695   5.389   5.424  0.8436  0.4475  0.0308
58756SOL    HW194260   5.642   5.378   5.345  1.9527 -1.8364 -0.4752
58756SOL    HW294261   5.785   5.390   5.392  1.4602 -2.6354  1.3132
58757SOL     OW94262   3.156   8.078  10.234 -0.7970  0.3891 -0.0640
58757SOL    HW194263   3.108   8.019  10.176  1.8779 -1.3027 -0.7531
58757SOL    HW294264   3.093   8.104  10.300 -2.4425 -2.3585 -0.4105
58758SOL     OW94265   6.443   8.554   7.405 -0.0947 -0.3328  0.0268
58758SOL    HW194266   6.508   8.613   7.443  0.3185  0.9773 -2.4642
58758SOL    HW294267   6.425   8.491   7.474 -0.1260  2.3359  2.6762
58759SOL     OW94268   5.501  10.049   4.584  0.0493 -0.3336  0.1122
58759SOL    HW194269   5.573  10.057   4.522  0.8854 -0.0226  1.0996
58759SOL    HW294270   5.449   9.975   4.551  0.7328 -0.4742 -0.6834
58760SOL     OW94271   7.926   8.709   4.058 -0.0626 -0.6720 -0.6478
58760SOL    HW194272   7.964   8.783   4.106  1.6434 -0.7939 -1.7264
58760SOL    HW294273   7.859   8.749   4.003  0.1769 -0.0588 -0.5044
58761SOL     OW94274   0.488  13.234   8.499 -0.9421 -0.4808  0.0058
58761SOL    HW194275   0.503  13.162   8.438 -0.2404  0.3120 -0.7852
58761SOL    HW294276   0.467  13.309   8.444  0.2534  0.3955  0.6769
58762SOL     OW94277   0.129   3.068  12.681 -0.6485 -0.0337 -0.0712
58762SOL    HW194278   0.209   3.084  12.731 -0.8584 -2.2508  1.1112
58762SOL    HW294279   0.160   3.043  12.593 -0.1011  0.3388  0.0184
58763SOL     OW94280   3.874   1.437   2.740  0.2898  0.4061 -0.1263
58763SOL    HW194281   3.957   1.423   2.695  0.3045 -1.5173  0.4113
58763SOL    HW294282   3.888   1.515   2.794  2.3951 -0.8989  1.3605
58764SOL     OW94283   5.129  11.513   3.263 -0.2774 -0.5760 -0.1699
58764SOL    HW194284   5.131  11.555   3.177 -1.7990 -0.6024 -0.2414
58764SOL    HW294285   5.205  11.455   3.263 -0.2436 -0.5625 -1.4911
58765SOL     OW94286   1.031   7.940   9.966 -0.0828  0.1217 -0.0520
58765SOL    HW194287   1.053   8.015   9.910 -0.5555 -0.8184 -1.5366
58765SOL    HW294288   1.065   7.864   9.920 -1.0184 -0.7466  0.6472
58766SOL     OW94289   0.695  10.244   8.451 -0.3550  0.7952 -0.0454
58766SOL    HW194290   0.744  10.166   8.478  0.4620  1.0618 -0.7333
58766SOL    HW294291   0.626  10.209   8.394  1.2906  0.7097 -2.1135
58767SOL     OW94292   2.506   9.401   5.946 -0.2650 -0.4639 -0.2584
58767SOL    HW194293   2.542   9.377   5.860 -1.4922 -0.2397 -0.8634
58767SOL    HW294294   2.411   9.398   5.933 -0.5209  2.2709  0.3041
58768SOL     OW94295   8.291  12.432   0.139  0.1909 -0.0423  0.0240
58768SOL    HW194296   8.357  12.483   0.092  0.4691  0.5382  1.0090
58768SOL    HW294297   8.302  12.343   0.105 -0.0583  0.4597 -1.4494
58769SOL     OW94298   1.275   7.552   1.647 -0.8466 -0.5622 -0.3619
58769SOL    HW194299   1.336   7.591   1.710  1.7559 -2.2456 -1.6370
58769SOL    HW294300   1.279   7.610   1.571 -0.4821 -0.8773 -0.5898
58770SOL     OW94301   0.508  11.234   8.096  0.0964 -0.2233  0.1691
58770SOL    HW194302   0.561  11.261   8.021  0.9658 -1.0341  0.4608
58770SOL    HW294303   0.436  11.296   8.099  0.4305  0.2333 -0.9211
58771SOL     OW94304   2.115   9.889   7.150 -0.0371 -0.5728  0.3556
58771SOL    HW194305   2.091   9.869   7.240 -0.8096  0.5838  0.4330
58771SOL    HW294306   2.142   9.981   7.153  0.4263 -0.6770 -0.4970
58772SOL     OW94307   4.332  13.570   6.811  0.5219  0.0900  0.6512
58772SOL    HW194308   4.350  13.566   6.717 -0.4028 -0.3810  0.4761
58772SOL    HW294309   4.298  13.483   6.833  2.7260 -0.5155  1.8891
58773SOL     OW94310   3.673   3.442   2.856  0.1476  0.2858  0.1534
58773SOL    HW194311   3.694   3.418   2.766  0.9867 -3.3466  1.1467
58773SOL    HW294312   3.756   3.474   2.892  0.2543  0.1005  0.0737
58774SOL     OW94313  11.786  11.643  13.641 -0.0252  0.4244  0.4964
58774SOL    HW194314  11.812  11.735  13.648 -0.4275  0.5988 -0.2932
58774SOL    HW294315  11.697  11.645  13.606 -0.3279 -0.2452  1.2011
58775SOL     OW94316  12.406  11.835   6.991  0.0096  0.6386 -0.5416
58775SOL    HW194317  12.493  11.797   6.990 -0.8871 -1.9644  2.5417
58775SOL    HW294318  12.418  11.924   7.026  1.3555 -0.1706  1.1829
58776SOL     OW94319  13.907  11.225  11.669 -0.6046  0.1601  0.2175
58776SOL    HW194320  13.949  11.194  11.749 -0.4859 -2.0838 -0.6483
58776SOL    HW294321  13.974  11.279  11.626  0.0775 -0.3680  0.6056
58777SOL     OW94322   1.041   0.948  12.621  0.1038  0.4435 -1.2525
58777SOL    HW194323   1.054   0.949  12.716 -0.5630  2.1750 -1.1474
58777SOL    HW294324   0.997   0.864  12.604  1.5084 -0.5558 -0.2506
58778SOL     OW94325   8.625   9.563   1.052  0.2127 -0.3754  0.3422
58778SOL    HW194326   8.662   9.508   1.121  1.7149  0.3193  0.1126
58778SOL    HW294327   8.638   9.652   1.083 -2.9754 -0.0653  1.1094
58779SOL     OW94328   7.493   9.862   6.022 -0.1420  0.3228  0.5487
58779SOL    HW194329   7.398   9.871   6.026 -0.0161  1.4165  1.2773
58779SOL    HW294330   7.523   9.937   5.970  0.1369 -1.5669 -2.2778
58780SOL     OW94331   8.763  14.152   4.846  0.7269  0.2231  0.2096
58780SOL    HW194332   8.687  14.177   4.898 -0.8249 -0.6157 -1.5308
58780SOL    HW294333   8.838  14.176   4.900 -0.7556 -0.4595  2.7306
58781SOL     OW94334   1.418   1.084   6.187 -0.2929  0.0160  0.0015
58781SOL    HW194335   1.496   1.054   6.141 -0.9066  0.3878 -1.3456
58781SOL    HW294336   1.350   1.021   6.162 -0.2795 -0.7300  1.7493
58782SOL     OW94337   2.946  13.283   2.946 -0.0885  0.7452  0.1419
58782SOL    HW194338   2.909  13.195   2.949 -0.3865  0.8541  3.6108
58782SOL    HW294339   3.040  13.269   2.931 -0.1122 -0.2215  0.7905
58783SOL     OW94340   6.955   0.760   7.641 -0.6417 -0.7801 -0.3204
58783SOL    HW194341   6.879   0.715   7.679  0.9002 -0.7018  3.3013
58783SOL    HW294342   6.943   0.851   7.666 -0.1908 -0.4735 -1.2234
58784SOL     OW94343  13.688   3.125   6.859  0.2194  0.4934 -0.2690
58784SOL    HW194344  13.700   3.185   6.932 -1.7955 -0.1001  0.6167
58784SOL    HW294345  13.708   3.039   6.896 -1.9464  0.0486 -0.0314
58785SOL     OW94346   3.164   1.137   3.491  0.4028  0.1411  0.3662
58785SOL    HW194347   3.260   1.134   3.497  0.7507  0.8526 -2.7036
58785SOL    HW294348   3.142   1.065   3.433 -1.0466 -0.4879  1.6515
58786SOL     OW94349  13.699   8.093   8.463  0.4861  0.3468 -0.7228
58786SOL    HW194350  13.705   8.171   8.519 -0.3152  1.7227 -2.4463
58786SOL    HW294351  13.725   8.021   8.519  1.0107  1.8275  1.0268
58787SOL     OW94352   9.270   3.407  11.221 -0.0751  0.3315 -0.6447
58787SOL    HW194353   9.229   3.326  11.190 -2.1258  0.8170  0.5914
58787SOL    HW294354   9.208   3.476  11.196 -0.9442  0.9420  2.6821
58788SOL     OW94355  11.786   6.592  13.722  0.3447  0.5689 -0.0707
58788SOL    HW194356  11.711   6.632  13.678 -0.9892 -0.0494  1.5432
58788SOL    HW294357  11.857   6.599  13.659 -1.5941 -0.8349 -2.5581
58789SOL     OW94358   7.699  11.912  13.112  0.4974 -0.3241 -0.1085
58789SOL    HW194359   7.618  11.963  13.109 -0.1172 -1.2109  0.8303
58789SOL    HW294360   7.672  11.826  13.146  1.5784 -1.1226 -1.1817
58790SOL     OW94361   2.708  10.163   0.454 -0.4998  0.3351 -0.3415
58790SOL    HW194362   2.641  10.105   0.490  0.1690 -0.4741 -0.3841
58790SOL    HW294363   2.662  10.213   0.386 -1.7105  1.6584  1.3578
58791SOL     OW94364   2.744   7.971   6.493  0.2161 -0.5419 -0.6574
58791SOL    HW194365   2.821   7.934   6.450  0.0175 -0.4269 -1.1172
58791SOL    HW294366   2.701   8.023   6.425  0.4058  0.4155 -0.0591
58792SOL     OW94367   3.902   5.348   2.771 -0.0660 -0.7212 -0.1666
58792SOL    HW194368   3.968   5.381   2.711  1.5589 -1.6931  1.0071
58792SOL    HW294369   3.898   5.413   2.841 -0.1469 -0.8099 -0.0873
58793SOL     OW94370  12.438   3.052   7.506  0.3033  0.4291  0.0007
58793SOL    HW194371  12.473   3.087   7.424  0.2376 -0.5366 -0.4454
58793SOL    HW294372  12.385   3.123   7.542 -0.6236  0.4611 -1.3727
58794SOL     OW94373   3.801  14.038   1.749 -0.3268 -0.2010 -0.4038
58794SOL    HW194374   3.799  14.073   1.659 -0.2227 -0.7655 -0.6279
58794SOL    HW294375   3.806  13.943   1.738  3.7926 -0.2536  0.1036
58795SOL     OW94376   7.020   9.422   6.305  0.0738 -0.0524  0.2748
58795SOL    HW194377   6.952   9.439   6.369 -1.0081 -0.7662 -0.6493
58795SOL    HW294378   7.011   9.329   6.283  1.6273 -0.2767  0.4420
58796SOL     OW94379   2.468   9.984  13.097 -0.2803  0.2025  0.0933
58796SOL    HW194380   2.391  10.039  13.087 -0.3001  0.0142 -0.8708
58796SOL    HW294381   2.448   9.927  13.171 -1.5226 -0.5837 -0.8196
58797SOL     OW94382  10.270  13.710   1.551 -0.3214 -0.3052  0.4058
58797SOL    HW194383  10.300  13.698   1.641 -1.3113 -2.8300  0.4756
58797SOL    HW294384  10.194  13.768   1.559  0.5145  0.7464  0.9820
58798SOL     OW94385   2.616   9.851  10.908  0.0984  0.5199 -0.5740
58798SOL    HW194386   2.597   9.800  10.986 -0.3161  0.7286 -0.5373
58798SOL    HW294387   2.578   9.937  10.925  1.1958  0.9870 -0.4476
58799SOL     OW94388  13.022   8.850  11.238  0.1068  0.3007 -0.1263
58799SOL    HW194389  13.004   8.803  11.156 -0.1091 -0.4057  0.3177
58799SOL    HW294390  12.957   8.816  11.300  0.8698  0.1359  0.5983
58800SOL     OW94391   7.170  11.381   3.169 -0.2074 -0.4714 -0.1502
58800SOL    HW194392   7.142  11.472   3.180 -1.4605 -0.8601  0.0108
58800SOL    HW294393   7.245  11.386   3.109 -0.4218  0.6396 -0.3426
58801SOL     OW94394  10.975   6.466   4.147 -0.1463  0.5863 -0.5437
58801SOL    HW194395  10.927   6.384   4.161  1.8806 -0.8604 -1.5030
58801SOL    HW294396  10.962   6.515   4.228 -0.2150 -1.3679  0.7091
58802SOL     OW94397  10.778  11.849   4.176 -0.5236  0.6984  0.0584
58802SOL    HW194398  10.727  11.805   4.108  0.5871  0.5489 -0.7026
58802SOL    HW294399  10.810  11.779   4.231  0.0423  0.6672 -0.3052
58803SOL     OW94400   2.810   4.053   1.772 -0.2075 -0.2485 -0.2398
58803SOL    HW194401   2.718   4.046   1.747 -0.4671 -1.1831  0.8671
58803SOL    HW294402   2.835   3.963   1.795  0.4593  0.2785  1.1969
58804SOL     OW94403  10.310   7.580  12.485 -0.1467  0.0299 -0.3338
58804SOL    HW194404  10.242   7.623  12.538 -0.7339 -1.7374  0.3998
58804SOL    HW294405  10.278   7.585  12.395 -0.7715  0.0852 -0.1099
58805SOL     OW94406   8.355   0.755  12.172  0.0675 -0.2080 -0.1361
58805SOL    HW194407   8.306   0.739  12.091  1.5193  0.5736 -1.2111
58805SOL    HW294408   8.292   0.798  12.230 -0.4913  0.9314 -1.5308
58806SOL     OW94409   5.842   2.171   1.410 -0.1455  0.3568  0.3807
58806SOL    HW194410   5.851   2.256   1.454  0.7599  0.0842  0.7468
58806SOL    HW294411   5.766   2.131   1.451 -1.0875  1.3283 -0.3693
58807SOL     OW94412   6.213   5.013   9.065  0.1926  0.6517 -0.5443
58807SOL    HW194413   6.267   4.942   9.100  0.5103  1.4555  0.6601
58807SOL    HW294414   6.266   5.092   9.077 -0.5483  1.2251 -0.9451
58808SOL     OW94415   6.823   1.227   0.653 -0.5078 -0.1530  0.3254
58808SOL    HW194416   6.801   1.312   0.616  1.1903  0.6981  1.1416
58808SOL    HW294417   6.746   1.200   0.702 -1.1791  0.7620 -0.2168
58809SOL     OW94418  10.033  13.119   9.073  0.4947  0.0270  0.7007
58809SOL    HW194419  10.009  13.134   8.982  1.8018 -0.3505  0.2751
58809SOL    HW294420  10.123  13.152   9.080  0.1901  0.6205  2.0124
58810SOL     OW94421  13.606   3.716  13.908  0.7454  0.1298  0.5853
58810SOL    HW194422  13.674   3.651  13.892 -0.3427 -1.2288  1.2224
58810SOL    HW294423  13.531   3.665  13.939  0.0579  1.7615  1.7672
58811SOL     OW94424  11.325   5.578   0.372  0.1149 -0.2814 -0.3058
58811SOL    HW194425  11.302   5.631   0.449 -2.4892  0.7478 -1.6661
58811SOL    HW294426  11.375   5.638   0.316 -0.7820  0.0387 -0.7912
58812SOL     OW94427   8.048  12.039   3.905 -0.0526 -0.7298 -0.3362
58812SOL    HW194428   8.127  12.073   3.863  0.1536 -1.5722 -0.6471
58812SOL    HW294429   7.976  12.080   3.858  0.1893 -0.5522 -0.5541
58813SOL     OW94430  14.112   6.752   8.918  0.2881  0.2677 -0.1340
58813SOL    HW194431  14.109   6.754   8.823 -1.2361  0.7891 -0.0979
58813SOL    HW294432  14.159   6.672   8.939 -0.3613 -0.4498 -1.3275
58814SOL     OW94433   1.306  11.385   3.025  0.0927  0.6696  0.0967
58814SOL    HW194434   1.300  11.290   3.033 -2.0450  0.7540 -0.0487
58814SOL    HW294435   1.219  11.417   3.048  0.7418  2.5928  0.0451
58815SOL     OW94436   6.339   0.528   8.554 -0.3324  0.0915  0.1825
58815SOL    HW194437   6.306   0.606   8.599 -0.4669  0.2065 -0.1115
58815SOL    HW294438   6.371   0.472   8.624 -1.4267 -0.1496  0.5121
58816SOL     OW94439   7.734   1.069   1.078 -0.8736  0.1952 -0.2465
58816SOL    HW194440   7.765   1.068   0.987 -2.8413 -0.6895 -0.9856
58816SOL    HW294441   7.782   1.140   1.119  2.4512 -1.4240 -1.0539
58817SOL     OW94442  10.316   8.237  13.129 -0.4532  0.2774 -0.0980
58817SOL    HW194443  10.366   8.299  13.183 -0.1021  1.2068 -1.4363
58817SOL    HW294444  10.240   8.287  13.100  0.9042  0.9123 -2.9581
58818SOL     OW94445   2.689   4.295   4.674 -0.0591  0.1947 -0.4547
58818SOL    HW194446   2.603   4.272   4.710  0.7629  0.6195  1.9493
58818SOL    HW294447   2.731   4.210   4.658 -0.5597 -0.0080 -0.7124
58819SOL     OW94448   0.215   6.655   6.726  0.1414 -0.0293  0.9200
58819SOL    HW194449   0.302   6.678   6.759  0.5534  1.0673 -0.7990
58819SOL    HW294450   0.179   6.738   6.694 -0.7592 -0.7882 -0.1070
58820SOL     OW94451   3.609   3.621   5.627  0.6539 -0.5113  0.3862
58820SOL    HW194452   3.587   3.567   5.702 -0.6816 -1.7076 -0.8086
58820SOL    HW294453   3.559   3.702   5.640 -0.7212 -1.2906  0.1010
58821SOL     OW94454   3.798  13.063  11.092 -0.1985  0.4686  0.3548
58821SOL    HW194455   3.762  13.149  11.113 -0.7694  0.3114  0.0483
58821SOL    HW294456   3.727  13.002  11.111  0.2979  0.0349  0.8415
58822SOL     OW94457   3.607   8.852   2.071 -0.1505 -0.1707 -0.0543
58822SOL    HW194458   3.604   8.861   1.975  1.3731 -1.9258 -0.3275
58822SOL    HW294459   3.700   8.855   2.092 -0.5117  3.0960  1.7897
58823SOL     OW94460   6.326   1.374   0.796  0.1407 -0.3492 -0.2173
58823SOL    HW194461   6.307   1.455   0.842  0.1030 -0.5440  0.1143
58823SOL    HW294462   6.339   1.400   0.705  2.0181  0.3056  0.1872
58824SOL     OW94463  12.744   1.493   2.236 -0.3060  0.1182 -0.1104
58824SOL    HW194464  12.780   1.514   2.150 -1.6276  0.3083 -0.6477
58824SOL    HW294465  12.773   1.564   2.293 -1.2578  1.1991 -0.9327
58825SOL     OW94466   2.938   5.808   3.518  0.3539 -0.3159  0.1769
58825SOL    HW194467   2.954   5.740   3.453 -1.8676 -1.6957  0.9787
58825SOL    HW294468   3.017   5.810   3.572  1.2047 -0.8929 -1.0108
58826SOL     OW94469   4.621   6.073   9.066 -0.0623 -0.1647  0.0778
58826SOL    HW194470   4.561   6.115   9.004 -1.1665 -0.1362  1.1159
58826SOL    HW294471   4.668   6.008   9.014 -0.9087 -0.0943 -0.7984
58827SOL     OW94472   5.291  12.904   0.607  0.4584 -0.1085 -0.1226
58827SOL    HW194473   5.331  12.959   0.676 -1.2541 -0.0648  0.9018
58827SOL    HW294474   5.346  12.826   0.604  0.9854  0.2053  0.7944
58828SOL     OW94475   4.965   3.102  10.022  0.3025  0.5017  0.1510
58828SOL    HW194476   4.937   3.011  10.015 -0.4529  0.6000  1.4831
58828SOL    HW294477   5.042   3.108   9.966  0.6679 -1.0846  0.4451
58829SOL     OW94478   3.292   5.897  13.320 -0.3579  0.2409  0.3123
58829SOL    HW194479   3.332   5.922  13.404  0.3570  0.5522 -0.1144
58829SOL    HW294480   3.207   5.942  13.320 -0.5943 -0.1851  1.0966
58830SOL     OW94481   1.229  12.961  13.011 -0.2024  1.1959  0.3163
58830SOL    HW194482   1.268  12.875  13.029  0.3677  1.2946 -0.4061
58830SOL    HW294483   1.209  12.959  12.918 -1.1571  1.4735  0.5040
58831SOL     OW94484   8.016   8.493  13.382 -0.1496 -0.2560  0.2063
58831SOL    HW194485   8.013   8.544  13.462 -1.0862  1.5985 -0.9330
58831SOL    HW294486   8.045   8.556  13.315 -2.9057 -0.7189 -1.5715
58832SOL     OW94487   6.570   5.868   5.891  0.2691 -0.2976  0.2062
58832SOL    HW194488   6.605   5.891   5.977  1.2140 -0.2855 -0.1727
58832SOL    HW294489   6.477   5.853   5.907 -0.3674  3.1157  0.6589
58833SOL     OW94490  11.923   9.596  10.435 -0.2059  0.0877 -0.0585
58833SOL    HW194491  11.843   9.624  10.480 -1.0004 -0.2763 -1.1913
58833SOL    HW294492  11.910   9.626  10.345  0.7748 -0.3132 -0.3370
58834SOL     OW94493   9.813   3.062  10.558  0.7679  0.1769  0.3126
58834SOL    HW194494   9.878   3.017  10.504 -0.1739 -1.3061  0.3609
58834SOL    HW294495   9.730   3.051  10.510  0.1085 -0.1888  1.5038
58835SOL     OW94496   4.452   7.900   9.858  0.3118 -0.0835 -0.0589
58835SOL    HW194497   4.407   7.819   9.881  1.1286 -0.3870  0.5327
58835SOL    HW294498   4.385   7.955   9.819 -0.2741 -1.0101 -0.3839
58836SOL     OW94499  11.406  13.186  10.598  0.2625  0.5032  0.3895
58836SOL    HW194500  11.375  13.116  10.540 -1.5269  0.9504  0.7302
58836SOL    HW294501  11.501  13.182  10.592  0.2881 -2.7266  1.3285
58837SOL     OW94502  13.430   4.429  11.759 -0.5281 -0.2026 -0.4549
58837SOL    HW194503  13.427   4.333  11.768  1.1298 -0.1617  1.0056
58837SOL    HW294504  13.392   4.461  11.840  0.0542  0.3665 -0.4036
58838SOL     OW94505  13.995   0.266   8.157 -0.3147 -0.0720 -0.2704
58838SOL    HW194506  13.962   0.234   8.073  0.9431 -0.0359 -0.7988
58838SOL    HW294507  13.998   0.361   8.148 -0.3329 -0.0554 -0.1171
58839SOL     OW94508   2.235  11.831   9.329 -0.0481  0.0438  0.0346
58839SOL    HW194509   2.323  11.862   9.308 -1.3124  3.1872 -1.2753
58839SOL    HW294510   2.205  11.891   9.397 -1.2636 -0.8369  0.3007
58840SOL     OW94511  13.363   7.860   3.250  0.4754  0.1270  0.3254
58840SOL    HW194512  13.306   7.840   3.176 -0.1958 -0.6146  1.0240
58840SOL    HW294513  13.451   7.857   3.214  0.1529 -0.1637 -0.4590
58841SOL     OW94514   0.008   6.713   8.479 -0.0792 -0.2614  0.7115
58841SOL    HW194515  -0.073   6.681   8.519 -0.2613  1.3877  1.7453
58841SOL    HW294516   0.076   6.692   8.544  0.1285 -0.4369  0.4404
58842SOL     OW94517   3.379   6.331   0.095  0.3199  0.3556 -0.5839
58842SOL    HW194518   3.294   6.296   0.121  0.1518  0.9155 -0.3482
58842SOL    HW294519   3.385   6.313   0.001  0.6336 -1.0797 -0.2990
58843SOL     OW94520   3.988   0.007  13.157  0.0546 -0.0213  0.1377
58843SOL    HW194521   4.074  -0.033  13.146  0.5748  0.6703  1.4134
58843SOL    HW294522   3.987   0.080  13.095 -0.2405 -0.9233 -0.9695
58844SOL     OW94523   5.435   4.116   7.413 -0.1281  0.0942 -0.1832
58844SOL    HW194524   5.410   4.081   7.327 -1.1712  0.4342 -0.0328
58844SOL    HW294525   5.376   4.190   7.426  1.0605  1.0061  0.1533
58845SOL     OW94526   4.476   7.120  12.396 -0.5242  0.3141  0.3545
58845SOL    HW194527   4.556   7.165  12.370 -0.1218 -0.1862  0.6965
58845SOL    HW294528   4.494   7.088  12.484 -0.9782 -0.0822  0.3082
58846SOL     OW94529   0.316  10.818   8.271 -0.0100 -0.2211 -0.1429
58846SOL    HW194530   0.349  10.729   8.258 -1.4671 -0.7998 -0.1270
58846SOL    HW294531   0.221  10.807   8.277 -0.0911  1.1138  1.8501
58847SOL     OW94532   5.470  12.289   2.791  0.4339 -0.2912  0.7600
58847SOL    HW194533   5.454  12.384   2.792 -0.1373 -0.2923 -1.9277
58847SOL    HW294534   5.552  12.279   2.839 -0.2399  1.3726  2.3868
58848SOL     OW94535   7.948   2.200  11.225 -0.1120  0.0880  0.5402
58848SOL    HW194536   7.914   2.289  11.232 -0.6005 -0.0271 -0.3119
58848SOL    HW294537   7.937   2.164  11.313 -0.8989  0.5152  0.6294
58849SOL     OW94538  10.287   2.269  13.421  0.2261  0.1130 -0.1181
58849SOL    HW194539  10.332   2.244  13.339 -2.1479 -0.2687 -1.3846
58849SOL    HW294540  10.338   2.227  13.490 -0.2199 -3.4128 -1.7447
58850SOL     OW94541   9.938   7.380   0.508  0.3936 -0.3549 -0.2307
58850SOL    HW194542   9.953   7.443   0.578 -2.1537 -0.2759  0.3274
58850SOL    HW294543  10.006   7.314   0.521  2.8538  1.9239 -0.5479
58851SOL     OW94544   4.703  10.447   9.518 -0.3444 -0.1571  0.3022
58851SOL    HW194545   4.775  10.386   9.502 -0.7142 -0.5329  0.0478
58851SOL    HW294546   4.736  10.506   9.586 -0.5413 -1.6287  1.7626
58852SOL     OW94547   6.240  14.075   5.920  0.0292  0.2211 -0.1028
58852SOL    HW194548   6.156  14.094   5.963 -1.0502 -1.0957 -1.5232
58852SOL    HW294549   6.251  14.147   5.857 -0.0808  0.3399  0.0135
58853SOL     OW94550   8.542   5.026   3.606 -0.5195  0.0857 -0.2754
58853SOL    HW194551   8.563   5.058   3.518 -0.3587 -1.1884 -0.7153
58853SOL    HW294552   8.507   5.102   3.651  0.0652  0.9419 -1.2166
58854SOL     OW94553   3.360   5.900   6.527  0.4305 -0.2222  0.0501
58854SOL    HW194554   3.329   5.900   6.617  0.2334 -0.6782 -0.0144
58854SOL    HW294555   3.393   5.811   6.513 -0.3661 -0.4264 -0.6023
58855SOL     OW94556   4.931  12.732   8.465  0.1173 -0.2700 -0.6758
58855SOL    HW194557   4.880  12.680   8.404  0.3650  1.2550 -2.2718
58855SOL    HW294558   4.886  12.817   8.467  2.3394  1.0129 -1.8938
58856SOL     OW94559  10.422  10.726  10.674  0.2664  0.1455 -0.5324
58856SOL    HW194560  10.352  10.726  10.738 -0.1182  0.5040 -0.9465
58856SOL    HW294561  10.405  10.802  10.619  0.5437 -0.1921 -1.1027
58857SOL     OW94562   4.241   5.312   3.349 -0.1851 -0.1430  0.4287
58857SOL    HW194563   4.199   5.375   3.290  0.5288  0.7676  0.8627
58857SOL    HW294564   4.169   5.273   3.398 -0.6872 -0.0738 -0.2485
58858SOL     OW94565   2.737   4.008  11.692  0.0743  0.2979 -0.5628
58858SOL    HW194566   2.820   4.023  11.737  1.0303 -1.3772 -1.6358
58858SOL    HW294567   2.670   4.022  11.759  1.3098  0.0616  0.7829
58859SOL     OW94568  10.702   7.899  13.475 -0.3678  0.3614  0.5467
58859SOL    HW194569  10.659   7.880  13.558 -0.3885 -0.3421  0.3798
58859SOL    HW294570  10.745   7.817  13.451  1.2195  1.0837  0.7955
58860SOL     OW94571   4.670   7.669   8.668  0.0155  0.4443 -0.2701
58860SOL    HW194572   4.643   7.746   8.718  0.3949  0.3569  0.0682
58860SOL    HW294573   4.759   7.651   8.697 -0.1341 -0.2306 -0.2109
58861SOL     OW94574   7.127   8.613  10.753  0.1721 -0.6324 -0.1811
58861SOL    HW194575   7.097   8.698  10.785  0.4164 -0.6418  0.0702
58861SOL    HW294576   7.222   8.616  10.762  0.2041 -0.8185 -0.4522
58862SOL     OW94577   9.599  10.357  10.548 -0.3177  0.5427  0.1438
58862SOL    HW194578   9.533  10.419  10.518  0.0711  0.4970 -0.8350
58862SOL    HW294579   9.551  10.275  10.560 -0.1736  0.0664 -2.1739
58863SOL     OW94580  10.128   5.579   8.057  0.1760 -0.0653 -0.0124
58863SOL    HW194581  10.198   5.638   8.084 -0.1037  1.0249 -1.5766
58863SOL    HW294582  10.160   5.537   7.977 -0.2747 -0.8512  0.1989
58864SOL     OW94583   5.663  10.899   4.670 -0.0560 -0.7030 -0.1837
58864SOL    HW194584   5.603  10.851   4.612  0.6603 -1.3921 -0.3796
58864SOL    HW294585   5.727  10.939   4.611  0.9771 -1.8297  0.1269
58865SOL     OW94586  13.646  11.399  10.310 -0.3011  0.1898  0.2149
58865SOL    HW194587  13.643  11.306  10.332 -2.1182  0.5830  1.7937
58865SOL    HW294588  13.737  11.413  10.281  0.6349 -1.6248  1.9896
58866SOL     OW94589   2.697   1.929  14.137  0.2905 -0.0749  0.0242
58866SOL    HW194590   2.767   1.909  14.075 -1.3385  0.1167 -2.0030
58866SOL    HW294591   2.733   1.997  14.194  1.6593  0.1910 -1.1150
58867SOL     OW94592   2.667   1.723   4.883 -0.1029  0.3956  0.0853
58867SOL    HW194593   2.741   1.680   4.842 -1.1583 -1.6026  0.1650
58867SOL    HW294594   2.643   1.666   4.956 -0.8559  1.7243  0.9139
58868SOL     OW94595   9.588   7.778   2.176 -0.2805  0.0371 -0.1448
58868SOL    HW194596   9.662   7.821   2.133 -0.7500 -0.4795 -1.5074
58868SOL    HW294597   9.627   7.704   2.223  0.1895  0.3661 -0.0116
58869SOL     OW94598  11.845   6.290  11.476  0.2025  0.3865  0.5083
58869SOL    HW194599  11.797   6.255  11.401  0.5379  0.2976  0.3374
58869SOL    HW294600  11.802   6.374  11.494  0.6715  0.8075 -0.3171
58870SOL     OW94601   3.395   3.567   7.612  0.5081 -0.7682 -0.4427
58870SOL    HW194602   3.446   3.615   7.677 -0.2951  2.1417 -1.7884
58870SOL    HW294603   3.457   3.549   7.541  0.1940  1.1361 -1.2706
58871SOL     OW94604   8.135   2.755   3.055 -0.2540  0.0474 -0.0455
58871SOL    HW194605   8.222   2.773   3.090 -0.3333  0.6052 -0.1246
58871SOL    HW294606   8.082   2.829   3.085  0.0303  1.4142 -2.6537
58872SOL     OW94607  11.053   8.699   0.193 -0.2839  0.6486  0.6853
58872SOL    HW194608  10.997   8.645   0.138  1.8720  0.0074 -0.9975
58872SOL    HW294609  11.139   8.695   0.152  0.8863  2.1242  2.7840
58873SOL     OW94610   9.553   7.962   0.179  0.0998 -0.5993 -0.3137
58873SOL    HW194611   9.498   7.891   0.211 -0.7139  1.2659  2.8748
58873SOL    HW294612   9.631   7.958   0.234  0.5859  0.2286 -0.9218
58874SOL     OW94613  13.591   9.594  13.931  0.4295 -0.3712 -0.3568
58874SOL    HW194614  13.597   9.577  14.025 -1.2915  1.1291  0.0917
58874SOL    HW294615  13.680   9.581  13.898  0.3073 -5.4767  0.5415
58875SOL     OW94616   4.097   9.534   7.183 -0.0951  0.0773  0.4829
58875SOL    HW194617   4.105   9.439   7.176  2.5496  0.3455 -1.7990
58875SOL    HW294618   4.081   9.550   7.276  0.9789 -2.5090  1.1930
58876SOL     OW94619   8.970   3.139  13.174 -0.2219 -0.3387 -0.2203
58876SOL    HW194620   8.943   3.137  13.266 -0.5848  0.1455 -0.3106
58876SOL    HW294621   8.963   3.232  13.150 -1.5148 -0.6509 -1.1386
58877SOL     OW94622  10.349   9.154   3.419 -0.3995  0.7373  0.1777
58877SOL    HW194623  10.254   9.158   3.409 -0.3558  0.1908 -0.5504
58877SOL    HW294624  10.379   9.242   3.397 -0.6774  0.7084 -0.3277
58878SOL     OW94625   0.956   3.599  11.620  0.2750  0.9029 -0.6504
58878SOL    HW194626   0.928   3.592  11.711  0.7550  2.2500 -0.3821
58878SOL    HW294627   1.034   3.655  11.622  0.7687  0.3009 -1.8025
58879SOL     OW94628   1.749   0.236   4.354 -0.6291 -0.3642  0.1190
58879SOL    HW194629   1.685   0.301   4.324 -1.4195 -0.1445  2.1483
58879SOL    HW294630   1.695   0.166   4.392  0.3214 -0.5934  1.0701
58880SOL     OW94631   5.292   7.094   7.419  0.3573 -0.3442  0.1068
58880SOL    HW194632   5.328   7.183   7.409 -3.2612  1.4706  1.3968
58880SOL    HW294633   5.254   7.094   7.507 -1.0727 -2.6683 -0.4229
58881SOL     OW94634  10.135   7.562   3.420 -0.2721  0.3311  0.0632
58881SOL    HW194635  10.083   7.562   3.501 -0.4770 -0.6438 -0.0530
58881SOL    HW294636  10.143   7.654   3.397 -3.2641  0.4988 -0.7319
58882SOL     OW94637  11.845   5.000   4.152  0.1859  0.2364 -0.6586
58882SOL    HW194638  11.863   4.913   4.186  0.7194  1.0731  1.3354
58882SOL    HW294639  11.872   4.996   4.060  2.5979 -0.9980  0.0250
58883SOL     OW94640   4.235   6.510  11.041  0.1600  0.5798  0.1482
58883SOL    HW194641   4.288   6.462  10.978 -0.3146  0.2215  0.0215
58883SOL    HW294642   4.229   6.599  11.005  1.7518  1.0007  0.8010
58884SOL     OW94643   1.329   7.749  14.103 -0.0070  0.2079  0.5782
58884SOL    HW194644   1.322   7.658  14.075 -0.8599  0.4952 -0.1902
58884SOL    HW294645   1.422   7.760  14.125  0.0959 -0.8500  0.7238
58885SOL     OW94646   4.693  10.441  12.189  0.3950 -0.0859 -0.2323
58885SOL    HW194647   4.630  10.512  12.198 -0.4885 -0.4502 -2.6305
58885SOL    HW294648   4.773  10.484  12.159  0.1177  0.0009 -0.8636
58886SOL     OW94649   6.336  10.348   2.168  0.5006 -0.2601 -0.0265
58886SOL    HW194650   6.417  10.395   2.188 -0.2298  0.7413  0.6797
58886SOL    HW294651   6.276  10.372   2.238 -0.2977 -1.2880 -0.3309
58887SOL     OW94652   6.939   1.253   2.422 -0.5998  0.3372 -0.8199
58887SOL    HW194653   6.888   1.215   2.351 -0.4622 -0.8546 -0.3040
58887SOL    HW294654   6.958   1.179   2.480 -0.0364  1.1416  0.0459
58888SOL     OW94655  13.984  12.840   0.279 -0.2035 -0.3020 -0.3938
58888SOL    HW194656  14.032  12.867   0.201  0.6187  0.4234  0.3468
58888SOL    HW294657  13.914  12.783   0.245  0.0708  0.0769 -1.6566
58889SOL     OW94658   2.353   1.635  10.621 -0.0410 -0.0171  0.8975
58889SOL    HW194659   2.282   1.596  10.672 -2.1971  1.1691 -0.9958
58889SOL    HW294660   2.311   1.666  10.541  2.5148  1.4406 -0.0118
58890SOL     OW94661   3.709   8.450   2.040 -0.2007 -0.0871 -0.1394
58890SOL    HW194662   3.713   8.381   2.106 -0.3996 -0.8158 -0.8787
58890SOL    HW294663   3.616   8.461   2.022 -0.1902  0.5689  0.1632
58891SOL     OW94664  13.445   4.526  12.416  0.0878  0.2749 -0.8795
58891SOL    HW194665  13.477   4.441  12.385  0.3200 -0.0511  0.2235
58891SOL    HW294666  13.389   4.505  12.490 -2.0103  0.9150 -2.2117
58892SOL     OW94667  12.939   2.711  12.028 -0.4396 -0.3224  0.5757
58892SOL    HW194668  12.926   2.661  12.109 -1.3593 -1.2066 -0.0874
58892SOL    HW294669  12.856   2.755  12.013  0.5988  2.1058  1.5515
58893SOL     OW94670   0.099   3.911   2.837  0.3882  0.2162 -0.0622
58893SOL    HW194671   0.087   4.003   2.815 -3.2165  0.3161  1.6302
58893SOL    HW294672   0.089   3.865   2.754  5.1595  1.2546 -1.5354
58894SOL     OW94673  11.619   1.125   3.417  0.2912  0.4158  0.4512
58894SOL    HW194674  11.621   1.060   3.488  0.5994  1.2324  1.2144
58894SOL    HW294675  11.709   1.133   3.388  0.1495  0.0156 -0.0978
58895SOL     OW94676   8.158   9.376   9.772 -0.4139  0.0171  0.2018
58895SOL    HW194677   8.198   9.402   9.855  0.6729 -0.6159 -0.0925
58895SOL    HW294678   8.117   9.291   9.791 -2.1395  0.9093  0.6386
58896SOL     OW94679  12.642  12.097  13.149 -0.3354  0.6842  0.0384
58896SOL    HW194680  12.568  12.103  13.089 -0.8173  0.2110  0.5761
58896SOL    HW294681  12.672  12.006  13.142  0.5865  1.0179 -0.6187
58897SOL     OW94682   4.268   0.223  13.079  0.4629  0.4605 -0.4496
58897SOL    HW194683   4.234   0.312  13.072  0.0317  0.3310 -0.0595
58897SOL    HW294684   4.296   0.200  12.991  1.4934  1.3435 -0.3635
58898SOL     OW94685   9.077   2.233   4.516  0.2248  0.5340 -0.1589
58898SOL    HW194686   9.166   2.263   4.531 -0.1786  0.9372  1.7480
58898SOL    HW294687   9.025   2.313   4.510 -0.1846  0.2930  0.1052
58899SOL     OW94688   7.064  10.149   7.685 -0.2826 -0.1291 -0.1840
58899SOL    HW194689   7.121  10.087   7.731 -0.9655 -1.4487 -1.0458
58899SOL    HW294690   7.085  10.234   7.724 -0.3625 -1.0708  2.0990
58900SOL     OW94691   5.289   2.616   7.990  0.1675 -0.6406 -0.2021
58900SOL    HW194692   5.350   2.655   7.927 -0.5017 -0.5028 -0.7772
58900SOL    HW294693   5.210   2.598   7.939  0.7962 -3.8504 -0.2891
58901SOL     OW94694  10.594   2.002   1.513  0.2140 -0.4821  0.1916
58901SOL    HW194695  10.560   1.995   1.424  1.6826 -3.2650 -0.2560
58901SOL    HW294696  10.517   1.991   1.569 -0.8465  2.0077 -0.6054
58902SOL     OW94697   2.503  11.384   3.753  0.6043  0.2113  0.8295
58902SOL    HW194698   2.453  11.445   3.697  2.2462 -0.4385 -1.4837
58902SOL    HW294699   2.441  11.313   3.772 -0.0316  0.4981 -0.0950
58903SOL     OW94700   8.158   5.629   1.293  0.1625 -0.3600  0.2926
58903SOL    HW194701   8.238   5.671   1.261  0.1837  0.2833  1.1472
58903SOL    HW294702   8.173   5.616   1.386 -0.4827 -0.8279  0.3423
58904SOL     OW94703   4.227   4.587  10.636  1.3059 -0.0312 -0.4824
58904SOL    HW194704   4.217   4.654  10.703 -1.3977 -1.5927  0.8647
58904SOL    HW294705   4.287   4.523  10.673  1.6964  0.2685 -0.5916
58905SOL     OW94706  14.028   0.286   8.795  0.1661  0.2400 -0.7667
58905SOL    HW194707  14.052   0.348   8.863 -0.6480  0.0391 -0.2722
58905SOL    HW294708  13.971   0.223   8.840 -0.3401  0.0748 -1.6222
58906SOL     OW94709   1.154   9.826   5.282 -0.0057  0.2539 -0.0383
58906SOL    HW194710   1.171   9.742   5.240  0.3920  0.0417  0.5242
58906SOL    HW294711   1.095   9.872   5.223  0.0007 -0.3100 -0.4857
58907SOL     OW94712   8.156  13.275   7.339  0.4676  0.4413 -0.5416
58907SOL    HW194713   8.077  13.259   7.287  0.6718  0.1280 -0.7605
58907SOL    HW294714   8.226  13.230   7.291  0.5975 -0.1480  0.1886
58908SOL     OW94715  12.144  13.794  14.132 -0.3228 -0.1106 -0.2306
58908SOL    HW194716  12.232  13.758  14.143  0.1355  0.8023 -0.7978
58908SOL    HW294717  12.129  13.845  14.211 -0.3589 -0.2752 -0.1290
58909SOL     OW94718   9.255   6.081  13.394 -0.7747 -0.0928 -0.3675
58909SOL    HW194719   9.315   6.078  13.469 -0.5603  0.5416 -0.5037
58909SOL    HW294720   9.174   6.116  13.431 -1.2007 -1.3353 -0.0987
58910SOL     OW94721   3.015  12.923   1.348  0.5485  0.0746  0.1647
58910SOL    HW194722   2.955  12.994   1.370  0.4745  0.9222 -2.4043
58910SOL    HW294723   3.100  12.952   1.381  0.6639  1.7735 -1.4681
58911SOL     OW94724   4.079  12.399   5.564  0.1133  0.1746 -0.4227
58911SOL    HW194725   4.031  12.473   5.603  1.6279  0.4312  1.0513
58911SOL    HW294726   4.162  12.397   5.611 -0.2173 -3.0609  0.2586
58912SOL     OW94727   7.668  13.434  12.851  0.5065 -0.6376  0.1870
58912SOL    HW194728   7.645  13.376  12.924  1.6234  0.2751  1.3127
58912SOL    HW294729   7.697  13.375  12.782  0.6139 -1.4770  0.9273
58913SOL     OW94730   3.461   0.253   8.691 -0.1848  0.1645 -0.4677
58913SOL    HW194731   3.369   0.280   8.686 -0.4070 -0.6901 -1.2431
58913SOL    HW294732   3.464   0.189   8.761  0.1357  1.3113  0.6146
58914SOL     OW94733   2.170  10.403   0.373  0.1818 -0.2460 -0.2937
58914SOL    HW194734   2.100  10.362   0.423  1.3702 -1.1951  0.6535
58914SOL    HW294735   2.169  10.358   0.289 -0.1964 -0.4026 -0.2052
58915SOL     OW94736  10.872   0.408  11.940  0.2283 -0.6586 -0.2830
58915SOL    HW194737  10.934   0.334  11.941 -1.0584 -1.8825  2.9304
58915SOL    HW294738  10.925   0.483  11.914  2.4109 -2.1139 -0.3467
58916SOL     OW94739  11.474   1.622   9.201  0.0331  0.0264  0.2557
58916SOL    HW194740  11.568   1.607   9.212  0.1676 -0.6102 -1.5600
58916SOL    HW294741  11.450   1.676   9.277  1.7288 -0.2846  1.0637
58917SOL     OW94742  12.238   1.712   7.434 -0.7560 -0.1878 -0.4522
58917SOL    HW194743  12.233   1.807   7.440  0.7834 -0.0898 -0.3776
58917SOL    HW294744  12.209   1.692   7.345  2.8374  0.7668 -1.9967
58918SOL     OW94745   4.200   7.181  11.943  0.6908  0.0722 -0.3440
58918SOL    HW194746   4.210   7.088  11.920  1.0287 -0.3867  1.4665
58918SOL    HW294747   4.275   7.224  11.903  1.4818 -0.7501  0.2034
58919SOL     OW94748  11.600   2.094   6.885 -0.0985 -0.9118  0.4581
58919SOL    HW194749  11.622   2.165   6.946 -2.3129  1.9655 -1.7889
58919SOL    HW294750  11.684   2.065   6.851  0.9093  0.4437  1.6412
58920SOL     OW94751   5.241  10.277   4.689 -0.2585 -0.0466 -0.1900
58920SOL    HW194752   5.214  10.187   4.677 -0.0596 -0.2854  0.9556
58920SOL    HW294753   5.174  10.329   4.646 -0.6134 -0.7255 -0.4723
58921SOL     OW94754   4.488  14.127  13.570 -0.0345  0.2877  0.2781
58921SOL    HW194755   4.521  14.037  13.566  0.7724  0.4879  1.9939
58921SOL    HW294756   4.504  14.156  13.659 -1.4420  1.7271  0.1231
58922SOL     OW94757  12.935   6.241   3.121 -0.0889 -0.1855  0.2626
58922SOL    HW194758  12.946   6.172   3.186 -3.0165 -2.3738 -1.3349
58922SOL    HW294759  12.985   6.212   3.045 -1.1081 -0.4808 -0.3213
58923SOL     OW94760  11.022   6.364   0.887 -0.1640  0.3761  0.1773
58923SOL    HW194761  11.084   6.371   0.815 -0.0234  1.5819  0.3864
58923SOL    HW294762  11.042   6.440   0.942 -2.4596  1.3433 -0.2424
58924SOL     OW94763   6.365  12.474   5.023  0.5580  0.3085  0.1034
58924SOL    HW194764   6.394  12.482   4.932 -2.4375  2.1130 -0.8231
58924SOL    HW294765   6.432  12.419   5.064  0.8715 -2.6360 -3.7212
58925SOL     OW94766  12.894  12.896   2.699  0.4002  0.3441 -0.2854
58925SOL    HW194767  12.988  12.901   2.678  0.2044  0.0380 -1.3325
58925SOL    HW294768  12.876  12.802   2.703 -0.0622  0.3768 -1.1696
58926SOL     OW94769  12.166  11.296   2.331 -0.2686  0.4997 -0.0221
58926SOL    HW194770  12.189  11.224   2.389 -1.4738 -0.6282 -0.8979
58926SOL    HW294771  12.234  11.362   2.348  0.2891 -0.4016  1.5239
58927SOL     OW94772  11.450   8.791   0.986  0.0841  0.0627  0.2785
58927SOL    HW194773  11.427   8.883   0.991 -3.0843 -0.6811  1.7772
58927SOL    HW294774  11.398   8.749   1.055  2.7198 -2.6494  0.8463
58928SOL     OW94775   6.028   0.960   5.060 -0.2369 -0.3250 -0.1217
58928SOL    HW194776   5.978   0.960   4.978  0.6056  2.4062 -0.7474
58928SOL    HW294777   5.964   0.981   5.128 -0.0765  4.1506 -1.0312
58929SOL     OW94778  13.647  12.249   4.825  0.4903  0.0897  0.2346
58929SOL    HW194779  13.558  12.270   4.854  0.7931 -0.8505  2.0326
58929SOL    HW294780  13.695  12.231   4.907  1.8253 -1.3339 -0.8081
58930SOL     OW94781   5.836   8.528   5.850 -0.4879 -0.9641 -0.0037
58930SOL    HW194782   5.912   8.524   5.908 -0.6154 -0.3411  0.2094
58930SOL    HW294783   5.762   8.512   5.908 -0.5929 -0.6219 -0.0412
58931SOL     OW94784   8.352  12.415   8.936 -1.5017 -1.2751  0.0614
58931SOL    HW194785   8.390  12.337   8.896 -0.3342 -0.6660 -0.0657
58931SOL    HW294786   8.258  12.404   8.927 -1.3097 -2.1330 -0.9726
58932SOL     OW94787   9.684  13.758   5.857 -0.0800 -0.0314 -0.0131
58932SOL    HW194788   9.612  13.821   5.862 -0.4971 -0.5686  0.9870
58932SOL    HW294789   9.662  13.703   5.782 -0.3169  0.2809 -0.1769
58933SOL     OW94790   3.284   3.308   3.049  0.2301 -0.0806  0.3634
58933SOL    HW194791   3.272   3.389   3.098  0.8048  0.4356 -0.3219
58933SOL    HW294792   3.203   3.300   2.997  0.4984  0.4752 -0.1506
58934SOL     OW94793   5.397   4.402  11.510  0.1576 -0.0610  0.2348
58934SOL    HW194794   5.309   4.432  11.534 -0.1284  0.1113 -0.9674
58934SOL    HW294795   5.409   4.432  11.420  1.8352  0.7619  0.6971
58935SOL     OW94796   2.407   8.787  10.184 -0.4328  0.3932 -0.4801
58935SOL    HW194797   2.324   8.739  10.186 -1.0163  1.3912  0.0688
58935SOL    HW294798   2.382   8.879  10.174  0.6760  0.5669 -1.9557
58936SOL     OW94799   1.254  12.570   3.406  0.3318 -0.2494 -0.0954
58936SOL    HW194800   1.263  12.604   3.317  0.1327 -0.6168 -0.2549
58936SOL    HW294801   1.216  12.483   3.396  2.7151 -1.4099  0.1794
58937SOL     OW94802   9.291   1.572   1.701 -0.0672 -0.2032  0.1178
58937SOL    HW194803   9.352   1.630   1.746 -0.2706 -0.1331  0.3073
58937SOL    HW294804   9.346   1.508   1.656  0.2477  1.2885 -1.7253
58938SOL     OW94805   5.457   5.457   7.122 -0.1001  0.0563 -0.0136
58938SOL    HW194806   5.422   5.542   7.150  1.8088  0.2509  2.1191
58938SOL    HW294807   5.472   5.410   7.204 -0.0264 -1.8913 -1.1037
58939SOL     OW94808   9.093   6.898   8.439  0.4247 -0.2125  0.6924
58939SOL    HW194809   9.109   6.819   8.389  2.2914  1.9155 -2.4258
58939SOL    HW294810   9.159   6.896   8.508  0.6991 -1.1673  0.4189
58940SOL     OW94811  11.542   1.081  11.996  0.0823  0.2367  1.2805
58940SOL    HW194812  11.561   1.164  11.953 -0.5656  0.2069  0.9218
58940SOL    HW294813  11.581   1.015  11.939 -3.1274 -0.0428 -0.8995
58941SOL     OW94814  13.541   3.737   5.928  0.4692  0.1398  0.0782
58941SOL    HW194815  13.617   3.686   5.956  0.0067 -0.5489  0.0917
58941SOL    HW294816  13.507   3.775   6.009 -1.2811 -2.4110  0.6717
58942SOL     OW94817  13.370  11.942  10.003 -0.3122 -0.1552  0.2713
58942SOL    HW194818  13.394  11.870   9.944  0.7385  0.0578  0.4288
58942SOL    HW294819  13.391  12.021   9.954 -0.2624  0.0338  0.5973
58943SOL     OW94820  10.047   6.965   6.942 -0.7221  0.2703 -0.2513
58943SOL    HW194821   9.962   7.009   6.932 -0.4564  0.6428 -0.9380
58943SOL    HW294822  10.026   6.872   6.935 -0.9933  0.3864 -1.1669
58944SOL     OW94823   1.523  11.371  10.525 -0.5853  0.2451 -0.3007
58944SOL    HW194824   1.592  11.316  10.488 -0.6598 -0.9644  1.2494
58944SOL    HW294825   1.534  11.456  10.482  2.5739  0.4403  0.6709
58945SOL     OW94826   8.190   4.621   4.814 -0.5287 -0.6970  0.3591
58945SOL    HW194827   8.171   4.604   4.722 -0.4508  0.0508  0.2005
58945SOL    HW294828   8.106   4.646   4.853 -0.5739 -1.0732  0.5100
58946SOL     OW94829   0.710   4.394  11.856  0.0286  0.1109  0.1243
58946SOL    HW194830   0.618   4.381  11.878  0.4308 -0.5713  1.5789
58946SOL    HW294831   0.732   4.321  11.798 -0.4955  0.6483 -0.7683
58947SOL     OW94832   9.241   2.907   9.741  0.6531 -0.3553  0.0524
58947SOL    HW194833   9.215   2.818   9.762  1.6461 -0.2221  2.1266
58947SOL    HW294834   9.190   2.962   9.800 -0.9272  0.6230 -2.0839
58948SOL     OW94835   6.637   7.436  12.595 -0.1868 -0.3466 -0.2800
58948SOL    HW194836   6.550   7.451  12.557  0.5837 -1.0819 -2.4993
58948SOL    HW294837   6.637   7.344  12.621 -0.1458 -0.2981 -0.1083
58949SOL     OW94838   3.831   7.969   2.257  0.3192  0.2334  0.1977
58949SOL    HW194839   3.903   7.979   2.319 -0.9235  0.0576  1.7338
58949SOL    HW294840   3.859   7.898   2.199  1.8835  0.9990 -0.0220
58950SOL     OW94841   3.428   7.611   7.073  0.4523 -0.0722 -0.0515
58950SOL    HW194842   3.478   7.568   7.004 -0.6015  0.1424 -0.9825
58950SOL    HW294843   3.373   7.541   7.110  0.4894 -0.0335  0.0785
58951SOL     OW94844  11.069   7.548  12.732  0.0693  0.4448  0.2112
58951SOL    HW194845  10.976   7.548  12.712  0.0301  3.1294 -0.0167
58951SOL    HW294846  11.108   7.490  12.666 -1.4565 -0.9986  0.5542
58952SOL     OW94847   9.823  10.127   9.582 -0.5268 -0.5340 -0.0896
58952SOL    HW194848   9.748  10.074   9.555 -0.7985 -0.3153  0.2209
58952SOL    HW294849   9.785  10.210   9.609 -0.0873 -0.1073 -0.7451
58953SOL     OW94850   5.268   6.408  11.488 -0.1394 -0.5710 -0.7310
58953SOL    HW194851   5.333   6.399  11.418  2.0152 -1.0394  1.2011
58953SOL    HW294852   5.268   6.502  11.508 -0.9470 -0.3990 -1.5075
58954SOL     OW94853   2.625  11.428   7.250  0.0830  0.4066 -0.0337
58954SOL    HW194854   2.605  11.355   7.309 -1.2251  0.2227 -0.6631
58954SOL    HW294855   2.688  11.392   7.188  2.2410  0.8832  1.7823
58955SOL     OW94856  10.388   7.386   2.232 -0.0228  0.1879 -0.4149
58955SOL    HW194857  10.312   7.381   2.291 -0.1484  0.0252 -0.5882
58955SOL    HW294858  10.440   7.458   2.266 -0.3863  0.4701 -0.4500
58956SOL     OW94859   1.563   2.955   7.984 -0.0335 -0.0120  0.3288
58956SOL    HW194860   1.648   2.998   7.998 -0.4869  0.6995  0.9742
58956SOL    HW294861   1.577   2.865   8.012  0.2429  0.3514  1.4397
58957SOL     OW94862  14.006   1.942  13.375  0.4956 -0.1700 -0.3884
58957SOL    HW194863  14.029   2.029  13.408  2.1138 -0.4740 -0.6026
58957SOL    HW294864  13.960   1.958  13.293 -1.4019  0.5283  0.7665
58958SOL     OW94865   6.864   3.397   2.558  0.4060 -0.7639 -0.1545
58958SOL    HW194866   6.785   3.438   2.593  0.0274 -1.7646  0.1986
58958SOL    HW294867   6.936   3.442   2.603  0.0982  0.6226 -0.9716
58959SOL     OW94868   4.981   1.279   9.755 -0.4314 -0.1313 -1.1135
58959SOL    HW194869   5.020   1.363   9.733 -1.4352  0.1457 -1.9433
58959SOL    HW294870   4.889   1.289   9.731 -0.9435 -0.8898  0.3732
58960SOL     OW94871   3.835   6.750  12.195 -0.0612  0.3029 -0.3664
58960SOL    HW194872   3.815   6.657  12.208  2.4597 -0.3921 -0.9128
58960SOL    HW294873   3.756   6.785  12.154 -1.6883 -1.2039  1.2741
58961SOL     OW94874   2.732   2.504   7.678  0.6356 -0.0616  0.9915
58961SOL    HW194875   2.771   2.562   7.611  1.8809  0.3806  2.0581
58961SOL    HW294876   2.741   2.553   7.760  0.5274 -1.2388  1.7222
58962SOL     OW94877   1.198   2.109   7.854  0.0174  0.2707  0.0166
58962SOL    HW194878   1.163   2.082   7.769 -1.6926  2.5593 -0.0865
58962SOL    HW294879   1.246   2.190   7.836 -1.0162  1.2101  1.3112
58963SOL     OW94880   2.857   2.298   2.686  0.3601 -0.2428 -0.2997
58963SOL    HW194881   2.932   2.240   2.669  1.2292  0.5093  0.8769
58963SOL    HW294882   2.862   2.364   2.617 -0.1029 -1.0052 -1.0972
58964SOL     OW94883  13.737   1.987  10.984 -0.1382 -0.6931  0.0405
58964SOL    HW194884  13.711   1.951  10.899  1.7811 -1.4487 -0.2942
58964SOL    HW294885  13.764   2.077  10.965 -0.2048 -0.6944 -0.0600
58965SOL     OW94886  13.059  11.125   8.050  1.0418  0.1026 -0.3426
58965SOL    HW194887  13.071  11.137   8.144  1.1583  1.4249 -0.4936
58965SOL    HW294888  13.015  11.041   8.041 -0.6922  0.7968  1.0209
58966SOL     OW94889   8.853  10.532   1.612 -0.1463  0.5147  0.3512
58966SOL    HW194890   8.937  10.498   1.643  0.1701  0.6441 -0.3315
58966SOL    HW294891   8.790  10.463   1.633  0.4284 -0.3620 -0.7000
58967SOL     OW94892   7.299  13.319   3.065 -0.4793 -0.7221  0.2148
58967SOL    HW194893   7.227  13.383   3.061 -0.9531 -1.3060 -1.0191
58967SOL    HW294894   7.299  13.278   2.979  1.4428 -0.6409  0.1387
58968SOL     OW94895  10.676   6.352  11.070 -0.4822  0.3182 -0.0496
58968SOL    HW194896  10.597   6.342  11.124 -1.6060  1.5999 -1.3497
58968SOL    HW294897  10.723   6.425  11.110 -0.6874  0.4774 -0.0982
58969SOL     OW94898  13.386  14.042   7.445 -0.0818 -0.2518 -0.5863
58969SOL    HW194899  13.356  14.133   7.439 -0.5748 -0.1885  1.7937
58969SOL    HW294900  13.315  13.991   7.405 -1.4179  0.2101  1.0925
58970SOL     OW94901   9.196   7.350   1.935  0.0052 -0.3221 -0.7891
58970SOL    HW194902   9.237   7.329   2.019 -0.2401  0.5523 -0.4325
58970SOL    HW294903   9.267   7.390   1.884 -0.3312  1.0917 -0.2107
58971SOL     OW94904   0.460  13.702   3.823 -0.2124  0.1210 -0.2471
58971SOL    HW194905   0.528  13.640   3.850  0.0055  0.3964 -0.1669
58971SOL    HW294906   0.475  13.714   3.729 -0.3898 -0.1135 -0.3070
58972SOL     OW94907  11.078  11.278   4.489  0.0715  0.2739  0.0557
58972SOL    HW194908  11.131  11.204   4.462 -0.1483 -0.4231  1.4571
58972SOL    HW294909  11.117  11.308   4.571 -1.0508  0.4267  0.5546
58973SOL     OW94910   1.783   4.780   2.028 -0.7141  0.1374 -0.0680
58973SOL    HW194911   1.860   4.807   1.978 -0.9231  2.1540  0.6416
58973SOL    HW294912   1.715   4.766   1.962  0.0688 -1.1448 -0.6530
58974SOL     OW94913   0.744  10.800   5.132  0.1648  0.4009 -0.5799
58974SOL    HW194914   0.795  10.876   5.160  1.4292 -1.3070  2.1636
58974SOL    HW294915   0.671  10.837   5.082  0.0452  3.5144  1.6463
58975SOL     OW94916   9.995  10.253   7.036  0.2572 -0.0995  0.1921
58975SOL    HW194917   9.987  10.204   6.954 -3.4043 -0.4308  0.5808
58975SOL    HW294918   9.990  10.187   7.105 -1.5578  0.4863  0.6782
58976SOL     OW94919   3.774  11.983   5.780  0.3128  0.0419  0.1989
58976SOL    HW194920   3.861  11.986   5.741 -0.0807 -0.3862 -0.7429
58976SOL    HW294921   3.775  12.052   5.847  0.9134  1.0139 -0.7808
58977SOL     OW94922  10.557  13.354   2.624 -0.2126 -0.1802  0.0264
58977SOL    HW194923  10.475  13.378   2.580  0.9799 -0.2445 -2.3948
58977SOL    HW294924  10.575  13.427   2.682 -0.9288  0.8338 -0.9813
58978SOL     OW94925   1.211   3.952  11.129  0.5345 -0.4560  0.0743
58978SOL    HW194926   1.182   3.901  11.204 -0.7515 -2.5936 -1.7280
58978SOL    HW294927   1.297   3.916  11.106  1.2761  0.7136  0.9223
58979SOL     OW94928   4.878   3.724   4.516 -0.0735  0.0028 -0.4597
58979SOL    HW194929   4.889   3.632   4.493 -1.7999  0.0588 -1.7066
58979SOL    HW294930   4.802   3.726   4.573  0.6919  0.5561  0.5902
58980SOL     OW94931   8.055   0.731   2.935  0.0341  0.6495  0.4341
58980SOL    HW194932   7.999   0.662   2.902  0.5133 -0.7467  2.4012
58980SOL    HW294933   8.143   0.695   2.932  0.7666  2.3918 -1.5372
58981SOL     OW94934   7.716  10.774   4.448 -0.4692  0.3519  0.5153
58981SOL    HW194935   7.739  10.748   4.359 -1.5027 -0.0044  0.3302
58981SOL    HW294936   7.783  10.734   4.503  1.4671  2.3995 -0.2387
58982SOL     OW94937   3.020   4.899   2.217  1.1442 -0.8590 -0.3399
58982SOL    HW194938   3.026   4.916   2.123  0.0901  0.3766 -0.2088
58982SOL    HW294939   2.935   4.857   2.229  0.8189 -0.0792  0.1677
58983SOL     OW94940   7.960   7.560   8.733  0.4537  0.2489 -0.4336
58983SOL    HW194941   7.974   7.522   8.646  0.1537 -0.3016 -0.2488
58983SOL    HW294942   8.025   7.515   8.789 -1.2963 -1.6241  0.2381
58984SOL     OW94943   0.026   5.337  12.227  0.2118  0.5221  0.7112
58984SOL    HW194944   0.058   5.420  12.261 -0.3415  1.9823 -1.9723
58984SOL    HW294945  -0.069   5.339  12.243  0.2343  0.3006  0.8746
58985SOL     OW94946  11.090   7.686  12.983  0.7670 -0.6810 -0.1983
58985SOL    HW194947  11.093   7.632  12.904 -0.7334  0.0809 -0.8064
58985SOL    HW294948  11.011   7.657  13.029  0.7102  0.0316  0.1712
58986SOL     OW94949  10.598   3.175   5.123 -0.3192  0.1841 -0.2101
58986SOL    HW194950  10.594   3.150   5.030  0.7713 -0.0077 -0.2170
58986SOL    HW294951  10.559   3.263   5.125 -2.4104 -0.6634 -0.4814
58987SOL     OW94952   8.337   2.802   4.537 -0.3154  0.3825 -0.0452
58987SOL    HW194953   8.273   2.802   4.466  0.3332 -1.5008 -0.6982
58987SOL    HW294954   8.380   2.887   4.532 -1.2199  0.7944 -1.0321
58988SOL     OW94955   1.717   6.043   1.166  0.4012  0.3495  0.5389
58988SOL    HW194956   1.714   5.995   1.249 -1.4314  0.6272  0.6883
58988SOL    HW294957   1.727   6.135   1.191 -1.4077  0.5769  0.5708
58989SOL     OW94958   6.650   8.135   8.876  0.3571 -0.0863 -0.1680
58989SOL    HW194959   6.637   8.219   8.920  0.0962 -0.4217  0.4113
58989SOL    HW294960   6.716   8.090   8.929 -0.5114 -0.8026  0.3378
58990SOL     OW94961   4.661   8.121   5.056 -0.3730 -0.0155 -0.0202
58990SOL    HW194962   4.625   8.170   4.982  0.5258  0.1455 -0.3584
58990SOL    HW294963   4.753   8.110   5.035 -0.3122 -0.8307  0.6158
58991SOL     OW94964   5.930  12.264   5.308  0.1360  0.1854  0.4328
58991SOL    HW194965   5.978  12.319   5.246 -2.8332  0.5498 -1.8260
58991SOL    HW294966   5.949  12.175   5.280  0.3437  0.2927  0.2285
58992SOL     OW94967  12.116   0.382   5.857 -0.7373  0.3033 -0.2609
58992SOL    HW194968  12.189   0.411   5.913 -0.4229 -0.8051 -0.0729
58992SOL    HW294969  12.097   0.293   5.886 -1.6667  0.3020 -0.8304
58993SOL     OW94970  13.588   3.494   3.381 -0.0120  0.6866  0.5181
58993SOL    HW194971  13.528   3.562   3.413 -0.6464 -0.8332  2.8276
58993SOL    HW294972  13.560   3.478   3.291  1.0936  4.4011 -0.6601
58994SOL     OW94973   6.560   6.691  10.151 -0.0083 -0.5621  0.1908
58994SOL    HW194974   6.611   6.661  10.227 -1.0456 -3.1570 -0.0445
58994SOL    HW294975   6.612   6.664  10.075 -0.2033 -0.3100 -0.0320
58995SOL     OW94976   7.311   3.654   2.061 -0.8411 -0.0398 -0.4240
58995SOL    HW194977   7.377   3.590   2.033 -0.3046 -0.1144  0.9338
58995SOL    HW294978   7.338   3.736   2.020  1.1722  0.3571  1.4757
58996SOL     OW94979   3.239  12.706  14.147  0.1520  0.0380 -0.1852
58996SOL    HW194980   3.266  12.795  14.173  1.8692 -0.5174  0.0633
58996SOL    HW294981   3.243  12.655  14.228  0.7655 -0.6251 -0.6229
58997SOL     OW94982   1.548  12.641   1.230  0.2366  0.1219 -0.0060
58997SOL    HW194983   1.499  12.678   1.158  0.1351 -0.6070 -0.3216
58997SOL    HW294984   1.593  12.715   1.270 -0.8417  0.7448  0.0784
58998SOL     OW94985   0.340  10.036   2.922  0.1869  0.3557  0.5894
58998SOL    HW194986   0.399  10.067   2.991 -0.7225  1.3058  0.9688
58998SOL    HW294987   0.271   9.989   2.969  1.7646 -2.8596  0.0156
58999SOL     OW94988   5.424  13.723   6.909 -0.2775 -0.3753  0.0789
58999SOL    HW194989   5.424  13.778   6.988 -1.8580  0.4314 -0.4349
58999SOL    HW294990   5.515  13.695   6.899  0.4008  1.3965  0.8878
59000SOL     OW94991   5.064   5.791   6.661  0.4585 -0.0038 -0.2027
59000SOL    HW194992   5.013   5.741   6.597  0.4051  2.4938 -2.2473
59000SOL    HW294993   5.155   5.767   6.644  0.3524 -0.5193 -0.0900
59001SOL     OW94994   1.429   3.801  12.634  0.0887  0.1145  0.3863
59001SOL    HW194995   1.394   3.841  12.714 -0.1975 -1.2914  0.9979
59001SOL    HW294996   1.523   3.813  12.641 -0.0629  2.0571 -0.2405
59002SOL     OW94997  12.028   4.664   6.224  0.3504  0.0717 -0.2434
59002SOL    HW194998  12.088   4.673   6.150  0.4268 -0.0261 -0.1921
59002SOL    HW294999  11.943   4.645   6.183 -0.2967  2.9957 -0.5132
59003SOL     OW95000  12.438   4.185  13.367  0.5031  0.5757  0.1485
59003SOL    HW195001  12.417   4.276  13.347 -0.8481  0.8650  2.5663
59003SOL    HW295002  12.387   4.135  13.303 -0.5186  1.4939  0.2029
59004SOL     OW95003   9.901  13.326   1.652  0.7554  0.2927 -0.5224
59004SOL    HW195004   9.992  13.354   1.655  0.1699  2.5541 -1.6725
59004SOL    HW295005   9.889  13.291   1.564  0.2958  0.8407 -0.6826
59005SOL     OW95006  13.956   3.516   1.787  0.1100 -0.2255  0.1709
59005SOL    HW195007  14.050   3.505   1.773  0.0084  0.1514 -0.9412
59005SOL    HW295008  13.923   3.427   1.796  0.5033 -0.3903  0.0275
59006SOL     OW95009  10.569   0.106   6.813 -0.2337  0.2443  0.6321
59006SOL    HW195010  10.510   0.180   6.822  0.4471  0.7972  0.6387
59006SOL    HW295011  10.638   0.123   6.878  1.7096  1.3449 -1.5757
59007SOL     OW95012  10.696  14.042  10.136 -0.3717  0.0617 -0.0200
59007SOL    HW195013  10.739  14.090  10.064  0.2071 -0.2745  0.0945
59007SOL    HW295014  10.617  14.006  10.097  0.6642 -1.3683 -0.9158
59008SOL     OW95015  11.893   6.658   6.294 -0.0802  0.3952 -0.5874
59008SOL    HW195016  11.897   6.563   6.308  1.2658  0.2866 -1.5838
59008SOL    HW295017  11.858   6.667   6.206 -0.2573  0.8324 -0.4721
59009SOL     OW95018  10.632   1.625   0.946 -0.1034  0.4493 -0.0436
59009SOL    HW195019  10.553   1.582   0.913  0.7830 -1.6471  0.4117
59009SOL    HW295020  10.671   1.561   1.006  1.0921  2.0837  1.0194
59010SOL     OW95021  12.617  14.124  12.981  0.4882 -0.1539  0.2029
59010SOL    HW195022  12.679  14.127  13.054 -0.0196 -0.4350  0.6539
59010SOL    HW295023  12.630  14.207  12.935  0.8020  0.0327  0.6176
59011SOL     OW95024   1.710  10.468   5.987 -0.3401  0.5442  0.5078
59011SOL    HW195025   1.717  10.389   6.039  1.1547 -0.0863 -0.6044
59011SOL    HW295026   1.789  10.518   6.007 -0.8897  1.4060  0.6030
59012SOL     OW95027   4.458  12.525   3.086 -0.3165  0.2402  0.2062
59012SOL    HW195028   4.541  12.566   3.061 -0.3170  0.4556  0.5524
59012SOL    HW295029   4.462  12.517   3.181 -0.2099 -0.8026  0.1305
59013SOL     OW95030  11.620   1.183   9.083 -0.1359  0.5780  0.3712
59013SOL    HW195031  11.713   1.187   9.107  0.1993  1.2778 -0.9700
59013SOL    HW295032  11.616   1.118   9.014 -0.6227  0.6680  0.3160
59014SOL     OW95033  13.451   6.101   4.882  1.1132 -0.0581 -0.0719
59014SOL    HW195034  13.508   6.147   4.821 -1.6661  0.4858 -2.5148
59014SOL    HW295035  13.434   6.016   4.840 -1.4115  0.5989 -0.6055
59015SOL     OW95036  12.525   7.360   4.344 -0.1550  0.5181 -0.3568
59015SOL    HW195037  12.443   7.322   4.376 -0.9283  1.1577 -1.4744
59015SOL    HW295038  12.585   7.353   4.418 -1.2392  0.0906  0.5236
59016SOL     OW95039   6.244   6.030   2.768 -0.4258  0.2145  0.8692
59016SOL    HW195040   6.235   5.947   2.720  2.5273  0.7172 -0.7667
59016SOL    HW295041   6.293   6.007   2.847 -1.0153  0.1846  1.2357
59017SOL     OW95042   7.528   5.615  13.543  0.3343  0.3831 -0.0364
59017SOL    HW195043   7.591   5.656  13.483  1.6147  0.4237  1.3009
59017SOL    HW295044   7.581   5.563  13.603 -0.8706  0.6794  1.3514
59018SOL     OW95045  13.744  10.676  14.051  0.2680 -0.2156  0.1486
59018SOL    HW195046  13.796  10.755  14.033 -1.0471  0.6808  0.1522
59018SOL    HW295047  13.712  10.649  13.965  1.2556 -1.1747  0.0520
59019SOL     OW95048   0.499  10.646  12.547  0.0493  0.0732  1.2532
59019SOL    HW195049   0.534  10.599  12.623 -0.4540 -1.7317  0.4361
59019SOL    HW295050   0.552  10.614  12.473 -0.9183  0.0860  0.5401
59020SOL     OW95051   5.724  10.019   2.571  0.6076  0.5919 -0.3749
59020SOL    HW195052   5.673   9.941   2.549  0.9268  0.6175 -1.2474
59020SOL    HW295053   5.779  10.033   2.494  0.8655  1.4226 -0.0399
59021SOL     OW95054  12.893   5.615   5.145 -0.3768  0.1097 -0.2819
59021SOL    HW195055  12.801   5.609   5.170  0.0373  0.4299  1.4635
59021SOL    HW295056  12.935   5.661   5.218  0.8966  1.4450 -1.7662
59022SOL     OW95057   8.134   3.730  12.851 -0.2966  0.3772  0.4372
59022SOL    HW195058   8.059   3.784  12.876 -1.5532 -0.6499 -0.9942
59022SOL    HW295059   8.164   3.693  12.934 -2.3258 -0.3719  0.9066
59023SOL     OW95060  11.626   5.245   7.689 -0.7545  0.0677 -0.3866
59023SOL    HW195061  11.542   5.231   7.733 -0.7900  0.0051 -0.4742
59023SOL    HW295062  11.610   5.220   7.598 -0.2909 -1.2632 -0.1333
59024SOL     OW95063   5.482   5.548   0.727  0.0243  0.3637  0.4618
59024SOL    HW195064   5.443   5.572   0.811  0.2018  2.0931  0.0729
59024SOL    HW295065   5.575   5.567   0.737 -0.0365  1.0906 -0.2933
59025SOL     OW95066  10.473  13.274   3.841  0.3469  0.1042 -0.0374
59025SOL    HW195067  10.502  13.185   3.862  1.3116  0.3293 -0.3635
59025SOL    HW295068  10.485  13.282   3.747  0.7056  0.7244  0.0523
59026SOL     OW95069   7.965   4.618  11.519 -0.0541 -0.4233 -0.1771
59026SOL    HW195070   7.923   4.608  11.604 -1.0289  1.6835 -0.3398
59026SOL    HW295071   7.950   4.535  11.474 -2.2579 -0.5075  0.5789
59027SOL     OW95072   0.746  13.885   0.394 -0.5573 -0.2184 -0.2931
59027SOL    HW195073   0.723  13.793   0.398 -2.3929  0.2089  2.8860
59027SOL    HW295074   0.827  13.888   0.345  0.0398 -3.6371  0.2575
59028SOL     OW95075   0.675   1.229   7.667 -0.0743 -0.0975 -0.0639
59028SOL    HW195076   0.749   1.250   7.610 -0.0553 -0.9029 -0.3419
59028SOL    HW295077   0.710   1.237   7.756  0.2681 -0.2031 -0.1874
59029SOL     OW95078  12.493   0.551   6.836  0.3850  0.2495  0.1642
59029SOL    HW195079  12.530   0.636   6.811 -1.1348  0.9740  0.2662
59029SOL    HW295080  12.453   0.518   6.755 -0.5741  0.4823  0.5271
59030SOL     OW95081  11.788  13.786   5.698 -0.1997 -0.0953 -0.4265
59030SOL    HW195082  11.698  13.817   5.696 -0.7080 -1.3146  1.3418
59030SOL    HW295083  11.810  13.772   5.606 -0.9872  2.3605 -1.0861
59031SOL     OW95084   4.515   1.848   3.149  0.4239  0.3784 -0.3047
59031SOL    HW195085   4.466   1.916   3.195  1.1747 -0.6488  2.2162
59031SOL    HW295086   4.577   1.895   3.095 -0.1635  1.6903  0.1248
59032SOL     OW95087   6.754  13.110   7.163 -0.3048 -0.3021 -0.0704
59032SOL    HW195088   6.821  13.055   7.123 -0.5333 -1.5164  1.1316
59032SOL    HW295089   6.750  13.081   7.254 -1.8869  0.3005  0.0951
59033SOL     OW95090   2.296  10.350  12.296 -0.2318  0.2300 -0.4105
59033SOL    HW195091   2.262  10.262  12.284 -0.6850  0.1799  1.0404
59033SOL    HW295092   2.320  10.354  12.388  1.9720  0.8757 -0.9469
59034SOL     OW95093   8.202   3.907  11.742 -0.2520 -0.5947  0.1560
59034SOL    HW195094   8.242   3.994  11.738  0.6356 -0.9677  0.6129
59034SOL    HW295095   8.222   3.876  11.830 -1.0192 -1.0493  0.1703
59035SOL     OW95096   7.685   0.292   5.483 -0.2155 -0.5528 -0.0645
59035SOL    HW195097   7.731   0.373   5.460  2.3699 -1.7622  0.4733
59035SOL    HW295098   7.608   0.291   5.427 -0.1213  2.0783 -0.3546
59036SOL     OW95099   5.403   5.682  13.271 -0.1157  1.0073 -0.2875
59036SOL    HW195100   5.367   5.690  13.182 -1.8380  0.7123  0.3475
59036SOL    HW295101   5.491   5.646  13.258 -0.7927 -0.2136 -1.8239
59037SOL     OW95102   7.561  14.138   1.321 -0.3575  0.0536 -0.4164
59037SOL    HW195103   7.628  14.143   1.389  0.0090  0.7089 -0.8202
59037SOL    HW295104   7.500  14.072   1.353  1.4810 -2.0253 -0.9066
59038SOL     OW95105  11.462   2.847  11.716 -0.5176 -0.4821  0.3561
59038SOL    HW195106  11.430   2.871  11.629  0.6374  1.3872  0.3857
59038SOL    HW295107  11.533   2.785  11.699  0.4412  0.7179 -0.1340
59039SOL     OW95108  11.444   3.705  11.851  0.1699 -0.6916  0.5098
59039SOL    HW195109  11.458   3.799  11.858  1.9273 -0.9410  0.7481
59039SOL    HW295110  11.354   3.692  11.881 -0.5188  1.0294 -0.6815
59040SOL     OW95111   4.470  11.667   9.154 -0.1570  0.0010 -0.7680
59040SOL    HW195112   4.401  11.726   9.127 -1.0152 -0.4474  0.3509
59040SOL    HW295113   4.478  11.604   9.083 -0.8105  0.1391 -0.9679
59041SOL     OW95114  12.841  10.730   6.662 -0.4598 -0.4022  0.0184
59041SOL    HW195115  12.755  10.694   6.641 -0.7286 -0.4591  1.1453
59041SOL    HW295116  12.842  10.815   6.619 -0.6830 -0.8225 -0.8337
59042SOL     OW95117   7.436   7.633  11.555  0.0754  0.4080  0.5393
59042SOL    HW195118   7.399   7.653  11.468 -1.1826  0.0124  0.9565
59042SOL    HW295119   7.492   7.708  11.575  0.5034  0.4340 -0.6772
59043SOL     OW95120  11.721   2.601   7.831  0.0862  0.8454 -0.1155
59043SOL    HW195121  11.772   2.674   7.866  0.2840  0.5898  0.1332
59043SOL    HW295122  11.672   2.567   7.906 -1.9595  2.2928 -0.7188
59044SOL     OW95123   6.971   7.582   0.919 -0.1313  0.4311  0.2142
59044SOL    HW195124   6.953   7.596   0.826 -2.5990  3.9015  1.0052
59044SOL    HW295125   7.051   7.631   0.935  1.1149 -1.3491 -0.2365
59045SOL     OW95126   7.551   8.244  11.112 -0.2098  0.2725  0.2431
59045SOL    HW195127   7.560   8.257  11.206  1.3935 -1.0389  0.3286
59045SOL    HW295128   7.484   8.176  11.104  1.4368 -1.4823  0.6456
59046SOL     OW95129  12.230   5.816  11.461 -0.0510 -0.0093 -0.4180
59046SOL    HW195130  12.187   5.756  11.522  0.9873 -0.4134 -0.0588
59046SOL    HW295131  12.313   5.773  11.439  0.6543  1.2105 -0.2654
59047SOL     OW95132   5.727   0.421   8.856 -0.2779 -0.1293  0.5213
59047SOL    HW195133   5.757   0.343   8.902 -1.0919  0.3002  1.8550
59047SOL    HW295134   5.663   0.390   8.793  0.9941 -0.7538 -0.5171
59048SOL     OW95135  10.584  12.360  12.771 -0.0251 -0.9558  0.5772
59048SOL    HW195136  10.508  12.387  12.823  0.0196  0.3689 -0.0143
59048SOL    HW295137  10.646  12.326  12.835  0.0959  0.7836  1.4391
59049SOL     OW95138   9.436   1.428   3.710  0.2902  0.5315  0.6541
59049SOL    HW195139   9.508   1.394   3.763  1.0815  0.4832 -0.4196
59049SOL    HW295140   9.478   1.461   3.631 -0.7767  1.3511  0.4046
59050SOL     OW95141   0.493   4.123   1.755  0.3054 -0.0948  0.1236
59050SOL    HW195142   0.536   4.104   1.838  0.6277 -3.3359 -0.6737
59050SOL    HW295143   0.554   4.180   1.708  0.5826  0.8918  1.6315
59051SOL     OW95144   8.158   4.443  10.469  0.0112 -0.4624  0.2349
59051SOL    HW195145   8.202   4.471  10.550 -1.5671 -0.2804  1.0825
59051SOL    HW295146   8.222   4.459  10.400  0.6534  1.4504  1.1884
59052SOL     OW95147   9.988  14.131   5.624 -0.1077  0.3569  0.5621
59052SOL    HW195148   9.918  14.117   5.689  0.2104  0.6883  0.9854
59052SOL    HW295149   9.946  14.182   5.554 -0.4436  0.0374  0.5308
59053SOL     OW95150   4.443  10.692   8.973 -0.5937 -0.8067  0.3356
59053SOL    HW195151   4.374  10.758   8.959  0.8934  0.6493 -0.4769
59053SOL    HW295152   4.490  10.689   8.890  0.7195 -1.2765  1.0785
59054SOL     OW95153   3.506  10.187   2.731 -0.1632 -0.3872  0.2949
59054SOL    HW195154   3.503  10.203   2.637 -0.3248  0.3605  0.4147
59054SOL    HW295155   3.585  10.234   2.760  0.3034 -1.2441  0.4216
59055SOL     OW95156  13.725   7.832   6.465 -0.1493  0.5382  0.0352
59055SOL    HW195157  13.663   7.768   6.501 -2.3449  2.5585  0.0791
59055SOL    HW295158  13.760   7.878   6.541  1.2234 -0.3718 -0.0132
59056SOL     OW95159   5.321   3.629  10.673  0.1137  0.0800 -0.2071
59056SOL    HW195160   5.326   3.635  10.577 -0.1341  0.3645 -0.2048
59056SOL    HW295161   5.383   3.695  10.703 -0.4040  0.5603 -0.1759
59057SOL     OW95162   2.947   8.771   9.382  0.0947 -0.1852  0.2775
59057SOL    HW195163   2.971   8.709   9.451  0.6004 -1.3859 -0.9256
59057SOL    HW295164   2.909   8.716   9.313  0.9449  0.7769 -1.0117
59058SOL     OW95165   3.906   3.606   7.289  0.1208 -0.1522  0.4457
59058SOL    HW195166   3.822   3.624   7.246  0.7984  0.2004 -0.7506
59058SOL    HW295167   3.892   3.635   7.380 -0.6470  1.1138 -0.0496
59059SOL     OW95168   9.050   2.008  10.759  0.6000 -0.1773  0.0620
59059SOL    HW195169   9.129   1.971  10.798  0.1337 -0.2193  0.9756
59059SOL    HW295170   9.005   1.933  10.720 -0.2927 -0.6094  1.8229
59060SOL     OW95171  10.725   0.793   7.242  0.5958  0.4682  0.2018
59060SOL    HW195172  10.729   0.801   7.147 -1.8399  0.9282  0.0684
59060SOL    HW295173  10.690   0.705   7.257  0.6767  0.5114  0.6717
59061SOL     OW95174   2.248   1.433   1.661  0.4220  0.0653 -0.1324
59061SOL    HW195175   2.219   1.415   1.571  0.3780  1.0243 -0.3251
59061SOL    HW295176   2.338   1.399   1.665  0.5279  0.2783 -0.6318
59062SOL     OW95177   5.873   8.876   5.070 -0.0425 -0.1458 -0.0242
59062SOL    HW195178   5.843   8.966   5.081  2.0264  0.6085 -0.2427
59062SOL    HW295179   5.913   8.874   4.983 -1.2817 -1.6756 -0.6207
59063SOL     OW95180  12.192   1.770   2.395 -0.0939  0.0759 -0.4429
59063SOL    HW195181  12.112   1.821   2.382 -0.3882 -0.1138  0.5333
59063SOL    HW295182  12.263   1.832   2.378 -0.4490  0.5400 -0.2407
59064SOL     OW95183   4.928   9.033  12.645 -0.0565  0.0211 -0.6055
59064SOL    HW195184   4.978   8.956  12.672 -0.2278 -0.3097 -1.2073
59064SOL    HW295185   4.844   8.998  12.615 -0.3870  0.5077 -0.2657
59065SOL     OW95186   0.187   8.787   1.475 -0.3467  0.4890  0.3379
59065SOL    HW195187   0.207   8.725   1.404 -0.0984  1.9173 -0.8946
59065SOL    HW295188   0.153   8.732   1.546  1.1755 -1.2000 -0.1676
59066SOL     OW95189  12.184  11.650   9.198 -0.5200 -0.8511  0.6139
59066SOL    HW195190  12.246  11.627   9.266  0.1939  0.4944  0.4621
59066SOL    HW295191  12.156  11.739   9.220  0.7301  0.1582 -1.5230
59067SOL     OW95192   8.922  12.908  13.059  0.0320  0.2837 -0.5725
59067SOL    HW195193   9.003  12.913  13.009  1.6540  1.1449  1.9287
59067SOL    HW295194   8.951  12.897  13.150 -2.6856  0.3110  0.3854
59068SOL     OW95195   2.277   0.339  12.244 -0.1334 -0.3867  0.5362
59068SOL    HW195196   2.353   0.286  12.221  0.0657  0.3010 -0.4703
59068SOL    HW295197   2.209   0.313  12.182  0.0252  0.6495 -0.0986
59069SOL     OW95198   4.763   7.461   2.263  0.1687  0.1055 -0.0364
59069SOL    HW195199   4.698   7.447   2.332  0.3923  0.7379  0.3111
59069SOL    HW295200   4.737   7.543   2.222 -0.6582 -0.8512 -1.5165
59070SOL     OW95201   6.990   6.763   0.726  0.0058  0.1868 -0.5797
59070SOL    HW195202   7.004   6.730   0.814  1.8359  2.3844  0.0442
59070SOL    HW295203   7.071   6.808   0.703 -1.4840  2.3120 -2.1515
59071SOL     OW95204   9.527   0.450  10.369 -0.8720 -0.4664  0.1924
59071SOL    HW195205   9.606   0.444  10.315 -0.6089 -0.7966  0.6058
59071SOL    HW295206   9.511   0.544  10.377 -0.2519 -0.3824  0.4851
59072SOL     OW95207   3.276   4.378   0.003  0.0401  0.4850  0.3637
59072SOL    HW195208   3.187   4.393   0.033 -0.5380 -0.1255 -0.9351
59072SOL    HW295209   3.266   4.345  -0.087  1.5294 -0.3657  0.4654
59073SOL     OW95210   8.377   6.609   9.693 -0.2377 -0.2152 -0.1663
59073SOL    HW195211   8.455   6.554   9.706  0.3231  0.9538  1.6237
59073SOL    HW295212   8.309   6.566   9.745 -0.0329  0.2747  0.5180
59074SOL     OW95213   1.953  13.489   1.877  0.3918  0.4457  0.5896
59074SOL    HW195214   1.966  13.523   1.966  1.5994 -0.1092  0.6459
59074SOL    HW295215   1.900  13.410   1.890 -0.8854  1.2815  0.6303
59075SOL     OW95216   0.340  11.755  11.174  0.0694 -0.0386 -0.6434
59075SOL    HW195217   0.351  11.850  11.181 -0.0585 -0.1248  1.7733
59075SOL    HW295218   0.364  11.734  11.084  2.2318  2.0148 -0.6417
59076SOL     OW95219   2.335   6.592  10.252 -0.1734  0.0252 -0.1564
59076SOL    HW195220   2.241   6.605  10.246 -0.2368 -0.1097  0.4689
59076SOL    HW295221   2.356   6.533  10.180 -0.5638  0.0851 -0.3166
59077SOL     OW95222   3.730   4.629   5.527 -0.4491  0.4864 -0.0514
59077SOL    HW195223   3.780   4.629   5.609 -0.6879 -0.8703  0.1247
59077SOL    HW295224   3.652   4.682   5.547 -0.9603 -0.5874  0.9135
59078SOL     OW95225   1.721   0.605   3.347  0.1444  0.0488  0.3154
59078SOL    HW195226   1.782   0.540   3.383  1.0541  1.3750  1.2487
59078SOL    HW295227   1.649   0.552   3.311 -0.1250 -1.4249  2.7976
59079SOL     OW95228   8.544  12.767   7.703  0.0807 -0.1318 -0.1202
59079SOL    HW195229   8.450  12.782   7.694 -0.5613 -1.4974  2.8421
59079SOL    HW295230   8.557  12.677   7.674  0.0084 -0.6569  1.3423
59080SOL     OW95231   6.358  10.379   5.632  0.6249 -0.0787  0.5675
59080SOL    HW195232   6.331  10.359   5.721 -2.1819  1.0933  0.0882
59080SOL    HW295233   6.315  10.312   5.578 -0.3781  1.0661 -0.1213
59081SOL     OW95234  13.808   0.280   7.702  0.1949  0.5158  0.0327
59081SOL    HW195235  13.775   0.356   7.750  1.0496  0.4875  0.6941
59081SOL    HW295236  13.872   0.316   7.641 -2.9783  0.9604 -3.3600
59082SOL     OW95237   2.176   8.546  13.100 -0.0017 -0.5026  0.1663
59082SOL    HW195238   2.103   8.549  13.038 -1.6947  0.7164  2.0917
59082SOL    HW295239   2.147   8.485  13.168  0.9091 -0.2159  0.8321
59083SOL     OW95240   8.714  10.459   2.645  0.2018  0.6141  0.1743
59083SOL    HW195241   8.713  10.402   2.568  1.9890 -0.9998  1.2713
59083SOL    HW295242   8.746  10.543   2.612  0.8042 -0.0095 -0.8860
59084SOL     OW95243   3.955   7.494  14.036  0.2411  0.5189  0.0869
59084SOL    HW195244   3.942   7.485  14.130  0.4704  2.3944  0.3321
59084SOL    HW295245   3.954   7.589  14.020 -0.6264  0.2323 -1.9165
59085SOL     OW95246   5.929  13.431   5.936  0.3065 -0.6739  0.7308
59085SOL    HW195247   5.978  13.389   5.865  1.5348  0.7898  0.6666
59085SOL    HW295248   5.843  13.388   5.934  1.6261 -3.6243  1.1048
59086SOL     OW95249   1.659   0.377  12.587  0.5871 -0.0468 -0.4393
59086SOL    HW195250   1.584   0.367  12.528  0.9928 -1.0408 -0.8062
59086SOL    HW295251   1.650   0.465  12.622 -0.6948 -0.1007 -0.5720
59087SOL     OW95252  12.777   1.477  11.721 -0.5161  0.1621 -0.0921
59087SOL    HW195253  12.814   1.473  11.633  0.3216  0.5538  0.2353
59087SOL    HW295254  12.842   1.434  11.777 -0.7370  0.4949  0.4328
59088SOL     OW95255  10.775   2.634   9.272  0.4048 -0.2671 -0.1173
59088SOL    HW195256  10.785   2.720   9.313 -0.0278 -0.0870 -0.3815
59088SOL    HW295257  10.681   2.623   9.261  0.4095 -1.0778  0.5340
59089SOL     OW95258  13.125   2.288  10.931 -0.4089 -0.0427  0.0256
59089SOL    HW195259  13.060   2.261  10.866 -1.3782  0.9629  0.5282
59089SOL    HW295260  13.194   2.331  10.880 -0.5004 -0.4627 -0.4554
59090SOL     OW95261  12.218   7.744   3.630  0.8683  0.1678 -0.1820
59090SOL    HW195262  12.232   7.662   3.583  0.3633  0.9483 -1.7524
59090SOL    HW295263  12.247   7.812   3.569  0.1709  1.2175  0.6307
59091SOL     OW95264  10.247   3.857   6.381  0.4311 -0.4779  0.1781
59091SOL    HW195265  10.154   3.858   6.407  1.2618  0.0128  3.6710
59091SOL    HW295266  10.270   3.950   6.375  0.9953 -0.5807  0.6961
59092SOL     OW95267  13.507  12.740  13.889  0.5855  0.5618  0.2458
59092SOL    HW195268  13.446  12.749  13.816 -0.6446 -1.0502  1.0036
59092SOL    HW295269  13.592  12.766  13.854  0.0683 -0.3572 -1.8137
59093SOL     OW95270  13.300   7.044  14.038 -0.5360  0.0737  0.0811
59093SOL    HW195271  13.287   7.004  13.952 -0.9063  1.3202 -0.4664
59093SOL    HW295272  13.377   7.101  14.026 -0.7741  0.4814  0.4814
59094SOL     OW95273  10.100   4.853   9.307 -0.1671  0.6180 -0.0950
59094SOL    HW195274  10.189   4.862   9.272  0.5850 -1.1723  1.2095
59094SOL    HW295275  10.070   4.943   9.319 -0.3551  1.4423 -4.6979
59095SOL     OW95276   1.417   6.609   0.681 -0.4382  0.2039 -0.0815
59095SOL    HW195277   1.357   6.566   0.619 -0.2750  0.7735 -0.6382
59095SOL    HW295278   1.472   6.665   0.627 -0.3992  0.8370  0.5947
59096SOL     OW95279   0.316   7.658   4.196 -1.1505  0.2887  0.0536
59096SOL    HW195280   0.251   7.723   4.169  0.2653  1.0325 -1.7888
59096SOL    HW295281   0.313   7.592   4.127  1.2779  1.2899 -1.1311
59097SOL     OW95282   4.405  13.659   6.137  0.1749  0.3548 -0.1420
59097SOL    HW195283   4.497  13.665   6.113  0.5616  0.3654  1.2593
59097SOL    HW295284   4.373  13.582   6.089  0.7672  0.6564 -1.0431
59098SOL     OW95285  11.667   8.379   2.541  0.2650 -0.0117  0.0174
59098SOL    HW195286  11.605   8.369   2.613 -1.1041 -0.8163 -1.2155
59098SOL    HW295287  11.698   8.290   2.523  0.3303  0.1257 -0.5904
59099SOL     OW95288   8.237   1.400  13.201 -0.2997  0.0645 -0.2472
59099SOL    HW195289   8.327   1.377  13.219  0.5757  0.7484 -3.2107
59099SOL    HW295290   8.225   1.485  13.245  0.4672 -0.0733  0.2431
59100SOL     OW95291   1.114  11.003   5.657 -0.7260 -0.3336 -0.2187
59100SOL    HW195292   1.163  11.061   5.598 -1.9834 -0.0480 -1.0187
59100SOL    HW295293   1.112  10.919   5.611  1.5527 -1.2312  1.1791
59101SOL     OW95294   0.973   4.585  11.744  0.1179  0.6007 -0.1197
59101SOL    HW195295   0.964   4.679  11.725  0.1040  0.7346  0.5091
59101SOL    HW295296   0.991   4.582  11.838  0.3015 -0.0211 -0.1731
59102SOL     OW95297   7.831  13.200   4.920 -0.0537  0.4302  0.2454
59102SOL    HW195298   7.819  13.142   4.996  0.3639  1.9137  1.4795
59102SOL    HW295299   7.919  13.236   4.931  1.1323 -1.3564 -2.4194
59103SOL     OW95300  10.036   6.582   4.189  0.6314  0.2358 -0.1860
59103SOL    HW195301   9.985   6.505   4.163  1.0387 -0.5656  1.2754
59103SOL    HW295302  10.071   6.615   4.106 -2.0810  0.7564 -1.2299
59104SOL     OW95303   0.157   4.472   4.888  0.1123 -0.5792 -0.4373
59104SOL    HW195304   0.108   4.450   4.808 -0.1192 -1.7216  0.0020
59104SOL    HW295305   0.123   4.557   4.914 -0.3544 -0.5367 -1.1471
59105SOL     OW95306   9.903  11.339  11.122 -0.1372  0.2759 -0.5356
59105SOL    HW195307   9.958  11.274  11.165  1.4242  1.9693  0.1457
59105SOL    HW295308   9.958  11.374  11.052 -0.8997  0.9548 -0.8100
59106SOL     OW95309  13.041   5.081   9.171  0.2183 -0.4161  0.2802
59106SOL    HW195310  13.009   4.998   9.136 -0.4961  0.3834 -1.0509
59106SOL    HW295311  13.132   5.065   9.194  0.2917 -1.3783 -0.6346
59107SOL     OW95312   5.002  12.920   1.507  0.5152 -0.2724 -0.0087
59107SOL    HW195313   4.917  12.961   1.524 -0.3040 -1.1460 -1.6741
59107SOL    HW295314   5.036  12.967   1.431  1.6687  0.2390  0.8068
59108SOL     OW95315  10.082  10.876   6.327 -0.1565 -0.3380 -0.6261
59108SOL    HW195316  10.134  10.804   6.292  1.7805  0.2729  0.7943
59108SOL    HW295317  10.098  10.949   6.268  1.6884  0.1918  0.4376
59109SOL     OW95318   7.046   2.389   8.491  0.1601 -0.0718 -0.1017
59109SOL    HW195319   7.081   2.315   8.542  0.5493  0.8833  1.0527
59109SOL    HW295320   6.977   2.425   8.547 -1.0539 -0.4515 -1.3160
59110SOL     OW95321   2.973   9.455   9.244 -0.0901 -0.5027 -0.6500
59110SOL    HW195322   2.882   9.485   9.241  0.1913  0.8428  2.1490
59110SOL    HW295323   2.966   9.362   9.267 -0.7989  0.0103  1.4411
59111SOL     OW95324  11.516   9.023   2.410 -0.0826  0.2417  0.7971
59111SOL    HW195325  11.540   9.098   2.357  1.5314  0.3522  1.6404
59111SOL    HW295326  11.435   8.991   2.370  0.6268  0.7991 -1.2043
59112SOL     OW95327   5.435   1.514   7.994  0.2147  0.5458  0.2199
59112SOL    HW195328   5.405   1.428   7.964 -2.8437  1.4923  0.2794
59112SOL    HW295329   5.396   1.525   8.080  0.3767  2.0522  0.1343
59113SOL     OW95330  12.496  12.211   9.510  0.4632  0.1697  0.6622
59113SOL    HW195331  12.564  12.160   9.555 -0.3495 -0.9534  0.6486
59113SOL    HW295332  12.430  12.228   9.577  0.4184  0.6639  0.5000
59114SOL     OW95333  12.607  10.017   3.102 -0.2121 -0.0016 -0.4877
59114SOL    HW195334  12.592   9.955   3.173 -0.8399 -1.1558 -1.5907
59114SOL    HW295335  12.642   9.964   3.031  1.4392  1.3176 -0.7149
59115SOL     OW95336  12.019   9.519   2.165 -0.0498  0.2277 -0.1109
59115SOL    HW195337  12.009   9.613   2.178  2.1591  0.4586  0.2665
59115SOL    HW295338  12.095   9.495   2.218  0.5310 -1.4293 -1.5917
59116SOL     OW95339   0.853  13.908   1.313 -0.0181 -0.1506  0.2863
59116SOL    HW195340   0.908  13.986   1.309 -0.6178  0.2262 -1.9579
59116SOL    HW295341   0.764  13.940   1.297 -0.4306 -1.1588  0.4701
59117SOL     OW95342  11.251  10.540   5.799  0.0861  0.6244  0.2365
59117SOL    HW195343  11.290  10.627   5.787 -3.2475  2.3635  0.8956
59117SOL    HW295344  11.221  10.515   5.712  0.8055  0.2224  0.0966
59118SOL     OW95345   3.151   3.285  12.660  0.7507 -0.9951  0.2221
59118SOL    HW195346   3.215   3.220  12.629  2.2654  0.4813  0.1278
59118SOL    HW295347   3.201   3.342  12.719 -0.4893  0.2038  0.1683
59119SOL     OW95348  11.101   5.894   5.476 -0.3806  0.2869  0.4406
59119SOL    HW195349  11.036   5.907   5.407 -0.4947 -0.2052  0.4481
59119SOL    HW295350  11.072   5.950   5.548 -0.2663  0.7949  0.0935
59120SOL     OW95351   2.989   8.326  10.004  0.0276  0.7233  0.5449
59120SOL    HW195352   2.930   8.270   9.955 -1.1383  0.9070  1.7017
59120SOL    HW295353   3.067   8.332   9.949 -0.0237 -1.5412  0.1069
59121SOL     OW95354   9.069   9.981   0.211  0.2739 -0.1654 -0.2402
59121SOL    HW195355   9.026   9.898   0.231 -1.5456  0.5969 -0.8358
59121SOL    HW295356   9.071  10.028   0.294 -0.9696  0.1925 -0.3998
59122SOL     OW95357   8.909   4.783  10.408 -0.2656 -0.1611  0.0403
59122SOL    HW195358   8.993   4.810  10.372 -0.3358 -1.0783 -0.8511
59122SOL    HW295359   8.882   4.856  10.464  0.8595  0.3711 -0.0886
59123SOL     OW95360   2.858  12.899   6.081  0.0150 -0.3281  0.6825
59123SOL    HW195361   2.947  12.925   6.058 -0.4570  1.1381  0.4126
59123SOL    HW295362   2.837  12.827   6.022  1.0639 -0.8033  0.8646
59124SOL     OW95363   5.972  10.132   4.922 -0.1637 -0.1919  0.9058
59124SOL    HW195364   5.905  10.164   4.982 -3.7638 -1.5102 -1.9933
59124SOL    HW295365   5.982  10.202   4.857  0.4508 -0.4623  0.6963
59125SOL     OW95366  10.109   0.309   1.367 -0.2263 -0.0890 -0.4230
59125SOL    HW195367  10.193   0.304   1.413 -0.3180  0.0956 -0.2337
59125SOL    HW295368  10.055   0.241   1.406 -0.4083  0.2691 -0.0387
59126SOL     OW95369   5.666   4.298   9.862  0.5835 -0.6067  0.0110
59126SOL    HW195370   5.656   4.336   9.949  2.1808 -2.1975  0.9466
59126SOL    HW295371   5.691   4.372   9.807  0.4530  0.2693  1.0911
59127SOL     OW95372  13.306   8.541   7.226  0.2283 -0.3263  0.0600
59127SOL    HW195373  13.380   8.481   7.217  0.1621 -0.2546 -1.0624
59127SOL    HW295374  13.242   8.493   7.278  0.9910 -0.4360  0.9473
59128SOL     OW95375   9.178  12.104   5.707 -0.4934 -0.2876 -0.0597
59128SOL    HW195376   9.189  12.198   5.722  0.8432 -0.2544 -1.0676
59128SOL    HW295377   9.115  12.098   5.635  0.2330 -0.0950 -0.7316
59129SOL     OW95378   3.372   9.080  13.350 -0.2901 -0.0844 -0.5237
59129SOL    HW195379   3.364   9.005  13.409  0.7011  0.0626 -0.1827
59129SOL    HW295380   3.289   9.082  13.302 -0.4404 -1.2212 -0.3390
59130SOL     OW95381   9.272   5.845   7.153  0.7275  0.2194  0.6059
59130SOL    HW195382   9.236   5.844   7.242 -0.1714  0.2453  0.2516
59130SOL    HW295383   9.242   5.763   7.114  0.6453  0.4614  0.1483
59131SOL     OW95384  13.212  11.863   2.098  0.6293 -0.1364  0.0347
59131SOL    HW195385  13.223  11.858   2.193  0.9411 -2.2512 -0.0513
59131SOL    HW295386  13.134  11.809   2.080  0.5880  0.2179 -0.9119
59132SOL     OW95387   2.219   5.422  13.371 -0.3181  0.4634  0.2797
59132SOL    HW195388   2.154   5.366  13.328 -0.3407 -2.8572  4.1064
59132SOL    HW295389   2.173   5.457  13.448  1.8934 -0.8273  2.3123
59133SOL     OW95390   2.883   3.822   8.617  0.4389  0.4632 -0.4139
59133SOL    HW195391   2.863   3.729   8.611 -0.8010  0.7751 -1.6737
59133SOL    HW295392   2.889   3.839   8.711 -0.2046 -0.7216 -0.1394
59134SOL     OW95393  10.527  13.282  13.133  0.0798  0.0573  0.2970
59134SOL    HW195394  10.497  13.191  13.138 -0.0284 -0.1049 -2.0767
59134SOL    HW295395  10.562  13.300  13.220 -0.5264 -2.0282  1.0433
59135SOL     OW95396   0.999   8.637  13.461 -0.1691 -0.2041  0.8132
59135SOL    HW195397   1.031   8.680  13.540  0.1473 -0.2597  0.7150
59135SOL    HW295398   0.937   8.699  13.423  0.9279  0.5464  0.2053
59136SOL     OW95399   0.210  10.189  11.079  0.4225 -0.0047  0.4453
59136SOL    HW195400   0.255  10.271  11.064 -0.9702  0.8259  0.5823
59136SOL    HW295401   0.244  10.156  11.162 -0.0486  1.1989  1.1386
59137SOL     OW95402   2.621   5.354   1.689 -0.7192  0.4270  0.0946
59137SOL    HW195403   2.563   5.284   1.721  2.1449 -2.3008 -0.2159
59137SOL    HW295404   2.626   5.340   1.595  0.5426  0.4943  0.1368
59138SOL     OW95405   9.806   4.777   7.983 -0.3410 -0.2212  0.2051
59138SOL    HW195406   9.882   4.782   7.926 -0.5293 -0.1343 -0.0376
59138SOL    HW295407   9.782   4.868   8.000 -0.7730 -0.2484 -0.2318
59139SOL     OW95408  10.143  11.684   2.493  0.1371  0.1961  0.1014
59139SOL    HW195409  10.208  11.653   2.429  1.5755  2.9411  0.0976
59139SOL    HW295410  10.135  11.778   2.475 -2.4647  0.2829  1.3769
59140SOL     OW95411  13.632  11.988  11.054 -0.0386  0.0642 -0.4195
59140SOL    HW195412  13.541  11.962  11.039  0.4910 -2.0342 -0.2656
59140SOL    HW295413  13.676  11.908  11.082  2.0533  0.8391 -1.2681
59141SOL     OW95414  10.072   1.907   1.165  0.6386 -0.3177 -0.4631
59141SOL    HW195415  10.001   1.922   1.103  1.4529 -0.7267 -1.5226
59141SOL    HW295416  10.039   1.942   1.248 -0.8562 -0.6546 -0.8787
59142SOL     OW95417  10.060   5.155   7.850  0.0288  0.6856 -0.4137
59142SOL    HW195418   9.972   5.192   7.856  0.3195  1.5440 -1.1711
59142SOL    HW295419  10.059   5.106   7.767 -0.2135 -0.6819  0.3594
59143SOL     OW95420  10.139   3.850   3.336 -0.6068 -0.1139 -0.0825
59143SOL    HW195421  10.115   3.787   3.268 -2.2414 -1.5161  1.6568
59143SOL    HW295422  10.224   3.820   3.367  0.9986  1.5596 -2.5494
59144SOL     OW95423  13.646   5.305  14.001 -0.3356  0.0404  0.2003
59144SOL    HW195424  13.565   5.259  14.023 -0.3566 -0.6833 -1.2280
59144SOL    HW295425  13.665   5.359  14.077 -1.4169 -0.8270  1.1197
59145SOL     OW95426  11.379  13.728   6.428  0.1308  0.1657  0.3577
59145SOL    HW195427  11.444  13.764   6.368 -2.0213  1.8865 -1.0636
59145SOL    HW295428  11.314  13.687   6.372 -1.1928  0.5024  1.5891
59146SOL     OW95429  12.169   8.780   7.972 -0.1981 -0.3225  0.2495
59146SOL    HW195430  12.215   8.696   7.982  1.3551  0.5746  1.0981
59146SOL    HW295431  12.134   8.799   8.058 -0.6097 -0.1294  0.0426
59147SOL     OW95432   6.334   8.836  10.932  0.3513  0.0614 -0.0112
59147SOL    HW195433   6.285   8.907  10.891  1.8097  0.8706 -0.4073
59147SOL    HW295434   6.306   8.837  11.023 -1.2095 -0.2557 -0.4606
59148SOL     OW95435  11.526   3.272   2.804  0.3585 -0.0432  0.0523
59148SOL    HW195436  11.464   3.215   2.759  0.8198 -0.7197  0.2556
59148SOL    HW295437  11.474   3.316   2.872  0.0033 -0.2217 -0.1026
59149SOL     OW95438   6.133   4.202  13.339 -0.1987 -0.3404  0.1593
59149SOL    HW195439   6.153   4.110  13.359 -0.3487 -1.0344 -2.5599
59149SOL    HW295440   6.044   4.200  13.306 -0.9898  1.1657  2.0228
59150SOL     OW95441   7.384  12.790  10.023 -0.4980 -0.1978  0.1792
59150SOL    HW195442   7.395  12.713   9.967  0.5341 -1.5590  2.1248
59150SOL    HW295443   7.473  12.811  10.052 -0.9856  0.5778  1.1620
59151SOL     OW95444  12.134   5.279   3.846 -0.3131 -0.5513  0.0088
59151SOL    HW195445  12.153   5.202   3.899  1.2373  0.4344  0.9664
59151SOL    HW295446  12.220   5.312   3.819 -0.9924  0.0779 -1.5494
59152SOL     OW95447  11.214  11.823   2.322  0.1491 -0.0317 -0.3649
59152SOL    HW195448  11.234  11.871   2.242  2.6814 -1.8465 -0.9673
59152SOL    HW295449  11.132  11.777   2.304 -0.8690  1.8682 -0.7495
59153SOL     OW95450   7.807   2.074   7.822  0.1710 -0.5924 -0.5542
59153SOL    HW195451   7.846   2.051   7.738 -3.0758 -2.4069 -1.7744
59153SOL    HW295452   7.727   2.121   7.799  0.5183  1.2966  1.6782
59154SOL     OW95453   1.268  10.937  11.199  0.4783  0.0767  0.6892
59154SOL    HW195454   1.300  11.019  11.163 -1.9804  1.0017  0.4444
59154SOL    HW295455   1.324  10.870  11.159  1.5876  1.5134 -0.2604
59155SOL     OW95456  12.143   7.221  13.637  0.7350  0.5997 -0.3069
59155SOL    HW195457  12.233   7.247  13.658  1.3558 -0.1958 -1.7871
59155SOL    HW295458  12.115   7.284  13.570  1.5909 -1.2690 -2.5710
59156SOL     OW95459  13.893   1.818  11.090 -0.3750  0.8882  0.1550
59156SOL    HW195460  13.936   1.866  11.161  0.9910 -0.6138  0.3906
59156SOL    HW295461  13.839   1.884  11.047  1.5827  2.7116  0.3044
59157SOL     OW95462  13.775   5.935   5.652 -0.3750 -0.2513  0.2603
59157SOL    HW195463  13.843   5.995   5.622 -0.3236 -0.9279 -1.0882
59157SOL    HW295464  13.794   5.919   5.744  1.7122 -0.9541 -0.2455
59158SOL     OW95465   3.596  11.815   2.137 -0.0232 -0.0297 -0.1762
59158SOL    HW195466   3.554  11.847   2.058  1.1279  1.7386 -0.1428
59158SOL    HW295467   3.616  11.724   2.119 -3.0461 -0.7366 -0.4752
59159SOL     OW95468  13.665   6.220   3.501 -0.1376 -0.0032  0.0925
59159SOL    HW195469  13.723   6.153   3.537 -0.4579 -1.1958 -1.5270
59159SOL    HW295470  13.583   6.210   3.549  0.6867  1.1823  1.8522
59160SOL     OW95471   0.246  10.962   6.009  0.4643 -0.1621 -0.7594
59160SOL    HW195472   0.193  10.977   6.087 -1.6296 -0.8097 -1.9807
59160SOL    HW295473   0.336  10.982   6.037 -0.2359 -0.0991  1.7053
59161SOL     OW95474  13.913  12.496   0.375  0.8852 -0.2393 -0.1945
59161SOL    HW195475  13.875  12.565   0.321  0.8025 -0.4058 -0.3536
59161SOL    HW295476  14.007  12.504   0.364  0.8332 -1.1644 -1.5056
59162SOL     OW95477   7.281  13.860   0.243 -0.2016  0.6533  0.1366
59162SOL    HW195478   7.353  13.820   0.194 -1.5340  0.0336 -1.4167
59162SOL    HW295479   7.323  13.906   0.315  1.5867 -1.7560  0.7680
59163SOL     OW95480  12.168   7.945   1.037 -0.2857  0.2388  0.6596
59163SOL    HW195481  12.248   7.979   0.997  0.4051 -0.1638  1.6526
59163SOL    HW295482  12.173   7.974   1.128 -1.2243  0.1102  0.7615
59164SOL     OW95483   5.755   1.195   5.008 -0.7210 -0.5286  0.2645
59164SOL    HW195484   5.769   1.275   5.059 -0.2562  0.3289 -1.1537
59164SOL    HW295485   5.735   1.129   5.074 -2.5982  1.0519  1.4072
59165SOL     OW95486   7.005  11.855  11.368  0.2526 -0.2477 -0.1676
59165SOL    HW195487   6.946  11.929  11.368 -0.2135 -0.5665  1.5871
59165SOL    HW295488   7.037  11.850  11.458  0.4750 -1.9980 -0.3022
59166SOL     OW95489   5.062   1.623   1.546 -0.9237  0.4535  0.3699
59166SOL    HW195490   5.067   1.665   1.461 -0.1004  1.1441  0.7436
59166SOL    HW295491   5.020   1.539   1.529  0.3786  0.0227 -0.9334
59167SOL     OW95492   6.109   2.431   3.087  0.0191 -0.0229 -0.5123
59167SOL    HW195493   6.057   2.500   3.046 -1.1699 -0.2752  0.5126
59167SOL    HW295494   6.182   2.478   3.128  0.8198  0.3043 -2.2283
59168SOL     OW95495   8.427   6.675   6.641 -0.0467  0.2482  0.3247
59168SOL    HW195496   8.358   6.627   6.595 -0.1250  1.2127 -0.6024
59168SOL    HW295497   8.382   6.722   6.711 -0.5427  1.7243 -0.9277
59169SOL     OW95498   6.636   8.181   1.846 -0.4747 -0.6322  0.5658
59169SOL    HW195499   6.658   8.132   1.767 -1.7197 -1.3219  0.6218
59169SOL    HW295500   6.696   8.256   1.845 -1.3292  0.1136 -1.7670
59170SOL     OW95501   6.673  13.673  12.282  0.2823 -0.0159  0.0764
59170SOL    HW195502   6.766  13.674  12.305  0.7826 -0.9504 -1.6770
59170SOL    HW295503   6.661  13.591  12.234 -1.0908  0.7637 -1.0103
59171SOL     OW95504  13.446   6.114   5.390 -0.1427  0.2617  0.3444
59171SOL    HW195505  13.475   6.185   5.333 -1.9217  0.4206 -0.4392
59171SOL    HW295506  13.352   6.108   5.375 -0.5004 -0.4075  2.5089
59172SOL     OW95507   2.010   7.862   1.379  0.4121 -0.0749  0.4213
59172SOL    HW195508   2.042   7.939   1.428 -1.3282 -0.7377  2.7614
59172SOL    HW295509   1.931   7.893   1.336 -0.5655 -0.6094  1.7637
59173SOL     OW95510  12.088   7.268  13.908 -0.1174 -0.0024  0.3396
59173SOL    HW195511  12.063   7.261  13.816 -0.1267  0.7057  0.2891
59173SOL    HW295512  12.081   7.361  13.929  0.1496 -0.1192  0.9828
59174SOL     OW95513  11.734   7.170   2.801 -0.2954 -0.0403  0.1052
59174SOL    HW195514  11.786   7.249   2.782  0.1524  0.5633  3.3704
59174SOL    HW295515  11.643   7.199   2.793 -0.2032 -0.1071 -1.8233
59175SOL     OW95516   2.790  14.114   6.826 -0.0963 -0.3556 -0.4509
59175SOL    HW195517   2.736  14.170   6.771  0.6245 -0.2339 -1.0519
59175SOL    HW295518   2.748  14.117   6.912 -0.8016  0.0574 -0.7998
59176SOL     OW95519   4.070   0.008   0.472 -0.6084  0.2295 -0.5249
59176SOL    HW195520   4.093  -0.072   0.425 -3.2065 -0.9030 -0.0386
59176SOL    HW295521   4.090   0.078   0.411  2.7404 -0.6298 -0.5753
59177SOL     OW95522   0.617   3.065   1.155  0.6005  0.4169 -0.2844
59177SOL    HW195523   0.591   3.037   1.243 -1.9692 -0.6910 -1.2927
59177SOL    HW295524   0.697   3.014   1.136  1.2438  0.7462  1.4022
59178SOL     OW95525   0.194   6.403  10.373  0.2770 -0.1564 -0.6820
59178SOL    HW195526   0.162   6.321  10.410 -0.4074  0.1220 -0.6538
59178SOL    HW295527   0.127   6.429  10.310  0.2363  0.6408 -0.3276
59179SOL     OW95528   4.741   5.669  12.722 -0.4215 -0.3814  0.5661
59179SOL    HW195529   4.734   5.738  12.788 -2.1506 -0.5421  0.5767
59179SOL    HW295530   4.786   5.710  12.649  0.1424  0.2411  1.2407
59180SOL     OW95531  10.168   1.590   6.248  0.0135  0.3375 -0.2473
59180SOL    HW195532  10.260   1.605   6.272 -0.1781  1.1192  0.0072
59180SOL    HW295533  10.132   1.677   6.235 -1.0427  0.1055  0.9489
59181SOL     OW95534  12.442   3.829   9.213  0.7002 -0.1464 -0.6119
59181SOL    HW195535  12.428   3.735   9.220  1.5470 -0.2207  0.2901
59181SOL    HW295536  12.523   3.839   9.164 -0.1529  0.1787 -2.0347
59182SOL     OW95537   3.630  13.385   6.865  0.4560 -0.1487 -0.1278
59182SOL    HW195538   3.547  13.382   6.914  0.0634 -0.7456 -0.8091
59182SOL    HW295539   3.609  13.435   6.786  0.6598 -0.5815 -0.4568
59183SOL     OW95540   0.229  11.414   5.226 -0.2598 -0.2834  0.1450
59183SOL    HW195541   0.193  11.494   5.190  0.7792  0.6562  1.1136
59183SOL    HW295542   0.293  11.443   5.291  0.3417 -1.8937  0.3301
59184SOL     OW95543  13.328   5.929  11.559 -0.7831  0.2296  0.3413
59184SOL    HW195544  13.365   6.017  11.570 -1.3998  0.3795  1.3103
59184SOL    HW295545  13.234   5.940  11.576 -0.8068 -0.6899  0.8356
59185SOL     OW95546   0.185   5.811   5.923 -0.1800 -0.5964 -0.0960
59185SOL    HW195547   0.183   5.895   5.969 -2.4957 -1.1188  0.8787
59185SOL    HW295548   0.259   5.764   5.963 -0.5205 -0.0179  1.2869
59186SOL     OW95549   0.953  12.466   2.670 -0.1614  0.1485  0.0343
59186SOL    HW195550   1.026  12.419   2.709  0.4648 -0.0043 -1.2866
59186SOL    HW295551   0.877  12.442   2.724  0.3353 -1.5319  0.0203
59187SOL     OW95552   9.562  13.341   1.514  0.0843  0.0274 -0.6680
59187SOL    HW195553   9.589  13.372   1.427 -0.3103 -1.1402 -1.2317
59187SOL    HW295554   9.581  13.414   1.572 -1.1054  1.4405 -1.9707
59188SOL     OW95555   0.822   5.899   7.603 -0.2999  0.7740  0.2341
59188SOL    HW195556   0.731   5.888   7.631  0.2104 -1.1227  1.3401
59188SOL    HW295557   0.823   5.869   7.512 -0.6686  0.1992  0.4123
59189SOL     OW95558   6.942   8.968   3.435 -0.0793  0.7513 -0.3428
59189SOL    HW195559   7.015   8.998   3.489 -0.3220  0.9354 -0.1137
59189SOL    HW295560   6.969   8.987   3.345 -0.0016  1.1562 -0.2351
59190SOL     OW95561   0.058   3.221  11.028  0.4104 -0.5869 -0.0671
59190SOL    HW195562   0.001   3.150  11.000 -1.3342  0.8649 -0.4376
59190SOL    HW295563   0.057   3.283  10.955  1.5220  0.0244  0.4108
59191SOL     OW95564   8.380   3.202   1.084  0.1755  0.3411 -0.2131
59191SOL    HW195565   8.368   3.263   1.012 -3.4798  0.2250  0.1045
59191SOL    HW295566   8.400   3.118   1.042  1.0532  0.8827 -0.8917
59192SOL     OW95567   9.520   7.335  13.406 -0.3795 -0.5743 -0.2939
59192SOL    HW195568   9.473   7.321  13.488  0.5206  0.6802  0.4842
59192SOL    HW295569   9.541   7.429  13.407  0.2155 -0.6750 -1.6492
59193SOL     OW95570  13.447  12.056  13.027 -0.0943  0.0299  0.2101
59193SOL    HW195571  13.435  12.099  13.111 -0.8416 -1.9353  1.1737
59193SOL    HW295572  13.499  11.978  13.047 -2.4695 -1.9058 -0.5999
59194SOL     OW95573  12.560   0.632   1.704 -0.3051 -0.2845 -0.3641
59194SOL    HW195574  12.486   0.645   1.645  0.2456  0.8859 -0.8303
59194SOL    HW295575  12.631   0.600   1.649 -0.6079 -2.0426  0.1917
59195SOL     OW95576   4.728  11.753   2.911  0.0330 -0.1271 -0.6655
59195SOL    HW195577   4.691  11.716   2.992  2.5513 -0.0961  0.5791
59195SOL    HW295578   4.756  11.676   2.861 -0.4959 -0.1039 -1.0028
59196SOL     OW95579   7.900   6.346  11.605  0.3998 -0.3233  0.0366
59196SOL    HW195580   7.918   6.438  11.623  2.2621 -0.5090 -0.6392
59196SOL    HW295581   7.937   6.299  11.679  1.9905 -0.6590 -0.9137
59197SOL     OW95582   4.581  12.788  11.817  0.5098 -0.2701 -0.2851
59197SOL    HW195583   4.553  12.720  11.755 -0.0585  0.6307 -1.0585
59197SOL    HW295584   4.506  12.800  11.875 -0.0941  0.9065 -1.2566
59198SOL     OW95585   4.275   4.048  13.234  0.0239  0.1021  0.4202
59198SOL    HW195586   4.199   4.023  13.286  0.1400  1.3469  1.2545
59198SOL    HW295587   4.348   4.047  13.297  1.1624 -3.0032 -0.7609
59199SOL     OW95588   0.133  12.484   9.571 -0.5109 -0.1325 -0.2923
59199SOL    HW195589   0.080  12.406   9.587 -0.7800 -0.1661 -1.3286
59199SOL    HW295590   0.211  12.471   9.625 -0.7670 -0.8941 -0.0901
59200SOL     OW95591   8.581  13.138  10.610 -0.2910 -0.1321  0.0755
59200SOL    HW195592   8.605  13.048  10.633  0.2662 -0.1159 -0.4253
59200SOL    HW295593   8.661  13.175  10.572 -1.0524 -0.0110 -1.4659
59201SOL     OW95594   7.611   8.381   3.588 -0.1638 -0.1403  0.1820
59201SOL    HW195595   7.577   8.383   3.677 -2.8006  0.3184 -0.7576
59201SOL    HW295596   7.642   8.470   3.572 -0.6094  0.0426  0.3202
59202SOL     OW95597   0.995  11.219   4.779  0.1137 -0.3234  0.0291
59202SOL    HW195598   0.985  11.177   4.864  0.4509  1.1347  0.8220
59202SOL    HW295599   0.912  11.264   4.764  0.7856  1.1873  0.6207
59203SOL     OW95600   3.868   6.005   6.874 -0.1416  0.3134 -0.5042
59203SOL    HW195601   3.803   5.985   6.807 -1.6807  1.5179  0.5727
59203SOL    HW295602   3.926   6.070   6.832 -0.6473  0.5148 -0.9041
59204SOL     OW95603  11.786   7.137   8.532 -0.1019  0.0817  0.1685
59204SOL    HW195604  11.796   7.231   8.543 -0.0989 -0.1298  2.3350
59204SOL    HW295605  11.702   7.117   8.573 -0.1565 -0.8649 -0.3594
59205SOL     OW95606   0.649   0.093   0.135  0.5682 -0.3597  0.4142
59205SOL    HW195607   0.710   0.040   0.084  0.6739  0.3836 -0.2625
59205SOL    HW295608   0.584   0.123   0.071 -0.9039 -1.6568  1.2255
59206SOL     OW95609  11.039   0.080  10.115 -0.3228  0.0506  0.4303
59206SOL    HW195610  11.117   0.038  10.152 -0.5771  0.7034  1.7413
59206SOL    HW295611  10.990   0.111  10.190 -1.1300  0.9564 -0.4433
59207SOL     OW95612  10.863   3.321  10.619  0.3847  0.0203 -0.0284
59207SOL    HW195613  10.889   3.241  10.573 -0.3016 -0.1893 -0.0661
59207SOL    HW295614  10.942   3.374  10.622  0.7581 -0.5119 -0.3205
59208SOL     OW95615   1.131   6.351   5.950  0.3637  0.4781  0.1450
59208SOL    HW195616   1.110   6.418   6.015  1.8185  0.6543  0.4599
59208SOL    HW295617   1.095   6.385   5.868 -0.2840  0.8891  0.5862
59209SOL     OW95618   2.029   5.869   4.369  0.2893  0.2292  0.4587
59209SOL    HW195619   2.035   5.856   4.464  0.0559 -1.0205  0.3253
59209SOL    HW295620   1.940   5.902   4.355 -0.0756 -0.6751  0.5816
59210SOL     OW95621  11.011  13.169   2.886 -0.1755 -0.1464 -0.1897
59210SOL    HW195622  11.096  13.198   2.919  0.1499 -0.8351 -0.4073
59210SOL    HW295623  11.019  13.175   2.791  0.2655 -1.9155 -0.2884
59211SOL     OW95624   5.057  11.657   3.779 -0.0422  0.1458 -0.4980
59211SOL    HW195625   5.001  11.731   3.754  1.4467  1.2107 -0.8317
59211SOL    HW295626   5.099  11.630   3.697  1.7803  0.9907  0.1106
59212SOL     OW95627   4.296   1.116   6.983  0.0127  0.2916  0.2768
59212SOL    HW195628   4.332   1.027   6.987 -0.5697  0.0814  1.0834
59212SOL    HW295629   4.331   1.160   7.061  0.4089  0.8168 -0.1907
59213SOL     OW95630   0.568  13.042   0.633 -0.3240  0.2775  0.6017
59213SOL    HW195631   0.657  13.054   0.599 -0.0964  0.4041  1.2223
59213SOL    HW295632   0.512  13.093   0.575 -0.2233 -1.1504 -0.8324
59214SOL     OW95633  11.506   2.475   7.985 -0.5959  0.5119  0.0563
59214SOL    HW195634  11.470   2.466   7.896  0.7609 -0.9220 -0.3831
59214SOL    HW295635  11.509   2.385   8.018 -0.1110  0.9286  1.1623
59215SOL     OW95636   7.505   2.679   6.645  0.3151  0.2858 -0.6757
59215SOL    HW195637   7.503   2.754   6.585 -0.7315  1.9646  1.3066
59215SOL    HW295638   7.456   2.709   6.721  1.9075 -1.5911  1.2010
59216SOL     OW95639  12.032   0.784   4.534 -0.0052  0.6425 -0.1295
59216SOL    HW195640  12.120   0.768   4.499 -0.0280  0.5298 -0.1376
59216SOL    HW295641  12.036   0.872   4.570  0.1478  0.5906 -0.0189
59217SOL     OW95642  11.289  12.133   2.564 -0.0506  0.1442 -0.2052
59217SOL    HW195643  11.251  12.057   2.607 -0.9984  0.8571  0.2401
59217SOL    HW295644  11.313  12.102   2.477  1.2737 -1.1415  0.5743
59218SOL     OW95645   5.120  12.404   5.542  0.4525  0.2364 -0.2623
59218SOL    HW195646   5.130  12.321   5.588  0.3595  0.7474  0.7116
59218SOL    HW295647   5.199  12.413   5.489  2.1360  1.1097  2.2209
59219SOL     OW95648   4.300   9.006   4.717  0.0938  0.0486 -0.4224
59219SOL    HW195649   4.323   8.993   4.809 -0.1309  2.0653 -0.0269
59219SOL    HW295650   4.384   9.014   4.672  0.2081 -1.1414 -0.4501
59220SOL     OW95651   6.849   7.928  13.029 -0.0912 -0.6283 -0.2277
59220SOL    HW195652   6.799   7.851  13.003  1.2241 -1.3410 -0.7462
59220SOL    HW295653   6.843   7.987  12.954 -1.8448  0.2168  0.5056
59221SOL     OW95654   0.593   1.138   2.283 -0.0883  0.2812  0.3901
59221SOL    HW195655   0.576   1.217   2.231  0.5307  0.9160  1.1253
59221SOL    HW295656   0.508   1.117   2.323 -0.8421 -0.8404 -1.6712
59222SOL     OW95657   5.382   4.560   2.873 -0.1061 -0.1238 -0.4588
59222SOL    HW195658   5.319   4.504   2.829 -0.4017  0.8679 -1.3297
59222SOL    HW295659   5.438   4.499   2.922 -0.9126 -1.1063 -0.7317
59223SOL     OW95660  10.644   1.157   0.985  0.0467  0.5438  0.2634
59223SOL    HW195661  10.723   1.120   0.944  0.0513 -0.3058  1.0205
59223SOL    HW295662  10.599   1.082   1.023 -1.0790  1.0362 -0.0491
59224SOL     OW95663   3.290   5.267   6.355 -0.3503  1.0202  0.4740
59224SOL    HW195664   3.246   5.228   6.280 -1.3828  0.8493  1.1403
59224SOL    HW295665   3.229   5.334   6.386 -0.1151  0.8247  1.3867
59225SOL     OW95666   7.007  13.424   8.372  0.1896  0.2584 -0.1419
59225SOL    HW195667   6.918  13.392   8.392  0.8878 -1.7892 -0.0395
59225SOL    HW295668   7.000  13.519   8.379 -2.3343  0.2770 -1.5292
59226SOL     OW95669  11.122   0.642  10.136 -0.6772  0.3924  0.1219
59226SOL    HW195670  11.034   0.613  10.160 -1.5299  1.0733 -1.9475
59226SOL    HW295671  11.122   0.736  10.155 -0.1976  0.3055  0.5886
59227SOL     OW95672  10.736   3.465   0.091 -0.3372  0.5989 -0.1326
59227SOL    HW195673  10.790   3.543   0.084 -1.0504  1.0573 -0.7294
59227SOL    HW295674  10.646   3.498   0.079 -0.8463  0.0165  1.7661
59228SOL     OW95675  12.233  11.480   7.879 -0.2986  0.6296 -0.2476
59228SOL    HW195676  12.326  11.458   7.868 -0.7981 -1.9650  0.1274
59228SOL    HW295677  12.194  11.400   7.915 -3.0843  0.9113 -2.3811
59229SOL     OW95678   6.616   7.391   8.836  0.3182 -0.1718  0.2977
59229SOL    HW195679   6.620   7.309   8.787 -0.2907 -0.0192 -0.0213
59229SOL    HW295680   6.706   7.425   8.832  0.5490 -0.7604  0.3333
59230SOL     OW95681   6.295   3.950   6.922 -0.2547  0.4256  0.2649
59230SOL    HW195682   6.229   3.977   6.859 -2.0466 -2.8021  0.5506
59230SOL    HW295683   6.327   3.866   6.889  1.2826  0.3191  1.8772
59231SOL     OW95684   9.055   5.390   7.191 -0.0066 -0.0617  0.2847
59231SOL    HW195685   9.077   5.450   7.262  1.0452 -0.0446 -0.0389
59231SOL    HW295686   9.107   5.421   7.117 -1.5819  0.3366 -0.7164
59232SOL     OW95687  10.090  12.868   3.075  0.2370 -0.2381  0.1100
59232SOL    HW195688  10.010  12.876   3.126  0.5473 -0.5545  0.6627
59232SOL    HW295689  10.063  12.823   2.995 -0.0764 -0.6675  0.4509
59233SOL     OW95690   6.353   3.134   3.841 -0.0149 -0.9834  0.1515
59233SOL    HW195691   6.282   3.133   3.778 -0.5865  0.0753  0.7456
59233SOL    HW295692   6.363   3.043   3.868 -0.4296 -1.2910 -0.7106
59234SOL     OW95693   4.477   5.974   3.983 -0.0205  0.2551 -0.2196
59234SOL    HW195694   4.441   5.915   4.049  0.5745  0.4109  0.2562
59234SOL    HW295695   4.517   5.917   3.918  1.5815  0.1202  0.8258
59235SOL     OW95696   9.423  13.868  10.947 -0.3200  0.4165  0.1872
59235SOL    HW195697   9.372  13.934  10.995 -1.4884 -0.8761  0.8026
59235SOL    HW295698   9.462  13.916  10.874 -0.4409  1.9561  1.0955
59236SOL     OW95699   5.741  14.076   1.403 -0.1508 -0.0426  0.3301
59236SOL    HW195700   5.790  14.038   1.330  1.0868 -0.0545  1.1295
59236SOL    HW295701   5.652  14.042   1.394  0.7131 -2.5323  0.5542
59237SOL     OW95702   3.864   7.099   4.514  0.2946 -0.2406 -0.2230
59237SOL    HW195703   3.949   7.107   4.558  0.3415  2.6900 -0.7060
59237SOL    HW295704   3.886   7.074   4.424  0.9216  2.6341 -0.9676
59238SOL     OW95705  13.476   3.930   8.887 -0.0134 -0.0431 -0.1757
59238SOL    HW195706  13.466   3.911   8.980 -0.1465  0.9377  0.0194
59238SOL    HW295707  13.458   3.846   8.843 -1.2969 -0.2010  0.5935
59239SOL     OW95708   1.285  11.932  11.765  0.7076 -0.1397 -0.3863
59239SOL    HW195709   1.253  11.847  11.795 -0.7552 -0.0719 -1.6437
59239SOL    HW295710   1.207  11.977  11.731  1.4809  1.6213  0.0396
59240SOL     OW95711   9.672   9.096  12.284 -0.1996 -0.8136 -0.4004
59240SOL    HW195712   9.763   9.086  12.257  0.2910  1.4345  0.1806
59240SOL    HW295713   9.643   9.007  12.305  2.4178 -1.4218  1.1269
59241SOL     OW95714   9.346   7.150   8.343 -0.7036  0.3236  0.3545
59241SOL    HW195715   9.400   7.103   8.280  1.5527  1.0594  1.5914
59241SOL    HW295716   9.408   7.180   8.410 -2.7110  1.0819  2.0023
59242SOL     OW95717   1.267  11.809  13.697  0.0938 -0.1026  0.5453
59242SOL    HW195718   1.306  11.722  13.703 -0.7548 -0.5257  0.0310
59242SOL    HW295719   1.332  11.867  13.737  1.6485 -0.6609 -1.0383
59243SOL     OW95720  11.414   5.739   1.577  0.3587 -0.0858  0.0723
59243SOL    HW195721  11.496   5.767   1.617  0.2287 -1.1995  1.1921
59243SOL    HW295722  11.369   5.689   1.646 -0.4124 -1.0806 -1.0936
59244SOL     OW95723   5.774   6.794   7.947 -0.2921 -0.2627  0.2734
59244SOL    HW195724   5.714   6.773   8.019  0.5135  0.2946  1.1396
59244SOL    HW295725   5.717   6.825   7.877 -0.9848  1.7010  1.5925
59245SOL     OW95726   8.049   5.577   0.902  0.4871 -0.3791 -0.1457
59245SOL    HW195727   8.116   5.645   0.914  0.2338 -0.1572  0.0139
59245SOL    HW295728   7.981   5.598   0.966  1.0965 -1.6602  0.9737
59246SOL     OW95729   6.824  10.223   8.657 -0.5256 -0.1297  0.1456
59246SOL    HW195730   6.785  10.212   8.744 -1.7362 -0.1884 -0.3867
59246SOL    HW295731   6.753  10.259   8.603  0.5809  1.1859 -0.5045
59247SOL     OW95732   3.547  11.306   2.207  0.1681  1.0406  0.0366
59247SOL    HW195733   3.494  11.291   2.286  2.4425  0.0669  1.4777
59247SOL    HW295734   3.525  11.233   2.149  2.2593 -1.3502  2.0189
59248SOL     OW95735   7.216   2.763   4.921 -0.0383  0.1898  0.4165
59248SOL    HW195736   7.273   2.828   4.878 -0.3188  0.0045 -0.2546
59248SOL    HW295737   7.128   2.783   4.889 -0.2917  0.2123  1.1264
59249SOL     OW95738   3.086  11.900   8.834  0.0441  0.0465 -0.1190
59249SOL    HW195739   3.171  11.865   8.806  0.0720  0.4517 -0.5497
59249SOL    HW295740   3.053  11.836   8.897  0.8417  0.0646  0.3305
59250SOL     OW95741   3.791   8.738   8.422 -0.8821  0.2653 -0.0649
59250SOL    HW195742   3.880   8.771   8.425 -1.3459  1.4965  1.0809
59250SOL    HW295743   3.795   8.663   8.362  1.0760 -0.2807  0.6917
59251SOL     OW95744   9.027   9.659   4.266  0.3705 -0.3025  0.4900
59251SOL    HW195745   9.018   9.607   4.186 -0.7393 -0.8472  0.9559
59251SOL    HW295746   9.016   9.596   4.337  2.4831 -0.0351  1.1174
59252SOL     OW95747  11.913   5.955   3.092  0.1134 -0.0977 -0.0349
59252SOL    HW195748  12.004   5.975   3.070  0.3237 -0.1040  0.8028
59252SOL    HW295749  11.919   5.901   3.171 -0.5925 -0.6552 -0.3553
59253SOL     OW95750   3.410   8.671  12.531  0.1100  0.0515 -0.3512
59253SOL    HW195751   3.418   8.745  12.470 -1.6032  2.1392  1.7684
59253SOL    HW295752   3.324   8.634  12.513 -0.5773  0.9240  0.9269
59254SOL     OW95753   7.064   4.482   4.760 -0.1911 -0.6453 -0.1182
59254SOL    HW195754   7.054   4.392   4.729 -0.8539 -0.6767  0.1696
59254SOL    HW295755   6.974   4.513   4.774  0.0271  0.0710 -0.2421
59255SOL     OW95756   6.456  10.865   8.458  0.3257 -0.1852 -0.1229
59255SOL    HW195757   6.428  10.788   8.509 -0.3107  1.3212  1.9369
59255SOL    HW295758   6.549  10.875   8.480  0.1424  0.2489  0.4708
59256SOL     OW95759  11.753   8.761   5.132  0.3694 -0.0862  0.4452
59256SOL    HW195760  11.725   8.847   5.163 -2.0033 -0.0149 -1.5994
59256SOL    HW295761  11.703   8.747   5.052  1.2307 -3.0832  0.3211
59257SOL     OW95762  10.574  11.683   6.564  0.0969  0.5871 -0.7673
59257SOL    HW195763  10.514  11.738   6.614  0.7018 -0.3572  1.1007
59257SOL    HW295764  10.661  11.707   6.596  0.3158 -2.4619  1.3202
59258SOL     OW95765   6.855   3.956  11.158 -0.1003 -0.3108 -0.2030
59258SOL    HW195766   6.890   3.870  11.136 -0.3699 -0.5726  0.3541
59258SOL    HW295767   6.927   4.001  11.201  0.0871 -0.2005 -0.6305
59259SOL     OW95768   6.921   6.183   3.557 -0.5180 -0.7988 -0.3870
59259SOL    HW195769   6.917   6.093   3.589  0.9526 -0.8405 -0.2753
59259SOL    HW295770   6.836   6.220   3.580 -1.6505 -2.5131 -1.5512
59260SOL     OW95771  13.501  10.850   4.546  0.0501  0.2164  0.3872
59260SOL    HW195772  13.501  10.853   4.450 -0.2487 -0.1927  0.3710
59260SOL    HW295773  13.415  10.815   4.569 -0.0042  0.6229  0.8179
59261SOL     OW95774  11.945   6.245   2.681 -0.4212  0.5229  0.1174
59261SOL    HW195775  11.986   6.286   2.757 -1.6266  0.1343  1.0097
59261SOL    HW295776  11.864   6.295   2.668 -1.2015 -0.6415  0.3443
59262SOL     OW95777   4.947  13.990   9.454  0.5955  0.1436 -0.6458
59262SOL    HW195778   4.980  14.016   9.539  0.4787  0.7129 -0.7660
59262SOL    HW295779   5.018  13.940   9.414  0.3364 -0.8645  0.1122
59263SOL     OW95780   9.571   1.774  12.797  0.3612  0.1968  0.0385
59263SOL    HW195781   9.659   1.785  12.833  0.5494  2.7207 -1.0070
59263SOL    HW295782   9.586   1.753  12.705 -0.1219  0.4049 -0.0892
59264SOL     OW95783  11.652   4.089   2.623 -0.0467 -0.6316 -0.2064
59264SOL    HW195784  11.691   4.146   2.689  0.3660  0.0806 -1.0473
59264SOL    HW295785  11.563   4.072   2.656 -0.6174  1.4845 -0.4769
59265SOL     OW95786   8.613  13.603   6.784  0.0135  0.2368  0.0819
59265SOL    HW195787   8.638  13.511   6.776  1.5605  0.6530 -0.1367
59265SOL    HW295788   8.679  13.650   6.733 -1.3195  1.4067 -0.6442
59266SOL     OW95789   6.353  13.241   7.095 -0.1743 -0.4237 -0.2604
59266SOL    HW195790   6.342  13.286   7.179  1.3984  0.8426 -0.6920
59266SOL    HW295791   6.430  13.281   7.056  0.2736 -2.3380 -1.4693
59267SOL     OW95792   1.195   9.599  10.162 -1.0168  0.0740 -0.2525
59267SOL    HW195793   1.130   9.601  10.232  0.6237  1.4881  1.3450
59267SOL    HW295794   1.255   9.671  10.183  0.2317 -0.2230 -2.4676
59268SOL     OW95795   7.645  10.366  12.593  0.3977  0.5064 -0.2585
59268SOL    HW195796   7.673  10.457  12.605 -0.0977  0.8057 -1.2826
59268SOL    HW295797   7.681  10.341  12.508  1.9224 -0.8137  0.7045
59269SOL     OW95798   9.943  11.787  13.276 -0.6243 -0.2349 -0.5047
59269SOL    HW195799   9.978  11.705  13.241 -0.2764 -0.3604  0.1110
59269SOL    HW295800   9.849  11.780  13.265 -0.5224 -0.2684 -1.4065
59270SOL     OW95801   3.903   5.489   0.329  0.6329 -0.2661  0.2737
59270SOL    HW195802   3.922   5.562   0.270  0.6966 -1.0890 -0.7535
59270SOL    HW295803   3.876   5.531   0.410  0.4433  0.9067 -0.3665
59271SOL     OW95804   9.695   6.659   9.867 -0.2636  0.2203 -0.0817
59271SOL    HW195805   9.629   6.672   9.799 -1.5255  1.4870  1.3073
59271SOL    HW295806   9.661   6.587   9.921 -0.1161  0.3445  0.1835
59272SOL     OW95807  12.351   2.602   7.766  0.4859  0.5060  0.6266
59272SOL    HW195808  12.437   2.609   7.807  0.5940  0.1501  0.4672
59272SOL    HW295809  12.333   2.690   7.731  1.4281  0.2308 -0.6112
59273SOL     OW95810   9.667   2.078  13.556  0.6051  0.0686  0.2232
59273SOL    HW195811   9.630   2.149  13.608  2.3262  1.1527  0.0649
59273SOL    HW295812   9.735   2.040  13.612  1.3617  0.1819 -0.5865
59274SOL     OW95813   1.291   7.289   8.838 -0.2978 -0.4214 -0.3856
59274SOL    HW195814   1.228   7.291   8.766  1.7511  1.2999 -2.2738
59274SOL    HW295815   1.347   7.214   8.820  0.0807 -0.1242 -0.4640
59275SOL     OW95816   0.580   0.544  11.012 -0.0017  0.3477 -0.6018
59275SOL    HW195817   0.646   0.608  10.985  1.3192 -0.7335 -0.0832
59275SOL    HW295818   0.612   0.461  10.977 -0.8186 -0.2922  0.1355
59276SOL     OW95819   1.169   2.506   6.566 -0.2532 -0.2713  0.2643
59276SOL    HW195820   1.221   2.484   6.488 -0.4414  0.8029 -0.1747
59276SOL    HW295821   1.081   2.475   6.544 -0.5323  0.9168 -0.3822
59277SOL     OW95822  12.312  11.908   4.544  0.8111 -0.3162  0.2033
59277SOL    HW195823  12.247  11.870   4.485 -0.4713  0.6738  0.9243
59277SOL    HW295824  12.325  11.841   4.611 -0.2477 -0.1538  0.5997
59278SOL     OW95825   6.063  11.820   0.019 -0.1875 -0.2113  0.6675
59278SOL    HW195826   6.155  11.844   0.023 -0.0920 -0.3449 -0.3621
59278SOL    HW295827   6.026  11.878  -0.048 -0.6641 -0.7033  0.4932
59279SOL     OW95828   3.233   6.118   5.177 -0.4547  0.1849 -0.8115
59279SOL    HW195829   3.198   6.091   5.092 -2.0728 -1.1606  0.1965
59279SOL    HW295830   3.167   6.178   5.211 -0.5063 -0.3399  0.0339
59280SOL     OW95831   7.149   6.284   9.832 -0.6755 -0.6728 -0.2401
59280SOL    HW195832   7.168   6.191   9.833 -0.8558 -0.7448 -1.5622
59280SOL    HW295833   7.056   6.289   9.807 -0.7475 -0.1458  0.1161
59281SOL     OW95834   9.568  13.674   7.319 -0.3610 -0.0474 -0.7694
59281SOL    HW195835   9.507  13.746   7.304  0.7109  1.3010  0.9611
59281SOL    HW295836   9.544  13.608   7.254 -1.1485  2.0097 -2.6675
59282SOL     OW95837  13.732  12.280   3.867 -0.2662  0.1657 -0.1350
59282SOL    HW195838  13.779  12.307   3.946  0.0518 -1.9967  0.4841
59282SOL    HW295839  13.761  12.342   3.800  1.3321  0.6029  0.8830
59283SOL     OW95840  12.051  10.380   5.320 -0.3521  0.7713 -0.1189
59283SOL    HW195841  11.979  10.400   5.260 -0.4386 -0.7155 -0.5608
59283SOL    HW295842  12.064  10.460   5.371 -0.8276  1.8008 -1.5604
59284SOL     OW95843  11.116   6.815   0.956 -0.5798 -0.0654  0.2334
59284SOL    HW195844  11.075   6.745   1.006 -1.8179 -0.2743 -1.0282
59284SOL    HW295845  11.095   6.796   0.865  0.0704  1.3000 -0.2319
59285SOL     OW95846  11.289  12.634   0.969  0.3079 -0.4423  0.0816
59285SOL    HW195847  11.339  12.710   0.940  0.4669 -0.7601 -0.5027
59285SOL    HW295848  11.260  12.593   0.887  0.1397 -0.9513  0.3956
59286SOL     OW95849   9.812  11.167  14.000 -0.0216  0.6354 -0.5261
59286SOL    HW195850   9.896  11.173  14.046 -0.6145 -1.7644  1.0759
59286SOL    HW295851   9.835  11.157  13.908  1.6102 -1.7907  0.0575
59287SOL     OW95852   6.679   7.612   0.153  0.1520 -0.2651  0.1892
59287SOL    HW195853   6.732   7.534   0.131  2.6220  0.7706  1.9739
59287SOL    HW295854   6.630   7.586   0.231  0.5397 -0.2108  0.4522
59288SOL     OW95855  13.862   9.828  11.844 -0.7784 -0.6128  0.2364
59288SOL    HW195856  13.790   9.791  11.895 -1.7869  1.3230  0.2932
59288SOL    HW295857  13.824   9.846  11.758 -0.1377 -0.3311  0.0034
59289SOL     OW95858   3.976   1.101  12.772 -0.0715  0.0759 -0.7353
59289SOL    HW195859   3.977   1.182  12.720 -1.3890  0.7008  0.1592
59289SOL    HW295860   4.064   1.065  12.762  0.6066  1.7199 -1.0005
59290SOL     OW95861  12.302   0.746   4.106 -0.2188  0.0641  0.2087
59290SOL    HW195862  12.304   0.659   4.065 -0.0480  0.4884 -0.7203
59290SOL    HW295863  12.218   0.783   4.080 -0.0882  0.3571  0.1981
59291SOL     OW95864  13.786   0.755  14.059 -0.5064 -0.5282  0.6600
59291SOL    HW195865  13.797   0.683  13.997  1.3086 -0.0154  0.3140
59291SOL    HW295866  13.700   0.792  14.040 -0.0666 -0.5075 -1.4372
59292SOL     OW95867  11.640   4.952   8.133  0.0522 -0.1637 -0.3570
59292SOL    HW195868  11.720   4.972   8.181 -0.3818  0.2316  0.2061
59292SOL    HW295869  11.641   5.011   8.058 -0.5395  1.0593  0.5624
59293SOL     OW95870   8.933  11.576   1.392 -0.1749  0.9266  0.4042
59293SOL    HW195871   8.860  11.634   1.413 -0.1725  0.7672  0.8685
59293SOL    HW295872   8.914  11.543   1.305 -0.4879  1.1455  0.3909
59294SOL     OW95873   0.808   9.131   3.368 -0.1210 -0.1093  0.2376
59294SOL    HW195874   0.774   9.080   3.442 -0.2117 -1.3008 -0.5939
59294SOL    HW295875   0.890   9.167   3.400  1.9452 -3.8584 -0.1881
59295SOL     OW95876  10.691   1.045  11.932 -0.3207 -0.0687 -0.1389
59295SOL    HW195877  10.703   1.114  11.996  0.7310 -1.3950  1.1659
59295SOL    HW295878  10.768   0.989  11.942 -1.5163 -1.8708 -0.5560
59296SOL     OW95879  10.959   2.476   7.523 -0.2839 -0.2767 -0.1483
59296SOL    HW195880  10.951   2.553   7.467 -2.4406  0.7304  1.3863
59296SOL    HW295881  10.877   2.428   7.509 -1.1215  0.2380  2.3107
59297SOL     OW95882   2.696  13.135  12.291  0.3071 -0.5312 -0.5714
59297SOL    HW195883   2.610  13.120  12.252  0.1236  0.8776 -0.7666
59297SOL    HW295884   2.731  13.209  12.243 -0.3119  1.9329  2.4522
59298SOL     OW95885   6.959   6.033   7.956  0.1853 -0.1249  0.6947
59298SOL    HW195886   6.895   6.104   7.959 -0.4583 -0.6284 -0.4887
59298SOL    HW295887   7.042   6.075   7.978 -0.4278  0.6760  1.5492
59299SOL     OW95888   9.904  11.076   4.493 -0.5702  0.3245  0.3058
59299SOL    HW195889   9.838  11.071   4.423  3.1796 -2.5440 -3.5591
59299SOL    HW295890   9.966  11.142   4.463  1.6855 -1.7033  0.2108
59300SOL     OW95891   1.305   5.739   1.073 -0.1277 -0.4652 -0.4291
59300SOL    HW195892   1.279   5.681   1.144  1.0893  0.8383  1.1699
59300SOL    HW295893   1.296   5.827   1.109  2.8307  0.1740 -0.9525
59301SOL     OW95894   9.608   2.372   2.077  0.0877  0.1864  0.2125
59301SOL    HW195895   9.597   2.466   2.062 -1.4247  0.3303  1.8706
59301SOL    HW295896   9.690   2.350   2.032 -0.8902  1.7108 -2.5293
59302SOL     OW95897  11.462   1.615   5.555  0.2050  0.0519  0.2559
59302SOL    HW195898  11.493   1.668   5.628 -1.2958  2.1887 -0.5925
59302SOL    HW295899  11.375   1.648   5.536  1.1333  0.7741 -3.5772
59303SOL     OW95900   7.689   6.013   6.895 -0.0303 -0.0243  0.3977
59303SOL    HW195901   7.646   6.078   6.839  1.5198 -0.2288 -1.1008
59303SOL    HW295902   7.761   6.062   6.936  1.1702 -0.7662 -0.7700
59304SOL     OW95903  10.738   2.643   4.532  0.7562  0.3005 -0.3955
59304SOL    HW195904  10.727   2.663   4.439 -0.2294 -1.4471 -0.6899
59304SOL    HW295905  10.681   2.707   4.577  1.5625  1.4314 -0.9243
59305SOL     OW95906  12.981  10.269   4.589 -0.6211  0.1695  0.1133
59305SOL    HW195907  12.931  10.197   4.628  0.7030 -1.1758 -0.5959
59305SOL    HW295908  13.045  10.293   4.656 -0.3925 -0.0191 -0.0349
59306SOL     OW95909  10.671   5.066  11.100  0.1636  0.1896 -0.1916
59306SOL    HW195910  10.665   5.143  11.043  2.3833 -0.6552 -1.7125
59306SOL    HW295911  10.636   4.995  11.047  1.4171 -0.4613 -0.1567
59307SOL     OW95912  10.935  13.477   0.426  0.6157  0.1263 -0.2170
59307SOL    HW195913  11.027  13.453   0.435  0.3973 -0.3060  1.1704
59307SOL    HW295914  10.889  13.418   0.486 -0.4499  1.0209 -0.1167
59308SOL     OW95915   3.761   0.144   3.580 -0.2056  0.1374  0.0471
59308SOL    HW195916   3.708   0.186   3.647  0.6050 -0.2379  0.9472
59308SOL    HW295917   3.698   0.112   3.515 -1.0052  0.3873  0.6906
59309SOL     OW95918  12.368  13.477   7.076 -0.2736  0.0915  0.0165
59309SOL    HW195919  12.451  13.513   7.044 -0.7604  0.1045 -1.3202
59309SOL    HW295920  12.365  13.388   7.040 -0.3999 -0.2623  0.8765
59310SOL     OW95921   4.420  11.636   4.880  0.1993 -0.1176  0.2531
59310SOL    HW195922   4.489  11.573   4.859  0.8873  0.4208  0.8493
59310SOL    HW295923   4.356  11.587   4.930  0.5935 -0.4119  0.4699
59311SOL     OW95924   5.911  13.152   0.162  0.1672 -0.2885  0.3568
59311SOL    HW195925   6.001  13.126   0.143  0.4302  1.0578 -0.3777
59311SOL    HW295926   5.912  13.247   0.157 -1.5216 -0.2806 -0.7626
59312SOL     OW95927   9.826   6.561   0.106  0.2951  0.4666  0.3391
59312SOL    HW195928   9.779   6.520   0.178 -1.8921  1.0130 -0.6606
59312SOL    HW295929   9.866   6.489   0.058  1.2866  0.0581  1.7533
59313SOL     OW95930   1.702   8.995   6.541 -0.4894  0.2853 -0.0806
59313SOL    HW195931   1.619   8.990   6.587  0.3603  1.3486  1.6671
59313SOL    HW295932   1.719   8.905   6.513 -2.7926  0.2542 -1.6199
59314SOL     OW95933   2.682   9.555  12.999 -0.0937 -0.4410 -0.1620
59314SOL    HW195934   2.587   9.564  13.003 -0.0468  0.0207  0.0292
59314SOL    HW295935   2.709   9.545  13.090  0.0851 -0.0503 -0.1694
59315SOL     OW95936   1.352   1.742  13.593  0.2209  0.4217  0.9000
59315SOL    HW195937   1.342   1.788  13.510 -0.7460  1.1587  1.4029
59315SOL    HW295938   1.436   1.697  13.586  1.9039  3.3412  0.8507
59316SOL     OW95939  13.512   1.308  13.699 -0.2749 -0.1995  0.0556
59316SOL    HW195940  13.555   1.313  13.613  0.6171  0.6536  0.5405
59316SOL    HW295941  13.574   1.261  13.754 -0.4051  0.1586  0.5074
59317SOL     OW95942  11.599   0.569  11.470 -0.9348 -0.2352  0.2355
59317SOL    HW195943  11.521   0.515  11.481 -0.8052 -0.3028  0.8295
59317SOL    HW295944  11.571   0.657  11.493 -1.3485  0.1194 -1.4661
59318SOL     OW95945   0.275   0.782   6.115 -0.1237  0.0900 -0.0319
59318SOL    HW195946   0.286   0.877   6.109 -2.5733  0.3517 -1.8103
59318SOL    HW295947   0.183   0.770   6.137 -0.0805 -1.8948 -0.7282
59319SOL     OW95948   9.079  10.183  11.137  1.1421  0.8528  0.6936
59319SOL    HW195949   9.045  10.150  11.220  0.1668 -1.2338 -0.4602
59319SOL    HW295950   9.072  10.278  11.145  0.4119  0.6819  2.7182
59320SOL     OW95951   0.095  12.359   7.637  0.4063  0.1483  0.0065
59320SOL    HW195952   0.022  12.330   7.693  1.5787 -0.5297  1.2436
59320SOL    HW295953   0.135  12.431   7.686  0.2135  0.9263 -0.9584
59321SOL     OW95954   2.965   1.755   3.703  0.0500  0.0758 -0.6076
59321SOL    HW195955   3.003   1.837   3.734  1.2285 -0.5318 -0.3920
59321SOL    HW295956   2.963   1.764   3.608  1.6522 -0.2441 -0.7001
59322SOL     OW95957  14.156   8.137   6.557 -0.3865  0.1559 -0.4596
59322SOL    HW195958  14.062   8.152   6.545 -0.2285  1.6263 -0.1024
59322SOL    HW295959  14.185   8.211   6.611  0.4498 -1.8245  1.9997
59323SOL     OW95960   2.595  13.089   3.441 -0.2360  0.2131  0.3205
59323SOL    HW195961   2.609  13.048   3.355 -0.3751  1.2737 -0.2261
59323SOL    HW295962   2.544  13.025   3.490 -1.0096 -0.0070 -0.7409
59324SOL     OW95963   7.070  10.908   7.217  0.0885  0.2877 -0.3445
59324SOL    HW195964   7.024  10.990   7.203  0.0256  0.3624  0.2815
59324SOL    HW295965   7.091  10.908   7.310 -0.2327 -0.5676 -0.2614
59325SOL     OW95966  11.111   8.249   8.356  0.1461 -0.1537  0.0013
59325SOL    HW195967  11.090   8.342   8.349 -0.5723 -0.2786  0.4039
59325SOL    HW295968  11.030   8.204   8.332 -0.3803 -0.6420  2.3941
59326SOL     OW95969   3.040  12.655  13.970 -0.1592 -0.0216 -0.6629
59326SOL    HW195970   3.105  12.667  14.039  0.2408  0.6404 -1.1466
59326SOL    HW295971   3.090  12.620  13.896 -0.8780 -2.4280 -0.0850
59327SOL     OW95972  13.725   9.605   2.036  0.4416 -0.3164 -0.4874
59327SOL    HW195973  13.701   9.585   2.127  0.5183  0.5198 -0.2774
59327SOL    HW295974  13.683   9.536   1.985  1.5604 -1.6187  0.2918
59328SOL     OW95975  12.877   9.276   9.536  0.3153 -0.3789 -0.0275
59328SOL    HW195976  12.914   9.364   9.533  0.3160 -0.3940 -0.5233
59328SOL    HW295977  12.788   9.289   9.569  0.2706 -0.1748 -0.2236
59329SOL     OW95978   4.217   6.641  12.366 -0.2136 -0.0082 -0.2350
59329SOL    HW195979   4.184   6.723  12.330  0.3023 -0.0008 -0.6970
59329SOL    HW295980   4.306   6.633  12.331 -0.4319 -1.0102 -0.5977
59330SOL     OW95981  13.717   9.172  14.001 -0.1699  0.9584  0.1682
59330SOL    HW195982  13.763   9.118  13.936 -3.4428 -1.7292 -0.2431
59330SOL    HW295983  13.689   9.250  13.952  1.4279  1.2757 -0.2929
59331SOL     OW95984   4.240   1.643  13.368 -0.3073 -0.2518  0.3519
59331SOL    HW195985   4.311   1.644  13.432 -0.7756 -0.8681  0.9014
59331SOL    HW295986   4.270   1.700  13.298 -0.3307  1.5688  1.7415
59332SOL     OW95987   6.870   3.462  11.339  0.0450  0.5762 -0.2765
59332SOL    HW195988   6.899   3.406  11.411  0.1311  1.5928  0.5055
59332SOL    HW295989   6.890   3.412  11.260  1.5861  0.1665  0.3350
59333SOL     OW95990  10.497   2.644   0.942 -0.3235  0.4608 -0.1002
59333SOL    HW195991  10.522   2.604   1.025 -1.1689 -0.0088 -0.0678
59333SOL    HW295992  10.431   2.709   0.965  1.2112  2.0937 -0.1241
59334SOL     OW95993   9.348  13.731   8.572 -0.0936  0.4795 -0.1469
59334SOL    HW195994   9.294  13.761   8.646  0.2032 -1.2809  0.8358
59334SOL    HW295995   9.308  13.648   8.546  1.0825  0.0257 -0.5698
59335SOL     OW95996   1.435   1.258   1.564 -0.0186  0.1444 -0.2098
59335SOL    HW195997   1.340   1.250   1.560  0.0488 -1.3603  0.5649
59335SOL    HW295998   1.467   1.199   1.496  0.3793 -1.2750  1.1505
59336SOL     OW95999   7.394  12.253   7.971  0.2859 -0.0582 -0.0488
59336SOL    HW196000   7.438  12.229   7.890  0.7565 -3.1315  1.0164
59336SOL    HW296001   7.463  12.256   8.037 -0.4719 -0.6040  0.8027
59337SOL     OW96002  11.132   3.138   9.296 -0.2702  0.1109  0.1634
59337SOL    HW196003  11.175   3.221   9.276  2.1931 -1.0987  0.0956
59337SOL    HW296004  11.052   3.163   9.341  2.1027  2.5657  3.5177
59338SOL     OW96005   0.399   2.455  12.284 -0.0318 -0.6382  0.3363
59338SOL    HW196006   0.306   2.434  12.289 -0.2252 -0.1038 -0.6209
59338SOL    HW296007   0.405   2.546  12.314  0.1133 -0.5283 -0.0197
59339SOL     OW96008   3.918   7.639   4.225 -0.2419 -0.0896  0.0579
59339SOL    HW196009   3.896   7.546   4.219  1.3956 -0.4300 -1.5813
59339SOL    HW296010   3.959   7.649   4.310 -0.1193 -0.9568  0.1103
59340SOL     OW96011   6.252  13.024   2.894  0.4077  0.1699  0.7013
59340SOL    HW196012   6.343  13.024   2.926  0.6783 -0.2953 -0.0255
59340SOL    HW296013   6.258  13.061   2.806  0.1092 -1.1538  0.1043
59341SOL     OW96014   9.059  10.685   2.030  0.3561 -0.2946  0.4328
59341SOL    HW196015   9.142  10.715   1.992  1.7252 -2.9325  1.0465
59341SOL    HW296016   9.085  10.615   2.091 -2.2763 -0.6578  1.2566
59342SOL     OW96017   6.395  10.711   8.693 -0.4822  0.0335  0.2314
59342SOL    HW196018   6.421  10.784   8.748 -1.1214  0.8390 -0.5031
59342SOL    HW296019   6.458  10.642   8.713 -0.6925  0.3085  1.9342
59343SOL     OW96020   5.716   5.445   0.463  0.0345  0.1360 -0.4825
59343SOL    HW196021   5.701   5.352   0.445  0.2189  0.7366 -5.0288
59343SOL    HW296022   5.801   5.463   0.422  0.2330  2.2549  0.7395
59344SOL     OW96023  14.133   9.584   4.035  0.1652  0.7464 -0.3021
59344SOL    HW196024  14.067   9.553   4.097  0.1268  1.2174 -0.0997
59344SOL    HW296025  14.094   9.662   3.996 -0.3012 -0.2043 -1.7987
59345SOL     OW96026   8.875   4.630  13.286  0.3501 -0.1899  0.3274
59345SOL    HW196027   8.955   4.636  13.234  0.2031 -2.4359 -0.2684
59345SOL    HW296028   8.834   4.716  13.276  3.1943  1.4480  1.6257
59346SOL     OW96029  10.029   0.881   9.867  0.6436  0.0044 -0.1535
59346SOL    HW196030  10.051   0.812   9.804  0.4399  0.6471 -0.9398
59346SOL    HW296031  10.110   0.931   9.876  0.9765 -0.6948  0.8959
59347SOL     OW96032   0.045   5.251   4.861  0.1174 -0.2945  0.2463
59347SOL    HW196033   0.002   5.337   4.865  0.8122  0.0741 -0.1048
59347SOL    HW296034  -0.024   5.189   4.886  0.0374  0.5031  2.2560
59348SOL     OW96035  10.675  13.568   4.646  0.0230 -0.1558  0.5282
59348SOL    HW196036  10.631  13.500   4.595 -0.2815 -0.3247  1.0125
59348SOL    HW296037  10.660  13.649   4.596  0.5669 -0.4699 -0.1578
59349SOL     OW96038   9.719   3.573   2.809  0.1005 -0.2775  0.6138
59349SOL    HW196039   9.776   3.500   2.785  0.1563 -0.2726  0.7298
59349SOL    HW296040   9.773   3.629   2.864  0.0808 -0.1108  0.4677
59350SOL     OW96041   6.175  13.707   9.977  0.1718  0.1000  0.1637
59350SOL    HW196042   6.112  13.688   9.908  2.0655  0.2247 -1.6971
59350SOL    HW296043   6.147  13.652  10.051 -1.8607 -0.1046 -0.6907
59351SOL     OW96044   3.048   1.356  10.912  0.8779 -0.5079 -0.2392
59351SOL    HW196045   2.979   1.340  10.849  0.1205  0.7715  0.2279
59351SOL    HW296046   3.013   1.324  10.995  0.4306  0.9832  0.1809
59352SOL     OW96047   6.360   1.016   6.314  0.2208  0.1935  0.2373
59352SOL    HW196048   6.320   0.941   6.357  0.0887 -0.5040 -1.0477
59352SOL    HW296049   6.339   1.005   6.221  1.0067  1.3159 -0.1021
59353SOL     OW96050   0.268  10.503  10.803 -0.3538  0.0938  0.0086
59353SOL    HW196051   0.176  10.474  10.799 -0.4401  0.1497  1.2739
59353SOL    HW296052   0.299  10.494  10.713 -1.6605  0.2719 -0.4905
59354SOL     OW96053   9.662   0.583   7.600 -0.1516  0.1064 -0.8514
59354SOL    HW196054   9.649   0.570   7.694 -0.8639  0.0312 -0.9566
59354SOL    HW296055   9.610   0.514   7.558 -0.5589  0.6927 -1.3210
59355SOL     OW96056   9.106   3.371   9.484  0.3092 -0.1553 -0.1013
59355SOL    HW196057   9.022   3.325   9.479 -0.7188  1.4885  1.2851
59355SOL    HW296058   9.168   3.309   9.445 -1.2742 -2.0164  0.1398
59356SOL     OW96059  10.019   8.729  13.151  0.1397 -0.1705  0.4894
59356SOL    HW196060  10.038   8.774  13.069 -0.6818  0.0140  0.3902
59356SOL    HW296061  10.095   8.673  13.166  0.6998  0.4573  0.0694
59357SOL     OW96062  10.971   5.544   5.877  0.3486  0.4191 -0.1579
59357SOL    HW196063  10.995   5.632   5.908  0.1501  0.8020 -1.0528
59357SOL    HW296064  10.998   5.486   5.948  0.6131  1.1887  0.3934
59358SOL     OW96065   7.760   7.961   6.182  0.1025 -0.2768  0.7145
59358SOL    HW196066   7.808   7.946   6.100  1.0207 -0.1254  1.2078
59358SOL    HW296067   7.676   7.918   6.168  1.0872 -2.3033  0.5194
59359SOL     OW96068   9.632   7.338   9.546 -0.1981  0.1689 -0.5258
59359SOL    HW196069   9.656   7.335   9.638 -1.6001  0.8916 -0.1009
59359SOL    HW296070   9.561   7.274   9.538  0.2101 -0.2030 -1.1969
59360SOL     OW96071  11.921   7.313   1.052  0.1660 -0.1527  0.4069
59360SOL    HW196072  11.951   7.318   1.143  0.0623 -0.1815  0.4425
59360SOL    HW296073  12.001   7.296   1.002  0.3585  0.6844  0.4048
59361SOL     OW96074   7.297   1.397  13.142  0.8758  0.5977 -0.2782
59361SOL    HW196075   7.235   1.447  13.089 -0.9426 -0.7508  0.4571
59361SOL    HW296076   7.278   1.306  13.121  2.5601  0.1406  0.0700
59362SOL     OW96077  13.510  10.179   4.236  0.0045  0.6796  0.1201
59362SOL    HW196078  13.488  10.263   4.279 -0.4563 -0.0693  1.4219
59362SOL    HW296079  13.477  10.113   4.297  0.5812 -0.4556 -0.7790
59363SOL     OW96080  10.110   2.996   0.228 -0.3125 -0.7822 -0.1155
59363SOL    HW196081  10.201   2.967   0.223  0.2578  1.1166 -1.7424
59363SOL    HW296082  10.095   3.046   0.148 -2.9396 -1.3711 -0.1139
59364SOL     OW96083   8.229   7.640  13.289  0.4891  0.2458 -0.3949
59364SOL    HW196084   8.183   7.612  13.368  0.0666  0.0843 -0.6928
59364SOL    HW296085   8.281   7.563  13.264  0.5684  0.2728 -0.3091
59365SOL     OW96086  13.332   1.110   6.842  0.3421  0.0763 -0.1142
59365SOL    HW196087  13.363   1.150   6.924  0.4524  0.3275 -0.2792
59365SOL    HW296088  13.284   1.032   6.871 -1.4339  1.2753  0.3462
59366SOL     OW96089   6.943   3.921   8.522 -0.4764  0.3696  0.4518
59366SOL    HW196090   6.940   3.900   8.429 -0.1356 -0.7925  0.6945
59366SOL    HW296091   6.868   3.980   8.535 -1.2974 -0.4630 -0.3171
59367SOL     OW96092   6.599   0.858  13.215  0.4959  0.4281  0.0056
59367SOL    HW196093   6.598   0.763  13.209  1.3715  0.4870 -1.2983
59367SOL    HW296094   6.588   0.888  13.125  1.2962  1.5482  0.2583
59368SOL     OW96095   6.603   1.220   1.419  0.5798 -0.4896 -0.2777
59368SOL    HW196096   6.647   1.145   1.461 -0.6735 -1.7944 -1.2011
59368SOL    HW296097   6.653   1.235   1.339  0.6486 -0.5410 -0.2451
59369SOL     OW96098   9.159   4.566   6.102 -0.1576 -0.3651 -0.4044
59369SOL    HW196099   9.077   4.606   6.131 -0.1934 -0.4810 -0.3456
59369SOL    HW296100   9.195   4.526   6.181  0.7495  1.0496 -0.0775
59370SOL     OW96101   2.303   8.871   2.721 -0.1021  0.3022  0.1942
59370SOL    HW196102   2.367   8.916   2.777  1.4391  0.3898 -1.5495
59370SOL    HW296103   2.283   8.934   2.652 -0.0007 -0.7171 -0.7901
59371SOL     OW96104  12.639   2.941  12.783  0.1953  0.3800  0.1382
59371SOL    HW196105  12.665   2.882  12.712 -0.6152  0.6070 -0.3558
59371SOL    HW296106  12.681   2.905  12.861  0.1059 -0.5652 -0.2448
59372SOL     OW96107   5.539  12.137   9.182 -0.2446  0.1295 -0.4589
59372SOL    HW196108   5.571  12.180   9.103 -0.7637  1.7339  0.1447
59372SOL    HW296109   5.511  12.050   9.154  1.2676 -0.0034 -1.6629
59373SOL     OW96110  11.009   7.920  10.357  0.0601 -0.3460 -0.0923
59373SOL    HW196111  11.061   7.978  10.302 -0.1348  1.2655  1.3273
59373SOL    HW296112  10.943   7.883  10.299 -0.3960  1.6139 -0.8982
59374SOL     OW96113  11.966   6.743  10.997 -0.4403 -0.0602 -0.6556
59374SOL    HW196114  12.037   6.742  10.933  0.2158 -1.1564  0.0671
59374SOL    HW296115  11.971   6.830  11.037 -0.5354  0.4537 -1.6995
59375SOL     OW96116  13.888  13.657   3.478 -0.3297  0.2609  0.3623
59375SOL    HW196117  13.802  13.698   3.469 -0.5473 -0.3775 -0.6041
59375SOL    HW296118  13.941  13.700   3.411 -0.7374 -1.4324 -1.1174
59376SOL     OW96119   8.676   1.317  10.420 -0.2192  0.6808  0.6873
59376SOL    HW196120   8.675   1.288  10.511 -0.5147  0.0722  0.4904
59376SOL    HW296121   8.769   1.325  10.399 -0.0827 -1.4828  0.3200
59377SOL     OW96122  14.120   8.633   0.902  0.4099  0.0605 -0.1920
59377SOL    HW196123  14.070   8.707   0.870 -0.5562 -0.5069 -0.0604
59377SOL    HW296124  14.199   8.632   0.849 -0.4811 -0.0048 -1.5722
59378SOL     OW96125   2.476   8.531  11.630 -0.9525  0.0632 -0.3082
59378SOL    HW196126   2.465   8.616  11.588 -1.5198  0.4887  0.6558
59378SOL    HW296127   2.485   8.469  11.558 -1.8645  0.7649 -1.0561
59379SOL     OW96128   0.800  11.013   5.600  0.2024 -0.4273  0.4163
59379SOL    HW196129   0.823  11.036   5.510 -0.5741 -1.7519 -0.1376
59379SOL    HW296130   0.879  11.033   5.650  1.2447 -1.2621 -0.8247
59380SOL     OW96131   7.777   6.088  12.191 -0.1627  0.0159  0.1419
59380SOL    HW196132   7.796   6.096  12.285  1.2863  1.1574 -0.2094
59380SOL    HW296133   7.863   6.086  12.149 -0.7881  0.0413 -1.2048
59381SOL     OW96134   2.729   0.772  12.919  0.1477 -0.0309  0.3958
59381SOL    HW196135   2.713   0.858  12.880  0.6591 -0.8956 -1.8732
59381SOL    HW296136   2.730   0.711  12.845  4.0770 -1.4169  1.3438
59382SOL     OW96137  10.621   6.033   5.417 -0.0957 -0.2219  0.0819
59382SOL    HW196138  10.592   5.955   5.370  0.1957 -1.0692  1.2374
59382SOL    HW296139  10.565   6.036   5.494  0.4745  0.2079  0.4890
59383SOL     OW96140   3.556   9.400   2.574  0.9711 -0.1323 -0.5655
59383SOL    HW196141   3.530   9.491   2.559  0.8290 -0.4542 -2.4286
59383SOL    HW296142   3.652   9.401   2.567  1.1898  0.1921  1.5276
59384SOL     OW96143  13.725   3.921  11.551  0.1878 -0.3561 -0.2752
59384SOL    HW196144  13.794   3.987  11.559 -0.2920  0.1256 -0.0665
59384SOL    HW296145  13.746   3.875  11.469  1.0153 -0.5319  0.0242
59385SOL     OW96146  12.998   6.630  12.614 -0.1162 -0.6457 -0.7012
59385SOL    HW196147  12.997   6.602  12.523  2.1529 -2.3638 -0.3008
59385SOL    HW296148  12.949   6.562  12.660 -2.6371  1.0267 -0.7362
59386SOL     OW96149  14.088   6.985   5.964 -0.1336 -0.0087  0.0516
59386SOL    HW196150  14.099   7.042   5.888  0.6364 -1.5277 -1.0336
59386SOL    HW296151  14.175   6.949   5.981 -0.9494 -2.7020 -0.8673
59387SOL     OW96152   3.823  11.519   0.859 -0.1621  0.4108  0.2291
59387SOL    HW196153   3.913  11.551   0.853 -0.0130  0.6219  2.5991
59387SOL    HW296154   3.775  11.591   0.900 -1.0799 -0.2551  0.3551
59388SOL     OW96155  12.818   8.657   9.995  0.0866 -0.3169 -0.1089
59388SOL    HW196156  12.909   8.649   9.964  0.3235  0.2639  0.3959
59388SOL    HW296157  12.823   8.724  10.064 -0.5244 -1.1701  0.7798
59389SOL     OW96158  10.032  12.007   8.145 -0.5656  0.3441 -0.1939
59389SOL    HW196159   9.944  12.046   8.145 -0.2674  1.0497 -0.7904
59389SOL    HW296160  10.036  11.957   8.226 -2.0065 -0.8425 -0.7945
59390SOL     OW96161   5.143   3.711   5.167  1.0231  0.1717 -0.8922
59390SOL    HW196162   5.096   3.756   5.097  0.2630 -0.1898 -0.6214
59390SOL    HW296163   5.160   3.623   5.132 -1.9737 -1.0486  0.4025
59391SOL     OW96164   1.744   9.980   9.994  1.0393  0.4198  0.4610
59391SOL    HW196165   1.765   9.990  10.087  3.4345 -1.2388  0.1716
59391SOL    HW296166   1.790   9.901   9.967 -1.4267 -0.4182 -1.6654
59392SOL     OW96167   2.125  10.307  10.558  0.5931 -0.7050  0.0128
59392SOL    HW196168   2.214  10.276  10.573  0.7414 -0.3337 -0.0897
59392SOL    HW296169   2.093  10.333  10.644  0.2092 -1.8110  0.2167
59393SOL     OW96170  12.393   0.981   6.730 -0.1475  0.7066  0.1349
59393SOL    HW196171  12.442   1.037   6.790 -0.8130  0.2208  1.1666
59393SOL    HW296172  12.344   1.042   6.674 -0.8710  1.1775  1.2486
59394SOL     OW96173  13.947  12.440   3.412  0.0915  0.1626 -0.7727
59394SOL    HW196174  13.986  12.524   3.437 -0.8499  0.2452  0.4956
59394SOL    HW296175  13.914  12.455   3.323  3.6874 -0.2045 -2.3500
59395SOL     OW96176  12.817   5.417   2.789  0.7391 -0.3397 -0.1109
59395SOL    HW196177  12.761   5.494   2.792  0.0818 -0.8264  0.7147
59395SOL    HW296178  12.853   5.410   2.877  0.0788 -1.4804  0.0839
59396SOL     OW96179   1.400   7.802   3.206 -0.1938 -0.3584 -0.4540
59396SOL    HW196180   1.426   7.776   3.294  1.3188 -0.4119 -0.8783
59396SOL    HW296181   1.480   7.840   3.168 -0.6055 -0.9888 -2.0263
59397SOL     OW96182  10.380   8.057   3.497 -0.2427 -0.2726  0.1699
59397SOL    HW196183  10.429   8.106   3.562 -0.2535 -1.7415  1.3334
59397SOL    HW296184  10.319   8.120   3.460  0.5668  0.8690  0.7463
59398SOL     OW96185   5.820   1.829   6.930  0.0335  0.7463  0.1379
59398SOL    HW196186   5.753   1.844   6.862  0.9673  0.1068 -0.9707
59398SOL    HW296187   5.778   1.769   6.992 -0.2614 -0.0985 -0.8398
59399SOL     OW96188  10.895  12.963   4.569  0.3870 -0.3098  0.2195
59399SOL    HW196189  10.880  13.025   4.498  1.8563 -1.0962 -0.8234
59399SOL    HW296190  10.975  12.993   4.611  0.2410 -0.6003  0.7153
59400SOL     OW96191  11.032   0.409  12.867  1.1755 -0.1295 -0.1459
59400SOL    HW196192  11.038   0.499  12.833  0.5299  0.3302  0.9145
59400SOL    HW296193  10.947   0.378  12.836  1.8951 -0.8153 -1.5014
59401SOL     OW96194  13.239   7.854   2.857  0.2372 -1.0419 -0.0629
59401SOL    HW196195  13.260   7.946   2.869 -0.7949 -0.7687 -0.2950
59401SOL    HW296196  13.227   7.820   2.945  0.4609 -0.9158  0.0155
59402SOL     OW96197  13.655   6.428   3.735  0.6801  0.3412 -0.1922
59402SOL    HW196198  13.699   6.502   3.778 -0.3886  1.4204 -0.9082
59402SOL    HW296199  13.570   6.463   3.707  0.9869 -0.5294 -2.4431
59403SOL     OW96200   5.502  13.009   0.348 -0.1162 -0.1496 -0.4607
59403SOL    HW196201   5.553  13.081   0.384  0.0249 -0.2517 -0.4533
59403SOL    HW296202   5.417  13.015   0.392 -0.1340  0.0621 -0.5226
59404SOL     OW96203   8.600   5.378   5.060  0.0073 -0.2352  0.6100
59404SOL    HW196204   8.618   5.345   5.148 -1.3759 -1.0555  0.6153
59404SOL    HW296205   8.633   5.311   5.001 -3.2821 -2.0487  0.6285
59405SOL     OW96206   9.411  10.612  10.751  0.2084  0.2885 -0.0118
59405SOL    HW196207   9.412  10.699  10.710  0.9924  0.3139  0.0556
59405SOL    HW296208   9.355  10.560  10.693 -1.7191  1.2578  0.8689
59406SOL     OW96209   7.219   8.968  13.524  0.4569  0.1541  0.2900
59406SOL    HW196210   7.197   9.015  13.443 -0.6004 -1.4203 -0.3959
59406SOL    HW296211   7.275   8.895  13.495 -0.2424 -0.6493  0.9015
59407SOL     OW96212   1.683  10.530   8.302  0.0591  0.1343  0.3823
59407SOL    HW196213   1.773  10.563   8.298 -0.0711  0.3885 -0.7450
59407SOL    HW296214   1.687  10.444   8.261  0.0537 -0.5171  1.6919
59408SOL     OW96215   4.589  12.705  12.665 -0.5331 -0.6653  0.2512
59408SOL    HW196216   4.631  12.754  12.736 -0.9243 -0.7764  0.5697
59408SOL    HW296217   4.575  12.769  12.596 -0.8629 -0.3701  0.5894
59409SOL     OW96218   8.720   4.262   8.557 -0.0618 -0.0621 -0.0819
59409SOL    HW196219   8.708   4.357   8.564 -0.2933  0.0820 -1.7759
59409SOL    HW296220   8.693   4.242   8.467 -0.4355 -1.8059  0.3912
59410SOL     OW96221  12.416   4.236   9.907 -0.2385  0.3635  0.1591
59410SOL    HW196222  12.389   4.246   9.998 -2.1744 -0.5627 -0.2514
59410SOL    HW296223  12.461   4.152   9.903  0.3403  0.6580  0.3424
59411SOL     OW96224   7.649  11.060   1.971 -0.4840 -0.5319  0.3424
59411SOL    HW196225   7.739  11.029   1.981 -0.3178 -1.2447 -2.4652
59411SOL    HW296226   7.615  11.063   2.060  2.7805  1.3614  1.6978
59412SOL     OW96227   6.647  12.497   9.427  0.2747 -0.5473 -0.1688
59412SOL    HW196228   6.734  12.477   9.392 -0.1932 -0.9805 -1.1311
59412SOL    HW296229   6.586  12.466   9.359 -0.6089  0.3156  0.1978
59413SOL     OW96230   3.444   9.057   3.602  0.1501  0.4626 -0.2796
59413SOL    HW196231   3.466   9.012   3.683  0.5954 -0.6032 -0.9745
59413SOL    HW296232   3.525   9.100   3.576 -0.3298  1.9301  0.5034
59414SOL     OW96233  12.277   6.068  12.610 -0.5941 -0.5103  0.7331
59414SOL    HW196234  12.260   6.023  12.528  0.6954  0.3611 -0.0479
59414SOL    HW296235  12.354   6.024  12.646 -0.4295 -0.1187  0.8678
59415SOL     OW96236   2.313   6.522   6.736 -0.1857  0.1120  0.0810
59415SOL    HW196237   2.359   6.597   6.699 -1.7434  0.4953 -1.1993
59415SOL    HW296238   2.280   6.553   6.821 -0.6030  0.8064 -0.3296
59416SOL     OW96239   3.520  13.061   8.569 -0.2647  1.1205  0.0290
59416SOL    HW196240   3.594  13.074   8.628  0.2123 -0.6462 -0.1083
59416SOL    HW296241   3.560  13.034   8.486 -0.9996  1.6982 -0.5196
59417SOL     OW96242   4.870   7.824   3.279  0.2163 -0.0749  0.1595
59417SOL    HW196243   4.935   7.858   3.341 -0.7610 -0.5723  1.4845
59417SOL    HW296244   4.819   7.901   3.254 -0.2932 -0.1045  1.0831
59418SOL     OW96245   5.142  13.494   5.018  0.1146  0.2705  0.3810
59418SOL    HW196246   5.153  13.420   4.958  0.4489  2.2141 -2.1351
59418SOL    HW296247   5.225  13.541   5.012 -0.0421  0.8057  2.0389
59419SOL     OW96248   5.214   2.896   0.989  0.3944 -0.0402 -0.0816
59419SOL    HW196249   5.160   2.893   0.910 -0.4450 -0.4975  0.4810
59419SOL    HW296250   5.304   2.886   0.958  0.4082  2.7033 -1.2546
59420SOL     OW96251   1.545   5.343   5.356 -0.0735 -0.7145  0.2416
59420SOL    HW196252   1.568   5.352   5.263 -0.4810 -0.6168  0.1492
59420SOL    HW296253   1.479   5.411   5.371 -0.7067 -1.3515  0.3686
59421SOL     OW96254   0.047  10.463   0.277 -0.0101  0.2461 -0.6925
59421SOL    HW196255  -0.036  10.418   0.261 -0.6529  0.8473  0.8107
59421SOL    HW296256   0.029  10.521   0.351  2.3238 -1.1990  1.1392
59422SOL     OW96257  10.769  13.119   0.762 -1.1197 -0.6894 -0.0710
59422SOL    HW196258  10.754  13.024   0.760  0.1849 -0.8974 -0.8580
59422SOL    HW296259  10.845  13.130   0.818  0.3433 -0.3709 -2.0354
59423SOL     OW96260  12.239   2.587   7.274 -0.0048 -0.5517  0.1891
59423SOL    HW196261  12.328   2.595   7.306 -0.4133  0.8107  1.0761
59423SOL    HW296262  12.234   2.648   7.201 -1.1801  2.3848  2.5072
59424SOL     OW96263   9.744   7.357   5.489 -0.3156 -0.3398  0.2681
59424SOL    HW196264   9.660   7.322   5.521 -0.2318 -0.8684 -0.0921
59424SOL    HW296265   9.781   7.287   5.437  0.5681 -0.2703  0.7877
59425SOL     OW96266   2.401   6.414   5.678 -0.3118 -0.1865  0.2017
59425SOL    HW196267   2.478   6.470   5.665  0.8188 -1.7008  0.2193
59425SOL    HW296268   2.329   6.463   5.638  0.9193  0.5879 -1.1303
59426SOL     OW96269  13.734   1.223  13.543  0.4025  0.6657 -0.5526
59426SOL    HW196270  13.678   1.202  13.468 -0.0414 -0.8167  0.1520
59426SOL    HW296271  13.692   1.180  13.617  0.7653  2.2025  0.5962
59427SOL     OW96272  13.104  10.715   5.662 -0.3760  0.2283  0.7863
59427SOL    HW196273  13.119  10.749   5.574 -2.5040 -0.2586  0.1708
59427SOL    HW296274  13.179  10.658   5.679  0.9846  1.7414  0.0506
59428SOL     OW96275   4.364  12.431   1.996 -0.2513  0.2680 -0.6045
59428SOL    HW196276   4.295  12.388   1.946 -0.4122  0.9919 -1.0241
59428SOL    HW296277   4.319  12.498   2.046 -0.2254 -1.0700  1.2946
59429SOL     OW96278  11.660   4.221  11.163 -0.2713 -0.2406 -0.2887
59429SOL    HW196279  11.647   4.128  11.144 -1.4197  0.1907 -1.8523
59429SOL    HW296280  11.736   4.246  11.111 -0.4454 -0.1338 -0.4937
59430SOL     OW96281   1.660  11.182   7.575 -0.2084 -0.2908  0.0071
59430SOL    HW196282   1.718  11.255   7.597 -0.5874 -0.4488  1.6735
59430SOL    HW296283   1.632  11.200   7.486 -1.2678  2.3015  0.7451
59431SOL     OW96284   7.896   3.607   9.032 -0.0934 -0.7879 -0.1064
59431SOL    HW196285   7.849   3.606   9.115 -1.9454 -2.2827 -1.1060
59431SOL    HW296286   7.988   3.592   9.057  0.3853  3.8164  2.0226
59432SOL     OW96287   1.577  13.608   2.307  0.3529  0.6442  0.0026
59432SOL    HW196288   1.510  13.640   2.368 -0.0327  1.8303 -1.0032
59432SOL    HW296289   1.608  13.687   2.262  1.0799 -0.1296 -0.8831
59433SOL     OW96290  13.897   3.771   1.707  0.8280 -0.2901 -0.2107
59433SOL    HW196291  13.802   3.771   1.721  1.0967  2.6173  2.9074
59433SOL    HW296292  13.925   3.684   1.736 -0.6369 -0.3030  1.3285
59434SOL     OW96293   5.936  11.352   5.873 -0.2099 -0.3502 -0.3451
59434SOL    HW196294   5.906  11.437   5.841 -1.1799 -0.0324  1.2742
59434SOL    HW296295   6.031  11.360   5.878 -0.2978  0.6685 -0.1630
59435SOL     OW96296   5.855   3.234   6.553  0.1944  0.3409 -0.4619
59435SOL    HW196297   5.832   3.304   6.492 -0.0760  0.2034 -0.5205
59435SOL    HW296298   5.883   3.279   6.632 -2.0594  0.5541  0.2967
59436SOL     OW96299   8.267   8.403   8.735 -0.3607 -0.4493 -0.4251
59436SOL    HW196300   8.237   8.393   8.645  0.3558  1.2728 -0.8995
59436SOL    HW296301   8.221   8.481   8.767 -0.1252 -0.6740  0.4783
59437SOL     OW96302   1.038   2.231   1.132 -0.3566 -0.6850 -0.0172
59437SOL    HW196303   0.978   2.220   1.059 -1.9702 -0.5224  1.2324
59437SOL    HW296304   1.041   2.326   1.147 -0.0935 -0.7248  0.1930
59438SOL     OW96305   7.880   4.009   5.575  0.2633  0.0833  0.0984
59438SOL    HW196306   7.927   4.058   5.507  1.0192 -0.6298  0.0890
59438SOL    HW296307   7.812   3.961   5.527  1.4639 -1.2554 -0.3380
59439SOL     OW96308   5.885  10.835  13.182  0.1576 -0.4175  0.3088
59439SOL    HW196309   5.874  10.850  13.276 -0.8728 -1.8384  0.4517
59439SOL    HW296310   5.958  10.773  13.176 -0.0516 -0.6509  0.1929
59440SOL     OW96311   1.604   9.785  13.318 -0.2118 -0.5691  0.1612
59440SOL    HW196312   1.678   9.845  13.307 -0.2284 -0.7734 -1.1686
59440SOL    HW296313   1.611   9.724  13.245 -0.4331 -1.9631  1.2679
59441SOL     OW96314   2.923  12.527  13.509  0.1546  0.4359  0.0369
59441SOL    HW196315   2.885  12.440  13.498 -0.1341  0.6101 -0.3710
59441SOL    HW296316   2.855  12.578  13.554  0.2040  0.5373 -0.0019
59442SOL     OW96317  12.394  13.269  13.064 -0.1022  0.1814  0.0438
59442SOL    HW196318  12.361  13.341  13.009  0.3040 -1.9047 -3.1849
59442SOL    HW296319  12.383  13.191  13.011  0.7402 -2.0447  2.8713
59443SOL     OW96320   1.238  13.934  12.427  0.1415  0.0462 -0.2948
59443SOL    HW196321   1.225  14.028  12.435  1.2575  0.2333 -0.4377
59443SOL    HW296322   1.166  13.903  12.373 -0.4817  0.7451  0.1226
59444SOL     OW96323   8.799   3.021  10.297  0.4733  0.6571  0.3411
59444SOL    HW196324   8.759   3.027  10.383  0.2128 -0.3404  0.3000
59444SOL    HW296325   8.733   2.978  10.242  0.5280  1.5215 -0.4327
59445SOL     OW96326   9.523  11.188  10.430  0.0592 -0.1231  0.2739
59445SOL    HW196327   9.606  11.234  10.416 -0.1221  0.3389  0.6758
59445SOL    HW296328   9.526  11.114  10.370 -0.4743  1.4842 -1.8903
59446SOL     OW96329   8.523   8.907   9.030 -0.0725 -0.5251  0.0451
59446SOL    HW196330   8.618   8.905   9.046 -0.1513 -2.7989  0.6486
59446SOL    HW296331   8.484   8.892   9.116 -0.8574 -2.2238 -0.5579
59447SOL     OW96332   7.951  13.133   9.101  0.1346  0.0163 -0.3171
59447SOL    HW196333   7.905  13.054   9.128 -1.7629  1.0246 -0.4755
59447SOL    HW296334   7.972  13.179   9.182 -0.0727  0.0607 -0.2888
59448SOL     OW96335   9.357   6.613   5.515 -0.1940  0.0948  0.0030
59448SOL    HW196336   9.304   6.660   5.578 -0.7222 -0.1912 -0.2240
59448SOL    HW296337   9.309   6.619   5.432  0.2994  0.1363 -0.2878
59449SOL     OW96338   5.726  10.816  11.428 -0.1545  0.2918  0.1916
59449SOL    HW196339   5.788  10.825  11.501 -1.1682 -0.7893  1.2461
59449SOL    HW296340   5.645  10.785  11.470 -0.8049 -0.2384 -1.3985
59450SOL     OW96341  10.575   0.172  13.451 -0.1541 -0.2055 -0.4403
59450SOL    HW196342  10.499   0.140  13.500 -0.3162 -0.8481 -1.0996
59450SOL    HW296343  10.583   0.264  13.476 -0.4955 -0.4118  0.4612
59451SOL     OW96344   4.280   2.713  11.048 -0.3780  0.4252  0.5641
59451SOL    HW196345   4.209   2.669  11.094 -1.0977  1.5087  0.5262
59451SOL    HW296346   4.359   2.688  11.096 -0.6864 -1.2614  0.2636
59452SOL     OW96347   4.726   1.784  11.193 -0.0310  0.1579  0.0668
59452SOL    HW196348   4.654   1.835  11.232 -0.4086 -1.6760  1.9287
59452SOL    HW296349   4.764   1.843  11.128 -2.0120  1.8851  0.3584
59453SOL     OW96350   3.403   3.889   0.898  0.0450  0.2917  0.0643
59453SOL    HW196351   3.445   3.973   0.878 -1.0005  0.7688 -0.2149
59453SOL    HW296352   3.335   3.911   0.961  0.4268 -0.5173  0.7690
59454SOL     OW96353   0.122  11.234   6.307  0.2771 -0.2470 -0.2816
59454SOL    HW196354   0.062  11.200   6.241  0.6947  1.9963 -1.9455
59454SOL    HW296355   0.208  11.228   6.266  0.4385  2.0387 -0.3939
59455SOL     OW96356  10.224  13.298  13.214  0.2015 -0.2139 -0.4047
59455SOL    HW196357  10.260  13.385  13.194 -2.1523  0.8697 -0.3704
59455SOL    HW296358  10.243  13.285  13.306  2.6731 -0.8748 -0.9402
59456SOL     OW96359  13.903   0.365  11.622 -0.2220 -0.2169  0.3564
59456SOL    HW196360  13.833   0.310  11.657 -0.3755 -0.2622 -0.0094
59456SOL    HW296361  13.889   0.451  11.663  0.8152 -0.7666  1.9507
59457SOL     OW96362   7.122   0.388  10.216  0.2043  0.5563 -0.2780
59457SOL    HW196363   7.216   0.376  10.204 -0.2173 -1.5561 -2.1650
59457SOL    HW296364   7.099   0.323  10.283 -0.1118 -0.0869 -0.9898
59458SOL     OW96365  12.803  13.325   6.982 -0.0894 -0.2556  0.4085
59458SOL    HW196366  12.839  13.247   6.938  0.2552  0.4844 -0.6807
59458SOL    HW296367  12.725  13.347   6.931  1.0898  1.4456 -0.7892
59459SOL     OW96368   5.967   9.280  12.563 -0.0489  0.0071  0.5264
59459SOL    HW196369   5.918   9.304  12.642 -1.7274 -2.2565  0.2780
59459SOL    HW296370   6.057   9.269  12.593 -0.9479 -2.7296  2.7163
59460SOL     OW96371   1.487   1.511  12.149  0.4185 -0.3196  0.1805
59460SOL    HW196372   1.439   1.588  12.181 -0.2707 -0.7382  0.1820
59460SOL    HW296373   1.423   1.465  12.095  1.9269  1.1720 -3.2034
59461SOL     OW96374   2.625   1.207   1.865  0.2244 -0.1130  0.1685
59461SOL    HW196375   2.707   1.229   1.820  0.1841  0.1648  0.2299
59461SOL    HW296376   2.651   1.197   1.957  0.4136 -1.2534  0.0076
59462SOL     OW96377  12.166  11.548   4.268  0.0964  0.8126 -0.0848
59462SOL    HW196378  12.253  11.545   4.226  1.0398  1.5869  1.7059
59462SOL    HW296379  12.154  11.640   4.292 -0.6826  0.4965  0.7823
59463SOL     OW96380  11.951  10.839   3.781 -0.3980 -0.1275  0.0233
59463SOL    HW196381  11.902  10.919   3.762  0.5574  0.1569 -1.4441
59463SOL    HW296382  12.042  10.862   3.762 -0.3040 -2.0943 -2.5038
59464SOL     OW96383   1.308   8.610   9.378 -0.2423  0.0797  0.0578
59464SOL    HW196384   1.385   8.577   9.424  0.4336  0.9957 -0.3974
59464SOL    HW296385   1.329   8.602   9.285 -0.0441  1.7555 -0.0715
59465SOL     OW96386   0.184  11.798  10.823  0.3308 -0.2546 -0.7680
59465SOL    HW196387   0.258  11.849  10.792  0.4225 -1.3060 -2.4173
59465SOL    HW296388   0.122  11.863  10.856  0.7596  0.8759 -2.0881
59466SOL     OW96389  12.931  13.700   4.035 -0.4399  0.6164  0.3672
59466SOL    HW196390  13.000  13.761   4.007  2.0904 -2.3165 -0.2580
59466SOL    HW296391  12.964  13.662   4.116 -1.9072 -0.0604  0.6834
59467SOL     OW96392  13.300  10.070  13.630  0.1942 -0.2735  0.5103
59467SOL    HW196393  13.352  10.149  13.646 -0.5839  0.4312 -0.3780
59467SOL    HW296394  13.366  10.002  13.617  0.9333  0.6649 -0.9032
59468SOL     OW96395  10.570   0.137   5.758 -0.1469  0.5061 -0.2924
59468SOL    HW196396  10.496   0.081   5.780  0.9301 -0.8111  0.1191
59468SOL    HW296397  10.531   0.214   5.716 -1.6626 -0.5705 -0.9314
59469SOL     OW96398   7.948   3.091   9.893  0.1429  0.0168  0.1152
59469SOL    HW196399   7.994   3.125   9.970  0.8792  0.1542 -0.3742
59469SOL    HW296400   7.976   3.000   9.886 -0.7895 -0.3303  0.6421
59470SOL     OW96401   4.940  11.375   0.052  0.0344  0.1962  0.2443
59470SOL    HW196402   4.885  11.444   0.015 -0.9640  0.3939  2.0038
59470SOL    HW296403   4.880  11.320   0.101  1.2325 -0.2801  1.2270
59471SOL     OW96404   6.239   5.664   1.517  0.6511  0.0037 -0.2037
59471SOL    HW196405   6.242   5.618   1.433  1.9127  0.6660 -0.5349
59471SOL    HW296406   6.187   5.742   1.500  0.5726 -0.0604 -0.2596
59472SOL     OW96407   0.091   9.412  10.736 -0.8686  0.3056 -0.1433
59472SOL    HW196408   0.149   9.488  10.735 -0.5548  0.2399  3.1748
59472SOL    HW296409   0.007   9.446  10.766 -0.5697 -0.6275  1.9539
59473SOL     OW96410   1.295  14.006   0.302  0.2768 -0.0227 -0.1283
59473SOL    HW196411   1.348  14.032   0.377  0.2471  0.7845 -0.3779
59473SOL    HW296412   1.305  13.911   0.297  2.5068  0.1981 -0.7779
59474SOL     OW96413  12.069  13.792   1.312  0.1460  0.2530  0.0156
59474SOL    HW196414  12.013  13.869   1.317  0.9324  0.8524 -0.2730
59474SOL    HW296415  12.009  13.718   1.322 -0.6618  0.8864 -0.0740
59475SOL     OW96416   5.350   8.066   7.215  0.4296 -0.4166  0.3087
59475SOL    HW196417   5.356   7.976   7.185  1.0891 -0.3099  0.1001
59475SOL    HW296418   5.412   8.071   7.288 -0.2036 -0.3394  0.8423
59476SOL     OW96419   7.956   4.043   4.067  0.0503 -0.2927  0.6155
59476SOL    HW196420   7.931   3.987   3.993  0.7613 -0.3717  0.4318
59476SOL    HW296421   7.876   4.050   4.119 -0.8867  0.9197 -0.8899
59477SOL     OW96422   8.358   2.570   1.522 -0.2312  0.0475 -0.5175
59477SOL    HW196423   8.419   2.497   1.524 -0.4457 -0.1413  1.8970
59477SOL    HW296424   8.413   2.648   1.520  0.0057 -0.1276 -2.0509
59478SOL     OW96425   3.186  13.939   4.342 -0.0629 -0.2395  0.2332
59478SOL    HW196426   3.190  14.035   4.341  1.0573 -0.2464 -1.3824
59478SOL    HW296427   3.243  13.913   4.415  1.0193  0.3338 -0.3741
59479SOL     OW96428   4.387   1.092  10.899 -0.9190  0.6703 -0.1572
59479SOL    HW196429   4.423   1.057  10.981 -1.5187  1.0344  0.2754
59479SOL    HW296430   4.357   1.180  10.922  0.1508  1.3070 -1.1194
59480SOL     OW96431   4.079   2.299   3.408 -0.0641 -0.6287 -0.2083
59480SOL    HW196432   4.153   2.246   3.438 -0.4957 -0.9384  0.3287
59480SOL    HW296433   4.090   2.304   3.313  0.8648 -0.3269 -0.0973
59481SOL     OW96434  12.086   7.046   4.489 -0.2355  0.5640 -0.1592
59481SOL    HW196435  12.080   6.982   4.417  0.2847 -0.1913  0.4450
59481SOL    HW296436  12.032   7.009   4.559  1.3906 -0.0979  0.8050
59482SOL     OW96437  12.550   8.232   1.724  0.3201  0.2789  0.9818
59482SOL    HW196438  12.495   8.301   1.761 -0.1405  0.1503  0.5341
59482SOL    HW296439  12.521   8.224   1.633  0.7517 -0.1225  0.8761
59483SOL     OW96440   5.654   5.943   7.361 -0.2499 -0.4208  0.2436
59483SOL    HW196441   5.642   5.893   7.280 -0.2111 -0.9738  0.5718
59483SOL    HW296442   5.565   5.957   7.394 -0.2456 -0.5613  0.3182
59484SOL     OW96443  11.126   5.118   9.177 -0.2066  0.7921 -0.4966
59484SOL    HW196444  11.192   5.121   9.108  0.6381  0.3951  0.2746
59484SOL    HW296445  11.155   5.183   9.241  0.0723 -0.1594  0.3759
59485SOL     OW96446  13.995   5.775  10.509  0.2538 -0.1292  0.2995
59485SOL    HW196447  13.949   5.856  10.486  1.3523 -0.1141 -2.1181
59485SOL    HW296448  13.931   5.725  10.559 -1.4736  0.9846 -0.6909
59486SOL     OW96449   4.855   5.387  10.822 -0.4348  0.1521 -0.3583
59486SOL    HW196450   4.911   5.366  10.898 -2.1071 -0.0865  0.8656
59486SOL    HW296451   4.887   5.472  10.792 -0.3453  0.7282  1.2547
59487SOL     OW96452   3.947   0.846   6.855  0.1714  0.7512  0.3733
59487SOL    HW196453   3.990   0.776   6.808 -1.8717 -2.3675  2.7546
59487SOL    HW296454   3.875   0.873   6.797  1.0303  1.0066 -0.5994
59488SOL     OW96455  12.501   8.829   8.494 -0.4167 -0.0041  0.2317
59488SOL    HW196456  12.407   8.842   8.499 -0.2774  0.7475  1.4128
59488SOL    HW296457  12.524   8.850   8.403 -1.1340  1.8371  0.4256
59489SOL     OW96458   3.743  12.881   7.638  0.7941  0.1843  0.2693
59489SOL    HW196459   3.765  12.789   7.653  0.1411 -0.0037  0.1116
59489SOL    HW296460   3.823  12.920   7.603  1.1275 -0.2809  0.5096
59490SOL     OW96461  13.016   6.724   4.183  0.1288  0.3086 -0.2913
59490SOL    HW196462  12.984   6.698   4.096  0.4739 -1.1253 -0.0185
59490SOL    HW296463  13.079   6.656   4.206 -4.0144 -2.8966  3.5197
59491SOL     OW96464  13.237  10.979   5.189  0.7293  0.1675 -0.2466
59491SOL    HW196465  13.153  10.989   5.233  0.2029  0.3086 -1.2648
59491SOL    HW296466  13.230  10.897   5.141  0.8378  0.6366 -1.0680
59492SOL     OW96467   4.724   8.237   0.682  0.3218  0.4035 -0.2828
59492SOL    HW196468   4.731   8.198   0.768  2.0225  1.4325  0.1018
59492SOL    HW296469   4.640   8.283   0.683 -0.4974 -1.0709  0.1572
59493SOL     OW96470   2.211   3.160   7.793  0.3069 -0.6356 -0.0334
59493SOL    HW196471   2.159   3.148   7.714 -0.5963 -0.5539  0.5394
59493SOL    HW296472   2.221   3.071   7.828  1.0702 -0.7265 -0.4502
59494SOL     OW96473   1.224   6.504   7.195 -0.0914  0.5178  0.8763
59494SOL    HW196474   1.227   6.579   7.136 -0.1436  0.2673  0.5490
59494SOL    HW296475   1.130   6.488   7.209 -0.1294 -0.3323 -0.1668
59495SOL     OW96476   7.984  10.497   5.424 -0.3917  0.0602  0.0678
59495SOL    HW196477   7.933  10.418   5.407 -0.9046  0.4053 -0.0305
59495SOL    HW296478   8.042  10.505   5.348  0.0011 -0.4778  0.3076
59496SOL     OW96479  12.069   5.234   3.234 -0.2961  0.2065 -0.4009
59496SOL    HW196480  12.051   5.288   3.311  0.5575 -1.3748  0.9586
59496SOL    HW296481  12.164   5.243   3.221 -0.6291  1.7594 -2.3352
59497SOL     OW96482   6.355  13.051  13.931  0.0145 -0.0572  0.3924
59497SOL    HW196483   6.298  13.109  13.880  1.0174 -1.5659 -2.6840
59497SOL    HW296484   6.302  13.026  14.006 -0.6338  4.3595  1.7419
59498SOL     OW96485   2.963  10.412   8.872  0.2455  0.3432  0.1971
59498SOL    HW196486   3.021  10.337   8.862 -0.0005  0.3162 -1.3296
59498SOL    HW296487   3.006  10.482   8.822 -0.3392  0.7248  0.2157
59499SOL     OW96488   4.112   0.115   6.947 -0.0162  0.0233 -0.0817
59499SOL    HW196489   4.125   0.166   7.027  1.0233  0.5750 -0.5885
59499SOL    HW296490   4.169   0.039   6.958  1.4301  0.9267 -0.9878
59500SOL     OW96491   3.802  10.410  10.348 -0.0209  0.1917  0.7608
59500SOL    HW196492   3.838  10.495  10.373 -0.1390  0.2651  0.6842
59500SOL    HW296493   3.713  10.410  10.385 -0.3195  0.4395  0.0540
59501SOL     OW96494  10.771  11.910   1.409 -0.2166 -0.3983 -0.0556
59501SOL    HW196495  10.812  11.983   1.454 -0.4266 -1.9074  2.8540
59501SOL    HW296496  10.677  11.923   1.422 -0.5745  0.9145 -3.1737
59502SOL     OW96497  13.026   5.792   0.748 -0.2580 -0.4814  0.1544
59502SOL    HW196498  13.077   5.712   0.757  3.1371  1.4211 -0.6813
59502SOL    HW296499  12.984   5.784   0.662  0.0333 -1.3514  0.0844
59503SOL     OW96500  11.894   1.227  10.209  0.0096 -0.2757 -0.3166
59503SOL    HW196501  11.840   1.200  10.135 -1.0104  0.0743  0.2759
59503SOL    HW296502  11.912   1.320  10.193 -3.9086  1.1292  1.9152
59504SOL     OW96503   0.971   4.398   5.604  0.1294  0.5326 -0.1675
59504SOL    HW196504   1.013   4.484   5.610  0.5610  0.2927  0.4423
59504SOL    HW296505   0.880   4.414   5.626  0.2710  0.7914  0.2481
59505SOL     OW96506   2.451  14.130   1.730 -0.2184  0.1975 -0.1065
59505SOL    HW196507   2.540  14.159   1.712  0.5073 -1.9128 -0.1668
59505SOL    HW296508   2.447  14.041   1.696 -2.2008  0.0421  0.3927
59506SOL     OW96509  12.640  14.022   3.807 -0.4842 -0.0987 -0.5612
59506SOL    HW196510  12.704  13.951   3.806  0.2592  0.5623 -0.6541
59506SOL    HW296511  12.556  13.978   3.790  0.1284 -0.7770 -1.9951
59507SOL     OW96512  12.863  13.066   5.862 -0.4723 -0.6244 -0.1748
59507SOL    HW196513  12.881  13.058   5.955 -1.0759 -0.1061 -0.0046
59507SOL    HW296514  12.836  12.977   5.835  1.5140 -1.2347 -0.2876
59508SOL     OW96515   6.600  10.109  10.281  0.1120 -0.2133 -0.4269
59508SOL    HW196516   6.517  10.112  10.328  0.9892  1.2399  1.1655
59508SOL    HW296517   6.654  10.176  10.323  2.3615 -1.6024 -0.8915
59509SOL     OW96518  12.181  10.914   1.987 -0.0936 -0.0297  0.4436
59509SOL    HW196519  12.090  10.946   1.988  0.2710  1.0486  1.3781
59509SOL    HW296520  12.199  10.896   1.895 -0.8190  1.0750  0.0708
59510SOL     OW96521   1.492   7.867   9.201  0.2707  0.1565 -0.0095
59510SOL    HW196522   1.426   7.929   9.171 -0.8075 -0.9811 -0.0604
59510SOL    HW296523   1.520   7.821   9.122  0.5585  0.0884  0.1284
59511SOL     OW96524   1.701   5.837   7.842 -0.0838  0.0656  0.4955
59511SOL    HW196525   1.615   5.805   7.813  0.9276 -3.5198  0.9785
59511SOL    HW296526   1.697   5.832   7.938 -0.0234  2.1069  0.6509
59512SOL     OW96527   6.398  12.703  12.232 -0.0965  0.0883  0.2545
59512SOL    HW196528   6.361  12.618  12.255 -1.1376 -0.0381 -1.6905
59512SOL    HW296529   6.415  12.698  12.138  0.6354  1.7327  0.2571
59513SOL     OW96530   6.759   6.681   7.087 -0.0366 -0.2985 -0.1955
59513SOL    HW196531   6.808   6.712   7.163  0.9723 -0.8973 -0.5824
59513SOL    HW296532   6.782   6.741   7.017  1.0196 -1.1959 -0.6521
59514SOL     OW96533   7.490  12.336   7.435 -0.1205  0.0390 -0.2025
59514SOL    HW196534   7.394  12.332   7.428 -0.1258  1.2372 -1.0046
59514SOL    HW296535   7.506  12.408   7.496  0.2735  0.0898 -0.3641
59515SOL     OW96536   4.756   8.126  12.977  0.3366 -0.4416 -0.0430
59515SOL    HW196537   4.806   8.093  13.052  1.3405 -0.6961 -0.7923
59515SOL    HW296538   4.808   8.199  12.943  0.4039 -0.9393 -1.0592
59516SOL     OW96539  12.281   0.197   1.407 -0.6061  0.0868 -0.5665
59516SOL    HW196540  12.249   0.109   1.389 -0.3774 -0.0177 -0.4719
59516SOL    HW296541  12.248   0.218   1.494 -1.1288  0.3161 -0.8200
59517SOL     OW96542   4.484  11.396   3.194 -0.6248 -0.2753  0.2725
59517SOL    HW196543   4.408  11.434   3.151 -0.6590 -1.4554 -0.7582
59517SOL    HW296544   4.448  11.352   3.271 -0.9880 -0.7439 -0.1567
59518SOL     OW96545  13.636   0.414  10.523  0.4073 -0.0153  0.3336
59518SOL    HW196546  13.666   0.324  10.530 -1.2360 -0.5741  0.4670
59518SOL    HW296547  13.687   0.451  10.451  1.4757 -0.8670  0.6212
59519SOL     OW96548   1.974   0.856  13.182 -0.0878 -0.4377  0.0758
59519SOL    HW196549   2.049   0.822  13.133 -0.1386  0.9175 -0.9878
59519SOL    HW296550   2.007   0.868  13.272  1.0725  0.4121 -0.4373
59520SOL     OW96551   4.790  12.262  10.354  0.1058  0.1992  0.1518
59520SOL    HW196552   4.853  12.321  10.395  0.1539  0.6308 -0.5455
59520SOL    HW296553   4.820  12.252  10.264 -0.2067 -0.4623  0.1105
59521SOL     OW96554   6.426  13.881   4.350 -0.4326 -0.4841 -0.1486
59521SOL    HW196555   6.449  13.864   4.441  0.6480  1.1952 -0.0779
59521SOL    HW296556   6.510  13.895   4.306 -0.9104 -1.5482 -1.4967
59522SOL     OW96557   4.198   3.173  12.130 -0.5588  0.3804  0.1052
59522SOL    HW196558   4.275   3.118  12.147 -1.3484 -0.7515  0.1223
59522SOL    HW296559   4.129   3.111  12.105 -1.1663  1.4717 -1.0204
59523SOL     OW96560  13.451   5.402  10.225 -0.0012 -0.0033 -0.3274
59523SOL    HW196561  13.392   5.338  10.264  0.2481 -0.3294 -0.4854
59523SOL    HW296562  13.499   5.439  10.299  0.9440 -1.0955 -0.3690
59524SOL     OW96563   9.895  12.653   0.889 -0.1231 -0.0071 -0.0323
59524SOL    HW196564   9.964  12.714   0.863 -0.1515  0.7213  1.5087
59524SOL    HW296565   9.817  12.707   0.900 -0.3956 -0.4718  0.3904
59525SOL     OW96566  14.064  12.846  12.084 -0.6503 -0.5627 -0.5687
59525SOL    HW196567  14.057  12.834  11.989  0.7971  0.4408 -0.8351
59525SOL    HW296568  14.158  12.836  12.102 -0.6377  1.0929  0.4653
59526SOL     OW96569  10.149   2.610  10.546  0.0027 -0.7536 -0.1213
59526SOL    HW196570  10.166   2.703  10.536 -1.2929 -0.6751 -2.4387
59526SOL    HW296571  10.136   2.597  10.640 -1.0215  1.6499  0.1311
59527SOL     OW96572  13.336   0.311   0.842 -0.1788  0.6162  0.0516
59527SOL    HW196573  13.318   0.320   0.748 -0.5094 -1.0736 -0.0822
59527SOL    HW296574  13.253   0.285   0.880 -0.0579  1.3569  0.8316
59528SOL     OW96575   6.783  10.463   0.741 -0.1763  0.0157  0.8258
59528SOL    HW196576   6.754  10.383   0.786 -0.0710  0.3306  1.4563
59528SOL    HW296577   6.831  10.431   0.665 -0.3726 -0.5234  0.9221
59529SOL     OW96578   4.336   6.019   7.287 -0.2620  0.0076 -0.0453
59529SOL    HW196579   4.248   5.988   7.307 -0.0599 -1.7213 -1.5292
59529SOL    HW296580   4.394   5.957   7.330  0.1749 -0.7281 -1.6118
59530SOL     OW96581   3.829  11.577  11.716  0.3424 -0.0908 -0.0739
59530SOL    HW196582   3.753  11.525  11.742  1.2034 -0.5517  1.7056
59530SOL    HW296583   3.848  11.549  11.626  0.2200 -2.2307  0.5011
59531SOL     OW96584   6.414   8.393   4.333 -0.4778  0.5791 -0.4024
59531SOL    HW196585   6.441   8.361   4.419  0.8810  2.1594 -0.1957
59531SOL    HW296586   6.318   8.388   4.335 -0.3896 -1.6648  0.2632
59532SOL     OW96587  13.337   9.785   5.121  0.3180 -0.0226 -0.3778
59532SOL    HW196588  13.265   9.791   5.059  0.3656 -1.4842 -0.5929
59532SOL    HW296589  13.410   9.829   5.077 -0.5730  2.1395  0.1365
59533SOL     OW96590   6.849   2.102  12.159  0.1275  0.7238  0.4209
59533SOL    HW196591   6.797   2.181  12.170 -0.0867  0.4940  1.0759
59533SOL    HW296592   6.851   2.088  12.064 -2.0585  0.0277  0.4245
59534SOL     OW96593   0.639  13.390   2.883  0.4684  0.2191  0.5188
59534SOL    HW196594   0.664  13.325   2.817  0.8642  1.1035 -0.2348
59534SOL    HW296595   0.689  13.365   2.961  1.5282  0.2856 -0.1074
59535SOL     OW96596   5.694   8.529  11.738 -0.1421  0.8037 -0.9218
59535SOL    HW196597   5.701   8.530  11.833  1.0912 -1.1525 -0.9316
59535SOL    HW296598   5.742   8.606  11.709  2.7007 -0.5189 -0.0432
59536SOL     OW96599   3.980  11.227   6.252  0.3214 -0.5275 -0.1703
59536SOL    HW196600   3.890  11.245   6.281 -0.0359 -1.7336 -0.4834
59536SOL    HW296601   4.029  11.210   6.332  0.6895  1.7594  0.1517
59537SOL     OW96602   5.443   3.164  11.162  0.5402  0.0586  0.7511
59537SOL    HW196603   5.507   3.096  11.141  1.1934  1.0816 -0.7520
59537SOL    HW296604   5.492   3.227  11.215  0.1553 -0.2222  1.4556
59538SOL     OW96605   3.428   0.078   2.503 -0.5453 -0.1070  0.5377
59538SOL    HW196606   3.476  -0.005   2.496 -1.4368 -0.4840 -1.7837
59538SOL    HW296607   3.336   0.052   2.507 -0.7455  0.7212  2.1241
59539SOL     OW96608   5.307   6.351  13.559  0.1227  0.2230  0.7733
59539SOL    HW196609   5.379   6.345  13.496 -1.3833 -1.2892 -0.9241
59539SOL    HW296610   5.295   6.262  13.591 -0.0328  0.7381  2.2009
59540SOL     OW96611  10.747   5.005   1.773  0.1947  0.0404 -0.1017
59540SOL    HW196612  10.758   5.096   1.744 -0.8005 -0.2676 -1.5483
59540SOL    HW296613  10.830   4.963   1.751 -0.4151 -0.1039 -2.3254
59541SOL     OW96614   8.275  10.393   5.850 -0.6793  0.2755  0.0913
59541SOL    HW196615   8.232  10.312   5.822  1.6026 -1.1703  0.5455
59541SOL    HW296616   8.235  10.412   5.935 -1.4318 -0.2066 -0.1410
59542SOL     OW96617  11.569   7.322   5.651  0.5884  0.2367  0.0330
59542SOL    HW196618  11.529   7.320   5.738 -0.1627 -1.2439 -0.3154
59542SOL    HW296619  11.632   7.394   5.656  1.8034 -0.8668  2.3401
59543SOL     OW96620   8.714  13.290   4.645  0.4031 -0.0924 -0.5369
59543SOL    HW196621   8.798  13.294   4.598  0.8646  0.4227  0.3141
59543SOL    HW296622   8.738  13.294   4.737 -0.6366  2.5730 -0.2831
59544SOL     OW96623   6.182   1.876   9.516  0.2923 -0.0423  1.0380
59544SOL    HW196624   6.267   1.919   9.512  0.1393  0.1665 -1.3651
59544SOL    HW296625   6.119   1.948   9.514  0.0354 -0.2433  1.5599
59545SOL     OW96626  11.104  13.742  11.645 -0.1568 -0.4494  0.3967
59545SOL    HW196627  11.027  13.725  11.700 -0.7477  1.4896  0.2276
59545SOL    HW296628  11.178  13.737  11.705 -0.2873 -2.8669  0.4746
59546SOL     OW96629   6.347   8.103   7.021 -0.0359  0.5152  0.0976
59546SOL    HW196630   6.332   8.027   7.078  0.0078 -0.1013 -0.7024
59546SOL    HW296631   6.415   8.153   7.066  1.1517 -0.7911 -0.1669
59547SOL     OW96632   1.826   4.444  10.037  0.0672 -0.1634  0.5947
59547SOL    HW196633   1.847   4.533  10.012  0.6378 -0.4395  0.0542
59547SOL    HW296634   1.739   4.428  10.000  0.2211 -0.0303  0.1737
59548SOL     OW96635   7.918   5.049   0.469  0.1063  0.1166  0.1315
59548SOL    HW196636   7.999   5.060   0.418  0.0243 -0.5670 -0.1674
59548SOL    HW296637   7.919   4.956   0.494  0.5306  0.6074  2.0414
59549SOL     OW96638  10.879   1.692  11.291 -0.4038 -0.1408  0.1047
59549SOL    HW196639  10.856   1.785  11.288 -1.0851 -0.2882  0.5859
59549SOL    HW296640  10.938   1.684  11.365  1.5651  0.2997 -1.3431
59550SOL     OW96641  10.632   4.433  12.799 -0.8011 -0.0714  0.2620
59550SOL    HW196642  10.700   4.401  12.858  0.1626 -1.4532 -1.4872
59550SOL    HW296643  10.661   4.520  12.773 -0.6801  0.0973  0.9471
59551SOL     OW96644   7.116   8.538  12.357 -0.4308 -0.9140 -0.0653
59551SOL    HW196645   7.070   8.509  12.278 -1.3624  1.4109 -0.4592
59551SOL    HW296646   7.047   8.571  12.414  0.5092  0.5796  0.2759
59552SOL     OW96647   8.805  10.063  12.901 -0.1583 -0.3508 -0.3219
59552SOL    HW196648   8.785  10.086  12.992  1.2628  1.9263 -0.5155
59552SOL    HW296649   8.720  10.065  12.857 -0.6816 -0.0092  0.6623
59553SOL     OW96650  11.562   5.631   2.748  0.1711 -0.1852 -0.2041
59553SOL    HW196651  11.615   5.704   2.779  0.8195 -0.4043 -0.7767
59553SOL    HW296652  11.478   5.670   2.724  0.2750  0.2583  0.1510
59554SOL     OW96653  12.153   5.295  10.544 -0.4565 -0.1317 -0.2457
59554SOL    HW196654  12.187   5.217  10.588 -0.7078  0.1287  0.4182
59554SOL    HW296655  12.118   5.350  10.614 -1.4991 -0.0142 -0.8255
59555SOL     OW96656   0.846   9.489   9.358 -0.2176  0.0179 -0.1861
59555SOL    HW196657   0.860   9.584   9.353 -0.9734  0.2005  0.8635
59555SOL    HW296658   0.824   9.473   9.450 -0.1162 -1.1808 -0.3575
59556SOL     OW96659   9.154   1.142   1.857  0.3790  0.6682 -0.3500
59556SOL    HW196660   9.221   1.207   1.881  0.4315  0.0324  1.3774
59556SOL    HW296661   9.199   1.058   1.866  0.9766  0.3167 -4.6453
59557SOL     OW96662   9.510   2.997  14.114 -0.5273  0.5840 -0.6030
59557SOL    HW196663   9.415   3.006  14.115 -0.4895  1.1015 -1.3410
59557SOL    HW296664   9.528   2.935  14.185 -1.6654 -2.2737 -2.6289
59558SOL     OW96665   0.083   5.052   8.185 -0.2386  0.5466 -1.1484
59558SOL    HW196666   0.149   5.121   8.178 -0.6908  0.9901 -1.0795
59558SOL    HW296667   0.126   4.975   8.148 -0.4960  1.4116 -3.4352
59559SOL     OW96668  11.208   0.627   1.304  0.4760  0.3595  0.2031
59559SOL    HW196669  11.246   0.550   1.262  0.5260  0.0814  0.7539
59559SOL    HW296670  11.258   0.639   1.385  0.5067  1.0028  0.1001
59560SOL     OW96671   4.050   4.365  13.328  0.3217  0.0499 -0.4968
59560SOL    HW196672   4.045   4.452  13.368 -3.0423 -0.4698  0.5042
59560SOL    HW296673   4.114   4.375  13.258  1.2580  2.8699  0.6057
59561SOL     OW96674   4.635  10.278  11.980 -0.0839  0.3787  0.2066
59561SOL    HW196675   4.624  10.340  12.052  1.9779  0.8276  0.1957
59561SOL    HW296676   4.709  10.223  12.007  0.5594  0.3786 -1.4421
59562SOL     OW96677   5.267   3.749   1.359 -0.2559 -0.7035  0.1053
59562SOL    HW196678   5.221   3.694   1.296  0.4621 -1.8514  0.5440
59562SOL    HW296679   5.203   3.816   1.384 -0.8862 -0.8570 -1.0434
59563SOL     OW96680  13.157   8.410   7.388 -0.3827  0.5422 -0.2050
59563SOL    HW196681  13.177   8.438   7.478 -0.9542  1.6613 -0.4073
59563SOL    HW296682  13.176   8.317   7.387  1.9408  0.9426  0.4284
59564SOL     OW96683   0.965  12.181  10.005 -0.3987  0.3769 -0.4155
59564SOL    HW196684   0.924  12.258  10.043  1.8141  1.7515 -0.6718
59564SOL    HW296685   0.949  12.111  10.069 -1.9580  1.1531  0.0814
59565SOL     OW96686   6.104   0.162   7.556 -0.0899 -0.1012 -0.6960
59565SOL    HW196687   6.079   0.238   7.502 -2.4858 -0.3757 -0.1031
59565SOL    HW296688   6.033   0.100   7.543  0.7553 -1.3692  0.5286
59566SOL     OW96689  12.057  13.288   7.664 -0.3414 -0.3037  0.2590
59566SOL    HW196690  12.114  13.364   7.657  1.1745 -1.3396  0.7045
59566SOL    HW296691  11.969  13.324   7.675 -0.1642  1.3893 -2.7635
59567SOL     OW96692   8.901   6.346  13.362 -0.0982  0.2041 -0.8019
59567SOL    HW196693   8.819   6.310  13.329 -0.5176  0.4085 -0.0062
59567SOL    HW296694   8.874   6.408  13.430  0.7979 -1.6381  1.3227
59568SOL     OW96695   0.241   7.573   6.895 -0.7174  0.4617  0.2119
59568SOL    HW196696   0.164   7.606   6.849 -1.0568 -0.2984  0.2096
59568SOL    HW296697   0.266   7.495   6.845  0.6872  1.2732 -0.4064
59569SOL     OW96698   2.919   3.342   9.786  0.7090 -0.1099  0.2364
59569SOL    HW196699   2.836   3.383   9.760  0.5847 -0.2375  0.4251
59569SOL    HW296700   2.982   3.414   9.784  0.5817  0.0007  0.1444
59570SOL     OW96701  10.769   7.385   2.887  0.1266  0.2543  0.4944
59570SOL    HW196702  10.821   7.364   2.809  1.9255  0.0768  1.6887
59570SOL    HW296703  10.724   7.303   2.907 -1.2359  0.5972 -0.9519
59571SOL     OW96704   4.893   9.328   0.335 -0.1390  0.2271  0.1202
59571SOL    HW196705   4.981   9.291   0.337 -0.8185 -1.5019  0.2133
59571SOL    HW296706   4.873   9.350   0.426  0.6760  1.8898 -0.0825
59572SOL     OW96707  10.819   1.821   9.971  0.1096 -0.2063 -0.0425
59572SOL    HW196708  10.823   1.751   9.906 -0.5697  0.4377 -0.8050
59572SOL    HW296709  10.889   1.801  10.033 -1.0282 -2.4155  0.6298
59573SOL     OW96710  11.222   1.009   3.826 -0.7908  0.0374 -0.1352
59573SOL    HW196711  11.280   1.025   3.900 -0.7515 -0.5467 -0.0324
59573SOL    HW296712  11.231   0.915   3.809 -0.8064  0.1705 -0.8779
59574SOL     OW96713   6.357   8.011  10.540 -0.2214 -0.3558 -0.3778
59574SOL    HW196714   6.397   8.045  10.620  1.9355 -0.4439 -1.3581
59574SOL    HW296715   6.316   8.087  10.500 -1.5289 -0.3526  0.8770
59575SOL     OW96716   5.798  12.002   4.884  1.1244 -0.2852  0.5473
59575SOL    HW196717   5.734  11.993   4.955  0.5823 -1.4893 -0.0562
59575SOL    HW296718   5.750  12.047   4.815  1.9209  1.7178  1.2226
59576SOL     OW96719   9.513  12.675   4.025 -0.6372  0.1307 -0.1594
59576SOL    HW196720   9.420  12.697   4.016 -0.6305  0.1392 -0.2092
59576SOL    HW296721   9.557  12.728   3.958 -0.6089  0.0386 -0.2141
59577SOL     OW96722   7.455   1.491  12.689  0.0340 -0.0809  0.2430
59577SOL    HW196723   7.439   1.583  12.670 -0.9215 -0.1109  0.8296
59577SOL    HW296724   7.525   1.466  12.629  0.2782  1.0105  0.0480
59578SOL     OW96725   5.714   7.474   0.515 -0.3678 -0.2939  0.1773
59578SOL    HW196726   5.665   7.547   0.477  2.3322  2.7733  2.0260
59578SOL    HW296727   5.715   7.492   0.609  1.5737 -1.9139  0.5376
59579SOL     OW96728   6.713   4.380  10.860 -0.4122  0.4966  1.3388
59579SOL    HW196729   6.746   4.307  10.913  1.6574  0.4163  0.0798
59579SOL    HW296730   6.766   4.455  10.888  1.3718  0.2587 -1.1264
59580SOL     OW96731   3.015   2.968   4.597 -0.4710  0.1010 -0.6285
59580SOL    HW196732   3.003   2.876   4.574  0.2422 -0.3870  0.8547
59580SOL    HW296733   3.037   3.010   4.514  3.9005 -1.9260 -0.7592
59581SOL     OW96734   8.009   6.300  10.793 -0.2457 -0.6162  0.3874
59581SOL    HW196735   8.075   6.359  10.830 -1.3199  0.1393  1.1501
59581SOL    HW296736   7.955   6.274  10.868 -1.1202 -0.8206 -0.2997
59582SOL     OW96737  12.439  11.749   6.410  0.2670  0.1435 -0.1845
59582SOL    HW196738  12.472  11.700   6.485  0.1193 -0.8733 -0.7693
59582SOL    HW296739  12.505  11.738   6.342 -2.0691 -3.8518 -2.1827
59583SOL     OW96740   7.202   0.782  13.598  0.7435 -0.0791  0.1172
59583SOL    HW196741   7.253   0.712  13.556  2.7408  0.8184  0.9264
59583SOL    HW296742   7.235   0.785  13.688 -2.7013 -1.2640  1.5990
59584SOL     OW96743  13.288   1.055  14.151 -0.0081  0.3251 -0.2281
59584SOL    HW196744  13.274   0.967  14.185  2.3532 -0.1764 -0.3768
59584SOL    HW296745  13.288   1.111  14.228 -0.2481  0.0105  0.0025
59585SOL     OW96746   3.225   8.285   7.894  0.1161  0.1725 -0.1453
59585SOL    HW196747   3.205   8.339   7.971  0.0661 -2.3085  1.7535
59585SOL    HW296748   3.181   8.201   7.913  1.5144 -1.0788 -2.0986
59586SOL     OW96749   4.935   3.941  13.582 -0.0435 -0.0436 -0.1614
59586SOL    HW196750   5.004   3.985  13.632  0.5559 -0.6784 -0.4329
59586SOL    HW296751   4.885   3.892  13.648  0.8542 -1.0233 -0.2026
59587SOL     OW96752   9.162   9.433  10.002 -0.8009  0.6632 -0.0820
59587SOL    HW196753   9.105   9.416   9.927  0.2463  0.2016 -0.7974
59587SOL    HW296754   9.108   9.485  10.062 -1.1222  2.5532 -1.8982
59588SOL     OW96755  11.215   6.831  11.107 -0.4458 -0.2534 -0.2926
59588SOL    HW196756  11.243   6.887  11.034 -0.7132 -0.7840 -0.8138
59588SOL    HW296757  11.138   6.874  11.142 -0.7157 -0.3417 -0.7644
59589SOL     OW96758  13.825  11.308   7.637 -0.1942 -0.2030 -0.2939
59589SOL    HW196759  13.893  11.270   7.582  0.6566  1.4056 -0.4054
59589SOL    HW296760  13.837  11.402   7.628 -2.3565  0.1344 -0.1980
59590SOL     OW96761   4.044   7.415  13.586 -0.1621  0.2880  0.2658
59590SOL    HW196762   3.974   7.362  13.624  0.4467 -0.3085  0.5788
59590SOL    HW296763   4.093   7.448  13.661  0.4585 -0.0887  0.0419
59591SOL     OW96764   1.437   9.652   5.084  0.1497  0.1135  0.6384
59591SOL    HW196765   1.488   9.575   5.057  0.1230 -0.6935  2.6680
59591SOL    HW296766   1.346   9.622   5.084  0.0283  0.4792  0.3819
59592SOL     OW96767  13.578   8.075   7.122  0.4292  0.6426 -0.3198
59592SOL    HW196768  13.646   8.014   7.095  2.2925  2.2632  0.4052
59592SOL    HW296769  13.519   8.081   7.047  1.1569 -0.7043 -1.0299
59593SOL     OW96770   8.501   6.857   7.717  0.4694  0.4575 -0.0367
59593SOL    HW196771   8.480   6.878   7.626 -0.3962 -0.4023 -0.0560
59593SOL    HW296772   8.572   6.917   7.740 -0.1638  1.5657 -0.8736
59594SOL     OW96773  13.127   7.125   8.825  0.0606  0.1024 -0.2781
59594SOL    HW196774  13.165   7.167   8.902  0.0458  1.1705 -0.8393
59594SOL    HW296775  13.144   7.186   8.753 -0.3773 -0.6382 -1.0307
59595SOL     OW96776   6.465  11.818   8.875  0.2004 -0.1212 -0.3146
59595SOL    HW196777   6.535  11.752   8.882  0.9166  0.7416  1.3230
59595SOL    HW296778   6.418  11.811   8.958 -0.5786  0.4895 -0.6982
59596SOL     OW96779  13.088  10.004   4.544 -0.0138  0.0462 -0.0330
59596SOL    HW196780  13.119  10.093   4.562 -0.0179 -0.2302  1.4898
59596SOL    HW296781  13.017   9.991   4.608  1.4077 -1.7966  1.2779
59597SOL     OW96782   8.312   9.434   9.978  0.1143 -0.1737 -0.8741
59597SOL    HW196783   8.316   9.529   9.983 -0.3502 -0.2365  2.0814
59597SOL    HW296784   8.402   9.405   9.993  0.3633 -0.2369 -2.3370
59598SOL     OW96785   2.474   8.640   4.914 -0.7141  0.1632  0.1723
59598SOL    HW196786   2.501   8.696   4.987 -1.1728  0.0778  0.4138
59598SOL    HW296787   2.511   8.554   4.934 -0.2042  0.3211 -0.0814
59599SOL     OW96788   2.427   1.550  10.232 -0.8244 -0.2007 -0.1084
59599SOL    HW196789   2.445   1.603  10.154 -2.6733 -0.1482 -0.5520
59599SOL    HW296790   2.435   1.460  10.201  0.1297 -0.1926  0.0889
59600SOL     OW96791   1.528   4.684   1.892  0.4109  0.3539 -0.8382
59600SOL    HW196792   1.496   4.765   1.853 -1.4726  0.6685  1.2063
59600SOL    HW296793   1.451   4.628   1.898  0.3755  0.5591  2.8569
59601SOL     OW96794  11.179  10.095   5.537  0.1801 -0.5014 -0.3881
59601SOL    HW196795  11.187  10.095   5.441  0.1345  2.7021 -0.5015
59601SOL    HW296796  11.097  10.048   5.553  0.3569 -1.3980 -1.8784
59602SOL     OW96797   1.909   0.598   4.607  0.5343 -0.1733  0.0859
59602SOL    HW196798   1.887   0.668   4.546  0.6772  0.5732  0.8792
59602SOL    HW296799   1.824   0.565   4.636  0.4482  0.7430  0.9131
59603SOL     OW96800   9.815  11.691   3.156 -0.3127 -0.2043  0.5522
59603SOL    HW196801   9.720  11.697   3.141 -0.4927 -0.7055  1.4566
59603SOL    HW296802   9.832  11.750   3.229 -0.1414 -1.1210  1.2681
59604SOL     OW96803  10.891   1.491  10.273  0.3024 -0.0654  0.4357
59604SOL    HW196804  10.813   1.436  10.283 -0.4084  0.2336 -2.5273
59604SOL    HW296805  10.952   1.438  10.222 -0.6049  1.8639 -2.9693
59605SOL     OW96806   1.996   0.052   7.348 -0.2990 -0.3509 -0.3737
59605SOL    HW196807   2.091   0.038   7.354 -0.4135 -1.2209 -0.4611
59605SOL    HW296808   1.959  -0.036   7.351 -1.2263  0.0418  1.5331
59606SOL     OW96809   3.165   6.161  14.125  0.2951  0.2691 -0.3745
59606SOL    HW196810   3.114   6.118  14.057  1.2471 -1.0585 -0.3064
59606SOL    HW296811   3.246   6.187  14.081  0.9537 -0.6760  0.2412
59607SOL     OW96812   3.486  11.610   5.928 -0.7378 -0.6056 -0.0434
59607SOL    HW196813   3.561  11.551   5.938 -0.0364  0.2541 -0.0673
59607SOL    HW296814   3.456  11.625   6.018 -1.1056 -1.2308 -0.0605
59608SOL     OW96815   4.176   4.914   6.262  0.1704 -0.4841 -0.1899
59608SOL    HW196816   4.113   4.881   6.198 -0.0435 -1.0668  0.3185
59608SOL    HW296817   4.123   4.947   6.334  0.4477 -2.3693  0.9298
59609SOL     OW96818   9.110   6.485   2.776 -0.0702  0.1040 -0.1663
59609SOL    HW196819   9.146   6.425   2.711  2.5740  1.0134  0.3092
59609SOL    HW296820   9.186   6.532   2.809 -1.5241  0.8858  2.3647
59610SOL     OW96821   0.634   6.930   2.410 -0.2240 -0.4208  0.3790
59610SOL    HW196822   0.552   6.881   2.414 -0.3254 -0.2877  0.0467
59610SOL    HW296823   0.627   6.995   2.480 -0.0137 -0.9893  0.9308
59611SOL     OW96824  13.700   7.708   8.203 -0.1661  0.2175 -0.1912
59611SOL    HW196825  13.690   7.742   8.113  0.7081  1.2165  0.0558
59611SOL    HW296826  13.764   7.768   8.243  0.0026 -0.6513  0.8733
59612SOL     OW96827  12.664   4.324   4.538  0.2371 -0.3321  0.5316
59612SOL    HW196828  12.639   4.319   4.446  2.9564 -0.1317 -0.3274
59612SOL    HW296829  12.696   4.414   4.548 -0.1512 -0.3168  1.7298
59613SOL     OW96830   3.503   7.705   9.673  0.3507  0.0600 -0.7583
59613SOL    HW196831   3.594   7.676   9.676  1.3297  2.6555 -2.1634
59613SOL    HW296832   3.468   7.687   9.760  0.3505 -6.1096 -1.6339
59614SOL     OW96833  12.198   3.321   3.550  0.2509 -0.1175 -0.0201
59614SOL    HW196834  12.150   3.359   3.624  0.6843  1.9424 -0.7086
59614SOL    HW296835  12.137   3.325   3.477  0.1591 -1.1992 -0.0063
59615SOL     OW96836  13.270  12.053   6.831 -0.1338 -0.1250  0.1589
59615SOL    HW196837  13.189  12.048   6.882  0.1835  0.3964  0.7277
59615SOL    HW296838  13.305  12.140   6.850  1.0200 -0.6687  0.6447
59616SOL     OW96839   6.890   7.463   5.972 -0.0120 -0.4326 -0.1146
59616SOL    HW196840   6.882   7.553   5.939 -0.7344 -0.2867  0.4546
59616SOL    HW296841   6.972   7.432   5.934 -0.6125 -0.1342 -1.7556
59617SOL     OW96842   0.056  13.047   8.836 -0.2650  0.3269 -0.6288
59617SOL    HW196843   0.058  13.132   8.879  0.3891  0.0277 -0.0455
59617SOL    HW296844  -0.032  13.013   8.854  0.4580 -0.4300  1.7989
59618SOL     OW96845  14.058   9.925   6.818 -0.5251  0.2299 -0.0476
59618SOL    HW196846  14.113   9.888   6.750 -0.3645 -1.0370  0.7369
59618SOL    HW296847  13.982   9.960   6.771 -1.3869 -2.3972 -0.7466
59619SOL     OW96848  13.441   8.011   9.407  0.3103  0.5254  0.5709
59619SOL    HW196849  13.460   8.092   9.360 -1.1237  0.4082 -0.2623
59619SOL    HW296850  13.367   7.973   9.361  0.5711 -0.9710  1.3153
59620SOL     OW96851   8.871   0.070  11.081 -0.5898 -0.0086  0.3064
59620SOL    HW196852   8.899   0.038  11.166  2.3479 -0.0676 -0.5452
59620SOL    HW296853   8.920   0.152  11.070  1.3379 -1.3317 -2.3286
59621SOL     OW96854  13.083  12.207   8.733  0.5863 -0.2786 -0.7581
59621SOL    HW196855  13.177  12.220   8.719  0.4707 -0.9572 -2.3459
59621SOL    HW296856  13.042  12.273   8.677  0.0943  0.1531  0.0888
59622SOL     OW96857   0.541   2.336   7.253  0.5952 -0.1159  0.0819
59622SOL    HW196858   0.625   2.301   7.284 -0.0220 -1.4358  0.3192
59622SOL    HW296859   0.475   2.286   7.300 -0.3667 -0.7174 -1.7996
59623SOL     OW96860   0.656   0.513   7.344  0.7607 -0.0655  0.8878
59623SOL    HW196861   0.714   0.437   7.353  0.5988 -0.0774  1.9214
59623SOL    HW296862   0.568   0.476   7.348  0.6809  0.1455  1.1176
59624SOL     OW96863  12.888   5.393  11.977 -0.2635  0.0586 -0.3454
59624SOL    HW196864  12.910   5.445  12.054  0.3975  0.3575 -0.7255
59624SOL    HW296865  12.884   5.457  11.906  3.0812 -0.6347 -1.3426
59625SOL     OW96866   1.921  11.545  10.135  0.1497 -0.4426 -0.3677
59625SOL    HW196867   1.880  11.560  10.221  0.2133 -0.3185 -0.3584
59625SOL    HW296868   1.863  11.483  10.092  0.3489 -0.8389 -0.0684
59626SOL     OW96869   2.666   7.633   8.506  0.0142 -0.2598  0.3401
59626SOL    HW196870   2.586   7.613   8.457  0.3903 -4.2476  0.9954
59626SOL    HW296871   2.737   7.616   8.445  0.3913 -0.8334  0.9172
59627SOL     OW96872  14.083  13.642  12.175 -0.3857 -0.2917 -0.4209
59627SOL    HW196873  14.116  13.668  12.090  0.3465  0.4525  0.0781
59627SOL    HW296874  14.094  13.547  12.178  4.2013  0.0696  0.6845
59628SOL     OW96875  13.757   3.238  12.082  0.0966 -0.5207  0.2835
59628SOL    HW196876  13.838   3.265  12.127  0.1658 -0.2147 -0.0156
59628SOL    HW296877  13.713   3.180  12.144  1.8860 -3.0112 -0.5980
59629SOL     OW96878  12.417  13.193  10.424 -0.2063  0.2272 -0.5247
59629SOL    HW196879  12.321  13.191  10.428 -0.2057  0.9525  0.0529
59629SOL    HW296880  12.444  13.203  10.515  0.5085 -2.2850 -0.3988
59630SOL     OW96881  11.146   2.162   4.875 -0.0571 -0.1203 -0.0519
59630SOL    HW196882  11.152   2.189   4.784  1.3620 -0.9500 -0.2325
59630SOL    HW296883  11.059   2.124   4.883 -0.0188 -0.4808 -1.1847
59631SOL     OW96884   0.883  11.770  12.513  0.3115 -0.6651  0.2094
59631SOL    HW196885   0.952  11.766  12.578 -0.4232 -2.7314  0.9679
59631SOL    HW296886   0.924  11.806  12.435  1.4531  0.9379  1.5079
59632SOL     OW96887   1.009   0.452   7.492 -0.4542 -0.0931 -0.3235
59632SOL    HW196888   1.062   0.412   7.562 -0.2847  0.5860 -0.0580
59632SOL    HW296889   1.017   0.546   7.506  0.5059  0.1085 -1.9303
59633SOL     OW96890   7.896   5.246  12.917  0.3218 -0.6031 -0.5884
59633SOL    HW196891   7.950   5.171  12.944  1.5683  0.3942 -0.2138
59633SOL    HW296892   7.821   5.244  12.976  0.9930 -0.8263  0.2837
59634SOL     OW96893  10.561   9.833   6.426  0.4517 -0.1328 -0.3553
59634SOL    HW196894  10.466   9.831   6.438  0.5520  1.2399  0.8360
59634SOL    HW296895  10.583   9.744   6.397 -0.9838 -0.9750  1.0103
59635SOL     OW96896  11.192   3.560   1.711  0.0567 -0.1459 -0.5173
59635SOL    HW196897  11.165   3.650   1.727 -0.7703 -0.7465  1.9636
59635SOL    HW296898  11.195   3.552   1.616 -0.9511  2.1731 -0.8092
59636SOL     OW96899  12.401  10.381  12.889  0.1554  0.1620  0.3721
59636SOL    HW196900  12.386  10.466  12.846  1.1499  0.4280  0.5203
59636SOL    HW296901  12.468  10.400  12.955  0.1178 -0.6692  0.6531
59637SOL     OW96902   0.716   9.758   0.420  0.5667 -0.8649  0.1968
59637SOL    HW196903   0.690   9.838   0.373  3.5183  1.5060  2.2313
59637SOL    HW296904   0.674   9.767   0.506  2.0756 -0.6951  0.9450
59638SOL     OW96905   8.772  12.589  13.849 -0.2776 -0.4612  0.3015
59638SOL    HW196906   8.841  12.607  13.913  0.8770  0.6328 -1.1825
59638SOL    HW296907   8.743  12.500  13.870  0.8612 -0.5642  1.6130
59639SOL     OW96908   2.133   8.140  11.971  0.4974  0.2284 -0.3817
59639SOL    HW196909   2.064   8.175  11.915  0.3013  0.7735  0.1922
59639SOL    HW296910   2.209   8.195  11.952  0.4328  0.4087 -0.1202
59640SOL     OW96911   3.351   7.160   3.927  0.4628 -0.1752  0.3727
59640SOL    HW196912   3.357   7.251   3.956 -0.2667 -0.3642  1.1238
59640SOL    HW296913   3.426   7.117   3.968 -0.6567 -0.4820  2.1973
59641SOL     OW96914   7.279  10.960   0.109 -0.3293  0.0241 -0.7408
59641SOL    HW196915   7.268  10.935   0.017 -1.6280  0.2784 -0.6709
59641SOL    HW296916   7.373  10.972   0.119 -0.2210  0.6589 -2.2210
59642SOL     OW96917   0.898   6.350   8.375 -0.1044  0.4533 -0.0311
59642SOL    HW196918   0.895   6.275   8.315  0.9053  1.1910 -1.0405
59642SOL    HW296919   0.933   6.313   8.456 -1.0788 -0.4709 -0.0006
59643SOL     OW96920   5.094  12.612  13.171  0.7521 -0.0799  0.7233
59643SOL    HW196921   5.130  12.623  13.083  0.4992  0.7088  0.7124
59643SOL    HW296922   5.147  12.542  13.210  0.9226 -0.3679 -0.0176
59644SOL     OW96923   8.598   9.680  14.014  0.2801  0.2847  0.2113
59644SOL    HW196924   8.538   9.745  14.051 -1.4611 -0.9855 -0.2703
59644SOL    HW296925   8.551   9.597  14.020  1.5319 -0.5837 -1.2393
59645SOL     OW96926   9.228   1.515   5.278 -0.1355 -0.4496 -0.4327
59645SOL    HW196927   9.246   1.427   5.245 -0.1878 -0.4045 -0.5824
59645SOL    HW296928   9.189   1.501   5.365 -0.4534 -0.5876 -0.5955
59646SOL     OW96929  11.732  11.079   6.164  0.4544  0.3507 -0.0250
59646SOL    HW196930  11.739  11.160   6.112  0.3743  1.2422  1.3051
59646SOL    HW296931  11.823  11.059   6.188  0.2899  1.4443  1.6689
59647SOL     OW96932   3.866   3.818   0.646 -0.2864 -0.6676  0.6513
59647SOL    HW196933   3.870   3.860   0.561  0.0753 -1.6362  0.1731
59647SOL    HW296934   3.830   3.885   0.705  1.8335  0.8667  0.2933
59648SOL     OW96935  13.860   9.171   3.208 -0.1731  0.2372 -0.1116
59648SOL    HW196936  13.921   9.207   3.272  0.4839  0.1361 -0.6567
59648SOL    HW296937  13.773   9.197   3.239  0.2126  1.3242  0.1038
59649SOL     OW96938   1.979   1.979   0.326  0.4154 -0.0690  0.4838
59649SOL    HW196939   2.056   2.031   0.302 -0.3985  0.6936 -0.5487
59649SOL    HW296940   2.016   1.903   0.371  1.9301 -0.6127 -1.5202
59650SOL     OW96941   3.734   8.935   5.499  0.3941  0.1649 -0.0156
59650SOL    HW196942   3.726   8.992   5.422  0.7756 -1.4160 -1.2878
59650SOL    HW296943   3.724   8.994   5.573  0.9870  1.9222 -1.2509
59651SOL     OW96944   8.704   5.822  12.683  0.2184  0.1333 -0.1210
59651SOL    HW196945   8.788   5.782  12.664  1.0250  1.4237  0.5523
59651SOL    HW296946   8.643   5.784  12.620  1.5069 -0.1173 -1.2385
59652SOL     OW96947   9.917  13.614   6.564  0.6407  0.6977  0.2847
59652SOL    HW196948   9.967  13.693   6.584  1.1995  0.4491 -0.0840
59652SOL    HW296949   9.906  13.616   6.469  2.2262 -0.5436  0.0226
59653SOL     OW96950   4.570   0.402   0.756 -0.1074  0.2181 -0.0345
59653SOL    HW196951   4.512   0.475   0.735  0.3830  0.1321 -1.9120
59653SOL    HW296952   4.657   0.432   0.729  1.1264  0.9149  4.0661
59654SOL     OW96953   6.571   9.554   5.682 -0.0857 -0.0136 -0.5844
59654SOL    HW196954   6.575   9.589   5.594  0.8643 -0.6565 -0.8041
59654SOL    HW296955   6.532   9.467   5.671  0.8320 -0.4425 -0.4835
59655SOL     OW96956  12.770   8.551  13.914 -0.3019  0.3884  0.4812
59655SOL    HW196957  12.724   8.634  13.901 -2.4108 -0.4541  2.0084
59655SOL    HW296958  12.847   8.573  13.966  0.9057  1.7676 -1.7279
59656SOL     OW96959  11.917  13.670  12.654  0.1721 -0.2644  0.2449
59656SOL    HW196960  11.979  13.734  12.620 -1.3851  1.1036 -0.1563
59656SOL    HW296961  11.889  13.706  12.739  1.1271 -1.7001  1.2085
59657SOL     OW96962  13.674  12.047   4.024 -0.6621  0.1787  0.1065
59657SOL    HW196963  13.740  12.042   4.093 -1.2538  0.2222  0.6787
59657SOL    HW296964  13.695  12.128   3.977 -0.5105  0.3711  0.4984
59658SOL     OW96965   9.426   3.248   7.261 -0.6660  0.0906 -0.5112
59658SOL    HW196966   9.401   3.248   7.354  0.6235  3.4758 -0.0104
59658SOL    HW296967   9.494   3.180   7.255 -1.5212 -0.9328  0.7552
59659SOL     OW96968   4.347   5.536  12.440  0.0796 -0.1354  0.0096
59659SOL    HW196969   4.436   5.564  12.421  0.1427  1.6561  2.4620
59659SOL    HW296970   4.357   5.472  12.511 -0.5179 -1.3752 -0.9836
59660SOL     OW96971   8.492   4.391  13.447  0.1718  0.2371  0.7403
59660SOL    HW196972   8.566   4.330  13.446  1.5007  1.5969  3.4466
59660SOL    HW296973   8.521   4.464  13.391  0.5670  0.4221  1.1791
59661SOL     OW96974   0.829   6.254   8.848  0.4933  0.8450  0.1709
59661SOL    HW196975   0.768   6.184   8.823  0.6784  0.5500  0.5310
59661SOL    HW296976   0.781   6.335   8.830 -0.6416  0.6315  1.9068
59662SOL     OW96977   7.145   6.380  12.556  0.1034  0.5820  0.3734
59662SOL    HW196978   7.190   6.305  12.595 -1.4515  0.6412  2.4442
59662SOL    HW296979   7.196   6.456  12.583  0.7367  0.4169 -0.3180
59663SOL     OW96980   5.635   3.576   7.578 -0.0318  0.5759 -0.4431
59663SOL    HW196981   5.619   3.666   7.607 -0.6715  0.8583 -1.6281
59663SOL    HW296982   5.575   3.563   7.505  0.7126 -0.5037 -0.8847
59664SOL     OW96983   0.978  13.791   7.552 -0.5155  0.5432 -0.3203
59664SOL    HW196984   1.043  13.830   7.610 -0.4566  0.3500 -0.2529
59664SOL    HW296985   1.027  13.768   7.473 -0.7346  1.4083 -0.7075
59665SOL     OW96986   2.757   3.699   1.101  0.3337 -0.3676 -0.2426
59665SOL    HW196987   2.692   3.767   1.091 -0.3204 -1.0532 -0.7356
59665SOL    HW296988   2.747   3.644   1.023  0.7433 -1.1067  0.2154
59666SOL     OW96989  10.148   3.990  11.358 -0.2335 -0.0924 -0.5501
59666SOL    HW196990  10.138   3.907  11.312  1.8629 -0.1922 -0.9281
59666SOL    HW296991  10.144   3.967  11.451  1.9414 -0.9249 -0.6124
59667SOL     OW96992   6.809   4.999   2.181  0.7518  0.0497 -0.1150
59667SOL    HW196993   6.774   5.018   2.268 -1.1193  1.5989 -1.1424
59667SOL    HW296994   6.732   4.976   2.129  1.6612  0.4352 -1.6812
59668SOL     OW96995   4.406   4.137   9.585 -0.1048 -0.3291  0.5525
59668SOL    HW196996   4.470   4.104   9.522  1.4384  2.3884  0.5385
59668SOL    HW296997   4.440   4.110   9.670  1.7063  1.8526  0.6147
59669SOL     OW96998  13.258   0.381   1.170  0.1705  0.0841  0.5009
59669SOL    HW196999  13.271   0.458   1.225 -1.2252  0.9048 -0.2523
59669SOL    HW297000  13.346   0.359   1.138  1.3343 -1.4453  4.2613
59670SOL     OW97001   9.845   9.083   1.424  0.0599 -0.1636  0.1710
59670SOL    HW197002   9.786   9.099   1.498  0.3668 -1.5901  0.7589
59670SOL    HW297003   9.928   9.059   1.465 -0.4568 -3.6394 -0.5103
59671SOL     OW97004  11.988   6.370  12.722 -0.4137 -0.3461 -0.0211
59671SOL    HW197005  11.907   6.421  12.725 -0.8010 -0.8636 -0.9994
59671SOL    HW297006  12.032   6.389  12.804 -0.3510  1.8736 -0.5128
59672SOL     OW97007   5.648  13.320   8.711  0.0256  0.3470  0.7544
59672SOL    HW197008   5.647  13.229   8.682  1.7266  0.9492 -1.5829
59672SOL    HW297009   5.739  13.335   8.736 -0.0326  1.6168  0.2539
59673SOL     OW97010   4.419   7.851  11.110 -0.1117 -0.3099 -0.0358
59673SOL    HW197011   4.466   7.815  11.035  1.9885  0.6443  0.7603
59673SOL    HW297012   4.439   7.792  11.183 -0.1655  0.0848  0.3050
59674SOL     OW97013  13.232   6.406   6.630 -0.1031 -0.7637 -0.1373
59674SOL    HW197014  13.235   6.494   6.669 -0.4738 -0.4318 -0.8274
59674SOL    HW297015  13.139   6.392   6.612 -0.2125 -1.8334  1.1190
59675SOL     OW97016  14.111  13.720   9.452 -0.1202  0.2095  0.2102
59675SOL    HW197017  14.169  13.763   9.514 -2.1556  2.0012  0.9896
59675SOL    HW297018  14.137  13.755   9.366  0.8617 -0.1314  0.3585
59676SOL     OW97019   7.438   1.431  13.430  0.5414 -0.2522 -0.6903
59676SOL    HW197020   7.439   1.367  13.359  4.1693 -0.8265 -0.3188
59676SOL    HW297021   7.529   1.434  13.461 -0.4761  1.4313  2.6278
59677SOL     OW97022   4.542   9.634   8.959  0.4800  0.0700  0.4578
59677SOL    HW197023   4.526   9.567   9.026  0.9650 -1.3633 -0.8166
59677SOL    HW297024   4.636   9.627   8.940  0.2778  0.1892 -0.6336
59678SOL     OW97025   7.957  12.408   6.517 -0.3062  0.0729 -0.7024
59678SOL    HW197026   7.921  12.335   6.567  0.7112  0.9949  1.4691
59678SOL    HW297027   7.881  12.464   6.500 -0.4477  0.5298  1.2411
59679SOL     OW97028   3.650   5.409   9.756  0.3565  0.0353 -0.5666
59679SOL    HW197029   3.640   5.501   9.734  1.7489  0.2721 -0.2916
59679SOL    HW297030   3.720   5.377   9.699  1.0710 -0.4024  0.5142
59680SOL     OW97031   2.097   6.331   5.745  0.4199 -0.3186 -0.2238
59680SOL    HW197032   2.012   6.290   5.760  0.5117 -0.1464  0.8777
59680SOL    HW297033   2.141   6.327   5.831  2.0332 -1.5617 -1.0495
59681SOL     OW97034   0.665   6.857   4.995  0.2835 -0.1254 -0.6716
59681SOL    HW197035   0.575   6.827   4.986  0.1215 -0.1856  0.9723
59681SOL    HW297036   0.662   6.951   4.974 -0.3609  0.0943  0.3460
59682SOL     OW97037   9.290   9.854   0.470 -0.5872 -0.2944  0.5582
59682SOL    HW197038   9.238   9.857   0.550  1.3469 -0.3582  1.8630
59682SOL    HW297039   9.342   9.934   0.471  0.5087 -0.9804  0.1051
59683SOL     OW97040   0.909  13.061   3.214 -0.0005 -0.0624 -0.0292
59683SOL    HW197041   0.876  12.980   3.253  1.3247 -0.4869  0.2549
59683SOL    HW297042   0.830  13.106   3.182 -1.1860  0.3766  3.2059
59684SOL     OW97043   2.748   3.947   0.647 -0.0358 -0.1773 -0.1729
59684SOL    HW197044   2.763   3.887   0.574 -0.1983 -0.5905  0.1314
59684SOL    HW297045   2.813   4.017   0.635  1.8561 -1.6643  0.8551
59685SOL     OW97046   1.041   1.701  10.962 -0.3537 -0.5319 -0.6917
59685SOL    HW197047   0.997   1.777  10.924 -1.5823 -0.9903 -0.2074
59685SOL    HW297048   0.999   1.687  11.046  0.1315 -1.5037 -0.5904
59686SOL     OW97049  11.545  10.746   6.436  0.3820 -0.2400  0.3602
59686SOL    HW197050  11.482  10.709   6.375  1.6165 -0.0792 -1.0542
59686SOL    HW297051  11.571  10.829   6.397  1.1553 -0.1058  1.1255
59687SOL     OW97052  12.047  13.608   2.637 -0.1165 -0.0702 -0.5058
59687SOL    HW197053  12.077  13.541   2.698 -0.0134  1.2534  0.9608
59687SOL    HW297054  12.124  13.631   2.585  0.6899  1.0523  1.0866
59688SOL     OW97055   6.669   7.995   3.411 -0.3528  0.2128  0.2105
59688SOL    HW197056   6.628   8.033   3.489 -0.7906 -0.6131  0.3944
59688SOL    HW297057   6.690   8.071   3.356  0.3750  0.8383  1.3125
59689SOL     OW97058   5.651  13.591  13.991  0.1357 -0.5031 -0.9744
59689SOL    HW197059   5.736  13.611  14.028  0.4261 -0.5373 -1.6068
59689SOL    HW297060   5.639  13.654  13.920 -0.5242 -0.2657 -0.6620
59690SOL     OW97061   8.429   9.849  12.352 -0.4263 -0.0753 -0.1476
59690SOL    HW197062   8.486   9.806  12.417  0.1271 -0.7522 -1.0574
59690SOL    HW297063   8.470   9.934  12.338 -0.0017 -0.2989 -0.3019
59691SOL     OW97064  12.401  10.573   0.801 -0.3015 -0.9455 -0.7033
59691SOL    HW197065  12.475  10.516   0.822  1.0334 -0.0699 -2.6660
59691SOL    HW297066  12.365  10.537   0.720  0.1159  0.5191 -1.5786
59692SOL     OW97067   0.867   0.227  11.774 -0.4559  0.0923  0.5928
59692SOL    HW197068   0.950   0.181  11.784 -0.1339  0.4633 -0.2325
59692SOL    HW297069   0.800   0.161  11.791  0.0007 -0.4655  0.2530
59693SOL     OW97070  13.625   9.074   8.832 -0.1638  0.2960 -0.4473
59693SOL    HW197071  13.571   9.039   8.903 -0.6173  0.6539 -0.6050
59693SOL    HW297072  13.592   9.030   8.754 -1.2861  1.6163 -0.7647
59694SOL     OW97073   9.351   3.337   7.551  0.7399  0.2501 -0.3527
59694SOL    HW197074   9.441   3.342   7.581  0.7096 -0.6377 -0.0737
59694SOL    HW297075   9.299   3.380   7.619  0.9341  0.6702 -0.4663
59695SOL     OW97076   7.375   5.446   3.696  0.4385  0.2210  0.3173
59695SOL    HW197077   7.372   5.380   3.626  0.4924 -0.8105  1.2653
59695SOL    HW297078   7.457   5.428   3.742 -0.0131  0.3259  1.1821
59696SOL     OW97079   9.578   5.809  10.416 -0.3306  0.2673 -0.0531
59696SOL    HW197080   9.614   5.893  10.387  1.6511 -1.0360 -1.6771
59696SOL    HW297081   9.635   5.781  10.487  0.3602 -0.6188 -0.9168
59697SOL     OW97082   1.281   1.585   5.416  0.3200 -0.0541  0.0529
59697SOL    HW197083   1.290   1.521   5.345  0.4695 -0.9545  0.8586
59697SOL    HW297084   1.303   1.536   5.496 -2.7017  0.1077  1.0956
59698SOL     OW97085   5.072  13.603   6.144  0.4364 -0.4429  0.4346
59698SOL    HW197086   5.141  13.555   6.099  2.2236  1.8462  0.5123
59698SOL    HW297087   5.077  13.573   6.235  1.5702 -0.0989  0.5013
59699SOL     OW97088  11.123  10.193   0.719  0.3763  0.0773  0.3805
59699SOL    HW197089  11.115  10.259   0.788  2.4350  0.6099  0.2026
59699SOL    HW297090  11.178  10.124   0.758  2.3866  0.8242 -0.9279
59700SOL     OW97091   4.035   9.750   5.197 -0.2947  0.5651  0.0206
59700SOL    HW197092   4.003   9.681   5.255 -0.6775 -0.0233 -0.8542
59700SOL    HW297093   3.957   9.802   5.177  0.1324  1.7543  1.2957
59701SOL     OW97094   6.750  12.499   2.994 -0.0278  0.1419 -0.0055
59701SOL    HW197095   6.819  12.480   3.058  1.3269  0.8500 -1.2028
59701SOL    HW297096   6.670  12.500   3.045  0.9509  0.2010  1.5998
59702SOL     OW97097   9.001   4.061  11.216 -0.6529 -0.4659 -0.0463
59702SOL    HW197098   9.001   4.155  11.236 -1.9699  0.2796 -3.0030
59702SOL    HW297099   8.937   4.024  11.276 -3.0628  1.2933 -1.3626
59703SOL     OW97100   4.744  10.875   8.230 -0.3225  0.1730 -0.0113
59703SOL    HW197101   4.682  10.820   8.182 -0.6268 -0.8130  1.4437
59703SOL    HW297102   4.763  10.826   8.309  2.1341  0.5662 -0.2747
59704SOL     OW97103   6.683   0.535   4.264  0.2232  0.5853  0.0416
59704SOL    HW197104   6.623   0.466   4.292 -0.3748  0.8843 -0.4763
59704SOL    HW297105   6.660   0.610   4.319 -0.2225  0.8482 -0.4945
59705SOL     OW97106   0.286   8.964   9.493  0.1761 -0.3827  0.7911
59705SOL    HW197107   0.269   8.876   9.528  1.4156  0.0764  2.7015
59705SOL    HW297108   0.361   8.951   9.433  0.4581 -0.6121  1.1871
59706SOL     OW97109   9.052   0.619   3.240 -0.5371 -0.2335 -0.6929
59706SOL    HW197110   9.010   0.703   3.259 -0.1401  0.0101 -0.8930
59706SOL    HW297111   8.998   0.555   3.287  0.2452  0.3154  1.0496
59707SOL     OW97112   7.937   2.165  12.359  0.0655 -0.3721 -0.3807
59707SOL    HW197113   7.970   2.231  12.420  2.3039 -1.9141  0.2211
59707SOL    HW297114   7.912   2.215  12.281 -0.2367  1.3500  0.7629
59708SOL     OW97115  12.412  13.823  11.696 -0.6091  0.2168 -0.1448
59708SOL    HW197116  12.366  13.869  11.766 -2.3603 -0.0950 -1.0370
59708SOL    HW297117  12.344  13.803  11.632  0.9867  0.9175 -2.1904
59709SOL     OW97118   2.673  13.685   6.599 -0.1559 -0.1663 -0.2512
59709SOL    HW197119   2.715  13.747   6.659 -0.4406  0.5307 -0.7554
59709SOL    HW297120   2.742  13.622   6.577  0.2861  0.2705 -0.1269
59710SOL     OW97121   6.267   5.999  10.700  0.0520  0.0132 -0.0618
59710SOL    HW197122   6.320   5.942  10.755 -1.0647 -1.5845 -0.5833
59710SOL    HW297123   6.295   5.979  10.610  0.8660  1.5780 -0.1988
59711SOL     OW97124  10.239   1.430  12.894  0.0570 -0.4193 -0.2574
59711SOL    HW197125  10.287   1.512  12.883  0.5471 -0.7822 -0.8601
59711SOL    HW297126  10.305   1.365  12.917 -0.4059 -0.5393  0.8171
59712SOL     OW97127   3.794   3.918  10.658 -0.1101  0.0841  0.5023
59712SOL    HW197128   3.805   4.011  10.678 -1.2416  0.4810 -0.5561
59712SOL    HW297129   3.881   3.889  10.630 -0.0897  1.2739 -0.7926
59713SOL     OW97130   6.314   6.671   0.584  0.2788  0.2349 -0.5205
59713SOL    HW197131   6.245   6.732   0.560 -0.0634 -0.2428 -0.7647
59713SOL    HW297132   6.333   6.622   0.504  0.1848 -0.3342 -0.1990
59714SOL     OW97133   9.823   7.207  10.683  0.2945 -0.3131  0.0100
59714SOL    HW197134   9.728   7.216  10.691  0.2310 -1.3624  0.6183
59714SOL    HW297135   9.847   7.272  10.618 -0.8165  0.1137 -0.0074
59715SOL     OW97136   6.612   6.266  13.704  0.0481 -0.7553 -0.1984
59715SOL    HW197137   6.570   6.348  13.731  3.2077  1.2368 -0.8138
59715SOL    HW297138   6.579   6.201  13.766 -1.3051  1.3171  1.4191
59716SOL     OW97139   0.950   9.846   6.285 -0.4543  0.9891  0.2146
59716SOL    HW197140   0.976   9.913   6.348  2.0182  0.7178 -0.4290
59716SOL    HW297141   0.994   9.870   6.204 -0.2853 -0.8399 -0.2914
59717SOL     OW97142   8.520   4.660   6.155 -0.5457  0.6233  0.1073
59717SOL    HW197143   8.452   4.701   6.102 -0.2997  2.0340  0.8291
59717SOL    HW297144   8.565   4.734   6.197  0.0686 -0.3877  1.2825
59718SOL     OW97145   0.575   1.055   0.667 -0.2707  0.0661 -0.0608
59718SOL    HW197146   0.504   1.085   0.723  0.0138  1.6066 -0.4941
59718SOL    HW297147   0.651   1.052   0.724  0.3466  3.0012 -0.5682
59719SOL     OW97148  13.124   4.938   3.198 -0.4485 -0.0094 -0.3522
59719SOL    HW197149  13.067   4.980   3.262 -0.5512  0.0599 -0.4900
59719SOL    HW297150  13.155   4.859   3.243  1.5577  1.3134  0.7842
59720SOL     OW97151   3.273   5.136   4.992 -0.5926  0.2395 -0.1070
59720SOL    HW197152   3.331   5.206   4.961 -1.6085  1.3242  0.3378
59720SOL    HW297153   3.207   5.182   5.043 -2.6307 -0.7748 -1.6890
59721SOL     OW97154   6.296  12.183   0.100 -0.6309  0.2758  0.3110
59721SOL    HW197155   6.375  12.181   0.046 -0.1135  0.5926  1.0265
59721SOL    HW297156   6.228  12.143   0.046 -0.5235  1.9937 -1.1898
59722SOL     OW97157   4.711   0.623  10.976 -0.6985  0.3840 -0.1882
59722SOL    HW197158   4.799   0.647  10.945 -0.5639  0.7800  0.4632
59722SOL    HW297159   4.717   0.632  11.071 -1.3608  0.1091 -0.1189
59723SOL     OW97160   1.507   9.559  11.794  0.1090  0.5702 -0.2673
59723SOL    HW197161   1.447   9.500  11.749  0.3086 -0.0208  0.2319
59723SOL    HW297162   1.587   9.508  11.806  0.1145  0.7675  0.6146
59724SOL     OW97163   6.687   6.470  11.722  0.3052 -0.0134 -0.0282
59724SOL    HW197164   6.653   6.436  11.805  0.4775  0.7805  0.3829
59724SOL    HW297165   6.609   6.496  11.673  0.2288  0.1066  0.1540
59725SOL     OW97166  11.548  10.471   3.583 -0.1967 -0.0588  0.0513
59725SOL    HW197167  11.568  10.564   3.581  0.8542 -0.2733  0.0898
59725SOL    HW297168  11.486  10.457   3.512  1.6260  0.2301 -1.6627
59726SOL     OW97169   5.653  11.216   5.883  0.8804  0.3096  0.6331
59726SOL    HW197170   5.671  11.258   5.968  3.8685 -2.4241  1.5801
59726SOL    HW297171   5.572  11.168   5.896  1.6836 -0.6868  2.2921
59727SOL     OW97172  13.502  13.102   0.144 -0.2155 -0.0899  0.6655
59727SOL    HW197173  13.492  13.085   0.050  1.9362 -0.8980  0.5206
59727SOL    HW297174  13.442  13.174   0.162 -1.0670 -0.2690 -1.2138
59728SOL     OW97175   0.884   1.407   7.321  0.5858 -0.2591 -0.4371
59728SOL    HW197176   0.795   1.375   7.328  1.3072 -2.0811  1.5306
59728SOL    HW297177   0.934   1.335   7.284  1.4169  0.4008 -0.6510
59729SOL     OW97178   1.702  12.129   6.521  0.1673 -0.8021  0.4700
59729SOL    HW197179   1.747  12.138   6.604  0.8620 -0.6651  0.0825
59729SOL    HW297180   1.650  12.210   6.513 -0.1037 -0.9333  0.8847
59730SOL     OW97181   5.226  11.650   5.403  0.7587 -0.7445 -1.0090
59730SOL    HW197182   5.203  11.719   5.340 -0.9705 -0.9071 -0.6220
59730SOL    HW297183   5.214  11.569   5.354 -0.3036 -0.8589 -0.5919
59731SOL     OW97184   8.979   7.713   9.393  0.0591 -0.0688 -0.1607
59731SOL    HW197185   9.059   7.661   9.391 -0.3306 -0.6674 -0.2796
59731SOL    HW297186   8.938   7.697   9.308  0.3483  1.0923 -0.5398
59732SOL     OW97187   6.035  12.884  11.108  0.0871  0.2130  0.5668
59732SOL    HW197188   6.122  12.902  11.144  0.0957 -1.8869  1.7294
59732SOL    HW297189   5.992  12.829  11.174 -2.4684  1.8636  0.4176
59733SOL     OW97190   7.240   6.776   6.744  0.1065  0.7928 -0.1094
59733SOL    HW197191   7.253   6.794   6.837 -0.1556 -0.1673  0.1195
59733SOL    HW297192   7.327   6.787   6.706  0.7714 -1.2559  0.6846
59734SOL     OW97193   0.045   0.889   1.231 -0.1865  0.2282 -0.2594
59734SOL    HW197194  -0.026   0.908   1.293 -0.4637  0.7373 -0.7254
59734SOL    HW297195   0.015   0.927   1.148  0.9068  1.0258 -0.3179
59735SOL     OW97196  13.493   0.127  13.383 -0.8956  0.3704  0.7003
59735SOL    HW197197  13.409   0.109  13.423 -0.7150 -0.6525  0.6417
59735SOL    HW297198  13.543   0.046  13.393 -0.5226  0.3878 -0.7506
59736SOL     OW97199  13.151  12.414   0.074  0.2856  0.1695  0.7515
59736SOL    HW197200  13.084  12.460   0.123  0.8039  0.3409  1.3121
59736SOL    HW297201  13.141  12.322   0.099 -1.5343 -0.2823 -1.2704
59737SOL     OW97202   0.051  11.984  10.339 -0.4249 -0.0906 -0.2838
59737SOL    HW197203  -0.021  11.971  10.277  0.0636  0.8301 -1.0797
59737SOL    HW297204   0.075  12.076  10.328  0.1058 -0.0878  0.8117
59738SOL     OW97205   1.427  13.449  13.692  0.0143  0.7039 -0.2096
59738SOL    HW197206   1.373  13.522  13.723 -0.6465  0.4965 -0.8349
59738SOL    HW297207   1.431  13.462  13.597 -1.9499 -1.2692 -0.6438
59739SOL     OW97208   1.891  13.934   5.407  0.3867 -0.1497 -0.1777
59739SOL    HW197209   1.971  13.965   5.363  0.7915 -0.5438  0.2716
59739SOL    HW297210   1.820  13.968   5.353  0.8714 -0.4775 -1.0435
59740SOL     OW97211  10.924   1.204   1.324  0.1381  0.1382  0.5674
59740SOL    HW197212  10.836   1.201   1.362 -0.3728 -0.7655 -0.6103
59740SOL    HW297213  10.938   1.116   1.289  2.3548 -0.3855  2.5101
59741SOL     OW97214   2.648  11.121  13.513 -0.4451  0.0407  0.1828
59741SOL    HW197215   2.658  11.048  13.451 -1.1153 -0.1686  0.3056
59741SOL    HW297216   2.706  11.189  13.480 -1.3553  0.2242 -1.1348
59742SOL     OW97217   3.121   7.278   8.834  0.0387  0.1286 -0.2362
59742SOL    HW197218   3.179   7.340   8.789  1.3670 -0.9641 -0.0901
59742SOL    HW297219   3.107   7.318   8.921 -1.3182  1.5012 -1.0314
59743SOL     OW97220   2.016  10.924   3.242 -0.3715  0.2637  0.1778
59743SOL    HW197221   2.015  10.976   3.161  1.2554  0.4312  0.2384
59743SOL    HW297222   1.967  10.976   3.305  1.8973  2.1942  0.4808
59744SOL     OW97223   7.758   5.064   8.033 -0.2271  0.3079 -0.1090
59744SOL    HW197224   7.705   5.141   8.014  0.8960  0.7466 -1.7814
59744SOL    HW297225   7.703   4.990   8.007 -0.6744  0.6453 -0.1285
59745SOL     OW97226   6.260   8.988   0.334 -0.6199 -0.1641 -1.0642
59745SOL    HW197227   6.294   8.948   0.254  0.2262 -0.6447 -0.4786
59745SOL    HW297228   6.278   9.081   0.323  1.9950 -0.4949 -0.3076
59746SOL     OW97229   6.375   8.435  10.529  0.6824 -0.4749 -0.6343
59746SOL    HW197230   6.462   8.467  10.554  0.0622 -0.0610  1.0661
59746SOL    HW297231   6.368   8.458  10.436  1.9472  0.4860 -0.5277
59747SOL     OW97232   0.385   5.155   6.198  0.3431  1.0886  0.0908
59747SOL    HW197233   0.477   5.128   6.204  0.2212  0.9594  2.5017
59747SOL    HW297234   0.337   5.085   6.244 -0.9274  1.3946 -0.7136
59748SOL     OW97235   5.461   8.383   8.461 -0.6488  0.0452 -0.9857
59748SOL    HW197236   5.381   8.385   8.514  0.2127 -2.7104  0.6642
59748SOL    HW297237   5.432   8.349   8.376 -1.2439 -1.3668 -0.2647
59749SOL     OW97238  11.277   7.828  12.395  0.0229  0.0219 -0.2172
59749SOL    HW197239  11.356   7.775  12.383 -0.7726 -1.0636 -0.8858
59749SOL    HW297240  11.256   7.817  12.488  0.2384 -0.3027 -0.2027
59750SOL     OW97241   1.615   0.704   0.406 -0.7870 -0.2896 -0.2250
59750SOL    HW197242   1.613   0.731   0.314 -0.0890  0.9231  0.1000
59750SOL    HW297243   1.524   0.681   0.426 -0.9579 -0.4769 -1.1816
59751SOL     OW97244   2.379   2.906   8.823  0.2979  0.3294  0.6305
59751SOL    HW197245   2.296   2.875   8.861  0.7716 -1.8846  0.0071
59751SOL    HW297246   2.436   2.921   8.898 -0.0021 -0.2125  0.9741
59752SOL     OW97247  10.225  13.533   9.782 -0.0155  0.3464 -0.2073
59752SOL    HW197248  10.295  13.525   9.846  0.6816  1.3165 -0.8143
59752SOL    HW297249  10.266  13.512   9.698 -0.3034  1.4188 -0.6381
59753SOL     OW97250   5.078   4.095   1.626  0.2578 -0.2090 -0.3389
59753SOL    HW197251   5.082   4.045   1.544  0.3164 -0.6395 -0.0778
59753SOL    HW297252   5.161   4.074   1.670  0.9089  1.1903 -0.8379
59754SOL     OW97253   7.760   2.577  12.852 -0.0293 -0.3749 -0.2025
59754SOL    HW197254   7.690   2.643  12.852  1.2458  1.0216 -0.9398
59754SOL    HW297255   7.747   2.529  12.934 -1.1961  0.5456  0.1821
59755SOL     OW97256  10.282   3.807   7.125  0.3534 -0.1526 -0.8719
59755SOL    HW197257  10.337   3.815   7.203  0.4103 -1.4125 -0.7523
59755SOL    HW297258  10.323   3.866   7.061 -0.3666  1.7916  0.3768
59756SOL     OW97259   4.897  10.905   9.407  0.0654  0.0071 -0.1642
59756SOL    HW197260   4.837  10.861   9.467 -1.4416  0.0181 -1.5811
59756SOL    HW297261   4.878  10.998   9.417 -0.1198  0.0159 -0.5494
59757SOL     OW97262  10.320   5.494  10.355 -0.0196 -0.1164  0.3917
59757SOL    HW197263  10.319   5.478  10.450 -1.0431 -1.7798  0.1357
59757SOL    HW297264  10.327   5.407  10.316  2.4668  0.6467 -1.0809
59758SOL     OW97265  10.241   3.302  12.607  0.0088 -0.0059 -0.3499
59758SOL    HW197266  10.161   3.341  12.572 -2.4380 -1.6968  2.8225
59758SOL    HW297267  10.268   3.361  12.677  2.2031  1.0116 -1.9269
59759SOL     OW97268   8.303   4.717   6.017  0.1446 -0.9633  0.1632
59759SOL    HW197269   8.230   4.775   6.036  1.0046 -0.3793  1.9322
59759SOL    HW297270   8.263   4.640   5.977 -1.3230 -0.2731  0.2396
59760SOL     OW97271   9.615   0.577   7.281 -0.2904  0.4292 -0.0911
59760SOL    HW197272   9.578   0.522   7.350  1.6594 -0.2406  0.4906
59760SOL    HW297273   9.649   0.654   7.328 -0.1956  0.6359 -0.4967
59761SOL     OW97274   8.295  13.751   7.669  0.0584 -0.1767  0.3637
59761SOL    HW197275   8.201  13.762   7.687  0.3757 -0.2594  2.2719
59761SOL    HW297276   8.303  13.663   7.632 -0.5596 -0.3761  0.6966
59762SOL     OW97277   7.292   9.640   4.005 -0.2510  0.4738 -0.9935
59762SOL    HW197278   7.262   9.564   4.055  0.0642  0.8234 -0.2663
59762SOL    HW297279   7.359   9.681   4.060 -0.8865  1.6692 -1.0796
59763SOL     OW97280  10.389  12.012   9.755 -0.0910  0.1390  0.5286
59763SOL    HW197281  10.383  11.994   9.849  0.5139  1.1374  0.7764
59763SOL    HW297282  10.310  11.974   9.717 -0.3612 -0.2302  1.4490
59764SOL     OW97283   3.864   7.930   6.006  0.5591 -0.7183 -0.2763
59764SOL    HW197284   3.926   7.871   6.048  0.3548 -1.0078 -0.3760
59764SOL    HW297285   3.783   7.879   6.000 -0.1023  0.1168  1.0776
59765SOL     OW97286   2.894   5.228  12.434  0.1380 -0.2957  0.2801
59765SOL    HW197287   2.815   5.174  12.429  1.7557 -2.8240  0.6031
59765SOL    HW297288   2.903   5.248  12.527 -2.3133  3.6783 -0.1055
59766SOL     OW97289  12.909   1.482   6.161 -0.3003  0.0684 -0.4341
59766SOL    HW197290  12.900   1.393   6.127  0.3844  0.3543 -1.4223
59766SOL    HW297291  12.953   1.472   6.245  1.3599 -0.4364 -1.3201
59767SOL     OW97292   0.274   5.316   9.728 -0.3521 -0.0177 -0.3956
59767SOL    HW197293   0.217   5.243   9.750  0.0362 -0.5716 -1.2003
59767SOL    HW297294   0.227   5.393   9.760 -1.0679 -0.5537 -0.1274
59768SOL     OW97295   9.412  13.677  10.573 -0.5070 -0.6480  0.3970
59768SOL    HW197296   9.404  13.709  10.483  1.5168 -0.9545  0.0499
59768SOL    HW297297   9.402  13.582  10.566 -1.2152 -0.5987  0.6446
59769SOL     OW97298   8.967   6.070  13.092 -0.0160  0.3556  0.2930
59769SOL    HW197299   8.902   6.080  13.023  0.7141  0.3050 -0.4263
59769SOL    HW297300   8.922   6.024  13.162 -0.9134  0.8398  0.0464
59770SOL     OW97301  10.389   5.143   8.404 -0.2350 -0.2801  0.0968
59770SOL    HW197302  10.330   5.214   8.428  1.7030  0.8470  1.7930
59770SOL    HW297303  10.471   5.186   8.379  0.3583 -1.8353 -0.7813
59771SOL     OW97304  12.541  13.657   1.441  0.4311 -0.1383 -0.7291
59771SOL    HW197305  12.544  13.571   1.397 -0.3099  0.3414 -1.7757
59771SOL    HW297306  12.581  13.717   1.379  1.8927  0.1436  0.4303
59772SOL     OW97307   3.774   0.102   4.484 -0.1859 -0.0940 -0.0821
59772SOL    HW197308   3.749   0.014   4.513 -0.5167  0.3223  0.9311
59772SOL    HW297309   3.804   0.090   4.394 -1.9294 -0.9728 -0.5778
59773SOL     OW97310   4.261  11.895   0.729  0.8125  0.2724  0.4128
59773SOL    HW197311   4.191  11.832   0.716  0.7132  0.1728  1.3372
59773SOL    HW297312   4.282  11.889   0.823  0.1895  2.2412  0.7325
59774SOL     OW97313   0.098   1.902   7.725  0.5139  0.1522 -0.0633
59774SOL    HW197314   0.047   1.823   7.742 -1.4068  1.4267  0.4186
59774SOL    HW297315   0.161   1.906   7.796  1.8299 -1.8238 -1.0356
59775SOL     OW97316   1.002   4.846   1.018 -0.3429  0.3803  0.1282
59775SOL    HW197317   1.028   4.864   1.109  0.6937  1.8667 -0.4225
59775SOL    HW297318   1.003   4.751   1.011  1.8060  0.2736  1.0696
59776SOL     OW97319   2.720   1.787  11.626  0.2373  0.1867 -0.0149
59776SOL    HW197320   2.680   1.702  11.644 -0.3096  0.4972  0.2658
59776SOL    HW297321   2.657   1.831  11.570 -0.5554  1.2618  1.6460
59777SOL     OW97322   1.453  10.938   3.096  0.0525  0.0834 -0.3560
59777SOL    HW197323   1.368  10.979   3.077 -0.1925 -0.8243 -1.2869
59777SOL    HW297324   1.482  10.980   3.177 -1.6976 -0.1920  0.4600
59778SOL     OW97325   2.631   8.794   1.083 -0.7071  0.3556 -0.6101
59778SOL    HW197326   2.561   8.845   1.124 -0.2529 -0.2509  0.9838
59778SOL    HW297327   2.704   8.855   1.076 -0.4583  0.1901  0.4509
59779SOL     OW97328   8.236  14.052   3.448  0.2884  0.2768 -0.0530
59779SOL    HW197329   8.155  14.005   3.468  0.0576  0.4053 -0.6692
59779SOL    HW297330   8.220  14.141   3.480 -0.2595  0.6057 -1.1963
59780SOL     OW97331   1.101   2.582   8.334  0.2230 -0.3576  0.0608
59780SOL    HW197332   1.109   2.495   8.374 -1.5405 -0.3848  0.4101
59780SOL    HW297333   1.053   2.567   8.252 -0.9078  0.3807  0.5624
59781SOL     OW97334   6.489   9.563   4.189 -0.2108 -0.1311 -0.2036
59781SOL    HW197335   6.578   9.584   4.160 -0.0097 -1.7335 -0.8748
59781SOL    HW297336   6.502   9.502   4.262 -0.7590  0.2026  0.1753
59782SOL     OW97337   1.708  12.790   2.910  0.0490  0.4852  0.2873
59782SOL    HW197338   1.669  12.718   2.861  1.3418  0.8105 -1.3114
59782SOL    HW297339   1.748  12.748   2.986  0.5747 -0.4685 -0.4873
59783SOL     OW97340   1.206   1.291   0.647 -0.0623  0.0359  0.4776
59783SOL    HW197341   1.123   1.266   0.689  0.5095 -0.1378  1.5461
59783SOL    HW297342   1.249   1.347   0.712 -0.5859  2.5144 -1.2088
59784SOL     OW97343  13.821   9.527   7.598 -0.4933 -0.7088 -0.3750
59784SOL    HW197344  13.840   9.552   7.507 -1.8223  0.1304 -0.4571
59784SOL    HW297345  13.731   9.493   7.594 -1.1576  0.7933  0.8556
59785SOL     OW97346   1.318   7.661   2.410  0.3349  0.6615 -0.1926
59785SOL    HW197347   1.371   7.601   2.462  1.8772  0.5753 -1.7546
59785SOL    HW297348   1.373   7.739   2.401 -0.1308  0.8923 -1.1669
59786SOL     OW97349   7.174   8.235  13.863 -0.6551  0.5182  0.2819
59786SOL    HW197350   7.093   8.271  13.827  0.9715  2.7665 -1.4548
59786SOL    HW297351   7.238   8.306  13.854  1.7486 -1.4415  0.7092
59787SOL     OW97352   5.578   7.651   7.454 -0.2542 -0.7452 -0.4319
59787SOL    HW197353   5.507   7.588   7.464 -0.1068 -1.0239 -1.0958
59787SOL    HW297354   5.631   7.616   7.382  0.4297 -0.4257 -0.0929
59788SOL     OW97355   7.120   1.381   3.178  0.1915 -0.5143  0.3283
59788SOL    HW197356   7.167   1.298   3.165  1.4564  0.0057  1.3313
59788SOL    HW297357   7.132   1.428   3.096 -0.4291 -1.2623 -0.2055
59789SOL     OW97358  12.114   1.140   3.189 -0.4300 -0.4955  0.2031
59789SOL    HW197359  12.152   1.101   3.110  1.3448  0.2302  0.6420
59789SOL    HW297360  12.097   1.231   3.165  1.0319 -0.0027  0.8818
59790SOL     OW97361   1.650   0.648  12.742 -0.5160 -0.1059 -0.1410
59790SOL    HW197362   1.570   0.687  12.778 -2.5649 -1.0882 -3.2014
59790SOL    HW297363   1.716   0.660  12.810 -2.3189  3.9111  1.1608
59791SOL     OW97364   4.409  12.259   5.795 -0.3954  0.0230  0.0298
59791SOL    HW197365   4.493  12.214   5.784  1.0638  2.6390 -0.4899
59791SOL    HW297366   4.395  12.261   5.889  1.6957  1.9896  0.4096
59792SOL     OW97367  11.062   6.787   4.477 -0.4864 -0.5145  0.2390
59792SOL    HW197368  11.077   6.841   4.555 -0.6481  0.0652 -0.1311
59792SOL    HW297369  11.086   6.843   4.403 -0.5853 -0.9737 -0.1501
59793SOL     OW97370   7.930   8.719   0.965  0.1401  0.0049 -0.4529
59793SOL    HW197371   7.917   8.706   0.871 -0.0207 -0.4990 -0.3677
59793SOL    HW297372   7.842   8.716   1.002  0.1409  0.9418 -0.3688
59794SOL     OW97373   3.059   4.925   9.210 -0.2825  0.2215  0.4680
59794SOL    HW197374   3.149   4.948   9.235 -0.0945  0.9070 -0.7530
59794SOL    HW297375   3.065   4.837   9.175 -0.2472 -0.0570  1.1479
59795SOL     OW97376  10.396  12.332   5.960 -0.0523 -0.8786 -0.1225
59795SOL    HW197377  10.431  12.309   6.046  1.4168  1.5764  0.0586
59795SOL    HW297378  10.465  12.307   5.898 -1.7198 -4.0425 -0.8706
59796SOL     OW97379   6.341  13.387   5.656  0.2717  0.1956 -0.5954
59796SOL    HW197380   6.332  13.480   5.680 -1.0320 -0.2309  0.7187
59796SOL    HW297381   6.429  13.363   5.686  0.3169  0.8078 -0.2112
59797SOL     OW97382   8.772   3.490   0.443 -0.1523  0.1406  0.2784
59797SOL    HW197383   8.746   3.429   0.374  2.5178 -0.4363 -0.3625
59797SOL    HW297384   8.710   3.562   0.437 -0.1892 -0.0384 -2.5573
59798SOL     OW97385   7.934  11.962  10.619  0.0132  0.0114  0.5080
59798SOL    HW197386   7.939  12.054  10.593 -1.4131  0.7274  2.4989
59798SOL    HW297387   7.966  11.914  10.542  2.0501  2.1717 -0.1302
59799SOL     OW97388  13.158   1.243  10.390 -0.4811 -0.0352 -0.2636
59799SOL    HW197389  13.069   1.259  10.422 -0.0073 -2.8425  3.0454
59799SOL    HW297390  13.146   1.184  10.315 -1.3809  0.1558 -0.2878
59800SOL     OW97391   1.456  11.596   5.539 -0.4538 -0.2865 -0.6586
59800SOL    HW197392   1.508  11.538   5.484  0.7358  0.4230 -0.3259
59800SOL    HW297393   1.494  11.683   5.524 -1.2868  0.1940 -0.0884
59801SOL     OW97394   8.958   5.742  12.613 -0.0570  0.3653  0.4364
59801SOL    HW197395   8.974   5.704  12.527 -0.2382 -1.4675  1.1667
59801SOL    HW297396   9.017   5.817  12.618  0.9296 -0.3048 -0.7618
59802SOL     OW97397   1.683   4.459  12.854 -0.0070 -0.5253  0.0514
59802SOL    HW197398   1.776   4.477  12.838 -0.3571  1.2430 -0.2444
59802SOL    HW297399   1.637   4.513  12.790 -1.2572 -0.9291  0.5795
59803SOL     OW97400   0.587  13.982   3.202  0.1826 -0.2632  0.3335
59803SOL    HW197401   0.652  13.962   3.135 -0.5679  0.3814 -0.6024
59803SOL    HW297402   0.539  14.058   3.168 -0.8644 -0.5338  1.1437
59804SOL     OW97403   7.955   3.385   2.383  0.3753  0.7741 -0.3193
59804SOL    HW197404   7.920   3.308   2.338  1.3046  0.1076  0.0575
59804SOL    HW297405   7.944   3.366   2.476  0.8876  0.9658 -0.2173
59805SOL     OW97406   9.766   5.185  13.717 -0.0324  1.0461 -0.0843
59805SOL    HW197407   9.703   5.146  13.656 -0.5863 -0.4320  1.3656
59805SOL    HW297408   9.712   5.223  13.787  0.6302 -0.0768  1.0860
59806SOL     OW97409  11.973   9.416  11.939 -0.2839 -0.2303  0.4156
59806SOL    HW197410  11.901   9.479  11.954  0.0576  0.3063 -0.1398
59806SOL    HW297411  11.991   9.423  11.846  1.1749  0.4017  0.7141
59807SOL     OW97412   7.176  12.522   3.785  1.0545 -0.6801  0.3640
59807SOL    HW197413   7.159  12.511   3.691  0.3176  1.7826  0.1513
59807SOL    HW297414   7.230  12.601   3.791  0.3262 -0.2683  2.0580
59808SOL     OW97415   8.995   3.503  10.811  0.3560 -0.0781 -0.1462
59808SOL    HW197416   9.007   3.413  10.841 -1.2428  0.1758  1.3405
59808SOL    HW297417   8.951   3.494  10.727  0.0009 -0.6754  0.0985
59809SOL     OW97418   8.164  13.822   6.217 -0.5091 -0.1741  0.3804
59809SOL    HW197419   8.153  13.728   6.232  2.3342 -0.8219 -0.8777
59809SOL    HW297420   8.110  13.841   6.140 -2.3462 -0.3586  1.5641
59810SOL     OW97421  10.059  11.348   4.190 -0.1543  0.7783  0.4034
59810SOL    HW197422  10.088  11.294   4.263 -0.9148 -1.3823 -0.8224
59810SOL    HW297423  10.113  11.427   4.195  1.1674 -0.1874  2.0985
59811SOL     OW97424   4.105   9.378   7.965  0.3122 -0.3718 -0.4127
59811SOL    HW197425   4.062   9.308   8.014  0.5835 -0.6189 -0.5245
59811SOL    HW297426   4.156   9.426   8.031 -1.8013  1.2543  0.1208
59812SOL     OW97427   9.945   0.514   8.242 -0.2099  0.0655 -0.4871
59812SOL    HW197428   9.914   0.597   8.278  0.7499 -0.3462  1.3750
59812SOL    HW297429   9.916   0.516   8.150 -0.1168  2.5061 -0.5376
59813SOL     OW97430  10.340  12.802   5.872 -0.4762 -0.0427  0.0014
59813SOL    HW197431  10.418  12.823   5.924  0.0238  1.1930 -1.2007
59813SOL    HW297432  10.347  12.857   5.794 -1.3899 -1.5661 -1.2226
59814SOL     OW97433  12.271   4.406   8.541  0.4625  0.7277 -0.4041
59814SOL    HW197434  12.340   4.367   8.596  0.4767  0.5631 -0.5374
59814SOL    HW297435  12.318   4.468   8.486  0.7502 -0.4845 -1.5704
59815SOL     OW97436  13.211  13.824   4.474 -0.1766 -0.3123  0.0130
59815SOL    HW197437  13.214  13.759   4.544 -0.9740 -1.7881 -1.2483
59815SOL    HW297438  13.245  13.778   4.397 -1.3248  0.5372 -1.0563
59816SOL     OW97439   4.276   7.916   6.670  0.1055 -0.4231  0.0554
59816SOL    HW197440   4.319   7.884   6.591 -0.6555 -0.3306 -0.4029
59816SOL    HW297441   4.187   7.881   6.665 -0.5014  1.0866 -0.0522
59817SOL     OW97442   0.185  11.149   2.758 -0.2848  0.0215 -0.4787
59817SOL    HW197443   0.136  11.170   2.838 -2.2014 -0.3051 -1.4928
59817SOL    HW297444   0.135  11.077   2.718  1.2708 -0.5997 -1.4058
59818SOL     OW97445  12.306   0.476   7.732 -0.2642  1.0080  0.5283
59818SOL    HW197446  12.241   0.488   7.663  0.0738 -0.5282 -0.1034
59818SOL    HW297447  12.267   0.517   7.809 -2.9761 -1.5700  0.7320
59819SOL     OW97448   0.410  13.806   6.939 -0.2638 -0.0939 -0.0395
59819SOL    HW197449   0.459  13.872   6.988  1.8386 -0.7383 -1.1391
59819SOL    HW297450   0.397  13.735   7.001  1.7465 -0.6064 -0.1450
59820SOL     OW97451  13.618  10.260   4.981 -0.8550 -0.3755 -0.3172
59820SOL    HW197452  13.599  10.275   5.073 -0.2537 -0.2756 -0.2071
59820SOL    HW297453  13.542  10.212   4.948 -0.8434 -0.8667  0.3523
59821SOL     OW97454   8.194  11.413   7.311  0.0328 -0.4566  0.2500
59821SOL    HW197455   8.229  11.499   7.332 -0.3446 -0.2605  0.0781
59821SOL    HW297456   8.212  11.360   7.389  1.5159 -0.6191 -0.1642
59822SOL     OW97457  10.306   6.767  10.723 -0.0097 -0.3659 -0.2620
59822SOL    HW197458  10.360   6.696  10.758  0.1251  0.2772  0.8848
59822SOL    HW297459  10.312   6.836  10.789  0.2304  0.8883 -1.5506
59823SOL     OW97460  12.812   5.512   7.082  0.4312  0.0256  0.0463
59823SOL    HW197461  12.845   5.552   7.162  3.2143  2.0981 -1.9594
59823SOL    HW297462  12.721   5.492   7.102  0.6484  1.5833  3.3065
59824SOL     OW97463   2.024   3.521   9.877  0.0765 -0.1523 -0.3742
59824SOL    HW197464   1.997   3.472   9.955 -1.5638 -0.6937 -1.2619
59824SOL    HW297465   2.115   3.494   9.863  0.5332  0.2345  1.5419
59825SOL     OW97466   4.478   5.666  11.974  0.4506  0.1581 -0.2512
59825SOL    HW197467   4.496   5.756  11.946  1.1270  0.4216  0.9786
59825SOL    HW297468   4.555   5.640  12.025 -0.2076 -0.7379  0.3230
59826SOL     OW97469  13.165  13.060   3.285 -0.0254 -0.1039  0.6985
59826SOL    HW197470  13.184  13.055   3.191  0.0069  0.0821  0.6947
59826SOL    HW297471  13.148  13.153   3.301  3.2395  0.4534  1.5042
59827SOL     OW97472  12.411   2.712   2.221  0.2106  0.2351  0.1014
59827SOL    HW197473  12.401   2.741   2.130  0.3210  1.1168  0.3547
59827SOL    HW297474  12.504   2.728   2.240  0.0894  0.4640  0.5035
59828SOL     OW97475   3.317   3.112   0.727 -0.1549 -0.5445  0.2365
59828SOL    HW197476   3.332   3.197   0.686 -0.1760 -1.1907 -1.1794
59828SOL    HW297477   3.345   3.048   0.662 -1.1487 -1.6450  0.8391
59829SOL     OW97478  13.291   7.708   6.234 -0.1027 -0.1578 -0.4163
59829SOL    HW197479  13.303   7.801   6.212 -0.1440 -0.3001 -1.0355
59829SOL    HW297480  13.331   7.700   6.321 -0.2566  0.4798 -0.2741
59830SOL     OW97481   4.524  13.394   9.653 -0.2311 -0.7019 -0.2038
59830SOL    HW197482   4.457  13.462   9.639  0.5398  0.4189  1.2351
59830SOL    HW297483   4.479  13.312   9.635 -1.4540  0.1262 -1.1269
59831SOL     OW97484  10.159   6.171   0.448 -0.1021 -0.4065  0.0972
59831SOL    HW197485  10.116   6.144   0.366 -0.9909  0.6433  0.1954
59831SOL    HW297486  10.113   6.251   0.473  0.9583 -0.0731  1.0052
59832SOL     OW97487   9.182   1.047   2.562 -0.0115 -0.4197 -0.1551
59832SOL    HW197488   9.134   0.965   2.560  1.9184 -1.6633  0.9160
59832SOL    HW297489   9.212   1.060   2.472 -0.1624 -1.0111 -0.2934
59833SOL     OW97490   4.492   6.940  12.601  0.3670  0.2632  0.2680
59833SOL    HW197491   4.503   6.872  12.668 -0.6115  0.9469  1.1682
59833SOL    HW297492   4.412   6.916  12.555 -0.1344  0.9228  0.7687
59834SOL     OW97493   1.687   1.983  12.838 -0.2607  0.1857 -0.2418
59834SOL    HW197494   1.639   1.950  12.913 -0.3990 -1.2833 -0.9378
59834SOL    HW297495   1.656   1.930  12.764  3.1357 -1.6299 -0.5592
59835SOL     OW97496  10.692  13.539   7.005  0.3812  0.0095  0.5951
59835SOL    HW197497  10.785  13.549   7.026  0.4699  3.7218 -0.7637
59835SOL    HW297498  10.689  13.534   6.909 -0.8329  1.7168  0.4919
59836SOL     OW97499   2.144   1.479  12.557 -0.8240  0.1921 -0.5146
59836SOL    HW197500   2.210   1.425  12.600 -0.6306  0.5662 -0.3394
59836SOL    HW297501   2.163   1.470  12.463 -0.3319  0.5291 -0.4561
59837SOL     OW97502  13.796   9.187   3.529 -0.7483 -0.8387  0.2449
59837SOL    HW197503  13.737   9.209   3.457 -2.5916 -0.3680  1.8107
59837SOL    HW297504  13.874   9.240   3.513 -1.4341 -0.1482 -0.9681
59838SOL     OW97505   8.616   1.039   7.129 -0.1648  0.0149 -0.3036
59838SOL    HW197506   8.645   1.007   7.044 -0.8958 -0.6686 -0.3081
59838SOL    HW297507   8.684   1.011   7.190  0.1671  0.1664 -0.6038
59839SOL     OW97508   9.440  12.884   9.106  0.7565  0.1441 -0.7269
59839SOL    HW197509   9.363  12.839   9.070  0.2383  1.3708 -1.1923
59839SOL    HW297510   9.500  12.813   9.130  0.4706 -0.7907 -2.5701
59840SOL     OW97511   0.651   8.498  13.213  0.2986 -0.4672 -0.6313
59840SOL    HW197512   0.657   8.427  13.148  4.9511  0.3425 -1.4072
59840SOL    HW297513   0.704   8.468  13.287  2.7237  2.1515 -1.1331
59841SOL     OW97514   1.016  12.534   9.316  0.1163 -0.4343  0.1738
59841SOL    HW197515   0.970  12.487   9.385  1.0397  0.7230  1.6296
59841SOL    HW297516   0.960  12.523   9.239  0.3883 -4.0882  0.3022
59842SOL     OW97517   2.618   2.844   9.842  0.2895 -0.1555  0.4547
59842SOL    HW197518   2.659   2.858   9.928 -0.2111 -0.5956  0.7722
59842SOL    HW297519   2.631   2.926   9.796 -0.9642  0.7285  1.5884
59843SOL     OW97520   8.597   0.991  10.801  0.3310 -0.3989  0.8008
59843SOL    HW197521   8.624   0.901  10.820 -0.6395 -0.6580  0.9950
59843SOL    HW297522   8.550   1.020  10.879  1.2876  0.5665  1.0530
59844SOL     OW97523   3.828   4.285   0.273 -0.4848  0.0410 -0.2888
59844SOL    HW197524   3.767   4.245   0.335 -0.4731 -0.0817 -0.3545
59844SOL    HW297525   3.786   4.367   0.247 -0.4190  0.1645 -0.0060
59845SOL     OW97526  13.784  14.139   0.418  0.6230 -0.2288  0.0786
59845SOL    HW197527  13.752  14.124   0.507  0.7966 -1.0650  0.0012
59845SOL    HW297528  13.715  14.193   0.377  0.0394 -0.7231  0.3896
59846SOL     OW97529   6.648  12.631   1.657 -0.2245 -0.1689  0.1619
59846SOL    HW197530   6.651  12.632   1.561 -0.5820  0.4806  0.1531
59846SOL    HW297531   6.670  12.541   1.681  0.1620 -0.2609 -0.5209
59847SOL     OW97532   9.196   7.235   1.411 -0.5874 -0.4136 -0.0535
59847SOL    HW197533   9.251   7.313   1.401 -2.0525  0.5249 -1.2383
59847SOL    HW297534   9.136   7.257   1.483  0.5078 -1.4251  1.2223
59848SOL     OW97535  11.212  10.859  11.685 -0.0736 -0.5592 -0.3696
59848SOL    HW197536  11.272  10.799  11.640  1.0285 -1.4459  2.1179
59848SOL    HW297537  11.257  10.943  11.686  0.2086 -0.7110 -0.3157
59849SOL     OW97538   3.636  12.899   7.371 -0.1441  0.1981 -0.3091
59849SOL    HW197539   3.687  12.901   7.451 -1.8455  0.7456  0.8156
59849SOL    HW297540   3.658  12.981   7.326  0.8049 -0.1056 -0.4121
59850SOL     OW97541   6.707   2.013  13.117 -0.4133 -0.1307  0.4569
59850SOL    HW197542   6.800   2.029  13.128 -0.2730 -1.3361  1.3126
59850SOL    HW297543   6.701   1.958  13.039 -0.5491  1.0450 -0.3769
59851SOL     OW97544  13.470   1.628   0.056 -0.3148 -0.3707  0.2202
59851SOL    HW197545  13.445   1.696   0.118  2.1551  0.0370  0.8481
59851SOL    HW297546  13.522   1.674  -0.011 -0.9128 -1.2081 -0.8651
59852SOL     OW97547   7.434   6.921   9.815 -0.0940 -0.4495  0.1132
59852SOL    HW197548   7.439   6.995   9.875  2.8600 -0.6686  0.2643
59852SOL    HW297549   7.387   6.955   9.739  0.4150  1.3147  0.5514
59853SOL     OW97550   2.645   0.260   1.687 -0.5572 -0.5925  0.4931
59853SOL    HW197551   2.689   0.345   1.698 -1.1506 -0.1507 -0.4466
59853SOL    HW297552   2.714   0.202   1.654 -0.5039 -0.0724 -0.3452
59854SOL     OW97553   7.516   8.625   4.712 -0.2037  0.7601  0.3319
59854SOL    HW197554   7.484   8.666   4.631 -1.8581  0.1212  0.6287
59854SOL    HW297555   7.471   8.541   4.716  3.0358 -1.1964 -0.2270
59855SOL     OW97556   6.643   0.090   9.940  0.5033  0.4946 -0.0366
59855SOL    HW197557   6.727   0.076   9.984  0.6729 -1.1508 -0.8150
59855SOL    HW297558   6.592   0.011   9.958 -0.0957  0.5743 -1.2575
59856SOL     OW97559  13.917   1.897   4.060 -0.0817 -0.2880  0.4868
59856SOL    HW197560  13.832   1.941   4.062  0.1885  0.3191 -0.6476
59856SOL    HW297561  13.980   1.968   4.050  0.3728 -0.8771 -1.2663
59857SOL     OW97562  13.976  10.916   0.467 -0.7005 -0.0508 -0.0507
59857SOL    HW197563  13.954  10.974   0.394 -0.5090 -1.3238 -1.1540
59857SOL    HW297564  13.939  10.831   0.442  2.5767 -1.4796 -0.4966
59858SOL     OW97565   2.600   9.250   9.379 -0.0080  0.0284  0.2544
59858SOL    HW197566   2.688   9.243   9.417 -0.8688 -0.0573  2.3461
59858SOL    HW297567   2.550   9.300   9.443 -1.9262 -1.3431 -0.1059
59859SOL     OW97568   0.841   5.099   0.002  0.2008  0.1040  0.5835
59859SOL    HW197569   0.788   5.173  -0.029  1.2882  0.7389  0.1863
59859SOL    HW297570   0.887   5.068  -0.075 -1.4938 -2.1276  0.3696
59860SOL     OW97571  12.696   6.464  11.176  0.4564 -0.1776  0.1451
59860SOL    HW197572  12.664   6.529  11.239 -1.2619 -1.4408  0.6605
59860SOL    HW297573  12.649   6.484  11.095  1.4747  0.4723 -0.2939
59861SOL     OW97574  10.630   0.739   6.204 -0.1766 -0.1829 -0.1497
59861SOL    HW197575  10.596   0.660   6.163 -1.2102  0.2552 -0.1625
59861SOL    HW297576  10.600   0.734   6.295  0.4152 -0.1767  0.0535
59862SOL     OW97577  13.349   2.162   9.884 -0.8402  0.2581 -0.1878
59862SOL    HW197578  13.274   2.220   9.884  0.4991  2.0721  0.6275
59862SOL    HW297579  13.318   2.081   9.924 -1.7918  1.7632  2.2576
59863SOL     OW97580  10.886  11.377  11.565  0.2877 -0.1523 -0.6662
59863SOL    HW197581  10.810  11.333  11.526 -0.7881  1.9898 -1.1189
59863SOL    HW297582  10.934  11.412  11.491  1.8903 -1.6396 -0.3924
59864SOL     OW97583   6.921   4.519  10.365  0.2188  0.1613 -0.9264
59864SOL    HW197584   6.902   4.584  10.433  0.9503  1.5715 -2.0007
59864SOL    HW297585   6.839   4.514  10.315  0.3684  0.8223 -1.2582
59865SOL     OW97586   3.868  11.750  12.689 -0.3713 -0.7748 -0.0901
59865SOL    HW197587   3.873  11.658  12.713 -0.6801 -1.2500 -1.6937
59865SOL    HW297588   3.908  11.754  12.602  0.3118  0.7431  0.2533
59866SOL     OW97589   5.326   0.709  10.855  0.3114  0.8133 -0.7905
59866SOL    HW197590   5.421   0.699  10.865  0.2661 -2.0737 -1.9543
59866SOL    HW297591   5.314   0.718  10.760 -0.5902 -0.3855 -0.8191
59867SOL     OW97592   4.303   4.067   1.482 -0.7349  0.9487  0.1786
59867SOL    HW197593   4.296   4.093   1.390  1.1030  0.5039 -0.1155
59867SOL    HW297594   4.362   4.133   1.520 -0.5952  0.4825  0.7696
59868SOL     OW97595   5.321   9.382  12.854 -0.2833 -0.0896  0.3268
59868SOL    HW197596   5.239   9.430  12.840 -0.4022  0.4887  2.6276
59868SOL    HW297597   5.300   9.316  12.920  0.9117 -0.4190  0.4033
59869SOL     OW97598   5.461  12.637  11.900 -0.1842 -0.2785 -0.2027
59869SOL    HW197599   5.484  12.608  11.988  1.7853 -0.8454 -0.8331
59869SOL    HW297600   5.534  12.694  11.874 -1.1630  0.5874 -1.1424
59870SOL     OW97601   6.219  10.290  12.981  0.6516 -0.3927  0.3282
59870SOL    HW197602   6.301  10.326  13.015 -0.1158  1.2430  0.5629
59870SOL    HW297603   6.151  10.329  13.036 -0.2886 -2.0793  0.4529
59871SOL     OW97604   6.188  13.114   0.057  0.1538 -0.7949 -0.4666
59871SOL    HW197605   6.258  13.160   0.105  1.3926 -1.0378 -1.9732
59871SOL    HW297606   6.212  13.021   0.064 -0.2284 -0.9102 -0.6889
59872SOL     OW97607  10.066   9.928   3.946  0.6347 -0.3235 -0.2440
59872SOL    HW197608  10.115   9.847   3.935  0.4514 -0.2907 -1.4158
59872SOL    HW297609  10.114   9.976   4.013  2.7935  0.1369 -2.0127
59873SOL     OW97610   1.689  14.120   8.678 -0.4814  0.3564 -0.0369
59873SOL    HW197611   1.701  14.152   8.588 -0.3194 -1.9547 -0.8948
59873SOL    HW297612   1.741  14.040   8.682 -1.0248  0.0577  1.9322
59874SOL     OW97613   8.607   1.060   0.865 -1.1603  0.3899 -0.3741
59874SOL    HW197614   8.667   1.124   0.829  0.6092 -0.5046  0.8400
59874SOL    HW297615   8.542   1.111   0.914 -1.3515  1.3618 -1.6158
59875SOL     OW97616  10.234   1.175  13.734 -0.2512  0.3084 -0.2696
59875SOL    HW197617  10.163   1.234  13.760 -1.1563 -0.7337 -0.2875
59875SOL    HW297618  10.302   1.233  13.701 -1.9073  1.2688 -2.2115
59876SOL     OW97619   7.176   7.372   2.387 -0.6563 -0.2445 -0.3274
59876SOL    HW197620   7.269   7.363   2.367 -0.5103 -1.3114  0.7510
59876SOL    HW297621   7.158   7.466   2.378  1.0376  0.3124  1.5932
59877SOL     OW97622   5.896  12.793   1.752  0.0392 -0.2576  0.0876
59877SOL    HW197623   5.851  12.782   1.835  1.4955 -1.4588  0.7563
59877SOL    HW297624   5.987  12.771   1.770  0.4565 -0.2585 -1.7590
59878SOL     OW97625  12.248   3.421   4.011  0.3856 -0.2689  0.2016
59878SOL    HW197626  12.192   3.377   3.947  1.7124 -0.1821 -1.0616
59878SOL    HW297627  12.235   3.370   4.092 -3.1522  1.0456  0.6462
59879SOL     OW97628  10.903   3.289   1.571  0.3227  0.3270 -0.6228
59879SOL    HW197629  10.910   3.193   1.564 -1.3581  0.0246  0.9393
59879SOL    HW297630  10.946   3.310   1.654 -0.0220  0.8050 -0.5637
59880SOL     OW97631  10.867  11.671   6.884  0.0101  0.2834  0.0384
59880SOL    HW197632  10.962  11.660   6.889 -0.0276 -0.4833 -0.6823
59880SOL    HW297633  10.836  11.591   6.841 -0.8310  1.0502 -0.8412
59881SOL     OW97634   8.992  12.401   0.698 -0.4441  0.2797 -0.5150
59881SOL    HW197635   9.077  12.417   0.738  0.9381 -0.2092 -3.0900
59881SOL    HW297636   8.986  12.464   0.627 -1.7599 -0.4223 -1.0710
59882SOL     OW97637   4.046  11.124   0.713 -0.1337  0.4598  0.4962
59882SOL    HW197638   4.106  11.197   0.728  0.1245  0.1609  0.9570
59882SOL    HW297639   4.034  11.121   0.618  0.5170  0.5736  0.4047
59883SOL     OW97640   6.453   5.335  11.246 -0.5403 -0.7865 -0.3170
59883SOL    HW197641   6.390   5.332  11.318  0.1686  1.1250  0.4318
59883SOL    HW297642   6.455   5.426  11.219  1.9727 -0.7463 -0.2444
59884SOL     OW97643   9.651   4.220   5.121  0.4720  0.0692 -0.0568
59884SOL    HW197644   9.727   4.229   5.178  1.8487  2.3947 -2.0369
59884SOL    HW297645   9.684   4.241   5.034 -2.4364  1.1735 -1.0164
59885SOL     OW97646  11.413  10.112  13.898 -0.2195 -0.3695 -0.9758
59885SOL    HW197647  11.494  10.100  13.849  0.1790 -1.0871 -0.1836
59885SOL    HW297648  11.347  10.131  13.832  0.3464 -1.0670 -1.7629
59886SOL     OW97649   6.230   9.246  12.615  0.0981  0.2932 -0.1909
59886SOL    HW197650   6.261   9.335  12.633 -0.7108  1.3027 -3.1878
59886SOL    HW297651   6.310   9.194  12.610  0.7238  1.1931  0.0440
59887SOL     OW97652   9.890   2.565   5.759 -0.1972 -0.1995 -0.6576
59887SOL    HW197653   9.834   2.506   5.709 -1.2971 -1.5297  1.9863
59887SOL    HW297654   9.862   2.554   5.850  3.0208  0.5696  0.5540
59888SOL     OW97655   0.353   3.137   8.756 -0.0604 -0.4711  0.2187
59888SOL    HW197656   0.345   3.095   8.842  0.5826  0.6607  0.8497
59888SOL    HW297657   0.334   3.067   8.694 -2.9902 -0.7710  1.2980
59889SOL     OW97658   7.599   1.861   9.637 -0.4415  0.2604  0.0263
59889SOL    HW197659   7.631   1.866   9.727  0.2901 -0.4742 -0.1816
59889SOL    HW297660   7.527   1.799   9.641  0.3921 -0.7319 -0.1035
59890SOL     OW97661   1.719  13.460   2.775  0.4037  0.2249 -0.5936
59890SOL    HW197662   1.774  13.466   2.853 -2.0707 -2.0495  1.4656
59890SOL    HW297663   1.744  13.376   2.735 -0.0476  0.2308 -0.8860
59891SOL     OW97664   5.324  10.316  12.874  0.0549  0.0711 -0.1911
59891SOL    HW197665   5.332  10.222  12.890 -2.1931 -0.3455 -1.0559
59891SOL    HW297666   5.387  10.357  12.933  2.2688 -2.0312 -0.9753
59892SOL     OW97667   9.071   4.430  13.120 -0.6464  0.2225 -0.3085
59892SOL    HW197668   9.089   4.523  13.125  2.1792 -0.2594  0.4066
59892SOL    HW297669   9.037   4.417  13.031 -0.4445  1.8184 -0.6439
59893SOL     OW97670   4.954   5.315   2.585 -0.0645  0.0891  0.2592
59893SOL    HW197671   4.911   5.343   2.504  1.9424  0.5566 -0.6968
59893SOL    HW297672   4.910   5.233   2.608 -1.4890  0.5579 -0.6078
59894SOL     OW97673   8.206  12.687   8.200 -0.2116  0.2189 -0.0731
59894SOL    HW197674   8.130  12.737   8.171 -0.0740 -1.0299 -2.9335
59894SOL    HW297675   8.277  12.751   8.205 -0.9388  1.0042  0.4588
59895SOL     OW97676   0.246   1.255   1.954  0.1996 -0.4069  0.4494
59895SOL    HW197677   0.324   1.310   1.947  0.9978 -1.4395  0.9264
59895SOL    HW297678   0.246   1.225   2.045  0.0831 -1.5977  0.0747
59896SOL     OW97679   5.448   3.478   1.079  0.2064 -0.1347 -0.0104
59896SOL    HW197680   5.456   3.407   1.143 -0.9786  1.6510  2.2936
59896SOL    HW297681   5.538   3.496   1.052  1.0088  0.1349  2.5242
59897SOL     OW97682  12.061   9.509   1.488 -0.4923  0.4026 -0.0909
59897SOL    HW197683  12.042   9.466   1.571 -1.3985  1.0885  0.0787
59897SOL    HW297684  12.132   9.570   1.509  1.6627 -1.7732 -0.6007
59898SOL     OW97685  10.966   8.848   7.140  0.1841 -0.6387  0.1346
59898SOL    HW197686  10.936   8.840   7.231 -0.6341  0.0970 -0.0612
59898SOL    HW297687  10.913   8.918   7.103  1.3630 -0.0915 -0.5768
59899SOL     OW97688   5.209   1.753   8.112  0.4612 -0.9391 -0.3938
59899SOL    HW197689   5.167   1.679   8.156 -0.7436  0.8517  1.6856
59899SOL    HW297690   5.272   1.785   8.176 -0.8326  1.3167 -0.1522
59900SOL     OW97691  11.993   9.409  10.008 -0.0876  0.4094 -0.1419
59900SOL    HW197692  11.969   9.357  10.084 -0.1604  0.2521 -0.2735
59900SOL    HW297693  11.965   9.357   9.933  0.2621  0.4278 -0.2848
59901SOL     OW97694   7.246  14.125   2.149 -0.5480  0.1537  0.0296
59901SOL    HW197695   7.188  14.175   2.091  0.7093  0.3821 -1.0586
59901SOL    HW297696   7.222  14.034   2.132  0.8262  0.1192 -2.0347
59902SOL     OW97697   7.727  10.193   2.109  0.6330 -0.3699 -0.2058
59902SOL    HW197698   7.653  10.247   2.081 -0.0065 -0.4523  1.2529
59902SOL    HW297699   7.802  10.226   2.059  0.1978  1.6231  0.3965
59903SOL     OW97700   0.208   3.008   0.273  0.0370  0.0311 -0.2362
59903SOL    HW197701   0.198   2.918   0.305 -0.7890 -0.5759 -2.0216
59903SOL    HW297702   0.294   3.036   0.304 -0.2602 -0.8630  1.5052
59904SOL     OW97703   1.313   6.925   9.765  0.0498  0.3314  0.1383
59904SOL    HW197704   1.349   7.001   9.718 -0.8192  0.4962 -0.2894
59904SOL    HW297705   1.234   6.903   9.716  0.4641 -1.0641  0.0703
59905SOL     OW97706   4.192   9.209  10.907 -0.5289 -0.9377 -0.2871
59905SOL    HW197707   4.179   9.192  11.001 -0.2878  0.0849 -0.0604
59905SOL    HW297708   4.209   9.303  10.902 -1.7050 -0.7635 -1.4891
59906SOL     OW97709   2.553   7.225   6.259  0.2092 -0.3257 -0.1702
59906SOL    HW197710   2.557   7.250   6.167  0.0363  2.6300  0.5274
59906SOL    HW297711   2.640   7.244   6.294 -0.2581  0.4565  0.6401
59907SOL     OW97712   6.976  13.671   7.517 -0.0822 -0.7969  0.2470
59907SOL    HW197713   7.017  13.706   7.438  0.5328  0.9321  1.2978
59907SOL    HW297714   6.896  13.630   7.485  0.1276 -0.1162 -1.2633
59908SOL     OW97715   6.063   7.301   3.962  0.6098  0.6184 -0.4475
59908SOL    HW197716   6.086   7.217   4.002 -0.5745  0.5015  0.0401
59908SOL    HW297717   5.969   7.294   3.944  0.4291  1.9262 -0.1381
59909SOL     OW97718   0.023   3.293   7.660 -0.3750  0.3436 -0.6431
59909SOL    HW197719   0.044   3.262   7.748 -0.7043 -0.4089 -0.8234
59909SOL    HW297720   0.014   3.388   7.670  0.3391  0.3552 -0.0204
59910SOL     OW97721  11.482   0.470   6.003 -0.4371 -0.2585  0.0380
59910SOL    HW197722  11.562   0.419   5.998 -1.4562 -2.1222  1.4815
59910SOL    HW297723  11.473   0.494   6.095 -1.1095  0.6485 -0.2440
59911SOL     OW97724   1.250   5.798  12.886 -0.0174 -0.3479  0.1533
59911SOL    HW197725   1.225   5.841  12.968  0.2368  0.1698 -0.0369
59911SOL    HW297726   1.201   5.845  12.818 -1.9540 -2.1692  0.1808
59912SOL     OW97727  10.862   0.651   3.260  0.1506  0.5253  0.4159
59912SOL    HW197728  10.884   0.677   3.349 -3.2184  1.5154  1.0847
59912SOL    HW297729  10.941   0.608   3.228  1.4897  0.0838  3.8573
59913SOL     OW97730  12.633   2.712   8.072 -0.2872  0.0253  0.0500
59913SOL    HW197731  12.581   2.632   8.071  1.8359 -1.4481 -0.9714
59913SOL    HW297732  12.618   2.753   7.987 -1.5149  0.8659  0.6407
59914SOL     OW97733  11.972  11.787  10.039  1.3464 -0.1467  0.1342
59914SOL    HW197734  11.903  11.835   9.993 -0.3063 -1.3498  1.2226
59914SOL    HW297735  12.033  11.759   9.970  0.3268  0.2832 -0.9700
59915SOL     OW97736  12.475   0.342   0.197  0.6460  0.0613 -0.7199
59915SOL    HW197737  12.407   0.314   0.136  1.7804 -0.4677 -1.7836
59915SOL    HW297738  12.484   0.436   0.183  0.4820  0.0437 -0.9369
59916SOL     OW97739  13.970   2.877   5.546 -0.0019  0.5267  0.2681
59916SOL    HW197740  14.045   2.927   5.515 -0.8677  1.8498  0.2308
59916SOL    HW297741  13.983   2.790   5.509  2.7896 -0.0413  2.2798
59917SOL     OW97742   2.428   5.790   7.330 -0.4850 -0.2012 -0.3397
59917SOL    HW197743   2.389   5.840   7.258  0.5170  0.4025 -0.4917
59917SOL    HW297744   2.522   5.804   7.320 -0.2624 -1.0355  0.4260
59918SOL     OW97745   9.800  12.326   6.646 -0.3773  0.4853  0.2765
59918SOL    HW197746   9.760  12.387   6.708  1.6404  0.0403  2.1487
59918SOL    HW297747   9.807  12.376   6.565 -2.8081  1.1991  0.4355
59919SOL     OW97748   7.940   8.493   8.477 -0.2375 -0.1801 -0.2457
59919SOL    HW197749   7.884   8.460   8.548  0.5315  0.4028  0.6455
59919SOL    HW297750   8.029   8.478   8.508  0.1256 -1.0378 -1.6241
59920SOL     OW97751  13.541   4.780   1.331  0.3521  0.3894  0.0717
59920SOL    HW197752  13.545   4.842   1.258 -0.9662 -1.0581 -1.2989
59920SOL    HW297753  13.456   4.737   1.322  1.1393 -1.5037  1.0585
59921SOL     OW97754   1.896   8.965   7.234 -0.1230  0.4070 -0.2897
59921SOL    HW197755   1.979   9.004   7.260 -0.1288  1.4036 -1.6379
59921SOL    HW297756   1.830   9.021   7.276 -0.1144  0.8374 -0.8347
59922SOL     OW97757   3.887  12.647   2.234 -0.5298  0.4221  0.8861
59922SOL    HW197758   3.838  12.573   2.270  1.1839 -1.3208 -0.1396
59922SOL    HW297759   3.852  12.659   2.146 -0.1782  0.1565  0.7024
59923SOL     OW97760   7.936  12.748   8.679  0.2509  0.4515 -0.1693
59923SOL    HW197761   8.018  12.756   8.631 -0.0472 -0.3406 -0.8232
59923SOL    HW297762   7.868  12.756   8.613 -0.1504 -2.4801 -0.2411
59924SOL     OW97763   7.014   6.860   8.137 -0.0832  0.3581  0.5050
59924SOL    HW197764   7.106   6.859   8.113 -0.1558  1.4991  0.1258
59924SOL    HW297765   6.984   6.771   8.121  0.6531  0.2916 -0.5805
59925SOL     OW97766   8.801   6.921   3.368  0.6492  0.1573 -0.1201
59925SOL    HW197767   8.776   7.012   3.383  0.2010  0.3378 -1.8360
59925SOL    HW297768   8.874   6.925   3.307  2.0293 -0.5838  1.3884
59926SOL     OW97769   0.406   5.149   4.387  1.0301  0.5092 -0.7474
59926SOL    HW197770   0.404   5.135   4.292  0.7405 -0.0838 -0.6564
59926SOL    HW297771   0.459   5.077   4.420  1.2248  0.7813 -0.4656
59927SOL     OW97772   0.047   3.496   5.199  0.1458  0.9601 -0.9431
59927SOL    HW197773   0.061   3.508   5.105 -0.8581 -0.8331 -1.3850
59927SOL    HW297774  -0.015   3.565   5.223 -0.7631  0.5496 -1.9762
59928SOL     OW97775   6.253   9.889   5.237  0.7726 -0.6754 -0.0628
59928SOL    HW197776   6.229   9.975   5.203 -1.1006 -0.6668  1.1330
59928SOL    HW297777   6.305   9.908   5.315  0.8753 -0.6518 -0.1360
59929SOL     OW97778   5.308   6.699   8.257  0.2004  0.4671  0.4222
59929SOL    HW197779   5.260   6.641   8.197  0.3350 -0.0311  0.7879
59929SOL    HW297780   5.331   6.643   8.331 -2.9472  1.7976  2.6299
59930SOL     OW97781   5.732   0.589   9.666 -0.4638 -0.4213  0.0276
59930SOL    HW197782   5.823   0.567   9.687  0.1463 -0.2726 -2.2140
59930SOL    HW297783   5.736   0.680   9.636 -1.1916 -0.6811 -0.9019
59931SOL     OW97784   2.087   4.984   1.512  0.1166 -0.3477 -0.4602
59931SOL    HW197785   2.150   4.936   1.566  0.9575  0.7184 -0.4631
59931SOL    HW297786   2.019   4.919   1.491 -0.8037 -0.5972  2.6988
59932SOL     OW97787  13.726   5.258   6.883 -0.2561 -0.3053  0.0164
59932SOL    HW197788  13.778   5.182   6.859 -1.1661 -0.7201 -0.7280
59932SOL    HW297789  13.703   5.244   6.975 -0.4151 -0.9311 -0.1142
59933SOL     OW97790   1.130   1.350  11.369  0.6412  0.3277 -1.0684
59933SOL    HW197791   1.105   1.437  11.398  1.5512  0.0858  0.5732
59933SOL    HW297792   1.157   1.361  11.278 -0.1810  1.5606 -1.1836
59934SOL     OW97793   3.948   1.665  10.034  0.3776  0.1753 -0.0356
59934SOL    HW197794   4.010   1.668   9.961  0.8398  0.3817  0.3608
59934SOL    HW297795   3.863   1.681   9.993  0.3897 -1.5136 -0.7981
59935SOL     OW97796   7.042   2.339   7.211  0.0269  0.1385 -0.3180
59935SOL    HW197797   7.003   2.411   7.260 -0.0109  0.4171 -0.7499
59935SOL    HW297798   6.990   2.333   7.131 -0.9154 -1.3410  0.3517
59936SOL     OW97799  11.518  11.685  13.471  0.1416 -0.2671  0.2808
59936SOL    HW197800  11.445  11.673  13.532  0.9483 -2.3436  0.9018
59936SOL    HW297801  11.504  11.619  13.403  0.8293  0.1016 -0.2389
59937SOL     OW97802  10.329  10.820  13.475 -0.1514 -0.3760 -0.1489
59937SOL    HW197803  10.271  10.808  13.399 -0.9594  0.1081  0.3690
59937SOL    HW297804  10.354  10.912  13.472  0.5666 -0.5702 -0.3352
59938SOL     OW97805  13.587   8.700   8.666  0.7888 -0.1546  0.4513
59938SOL    HW197806  13.534   8.663   8.736  0.8676 -1.9878 -0.4277
59938SOL    HW297807  13.551   8.788   8.653  1.0805  0.4500  3.0969
59939SOL     OW97808   2.192   3.030  10.973 -0.2042 -0.0872  0.3104
59939SOL    HW197809   2.212   3.059  11.063 -0.5429  1.3457 -0.0443
59939SOL    HW297810   2.186   2.935  10.979  0.1829 -0.0454  1.7301
59940SOL     OW97811   9.324  10.962  13.801 -0.0558 -0.0382 -0.7766
59940SOL    HW197812   9.288  10.945  13.888 -0.5263 -0.2666 -1.0142
59940SOL    HW297813   9.286  10.894  13.745  2.3256 -1.6190 -0.6254
59941SOL     OW97814  13.560   7.326   9.546  0.2948 -0.4263  0.4565
59941SOL    HW197815  13.648   7.362   9.561  0.9108 -0.9795 -1.5554
59941SOL    HW297816  13.557   7.247   9.601  1.5445 -1.0910 -0.3829
59942SOL     OW97817   0.198   5.014  11.842 -0.3921 -0.4426 -0.2439
59942SOL    HW197818   0.159   5.022  11.929 -1.4121  1.1943 -0.8016
59942SOL    HW297819   0.166   4.930  11.809  1.8426 -2.2035  1.7730
59943SOL     OW97820   3.369   2.436   3.931  0.7408  0.3584 -0.8381
59943SOL    HW197821   3.291   2.381   3.943  1.4065 -0.3036  0.6682
59943SOL    HW297822   3.429   2.382   3.879 -0.1646  1.2887 -2.9975
59944SOL     OW97823  11.082   3.483   5.785 -0.3523 -0.3841 -0.0059
59944SOL    HW197824  11.037   3.442   5.711 -1.3051  1.6123 -0.6228
59944SOL    HW297825  11.165   3.514   5.749 -0.6844  0.3181 -0.1928
59945SOL     OW97826   4.662  13.281   0.922 -0.5081 -0.4811 -0.3748
59945SOL    HW197827   4.608  13.287   1.001 -0.2295 -0.9963 -0.1392
59945SOL    HW297828   4.630  13.202   0.878 -0.5110 -0.3191 -0.6675
59946SOL     OW97829   5.342   0.500  13.632  0.0600  0.0138 -0.0251
59946SOL    HW197830   5.328   0.572  13.571  1.1361 -0.8108 -1.2943
59946SOL    HW297831   5.429   0.516  13.669 -0.9806  1.0876  2.1867
59947SOL     OW97832   2.731  10.366  10.090  0.3467 -0.9204  0.1871
59947SOL    HW197833   2.747  10.406  10.005  0.6292 -1.7715 -0.1704
59947SOL    HW297834   2.791  10.410  10.150  1.3523 -1.4715 -0.3933
59948SOL     OW97835   0.222   7.643   8.816  0.5986 -0.0776 -0.2185
59948SOL    HW197836   0.160   7.716   8.819 -0.8699 -1.2557 -0.7697
59948SOL    HW297837   0.282   7.666   8.746  0.4513  0.8190 -0.0648
59949SOL     OW97838   1.243  13.574   0.886 -0.4682 -0.0163 -0.0738
59949SOL    HW197839   1.292  13.509   0.836 -1.2582 -0.6878  0.0002
59949SOL    HW297840   1.288  13.657   0.868 -0.6220 -0.2609 -1.7797
59950SOL     OW97841   1.466  13.426   6.800  0.0220 -0.1933  0.0468
59950SOL    HW197842   1.374  13.402   6.792  0.1545 -1.3665  1.4798
59950SOL    HW297843   1.465  13.516   6.832 -0.5511  0.6203 -2.0817
59951SOL     OW97844   7.827   8.234  10.384 -0.4087 -0.3933 -0.7897
59951SOL    HW197845   7.889   8.307  10.386 -0.3548 -0.4572  0.0014
59951SOL    HW297846   7.750   8.267  10.430  0.5851 -1.6858  1.9756
59952SOL     OW97847   2.346   2.910   3.117 -0.1360  0.4577  0.2082
59952SOL    HW197848   2.347   2.855   3.195  0.9780 -0.3991 -0.3719
59952SOL    HW297849   2.423   2.882   3.068 -0.8951  0.8811 -1.2682
59953SOL     OW97850   7.475  11.694   6.342 -0.0018 -0.3881 -0.2274
59953SOL    HW197851   7.391  11.739   6.340 -0.3807 -0.9485  1.3220
59953SOL    HW297852   7.529  11.745   6.403  0.5576 -0.4049 -0.6940
59954SOL     OW97853  12.752   9.283   1.545  0.0964  0.5096 -0.3033
59954SOL    HW197854  12.756   9.258   1.637  1.3173 -0.1373 -0.5094
59954SOL    HW297855  12.715   9.206   1.501 -0.5215  0.8311 -0.3633
59955SOL     OW97856  12.171   2.453   4.876  0.9170  0.1086 -0.0632
59955SOL    HW197857  12.219   2.372   4.856  0.8659  0.0283  0.1427
59955SOL    HW297858  12.107   2.427   4.943  2.3097  0.7688  1.5745
59956SOL     OW97859   4.171   5.547   3.708 -0.2277 -0.1574  0.0472
59956SOL    HW197860   4.211   5.612   3.650 -1.4372  0.2147 -0.4002
59956SOL    HW297861   4.226   5.548   3.786 -1.0050  2.4868  0.6645
59957SOL     OW97862   1.723   4.385   8.636 -0.9153 -0.1036 -0.1120
59957SOL    HW197863   1.629   4.405   8.629 -1.0641 -0.6014  0.3677
59957SOL    HW297864   1.731   4.298   8.596 -0.8827 -0.6106  0.9336
59958SOL     OW97865   9.827  14.137  10.850 -0.1270 -0.2714 -0.2166
59958SOL    HW197866   9.869  14.058  10.816  0.0424 -1.2064  1.9800
59958SOL    HW297867   9.895  14.178  10.904 -0.3551  1.1818 -1.0005
59959SOL     OW97868   7.880   2.885   8.479  0.0667 -0.0236 -0.3274
59959SOL    HW197869   7.948   2.819   8.471 -1.1795 -1.4598  0.4014
59959SOL    HW297870   7.847   2.876   8.569 -0.3536  1.3802 -0.3070
59960SOL     OW97871   4.436  12.939  14.022  0.4330  0.4023 -0.4567
59960SOL    HW197872   4.453  12.914  14.113 -0.5117 -0.8681 -0.6009
59960SOL    HW297873   4.487  12.877  13.970 -0.1590  0.2058 -0.8086
59961SOL     OW97874   9.403   0.599   4.320 -0.0481 -0.1769 -0.0435
59961SOL    HW197875   9.410   0.533   4.389 -0.4774 -0.4544 -0.2595
59961SOL    HW297876   9.382   0.549   4.241  0.4658  0.1345 -0.3853
59962SOL     OW97877   4.870   8.965   0.145  0.5066 -0.0968  0.2700
59962SOL    HW197878   4.797   8.918   0.105 -1.0277  0.6324  2.0701
59962SOL    HW297879   4.915   9.006   0.071 -1.7941  0.6343 -0.8233
59963SOL     OW97880  13.542  11.611   4.391  1.0767  0.4520 -0.0830
59963SOL    HW197881  13.569  11.633   4.302  0.1616  1.8252 -0.0516
59963SOL    HW297882  13.597  11.666   4.447  1.0664  0.2112  0.1622
59964SOL     OW97883  12.971   2.301  12.236  0.4750 -0.0083 -0.4343
59964SOL    HW197884  13.028   2.377  12.248  0.0855  0.2968 -0.4954
59964SOL    HW297885  12.990   2.271  12.147  0.3285  0.2686 -0.5589
59965SOL     OW97886   0.716  13.850   4.957 -0.1904 -0.2600  0.0440
59965SOL    HW197887   0.802  13.866   4.918  0.4307 -1.7896  0.6806
59965SOL    HW297888   0.657  13.910   4.912  1.0088  0.0199 -1.2182
59966SOL     OW97889  11.648   4.372   4.079 -0.0945  0.0294  0.4161
59966SOL    HW197890  11.605   4.294   4.043 -0.4429  0.5968 -0.4278
59966SOL    HW297891  11.725   4.385   4.024 -0.4258  0.6902  0.0973
59967SOL     OW97892  13.808   0.478   3.213 -0.3629  0.3549 -0.4323
59967SOL    HW197893  13.799   0.410   3.281 -3.3476  0.1175 -0.9141
59967SOL    HW297894  13.879   0.448   3.158  0.7266 -0.5470  1.3726
59968SOL     OW97895  13.770   1.245   6.811  0.1346 -0.3020 -0.7115
59968SOL    HW197896  13.837   1.205   6.867  0.3836  0.2255 -0.6219
59968SOL    HW297897  13.737   1.319   6.862  0.7076  0.4813 -1.4393
59969SOL     OW97898   2.304   8.101   2.697 -0.2354 -0.5335 -0.5997
59969SOL    HW197899   2.247   8.026   2.679  0.9887 -1.5045 -0.5977
59969SOL    HW297900   2.272   8.170   2.640  0.0674 -1.8081 -2.4106
59970SOL     OW97901  13.575   7.638   5.330 -0.0751 -0.3557  0.4384
59970SOL    HW197902  13.615   7.660   5.414 -1.0601 -0.7412  1.0364
59970SOL    HW297903  13.517   7.564   5.350 -1.7315  0.7053 -0.1841
59971SOL     OW97904   5.061   1.878  11.812  0.7633 -0.0544  0.0970
59971SOL    HW197905   5.054   1.854  11.719  1.0958  0.9201 -0.1980
59971SOL    HW297906   5.081   1.796  11.857  2.5504 -0.2494 -0.9385
59972SOL     OW97907   0.702   4.125   8.411 -0.1797  0.1501 -0.5423
59972SOL    HW197908   0.766   4.193   8.389 -2.1499  2.4515  0.3494
59972SOL    HW297909   0.627   4.144   8.354 -1.5715  0.0977  1.1800
59973SOL     OW97910   0.565  12.417  10.423 -0.4401 -0.1331  0.3262
59973SOL    HW197911   0.597  12.507  10.413  0.5898 -0.5827 -0.7026
59973SOL    HW297912   0.566  12.402  10.518 -0.4443  0.8652  0.5006
59974SOL     OW97913   2.456  13.303   4.475  0.0467  0.1527  0.0140
59974SOL    HW197914   2.468  13.211   4.453 -0.9200 -0.1923  0.8367
59974SOL    HW297915   2.492  13.312   4.563  0.1973  0.5728 -0.0873
59975SOL     OW97916   8.654   4.105  12.693  0.4372  0.1132  0.1982
59975SOL    HW197917   8.615   4.020  12.713 -2.0948  0.1977 -3.4000
59975SOL    HW297918   8.744   4.086  12.667  0.1419 -1.3327  0.1820
59976SOL     OW97919  11.474   7.220   7.471  0.7035  0.7660  0.5028
59976SOL    HW197920  11.473   7.311   7.444  1.3723 -0.2212 -3.3763
59976SOL    HW297921  11.385   7.202   7.501  0.1683  2.3163 -0.1004
59977SOL     OW97922   6.743  12.337   6.037 -0.3274 -0.4596 -0.0752
59977SOL    HW197923   6.825  12.308   5.996  0.1926 -2.0241  1.9216
59977SOL    HW297924   6.720  12.417   5.990  3.0535  0.8079  0.1927
59978SOL     OW97925   4.269   1.806   2.780 -0.5092  0.2015  0.6315
59978SOL    HW197926   4.334   1.777   2.844 -0.4580 -0.7946  0.1431
59978SOL    HW297927   4.247   1.895   2.807  0.5485  0.3039  1.2092
59979SOL     OW97928   9.057   8.115  14.046 -0.1507  0.0042  0.3494
59979SOL    HW197929   9.123   8.075  13.989 -0.3579 -0.9463  0.7569
59979SOL    HW297930   9.074   8.209  14.039 -0.5322 -0.0147 -1.7197
59980SOL     OW97931   8.036   8.818   0.456 -0.0344  0.3438  0.1370
59980SOL    HW197932   8.129   8.797   0.463 -0.3033 -1.5431 -1.0787
59980SOL    HW297933   8.002   8.756   0.391 -1.9573  1.6113 -0.1721
59981SOL     OW97934  12.929  10.766  10.521 -0.3072  0.1897  0.7139
59981SOL    HW197935  12.900  10.841  10.574 -0.2984  0.6569  0.0685
59981SOL    HW297936  12.984  10.805  10.453 -0.5207 -0.3784  0.2144
59982SOL     OW97937   1.027   0.214  14.003 -0.2797 -0.6805 -0.3968
59982SOL    HW197938   1.084   0.274  14.050 -0.3083  0.1654 -1.4088
59982SOL    HW297939   0.938   0.243  14.025 -0.3211  0.8843 -2.3040
59983SOL     OW97940  11.154   0.114  12.716  0.5416  0.1754 -0.1646
59983SOL    HW197941  11.222   0.047  12.710  1.2359  1.0032 -2.2281
59983SOL    HW297942  11.090   0.088  12.650  0.0292  0.7186  0.1116
59984SOL     OW97943  13.094   3.019   1.530  0.1437 -1.0328  0.1594
59984SOL    HW197944  13.074   3.112   1.535 -0.7128 -1.1950  0.0441
59984SOL    HW297945  13.011   2.976   1.551  0.0046 -1.7535 -1.6626
59985SOL     OW97946   4.770   7.595   3.212  0.1595 -0.3999 -0.0058
59985SOL    HW197947   4.690   7.599   3.265  0.9913 -1.0862  1.3712
59985SOL    HW297948   4.814   7.679   3.228  0.5783 -0.7402  0.7256
59986SOL     OW97949   9.519  12.524  10.664  0.3061  0.4029  0.4242
59986SOL    HW197950   9.579  12.480  10.604  0.0618 -1.2326  1.3459
59986SOL    HW297951   9.534  12.617  10.647  0.7628  0.0134 -1.6388
59987SOL     OW97952  13.568   5.727  13.392 -0.1544 -0.3662  0.4940
59987SOL    HW197953  13.573   5.641  13.351  1.9712  0.3059 -0.8138
59987SOL    HW297954  13.619   5.718  13.473  1.8111  0.1046 -0.6262
59988SOL     OW97955   6.246   1.210   2.090 -0.0025  0.0918  0.2668
59988SOL    HW197956   6.294   1.266   2.028 -0.8434  0.5413 -0.0017
59988SOL    HW297957   6.189   1.271   2.137 -0.9955 -0.5422 -0.0908
59989SOL     OW97958  11.427   7.521   8.761 -0.6767 -0.2747 -0.5060
59989SOL    HW197959  11.404   7.599   8.709 -0.8229 -0.3060 -0.4868
59989SOL    HW297960  11.395   7.541   8.849 -0.0533 -0.0394 -0.3211
59990SOL     OW97961   6.236   1.638  14.072 -0.1125  0.5380  0.7587
59990SOL    HW197962   6.174   1.703  14.039  0.2619  0.7768  0.5179
59990SOL    HW297963   6.191   1.554  14.060 -0.5723  0.7441  1.0167
59991SOL     OW97964  13.524   0.994   8.319 -0.3124 -0.0273 -0.2520
59991SOL    HW197965  13.463   1.034   8.382 -0.7993 -0.6820 -0.3025
59991SOL    HW297966  13.610   1.029   8.343 -0.8870  2.1994 -1.1790
59992SOL     OW97967   4.399   9.081   6.398 -0.1777 -0.0210 -0.4134
59992SOL    HW197968   4.462   9.112   6.333 -0.8032 -2.2286 -2.2554
59992SOL    HW297969   4.352   9.159   6.426  1.6850  1.3174 -0.8706
59993SOL     OW97970   1.172  12.281   9.568  1.1291  0.5125  0.2458
59993SOL    HW197971   1.186  12.333   9.647  1.5335  1.6996 -0.5690
59993SOL    HW297972   1.246  12.303   9.511 -0.5281  1.8625 -1.5523
59994SOL     OW97973  10.171   2.420  14.056  0.2890 -0.1380  0.1066
59994SOL    HW197974  10.249   2.405  14.110  0.0306  1.0791  0.8620
59994SOL    HW297975  10.157   2.515  14.061 -0.1965 -0.1080 -1.4876
59995SOL     OW97976  13.472   2.433   8.897  0.1115  0.2196  0.5948
59995SOL    HW197977  13.560   2.447   8.862  0.1910  0.4782  0.8998
59995SOL    HW297978  13.417   2.424   8.819 -0.0281  2.6050  0.3412
59996SOL     OW97979   8.492  11.551   8.814 -0.2360  0.3100  0.4556
59996SOL    HW197980   8.422  11.581   8.757  0.7906  2.0271  0.0423
59996SOL    HW297981   8.492  11.456   8.804 -1.2401  0.4368 -1.0067
59997SOL     OW97982  10.802  10.277   4.114 -0.1679  0.2049  0.1709
59997SOL    HW197983  10.843  10.354   4.154 -2.0527  0.9380  0.8621
59997SOL    HW297984  10.817  10.287   4.020  1.2296  0.4003  0.4040
59998SOL     OW97985   0.929   6.472   2.993  0.1789  0.2116  0.1025
59998SOL    HW197986   0.989   6.532   2.948 -0.8423  1.3126  0.1435
59998SOL    HW297987   0.849   6.524   3.004 -1.7972 -1.9903 -2.4131
59999SOL     OW97988   6.674   6.772  13.519 -0.1732  0.1304  0.6216
59999SOL    HW197989   6.740   6.704  13.533  0.6427  1.0876  1.6723
59999SOL    HW297990   6.622   6.773  13.599 -2.4554 -1.5722 -0.7378
60000SOL     OW97991   0.629   5.716   9.605 -0.4408  0.6492  0.7378
60000SOL    HW197992   0.695   5.720   9.674 -0.6627 -1.2499  1.1285
60000SOL    HW297993   0.563   5.656   9.639 -0.0056 -1.2772 -1.5337
60001SOL     OW97994   0.689  13.419  12.400 -0.7413 -0.1577  0.2239
60001SOL    HW197995   0.678  13.420  12.495  1.0585  0.8073  0.4620
60001SOL    HW297996   0.632  13.490  12.369 -2.9370 -1.7679  0.3003
60002SOL     OW97997  13.809   0.947   5.529  1.1619 -0.2416  0.2012
60002SOL    HW197998  13.799   1.023   5.472 -1.2186 -0.0045  0.8397
60002SOL    HW297999  13.853   0.982   5.607  2.4787 -0.1257 -0.5589
60003SOL     OW98000   5.892   1.639   1.898 -0.3208  0.7354  0.2619
60003SOL    HW198001   5.817   1.594   1.937  0.6063 -0.5432  0.6786
60003SOL    HW298002   5.882   1.626   1.804  0.0059 -0.5306  0.3823
60004SOL     OW98003   4.308  10.907   0.730  0.2751  0.5408 -0.3687
60004SOL    HW198004   4.213  10.920   0.726  0.1035  0.2506  1.5614
60004SOL    HW298005   4.346  10.990   0.703 -0.6218  1.7846  1.9272
60005SOL     OW98006  10.967  12.161   4.703 -0.3644 -0.0012 -0.4328
60005SOL    HW198007  11.000  12.249   4.718 -0.8786  0.0326  0.6158
60005SOL    HW298008  10.890  12.173   4.648 -2.4816  0.6037  2.4394
60006SOL     OW98009  12.739   9.698  13.353 -0.2414  0.2988 -0.2835
60006SOL    HW198010  12.688   9.631  13.397 -1.3152  1.5430  0.4521
60006SOL    HW298011  12.766   9.658  13.270 -1.5890 -0.7453 -0.2487
60007SOL     OW98012   6.981   5.877   7.699  0.1839 -0.4815  0.3858
60007SOL    HW198013   6.964   5.871   7.793  1.9240 -0.1918  0.7449
60007SOL    HW298014   7.067   5.836   7.687 -0.4358 -1.4488 -1.2456
60008SOL     OW98015  11.499   9.411   5.607  0.1166 -0.0960 -0.1417
60008SOL    HW198016  11.448   9.432   5.685 -0.6594 -1.3122 -0.2951
60008SOL    HW298017  11.438   9.425   5.534 -0.0357 -1.6021 -0.3251
60009SOL     OW98018   7.464   7.368   8.464  0.2699  0.3554  0.7104
60009SOL    HW198019   7.508   7.367   8.549  1.3820 -1.6889  0.1660
60009SOL    HW298020   7.535   7.378   8.400 -0.2823 -0.6079 -0.0750
60010SOL     OW98021  10.479   5.504   3.044  0.3757 -0.4681 -0.1255
60010SOL    HW198022  10.471   5.453   2.963  1.1473 -0.6380 -0.1041
60010SOL    HW298023  10.500   5.439   3.111 -1.0687 -0.4328  0.3768
60011SOL     OW98024   4.040  11.074   3.894  0.3740  0.1679 -0.5110
60011SOL    HW198025   4.084  11.135   3.952 -1.4299  1.3825 -0.3140
60011SOL    HW298026   3.978  11.028   3.950  0.9861 -1.1306 -0.8624
60012SOL     OW98027   2.717   2.845   6.240 -0.1674  0.1809  0.0612
60012SOL    HW198028   2.794   2.875   6.288  0.0672 -0.5391  0.1600
60012SOL    HW298029   2.662   2.803   6.307 -0.5317  0.4782 -0.0488
60013SOL     OW98030   9.769  11.435  14.032 -0.3661  0.4785 -0.2533
60013SOL    HW198031   9.737  11.451  13.943  1.1951  0.9752 -0.7533
60013SOL    HW298032   9.776  11.340  14.039 -0.3920  0.4408 -0.7026
60014SOL     OW98033   0.684  11.515   4.387  0.5644  0.2217  0.4278
60014SOL    HW198034   0.698  11.543   4.477 -1.4126  1.7921  0.3138
60014SOL    HW298035   0.706  11.592   4.334 -0.2689 -0.0088 -0.2694
60015SOL     OW98036   5.985   8.553   1.706 -0.7773  0.4264 -0.7182
60015SOL    HW198037   5.924   8.522   1.639 -1.7871  2.5242 -0.8260
60015SOL    HW298038   6.012   8.640   1.677 -1.9443  1.8015  1.9529
60016SOL     OW98039   3.867   8.354  12.637 -0.2615 -0.1158  0.4991
60016SOL    HW198040   3.817   8.417  12.689  0.3715  1.3366 -0.5916
60016SOL    HW298041   3.936   8.324  12.696  0.1173  1.0950  0.6956
60017SOL     OW98042   0.650   5.598  12.224 -0.3114  0.0884 -0.0082
60017SOL    HW198043   0.627   5.651  12.300 -0.2860  0.9213 -0.5570
60017SOL    HW298044   0.737   5.563  12.244  0.2643  1.3629 -0.1802
60018SOL     OW98045  12.986  13.341   7.864 -0.0743 -0.2268  0.0842
60018SOL    HW198046  12.931  13.264   7.859 -0.8731  0.3433 -0.0151
60018SOL    HW298047  12.977  13.383   7.778  1.2682 -0.6302 -0.2826
60019SOL     OW98048  11.887   0.675  14.012 -0.3539  0.1302  0.4137
60019SOL    HW198049  11.842   0.591  14.023  0.2845 -0.1079  1.3385
60019SOL    HW298050  11.861   0.726  14.089  0.7761  0.0569  0.8670
60020SOL     OW98051   1.450  14.101   3.508 -0.0331  0.0850 -0.4928
60020SOL    HW198052   1.422  14.090   3.417 -0.6788  1.1699 -0.4451
60020SOL    HW298053   1.496  14.184   3.509 -0.0258  0.0777  0.1720
60021SOL     OW98054  10.995   4.283  12.741  0.3036  0.4836 -0.3678
60021SOL    HW198055  10.923   4.254  12.686  0.5292 -0.9195  0.0530
60021SOL    HW298056  10.964   4.271  12.830  0.2927  1.8556 -0.1615
60022SOL     OW98057   4.788   6.158   3.845 -0.1796 -0.4879  0.4015
60022SOL    HW198058   4.704   6.197   3.869 -0.1424 -0.0119 -0.2043
60022SOL    HW298059   4.818   6.210   3.770  0.2467 -1.1915  0.0718
60023SOL     OW98060   4.071   8.621  12.354  0.6200 -0.4228  0.2998
60023SOL    HW198061   4.094   8.528  12.364  0.8841 -0.8578 -3.0931
60023SOL    HW298062   3.997   8.634  12.412  1.0933 -2.5268  1.4870
60024SOL     OW98063   4.757   3.888  13.808  0.4155  0.2447  0.2939
60024SOL    HW198064   4.713   3.901  13.892  0.3575 -1.5516  0.5798
60024SOL    HW298065   4.693   3.915  13.743 -0.0023  0.4731  0.7895
60025SOL     OW98066   8.533   0.724   0.024 -0.0397 -0.1562 -0.0244
60025SOL    HW198067   8.453   0.716  -0.028  0.3314  0.8903 -0.7642
60025SOL    HW298068   8.600   0.753  -0.037  0.3397  1.4136  1.0635
60026SOL     OW98069  10.786  11.026   2.966 -0.2563 -0.0720 -0.0054
60026SOL    HW198070  10.814  11.064   2.882 -0.9484  2.3639  0.7974
60026SOL    HW298071  10.844  11.065   3.031 -1.1804 -0.1590  0.8981
60027SOL     OW98072   4.030   1.341   0.262  0.1447  0.8144 -0.3889
60027SOL    HW198073   4.014   1.416   0.204 -0.2292  2.8926  2.2001
60027SOL    HW298074   4.125   1.341   0.275  0.2160  0.4199 -0.8902
60028SOL     OW98075   2.007   5.173   8.890  0.0174 -0.3056  0.3573
60028SOL    HW198076   2.043   5.087   8.913  1.7773  0.7899  2.0297
60028SOL    HW298077   1.979   5.211   8.973  0.0199  1.0543 -0.2275
60029SOL     OW98078   0.268   8.123   9.679 -0.3943 -0.1406  0.2101
60029SOL    HW198079   0.302   8.087   9.597  0.4683 -0.0848  0.5328
60029SOL    HW298080   0.280   8.052   9.743  1.7109  0.7850  0.9500
60030SOL     OW98081  13.920   9.621   6.745 -0.2029 -0.3375 -0.4648
60030SOL    HW198082  13.830   9.602   6.771 -0.4733  2.3751  0.9745
60030SOL    HW298083  13.912   9.681   6.670  0.2109  2.0306  1.2558
60031SOL     OW98084  13.153  12.679  11.141  0.1563 -0.3629  0.0658
60031SOL    HW198085  13.103  12.634  11.209  0.7902 -2.0463 -0.5435
60031SOL    HW298086  13.103  12.666  11.061  0.9594 -1.0458 -0.3362
60032SOL     OW98087  10.421   1.043  10.066  0.4256 -0.4390 -0.6223
60032SOL    HW198088  10.395   0.957  10.032  0.8859 -0.7276 -0.2426
60032SOL    HW298089  10.415   1.034  10.161 -0.9966  0.4080 -0.5886
60033SOL     OW98090   5.348  13.960  10.567  0.1185 -0.1138 -0.5164
60033SOL    HW198091   5.284  13.963  10.638  0.6554 -0.9401  0.0189
60033SOL    HW298092   5.308  13.903  10.501  0.8153 -1.6810  0.3663
60034SOL     OW98093   4.684   9.006  10.060 -0.0318 -0.1114 -0.5554
60034SOL    HW198094   4.691   9.013  10.155 -0.1739  0.1281 -0.5621
60034SOL    HW298095   4.591   8.986  10.045 -0.0781  0.1759 -0.6609
60035SOL     OW98096   5.140  13.454  14.115  0.0360  0.2794 -0.1538
60035SOL    HW198097   5.118  13.375  14.065 -0.7867  0.9280 -0.8291
60035SOL    HW298098   5.056  13.499  14.127  0.6021  1.4389 -0.4277
60036SOL     OW98099   8.026  13.625   8.119 -0.1280  0.1042  0.1622
60036SOL    HW198100   8.002  13.691   8.184  1.7775  0.5983  0.4479
60036SOL    HW298101   8.020  13.542   8.165 -0.3141  0.3006  0.4931
60037SOL     OW98102   8.845  12.869  13.683 -0.3624  0.4611 -0.0097
60037SOL    HW198103   8.840  12.943  13.623  0.7692 -0.0532 -0.7898
60037SOL    HW298104   8.914  12.813  13.646  0.0220 -0.1174  1.5117
60038SOL     OW98105  12.605   9.243   6.185  0.0627  0.2791  0.4686
60038SOL    HW198106  12.547   9.261   6.259 -0.5121  0.9226 -0.1158
60038SOL    HW298107  12.673   9.310   6.192  0.7075 -0.4251  1.1077
60039SOL     OW98108  12.557   5.003   9.711  0.3471 -0.0135 -0.3236
60039SOL    HW198109  12.636   5.037   9.668  0.6501 -0.2270  0.0612
60039SOL    HW298110  12.568   4.908   9.711 -0.5604 -0.1414 -1.5046
60040SOL     OW98111  13.395   3.187   0.514  0.2630 -0.0667 -0.1991
60040SOL    HW198112  13.414   3.107   0.562 -0.4794  0.9923  1.9748
60040SOL    HW298113  13.448   3.181   0.435  1.4062 -1.9722  0.6576
60041SOL     OW98114   0.958   0.313   0.359 -0.4831 -0.0081 -0.1908
60041SOL    HW198115   0.871   0.315   0.397 -0.0875 -0.7680  0.8084
60041SOL    HW298116   0.952   0.366   0.280 -1.2065  2.1130  1.2135
60042SOL     OW98117   2.685   9.577   1.981  0.3231  0.6714 -0.1674
60042SOL    HW198118   2.688   9.610   2.071  2.9724  1.5277 -0.4679
60042SOL    HW298119   2.733   9.494   1.984 -0.6985  0.0497 -0.5757
60043SOL     OW98120   4.800   9.825   5.900 -0.0249  0.3301  0.1273
60043SOL    HW198121   4.770   9.782   5.820  0.4627 -1.0812  0.6749
60043SOL    HW298122   4.871   9.883   5.871  1.7252 -1.8622 -0.2297
60044SOL     OW98123   1.455  11.088   3.589  0.4041  0.7779 -0.1866
60044SOL    HW198124   1.423  11.039   3.664 -1.4403  0.1991 -1.2732
60044SOL    HW298125   1.546  11.108   3.610  0.3276 -0.5084  1.6021
60045SOL     OW98126   8.288   7.805  11.412  0.0364  0.4929 -0.5748
60045SOL    HW198127   8.256   7.730  11.363 -0.0333  0.7466 -0.9246
60045SOL    HW298128   8.300   7.873  11.346  2.5354  0.0439 -0.6888
60046SOL     OW98129   5.926  14.055  10.261 -0.2801  0.3460 -0.0339
60046SOL    HW198130   5.974  14.010  10.331  1.0091  1.9964  0.1944
60046SOL    HW298131   5.991  14.112  10.220 -1.8178  1.9292 -0.3603
60047SOL     OW98132   0.822   0.638   1.229  0.1933 -0.3832 -0.0475
60047SOL    HW198133   0.909   0.659   1.262  0.0423  1.1503 -0.5378
60047SOL    HW298134   0.800   0.712   1.172 -0.3516 -2.0190 -2.0290
60048SOL     OW98135  12.811   6.390   8.038  0.0990 -0.2239  0.3029
60048SOL    HW198136  12.769   6.305   8.023  0.6847 -0.6889  1.1946
60048SOL    HW298137  12.847   6.383   8.126  0.9740  0.6032  0.0220
60049SOL     OW98138  11.526   5.286   6.862  0.2604 -0.2944  0.1291
60049SOL    HW198139  11.570   5.214   6.908 -0.1690 -1.7091 -1.5595
60049SOL    HW298140  11.560   5.281   6.773 -0.5873  0.9362 -0.2871
60050SOL     OW98141   0.849  11.322   3.804 -0.1897 -0.5608 -0.6282
60050SOL    HW198142   0.880  11.264   3.874 -0.4567 -0.1030 -0.1318
60050SOL    HW298143   0.785  11.269   3.756 -1.6301 -0.1732  0.7862
60051SOL     OW98144   9.096  12.095   8.735 -0.1059  0.1439 -0.1837
60051SOL    HW198145   9.060  12.007   8.743 -0.2817  0.1609 -0.7198
60051SOL    HW298146   9.035  12.141   8.676  0.6368  0.2543 -0.8833
60052SOL     OW98147   8.270   3.921   9.209 -0.4592 -0.1668  0.5791
60052SOL    HW198148   8.328   3.937   9.134 -2.1507 -0.6121 -0.9062
60052SOL    HW298149   8.207   3.993   9.206 -1.5082 -1.0590  0.5614
60053SOL     OW98150   1.244  13.072   6.036  0.5630 -0.4007  0.5572
60053SOL    HW198151   1.198  13.017   6.100  1.3980 -1.6875  0.1048
60053SOL    HW298152   1.194  13.061   5.955 -0.4387  1.1524  0.9344
60054SOL     OW98153   5.269   7.294   0.877  0.3124 -0.2820 -0.2104
60054SOL    HW198154   5.256   7.384   0.846  1.9937 -0.3850 -1.3655
60054SOL    HW298155   5.187   7.250   0.857 -0.4752  0.9278  0.1932
60055SOL     OW98156  13.573   3.594   4.917  0.1595 -0.3567  0.0878
60055SOL    HW198157  13.661   3.597   4.880 -0.5564 -0.3762 -1.7335
60055SOL    HW298158  13.538   3.510   4.887  0.3819 -1.6113  3.0193
60056SOL     OW98159   1.097  12.179   0.736  0.0117  0.1582  0.4653
60056SOL    HW198160   1.094  12.111   0.803  1.7717 -0.0826  0.3559
60056SOL    HW298161   1.045  12.144   0.664  1.2804 -1.3330  0.2175
60057SOL     OW98162   1.968   2.953  10.404  0.1785  0.0688 -0.4617
60057SOL    HW198163   1.987   2.970  10.311 -0.8293  0.5813 -0.5888
60057SOL    HW298164   2.027   3.011  10.452  1.5936 -1.0906 -0.7308
60058SOL     OW98165   9.263   0.844  13.929  0.0983  0.0236 -0.2079
60058SOL    HW198166   9.293   0.756  13.954  1.4818  0.4546 -0.2677
60058SOL    HW298167   9.230   0.833  13.840 -0.8224 -0.6498  0.1947
60059SOL     OW98168   1.514   6.779   3.977 -0.3386  0.1847 -0.1523
60059SOL    HW198169   1.440   6.721   3.958  0.8535 -0.7948 -2.1405
60059SOL    HW298170   1.584   6.721   4.006  0.8767  0.5493 -2.1643
60060SOL     OW98171  10.394   5.951   4.762 -0.0915  0.1930  0.2482
60060SOL    HW198172  10.488   5.962   4.779 -0.0898  0.2144  0.2253
60060SOL    HW298173  10.365   6.038   4.736 -0.2472  0.3368  0.8828
60061SOL     OW98174   4.851  13.127   6.430 -0.4437  0.2428 -0.4168
60061SOL    HW198175   4.819  13.037   6.441  2.2056 -0.7026  0.3112
60061SOL    HW298176   4.913  13.140   6.502  1.5513  1.5093 -2.2412
60062SOL     OW98177   8.725  12.320  13.883  0.4711 -0.0734  0.3463
60062SOL    HW198178   8.702  12.279  13.966 -1.6622 -0.7084 -0.5021
60062SOL    HW298179   8.788  12.260  13.843 -1.5562 -1.9390 -0.2519
60063SOL     OW98180  11.121   2.122   8.084 -0.1175 -0.1905 -0.0901
60063SOL    HW198181  11.082   2.035   8.092 -0.6570  0.1189  0.8798
60063SOL    HW298182  11.062   2.179   8.134  0.4713  0.6564 -0.3331
60064SOL     OW98183   8.738  12.306  11.522  0.2445 -0.2190 -0.4913
60064SOL    HW198184   8.721  12.275  11.610  1.4066 -0.6937 -0.4114
60064SOL    HW298185   8.831  12.329  11.522  0.3805 -0.6658 -1.7130
60065SOL     OW98186   1.326   6.254  11.639 -0.1591  0.0744  0.0169
60065SOL    HW198187   1.270   6.183  11.609 -1.3569  1.4763 -1.2450
60065SOL    HW298188   1.404   6.211  11.672 -2.2088 -2.0223  2.5049
60066SOL     OW98189  12.639   8.795  13.918  0.1087  0.4406 -0.6833
60066SOL    HW198190  12.564   8.812  13.861 -0.4351  0.1098 -0.0781
60066SOL    HW298191  12.683   8.879  13.926 -0.8640  0.9128 -0.1015
60067SOL     OW98192   3.619   7.064   6.998  0.0016 -0.2310 -0.9535
60067SOL    HW198193   3.660   7.109   6.925  1.5569  2.0766  1.1915
60067SOL    HW298194   3.534   7.108   7.010  0.7859  1.0589  0.0737
60068SOL     OW98195   3.216   1.914  12.233 -0.2999  0.4531 -0.3643
60068SOL    HW198196   3.153   1.847  12.260 -0.0896  0.6077  0.5370
60068SOL    HW298197   3.283   1.866  12.185  1.2623 -0.4617  2.5329
60069SOL     OW98198   6.553   1.434  13.321 -0.4314  0.1989  0.1903
60069SOL    HW198199   6.530   1.343  13.338 -0.0156  0.1841  0.7153
60069SOL    HW298200   6.643   1.431  13.289 -1.2968  0.2050 -2.4235
60070SOL     OW98201   4.168  10.921   7.506 -0.3248 -0.4258 -0.1943
60070SOL    HW198202   4.263  10.917   7.499 -0.3554 -0.1271 -0.8090
60070SOL    HW298203   4.136  10.917   7.416 -0.8963 -0.4680  0.0010
60071SOL     OW98204   7.425   1.616   3.974 -0.0308 -0.0832 -0.3035
60071SOL    HW198205   7.492   1.663   3.923 -1.2617  1.3174 -0.7089
60071SOL    HW298206   7.353   1.604   3.912 -0.0139 -2.0120 -0.0168
60072SOL     OW98207   8.267   2.799   0.336 -0.1308  0.1241  0.1628
60072SOL    HW198208   8.207   2.747   0.389  0.1865  1.0014  1.4189
60072SOL    HW298209   8.262   2.760   0.249 -0.8856 -1.1642  0.7592
60073SOL     OW98210  11.949   9.234  11.568  0.1131 -0.2736 -0.2806
60073SOL    HW198211  11.927   9.274  11.484 -0.4834 -0.6432 -0.3034
60073SOL    HW298212  12.036   9.269  11.589 -0.2666  0.7931 -0.4395
60074SOL     OW98213   4.069  10.070   5.127 -0.3940  0.2007  0.0109
60074SOL    HW198214   4.075  10.140   5.192 -1.5748 -0.4597  0.8718
60074SOL    HW298215   4.159  10.038   5.119  0.0312  1.2755  0.1843
60075SOL     OW98216  14.040   8.602   4.723  1.1084  0.2750  0.0387
60075SOL    HW198217  13.974   8.671   4.724 -0.2473 -0.9615  0.8729
60075SOL    HW298218  14.111   8.635   4.778 -0.0552  0.5506  1.4367
60076SOL     OW98219   6.991  12.159  11.030 -0.0860  0.2643  0.0526
60076SOL    HW198220   6.967  12.073  10.995 -0.2832 -0.1765  1.2136
60076SOL    HW298221   6.926  12.219  10.994  1.2090  0.3347 -2.4073
60077SOL     OW98222   8.177   7.115  13.511  0.1340  0.1903 -0.5890
60077SOL    HW198223   8.237   7.043  13.528 -0.2428  0.1360  0.5700
60077SOL    HW298224   8.234   7.190  13.492  0.5295 -0.2912 -1.3387
60078SOL     OW98225   0.926   3.648  11.194 -0.0603  0.0999 -0.0829
60078SOL    HW198226   1.021   3.637  11.206 -0.2691  0.2521  2.1046
60078SOL    HW298227   0.918   3.728  11.141  1.0341 -0.6009 -1.3702
60079SOL     OW98228   0.828   0.674   8.203 -0.0105 -0.5023 -0.1573
60079SOL    HW198229   0.863   0.741   8.143 -1.8254 -0.1066 -0.8472
60079SOL    HW298230   0.766   0.625   8.150 -1.1358 -0.6141  1.2011
60080SOL     OW98231   4.692  12.134  12.994  0.0571 -0.2439  0.3788
60080SOL    HW198232   4.659  12.183  13.069 -0.8821 -1.7064  0.9681
60080SOL    HW298233   4.683  12.042  13.019  0.8943 -0.7552 -1.0470
60081SOL     OW98234  10.700   6.478   8.307  0.4338 -0.2512 -0.7614
60081SOL    HW198235  10.690   6.461   8.213 -0.1143  2.6732 -1.3305
60081SOL    HW298236  10.617   6.519   8.333  0.3789 -1.4694  1.1546
60082SOL     OW98237  10.873  10.071  12.571  0.5366 -0.0764 -0.0309
60082SOL    HW198238  10.833   9.984  12.580 -0.1887  0.1702 -0.7325
60082SOL    HW298239  10.915  10.087  12.656  1.1893 -1.3538 -0.0927
60083SOL     OW98240  13.655   0.550  11.938  0.3794  0.0771  0.9596
60083SOL    HW198241  13.692   0.513  12.018  1.1964  1.1603  1.1119
60083SOL    HW298242  13.714   0.623  11.916  1.5374 -1.5162 -1.8572
60084SOL     OW98243  11.648   5.645   8.537  0.7835 -0.3559 -0.0532
60084SOL    HW198244  11.706   5.691   8.598  1.4672  0.3182 -1.1816
60084SOL    HW298245  11.566   5.696   8.540  0.3382 -1.0852  1.2470
60085SOL     OW98246   7.222   7.998   2.804 -0.5609  0.0360  0.3670
60085SOL    HW198247   7.268   8.052   2.869  2.2017 -0.8864 -0.7092
60085SOL    HW298248   7.281   7.995   2.729 -2.0810 -1.8518 -0.8411
60086SOL     OW98249   1.912  13.374   3.544  0.9074 -0.1257  0.0043
60086SOL    HW198250   1.822  13.357   3.569  0.7259 -0.5242 -0.8648
60086SOL    HW298251   1.963  13.356   3.623  0.5022 -2.6284 -0.2015
60087SOL     OW98252   8.141  10.204   8.664 -0.4620 -0.9027 -0.3175
60087SOL    HW198253   8.195  10.244   8.732  0.9386 -0.9140 -1.3671
60087SOL    HW298254   8.146  10.110   8.681 -2.7123 -0.7891  1.3917
60088SOL     OW98255   7.199   1.869   1.044 -0.2117  0.2701  0.1183
60088SOL    HW198256   7.229   1.960   1.050  0.2936  0.1778 -0.8521
60088SOL    HW298257   7.273   1.818   1.075  0.1786  0.1074 -1.0411
60089SOL     OW98258   2.305   7.137   7.006  0.5058  0.2497 -0.5264
60089SOL    HW198259   2.240   7.208   7.003  0.1602 -0.0185  0.4380
60089SOL    HW298260   2.272   7.073   6.943 -0.6471 -0.2664  0.5487
60090SOL     OW98261   3.495   5.763   0.831  0.4867  0.6617 -0.1906
60090SOL    HW198262   3.530   5.851   0.817 -0.3286  1.0213  0.0392
60090SOL    HW298263   3.425   5.774   0.895 -0.7538  0.1125 -1.4090
60091SOL     OW98264   0.265   5.367   5.886 -0.5359  0.3993 -0.2998
60091SOL    HW198265   0.171   5.359   5.869 -0.0354 -0.7145 -3.1467
60091SOL    HW298266   0.297   5.428   5.820  0.8762  0.0327  0.0033
60092SOL     OW98267   1.092   5.776   0.578  0.4532  0.1440 -0.7639
60092SOL    HW198268   1.065   5.862   0.544 -1.4383 -0.2794 -0.4026
60092SOL    HW298269   1.066   5.778   0.670  0.1397 -0.9210 -0.8235
60093SOL     OW98270   7.786  13.428   1.711 -0.5303 -0.4343  0.4712
60093SOL    HW198271   7.700  13.435   1.669 -0.7930  0.6630  1.1424
60093SOL    HW298272   7.784  13.495   1.779  0.6712 -0.7580  0.8365
60094SOL     OW98273   1.935   3.403  12.851 -0.9869  0.1368 -0.5949
60094SOL    HW198274   2.012   3.391  12.796 -0.2648 -1.0885  0.6262
60094SOL    HW298275   1.947   3.490  12.890  0.0483 -0.2439 -0.0314
60095SOL     OW98276   3.496   0.415   6.356 -0.1320  0.0808  0.3325
60095SOL    HW198277   3.454   0.431   6.271  1.4091  0.0899 -0.4546
60095SOL    HW298278   3.587   0.396   6.335 -0.2735 -2.5961  1.7998
60096SOL     OW98279   0.853   3.191   8.032 -0.3568  0.0920 -0.0838
60096SOL    HW198280   0.891   3.140   8.103  0.3589  0.4699 -0.1944
60096SOL    HW298281   0.886   3.280   8.045 -3.0137  1.0074  1.1812
60097SOL     OW98282   1.217   3.606   8.152 -0.1502  0.6835  0.0212
60097SOL    HW198283   1.306   3.577   8.133 -0.5370  0.4144 -1.5039
60097SOL    HW298284   1.218   3.700   8.132 -0.3021  0.6088 -0.3336
60098SOL     OW98285  12.778   8.079  12.219  0.1251  0.0717 -0.3960
60098SOL    HW198286  12.793   8.122  12.303  1.9287 -0.5160 -0.3813
60098SOL    HW298287  12.847   8.113  12.162 -0.4179 -0.3591 -1.3396
60099SOL     OW98288   8.903   7.763   4.133 -0.2419 -0.0181 -0.2984
60099SOL    HW198289   8.923   7.708   4.057  2.7666 -0.4225  0.6532
60099SOL    HW298290   8.946   7.846   4.115  0.6656 -0.1837  1.0168
60100SOL     OW98291   1.334   6.108   8.355 -0.4716  0.9095  0.6751
60100SOL    HW198292   1.328   6.078   8.446 -0.8844 -0.0337  0.3513
60100SOL    HW298293   1.295   6.037   8.304  2.5945 -0.0838 -0.5253
60101SOL     OW98294   9.433   2.729   0.494 -0.3690 -0.0758 -0.0016
60101SOL    HW198295   9.389   2.655   0.537 -2.8080  0.0311 -2.0544
60101SOL    HW298296   9.405   2.724   0.403  2.1785  1.4286 -0.9895
60102SOL     OW98297  13.364  13.198  11.993  0.1175 -0.5543 -0.1465
60102SOL    HW198298  13.291  13.249  11.959 -1.4368 -2.2314  0.4907
60102SOL    HW298299  13.373  13.226  12.084  1.6156  1.0451 -0.7381
60103SOL     OW98300   5.954   3.592   3.415  0.1148 -0.4358 -0.0557
60103SOL    HW198301   5.896   3.547   3.476 -1.0771 -1.6690 -1.9870
60103SOL    HW298302   5.924   3.565   3.329  1.8208  1.1145 -1.2222
60104SOL     OW98303   3.668   9.908  10.211 -0.4470 -0.0052 -0.0417
60104SOL    HW198304   3.620   9.899  10.129  0.2791  0.0351 -0.4789
60104SOL    HW298305   3.705   9.996  10.208  1.8475 -0.9309 -0.9415
60105SOL     OW98306   0.245  13.570  12.275  0.5460  0.0763  1.0557
60105SOL    HW198307   0.187  13.552  12.349  1.8737 -0.1998  2.0819
60105SOL    HW298308   0.247  13.488  12.226  0.6879 -0.1780  1.4771
60106SOL     OW98309   5.972   5.360   9.856 -0.3832  0.0862  0.0150
60106SOL    HW198310   5.966   5.274   9.813 -3.4812  0.3601 -0.3787
60106SOL    HW298311   5.915   5.351   9.933 -0.5492  1.7018  0.0982
60107SOL     OW98312   1.313   7.755   1.452  0.2244 -0.4754  0.1219
60107SOL    HW198313   1.289   7.848   1.451  4.2498  0.7628 -0.6547
60107SOL    HW298314   1.273   7.719   1.373 -0.3184  0.9482 -0.2869
60108SOL     OW98315   7.772   6.143   7.329 -0.0489  0.2002 -0.0117
60108SOL    HW198316   7.809   6.055   7.335  1.1319  0.6471 -0.5174
60108SOL    HW298317   7.679   6.128   7.307  0.5621 -0.8968 -2.1869
60109SOL     OW98318   4.114   3.494   4.578 -0.1568  0.2608  0.1029
60109SOL    HW198319   4.128   3.424   4.642 -0.3165  1.4980  1.5674
60109SOL    HW298320   4.061   3.455   4.510  1.1668 -1.5003  0.0128
60110SOL     OW98321   0.305   8.790  13.975 -0.2868 -0.6946  0.2687
60110SOL    HW198322   0.374   8.837  14.021 -0.6067  0.8350 -0.7372
60110SOL    HW298323   0.290   8.841  13.895 -0.2243 -2.8677 -1.2185
60111SOL     OW98324   7.495   9.288   0.520 -0.4653 -0.0305  0.6346
60111SOL    HW198325   7.420   9.230   0.517 -0.9953  0.6407  0.6924
60111SOL    HW298326   7.509   9.315   0.429 -0.8129  0.4937  0.7335
60112SOL     OW98327   3.734   1.500   9.205  0.1388  0.7930 -0.2115
60112SOL    HW198328   3.651   1.529   9.244  0.7487  1.5513  0.5715
60112SOL    HW298329   3.746   1.558   9.129 -0.0988  0.6069 -0.3927
60113SOL     OW98330   9.097  11.792   3.546  0.2757 -0.1212  0.4184
60113SOL    HW198331   9.036  11.762   3.613  1.1181 -1.5776  0.5757
60113SOL    HW298332   9.079  11.736   3.471  0.9033 -0.0592  0.2172
60114SOL     OW98333   9.663   1.859  12.093  0.2808  0.4059  0.7232
60114SOL    HW198334   9.709   1.776  12.103 -0.5052 -0.0589  0.4934
60114SOL    HW298335   9.725   1.924  12.128  2.1118  0.0964 -1.6784
60115SOL     OW98336   3.844   1.990   3.718  0.1165 -0.6084 -0.4862
60115SOL    HW198337   3.913   1.967   3.656 -0.3295 -1.3830 -0.7084
60115SOL    HW298338   3.891   2.016   3.797  0.7241 -4.1799  0.5131
60116SOL     OW98339   7.267   4.548   1.394 -0.2678 -0.3446  0.4704
60116SOL    HW198340   7.272   4.610   1.467 -0.1247  0.1346  0.0589
60116SOL    HW298341   7.297   4.597   1.318  1.1349 -1.2992  0.3591
60117SOL     OW98342   1.717  11.685   8.662  0.5741  0.3485 -0.0702
60117SOL    HW198343   1.640  11.646   8.704  0.5562 -0.4873 -0.8350
60117SOL    HW298344   1.715  11.777   8.687 -2.2742  1.0307 -2.3154
60118SOL     OW98345   9.396   9.201   3.276  0.4343  0.0436  0.5948
60118SOL    HW198346   9.453   9.274   3.300  0.1694  0.4241  0.0854
60118SOL    HW298347   9.445   9.154   3.209  0.1054  0.4329  0.0795
60119SOL     OW98348   9.192  11.965   0.043  0.1452  0.5293 -0.3046
60119SOL    HW198349   9.140  11.895   0.082  0.0687  0.5991 -0.2789
60119SOL    HW298350   9.128  12.016  -0.008  0.0682  0.9791  0.2293
60120SOL     OW98351   2.943   3.730   9.122  0.1094  0.1748 -0.2204
60120SOL    HW198352   2.894   3.742   9.204  0.6685  0.7719  0.0332
60120SOL    HW298353   2.934   3.636   9.103 -0.1357  0.0510  0.4541
60121SOL     OW98354  12.500   2.348   1.166 -0.9529 -0.2010  0.6668
60121SOL    HW198355  12.448   2.421   1.132 -0.3451  0.1718  0.5172
60121SOL    HW298356  12.530   2.301   1.087 -1.7541 -0.9159  0.7739
60122SOL     OW98357   7.695  13.551  13.421  0.3428 -0.0725  0.2129
60122SOL    HW198358   7.745  13.538  13.340 -0.9217 -2.7549 -0.2608
60122SOL    HW298359   7.761  13.566  13.488  1.5521 -0.0422 -0.9443
60123SOL     OW98360   0.507   9.382  10.324  0.6846 -0.4310  0.5507
60123SOL    HW198361   0.541   9.457  10.372  0.5609 -0.3016  0.4357
60123SOL    HW298362   0.446   9.340  10.385 -2.0392  1.6006 -0.5899
60124SOL     OW98363   0.073   5.553  11.735 -0.1815 -0.4762 -0.7200
60124SOL    HW198364   0.008   5.618  11.762  0.6482 -0.0030  0.2125
60124SOL    HW298365   0.105   5.516  11.817 -1.0027 -2.4627 -1.2403
60125SOL     OW98366   3.056   2.534   7.748 -0.2115  0.0417 -0.0210
60125SOL    HW198367   3.141   2.565   7.718  0.7778 -2.4128 -0.0023
60125SOL    HW298368   3.023   2.482   7.676 -1.8125  1.0652 -0.0735
60126SOL     OW98369   6.278   6.150  13.084 -0.1198  0.1490  0.5064
60126SOL    HW198370   6.226   6.073  13.106 -0.9533  0.7006  0.5016
60126SOL    HW298371   6.309   6.133  12.995 -1.6467  0.5149 -0.1293
60127SOL     OW98372   6.157  10.303   3.520  0.3855  0.1424 -0.3782
60127SOL    HW198373   6.180  10.325   3.430  1.4122  0.8144  0.0345
60127SOL    HW298374   6.067  10.335   3.530  1.2771  2.8964 -0.2665
60128SOL     OW98375  14.000  10.445   9.534  0.8197  0.4085  0.3355
60128SOL    HW198376  14.057  10.516   9.564  0.7192  0.6668 -0.0710
60128SOL    HW298377  14.023  10.370   9.589  1.5314  0.5197  0.1970
60129SOL     OW98378   7.295   4.777   6.719 -0.6069  0.6745 -0.3385
60129SOL    HW198379   7.355   4.737   6.656 -1.8053  0.7888 -1.6115
60129SOL    HW298380   7.337   4.858   6.745 -0.6656  1.2951 -2.0507
60130SOL     OW98381   6.495   7.161   4.027 -0.6033  0.0185  0.2456
60130SOL    HW198382   6.421   7.213   4.060  0.6420  2.0882 -0.0359
60130SOL    HW298383   6.570   7.220   4.035  1.0476 -2.0212  0.5507
60131SOL     OW98384  13.210   3.318   6.758 -0.0870 -0.4514 -0.0302
60131SOL    HW198385  13.170   3.389   6.708  0.9787 -0.7739 -1.4058
60131SOL    HW298386  13.175   3.238   6.718 -0.2088 -0.7132  0.5938
60132SOL     OW98387   4.236   7.746  10.183 -0.1846  0.0606  0.0559
60132SOL    HW198388   4.231   7.651  10.196  0.3973  0.2081  1.5919
60132SOL    HW298389   4.235   7.757  10.088 -1.4440 -1.4061 -0.1477
60133SOL     OW98390   5.484  13.247  10.360 -0.5690 -0.2679  0.7129
60133SOL    HW198391   5.399  13.285  10.384 -0.3732  0.7365 -0.0960
60133SOL    HW298392   5.500  13.180  10.427 -1.3679  0.4528  1.6629
60134SOL     OW98393   0.836   1.031  13.631 -0.2464  0.3638  0.8513
60134SOL    HW198394   0.827   1.123  13.606 -2.0681  0.5469  1.9870
60134SOL    HW298395   0.753   0.991  13.606  0.2594 -0.8193  1.0028
60135SOL     OW98396  12.171   6.646   1.572 -0.0054  0.5620 -1.0100
60135SOL    HW198397  12.245   6.707   1.571  2.1796 -1.5708  3.0173
60135SOL    HW298398  12.191   6.582   1.504  1.0355  0.9180 -1.0535
60136SOL     OW98399   9.083   1.770  12.871 -0.6776  0.2269 -0.4970
60136SOL    HW198400   9.164   1.820  12.878  0.2566 -1.4351  1.8670
60136SOL    HW298401   9.103   1.699  12.811 -0.1562 -0.5192  0.5382
60137SOL     OW98402   8.622   8.932   2.810 -0.7347 -0.0245  0.5130
60137SOL    HW198403   8.690   8.868   2.826  0.8223  0.3492 -3.5159
60137SOL    HW298404   8.652   9.011   2.856  1.6946  0.1265 -1.1395
60138SOL     OW98405   1.385   5.313   1.735  0.0998  0.1813 -0.0452
60138SOL    HW198406   1.452   5.334   1.670 -0.4028  1.6624 -0.1160
60138SOL    HW298407   1.347   5.398   1.758  0.0191 -0.3538  1.9152
60139SOL     OW98408   3.598  12.242   7.535  0.1908  0.0807 -0.3720
60139SOL    HW198409   3.692  12.258   7.547  0.0936  1.6096 -1.3358
60139SOL    HW298410   3.558  12.329   7.546 -1.0690 -0.4693 -0.4458
60140SOL     OW98411   9.309  10.306  13.543  0.3874  0.5121 -0.4327
60140SOL    HW198412   9.241  10.241  13.562  0.7560  0.5449  1.1202
60140SOL    HW298413   9.390  10.267  13.576  1.1209  0.5533 -2.1034
60141SOL     OW98414  11.688   7.615   3.752  0.1240  0.1918  0.8347
60141SOL    HW198415  11.745   7.611   3.675 -1.9041  0.7984 -0.7864
60141SOL    HW298416  11.747   7.633   3.825  2.0495  0.2794 -0.6759
60142SOL     OW98417  12.666   7.310  13.781  0.0516  0.5996 -0.6498
60142SOL    HW198418  12.616   7.228  13.779 -3.3097  2.4794 -1.2656
60142SOL    HW298419  12.684   7.329  13.688 -1.1017  1.5684 -0.6969
60143SOL     OW98420  11.169   9.395   3.681  0.3599 -0.1235  0.0316
60143SOL    HW198421  11.189   9.442   3.599  2.6724  0.5139  0.8741
60143SOL    HW298422  11.255   9.383   3.722 -0.6829 -1.0990  2.0167
60144SOL     OW98423   9.697  11.379   4.654  0.5070  0.2388 -0.3726
60144SOL    HW198424   9.626  11.433   4.620 -0.2932 -0.5837 -0.0516
60144SOL    HW298425   9.756  11.367   4.579  0.4545  1.1346 -0.5748
60145SOL     OW98426   2.922   1.566   0.475 -0.2449  0.3932  0.4501
60145SOL    HW198427   2.834   1.577   0.511 -0.1553 -0.4308  0.9347
60145SOL    HW298428   2.966   1.649   0.495 -1.1132  1.0957 -0.4258
60146SOL     OW98429   4.561   5.719   3.875 -0.2278 -0.1958  0.1338
60146SOL    HW198430   4.495   5.745   3.810  0.6250  1.6122 -0.0735
60146SOL    HW298431   4.620   5.661   3.827 -1.0606 -0.9899  0.0386
60147SOL     OW98432   0.964   9.029  11.311 -0.0183 -0.2829  0.3268
60147SOL    HW198433   0.908   8.971  11.259 -1.6298  1.7079 -0.2980
60147SOL    HW298434   0.931   9.021  11.400  0.1500 -0.7478  0.3499
60148SOL     OW98435   0.314   6.982   9.607  0.5569 -0.1051  0.5384
60148SOL    HW198436   0.288   7.011   9.520 -0.1805 -3.2317 -0.4173
60148SOL    HW298437   0.350   7.060   9.649 -0.4673  1.8593 -1.9924
60149SOL     OW98438  13.200   6.096  12.428 -0.0030 -0.1485 -0.4745
60149SOL    HW198439  13.119   6.049  12.444  0.6024 -1.5205 -1.3154
60149SOL    HW298440  13.239   6.107  12.515  0.8948 -3.1771 -0.3889
60150SOL     OW98441   1.051   4.613  11.423  0.1171  0.1519  0.5010
60150SOL    HW198442   1.024   4.643  11.336  0.7970 -1.0631 -0.1525
60150SOL    HW298443   0.974   4.571  11.459  0.3745 -1.1027 -0.3465
60151SOL     OW98444  10.581   3.646   7.717  0.3910 -0.9204 -0.8801
60151SOL    HW198445  10.493   3.634   7.753  0.6714 -0.0651  0.1487
60151SOL    HW298446  10.577   3.728   7.668  1.3946  1.0173  2.0024
60152SOL     OW98447  13.681   2.631   4.676  0.0147  0.4447  0.3672
60152SOL    HW198448  13.611   2.607   4.615  0.0040  1.1402  0.0986
60152SOL    HW298449  13.715   2.547   4.708 -1.1646  0.0963  0.7604
60153SOL     OW98450  11.490   9.987   0.180  0.0201  0.2004 -0.0064
60153SOL    HW198451  11.548  10.017   0.111 -1.2664  3.2523  0.0737
60153SOL    HW298452  11.487   9.892   0.169  2.8840  0.1734 -1.6254
60154SOL     OW98453   6.565  12.056   5.687  0.8734 -0.3458 -0.1972
60154SOL    HW198454   6.522  12.122   5.742 -1.4290 -1.3409 -0.6585
60154SOL    HW298455   6.542  12.081   5.597 -0.6975 -2.0702 -0.3574
60155SOL     OW98456   3.067   6.241  12.900  0.6104  0.0285 -0.0666
60155SOL    HW198457   3.010   6.318  12.909 -0.1742 -0.6146  0.6505
60155SOL    HW298458   3.148   6.275  12.862  0.1223  1.1390 -0.1417
60156SOL     OW98459   4.132   2.595   7.100  0.3111  0.4107 -0.2453
60156SOL    HW198460   4.152   2.502   7.091 -1.3061  0.0456 -0.3076
60156SOL    HW298461   4.054   2.609   7.046 -0.5701  1.4027  1.2118
60157SOL     OW98462   6.542  12.466   3.157 -0.3488  0.5897  0.0244
60157SOL    HW198463   6.507  12.482   3.245 -1.2109 -1.1002  0.0429
60157SOL    HW298464   6.479  12.407   3.117  1.5686 -1.1642 -0.6104
60158SOL     OW98465  13.979   9.626   2.363  0.3449  0.2160 -0.6453
60158SOL    HW198466  13.983   9.614   2.269 -0.4942 -2.1883 -0.4388
60158SOL    HW298467  13.893   9.592   2.389  0.9697 -0.1557  1.1007
60159SOL     OW98468   7.053   3.513   2.711  0.8050 -0.2499 -0.2633
60159SOL    HW198469   7.117   3.562   2.763  1.6862 -1.2733 -0.3357
60159SOL    HW298470   7.104   3.442   2.671 -0.2183 -0.5875 -1.0176
60160SOL     OW98471   7.603   3.656  10.540 -0.4560 -0.3976  0.1628
60160SOL    HW198472   7.542   3.616  10.478 -1.1261  1.0009 -0.1189
60160SOL    HW298473   7.638   3.582  10.590 -0.5412 -1.4629 -1.2972
60161SOL     OW98474   2.564  12.345  10.244 -0.4021  0.0015  0.2328
60161SOL    HW198475   2.474  12.372  10.225 -0.2479  0.0994 -0.4068
60161SOL    HW298476   2.614  12.375  10.168  0.1851  0.0148  0.6165
60162SOL     OW98477   0.781  13.094   6.009 -0.6224 -0.3173 -0.2334
60162SOL    HW198478   0.792  13.075   6.102 -1.6093 -1.4710 -0.3130
60162SOL    HW298479   0.690  13.125   6.002  0.3917  2.9656 -0.3932
60163SOL     OW98480   1.732  13.277  10.947 -1.3254 -0.1707  0.6491
60163SOL    HW198481   1.804  13.338  10.964 -1.1594 -0.1393 -0.1588
60163SOL    HW298482   1.657  13.333  10.928 -1.3444 -0.2149  0.5942
60164SOL     OW98483  13.569  13.938   6.114  0.0620  0.2493 -0.4307
60164SOL    HW198484  13.509  13.897   6.052  0.3634  0.0728 -0.6057
60164SOL    HW298485  13.523  13.933   6.199  0.3503 -0.9720 -0.3404
60165SOL     OW98486  11.838  13.796   1.592  0.1940 -0.2295 -0.4665
60165SOL    HW198487  11.757  13.832   1.629  0.0114 -1.2633  0.1822
60165SOL    HW298488  11.889  13.769   1.667  0.9786  0.0304 -0.8934
60166SOL     OW98489  14.107   0.937   3.988 -0.2772  0.3036 -0.4091
60166SOL    HW198490  14.099   1.031   4.008  0.4119  0.4694 -0.8892
60166SOL    HW298491  14.197   0.927   3.956 -1.4272  0.1777 -3.9877
60167SOL     OW98492   0.552   6.055   2.376 -0.4337  0.1455 -0.3637
60167SOL    HW198493   0.638   6.085   2.348 -0.1835 -0.0977  0.1193
60167SOL    HW298494   0.519   6.003   2.303 -1.1029  1.9829 -1.4373
60168SOL     OW98495   3.624   2.001   2.774  0.4924 -0.2114 -0.4642
60168SOL    HW198496   3.663   1.987   2.861 -0.7044 -0.4909  0.0484
60168SOL    HW298497   3.568   1.925   2.761 -0.2959  0.4319 -0.9372
60169SOL     OW98498   1.127   7.028   2.489  0.0334 -0.2606  0.7777
60169SOL    HW198499   1.171   7.104   2.526 -0.0588  0.7731 -1.1053
60169SOL    HW298500   1.197   6.963   2.478  0.5779  0.3964  0.2712
60170SOL     OW98501   9.169  10.285   8.817  0.0139 -0.6674  0.2246
60170SOL    HW198502   9.157  10.288   8.912 -0.8910  0.3202  0.0966
60170SOL    HW298503   9.113  10.212   8.788  0.0609 -0.7816  0.4219
60171SOL     OW98504  11.442   4.305   4.702 -0.2361 -0.4719  0.0147
60171SOL    HW198505  11.370   4.348   4.657 -0.5669 -0.9579  0.0636
60171SOL    HW298506  11.497   4.376   4.734 -0.9754 -0.0786  0.4329
60172SOL     OW98507   6.384   6.016   8.531 -0.4374 -0.0644 -0.0323
60172SOL    HW198508   6.309   5.959   8.514 -1.1322  0.1017  2.1202
60172SOL    HW298509   6.346   6.104   8.538 -0.0037  0.0793  0.6354
60173SOL     OW98510   9.489   2.104   1.101 -0.0580 -0.3494 -0.1970
60173SOL    HW198511   9.434   2.139   1.031  1.3727  1.2597 -0.5945
60173SOL    HW298512   9.478   2.166   1.173  0.7220 -0.3563 -0.0651
60174SOL     OW98513   2.897   3.456   5.895 -0.1970 -0.0872  0.7385
60174SOL    HW198514   2.979   3.497   5.866 -0.7950  1.2399  0.8196
60174SOL    HW298515   2.913   3.362   5.889  1.2897  0.1519  0.6452
60175SOL     OW98516  13.335   0.999   5.522  0.6293 -0.1432 -0.1294
60175SOL    HW198517  13.387   1.079   5.525 -0.3835  0.5575 -0.4989
60175SOL    HW298518  13.353   0.962   5.436  0.1148  0.3897 -0.4748
60176SOL     OW98519  11.314   2.238   5.929  0.0119  0.4087 -0.2222
60176SOL    HW198520  11.389   2.215   5.984 -0.1798 -0.8829 -0.4606
60176SOL    HW298521  11.299   2.160   5.875 -1.9254  0.3613  0.3021
60177SOL     OW98522  10.594   9.201  13.648 -0.2644  0.2128  0.8882
60177SOL    HW198523  10.662   9.265  13.629  0.1018 -0.0874  1.1744
60177SOL    HW298524  10.640   9.130  13.693 -0.6782 -0.2205  0.6309
60178SOL     OW98525   7.060  13.563   7.780 -0.2643 -0.2259  0.0240
60178SOL    HW198526   7.023  13.476   7.768  0.6601 -0.6321  0.0886
60178SOL    HW298527   7.080  13.594   7.692  1.2806 -0.9133  0.1084
60179SOL     OW98528   8.498   0.271   6.178  0.0820  0.0323 -0.0141
60179SOL    HW198529   8.437   0.225   6.235  1.1485  0.8228  1.8198
60179SOL    HW298530   8.578   0.219   6.180  0.6202  0.8498  0.4304
60180SOL     OW98531   1.233  11.624   9.193 -0.4126  0.5477 -0.5226
60180SOL    HW198532   1.185  11.558   9.243 -0.8048 -0.4021 -2.0925
60180SOL    HW298533   1.325  11.606   9.211 -0.5600  1.0054  0.7977
60181SOL     OW98534  13.287   7.192   5.712 -0.2724 -0.3086 -0.3465
60181SOL    HW198535  13.263   7.144   5.791  2.5092 -0.8423  0.2923
60181SOL    HW298536  13.356   7.138   5.672  1.1251  1.8358 -1.0190
60182SOL     OW98537   2.367   3.406  12.003 -0.6090 -0.2616  0.1122
60182SOL    HW198538   2.317   3.371  11.929 -1.2089 -0.6555  0.6943
60182SOL    HW298539   2.430   3.465  11.963 -0.9882 -0.3982 -0.7122
60183SOL     OW98540  12.311   5.912   7.365 -0.1700 -0.0518 -0.3419
60183SOL    HW198541  12.247   5.923   7.436  1.5761 -0.0233  1.3135
60183SOL    HW298542  12.317   5.999   7.325 -0.6515  0.1272 -0.0381
60184SOL     OW98543   8.373  11.963   2.902  0.4855  0.0527  0.4930
60184SOL    HW198544   8.310  11.983   2.833  0.1291 -0.1428  0.7564
60184SOL    HW298545   8.335  11.888   2.948  0.8459  0.0183  0.7378
60185SOL     OW98546   7.544   3.769   3.970  0.2232 -0.0255  0.6641
60185SOL    HW198547   7.491   3.714   3.912 -0.9171 -0.4464  2.0672
60185SOL    HW298548   7.629   3.724   3.974 -0.4660 -1.3338  1.2308
60186SOL     OW98549   7.967   8.504   7.173  0.0319 -0.1012 -0.1112
60186SOL    HW198550   8.060   8.484   7.187 -0.1160 -1.0964 -0.5015
60186SOL    HW298551   7.967   8.567   7.101  0.4302  0.2432  0.1856
60187SOL     OW98552  10.378  13.085   5.351 -0.1545 -0.4431 -0.1400
60187SOL    HW198553  10.469  13.058   5.348  0.4790  1.5786 -1.1009
60187SOL    HW298554  10.343  13.064   5.264 -0.1317  0.2219 -0.3164
60188SOL     OW98555   1.789   7.364   8.771  0.1726  0.3443  0.2238
60188SOL    HW198556   1.745   7.347   8.855 -0.4043 -2.9688 -0.6049
60188SOL    HW298557   1.720   7.392   8.712 -0.1694 -1.0249 -0.0617
60189SOL     OW98558   3.859   3.816   1.084 -0.1399 -0.5566  0.2132
60189SOL    HW198559   3.913   3.860   1.151 -0.2831 -0.5459  0.3211
60189SOL    HW298560   3.875   3.723   1.099 -0.4590 -0.5648  0.4988
60190SOL     OW98561   7.787   6.769  12.062  0.0931  0.1896 -0.4786
60190SOL    HW198562   7.861   6.729  12.016 -1.0620 -1.0130 -1.3683
60190SOL    HW298563   7.725   6.698  12.075 -0.2768  0.8401  1.6424
60191SOL     OW98564   5.256   0.048   3.800  0.0699  0.1920  0.4015
60191SOL    HW198565   5.294   0.008   3.722  1.9897  0.8210  0.9392
60191SOL    HW298566   5.186  -0.012   3.827  1.4073 -1.6723 -0.0553
60192SOL     OW98567   1.771  13.562   7.485  0.0287 -0.0482 -0.0183
60192SOL    HW198568   1.715  13.523   7.552 -2.4704  2.0863 -0.6914
60192SOL    HW298569   1.810  13.638   7.527 -0.0614  0.2419 -0.4567
60193SOL     OW98570   4.719  13.013   4.861 -0.0672 -0.2781  0.6741
60193SOL    HW198571   4.782  13.030   4.930  0.8941 -0.8694 -0.0371
60193SOL    HW298572   4.764  12.955   4.800 -2.0284 -2.5284  1.2252
60194SOL     OW98573   2.681   1.622   6.884 -0.5633 -0.1553 -0.2594
60194SOL    HW198574   2.719   1.556   6.942 -0.1094 -0.0789 -0.4656
60194SOL    HW298575   2.704   1.706   6.924  0.5407 -0.0736 -1.0143
60195SOL     OW98576  12.358   7.107  12.849  0.2525  0.8064 -0.3288
60195SOL    HW198577  12.426   7.142  12.791 -1.2320  2.3118 -1.2234
60195SOL    HW298578  12.278   7.152  12.823 -1.1149 -0.8953  0.7196
60196SOL     OW98579   0.827   7.606   5.385 -0.0339  0.3394  0.1066
60196SOL    HW198580   0.739   7.633   5.412 -0.5249 -0.6642 -0.4429
60196SOL    HW298581   0.876   7.687   5.378 -0.3148  0.7842  2.4583
60197SOL     OW98582   5.341   1.839  10.879 -0.3998 -0.0417 -0.2143
60197SOL    HW198583   5.342   1.929  10.910 -0.0348  0.5397 -1.8307
60197SOL    HW298584   5.432   1.822  10.854 -0.7426 -0.3393 -1.3063
60198SOL     OW98585   0.236   5.260   7.421  0.4263  0.2108 -0.0561
60198SOL    HW198586   0.308   5.296   7.472 -0.3165  0.4210  0.8782
60198SOL    HW298587   0.227   5.170   7.450 -0.0971  0.3744  0.3078
60199SOL     OW98588   8.373   7.259   6.883 -0.0771  0.2692 -0.1936
60199SOL    HW198589   8.333   7.202   6.817  1.7590  0.4492 -1.5440
60199SOL    HW298590   8.325   7.341   6.876  1.4558  1.0688 -3.0074
60200SOL     OW98591   4.973   2.188   6.712  0.7767 -0.1086 -0.4787
60200SOL    HW198592   5.052   2.209   6.663  0.2282  1.1710 -0.8754
60200SOL    HW298593   4.955   2.267   6.763  0.3577 -0.7814  0.4503
60201SOL     OW98594   9.053  11.685   1.878  0.2614 -0.1583 -0.2535
60201SOL    HW198595   8.980  11.637   1.917  0.5867 -0.2980  0.1886
60201SOL    HW298596   9.123  11.621   1.872  1.0145  0.4621  1.2239
60202SOL     OW98597   5.256  12.347   3.991  0.2159  0.0553 -0.0268
60202SOL    HW198598   5.307  12.428   3.999 -2.4613  1.7685  1.2676
60202SOL    HW298599   5.198  12.362   3.917 -0.2892 -0.6750  0.2072
60203SOL     OW98600   1.290   9.470  11.318  0.4825 -0.6197 -0.6398
60203SOL    HW198601   1.340   9.552  11.312  0.3191 -0.5312 -0.8180
60203SOL    HW298602   1.251   9.472  11.406  1.0331 -0.8318 -0.3856
60204SOL     OW98603  13.172   5.577   9.121 -0.5518 -0.4045  0.3548
60204SOL    HW198604  13.086   5.602   9.087 -0.5279 -0.3286  0.3495
60204SOL    HW298605  13.184   5.486   9.092 -0.1510 -0.0601 -0.5764
60205SOL     OW98606   6.945   9.865   3.465  0.1612  0.3546  0.0336
60205SOL    HW198607   6.924   9.817   3.385  0.1876 -1.9298  1.3198
60205SOL    HW298608   6.860   9.895   3.498  0.1583  1.3947 -0.8370
60206SOL     OW98609  11.942   8.986  11.987  0.5454 -0.0558 -0.2718
60206SOL    HW198610  11.903   8.916  12.040  0.4020 -0.4642 -0.9043
60206SOL    HW298611  12.036   8.969  11.990  0.5057 -0.3222 -0.4791
60207SOL     OW98612   7.302  10.674  10.899 -0.2026  0.5028 -0.3416
60207SOL    HW198613   7.245  10.612  10.944  1.3751 -0.3924  0.4922
60207SOL    HW298614   7.297  10.754  10.952  1.4637 -0.4670  1.4020
60208SOL     OW98615   5.657  14.062   8.746  0.3723  0.1858  0.1974
60208SOL    HW198616   5.737  14.060   8.800  0.7857 -0.8240 -0.4193
60208SOL    HW298617   5.677  14.005   8.672 -1.4078 -1.1704  0.7046
60209SOL     OW98618   2.026   3.631   7.234  0.2038  0.6317 -0.0146
60209SOL    HW198619   2.083   3.558   7.258 -1.0510 -0.8470 -1.2787
60209SOL    HW298620   2.062   3.663   7.152  0.8152  1.5531  0.5919
60210SOL     OW98621   6.573  11.099   2.756 -0.5953  0.1520  0.6536
60210SOL    HW198622   6.609  11.107   2.844  2.3459 -0.0617 -0.4299
60210SOL    HW298623   6.648  11.080   2.700 -2.3105  0.4618 -1.9630
60211SOL     OW98624  14.106   3.229  10.492  0.2110  0.1662  0.4431
60211SOL    HW198625  14.099   3.292  10.420 -0.4731 -0.4925 -0.0807
60211SOL    HW298626  14.044   3.160  10.469  0.6507 -0.4953  1.2175
60212SOL     OW98627   7.504  13.026  14.133 -0.0616 -0.0174  0.3648
60212SOL    HW198628   7.434  12.960  14.132  0.4207 -0.5286 -0.3586
60212SOL    HW298629   7.537  13.025  14.223  0.5337 -1.4076  0.1442
60213SOL     OW98630   8.396  13.990  12.423  0.5857 -0.0676  0.2192
60213SOL    HW198631   8.331  14.043  12.377  1.0492  0.5466  0.2466
60213SOL    HW298632   8.464  13.973  12.357  1.0241  0.4131  0.5378
60214SOL     OW98633   6.316   0.769   9.072 -0.0457 -0.3927  0.0801
60214SOL    HW198634   6.304   0.852   9.025  0.7220 -0.5632 -0.4313
60214SOL    HW298635   6.365   0.793   9.150 -0.5591 -0.2418  0.3606
60215SOL     OW98636   0.561   4.430   0.783  0.3503  0.1415 -0.4150
60215SOL    HW198637   0.595   4.507   0.829  1.7803  0.1269 -1.4036
60215SOL    HW298638   0.512   4.467   0.709 -2.6483  0.1984  1.4368
60216SOL     OW98639   9.935   1.609   4.163  0.1832  0.1566  0.3467
60216SOL    HW198640  10.002   1.586   4.098  0.8052  0.7299  0.7586
60216SOL    HW298641   9.982   1.607   4.246  0.0092  1.7738  0.5153
60217SOL     OW98642   9.982   0.406   5.419 -0.2372 -0.1473  0.0937
60217SOL    HW198643  10.069   0.383   5.386 -0.1047  1.1920 -0.5527
60217SOL    HW298644   9.999   0.448   5.504 -0.1780  0.7846 -0.3696
60218SOL     OW98645   3.573   8.167   5.161 -0.0595  0.2840  0.4932
60218SOL    HW198646   3.549   8.108   5.232  1.3571  0.4020  1.1195
60218SOL    HW298647   3.669   8.171   5.164 -0.0194  1.1724 -0.7142
60219SOL     OW98648   4.015   7.319   5.520 -0.0252  0.1028 -0.3618
60219SOL    HW198649   4.057   7.236   5.501  0.7063  0.1845  0.8107
60219SOL    HW298650   3.998   7.317   5.614 -1.4257  0.6438 -0.5635
60220SOL     OW98651   9.682   5.902  13.663 -0.1094  0.0691 -0.3139
60220SOL    HW198652   9.741   5.876  13.734  0.9173 -0.1881 -1.2292
60220SOL    HW298653   9.694   5.996  13.655 -0.7937  0.2212  0.3350
60221SOL     OW98654   5.862  13.979   1.673 -0.0122  0.1043  0.1080
60221SOL    HW198655   5.824  14.032   1.603 -1.4404 -1.0010  0.0137
60221SOL    HW298656   5.955  13.999   1.670 -0.2533  1.1641 -1.1596
60222SOL     OW98657  11.135   7.431   6.147 -0.6713 -0.3531  0.8769
60222SOL    HW198658  11.109   7.376   6.221 -1.7492  0.0716  0.8379
60222SOL    HW298659  11.073   7.407   6.077 -1.3227  1.0611  0.9350
60223SOL     OW98660   5.606   7.477   1.987  0.0166 -0.0947  0.2191
60223SOL    HW198661   5.590   7.497   1.895  0.3319 -0.6128  0.0443
60223SOL    HW298662   5.588   7.383   1.995  1.2226 -0.3257  0.4010
60224SOL     OW98663   7.032   1.191   6.112  0.2138  0.1974  0.1513
60224SOL    HW198664   7.046   1.096   6.116  1.5590  0.0336 -4.0270
60224SOL    HW298665   6.988   1.206   6.028 -1.2317  3.2294  1.2984
60225SOL     OW98666   8.238   6.391  11.433 -0.0866  0.2931 -0.0265
60225SOL    HW198667   8.151   6.430  11.425 -0.1055  0.0174 -1.3164
60225SOL    HW298668   8.222   6.298  11.445  0.0326  0.0901 -1.3231
60226SOL     OW98669  10.689   5.721  10.817 -0.1346  0.1676 -0.3258
60226SOL    HW198670  10.770   5.770  10.803 -0.2121  0.2064 -0.6461
60226SOL    HW298671  10.621   5.788  10.818 -0.3431 -0.0095 -1.6670
60227SOL     OW98672   5.790   8.745   4.289 -0.3390  0.3115  0.0550
60227SOL    HW198673   5.741   8.673   4.250 -0.7508  0.2850  0.6096
60227SOL    HW298674   5.880   8.732   4.260 -0.5699  0.0830 -0.5715
60228SOL     OW98675   9.551   7.048   1.565 -0.5838 -0.6209  0.1985
60228SOL    HW198676   9.504   7.128   1.591 -1.8394 -0.9396 -0.9839
60228SOL    HW298677   9.549   6.993   1.644  0.2420  0.4604  1.0079
60229SOL     OW98678   6.568   2.111  10.416 -0.3266 -0.5262  0.2529
60229SOL    HW198679   6.604   2.026  10.441  0.6854  0.3498  1.9667
60229SOL    HW298680   6.642   2.170  10.420 -1.2657  0.6811  0.3459
60230SOL     OW98681   8.957  10.091   5.385 -0.2101  0.7799  0.4679
60230SOL    HW198682   9.003  10.044   5.315 -2.2830 -0.9420  0.1679
60230SOL    HW298683   8.928  10.023   5.445 -1.5784  1.8772  1.1091
60231SOL     OW98684  13.185   1.826  12.250  0.0663 -0.2246  0.3404
60231SOL    HW198685  13.247   1.859  12.315  0.2693 -1.0514  0.5890
60231SOL    HW298686  13.103   1.818  12.298 -0.1778  0.6435  0.0746
60232SOL     OW98687   0.870   7.127   0.296 -0.4078 -0.5360 -0.4152
60232SOL    HW198688   0.845   7.071   0.370  0.1839 -0.2216  0.0358
60232SOL    HW298689   0.797   7.121   0.235 -1.5285  0.2179  0.7924
60233SOL     OW98690  12.058   9.058   0.200  0.4399  0.1189  0.5141
60233SOL    HW198691  12.052   8.979   0.146  1.5585  0.1434  0.3184
60233SOL    HW298692  12.145   9.093   0.181 -0.2917  1.7805  0.0920
60234SOL     OW98693  13.045  13.325   3.538  0.4059 -0.2286  0.3065
60234SOL    HW198694  13.025  13.415   3.565  0.8985  0.1325 -0.5216
60234SOL    HW298695  13.093  13.288   3.612 -0.2933 -0.0040  0.8868
60235SOL     OW98696   2.686  11.551   1.880 -0.1101 -0.0193 -0.0310
60235SOL    HW198697   2.697  11.628   1.936  1.1101  0.4103 -0.8306
60235SOL    HW298698   2.654  11.585   1.797 -0.3837 -0.4777 -0.1220
60236SOL     OW98699   6.591   9.814   6.980  0.4097 -0.0244  0.2467
60236SOL    HW198700   6.525   9.816   6.911 -1.1693  0.9304  1.6965
60236SOL    HW298701   6.584   9.899   7.023  2.3938 -0.0215  0.6727
60237SOL     OW98702   3.510   8.962   0.090 -0.5948 -0.0906 -0.2822
60237SOL    HW198703   3.468   8.977   0.175 -2.2657 -2.5603 -0.5908
60237SOL    HW298704   3.440   8.931   0.033  0.9824 -0.9923 -1.8347
60238SOL     OW98705  10.940  12.173   1.188  0.0485  0.1504 -0.1357
60238SOL    HW198706  10.978  12.085   1.192 -0.6055 -0.1479 -0.4209
60238SOL    HW298707  10.961  12.211   1.273  3.5755  1.0908 -1.2568
60239SOL     OW98708   2.922  10.957   9.931  0.0656  0.3239  0.3311
60239SOL    HW198709   2.909  10.910  10.014  0.3559 -1.9602 -0.8310
60239SOL    HW298710   3.014  10.940   9.908 -0.7934 -1.9868 -2.0043
60240SOL     OW98711   6.292   5.141   4.774  0.6344 -0.2059 -0.1420
60240SOL    HW198712   6.342   5.223   4.782  0.5662 -0.3469  2.7039
60240SOL    HW298713   6.223   5.161   4.711  1.4581  1.4898 -0.5654
60241SOL     OW98714  11.035  12.270   2.973 -0.0629  0.3743 -0.3254
60241SOL    HW198715  11.057  12.177   2.967  1.6535  0.7823 -0.9575
60241SOL    HW298716  11.065  12.307   2.890  0.1340  1.6519  0.2905
60242SOL     OW98717   9.984   3.477   9.206  0.3552  0.4648 -0.2990
60242SOL    HW198718   9.918   3.539   9.176  0.6024  0.3284 -1.1271
60242SOL    HW298719  10.003   3.422   9.130 -0.3847 -1.1043  0.5917
60243SOL     OW98720   3.500   2.375   0.061 -0.1615  0.5064 -0.0887
60243SOL    HW198721   3.544   2.432   0.124 -1.7179 -0.0272  1.5889
60243SOL    HW298722   3.409   2.407   0.060 -0.9541 -1.5558  0.5038
60244SOL     OW98723   9.333   2.937   1.475  0.2881  0.3054 -0.5540
60244SOL    HW198724   9.380   2.936   1.558 -2.3384  0.0748  1.0493
60244SOL    HW298725   9.348   3.025   1.440  2.8996 -0.1718 -0.8107
60245SOL     OW98726  11.159   8.394  11.775  0.3097 -0.4367 -0.0711
60245SOL    HW198727  11.100   8.403  11.701  0.0092 -1.9918 -0.0517
60245SOL    HW298728  11.245   8.417  11.740 -0.2632  1.9766 -0.0634
60246SOL     OW98729   5.836   0.313   9.263 -0.6130  0.4174  0.1856
60246SOL    HW198730   5.836   0.249   9.335 -0.2454 -1.2364 -1.2007
60246SOL    HW298731   5.756   0.363   9.275 -0.9840 -0.3977  1.2637
60247SOL     OW98732  10.470   1.597   5.151  0.2618  0.0208  0.2123
60247SOL    HW198733  10.412   1.565   5.220  1.4119 -1.1285  0.6932
60247SOL    HW298734  10.501   1.682   5.183 -0.9643  0.5580  0.0340
60248SOL     OW98735   6.211   8.205   8.965  0.3258 -0.0232  0.3080
60248SOL    HW198736   6.171   8.258   8.896  0.4269  1.8043  1.5588
60248SOL    HW298737   6.264   8.268   9.015  1.4040 -1.5686  1.1882
60249SOL     OW98738  11.113   2.685   5.976 -0.3133  0.3321 -0.2462
60249SOL    HW198739  11.150   2.707   5.890  0.2420 -0.7143 -0.3016
60249SOL    HW298740  11.098   2.590   5.971 -1.9448  0.5339  0.1902
60250SOL     OW98741   6.868  13.443   7.114 -0.4758 -0.3704  0.1196
60250SOL    HW198742   6.808  13.431   7.187 -0.4319 -1.5935 -0.0215
60250SOL    HW298743   6.844  13.374   7.052 -0.2480  0.3914 -0.8477
60251SOL     OW98744   1.233   0.979  13.852  0.1654  0.5068  0.2615
60251SOL    HW198745   1.144   1.009  13.833 -0.3330 -1.1397 -0.1259
60251SOL    HW298746   1.280   1.059  13.875 -1.3780  1.4310  0.3701
60252SOL     OW98747   6.424   9.594   0.058  0.2441  0.6610  0.3037
60252SOL    HW198748   6.446   9.686   0.067 -1.6769  1.3181 -0.9928
60252SOL    HW298749   6.369   9.590  -0.020 -2.9248 -0.9506  2.4060
60253SOL     OW98750  13.031   4.301   6.114  0.2707 -0.1644 -0.3763
60253SOL    HW198751  13.081   4.220   6.109  0.8883  0.2346 -0.8898
60253SOL    HW298752  13.097   4.370   6.108 -0.3329  0.3740 -0.9912
60254SOL     OW98753  10.413  10.727   4.347  0.1166  0.3151  0.1299
60254SOL    HW198754  10.410  10.677   4.428 -0.5925  3.0528  1.9179
60254SOL    HW298755  10.330  10.708   4.303 -0.8538  1.0961  1.5663
60255SOL     OW98756   0.336   5.336   1.529 -0.1283  0.1261  0.3996
60255SOL    HW198757   0.394   5.265   1.558  0.0171  0.1064  0.0709
60255SOL    HW298758   0.366   5.355   1.440 -0.1253  0.6468  0.5133
60256SOL     OW98759  12.204   3.048   1.082  0.2910  0.3668 -0.3848
60256SOL    HW198760  12.181   3.012   1.167  0.1019 -0.2327 -0.6883
60256SOL    HW298761  12.296   3.023   1.069  0.6062  1.2509  0.0441
60257SOL     OW98762  12.570   8.596   5.323  0.2725 -0.7565  0.5936
60257SOL    HW198763  12.570   8.691   5.335  1.5045 -0.5029 -1.0193
60257SOL    HW298764  12.491   8.577   5.273  0.1969 -0.5379  0.6304
60258SOL     OW98765  10.430   7.342  12.511 -0.0081 -0.0526 -0.1108
60258SOL    HW198766  10.469   7.350  12.598 -0.1741 -0.9278  0.0567
60258SOL    HW298767  10.376   7.421  12.501  0.4635  0.3285  0.3428
60259SOL     OW98768  11.330   7.325  11.301 -0.0322  0.1355 -0.0585
60259SOL    HW198769  11.351   7.232  11.296  0.8817  0.2846  0.7281
60259SOL    HW298770  11.402   7.364  11.350 -1.6332  0.8522  1.8670
60260SOL     OW98771   9.661   4.622   7.199 -1.1587  0.2974  0.3914
60260SOL    HW198772   9.631   4.664   7.280 -1.4325 -2.5252  1.9121
60260SOL    HW298773   9.582   4.609   7.147 -1.0759  1.5418 -0.0711
60261SOL     OW98774   3.009   4.869   4.749  0.2428 -0.1032  0.1928
60261SOL    HW198775   3.009   4.961   4.773 -1.0711 -0.3755  1.3591
60261SOL    HW298776   3.093   4.835   4.781 -0.0114  0.3107  1.3184
60262SOL     OW98777   2.240   9.688   6.166  0.3853 -0.0937 -0.0243
60262SOL    HW198778   2.283   9.725   6.090  0.8668  1.0473  0.7825
60262SOL    HW298779   2.181   9.621   6.130  1.5396 -0.4860 -1.2758
60263SOL     OW98780   0.763   7.941   4.576 -0.1428 -0.5788  0.2913
60263SOL    HW198781   0.813   8.020   4.555  0.4226 -0.5913  1.5367
60263SOL    HW298782   0.773   7.930   4.670 -0.6268 -1.8614  0.2120
60264SOL     OW98783   1.312  10.360   6.903  0.6450 -0.0856  0.2774
60264SOL    HW198784   1.259  10.419   6.957 -0.2809  0.2200 -0.9232
60264SOL    HW298785   1.384  10.333   6.961 -0.2829  0.2452  1.6487
60265SOL     OW98786   8.665   4.189  13.492 -0.1125  0.3955  0.0450
60265SOL    HW198787   8.620   4.126  13.548  2.8026 -0.7756  1.2691
60265SOL    HW298788   8.681   4.142  13.411 -0.3217  0.5030 -0.0584
60266SOL     OW98789   1.501   3.932   6.648 -0.6899  0.2218  0.3553
60266SOL    HW198790   1.479   3.839   6.655 -0.5407  0.2802  2.0949
60266SOL    HW298791   1.417   3.977   6.660 -1.6272  0.3809 -4.6795
60267SOL     OW98792   4.749   8.618   1.470  0.1790  0.5619  0.8314
60267SOL    HW198793   4.779   8.625   1.379  1.4022 -0.2842  1.1415
60267SOL    HW298794   4.673   8.675   1.475 -0.0378  0.4529 -0.7830
60268SOL     OW98795   3.005   9.907   2.531  0.6594 -0.1876 -0.1622
60268SOL    HW198796   3.017   9.950   2.616  1.9450  1.6082 -1.1832
60268SOL    HW298797   2.913   9.924   2.509  0.4751 -0.1563  0.5844
60269SOL     OW98798   6.081   2.306   8.624 -0.6104  0.8151 -0.4649
60269SOL    HW198799   6.088   2.383   8.567  0.8152  0.1953 -1.1694
60269SOL    HW298800   6.171   2.284   8.647 -1.0347 -0.2505  0.2751
60270SOL     OW98801  12.966   8.483   7.205 -0.2283 -0.6991  0.0248
60270SOL    HW198802  12.911   8.540   7.258 -0.3104 -1.0258  0.2915
60270SOL    HW298803  13.035   8.454   7.265  0.4009 -0.0599 -0.3818
60271SOL     OW98804  10.389   3.310   8.745  0.2004 -0.5836  0.2430
60271SOL    HW198805  10.356   3.262   8.670  0.9957 -0.4916 -0.1729
60271SOL    HW298806  10.353   3.264   8.821 -1.7034  0.1106 -0.1917
60272SOL     OW98807   4.588  11.902  10.914  0.3200  0.0150 -0.0195
60272SOL    HW198808   4.528  11.830  10.932  1.6804 -1.1182  0.1056
60272SOL    HW298809   4.597  11.947  10.998  1.8690 -1.5731  0.7340
60273SOL     OW98810   6.036   7.696   0.274 -0.4794  0.0728  0.0403
60273SOL    HW198811   6.120   7.666   0.239 -0.0269  0.2513  0.9196
60273SOL    HW298812   6.044   7.791   0.277 -0.3677  0.0488  0.9164
60274SOL     OW98813   1.869   1.554   4.447 -0.3156  0.6025 -0.2668
60274SOL    HW198814   1.954   1.589   4.474 -0.6384 -0.3126  2.2706
60274SOL    HW298815   1.805   1.616   4.482 -0.7429 -0.1457  0.3188
60275SOL     OW98816   8.562   3.929   7.746 -0.0782  0.0130 -0.5232
60275SOL    HW198817   8.562   4.020   7.777 -0.3501 -0.5030  1.0724
60275SOL    HW298818   8.651   3.916   7.713 -0.1800  1.0018 -1.2325
60276SOL     OW98819   6.625  13.516   3.626  0.2613 -0.0793  0.0189
60276SOL    HW198820   6.564  13.548   3.560  0.6405 -0.3501 -0.4723
60276SOL    HW298821   6.627  13.421   3.613 -0.2542 -0.2226  0.9404
60277SOL     OW98822   3.034   4.518   3.039 -0.1693 -0.0128  0.0555
60277SOL    HW198823   3.110   4.503   3.095 -0.1255  0.7987  0.2339
60277SOL    HW298824   2.980   4.440   3.049  2.3982 -2.5175 -3.0453
60278SOL     OW98825  13.880  10.101   0.657 -0.3018  0.2227  0.9718
60278SOL    HW198826  13.820  10.030   0.633  0.2439  0.7332 -2.2995
60278SOL    HW298827  13.928  10.067   0.733 -1.5858 -1.9774  0.8787
60279SOL     OW98828  13.779  10.207  11.600  0.6414 -0.0852 -0.3793
60279SOL    HW198829  13.873  10.193  11.590  0.9154  1.5423 -0.4255
60279SOL    HW298830  13.772  10.276  11.667 -0.5221 -0.2527 -0.3057
60280SOL     OW98831  10.096   2.045   1.794 -0.3925  0.6144 -1.2477
60280SOL    HW198832  10.020   2.087   1.835 -0.2789 -0.2524 -0.1140
60280SOL    HW298833  10.159   2.034   1.865  0.0344 -0.4114 -1.7631
60281SOL     OW98834  13.899   3.535  14.065  0.0817  0.3678  0.2066
60281SOL    HW198835  13.936   3.494  13.986  2.0637  0.2412  1.1442
60281SOL    HW298836  13.819   3.485  14.082 -0.3607  0.3590 -1.6600
60282SOL     OW98837  12.766  10.266   6.823 -0.1226 -0.3580 -0.0153
60282SOL    HW198838  12.758  10.218   6.905 -0.3059 -1.3928 -0.6251
60282SOL    HW298839  12.700  10.227   6.765  0.5462 -0.1932 -0.9183
60283SOL     OW98840   3.485   9.055   6.185 -0.0714 -0.1434  0.2924
60283SOL    HW198841   3.510   8.964   6.203 -3.4515 -1.2733  0.0129
60283SOL    HW298842   3.532   9.106   6.250  1.6077 -2.1200  0.7329
60284SOL     OW98843   0.381   7.142   0.999  0.2089  0.0793 -0.4267
60284SOL    HW198844   0.425   7.069   0.957  0.8803 -0.0965  0.5587
60284SOL    HW298845   0.451   7.190   1.044 -0.6835 -0.9781  2.3508
60285SOL     OW98846   3.004   0.772   8.027 -0.3050  0.1280  0.1750
60285SOL    HW198847   3.055   0.807   8.099 -0.6338 -0.3148  0.6269
60285SOL    HW298848   2.916   0.760   8.063 -0.2892 -0.8081 -0.0705
60286SOL     OW98849   6.085   9.536  13.860  0.2461 -0.2915 -0.3355
60286SOL    HW198850   6.049   9.597  13.796  0.7023  0.9932  0.5993
60286SOL    HW298851   6.116   9.462  13.807 -0.2435  0.3016 -1.4967
60287SOL     OW98852   9.318   3.972  10.298 -0.2124  0.1637  0.6230
60287SOL    HW198853   9.392   4.024  10.268 -0.5229 -0.3030 -1.0235
60287SOL    HW298854   9.256   4.037  10.332  0.8527  0.5660  1.8762
60288SOL     OW98855  13.744  10.892   4.263 -0.0517  0.2245 -0.6051
60288SOL    HW198856  13.727  10.799   4.273 -0.2082  0.1383 -1.5962
60288SOL    HW298857  13.799  10.914   4.339  0.4954 -0.8017 -0.6851
60289SOL     OW98858   1.373   1.848   2.289 -0.5147  0.3686 -0.2444
60289SOL    HW198859   1.311   1.785   2.253 -0.9742  0.2947  0.6491
60289SOL    HW298860   1.379   1.917   2.223 -1.8495  0.5702 -0.1783
60290SOL     OW98861   9.699   9.264   8.117  0.4912 -0.3322 -0.3928
60290SOL    HW198862   9.770   9.273   8.181  0.2539 -0.2871 -0.1358
60290SOL    HW298863   9.708   9.341   8.061  0.8886 -0.5289 -0.6032
60291SOL     OW98864   4.856  12.596   4.572  0.3650 -0.3153  0.3520
60291SOL    HW198865   4.802  12.582   4.495 -1.5753  0.6596  1.4619
60291SOL    HW298866   4.894  12.511   4.592 -0.8658 -1.0568 -0.4043
60292SOL     OW98867   5.704  13.599   3.337 -0.1824 -0.2992 -0.5813
60292SOL    HW198868   5.650  13.583   3.260  0.6547  0.2844 -1.3164
60292SOL    HW298869   5.793  13.608   3.302 -0.1180  2.6010  0.1082
60293SOL     OW98870   2.106   8.296   7.262 -0.1096  0.3964 -0.1380
60293SOL    HW198871   2.118   8.229   7.195 -0.9474 -0.3888  0.4635
60293SOL    HW298872   2.067   8.371   7.216 -1.0637 -0.2872 -0.4694
60294SOL     OW98873   5.029   5.840   8.500 -0.1042 -0.6337 -0.5788
60294SOL    HW198874   5.042   5.835   8.405 -0.6388 -1.6641 -0.6086
60294SOL    HW298875   5.103   5.891   8.532 -0.6134  0.8965 -1.6944
60295SOL     OW98876   0.362   4.606   5.969 -0.6491  0.2760 -0.3383
60295SOL    HW198877   0.268   4.625   5.973 -0.6872  0.6301 -2.0727
60295SOL    HW298878   0.386   4.586   6.059 -2.7450 -1.5634 -0.0904
60296SOL     OW98879  13.059   7.826   3.346  0.5729  0.3067  0.5393
60296SOL    HW198880  12.966   7.847   3.356  0.2742 -0.2540 -0.9040
60296SOL    HW298881  13.104   7.907   3.370 -0.2295  0.3314  2.0766
60297SOL     OW98882  11.609  11.907   0.735 -0.2979 -0.1029 -0.1782
60297SOL    HW198883  11.687  11.951   0.704 -1.1060  0.7835 -1.0139
60297SOL    HW298884  11.642  11.830   0.783  1.0951  0.8599  0.4666
60298SOL     OW98885   5.225   4.638   1.692 -0.5655 -0.3765  0.7545
60298SOL    HW198886   5.204   4.604   1.779  0.5215  0.5217  1.3883
60298SOL    HW298887   5.321   4.637   1.689 -0.5705 -2.0594 -1.1138
60299SOL     OW98888  13.465   4.264   7.914 -0.2761  0.5823  0.1397
60299SOL    HW198889  13.448   4.268   7.820  2.2282 -1.0329 -0.4791
60299SOL    HW298890  13.419   4.185   7.943 -0.6552  0.8187  0.1919
60300SOL     OW98891  12.388   1.185   7.199 -0.2656  0.1998  0.1743
60300SOL    HW198892  12.466   1.167   7.251 -0.3199 -0.5779 -0.0011
60300SOL    HW298893  12.372   1.279   7.211  0.1324  0.1714  0.9807
60301SOL     OW98894   6.607  13.770   6.242 -0.0931  0.0658  0.6344
60301SOL    HW198895   6.700  13.777   6.263 -0.1050 -1.1946  1.2560
60301SOL    HW298896   6.563  13.773   6.327 -0.6896  1.3825  0.2947
60302SOL     OW98897   9.417   1.405  10.473 -0.5563 -0.1024 -0.0790
60302SOL    HW198898   9.489   1.447  10.427 -1.2706 -0.9172 -2.0601
60302SOL    HW298899   9.418   1.314  10.442 -1.5876 -0.4756  0.8909
60303SOL     OW98900   1.909   1.662   9.331  0.3645  0.3074  0.1746
60303SOL    HW198901   1.933   1.726   9.264  1.6127 -0.4819 -0.1591
60303SOL    HW298902   1.968   1.682   9.404  0.9123 -0.5784 -0.0106
60304SOL     OW98903  11.454  11.091   4.724  0.3506  0.2978  0.0866
60304SOL    HW198904  11.532  11.099   4.778  1.0163 -1.2473 -0.6047
60304SOL    HW298905  11.487  11.088   4.634 -0.5369  0.0234 -0.2389
60305SOL     OW98906  12.778   0.528  10.317 -0.1602  0.5828 -0.2441
60305SOL    HW198907  12.834   0.512  10.392  0.4518 -0.3300 -0.8731
60305SOL    HW298908  12.773   0.623  10.310 -0.7198  0.6813  1.2931
60306SOL     OW98909   8.784   8.585  12.723  0.1559 -0.1881  0.1218
60306SOL    HW198910   8.829   8.651  12.777 -1.2619  1.5991 -0.7677
60306SOL    HW298911   8.717   8.634  12.676 -0.4657 -2.1679 -1.1965
60307SOL     OW98912   8.443   5.800   7.907  0.8715 -0.2127 -0.0168
60307SOL    HW198913   8.353   5.827   7.921  0.4576 -1.9526  0.9901
60307SOL    HW298914   8.487   5.818   7.990  1.4138  0.4295 -0.4335
60308SOL     OW98915   4.510   6.020  13.570  0.7011 -0.1909 -0.5223
60308SOL    HW198916   4.525   5.938  13.616 -0.1480  0.0166  0.1636
60308SOL    HW298917   4.416   6.021  13.553  0.8378  0.2387 -1.3160
60309SOL     OW98918   8.819   7.018   4.623  0.6236  0.2766  0.0258
60309SOL    HW198919   8.810   7.074   4.700  0.2089 -1.2157  1.1065
60309SOL    HW298920   8.903   7.043   4.585  0.3873  1.7043  0.3897
60310SOL     OW98921  10.734  10.649   6.749 -0.6447 -0.3583 -0.9541
60310SOL    HW198922  10.728  10.713   6.678 -0.1035 -1.0520 -1.6543
60310SOL    HW298923  10.816  10.670   6.794 -0.4299 -0.5857 -1.2291
60311SOL     OW98924   2.859  12.397   2.273 -0.9070  0.5766  0.4488
60311SOL    HW198925   2.812  12.480   2.260 -0.2879  0.7815 -0.5590
60311SOL    HW298926   2.821  12.337   2.209 -0.0411  0.6455 -0.1378
60312SOL     OW98927  10.943  12.168   1.935 -0.0647  0.0731  0.6072
60312SOL    HW198928  10.968  12.208   1.851 -2.1419 -1.2876 -0.7345
60312SOL    HW298929  11.027  12.145   1.975  1.0765  2.7259 -0.0383
60313SOL     OW98930   0.944  10.770   9.021 -0.3004 -0.7236  0.0418
60313SOL    HW198931   0.854  10.778   8.990  0.2582  1.2753 -1.2256
60313SOL    HW298932   0.941  10.700   9.086 -2.9443 -0.0422  0.7545
60314SOL     OW98933   2.256   4.917  11.144 -0.5191 -0.4605 -0.0122
60314SOL    HW198934   2.329   4.861  11.172  0.0313 -0.3210 -1.1012
60314SOL    HW298935   2.187   4.856  11.119  0.4637 -0.7372 -2.2351
60315SOL     OW98936   4.381   2.173  12.047 -0.0913  0.1769  0.3947
60315SOL    HW198937   4.310   2.168  12.111 -1.0457 -2.4144 -0.7533
60315SOL    HW298938   4.389   2.267  12.028 -2.8435  0.6257  0.9653
60316SOL     OW98939  13.295   5.608  10.129 -0.1623  0.0314 -0.3530
60316SOL    HW198940  13.245   5.667  10.186 -0.9217 -1.6434  0.8259
60316SOL    HW298941  13.328   5.540  10.189  1.8573 -0.0172 -1.4273
60317SOL     OW98942   5.572   7.970  11.099  0.7378  0.1624 -0.4386
60317SOL    HW198943   5.642   7.912  11.132 -0.0368  1.0292  3.2499
60317SOL    HW298944   5.609   8.058  11.105  0.0756  0.4550 -0.6215
60318SOL     OW98945   3.678   1.821   0.150 -0.3414  0.2886 -0.4381
60318SOL    HW198946   3.663   1.841   0.243 -1.4873  0.8029 -0.7149
60318SOL    HW298947   3.668   1.905   0.106 -1.6373 -0.2433 -1.2243
60319SOL     OW98948  12.243   4.632   6.406 -0.0010 -0.0149  0.3834
60319SOL    HW198949  12.252   4.561   6.470  0.4754 -1.8353 -1.5860
60319SOL    HW298950  12.152   4.626   6.378 -0.5935  1.6534  1.7606
60320SOL     OW98951  10.645   4.393  10.864  0.0539 -0.0736  0.3202
60320SOL    HW198952  10.722   4.373  10.810 -0.1286 -0.5289  0.2252
60320SOL    HW298953  10.650   4.331  10.937 -0.3582 -0.2633  0.1854
60321SOL     OW98954   1.012  11.168   6.155 -0.3869 -0.5899  0.0264
60321SOL    HW198955   1.009  11.216   6.072 -1.6610  1.2945  1.0770
60321SOL    HW298956   1.077  11.099   6.140 -1.1596 -0.8380 -2.7767
60322SOL     OW98957   7.846   3.162   2.286 -0.3923 -0.1400 -0.2909
60322SOL    HW198958   7.773   3.127   2.236 -0.6483 -1.0368  0.6828
60322SOL    HW298959   7.897   3.085   2.312 -0.4204  0.2691  1.0450
60323SOL     OW98960   1.380  13.041   0.866 -0.0164 -0.3548 -0.2543
60323SOL    HW198961   1.419  13.003   0.787  1.4944 -1.4189  0.9477
60323SOL    HW298962   1.353  12.965   0.918 -2.8124  0.3317 -0.5389
60324SOL     OW98963   2.735   9.752   7.565  0.1814  0.4964  0.4725
60324SOL    HW198964   2.700   9.709   7.644 -0.1599  0.5600  0.3595
60324SOL    HW298965   2.681   9.830   7.556  0.2418  0.5040  0.1903
60325SOL     OW98966   5.476   3.909   7.920  0.2156  0.6943 -0.2148
60325SOL    HW198967   5.493   3.993   7.963 -0.8043  0.3965  0.8134
60325SOL    HW298968   5.389   3.883   7.952  1.0002 -1.3255  0.4279
60326SOL     OW98969   1.650  10.973   8.013 -0.1698  0.0290  0.0455
60326SOL    HW198970   1.615  10.888   8.041 -3.6963  1.4268  0.4773
60326SOL    HW298971   1.611  10.987   7.926  0.4204  1.1709 -0.0568
60327SOL     OW98972   9.572   5.539  13.250  0.2661 -0.3693  0.0344
60327SOL    HW198973   9.554   5.597  13.324 -0.7760 -1.1705  0.4329
60327SOL    HW298974   9.601   5.457  13.289  0.5977 -0.5071 -0.4857
60328SOL     OW98975   8.516   7.535   2.716  0.1988  0.0868 -0.1010
60328SOL    HW198976   8.525   7.499   2.804 -0.9028 -0.4233 -0.1843
60328SOL    HW298977   8.565   7.475   2.659 -0.8745 -0.7881 -0.1165
60329SOL     OW98978  10.421  10.328   5.275 -0.5241  0.0580 -0.4325
60329SOL    HW198979  10.436  10.375   5.192 -0.7519  0.2325 -0.3786
60329SOL    HW298980  10.480  10.253   5.272 -0.6899 -0.0589 -0.8535
60330SOL     OW98981  10.068  12.796   5.866 -0.8451 -0.3614 -0.1071
60330SOL    HW198982  10.163  12.800   5.872 -0.9074  0.5716  0.3570
60330SOL    HW298983  10.042  12.736   5.936 -0.7105  0.8771  1.0483
60331SOL     OW98984  13.427   9.830   8.024 -0.2300  0.4516 -0.8354
60331SOL    HW198985  13.351   9.807   7.972  0.4218  3.0641 -3.1574
60331SOL    HW298986  13.496   9.772   7.993 -0.5674  0.0420 -0.8167
60332SOL     OW98987   4.143   6.766  13.399  0.5763 -0.1267  0.5074
60332SOL    HW198988   4.102   6.704  13.460  2.7100 -1.5014  0.6377
60332SOL    HW298989   4.185   6.830  13.456  1.8516 -0.9314  0.5023
60333SOL     OW98990   5.109   1.939  13.595  0.1550 -0.2199 -0.7245
60333SOL    HW198991   5.089   1.923  13.503  0.1526  1.6038 -1.0900
60333SOL    HW298992   5.201   1.915  13.604  0.2579 -0.0523 -1.3045
60334SOL     OW98993   4.188   4.373   1.382  0.1751 -0.1875  0.3118
60334SOL    HW198994   4.155   4.408   1.300  1.7970 -1.0406 -0.7355
60334SOL    HW298995   4.146   4.287   1.390 -1.3490  0.5871  1.3164
60335SOL     OW98996  13.913   0.047  11.577  0.5921  0.2498  0.3383
60335SOL    HW198997  13.952  -0.040  11.576 -0.3300 -0.1788  0.6102
60335SOL    HW298998  13.899   0.068  11.485  1.6350  0.5076  0.2196
60336SOL     OW98999   9.535  13.731  10.327 -0.3110  0.4399 -0.1922
60336SOL    HW199000   9.495  13.815  10.302 -1.0282  0.5573  1.2886
60336SOL    HW299001   9.496  13.667  10.267 -3.0428  0.4923  1.3871
60337SOL     OW99002  11.656   6.090   1.022 -0.3862  0.6921 -0.2345
60337SOL    HW199003  11.635   6.040   1.101  1.1323  0.4453  0.0447
60337SOL    HW299004  11.675   6.178   1.053 -0.0508  0.6626 -0.3522
60338SOL     OW99005   9.848   9.099   2.929 -0.2413  0.4751  0.0474
60338SOL    HW199006   9.810   9.186   2.945 -1.5642  0.0567 -0.6494
60338SOL    HW299007   9.841   9.055   3.014  0.6491  1.1038  0.4675
60339SOL     OW99008   2.056  13.315   5.511  0.4775 -0.5576  0.3956
60339SOL    HW199009   2.058  13.348   5.421 -0.3932 -1.2253  0.1143
60339SOL    HW299010   1.968  13.335   5.542  0.8794 -0.0268  1.2298
60340SOL     OW99011   8.424  10.036  10.058  0.0251 -0.1153  0.4035
60340SOL    HW199012   8.426   9.991   9.973  1.8124  1.2310 -0.3271
60340SOL    HW299013   8.438   9.966  10.122  1.8729 -0.7629 -0.6433
60341SOL     OW99014  12.654  12.699   6.382  0.5830  0.6631  0.6965
60341SOL    HW199015  12.627  12.789   6.401  0.0104  0.7582 -0.4840
60341SOL    HW299016  12.710  12.707   6.305  0.9518  0.0626  0.8991
60342SOL     OW99017   8.727   6.180   0.880 -0.1742 -0.1891  0.1676
60342SOL    HW199018   8.732   6.110   0.816 -0.7321 -0.9226  0.8965
60342SOL    HW299019   8.724   6.135   0.965 -2.3155  0.6089  0.5803
60343SOL     OW99020  11.631   5.670   5.881 -0.4397 -0.0418  0.0369
60343SOL    HW199021  11.561   5.702   5.938 -0.4960 -1.0334  0.5397
60343SOL    HW299022  11.585   5.627   5.809 -0.3520 -0.1055  0.0184
60344SOL     OW99023   6.647   7.593  10.763 -0.1112 -0.4197  0.2801
60344SOL    HW199024   6.729   7.639  10.747  0.0726 -0.4890  0.9858
60344SOL    HW299025   6.637   7.535  10.688 -0.4078  0.8367 -0.6914
60345SOL     OW99026   7.083   6.395   0.465 -0.2925  0.2299 -0.0148
60345SOL    HW199027   7.097   6.356   0.379 -2.2327  3.2409 -1.9034
60345SOL    HW299028   7.156   6.457   0.475 -0.6740  0.6930 -0.0556
60346SOL     OW99029  13.675  12.896   4.440 -0.3015  0.1200 -0.7693
60346SOL    HW199030  13.762  12.868   4.411 -0.0409  1.0430 -0.9191
60346SOL    HW299031  13.681  12.894   4.536  0.8788  2.9315 -0.6853
60347SOL     OW99032   8.915   3.953   6.615 -0.1711  0.4370  0.5149
60347SOL    HW199033   8.849   3.919   6.676 -0.5444  0.7481  0.2901
60347SOL    HW299034   8.941   4.037   6.652  1.2903 -0.3962  1.4619
60348SOL     OW99035   0.488   6.211   2.970  0.0685 -0.1900 -0.2370
60348SOL    HW199036   0.569   6.249   2.934 -0.2045 -0.8699 -1.6696
60348SOL    HW299037   0.432   6.287   2.986  1.3977  0.4051  1.9785
60349SOL     OW99038   6.262  10.010   3.749 -0.1433  0.2321 -0.1797
60349SOL    HW199039   6.227  10.034   3.663 -2.3942 -0.1904  0.5546
60349SOL    HW299040   6.289   9.919   3.739  0.3101  0.4106 -0.6272
60350SOL     OW99041  13.630   2.435   6.462  0.0091  0.0893  0.4444
60350SOL    HW199042  13.573   2.389   6.524  0.1112  0.1674  0.5977
60350SOL    HW299043  13.705   2.463   6.515  1.4358 -2.1820 -0.2244
60351SOL     OW99044  11.912  10.589   9.120  0.2987 -0.0728 -1.0049
60351SOL    HW199045  11.916  10.685   9.118 -0.8403  0.0122 -0.1692
60351SOL    HW299046  11.981  10.564   9.180 -0.1131  0.2960 -0.3656
60352SOL     OW99047   9.234   6.976   8.740 -1.0388  0.6457 -0.1442
60352SOL    HW199048   9.264   7.027   8.815 -1.7121 -0.7562  1.1224
60352SOL    HW299049   9.250   6.885   8.764 -0.8162  0.1611 -1.9256
60353SOL     OW99050   0.806  13.079   6.281 -0.0743  0.5537 -0.6314
60353SOL    HW199051   0.781  13.031   6.359 -1.1170 -0.3246 -1.4710
60353SOL    HW299052   0.822  13.168   6.311  0.0523  0.1054  0.6565
60354SOL     OW99053   5.818   6.685  13.882 -0.6400 -0.1662 -0.2780
60354SOL    HW199054   5.775   6.706  13.965  0.5859  0.3055  0.2687
60354SOL    HW299055   5.816   6.766  13.832 -0.5407 -0.1898 -0.3216
60355SOL     OW99056  12.733   7.392  13.483  0.1818 -0.3086 -0.2663
60355SOL    HW199057  12.761   7.350  13.402 -0.0023 -0.5526 -0.2016
60355SOL    HW299058  12.791   7.469  13.491 -1.4460  1.1730 -1.9402
60356SOL     OW99059  13.211   5.863   7.342  0.0006 -0.4520 -0.3158
60356SOL    HW199060  13.268   5.854   7.266  0.8136 -1.5216  0.3931
60356SOL    HW299061  13.196   5.957   7.350  2.0702 -0.1005 -0.2287
60357SOL     OW99062  10.699  13.657  12.978 -0.0917 -0.2162 -0.0749
60357SOL    HW199063  10.644  13.674  12.901 -0.2192  0.9262  0.2587
60357SOL    HW299064  10.754  13.583  12.951  1.3304  1.4435 -2.0572
60358SOL     OW99065   3.924  11.586   2.520  0.3697  0.2221 -0.0677
60358SOL    HW199066   3.867  11.623   2.587  2.0226 -0.5342  1.8609
60358SOL    HW299067   3.880  11.507   2.491 -0.3765  0.5658  0.1055
60359SOL     OW99068   0.455   9.154   2.507  0.2239  0.1313 -0.0260
60359SOL    HW199069   0.393   9.110   2.449  0.3258 -0.6907  0.4821
60359SOL    HW299070   0.468   9.094   2.580 -0.5841  1.5206  1.3312
60360SOL     OW99071   0.945  13.495   5.717  0.4518 -0.7197  0.2608
60360SOL    HW199072   0.941  13.558   5.646  0.8689 -0.5099  0.4194
60360SOL    HW299073   0.881  13.428   5.693  0.0772 -0.2910  0.0458
60361SOL     OW99074  13.965   2.581   1.407 -0.4301 -0.1739  0.1849
60361SOL    HW199075  13.974   2.662   1.357  1.5769  0.0282  0.7872
60361SOL    HW299076  13.962   2.512   1.341 -0.6865  0.2841 -0.2881
60362SOL     OW99077  13.336   3.051   2.417  0.0237 -0.3844 -0.0916
60362SOL    HW199078  13.243   3.069   2.407  0.1157 -0.6387 -1.5625
60362SOL    HW299079  13.339   2.972   2.471 -0.6320 -0.5421 -0.2765
60363SOL     OW99080   2.145   2.157  13.911 -0.0623  0.1341  0.8276
60363SOL    HW199081   2.210   2.183  13.846 -1.8035 -0.1797 -1.1774
60363SOL    HW299082   2.173   2.199  13.992  1.2570  2.0555 -0.5386
60364SOL     OW99083  13.332  13.814   9.574 -0.3656 -0.8874  0.7965
60364SOL    HW199084  13.248  13.854   9.597 -0.1405 -1.1754  2.2184
60364SOL    HW299085  13.311  13.722   9.558 -0.9397 -0.2529 -2.7993
60365SOL     OW99086   2.604   8.659   2.991 -0.1410 -0.3382  0.1485
60365SOL    HW199087   2.522   8.628   2.954 -0.1803  0.2840 -0.2927
60365SOL    HW299088   2.670   8.595   2.961 -0.3117 -0.3188 -0.2716
60366SOL     OW99089  11.457   1.949   1.679 -0.3594  0.7129  0.4245
60366SOL    HW199090  11.512   2.027   1.687 -1.2774  1.3826  0.3088
60366SOL    HW299091  11.383   1.977   1.625  0.5041 -0.9130 -1.7173
60367SOL     OW99092  14.125  12.021  12.175 -0.7054  0.1667 -0.6825
60367SOL    HW199093  14.037  12.016  12.212 -0.1988  0.8988  0.7166
60367SOL    HW299094  14.165  11.936  12.196 -0.6424  0.3324 -0.1219
60368SOL     OW99095  12.557  13.514   6.640 -0.5521  0.5504  0.0886
60368SOL    HW199096  12.619  13.578   6.674  1.1271 -1.8571  1.9168
60368SOL    HW299097  12.472  13.543   6.672 -0.0149  2.3841 -0.0256
60369SOL     OW99098  11.389   6.037   8.184 -0.2485  0.2648 -0.0586
60369SOL    HW199099  11.475   6.068   8.153  0.3401 -0.1768  1.0704
60369SOL    HW299100  11.387   6.060   8.277 -0.6925 -1.0878  0.2971
60370SOL     OW99101  11.199  11.856  14.124  0.3306  0.3305  0.1015
60370SOL    HW199102  11.156  11.818  14.201 -0.0946  0.1492 -0.2176
60370SOL    HW299103  11.223  11.944  14.150 -2.2423  1.2753 -0.3759
60371SOL     OW99104   5.334   7.226   2.849  0.1431  0.4546  0.3586
60371SOL    HW199105   5.404   7.290   2.840  0.3436  0.0664 -1.2451
60371SOL    HW299106   5.370   7.158   2.906  1.1662  0.1570 -0.6186
60372SOL     OW99107  11.835  10.783   0.548  0.3701  0.1797  0.7365
60372SOL    HW199108  11.827  10.687   0.543 -1.8419  0.3584 -1.3920
60372SOL    HW299109  11.889  10.799   0.625 -0.5228 -2.7439  2.1276
60373SOL     OW99110  10.418   4.761   8.069  0.1300 -0.5002  0.5319
60373SOL    HW199111  10.406   4.856   8.070  0.3610 -0.4685  1.1473
60373SOL    HW299112  10.391   4.733   8.157 -2.0989 -1.2974 -0.3228
60374SOL     OW99113  11.046   7.310   6.378 -0.5915 -0.3975 -0.2661
60374SOL    HW199114  10.980   7.376   6.399 -1.9238 -2.0229  0.9409
60374SOL    HW299115  11.039   7.245   6.448  2.4174 -0.6101 -0.0226
60375SOL     OW99116  11.664   4.753   7.899 -0.0466  0.5045  0.2855
60375SOL    HW199117  11.589   4.730   7.844 -0.5227 -0.7100  1.3974
60375SOL    HW299118  11.631   4.745   7.988  1.1033  1.0748  0.7787
60376SOL     OW99119  14.061  13.971  11.613 -0.2389 -0.4071 -0.5157
60376SOL    HW199120  14.136  13.991  11.670 -1.6007  1.0220  0.8897
60376SOL    HW299121  14.035  13.882  11.637 -0.1082 -0.2281  0.3446
60377SOL     OW99122  11.334   9.078  10.311 -1.1834  0.5643  0.0612
60377SOL    HW199123  11.275   9.009  10.342 -0.4529  0.1334  0.5266
60377SOL    HW299124  11.421   9.038  10.315 -0.9577  0.8538 -1.5706
60378SOL     OW99125  10.595   0.631   8.198  0.1368  0.5054  0.4230
60378SOL    HW199126  10.625   0.709   8.246 -0.9547  0.6476  0.9184
60378SOL    HW299127  10.594   0.658   8.106  0.0716  0.9828  0.5612
60379SOL     OW99128  11.109  12.033  12.898  0.0309 -0.1345 -0.0965
60379SOL    HW199129  11.106  11.939  12.913  1.6244 -0.6194 -2.3494
60379SOL    HW299130  11.091  12.072  12.984 -0.3421 -2.4622  0.9508
60380SOL     OW99131   3.948   0.990   5.348 -0.2164  0.9544 -0.2397
60380SOL    HW199132   3.981   1.076   5.322  0.1523  1.0750  0.5926
60380SOL    HW299133   3.858   0.988   5.317  0.5662  0.5440 -2.7542
60381SOL     OW99134   7.527   3.032   5.409  0.2575 -0.0694  0.1062
60381SOL    HW199135   7.467   3.044   5.336  0.1288  3.8743  0.6015
60381SOL    HW299136   7.471   3.022   5.485  0.2042  1.3939  0.2879
60382SOL     OW99137  12.576   4.735  12.856  0.3669  0.4112  0.0478
60382SOL    HW199138  12.546   4.812  12.905  2.1566  0.8983  0.4648
60382SOL    HW299139  12.508   4.720  12.790  0.2292  2.7281 -0.4266
60383SOL     OW99140   9.458  13.485   9.284  0.0728  0.4336 -0.0582
60383SOL    HW199141   9.471  13.576   9.310  0.3932  0.5684 -0.6719
60383SOL    HW299142   9.382  13.487   9.227  0.1673  0.3421 -0.1891
60384SOL     OW99143   1.214  11.273   0.993 -0.2895  0.0545  0.0015
60384SOL    HW199144   1.144  11.332   1.021 -1.6574 -0.8515 -1.3711
60384SOL    HW299145   1.170  11.191   0.972  1.4489 -1.1982  0.9620
60385SOL     OW99146   6.303   9.100  12.056 -0.0708 -0.3921 -0.2016
60385SOL    HW199147   6.340   9.141  11.977 -0.4183  0.7556  0.2106
60385SOL    HW299148   6.379   9.079  12.110  0.1350 -0.6319 -0.5800
60386SOL     OW99149  12.887   5.869  13.452  0.5424 -0.2782  0.2662
60386SOL    HW199150  12.899   5.953  13.497  2.1501 -1.2422  1.7420
60386SOL    HW299151  12.949   5.871  13.380  1.7601 -0.8038  1.2666
60387SOL     OW99152   1.020   8.715   0.044  0.2449 -0.1414 -0.1061
60387SOL    HW199153   1.057   8.797   0.076 -2.1491  0.0500  2.6201
60387SOL    HW299154   1.093   8.654   0.043  1.7705  1.5965 -0.7311
60388SOL     OW99155  10.161  13.436   1.624  0.2071 -0.2094  0.6273
60388SOL    HW199156  10.244  13.468   1.588 -0.3769  2.6763  1.5954
60388SOL    HW299157  10.171  13.445   1.718 -0.7002 -1.2795  0.8426
60389SOL     OW99158  10.145   8.608  11.779 -0.1164 -0.2085  0.1187
60389SOL    HW199159  10.064   8.656  11.767 -0.7476 -0.8926  1.4338
60389SOL    HW299160  10.133   8.526  11.731  0.6073  0.5126 -1.3614
60390SOL     OW99161   4.405   6.867   9.418 -0.5713  0.0612 -0.2464
60390SOL    HW199162   4.459   6.930   9.466 -0.4424  0.2910 -0.6884
60390SOL    HW299163   4.469   6.809   9.376 -0.6898 -0.8350  0.7525
60391SOL     OW99164  11.540   0.657   5.693  0.4550 -0.1211 -0.4470
60391SOL    HW199165  11.498   0.735   5.655  0.5284 -0.8338 -2.0700
60391SOL    HW299166  11.633   0.680   5.697  0.4195  0.0350 -0.5003
60392SOL     OW99167   7.722   8.397   5.707  0.4401  0.5347 -0.0155
60392SOL    HW199168   7.767   8.393   5.623  0.2332 -1.4477 -0.0925
60392SOL    HW299169   7.792   8.396   5.772  0.6103  2.3298 -0.1241
60393SOL     OW99170   7.903  11.568  10.597  0.4121 -0.0745  0.2384
60393SOL    HW199171   7.985  11.568  10.549 -2.1485  1.0988 -4.8150
60393SOL    HW299172   7.871  11.478  10.591  0.3376 -0.0477  0.2220
60394SOL     OW99173   8.876   6.387   1.934  0.7853  0.2033 -0.6590
60394SOL    HW199174   8.805   6.345   1.982  2.8072 -3.5001 -0.5144
60394SOL    HW299175   8.837   6.465   1.894 -2.7377 -0.5220  1.0752
60395SOL     OW99176  10.796   8.169   9.296  0.1945 -0.3217  0.0373
60395SOL    HW199177  10.823   8.216   9.217  0.9218 -0.6170  0.1026
60395SOL    HW299178  10.835   8.082   9.287 -0.9129 -0.8248  0.0505
60396SOL     OW99179   3.627   9.519   9.539  0.2509  0.0650  0.1441
60396SOL    HW199180   3.535   9.538   9.559  0.1682  0.1103 -0.2742
60396SOL    HW299181   3.645   9.569   9.460  0.3514 -0.7090 -0.3401
60397SOL     OW99182  10.328   1.500   1.173 -0.4518  0.3500  0.6529
60397SOL    HW199183  10.309   1.585   1.212 -0.6366  0.8213 -0.4268
60397SOL    HW299184  10.407   1.470   1.218  0.0248  1.4185  0.5518
60398SOL     OW99185  10.166  10.575   4.766  0.5261 -0.3122 -0.1451
60398SOL    HW199186  10.087  10.573   4.712  0.1989  0.8468  0.2500
60398SOL    HW299187  10.149  10.644   4.831  0.8759 -1.7134  1.5008
60399SOL     OW99188  10.247   5.379   0.445 -0.0255 -0.4625  0.3404
60399SOL    HW199189  10.237   5.305   0.384 -0.6416 -1.0748  1.1578
60399SOL    HW299190  10.251   5.456   0.388 -0.6317 -1.0165 -0.4876
60400SOL     OW99191  12.376   2.546  10.991 -0.3365 -0.1955 -0.4881
60400SOL    HW199192  12.463   2.567  10.958  1.1879 -2.8166  1.4829
60400SOL    HW299193  12.374   2.580  11.080 -1.1416 -0.5744 -0.3442
60401SOL     OW99194  10.268   4.960   7.287  0.8412 -0.2527  0.1011
60401SOL    HW199195  10.215   4.927   7.215  0.9823 -1.2297  0.4395
60401SOL    HW299196  10.319   5.032   7.249 -0.0925  0.1426 -0.4319
60402SOL     OW99197   4.074   9.609   6.706  0.3006  0.1941  0.2598
60402SOL    HW199198   4.167   9.601   6.683  1.1824 -1.4461  3.6975
60402SOL    HW299199   4.030   9.625   6.622  3.6364  1.0294 -1.5212
60403SOL     OW99200   7.023   3.356   4.205  0.7685  0.6573  0.3070
60403SOL    HW199201   7.066   3.298   4.144 -0.2782 -0.2748  0.4135
60403SOL    HW299202   6.957   3.402   4.153  0.6796  0.7378  0.4857
60404SOL     OW99203   3.034   7.268  12.771  0.9275  0.2983  0.5848
60404SOL    HW199204   3.091   7.341  12.795  0.9714  0.3974  0.1905
60404SOL    HW299205   2.963   7.308  12.721  0.5241  0.1703  1.0432
60405SOL     OW99206  13.905  12.598   1.205  0.6396 -0.1431  0.7167
60405SOL    HW199207  13.923  12.579   1.113 -1.0758 -3.0823  0.8460
60405SOL    HW299208  13.989  12.584   1.249  0.9342 -1.2086 -0.1322
60406SOL     OW99209   0.197   5.275  11.697 -0.2413  0.5282 -0.0752
60406SOL    HW199210   0.104   5.284  11.677 -0.5011 -2.1580 -0.3943
60406SOL    HW299211   0.200   5.225  11.779  0.9477  1.8465  0.7454
60407SOL     OW99212   0.592  11.870  10.139 -0.2088 -0.1287 -0.0566
60407SOL    HW199213   0.555  11.783  10.122 -1.0385  0.3590 -0.7974
60407SOL    HW299214   0.516  11.925  10.157  0.3839  0.1940  1.6767
60408SOL     OW99215   3.173   9.283   1.213 -0.1184  0.5047 -0.3986
60408SOL    HW199216   3.102   9.346   1.200  0.4831  1.2864  0.0123
60408SOL    HW299217   3.251   9.328   1.181  0.2949 -0.1171 -0.2841
60409SOL     OW99218   0.473   5.344  12.822  0.4935 -0.2588 -0.7856
60409SOL    HW199219   0.468   5.250  12.838 -0.0121  0.1183  1.6380
60409SOL    HW299220   0.566   5.362  12.815  1.0897 -0.3412  3.8465
60410SOL     OW99221  12.278  12.885  13.500 -0.1860  0.1399 -0.3824
60410SOL    HW199222  12.286  12.901  13.594  2.7675 -0.3688 -0.4370
60410SOL    HW299223  12.214  12.814  13.493 -1.3224  0.9715  1.1211
60411SOL     OW99224   8.278   7.809  10.617  0.4406  0.5075 -0.0610
60411SOL    HW199225   8.246   7.860  10.543  0.3625  0.5960  0.0340
60411SOL    HW299226   8.237   7.848  10.693  0.1125  0.0921 -0.0206
60412SOL     OW99227  11.523  11.743   5.044 -0.1373  0.2034 -0.0279
60412SOL    HW199228  11.517  11.761   4.950  0.0189  0.3638 -0.0097
60412SOL    HW299229  11.606  11.696   5.053 -0.0088  0.4444  0.0647
60413SOL     OW99230   4.200  12.061  10.124  0.1469  0.2635  0.3365
60413SOL    HW199231   4.236  11.976  10.101  1.5265 -0.2787  3.9782
60413SOL    HW299232   4.106  12.052  10.106  0.4665 -1.5041 -0.6929
60414SOL     OW99233   4.609   6.085   5.093 -0.2807  0.3766 -0.2591
60414SOL    HW199234   4.602   6.085   4.998  0.1222  0.4272 -0.2871
60414SOL    HW299235   4.582   5.996   5.119  0.2465  0.1568 -0.4620
60415SOL     OW99236   6.526   6.614   8.395  0.0594 -0.1910 -0.3323
60415SOL    HW199237   6.523   6.539   8.454  0.6686 -1.0735 -1.3750
60415SOL    HW299238   6.500   6.578   8.310  1.8662  0.3994 -1.1876
60416SOL     OW99239   9.612   2.300  13.922 -0.1278  0.1416 -1.0409
60416SOL    HW199240   9.586   2.225  13.976  0.4684  0.4215 -0.3463
60416SOL    HW299241   9.642   2.365  13.985  0.5962  0.4730 -1.7171
60417SOL     OW99242   5.247   7.261   9.010  0.1611  0.1964 -0.5454
60417SOL    HW199243   5.315   7.236   9.072 -0.4339  2.4431  1.1567
60417SOL    HW299244   5.196   7.181   8.996  2.2649 -1.1820 -0.8107
60418SOL     OW99245  14.119  12.866  13.265 -0.0430 -0.3957  0.7200
60418SOL    HW199246  14.189  12.921  13.228  0.1353 -0.2928  1.1988
60418SOL    HW299247  14.075  12.828  13.189 -1.0393  1.4703  0.3177
60419SOL     OW99248   7.914   9.560   7.148  0.6073 -0.4773  0.7890
60419SOL    HW199249   7.971   9.608   7.088  1.1176 -0.2181  1.4669
60419SOL    HW299250   7.826   9.571   7.111  0.8978 -0.2255  0.1573
60420SOL     OW99251   4.986  12.991   9.675  0.1568 -0.2262  0.6361
60420SOL    HW199252   5.021  13.076   9.702 -0.8542  0.2639  0.4494
60420SOL    HW299253   5.011  12.931   9.745  3.8356 -0.5653 -0.7758
60421SOL     OW99254   1.632   6.126   8.470 -0.1496 -0.0697 -0.0385
60421SOL    HW199255   1.548   6.155   8.506  0.0095 -0.1704  0.4182
60421SOL    HW299256   1.639   6.034   8.498 -0.0696 -0.1788 -0.4112
60422SOL     OW99257  13.687  13.223   9.200  0.1914 -0.8870 -0.7352
60422SOL    HW199258  13.696  13.299   9.142 -0.4991 -0.7367 -0.6492
60422SOL    HW299259  13.639  13.256   9.276  0.1758 -1.3350 -0.5465
60423SOL     OW99260   8.088   7.787  13.118  0.4068  0.5351  0.0507
60423SOL    HW199261   8.141   7.800  13.040  1.3621 -0.0131  0.5851
60423SOL    HW299262   8.143   7.733  13.175 -0.3827  0.7019  0.9876
60424SOL     OW99263   7.634  11.101   6.635  0.3501 -0.3040 -0.5309
60424SOL    HW199264   7.724  11.079   6.608  1.2280  0.5404  1.5401
60424SOL    HW299265   7.621  11.053   6.716 -1.2432 -0.7031 -0.9924
60425SOL     OW99266   1.994  11.920   4.066 -0.3308  0.4133  0.5095
60425SOL    HW199267   2.028  12.008   4.086  2.3350 -0.4951  0.3612
60425SOL    HW299268   2.021  11.904   3.976  0.5894 -1.1165  1.0167
60426SOL     OW99269   6.169   9.308   7.823 -0.1721 -0.1987 -0.1253
60426SOL    HW199270   6.093   9.292   7.879 -0.1413  1.9598  0.6118
60426SOL    HW299271   6.243   9.275   7.873 -0.2674  0.7474  0.6715
60427SOL     OW99272   7.861   4.891   1.364 -0.0615  0.1163 -0.2992
60427SOL    HW199273   7.812   4.909   1.284 -1.6629 -1.6796  0.2023
60427SOL    HW299274   7.833   4.960   1.425  0.5232  0.9908 -0.9942
60428SOL     OW99275   0.600   2.246   9.395  0.1801  0.3536  0.1075
60428SOL    HW199276   0.660   2.173   9.378  0.6212  0.9210 -0.8051
60428SOL    HW299277   0.552   2.219   9.474 -0.7418 -1.5894 -1.0477
60429SOL     OW99278   5.200  12.238   6.137 -0.0121  0.4400 -0.5047
60429SOL    HW199279   5.259  12.180   6.185  0.6865  2.0347  0.6403
60429SOL    HW299280   5.245  12.323   6.135 -1.6412  1.3484 -0.8210
60430SOL     OW99281   6.988   8.434  10.897 -0.3414  0.2257  0.0084
60430SOL    HW199282   7.023   8.499  10.836 -1.3090 -0.2864 -1.1343
60430SOL    HW299283   7.065   8.384  10.925 -0.0628 -0.7071 -2.2416
60431SOL     OW99284   1.583   7.085  13.938  0.1231 -0.4916 -0.1910
60431SOL    HW199285   1.665   7.072  13.890  0.2541 -1.6818  0.3079
60431SOL    HW299286   1.515   7.077  13.872  0.3946  0.3815 -0.5891
60432SOL     OW99287  10.611  13.239  11.893  0.2372  0.1452  0.1755
60432SOL    HW199288  10.638  13.279  11.810 -0.2068 -0.2328 -0.1617
60432SOL    HW299289  10.643  13.149  11.887 -0.7329 -0.1976 -0.0641
60433SOL     OW99290  13.863   2.989  10.423  0.6944 -0.8405  0.4367
60433SOL    HW199291  13.873   3.032  10.338 -0.0245 -1.7065 -0.1086
60433SOL    HW299292  13.816   2.908  10.403  0.0979 -0.8338  1.7235
60434SOL     OW99293   3.551   3.937  12.061  0.1786 -0.5329  0.0604
60434SOL    HW199294   3.539   4.027  12.091 -1.5977 -0.4892 -0.6852
60434SOL    HW299295   3.609   3.898  12.126 -1.9460  0.1135  2.5014
60435SOL     OW99296  14.040   7.027   7.594  0.7788  0.2072 -0.2166
60435SOL    HW199297  13.998   7.110   7.619  1.8893  1.0568 -1.0334
60435SOL    HW299298  13.977   6.960   7.618 -1.5134  1.4457 -2.2699
60436SOL     OW99299   6.474   7.748  10.126  0.5009 -0.4008  0.6708
60436SOL    HW199300   6.564   7.753  10.093  0.0697  0.6898 -0.4447
60436SOL    HW299301   6.420   7.767  10.049 -0.6439  0.0462  1.5546
60437SOL     OW99302  12.807   6.621   9.583 -0.0315  0.2507  0.8025
60437SOL    HW199303  12.728   6.671   9.560 -0.2734  0.3912  1.8969
60437SOL    HW299304  12.793   6.593   9.673  0.3560 -1.3323  0.3972
60438SOL     OW99305  13.679   7.743   5.101 -0.2827  0.3335 -0.1407
60438SOL    HW199306  13.647   7.710   5.185 -0.0194 -1.5924 -0.7304
60438SOL    HW299307  13.613   7.713   5.038  0.8343 -0.6072 -0.9210
60439SOL     OW99308   7.395   9.841  13.501  0.1386  0.1773  0.5046
60439SOL    HW199309   7.460   9.894  13.546  0.5992  0.0451  0.0162
60439SOL    HW299310   7.367   9.895  13.427 -0.5168  0.3453  0.8648
60440SOL     OW99311   2.324   5.121   5.722 -0.0142 -0.2351 -0.5624
60440SOL    HW199312   2.239   5.155   5.749 -0.5676  0.0637 -2.5061
60440SOL    HW299313   2.316   5.108   5.628  2.1421 -0.1050 -0.8293
60441SOL     OW99314  13.337   3.438   4.497 -0.0497  0.0198 -0.2897
60441SOL    HW199315  13.406   3.385   4.457  2.4812  0.7231  2.7538
60441SOL    HW299316  13.309   3.386   4.572  0.5615  1.7362  1.1875
60442SOL     OW99317  12.434  12.639  12.094  0.0321 -0.0898  0.4442
60442SOL    HW199318  12.418  12.612  12.185 -1.3657  1.5363  0.7244
60442SOL    HW299319  12.529  12.642  12.086  0.1743 -0.4221  1.7983
60443SOL     OW99320  12.469  12.695  13.833 -0.4535  0.0456  0.1691
60443SOL    HW199321  12.394  12.753  13.820 -1.4889 -1.2124  0.2195
60443SOL    HW299322  12.499  12.674  13.744 -1.5235 -1.0798  0.0321
60444SOL     OW99323   0.604   3.873  13.413 -0.3459 -0.1845  0.0570
60444SOL    HW199324   0.509   3.875  13.417 -0.3881  0.0298 -0.8457
60444SOL    HW299325   0.625   3.805  13.349  0.0525  0.8085 -0.9112
60445SOL     OW99326   5.058   7.627   5.542 -0.4222 -0.1851 -0.4608
60445SOL    HW199327   5.115   7.552   5.525  2.3989  1.4501  0.9951
60445SOL    HW299328   4.977   7.607   5.494  0.4665 -3.7188 -0.7816
60446SOL     OW99329   3.594   2.018  10.068 -0.1419  0.0506  0.8130
60446SOL    HW199330   3.571   2.082  10.001 -0.1590 -0.3932  0.3941
60446SOL    HW299331   3.612   1.938  10.020 -2.2808 -0.8992  1.4856
60447SOL     OW99332   5.124   9.388  11.873 -0.2094  0.6381 -0.2281
60447SOL    HW199333   5.072   9.316  11.839 -0.8377  0.5030  0.9969
60447SOL    HW299334   5.060   9.453  11.903  0.2551  0.1006  2.1028
60448SOL     OW99335   4.272  13.475   0.802 -0.4052  0.0288  0.0037
60448SOL    HW199336   4.259  13.514   0.888  2.4282  1.5281 -0.1338
60448SOL    HW299337   4.274  13.551   0.742  0.6818 -0.6976 -0.9234
60449SOL     OW99338   9.806   2.976   6.767 -0.1485  0.0727  0.5839
60449SOL    HW199339   9.880   3.018   6.812 -1.5566  1.7305  1.4585
60449SOL    HW299340   9.772   2.912   6.829  1.3744 -1.7743 -0.3709
60450SOL     OW99341   1.238   1.236   4.492 -0.1492  0.0897  0.5574
60450SOL    HW199342   1.253   1.288   4.571 -2.1165  0.3624  0.8152
60450SOL    HW299343   1.278   1.288   4.422  0.9008  0.2455  1.2483
60451SOL     OW99344   5.117  10.903   4.137  0.0055 -0.1357  0.6374
60451SOL    HW199345   5.185  10.865   4.082 -0.1255 -1.0715  1.1033
60451SOL    HW299346   5.037  10.856   4.113 -0.3201  0.3817  0.6820
60452SOL     OW99347   0.107   1.276  10.285  0.2867  0.2376  0.4004
60452SOL    HW199348   0.071   1.363  10.301  0.2108  0.0588  1.2951
60452SOL    HW299349   0.068   1.248  10.202  1.2024  1.5084 -0.4875
60453SOL     OW99350   5.545   0.913   4.909  0.2341 -0.0560  0.0441
60453SOL    HW199351   5.544   1.007   4.928 -1.4457 -0.0179 -0.0910
60453SOL    HW299352   5.624   0.881   4.952  0.1181  1.1948  1.2649
60454SOL     OW99353   8.277   5.694  13.255 -0.3570  0.3796  0.7136
60454SOL    HW199354   8.229   5.673  13.335 -0.8990  0.2531  0.3566
60454SOL    HW299355   8.303   5.609  13.219 -0.3576  0.4250  0.6054
60455SOL     OW99356  11.997  12.449   4.116  0.4127 -0.6693 -0.2977
60455SOL    HW199357  11.982  12.522   4.055  1.0362 -0.0244  0.2962
60455SOL    HW299358  11.915  12.399   4.114  0.8985 -1.5092 -2.7333
60456SOL     OW99359  11.508   0.160   7.858 -0.2591 -0.3119 -0.0646
60456SOL    HW199360  11.495   0.140   7.765  0.0821 -0.1697 -0.1430
60456SOL    HW299361  11.420   0.160   7.895 -0.5125  0.9623 -0.6484
60457SOL     OW99362   5.639   6.161  10.390 -0.2087  0.0658 -0.2064
60457SOL    HW199363   5.649   6.256  10.388 -0.4345  0.0865 -0.4397
60457SOL    HW299364   5.722   6.127  10.356 -0.2064  0.1853 -0.3203
60458SOL     OW99365   9.311   7.653   2.548  0.4588 -0.0932 -0.6638
60458SOL    HW199366   9.323   7.709   2.624 -0.4186 -1.2322  0.3579
60458SOL    HW299367   9.217   7.658   2.529  0.4640 -0.7899 -0.8915
60459SOL     OW99368  10.938   1.660  13.238  0.1823 -0.3419 -0.6780
60459SOL    HW199369  10.856   1.621  13.207 -0.0848  0.2027 -0.6777
60459SOL    HW299370  10.957   1.730  13.175  0.1842  0.0982 -0.2001
60460SOL     OW99371   6.582  11.124   2.192 -0.2006 -0.1964  0.0378
60460SOL    HW199372   6.513  11.190   2.200 -0.0030 -0.1467  1.5233
60460SOL    HW299373   6.579  11.076   2.275  0.1488 -1.5797 -0.7213
60461SOL     OW99374   4.052   6.655   5.539  0.0071  0.0165  0.3368
60461SOL    HW199375   4.058   6.661   5.634 -1.1350 -1.2385  0.5273
60461SOL    HW299376   3.961   6.631   5.522 -0.1235  1.4024 -1.1557
60462SOL     OW99377   6.116   6.311  12.104  0.0751 -0.1171 -0.2450
60462SOL    HW199378   6.181   6.242  12.121  0.9773  0.5474 -0.9029
60462SOL    HW299379   6.158   6.392  12.134 -0.5376  0.2958 -0.4803
60463SOL     OW99380   8.056   7.113   5.289 -0.2327 -0.8109 -0.4061
60463SOL    HW199381   8.029   7.191   5.240  0.2263 -0.9104 -0.8339
60463SOL    HW299382   8.150   7.105   5.271 -0.3708 -1.7463 -0.7723
60464SOL     OW99383   8.006  10.482  12.365  0.0883  0.9256 -0.2587
60464SOL    HW199384   7.913  10.485  12.343 -0.1815 -0.2035  0.6505
60464SOL    HW299385   8.047  10.541  12.303 -1.1935  1.1472 -0.9220
60465SOL     OW99386   1.450   9.105   2.689  0.2577 -0.0056 -0.2432
60465SOL    HW199387   1.504   9.026   2.698  1.5094  0.7332 -1.0290
60465SOL    HW299388   1.414   9.100   2.601 -2.2648 -1.2379  0.7555
60466SOL     OW99389   7.464   9.514   2.939  1.2382 -0.5731  0.3851
60466SOL    HW199390   7.505   9.482   3.019 -1.1094  0.8660  2.2973
60466SOL    HW299391   7.417   9.439   2.904  1.2317 -0.9029  1.0943
60467SOL     OW99392   5.734   8.481  13.782 -0.4502 -1.0272 -0.1270
60467SOL    HW199393   5.803   8.546  13.799 -1.2102 -0.8632  2.8617
60467SOL    HW299394   5.782   8.403  13.755  0.7702 -0.3572 -0.0072
60468SOL     OW99395   6.468   8.790   5.458  0.7638 -0.9654  0.3557
60468SOL    HW199396   6.522   8.858   5.499  0.5336 -0.6633  0.1589
60468SOL    HW299397   6.387   8.788   5.509  0.3088 -0.3013 -0.3284
60469SOL     OW99398   8.874  12.701  11.864 -0.2594  0.2091 -0.4241
60469SOL    HW199399   8.845  12.629  11.919 -2.2762 -0.5576 -2.3502
60469SOL    HW299400   8.896  12.659  11.780  2.2780  1.3808 -0.4344
60470SOL     OW99401   8.554   5.320   3.094  0.0246  0.0848  0.2419
60470SOL    HW199402   8.630   5.362   3.134  0.5194 -0.5862  0.0060
60470SOL    HW299403   8.589   5.271   3.021 -0.8501  1.1566 -0.9384
60471SOL     OW99404   4.214   2.044   2.917 -0.0823  0.3037  0.2737
60471SOL    HW199405   4.254   2.011   2.997 -2.3358 -0.0550  1.3224
60471SOL    HW299406   4.166   2.122   2.944 -0.9843  0.1051 -0.7095
60472SOL     OW99407  14.023   9.752  13.668  0.1611  0.0499 -0.0708
60472SOL    HW199408  13.977   9.717  13.745 -0.2985  0.3560 -0.1977
60472SOL    HW299409  13.988   9.841  13.658 -1.0225 -0.5512 -1.6130
60473SOL     OW99410   2.069   2.719  12.799 -0.5871  0.2323 -0.2414
60473SOL    HW199411   2.066   2.813  12.818 -0.2585  0.6890 -2.2427
60473SOL    HW299412   2.050   2.677  12.883 -1.0911  2.0806  0.6168
60474SOL     OW99413   1.230  12.553   9.098 -0.2988 -0.6833  0.1680
60474SOL    HW199414   1.215  12.483   9.162 -1.1577  1.1832  2.0981
60474SOL    HW299415   1.177  12.626   9.128  1.0534  1.0662 -1.4243
60475SOL     OW99416   3.435  13.938   6.475  0.5910  0.0765  0.4530
60475SOL    HW199417   3.454  13.995   6.550 -1.8462  1.5386  0.1022
60475SOL    HW299418   3.402  13.998   6.408  0.9964 -1.4192 -1.1581
60476SOL     OW99419   3.983   2.688  13.239 -0.2290  0.3407  0.0889
60476SOL    HW199420   4.002   2.737  13.319 -1.6511  0.1654  0.5651
60476SOL    HW299421   4.063   2.695  13.187  0.1848  1.7496  0.8641
60477SOL     OW99422  13.241   3.527   2.849 -0.3730 -0.0811 -0.1746
60477SOL    HW199423  13.336   3.525   2.844 -0.3770 -1.5224 -0.1555
60477SOL    HW299424  13.213   3.562   2.764  0.1882  2.5185  0.6415
60478SOL     OW99425  13.529   6.944  13.101 -0.4146  0.1694 -0.9120
60478SOL    HW199426  13.594   6.969  13.167 -0.6178 -0.5729 -0.4153
60478SOL    HW299427  13.550   6.998  13.025 -0.7145  1.6825  0.0434
60479SOL     OW99428   1.694   8.346   5.626  0.0039  0.0143 -0.3447
60479SOL    HW199429   1.611   8.350   5.672  0.6927  1.1232  0.8718
60479SOL    HW299430   1.688   8.415   5.560  0.0817  0.3067 -0.0456
60480SOL     OW99431   7.646  11.430   5.694 -0.0679  0.2428 -0.3764
60480SOL    HW199432   7.626  11.338   5.676 -1.9881 -0.0036  2.4221
60480SOL    HW299433   7.738  11.440   5.669  0.3951 -2.6358 -0.1084
60481SOL     OW99434   0.014   7.397   0.090  0.2888 -0.4308 -0.0630
60481SOL    HW199435  -0.047   7.464   0.060  1.4283  0.5674 -0.2226
60481SOL    HW299436   0.056   7.364   0.010  0.0562 -1.0307  0.0533
60482SOL     OW99437   4.701   7.484   9.117  0.8277  0.3145  0.8162
60482SOL    HW199438   4.625   7.539   9.137  0.5482 -0.2092  1.2472
60482SOL    HW299439   4.688   7.457   9.026 -0.1806 -0.7889  1.2550
60483SOL     OW99440  13.570   3.172   2.434 -0.3803 -0.3183 -0.1225
60483SOL    HW199441  13.491   3.119   2.422  0.0087 -0.4848 -2.4760
60483SOL    HW299442  13.588   3.208   2.347  0.9998  1.3717  0.8002
60484SOL     OW99443   5.140   1.294   4.148 -0.1769  0.2854  0.2295
60484SOL    HW199444   5.120   1.301   4.055  0.0903  1.2832  0.2386
60484SOL    HW299445   5.208   1.227   4.153 -0.3178  0.0990 -0.2676
60485SOL     OW99446   9.712  10.964  13.683  0.1386  0.3509  0.4028
60485SOL    HW199447   9.692  10.917  13.602 -0.3597  1.5536 -0.2045
60485SOL    HW299448   9.800  10.936  13.706  0.1277 -0.3227 -0.3282
60486SOL     OW99449  11.877   3.841   1.770 -0.5999  0.2050 -0.0041
60486SOL    HW199450  11.808   3.871   1.829 -1.1420  1.3834 -1.1836
60486SOL    HW299451  11.958   3.876   1.809 -1.1263  2.5859 -0.8653
60487SOL     OW99452   2.818   0.284   0.938 -0.6176  0.1623  0.3436
60487SOL    HW199453   2.779   0.371   0.933  1.6523  1.2506  0.7193
60487SOL    HW299454   2.851   0.267   0.850  0.2511  0.3381  0.6279
60488SOL     OW99455   7.284   1.673   1.280 -0.1451 -0.3076 -0.0963
60488SOL    HW199456   7.364   1.679   1.229 -0.3730  0.9533 -0.3225
60488SOL    HW299457   7.236   1.599   1.241 -0.7983  1.2415 -2.4082
60489SOL     OW99458   3.330   5.982   2.162  0.3257  0.0206  0.2294
60489SOL    HW199459   3.312   5.888   2.160 -2.4031  0.4337 -2.9058
60489SOL    HW299460   3.246   6.021   2.185  0.2703  1.7539 -2.4945
60490SOL     OW99461   3.567   0.452   2.031 -0.4651 -0.1842 -0.4474
60490SOL    HW199462   3.626   0.490   1.966 -1.2813 -0.1615 -1.1918
60490SOL    HW299463   3.593   0.360   2.037 -0.3635 -0.1784 -0.7870
60491SOL     OW99464   6.124   7.550   7.324  0.3924  0.5447  0.3004
60491SOL    HW199465   6.095   7.594   7.244 -0.3623 -1.1071 -0.3863
60491SOL    HW299466   6.184   7.613   7.366 -1.2978  2.5553 -0.1302
60492SOL     OW99467   0.034   8.772  11.528  0.4798 -0.2695 -0.4900
60492SOL    HW199468   0.040   8.866  11.543 -1.0690 -0.1454 -0.4645
60492SOL    HW299469   0.112   8.736  11.572  0.7396  0.9267  0.0834
60493SOL     OW99470  13.057  12.480  10.940 -0.0832  0.0065  0.8286
60493SOL    HW199471  13.013  12.404  10.977  0.6246  0.0790  1.8393
60493SOL    HW299472  13.150  12.462  10.951  0.0870  1.4834  2.0823
60494SOL     OW99473   6.306   1.589  11.337 -0.0347 -0.5153 -0.5345
60494SOL    HW199474   6.363   1.522  11.298 -1.8651 -0.9410 -2.7113
60494SOL    HW299475   6.365   1.643  11.390  2.1211 -1.7662 -1.5182
60495SOL     OW99476  10.023  12.028  11.329  0.2028 -0.7035  0.0342
60495SOL    HW199477  10.103  11.981  11.307 -0.7821 -2.4599  0.0651
60495SOL    HW299478  10.023  12.104  11.269  2.0903 -0.3998  0.3731
60496SOL     OW99479  13.741   8.448  11.908 -0.4560  0.1866 -0.3355
60496SOL    HW199480  13.777   8.366  11.873 -0.9280  0.3309 -1.1835
60496SOL    HW299481  13.816   8.507  11.911 -0.3869  0.1534 -1.0810
60497SOL     OW99482   3.760   7.331   3.228 -0.5907 -0.2568 -0.0370
60497SOL    HW199483   3.774   7.238   3.210  0.7973 -0.5032  1.9768
60497SOL    HW299484   3.668   7.337   3.254 -0.6974 -1.0590 -0.2083
60498SOL     OW99485   9.450  11.101  10.678 -0.0967 -0.2650  0.1662
60498SOL    HW199486   9.490  11.126  10.595  0.9144 -1.0072  0.4034
60498SOL    HW299487   9.519  11.115  10.743 -0.6619 -0.3067  0.7914
60499SOL     OW99488  10.781   6.627   3.687 -0.0352  0.2445  0.8225
60499SOL    HW199489  10.782   6.558   3.753 -0.2489  0.2986  0.8822
60499SOL    HW299490  10.848   6.690   3.716 -2.0081  1.7064  2.5196
60500SOL     OW99491   6.496  11.238  14.008 -0.0638 -0.0763 -0.6599
60500SOL    HW199492   6.424  11.259  14.067 -0.5777 -2.1169 -0.4818
60500SOL    HW299493   6.471  11.278  13.924 -0.8185  0.2127 -0.3047
60501SOL     OW99494   5.958  14.110  10.619  0.1129  0.3487 -0.1081
60501SOL    HW199495   5.952  14.023  10.657  0.6041  0.1893 -0.3835
60501SOL    HW299496   5.868  14.132  10.594 -0.0129 -0.0691 -0.0274
60502SOL     OW99497   4.757   1.629   2.320 -0.2048  0.1914 -0.0721
60502SOL    HW199498   4.666   1.601   2.314 -0.2006 -0.6298  2.6084
60502SOL    HW299499   4.752   1.720   2.350 -0.1619  0.0060  0.5114
60503SOL     OW99500   2.493  11.624   1.085 -0.5072  0.3671  0.5463
60503SOL    HW199501   2.582  11.637   1.054 -0.5953 -1.2504 -0.5146
60503SOL    HW299502   2.452  11.710   1.078  0.5950  0.8477 -0.2336
60504SOL     OW99503   0.260  12.147  12.563  0.5466  0.0642 -0.0060
60504SOL    HW199504   0.350  12.174  12.543  0.4186  1.0633  0.7050
60504SOL    HW299505   0.230  12.104  12.483  0.5326  2.6640 -1.5179
60505SOL     OW99506   3.999   4.709   0.537 -0.4092  0.0308 -0.3866
60505SOL    HW199507   4.026   4.679   0.450  2.7952  0.8369  0.1969
60505SOL    HW299508   4.042   4.793   0.548 -0.9049  0.0482  1.8999
60506SOL     OW99509   1.626   9.711   9.043  0.1955  0.1360  0.0349
60506SOL    HW199510   1.575   9.788   9.066 -0.9837 -0.7278  0.4044
60506SOL    HW299511   1.710   9.723   9.088 -0.1019  1.0307  0.3617
60507SOL     OW99512   0.429   5.112   0.759  0.0687  0.3063  0.0732
60507SOL    HW199513   0.463   5.022   0.764 -0.9760 -0.2434 -1.6342
60507SOL    HW299514   0.503   5.167   0.782  0.9925 -0.9667  0.2873
60508SOL     OW99515   3.002  11.154   7.066  0.3155  0.0850 -0.2739
60508SOL    HW199516   2.993  11.070   7.021  1.3469  0.4592 -1.2111
60508SOL    HW299517   3.085  11.189   7.036  0.6247  0.7666  1.2772
60509SOL     OW99518   0.860   2.789   1.641  0.4027 -0.0758 -0.1836
60509SOL    HW199519   0.829   2.734   1.568  1.0866 -1.3370  0.4331
60509SOL    HW299520   0.836   2.878   1.616 -0.0790 -0.5662 -1.5830
60510SOL     OW99521   5.128   6.641  12.654 -0.3707 -0.1741 -0.0622
60510SOL    HW199522   5.136   6.737  12.656 -1.6029 -0.0584  1.1548
60510SOL    HW299523   5.131   6.615  12.746 -1.8320 -1.1024 -0.2366
60511SOL     OW99524  12.955   0.052   3.373  0.1836 -0.4739 -0.0993
60511SOL    HW199525  13.045   0.071   3.398 -0.3679  1.0313  0.8191
60511SOL    HW299526  12.954  -0.043   3.358  1.9002 -0.5134 -0.1119
60512SOL     OW99527   0.914  12.358   7.263 -0.3657 -0.2849 -0.5155
60512SOL    HW199528   0.829  12.400   7.275  0.3309  1.1315 -0.3331
60512SOL    HW299529   0.894  12.264   7.261 -1.7455 -0.0916  1.2732
60513SOL     OW99530   1.572   1.630  10.150 -0.2774  0.2625  0.0942
60513SOL    HW199531   1.592   1.578  10.072 -0.1523  0.8211 -0.2446
60513SOL    HW299532   1.555   1.718  10.117 -3.4145 -0.1271  0.3062
60514SOL     OW99533   3.611   8.269   8.211  0.0421 -0.2660  0.2920
60514SOL    HW199534   3.650   8.206   8.151  0.4370 -0.3834  0.6661
60514SOL    HW299535   3.604   8.350   8.160 -1.2760 -0.8204 -0.4762
60515SOL     OW99536   6.722   8.005  11.024 -0.2756 -0.0767 -0.0542
60515SOL    HW199537   6.641   8.055  11.039  0.4561  0.7322  1.3605
60515SOL    HW299538   6.705   7.921  11.067 -0.4125  0.0587  0.1666
60516SOL     OW99539   9.348   4.473   6.297  0.2644 -0.5230  0.2428
60516SOL    HW199540   9.286   4.423   6.351  0.6912 -1.2927  0.0338
60516SOL    HW299541   9.434   4.441   6.323  0.9051  2.7105  2.8269
60517SOL     OW99542   9.331   2.321   3.723 -0.1796 -0.3826  0.3604
60517SOL    HW199543   9.323   2.383   3.796  0.3808  1.1520 -0.8326
60517SOL    HW299544   9.413   2.274   3.740  1.1692  1.5896 -0.4259
60518SOL     OW99545  11.124  10.972   3.732 -0.0797  0.1079  0.4659
60518SOL    HW199546  11.147  10.997   3.643 -0.4993 -0.1803  0.2762
60518SOL    HW299547  11.158  10.884   3.742  2.4666  1.1080  1.5326
60519SOL     OW99548  11.151   8.829  12.380  0.0603  0.1634  0.4793
60519SOL    HW199549  11.179   8.916  12.408  1.5828 -0.2871  0.4373
60519SOL    HW299550  11.097   8.797  12.452 -1.5012  1.5673  0.0042
60520SOL     OW99551  10.293  12.373   8.631  0.6800  0.0602  0.1190
60520SOL    HW199552  10.376  12.330   8.609  0.4802 -0.0678 -0.3927
60520SOL    HW299553  10.256  12.319   8.700 -0.2084 -1.3914 -1.4246
60521SOL     OW99554   9.244  14.093   2.564  0.4133  0.0682 -0.5998
60521SOL    HW199555   9.304  14.080   2.638 -1.5649 -1.0020  0.9334
60521SOL    HW299556   9.268  14.178   2.528  1.5350  0.5860  1.2241
60522SOL     OW99557  11.757   6.511  12.754  0.2937 -0.9325 -0.3730
60522SOL    HW199558  11.734   6.453  12.827  1.1910 -0.6611  0.1506
60522SOL    HW299559  11.677   6.560  12.735  0.5546  0.4473  1.7947
60523SOL     OW99560   9.009  10.621   6.256  0.1339 -0.3408 -0.5290
60523SOL    HW199561   8.920  10.638   6.228  0.7753  2.1774 -1.2231
60523SOL    HW299562   9.040  10.553   6.197 -1.1472 -0.9277 -0.5631
60524SOL     OW99563   6.039   3.814  11.625 -0.2436 -0.8037  0.8319
60524SOL    HW199564   6.028   3.813  11.530  1.7712 -2.0470  0.5508
60524SOL    HW299565   6.076   3.728  11.646  1.3876  0.2237  2.4594
60525SOL     OW99566  11.132   0.420   5.973  0.2301 -0.2802 -0.1579
60525SOL    HW199567  11.130   0.482   6.047 -0.1069  1.0843 -1.2617
60525SOL    HW299568  11.196   0.457   5.912  0.4283 -1.3294 -0.6102
60526SOL     OW99569   2.351   1.430   7.977 -0.1491 -0.0226  0.1625
60526SOL    HW199570   2.369   1.462   8.065 -0.2067 -0.7560  0.4502
60526SOL    HW299571   2.433   1.388   7.949  0.0305  0.6530 -0.3362
60527SOL     OW99572   3.167   8.609  10.031 -0.6729 -0.2639  0.5131
60527SOL    HW199573   3.216   8.542  10.078  1.6610 -0.0269 -1.3396
60527SOL    HW299574   3.194   8.691  10.072  0.3626 -0.1520 -0.3471
60528SOL     OW99575   6.101   9.176   8.913 -0.0803 -0.1956 -0.1585
60528SOL    HW199576   6.065   9.251   8.865 -0.4882 -0.6557 -0.5912
60528SOL    HW299577   6.131   9.212   8.996 -2.3003  0.0969  0.5863
60529SOL     OW99578  13.729   8.664   2.278  0.0238  0.5463  0.2541
60529SOL    HW199579  13.815   8.624   2.288 -0.3305 -1.2538 -2.6307
60529SOL    HW299580  13.668   8.591   2.281 -1.2690  1.5901  0.5192
60530SOL     OW99581   8.361   5.840  14.020 -0.2895 -0.1559  0.4684
60530SOL    HW199582   8.399   5.818  14.106 -0.8744  1.8538  1.3128
60530SOL    HW299583   8.395   5.773  13.961  1.8475 -0.3975  1.8536
60531SOL     OW99584   8.193  13.158  10.950  0.1161 -0.1794 -0.6890
60531SOL    HW199585   8.110  13.196  10.922  0.2549  1.2455  0.6968
60531SOL    HW299586   8.252  13.233  10.957  1.5878 -1.1907 -1.8319
60532SOL     OW99587   6.979   7.053   1.035  0.3818 -0.0500  0.3819
60532SOL    HW199588   7.057   7.015   1.076  0.1451  0.1241  1.0094
60532SOL    HW299589   7.010   7.136   0.997  0.0019  1.3679  2.9489
60533SOL     OW99590   2.510   8.129   1.243 -0.3276  0.0559  0.0901
60533SOL    HW199591   2.423   8.156   1.213 -0.3494 -1.2079 -1.0715
60533SOL    HW299592   2.553   8.092   1.166  0.9184 -0.1484  0.8430
60534SOL     OW99593   7.935   2.746   9.165 -0.0793 -0.2039 -0.8282
60534SOL    HW199594   7.927   2.773   9.257  0.2033  1.2891 -1.2176
60534SOL    HW299595   7.876   2.671   9.157 -0.2378 -0.2517  0.5281
60535SOL     OW99596  11.245  13.187   7.320 -0.5692  0.1659 -0.6787
60535SOL    HW199597  11.220  13.221   7.406 -0.3972 -2.1120  0.3441
60535SOL    HW299598  11.180  13.223   7.260 -0.3690  2.2384  0.2867
60536SOL     OW99599   9.848   8.138   1.680  0.3508 -0.2463 -0.0972
60536SOL    HW199600   9.927   8.086   1.689  0.7979  0.5493  0.7279
60536SOL    HW299601   9.783   8.078   1.643  1.2215 -1.0096 -0.4036
60537SOL     OW99602  11.542   1.360   7.578 -0.1828  0.0625 -0.6846
60537SOL    HW199603  11.483   1.359   7.654 -2.2372  0.4880 -2.1869
60537SOL    HW299604  11.589   1.442   7.585 -0.2807  0.0596  0.1605
60538SOL     OW99605   0.595   2.541   2.431 -0.2282 -0.2466  0.2737
60538SOL    HW199606   0.513   2.559   2.384  0.4685  2.8637  0.0219
60538SOL    HW299607   0.569   2.488   2.506 -2.2448 -0.4791 -0.5312
60539SOL     OW99608   7.563   7.201   7.159  0.2340  0.1257  0.0780
60539SOL    HW199609   7.600   7.162   7.239 -0.8351 -0.0133  0.5241
60539SOL    HW299610   7.497   7.262   7.191 -0.4887 -0.2273 -0.7126
60540SOL     OW99611   9.324  13.171   6.869  0.2569 -0.2216  0.5175
60540SOL    HW199612   9.327  13.234   6.941 -0.3318 -0.0229  0.3730
60540SOL    HW299613   9.416  13.152   6.850  0.6196  2.6101 -1.1977
60541SOL     OW99614  13.567  13.493  11.837 -0.1328  0.4467 -0.5711
60541SOL    HW199615  13.538  13.494  11.928 -2.2842  2.8006 -1.1643
60541SOL    HW299616  13.533  13.411  11.802 -0.8922  0.3697  0.2957
60542SOL     OW99617   8.853  10.683  13.930 -0.6114  0.6281  0.0162
60542SOL    HW199618   8.925  10.727  13.884 -0.7268  1.3718  0.5328
60542SOL    HW299619   8.807  10.635  13.861  2.0445 -2.2809  0.0542
60543SOL     OW99620   1.125   6.263   6.992 -0.1668  0.5309  0.1205
60543SOL    HW199621   1.098   6.174   7.014  0.9265  0.3438  0.8258
60543SOL    HW299622   1.055   6.319   7.026 -0.9977 -0.0683 -0.5862
60544SOL     OW99623   2.601   1.285  11.232 -0.1666  0.0037 -0.3161
60544SOL    HW199624   2.539   1.240  11.174 -1.4706  0.4988  0.6399
60544SOL    HW299625   2.546   1.344  11.284  0.9210 -0.5284  1.5120
60545SOL     OW99626   9.446   4.618   4.810 -0.0099  0.2473  0.4673
60545SOL    HW199627   9.467   4.631   4.902  1.3436 -0.6469  0.3121
60545SOL    HW299628   9.487   4.693   4.766 -0.0663  0.3045  0.5107
60546SOL     OW99629  11.601  14.030   0.329 -0.4062 -0.0667 -0.6932
60546SOL    HW199630  11.517  14.069   0.348  0.8585  2.1162  0.8166
60546SOL    HW299631  11.595  14.004   0.237 -2.6271  0.1850 -0.6678
60547SOL     OW99632   5.497  13.767   3.447 -0.4794  0.8066  0.1797
60547SOL    HW199633   5.412  13.724   3.455 -0.7700  0.6883 -2.6145
60547SOL    HW299634   5.557  13.698   3.419  0.0749  1.3014  0.1060
60548SOL     OW99635  11.027   1.332  13.564  0.5029 -0.2092  0.1798
60548SOL    HW199636  11.037   1.401  13.499  0.8524 -1.0944 -0.7222
60548SOL    HW299637  11.091   1.266  13.540  0.3973 -0.7157  1.2221
60549SOL     OW99638   8.913  10.672   0.792 -0.1534  0.1705 -0.1278
60549SOL    HW199639   8.964  10.606   0.746 -0.3679 -0.0606 -0.0341
60549SOL    HW299640   8.824  10.664   0.757 -0.4751 -0.4566  0.7759
60550SOL     OW99641   2.531  11.157   8.811 -0.3196 -0.0357  0.0164
60550SOL    HW199642   2.492  11.161   8.724 -0.1902  0.6757 -0.0083
60550SOL    HW299643   2.483  11.086   8.855 -0.3708 -0.4066 -0.6321
60551SOL     OW99644   5.460   5.469  13.584 -0.7196 -0.6884 -0.3390
60551SOL    HW199645   5.430   5.557  13.561 -0.3867 -0.7826 -1.1249
60551SOL    HW299646   5.417   5.452  13.668 -0.2893  0.4723  0.1476
60552SOL     OW99647   3.205   1.918   2.793 -0.0681 -0.1896  0.1786
60552SOL    HW199648   3.223   1.825   2.774  0.3395 -0.1686  0.4588
60552SOL    HW299649   3.273   1.943   2.855 -1.0785 -0.1174  1.2944
60553SOL     OW99650   2.710   7.088   1.228  0.5350 -0.3041  0.2078
60553SOL    HW199651   2.721   7.159   1.165 -0.8992  0.2015  0.4814
60553SOL    HW299652   2.777   7.103   1.294 -0.2383  1.2861  0.6796
60554SOL     OW99653   7.263   9.846   7.419  0.2669  0.1673  0.4684
60554SOL    HW199654   7.167   9.845   7.419  0.1619  0.3305  3.5550
60554SOL    HW299655   7.286   9.905   7.347 -1.8960 -0.3104 -0.7063
60555SOL     OW99656   5.464  13.410   3.357  0.2735 -0.2568 -0.3691
60555SOL    HW199657   5.390  13.433   3.413  0.2862 -1.2641  0.0895
60555SOL    HW299658   5.436  13.433   3.269  0.4707  1.8846  0.0726
60556SOL     OW99659  11.537   4.457   8.340  0.6162  0.0612 -0.0065
60556SOL    HW199660  11.569   4.547   8.338  0.8795  0.0448  1.6663
60556SOL    HW299661  11.472   4.456   8.410 -0.5424 -0.7102 -1.0645
60557SOL     OW99662   3.199   7.759   8.597  0.1755 -0.0946 -0.8699
60557SOL    HW199663   3.109   7.725   8.602 -0.1237  0.7792  0.3281
60557SOL    HW299664   3.219   7.784   8.687  1.3010  0.5490 -1.2861
60558SOL     OW99665  12.729   5.793   0.216  0.0851 -0.4415  0.2832
60558SOL    HW199666  12.662   5.836   0.269 -0.0819  0.6719 -0.7929
60558SOL    HW299667  12.805   5.786   0.275 -0.9517 -1.7589  1.5287
60559SOL     OW99668  11.185   2.789   6.488  0.0274 -0.1863 -0.0432
60559SOL    HW199669  11.263   2.734   6.500 -0.9601 -1.3830  1.1912
60559SOL    HW299670  11.164   2.779   6.395  1.3198  0.1556 -0.4004
60560SOL     OW99671   6.938   7.732  11.163 -0.1379 -0.2671 -0.1894
60560SOL    HW199672   6.979   7.659  11.209  1.4244 -0.0015 -1.0859
60560SOL    HW299673   6.925   7.700  11.073  0.1252  0.3815 -0.4671
60561SOL     OW99674   1.758  11.021   0.910  0.0351  0.0693  0.2958
60561SOL    HW199675   1.781  10.985   0.824  2.1535  0.4459  0.6454
60561SOL    HW299676   1.678  10.975   0.935  0.1093 -1.0087 -1.2913
60562SOL     OW99677   4.207   5.636  10.684 -0.0526  0.4870  0.2844
60562SOL    HW199678   4.298   5.645  10.657 -0.5639  0.6300 -1.4799
60562SOL    HW299679   4.178   5.725  10.702 -0.6508  0.8256 -2.0473
60563SOL     OW99680   4.961   0.807  12.544  0.2326  0.5099 -0.2976
60563SOL    HW199681   4.874   0.769  12.539  0.1347  0.4022  1.4308
60563SOL    HW299682   4.949   0.889  12.591  1.0577  0.4703  0.0140
60564SOL     OW99683   4.827   3.155  10.261  0.0191  0.6923 -0.2665
60564SOL    HW199684   4.896   3.126  10.203  0.1731  0.3162  0.0971
60564SOL    HW299685   4.753   3.174  10.204  0.7055  1.9854 -0.7541
60565SOL     OW99686  10.587   2.425  10.567  0.3973 -0.2699  0.8040
60565SOL    HW199687  10.605   2.519  10.564  0.9237 -0.2443  2.9282
60565SOL    HW299688  10.651   2.390  10.629  1.4093 -2.3640 -1.2603
60566SOL     OW99689  12.012  11.505   9.885 -0.0997 -0.5237 -0.0252
60566SOL    HW199690  11.973  11.438   9.829 -0.0676  0.2513 -0.9958
60566SOL    HW299691  11.972  11.491   9.971 -0.9443 -1.0488 -0.4957
60567SOL     OW99692   9.089   0.236  14.053 -0.1355 -0.0989 -0.4593
60567SOL    HW199693   9.078   0.324  14.017  0.6265  0.5885  0.9114
60567SOL    HW299694   9.079   0.247  14.148  1.5850 -1.1797 -0.1016
60568SOL     OW99695   9.330   4.497  13.397  0.3761  0.3036  0.3338
60568SOL    HW199696   9.286   4.430  13.449  0.1246  0.7917  0.7688
60568SOL    HW299697   9.415   4.509  13.440 -0.1806  1.3424  1.2058
60569SOL     OW99698  13.803  11.775   1.805  0.4448  0.5326  0.1181
60569SOL    HW199699  13.839  11.718   1.737 -0.4183 -1.5097  1.2896
60569SOL    HW299700  13.719  11.804   1.770 -0.6156 -1.5727  0.7471
60570SOL     OW99701  13.710  11.473   7.366  0.0679 -0.3627 -0.1200
60570SOL    HW199702  13.692  11.567   7.368 -0.9749 -0.4989  2.6760
60570SOL    HW299703  13.643  11.437   7.308 -0.7009  0.4573  0.2339
60571SOL     OW99704  10.796   0.025   9.618 -0.0432 -0.2406 -0.2926
60571SOL    HW199705  10.826  -0.034   9.548  0.7267  1.3081 -1.3109
60571SOL    HW299706  10.753  -0.033   9.680  0.6278 -1.8823 -1.2843
60572SOL     OW99707   2.129   6.669  11.055  0.0571 -0.0001 -0.2217
60572SOL    HW199708   2.076   6.638  10.981 -0.8676  1.0039  0.0048
60572SOL    HW299709   2.164   6.753  11.026 -1.0210  0.8341  0.7636
60573SOL     OW99710   8.099   9.411   8.022  0.2373 -0.1825  0.3130
60573SOL    HW199711   8.146   9.468   8.083  0.0145 -0.4553  0.7429
60573SOL    HW299712   8.126   9.441   7.936  0.1708  0.5398  0.5363
60574SOL     OW99713   0.451  13.975  13.943 -0.2240  1.0079  0.4843
60574SOL    HW199714   0.371  13.970  13.890 -1.7538  1.3256  2.6265
60574SOL    HW299715   0.421  14.004  14.029  2.1416  0.5058  1.5619
60575SOL     OW99716   5.943   6.634   3.215  0.0552  0.3672 -0.3979
60575SOL    HW199717   5.893   6.661   3.292  1.4941  1.2662  0.2642
60575SOL    HW299718   5.887   6.658   3.141 -0.0521  2.4680  0.2844
60576SOL     OW99719  13.649  12.646   4.079  0.1801 -0.5478 -0.3545
60576SOL    HW199720  13.606  12.634   3.994  0.1621  0.7608 -0.5564
60576SOL    HW299721  13.578  12.675   4.137  0.3896 -0.4526 -0.1458
60577SOL     OW99722   7.523  11.897  13.978 -0.3443  0.0783 -0.0662
60577SOL    HW199723   7.467  11.973  13.965  0.3377  0.8030  1.0538
60577SOL    HW299724   7.607  11.923  13.939 -1.0016 -1.3955 -2.7088
60578SOL     OW99725  10.051   1.925   3.717 -0.2790 -0.3719  0.5443
60578SOL    HW199726  10.041   1.921   3.812 -1.3667  1.3602  0.5189
60578SOL    HW299727   9.980   1.981   3.687  1.6934  1.4418 -0.9992
60579SOL     OW99728   9.665   6.547   1.035  0.2474  0.4806  0.2610
60579SOL    HW199729   9.593   6.509   0.984  0.7866 -0.5376  0.2183
60579SOL    HW299730   9.653   6.641   1.027 -2.7404  0.4438  2.6138
60580SOL     OW99731  11.192   9.117   5.182  0.3186 -0.3901 -0.4365
60580SOL    HW199732  11.204   9.198   5.132 -0.0520 -0.9694 -1.5043
60580SOL    HW299733  11.244   9.052   5.134  1.1554 -0.6512  0.7818
60581SOL     OW99734  10.079   8.686   8.441 -0.8510  0.7777  0.3182
60581SOL    HW199735  10.017   8.709   8.372 -1.3294 -0.2948  0.3650
60581SOL    HW299736  10.040   8.724   8.521 -1.2082  0.5103  0.2732
60582SOL     OW99737   2.007   6.320   9.245 -0.4433 -0.1982  0.0945
60582SOL    HW199738   2.030   6.330   9.152 -0.3255 -0.0800  0.1369
60582SOL    HW299739   2.021   6.407   9.282  1.3856 -0.6872  0.6480
60583SOL     OW99740   9.529  10.727  13.449  0.4700  0.4689  0.2548
60583SOL    HW199741   9.565  10.809  13.483  1.5694  0.4051 -0.7071
60583SOL    HW299742   9.444  10.718  13.493 -0.3093  2.8289 -0.5920
60584SOL     OW99743   2.541  10.220   0.828  0.1741  0.2543  0.3144
60584SOL    HW199744   2.501  10.241   0.743 -0.2405 -0.9275  0.2009
60584SOL    HW299745   2.558  10.305   0.868  1.7216  0.8905 -1.5481
60585SOL     OW99746   5.061  11.491   8.145 -0.4411 -0.5819  0.5441
60585SOL    HW199747   5.062  11.405   8.187 -2.4355 -0.8876  0.0654
60585SOL    HW299748   5.094  11.551   8.212 -3.2287 -1.0850  2.5409
60586SOL     OW99749  11.341   0.555   6.411 -0.2757 -0.0028  0.7505
60586SOL    HW199750  11.266   0.495   6.408  0.4289 -0.9041  0.7015
60586SOL    HW299751  11.416   0.498   6.427  0.4955  0.8098  0.1043
60587SOL     OW99752   9.554   7.139   6.762 -0.3146  0.7969  0.0645
60587SOL    HW199753   9.543   7.215   6.705 -3.0167 -0.8036 -1.7861
60587SOL    HW299754   9.606   7.077   6.711  1.1456  1.0015  1.2249
60588SOL     OW99755   4.829   3.017   6.418 -0.6721  0.0396  0.1012
60588SOL    HW199756   4.844   3.105   6.452 -0.6649  0.9298 -2.0367
60588SOL    HW299757   4.904   3.000   6.361 -1.0045 -1.0890 -0.0256
60589SOL     OW99758   4.504   2.401   3.817 -0.1078 -0.2760 -0.5484
60589SOL    HW199759   4.581   2.346   3.828 -0.3491 -0.8323 -1.5634
60589SOL    HW299760   4.436   2.342   3.785 -0.8658  0.2831 -0.0236
60590SOL     OW99761   9.248   0.223   8.556  0.3339  0.3063  0.1909
60590SOL    HW199762   9.291   0.220   8.642  0.3753 -1.4525  0.1444
60590SOL    HW299763   9.312   0.185   8.496 -0.8010 -1.2916 -0.0745
60591SOL     OW99764  13.827   4.950   8.435  0.2934  0.2690 -0.1756
60591SOL    HW199765  13.837   4.905   8.519  1.1522 -0.3813 -0.6183
60591SOL    HW299766  13.739   4.926   8.406  0.6579 -0.9645 -0.2993
60592SOL     OW99767   8.181   1.275   8.152 -0.1639  0.3732  0.7912
60592SOL    HW199768   8.174   1.185   8.184 -0.1180  0.0520 -0.0690
60592SOL    HW299769   8.254   1.273   8.090 -2.3860  0.1493 -1.9891
60593SOL     OW99770   9.617   6.568   3.982 -0.1433  0.7636  0.3491
60593SOL    HW199771   9.537   6.521   3.958  0.1265 -0.0760  1.0083
60593SOL    HW299772   9.587   6.645   4.029 -0.6095  1.4470 -1.0335
60594SOL     OW99773   3.727  11.260   6.964  0.0086 -0.1294  0.4514
60594SOL    HW199774   3.760  11.337   6.918  0.0621 -0.6340 -0.3658
60594SOL    HW299775   3.803  11.202   6.970  0.2369  0.2657  1.9497
60595SOL     OW99776   3.313  11.648   9.624 -0.5919 -0.3062  0.1306
60595SOL    HW199777   3.321  11.637   9.530 -3.0769 -0.1468 -0.1629
60595SOL    HW299778   3.249  11.582   9.651 -0.5053  0.1566  1.5870
60596SOL     OW99779   0.605   3.954   1.525 -0.2573  0.5545  0.1425
60596SOL    HW199780   0.544   3.999   1.583  0.3155 -0.6361  1.7553
60596SOL    HW299781   0.556   3.877   1.494  0.5880 -0.8681  2.1086
60597SOL     OW99782   9.278   3.780   0.393 -0.2078  0.1915 -0.3945
60597SOL    HW199783   9.337   3.754   0.463  0.7321  1.1516 -0.8107
60597SOL    HW299784   9.191   3.772   0.431  0.1627 -1.3415  0.1945
60598SOL     OW99785   4.427   5.693  10.937 -0.6196 -0.1542 -0.3754
60598SOL    HW199786   4.431   5.599  10.958  0.2465  0.0211  0.3014
60598SOL    HW299787   4.342   5.721  10.970 -1.0161 -0.7532 -0.8465
60599SOL     OW99788   4.339  10.118   7.630 -0.5860 -0.1283  0.1606
60599SOL    HW199789   4.335  10.210   7.657  2.4158 -0.5311  2.5938
60599SOL    HW299790   4.346  10.121   7.535 -0.9219  2.1217  0.1499
60600SOL     OW99791   8.401  13.382   8.294 -0.3038  0.4244  0.0674
60600SOL    HW199792   8.384  13.444   8.223  0.5777  1.8590  1.0377
60600SOL    HW299793   8.318  13.379   8.342 -0.2410  1.2051  0.2477
60601SOL     OW99794   5.474  10.181   2.199 -0.1119  0.3360  0.2734
60601SOL    HW199795   5.555  10.227   2.223 -0.9229  1.8385  0.2511
60601SOL    HW299796   5.503  10.094   2.171  1.3218  0.2160  1.9674
60602SOL     OW99797   5.602  11.142   9.584  0.2614 -0.1837  0.1492
60602SOL    HW199798   5.593  11.132   9.679  1.0573 -1.3047  0.1333
60602SOL    HW299799   5.624  11.234   9.571 -0.7087  0.1731  0.9783
60603SOL     OW99800   4.601   3.152   5.380 -0.1110  0.1961  0.2196
60603SOL    HW199801   4.512   3.186   5.395 -0.0944  0.6325 -0.6153
60603SOL    HW299802   4.606   3.074   5.436 -1.3576 -0.3950 -0.4423
60604SOL     OW99803   8.549   9.265   8.132 -0.3109 -0.7061 -0.0842
60604SOL    HW199804   8.544   9.310   8.216  1.3458 -0.6795  0.0301
60604SOL    HW299805   8.506   9.325   8.070  0.4744  0.3180  0.3447
60605SOL     OW99806   0.111  12.118   1.722  0.3844 -0.4861  0.1315
60605SOL    HW199807   0.024  12.114   1.682  0.9338  0.8900 -1.2992
60605SOL    HW299808   0.096  12.164   1.805 -0.5056 -1.8235  0.7382
60606SOL     OW99809   6.013  12.173  10.684  0.2230  0.0043 -0.2038
60606SOL    HW199810   6.096  12.149  10.726 -0.6705 -1.1904  0.9664
60606SOL    HW299811   5.981  12.247  10.735  1.3324  1.5790 -1.6961
60607SOL     OW99812   7.323   5.435   5.552 -0.3782  0.9284  0.7131
60607SOL    HW199813   7.270   5.377   5.607 -2.4325  1.9491 -0.0975
60607SOL    HW299814   7.338   5.512   5.607 -0.9860  1.2341  0.4639
60608SOL     OW99815   4.231  11.092   7.100  0.0035  0.2125 -0.7088
60608SOL    HW199816   4.170  11.115   7.170 -0.5255  0.8869 -1.3743
60608SOL    HW299817   4.302  11.155   7.108  0.7888 -0.7543  0.2491
60609SOL     OW99818  13.108  11.231  10.108 -0.9381 -0.3112 -0.2220
60609SOL    HW199819  13.117  11.292  10.181  2.8391  0.1394 -0.8506
60609SOL    HW299820  13.143  11.279  10.033 -0.6070 -2.2415 -1.3647
60610SOL     OW99821   5.941   6.959   6.770 -0.4102 -0.2808 -0.3692
60610SOL    HW199822   6.030   6.935   6.745  0.4770  1.5815  0.8076
60610SOL    HW299823   5.886   6.919   6.703  1.4528  0.0761 -2.2171
60611SOL     OW99824   6.924  13.534  10.096 -0.4309  0.2510 -0.0176
60611SOL    HW199825   6.960  13.580  10.020 -0.2347  0.0617 -0.0399
60611SOL    HW299826   6.835  13.510  10.070 -0.2871 -0.0094 -0.2690
60612SOL     OW99827   9.227   6.041  11.414  0.1245  0.2781 -0.0144
60612SOL    HW199828   9.319   6.040  11.440  0.0125  1.2743  0.4798
60612SOL    HW299829   9.185   5.980  11.474  0.5015 -0.4044 -0.4293
60613SOL     OW99830  10.747  12.400   4.396 -0.0970  0.0959 -0.3416
60613SOL    HW199831  10.691  12.477   4.390 -0.5927 -0.1443  0.8066
60613SOL    HW299832  10.835  12.436   4.409 -0.5185  0.5242  1.7210
60614SOL     OW99833   7.097   4.608   3.955 -0.2440  0.0056 -0.6256
60614SOL    HW199834   7.007   4.622   3.983 -0.1577 -1.3522  0.4389
60614SOL    HW299835   7.149   4.618   4.035  0.3951 -0.5647 -0.9578
60615SOL     OW99836  14.063  10.210   8.284  0.3294 -0.3385 -0.3473
60615SOL    HW199837  14.154  10.231   8.302  0.3754 -2.7753  3.3381
60615SOL    HW299838  14.063  10.116   8.264 -1.1556  0.1278 -2.9662
60616SOL     OW99839   3.908   3.190   2.879 -0.0844  0.6432  0.2850
60616SOL    HW199840   3.925   3.203   2.786  0.4474  1.7692  0.5232
60616SOL    HW299841   3.980   3.134   2.908 -0.7032 -0.3990 -0.1294
60617SOL     OW99842   2.356   4.986   9.220 -0.3566  0.0889  0.2302
60617SOL    HW199843   2.330   4.935   9.297 -1.6495  1.8178  1.0257
60617SOL    HW299844   2.449   5.002   9.232 -0.1473 -1.1787  0.4732
60618SOL     OW99845   9.434  10.658   2.956 -0.2838  0.0398 -0.0049
60618SOL    HW199846   9.492  10.691   2.888  0.6011 -1.5929 -0.0647
60618SOL    HW299847   9.440  10.724   3.026  1.1060  0.2261 -0.2845
60619SOL     OW99848   7.154   4.346   2.959  0.3172 -0.1141  0.0885
60619SOL    HW199849   7.245   4.343   2.929  0.2237  2.7731 -0.7057
60619SOL    HW299850   7.147   4.427   3.008 -1.4063 -1.2488  1.8799
60620SOL     OW99851   8.869   3.490  13.248 -0.1906 -0.2072 -0.0644
60620SOL    HW199852   8.783   3.530  13.254 -0.0694  0.0045  0.3210
60620SOL    HW299853   8.907   3.528  13.169 -0.1052  0.4005  0.2554
60621SOL     OW99854  12.593   6.004  10.002 -0.0303 -0.4776 -0.1773
60621SOL    HW199855  12.591   6.069  10.071  1.2792 -0.1466 -0.4249
60621SOL    HW299856  12.583   5.920  10.047  0.3196 -0.2304  0.3670
60622SOL     OW99857  11.626   6.255  11.693  0.2166 -0.0192  0.2395
60622SOL    HW199858  11.644   6.336  11.646  0.3586 -0.3047 -0.2083
60622SOL    HW299859  11.596   6.194  11.625 -0.9106 -0.0343  0.7193
60623SOL     OW99860   2.402   1.008   1.661  0.0791  0.1433  0.0246
60623SOL    HW199861   2.319   1.053   1.649  0.2893  0.1319 -1.8420
60623SOL    HW299862   2.435   0.995   1.572 -0.1576 -4.0623  0.3146
60624SOL     OW99863   0.249   1.260   8.966 -0.2908  0.0370  0.3174
60624SOL    HW199864   0.310   1.324   9.003 -0.4102  0.8273 -0.8029
60624SOL    HW299865   0.168   1.309   8.952 -0.0698 -0.0396 -1.5334
60625SOL     OW99866   5.522   0.929   7.718  0.0283 -0.0392 -0.5952
60625SOL    HW199867   5.497   1.006   7.666 -1.1174 -0.5939 -0.9091
60625SOL    HW299868   5.512   0.856   7.657  0.8284 -0.4681 -0.2146
60626SOL     OW99869  12.609   5.443   2.051 -0.2366 -0.1820 -0.0157
60626SOL    HW199870  12.559   5.395   1.985 -1.9495 -0.4269  1.3854
60626SOL    HW299871  12.693   5.398   2.055 -0.3034 -0.5070 -1.5940
60627SOL     OW99872  12.414  10.888   4.033 -0.6055 -0.8246  0.3262
60627SOL    HW199873  12.346  10.955   4.031  1.1281  1.0543 -1.2862
60627SOL    HW299874  12.423  10.865   4.125 -1.1863  1.2944  0.9679
60628SOL     OW99875  11.487  13.315   7.215  0.2755 -0.0038 -0.6803
60628SOL    HW199876  11.479  13.408   7.237  1.4862 -0.1935  0.7317
60628SOL    HW299877  11.398  13.281   7.225  0.0214  0.7872 -0.1171
60629SOL     OW99878   2.217   5.134   6.313  0.2203  0.5559 -0.3807
60629SOL    HW199879   2.289   5.071   6.318  0.0718  0.4182  0.0240
60629SOL    HW299880   2.164   5.117   6.391 -1.2814 -0.5878 -1.5620
60630SOL     OW99881   3.098  11.554   8.560  0.7111 -0.1605  0.0857
60630SOL    HW199882   3.036  11.622   8.589  0.6310  0.7143 -2.0025
60630SOL    HW299883   3.088  11.484   8.625 -1.8598  0.3008  0.3061
60631SOL     OW99884   5.221   6.392   1.242 -0.2590 -0.3523  0.2279
60631SOL    HW199885   5.261   6.447   1.309 -0.9478  0.9484 -0.3984
60631SOL    HW299886   5.212   6.306   1.284 -0.5672  0.3890  1.7591
60632SOL     OW99887   2.153   6.650   3.582 -0.2076 -0.5793 -1.0748
60632SOL    HW199888   2.116   6.636   3.669 -0.0635 -0.4675 -0.9956
60632SOL    HW299889   2.204   6.572   3.564  1.2349  0.1574 -0.3094
60633SOL     OW99890   9.923   6.673   7.756  0.1227  0.1408  0.5564
60633SOL    HW199891   9.916   6.762   7.722 -1.8514  0.7981  2.4794
60633SOL    HW299892   9.988   6.679   7.826 -1.4576  0.6299  2.0707
60634SOL     OW99893  10.663   4.616  14.029 -0.2246  0.0502 -0.2997
60634SOL    HW199894  10.574   4.651  14.029  0.4973  2.0071  0.2384
60634SOL    HW299895  10.696   4.632  13.941 -0.5645 -1.1796 -0.6676
60635SOL     OW99896  10.417   5.188   7.187 -0.0586  0.2137 -0.1613
60635SOL    HW199897  10.469   5.203   7.108 -1.3218  0.9147 -0.9051
60635SOL    HW299898  10.438   5.263   7.243  0.7282 -0.2060  0.1175
60636SOL     OW99899  11.679  11.380   8.909  0.4182 -0.1623 -0.4143
60636SOL    HW199900  11.639  11.435   8.842  2.5039  0.2884 -1.3473
60636SOL    HW299901  11.628  11.299   8.906 -1.1757  0.7946 -0.6692
60637SOL     OW99902   7.953   4.759   0.614  0.2999  0.5843  0.0885
60637SOL    HW199903   8.048   4.747   0.608  0.8013  3.8328 -0.1599
60637SOL    HW299904   7.935   4.763   0.708  0.7913  2.1006  0.1391
60638SOL     OW99905   8.236  12.743   0.614  0.4544  0.4868  0.4386
60638SOL    HW199906   8.143  12.751   0.592  0.5213  2.2974  0.6305
60638SOL    HW299907   8.281  12.741   0.530  0.2874  0.3344  0.3530
60639SOL     OW99908   9.245   6.956   1.670 -0.2366  0.0171  0.3051
60639SOL    HW199909   9.313   6.982   1.732 -0.1031  0.9287 -0.2108
60639SOL    HW299910   9.164   6.993   1.707 -0.1461  0.6212 -0.1000
60640SOL     OW99911   5.132  11.962   5.047  0.1403  0.0982 -0.0548
60640SOL    HW199912   5.160  11.932   5.134 -0.3602  1.1563  0.4810
60640SOL    HW299913   5.155  11.889   4.989  1.1794 -0.3203  0.8393
60641SOL     OW99914   6.021   7.193  13.300 -0.3191  0.2418 -0.3190
60641SOL    HW199915   5.997   7.205  13.391  0.8482  1.3455 -0.1211
60641SOL    HW299916   6.114   7.169  13.302 -0.4307 -0.3333 -1.1875
60642SOL     OW99917   0.060  10.551   2.701 -0.5727 -0.3911  0.0663
60642SOL    HW199918   0.072  10.526   2.609  2.4987 -1.6790  0.6958
60642SOL    HW299919   0.145  10.586   2.728 -1.2812 -0.3945  2.5316
60643SOL     OW99920   1.422   8.167   9.290 -0.4191 -0.1033  0.0855
60643SOL    HW199921   1.420   8.224   9.213 -1.0287 -0.4109 -0.1339
60643SOL    HW299922   1.356   8.203   9.349 -0.1756 -0.0552  0.3303
60644SOL     OW99923   4.170   8.208  10.390  0.4755  0.2820  0.0572
60644SOL    HW199924   4.151   8.259  10.469 -0.1805  2.0224 -1.1706
60644SOL    HW299925   4.220   8.133  10.422 -1.0886  0.1041  2.3179
60645SOL     OW99926   5.457   0.355   7.775  0.2334  1.0653  0.1930
60645SOL    HW199927   5.488   0.445   7.768 -1.5088  1.6861 -0.1221
60645SOL    HW299928   5.425   0.347   7.865  0.1978  0.8318  0.1606
60646SOL     OW99929   6.802  13.425   8.083  0.1696  0.0754 -0.1179
60646SOL    HW199930   6.755  13.401   8.163  0.1997 -0.8896 -0.3843
60646SOL    HW299931   6.895  13.419   8.107  0.1776  0.3891 -0.0589
60647SOL     OW99932   2.020   1.459   1.001 -0.3704 -0.3933  0.1067
60647SOL    HW199933   2.096   1.503   0.963  1.0487 -3.2223 -0.6040
60647SOL    HW299934   1.946   1.489   0.948  0.5779  0.7402 -0.6268
60648SOL     OW99935   6.096  10.215  10.396  0.0108  0.2225  0.0373
60648SOL    HW199936   6.135  10.191  10.312 -0.0445 -0.8077  0.2915
60648SOL    HW299937   6.149  10.289  10.426  1.7022 -1.0145  0.2775
60649SOL     OW99938   2.831   3.324   9.301 -0.3561  0.4835 -0.1194
60649SOL    HW199939   2.881   3.270   9.239  1.9782 -1.3144  3.0155
60649SOL    HW299940   2.896   3.381   9.342 -1.1577 -0.4065  2.6195
60650SOL     OW99941  12.000  10.707   0.082 -0.0043  0.4199 -0.1398
60650SOL    HW199942  11.951  10.635   0.124  1.9926 -0.4449  0.8344
60650SOL    HW299943  11.955  10.786   0.112 -0.0716 -0.2880  1.7924
60651SOL     OW99944   2.414   0.380  10.783 -0.6390  0.1492 -0.7937
60651SOL    HW199945   2.461   0.405  10.704 -1.0262 -0.4656 -1.2271
60651SOL    HW299946   2.458   0.427  10.854  0.0828  0.2354 -1.2995
60652SOL     OW99947   2.416  11.921  12.920  0.3796  0.0689  0.1774
60652SOL    HW199948   2.366  11.862  12.864 -0.8925  0.5812  0.7465
60652SOL    HW299949   2.466  11.862  12.977 -0.5431 -0.4691  0.4454
60653SOL     OW99950  11.996  14.055   9.159  0.4893 -0.2976  0.3831
60653SOL    HW199951  11.914  14.046   9.208 -0.4048  0.2531 -0.9582
60653SOL    HW299952  12.011  13.969   9.121 -0.9598  0.2497 -1.5805
60654SOL     OW99953  10.692   1.774   9.343 -0.0515  0.0559  0.5305
60654SOL    HW199954  10.711   1.802   9.254 -0.9244  1.0411  0.6308
60654SOL    HW299955  10.723   1.683   9.348  0.4669  0.1645 -0.6090
60655SOL     OW99956   5.271  12.287   9.350  0.0348 -0.3199 -0.0059
60655SOL    HW199957   5.335  12.229   9.392  1.1058 -0.0921 -1.2732
60655SOL    HW299958   5.308  12.374   9.359 -1.2188  0.1207  1.2396
60656SOL     OW99959   7.729   1.932   9.393  0.1198  0.4352  0.4459
60656SOL    HW199960   7.692   1.901   9.475 -0.2320  1.2666  0.6031
60656SOL    HW299961   7.758   2.021   9.411  2.1214 -0.1328  0.3037
60657SOL     OW99962  13.000   4.432   9.520  0.2781  0.1052 -0.0590
60657SOL    HW199963  12.988   4.405   9.611  0.5903 -1.8371 -0.5483
60657SOL    HW299964  13.075   4.492   9.522 -0.4940  1.0899  1.0992
60658SOL     OW99965   0.223   7.083   2.684 -0.3471 -0.1661  0.5293
60658SOL    HW199966   0.147   7.092   2.742 -1.0682  0.0601 -0.4319
60658SOL    HW299967   0.232   7.169   2.643 -0.3568 -0.5597 -0.3091
60659SOL     OW99968   8.528   2.643  14.033 -0.0438  0.6478 -0.3300
60659SOL    HW199969   8.608   2.695  14.032  1.3065 -1.3251 -0.9326
60659SOL    HW299970   8.557   2.555  14.057 -1.8983 -0.3405 -1.4757
60660SOL     OW99971   3.519   7.741  13.109  0.3016  0.7195 -0.2788
60660SOL    HW199972   3.469   7.682  13.165 -1.8745  0.8434 -1.9804
60660SOL    HW299973   3.601   7.755  13.157 -0.4583 -1.0504  1.7006
60661SOL     OW99974   5.734   3.702   6.297 -0.3739 -0.3455  0.7041
60661SOL    HW199975   5.792   3.694   6.372 -0.5985  1.0926  1.0476
60661SOL    HW299976   5.659   3.646   6.319 -0.0396 -0.6355  1.1334
60662SOL     OW99977   3.107  12.247   6.056 -0.4396 -0.0932  0.0455
60662SOL    HW199978   3.141  12.190   5.986  0.4315  2.5318 -1.8466
60662SOL    HW299979   3.024  12.279   6.022  0.7617  2.5344 -0.7191
60663SOL     OW99980   2.240   8.689  11.082  0.0540  0.1839 -0.5547
60663SOL    HW199981   2.212   8.743  11.008  0.7938  0.5447 -0.5814
60663SOL    HW299982   2.167   8.628  11.096  0.0122 -0.0815 -1.7711
60664SOL     OW99983  10.068   7.619   4.654  0.2474 -0.3197 -0.0861
60664SOL    HW199984  10.107   7.629   4.740 -0.0522 -0.6135  0.0887
60664SOL    HW299985   9.996   7.556   4.667  0.7116 -0.9947 -0.6981
60665SOL     OW99986   6.783  10.433   6.794 -0.1790 -0.1762 -0.5009
60665SOL    HW199987   6.759  10.509   6.741  1.0144  1.2576  0.9064
60665SOL    HW299988   6.853  10.390   6.744  0.1740  0.5254 -0.6225
60666SOL     OW99989   7.172   6.333   7.432  0.4331 -0.0119 -0.0040
60666SOL    HW199990   7.189   6.262   7.493 -0.0031  0.2948  0.4847
60666SOL    HW299991   7.127   6.292   7.359 -0.7754 -0.0816  0.7511
60667SOL     OW99992   0.295   8.460   3.111  0.2935 -0.1829  0.0658
60667SOL    HW199993   0.201   8.476   3.118  0.6465  1.9410  0.4748
60667SOL    HW299994   0.318   8.489   3.023  0.7495  0.3905  0.3691
60668SOL     OW99995   1.501   0.544   4.713 -0.2044 -0.1321  0.1956
60668SOL    HW199996   1.496   0.577   4.623  0.9444 -0.2153  0.0896
60668SOL    HW299997   1.410   0.527   4.737 -0.4561 -1.3973 -1.4384
60669SOL     OW99998   0.833   7.007   3.825  0.9443 -0.4049 -0.2982
60669SOL    HW199999   0.890   7.059   3.881 -0.4221 -0.9388  1.6763
60669SOL    HW2    0   0.759   6.984   3.880  0.2008 -2.1715 -1.9180
60670SOL     OW    1   8.709   3.022   6.709  0.3602 -0.3215 -0.0662
60670SOL    HW1    2   8.750   2.974   6.781  0.4152  0.8046  0.6869
60670SOL    HW2    3   8.663   2.955   6.658 -0.0983 -1.0852  1.3072
60671SOL     OW    4  12.920   5.619   7.308  0.0969  0.0110 -0.2594
60671SOL    HW1    5  12.934   5.708   7.276  0.9961 -0.1031 -0.2148
60671SOL    HW2    6  13.000   5.598   7.356 -0.2285 -0.7188 -0.0207
60672SOL     OW    7  11.455  13.897   1.881  0.0951 -0.2315  0.5617
60672SOL    HW1    8  11.507  13.946   1.818 -1.5729  1.1374  0.1617
60672SOL    HW2    9  11.439  13.812   1.838  2.0298 -0.7444  0.7683
60673SOL     OW   10   8.006   9.308  12.760  0.6150 -0.2801  0.0401
60673SOL    HW1   11   7.961   9.225  12.770  0.3815 -0.3123 -1.1527
60673SOL    HW2   12   7.972   9.345  12.678  1.6395  0.3972 -0.1032
60674SOL     OW   13  13.183  10.818   5.427  0.0577  0.1000 -0.0269
60674SOL    HW1   14  13.252  10.791   5.367 -0.6298  0.1548 -0.8682
60674SOL    HW2   15  13.223  10.887   5.480  0.3444  0.8912 -1.2274
60675SOL     OW   16  11.048   3.193  13.935  0.3998  0.3399 -0.3557
60675SOL    HW1   17  11.011   3.140  13.865  0.1996 -0.4637  0.3462
60675SOL    HW2   18  10.973   3.218  13.988  0.6701  0.0358  0.1781
60676SOL     OW   19   7.892   5.957   3.009  0.5908 -0.6683 -0.7368
60676SOL    HW1   20   7.921   5.889   2.948  2.2563 -1.7625  1.1523
60676SOL    HW2   21   7.797   5.946   3.014  0.6875 -1.9852 -1.4879
60677SOL     OW   22   3.375   8.963   4.842 -0.6204 -0.1171  0.1353
60677SOL    HW1   23   3.330   8.894   4.793  2.2571 -1.3778 -0.9575
60677SOL    HW2   24   3.357   9.043   4.793 -0.4109 -0.8350 -1.1670
60678SOL     OW   25  12.645   6.019   3.410  0.5119  0.9055 -0.0995
60678SOL    HW1   26  12.641   5.948   3.346 -0.4918  1.1479 -0.3197
60678SOL    HW2   27  12.559   6.018   3.453  0.6462  1.6917  0.2064
60679SOL     OW   28   5.189   3.174  12.840  0.4150 -0.0576  0.1473
60679SOL    HW1   29   5.283   3.155  12.837  0.7001  1.2784  0.1785
60679SOL    HW2   30   5.166   3.165  12.932  0.2590 -1.4455 -0.0017
60680SOL     OW   31   4.033  11.929  10.556  0.1431  0.2667 -0.1324
60680SOL    HW1   32   4.026  11.998  10.490 -1.1430 -0.5126 -0.8675
60680SOL    HW2   33   4.126  11.925  10.577  1.1692 -1.4084 -4.0905
60681SOL     OW   34   5.291  13.712  11.735  0.6057 -0.1320 -0.2734
60681SOL    HW1   35   5.335  13.630  11.714  0.3565 -0.6661  1.1919
60681SOL    HW2   36   5.206  13.685  11.771  0.2345  0.7919 -0.4367
60682SOL     OW   37   0.860   3.192   1.775 -0.4588 -0.2487 -0.1350
60682SOL    HW1   38   0.951   3.187   1.746 -0.0942  2.8465  0.1443
60682SOL    HW2   39   0.809   3.168   1.698  0.5331 -2.1537 -0.2615
60683SOL     OW   40  10.646  10.934   9.387  0.4686 -0.2896  0.0654
60683SOL    HW1   41  10.649  11.028   9.372  1.4748 -0.2041  0.6980
60683SOL    HW2   42  10.569  10.921   9.442 -1.4801 -0.2495 -2.4384
60684SOL     OW   43  10.561   4.571   0.188  0.1843 -0.1556  0.0827
60684SOL    HW1   44  10.555   4.610   0.275 -0.3348  0.5163 -0.2385
60684SOL    HW2   45  10.654   4.570   0.168  0.6880 -3.4270  1.9908
60685SOL     OW   46   5.326   2.036   1.420  0.0680 -0.2077 -0.4006
60685SOL    HW1   47   5.322   1.946   1.452 -0.6831  0.5611  1.8524
60685SOL    HW2   48   5.308   2.029   1.327 -1.2739 -2.2671 -0.0440
60686SOL     OW   49   8.636   3.081   7.753 -0.5005 -0.0131 -0.3527
60686SOL    HW1   50   8.699   3.013   7.729 -1.0665  0.0401 -2.1178
60686SOL    HW2   51   8.561   3.033   7.790  0.7220 -0.0419  2.3743
60687SOL     OW   52   5.832   0.453  11.503 -0.3232  0.2052  0.3084
60687SOL    HW1   53   5.742   0.481  11.486 -0.7622 -0.8677  0.7666
60687SOL    HW2   54   5.882   0.534  11.507 -1.1560  0.7857 -0.5803
60688SOL     OW   55   5.766   0.417  11.160 -0.0157  0.0096 -0.9644
60688SOL    HW1   56   5.698   0.389  11.098 -1.1759  0.2633  0.1379
60688SOL    HW2   57   5.741   0.375  11.242  0.0916  1.6225 -0.0780
60689SOL     OW   58   0.618   8.329  12.994 -0.3752  0.2142 -0.0552
60689SOL    HW1   59   0.623   8.244  12.950  1.4887  0.5562 -0.5888
60689SOL    HW2   60   0.571   8.386  12.933 -0.6264 -0.1318 -0.1893
60690SOL     OW   61   0.668   5.219  11.649  0.5596 -0.3755 -0.2015
60690SOL    HW1   62   0.578   5.211  11.681  0.4120  0.1090 -0.4952
60690SOL    HW2   63   0.675   5.151  11.581  0.2251 -0.0043 -0.6096
60691SOL     OW   64  10.327   2.043   6.416 -0.0163 -0.1595  0.6849
60691SOL    HW1   65  10.299   1.988   6.490 -1.3891 -0.1675  0.2036
60691SOL    HW2   66  10.350   2.127   6.456 -0.7977 -0.1443  1.1335
60692SOL     OW   67   5.738   0.455   0.430  0.1003  0.0457  0.3495
60692SOL    HW1   68   5.737   0.548   0.451  0.7816  0.1924 -0.2089
60692SOL    HW2   69   5.704   0.450   0.340 -1.4380 -0.4222  0.9257
60693SOL     OW   70   9.130   3.597  10.100 -0.0603 -0.2985 -0.0261
60693SOL    HW1   71   9.066   3.622  10.167 -1.5417  1.0112 -1.8069
60693SOL    HW2   72   9.194   3.669  10.101  0.8673 -1.0999  1.0507
60694SOL     OW   73   8.942  12.603  12.229 -0.5628 -0.2270  0.3101
60694SOL    HW1   74   9.004  12.634  12.163 -1.9668  2.1827  0.0419
60694SOL    HW2   75   8.977  12.637  12.312 -1.5277  1.2440  0.1441
60695SOL     OW   76  11.047   8.001   9.307 -0.2953 -0.0223 -0.0432
60695SOL    HW1   77  11.096   7.953   9.240  0.1933  0.9842 -0.4391
60695SOL    HW2   78  10.966   7.952   9.318  0.5175 -1.3821  0.1575
60696SOL     OW   79   9.901   7.606   2.616  0.0117 -0.3017 -0.0248
60696SOL    HW1   80   9.836   7.607   2.686  0.4793 -0.8648  0.4223
60696SOL    HW2   81   9.984   7.587   2.660  0.2179 -1.2472 -0.7913
60697SOL     OW   82   8.006  12.062   1.918  0.4344  0.4015  0.4493
60697SOL    HW1   83   7.998  11.970   1.943 -0.1450  0.8281  1.9349
60697SOL    HW2   84   8.082  12.093   1.967 -0.7480  1.2675  1.8299
60698SOL     OW   85  11.033  11.876  12.533 -0.1907 -0.7377 -0.1735
60698SOL    HW1   86  10.966  11.944  12.529 -0.2233 -0.7481  0.1493
60698SOL    HW2   87  11.039  11.855  12.626  0.9150 -0.0928 -0.0879
60699SOL     OW   88   2.826   6.466   8.329  0.0306 -0.4748 -0.3492
60699SOL    HW1   89   2.756   6.413   8.366  0.5036 -0.9274 -0.0815
60699SOL    HW2   90   2.861   6.515   8.404  0.9728 -1.3681 -0.1822
60700SOL     OW   91   0.402   0.371  11.679  0.1547  0.2765  0.0310
60700SOL    HW1   92   0.385   0.329  11.764 -0.2057  0.5724  0.1074
60700SOL    HW2   93   0.351   0.452  11.682  0.7506  0.6659 -0.1601
60701SOL     OW   94   4.868  11.098   4.345  0.3095 -0.0802  0.5316
60701SOL    HW1   95   4.907  11.153   4.277  0.1079  0.5140  0.8878
60701SOL    HW2   96   4.782  11.074   4.310  0.7684 -0.9418 -0.0209
60702SOL     OW   97   1.416   0.811   6.963  0.0651  0.3652  0.0325
60702SOL    HW1   98   1.452   0.852   7.042  1.5976 -0.4111 -0.2242
60702SOL    HW2   99   1.483   0.747   6.937 -1.6080 -1.3151 -0.3691
60703SOL     OW  100   6.126   3.237   4.058 -0.3113  0.4877  0.5812
60703SOL    HW1  101   6.108   3.144   4.044 -0.7569  0.6739 -0.1902
60703SOL    HW2  102   6.080   3.281   3.986  1.0517  1.2108  0.1107
60704SOL     OW  103   4.268   1.646   7.930  0.4742 -0.1190 -0.1235
60704SOL    HW1  104   4.306   1.571   7.884 -0.8003 -1.0223  0.2513
60704SOL    HW2  105   4.182   1.659   7.889 -0.8830 -1.2033  2.1793
60705SOL     OW  106   3.917  10.946   4.074 -0.2151  0.0862 -0.4974
60705SOL    HW1  107   3.842  10.901   4.034 -1.6580  0.9889  1.0561
60705SOL    HW2  108   3.956  10.879   4.131  0.6937 -0.6242 -1.8921
60706SOL     OW  109   8.874   3.530   9.512  0.9470  0.1991  0.0859
60706SOL    HW1  110   8.832   3.486   9.438 -1.5219  0.9563  0.9704
60706SOL    HW2  111   8.950   3.474   9.531 -0.4033 -2.0743 -0.6965
60707SOL     OW  112   6.254  11.370   5.384 -0.1630 -0.1577 -0.2016
60707SOL    HW1  113   6.268  11.303   5.450 -1.5709 -0.4499 -0.1813
60707SOL    HW2  114   6.299  11.337   5.306 -0.5780 -0.9753 -0.1001
60708SOL     OW  115   4.443   7.929   0.631 -0.1347 -0.0675 -0.1203
60708SOL    HW1  116   4.433   8.022   0.614  0.1643 -0.2083 -1.1412
60708SOL    HW2  117   4.429   7.887   0.546  1.0310 -0.8521  0.0510
60709SOL     OW  118   0.937  12.789  14.076  0.1874  0.1304  0.4589
60709SOL    HW1  119   0.867  12.771  14.139 -0.0241 -0.3519  0.0982
60709SOL    HW2  120   0.929  12.718  14.011  0.3055  0.7003 -0.1892
60710SOL     OW  121   7.363   8.120   9.496  0.3426  0.5340  0.0313
60710SOL    HW1  122   7.451   8.084   9.489  0.0014 -0.2215 -0.5818
60710SOL    HW2  123   7.349   8.133   9.590  0.7459 -0.2591  0.2050
60711SOL     OW  124   5.689   5.608  10.069  0.6745 -0.6178  0.4596
60711SOL    HW1  125   5.689   5.650   9.983  2.0674 -0.5769  0.4623
60711SOL    HW2  126   5.615   5.548  10.065 -0.5322  0.8172 -0.0331
60712SOL     OW  127   4.020  11.321   7.766 -0.1350 -0.3946 -0.8596
60712SOL    HW1  128   4.040  11.389   7.702 -0.2012 -0.8260 -1.3428
60712SOL    HW2  129   3.983  11.368   7.840  0.0510  0.1203 -1.0915
60713SOL     OW  130  10.469   8.753  10.587  0.4115  0.2374 -0.5141
60713SOL    HW1  131  10.401   8.729  10.650  1.0597  0.5576  0.3235
60713SOL    HW2  132  10.445   8.840  10.557 -0.1448 -0.0983 -1.0658
60714SOL     OW  133  12.400   9.352   2.038  0.4692 -0.4730 -0.4769
60714SOL    HW1  134  12.376   9.427   1.984  1.2525  0.4493  0.4407
60714SOL    HW2  135  12.495   9.357   2.046  0.4835 -1.3000 -0.0131
60715SOL     OW  136   5.885   6.345   3.812 -0.5458  0.0883 -0.2769
60715SOL    HW1  137   5.960   6.288   3.795 -0.5354 -0.3306  1.0773
60715SOL    HW2  138   5.864   6.383   3.727 -0.0002 -1.2552 -1.0373
60716SOL     OW  139   9.971  13.729   1.604 -0.4924 -0.0163  0.1036
60716SOL    HW1  140   9.893  13.698   1.559 -1.0618  1.1436  0.2535
60716SOL    HW2  141   9.951  13.819   1.629  0.6018  0.0571  0.8287
60717SOL     OW  142  13.879  12.844   4.055 -0.5137  0.3662 -0.3479
60717SOL    HW1  143  13.830  12.763   4.046 -1.0952  0.7761 -1.0076
60717SOL    HW2  144  13.898  12.851   4.148 -1.4997  0.0774 -0.1158
60718SOL     OW  145   2.203  12.277   8.057 -0.0034  0.5837  0.2363
60718SOL    HW1  146   2.196  12.308   7.967 -1.9493 -0.3551  0.0228
60718SOL    HW2  147   2.265  12.205   8.053  1.1024  1.5129 -0.0408
60719SOL     OW  148   8.974   7.857  11.966  0.3085 -0.3934 -0.4863
60719SOL    HW1  149   8.948   7.949  11.965  0.9801 -0.1740  0.4435
60719SOL    HW2  150   8.918   7.815  11.901 -1.2205  0.3435  0.3188
60720SOL     OW  151   3.186   3.372   7.594  0.1644  0.0998 -0.1602
60720SOL    HW1  152   3.190   3.318   7.674 -1.8769 -0.0856 -0.1487
60720SOL    HW2  153   3.249   3.442   7.610  0.0392 -0.1179  1.4769
60721SOL     OW  154   7.130  11.029   5.338 -0.2201 -1.3194 -0.1946
60721SOL    HW1  155   7.050  11.078   5.322 -1.2568 -2.8453  0.1450
60721SOL    HW2  156   7.120  10.948   5.288  1.2886 -1.3806 -0.4593
60722SOL     OW  157   1.202   2.783   6.686  0.3130 -0.2518  0.4521
60722SOL    HW1  158   1.156   2.728   6.624  1.0247  0.3423 -0.6315
60722SOL    HW2  159   1.148   2.781   6.765  0.1790 -2.2432  0.3461
60723SOL     OW  160   1.332  11.152  13.643  0.1738  0.3985 -0.4282
60723SOL    HW1  161   1.270  11.220  13.668  0.6413  0.5462  0.3688
60723SOL    HW2  162   1.362  11.177  13.555 -0.6984  0.4553 -0.7166
60724SOL     OW  163   2.301  11.108   5.869  0.4455  0.0426  0.8413
60724SOL    HW1  164   2.376  11.160   5.897  0.8657  0.5687 -1.1083
60724SOL    HW2  165   2.337  11.020   5.853  0.8448  0.4462 -0.6991
60725SOL     OW  166   4.757   2.280  12.344  0.4657  0.5559 -0.2558
60725SOL    HW1  167   4.782   2.303  12.434  1.3401  0.3838 -0.4431
60725SOL    HW2  168   4.691   2.345  12.320  2.6714  2.7678 -0.6732
60726SOL     OW  169   1.328   2.961  12.445  0.4729 -0.7493 -0.5780
60726SOL    HW1  170   1.349   2.967  12.351  1.5900  0.5459 -0.2838
60726SOL    HW2  171   1.396   3.013  12.488 -0.8273 -0.1494  0.8442
60727SOL     OW  172  11.155  11.767   4.404  0.1170 -0.4767 -0.1195
60727SOL    HW1  173  11.226  11.704   4.400 -0.8187 -1.6884  1.2758
60727SOL    HW2  174  11.115  11.754   4.490  0.7406  2.9985  0.8698
60728SOL     OW  175   6.697  10.722   1.988  0.8879 -0.2150 -0.0283
60728SOL    HW1  176   6.786  10.697   2.009  1.0325  0.6928  0.4889
60728SOL    HW2  177   6.705  10.808   1.946  0.3435 -0.6115 -0.9851
60729SOL     OW  178   0.079   4.187   3.940 -0.0290 -0.3059 -0.1363
60729SOL    HW1  179   0.119   4.231   4.016 -0.2611  0.9394 -0.7092
60729SOL    HW2  180  -0.015   4.203   3.950 -0.1950 -1.3470  0.0428
60730SOL     OW  181  11.088   3.365   4.167 -0.1348 -0.1350  0.6387
60730SOL    HW1  182  11.098   3.278   4.128 -2.8540 -0.0281 -0.5377
60730SOL    HW2  183  11.160   3.417   4.131  1.0182 -1.6327  0.6843
60731SOL     OW  184   8.978   5.810  13.966  0.9248 -0.3360  0.4644
60731SOL    HW1  185   9.064   5.849  13.981  1.4627 -1.4489  0.3716
60731SOL    HW2  186   8.988   5.718  13.991  0.6780 -1.2655 -2.4632
60732SOL     OW  187  11.026   1.568   9.171  0.2545 -0.2975  0.3217
60732SOL    HW1  188  11.099   1.520   9.210  0.8580 -1.1465 -1.7447
60732SOL    HW2  189  11.036   1.657   9.203  1.8501 -0.5272  0.5199
60733SOL     OW  190   0.242   6.207   6.999  0.2732 -0.6933  0.0817
60733SOL    HW1  191   0.230   6.302   6.998 -0.8599 -0.8220 -1.1309
60733SOL    HW2  192   0.178   6.174   6.935  2.5142 -2.0537 -1.5938
60734SOL     OW  193   6.311   6.384   1.321 -0.4883 -0.2286 -0.4047
60734SOL    HW1  194   6.219   6.385   1.348 -0.8892 -1.3480 -1.5979
60734SOL    HW2  195   6.336   6.292   1.324  0.2929 -0.0513 -1.0138
60735SOL     OW  196  11.829   9.906   2.886 -0.0772  0.0151  0.2199
60735SOL    HW1  197  11.840   9.876   2.796  0.1208  1.2614 -0.1966
60735SOL    HW2  198  11.745   9.952   2.886 -0.1327 -0.0776  0.7039
60736SOL     OW  199  12.022  11.402   3.352 -0.6648 -0.0420  0.2319
60736SOL    HW1  200  12.115  11.393   3.332 -0.9290 -1.6850 -0.4256
60736SOL    HW2  201  12.016  11.483   3.403  1.0457  0.3477 -0.1221
60737SOL     OW  202   0.817   4.521   9.123  0.1054 -0.0345 -0.2185
60737SOL    HW1  203   0.732   4.520   9.078 -0.1152  0.3156  0.1824
60737SOL    HW2  204   0.840   4.429   9.132  0.7597 -0.0950 -2.1601
60738SOL     OW  205  13.582   2.014   5.752 -0.9314 -0.3349 -0.4776
60738SOL    HW1  206  13.601   2.060   5.835  0.3576 -0.3518 -0.7472
60738SOL    HW2  207  13.621   1.928   5.763 -0.9295 -0.4068 -1.0285
60739SOL     OW  208   0.573   6.633   9.126 -0.6045 -0.3401 -0.7120
60739SOL    HW1  209   0.507   6.575   9.164 -0.1704 -1.0201 -0.9892
60739SOL    HW2  210   0.633   6.652   9.197  0.1482 -1.5258 -1.0155
60740SOL     OW  211  12.183   2.537   3.169  0.0580  0.0138 -0.0960
60740SOL    HW1  212  12.270   2.561   3.136  0.8040  0.7369  2.2250
60740SOL    HW2  213  12.180   2.442   3.160  0.9975 -0.0053 -0.4082
60741SOL     OW  214   1.659   3.059   5.368 -0.7682 -0.6385  0.1276
60741SOL    HW1  215   1.599   2.995   5.330 -0.6931 -0.2410 -0.6827
60741SOL    HW2  216   1.626   3.074   5.456 -2.8685  0.8207 -0.8466
60742SOL     OW  217  12.115   3.953  14.145  0.2231  0.2148 -0.7321
60742SOL    HW1  218  12.156   3.909  14.070  0.6937  0.8028 -0.8273
60742SOL    HW2  219  12.026   3.919  14.147  0.0372  0.5731 -1.8874
60743SOL     OW  220   6.597   1.987  13.397  0.5908  0.3214 -0.1845
60743SOL    HW1  221   6.581   1.898  13.429  2.3592  0.2969  0.6996
60743SOL    HW2  222   6.637   1.974  13.311  0.2054  0.3003 -0.3659
60744SOL     OW  223   4.102   9.816   6.884  0.3178  0.3269  0.1402
60744SOL    HW1  224   4.102   9.755   6.810  0.6239  0.2939  0.1663
60744SOL    HW2  225   4.010   9.841   6.894  0.4733  1.7179 -1.4196
60745SOL     OW  226   3.093   5.404  12.945 -0.1015  0.4220 -0.2699
60745SOL    HW1  227   3.035   5.408  13.022 -1.2412 -0.0973 -1.0850
60745SOL    HW2  228   3.051   5.461  12.881  0.9293  0.9726 -0.4795
60746SOL     OW  229   0.830   6.860   5.704 -0.1261 -0.3612 -0.6892
60746SOL    HW1  230   0.813   6.809   5.783 -0.1394 -1.4490 -1.3685
60746SOL    HW2  231   0.776   6.939   5.714  0.5589 -0.0460  0.7819
60747SOL     OW  232  13.976   0.505   6.591  0.0827  0.1924  0.3427
60747SOL    HW1  233  13.958   0.411   6.592 -0.1429  0.1954  2.6269
60747SOL    HW2  234  13.921   0.539   6.520  0.6419 -1.4497 -0.9373
60748SOL     OW  235   9.182   0.516  10.100  0.1442  0.5171 -0.0408
60748SOL    HW1  236   9.098   0.555  10.123 -1.9711 -2.3665 -2.1112
60748SOL    HW2  237   9.196   0.540  10.008  1.8221  1.2309  0.3564
60749SOL     OW  238   0.477  12.216   3.785  0.2465  0.1205 -0.1122
60749SOL    HW1  239   0.557  12.243   3.832  0.3498 -0.9329  0.3368
60749SOL    HW2  240   0.457  12.291   3.729 -0.1183  1.6363  1.9217
60750SOL     OW  241   0.002  11.278   5.128 -0.3357  0.2122  0.1391
60750SOL    HW1  242   0.075  11.336   5.148  1.0536 -1.1123 -0.8126
60750SOL    HW2  243   0.016  11.253   5.036 -1.5334 -0.6988  0.1752
60751SOL     OW  244   3.002  10.935  10.506  0.0887  0.0085  0.6683
60751SOL    HW1  245   3.024  10.862  10.448 -0.9228 -0.4079  0.7933
60751SOL    HW2  246   3.069  10.931  10.575  1.7196  0.9263 -0.7752
60752SOL     OW  247   2.937   4.718  12.517  0.1159 -0.3156 -0.1188
60752SOL    HW1  248   2.966   4.632  12.548  1.0702  0.5847  1.6916
60752SOL    HW2  249   2.982   4.729  12.433  1.1599 -0.9872  0.3227
60753SOL     OW  250   7.479   2.838   5.861 -0.4459  0.3682  0.0570
60753SOL    HW1  251   7.416   2.876   5.799 -3.9743 -0.6018  2.7267
60753SOL    HW2  252   7.469   2.890   5.940  1.3087 -0.5982  0.9638
60754SOL     OW  253   1.003  14.155   1.325  0.1340  0.1916 -0.0197
60754SOL    HW1  254   1.072  14.188   1.267 -0.2578  1.6620  0.3140
60754SOL    HW2  255   1.020  14.197   1.409 -0.0252 -0.9692  0.6073
60755SOL     OW  256  12.029   1.449   4.811 -0.2562  0.4712 -0.5250
60755SOL    HW1  257  12.065   1.475   4.895 -2.0852 -1.7471  1.0488
60755SOL    HW2  258  12.073   1.367   4.790 -3.0615 -1.5107  0.7244
60756SOL     OW  259  12.172   8.602   3.266 -0.2341 -0.4594  0.0436
60756SOL    HW1  260  12.154   8.661   3.192 -0.2132 -0.5588 -0.0414
60756SOL    HW2  261  12.252   8.637   3.305 -0.3944 -0.2480  0.1835
60757SOL     OW  262   4.011  10.683  12.395  0.2439 -0.6425 -0.1606
60757SOL    HW1  263   3.918  10.709  12.395  0.5769  0.6731 -0.8953
60757SOL    HW2  264   4.028  10.656  12.485 -0.6019  0.1113  0.2511
60758SOL     OW  265   8.974   8.020  13.280  0.3913  0.7132  0.2020
60758SOL    HW1  266   9.037   8.028  13.352  1.3807  0.5793 -0.6309
60758SOL    HW2  267   8.985   7.931  13.248  1.0419  1.2235 -1.0683
60759SOL     OW  268  12.717  12.810   1.672  0.3178  0.7681  0.3938
60759SOL    HW1  269  12.773  12.887   1.658  0.5850  0.5329  0.1534
60759SOL    HW2  270  12.628  12.842   1.657  0.5889  0.3903 -2.5793
60760SOL     OW  271   1.906   7.675   8.248  0.6740  0.2716  0.2296
60760SOL    HW1  272   1.936   7.733   8.318  0.6828  0.2752  0.2230
60760SOL    HW2  273   1.981   7.666   8.190  0.5077  0.6900 -0.0610
60761SOL     OW  274   0.116  13.679  11.909 -0.8267 -0.9868  0.1847
60761SOL    HW1  275   0.074  13.758  11.877  0.1038 -0.0351  1.2435
60761SOL    HW2  276   0.106  13.616  11.837 -0.1003  0.6183 -1.3878
60762SOL     OW  277   5.628  11.334   2.036  0.4078  0.3024 -0.7698
60762SOL    HW1  278   5.591  11.417   2.065  0.1341  0.2863 -1.0633
60762SOL    HW2  279   5.655  11.350   1.945  2.1216  0.6305 -0.2262
60763SOL     OW  280   6.030  13.097   1.651  0.7140 -0.0995 -0.6969
60763SOL    HW1  281   5.948  13.103   1.702 -0.5791 -4.5023 -1.7672
60763SOL    HW2  282   6.099  13.110   1.716 -0.8754 -0.0977  1.1046
60764SOL     OW  283   4.947  13.016   0.077  0.5623  0.4795  0.2977
60764SOL    HW1  284   4.913  12.927   0.069  0.6390  0.5536 -1.1203
60764SOL    HW2  285   5.034  13.006   0.116  0.0191  0.0747  1.4737
60765SOL     OW  286   4.985   2.427  11.528 -0.0720 -0.2367 -0.0718
60765SOL    HW1  287   5.023   2.434  11.616  0.1331 -1.2706 -0.0682
60765SOL    HW2  288   5.008   2.510  11.485  0.0132  0.1835  0.7693
60766SOL     OW  289  14.083   1.865   9.640  0.3149 -0.1618 -0.3638
60766SOL    HW1  290  14.029   1.794   9.604 -0.2727  0.1143 -0.0342
60766SOL    HW2  291  14.036   1.894   9.718  0.0803  1.1712 -0.9639
60767SOL     OW  292  11.901   4.551   7.520 -0.0836  0.2066  0.0376
60767SOL    HW1  293  11.967   4.497   7.563 -1.0335 -0.1145  1.1306
60767SOL    HW2  294  11.881   4.620   7.585 -0.4106  0.6307 -0.5075
60768SOL     OW  295  10.317  10.784  10.922 -0.4161 -0.2345 -0.3028
60768SOL    HW1  296  10.396  10.838  10.919  0.2142 -1.1139  0.1360
60768SOL    HW2  297  10.247  10.845  10.945  0.0627  0.6184 -1.0260
60769SOL     OW  298   8.135   2.816   1.336  0.1468 -0.1590 -0.4564
60769SOL    HW1  299   8.219   2.853   1.306 -0.1973 -0.9184 -2.5425
60769SOL    HW2  300   8.159   2.732   1.374  0.3868 -0.0895 -0.4490
60770SOL     OW  301   1.020   2.114   4.027  0.1574  0.2411  0.5321
60770SOL    HW1  302   0.985   2.049   4.087  1.3204  1.6115  2.8305
60770SOL    HW2  303   0.945   2.170   4.005  0.0012  0.6547  2.0266
60771SOL     OW  304   4.968   3.126  13.520  0.0900 -0.6288 -0.2234
60771SOL    HW1  305   4.987   3.068  13.447 -1.1135 -1.3574  0.0084
60771SOL    HW2  306   4.990   3.075  13.598  1.3878  0.1497 -0.0431
60772SOL     OW  307   5.456   1.727   9.745  0.1736 -0.2944 -0.1344
60772SOL    HW1  308   5.401   1.674   9.804 -0.8057 -0.2745 -0.9844
60772SOL    HW2  309   5.407   1.808   9.734  1.2110  0.4203  0.4103
60773SOL     OW  310   6.230   4.712   7.396  0.5344 -0.4059 -0.2869
60773SOL    HW1  311   6.219   4.683   7.487 -1.8283  1.5862  0.2015
60773SOL    HW2  312   6.164   4.663   7.347  0.3447  0.0571 -0.5051
60774SOL     OW  313  12.330   1.889   4.013  0.0931  0.0296 -0.1540
60774SOL    HW1  314  12.289   1.813   4.055  0.0277  1.5419  2.7872
60774SOL    HW2  315  12.260   1.955   4.010  1.0312  1.0846  0.5638
60775SOL     OW  316   6.311  10.126   6.097 -0.1415  0.0321 -0.0936
60775SOL    HW1  317   6.225  10.153   6.131  0.0620  1.0819 -0.3681
60775SOL    HW2  318   6.318  10.034   6.121 -1.3101 -0.0517  0.0110
60776SOL     OW  319  14.106   1.953  12.644  0.0196  0.0240 -0.2168
60776SOL    HW1  320  14.012   1.939  12.646  0.2661 -1.8769  0.6677
60776SOL    HW2  321  14.143   1.875  12.687  1.9479  1.0968  0.2116
60777SOL     OW  322  12.299   5.626   9.821 -0.3636 -0.1544 -0.3148
60777SOL    HW1  323  12.356   5.555   9.792  3.5444  2.5213 -0.0161
60777SOL    HW2  324  12.322   5.640   9.913 -0.0672  2.1720 -0.6744
60778SOL     OW  325  10.963   4.489  10.971  0.2627  0.2183  0.1663
60778SOL    HW1  326  10.944   4.486  11.065  0.6855 -0.0455  0.2451
60778SOL    HW2  327  11.039   4.546  10.963  0.7879 -0.4725  0.0871
60779SOL     OW  328  13.784   9.815  13.104 -0.3490 -0.3111  0.2266
60779SOL    HW1  329  13.712   9.878  13.114 -0.1191 -0.3207  2.5881
60779SOL    HW2  330  13.770   9.752  13.174  1.2680 -1.0447 -0.0631
60780SOL     OW  331  11.107  12.203   9.298 -0.0834 -0.2500  0.3049
60780SOL    HW1  332  11.073  12.287   9.331  0.7407 -0.5418  1.9554
60780SOL    HW2  333  11.029  12.157   9.267 -0.6476  0.8054  0.0973
60781SOL     OW  334   7.331   7.125   2.855 -0.1737 -0.5471  0.0167
60781SOL    HW1  335   7.304   7.211   2.821  1.1932  0.2803  0.8894
60781SOL    HW2  336   7.339   7.069   2.778  1.3423  0.8377 -0.9046
60782SOL     OW  337   2.253   9.202  12.495  0.6007  0.2313  0.0480
60782SOL    HW1  338   2.175   9.148  12.483  0.0141  0.9055  0.8040
60782SOL    HW2  339   2.244   9.271  12.430  2.0274 -1.2775 -1.8767
60783SOL     OW  340   1.692   5.880  12.877 -0.1608  0.1262 -0.0122
60783SOL    HW1  341   1.605   5.916  12.895 -0.9400 -1.3092 -0.6744
60783SOL    HW2  342   1.699   5.880  12.782  0.8777  0.8972  0.0569
60784SOL     OW  343   9.168  13.828   6.470  0.0721  0.2711  0.7350
60784SOL    HW1  344   9.251  13.790   6.499 -0.0175 -1.1900 -0.7408
60784SOL    HW2  345   9.110  13.752   6.459 -1.3404  1.2189  1.2940
60785SOL     OW  346   6.761   2.091   0.807 -0.0594  0.1824  0.1341
60785SOL    HW1  347   6.808   2.097   0.724 -0.4096 -1.4965 -0.2268
60785SOL    HW2  348   6.670   2.072   0.782 -0.4018  0.8008  0.8781
60786SOL     OW  349   2.588   4.440   6.083 -0.8582  0.2778  0.4564
60786SOL    HW1  350   2.594   4.535   6.074  1.3378  0.1180 -0.3105
60786SOL    HW2  351   2.567   4.409   5.995 -0.8100  0.0197  0.5354
60787SOL     OW  352   5.037  13.486   7.113  1.1849  0.5045  0.9005
60787SOL    HW1  353   5.013  13.393   7.107  1.2358  0.5709 -0.9591
60787SOL    HW2  354   5.131  13.485   7.132  1.0884  0.1923  1.3979
60788SOL     OW  355   5.952   2.646   4.553  0.3106 -0.0537 -0.0341
60788SOL    HW1  356   5.883   2.662   4.617 -1.0439 -0.3132 -1.3678
60788SOL    HW2  357   5.986   2.560   4.575  0.7716  0.4016  1.1095
60789SOL     OW  358   8.622  14.004   8.088 -0.2348  0.1262  0.0743
60789SOL    HW1  359   8.579  13.938   8.033 -0.4594 -0.1459  0.5596
60789SOL    HW2  360   8.582  14.087   8.063  0.4981  0.1698 -0.9831
60790SOL     OW  361   9.636   4.273   2.826  0.1558  0.2890  0.5050
60790SOL    HW1  362   9.551   4.304   2.858  0.2888  0.9411  0.2414
60790SOL    HW2  363   9.620   4.248   2.735  0.9362  3.6803 -0.7186
60791SOL     OW  364   3.133  11.647   0.220  0.5126  0.3673 -0.2772
60791SOL    HW1  365   3.094  11.601   0.294  1.4755  0.3763  0.2441
60791SOL    HW2  366   3.158  11.578   0.159  1.6930  0.2000  0.3760
60792SOL     OW  367   6.370   2.957   8.269 -0.0713 -0.2547 -0.2987
60792SOL    HW1  368   6.326   2.995   8.193  1.2053  0.7827 -0.5584
60792SOL    HW2  369   6.416   2.880   8.235 -0.7608 -0.6953 -0.2479
60793SOL     OW  370   9.805  11.430   0.788 -0.7127 -0.1256 -0.6392
60793SOL    HW1  371   9.805  11.405   0.881 -2.4276  0.2539 -0.5071
60793SOL    HW2  372   9.886  11.480   0.777 -1.5599  1.8194  1.2447
60794SOL     OW  373   7.481   6.404  13.386  0.0148 -0.0743  0.8968
60794SOL    HW1  374   7.456   6.339  13.452 -0.0240 -0.5529  0.4259
60794SOL    HW2  375   7.560   6.368  13.346 -0.7905 -0.5720 -0.3432
60795SOL     OW  376  10.388   2.019  11.414 -0.0930 -0.2015 -0.0850
60795SOL    HW1  377  10.471   2.000  11.370  0.7976  0.1866  1.3627
60795SOL    HW2  378  10.382   2.115  11.412 -0.7676 -0.2459 -0.6069
60796SOL     OW  379   2.667   6.524  11.654 -0.1566 -0.0535  0.1540
60796SOL    HW1  380   2.635   6.538  11.565 -1.2077  0.5133  0.6012
60796SOL    HW2  381   2.695   6.433  11.656  1.7517  0.4419 -1.3052
60797SOL     OW  382   7.165   4.334   4.188  0.2074 -0.2787  0.1787
60797SOL    HW1  383   7.110   4.346   4.265  0.3429  0.5718  0.1527
60797SOL    HW2  384   7.203   4.421   4.172 -0.7146 -0.1467 -1.5344
60798SOL     OW  385   2.371   7.210   2.734 -0.5970 -0.3213  0.4410
60798SOL    HW1  386   2.346   7.273   2.666  0.3016 -0.3736  0.0506
60798SOL    HW2  387   2.437   7.154   2.692 -0.2960 -0.5807  1.2469
60799SOL     OW  388   0.029   3.874   1.797  0.5353 -0.3211  0.4621
60799SOL    HW1  389  -0.020   3.919   1.866  0.3476  0.9636 -0.4588
60799SOL    HW2  390  -0.037   3.843   1.735  0.8027  0.8601 -0.4611
60800SOL     OW  391  11.309   1.318   0.482  0.1518  0.9506  0.0823
60800SOL    HW1  392  11.306   1.329   0.577  0.8989 -0.4066  0.2922
60800SOL    HW2  393  11.367   1.389   0.452  2.2292 -0.2573  0.9933
60801SOL     OW  394   4.415   4.670   9.119 -0.0025 -0.1375 -0.0704
60801SOL    HW1  395   4.353   4.710   9.058  1.2547 -0.2449 -1.4528
60801SOL    HW2  396   4.360   4.619   9.178 -1.2696  0.0612 -1.0365
60802SOL     OW  397   2.036   8.836  13.096  0.7275  0.1344 -0.1797
60802SOL    HW1  398   1.978   8.858  13.169 -0.5988 -0.6199 -0.9722
60802SOL    HW2  399   1.977   8.824  13.021  2.1457  2.3030 -1.7643
60803SOL     OW  400   8.809   6.636   6.537  0.1557  0.4962 -0.3016
60803SOL    HW1  401   8.735   6.576   6.543  1.0547 -0.7278 -1.0929
60803SOL    HW2  402   8.796   6.682   6.454  0.4380  0.0795 -0.5745
60804SOL     OW  403  11.640   6.313   6.349 -0.6832 -0.3454 -0.5343
60804SOL    HW1  404  11.598   6.310   6.263  1.7976 -0.9583 -1.8309
60804SOL    HW2  405  11.586   6.257   6.404 -3.4040  1.5497 -1.1167
60805SOL     OW  406   7.029   0.148   8.157  0.1869  0.2844 -0.0840
60805SOL    HW1  407   7.004   0.056   8.162  0.7298  0.1848  1.0372
60805SOL    HW2  408   6.980   0.190   8.227  0.4338  0.7301 -0.1734
60806SOL     OW  409   6.493  11.920   1.423 -0.3036  0.0123 -0.0470
60806SOL    HW1  410   6.537  11.998   1.389  0.4360 -0.0321  0.7675
60806SOL    HW2  411   6.563  11.867   1.461 -0.7913 -1.0654 -0.5874
60807SOL     OW  412   1.024   4.449   0.457  0.0629  0.2569  0.3123
60807SOL    HW1  413   0.985   4.362   0.449 -0.6125  0.5722  0.0783
60807SOL    HW2  414   1.086   4.441   0.530 -1.9803  0.2976  2.1354
60808SOL     OW  415   6.547   3.999   1.513  0.2591  0.1920 -0.2924
60808SOL    HW1  416   6.487   4.073   1.504 -0.6541 -0.4837  0.1575
60808SOL    HW2  417   6.497   3.923   1.485  1.9484  0.0019 -3.1392
60809SOL     OW  418  11.595   1.672   3.143  0.1433 -0.5323  0.0421
60809SOL    HW1  419  11.532   1.601   3.129 -1.2972  0.6399  0.3060
60809SOL    HW2  420  11.653   1.640   3.212 -1.5865 -0.7863  1.4518
60810SOL     OW  421   7.560   1.646  12.345 -0.3244  0.0994 -0.5818
60810SOL    HW1  422   7.647   1.665  12.311  0.1526 -1.1133 -0.0824
60810SOL    HW2  423   7.575   1.587  12.419 -1.5787 -0.3569 -0.6670
60811SOL     OW  424   7.052   1.618   4.048  0.0599 -0.2361  0.1862
60811SOL    HW1  425   6.969   1.639   4.006 -0.5414 -1.0390  0.9288
60811SOL    HW2  426   7.113   1.603   3.976 -0.6798 -0.5654 -0.3750
60812SOL     OW  427   1.252  10.791   7.177  0.3242  0.1541 -0.1936
60812SOL    HW1  428   1.175  10.737   7.158 -1.1363  2.0256  0.1402
60812SOL    HW2  429   1.249  10.805   7.271  1.1543  0.1707 -0.1620
60813SOL     OW  430   0.526  10.273   4.468  0.1700 -0.2891 -0.6712
60813SOL    HW1  431   0.468  10.200   4.488  1.8014 -1.4817 -0.0675
60813SOL    HW2  432   0.613  10.243   4.494  0.9403  1.7973 -0.6060
60814SOL     OW  433  10.471   1.522   2.787 -0.0543 -0.0820 -0.1327
60814SOL    HW1  434  10.465   1.599   2.843  0.2383  0.4583 -0.8336
60814SOL    HW2  435  10.491   1.450   2.847 -1.8624  0.0861  0.7501
60815SOL     OW  436   7.470   2.996  14.117 -0.0170 -0.4026  0.3988
60815SOL    HW1  437   7.438   3.073  14.165  0.3824 -0.2312  0.3881
60815SOL    HW2  438   7.558   2.981  14.152  0.0677 -0.6010  0.0999
60816SOL     OW  439  13.028   7.630  11.198 -0.3135  0.3392 -0.3760
60816SOL    HW1  440  13.050   7.666  11.284 -1.5486  0.8103 -0.2388
60816SOL    HW2  441  12.965   7.560  11.216  0.5250 -0.5623 -0.8037
60817SOL     OW  442   3.303  10.347  12.507  0.0812 -0.2910  0.4918
60817SOL    HW1  443   3.303  10.284  12.579  0.7346  0.9053  1.5845
60817SOL    HW2  444   3.322  10.431  12.549  1.0277  0.3668 -1.1411
60818SOL     OW  445   0.728   4.462   5.687  0.0738  0.0015 -0.5677
60818SOL    HW1  446   0.736   4.557   5.682 -0.5178  0.1434  0.8260
60818SOL    HW2  447   0.634   4.446   5.678  0.0007 -0.3331  0.6818
60819SOL     OW  448   8.074   0.720   4.543  0.4720  0.0819 -0.1535
60819SOL    HW1  449   8.021   0.690   4.469 -0.6366  0.5011  0.4470
60819SOL    HW2  450   8.121   0.796   4.510 -2.6029  2.4237  0.4460
60820SOL     OW  451  10.419   1.502   0.789 -0.4183  0.4970  0.2485
60820SOL    HW1  452  10.510   1.495   0.760 -0.9050 -0.2703 -1.1959
60820SOL    HW2  453  10.370   1.522   0.709 -1.4012  2.0638  1.1912
60821SOL     OW  454   0.391   6.667   3.369 -0.5793  0.1027 -0.4098
60821SOL    HW1  455   0.300   6.664   3.340 -1.5195 -1.0020  2.3159
60821SOL    HW2  456   0.399   6.751   3.416 -0.6677 -0.4573  0.6354
60822SOL     OW  457   5.874   7.266   2.530 -0.7133  0.5994 -0.3073
60822SOL    HW1  458   5.935   7.338   2.516 -0.6555  0.3584 -1.4584
60822SOL    HW2  459   5.923   7.202   2.582  0.3776  0.0075 -1.9855
60823SOL     OW  460   3.358  11.528  13.250  0.2051  0.7034  0.0120
60823SOL    HW1  461   3.294  11.593  13.220 -1.0117 -0.5947 -0.2910
60823SOL    HW2  462   3.424  11.580  13.297 -0.3511  2.2276 -0.8215
60824SOL     OW  463   8.649   1.601  13.813  0.5380  0.2226 -0.0901
60824SOL    HW1  464   8.570   1.642  13.778  0.1179 -1.2519 -0.9076
60824SOL    HW2  465   8.619   1.521  13.856  1.6855 -1.0489 -1.5470
60825SOL     OW  466   4.520   8.957   3.427  0.1331 -1.0253  0.4382
60825SOL    HW1  467   4.451   8.901   3.461 -0.3951 -1.6898 -1.5737
60825SOL    HW2  468   4.474   9.035   3.395  0.2124 -1.5925 -1.1753
60826SOL     OW  469   3.639   1.600   2.938  0.2296 -0.4514  0.1361
60826SOL    HW1  470   3.670   1.516   2.972  0.5764 -0.8925 -1.2192
60826SOL    HW2  471   3.598   1.642   3.013  2.0405 -0.8496  1.4369
60827SOL     OW  472   8.340   3.634  11.595 -0.2013  0.3918  0.4454
60827SOL    HW1  473   8.419   3.653  11.544  1.7014  0.4723  3.1895
60827SOL    HW2  474   8.329   3.710  11.652 -1.2653 -0.3515  1.2780
60828SOL     OW  475   9.718   1.951   7.218 -0.8557  0.4175 -0.2384
60828SOL    HW1  476   9.643   1.963   7.160 -1.9523  0.3547  1.1253
60828SOL    HW2  477   9.738   2.039   7.250  0.1718  0.5521 -1.1774
60829SOL     OW  478   8.321  13.668   2.317  0.1728  0.7343 -0.5311
60829SOL    HW1  479   8.239  13.713   2.296  0.4172  0.3417 -2.5510
60829SOL    HW2  480   8.295  13.578   2.335 -0.1347  1.2502  1.9103
60830SOL     OW  481  10.218  12.005   4.819  0.3746  0.3703 -0.0247
60830SOL    HW1  482  10.228  11.928   4.876  2.6947  0.2396 -0.5260
60830SOL    HW2  483  10.200  12.077   4.880 -1.4958 -0.4714  0.4770
60831SOL     OW  484  13.512  11.152  12.151 -0.6044 -0.1468 -0.5121
60831SOL    HW1  485  13.544  11.119  12.067  0.7548 -1.9171  0.6297
60831SOL    HW2  486  13.523  11.079  12.212 -0.4943  1.4135  1.4640
60832SOL     OW  487   2.122   5.191   1.306 -0.5123  0.2992 -0.1790
60832SOL    HW1  488   2.038   5.210   1.263 -1.7493 -2.1502  0.9528
60832SOL    HW2  489   2.098   5.137   1.382  2.1124 -0.5169  0.1573
60833SOL     OW  490   3.836  11.031  12.058 -0.1905  0.1930  0.3803
60833SOL    HW1  491   3.794  11.036  12.144 -0.0312  0.3573  0.4501
60833SOL    HW2  492   3.930  11.026  12.078 -0.2421 -1.7482  0.2680
60834SOL     OW  493   6.814  10.334  10.113 -0.2302  0.3117  0.4716
60834SOL    HW1  494   6.739  10.303  10.063 -1.3315  0.2560  2.0867
60834SOL    HW2  495   6.875  10.261  10.113 -0.4849  0.0919 -0.2400
60835SOL     OW  496   0.287   1.768  10.896 -0.2003  0.7757 -0.3004
60835SOL    HW1  497   0.373   1.762  10.938 -0.5015  2.2744  0.6135
60835SOL    HW2  498   0.304   1.758  10.803  0.5818 -1.9405  0.0483
60836SOL     OW  499   9.866   8.848   5.867  0.0980  0.0151 -0.3140
60836SOL    HW1  500   9.879   8.757   5.894  0.0408 -0.0990 -0.6661
60836SOL    HW2  501   9.910   8.854   5.782  1.8309  0.8175  0.5697
60837SOL     OW  502  11.726   0.840  10.452 -0.0227  0.3278 -0.2285
60837SOL    HW1  503  11.787   0.844  10.526 -0.3225 -1.7206  0.1865
60837SOL    HW2  504  11.772   0.792  10.384 -1.5059 -2.4835  0.5758
60838SOL     OW  505   3.917   4.115   3.862  0.0123 -0.7164  0.2816
60838SOL    HW1  506   3.934   4.066   3.943  0.0594  1.3939  1.6059
60838SOL    HW2  507   3.823   4.106   3.848 -0.1909 -0.1723  1.2226
60839SOL     OW  508   5.263   1.581   9.883 -0.1197 -0.1650 -0.2150
60839SOL    HW1  509   5.261   1.487   9.905  1.4132  0.0187  0.8973
60839SOL    HW2  510   5.174   1.601   9.855 -1.5545 -1.1227  3.1507
60840SOL     OW  511   7.777   4.495   5.295 -0.3672  0.2732  0.1021
60840SOL    HW1  512   7.727   4.429   5.343  0.2098 -0.5033 -0.3210
60840SOL    HW2  513   7.868   4.481   5.324  0.1630 -0.8990 -1.8999
60841SOL     OW  514  11.734  11.085  12.857 -0.6005  0.3127  0.3366
60841SOL    HW1  515  11.718  11.175  12.886  0.8351  0.7494 -0.1595
60841SOL    HW2  516  11.822  11.087  12.819 -1.5311 -0.6955 -2.1158
60842SOL     OW  517   1.263   4.514  12.658 -0.3445  0.6419 -0.3078
60842SOL    HW1  518   1.167   4.523  12.661 -0.3365  2.0286 -2.1066
60842SOL    HW2  519   1.279   4.468  12.576  0.5583  1.0933 -0.3903
60843SOL     OW  520   3.959  11.799  14.043 -0.0922 -0.7549  0.2088
60843SOL    HW1  521   3.863  11.804  14.050 -0.1777  2.6151 -1.3891
60843SOL    HW2  522   3.975  11.767  13.954  0.1794  0.3200 -0.1479
60844SOL     OW  523  10.338   9.671  12.617  0.2763  0.3594  0.1067
60844SOL    HW1  524  10.401   9.678  12.544  2.5830 -0.1708  1.9224
60844SOL    HW2  525  10.363   9.590  12.662 -2.6694 -0.6320  0.1440
60845SOL     OW  526   4.729   0.219  11.265  0.3495 -0.1036 -0.0007
60845SOL    HW1  527   4.646   0.221  11.217 -0.6456 -1.4123  1.5785
60845SOL    HW2  528   4.795   0.211  11.196 -0.9268 -0.6220 -1.2260
60846SOL     OW  529   0.468  10.116  13.185 -0.5656 -0.4431  0.1582
60846SOL    HW1  530   0.409  10.125  13.260  2.3700  2.0757  2.4702
60846SOL    HW2  531   0.538  10.060  13.216  0.3745  0.0616 -0.9572
60847SOL     OW  532   0.026   0.595   6.733  0.0753  0.3137  0.2374
60847SOL    HW1  533  -0.044   0.554   6.682 -0.3449  1.0049  0.2442
60847SOL    HW2  534   0.009   0.689   6.725  0.0352  0.4410  1.5876
60848SOL     OW  535  10.181   5.275   0.923  0.5583  0.1157 -0.2669
60848SOL    HW1  536  10.242   5.347   0.938  2.0803 -1.1354 -0.2235
60848SOL    HW2  537  10.168   5.275   0.828  1.2252 -0.0660 -0.3641
60849SOL     OW  538   9.517  12.546   7.794 -0.3872 -0.0048  0.5956
60849SOL    HW1  539   9.550  12.456   7.790  1.4509  0.5889  1.5462
60849SOL    HW2  540   9.541  12.584   7.709  0.7370  0.1784  0.9758
60850SOL     OW  541   9.006   0.763  12.872 -0.5657 -0.2967  0.5763
60850SOL    HW1  542   9.065   0.722  12.807 -1.7804 -0.0214 -0.7518
60850SOL    HW2  543   9.055   0.838  12.904 -0.1145 -0.1404 -0.4152
60851SOL     OW  544  12.499   5.634   2.202 -0.1148 -0.0772 -0.4032
60851SOL    HW1  545  12.547   5.706   2.162  1.2198 -0.3996  0.5516
60851SOL    HW2  546  12.535   5.556   2.160  1.3715 -0.4298  1.3968
60852SOL     OW  547   1.661   8.921   4.150  0.5455  0.4249  0.1056
60852SOL    HW1  548   1.715   8.933   4.228 -0.5303  0.8144  0.8122
60852SOL    HW2  549   1.645   9.010   4.118 -0.9607  0.4267  0.8111
60853SOL     OW  550   6.728  12.483   7.550 -0.0197  0.4887  0.0760
60853SOL    HW1  551   6.635  12.467   7.532 -0.2325  1.2792  0.4219
60853SOL    HW2  552   6.752  12.419   7.617 -0.0360 -0.4107 -0.7680
60854SOL     OW  553  12.374   3.497  12.502 -0.5146 -0.7656 -0.4454
60854SOL    HW1  554  12.393   3.549  12.424 -0.2047  0.1598  0.2220
60854SOL    HW2  555  12.289   3.458  12.485  0.4140 -2.2176 -2.0788
60855SOL     OW  556   5.764   8.533   9.856  0.8918  0.2578 -0.6469
60855SOL    HW1  557   5.669   8.530   9.847  1.0453 -1.5388 -2.2701
60855SOL    HW2  558   5.796   8.545   9.767  2.1932  2.1223  0.0247
60856SOL     OW  559   2.825   7.860   0.410 -0.9639  0.1000 -0.2248
60856SOL    HW1  560   2.806   7.788   0.470  0.4301 -1.0338 -1.0810
60856SOL    HW2  561   2.869   7.926   0.464  1.7207 -1.5598 -0.2130
60857SOL     OW  562   3.054   5.382   6.248 -0.2710  0.3345 -1.2607
60857SOL    HW1  563   3.098   5.458   6.286 -0.0039  0.5487 -1.9676
60857SOL    HW2  564   2.965   5.386   6.282  0.2426 -0.1241  0.2244
60858SOL     OW  565   2.904   5.161  13.922  0.7772 -0.0165 -0.3818
60858SOL    HW1  566   2.811   5.149  13.902  0.7382  1.0796 -0.9671
60858SOL    HW2  567   2.946   5.163  13.836  1.5292 -1.7105 -0.0920
60859SOL     OW  568   3.160   9.040  13.791  0.2896 -1.0250  0.2372
60859SOL    HW1  569   3.200   9.096  13.725  1.5496  0.3035  2.0441
60859SOL    HW2  570   3.066   9.056  13.783  0.2501 -2.0806 -2.2106
60860SOL     OW  571   2.859  12.602   8.870 -0.6355 -0.1759 -0.2256
60860SOL    HW1  572   2.849  12.517   8.827  1.2716  0.3852 -1.8785
60860SOL    HW2  573   2.789  12.656   8.832  0.1215 -0.1138 -1.5959
60861SOL     OW  574   7.616   8.375   3.883  0.0413 -0.8087  0.2481
60861SOL    HW1  575   7.634   8.284   3.908  0.5144 -1.1861 -1.3445
60861SOL    HW2  576   7.567   8.410   3.957  1.7918 -1.6599  1.9118
60862SOL     OW  577   5.234   5.645   1.524 -0.4028  0.0569 -0.1618
60862SOL    HW1  578   5.241   5.608   1.436  1.4545  3.3758 -1.5633
60862SOL    HW2  579   5.307   5.606   1.572  0.3161  0.3572 -0.9870
60863SOL     OW  580   1.373   4.223   1.255  0.0970  0.7070  0.3999
60863SOL    HW1  581   1.355   4.291   1.189  0.3257  0.0017 -0.4124
60863SOL    HW2  582   1.293   4.170   1.258  0.7609 -0.4234 -0.7603
60864SOL     OW  583   4.205  12.844   8.268  0.4605 -0.1371  0.7756
60864SOL    HW1  584   4.233  12.769   8.320 -0.9038 -0.5754  0.8975
60864SOL    HW2  585   4.138  12.887   8.321  1.1513  1.1205  0.6622
60865SOL     OW  586  11.343   2.963  10.697  0.0396  0.1229  0.1587
60865SOL    HW1  587  11.377   2.885  10.653  0.9244  0.8870 -0.5836
60865SOL    HW2  588  11.394   3.035  10.659 -1.4001  1.1635  0.1264
60866SOL     OW  589  10.703   4.151  11.043  0.3754  0.4556 -0.3413
60866SOL    HW1  590  10.638   4.087  11.073  0.0753  1.3571  1.0501
60866SOL    HW2  591  10.760   4.102  10.985  0.6249 -1.2826  1.2717
60867SOL     OW  592   2.894  10.971   8.205 -0.1502  0.1559  0.1779
60867SOL    HW1  593   2.989  10.980   8.217 -0.1789  1.3211 -0.3585
60867SOL    HW2  594   2.873  10.888   8.248  1.0767 -0.0206  0.4928
60868SOL     OW  595   5.659  11.380  10.826 -0.2601 -0.2146  0.4109
60868SOL    HW1  596   5.586  11.439  10.842  0.1838  1.1174 -1.9457
60868SOL    HW2  597   5.630  11.325  10.754 -0.5616 -2.8197  2.3980
60869SOL     OW  598   3.978   3.043   0.319 -0.0825 -0.5040  0.0253
60869SOL    HW1  599   4.027   3.122   0.296  0.7339 -0.5226  1.5214
60869SOL    HW2  600   3.895   3.052   0.273  0.7128  0.2975 -1.3440
60870SOL     OW  601   3.331   4.618  13.577  0.3313 -0.9042  0.3034
60870SOL    HW1  602   3.276   4.553  13.532  0.1467 -0.3238 -0.3231
60870SOL    HW2  603   3.277   4.647  13.651  0.0975 -0.8871  0.1268
60871SOL     OW  604   1.642  10.191  11.769  0.1237  0.3411 -0.0704
60871SOL    HW1  605   1.697  10.218  11.696 -0.6692  1.3270 -0.3397
60871SOL    HW2  606   1.644  10.266  11.829  1.1606 -0.6469  1.1769
60872SOL     OW  607   2.485   5.626   6.584  0.0688  0.1901  0.3229
60872SOL    HW1  608   2.453   5.716   6.592 -1.1859 -0.2881  0.9248
60872SOL    HW2  609   2.548   5.617   6.655  1.6201  1.1251 -0.8451
60873SOL     OW  610   8.736  10.349   7.666 -0.2358 -0.0731  0.1762
60873SOL    HW1  611   8.793  10.423   7.645  0.6875 -0.6255  0.6711
60873SOL    HW2  612   8.778  10.274   7.624  0.6510 -0.8821  2.3458
60874SOL     OW  613   3.749   6.020  10.868 -0.4526  0.0565 -0.0878
60874SOL    HW1  614   3.743   6.096  10.925 -1.3727 -0.0590 -0.0163
60874SOL    HW2  615   3.790   6.054  10.788  2.0417 -0.0421  1.0296
60875SOL     OW  616   1.537  11.569  12.344 -0.4441 -0.2860 -0.3352
60875SOL    HW1  617   1.479  11.610  12.408  0.4073 -0.2916  0.4429
60875SOL    HW2  618   1.623  11.604  12.363 -0.0446 -0.8982 -0.9703
60876SOL     OW  619   2.358   7.353   8.350  0.3687  0.2193 -0.2589
60876SOL    HW1  620   2.323   7.430   8.305 -0.4873 -1.1768 -2.0939
60876SOL    HW2  621   2.450   7.350   8.323  0.5921  0.9555  0.3770
60877SOL     OW  622   0.946   0.129  10.504  0.5862 -0.4515  0.4938
60877SOL    HW1  623   0.963   0.177  10.423 -1.4022  0.3441  0.4809
60877SOL    HW2  624   0.953   0.194  10.573  0.2513 -0.6744  0.7415
60878SOL     OW  625   6.045   6.412   4.514 -0.1675  0.2221 -0.7073
60878SOL    HW1  626   5.989   6.468   4.461 -1.1850  1.4441  1.5183
60878SOL    HW2  627   6.015   6.323   4.494 -2.2149  0.7856 -0.3824
60879SOL     OW  628  11.867   5.868   7.978 -0.5958 -0.6728  0.0076
60879SOL    HW1  629  11.840   5.780   7.952 -1.5748  0.0544 -1.5985
60879SOL    HW2  630  11.802   5.926   7.937  0.1853  0.8121  0.7949
60880SOL     OW  631   2.401   8.468   8.804  0.5751  0.4601 -0.0568
60880SOL    HW1  632   2.457   8.444   8.878  2.0010  0.3938 -1.1173
60880SOL    HW2  633   2.422   8.560   8.788 -0.2920  0.6888  0.0828
60881SOL     OW  634   4.084  12.378  12.206 -0.4530 -0.5912 -0.2090
60881SOL    HW1  635   4.001  12.389  12.159 -1.3629 -3.1921  0.6498
60881SOL    HW2  636   4.068  12.420  12.291 -0.8767 -1.0090 -0.0759
60882SOL     OW  637   6.221  14.099  12.411  0.0009 -0.2165  0.0269
60882SOL    HW1  638   6.151  14.165  12.419  0.6621  0.6585 -1.0582
60882SOL    HW2  639   6.269  14.125  12.332  1.9850 -0.3730  1.1208
60883SOL     OW  640   7.843   5.451  10.229 -0.3596 -0.0989 -0.0966
60883SOL    HW1  641   7.867   5.475  10.319 -1.3085  3.0616 -0.5495
60883SOL    HW2  642   7.752   5.424  10.234 -0.2319 -0.5151 -0.0232
60884SOL     OW  643  11.098  12.470   3.372  0.3342 -0.0738  0.4047
60884SOL    HW1  644  11.088  12.557   3.412  0.2469  0.4293 -0.6845
60884SOL    HW2  645  11.025  12.419   3.407 -1.4961  1.2208 -1.3295
60885SOL     OW  646   1.761   8.453   9.782 -0.1611 -0.1001  0.3481
60885SOL    HW1  647   1.667   8.437   9.773 -0.2417  0.1652  0.6954
60885SOL    HW2  648   1.786   8.493   9.698 -1.0089  2.7941  1.3670
60886SOL     OW  649  13.176   3.092   9.574 -0.2321  0.3677 -0.2435
60886SOL    HW1  650  13.193   3.183   9.597 -0.4397  0.6419 -1.1421
60886SOL    HW2  651  13.135   3.054   9.652  0.0560  0.9811  0.2076
60887SOL     OW  652  13.961   7.990   3.848  0.3763 -0.0792 -0.7554
60887SOL    HW1  653  13.881   7.952   3.813 -1.1005  1.2922  0.8815
60887SOL    HW2  654  13.937   8.018   3.937  2.5896  0.6673 -0.3225
60888SOL     OW  655  13.535   8.529  12.740 -0.0178  0.2511  0.5515
60888SOL    HW1  656  13.504   8.467  12.806  0.3087  0.8487  1.2834
60888SOL    HW2  657  13.620   8.559  12.774  0.7329 -0.3609 -0.7538
60889SOL     OW  658  13.536  13.302   9.409  0.5544  0.2215  0.0123
60889SOL    HW1  659  13.491  13.224   9.442  2.4241  0.6141  4.2146
60889SOL    HW2  660  13.604  13.319   9.475  0.9093  4.8078 -1.2291
60890SOL     OW  661   4.790   4.953   6.340 -0.1396  0.2151 -0.1991
60890SOL    HW1  662   4.812   5.036   6.297 -0.3943 -0.8357 -2.4867
60890SOL    HW2  663   4.848   4.889   6.299 -0.1622 -0.8237  1.3105
60891SOL     OW  664  13.795   1.627   7.109  0.6717  0.1087 -0.3483
60891SOL    HW1  665  13.819   1.659   7.195  0.7764  1.1866 -0.7657
60891SOL    HW2  666  13.818   1.698   7.049 -0.1055 -0.3139 -1.1824
60892SOL     OW  667   9.853   5.882  13.304 -0.0175  0.4398 -1.0116
60892SOL    HW1  668   9.887   5.959  13.257  1.4030 -0.6527 -1.8797
60892SOL    HW2  669   9.762   5.876  13.277 -0.3310  2.1234 -0.4759
60893SOL     OW  670  11.111   7.894   9.755  0.2623  0.6943 -0.3648
60893SOL    HW1  671  11.060   7.973   9.740  0.8130  0.9181 -1.1317
60893SOL    HW2  672  11.069   7.827   9.700  0.3796  0.7071 -0.4723
60894SOL     OW  673   1.344   2.408  13.148  0.1611 -0.3103  0.4786
60894SOL    HW1  674   1.397   2.342  13.103 -1.3035 -2.0247  1.1496
60894SOL    HW2  675   1.271   2.424  13.088 -0.2597 -0.4155  0.9592
60895SOL     OW  676  12.572   6.423   2.556  0.4335 -0.5019 -0.3284
60895SOL    HW1  677  12.555   6.493   2.493 -0.2521 -1.0451 -0.7546
60895SOL    HW2  678  12.632   6.463   2.620  0.4455  0.3176 -0.8348
60896SOL     OW  679   3.891   9.597   0.248  0.1778 -0.3271 -0.0782
60896SOL    HW1  680   3.963   9.535   0.238  1.3546  1.2826 -2.2325
60896SOL    HW2  681   3.914   9.648   0.326  0.9347 -0.3865 -0.2576
60897SOL     OW  682  10.325   0.223   3.325 -0.5799  0.1029  1.2722
60897SOL    HW1  683  10.289   0.303   3.288  0.8243 -0.9654 -2.9890
60897SOL    HW2  684  10.393   0.196   3.263  0.9595 -2.9239  3.9644
60898SOL     OW  685  11.175   0.899  14.123  0.3012  0.0281  0.3162
60898SOL    HW1  686  11.131   0.821  14.087  1.1519  0.2504 -1.2832
60898SOL    HW2  687  11.115   0.971  14.103 -0.0216 -0.0714  0.9026
60899SOL     OW  688   6.635   5.645   5.179 -0.8999  0.1818  0.0427
60899SOL    HW1  689   6.690   5.605   5.247 -3.5957  1.3042  3.1707
60899SOL    HW2  690   6.607   5.572   5.125 -0.0262 -1.0655  1.2111
60900SOL     OW  691  13.494   3.537   5.576 -0.6611  0.3807  0.5541
60900SOL    HW1  692  13.530   3.623   5.555  0.4793 -0.1124  0.4454
60900SOL    HW2  693  13.495   3.490   5.493  0.0408 -0.2112  0.8923
60901SOL     OW  694  10.303   4.961   6.162  0.3590  0.0875  0.0771
60901SOL    HW1  695  10.288   5.042   6.211  0.7061  0.8657 -1.0524
60901SOL    HW2  696  10.227   4.906   6.183  0.3079  0.5368  1.1640
60902SOL     OW  697   2.001   0.430   9.020 -0.0020 -0.1699  0.6364
60902SOL    HW1  698   2.046   0.437   8.936 -1.6227  0.5588 -0.2156
60902SOL    HW2  699   2.032   0.506   9.069  0.3243 -0.1275  0.3692
60903SOL     OW  700   1.788   0.182   4.690  0.0682 -0.1918 -0.3896
60903SOL    HW1  701   1.733   0.137   4.626  0.3801  0.9098 -1.4606
60903SOL    HW2  702   1.844   0.113   4.727 -1.5544 -1.2193  0.2580
60904SOL     OW  703  10.249   4.239  11.533 -0.4560  0.1452 -0.6957
60904SOL    HW1  704  10.182   4.281  11.480 -0.4230  0.0302 -0.8290
60904SOL    HW2  705  10.260   4.152  11.493 -0.8727 -0.1744 -0.1291
60905SOL     OW  706   2.049   2.180   8.740  0.9826  0.2154  0.0600
60905SOL    HW1  707   2.088   2.094   8.731  0.9891  0.2877 -0.6725
60905SOL    HW2  708   2.116   2.232   8.784  0.5156 -0.4544  1.6182
60906SOL     OW  709   3.955   9.768  10.464 -0.2806 -0.6060 -0.1458
60906SOL    HW1  710   3.948   9.776  10.559  1.3272 -0.6666  0.0032
60906SOL    HW2  711   4.026   9.706  10.450 -1.3122 -1.5846 -1.4013
60907SOL     OW  712   9.059   0.986   6.569  0.1557  0.6575  0.0753
60907SOL    HW1  713   9.086   1.044   6.640 -0.4643 -0.7187  1.4891
60907SOL    HW2  714   9.141   0.968   6.521  0.8105  0.7097  1.1376
60908SOL     OW  715   0.989   1.901   9.760  0.0820 -0.2315  0.2503
60908SOL    HW1  716   1.027   1.968   9.817  0.1057  0.7691 -0.9121
60908SOL    HW2  717   0.937   1.949   9.697 -0.2678 -1.3453 -0.3438
60909SOL     OW  718  13.676  10.952   3.710 -0.1941 -0.1989 -0.3842
60909SOL    HW1  719  13.724  11.033   3.725  1.7113 -1.5728  1.5445
60909SOL    HW2  720  13.609  10.975   3.646  0.6813  2.7133 -0.3829
60910SOL     OW  721  11.848   9.639  13.842 -0.3266 -0.3219 -0.1490
60910SOL    HW1  722  11.813   9.673  13.924  0.1737 -0.1829  0.0052
60910SOL    HW2  723  11.778   9.654  13.778 -0.4128  0.2693  0.0868
60911SOL     OW  724   9.419   4.336   0.860  0.1359 -0.0880 -0.1807
60911SOL    HW1  725   9.497   4.347   0.914  0.0958 -0.5678 -0.0196
60911SOL    HW2  726   9.400   4.424   0.828 -0.7274  0.5447  1.8522
60912SOL     OW  727   0.321   3.277   3.869 -0.3423 -0.6436 -0.3172
60912SOL    HW1  728   0.328   3.270   3.964  0.9903 -0.4361 -0.3879
60912SOL    HW2  729   0.379   3.209   3.836  0.2989  0.2018 -0.9712
60913SOL     OW  730   2.428   7.197  11.486 -0.2990  0.2476 -0.2568
60913SOL    HW1  731   2.513   7.192  11.443 -0.4908  0.9587 -0.7372
60913SOL    HW2  732   2.434   7.135  11.559  0.4027 -0.1770 -0.6682
60914SOL     OW  733   8.595  13.158   2.104  0.3070 -0.3933  0.0705
60914SOL    HW1  734   8.689  13.170   2.088  0.4958 -0.8342  0.8035
60914SOL    HW2  735   8.566  13.103   2.031 -0.0354  2.1356 -1.8543
60915SOL     OW  736  12.951  13.960   5.625 -0.3877 -0.1519 -0.1630
60915SOL    HW1  737  12.980  14.024   5.690  1.4227 -1.4306  0.3839
60915SOL    HW2  738  13.011  13.886   5.637 -0.9884 -1.0383 -2.2679
60916SOL     OW  739   5.266  10.112   2.362 -0.3023  0.3294 -0.5103
60916SOL    HW1  740   5.330  10.140   2.298 -0.2405  0.5539 -0.3518
60916SOL    HW2  741   5.250  10.020   2.342  0.5606  0.0872 -0.1413
60917SOL     OW  742   3.192   0.234   0.754 -0.0225  0.0250  0.2078
60917SOL    HW1  743   3.270   0.267   0.708  0.2108 -0.3105  0.3522
60917SOL    HW2  744   3.133   0.308   0.759  0.1984  0.2231 -0.1092
60918SOL     OW  745  12.499   8.750  12.499  0.4486  0.5844  0.3289
60918SOL    HW1  746  12.495   8.655  12.509 -0.3214  0.7609  1.9744
60918SOL    HW2  747  12.578   8.776  12.546 -0.8263  0.9867  2.3797
60919SOL     OW  748   8.040   3.760   2.707  0.2467 -0.6725  0.3674
60919SOL    HW1  749   8.066   3.689   2.648 -0.6615 -0.5536 -0.2037
60919SOL    HW2  750   7.991   3.821   2.651 -0.5041 -0.4713  1.2111
60920SOL     OW  751  13.684   2.584   1.228  0.4457 -0.6250 -0.0953
60920SOL    HW1  752  13.643   2.504   1.196 -0.0468 -0.4691  0.1192
60920SOL    HW2  753  13.610   2.643   1.244  0.9312  1.1332 -3.4748
60921SOL     OW  754   4.067   9.753   9.265 -0.1559  0.0662 -0.4234
60921SOL    HW1  755   4.139   9.814   9.281 -0.1506  0.0759 -0.4893
60921SOL    HW2  756   4.007   9.767   9.339  0.6624 -1.0435  0.4922
60922SOL     OW  757   5.322  12.535   4.464  0.1288 -0.0953 -0.8460
60922SOL    HW1  758   5.280  12.455   4.434 -0.7879 -0.6259  1.6085
60922SOL    HW2  759   5.405  12.506   4.502 -0.4576  0.0074  0.5573
60923SOL     OW  760  11.028   9.714   2.477 -0.4302 -0.6246 -0.3870
60923SOL    HW1  761  10.938   9.745   2.476 -0.2866 -0.0448  1.2704
60923SOL    HW2  762  11.054   9.713   2.385 -2.2333 -1.1912 -0.9317
60924SOL     OW  763   9.414   0.036   8.726 -0.4919 -0.5017 -0.3343
60924SOL    HW1  764   9.475  -0.025   8.768 -1.1114 -0.4626  0.6558
60924SOL    HW2  765   9.335   0.030   8.779 -0.8089  0.6212 -0.6607
60925SOL     OW  766   7.125  12.201   9.077 -0.5636 -0.3564 -0.0756
60925SOL    HW1  767   7.216  12.173   9.093 -0.2758 -0.6735 -2.0546
60925SOL    HW2  768   7.072  12.126   9.104 -0.3245  0.0233  1.6005
60926SOL     OW  769   4.466  11.678   7.068  0.7283 -0.1273  0.0110
60926SOL    HW1  770   4.378  11.644   7.055  0.6073 -0.1359  0.7852
60926SOL    HW2  771   4.463  11.767   7.033  0.2496  0.0670  0.5334
60927SOL     OW  772   5.547  10.872   0.800  0.5400 -0.2137  0.3607
60927SOL    HW1  773   5.630  10.838   0.831  1.8639  1.4083 -1.1722
60927SOL    HW2  774   5.557  10.968   0.803 -1.0879  0.0115 -0.2525
60928SOL     OW  775   1.712   3.124   0.291 -0.0595 -0.1659 -0.1222
60928SOL    HW1  776   1.728   3.037   0.254  0.0032 -0.0941 -0.2657
60928SOL    HW2  777   1.717   3.183   0.216  1.3004  0.1279  0.1722
60929SOL     OW  778   8.821   7.182  13.517  0.0016 -0.6968 -0.2656
60929SOL    HW1  779   8.809   7.181  13.422 -0.3705 -1.2929 -0.2199
60929SOL    HW2  780   8.801   7.093  13.544 -1.5549 -0.1346  0.5619
60930SOL     OW  781   1.714   9.945   1.927 -0.0410 -0.1900  0.2598
60930SOL    HW1  782   1.695   9.857   1.896  0.5295 -0.9279  1.9387
60930SOL    HW2  783   1.656   9.958   2.002  0.0856  0.7597  0.2078
60931SOL     OW  784  10.274   7.750   7.040 -0.1408 -0.4836 -0.7833
60931SOL    HW1  785  10.357   7.777   7.001 -0.7912  0.8516 -1.2839
60931SOL    HW2  786  10.295   7.733   7.132  0.7777 -0.6667 -1.0175
60932SOL     OW  787  13.723  13.571  10.891  0.3608  0.2383 -0.1061
60932SOL    HW1  788  13.698  13.580  10.983 -0.9882  0.6951 -0.4945
60932SOL    HW2  789  13.784  13.644  10.875  2.0252 -0.8697  0.8420
60933SOL     OW  790   1.632   9.969  10.842  0.1341 -0.6276  0.1408
60933SOL    HW1  791   1.546   9.956  10.802 -0.4056 -1.6652  1.5625
60933SOL    HW2  792   1.682  10.016  10.776 -0.8023 -1.9820 -1.6198
60934SOL     OW  793  10.639  11.883  12.668  0.7084 -0.5296 -0.4237
60934SOL    HW1  794  10.730  11.871  12.697  0.6730  1.0559  0.4191
60934SOL    HW2  795  10.638  11.847  12.579  2.1070 -0.7616 -0.3745
60935SOL     OW  796   6.281  11.030   8.258 -0.3784  0.1725 -0.1068
60935SOL    HW1  797   6.219  10.996   8.323  0.4447 -1.4204 -0.1065
60935SOL    HW2  798   6.367  11.019   8.298  0.1814 -1.1798 -1.5506
60936SOL     OW  799   1.150   5.398   9.190 -1.3706 -0.2203 -0.4224
60936SOL    HW1  800   1.140   5.369   9.100 -0.7541 -1.0431 -0.2377
60936SOL    HW2  801   1.177   5.319   9.238 -0.1618  0.5348  0.1897
60937SOL     OW  802   0.625  10.097  10.605  0.5088 -0.5330  0.4632
60937SOL    HW1  803   0.651  10.058  10.688  1.1806  1.6803  1.3857
60937SOL    HW2  804   0.550  10.152  10.626 -0.1053 -0.8933 -0.6723
60938SOL     OW  805   4.601  13.275   4.139 -0.2583 -0.1622  0.2061
60938SOL    HW1  806   4.631  13.299   4.052  0.6066 -0.2158  0.4748
60938SOL    HW2  807   4.682  13.261   4.189 -0.7374 -0.0676  1.0303
60939SOL     OW  808  13.522  12.498   3.862  0.0438 -0.1139  0.2275
60939SOL    HW1  809  13.575  12.419   3.872  0.6514  0.2963  0.3455
60939SOL    HW2  810  13.442  12.469   3.819  0.6434 -0.6549 -0.5526
60940SOL     OW  811   0.536   5.832   3.597 -0.5973  0.1482  0.4780
60940SOL    HW1  812   0.474   5.762   3.619  1.5753 -1.8408  0.6201
60940SOL    HW2  813   0.536   5.835   3.502  1.3901 -2.1533  0.3242
60941SOL     OW  814  11.093   0.059  13.724 -0.3719 -0.7619 -0.3050
60941SOL    HW1  815  11.124   0.084  13.811 -0.4706 -1.0042 -0.1993
60941SOL    HW2  816  11.042   0.134  13.694 -0.3013 -0.6604 -0.1703
60942SOL     OW  817  10.701  12.778  13.719  0.2240  0.3864 -0.0708
60942SOL    HW1  818  10.740  12.774  13.632  2.6765 -0.7595  0.9887
60942SOL    HW2  819  10.753  12.843  13.766  0.0840 -0.2752  1.0557
60943SOL     OW  820   3.136   6.625   8.858 -0.7278  0.3224  0.1773
60943SOL    HW1  821   3.078   6.686   8.903 -0.7676  0.9431 -0.7078
60943SOL    HW2  822   3.094   6.608   8.774  0.0283  0.2558 -0.2005
60944SOL     OW  823   3.163   6.570  14.073 -0.4830  0.1087  0.4619
60944SOL    HW1  824   3.221   6.612  14.137  0.3956 -1.5645  0.8068
60944SOL    HW2  825   3.222   6.542  14.003 -1.0248 -0.6802  0.3188
60945SOL     OW  826   6.141   5.652  13.772  0.3109 -0.3912  0.2511
60945SOL    HW1  827   6.136   5.719  13.703  1.8616  0.0892  0.5549
60945SOL    HW2  828   6.081   5.683  13.839 -1.2046 -0.8518 -0.8515
60946SOL     OW  829  14.099   2.509  13.508  0.1345 -0.4484  0.3055
60946SOL    HW1  830  14.095   2.522  13.413  0.5456 -0.6917  0.2521
60946SOL    HW2  831  14.132   2.593  13.542  1.3647 -0.8212  0.0957
60947SOL     OW  832   4.507   8.256   9.059  0.0458 -0.2533  0.3757
60947SOL    HW1  833   4.556   8.223   8.983  0.0214 -0.8651  0.6164
60947SOL    HW2  834   4.463   8.178   9.094 -1.6875  0.4057 -0.2562
60948SOL     OW  835  10.006   4.049   3.841  0.2269  0.1640  0.5763
60948SOL    HW1  836  10.014   4.098   3.923  1.0860  0.4997  0.3116
60948SOL    HW2  837  10.069   3.978   3.849 -0.4598 -0.4468  0.6380
60949SOL     OW  838   9.570   6.456   5.525 -0.0670  0.1763  1.1379
60949SOL    HW1  839   9.499   6.518   5.514  1.0303  1.0640 -1.5896
60949SOL    HW2  840   9.529   6.380   5.566 -2.2493  1.2070  0.9914
60950SOL     OW  841  12.885   1.195   5.052 -0.5465  0.0846  0.5173
60950SOL    HW1  842  12.923   1.269   5.100 -1.9275  1.2465 -0.1458
60950SOL    HW2  843  12.844   1.233   4.975  1.0766 -1.6792 -1.3606
60951SOL     OW  844   5.961   4.375  10.105  0.2875  0.0123  0.3689
60951SOL    HW1  845   5.928   4.314  10.039 -0.5583 -0.5244  1.2533
60951SOL    HW2  846   5.931   4.338  10.189 -0.1954  1.6159  0.9307
60952SOL     OW  847   9.032   9.833  10.958  0.1146 -0.2535 -0.7653
60952SOL    HW1  848   9.102   9.892  10.930 -1.4068  1.1008 -1.9383
60952SOL    HW2  849   8.952   9.876  10.928 -1.2693 -1.4909  0.9505
60953SOL     OW  850   0.610   1.912  10.741  0.1385 -0.1757 -0.3891
60953SOL    HW1  851   0.553   1.976  10.698  0.4280 -1.0823 -2.2167
60953SOL    HW2  852   0.563   1.829  10.732  0.7164 -0.5609  0.1129
60954SOL     OW  853   8.782  10.033   2.270  0.0398  0.8180 -0.3212
60954SOL    HW1  854   8.784   9.992   2.183  1.7535  1.4596 -0.6376
60954SOL    HW2  855   8.783   9.959   2.331 -3.7513  0.2448 -0.7004
60955SOL     OW  856   8.968   6.058   7.966 -0.2388  0.0792 -0.2525
60955SOL    HW1  857   8.894   6.057   7.905 -0.7337 -0.0520  0.3361
60955SOL    HW2  858   8.928   6.077   8.051  0.4567  0.3903  0.0105
60956SOL     OW  859   0.726   0.099  13.018 -0.1649  0.5177 -0.0201
60956SOL    HW1  860   0.718   0.182  13.066 -1.7953 -0.4804  1.4996
60956SOL    HW2  861   0.645   0.052  13.036  0.6396 -1.3524 -1.0323
60957SOL     OW  862   4.639   0.077   4.008  0.4898 -0.4740 -0.3268
60957SOL    HW1  863   4.611  -0.006   4.045  1.3640  0.7002  3.4464
60957SOL    HW2  864   4.711   0.054   3.949  0.6012 -2.4291  0.5015
60958SOL     OW  865   8.058  13.156   4.561 -0.4598 -0.3955  0.7215
60958SOL    HW1  866   8.077  13.178   4.653 -1.4368 -0.5074  0.9609
60958SOL    HW2  867   7.962  13.150   4.557 -0.3693 -1.8916  0.0517
60959SOL     OW  868  13.570  11.221   4.182 -0.5552  0.0447 -0.4327
60959SOL    HW1  869  13.496  11.163   4.162 -0.6672  0.1094 -0.2108
60959SOL    HW2  870  13.597  11.256   4.097  1.6290 -2.8271 -1.0831
60960SOL     OW  871  12.180  11.430  13.324  0.3630  0.6400 -0.7415
60960SOL    HW1  872  12.173  11.473  13.239 -0.8829  1.9582 -0.0173
60960SOL    HW2  873  12.116  11.476  13.380  1.1752 -0.1453  0.9133
60961SOL     OW  874  11.127   4.373  13.053 -0.2689  0.3894 -0.8757
60961SOL    HW1  875  11.197   4.394  13.114  0.6013 -1.9245 -0.9698
60961SOL    HW2  876  11.066   4.319  13.103  0.6289 -1.8359 -2.0149
60962SOL     OW  877   9.238  12.135   1.125  0.7596  0.6201 -0.0495
60962SOL    HW1  878   9.198  12.182   1.052 -0.3735  0.5151  0.4876
60962SOL    HW2  879   9.322  12.106   1.091  1.4975  2.9699 -0.4272
60963SOL     OW  880  12.568   0.014   2.172  0.0675 -0.0784  0.2785
60963SOL    HW1  881  12.507   0.087   2.180 -0.2219 -0.3434  0.5476
60963SOL    HW2  882  12.579   0.002   2.077  0.5541  0.6681  0.2388
60964SOL     OW  883   4.614  13.793   2.608  0.2999 -0.2615 -0.5308
60964SOL    HW1  884   4.553  13.842   2.554 -0.8339 -1.3966 -0.3336
60964SOL    HW2  885   4.699  13.806   2.566 -0.0588  1.2828 -0.8596
60965SOL     OW  886   6.617   8.561   5.370 -0.6018 -0.2606  0.0467
60965SOL    HW1  887   6.671   8.573   5.448 -1.2527 -0.3248  0.5184
60965SOL    HW2  888   6.559   8.638   5.369  0.0564  0.2466 -0.9259
60966SOL     OW  889   7.063  12.202   5.942  0.0586 -0.4100 -0.1213
60966SOL    HW1  890   7.138  12.142   5.935 -0.7786 -1.5752  0.4773
60966SOL    HW2  891   7.038  12.218   5.851 -0.1891 -1.6486 -0.2997
60967SOL     OW  892   2.182   0.520   8.179 -0.4087  0.0072  0.3260
60967SOL    HW1  893   2.215   0.462   8.110 -0.5216  0.9167 -0.5027
60967SOL    HW2  894   2.198   0.471   8.260  0.4838 -0.7287 -0.2686
60968SOL     OW  895  11.368   2.503  12.679  0.3583  0.0891 -0.4890
60968SOL    HW1  896  11.423   2.462  12.746  0.0862 -0.1614 -0.4158
60968SOL    HW2  897  11.297   2.545  12.729 -0.4816 -1.0693 -0.6748
60969SOL     OW  898   4.895   3.266   7.202 -0.4030  0.2365 -0.2191
60969SOL    HW1  899   4.989   3.280   7.213 -0.0023 -1.2677 -1.5163
60969SOL    HW2  900   4.876   3.189   7.255 -0.9161  0.5190  0.0179
60970SOL     OW  901  10.391   4.565   3.027 -0.2323 -0.1704 -0.0700
60970SOL    HW1  902  10.470   4.513   3.043 -0.4791 -0.3034  0.7463
60970SOL    HW2  903  10.325   4.500   3.000 -0.1447 -0.0912 -0.4891
60971SOL     OW  904   2.233  12.130   2.819  0.7525  0.9223 -0.1995
60971SOL    HW1  905   2.209  12.201   2.760  1.0743 -0.2003 -1.7239
60971SOL    HW2  906   2.320  12.103   2.790  0.8374  0.2257  0.6702
60972SOL     OW  907  12.180  10.512   1.704  0.2694  0.4842  0.2477
60972SOL    HW1  908  12.186  10.417   1.694 -1.1445  0.4866 -1.1375
60972SOL    HW2  909  12.156  10.525   1.796 -0.5181 -0.5688  0.2152
60973SOL     OW  910  12.617   0.614   7.537 -0.1057  0.3594 -0.3881
60973SOL    HW1  911  12.577   0.528   7.521 -0.7369  0.9593 -2.1727
60973SOL    HW2  912  12.686   0.621   7.472 -0.6502  1.5617 -0.8668
60974SOL     OW  913   9.684   2.747  13.192  0.2227  0.1233 -0.1947
60974SOL    HW1  914   9.718   2.783  13.109 -1.4445 -1.4523 -1.6522
60974SOL    HW2  915   9.720   2.658  13.195 -1.8248 -0.7614 -0.6146
60975SOL     OW  916  10.332   3.777   4.385 -0.0005  0.3635  0.3084
60975SOL    HW1  917  10.405   3.780   4.322 -0.1087 -1.1759  0.0714
60975SOL    HW2  918  10.297   3.688   4.377 -2.6023  1.3348 -0.3650
60976SOL     OW  919   0.276   1.439   2.334  0.1761 -0.4459 -0.5577
60976SOL    HW1  920   0.296   1.425   2.427  0.4964  0.9820 -0.3961
60976SOL    HW2  921   0.185   1.465   2.333 -0.2251 -1.7545 -0.8013
60977SOL     OW  922   7.973  11.820   2.019 -0.0040  0.6330 -0.1158
60977SOL    HW1  923   7.948  11.758   1.950 -1.4000  0.7763  0.2250
60977SOL    HW2  924   8.002  11.765   2.092  0.5538  0.4518 -0.4679
60978SOL     OW  925  12.029   0.922   0.047 -0.0044 -0.2819  0.0718
60978SOL    HW1  926  11.997   1.007   0.017  0.1628  1.0389  3.2377
60978SOL    HW2  927  12.112   0.910   0.001 -0.9690  0.2922 -1.8998
60979SOL     OW  928   2.033   4.427  14.135 -0.0419 -0.4717  0.2431
60979SOL    HW1  929   1.998   4.508  14.173 -0.2574 -0.7652  0.6888
60979SOL    HW2  930   2.093   4.456  14.067 -0.2857  0.0611  0.2496
60980SOL     OW  931   2.948   0.712  12.250  0.3818  0.7272  0.3212
60980SOL    HW1  932   2.899   0.794  12.254  0.3642  0.7562 -0.3476
60980SOL    HW2  933   3.036   0.738  12.221  0.3001  0.4793 -0.1514
60981SOL     OW  934  12.694  13.542  13.799  0.4911 -0.3669 -0.2818
60981SOL    HW1  935  12.765  13.525  13.738 -0.2205  0.3467 -1.3290
60981SOL    HW2  936  12.616  13.505  13.757 -0.0227  0.1873  0.1581
60982SOL     OW  937  13.838   3.426   4.918 -0.2158  0.3388  0.0041
60982SOL    HW1  938  13.916   3.398   4.870 -0.3121 -2.1330  1.1648
60982SOL    HW2  939  13.830   3.520   4.897  2.2264  0.3524 -1.2493
60983SOL     OW  940   1.691  10.212  10.518  0.2839 -0.1769 -0.0752
60983SOL    HW1  941   1.705  10.240  10.427 -0.5214  0.7357  0.0685
60983SOL    HW2  942   1.738  10.129  10.524  0.3403 -0.2664 -1.3317
60984SOL     OW  943   7.066  11.295   7.903  0.9920 -0.6697 -0.1097
60984SOL    HW1  944   7.143  11.239   7.908  2.2037  0.8467 -1.2096
60984SOL    HW2  945   7.018  11.264   7.827  0.4767 -1.6137  0.5754
60985SOL     OW  946   5.668   4.794   5.101  0.8112 -0.6892 -0.3057
60985SOL    HW1  947   5.649   4.701   5.112  1.1825 -0.9072 -1.3920
60985SOL    HW2  948   5.696   4.823   5.188 -1.5540 -1.0197  0.6393
60986SOL     OW  949   1.859   3.185   5.227 -0.2523  0.5314  0.5374
60986SOL    HW1  950   1.791   3.220   5.169 -1.4760 -1.5083  0.6436
60986SOL    HW2  951   1.811   3.134   5.293  1.3516 -1.5356  0.2322
60987SOL     OW  952   1.534   7.769   7.448  0.5887  0.0050  0.0430
60987SOL    HW1  953   1.588   7.707   7.399  1.8236  0.2026  1.1001
60987SOL    HW2  954   1.451   7.723   7.461  0.7778 -0.6299 -0.9111
60988SOL     OW  955  12.689   3.688  10.551  0.3187 -0.4147 -0.1145
60988SOL    HW1  956  12.749   3.621  10.517  0.8682  0.3513 -0.7037
60988SOL    HW2  957  12.643   3.720  10.473  0.3484  0.1612  0.0991
60989SOL     OW  958   1.876   1.172   6.524 -0.2344  0.5621 -0.0396
60989SOL    HW1  959   1.878   1.142   6.433 -0.8050 -2.7705  0.9275
60989SOL    HW2  960   1.921   1.256   6.522 -1.5526  1.3814 -3.6319
60990SOL     OW  961   4.572   9.719  14.059  0.3119  0.1196 -0.0466
60990SOL    HW1  962   4.563   9.802  14.012  1.9431 -0.5163 -1.5779
60990SOL    HW2  963   4.551   9.653  13.994 -1.7598 -0.7248  1.3679
60991SOL     OW  964   7.889   4.430   6.990  0.0801 -0.0264 -0.6123
60991SOL    HW1  965   7.872   4.350   6.940  0.0951 -0.9553  0.8056
60991SOL    HW2  966   7.865   4.408   7.080 -1.0413  1.9480 -0.3656
60992SOL     OW  967   6.448  12.890   5.083  0.2626  0.1869 -0.0937
60992SOL    HW1  968   6.372  12.947   5.073  0.6878  0.6832 -0.5288
60992SOL    HW2  969   6.413  12.811   5.124 -0.1335  1.2516  1.7422
60993SOL     OW  970   0.969   8.737  10.493  0.4090  0.1530  0.3447
60993SOL    HW1  971   1.027   8.778  10.557  0.2441  1.4393 -0.2997
60993SOL    HW2  972   0.887   8.724  10.540  0.7595 -0.3741  0.8387
60994SOL     OW  973   8.284  14.093   3.795 -0.1250 -0.0181 -0.3399
60994SOL    HW1  974   8.359  14.146   3.769  2.1723 -1.8839  1.8339
60994SOL    HW2  975   8.296  14.010   3.748 -0.0195 -0.7811  0.9569
60995SOL     OW  976   2.021  11.695  11.102 -0.3212  0.5462 -0.8332
60995SOL    HW1  977   1.949  11.701  11.164 -0.5939  1.3561 -1.2047
60995SOL    HW2  978   1.994  11.751  11.029 -0.1007 -0.5474 -1.7777
60996SOL     OW  979   0.643   9.773   3.519  0.9281  0.2523 -0.3500
60996SOL    HW1  980   0.613   9.818   3.598  2.3953  0.6845 -0.0080
60996SOL    HW2  981   0.660   9.683   3.547  2.5838  0.6842  0.1673
60997SOL     OW  982   3.192  12.338   6.462 -0.2077  0.4428 -0.0581
60997SOL    HW1  983   3.245  12.285   6.521 -0.6582 -0.2310 -0.2517
60997SOL    HW2  984   3.232  12.425   6.466 -1.0130  0.7707  2.2475
60998SOL     OW  985   8.076  11.257   3.470  0.2038 -0.4666 -0.1984
60998SOL    HW1  986   8.075  11.299   3.384 -1.5187 -0.7696 -0.3461
60998SOL    HW2  987   8.115  11.171   3.454  0.2638 -0.3671 -0.5972
60999SOL     OW  988  12.790  12.523   2.332  0.7230 -0.0080  0.0165
60999SOL    HW1  989  12.829  12.610   2.339 -0.6892  0.6713 -0.3496
60999SOL    HW2  990  12.741  12.512   2.414 -0.4244  0.2290 -0.6204
61000SOL     OW  991   2.698   7.820   5.233 -0.0274  0.6094 -0.0884
61000SOL    HW1  992   2.606   7.840   5.219 -0.4478 -0.5552  0.8868
61000SOL    HW2  993   2.700   7.726   5.253  1.4232  0.4987 -0.5991
61001SOL     OW  994   4.868   5.603   7.392  0.2478 -0.0628  0.5406
61001SOL    HW1  995   4.917   5.525   7.366 -0.0825  0.2460 -1.1114
61001SOL    HW2  996   4.822   5.630   7.313 -1.4035  0.5357  1.6431
61002SOL     OW  997   0.174  12.773   1.567 -0.1207  0.7720 -0.6033
61002SOL    HW1  998   0.185  12.689   1.612 -0.1896  1.0917  0.0204
61002SOL    HW2  999   0.182  12.838   1.636  1.2715  1.3585 -1.2687
61003SOL     OW 1000   5.771  10.200  10.394  0.1069 -0.2023 -0.0689
61003SOL    HW1 1001   5.732  10.159  10.471 -0.9758  0.3346 -0.3005
61003SOL    HW2 1002   5.865  10.192  10.407 -0.0629 -0.4931  1.1015
61004SOL     OW 1003   6.236  10.421  10.503  0.0454  0.1680 -0.2757
61004SOL    HW1 1004   6.209  10.445  10.592  1.2392 -0.5171  0.2982
61004SOL    HW2 1005   6.226  10.501  10.452  0.4977  0.9077  0.7596
61005SOL     OW 1006   7.806   2.891   1.728 -0.6403 -0.0497 -0.2961
61005SOL    HW1 1007   7.793   2.929   1.641  0.1223  0.1616 -0.3256
61005SOL    HW2 1008   7.882   2.834   1.719 -1.0633 -0.6837  0.0360
61006SOL     OW 1009  10.051   4.452  12.857 -0.5038  0.0355  0.2231
61006SOL    HW1 1010  10.021   4.535  12.819  0.9395  0.8732  0.8075
61006SOL    HW2 1011  10.037   4.462  12.951  0.8791  0.1852  0.4417
61007SOL     OW 1012  13.291  10.392   5.043 -0.4531 -0.4995 -0.5622
61007SOL    HW1 1013  13.300  10.424   5.133 -1.7009 -1.2261 -0.1471
61007SOL    HW2 1014  13.353  10.445   4.992  0.9347 -0.6844  0.8543
61008SOL     OW 1015   8.507   3.850   8.795 -0.2312  0.1198 -0.0907
61008SOL    HW1 1016   8.436   3.798   8.756 -0.7968  1.6650 -1.2241
61008SOL    HW2 1017   8.587   3.810   8.762 -0.5992 -0.7963  0.0824
61009SOL     OW 1018   0.837   6.760  11.190 -0.0258 -0.1571  0.6118
61009SOL    HW1 1019   0.867   6.791  11.104 -3.0745  1.4380 -0.0296
61009SOL    HW2 1020   0.846   6.835  11.248 -1.0947 -0.1541  0.8036
61010SOL     OW 1021  10.768   7.132  10.347 -0.0128  0.5896 -0.2858
61010SOL    HW1 1022  10.720   7.206  10.383  1.0862  0.5964  1.2670
61010SOL    HW2 1023  10.744   7.058  10.403 -1.0454 -0.2485 -1.7693
61011SOL     OW 1024   0.287   8.257   1.366  0.8331 -0.3672  0.1754
61011SOL    HW1 1025   0.366   8.286   1.411  1.0896 -2.1000  0.9194
61011SOL    HW2 1026   0.273   8.321   1.296  2.3550  0.4742  0.6214
61012SOL     OW 1027   0.058  12.781   2.010  0.4216  0.0612  0.4947
61012SOL    HW1 1028   0.067  12.857   1.953  2.0678  0.4465  1.1979
61012SOL    HW2 1029   0.010  12.814   2.087 -1.3510 -0.3374 -0.3870
61013SOL     OW 1030   0.610   3.761  13.023 -0.3873 -0.0673  0.1779
61013SOL    HW1 1031   0.628   3.855  13.027  0.9917 -0.1673 -1.8757
61013SOL    HW2 1032   0.695   3.721  13.002 -1.3099 -1.5446 -0.9683
61014SOL     OW 1033   9.735   5.546  12.021 -0.4090  0.4488  0.0053
61014SOL    HW1 1034   9.729   5.451  12.010  0.6897  0.1974  1.3118
61014SOL    HW2 1035   9.758   5.559  12.113 -1.3420  2.0337  0.0587
61015SOL     OW 1036   1.358   0.284   8.530 -0.1668  0.0705  0.3658
61015SOL    HW1 1037   1.264   0.295   8.544 -0.1221 -0.4551  1.1006
61015SOL    HW2 1038   1.364   0.214   8.465 -0.2899  0.4175 -0.0262
61016SOL     OW 1039   9.035   9.958  10.648 -0.4952  0.6074 -0.2795
61016SOL    HW1 1040   9.112   9.965  10.706 -0.3097  2.1781 -0.6725
61016SOL    HW2 1041   9.054   9.882  10.593 -0.8359 -1.1667  1.9113
61017SOL     OW 1042   6.540   5.075   6.575  0.6433 -0.0969 -0.0943
61017SOL    HW1 1043   6.459   5.105   6.617  0.8863 -0.9074  1.0025
61017SOL    HW2 1044   6.511   5.040   6.491 -0.1717 -0.5124  0.3484
61018SOL     OW 1045  13.755   8.752   9.397 -0.4043 -0.2478 -0.2490
61018SOL    HW1 1046  13.823   8.758   9.463  0.0928  1.0570 -0.8487
61018SOL    HW2 1047  13.799   8.774   9.315 -1.5488  0.7039 -0.6414
61019SOL     OW 1048   5.618   7.536   1.698 -0.1062  0.2764 -0.2939
61019SOL    HW1 1049   5.649   7.570   1.614 -0.0217  0.3465 -0.2348
61019SOL    HW2 1050   5.530   7.503   1.680 -0.2442  0.6566 -0.3218
61020SOL     OW 1051   3.301  12.951   0.085 -0.0687 -0.0794  0.2946
61020SOL    HW1 1052   3.211  12.978   0.100  0.0010  0.3782 -0.0629
61020SOL    HW2 1053   3.353  13.026   0.113  0.2241 -0.4805  0.8436
61021SOL     OW 1054   2.444  10.950   6.122 -0.3752 -0.3396  0.2184
61021SOL    HW1 1055   2.471  10.879   6.064 -0.1344 -1.5088  1.6836
61021SOL    HW2 1056   2.408  10.906   6.199 -0.8543  1.1465  0.8891
61022SOL     OW 1057   6.789   0.509  11.592  0.6640  0.1532 -0.3414
61022SOL    HW1 1058   6.781   0.598  11.557 -2.2041 -0.8531 -2.6909
61022SOL    HW2 1059   6.784   0.519  11.687 -0.1111  2.4498 -0.5645
61023SOL     OW 1060  11.625  13.861   2.081 -0.3746 -0.2046 -0.4498
61023SOL    HW1 1061  11.559  13.873   2.012  0.4191 -0.6837 -1.3017
61023SOL    HW2 1062  11.597  13.782   2.127 -1.7425  0.9268  0.7672
61024SOL     OW 1063  10.460   6.915  12.977 -0.1409  0.9160  0.0245
61024SOL    HW1 1064  10.450   6.994  12.924 -0.8584  1.4869  0.9628
61024SOL    HW2 1065  10.412   6.935  13.058  1.9505  0.5775  1.4252
61025SOL     OW 1066   4.301   5.458   1.919 -0.2986  0.0381  0.0257
61025SOL    HW1 1067   4.385   5.432   1.880 -0.1843  1.8795 -1.0701
61025SOL    HW2 1068   4.326   5.509   1.997 -0.4125  0.1547 -0.0138
61026SOL     OW 1069   1.969   5.848   8.544  0.3978  0.0715 -0.1287
61026SOL    HW1 1070   1.915   5.833   8.466  0.1433 -2.5016  0.4783
61026SOL    HW2 1071   1.999   5.762   8.570  0.2920  0.8092  2.7790
61027SOL     OW 1072   3.905   5.687   5.542 -0.1959  0.1471 -0.1850
61027SOL    HW1 1073   3.853   5.618   5.501  1.3594 -1.2889  0.1674
61027SOL    HW2 1074   3.903   5.666   5.636  0.8871  0.1286 -0.1500
61028SOL     OW 1075   1.445  11.501  11.379  0.2298 -0.1692  0.2998
61028SOL    HW1 1076   1.420  11.589  11.410 -0.7959 -0.5611  0.6508
61028SOL    HW2 1077   1.495  11.517  11.300 -1.7099  0.6946 -0.8397
61029SOL     OW 1078   0.858  11.397   5.741  0.0776  0.1209 -0.2169
61029SOL    HW1 1079   0.825  11.485   5.724  0.9882  0.5804  0.2935
61029SOL    HW2 1080   0.806  11.366   5.815  0.0554  0.4011 -0.1144
61030SOL     OW 1081   2.699  12.256   1.239 -0.2562  0.5142 -0.1604
61030SOL    HW1 1082   2.752  12.325   1.280  5.8188 -1.4427 -3.4311
61030SOL    HW2 1083   2.719  12.177   1.289 -0.2660 -0.2549 -1.3347
61031SOL     OW 1084   6.060   5.149  12.520 -0.9747 -0.1614  0.1929
61031SOL    HW1 1085   6.011   5.087  12.466 -0.5214 -1.2050  0.9586
61031SOL    HW2 1086   6.114   5.095  12.577  1.5813  0.9392 -1.0415
61032SOL     OW 1087  10.644   8.652   6.665  0.1033  0.2838  0.1528
61032SOL    HW1 1088  10.740   8.651   6.669  0.1753  2.2221 -0.4001
61032SOL    HW2 1089  10.622   8.571   6.617  1.4247 -0.3547  0.5648
61033SOL     OW 1090  12.713   3.960  12.450  0.7397  0.0775 -0.0711
61033SOL    HW1 1091  12.755   3.889  12.400  1.6907  1.2995 -1.0968
61033SOL    HW2 1092  12.619   3.946  12.437  0.9444  0.0481 -1.8423
61034SOL     OW 1093   6.215   0.060  10.388  0.5213  0.1946  0.1170
61034SOL    HW1 1094   6.237   0.042  10.479 -1.1566  0.5549  0.6248
61034SOL    HW2 1095   6.265  -0.005  10.338  0.1630 -1.1410  1.4167
61035SOL     OW 1096   9.973   5.296  13.209  0.1799  0.2324 -0.6997
61035SOL    HW1 1097  10.035   5.288  13.137  1.2281  0.8968  0.0902
61035SOL    HW2 1098   9.895   5.249  13.179  0.6435  0.3497 -2.1786
61036SOL     OW 1099   4.683   2.897   0.166  0.2774  0.2993  0.0131
61036SOL    HW1 1100   4.697   2.893   0.072 -1.5610  0.4440 -0.3131
61036SOL    HW2 1101   4.715   2.983   0.192  1.5265 -0.0470 -0.3181
61037SOL     OW 1102   4.098   4.464  12.306 -0.5843 -0.0911 -0.8088
61037SOL    HW1 1103   4.172   4.523  12.294 -0.3972 -0.1933 -0.1558
61037SOL    HW2 1104   4.039   4.485  12.234  0.5566 -0.7444 -1.9866
61038SOL     OW 1105   1.723  13.199   2.478 -0.7940  0.0518  0.1490
61038SOL    HW1 1106   1.814  13.168   2.477  0.6270  3.5524  2.5744
61038SOL    HW2 1107   1.702  13.208   2.571 -2.7235  1.6735 -0.3777
61039SOL     OW 1108  11.382  12.683   9.183  0.2534  0.6051 -0.2785
61039SOL    HW1 1109  11.323  12.608   9.176  1.3678 -0.4310  0.9204
61039SOL    HW2 1110  11.411  12.683   9.275  2.4679  0.7808 -0.9200
61040SOL     OW 1111  12.119   3.107  11.075  0.3509 -0.8890  0.1002
61040SOL    HW1 1112  12.208   3.139  11.066 -0.1969  0.4904 -0.7163
61040SOL    HW2 1113  12.083   3.157  11.148 -0.7872  1.1353 -1.7317
61041SOL     OW 1114  13.559   4.019   3.921  0.2092 -0.2432  0.3112
61041SOL    HW1 1115  13.635   4.029   3.864 -1.4276 -0.5415 -2.0718
61041SOL    HW2 1116  13.532   3.928   3.908 -1.1709  0.1531  0.2573
61042SOL     OW 1117   1.547   2.752   2.529 -0.0552  0.3439  0.4634
61042SOL    HW1 1118   1.520   2.840   2.556  1.6854  1.6110 -1.6558
61042SOL    HW2 1119   1.476   2.720   2.474 -1.0874  0.0020  1.9273
61043SOL     OW 1120   9.909   6.171   5.609 -0.6096  0.4757  0.2197
61043SOL    HW1 1121   9.944   6.117   5.538 -1.6990  1.2358 -0.9536
61043SOL    HW2 1122   9.956   6.254   5.601 -0.1066  0.2714  0.9698
61044SOL     OW 1123   9.237   2.460   8.724  0.1659 -0.3116  0.0746
61044SOL    HW1 1124   9.247   2.470   8.818 -0.3755 -0.8604  0.1982
61044SOL    HW2 1125   9.143   2.471   8.709  0.2447 -0.2571 -0.3973
61045SOL     OW 1126   3.035   5.261   5.999  0.0392  0.2221  0.1714
61045SOL    HW1 1127   3.053   5.168   6.008  2.5707  0.5504 -0.6831
61045SOL    HW2 1128   3.021   5.292   6.089  1.0338 -0.6663  0.6491
61046SOL     OW 1129  13.985   5.497  13.315 -0.4874  0.0754 -0.5080
61046SOL    HW1 1130  13.992   5.576  13.368  0.6549  1.7168 -2.9200
61046SOL    HW2 1131  13.950   5.526  13.231 -1.8231 -2.3239 -0.8927
61047SOL     OW 1132   6.623   4.954  10.280  0.5533  0.8148 -0.0758
61047SOL    HW1 1133   6.565   4.886  10.314  1.7160  0.3711  1.1090
61047SOL    HW2 1134   6.632   4.934  10.187 -0.2129  0.1692 -0.0187
61048SOL     OW 1135   3.228   0.764  13.680 -0.7573 -0.2022 -0.3564
61048SOL    HW1 1136   3.171   0.836  13.706 -1.2317 -1.0369  1.0188
61048SOL    HW2 1137   3.199   0.741  13.592  0.0482  1.8741 -1.2366
61049SOL     OW 1138   8.340   3.718   4.869  1.1983  0.1571 -0.7781
61049SOL    HW1 1139   8.290   3.783   4.919 -0.9204 -0.8907 -1.4604
61049SOL    HW2 1140   8.410   3.692   4.929  1.1416  1.8713  0.1082
61050SOL     OW 1141   7.396   1.290   1.653  0.3596  0.3713  0.1255
61050SOL    HW1 1142   7.312   1.255   1.622  0.0097  1.0204  0.3212
61050SOL    HW2 1143   7.450   1.298   1.574  0.7554 -1.3990  0.1817
61051SOL     OW 1144  13.198   8.533   2.608 -0.5720 -0.7035  0.2284
61051SOL    HW1 1145  13.178   8.469   2.539  2.1942 -1.1181 -0.3209
61051SOL    HW2 1146  13.290   8.555   2.594 -0.8952  1.9537  1.6362
61052SOL     OW 1147   2.975   9.623   9.606 -0.0103 -0.4081 -0.0230
61052SOL    HW1 1148   2.908   9.681   9.643 -0.2240  0.4687 -1.6755
61052SOL    HW2 1149   3.005   9.571   9.680 -0.4470  1.2068  1.3609
61053SOL     OW 1150   1.857   2.606   8.588  0.0687 -0.2555  0.2992
61053SOL    HW1 1151   1.806   2.595   8.507  0.4150  0.1705  0.0215
61053SOL    HW2 1152   1.895   2.519   8.604  0.5943 -0.1579 -0.3947
61054SOL     OW 1153  10.813   4.359  12.981 -0.1543 -0.3994 -0.8176
61054SOL    HW1 1154  10.811   4.266  13.005  0.4679 -0.3002 -0.3513
61054SOL    HW2 1155  10.784   4.404  13.061  1.7639 -0.0711 -0.2602
61055SOL     OW 1156   4.646  10.657   3.986 -0.3332 -0.0785 -0.0499
61055SOL    HW1 1157   4.573  10.601   4.013 -2.4993  2.9143  0.7723
61055SOL    HW2 1158   4.620  10.691   3.901 -0.1462  1.3866  0.4638
61056SOL     OW 1159   1.526   8.222   6.862 -0.1012  0.1037  0.4063
61056SOL    HW1 1160   1.551   8.314   6.852 -1.3501  0.6523  1.8963
61056SOL    HW2 1161   1.587   8.174   6.806 -1.0966  2.0112 -2.5260
61057SOL     OW 1162   0.355   3.034   8.999  0.1451 -0.0132 -0.4966
61057SOL    HW1 1163   0.434   3.029   9.053  1.2057  0.0737 -1.9607
61057SOL    HW2 1164   0.324   2.944   8.994  0.8763 -0.2504 -0.9162
61058SOL     OW 1165   3.400  10.437   0.345  0.4738 -0.2543  0.7176
61058SOL    HW1 1166   3.441  10.451   0.431  2.7402 -1.4575 -0.0939
61058SOL    HW2 1167   3.399  10.342   0.335 -2.0459 -0.2733  0.3758
61059SOL     OW 1168  10.635  14.037   2.906  0.3587  0.4492  0.2582
61059SOL    HW1 1169  10.609  13.953   2.944  2.5879  0.5290  2.1247
61059SOL    HW2 1170  10.572  14.050   2.834 -0.2182 -2.6664  0.0307
61060SOL     OW 1171   2.466   3.646  12.872  0.1411 -0.5154 -0.3607
61060SOL    HW1 1172   2.475   3.563  12.919  1.2371 -0.4292 -0.3808
61060SOL    HW2 1173   2.428   3.622  12.787 -0.5462 -0.8494  0.0324
61061SOL     OW 1174  10.113  13.046   5.215 -0.7881  0.1805  0.0352
61061SOL    HW1 1175  10.081  12.963   5.251 -0.2854  0.3461  0.8831
61061SOL    HW2 1176  10.124  13.028   5.122 -0.6283 -0.7278  0.2130
61062SOL     OW 1177   8.508   7.409   1.606  0.1181  0.7181  0.1772
61062SOL    HW1 1178   8.536   7.324   1.572 -1.1091  0.8563 -1.3237
61062SOL    HW2 1179   8.437   7.389   1.666  1.3834  0.5606  1.6625
61063SOL     OW 1180   4.940  13.168  12.047 -0.2298  0.1989  0.4674
61063SOL    HW1 1181   4.991  13.094  12.015 -1.1037 -1.3900  2.5492
61063SOL    HW2 1182   4.858  13.165  11.996 -0.0321  0.1159  0.1500
61064SOL     OW 1183   7.096  12.515   9.803 -0.4960  0.9086 -0.2240
61064SOL    HW1 1184   7.166  12.512   9.737  0.5042 -1.3719  0.8487
61064SOL    HW2 1185   7.017  12.535   9.752  0.1455 -1.2080 -2.2805
61065SOL     OW 1186   0.597   9.366   1.179  0.8080  0.1999 -0.1349
61065SOL    HW1 1187   0.631   9.318   1.103  1.3619  2.3542 -1.3384
61065SOL    HW2 1188   0.670   9.366   1.241  0.9670 -0.0995 -0.3184
61066SOL     OW 1189   1.318   2.551   7.528 -0.7058 -0.5479 -0.2029
61066SOL    HW1 1190   1.360   2.595   7.602 -0.1574 -2.1875  0.4988
61066SOL    HW2 1191   1.285   2.623   7.473  0.7685  0.7344  0.5211
61067SOL     OW 1192   9.055   3.337   1.659  0.3358 -0.4772  0.0346
61067SOL    HW1 1193   9.046   3.250   1.621 -1.0808 -1.0620  1.5718
61067SOL    HW2 1194   8.974   3.383   1.635  0.5115 -0.0168  0.2926
61068SOL     OW 1195   3.984   2.647   7.341  0.2753  0.5022 -0.1762
61068SOL    HW1 1196   4.011   2.617   7.255  1.4668 -0.4489  0.5070
61068SOL    HW2 1197   4.062   2.690   7.378 -0.7714  2.6871 -0.3091
61069SOL     OW 1198   9.999   9.812   5.391  0.0289 -0.0073 -0.0904
61069SOL    HW1 1199   9.939   9.763   5.448 -1.2715  0.9167 -0.6147
61069SOL    HW2 1200   9.999   9.764   5.309  0.3083 -0.2100  0.0257
61070SOL     OW 1201  11.582   8.854  12.926 -0.5746 -0.3612  0.5360
61070SOL    HW1 1202  11.594   8.936  12.878 -0.2025 -0.2281  0.8511
61070SOL    HW2 1203  11.573   8.880  13.017 -0.7575 -0.6511  0.6025
61071SOL     OW 1204   8.794  11.692  10.856  0.1915  0.7519 -0.1167
61071SOL    HW1 1205   8.758  11.611  10.819 -0.2424  1.4399 -1.2509
61071SOL    HW2 1206   8.868  11.663  10.910 -1.2676 -0.5812  1.2689
61072SOL     OW 1207   6.726   8.717   0.740  0.0301 -0.4295  0.0866
61072SOL    HW1 1208   6.697   8.669   0.662 -0.2590  0.7322 -0.5465
61072SOL    HW2 1209   6.775   8.652   0.791  0.2847 -1.2020 -1.0897
61073SOL     OW 1210   8.367   3.586   9.655 -0.4862  0.6827  0.0999
61073SOL    HW1 1211   8.347   3.498   9.625  1.3481  1.0901 -2.8230
61073SOL    HW2 1212   8.422   3.574   9.732 -0.3214 -0.7447 -0.2120
61074SOL     OW 1213  13.954  13.235  12.555  1.0831 -0.1533 -0.0005
61074SOL    HW1 1214  13.980  13.262  12.467 -0.1712 -0.9069 -0.6308
61074SOL    HW2 1215  13.974  13.141  12.559  1.0266 -0.1500  0.4704
61075SOL     OW 1216   8.794  13.213   5.918 -0.7355  0.3241 -0.1359
61075SOL    HW1 1217   8.825  13.279   5.980 -0.8540 -0.7135  1.0785
61075SOL    HW2 1218   8.858  13.216   5.847 -0.3399  1.2477  0.2337
61076SOL     OW 1219   7.316  12.480   0.487  0.0803  0.0538  0.1313
61076SOL    HW1 1220   7.323  12.420   0.413  1.9953 -0.8500  0.9817
61076SOL    HW2 1221   7.303  12.424   0.563  0.6230  0.7724  0.7834
61077SOL     OW 1222   3.980   5.136   2.915  0.1182  0.2533  0.2086
61077SOL    HW1 1223   3.903   5.085   2.940  0.8008 -0.0163  1.9516
61077SOL    HW2 1224   3.946   5.212   2.869 -0.9536 -1.6443 -2.3670
61078SOL     OW 1225   5.423   4.062  12.097  0.2145 -0.1602  0.1277
61078SOL    HW1 1226   5.388   3.974  12.084  1.1265 -0.5924  0.5316
61078SOL    HW2 1227   5.518   4.051  12.095  0.3410  0.7904  0.3293
61079SOL     OW 1228   7.783   2.985   7.793  0.0825  0.0632  0.4067
61079SOL    HW1 1229   7.876   3.005   7.803 -0.0862  0.7791  0.6591
61079SOL    HW2 1230   7.776   2.891   7.811  0.8407 -0.1253 -0.2517
61080SOL     OW 1231   6.365   3.037   2.754 -0.1640 -0.5442 -0.1272
61080SOL    HW1 1232   6.330   3.109   2.806 -1.0346 -1.1273  0.1145
61080SOL    HW2 1233   6.327   3.049   2.667  1.0829  0.2787 -0.5851
61081SOL     OW 1234   1.489   4.009   0.843  0.0944 -0.6136  0.4145
61081SOL    HW1 1235   1.556   3.949   0.809  2.5204  1.1209  1.7664
61081SOL    HW2 1236   1.447   3.961   0.913 -1.2434 -2.2864 -1.4216
61082SOL     OW 1237  11.470  10.717   3.292 -0.4218 -0.1019  0.5099
61082SOL    HW1 1238  11.397  10.702   3.232 -0.2483 -0.1690  0.3139
61082SOL    HW2 1239  11.428  10.735   3.376 -0.6317 -2.0810  0.8634
61083SOL     OW 1240   0.236   3.849  13.231 -0.4060  0.6389 -0.0687
61083SOL    HW1 1241   0.191   3.870  13.150 -1.2710 -1.9951 -0.3543
61083SOL    HW2 1242   0.167   3.844  13.297 -0.3946 -1.7455 -0.1610
61084SOL     OW 1243   5.546   0.065   3.942 -0.0993  0.0905  0.1843
61084SOL    HW1 1244   5.466   0.069   3.994 -1.0540 -1.7935 -1.0484
61084SOL    HW2 1245   5.532   0.129   3.872 -0.2110  0.2769  0.3749
61085SOL     OW 1246  13.208  12.412   2.146  0.0209 -0.1807  0.1078
61085SOL    HW1 1247  13.125  12.430   2.102 -0.1811  0.1098  0.6015
61085SOL    HW2 1248  13.183  12.370   2.229  0.2539  1.5047  1.0921
61086SOL     OW 1249  13.621   0.207   4.880 -0.1674  0.7020 -0.0328
61086SOL    HW1 1250  13.536   0.210   4.835 -0.3500  1.5363  0.3415
61086SOL    HW2 1251  13.599   0.208   4.973  0.1629 -2.2238  0.1494
61087SOL     OW 1252  14.076   8.611  12.865  0.2764  0.3157 -0.2112
61087SOL    HW1 1253  14.092   8.695  12.822  1.3320 -0.1068 -0.6856
61087SOL    HW2 1254  14.040   8.556  12.795  0.7203  0.0230 -0.2075
61088SOL     OW 1255  11.906  12.592   7.268 -0.5623 -0.2186  0.0369
61088SOL    HW1 1256  11.813  12.603   7.249 -0.1849  0.2048 -1.7583
61088SOL    HW2 1257  11.947  12.583   7.182  0.8752 -1.9641  0.8376
61089SOL     OW 1258  11.884   2.167  13.082  0.5652  0.0820 -0.1611
61089SOL    HW1 1259  11.925   2.082  13.099 -1.8416 -1.1754 -0.1032
61089SOL    HW2 1260  11.887   2.177  12.987  0.6605 -0.1813 -0.1854
61090SOL     OW 1261   9.227   2.196   7.532  0.6425 -0.2318 -0.2642
61090SOL    HW1 1262   9.258   2.130   7.469 -2.5112 -0.7477 -1.4991
61090SOL    HW2 1263   9.144   2.160   7.564 -0.6361  2.6119 -0.1063
61091SOL     OW 1264   0.133  12.101   3.215 -0.6018 -0.3929  0.4012
61091SOL    HW1 1265   0.210  12.154   3.232  0.5273 -1.4482 -1.1090
61091SOL    HW2 1266   0.060  12.153   3.248  0.7395  0.5833  1.9769
61092SOL     OW 1267   7.337  12.961  12.977 -0.3561  1.1231 -0.4343
61092SOL    HW1 1268   7.334  13.039  13.031  2.0978 -0.2557  1.9257
61092SOL    HW2 1269   7.251  12.920  12.988  0.1146  0.7999  2.6795
61093SOL     OW 1270   3.883   7.019  11.711  0.0213  0.3610 -0.6135
61093SOL    HW1 1271   3.966   7.015  11.664  0.2876 -0.1361 -0.1157
61093SOL    HW2 1272   3.844   6.933  11.699 -0.3054  0.5080 -0.6328
61094SOL     OW 1273   5.899  10.342   8.691  0.2321  0.7342  0.3294
61094SOL    HW1 1274   5.855  10.269   8.734 -0.1518 -0.8788 -2.5790
61094SOL    HW2 1275   5.862  10.420   8.733 -1.8502 -0.6576  1.2590
61095SOL     OW 1276   8.860   9.705   1.338  0.5814 -0.4720 -0.1339
61095SOL    HW1 1277   8.944   9.725   1.380  2.4923 -3.2259 -2.3212
61095SOL    HW2 1278   8.843   9.781   1.283  0.5389  0.9869  1.7619
61096SOL     OW 1279   9.273   6.730  10.728 -0.3818  0.0705  0.2668
61096SOL    HW1 1280   9.239   6.771  10.808  0.7388 -0.7150  1.1753
61096SOL    HW2 1281   9.338   6.792  10.695  0.4811 -0.4191  1.0038
61097SOL     OW 1282   7.724   2.921   3.691  0.7167 -0.3463  0.2399
61097SOL    HW1 1283   7.762   2.839   3.661 -0.6406 -0.5192 -1.1682
61097SOL    HW2 1284   7.631   2.900   3.705 -0.3129  1.4806 -2.8192
61098SOL     OW 1285   2.069   7.178  13.445 -0.3545  0.1321  0.3590
61098SOL    HW1 1286   2.137   7.215  13.500  0.4198 -0.7184  0.0124
61098SOL    HW2 1287   1.989   7.226  13.468  0.2708  0.8428  1.0825
61099SOL     OW 1288   6.907   8.904   4.115 -0.3043 -0.6068  0.4366
61099SOL    HW1 1289   6.998   8.893   4.142 -0.7279  0.6747  2.6743
61099SOL    HW2 1290   6.869   8.817   4.121  0.4916 -0.9470  0.6385
61100SOL     OW 1291   3.091   1.977  11.428  0.3531 -0.2535 -0.4139
61100SOL    HW1 1292   3.089   1.955  11.521  0.6483  0.2921 -0.2762
61100SOL    HW2 1293   3.032   1.913  11.387  1.8561 -1.8553 -0.1680
61101SOL     OW 1294   4.068  12.842   6.578  0.4020 -0.7953 -0.1049
61101SOL    HW1 1295   4.054  12.806   6.490  1.9280 -0.2088 -0.6293
61101SOL    HW2 1296   3.981  12.871   6.606 -0.3305 -2.1246 -0.8881
61102SOL     OW 1297   9.949  12.230   9.907  0.7814 -0.1422 -0.1247
61102SOL    HW1 1298   9.953  12.188   9.993  0.9824 -0.6854 -0.3918
61102SOL    HW2 1299   9.905  12.313   9.922 -0.5781 -0.9105  0.2398
61103SOL     OW 1300   0.740   7.262  13.164 -0.1405  0.3784  0.5976
61103SOL    HW1 1301   0.826   7.229  13.140 -0.3268 -0.7269  1.3819
61103SOL    HW2 1302   0.728   7.233  13.255 -2.0587 -1.0257 -0.0489
61104SOL     OW 1303   7.455  13.595   2.025 -0.8133  0.1203 -0.1594
61104SOL    HW1 1304   7.386  13.545   1.981  0.0145 -0.5935 -0.6851
61104SOL    HW2 1305   7.488  13.654   1.958 -0.3782 -0.1027 -0.1463
61105SOL     OW 1306   6.905  14.095  13.185  0.0701 -0.2768  0.3157
61105SOL    HW1 1307   6.813  14.070  13.180 -0.2303  0.6289  1.1943
61105SOL    HW2 1308   6.951  14.024  13.140 -0.9818 -1.1431  0.5656
61106SOL     OW 1309   4.600   7.893  11.410 -0.9859 -0.0879  0.3231
61106SOL    HW1 1310   4.505   7.903  11.400 -1.1019 -0.9041  0.5560
61106SOL    HW2 1311   4.624   7.827  11.345 -0.6171 -0.0829  0.4517
61107SOL     OW 1312   4.943  11.157  12.467 -0.0398 -0.6823  0.1009
61107SOL    HW1 1313   5.031  11.151  12.428  0.1433  0.8850  0.1910
61107SOL    HW2 1314   4.895  11.215  12.408 -1.3146 -2.2165 -0.4186
61108SOL     OW 1315   6.034   2.668  13.993  0.4219  0.1818 -0.1446
61108SOL    HW1 1316   6.091   2.701  13.924  0.2258  1.9494  0.4929
61108SOL    HW2 1317   6.078   2.693  14.075 -1.2845  1.7547  0.3670
61109SOL     OW 1318   9.419   4.586   0.760 -0.2404  0.2017 -0.0495
61109SOL    HW1 1319   9.386   4.651   0.697 -2.4161  0.1918  0.9951
61109SOL    HW2 1320   9.462   4.639   0.827 -2.4388  0.7120  1.0580
61110SOL     OW 1321   6.451   8.563  12.388  0.1035  0.1668 -0.4774
61110SOL    HW1 1322   6.490   8.594  12.469  0.2191 -1.4126  0.1145
61110SOL    HW2 1323   6.410   8.480  12.412 -0.1144 -0.1811 -1.9712
61111SOL     OW 1324   0.528  11.942  12.473 -0.4753 -0.0743  0.1501
61111SOL    HW1 1325   0.572  11.930  12.557  0.5403  0.1342 -0.3297
61111SOL    HW2 1326   0.523  11.853  12.436 -0.8403 -0.1532  0.3821
61112SOL     OW 1327   8.881   5.166   5.984 -0.5072 -0.2899 -0.3878
61112SOL    HW1 1328   8.789   5.185   5.997 -0.0412  0.4859  2.3718
61112SOL    HW2 1329   8.883   5.077   5.950 -2.2668 -0.3158 -0.4736
61113SOL     OW 1330   5.477   0.318   9.235 -0.0367 -0.3243 -0.1246
61113SOL    HW1 1331   5.411   0.266   9.280 -0.9069  0.9058  0.0604
61113SOL    HW2 1332   5.433   0.351   9.157  0.8380 -0.7358 -0.8103
61114SOL     OW 1333  10.936   7.585   3.060 -0.0574 -0.0496  0.6807
61114SOL    HW1 1334  10.894   7.507   3.024  0.3768  0.1756 -0.3543
61114SOL    HW2 1335  10.864   7.640   3.089 -0.5120  0.3062 -1.0045
61115SOL     OW 1336  10.878  12.723   7.526 -0.1177 -0.6872  0.6753
61115SOL    HW1 1337  10.968  12.723   7.558  0.5777  0.2036 -1.1513
61115SOL    HW2 1338  10.872  12.647   7.469 -0.6047 -0.8942  0.9981
61116SOL     OW 1339   3.644   5.876   6.700  0.4492  1.0230 -0.1844
61116SOL    HW1 1340   3.576   5.941   6.722  0.9698  0.7179  2.8582
61116SOL    HW2 1341   3.613   5.795   6.741  0.8185 -0.1782 -2.1636
61117SOL     OW 1342   3.221  12.349   4.983  0.4207 -0.6772  0.6345
61117SOL    HW1 1343   3.214  12.322   4.891 -2.9471 -0.5709  0.7488
61117SOL    HW2 1344   3.300  12.403   4.986 -1.1671  2.3206 -3.0555
61118SOL     OW 1345  10.645  10.151   4.734  0.4197 -0.1131  0.3819
61118SOL    HW1 1346  10.725  10.200   4.756  0.4896 -0.8789  1.9640
61118SOL    HW2 1347  10.576  10.193   4.786  0.4426 -1.4861  1.5902
61119SOL     OW 1348   8.151   5.082   4.066 -0.0706  0.1639  0.6608
61119SOL    HW1 1349   8.222   5.144   4.049 -0.3600  0.3102 -0.0503
61119SOL    HW2 1350   8.077   5.115   4.015 -0.2548 -0.7252  0.3338
61120SOL     OW 1351   6.692   7.891  13.906  0.1725  0.2707 -0.3330
61120SOL    HW1 1352   6.779   7.918  13.877  0.7671 -2.0112 -0.9152
61120SOL    HW2 1353   6.698   7.890  14.002  0.1934  1.8198 -0.2948
61121SOL     OW 1354  10.967   8.729   1.730  0.0527 -0.0911  0.7191
61121SOL    HW1 1355  11.053   8.713   1.691 -0.0877 -0.8687  0.7180
61121SOL    HW2 1356  10.942   8.645   1.769  1.3066  1.1659  4.7581
61122SOL     OW 1357   1.204  11.570  10.795 -0.1971 -0.2059  0.0249
61122SOL    HW1 1358   1.170  11.627  10.726 -1.1377 -0.0368  0.6235
61122SOL    HW2 1359   1.212  11.485  10.753 -2.6735 -0.5961  0.1936
61123SOL     OW 1360   2.585   6.801  11.483  0.3293  0.4098  0.7066
61123SOL    HW1 1361   2.550   6.799  11.572  2.8260  0.0783  1.7845
61123SOL    HW2 1362   2.574   6.711  11.452 -2.0173  0.8897 -0.0079
61124SOL     OW 1363  13.072  11.287   5.049 -0.0325 -0.1856  0.5875
61124SOL    HW1 1364  12.978  11.308   5.052 -0.3744 -1.7215  2.0715
61124SOL    HW2 1365  13.103  11.307   5.138  0.9061 -0.3355  0.3005
61125SOL     OW 1366   3.624  12.296   7.846  0.3434  0.1400  0.0607
61125SOL    HW1 1367   3.708  12.252   7.833 -0.5786 -1.3959 -0.9401
61125SOL    HW2 1368   3.638  12.384   7.811  1.8077  0.2395  0.8139
61126SOL     OW 1369   5.617   2.206  12.434  0.3765 -0.3240 -0.6311
61126SOL    HW1 1370   5.569   2.234  12.512  1.1631  0.3098 -0.3646
61126SOL    HW2 1371   5.706   2.189  12.465 -0.0772 -3.4420 -0.7067
61127SOL     OW 1372  12.269  12.972  11.677  0.4680  0.1710 -0.6125
61127SOL    HW1 1373  12.354  12.961  11.718  0.5043  0.6352 -0.5592
61127SOL    HW2 1374  12.273  13.058  11.636  0.1254  0.0762 -0.8498
61128SOL     OW 1375   5.499   1.254   8.451  0.0201  0.2768 -0.1437
61128SOL    HW1 1376   5.540   1.168   8.462  1.7416  0.9431 -0.9668
61128SOL    HW2 1377   5.410   1.235   8.421  0.2029 -1.2167  0.1939
61129SOL     OW 1378  11.915   0.141   4.395 -0.2024 -0.1459 -0.2278
61129SOL    HW1 1379  11.990   0.175   4.443 -0.6638 -1.4762  1.5530
61129SOL    HW2 1380  11.853   0.213   4.392  0.1645  0.2129  0.5114
61130SOL     OW 1381   4.265   0.035   1.450 -0.3477 -0.1315 -0.3919
61130SOL    HW1 1382   4.192   0.076   1.403  0.7116 -0.1993 -2.1805
61130SOL    HW2 1383   4.301  -0.028   1.387  2.2346  1.0176 -0.1802
61131SOL     OW 1384   3.422   6.314  10.599  0.8479 -0.3032 -0.0742
61131SOL    HW1 1385   3.383   6.370  10.530  2.0716  0.2364 -0.3529
61131SOL    HW2 1386   3.462   6.376  10.660  1.0294 -0.8387  0.3538
61132SOL     OW 1387   5.609   2.121   4.116  0.1577  0.1509 -0.2974
61132SOL    HW1 1388   5.619   2.122   4.212 -0.5326  0.3860 -0.2265
61132SOL    HW2 1389   5.672   2.055   4.087  1.6559  1.2969  0.1716
61133SOL     OW 1390  11.933   6.625   2.409  0.4151  0.0850 -0.3533
61133SOL    HW1 1391  11.859   6.587   2.362 -0.8964  0.9318  0.9385
61133SOL    HW2 1392  12.001   6.558   2.404 -0.8544 -1.2574 -0.5251
61134SOL     OW 1393  12.865  11.992  12.104 -0.3922 -0.3886  0.2402
61134SOL    HW1 1394  12.825  12.079  12.102  0.8666  0.2146 -1.2807
61134SOL    HW2 1395  12.870  11.970  12.197 -0.6877  1.2045  0.6673
61135SOL     OW 1396   1.015   5.470   5.597 -0.0633  0.1909 -0.2311
61135SOL    HW1 1397   1.109   5.482   5.608 -0.2064  0.4376  0.7873
61135SOL    HW2 1398   0.978   5.557   5.609 -0.6299 -0.2827  1.9051
61136SOL     OW 1399   5.702  10.171  10.816 -0.0169 -0.2099  0.3418
61136SOL    HW1 1400   5.798  10.176  10.815  0.1124 -1.8035  1.0120
61136SOL    HW2 1401   5.683  10.096  10.873 -1.6838  0.3830  0.6191
61137SOL     OW 1402   1.055   0.151  13.352  0.7124 -0.1740 -0.0822
61137SOL    HW1 1403   0.988   0.212  13.319  0.5806 -0.7251 -0.8572
61137SOL    HW2 1404   1.046   0.156  13.447  0.3984  0.6784 -0.1451
61138SOL     OW 1405   2.388   5.216   5.986  0.3888  0.2646 -0.3863
61138SOL    HW1 1406   2.391   5.175   5.900  0.0456  0.3076 -0.4225
61138SOL    HW2 1407   2.458   5.174   6.036  0.6731  0.3356 -0.7250
61139SOL     OW 1408   2.152  10.568   3.708  0.3798  0.1795 -0.0575
61139SOL    HW1 1409   2.204  10.489   3.688 -0.5404 -0.4773  0.0774
61139SOL    HW2 1410   2.088  10.572   3.637  0.8239  1.1963 -0.4250
61140SOL     OW 1411   0.481   9.927  13.841  0.3317  0.0752 -0.4687
61140SOL    HW1 1412   0.409   9.990  13.847  1.4649  1.7887 -2.9361
61140SOL    HW2 1413   0.439   9.841  13.850 -1.5081  1.0873  1.3290
61141SOL     OW 1414   6.796  10.734   5.376 -0.2813  0.0698 -0.3469
61141SOL    HW1 1415   6.880  10.691   5.389 -0.4112 -0.5058 -1.2998
61141SOL    HW2 1416   6.770  10.763   5.463  2.0632  2.4843 -0.3137
61142SOL     OW 1417  10.206   9.038   0.009  0.4898  0.1953 -1.1235
61142SOL    HW1 1418  10.210   9.091   0.089  1.1397  0.0667 -1.0591
61142SOL    HW2 1419  10.223   8.949   0.039  0.2227  0.0731 -1.3372
61143SOL     OW 1420   6.593   1.117   9.897  0.7700 -0.1789 -0.1674
61143SOL    HW1 1421   6.661   1.142   9.960  0.2793 -0.5073  0.5089
61143SOL    HW2 1422   6.528   1.071   9.950 -0.0189  0.2023 -0.7910
61144SOL     OW 1423   3.963   2.551   8.185 -1.0301  0.0686 -0.1380
61144SOL    HW1 1424   4.050   2.519   8.158 -0.8085  0.4800  0.0743
61144SOL    HW2 1425   3.971   2.564   8.280 -1.2199  0.4339 -0.1719
61145SOL     OW 1426  13.203   1.289   7.308  0.6998  0.5904 -0.3252
61145SOL    HW1 1427  13.151   1.226   7.357  0.9521  0.4498 -0.2338
61145SOL    HW2 1428  13.278   1.308   7.365  1.1385  0.2108 -0.7657
61146SOL     OW 1429   9.167  12.183   7.750  0.0165  0.6267 -0.2009
61146SOL    HW1 1430   9.175  12.257   7.810 -0.3957  0.8071 -0.3614
61146SOL    HW2 1431   9.256  12.152   7.737  0.6243  3.0069 -2.5188
61147SOL     OW 1432   9.204  12.986   3.898 -0.5691  0.1585 -0.2089
61147SOL    HW1 1433   9.221  13.045   3.825  1.1032  0.6869  0.5503
61147SOL    HW2 1434   9.284  12.989   3.951 -0.6978 -2.2247  0.2690
61148SOL     OW 1435   2.159  11.788   1.311 -0.3170 -0.6524 -0.8151
61148SOL    HW1 1436   2.147  11.762   1.220 -0.1927 -0.0989 -0.9997
61148SOL    HW2 1437   2.126  11.878   1.314  1.6294  0.1071 -0.8253
61149SOL     OW 1438  11.450   7.986  13.817 -0.1767  0.1650 -0.2215
61149SOL    HW1 1439  11.493   8.031  13.889  0.7963  0.0633 -0.7244
61149SOL    HW2 1440  11.384   7.931  13.859 -0.7847  1.3847  0.4565
61150SOL     OW 1441  12.427   9.906   1.719  0.2131 -0.4404 -0.4126
61150SOL    HW1 1442  12.383   9.847   1.781 -0.4495 -0.5692 -0.9930
61150SOL    HW2 1443  12.465   9.848   1.653 -2.7899 -0.1903 -2.5469
61151SOL     OW 1444   8.247  10.365   0.510  0.2216  0.2028 -0.1523
61151SOL    HW1 1445   8.269  10.342   0.601 -0.6706 -0.3916 -0.0695
61151SOL    HW2 1446   8.180  10.432   0.518  0.8894  0.9037 -0.3848
61152SOL     OW 1447   5.753  13.875   9.016 -0.4995 -0.0045 -0.4025
61152SOL    HW1 1448   5.797  13.839   8.939  0.6606  0.0225  0.2207
61152SOL    HW2 1449   5.807  13.845   9.090 -1.6566 -0.1364  0.4110
61153SOL     OW 1450   4.164  11.588   9.854 -0.1529  0.4017 -0.0381
61153SOL    HW1 1451   4.187  11.522   9.919 -0.0826  0.9355  0.4832
61153SOL    HW2 1452   4.248  11.615   9.817 -0.0641  1.0556  0.6020
61154SOL     OW 1453   4.149   3.604  11.801  0.0051 -0.1188  0.2224
61154SOL    HW1 1454   4.098   3.534  11.760 -0.2602 -0.1183  0.5452
61154SOL    HW2 1455   4.179   3.565  11.884  0.1146  0.0486  0.2617
61155SOL     OW 1456  12.993  11.642   5.895  0.5468 -0.1790 -0.0347
61155SOL    HW1 1457  12.992  11.732   5.928  1.2788 -0.4029  0.6315
61155SOL    HW2 1458  13.080  11.632   5.857  0.4581 -0.5977 -0.1275
61156SOL     OW 1459   7.336  13.850   0.735 -0.1775 -0.1883  0.1191
61156SOL    HW1 1460   7.388  13.800   0.798 -1.1495  1.7371  2.5712
61156SOL    HW2 1461   7.274  13.786   0.699  2.1347 -1.9655 -1.0814
61157SOL     OW 1462   8.696   3.083   0.420  0.6157  0.0864  0.3093
61157SOL    HW1 1463   8.617   3.035   0.444  0.0563  2.3153  3.6379
61157SOL    HW2 1464   8.764   3.016   0.416 -1.0454 -1.6385 -0.8411
61158SOL     OW 1465   8.961   5.077   3.841  0.3991  0.3787  0.3825
61158SOL    HW1 1466   8.933   5.081   3.750 -1.6239 -0.6558  0.8995
61158SOL    HW2 1467   8.950   4.986   3.866  5.1566 -0.4171  0.5024
61159SOL     OW 1468   0.122   7.338   2.211 -0.5447  0.1580  0.1946
61159SOL    HW1 1469   0.173   7.379   2.281 -0.8102  1.4252 -0.3334
61159SOL    HW2 1470   0.058   7.284   2.257 -0.6826  0.9338  0.9447
61160SOL     OW 1471  11.016   6.413   7.864  0.1955 -0.4554  0.1426
61160SOL    HW1 1472  10.935   6.386   7.907  0.3206 -0.8663  0.1190
61160SOL    HW2 1473  11.042   6.493   7.910 -0.2158 -0.3282  0.1599
61161SOL     OW 1474  12.077  13.674   0.459  0.1641  0.3702  0.2833
61161SOL    HW1 1475  12.056  13.582   0.475 -0.2953  0.0503 -1.8725
61161SOL    HW2 1476  12.172  13.680   0.468  0.6692 -1.1229 -2.7924
61162SOL     OW 1477   6.204  12.486  11.983  0.0219 -0.0995 -0.2255
61162SOL    HW1 1478   6.138  12.527  12.040  1.0583 -0.8215  1.5540
61162SOL    HW2 1479   6.282  12.540  11.993  0.0059  0.2290 -1.6278
61163SOL     OW 1480  12.252   5.569   2.318 -0.4526  0.3834 -0.3712
61163SOL    HW1 1481  12.295   5.509   2.378 -0.5510  0.1536 -0.5310
61163SOL    HW2 1482  12.324   5.612   2.271 -0.3651  0.8463  0.1841
61164SOL     OW 1483   9.829   4.394   2.977  0.0691 -0.1585  0.0723
61164SOL    HW1 1484   9.889   4.354   2.914  0.4549  0.0022  0.3336
61164SOL    HW2 1485   9.742   4.367   2.948  0.3081 -1.0073  0.1062
61165SOL     OW 1486   1.040  10.857  12.534 -0.6192  0.6253  0.2880
61165SOL    HW1 1487   1.020  10.780  12.587  1.5122  1.5348  2.5772
61165SOL    HW2 1488   1.082  10.822  12.456  0.3989 -0.5794  1.3306
61166SOL     OW 1489   2.223   9.519   2.098 -0.0523  0.3090 -0.0393
61166SOL    HW1 1490   2.264   9.515   2.011 -2.9819 -0.3819 -1.5268
61166SOL    HW2 1491   2.191   9.609   2.105 -1.9122 -0.2463 -0.8096
61167SOL     OW 1492  14.075   1.447   3.042  0.4475  0.7076  0.2025
61167SOL    HW1 1493  14.147   1.386   3.026 -0.8408 -0.4706 -1.5498
61167SOL    HW2 1494  14.071   1.501   2.962 -0.0138  1.4041  0.6840
61168SOL     OW 1495  11.478   9.017   2.776 -0.1512  0.2762  0.3750
61168SOL    HW1 1496  11.396   9.067   2.777 -0.9402 -0.9596  0.1948
61168SOL    HW2 1497  11.458   8.940   2.722  0.7972 -0.5783  1.1932
61169SOL     OW 1498   6.407   5.966  11.923 -0.0056  0.1583 -0.4508
61169SOL    HW1 1499   6.498   5.939  11.938 -0.1603 -0.4481 -0.5866
61169SOL    HW2 1500   6.414   6.049  11.875  0.4829  1.2328  1.3826
61170SOL     OW 1501   6.207   3.022   0.453 -0.0352  0.4451  0.3178
61170SOL    HW1 1502   6.181   2.930   0.460  0.0764  0.3466 -0.5343
61170SOL    HW2 1503   6.145   3.068   0.510  1.3597 -0.3956  2.6489
61171SOL     OW 1504   0.889   1.903  10.897  0.4434  0.4583  0.0248
61171SOL    HW1 1505   0.866   1.991  10.924  2.4352  1.0160  0.0731
61171SOL    HW2 1506   0.824   1.881  10.830 -1.1224  1.2495  1.2193
61172SOL     OW 1507  11.488  13.243   5.694  0.2059  0.1415 -0.8289
61172SOL    HW1 1508  11.462  13.225   5.604  0.7733 -0.7568 -0.8257
61172SOL    HW2 1509  11.549  13.173   5.716 -1.0805 -0.5344  0.7730
61173SOL     OW 1510  12.490   1.602   1.361 -0.2384  0.4303  0.1076
61173SOL    HW1 1511  12.517   1.518   1.397 -0.9387 -0.0718 -0.5230
61173SOL    HW2 1512  12.563   1.661   1.381  0.7218 -0.5648 -0.3671
61174SOL     OW 1513   0.440   1.992  12.830 -0.0373  0.1163  0.8744
61174SOL    HW1 1514   0.498   2.042  12.888 -2.0831  0.7440  2.4906
61174SOL    HW2 1515   0.415   1.915  12.881  1.3431 -1.5761 -0.7941
61175SOL     OW 1516   2.151   5.116  13.572 -0.4495  0.3262 -0.9229
61175SOL    HW1 1517   2.205   5.104  13.495 -0.8009 -0.0815 -1.1082
61175SOL    HW2 1518   2.176   5.045  13.631 -1.3039 -0.3161 -1.3141
61176SOL     OW 1519  10.715   6.457  12.305  0.2912  0.1068  1.0453
61176SOL    HW1 1520  10.674   6.435  12.389 -2.1790  2.4061  0.6095
61176SOL    HW2 1521  10.722   6.374  12.258 -2.0476 -0.7197  2.0222
61177SOL     OW 1522  10.433   9.343  13.017  0.1358  0.1179  0.5177
61177SOL    HW1 1523  10.455   9.377  13.104  0.5580 -1.3158  0.9971
61177SOL    HW2 1524  10.488   9.266  13.007 -0.2967 -0.0382 -0.8123
61178SOL     OW 1525   0.678   8.284   5.124 -0.7237 -0.4935  0.0242
61178SOL    HW1 1526   0.648   8.321   5.041 -0.2114 -0.6004 -0.2108
61178SOL    HW2 1527   0.662   8.353   5.189 -3.5532 -1.3107  0.3342
61179SOL     OW 1528   0.861   0.634  11.102 -0.2264 -0.2015 -0.2504
61179SOL    HW1 1529   0.946   0.600  11.072 -0.4245 -2.6423  1.6004
61179SOL    HW2 1530   0.883   0.706  11.161  0.4679  0.0953 -0.8552
61180SOL     OW 1531   5.839   0.079   2.368  0.5030 -0.1948 -0.2454
61180SOL    HW1 1532   5.911   0.142   2.363  1.2873 -1.1353 -1.2965
61180SOL    HW2 1533   5.831   0.043   2.280 -1.3407 -0.0557 -0.1761
61181SOL     OW 1534   2.174   5.290  11.900  0.4515 -0.0573 -0.0368
61181SOL    HW1 1535   2.186   5.203  11.862 -1.2210 -0.0690 -0.6078
61181SOL    HW2 1536   2.142   5.274  11.989  0.0185 -0.0358 -0.1857
61182SOL     OW 1537   2.509   8.403  13.247 -0.0886  0.7294 -0.1638
61182SOL    HW1 1538   2.484   8.310  13.249 -0.8285  0.7715 -3.1522
61182SOL    HW2 1539   2.603   8.403  13.230 -0.0986  0.5358 -0.2192
61183SOL     OW 1540   4.810  11.768  11.081  0.0490  0.2218  0.1238
61183SOL    HW1 1541   4.760  11.848  11.102  1.5185  1.1077  0.4117
61183SOL    HW2 1542   4.784  11.706  11.149 -2.0983 -0.0292 -0.8554
61184SOL     OW 1543   4.529   7.533   7.258 -0.3360  0.3112  0.1431
61184SOL    HW1 1544   4.468   7.532   7.184 -0.1357  1.3214 -0.0477
61184SOL    HW2 1545   4.475   7.514   7.335 -0.2678 -2.5664 -0.4192
61185SOL     OW 1546   4.471  13.332   2.900  0.2042 -0.0680  0.4845
61185SOL    HW1 1547   4.458  13.404   2.839  1.0412  1.3680  1.9107
61185SOL    HW2 1548   4.429  13.256   2.858 -0.0586  1.0614 -1.3912
61186SOL     OW 1549   9.773   5.236   1.059  0.0787  0.5208  0.9301
61186SOL    HW1 1550   9.750   5.192   1.141  2.1212  3.0958  3.1082
61186SOL    HW2 1551   9.695   5.231   1.005 -0.6231 -3.3036  2.0288
61187SOL     OW 1552   2.839   5.201   2.085 -0.4922  0.0954  0.0198
61187SOL    HW1 1553   2.750   5.210   2.049 -0.8579 -1.1587  0.5800
61187SOL    HW2 1554   2.829   5.218   2.178 -0.1239  0.0281  0.0730
61188SOL     OW 1555   7.818   0.650   9.323 -0.0110 -0.0540  0.0589
61188SOL    HW1 1556   7.863   0.681   9.245  1.5921 -1.9358  0.1789
61188SOL    HW2 1557   7.881   0.660   9.393 -0.3297 -1.2193  0.5354
61189SOL     OW 1558   5.663  10.865   3.860  0.6168 -0.1557 -0.3779
61189SOL    HW1 1559   5.673  10.956   3.889 -3.6039  0.6124 -0.7551
61189SOL    HW2 1560   5.620  10.821   3.934  1.8285 -1.7036 -0.5316
61190SOL     OW 1561   6.497   4.602   1.005 -0.1265 -0.0922 -0.5066
61190SOL    HW1 1562   6.454   4.599   0.920 -1.6835 -1.9378  0.2730
61190SOL    HW2 1563   6.430   4.635   1.065  0.0333 -1.4170  0.4412
61191SOL     OW 1564  11.885   0.888   2.063 -0.1729  0.1544 -0.2145
61191SOL    HW1 1565  11.841   0.822   2.009 -0.0930 -0.1366  0.0698
61191SOL    HW2 1566  11.951   0.839   2.111 -0.4588  0.3495  0.3925
61192SOL     OW 1567  11.683  12.100  12.517  0.5023  0.2252 -0.2246
61192SOL    HW1 1568  11.703  12.062  12.603  0.6843 -0.9449 -0.7678
61192SOL    HW2 1569  11.599  12.143  12.529  1.6286  2.2342  1.1841
61193SOL     OW 1570  13.588  11.670  11.832  0.0122  0.5924  0.2998
61193SOL    HW1 1571  13.568  11.595  11.887  0.7492  0.9632  1.0978
61193SOL    HW2 1572  13.604  11.633  11.745 -1.2482  0.0059  0.2977
61194SOL     OW 1573   7.491  12.203  12.606 -0.1926  0.0242  0.0784
61194SOL    HW1 1574   7.405  12.232  12.575 -0.4488 -1.4421 -0.6641
61194SOL    HW2 1575   7.535  12.284  12.631 -0.8145  1.1068 -2.0270
61195SOL     OW 1576   1.327   3.795   5.346  0.8476 -0.1756  0.2558
61195SOL    HW1 1577   1.419   3.781   5.323  0.5607 -2.0965  0.1351
61195SOL    HW2 1578   1.278   3.745   5.281 -0.1886 -1.1238  1.7040
61196SOL     OW 1579   9.551  10.863   0.268 -0.0040 -0.1146 -0.0505
61196SOL    HW1 1580   9.612  10.816   0.325  1.3681  0.1388 -1.2507
61196SOL    HW2 1581   9.605  10.895   0.196 -1.8876 -1.6777 -2.2963
61197SOL     OW 1582  10.496  11.114   1.712 -0.0725 -0.4324 -0.2530
61197SOL    HW1 1583  10.468  11.038   1.661  0.6924  1.0396 -3.0342
61197SOL    HW2 1584  10.416  11.150   1.749 -0.6785 -1.4090 -0.5982
61198SOL     OW 1585   6.346  13.176   9.654 -0.0738  0.6834  0.7191
61198SOL    HW1 1586   6.312  13.249   9.707  0.1595  0.7688  0.7504
61198SOL    HW2 1587   6.314  13.098   9.699 -0.6578  0.7732  0.4648
61199SOL     OW 1588  10.735   3.131  12.956  0.0567  0.7280  0.5448
61199SOL    HW1 1589  10.705   3.219  12.936 -3.3757 -0.3976  0.0880
61199SOL    HW2 1590  10.765   3.096  12.871  1.6539  1.4708  0.7736
61200SOL     OW 1591   5.124   4.445   2.276 -0.1925 -0.1813  0.0573
61200SOL    HW1 1592   5.158   4.533   2.294  0.5798 -0.1144 -1.5321
61200SOL    HW2 1593   5.033   4.449   2.303 -0.1400  1.0734  0.1457
61201SOL     OW 1594  13.387   4.507   4.727  0.3336  0.2544  0.0699
61201SOL    HW1 1595  13.482   4.513   4.717  0.3842 -0.3153  0.1976
61201SOL    HW2 1596  13.356   4.475   4.642  0.0667  2.1116 -0.5906
61202SOL     OW 1597   2.707   8.886   6.172 -0.4829  0.3276  0.2542
61202SOL    HW1 1598   2.681   8.798   6.145 -2.0709  1.2754 -1.4747
61202SOL    HW2 1599   2.625   8.936   6.176  0.4374  1.8756  0.6743
61203SOL     OW 1600   0.588  12.265   2.646  0.1804 -0.0463  0.4081
61203SOL    HW1 1601   0.647  12.238   2.575 -0.2938 -2.5613  0.8983
61203SOL    HW2 1602   0.646  12.299   2.714  0.8287  0.0117 -0.1647
61204SOL     OW 1603   4.325   3.204   3.734  0.5281 -0.1115  0.0269
61204SOL    HW1 1604   4.373   3.268   3.786 -0.6658 -0.1560  1.2443
61204SOL    HW2 1605   4.244   3.189   3.783 -0.8317  0.0828 -2.0230
61205SOL     OW 1606   8.094   9.035   1.833 -0.6375 -0.2898 -0.2913
61205SOL    HW1 1607   8.118   9.121   1.799 -0.5015 -0.6625 -1.1687
61205SOL    HW2 1608   8.017   9.051   1.888  0.6144  0.6986  1.2799
61206SOL     OW 1609   9.114  14.020   7.516 -0.5242 -0.1048  0.1764
61206SOL    HW1 1610   9.053  14.042   7.587 -0.9657 -2.1374  0.4986
61206SOL    HW2 1611   9.105  13.926   7.505  1.4724 -0.2462 -0.8180
61207SOL     OW 1612   6.930   5.850  10.961  0.2563  0.1523  0.3629
61207SOL    HW1 1613   6.904   5.786  11.027 -0.3101 -0.7886 -0.7284
61207SOL    HW2 1614   6.855   5.910  10.954  0.7220  0.8493  1.2712
61208SOL     OW 1615  11.358   2.180  13.217 -0.3627 -0.2376 -0.0518
61208SOL    HW1 1616  11.303   2.137  13.283 -0.9558  0.3739 -0.1325
61208SOL    HW2 1617  11.438   2.128  13.215 -0.8671 -1.0403  0.2036
61209SOL     OW 1618   8.267   3.164   7.730 -0.2954 -0.0319  0.1441
61209SOL    HW1 1619   8.260   3.259   7.722 -2.4905  0.0082  1.5692
61209SOL    HW2 1620   8.299   3.135   7.645  0.8965  1.9849 -0.1745
61210SOL     OW 1621   4.003  11.297   5.387  0.0694 -0.1960 -0.2685
61210SOL    HW1 1622   3.998  11.355   5.312  3.5720 -0.0743 -0.5852
61210SOL    HW2 1623   3.975  11.350   5.461 -2.0769  0.0988 -1.2222
61211SOL     OW 1624  12.340   1.174  10.120  0.1080 -0.4121 -0.1465
61211SOL    HW1 1625  12.299   1.256  10.150  2.4477  0.0676  2.1067
61211SOL    HW2 1626  12.395   1.147  10.194  2.3084 -2.0184 -2.2476
61212SOL     OW 1627   8.610  11.544   4.663 -0.3915  0.1323  0.0909
61212SOL    HW1 1628   8.667  11.620   4.680  0.4091 -0.1419 -1.1880
61212SOL    HW2 1629   8.532  11.561   4.715  0.2306  1.2858  0.7091
61213SOL     OW 1630   8.665  13.901   9.480  0.0372 -0.3953  0.2870
61213SOL    HW1 1631   8.619  13.901   9.396  0.0422  2.8178  0.1722
61213SOL    HW2 1632   8.613  13.957   9.537  1.1421 -0.8128  1.7868
61214SOL     OW 1633   4.663   5.258  10.140 -0.0015 -0.3277 -0.1144
61214SOL    HW1 1634   4.656   5.337  10.086  0.9108 -0.2810 -0.1782
61214SOL    HW2 1635   4.749   5.222  10.119  0.5657 -0.0792  1.6055
61215SOL     OW 1636   8.407   9.457   9.647  0.2065 -0.2637 -0.1414
61215SOL    HW1 1637   8.461   9.378   9.636  1.5386  0.5746  0.1587
61215SOL    HW2 1638   8.323   9.424   9.679  0.7089 -1.5619 -0.0951
61216SOL     OW 1639   9.564   3.914  10.147  0.3449 -0.0670  0.1202
61216SOL    HW1 1640   9.648   3.880  10.178  0.0131 -0.1956  0.8925
61216SOL    HW2 1641   9.525   3.842  10.098  0.7074  0.0177 -0.3079
61217SOL     OW 1642  10.056   3.017  11.324 -0.2370 -0.0280  1.1291
61217SOL    HW1 1643  10.057   2.923  11.307 -2.2344  0.0235  0.4872
61217SOL    HW2 1644  10.034   3.056  11.239 -0.3903  0.9623  1.6131
61218SOL     OW 1645   5.401   6.625   1.083 -0.9567  0.1324 -0.9427
61218SOL    HW1 1646   5.383   6.693   1.148 -3.1606 -0.6854 -0.6108
61218SOL    HW2 1647   5.429   6.549   1.135  1.0474  0.5721 -1.2805
61219SOL     OW 1648  13.390   5.637  13.056  0.2230  0.1082  0.4697
61219SOL    HW1 1649  13.469   5.589  13.081  1.3569  0.0954 -2.7437
61219SOL    HW2 1650  13.385   5.709  13.119  0.6863 -1.9230  2.9796
61220SOL     OW 1651   3.561  11.899   3.119 -0.3408  0.0282 -0.4556
61220SOL    HW1 1652   3.541  11.863   3.032 -0.7629 -2.4738  0.5954
61220SOL    HW2 1653   3.653  11.875   3.134 -0.2727  0.4482 -0.1965
61221SOL     OW 1654   8.941   4.908  13.466 -0.1189  0.3431 -0.1728
61221SOL    HW1 1655   9.012   4.842  13.462  3.4124  3.8207 -1.5623
61221SOL    HW2 1656   8.914   4.919  13.375  0.0736  1.4898 -0.1002
61222SOL     OW 1657  11.329  12.986   5.612 -0.4269 -0.3706 -0.1661
61222SOL    HW1 1658  11.316  13.008   5.704 -1.6321  0.3646 -0.4907
61222SOL    HW2 1659  11.392  12.914   5.613 -0.3043 -0.2704  1.2185
61223SOL     OW 1660   2.104   5.988  12.245 -1.0867  0.0252 -0.0586
61223SOL    HW1 1661   2.087   5.916  12.305 -2.2029  1.4983  1.4898
61223SOL    HW2 1662   2.146   6.055  12.299  1.0045  0.1564 -1.7139
61224SOL     OW 1663   1.329  12.017   7.389 -0.1115 -0.1927  0.2072
61224SOL    HW1 1664   1.321  11.924   7.410 -0.9041  0.2681  2.2625
61224SOL    HW2 1665   1.245  12.055   7.417  0.1510  1.1285 -0.6946
61225SOL     OW 1666   5.156   6.175  11.544  0.1396  0.3002  0.2774
61225SOL    HW1 1667   5.143   6.120  11.467 -3.5082  0.2212  0.7780
61225SOL    HW2 1668   5.201   6.253  11.511 -0.0258 -0.3639 -1.5983
61226SOL     OW 1669   0.721   2.805   9.632  0.2600 -0.2924 -0.6343
61226SOL    HW1 1670   0.711   2.769   9.544 -1.6663  1.6009 -1.2753
61226SOL    HW2 1671   0.660   2.755   9.686  0.4497 -0.5401 -0.6437
61227SOL     OW 1672   7.610  13.575   4.486  0.3196  0.2464  0.4546
61227SOL    HW1 1673   7.525  13.546   4.452  0.1149 -0.1588  1.2631
61227SOL    HW2 1674   7.615  13.535   4.574  1.3677  0.2214  0.3991
61228SOL     OW 1675  13.878   9.207   1.619 -0.3716  0.3085  0.2447
61228SOL    HW1 1676  13.859   9.297   1.644 -1.6656  0.6142 -1.5869
61228SOL    HW2 1677  13.843   9.154   1.690  0.9299  1.2220  1.6290
61229SOL     OW 1678  11.264   9.071   4.788 -0.6215 -0.2308  0.1226
61229SOL    HW1 1679  11.173   9.080   4.817 -1.1483  0.2318 -1.5222
61229SOL    HW2 1680  11.273   8.979   4.765 -0.4293 -0.4362  0.9732
61230SOL     OW 1681   0.797   8.154   8.068  0.1504 -0.0251  0.4854
61230SOL    HW1 1682   0.773   8.135   7.977  3.2729 -1.0981 -0.2245
61230SOL    HW2 1683   0.817   8.248   8.068  0.6580 -0.1217 -0.1079
61231SOL     OW 1684   1.938   5.272   1.044  0.5130 -0.3572  0.3024
61231SOL    HW1 1685   1.890   5.266   0.962  0.0823 -0.1129  0.5366
61231SOL    HW2 1686   1.984   5.356   1.040  0.0942 -0.1134  0.5225
61232SOL     OW 1687   9.895  10.961   1.551 -0.0692  0.2854  0.1966
61232SOL    HW1 1688   9.989  10.968   1.535  0.3864 -0.7767  2.0766
61232SOL    HW2 1689   9.871  10.874   1.517  0.3007 -0.7185  2.3297
61233SOL     OW 1690  12.442   2.655   3.015  0.1237 -0.1780  0.0963
61233SOL    HW1 1691  12.531   2.621   3.003 -0.2290 -1.3801  0.6743
61233SOL    HW2 1692  12.449   2.722   3.082  0.8027  0.7142 -0.8504
61234SOL     OW 1693   9.818   4.996   5.387 -0.2897 -0.0577 -0.4190
61234SOL    HW1 1694   9.878   5.064   5.358  1.6757 -1.4620  0.2142
61234SOL    HW2 1695   9.741   5.044   5.418  1.1305  1.8909  0.2793
61235SOL     OW 1696  11.605   7.761   2.770 -0.8193  0.1340 -0.0734
61235SOL    HW1 1697  11.577   7.841   2.814 -1.0806  1.0756 -1.8628
61235SOL    HW2 1698  11.689   7.784   2.730 -0.6130 -0.6817 -0.1258
61236SOL     OW 1699  13.671   2.404  12.206  0.0459  0.5334 -0.6434
61236SOL    HW1 1700  13.762   2.379  12.216  0.0262 -0.1814 -2.0348
61236SOL    HW2 1701  13.666   2.493  12.241  1.3423  0.7151 -0.8826
61237SOL     OW 1702   4.305   8.871   9.470  0.0284  0.5403 -0.3630
61237SOL    HW1 1703   4.333   8.848   9.381  2.8530 -1.7088  0.9458
61237SOL    HW2 1704   4.335   8.961   9.483 -0.2213  0.8136 -1.5924
61238SOL     OW 1705   8.430   4.841   3.305  0.0014  0.2444  0.1803
61238SOL    HW1 1706   8.476   4.803   3.230 -0.5803  0.4544 -0.2895
61238SOL    HW2 1707   8.495   4.839   3.376  0.9136  1.0482 -0.6081
61239SOL     OW 1708   3.021   7.811  11.149 -0.6785 -0.3589  0.4153
61239SOL    HW1 1709   2.938   7.772  11.124  0.3085 -1.5103 -1.1916
61239SOL    HW2 1710   3.012   7.827  11.243 -3.2612  0.9972  0.0446
61240SOL     OW 1711   9.522   0.216   4.699 -0.2505  0.0853  0.0124
61240SOL    HW1 1712   9.565   0.233   4.783 -2.8520 -2.2527  2.0005
61240SOL    HW2 1713   9.593   0.189   4.640  1.6244  1.6466  1.4501
61241SOL     OW 1714   2.751   1.966   9.394 -0.2146  0.1630 -0.4785
61241SOL    HW1 1715   2.668   1.975   9.348 -0.0277 -0.3511 -0.9283
61241SOL    HW2 1716   2.780   1.877   9.375  1.1060  0.7610 -1.4865
61242SOL     OW 1717   1.881   7.757   0.905 -0.1418 -0.4387  0.2161
61242SOL    HW1 1718   1.944   7.805   0.959 -0.2696  0.1639 -0.1588
61242SOL    HW2 1719   1.805   7.746   0.962 -0.1353 -0.1329  0.2893
61243SOL     OW 1720  12.290   0.496   6.576 -0.0450 -0.0611  0.4799
61243SOL    HW1 1721  12.212   0.450   6.544  0.0274 -0.1029  0.3619
61243SOL    HW2 1722  12.278   0.586   6.548  1.9065 -0.7748 -3.3513
61244SOL     OW 1723   7.664  12.648   7.202 -0.3286 -0.2287  0.3610
61244SOL    HW1 1724   7.625  12.683   7.282 -0.6882 -2.6626  1.3362
61244SOL    HW2 1725   7.596  12.659   7.136  0.3904  2.8918 -0.0238
61245SOL     OW 1726   4.346  11.132   3.093 -0.0157 -0.0659  0.6219
61245SOL    HW1 1727   4.373  11.123   3.184 -0.9195 -1.6432  0.7580
61245SOL    HW2 1728   4.379  11.053   3.050 -0.1025  0.3828 -0.2969
61246SOL     OW 1729   9.864   8.007   4.166 -0.0232 -0.3526  0.2759
61246SOL    HW1 1730   9.824   8.044   4.088 -0.8541 -1.3580  0.2048
61246SOL    HW2 1731   9.956   8.030   4.159 -0.1447 -0.1609 -0.8390
61247SOL     OW 1732   0.637   5.100  12.852  0.3498  0.0370  0.3636
61247SOL    HW1 1733   0.730   5.093  12.874 -0.1671 -0.8009  2.6328
61247SOL    HW2 1734   0.627   5.046  12.774  1.5596 -1.0662  0.9218
61248SOL     OW 1735   7.290   4.054   8.034  0.1274  0.3242  0.3088
61248SOL    HW1 1736   7.306   4.118   7.965  3.6844  2.2917  2.6280
61248SOL    HW2 1737   7.214   4.088   8.082  0.4956  1.5322  0.0708
61249SOL     OW 1738   4.084   8.218   9.466 -0.0431  0.4497 -0.1827
61249SOL    HW1 1739   4.002   8.250   9.428 -0.1334  4.0354  2.4334
61249SOL    HW2 1740   4.057   8.145   9.522 -1.6740  1.8390  0.9794
61250SOL     OW 1741   4.860   8.734   0.549  0.2244  0.4313  0.4684
61250SOL    HW1 1742   4.817   8.721   0.464  1.0702  0.2777  0.0477
61250SOL    HW2 1743   4.878   8.828   0.552  0.8518  0.3296  0.1379
61251SOL     OW 1744   6.254   9.923   7.266 -0.0313  0.1150 -0.2500
61251SOL    HW1 1745   6.244  10.015   7.243  0.9599  0.1597 -0.5460
61251SOL    HW2 1746   6.346   9.914   7.290  0.0933 -0.9866 -1.0799
61252SOL     OW 1747   0.759   6.891  12.894 -0.3236 -0.3729  0.0431
61252SOL    HW1 1748   0.719   6.936  12.969 -2.7090 -0.5305 -1.0513
61252SOL    HW2 1749   0.792   6.809  12.930  0.1231  0.3094  1.2303
61253SOL     OW 1750  13.478   6.729   4.485  0.4946  0.6607  0.2535
61253SOL    HW1 1751  13.489   6.758   4.394  0.0197 -0.8238 -0.3082
61253SOL    HW2 1752  13.397   6.678   4.484  0.9886 -0.1711  1.3141
61254SOL     OW 1753  13.762   3.415   9.801  0.5699 -0.4880 -0.0719
61254SOL    HW1 1754  13.778   3.502   9.837 -0.0903 -1.0462  1.7187
61254SOL    HW2 1755  13.707   3.430   9.724 -0.0588  0.6658  0.5755
61255SOL     OW 1756   4.894   0.806  10.069  0.0085 -0.4090 -0.2400
61255SOL    HW1 1757   4.970   0.838  10.021  0.3110 -0.7253  0.0248
61255SOL    HW2 1758   4.831   0.782  10.001  0.2065 -0.3026 -0.4626
61256SOL     OW 1759   9.839   5.930   0.130 -0.2831  0.1891  0.2681
61256SOL    HW1 1760   9.749   5.920   0.159 -0.8348  2.0876 -0.6831
61256SOL    HW2 1761   9.853   6.024   0.122  1.0668 -0.0945 -1.7094
61257SOL     OW 1762  13.395   0.205  12.377 -0.1755  0.0156 -0.1434
61257SOL    HW1 1763  13.432   0.240  12.459  1.3758 -0.1621 -0.7497
61257SOL    HW2 1764  13.326   0.268  12.355  1.4091  1.7991 -0.2854
61258SOL     OW 1765   8.669   4.201   4.583  0.2723  0.8845  0.2595
61258SOL    HW1 1766   8.734   4.239   4.524 -0.0623  1.6275  0.3482
61258SOL    HW2 1767   8.597   4.175   4.525  1.5678 -2.1386 -0.1447
61259SOL     OW 1768   4.123  12.495   7.649 -0.4092 -0.5075 -0.0272
61259SOL    HW1 1769   4.167  12.410   7.659  0.3595  0.0608  1.7387
61259SOL    HW2 1770   4.186  12.548   7.600 -1.2832 -1.1779 -2.0052
61260SOL     OW 1771   3.259  13.676   7.827 -0.0322 -0.4990  0.4888
61260SOL    HW1 1772   3.305  13.661   7.745 -1.1547  0.2305 -0.2907
61260SOL    HW2 1773   3.282  13.766   7.851 -0.3317 -0.4490  0.5839
61261SOL     OW 1774  11.972  10.033   4.824  0.1451  0.8995  0.2148
61261SOL    HW1 1775  11.989   9.964   4.760  0.7479 -0.2000  1.5304
61261SOL    HW2 1776  11.920  10.097   4.775  0.2339 -0.0924 -1.2618
61262SOL     OW 1777   6.536   6.557  11.242  0.2812 -0.3787  0.1403
61262SOL    HW1 1778   6.563   6.568  11.151  1.6935  0.4644  0.6255
61262SOL    HW2 1779   6.459   6.500  11.237  0.2890 -0.3102 -1.5720
61263SOL     OW 1780   1.106  13.342   2.483  0.1044 -0.0806 -0.4054
61263SOL    HW1 1781   1.148  13.382   2.408 -1.8137  0.8308 -1.0759
61263SOL    HW2 1782   1.151  13.378   2.559  1.3577 -0.1865 -1.0755
61264SOL     OW 1783   8.948  12.454  10.567 -0.1357  0.3136 -0.8326
61264SOL    HW1 1784   8.882  12.430  10.502  0.6464 -0.6356 -1.3047
61264SOL    HW2 1785   8.975  12.370  10.605 -0.0969  0.8040  0.2540
61265SOL     OW 1786   2.208   5.807  13.317  0.0821  0.0689  0.1001
61265SOL    HW1 1787   2.205   5.874  13.385 -1.2504 -0.3944  0.5485
61265SOL    HW2 1788   2.134   5.749  13.338  0.6301 -1.0006 -0.8110
61266SOL     OW 1789  12.148   8.507   8.578 -0.5166 -0.0573 -0.3120
61266SOL    HW1 1790  12.088   8.491   8.505 -1.1246 -0.4466  0.2676
61266SOL    HW2 1791  12.093   8.510   8.656  0.0591  0.9462  0.0790
61267SOL     OW 1792   8.701  11.942   6.821  0.0404  0.1750  0.0994
61267SOL    HW1 1793   8.627  11.975   6.770 -0.2463  0.8912  0.9538
61267SOL    HW2 1794   8.661  11.880   6.883  0.3128 -0.2858 -0.1829
61268SOL     OW 1795   4.099   4.264   8.536 -0.6932  0.3146 -0.1119
61268SOL    HW1 1796   4.150   4.322   8.479 -1.5745  2.0572  0.8374
61268SOL    HW2 1797   4.123   4.290   8.625 -0.7980 -1.0774  0.3441
61269SOL     OW 1798   2.398   8.819   9.395 -0.0201 -0.8563  0.0060
61269SOL    HW1 1799   2.339   8.746   9.378  1.8040 -1.8680 -2.4744
61269SOL    HW2 1800   2.433   8.842   9.310 -0.4807  2.9932  0.6536
61270SOL     OW 1801   0.872   2.231  13.300 -0.1285  0.5709  0.1688
61270SOL    HW1 1802   0.887   2.306  13.242 -0.7215 -0.7274 -1.7494
61270SOL    HW2 1803   0.893   2.264  13.387 -0.5529  3.0142 -0.5784
61271SOL     OW 1804   8.174  11.779   7.440  0.2398  0.2583 -0.1281
61271SOL    HW1 1805   8.116  11.733   7.380  0.3742  1.2495 -1.0559
61271SOL    HW2 1806   8.252  11.724   7.445 -0.1259 -0.2718 -0.1491
61272SOL     OW 1807  13.448   3.757   6.201  0.1445 -0.3083  0.5142
61272SOL    HW1 1808  13.461   3.836   6.255  0.8214  0.1773 -0.3397
61272SOL    HW2 1809  13.528   3.706   6.213  0.4064 -0.0810 -0.2084
61273SOL     OW 1810   4.582   2.804   3.383  0.2464  0.9630 -0.1877
61273SOL    HW1 1811   4.529   2.774   3.310  1.0982  1.3055 -0.9720
61273SOL    HW2 1812   4.646   2.734   3.397 -0.0190  0.8197  0.3528
61274SOL     OW 1813   0.223   5.392   3.526 -0.2183 -0.1529  0.0650
61274SOL    HW1 1814   0.184   5.346   3.452  0.3390 -0.8776  0.2121
61274SOL    HW2 1815   0.156   5.454   3.553 -2.0700 -2.5420  1.4291
61275SOL     OW 1816  10.341  13.101  13.656 -0.2323  0.2252  0.1376
61275SOL    HW1 1817  10.381  13.127  13.739  0.5949  0.3782 -0.3003
61275SOL    HW2 1818  10.371  13.011  13.641 -1.4641 -0.2977  0.6497
61276SOL     OW 1819   0.033   3.426   5.529  0.4458  0.0825 -0.3135
61276SOL    HW1 1820   0.068   3.454   5.444 -0.3086  0.5993 -0.4640
61276SOL    HW2 1821  -0.056   3.461   5.531  1.1871  2.1173  1.6691
61277SOL     OW 1822   9.252   2.096  11.316 -0.6132  0.2116 -0.2473
61277SOL    HW1 1823   9.219   2.044  11.389  0.2290 -0.6327 -0.4588
61277SOL    HW2 1824   9.320   2.151  11.355  0.3458 -0.7623 -0.5204
61278SOL     OW 1825   7.927  10.511  12.891  0.3589  0.1097  0.0281
61278SOL    HW1 1826   7.871  10.434  12.899  0.8194 -0.1136  1.3075
61278SOL    HW2 1827   7.924  10.533  12.798  2.1926 -2.9401 -0.8907
61279SOL     OW 1828  11.294   1.919   8.658  0.2705 -0.2391  0.7822
61279SOL    HW1 1829  11.367   1.863   8.683  0.8013  0.7141  1.4286
61279SOL    HW2 1830  11.326   2.008   8.671 -1.2063  0.2035  1.6514
61280SOL     OW 1831  11.306  10.888  13.193  0.4165 -0.3869 -0.0148
61280SOL    HW1 1832  11.224  10.909  13.238 -0.0263 -1.1909 -0.4235
61280SOL    HW2 1833  11.354  10.831  13.253  0.6100 -0.0412  0.1599
61281SOL     OW 1834  10.114   9.661  13.824  0.2259 -0.0389  0.0763
61281SOL    HW1 1835  10.204   9.675  13.795  0.1915  1.2398  0.5358
61281SOL    HW2 1836  10.068   9.629  13.747  0.9166 -0.0284 -0.3413
61282SOL     OW 1837  13.055  12.639  10.699 -0.2169 -0.0659 -0.3094
61282SOL    HW1 1838  12.971  12.634  10.652 -0.1106 -0.6038 -0.4527
61282SOL    HW2 1839  13.037  12.597  10.783 -0.6628  1.7386  0.5345
61283SOL     OW 1840   4.563   9.163   2.377  0.4202  0.3428  0.5263
61283SOL    HW1 1841   4.532   9.118   2.298  1.4257  1.0690 -0.3152
61283SOL    HW2 1842   4.498   9.142   2.444 -1.4895  1.2569 -0.9741
61284SOL     OW 1843   4.174   1.929   4.560 -0.6176 -0.0912  0.0847
61284SOL    HW1 1844   4.229   1.958   4.487 -0.1434 -4.4813 -1.5430
61284SOL    HW2 1845   4.091   1.977   4.547  0.0225  0.5237 -2.3291
61285SOL     OW 1846  11.547  13.255   5.999  0.2247 -0.7391  0.3862
61285SOL    HW1 1847  11.514  13.182   5.946 -1.2588 -1.1252  1.7588
61285SOL    HW2 1848  11.471  13.313   6.008  1.4900  1.2668 -1.0648
61286SOL     OW 1849   2.404  13.392   9.507 -0.2548  0.3367  0.2747
61286SOL    HW1 1850   2.359  13.416   9.427 -0.3652  1.8705  0.7565
61286SOL    HW2 1851   2.458  13.469   9.528 -0.8451  0.3124  2.0868
61287SOL     OW 1852  12.425   3.970   4.802  0.2478  0.1259 -0.5242
61287SOL    HW1 1853  12.368   4.025   4.856 -1.0504 -2.5878  1.1040
61287SOL    HW2 1854  12.416   4.005   4.714  1.4311  3.9454  0.6824
61288SOL     OW 1855   2.185  10.111   4.338 -0.4403 -0.2117  0.5233
61288SOL    HW1 1856   2.098  10.114   4.299 -0.5118 -0.4943  0.6582
61288SOL    HW2 1857   2.175  10.155   4.423  0.0037  1.5757 -0.3020
61289SOL     OW 1858   4.180   1.612   8.874  0.3382 -0.3503 -0.1457
61289SOL    HW1 1859   4.131   1.570   8.944 -1.0972  0.1754 -0.8119
61289SOL    HW2 1860   4.115   1.632   8.807  1.0822  2.2629 -0.1792
61290SOL     OW 1861   2.123  13.240   9.286 -0.3450  0.6190 -0.0406
61290SOL    HW1 1862   2.057  13.212   9.222  0.3488 -0.6750 -0.2372
61290SOL    HW2 1863   2.128  13.168   9.349  0.5605  0.8835  0.2152
61291SOL     OW 1864  10.965   1.692   7.884  0.1919  0.1250 -0.9092
61291SOL    HW1 1865  10.896   1.705   7.949  1.2290  0.2112  0.1999
61291SOL    HW2 1866  10.954   1.601   7.855 -2.4479  1.0407 -3.2550
61292SOL     OW 1867  14.046   8.145   5.288 -0.1386  0.0222 -0.7394
61292SOL    HW1 1868  14.018   8.079   5.350 -1.8154  1.0298 -0.3575
61292SOL    HW2 1869  13.982   8.141   5.217  1.0443 -0.2805 -1.8177
61293SOL     OW 1870   7.784   6.388  13.697 -0.1152 -0.0880 -0.6474
61293SOL    HW1 1871   7.875   6.399  13.726 -0.1631 -0.7407 -0.2222
61293SOL    HW2 1872   7.733   6.441  13.758 -0.0419  0.0617 -0.7175
61294SOL     OW 1873   8.653  12.188  11.765  0.2142  0.1724 -0.1173
61294SOL    HW1 1874   8.613  12.192  11.851 -1.2283 -2.2754 -0.5638
61294SOL    HW2 1875   8.747  12.175  11.783 -0.0945 -0.5131  1.1035
61295SOL     OW 1876  10.202   4.881   5.017  0.1661  0.1498  0.2977
61295SOL    HW1 1877  10.109   4.861   5.028  0.0929  0.1464 -0.3197
61295SOL    HW2 1878  10.223   4.854   4.928  1.1543 -1.3372  0.9403
61296SOL     OW 1879  13.120   1.924   9.735  0.1549  0.5094 -0.3004
61296SOL    HW1 1880  13.143   1.922   9.828 -0.9177  2.5145  0.0737
61296SOL    HW2 1881  13.051   1.858   9.726 -0.8997  1.4278  0.7175
61297SOL     OW 1882  13.171  12.318   8.126  0.1554  0.2740  0.3605
61297SOL    HW1 1883  13.127  12.338   8.043  0.3108  0.0339  0.2208
61297SOL    HW2 1884  13.222  12.239   8.108 -0.2664 -0.1184  0.8444
61298SOL     OW 1885   0.472   1.446   7.492  0.1134  0.3409 -0.1558
61298SOL    HW1 1886   0.503   1.495   7.569  0.2251  0.5179 -0.3106
61298SOL    HW2 1887   0.489   1.355   7.513 -0.2566  0.3529  0.2115
61299SOL     OW 1888  13.326   6.021   7.772 -0.5384  0.0949  0.0713
61299SOL    HW1 1889  13.306   5.952   7.708  1.8026 -0.2045 -0.4062
61299SOL    HW2 1890  13.242   6.037   7.816 -1.7525 -1.1350 -1.6546
61300SOL     OW 1891  10.367  13.975   9.996  0.3720  0.4461  0.5218
61300SOL    HW1 1892  10.411  13.896   9.965  0.4082  0.8745 -0.5616
61300SOL    HW2 1893  10.335  14.018   9.916 -0.5310  1.0099  1.1680
61301SOL     OW 1894   8.473   3.801  13.557 -0.0561  0.2339 -0.1681
61301SOL    HW1 1895   8.506   3.748  13.630 -2.8309 -0.4912  0.6640
61301SOL    HW2 1896   8.501   3.890  13.578  1.6444 -0.3608  0.2536
61302SOL     OW 1897   8.339   8.371   1.684  0.4099  0.2991  0.0739
61302SOL    HW1 1898   8.372   8.460   1.668  0.3619  0.2301 -0.4413
61302SOL    HW2 1899   8.263   8.363   1.626  0.6951 -0.2376 -0.2354
61303SOL     OW 1900   1.845   0.194  10.637  0.3841 -0.4503 -0.2293
61303SOL    HW1 1901   1.858   0.110  10.681 -0.5032 -0.8818 -0.7579
61303SOL    HW2 1902   1.763   0.183  10.588 -1.7416  1.8738  2.4583
61304SOL     OW 1903   9.751   9.944   6.346 -0.3135  0.6248  0.5120
61304SOL    HW1 1904   9.739  10.014   6.410 -0.8873 -0.3598  1.5093
61304SOL    HW2 1905   9.663   9.913   6.326 -0.0096 -1.0832  1.5650
61305SOL     OW 1906   1.057   0.604   6.636  0.1008 -0.1420 -0.0377
61305SOL    HW1 1907   0.999   0.543   6.683 -0.9467  0.7086 -0.1707
61305SOL    HW2 1908   1.143   0.590   6.675  0.3807 -3.1138 -1.4093
61306SOL     OW 1909   4.926   1.723   3.176  0.2138 -0.4352  0.3739
61306SOL    HW1 1910   4.994   1.665   3.144 -0.3432 -1.0472  0.2899
61306SOL    HW2 1911   4.894   1.769   3.098 -0.3689 -1.1058  0.2120
61307SOL     OW 1912   4.030   5.411   2.452  0.0322 -0.1499 -0.4944
61307SOL    HW1 1913   4.083   5.484   2.484 -0.7455  0.7869 -1.2719
61307SOL    HW2 1914   4.091   5.356   2.402  0.3821  0.6476 -0.9626
61308SOL     OW 1915   6.233  10.064   7.858 -0.7925  0.4179 -0.2886
61308SOL    HW1 1916   6.228   9.974   7.826  1.0466  0.9005 -2.0959
61308SOL    HW2 1917   6.283  10.057   7.939 -1.7615 -0.3062  0.2743
61309SOL     OW 1918   6.805   6.530  10.259  0.0949 -0.0314 -0.1948
61309SOL    HW1 1919   6.811   6.611  10.310  1.9217  0.3796 -0.9772
61309SOL    HW2 1920   6.886   6.528  10.209 -0.0305 -2.2447 -0.3822
61310SOL     OW 1921  11.276  10.112  13.626  0.3348 -0.3434  0.1325
61310SOL    HW1 1922  11.252  10.081  13.538 -0.7412 -0.4664  0.4546
61310SOL    HW2 1923  11.275  10.207  13.619 -0.9486 -0.3315  0.3026
61311SOL     OW 1924   3.994  12.369   3.150  0.4295  0.6142  0.2496
61311SOL    HW1 1925   3.919  12.395   3.204  0.5338  0.5394  0.4320
61311SOL    HW2 1926   4.070  12.407   3.195  0.5144  0.5820  0.1343
61312SOL     OW 1927   0.902   4.972  10.557 -0.0103  0.2949 -0.0729
61312SOL    HW1 1928   0.899   5.021  10.639  0.9406 -1.1423  0.8639
61312SOL    HW2 1929   0.834   4.905  10.567 -0.2641  0.4479 -0.7110
61313SOL     OW 1930   1.772  13.950  11.514 -0.6229  0.3204  0.5551
61313SOL    HW1 1931   1.693  13.936  11.463 -0.5920  2.2469 -0.0989
61313SOL    HW2 1932   1.840  13.902  11.467 -1.0780 -0.0175  0.2320
61314SOL     OW 1933  13.418   9.597   8.728  0.6869  0.2227  0.1252
61314SOL    HW1 1934  13.360   9.623   8.800 -1.4370 -1.2583 -0.9294
61314SOL    HW2 1935  13.469   9.524   8.764  2.9108  2.2552  1.4296
61315SOL     OW 1936   8.643  10.431  12.935 -0.0585 -0.2142  0.2574
61315SOL    HW1 1937   8.652  10.361  12.998 -1.7692  1.1263  2.1225
61315SOL    HW2 1938   8.603  10.389  12.858  0.4465 -1.5405  0.6950
61316SOL     OW 1939  10.897   1.327   0.782 -0.4928 -0.3549 -0.6130
61316SOL    HW1 1940  10.869   1.413   0.812 -0.2756 -0.0941 -1.1476
61316SOL    HW2 1941  10.830   1.267   0.814 -0.1092 -0.1284  0.6529
61317SOL     OW 1942  10.906   2.624  13.450 -0.3528 -0.2228  0.0507
61317SOL    HW1 1943  10.886   2.627  13.544 -1.1424 -2.9925  0.0539
61317SOL    HW2 1944  10.863   2.701  13.414  1.4932  1.9468  2.1556
61318SOL     OW 1945   0.009   4.814  12.478 -0.0531 -0.3844 -0.1267
61318SOL    HW1 1946  -0.020   4.902  12.502 -2.1249 -1.2972  0.9809
61318SOL    HW2 1947   0.050   4.779  12.557  0.8766 -0.3951 -0.5988
61319SOL     OW 1948   4.703   4.277  12.790  0.2242 -0.2775  0.0668
61319SOL    HW1 1949   4.647   4.226  12.732  0.9106 -1.8481  0.7206
61319SOL    HW2 1950   4.750   4.337  12.732  0.9860 -1.8791 -1.0527
61320SOL     OW 1951   6.685   0.367   3.927  0.3181 -0.0767 -0.0999
61320SOL    HW1 1952   6.774   0.332   3.923  0.2802 -0.0752 -0.9851
61320SOL    HW2 1953   6.695   0.460   3.905  0.0755 -0.1176 -0.3841
61321SOL     OW 1954   5.362   7.754   6.665 -0.1587  0.2147  0.2079
61321SOL    HW1 1955   5.327   7.703   6.592 -1.1151  1.3343 -0.1312
61321SOL    HW2 1956   5.457   7.736   6.663 -0.4265 -1.3497 -0.0331
61322SOL     OW 1957   8.456   6.584   5.456 -0.5169  0.3904  0.0525
61322SOL    HW1 1958   8.420   6.525   5.390 -0.3740 -0.5744  0.8205
61322SOL    HW2 1959   8.456   6.533   5.537  1.4385  0.7783  0.3334
61323SOL     OW 1960   9.005   4.451   7.859  0.6189 -0.1862  0.2134
61323SOL    HW1 1961   8.914   4.477   7.875  0.7762  0.6167 -0.1316
61323SOL    HW2 1962   9.055   4.532   7.869  1.1116 -0.2962 -1.1129
61324SOL     OW 1963   6.329   9.495  12.614 -0.1429 -0.0435 -0.2163
61324SOL    HW1 1964   6.299   9.532  12.531  0.6092 -3.3829 -2.1880
61324SOL    HW2 1965   6.410   9.541  12.633  1.1292 -0.9371 -2.9060
61325SOL     OW 1966   2.505   2.063   7.806  0.1848  0.2499  0.6406
61325SOL    HW1 1967   2.427   2.031   7.760 -1.2461  0.0640  3.0332
61325SOL    HW2 1968   2.513   2.154   7.779 -0.6553  0.1685  0.0778
61326SOL     OW 1969   4.738  10.574   1.995  0.3233 -0.4128 -0.3350
61326SOL    HW1 1970   4.702  10.505   1.940  1.7942 -0.5811 -1.1452
61326SOL    HW2 1971   4.816  10.535   2.035 -0.2134  0.0059  1.1606
61327SOL     OW 1972   0.185  14.088   9.295 -0.3571  0.2278  0.2791
61327SOL    HW1 1973   0.170  14.178   9.323  2.5160  0.8405  0.1436
61327SOL    HW2 1974   0.217  14.043   9.373  1.2824  0.2266 -0.3377
61328SOL     OW 1975   7.468  10.465  10.260 -0.2288 -0.1395 -0.7323
61328SOL    HW1 1976   7.422  10.539  10.299  0.1586  0.3082 -1.1186
61328SOL    HW2 1977   7.475  10.401  10.330 -2.0342 -0.4964 -0.8417
61329SOL     OW 1978   0.462   1.224  11.874  0.0671 -0.0544  0.1568
61329SOL    HW1 1979   0.429   1.232  11.784 -0.1540  0.1114  0.2502
61329SOL    HW2 1980   0.557   1.232  11.866  0.0631 -0.2412 -0.0845
61330SOL     OW 1981   4.482  10.804   7.665  0.2949 -0.2301 -0.4049
61330SOL    HW1 1982   4.448  10.892   7.683 -1.5070 -0.6905 -1.3418
61330SOL    HW2 1983   4.423  10.745   7.712  1.6925 -0.9756  0.5199
61331SOL     OW 1984  10.457   1.324  13.621  0.4982  0.2103 -0.2814
61331SOL    HW1 1985  10.439   1.418  13.629 -2.0245 -0.2160 -0.0824
61331SOL    HW2 1986  10.530   1.319  13.559  0.1684  2.2595 -0.9309
61332SOL     OW 1987   6.236  11.727   2.267  0.4835  0.4214 -0.2870
61332SOL    HW1 1988   6.191  11.742   2.350  2.0819  2.4939  0.2941
61332SOL    HW2 1989   6.329  11.725   2.290  0.8678 -1.7687 -1.7048
61333SOL     OW 1990  12.014  10.538   0.583 -0.2250 -0.4080  0.0445
61333SOL    HW1 1991  12.086  10.476   0.598 -0.1766 -0.1706  0.8246
61333SOL    HW2 1992  11.997  10.576   0.669 -1.9150 -1.1302  0.0579
61334SOL     OW 1993  10.005   4.879  13.967  0.1974  0.1039  0.2020
61334SOL    HW1 1994   9.990   4.968  13.934  0.8875 -0.1471 -0.8570
61334SOL    HW2 1995  10.043   4.891  14.053  0.0311  0.8305  0.1801
61335SOL     OW 1996   7.502  11.729   6.004 -0.1847 -0.2619  0.4141
61335SOL    HW1 1997   7.437  11.734   6.074 -2.4495  1.0747 -1.5988
61335SOL    HW2 1998   7.472  11.793   5.939  3.0835  0.2831 -0.7671
61336SOL     OW 1999  13.817   4.157   6.154 -0.0651  0.2195  0.4008
61336SOL    HW1 2000  13.826   4.226   6.219 -0.2814 -0.0375  0.7040
61336SOL    HW2 2001  13.853   4.079   6.196  0.9130  0.3140 -0.2260
61337SOL     OW 2002  11.789   7.431  13.914 -0.6155  0.3880 -0.7435
61337SOL    HW1 2003  11.855   7.453  13.848  0.8093 -0.1392  0.4402
61337SOL    HW2 2004  11.775   7.337  13.903  1.9043 -0.3750  1.5632
61338SOL     OW 2005   6.393  11.469   9.603 -0.4145 -0.5252  0.0987
61338SOL    HW1 2006   6.480  11.449   9.568 -0.0986  0.7499  0.1112
61338SOL    HW2 2007   6.347  11.513   9.531 -0.8891 -0.7684  0.2473
61339SOL     OW 2008   1.108  13.514  10.031  0.0472 -0.4045  0.1690
61339SOL    HW1 2009   1.043  13.447  10.052 -1.4101  0.7429 -0.4579
61339SOL    HW2 2010   1.155  13.479   9.956  0.0826 -1.2196  0.5667
61340SOL     OW 2011   1.720   1.519   4.993  0.0908  0.1589  0.4923
61340SOL    HW1 2012   1.751   1.449   5.051 -1.8730 -0.0287  1.3962
61340SOL    HW2 2013   1.633   1.490   4.965  0.2859  1.0700 -1.1948
61341SOL     OW 2014   6.303  12.430  12.531 -0.1974  0.1613 -0.1494
61341SOL    HW1 2015   6.344  12.354  12.491  1.4410  0.5700  0.6507
61341SOL    HW2 2016   6.279  12.401  12.619  0.8219  0.6518  0.3108
61342SOL     OW 2017   5.149  14.024   7.372  0.4121  0.5260  0.8264
61342SOL    HW1 2018   5.134  13.975   7.452  2.9493 -0.5630  0.7304
61342SOL    HW2 2019   5.219  14.086   7.394  1.3114  0.0618 -0.5699
61343SOL     OW 2020  12.930   2.276  12.515 -0.0544 -0.3505  0.2568
61343SOL    HW1 2021  12.937   2.260  12.421 -3.3893  0.2678 -0.2374
61343SOL    HW2 2022  12.957   2.367  12.526  1.9142 -0.8888  0.2294
61344SOL     OW 2023   1.074   3.808   2.163  0.4095 -0.3275  0.0918
61344SOL    HW1 2024   1.067   3.803   2.068 -0.9113  2.4022 -0.0312
61344SOL    HW2 2025   1.059   3.718   2.193  1.4271 -1.3531 -2.2600
61345SOL     OW 2026   4.566   9.542   3.927 -0.4383  0.7517 -0.1400
61345SOL    HW1 2027   4.499   9.600   3.963 -1.2887  0.4830 -1.2008
61345SOL    HW2 2028   4.516   9.476   3.878  0.5293 -0.5258  0.5385
61346SOL     OW 2029   2.098   8.473   4.191 -0.5343  0.0634 -0.4142
61346SOL    HW1 2030   2.021   8.513   4.150  0.3178  1.3562 -0.8177
61346SOL    HW2 2031   2.165   8.541   4.187  0.2432 -0.5749  1.1391
61347SOL     OW 2032  13.001   4.058  11.862 -0.1377 -0.1479  0.0429
61347SOL    HW1 2033  12.919   4.067  11.815 -0.4415  1.0773  0.7519
61347SOL    HW2 2034  12.988   4.108  11.943  1.0487 -0.5321  0.4944
61348SOL     OW 2035  11.259   1.885   0.893 -0.4453  0.4777 -0.4525
61348SOL    HW1 2036  11.294   1.966   0.856  1.0251 -0.0588 -0.2768
61348SOL    HW2 2037  11.186   1.863   0.835  0.3094  0.9394 -1.6199
61349SOL     OW 2038   9.372   5.876   6.117  0.3303 -0.5392  0.4523
61349SOL    HW1 2039   9.455   5.913   6.088  0.0074  0.0413  0.2537
61349SOL    HW2 2040   9.310   5.901   6.050  0.1379 -1.6236  0.2128
61350SOL     OW 2041  10.432   4.972   9.701  0.3222  0.3988  0.3907
61350SOL    HW1 2042  10.403   4.913   9.771 -0.0450  0.4963  0.3256
61350SOL    HW2 2043  10.415   5.060   9.734 -1.2241  0.4331 -0.3663
61351SOL     OW 2044   9.723   7.945   2.745 -0.6795  0.1897  0.2446
61351SOL    HW1 2045   9.660   7.993   2.691  0.1473  0.2841 -0.6561
61351SOL    HW2 2046   9.802   7.942   2.693 -0.7994 -2.5211  0.0750
61352SOL     OW 2047   8.464  13.219   3.040  0.3473  0.1829  0.3350
61352SOL    HW1 2048   8.446  13.272   3.118  0.3329 -1.6001  1.5965
61352SOL    HW2 2049   8.556  13.194   3.049  0.1521 -0.6160  0.1494
61353SOL     OW 2050   0.276   3.084   6.420 -0.1677 -0.1997  0.0450
61353SOL    HW1 2051   0.355   3.030   6.409  0.6683  1.0201 -0.1125
61353SOL    HW2 2052   0.259   3.080   6.514  0.7282  0.3874  0.2471
61354SOL     OW 2053   4.005   9.646   0.524 -0.5111  0.5173 -1.0704
61354SOL    HW1 2054   3.981   9.554   0.517  1.4913 -0.5266  2.6992
61354SOL    HW2 2055   3.935   9.685   0.576  0.3191  0.1538  0.3947
61355SOL     OW 2056   8.181   4.806   7.310  0.1462 -0.0933 -0.0614
61355SOL    HW1 2057   8.106   4.833   7.364 -0.3070  0.8716 -1.1311
61355SOL    HW2 2058   8.142   4.755   7.239  0.2641  1.8092 -1.5580
61356SOL     OW 2059   5.294   1.316   2.012 -0.4397 -0.3733 -0.0796
61356SOL    HW1 2060   5.298   1.224   1.987 -2.7759 -0.4269 -0.4611
61356SOL    HW2 2061   5.289   1.363   1.929  1.0031  0.1737  0.1011
61357SOL     OW 2062   4.311  12.696   0.602 -0.5169 -0.5875 -0.1113
61357SOL    HW1 2063   4.363  12.675   0.680 -0.5233  2.3972  0.8041
61357SOL    HW2 2064   4.234  12.639   0.609 -0.6334 -0.2480  2.2121
61358SOL     OW 2065  11.449   7.660  12.136  0.5284 -0.3049  0.0253
61358SOL    HW1 2066  11.516   7.713  12.092 -0.1408 -0.3341 -1.0693
61358SOL    HW2 2067  11.478   7.656  12.227  2.6817 -1.3660 -0.6304
61359SOL     OW 2068   1.886   6.229  12.837 -0.6441  0.1390  0.2555
61359SOL    HW1 2069   1.885   6.307  12.781 -0.3852 -0.2298 -0.2748
61359SOL    HW2 2070   1.831   6.253  12.911 -2.4087  0.0565 -0.9549
61360SOL     OW 2071   2.713   1.201   8.726 -0.0773  0.0548  0.2950
61360SOL    HW1 2072   2.661   1.190   8.806 -1.1778 -1.6005 -0.6082
61360SOL    HW2 2073   2.659   1.258   8.671  0.6185  1.0779  0.6396
61361SOL     OW 2074  10.288  13.248   1.925  0.0540 -0.4390 -0.5604
61361SOL    HW1 2075  10.381  13.271   1.933  0.4871 -2.3907  0.6370
61361SOL    HW2 2076  10.244  13.305   1.989  1.0707 -2.4697  2.1764
61362SOL     OW 2077   6.993   9.235  13.439 -0.3335  0.5411 -0.3630
61362SOL    HW1 2078   6.910   9.188  13.430 -0.2788  0.3260  0.2033
61362SOL    HW2 2079   7.054   9.188  13.383 -0.6693  0.9002 -1.0455
61363SOL     OW 2080   9.762   4.661   6.505  0.0109  0.0295  0.5294
61363SOL    HW1 2081   9.828   4.629   6.566 -0.6838 -0.6061  0.9621
61363SOL    HW2 2082   9.725   4.739   6.547 -0.1320 -0.1318  0.7069
61364SOL     OW 2083   1.754   6.486   0.611 -0.2806 -0.1849 -0.6079
61364SOL    HW1 2084   1.688   6.418   0.608 -0.9854  0.3679  0.9770
61364SOL    HW2 2085   1.715   6.561   0.566 -0.4916 -0.0662 -0.2341
61365SOL     OW 2086   9.865   5.565   3.250 -0.8069 -0.1971 -0.4807
61365SOL    HW1 2087   9.875   5.623   3.174  0.3128 -0.7206 -0.7498
61365SOL    HW2 2088   9.777   5.528   3.240 -0.4011 -0.8430 -1.9511
61366SOL     OW 2089   6.730   8.013   4.282  0.4319 -0.3295  0.0690
61366SOL    HW1 2090   6.652   8.011   4.338  1.7466  1.3498  2.1275
61366SOL    HW2 2091   6.803   7.997   4.342  1.8628  0.5843 -1.3554
61367SOL     OW 2092   8.802   2.968   3.246 -0.5868 -0.9315  0.2065
61367SOL    HW1 2093   8.845   2.951   3.162  0.9115  0.3169  0.6874
61367SOL    HW2 2094   8.713   2.995   3.221  0.2855  0.9851 -1.1344
61368SOL     OW 2095  12.840   2.963  13.011 -0.4212  0.5813  0.0294
61368SOL    HW1 2096  12.917   3.020  13.003  0.4508 -0.5268  0.1603
61368SOL    HW2 2097  12.788   3.001  13.081 -0.8604  2.2954 -1.1616
61369SOL     OW 2098   0.567   7.047  12.733  0.2633  0.0455 -0.2608
61369SOL    HW1 2099   0.593   7.038  12.641 -1.5740 -1.5470 -0.6924
61369SOL    HW2 2100   0.620   6.982  12.779 -1.6316 -2.0946 -0.9007
61370SOL     OW 2101   6.738   3.399   8.865 -0.4097 -0.1687  0.1382
61370SOL    HW1 2102   6.731   3.488   8.831  1.1825 -0.2143 -0.4005
61370SOL    HW2 2103   6.700   3.403   8.952  0.6180  1.2925  0.5518
61371SOL     OW 2104   2.044   8.130  12.922 -0.4197 -0.1851 -0.3025
61371SOL    HW1 2105   2.082   8.213  12.892 -1.1374  0.2873  0.0742
61371SOL    HW2 2106   1.950   8.145  12.920 -0.6185 -1.3865 -1.3533
61372SOL     OW 2107   5.960  12.702  13.583  0.3160  0.0229 -0.0768
61372SOL    HW1 2108   5.947  12.705  13.677  0.3070 -0.2038 -0.0694
61372SOL    HW2 2109   6.044  12.744  13.568 -0.5602  1.8148 -0.1586
61373SOL     OW 2110   2.960   3.931   2.901  0.1644 -0.0913  0.3242
61373SOL    HW1 2111   3.036   3.989   2.902  1.4060 -1.5973  2.5747
61373SOL    HW2 2112   2.921   3.940   2.988 -0.4739 -1.5012  0.2194
61374SOL     OW 2113  10.696  10.158   9.718 -0.0661  0.3603 -0.3855
61374SOL    HW1 2114  10.683  10.064   9.706 -0.8438  0.4881 -0.6426
61374SOL    HW2 2115  10.757  10.166   9.792 -0.3203 -0.3339 -0.1007
61375SOL     OW 2116   3.249  11.809   5.965 -0.2976  0.0637 -0.1674
61375SOL    HW1 2117   3.334  11.764   5.966  0.0476  0.7121  0.6202
61375SOL    HW2 2118   3.185  11.738   5.952  0.3779 -0.3748 -1.2670
61376SOL     OW 2119  12.677   4.447  12.781  0.5127  0.0318 -0.6950
61376SOL    HW1 2120  12.718   4.525  12.819  2.4242 -0.9376 -0.6545
61376SOL    HW2 2121  12.671   4.467  12.687  1.7289 -0.0448 -0.8059
61377SOL     OW 2122   5.209   0.908   0.569  0.1571  0.6953 -0.4315
61377SOL    HW1 2123   5.200   0.993   0.611 -2.8132  1.1182 -1.7245
61377SOL    HW2 2124   5.255   0.926   0.487 -0.2357  1.0146 -0.5836
61378SOL     OW 2125   0.750   6.716   1.935 -0.1396  0.6398  0.2091
61378SOL    HW1 2126   0.664   6.741   1.899 -0.8651 -1.6873  0.1461
61378SOL    HW2 2127   0.736   6.710   2.029 -0.1610 -0.0778  0.1662
61379SOL     OW 2128   7.467  12.091  13.016  0.1629 -0.3720 -0.2959
61379SOL    HW1 2129   7.415  12.036  12.957  1.4659 -0.2441 -1.6050
61379SOL    HW2 2130   7.443  12.181  12.994 -0.1327 -0.3346  0.1415
61380SOL     OW 2131   1.746   8.738   3.083 -0.0947  0.0194  0.1002
61380SOL    HW1 2132   1.719   8.761   2.994  1.3726 -0.8437 -0.6034
61380SOL    HW2 2133   1.839   8.719   3.075 -0.5274 -3.0152  1.2031
61381SOL     OW 2134   7.305   1.851  11.791 -0.2852  0.4813  0.4815
61381SOL    HW1 2135   7.297   1.768  11.744  0.5634  0.5666  0.1748
61381SOL    HW2 2136   7.223   1.897  11.771 -0.6010 -0.1146  0.3446
61382SOL     OW 2137  10.554   2.187  12.626  0.6150 -0.0565 -0.2176
61382SOL    HW1 2138  10.461   2.193  12.604  0.4911 -0.8282  0.0526
61382SOL    HW2 2139  10.578   2.098  12.600  1.7081  0.6754 -1.8606
61383SOL     OW 2140  11.520  13.282   9.846  0.0188 -0.0933  0.3189
61383SOL    HW1 2141  11.455  13.330   9.898 -1.4048 -1.3275 -0.2492
61383SOL    HW2 2142  11.564  13.349   9.794 -0.7525  0.7786  0.7585
61384SOL     OW 2143   9.562  10.211  12.352  0.5979  0.2648  0.3902
61384SOL    HW1 2144   9.589  10.155  12.279 -0.9024  1.0606 -0.8482
61384SOL    HW2 2145   9.642  10.257  12.378  1.4303 -0.9943  0.1177
61385SOL     OW 2146  11.247  10.314   1.041 -0.1910  0.2478 -0.1276
61385SOL    HW1 2147  11.272  10.333   1.132  2.9599 -1.5145 -0.4937
61385SOL    HW2 2148  11.230  10.220   1.040  1.3481 -0.0411 -1.6404
61386SOL     OW 2149  10.736  11.325  12.261  0.2908  0.1443  0.5829
61386SOL    HW1 2150  10.820  11.295  12.295  0.6100  0.5302  0.1321
61386SOL    HW2 2151  10.677  11.250  12.275  0.9285 -0.4656  0.0539
61387SOL     OW 2152  14.092   1.431   6.407  0.2860  0.6440 -0.0083
61387SOL    HW1 2153  14.036   1.367   6.452  0.4564 -0.0474 -0.7537
61387SOL    HW2 2154  14.079   1.512   6.455 -1.8738  0.6737 -0.5606
61388SOL     OW 2155   7.378   5.587   9.245  0.0255  0.1734 -0.1015
61388SOL    HW1 2156   7.341   5.606   9.331  2.1272  1.6855  0.5628
61388SOL    HW2 2157   7.428   5.506   9.258  0.9080  0.7714  0.3182
61389SOL     OW 2158   3.578  10.161  12.156 -0.0293 -0.0596 -0.2415
61389SOL    HW1 2159   3.597  10.207  12.238  0.3942  0.2451 -0.5020
61389SOL    HW2 2160   3.506  10.211  12.117 -0.5236 -0.4666  0.1542
61390SOL     OW 2161  13.206   8.321  11.481 -0.0647 -0.2695 -0.3034
61390SOL    HW1 2162  13.118   8.289  11.497  0.5300 -0.2404  4.4653
61390SOL    HW2 2163  13.210   8.405  11.526  2.5081 -0.4946  0.0678
61391SOL     OW 2164  10.752  10.380   1.930 -1.1385 -0.2425 -0.3041
61391SOL    HW1 2165  10.669  10.428   1.933 -1.4754 -0.8734  1.4667
61391SOL    HW2 2166  10.747  10.319   2.004  0.5059 -0.9613 -0.7506
61392SOL     OW 2167   2.889   5.315  13.195  0.1691  0.2998 -0.5629
61392SOL    HW1 2168   2.812   5.369  13.178  0.1035  1.2315  2.1784
61392SOL    HW2 2169   2.858   5.225  13.189 -0.6508  0.6250 -1.3611
61393SOL     OW 2170   3.232   8.312   0.442  0.2712 -0.3622 -0.4011
61393SOL    HW1 2171   3.191   8.236   0.401  0.2606 -0.5069 -0.1205
61393SOL    HW2 2172   3.324   8.287   0.452 -0.0936 -1.1241  1.5030
61394SOL     OW 2173  10.264   2.046   2.035  0.2534 -0.1646  0.3135
61394SOL    HW1 2174  10.290   2.133   2.065 -0.7408  0.3576 -0.2809
61394SOL    HW2 2175  10.346   1.999   2.024  0.7335 -0.0968  2.9402
61395SOL     OW 2176   4.570  11.018   9.644 -0.1238 -0.1614  0.4569
61395SOL    HW1 2177   4.562  11.077   9.719 -0.1503  0.3834  0.0356
61395SOL    HW2 2178   4.518  11.060   9.575  1.1232  0.1298 -0.3325
61396SOL     OW 2179   2.258  13.070   0.391 -0.3025  0.8312  0.8049
61396SOL    HW1 2180   2.193  13.135   0.417 -1.7622 -0.4587  0.5347
61396SOL    HW2 2181   2.253  13.068   0.295 -2.0936 -1.3493  0.8545
61397SOL     OW 2182  11.410   6.340   6.958 -0.0747  0.5812  0.1742
61397SOL    HW1 2183  11.386   6.365   7.047 -0.3863  0.8741  0.0122
61397SOL    HW2 2184  11.347   6.271   6.935  0.1985  0.2952  0.2916
61398SOL     OW 2185  13.163  13.579   7.046 -0.6313  0.1027 -0.4370
61398SOL    HW1 2186  13.167  13.541   6.958  2.9659  2.6736 -1.5973
61398SOL    HW2 2187  13.235  13.537   7.094 -1.3056  0.1769  0.6712
61399SOL     OW 2188  12.745  10.083   3.491 -0.2314  0.1192  0.3931
61399SOL    HW1 2189  12.718  10.001   3.449  1.0311  0.2228 -0.6917
61399SOL    HW2 2190  12.759  10.143   3.418  1.5476  0.4629  0.9725
61400SOL     OW 2191   1.420   2.197  10.036  0.0395 -0.2880 -0.6623
61400SOL    HW1 2192   1.451   2.128   9.978  1.2387  0.7611 -1.3297
61400SOL    HW2 2193   1.496   2.219  10.090 -1.3418 -2.0306  2.2108
61401SOL     OW 2194   1.270   3.489  11.657  0.4048  0.3149 -0.1070
61401SOL    HW1 2195   1.364   3.499  11.638  0.8634  0.6066  2.0745
61401SOL    HW2 2196   1.239   3.578  11.671  0.5055  0.0679  2.0214
61402SOL     OW 2197  11.739  11.113   0.052  0.3081 -0.0479  0.0854
61402SOL    HW1 2198  11.731  11.141   0.143  3.0660  0.3352  0.2905
61402SOL    HW2 2199  11.696  11.027   0.049  0.8445 -0.4184  1.9371
61403SOL     OW 2200   1.059   1.826   2.410 -0.0866  0.1679 -0.2513
61403SOL    HW1 2201   1.141   1.782   2.434 -1.1993 -1.1546  1.2934
61403SOL    HW2 2202   0.991   1.763   2.430 -1.5492  1.4532 -0.9947
61404SOL     OW 2203   3.221   8.093   4.891  0.2643  0.5151 -0.4388
61404SOL    HW1 2204   3.130   8.083   4.862 -0.2850 -1.1602  1.5813
61404SOL    HW2 2205   3.215   8.152   4.966  0.4492 -1.2764  1.0659
61405SOL     OW 2206   7.417   8.264   2.345 -0.3279  0.2361  0.5397
61405SOL    HW1 2207   7.353   8.198   2.372 -1.2709  0.6094 -0.7008
61405SOL    HW2 2208   7.479   8.269   2.418 -0.0162 -2.2692  0.5092
61406SOL     OW 2209   1.540   5.373  11.004 -0.5175  0.1045  0.5805
61406SOL    HW1 2210   1.459   5.369  11.054 -0.3805 -1.3898  0.7276
61406SOL    HW2 2211   1.603   5.413  11.063 -1.1349  1.3148  0.4479
61407SOL     OW 2212  13.576   2.157   3.736 -0.0026 -0.1340  0.0316
61407SOL    HW1 2213  13.581   2.251   3.755 -1.3293 -0.1385  0.4562
61407SOL    HW2 2214  13.489   2.144   3.699  0.4451 -1.0891 -0.7525
61408SOL     OW 2215   6.061   2.514   4.986 -0.9193 -0.8321  0.0789
61408SOL    HW1 2216   6.132   2.473   4.937 -1.2295  0.3348 -1.4119
61408SOL    HW2 2217   5.984   2.462   4.965 -0.5269 -2.2630  1.9085
61409SOL     OW 2218   8.087   4.116   6.088 -0.0751  0.1283 -0.7024
61409SOL    HW1 2219   8.134   4.101   6.006 -0.3165 -1.0262 -0.6579
61409SOL    HW2 2220   7.994   4.114   6.063 -0.1428  0.1401 -0.4559
61410SOL     OW 2221   2.155  14.066   9.453  0.1326 -0.9240  0.4844
61410SOL    HW1 2222   2.158  14.013   9.533  1.0448 -0.1167  1.0117
61410SOL    HW2 2223   2.235  14.118   9.456 -1.3536  1.4795  0.6931
61411SOL     OW 2224   9.033  11.855   0.635  0.0494  0.5830  0.6225
61411SOL    HW1 2225   9.054  11.936   0.682  0.1191  0.5379  0.6698
61411SOL    HW2 2226   9.078  11.786   0.685 -0.4070  0.4581  0.8655
61412SOL     OW 2227  12.380  13.562   0.573 -0.0472  0.7267  0.2119
61412SOL    HW1 2228  12.372  13.587   0.481 -2.3621  1.6700  0.6086
61412SOL    HW2 2229  12.335  13.477   0.579 -0.3764  0.9229  0.5622
61413SOL     OW 2230   1.229  11.518   4.796 -0.1268 -0.6700 -0.3413
61413SOL    HW1 2231   1.169  11.555   4.861 -0.1672 -1.7497  0.2581
61413SOL    HW2 2232   1.257  11.435   4.833  1.0193 -0.6243 -1.0467
61414SOL     OW 2233  13.472  11.906   6.719 -0.1798  0.4543 -0.1445
61414SOL    HW1 2234  13.504  11.840   6.779 -0.8334  0.5469  0.3207
61414SOL    HW2 2235  13.409  11.957   6.770  0.3419  1.4619 -0.4844
61415SOL     OW 2236   7.277   9.577   1.007  0.0524  0.0173  0.0177
61415SOL    HW1 2237   7.301   9.612   0.921 -1.3751 -2.1735 -1.3973
61415SOL    HW2 2238   7.351   9.522   1.032  1.5583  2.5112  1.4590
61416SOL     OW 2239   1.028  10.800  13.781  0.3746  0.0178  0.6653
61416SOL    HW1 2240   1.122  10.789  13.797  0.7921  1.2684 -0.7078
61416SOL    HW2 2241   1.000  10.866  13.845  0.6562  0.3525  0.4488
61417SOL     OW 2242   8.919   1.710   7.974 -0.4060 -0.0861  0.3044
61417SOL    HW1 2243   8.925   1.741   8.064 -0.8837 -0.0093  0.3160
61417SOL    HW2 2244   8.826   1.716   7.953 -0.0422  2.0932 -0.9641
61418SOL     OW 2245   0.399  13.676   2.146  0.1111  0.2804  0.0294
61418SOL    HW1 2246   0.427  13.622   2.221  0.5984  1.6691  0.8865
61418SOL    HW2 2247   0.454  13.754   2.152  1.5055 -0.3547 -2.9081
61419SOL     OW 2248   1.738  12.116   2.704 -0.3620 -0.4634  0.3293
61419SOL    HW1 2249   1.724  12.074   2.789  0.4920 -0.8008  0.3090
61419SOL    HW2 2250   1.668  12.082   2.649 -2.3439  1.4735  1.4817
61420SOL     OW 2251   2.071   9.497  13.052  0.1637 -0.5065  0.3349
61420SOL    HW1 2252   2.133   9.539  13.111  0.0666  0.6904 -0.3892
61420SOL    HW2 2253   2.110   9.411  13.034  0.3854 -0.7574  1.8007
61421SOL     OW 2254  13.513   8.711  12.996  0.6317 -0.1172 -0.0064
61421SOL    HW1 2255  13.434   8.659  13.012 -0.4631  1.7481  0.9347
61421SOL    HW2 2256  13.520   8.715  12.901  1.1743 -2.5193 -0.1362
61422SOL     OW 2257   9.594   0.746   3.292 -0.2603  0.6634 -0.3594
61422SOL    HW1 2258   9.608   0.841   3.288  0.5231  0.5360 -0.9326
61422SOL    HW2 2259   9.632   0.713   3.211  1.3613 -0.3520  0.7627
61423SOL     OW 2260   2.087   5.136   1.970 -0.4907 -0.6565  0.4293
61423SOL    HW1 2261   2.156   5.146   2.036 -0.6996 -1.5042  0.7781
61423SOL    HW2 2262   2.008   5.168   2.013 -0.5358 -0.7678  0.4294
61424SOL     OW 2263   6.960  12.044   2.048 -0.3850 -0.4087 -0.4348
61424SOL    HW1 2264   7.024  12.014   2.113 -0.5723  0.9586  0.4240
61424SOL    HW2 2265   6.902  12.102   2.097 -0.0644  1.3028 -1.9765
61425SOL     OW 2266   5.312  11.206  12.553  0.3134 -0.1092 -0.1797
61425SOL    HW1 2267   5.393  11.252  12.575  1.2856 -1.2056 -1.3222
61425SOL    HW2 2268   5.323  11.181  12.462 -0.6612 -1.6153  0.0855
61426SOL     OW 2269  13.179   0.472   4.601  0.9064  0.2455  0.1859
61426SOL    HW1 2270  13.113   0.487   4.533  0.2594  0.8188  0.9206
61426SOL    HW2 2271  13.154   0.387   4.639 -0.6707  1.3658  1.8111
61427SOL     OW 2272  10.390   7.161   8.761  0.4219 -0.1577  0.0929
61427SOL    HW1 2273  10.362   7.221   8.693  0.3208  0.3115  0.5379
61427SOL    HW2 2274  10.484   7.173   8.768  0.3365  0.3132  0.5137
61428SOL     OW 2275   8.229   2.523   2.232 -0.4522 -0.0364 -0.7450
61428SOL    HW1 2276   8.161   2.564   2.178 -1.0649  0.2496  0.2217
61428SOL    HW2 2277   8.307   2.577   2.217 -1.1903  1.4156  0.3506
61429SOL     OW 2278   6.815   0.501   9.812 -0.4216  0.2671  0.0885
61429SOL    HW1 2279   6.800   0.592   9.839 -0.9638  0.2889 -0.2528
61429SOL    HW2 2280   6.744   0.452   9.854 -1.1078  0.2619 -1.0313
61430SOL     OW 2281  13.450   3.625   3.659  0.0034 -0.4393  0.2264
61430SOL    HW1 2282  13.426   3.641   3.750  2.2533  0.0596  0.7928
61430SOL    HW2 2283  13.477   3.534   3.656  0.8175 -0.2133  0.3067
61431SOL     OW 2284   4.884   2.318   6.272  0.1101  0.2372  0.0139
61431SOL    HW1 2285   4.845   2.402   6.296  1.3129  1.0262 -0.6739
61431SOL    HW2 2286   4.848   2.298   6.186  0.3668  0.4017 -0.1313
61432SOL     OW 2287  10.679  11.706   5.125 -0.2742  0.7123 -0.1589
61432SOL    HW1 2288  10.700  11.630   5.072  0.6291  1.0823 -0.3443
61432SOL    HW2 2289  10.651  11.670   5.209  1.8110  0.1755  0.3610
61433SOL     OW 2290   4.744   8.554  11.310 -0.2986 -0.1983  0.0198
61433SOL    HW1 2291   4.780   8.587  11.393  0.8497  0.7592 -0.8239
61433SOL    HW2 2292   4.803   8.588  11.243 -1.1899 -0.9786 -1.2048
61434SOL     OW 2293   1.142   1.245   3.738  0.0235  0.4432  0.6638
61434SOL    HW1 2294   1.070   1.258   3.801 -1.1735  1.0116 -0.7485
61434SOL    HW2 2295   1.210   1.201   3.788 -0.9924  0.6209  2.2834
61435SOL     OW 2296   3.802  13.030  13.464  0.0636 -0.2212 -0.3492
61435SOL    HW1 2297   3.887  12.997  13.435 -0.6879 -0.3391 -2.5786
61435SOL    HW2 2298   3.822  13.086  13.539  2.1833  0.2820 -1.2223
61436SOL     OW 2299   6.737  13.065   8.267  0.5804 -0.3678 -0.3895
61436SOL    HW1 2300   6.729  13.003   8.341 -0.2915 -0.3031 -0.4181
61436SOL    HW2 2301   6.695  13.019   8.194 -0.8938  0.5865 -0.1932
61437SOL     OW 2302   3.784   8.230   3.825 -0.5316  0.1244 -0.0654
61437SOL    HW1 2303   3.697   8.189   3.825 -0.7567  0.5683  1.1523
61437SOL    HW2 2304   3.836   8.176   3.884 -0.0274  0.0018 -0.6058
61438SOL     OW 2305   6.506  13.406   4.467  0.1625 -0.4189 -0.4604
61438SOL    HW1 2306   6.436  13.456   4.508  1.3548  1.4000 -0.5764
61438SOL    HW2 2307   6.482  13.314   4.483 -1.4641  0.1760  0.7512
61439SOL     OW 2308   4.562  13.696  11.385 -0.3361  0.9121 -0.1791
61439SOL    HW1 2309   4.609  13.762  11.435  0.1878  1.5192 -1.4357
61439SOL    HW2 2310   4.628  13.657  11.328 -0.1982 -1.9756  1.7100
61440SOL     OW 2311   5.418   6.612  12.627  1.0859 -0.2915  0.2615
61440SOL    HW1 2312   5.441   6.620  12.719  1.2033  1.2558  0.1306
61440SOL    HW2 2313   5.333   6.657  12.620  0.2720 -1.8020 -0.1128
61441SOL     OW 2314   8.211   4.385   7.217  0.4242 -0.1966 -0.2971
61441SOL    HW1 2315   8.132   4.384   7.271  0.0875 -0.1958 -0.7817
61441SOL    HW2 2316   8.180   4.413   7.130  0.8532 -0.7684 -0.6403
61442SOL     OW 2317  12.387   5.905   0.006 -0.7456 -0.4382  0.2658
61442SOL    HW1 2318  12.411   5.993   0.036 -1.1845 -0.3046  0.2410
61442SOL    HW2 2319  12.433   5.895  -0.077 -0.8967 -0.1314  0.1438
61443SOL     OW 2320  12.455   6.928   5.256  0.2203 -0.2400  0.4557
61443SOL    HW1 2321  12.477   6.936   5.163 -0.7441  0.8122  0.2963
61443SOL    HW2 2322  12.521   6.982   5.301 -0.8283  1.3752  0.1393
61444SOL     OW 2323   1.849   0.857   2.673  0.0418 -0.3011  0.6466
61444SOL    HW1 2324   1.849   0.892   2.762  1.0500  0.1826  0.4741
61444SOL    HW2 2325   1.873   0.765   2.683  0.1895 -0.2371  0.8780
61445SOL     OW 2326  10.249   1.579   3.128 -0.1407  0.0970 -0.0586
61445SOL    HW1 2327  10.258   1.608   3.219  0.3201  1.7508 -0.5894
61445SOL    HW2 2328  10.324   1.618   3.084  1.5579 -3.3815 -0.5709
61446SOL     OW 2329  10.024  10.913   4.134 -0.7655  0.3465  1.4253
61446SOL    HW1 2330   9.995  10.917   4.043  0.2352 -2.3466  0.8959
61446SOL    HW2 2331   9.945  10.930   4.185 -1.2898  2.1887  0.1215
61447SOL     OW 2332   2.906   4.885   5.136  0.3837 -0.2378 -0.5245
61447SOL    HW1 2333   2.976   4.823   5.157  0.8912  0.5709  0.2105
61447SOL    HW2 2334   2.852   4.888   5.215 -0.6455 -1.0389 -1.1670
61448SOL     OW 2335   8.749   9.165  10.553 -0.1296  0.2523  0.5404
61448SOL    HW1 2336   8.739   9.153  10.647 -3.1591  1.5118  0.4876
61448SOL    HW2 2337   8.754   9.260  10.541  0.5982  0.0973 -0.5496
61449SOL     OW 2338   7.765   6.769   5.914 -0.2760 -0.3896  0.1184
61449SOL    HW1 2339   7.764   6.819   5.832  0.7382  0.9764  0.8871
61449SOL    HW2 2340   7.679   6.728   5.919 -0.8555  0.6509 -0.9343
61450SOL     OW 2341   4.487   2.004   7.556  0.0030 -0.0137 -0.3021
61450SOL    HW1 2342   4.504   2.052   7.637  0.2694 -0.4652 -0.0881
61450SOL    HW2 2343   4.454   2.070   7.495  0.9986  0.5611 -0.2252
61451SOL     OW 2344  10.164   4.196   8.781 -0.0267 -0.2749 -0.4353
61451SOL    HW1 2345  10.161   4.156   8.694 -1.7901  0.8669 -0.9316
61451SOL    HW2 2346  10.258   4.204   8.800  0.3821 -1.2989 -1.8486
61452SOL     OW 2347  12.824   2.485   2.692  0.2306  0.2878 -0.9111
61452SOL    HW1 2348  12.842   2.422   2.622 -0.1297 -2.3555  1.2094
61452SOL    HW2 2349  12.866   2.448   2.769 -2.1550  1.2887  1.0238
61453SOL     OW 2350  10.126   3.697  11.410 -0.0963 -0.0042  0.3673
61453SOL    HW1 2351  10.170   3.634  11.467  1.3801  0.0593 -0.6303
61453SOL    HW2 2352  10.072   3.644  11.353 -0.7088 -0.1584  1.0813
61454SOL     OW 2353   4.710  12.889  13.528  0.2542 -0.1687  0.4469
61454SOL    HW1 2354   4.618  12.913  13.532  0.3655  0.3085  0.2322
61454SOL    HW2 2355   4.710  12.793  13.528 -0.1998 -0.1798  1.3317
61455SOL     OW 2356   2.316   0.699   6.987  0.0323  0.1569 -0.1061
61455SOL    HW1 2357   2.310   0.734   7.076  0.6874 -0.6719  0.2860
61455SOL    HW2 2358   2.240   0.640   6.980 -0.4628  0.8223 -0.3817
61456SOL     OW 2359  13.991   7.828   3.084  0.6750 -0.2563 -0.2548
61456SOL    HW1 2360  13.932   7.877   3.026  0.6620 -2.4480 -2.2515
61456SOL    HW2 2361  14.064   7.887   3.100 -0.3307  1.1833 -0.7487
61457SOL     OW 2362   4.660   7.216   9.325  0.1844 -0.2296  0.4436
61457SOL    HW1 2363   4.737   7.271   9.342 -0.2119  0.4409  0.1223
61457SOL    HW2 2364   4.587   7.278   9.322 -0.8678 -1.1019  3.7026
61458SOL     OW 2365   0.725   8.059   5.910  0.0715 -0.3693  1.0343
61458SOL    HW1 2366   0.703   8.005   5.834 -1.8408  1.6971  0.0251
61458SOL    HW2 2367   0.695   8.008   5.985 -1.9317 -0.6693  0.0917
61459SOL     OW 2368  10.054   5.520   8.599 -0.3208  0.0568 -0.4706
61459SOL    HW1 2369  10.111   5.587   8.637  0.3403 -1.2504  0.9248
61459SOL    HW2 2370   9.966   5.545   8.627 -0.3887  1.5700 -1.8687
61460SOL     OW 2371  12.162  11.348   9.553  0.0477 -0.1900  0.0521
61460SOL    HW1 2372  12.093  11.404   9.516  0.6103  1.9396  1.9657
61460SOL    HW2 2373  12.121  11.262   9.560 -2.1967  0.8292  0.4409
61461SOL     OW 2374   4.599   9.931  12.197 -0.3888  0.3843  0.3240
61461SOL    HW1 2375   4.651   9.894  12.125 -0.1199  0.0812  0.6664
61461SOL    HW2 2376   4.519   9.962  12.156  0.0242  0.7604 -0.1964
61462SOL     OW 2377  11.163   7.469   4.370  0.8267 -0.2096  0.1431
61462SOL    HW1 2378  11.192   7.560   4.363 -0.6820  0.3184  0.4177
61462SOL    HW2 2379  11.240   7.421   4.401  1.3611  1.1539  0.9945
61463SOL     OW 2380   2.266   2.630   9.344  0.0435  0.0779  0.3738
61463SOL    HW1 2381   2.327   2.586   9.284  0.7061  1.6044 -0.1128
61463SOL    HW2 2382   2.278   2.723   9.326 -1.9383  0.4436  0.7921
61464SOL     OW 2383  12.321   4.063   4.552 -0.2716 -0.6161  0.7362
61464SOL    HW1 2384  12.299   3.986   4.499 -3.1280  0.8855 -0.5063
61464SOL    HW2 2385  12.387   4.110   4.501  0.1973 -1.3531  0.6538
61465SOL     OW 2386   3.446   3.251   1.647 -0.3847 -0.5797 -0.1967
61465SOL    HW1 2387   3.419   3.160   1.660  0.2027 -0.6607  0.5115
61465SOL    HW2 2388   3.375   3.302   1.685 -0.3501 -0.7620  0.1246
61466SOL     OW 2389  11.109  12.738   0.535  0.1373  0.4171  0.1971
61466SOL    HW1 2390  11.034  12.798   0.540 -0.7769 -0.4530 -1.7441
61466SOL    HW2 2391  11.091  12.672   0.601 -0.5661  0.4877  0.0873
61467SOL     OW 2392   3.449   0.238  12.369 -0.2567  0.1789 -0.0335
61467SOL    HW1 2393   3.356   0.242  12.346  0.0425  0.7031 -1.1975
61467SOL    HW2 2394   3.495   0.244  12.286  0.8375 -0.0270  0.5333
61468SOL     OW 2395   5.342  12.906   6.439 -0.4739  0.3999 -0.4567
61468SOL    HW1 2396   5.269  12.915   6.500 -0.4599  0.3382 -0.4309
61468SOL    HW2 2397   5.344  12.813   6.417 -0.3961  0.3990 -0.4485
61469SOL     OW 2398  10.222   8.065  11.546 -0.2380 -0.3826 -0.6508
61469SOL    HW1 2399  10.309   8.101  11.563 -1.2202  1.4350  0.7809
61469SOL    HW2 2400  10.233   7.970  11.559  1.6946 -0.2833 -1.3270
61470SOL     OW 2401   2.104   6.110   8.496  0.5139 -0.1870 -0.0228
61470SOL    HW1 2402   2.027   6.136   8.546  1.2377  2.2895 -0.0425
61470SOL    HW2 2403   2.089   6.018   8.475 -1.9911 -0.0329  0.7294
61471SOL     OW 2404  11.617   0.144   9.816  0.2861 -0.2454  0.0520
61471SOL    HW1 2405  11.555   0.115   9.884 -0.1219 -0.5761 -0.4503
61471SOL    HW2 2406  11.673   0.208   9.860 -0.5001  0.1650  0.4871
61472SOL     OW 2407   2.971  13.854   1.907  0.3309 -0.4910 -0.2323
61472SOL    HW1 2408   3.046  13.837   1.964 -0.3258 -4.1643 -0.2543
61472SOL    HW2 2409   3.009  13.861   1.819  1.0571  2.7373  0.1960
61473SOL     OW 2410   8.362   5.331   6.938  0.0387  0.0451 -0.2277
61473SOL    HW1 2411   8.432   5.382   6.896 -0.9765  1.0571 -0.7255
61473SOL    HW2 2412   8.340   5.264   6.874 -1.0317  1.1638 -1.0627
61474SOL     OW 2413  14.027   9.331   8.116 -0.1023 -0.1098 -0.0216
61474SOL    HW1 2414  14.101   9.298   8.166 -0.3114  2.0198  1.8514
61474SOL    HW2 2415  14.010   9.418   8.152 -1.5901  0.7360 -2.4674
61475SOL     OW 2416   1.479   1.681   6.086  0.6525  0.4717  0.2547
61475SOL    HW1 2417   1.441   1.659   6.001  1.5131  0.2285 -0.0685
61475SOL    HW2 2418   1.404   1.678   6.146  0.1443  0.0290 -0.3795
61476SOL     OW 2419   7.988   8.965  12.303  0.5278 -0.2461  0.7628
61476SOL    HW1 2420   7.900   8.940  12.331  0.9503 -0.6668  1.7873
61476SOL    HW2 2421   7.985   9.061  12.299 -1.3291 -0.2617 -3.9507
61477SOL     OW 2422   9.728  10.419   0.005 -0.4296 -0.6135  0.1768
61477SOL    HW1 2423   9.647  10.411   0.055  0.1814 -0.6090  1.2128
61477SOL    HW2 2424   9.780  10.482   0.055  0.7343 -1.6157  0.2731
61478SOL     OW 2425   9.280  10.115   5.759  0.5714  0.2166 -0.0935
61478SOL    HW1 2426   9.229  10.153   5.689 -0.7256 -1.1985  0.0284
61478SOL    HW2 2427   9.313  10.032   5.723  0.2557 -0.3175  0.7973
61479SOL     OW 2428   2.762  10.706  13.170  0.1432 -0.2612 -0.0017
61479SOL    HW1 2429   2.718  10.688  13.088 -1.2043 -1.1949  0.8787
61479SOL    HW2 2430   2.770  10.620  13.212  1.7849  0.0439  0.3810
61480SOL     OW 2431  12.990   5.029   1.266 -0.5108  0.2496 -0.2476
61480SOL    HW1 2432  13.051   4.955   1.269  2.1706  2.2120 -1.5763
61480SOL    HW2 2433  12.903   4.989   1.265  0.7473 -2.7814  0.5425
61481SOL     OW 2434   1.195   9.656   2.235  0.4614  0.3073  0.2821
61481SOL    HW1 2435   1.136   9.623   2.303 -0.0309  0.7170  0.0593
61481SOL    HW2 2436   1.241   9.578   2.203  0.2281  0.0214  0.6412
61482SOL     OW 2437   9.017   9.636  11.864  0.2839  0.0210  0.7599
61482SOL    HW1 2438   9.081   9.690  11.817 -0.0025  0.1080  0.4737
61482SOL    HW2 2439   8.937   9.689  11.865  0.7037  0.6994  2.7030
61483SOL     OW 2440   5.381   0.871   9.848 -0.0204  0.6279 -0.2793
61483SOL    HW1 2441   5.458   0.816   9.866 -0.0260  0.3627 -1.0675
61483SOL    HW2 2442   5.345   0.837   9.767 -2.1326 -0.5208  1.0740
61484SOL     OW 2443   5.370   0.792  13.942 -0.3789  0.0793  0.3574
61484SOL    HW1 2444   5.428   0.820  13.871 -2.6270  1.9727 -0.8880
61484SOL    HW2 2445   5.324   0.716  13.908 -0.0402 -0.2267  0.5785
61485SOL     OW 2446   5.821   4.163   7.121 -0.1474  0.5907  0.2684
61485SOL    HW1 2447   5.915   4.166   7.104 -0.3533  1.1525 -0.9144
61485SOL    HW2 2448   5.802   4.246   7.165 -0.2734  1.0357 -0.6078
61486SOL     OW 2449   4.703   5.346   6.013 -0.0792  0.2498 -0.4742
61486SOL    HW1 2450   4.629   5.403   6.034 -0.5496 -1.4397  3.1814
61486SOL    HW2 2451   4.779   5.393   6.046  0.3179  1.0348 -2.3454
61487SOL     OW 2452  10.383   0.269  11.518  0.3334 -0.0484 -0.4271
61487SOL    HW1 2453  10.419   0.350  11.481  0.3862 -0.0435 -0.3658
61487SOL    HW2 2454  10.288   0.281  11.515  0.3485  0.5586  0.7736
61488SOL     OW 2455   5.926  12.027   8.130  0.4169  0.3136 -0.2898
61488SOL    HW1 2456   5.986  12.079   8.077  2.4472 -0.8082  0.7651
61488SOL    HW2 2457   5.882  12.090   8.187  0.9435  1.1096 -0.7550
61489SOL     OW 2458   7.559   6.055  11.687  0.4251 -0.4371  0.9220
61489SOL    HW1 2459   7.520   6.105  11.759 -3.3137 -1.1906 -0.3420
61489SOL    HW2 2460   7.520   5.968  11.694  0.4516 -0.7183 -1.6075
61490SOL     OW 2461  10.779  11.663   9.999 -0.2112  0.2868  0.3997
61490SOL    HW1 2462  10.729  11.692  10.075  0.7275  1.6050  0.5352
61490SOL    HW2 2463  10.866  11.700  10.011  0.2451 -0.3272 -0.8183
61491SOL     OW 2464   5.789   4.551   5.848 -0.3303 -0.3899  0.1308
61491SOL    HW1 2465   5.835   4.622   5.894  0.4167 -0.9734  0.3113
61491SOL    HW2 2466   5.858   4.506   5.799 -0.7165 -1.2781  0.3825
61492SOL     OW 2467   2.680   9.915   2.365  0.0388 -0.0580 -0.1181
61492SOL    HW1 2468   2.637   9.895   2.448  0.4986 -0.8589 -0.0637
61492SOL    HW2 2469   2.610   9.912   2.300  0.0660 -1.8629 -0.1079
61493SOL     OW 2470   9.562   9.729   9.343  0.9419 -0.1581  0.0916
61493SOL    HW1 2471   9.600   9.776   9.418  1.1586 -0.6786  0.3096
61493SOL    HW2 2472   9.621   9.655   9.330 -0.4723 -1.4891  0.9778
61494SOL     OW 2473   5.605   6.125   9.510  0.2733  0.0726 -0.4824
61494SOL    HW1 2474   5.651   6.201   9.474  2.1708 -1.0746 -0.6432
61494SOL    HW2 2475   5.653   6.050   9.476  0.0382 -1.1545  1.7124
61495SOL     OW 2476  10.412   2.888   1.679 -0.4933  0.2198 -0.1577
61495SOL    HW1 2477  10.461   2.966   1.703 -0.2054 -0.1079  0.3466
61495SOL    HW2 2478  10.370   2.911   1.597 -0.6115  0.9880  0.1076
61496SOL     OW 2479   3.121   8.787   8.009 -0.0838 -0.0620  0.6174
61496SOL    HW1 2480   3.047   8.819   7.957 -0.5956 -1.4370  0.4718
61496SOL    HW2 2481   3.118   8.838   8.089 -1.1969 -0.1093  0.6144
61497SOL     OW 2482   4.084  10.530  10.031  0.1900 -0.2434 -0.6325
61497SOL    HW1 2483   4.102  10.565   9.944 -0.9368 -1.2583 -1.2968
61497SOL    HW2 2484   3.993  10.503  10.028  0.0996 -0.2033  0.9097
61498SOL     OW 2485  12.829   7.677   5.520  0.3369 -0.0894  0.2460
61498SOL    HW1 2486  12.815   7.586   5.496  2.3242 -1.1700  2.7427
61498SOL    HW2 2487  12.915   7.698   5.486  0.9990 -0.0337  1.8657
61499SOL     OW 2488   0.613   1.287   4.334  0.0674  0.4921  0.2936
61499SOL    HW1 2489   0.566   1.211   4.368  0.2649  1.0107  1.8044
61499SOL    HW2 2490   0.545   1.352   4.316 -0.3077 -0.5772 -2.7186
61500SOL     OW 2491   5.995   2.171   0.947 -0.5300  0.2445 -0.8720
61500SOL    HW1 2492   5.918   2.125   0.978 -0.9922  1.8234  0.5168
61500SOL    HW2 2493   6.058   2.164   1.019 -0.3964  1.2383 -0.8781
61501SOL     OW 2494   6.665   8.410   1.090 -0.2488 -0.3895  0.6899
61501SOL    HW1 2495   6.633   8.446   1.173 -1.6513 -0.4220  0.1901
61501SOL    HW2 2496   6.738   8.354   1.114  0.0191  0.4048  1.7945
61502SOL     OW 2497   3.382   0.887   1.009  0.0793 -0.2172 -0.0746
61502SOL    HW1 2498   3.338   0.935   1.080  1.3572 -1.4598  1.6294
61502SOL    HW2 2499   3.474   0.885   1.035  0.7261 -0.0472 -2.1945
61503SOL     OW 2500  10.377  11.938  12.412  0.0699  0.3213 -0.9132
61503SOL    HW1 2501  10.397  12.029  12.390  0.8419  0.5979  0.7813
61503SOL    HW2 2502  10.298  11.943  12.465  1.2381  0.2581  0.9205
61504SOL     OW 2503   4.099   3.122   3.845 -0.1693  0.2143 -0.3204
61504SOL    HW1 2504   4.021   3.146   3.795 -0.4640 -0.5109 -0.2139
61504SOL    HW2 2505   4.075   3.136   3.936 -0.6654 -1.3331 -0.1896
61505SOL     OW 2506   3.526   6.903   9.205 -0.4015 -0.5974  0.5445
61505SOL    HW1 2507   3.519   6.998   9.209  1.0147 -0.3827 -1.0323
61505SOL    HW2 2508   3.620   6.886   9.213 -0.7994 -2.0300  2.9469
61506SOL     OW 2509  11.424   2.558   9.017  0.5342 -0.7151  0.0618
61506SOL    HW1 2510  11.406   2.494   9.086  1.3405 -1.0387 -0.0134
61506SOL    HW2 2511  11.470   2.629   9.062  0.8571 -0.8227 -0.0945
61507SOL     OW 2512   2.522   8.151  13.792 -0.7355  0.1703  0.2310
61507SOL    HW1 2513   2.431   8.135  13.818 -0.1786  0.4462  2.5322
61507SOL    HW2 2514   2.556   8.210  13.859  0.9379  0.6822 -1.0186
61508SOL     OW 2515   8.680   3.791   3.893  0.3299 -0.5409 -0.1492
61508SOL    HW1 2516   8.592   3.755   3.908 -0.6471  0.8574 -2.0702
61508SOL    HW2 2517   8.697   3.846   3.969 -1.3186  0.6481 -0.5736
61509SOL     OW 2518   3.987  12.794   8.978  0.5800 -0.2023  0.6477
61509SOL    HW1 2519   4.000  12.754   9.065  2.0536 -0.0319  0.5345
61509SOL    HW2 2520   3.900  12.831   8.982  0.1670 -1.1996  1.6611
61510SOL     OW 2521   7.543   9.156   6.449  0.2803  0.3953 -0.0940
61510SOL    HW1 2522   7.579   9.211   6.518  0.4626  0.6359 -0.3803
61510SOL    HW2 2523   7.619   9.131   6.396 -0.1109  2.1135 -1.5816
61511SOL     OW 2524   5.120  12.034   0.085 -0.1959  0.0119  0.5673
61511SOL    HW1 2525   5.038  12.019   0.133  0.2036  1.2463  1.7137
61511SOL    HW2 2526   5.132  12.129   0.088  0.5057 -0.0154 -0.9194
61512SOL     OW 2527   8.966   4.111   8.728 -0.0987 -0.4946  0.0515
61512SOL    HW1 2528   9.021   4.182   8.695 -1.9935  0.8458 -0.3577
61512SOL    HW2 2529   8.915   4.151   8.798 -1.1797 -1.4543 -0.1614
61513SOL     OW 2530  12.506  12.536   3.385 -0.3475 -0.7646  0.8340
61513SOL    HW1 2531  12.570  12.466   3.401 -0.6095 -1.3028 -0.3834
61513SOL    HW2 2532  12.557  12.617   3.393  0.7771 -1.2076 -1.0667
61514SOL     OW 2533  12.020   5.409   2.560  0.0521  0.1332 -0.3337
61514SOL    HW1 2534  12.045   5.493   2.521 -0.5240  0.6033  0.2732
61514SOL    HW2 2535  11.938   5.428   2.607  1.9683  0.2825  3.3046
61515SOL     OW 2536  12.042   6.375   1.846 -0.2486  0.5128  0.0077
61515SOL    HW1 2537  11.975   6.364   1.913  0.2421 -1.2490  0.2590
61515SOL    HW2 2538  12.061   6.286   1.816  0.8050  1.1149 -1.2254
61516SOL     OW 2539   2.555  12.959   9.339  0.0212  0.0976 -0.2749
61516SOL    HW1 2540   2.634  12.906   9.343  0.4372  0.7054 -0.2163
61516SOL    HW2 2541   2.578  13.040   9.385 -0.1990  0.8182 -1.3825
61517SOL     OW 2542   4.071   1.807   4.795  0.1568  0.4749  0.4846
61517SOL    HW1 2543   3.994   1.752   4.788  1.4921 -1.2637 -3.4638
61517SOL    HW2 2544   4.054   1.880   4.735  1.4820  0.0572 -0.4585
61518SOL     OW 2545  11.837  13.761   5.071 -0.1045 -0.0802 -0.3447
61518SOL    HW1 2546  11.877  13.727   4.991  1.9085 -2.5343  1.5363
61518SOL    HW2 2547  11.840  13.688   5.133  1.2212  2.4729  2.9118
61519SOL     OW 2548   9.184   0.698  10.823  0.3786 -0.0534 -0.5624
61519SOL    HW1 2549   9.223   0.762  10.764 -1.2196  0.1117 -1.4701
61519SOL    HW2 2550   9.097   0.681  10.787  0.1721 -1.5503  0.5540
61520SOL     OW 2551   5.870   0.999   8.823  0.3422 -0.3107  0.3133
61520SOL    HW1 2552   5.788   0.989   8.775  0.0597  0.5911  0.5752
61520SOL    HW2 2553   5.935   0.950   8.772  0.3623  1.7267 -1.7952
61521SOL     OW 2554   5.006   5.549   0.435  0.3302 -0.3411  0.4664
61521SOL    HW1 2555   5.043   5.575   0.351  0.4833 -1.2952  0.2254
61521SOL    HW2 2556   4.912   5.555   0.423  0.3717  1.4172  0.8577
61522SOL     OW 2557   8.390   3.737   8.115  0.2302 -0.5475  0.3239
61522SOL    HW1 2558   8.468   3.791   8.124 -0.0448 -0.4164  2.3205
61522SOL    HW2 2559   8.402   3.665   8.177 -0.8606 -0.9957  0.0580
61523SOL     OW 2560  10.193   2.360  13.054 -0.3680 -0.4668  0.0945
61523SOL    HW1 2561  10.118   2.341  13.112 -1.2425 -0.1948 -0.9093
61523SOL    HW2 2562  10.175   2.447  13.020  0.1739 -0.5899 -0.5235
61524SOL     OW 2563   3.611   7.602   5.001 -0.2089  0.2709  0.7866
61524SOL    HW1 2564   3.640   7.693   5.010 -0.9675  0.5755  0.2535
61524SOL    HW2 2565   3.515   7.607   5.002 -0.3244 -0.7785  3.2098
61525SOL     OW 2566   0.580  14.108  12.488 -0.6175  0.1401 -1.3309
61525SOL    HW1 2567   0.626  14.137  12.566  1.5592 -1.9507 -1.7166
61525SOL    HW2 2568   0.566  14.188  12.437 -1.0887  1.3723  0.6595
61526SOL     OW 2569  12.710  14.027  10.798  0.6559 -0.0590 -0.0739
61526SOL    HW1 2570  12.698  14.092  10.729 -1.0529  0.4750  0.6966
61526SOL    HW2 2571  12.795  14.049  10.837  0.4283  1.2427 -0.2869
61527SOL     OW 2572  12.305   3.081  10.184 -0.5380 -0.3102  0.2902
61527SOL    HW1 2573  12.239   3.149  10.171 -0.9136 -0.0312  3.0686
61527SOL    HW2 2574  12.384   3.116  10.142 -1.6476  0.1227 -1.5651
61528SOL     OW 2575   5.652   1.831   7.357  0.5261 -0.9817  0.0094
61528SOL    HW1 2576   5.679   1.919   7.386  1.8795 -0.7141 -1.8771
61528SOL    HW2 2577   5.598   1.798   7.429 -0.8383  1.7575  0.3965
61529SOL     OW 2578   4.800   4.640  11.490  0.0139 -0.0670  0.2129
61529SOL    HW1 2579   4.709   4.611  11.498  0.2214 -0.3452  2.0044
61529SOL    HW2 2580   4.852   4.560  11.496  0.4032  0.0924 -0.7730
61530SOL     OW 2581   5.210   5.287   9.167  0.6083 -0.1861  0.7068
61530SOL    HW1 2582   5.245   5.279   9.256  1.9069 -2.5586  0.0557
61530SOL    HW2 2583   5.288   5.287   9.111 -0.1784  1.3667 -0.4682
61531SOL     OW 2584   9.347  14.114   6.222 -0.2057 -0.0000  0.2028
61531SOL    HW1 2585   9.256  14.105   6.193 -0.0810 -0.1065 -0.1656
61531SOL    HW2 2586   9.345  14.183   6.289 -0.3941  0.8088 -0.6138
61532SOL     OW 2587   5.292   4.511  10.609  0.2731 -0.8094  0.6893
61532SOL    HW1 2588   5.205   4.480  10.633 -0.2370  0.7018  0.9059
61532SOL    HW2 2589   5.288   4.606  10.620  1.8145 -0.6580  0.2595
61533SOL     OW 2590   9.824   0.171   5.516  0.4711  0.3222 -0.6160
61533SOL    HW1 2591   9.742   0.157   5.469  0.2436  0.4917 -0.2764
61533SOL    HW2 2592   9.872   0.234   5.462 -0.8803  2.5475  0.6180
61534SOL     OW 2593   2.059   5.614  11.228 -0.3597 -0.4269 -0.0672
61534SOL    HW1 2594   2.015   5.529  11.229 -1.2946  0.0308  0.9705
61534SOL    HW2 2595   2.104   5.619  11.312 -0.9328  0.3858  0.2113
61535SOL     OW 2596   2.085   1.302   4.330  0.2759 -0.4351 -0.2871
61535SOL    HW1 2597   2.046   1.215   4.337  1.2581 -0.9342 -0.7157
61535SOL    HW2 2598   2.011   1.361   4.317 -0.3750 -1.2608 -0.4085
61536SOL     OW 2599  10.515   9.497   8.099  0.7088 -0.6756 -0.2044
61536SOL    HW1 2600  10.597   9.536   8.126  1.0325 -0.1771 -1.7769
61536SOL    HW2 2601  10.455   9.572   8.087  0.2261 -0.9763  0.2858
61537SOL     OW 2602   6.868   0.072   7.423  0.1655  0.5088  0.1895
61537SOL    HW1 2603   6.777   0.099   7.411  0.1448 -0.2515 -1.6459
61537SOL    HW2 2604   6.867  -0.023   7.411  1.2768  0.5627 -0.4614
61538SOL     OW 2605  10.044   4.907   9.863 -0.2530 -0.3427  0.1084
61538SOL    HW1 2606  10.047   4.989   9.814 -2.0966  0.2505  0.9337
61538SOL    HW2 2607  10.006   4.930   9.947 -3.7943 -2.4786 -0.7102
61539SOL     OW 2608   7.044  11.147  13.949  0.8488  0.0012  0.3383
61539SOL    HW1 2609   7.067  11.119  14.038 -1.4042 -0.9585  0.7000
61539SOL    HW2 2610   7.050  11.067  13.896 -2.5302 -0.6488  0.7175
61540SOL     OW 2611   0.296  13.764  10.304 -0.0620  0.2121 -0.3767
61540SOL    HW1 2612   0.234  13.798  10.368  1.0612 -0.1189  0.9335
61540SOL    HW2 2613   0.335  13.842  10.264  0.3385  0.4485  0.4588
61541SOL     OW 2614   8.222  12.332  10.792 -0.0401 -0.1263  0.0804
61541SOL    HW1 2615   8.247  12.249  10.752 -0.7960 -0.0129 -0.6584
61541SOL    HW2 2616   8.219  12.313  10.886 -0.8196 -1.1148 -0.1274
61542SOL     OW 2617   1.943   0.764   4.904 -0.3597  0.2330  0.0266
61542SOL    HW1 2618   1.962   0.689   4.847  0.4779 -0.3593  1.0620
61542SOL    HW2 2619   2.018   0.769   4.962 -0.5031  1.7661  0.1067
61543SOL     OW 2620   8.946   1.820   8.210 -0.2614 -0.5286  0.4364
61543SOL    HW1 2621   8.988   1.785   8.289 -1.2131 -1.3122  0.6119
61543SOL    HW2 2622   8.869   1.866   8.242 -0.5038 -0.6187 -0.0141
61544SOL     OW 2623   9.879   1.459   9.583  0.6299  0.1202 -0.4159
61544SOL    HW1 2624   9.851   1.522   9.649 -0.6761  1.1184 -1.8611
61544SOL    HW2 2625   9.820   1.385   9.594  0.0089  0.5438 -0.8428
61545SOL     OW 2626   6.248  11.355  14.120  0.2324 -0.4080  0.0074
61545SOL    HW1 2627   6.243  11.433  14.065  2.4432 -0.6706 -0.6698
61545SOL    HW2 2628   6.184  11.295  14.083 -0.8427  0.7338 -0.0304
61546SOL     OW 2629   6.439   5.940   9.668  0.1800 -0.4836  0.7488
61546SOL    HW1 2630   6.419   6.029   9.639  1.8120 -0.6601 -1.1725
61546SOL    HW2 2631   6.487   5.953   9.750 -0.8725  0.2971  1.2680
61547SOL     OW 2632   3.225   0.176   5.011  0.2292 -0.1608 -0.1884
61547SOL    HW1 2633   3.308   0.128   5.007  1.0255  0.9535  1.6858
61547SOL    HW2 2634   3.164   0.115   5.053  0.8715 -0.0456  0.9506
61548SOL     OW 2635  10.155   7.056   5.419 -0.0754  0.2130 -0.4922
61548SOL    HW1 2636  10.182   7.069   5.328 -1.4816 -1.5077 -1.2131
61548SOL    HW2 2637  10.230   7.087   5.471  1.4193 -0.2452 -2.2663
61549SOL     OW 2638   3.376   5.705   4.367 -0.7209 -0.6594 -0.1843
61549SOL    HW1 2639   3.379   5.757   4.286  2.0031 -1.2054 -0.5359
61549SOL    HW2 2640   3.363   5.615   4.338  0.3378 -0.8668 -0.0682
61550SOL     OW 2641   0.061   8.680   3.093  0.4237 -0.2985 -0.0008
61550SOL    HW1 2642   0.002   8.715   3.160  0.4782 -0.1259 -0.0426
61550SOL    HW2 2643   0.149   8.698   3.126  0.5138  2.2699 -1.3344
61551SOL     OW 2644   1.303  10.955   1.914 -0.4481 -0.1993  0.3061
61551SOL    HW1 2645   1.352  10.974   1.994  0.4091  0.5543 -0.3821
61551SOL    HW2 2646   1.264  11.039   1.889 -1.4746 -0.6251  0.4107
61552SOL     OW 2647   4.850  10.527  12.934 -0.5286 -0.9269 -0.7236
61552SOL    HW1 2648   4.917  10.458  12.934 -1.3959 -1.7915 -0.9040
61552SOL    HW2 2649   4.820  10.530  13.025 -0.5202 -0.8137 -0.7245
61553SOL     OW 2650  10.475  13.562  11.286  0.3288 -0.2444 -0.2785
61553SOL    HW1 2651  10.490  13.551  11.192  0.1931  0.3880 -0.3795
61553SOL    HW2 2652  10.453  13.655  11.296  0.5411 -0.2630  0.4071
61554SOL     OW 2653   6.631  10.880   7.096 -0.1864 -0.3241  0.1589
61554SOL    HW1 2654   6.674  10.953   7.139 -1.9219  2.3724 -2.2678
61554SOL    HW2 2655   6.701  10.833   7.050  0.7989  0.6663  0.6300
61555SOL     OW 2656   7.440  10.737   7.930 -0.2994  0.4505 -0.4057
61555SOL    HW1 2657   7.402  10.650   7.943  0.1514  0.2632 -0.3122
61555SOL    HW2 2658   7.494  10.727   7.852 -1.5478  1.0858 -1.3777
61556SOL     OW 2659  10.098  11.688  11.333 -0.4084  0.2607  0.3419
61556SOL    HW1 2660  10.164  11.720  11.394  1.4310 -0.7410 -1.0166
61556SOL    HW2 2661  10.131  11.712  11.247 -3.1511  2.0471 -0.3702
61557SOL     OW 2662   6.017  14.100  13.431 -0.1176 -0.1107  0.3093
61557SOL    HW1 2663   6.002  14.141  13.516  0.6607  1.2777 -0.1954
61557SOL    HW2 2664   5.938  14.120  13.381 -1.3408 -2.3506  1.1621
61558SOL     OW 2665   0.632  10.957   0.210 -0.0916  0.0787 -0.2784
61558SOL    HW1 2666   0.645  11.006   0.129  0.1404  0.5876  0.0639
61558SOL    HW2 2667   0.629  10.865   0.183 -0.3579  0.2700 -0.9007
61559SOL     OW 2668  13.223   9.986  13.372  0.4973  0.3465 -0.7087
61559SOL    HW1 2669  13.179   9.927  13.312  1.2992  0.3517 -1.3154
61559SOL    HW2 2670  13.204   9.950  13.459 -2.2552  1.4104 -0.7829
61560SOL     OW 2671  12.795  12.391   7.306  0.4268 -0.2960 -0.0790
61560SOL    HW1 2672  12.792  12.381   7.401  2.9201 -0.5694  0.0285
61560SOL    HW2 2673  12.874  12.441   7.289 -1.3140  2.0524 -1.9255
61561SOL     OW 2674   6.423  13.180   7.446  0.0223 -0.1179 -0.0523
61561SOL    HW1 2675   6.480  13.249   7.481 -0.2762 -0.7350  1.7894
61561SOL    HW2 2676   6.456  13.100   7.487 -1.3753 -0.6591  0.0560
61562SOL     OW 2677   0.769  10.981   6.984 -0.2653 -0.0235  0.0897
61562SOL    HW1 2678   0.745  11.071   7.005  2.0867  0.2904  1.8637
61562SOL    HW2 2679   0.691  10.929   7.004 -0.9517  1.3634  1.1485
61563SOL     OW 2680  12.541   3.015   2.654 -0.2788  0.1512  0.0726
61563SOL    HW1 2681  12.463   3.064   2.627 -0.9574 -0.8377  0.1377
61563SOL    HW2 2682  12.512   2.923   2.653  1.3110 -0.3969 -1.3966
61564SOL     OW 2683   0.533   6.621   9.958  0.7016 -0.1926 -0.1567
61564SOL    HW1 2684   0.608   6.561   9.950  0.0367 -1.0850  0.1616
61564SOL    HW2 2685   0.557   6.679  10.031  0.8637 -0.8228  0.3069
61565SOL     OW 2686  12.735   4.329   7.362 -0.3443  0.3793 -0.1905
61565SOL    HW1 2687  12.664   4.273   7.331  0.5300 -0.2560 -1.0912
61565SOL    HW2 2688  12.815   4.282   7.339  0.4012  1.7502 -0.5084
61566SOL     OW 2689  13.866   2.815   8.634 -0.0029  0.3282  0.1201
61566SOL    HW1 2690  13.939   2.877   8.627 -0.6363  1.4359  2.4514
61566SOL    HW2 2691  13.907   2.732   8.657  0.6007  0.6786  0.3442
61567SOL     OW 2692   3.623   9.377   5.652 -0.1150  0.3348 -0.1135
61567SOL    HW1 2693   3.591   9.393   5.741 -0.3608  1.3502 -0.3737
61567SOL    HW2 2694   3.545   9.356   5.602 -0.0401  0.2546 -0.1966
61568SOL     OW 2695   3.048   2.735   4.986 -0.2269 -0.2152 -0.0234
61568SOL    HW1 2696   3.027   2.817   5.031  2.3630 -0.3758  1.7229
61568SOL    HW2 2697   3.119   2.758   4.926 -1.4482 -0.6748 -1.7252
61569SOL     OW 2698   1.348   5.951  10.610 -0.3841  0.5431  0.8077
61569SOL    HW1 2699   1.303   5.904  10.680 -0.2183 -0.8347  0.0344
61569SOL    HW2 2700   1.408   5.886  10.573  0.6306  1.6959  0.3803
61570SOL     OW 2701  10.648  12.624   4.757  0.4870 -0.7147 -0.4223
61570SOL    HW1 2702  10.731  12.631   4.711  1.3544  1.6957  1.2513
61570SOL    HW2 2703  10.592  12.691   4.717 -0.6905 -2.2836 -1.5060
61571SOL     OW 2704  10.179   5.803  13.567  0.6091 -0.2170  0.0051
61571SOL    HW1 2705  10.181   5.712  13.598 -2.6385 -0.2714  0.4908
61571SOL    HW2 2706  10.204   5.855  13.643 -0.4536 -0.6353  0.6731
61572SOL     OW 2707   3.829  11.944  11.653  0.8208 -0.1814 -0.3610
61572SOL    HW1 2708   3.848  11.902  11.568  0.5397 -1.7247  0.2980
61572SOL    HW2 2709   3.893  11.905  11.713 -0.2663 -0.6267  0.5473
61573SOL     OW 2710   7.293   2.489   8.445 -0.2723 -0.1436 -0.3375
61573SOL    HW1 2711   7.207   2.450   8.460  0.0056 -0.9105 -0.7105
61573SOL    HW2 2712   7.322   2.517   8.532 -1.7866  2.0791 -0.4627
61574SOL     OW 2713   6.888   1.508  14.080 -0.3431  0.0118 -0.4943
61574SOL    HW1 2714   6.975   1.548  14.081 -0.6243  0.7396 -1.7819
61574SOL    HW2 2715   6.901   1.421  14.117  1.1571 -0.2897 -1.6123
61575SOL     OW 2716   7.933   8.668  12.958  0.7177 -1.4074  0.0934
61575SOL    HW1 2717   8.001   8.659  13.024 -0.2361  0.3085  1.3933
61575SOL    HW2 2718   7.854   8.631  12.999  0.0980 -0.2470  0.0057
61576SOL     OW 2719   0.064   4.365   2.495 -0.3733 -0.4962  0.2035
61576SOL    HW1 2720   0.123   4.390   2.424  0.3851 -3.3780 -0.2905
61576SOL    HW2 2721   0.045   4.448   2.541  1.8426  0.9187 -1.2679
61577SOL     OW 2722   3.971  11.531   7.936 -0.0264  0.1802 -0.3927
61577SOL    HW1 2723   3.942  11.597   7.998 -1.2876  0.4290 -1.2078
61577SOL    HW2 2724   4.064  11.550   7.921 -0.2606  1.4593 -0.2641
61578SOL     OW 2725  13.490   2.096   9.271  0.6013  0.3223 -0.0425
61578SOL    HW1 2726  13.528   2.074   9.356  0.0372 -2.1104 -0.3399
61578SOL    HW2 2727  13.425   2.163   9.291  1.2211  0.5665  1.2748
61579SOL     OW 2728   2.248   8.400   5.810  0.0852  0.7272 -0.2224
61579SOL    HW1 2729   2.246   8.318   5.858  0.7115 -0.0122 -1.4271
61579SOL    HW2 2730   2.156   8.417   5.788  0.2054 -1.4949 -2.9488
61580SOL     OW 2731   0.548  10.902   4.955 -0.6119 -0.5332  0.2224
61580SOL    HW1 2732   0.472  10.887   4.898 -1.8696  0.3987  1.5993
61580SOL    HW2 2733   0.594  10.976   4.915 -1.1200 -0.2965  0.0726
61581SOL     OW 2734   4.504  12.729  11.184  0.3565  0.0897 -0.2037
61581SOL    HW1 2735   4.486  12.655  11.126  1.1447 -1.1348  1.0218
61581SOL    HW2 2736   4.463  12.705  11.267  0.1785  1.2899  0.0746
61582SOL     OW 2737  10.215  11.116   7.196 -0.1096 -0.2955  0.3052
61582SOL    HW1 2738  10.171  11.056   7.258 -1.6084  0.1896 -0.2368
61582SOL    HW2 2739  10.150  11.184   7.180  0.2773 -0.3570 -1.7246
61583SOL     OW 2740   9.097   4.205   9.069  0.2827  0.4814 -0.0963
61583SOL    HW1 2741   9.090   4.225   9.163 -0.1106  1.1786 -0.2704
61583SOL    HW2 2742   9.131   4.116   9.066  1.4923  0.8864  0.7179
61584SOL     OW 2743   4.072   1.907  12.697 -0.7132 -0.2104 -0.2733
61584SOL    HW1 2744   4.143   1.845  12.679 -1.3291 -1.3667  1.1136
61584SOL    HW2 2745   4.115   1.979  12.744 -0.5018 -1.1338  0.9945
61585SOL     OW 2746   3.986   6.609   8.911  0.0502  0.5054 -0.0044
61585SOL    HW1 2747   4.070   6.605   8.956 -0.6178 -0.4646  1.2305
61585SOL    HW2 2748   3.921   6.599   8.981 -1.0161 -1.8151 -1.2045
61586SOL     OW 2749  12.367   9.366  13.465  0.6448  0.4368 -0.1749
61586SOL    HW1 2750  12.366   9.282  13.420 -1.4407  1.2045 -1.7020
61586SOL    HW2 2751  12.328   9.348  13.551 -0.1872 -0.1024 -0.6499
61587SOL     OW 2752   0.541   5.868   8.764  0.3132 -0.0309  0.3511
61587SOL    HW1 2753   0.488   5.889   8.841  0.2701  0.1820  0.2663
61587SOL    HW2 2754   0.515   5.934   8.700 -2.1152 -2.1391 -1.0418
61588SOL     OW 2755   6.880   7.383   8.436  0.4623 -0.1959 -0.2349
61588SOL    HW1 2756   6.968   7.347   8.444  0.9120  1.0675  0.8567
61588SOL    HW2 2757   6.851   7.357   8.349  2.2079 -0.0196 -0.8976
61589SOL     OW 2758   9.205   7.179   3.107  0.2394  0.0169  0.0486
61589SOL    HW1 2759   9.289   7.141   3.081 -0.0426 -0.2219 -0.5160
61589SOL    HW2 2760   9.227   7.269   3.133  1.0775 -0.7789  2.3819
61590SOL     OW 2761   1.216  14.123  11.571 -0.3531 -0.5171 -0.0574
61590SOL    HW1 2762   1.282  14.054  11.568 -0.4162 -0.6043  0.4497
61590SOL    HW2 2763   1.244  14.187  11.505 -0.3714 -1.0935 -0.6326
61591SOL     OW 2764  13.858  12.263   3.067  0.3089  0.0372 -0.3066
61591SOL    HW1 2765  13.882  12.352   3.093 -0.0953 -0.3661  1.6097
61591SOL    HW2 2766  13.876  12.259   2.973  1.1663  1.8583 -0.2522
61592SOL     OW 2767  10.875  10.837   3.764  0.2865  0.2466  0.2414
61592SOL    HW1 2768  10.844  10.884   3.687 -0.9953  0.2572  0.7398
61592SOL    HW2 2769  10.952  10.885   3.792 -1.0138  2.1217  0.7793
61593SOL     OW 2770   0.204  10.227   1.206  0.4581 -0.0350  0.2664
61593SOL    HW1 2771   0.157  10.216   1.289 -0.0964 -1.2744 -0.1813
61593SOL    HW2 2772   0.274  10.163   1.208  1.0929  0.6380  0.1996
61594SOL     OW 2773  13.973  13.342   7.129  0.2965  0.4026  0.0972
61594SOL    HW1 2774  14.011  13.396   7.060  2.7784 -0.8182  0.4111
61594SOL    HW2 2775  14.048  13.313   7.181 -1.2287 -0.9945  1.6394
61595SOL     OW 2776  10.031   7.821   6.754  0.3117  0.4133  0.1946
61595SOL    HW1 2777  10.121   7.837   6.727  0.5879 -1.1139  0.1088
61595SOL    HW2 2778  10.038   7.759   6.826 -0.5966  1.8064  1.5365
61596SOL     OW 2779  12.848   6.586   1.193  0.1171 -0.2408 -0.0683
61596SOL    HW1 2780  12.801   6.547   1.120  1.1516 -1.2085 -0.2322
61596SOL    HW2 2781  12.881   6.669   1.159 -3.2559  1.6226  0.6775
61597SOL     OW 2782   2.293  12.615   5.086  0.2127 -0.1502  0.0574
61597SOL    HW1 2783   2.378  12.594   5.047  0.5232  1.5337 -0.2629
61597SOL    HW2 2784   2.298  12.709   5.103 -1.2167 -0.2171  0.9890
61598SOL     OW 2785  10.890   8.173   9.999  0.7258  0.0928  0.1019
61598SOL    HW1 2786  10.923   8.203  10.084 -0.2849  4.0192 -0.6924
61598SOL    HW2 2787  10.801   8.209   9.994 -0.3966 -2.6146 -1.4440
61599SOL     OW 2788   2.305   5.280   0.896 -0.1529  0.2176  0.3353
61599SOL    HW1 2789   2.239   5.340   0.861 -0.5110 -1.1677 -1.5529
61599SOL    HW2 2790   2.385   5.302   0.847 -0.9001 -2.4152 -2.4054
61600SOL     OW 2791   1.019  12.280  10.412 -0.1473  0.0127  0.5056
61600SOL    HW1 2792   1.008  12.193  10.373 -3.6766  0.5393 -0.0082
61600SOL    HW2 2793   1.071  12.265  10.490 -2.3729 -2.9880  1.5802
61601SOL     OW 2794  11.740   0.455   1.302  0.2765  0.4757  0.0479
61601SOL    HW1 2795  11.792   0.535   1.296  1.3931 -0.1545  1.0846
61601SOL    HW2 2796  11.801   0.388   1.330 -0.9117 -0.4885  0.4346
61602SOL     OW 2797   4.498   8.932  10.525 -0.3931 -0.3527 -0.2077
61602SOL    HW1 2798   4.511   8.844  10.490 -0.1511 -0.1452 -0.6499
61602SOL    HW2 2799   4.584   8.958  10.557 -0.7816 -0.8593  1.3317
61603SOL     OW 2800   3.304   2.583   3.475  0.1195  0.6267  0.4517
61603SOL    HW1 2801   3.342   2.612   3.558 -0.2847 -1.0410  1.2555
61603SOL    HW2 2802   3.380   2.560   3.420  0.4817  3.3074 -0.3431
61604SOL     OW 2803   9.199  12.484  13.306  0.2711 -0.0302 -0.5062
61604SOL    HW1 2804   9.243  12.540  13.370 -0.7061  1.0597 -0.7591
61604SOL    HW2 2805   9.267  12.464  13.241  1.0301 -0.4093  0.3861
61605SOL     OW 2806  13.455   0.727   7.018 -0.1708  0.6234  0.1335
61605SOL    HW1 2807  13.541   0.731   6.976 -0.2893  1.3695 -0.0544
61605SOL    HW2 2808  13.450   0.808   7.069 -1.1181  1.0299 -0.5748
61606SOL     OW 2809   4.012   9.717   4.065  0.0597 -0.4680 -0.0663
61606SOL    HW1 2810   4.062   9.785   4.110  1.0178 -1.1228 -0.1067
61606SOL    HW2 2811   3.956   9.765   4.003 -0.0262  0.3341  0.6195
61607SOL     OW 2812   8.992   6.004   5.497  0.1644  0.4143 -0.2966
61607SOL    HW1 2813   8.908   6.036   5.462  0.0913 -0.8970 -1.3955
61607SOL    HW2 2814   9.041   5.977   5.419  1.8796  1.7113  0.2851
61608SOL     OW 2815   8.141   7.262   1.390  0.0617 -0.0219  0.2853
61608SOL    HW1 2816   8.171   7.353   1.392  1.5645 -0.4590 -0.8133
61608SOL    HW2 2817   8.092   7.252   1.472 -1.4758  2.1770 -0.2594
61609SOL     OW 2818   2.058   1.300   2.216  0.4927  0.4581  0.2766
61609SOL    HW1 2819   2.084   1.307   2.124  0.4157 -0.6912  0.1547
61609SOL    HW2 2820   2.068   1.208   2.237 -0.1757  0.5838  1.2288
61610SOL     OW 2821  13.264   4.063  11.047  0.1514 -0.6480  0.1527
61610SOL    HW1 2822  13.329   4.038  10.981 -1.4056 -1.6051 -1.0931
61610SOL    HW2 2823  13.193   4.000  11.037 -2.0766  1.7199 -0.2158
61611SOL     OW 2824   9.281  10.330   9.286 -0.1560 -0.2868 -0.0548
61611SOL    HW1 2825   9.349  10.270   9.316 -0.7417 -0.8001  0.2610
61611SOL    HW2 2826   9.223  10.276   9.233 -1.5847 -0.3932  1.5274
61612SOL     OW 2827   1.565   4.358  11.935 -0.2183  0.0339  0.5804
61612SOL    HW1 2828   1.583   4.297  11.864 -1.4866  0.0245  0.2361
61612SOL    HW2 2829   1.561   4.303  12.014  0.9103  0.0080  0.6363
61613SOL     OW 2830   3.171   8.390  12.740 -0.1860  0.5184 -0.2254
61613SOL    HW1 2831   3.225   8.312  12.727 -0.4851  0.6211 -2.3792
61613SOL    HW2 2832   3.087   8.356  12.770  0.3317  0.1930  0.9149
61614SOL     OW 2833   5.312   5.823   8.347  0.2149 -0.1559 -0.1372
61614SOL    HW1 2834   5.259   5.857   8.274 -1.1383  1.8782  1.6793
61614SOL    HW2 2835   5.375   5.893   8.365 -0.2956 -0.0617  1.4030
61615SOL     OW 2836   8.893   8.078  11.073 -0.0551  0.3552  0.2355
61615SOL    HW1 2837   8.973   8.046  11.031 -0.3667  1.5618 -1.3769
61615SOL    HW2 2838   8.895   8.172  11.060 -2.1099  0.3370 -0.5531
61616SOL     OW 2839  10.601   7.459  10.760  0.3908  0.2865 -0.5437
61616SOL    HW1 2840  10.608   7.421  10.672  0.1449  2.0085 -1.3668
61616SOL    HW2 2841  10.679   7.513  10.769  1.5043 -1.5047  1.1999
61617SOL     OW 2842   9.659   4.954   2.011  0.1143  0.0099  0.1918
61617SOL    HW1 2843   9.742   4.920   1.977 -0.9135  1.2356 -4.1171
61617SOL    HW2 2844   9.606   4.876   2.028  0.8040 -0.7154 -0.9109
61618SOL     OW 2845  12.558   6.507  10.950  0.0486 -0.0324  0.7465
61618SOL    HW1 2846  12.471   6.501  10.991 -0.0041 -2.3769  0.4368
61618SOL    HW2 2847  12.555   6.443  10.879  2.1942 -0.5630  1.0692
61619SOL     OW 2848   0.333   9.826   5.415  0.2234  0.6489  0.3282
61619SOL    HW1 2849   0.269   9.860   5.477 -0.9272 -1.5136  0.4507
61619SOL    HW2 2850   0.377   9.903   5.380 -2.8169  2.3549 -0.1455
61620SOL     OW 2851  13.982   8.212  10.662  0.0590  0.1554  0.2744
61620SOL    HW1 2852  13.945   8.291  10.701  0.4087  0.5135 -0.1119
61620SOL    HW2 2853  13.908   8.152  10.656  0.4154 -0.7584  3.5486
61621SOL     OW 2854   4.091   4.274   3.086 -0.0981  0.3473  0.1455
61621SOL    HW1 2855   4.061   4.365   3.087 -1.2917 -0.0381  0.5332
61621SOL    HW2 2856   4.047   4.233   3.160  0.2719 -0.6059 -0.1452
61622SOL     OW 2857   1.070  13.729   6.018  0.1226  0.0481 -0.2250
61622SOL    HW1 2858   1.062  13.762   6.107  0.9938 -2.0324  0.6903
61622SOL    HW2 2859   1.139  13.782   5.978  1.5543 -0.6344  1.2249
61623SOL     OW 2860   1.841   9.016  11.501  0.1147 -0.0720  0.0258
61623SOL    HW1 2861   1.777   9.054  11.441 -0.1585 -0.0655  0.3156
61623SOL    HW2 2862   1.799   9.020  11.587  1.3698  1.9932  0.6206
61624SOL     OW 2863  13.690  11.362   0.853  0.0348 -0.3147 -0.2352
61624SOL    HW1 2864  13.597  11.345   0.865  0.2491 -1.8607 -0.5896
61624SOL    HW2 2865  13.734  11.299   0.910  0.8800  0.9497  0.5755
61625SOL     OW 2866   8.572  11.374  12.463  0.0599 -0.2662 -0.6425
61625SOL    HW1 2867   8.643  11.361  12.399 -0.4043 -0.1486 -1.1880
61625SOL    HW2 2868   8.615  11.416  12.537  0.3724  0.8020 -1.3985
61626SOL     OW 2869   9.747   2.678  10.013  0.0186 -0.1481  0.0909
61626SOL    HW1 2870   9.747   2.771   9.991  0.4113 -0.1278  0.1657
61626SOL    HW2 2871   9.811   2.639   9.952  0.3959 -0.2486  0.5451
61627SOL     OW 2872  10.027   7.587   2.134 -0.4829 -0.5927 -0.4792
61627SOL    HW1 2873   9.970   7.609   2.208 -1.6522 -1.7489 -1.0022
61627SOL    HW2 2874  10.066   7.503   2.158  0.3148 -0.2602 -0.5508
61628SOL     OW 2875   8.771   1.458   1.031  0.4542  0.0593  0.1362
61628SOL    HW1 2876   8.860   1.428   1.050  0.4284 -0.0583  0.0775
61628SOL    HW2 2877   8.769   1.549   1.060  0.3511 -0.1728  0.8823
61629SOL     OW 2878   5.475   0.216  12.803  0.2143 -0.2036 -0.6068
61629SOL    HW1 2879   5.548   0.175  12.849  0.1673  0.1792 -0.1887
61629SOL    HW2 2880   5.453   0.154  12.733  0.5879 -0.5712 -0.4017
61630SOL     OW 2881   0.119   8.660   4.839 -0.2105 -0.1975  0.4286
61630SOL    HW1 2882   0.103   8.748   4.806  2.2789 -0.2201 -1.0512
61630SOL    HW2 2883   0.083   8.661   4.928 -1.8733  1.6971 -0.2004
61631SOL     OW 2884   6.639  12.427  11.272  0.0552 -0.0321 -0.5522
61631SOL    HW1 2885   6.711  12.363  11.273  0.3263  0.2594  1.3803
61631SOL    HW2 2886   6.680  12.510  11.297 -0.8475  0.2517  0.0356
61632SOL     OW 2887   7.235   5.376  11.711 -0.0464  0.1596  0.0934
61632SOL    HW1 2888   7.164   5.403  11.654 -0.7870 -0.7373  0.5807
61632SOL    HW2 2889   7.259   5.456  11.758  1.2078  1.1578 -2.0659
61633SOL     OW 2890   9.922   0.346   4.334  0.0604  0.5022 -0.4027
61633SOL    HW1 2891   9.920   0.250   4.326 -0.8878  0.5287 -0.6757
61633SOL    HW2 2892   9.857   0.376   4.270 -1.0370  1.2227  0.9819
61634SOL     OW 2893  13.675  13.425   7.732 -0.3683 -0.3669 -0.7994
61634SOL    HW1 2894  13.706  13.449   7.645 -0.4518  1.9765 -0.2463
61634SOL    HW2 2895  13.642  13.507   7.769  1.8864 -0.7322  2.3744
61635SOL     OW 2896  10.241  10.504   8.348  0.2208 -0.2494  0.2977
61635SOL    HW1 2897  10.278  10.584   8.312  0.3187 -0.3787  0.1114
61635SOL    HW2 2898  10.287  10.493   8.432 -0.1781  0.1773  0.5768
61636SOL     OW 2899   3.562   9.215  11.074 -0.5411 -0.0645  0.6121
61636SOL    HW1 2900   3.629   9.256  11.018 -1.7838  0.5245 -0.5132
61636SOL    HW2 2901   3.590   9.124  11.081 -1.1435 -0.6184 -2.4303
61637SOL     OW 2902  11.897   9.850   3.331  0.4660  0.2385  0.2242
61637SOL    HW1 2903  11.914   9.760   3.359  2.6208  0.7869  0.8955
61637SOL    HW2 2904  11.932   9.854   3.242  0.2697  0.3704  0.1537
61638SOL     OW 2905   8.022   4.228   8.282 -0.1150  0.9580 -0.0073
61638SOL    HW1 2906   8.033   4.208   8.189  0.0461 -0.3303  0.2694
61638SOL    HW2 2907   7.995   4.146   8.321 -2.9433  2.1110  0.6808
61639SOL     OW 2908   8.358   0.259   0.420  0.4642 -0.6776 -0.0826
61639SOL    HW1 2909   8.445   0.295   0.406  0.3421  0.2087  1.2387
61639SOL    HW2 2910   8.360   0.222   0.508 -0.6987  0.0442  0.2730
61640SOL     OW 2911  12.833   5.655   3.806 -0.7559  0.1849 -0.6738
61640SOL    HW1 2912  12.909   5.677   3.752 -0.8624 -0.5811 -1.1432
61640SOL    HW2 2913  12.866   5.661   3.896  0.0768 -0.9020 -0.8978
61641SOL     OW 2914   2.695  13.033   0.176 -0.6791 -0.5266 -0.7421
61641SOL    HW1 2915   2.771  13.070   0.221 -1.6028 -0.9294  1.2912
61641SOL    HW2 2916   2.691  12.943   0.207 -1.5441 -0.7318 -1.4289
61642SOL     OW 2917   9.246   7.435   7.755 -0.1523  0.4877 -0.4982
61642SOL    HW1 2918   9.198   7.437   7.838 -0.0432 -1.0056 -0.3797
61642SOL    HW2 2919   9.336   7.415   7.780  0.4021  2.4076 -0.8010
61643SOL     OW 2920  11.247  13.137  11.487  0.2741 -0.2310  0.5562
61643SOL    HW1 2921  11.214  13.064  11.434  1.2942 -0.1292 -0.2570
61643SOL    HW2 2922  11.269  13.098  11.571  0.5398 -0.8127  0.2219
61644SOL     OW 2923   1.824   4.324  13.711 -0.5473  0.2404 -0.5371
61644SOL    HW1 2924   1.829   4.228  13.709 -0.9306  0.2275 -2.1694
61644SOL    HW2 2925   1.733   4.343  13.732 -0.2054  0.2805  1.0149
61645SOL     OW 2926   3.961  10.054  11.214  0.1795  0.3172 -0.3377
61645SOL    HW1 2927   3.919  10.045  11.128  0.1018 -0.9587 -0.1792
61645SOL    HW2 2928   3.929   9.979  11.264 -1.5069  2.1785  1.5594
61646SOL     OW 2929   9.096   6.623   5.669 -0.1267  0.8498  0.2703
61646SOL    HW1 2930   9.078   6.582   5.754  2.6984  1.0992  1.0833
61646SOL    HW2 2931   9.081   6.716   5.684  0.9608  0.9645  0.6978
61647SOL     OW 2932   3.968   1.889   8.114  0.0996  0.4057 -0.0194
61647SOL    HW1 2933   3.955   1.794   8.117  0.6959  0.3056 -0.2915
61647SOL    HW2 2934   3.944   1.920   8.201 -0.6706  0.0841 -0.1109
61648SOL     OW 2935  10.016   8.744   5.633 -0.2001 -0.0932 -0.4530
61648SOL    HW1 2936  10.005   8.661   5.679 -1.5102  0.6637  0.7046
61648SOL    HW2 2937  10.111   8.757   5.628  0.0095 -0.3692  1.8170
61649SOL     OW 2938   5.382   4.508   5.668  0.4949 -0.1345 -0.3679
61649SOL    HW1 2939   5.443   4.546   5.606 -0.2817 -1.5466 -2.0834
61649SOL    HW2 2940   5.434   4.493   5.747  1.5558  1.5243 -0.7136
61650SOL     OW 2941  12.548   0.759   5.854 -0.4546  0.4464 -0.2428
61650SOL    HW1 2942  12.560   0.669   5.824 -0.5704  0.4083 -0.1723
61650SOL    HW2 2943  12.497   0.801   5.784  1.5301  1.0738 -1.3826
61651SOL     OW 2944   8.563   8.986   9.350  0.5539 -0.7922  0.1625
61651SOL    HW1 2945   8.600   9.074   9.355 -0.2223 -0.5019  1.0615
61651SOL    HW2 2946   8.636   8.928   9.371  0.3425 -0.1787  2.9556
61652SOL     OW 2947   3.938   0.587  11.372  0.7790 -0.5702 -0.3952
61652SOL    HW1 2948   3.928   0.568  11.278 -0.5209 -1.0309 -0.1809
61652SOL    HW2 2949   3.908   0.677  11.382 -1.6019 -1.3498 -0.0466
61653SOL     OW 2950   7.586   0.686  13.721 -0.7071  0.9524  0.3446
61653SOL    HW1 2951   7.530   0.642  13.657  0.6429  0.0364 -0.2659
61653SOL    HW2 2952   7.527   0.710  13.792 -1.8114 -0.3034 -0.1049
61654SOL     OW 2953   2.443  10.354   5.215  0.1682  0.0933 -0.1337
61654SOL    HW1 2954   2.366  10.406   5.192 -0.1768 -0.1230  0.5202
61654SOL    HW2 2955   2.477  10.395   5.294  0.6766  0.1336 -0.3696
61655SOL     OW 2956   0.161  14.056   8.679  0.7228  0.6304  0.0959
61655SOL    HW1 2957   0.179  14.122   8.745 -0.1486 -0.0898  1.0831
61655SOL    HW2 2958   0.092  14.094   8.625  0.1186  0.4807  0.7527
61656SOL     OW 2959   9.224  13.694   7.320 -0.5977  0.1498 -0.3923
61656SOL    HW1 2960   9.294  13.760   7.322  0.9875 -1.4293 -0.8783
61656SOL    HW2 2961   9.181  13.709   7.236 -0.8132  1.0980 -0.1243
61657SOL     OW 2962   5.557   1.463  10.346  0.0779  0.2814 -0.3193
61657SOL    HW1 2963   5.616   1.537  10.332 -0.0348  0.1426 -1.7310
61657SOL    HW2 2964   5.478   1.486  10.297 -0.3917 -0.2773  0.1594
61658SOL     OW 2965   4.076  13.559  12.920  0.0029 -0.1994 -0.3981
61658SOL    HW1 2966   4.150  13.556  12.981 -0.0781 -0.6372 -0.3135
61658SOL    HW2 2967   4.114  13.535  12.835  0.7440  3.3016 -1.2158
61659SOL     OW 2968   9.841  13.246  11.215  0.7807 -0.2303  0.1634
61659SOL    HW1 2969   9.823  13.213  11.303  1.6331 -2.1550 -0.3179
61659SOL    HW2 2970   9.767  13.216  11.163  1.1971 -0.7752 -0.1302
61660SOL     OW 2971   3.286   0.513  12.136  0.1800 -0.2857 -0.3987
61660SOL    HW1 2972   3.222   0.449  12.104  1.5644 -2.1377  0.4175
61660SOL    HW2 2973   3.347   0.525  12.063 -0.6890  1.0219 -0.9566
61661SOL     OW 2974  12.487  11.319  13.839  1.1670 -0.3848 -0.4745
61661SOL    HW1 2975  12.483  11.287  13.749  0.4759 -1.3131 -0.1291
61661SOL    HW2 2976  12.433  11.398  13.839  0.2469 -0.9990 -0.6334
61662SOL     OW 2977   4.690   0.123   7.523  0.0038 -0.0850 -0.1013
61662SOL    HW1 2978   4.744   0.131   7.602 -0.6722 -0.5039  0.4123
61662SOL    HW2 2979   4.652   0.035   7.529 -1.1044  0.3711 -0.2194
61663SOL     OW 2980   8.154   0.459  11.765  0.0304 -0.0908 -0.2510
61663SOL    HW1 2981   8.180   0.378  11.721 -1.2936 -0.3021 -0.6870
61663SOL    HW2 2982   8.114   0.512  11.696 -0.6958  0.2088  0.3809
61664SOL     OW 2983   0.615   2.283   0.876  0.3847  0.0843 -0.1328
61664SOL    HW1 2984   0.594   2.367   0.835  0.4886  0.6575  0.9597
61664SOL    HW2 2985   0.529   2.242   0.890  0.2640  0.4660  0.2693
61665SOL     OW 2986   6.078   5.198  10.282  0.1702  0.3161  0.4824
61665SOL    HW1 2987   6.118   5.149  10.354  2.3414  0.4638 -0.5422
61665SOL    HW2 2988   6.008   5.248  10.324  0.8967 -0.1462  2.3646
61666SOL     OW 2989  13.627   9.076   5.477  0.1191 -0.2332 -0.2188
61666SOL    HW1 2990  13.579   9.109   5.553 -1.5866 -0.9945 -0.9093
61666SOL    HW2 2991  13.590   9.123   5.402 -1.3628 -2.5279 -1.0497
61667SOL     OW 2992   4.626  13.030   2.195  0.0855  0.1926 -0.3588
61667SOL    HW1 2993   4.693  13.095   2.176  0.9490 -0.8621 -1.0145
61667SOL    HW2 2994   4.674  12.948   2.205 -1.1125 -0.6102 -0.9581
61668SOL     OW 2995  12.002   7.579   2.680 -0.2927 -0.0217  0.2470
61668SOL    HW1 2996  11.941   7.551   2.748  1.6066 -1.0597  1.6060
61668SOL    HW2 2997  12.020   7.501   2.628  1.1465 -0.1621  0.9116
61669SOL     OW 2998  10.940   3.155   6.311  0.1038  0.0323  0.0352
61669SOL    HW1 2999  11.017   3.136   6.257 -1.8535 -0.1367 -2.9023
61669SOL    HW2 3000  10.960   3.239   6.353  2.8127 -1.1521  1.3753
61670SOL     OW 3001   2.240   9.396  12.321 -0.1896  0.2680 -0.3784
61670SOL    HW1 3002   2.261   9.345  12.243  0.4874  1.3935 -0.9686
61670SOL    HW2 3003   2.161   9.445  12.297 -0.1685  0.3708 -0.2387
61671SOL     OW 3004   5.513  12.594  13.240  0.4802 -0.0022  0.7988
61671SOL    HW1 3005   5.559  12.651  13.301  0.8620 -2.1664  2.6324
61671SOL    HW2 3006   5.448  12.651  13.199  1.3955  1.9307  1.9118
61672SOL     OW 3007   2.011  14.114   5.027 -0.8521 -0.1805 -0.2356
61672SOL    HW1 3008   2.086  14.082   4.977 -0.1382  1.3035 -0.1930
61672SOL    HW2 3009   1.935  14.074   4.986 -0.0153 -2.6837  0.4493
61673SOL     OW 3010   6.535   0.124  13.083  0.0300 -0.1152 -0.2405
61673SOL    HW1 3011   6.530   0.052  13.145  0.9556  0.5030  0.5828
61673SOL    HW2 3012   6.616   0.107  13.034  0.7764  0.8384  0.6087
61674SOL     OW 3013   7.563   8.756   3.374  0.2629 -0.1404  0.0131
61674SOL    HW1 3014   7.517   8.682   3.334  1.4959  0.3178 -2.3897
61674SOL    HW2 3015   7.573   8.820   3.304  0.8967  1.5523  1.5576
61675SOL     OW 3016   4.272   6.098  11.684  0.0311  0.5054  0.2337
61675SOL    HW1 3017   4.220   6.178  11.677 -2.0198 -0.8129 -0.4265
61675SOL    HW2 3018   4.331   6.101  11.609 -1.2245  0.6091 -0.7873
61676SOL     OW 3019   0.074   4.316   7.072 -0.2316  0.0363 -0.8520
61676SOL    HW1 3020   0.154   4.368   7.077 -0.0269 -0.3473  0.0720
61676SOL    HW2 3021   0.105   4.225   7.069 -0.6269 -0.1007 -0.8209
61677SOL     OW 3022   0.392   0.851   4.539  0.2064  0.2664 -0.1061
61677SOL    HW1 3023   0.431   0.826   4.623  1.6699 -2.0500 -1.3654
61677SOL    HW2 3024   0.323   0.786   4.525  0.7464 -0.0972 -1.1909
61678SOL     OW 3025  14.092   5.286   1.296 -0.2049  0.5879 -0.3061
61678SOL    HW1 3026  14.117   5.322   1.381 -0.2259  0.7708 -0.3766
61678SOL    HW2 3027  13.997   5.294   1.294 -0.2129  0.4793 -0.2998
61679SOL     OW 3028   9.593   0.343   9.442 -0.4482 -0.1630  0.3411
61679SOL    HW1 3029   9.567   0.267   9.496 -1.6300  0.0209  0.0675
61679SOL    HW2 3030   9.543   0.332   9.361  0.7187 -0.0126 -0.4087
61680SOL     OW 3031  10.255   6.954  10.124 -0.3312  0.2045 -0.7769
61680SOL    HW1 3032  10.173   6.917  10.155 -0.6870  0.6891 -1.1333
61680SOL    HW2 3033  10.322   6.909  10.175 -0.8719  0.5546  0.2662
61681SOL     OW 3034   5.477   2.888   0.980 -0.2398  0.7041 -0.2646
61681SOL    HW1 3035   5.568   2.914   0.967 -0.3176  0.5686 -1.1001
61681SOL    HW2 3036   5.439   2.961   1.030  0.1922  1.0065 -0.3684
61682SOL     OW 3037   2.084   7.686   0.099 -0.0818 -0.4584 -0.1269
61682SOL    HW1 3038   2.066   7.770   0.141  0.9686 -0.5174  0.4792
61682SOL    HW2 3039   1.999   7.657   0.066 -0.8531 -0.1459  1.4854
61683SOL     OW 3040   2.334   9.984   7.823  0.2421 -0.6667 -0.2143
61683SOL    HW1 3041   2.242   9.961   7.817 -0.0126  0.0561  0.6364
61683SOL    HW2 3042   2.334  10.078   7.844  1.1259 -0.9190  1.0710
61684SOL     OW 3043  10.393  10.899   4.053  0.3151 -0.1442 -0.2695
61684SOL    HW1 3044  10.377  10.820   4.001  0.6152 -0.2089 -0.2623
61684SOL    HW2 3045  10.481  10.927   4.029 -0.6684  1.6276 -2.1921
61685SOL     OW 3046   3.901   1.724  13.061 -0.5221 -0.3720  0.0229
61685SOL    HW1 3047   3.913   1.629  13.061  1.0813 -0.2009  1.6726
61685SOL    HW2 3048   3.984   1.759  13.030 -1.2282  0.5127 -0.9328
61686SOL     OW 3049   1.838   5.208  10.772  0.1309 -0.3972  0.2170
61686SOL    HW1 3050   1.925   5.169  10.766 -0.3421 -1.6469  1.2283
61686SOL    HW2 3051   1.855   5.299  10.796  1.2377  0.0820 -2.0679
61687SOL     OW 3052  11.046   1.335   2.131 -0.7228 -0.4802  0.1386
61687SOL    HW1 3053  10.960   1.314   2.093 -1.2035 -0.2250  1.0642
61687SOL    HW2 3054  11.038   1.311   2.223  0.4968 -1.2844  0.0656
61688SOL     OW 3055  13.146   6.902   6.678 -0.2188 -0.0610  0.4852
61688SOL    HW1 3056  13.160   6.995   6.696  2.1227 -0.0147 -1.2354
61688SOL    HW2 3057  13.154   6.893   6.583  1.0322 -2.2096  0.7200
61689SOL     OW 3058   1.042   0.969   8.462  0.4983 -0.0785 -0.6108
61689SOL    HW1 3059   0.978   0.904   8.491  0.8276 -0.2136 -0.1700
61689SOL    HW2 3060   1.075   1.007   8.543  0.2942  0.6547 -0.8684
61690SOL     OW 3061   6.668   7.697  13.667 -0.2911  0.1728 -0.2613
61690SOL    HW1 3062   6.663   7.610  13.707  0.3606  0.6404  0.8908
61690SOL    HW2 3063   6.717   7.750  13.731 -1.8193  1.7355 -0.2991
61691SOL     OW 3064   8.883   6.022   5.101 -0.1470 -0.2869 -0.3597
61691SOL    HW1 3065   8.853   5.940   5.063 -0.6978 -0.6595  0.8324
61691SOL    HW2 3066   8.866   6.088   5.033 -1.2795 -0.8985 -0.6896
61692SOL     OW 3067   8.237  13.660  14.149  0.6370 -0.3065 -0.2855
61692SOL    HW1 3068   8.274  13.646  14.236  2.9523  0.1769 -1.1288
61692SOL    HW2 3069   8.268  13.585  14.098  0.9669  0.4267 -1.1796
61693SOL     OW 3070   8.152  13.419   2.279  0.3574 -0.6532 -0.3779
61693SOL    HW1 3071   8.189  13.333   2.263  0.3336 -0.7138 -0.0982
61693SOL    HW2 3072   8.127  13.451   2.192 -0.7901 -1.4418 -0.3545
61694SOL     OW 3073   7.395   7.045   6.874  0.4380  0.3969  0.4949
61694SOL    HW1 3074   7.412   7.001   6.791  0.9075  0.0753  0.7547
61694SOL    HW2 3075   7.409   7.138   6.855  1.4867  0.2459  0.4299
61695SOL     OW 3076   1.624  13.672  11.126  0.8299  0.0407 -0.1707
61695SOL    HW1 3077   1.651  13.580  11.121 -0.1019 -0.1931 -1.9455
61695SOL    HW2 3078   1.673  13.715  11.057  2.3093  1.2372  1.5369
61696SOL     OW 3079  12.724   3.870  12.052  0.6343  0.2113 -0.0758
61696SOL    HW1 3080  12.801   3.847  12.000  1.3065 -0.8091  1.3251
61696SOL    HW2 3081  12.760   3.915  12.129 -0.1726 -0.1726  0.5383
61697SOL     OW 3082   1.979  13.853   5.653  0.3659 -0.2068  0.0648
61697SOL    HW1 3083   2.053  13.794   5.636  1.4298  1.2400 -0.5271
61697SOL    HW2 3084   1.941  13.870   5.568  0.2226  0.1541  0.1995
61698SOL     OW 3085  12.094  12.594  11.382  0.3784  0.3892  0.0174
61698SOL    HW1 3086  12.077  12.537  11.458  2.6424 -0.6961 -0.2178
61698SOL    HW2 3087  12.113  12.679  11.421 -1.6449  0.7122  0.4467
61699SOL     OW 3088   6.086   6.562   9.944 -0.3788 -0.0774 -0.1220
61699SOL    HW1 3089   6.020   6.630   9.957 -0.1005  0.7428 -2.4868
61699SOL    HW2 3090   6.159   6.589  10.000 -1.9264 -1.0172  2.5729
61700SOL     OW 3091  11.340   6.122  10.249  0.3571 -0.4022 -0.3113
61700SOL    HW1 3092  11.354   6.070  10.328  0.1749 -1.6560 -1.0692
61700SOL    HW2 3093  11.263   6.081  10.208 -1.1780  1.8397  0.1578
61701SOL     OW 3094  14.117  11.497   6.774 -0.1416 -0.3085 -0.2362
61701SOL    HW1 3095  14.107  11.521   6.681  0.9289  3.5211  0.4433
61701SOL    HW2 3096  14.027  11.481   6.804 -0.6066 -0.5767 -1.6933
61702SOL     OW 3097   2.703   6.505   9.699  0.4675  0.1812 -0.1622
61702SOL    HW1 3098   2.744   6.512   9.613 -0.0018 -0.7787 -0.4786
61702SOL    HW2 3099   2.740   6.577   9.750  2.1118 -0.3168 -0.6096
61703SOL     OW 3100   4.887  11.408   4.787  0.6760  0.7854 -0.0440
61703SOL    HW1 3101   4.873  11.388   4.880 -2.2777  2.5850  0.0414
61703SOL    HW2 3102   4.965  11.359   4.763  2.6668  1.6675  3.8273
61704SOL     OW 3103   6.307  13.754  12.181  1.0428 -0.4220 -0.1609
61704SOL    HW1 3104   6.302  13.826  12.118  2.1178 -0.3624 -0.1912
61704SOL    HW2 3105   6.361  13.789  12.252 -0.7556 -0.2041  1.1997
61705SOL     OW 3106  12.847   9.874   7.760  0.0824  0.1250  0.1516
61705SOL    HW1 3107  12.776   9.914   7.811  1.1476  2.2680  0.0530
61705SOL    HW2 3108  12.853   9.928   7.682  2.8725  1.0461  0.9087
61706SOL     OW 3109  12.139   0.849  12.787 -0.3630  0.2417 -0.2419
61706SOL    HW1 3110  12.120   0.756  12.798  0.1114 -0.0922 -1.8808
61706SOL    HW2 3111  12.116   0.867  12.696 -0.7781  1.8273  0.1498
61707SOL     OW 3112   8.821   9.418  11.418  0.0109 -0.0741  0.2575
61707SOL    HW1 3113   8.916   9.424  11.414  0.1227  0.1340  2.2208
61707SOL    HW2 3114   8.790   9.471  11.345  1.3669 -2.4751 -2.2530
61708SOL     OW 3115   4.758   9.184   9.416 -0.2313  0.1877 -0.3181
61708SOL    HW1 3116   4.811   9.104   9.421  0.6986  0.7870 -0.4821
61708SOL    HW2 3117   4.797   9.234   9.344 -3.2176 -0.9463 -2.9956
61709SOL     OW 3118  11.026  12.072   8.298  0.0944  0.7284 -0.4826
61709SOL    HW1 3119  10.984  12.105   8.219  1.5272  1.8031 -0.8278
61709SOL    HW2 3120  11.002  11.979   8.301  0.5218  0.5300 -2.5020
61710SOL     OW 3121   0.970  10.054   6.459  0.4041  0.0899 -0.7644
61710SOL    HW1 3122   0.942  10.144   6.476 -1.7048 -0.6027 -0.2888
61710SOL    HW2 3123   1.016  10.028   6.539  2.8901  1.3512 -1.6795
61711SOL     OW 3124   2.926  11.216   2.325 -0.3162  0.3106 -0.1896
61711SOL    HW1 3125   2.874  11.271   2.383 -0.5080 -0.9390  0.8791
61711SOL    HW2 3126   2.874  11.137   2.313  0.7140 -0.3927 -0.2085
61712SOL     OW 3127   8.863   1.833   5.589 -0.4218 -0.2596  0.6270
61712SOL    HW1 3128   8.822   1.755   5.627  0.0320 -0.4335  0.7752
61712SOL    HW2 3129   8.917   1.868   5.660  0.2666 -0.4621  0.2109
61713SOL     OW 3130   7.849   9.812  11.441 -0.0474 -0.0781 -0.0711
61713SOL    HW1 3131   7.852   9.905  11.421  0.3439  0.0802  0.6909
61713SOL    HW2 3132   7.781   9.777  11.383 -1.8042  1.0869  1.2037
61714SOL     OW 3133   8.693  12.402   4.811  0.1855  0.0001  0.3916
61714SOL    HW1 3134   8.695  12.339   4.882  1.5956 -0.7778 -0.2865
61714SOL    HW2 3135   8.603  12.402   4.780 -0.2058 -0.3923  1.5169
61715SOL     OW 3136   6.288   5.426   6.662  0.1491  0.1653  0.5005
61715SOL    HW1 3137   6.303   5.482   6.586 -1.2437  0.1396  0.1784
61715SOL    HW2 3138   6.372   5.382   6.677  0.1954 -0.5928 -1.6561
61716SOL     OW 3139   1.009  10.690   5.846  0.2647  0.6443 -0.4221
61716SOL    HW1 3140   1.034  10.744   5.921 -1.4205  2.2581 -0.9645
61716SOL    HW2 3141   1.004  10.601   5.882 -0.4369  1.3561  1.3765
61717SOL     OW 3142   8.012  11.969   7.007 -0.6428  0.5474  0.1910
61717SOL    HW1 3143   7.970  11.901   6.955  1.1645 -0.7987  0.3897
61717SOL    HW2 3144   7.961  12.048   6.989 -0.6064 -0.0115 -3.0224
61718SOL     OW 3145   2.620   4.750   2.604  0.0163 -0.2977 -0.6692
61718SOL    HW1 3146   2.569   4.715   2.532  0.8247  0.3849 -1.6029
61718SOL    HW2 3147   2.666   4.825   2.567  0.7569 -0.1633  0.4549
61719SOL     OW 3148   7.016   7.556  13.236  0.0878 -0.0744 -0.3928
61719SOL    HW1 3149   7.106   7.565  13.205  1.2028 -1.8630  1.9577
61719SOL    HW2 3150   6.991   7.645  13.262  2.2769  0.1115  1.4577
61720SOL     OW 3151   6.313   6.565   9.270 -0.3703  0.7096 -0.2403
61720SOL    HW1 3152   6.333   6.519   9.189 -0.6879 -0.7829  0.5111
61720SOL    HW2 3153   6.348   6.653   9.256  0.7294  0.1027 -1.4957
61721SOL     OW 3154   9.478   2.468   6.550 -0.0837  0.4397 -0.3393
61721SOL    HW1 3155   9.568   2.497   6.534  0.3763 -0.8380 -0.1425
61721SOL    HW2 3156   9.461   2.404   6.481  0.3271 -1.7511  1.4898
61722SOL     OW 3157   3.285   8.181   3.060  0.5410  0.5263 -0.2856
61722SOL    HW1 3158   3.293   8.089   3.032 -0.9363  0.6216 -1.1396
61722SOL    HW2 3159   3.201   8.209   3.023  1.0221  2.2576 -0.1176
61723SOL     OW 3160   0.447   5.151  11.839 -0.6978 -0.3734  0.0754
61723SOL    HW1 3161   0.446   5.213  11.912 -0.8360 -1.4669  1.0381
61723SOL    HW2 3162   0.369   5.098  11.852  0.2104 -1.7372  0.1695
61724SOL     OW 3163   1.481   2.503  10.389  0.1517  0.6950  0.0371
61724SOL    HW1 3164   1.524   2.418  10.389  0.8722  1.0365 -1.0833
61724SOL    HW2 3165   1.392   2.485  10.419  0.6856 -0.2168  1.1581
61725SOL     OW 3166   3.191   6.012  12.133 -0.1433 -0.2229 -0.7158
61725SOL    HW1 3167   3.222   5.928  12.167 -1.0128 -0.3738 -0.2592
61725SOL    HW2 3168   3.230   6.078  12.191  2.5821 -0.0943 -2.5596
61726SOL     OW 3169   0.491   9.263  11.584 -0.2582  0.1832 -0.0855
61726SOL    HW1 3170   0.417   9.302  11.537  0.5376  2.3903  0.3673
61726SOL    HW2 3171   0.469   9.273  11.677  0.5275  0.7321  0.0509
61727SOL     OW 3172  12.648  11.031   0.205 -0.2392 -0.5586 -0.1189
61727SOL    HW1 3173  12.572  11.063   0.253 -0.7528 -1.2385 -0.4514
61727SOL    HW2 3174  12.674  11.104   0.149 -0.6122 -0.2942  0.0494
61728SOL     OW 3175   9.979   4.684   9.094  0.5141 -0.4150 -0.2584
61728SOL    HW1 3176  10.029   4.747   9.146  2.3569 -1.9707 -0.0247
61728SOL    HW2 3177  10.022   4.600   9.111  0.3358 -1.2023 -3.2227
61729SOL     OW 3178   0.823   5.100  10.317  0.6488  0.7175  0.0786
61729SOL    HW1 3179   0.914   5.110  10.289  0.8684 -0.2026  0.4382
61729SOL    HW2 3180   0.828   5.050  10.398 -0.2941 -0.9491 -0.8402
61730SOL     OW 3181   1.509   4.676  13.139 -0.0857  0.3713  0.4076
61730SOL    HW1 3182   1.433   4.623  13.115  1.0633 -1.1908  0.0071
61730SOL    HW2 3183   1.519   4.737  13.066  0.4010 -0.9939 -0.7292
61731SOL     OW 3184   8.364   5.344   5.282  0.0790  0.1241 -0.5100
61731SOL    HW1 3185   8.406   5.271   5.236  1.6472  0.5026  0.2743
61731SOL    HW2 3186   8.434   5.407   5.296 -1.1300  1.5448 -0.6585
61732SOL     OW 3187   8.693  11.156   4.299  0.1090  0.4421  0.3181
61732SOL    HW1 3188   8.639  11.129   4.224  0.4625 -1.1439  0.5822
61732SOL    HW2 3189   8.630  11.169   4.370 -0.1411  0.9915  0.0005
61733SOL     OW 3190   7.272   3.082   8.115 -0.0032 -0.3232 -0.5590
61733SOL    HW1 3191   7.195   3.028   8.099 -0.8694  0.4928  0.6840
61733SOL    HW2 3192   7.242   3.172   8.102  0.4306  0.0760  0.9723
61734SOL     OW 3193   8.114  10.339  10.766  0.6622 -0.1787  0.4504
61734SOL    HW1 3194   8.140  10.431  10.760  2.0436 -0.5130  0.9524
61734SOL    HW2 3195   8.024  10.338  10.733  0.9688  1.1874 -0.5414
61735SOL     OW 3196  10.204   5.548  13.642 -0.4724  0.4649  0.4307
61735SOL    HW1 3197  10.192   5.492  13.718 -0.4853 -0.5002 -0.2546
61735SOL    HW2 3198  10.216   5.487  13.569  0.0578  1.3653 -0.2569
61736SOL     OW 3199  12.022   2.543  12.395  0.1014 -0.3840 -0.1720
61736SOL    HW1 3200  12.043   2.493  12.473  1.5934  0.9294  0.3325
61736SOL    HW2 3201  12.061   2.629  12.410 -2.2852  0.9445 -1.0303
61737SOL     OW 3202   3.122   9.512  12.175 -0.1584 -0.4119 -0.2089
61737SOL    HW1 3203   3.029   9.493  12.170 -0.2904 -0.0983  0.7455
61737SOL    HW2 3204   3.127   9.597  12.220  0.6066 -0.8844  0.6626
61738SOL     OW 3205   1.165   5.801   7.044  1.0770 -0.3099  0.0922
61738SOL    HW1 3206   1.187   5.723   7.094  1.8450 -0.1043  0.0856
61738SOL    HW2 3207   1.156   5.771   6.954  1.7489 -0.3348  0.0281
61739SOL     OW 3208  12.681   7.911  10.425  0.6545  0.5943  0.2667
61739SOL    HW1 3209  12.766   7.913  10.381  0.8156 -1.3900  0.4044
61739SOL    HW2 3210  12.618   7.890  10.356  0.5976 -0.1743  0.5392
61740SOL     OW 3211   0.315  12.918  13.607 -0.4890 -0.1859 -0.4914
61740SOL    HW1 3212   0.235  12.915  13.660 -0.4857  0.8044 -0.4035
61740SOL    HW2 3213   0.297  12.862  13.532 -1.6893  0.8895 -1.0269
61741SOL     OW 3214   0.549  12.129  10.555 -0.3316 -0.2740 -0.6149
61741SOL    HW1 3215   0.514  12.130  10.466 -1.3027  2.9855 -0.3285
61741SOL    HW2 3216   0.631  12.179  10.550 -1.6381  2.1959  0.6111
61742SOL     OW 3217   0.790  14.013   4.518  0.0899 -0.3843  0.7017
61742SOL    HW1 3218   0.791  13.946   4.450  0.4814 -1.0675  1.3605
61742SOL    HW2 3219   0.879  14.049   4.517 -0.3931  0.8554 -0.3315
61743SOL     OW 3220   0.728   9.132   5.082 -0.1952  0.1848 -0.1984
61743SOL    HW1 3221   0.673   9.105   5.156 -0.6111  1.2378 -0.1053
61743SOL    HW2 3222   0.810   9.161   5.122 -0.5263  1.0282 -0.1105
61744SOL     OW 3223   8.853   9.843  10.302  0.1745 -0.3595 -0.3620
61744SOL    HW1 3224   8.813   9.835  10.389 -0.7539 -1.1619 -0.8440
61744SOL    HW2 3225   8.849   9.936  10.282 -1.0514 -0.3618 -0.1935
61745SOL     OW 3226   1.369  12.711  11.251  0.0108 -0.3518  1.1266
61745SOL    HW1 3227   1.439  12.700  11.315  0.1013 -1.2955  0.8786
61745SOL    HW2 3228   1.397  12.785  11.197 -0.4708  1.0207  2.6835
61746SOL     OW 3229  11.640   0.186  12.343  0.0959 -1.1060  0.6240
61746SOL    HW1 3230  11.573   0.173  12.410  0.0376 -1.8286  0.4383
61746SOL    HW2 3231  11.723   0.176  12.390  0.0979  0.2618  0.9500
61747SOL     OW 3232   4.030   4.515   5.427  0.4873  0.9073 -0.2361
61747SOL    HW1 3233   4.091   4.455   5.470  1.3219  2.2129  0.4614
61747SOL    HW2 3234   4.077   4.546   5.349  0.7104  1.8603  0.2603
61748SOL     OW 3235  12.840  10.934  13.937 -1.0225 -0.1518  0.1231
61748SOL    HW1 3236  12.852  10.918  13.844  0.9634  0.3992  0.2501
61748SOL    HW2 3237  12.745  10.946  13.947 -1.1451  1.3313 -2.0849
61749SOL     OW 3238  12.457   4.244   5.458  0.1026  0.1997  0.2386
61749SOL    HW1 3239  12.448   4.169   5.399 -1.4971  1.0841 -0.7091
61749SOL    HW2 3240  12.370   4.283   5.461  0.6725  1.4835  1.4746
61750SOL     OW 3241  12.922  12.596   2.043  0.1181 -0.0873  0.4612
61750SOL    HW1 3242  12.831  12.581   2.017 -0.3601  0.2299  1.9092
61750SOL    HW2 3243  12.917  12.658   2.116  1.5892  1.0559 -0.3442
61751SOL     OW 3244   2.931  13.306   4.352 -0.2499  0.4308 -0.3789
61751SOL    HW1 3245   2.907  13.329   4.441  1.8599 -1.1419  0.6707
61751SOL    HW2 3246   2.882  13.226   4.333 -1.3437  1.2108 -1.0070
61752SOL     OW 3247   4.881  10.764  13.230  0.2649  0.2636 -0.1628
61752SOL    HW1 3248   4.815  10.833  13.229 -0.4556 -0.4052 -0.3638
61752SOL    HW2 3249   4.898  10.746  13.137  1.8254  1.4287 -0.1315
61753SOL     OW 3250   6.497  10.280   2.835 -0.0960 -0.0592 -0.2528
61753SOL    HW1 3251   6.558  10.286   2.908  0.1501  0.4962 -0.5005
61753SOL    HW2 3252   6.537  10.217   2.775  0.6948  0.9789 -0.8430
61754SOL     OW 3253   1.523   9.256   7.821  0.4386  0.2039  0.4231
61754SOL    HW1 3254   1.471   9.178   7.803  0.8539 -0.3646  1.6353
61754SOL    HW2 3255   1.614   9.227   7.820  0.6403  0.8154  0.1848
61755SOL     OW 3256   8.378   3.951   5.092 -0.0496  0.8008  0.6532
61755SOL    HW1 3257   8.410   4.039   5.073 -0.2683  0.5686 -0.9307
61755SOL    HW2 3258   8.458   3.898   5.096 -0.0438  0.4555 -2.0363
61756SOL     OW 3259   2.850  10.822  13.641  0.4395 -0.2839  0.2057
61756SOL    HW1 3260   2.927  10.878  13.654  0.1300  0.4733 -1.0584
61756SOL    HW2 3261   2.781  10.864  13.693  1.3719 -2.2838  3.3706
61757SOL     OW 3262   6.179   8.562  10.714 -0.4939  0.6200 -0.4309
61757SOL    HW1 3263   6.245   8.537  10.648  0.3215  1.6984 -0.0505
61757SOL    HW2 3264   6.191   8.498  10.784  1.0560  1.5428  0.2006
61758SOL     OW 3265   7.761   9.816   0.964  0.2655  0.4217 -0.0011
61758SOL    HW1 3266   7.768   9.908   0.938 -2.2286  0.8871  0.7700
61758SOL    HW2 3267   7.805   9.812   1.049  0.3979  0.8969 -0.0434
61759SOL     OW 3268  13.936  14.091  13.395 -0.3657 -0.0699 -0.0554
61759SOL    HW1 3269  14.030  14.096  13.416 -0.0491  1.1959 -1.5871
61759SOL    HW2 3270  13.923  14.000  13.367  0.5954 -0.0619 -0.5818
61760SOL     OW 3271  12.038   9.256   1.720  0.1066 -0.1423 -0.2687
61760SOL    HW1 3272  11.980   9.251   1.644 -0.9187  1.4256  0.3680
61760SOL    HW2 3273  11.996   9.318   1.779  2.3047  0.9159  0.3156
61761SOL     OW 3274   2.720   0.573   4.980 -0.2290 -0.1786 -0.3186
61761SOL    HW1 3275   2.754   0.504   4.923 -1.1275 -0.6837 -0.2547
61761SOL    HW2 3276   2.651   0.530   5.031  0.2971  0.3565  0.8826
61762SOL     OW 3277   6.296  13.170   4.821 -0.2599 -0.7324  0.3800
61762SOL    HW1 3278   6.370  13.228   4.839 -1.7511  0.6502  2.6421
61762SOL    HW2 3279   6.335  13.084   4.811  1.6865 -0.0514  1.4949
61763SOL     OW 3280   2.447  12.842  13.244 -0.2669  0.0916 -0.4326
61763SOL    HW1 3281   2.531  12.886  13.259 -0.2905  0.0398 -0.1583
61763SOL    HW2 3282   2.445  12.827  13.149  1.1848 -2.1803 -0.1927
61764SOL     OW 3283   7.735   0.715   6.743  0.1482 -0.4769  0.6235
61764SOL    HW1 3284   7.680   0.789   6.768 -0.0668 -0.3621 -0.1629
61764SOL    HW2 3285   7.702   0.642   6.796 -0.0016 -0.1396  0.9998
61765SOL     OW 3286  11.162   2.158   5.510  0.4423  0.1751 -0.0443
61765SOL    HW1 3287  11.154   2.100   5.435 -3.8291 -2.8456  2.2690
61765SOL    HW2 3288  11.146   2.245   5.476 -1.4528 -1.0793 -2.6846
61766SOL     OW 3289   5.830  11.869   0.835  0.0599 -0.0920 -0.0307
61766SOL    HW1 3290   5.757  11.902   0.783  0.6496  0.8717 -0.2621
61766SOL    HW2 3291   5.795  11.860   0.923 -1.0173 -1.9584 -0.5829
61767SOL     OW 3292   7.012   4.269   2.721  0.1274  0.2493 -0.2272
61767SOL    HW1 3293   7.083   4.240   2.663  0.1086  0.8006 -0.5309
61767SOL    HW2 3294   7.055   4.286   2.805 -0.0208 -1.6363  0.2716
61768SOL     OW 3295   6.527   2.535   9.591  0.1429 -0.0155 -0.1852
61768SOL    HW1 3296   6.574   2.617   9.602  0.7054 -0.3895  0.2148
61768SOL    HW2 3297   6.591   2.474   9.554 -0.3717 -0.1749 -0.8367
61769SOL     OW 3298   2.823   5.107  12.001  0.2746  0.1442 -0.0997
61769SOL    HW1 3299   2.808   5.016  12.025 -0.3480  0.7181  1.8251
61769SOL    HW2 3300   2.737   5.137  11.969  0.6162 -0.0725 -1.2661
61770SOL     OW 3301   9.246   4.176   4.351 -0.0876  0.2376  0.0535
61770SOL    HW1 3302   9.333   4.140   4.331  1.0054  2.1828  0.9878
61770SOL    HW2 3303   9.234   4.244   4.285 -1.4793 -0.7881 -0.8021
61771SOL     OW 3304  12.759   2.492   6.396  0.1963  0.4410  0.1921
61771SOL    HW1 3305  12.842   2.502   6.444  0.0877  1.3217  0.2131
61771SOL    HW2 3306  12.697   2.464   6.463  0.8388 -2.0864 -0.1540
61772SOL     OW 3307   3.252  14.092  10.845 -0.5676 -0.2923  0.1793
61772SOL    HW1 3308   3.231  14.179  10.811 -0.8397 -0.6228 -0.5189
61772SOL    HW2 3309   3.310  14.108  10.919  0.1403  0.4521 -0.5211
61773SOL     OW 3310   0.438   6.396  10.836  0.4994 -0.2799  0.3295
61773SOL    HW1 3311   0.382   6.343  10.892  0.2854 -0.3286  0.0722
61773SOL    HW2 3312   0.380   6.429  10.768  0.9659 -1.1975 -0.5539
61774SOL     OW 3313   9.305  11.449  12.909  0.6295 -0.1047  0.3588
61774SOL    HW1 3314   9.267  11.364  12.886 -0.9390  0.9303 -1.1646
61774SOL    HW2 3315   9.396  11.443  12.880 -0.3061 -0.1879 -3.0287
61775SOL     OW 3316   8.941  11.407  11.348 -0.2695 -0.5615  0.6676
61775SOL    HW1 3317   8.985  11.486  11.381  1.8315 -0.0058 -2.8988
61775SOL    HW2 3318   8.852  11.435  11.331  0.7884  1.6990 -1.9370
61776SOL     OW 3319   3.819   0.533  11.903 -0.3109  0.1224  0.5946
61776SOL    HW1 3320   3.915   0.538  11.905 -0.1752 -0.9581 -1.2512
61776SOL    HW2 3321   3.798   0.456  11.956 -0.0664 -0.2812  0.1158
61777SOL     OW 3322   6.851   8.681   1.378  0.2316  0.3695 -0.2876
61777SOL    HW1 3323   6.921   8.745   1.374  0.8519 -0.1242  1.7681
61777SOL    HW2 3324   6.894   8.597   1.365 -0.1087  0.1328  0.0866
61778SOL     OW 3325  10.022  12.978   2.545 -0.4878  0.1514 -0.2858
61778SOL    HW1 3326  10.106  12.933   2.553 -1.6175 -2.1514 -0.7343
61778SOL    HW2 3327  10.004  13.012   2.632  0.5195 -0.0331  0.0039
61779SOL     OW 3328   1.354   1.008   4.350 -0.3679 -0.3224 -0.1093
61779SOL    HW1 3329   1.326   1.088   4.394  0.4626 -0.1740  0.1702
61779SOL    HW2 3330   1.435   0.983   4.396 -1.5564 -2.3237  1.0473
61780SOL     OW 3331   2.865   2.916   7.321  0.2515  0.4378  0.3899
61780SOL    HW1 3332   2.858   3.006   7.351 -1.5996  0.0840  1.2244
61780SOL    HW2 3333   2.953   2.888   7.346  1.0624  2.1616 -0.4105
61781SOL     OW 3334   9.046  12.276   4.975 -0.4328  0.2403 -0.3667
61781SOL    HW1 3335   9.060  12.241   5.063  1.0655  0.3966 -0.5171
61781SOL    HW2 3336   8.975  12.223   4.939  0.3653 -1.2608  0.1729
61782SOL     OW 3337   8.130   1.094  13.304 -0.0347 -0.1097 -0.7331
61782SOL    HW1 3338   8.090   1.175  13.271 -0.2662  0.7785  1.5349
61782SOL    HW2 3339   8.059   1.030  13.301 -0.1532  0.0418 -1.5491
61783SOL     OW 3340  13.189  10.937  13.652  0.1271 -0.0790 -0.4094
61783SOL    HW1 3341  13.199  10.843  13.638 -0.3357 -0.3170  0.6957
61783SOL    HW2 3342  13.198  10.948  13.747 -0.2744  0.9307 -0.4716
61784SOL     OW 3343  10.802  12.419   1.066 -0.4794  0.1786  0.0284
61784SOL    HW1 3344  10.864  12.492   1.068 -0.6571  0.3149  0.7270
61784SOL    HW2 3345  10.848  12.349   1.112 -0.4374 -0.0561 -0.3652
61785SOL     OW 3346   9.065  10.801   1.269 -0.4209 -0.1751 -0.0626
61785SOL    HW1 3347   9.028  10.792   1.181 -0.9777 -2.4501  0.3455
61785SOL    HW2 3348   9.084  10.895   1.277  0.6837 -0.0348 -2.9939
61786SOL     OW 3349   3.348  13.775  13.182 -0.0135  0.3500 -0.6661
61786SOL    HW1 3350   3.264  13.821  13.173  0.8456  2.3661  0.7821
61786SOL    HW2 3351   3.414  13.844  13.174  1.3802 -0.6618  1.2270
61787SOL     OW 3352  11.408  11.083   0.299 -0.3095  0.0920 -0.3777
61787SOL    HW1 3353  11.475  11.129   0.249  0.7268 -1.1365 -0.1815
61787SOL    HW2 3354  11.325  11.109   0.260  0.4278 -0.3033 -2.2902
61788SOL     OW 3355   8.549  12.573   2.242  0.3100 -0.2209  0.6936
61788SOL    HW1 3356   8.522  12.659   2.209  0.3349  0.6376  2.7770
61788SOL    HW2 3357   8.591  12.531   2.167  0.2478  1.5527 -0.3948
61789SOL     OW 3358  11.206   9.022   6.372 -0.3005 -0.3408  0.4640
61789SOL    HW1 3359  11.285   9.022   6.319  2.3933 -0.3079  4.0807
61789SOL    HW2 3360  11.204   8.935   6.411 -0.7155  0.3858  2.1510
61790SOL     OW 3361   3.127  13.301   1.026  0.1347 -0.3361  0.3431
61790SOL    HW1 3362   3.130  13.206   1.043  0.0567 -0.5240 -0.6620
61790SOL    HW2 3363   3.200  13.317   0.966 -0.3643  0.1011 -0.1526
61791SOL     OW 3364  14.001   6.120  12.949  0.0591 -0.0182 -0.3594
61791SOL    HW1 3365  14.016   6.168  13.031  0.7991 -0.7686 -0.0384
61791SOL    HW2 3366  14.045   6.036  12.963  0.6973  0.0702 -1.7541
61792SOL     OW 3367   7.626   0.706   7.099  0.7590 -0.5788 -0.1653
61792SOL    HW1 3368   7.671   0.647   7.160 -0.5839 -1.0676  0.3865
61792SOL    HW2 3369   7.634   0.664   7.014 -0.9058 -2.0494  0.3465
61793SOL     OW 3370   3.094  11.549   5.234  0.2363  0.2382  0.2321
61793SOL    HW1 3371   3.126  11.502   5.311  0.6318 -0.4180 -0.3204
61793SOL    HW2 3372   3.146  11.629   5.231  1.1060 -0.3245 -0.0527
61794SOL     OW 3373   4.867   5.369   5.770 -0.0990 -0.8188 -0.0292
61794SOL    HW1 3374   4.900   5.306   5.706  0.9499 -0.3207  0.0061
61794SOL    HW2 3375   4.813   5.316   5.830  0.2945 -1.5809 -0.3347
61795SOL     OW 3376   3.045   2.383   5.697 -0.0085 -0.1494 -0.0760
61795SOL    HW1 3377   3.047   2.461   5.642  2.8140 -0.0752 -0.0123
61795SOL    HW2 3378   2.974   2.399   5.759 -0.5299  1.6352 -1.0612
61796SOL     OW 3379   8.815   9.128  11.843 -0.0145  0.0417  0.0695
61796SOL    HW1 3380   8.855   9.215  11.842 -0.9477  0.5571  2.0967
61796SOL    HW2 3381   8.746   9.133  11.776  1.3465  0.0796 -1.3935
61797SOL     OW 3382  11.743   2.713   8.464  0.1193 -0.3274 -0.1505
61797SOL    HW1 3383  11.810   2.753   8.520  2.3568 -1.5333 -1.7897
61797SOL    HW2 3384  11.723   2.781   8.400 -1.0888  0.4076  0.9530
61798SOL     OW 3385   6.962   6.063   6.098 -0.1754  1.3023 -0.2870
61798SOL    HW1 3386   6.998   5.974   6.091 -0.7751  0.6262  3.3024
61798SOL    HW2 3387   7.038   6.116   6.124 -0.3788  1.1916  0.5782
61799SOL     OW 3388  11.078   0.535  13.205 -0.0866  0.1781 -0.0865
61799SOL    HW1 3389  11.032   0.519  13.288  0.7501 -0.1232  0.3331
61799SOL    HW2 3390  11.009   0.559  13.144 -0.5317  3.1027  1.3400
61800SOL     OW 3391  10.098   5.487  12.061 -0.3484 -0.3455  0.8994
61800SOL    HW1 3392  10.100   5.395  12.087 -0.1439 -0.2708  1.1502
61800SOL    HW2 3393  10.021   5.522  12.105 -0.5517 -0.4447  0.6297
61801SOL     OW 3394  10.892  13.533   2.110  0.3984 -0.0171 -0.2374
61801SOL    HW1 3395  10.900  13.519   2.205  1.7745 -0.4319 -0.3920
61801SOL    HW2 3396  10.982  13.544   2.080 -0.0937  1.0080 -1.3791
61802SOL     OW 3397  13.679   6.836   7.819 -0.1855  0.4550  0.3244
61802SOL    HW1 3398  13.589   6.843   7.789 -0.2829  1.1511  0.7708
61802SOL    HW2 3399  13.674   6.845   7.914  0.0885 -2.0511  0.6525
61803SOL     OW 3400   9.362   6.226   2.360 -0.6245 -0.5242 -0.2642
61803SOL    HW1 3401   9.379   6.159   2.294  0.7823 -0.1992 -0.2753
61803SOL    HW2 3402   9.404   6.305   2.327  0.2116 -0.3811  1.0386
61804SOL     OW 3403   0.156   6.390  10.726 -0.3273  0.5412 -0.1069
61804SOL    HW1 3404   0.147   6.326  10.655 -0.0707 -0.3969  0.6757
61804SOL    HW2 3405   0.101   6.355  10.797  2.7772 -1.0078  1.7942
61805SOL     OW 3406  10.742  10.287   3.091 -0.1414 -0.7129  0.4460
61805SOL    HW1 3407  10.730  10.193   3.077 -1.4453 -0.4613 -0.2669
61805SOL    HW2 3408  10.784  10.293   3.177 -3.1879 -1.8589  2.1797
61806SOL     OW 3409  14.031   5.973   8.521  0.0804  0.4480  0.4908
61806SOL    HW1 3410  13.941   5.972   8.554 -0.3232 -1.3666 -0.5151
61806SOL    HW2 3411  14.021   5.975   8.426  1.1130  0.5997  0.3782
61807SOL     OW 3412   5.266   8.783   4.855  0.0297  0.1055 -0.1352
61807SOL    HW1 3413   5.352   8.788   4.898  0.9436 -2.4800 -1.4729
61807SOL    HW2 3414   5.217   8.857   4.892  1.9538  0.1959  2.5469
61808SOL     OW 3415   9.800   3.544   0.347 -0.5607 -0.5238  0.7616
61808SOL    HW1 3416   9.841   3.464   0.313  1.6997  1.5762 -1.8790
61808SOL    HW2 3417   9.718   3.552   0.297  0.7028  0.3374 -1.2635
61809SOL     OW 3418   4.302   7.334   2.664  0.1535  0.0103  0.4952
61809SOL    HW1 3419   4.383   7.301   2.623  0.0996  1.2071 -0.6737
61809SOL    HW2 3420   4.253   7.256   2.687 -0.3185 -0.8325 -2.8274
61810SOL     OW 3421   9.614   8.171   7.860  0.0794  0.5039  0.2775
61810SOL    HW1 3422   9.542   8.229   7.888  1.5063  2.4688  0.0799
61810SOL    HW2 3423   9.690   8.201   7.910  0.3829 -3.0872  2.2826
61811SOL     OW 3424  10.709  13.952   6.066 -0.1829  0.0147  0.2152
61811SOL    HW1 3425  10.614  13.950   6.075 -0.4614  1.1206 -1.8885
61811SOL    HW2 3426  10.740  13.878   6.118 -2.1801 -0.4466  0.8280
61812SOL     OW 3427  12.105   4.556   4.594  0.4048  0.4391 -0.2331
61812SOL    HW1 3428  12.143   4.471   4.615 -0.1086  0.3163  0.2411
61812SOL    HW2 3429  12.148   4.616   4.655 -0.8450  0.1372  0.9944
61813SOL     OW 3430  13.894  13.389  10.641 -0.0207  0.3390 -0.4848
61813SOL    HW1 3431  13.850  13.440  10.710  0.2089 -0.4967  0.3015
61813SOL    HW2 3432  13.852  13.418  10.560 -0.8449  0.7856  0.0794
61814SOL     OW 3433   4.178   5.749   5.585  0.0089 -0.0495 -0.2882
61814SOL    HW1 3434   4.202   5.768   5.494  2.1571 -1.3384 -0.0818
61814SOL    HW2 3435   4.087   5.722   5.580 -0.3950  1.4165 -1.8132
61815SOL     OW 3436   9.083   9.555  12.872  0.1510 -0.0537 -0.5919
61815SOL    HW1 3437   9.059   9.646  12.890  2.2044  0.7814 -1.7184
61815SOL    HW2 3438   9.014   9.503  12.913 -0.2881  1.9526  1.3714
61816SOL     OW 3439   0.566   2.925  11.382  0.1356  0.1406  0.6201
61816SOL    HW1 3440   0.637   2.923  11.447 -0.5965 -0.4785  1.4342
61816SOL    HW2 3441   0.535   3.015  11.383  0.9579  0.4462  0.1799
61817SOL     OW 3442   8.630   7.426   0.138  0.0620 -0.4176 -0.1040
61817SOL    HW1 3443   8.651   7.407   0.229 -0.5921  1.4793  0.4916
61817SOL    HW2 3444   8.680   7.361   0.088  0.0299 -1.8320  1.5971
61818SOL     OW 3445   5.264   3.072  13.717 -0.4578 -0.8224  0.5546
61818SOL    HW1 3446   5.202   3.004  13.745 -1.7572  0.0213 -0.1651
61818SOL    HW2 3447   5.216   3.154  13.729  0.2788 -0.1915 -0.6690
61819SOL     OW 3448   4.967   3.794  10.797  0.2958  0.4950  0.2241
61819SOL    HW1 3449   5.008   3.851  10.732 -1.1490  1.5214  0.1794
61819SOL    HW2 3450   4.931   3.721  10.747 -1.9565  1.9331 -0.3537
61820SOL     OW 3451   9.390  12.160   0.552  0.1421 -0.3052  0.3219
61820SOL    HW1 3452   9.397  12.084   0.610  1.3707 -0.6746 -0.2785
61820SOL    HW2 3453   9.479  12.175   0.520 -0.1097  1.2704  0.2642
61821SOL     OW 3454   0.224   7.077   4.784  0.2494 -0.5724  0.3128
61821SOL    HW1 3455   0.261   7.120   4.707  1.9754 -2.0114  0.2757
61821SOL    HW2 3456   0.186   7.148   4.835 -1.6651  0.3479 -2.1949
61822SOL     OW 3457   8.989   7.725   9.697  0.0325 -0.0478 -0.2141
61822SOL    HW1 3458   8.898   7.755   9.699 -0.2963 -0.9809 -0.4225
61822SOL    HW2 3459   9.000   7.685   9.611  0.2832 -0.9639  0.2250
61823SOL     OW 3460  10.935   9.759  13.979  0.8422 -0.7398  0.0623
61823SOL    HW1 3461  10.890   9.763  14.064  0.9727  1.8419  0.0794
61823SOL    HW2 3462  11.020   9.720  13.999  0.3982 -1.3484  0.8552
61824SOL     OW 3463  12.182  12.371   8.736  0.2582 -0.1582 -0.1551
61824SOL    HW1 3464  12.148  12.421   8.810  1.2095  2.3465 -1.2729
61824SOL    HW2 3465  12.275  12.393   8.733  0.4770 -1.0986 -1.4221
61825SOL     OW 3466   5.386   7.801   1.863 -0.4687  0.4520  0.2772
61825SOL    HW1 3467   5.414   7.810   1.772 -3.3535  1.7580 -0.6017
61825SOL    HW2 3468   5.308   7.856   1.870 -3.2985 -3.3287  2.2091
61826SOL     OW 3469   7.886   0.202   8.524  0.1569  0.4434 -0.0203
61826SOL    HW1 3470   7.858   0.223   8.435  0.8717 -0.8142 -0.5688
61826SOL    HW2 3471   7.841   0.119   8.544  0.1897  0.5920  0.6960
61827SOL     OW 3472   7.176   7.344   8.464 -0.2984  0.1050  0.0851
61827SOL    HW1 3473   7.271   7.337   8.474 -0.5087 -2.2958  1.0304
61827SOL    HW2 3474   7.163   7.429   8.422  2.2521  0.4918 -0.1054
61828SOL     OW 3475   6.561   6.876   0.250 -0.3768 -0.2853  0.1115
61828SOL    HW1 3476   6.626   6.917   0.307 -1.7382 -0.6686  2.0363
61828SOL    HW2 3477   6.602   6.794   0.223 -0.3402 -0.9736  2.0581
61829SOL     OW 3478   4.364   2.836  12.370  0.1107  0.3206  0.4957
61829SOL    HW1 3479   4.321   2.779  12.434  1.5302 -0.7999  0.4848
61829SOL    HW2 3480   4.423   2.890  12.423  0.8166 -0.1620  0.2000
61830SOL     OW 3481   1.388   5.266   5.756 -0.2916  0.0627 -0.5639
61830SOL    HW1 3482   1.393   5.341   5.815 -1.7956 -0.6178  0.4915
61830SOL    HW2 3483   1.307   5.279   5.706 -0.1952 -0.4967 -0.8818
61831SOL     OW 3484   9.772  13.636   8.968  0.1377 -0.4655  0.1495
61831SOL    HW1 3485   9.693  13.584   8.983  0.6691 -1.2604  0.2981
61831SOL    HW2 3486   9.841  13.570   8.957  0.5760  0.1799 -1.1779
61832SOL     OW 3487   8.784   5.633  11.591  0.3835  0.0965 -0.3503
61832SOL    HW1 3488   8.765   5.726  11.578 -0.4970 -0.0866 -0.4250
61832SOL    HW2 3489   8.698   5.591  11.595  0.7785 -0.7853 -0.7922
61833SOL     OW 3490  14.044   9.889  11.360 -0.2079  0.0970 -0.3300
61833SOL    HW1 3491  14.090   9.959  11.316  0.9184  0.1392  0.8617
61833SOL    HW2 3492  13.957   9.925  11.379  0.4165  1.2726  0.4433
61834SOL     OW 3493   1.808   0.960  10.391  0.1383 -0.4929  0.2822
61834SOL    HW1 3494   1.861   0.976  10.313 -0.7443  0.2810 -0.1785
61834SOL    HW2 3495   1.840   0.877  10.425  1.1830 -0.3753 -0.3607
61835SOL     OW 3496   4.931  11.271  11.859 -0.6920  0.1645 -0.1010
61835SOL    HW1 3497   4.896  11.204  11.800 -0.2803  0.4913 -0.7307
61835SOL    HW2 3498   4.886  11.351  11.833 -2.1485 -0.0641  1.5032
61836SOL     OW 3499   9.132   1.150   6.751 -0.0227 -0.1404  0.1141
61836SOL    HW1 3500   9.121   1.240   6.782 -0.2174 -0.8434  2.2386
61836SOL    HW2 3501   9.223   1.129   6.770 -0.4776 -1.0009  1.4721
61837SOL     OW 3502  11.662   3.942  13.375 -0.8692  0.2521 -0.6428
61837SOL    HW1 3503  11.691   3.852  13.387 -0.8850  0.3205 -0.0283
61837SOL    HW2 3504  11.667   3.980  13.463 -0.0217  1.1044 -1.0458
61838SOL     OW 3505   6.809   0.395   0.909 -0.2022 -0.2999 -0.1465
61838SOL    HW1 3506   6.749   0.431   0.844 -0.6275  0.0432  0.4276
61838SOL    HW2 3507   6.756   0.386   0.988  0.1524 -1.2448  0.0070
61839SOL     OW 3508   1.750   0.637   9.457 -0.1878  0.1700  0.5839
61839SOL    HW1 3509   1.682   0.634   9.389  1.2362  0.3069 -0.9096
61839SOL    HW2 3510   1.709   0.684   9.529 -2.2628 -1.3145  0.4437
61840SOL     OW 3511   1.017  13.345  14.154  0.1190 -0.3013  0.0224
61840SOL    HW1 3512   1.047  13.304  14.235  2.0302 -0.9647 -0.9487
61840SOL    HW2 3513   1.097  13.380  14.114 -0.8227  0.3303 -1.3955
61841SOL     OW 3514  10.105   3.849   5.996  0.2910  0.5748 -0.2070
61841SOL    HW1 3515  10.167   3.783   5.965  1.4205  1.6454 -0.3112
61841SOL    HW2 3516  10.105   3.916   5.927  0.4395  1.4703  0.6388
61842SOL     OW 3517   0.938   4.989  13.954 -0.2922 -0.0963  0.5097
61842SOL    HW1 3518   1.032   4.983  13.968 -0.0421  1.4590 -0.2412
61842SOL    HW2 3519   0.917   4.913  13.901  1.0823  0.9448 -1.6927
61843SOL     OW 3520  14.107  12.925   5.178 -0.8944 -0.0067 -0.3499
61843SOL    HW1 3521  14.019  12.894   5.158 -0.5215 -1.4818  0.2107
61843SOL    HW2 3522  14.161  12.846   5.179  0.2627  0.7689  0.2421
61844SOL     OW 3523  10.581   0.309   7.127 -0.4571 -0.3230 -0.3494
61844SOL    HW1 3524  10.647   0.254   7.084  0.3486 -0.4275  0.9566
61844SOL    HW2 3525  10.535   0.352   7.055  0.1376 -1.2843 -1.3371
61845SOL     OW 3526  13.332  12.564   6.484 -0.0391  0.0032  0.2054
61845SOL    HW1 3527  13.334  12.655   6.454 -3.7047 -0.0458 -0.7488
61845SOL    HW2 3528  13.281  12.567   6.565 -0.9010 -1.2480 -0.2616
61846SOL     OW 3529   0.569   8.487   5.277 -0.0089 -0.4326 -0.2445
61846SOL    HW1 3530   0.601   8.554   5.337  0.5168  0.0419 -1.0480
61846SOL    HW2 3531   0.485   8.521   5.247  0.2101 -0.1788 -0.5735
61847SOL     OW 3532   5.344   3.032   0.461 -0.0852  0.3449  0.4081
61847SOL    HW1 3533   5.372   3.051   0.551  0.2144  0.0834  0.3740
61847SOL    HW2 3534   5.413   2.974   0.427  0.1494  0.9796 -0.2189
61848SOL     OW 3535   7.161   3.176   8.725 -0.1791  0.1026  0.1828
61848SOL    HW1 3536   7.144   3.209   8.636  1.4561 -0.8234 -0.5128
61848SOL    HW2 3537   7.137   3.084   8.721  1.8969 -0.4864  0.0250
61849SOL     OW 3538   7.780  10.208   4.009  0.6516  0.0547 -0.7301
61849SOL    HW1 3539   7.820  10.225   4.094 -1.2999 -1.1752  0.5223
61849SOL    HW2 3540   7.755  10.295   3.976  0.2873  0.4686  0.5818
61850SOL     OW 3541   4.701   7.063  12.709  0.5124  0.5052 -0.0125
61850SOL    HW1 3542   4.618   7.050  12.663  1.1695  0.4668 -1.2162
61850SOL    HW2 3543   4.749   6.982  12.695 -0.6324 -1.0511  3.8273
61851SOL     OW 3544   4.938   9.624   7.501 -0.8666 -0.4357 -0.0477
61851SOL    HW1 3545   4.941   9.644   7.407 -1.2835  0.5365  0.1361
61851SOL    HW2 3546   4.876   9.551   7.507 -1.6239  0.1613 -0.4301
61852SOL     OW 3547   9.841  10.352  12.580  0.0949 -0.0328 -0.1878
61852SOL    HW1 3548   9.829  10.438  12.621  1.7450  0.5246 -0.7532
61852SOL    HW2 3549   9.936  10.345  12.567  0.1120 -2.4305  0.8188
61853SOL     OW 3550   4.278   9.450   2.457  0.2221 -0.2232 -0.4623
61853SOL    HW1 3551   4.341   9.468   2.527 -1.7815  1.6566  0.9881
61853SOL    HW2 3552   4.228   9.374   2.489  0.9729 -0.9996 -1.0918
61854SOL     OW 3553  10.579   1.222   5.751 -0.0501 -0.3868  0.3501
61854SOL    HW1 3554  10.619   1.294   5.800 -0.5212 -0.3869  0.7494
61854SOL    HW2 3555  10.637   1.147   5.766  1.4516  0.3109 -1.5521
61855SOL     OW 3556  12.248  13.895   1.542  0.1222  0.6601  0.2959
61855SOL    HW1 3557  12.197  13.881   1.621 -1.6449  1.0589 -0.7220
61855SOL    HW2 3558  12.205  13.841   1.476  1.0427  0.9963 -0.6047
61856SOL     OW 3559   5.281  10.575   7.314  0.3581  0.1968 -0.0195
61856SOL    HW1 3560   5.275  10.483   7.286 -0.9473  0.5776 -1.0793
61856SOL    HW2 3561   5.206  10.587   7.372  1.0965  0.3501  0.9288
61857SOL     OW 3562  12.094   1.424   4.420 -0.0709  0.5722 -0.0099
61857SOL    HW1 3563  12.029   1.421   4.490 -0.5737  1.0309 -0.4567
61857SOL    HW2 3564  12.088   1.338   4.379  0.4861  0.1622  0.7325
61858SOL     OW 3565   4.549   9.037   2.724  0.0148 -0.5183  0.4288
61858SOL    HW1 3566   4.514   9.098   2.788 -1.4615 -1.8029  0.9077
61858SOL    HW2 3567   4.517   9.070   2.640 -0.3267 -0.3347  0.6286
61859SOL     OW 3568   8.221   1.146   5.093  0.3440 -0.5517 -0.0447
61859SOL    HW1 3569   8.248   1.055   5.100  1.4637 -0.2432 -0.0936
61859SOL    HW2 3570   8.288   1.187   5.039  0.1402  0.4067  0.3964
61860SOL     OW 3571   3.437  10.796   6.824  0.0659 -0.2727  0.2630
61860SOL    HW1 3572   3.411  10.705   6.808 -1.0303  0.0465  0.1128
61860SOL    HW2 3573   3.422  10.810   6.917 -0.7249  0.0260  0.1024
61861SOL     OW 3574  10.611   3.082  12.126 -0.4489  0.6177 -0.1567
61861SOL    HW1 3575  10.682   3.017  12.122 -1.4951 -0.5094 -1.4711
61861SOL    HW2 3576  10.562   3.060  12.205  0.3742  1.1191  0.5114
61862SOL     OW 3577  11.097   3.118   6.786 -0.2083 -0.3195  0.1515
61862SOL    HW1 3578  11.142   3.107   6.870 -1.6397 -1.9923  0.7666
61862SOL    HW2 3579  11.123   3.205   6.755  1.6971 -0.3620  1.4861
61863SOL     OW 3580  13.921  12.255  11.544  0.3199 -0.2056 -0.0208
61863SOL    HW1 3581  13.996  12.288  11.494 -2.9139  1.4544 -4.4321
61863SOL    HW2 3582  13.932  12.160  11.544  1.6632 -0.1134 -2.0524
61864SOL     OW 3583   9.354   0.596  12.272  0.4330  0.5762  0.5614
61864SOL    HW1 3584   9.334   0.674  12.220  0.8547  0.8633  0.8275
61864SOL    HW2 3585   9.269   0.571  12.310 -0.4885 -1.2695 -2.4022
61865SOL     OW 3586   1.071   6.529   8.302  0.6266 -0.1813  0.0629
61865SOL    HW1 3587   1.015   6.453   8.317 -1.3804  1.1751 -0.2235
61865SOL    HW2 3588   1.014   6.593   8.260  2.6896  0.9037 -1.2492
61866SOL     OW 3589  11.643   9.488   7.588  0.0815  0.2240  0.4641
61866SOL    HW1 3590  11.676   9.577   7.574 -0.2017  0.3849  0.8272
61866SOL    HW2 3591  11.609   9.462   7.502  3.8164 -1.0943 -0.8441
61867SOL     OW 3592  12.941  12.780   3.005  0.5027  0.4810  0.1974
61867SOL    HW1 3593  12.877  12.848   3.024 -0.6460 -0.2711 -0.8692
61867SOL    HW2 3594  12.944  12.775   2.909  1.4522 -0.1539  0.2451
61868SOL     OW 3595   8.057   7.576   7.051  0.1104 -0.2035  0.2201
61868SOL    HW1 3596   8.146   7.555   7.078  0.3389 -0.1151 -0.4531
61868SOL    HW2 3597   8.030   7.501   6.998 -0.0467 -0.0203  0.0408
61869SOL     OW 3598   8.165  10.435   7.130  0.4163 -0.1757 -0.2293
61869SOL    HW1 3599   8.252  10.453   7.166  0.6027  1.3065 -1.3254
61869SOL    HW2 3600   8.147  10.510   7.074 -1.9307 -0.0357  0.6209
61870SOL     OW 3601   7.470   4.547  13.230  0.0174  0.3278  0.1412
61870SOL    HW1 3602   7.530   4.622  13.235  0.2356  0.1589  0.1041
61870SOL    HW2 3603   7.384   4.584  13.247  0.3530  0.2467  2.3534
61871SOL     OW 3604   1.720  13.713   4.456  0.0970 -0.3135 -0.3684
61871SOL    HW1 3605   1.647  13.695   4.396  1.2740  0.2002 -2.0161
61871SOL    HW2 3606   1.752  13.626   4.479  0.4417 -0.5326 -1.5644
61872SOL     OW 3607  12.582   6.263  12.790 -0.2832 -0.4962  0.2566
61872SOL    HW1 3608  12.592   6.356  12.812  0.6403 -0.5842  0.2531
61872SOL    HW2 3609  12.547   6.263  12.701  1.6812 -0.1183 -0.5824
61873SOL     OW 3610   0.374   3.661  10.098 -0.1461  0.2045  0.1358
61873SOL    HW1 3611   0.430   3.611  10.158  1.0988  0.7765 -0.4987
61873SOL    HW2 3612   0.376   3.610  10.017 -1.0655 -0.0856  0.2852
61874SOL     OW 3613   8.938   4.691   0.872  0.2952  0.3061  0.2254
61874SOL    HW1 3614   9.010   4.747   0.843  1.7675 -1.2020  0.8239
61874SOL    HW2 3615   8.865   4.752   0.886  0.6606  1.6126 -2.6935
61875SOL     OW 3616   9.585   7.999  10.314  0.4259  0.3860  0.8610
61875SOL    HW1 3617   9.664   8.050  10.297  0.5520  0.2505  1.0479
61875SOL    HW2 3618   9.514   8.054  10.280  0.8370 -1.0319 -2.8258
61876SOL     OW 3619   0.135   0.099   6.216  0.3729  0.3797  0.0507
61876SOL    HW1 3620   0.144   0.177   6.271  0.1572  0.6292 -0.2620
61876SOL    HW2 3621   0.043   0.100   6.187 -0.2049 -1.0861  1.6622
61877SOL     OW 3622  12.677  14.030   5.087  0.1895 -0.3098  0.1417
61877SOL    HW1 3623  12.655  13.956   5.143  0.7346 -0.7840 -0.2654
61877SOL    HW2 3624  12.749  14.073   5.132 -2.0878  1.8530  2.0190
61878SOL     OW 3625   9.888  12.780   3.578 -0.4063  0.3612 -0.1400
61878SOL    HW1 3626   9.923  12.801   3.665  0.7195  0.7196 -0.6624
61878SOL    HW2 3627   9.956  12.726   3.537 -1.5140 -0.9424 -0.3170
61879SOL     OW 3628   0.697  11.997   2.886  0.1086  0.2116  0.1123
61879SOL    HW1 3629   0.735  11.911   2.905  1.3620  1.1838  2.2909
61879SOL    HW2 3630   0.768  12.047   2.846 -0.2063  0.6702  0.1111
61880SOL     OW 3631  12.514  10.414   5.255 -0.4472  0.6211 -0.2459
61880SOL    HW1 3632  12.546  10.490   5.207 -0.1812  0.7070  0.0697
61880SOL    HW2 3633  12.552  10.421   5.342 -0.4621  0.1537 -0.1953
61881SOL     OW 3634   9.066   3.808   1.580  0.0790  0.3864  0.8733
61881SOL    HW1 3635   9.032   3.784   1.493  1.1886 -0.4949  0.6691
61881SOL    HW2 3636   9.008   3.879   1.609  1.0411  2.3745 -1.6112
61882SOL     OW 3637  12.495   8.888   4.610 -0.3395 -0.4010  0.1830
61882SOL    HW1 3638  12.403   8.863   4.602 -0.0900 -0.8356 -1.7338
61882SOL    HW2 3639  12.537   8.852   4.532  1.3215  0.4524  0.6335
61883SOL     OW 3640   2.663   6.598  13.073 -0.1687 -0.0621  0.4428
61883SOL    HW1 3641   2.631   6.607  12.983 -0.1965 -0.9074  0.3596
61883SOL    HW2 3642   2.589   6.626  13.127 -0.6457 -0.8540  0.2233
61884SOL     OW 3643  12.041  12.613   6.649  0.5134  0.1450  0.3200
61884SOL    HW1 3644  12.024  12.666   6.571 -0.4411  0.9467  1.0402
61884SOL    HW2 3645  12.019  12.524   6.623  0.0759  0.4272 -0.2950
61885SOL     OW 3646   6.141   6.904   2.627 -0.1420  0.1775  0.2212
61885SOL    HW1 3647   6.147   6.810   2.646  0.8938  0.0101 -0.7859
61885SOL    HW2 3648   6.219   6.941   2.670  0.5534  0.2497 -1.0708
61886SOL     OW 3649   7.003  11.825   3.711 -0.7271 -0.9192 -0.1793
61886SOL    HW1 3650   7.047  11.804   3.793 -2.4404 -0.1253  1.0273
61886SOL    HW2 3651   6.911  11.836   3.736 -1.5412 -1.9175 -2.4427
61887SOL     OW 3652  14.063  12.890  10.051  0.3636 -0.2701  0.3809
61887SOL    HW1 3653  14.091  12.959  10.112 -0.6915  1.3852 -0.9164
61887SOL    HW2 3654  14.059  12.934   9.966 -1.9523 -1.4963 -0.2192
61888SOL     OW 3655   7.518   6.385   8.138 -0.9861 -0.1103 -0.1627
61888SOL    HW1 3656   7.580   6.451   8.105 -1.6330 -0.4082 -2.0456
61888SOL    HW2 3657   7.574   6.312   8.166 -0.3924  0.3496 -0.1123
61889SOL     OW 3658  11.160   9.362   1.780 -0.0613  0.0600  0.6265
61889SOL    HW1 3659  11.211   9.432   1.740 -0.5307 -0.0702 -0.2283
61889SOL    HW2 3660  11.196   9.354   1.868  1.3845 -0.0158  0.0669
61890SOL     OW 3661  10.216   1.688  13.564  0.3511 -0.3506  0.3187
61890SOL    HW1 3662  10.236   1.731  13.481  1.3509 -2.0084 -0.3541
61890SOL    HW2 3663  10.181   1.603  13.539  0.8893 -0.9725  1.5892
61891SOL     OW 3664  13.000   0.464   8.856  0.5274  0.3410  0.2244
61891SOL    HW1 3665  12.935   0.421   8.802 -0.4699  0.4392  1.3032
61891SOL    HW2 3666  12.949   0.513   8.921  1.6484  1.8866 -0.0057
61892SOL     OW 3667   4.336  13.621   9.596 -0.2310  0.0993 -0.1567
61892SOL    HW1 3668   4.286  13.623   9.677 -1.6000 -3.7705 -0.7309
61892SOL    HW2 3669   4.276  13.654   9.530 -2.1535 -3.9784 -0.7405
61893SOL     OW 3670   9.587  12.092   3.135 -0.1394  0.2119  0.4598
61893SOL    HW1 3671   9.562  12.150   3.207 -0.7117 -0.0563  0.4826
61893SOL    HW2 3672   9.505  12.055   3.104  0.1349  0.0707 -0.1209
61894SOL     OW 3673   7.858   1.648   3.674  0.6533 -0.1145 -0.1864
61894SOL    HW1 3674   7.899   1.563   3.658 -1.3789 -1.3804  1.0158
61894SOL    HW2 3675   7.870   1.663   3.768  2.2249  1.6629 -0.6069
61895SOL     OW 3676   6.362  11.158   7.182 -0.0840 -0.1792 -0.4620
61895SOL    HW1 3677   6.315  11.240   7.195  2.0969  1.1065 -0.2812
61895SOL    HW2 3678   6.388  11.159   7.090 -0.5142 -0.9379 -0.5985
61896SOL     OW 3679   7.346  10.053   7.167 -0.1531  0.3950  0.8072
61896SOL    HW1 3680   7.254  10.028   7.180 -0.3916 -0.4139 -1.8722
61896SOL    HW2 3681   7.343  10.145   7.143 -0.3791  0.1811 -0.0299
61897SOL     OW 3682   7.621   9.110  10.096 -0.5562 -0.4656 -0.2355
61897SOL    HW1 3683   7.606   9.200  10.067 -0.1010 -0.3885 -0.2458
61897SOL    HW2 3684   7.710   9.090  10.065 -0.4012 -0.6871  0.3467
61898SOL     OW 3685   0.311  11.463   6.503 -0.5194 -0.1387 -0.3557
61898SOL    HW1 3686   0.261  11.510   6.570  0.9552  3.5662 -1.5791
61898SOL    HW2 3687   0.305  11.371   6.528 -3.7773  0.5971  2.2366
61899SOL     OW 3688  13.246   6.082  11.291 -0.0599 -1.0286 -0.3778
61899SOL    HW1 3689  13.332   6.042  11.272  0.4317  0.6872 -2.0302
61899SOL    HW2 3690  13.257   6.174  11.269 -1.6911 -0.2784  1.6408
61900SOL     OW 3691  10.940   1.037   3.715  0.2242 -0.2168 -0.2196
61900SOL    HW1 3692  11.023   1.014   3.673  1.0434  1.7467  0.2142
61900SOL    HW2 3693  10.908   1.113   3.665 -0.4434  0.1045  0.6778
61901SOL     OW 3694   9.718  13.531   7.909 -0.3870  0.1716 -0.3045
61901SOL    HW1 3695   9.767  13.557   7.831  1.2245 -0.1566  0.5519
61901SOL    HW2 3696   9.646  13.477   7.875 -0.4080  0.9936 -1.6315
61902SOL     OW 3697   8.618  13.754   2.196 -0.2347  0.0434  0.0213
61902SOL    HW1 3698   8.638  13.752   2.102  0.9952  2.6618  0.1510
61902SOL    HW2 3699   8.573  13.671   2.212  1.6378 -1.5743 -2.3875
61903SOL     OW 3700  11.590   4.601  13.055  0.0016 -0.9177 -0.3394
61903SOL    HW1 3701  11.541   4.589  13.137  0.3233 -1.0052 -0.1595
61903SOL    HW2 3702  11.536   4.662  13.004  0.8507  0.9015  0.8187
61904SOL     OW 3703   3.203   7.698   1.772  0.0695 -0.1046  0.0010
61904SOL    HW1 3704   3.289   7.678   1.735  0.8065  0.3153  1.3819
61904SOL    HW2 3705   3.161   7.756   1.708  1.8293  1.7047  0.3915
61905SOL     OW 3706  11.027   0.597   1.100  0.2002 -0.3666  0.4224
61905SOL    HW1 3707  11.073   0.543   1.035  0.7669  1.6613 -0.9713
61905SOL    HW2 3708  11.089   0.604   1.173  1.1815  0.4021 -0.4479
61906SOL     OW 3709   8.247   8.545   0.370  0.1678 -0.3711 -0.1663
61906SOL    HW1 3710   8.185   8.601   0.323  0.3653 -0.6046 -0.7144
61906SOL    HW2 3711   8.240   8.460   0.326  1.0004 -0.3573 -0.3391
61907SOL     OW 3712   4.104   3.250   3.398 -0.1126  0.2813 -0.4234
61907SOL    HW1 3713   4.111   3.158   3.425  0.6373  0.3622 -0.3355
61907SOL    HW2 3714   4.174   3.262   3.335  1.4787  1.4473  1.4485
61908SOL     OW 3715  10.804  13.889   7.504  0.6685 -0.3544 -0.2095
61908SOL    HW1 3716  10.733  13.925   7.449  0.0152 -0.3664  0.6051
61908SOL    HW2 3717  10.801  13.795   7.487  0.6960 -0.3169 -0.4225
61909SOL     OW 3718   7.114   3.358   5.535 -0.1101 -0.1274 -0.2067
61909SOL    HW1 3719   7.112   3.366   5.631 -1.6033 -0.1425 -0.2171
61909SOL    HW2 3720   7.090   3.445   5.504  2.9830  0.6863 -0.6688
61910SOL     OW 3721   7.545   6.732  12.450  0.1305  0.2950  0.5079
61910SOL    HW1 3722   7.463   6.744  12.402  0.6954 -0.8837 -0.8638
61910SOL    HW2 3723   7.564   6.818  12.488 -1.9309  0.4831  1.2384
61911SOL     OW 3724   2.568   1.542  12.681 -0.0701  0.0584  0.3626
61911SOL    HW1 3725   2.547   1.595  12.758 -0.3430  0.0454  0.2978
61911SOL    HW2 3726   2.632   1.594  12.633  1.5223 -0.7365  1.5325
61912SOL     OW 3727   8.483  13.783   5.542  0.2902 -0.0656  0.1463
61912SOL    HW1 3728   8.541  13.819   5.610  1.2968 -0.3133 -0.5587
61912SOL    HW2 3729   8.460  13.696   5.574  0.6727 -0.1417  0.2188
61913SOL     OW 3730   4.455   2.645  11.249  0.1372  0.6072  0.3768
61913SOL    HW1 3731   4.375   2.646  11.302 -0.4019  1.8325 -0.4317
61913SOL    HW2 3732   4.503   2.723  11.277  0.4931  0.5188  0.0096
61914SOL     OW 3733   8.800  11.360  13.411 -0.3606  0.1040  0.3095
61914SOL    HW1 3734   8.876  11.360  13.353 -0.6241 -2.1448 -0.1066
61914SOL    HW2 3735   8.828  11.309  13.487 -1.7943 -1.8511 -0.4082
61915SOL     OW 3736   3.846   6.652   0.254 -0.4576 -0.1413 -0.0515
61915SOL    HW1 3737   3.835   6.645   0.159 -0.6335 -1.4930  0.0556
61915SOL    HW2 3738   3.898   6.575   0.278  1.1078  1.0929  0.7335
61916SOL     OW 3739   0.812   6.136   0.537  0.1963 -0.1452 -0.6598
61916SOL    HW1 3740   0.750   6.199   0.572 -0.3740 -0.3315 -1.3217
61916SOL    HW2 3741   0.782   6.118   0.448  1.1777 -0.2683 -0.9866
61917SOL     OW 3742   6.396   9.656  12.948 -0.4349  0.8732  0.3581
61917SOL    HW1 3743   6.364   9.671  12.859  0.3530 -0.4522 -0.1783
61917SOL    HW2 3744   6.431   9.567  12.946 -0.4180  0.8149  2.0088
61918SOL     OW 3745   1.745   0.289   0.592 -0.2883 -0.2731 -0.1816
61918SOL    HW1 3746   1.748   0.232   0.515 -1.0282 -0.3104 -0.1880
61918SOL    HW2 3747   1.756   0.377   0.557 -0.5922 -0.2928 -0.3313
61919SOL     OW 3748  12.350   5.325   6.909 -0.0489  0.1909  0.1609
61919SOL    HW1 3749  12.285   5.294   6.972 -1.2948 -0.3703 -1.3608
61919SOL    HW2 3750  12.303   5.388   6.855  1.1382  1.0254  0.0567
61920SOL     OW 3751   2.298   6.924  13.688 -0.4312  0.1708  0.2051
61920SOL    HW1 3752   2.320   6.834  13.667 -1.1830  0.1712 -0.6448
61920SOL    HW2 3753   2.355   6.946  13.763  0.3791 -0.7101 -0.1320
61921SOL     OW 3754   1.134   3.100  12.031 -0.0867 -0.4945 -0.3778
61921SOL    HW1 3755   1.126   3.019  11.982  1.3546 -0.8725 -0.0302
61921SOL    HW2 3756   1.121   3.169  11.966 -1.0397 -0.9814 -0.7273
61922SOL     OW 3757   5.620  11.890  11.200 -0.1698  0.7333  0.2099
61922SOL    HW1 3758   5.554  11.845  11.147  1.1206 -1.2101  0.1833
61922SOL    HW2 3759   5.688  11.915  11.138  0.4016  0.2651  0.6459
61923SOL     OW 3760   3.737   6.335  12.923  0.5625  0.3221 -0.2181
61923SOL    HW1 3761   3.819   6.364  12.962  0.4018 -1.0410  1.2331
61923SOL    HW2 3762   3.695   6.282  12.991 -0.9822  0.0372 -1.3346
61924SOL     OW 3763   1.768   3.662  11.300  0.1990  0.3457  0.0033
61924SOL    HW1 3764   1.814   3.594  11.348 -0.6128 -0.0989  0.1795
61924SOL    HW2 3765   1.834   3.728  11.281  0.6505  0.2795  1.2690
61925SOL     OW 3766   5.264  11.690   6.054  0.6134  0.6259 -0.3615
61925SOL    HW1 3767   5.234  11.772   6.017  1.8411  1.2299 -0.0615
61925SOL    HW2 3768   5.234  11.692   6.145  0.2619  0.5341 -0.4740
61926SOL     OW 3769   0.337   7.159   3.509 -0.3127  0.7414 -0.4788
61926SOL    HW1 3770   0.258   7.150   3.561 -1.8223  0.8861 -2.6122
61926SOL    HW2 3771   0.326   7.243   3.463  0.9853  0.6664 -0.9735
61927SOL     OW 3772   5.606   9.860   8.865 -0.0714 -0.3340  0.1798
61927SOL    HW1 3773   5.617   9.767   8.885 -0.4966 -0.6884 -1.1490
61927SOL    HW2 3774   5.693   9.898   8.880 -0.0368 -0.8080  1.3190
61928SOL     OW 3775   9.661   5.824  12.343 -0.3585 -0.2824 -0.3265
61928SOL    HW1 3776   9.737   5.883  12.339 -1.5498  1.4200  1.1169
61928SOL    HW2 3777   9.612   5.844  12.263 -0.4206  0.1964 -0.1689
61929SOL     OW 3778   4.170  12.316   4.598 -0.0658  0.9761 -0.2778
61929SOL    HW1 3779   4.131  12.272   4.523  0.3562 -1.1119  0.6538
61929SOL    HW2 3780   4.195  12.402   4.565 -0.7672  0.4792 -2.2526
61930SOL     OW 3781   7.721   5.229  12.158 -0.3822 -0.0014 -0.4469
61930SOL    HW1 3782   7.719   5.138  12.187  1.2545 -0.0962 -0.5283
61930SOL    HW2 3783   7.653   5.272  12.211 -0.9224 -1.1816 -0.1434
61931SOL     OW 3784  12.937   0.470   1.551  0.6224  0.1334  0.3565
61931SOL    HW1 3785  12.896   0.549   1.517  0.7635 -0.2024 -0.6281
61931SOL    HW2 3786  12.935   0.408   1.478 -0.4646 -1.1641  1.4081
61932SOL     OW 3787  12.989   2.682  11.303 -0.5160 -0.0301  0.1775
61932SOL    HW1 3788  12.954   2.670  11.391  1.2437  0.1248  0.9300
61932SOL    HW2 3789  13.035   2.600  11.283 -0.7365  0.0089 -0.5282
61933SOL     OW 3790   6.553  10.529   1.822  0.3971  0.3408 -0.4030
61933SOL    HW1 3791   6.612  10.461   1.790  0.6251  0.8329 -1.0394
61933SOL    HW2 3792   6.610  10.605   1.836 -0.2057  1.0891 -1.8606
61934SOL     OW 3793  11.644  10.877  10.773 -0.2870 -0.7788 -0.1937
61934SOL    HW1 3794  11.635  10.795  10.823 -1.2644  0.4386  1.7338
61934SOL    HW2 3795  11.689  10.936  10.834 -0.9439  0.5714 -0.9958
61935SOL     OW 3796   4.144   0.017   6.198  0.3787  0.0200  0.0332
61935SOL    HW1 3797   4.129  -0.077   6.188  0.8802 -0.1053  0.4519
61935SOL    HW2 3798   4.102   0.056   6.121 -0.3627 -0.4906  0.1715
61936SOL     OW 3799   3.376   2.489   1.452  0.2801  0.6769  0.2708
61936SOL    HW1 3800   3.290   2.505   1.413 -0.7296  0.6485  2.3186
61936SOL    HW2 3801   3.374   2.539   1.535  1.4108 -1.0187  1.3834
61937SOL     OW 3802  12.095   4.503  12.913 -0.3760 -0.0747  0.1350
61937SOL    HW1 3803  12.133   4.581  12.953 -1.6413  0.3455  0.5680
61937SOL    HW2 3804  12.002   4.507  12.936 -0.3392 -2.1330  0.8682
61938SOL     OW 3805  13.207   2.920   5.447  0.8873  0.1609  0.2433
61938SOL    HW1 3806  13.267   2.860   5.402 -0.0399  0.2211 -1.1557
61938SOL    HW2 3807  13.168   2.972   5.376 -0.0628  0.8027  1.2099
61939SOL     OW 3808  10.760   2.570   9.754 -0.2597  0.4786  0.5281
61939SOL    HW1 3809  10.839   2.556   9.807 -0.0468 -0.2486  0.0320
61939SOL    HW2 3810  10.781   2.533   9.668 -1.2855 -0.1002  0.5084
61940SOL     OW 3811   7.736   8.816   8.709 -0.3339  0.2175 -0.2323
61940SOL    HW1 3812   7.820   8.809   8.662 -0.1827 -0.3003  0.1108
61940SOL    HW2 3813   7.670   8.808   8.640 -0.1058  0.9146 -0.5448
61941SOL     OW 3814   0.545  10.256  11.842 -0.6869 -0.2652  0.1122
61941SOL    HW1 3815   0.612  10.325  11.841  0.9891 -1.8177  0.9386
61941SOL    HW2 3816   0.525  10.244  11.934 -1.0204 -0.8443 -0.0353
61942SOL     OW 3817   0.432   2.297   1.584 -0.5606 -0.0319  0.4485
61942SOL    HW1 3818   0.526   2.280   1.571 -0.2771  0.8907  1.1436
61942SOL    HW2 3819   0.392   2.211   1.588  0.1532 -0.4368 -0.5791
61943SOL     OW 3820   3.019  13.414   5.700 -0.2879 -0.3396  0.6034
61943SOL    HW1 3821   2.999  13.494   5.651 -1.7677  0.4021  2.2467
61943SOL    HW2 3822   3.110  13.394   5.680 -0.0316  1.5012 -0.2241
61944SOL     OW 3823   5.050   9.090   6.201 -0.2420 -0.0134  0.2781
61944SOL    HW1 3824   4.987   9.103   6.272  0.3281  0.1794  0.7582
61944SOL    HW2 3825   4.996   9.083   6.122 -0.9406 -1.0085  0.8150
61945SOL     OW 3826  12.658   2.600  13.294 -0.6134  0.1457  0.0403
61945SOL    HW1 3827  12.658   2.536  13.365 -0.0437  1.4026  1.2317
61945SOL    HW2 3828  12.747   2.634  13.292 -0.8389  0.7164 -0.7268
61946SOL     OW 3829   7.245   9.570   0.384 -0.0843  0.0889 -0.1878
61946SOL    HW1 3830   7.164   9.572   0.333 -0.3250  1.1732  0.2101
61946SOL    HW2 3831   7.223   9.613   0.467  0.3140 -1.5853  0.8332
61947SOL     OW 3832  12.395  10.229   4.001 -0.3706  0.4637 -0.2251
61947SOL    HW1 3833  12.331  10.248   3.932 -0.3531  1.1786 -0.0479
61947SOL    HW2 3834  12.344  10.181   4.068 -0.5832  0.5205 -0.3449
61948SOL     OW 3835   0.629  11.445   5.513 -0.2110 -0.0182 -0.0124
61948SOL    HW1 3836   0.556  11.410   5.460 -0.1353  0.2944 -0.3294
61948SOL    HW2 3837   0.600  11.435   5.603 -0.5805 -0.0478 -0.1318
61949SOL     OW 3838   4.925  11.937  14.047  0.1000  0.2376  0.8905
61949SOL    HW1 3839   4.933  11.935  14.142 -2.6246  2.0334  1.2527
61949SOL    HW2 3840   4.835  11.909  14.030  0.5934 -0.2333 -1.2143
61950SOL     OW 3841  11.032   6.704  12.411 -0.4054 -0.0253  0.3026
61950SOL    HW1 3842  11.075   6.736  12.490 -1.8106 -0.2439  1.1947
61950SOL    HW2 3843  10.939   6.717  12.427 -0.7449 -0.4244 -1.1718
61951SOL     OW 3844   1.573  10.573   7.381 -0.1498  0.5858  0.2787
61951SOL    HW1 3845   1.590  10.479   7.379 -2.6680  0.0003  2.1701
61951SOL    HW2 3846   1.544  10.593   7.292  0.7090 -0.3147 -0.2354
61952SOL     OW 3847   1.078   9.787   5.823 -0.2534  0.7459  0.2917
61952SOL    HW1 3848   1.072   9.878   5.793 -2.0208  0.4933 -0.2836
61952SOL    HW2 3849   1.048   9.736   5.748  1.3290 -0.3844  0.3927
61953SOL     OW 3850   7.410   3.568   7.451 -0.0713  0.0332  0.2360
61953SOL    HW1 3851   7.485   3.597   7.503 -0.1245 -0.1041  0.3919
61953SOL    HW2 3852   7.382   3.646   7.404  0.5476 -0.0498 -0.2920
61954SOL     OW 3853   6.776   1.460   2.428 -0.1300 -0.0497  0.4291
61954SOL    HW1 3854   6.838   1.533   2.424  0.0032 -0.0060  2.2349
61954SOL    HW2 3855   6.829   1.382   2.409 -0.3059  0.2872 -1.6609
61955SOL     OW 3856  12.318   7.965   8.114 -0.6247  0.9786 -0.5012
61955SOL    HW1 3857  12.302   8.019   8.037 -0.9683 -0.1918 -1.2700
61955SOL    HW2 3858  12.230   7.949   8.150 -0.5151  1.0102 -0.2177
61956SOL     OW 3859   8.646   7.819   9.973 -0.1678  0.2086 -0.0779
61956SOL    HW1 3860   8.660   7.809   9.879 -2.7510 -1.4054 -0.3782
61956SOL    HW2 3861   8.612   7.908   9.983  2.9791  1.5417 -0.1812
61957SOL     OW 3862  12.929  11.553   3.680 -0.4024 -0.0938  0.1023
61957SOL    HW1 3863  12.961  11.624   3.735 -0.7804 -1.1001  1.6758
61957SOL    HW2 3864  13.006  11.497   3.666 -0.5937 -0.5306  0.7400
61958SOL     OW 3865   4.614   8.886  13.950  0.2747  0.1076  0.2302
61958SOL    HW1 3866   4.595   8.967  13.999 -0.5904 -0.5630  1.0482
61958SOL    HW2 3867   4.668   8.915  13.877 -0.7233  1.5650  0.0143
61959SOL     OW 3868   8.793   8.656  10.525 -0.1628 -0.0166 -0.3653
61959SOL    HW1 3869   8.817   8.579  10.577  0.6622  0.2938 -0.2671
61959SOL    HW2 3870   8.874   8.680  10.479 -0.3126  1.0054 -0.1158
61960SOL     OW 3871  11.090   1.277   3.403 -0.1912  0.1738  0.1338
61960SOL    HW1 3872  11.102   1.238   3.317 -0.1650  1.2302 -0.3660
61960SOL    HW2 3873  11.115   1.209   3.465  0.1599 -0.4719 -0.7042
61961SOL     OW 3874  12.416   5.692  11.122 -0.0596 -0.4713 -0.5237
61961SOL    HW1 3875  12.357   5.768  11.123  1.5731  0.8492 -0.7796
61961SOL    HW2 3876  12.443   5.681  11.213 -0.5608 -0.9747 -0.4320
61962SOL     OW 3877   5.675   1.716  10.275 -0.4438 -0.2095  0.2712
61962SOL    HW1 3878   5.625   1.775  10.218 -1.0666 -0.8611  0.1378
61962SOL    HW2 3879   5.737   1.774  10.320  1.2999  0.1287 -2.3238
61963SOL     OW 3880  12.935   6.653   6.500 -0.0245  0.3126  0.2401
61963SOL    HW1 3881  12.876   6.725   6.476 -2.1226 -1.0767  0.9172
61963SOL    HW2 3882  12.985   6.636   6.421 -2.4275 -0.1429 -1.2995
61964SOL     OW 3883  12.736   7.516  10.859  0.2843  0.1389 -0.2287
61964SOL    HW1 3884  12.807   7.564  10.816 -0.0185  0.0130 -0.8942
61964SOL    HW2 3885  12.713   7.568  10.935  0.2340  0.8470 -0.7181
61965SOL     OW 3886   1.771   5.324   5.922 -0.3720  0.3772 -0.0276
61965SOL    HW1 3887   1.785   5.390   5.854 -0.2379 -0.8822 -1.2931
61965SOL    HW2 3888   1.849   5.268   5.917 -0.4986  0.1025  0.9718
61966SOL     OW 3889   8.715   4.910   7.812  0.1843 -0.1361 -0.2338
61966SOL    HW1 3890   8.753   4.852   7.878 -0.9098  0.7866  1.2612
61966SOL    HW2 3891   8.788   4.964   7.782  0.6963 -0.5669  0.2085
61967SOL     OW 3892   7.922   5.321  11.619 -0.4082 -0.0132 -0.2926
61967SOL    HW1 3893   7.950   5.298  11.530  2.0890 -1.3741  0.7381
61967SOL    HW2 3894   7.916   5.416  11.619  0.9103  0.1032 -1.5999
61968SOL     OW 3895   5.657   0.652   7.589 -0.1410  0.5112  0.4327
61968SOL    HW1 3896   5.599   0.689   7.523 -0.5589  3.3413  2.2101
61968SOL    HW2 3897   5.611   0.665   7.672  1.0715 -1.4110  1.4946
61969SOL     OW 3898   3.027  10.833   0.987 -0.4641  0.3105 -0.0073
61969SOL    HW1 3899   3.087  10.799   1.053  0.4533  0.7981 -0.5587
61969SOL    HW2 3900   2.940  10.808   1.018  0.1049 -2.1874 -0.1739
61970SOL     OW 3901  13.413  13.271  12.291 -0.0192  0.4025  0.0098
61970SOL    HW1 3902  13.489  13.259  12.348 -0.3204  0.4061  0.4165
61970SOL    HW2 3903  13.361  13.191  12.304 -0.0622  0.3820 -0.2985
61971SOL     OW 3904   3.635   2.783   9.649 -0.3302 -0.2923  0.3379
61971SOL    HW1 3905   3.645   2.801   9.742  1.0889 -1.6068  0.4753
61971SOL    HW2 3906   3.698   2.842   9.607 -0.0519 -0.5846  0.3330
61972SOL     OW 3907   6.606   3.239   2.706 -0.0188 -0.0667 -0.2806
61972SOL    HW1 3908   6.683   3.228   2.762 -1.1115 -2.6842  0.8679
61972SOL    HW2 3909   6.592   3.153   2.667 -1.2303  0.8742 -2.0338
61973SOL     OW 3910   3.074  10.509  10.623  0.3688  0.0259 -0.1413
61973SOL    HW1 3911   2.980  10.499  10.634  0.5462 -1.7630  0.0628
61973SOL    HW2 3912   3.105  10.541  10.707  0.0381 -0.0585  0.0131
61974SOL     OW 3913  10.825   8.268   1.031 -0.6134 -0.0671  0.1160
61974SOL    HW1 3914  10.860   8.343   1.079 -1.8044  0.3656  0.3392
61974SOL    HW2 3915  10.738   8.254   1.068 -0.5459 -1.3625 -0.1473
61975SOL     OW 3916  11.836  12.449   2.804 -0.1978  0.4030 -0.2822
61975SOL    HW1 3917  11.751  12.482   2.776 -1.4228 -2.5936 -0.4582
61975SOL    HW2 3918  11.842  12.474   2.897 -1.7169 -0.0660 -0.0258
61976SOL     OW 3919  12.114  13.913   1.006 -0.4949 -0.1932  0.0596
61976SOL    HW1 3920  12.166  13.833   1.015 -1.1904 -0.5497  0.9928
61976SOL    HW2 3921  12.035  13.886   0.959 -0.6759 -0.0254  0.2666
61977SOL     OW 3922   5.616   3.724   9.099  0.1721 -0.1564 -0.0710
61977SOL    HW1 3923   5.662   3.641   9.086  0.4480  0.1172 -0.9904
61977SOL    HW2 3924   5.551   3.706   9.166  1.3732 -0.6595  0.9875
61978SOL     OW 3925   9.027   6.556   7.147 -0.0091 -0.1893  0.7216
61978SOL    HW1 3926   9.012   6.530   7.056 -0.8199  1.1797  0.4482
61978SOL    HW2 3927   8.951   6.521   7.194  0.4098 -0.8962  0.8873
61979SOL     OW 3928   1.993  10.275   4.697 -0.4250 -0.5266 -0.6179
61979SOL    HW1 3929   1.966  10.187   4.670 -1.3222  0.0068 -1.5421
61979SOL    HW2 3930   1.990  10.273   4.792  0.8946 -1.8935 -0.5606
61980SOL     OW 3931   4.817  12.435  13.086 -0.2732  0.1272  0.4531
61980SOL    HW1 3932   4.849  12.525  13.086  1.0116 -0.2041  3.4565
61980SOL    HW2 3933   4.875  12.388  13.026  1.3688  0.6484  1.5668
61981SOL     OW 3934  13.759  11.356   3.988  0.2441  0.4673  0.0506
61981SOL    HW1 3935  13.679  11.409   3.983  0.7300  1.2835  0.6195
61981SOL    HW2 3936  13.816  11.404   4.048  0.2195 -1.3628  1.6272
61982SOL     OW 3937   7.004  13.367  10.507  0.1737 -0.2056 -0.0338
61982SOL    HW1 3938   7.054  13.289  10.531 -2.3008 -2.2199 -0.9231
61982SOL    HW2 3939   7.045  13.399  10.427  1.5286 -0.2284  0.6200
61983SOL     OW 3940  12.810   0.723  13.301  0.2237  0.6202 -0.5691
61983SOL    HW1 3941  12.827   0.691  13.390  0.3616  0.7564 -0.5464
61983SOL    HW2 3942  12.895   0.718  13.257  0.2377  0.9226 -0.5761
61984SOL     OW 3943   7.835  14.022   0.716  0.3317  0.1067  0.8191
61984SOL    HW1 3944   7.748  14.036   0.679  0.1102  0.8799  1.5898
61984SOL    HW2 3945   7.885  13.981   0.646 -0.6229 -0.2413  0.3311
61985SOL     OW 3946   1.832  13.273  14.051 -0.2209  0.3636 -0.2708
61985SOL    HW1 3947   1.764  13.311  13.997  0.2797 -0.1748 -1.3086
61985SOL    HW2 3948   1.910  13.325  14.033  0.1161 -0.2476 -0.6117
61986SOL     OW 3949  14.110   0.403  10.681 -0.8483  0.4087  0.1712
61986SOL    HW1 3950  14.168   0.479  10.675 -0.6800  0.2576 -0.1319
61986SOL    HW2 3951  14.025   0.440  10.706 -0.5613  0.6012  0.8588
61987SOL     OW 3952   8.910   9.857   4.425  0.2907  0.4177 -0.2754
61987SOL    HW1 3953   9.001   9.880   4.407  0.5922  0.0871  0.7554
61987SOL    HW2 3954   8.902   9.767   4.394  0.6207  0.0837  0.5673
61988SOL     OW 3955  11.429   3.442   3.759  0.4178 -0.0742  0.6497
61988SOL    HW1 3956  11.435   3.471   3.851 -2.1165 -2.4437  1.6868
61988SOL    HW2 3957  11.469   3.355   3.759 -3.1244 -1.8809  0.5620
61989SOL     OW 3958   1.004  13.056  13.140  0.6371 -0.1970 -1.0739
61989SOL    HW1 3959   1.045  13.027  13.059  0.9627 -1.9504 -0.3203
61989SOL    HW2 3960   1.015  12.983  13.201 -0.4987  0.6698  0.2484
61990SOL     OW 3961  13.511   2.858   7.735  0.7899 -0.3670 -1.0986
61990SOL    HW1 3962  13.603   2.884   7.729  0.6352  1.3039  1.9079
61990SOL    HW2 3963  13.469   2.930   7.781 -1.4626 -2.3862  0.2234
61991SOL     OW 3964   5.961   2.566  11.779 -0.2511 -0.2878 -0.4704
61991SOL    HW1 3965   5.959   2.616  11.861  1.9648 -0.7466 -0.0622
61991SOL    HW2 3966   5.884   2.508  11.783 -0.1932 -0.2769  1.2768
61992SOL     OW 3967  10.443   0.385   6.630 -0.1760 -0.2068 -0.7325
61992SOL    HW1 3968  10.357   0.394   6.591 -0.2393  1.3761 -0.2796
61992SOL    HW2 3969  10.499   0.355   6.558 -1.2459 -2.2061 -0.8069
61993SOL     OW 3970  10.101   4.735   3.193 -0.3294 -0.2609 -0.0481
61993SOL    HW1 3971  10.119   4.657   3.246 -0.2693  1.1590  2.1330
61993SOL    HW2 3972  10.187   4.772   3.174 -0.3409 -0.8144 -1.3206
61994SOL     OW 3973   2.747  12.243   0.597 -0.1396  0.0725  0.0382
61994SOL    HW1 3974   2.704  12.310   0.649 -0.7014  0.6842 -1.1635
61994SOL    HW2 3975   2.677  12.180   0.577 -0.3577  0.6953 -1.3129
61995SOL     OW 3976  12.238   0.161  13.380 -0.2217 -0.1528  0.2527
61995SOL    HW1 3977  12.324   0.138  13.415 -0.1273 -0.1685  0.0120
61995SOL    HW2 3978  12.177   0.100  13.422 -0.2179  0.3372  0.9858
61996SOL     OW 3979  13.604  12.515   8.015  0.0342 -0.3694  0.2695
61996SOL    HW1 3980  13.562  12.501   8.100 -1.2401  1.7008  0.0486
61996SOL    HW2 3981  13.684  12.463   8.019 -0.3003 -0.8150  2.4804
61997SOL     OW 3982   8.775   4.038   5.075  0.0533 -0.0095  0.5184
61997SOL    HW1 3983   8.730   4.084   5.004  0.7787 -0.4388 -0.2294
61997SOL    HW2 3984   8.865   4.029   5.045  0.3812 -0.1623  1.5159
61998SOL     OW 3985   0.170   6.930  13.031  0.0864 -0.0368 -0.2616
61998SOL    HW1 3986   0.230   6.858  13.011 -1.3349 -1.0814 -0.9678
61998SOL    HW2 3987   0.195   7.000  12.971  1.1362 -0.1330  0.0469
61999SOL     OW 3988   3.292  12.383   0.962 -0.2604  0.8858 -0.5834
61999SOL    HW1 3989   3.346  12.419   0.892 -0.9377  0.2528 -1.4500
61999SOL    HW2 3990   3.353  12.335   1.018 -0.0696 -0.8744 -2.2334
62000SOL     OW 3991   6.678   1.684   6.199  0.4654  0.6218 -0.1569
62000SOL    HW1 3992   6.687   1.650   6.110  2.7171  0.0043  0.2323
62000SOL    HW2 3993   6.698   1.610   6.256  1.4382  1.5504  0.7850
62001SOL     OW 3994  13.829   4.857   6.592  0.2783 -0.0854 -0.0760
62001SOL    HW1 3995  13.832   4.777   6.540  1.6057 -0.2924  0.2719
62001SOL    HW2 3996  13.780   4.920   6.539  0.2528 -0.7723 -0.8707
62002SOL     OW 3997   0.547   6.960   7.780  0.2150  0.1918  0.0872
62002SOL    HW1 3998   0.572   6.997   7.696 -0.5897 -2.0450 -1.2331
62002SOL    HW2 3999   0.595   6.877   7.784 -1.7765 -1.0086  0.5564
62003SOL     OW 4000  12.281   6.422  12.580  0.0402  0.2427  0.3087
62003SOL    HW1 4001  12.376   6.406  12.585  0.2469  1.6314  1.2866
62003SOL    HW2 4002  12.259   6.461  12.664 -1.2444  0.7573 -0.2531
62004SOL     OW 4003  11.326   6.131  12.890 -0.3507  0.5561  0.3551
62004SOL    HW1 4004  11.276   6.139  12.972 -2.0456  0.4578 -0.6217
62004SOL    HW2 4005  11.376   6.212  12.884 -0.5644  0.7712  1.2518
62005SOL     OW 4006   9.158   8.047   9.120  0.3964  0.9779 -0.0726
62005SOL    HW1 4007   9.244   8.073   9.089  0.9052 -0.8593 -0.3182
62005SOL    HW2 4008   9.102   8.123   9.104  1.7745  1.8891 -0.6970
62006SOL     OW 4009   4.837  10.412   2.789  0.0266 -0.0716 -0.0827
62006SOL    HW1 4010   4.755  10.443   2.828  0.5480  1.3419 -0.0683
62006SOL    HW2 4011   4.816  10.400   2.696 -0.3626 -0.3662  0.0388
62007SOL     OW 4012  12.560   7.480  13.243  0.0246 -0.1163  0.2555
62007SOL    HW1 4013  12.632   7.416  13.238 -1.4252 -1.7434 -1.0482
62007SOL    HW2 4014  12.508   7.463  13.165 -1.6258  1.2146  1.0159
62008SOL     OW 4015  11.492   6.708   2.143 -0.5983 -0.4118 -0.3057
62008SOL    HW1 4016  11.581   6.728   2.113 -0.0826 -1.7149  0.2830
62008SOL    HW2 4017  11.451   6.663   2.070 -1.0071  0.7536 -0.8130
62009SOL     OW 4018  11.366  13.548  12.182 -0.7491  0.0980  0.4258
62009SOL    HW1 4019  11.397  13.531  12.270  0.5841  2.0276  0.4081
62009SOL    HW2 4020  11.440  13.525  12.125 -1.1043  0.1321 -0.0614
62010SOL     OW 4021   9.174   8.945   8.066  0.5780 -0.4562  0.2640
62010SOL    HW1 4022   9.199   8.964   8.157 -0.3877 -1.2545  0.7187
62010SOL    HW2 4023   9.243   8.887   8.034  1.1182  0.1227  0.3609
62011SOL     OW 4024  10.054  10.483   9.758  0.1781 -0.1602 -0.4293
62011SOL    HW1 4025  10.088  10.439   9.836 -0.5158  0.9253  0.5066
62011SOL    HW2 4026  10.106  10.447   9.686 -0.4062 -2.5860  0.2675
62012SOL     OW 4027   6.877  12.646  10.833 -0.4842 -0.0330 -0.0467
62012SOL    HW1 4028   6.804  12.597  10.872  0.6953 -1.2650  0.7029
62012SOL    HW2 4029   6.926  12.580  10.784  1.2456  0.2991  1.1252
62013SOL     OW 4030   1.374   5.344   8.210  0.0490 -0.4237 -0.2113
62013SOL    HW1 4031   1.398   5.284   8.139 -0.0304 -1.3413  0.5137
62013SOL    HW2 4032   1.278   5.339   8.214  0.0073  0.1351 -0.4696
62014SOL     OW 4033  12.124   7.865   3.087 -0.2277 -0.1758  0.1250
62014SOL    HW1 4034  12.204   7.838   3.043 -1.3447 -1.0571 -1.4321
62014SOL    HW2 4035  12.133   7.960   3.096  0.6607 -0.1686 -0.6973
62015SOL     OW 4036   3.509  14.152   1.491 -0.0941  0.3389  0.1868
62015SOL    HW1 4037   3.450  14.218   1.457  1.1807  1.4318  0.0262
62015SOL    HW2 4038   3.505  14.162   1.586 -1.1418 -0.4924  0.2538
62016SOL     OW 4039   4.270  11.789  13.972  0.3825  0.5171  0.0050
62016SOL    HW1 4040   4.330  11.715  13.981  0.7747  0.6677 -1.2354
62016SOL    HW2 4041   4.195  11.766  14.028  0.8900 -0.3920  0.3354
62017SOL     OW 4042  11.681   4.738   9.489  0.0519  0.8224 -0.0785
62017SOL    HW1 4043  11.720   4.709   9.571  1.5869 -0.0113 -1.0506
62017SOL    HW2 4044  11.630   4.664   9.458 -1.6115  1.5797  0.7083
62018SOL     OW 4045   2.247   2.093  12.399  0.5137  0.1336 -0.0403
62018SOL    HW1 4046   2.174   2.049  12.441  0.6245  0.5014  0.5559
62018SOL    HW2 4047   2.241   2.184  12.430 -0.1605  0.7476 -1.8231
62019SOL     OW 4048  11.903   5.299   8.088 -0.7838  0.4252  0.2597
62019SOL    HW1 4049  11.827   5.263   8.044  0.1722 -1.1666 -0.1990
62019SOL    HW2 4050  11.934   5.369   8.031 -1.3059  0.4014 -0.0536
62020SOL     OW 4051   1.998   4.269   3.085  0.4550  0.4623  0.7664
62020SOL    HW1 4052   2.065   4.272   3.016 -0.0291  0.0764  0.2728
62020SOL    HW2 4053   2.047   4.284   3.166  1.1360  0.2144  0.4115
62021SOL     OW 4054  13.191   3.603   9.954 -0.4550 -0.3387  0.4118
62021SOL    HW1 4055  13.096   3.613   9.961 -0.6196 -2.0064  0.9020
62021SOL    HW2 4056  13.211   3.525  10.005  0.8858 -1.3644 -1.5531
62022SOL     OW 4057   6.807   9.204   6.104 -0.7547 -0.0881  0.4380
62022SOL    HW1 4058   6.888   9.216   6.152 -0.6793  1.1999  0.0377
62022SOL    HW2 4059   6.832   9.209   6.012 -1.3403  0.9155  0.3118
62023SOL     OW 4060  14.090   7.988   8.171 -0.0421  0.2212  0.7379
62023SOL    HW1 4061  14.172   7.973   8.218  0.4789  2.0151  0.4793
62023SOL    HW2 4062  14.077   7.908   8.120  1.7613  0.0398  0.4866
62024SOL     OW 4063  12.968  14.063  14.135  0.0457 -1.0926  0.3958
62024SOL    HW1 4064  13.001  14.072  14.046 -0.5016 -0.3991  0.2515
62024SOL    HW2 4065  12.874  14.047  14.125 -0.4039  0.9642  0.8652
62025SOL     OW 4066  11.050   1.191   0.505 -0.1350 -0.6488  0.0673
62025SOL    HW1 4067  11.146   1.189   0.503 -0.1521 -2.5614 -0.7999
62025SOL    HW2 4068  11.029   1.283   0.521  1.8432 -0.4381  1.9782
62026SOL     OW 4069   3.366  10.524  13.090  0.2958 -0.1981 -0.1693
62026SOL    HW1 4070   3.412  10.580  13.028  0.6703 -0.8795 -0.5063
62026SOL    HW2 4071   3.281  10.568  13.103  0.0246 -0.2952 -1.5139
62027SOL     OW 4072   4.571   7.001   1.505  0.5106  0.0335  0.4462
62027SOL    HW1 4073   4.636   7.068   1.526  0.8517 -0.2462  0.3095
62027SOL    HW2 4074   4.487   7.043   1.518  0.7072  0.9108 -0.9872
62028SOL     OW 4075  11.673   6.488   6.565  0.2237 -0.9108 -0.0324
62028SOL    HW1 4076  11.664   6.454   6.476  0.9430 -0.4591 -0.2895
62028SOL    HW2 4077  11.685   6.582   6.554 -0.5409 -0.7298  0.6035
62029SOL     OW 4078   4.884   0.993  11.212  0.3528 -0.1526  0.4004
62029SOL    HW1 4079   4.819   1.003  11.281  0.4401 -1.6978  0.7261
62029SOL    HW2 4080   4.949   1.061  11.231  1.0823 -1.3943  2.6695
62030SOL     OW 4081   8.431   3.925  13.239 -0.1176 -0.2930  0.1815
62030SOL    HW1 4082   8.366   3.995  13.231 -0.7144 -0.8314  0.2694
62030SOL    HW2 4083   8.429   3.881  13.154  0.1272 -0.3165  0.1872
62031SOL     OW 4084   2.017  10.616  10.392 -0.2813  0.5641  0.1324
62031SOL    HW1 4085   2.082  10.679  10.361  1.7471 -1.3800  0.1101
62031SOL    HW2 4086   2.014  10.630  10.487  0.9223  0.1117  0.2688
62032SOL     OW 4087   1.790   6.043   3.562  0.2234  0.5413 -0.0672
62032SOL    HW1 4088   1.743   6.119   3.529  2.1671  2.1660  0.7107
62032SOL    HW2 4089   1.840   6.011   3.487  0.0541  0.5163 -0.1717
62033SOL     OW 4090  11.971   1.264   3.609 -0.0593 -0.4280 -0.3622
62033SOL    HW1 4091  11.935   1.325   3.673 -0.3167  1.2981 -2.0391
62033SOL    HW2 4092  11.943   1.177   3.639 -0.2883  0.3209  1.7224
62034SOL     OW 4093   8.370   7.745   4.862  0.2132  0.1106  0.0369
62034SOL    HW1 4094   8.382   7.730   4.768 -0.5616  0.6823 -0.1617
62034SOL    HW2 4095   8.387   7.659   4.902  1.1913  0.0094 -0.5465
62035SOL     OW 4096   3.774   0.363  12.462 -0.0593 -0.1850  0.5895
62035SOL    HW1 4097   3.812   0.413  12.534  1.6864  0.8634 -0.9697
62035SOL    HW2 4098   3.680   0.378  12.469  0.2375  1.4768  1.5170
62036SOL     OW 4099  11.566   6.967   4.233 -0.1943 -0.2558  0.1458
62036SOL    HW1 4100  11.555   6.933   4.322 -0.3499  0.7306  0.5144
62036SOL    HW2 4101  11.657   6.994   4.229 -0.3714  0.3651  0.2479
62037SOL     OW 4102   8.761   9.129  10.048  0.1858 -0.0826  0.1254
62037SOL    HW1 4103   8.724   9.068  10.112 -0.6355 -0.4961 -0.7137
62037SOL    HW2 4104   8.688   9.187  10.024  0.3828 -0.1406 -0.6679
62038SOL     OW 4105   2.360  13.369   1.719  0.5957 -0.3715 -0.1393
62038SOL    HW1 4106   2.418  13.301   1.684  0.3154 -1.5531  1.5711
62038SOL    HW2 4107   2.412  13.412   1.787  0.2565  0.1375 -0.1982
62039SOL     OW 4108   8.749  11.673   4.255  0.1835  0.2538 -0.6769
62039SOL    HW1 4109   8.829  11.699   4.301 -0.2703  0.8877 -0.2173
62039SOL    HW2 4110   8.682  11.733   4.288 -0.2379  0.5009 -1.9222
62040SOL     OW 4111   0.134   5.102  10.826 -0.5402 -0.4476  0.0772
62040SOL    HW1 4112   0.152   5.109  10.733  0.6216 -0.2246  0.3079
62040SOL    HW2 4113   0.203   5.153  10.869 -0.8244 -0.8637  1.0724
62041SOL     OW 4114  10.752   5.494  12.786  0.5959 -0.2300 -0.0472
62041SOL    HW1 4115  10.748   5.519  12.879  2.1709 -0.8069  0.2049
62041SOL    HW2 4116  10.662   5.506  12.755 -0.2674 -1.1789  1.8632
62042SOL     OW 4117   3.880   7.589   1.932 -0.4299  0.0217  0.1705
62042SOL    HW1 4118   3.818   7.530   1.889 -0.1678  0.2228 -0.4972
62042SOL    HW2 4119   3.966   7.551   1.913 -0.1235  1.4403 -1.6708
62043SOL     OW 4120   7.205   8.592  11.289 -0.2593 -0.1700  0.3758
62043SOL    HW1 4121   7.117   8.577  11.254  0.1964  1.2179 -1.5304
62043SOL    HW2 4122   7.219   8.521  11.352 -1.4702 -2.3346 -1.6578
62044SOL     OW 4123  13.989  10.718   2.116  0.1868 -0.0404  0.1059
62044SOL    HW1 4124  13.995  10.669   2.199  0.5015 -0.4531 -0.1551
62044SOL    HW2 4125  13.904  10.761   2.120  0.0371 -0.3602  0.4801
62045SOL     OW 4126   5.899   4.619   8.836 -0.0950  1.0591  0.1728
62045SOL    HW1 4127   5.805   4.622   8.823 -0.1107 -2.1287 -1.4821
62045SOL    HW2 4128   5.911   4.640   8.929 -2.3531  1.9934  0.3166
62046SOL     OW 4129  11.894  11.143   5.072  0.1443 -0.6711 -0.6295
62046SOL    HW1 4130  11.971  11.129   5.127 -0.9449  0.1235  1.1879
62046SOL    HW2 4131  11.861  11.055   5.054 -0.7630 -0.9579  1.9888
62047SOL     OW 4132   1.278   3.129  13.806  0.0167 -0.3582  0.0635
62047SOL    HW1 4133   1.186   3.106  13.814 -0.4969  1.4888  0.0259
62047SOL    HW2 4134   1.303   3.158  13.895  0.3036 -0.0271 -0.1201
62048SOL     OW 4135  12.424   8.138   0.831  0.0085  0.2579  0.5639
62048SOL    HW1 4136  12.375   8.106   0.755  0.8716 -0.7876  0.4170
62048SOL    HW2 4137  12.401   8.231   0.837  1.3428  0.8923 -2.1727
62049SOL     OW 4138   6.086  12.655   7.317  0.2386 -0.8461 -0.3515
62049SOL    HW1 4139   6.128  12.728   7.362 -1.2173  0.2095 -0.6424
62049SOL    HW2 4140   6.081  12.586   7.384  1.2281 -0.5402  0.0577
62050SOL     OW 4141   4.806   8.643  10.147 -0.0173  0.8960  0.6043
62050SOL    HW1 4142   4.781   8.551  10.144 -0.5530  1.0528 -0.1549
62050SOL    HW2 4143   4.885   8.648  10.092  0.7233  0.6954  1.6183
62051SOL     OW 4144   9.040   6.660  10.022  0.3571 -0.5130 -0.1760
62051SOL    HW1 4145   9.044   6.751  10.050  3.3350 -0.7036  0.3177
62051SOL    HW2 4146   8.963   6.656   9.966 -0.7219  1.9331  0.9694
62052SOL     OW 4147  14.055   1.382   2.472 -0.1199 -0.4764 -0.4484
62052SOL    HW1 4148  14.113   1.315   2.506 -1.2578 -0.8068  0.9419
62052SOL    HW2 4149  14.103   1.464   2.484  0.0863 -0.7455  0.6549
62053SOL     OW 4150  12.567   9.207  10.890  0.1589  0.7859 -0.8774
62053SOL    HW1 4151  12.472   9.210  10.887 -0.0040 -1.7820 -0.1074
62053SOL    HW2 4152  12.592   9.285  10.940 -1.6658  0.5404  0.5017
62054SOL     OW 4153   8.771  12.504  12.027  0.0944  0.1199  0.2062
62054SOL    HW1 4154   8.695  12.462  12.068  0.3616 -0.2650  0.3063
62054SOL    HW2 4155   8.836  12.509  12.097  0.0595  0.7232  0.2011
62055SOL     OW 4156   2.863   0.558  11.700  0.2010 -0.1813 -0.6426
62055SOL    HW1 4157   2.833   0.610  11.625  0.1081 -0.2450 -0.6497
62055SOL    HW2 4158   2.926   0.615  11.745  0.3812 -0.2069 -0.8623
62056SOL     OW 4159  12.292  10.789   2.370 -0.1301 -0.4249 -0.4732
62056SOL    HW1 4160  12.197  10.793   2.374 -0.1461 -1.1242 -0.1868
62056SOL    HW2 4161  12.318  10.875   2.335 -0.9973 -1.0369 -2.8403
62057SOL     OW 4162   4.137   4.051  12.996 -0.2634  0.0557 -0.0698
62057SOL    HW1 4163   4.077   3.982  13.022  0.1862 -0.2117  0.2636
62057SOL    HW2 4164   4.191   4.067  13.073 -0.7699  1.2278  0.0708
62058SOL     OW 4165  10.794  12.918   8.635  0.2293  0.4147 -0.4711
62058SOL    HW1 4166  10.737  12.970   8.578  0.9640  0.0082 -1.6142
62058SOL    HW2 4167  10.799  12.833   8.592  1.3977  0.3291 -0.2049
62059SOL     OW 4168   3.634   1.254  10.775 -0.2506 -0.3152  0.2243
62059SOL    HW1 4169   3.633   1.283  10.683 -0.7304 -0.0246  0.3127
62059SOL    HW2 4170   3.715   1.206  10.785  0.2428  0.4255 -0.1240
62060SOL     OW 4171  13.728   2.461   8.712  0.2178  0.0461  0.2203
62060SOL    HW1 4172  13.816   2.484   8.683  0.4487  1.9573  2.1269
62060SOL    HW2 4173  13.738   2.376   8.755  0.8284 -0.3807 -0.7197
62061SOL     OW 4174  13.247   3.173  10.264  0.4391  0.4553  0.5628
62061SOL    HW1 4175  13.159   3.133  10.260  0.4216  0.5275 -2.6549
62061SOL    HW2 4176  13.307   3.099  10.254  0.5038  0.7920 -2.2506
62062SOL     OW 4177   4.636  10.899   5.875 -0.3923 -0.4590  0.0556
62062SOL    HW1 4178   4.716  10.948   5.894 -0.3505 -0.5970  0.2381
62062SOL    HW2 4179   4.571  10.934   5.935 -0.0199 -1.5422  1.1470
62063SOL     OW 4180   1.022   6.326  11.196  0.8809 -0.2233  0.2001
62063SOL    HW1 4181   0.944   6.287  11.159 -1.5473  2.3661  2.1096
62063SOL    HW2 4182   1.040   6.276  11.275  0.4373 -0.1450  0.3509
62064SOL     OW 4183   9.192   6.494  13.647 -0.3546  0.3281  0.6938
62064SOL    HW1 4184   9.191   6.474  13.553  0.6120 -0.3683  0.8114
62064SOL    HW2 4185   9.101   6.487  13.675 -0.6028  0.2155 -0.1279
62065SOL     OW 4186   8.134  10.946   0.506  0.6914  0.0888 -0.2632
62065SOL    HW1 4187   8.158  11.015   0.568 -1.5498  0.0231  0.7522
62065SOL    HW2 4188   8.187  10.871   0.533 -1.5339 -0.5311  2.9405
62066SOL     OW 4189   3.298  12.597  13.159 -0.2681  0.5489 -0.0218
62066SOL    HW1 4190   3.326  12.685  13.134 -0.0937  0.0252 -1.8286
62066SOL    HW2 4191   3.308  12.545  13.079 -0.1383 -1.1755  1.0647
62067SOL     OW 4192   5.603   9.554   0.928 -0.1506 -0.0719  0.0669
62067SOL    HW1 4193   5.687   9.509   0.919  2.1986  3.2362  3.0556
62067SOL    HW2 4194   5.613   9.634   0.877 -2.0892 -0.1993 -0.6040
62068SOL     OW 4195   3.434   8.619  13.478  0.0044  0.0074  0.9265
62068SOL    HW1 4196   3.385   8.700  13.489  0.5393  0.6003 -0.7374
62068SOL    HW2 4197   3.383   8.568  13.414 -0.0357 -0.7328  1.5317
62069SOL     OW 4198  12.000   0.733  10.791 -0.1028 -0.5793  0.1400
62069SOL    HW1 4199  12.035   0.777  10.868  2.4763  1.2237 -1.8951
62069SOL    HW2 4200  12.077   0.700  10.745 -1.5593 -1.7446 -1.6023
62070SOL     OW 4201   1.825   0.518  11.805 -0.1210 -0.2958  0.1934
62070SOL    HW1 4202   1.749   0.468  11.775 -0.9010  0.6479  0.5576
62070SOL    HW2 4203   1.805   0.540  11.896  0.8798 -0.5738  0.4940
62071SOL     OW 4204   5.709   2.837   2.288 -0.0357 -0.3304 -0.3896
62071SOL    HW1 4205   5.782   2.842   2.351 -0.3444 -0.7843  0.0154
62071SOL    HW2 4206   5.686   2.928   2.271 -1.4890 -0.1680  1.9889
62072SOL     OW 4207   1.654  10.579   4.632 -0.1913 -0.1492  0.0049
62072SOL    HW1 4208   1.746  10.557   4.617 -0.3180 -1.8723  1.4291
62072SOL    HW2 4209   1.656  10.669   4.666  1.2793 -1.1212  2.7414
62073SOL     OW 4210  12.919   0.921   1.381 -0.3485  0.2645  0.0694
62073SOL    HW1 4211  12.943   0.975   1.457 -1.4267  0.6839  0.1287
62073SOL    HW2 4212  13.003   0.894   1.344  0.2126 -0.4214  1.7378
62074SOL     OW 4213   0.512   4.587  10.636  0.1198  0.5538  0.2686
62074SOL    HW1 4214   0.421   4.604  10.658 -0.4593  1.4507 -2.4628
62074SOL    HW2 4215   0.510   4.557  10.545  2.5300  0.4378  0.1827
62075SOL     OW 4216  13.182  13.356   9.869 -0.2895 -0.0614  0.4941
62075SOL    HW1 4217  13.219  13.345   9.956  0.9964  2.0874  0.3028
62075SOL    HW2 4218  13.196  13.449   9.849 -0.6020 -0.4745 -1.9587
62076SOL     OW 4219   5.677  14.034   7.041 -0.9183  0.4419 -0.1053
62076SOL    HW1 4220   5.586  14.062   7.048 -1.4426 -1.2082  0.1412
62076SOL    HW2 4221   5.723  14.110   7.004 -2.7621  0.5805 -2.2741
62077SOL     OW 4222  11.826   0.787   9.037 -0.0997 -0.1440 -0.4279
62077SOL    HW1 4223  11.842   0.698   9.004 -1.0387 -0.1828 -0.8169
62077SOL    HW2 4224  11.748   0.778   9.092  0.4479  0.2410  0.4138
62078SOL     OW 4225   9.695  10.467   1.019 -0.3535 -0.3945 -0.5005
62078SOL    HW1 4226   9.616  10.413   1.023 -0.5731 -0.2138 -1.8410
62078SOL    HW2 4227   9.669  10.544   0.969  0.6875 -0.3669 -1.0365
62079SOL     OW 4228  11.246   8.109  12.489  0.5064  0.0327 -0.3826
62079SOL    HW1 4229  11.243   8.024  12.445 -2.8551 -0.0540 -0.2739
62079SOL    HW2 4230  11.280   8.169  12.423 -0.9543 -0.7498 -1.9247
62080SOL     OW 4231   7.277   2.510   0.970  0.0251 -0.0364 -0.2371
62080SOL    HW1 4232   7.184   2.530   0.956 -0.1646 -0.9390 -0.2895
62080SOL    HW2 4233   7.306   2.470   0.888  0.4919  0.3275 -0.2561
62081SOL     OW 4234   6.335  13.784  13.330  0.0150 -0.4216  0.2298
62081SOL    HW1 4235   6.377  13.834  13.401 -0.3875  0.1612  0.0635
62081SOL    HW2 4236   6.306  13.703  13.372 -1.1698  0.3673  1.0041
62082SOL     OW 4237  10.103   0.035   7.622 -0.2043 -0.2152  0.3505
62082SOL    HW1 4238  10.110  -0.043   7.568  0.1353  0.0197  0.0531
62082SOL    HW2 4239  10.193   0.063   7.636 -0.2369 -0.7430  1.7419
62083SOL     OW 4240   7.283  10.119   2.014 -0.1391  0.5432 -0.5188
62083SOL    HW1 4241   7.210  10.151   1.960 -0.3651  1.9310  0.5303
62083SOL    HW2 4242   7.328  10.199   2.042  0.9164 -0.2259  0.0482
62084SOL     OW 4243   3.778   3.009   5.406  0.2964  0.0671  0.1952
62084SOL    HW1 4244   3.733   2.935   5.366  1.7624 -0.3652 -0.7635
62084SOL    HW2 4245   3.743   3.013   5.495 -1.1483 -0.5974 -0.3120
62085SOL     OW 4246   2.363   3.685   1.350  0.5626  0.1160  0.5731
62085SOL    HW1 4247   2.382   3.660   1.260  1.7467 -1.5119  1.2427
62085SOL    HW2 4248   2.343   3.603   1.395 -0.4925  0.9481  1.7038
62086SOL     OW 4249  11.655   5.983   7.884 -0.1583  0.1489 -0.6724
62086SOL    HW1 4250  11.615   6.036   7.953 -0.6164  0.3383 -1.0794
62086SOL    HW2 4251  11.586   5.923   7.857 -0.4801  1.0811 -2.0137
62087SOL     OW 4252   7.815   2.475  10.276 -0.1474  0.2989 -0.0429
62087SOL    HW1 4253   7.743   2.536  10.292 -1.1612 -0.9825  0.4405
62087SOL    HW2 4254   7.892   2.521  10.310 -0.3654  2.4365 -2.1816
62088SOL     OW 4255   9.922   7.695   8.719 -0.2456 -0.0434  0.2050
62088SOL    HW1 4256   9.981   7.665   8.788 -0.5178  1.6671  1.2498
62088SOL    HW2 4257   9.964   7.773   8.684 -0.2003 -0.7924 -1.4761
62089SOL     OW 4258  12.705   8.098   5.227  0.0185  0.3068  0.0176
62089SOL    HW1 4259  12.696   8.054   5.142 -1.0835  1.2143 -0.3596
62089SOL    HW2 4260  12.643   8.053   5.284  1.1593 -0.6761  0.5342
62090SOL     OW 4261   8.496   0.997  13.881 -0.3811  0.4296 -0.3870
62090SOL    HW1 4262   8.568   1.059  13.887  0.7838 -0.9679  0.9522
62090SOL    HW2 4263   8.437   1.021  13.953 -0.2675  0.4025 -0.2842
62091SOL     OW 4264   3.662   9.492  14.020  0.5480  0.6875  0.0253
62091SOL    HW1 4265   3.719   9.544  13.964  1.5061  0.9810  1.2337
62091SOL    HW2 4266   3.722   9.432  14.065 -0.1493  0.6857  0.9723
62092SOL     OW 4267  13.482   2.974  10.381  0.2948 -0.0256  0.2144
62092SOL    HW1 4268  13.523   2.936  10.459 -0.1240 -1.7996 -0.3676
62092SOL    HW2 4269  13.544   3.041  10.351  0.8599  0.0953  1.5732
62093SOL     OW 4270  12.552   9.358  13.052  0.3036  0.4302 -0.1806
62093SOL    HW1 4271  12.580   9.278  13.096  0.4899 -0.0704 -1.1823
62093SOL    HW2 4272  12.608   9.427  13.089  1.2555 -0.1701 -0.4695
62094SOL     OW 4273   8.739   4.825   1.748 -0.3492  0.0954 -0.9326
62094SOL    HW1 4274   8.803   4.849   1.815 -1.1028 -1.5959  0.4898
62094SOL    HW2 4275   8.691   4.905   1.730  2.0421  1.4065 -2.0062
62095SOL     OW 4276  10.105   5.435   2.631 -0.0205  0.3618 -0.2722
62095SOL    HW1 4277  10.188   5.481   2.624  0.7092 -0.9052 -0.1120
62095SOL    HW2 4278  10.089   5.429   2.726 -0.4069  0.7791 -0.3058
62096SOL     OW 4279  13.024   3.902  13.815  0.1516 -0.2881 -0.0627
62096SOL    HW1 4280  12.969   3.933  13.887  1.0053  0.4845  0.2822
62096SOL    HW2 4281  13.052   3.981  13.770  1.4751 -0.6053  0.1515
62097SOL     OW 4282  10.798   8.571  12.663  0.3932 -0.0265  0.0033
62097SOL    HW1 4283  10.848   8.644  12.626 -1.8283  2.2379  1.1999
62097SOL    HW2 4284  10.849   8.543  12.739  0.7273  1.0264  0.1797
62098SOL     OW 4285  12.435  11.956   0.221  0.2920 -0.3901 -0.0211
62098SOL    HW1 4286  12.453  11.896   0.293 -0.8670  1.0604  1.5534
62098SOL    HW2 4287  12.505  12.022   0.227 -0.4179  0.3424  0.5286
62099SOL     OW 4288   3.407  12.140   8.746  0.5755  0.3347 -0.4204
62099SOL    HW1 4289   3.405  12.205   8.676 -0.1212 -0.9241 -1.6242
62099SOL    HW2 4290   3.333  12.162   8.802  0.7165  0.9482 -0.4757
62100SOL     OW 4291   1.709  13.658   3.497  0.1336 -0.2040 -0.3060
62100SOL    HW1 4292   1.756  13.621   3.422 -0.6125 -1.0904 -0.3559
62100SOL    HW2 4293   1.766  13.639   3.572  0.6787  0.3032 -0.5801
62101SOL     OW 4294   9.776   8.946   9.687  0.1382 -0.0667 -0.4061
62101SOL    HW1 4295   9.823   8.886   9.630  2.2623  2.1547 -1.1637
62101SOL    HW2 4296   9.833   8.957   9.763 -0.9576 -0.1727  0.4606
62102SOL     OW 4297   8.565   5.520   5.355  0.6653  0.0920 -0.4345
62102SOL    HW1 4298   8.636   5.473   5.398 -0.7115 -2.0487 -0.3331
62102SOL    HW2 4299   8.607   5.594   5.313  2.4769  0.8171  2.3714
62103SOL     OW 4300   1.790   2.842   1.690  0.2742  0.6751  0.2121
62103SOL    HW1 4301   1.811   2.752   1.714  0.2670  0.0499 -1.9346
62103SOL    HW2 4302   1.782   2.888   1.774  1.2245 -1.0861  1.3244
62104SOL     OW 4303   7.510   1.609  13.911  0.2705  0.1493 -0.1929
62104SOL    HW1 4304   7.598   1.628  13.877  0.5888 -1.0367 -0.0624
62104SOL    HW2 4305   7.452   1.631  13.838  0.7341  0.2128 -0.5508
62105SOL     OW 4306   1.616   4.983   7.288  0.0420 -0.1979 -0.3301
62105SOL    HW1 4307   1.634   4.969   7.195  0.2916 -0.0697 -0.2996
62105SOL    HW2 4308   1.595   4.895   7.321  2.5930 -0.7220  0.0713
62106SOL     OW 4309  12.554   3.657   1.152  0.6418  0.3410 -0.1526
62106SOL    HW1 4310  12.623   3.619   1.207  2.0383  0.9025 -1.4480
62106SOL    HW2 4311  12.474   3.644   1.203  1.6793 -0.3282  1.4166
62107SOL     OW 4312  10.450   4.830   0.671 -0.1950  0.0248 -0.5929
62107SOL    HW1 4313  10.356   4.830   0.688 -0.1842 -0.5870 -0.5451
62107SOL    HW2 4314  10.469   4.921   0.645 -0.0052  1.4591  3.7270
62108SOL     OW 4315  12.741   7.199   2.645  0.1680  0.5691  0.0887
62108SOL    HW1 4316  12.790   7.136   2.696 -0.8591 -0.7881 -0.5424
62108SOL    HW2 4317  12.655   7.202   2.687  0.0795  1.2698 -0.1192
62109SOL     OW 4318   0.154  13.386   8.582  0.2892  0.3757  0.1084
62109SOL    HW1 4319   0.220  13.325   8.548 -0.0353  0.6519 -1.0563
62109SOL    HW2 4320   0.071  13.340   8.568  0.2564 -0.7243  3.1237
62110SOL     OW 4321   7.847   8.033  10.951 -0.1496  0.0932  0.0063
62110SOL    HW1 4322   7.903   7.972  11.000 -0.5281 -0.6255 -0.4372
62110SOL    HW2 4323   7.823   8.100  11.015  1.6408  0.7260  0.0848
62111SOL     OW 4324   2.008   1.844   8.750 -0.1646  0.0708  0.3039
62111SOL    HW1 4325   1.950   1.878   8.818  1.0658 -1.1306  2.0281
62111SOL    HW2 4326   2.085   1.812   8.797  0.7324 -0.8435 -1.6578
62112SOL     OW 4327   9.130   1.711   1.453  0.5049 -0.1298 -0.0622
62112SOL    HW1 4328   9.224   1.704   1.471  0.7144  0.2407 -0.9402
62112SOL    HW2 4329   9.124   1.706   1.358 -0.1902  1.7153 -0.1592
62113SOL     OW 4330  10.480   9.514  12.793  0.4034  0.0227  0.3018
62113SOL    HW1 4331  10.529   9.475  12.720 -1.2588 -0.8429 -0.4155
62113SOL    HW2 4332  10.465   9.441  12.853  1.2140  0.5986  1.2251
62114SOL     OW 4333   9.194  11.527  12.379 -0.6221 -0.1948 -0.1155
62114SOL    HW1 4334   9.137  11.556  12.451 -0.2361 -1.0856  0.5638
62114SOL    HW2 4335   9.276  11.504  12.421  0.6334  1.9616 -1.1852
62115SOL     OW 4336  13.566   1.259   2.566  0.5451  0.2628 -0.0142
62115SOL    HW1 4337  13.504   1.188   2.587 -0.2419  0.7977 -0.4912
62115SOL    HW2 4338  13.611   1.276   2.649 -0.4382  0.3268  0.5281
62116SOL     OW 4339   5.825   0.662  13.776  0.3183 -0.7407 -0.3191
62116SOL    HW1 4340   5.830   0.756  13.760  1.7039 -0.6911  0.2580
62116SOL    HW2 4341   5.905   0.627  13.737 -0.4858 -1.7875 -1.1000
62117SOL     OW 4342   8.090   0.466   8.022  0.6160 -0.3946 -1.1335
62117SOL    HW1 4343   8.019   0.428   7.971 -0.7479 -0.7582  0.9048
62117SOL    HW2 4344   8.124   0.393   8.074  1.3572  0.1282 -0.8640
62118SOL     OW 4345  11.932  13.218   0.914 -0.2408 -0.0421  0.0258
62118SOL    HW1 4346  12.025  13.213   0.891 -0.3426  2.5557 -1.3522
62118SOL    HW2 4347  11.887  13.224   0.829 -1.5108  0.5293  0.7141
62119SOL     OW 4348   9.877   3.122   5.864 -0.0741  0.0959 -0.1073
62119SOL    HW1 4349   9.855   3.215   5.868 -0.6720 -0.0806  0.7736
62119SOL    HW2 4350   9.972   3.121   5.847 -0.1800  0.8545 -0.7993
62120SOL     OW 4351   6.800  12.618   4.790  0.1780  0.0672  0.1323
62120SOL    HW1 4352   6.839  12.543   4.834 -0.0951 -0.7438 -0.9577
62120SOL    HW2 4353   6.748  12.661   4.858 -1.3902 -1.9666  0.3183
62121SOL     OW 4354   1.738   4.928   0.003  0.5432 -0.7582  0.2594
62121SOL    HW1 4355   1.678   4.880  -0.054  0.5685 -0.5655  0.0746
62121SOL    HW2 4356   1.811   4.953  -0.053  0.1576  0.1933  0.1733
62122SOL     OW 4357   8.748   2.713  10.543 -0.3310  0.2376 -0.3111
62122SOL    HW1 4358   8.784   2.672  10.464 -2.6917  0.4845 -1.5999
62122SOL    HW2 4359   8.653   2.710  10.530 -0.7959  0.3213  2.5319
62123SOL     OW 4360   7.703   8.852  12.862  0.1913 -0.3810  0.7134
62123SOL    HW1 4361   7.634   8.899  12.909  0.0313 -0.0424  0.1436
62123SOL    HW2 4362   7.667   8.837  12.775  1.2335  0.7509  0.0635
62124SOL     OW 4363   3.687  11.812  14.053  0.1296 -0.2759 -0.0487
62124SOL    HW1 4364   3.622  11.879  14.033  0.3903 -0.4352 -1.4960
62124SOL    HW2 4365   3.675  11.795  14.147 -1.6685 -0.0549 -0.2050
62125SOL     OW 4366   0.357   1.060  12.056  0.2470 -0.5078 -0.8039
62125SOL    HW1 4367   0.422   1.046  12.124  0.1038 -2.8565 -1.0644
62125SOL    HW2 4368   0.398   1.122  11.995 -0.0163  2.4937  1.8086
62126SOL     OW 4369   5.628  13.312   9.638 -0.0247  0.3642 -0.4444
62126SOL    HW1 4370   5.637  13.401   9.673  0.9500  0.4188 -0.8188
62126SOL    HW2 4371   5.607  13.259   9.715  0.1873  0.7905 -0.0870
62127SOL     OW 4372   8.843   1.159  11.156 -0.9611  0.4983 -0.4500
62127SOL    HW1 4373   8.917   1.170  11.216 -1.1661  1.5147 -0.3701
62127SOL    HW2 4374   8.879   1.110  11.082 -0.1784  1.0664 -0.4584
62128SOL     OW 4375  13.169   3.888   7.818  0.5149  0.2869  0.2690
62128SOL    HW1 4376  13.196   3.868   7.728  0.8899  1.0339  0.2077
62128SOL    HW2 4377  13.244   3.863   7.871  0.5903  0.5579  0.2934
62129SOL     OW 4378   4.592  12.835   9.352  0.0507 -0.4455  0.4659
62129SOL    HW1 4379   4.610  12.877   9.436  1.2847 -0.4529  0.2164
62129SOL    HW2 4380   4.661  12.770   9.342  0.1533 -0.1836 -0.7181
62130SOL     OW 4381   9.515  12.721  13.845 -0.4567  0.2564 -0.9643
62130SOL    HW1 4382   9.502  12.627  13.836  1.8869 -0.2056 -0.2630
62130SOL    HW2 4383   9.465  12.760  13.774 -2.6292 -1.3800 -0.4350
62131SOL     OW 4384   9.572   9.432   9.806 -0.5559  0.0577 -0.3594
62131SOL    HW1 4385   9.639   9.454   9.742  1.1802 -0.4774  1.1926
62131SOL    HW2 4386   9.547   9.342   9.784  3.1942 -1.8465  2.1190
62132SOL     OW 4387   5.764  10.487   5.872  0.8282 -0.3720 -0.0863
62132SOL    HW1 4388   5.720  10.485   5.787 -1.4514 -0.8019  1.0353
62132SOL    HW2 4389   5.813  10.569   5.872 -1.1917  0.9045 -0.8763
62133SOL     OW 4390   1.821   9.978  13.824  0.0246  0.2721  0.2208
62133SOL    HW1 4391   1.752   9.915  13.845  0.0786  0.6344  1.5279
62133SOL    HW2 4392   1.824   9.977  13.728 -1.8258  0.2709  0.1141
62134SOL     OW 4393   4.192   9.604  10.096 -0.2482  0.0666 -0.0592
62134SOL    HW1 4394   4.251   9.666  10.053 -0.0835  0.5970  0.8935
62134SOL    HW2 4395   4.198   9.524  10.044  0.2608  0.5537 -0.7634
62135SOL     OW 4396  10.426  13.212   1.571 -0.6625  0.0968 -0.1910
62135SOL    HW1 4397  10.402  13.294   1.526  0.0740  0.9742  0.9432
62135SOL    HW2 4398  10.509  13.233   1.615 -1.1691 -0.8226  1.2562
62136SOL     OW 4399   1.669  12.759   4.544 -0.0370 -0.0498 -0.1608
62136SOL    HW1 4400   1.587  12.800   4.516 -0.3428 -0.0115  0.7289
62136SOL    HW2 4401   1.724  12.832   4.572  0.2983 -0.0771 -0.7573
62137SOL     OW 4402   8.983  11.852   8.706 -0.0155  0.1323  0.3794
62137SOL    HW1 4403   8.902  11.821   8.747  0.7409 -0.3783  1.5542
62137SOL    HW2 4404   8.994  11.796   8.629 -1.7593  1.4797 -0.9237
62138SOL     OW 4405   7.804   5.219  13.721 -0.0018  0.0470 -0.6725
62138SOL    HW1 4406   7.848   5.175  13.648  0.2404 -1.9805  0.6294
62138SOL    HW2 4407   7.842   5.179  13.799 -1.5879  0.8325  0.5533
62139SOL     OW 4408   7.877   7.019   3.992 -0.1229 -0.5492 -0.8960
62139SOL    HW1 4409   7.949   7.069   3.953 -2.7704  2.3757 -2.4861
62139SOL    HW2 4410   7.856   6.952   3.927  0.8174 -1.1540 -0.6027
62140SOL     OW 4411  13.277   5.064   3.435 -0.1684  0.3175 -0.1800
62140SOL    HW1 4412  13.294   4.970   3.425 -0.8757  0.1100  0.5036
62140SOL    HW2 4413  13.324   5.088   3.515  1.3131  0.9025 -1.1716
62141SOL     OW 4414   6.824   3.586   4.245 -0.4603 -0.3463  0.0080
62141SOL    HW1 4415   6.919   3.599   4.253 -0.0684 -2.8708  0.3580
62141SOL    HW2 4416   6.788   3.621   4.326 -0.1691  2.6657 -1.0385
62142SOL     OW 4417  11.838   9.518  12.826  0.3629 -0.0205 -0.4039
62142SOL    HW1 4418  11.875   9.461  12.894 -0.7880 -0.0777  0.1887
62142SOL    HW2 4419  11.911   9.533  12.765  1.3550 -0.1267  0.7292
62143SOL     OW 4420  13.470   0.098   5.546  0.3648 -0.2939 -0.1768
62143SOL    HW1 4421  13.514   0.065   5.624 -0.9765  1.2470  1.3212
62143SOL    HW2 4422  13.384   0.055   5.546  0.1955  0.0315 -0.5791
62144SOL     OW 4423   5.652   0.942   6.537  0.0176  0.1864 -0.1631
62144SOL    HW1 4424   5.579   0.904   6.488  0.6471 -2.1473  0.5918
62144SOL    HW2 4425   5.722   0.877   6.530  2.2835  2.5571 -1.2961
62145SOL     OW 4426  12.647   5.311   3.082 -0.2999  0.1579 -0.0586
62145SOL    HW1 4427  12.633   5.356   3.165 -2.2175  0.3280 -0.4135
62145SOL    HW2 4428  12.626   5.377   3.016 -0.8397 -0.5724 -0.6268
62146SOL     OW 4429  10.506   1.242  11.740  0.0733 -0.1585  0.0082
62146SOL    HW1 4430  10.462   1.159  11.721 -1.4458  0.7365 -0.5619
62146SOL    HW2 4431  10.463   1.274  11.820 -1.5119  1.5005 -1.4316
62147SOL     OW 4432   8.136  13.491  10.046 -0.3791  0.0741 -0.0456
62147SOL    HW1 4433   8.083  13.412  10.055  2.5729 -1.9039  1.9899
62147SOL    HW2 4434   8.220  13.467  10.085  1.4450  3.5297 -1.4587
62148SOL     OW 4435   4.050   1.476  11.740 -0.1295  0.0278  0.0512
62148SOL    HW1 4436   4.012   1.401  11.695  0.6753 -0.1270 -0.3903
62148SOL    HW2 4437   4.098   1.438  11.813  0.0480  0.1303 -0.0113
62149SOL     OW 4438  10.279  13.679   5.816  0.0578 -0.3680 -0.1422
62149SOL    HW1 4439  10.294  13.585   5.827 -3.3159 -1.2185 -1.5972
62149SOL    HW2 4440  10.286  13.694   5.722 -1.0629  0.4627 -0.1125
62150SOL     OW 4441   6.159   5.542   0.426 -0.1914 -0.2411  0.3172
62150SOL    HW1 4442   6.234   5.515   0.479 -1.6519 -0.8445  2.1904
62150SOL    HW2 4443   6.197   5.573   0.344  2.1255 -0.0487  1.3948
62151SOL     OW 4444   5.133   8.791   1.689 -0.0279 -0.1373  0.7448
62151SOL    HW1 4445   5.124   8.886   1.678 -0.2352 -0.1713  0.6067
62151SOL    HW2 4446   5.102   8.754   1.606  0.0857 -0.3237  0.7851
62152SOL     OW 4447  11.397  11.850   7.746 -0.2241  0.3413  0.0119
62152SOL    HW1 4448  11.431  11.853   7.836 -0.4427  1.2670  0.0822
62152SOL    HW2 4449  11.448  11.782   7.703  1.5087  1.4338  0.2069
62153SOL     OW 4450  13.627   9.161   0.331 -0.0168  0.8190  0.3853
62153SOL    HW1 4451  13.715   9.200   0.335  0.7430 -0.6870 -0.7224
62153SOL    HW2 4452  13.638   9.082   0.279 -2.0590  0.6037  0.1971
62154SOL     OW 4453   3.887   9.561   5.312 -0.2137 -0.7751 -0.3767
62154SOL    HW1 4454   3.812   9.597   5.360  0.3623 -1.4705  1.1017
62154SOL    HW2 4455   3.905   9.477   5.355  2.7260  0.3013  0.7119
62155SOL     OW 4456  10.840  11.239   0.809 -0.0032 -0.2766  0.2118
62155SOL    HW1 4457  10.844  11.246   0.714  1.2041  0.1730  0.2687
62155SOL    HW2 4458  10.889  11.159   0.829 -0.2821 -0.3884  0.4457
62156SOL     OW 4459   8.894   2.219   2.904 -0.1252 -0.3724 -0.4371
62156SOL    HW1 4460   8.850   2.257   2.829  1.1749 -1.4323 -1.7926
62156SOL    HW2 4461   8.941   2.293   2.944 -2.2006  0.5516  0.4409
62157SOL     OW 4462  10.506   6.086  13.953 -0.0251  0.1277  0.4799
62157SOL    HW1 4463  10.428   6.089  14.009  0.7089 -0.2000  1.5590
62157SOL    HW2 4464  10.486   6.018  13.888 -0.8185  0.3744  0.4577
62158SOL     OW 4465   7.997  13.638   1.793 -0.1012 -0.0427 -0.3839
62158SOL    HW1 4466   7.981  13.731   1.812  0.9110  0.2914 -1.0621
62158SOL    HW2 4467   7.992  13.632   1.698 -3.4199 -1.3537 -0.2519
62159SOL     OW 4468  12.469   0.838   1.909  0.1473 -0.0903  0.2835
62159SOL    HW1 4469  12.467   0.789   1.992  0.3259 -0.2409  0.1988
62159SOL    HW2 4470  12.501   0.775   1.845 -1.1628 -0.3395 -0.1455
62160SOL     OW 4471  10.141   4.884   5.344  0.2641  0.3372  0.0549
62160SOL    HW1 4472  10.095   4.967   5.333 -0.7210 -0.3520 -1.2804
62160SOL    HW2 4473  10.234   4.907   5.336  0.0066  1.3067 -0.2886
62161SOL     OW 4474   0.849   7.345   4.820  0.1967  0.5011 -0.0675
62161SOL    HW1 4475   0.802   7.428   4.824  0.5747  0.6910  0.7081
62161SOL    HW2 4476   0.800   7.287   4.878  1.7615  1.1708  2.0742
62162SOL     OW 4477  11.838   5.248   1.236  0.1552  0.5261 -0.5082
62162SOL    HW1 4478  11.848   5.258   1.141 -1.1540 -1.1194 -0.8741
62162SOL    HW2 4479  11.828   5.153   1.249  0.7958  0.6738  1.3423
62163SOL     OW 4480  12.322   8.634   6.340  0.4741 -0.3593 -0.1430
62163SOL    HW1 4481  12.299   8.566   6.277 -0.2235  1.2108 -1.7099
62163SOL    HW2 4482  12.379   8.693   6.291  0.0633  0.8218  0.7489
62164SOL     OW 4483  12.590  13.596   3.649  0.8349  0.8296 -0.2822
62164SOL    HW1 4484  12.595  13.646   3.567 -2.0850 -0.8773 -1.6387
62164SOL    HW2 4485  12.528  13.646   3.703  1.2702  0.9241  0.1394
62165SOL     OW 4486   2.452   3.069  12.914 -0.1185  0.1730  0.5706
62165SOL    HW1 4487   2.433   3.064  13.008 -1.0099 -0.4232  0.3680
62165SOL    HW2 4488   2.527   3.011  12.903 -0.7138 -0.6504  0.7479
62166SOL     OW 4489   6.472  10.146   0.378  0.9558 -0.0794 -0.0336
62166SOL    HW1 4490   6.418  10.164   0.301  0.3380 -1.1480  0.1311
62166SOL    HW2 4491   6.539  10.214   0.376 -0.5265  1.4501 -0.0870
62167SOL     OW 4492   5.719  12.993   6.137  0.3034  0.2216 -0.3654
62167SOL    HW1 4493   5.733  13.055   6.209 -1.0378 -0.5219  0.5859
62167SOL    HW2 4494   5.627  12.970   6.143  0.3671 -0.5181 -1.8135
62168SOL     OW 4495  13.720  11.923   5.832  0.3963 -0.0004  0.1845
62168SOL    HW1 4496  13.636  11.954   5.865  0.6132 -0.4049  1.1406
62168SOL    HW2 4497  13.744  11.987   5.764 -0.4741  0.3477  0.1888
62169SOL     OW 4498  10.704   2.651  12.543 -0.1453 -0.2025 -0.4739
62169SOL    HW1 4499  10.612   2.675  12.549 -0.1372 -0.0649 -0.8928
62169SOL    HW2 4500  10.704   2.567  12.497 -0.1806 -1.0898  1.0630
62170SOL     OW 4501   4.595   0.960   7.158 -0.0180  0.5587  0.7043
62170SOL    HW1 4502   4.527   0.967   7.090  0.2509 -0.4138  0.3196
62170SOL    HW2 4503   4.563   0.890   7.216  0.0798  0.9239  1.1979
62171SOL     OW 4504  13.898  10.143   9.256 -0.2262  0.0745 -0.8302
62171SOL    HW1 4505  13.987  10.108   9.264 -0.5793 -1.0582 -1.6069
62171SOL    HW2 4506  13.845  10.085   9.310 -0.8243 -0.6410 -2.1351
62172SOL     OW 4507   9.929   5.612   0.774 -0.0301 -0.1359  0.3519
62172SOL    HW1 4508  10.000   5.568   0.726  0.2619  0.3017  0.3758
62172SOL    HW2 4509   9.920   5.562   0.855  1.6692  1.0027  1.3005
62173SOL     OW 4510   3.487   3.197   4.097 -0.4256 -0.5828 -0.0464
62173SOL    HW1 4511   3.516   3.187   4.188  0.3908  0.3764 -0.1720
62173SOL    HW2 4512   3.484   3.292   4.084 -1.8415 -0.6927 -0.6246
62174SOL     OW 4513   3.691  13.193  14.076 -0.1557  0.1879  0.0500
62174SOL    HW1 4514   3.695  13.223  14.167 -0.6995  1.0565 -0.1967
62174SOL    HW2 4515   3.604  13.220  14.047  1.1790  2.9202 -1.7390
62175SOL     OW 4516  12.495   1.694  12.909  0.4052 -0.0822  0.6052
62175SOL    HW1 4517  12.434   1.661  12.975  1.1076 -0.2626  1.1890
62175SOL    HW2 4518  12.547   1.617  12.885 -1.6700 -0.7392 -2.3029
62176SOL     OW 4519   9.549   0.431   3.289 -0.3474 -0.3314 -0.5834
62176SOL    HW1 4520   9.614   0.479   3.238  0.4364  0.2895  0.9298
62176SOL    HW2 4521   9.541   0.347   3.245  0.2823  0.1952 -1.7274
62177SOL     OW 4522   7.596   1.782   3.853 -0.2974 -0.4762 -0.2756
62177SOL    HW1 4523   7.650   1.822   3.921 -0.2614 -1.0760  0.0575
62177SOL    HW2 4524   7.554   1.856   3.809 -0.8319 -0.0906  0.8222
62178SOL     OW 4525   5.997   0.630   4.547  0.4157  0.1015 -0.1805
62178SOL    HW1 4526   5.926   0.567   4.560  0.4807  0.0801  0.0885
62178SOL    HW2 4527   5.954   0.715   4.545  0.1674 -0.0353 -1.9386
62179SOL     OW 4528   7.471  13.596  12.917 -0.6364 -0.2655  0.0077
62179SOL    HW1 4529   7.552  13.545  12.912 -1.7268 -1.9765 -2.0999
62179SOL    HW2 4530   7.477  13.657  12.843 -1.1975 -0.2706 -0.0436
62180SOL     OW 4531   7.430   5.057   8.585 -0.3365  0.3231  0.3183
62180SOL    HW1 4532   7.411   5.068   8.679 -0.9270 -0.6802  0.3296
62180SOL    HW2 4533   7.469   4.970   8.579 -1.6937 -0.2428 -0.5518
62181SOL     OW 4534   0.195   0.687  10.434 -0.4767 -0.2092  0.4021
62181SOL    HW1 4535   0.166   0.669  10.344 -0.4315 -1.1485  0.5623
62181SOL    HW2 4536   0.260   0.757  10.425 -0.1935 -0.5572 -0.3387
62182SOL     OW 4537   0.987   4.343   8.305  0.0628  0.0732 -0.1354
62182SOL    HW1 4538   0.969   4.406   8.374 -1.6357 -0.3388 -0.1732
62182SOL    HW2 4539   0.997   4.397   8.226  1.1461  0.4689  0.2506
62183SOL     OW 4540  12.661   1.866  12.227  0.5394 -0.2222  0.1971
62183SOL    HW1 4541  12.670   1.842  12.319  1.9737  0.8965  0.3839
62183SOL    HW2 4542  12.680   1.785  12.179 -3.6395 -1.7983  0.8128
62184SOL     OW 4543   5.279  10.356   1.476 -0.0468 -0.5772  0.3252
62184SOL    HW1 4544   5.237  10.330   1.558 -1.5244  1.0627  0.1379
62184SOL    HW2 4545   5.246  10.444   1.459  1.6159 -0.1792 -1.1296
62185SOL     OW 4546   6.041   8.484  11.128  0.6591 -0.2751  0.4262
62185SOL    HW1 4547   6.061   8.542  11.201 -0.8290 -1.4806  1.8686
62185SOL    HW2 4548   5.964   8.524  11.086 -0.0350 -0.8702  1.0937
62186SOL     OW 4549  10.722  13.509  10.575  0.8657  0.2589  0.1533
62186SOL    HW1 4550  10.676  13.592  10.560  1.3890  0.6738  0.8005
62186SOL    HW2 4551  10.702  13.487  10.666  1.7258  0.2959  0.3508
62187SOL     OW 4552   0.721  10.446   4.185  0.5527 -0.0400  0.4868
62187SOL    HW1 4553   0.630  10.445   4.217  0.6001  1.2211  0.6953
62187SOL    HW2 4554   0.767  10.388   4.246  0.0033 -0.2293  0.7375
62188SOL     OW 4555   4.265   7.746   9.265 -0.0265 -0.3141 -0.1332
62188SOL    HW1 4556   4.260   7.838   9.292 -0.6139 -0.3723 -0.0234
62188SOL    HW2 4557   4.226   7.745   9.177  1.9222 -0.1150 -1.0501
62189SOL     OW 4558   9.147  12.468   5.413  0.8788 -0.1399  0.0904
62189SOL    HW1 4559   9.241  12.453   5.417  1.5133  2.6830 -1.3552
62189SOL    HW2 4560   9.126  12.516   5.493  0.4794 -1.2752  0.7030
62190SOL     OW 4561  12.342   5.109  12.827  0.1998 -0.2381  0.0933
62190SOL    HW1 4562  12.378   5.185  12.873 -0.2787 -0.7274  1.3081
62190SOL    HW2 4563  12.369   5.034  12.878  0.9402 -0.9484 -1.2776
62191SOL     OW 4564   2.974  11.665   6.128  0.2587  0.0557 -0.3631
62191SOL    HW1 4565   2.987  11.675   6.033 -1.5036  0.0933 -0.6345
62191SOL    HW2 4566   3.030  11.732   6.167  0.3387  0.6218 -1.4205
62192SOL     OW 4567   4.395   0.318   6.549  0.4097  0.0347 -0.0216
62192SOL    HW1 4568   4.329   0.273   6.496 -0.4146  1.4700 -0.2603
62192SOL    HW2 4569   4.455   0.356   6.485  0.1189  0.7228  0.1105
62193SOL     OW 4570  12.663  10.379   1.598 -0.1118 -0.0970  0.5555
62193SOL    HW1 4571  12.577  10.400   1.562  0.3568  1.7110  0.3807
62193SOL    HW2 4572  12.654  10.289   1.630 -1.9519 -0.0681  0.2554
62194SOL     OW 4573  11.490  13.597   9.403  0.1777 -0.0573  0.4615
62194SOL    HW1 4574  11.458  13.623   9.489 -0.4597  0.4004  0.0921
62194SOL    HW2 4575  11.583  13.617   9.405  0.2756 -0.5479  1.2276
62195SOL     OW 4576  12.035   7.161   9.187  0.6175 -0.6503  0.5472
62195SOL    HW1 4577  12.080   7.132   9.267 -0.7972  0.2592  1.7123
62195SOL    HW2 4578  12.042   7.086   9.127  0.5757 -1.8483  1.9938
62196SOL     OW 4579   4.399   5.331   4.218 -0.0245 -0.0520  0.0032
62196SOL    HW1 4580   4.317   5.295   4.250 -1.2362  0.6932 -2.0438
62196SOL    HW2 4581   4.420   5.403   4.278 -0.2193 -0.9798  1.2113
62197SOL     OW 4582  13.065   7.391   0.532 -0.0644 -0.0230 -0.4955
62197SOL    HW1 4583  13.125   7.465   0.546  0.7937 -0.3645 -2.1927
62197SOL    HW2 4584  13.079   7.365   0.441  0.0875 -2.6523  0.1903
62198SOL     OW 4585   5.252   3.189   1.773  0.1548 -0.1854 -0.0836
62198SOL    HW1 4586   5.218   3.248   1.841  0.6056 -0.9145  0.8073
62198SOL    HW2 4587   5.205   3.214   1.694 -1.3176 -0.1175  0.7617
62199SOL     OW 4588   2.006   0.866   8.782 -0.3313  0.1617 -0.0187
62199SOL    HW1 4589   1.932   0.824   8.738 -0.3290 -1.0514  1.0937
62199SOL    HW2 4590   2.065   0.795   8.804  0.1168  0.8450  1.0930
62200SOL     OW 4591  13.893   4.005   0.783  0.1327  0.2808 -0.7099
62200SOL    HW1 4592  13.822   4.047   0.735 -0.4556  0.9477  0.6856
62200SOL    HW2 4593  13.850   3.963   0.857  1.1679  0.6653  0.1422
62201SOL     OW 4594   5.238  12.173   2.117  0.3526  0.0311  0.3275
62201SOL    HW1 4595   5.298  12.111   2.076 -1.7973 -1.2389 -1.1277
62201SOL    HW2 4596   5.247  12.253   2.066  2.1723  0.5451  1.3733
62202SOL     OW 4597   0.735   5.517   9.827 -0.3098 -0.1860 -0.4878
62202SOL    HW1 4598   0.828   5.497   9.817 -0.3220 -0.9927  0.8843
62202SOL    HW2 4599   0.696   5.437   9.862 -1.9221 -0.5682 -2.8682
62203SOL     OW 4600   2.194   8.515   6.159 -0.0657 -0.5666  0.1394
62203SOL    HW1 4601   2.247   8.475   6.228  0.1418  1.6241  1.3554
62203SOL    HW2 4602   2.123   8.453   6.144  0.6578 -1.7448  1.3159
62204SOL     OW 4603   3.718   9.870  11.441  0.4900 -0.6795  0.0430
62204SOL    HW1 4604   3.802   9.856  11.398 -0.2494  0.3396 -1.8647
62204SOL    HW2 4605   3.721   9.961  11.472 -0.4437 -0.1267 -1.4023
62205SOL     OW 4606  13.873   0.869   9.459  0.1796 -0.0984 -0.3210
62205SOL    HW1 4607  13.784   0.840   9.438  0.5051 -0.2909 -1.5510
62205SOL    HW2 4608  13.889   0.835   9.546 -0.6631 -0.7548 -0.4044
62206SOL     OW 4609   3.822   1.194   4.393  0.1470  0.5544  0.1946
62206SOL    HW1 4610   3.871   1.253   4.450 -0.2942  0.3612  0.7818
62206SOL    HW2 4611   3.731   1.225   4.398 -0.1286 -0.2726  0.6661
62207SOL     OW 4612   9.396   8.817   2.522 -0.0513  0.1589 -0.2212
62207SOL    HW1 4613   9.481   8.774   2.511  0.8483  1.7344  0.3109
62207SOL    HW2 4614   9.381   8.862   2.438  0.5792  1.4474  0.3330
62208SOL     OW 4615  13.648  12.963   3.949  0.1991  0.4838  0.2733
62208SOL    HW1 4616  13.617  12.904   3.881 -0.2733  1.0484 -0.0077
62208SOL    HW2 4617  13.732  12.926   3.976  0.3935  0.2427 -0.6117
62209SOL     OW 4618   9.341  13.433  12.364 -0.1523 -0.0828 -0.4056
62209SOL    HW1 4619   9.384  13.364  12.314 -0.0791  0.5657 -1.2743
62209SOL    HW2 4620   9.389  13.513  12.340 -0.0039  0.2299  0.8472
62210SOL     OW 4621   3.548   8.241   6.601 -0.0620 -0.1153 -0.0281
62210SOL    HW1 4622   3.525   8.149   6.601  0.5586 -0.2792  1.2382
62210SOL    HW2 4623   3.607   8.251   6.526 -1.0709 -0.4706 -0.9030
62211SOL     OW 4624   4.074   7.137  10.407  0.3645 -0.1852  0.0246
62211SOL    HW1 4625   4.069   7.196  10.332 -0.2801  0.6712  0.7247
62211SOL    HW2 4626   4.000   7.078  10.395  1.2468 -1.1732 -0.8969
62212SOL     OW 4627  10.026  10.888   6.927 -0.1356  0.1550  0.0706
62212SOL    HW1 4628   9.958  10.823   6.947 -1.8310  1.8849  0.2680
62212SOL    HW2 4629   9.991  10.970   6.962  1.2934  1.4381 -1.3605
62213SOL     OW 4630   7.927   8.804  10.697  0.3987  0.4538  0.2976
62213SOL    HW1 4631   7.936   8.899  10.703 -0.2655  0.4153  2.6643
62213SOL    HW2 4632   7.835   8.789  10.677  0.5556  0.2837 -0.3410
62214SOL     OW 4633   4.777  12.143   7.088 -0.0910  0.0835 -0.1634
62214SOL    HW1 4634   4.863  12.109   7.113  0.8829  2.5851  0.2199
62214SOL    HW2 4635   4.794  12.200   7.013 -1.2450  1.3701  0.5008
62215SOL     OW 4636  11.783   6.501   0.248 -0.0545  0.2189 -0.1679
62215SOL    HW1 4637  11.865   6.456   0.269 -1.2452 -1.6356  0.7783
62215SOL    HW2 4638  11.716   6.451   0.294 -1.5507  2.7474  0.5385
62216SOL     OW 4639   0.050   3.951   1.359  0.3104 -0.5941 -0.2625
62216SOL    HW1 4640   0.081   3.973   1.271 -1.1011  1.3066 -0.3511
62216SOL    HW2 4641   0.116   3.890   1.393  1.9259  0.1222 -1.9111
62217SOL     OW 4642   2.109   6.011   0.061 -0.2787 -0.2863 -0.2956
62217SOL    HW1 4643   2.195   6.001   0.103 -0.9799 -0.4534  1.1638
62217SOL    HW2 4644   2.052   5.951   0.109 -1.3262  0.2049 -0.9066
62218SOL     OW 4645   6.431   0.386   1.524  0.4637  0.0707  0.1461
62218SOL    HW1 4646   6.403   0.382   1.432  1.7773  0.1512 -0.2756
62218SOL    HW2 4647   6.359   0.347   1.572 -1.0593  1.6392 -0.7304
62219SOL     OW 4648   0.412  12.062   8.944  0.4942 -0.2264 -0.2097
62219SOL    HW1 4649   0.459  11.979   8.944  0.8093 -0.0491  0.0598
62219SOL    HW2 4650   0.396  12.081   9.037 -0.0223 -0.2356 -0.2913
62220SOL     OW 4651   2.668  13.304   6.278  0.2150  0.0115  0.6115
62220SOL    HW1 4652   2.748  13.272   6.320  0.7381  1.7155  1.0099
62220SOL    HW2 4653   2.597  13.259   6.324  0.9318 -1.9336 -0.1124
62221SOL     OW 4654   4.106   4.568  12.831  0.2357  0.3584  0.1191
62221SOL    HW1 4655   4.059   4.557  12.748 -0.1938  1.7053  0.1638
62221SOL    HW2 4656   4.145   4.482  12.848 -1.6363 -0.6000 -0.2610
62222SOL     OW 4657   9.697  13.723   9.983  0.1757  0.1442 -0.5426
62222SOL    HW1 4658   9.655  13.637   9.980 -0.9552  0.5216  1.8541
62222SOL    HW2 4659   9.747  13.729   9.902  0.6429 -2.9426 -0.5857
62223SOL     OW 4660  14.106   7.831  12.761  0.5123  0.1349  0.5098
62223SOL    HW1 4661  14.180   7.887  12.738  0.5484 -0.5207 -1.1069
62223SOL    HW2 4662  14.113   7.819  12.856  2.5673 -0.0245  0.3861
62224SOL     OW 4663   6.262  12.012   0.843 -0.6109  0.1255 -0.2358
62224SOL    HW1 4664   6.257  11.917   0.859  1.2242 -0.5034 -2.7152
62224SOL    HW2 4665   6.182  12.032   0.795 -1.4048  0.0186  1.0213
62225SOL     OW 4666   2.831  13.348   3.201 -0.3637 -0.6107  0.0996
62225SOL    HW1 4667   2.843  13.443   3.195  1.3418 -0.7981  0.0667
62225SOL    HW2 4668   2.873  13.313   3.123 -0.1427 -1.4535  0.5815
62226SOL     OW 4669   8.450   9.228   2.802  0.2615  0.1058 -0.3428
62226SOL    HW1 4670   8.497   9.285   2.862  0.9900 -3.9856  3.5041
62226SOL    HW2 4671   8.519   9.189   2.747  0.2375  0.2354 -0.4657
62227SOL     OW 4672   9.485  10.585   1.958  0.6437 -0.2887 -0.3840
62227SOL    HW1 4673   9.498  10.493   1.977 -1.4090 -0.9140 -1.5965
62227SOL    HW2 4674   9.476  10.589   1.862  3.8001  1.6741 -0.7473
62228SOL     OW 4675  13.280   7.175   7.493 -0.2085  0.3202 -0.2765
62228SOL    HW1 4676  13.296   7.253   7.440  0.6028  0.5475  0.2927
62228SOL    HW2 4677  13.336   7.108   7.455  1.5338  0.8811  1.1719
62229SOL     OW 4678   8.637  11.326  14.064 -0.3498 -0.2797  0.2207
62229SOL    HW1 4679   8.553  11.284  14.078  0.4525 -1.9450  0.2158
62229SOL    HW2 4680   8.619  11.397  14.002 -2.0927  0.6875  1.7463
62230SOL     OW 4681   2.126   2.402   2.019 -0.2747 -0.0106  0.0206
62230SOL    HW1 4682   2.129   2.492   1.987  0.3571 -0.2543 -0.6226
62230SOL    HW2 4683   2.141   2.409   2.113 -0.6427  0.5842  0.0397
62231SOL     OW 4684   6.894   2.963   6.853  0.4856  0.4601 -0.1972
62231SOL    HW1 4685   6.960   2.985   6.919  1.4988  0.1525 -1.0825
62231SOL    HW2 4686   6.841   3.043   6.845 -0.1340  0.2731  1.4951
62232SOL     OW 4687   9.897   3.028  12.742  0.2416  0.6262 -0.0878
62232SOL    HW1 4688   9.815   3.048  12.697  0.8853  0.1390 -1.5331
62232SOL    HW2 4689   9.945   2.973  12.681  0.8998 -0.6085  1.4757
62233SOL     OW 4690   7.398   1.108  13.052 -0.0088 -0.2324 -0.4006
62233SOL    HW1 4691   7.310   1.069  13.061 -0.1350  0.1088 -0.1410
62233SOL    HW2 4692   7.422   1.091  12.961 -1.2464  1.5483 -1.1103
62234SOL     OW 4693   3.602   6.508  11.877 -0.4059 -0.3337 -0.1883
62234SOL    HW1 4694   3.606   6.412  11.868  0.0348 -0.3831  0.4440
62234SOL    HW2 4695   3.539   6.536  11.811 -1.9672 -1.2442  0.8596
62235SOL     OW 4696  11.349  10.900   9.869  0.1044 -0.4333  0.0107
62235SOL    HW1 4697  11.357  10.923   9.961  1.8235 -1.4270  0.1524
62235SOL    HW2 4698  11.257  10.879   9.857 -0.0097 -1.0028  1.6870
62236SOL     OW 4699   7.485   1.432  10.605  0.1252 -0.1362  0.8837
62236SOL    HW1 4700   7.447   1.379  10.675  0.3559  0.4888  1.4954
62236SOL    HW2 4701   7.500   1.518  10.645  0.0803  0.2925  0.0123
62237SOL     OW 4702   6.083  13.166   6.187 -0.2698  0.6399 -0.1003
62237SOL    HW1 4703   6.028  13.145   6.112 -2.4587  0.7837  1.3893
62237SOL    HW2 4704   6.138  13.088   6.199  1.8326  1.4655 -3.1522
62238SOL     OW 4705  13.546   5.115   4.568 -0.5258  0.1399  0.1999
62238SOL    HW1 4706  13.500   5.088   4.488 -1.2575  0.3635  0.5349
62238SOL    HW2 4707  13.554   5.034   4.619 -0.3365  0.0566  0.0412
62239SOL     OW 4708   7.062   2.686   2.951  0.1212  0.1359  0.3029
62239SOL    HW1 4709   7.077   2.754   3.016  1.3106 -1.0569  1.3365
62239SOL    HW2 4710   7.139   2.629   2.956  0.1854 -0.1070 -2.0489
62240SOL     OW 4711   7.742   3.411   3.071  0.1488  0.2942 -0.6586
62240SOL    HW1 4712   7.784   3.333   3.107  2.3532 -0.3224 -4.0707
62240SOL    HW2 4713   7.672   3.432   3.133  2.4170 -1.5669  2.8315
62241SOL     OW 4714   4.896  12.228   9.623  0.5743 -0.2782  0.1432
62241SOL    HW1 4715   4.957  12.226   9.550  0.5467 -3.0563  0.0627
62241SOL    HW2 4716   4.825  12.284   9.594  1.0877 -0.4473 -1.5265
62242SOL     OW 4717   7.398   6.654   4.781 -0.3623  0.4875 -0.0949
62242SOL    HW1 4718   7.464   6.709   4.738 -0.3096  2.5592  2.3656
62242SOL    HW2 4719   7.442   6.621   4.859 -1.3172 -0.7454 -0.0510
62243SOL     OW 4720   9.061  13.534   9.610  0.1005 -0.2590  0.7104
62243SOL    HW1 4721   9.078  13.445   9.641 -0.5854 -0.7955 -0.3731
62243SOL    HW2 4722   8.992  13.523   9.544  1.0251  0.9055 -0.4819
62244SOL     OW 4723   0.834   3.001  12.434  0.7055  0.0228  0.4586
62244SOL    HW1 4724   0.915   2.986  12.481  1.3617 -0.3439 -0.7541
62244SOL    HW2 4725   0.854   3.070  12.372  0.0533  0.0140  0.2247
62245SOL     OW 4726   5.664  10.965  11.948 -0.1953  0.7694  0.8900
62245SOL    HW1 4727   5.634  11.009  11.869  1.7572 -1.0766 -1.0551
62245SOL    HW2 4728   5.759  10.961  11.938 -0.0494 -1.1524  2.4170
62246SOL     OW 4729   4.535  13.156  12.617 -0.0769  0.2650 -0.6710
62246SOL    HW1 4730   4.446  13.173  12.586 -0.4026 -1.1487 -0.5650
62246SOL    HW2 4731   4.563  13.077  12.570  1.3672  1.0228 -1.1574
62247SOL     OW 4732  10.380   3.301  13.396  0.2001 -0.1680  0.4359
62247SOL    HW1 4733  10.343   3.322  13.310 -1.2924 -1.5251  0.6971
62247SOL    HW2 4734  10.381   3.384  13.443 -0.0387  0.3751 -0.5015
62248SOL     OW 4735  10.407  13.498   9.576 -0.1316 -0.1719  0.4405
62248SOL    HW1 4736  10.418  13.405   9.559 -0.4850 -0.5792  2.2007
62248SOL    HW2 4737  10.438  13.541   9.496 -1.2656 -1.8080 -0.9561
62249SOL     OW 4738   4.286  12.219   8.703  0.0551 -0.2154 -0.1349
62249SOL    HW1 4739   4.347  12.249   8.636  0.1770 -1.1814 -0.4657
62249SOL    HW2 4740   4.227  12.293   8.717  0.9147  0.4995 -0.2655
62250SOL     OW 4741   3.453   7.355  11.157 -0.3842  0.0785 -0.2574
62250SOL    HW1 4742   3.447   7.450  11.160  0.8752  0.1513  2.1447
62250SOL    HW2 4743   3.469   7.329  11.247  0.9575 -2.2944 -1.0827
62251SOL     OW 4744   8.082   3.041   4.383 -0.4662 -0.8008 -0.0863
62251SOL    HW1 4745   8.132   3.029   4.463  1.7681  0.3071 -1.2400
62251SOL    HW2 4746   8.131   3.107   4.333 -4.2587  2.2014 -0.3379
62252SOL     OW 4747  11.059   6.637   5.356 -0.6521  0.4520 -0.2912
62252SOL    HW1 4748  11.054   6.649   5.450  2.0841  0.9020 -0.1327
62252SOL    HW2 4749  10.996   6.567   5.337 -1.5941  0.6831  1.7527
62253SOL     OW 4750  12.357   5.000   7.410 -0.2132  0.4311  0.2037
62253SOL    HW1 4751  12.294   5.066   7.439  0.5462  0.6445  1.4405
62253SOL    HW2 4752  12.440   5.027   7.449  0.3461 -0.6392 -0.2004
62254SOL     OW 4753   6.226   4.512  13.211 -0.0109 -0.5223  0.8728
62254SOL    HW1 4754   6.296   4.452  13.185  0.1921 -0.4513  1.2514
62254SOL    HW2 4755   6.211   4.566  13.134 -0.2722 -1.1333  0.4896
62255SOL     OW 4756   4.369   1.796  13.177  0.1184 -0.2140 -0.6737
62255SOL    HW1 4757   4.438   1.750  13.130 -0.0144 -0.1307 -0.9530
62255SOL    HW2 4758   4.411   1.875  13.210  0.1848 -0.2204 -0.7436
62256SOL     OW 4759   4.417   3.340  11.848 -0.0173 -0.3730  0.6591
62256SOL    HW1 4760   4.326   3.344  11.875  0.0651 -0.1653  0.9113
62256SOL    HW2 4761   4.414   3.306  11.758 -0.3427 -0.3338  0.6533
62257SOL     OW 4762   8.611   5.098  13.261  0.5255  0.2144  0.4401
62257SOL    HW1 4763   8.626   5.090  13.355  0.1211  0.9559  0.5742
62257SOL    HW2 4764   8.674   5.037  13.221  1.3716  0.6011  1.1452
62258SOL     OW 4765  12.324  11.015   5.545 -0.2458 -0.4648  0.2353
62258SOL    HW1 4766  12.397  11.066   5.580  0.8873 -2.2480  0.6217
62258SOL    HW2 4767  12.282  11.073   5.482  0.8555  0.9877  0.7816
62259SOL     OW 4768   0.234   3.514  12.392 -0.5870 -0.0499  0.4115
62259SOL    HW1 4769   0.148   3.500  12.354 -0.5286 -0.7887  0.5276
62259SOL    HW2 4770   0.220   3.509  12.487 -0.5198  0.4650  0.4497
62260SOL     OW 4771   1.816   7.309  13.699 -0.0810  0.1709  0.2805
62260SOL    HW1 4772   1.782   7.344  13.617 -0.0581  1.7413  0.9094
62260SOL    HW2 4773   1.904   7.345  13.707  0.7883 -1.7197 -0.0252
62261SOL     OW 4774   9.616   4.629   1.216 -0.0507  0.4520  0.6201
62261SOL    HW1 4775   9.543   4.573   1.242 -1.6698  1.2232 -1.9398
62261SOL    HW2 4776   9.575   4.704   1.174  2.2016  1.6192  0.3687
62262SOL     OW 4777  12.802  12.831  10.466  0.7613  0.4632 -0.6362
62262SOL    HW1 4778  12.712  12.804  10.482  1.1278  0.2708  1.3585
62262SOL    HW2 4779  12.811  12.914  10.513  2.1126 -0.4408  0.7964
62263SOL     OW 4780   5.898   3.765   7.660  0.0230 -0.6064 -0.7021
62263SOL    HW1 4781   5.805   3.772   7.681 -0.7003  0.1052 -3.6886
62263SOL    HW2 4782   5.928   3.689   7.709 -1.3278  0.8719  2.6967
62264SOL     OW 4783   7.657  10.654  12.640  0.3966  0.5100  0.1202
62264SOL    HW1 4784   7.604  10.675  12.717  1.0421 -1.0533  1.0297
62264SOL    HW2 4785   7.719  10.726  12.633 -0.8336  1.5929 -0.0544
62265SOL     OW 4786  10.552   9.723   5.613 -0.1273  0.0546 -0.6773
62265SOL    HW1 4787  10.638   9.743   5.650 -0.8263 -0.0805  1.1327
62265SOL    HW2 4788  10.498   9.799   5.637 -0.2916  0.6231 -2.6925
62266SOL     OW 4789  12.684   7.553  10.465 -0.0878  0.3308  0.1364
62266SOL    HW1 4790  12.698   7.627  10.406 -0.9784 -0.1963 -0.7648
62266SOL    HW2 4791  12.721   7.581  10.548 -2.7281  2.8860  0.5966
62267SOL     OW 4792   1.765   7.271   9.301 -0.9112 -0.3730  0.6374
62267SOL    HW1 4793   1.789   7.290   9.210 -3.3968  1.6538  0.2976
62267SOL    HW2 4794   1.844   7.292   9.351  0.6276 -1.8544 -1.0183
62268SOL     OW 4795   0.806   9.171  11.693  0.2968  0.1135  0.1574
62268SOL    HW1 4796   0.769   9.194  11.779 -1.2787 -1.5074 -0.0202
62268SOL    HW2 4797   0.836   9.254  11.657 -1.9863  1.3736  0.9289
62269SOL     OW 4798   7.257  10.701   5.356  0.0840 -0.0145  0.1137
62269SOL    HW1 4799   7.307  10.763   5.304 -1.2021  0.3468 -0.7526
62269SOL    HW2 4800   7.300  10.701   5.442  1.2269  0.6483 -0.4387
62270SOL     OW 4801   7.597  10.733  10.818 -0.0622  0.7089  0.0061
62270SOL    HW1 4802   7.584  10.684  10.899 -0.4280  2.4557  1.0511
62270SOL    HW2 4803   7.517  10.719  10.768 -0.2697  0.4497  0.4096
62271SOL     OW 4804  11.012   2.140   9.996 -0.1966 -0.0401  0.0691
62271SOL    HW1 4805  11.101   2.107   9.995 -0.4320 -1.0841  3.1604
62271SOL    HW2 4806  10.970   2.099   9.920  1.7252 -0.0847 -1.0209
62272SOL     OW 4807   2.244   3.259   0.566  0.2045 -0.1285 -0.3594
62272SOL    HW1 4808   2.257   3.166   0.550 -1.3415 -0.4948  0.3063
62272SOL    HW2 4809   2.237   3.298   0.478  0.6161 -0.6721 -0.6359
62273SOL     OW 4810  10.499   5.585   9.159  0.0935  0.2362 -0.1566
62273SOL    HW1 4811  10.550   5.572   9.079  1.7261  0.5585  0.8006
62273SOL    HW2 4812  10.436   5.513   9.158 -0.1644  0.4248 -1.8919
62274SOL     OW 4813  11.767   8.324   3.356 -0.1813  0.4229 -0.2554
62274SOL    HW1 4814  11.799   8.277   3.434  1.2809 -0.6682 -1.4461
62274SOL    HW2 4815  11.844   8.330   3.300 -0.5770  3.4224 -0.5967
62275SOL     OW 4816  10.988   2.891  12.908  0.0554  0.0258 -0.0317
62275SOL    HW1 4817  10.955   2.906  12.997  0.9841 -0.5383  0.4117
62275SOL    HW2 4818  10.930   2.824  12.872  0.3341 -0.5282  0.5357
62276SOL     OW 4819   5.330   6.116  10.329 -0.0327 -0.6666 -0.1995
62276SOL    HW1 4820   5.402   6.154  10.379 -0.0189 -1.3005  0.2777
62276SOL    HW2 4821   5.360   6.117  10.238  1.4005 -2.6711  0.1864
62277SOL     OW 4822   0.351   2.998   6.915 -0.1302 -0.1642 -0.5009
62277SOL    HW1 4823   0.443   3.005   6.891 -0.4127 -0.9711 -1.9759
62277SOL    HW2 4824   0.351   2.963   7.004  0.9798  1.2084  0.0827
62278SOL     OW 4825  11.208   6.602   1.804  0.4759 -0.2414  0.3057
62278SOL    HW1 4826  11.233   6.665   1.736  0.0242 -0.7089 -0.3030
62278SOL    HW2 4827  11.133   6.556   1.767 -0.4510  0.2164  1.5459
62279SOL     OW 4828  11.572   6.461   4.940 -0.0770  0.0118 -0.2903
62279SOL    HW1 4829  11.656   6.471   4.985 -0.7398  0.3707  0.9051
62279SOL    HW2 4830  11.522   6.402   4.997 -0.5484 -0.4120 -1.1293
62280SOL     OW 4831   3.663  12.933   0.631 -0.0486 -0.0330 -0.3412
62280SOL    HW1 4832   3.740  12.988   0.614  0.1910  0.5490  2.2377
62280SOL    HW2 4833   3.697  12.844   0.632  0.4697  0.1631  0.0380
62281SOL     OW 4834   6.481   6.348   3.142 -0.2409  0.0157 -0.4463
62281SOL    HW1 4835   6.464   6.426   3.194 -1.3963 -0.8588  0.5514
62281SOL    HW2 4836   6.567   6.318   3.170 -0.3955  0.1542  0.1891
62282SOL     OW 4837   8.693   8.445   7.225  0.0593 -0.3046 -0.6349
62282SOL    HW1 4838   8.675   8.492   7.306  0.5869 -1.6744  0.3068
62282SOL    HW2 4839   8.788   8.430   7.227  0.3257  0.8938 -2.2178
62283SOL     OW 4840   3.135  12.215   1.342 -0.1110  0.2228  0.3200
62283SOL    HW1 4841   3.200  12.262   1.290 -0.0451  1.1012  1.1816
62283SOL    HW2 4842   3.147  12.247   1.431 -0.0581 -1.4620  0.9457
62284SOL     OW 4843   4.752   1.625   6.112  0.0673  1.1065 -0.1150
62284SOL    HW1 4844   4.831   1.677   6.125  1.2802 -0.6382 -0.1452
62284SOL    HW2 4845   4.761   1.588   6.024 -0.5724  0.5489  0.0433
62285SOL     OW 4846   8.485  12.425   7.457 -0.6023 -0.6244 -0.2823
62285SOL    HW1 4847   8.537  12.394   7.383 -0.8888  0.5273 -1.0085
62285SOL    HW2 4848   8.540  12.491   7.499 -0.2842 -1.5493  0.7940
62286SOL     OW 4849   1.256   6.171   9.885 -0.0537 -0.5585 -0.4355
62286SOL    HW1 4850   1.310   6.106   9.928  1.1358  1.2661  0.9739
62286SOL    HW2 4851   1.252   6.142   9.794 -0.4952 -3.1364  0.3088
62287SOL     OW 4852  13.858  11.465   0.381  0.0215  0.4182 -0.6545
62287SOL    HW1 4853  13.946  11.502   0.387 -0.1426  0.7907 -0.4761
62287SOL    HW2 4854  13.862  11.385   0.434  0.6343 -0.3494 -1.8002
62288SOL     OW 4855   0.618   5.238  13.651 -0.4072  0.2698 -0.3280
62288SOL    HW1 4856   0.657   5.237  13.564  0.1605 -0.5159 -0.0788
62288SOL    HW2 4857   0.530   5.202  13.639  0.0480 -0.8620 -0.4255
62289SOL     OW 4858  10.203   1.430   2.200  0.3403 -0.3188  0.0502
62289SOL    HW1 4859  10.260   1.442   2.124 -0.6155 -0.4576 -0.7088
62289SOL    HW2 4860  10.116   1.415   2.163  0.0157 -1.3494  1.1484
62290SOL     OW 4861   0.672   4.572   9.483  0.4215 -0.0222 -0.0191
62290SOL    HW1 4862   0.744   4.586   9.544  1.5298 -2.4269 -0.6248
62290SOL    HW2 4863   0.606   4.636   9.508  1.7195  0.5471  2.2349
62291SOL     OW 4864   9.874   9.483   6.214  0.3522 -0.1983  0.0629
62291SOL    HW1 4865   9.864   9.432   6.133  0.3453  2.2396 -1.5786
62291SOL    HW2 4866   9.968   9.490   6.226  0.3515 -0.8599  0.4903
62292SOL     OW 4867  13.329   9.818  12.656 -0.0613  0.0386  0.9696
62292SOL    HW1 4868  13.287   9.732  12.652  1.1018 -0.4969 -1.4375
62292SOL    HW2 4869  13.420   9.799  12.677  0.8897  0.2765 -2.3109
62293SOL     OW 4870   8.469  10.093   5.533 -0.3102 -0.0308 -0.0711
62293SOL    HW1 4871   8.492  10.000   5.526 -1.1659 -0.2637  0.1405
62293SOL    HW2 4872   8.397  10.104   5.470 -1.2660  0.1252  1.0135
62294SOL     OW 4873   1.352   9.944   8.571  0.3808  0.2300 -0.2693
62294SOL    HW1 4874   1.282   9.995   8.530 -0.7753 -0.5841  0.6207
62294SOL    HW2 4875   1.389   9.892   8.499 -1.7942 -1.3838 -0.3184
62295SOL     OW 4876  10.711   7.472  13.839  0.6748  0.2939 -0.6854
62295SOL    HW1 4877  10.684   7.390  13.880  1.2843  0.9074  1.0569
62295SOL    HW2 4878  10.634   7.503  13.793  0.2101 -0.8640 -0.7231
62296SOL     OW 4879   5.209   0.125   1.476  0.2381 -0.4107 -0.1835
62296SOL    HW1 4880   5.295   0.129   1.433  0.1762 -0.7229 -0.3394
62296SOL    HW2 4881   5.153   0.179   1.421 -0.1373 -1.7704 -1.2099
62297SOL     OW 4882   2.518   0.978   4.776  0.0415  0.0934 -0.4228
62297SOL    HW1 4883   2.488   1.017   4.858  0.1738 -0.5577 -0.0582
62297SOL    HW2 4884   2.516   0.883   4.792  1.9379  0.0065 -0.5184
62298SOL     OW 4885   8.133   0.287   8.574 -0.4975 -0.1122  0.0636
62298SOL    HW1 4886   8.161   0.232   8.502 -0.3985 -1.1274  0.8548
62298SOL    HW2 4887   8.042   0.262   8.589 -0.3352 -0.3625  0.6811
62299SOL     OW 4888   1.102   3.556   5.188 -0.1952 -0.5948 -0.4766
62299SOL    HW1 4889   1.130   3.626   5.129 -2.2068  1.2577  0.6415
62299SOL    HW2 4890   1.009   3.544   5.169 -0.6913 -0.5238  1.7045
62300SOL     OW 4891   6.241   7.946  10.787 -0.1979  0.2453 -0.0381
62300SOL    HW1 4892   6.162   7.985  10.751 -1.4286 -0.9832  1.1635
62300SOL    HW2 4893   6.239   7.969  10.880  1.0903  0.5345 -0.0600
62301SOL     OW 4894   6.982   1.201   2.849 -0.1702  0.5522 -0.5055
62301SOL    HW1 4895   6.965   1.288   2.884 -2.3852  0.5778 -1.4671
62301SOL    HW2 4896   6.984   1.143   2.926 -1.2870  1.1008 -0.0475
62302SOL     OW 4897   0.139   4.878  10.165 -0.2685 -0.3400 -0.6975
62302SOL    HW1 4898   0.127   4.924  10.249  0.3589  1.2776 -1.4477
62302SOL    HW2 4899   0.129   4.786  10.187  0.4592 -0.0135  1.2871
62303SOL     OW 4900  13.523  10.436  12.537  0.4806 -0.2239 -0.0996
62303SOL    HW1 4901  13.582  10.446  12.462 -0.6363  0.4912 -0.9190
62303SOL    HW2 4902  13.442  10.402  12.499 -0.5155  1.2899  0.5697
62304SOL     OW 4903   0.033   4.522   6.629  0.2948 -0.1918 -0.3861
62304SOL    HW1 4904   0.053   4.428   6.631 -0.3095 -0.3341 -0.7697
62304SOL    HW2 4905   0.069   4.556   6.711  1.2057 -0.6131 -0.6002
62305SOL     OW 4906   2.362   4.713  10.582 -0.4342 -0.0996 -0.2160
62305SOL    HW1 4907   2.281   4.731  10.534  0.1133  0.2630 -1.0362
62305SOL    HW2 4908   2.364   4.778  10.652 -0.7080  0.0760 -0.3710
62306SOL     OW 4909   9.356   1.839  10.665 -0.0081  0.3458 -0.1471
62306SOL    HW1 4910   9.410   1.817  10.589 -0.5383 -0.6740 -0.2473
62306SOL    HW2 4911   9.276   1.788  10.653 -0.8218  1.5006  0.2240
62307SOL     OW 4912   9.319  13.932  14.000 -0.0320 -0.2500  0.0525
62307SOL    HW1 4913   9.329  14.023  13.970 -0.3178 -0.4948 -0.8021
62307SOL    HW2 4914   9.367  13.930  14.083  0.8146  0.4381 -0.3871
62308SOL     OW 4915  11.789   6.730   0.725 -0.5168  0.3862  0.4343
62308SOL    HW1 4916  11.700   6.695   0.735 -1.4673  2.5681  0.0383
62308SOL    HW2 4917  11.817   6.697   0.640 -0.1695 -1.7970  1.3027
62309SOL     OW 4918  11.279   0.192   5.470  0.4081  0.0010 -0.5324
62309SOL    HW1 4919  11.352   0.238   5.512  0.2887 -0.0450 -0.2714
62309SOL    HW2 4920  11.254   0.249   5.397 -0.7789  1.1736  0.7257
62310SOL     OW 4921   0.086  13.937   4.945 -0.1655  0.1528  0.5460
62310SOL    HW1 4922   0.086  14.027   4.978  0.6370  0.8758 -1.2837
62310SOL    HW2 4923   0.051  13.944   4.856  0.3848 -1.2647  0.1922
62311SOL     OW 4924   8.689   1.751   0.508  0.7889 -0.3199 -0.1275
62311SOL    HW1 4925   8.766   1.697   0.487  0.8284 -0.4842  0.4427
62311SOL    HW2 4926   8.644   1.761   0.424 -0.1540 -2.6811  0.0129
62312SOL     OW 4927   3.778   6.180   0.457  0.5777  0.5692  0.2812
62312SOL    HW1 4928   3.853   6.180   0.399  0.5528  0.9163  0.2501
62312SOL    HW2 4929   3.735   6.264   0.442 -0.0045  0.2370  0.0548
62313SOL     OW 4930   6.089   9.535   6.977  0.3673  0.4314 -0.0495
62313SOL    HW1 4931   6.141   9.464   7.014 -0.8222 -0.7238 -0.4975
62313SOL    HW2 4932   6.075   9.595   7.050  1.1511  0.0704  0.4103
62314SOL     OW 4933  11.296  13.989   6.557  0.3739  0.2081  0.6366
62314SOL    HW1 4934  11.334  13.903   6.538  1.1668  0.6987 -0.0870
62314SOL    HW2 4935  11.306  14.038   6.476  1.9239  1.6776  1.6454
62315SOL     OW 4936  10.901  13.481   9.211 -0.3669 -0.1835 -0.3498
62315SOL    HW1 4937  10.853  13.454   9.132 -0.1372 -0.2086 -0.4800
62315SOL    HW2 4938  10.978  13.425   9.214 -0.7695 -0.7199  0.3230
62316SOL     OW 4939   6.321  12.916   4.144  0.1746  0.8133  0.7045
62316SOL    HW1 4940   6.415  12.931   4.138  0.6059 -1.6161  0.4412
62316SOL    HW2 4941   6.312  12.849   4.210 -1.2564  0.0770 -0.1935
62317SOL     OW 4942   8.704  10.278   2.416  0.3810  0.1427 -0.1977
62317SOL    HW1 4943   8.610  10.266   2.400  0.5609 -1.5509 -0.1783
62317SOL    HW2 4944   8.747  10.231   2.345  1.2079 -0.1257  0.4632
62318SOL     OW 4945   8.660   7.403   0.932 -0.1663 -0.0818 -0.0986
62318SOL    HW1 4946   8.614   7.486   0.941  2.5343  1.6057 -0.7144
62318SOL    HW2 4947   8.611   7.342   0.988 -0.9994  2.4449  2.1341
62319SOL     OW 4948   1.309  11.724  11.498 -0.1805  0.4804 -0.1825
62319SOL    HW1 4949   1.267  11.689  11.576  0.0600 -0.6407 -0.5423
62319SOL    HW2 4950   1.366  11.794  11.530  0.7490 -0.6925  0.7914
62320SOL     OW 4951   6.746   4.183   2.663  0.1799 -0.1547 -0.0285
62320SOL    HW1 4952   6.768   4.128   2.588  0.3976  1.3163 -1.0906
62320SOL    HW2 4953   6.830   4.215   2.695  0.3207 -2.5975  2.3897
62321SOL     OW 4954  12.309   5.539   9.321 -0.2457  0.9958 -0.0369
62321SOL    HW1 4955  12.257   5.504   9.249 -1.3057  2.9314 -0.2861
62321SOL    HW2 4956  12.264   5.511   9.400  1.6196 -2.2243  0.0351
62322SOL     OW 4957   6.175   9.159   2.688  0.0989  0.6020  0.0882
62322SOL    HW1 4958   6.089   9.150   2.728  0.0220  2.3077  0.3582
62322SOL    HW2 4959   6.201   9.069   2.668 -0.6451 -0.1730  2.3079
62323SOL     OW 4960   0.618   7.560   2.828 -0.3307 -0.3833 -0.0713
62323SOL    HW1 4961   0.685   7.524   2.771 -0.0421 -0.4090  0.2851
62323SOL    HW2 4962   0.644   7.652   2.840 -0.8363 -0.1565 -0.6392
62324SOL     OW 4963   3.509   7.842  13.540 -0.1013  0.8255  0.0732
62324SOL    HW1 4964   3.599   7.819  13.561 -0.3413 -0.0849  0.1678
62324SOL    HW2 4965   3.506   7.937  13.544  1.0531  0.9146 -0.7623
62325SOL     OW 4966  12.664  13.076   9.403  0.1458  0.3095  0.1868
62325SOL    HW1 4967  12.642  13.044   9.491  0.4884  0.9487  0.5190
62325SOL    HW2 4968  12.594  13.044   9.347  0.0852 -0.3597  0.6429
62326SOL     OW 4969   6.453   4.869   9.110 -0.1585 -0.1441 -0.1924
62326SOL    HW1 4970   6.498   4.813   9.173  0.2126  0.4437  0.0765
62326SOL    HW2 4971   6.508   4.947   9.103 -0.0546 -0.3097 -1.4625
62327SOL     OW 4972  12.523   2.113   8.424  0.5825 -0.0313  0.1512
62327SOL    HW1 4973  12.557   2.168   8.494  1.1736 -0.1045 -0.0741
62327SOL    HW2 4974  12.533   2.024   8.457  1.9558 -0.1338 -0.4853
62328SOL     OW 4975   8.662   4.964   7.317 -0.1499  0.5626  0.2898
62328SOL    HW1 4976   8.706   4.913   7.249 -0.0201  1.6748 -0.4884
62328SOL    HW2 4977   8.732   5.004   7.367 -0.2071  2.0504 -0.7342
62329SOL     OW 4978  10.162   8.994   7.421  0.3033 -0.5752 -0.4963
62329SOL    HW1 4979  10.180   8.926   7.485 -1.6798 -0.2709  0.4595
62329SOL    HW2 4980  10.245   9.006   7.374  1.6305 -1.2459  1.5735
62330SOL     OW 4981   7.443   7.497   3.648  0.8319 -0.0336 -0.0090
62330SOL    HW1 4982   7.438   7.526   3.739 -0.4337  0.3466 -0.1890
62330SOL    HW2 4983   7.489   7.413   3.652  1.7182  0.4711  0.8546
62331SOL     OW 4984  13.089   5.458   3.760 -0.4066 -0.0203  0.4414
62331SOL    HW1 4985  13.004   5.417   3.775 -0.1747 -0.4650  0.5481
62331SOL    HW2 4986  13.149   5.385   3.746 -0.1974  0.3127 -0.4774
62332SOL     OW 4987  10.772  10.614   3.168 -0.0951  0.0502 -0.0110
62332SOL    HW1 4988  10.757  10.651   3.081  1.8142  0.0120 -0.4066
62332SOL    HW2 4989  10.690  10.569   3.189 -0.5978  0.0087 -1.8221
62333SOL     OW 4990   9.191   4.638   1.956 -0.5727  0.6276 -0.1020
62333SOL    HW1 4991   9.143   4.555   1.955  1.4273 -0.8247  3.8077
62333SOL    HW2 4992   9.255   4.630   1.885 -1.3665 -0.4953 -0.7219
62334SOL     OW 4993   5.650   6.105  10.943 -0.0771 -0.0956 -0.9073
62334SOL    HW1 4994   5.635   6.187  10.896 -0.4386 -0.9426 -2.3230
62334SOL    HW2 4995   5.722   6.125  11.003 -1.1888  1.6891 -0.0714
62335SOL     OW 4996   2.965   9.636   0.257  0.0878  0.3900  0.0915
62335SOL    HW1 4997   2.941   9.665   0.169 -1.2281  0.7909  0.5560
62335SOL    HW2 4998   2.994   9.716   0.302 -0.3687  0.4072  0.3661
62336SOL     OW 4999   9.499   7.237  11.930 -0.0228 -0.1198  0.5544
62336SOL    HW1 5000   9.475   7.243  12.023 -0.5440 -0.7984  0.4696
62336SOL    HW2 5001   9.564   7.306  11.918  0.2283 -0.1848  1.4791
62337SOL     OW 5002   7.585  14.027   8.931  0.2707  0.8550  0.7430
62337SOL    HW1 5003   7.553  14.000   9.018 -0.2234 -0.8554  0.0792
62337SOL    HW2 5004   7.534  14.105   8.910 -0.3553  0.6779  1.5509
62338SOL     OW 5005   7.277   6.203  13.830  0.3440 -0.6352 -0.4252
62338SOL    HW1 5006   7.196   6.164  13.796 -0.0334 -0.4335  0.2227
62338SOL    HW2 5007   7.247   6.276  13.885  0.9663 -0.5858 -0.1450
62339SOL     OW 5008   8.396   9.812   0.001  0.2038  0.3829 -0.2288
62339SOL    HW1 5009   8.327   9.874   0.025 -0.3836 -0.4531  0.2951
62339SOL    HW2 5010   8.348   9.735  -0.030  0.9265  0.5764 -1.9654
62340SOL     OW 5011   4.343  10.482   4.976 -0.2703  0.0444 -0.2816
62340SOL    HW1 5012   4.312  10.441   5.057 -0.4742  1.9945  0.6685
62340SOL    HW2 5013   4.384  10.564   5.004 -0.3623  0.7843 -2.1578
62341SOL     OW 5014   3.449   8.010   1.458  0.5432  0.0060 -0.1053
62341SOL    HW1 5015   3.400   8.024   1.377 -0.3017  1.0859  0.5564
62341SOL    HW2 5016   3.534   8.051   1.443  0.3221  0.3702 -0.3923
62342SOL     OW 5017   0.721   5.658   8.695  0.6611 -0.0773  0.0921
62342SOL    HW1 5018   0.672   5.730   8.733 -0.5522 -0.9046  0.1432
62342SOL    HW2 5019   0.655   5.593   8.673  1.6292 -0.7691 -0.8637
62343SOL     OW 5020  13.766   5.905  11.867 -0.4009 -0.3485 -0.7022
62343SOL    HW1 5021  13.701   5.910  11.937 -0.0802  1.4644 -0.4781
62343SOL    HW2 5022  13.832   5.970  11.891  1.9210 -2.5996 -0.5655
62344SOL     OW 5023  12.353   3.941   9.631  0.0406  0.1989  0.0662
62344SOL    HW1 5024  12.330   4.032   9.648  1.5298  0.4425  1.0614
62344SOL    HW2 5025  12.329   3.925   9.540  0.8935  1.9849 -0.5075
62345SOL     OW 5026  11.890  12.425  10.820 -0.2579 -0.6837 -0.2227
62345SOL    HW1 5027  11.919  12.384  10.739 -1.1579 -0.1715 -0.8261
62345SOL    HW2 5028  11.809  12.379  10.843  0.1418 -1.0156  0.5470
62346SOL     OW 5029   4.487  10.666   1.807  0.0579 -0.2265 -0.4381
62346SOL    HW1 5030   4.419  10.698   1.866  0.6881  0.5957 -0.1380
62346SOL    HW2 5031   4.523  10.744   1.766  1.3740 -0.5492  0.0254
62347SOL     OW 5032   2.683   0.878  13.470 -0.2340 -0.0487  0.4976
62347SOL    HW1 5033   2.685   0.798  13.523  1.1083 -0.0396  0.4847
62347SOL    HW2 5034   2.701   0.849  13.381  1.5789  0.3875  0.6893
62348SOL     OW 5035  11.784   7.149  10.998 -0.6453  0.2594  0.0224
62348SOL    HW1 5036  11.696   7.132  10.965  0.1561 -1.1714 -1.5132
62348SOL    HW2 5037  11.775   7.230  11.047 -2.1790  1.8863 -2.6986
62349SOL     OW 5038  11.680  10.032  10.146 -0.1005  0.2029  0.4565
62349SOL    HW1 5039  11.706  10.049  10.236  0.2872 -0.9316  0.5844
62349SOL    HW2 5040  11.753  10.063  10.093  0.8272 -1.4061  0.7128
62350SOL     OW 5041   3.521   9.662  11.719  0.5079  0.6980  0.6260
62350SOL    HW1 5042   3.617   9.669  11.714  0.3847  1.7543 -0.9900
62350SOL    HW2 5043   3.498   9.611  11.641 -0.3828  2.3855 -0.2679
62351SOL     OW 5044  10.279   6.481  13.439 -0.1839  0.8358 -0.2156
62351SOL    HW1 5045  10.266   6.423  13.364  2.3650  1.2798 -1.0820
62351SOL    HW2 5046  10.307   6.423  13.510 -1.3258  0.5892  0.0646
62352SOL     OW 5047  12.647   4.223  10.274  0.0045 -0.3424 -0.2390
62352SOL    HW1 5048  12.601   4.302  10.304 -0.8987 -1.6874  2.2863
62352SOL    HW2 5049  12.584   4.152  10.290  1.9946 -1.9690  0.9042
62353SOL     OW 5050  12.853   8.104  11.261 -0.1537 -0.1870  0.3454
62353SOL    HW1 5051  12.789   8.144  11.319  0.4734  0.0209  0.8974
62353SOL    HW2 5052  12.827   8.011  11.258 -0.2123 -0.1918  0.9215
62354SOL     OW 5053   6.488   3.637   7.584 -0.1626 -0.1274 -0.0333
62354SOL    HW1 5054   6.559   3.588   7.541 -0.8805  0.6871 -2.2848
62354SOL    HW2 5055   6.513   3.729   7.575 -0.9717  0.1217  0.1722
62355SOL     OW 5056   9.298  11.729  13.381 -0.5844 -0.2820  0.1684
62355SOL    HW1 5057   9.305  11.634  13.394 -1.4903 -0.0614  2.8414
62355SOL    HW2 5058   9.344  11.745  13.299  0.2730 -2.9312  0.0302
62356SOL     OW 5059   9.299   4.165  11.256  0.4144  0.3613 -0.1633
62356SOL    HW1 5060   9.310   4.091  11.195 -0.8338  0.7084 -0.8221
62356SOL    HW2 5061   9.229   4.137  11.315  0.6699  0.5959  0.2554
62357SOL     OW 5062   4.853   3.372  14.074  0.0104  0.1161 -0.0104
62357SOL    HW1 5063   4.925   3.369  14.138  0.0803 -0.6016 -0.1059
62357SOL    HW2 5064   4.894   3.350  13.991  0.1283  2.1941 -0.5357
62358SOL     OW 5065   4.145  12.905  11.556  0.1269  0.0392 -0.2715
62358SOL    HW1 5066   4.139  12.961  11.479 -0.1139  0.8384  0.3149
62358SOL    HW2 5067   4.078  12.838  11.542  0.4298 -0.1286 -0.9838
62359SOL     OW 5068   8.812   5.682   6.552 -0.2180 -0.6898  0.1006
62359SOL    HW1 5069   8.856   5.678   6.467  0.5505  0.4249  0.4198
62359SOL    HW2 5070   8.877   5.722   6.610 -2.0528  2.2715  0.2978
62360SOL     OW 5071  10.933   8.508  11.849 -0.5059 -0.0773  0.2522
62360SOL    HW1 5072  11.027   8.491  11.849 -0.5240 -0.2135  0.8177
62360SOL    HW2 5073  10.922   8.588  11.797  0.0231  0.4535  0.9508
62361SOL     OW 5074   8.595  13.822  12.889  0.4814 -0.1471  0.1700
62361SOL    HW1 5075   8.542  13.896  12.918  1.0947  0.5149 -0.3769
62361SOL    HW2 5076   8.648  13.799  12.965 -0.5818 -0.8257  0.7286
62362SOL     OW 5077   1.011   0.572   1.759 -0.0047  0.1431  0.4460
62362SOL    HW1 5078   0.933   0.618   1.792 -0.6753 -0.5023 -0.1947
62362SOL    HW2 5079   1.073   0.642   1.739 -1.4429  0.9480 -1.6487
62363SOL     OW 5080   1.286   3.700  10.361 -0.1650  0.0099 -0.1388
62363SOL    HW1 5081   1.244   3.669  10.281  2.4030 -1.7308 -0.9349
62363SOL    HW2 5082   1.351   3.764  10.331  0.4064 -0.2057  0.6142
62364SOL     OW 5083   6.358   0.096   7.608 -0.6290 -0.3264 -0.0323
62364SOL    HW1 5084   6.269   0.131   7.608 -0.7565 -0.6439  0.5838
62364SOL    HW2 5085   6.409   0.162   7.655 -0.7570 -0.6718  0.6047
62365SOL     OW 5086   5.007   8.100   0.930 -0.0428  0.1268  0.0108
62365SOL    HW1 5087   4.965   8.125   1.012 -1.1694  0.0929 -0.5443
62365SOL    HW2 5088   4.961   8.021   0.902 -0.8065  1.0386 -1.4773
62366SOL     OW 5089   3.451   1.009  11.863 -0.2683  0.2309  0.0165
62366SOL    HW1 5090   3.439   1.103  11.873  0.8875  0.3644  0.2586
62366SOL    HW2 5091   3.512   0.985  11.933  1.1186 -0.3161 -1.3131
62367SOL     OW 5092   9.627   4.078   6.044 -0.1836 -0.2181 -0.4848
62367SOL    HW1 5093   9.533   4.059   6.044  0.0425 -1.5345  0.9964
62367SOL    HW2 5094   9.669   3.993   6.052  1.1434  0.3783 -0.8497
62368SOL     OW 5095  11.243  10.090  12.801 -0.4033 -0.2091  0.6196
62368SOL    HW1 5096  11.154  10.071  12.831  0.1214 -0.3854  2.1856
62368SOL    HW2 5097  11.284  10.004  12.791 -0.2929 -0.1175  0.2592
62369SOL     OW 5098   2.361   5.666  12.080 -0.2335  0.5945 -0.4531
62369SOL    HW1 5099   2.399   5.731  12.139  1.8390  2.3118 -3.3911
62369SOL    HW2 5100   2.317   5.719  12.012 -1.0990 -1.1950 -1.3615
62370SOL     OW 5101   1.992   4.708  11.889 -0.2654  0.0808  0.1223
62370SOL    HW1 5102   2.080   4.745  11.888 -0.0044 -0.3516  2.2178
62370SOL    HW2 5103   1.959   4.729  11.977 -2.1333 -0.0558 -0.5064
62371SOL     OW 5104   1.393   8.242   8.500 -0.0713 -0.1855  0.2873
62371SOL    HW1 5105   1.398   8.150   8.473 -3.0935 -1.5272  3.5887
62371SOL    HW2 5106   1.316   8.276   8.455 -0.3704 -0.0190  0.9121
62372SOL     OW 5107   1.500  13.172   4.341  0.3386 -0.0894  0.3860
62372SOL    HW1 5108   1.553  13.093   4.341 -1.8724 -1.7264  2.3508
62372SOL    HW2 5109   1.490  13.195   4.433 -1.8908  0.3949  0.0999
62373SOL     OW 5110  11.524  11.351   2.178 -0.2764  0.1927  0.8523
62373SOL    HW1 5111  11.561  11.291   2.113  0.3176  0.2831  1.1008
62373SOL    HW2 5112  11.477  11.416   2.126 -0.3301 -0.0852  0.5467
62374SOL     OW 5113  13.440   4.830   8.652  0.0582  0.3674 -0.3843
62374SOL    HW1 5114  13.425   4.745   8.612 -0.0172 -0.3605  1.1039
62374SOL    HW2 5115  13.496   4.812   8.727 -0.8035  1.4622  0.5752
62375SOL     OW 5116   0.630   9.632   5.950  0.1099  0.5308 -0.1912
62375SOL    HW1 5117   0.660   9.723   5.951  1.2531  0.1778 -0.3660
62375SOL    HW2 5118   0.664   9.597   5.867  2.2730 -0.8564  1.1840
62376SOL     OW 5119  12.382   4.057  10.745  0.8384  0.3756 -0.2692
62376SOL    HW1 5120  12.323   3.981  10.737  0.6421  0.6714 -2.5222
62376SOL    HW2 5121  12.346   4.108  10.818 -0.6340 -0.3648 -0.4230
62377SOL     OW 5122   8.351   8.793   8.546 -0.3352 -0.6602  0.0115
62377SOL    HW1 5123   8.414   8.843   8.598  0.0229 -0.4669 -0.5922
62377SOL    HW2 5124   8.359   8.829   8.458 -1.1906 -0.7341 -0.1062
62378SOL     OW 5125   4.729   3.141   3.693 -0.1481  0.1867 -0.2842
62378SOL    HW1 5126   4.737   3.053   3.731 -0.8434  0.4116  0.4031
62378SOL    HW2 5127   4.679   3.128   3.612  0.9651 -0.2342 -0.9219
62379SOL     OW 5128   5.327  13.407  12.507  0.5582  0.1955 -0.0010
62379SOL    HW1 5129   5.261  13.428  12.572  0.9593  0.2340  0.4006
62379SOL    HW2 5130   5.403  13.377  12.559  0.7350 -0.1757 -0.4630
62380SOL     OW 5131   9.099   1.773   8.415  0.3302 -0.0936 -0.2893
62380SOL    HW1 5132   9.190   1.801   8.411  1.2124 -1.9175  2.9280
62380SOL    HW2 5133   9.080   1.768   8.509 -2.2366 -2.2626 -0.7964
62381SOL     OW 5134   7.652  11.514   4.240  0.2307  0.1106 -0.3658
62381SOL    HW1 5135   7.619  11.590   4.289  0.5773  0.8568 -1.2666
62381SOL    HW2 5136   7.649  11.541   4.149  0.9336 -0.7410 -0.6567
62382SOL     OW 5137  12.922   9.061   5.680  0.2006  0.1912  0.6098
62382SOL    HW1 5138  12.902   8.984   5.628  1.4942 -0.7827  1.4933
62382SOL    HW2 5139  13.008   9.089   5.649 -0.1139  1.1049  0.5223
62383SOL     OW 5140   1.587   0.577   6.930 -0.1055  0.3591 -0.7052
62383SOL    HW1 5141   1.652   0.617   6.873  1.7513 -0.7157  0.5625
62383SOL    HW2 5142   1.596   0.483   6.915 -2.2943  0.1947 -1.4242
62384SOL     OW 5143   5.808   9.908   1.884  0.2075 -0.3640  0.4300
62384SOL    HW1 5144   5.816   9.924   1.789  1.4475  0.3443  0.6332
62384SOL    HW2 5145   5.731   9.959   1.910  0.2001 -0.0946 -0.0961
62385SOL     OW 5146  11.158   5.099   4.053  0.0858  0.2908 -0.1047
62385SOL    HW1 5147  11.229   5.090   3.990  0.6375  0.4123  0.4847
62385SOL    HW2 5148  11.154   5.193   4.072  1.4793  0.0532  1.7420
62386SOL     OW 5149   8.802   3.748   1.068  0.1597 -0.2137  0.4297
62386SOL    HW1 5150   8.787   3.659   1.100 -0.7785 -0.8350 -1.6077
62386SOL    HW2 5151   8.722   3.795   1.089  0.5446  0.1134  1.2419
62387SOL     OW 5152  13.236   0.134   5.138  0.1139 -0.3170 -0.3147
62387SOL    HW1 5153  13.332   0.134   5.132  0.2089  0.2081  0.8988
62387SOL    HW2 5154  13.213   0.045   5.162  0.1517 -0.8730 -2.1705
62388SOL     OW 5155   0.788   9.658  10.171 -0.2225  0.2288 -0.2519
62388SOL    HW1 5156   0.784   9.619  10.084  0.8183 -0.1894 -0.1216
62388SOL    HW2 5157   0.820   9.747  10.156 -2.7049  1.1588 -0.5598
62389SOL     OW 5158  14.057   9.819   3.906 -0.1335  0.1937 -0.7173
62389SOL    HW1 5159  14.057   9.914   3.897  2.0513  0.1790 -1.2825
62389SOL    HW2 5160  14.052   9.787   3.816 -0.4590 -0.2395 -0.5504
62390SOL     OW 5161  13.835   5.799  12.416 -0.7221 -0.3020 -0.2494
62390SOL    HW1 5162  13.883   5.721  12.445 -1.3227 -0.0252  1.5789
62390SOL    HW2 5163  13.880   5.872  12.458 -0.1565  0.4021 -1.9612
62391SOL     OW 5164   7.405  11.904   0.799  0.6690 -0.1046  0.5006
62391SOL    HW1 5165   7.316  11.891   0.831  0.7648 -1.2924  0.2993
62391SOL    HW2 5166   7.395  11.915   0.704  0.8700 -1.7865  0.2698
62392SOL     OW 5167   6.005   6.499   5.385  0.1980 -0.3406 -0.1321
62392SOL    HW1 5168   5.914   6.525   5.367  0.5576  0.0122 -1.5112
62392SOL    HW2 5169   6.052   6.582   5.392  0.7426 -0.5396 -1.2607
62393SOL     OW 5170  10.966  10.879   4.067 -0.1525 -0.7375  0.1461
62393SOL    HW1 5171  10.899  10.914   4.125  0.3898  0.0072  0.3425
62393SOL    HW2 5172  11.024  10.954   4.050 -0.9381 -0.5771 -2.2966
62394SOL     OW 5173   8.546  10.630   8.317  0.5555 -0.6764 -0.3606
62394SOL    HW1 5174   8.474  10.661   8.372  2.5343  0.3280  1.8840
62394SOL    HW2 5175   8.597  10.573   8.375  1.6965 -1.1918 -1.8014
62395SOL     OW 5176   7.768  11.517   1.871 -0.1643 -0.3681 -0.1353
62395SOL    HW1 5177   7.694  11.540   1.927 -1.2275 -1.3613 -1.0857
62395SOL    HW2 5178   7.815  11.449   1.919 -0.1512 -0.0874  0.2500
62396SOL     OW 5179   8.367   7.016   5.742 -0.5112 -0.4046  0.3727
62396SOL    HW1 5180   8.453   7.051   5.717  0.0519 -1.4817  0.6885
62396SOL    HW2 5181   8.314   7.093   5.762  0.0536  0.3336 -0.8335
62397SOL     OW 5182  12.862   0.807   3.626  0.0695 -0.7696  0.0876
62397SOL    HW1 5183  12.823   0.890   3.599 -0.9460 -0.5047  2.1524
62397SOL    HW2 5184  12.942   0.831   3.672  0.2566 -1.0042 -0.1128
62398SOL     OW 5185  11.474   3.545   0.696  0.0815  0.0730  0.0949
62398SOL    HW1 5186  11.426   3.523   0.616 -0.4804  0.8675  0.2036
62398SOL    HW2 5187  11.519   3.627   0.676  1.1577 -0.4945  0.1076
62399SOL     OW 5188  12.963  12.941   8.166  0.2888 -0.0762  0.0469
62399SOL    HW1 5189  13.028  12.872   8.180 -0.7520 -1.2302 -0.6111
62399SOL    HW2 5190  12.970  12.997   8.244 -0.8849 -2.6067  2.1179
62400SOL     OW 5191  11.104   7.141  10.749 -0.0380 -0.0314  0.6069
62400SOL    HW1 5192  11.122   7.079  10.678  1.8475 -0.1087  1.1016
62400SOL    HW2 5193  11.137   7.225  10.717 -2.3427  0.7543  0.0510
62401SOL     OW 5194  13.862  10.238   1.018 -0.2496  0.2412 -0.4100
62401SOL    HW1 5195  13.805  10.249   0.941 -0.9240  2.6711  0.3488
62401SOL    HW2 5196  13.951  10.247   0.984 -0.5333  1.0709 -0.9668
62402SOL     OW 5197   0.518   8.248   6.214 -0.2172 -0.1187 -0.3227
62402SOL    HW1 5198   0.530   8.271   6.307 -0.0414 -1.9947  0.1675
62402SOL    HW2 5199   0.568   8.167   6.204 -0.5345 -0.1269 -1.9888
62403SOL     OW 5200  13.692  10.485   2.226 -0.2418  0.1721 -0.7728
62403SOL    HW1 5201  13.731  10.542   2.292 -1.1336  1.4919 -1.3399
62403SOL    HW2 5202  13.735  10.400   2.238  1.2777  1.0187 -0.0587
62404SOL     OW 5203   9.877  13.866   3.818  0.0309  0.6590  0.2700
62404SOL    HW1 5204   9.923  13.934   3.769 -0.1624  0.3723 -0.3214
62404SOL    HW2 5205   9.944  13.827   3.874  0.3514  0.7019 -0.0830
62405SOL     OW 5206   8.912   8.544   4.272  0.1045 -0.1439 -0.1424
62405SOL    HW1 5207   8.888   8.522   4.362  2.1445 -0.0078  0.4872
62405SOL    HW2 5208   8.985   8.486   4.252  0.4857  0.6788 -1.2590
62406SOL     OW 5209  13.239   3.088   5.674 -0.1612  0.0844 -0.0539
62406SOL    HW1 5210  13.234   3.021   5.605  0.0953 -1.0464  0.9822
62406SOL    HW2 5211  13.148   3.102   5.700 -0.2095  0.0921 -0.2202
62407SOL     OW 5212   9.707   9.688   2.008 -0.2136 -0.6279 -0.0107
62407SOL    HW1 5213   9.730   9.774   2.042 -0.4712 -0.4063 -0.4012
62407SOL    HW2 5214   9.785   9.635   2.024 -0.3931 -0.5771  1.0900
62408SOL     OW 5215   0.162   7.320   4.893 -0.2687  0.3010  0.2522
62408SOL    HW1 5216   0.192   7.410   4.888 -1.3934  0.6402 -0.9862
62408SOL    HW2 5217   0.163   7.300   4.987 -1.0817  2.0012  0.6762
62409SOL     OW 5218  10.430   1.460   9.667 -0.1054 -0.2791 -0.0331
62409SOL    HW1 5219  10.393   1.374   9.646  0.1663  0.0038 -1.7905
62409SOL    HW2 5220  10.426   1.509   9.585 -0.4706  1.4922  0.9891
62410SOL     OW 5221  11.839   7.694   9.661 -0.1683  0.5055 -0.6597
62410SOL    HW1 5222  11.934   7.680   9.670 -0.0047  1.4996 -0.6622
62410SOL    HW2 5223  11.812   7.632   9.593  0.5255  0.3620 -0.8175
62411SOL     OW 5224  10.369  12.893   5.585  0.1363  0.5876 -0.2574
62411SOL    HW1 5225  10.346  12.970   5.533  0.5995  0.5609 -0.5102
62411SOL    HW2 5226  10.360  12.820   5.524 -1.4039  0.2905  0.2827
62412SOL     OW 5227   5.072   2.619  13.746  0.4285 -0.1915  0.1131
62412SOL    HW1 5228   5.135   2.646  13.679  0.4066 -0.5923 -0.0715
62412SOL    HW2 5229   5.127   2.590  13.819  0.4593 -0.3444  0.0303
62413SOL     OW 5230   5.012   1.540   8.271  0.2963 -0.0442 -0.2354
62413SOL    HW1 5231   4.982   1.449   8.267  1.1896 -0.4657  1.4390
62413SOL    HW2 5232   5.018   1.559   8.365  0.4228  1.6504 -0.5470
62414SOL     OW 5233  10.293  13.897   7.300 -0.0768  0.4225 -0.1029
62414SOL    HW1 5234  10.228  13.899   7.230 -0.9003  1.9152  0.6441
62414SOL    HW2 5235  10.353  13.969   7.279  0.1925  0.2957  0.2303
62415SOL     OW 5236   3.506   9.619   6.406 -0.2547  0.9191 -0.5412
62415SOL    HW1 5237   3.577   9.684   6.411  0.9432 -0.4150  0.8660
62415SOL    HW2 5238   3.426   9.671   6.412  0.6231  2.3576 -0.6257
62416SOL     OW 5239   6.875   8.748   3.154  0.6855 -0.5503  0.4697
62416SOL    HW1 5240   6.898   8.682   3.088 -0.6167 -0.4135 -0.1704
62416SOL    HW2 5241   6.902   8.831   3.114 -1.5275 -0.2948 -0.6814
62417SOL     OW 5242   9.704  11.538   6.614  0.1959  0.4399 -0.2373
62417SOL    HW1 5243   9.624  11.565   6.568 -1.9232 -3.2218  0.9255
62417SOL    HW2 5244   9.703  11.589   6.695 -0.9107  0.5393 -0.2999
62418SOL     OW 5245  12.530   6.470   0.745  0.7281 -0.1208  0.2066
62418SOL    HW1 5246  12.557   6.384   0.713 -0.9397  0.2221 -2.3635
62418SOL    HW2 5247  12.438   6.478   0.719 -0.1235  1.2398  3.1438
62419SOL     OW 5248   0.182   3.733   9.731  0.2104 -0.3530  0.6932
62419SOL    HW1 5249   0.108   3.712   9.674  1.1371 -0.8329 -0.3830
62419SOL    HW2 5250   0.230   3.802   9.685  1.5676 -1.4870  0.3205
62420SOL     OW 5251  11.745   1.473  13.929  0.0950 -0.2053  0.0998
62420SOL    HW1 5252  11.690   1.516  13.863  4.5708 -0.0827 -4.0755
62420SOL    HW2 5253  11.740   1.531  14.005 -2.0292  2.1024 -1.6056
62421SOL     OW 5254  11.364   0.866   8.749 -0.0581  0.0314  0.2070
62421SOL    HW1 5255  11.287   0.824   8.786 -1.5483  3.8898  2.0529
62421SOL    HW2 5256  11.435   0.846   8.810 -0.9441  0.8320  1.5525
62422SOL     OW 5257  12.317   2.233   5.329  0.4384  0.0075  0.0880
62422SOL    HW1 5258  12.253   2.225   5.258  0.9974 -0.4612 -0.3762
62422SOL    HW2 5259  12.268   2.272   5.401 -1.3883 -3.4757  0.9879
62423SOL     OW 5260   0.853  11.848   8.147 -0.5725 -0.7579 -0.1970
62423SOL    HW1 5261   0.861  11.803   8.231 -1.3217 -0.3881  0.0791
62423SOL    HW2 5262   0.847  11.778   8.083  2.8159 -1.1164 -0.2922
62424SOL     OW 5263   2.631   5.740  12.956 -0.3478 -0.6048 -0.4818
62424SOL    HW1 5264   2.682   5.791  12.893  0.0887 -0.3813  0.0479
62424SOL    HW2 5265   2.546   5.729  12.913  0.4058 -1.7417 -1.7605
62425SOL     OW 5266  10.585   7.259   6.242  0.5010 -0.0171 -0.6571
62425SOL    HW1 5267  10.663   7.255   6.186  0.0742 -1.0718 -1.2009
62425SOL    HW2 5268  10.576   7.170   6.277 -0.0529  0.2796 -0.0153
62426SOL     OW 5269   2.012   1.399   5.506  0.1988 -0.4568  0.1350
62426SOL    HW1 5270   1.934   1.386   5.560  0.4523 -0.3930  0.5245
62426SOL    HW2 5271   2.036   1.311   5.478 -0.6624 -0.3749 -0.9334
62427SOL     OW 5272  13.283   4.231  13.498  0.6286 -0.3270  0.2913
62427SOL    HW1 5273  13.244   4.276  13.423 -1.1436  0.6695  1.7411
62427SOL    HW2 5274  13.223   4.158  13.515  1.5355 -1.1089  0.1813
62428SOL     OW 5275  10.894   9.871  10.674  0.3268 -1.1678 -0.1417
62428SOL    HW1 5276  10.928   9.845  10.759 -0.9097 -2.3996  0.0023
62428SOL    HW2 5277  10.972   9.875  10.618  1.1415 -0.4091  1.0076
62429SOL     OW 5278   0.546   2.352  13.235 -0.1961  0.2387 -0.1322
62429SOL    HW1 5279   0.498   2.350  13.317 -0.4292 -2.0312 -0.2815
62429SOL    HW2 5280   0.636   2.373  13.260 -0.7872  2.5252  0.3369
62430SOL     OW 5281   2.333   9.360   0.591 -0.3400  0.0507 -0.2778
62430SOL    HW1 5282   2.362   9.426   0.654 -2.1488 -1.0628  1.8431
62430SOL    HW2 5283   2.331   9.407   0.507  0.8770  1.9550  0.6795
62431SOL     OW 5284   9.257   5.406  13.806 -0.4231 -0.1290 -0.1808
62431SOL    HW1 5285   9.291   5.408  13.717  1.1303  0.4316  0.3866
62431SOL    HW2 5286   9.203   5.327  13.810 -2.1706  0.8621 -2.1630
62432SOL     OW 5287  10.664  13.036  12.457 -0.0547 -0.1206  0.1431
62432SOL    HW1 5288  10.668  12.950  12.416  1.6447  0.6119 -1.3523
62432SOL    HW2 5289  10.722  13.029  12.533  1.3983  0.1342 -0.9077
62433SOL     OW 5290   6.559   6.541   2.202  0.1206 -0.1327  0.3034
62433SOL    HW1 5291   6.557   6.572   2.292 -0.2585 -0.9297  0.5760
62433SOL    HW2 5292   6.504   6.463   2.202 -1.2594  0.7612 -0.9558
62434SOL     OW 5293   9.319   7.767  10.842 -0.5446  0.0619 -0.1965
62434SOL    HW1 5294   9.397   7.747  10.894 -0.7848 -0.1617  0.0806
62434SOL    HW2 5295   9.248   7.720  10.886 -0.7333 -0.2250 -0.7843
62435SOL     OW 5296  11.763   9.596   3.911 -0.0653  0.4631  0.0187
62435SOL    HW1 5297  11.761   9.622   3.818  2.1003 -0.3272 -0.2981
62435SOL    HW2 5298  11.734   9.674   3.958 -1.0733  0.9269 -1.2976
62436SOL     OW 5299  13.624   1.700  10.346 -0.5480 -0.0025  0.3143
62436SOL    HW1 5300  13.557   1.718  10.413  0.2287 -0.6243  1.2954
62436SOL    HW2 5301  13.696   1.759  10.368 -0.3840 -0.0370 -0.1284
62437SOL     OW 5302  13.865   9.975  14.050  0.2519  0.1684  0.0739
62437SOL    HW1 5303  13.884  10.045  13.988  0.7663  0.6919  0.8053
62437SOL    HW2 5304  13.920   9.994  14.126  0.9735 -1.4394  0.0067
62438SOL     OW 5305  10.470  12.667  10.444 -0.0241  0.1406 -0.0233
62438SOL    HW1 5306  10.381  12.639  10.465  0.6236 -2.2974 -0.2306
62438SOL    HW2 5307  10.462  12.713  10.361 -0.9514 -1.1700 -0.6798
62439SOL     OW 5308   5.026  11.945   9.047  0.2600  0.9296 -0.1395
62439SOL    HW1 5309   5.036  12.017   8.985  3.0270  0.3228 -0.5354
62439SOL    HW2 5310   5.052  11.867   8.997  0.2699  0.0891  1.1362
62440SOL     OW 5311   3.542   2.381   9.974 -0.6571 -0.5132 -0.1789
62440SOL    HW1 5312   3.506   2.437   9.905 -0.0615  0.4009  0.2286
62440SOL    HW2 5313   3.492   2.300   9.968  0.7634 -1.2933 -3.0763
62441SOL     OW 5314   3.008   6.889   3.873 -0.4653 -0.8007 -0.0038
62441SOL    HW1 5315   2.987   6.850   3.789 -0.4136 -0.5084 -0.1546
62441SOL    HW2 5316   3.026   6.815   3.931 -2.6674 -1.1346  0.3427
62442SOL     OW 5317   9.961   8.473  12.813 -0.0975 -0.6776 -0.1474
62442SOL    HW1 5318  10.048   8.435  12.804 -0.0816 -0.6740 -0.0007
62442SOL    HW2 5319   9.908   8.428  12.747  0.4720  0.6428 -1.5747
62443SOL     OW 5320   1.042  12.520   7.072 -0.3430  0.2527 -0.0998
62443SOL    HW1 5321   0.998  12.472   7.002  0.2294 -0.9871  0.3509
62443SOL    HW2 5322   1.013  12.477   7.153  0.1933  0.6578  0.3211
62444SOL     OW 5323   0.865  12.140   5.625  0.7063 -0.5391 -0.4835
62444SOL    HW1 5324   0.826  12.194   5.556  1.0736  0.2012 -0.1253
62444SOL    HW2 5325   0.792  12.117   5.682  0.4977 -0.6792 -0.8042
62445SOL     OW 5326  11.147   9.133  10.025 -0.3662 -0.6375  0.0262
62445SOL    HW1 5327  11.106   9.161   9.943  0.2582  0.2036 -0.0149
62445SOL    HW2 5328  11.218   9.196  10.039  1.7536 -2.7602 -0.5583
62446SOL     OW 5329  10.892   4.925  14.096  0.0764  0.5689  0.3508
62446SOL    HW1 5330  10.845   4.964  14.022  0.5381  1.1748  0.3692
62446SOL    HW2 5331  10.871   4.982  14.170  0.5368  0.6176  0.4424
62447SOL     OW 5332  13.666   6.078  10.725  1.1492  0.0690  0.7480
62447SOL    HW1 5333  13.705   6.001  10.684  0.1971 -0.7905  1.4336
62447SOL    HW2 5334  13.733   6.109  10.787  1.3013 -0.5424  0.8927
62448SOL     OW 5335   1.891   7.874   7.468 -0.0111 -0.0795  0.0773
62448SOL    HW1 5336   1.889   7.962   7.428  1.3623 -0.0288  0.0754
62448SOL    HW2 5337   1.799   7.848   7.471 -0.2792  0.3609 -2.1462
62449SOL     OW 5338   8.359   8.140   4.212 -0.7738  0.1210 -0.2628
62449SOL    HW1 5339   8.323   8.116   4.297  1.0757  1.8979  1.1285
62449SOL    HW2 5340   8.406   8.221   4.228  0.0351  0.2680 -2.9104
62450SOL     OW 5341   7.196   6.597  11.118  0.2541 -0.0530  0.2062
62450SOL    HW1 5342   7.171   6.509  11.091  1.0898 -0.7855  1.7189
62450SOL    HW2 5343   7.199   6.593  11.213  1.9538  1.1511  0.2445
62451SOL     OW 5344  11.560   0.447  12.279 -0.5273  0.6363  0.8280
62451SOL    HW1 5345  11.571   0.354  12.300 -0.1325  0.8585  1.6661
62451SOL    HW2 5346  11.595   0.493  12.356  1.0743  1.5255 -0.3829
62452SOL     OW 5347  11.261  12.771  11.511  0.2363  0.3302 -0.1915
62452SOL    HW1 5348  11.338  12.784  11.455  0.4724  1.6703  0.3874
62452SOL    HW2 5349  11.276  12.830  11.586 -1.1640  0.3300  0.1178
62453SOL     OW 5350  12.774  11.932   4.486 -0.1424 -0.1457  0.0637
62453SOL    HW1 5351  12.759  11.842   4.455 -1.3486  0.6318 -1.8405
62453SOL    HW2 5352  12.688  11.974   4.479  0.6028  1.4299 -0.0848
62454SOL     OW 5353   0.391   2.676  10.135 -0.4596  0.4175 -0.3219
62454SOL    HW1 5354   0.326   2.684  10.065 -0.0936  0.2026 -0.6931
62454SOL    HW2 5355   0.443   2.756  10.129 -0.9933  0.8110  0.2876
62455SOL     OW 5356   6.947  10.268   5.597 -0.3100 -0.3781 -0.1034
62455SOL    HW1 5357   6.961  10.277   5.691  0.5012  2.1196 -0.3848
62455SOL    HW2 5358   6.862  10.310   5.582  0.2818  0.6847 -0.6345
62456SOL     OW 5359   4.355  10.398   0.536 -0.2765 -0.3723  0.1324
62456SOL    HW1 5360   4.391  10.464   0.476  0.3306 -0.8587 -0.0574
62456SOL    HW2 5361   4.296  10.345   0.482  0.7537 -1.2049 -0.2137
62457SOL     OW 5362   3.624   7.400   4.414 -0.0121  0.3141  0.1734
62457SOL    HW1 5363   3.590   7.310   4.415 -0.5221  0.4924 -0.5301
62457SOL    HW2 5364   3.703   7.395   4.361 -0.7061  0.4994 -0.9065
62458SOL     OW 5365   2.400   8.823  13.934 -0.1344  0.0726 -0.4462
62458SOL    HW1 5366   2.479   8.871  13.958 -1.1514  2.9999 -2.4276
62458SOL    HW2 5367   2.423   8.778  13.852 -0.3499  0.5172 -0.7554
62459SOL     OW 5368  12.213   2.748  10.565 -0.3010 -0.0822  0.0973
62459SOL    HW1 5369  12.256   2.793  10.638 -0.3988 -0.1913  0.2234
62459SOL    HW2 5370  12.212   2.812  10.494  0.3559 -0.1864 -0.0104
62460SOL     OW 5371   7.477   4.107   9.993 -0.1743 -0.6613  0.5086
62460SOL    HW1 5372   7.465   4.020  10.031 -0.3975 -1.5757 -1.5208
62460SOL    HW2 5373   7.572   4.116   9.982 -0.0276  0.0144  2.0946
62461SOL     OW 5374   9.403  13.407   1.983  0.1188  0.3301 -0.0079
62461SOL    HW1 5375   9.359  13.491   1.994 -0.4728 -0.0469  0.5382
62461SOL    HW2 5376   9.479  13.412   2.041  1.0195  1.1007 -1.1814
62462SOL     OW 5377   9.195  10.450   3.974  0.4378  0.2626  0.3125
62462SOL    HW1 5378   9.195  10.370   3.921 -0.0109  0.9529 -0.7659
62462SOL    HW2 5379   9.271  10.499   3.944  1.5250 -0.3493  1.9444
62463SOL     OW 5380  12.746   9.103   2.586  0.1458  0.0901  0.7113
62463SOL    HW1 5381  12.813   9.141   2.529  1.7349 -0.9170  1.8167
62463SOL    HW2 5382  12.789   9.093   2.671 -1.0682 -1.5421  1.2047
62464SOL     OW 5383   6.781  10.574  11.676 -0.0623  0.1037 -0.3273
62464SOL    HW1 5384   6.736  10.498  11.711  1.9320 -0.4997  1.1478
62464SOL    HW2 5385   6.849  10.538  11.619 -0.1665  0.8716 -0.9567
62465SOL     OW 5386   4.597   2.586  10.984 -0.3558  0.2959  0.8325
62465SOL    HW1 5387   4.547   2.518  11.029 -1.8507  0.2382 -0.8002
62465SOL    HW2 5388   4.675   2.600  11.039  0.0685 -2.7896  1.1670
62466SOL     OW 5389   9.935   6.713   9.421 -0.3301  0.0037 -0.6557
62466SOL    HW1 5390   9.897   6.635   9.380 -2.0201  0.5165 -0.1547
62466SOL    HW2 5391   9.903   6.786   9.368 -0.6262  0.5049  0.1963
62467SOL     OW 5392   5.228  14.074   9.916 -0.1687 -0.0148  0.7799
62467SOL    HW1 5393   5.236  14.084   9.821  1.1896  0.1902  0.9022
62467SOL    HW2 5394   5.163  14.004   9.927  0.2011 -0.5545 -0.3025
62468SOL     OW 5395   9.984   0.399  10.188  0.1307  0.1855  0.0320
62468SOL    HW1 5396   9.995   0.325  10.129  0.5325 -0.1883  0.5542
62468SOL    HW2 5397  10.054   0.459  10.164  2.0380 -1.1374  1.7954
62469SOL     OW 5398   1.543   3.740   5.576  0.4392 -0.0701 -0.2984
62469SOL    HW1 5399   1.489   3.713   5.650  0.4046  0.3918 -0.1512
62469SOL    HW2 5400   1.491   3.718   5.499  0.6660 -0.9711 -0.2100
62470SOL     OW 5401   0.966   8.899   2.896 -0.5242 -0.2751 -0.1843
62470SOL    HW1 5402   0.992   8.851   2.975 -0.9754  0.6778  0.5676
62470SOL    HW2 5403   1.048   8.914   2.850 -0.0378  0.4366  0.8623
62471SOL     OW 5404  13.695   0.545   5.036 -0.5497  0.1161  0.1619
62471SOL    HW1 5405  13.750   0.471   5.061  0.9243  0.2574 -2.3504
62471SOL    HW2 5406  13.612   0.506   5.010 -0.4886 -0.4368  0.7839
62472SOL     OW 5407   3.367   9.165   1.363 -0.1428 -0.0221 -0.4281
62472SOL    HW1 5408   3.432   9.190   1.297 -0.2623  2.5910  0.3132
62472SOL    HW2 5409   3.283   9.183   1.321 -0.2231  1.4826  0.2899
62473SOL     OW 5410   8.687   8.615   5.305 -0.5960  0.9520  0.2094
62473SOL    HW1 5411   8.681   8.705   5.273  0.6603  0.3590 -1.8415
62473SOL    HW2 5412   8.669   8.561   5.228 -0.4161 -0.5744  1.1971
62474SOL     OW 5413   2.516  13.035   1.668 -0.3217 -0.3572 -0.2187
62474SOL    HW1 5414   2.511  12.944   1.697 -1.1392 -1.0016 -2.2615
62474SOL    HW2 5415   2.597  13.039   1.617 -1.3914 -0.5627 -2.0162
62475SOL     OW 5416   8.092   5.137  10.792 -0.2525  0.2055  0.6158
62475SOL    HW1 5417   8.185   5.159  10.794  0.3095 -1.5657 -1.4105
62475SOL    HW2 5418   8.088   5.046  10.824 -1.4635  0.6345  1.7645
62476SOL     OW 5419   5.872   2.489   8.473  0.1755  0.0148 -0.2064
62476SOL    HW1 5420   5.882   2.398   8.501 -0.6845 -0.1117 -0.2636
62476SOL    HW2 5421   5.961   2.519   8.457  0.7080 -0.0477  2.2287
62477SOL     OW 5422   0.678   7.496  13.780  0.3185  0.1201  0.0594
62477SOL    HW1 5423   0.744   7.563  13.794  1.5760 -0.9728 -0.4433
62477SOL    HW2 5424   0.602   7.526  13.830  1.0594  1.5700  0.3716
62478SOL     OW 5425   8.191   0.537   7.060  0.3814 -0.3897 -0.0605
62478SOL    HW1 5426   8.202   0.608   7.123 -0.4902  0.3096 -0.6782
62478SOL    HW2 5427   8.217   0.458   7.108 -1.0469  0.0152  1.4474
62479SOL     OW 5428   3.370  11.146   2.080  0.3603  0.1736  0.2413
62479SOL    HW1 5429   3.373  11.054   2.053 -0.0479  0.5103 -1.0070
62479SOL    HW2 5430   3.298  11.151   2.143  0.3008 -0.3304  0.2151
62480SOL     OW 5431   1.046   5.444  13.969 -0.3367 -0.3383 -0.5531
62480SOL    HW1 5432   1.080   5.503  14.037  1.7080 -1.0727 -0.8712
62480SOL    HW2 5433   0.991   5.382  14.016  0.0608 -0.0872  0.2633
62481SOL     OW 5434  11.208  10.855   5.941  0.1964  0.3209 -0.3238
62481SOL    HW1 5435  11.179  10.779   5.992 -0.2501 -0.2950 -1.4678
62481SOL    HW2 5436  11.128  10.905   5.926  0.6585  1.7111  1.4655
62482SOL     OW 5437   1.729  10.984  10.819  0.2565 -0.1835  0.3338
62482SOL    HW1 5438   1.682  11.067  10.826  0.6077  0.0464 -0.0233
62482SOL    HW2 5439   1.746  10.959  10.909 -0.2085 -0.0722  0.4580
62483SOL     OW 5440   8.441   7.051   8.873  0.2800 -0.3372  0.1327
62483SOL    HW1 5441   8.387   7.086   8.802  2.5397  1.5303 -0.7932
62483SOL    HW2 5442   8.427   6.956   8.868 -1.6116 -0.0617 -1.0915
62484SOL     OW 5443   9.175   2.692   6.306 -0.1743 -0.0820  0.0719
62484SOL    HW1 5444   9.210   2.630   6.241 -0.3963  0.2615 -0.3853
62484SOL    HW2 5445   9.248   2.708   6.366  0.3093  0.2433 -0.5825
62485SOL     OW 5446   4.012   4.348   4.923  0.0685  0.6374 -0.4985
62485SOL    HW1 5447   4.086   4.327   4.980  0.3516  1.5109 -0.5362
62485SOL    HW2 5448   4.014   4.281   4.855  0.3860  0.2293 -0.0929
62486SOL     OW 5449  13.709   0.867   3.523 -0.4252  0.0772 -0.2408
62486SOL    HW1 5450  13.765   0.933   3.482  1.3764 -1.3668 -0.2600
62486SOL    HW2 5451  13.697   0.801   3.454  0.8106 -1.3124  0.8038
62487SOL     OW 5452   7.585   3.112   9.847  0.1836 -0.2603  0.1890
62487SOL    HW1 5453   7.643   3.070   9.782  0.4481  1.2765 -0.6195
62487SOL    HW2 5454   7.601   3.064   9.928  0.2271 -1.9074 -0.7558
62488SOL     OW 5455   0.096   4.957  13.979 -0.4947  0.5613 -0.1436
62488SOL    HW1 5456   0.065   5.004  14.056  0.3788  0.8573  0.0415
62488SOL    HW2 5457   0.191   4.970  13.980 -0.2912 -0.7868 -0.3705
62489SOL     OW 5458   8.444   8.125   1.304 -0.4665 -0.2949  0.7541
62489SOL    HW1 5459   8.457   8.138   1.210 -1.0376 -2.4238  0.3400
62489SOL    HW2 5460   8.518   8.171   1.345 -0.2841  0.7767 -0.6918
62490SOL     OW 5461   6.283   7.720   0.128  0.1276  0.1976 -0.4965
62490SOL    HW1 5462   6.320   7.752   0.045  2.2933  0.3307  0.4573
62490SOL    HW2 5463   6.325   7.774   0.195 -1.7304  0.2224  0.7101
62491SOL     OW 5464   9.270   4.883  10.016  0.1147  0.0423 -0.1937
62491SOL    HW1 5465   9.356   4.860  10.053 -0.1599  1.7478  1.7342
62491SOL    HW2 5466   9.215   4.896  10.093 -2.2131 -1.9318 -1.3870
62492SOL     OW 5467   2.088   6.015   9.887 -0.1467  0.2028 -0.2371
62492SOL    HW1 5468   2.026   6.083   9.911 -0.3981 -0.0460 -0.1763
62492SOL    HW2 5469   2.073   5.945   9.951  0.1335  0.1051 -0.2753
62493SOL     OW 5470   4.673  14.006   5.211  0.0184 -0.4346  0.6484
62493SOL    HW1 5471   4.662  14.092   5.170 -0.7694 -1.2566 -0.9861
62493SOL    HW2 5472   4.584  13.975   5.226  0.2643 -1.3102  0.3908
62494SOL     OW 5473  10.824   7.169  10.747  0.4550  0.0901 -0.9517
62494SOL    HW1 5474  10.836   7.262  10.765 -0.5720 -0.1859  1.6197
62494SOL    HW2 5475  10.913   7.135  10.739  0.9942  0.7995  1.2995
62495SOL     OW 5476   2.328  11.740   0.812 -0.7432 -0.8109 -0.0209
62495SOL    HW1 5477   2.343  11.788   0.893 -1.0082  0.5847 -0.7680
62495SOL    HW2 5478   2.414  11.735   0.771 -0.5720 -1.6956  0.4250
62496SOL     OW 5479   2.760  13.894   7.804 -0.1455  0.2724 -0.7600
62496SOL    HW1 5480   2.853  13.875   7.787 -0.2801  1.0614 -2.7402
62496SOL    HW2 5481   2.713  13.840   7.741 -0.9439  0.9881 -0.7910
62497SOL     OW 5482  10.927   9.783   3.761 -0.0335 -0.4438  0.2982
62497SOL    HW1 5483  10.985   9.842   3.713  1.1987 -1.1354  0.8765
62497SOL    HW2 5484  10.881   9.734   3.694 -0.3154  0.4498 -0.1760
62498SOL     OW 5485   9.669  10.809  11.628 -0.0264  0.4205  0.2501
62498SOL    HW1 5486   9.654  10.903  11.637 -0.1701  0.4444 -0.2326
62498SOL    HW2 5487   9.670  10.794  11.534  1.9779  0.2645  0.2532
62499SOL     OW 5488   2.634  12.607   8.300 -0.1814 -0.0729 -0.4810
62499SOL    HW1 5489   2.598  12.519   8.298 -0.5126  0.0242  0.5155
62499SOL    HW2 5490   2.629  12.637   8.209  0.3464 -1.2289 -0.9107
62500SOL     OW 5491   9.677   7.268  11.453 -0.5164  0.0773 -0.2672
62500SOL    HW1 5492   9.655   7.240  11.542  0.7654  3.0236  1.1236
62500SOL    HW2 5493   9.721   7.192  11.414 -0.7740 -1.1679  1.7364
62501SOL     OW 5494   1.051   2.818   8.833 -0.1371 -0.4082 -0.4088
62501SOL    HW1 5495   1.129   2.873   8.841  0.7651 -1.5292 -1.2515
62501SOL    HW2 5496   0.984   2.865   8.883  1.3719 -0.0043  1.3375
62502SOL     OW 5497   8.529   6.865   4.857  0.6320  0.2726 -0.3655
62502SOL    HW1 5498   8.495   6.783   4.822 -0.2070 -0.0623  1.1214
62502SOL    HW2 5499   8.509   6.930   4.790 -0.7989 -0.3559 -0.5875
62503SOL     OW 5500   4.835   7.758  12.979 -0.0799 -0.5659 -0.1499
62503SOL    HW1 5501   4.752   7.788  12.942 -0.6469  0.2608  1.6395
62503SOL    HW2 5502   4.855   7.677  12.932 -1.2926 -0.1689 -1.4228
62504SOL     OW 5503  12.644  10.337   4.694  0.0411  0.0060  0.4895
62504SOL    HW1 5504  12.618  10.247   4.678 -0.4329  0.2610 -0.2163
62504SOL    HW2 5505  12.574  10.390   4.655  1.3621  0.7113 -1.0487
62505SOL     OW 5506   9.451  12.127   7.756 -0.0752 -0.0574  0.3775
62505SOL    HW1 5507   9.511  12.201   7.749  1.4800 -1.4075 -1.4520
62505SOL    HW2 5508   9.500  12.061   7.804  0.0754 -1.2960 -1.4096
62506SOL     OW 5509  14.144   4.568   9.480 -0.2865  0.6444 -0.1904
62506SOL    HW1 5510  14.205   4.543   9.411 -0.4025 -0.7039  0.1494
62506SOL    HW2 5511  14.186   4.537   9.561 -0.3775  1.7498  0.2939
62507SOL     OW 5512  12.447   1.791   5.080 -0.3228 -0.5037 -0.2778
62507SOL    HW1 5513  12.532   1.777   5.040 -0.0983 -2.2523  0.6895
62507SOL    HW2 5514  12.404   1.857   5.025  1.7330  0.6219 -0.6000
62508SOL     OW 5515  10.741  10.060  12.334 -0.3567  0.9456 -0.1217
62508SOL    HW1 5516  10.779  10.062  12.422 -1.4809 -0.0917  0.4238
62508SOL    HW2 5517  10.650  10.087  12.348 -0.7866 -0.0834 -0.8186
62509SOL     OW 5518   4.932   3.620   0.535  0.0920 -0.0920 -0.1382
62509SOL    HW1 5519   4.862   3.614   0.600 -1.5577  2.3694 -1.4692
62509SOL    HW2 5520   4.991   3.687   0.570  2.0410 -2.3003  1.0748
62510SOL     OW 5521   5.107   7.279   3.627 -0.4127 -0.7415  0.1331
62510SOL    HW1 5522   5.120   7.236   3.543  0.8476 -0.7638  0.3258
62510SOL    HW2 5523   5.190   7.269   3.673 -0.7034  0.2752  0.9264
62511SOL     OW 5524   4.036   8.422   1.460  0.1578 -0.2984  0.0502
62511SOL    HW1 5525   4.011   8.339   1.418 -1.6305  0.4460 -0.4495
62511SOL    HW2 5526   4.038   8.485   1.388  1.2967  0.1560  0.4617
62512SOL     OW 5527   6.962  13.250   1.872 -0.3890 -0.1989  0.3275
62512SOL    HW1 5528   7.044  13.270   1.918  1.1242  0.0638 -2.2814
62512SOL    HW2 5529   6.971  13.159   1.845  0.3593  0.5515 -2.2793
62513SOL     OW 5530   0.501   9.862   1.058  0.3292  0.0864 -0.2923
62513SOL    HW1 5531   0.523   9.772   1.084  0.4640 -0.1725 -1.2731
62513SOL    HW2 5532   0.565   9.883   0.990  0.9126  1.2826  0.5954
62514SOL     OW 5533   8.477   5.832   2.117  0.2201  0.1616  0.0653
62514SOL    HW1 5534   8.527   5.780   2.180 -1.3897 -1.1775  0.3044
62514SOL    HW2 5535   8.493   5.789   2.033  0.2151  0.2990 -0.0057
62515SOL     OW 5536  11.617   4.499   0.995 -0.2123  0.9069 -0.3694
62515SOL    HW1 5537  11.537   4.512   0.944  0.2692 -0.4028 -1.5076
62515SOL    HW2 5538  11.679   4.461   0.933  0.9727  0.9363  0.7590
62516SOL     OW 5539  11.432   6.369  10.265  0.3099  0.5994 -0.1359
62516SOL    HW1 5540  11.384   6.286  10.263 -0.0073  0.7635  0.5526
62516SOL    HW2 5541  11.490   6.365  10.189 -2.1384  1.2124 -2.1827
62517SOL     OW 5542   6.034   6.356  13.074  0.2617  0.5077  0.1560
62517SOL    HW1 5543   6.110   6.337  13.130 -0.1536  1.6394  1.1546
62517SOL    HW2 5544   6.035   6.287  13.009  1.0892 -0.5632  1.2479
62518SOL     OW 5545   0.424   5.208   8.756  0.0753 -0.2389 -0.3115
62518SOL    HW1 5546   0.389   5.149   8.690 -2.2341 -0.1330  0.7133
62518SOL    HW2 5547   0.448   5.151   8.829 -1.8331 -0.0389  0.5430
62519SOL     OW 5548  13.922   6.048   8.268  0.0556 -0.1348 -0.2883
62519SOL    HW1 5549  13.831   6.025   8.284 -0.0605  0.8972  0.6143
62519SOL    HW2 5550  13.919   6.113   8.198  0.2198 -1.0939 -1.2181
62520SOL     OW 5551  12.029   0.192   0.370 -0.1676  0.1222  0.7332
62520SOL    HW1 5552  11.997   0.119   0.424  0.0200 -0.2931  0.2983
62520SOL    HW2 5553  12.124   0.184   0.375 -0.1210  0.9852  1.5330
62521SOL     OW 5554   5.847  11.728   9.188 -0.1503  0.4002 -0.0251
62521SOL    HW1 5555   5.912  11.771   9.132  0.7104  0.2381  0.8008
62521SOL    HW2 5556   5.773  11.710   9.131  1.6033 -1.9288 -1.7642
62522SOL     OW 5557   2.124   7.346  10.960 -0.3174  0.1753 -0.2062
62522SOL    HW1 5558   2.080   7.262  10.976  1.1895 -0.3538  1.4807
62522SOL    HW2 5559   2.074   7.409  11.012  0.2123 -0.2130  0.7912
62523SOL     OW 5560   3.680   2.057  11.869 -0.5891 -0.9754  0.2152
62523SOL    HW1 5561   3.613   2.029  11.806  0.2524  0.4091 -1.3714
62523SOL    HW2 5562   3.664   2.150  11.881  0.5505 -0.7938  0.4443
62524SOL     OW 5563   1.023   1.262   9.588  0.1557 -0.1285  0.4035
62524SOL    HW1 5564   1.006   1.171   9.615 -0.3259  0.0168  0.5984
62524SOL    HW2 5565   1.118   1.268   9.585  0.1970 -0.5604  0.6828
62525SOL     OW 5566  13.172  13.838   8.127  0.3292  0.3220  0.2454
62525SOL    HW1 5567  13.081  13.811   8.120  0.4631  0.2105 -1.3638
62525SOL    HW2 5568  13.186  13.849   8.221 -1.2325  0.0035  0.5480
62526SOL     OW 5569   4.760   7.538  11.827  0.1202 -0.0235  0.1894
62526SOL    HW1 5570   4.737   7.614  11.881  0.8092 -0.1119  0.6310
62526SOL    HW2 5571   4.747   7.567  11.737  2.0513  1.2334  0.2580
62527SOL     OW 5572   3.894   6.956   8.439 -0.5484  1.1695 -0.3967
62527SOL    HW1 5573   3.975   7.005   8.425  0.7276 -0.1217  1.8543
62527SOL    HW2 5574   3.835   7.018   8.482 -0.1273  1.6280 -0.4740
62528SOL     OW 5575   4.455   2.553  10.313  0.2579 -0.0773  0.1916
62528SOL    HW1 5576   4.474   2.471  10.358  0.4473 -1.3199 -2.0204
62528SOL    HW2 5577   4.540   2.595  10.304  0.3378 -0.2259  0.2451
62529SOL     OW 5578  13.200   0.757   8.097  0.0909  0.3492 -0.0603
62529SOL    HW1 5579  13.253   0.785   8.023 -2.6026  1.9905 -1.5085
62529SOL    HW2 5580  13.137   0.696   8.060 -0.5643  0.2731  1.1172
62530SOL     OW 5581   0.595   8.797   1.479 -0.2712  0.1664  0.4622
62530SOL    HW1 5582   0.550   8.753   1.408 -1.3461  1.3812  0.3424
62530SOL    HW2 5583   0.532   8.864   1.509  1.1238  1.3418  0.8678
62531SOL     OW 5584   1.299  13.358  12.445  0.0535 -0.0710  0.0804
62531SOL    HW1 5585   1.353  13.328  12.371 -0.1302 -1.5934  0.5148
62531SOL    HW2 5586   1.239  13.285  12.462 -0.7062  0.7276  0.9865
62532SOL     OW 5587   3.597  11.136   9.830 -0.3503 -0.7214  0.5835
62532SOL    HW1 5588   3.536  11.090   9.772 -0.1356  0.5415 -0.6960
62532SOL    HW2 5589   3.599  11.226   9.798  1.5956 -0.5406  1.0501
62533SOL     OW 5590   0.580   1.627  14.155  0.0508 -0.2831  0.2331
62533SOL    HW1 5591   0.549   1.645  14.067 -1.9615 -0.1293  0.9213
62533SOL    HW2 5592   0.586   1.713  14.197  0.8589 -0.3655  0.3019
62534SOL     OW 5593   5.042  12.179   8.757 -0.3105 -0.2431  0.4662
62534SOL    HW1 5594   4.963  12.130   8.779 -1.1590  0.6898 -0.4165
62534SOL    HW2 5595   5.031  12.263   8.802 -0.1674  0.1538 -0.2200
62535SOL     OW 5596   7.053   0.154   7.072  0.0950 -0.3315  0.0745
62535SOL    HW1 5597   6.997   0.076   7.073 -2.5311  1.4056 -0.6933
62535SOL    HW2 5598   7.062   0.178   7.164 -0.5357 -0.6141  0.2176
62536SOL     OW 5599  10.316  13.449   2.909  0.4280  0.2743  0.0247
62536SOL    HW1 5600  10.383  13.503   2.867  0.3973  0.2890 -0.0043
62536SOL    HW2 5601  10.239  13.505   2.914  0.3394  0.1723 -0.1761
62537SOL     OW 5602  13.027  13.720   2.976 -0.2706 -0.0369 -0.2920
62537SOL    HW1 5603  13.017  13.648   2.914  1.9496  0.7395 -1.6587
62537SOL    HW2 5604  13.066  13.679   3.053  1.2887 -0.3081 -1.1866
62538SOL     OW 5605  11.433   6.659  11.061 -0.3537  0.5205  0.1161
62538SOL    HW1 5606  11.371   6.732  11.056 -0.0324  0.7171 -3.4512
62538SOL    HW2 5607  11.512   6.697  11.099 -1.6619  0.7197  2.9318
62539SOL     OW 5608  10.868   6.864   8.979  0.4012  0.1317  0.4121
62539SOL    HW1 5609  10.811   6.927   8.934 -0.0530 -0.9984 -0.6664
62539SOL    HW2 5610  10.933   6.839   8.913  0.6640 -0.4149  0.8692
62540SOL     OW 5611   6.853   4.201  11.007  0.2638  0.1054 -0.2780
62540SOL    HW1 5612   6.840   4.129  11.069  0.2387  1.5612  1.5043
62540SOL    HW2 5613   6.926   4.250  11.044  1.4273  0.0840 -2.3870
62541SOL     OW 5614  12.021  12.738   8.829  0.1185 -0.1634  0.2450
62541SOL    HW1 5615  12.101  12.702   8.789  0.9877  0.1010  1.7028
62541SOL    HW2 5616  11.956  12.669   8.815  1.2155 -1.4397  1.1013
62542SOL     OW 5617   6.007   1.986   6.855  0.6804 -0.3145  0.0476
62542SOL    HW1 5618   5.951   2.055   6.821  1.3440 -0.1776 -0.7933
62542SOL    HW2 5619   5.946   1.920   6.888  0.0371  0.3921  0.3124
62543SOL     OW 5620  13.187  11.079   0.791  0.0843 -0.1680  0.1101
62543SOL    HW1 5621  13.220  11.003   0.744 -1.3162 -0.0532 -1.1503
62543SOL    HW2 5622  13.124  11.119   0.731  0.5292  1.8083  0.8689
62544SOL     OW 5623   8.419   1.421  11.021 -0.1526 -0.1621  0.1564
62544SOL    HW1 5624   8.463   1.342  11.053 -1.7278 -0.9754  0.4212
62544SOL    HW2 5625   8.342   1.430  11.077 -0.6672  0.8517 -0.6760
62545SOL     OW 5626   4.058  10.762   0.560 -0.1672  0.2284 -0.2629
62545SOL    HW1 5627   4.078  10.722   0.645  1.2932  0.5801 -0.3994
62545SOL    HW2 5628   3.989  10.708   0.523 -0.3958 -0.2953  0.8940
62546SOL     OW 5629  10.864   9.609   6.608  0.2052  0.2058 -0.1696
62546SOL    HW1 5630  10.795   9.555   6.644 -0.3144  1.0733  0.1818
62546SOL    HW2 5631  10.914   9.639   6.685  1.6377 -1.2419 -0.4748
62547SOL     OW 5632   8.048   4.504   2.600 -0.4644 -0.2022 -0.7636
62547SOL    HW1 5633   8.041   4.415   2.633  1.1173  0.6854  2.4057
62547SOL    HW2 5634   8.141   4.516   2.581 -0.1188  1.4723  1.4943
62548SOL     OW 5635   0.221   2.743  13.547 -0.1155  0.5820  0.0667
62548SOL    HW1 5636   0.239   2.834  13.569  0.2683  0.5178  0.0199
62548SOL    HW2 5637   0.303   2.697  13.567 -0.5448  0.1219  0.8316
62549SOL     OW 5638   6.123   5.365  13.794  0.5875 -0.5283  0.1034
62549SOL    HW1 5639   6.086   5.318  13.720 -2.2024 -0.0979  1.1041
62549SOL    HW2 5640   6.110   5.458  13.774  0.1790 -0.3979  0.8925
62550SOL     OW 5641   3.559   8.995   9.112 -0.4552 -0.4052 -0.0438
62550SOL    HW1 5642   3.572   8.909   9.072  0.3850  0.4106 -1.6337
62550SOL    HW2 5643   3.623   8.997   9.184 -0.5383 -1.1162  0.0655
62551SOL     OW 5644   4.788   1.346  12.820  0.0493 -0.4337  0.3199
62551SOL    HW1 5645   4.862   1.331  12.879  0.5408 -0.3389 -0.2661
62551SOL    HW2 5646   4.824   1.394  12.746 -0.4623 -0.9442 -0.2802
62552SOL     OW 5647  12.075   0.849  10.377 -0.2379 -0.5418 -0.1308
62552SOL    HW1 5648  12.106   0.939  10.377 -0.4416 -0.4730  0.2748
62552SOL    HW2 5649  12.109   0.811  10.458 -0.6599 -0.6563 -0.0043
62553SOL     OW 5650   3.323   4.296   7.694  0.1964  0.2753  0.3188
62553SOL    HW1 5651   3.244   4.332   7.735  1.2646  3.8386 -0.4327
62553SOL    HW2 5652   3.394   4.320   7.753  1.2924  1.9586 -1.5683
62554SOL     OW 5653   0.819  13.535   1.593  0.5259  0.0502 -0.2109
62554SOL    HW1 5654   0.858  13.571   1.513 -0.4056 -1.2560 -1.2913
62554SOL    HW2 5655   0.734  13.577   1.601  0.7835  0.4863  0.3474
62555SOL     OW 5656  10.848   9.232   8.242 -0.5844  0.5138  0.7844
62555SOL    HW1 5657  10.815   9.152   8.202  0.7840 -0.9958  2.4826
62555SOL    HW2 5658  10.836   9.218   8.336  1.6583  1.3295  1.2570
62556SOL     OW 5659   5.753   3.013   5.259  0.3859  0.2855  0.1671
62556SOL    HW1 5660   5.784   2.939   5.311  0.3138  0.4660  0.4709
62556SOL    HW2 5661   5.749   2.980   5.169 -4.1570 -1.6740  0.7930
62557SOL     OW 5662   8.940   4.960   2.862 -0.0377  0.3162 -0.0758
62557SOL    HW1 5663   9.022   4.937   2.818  1.0266 -0.2146  2.0436
62557SOL    HW2 5664   8.956   4.939   2.954 -1.9610  1.8340  0.6664
62558SOL     OW 5665   4.518   7.450  13.584  0.0381 -0.6314 -0.0171
62558SOL    HW1 5666   4.571   7.522  13.549  0.6410 -1.6771 -1.3250
62558SOL    HW2 5667   4.433   7.459  13.540 -0.3499  0.0562  0.8369
62559SOL     OW 5668   9.324   7.983   8.724 -0.8140  0.0829 -0.4772
62559SOL    HW1 5669   9.307   8.075   8.705  0.5020  0.5835  0.5665
62559SOL    HW2 5670   9.419   7.979   8.740 -0.9585 -1.3177  0.1969
62560SOL     OW 5671  11.927   4.621   1.280 -0.0744 -0.0024 -0.1279
62560SOL    HW1 5672  12.000   4.642   1.221  0.3862 -1.6619 -0.1989
62560SOL    HW2 5673  11.922   4.526   1.278 -1.9678  0.0585  0.2474
62561SOL     OW 5674  13.316  10.529   5.327  0.2523 -0.9020 -0.8634
62561SOL    HW1 5675  13.318  10.509   5.421  0.7779 -0.1699 -0.7173
62561SOL    HW2 5676  13.394  10.582   5.311 -1.4432  1.6980 -1.0862
62562SOL     OW 5677   4.535   6.271   6.367 -0.2789 -0.5124  0.5074
62562SOL    HW1 5678   4.461   6.331   6.354  0.2374 -0.0948 -0.6824
62562SOL    HW2 5679   4.545   6.227   6.283  1.7870  0.5599  0.1272
62563SOL     OW 5680   4.749  11.416  11.620  0.0954 -0.6821  0.3059
62563SOL    HW1 5681   4.663  11.453  11.642 -0.6475 -1.0278 -1.7851
62563SOL    HW2 5682   4.729  11.341  11.563  1.8118  0.0264 -1.3283
62564SOL     OW 5683   2.910   2.401   4.247  0.3160 -0.2402 -0.1208
62564SOL    HW1 5684   2.988   2.418   4.194  0.8648 -0.7341  0.5080
62564SOL    HW2 5685   2.886   2.311   4.225 -0.2923  0.0213 -0.5678
62565SOL     OW 5686   9.930  12.972  10.733 -0.9189 -0.1659  0.2652
62565SOL    HW1 5687   9.868  12.900  10.745 -1.0598 -0.3260 -1.1907
62565SOL    HW2 5688   9.876  13.044  10.700 -0.5215  0.0455  0.0701
62566SOL     OW 5689  11.104   3.088   0.396 -0.0428  0.6690 -0.0907
62566SOL    HW1 5690  11.127   2.996   0.386 -0.3214  0.3133  2.0637
62566SOL    HW2 5691  11.171   3.124   0.454 -1.1391  1.2658  0.8445
62567SOL     OW 5692   1.128   9.582   9.056  0.1818 -0.5629  0.7787
62567SOL    HW1 5693   1.088   9.656   9.102  2.2895  1.4672 -0.4584
62567SOL    HW2 5694   1.053   9.535   9.019 -1.3156  0.0666  2.7580
62568SOL     OW 5695   7.443   0.704  11.662 -0.0404 -0.5097 -0.2811
62568SOL    HW1 5696   7.414   0.671  11.747  1.3740 -0.2955  0.3205
62568SOL    HW2 5697   7.415   0.638  11.599  0.9094 -1.8492  0.6458
62569SOL     OW 5698   3.755   2.557  13.746 -0.3290  0.2999 -0.0770
62569SOL    HW1 5699   3.780   2.485  13.687  0.1805 -0.6983  1.3039
62569SOL    HW2 5700   3.708   2.514  13.817 -3.1822  1.7655 -0.9173
62570SOL     OW 5701   8.671   7.632   5.228 -0.1305  0.5975 -0.2360
62570SOL    HW1 5702   8.753   7.622   5.276  0.6540  2.3324 -1.1333
62570SOL    HW2 5703   8.611   7.671   5.291 -0.3211 -0.7444  0.4449
62571SOL     OW 5704   4.330   9.658  13.316  0.4097 -0.7699  0.0966
62571SOL    HW1 5705   4.318   9.649  13.411  0.6406  2.3352  0.5140
62571SOL    HW2 5706   4.424   9.644  13.302  0.6107  0.0997  0.5377
62572SOL     OW 5707   3.333   1.738  10.857 -0.0336  0.3082  0.1674
62572SOL    HW1 5708   3.415   1.785  10.872  0.6202 -0.6172 -0.3718
62572SOL    HW2 5709   3.353   1.647  10.880 -0.1471 -0.4117 -2.2331
62573SOL     OW 5710  12.280   6.455   5.085 -0.0114 -0.2024 -0.2117
62573SOL    HW1 5711  12.350   6.500   5.132  0.4939 -0.3429 -0.8172
62573SOL    HW2 5712  12.203   6.511   5.097  0.0051 -0.4131  1.0727
62574SOL     OW 5713   8.936  11.183  11.691  0.7698  0.0161 -0.9417
62574SOL    HW1 5714   9.006  11.246  11.678  0.5491  0.3439 -0.5731
62574SOL    HW2 5715   8.865  11.234  11.730  1.7076 -1.0047  2.5157
62575SOL     OW 5716   8.188   2.721   4.326  0.2881  0.0089  0.5157
62575SOL    HW1 5717   8.248   2.660   4.285  0.1149  0.2730 -0.1321
62575SOL    HW2 5718   8.111   2.667   4.349  0.3987 -0.1427  0.5309
62576SOL     OW 5719   4.409   7.965   9.026  0.3964  0.1069  0.0482
62576SOL    HW1 5720   4.436   7.958   9.118 -0.8059  1.9110  0.5945
62576SOL    HW2 5721   4.333   7.907   9.020  0.7169 -0.3228  0.0782
62577SOL     OW 5722   2.012   1.566   7.876  0.1777 -0.2735  0.4527
62577SOL    HW1 5723   2.080   1.506   7.843 -1.3369 -1.5465 -0.5387
62577SOL    HW2 5724   2.056   1.650   7.883  1.7459 -0.9378 -0.6417
62578SOL     OW 5725  12.227   8.300   1.087 -1.2550 -0.0124  0.0119
62578SOL    HW1 5726  12.278   8.372   1.124 -0.1469 -1.3230  1.1794
62578SOL    HW2 5727  12.142   8.338   1.066 -0.5767  1.7040  0.2149
62579SOL     OW 5728   9.116   8.426   1.483 -0.6202 -0.1243 -0.3577
62579SOL    HW1 5729   9.167   8.506   1.488 -1.3817  0.3699 -0.2677
62579SOL    HW2 5730   9.103   8.411   1.389 -0.4110 -0.1921 -0.3766
62580SOL     OW 5731  14.085   6.267   3.807  0.5457  0.3597 -0.2047
62580SOL    HW1 5732  14.050   6.346   3.765  1.3054  0.7288 -0.1485
62580SOL    HW2 5733  14.075   6.199   3.740  0.3746  0.6137 -0.4457
62581SOL     OW 5734   4.971   9.133  11.831 -0.3447  0.1061 -0.0513
62581SOL    HW1 5735   5.019   9.051  11.827 -1.0459 -0.3186  0.2270
62581SOL    HW2 5736   4.914   9.125  11.907 -1.0934  0.4768 -0.5626
62582SOL     OW 5737   1.585  10.338  11.107  0.0728  0.1712  0.3264
62582SOL    HW1 5738   1.508  10.314  11.056 -1.6474  0.8628  2.4296
62582SOL    HW2 5739   1.659  10.320  11.050 -1.7212  1.8406 -2.7763
62583SOL     OW 5740   7.132   5.731  13.613 -0.3277  0.1329 -0.0218
62583SOL    HW1 5741   7.164   5.644  13.588  0.4362  0.5814 -0.6465
62583SOL    HW2 5742   7.203   5.768  13.666 -0.0100  0.9375 -0.9859
62584SOL     OW 5743   0.760   8.991   9.781 -0.2939 -0.2956 -0.0941
62584SOL    HW1 5744   0.797   8.997   9.869 -1.0628 -1.7160  0.3505
62584SOL    HW2 5745   0.796   9.067   9.735  1.3857 -0.3901  0.9657
62585SOL     OW 5746   2.294   4.995   0.732 -0.0189 -0.3952  0.4235
62585SOL    HW1 5747   2.244   4.924   0.772  0.9578 -1.5612 -0.3283
62585SOL    HW2 5748   2.250   5.075   0.760 -1.2220 -1.2997  1.2101
62586SOL     OW 5749   4.795  12.132   3.403  0.7859 -0.3729 -0.1783
62586SOL    HW1 5750   4.738  12.079   3.460  2.3980 -1.4657  0.4985
62586SOL    HW2 5751   4.787  12.091   3.317 -1.0675  0.8127 -0.6235
62587SOL     OW 5752  12.197   4.019   7.134 -0.3564 -0.9539 -0.0552
62587SOL    HW1 5753  12.261   4.024   7.063  1.4021 -0.8956  1.4521
62587SOL    HW2 5754  12.127   4.079   7.107  0.9839  0.2477 -1.0659
62588SOL     OW 5755   7.072   1.759   7.133 -0.4545  0.4079 -0.0331
62588SOL    HW1 5756   7.011   1.809   7.187 -0.2719  0.5490  0.0438
62588SOL    HW2 5757   7.158   1.775   7.173 -0.5740 -1.1885  0.9303
62589SOL     OW 5758   1.503   9.966   0.689  0.6286  0.6204  0.2790
62589SOL    HW1 5759   1.523   9.910   0.614 -1.9720  0.1055 -0.1194
62589SOL    HW2 5760   1.496   9.906   0.763 -1.0124  0.5098  0.0720
62590SOL     OW 5761   0.784   7.746  13.849  0.5759  0.5706 -0.2165
62590SOL    HW1 5762   0.757   7.766  13.939  1.2674  0.2608  0.0633
62590SOL    HW2 5763   0.873   7.780  13.842  0.6723  0.2385 -0.6682
62591SOL     OW 5764   1.332   0.505   6.520  0.3938  0.5320  0.8036
62591SOL    HW1 5765   1.354   0.587   6.564  1.2193  0.6384  0.2396
62591SOL    HW2 5766   1.355   0.522   6.428 -2.3556  0.7245  0.0769
62592SOL     OW 5767  11.243  10.457  12.034 -0.0279  0.8307  0.1470
62592SOL    HW1 5768  11.326  10.497  12.058  0.5631  0.9377 -1.8363
62592SOL    HW2 5769  11.188  10.464  12.112  1.9309  0.4387  1.6242
62593SOL     OW 5770   7.831  12.680   7.957 -1.1919  0.3809 -0.1509
62593SOL    HW1 5771   7.851  12.744   8.026 -0.1097 -1.2897  1.1535
62593SOL    HW2 5772   7.914  12.670   7.910 -0.2649 -2.5214  1.8301
62594SOL     OW 5773   3.699   6.315   9.011 -0.7353  0.4014  0.3060
62594SOL    HW1 5774   3.648   6.372   8.954  1.9294  1.6805 -0.9935
62594SOL    HW2 5775   3.741   6.374   9.073  0.8712 -0.2730 -0.0824
62595SOL     OW 5776   5.390   9.797  10.024  0.4382 -0.3907 -0.3353
62595SOL    HW1 5777   5.465   9.855  10.036 -0.2863  0.8666 -1.4940
62595SOL    HW2 5778   5.346   9.832   9.947 -1.0277 -1.4390 -0.0090
62596SOL     OW 5779   6.993  12.490  12.602  0.0737 -0.2291 -0.1641
62596SOL    HW1 5780   6.907  12.510  12.638  0.1731 -0.5593  0.2748
62596SOL    HW2 5781   6.988  12.517  12.511  0.6549  3.1525  0.6757
62597SOL     OW 5782  10.932  10.031   9.078  0.6865  0.7074  0.2407
62597SOL    HW1 5783  10.848  10.045   9.034 -0.5151 -1.6844  1.5775
62597SOL    HW2 5784  10.919  10.064   9.167  0.7200 -0.7091  0.8026
62598SOL     OW 5785   5.868  11.839   2.154 -0.2574 -0.4724 -0.4435
62598SOL    HW1 5786   5.842  11.751   2.183  3.2738 -2.0197 -1.3681
62598SOL    HW2 5787   5.855  11.894   2.231 -1.7913 -1.9565  0.4413
62599SOL     OW 5788   1.709   8.356  10.061 -0.2900 -0.7144  0.5389
62599SOL    HW1 5789   1.768   8.387   9.993  0.9341 -1.1081  1.3713
62599SOL    HW2 5790   1.699   8.431  10.120 -2.1414 -0.0549 -0.5475
62600SOL     OW 5791  11.335   4.659   7.921 -1.0682 -0.6659  0.0136
62600SOL    HW1 5792  11.371   4.593   7.861  2.7013  2.9467 -2.2262
62600SOL    HW2 5793  11.259   4.694   7.875 -0.6653 -0.7241 -0.7124
62601SOL     OW 5794   2.207   8.985  10.135  0.6300  0.1267  0.7348
62601SOL    HW1 5795   2.163   9.065  10.166 -0.5690 -0.6824  1.1818
62601SOL    HW2 5796   2.142   8.942  10.079  1.9255  0.3710 -1.0405
62602SOL     OW 5797   0.086   7.978   1.259 -0.6281  0.0256 -0.2172
62602SOL    HW1 5798   0.007   8.033   1.263 -0.6563 -0.0409  0.2290
62602SOL    HW2 5799   0.086   7.942   1.170 -0.7820  0.4939 -0.4102
62603SOL     OW 5800   6.852   1.374  13.231 -0.1948  0.5109  0.7354
62603SOL    HW1 5801   6.872   1.289  13.270 -3.9569 -0.6891  0.3841
62603SOL    HW2 5802   6.900   1.437  13.286  2.0399 -1.6836  1.5022
62604SOL     OW 5803   9.836   8.233   3.389  0.6492 -0.2466 -0.4251
62604SOL    HW1 5804   9.753   8.274   3.363 -0.3019 -0.4792  2.0337
62604SOL    HW2 5805   9.831   8.145   3.352 -1.1032 -0.8913  1.1929
62605SOL     OW 5806   1.032   5.040   7.086 -0.2044 -0.0968  0.1030
62605SOL    HW1 5807   0.943   5.071   7.068 -0.9654 -2.4588 -0.6583
62605SOL    HW2 5808   1.089   5.105   7.045 -1.7060 -0.2186 -2.4117
62606SOL     OW 5809   2.478  10.746  13.737 -0.6210 -0.2769  0.3994
62606SOL    HW1 5810   2.507  10.682  13.672 -0.3889 -1.3626  1.5310
62606SOL    HW2 5811   2.542  10.740  13.807  0.2263  2.2648 -0.0603
62607SOL     OW 5812   2.779   1.002  12.736 -0.3381  0.0429  0.0062
62607SOL    HW1 5813   2.827   0.991  12.654 -0.4866  3.2207 -0.6333
62607SOL    HW2 5814   2.821   1.077  12.779 -2.7232  0.9770  0.8884
62608SOL     OW 5815   6.684   7.268  10.253  0.2268  0.3317 -0.1151
62608SOL    HW1 5816   6.638   7.352  10.248  0.4981  0.4390 -1.1812
62608SOL    HW2 5817   6.645   7.216  10.183 -0.9989 -1.0079  1.4827
62609SOL     OW 5818   8.177   3.370   1.225  0.0282 -0.5807  0.6113
62609SOL    HW1 5819   8.183   3.344   1.317 -0.6707 -1.9308  0.2988
62609SOL    HW2 5820   8.230   3.305   1.178 -0.5798 -0.6065 -0.0548
62610SOL     OW 5821  12.275   1.689   5.808 -0.2493  0.2067  0.5219
62610SOL    HW1 5822  12.197   1.744   5.824 -0.4493  0.1918 -0.3525
62610SOL    HW2 5823  12.304   1.715   5.721  1.1132  0.6646  1.0918
62611SOL     OW 5824   4.235   4.056  11.254 -0.0703  0.3218  0.3037
62611SOL    HW1 5825   4.188   4.093  11.329  0.3869  0.1000  0.7036
62611SOL    HW2 5826   4.225   3.962  11.263  0.8366  0.2554  0.6466
62612SOL     OW 5827   2.712   8.855   9.971 -0.1674 -0.4206  0.2987
62612SOL    HW1 5828   2.639   8.824   9.918  0.8439 -3.0934  0.3388
62612SOL    HW2 5829   2.786   8.857   9.911  0.1040  0.7146  0.6444
62613SOL     OW 5830   6.998  13.136  10.155  0.4350 -0.7718  0.1744
62613SOL    HW1 5831   7.073  13.194  10.170  0.4407 -0.7860  0.2035
62613SOL    HW2 5832   7.037  13.049  10.145  0.4146 -0.7940  0.2863
62614SOL     OW 5833  11.673   2.007   7.846 -0.3591  0.9181  0.1847
62614SOL    HW1 5834  11.585   1.968   7.853 -0.1031  0.3276  0.1391
62614SOL    HW2 5835  11.728   1.953   7.902  0.1414  0.8049 -0.4056
62615SOL     OW 5836   8.958   7.176   7.151 -0.6286  0.1278  0.5061
62615SOL    HW1 5837   8.963   7.162   7.057 -2.3610 -0.0370  0.3927
62615SOL    HW2 5838   9.022   7.115   7.189 -0.0468  0.0716 -0.5486
62616SOL     OW 5839   8.051   0.023   6.122  0.2935 -0.2762 -0.1326
62616SOL    HW1 5840   8.145   0.003   6.127  0.3647 -0.9909 -2.8946
62616SOL    HW2 5841   8.037   0.052   6.032 -2.4319 -1.8543 -0.3221
62617SOL     OW 5842   6.785  10.194   8.252  0.7545  0.0295 -0.2450
62617SOL    HW1 5843   6.732  10.232   8.182  0.1475 -1.1204 -0.4325
62617SOL    HW2 5844   6.780  10.258   8.323 -1.8026 -0.5062  0.1367
62618SOL     OW 5845  13.479   5.317   8.584  0.3039 -0.7261  0.5293
62618SOL    HW1 5846  13.393   5.359   8.582  0.7081  0.2535  1.9349
62618SOL    HW2 5847  13.541   5.389   8.566  0.8083 -1.7534 -2.4827
62619SOL     OW 5848   4.831  11.670   5.312  0.3172 -0.3220  0.2770
62619SOL    HW1 5849   4.759  11.644   5.370  0.0786 -0.3636 -0.0392
62619SOL    HW2 5850   4.865  11.588   5.278 -0.2332 -0.2474 -0.4740
62620SOL     OW 5851  14.000   9.519   7.796  0.4760 -0.3684 -0.2033
62620SOL    HW1 5852  13.965   9.558   7.875  0.3577 -1.2624  0.1981
62620SOL    HW2 5853  13.932   9.534   7.729  0.2245 -0.3001  0.0660
62621SOL     OW 5854   2.922   2.306   5.240 -0.4214 -0.0503 -0.0753
62621SOL    HW1 5855   2.840   2.325   5.193  1.0602  1.0060 -2.4055
62621SOL    HW2 5856   2.977   2.262   5.176  1.5188  0.9403  0.8321
62622SOL     OW 5857   7.022   0.424   7.251 -0.4212 -0.2489  0.6184
62622SOL    HW1 5858   6.999   0.353   7.312 -0.5112 -1.0546 -0.3235
62622SOL    HW2 5859   6.947   0.429   7.192 -0.8558  1.3214  1.2488
62623SOL     OW 5860  13.991  10.554   2.349  0.1075 -0.0075 -0.2715
62623SOL    HW1 5861  14.073  10.524   2.389  0.3844  1.7171  0.5910
62623SOL    HW2 5862  13.952  10.476   2.311  2.2880 -0.8322 -0.9514
62624SOL     OW 5863   4.337  13.385   5.626 -0.5498 -0.0581  0.3585
62624SOL    HW1 5864   4.282  13.446   5.575  1.8940  0.7772 -1.4678
62624SOL    HW2 5865   4.396  13.347   5.561 -0.9261 -3.2838  1.7302
62625SOL     OW 5866   6.732   2.706   6.521  0.1930  0.3569  0.9299
62625SOL    HW1 5867   6.759   2.707   6.613 -0.0386  1.1392  0.9920
62625SOL    HW2 5868   6.647   2.749   6.520 -1.0281 -1.9114  0.7003
62626SOL     OW 5869   2.602  13.224   2.260 -0.5164  0.1126  0.0522
62626SOL    HW1 5870   2.509  13.215   2.239 -0.6552  1.6059 -0.0867
62626SOL    HW2 5871   2.613  13.177   2.342 -1.5779  0.6392  0.5077
62627SOL     OW 5872  11.712  14.009  10.488  0.4543 -0.1446  0.1323
62627SOL    HW1 5873  11.770  14.063  10.541 -0.6358 -0.8478  2.1626
62627SOL    HW2 5874  11.628  14.054  10.491  0.1804 -0.6107 -0.3478
62628SOL     OW 5875   2.914   5.392   0.348  0.3109 -1.2230 -0.2393
62628SOL    HW1 5876   2.964   5.415   0.270 -1.3069 -2.2033 -1.6567
62628SOL    HW2 5877   2.885   5.302   0.332  1.2233 -2.0336  2.2401
62629SOL     OW 5878   4.065   7.532   5.994 -0.4510 -0.1679 -0.4299
62629SOL    HW1 5879   3.981   7.539   5.948 -1.3075 -0.9240  0.9651
62629SOL    HW2 5880   4.049   7.571   6.080  0.6282 -0.3449 -0.1309
62630SOL     OW 5881   4.995  12.020  10.579 -0.3877  0.6259  0.4592
62630SOL    HW1 5882   5.046  12.033  10.659 -0.4832  0.4351  0.5503
62630SOL    HW2 5883   5.041  12.072  10.513  0.6153 -0.4984  0.2509
62631SOL     OW 5884   2.320   3.666   4.052 -0.1294  0.3911  0.2966
62631SOL    HW1 5885   2.395   3.725   4.061  0.5774 -0.5275  0.7038
62631SOL    HW2 5886   2.302   3.636   4.142  0.1993 -0.7816 -0.0038
62632SOL     OW 5887   2.584  11.625   0.740  0.1398 -0.1616 -0.2521
62632SOL    HW1 5888   2.650  11.579   0.792 -0.7963 -1.4628 -0.1770
62632SOL    HW2 5889   2.591  11.585   0.653 -0.4032 -0.1557 -0.2979
62633SOL     OW 5890   8.158  13.628   0.857  1.4315  0.0062  0.2574
62633SOL    HW1 5891   8.157  13.539   0.892  0.3172  0.6698  2.0594
62633SOL    HW2 5892   8.109  13.622   0.775  0.3544 -0.8536  0.9327
62634SOL     OW 5893  11.682  11.616   9.686  0.4518  0.3059  0.3156
62634SOL    HW1 5894  11.694  11.710   9.679  1.3446  0.2110  0.5349
62634SOL    HW2 5895  11.715  11.594   9.773  1.0550 -0.3332 -0.0700
62635SOL     OW 5896  10.348   9.254  13.348  0.4256  0.2206  0.3611
62635SOL    HW1 5897  10.368   9.209  13.430 -1.3292 -0.7688  0.2975
62635SOL    HW2 5898  10.318   9.184  13.289  1.2970  0.9638 -1.0096
62636SOL     OW 5899  11.008   3.032   7.837  0.6407  0.3112  1.1540
62636SOL    HW1 5900  11.048   2.959   7.791 -0.2244  0.5858 -0.0772
62636SOL    HW2 5901  11.080   3.072   7.886  1.6439  0.1334 -0.1303
62637SOL     OW 5902  12.482   6.908  11.583  0.1499  0.1965  0.3515
62637SOL    HW1 5903  12.569   6.912  11.545  0.0058  2.6898  0.1443
62637SOL    HW2 5904  12.423   6.902  11.507  0.0332  1.5783  0.3090
62638SOL     OW 5905  10.404  12.227  13.342 -0.1231  0.4400  0.5852
62638SOL    HW1 5906  10.488  12.196  13.375  0.0651 -1.4085 -1.4196
62638SOL    HW2 5907  10.426  12.280  13.266 -0.7450 -0.1171 -0.0005
62639SOL     OW 5908  13.546  13.555  13.796 -0.2247 -0.3503 -0.2586
62639SOL    HW1 5909  13.582  13.643  13.804 -1.9593  0.3535  0.0046
62639SOL    HW2 5910  13.604  13.512  13.733  0.4858  1.0453 -0.5988
62640SOL     OW 5911  10.370   9.502   9.701 -0.1518  0.3684  0.3837
62640SOL    HW1 5912  10.349   9.444   9.774  0.3308 -0.5624 -0.1882
62640SOL    HW2 5913  10.295   9.561   9.694 -0.8421 -0.4570  0.7299
62641SOL     OW 5914   1.095  12.661   0.642  0.2225 -0.2849 -0.2244
62641SOL    HW1 5915   1.105  12.596   0.712 -0.9016  1.1765  1.3902
62641SOL    HW2 5916   1.028  12.721   0.675  0.6947  1.2881 -1.9606
62642SOL     OW 5917   0.210   8.335   8.521 -0.2307 -0.3262 -0.0256
62642SOL    HW1 5918   0.162   8.396   8.466 -0.7369 -0.3776  0.3468
62642SOL    HW2 5919   0.258   8.390   8.583  0.5218 -0.2585 -0.6463
62643SOL     OW 5920   4.598   1.698   0.332 -0.7231  0.0339 -0.4881
62643SOL    HW1 5921   4.644   1.676   0.251 -1.0991 -0.4649 -0.5717
62643SOL    HW2 5922   4.637   1.781   0.360  0.7138 -0.7088 -0.1741
62644SOL     OW 5923   5.002  11.021  10.977  0.1502  0.1464 -0.5222
62644SOL    HW1 5924   4.946  11.085  11.019  0.3751 -1.1277  1.8465
62644SOL    HW2 5925   4.963  10.936  10.998  0.1609 -0.6180 -3.1281
62645SOL     OW 5926   7.470   3.593   6.555 -0.3641 -0.3511  0.1715
62645SOL    HW1 5927   7.565   3.596   6.568 -0.4874  1.6099  1.0050
62645SOL    HW2 5928   7.437   3.546   6.632 -0.0851 -1.0527 -0.1291
62646SOL     OW 5929   1.864   2.156   2.080 -0.2892 -0.0353 -0.0436
62646SOL    HW1 5930   1.792   2.100   2.051 -0.9496  1.2778 -0.9990
62646SOL    HW2 5931   1.835   2.245   2.063  1.6348  0.5330 -0.6398
62647SOL     OW 5932  13.640   2.981   1.021 -0.2695  0.3902  0.4685
62647SOL    HW1 5933  13.577   3.050   1.001 -0.8930  0.1488  1.5694
62647SOL    HW2 5934  13.590   2.900   1.015  0.4640  0.0014 -0.8396
62648SOL     OW 5935   1.536  11.375   6.402  0.8451  0.0834 -0.6146
62648SOL    HW1 5936   1.499  11.463   6.399 -2.4045 -1.0906  0.9160
62648SOL    HW2 5937   1.596  11.378   6.476 -0.0364  0.7602  0.0975
62649SOL     OW 5938   5.699  11.057   7.335  0.4251 -0.0057 -0.4681
62649SOL    HW1 5939   5.736  11.094   7.415 -2.3577  1.3153  0.3506
62649SOL    HW2 5940   5.685  10.965   7.355 -0.2277  0.3092  0.6231
62650SOL     OW 5941   9.539   9.665  13.495  0.4701  0.3959  0.1227
62650SOL    HW1 5942   9.556   9.589  13.440 -0.7233 -0.0768  0.3858
62650SOL    HW2 5943   9.580   9.738  13.448 -0.9621  0.0950 -1.6846
62651SOL     OW 5944  13.645   5.449   4.056  0.2014 -0.2213  0.2524
62651SOL    HW1 5945  13.566   5.409   4.091 -0.2465  0.4382  0.0130
62651SOL    HW2 5946  13.698   5.375   4.025 -0.1357 -0.6918  0.7791
62652SOL     OW 5947   3.208  10.445   9.945  0.1633 -0.0904 -0.5442
62652SOL    HW1 5948   3.238  10.512   9.884  0.7166 -0.3444 -0.5552
62652SOL    HW2 5949   3.126  10.479   9.980 -0.4438 -0.1772 -1.8240
62653SOL     OW 5950  12.273  13.797   3.023  0.4838  0.7076  0.1723
62653SOL    HW1 5951  12.281  13.849   3.103  0.0115  1.9091 -0.5327
62653SOL    HW2 5952  12.190  13.750   3.033  0.6117  0.5597  0.5506
62654SOL     OW 5953   3.046   6.563   5.820 -0.1136 -0.5013  0.1961
62654SOL    HW1 5954   3.110   6.493   5.809  0.5114 -0.0541  0.9196
62654SOL    HW2 5955   3.031   6.568   5.914  0.6825  1.0529  0.2834
62655SOL     OW 5956   5.879   4.451  12.381  0.8298 -0.1106  0.4608
62655SOL    HW1 5957   5.805   4.480  12.328  0.3372 -3.1200 -0.7406
62655SOL    HW2 5958   5.840   4.395  12.448  1.8708 -0.3295  0.9107
62656SOL     OW 5959   6.809   5.756   7.104  0.0964 -0.0860  0.8232
62656SOL    HW1 5960   6.750   5.682   7.117 -1.4579  1.0156  0.3381
62656SOL    HW2 5961   6.812   5.768   7.009 -0.3004  0.9560  0.9308
62657SOL     OW 5962   8.811   6.338   1.410  0.1397 -0.4830  0.1960
62657SOL    HW1 5963   8.847   6.264   1.459 -1.4211 -0.5615  1.3287
62657SOL    HW2 5964   8.834   6.415   1.462 -0.4912 -0.4498  0.4423
62658SOL     OW 5965   0.488  13.358   7.214 -0.3728 -0.1346 -0.3013
62658SOL    HW1 5966   0.535  13.315   7.285 -0.6320  1.6472  1.0180
62658SOL    HW2 5967   0.551  13.419   7.177  0.0084 -1.5940 -2.1885
62659SOL     OW 5968   2.062   5.855  10.787  0.2412 -0.4498 -0.3000
62659SOL    HW1 5969   1.970   5.873  10.770  0.4130  0.0212 -0.7749
62659SOL    HW2 5970   2.062   5.776  10.841 -0.4597 -0.1314  0.1801
62660SOL     OW 5971   6.817   6.722   6.284 -0.3931  0.0130 -0.4398
62660SOL    HW1 5972   6.885   6.681   6.338 -0.4466 -0.5066 -0.7666
62660SOL    HW2 5973   6.757   6.761   6.348  0.7819  1.4452 -0.1434
62661SOL     OW 5974   5.124   1.328   1.639 -0.2638  0.5533  0.5058
62661SOL    HW1 5975   5.179   1.251   1.656 -0.3940  0.1764 -0.7129
62661SOL    HW2 5976   5.053   1.295   1.584 -0.4367  1.5090  0.1362
62662SOL     OW 5977   9.456   5.719   2.761  0.3676  0.1564 -0.5443
62662SOL    HW1 5978   9.513   5.772   2.706 -0.9574  1.2124 -0.9419
62662SOL    HW2 5979   9.373   5.767   2.764 -0.5274 -1.3401 -0.0178
62663SOL     OW 5980  11.547  10.726   9.783  0.3821 -0.5907 -0.3353
62663SOL    HW1 5981  11.486  10.793   9.813  0.9150 -0.3867  0.2972
62663SOL    HW2 5982  11.492  10.664   9.734 -0.9253 -2.0267  2.6972
62664SOL     OW 5983   1.413  13.870   9.622  0.2971  0.3255  0.7182
62664SOL    HW1 5984   1.435  13.778   9.634  0.1810  0.2474  0.3636
62664SOL    HW2 5985   1.318  13.871   9.613  0.3855  0.3297 -0.4476
62665SOL     OW 5986   3.390   9.576   5.798  0.3527 -0.1106  0.2768
62665SOL    HW1 5987   3.437   9.637   5.741  0.3932 -0.9420 -0.5926
62665SOL    HW2 5988   3.354   9.510   5.739 -1.1617  0.0081  1.0138
62666SOL     OW 5989   1.844   3.868   3.571 -0.0923  0.0930 -0.1049
62666SOL    HW1 5990   1.867   3.961   3.578 -1.6552  0.5211 -0.2251
62666SOL    HW2 5991   1.810   3.846   3.658 -0.3559 -0.1814 -0.2772
62667SOL     OW 5992   3.226  11.413  13.738 -0.0629  0.2805 -0.4122
62667SOL    HW1 5993   3.189  11.478  13.679  2.4431  2.5621  0.3726
62667SOL    HW2 5994   3.258  11.343  13.681 -2.0242  0.0681 -1.3209
62668SOL     OW 5995  10.918   9.335  11.464  0.0652  0.5381 -0.0099
62668SOL    HW1 5996  10.864   9.402  11.506  0.1355  0.7965 -0.3212
62668SOL    HW2 5997  10.964   9.292  11.536 -0.3311  0.5163  0.2319
62669SOL     OW 5998   1.430  10.111  14.139 -0.7345 -0.4673 -0.1539
62669SOL    HW1 5999   1.467  10.154  14.062 -2.9941  0.0087 -1.0557
62669SOL    HW2 6000   1.399  10.183  14.194 -1.3821 -0.8694  0.0098
62670SOL     OW 6001   8.906   4.657   1.418 -0.6399  0.0161 -0.7695
62670SOL    HW1 6002   8.842   4.638   1.487 -0.8088  1.7448 -0.4005
62670SOL    HW2 6003   8.940   4.571   1.392 -1.4637 -0.7606  0.6076
62671SOL     OW 6004   5.008   0.133   7.257  0.3798 -0.1958  0.1910
62671SOL    HW1 6005   5.069   0.061   7.241  0.9768  0.2171  0.5363
62671SOL    HW2 6006   4.958   0.106   7.334  0.2884 -0.4368  0.0463
62672SOL     OW 6007   8.303   0.524   1.798 -0.2924 -0.0522 -0.0195
62672SOL    HW1 6008   8.255   0.569   1.728  0.6487  1.2185  0.1145
62672SOL    HW2 6009   8.258   0.550   1.878 -1.2868 -1.3998 -0.1113
62673SOL     OW 6010   5.829  12.636  12.897 -0.1667 -0.1001 -0.1957
62673SOL    HW1 6011   5.773  12.592  12.832 -1.7434 -0.2892  1.2113
62673SOL    HW2 6012   5.799  12.601  12.981 -0.0994  2.1902  0.8338
62674SOL     OW 6013  13.252   5.227  10.314 -0.0681 -0.4044  0.5614
62674SOL    HW1 6014  13.156   5.220  10.314 -0.0590 -0.6858 -0.5571
62674SOL    HW2 6015  13.277   5.207  10.404 -1.1591  1.2901  1.2846
62675SOL     OW 6016   6.190   4.138   9.040 -0.1190 -0.1031 -0.2071
62675SOL    HW1 6017   6.109   4.130   8.991  0.2950  0.8590 -1.1038
62675SOL    HW2 6018   6.253   4.085   8.991 -0.0804 -0.4481  0.2072
62676SOL     OW 6019   2.886   3.130  12.797 -0.1719 -0.3664 -0.5210
62676SOL    HW1 6020   2.823   3.154  12.729 -1.6740 -0.8467  0.6339
62676SOL    HW2 6021   2.971   3.156  12.762 -1.0696  0.8524 -1.9025
62677SOL     OW 6022   9.553  11.449  10.667 -0.3684  0.2848  0.1521
62677SOL    HW1 6023   9.515  11.391  10.733 -0.8778 -1.3892 -1.5138
62677SOL    HW2 6024   9.601  11.390  10.609 -0.8592  1.5363 -1.6062
62678SOL     OW 6025   6.170   9.550  13.329  0.3911 -0.2453 -0.1911
62678SOL    HW1 6026   6.147   9.630  13.282  0.2218  1.3959  2.4489
62678SOL    HW2 6027   6.119   9.482  13.287 -2.7510  1.7712  0.0171
62679SOL     OW 6028  12.495   4.949  12.983 -0.7496 -0.1202  0.3712
62679SOL    HW1 6029  12.589   4.962  12.977 -0.9257  0.8738 -0.4026
62679SOL    HW2 6030  12.477   4.944  13.076  0.1817 -1.2977  0.5190
62680SOL     OW 6031   6.275   4.023   7.782  0.3184 -0.0399 -0.3733
62680SOL    HW1 6032   6.255   4.109   7.820  0.2184  0.5010 -1.5767
62680SOL    HW2 6033   6.203   4.006   7.722 -0.3715 -1.6411  0.8639
62681SOL     OW 6034   8.602   4.553  13.234  0.0984  0.4257  0.2397
62681SOL    HW1 6035   8.696   4.570  13.241  0.4806 -0.9447 -1.1416
62681SOL    HW2 6036   8.568   4.624  13.179  0.3641  0.7644  0.5117
62682SOL     OW 6037  12.283   7.439   8.695  0.2944 -0.3854  0.5407
62682SOL    HW1 6038  12.313   7.372   8.633 -0.9149  0.7272 -1.3398
62682SOL    HW2 6039  12.191   7.418   8.709 -0.4784  1.5812 -1.1462
62683SOL     OW 6040  13.035   4.584   2.696 -0.2607  0.2734  0.2687
62683SOL    HW1 6041  13.043   4.678   2.687  0.4017  0.0816 -1.4044
62683SOL    HW2 6042  13.125   4.552   2.700 -0.4118 -0.4265 -1.1789
62684SOL     OW 6043   0.102  10.538   8.968 -0.0917 -0.5048 -0.0806
62684SOL    HW1 6044   0.057  10.474   9.023 -0.7001 -2.0496 -2.2398
62684SOL    HW2 6045   0.035  10.603   8.947  0.4341  0.7191  1.8262
62685SOL     OW 6046   2.764   7.691  13.403 -0.2288  0.0049  0.4224
62685SOL    HW1 6047   2.803   7.672  13.488 -0.8697 -2.2499  0.2892
62685SOL    HW2 6048   2.678   7.648  13.406  0.5153 -1.8975 -1.9775
62686SOL     OW 6049   6.083   6.890   8.009  0.4273 -0.3037  0.0411
62686SOL    HW1 6050   6.009   6.873   7.951 -0.4788  0.5725  0.9034
62686SOL    HW2 6051   6.046   6.941   8.081  2.3460  2.7296 -0.9112
62687SOL     OW 6052  11.474   5.955   3.813  0.3743  0.3165 -0.4235
62687SOL    HW1 6053  11.494   5.867   3.783 -0.7006  0.7739 -2.7108
62687SOL    HW2 6054  11.538   6.011   3.768  1.7171  0.6625  1.8012
62688SOL     OW 6055   2.655   9.956   5.547 -0.5808  0.5035  0.0051
62688SOL    HW1 6056   2.643   9.908   5.629  1.0695 -1.9494 -1.0570
62688SOL    HW2 6057   2.748   9.944   5.525 -1.1469  0.2591 -2.6735
62689SOL     OW 6058  10.019  10.731   8.483 -0.3919  0.3027 -0.0462
62689SOL    HW1 6059  10.098  10.703   8.437 -1.0875 -1.4690 -0.2286
62689SOL    HW2 6060   9.948  10.714   8.421 -1.0312  0.8181  0.5294
62690SOL     OW 6061  11.601   6.219   3.789  0.3300  0.5486  0.0374
62690SOL    HW1 6062  11.558   6.300   3.818  1.1720  0.4022  1.8490
62690SOL    HW2 6063  11.694   6.233   3.808  0.4832 -0.8344  0.3800
62691SOL     OW 6064  13.198  11.167   4.445  0.3385 -0.1704 -0.1222
62691SOL    HW1 6065  13.283  11.207   4.462  1.7699 -1.3155 -3.7511
62691SOL    HW2 6066  13.218  11.076   4.424 -1.9669 -0.8208  0.2229
62692SOL     OW 6067  10.436   5.143   2.236  0.4253  0.3558 -0.3122
62692SOL    HW1 6068  10.487   5.192   2.171 -0.3994  0.0917 -1.1801
62692SOL    HW2 6069  10.464   5.179   2.320  0.0062  2.1856 -0.9071
62693SOL     OW 6070  10.893   6.904   7.068  0.0364 -0.1429 -0.2590
62693SOL    HW1 6071  10.965   6.869   7.015 -1.5298  0.5782 -3.0407
62693SOL    HW2 6072  10.820   6.845   7.052 -0.8935  0.9145 -0.0614
62694SOL     OW 6073   1.257   2.759   1.522 -0.0205  0.3659 -0.2608
62694SOL    HW1 6074   1.289   2.756   1.432 -1.4444  0.2956 -0.7973
62694SOL    HW2 6075   1.162   2.752   1.513 -0.0874 -1.4629  1.3554
62695SOL     OW 6076   2.430   4.733   7.495  0.1593 -0.2750 -0.2096
62695SOL    HW1 6077   2.446   4.719   7.401 -0.1926  1.1560 -0.5123
62695SOL    HW2 6078   2.469   4.819   7.513  1.8581 -1.2988  1.3933
62696SOL     OW 6079  12.627   4.319   9.395 -0.4967  0.7279  1.0395
62696SOL    HW1 6080  12.706   4.354   9.354 -0.2401 -0.5474  0.4073
62696SOL    HW2 6081  12.555   4.356   9.345 -0.2897  1.4000  1.2273
62697SOL     OW 6082   4.774  10.728   0.803 -0.4158  0.1731 -0.0863
62697SOL    HW1 6083   4.769  10.709   0.897 -0.0971  0.3902 -0.0230
62697SOL    HW2 6084   4.702  10.678   0.764 -0.6813  0.2525  0.2983
62698SOL     OW 6085   0.322   3.498   1.583 -0.2588  0.3009 -0.1040
62698SOL    HW1 6086   0.369   3.468   1.660 -0.6872  0.1151  0.0890
62698SOL    HW2 6087   0.267   3.424   1.558  0.2800  0.1572 -0.9188
62699SOL     OW 6088   6.276   9.334   8.517  0.0393  0.1443  0.3768
62699SOL    HW1 6089   6.325   9.415   8.530  0.8128 -0.2912  0.2340
62699SOL    HW2 6090   6.185   9.361   8.515  0.3561  1.2022 -1.0777
62700SOL     OW 6091   0.844   5.438   6.176  0.0275 -0.7119 -0.2974
62700SOL    HW1 6092   0.757   5.465   6.204  0.3076  0.2815 -0.3355
62700SOL    HW2 6093   0.897   5.518   6.182  0.6386 -1.0027 -1.4439
62701SOL     OW 6094   0.894   3.404   8.847 -0.3270 -0.2499 -0.2945
62701SOL    HW1 6095   0.965   3.393   8.911 -0.0126 -2.3259 -0.9376
62701SOL    HW2 6096   0.932   3.458   8.778  0.3493 -0.6007 -0.2071
62702SOL     OW 6097   6.520   4.680  11.909 -0.3473  0.2102  0.7460
62702SOL    HW1 6098   6.521   4.716  11.998  1.5875  1.7547  0.1792
62702SOL    HW2 6099   6.451   4.614  11.911 -1.9560  1.8048  2.7482
62703SOL     OW 6100   3.372   4.038   3.497  0.8847  0.2067 -0.2157
62703SOL    HW1 6101   3.447   3.996   3.539  0.3369 -0.7443 -0.1401
62703SOL    HW2 6102   3.379   4.013   3.405  0.3015 -0.4595 -0.0883
62704SOL     OW 6103   0.507   8.582  11.688  0.1979  0.0919 -0.0056
62704SOL    HW1 6104   0.537   8.499  11.653  0.5308 -0.8722  2.3924
62704SOL    HW2 6105   0.586   8.627  11.718 -0.1715  0.1586  0.9337
62705SOL     OW 6106   7.492   9.818  11.428 -0.0569  0.5425 -0.0767
62705SOL    HW1 6107   7.423   9.855  11.373 -0.1962 -1.0176 -1.0025
62705SOL    HW2 6108   7.532   9.750  11.374 -1.5417 -2.5258  2.3452
62706SOL     OW 6109   1.254  11.232  11.848  0.0179  0.1328 -0.1501
62706SOL    HW1 6110   1.160  11.214  11.843 -0.2178  1.2638 -0.1251
62706SOL    HW2 6111   1.261  11.305  11.910  1.0405 -0.7659  0.8494
62707SOL     OW 6112  11.845   9.615   9.727  0.3252  0.1196 -0.2031
62707SOL    HW1 6113  11.924   9.642   9.774 -0.7567  0.3770  1.5501
62707SOL    HW2 6114  11.838   9.521   9.743 -0.3419  0.3040  0.6594
62708SOL     OW 6115   2.328  11.524   7.908  0.1880 -0.2321 -0.5635
62708SOL    HW1 6116   2.330  11.532   8.003 -0.0120  0.5276 -0.6175
62708SOL    HW2 6117   2.258  11.462   7.891 -1.4289  1.4414 -0.2960
62709SOL     OW 6118  13.471   8.876  12.710 -0.1724  0.2040  0.0368
62709SOL    HW1 6119  13.564   8.853  12.697 -0.2033 -0.2254  0.5413
62709SOL    HW2 6120  13.424   8.794  12.694 -0.3975  0.2206  0.6078
62710SOL     OW 6121   1.366   3.633   5.781  0.5271  0.0227  0.1109
62710SOL    HW1 6122   1.339   3.705   5.839  0.6182  0.2540 -0.1296
62710SOL    HW2 6123   1.284   3.601   5.744  0.5944  0.9114 -0.8344
62711SOL     OW 6124   9.366   4.813   4.534 -0.3052  0.2715 -0.0292
62711SOL    HW1 6125   9.425   4.757   4.483 -0.7411 -0.0942 -0.1326
62711SOL    HW2 6126   9.357   4.892   4.481 -0.2724  0.1425 -0.2296
62712SOL     OW 6127  11.261   6.735   1.585  0.1339  0.4331 -0.2078
62712SOL    HW1 6128  11.250   6.821   1.544 -0.7811  0.3873 -0.0717
62712SOL    HW2 6129  11.355   6.717   1.577  0.3523  1.4856 -0.1421
62713SOL     OW 6130   7.331   7.582  10.572  0.6927 -0.0089 -0.1571
62713SOL    HW1 6131   7.398   7.520  10.546 -0.2539 -1.0622 -0.1604
62713SOL    HW2 6132   7.312   7.559  10.663  0.5479  0.4845 -0.0589
62714SOL     OW 6133  13.946  11.546   7.667  0.1204  0.1020  0.5017
62714SOL    HW1 6134  14.039  11.531   7.683  0.3285  0.3558 -0.4300
62714SOL    HW2 6135  13.942  11.636   7.635 -0.7926  1.1943  3.3707
62715SOL     OW 6136   9.277   8.803   5.875  0.0822 -0.1228 -0.5068
62715SOL    HW1 6137   9.337   8.730   5.856 -1.7339 -1.4881 -1.2467
62715SOL    HW2 6138   9.301   8.830   5.964  0.5417 -1.9185 -0.0316
62716SOL     OW 6139   2.886   3.862   8.890  0.3366 -0.0038 -0.3100
62716SOL    HW1 6140   2.891   3.798   8.961  1.3736 -0.6200 -0.9170
62716SOL    HW2 6141   2.864   3.944   8.933  1.5572 -0.2377  0.8242
62717SOL     OW 6142  13.100  11.482   4.298  0.6720  0.4205 -0.4203
62717SOL    HW1 6143  13.057  11.539   4.362  0.5582 -0.4471  0.2835
62717SOL    HW2 6144  13.067  11.394   4.317  1.0176  0.0738 -1.3541
62718SOL     OW 6145   9.719  13.976   1.971 -0.1157  0.3299 -0.0361
62718SOL    HW1 6146   9.699  14.051   1.916 -0.9556  0.3138  0.2316
62718SOL    HW2 6147   9.759  14.014   2.049 -0.6831  0.5196  0.1675
62719SOL     OW 6148  11.990   4.991  12.850 -0.3865  0.3553  0.4626
62719SOL    HW1 6149  11.921   5.054  12.869  0.2528  1.5429 -0.9104
62719SOL    HW2 6150  12.044   4.990  12.928 -0.1894  1.8539  0.3882
62720SOL     OW 6151  11.054   0.243  13.094  0.0520 -0.1667  0.0011
62720SOL    HW1 6152  11.003   0.316  13.129  0.5942 -0.5148  1.6469
62720SOL    HW2 6153  11.066   0.264  13.002  1.1002  2.4250  0.6135
62721SOL     OW 6154   9.731  12.458   8.885 -0.2795 -0.3270 -0.0333
62721SOL    HW1 6155   9.740  12.535   8.942 -0.5061 -0.0808 -0.3267
62721SOL    HW2 6156   9.821  12.427   8.873 -0.2927 -0.7925  1.0094
62722SOL     OW 6157   5.498  12.920  14.038 -0.0102  0.4453  0.0338
62722SOL    HW1 6158   5.456  12.841  14.072 -3.4140  1.9881 -0.1763
62722SOL    HW2 6159   5.535  12.963  14.115 -2.0013  0.7452  0.8822
62723SOL     OW 6160   7.300   3.613   4.646 -0.1298 -0.2516 -0.1964
62723SOL    HW1 6161   7.336   3.699   4.626  0.2279 -0.7431 -1.8329
62723SOL    HW2 6162   7.269   3.579   4.561 -1.9563 -0.9835  0.6889
62724SOL     OW 6163   9.867   2.579   1.894 -0.2615  0.2262  0.4844
62724SOL    HW1 6164   9.937   2.608   1.952  0.1789  2.2717 -0.9229
62724SOL    HW2 6165   9.793   2.637   1.915 -1.3786 -1.4833  1.5119
62725SOL     OW 6166  12.380  12.956  11.017 -0.0550  0.0197  0.3090
62725SOL    HW1 6167  12.315  12.894  11.051 -0.4295  0.6518  0.7549
62725SOL    HW2 6168  12.385  12.936  10.923 -1.3985  0.4138  0.1361
62726SOL     OW 6169   8.144   7.007  13.204 -0.6827  1.1445  0.4102
62726SOL    HW1 6170   8.218   7.049  13.247  0.4791  0.2542 -0.6514
62726SOL    HW2 6171   8.082   6.990  13.276  0.3429  1.4675  1.4076
62727SOL     OW 6172   3.360   7.582   5.023 -0.4538 -0.0245 -0.3042
62727SOL    HW1 6173   3.342   7.524   4.950 -1.1463  2.1433 -1.9714
62727SOL    HW2 6174   3.283   7.575   5.079  0.3466 -2.1638  0.6491
62728SOL     OW 6175   3.866  10.080   2.000  0.1188 -0.0436 -0.6617
62728SOL    HW1 6176   3.958  10.103   2.014  0.0808  0.0599 -0.5767
62728SOL    HW2 6177   3.866  10.024   1.923  0.1385  0.9126 -1.3823
62729SOL     OW 6178   2.259   4.870  10.800  0.4380 -0.1023  0.2850
62729SOL    HW1 6179   2.292   4.941  10.854  0.1844  0.7726 -0.6713
62729SOL    HW2 6180   2.166   4.863  10.823  0.1718  0.7243 -0.5028
62730SOL     OW 6181  11.330   0.528   5.802  0.2027  0.3701 -0.3654
62730SOL    HW1 6182  11.385   0.566   5.734  0.1356  0.2365 -0.4932
62730SOL    HW2 6183  11.381   0.538   5.882  0.0772  0.9661 -0.3560
62731SOL     OW 6184  10.166   9.836   9.113 -0.5788  0.1721 -0.6437
62731SOL    HW1 6185  10.217   9.758   9.132  0.4720  0.7728 -0.9156
62731SOL    HW2 6186  10.156   9.836   9.018  0.3459  0.9190 -0.7474
62732SOL     OW 6187   1.216  14.021  11.969 -0.3599  0.0658 -0.0468
62732SOL    HW1 6188   1.298  14.026  11.920 -0.6618  0.0846 -0.5515
62732SOL    HW2 6189   1.220  13.936  12.014  0.2066  0.3372  0.4169
62733SOL     OW 6190   3.772   7.651   5.780 -0.6749  0.0488  0.2412
62733SOL    HW1 6191   3.792   7.580   5.719  0.3070  0.1582  0.4242
62733SOL    HW2 6192   3.783   7.612   5.866  0.3997  0.5559  0.3449
62734SOL     OW 6193  12.989  10.074   9.252  0.2486  0.1468  0.1806
62734SOL    HW1 6194  12.929  10.081   9.178  1.9333  0.9946 -1.1920
62734SOL    HW2 6195  13.076  10.087   9.214  1.1516  1.2717  2.4105
62735SOL     OW 6196   9.207  12.503  10.207  0.2957  0.3312  0.2634
62735SOL    HW1 6197   9.197  12.559  10.283  1.5465  0.2926  0.4793
62735SOL    HW2 6198   9.264  12.553  10.148 -1.3436  0.7398 -1.0516
62736SOL     OW 6199   3.905   8.541   5.192  0.0354  0.1568  0.2059
62736SOL    HW1 6200   3.816   8.544   5.226 -1.0836  2.3506 -2.4815
62736SOL    HW2 6201   3.943   8.626   5.215  0.5648  0.1710 -0.6447
62737SOL     OW 6202   9.470  11.814   8.729  0.1868 -0.1064  0.4056
62737SOL    HW1 6203   9.402  11.752   8.754 -1.1736  1.0863 -0.1997
62737SOL    HW2 6204   9.462  11.822   8.634 -0.2254  1.5724  0.5502
62738SOL     OW 6205   7.060   8.401   4.949 -0.2495 -0.1876 -0.0896
62738SOL    HW1 6206   7.107   8.376   4.870  1.6571 -2.4762  1.6132
62738SOL    HW2 6207   7.109   8.475   4.984  0.9911 -1.2678  0.5917
62739SOL     OW 6208   0.578   4.062  13.782 -0.1410 -0.3005  0.0061
62739SOL    HW1 6209   0.528   3.981  13.775  0.2159 -0.4283 -1.5090
62739SOL    HW2 6210   0.617   4.059  13.869 -1.0684 -1.1916  0.4116
62740SOL     OW 6211  11.853  13.421   9.876 -0.3014  0.2911 -0.2463
62740SOL    HW1 6212  11.842  13.447   9.967  0.6557 -0.4696  0.1021
62740SOL    HW2 6213  11.836  13.327   9.876  0.0188  0.2275 -0.7881
62741SOL     OW 6214   9.414  11.478   3.103  0.3957 -0.5438 -0.1274
62741SOL    HW1 6215   9.461  11.398   3.127  2.2203  0.8978  1.3859
62741SOL    HW2 6216   9.340  11.482   3.164  0.2381 -1.1007 -0.2752
62742SOL     OW 6217   2.746   7.987  13.731 -0.0628  0.3960  0.4118
62742SOL    HW1 6218   2.721   7.897  13.711 -0.4293  0.5137  0.3396
62742SOL    HW2 6219   2.663   8.032  13.746  0.1575  0.4871  1.4545
62743SOL     OW 6220   1.065   8.160  11.670 -0.2455  0.3701  0.1448
62743SOL    HW1 6221   1.049   8.236  11.614  0.1946 -1.1124 -2.1259
62743SOL    HW2 6222   1.154   8.174  11.703 -1.2442  2.2768  2.2964
62744SOL     OW 6223   6.255   7.054   2.967  0.2457 -0.0420  0.2094
62744SOL    HW1 6224   6.187   7.010   3.017 -0.6617 -0.0616 -0.9987
62744SOL    HW2 6225   6.333   7.048   3.022 -0.7144 -0.0147  1.6202
62745SOL     OW 6226   8.811   1.473   7.718 -0.0049  0.2440  0.1832
62745SOL    HW1 6227   8.734   1.516   7.756 -0.6025  1.2059 -1.9323
62745SOL    HW2 6228   8.880   1.539   7.724  0.1896  0.0032  0.5736
62746SOL     OW 6229   0.463   8.784   4.682 -0.2008  0.0370 -0.2945
62746SOL    HW1 6230   0.405   8.851   4.647  0.0752 -0.7351 -2.3685
62746SOL    HW2 6231   0.407   8.708   4.697 -0.4472  0.5575  1.7146
62747SOL     OW 6232   6.481   0.744   2.596  0.4327 -0.2492 -0.0518
62747SOL    HW1 6233   6.560   0.749   2.542  0.7037  0.1528  0.3774
62747SOL    HW2 6234   6.433   0.824   2.575  0.2323 -0.3988 -0.1673
62748SOL     OW 6235   4.127  11.596  11.846 -0.0749 -0.0415 -0.5237
62748SOL    HW1 6236   4.095  11.643  11.923  1.1694  1.8870 -1.1302
62748SOL    HW2 6237   4.047  11.570  11.799 -0.8094  0.6640  0.3102
62749SOL     OW 6238   6.693   7.409   9.907  0.0852  0.5321 -0.0331
62749SOL    HW1 6239   6.773   7.356   9.913  0.2359  0.5331 -1.5997
62749SOL    HW2 6240   6.688   7.454   9.991  2.1163  1.0472 -0.1446
62750SOL     OW 6241  10.791   7.503  12.708 -0.1593  0.4646  0.0485
62750SOL    HW1 6242  10.767   7.451  12.631 -1.0744 -0.1996  0.7591
62750SOL    HW2 6243  10.732   7.578  12.706 -0.0517  0.5471 -0.0075
62751SOL     OW 6244   9.160   9.077   0.893 -0.2107 -0.4157  0.4299
62751SOL    HW1 6245   9.222   9.016   0.933  0.4379  0.7487  1.2861
62751SOL    HW2 6246   9.108   9.024   0.832 -0.0464 -1.9098  1.5457
62752SOL     OW 6247   6.591   0.335   9.890  0.1861  0.0398  0.7423
62752SOL    HW1 6248   6.516   0.312   9.835  0.6522  0.2478  0.0033
62752SOL    HW2 6249   6.632   0.251   9.911 -0.5650 -0.1251  1.6236
62753SOL     OW 6250   4.894   8.475   6.053 -0.2447 -0.3273  0.1333
62753SOL    HW1 6251   4.990   8.476   6.051 -0.2221 -0.0443 -2.7851
62753SOL    HW2 6252   4.872   8.469   6.146  2.5881 -0.5748  0.8780
62754SOL     OW 6253   3.964   5.751  13.311 -0.1021 -0.2497 -0.4737
62754SOL    HW1 6254   3.895   5.817  13.310 -1.0810 -1.2297  0.6196
62754SOL    HW2 6255   3.925   5.674  13.269  0.6396 -0.5282 -0.6808
62755SOL     OW 6256   1.125   5.951   0.846 -0.2318  0.3835 -0.1137
62755SOL    HW1 6257   1.209   5.946   0.801  1.3502  3.7184  2.0626
62755SOL    HW2 6258   1.075   6.016   0.797 -0.5217  0.3106  0.0812
62756SOL     OW 6259   8.356  13.089   9.614  0.2187  0.3335  0.2406
62756SOL    HW1 6260   8.446  13.098   9.584  0.2674 -0.8940 -0.0454
62756SOL    HW2 6261   8.363  13.062   9.706  0.2065 -1.3250 -0.2129
62757SOL     OW 6262  11.235   9.563  11.623 -0.5797 -0.3299 -0.1113
62757SOL    HW1 6263  11.314   9.570  11.569 -0.2730  0.8181  0.4504
62757SOL    HW2 6264  11.182   9.638  11.596 -1.7190 -1.3812 -0.8482
62758SOL     OW 6265  11.807   4.753   1.501 -0.4435  0.1813  0.2262
62758SOL    HW1 6266  11.840   4.686   1.441  0.0516  1.3572 -0.8725
62758SOL    HW2 6267  11.724   4.717   1.533 -1.0464 -0.2558 -1.6610
62759SOL     OW 6268   0.883   7.903   6.717 -0.4426 -0.0981  0.2453
62759SOL    HW1 6269   0.843   7.924   6.801  0.2820 -2.0814  1.1337
62759SOL    HW2 6270   0.977   7.906   6.733 -0.2599  0.5089 -0.7887
62760SOL     OW 6271   4.743  11.775  12.934 -0.0235 -0.3844  0.0230
62760SOL    HW1 6272   4.765  11.702  12.991 -1.6794 -1.0892 -0.2035
62760SOL    HW2 6273   4.748  11.739  12.845  3.6034  0.9645 -0.4898
62761SOL     OW 6274  10.007   8.793   8.049 -0.7939  0.0739 -0.2067
62761SOL    HW1 6275  10.069   8.839   8.105  0.6996  0.0699 -1.7562
62761SOL    HW2 6276   9.963   8.862   7.999 -0.8353 -0.0138 -0.2944
62762SOL     OW 6277   3.427  13.302   4.726  0.4519 -0.1378  0.6481
62762SOL    HW1 6278   3.373  13.366   4.680  3.0895  0.7843 -1.4382
62762SOL    HW2 6279   3.374  13.274   4.800 -3.1153  0.1160 -1.5812
62763SOL     OW 6280  13.499   4.134  12.610  0.7386 -0.1216 -0.0989
62763SOL    HW1 6281  13.495   4.171  12.522  0.9265 -3.2469 -1.5509
62763SOL    HW2 6282  13.589   4.147  12.638  0.6713  0.9047 -0.3250
62764SOL     OW 6283  10.721   3.488   1.815  0.0704  0.1876  0.5104
62764SOL    HW1 6284  10.787   3.556   1.803  0.1608  0.2149  1.1334
62764SOL    HW2 6285  10.764   3.420   1.867 -0.2978  0.0777  0.6821
62765SOL     OW 6286   6.698  11.060  14.009  0.5563  0.2267  0.5322
62765SOL    HW1 6287   6.734  11.087  14.094 -0.5303  0.8812  0.8017
62765SOL    HW2 6288   6.613  11.104  14.003 -0.0182 -0.9300 -0.2887
62766SOL     OW 6289   5.446   6.381  11.004 -0.2056  0.1041  0.2697
62766SOL    HW1 6290   5.358   6.347  10.991 -1.0213  2.2711 -0.3035
62766SOL    HW2 6291   5.480   6.394  10.916  0.6727 -0.6030  0.4891
62767SOL     OW 6292  12.035   7.921  13.485  0.7439  0.0474  0.4224
62767SOL    HW1 6293  12.121   7.927  13.525  1.4485  1.2304 -1.1702
62767SOL    HW2 6294  12.029   7.830  13.453  1.4682  0.0103  0.3835
62768SOL     OW 6295   3.679  10.123   0.242 -0.1145 -0.4751  0.3039
62768SOL    HW1 6296   3.644  10.201   0.198  0.7532  0.9972  2.0436
62768SOL    HW2 6297   3.645  10.049   0.192 -3.1347  0.9158  0.0723
62769SOL     OW 6298   0.726   1.220   7.943  0.3815 -0.0101 -0.4390
62769SOL    HW1 6299   0.703   1.302   7.986 -3.4141  0.1720 -2.4423
62769SOL    HW2 6300   0.742   1.158   8.015 -0.6287  1.5056  1.1489
62770SOL     OW 6301   9.408  12.140  12.147 -1.5049  0.3483  0.0593
62770SOL    HW1 6302   9.490  12.177  12.180 -1.9224  0.0065  1.5867
62770SOL    HW2 6303   9.351  12.216  12.135 -0.5341  0.7600 -2.4880
62771SOL     OW 6304   1.089   4.318   2.222  0.4884 -0.0708 -0.6298
62771SOL    HW1 6305   1.060   4.228   2.238 -0.0346  0.3217  0.8100
62771SOL    HW2 6306   1.180   4.309   2.195  2.1477 -0.9380  4.1230
62772SOL     OW 6307   7.001   5.478  11.603 -0.0511  0.3604 -0.3280
62772SOL    HW1 6308   6.928   5.428  11.640  1.8329 -1.2639  1.4816
62772SOL    HW2 6309   6.984   5.569  11.628 -0.3602 -0.2915  2.1075
62773SOL     OW 6310  10.477   3.684  11.408 -0.0068 -0.2550 -0.0110
62773SOL    HW1 6311  10.461   3.661  11.500 -0.4946 -0.3145 -0.1063
62773SOL    HW2 6312  10.412   3.634  11.359  0.9634 -1.0700 -0.4954
62774SOL     OW 6313   2.639   9.712  12.252  0.0426 -0.2836  0.5557
62774SOL    HW1 6314   2.561   9.698  12.305  0.4506 -0.3221  1.1511
62774SOL    HW2 6315   2.608   9.762  12.176 -0.7954 -1.3922  0.1441
62775SOL     OW 6316   9.151   8.466   0.465 -0.4126  0.1745  0.0989
62775SOL    HW1 6317   9.173   8.558   0.458 -1.7371  0.4226 -1.7410
62775SOL    HW2 6318   9.131   8.439   0.375  1.5407 -2.3680  0.2977
62776SOL     OW 6319   5.001   6.746   3.027 -0.0037 -0.7289 -0.0259
62776SOL    HW1 6320   4.948   6.765   2.950 -1.3934  0.6170  1.1804
62776SOL    HW2 6321   5.091   6.763   3.000 -0.6370  1.7558 -0.8094
62777SOL     OW 6322   4.523   1.117   4.366  0.4964  0.5203  0.1018
62777SOL    HW1 6323   4.460   1.137   4.436  1.5585  1.1758  0.8999
62777SOL    HW2 6324   4.584   1.191   4.366  0.7332  0.3555 -1.2905
62778SOL     OW 6325   7.666   4.254   4.642 -0.6824  0.5590  0.8379
62778SOL    HW1 6326   7.714   4.262   4.724  0.5353  0.2376  0.1845
62778SOL    HW2 6327   7.680   4.163   4.616  0.4765  1.1223 -0.6211
62779SOL     OW 6328  13.605  10.668   1.099 -0.4412 -0.3951 -0.1905
62779SOL    HW1 6329  13.602  10.584   1.144  0.5794 -0.3916 -0.0874
62779SOL    HW2 6330  13.638  10.647   1.011 -1.5229 -0.2767 -0.6454
62780SOL     OW 6331  13.206  13.944   6.823  0.4592  0.0896 -0.6778
62780SOL    HW1 6332  13.119  13.960   6.786  1.0197  0.5808 -1.8335
62780SOL    HW2 6333  13.237  13.866   6.777  0.7792  0.1387 -0.5449
62781SOL     OW 6334   8.429   1.060  10.164 -0.1218  0.1979 -0.4296
62781SOL    HW1 6335   8.424   1.134  10.224 -0.3506  1.2934 -1.7336
62781SOL    HW2 6336   8.516   1.022  10.178  1.0054  2.2517 -1.4275
62782SOL     OW 6337   5.264   5.875   0.059 -0.0534  0.2214  0.5584
62782SOL    HW1 6338   5.185   5.920   0.089 -0.0148 -0.8737  2.4691
62782SOL    HW2 6339   5.231   5.806   0.002 -0.3695  0.6126  0.2631
62783SOL     OW 6340   9.732   1.498   8.123 -0.0838 -0.4276 -0.1953
62783SOL    HW1 6341   9.684   1.430   8.076 -1.0864 -2.1001  2.9662
62783SOL    HW2 6342   9.673   1.573   8.123 -0.7600 -0.9478 -0.2012
62784SOL     OW 6343   9.496   8.589   4.898 -0.0365 -0.5133 -0.1924
62784SOL    HW1 6344   9.559   8.555   4.961 -1.4074 -0.6118  1.1863
62784SOL    HW2 6345   9.469   8.673   4.934  1.2914  0.8536 -2.1817
62785SOL     OW 6346  11.759   6.904   2.695  0.0175  0.0510 -0.3202
62785SOL    HW1 6347  11.729   6.861   2.775 -2.4958 -0.2160 -1.2924
62785SOL    HW2 6348  11.746   6.997   2.712 -1.5318 -0.0591 -0.7177
62786SOL     OW 6349   1.907   3.814  13.103  0.7748  0.2705 -0.3169
62786SOL    HW1 6350   1.925   3.743  13.041  1.5566  0.0924  0.1032
62786SOL    HW2 6351   1.952   3.788  13.183 -2.3370 -0.8072  1.2542
62787SOL     OW 6352   2.520   1.915   9.229 -0.0222  0.1061 -0.0201
62787SOL    HW1 6353   2.581   1.888   9.160  0.6123  0.2630  0.4607
62787SOL    HW2 6354   2.443   1.948   9.182  0.0828 -0.4999 -0.6350
62788SOL     OW 6355  10.914  13.866   2.094 -0.1954  0.4989  0.3393
62788SOL    HW1 6356  10.980  13.845   2.029 -0.1995 -0.1962  0.5553
62788SOL    HW2 6357  10.960  13.863   2.178  0.0510  2.3908  0.3166
62789SOL     OW 6358  11.258   5.298   9.328  0.1300 -0.0628 -0.2080
62789SOL    HW1 6359  11.226   5.384   9.301 -0.6343  0.0214  0.9013
62789SOL    HW2 6360  11.332   5.316   9.385  0.2305 -0.1602 -0.3058
62790SOL     OW 6361   0.865   5.627  11.072  0.2859 -0.0480  0.5755
62790SOL    HW1 6362   0.912   5.703  11.105 -2.5913  2.0708  0.2289
62790SOL    HW2 6363   0.786   5.622  11.126 -1.2927 -0.5558 -1.6055
62791SOL     OW 6364   8.506  10.948   9.601 -0.2116  0.4967 -0.1771
62791SOL    HW1 6365   8.424  10.899   9.598 -1.0545  1.8605 -1.7827
62791SOL    HW2 6366   8.556  10.916   9.526  0.7000 -0.2350  0.7210
62792SOL     OW 6367   1.387   0.359  11.090 -0.0682  0.0345  0.0824
62792SOL    HW1 6368   1.451   0.358  11.019  1.6644  3.7326  1.3027
62792SOL    HW2 6369   1.309   0.397  11.050  0.3524  0.5622 -0.2704
62793SOL     OW 6370   6.023  12.713   9.763  0.5093 -0.0661  0.3728
62793SOL    HW1 6371   6.071  12.652   9.708 -1.4772 -2.9791  1.5903
62793SOL    HW2 6372   5.931  12.701   9.737 -0.0547  1.5920  1.4594
62794SOL     OW 6373   8.491  14.030   0.752  0.6156  0.4886  0.4843
62794SOL    HW1 6374   8.425  14.029   0.822 -1.1332 -0.0433 -1.1002
62794SOL    HW2 6375   8.504  14.123   0.733  1.1021  0.6398  1.4759
62795SOL     OW 6376   6.150  10.569   9.993 -0.6188  0.9230  0.2789
62795SOL    HW1 6377   6.151  10.654   9.947 -0.9463  1.7338  1.7200
62795SOL    HW2 6378   6.241  10.556  10.019 -0.5345  0.7374 -0.1061
62796SOL     OW 6379  13.247  12.644   8.576  0.3833  0.5662 -0.4649
62796SOL    HW1 6380  13.235  12.551   8.558 -3.4452  0.9753 -0.8683
62796SOL    HW2 6381  13.290  12.647   8.661  0.3138 -1.5860 -0.3082
62797SOL     OW 6382   1.198   1.244   1.066  0.6623  0.3731  0.3785
62797SOL    HW1 6383   1.154   1.302   1.129 -0.1061  0.5200 -0.2678
62797SOL    HW2 6384   1.261   1.301   1.021 -0.2612  0.8058 -0.4242
62798SOL     OW 6385   5.762  14.025   8.026 -0.3701  0.9176  0.0929
62798SOL    HW1 6386   5.837  14.018   8.085 -0.2273 -1.5754 -0.2695
62798SOL    HW2 6387   5.695  13.971   8.067  0.5041 -2.9922 -2.9530
62799SOL     OW 6388   6.372   1.924  10.108  0.4954 -0.3327 -0.0878
62799SOL    HW1 6389   6.362   1.960  10.197 -1.8043 -0.2235 -0.3332
62799SOL    HW2 6390   6.285   1.892  10.085  1.1266 -0.6969 -2.1892
62800SOL     OW 6391  11.735   2.743  12.845 -0.0809 -0.5045 -0.0291
62800SOL    HW1 6392  11.645   2.747  12.813 -0.1507 -2.2829 -0.1306
62800SOL    HW2 6393  11.735   2.799  12.923 -0.3422  2.4525 -2.0089
62801SOL     OW 6394   1.585   1.073   0.493 -0.3354 -0.6363  0.0011
62801SOL    HW1 6395   1.670   1.058   0.452 -0.9780  1.1039 -2.1583
62801SOL    HW2 6396   1.589   1.164   0.523 -1.6359 -0.2949 -0.7691
62802SOL     OW 6397   3.842   2.461   5.223  0.6282 -0.6259 -0.1787
62802SOL    HW1 6398   3.810   2.494   5.307  0.9254  0.2910 -0.4078
62802SOL    HW2 6399   3.927   2.422   5.243  0.6454 -0.5110 -0.0273
62803SOL     OW 6400   6.331  12.747   2.106 -0.3354  0.3324 -0.6004
62803SOL    HW1 6401   6.407  12.801   2.129 -0.7542  1.4369 -1.6574
62803SOL    HW2 6402   6.256  12.799   2.134 -0.7548 -1.3213  1.6506
62804SOL     OW 6403   0.714  12.935   2.476 -0.3828 -0.2043 -0.5791
62804SOL    HW1 6404   0.743  12.863   2.531  0.8308  0.8276  0.2005
62804SOL    HW2 6405   0.620  12.922   2.466  0.0020 -2.6644 -1.6485
62805SOL     OW 6406   3.137  11.195   7.869  0.7189  0.1065 -0.4686
62805SOL    HW1 6407   3.124  11.156   7.783  0.4617  0.4484 -0.5880
62805SOL    HW2 6408   3.204  11.141   7.910  0.0353 -0.7473 -0.4402
62806SOL     OW 6409   7.278   9.651   2.179 -0.5219  0.5292 -0.7411
62806SOL    HW1 6410   7.368   9.650   2.212 -1.1813 -2.0099  1.2926
62806SOL    HW2 6411   7.284   9.696   2.095  2.5712  0.7786 -0.5034
62807SOL     OW 6412  13.585   9.265   4.965 -0.5396 -1.4936 -0.0900
62807SOL    HW1 6413  13.491   9.281   4.977 -0.5135 -0.7260 -0.8446
62807SOL    HW2 6414  13.607   9.310   4.884  0.9299  0.1668  1.1443
62808SOL     OW 6415   8.917  11.229   8.503  0.1314 -0.1320 -0.1098
62808SOL    HW1 6416   8.995  11.219   8.449 -0.0197 -0.0819 -0.3406
62808SOL    HW2 6417   8.941  11.190   8.587  1.3219  2.3035  0.7506
62809SOL     OW 6418   8.397   0.591   2.169  0.6488  0.0845 -0.1563
62809SOL    HW1 6419   8.384   0.498   2.187  0.1380 -0.2253 -1.9526
62809SOL    HW2 6420   8.308   0.627   2.162  0.8399  0.5336 -0.3135
62810SOL     OW 6421   2.126  13.792   3.621  0.2959  0.6269  0.1084
62810SOL    HW1 6422   2.203  13.800   3.564  0.2318 -0.3202 -0.1240
62810SOL    HW2 6423   2.153  13.731   3.690 -0.3012  0.1205 -0.0906
62811SOL     OW 6424   0.537   7.550   3.079  0.0427  0.3366 -0.0185
62811SOL    HW1 6425   0.558   7.543   2.985 -0.5145 -2.1691 -0.0151
62811SOL    HW2 6426   0.482   7.629   3.085  1.1228  1.2709 -1.5666
62812SOL     OW 6427   3.852   0.020   9.953  0.2280 -0.1484  0.3727
62812SOL    HW1 6428   3.824   0.041  10.042  0.3980  2.0399 -0.0448
62812SOL    HW2 6429   3.812   0.088   9.898  1.2213 -0.6562 -1.0489
62813SOL     OW 6430   0.379  10.075   0.287  0.7892 -0.0692 -0.6948
62813SOL    HW1 6431   0.353  10.166   0.304  1.8566  0.0032  0.7135
62813SOL    HW2 6432   0.302  10.023   0.309  0.3830  0.4417 -0.8965
62814SOL     OW 6433  10.441  11.797   6.766  0.0451  0.3991  0.5856
62814SOL    HW1 6434  10.378  11.745   6.815 -0.0529 -1.7333 -1.6043
62814SOL    HW2 6435  10.490  11.845   6.833 -2.5738  0.6566  2.4711
62815SOL     OW 6436   0.179   3.195  13.719 -0.6929  0.3544  0.2106
62815SOL    HW1 6437   0.155   3.156  13.803  0.0114  2.9287  1.7109
62815SOL    HW2 6438   0.238   3.266  13.741 -0.4576  1.1219 -2.5027
62816SOL     OW 6439   1.325  12.488   2.606 -0.5129 -0.3602 -0.7144
62816SOL    HW1 6440   1.257  12.502   2.539  0.1293  0.1650 -1.2701
62816SOL    HW2 6441   1.373  12.570   2.609  0.0372 -0.6922 -0.2431
62817SOL     OW 6442  11.716  10.280   8.402 -0.2183 -0.5906  0.1918
62817SOL    HW1 6443  11.789  10.243   8.452  0.3664 -1.4460 -1.2124
62817SOL    HW2 6444  11.757  10.344   8.344 -0.9375  0.6906  1.0441
62818SOL     OW 6445   5.745   6.968  12.149  0.5372 -0.2138 -0.2167
62818SOL    HW1 6446   5.768   6.879  12.176 -0.5548 -0.4046  0.1161
62818SOL    HW2 6447   5.668   6.990  12.202  2.3223  1.9422  1.7065
62819SOL     OW 6448   4.789  13.774   0.861 -0.1569 -0.1569 -0.0834
62819SOL    HW1 6449   4.787  13.684   0.894 -0.4152 -0.2108 -0.2441
62819SOL    HW2 6450   4.802  13.766   0.767  2.4426  0.0429  0.1913
62820SOL     OW 6451   3.898   6.877   2.696  0.8052  0.5980 -0.0876
62820SOL    HW1 6452   3.814   6.883   2.740  0.4222  1.6376 -0.9275
62820SOL    HW2 6453   3.955   6.833   2.759 -0.6174 -1.1049  0.0935
62821SOL     OW 6454  13.542   3.332   8.713 -0.1394 -0.0313 -0.2441
62821SOL    HW1 6455  13.524   3.308   8.622 -1.4979 -1.2277  0.2972
62821SOL    HW2 6456  13.492   3.413   8.726  2.1091  1.6273 -1.2367
62822SOL     OW 6457   2.747  11.304  10.647 -0.1051 -0.0701  0.0265
62822SOL    HW1 6458   2.675  11.246  10.670 -0.0385  1.0703  3.8452
62822SOL    HW2 6459   2.825  11.262  10.684  0.6814  0.3126 -1.1350
62823SOL     OW 6460  10.648   8.372  10.227  0.3180 -0.7314 -0.2535
62823SOL    HW1 6461  10.585   8.417  10.282  1.2822 -0.7863  0.9192
62823SOL    HW2 6462  10.706   8.326  10.288  1.9000 -0.1598 -1.2528
62824SOL     OW 6463   8.868   1.849   9.377  0.3105  0.2753  0.0889
62824SOL    HW1 6464   8.820   1.803   9.446  0.6951 -0.6415 -0.2475
62824SOL    HW2 6465   8.951   1.802   9.370  0.4167  0.5766 -0.7574
62825SOL     OW 6466   7.490  10.032   6.710  0.1005  0.5414  0.8861
62825SOL    HW1 6467   7.455   9.944   6.724 -0.9675  0.7743 -0.1835
62825SOL    HW2 6468   7.579  10.017   6.678 -0.7603 -0.2633 -1.3284
62826SOL     OW 6469   3.833  10.075   7.467 -0.4620  0.6094 -0.5868
62826SOL    HW1 6470   3.923  10.061   7.436  0.2797  3.6227 -0.1059
62826SOL    HW2 6471   3.778  10.032   7.401  1.2349 -2.7166 -0.0887
62827SOL     OW 6472   1.378  13.007   5.430 -0.0938  0.2201  0.1585
62827SOL    HW1 6473   1.312  12.940   5.416  0.0400  0.0848  0.1680
62827SOL    HW2 6474   1.334  13.090   5.410 -0.6177  0.2426  1.3306
62828SOL     OW 6475  10.053   2.185   8.449  0.0782  0.3516  0.6392
62828SOL    HW1 6476  10.147   2.167   8.438 -0.0035  0.7514 -0.8977
62828SOL    HW2 6477  10.030   2.240   8.374 -1.6117 -0.5954  0.4174
62829SOL     OW 6478   2.461   4.717   0.577  0.2911  0.4721 -0.3367
62829SOL    HW1 6479   2.545   4.747   0.610  0.4041  0.5387 -0.6798
62829SOL    HW2 6480   2.477   4.628   0.544 -0.3956 -0.6465  2.1357
62830SOL     OW 6481   9.273  13.649   9.498  0.0010 -0.6200 -0.3087
62830SOL    HW1 6482   9.202  13.607   9.548 -0.8720  0.6351 -0.4417
62830SOL    HW2 6483   9.240  13.652   9.408  0.5227 -0.6676 -0.4996
62831SOL     OW 6484  10.486  11.397   3.051  0.1542 -0.5857  0.0169
62831SOL    HW1 6485  10.454  11.480   3.086 -0.6151 -1.6512  2.0174
62831SOL    HW2 6486  10.568  11.381   3.098  0.2150 -1.0438 -0.2342
62832SOL     OW 6487   6.179   2.847   6.940  0.5918 -0.0148 -0.2316
62832SOL    HW1 6488   6.217   2.905   7.006  0.6090 -0.1688 -0.1054
62832SOL    HW2 6489   6.097   2.889   6.915 -0.0421 -0.5959  0.8107
62833SOL     OW 6490  10.763   5.343   2.410 -0.7058  0.3966  0.7971
62833SOL    HW1 6491  10.707   5.402   2.359  0.0122  1.7977  1.5621
62833SOL    HW2 6492  10.775   5.267   2.353 -0.6932  1.5063 -0.7552
62834SOL     OW 6493   7.761  12.248  10.408  0.5438 -0.0770 -0.3342
62834SOL    HW1 6494   7.740  12.156  10.425  0.0822  0.0236 -0.3484
62834SOL    HW2 6495   7.780  12.285  10.494  0.5462 -0.1413 -0.3072
62835SOL     OW 6496   4.938   7.732  10.279  0.0134 -0.3330 -0.1788
62835SOL    HW1 6497   4.910   7.769  10.196  0.4151 -1.7718 -0.9984
62835SOL    HW2 6498   4.984   7.803  10.323 -2.6006  1.2893  0.0750
62836SOL     OW 6499   5.049  10.594   2.805  0.2682  0.2409 -0.0991
62836SOL    HW1 6500   5.104  10.533   2.853 -0.1269  0.5167  0.7346
62836SOL    HW2 6501   4.973  10.543   2.779  0.0243  0.3232  0.4370
62837SOL     OW 6502   9.418  12.154   3.677 -0.3218  0.4773 -0.2243
62837SOL    HW1 6503   9.475  12.231   3.680 -0.0017  0.2151  1.7122
62837SOL    HW2 6504   9.354  12.169   3.745 -0.1078 -1.0656  0.3532
62838SOL     OW 6505   2.332   7.166   5.889 -0.0118  0.0522  0.4003
62838SOL    HW1 6506   2.313   7.077   5.860  0.7478  0.0336 -0.0662
62838SOL    HW2 6507   2.419   7.185   5.854 -0.4891  1.2661 -0.1895
62839SOL     OW 6508  13.582   9.289   4.521  0.5618  0.1938  0.3633
62839SOL    HW1 6509  13.612   9.198   4.528 -1.6420 -0.5978  0.5595
62839SOL    HW2 6510  13.554   9.297   4.430  0.6149  0.6225  0.3847
62840SOL     OW 6511   5.673  13.250   5.966  0.8370  0.2481  0.1445
62840SOL    HW1 6512   5.695  13.207   6.048 -1.2783 -0.6265  0.3249
62840SOL    HW2 6513   5.645  13.179   5.908 -1.2683  1.1489 -0.0597
62841SOL     OW 6514  10.685   9.967   0.785 -0.1483 -0.2995  0.2838
62841SOL    HW1 6515  10.656   9.906   0.717 -1.0755 -0.7390  1.0431
62841SOL    HW2 6516  10.618  10.035   0.787  1.2163  1.1486 -1.0103
62842SOL     OW 6517  10.406   8.999   5.472 -0.1148 -0.0464 -0.0356
62842SOL    HW1 6518  10.381   9.090   5.487  2.5474  0.8929 -0.8149
62842SOL    HW2 6519  10.415   8.992   5.377  1.6003 -0.5353  0.1293
62843SOL     OW 6520   9.773   6.642   0.777  0.2749  0.0092 -0.0108
62843SOL    HW1 6521   9.833   6.717   0.771  2.5671 -1.6793  0.2535
62843SOL    HW2 6522   9.780   6.613   0.868 -1.3638  0.0337  0.1495
62844SOL     OW 6523  14.120   5.803   2.565 -0.2764 -0.2880 -0.4612
62844SOL    HW1 6524  14.109   5.897   2.551  0.0126  0.0072  1.0908
62844SOL    HW2 6525  14.030   5.768   2.565 -0.5800  0.3748  1.1813
62845SOL     OW 6526   8.461   7.580   1.969 -0.6014 -0.5461  0.2093
62845SOL    HW1 6527   8.482   7.486   1.966 -0.2051 -0.5133  1.3881
62845SOL    HW2 6528   8.424   7.599   1.883  0.8080 -1.4374 -0.6423
62846SOL     OW 6529  12.700  11.301   0.369  0.3388  0.6205 -0.2213
62846SOL    HW1 6530  12.788  11.279   0.339  0.8690 -0.9939  2.2072
62846SOL    HW2 6531  12.690  11.252   0.451 -2.9815  0.4163 -0.6138
62847SOL     OW 6532  14.074   9.331   4.740  0.6663  0.4985 -0.4774
62847SOL    HW1 6533  14.078   9.249   4.690 -0.6906 -0.9599  1.5869
62847SOL    HW2 6534  14.138   9.319   4.810 -0.8283  0.3357  0.9282
62848SOL     OW 6535   7.071   2.293   9.504  0.0983  0.1039  0.1573
62848SOL    HW1 6536   7.057   2.207   9.545  0.5965 -0.3597 -0.6181
62848SOL    HW2 6537   7.145   2.331   9.551  0.0656 -0.0197  0.3101
62849SOL     OW 6538  12.451   3.710   4.200 -1.0940 -0.2160  0.1754
62849SOL    HW1 6539  12.374   3.676   4.153 -1.1916  0.7674 -0.4071
62849SOL    HW2 6540  12.496   3.765   4.136  0.7843 -1.7107  0.1227
62850SOL     OW 6541   0.626   2.003   8.882  0.4187  0.1325  0.4222
62850SOL    HW1 6542   0.606   2.096   8.880 -0.3184 -0.0065 -2.1031
62850SOL    HW2 6543   0.715   1.996   8.846  0.1005 -0.1861 -0.3238
62851SOL     OW 6544  10.019   1.377   3.759 -0.2386  0.3399 -0.0262
62851SOL    HW1 6545   9.935   1.415   3.731  0.1207  1.2637  0.1202
62851SOL    HW2 6546  10.040   1.423   3.840  0.6672  0.5082 -0.3438
62852SOL     OW 6547   6.604  11.371   1.216 -0.2075  0.3893  0.3679
62852SOL    HW1 6548   6.632  11.280   1.224  1.0596  0.7756  0.4390
62852SOL    HW2 6549   6.587  11.399   1.306  0.7090  0.6116  0.4819
62853SOL     OW 6550  13.998   5.896   9.629  0.3109  0.2350 -0.2141
62853SOL    HW1 6551  13.997   5.912   9.534  3.2866 -0.5179 -0.4684
62853SOL    HW2 6552  14.040   5.973   9.666 -0.3314  0.2706  0.4602
62854SOL     OW 6553  10.145   9.146  13.694 -1.0029  0.1008  0.7397
62854SOL    HW1 6554  10.210   9.216  13.698 -1.4012  0.3991  3.6388
62854SOL    HW2 6555  10.196   9.066  13.708 -0.9559  0.0838  0.4876
62855SOL     OW 6556   1.404   8.862   8.764  0.0456  0.5024  0.3742
62855SOL    HW1 6557   1.331   8.800   8.766  0.6238 -0.2150 -0.4386
62855SOL    HW2 6558   1.482   8.808   8.752  0.4087  1.4511 -2.1721
62856SOL     OW 6559   4.771   6.028   4.788 -0.3944  0.1350  0.6693
62856SOL    HW1 6560   4.707   5.958   4.803  0.5146 -1.0253 -0.6534
62856SOL    HW2 6561   4.746   6.064   4.702  0.4718 -0.0548  0.3339
62857SOL     OW 6562   7.070   3.741   1.070 -0.2334  0.5185 -0.3222
62857SOL    HW1 6563   7.142   3.766   1.127  0.1963 -0.3752 -0.4660
62857SOL    HW2 6564   7.047   3.823   1.025  0.5089  0.8736 -0.0825
62858SOL     OW 6565  10.148   5.927   3.266 -0.1821 -0.0155 -0.2541
62858SOL    HW1 6566  10.240   5.924   3.290  0.2866 -0.7561 -1.9813
62858SOL    HW2 6567  10.138   5.859   3.200 -1.8390  0.4540 -0.5419
62859SOL     OW 6568   2.146  10.232   6.087  0.0790  0.3046  0.1174
62859SOL    HW1 6569   2.215  10.269   6.033  0.6581  0.6091  1.0549
62859SOL    HW2 6570   2.075  10.296   6.083 -0.0466  0.1344 -0.5953
62860SOL     OW 6571  10.478   0.674   7.936 -0.5900 -0.0329 -0.0370
62860SOL    HW1 6572  10.468   0.758   7.982  0.3505  0.3472 -0.5112
62860SOL    HW2 6573  10.425   0.685   7.856 -0.2358  0.2179 -0.2396
62861SOL     OW 6574   4.158   4.427  13.788  0.3511 -0.3757  0.4782
62861SOL    HW1 6575   4.221   4.397  13.722  0.6247  1.6534 -0.2652
62861SOL    HW2 6576   4.208   4.429  13.869  1.3370  1.2967 -0.1196
62862SOL     OW 6577  10.999   7.794  11.385  0.4083  0.1859 -0.4725
62862SOL    HW1 6578  10.921   7.749  11.417 -0.4441  2.4489  0.8090
62862SOL    HW2 6579  11.065   7.779  11.452  0.9113 -1.1286 -1.2186
62863SOL     OW 6580   2.877   6.713  10.652 -0.2976 -0.2098  0.1470
62863SOL    HW1 6581   2.861   6.701  10.746 -0.3149  1.0867  0.3254
62863SOL    HW2 6582   2.851   6.803  10.635 -1.8773 -0.9056 -1.4558
62864SOL     OW 6583   0.596   2.013   4.750  0.0478 -0.0857  0.2859
62864SOL    HW1 6584   0.656   2.085   4.731 -1.3129  0.9270 -0.3990
62864SOL    HW2 6585   0.634   1.937   4.705  0.6010  0.6263 -0.4873
62865SOL     OW 6586   2.244   4.806   6.164  0.6689 -0.3236  0.2084
62865SOL    HW1 6587   2.313   4.840   6.221  0.3284 -0.1095  0.5028
62865SOL    HW2 6588   2.212   4.883   6.117 -0.6868 -0.0378  1.5004
62866SOL     OW 6589   2.754   1.784  11.179 -0.1078  0.3865  0.5096
62866SOL    HW1 6590   2.722   1.698  11.151  1.2231  0.3812 -1.1439
62866SOL    HW2 6591   2.715   1.846  11.117 -0.1265  0.8464  0.9683
62867SOL     OW 6592   8.094   5.896  11.466  0.4049 -0.7511  0.1509
62867SOL    HW1 6593   8.136   5.822  11.511  0.6782 -0.6780  0.0182
62867SOL    HW2 6594   8.155   5.968  11.477  0.5291 -0.7627 -0.4350
62868SOL     OW 6595   1.553  11.753  13.470 -0.5515  0.3905 -0.4160
62868SOL    HW1 6596   1.555  11.747  13.565  1.0201  0.8285 -0.3921
62868SOL    HW2 6597   1.584  11.842  13.450  0.5179 -0.1532 -1.3486
62869SOL     OW 6598   5.621   8.907   1.195  0.5662  0.3588 -0.2002
62869SOL    HW1 6599   5.538   8.886   1.151  0.2951  2.4067 -0.7545
62869SOL    HW2 6600   5.683   8.920   1.124  0.9248  0.5669  0.1497
62870SOL     OW 6601   9.361   8.312   6.879  0.6598  0.2608  0.1748
62870SOL    HW1 6602   9.304   8.235   6.883  1.6502 -0.5120 -0.3785
62870SOL    HW2 6603   9.441   8.281   6.838  0.8692  1.7164 -0.5696
62871SOL     OW 6604   0.579   4.774   9.273  0.0185 -0.0061  0.0253
62871SOL    HW1 6605   0.629   4.731   9.344 -0.3857  0.2905  0.4975
62871SOL    HW2 6606   0.489   4.745   9.287  0.2533 -1.8533 -1.7971
62872SOL     OW 6607   6.652  10.949   8.200  0.1364  0.3292  0.1453
62872SOL    HW1 6608   6.713  10.954   8.126  0.4345  0.6734  0.4080
62872SOL    HW2 6609   6.694  11.002   8.268  1.1357 -2.0332  1.4769
62873SOL     OW 6610  13.494  11.344   3.641  0.5573  0.2364 -0.3187
62873SOL    HW1 6611  13.526  11.382   3.559 -1.3247  1.7419 -0.4300
62873SOL    HW2 6612  13.519  11.408   3.708  1.1925 -0.4936  0.1564
62874SOL     OW 6613   6.928   2.562   7.348  0.1119  0.1135 -0.5591
62874SOL    HW1 6614   6.850   2.551   7.402  0.7583 -0.1298  0.3533
62874SOL    HW2 6615   7.001   2.557   7.410  0.8553  0.2865 -1.3984
62875SOL     OW 6616   4.031  12.711  10.047  0.3193  0.6268 -0.6265
62875SOL    HW1 6617   4.007  12.795  10.009 -1.2214  0.3607 -0.2977
62875SOL    HW2 6618   4.040  12.653   9.972 -0.8118  0.5682 -0.7410
62876SOL     OW 6619  13.682  13.046  11.013  0.1414 -0.2316  0.2095
62876SOL    HW1 6620  13.649  13.062  10.925  0.3785 -3.2310 -0.5243
62876SOL    HW2 6621  13.638  13.111  11.067 -0.0371  1.6836 -2.0691
62877SOL     OW 6622   0.707   2.317   3.297  0.3693  0.3231  0.3177
62877SOL    HW1 6623   0.681   2.229   3.325  1.0526 -0.0976 -0.3280
62877SOL    HW2 6624   0.801   2.310   3.281 -0.2619 -0.2415 -4.6257
62878SOL     OW 6625  12.395   4.994   4.788  0.5652 -0.4814  0.6720
62878SOL    HW1 6626  12.476   5.009   4.739  0.2877 -0.0313  0.3394
62878SOL    HW2 6627  12.400   5.053   4.863 -0.8304  1.9403 -0.9922
62879SOL     OW 6628   7.241   1.892   7.314 -0.3261  0.7348 -0.5260
62879SOL    HW1 6629   7.276   1.853   7.393  0.5558 -1.6847 -1.9991
62879SOL    HW2 6630   7.181   1.960   7.345 -0.1848 -0.2610  2.1780
62880SOL     OW 6631   8.148   8.189   2.328 -0.5746  0.1156 -0.4233
62880SOL    HW1 6632   8.132   8.096   2.338 -0.7150  0.0832 -0.8885
62880SOL    HW2 6633   8.226   8.207   2.380 -0.3116 -0.3389 -0.6533
62881SOL     OW 6634   6.365   8.553   0.077  0.0108  0.1265 -0.4142
62881SOL    HW1 6635   6.445   8.557   0.024 -1.4215 -0.8163 -2.8046
62881SOL    HW2 6636   6.326   8.469   0.055 -1.0813  0.0385  1.6252
62882SOL     OW 6637   3.144   5.293   6.637  0.3986  0.2238 -0.2094
62882SOL    HW1 6638   3.100   5.208   6.629 -2.5037  1.2738  2.4395
62882SOL    HW2 6639   3.078   5.357   6.611  1.6909  1.7911  0.1886
62883SOL     OW 6640  13.904   0.204   4.205 -0.3901  0.3004 -0.0426
62883SOL    HW1 6641  13.963   0.199   4.129  0.2445  1.3048  0.3620
62883SOL    HW2 6642  13.946   0.267   4.263 -0.8915 -0.4368  1.1384
62884SOL     OW 6643   5.058   6.501   6.030  0.2794  0.0667  0.3553
62884SOL    HW1 6644   5.133   6.445   6.011  1.6284  2.0523 -0.5128
62884SOL    HW2 6645   5.011   6.455   6.100  1.2883 -2.1047 -0.3085
62885SOL     OW 6646   9.297  11.601   5.352  0.0044  0.1387 -0.2699
62885SOL    HW1 6647   9.372  11.578   5.296 -0.6456  0.3584 -1.2604
62885SOL    HW2 6648   9.282  11.523   5.405  2.1024  0.7214  1.3331
62886SOL     OW 6649  13.193   6.400  13.638 -0.3438 -0.5008  0.1002
62886SOL    HW1 6650  13.151   6.342  13.574 -0.5654  0.2767 -0.4775
62886SOL    HW2 6651  13.217   6.342  13.710 -0.9661 -1.2374 -0.2608
62887SOL     OW 6652  13.418   7.851  13.022 -0.1521 -0.0269 -0.0679
62887SOL    HW1 6653  13.495   7.892  12.983 -0.5293  0.4137 -0.3631
62887SOL    HW2 6654  13.344   7.895  12.981 -0.5754 -1.2607 -0.6655
62888SOL     OW 6655   3.218   1.421  12.289  0.0016 -0.5060  0.3131
62888SOL    HW1 6656   3.312   1.406  12.293  0.0396 -0.3691 -0.0017
62888SOL    HW2 6657   3.207   1.486  12.219 -0.3746 -1.0009 -0.1022
62889SOL     OW 6658  13.924   5.166   9.728 -0.1910 -0.9591  0.0590
62889SOL    HW1 6659  13.940   5.210   9.811  0.9155  0.4899 -0.8768
62889SOL    HW2 6660  13.854   5.104   9.747 -2.3752  1.6645  1.3226
62890SOL     OW 6661   0.828  12.328   6.936  0.3986 -0.0780  0.0191
62890SOL    HW1 6662   0.812  12.244   6.893 -2.4163  0.6467 -0.5207
62890SOL    HW2 6663   0.810  12.310   7.029 -1.7005  0.1964 -0.2872
62891SOL     OW 6664   8.192   8.752   4.236  0.5987  0.5129 -0.3243
62891SOL    HW1 6665   8.218   8.678   4.291 -0.0071  0.9951  0.6448
62891SOL    HW2 6666   8.202   8.828   4.293 -0.9806  0.9233 -0.5440
62892SOL     OW 6667   1.564   0.188   5.425  0.1528  0.1586 -0.6090
62892SOL    HW1 6668   1.492   0.125   5.418  0.1432 -0.4187  2.7981
62892SOL    HW2 6669   1.522   0.274   5.416 -0.4454 -0.2162 -1.5544
62893SOL     OW 6670   4.561  12.138  10.535 -0.5586 -1.0207 -0.2170
62893SOL    HW1 6671   4.472  12.144  10.499  0.0683  0.6892 -1.6400
62893SOL    HW2 6672   4.617  12.172  10.465  1.3070 -2.6766  0.3917
62894SOL     OW 6673   5.763   6.724   2.093  0.4109  0.1379  0.3442
62894SOL    HW1 6674   5.776   6.629   2.098 -0.6474 -0.2055 -2.1629
62894SOL    HW2 6675   5.714   6.738   2.012  0.4559  2.8452  0.6828
62895SOL     OW 6676   8.393   5.175   0.831  0.1252  0.2834  0.0770
62895SOL    HW1 6677   8.359   5.264   0.830 -0.3170  0.1470  1.4687
62895SOL    HW2 6678   8.377   5.142   0.742 -1.4054  0.9563  0.0862
62896SOL     OW 6679   9.062   3.402   8.139 -0.6765  0.2701 -0.2746
62896SOL    HW1 6680   9.137   3.349   8.167 -0.5069  1.1497  1.0614
62896SOL    HW2 6681   8.988   3.368   8.190 -0.4629  1.5950  0.9823
62897SOL     OW 6682   1.405   2.443   0.530 -0.5211  0.2878  0.5638
62897SOL    HW1 6683   1.416   2.512   0.465  0.6927 -1.2416 -0.9689
62897SOL    HW2 6684   1.414   2.486   0.614  2.1554  1.7221 -0.3566
62898SOL     OW 6685   0.108   0.656  10.677  0.2231 -0.1982  0.2824
62898SOL    HW1 6686   0.144   0.648  10.589 -3.5711 -0.0335 -1.4830
62898SOL    HW2 6687   0.068   0.743  10.679 -1.6664 -1.0303  1.3057
62899SOL     OW 6688  11.888   8.808   0.805 -0.2988 -0.1222  0.0304
62899SOL    HW1 6689  11.907   8.900   0.819 -0.3795 -0.1388  0.2458
62899SOL    HW2 6690  11.924   8.789   0.718 -0.8644  0.2710 -0.2936
62900SOL     OW 6691   6.999   2.522   1.048  0.2213 -0.2928  0.0316
62900SOL    HW1 6692   6.944   2.501   1.123  0.2432 -0.8062 -0.0957
62900SOL    HW2 6693   6.937   2.528   0.974  0.2766 -0.4015 -0.0237
62901SOL     OW 6694   6.131   9.163   9.987 -0.5478 -0.4851 -0.7453
62901SOL    HW1 6695   6.126   9.188  10.079 -0.9020  2.7714 -1.5062
62901SOL    HW2 6696   6.057   9.104   9.974 -1.0870 -0.2046  0.8406
62902SOL     OW 6697   3.273  10.319   6.479 -0.4227 -0.0074 -0.6107
62902SOL    HW1 6698   3.356  10.285   6.445 -0.5716 -0.9576 -0.0541
62902SOL    HW2 6699   3.284  10.318   6.574 -0.8762  0.3830 -0.5498
62903SOL     OW 6700   1.030  10.835  10.560  0.1004  0.0889  0.8171
62903SOL    HW1 6701   1.097  10.790  10.611 -0.3590 -0.9747  0.5020
62903SOL    HW2 6702   0.959  10.853  10.622 -0.1202 -0.4916  0.7385
62904SOL     OW 6703  12.552  11.073   5.727  0.7602  0.3706 -0.4533
62904SOL    HW1 6704  12.583  11.151   5.772  1.4264 -0.0003 -0.2689
62904SOL    HW2 6705  12.591  11.000   5.775 -0.1339 -0.0967 -0.4103
62905SOL     OW 6706   4.319   3.924  12.666 -0.0792  0.0255 -0.0315
62905SOL    HW1 6707   4.233   3.963  12.654  0.2288  0.7557  0.0651
62905SOL    HW2 6708   4.329   3.865  12.591 -0.8313 -0.3998  0.1916
62906SOL     OW 6709   6.119   3.135   3.316  0.1562 -0.2303  0.7079
62906SOL    HW1 6710   6.071   3.055   3.335 -0.8855 -0.1036 -1.2086
62906SOL    HW2 6711   6.115   3.144   3.221  1.8969  1.0969  0.7121
62907SOL     OW 6712   0.596  11.300   6.119  0.0229  0.4835 -0.4118
62907SOL    HW1 6713   0.656  11.276   6.048 -0.7888 -1.5026 -0.4944
62907SOL    HW2 6714   0.635  11.261   6.197 -0.6853 -0.0051 -0.3052
62908SOL     OW 6715   7.345  10.219   4.001 -0.1262  0.5081  0.4133
62908SOL    HW1 6716   7.294  10.220   3.920  1.6418  0.7802 -0.7576
62908SOL    HW2 6717   7.340  10.129   4.032  0.7091 -0.0934 -1.0759
62909SOL     OW 6718  11.690   3.869   5.411  0.2501  0.1312 -0.0359
62909SOL    HW1 6719  11.666   3.802   5.475  1.3335 -2.2592 -1.9775
62909SOL    HW2 6720  11.785   3.877   5.419 -0.0121  2.9778  1.4755
62910SOL     OW 6721   1.113   3.692   1.177 -0.7122 -0.0096 -0.4939
62910SOL    HW1 6722   1.031   3.730   1.206 -0.6829  0.2063 -0.6863
62910SOL    HW2 6723   1.091   3.603   1.151 -0.6035 -0.4409  0.8432
62911SOL     OW 6724  11.048   8.715  11.722  0.1492  0.0960 -0.3136
62911SOL    HW1 6725  11.024   8.759  11.640  1.5332  0.4340 -0.5739
62911SOL    HW2 6726  11.143   8.703  11.715  0.3357  0.3571  1.3479
62912SOL     OW 6727   9.316   3.177   2.108  0.0819 -0.0572  0.3496
62912SOL    HW1 6728   9.388   3.115   2.116  0.6758  0.6577  0.6945
62912SOL    HW2 6729   9.250   3.145   2.170 -0.7592 -1.8076 -1.3276
62913SOL     OW 6730  11.511  11.862   7.997 -0.5780 -0.4396  0.2181
62913SOL    HW1 6731  11.589  11.911   7.971 -2.3086  1.6866 -1.2646
62913SOL    HW2 6732  11.546  11.781   8.036  2.3547  0.9709  0.7835
62914SOL     OW 6733   8.876  13.930  13.327  0.2149 -0.1643  0.1132
62914SOL    HW1 6734   8.857  13.968  13.412  0.3527 -0.2105  0.1652
62914SOL    HW2 6735   8.867  13.836  13.340 -1.2239 -0.1010 -0.2849
62915SOL     OW 6736   3.753   0.982  10.711  0.1108 -0.2064 -0.3917
62915SOL    HW1 6737   3.823   1.044  10.693  1.0189 -0.8114  0.8995
62915SOL    HW2 6738   3.790   0.922  10.775 -1.0864 -1.4685 -0.8311
62916SOL     OW 6739   9.543  13.223  11.206 -0.2409  0.5610  0.0871
62916SOL    HW1 6740   9.505  13.134  11.201 -0.9610  0.9178 -2.0436
62916SOL    HW2 6741   9.565  13.234  11.298 -0.1879 -1.8137  0.4386
62917SOL     OW 6742  11.607  12.186   8.886  0.4015  0.0229 -0.1342
62917SOL    HW1 6743  11.580  12.132   8.960  0.9461 -1.2421 -0.8401
62917SOL    HW2 6744  11.604  12.276   8.920 -1.9383 -0.2750  0.6340
62918SOL     OW 6745   3.154  12.933   7.754  0.3215  0.4323  0.1635
62918SOL    HW1 6746   3.086  12.971   7.809 -1.1309  0.0535 -1.2668
62918SOL    HW2 6747   3.130  12.959   7.665  0.6355 -1.7766 -0.6335
62919SOL     OW 6748   9.509   0.204   0.857  0.2118 -0.0074  0.1442
62919SOL    HW1 6749   9.461   0.156   0.925 -0.5121 -1.3088 -1.2322
62919SOL    HW2 6750   9.508   0.146   0.781  3.2170  0.3000 -0.2388
62920SOL     OW 6751   1.176   1.884  11.352 -0.0515 -0.5008 -0.4491
62920SOL    HW1 6752   1.211   1.967  11.385 -1.2385  0.5032 -1.6120
62920SOL    HW2 6753   1.134   1.907  11.269 -4.3593 -1.3320  1.2239
62921SOL     OW 6754   5.085  10.887   1.156 -0.4450  0.0435 -0.2696
62921SOL    HW1 6755   5.009  10.933   1.119 -0.6893  1.8174  2.1416
62921SOL    HW2 6756   5.048  10.835   1.228  0.3338 -1.1813 -0.7227
62922SOL     OW 6757   4.656   4.781   0.291 -0.1589  0.0143 -0.4540
62922SOL    HW1 6758   4.698   4.737   0.365 -1.9636 -1.5705 -0.3029
62922SOL    HW2 6759   4.574   4.816   0.327 -0.7067 -0.1280 -1.5223
62923SOL     OW 6760   9.767   3.231   6.638  0.3682  0.1514 -0.4509
62923SOL    HW1 6761   9.797   3.297   6.700 -1.2958 -0.1162  0.7032
62923SOL    HW2 6762   9.793   3.147   6.677 -0.6694 -0.0165 -0.0877
62924SOL     OW 6763   4.223   0.581   0.486 -0.0340 -0.3596  0.1158
62924SOL    HW1 6764   4.139   0.551   0.521  0.8956 -1.5435  1.4473
62924SOL    HW2 6765   4.247   0.515   0.422  0.2660 -0.4704  0.3418
62925SOL     OW 6766  11.773   9.260   8.445 -0.3744  0.1254  0.5308
62925SOL    HW1 6767  11.811   9.260   8.356 -1.7090  0.5921 -0.0641
62925SOL    HW2 6768  11.735   9.173   8.454 -3.1458  1.0937 -0.7047
62926SOL     OW 6769   5.646   0.910   5.218 -0.0167  0.2558 -0.0357
62926SOL    HW1 6770   5.586   0.985   5.215  0.6276  0.7640 -0.4628
62926SOL    HW2 6771   5.703   0.927   5.293  0.1884  0.2377 -0.1877
62927SOL     OW 6772   0.544  12.197  10.272  0.4016 -0.7011  0.0675
62927SOL    HW1 6773   0.601  12.195  10.195 -0.0299  0.3903 -0.2924
62927SOL    HW2 6774   0.571  12.274  10.321  0.2467 -1.0314  0.6921
62928SOL     OW 6775  13.121  12.353  12.495  0.1478 -0.2212 -0.3473
62928SOL    HW1 6776  13.163  12.357  12.581  0.2035  0.2761 -0.3937
62928SOL    HW2 6777  13.029  12.374  12.513  0.3297  0.7765 -0.5227
62929SOL     OW 6778   7.843   0.029   9.809 -0.7606  0.2603 -0.7166
62929SOL    HW1 6779   7.873  -0.024   9.883  0.4947  2.5150  0.5038
62929SOL    HW2 6780   7.922   0.041   9.755 -1.5568 -0.9711 -2.2512
62930SOL     OW 6781  11.148  12.316   2.699 -0.4625  0.3903  0.4825
62930SOL    HW1 6782  11.072  12.262   2.678  0.1250 -1.1727  2.1452
62930SOL    HW2 6783  11.222  12.271   2.657 -0.1952  0.8486  0.4515
62931SOL     OW 6784   2.987   1.613  11.630 -0.1175 -0.7204  0.0922
62931SOL    HW1 6785   2.910   1.656  11.592 -0.0728 -1.0063 -0.3268
62931SOL    HW2 6786   2.955   1.527  11.657  0.1813 -1.0544 -0.5959
62932SOL     OW 6787  12.466   1.511  13.774 -0.2568 -0.3632  0.3098
62932SOL    HW1 6788  12.383   1.506  13.820  0.1195  0.2392  1.0690
62932SOL    HW2 6789  12.514   1.433  13.803 -1.6993 -2.4920 -2.5180
62933SOL     OW 6790   1.287   8.727  13.218 -0.1740 -0.6546  0.1414
62933SOL    HW1 6791   1.300   8.688  13.131  2.4861 -1.1184  0.6845
62933SOL    HW2 6792   1.259   8.654  13.273  0.3272 -0.8358  0.1578
62934SOL     OW 6793   6.733  10.481   7.062 -0.6062 -0.2426  0.6166
62934SOL    HW1 6794   6.796  10.547   7.089  0.0707 -0.3987 -0.5158
62934SOL    HW2 6795   6.754  10.463   6.970 -1.3720 -1.3573  0.6301
62935SOL     OW 6796   7.198   1.797   0.674 -0.2409  0.5515  0.0731
62935SOL    HW1 6797   7.219   1.753   0.757 -2.6231 -0.9323  0.0075
62935SOL    HW2 6798   7.152   1.730   0.623 -0.1497  1.8877 -1.8580
62936SOL     OW 6799   1.680   9.190   4.769 -0.6645  0.1278 -0.0691
62936SOL    HW1 6800   1.733   9.114   4.793 -2.1260 -0.8434  0.1497
62936SOL    HW2 6801   1.677   9.189   4.674 -0.1857  0.2806 -0.0911
62937SOL     OW 6802   9.141   6.184   7.338 -0.4582  0.0876  0.3186
62937SOL    HW1 6803   9.187   6.187   7.254  0.7526 -1.2622  0.8993
62937SOL    HW2 6804   9.056   6.145   7.317 -0.1574 -0.2516 -0.2757
62938SOL     OW 6805  13.469   0.082   8.646  0.2864 -0.2013 -0.1123
62938SOL    HW1 6806  13.387   0.116   8.682  1.6244  0.1942  2.9038
62938SOL    HW2 6807  13.514   0.159   8.612  1.1730  0.3593  2.1680
62939SOL     OW 6808  11.325   4.653  11.510 -0.0347 -0.0956  0.3286
62939SOL    HW1 6809  11.380   4.575  11.522  0.4446  0.2953  0.7871
62939SOL    HW2 6810  11.385   4.718  11.474 -0.2732  0.2448  0.5447
62940SOL     OW 6811  13.873   0.589   8.888 -0.2218 -0.0240  0.3078
62940SOL    HW1 6812  13.869   0.607   8.982  0.3370  1.6978  0.0341
62940SOL    HW2 6813  13.963   0.610   8.864 -0.0891 -1.3873 -0.4552
62941SOL     OW 6814  10.869   8.507   3.682 -0.5873  0.2172  0.0823
62941SOL    HW1 6815  10.950   8.492   3.732 -0.5690  0.2204  0.0546
62941SOL    HW2 6816  10.799   8.495   3.746 -0.7148 -2.2929 -0.4351
62942SOL     OW 6817   1.495  12.565   9.015 -0.3226 -0.1111  0.3590
62942SOL    HW1 6818   1.416  12.599   9.058 -1.1075 -0.6653 -0.6119
62942SOL    HW2 6819   1.497  12.609   8.930  1.2172  0.9756  0.9221
62943SOL     OW 6820   2.799  11.355   4.604 -0.6078  0.2767  0.3358
62943SOL    HW1 6821   2.842  11.328   4.685  1.9686  0.3445 -0.8911
62943SOL    HW2 6822   2.730  11.415   4.632  1.3968  1.7962  2.4499
62944SOL     OW 6823   2.278  12.914   9.218  0.1845  0.1491 -0.4279
62944SOL    HW1 6824   2.332  12.849   9.262  0.4994  0.9826  0.4676
62944SOL    HW2 6825   2.339  12.986   9.198 -0.1499  0.1821 -1.3886
62945SOL     OW 6826  10.587   9.660   9.808 -0.2989 -0.2518  0.1714
62945SOL    HW1 6827  10.513   9.720   9.803 -0.0456  0.0458 -0.0640
62945SOL    HW2 6828  10.553   9.576   9.776 -0.8847 -0.4622  1.3129
62946SOL     OW 6829   7.380   9.434  12.888 -0.0238 -0.3442 -0.4144
62946SOL    HW1 6830   7.307   9.429  12.949 -0.0436 -1.8925 -0.5137
62946SOL    HW2 6831   7.455   9.401  12.937  0.5253  0.7746 -0.4645
62947SOL     OW 6832  11.000  12.890  11.624  0.5724  0.0463  0.2518
62947SOL    HW1 6833  11.032  12.976  11.651  1.7188 -0.6591  1.2452
62947SOL    HW2 6834  11.067  12.856  11.565 -0.7948  0.5877 -1.7249
62948SOL     OW 6835   9.859   6.811   1.736  0.2959  0.2704 -0.3162
62948SOL    HW1 6836   9.811   6.735   1.769 -2.9545  0.9555 -3.0362
62948SOL    HW2 6837   9.817   6.886   1.778 -0.5541  0.8373 -2.0958
62949SOL     OW 6838   2.722   3.566  10.905  0.2515  0.0965  0.2590
62949SOL    HW1 6839   2.758   3.492  10.857 -1.8196 -0.5694 -0.3540
62949SOL    HW2 6840   2.734   3.543  10.997 -5.3572 -3.9790  0.4491
62950SOL     OW 6841   3.612   5.958   4.213  0.5222  0.2789  0.0589
62950SOL    HW1 6842   3.676   6.030   4.211 -0.4047  1.2133  1.6175
62950SOL    HW2 6843   3.632   5.911   4.294  1.1092 -1.2494 -0.9464
62951SOL     OW 6844   3.289   8.281   8.335  0.3115 -0.1680  0.1621
62951SOL    HW1 6845   3.351   8.219   8.372  0.0577 -0.8062 -0.4704
62951SOL    HW2 6846   3.342   8.356   8.310  0.5357  0.1435  1.4883
62952SOL     OW 6847   5.708   0.853   9.615  0.4769 -0.2171 -0.4707
62952SOL    HW1 6848   5.715   0.948   9.611  1.4970 -0.1953  1.0496
62952SOL    HW2 6849   5.700   0.826   9.523 -1.3696  1.4081 -0.8505
62953SOL     OW 6850   4.377  11.312   8.217  0.5518  0.3998  0.8767
62953SOL    HW1 6851   4.390  11.287   8.308 -1.1502  0.9403  1.3188
62953SOL    HW2 6852   4.436  11.256   8.167  2.6839  1.1608  2.4027
62954SOL     OW 6853   8.613   0.363   0.355 -0.1560 -0.6026  0.2585
62954SOL    HW1 6854   8.671   0.396   0.424  0.9930  0.0545 -0.9651
62954SOL    HW2 6855   8.553   0.435   0.337  0.1117 -0.4401 -0.0079
62955SOL     OW 6856  10.123   4.285   9.887  0.1581  0.0756 -0.1019
62955SOL    HW1 6857  10.143   4.316   9.799 -0.3856  2.0203  0.4188
62955SOL    HW2 6858  10.200   4.308   9.939 -0.3779  0.8702  0.3582
62956SOL     OW 6859   6.154  11.191   9.840 -0.3874 -0.3091  0.1415
62956SOL    HW1 6860   6.183  11.254   9.907 -0.5435 -0.1411  0.0523
62956SOL    HW2 6861   6.134  11.245   9.764  0.9074 -0.5992 -0.4431
62957SOL     OW 6862   9.556   7.229  10.718 -0.1649  0.5482 -0.7682
62957SOL    HW1 6863   9.486   7.199  10.775  0.1191 -0.5057 -0.9513
62957SOL    HW2 6864   9.559   7.324  10.731 -1.2860  0.5422 -0.3933
62958SOL     OW 6865  11.720   5.127   7.920  0.5193  0.2433 -0.1375
62958SOL    HW1 6866  11.692   5.180   7.846  1.3899  1.7998  0.5914
62958SOL    HW2 6867  11.812   5.108   7.902  0.3698 -0.5446 -0.1063
62959SOL     OW 6868  13.240   6.980   9.696  0.1197 -0.0100 -0.2950
62959SOL    HW1 6869  13.245   6.894   9.654  1.1706 -0.0956 -0.0279
62959SOL    HW2 6870  13.228   6.961   9.789  1.8180  0.0800 -0.0346
62960SOL     OW 6871   8.879   8.339   7.492  0.6185  0.4374 -0.0057
62960SOL    HW1 6872   8.863   8.258   7.443 -0.0742  0.5798 -0.0341
62960SOL    HW2 6873   8.974   8.351   7.489  1.0839 -1.8234  2.2937
62961SOL     OW 6874  11.469   8.233   1.891 -0.4915 -0.3186 -0.2171
62961SOL    HW1 6875  11.499   8.304   1.947  1.4889  0.5495 -2.2411
62961SOL    HW2 6876  11.490   8.153   1.939  0.7820  0.4077  0.4650
62962SOL     OW 6877  13.120   0.510   3.223 -0.6903  0.1857 -0.1530
62962SOL    HW1 6878  13.032   0.474   3.233 -0.9039  0.9958  1.1136
62962SOL    HW2 6879  13.107   0.593   3.177 -0.7601  0.8956  1.0958
62963SOL     OW 6880  14.023   8.906  13.284  0.3442 -0.5452  0.0122
62963SOL    HW1 6881  14.083   8.967  13.240  0.8700 -1.2469 -0.2739
62963SOL    HW2 6882  14.068   8.883  13.365  0.8285 -1.6276 -0.5302
62964SOL     OW 6883   4.595   3.534   1.454 -0.0714  0.5587 -0.2152
62964SOL    HW1 6884   4.547   3.479   1.391  0.0091 -0.0277  0.2352
62964SOL    HW2 6885   4.682   3.494   1.460 -0.2871  0.2178  0.7663
62965SOL     OW 6886   4.969   5.215   8.042 -0.3423  0.0522 -0.2396
62965SOL    HW1 6887   5.060   5.205   8.015 -1.2262 -1.1508 -3.1722
62965SOL    HW2 6888   4.953   5.309   8.036  0.7137  0.2920  0.4056
62966SOL     OW 6889   9.376   1.016   7.552 -0.0294  0.6126  0.2265
62966SOL    HW1 6890   9.293   0.998   7.507 -1.1656  2.5245  1.4001
62966SOL    HW2 6891   9.437   1.040   7.483 -0.5923 -0.3177 -0.6139
62967SOL     OW 6892  14.065   4.001   4.233 -0.0786  0.0325 -0.2507
62967SOL    HW1 6893  14.027   3.975   4.317 -0.3247  0.6175 -0.1815
62967SOL    HW2 6894  14.067   4.096   4.235  0.5598  0.0333 -0.6270
62968SOL     OW 6895   8.761   9.525   7.378  0.2471  0.0551  0.9802
62968SOL    HW1 6896   8.849   9.492   7.360  0.9423  2.1114  0.3483
62968SOL    HW2 6897   8.712   9.447   7.406  1.7084 -1.5087 -0.5503
62969SOL     OW 6898   8.089   7.966   6.849  0.0215 -0.2925  0.4903
62969SOL    HW1 6899   8.107   8.051   6.890  0.7582 -0.6563  0.9358
62969SOL    HW2 6900   8.165   7.912   6.871 -0.8100 -1.3243  0.9133
62970SOL     OW 6901  12.917   2.949   8.896 -0.4991  0.0254 -0.2263
62970SOL    HW1 6902  12.944   2.884   8.961  0.7212 -1.7700 -2.3846
62970SOL    HW2 6903  12.993   3.007   8.887 -1.4963  1.6912  1.5125
62971SOL     OW 6904   0.832   2.155  10.227 -0.2419  0.0294 -0.0071
62971SOL    HW1 6905   0.926   2.140  10.235 -0.3110 -0.9048 -0.7020
62971SOL    HW2 6906   0.795   2.067  10.216 -1.2711  0.3185  0.9147
62972SOL     OW 6907   4.003   1.398   1.886  0.4366  0.0222 -0.0879
62972SOL    HW1 6908   3.919   1.385   1.843  0.1096  0.0302  0.5304
62972SOL    HW2 6909   4.036   1.480   1.850  0.3555 -0.1768 -0.6132
62973SOL     OW 6910   2.628   6.701   2.223 -0.1487 -0.0053 -0.1583
62973SOL    HW1 6911   2.691   6.773   2.216  0.4137 -0.6171 -1.7115
62973SOL    HW2 6912   2.682   6.622   2.215 -0.7993 -0.6134  1.1992
62974SOL     OW 6913  11.338  11.665  11.623 -0.4251  0.0161 -0.8308
62974SOL    HW1 6914  11.305  11.699  11.540 -0.2124 -0.4284 -1.1025
62974SOL    HW2 6915  11.316  11.732  11.687 -3.4504 -1.0142 -0.6426
62975SOL     OW 6916  11.246   8.230   1.758 -0.0879 -0.2088 -0.1425
62975SOL    HW1 6917  11.327   8.242   1.807 -0.7534  0.2112  0.9070
62975SOL    HW2 6918  11.196   8.167   1.810  0.4166 -2.1555 -1.8840
62976SOL     OW 6919  12.444  11.003  13.126  0.0366 -0.0046 -0.2450
62976SOL    HW1 6920  12.414  11.006  13.217 -0.1847  0.1279 -0.3235
62976SOL    HW2 6921  12.395  10.930  13.087  0.3442 -0.2476 -0.1811
62977SOL     OW 6922   5.769  13.646   3.977  0.0123  0.1613  0.8433
62977SOL    HW1 6923   5.696  13.651   4.038 -1.8312 -0.4880 -1.1579
62977SOL    HW2 6924   5.782  13.735   3.946 -0.2797  0.2127  0.8651
62978SOL     OW 6925   0.166   6.749   4.387 -0.1216 -0.4336 -0.4063
62978SOL    HW1 6926   0.093   6.769   4.445  1.2343 -1.4365  1.7650
62978SOL    HW2 6927   0.242   6.744   4.445  1.4145 -0.9698 -2.3623
62979SOL     OW 6928   5.049   8.449   4.367  0.3434  0.5341 -0.3752
62979SOL    HW1 6929   4.974   8.461   4.308 -0.7001  1.8376  1.1111
62979SOL    HW2 6930   5.069   8.537   4.398 -0.3281 -0.2095  2.5343
62980SOL     OW 6931   0.501   8.416   9.181  0.0392  0.1841  0.2369
62980SOL    HW1 6932   0.585   8.449   9.214  0.1565  1.4669 -1.2277
62980SOL    HW2 6933   0.502   8.322   9.200  2.6231 -0.1946 -1.3908
62981SOL     OW 6934  10.683  13.051   4.183  0.0796 -0.6774 -0.0606
62981SOL    HW1 6935  10.739  13.068   4.107 -0.6607 -1.7189 -0.8726
62981SOL    HW2 6936  10.607  13.108   4.170  0.6345  0.2582  0.7030
62982SOL     OW 6937  13.321   1.420   2.863 -0.4325  0.1321 -0.2807
62982SOL    HW1 6938  13.406   1.465   2.861  0.8279 -2.1288 -2.1949
62982SOL    HW2 6939  13.285   1.432   2.776 -1.6542  0.2552  0.2284
62983SOL     OW 6940  10.736   1.111   2.721  0.4938  0.2714 -0.0004
62983SOL    HW1 6941  10.675   1.049   2.760  0.5507 -0.7358 -1.4306
62983SOL    HW2 6942  10.691   1.145   2.644  0.2772  2.4187  1.0198
62984SOL     OW 6943   7.391   8.257  10.171 -0.1613  0.4017 -0.3164
62984SOL    HW1 6944   7.480   8.220  10.163  0.3600  1.3610  0.7655
62984SOL    HW2 6945   7.398   8.343  10.131  0.1534  1.6125  2.1938
62985SOL     OW 6946   7.610   2.721  10.916 -0.0921  0.2624  0.4202
62985SOL    HW1 6947   7.582   2.657  10.981  0.5177  0.6935  1.1205
62985SOL    HW2 6948   7.591   2.806  10.956 -0.4284  0.5362 -0.2914
62986SOL     OW 6949   5.583   3.869  11.786  0.3006 -0.0077 -0.0648
62986SOL    HW1 6950   5.659   3.922  11.761  0.7362 -2.0112 -3.5683
62986SOL    HW2 6951   5.508   3.922  11.762  0.6247  0.5011  0.0116
62987SOL     OW 6952   2.167   0.731   9.067 -0.1330  0.6182 -0.1982
62987SOL    HW1 6953   2.102   0.699   9.129  0.7288 -0.9922 -0.0594
62987SOL    HW2 6954   2.248   0.736   9.118  0.2438  0.8198 -0.8061
62988SOL     OW 6955  13.752  13.455   6.460 -0.2901  0.4636 -0.0183
62988SOL    HW1 6956  13.811  13.416   6.525  3.2540  1.9461 -2.0548
62988SOL    HW2 6957  13.794  13.537   6.435 -2.6925  1.0912 -2.5157
62989SOL     OW 6958   0.618   7.992   6.199 -0.7764  0.3041 -0.5822
62989SOL    HW1 6959   0.585   7.903   6.215 -2.4290  0.5887 -2.0735
62989SOL    HW2 6960   0.697   7.998   6.252 -1.1281 -1.7372  0.2784
62990SOL     OW 6961   9.715  13.052   8.016  0.1586  0.8146 -0.5527
62990SOL    HW1 6962   9.657  13.005   8.076  1.1979 -1.2321 -1.0413
62990SOL    HW2 6963   9.707  13.144   8.042 -1.6189  0.3505  0.7868
62991SOL     OW 6964   4.244   4.807   3.049 -1.0244  0.1440  0.3156
62991SOL    HW1 6965   4.302   4.873   3.012  0.0292 -1.0059 -0.1880
62991SOL    HW2 6966   4.174   4.856   3.092  0.1051  1.5690  0.5750
62992SOL     OW 6967  13.479   6.792   6.401  0.3509  0.0507  0.2099
62992SOL    HW1 6968  13.387   6.809   6.423  0.1678 -1.4030  0.6447
62992SOL    HW2 6969  13.528   6.835   6.471 -0.1031 -1.2851  1.3975
62993SOL     OW 6970   5.524  12.662   7.298  0.1606 -0.0728  0.0408
62993SOL    HW1 6971   5.527  12.739   7.354 -1.1912 -0.2916  0.4637
62993SOL    HW2 6972   5.614  12.631   7.294  0.5389  0.8763  0.7639
62994SOL     OW 6973   8.571   7.382   3.798  0.0247  0.3195 -0.2409
62994SOL    HW1 6974   8.610   7.467   3.779  0.9587 -0.0143  0.1442
62994SOL    HW2 6975   8.516   7.397   3.875  0.0840  0.5969 -0.2509
62995SOL     OW 6976  13.495   1.837   2.249 -0.2817  0.1625  0.0510
62995SOL    HW1 6977  13.521   1.751   2.215  0.2033  0.3470 -0.0529
62995SOL    HW2 6978  13.577   1.885   2.258 -0.4552  0.2984  1.0117
62996SOL     OW 6979  11.642  10.047   4.922  0.4003 -0.0716  1.0580
62996SOL    HW1 6980  11.638   9.951   4.921  0.4090 -0.1060  2.3268
62996SOL    HW2 6981  11.715  10.069   4.865 -1.8844 -0.6082 -2.4017
62997SOL     OW 6982  11.529  13.632   2.186 -0.2073  0.5715 -0.2823
62997SOL    HW1 6983  11.449  13.670   2.222 -1.1285 -0.9780 -0.5640
62997SOL    HW2 6984  11.498  13.565   2.125  1.3170  0.6704 -1.2091
62998SOL     OW 6985   4.006   9.442   4.118 -0.3964 -0.3806 -0.2420
62998SOL    HW1 6986   3.995   9.537   4.122  1.3859 -0.1778  0.7830
62998SOL    HW2 6987   3.959   9.416   4.038 -1.5647  1.2291 -0.1266
62999SOL     OW 6988  11.127   7.789   8.322  0.0493  0.2441  0.3333
62999SOL    HW1 6989  11.086   7.797   8.408 -0.1825  0.0149  0.2451
62999SOL    HW2 6990  11.147   7.696   8.314  1.3906  0.4703  0.7454
63000SOL     OW 6991   6.778   4.583   0.958 -0.6655 -0.3634  0.0128
63000SOL    HW1 6992   6.761   4.626   0.874 -0.8836 -0.8974 -0.2188
63000SOL    HW2 6993   6.691   4.560   0.991 -0.9038  2.7101  1.9471
63001SOL     OW 6994  10.657  11.142   6.679 -0.5468  0.0816  0.0512
63001SOL    HW1 6995  10.580  11.141   6.737 -0.2133  0.0824  0.5057
63001SOL    HW2 6996  10.652  11.225   6.633  0.5252  1.2914  1.9489
63002SOL     OW 6997   3.682   0.422  10.722  0.0049  0.3420 -0.3917
63002SOL    HW1 6998   3.631   0.415  10.803  2.7912  2.8283  1.8102
63002SOL    HW2 6999   3.745   0.350  10.727 -0.6168 -0.2709 -1.0657
63003SOL     OW 7000  10.852   8.447   0.564 -1.0632  0.2176 -0.0522
63003SOL    HW1 7001  10.884   8.390   0.494  0.7153 -0.3731  1.1647
63003SOL    HW2 7002  10.920   8.514   0.573 -1.8463  0.9752  0.3335
63004SOL     OW 7003   2.586  10.209   3.503 -0.7127 -0.4226 -0.0071
63004SOL    HW1 7004   2.503  10.241   3.538 -0.6091 -0.7733  0.5679
63004SOL    HW2 7005   2.638  10.288   3.487 -0.9910 -0.2296  0.0488
63005SOL     OW 7006   1.634   3.104   9.093  0.1390  0.1065 -0.5176
63005SOL    HW1 7007   1.584   3.054   9.159  1.4987  0.8187  1.1333
63005SOL    HW2 7008   1.725   3.076   9.106  0.7533  2.0110 -0.4554
63006SOL     OW 7009   4.687  11.021   3.540  0.5267 -0.5130 -0.6687
63006SOL    HW1 7010   4.768  11.059   3.573  0.0075  0.8453 -0.9032
63006SOL    HW2 7011   4.707  10.996   3.450  0.8864 -0.8612 -0.4971
63007SOL     OW 7012   0.790  12.376   1.915  0.2967  0.0000  0.2234
63007SOL    HW1 7013   0.842  12.302   1.945  1.9817  1.0161 -0.0469
63007SOL    HW2 7014   0.746  12.344   1.836  0.8194 -0.7764  0.2343
63008SOL     OW 7015   2.667   1.251   7.413 -0.0026 -0.4194 -0.3789
63008SOL    HW1 7016   2.648   1.263   7.506  0.6117  1.5865 -0.4674
63008SOL    HW2 7017   2.656   1.338   7.375  0.6461 -1.0187 -2.0249
63009SOL     OW 7018  13.123   5.550   0.762  0.0837 -0.2615  0.0993
63009SOL    HW1 7019  13.075   5.469   0.772 -1.3196  0.8489  3.6561
63009SOL    HW2 7020  13.184   5.552   0.836  1.2386  1.2291 -0.8171
63010SOL     OW 7021   0.925   3.723   9.724  0.1138  0.2176 -0.1936
63010SOL    HW1 7022   0.836   3.751   9.706  0.1802  0.5438 -0.0180
63010SOL    HW2 7023   0.921   3.683   9.811  0.3690  1.3359  0.3535
63011SOL     OW 7024  12.171  11.834   8.063 -0.0705  0.0245 -0.1559
63011SOL    HW1 7025  12.223  11.768   8.109  0.9756  1.3711  0.7165
63011SOL    HW2 7026  12.200  11.829   7.972  0.3055 -0.4373 -0.0138
63012SOL     OW 7027  11.802   8.496  13.496 -0.2663  0.2050  0.5233
63012SOL    HW1 7028  11.815   8.417  13.549  0.1610  0.0594  0.2060
63012SOL    HW2 7029  11.791   8.463  13.407  0.0239  0.5085  0.3722
63013SOL     OW 7030   2.359  10.612  10.378 -0.3497 -0.0136  0.8240
63013SOL    HW1 7031   2.318  10.652  10.454  1.2716  1.7236  0.8754
63013SOL    HW2 7032   2.294  10.621  10.308 -1.1192  0.1054  1.5362
63014SOL     OW 7033   1.426   4.001  11.739 -0.2549 -0.4607 -0.5605
63014SOL    HW1 7034   1.391   4.069  11.682 -2.2858  0.1702  1.2764
63014SOL    HW2 7035   1.377   3.922  11.714 -0.4915 -0.3904 -0.3322
63015SOL     OW 7036   3.192   8.940   5.076  0.3768  0.0167  0.6193
63015SOL    HW1 7037   3.254   8.930   5.004 -0.3847  2.0079 -0.4081
63015SOL    HW2 7038   3.123   8.877   5.058  1.5996 -1.5672  1.2697
63016SOL     OW 7039  13.817   6.557   8.341 -0.5609  0.4151 -0.1552
63016SOL    HW1 7040  13.869   6.547   8.420 -0.2996  1.0853 -0.2283
63016SOL    HW2 7041  13.752   6.488   8.345 -0.1424  0.0448  0.3209
63017SOL     OW 7042   3.910   3.410  12.649  0.1917 -0.0428 -0.2372
63017SOL    HW1 7043   3.973   3.342  12.626 -1.8398 -1.6713 -1.2764
63017SOL    HW2 7044   3.964   3.488  12.664  2.7257 -2.0219  2.0216
63018SOL     OW 7045  12.089  12.386  11.581  0.5910 -0.5348 -0.2816
63018SOL    HW1 7046  12.011  12.335  11.561  0.1012  0.3801 -0.7610
63018SOL    HW2 7047  12.162  12.331  11.553  0.1546 -1.5250  0.4314
63019SOL     OW 7048   9.111   1.346  11.936 -0.2662 -0.4843  0.6531
63019SOL    HW1 7049   9.024   1.338  11.897 -0.8782 -1.0377  2.0937
63019SOL    HW2 7050   9.109   1.290  12.013  1.2896 -0.3088  0.8617
63020SOL     OW 7051   1.215   1.093   5.123  0.5319  0.0213 -0.3082
63020SOL    HW1 7052   1.304   1.107   5.093 -0.1082  0.4477 -2.1576
63020SOL    HW2 7053   1.163   1.085   5.042 -1.2172  0.6340  0.6922
63021SOL     OW 7054   8.980   7.801   3.497 -0.4522  0.2431  0.4598
63021SOL    HW1 7055   8.942   7.889   3.498  0.8403  0.8488 -0.9775
63021SOL    HW2 7056   9.070   7.813   3.528 -0.9112 -0.9526  2.4408
63022SOL     OW 7057  13.220   0.316   8.956 -0.2885  0.1143 -0.2463
63022SOL    HW1 7058  13.153   0.381   8.933 -1.4190 -0.7925  0.3342
63022SOL    HW2 7059  13.253   0.285   8.871 -0.4514  0.7356 -0.5403
63023SOL     OW 7060   9.623  12.770   9.823  0.7617  0.5454 -0.1330
63023SOL    HW1 7061   9.642  12.816   9.742  0.2187  0.4629 -0.3124
63023SOL    HW2 7062   9.599  12.840   9.885 -0.0336  0.5092 -0.3969
63024SOL     OW 7063  11.825  13.113   9.493  0.1280 -0.3054 -0.3269
63024SOL    HW1 7064  11.820  13.147   9.404 -0.2143 -1.7811 -0.9054
63024SOL    HW2 7065  11.915  13.131   9.521  0.3561 -0.2036 -1.1262
63025SOL     OW 7066   6.426   2.055   8.624  0.2965  0.4756 -0.6224
63025SOL    HW1 7067   6.437   2.000   8.701  1.5200 -0.5261 -1.4838
63025SOL    HW2 7068   6.515   2.081   8.599 -0.0296  0.3571 -1.9926
63026SOL     OW 7069   5.710   1.006   1.555 -0.0806  0.1610 -0.0190
63026SOL    HW1 7070   5.668   1.091   1.556 -0.8416 -0.1952  1.6176
63026SOL    HW2 7071   5.779   1.012   1.622 -1.2006 -0.9733  1.3055
63027SOL     OW 7072   7.574  13.323   2.977 -0.1600 -0.4879  0.3279
63027SOL    HW1 7073   7.583  13.267   2.899  1.0281  1.6695 -1.2120
63027SOL    HW2 7074   7.490  13.298   3.015 -0.6665 -1.8164 -1.4900
63028SOL     OW 7075   7.216  12.305  12.697 -0.5668  0.3561 -0.1844
63028SOL    HW1 7076   7.130  12.296  12.739 -0.3068 -0.0708  0.2653
63028SOL    HW2 7077   7.197  12.337  12.609 -1.1024  1.6952  0.3885
63029SOL     OW 7078  12.494   4.838   6.637  0.5193  0.1799 -0.8943
63029SOL    HW1 7079  12.406   4.861   6.607  0.8399 -1.1455 -3.0914
63029SOL    HW2 7080  12.483   4.753   6.679  0.6646  0.2803 -0.6540
63030SOL     OW 7081   5.350   1.826   8.341  0.9054  0.2563  0.1391
63030SOL    HW1 7082   5.312   1.911   8.360 -0.6554 -0.5751  0.9862
63030SOL    HW2 7083   5.400   1.803   8.420 -1.9857 -1.2845  1.7043
63031SOL     OW 7084   9.458   6.133   4.922 -0.2384 -0.7164  0.3584
63031SOL    HW1 7085   9.552   6.116   4.914  0.3177  1.0437  2.2696
63031SOL    HW2 7086   9.440   6.124   5.015 -1.5905  0.6843  0.2626
63032SOL     OW 7087  11.404   0.394   8.641 -0.6886 -0.1824 -0.2614
63032SOL    HW1 7088  11.407   0.488   8.622 -1.3069 -0.1014  0.0079
63032SOL    HW2 7089  11.322   0.382   8.689 -0.3965 -0.7899  0.1003
63033SOL     OW 7090  14.073  13.875   3.833  0.1575  0.3454 -0.2451
63033SOL    HW1 7091  14.008  13.816   3.870  0.5673 -0.1518 -0.3003
63033SOL    HW2 7092  14.033  13.907   3.752 -0.0662  0.1309 -0.2209
63034SOL     OW 7093   6.560   8.390  12.196  0.2378  0.4635  0.2659
63034SOL    HW1 7094   6.515   8.378  12.112  2.1903  0.2470 -0.8062
63034SOL    HW2 7095   6.508   8.456  12.242 -0.8299  0.6479 -1.1391
63035SOL     OW 7096   9.173   8.579   5.111 -1.0567  0.4695 -0.6002
63035SOL    HW1 7097   9.136   8.524   5.180 -0.6082  0.5730 -0.2721
63035SOL    HW2 7098   9.260   8.602   5.143 -1.4069  1.7620 -0.5076
63036SOL     OW 7099   2.491  12.306   3.690 -0.1186 -0.0840 -0.2610
63036SOL    HW1 7100   2.489  12.247   3.614  0.2318 -0.8165  0.2914
63036SOL    HW2 7101   2.484  12.249   3.766 -1.4083  0.7142  0.2535
63037SOL     OW 7102   4.281   0.088  13.300 -0.5218 -0.2351  0.1273
63037SOL    HW1 7103   4.276   0.127  13.212  0.3407 -0.0903  0.1313
63037SOL    HW2 7104   4.329   0.006  13.287  2.5661  1.3249  0.9137
63038SOL     OW 7105   9.018   1.783  10.994 -0.1982  0.0264 -0.7888
63038SOL    HW1 7106   9.076   1.753  11.065  1.2507  0.0393 -1.9354
63038SOL    HW2 7107   9.015   1.878  11.005 -0.5088 -0.0257 -0.3676
63039SOL     OW 7108   0.620   5.108  13.892 -0.0022 -0.5623 -0.3770
63039SOL    HW1 7109   0.629   5.166  13.816  0.4015 -1.0319 -0.6906
63039SOL    HW2 7110   0.710   5.087  13.916 -0.0811  0.4396  0.9061
63040SOL     OW 7111   5.986  10.195  10.823 -0.3463  0.2194 -0.0089
63040SOL    HW1 7112   6.000  10.289  10.809  2.1719 -0.1965 -0.9088
63040SOL    HW2 7113   6.033  10.176  10.904 -3.7704  0.2517  2.1633
63041SOL     OW 7114   7.190  11.788  10.610 -0.0152  0.4884  0.0614
63041SOL    HW1 7115   7.285  11.797  10.617 -0.2975  2.9311  2.2723
63041SOL    HW2 7116   7.172  11.794  10.516  2.0327 -1.2653 -0.5293
63042SOL     OW 7117  12.498  12.455   1.643 -0.0904 -0.0188 -0.2627
63042SOL    HW1 7118  12.533  12.372   1.676 -2.6184 -1.6476 -1.4220
63042SOL    HW2 7119  12.515  12.518   1.713 -0.5216 -2.1273  1.8444
63043SOL     OW 7120   2.152   4.806   9.150  0.1321  0.1164  0.3308
63043SOL    HW1 7121   2.074   4.840   9.194 -0.8402  0.8867 -1.8139
63043SOL    HW2 7122   2.212   4.880   9.145  1.1344 -0.5201  2.1288
63044SOL     OW 7123   2.065   5.613   4.546 -0.3421 -0.1806 -0.6845
63044SOL    HW1 7124   2.123   5.542   4.571 -1.5975 -1.0604 -0.1392
63044SOL    HW2 7125   2.019   5.637   4.627  0.3673  1.5925 -0.7505
63045SOL     OW 7126   4.396   8.550   0.341  0.3088 -0.1493  0.0735
63045SOL    HW1 7127   4.346   8.542   0.422  2.0542  1.6526  1.4121
63045SOL    HW2 7128   4.347   8.498   0.277 -2.7625  0.8094  1.4974
63046SOL     OW 7129  11.136   1.304  11.860  0.0286  0.8510  0.1944
63046SOL    HW1 7130  11.207   1.313  11.797  0.8719  0.2384  1.0317
63046SOL    HW2 7131  11.073   1.372  11.834  0.2591  0.4974 -1.3916
63047SOL     OW 7132   1.338   6.109   1.854 -0.0515 -0.1769 -0.0122
63047SOL    HW1 7133   1.397   6.069   1.790 -0.6836 -1.3676  0.1244
63047SOL    HW2 7134   1.277   6.160   1.801  0.3245  0.0453 -0.2401
63048SOL     OW 7135  10.509   3.875   0.798  0.3905  0.0226 -0.4878
63048SOL    HW1 7136  10.432   3.819   0.804 -0.0587  0.6903  0.2049
63048SOL    HW2 7137  10.483   3.957   0.841  1.9985 -0.3118  1.2464
63049SOL     OW 7138   4.786   1.617   9.719 -0.1358  0.2235 -0.0804
63049SOL    HW1 7139   4.829   1.642   9.801  0.8361  1.3999 -0.9204
63049SOL    HW2 7140   4.856   1.582   9.664 -0.2987  1.7566 -1.3126
63050SOL     OW 7141   5.976  12.624   4.019 -0.2953  0.3081 -0.4597
63050SOL    HW1 7142   5.931  12.608   4.102 -0.2356  0.5999 -0.3707
63050SOL    HW2 7143   5.984  12.538   3.979 -0.7514  0.2239 -0.3805
63051SOL     OW 7144   5.993   8.345   8.804 -0.2493 -0.2005  0.4473
63051SOL    HW1 7145   6.072   8.349   8.751 -2.2749  0.0194 -2.8774
63051SOL    HW2 7146   5.982   8.434   8.838 -0.5547  0.6029 -1.5898
63052SOL     OW 7147   4.246   0.546  12.015  0.2273 -0.0693 -0.2481
63052SOL    HW1 7148   4.189   0.496  12.072 -0.0747 -0.1067 -0.5769
63052SOL    HW2 7149   4.202   0.544  11.930 -0.5361  1.9606  0.0497
63053SOL     OW 7150   1.534   9.427   4.399  0.0417 -0.2177 -0.1332
63053SOL    HW1 7151   1.472   9.457   4.334 -0.8795 -1.0456  0.3399
63053SOL    HW2 7152   1.596   9.500   4.409  0.0192  0.0432 -1.6719
63054SOL     OW 7153   5.461  14.131  10.306  1.1601 -0.0322  0.0441
63054SOL    HW1 7154   5.553  14.138  10.333  1.0042  0.9926  0.3298
63054SOL    HW2 7155   5.419  14.084  10.378  1.7073 -1.7434 -0.7035
63055SOL     OW 7156   4.959  11.094   3.675  0.6315  0.2833  0.2564
63055SOL    HW1 7157   5.034  11.054   3.631  1.4878  0.2728  1.6763
63055SOL    HW2 7158   4.975  11.188   3.670 -0.4546  0.4159 -1.4591
63056SOL     OW 7159  12.928   9.962   9.595 -0.4561  0.9044 -0.6483
63056SOL    HW1 7160  12.883   9.900   9.537 -1.2327 -0.3038  1.1507
63056SOL    HW2 7161  12.866   9.979   9.666  0.2072  2.8536 -0.4823
63057SOL     OW 7162   9.038   4.744   0.087 -0.1813 -0.0392 -0.5881
63057SOL    HW1 7163   8.956   4.712   0.051  0.7947 -1.0824 -1.9455
63057SOL    HW2 7164   9.066   4.676   0.148  1.4126 -1.4152 -2.7610
63058SOL     OW 7165  12.619   6.979  11.058  0.8947 -0.0483  0.1844
63058SOL    HW1 7166  12.646   7.070  11.052 -0.1636  0.2746  0.0409
63058SOL    HW2 7167  12.666   6.935  10.987  1.6085  0.3256  0.4183
63059SOL     OW 7168   3.315  10.473   7.385 -0.3356  0.3102  0.2582
63059SOL    HW1 7169   3.375  10.547   7.381 -2.0360  1.6701 -1.5729
63059SOL    HW2 7170   3.346  10.413   7.317 -1.3640  1.3225 -1.1555
63060SOL     OW 7171   4.446   0.414   8.355  0.2683  0.7301  0.0970
63060SOL    HW1 7172   4.532   0.386   8.387  0.3053  1.5483  0.7738
63060SOL    HW2 7173   4.466   0.478   8.286  0.1883 -0.0242 -0.6412
63061SOL     OW 7174   3.120   0.047   1.339 -0.2165  0.3334 -0.5414
63061SOL    HW1 7175   3.089   0.094   1.262 -0.4405 -0.2789 -0.8305
63061SOL    HW2 7176   3.214   0.064   1.341 -0.4815  1.9366  0.1612
63062SOL     OW 7177   6.862  10.823  10.751  0.5513  0.5326 -0.1053
63062SOL    HW1 7178   6.811  10.889  10.705 -1.4464 -0.7567  0.1190
63062SOL    HW2 7179   6.909  10.871  10.819 -0.0285  1.8497 -0.6131
63063SOL     OW 7180   4.579  13.079  11.548 -0.4893  0.0736 -0.2761
63063SOL    HW1 7181   4.541  13.069  11.461 -0.2898  1.1492 -0.5019
63063SOL    HW2 7182   4.647  13.012  11.553 -0.2372  0.2566 -1.1025
63064SOL     OW 7183   6.522   1.374   3.068  0.6286 -0.0701 -0.6257
63064SOL    HW1 7184   6.470   1.389   2.989  0.1595 -1.3194 -0.5816
63064SOL    HW2 7185   6.531   1.278   3.073 -1.1193 -0.2050  1.9278
63065SOL     OW 7186   8.217   1.041  13.632 -0.1392 -0.4646  0.1552
63065SOL    HW1 7187   8.142   1.101  13.634  0.0289 -0.0624 -2.4078
63065SOL    HW2 7188   8.289   1.091  13.671 -0.2727  0.6579 -0.9733
63066SOL     OW 7189   1.612   3.677  13.491  0.0219  0.2246  1.0904
63066SOL    HW1 7190   1.563   3.728  13.556 -0.8022  0.8662  0.0019
63066SOL    HW2 7191   1.650   3.743  13.432 -0.4538 -0.3742  0.0847
63067SOL     OW 7192  13.313   3.074   9.097  0.1521 -0.0386  0.2018
63067SOL    HW1 7193  13.221   3.086   9.073  0.2618  0.5863  0.0961
63067SOL    HW2 7194  13.362   3.109   9.022  0.4798  0.0055  0.4375
63068SOL     OW 7195  14.050   3.075   9.236 -0.6527  0.0007  0.5784
63068SOL    HW1 7196  14.070   3.130   9.312  1.6619 -1.5593  1.1955
63068SOL    HW2 7197  14.025   3.137   9.168  0.6669  1.7503  1.5896
63069SOL     OW 7198   9.766   0.654  11.718  0.4824 -0.2078 -0.1192
63069SOL    HW1 7199   9.760   0.736  11.767 -1.4578 -0.5441  0.2578
63069SOL    HW2 7200   9.733   0.587  11.778 -1.4193 -0.7247 -1.6530
63070SOL     OW 7201   6.000   4.615  12.896 -0.2220 -0.0104 -0.5876
63070SOL    HW1 7202   5.973   4.614  12.988  0.7574  0.6386 -0.2769
63070SOL    HW2 7203   5.955   4.690  12.858 -0.1371  0.0966 -0.4781
63071SOL     OW 7204  10.862   9.442   7.766  0.1625  0.0261 -0.1396
63071SOL    HW1 7205  10.785   9.495   7.747 -0.4450  0.9186  3.8141
63071SOL    HW2 7206  10.828   9.359   7.798  0.7801  0.2215  1.1193
63072SOL     OW 7207  10.117  11.850   5.049 -0.2454  0.0178  0.0073
63072SOL    HW1 7208  10.092  11.775   5.102 -0.9979  0.2879  0.0441
63072SOL    HW2 7209  10.149  11.915   5.112 -0.8443  0.2217  0.1031
63073SOL     OW 7210   9.547   6.679  10.157 -0.6243 -0.0840 -0.1593
63073SOL    HW1 7211   9.575   6.735  10.229 -2.5704 -0.0707  0.6413
63073SOL    HW2 7212   9.619   6.683  10.094  1.2883 -0.3543  1.8888
63074SOL     OW 7213   2.380   9.855  11.547  0.0329  0.4013 -0.1327
63074SOL    HW1 7214   2.324   9.827  11.620  0.0657  0.0239 -0.2515
63074SOL    HW2 7215   2.356   9.797  11.475  0.6584  0.1638 -0.1512
63075SOL     OW 7216   8.043   5.216   9.440  0.2403 -0.4838 -0.2956
63075SOL    HW1 7217   7.973   5.166   9.398 -0.4098  0.2951 -0.1672
63075SOL    HW2 7218   8.081   5.269   9.370  0.9980 -1.2106 -0.4540
63076SOL     OW 7219   1.036   0.039   9.007  0.1810 -0.2823  0.0690
63076SOL    HW1 7220   1.021   0.020   8.914 -0.2526  0.5965 -0.0494
63076SOL    HW2 7221   1.054   0.133   9.010  1.8593 -0.5946  0.6837
63077SOL     OW 7222   5.291   3.528  13.320 -0.1233 -0.1023  0.4669
63077SOL    HW1 7223   5.248   3.610  13.346 -1.7777 -1.8956  3.9465
63077SOL    HW2 7224   5.357   3.514  13.387  2.0730 -0.3909 -1.6034
63078SOL     OW 7225   5.834   3.685  11.826  0.3241  0.5722 -0.0596
63078SOL    HW1 7226   5.859   3.684  11.734  1.2324  1.3894  0.1562
63078SOL    HW2 7227   5.758   3.743  11.830  0.4361  0.7306 -0.2592
63079SOL     OW 7228  13.499  13.495   5.258  0.1263 -0.2916 -0.2050
63079SOL    HW1 7229  13.417  13.454   5.284 -0.6535  0.8426 -0.8014
63079SOL    HW2 7230  13.504  13.574   5.312 -1.1501  1.7154 -2.8496
63080SOL     OW 7231   2.365  12.256   0.709  0.3064 -0.5257 -0.3248
63080SOL    HW1 7232   2.410  12.224   0.631 -1.8566 -2.4040 -0.8824
63080SOL    HW2 7233   2.279  12.215   0.707 -0.6832  1.2079  1.8434
63081SOL     OW 7234  12.608  13.447  11.549  0.2624  0.0350 -0.3939
63081SOL    HW1 7235  12.636  13.376  11.607  1.4239  0.9482  0.2115
63081SOL    HW2 7236  12.630  13.417  11.461  3.1107  0.5913  0.0257
63082SOL     OW 7237   4.588  13.542   0.389  0.3917 -0.5761  0.4420
63082SOL    HW1 7238   4.675  13.529   0.353  0.4515 -1.6926  0.9307
63082SOL    HW2 7239   4.602  13.599   0.465  1.1733 -2.9211  2.2051
63083SOL     OW 7240   3.918   3.152   1.342  0.0433  0.5880 -0.0887
63083SOL    HW1 7241   3.920   3.159   1.247 -0.0510 -0.0820 -0.1496
63083SOL    HW2 7242   4.009   3.167   1.369  0.2008  0.1341 -0.3436
63084SOL     OW 7243   9.707   9.524   5.127  0.1012 -0.1006 -0.5032
63084SOL    HW1 7244   9.748   9.533   5.212 -1.0348  2.0141 -0.0994
63084SOL    HW2 7245   9.623   9.571   5.135 -1.0857 -1.7629 -2.1180
63085SOL     OW 7246   9.171   3.288   5.245 -0.2838 -0.0637 -0.3737
63085SOL    HW1 7247   9.082   3.266   5.218 -0.9282 -0.4543  1.8319
63085SOL    HW2 7248   9.163   3.371   5.292  0.7490  0.5374 -1.1953
63086SOL     OW 7249   8.492   9.217   6.620 -0.6672 -0.1203 -0.2426
63086SOL    HW1 7250   8.540   9.258   6.548  1.7276  0.6553  1.6418
63086SOL    HW2 7251   8.504   9.123   6.606 -2.0729 -0.0814 -1.9731
63087SOL     OW 7252   9.877   7.438   2.947 -0.0713  0.1752 -0.1143
63087SOL    HW1 7253   9.893   7.522   2.903 -1.4919 -0.3311 -1.7063
63087SOL    HW2 7254   9.892   7.456   3.039 -4.1336  3.3040  0.1875
63088SOL     OW 7255  11.519  13.760  10.991  0.3625 -0.0473  0.2739
63088SOL    HW1 7256  11.471  13.837  11.023  1.1978  0.8824 -0.6155
63088SOL    HW2 7257  11.562  13.724  11.068 -1.2587 -0.5571  0.9832
63089SOL     OW 7258  13.606   2.382  10.670 -0.2040  0.3843 -0.0180
63089SOL    HW1 7259  13.664   2.311  10.644 -1.9542 -2.2961  2.7062
63089SOL    HW2 7260  13.566   2.411  10.588  1.5303 -0.8659 -1.3810
63090SOL     OW 7261   6.953   3.758   0.042  0.0660  0.2124 -0.2504
63090SOL    HW1 7262   6.926   3.683   0.094 -1.5648  1.1001  0.2436
63090SOL    HW2 7263   7.049   3.759   0.048 -0.0222 -0.5291  1.5557
63091SOL     OW 7264   0.148   7.762   7.232  0.0846 -0.1803  0.6301
63091SOL    HW1 7265   0.174   7.825   7.165 -0.3885 -0.2946  0.3368
63091SOL    HW2 7266   0.089   7.702   7.187 -0.2623 -0.2373  1.1570
63092SOL     OW 7267   4.393   7.972  12.665  0.5058  0.0202 -0.3818
63092SOL    HW1 7268   4.461   7.920  12.623  0.0979 -1.3973  0.6047
63092SOL    HW2 7269   4.404   7.954  12.759  0.3924  1.8168  0.0155
63093SOL     OW 7270   1.549   7.933  10.230  0.0748 -0.0148 -0.5044
63093SOL    HW1 7271   1.531   8.022  10.200 -0.7549  0.7657  2.0398
63093SOL    HW2 7272   1.580   7.887  10.152 -1.3756  1.9499 -2.3490
63094SOL     OW 7273   2.429   6.593   8.659 -0.0495  0.1764 -0.0108
63094SOL    HW1 7274   2.444   6.679   8.697 -0.3892  0.4029 -0.3744
63094SOL    HW2 7275   2.458   6.602   8.568 -0.6624  0.0919 -0.2184
63095SOL     OW 7276  10.976   4.218   0.608 -0.0404  0.3236  0.4155
63095SOL    HW1 7277  10.886   4.188   0.620  0.2528 -0.1731  1.5547
63095SOL    HW2 7278  10.972   4.277   0.533 -1.1445 -0.3791 -0.0949
63096SOL     OW 7279   2.959   1.337  12.179 -0.2875 -0.4528  0.2137
63096SOL    HW1 7280   2.976   1.291  12.097 -0.9592 -1.9661  0.8703
63096SOL    HW2 7281   3.037   1.389  12.195 -0.3152  0.1880 -1.5658
63097SOL     OW 7282   1.810  13.440  11.862  0.0493  0.1496 -0.5876
63097SOL    HW1 7283   1.740  13.465  11.802 -1.0389  1.3764  1.1128
63097SOL    HW2 7284   1.883  13.418  11.805 -1.5243 -0.6720 -2.4221
63098SOL     OW 7285   7.636   9.911   1.483 -0.1718 -0.1986 -0.4359
63098SOL    HW1 7286   7.725   9.910   1.448  0.7734 -1.0751  1.8045
63098SOL    HW2 7287   7.593   9.984   1.438  1.0833 -0.8813 -2.8896
63099SOL     OW 7288  10.302  11.230   2.920  0.3282 -0.6768  0.0783
63099SOL    HW1 7289  10.337  11.141   2.931  1.6654 -0.1794 -0.0105
63099SOL    HW2 7290  10.366  11.286   2.963 -1.0889  0.1704  1.1666
63100SOL     OW 7291   9.440  11.395  11.235  0.0582 -0.0293  0.7090
63100SOL    HW1 7292   9.517  11.417  11.182 -0.3908 -0.3952 -0.1148
63100SOL    HW2 7293   9.463  11.422  11.324  0.9200  0.3780  0.3682
63101SOL     OW 7294  11.510   5.699   3.758 -0.5179 -0.2339  0.3513
63101SOL    HW1 7295  11.469   5.615   3.778  0.1679 -0.0126  3.1669
63101SOL    HW2 7296  11.604   5.681   3.758 -0.4049  0.3194 -0.2069
63102SOL     OW 7297   2.583   7.064   2.667  0.0868  0.0151 -0.3215
63102SOL    HW1 7298   2.606   7.087   2.577 -0.4873  2.6033  0.1103
63102SOL    HW2 7299   2.667   7.065   2.714  0.4467 -1.7383 -0.8258
63103SOL     OW 7300   8.939   2.315   1.292  0.4913 -0.1193  0.2824
63103SOL    HW1 7301   8.882   2.344   1.221  0.5133 -1.1863 -0.1919
63103SOL    HW2 7302   8.932   2.384   1.358  0.2980  0.7879 -0.6506
63104SOL     OW 7303   6.717  13.612   7.450 -0.0208  0.1622  0.8949
63104SOL    HW1 7304   6.690  13.656   7.369  0.8585  2.0831  1.5805
63104SOL    HW2 7305   6.647  13.632   7.513  0.5486  0.9437  1.3053
63105SOL     OW 7306  11.020  14.118   0.771 -0.4594 -0.0188 -0.0904
63105SOL    HW1 7307  10.989  14.206   0.793 -0.1861  0.4257 -1.3945
63105SOL    HW2 7308  10.945  14.077   0.726 -0.1034  0.0797 -0.7893
63106SOL     OW 7309   1.006   1.436   2.450 -0.0659  0.3168 -0.0660
63106SOL    HW1 7310   1.010   1.452   2.544 -1.0337  0.1966  0.0138
63106SOL    HW2 7311   0.944   1.364   2.441  0.3084  0.0731 -0.7740
63107SOL     OW 7312   0.491   0.081   6.554  0.1543 -0.4835  0.3443
63107SOL    HW1 7313   0.580   0.112   6.575  0.6219 -1.2463 -0.4384
63107SOL    HW2 7314   0.451   0.154   6.506 -0.4484  0.7337  2.5752
63108SOL     OW 7315  10.730   9.628   0.873  0.2178  0.2409 -0.1483
63108SOL    HW1 7316  10.803   9.610   0.932 -0.0491  0.7856  0.3651
63108SOL    HW2 7317  10.764   9.694   0.812  1.0001 -1.4877 -1.6424
63109SOL     OW 7318  10.406   8.745   0.262  0.3150 -0.0498 -0.7713
63109SOL    HW1 7319  10.435   8.654   0.272  0.3804 -0.0484 -0.9415
63109SOL    HW2 7320  10.352   8.761   0.339 -0.4097 -0.5142 -1.1688
63110SOL     OW 7321  12.671   1.858   9.599  0.1742  0.8129 -0.0852
63110SOL    HW1 7322  12.579   1.841   9.620  0.5260  1.4342  2.2304
63110SOL    HW2 7323  12.675   1.852   9.504 -2.2938  0.9057 -0.2654
63111SOL     OW 7324   8.999   0.314   9.549 -0.2578 -0.0593  0.4384
63111SOL    HW1 7325   9.081   0.315   9.500 -0.5113 -1.2511 -0.0534
63111SOL    HW2 7326   8.984   0.221   9.568 -1.7679  0.0828  0.0435
63112SOL     OW 7327   8.628  12.410   9.461 -0.2376 -0.0392 -0.0503
63112SOL    HW1 7328   8.662  12.336   9.511  1.7836  1.9135  1.6720
63112SOL    HW2 7329   8.706  12.462   9.439 -1.6102  1.8607 -0.7157
63113SOL     OW 7330   9.079   4.973   9.845 -0.4699  0.4637 -0.2424
63113SOL    HW1 7331   9.154   4.940   9.894  0.4262  0.2375 -1.6965
63113SOL    HW2 7332   9.051   5.050   9.894 -0.1309 -0.2068  1.0539
63114SOL     OW 7333   5.753  10.577  13.258  0.1758  0.1344  0.1322
63114SOL    HW1 7334   5.753  10.553  13.166 -0.3983  1.0759 -0.1339
63114SOL    HW2 7335   5.758  10.673  13.258  1.1158  0.1084  1.1030
63115SOL     OW 7336   8.146   9.474   7.781  0.0773 -0.7386  0.5540
63115SOL    HW1 7337   8.209   9.438   7.719 -0.9993 -2.0101  0.1466
63115SOL    HW2 7338   8.061   9.468   7.736 -0.2047  2.2816  0.5205
63116SOL     OW 7339   6.716   3.377   5.197  0.3258  0.1184  0.2206
63116SOL    HW1 7340   6.684   3.287   5.199  0.1582  0.1779  0.2515
63116SOL    HW2 7341   6.725   3.401   5.290 -0.1659  0.3221  0.2182
63117SOL     OW 7342   9.316  10.748   4.180  0.0223 -0.3413 -0.1197
63117SOL    HW1 7343   9.387  10.795   4.136  0.3495 -0.0010  0.7398
63117SOL    HW2 7344   9.357  10.669   4.214  0.1857  0.2230  1.0410
63118SOL     OW 7345   6.052   2.431   3.993 -0.1010 -0.0396 -0.1479
63118SOL    HW1 7346   5.965   2.457   4.025  0.0735 -0.9255  1.1373
63118SOL    HW2 7347   6.088   2.510   3.954 -1.6755  0.2298 -1.1555
63119SOL     OW 7348   4.872   7.165   9.627  0.4651 -0.0559 -0.4610
63119SOL    HW1 7349   4.941   7.169   9.694 -0.1973 -1.6533  0.3827
63119SOL    HW2 7350   4.795   7.201   9.671 -0.8226 -3.9431  0.9142
63120SOL     OW 7351   8.612  11.883   8.646 -0.0873  0.4635 -0.0033
63120SOL    HW1 7352   8.527  11.842   8.627 -0.4219  1.4328 -0.6924
63120SOL    HW2 7353   8.660  11.817   8.695 -1.0798 -0.2719  0.0115
63121SOL     OW 7354  13.440  11.480   1.020  0.2286 -0.1706  0.1125
63121SOL    HW1 7355  13.465  11.388   1.017 -1.7608 -0.7949  0.9872
63121SOL    HW2 7356  13.430  11.505   0.928  2.1276 -0.3800 -0.1904
63122SOL     OW 7357  13.954  10.267   6.526 -0.1056 -0.7300 -0.1476
63122SOL    HW1 7358  14.034  10.218   6.547 -0.6681 -0.4660  3.2249
63122SOL    HW2 7359  13.887  10.199   6.516 -0.4348 -0.8856  2.3428
63123SOL     OW 7360   4.707  11.210   4.083  0.2967  0.3752 -0.3126
63123SOL    HW1 7361   4.659  11.251   4.011 -0.1117 -1.6405 -1.2777
63123SOL    HW2 7362   4.663  11.125   4.095  1.4843 -0.0724  1.1179
63124SOL     OW 7363   2.269   5.248   5.379  0.4989  0.0767  1.1297
63124SOL    HW1 7364   2.333   5.318   5.391  0.8590  0.0799 -0.5483
63124SOL    HW2 7365   2.321   5.172   5.354 -0.0700 -0.1184  0.5046
63125SOL     OW 7366  11.905   8.177   1.616  0.5665 -0.1338  0.3923
63125SOL    HW1 7367  11.969   8.230   1.569  0.6012  0.2554  0.8621
63125SOL    HW2 7368  11.863   8.239   1.676  2.0901 -1.0303  2.4952
63126SOL     OW 7369  11.845   5.540   9.195 -0.2351 -0.0647  0.1464
63126SOL    HW1 7370  11.922   5.596   9.185 -0.3511  0.0824  0.0830
63126SOL    HW2 7371  11.801   5.574   9.273 -1.5945  1.4684 -1.2071
63127SOL     OW 7372   4.894   2.465  12.926  0.1556  0.2163  0.5788
63127SOL    HW1 7373   4.830   2.535  12.935  0.2630  0.1882  1.7131
63127SOL    HW2 7374   4.925   2.472  12.835 -2.1789 -0.4271 -0.3592
63128SOL     OW 7375   5.560   8.745   7.840 -0.6146 -0.1902  0.3665
63128SOL    HW1 7376   5.551   8.835   7.870  1.3836  0.3213 -0.4097
63128SOL    HW2 7377   5.525   8.692   7.912  0.2545  1.1208  1.8224
63129SOL     OW 7378  13.028   8.664  14.009 -0.5922 -0.1980  0.1333
63129SOL    HW1 7379  13.038   8.642  14.102  1.2574  1.2692  0.3541
63129SOL    HW2 7380  13.033   8.760  14.007 -2.9739 -0.0341 -1.2767
63130SOL     OW 7381   6.699  12.421  14.051 -0.1857  0.1324  0.6052
63130SOL    HW1 7382   6.751  12.361  13.998 -0.3741  0.0164  0.5499
63130SOL    HW2 7383   6.627  12.447  13.994 -0.1001  0.4177  0.6271
63131SOL     OW 7384  13.298   7.600   5.974 -0.3726  0.5713  0.3171
63131SOL    HW1 7385  13.266   7.677   5.928  1.3158  0.9392 -0.3137
63131SOL    HW2 7386  13.266   7.609   6.063  0.5614  2.5147  0.5069
63132SOL     OW 7387   4.550   7.173   1.896 -0.4184  0.3920 -0.2533
63132SOL    HW1 7388   4.563   7.078   1.886 -0.2057  0.3193  0.6383
63132SOL    HW2 7389   4.476   7.193   1.838 -0.6609 -0.3727 -0.2225
63133SOL     OW 7390  10.822   4.691   6.252 -0.5734  0.2842 -0.2713
63133SOL    HW1 7391  10.878   4.649   6.186  0.9723  1.5548  0.1692
63133SOL    HW2 7392  10.864   4.671   6.335 -1.9306 -0.4266  0.2684
63134SOL     OW 7393  10.488   5.327   4.831 -0.9052  0.4220  0.1790
63134SOL    HW1 7394  10.478   5.281   4.748 -0.4406 -0.1187  0.4123
63134SOL    HW2 7395  10.532   5.264   4.888 -1.1662  0.8076  0.8164
63135SOL     OW 7396  13.290   0.461  10.629 -0.0293  0.1661 -0.8772
63135SOL    HW1 7397  13.245   0.545  10.617 -0.1032  0.5699  1.6601
63135SOL    HW2 7398  13.382   0.484  10.632 -0.0987  0.3345  0.7416
63136SOL     OW 7399   7.269  10.891   7.034 -0.2317  1.0269  0.5733
63136SOL    HW1 7400   7.194  10.886   7.093 -0.9964 -0.4800 -0.4584
63136SOL    HW2 7401   7.253  10.970   6.982 -1.2432  0.6117  0.2253
63137SOL     OW 7402  14.128   1.302   7.241 -0.2061  0.1058 -0.0359
63137SOL    HW1 7403  14.083   1.345   7.168 -1.0383 -0.8537 -0.1106
63137SOL    HW2 7404  14.112   1.209   7.227  2.5906 -0.3842 -0.5895
63138SOL     OW 7405  13.887  14.012  10.513  0.5846 -0.3435 -0.1739
63138SOL    HW1 7406  13.971  13.998  10.558  0.2360  1.7458  1.2680
63138SOL    HW2 7407  13.821  14.004  10.582 -0.2780 -0.4242 -0.9904
63139SOL     OW 7408   9.988  11.580   0.671 -0.1073  0.2953  0.1821
63139SOL    HW1 7409   9.947  11.658   0.632  1.3879  1.9389  1.7108
63139SOL    HW2 7410  10.080  11.587   0.646 -0.0532 -1.3817 -0.1806
63140SOL     OW 7411   6.019   1.990  12.183  0.2400 -0.6428  0.2388
63140SOL    HW1 7412   5.940   1.947  12.150  0.7218 -0.3650 -1.3490
63140SOL    HW2 7413   6.041   1.942  12.264 -0.5102 -1.9077 -0.2846
63141SOL     OW 7414   7.778   2.088   4.591  1.1282  0.0853  0.2107
63141SOL    HW1 7415   7.773   2.000   4.553  0.4873  0.5383 -0.7959
63141SOL    HW2 7416   7.700   2.132   4.558  0.3742  0.4391  2.2926
63142SOL     OW 7417  10.868   1.465   2.642 -0.2532 -0.1865 -0.0078
63142SOL    HW1 7418  10.878   1.508   2.557  1.1294  0.5298  0.4820
63142SOL    HW2 7419  10.890   1.533   2.706 -0.5619 -0.9189  0.9031
63143SOL     OW 7420   9.675   3.283  12.884  0.6333  0.6965 -0.3087
63143SOL    HW1 7421   9.641   3.336  12.812  0.8626 -0.0319 -0.9638
63143SOL    HW2 7422   9.770   3.289  12.876  0.7267 -1.7566 -1.9062
63144SOL     OW 7423  10.107   2.783  11.679  0.4229 -0.8558 -0.0703
63144SOL    HW1 7424  10.019   2.747  11.689  0.4569 -0.8645  0.2096
63144SOL    HW2 7425  10.135   2.804  11.769  0.2387  0.2720 -0.2556
63145SOL     OW 7426  10.999   0.239  12.310 -0.5649  0.1547  0.5857
63145SOL    HW1 7427  10.978   0.323  12.270  0.3932  0.3344  0.4199
63145SOL    HW2 7428  10.947   0.175  12.262  1.6895  0.1437 -2.1045
63146SOL     OW 7429   5.073   9.118   8.009  0.3629 -0.2490  0.3884
63146SOL    HW1 7430   5.011   9.095   8.077  1.5652  0.3898  1.7397
63146SOL    HW2 7431   5.032   9.190   7.962  0.3792  0.6588  1.7309
63147SOL     OW 7432   8.881  12.981   0.272  0.5465 -0.1620  0.2330
63147SOL    HW1 7433   8.831  13.058   0.297  0.3905 -0.4580  0.8553
63147SOL    HW2 7434   8.837  12.948   0.194  0.7399  0.4955 -0.1570
63148SOL     OW 7435   0.633   0.302  10.837  0.3128 -0.4024 -0.4536
63148SOL    HW1 7436   0.587   0.379  10.803  0.3011  0.3083  1.0761
63148SOL    HW2 7437   0.604   0.230  10.781  0.8911  0.8072 -2.3993
63149SOL     OW 7438   4.978   0.136  12.841 -0.2628 -0.9755 -0.2514
63149SOL    HW1 7439   5.052   0.110  12.787 -0.0474  1.1155 -1.0777
63149SOL    HW2 7440   5.017   0.161  12.925  0.3451  2.0207 -1.3088
63150SOL     OW 7441  11.955  11.067   6.641 -0.5905  0.7046  0.3321
63150SOL    HW1 7442  11.999  11.116   6.571  1.2930 -1.4321 -0.0736
63150SOL    HW2 7443  12.022  11.055   6.707 -1.1765 -0.8039  0.6781
63151SOL     OW 7444   8.526  11.992  10.854 -0.6473 -0.1771  0.4636
63151SOL    HW1 7445   8.609  11.955  10.825 -0.4897  0.3034  0.2824
63151SOL    HW2 7446   8.552  12.064  10.912 -0.9489 -0.5052  1.0081
63152SOL     OW 7447   3.469   1.875  12.037  0.2871 -0.0240 -0.2308
63152SOL    HW1 7448   3.562   1.900  12.031  0.6987 -1.7460 -2.3382
63152SOL    HW2 7449   3.443   1.859  11.946 -1.2300 -2.4598  0.5564
63153SOL     OW 7450   2.233   9.422   3.635  0.1505  0.1499  0.2892
63153SOL    HW1 7451   2.242   9.517   3.637 -0.8106  0.2748 -0.4698
63153SOL    HW2 7452   2.256   9.397   3.546  0.2142 -0.3065  0.4305
63154SOL     OW 7453  12.664   2.911   7.161 -0.1865 -0.0641  0.2534
63154SOL    HW1 7454  12.705   2.865   7.234  1.4321  1.4454  0.3779
63154SOL    HW2 7455  12.723   2.895   7.087 -0.6872  0.1244 -0.1935
63155SOL     OW 7456   6.702  12.927   8.496  0.1038  0.2221 -0.0359
63155SOL    HW1 7457   6.741  12.993   8.553  0.9613 -1.2253  1.1461
63155SOL    HW2 7458   6.639  12.881   8.552 -1.0774  0.5261 -1.0639
63156SOL     OW 7459   5.575   6.566   2.712  0.2581  0.1481 -0.4097
63156SOL    HW1 7460   5.628   6.634   2.753  0.6423  1.3443 -2.7375
63156SOL    HW2 7461   5.541   6.607   2.632 -1.6211 -1.5965 -0.5898
63157SOL     OW 7462  11.414   8.192   2.394 -0.0079 -0.0433  0.0377
63157SOL    HW1 7463  11.463   8.187   2.312 -2.0601 -1.6057 -1.1825
63157SOL    HW2 7464  11.469   8.147   2.458  0.6352 -0.8026 -1.0276
63158SOL     OW 7465   4.046  10.378   3.774 -0.2725  0.2668 -0.0237
63158SOL    HW1 7466   3.964  10.330   3.785 -0.6175  1.3813  3.3111
63158SOL    HW2 7467   4.113  10.309   3.770 -1.1341 -0.5978 -0.1019
63159SOL     OW 7468  11.976  13.976   5.394  0.0439  0.0842  0.4307
63159SOL    HW1 7469  11.997  13.946   5.306 -1.6518  0.2738 -0.0739
63159SOL    HW2 7470  11.924  13.904   5.432  0.1107  0.3269  0.9949
63160SOL     OW 7471   5.689   3.450   1.908  0.1382  0.7008  0.3098
63160SOL    HW1 7472   5.687   3.361   1.943 -0.5575  0.0907 -1.2020
63160SOL    HW2 7473   5.601   3.464   1.873  0.5818  1.5550 -0.5118
63161SOL     OW 7474  13.946   0.934   0.038 -0.0664 -0.0292  0.5366
63161SOL    HW1 7475  13.885   0.860   0.032 -0.5211  0.2435  1.5620
63161SOL    HW2 7476  14.024   0.904  -0.007 -0.7079 -0.6552 -0.1862
63162SOL     OW 7477   4.687   4.619   2.424 -0.0086  0.0657 -0.2029
63162SOL    HW1 7478   4.598   4.590   2.405 -0.2451  0.1719  0.6871
63162SOL    HW2 7479   4.678   4.672   2.503  1.1605 -2.0312  1.4509
63163SOL     OW 7480   9.230   7.919   5.713 -0.1776 -0.3541  0.6433
63163SOL    HW1 7481   9.219   7.838   5.764 -0.9502 -0.3341  0.5251
63163SOL    HW2 7482   9.192   7.898   5.628 -0.1730  0.0594  0.5385
63164SOL     OW 7483   2.659   1.033  11.513 -0.2861 -0.0186  0.0721
63164SOL    HW1 7484   2.694   1.006  11.428 -0.3473  0.8033 -0.2201
63164SOL    HW2 7485   2.567   1.004  11.512 -0.1876 -0.3266  0.0055
63165SOL     OW 7486  10.774   2.803   0.854 -0.2538 -0.0225 -0.4224
63165SOL    HW1 7487  10.836   2.873   0.832  1.2226 -1.6466 -1.7404
63165SOL    HW2 7488  10.725   2.837   0.929  2.5092  1.2116  0.9849
63166SOL     OW 7489   9.858   7.045   8.431  0.2933  0.0240 -0.1589
63166SOL    HW1 7490   9.924   7.071   8.366 -0.4722 -0.2749 -1.0870
63166SOL    HW2 7491   9.781   7.097   8.408  0.8419  2.1728  2.3611
63167SOL     OW 7492   3.194   0.100   4.522 -0.1181 -0.2894 -0.0065
63167SOL    HW1 7493   3.244   0.086   4.442 -1.2625  1.4339 -1.0979
63167SOL    HW2 7494   3.103   0.083   4.497 -0.4554 -0.1186  1.0260
63168SOL     OW 7495  13.875   7.827   6.218 -0.2896  0.5178 -0.0411
63168SOL    HW1 7496  13.908   7.916   6.226 -0.3315  0.5004  0.3612
63168SOL    HW2 7497  13.812   7.818   6.290 -0.7774  0.3785 -0.4828
63169SOL     OW 7498  10.225   4.752   3.524  0.2659 -0.1329  0.3191
63169SOL    HW1 7499  10.236   4.763   3.430  1.3333 -1.0219  0.3174
63169SOL    HW2 7500  10.304   4.791   3.562 -0.1764  0.2643  0.8589
63170SOL     OW 7501   9.590  13.543  13.407  0.2199  0.3760  0.1581
63170SOL    HW1 7502   9.671  13.587  13.432 -0.4907  1.1087  1.2506
63170SOL    HW2 7503   9.521  13.598  13.443 -0.7352 -0.9755  0.4618
63171SOL     OW 7504   8.816  11.131   2.760  0.4850  0.4955 -0.4899
63171SOL    HW1 7505   8.807  11.045   2.721 -0.2292  0.2619  0.1689
63171SOL    HW2 7506   8.754  11.131   2.833  3.1287  0.1839  1.9481
63172SOL     OW 7507   0.812   8.333   3.001  0.2648 -0.3606  0.5573
63172SOL    HW1 7508   0.790   8.352   2.910  3.1764 -1.4400 -0.4836
63172SOL    HW2 7509   0.814   8.238   3.006 -0.0971 -0.3237  1.8431
63173SOL     OW 7510  13.415   5.893  12.260 -0.1228  0.2385  0.1595
63173SOL    HW1 7511  13.375   5.814  12.297 -1.2865  0.7016 -0.0561
63173SOL    HW2 7512  13.396   5.961  12.324  0.2845  0.4850  0.0221
63174SOL     OW 7513  11.825  13.887   3.612  0.5786 -0.1121 -0.0190
63174SOL    HW1 7514  11.790  13.957   3.557 -0.6648  0.5023  1.4903
63174SOL    HW2 7515  11.751  13.858   3.664  1.6321 -0.9249  1.0792
63175SOL     OW 7516  11.092   0.313   0.991 -0.7576 -0.3757  0.2528
63175SOL    HW1 7517  11.108   0.389   0.936  0.8201 -0.9182 -0.0914
63175SOL    HW2 7518  11.020   0.266   0.947 -0.5885  0.0264 -0.4650
63176SOL     OW 7519  10.664   8.706  13.979  0.2172 -0.1969 -0.5481
63176SOL    HW1 7520  10.575   8.709  14.012  0.7595  0.3778  0.9333
63176SOL    HW2 7521  10.689   8.614  13.985 -0.2550 -0.3548 -0.9455
63177SOL     OW 7522  11.285  10.621  10.479 -0.3062 -0.0735  0.6217
63177SOL    HW1 7523  11.263  10.576  10.398 -1.1897  1.7354 -0.2154
63177SOL    HW2 7524  11.294  10.552  10.544 -0.2886 -1.5120 -0.8546
63178SOL     OW 7525  12.949   2.411   0.849 -0.2551 -0.1947  0.3248
63178SOL    HW1 7526  12.886   2.440   0.914 -0.4658 -0.1834  0.1170
63178SOL    HW2 7527  12.900   2.354   0.791  0.0071 -0.4523  0.3551
63179SOL     OW 7528  11.501   6.282  12.584  0.0013  0.0225 -0.0425
63179SOL    HW1 7529  11.477   6.354  12.643  0.3681 -0.2877  0.4821
63179SOL    HW2 7530  11.417   6.243  12.559 -0.1025 -0.7463  1.4040
63180SOL     OW 7531  11.991   2.932   8.087 -0.1143 -0.1815  0.1491
63180SOL    HW1 7532  12.037   3.006   8.048  1.7604 -2.4429 -2.2769
63180SOL    HW2 7533  12.055   2.893   8.147 -1.5176  0.7602  2.3956
63181SOL     OW 7534   4.095   5.415   4.780  0.1299 -0.6201 -0.3357
63181SOL    HW1 7535   4.079   5.505   4.753  1.5541 -1.1839 -3.4877
63181SOL    HW2 7536   4.146   5.423   4.861  1.6009  1.4873 -1.3769
63182SOL     OW 7537  10.008   3.536   2.958  0.5469 -0.0215  0.0019
63182SOL    HW1 7538  10.091   3.494   2.981  0.3543 -1.7183 -2.1049
63182SOL    HW2 7539  10.014   3.553   2.864 -1.2052  0.4929 -0.0634
63183SOL     OW 7540  11.247   1.635   4.669 -0.2214 -0.1194  0.5238
63183SOL    HW1 7541  11.308   1.634   4.743 -0.0567 -0.9333  0.3918
63183SOL    HW2 7542  11.243   1.543   4.641 -1.9641 -0.1759  0.8919
63184SOL     OW 7543  13.946   5.919   4.821 -0.0571  0.3574 -0.1053
63184SOL    HW1 7544  13.994   5.888   4.743  1.1376  1.9510 -0.0521
63184SOL    HW2 7545  13.938   6.013   4.808 -0.7142  0.5058  1.2562
63185SOL     OW 7546  13.131   7.543   5.715 -0.3627 -0.6068 -0.5086
63185SOL    HW1 7547  13.147   7.599   5.639 -3.1288  2.2587  0.7845
63185SOL    HW2 7548  13.214   7.542   5.762  0.6261 -0.1904 -2.1580
63186SOL     OW 7549  10.633   1.383   8.834  0.0859  0.2007 -0.7091
63186SOL    HW1 7550  10.617   1.466   8.789  2.4083  0.3001 -1.4585
63186SOL    HW2 7551  10.666   1.325   8.766  1.1294 -0.4754  0.3388
63187SOL     OW 7552  10.361   2.746   2.851 -0.1335 -0.1728  0.1133
63187SOL    HW1 7553  10.437   2.707   2.809 -0.3194 -1.4744  0.9421
63187SOL    HW2 7554  10.398   2.811   2.911  0.5266 -2.2196  2.0436
63188SOL     OW 7555   1.536  10.677   7.125 -0.3820  0.6147  0.1108
63188SOL    HW1 7556   1.503  10.608   7.067 -1.9291  0.8614  0.6555
63188SOL    HW2 7557   1.465  10.741   7.129  0.3038  1.3463  1.0743
63189SOL     OW 7558   9.430   7.027   7.100 -0.5199  0.0180 -0.1744
63189SOL    HW1 7559   9.455   6.938   7.125 -0.0595  0.3858  0.6942
63189SOL    HW2 7560   9.412   7.020   7.006  0.2399 -0.8333 -0.2785
63190SOL     OW 7561  11.420   4.238   6.660  0.1039 -0.5009  0.3513
63190SOL    HW1 7562  11.424   4.157   6.711 -0.4538  0.0774  1.3446
63190SOL    HW2 7563  11.467   4.218   6.579  1.9319 -1.1401  1.5058
63191SOL     OW 7564   3.559  10.311   2.503 -0.7357  0.2900  0.4002
63191SOL    HW1 7565   3.633  10.348   2.456 -0.3395 -0.3964  0.4678
63191SOL    HW2 7566   3.509  10.263   2.437 -0.9626  0.5099  0.4105
63192SOL     OW 7567   6.657   0.588  14.128 -0.1557 -0.1334 -0.3651
63192SOL    HW1 7568   6.632   0.509  14.080  0.0357  0.3718 -1.3326
63192SOL    HW2 7569   6.613   0.580  14.213 -0.7319 -0.9263 -0.7297
63193SOL     OW 7570   9.637  12.539   6.014 -0.3724  0.9749 -0.0050
63193SOL    HW1 7571   9.716  12.527   5.961  0.6797  0.5711  1.5964
63193SOL    HW2 7572   9.646  12.627   6.051 -0.1337  0.5268  1.0282
63194SOL     OW 7573   3.719   9.427  13.101 -0.9761 -0.5522 -0.1695
63194SOL    HW1 7574   3.723   9.457  13.010 -1.2279 -0.0864 -0.0305
63194SOL    HW2 7575   3.643   9.370  13.105 -0.7296 -0.8954 -0.3424
63195SOL     OW 7576  10.770   2.286   1.814 -0.7600  1.0453 -0.0527
63195SOL    HW1 7577  10.814   2.358   1.768  0.1450 -0.4715 -1.6900
63195SOL    HW2 7578  10.840   2.227   1.839 -1.5361  0.4570  0.8088
63196SOL     OW 7579   7.711   8.699   3.025 -0.5969 -0.4178  0.2398
63196SOL    HW1 7580   7.672   8.775   3.068 -0.3635  1.0948 -2.0076
63196SOL    HW2 7581   7.737   8.641   3.097 -1.4942  1.2594  2.0188
63197SOL     OW 7582   3.184  10.351   4.455 -0.0374  0.3199 -0.3566
63197SOL    HW1 7583   3.094  10.381   4.447 -0.1447  0.0060 -0.3455
63197SOL    HW2 7584   3.237  10.427   4.432 -0.3186 -0.1646 -2.8558
63198SOL     OW 7585  12.440   6.439   3.488  0.1809 -0.6279  0.2172
63198SOL    HW1 7586  12.406   6.528   3.474  0.4129 -0.9020 -2.9048
63198SOL    HW2 7587  12.363   6.383   3.480  0.6067 -0.9671 -3.0733
63199SOL     OW 7588   4.334  13.602   8.779 -0.5376  0.5863 -0.0196
63199SOL    HW1 7589   4.429  13.604   8.792 -0.2220  2.2243 -1.9767
63199SOL    HW2 7590   4.297  13.604   8.867  1.2460  0.6307  0.7744
63200SOL     OW 7591   2.253   4.811   4.705  0.4028  0.6689  0.1892
63200SOL    HW1 7592   2.305   4.760   4.767  0.1173  1.1051  0.7969
63200SOL    HW2 7593   2.316   4.872   4.666  0.3516  1.2707  1.0039
63201SOL     OW 7594  11.434  11.652   8.637  0.2877 -0.3449  0.0558
63201SOL    HW1 7595  11.481  11.569   8.643 -1.8015 -1.7033 -1.0034
63201SOL    HW2 7596  11.412  11.674   8.727 -0.3404 -1.7212  0.2677
63202SOL     OW 7597   2.447   6.092  11.997  0.0016  0.2020  0.0375
63202SOL    HW1 7598   2.479   6.006  11.970 -2.0773 -0.4665 -0.4735
63202SOL    HW2 7599   2.461   6.148  11.920  1.6499  0.4583  0.4783
63203SOL     OW 7600   2.492   8.600   6.347 -0.1198 -0.2574 -0.2468
63203SOL    HW1 7601   2.553   8.668   6.375 -1.6583  0.5933  1.2074
63203SOL    HW2 7602   2.406   8.631   6.375 -0.9451 -2.5321  0.0075
63204SOL     OW 7603  12.146   7.942   0.437 -0.4330  0.3627  0.4233
63204SOL    HW1 7604  12.226   7.994   0.430  1.1327 -2.0955 -1.7157
63204SOL    HW2 7605  12.175   7.857   0.472 -1.1241 -2.0812 -4.1728
63205SOL     OW 7606   5.960   8.715  10.805  0.4790 -0.4845 -0.3724
63205SOL    HW1 7607   6.039   8.669  10.776  1.0799  0.1257  0.2475
63205SOL    HW2 7608   5.896   8.645  10.819  1.6651 -1.2841  1.5072
63206SOL     OW 7609  10.894   9.576   2.993  0.0497  0.2117  0.2157
63206SOL    HW1 7610  10.854   9.489   2.988 -0.0922  0.3388 -1.1096
63206SOL    HW2 7611  10.969   9.572   2.934  1.4351  0.2913  1.9145
63207SOL     OW 7612   6.871  13.099  11.895 -0.7240  0.9122  0.1093
63207SOL    HW1 7613   6.927  13.150  11.953 -0.2445 -0.5040  0.9527
63207SOL    HW2 7614   6.849  13.021  11.946 -1.3911  0.2561 -1.1355
63208SOL     OW 7615   4.011   8.204   9.860 -0.3088  0.0067 -0.3559
63208SOL    HW1 7616   3.998   8.294   9.832  0.7319 -0.2197 -1.6460
63208SOL    HW2 7617   4.002   8.207   9.956 -0.0965  1.5047 -0.3632
63209SOL     OW 7618  13.759   7.554   9.371  0.2164  0.3479 -0.1671
63209SOL    HW1 7619  13.825   7.539   9.304 -2.1577 -0.3480 -2.5187
63209SOL    HW2 7620  13.742   7.649   9.367 -1.7165 -0.0015 -2.5302
63210SOL     OW 7621   8.139   4.965   1.376  0.6959 -0.6877  0.6937
63210SOL    HW1 7622   8.198   4.893   1.402 -0.1650 -2.3848 -1.7077
63210SOL    HW2 7623   8.053   4.923   1.370  0.1791  0.5249 -0.8277
63211SOL     OW 7624   6.145   1.671  13.206 -0.1900 -0.5870 -0.2792
63211SOL    HW1 7625   6.182   1.740  13.151 -0.2604 -0.7694 -0.5595
63211SOL    HW2 7626   6.111   1.607  13.143  1.4664 -1.7450 -0.0750
63212SOL     OW 7627   9.441   1.002   4.745 -0.1786 -0.4057 -0.7323
63212SOL    HW1 7628   9.489   1.066   4.798  0.5254 -0.9181 -0.7458
63212SOL    HW2 7629   9.371   0.972   4.803 -0.3605  0.1806 -0.6334
63213SOL     OW 7630   4.075   9.259  11.968 -0.1642 -1.0053  0.1831
63213SOL    HW1 7631   4.143   9.193  11.955 -1.9606 -2.8649 -0.1499
63213SOL    HW2 7632   4.084   9.317  11.892 -0.6321 -2.8115 -1.3464
63214SOL     OW 7633   2.926  11.498   0.823  0.8019  0.2142  0.0415
63214SOL    HW1 7634   2.946  11.405   0.823  0.1706  0.0667  0.6067
63214SOL    HW2 7635   3.000  11.539   0.778  1.9326 -0.3754  1.2926
63215SOL     OW 7636  12.130   2.088  12.217  0.2938 -0.4560 -0.5250
63215SOL    HW1 7637  12.108   2.126  12.132 -2.0744  0.0261  0.2423
63215SOL    HW2 7638  12.226   2.092  12.221  0.4469 -0.2136 -3.0132
63216SOL     OW 7639   3.821   3.726   1.646 -0.1778  0.2356 -1.0497
63216SOL    HW1 7640   3.893   3.773   1.604  0.6861 -1.1650 -1.1945
63216SOL    HW2 7641   3.801   3.654   1.587 -0.1132 -0.7537  0.0991
63217SOL     OW 7642  12.479   3.886  12.863  0.2982 -0.2767 -0.6504
63217SOL    HW1 7643  12.568   3.881  12.828  0.1545 -1.1873 -0.9263
63217SOL    HW2 7644  12.451   3.794  12.869 -0.6872  0.0062 -0.7416
63218SOL     OW 7645  13.520  10.188   6.380  0.7709  0.1074 -0.0030
63218SOL    HW1 7646  13.490  10.187   6.289 -0.2531 -0.1227  0.3315
63218SOL    HW2 7647  13.440  10.183   6.432  1.3899 -0.7228  0.9083
63219SOL     OW 7648   0.353   0.959   2.326  0.1915  0.0173  0.5862
63219SOL    HW1 7649   0.295   0.940   2.400  1.6268  0.0151  1.7810
63219SOL    HW2 7650   0.404   0.878   2.315  0.0885  0.0659 -0.3365
63220SOL     OW 7651  10.858   7.772  12.416 -0.1074  0.8118 -0.2194
63220SOL    HW1 7652  10.899   7.758  12.502  0.2648 -0.1093 -0.5314
63220SOL    HW2 7653  10.775   7.724  12.422  0.4147 -0.1828 -0.7340
63221SOL     OW 7654   4.121  11.093   6.686  0.1490  0.3741 -0.3900
63221SOL    HW1 7655   4.170  11.025   6.733 -0.4493  0.7402  0.8006
63221SOL    HW2 7656   4.150  11.175   6.725 -0.2311  0.7016 -0.7834
63222SOL     OW 7657  11.290   4.275  13.392  0.6956 -0.1481  0.1246
63222SOL    HW1 7658  11.266   4.360  13.356  0.9824  0.2410  0.8197
63222SOL    HW2 7659  11.368   4.249  13.345  0.0698 -0.4817 -0.7553
63223SOL     OW 7660  10.503   4.067  10.762 -0.2945 -0.0279 -0.9784
63223SOL    HW1 7661  10.518   4.143  10.706 -0.0112  0.4387 -0.2718
63223SOL    HW2 7662  10.490   3.995  10.700  3.0599 -0.1593 -1.7248
63224SOL     OW 7663   9.235   7.554   8.010  0.2344  0.3314 -0.0316
63224SOL    HW1 7664   9.272   7.490   8.070  0.2567  1.2385  0.9587
63224SOL    HW2 7665   9.300   7.624   8.005  0.7317 -0.2111 -1.9958
63225SOL     OW 7666  13.509  11.225   9.520 -0.0341 -0.0428  0.2501
63225SOL    HW1 7667  13.483  11.296   9.461 -1.0491 -0.8838 -0.3496
63225SOL    HW2 7668  13.581  11.182   9.475  0.4026  0.4376  0.4870
63226SOL     OW 7669   7.449   5.660   1.317 -0.5302 -0.3802 -0.0023
63226SOL    HW1 7670   7.499   5.582   1.340  0.6704  0.5279  0.6284
63226SOL    HW2 7671   7.444   5.711   1.398 -1.3332  0.1727 -0.3817
63227SOL     OW 7672   3.949   5.323   6.838 -0.2846  0.1177  0.2637
63227SOL    HW1 7673   3.879   5.387   6.825  0.0741  0.4901  0.1486
63227SOL    HW2 7674   4.004   5.361   6.906  0.1351  0.1041 -0.0680
63228SOL     OW 7675   9.579   9.825   9.715  0.1977 -0.1626  0.1650
63228SOL    HW1 7676   9.531   9.754   9.671  0.8616 -0.8926  0.5931
63228SOL    HW2 7677   9.556   9.903   9.665  0.1347 -0.8107 -0.8624
63229SOL     OW 7678   7.068  12.448   1.273  0.0728 -0.4283 -0.1665
63229SOL    HW1 7679   7.158  12.419   1.256  0.5064  0.6890  0.1223
63229SOL    HW2 7680   7.033  12.470   1.186 -0.0843 -1.2908 -0.3284
63230SOL     OW 7681   2.493   2.298   8.579  0.0571 -0.0256  0.0993
63230SOL    HW1 7682   2.468   2.387   8.552 -1.5583  0.0873  1.7308
63230SOL    HW2 7683   2.499   2.303   8.674  2.6609 -1.0683  0.0671
63231SOL     OW 7684   5.663   0.937   0.277 -0.4793 -0.3284  0.1376
63231SOL    HW1 7685   5.733   0.996   0.304 -0.6967 -0.2194  0.4832
63231SOL    HW2 7686   5.616   0.984   0.208 -1.4007  0.4493  1.2460
63232SOL     OW 7687   8.294   9.185   0.470  0.0266 -0.1949 -0.0766
63232SOL    HW1 7688   8.231   9.149   0.532  1.0666 -2.6070 -0.2983
63232SOL    HW2 7689   8.244   9.246   0.416 -1.3955  0.2258  1.6283
63233SOL     OW 7690  14.078   2.077  12.205 -0.2551  0.3073 -0.1271
63233SOL    HW1 7691  14.058   2.076  12.299 -1.6363 -0.1515 -0.4080
63233SOL    HW2 7692  14.032   2.154  12.172  1.2741  1.2208 -0.2452
63234SOL     OW 7693   9.356   2.600  10.750 -0.3114  0.3027  0.2179
63234SOL    HW1 7694   9.376   2.507  10.756 -0.1728  0.3700  1.0425
63234SOL    HW2 7695   9.262   2.604  10.731 -0.3543 -0.0069  0.3671
63235SOL     OW 7696   7.774   0.912   5.200 -0.8278 -0.1486  0.7704
63235SOL    HW1 7697   7.851   0.963   5.176 -1.5531  0.4290 -0.4852
63235SOL    HW2 7698   7.758   0.934   5.292  1.3992 -1.5253  1.5644
63236SOL     OW 7699   0.660  14.099   4.148  0.1189  0.0146  0.2308
63236SOL    HW1 7700   0.691  14.093   4.057  0.7644 -1.7311  0.5367
63236SOL    HW2 7701   0.584  14.157   4.143  0.8043  0.8593 -1.2355
63237SOL     OW 7702   1.021  10.851   8.199 -0.6040  0.4591  0.4252
63237SOL    HW1 7703   1.004  10.759   8.177  1.8920 -0.0901  0.5546
63237SOL    HW2 7704   1.022  10.852   8.295 -2.2766  1.0143  0.4787
63238SOL     OW 7705   7.998   7.332  13.143 -0.1923 -0.1317 -0.3169
63238SOL    HW1 7706   7.912   7.325  13.184  0.5378 -0.4027  1.2441
63238SOL    HW2 7707   7.990   7.406  13.084 -1.1051  0.7922  0.8994
63239SOL     OW 7708   9.397   9.386   2.995 -0.4154 -0.0499  0.6649
63239SOL    HW1 7709   9.414   9.292   3.000  0.7177  0.1182  0.2011
63239SOL    HW2 7710   9.473   9.427   3.036 -0.5749  0.6858  0.2405
63240SOL     OW 7711  11.369  10.088   4.122 -0.0492  0.6295  0.3160
63240SOL    HW1 7712  11.371   9.996   4.149 -0.1381  0.5940  0.2020
63240SOL    HW2 7713  11.460  10.108   4.098 -0.1816  0.3284 -0.4735
63241SOL     OW 7714   7.873  11.220  10.814  0.4958 -0.1510  0.0885
63241SOL    HW1 7715   7.927  11.299  10.817  1.4328 -0.7051 -1.2219
63241SOL    HW2 7716   7.802  11.242  10.753 -1.4537  0.9211  2.5407
63242SOL     OW 7717   5.469   8.862   4.178  0.5075  0.3483  0.3917
63242SOL    HW1 7718   5.487   8.836   4.088  0.6754 -1.8556  0.9965
63242SOL    HW2 7719   5.433   8.783   4.219 -3.2883  2.3022  1.2964
63243SOL     OW 7720   8.644  10.954  10.442 -0.4041  0.1188  0.5629
63243SOL    HW1 7721   8.703  11.029  10.431 -0.8427  0.2629 -1.1403
63243SOL    HW2 7722   8.587  10.957  10.365 -1.1253 -1.3571  0.9992
63244SOL     OW 7723  10.595   4.984  14.143  0.4997  0.3705  0.2514
63244SOL    HW1 7724  10.681   5.017  14.170  0.6090 -0.1834  0.5870
63244SOL    HW2 7725  10.562   5.051  14.083  0.9888  0.7876  0.4372
63245SOL     OW 7726   6.433  11.683   5.726  0.5316 -0.2032  0.0949
63245SOL    HW1 7727   6.522  11.661   5.754 -0.2590 -2.0407  1.3996
63245SOL    HW2 7728   6.400  11.741   5.794  1.3970  2.3341 -1.5163
63246SOL     OW 7729  11.776  14.018   5.982 -0.0085 -0.0603 -0.4515
63246SOL    HW1 7730  11.753  13.927   6.004 -0.7335  0.4048  0.7771
63246SOL    HW2 7731  11.848  14.009   5.920  2.4062 -1.4654  2.3128
63247SOL     OW 7732  11.910   3.663   2.591  0.0331  0.3282  0.6194
63247SOL    HW1 7733  11.899   3.758   2.586 -0.3046  0.2170 -1.1691
63247SOL    HW2 7734  11.913   3.634   2.500 -1.8005 -1.5968  1.1040
63248SOL     OW 7735  12.056   3.208   9.144 -0.0537 -0.0917 -0.2804
63248SOL    HW1 7736  12.063   3.157   9.224 -1.3223 -1.9117 -1.2433
63248SOL    HW2 7737  11.963   3.232   9.139  0.3644  1.5957 -0.2897
63249SOL     OW 7738   4.592   9.197  14.085  0.5974  0.0164  0.0512
63249SOL    HW1 7739   4.625   9.232  14.168 -0.6546  0.6223  0.3225
63249SOL    HW2 7740   4.501   9.224  14.083  0.1518 -1.4583 -0.7490
63250SOL     OW 7741   0.039   4.804   7.242 -0.2566  0.0480 -0.0427
63250SOL    HW1 7742  -0.052   4.811   7.269 -0.5042 -0.5405 -0.6945
63250SOL    HW2 7743   0.063   4.713   7.260  0.4420  0.3859  0.8320
63251SOL     OW 7744   4.025   8.300   8.194  0.4417 -0.3820  0.1500
63251SOL    HW1 7745   3.947   8.355   8.203  0.7610  0.0121  0.5512
63251SOL    HW2 7746   3.994   8.211   8.209 -0.2169 -0.4004 -1.1714
63252SOL     OW 7747   2.192   8.935   7.896 -0.4067  0.3521 -0.0146
63252SOL    HW1 7748   2.147   8.936   7.812 -1.9018 -0.6980  0.7202
63252SOL    HW2 7749   2.192   9.027   7.925  0.2551  0.7395 -1.1949
63253SOL     OW 7750  11.429   9.385   4.307  0.2302  0.5156 -0.4416
63253SOL    HW1 7751  11.474   9.457   4.351 -1.4272  1.3903 -0.0953
63253SOL    HW2 7752  11.428   9.314   4.371  1.8279  0.1577 -0.7662
63254SOL     OW 7753   9.973   0.524  11.967  0.0517 -0.0464  0.5454
63254SOL    HW1 7754   9.981   0.534  12.062 -1.7328  1.1589  0.6126
63254SOL    HW2 7755   9.903   0.584  11.943 -0.5517 -1.4508 -1.3412
63255SOL     OW 7756   6.134   8.278   4.623 -0.2266 -0.5528 -0.2550
63255SOL    HW1 7757   6.126   8.260   4.530 -1.2589 -1.6373  0.0185
63255SOL    HW2 7758   6.123   8.373   4.630 -0.6659 -0.5235 -1.1826
63256SOL     OW 7759  13.675   8.022  11.813 -0.2384  0.8784  0.0835
63256SOL    HW1 7760  13.770   8.025  11.825 -0.3019 -0.3996  1.1140
63256SOL    HW2 7761  13.639   8.042  11.899 -0.9334  2.0707 -0.4621
63257SOL     OW 7762  12.560   5.013   7.829 -0.1523 -0.3623 -0.3112
63257SOL    HW1 7763  12.490   4.973   7.776  0.0718  0.8304 -1.5692
63257SOL    HW2 7764  12.517   5.035   7.911 -0.7353 -1.4818 -0.2906
63258SOL     OW 7765   6.240  10.412   3.287 -0.1715 -0.3118 -0.1609
63258SOL    HW1 7766   6.322  10.367   3.266 -0.7181 -2.2988  1.6656
63258SOL    HW2 7767   6.269  10.498   3.320  1.0427 -0.3133 -1.1191
63259SOL     OW 7768   3.583   3.660  11.956 -0.3910 -0.7484  0.5074
63259SOL    HW1 7769   3.604   3.748  11.986 -1.3822 -0.1324 -0.5536
63259SOL    HW2 7770   3.667   3.614  11.955 -0.0036 -0.1275  1.9909
63260SOL     OW 7771   6.322   0.899   9.768 -0.0080 -0.0187 -0.5054
63260SOL    HW1 7772   6.311   0.986   9.728 -2.5305 -0.2700 -0.5685
63260SOL    HW2 7773   6.249   0.893   9.830 -0.8198 -2.6317 -1.5977
63261SOL     OW 7774   2.638  10.717  14.000  0.2718  0.2251 -0.3084
63261SOL    HW1 7775   2.699  10.747  14.067  0.3847  0.1419 -0.3735
63261SOL    HW2 7776   2.567  10.677  14.050 -0.2737  1.3086 -0.1863
63262SOL     OW 7777  11.335   0.650   8.554  0.6461 -0.1433 -0.1402
63262SOL    HW1 7778  11.257   0.662   8.501 -1.9857 -1.6137  3.0546
63262SOL    HW2 7779  11.352   0.737   8.592  2.9965  1.1167 -3.5612
63263SOL     OW 7780   2.948   6.498   1.097  0.0513 -0.4321  0.0429
63263SOL    HW1 7781   2.859   6.493   1.132 -0.4337 -0.1863 -1.0950
63263SOL    HW2 7782   2.977   6.407   1.092 -0.2842 -0.5422  0.0724
63264SOL     OW 7783   5.092   8.486   0.068  0.4196  0.6072 -0.0006
63264SOL    HW1 7784   5.005   8.454   0.094  0.2714  1.7505  1.0365
63264SOL    HW2 7785   5.074   8.556   0.006  0.5865  1.0202  0.4151
63265SOL     OW 7786   3.822  13.625  12.850 -0.3374  0.3639  0.1800
63265SOL    HW1 7787   3.793  13.700  12.902  0.8935  0.1662  1.1808
63265SOL    HW2 7788   3.911  13.607  12.880  0.7720  0.7449 -2.5636
63266SOL     OW 7789  12.126   4.673   6.689 -0.3251  0.3371 -0.2807
63266SOL    HW1 7790  12.208   4.688   6.735 -0.0307  0.5014 -0.8560
63266SOL    HW2 7791  12.071   4.626   6.752  0.9860 -1.7793 -0.6120
63267SOL     OW 7792   9.186   6.329   2.588 -0.4595  0.1959  0.1686
63267SOL    HW1 7793   9.282   6.327   2.599 -0.6865  1.0129  3.4037
63267SOL    HW2 7794   9.173   6.367   2.501  2.1298 -1.0310 -0.8760
63268SOL     OW 7795   8.127  11.440   3.273  0.9953 -0.3430  0.0745
63268SOL    HW1 7796   8.209  11.392   3.273 -0.4173 -2.9597  0.8714
63268SOL    HW2 7797   8.105  11.452   3.180  1.9417 -0.1650 -0.1331
63269SOL     OW 7798  13.322  11.582  13.351  0.1650  0.6103 -0.3590
63269SOL    HW1 7799  13.377  11.659  13.366  0.5142  0.4270 -0.6692
63269SOL    HW2 7800  13.323  11.571  13.256 -0.5813  0.7277 -0.3844
63270SOL     OW 7801  10.249  12.314   3.653 -0.0300  0.2520  0.0844
63270SOL    HW1 7802  10.196  12.348   3.725 -0.4201  0.7742 -0.4448
63270SOL    HW2 7803  10.271  12.225   3.679 -1.9005 -0.2912 -0.0652
63271SOL     OW 7804   6.884  11.114   6.967  0.4019 -0.1866 -0.2633
63271SOL    HW1 7805   6.839  11.032   6.950 -2.3407  0.7602  1.7104
63271SOL    HW2 7806   6.827  11.182   6.931  0.7478  1.0059  1.2953
63272SOL     OW 7807   6.002  11.337  11.386  0.1895 -0.4281 -0.6274
63272SOL    HW1 7808   5.945  11.279  11.437  0.0525  0.2054 -0.0344
63272SOL    HW2 7809   6.089  11.301  11.397  0.0569 -0.7269 -0.5481
63273SOL     OW 7810  13.884   1.475   4.071  0.3637  0.3193 -0.2286
63273SOL    HW1 7811  13.928   1.523   4.000 -0.6009  1.1862 -0.2572
63273SOL    HW2 7812  13.791   1.488   4.055  0.1251  0.8924  1.4479
63274SOL     OW 7813   4.093   6.276   5.373 -0.5461 -0.0402  0.5053
63274SOL    HW1 7814   4.150   6.342   5.412 -1.9201  1.5025 -0.0184
63274SOL    HW2 7815   4.130   6.263   5.285  1.1641 -1.8226  1.4044
63275SOL     OW 7816   9.853  12.141  13.483  0.4624 -0.4239 -0.3106
63275SOL    HW1 7817   9.778  12.124  13.425  1.2232 -1.6550 -0.9975
63275SOL    HW2 7818   9.903  12.210  13.438  0.5338 -0.6852 -0.6417
63276SOL     OW 7819  12.085   5.942   7.510  0.0836 -0.2263  0.6171
63276SOL    HW1 7820  12.004   5.977   7.472 -0.0757 -0.8133  0.4053
63276SOL    HW2 7821  12.059   5.858   7.548  0.8005 -0.9034 -0.3449
63277SOL     OW 7822   2.192   3.407   7.286 -0.1977  0.7068 -0.4227
63277SOL    HW1 7823   2.284   3.421   7.309 -0.6104 -0.0485  2.0318
63277SOL    HW2 7824   2.173   3.319   7.317 -1.4361  0.3249 -2.1399
63278SOL     OW 7825   3.731   6.793  11.572 -0.0024  0.1311 -0.1367
63278SOL    HW1 7826   3.642   6.806  11.540  0.1658 -0.8728 -1.0753
63278SOL    HW2 7827   3.734   6.701  11.600  1.0737 -0.2302 -1.3360
63279SOL     OW 7828   6.266   8.811   7.527 -0.1053 -0.1061  0.0306
63279SOL    HW1 7829   6.313   8.792   7.446 -1.1377 -0.7951 -0.4285
63279SOL    HW2 7830   6.326   8.866   7.577  1.7134 -1.9857  0.0320
63280SOL     OW 7831   6.326   8.953  10.050  0.0203  0.0121  0.4062
63280SOL    HW1 7832   6.319   9.020  10.118  0.9679 -0.0150  0.5417
63280SOL    HW2 7833   6.272   8.881  10.082 -1.2812  0.8247  0.1033
63281SOL     OW 7834   5.351  12.320  13.833  0.4069  0.0993  0.7001
63281SOL    HW1 7835   5.309  12.330  13.747  1.2874  1.6567  0.4080
63281SOL    HW2 7836   5.427  12.377  13.829  0.4411  0.2462  2.5542
63282SOL     OW 7837   9.116   5.023  12.256 -0.2214 -0.1295 -0.1377
63282SOL    HW1 7838   9.157   5.025  12.170  0.9948 -0.5024  0.4101
63282SOL    HW2 7839   9.125   5.112  12.289  1.2448 -0.4726  0.4557
63283SOL     OW 7840   4.791   1.149  10.623  0.1765  0.2671 -0.3252
63283SOL    HW1 7841   4.696   1.142  10.620  0.0775 -0.4173  2.2093
63283SOL    HW2 7842   4.821   1.061  10.645  1.5600  0.1392 -2.3985
63284SOL     OW 7843   5.316   5.509   6.881 -0.1528 -0.1751 -0.3985
63284SOL    HW1 7844   5.377   5.488   6.952 -0.0386 -0.1521 -0.4893
63284SOL    HW2 7845   5.354   5.466   6.804 -0.3331 -0.2904 -0.4226
63285SOL     OW 7846   8.514   1.439   6.598 -1.0163  0.0002 -0.0254
63285SOL    HW1 7847   8.555   1.376   6.657  0.3109 -0.5577 -1.4920
63285SOL    HW2 7848   8.564   1.520   6.611 -1.6372  0.2947  0.6186
63286SOL     OW 7849   8.011  13.831   5.990 -0.7314 -0.3063 -0.4953
63286SOL    HW1 7850   8.042  13.787   5.911  0.8478 -0.1173 -0.0067
63286SOL    HW2 7851   7.917  13.839   5.977 -0.5224 -0.3887 -2.2907
63287SOL     OW 7852  10.957  13.481   5.253  0.1280 -0.1610  0.2316
63287SOL    HW1 7853  11.016  13.463   5.326  0.0959 -0.1465  0.2616
63287SOL    HW2 7854  10.974  13.411   5.190  1.3274  0.7213 -0.4730
63288SOL     OW 7855   0.377  11.518   5.462 -0.1553 -0.0298  0.0415
63288SOL    HW1 7856   0.448  11.533   5.525  0.0493 -0.0335 -0.1877
63288SOL    HW2 7857   0.297  11.534   5.512 -0.0792 -1.8240  0.8229
63289SOL     OW 7858  10.387   6.663   8.971 -0.7465  0.0697 -0.2121
63289SOL    HW1 7859  10.301   6.680   9.009 -0.3788  0.7857  0.3126
63289SOL    HW2 7860  10.395   6.727   8.900 -0.9067 -0.4210 -0.6777
63290SOL     OW 7861  12.191   7.180   1.107  0.3442  0.2473 -0.1948
63290SOL    HW1 7862  12.119   7.145   1.159  0.3614  1.3073  0.5898
63290SOL    HW2 7863  12.243   7.104   1.082 -0.4190 -0.4091  0.2046
63291SOL     OW 7864   0.617   5.055   2.126 -0.0144  0.2608  0.1302
63291SOL    HW1 7865   0.676   5.110   2.178 -0.0795  0.4726 -0.0163
63291SOL    HW2 7866   0.603   5.105   2.046  1.6129 -0.8851 -0.9583
63292SOL     OW 7867   9.442   6.832   2.358 -0.0301  0.1492  0.3635
63292SOL    HW1 7868   9.409   6.812   2.445 -0.3318 -1.0738 -0.0166
63292SOL    HW2 7869   9.374   6.886   2.318 -0.1277  0.2705  0.6946
63293SOL     OW 7870  11.088   9.829   5.818  0.8277  0.7217 -0.2748
63293SOL    HW1 7871  11.169   9.791   5.786  1.4509  1.8060 -0.0196
63293SOL    HW2 7872  11.094   9.821   5.913  0.3340  0.2286 -0.2753
63294SOL     OW 7873   0.460   7.167   7.553  0.6849  0.1355  0.0017
63294SOL    HW1 7874   0.397   7.114   7.600 -1.5867  0.6260 -2.2580
63294SOL    HW2 7875   0.525   7.105   7.520  0.0517 -0.7177  0.3482
63295SOL     OW 7876   5.416  11.884  11.801  0.0785  0.1912 -0.3127
63295SOL    HW1 7877   5.345  11.821  11.815 -2.0301  2.0083 -2.0669
63295SOL    HW2 7878   5.483  11.834  11.754 -0.4814 -1.2967  0.3974
63296SOL     OW 7879   0.736  12.979   6.723  0.1864 -0.2545  0.0379
63296SOL    HW1 7880   0.777  12.951   6.805 -0.2941 -2.6391 -0.4749
63296SOL    HW2 7881   0.666  13.039   6.751 -0.8242 -2.0321  1.5433
63297SOL     OW 7882   7.888   4.754   7.865 -0.0726  0.7255  0.9280
63297SOL    HW1 7883   7.954   4.823   7.871  0.3452  0.8428 -2.7507
63297SOL    HW2 7884   7.923   4.682   7.918  1.7820  1.6870  1.0860
63298SOL     OW 7885  11.831   9.072   2.278 -0.1140  0.4174 -0.1268
63298SOL    HW1 7886  11.785   9.156   2.273  0.2893  0.7304  1.0149
63298SOL    HW2 7887  11.794   9.020   2.207 -2.7713  0.4089  1.1476
63299SOL     OW 7888   5.571   4.773   6.411  0.1778 -0.5359 -0.0670
63299SOL    HW1 7889   5.629   4.714   6.363  0.3199  0.9152 -1.7627
63299SOL    HW2 7890   5.629   4.838   6.451 -0.0866 -0.6874  0.5873
63300SOL     OW 7891   5.490   5.319   7.378 -0.6577 -0.2083 -1.3039
63300SOL    HW1 7892   5.485   5.325   7.474 -0.9856  1.7568 -1.4014
63300SOL    HW2 7893   5.545   5.242   7.362 -1.4092 -1.1740  0.4274
63301SOL     OW 7894  12.218   1.581   6.943  0.5834 -0.1788  0.5815
63301SOL    HW1 7895  12.210   1.507   7.004 -0.4647 -0.0749  0.5915
63301SOL    HW2 7896  12.201   1.658   6.997 -0.7761 -0.1151  0.0944
63302SOL     OW 7897  10.320   3.528  11.217  0.3346  0.5805  0.2309
63302SOL    HW1 7898  10.299   3.604  11.163  0.4711  0.7476  0.4084
63302SOL    HW2 7899  10.277   3.455  11.174 -1.2042  1.0213  0.9610
63303SOL     OW 7900   1.689   0.323   9.433 -0.5239  0.7042  0.5658
63303SOL    HW1 7901   1.744   0.388   9.478 -1.4450  1.3569  0.7693
63303SOL    HW2 7902   1.617   0.373   9.397 -1.6267 -0.2924  1.3099
63304SOL     OW 7903   1.884   5.151   5.522  0.3921 -0.5500 -0.2993
63304SOL    HW1 7904   1.942   5.161   5.597  0.4395  0.7548 -0.4920
63304SOL    HW2 7905   1.796   5.148   5.560  0.5338 -2.6844  0.0063
63305SOL     OW 7906  11.361   8.911   5.105 -0.1348  0.0471  0.1317
63305SOL    HW1 7907  11.403   8.940   5.186  2.1181  0.0428 -0.9321
63305SOL    HW2 7908  11.321   8.828   5.127  0.2435  0.1534  1.3004
63306SOL     OW 7909   2.769   9.044  11.353 -0.0760 -0.0658 -0.1193
63306SOL    HW1 7910   2.677   9.070  11.346 -0.7317 -2.0930  0.2589
63306SOL    HW2 7911   2.797   9.076  11.439 -0.6462 -0.0508  0.0625
63307SOL     OW 7912  12.413  10.127   2.712 -0.5537  0.1821 -0.5295
63307SOL    HW1 7913  12.409  10.221   2.696  0.2146  0.4784  0.8320
63307SOL    HW2 7914  12.349  10.111   2.781 -0.3073 -0.1927 -0.3772
63308SOL     OW 7915   4.958  12.606  13.673 -0.3480 -0.4937 -0.6304
63308SOL    HW1 7916   4.971  12.511  13.668  1.1999 -0.4404  1.0776
63308SOL    HW2 7917   4.924  12.630  13.587  0.4246 -2.4263 -1.5455
63309SOL     OW 7918   3.888   2.479   4.946 -0.3130  0.0520  0.6810
63309SOL    HW1 7919   3.886   2.471   5.042 -1.1504  0.3256  0.7014
63309SOL    HW2 7920   3.871   2.391   4.914  1.5573 -0.3701  0.7480
63310SOL     OW 7921  14.083  10.596   1.271 -0.4318  0.1721  0.6034
63310SOL    HW1 7922  14.060  10.609   1.363 -0.3044  1.9222  0.4067
63310SOL    HW2 7923  14.086  10.684   1.234  4.7600  0.1110  0.1362
63311SOL     OW 7924   1.819   9.938  13.258  0.2026 -0.2186 -0.2350
63311SOL    HW1 7925   1.798  10.014  13.205 -0.0755 -1.9431 -2.8051
63311SOL    HW2 7926   1.889   9.894  13.209 -0.3001 -2.0787  0.6332
63312SOL     OW 7927  13.654   3.309  11.730  0.3460  0.1252  0.3793
63312SOL    HW1 7928  13.698   3.238  11.682  2.2703  0.7546  1.1227
63312SOL    HW2 7929  13.639   3.376  11.664 -1.1481 -0.7836 -0.2531
63313SOL     OW 7930   8.763   8.658   5.559 -0.0284 -0.2833 -0.5260
63313SOL    HW1 7931   8.708   8.647   5.482  0.6182 -0.2127 -1.0123
63313SOL    HW2 7932   8.842   8.702   5.526  1.0004 -1.7624 -0.1590
63314SOL     OW 7933   0.838   4.358   1.838  0.1069  0.3949  0.1442
63314SOL    HW1 7934   0.796   4.428   1.888 -1.7938 -1.8094  1.8412
63314SOL    HW2 7935   0.869   4.401   1.759 -1.5062  3.0466  0.8161
63315SOL     OW 7936   2.384   7.516   9.950  0.5586  0.6729  0.0184
63315SOL    HW1 7937   2.404   7.555  10.035  0.0093 -2.3784  1.7039
63315SOL    HW2 7938   2.319   7.448   9.969  2.0992 -1.7226 -2.3945
63316SOL     OW 7939   1.076  14.093   0.864  0.8670  0.4866 -0.0365
63316SOL    HW1 7940   0.993  14.083   0.818  1.6693  1.5410 -1.7879
63316SOL    HW2 7941   1.085  14.013   0.916 -0.1208 -0.7157 -1.6527
63317SOL     OW 7942   9.100  10.225   9.094 -0.1892 -0.1590 -0.1566
63317SOL    HW1 7943   9.011  10.202   9.070  0.5032 -2.2825 -0.8360
63317SOL    HW2 7944   9.152  10.147   9.077  2.2800  1.7087 -2.1465
63318SOL     OW 7945  10.061   3.571  10.299 -0.5102  0.1693 -0.6633
63318SOL    HW1 7946  10.087   3.536  10.384 -3.3134  1.7506  1.0102
63318SOL    HW2 7947  10.127   3.638  10.279 -0.4185  0.5802  0.8716
63319SOL     OW 7948   5.875   8.924  10.658 -0.2335  0.3432 -0.0368
63319SOL    HW1 7949   5.910   8.855  10.714 -0.1796  1.4531  1.3434
63319SOL    HW2 7950   5.819   8.877  10.595  0.5749 -1.0425  0.2266
63320SOL     OW 7951   1.769   1.895   0.135  0.5606  0.3334  0.0627
63320SOL    HW1 7952   1.678   1.878   0.109  0.9008  0.3881 -1.2564
63320SOL    HW2 7953   1.794   1.972   0.084  1.3171  0.3745  0.4946
63321SOL     OW 7954   1.742   6.636   8.722  0.0594  0.4025 -0.5549
63321SOL    HW1 7955   1.784   6.616   8.805 -0.7454  1.6957  0.1973
63321SOL    HW2 7956   1.724   6.550   8.683  0.2394 -0.2343  0.7071
63322SOL     OW 7957   9.287   3.360  10.014 -0.1995  0.0171 -0.0796
63322SOL    HW1 7958   9.231   3.286  10.037 -0.2209 -0.1630 -0.6853
63322SOL    HW2 7959   9.256   3.432  10.069 -0.9730 -0.1056 -0.3416
63323SOL     OW 7960   1.831  10.601   2.933 -0.0755 -0.0056  0.2339
63323SOL    HW1 7961   1.762  10.542   2.964 -0.7922  1.4612  1.5690
63323SOL    HW2 7962   1.804  10.627   2.845 -1.1908  0.4570  0.6979
63324SOL     OW 7963   6.169  10.676   5.860  1.1697  0.2510  0.5255
63324SOL    HW1 7964   6.251  10.657   5.907  1.0665 -1.2382  0.1585
63324SOL    HW2 7965   6.196  10.734   5.788  1.4148  2.1086  2.0365
63325SOL     OW 7966   3.673  10.217   3.856 -0.3026  0.2191  0.7075
63325SOL    HW1 7967   3.701  10.181   3.773  3.5573  2.5860  0.7157
63325SOL    HW2 7968   3.632  10.301   3.834  0.0699  0.5188  1.1170
63326SOL     OW 7969   1.571   8.034   6.053  0.6960 -0.4810  0.4092
63326SOL    HW1 7970   1.540   8.122   6.078 -0.3809 -0.2574 -1.5520
63326SOL    HW2 7971   1.492   7.981   6.047  0.8294 -0.5201 -2.3446
63327SOL     OW 7972   4.811  12.942  11.519 -0.1360  0.4326  0.4037
63327SOL    HW1 7973   4.865  12.880  11.471 -1.0456  0.8771 -1.2581
63327SOL    HW2 7974   4.852  13.027  11.503 -1.7503  0.8986 -1.6232
63328SOL     OW 7975   2.906   8.797   3.823  0.0708 -0.0225 -0.7154
63328SOL    HW1 7976   2.920   8.772   3.731  0.4378 -2.0309 -0.1592
63328SOL    HW2 7977   2.820   8.762   3.844 -0.3023  1.0139 -0.4489
63329SOL     OW 7978   7.922   5.061  13.529  0.2778  0.1354  0.5565
63329SOL    HW1 7979   8.001   5.109  13.504  0.1075  0.2905  0.3118
63329SOL    HW2 7980   7.871   5.054  13.448  0.5539 -0.9617  0.4633
63330SOL     OW 7981   0.039   9.762   9.772  0.0219 -0.2078 -0.5746
63330SOL    HW1 7982   0.109   9.822   9.746 -0.5775 -0.3993 -2.8328
63330SOL    HW2 7983  -0.041   9.812   9.760 -0.3889 -0.8895 -0.7300
63331SOL     OW 7984   1.788   7.516   3.595  0.2268 -0.3677 -0.2896
63331SOL    HW1 7985   1.727   7.587   3.573 -0.2191 -0.8879 -0.7415
63331SOL    HW2 7986   1.860   7.527   3.533  0.3435 -0.0801 -0.1075
63332SOL     OW 7987   1.593   1.012   1.492  0.5240 -0.1352 -0.2700
63332SOL    HW1 7988   1.537   0.949   1.448  0.5315 -0.0561 -0.3917
63332SOL    HW2 7989   1.682   0.988   1.465  0.4696  0.5016 -1.0600
63333SOL     OW 7990   7.120   0.502   2.274  0.4047 -0.6194 -0.2351
63333SOL    HW1 7991   7.122   0.457   2.359  0.3891  1.2129  0.7733
63333SOL    HW2 7992   7.195   0.561   2.276 -1.0927  1.3750 -0.3729
63334SOL     OW 7993  13.709   9.916   3.513  0.5765  0.0050  0.8513
63334SOL    HW1 7994  13.742  10.003   3.536 -4.0827  2.8830 -1.7573
63334SOL    HW2 7995  13.663   9.887   3.591 -1.7701  2.2427  0.4291
63335SOL     OW 7996   0.912   9.166  12.453  0.0664 -0.0804 -0.2694
63335SOL    HW1 7997   0.845   9.187  12.518  1.5234 -0.3928  1.4125
63335SOL    HW2 7998   0.913   9.242  12.394  0.2153  1.2782  1.3916
63336SOL     OW 7999   2.021  10.544   3.418  0.0523 -0.3900 -0.3679
63336SOL    HW1 8000   1.957  10.474   3.431  1.5206 -1.4414  1.9286
63336SOL    HW2 8001   2.104  10.498   3.408  0.8681  1.0118 -0.2789
63337SOL     OW 8002   8.195  13.616  10.501  0.7265 -0.5774 -0.0092
63337SOL    HW1 8003   8.212  13.708  10.521 -0.0885 -0.6777  1.2916
63337SOL    HW2 8004   8.276  13.571  10.523 -0.0042 -0.6327  3.0438
63338SOL     OW 8005   0.043   3.359   3.855 -0.2118  0.2525  0.0996
63338SOL    HW1 8006   0.129   3.318   3.841 -0.2451 -0.2257  1.1789
63338SOL    HW2 8007   0.056   3.451   3.831  0.5256  0.1205 -0.0287
63339SOL     OW 8008  11.251   6.327   3.827 -0.1813 -0.4360  0.0022
63339SOL    HW1 8009  11.156   6.317   3.829 -0.2577  0.0627 -0.6145
63339SOL    HW2 8010  11.281   6.286   3.907 -0.8691 -1.0951 -0.0681
63340SOL     OW 8011  14.047   5.403   7.063 -0.4474 -0.2178  0.3508
63340SOL    HW1 8012  14.129   5.398   7.111  0.2127 -0.7245 -0.7939
63340SOL    HW2 8013  13.980   5.417   7.130  0.3919 -1.3505  1.4453
63341SOL     OW 8014   8.476   3.463   3.396 -0.0068 -0.1093 -0.1260
63341SOL    HW1 8015   8.518   3.544   3.366  0.8969 -0.1987  0.8087
63341SOL    HW2 8016   8.388   3.490   3.422  0.4224  0.6800  0.5691
63342SOL     OW 8017   1.604   0.481   1.498 -0.3964  0.2036 -0.7140
63342SOL    HW1 8018   1.664   0.443   1.434 -0.7752 -0.2212 -0.8230
63342SOL    HW2 8019   1.661   0.518   1.566  0.0055 -2.2498  0.4021
63343SOL     OW 8020   2.153   9.061   4.809  0.1280  0.2313  0.4136
63343SOL    HW1 8021   2.189   9.101   4.730 -2.6220 -0.8164 -1.5581
63343SOL    HW2 8022   2.162   9.128   4.876  3.6130  0.7577 -0.3853
63344SOL     OW 8023   2.986   1.159   4.613 -0.5339  0.0894  0.0526
63344SOL    HW1 8024   3.069   1.206   4.624  0.4728 -1.4791 -0.4841
63344SOL    HW2 8025   2.982   1.100   4.688 -0.8948 -0.2352 -0.2199
63345SOL     OW 8026   6.079   3.112   5.207  0.1454 -0.2254  0.0615
63345SOL    HW1 8027   6.035   3.123   5.122 -1.8555 -0.9590  0.9299
63345SOL    HW2 8028   6.065   3.020   5.229  0.2280  0.0650  1.3814
63346SOL     OW 8029   0.086   1.795   9.879 -0.1686 -0.7909 -0.2203
63346SOL    HW1 8030   0.011   1.821   9.933  0.5053  0.2644  0.2603
63346SOL    HW2 8031   0.054   1.800   9.789 -1.1174 -1.9180  0.0303
63347SOL     OW 8032   6.950   8.947   2.998 -0.1040 -0.0129  0.2828
63347SOL    HW1 8033   6.970   8.985   2.912 -0.7266 -0.3537 -0.0156
63347SOL    HW2 8034   6.900   9.015   3.043 -0.6308 -0.2137  0.0034
63348SOL     OW 8035   9.733  13.098   5.477  0.1693  0.5787 -0.0185
63348SOL    HW1 8036   9.668  13.053   5.531  0.3242  0.1550 -0.1814
63348SOL    HW2 8037   9.685  13.124   5.398 -0.0465  1.1588  0.2908
63349SOL     OW 8038   8.719   2.183   7.359  0.1003  0.0806  0.3761
63349SOL    HW1 8039   8.798   2.237   7.351 -0.1064  0.2377 -0.9160
63349SOL    HW2 8040   8.691   2.170   7.268 -1.1467 -0.2885  0.8061
63350SOL     OW 8041  13.244  10.996   1.838 -0.1722  0.1279 -0.0123
63350SOL    HW1 8042  13.321  10.989   1.782 -1.1172 -0.8660 -1.2392
63350SOL    HW2 8043  13.242  10.914   1.887 -0.6311  0.0086 -0.2283
63351SOL     OW 8044   0.188   4.461  12.418 -0.2222 -0.1748  0.1663
63351SOL    HW1 8045   0.245   4.398  12.463 -0.3189 -0.2042  0.2508
63351SOL    HW2 8046   0.109   4.463  12.472 -1.2725 -1.9065 -1.1769
63352SOL     OW 8047   8.920   8.839  12.833  0.4253 -0.1022  0.6151
63352SOL    HW1 8048   9.013   8.850  12.853  0.8812 -1.3013 -0.7254
63352SOL    HW2 8049   8.913   8.862  12.740 -1.0086  1.9289  1.1623
63353SOL     OW 8050  12.391   1.751   1.144  0.1042  0.2703  0.5775
63353SOL    HW1 8051  12.443   1.692   1.199  0.5098  0.3037  0.2374
63353SOL    HW2 8052  12.309   1.763   1.192 -0.9301 -2.3090 -0.3161
63354SOL     OW 8053   8.051  13.169  12.392 -0.4306  0.3112  0.2501
63354SOL    HW1 8054   8.040  13.078  12.420 -1.3963  0.6935  1.1806
63354SOL    HW2 8055   8.066  13.163  12.297  0.9519 -0.8936  0.5018
63355SOL     OW 8056  10.465   2.429   1.700  0.8067  0.3026 -0.3756
63355SOL    HW1 8057  10.397   2.381   1.748  0.2934  3.5322  2.5023
63355SOL    HW2 8058  10.547   2.387   1.728  0.2891 -0.2081  0.4433
63356SOL     OW 8059  10.170   8.783   0.103 -0.3062  0.2882  0.6740
63356SOL    HW1 8060  10.250   8.749   0.143  0.3804  0.4036 -0.5311
63356SOL    HW2 8061  10.143   8.715   0.041 -0.8593  0.4745  0.7000
63357SOL     OW 8062   5.371   2.358   2.945 -0.3715  0.2263 -0.6686
63357SOL    HW1 8063   5.403   2.285   2.999  1.7288  0.1400 -1.9222
63357SOL    HW2 8064   5.344   2.424   3.008  0.5639 -0.4642  0.4959
63358SOL     OW 8065   3.680   4.956   7.813  0.2336 -0.2751  0.0854
63358SOL    HW1 8066   3.755   4.948   7.872 -1.8252 -1.5880  2.7282
63358SOL    HW2 8067   3.646   5.044   7.828  0.4313 -0.1588 -0.1284
63359SOL     OW 8068  12.646  13.581   0.510  0.0127  0.0354  0.3102
63359SOL    HW1 8069  12.640  13.533   0.427  0.3118 -1.5635  1.1625
63359SOL    HW2 8070  12.561  13.567   0.552 -0.6011  1.9046 -0.2473
63360SOL     OW 8071   4.398   7.345  11.867  0.1811 -0.1803 -0.1355
63360SOL    HW1 8072   4.473   7.369  11.922 -0.2279 -0.4362  0.5470
63360SOL    HW2 8073   4.364   7.428  11.836  2.0646 -0.1009 -2.2991
63361SOL     OW 8074   7.790   2.584   8.426  0.3884  0.2148 -0.0791
63361SOL    HW1 8075   7.836   2.648   8.370  0.3771  0.2925 -0.0002
63361SOL    HW2 8076   7.841   2.583   8.507  0.2787  0.2630 -0.0104
63362SOL     OW 8077  13.132   2.557   6.329  0.5435  0.0997 -0.3013
63362SOL    HW1 8078  13.188   2.562   6.407  1.5471 -1.5733 -0.8495
63362SOL    HW2 8079  13.171   2.486   6.277 -0.8342  0.3570 -1.7398
63363SOL     OW 8080   5.749   4.509  12.635 -0.7197 -0.2643 -0.1956
63363SOL    HW1 8081   5.682   4.440  12.639 -0.3969 -0.5508  0.5751
63363SOL    HW2 8082   5.706   4.585  12.674 -0.8240 -0.2534 -0.3319
63364SOL     OW 8083   3.034  10.044   6.437 -0.0796 -0.1100  0.0573
63364SOL    HW1 8084   3.039  10.035   6.342 -1.2489  0.1996 -0.0557
63364SOL    HW2 8085   3.084  10.123   6.457 -1.1964  0.7639 -0.5006
63365SOL     OW 8086  10.883  12.734   4.344  0.0287  0.3325 -0.2749
63365SOL    HW1 8087  10.915  12.695   4.262  2.0943 -0.8681  1.0151
63365SOL    HW2 8088  10.949  12.799   4.367 -0.2667  0.3094  0.6699
63366SOL     OW 8089   1.023   3.029  12.961 -0.2994 -0.0457  0.3851
63366SOL    HW1 8090   0.991   3.066  12.878 -2.0198  1.4113  1.6124
63366SOL    HW2 8091   1.113   3.005  12.943 -0.8187 -0.4068 -2.0968
63367SOL     OW 8092   7.154   2.108   6.934 -0.2521  0.2173  0.1072
63367SOL    HW1 8093   7.125   2.137   7.020  0.4712 -1.2250  0.8877
63367SOL    HW2 8094   7.197   2.184   6.895  0.8365  0.4464  1.6960
63368SOL     OW 8095   1.785   3.921   9.865 -0.5289 -1.0544  0.2410
63368SOL    HW1 8096   1.863   3.870   9.846 -0.4055 -0.8007  0.0562
63368SOL    HW2 8097   1.817   3.998   9.912 -0.6359 -0.8359 -0.0354
63369SOL     OW 8098   6.054  12.130  14.104 -0.2710 -0.8573  0.3276
63369SOL    HW1 8099   6.020  12.216  14.130  0.1258 -0.1406 -1.3488
63369SOL    HW2 8100   5.982  12.070  14.121 -0.3849 -0.3059  2.0106
63370SOL     OW 8101   6.542  10.848   7.807 -0.1864 -0.0225  0.6650
63370SOL    HW1 8102   6.500  10.898   7.877 -2.3951  0.6324 -1.0196
63370SOL    HW2 8103   6.485  10.773   7.793  0.5324 -0.4516 -0.0842
63371SOL     OW 8104   5.962   2.968   9.400 -0.0374  0.0028  0.1416
63371SOL    HW1 8105   5.989   2.878   9.386  1.3761  0.4190 -0.0307
63371SOL    HW2 8106   5.900   2.986   9.329 -0.0268 -0.7179 -0.0518
63372SOL     OW 8107   3.519   4.613  13.378 -0.7681  0.6510 -0.0731
63372SOL    HW1 8108   3.479   4.551  13.317 -0.6580  0.3995  0.1072
63372SOL    HW2 8109   3.454   4.625  13.447 -0.3368 -0.1658  0.4944
63373SOL     OW 8110   6.754  11.331  11.563 -0.2284 -0.1814  0.1391
63373SOL    HW1 8111   6.818  11.261  11.575  0.8301  0.6932 -0.2040
63373SOL    HW2 8112   6.775  11.395  11.631 -3.1119 -1.4707  2.4575
63374SOL     OW 8113  11.414  10.037   2.583  0.3307  0.2173  0.3045
63374SOL    HW1 8114  11.405  10.126   2.615 -1.6834 -0.9850  3.4960
63374SOL    HW2 8115  11.354   9.985   2.636  1.5508 -3.1183 -1.2612
63375SOL     OW 8116   3.447  13.173   7.926 -0.3495 -0.3060 -0.2640
63375SOL    HW1 8117   3.473  13.240   7.863 -2.0048 -1.1630 -1.9560
63375SOL    HW2 8118   3.515  13.176   7.994  0.2725  2.2093 -0.8989
63376SOL     OW 8119   2.176   5.782   5.863 -0.0970 -0.5599  0.3860
63376SOL    HW1 8120   2.112   5.823   5.804  0.2793  0.6569  0.7876
63376SOL    HW2 8121   2.134   5.701   5.891 -1.9162  0.6562  1.4047
63377SOL     OW 8122  13.727   4.847  10.469 -0.5575  0.0733  0.2316
63377SOL    HW1 8123  13.636   4.862  10.445 -1.0945  0.0070  2.0812
63377SOL    HW2 8124  13.758   4.931  10.503 -0.3548 -0.2567  0.8756
63378SOL     OW 8125   5.395  11.687   4.436  0.4683  1.1444  0.4866
63378SOL    HW1 8126   5.386  11.777   4.402 -0.3515  1.5955  1.8269
63378SOL    HW2 8127   5.314  11.643   4.408  0.1901  1.2666  1.0804
63379SOL     OW 8128  10.164  10.992   1.486 -0.8880 -0.2755 -0.5638
63379SOL    HW1 8129  10.239  10.959   1.535 -1.4341 -1.9954 -0.8423
63379SOL    HW2 8130  10.200  11.022   1.403 -0.1866  1.1863  0.2283
63380SOL     OW 8131   9.280   4.555   7.735  0.2057  0.6320 -0.6374
63380SOL    HW1 8132   9.230   4.516   7.664  0.3309 -0.7534  0.0090
63380SOL    HW2 8133   9.248   4.645   7.741 -0.6919  0.3869 -1.6060
63381SOL     OW 8134   1.508   0.845   2.384  0.0474  0.7052 -0.5738
63381SOL    HW1 8135   1.588   0.889   2.353  0.6341  0.9023  1.1105
63381SOL    HW2 8136   1.512   0.758   2.344  0.6170  1.0216 -1.2495
63382SOL     OW 8137   7.229  13.802   2.939  0.6123  0.9710 -0.6812
63382SOL    HW1 8138   7.154  13.861   2.931  1.4404  2.7502  2.8023
63382SOL    HW2 8139   7.193  13.723   2.979  0.3913  1.2714 -0.2851
63383SOL     OW 8140   8.238  10.723   5.981  0.7597 -0.4727 -0.1262
63383SOL    HW1 8141   8.264  10.775   6.057  0.3458  0.5683 -0.6891
63383SOL    HW2 8142   8.153  10.686   6.005 -0.2333  1.2856 -0.7152
63384SOL     OW 8143  12.821  10.184   1.360  0.1529  0.0564  0.4686
63384SOL    HW1 8144  12.853  10.182   1.450 -1.1711 -0.0890  0.9599
63384SOL    HW2 8145  12.746  10.244   1.362  0.0860  0.0285 -0.5325
63385SOL     OW 8146   6.137   3.598   9.382 -0.2995 -0.1483 -0.6547
63385SOL    HW1 8147   6.173   3.568   9.466  0.7288  2.3946 -0.1130
63385SOL    HW2 8148   6.139   3.519   9.327 -0.5825 -1.7884  1.5177
63386SOL     OW 8149   2.216   2.894  12.135  0.5211  0.2998 -0.1830
63386SOL    HW1 8150   2.171   2.858  12.058  1.0713 -0.9272  0.0515
63386SOL    HW2 8151   2.294   2.936  12.100 -0.2885  1.6195 -0.4933
63387SOL     OW 8152   2.395   2.552   1.876  0.0764 -0.1238 -0.6624
63387SOL    HW1 8153   2.323   2.606   1.907  0.8084 -1.1189  3.3733
63387SOL    HW2 8154   2.354   2.485   1.822 -1.4859  1.3274 -1.3755
63388SOL     OW 8155   1.948   7.452   3.154 -0.5640  0.0868  0.3312
63388SOL    HW1 8156   1.875   7.437   3.094 -0.8034 -0.0006  0.6394
63388SOL    HW2 8157   2.009   7.380   3.136 -0.3067  0.4570 -0.2907
63389SOL     OW 8158   6.272   2.912  11.042  0.4293  0.5700 -0.1074
63389SOL    HW1 8159   6.320   2.925  10.960 -0.7430 -1.8371 -1.2658
63389SOL    HW2 8160   6.254   2.818  11.045 -1.3173  0.8969  1.9178
63390SOL     OW 8161   9.256  10.431   4.630 -0.1927  0.4570  0.0097
63390SOL    HW1 8162   9.180  10.452   4.575  0.3166  0.7305 -0.6038
63390SOL    HW2 8163   9.243  10.340   4.656 -0.8479  0.5730  0.1102
63391SOL     OW 8164   4.498   3.163   0.405  0.1860 -0.3972 -0.3041
63391SOL    HW1 8165   4.449   3.205   0.476  2.6046  1.3295  0.4583
63391SOL    HW2 8166   4.451   3.081   0.389 -1.7039  0.1834  1.7608
63392SOL     OW 8167   5.484   2.195  11.985 -0.0608  0.2194  0.4380
63392SOL    HW1 8168   5.529   2.223  12.065 -0.2231  0.4713  0.4425
63392SOL    HW2 8169   5.394   2.176  12.014 -0.4583  1.4977  0.0959
63393SOL     OW 8170   1.921  12.475   9.037 -0.1312  0.0270  0.0884
63393SOL    HW1 8171   1.929  12.483   8.942  1.4508 -1.4338  0.0494
63393SOL    HW2 8172   1.861  12.402   9.051  0.5392 -0.5221  0.1711
63394SOL     OW 8173   4.033   7.745  12.686 -0.2924  0.1326  0.1148
63394SOL    HW1 8174   4.044   7.764  12.593  0.6660 -1.1356 -0.0576
63394SOL    HW2 8175   4.003   7.828  12.724  1.1976  1.2301 -0.9936
63395SOL     OW 8176  13.766  13.418  10.398  0.3948 -0.1377  0.1967
63395SOL    HW1 8177  13.817  13.340  10.373  3.1630  0.9600  1.9566
63395SOL    HW2 8178  13.743  13.459  10.315  4.8696  0.7264 -0.8646
63396SOL     OW 8179  12.060   9.502   3.791 -0.3565 -0.5106  0.2832
63396SOL    HW1 8180  11.990   9.540   3.845 -0.8910 -0.3280 -0.5219
63396SOL    HW2 8181  12.141   9.525   3.836 -0.5805  2.3238 -0.5920
63397SOL     OW 8182  12.379   1.526   8.388  0.1429  0.6579  0.3133
63397SOL    HW1 8183  12.312   1.465   8.419 -2.0026  1.6673 -1.9008
63397SOL    HW2 8184  12.455   1.509   8.442 -1.2772 -1.9631  1.6641
63398SOL     OW 8185   1.092   4.014   6.485 -0.5574  0.0334 -0.0732
63398SOL    HW1 8186   1.127   3.944   6.430 -1.2499  1.2736 -2.2132
63398SOL    HW2 8187   0.997   4.004   6.480 -0.6648 -0.5194  1.9327
63399SOL     OW 8188   8.387   3.194   1.984  0.5480  0.3186 -0.3211
63399SOL    HW1 8189   8.477   3.225   1.985  0.6235  0.1363 -0.9700
63399SOL    HW2 8190   8.370   3.166   2.074  1.6519 -1.0974 -0.5229
63400SOL     OW 8191   7.416  12.049  10.388  0.1598  0.7331 -0.2596
63400SOL    HW1 8192   7.349  12.116  10.403 -0.4307  0.0153  0.3625
63400SOL    HW2 8193   7.470  12.051  10.467  0.4305  0.7925 -0.4436
63401SOL     OW 8194   7.589   2.051   7.421 -0.1997  0.1011 -0.1394
63401SOL    HW1 8195   7.645   1.982   7.383 -1.3281 -0.9479  0.0369
63401SOL    HW2 8196   7.503   2.036   7.383 -0.5960  1.0909  0.3307
63402SOL     OW 8197   5.071  10.154   1.373 -0.0983 -0.1763 -0.0155
63402SOL    HW1 8198   5.059  10.144   1.279 -1.7272 -1.1114  0.2547
63402SOL    HW2 8199   5.146  10.213   1.382  0.2108 -0.2374 -1.8813
63403SOL     OW 8200  13.199   0.688   1.739 -0.4563  0.4282 -0.2168
63403SOL    HW1 8201  13.197   0.593   1.730  1.2813  0.4723 -1.7745
63403SOL    HW2 8202  13.258   0.704   1.812 -2.0518  0.3166  1.1354
63404SOL     OW 8203   1.397  10.652  13.029  0.2148  0.6301 -0.5022
63404SOL    HW1 8204   1.348  10.573  13.051  1.4797 -0.7746 -2.3762
63404SOL    HW2 8205   1.347  10.723  13.067 -0.6087 -1.1074  1.8669
63405SOL     OW 8206   8.575   5.513   3.577 -0.0476 -0.1004  0.4537
63405SOL    HW1 8207   8.635   5.586   3.560  0.5232 -0.6010  0.3084
63405SOL    HW2 8208   8.588   5.492   3.669  0.4746 -0.6254  0.2664
63406SOL     OW 8209   6.765   8.200   4.076 -0.5427 -0.4125  0.7944
63406SOL    HW1 8210   6.849   8.241   4.098 -1.0845  1.0198  0.2208
63406SOL    HW2 8211   6.743   8.149   4.155  0.2309  0.2346  1.4496
63407SOL     OW 8212  11.628  10.397  13.337 -0.3596  0.2029  0.1809
63407SOL    HW1 8213  11.688  10.322  13.341 -2.3899 -1.4741  1.6583
63407SOL    HW2 8214  11.582  10.386  13.254 -0.8403 -0.3702  0.5164
63408SOL     OW 8215   9.861   6.777   8.349  0.4309  0.2357  0.2429
63408SOL    HW1 8216   9.847   6.872   8.349 -0.5027  0.1345 -1.3278
63408SOL    HW2 8217   9.879   6.755   8.441  0.7897  1.9351  0.6121
63409SOL     OW 8218   8.720   6.465   2.741 -0.3171 -0.0067  0.1321
63409SOL    HW1 8219   8.650   6.468   2.807 -0.6432 -1.1992 -0.1296
63409SOL    HW2 8220   8.756   6.377   2.750 -0.7380 -0.3913 -1.6524
63410SOL     OW 8221   0.162  11.223   3.726  0.3041 -0.2169  0.1366
63410SOL    HW1 8222   0.123  11.292   3.673 -1.2333  0.1086  1.5889
63410SOL    HW2 8223   0.116  11.143   3.699 -0.1895 -0.1191  0.6730
63411SOL     OW 8224   8.904   8.967   0.231  0.0302 -0.2037  0.6997
63411SOL    HW1 8225   8.870   9.021   0.160  0.1513  1.0375  1.5533
63411SOL    HW2 8226   8.827   8.932   0.274 -0.0368 -1.4800 -0.3984
63412SOL     OW 8227   4.982  10.576   0.774 -0.2955 -0.4513 -0.1593
63412SOL    HW1 8228   4.902  10.625   0.755  0.1702  0.2137 -0.4552
63412SOL    HW2 8229   4.975  10.555   0.867 -0.0900  0.9773  0.2029
63413SOL     OW 8230   8.619   8.373   7.564 -0.5069 -0.1748 -0.2423
63413SOL    HW1 8231   8.714   8.375   7.560 -0.4277  1.4915  1.4348
63413SOL    HW2 8232   8.595   8.441   7.627 -2.7707 -1.1273  0.0501
63414SOL     OW 8233   9.271  12.742   3.987  0.2123 -0.5532 -0.1234
63414SOL    HW1 8234   9.219  12.811   3.946  0.6592  0.1265  0.4341
63414SOL    HW2 8235   9.229  12.661   3.959 -0.5485 -0.0490 -0.4815
63415SOL     OW 8236   0.711   1.839  11.186 -0.2833 -0.3476 -0.0831
63415SOL    HW1 8237   0.653   1.904  11.146  0.7371  0.5075 -0.2223
63415SOL    HW2 8238   0.725   1.871  11.275  0.2972 -0.3097 -0.1812
63416SOL     OW 8239  11.589  12.425   4.690  0.0680 -0.2392  0.1029
63416SOL    HW1 8240  11.546  12.352   4.734  0.2326 -0.5158 -0.1956
63416SOL    HW2 8241  11.530  12.499   4.705 -0.0851 -0.4243  0.4296
63417SOL     OW 8242   4.190   3.559   5.037 -0.7750 -0.4590 -0.5473
63417SOL    HW1 8243   4.119   3.558   5.101  1.8338 -1.0156  2.5773
63417SOL    HW2 8244   4.169   3.488   4.976 -1.9845 -1.8395  1.3946
63418SOL     OW 8245  13.705   5.516   3.177  0.7643  0.3786  0.6034
63418SOL    HW1 8246  13.625   5.499   3.128 -0.1874  1.5867  1.6253
63418SOL    HW2 8247  13.765   5.446   3.152 -0.3275 -0.1048 -0.7998
63419SOL     OW 8248   4.316   3.706  11.581 -0.1085  0.6750 -0.3021
63419SOL    HW1 8249   4.383   3.760  11.622 -0.7770  1.3358 -0.0688
63419SOL    HW2 8250   4.265   3.671  11.655  0.4202 -0.4322 -0.4336
63420SOL     OW 8251  11.130   4.644   4.688  0.3075 -0.2671  0.0614
63420SOL    HW1 8252  11.177   4.643   4.771 -0.2455  1.5678  0.4309
63420SOL    HW2 8253  11.147   4.730   4.651 -1.6534 -0.0429 -0.4431
63421SOL     OW 8254  11.632   8.361   3.790  0.0573 -0.1304  0.2208
63421SOL    HW1 8255  11.600   8.406   3.712  0.3467 -1.5198 -0.7572
63421SOL    HW2 8256  11.727   8.374   3.787  0.1613 -0.9079 -0.1660
63422SOL     OW 8257  14.029   7.922   2.235  0.0088  0.0229 -0.3031
63422SOL    HW1 8258  13.976   7.982   2.183 -1.5915  0.7351  1.9642
63422SOL    HW2 8259  13.975   7.903   2.312  1.8914 -1.5922  0.7220
63423SOL     OW 8260   6.765  12.088  11.414  0.1798 -0.6945 -0.0769
63423SOL    HW1 8261   6.749  12.119  11.325  1.3903 -0.7003 -0.3147
63423SOL    HW2 8262   6.723  12.154  11.470 -1.3979 -1.1819 -0.6482
63424SOL     OW 8263   6.941   0.389   0.528 -0.3609 -0.1961  0.0612
63424SOL    HW1 8264   6.852   0.415   0.551  0.5351  2.5455  0.8310
63424SOL    HW2 8265   6.965   0.323   0.593 -1.9572 -1.4132 -0.5079
63425SOL     OW 8266   2.406   5.201  13.940  0.1707 -0.0126 -0.3247
63425SOL    HW1 8267   2.422   5.289  13.906  0.2852 -0.5415 -1.7218
63425SOL    HW2 8268   2.379   5.215  14.031  1.4256  1.3786 -0.1199
63426SOL     OW 8269   8.758  12.916   6.503  0.1639 -0.3000 -0.4258
63426SOL    HW1 8270   8.760  12.870   6.420  0.3824  0.2660 -0.7376
63426SOL    HW2 8271   8.709  12.858   6.562  0.1885 -0.7916 -0.8886
63427SOL     OW 8272   6.965   1.644   7.879  0.0268 -0.2355 -0.3494
63427SOL    HW1 8273   6.971   1.596   7.796  0.4503  0.1799 -0.5647
63427SOL    HW2 8274   7.028   1.715   7.870  0.9384 -0.8670  0.7875
63428SOL     OW 8275   3.017   0.792   1.551  0.3053  0.0722  0.1428
63428SOL    HW1 8276   3.033   0.883   1.577 -0.5584 -0.1882  1.6842
63428SOL    HW2 8277   3.031   0.741   1.631 -2.8775 -0.7137  0.3405
63429SOL     OW 8278  11.156   3.759   6.800 -0.0818  0.8591  0.5366
63429SOL    HW1 8279  11.073   3.742   6.755  2.1888 -0.8684 -3.5505
63429SOL    HW2 8280  11.156   3.698   6.874 -2.1988  0.5954  0.3823
63430SOL     OW 8281   4.132   1.327   0.614  0.1904 -0.0464 -0.0904
63430SOL    HW1 8282   4.174   1.243   0.591  2.0603  0.2539  1.9102
63430SOL    HW2 8283   4.038   1.307   0.614  0.4633 -1.6172 -1.5571
63431SOL     OW 8284   4.314   0.688   7.542  0.0384  0.5799 -0.3554
63431SOL    HW1 8285   4.378   0.759   7.547 -1.0420  1.5129  1.1953
63431SOL    HW2 8286   4.252   0.716   7.474  0.0215  0.7825 -0.2574
63432SOL     OW 8287   2.364  12.122  11.186 -0.1021 -0.2509 -0.0668
63432SOL    HW1 8288   2.348  12.033  11.153  0.1643 -1.2881  2.3674
63432SOL    HW2 8289   2.452  12.143  11.155  0.3752 -1.4215  0.4070
63433SOL     OW 8290   6.194   4.592  11.772  0.7670 -0.0049  0.2385
63433SOL    HW1 8291   6.131   4.520  11.763  0.1019  0.3744  1.5952
63433SOL    HW2 8292   6.179   4.647  11.696  0.6255 -0.8114 -0.3266
63434SOL     OW 8293  11.733  10.244   5.770 -0.4072  0.6025  0.1046
63434SOL    HW1 8294  11.823  10.266   5.745 -0.3023  0.7407  0.6053
63434SOL    HW2 8295  11.696  10.203   5.691  0.2336  0.1176  0.0550
63435SOL     OW 8296   0.075   1.855   2.594 -0.0412  0.7073 -0.5655
63435SOL    HW1 8297   0.080   1.947   2.620 -0.4969  1.4957 -3.0239
63435SOL    HW2 8298  -0.018   1.839   2.578  0.1521  0.1341 -1.1603
63436SOL     OW 8299   7.960   4.835  11.320  0.1032 -0.1347  0.1083
63436SOL    HW1 8300   7.877   4.819  11.276 -0.1364  0.1315  0.4551
63436SOL    HW2 8301   7.956   4.783  11.400 -0.1260  0.5884  0.5857
63437SOL     OW 8302   9.836   3.648   6.585 -0.3069 -0.0398  0.1230
63437SOL    HW1 8303   9.765   3.597   6.625 -2.0833  2.0322 -0.2073
63437SOL    HW2 8304   9.810   3.656   6.493  0.1882  1.0238  0.0685
63438SOL     OW 8305  13.234   0.606   8.806  0.2363  0.3215  0.3463
63438SOL    HW1 8306  13.219   0.665   8.732  1.1078 -1.7998 -1.6425
63438SOL    HW2 8307  13.148   0.565   8.822 -0.1702  1.4382  1.1837
63439SOL     OW 8308   8.149   1.673   6.804 -0.2242  0.0670  0.2616
63439SOL    HW1 8309   8.181   1.598   6.755 -1.4490 -0.5966  0.4473
63439SOL    HW2 8310   8.208   1.680   6.879  0.6381  0.0676 -0.3883
63440SOL     OW 8311  11.609  11.160   7.944  0.3878  0.2202 -0.7456
63440SOL    HW1 8312  11.583  11.186   8.033  0.5031 -2.1324  0.0580
63440SOL    HW2 8313  11.526  11.141   7.900  0.4177 -0.7409 -0.4018
63441SOL     OW 8314   0.183  13.747   4.592  0.1114 -0.1341  0.0254
63441SOL    HW1 8315   0.149  13.830   4.625  1.4481  0.5968 -0.4026
63441SOL    HW2 8316   0.120  13.682   4.623 -1.4879  1.1285 -0.4378
63442SOL     OW 8317   6.634   1.635   8.181 -0.2247 -0.4748 -0.0557
63442SOL    HW1 8318   6.559   1.692   8.200  0.1961 -0.4166  1.5647
63442SOL    HW2 8319   6.622   1.559   8.238  0.8793 -0.5188  0.1486
63443SOL     OW 8320   8.640   0.710  13.517 -0.3513 -0.2914  0.0010
63443SOL    HW1 8321   8.590   0.724  13.598 -2.4510 -0.5914 -1.1686
63443SOL    HW2 8322   8.634   0.794  13.471  2.2617  0.4354  0.8039
63444SOL     OW 8323   3.406   2.078   8.044 -0.3060  0.0125  0.0986
63444SOL    HW1 8324   3.421   2.051   7.954 -0.3823  0.4292 -0.0412
63444SOL    HW2 8325   3.440   2.006   8.097 -2.9643 -1.6592 -0.2860
63445SOL     OW 8326  12.884   3.980  10.765 -0.0490  0.1973  1.0644
63445SOL    HW1 8327  12.959   4.030  10.735  0.9424 -2.2588 -0.8896
63445SOL    HW2 8328  12.825   3.978  10.690 -0.6957 -0.3974  1.5750
63446SOL     OW 8329  12.104   8.049   7.800  0.1593 -0.4601 -0.2237
63446SOL    HW1 8330  12.033   8.075   7.741 -0.8044 -0.5410  0.8640
63446SOL    HW2 8331  12.155   7.986   7.750 -0.5621 -0.4327 -1.0106
63447SOL     OW 8332   4.661  12.291  13.760  0.2849 -0.4196  0.4320
63447SOL    HW1 8333   4.597  12.315  13.692  0.6269  2.6714  1.0758
63447SOL    HW2 8334   4.726  12.239  13.713 -0.4710  0.0140 -1.1916
63448SOL     OW 8335  13.456   0.773   2.317 -0.2394  0.1584  0.4632
63448SOL    HW1 8336  13.456   0.678   2.320 -0.0097  0.1761  1.3766
63448SOL    HW2 8337  13.490   0.800   2.402  0.7565  1.0580 -0.1973
63449SOL     OW 8338   8.543   8.292   6.759 -0.3330  0.4875  0.2803
63449SOL    HW1 8339   8.554   8.305   6.853  0.7733  2.0723 -0.0359
63449SOL    HW2 8340   8.601   8.219   6.738 -2.4148 -1.5576  1.1732
63450SOL     OW 8341   8.037   5.633  12.408  0.3853 -0.0129 -0.0712
63450SOL    HW1 8342   8.079   5.599  12.329  1.6698  0.5787  0.3265
63450SOL    HW2 8343   7.943   5.620  12.393  0.6131 -0.0310 -1.6239
63451SOL     OW 8344  10.840   5.127   5.699  0.2351  0.0377 -0.2439
63451SOL    HW1 8345  10.909   5.125   5.765 -0.2292 -0.8943  0.2373
63451SOL    HW2 8346  10.856   5.208   5.650  1.6559 -0.1569 -0.1461
63452SOL     OW 8347   1.883  13.952   2.501  0.4596 -0.5430  0.1794
63452SOL    HW1 8348   1.873  14.018   2.433 -2.1887 -1.1904 -0.1961
63452SOL    HW2 8349   1.966  13.909   2.481  1.2691  1.3292 -0.7303
63453SOL     OW 8350   5.222   5.152   7.959  0.1071 -0.6281 -0.2698
63453SOL    HW1 8351   5.279   5.087   7.999 -0.9672 -1.5707 -0.2285
63453SOL    HW2 8352   5.275   5.189   7.887  1.0282 -0.9197  0.2407
63454SOL     OW 8353   5.436  13.652  10.865  0.2041 -0.0829  0.3304
63454SOL    HW1 8354   5.450  13.734  10.913  0.3742 -0.4194  0.8680
63454SOL    HW2 8355   5.437  13.585  10.933  0.1332 -0.5392 -0.1167
63455SOL     OW 8356  12.311   9.045   8.725 -0.2785 -0.0945  0.3918
63455SOL    HW1 8357  12.255   8.974   8.694 -0.1469 -0.1151  0.2027
63455SOL    HW2 8358  12.326   9.025   8.817 -2.0685  0.8677  0.9273
63456SOL     OW 8359  12.675  10.863   5.886 -0.1392 -0.6329 -0.0158
63456SOL    HW1 8360  12.735  10.853   5.960 -1.8606 -1.0478  1.4074
63456SOL    HW2 8361  12.671  10.776   5.847 -1.2309 -1.1239  1.0978
63457SOL     OW 8362   2.627   4.315  14.103  0.3217 -0.0870 -0.7306
63457SOL    HW1 8363   2.667   4.241  14.057 -0.1957 -0.4625 -0.5770
63457SOL    HW2 8364   2.627   4.386  14.038  1.0844 -0.1230 -0.7867
63458SOL     OW 8365   6.938   7.825  11.952  0.2576  0.4680 -0.1506
63458SOL    HW1 8366   6.970   7.911  11.979 -0.1000  0.3475  0.6883
63458SOL    HW2 8367   6.885   7.842  11.875  2.5080  0.6470 -1.7344
63459SOL     OW 8368   6.129  10.555   2.097 -0.1765 -0.5266 -0.0167
63459SOL    HW1 8369   6.061  10.596   2.149  0.5911  1.2108 -0.3132
63459SOL    HW2 8370   6.087  10.478   2.058 -1.3048 -0.7549  1.5664
63460SOL     OW 8371   5.312   9.403   1.973  0.1306 -0.0325 -0.0840
63460SOL    HW1 8372   5.386   9.428   1.918 -0.2664  1.8249  0.1639
63460SOL    HW2 8373   5.263   9.340   1.921 -0.5036  2.0222 -2.1169
63461SOL     OW 8374  12.498   0.969   5.633  0.0054  0.1673  0.5598
63461SOL    HW1 8375  12.444   1.042   5.663 -0.9604  1.1728 -3.1309
63461SOL    HW2 8376  12.437   0.908   5.592  1.0402 -1.8109  1.7776
63462SOL     OW 8377   9.453   7.665   1.335 -0.1648  0.0534 -0.1419
63462SOL    HW1 8378   9.418   7.679   1.247  0.6260 -1.9232 -0.8123
63462SOL    HW2 8379   9.547   7.683   1.326  0.2641 -1.9621 -0.2228
63463SOL     OW 8380   9.988   9.003   9.341 -0.2716  0.1754 -0.4805
63463SOL    HW1 8381   9.948   9.041   9.419  1.0228  1.0982 -0.2389
63463SOL    HW2 8382  10.019   8.917   9.369  2.2350  1.3638  0.7554
63464SOL     OW 8383  11.888  12.904   4.795  0.6912 -0.1138 -0.2976
63464SOL    HW1 8384  11.970  12.886   4.840  1.3247 -0.5103 -1.5541
63464SOL    HW2 8385  11.914  12.952   4.716 -0.0758 -1.7749 -1.6319
63465SOL     OW 8386   4.084   7.819  12.418  0.0638 -0.1170 -0.0240
63465SOL    HW1 8387   4.088   7.738  12.367  0.3112  0.5501 -1.1010
63465SOL    HW2 8388   4.164   7.866  12.394  0.5546 -0.0768  1.5314
63466SOL     OW 8389   4.241   7.214   0.099  0.1888  0.5390  0.0189
63466SOL    HW1 8390   4.286   7.131   0.113  0.3605  0.6510  0.1286
63466SOL    HW2 8391   4.153   7.199   0.135 -0.5537 -0.3520 -2.0292
63467SOL     OW 8392  13.059   4.249   4.262 -0.5290 -0.4132 -0.7234
63467SOL    HW1 8393  13.051   4.312   4.191 -0.5092 -0.9640 -1.2181
63467SOL    HW2 8394  13.141   4.273   4.306 -1.6040  1.2574  0.4423
63468SOL     OW 8395  12.390   4.831   0.257  0.4121 -0.1784 -0.3252
63468SOL    HW1 8396  12.308   4.820   0.209 -1.0223 -0.4699  2.0106
63468SOL    HW2 8397  12.419   4.742   0.276  0.2888 -0.0827  0.3549
63469SOL     OW 8398  11.758   7.841   8.676 -0.2016 -0.0469  0.2272
63469SOL    HW1 8399  11.776   7.797   8.593  1.2883  0.5155  0.2259
63469SOL    HW2 8400  11.819   7.915   8.678 -0.9668  0.5907  1.3337
63470SOL     OW 8401   8.634   8.591   6.634 -0.1916  0.3005 -0.2401
63470SOL    HW1 8402   8.612   8.500   6.616  1.5161 -0.3530  0.7411
63470SOL    HW2 8403   8.606   8.605   6.725  0.2114  0.5057 -0.1415
63471SOL     OW 8404   8.406   3.476   9.254 -0.0166 -0.4978 -0.1671
63471SOL    HW1 8405   8.444   3.424   9.325  0.6079  0.1083 -0.0395
63471SOL    HW2 8406   8.440   3.564   9.269 -0.0819 -0.3078 -1.0751
63472SOL     OW 8407  14.029   7.297   4.369 -0.3229 -0.0831  0.7994
63472SOL    HW1 8408  14.050   7.383   4.405  1.0139  0.2470 -0.6726
63472SOL    HW2 8409  13.940   7.307   4.334  0.0751  0.9490  0.0042
63473SOL     OW 8410   1.756   1.942   7.290 -0.5013 -0.0949  0.5881
63473SOL    HW1 8411   1.719   2.028   7.309  0.4991  0.5014 -0.1106
63473SOL    HW2 8412   1.849   1.958   7.276 -0.6750 -0.8892 -2.0060
63474SOL     OW 8413  10.067   0.984   1.602 -0.7339 -0.2593 -0.2915
63474SOL    HW1 8414  10.075   0.903   1.551  1.3910  0.0481 -0.5590
63474SOL    HW2 8415  10.109   0.963   1.686 -1.3358  0.1923  0.1243
63475SOL     OW 8416   8.030  10.509   8.333  0.2393  0.0450  0.9387
63475SOL    HW1 8417   8.093  10.491   8.403  1.4416  0.5011  0.0066
63475SOL    HW2 8418   8.080  10.558   8.268 -1.1437  0.6162  0.2616
63476SOL     OW 8419   5.822   1.176  10.158  0.8148 -0.1904  0.3343
63476SOL    HW1 8420   5.816   1.218  10.244  1.1971 -2.3495  1.4790
63476SOL    HW2 8421   5.732   1.167  10.129  0.5838 -0.9164  1.2662
63477SOL     OW 8422   6.325  11.434   3.987 -0.2371 -0.1425  0.2865
63477SOL    HW1 8423   6.329  11.349   4.030  1.1976  0.2089  0.8745
63477SOL    HW2 8424   6.347  11.497   4.055 -1.2103  0.7126 -0.1604
63478SOL     OW 8425   4.091   4.765   9.667 -0.5669 -0.7026 -0.0190
63478SOL    HW1 8426   4.088   4.678   9.628  0.9814 -1.6673  1.8060
63478SOL    HW2 8427   4.121   4.750   9.757 -1.0951  1.6457  0.6297
63479SOL     OW 8428  12.210   9.545   1.218 -0.3001 -0.1346 -0.3956
63479SOL    HW1 8429  12.179   9.513   1.133 -1.1501 -0.6942  0.1069
63479SOL    HW2 8430  12.168   9.487   1.281  0.8497 -0.1469  0.3818
63480SOL     OW 8431   2.735   6.806  11.770 -0.0575 -1.0127 -0.1924
63480SOL    HW1 8432   2.714   6.727  11.720 -1.9900 -0.7952  0.1741
63480SOL    HW2 8433   2.781   6.862  11.709 -1.7743 -1.0219 -1.5672
63481SOL     OW 8434   2.300  10.012   8.531  0.0794 -0.2026  0.2599
63481SOL    HW1 8435   2.337   9.976   8.612  0.8091 -1.4432 -0.5970
63481SOL    HW2 8436   2.312  10.106   8.539 -0.0722 -0.2752  1.6939
63482SOL     OW 8437   1.419   3.325   3.411  0.2356  0.1282  0.2111
63482SOL    HW1 8438   1.389   3.242   3.449  0.3824 -0.2139 -0.4046
63482SOL    HW2 8439   1.367   3.335   3.332  1.0002  0.0636 -0.3096
63483SOL     OW 8440  12.313   5.956  12.352 -0.2462  0.0744  0.0369
63483SOL    HW1 8441  12.409   5.957  12.346 -0.2561 -0.0361 -0.1366
63483SOL    HW2 8442  12.284   6.008  12.277 -0.2826  1.2704  0.8448
63484SOL     OW 8443   0.633   6.563  11.466 -0.1575 -0.1738 -0.3200
63484SOL    HW1 8444   0.640   6.511  11.546  1.8176 -0.5855 -0.7025
63484SOL    HW2 8445   0.656   6.652  11.493  0.3961 -0.2905 -0.3932
63485SOL     OW 8446   4.503   0.035  10.939 -0.1256  0.5264 -0.0458
63485SOL    HW1 8447   4.448  -0.022  10.992 -0.9888  2.7613  1.5821
63485SOL    HW2 8448   4.591  -0.002  10.947 -0.8258 -1.2239 -0.0304
63486SOL     OW 8449   5.838   1.063   4.291  0.5534 -0.3948  0.4983
63486SOL    HW1 8450   5.807   1.004   4.360 -2.1050  0.2897  0.0063
63486SOL    HW2 8451   5.866   1.141   4.337 -1.0977  0.0138  0.8659
63487SOL     OW 8452  11.078   9.917   6.653 -1.1031 -0.3499 -0.4500
63487SOL    HW1 8453  11.113   9.847   6.708 -0.9189 -1.5577 -2.0153
63487SOL    HW2 8454  10.990   9.933   6.689 -1.1267 -1.3484 -0.0114
63488SOL     OW 8455   8.429   6.353   2.633  0.7967 -0.4447  0.4899
63488SOL    HW1 8456   8.519   6.379   2.652  1.5746  1.7993 -4.5072
63488SOL    HW2 8457   8.375   6.426   2.663  1.1681  0.0373  0.0049
63489SOL     OW 8458   0.809  11.555   0.593 -0.0622  0.3964  0.3186
63489SOL    HW1 8459   0.854  11.471   0.599 -0.1170  0.3195 -0.3055
63489SOL    HW2 8460   0.829  11.599   0.676 -1.3812 -0.8989  1.3756
63490SOL     OW 8461  10.730   4.708  12.723 -0.0604 -0.1632  0.0836
63490SOL    HW1 8462  10.697   4.744  12.640  1.4766 -0.0558 -0.5118
63490SOL    HW2 8463  10.822   4.689  12.706  0.5605  0.8151  2.0693
63491SOL     OW 8464   4.093   0.606   9.268  0.2195  0.3413 -0.5715
63491SOL    HW1 8465   4.155   0.542   9.304  0.9398  1.2213 -0.2070
63491SOL    HW2 8466   4.127   0.690   9.297  0.1707  1.0058 -2.3343
63492SOL     OW 8467   3.059   2.623   5.928 -0.1977 -0.0333  0.2641
63492SOL    HW1 8468   3.118   2.559   5.967  0.0919 -0.0954 -0.2628
63492SOL    HW2 8469   3.117   2.696   5.903 -0.4102  0.1005  0.1626
63493SOL     OW 8470   0.765   3.676  13.294  0.4402  0.0002  0.2222
63493SOL    HW1 8471   0.695   3.615  13.272  1.6319 -1.7857  1.0963
63493SOL    HW2 8472   0.824   3.674  13.218  0.7632 -0.3913  0.4781
63494SOL     OW 8473  13.205   1.903   0.898 -0.0628  0.4369  0.4663
63494SOL    HW1 8474  13.175   1.980   0.946  0.4293  1.9728 -1.5721
63494SOL    HW2 8475  13.243   1.938   0.818 -0.4115 -1.9751 -0.8377
63495SOL     OW 8476   4.716   0.004  12.556  0.4307 -0.5981 -0.0906
63495SOL    HW1 8477   4.663  -0.076  12.548  0.1398 -0.3646 -0.5700
63495SOL    HW2 8478   4.725   0.036  12.466 -0.6291  0.6606  0.2139
63496SOL     OW 8479   7.331   2.623   8.702  0.5714 -0.0765  0.2031
63496SOL    HW1 8480   7.309   2.608   8.794  2.3831 -0.3963  0.6250
63496SOL    HW2 8481   7.406   2.566   8.686  0.4799  0.2071 -1.3959
63497SOL     OW 8482   1.867   1.617   2.785  0.8209  0.0345  0.7711
63497SOL    HW1 8483   1.836   1.563   2.711  1.3284 -0.0659  0.6266
63497SOL    HW2 8484   1.807   1.596   2.856  1.2162 -1.0079  0.8240
63498SOL     OW 8485  12.738  11.965  12.640 -0.1889  0.0317 -0.3960
63498SOL    HW1 8486  12.691  11.886  12.666  1.5882 -0.3697  1.8439
63498SOL    HW2 8487  12.679  12.037  12.664 -0.3260 -0.5079  0.9357
63499SOL     OW 8488   4.645   5.634   2.105  0.2433 -0.5100 -0.2211
63499SOL    HW1 8489   4.729   5.654   2.146  0.3170 -1.3844  0.0860
63499SOL    HW2 8490   4.580   5.656   2.171 -0.1996  4.3379 -1.8761
63500SOL     OW 8491  13.774   8.169  11.209 -0.2109 -0.1396  0.4231
63500SOL    HW1 8492  13.733   8.168  11.123  0.7400  1.9178 -0.1067
63500SOL    HW2 8493  13.842   8.103  11.205  1.1599  1.2768 -1.1533
63501SOL     OW 8494   7.695   1.913   5.010 -0.5039  0.6714  0.0511
63501SOL    HW1 8495   7.607   1.911   5.049 -0.0442  0.5497  1.1204
63501SOL    HW2 8496   7.754   1.899   5.084  0.3413 -1.4829 -0.9562
63502SOL     OW 8497   6.033   1.597   8.347 -0.6574  0.3280 -0.4139
63502SOL    HW1 8498   6.069   1.624   8.263 -0.2333  0.7051 -0.1164
63502SOL    HW2 8499   6.100   1.623   8.411 -0.9034 -0.0923  0.0235
63503SOL     OW 8500   0.563   4.363   3.973  0.1816 -0.1826  0.2583
63503SOL    HW1 8501   0.533   4.280   3.935  2.4008 -1.8937  1.9186
63503SOL    HW2 8502   0.602   4.411   3.900 -1.3070 -0.4892 -0.7689
63504SOL     OW 8503   5.407  13.216   8.252 -0.5950  0.1197 -0.0778
63504SOL    HW1 8504   5.380  13.239   8.341  0.1500 -0.4919  0.3142
63504SOL    HW2 8505   5.328  13.229   8.199 -1.6046 -1.3579  0.9919
63505SOL     OW 8506   0.448   8.398  10.197  0.6221  0.7761 -0.1359
63505SOL    HW1 8507   0.533   8.353  10.202  0.8326  1.2486  1.0651
63505SOL    HW2 8508   0.387   8.341  10.244  0.8689  1.6250  1.3048
63506SOL     OW 8509   5.984   3.220   0.876  0.4338  0.2856  0.0900
63506SOL    HW1 8510   5.971   3.258   0.963 -0.3958 -0.4630  0.3080
63506SOL    HW2 8511   5.935   3.138   0.878  2.4808 -1.0268 -0.2255
63507SOL     OW 8512  10.575   3.616   2.952 -0.0246  0.0977  0.0719
63507SOL    HW1 8513  10.559   3.522   2.961 -0.9032  0.0980 -1.1732
63507SOL    HW2 8514  10.630   3.638   3.027  0.5927 -1.4935  0.1403
63508SOL     OW 8515   1.603   5.719   4.624  0.1550 -0.1182 -0.0751
63508SOL    HW1 8516   1.692   5.751   4.640 -1.0816  2.5543  2.6332
63508SOL    HW2 8517   1.608   5.626   4.645  2.0509  0.2653  1.6444
63509SOL     OW 8518  14.059   7.434   6.059 -0.1002 -0.0242  0.0724
63509SOL    HW1 8519  14.130   7.416   5.998  0.5842 -0.7745  1.0518
63509SOL    HW2 8520  14.025   7.519   6.032  1.3675  0.4989 -0.2568
63510SOL     OW 8521   1.249   9.971   3.609  0.3167  0.2285 -0.2630
63510SOL    HW1 8522   1.186  10.033   3.573  0.8092  0.4810 -0.7046
63510SOL    HW2 8523   1.315  10.025   3.651 -0.7112 -0.0666  1.8919
63511SOL     OW 8524   3.722  11.140   0.402 -0.0106  0.3429 -0.4311
63511SOL    HW1 8525   3.671  11.210   0.361  2.1538  1.1736 -1.9147
63511SOL    HW2 8526   3.690  11.060   0.359 -1.0381  0.6411 -0.2620
63512SOL     OW 8527   4.602  13.034   0.175 -0.2718 -0.6550 -0.2397
63512SOL    HW1 8528   4.536  12.972   0.205 -0.7733  0.6363  1.4802
63512SOL    HW2 8529   4.668  13.035   0.245  1.1191 -1.2041 -1.4835
63513SOL     OW 8530   7.096   0.001   2.635  0.2067  0.4191  0.1821
63513SOL    HW1 8531   7.108  -0.075   2.578  2.3475  0.2633  0.7600
63513SOL    HW2 8532   7.004  -0.003   2.661 -0.2586 -0.7581 -1.4681
63514SOL     OW 8533  10.380   6.961  10.902  0.1752 -0.0716 -0.4328
63514SOL    HW1 8534  10.329   6.970  10.982  0.4767 -2.9751  0.1995
63514SOL    HW2 8535  10.470   6.983  10.928 -0.1600  1.9798 -0.7995
63515SOL     OW 8536   1.847   5.624  12.822  0.5257  0.1834  0.3397
63515SOL    HW1 8537   1.776   5.672  12.781 -1.9448 -0.5141  3.3792
63515SOL    HW2 8538   1.845   5.537  12.782  0.3558  0.4999 -0.3365
63516SOL     OW 8539   2.026   2.450  13.313 -0.2630 -0.3783  0.1045
63516SOL    HW1 8540   1.992   2.464  13.225  1.4970  1.5848 -0.3648
63516SOL    HW2 8541   1.949   2.442  13.369 -1.4234  0.5701 -1.3073
63517SOL     OW 8542  13.167  11.533  10.945 -0.0043 -0.2683 -0.0434
63517SOL    HW1 8543  13.098  11.468  10.932 -0.3078  0.3303 -1.6732
63517SOL    HW2 8544  13.169  11.583  10.863 -0.6186  2.5941  1.5487
63518SOL     OW 8545   2.395  11.912   7.415  0.1606  0.0391  0.4308
63518SOL    HW1 8546   2.312  11.898   7.461  1.3890  0.6766  3.0363
63518SOL    HW2 8547   2.385  11.996   7.371  0.3129  1.6338  3.1813
63519SOL     OW 8548  14.047   6.611   7.328 -0.4077  0.5049 -0.3113
63519SOL    HW1 8549  14.084   6.523   7.324 -1.0887  0.1787  0.2405
63519SOL    HW2 8550  14.010   6.617   7.416  1.8788  2.2797  0.6426
63520SOL     OW 8551   9.833  12.505   4.787  0.4839 -0.5333 -0.4250
63520SOL    HW1 8552   9.769  12.454   4.737 -0.2509 -0.2738  0.2322
63520SOL    HW2 8553   9.860  12.574   4.726 -0.6352 -0.0342 -0.3830
63521SOL     OW 8554   3.188   1.125  12.043 -0.2469 -0.2338  0.0656
63521SOL    HW1 8555   3.104   1.134  11.999 -0.1517  2.1860  0.2524
63521SOL    HW2 8556   3.252   1.154  11.979  0.1675  0.6155  0.8505
63522SOL     OW 8557   8.649   0.230   2.994  0.4906 -0.2127 -0.1768
63522SOL    HW1 8558   8.608   0.218   2.909  0.0747  3.0018 -0.5170
63522SOL    HW2 8559   8.585   0.194   3.056  0.1234 -1.1799 -1.0841
63523SOL     OW 8560   5.377  10.636   9.840 -0.6006 -0.4409  0.3706
63523SOL    HW1 8561   5.298  10.680   9.808 -0.1971 -0.7333 -1.1443
63523SOL    HW2 8562   5.425  10.704   9.887 -1.6902 -0.2342  1.2195
63524SOL     OW 8563  12.729  10.674   9.805 -0.1049  0.3295  0.2155
63524SOL    HW1 8564  12.803  10.692   9.745 -0.9942  1.2299 -0.6570
63524SOL    HW2 8565  12.758  10.600   9.857  1.0610  0.0673 -0.7530
63525SOL     OW 8566  10.968  13.769   0.178 -0.3008  0.4991 -0.1867
63525SOL    HW1 8567  10.918  13.688   0.185 -1.1534  1.0060 -0.3114
63525SOL    HW2 8568  11.039  13.748   0.117 -0.8371  0.0069 -0.6546
63526SOL     OW 8569   7.928   9.929  10.790 -0.0289 -0.0536 -0.1861
63526SOL    HW1 8570   7.837   9.900  10.784 -0.6700  1.8306 -0.3228
63526SOL    HW2 8571   7.922  10.022  10.809  1.8900  0.1561 -0.4072
63527SOL     OW 8572   2.197   6.136  10.692 -0.1441 -0.4380  0.3079
63527SOL    HW1 8573   2.180   6.050  10.654 -0.4241 -0.0848 -0.4046
63527SOL    HW2 8574   2.273   6.124  10.749  1.4685 -0.6500 -1.7615
63528SOL     OW 8575   5.456   0.749  11.611 -0.2552  0.1013 -0.2701
63528SOL    HW1 8576   5.439   0.681  11.676 -0.6817 -0.0994 -0.5869
63528SOL    HW2 8577   5.552   0.752  11.603 -0.2584 -1.7097 -1.5481
63529SOL     OW 8578   5.852  13.827   6.978 -0.4556 -0.0090  0.7897
63529SOL    HW1 8579   5.926  13.867   6.932 -0.4010 -0.4194  0.5166
63529SOL    HW2 8580   5.784  13.895   6.977 -0.2121  0.2369  0.7204
63530SOL     OW 8581   6.795   7.049  13.055  0.1193  0.4505  0.0450
63530SOL    HW1 8582   6.788   7.135  13.097  2.6559  1.9676 -2.2750
63530SOL    HW2 8583   6.887   7.041  13.032 -0.3329 -2.2241 -1.2198
63531SOL     OW 8584   5.897   4.076   6.322 -0.0627  0.5253 -0.1252
63531SOL    HW1 8585   5.975   4.021   6.322 -0.0409  0.5236 -1.4599
63531SOL    HW2 8586   5.845   4.045   6.397 -0.0205 -1.2687 -0.7860
63532SOL     OW 8587  12.394   3.777  13.477  0.1857 -0.1765  0.2073
63532SOL    HW1 8588  12.300   3.773  13.462  0.1891  0.7491 -0.1617
63532SOL    HW2 8589  12.406   3.853  13.533  0.6598 -0.6747  0.7884
63533SOL     OW 8590  13.283   0.761   5.651 -0.0811  0.0259  0.4038
63533SOL    HW1 8591  13.303   0.741   5.559  0.8260 -0.5598  0.7177
63533SOL    HW2 8592  13.272   0.856   5.653  1.2803  0.2088 -0.0654
63534SOL     OW 8593   2.757  10.402   5.788  0.2792  0.3961 -0.1224
63534SOL    HW1 8594   2.750  10.308   5.804  1.6114  0.2309 -0.4561
63534SOL    HW2 8595   2.818  10.434   5.854 -1.1448  1.2878  0.8304
63535SOL     OW 8596   9.940   7.554   5.513 -0.0377  0.1819  0.2104
63535SOL    HW1 8597  10.007   7.507   5.562  2.1834 -0.4540 -3.0983
63535SOL    HW2 8598   9.872   7.489   5.495  0.4012 -0.2724  0.1923
63536SOL     OW 8599  10.355   4.397   3.567  0.7671  0.0596 -0.2532
63536SOL    HW1 8600  10.351   4.303   3.586  1.1407 -0.5675 -2.8214
63536SOL    HW2 8601  10.438   4.426   3.604  1.1602 -0.8850 -0.3767
63537SOL     OW 8602   5.322  12.359   2.374  0.0333  0.1858 -0.2072
63537SOL    HW1 8603   5.234  12.328   2.352 -0.2239 -1.5516  2.7019
63537SOL    HW2 8604   5.366  12.281   2.409  2.1562  1.4087 -0.0125
63538SOL     OW 8605  11.649  10.162   0.365 -0.1991 -0.0320  0.0829
63538SOL    HW1 8606  11.575  10.110   0.333 -0.4825  0.4423 -0.0343
63538SOL    HW2 8607  11.717  10.097   0.385 -0.4574 -0.4305 -0.3116
63539SOL     OW 8608   6.235   4.337  12.709 -0.2303  0.5049  0.2438
63539SOL    HW1 8609   6.258   4.390  12.633 -0.6813  0.4249  0.0461
63539SOL    HW2 8610   6.146   4.365  12.732 -0.2498  0.2474  0.4924
63540SOL     OW 8611   6.358  11.274   4.263  0.7345  0.3964  0.3793
63540SOL    HW1 8612   6.293  11.319   4.317  1.7331  0.5711  1.4824
63540SOL    HW2 8613   6.433  11.261   4.321  1.3734 -0.5633 -0.6108
63541SOL     OW 8614   3.148   8.787   6.086  0.5642 -0.4471 -0.1033
63541SOL    HW1 8615   3.082   8.855   6.102  1.4236 -0.1651  2.9115
63541SOL    HW2 8616   3.101   8.705   6.095  0.2856 -0.2350  0.4749
63542SOL     OW 8617   2.061   3.697  11.884  0.2973  0.0173  0.1895
63542SOL    HW1 8618   2.151   3.701  11.852  0.6000  0.9482  1.1001
63542SOL    HW2 8619   2.068   3.719  11.977 -0.8722  0.1221  0.2652
63543SOL     OW 8620  10.324  13.950   7.936  0.1491  0.1212 -0.2291
63543SOL    HW1 8621  10.340  13.899   7.857  1.8721  1.7419 -1.0326
63543SOL    HW2 8622  10.365  13.900   8.007  1.0049 -0.0494 -0.8382
63544SOL     OW 8623   4.623  10.089  10.879 -0.8484  0.1919 -0.1259
63544SOL    HW1 8624   4.571  10.164  10.908 -2.8335 -0.8758 -0.7656
63544SOL    HW2 8625   4.649  10.111  10.790 -1.5744  0.0438 -0.3746
63545SOL     OW 8626   4.163  11.122  10.871 -0.2256 -1.1099 -0.1876
63545SOL    HW1 8627   4.108  11.047  10.847 -1.4822  0.0144 -0.9287
63545SOL    HW2 8628   4.178  11.168  10.789 -0.6369  0.2037  0.4522
63546SOL     OW 8629  13.091   9.005  12.339  0.6155 -0.2391  0.2217
63546SOL    HW1 8630  13.082   9.036  12.429 -0.3915 -1.5123  0.5999
63546SOL    HW2 8631  13.008   9.029  12.297 -0.6940 -3.1659  0.8316
63547SOL     OW 8632  10.792   5.063   0.183  0.4395 -0.2085 -0.3238
63547SOL    HW1 8633  10.741   5.144   0.192  1.6308  0.4713  0.5964
63547SOL    HW2 8634  10.851   5.063   0.258  1.0692 -1.5042 -0.7836
63548SOL     OW 8635   4.901  11.419   6.608 -0.0398  0.1744 -0.0343
63548SOL    HW1 8636   4.837  11.348   6.609 -0.4416  0.5258  1.3987
63548SOL    HW2 8637   4.875  11.476   6.681  1.9320  0.3016  0.6151
63549SOL     OW 8638   6.964   7.411   2.618  0.1678  0.0128 -0.3869
63549SOL    HW1 8639   6.952   7.501   2.588  0.7796 -0.4467 -2.0944
63549SOL    HW2 8640   7.042   7.380   2.572 -0.6453 -1.7408 -0.6483
63550SOL     OW 8641  11.960   2.895  11.074  0.2986  0.1074 -0.4989
63550SOL    HW1 8642  12.008   2.817  11.045  0.8697 -0.3263  1.4461
63550SOL    HW2 8643  12.023   2.966  11.063  0.3981 -0.0045 -0.6570
63551SOL     OW 8644   8.575   9.027  11.094  0.0516 -0.0129  0.0335
63551SOL    HW1 8645   8.515   9.040  11.020 -0.8399  1.0334  0.9074
63551SOL    HW2 8646   8.531   9.069  11.168  1.0049 -0.8918  1.1303
63552SOL     OW 8647  13.221   4.044   5.809 -0.1676  0.1469  0.0748
63552SOL    HW1 8648  13.170   4.078   5.736  1.8067  0.5544 -1.1965
63552SOL    HW2 8649  13.312   4.052   5.781  0.5847 -1.9304  1.6047
63553SOL     OW 8650   4.455   9.585  11.990  0.1743  0.7372  0.3700
63553SOL    HW1 8651   4.472   9.494  11.963  2.5199  1.2171 -0.0399
63553SOL    HW2 8652   4.456   9.635  11.908 -0.6981  1.1933  0.6317
63554SOL     OW 8653  12.410  13.562   4.922 -0.3652  0.1463  0.2093
63554SOL    HW1 8654  12.438  13.555   5.013 -1.6757  0.7138  0.6679
63554SOL    HW2 8655  12.468  13.629   4.885 -1.1255  1.3784  1.1725
63555SOL     OW 8656   5.973  11.989   5.821 -0.1961 -0.1302 -0.0693
63555SOL    HW1 8657   5.886  12.013   5.850 -0.4298 -1.1734  0.1363
63555SOL    HW2 8658   5.965  11.982   5.725 -0.3592 -0.3001 -0.0436
63556SOL     OW 8659   5.606  11.348   6.640  0.1783  0.0860 -0.6435
63556SOL    HW1 8660   5.575  11.366   6.728  0.6091 -0.6449 -0.3337
63556SOL    HW2 8661   5.702  11.347   6.647  0.1991 -0.7304 -0.9570
63557SOL     OW 8662   1.967   3.835  12.568  0.1497  0.0290  0.1183
63557SOL    HW1 8663   1.950   3.741  12.571 -0.7442  0.1646 -0.3738
63557SOL    HW2 8664   1.919   3.870  12.644  0.8435  0.0394  0.5578
63558SOL     OW 8665  11.091   5.456   6.346 -0.2822 -0.5527  0.4331
63558SOL    HW1 8666  11.101   5.390   6.415 -0.7031  0.5265  1.5723
63558SOL    HW2 8667  10.999   5.481   6.350  0.2181  1.3574  1.2672
63559SOL     OW 8668   7.589   0.732   5.047  0.4717 -0.3523 -0.1381
63559SOL    HW1 8669   7.665   0.786   5.070  0.5223  0.0507 -1.1687
63559SOL    HW2 8670   7.591   0.659   5.109  0.9966  0.2932  0.6295
63560SOL     OW 8671   3.446   7.551   4.270 -0.7408  0.1689  0.2328
63560SOL    HW1 8672   3.508   7.500   4.324 -1.5887 -0.4736  0.6235
63560SOL    HW2 8673   3.486   7.637   4.264 -0.7119  0.3439  2.1176
63561SOL     OW 8674   8.107   5.718  10.242  0.4413 -0.0000  0.0016
63561SOL    HW1 8675   8.182   5.720  10.302 -1.6427 -1.2645  2.9166
63561SOL    HW2 8676   8.145   5.702  10.156  3.4190 -3.2766  1.6627
63562SOL     OW 8677  12.692   4.048   2.193 -0.5875  0.0385 -0.1446
63562SOL    HW1 8678  12.598   4.031   2.188 -0.7695  0.8209  0.4589
63562SOL    HW2 8679  12.719   4.011   2.277 -0.1892 -0.8887 -0.6636
63563SOL     OW 8680   6.684   4.900   3.120 -0.3388  0.2463  0.1570
63563SOL    HW1 8681   6.736   4.921   3.198 -0.2608 -0.9893  0.4536
63563SOL    HW2 8682   6.643   4.817   3.141 -1.5045  0.6249 -0.5532
63564SOL     OW 8683   4.743  12.946   8.853  0.4370  0.9875 -0.3196
63564SOL    HW1 8684   4.758  12.931   8.947  0.3307  0.7265 -0.3451
63564SOL    HW2 8685   4.652  12.976   8.848  0.5317  1.2874 -0.3103
63565SOL     OW 8686   7.724   1.693   9.223  0.1003 -0.0160 -0.6821
63565SOL    HW1 8687   7.641   1.688   9.271 -0.7278 -0.4245 -2.0889
63565SOL    HW2 8688   7.757   1.780   9.242  0.0824 -0.3433  1.0351
63566SOL     OW 8689   6.032   5.689   5.956 -0.6168  0.7462  0.6134
63566SOL    HW1 8690   6.109   5.685   5.899 -1.1075 -1.6248 -0.0040
63566SOL    HW2 8691   6.046   5.619   6.020 -2.6739 -0.4758 -0.1533
63567SOL     OW 8692  13.916   4.825  12.697 -0.1538 -0.2495 -0.0241
63567SOL    HW1 8693  13.907   4.772  12.618 -0.8542 -0.5744  0.2698
63567SOL    HW2 8694  13.829   4.861  12.712  0.2778  0.8893 -0.1457
63568SOL     OW 8695  10.704  13.770   1.205 -0.4724  0.5199 -0.1276
63568SOL    HW1 8696  10.719  13.864   1.214 -0.8100  0.6447 -0.8205
63568SOL    HW2 8697  10.780  13.730   1.249 -1.4134  1.0619  2.1317
63569SOL     OW 8698   3.341   1.376   9.945  0.4816 -0.2705  0.3741
63569SOL    HW1 8699   3.412   1.353   9.885  0.0974 -1.2077  0.2637
63569SOL    HW2 8700   3.380   1.439  10.005  0.9987  0.3584 -0.5913
63570SOL     OW 8701   8.707   9.996   6.997  0.4096 -0.0128 -0.3467
63570SOL    HW1 8702   8.728   9.976   7.088 -0.5768 -1.1432 -0.3425
63570SOL    HW2 8703   8.768  10.066   6.973 -0.1765  1.2479  1.5754
63571SOL     OW 8704   5.000   8.255   1.527 -0.1112 -0.1992  0.6676
63571SOL    HW1 8705   4.983   8.338   1.571  0.3922 -1.1878  2.8864
63571SOL    HW2 8706   4.914   8.213   1.520 -0.8774  1.5800 -3.0972
63572SOL     OW 8707   4.637  13.228   7.258 -0.2050 -0.1045  0.2792
63572SOL    HW1 8708   4.728  13.207   7.280  0.1602  0.7510 -0.3253
63572SOL    HW2 8709   4.642  13.262   7.168 -1.4404 -2.1420 -0.6148
63573SOL     OW 8710   1.160  10.561  11.443 -0.4652 -0.4644  0.8598
63573SOL    HW1 8711   1.176  10.580  11.350 -1.1989 -3.1581  0.0961
63573SOL    HW2 8712   1.243  10.577  11.486 -0.3577  1.7648 -0.0462
63574SOL     OW 8713   9.152   8.418   8.325  0.4579  0.0915  0.8163
63574SOL    HW1 8714   9.061   8.393   8.339 -0.3334  1.4025 -1.5074
63574SOL    HW2 8715   9.188   8.427   8.413 -0.9225 -2.7737  1.8027
63575SOL     OW 8716   8.326  12.553   4.131  0.4044 -0.2712 -0.5927
63575SOL    HW1 8717   8.359  12.513   4.211 -1.4181 -0.0764  0.2924
63575SOL    HW2 8718   8.276  12.629   4.160 -1.3515 -0.9024 -1.7775
63576SOL     OW 8719  11.184   5.539  13.261  0.5257 -0.2957 -0.2109
63576SOL    HW1 8720  11.146   5.452  13.271  2.0875 -1.0058 -0.2534
63576SOL    HW2 8721  11.270   5.533  13.303  0.5137  1.3337  0.1107
63577SOL     OW 8722   9.876   7.412   7.742 -0.5560 -0.1183 -0.2711
63577SOL    HW1 8723   9.824   7.331   7.748  0.7240 -1.0855 -1.6292
63577SOL    HW2 8724   9.832   7.464   7.676 -0.7465 -0.1876 -0.2007
63578SOL     OW 8725   9.524   7.520   7.147 -0.0464 -0.6675 -0.6173
63578SOL    HW1 8726   9.550   7.611   7.164 -0.5001 -0.9005  1.6512
63578SOL    HW2 8727   9.540   7.508   7.053  0.3056  1.6471 -0.9251
63579SOL     OW 8728  13.222   8.803   6.802 -0.3939 -0.4455 -0.5301
63579SOL    HW1 8729  13.227   8.885   6.753  0.9600 -1.8077 -2.8835
63579SOL    HW2 8730  13.279   8.816   6.878 -3.4304  2.1374  1.5845
63580SOL     OW 8731   9.675  12.143  12.443  0.1265 -0.1641 -0.6090
63580SOL    HW1 8732   9.754  12.146  12.497 -0.6142  0.3757  0.4833
63580SOL    HW2 8733   9.604  12.126  12.506 -0.5514 -1.3731 -1.6506
63581SOL     OW 8734  10.225   5.757  14.029 -0.4244 -0.1031 -0.4200
63581SOL    HW1 8735  10.229   5.674  14.078 -0.6343  0.6698  0.9634
63581SOL    HW2 8736  10.304   5.804  14.056 -0.0070 -0.0674 -1.6422
63582SOL     OW 8737   7.326   6.461   5.793  0.2345 -0.0932  0.7259
63582SOL    HW1 8738   7.368   6.529   5.846  0.9872 -0.8725  1.1602
63582SOL    HW2 8739   7.394   6.394   5.783 -0.2050 -0.3786 -0.4483
63583SOL     OW 8740   3.892  13.597   4.277 -0.5952 -0.2750  0.0878
63583SOL    HW1 8741   3.893  13.527   4.341 -0.8391 -0.4372 -0.0844
63583SOL    HW2 8742   3.985  13.616   4.261 -0.5079 -1.0080 -0.3483
63584SOL     OW 8743  12.427   1.427   3.441  0.2465 -0.7158 -0.7872
63584SOL    HW1 8744  12.386   1.399   3.523 -1.2180 -0.3843 -1.3778
63584SOL    HW2 8745  12.387   1.511   3.421  2.4700  0.4857 -0.5540
63585SOL     OW 8746   5.854   9.150   9.493  0.0072  0.3945  0.7035
63585SOL    HW1 8747   5.872   9.056   9.497  0.3022  0.4468  0.6600
63585SOL    HW2 8748   5.812   9.164   9.409  0.4693  0.3831  0.4681
63586SOL     OW 8749   7.304   6.168   6.589  0.2843  0.5875  0.7234
63586SOL    HW1 8750   7.265   6.255   6.604 -3.0335 -0.3388 -1.3348
63586SOL    HW2 8751   7.234   6.107   6.613  2.0967 -1.4954  0.9195
63587SOL     OW 8752   4.675  13.323  13.132  0.0067  0.1974  0.0607
63587SOL    HW1 8753   4.726  13.402  13.114 -0.0494 -0.0198 -1.1434
63587SOL    HW2 8754   4.715  13.286  13.211 -0.3385  1.7214  0.9781
63588SOL     OW 8755   6.543  10.279   9.534 -0.8592 -0.6710  0.2550
63588SOL    HW1 8756   6.593  10.213   9.580 -0.3061  0.0344  0.6745
63588SOL    HW2 8757   6.490  10.230   9.471 -0.1610 -1.4716  0.2885
63589SOL     OW 8758  10.725   3.851   6.312 -0.1228 -0.6699  0.0066
63589SOL    HW1 8759  10.750   3.812   6.229 -1.9499  0.2312 -1.0553
63589SOL    HW2 8760  10.709   3.777   6.370  0.6994 -1.3325 -0.5898
63590SOL     OW 8761  13.515  10.102  12.287  0.1945 -0.3963 -0.6179
63590SOL    HW1 8762  13.506  10.016  12.246 -1.9801  0.9394 -3.1994
63590SOL    HW2 8763  13.426  10.124  12.316  1.0642  0.2303  1.7899
63591SOL     OW 8764  14.014   6.333  14.009  0.6631 -0.5532  0.0094
63591SOL    HW1 8765  14.023   6.326  14.104  2.4943 -1.0375 -0.1707
63591SOL    HW2 8766  14.011   6.242  13.978  1.3801 -0.4155 -0.4886
63592SOL     OW 8767  11.745   7.960  12.295  0.6668 -0.6373 -0.6032
63592SOL    HW1 8768  11.777   8.028  12.354 -0.4089 -0.9990  0.4319
63592SOL    HW2 8769  11.736   7.883  12.350  1.6436 -1.5794 -1.7098
63593SOL     OW 8770  10.596  11.535  11.235  0.4484  0.2394  0.6759
63593SOL    HW1 8771  10.637  11.496  11.157 -0.0695 -2.5742  1.6849
63593SOL    HW2 8772  10.595  11.464  11.299 -2.6826  1.2647  1.9508
63594SOL     OW 8773  12.588   1.362  11.323 -0.0436 -0.2843  0.0117
63594SOL    HW1 8774  12.492   1.367  11.319 -0.1342  0.5574  1.9599
63594SOL    HW2 8775  12.606   1.281  11.370  0.2913 -1.0192 -1.3093
63595SOL     OW 8776   8.999   0.357   8.109  0.3143  0.1197  0.7494
63595SOL    HW1 8777   9.026   0.310   8.030 -0.3842 -0.3995  0.8114
63595SOL    HW2 8778   8.986   0.288   8.174  0.7251  0.5325  1.2796
63596SOL     OW 8779   6.985  13.710   0.422  0.5401 -0.0800  0.4318
63596SOL    HW1 8780   7.003  13.638   0.362  0.4042  0.7262 -0.6011
63596SOL    HW2 8781   6.890  13.723   0.417  0.8761  2.3745 -2.0799
63597SOL     OW 8782   2.976  13.432   4.991 -0.1044  0.3435 -0.1132
63597SOL    HW1 8783   2.965  13.516   5.036 -1.3409  0.1958 -0.1157
63597SOL    HW2 8784   2.979  13.455   4.898 -1.3581  0.3153 -0.1705
63598SOL     OW 8785  11.099   4.778   3.340 -0.3501  0.2463 -0.2229
63598SOL    HW1 8786  11.149   4.779   3.259 -0.0239 -0.1629 -0.0334
63598SOL    HW2 8787  11.009   4.763   3.312  0.0304 -2.0143 -0.4070
63599SOL     OW 8788  12.700   5.835   2.429 -0.0729  0.0516 -0.2483
63599SOL    HW1 8789  12.735   5.843   2.340  1.9712 -1.3217  0.3812
63599SOL    HW2 8790  12.738   5.909   2.477 -1.3620  0.9321 -0.5197
63600SOL     OW 8791  12.405   0.037   4.407  0.5725  0.1238 -0.2585
63600SOL    HW1 8792  12.465   0.080   4.467 -0.9396  0.8390  0.8283
63600SOL    HW2 8793  12.457   0.018   4.330  2.5660 -0.7617  1.2409
63601SOL     OW 8794  12.175   3.168   4.165 -0.7331  0.2610 -0.0499
63601SOL    HW1 8795  12.228   3.109   4.112 -0.7434  0.1599  0.0509
63601SOL    HW2 8796  12.084   3.147   4.141 -0.7155  0.7481 -0.5536
63602SOL     OW 8797   7.095   3.601  11.006 -0.2280 -0.1458 -0.5653
63602SOL    HW1 8798   7.187   3.598  10.979  0.3664  2.7555  0.7377
63602SOL    HW2 8799   7.052   3.654  10.939 -1.1485 -1.9628 -1.4795
63603SOL     OW 8800   7.120   6.799   6.262  0.0976 -0.3650 -0.1361
63603SOL    HW1 8801   7.082   6.744   6.330  0.5884 -0.5209  0.0163
63603SOL    HW2 8802   7.214   6.801   6.282  0.2516 -0.4467 -0.8299
63604SOL     OW 8803   8.500   1.461  13.593  0.6686  0.5647  0.1207
63604SOL    HW1 8804   8.420   1.507  13.619 -0.0617 -1.0873  0.9523
63604SOL    HW2 8805   8.515   1.487  13.502 -1.0289  0.6429 -0.1682
63605SOL     OW 8806   6.255   4.565   2.357 -0.0186  0.2902 -0.3697
63605SOL    HW1 8807   6.258   4.563   2.261  0.1662  1.0430 -0.3814
63605SOL    HW2 8808   6.289   4.479   2.383 -0.6450 -0.1603 -0.9816
63606SOL     OW 8809   6.257  12.488   3.611 -0.2453 -1.1945 -0.3835
63606SOL    HW1 8810   6.317  12.442   3.670  0.9786  1.5028  0.6147
63606SOL    HW2 8811   6.184  12.514   3.667  0.5603  0.7153 -0.1389
63607SOL     OW 8812   0.183   6.887  12.236 -0.3003 -0.3223 -0.0827
63607SOL    HW1 8813   0.160   6.857  12.148 -0.7212 -2.3051  0.6621
63607SOL    HW2 8814   0.253   6.829  12.264  0.7858  1.1746  0.4029
63608SOL     OW 8815   2.264   4.810   1.322  0.3402 -0.5737 -0.0680
63608SOL    HW1 8816   2.183   4.840   1.280 -0.2614  0.6454  1.7978
63608SOL    HW2 8817   2.235   4.754   1.394  1.3641 -3.1609 -1.5267
63609SOL     OW 8818   7.781  13.958   6.637  0.1366  0.2717 -0.7491
63609SOL    HW1 8819   7.794  13.926   6.726 -1.7183  1.9470  0.1721
63609SOL    HW2 8820   7.765  13.878   6.586 -1.5162 -0.5490  0.9312
63610SOL     OW 8821  12.083   1.921   0.587  0.3754  0.4967 -0.2815
63610SOL    HW1 8822  12.102   1.906   0.494 -2.5629  0.2636 -0.9458
63610SOL    HW2 8823  12.035   1.843   0.614  0.4224  0.9633  1.2033
63611SOL     OW 8824   0.785   1.211  13.216 -0.3073  0.0271  0.0439
63611SOL    HW1 8825   0.838   1.175  13.145 -0.8788  1.0232 -0.9282
63611SOL    HW2 8826   0.721   1.143  13.236  1.0543 -1.0428  0.9782
63612SOL     OW 8827   4.331   5.874   7.561  0.3390 -0.1570 -0.3061
63612SOL    HW1 8828   4.250   5.873   7.510  0.3049 -0.4004 -0.2469
63612SOL    HW2 8829   4.316   5.810   7.631  1.4284 -1.9382 -1.6033
63613SOL     OW 8830   3.812   6.597   1.807 -0.0850 -0.6406  0.0376
63613SOL    HW1 8831   3.736   6.573   1.754 -0.0988 -0.0635 -0.2053
63613SOL    HW2 8832   3.880   6.535   1.781  0.0418 -0.0906 -0.9774
63614SOL     OW 8833   6.325  11.450  11.462  1.0877  0.3394 -0.1195
63614SOL    HW1 8834   6.381  11.372  11.468  1.1232  0.3236 -0.6028
63614SOL    HW2 8835   6.300  11.468  11.552  1.0279 -0.2720 -0.0069
63615SOL     OW 8836  12.078  11.172  12.030  0.5114 -0.0133 -0.0510
63615SOL    HW1 8837  12.160  11.201  12.070 -0.1515  2.6995 -0.5135
63615SOL    HW2 8838  12.085  11.201  11.939 -0.2415 -1.3942 -0.5826
63616SOL     OW 8839   1.282   1.251   9.442  0.5208  0.4117 -0.2239
63616SOL    HW1 8840   1.330   1.172   9.465 -0.4569 -0.2562 -0.3963
63616SOL    HW2 8841   1.256   1.237   9.350 -0.2476  0.6063 -0.0483
63617SOL     OW 8842  10.457   0.472   8.374 -1.1587 -0.0647 -0.0425
63617SOL    HW1 8843  10.507   0.515   8.305 -1.8582  0.7645 -0.0536
63617SOL    HW2 8844  10.415   0.398   8.330 -0.2294 -0.5687 -0.1039
63618SOL     OW 8845   0.400   9.545  10.110 -0.0531  0.0766 -0.6770
63618SOL    HW1 8846   0.457   9.517  10.182  0.8718  0.8934 -1.0658
63618SOL    HW2 8847   0.383   9.465  10.061  1.6008 -0.0341 -1.1221
63619SOL     OW 8848   5.337   1.405  13.163  0.7692 -0.0371  0.0679
63619SOL    HW1 8849   5.283   1.458  13.105  1.4463  0.2246 -0.3307
63619SOL    HW2 8850   5.335   1.452  13.246  0.5133  0.0484  0.0153
63620SOL     OW 8851   3.076   3.439  11.246 -0.0837 -0.6337  0.2184
63620SOL    HW1 8852   3.136   3.410  11.177  1.5034  0.3723  1.1063
63620SOL    HW2 8853   3.019   3.502  11.203  0.1337 -0.8661 -0.4323
63621SOL     OW 8854  12.950  11.732   7.102 -0.1148  0.1484 -0.2812
63621SOL    HW1 8855  12.928  11.789   7.176 -0.5560 -1.1778  0.6349
63621SOL    HW2 8856  12.995  11.657   7.141  0.5553 -0.0997 -1.4748
63622SOL     OW 8857   0.037  11.262   9.180 -0.5333  0.7205  0.5490
63622SOL    HW1 8858   0.120  11.245   9.225 -0.8682 -1.5779  0.4297
63622SOL    HW2 8859   0.014  11.351   9.206  0.9950  0.7106  2.1794
63623SOL     OW 8860   6.421   1.195   7.733 -0.4801  0.5367  0.2996
63623SOL    HW1 8861   6.440   1.273   7.682  2.3400  0.1149  0.5621
63623SOL    HW2 8862   6.432   1.222   7.824 -0.2158  0.0320  0.4247
63624SOL     OW 8863  10.536   3.084   7.133 -0.1132 -0.5042  0.1206
63624SOL    HW1 8864  10.441   3.077   7.138 -0.0411 -1.5105  0.4034
63624SOL    HW2 8865  10.566   2.994   7.123  0.8478 -0.2784  0.7981
63625SOL     OW 8866  12.842   0.626   7.013  0.1536  0.6189 -0.5200
63625SOL    HW1 8867  12.881   0.711   7.033  0.5797  0.1355  0.8339
63625SOL    HW2 8868  12.896   0.591   6.942 -0.3618  1.6833 -1.4711
63626SOL     OW 8869  12.181   9.056  10.323 -0.5898  0.1218 -0.1095
63626SOL    HW1 8870  12.267   9.085  10.292  0.4386 -2.5315 -0.0148
63626SOL    HW2 8871  12.156   9.120  10.390  0.8468  1.4712 -0.8116
63627SOL     OW 8872  13.142   7.661   0.092  0.3282 -0.2186  0.5276
63627SOL    HW1 8873  13.060   7.712   0.090 -1.0138 -2.2257  0.9971
63627SOL    HW2 8874  13.187   7.691   0.170 -1.3555 -1.0097  1.8815
63628SOL     OW 8875   9.874   2.014   9.028 -0.0370  0.1302  0.4052
63628SOL    HW1 8876   9.863   1.921   9.006  1.0829  0.1192 -0.1978
63628SOL    HW2 8877   9.910   2.012   9.117 -1.1784  0.0493  0.8872
63629SOL     OW 8878  10.966  12.916  13.244 -0.5520 -0.1013 -0.0526
63629SOL    HW1 8879  11.005  12.932  13.329 -3.5648 -0.2801  1.5195
63629SOL    HW2 8880  10.931  13.001  13.217 -1.5357 -0.4811 -0.0099
63630SOL     OW 8881   1.259   8.463   6.717  0.5998 -0.2222  0.1722
63630SOL    HW1 8882   1.348   8.432   6.735  0.9146  0.5288 -0.0403
63630SOL    HW2 8883   1.204   8.416   6.780  1.4640  1.1944  2.1064
63631SOL     OW 8884   1.976   2.717  10.933  0.2566 -0.1688 -0.4257
63631SOL    HW1 8885   1.941   2.646  10.987  1.0725  0.3742  0.8472
63631SOL    HW2 8886   2.056   2.745  10.977  0.0348  1.4544 -0.9689
63632SOL     OW 8887   0.287   9.575   5.348 -0.8458 -0.3699  0.5403
63632SOL    HW1 8888   0.197   9.579   5.381 -1.3093  0.9000 -0.7722
63632SOL    HW2 8889   0.323   9.662   5.366  0.1578 -0.8830  1.0960
63633SOL     OW 8890  13.948  12.782  10.645 -0.0201 -0.4662  0.1064
63633SOL    HW1 8891  13.874  12.805  10.589 -1.9421  0.7647  2.9266
63633SOL    HW2 8892  13.979  12.866  10.679  2.0108 -1.0658 -0.1474
63634SOL     OW 8893  12.810  11.699  12.756 -0.2182 -0.0899 -0.1437
63634SOL    HW1 8894  12.827  11.692  12.662 -0.7176  0.2757 -0.2679
63634SOL    HW2 8895  12.734  11.644  12.771  0.9220 -1.6066  0.3842
63635SOL     OW 8896  13.349  13.540   6.618 -0.3056  0.0201 -0.0604
63635SOL    HW1 8897  13.359  13.635   6.625 -0.6410  0.0677 -0.2426
63635SOL    HW2 8898  13.371  13.521   6.527  0.5896 -0.1795  0.1883
63636SOL     OW 8899  13.623   5.600   9.221 -0.8228  0.2292  0.0919
63636SOL    HW1 8900  13.598   5.692   9.214 -0.2159  0.7213  3.1611
63636SOL    HW2 8901  13.596   5.574   9.309 -0.3557 -2.3707 -0.4426
63637SOL     OW 8902   7.717  13.274   6.571 -0.0512 -0.1079  0.2280
63637SOL    HW1 8903   7.797  13.323   6.589  2.4633 -3.6037 -0.1932
63637SOL    HW2 8904   7.665  13.281   6.651  1.5633  0.7627  1.2545
63638SOL     OW 8905  13.996   6.149  11.924 -0.4272 -0.2820 -0.0252
63638SOL    HW1 8906  13.942   6.185  11.853  0.7634  0.8106 -0.4293
63638SOL    HW2 8907  13.971   6.201  12.001 -1.4466 -1.2126  0.2981
63639SOL     OW 8908   4.271  13.187   0.823  0.4634  0.2586  0.0988
63639SOL    HW1 8909   4.332  13.156   0.891 -1.6639 -2.6370  0.9044
63639SOL    HW2 8910   4.232  13.266   0.859  0.2087 -0.6033  1.7991
63640SOL     OW 8911   6.490  12.517   3.445 -0.2186 -0.4913  0.0676
63640SOL    HW1 8912   6.401  12.502   3.478 -0.8417  0.8258 -0.9631
63640SOL    HW2 8913   6.510  12.607   3.469  1.4519 -1.2090  1.5952
63641SOL     OW 8914   0.170  12.153   6.774 -0.2311  0.3806  0.0685
63641SOL    HW1 8915   0.260  12.179   6.758 -0.2500 -0.7362 -2.4643
63641SOL    HW2 8916   0.132  12.224   6.826  1.2408  2.4817 -1.5561
63642SOL     OW 8917   6.980   9.967  11.671  0.1776  0.0153 -0.2002
63642SOL    HW1 8918   6.942   9.949  11.757  0.4864  0.4930  0.0477
63642SOL    HW2 8919   6.945   9.899  11.614 -1.4752  0.7427 -0.1133
63643SOL     OW 8920   3.869   6.975  10.305  0.0568 -0.3455  0.5890
63643SOL    HW1 8921   3.814   7.053  10.300 -1.9646 -0.8566  6.6749
63643SOL    HW2 8922   3.812   6.903  10.276 -0.1588 -0.1902  0.6262
63644SOL     OW 8923  14.071  12.945   6.575 -0.1448  0.5246 -0.2720
63644SOL    HW1 8924  14.107  13.029   6.548  0.8117 -0.2721 -1.5709
63644SOL    HW2 8925  14.096  12.884   6.506  0.0472 -1.0506  1.1046
63645SOL     OW 8926   9.377   4.882  11.841 -0.0724 -0.1041  0.4256
63645SOL    HW1 8927   9.398   4.965  11.798 -0.1418 -0.4293 -0.2405
63645SOL    HW2 8928   9.426   4.816  11.792 -0.9853 -0.6077  0.1754
63646SOL     OW 8929  12.093   4.146   1.238 -0.1921  0.1100 -0.4392
63646SOL    HW1 8930  12.031   4.080   1.205 -1.5544  0.9962  0.2522
63646SOL    HW2 8931  12.037   4.214   1.275  1.2214 -0.1947  2.5090
63647SOL     OW 8932   9.282   2.399  13.073  0.5295 -0.2186 -0.3940
63647SOL    HW1 8933   9.340   2.336  13.029 -1.1424 -1.8642 -0.3489
63647SOL    HW2 8934   9.194   2.369  13.051 -0.3245  1.6163  0.3860
63648SOL     OW 8935   5.531   3.215   1.738 -0.2206 -0.0964 -0.2655
63648SOL    HW1 8936   5.446   3.172   1.732  0.8747 -2.2656 -1.1825
63648SOL    HW2 8937   5.511   3.309   1.736 -2.7838 -0.4236  2.7070
63649SOL     OW 8938  13.214  12.004   7.304 -0.3821 -0.0273 -0.1171
63649SOL    HW1 8939  13.230  12.080   7.248 -0.4555 -0.8468 -1.2876
63649SOL    HW2 8940  13.278  12.013   7.375 -0.8793  1.4950  0.1667
63650SOL     OW 8941   8.903   9.672   6.235  0.3457  0.1084 -0.0105
63650SOL    HW1 8942   8.869   9.661   6.146 -1.0253 -0.8539  0.5960
63650SOL    HW2 8943   8.997   9.656   6.227  0.1409 -0.6379 -1.1603
63651SOL     OW 8944   6.235  11.681   5.095  0.2062 -0.2655 -0.3209
63651SOL    HW1 8945   6.234  11.673   5.190  0.1558 -0.0416 -0.3019
63651SOL    HW2 8946   6.228  11.775   5.079  1.9066 -0.1459 -0.5160
63652SOL     OW 8947  11.464  11.820   2.559  0.3174 -0.0548  0.5032
63652SOL    HW1 8948  11.408  11.855   2.489 -0.1008 -1.5441  0.0600
63652SOL    HW2 8949  11.535  11.884   2.566 -0.1545  0.6341 -0.6071
63653SOL     OW 8950  13.759   0.372   9.844 -0.0739  0.2815 -0.4078
63653SOL    HW1 8951  13.798   0.316   9.777 -0.4993 -1.3613  0.6514
63653SOL    HW2 8952  13.665   0.352   9.840 -0.1190  0.2514  0.5795
63654SOL     OW 8953   6.346  14.038  10.271 -0.2375 -0.1720 -0.4254
63654SOL    HW1 8954   6.313  13.999  10.190 -0.2409 -0.6038 -0.2233
63654SOL    HW2 8955   6.438  14.010  10.275 -0.0494  0.4214 -0.6242
63655SOL     OW 8956   2.952   8.989  14.088  0.3633 -0.2518 -0.3822
63655SOL    HW1 8957   2.984   8.910  14.131  0.0245 -0.0324  0.2864
63655SOL    HW2 8958   2.939   9.052  14.160  1.2347  0.6249 -0.9616
63656SOL     OW 8959   9.994   2.508   7.019 -0.2788 -0.3722  0.8844
63656SOL    HW1 8960  10.061   2.514   6.950 -2.2052 -0.3655 -1.0899
63656SOL    HW2 8961  10.013   2.582   7.077  1.0798 -0.0420  0.0643
63657SOL     OW 8962   0.284  11.587   0.749  0.2145  0.4323  0.1199
63657SOL    HW1 8963   0.371  11.561   0.718  0.5967  2.0506 -0.2256
63657SOL    HW2 8964   0.298  11.672   0.791 -0.8253 -0.3407  2.1136
63658SOL     OW 8965  13.172   3.498   3.644 -0.3329 -0.0067 -0.8027
63658SOL    HW1 8966  13.260   3.468   3.622  0.2525 -0.0873  1.3714
63658SOL    HW2 8967  13.156   3.572   3.586  1.4002  0.3620 -0.8639
63659SOL     OW 8968   5.801   5.956   8.262 -0.1959  0.1349 -0.8524
63659SOL    HW1 8969   5.827   5.920   8.347  0.2870  1.4940 -0.3832
63659SOL    HW2 8970   5.748   5.888   8.222  1.8498 -1.6835 -0.6559
63660SOL     OW 8971  10.317   1.239  12.537 -0.6731  0.1063 -0.2050
63660SOL    HW1 8972  10.375   1.194  12.475  1.1835  0.4949  1.1654
63660SOL    HW2 8973  10.313   1.181  12.613 -1.4200  0.4790  0.0479
63661SOL     OW 8974   1.545   7.758  10.449  0.6490 -0.0822  0.0958
63661SOL    HW1 8975   1.600   7.685  10.420 -0.5807 -0.8670 -0.3235
63661SOL    HW2 8976   1.553   7.823  10.379  0.2934 -0.6010 -0.4405
63662SOL     OW 8977   1.523  14.020   8.221  0.3117 -0.3636  0.2564
63662SOL    HW1 8978   1.598  13.962   8.231 -0.0534 -0.6458  1.5689
63662SOL    HW2 8979   1.517  14.035   8.127  2.1646 -0.1208  0.1317
63663SOL     OW 8980  13.347   6.959   1.946  0.0457  0.0151  0.0583
63663SOL    HW1 8981  13.359   7.053   1.953 -0.0076  0.0088  0.2582
63663SOL    HW2 8982  13.280   6.938   2.011 -0.6605 -0.0301 -0.6785
63664SOL     OW 8983   2.674   8.789  11.615  0.3553 -0.0895  0.1653
63664SOL    HW1 8984   2.748   8.771  11.556  0.9211  0.5518  0.6597
63664SOL    HW2 8985   2.598   8.791  11.557  0.8744  0.3199 -0.5299
63665SOL     OW 8986   8.926   9.079   7.368 -0.7118  0.3968 -0.1231
63665SOL    HW1 8987   8.879   9.033   7.438 -0.9979  0.3000 -0.3796
63665SOL    HW2 8988   9.007   9.029   7.358 -0.9256  0.0718 -0.2547
63666SOL     OW 8989   0.864  14.065   4.795  0.0665  0.3204 -0.3431
63666SOL    HW1 8990   0.935  14.075   4.732  0.6758  0.1629  0.3111
63666SOL    HW2 8991   0.852  14.153   4.832 -0.5782  0.5039 -0.9779
63667SOL     OW 8992   4.791  12.760   4.255 -0.1927 -0.5490  0.0561
63667SOL    HW1 8993   4.878  12.780   4.222 -0.5993 -1.3118 -1.5825
63667SOL    HW2 8994   4.789  12.664   4.261 -0.9219 -0.5436 -0.0056
63668SOL     OW 8995  13.559  13.860  13.138 -0.0590  0.3289 -0.7012
63668SOL    HW1 8996  13.595  13.810  13.064  0.7821  0.2437 -0.2494
63668SOL    HW2 8997  13.464  13.857  13.125  0.0200 -0.6701 -1.1475
63669SOL     OW 8998  10.765  11.375  13.374 -0.1560  0.3991  0.1736
63669SOL    HW1 8999  10.813  11.405  13.297  0.1623 -1.8033 -0.5511
63669SOL    HW2 9000  10.814  11.409  13.448  1.5014 -0.2299 -0.5768
63670SOL     OW 9001  12.335   0.127   7.566  0.6456  0.0080 -0.3010
63670SOL    HW1 9002  12.384   0.200   7.526  0.6210 -0.2184 -0.7490
63670SOL    HW2 9003  12.375   0.049   7.529  1.6481 -0.2701  1.2902
63671SOL     OW 9004  10.148   0.920   7.458 -0.2990 -0.3269 -0.2107
63671SOL    HW1 9005  10.111   0.837   7.489  1.0346 -0.8978 -0.0987
63671SOL    HW2 9006  10.228   0.932   7.508  0.5951 -0.0078 -1.6614
63672SOL     OW 9007   7.557   7.867  10.121  0.5246 -0.2841  0.6554
63672SOL    HW1 9008   7.605   7.946  10.144  0.2808 -0.2407  1.0215
63672SOL    HW2 9009   7.467   7.897  10.109  0.2392 -0.6738  1.7857
63673SOL     OW 9010   8.645  11.185   2.984  0.1326 -0.1737  0.0270
63673SOL    HW1 9011   8.555  11.172   3.014  0.3638 -0.5444  0.5913
63673SOL    HW2 9012   8.695  11.117   3.029  0.7148  0.1057 -0.1860
63674SOL     OW 9013  13.695   0.469   7.852 -0.1566 -0.3754  0.5773
63674SOL    HW1 9014  13.640   0.543   7.826  1.8227  0.9764  0.0100
63674SOL    HW2 9015  13.647   0.429   7.925 -0.8327  2.0978  1.6169
63675SOL     OW 9016   5.302  10.742   8.480 -0.3348 -0.2633  0.1686
63675SOL    HW1 9017   5.235  10.680   8.511  0.0003 -0.2472  0.9597
63675SOL    HW2 9018   5.375  10.731   8.541  0.3599 -0.2207 -0.6382
63676SOL     OW 9019   9.123  12.548   7.366 -0.4187  0.3058  1.0638
63676SOL    HW1 9020   9.041  12.527   7.321  0.2181 -0.1495  0.1008
63676SOL    HW2 9021   9.095  12.581   7.451 -1.5332 -2.5967  1.9309
63677SOL     OW 9022   3.178   2.867   5.898  0.0767 -0.3753  0.3711
63677SOL    HW1 9023   3.240   2.915   5.843  1.5544 -1.9353  0.5797
63677SOL    HW2 9024   3.109   2.930   5.919  1.2959  1.2523 -0.3677
63678SOL     OW 9025   8.550   2.219   8.509 -0.5319 -0.3134 -0.1968
63678SOL    HW1 9026   8.487   2.250   8.575  0.8009 -0.0688  1.0066
63678SOL    HW2 9027   8.552   2.124   8.521 -0.5427 -0.3040 -0.1147
63679SOL     OW 9028   3.158  13.516   2.618  0.0277  0.2965 -0.7329
63679SOL    HW1 9029   3.225  13.456   2.650 -0.4530 -1.2031 -2.3534
63679SOL    HW2 9030   3.075  13.475   2.642 -0.3132  0.2523 -1.9141
63680SOL     OW 9031   6.764   9.195   5.028  0.2544 -0.2517  0.2210
63680SOL    HW1 9032   6.687   9.138   5.034  0.5173 -0.7706 -1.0093
63680SOL    HW2 9033   6.816   9.173   5.105 -1.4846  1.1784  1.9220
63681SOL     OW 9034  10.157   0.695   9.735  0.0477 -0.4297 -0.3811
63681SOL    HW1 9035  10.129   0.612   9.774 -0.7036 -0.5417 -1.1219
63681SOL    HW2 9036  10.252   0.688   9.728  0.2684 -0.2486  1.7482
63682SOL     OW 9037   3.016   0.990  13.403 -0.1667 -0.5055  0.0586
63682SOL    HW1 9038   2.988   0.966  13.492  1.2833 -1.7719  0.2216
63682SOL    HW2 9039   2.971   1.073  13.385 -1.0633 -0.5948  1.6807
63683SOL     OW 9040   1.360   0.538   9.465 -0.4394 -0.5205  0.4747
63683SOL    HW1 9041   1.335   0.523   9.557 -2.9597  0.0392 -0.0327
63683SOL    HW2 9042   1.338   0.631   9.450 -1.3410 -0.9389 -1.0132
63684SOL     OW 9043   9.854  10.150   9.199 -0.2795 -0.8137 -0.0615
63684SOL    HW1 9044   9.760  10.141   9.182 -0.5709  1.4014  0.0956
63684SOL    HW2 9045   9.860  10.207   9.276  1.1778  0.0533 -0.7667
63685SOL     OW 9046   1.743   0.033   3.315 -0.1662  0.3224 -0.0082
63685SOL    HW1 9047   1.747  -0.052   3.270 -0.1197 -0.3256  1.1594
63685SOL    HW2 9048   1.793   0.092   3.259  0.7929 -0.7027 -0.2832
63686SOL     OW 9049   6.363   1.693   5.592 -0.3319  0.3202 -0.5152
63686SOL    HW1 9050   6.432   1.705   5.528  0.2118 -0.2221 -0.0509
63686SOL    HW2 9051   6.290   1.656   5.543  0.9881 -2.6851 -0.4053
63687SOL     OW 9052   3.527  13.397   9.865 -0.4707  0.1477 -0.0416
63687SOL    HW1 9053   3.573  13.481   9.866  1.7497 -0.9886 -1.4512
63687SOL    HW2 9054   3.468  13.402   9.940  2.4538  1.4280  2.3677
63688SOL     OW 9055  12.381   7.820   9.811 -0.0224 -0.8702  0.0272
63688SOL    HW1 9056  12.401   7.870   9.890  1.2967  0.9683 -1.3626
63688SOL    HW2 9057  12.424   7.736   9.825  1.8541  0.1030  0.5404
63689SOL     OW 9058   0.316   6.067  12.496  0.1703 -0.0385  0.4986
63689SOL    HW1 9059   0.284   6.122  12.424  0.8615  0.1861  0.3580
63689SOL    HW2 9060   0.236   6.034  12.538 -0.3019  1.7158  1.0832
63690SOL     OW 9061   1.158  11.814  13.331 -0.1431  0.7660  0.4459
63690SOL    HW1 9062   1.120  11.901  13.330 -0.3612  0.6971  1.3538
63690SOL    HW2 9063   1.117  11.771  13.407 -0.6868 -0.4122 -0.4876
63691SOL     OW 9064  11.764   5.847   9.137 -0.2419 -0.4029 -0.2640
63691SOL    HW1 9065  11.855   5.818   9.137  0.7334  2.3916 -0.4505
63691SOL    HW2 9066  11.737   5.844   9.229  1.1092  1.6553  0.2575
63692SOL     OW 9067   0.168  12.041   7.180 -0.2301  0.1322  0.2329
63692SOL    HW1 9068   0.133  12.007   7.262  1.2260  1.4689  1.4485
63692SOL    HW2 9069   0.131  12.129   7.173 -0.8524 -0.1854 -0.9155
63693SOL     OW 9070  11.614   8.560  11.077  0.0242  0.7005  0.5304
63693SOL    HW1 9071  11.594   8.470  11.053 -0.6121  0.8371  0.5215
63693SOL    HW2 9072  11.685   8.586  11.018  1.5037 -0.3719  1.7439
63694SOL     OW 9073   0.157   0.078  13.343 -0.6491  0.2139 -0.3506
63694SOL    HW1 9074   0.106   0.084  13.262 -0.5697  0.1622 -0.4048
63694SOL    HW2 9075   0.096   0.043  13.408 -0.1624 -1.7048 -0.8797
63695SOL     OW 9076   5.327   6.429   3.550 -0.1020  0.4509 -0.2550
63695SOL    HW1 9077   5.306   6.336   3.551 -1.5886  0.7462  1.9803
63695SOL    HW2 9078   5.243   6.472   3.538  0.0866  1.5487  1.9954
63696SOL     OW 9079   9.967   5.849   4.718 -0.0752 -0.0534  0.6183
63696SOL    HW1 9080   9.951   5.943   4.709 -1.4125 -0.1668  1.5631
63696SOL    HW2 9081  10.063   5.842   4.717  0.0458  1.1082 -1.1437
63697SOL     OW 9082   3.423   2.133   3.105 -0.1346  0.1528 -0.5693
63697SOL    HW1 9083   3.517   2.148   3.113 -0.2312  0.5953 -0.2622
63697SOL    HW2 9084   3.386   2.218   3.083 -0.7364  0.5364  1.6714
63698SOL     OW 9085   3.048   4.927   9.582  0.5802  0.1266 -0.3548
63698SOL    HW1 9086   3.056   4.934   9.677  2.5225 -0.5726 -0.4217
63698SOL    HW2 9087   2.982   4.992   9.559 -0.7469 -0.4406  1.5647
63699SOL     OW 9088   4.426   1.080  11.783 -0.0553 -0.0700 -0.3947
63699SOL    HW1 9089   4.426   0.984  11.786 -1.2577 -0.0647  0.6888
63699SOL    HW2 9090   4.501   1.102  11.728  1.3080 -1.5700  0.7809
63700SOL     OW 9091  13.625   0.300   6.679 -0.1534  0.3831 -0.3544
63700SOL    HW1 9092  13.571   0.334   6.751  1.0667  0.1832  0.6786
63700SOL    HW2 9093  13.698   0.257   6.722  0.5396  0.1420 -1.7282
63701SOL     OW 9094   6.935  13.667  12.320 -0.3433  0.2284 -0.1068
63701SOL    HW1 9095   6.986  13.628  12.391 -1.8987 -0.6709  0.5886
63701SOL    HW2 9096   6.944  13.605  12.248 -1.6295 -0.7721  0.5256
63702SOL     OW 9097   5.949   7.705  12.681  0.6590  0.3522 -0.3034
63702SOL    HW1 9098   5.857   7.678  12.685  0.9072 -0.4577  0.3611
63702SOL    HW2 9099   5.948   7.797  12.705 -0.0508  0.5353 -1.0006
63703SOL     OW 9100  12.581  12.062   4.985 -0.1747 -1.0961  0.4523
63703SOL    HW1 9101  12.635  11.998   4.938 -0.5244 -1.5419  0.6618
63703SOL    HW2 9102  12.534  12.108   4.915  1.2859  0.0538  0.1803
63704SOL     OW 9103   9.962   9.137   6.459  0.4517 -0.0583  0.2993
63704SOL    HW1 9104   9.888   9.081   6.483 -0.9730  1.5620 -0.1421
63704SOL    HW2 9105   9.957   9.143   6.364  0.4489  0.9618  0.3555
63705SOL     OW 9106  10.482  12.779   6.741 -0.2049  0.4306  0.0112
63705SOL    HW1 9107  10.564  12.778   6.690 -0.2794  0.2221 -0.1078
63705SOL    HW2 9108  10.429  12.710   6.701 -0.8319  1.2264 -0.5519
63706SOL     OW 9109   1.079  13.330   6.321 -0.2715 -0.7451 -0.4477
63706SOL    HW1 9110   1.026  13.363   6.394 -0.8589  1.9814 -1.9518
63706SOL    HW2 9111   1.111  13.245   6.351 -0.1926  0.3735  3.0988
63707SOL     OW 9112   8.685  13.366   9.024 -0.4908  0.3080  0.0621
63707SOL    HW1 9113   8.719  13.455   9.031  0.0345  0.1632 -0.5311
63707SOL    HW2 9114   8.723  13.319   9.098  0.2546  0.2579 -0.3495
63708SOL     OW 9115   6.516  12.892   2.410 -0.0770 -0.3767 -0.8368
63708SOL    HW1 9116   6.501  12.804   2.444  0.4411 -0.0572  0.2527
63708SOL    HW2 9117   6.541  12.878   2.318  1.9201 -1.5428 -0.1907
63709SOL     OW 9118   1.992   4.767  13.260  0.0575  0.1508  0.0118
63709SOL    HW1 9119   2.050   4.691  13.260  0.1617  0.2285  0.2545
63709SOL    HW2 9120   1.920   4.743  13.201 -0.9424 -0.9361  1.5724
63710SOL     OW 9121   7.880  13.879   6.913  0.1621  0.1555  0.7018
63710SOL    HW1 9122   7.919  13.960   6.946  1.6760 -0.1401 -0.2695
63710SOL    HW2 9123   7.847  13.835   6.992 -0.3094  1.4921  1.2861
63711SOL     OW 9124   5.559   1.042   1.231  0.6897 -0.0429 -0.2497
63711SOL    HW1 9125   5.526   1.060   1.143  1.1571 -1.6608 -0.7892
63711SOL    HW2 9126   5.631   0.981   1.218  1.0736  0.0403  1.2354
63712SOL     OW 9127   5.620  13.100   0.081  0.1833 -0.1104  0.1158
63712SOL    HW1 9128   5.696  13.152   0.056  1.2033 -1.2302  0.7971
63712SOL    HW2 9129   5.552  13.164   0.101  1.3621  0.9693  0.7918
63713SOL     OW 9130   3.810   4.301  12.553  0.0351 -0.1444  0.1867
63713SOL    HW1 9131   3.809   4.242  12.478  1.1380 -2.9688  2.1957
63713SOL    HW2 9132   3.719   4.326  12.566 -0.1137  0.9936 -2.3898
63714SOL     OW 9133   7.234   0.310   8.938 -0.5148 -0.1005 -0.4461
63714SOL    HW1 9134   7.185   0.376   8.889  0.7894  1.2051 -0.0459
63714SOL    HW2 9135   7.178   0.288   9.012 -1.1969  0.1484 -0.8822
63715SOL     OW 9136  13.783   6.042   2.091 -0.0993  0.3879 -0.9029
63715SOL    HW1 9137  13.762   6.116   2.035  0.1844  0.3948 -1.0000
63715SOL    HW2 9138  13.775   6.076   2.180 -2.9332 -0.2196 -0.8149
63716SOL     OW 9139   6.755  10.109   4.327 -0.2857 -0.5150 -0.1815
63716SOL    HW1 9140   6.667  10.078   4.307  0.0586 -2.8046  1.4730
63716SOL    HW2 9141   6.794  10.039   4.380  3.0678 -0.2794 -2.0597
63717SOL     OW 9142   6.366   7.329  12.795  0.3944 -0.1743  0.0819
63717SOL    HW1 9143   6.392   7.374  12.715  1.5559 -0.2475  0.3889
63717SOL    HW2 9144   6.333   7.244  12.765 -2.4636  1.0399 -0.5550
63718SOL     OW 9145   2.414   8.662  13.261  0.0335  0.2412 -0.2647
63718SOL    HW1 9146   2.505   8.688  13.274 -0.2263  1.5787 -0.9210
63718SOL    HW2 9147   2.418   8.568  13.243  1.1699  0.0748  0.7412
63719SOL     OW 9148   3.227   3.917  11.701 -0.5468  0.1285 -0.2994
63719SOL    HW1 9149   3.237   3.829  11.738  0.1510  0.4923  0.4208
63719SOL    HW2 9150   3.139   3.944  11.728 -1.0225 -0.5970 -1.0884
63720SOL     OW 9151  11.102   7.449  11.384  0.1196  0.1972  0.2581
63720SOL    HW1 9152  11.047   7.379  11.417  0.5679 -0.6360 -0.6794
63720SOL    HW2 9153  11.182   7.405  11.356  1.5101  1.4202  2.0430
63721SOL     OW 9154  13.449   3.612   2.067 -0.0108 -0.2085  0.5433
63721SOL    HW1 9155  13.392   3.657   2.005 -0.1077 -2.2393 -0.9717
63721SOL    HW2 9156  13.472   3.678   2.131 -0.2645  1.9102 -1.4195
63722SOL     OW 9157  10.379  10.920   7.084 -0.0561 -0.1445 -0.2916
63722SOL    HW1 9158  10.308  10.978   7.113  1.5003  0.7664  1.9526
63722SOL    HW2 9159  10.446  10.979   7.050  0.5745 -0.8112 -0.2274
63723SOL     OW 9160   1.756  10.153   0.451  0.1150 -0.9894 -0.9362
63723SOL    HW1 9161   1.740  10.079   0.392 -0.5718  0.1695 -2.2413
63723SOL    HW2 9162   1.715  10.127   0.533  0.7911 -2.4936 -1.0301
63724SOL     OW 9163   4.449   5.867   4.533 -0.2842  0.5706  0.0250
63724SOL    HW1 9164   4.515   5.930   4.504 -0.8826  0.2921 -2.0923
63724SOL    HW2 9165   4.467   5.789   4.482 -1.8815  0.2989 -0.1676
63725SOL     OW 9166   7.686   4.550  10.514  0.5238 -0.5633  0.0088
63725SOL    HW1 9167   7.769   4.584  10.546  1.7295 -1.8251 -1.6274
63725SOL    HW2 9168   7.639   4.626  10.482  1.3524  0.0792  0.3002
63726SOL     OW 9169   8.618  12.748  13.351 -0.5114  0.2561 -0.2450
63726SOL    HW1 9170   8.562  12.773  13.277 -0.4399  0.8681 -0.1023
63726SOL    HW2 9171   8.649  12.832  13.386 -1.7547  0.0537  1.4365
63727SOL     OW 9172   0.955  12.858  12.915  0.1169  0.2666  0.1427
63727SOL    HW1 9173   0.943  12.808  12.834 -1.9368 -0.3038  0.7452
63727SOL    HW2 9174   0.952  12.792  12.984 -0.3850  0.9733  0.8082
63728SOL     OW 9175   0.493   8.993   7.567 -0.4206 -0.0324 -0.5120
63728SOL    HW1 9176   0.514   9.084   7.585 -1.4800  0.0423  0.4638
63728SOL    HW2 9177   0.503   8.949   7.651  1.5655 -1.1548 -1.2564
63729SOL     OW 9178  11.373   0.199   6.441  0.0818  0.2839 -0.6354
63729SOL    HW1 9179  11.405   0.108   6.439  1.7811  0.8445 -1.7553
63729SOL    HW2 9180  11.343   0.215   6.352 -1.2829  0.4974 -0.1525
63730SOL     OW 9181  11.162   0.494   1.720  0.0733  0.5957  0.2734
63730SOL    HW1 9182  11.192   0.425   1.779 -0.1999  0.6372  0.4671
63730SOL    HW2 9183  11.164   0.573   1.774 -0.3883  0.5972  0.2970
63731SOL     OW 9184   4.756   4.233   6.271  0.1329 -0.3741 -0.1776
63731SOL    HW1 9185   4.673   4.192   6.249 -0.5575  1.7901 -1.9911
63731SOL    HW2 9186   4.784   4.276   6.190  1.8744  0.8546  0.9973
63732SOL     OW 9187   8.205  13.107   3.009  0.1333  0.1930 -0.0120
63732SOL    HW1 9188   8.143  13.180   3.003  0.7505  0.7140 -0.2266
63732SOL    HW2 9189   8.289  13.149   3.024  0.2843 -0.5553  1.3634
63733SOL     OW 9190   9.503   9.067  12.822  0.3007 -0.0912 -0.1708
63733SOL    HW1 9191   9.520   9.109  12.738  1.5575 -0.2308 -0.0042
63733SOL    HW2 9192   9.540   9.127  12.887  1.2871 -1.0006  0.1311
63734SOL     OW 9193  11.690  13.509   2.380  0.0671 -0.6264 -0.3309
63734SOL    HW1 9194  11.709  13.428   2.332 -2.2131 -1.9220  0.7981
63734SOL    HW2 9195  11.607  13.540   2.343 -0.0454  0.1562  0.5285
63735SOL     OW 9196  13.911   2.952   2.883 -0.1152  0.0970  0.5928
63735SOL    HW1 9197  13.992   2.901   2.888 -0.5418 -0.8655 -1.5481
63735SOL    HW2 9198  13.940   3.043   2.887  1.2129 -0.2036 -1.1047
63736SOL     OW 9199  10.273   7.860   3.142 -0.3904 -0.1643 -0.1285
63736SOL    HW1 9200  10.344   7.897   3.089  0.9751 -0.5774  1.3360
63736SOL    HW2 9201  10.317   7.807   3.209 -1.9889  0.5404  1.5976
63737SOL     OW 9202   2.721  13.836   5.163  0.4209 -0.0624 -0.0911
63737SOL    HW1 9203   2.725  13.818   5.069 -0.4413 -0.0358 -0.1408
63737SOL    HW2 9204   2.661  13.770   5.197 -0.1254  0.6035  0.2629
63738SOL     OW 9205  10.518  13.764   4.540  0.3360  0.2959 -0.1229
63738SOL    HW1 9206  10.480  13.756   4.628  0.7288 -0.8479 -0.0492
63738SOL    HW2 9207  10.546  13.855   4.535  1.9605 -0.0321  1.6353
63739SOL     OW 9208   9.130   2.701  11.149 -0.8154  0.6632  0.6604
63739SOL    HW1 9209   9.158   2.747  11.070 -1.9812  0.0632 -0.1366
63739SOL    HW2 9210   9.202   2.641  11.169  0.7889  2.8611  1.7988
63740SOL     OW 9211   4.951   6.550  11.066 -0.1341  0.5311  0.0446
63740SOL    HW1 9212   5.017   6.493  11.106 -0.4391 -0.0861 -0.3020
63740SOL    HW2 9213   4.980   6.560  10.975  0.3061  1.5348  0.2943
63741SOL     OW 9214  13.665  11.598  13.349 -0.2388 -0.1387  0.1527
63741SOL    HW1 9215  13.638  11.555  13.268  1.3923  0.1530 -0.5751
63741SOL    HW2 9216  13.744  11.647  13.326 -1.3422  2.3050  1.2300
63742SOL     OW 9217   5.667   8.156   0.347  0.3034  0.1285  0.5844
63742SOL    HW1 9218   5.620   8.184   0.426  0.8803 -0.0591  0.9981
63742SOL    HW2 9219   5.699   8.068   0.368 -1.3597 -0.8278 -0.6441
63743SOL     OW 9220   1.841   7.904   4.329 -0.4767 -0.3228 -0.2427
63743SOL    HW1 9221   1.925   7.916   4.374 -0.5155  1.1040 -0.4909
63743SOL    HW2 9222   1.864   7.903   4.236 -0.5954 -1.3685 -0.2692
63744SOL     OW 9223   3.730   0.180   8.557  0.2327 -0.8208 -0.4659
63744SOL    HW1 9224   3.711   0.266   8.519 -0.7259 -0.5651  0.5306
63744SOL    HW2 9225   3.657   0.163   8.617  1.4021 -1.4092  0.8726
63745SOL     OW 9226  13.832  10.842   5.563  0.0025 -0.2053  0.0518
63745SOL    HW1 9227  13.774  10.915   5.542 -1.0847 -1.4887 -1.7030
63745SOL    HW2 9228  13.774  10.776   5.601  0.6702 -0.7553  0.1330
63746SOL     OW 9229   6.885   6.898   5.870  0.5436 -0.1248  0.0946
63746SOL    HW1 9230   6.939   6.963   5.825 -0.3269  0.6547  0.1549
63746SOL    HW2 9231   6.796   6.915   5.840  0.4123 -2.0294 -0.7606
63747SOL     OW 9232   3.727   9.052  10.688 -0.1127  0.0569  0.0130
63747SOL    HW1 9233   3.814   9.023  10.718  0.2307  0.7457 -0.2910
63747SOL    HW2 9234   3.734   9.054  10.593 -0.7422 -0.7203 -0.0537
63748SOL     OW 9235   2.717   0.056   3.271 -0.4798 -0.4122 -0.2270
63748SOL    HW1 9236   2.738   0.119   3.340  0.1458 -1.7953  0.8886
63748SOL    HW2 9237   2.621   0.053   3.270 -0.4905 -0.4407  0.6362
63749SOL     OW 9238   8.397   8.555   6.139  0.6402 -0.3306  0.4743
63749SOL    HW1 9239   8.415   8.640   6.098  2.3464 -0.5309  0.7463
63749SOL    HW2 9240   8.407   8.571   6.232 -0.8131 -0.4462  0.6694
63750SOL     OW 9241  10.116   7.286   7.604 -0.9405  0.0713  0.0692
63750SOL    HW1 9242  10.034   7.315   7.646 -1.4483 -1.2257  0.0313
63750SOL    HW2 9243  10.127   7.346   7.530 -0.9047  1.3630  1.0782
63751SOL     OW 9244   7.466  11.049  12.751 -0.1657  0.6020 -0.2606
63751SOL    HW1 9245   7.455  11.129  12.801 -0.0635  0.9421 -0.7724
63751SOL    HW2 9246   7.526  10.996  12.803 -2.4791 -0.4072  1.5522
63752SOL     OW 9247   4.584  10.683  12.596 -0.0701  0.0267  0.0583
63752SOL    HW1 9248   4.676  10.694  12.571 -0.2032  0.9356 -0.0597
63752SOL    HW2 9249   4.535  10.734  12.532 -0.5642  0.6346  0.8859
63753SOL     OW 9250   3.165   2.882   6.573  0.8600  0.3037  0.3448
63753SOL    HW1 9251   3.156   2.787   6.580  0.5393  0.3430  0.4874
63753SOL    HW2 9252   3.223   2.907   6.645  3.1428 -0.0886 -1.2536
63754SOL     OW 9253   9.791   2.440   7.193 -0.4991 -0.3161  0.1181
63754SOL    HW1 9254   9.804   2.483   7.277 -2.6359  0.6957 -0.0207
63754SOL    HW2 9255   9.873   2.457   7.145 -0.0038  0.7360  1.2756
63755SOL     OW 9256  13.986   6.019   8.911 -0.2718 -0.8164  0.1400
63755SOL    HW1 9257  14.045   6.030   8.837  0.3983  1.7924  0.9597
63755SOL    HW2 9258  13.959   6.108   8.934 -0.1067 -1.4350  3.2492
63756SOL     OW 9259   6.796  13.141   4.112  0.5871 -0.3232 -0.2021
63756SOL    HW1 9260   6.870  13.098   4.069  1.0606  0.1719  0.1116
63756SOL    HW2 9261   6.731  13.071   4.122  1.2090 -0.8870 -0.0199
63757SOL     OW 9262   3.316   6.436   7.366 -0.7979 -0.1070  0.1872
63757SOL    HW1 9263   3.232   6.398   7.390 -1.2846  0.2306 -0.9155
63757SOL    HW2 9264   3.371   6.361   7.346 -0.7331 -0.3414  1.1720
63758SOL     OW 9265   5.045   6.373   9.955 -0.2024 -0.6269  0.2880
63758SOL    HW1 9266   5.106   6.302   9.976 -0.0612 -0.2474  1.2206
63758SOL    HW2 9267   5.021   6.410  10.041 -1.3550 -0.4510 -0.0857
63759SOL     OW 9268   5.618   7.352  10.757  0.0138  0.5275  0.4097
63759SOL    HW1 9269   5.574   7.353  10.842  0.4196 -1.1761  0.6882
63759SOL    HW2 9270   5.581   7.275  10.712  0.8785  0.5291 -0.3409
63760SOL     OW 9271  13.579  10.328  10.136 -0.1159 -0.0370  0.0361
63760SOL    HW1 9272  13.572  10.350  10.043  1.4711  0.7841  0.0717
63760SOL    HW2 9273  13.554  10.236  10.141  2.2056 -0.8532 -1.6397
63761SOL     OW 9274   5.162   4.224  10.858 -0.3097  0.6139  0.4209
63761SOL    HW1 9275   5.122   4.286  10.797 -1.9918 -0.8092  0.0103
63761SOL    HW2 9276   5.088   4.178  10.897  0.8814 -1.4472  0.3795
63762SOL     OW 9277   7.831  13.428   5.793  0.7491  0.2678 -0.3224
63762SOL    HW1 9278   7.786  13.469   5.867  0.3541  0.5866 -0.7314
63762SOL    HW2 9279   7.924  13.447   5.807  0.9072 -1.3408  1.1159
63763SOL     OW 9280  11.415  11.981   2.855 -0.0453 -0.4044 -0.6641
63763SOL    HW1 9281  11.503  12.017   2.863 -0.0831 -0.6098  1.3956
63763SOL    HW2 9282  11.360  12.056   2.831  0.5423 -0.0817 -1.0176
63764SOL     OW 9283   7.687  13.480   5.569  0.4542 -0.1218  0.4185
63764SOL    HW1 9284   7.708  13.562   5.525 -0.2796  1.1922  2.3586
63764SOL    HW2 9285   7.749  13.475   5.641 -0.1979 -0.7132  0.9598
63765SOL     OW 9286  12.172   3.346   4.365  0.0761  0.6987  0.4856
63765SOL    HW1 9287  12.087   3.379   4.336  0.5237  1.3909 -0.0878
63765SOL    HW2 9288  12.194   3.277   4.303 -1.1018 -1.1118  1.9939
63766SOL     OW 9289   8.907   7.541   5.353  0.0216 -0.2374 -0.3385
63766SOL    HW1 9290   8.976   7.601   5.325  0.7402  0.2430  2.2024
63766SOL    HW2 9291   8.949   7.456   5.358 -0.4749 -0.6037 -1.9915
63767SOL     OW 9292  12.075   4.720   1.087  1.0161  0.1905 -0.2903
63767SOL    HW1 9293  12.113   4.730   1.000  0.5677 -0.0733 -0.5152
63767SOL    HW2 9294  11.991   4.765   1.083  1.0034  0.1993  0.0172
63768SOL     OW 9295   9.862   3.935  11.490  0.1685  0.3900  1.1420
63768SOL    HW1 9296   9.891   4.025  11.474  0.5786  0.3712  1.7742
63768SOL    HW2 9297   9.922   3.902  11.556  0.9359 -0.8314 -0.1149
63769SOL     OW 9298   0.498   8.899   9.340 -0.4516 -0.2765  0.0132
63769SOL    HW1 9299   0.566   8.844   9.378 -0.0329 -0.0643 -0.4166
63769SOL    HW2 9300   0.477   8.857   9.257  0.7497  0.8439 -0.9132
63770SOL     OW 9301  12.365   9.338   3.061  0.3631  0.3193  0.1877
63770SOL    HW1 9302  12.376   9.399   2.989  0.7888  0.3085  0.2449
63770SOL    HW2 9303  12.388   9.252   3.024 -1.0268  0.0606 -0.1240
63771SOL     OW 9304  13.681  11.669   5.742 -0.5112 -0.0756  0.7689
63771SOL    HW1 9305  13.597  11.637   5.774  0.1396 -0.1919  2.4572
63771SOL    HW2 9306  13.685  11.760   5.771  0.4994 -0.4571  1.8775
63772SOL     OW 9307  12.012   9.245   6.796  0.2605 -0.3373 -0.3129
63772SOL    HW1 9308  11.953   9.248   6.871 -0.4014  1.2161 -0.8427
63772SOL    HW2 9309  12.000   9.158   6.759 -1.3446 -0.2375 -0.1057
63773SOL     OW 9310   4.299   8.428   3.006  0.9981 -0.2550 -0.2119
63773SOL    HW1 9311   4.253   8.467   2.931 -0.8433  0.4885  1.2086
63773SOL    HW2 9312   4.382   8.398   2.970  0.8187  1.4071 -2.2424
63774SOL     OW 9313   8.805  11.324  10.989 -0.1093 -0.0481 -0.2424
63774SOL    HW1 9314   8.830  11.416  10.999 -2.7008  0.6662  0.5576
63774SOL    HW2 9315   8.864  11.291  10.921  2.8275  1.3490  1.4202
63775SOL     OW 9316   8.815   3.251   8.255  0.4808  0.6173  0.5155
63775SOL    HW1 9317   8.804   3.161   8.224  0.9756  0.9732 -0.7645
63775SOL    HW2 9318   8.872   3.243   8.332  1.6890 -0.0685 -0.3994
63776SOL     OW 9319   5.502  11.604   5.462 -0.6125  0.2126 -0.0484
63776SOL    HW1 9320   5.540  11.543   5.399 -0.6750 -1.6296  1.6233
63776SOL    HW2 9321   5.411  11.612   5.435 -0.3629  0.4030 -0.8787
63777SOL     OW 9322  13.508   9.519   7.654 -0.0393 -0.0556  0.2482
63777SOL    HW1 9323  13.427   9.471   7.671  0.5549 -0.6042  1.6685
63777SOL    HW2 9324  13.493   9.563   7.570 -1.1216 -1.5913 -0.4016
63778SOL     OW 9325  13.047   7.491   1.166  0.5712  0.1824  0.0297
63778SOL    HW1 9326  13.079   7.426   1.104 -0.3654  0.0491 -0.3304
63778SOL    HW2 9327  12.995   7.551   1.113  1.5797  1.3648  0.3211
63779SOL     OW 9328   2.326   0.120   1.896  0.7190  0.1255 -0.2004
63779SOL    HW1 9329   2.399   0.161   1.942  0.0255  2.0674 -0.7036
63779SOL    HW2 9330   2.366   0.057   1.837  2.2006  2.2529 -1.6299
63780SOL     OW 9331   3.670  14.007   5.983 -0.3756 -0.2497  0.3761
63780SOL    HW1 9332   3.663  14.053   5.900 -0.9801 -0.0323  0.5445
63780SOL    HW2 9333   3.592  13.953   5.988 -0.7562  0.3541  1.1660
63781SOL     OW 9334   2.896  10.889   6.814 -0.0193 -0.4177 -0.0172
63781SOL    HW1 9335   2.822  10.836   6.784  0.5523 -0.7808 -0.8384
63781SOL    HW2 9336   2.915  10.857   6.901  0.1149 -1.3583 -0.3814
63782SOL     OW 9337   6.759  10.251   3.292 -0.1907 -0.0919 -0.2452
63782SOL    HW1 9338   6.726  10.271   3.380  1.1041  0.5928  0.0957
63782SOL    HW2 9339   6.808  10.170   3.303  2.1417  1.3107  0.2336
63783SOL     OW 9340   7.703   0.400   1.046  0.1960  0.5101 -0.0396
63783SOL    HW1 9341   7.650   0.419   0.968  0.8383  1.3171 -0.3021
63783SOL    HW2 9342   7.707   0.305   1.050 -1.9437  0.3883  0.4589
63784SOL     OW 9343   9.627  13.803   6.702 -0.4707  0.0252  0.5021
63784SOL    HW1 9344   9.561  13.788   6.770 -1.2811  2.4610  0.3297
63784SOL    HW2 9345   9.673  13.882   6.730  2.7199 -1.7469  0.7970
63785SOL     OW 9346  12.525  12.941   6.103 -0.0444  0.4881  0.4206
63785SOL    HW1 9347  12.431  12.924   6.108 -0.1290 -0.3598 -2.3980
63785SOL    HW2 9348  12.532  13.023   6.054  0.7048  1.4003  1.9681
63786SOL     OW 9349  12.047  12.361   9.714 -0.5113 -0.2439  0.5459
63786SOL    HW1 9350  12.093  12.439   9.746 -0.4037  0.5173 -1.3180
63786SOL    HW2 9351  11.957  12.391   9.700 -0.1598  0.0086 -1.5152
63787SOL     OW 9352  11.083   1.133   9.165  0.1254  0.3373 -0.0028
63787SOL    HW1 9353  10.990   1.145   9.185 -0.2934 -0.8473 -1.1488
63787SOL    HW2 9354  11.112   1.220   9.136 -1.0335  0.3412 -1.2212
63788SOL     OW 9355  13.352   0.791  11.606  0.3237  0.3007  0.6521
63788SOL    HW1 9356  13.354   0.714  11.663 -0.2864 -1.2092 -1.2678
63788SOL    HW2 9357  13.434   0.786  11.557  1.0539  1.8366  1.6647
63789SOL     OW 9358   7.814   0.590   7.830  0.2106  0.8424  0.2853
63789SOL    HW1 9359   7.778   0.671   7.793 -0.2887  0.2754 -0.5098
63789SOL    HW2 9360   7.764   0.577   7.910 -1.7666 -0.1670 -1.0175
63790SOL     OW 9361   8.892  10.699   9.375 -0.1668  0.2406  0.2506
63790SOL    HW1 9362   8.862  10.618   9.335 -0.0921  0.1354  0.4078
63790SOL    HW2 9363   8.928  10.673   9.460  1.4144  0.2048 -0.3888
63791SOL     OW 9364   7.234   4.170   3.775  0.0002  0.0886  0.4175
63791SOL    HW1 9365   7.175   4.214   3.837 -1.8895 -0.4225 -0.9049
63791SOL    HW2 9366   7.269   4.096   3.824 -2.1289 -0.8165  0.6982
63792SOL     OW 9367  13.535   5.410   2.890 -0.0772  0.5575 -0.6850
63792SOL    HW1 9368  13.561   5.487   2.839 -0.1383  1.3203  0.3850
63792SOL    HW2 9369  13.462   5.441   2.944 -1.0614 -0.6554 -1.2645
63793SOL     OW 9370  11.533   7.994   7.757  0.1254  0.4576 -0.2854
63793SOL    HW1 9371  11.479   7.949   7.693  1.6778  0.7941 -1.8979
63793SOL    HW2 9372  11.595   7.928   7.787  0.6678  0.8090 -0.6242
63794SOL     OW 9373   2.853  13.520   9.908  0.1420  0.1189 -0.3948
63794SOL    HW1 9374   2.937  13.534   9.951  0.0278  0.7817 -0.3673
63794SOL    HW2 9375   2.846  13.425   9.897  0.1367 -0.0855  1.1380
63795SOL     OW 9376   3.114  10.188  12.250  0.4420  0.2824  0.1725
63795SOL    HW1 9377   3.081  10.125  12.187  0.0226 -0.4469  1.1112
63795SOL    HW2 9378   3.209  10.179  12.246  0.3755 -0.5443  0.4421
63796SOL     OW 9379   9.388   0.019  11.234  0.7376  0.3887  0.3951
63796SOL    HW1 9380   9.444   0.089  11.200  1.0729 -0.4788 -0.9001
63796SOL    HW2 9381   9.340   0.060  11.306  1.9665  1.5562  0.5971
63797SOL     OW 9382   7.387   9.120  10.998 -0.1777 -0.0161 -0.1850
63797SOL    HW1 9383   7.438   9.200  11.007  1.2336 -1.0442  1.5423
63797SOL    HW2 9384   7.389   9.100  10.905 -0.3091  1.7680 -0.5974
63798SOL     OW 9385   5.816   4.786   5.992  0.0640  0.1235 -0.2601
63798SOL    HW1 9386   5.844   4.770   6.082  0.5797 -0.7083 -0.5497
63798SOL    HW2 9387   5.865   4.864   5.965  1.4115 -0.7328 -0.4301
63799SOL     OW 9388   8.050   2.515   6.052 -0.1987 -0.5281  0.5166
63799SOL    HW1 9389   7.976   2.518   6.113 -0.1076  0.5019  0.6021
63799SOL    HW2 9390   8.016   2.467   5.976 -0.9283 -0.1611  0.5959
63800SOL     OW 9391   5.876   9.499   7.267 -0.5657 -0.2965  0.1387
63800SOL    HW1 9392   5.845   9.475   7.354  0.0076  0.3737  0.5474
63800SOL    HW2 9393   5.874   9.418   7.217 -1.2759 -0.6077  0.6635
63801SOL     OW 9394   5.954   8.069  10.305  0.1462 -0.8503 -0.3452
63801SOL    HW1 9395   6.046   8.088  10.289  0.5320 -2.1288  0.2354
63801SOL    HW2 9396   5.943   8.079  10.399  0.1921 -2.5863 -0.1100
63802SOL     OW 9397   5.200   7.877   1.097  0.2660 -0.1532 -0.6398
63802SOL    HW1 9398   5.166   7.946   1.040  0.6282 -0.9447 -1.8404
63802SOL    HW2 9399   5.289   7.862   1.066  1.3603  1.0234  1.6607
63803SOL     OW 9400   7.991  13.005   4.074 -0.2743 -0.0229 -0.3376
63803SOL    HW1 9401   7.901  12.974   4.085 -0.1732 -0.4502 -0.6887
63803SOL    HW2 9402   7.999  13.022   3.980  0.6391 -1.9998 -0.6744
63804SOL     OW 9403   3.873   4.853   6.434 -0.0761  0.2224  0.0440
63804SOL    HW1 9404   3.950   4.906   6.454 -0.4531  0.5816  0.5621
63804SOL    HW2 9405   3.801   4.916   6.432 -0.8331 -0.4980  2.4702
63805SOL     OW 9406  13.796   8.257   1.085  0.0991  0.1248 -0.5969
63805SOL    HW1 9407  13.853   8.214   1.021  1.0174 -0.0693  0.3241
63805SOL    HW2 9408  13.771   8.186   1.146  0.9126  0.6982  0.4327
63806SOL     OW 9409  11.039  12.162  13.123 -0.3799 -0.0108 -0.1518
63806SOL    HW1 9410  11.004  12.247  13.150 -1.0014  0.7732 -3.1138
63806SOL    HW2 9411  11.042  12.111  13.204 -1.7698  2.1999  1.4089
63807SOL     OW 9412   8.841   6.353  11.293  0.0887  0.1349  0.0281
63807SOL    HW1 9413   8.900   6.280  11.315 -0.5319 -0.2861  0.3262
63807SOL    HW2 9414   8.783   6.317  11.225  0.9993  0.9510 -1.2269
63808SOL     OW 9415   0.293   8.828   8.810  0.3050 -0.7068 -0.3757
63808SOL    HW1 9416   0.365   8.821   8.748 -0.0559  0.5017 -0.9699
63808SOL    HW2 9417   0.302   8.916   8.847 -1.0192 -0.4232 -0.6743
63809SOL     OW 9418  12.052   2.947   7.656  0.1493 -0.6635  0.6575
63809SOL    HW1 9419  11.975   2.894   7.636 -1.1868  1.2843  0.3346
63809SOL    HW2 9420  12.039   2.974   7.747 -0.3408  0.8638  0.1586
63810SOL     OW 9421   2.175  12.098  13.889 -0.3312  0.6849  0.0621
63810SOL    HW1 9422   2.154  12.043  13.814  1.2997  0.9094 -0.5954
63810SOL    HW2 9423   2.256  12.061  13.924  0.3311  2.1327  0.1246
63811SOL     OW 9424   3.725   2.069   9.434 -0.3841 -0.1026  0.1945
63811SOL    HW1 9425   3.806   2.026   9.407  0.1343 -0.8938  2.7031
63811SOL    HW2 9426   3.679   2.087   9.352  3.0472  1.9830 -1.5336
63812SOL     OW 9427  10.390   4.316   1.254 -0.3683  0.1925  0.5030
63812SOL    HW1 9428  10.318   4.280   1.305 -0.8108  0.1966 -0.1069
63812SOL    HW2 9429  10.367   4.407   1.239 -1.3994 -0.3540 -1.6397
63813SOL     OW 9430   8.641  13.723   4.735  1.0413 -0.0946  0.4998
63813SOL    HW1 9431   8.564  13.737   4.790  1.3274 -0.2153  0.9366
63813SOL    HW2 9432   8.661  13.809   4.699  0.3529 -0.1725 -0.0857
63814SOL     OW 9433   6.041   8.461   5.648 -0.2826 -0.1585 -0.2938
63814SOL    HW1 9434   5.972   8.508   5.695 -0.2876  1.0651 -1.4535
63814SOL    HW2 9435   6.115   8.461   5.708 -0.7091  0.1665  0.2445
63815SOL     OW 9436   8.729   1.071   3.462  0.0509 -0.4184 -0.0185
63815SOL    HW1 9437   8.667   1.025   3.406  1.1068 -0.9074 -0.8177
63815SOL    HW2 9438   8.779   1.002   3.506 -0.4523 -0.0409  1.2178
63816SOL     OW 9439   0.374  12.697   0.608  0.4594  0.1807 -0.1941
63816SOL    HW1 9440   0.356  12.774   0.662 -1.7476  1.5840 -2.6821
63816SOL    HW2 9441   0.469  12.698   0.597  0.7002  1.3206  1.5050
63817SOL     OW 9442   6.446   4.051  12.644  0.2393  0.2290 -0.2765
63817SOL    HW1 9443   6.393   4.076  12.568 -1.2520 -1.2444  0.2082
63817SOL    HW2 9444   6.488   4.132  12.672  1.2632  0.7335 -2.9562
63818SOL     OW 9445   0.193   9.281   9.020  0.1332  0.0369  0.4289
63818SOL    HW1 9446   0.138   9.277   9.098  0.3212 -0.7236  0.5342
63818SOL    HW2 9447   0.190   9.373   8.993  2.0552  0.9256  2.7838
63819SOL     OW 9448  13.363   3.295   4.036 -0.3620  0.4497 -0.7550
63819SOL    HW1 9449  13.291   3.357   4.023 -1.5772 -0.8614 -0.4946
63819SOL    HW2 9450  13.320   3.214   4.061  1.2259 -0.3872 -0.6527
63820SOL     OW 9451   8.611   1.173  11.917  1.3146 -0.4914 -1.2331
63820SOL    HW1 9452   8.650   1.119  11.848  1.2280 -0.8044 -1.0435
63820SOL    HW2 9453   8.672   1.245  11.929  1.7415 -0.8708 -1.0730
63821SOL     OW 9454   1.717   6.083  12.609 -0.6782  0.2273 -0.7654
63821SOL    HW1 9455   1.673   6.107  12.691 -0.3712 -2.0366  0.1251
63821SOL    HW2 9456   1.809   6.101  12.624 -0.4887 -1.0729 -0.2049
63822SOL     OW 9457   6.984  12.524   2.621 -0.1788  0.4010 -0.6302
63822SOL    HW1 9458   7.044  12.528   2.695  1.3289  0.7110 -1.8416
63822SOL    HW2 9459   7.024  12.577   2.553 -2.2805  1.3936 -1.1955
63823SOL     OW 9460   3.813   9.237   5.064 -0.4029  0.2514 -0.1637
63823SOL    HW1 9461   3.719   9.257   5.069 -0.0941  1.9190 -0.4684
63823SOL    HW2 9462   3.856   9.323   5.070  1.0251 -0.2729 -1.9991
63824SOL     OW 9463   6.270   9.097   7.209  0.8893 -0.6738 -0.5320
63824SOL    HW1 9464   6.181   9.070   7.231  1.2278 -0.0129  1.9578
63824SOL    HW2 9465   6.317   9.014   7.199  0.3842 -1.0225 -0.0895
63825SOL     OW 9466   7.159  11.071   3.549 -0.2452  0.1646 -0.1594
63825SOL    HW1 9467   7.163  11.157   3.507  1.9001 -0.6712 -1.8952
63825SOL    HW2 9468   7.099  11.020   3.494  0.9899 -0.3225 -1.1405
63826SOL     OW 9469   8.316   3.755  10.552  0.5643  0.6524 -0.0784
63826SOL    HW1 9470   8.351   3.772  10.465  0.7270  1.6149  0.1626
63826SOL    HW2 9471   8.228   3.794  10.551  0.4758  0.4579  0.1098
63827SOL     OW 9472   7.098  11.444   7.060 -0.2116  0.3833  0.0148
63827SOL    HW1 9473   7.159  11.482   6.997  0.1727  0.3861  0.3801
63827SOL    HW2 9474   7.012  11.474   7.032 -0.0665  0.2187 -0.6246
63828SOL     OW 9475   0.190   1.250   1.692  0.3468 -0.0861  0.2286
63828SOL    HW1 9476   0.102   1.212   1.688  0.2108  0.0782  1.4090
63828SOL    HW2 9477   0.220   1.230   1.781  1.8874 -0.9883 -0.4660
63829SOL     OW 9478  12.521   1.274   2.448 -0.0340 -0.3942 -0.3451
63829SOL    HW1 9479  12.504   1.362   2.480 -0.6339 -0.5647 -0.1711
63829SOL    HW2 9480  12.613   1.275   2.421  0.4129 -0.1714  1.1084
63830SOL     OW 9481   3.570   4.051   3.265  0.1942 -0.2182  0.8285
63830SOL    HW1 9482   3.554   4.109   3.191  1.7666  0.0978  0.6891
63830SOL    HW2 9483   3.619   4.105   3.328  2.6276 -1.6014  0.2557
63831SOL     OW 9484   0.047   5.591  10.538 -0.3255 -0.7676  0.5180
63831SOL    HW1 9485   0.122   5.614  10.483 -0.8373 -1.8100 -0.6875
63831SOL    HW2 9486  -0.008   5.668  10.537  0.7188  0.0116  1.4169
63832SOL     OW 9487   0.784  10.610  12.103 -0.0161  0.1750 -0.2478
63832SOL    HW1 9488   0.705  10.578  12.146  0.0692 -2.1261 -1.6703
63832SOL    HW2 9489   0.847  10.621  12.175 -0.2789 -2.2947  0.4424
63833SOL     OW 9490  10.625   8.385   0.402  0.5547 -0.0929 -0.7256
63833SOL    HW1 9491  10.663   8.417   0.484  0.3611 -1.5278 -0.0337
63833SOL    HW2 9492  10.640   8.455   0.339  0.4396  1.1756  0.6057
63834SOL     OW 9493   6.672  12.995  13.154 -0.4943 -0.6703  0.2541
63834SOL    HW1 9494   6.591  12.989  13.205  0.4907  0.1723  2.0092
63834SOL    HW2 9495   6.741  12.972  13.216  0.7175 -0.0858 -0.8384
63835SOL     OW 9496   6.299   9.238   9.132  0.1879 -0.0328 -0.3002
63835SOL    HW1 9497   6.299   9.142   9.141 -2.0349  0.0140  0.8233
63835SOL    HW2 9498   6.354   9.268   9.204 -1.0826 -0.4290  0.8828
63836SOL     OW 9499   6.829   1.878  11.486 -0.0957 -0.1089 -0.3576
63836SOL    HW1 9500   6.871   1.870  11.400 -1.0859  0.4235 -0.9044
63836SOL    HW2 9501   6.773   1.955  11.478  0.0360  0.1383  0.8779
63837SOL     OW 9502  13.626  11.246   5.762 -0.5034  0.3742  0.1126
63837SOL    HW1 9503  13.714  11.283   5.769 -0.9858  1.7530 -0.6504
63837SOL    HW2 9504  13.601  11.224   5.851  1.1532 -1.3642  0.1818
63838SOL     OW 9505   6.715   5.643  13.068 -0.3382 -0.0881 -0.2641
63838SOL    HW1 9506   6.752   5.617  12.984  0.5909  2.2446 -0.6519
63838SOL    HW2 9507   6.773   5.713  13.100 -1.5240  0.1325  1.5847
63839SOL     OW 9508   6.074   3.306   0.591 -0.2395  0.5115  0.6487
63839SOL    HW1 9509   6.168   3.315   0.608 -0.2589  2.8170 -0.1002
63839SOL    HW2 9510   6.037   3.389   0.621 -2.0299 -0.2600  0.6823
63840SOL     OW 9511   1.524   8.305   0.008 -0.8068 -0.5682 -0.6556
63840SOL    HW1 9512   1.448   8.343   0.053 -0.7413 -0.6289 -0.4956
63840SOL    HW2 9513   1.525   8.349  -0.077  1.0464  2.1103  0.6014
63841SOL     OW 9514  10.420   2.936  11.432  0.0566  0.6475  0.8619
63841SOL    HW1 9515  10.339   2.963  11.474 -1.0722 -0.8434 -0.2644
63841SOL    HW2 9516  10.432   2.845  11.458  1.0987  0.6849  0.5899
63842SOL     OW 9517   5.219   0.010  12.176 -0.1331 -0.5966  0.1469
63842SOL    HW1 9518   5.217  -0.077  12.138  1.2393 -0.9920  0.9143
63842SOL    HW2 9519   5.309   0.041  12.162 -0.6967  0.8734 -0.4799
63843SOL     OW 9520   7.574  10.175   0.979  0.2572  0.1985  0.2924
63843SOL    HW1 9521   7.667  10.155   0.966  0.9342  2.5087  1.1024
63843SOL    HW2 9522   7.563  10.262   0.942 -1.3986  0.3254  0.9882
63844SOL     OW 9523   3.011  13.679   2.835  0.0302 -0.3835 -0.2362
63844SOL    HW1 9524   2.968  13.623   2.770  0.4051 -1.1921  0.1983
63844SOL    HW2 9525   3.000  13.768   2.801  1.0169 -0.8574 -1.8684
63845SOL     OW 9526  13.947  10.808  13.761 -0.4001  0.2090 -0.1681
63845SOL    HW1 9527  13.917  10.828  13.850 -0.6768  0.6538 -0.3558
63845SOL    HW2 9528  13.893  10.864  13.705 -0.9286 -0.8063 -0.6877
63846SOL     OW 9529   0.776   0.741   2.717 -0.1765  0.7220 -0.0175
63846SOL    HW1 9530   0.771   0.832   2.748  0.5106  0.3118  1.3777
63846SOL    HW2 9531   0.716   0.693   2.774 -0.4836  0.2733 -0.7052
63847SOL     OW 9532  12.734   3.528   5.122  0.0304 -0.0460 -0.3114
63847SOL    HW1 9533  12.772   3.453   5.168  1.0323  0.9135  0.4508
63847SOL    HW2 9534  12.640   3.523   5.143 -0.1160 -1.6826 -1.1546
63848SOL     OW 9535   7.802   8.846  10.411  0.6589  0.1555  0.0976
63848SOL    HW1 9536   7.757   8.926  10.436  2.6238  2.2388 -2.4550
63848SOL    HW2 9537   7.895   8.871  10.406  1.4867 -2.5660  0.1293
63849SOL     OW 9538  11.589  10.850   4.906 -0.9099  0.2559  0.3515
63849SOL    HW1 9539  11.514  10.792   4.913 -0.9112  0.3008  0.7358
63849SOL    HW2 9540  11.597  10.867   4.812  0.1812 -1.7778  0.0209
63850SOL     OW 9541   0.839   0.804  14.008 -0.1498 -0.6870 -0.0268
63850SOL    HW1 9542   0.847   0.880  13.951 -0.0024  0.7359  1.8162
63850SOL    HW2 9543   0.749   0.806  14.039 -0.8025 -2.5324 -1.5678
63851SOL     OW 9544   2.106   9.195  10.340  0.0918 -0.2628 -0.6395
63851SOL    HW1 9545   2.017   9.226  10.359 -0.4511 -1.9142 -0.2943
63851SOL    HW2 9546   2.161   9.238  10.406 -1.0074 -1.8730  1.4747
63852SOL     OW 9547   3.306  11.417   3.404 -0.4636 -0.2254  0.4919
63852SOL    HW1 9548   3.342  11.336   3.369  1.8429  0.1992  1.6250
63852SOL    HW2 9549   3.284  11.396   3.495 -2.3472 -0.2241  0.0665
63853SOL     OW 9550   3.230   3.972  12.108 -0.5835  0.1059 -0.5229
63853SOL    HW1 9551   3.298   3.906  12.119 -0.4746  0.3560  0.4602
63853SOL    HW2 9552   3.158   3.941  12.163 -0.7500  0.5178 -0.5077
63854SOL     OW 9553   5.157   3.182   6.395 -0.3398  0.5367 -0.3442
63854SOL    HW1 9554   5.156   3.114   6.327 -0.1285  0.3948 -0.2069
63854SOL    HW2 9555   5.218   3.149   6.461 -0.1777  0.8959 -0.3107
63855SOL     OW 9556  10.232  10.586   8.825  0.5695  0.4039  0.5758
63855SOL    HW1 9557  10.327  10.578   8.838  0.8319 -0.2534 -1.3840
63855SOL    HW2 9558  10.194  10.525   8.888  1.5985 -0.8893  0.0218
63856SOL     OW 9559   8.830   8.261  10.161 -0.4485  0.3365  0.9333
63856SOL    HW1 9560   8.871   8.269  10.247 -0.6982  0.3606  1.0491
63856SOL    HW2 9561   8.808   8.351  10.137  0.7660  0.4770  0.2866
63857SOL     OW 9562  14.115  10.323   6.209  0.9481 -0.4838  0.5564
63857SOL    HW1 9563  14.166  10.245   6.186  1.2309 -0.1439  0.0132
63857SOL    HW2 9564  14.025  10.298   6.192  0.8394 -1.3364  2.2126
63858SOL     OW 9565   2.372   9.785  14.106  0.9398 -0.6596 -0.1991
63858SOL    HW1 9566   2.435   9.735  14.053  0.7918  0.1817 -1.1889
63858SOL    HW2 9567   2.368   9.871  14.064  0.9594  0.0969  1.3045
63859SOL     OW 9568   0.660   0.251   7.153 -0.0235 -0.2065 -0.3491
63859SOL    HW1 9569   0.731   0.274   7.093 -0.5955  0.9883 -0.6019
63859SOL    HW2 9570   0.596   0.321   7.142 -0.1677  0.0303  1.6534
63860SOL     OW 9571   1.192  12.569   8.831  0.2887  0.2080  0.2473
63860SOL    HW1 9572   1.209  12.579   8.925  0.3804 -1.4848  0.4394
63860SOL    HW2 9573   1.237  12.488   8.808 -0.0851  0.3917 -1.1831
63861SOL     OW 9574   4.626   2.805   9.251  0.1175 -0.0345  0.1788
63861SOL    HW1 9575   4.535   2.819   9.226 -0.0031 -1.5076 -0.3400
63861SOL    HW2 9576   4.625   2.799   9.347 -0.6686 -1.8803  0.1008
63862SOL     OW 9577   1.279  13.746   0.200  0.4035 -0.7620 -0.1457
63862SOL    HW1 9578   1.268  13.779   0.111  0.0420 -1.0835 -0.2210
63862SOL    HW2 9579   1.374  13.739   0.211  0.5425 -4.7032 -2.0231
63863SOL     OW 9580   3.222   8.053  11.305 -0.6136 -0.4435  0.2389
63863SOL    HW1 9581   3.166   7.979  11.330 -0.1541 -0.6834  0.5618
63863SOL    HW2 9582   3.311   8.022  11.321 -0.3387 -0.3487 -1.0190
63864SOL     OW 9583   4.803  12.079   8.922 -0.7669 -0.1168  0.6610
63864SOL    HW1 9584   4.718  12.120   8.908 -1.1039 -0.1816  2.3249
63864SOL    HW2 9585   4.782  11.992   8.957 -0.0392  0.2811  2.1729
63865SOL     OW 9586   0.048   2.185   3.331 -0.1428 -0.5568  0.1763
63865SOL    HW1 9587   0.062   2.152   3.419 -0.3283 -0.6569  0.1677
63865SOL    HW2 9588   0.051   2.281   3.340 -0.0001 -0.5697  0.2634
63866SOL     OW 9589  12.988   1.256  13.261 -0.2342  0.3551  0.0804
63866SOL    HW1 9590  12.997   1.312  13.183  1.8075 -0.4551 -0.3522
63866SOL    HW2 9591  13.040   1.300  13.328  0.0349 -0.1814  0.2290
63867SOL     OW 9592   7.453  12.774  13.388  0.2223 -0.3377  0.0031
63867SOL    HW1 9593   7.444  12.818  13.472  1.3756 -0.5696  0.2641
63867SOL    HW2 9594   7.488  12.841  13.329 -1.3277  0.0532 -0.5290
63868SOL     OW 9595  13.729  11.432  12.886  0.9115 -0.2305  0.4801
63868SOL    HW1 9596  13.805  11.439  12.828  0.6958  1.9021  0.3775
63868SOL    HW2 9597  13.654  11.422  12.827  0.8441  0.4216  0.4518
63869SOL     OW 9598   3.421  12.206   1.611  0.2832  0.4991 -0.1773
63869SOL    HW1 9599   3.459  12.168   1.691 -0.3249 -0.1493 -0.1785
63869SOL    HW2 9600   3.418  12.133   1.550 -1.2614  0.4234 -0.0608
63870SOL     OW 9601   3.638   6.828   2.485 -0.2779  0.3466 -0.2743
63870SOL    HW1 9602   3.665   6.786   2.404 -1.2014 -2.7151  0.8834
63870SOL    HW2 9603   3.716   6.826   2.540 -0.3106  0.1819 -0.2338
63871SOL     OW 9604   3.192   1.452   1.693  0.4816 -0.1045  0.3424
63871SOL    HW1 9605   3.148   1.503   1.762  0.2676  0.6314 -0.3162
63871SOL    HW2 9606   3.283   1.481   1.696  0.4946 -0.1488  0.3819
63872SOL     OW 9607  12.915  13.288   1.840  0.0012 -0.0778  0.4784
63872SOL    HW1 9608  12.827  13.289   1.877  0.3844  1.9710  1.5091
63872SOL    HW2 9609  12.974  13.282   1.915  0.7693  2.4626  0.1781
63873SOL     OW 9610   1.522   0.019  10.019 -0.0425  0.5218  0.0630
63873SOL    HW1 9611   1.602  -0.014  10.059  0.0744 -0.3675 -0.8622
63873SOL    HW2 9612   1.484  -0.057   9.974 -1.3570  0.9480  0.3972
63874SOL     OW 9613   0.458  13.696   4.665  0.5544  0.2476  0.0365
63874SOL    HW1 9614   0.428  13.720   4.577  1.4059 -0.2129 -0.3993
63874SOL    HW2 9615   0.415  13.759   4.723  1.2335  1.5954 -0.8619
63875SOL     OW 9616  11.735  11.761  11.291  0.1064 -0.4238 -0.0511
63875SOL    HW1 9617  11.748  11.672  11.261 -0.3560 -1.4734  2.6024
63875SOL    HW2 9618  11.640  11.771  11.300  0.1844  0.1347  0.2387
63876SOL     OW 9619  12.780   2.495   1.045  0.1110  0.1604  0.0343
63876SOL    HW1 9620  12.781   2.572   1.102 -0.3384  0.3770 -0.2335
63876SOL    HW2 9621  12.777   2.420   1.104 -1.4080  0.3978  0.3236
63877SOL     OW 9622  12.430   5.541  13.931 -0.6283 -0.5995 -0.3747
63877SOL    HW1 9623  12.448   5.635  13.943 -0.7516 -0.5471 -0.6009
63877SOL    HW2 9624  12.452   5.502  14.016 -2.1112 -0.1375  0.2576
63878SOL     OW 9625   2.416   9.959   5.173 -0.1757  0.2201 -0.3325
63878SOL    HW1 9626   2.434  10.037   5.120  1.8449 -0.5088 -0.8007
63878SOL    HW2 9627   2.324   9.940   5.156 -1.0416  3.0503  0.5616
63879SOL     OW 9628   1.556   9.559   6.331 -0.0132 -0.0919  0.2471
63879SOL    HW1 9629   1.462   9.580   6.330 -0.3006 -0.8510  3.2887
63879SOL    HW2 9630   1.561   9.469   6.299 -0.0123  0.5906 -1.8626
63880SOL     OW 9631   7.949   3.924  12.454 -0.4391 -0.2202 -0.4856
63880SOL    HW1 9632   7.909   3.851  12.503 -1.6368  1.2019  0.7775
63880SOL    HW2 9633   8.032   3.889  12.424 -0.6677 -1.9153  0.6550
63881SOL     OW 9634  13.530   4.039   8.133 -0.5716  0.3030 -0.3311
63881SOL    HW1 9635  13.559   3.958   8.091  1.5807 -2.2084  5.0317
63881SOL    HW2 9636  13.602   4.101   8.117  0.1313 -0.5204 -0.4582
63882SOL     OW 9637   4.741  13.777   6.259 -0.4630  0.5158 -0.2818
63882SOL    HW1 9638   4.716  13.866   6.283 -1.4951  0.3109 -0.5434
63882SOL    HW2 9639   4.761  13.783   6.165  1.2863  0.8367  0.0823
63883SOL     OW 9640   2.080   1.366   6.290  0.9110  0.0895 -0.1869
63883SOL    HW1 9641   1.990   1.359   6.259  1.1103 -0.3559 -0.6994
63883SOL    HW2 9642   2.073   1.379   6.385  0.3122 -0.0925 -0.2060
63884SOL     OW 9643   5.634   7.259   1.452  0.5224  0.1305 -0.3185
63884SOL    HW1 9644   5.601   7.179   1.412 -1.4132 -0.7450  2.6693
63884SOL    HW2 9645   5.579   7.329   1.416  0.9048 -0.1646 -1.4811
63885SOL     OW 9646   7.154   0.986   7.099  0.5187 -0.0657  0.2779
63885SOL    HW1 9647   7.064   0.968   7.071  0.2777  0.3507  0.7708
63885SOL    HW2 9648   7.182   0.905   7.141  0.3773 -0.2026  0.1130
63886SOL     OW 9649   6.008   5.243   1.624  0.3244  0.0983 -0.1229
63886SOL    HW1 9650   6.040   5.247   1.714  1.1067 -0.6468 -0.3524
63886SOL    HW2 9651   5.951   5.319   1.615 -0.3582 -0.2298  1.2302
63887SOL     OW 9652   4.159   9.943   5.464 -0.4942  0.2371  0.0570
63887SOL    HW1 9653   4.131   9.914   5.377 -0.1657  0.6881 -0.2052
63887SOL    HW2 9654   4.097   9.901   5.525 -0.0009 -1.0559 -0.2916
63888SOL     OW 9655   6.446   5.207  10.990 -0.4483  0.0420  0.3358
63888SOL    HW1 9656   6.534   5.235  10.967 -0.4339 -0.2535  0.0364
63888SOL    HW2 9657   6.441   5.219  11.085  0.3938 -1.2846  0.5730
63889SOL     OW 9658  10.663  11.276   2.392  0.3174 -0.4054 -0.0023
63889SOL    HW1 9659  10.748  11.272   2.434  0.1854  1.0836  0.4690
63889SOL    HW2 9660  10.625  11.359   2.421 -0.3963 -0.0085 -1.8863
63890SOL     OW 9661  10.607   5.300   3.281  0.3224  0.3134  0.6142
63890SOL    HW1 9662  10.670   5.255   3.336  1.7191  1.0379 -0.3257
63890SOL    HW2 9663  10.590   5.383   3.326  0.5542  0.3963  0.5517
63891SOL     OW 9664   2.749   1.979   4.761  0.8999 -0.0502  0.4170
63891SOL    HW1 9665   2.736   1.890   4.794 -1.4274 -0.7435 -2.0551
63891SOL    HW2 9666   2.817   1.970   4.695 -1.1304 -0.6244 -1.7176
63892SOL     OW 9667  12.074   3.926  11.984  0.0589  0.1374 -0.0637
63892SOL    HW1 9668  12.019   3.966  11.917  1.0231 -0.2435 -1.1072
63892SOL    HW2 9669  12.100   3.999  12.040 -0.9584  0.4183  0.0771
63893SOL     OW 9670  13.767  13.636   6.027  0.7169 -0.4984 -0.3397
63893SOL    HW1 9671  13.724  13.664   6.107  0.6642  0.4416 -0.6923
63893SOL    HW2 9672  13.858  13.622   6.052  1.1300  1.6284 -0.4950
63894SOL     OW 9673  13.227  11.923   9.459 -0.3520 -0.2937 -0.1879
63894SOL    HW1 9674  13.144  11.898   9.499 -0.0738 -0.5806  0.2153
63894SOL    HW2 9675  13.261  11.993   9.515 -1.3543  1.3913 -1.5675
63895SOL     OW 9676  12.314   4.269  10.170 -0.1562  0.1385  0.0153
63895SOL    HW1 9677  12.276   4.354  10.193 -1.5073 -0.5869  0.5628
63895SOL    HW2 9678  12.317   4.222  10.253 -0.3025 -0.6847 -0.4430
63896SOL     OW 9679   5.351  10.161  12.534  0.1826 -0.5513 -0.1022
63896SOL    HW1 9680   5.335  10.116  12.452  1.5476 -0.1948 -0.5854
63896SOL    HW2 9681   5.264  10.182  12.567 -0.3870  0.0286 -1.8586
63897SOL     OW 9682   4.957   7.046  13.193 -0.8198 -0.1096  0.0306
63897SOL    HW1 9683   4.966   6.979  13.125 -0.0500  0.5901 -0.5706
63897SOL    HW2 9684   5.030   7.030  13.252 -1.6957 -0.9493  0.9313
63898SOL     OW 9685  12.621   0.575  13.181  0.2554 -0.4864 -0.3014
63898SOL    HW1 9686  12.552   0.640  13.168 -2.3433 -2.8968  0.4614
63898SOL    HW2 9687  12.675   0.611  13.251 -0.0186  1.5633 -1.0536
63899SOL     OW 9688  10.127   9.578   3.108 -0.2847 -0.3144 -0.1023
63899SOL    HW1 9689  10.180   9.499   3.122  1.8059  0.8317 -1.1178
63899SOL    HW2 9690  10.151   9.636   3.181 -1.0792 -0.2409  0.1065
63900SOL     OW 9691   5.072   9.188   5.629  0.0468 -0.3295  0.2892
63900SOL    HW1 9692   5.057   9.278   5.658 -1.3949 -0.4642  0.0795
63900SOL    HW2 9693   5.006   9.137   5.676  0.2448 -1.1273 -0.2804
63901SOL     OW 9694  11.418   5.633   1.068  0.0726 -0.2895 -0.3835
63901SOL    HW1 9695  11.378   5.673   1.146  1.6543  1.5454 -0.4539
63901SOL    HW2 9696  11.471   5.562   1.103 -1.6517 -1.4950 -0.1143
63902SOL     OW 9697   9.064   8.854   0.733 -0.1020  0.2955  0.3342
63902SOL    HW1 9698   9.006   8.864   0.657  0.5316  1.1123 -0.0573
63902SOL    HW2 9699   9.065   8.760   0.751 -0.4238  0.1221 -0.5279
63903SOL     OW 9700  11.351   0.335   1.911 -0.1548 -0.0088  0.0318
63903SOL    HW1 9701  11.261   0.342   1.942 -1.4828 -0.0873 -3.4039
63903SOL    HW2 9702  11.385   0.257   1.955 -2.2517 -0.8435  0.2871
63904SOL     OW 9703   2.015   9.066  12.571  0.6600  0.1502  0.1687
63904SOL    HW1 9704   1.977   8.978  12.576  0.8345  0.1462  1.7283
63904SOL    HW2 9705   1.988   9.109  12.652  1.1555  1.3054 -0.2635
63905SOL     OW 9706   0.153  13.455   1.299  0.1033  0.0964 -0.0389
63905SOL    HW1 9707   0.098  13.416   1.231  1.1936 -0.5676 -0.5765
63905SOL    HW2 9708   0.121  13.418   1.380 -1.2970  0.9902 -0.1526
63906SOL     OW 9709  11.722  11.941  10.391  0.3454 -0.3195 -0.5205
63906SOL    HW1 9710  11.731  12.013  10.328 -0.2248  0.5539  0.3539
63906SOL    HW2 9711  11.745  11.981  10.476 -2.3962 -0.4623  0.3740
63907SOL     OW 9712  11.257  13.527  11.930 -0.1864 -0.5520  0.0545
63907SOL    HW1 9713  11.178  13.581  11.931 -0.9439 -1.6411  0.5522
63907SOL    HW2 9714  11.285  13.524  12.021  0.0698 -0.6920 -0.0276
63908SOL     OW 9715  12.218   2.018  11.926 -0.4526 -0.0334  0.2599
63908SOL    HW1 9716  12.224   1.984  11.837 -0.1461  0.8231 -0.0624
63908SOL    HW2 9717  12.147   2.083  11.922 -0.5612 -0.1214  0.6838
63909SOL     OW 9718   9.472   4.355   4.177 -0.0169  0.4249  0.6842
63909SOL    HW1 9719   9.484   4.394   4.090  1.4888  0.0707  0.7026
63909SOL    HW2 9720   9.497   4.425   4.238  1.0312 -0.0049  0.7609
63910SOL     OW 9721   3.103   5.249   5.147  0.0586 -0.3150 -0.3126
63910SOL    HW1 9722   3.105   5.331   5.196  1.5394 -0.5845  0.1313
63910SOL    HW2 9723   3.012   5.219   5.154  0.0105  0.1419  1.4661
63911SOL     OW 9724   8.032  13.123   8.204  0.0091 -1.0129 -0.5532
63911SOL    HW1 9725   8.004  13.215   8.211  2.6280 -0.1559 -0.1209
63911SOL    HW2 9726   7.994  13.081   8.280  2.5095  0.9148  2.0045
63912SOL     OW 9727   5.082  11.315   3.557 -0.1763 -0.2106 -0.2146
63912SOL    HW1 9728   5.071  11.246   3.491 -1.9468 -1.0508  0.8766
63912SOL    HW2 9729   5.175  11.336   3.554  0.8555 -3.9048  0.6078
63913SOL     OW 9730  12.578   8.331   2.189 -0.0279 -0.2442  0.7691
63913SOL    HW1 9731  12.616   8.415   2.162  1.6492 -0.7090  1.4874
63913SOL    HW2 9732  12.579   8.335   2.285 -0.7182 -0.7678  0.8007
63914SOL     OW 9733  12.783   7.586   3.848 -0.4010 -0.1269 -0.5523
63914SOL    HW1 9734  12.833   7.665   3.826  0.2001 -0.2298  0.4101
63914SOL    HW2 9735  12.846   7.529   3.892 -1.0238 -0.8317 -0.5623
63915SOL     OW 9736   6.654   4.966   0.336 -0.6439 -0.2681 -0.7378
63915SOL    HW1 9737   6.656   5.039   0.274 -0.6642  0.3941  0.0218
63915SOL    HW2 9738   6.641   4.888   0.282  0.1759  0.2000 -1.6332
63916SOL     OW 9739   9.266  11.188   7.763  0.0253 -0.1124  0.5124
63916SOL    HW1 9740   9.327  11.260   7.784 -1.7032  1.7488 -0.4790
63916SOL    HW2 9741   9.289  11.163   7.673 -0.1815  0.0818  0.4043
63917SOL     OW 9742  13.802  10.768   6.827 -0.1512  0.1758  0.4770
63917SOL    HW1 9743  13.813  10.693   6.768  0.2854  1.4506 -1.1398
63917SOL    HW2 9744  13.891  10.791   6.853 -0.3591 -0.5443  1.8968
63918SOL     OW 9745   2.280   5.106   7.832 -0.7605  0.6033  0.1242
63918SOL    HW1 9746   2.264   5.135   7.742 -0.6723  0.2189 -0.0180
63918SOL    HW2 9747   2.199   5.126   7.879 -2.0035 -1.9099 -0.7299
63919SOL     OW 9748  11.967   1.700   5.443 -0.7735  0.5352  0.3656
63919SOL    HW1 9749  11.899   1.685   5.377  1.3682 -1.8862 -1.5413
63919SOL    HW2 9750  11.920   1.702   5.526 -3.2999  0.4073 -0.9605
63920SOL     OW 9751   4.894   7.768   1.789 -0.2868 -0.3746 -0.5852
63920SOL    HW1 9752   4.815   7.746   1.837 -1.7043 -0.2452 -2.7260
63920SOL    HW2 9753   4.962   7.713   1.829 -1.2211  0.0894  1.8268
63921SOL     OW 9754  13.099   3.999  13.149 -0.0701 -0.3169 -0.6454
63921SOL    HW1 9755  13.095   3.922  13.092  2.3755 -1.2907  0.3730
63921SOL    HW2 9756  13.065   3.968  13.233  0.2629 -0.1080 -0.4315
63922SOL     OW 9757   4.044   8.427   0.803 -0.2627  0.1700 -0.0792
63922SOL    HW1 9758   4.116   8.482   0.834 -1.2724  1.2254  0.4949
63922SOL    HW2 9759   3.967   8.482   0.812 -1.1936 -1.0471 -0.3570
63923SOL     OW 9760  12.484  12.370  11.436  0.5096 -0.5074  0.0335
63923SOL    HW1 9761  12.465  12.298  11.497  0.8209 -0.0450  0.6881
63923SOL    HW2 9762  12.439  12.345  11.355 -0.6994 -0.6994  0.7309
63924SOL     OW 9763   5.423   9.404   6.646  0.4328  0.1493 -0.4612
63924SOL    HW1 9764   5.500   9.429   6.594  0.6053  0.0973 -0.2323
63924SOL    HW2 9765   5.361   9.369   6.582 -0.7542  3.2552 -1.1676
63925SOL     OW 9766  13.548  13.597   5.861 -0.0548  0.0731  0.7043
63925SOL    HW1 9767  13.557  13.517   5.809 -1.1363 -1.1183  2.2641
63925SOL    HW2 9768  13.633  13.607   5.905 -0.2101 -0.7618  1.2169
63926SOL     OW 9769   7.080   1.952   1.394 -0.2205  0.3262  0.1592
63926SOL    HW1 9770   7.041   1.906   1.320  0.1058  1.2731 -0.6252
63926SOL    HW2 9771   7.084   1.887   1.464 -2.0369 -0.1382 -0.1294
63927SOL     OW 9772   5.097   2.995   1.466  0.3243  0.1667 -0.1216
63927SOL    HW1 9773   5.123   2.927   1.404 -1.0926 -0.7327  0.2126
63927SOL    HW2 9774   5.048   3.058   1.413 -1.8516 -1.1612  0.1845
63928SOL     OW 9775   7.182  12.863   1.273 -0.7895  0.0812  0.0592
63928SOL    HW1 9776   7.167  12.786   1.328 -0.5260 -0.4537 -0.6015
63928SOL    HW2 9777   7.220  12.927   1.333  1.6522 -1.2589  0.0870
63929SOL     OW 9778   1.035   0.326   4.988  0.0707 -0.4924  0.1241
63929SOL    HW1 9779   1.045   0.390   5.059 -0.2202 -0.3623  0.0458
63929SOL    HW2 9780   1.119   0.328   4.942 -0.0739  0.1137 -0.1164
63930SOL     OW 9781  13.280   3.391  10.072  0.3144  0.1916 -0.2293
63930SOL    HW1 9782  13.285   3.334   9.994  1.3176  0.6019 -0.4697
63930SOL    HW2 9783  13.270   3.330  10.145  0.1395 -0.2314 -0.5976
63931SOL     OW 9784   7.983   3.780   8.107  0.4191 -0.6622 -0.4532
63931SOL    HW1 9785   7.972   3.685   8.100 -0.1469 -0.6565  0.2117
63931SOL    HW2 9786   8.037   3.792   8.186 -0.5168 -0.3898  0.1592
63932SOL     OW 9787  12.133   0.322   1.625 -0.4139 -0.2712  0.0754
63932SOL    HW1 9788  12.041   0.336   1.602 -0.3284 -1.1092 -0.8160
63932SOL    HW2 9789  12.152   0.391   1.689 -1.2146  0.8877 -0.8838
63933SOL     OW 9790   9.624   6.910   4.781  0.1896 -0.1456  0.0986
63933SOL    HW1 9791   9.716   6.904   4.808  0.6335  1.3400 -0.9645
63933SOL    HW2 9792   9.625   6.893   4.687  0.1113  4.1810 -0.9048
63934SOL     OW 9793  12.777   4.550   4.562  0.2598 -1.1468 -0.3191
63934SOL    HW1 9794  12.819   4.616   4.506 -2.2599  0.9499  0.0284
63934SOL    HW2 9795  12.826   4.554   4.644  0.7171 -0.3815 -0.6137
63935SOL     OW 9796  12.864  12.533   8.130 -0.2412  0.6147 -0.3885
63935SOL    HW1 9797  12.835  12.581   8.207 -1.9276 -1.1831  0.1812
63935SOL    HW2 9798  12.793  12.542   8.067  0.2394  0.4094 -0.9762
63936SOL     OW 9799   9.301   9.829   5.018 -0.1165  0.3048 -0.1779
63936SOL    HW1 9800   9.237   9.790   4.958 -0.0209  1.0263 -0.7692
63936SOL    HW2 9801   9.287   9.923   5.009  0.5176  0.4447  0.2642
63937SOL     OW 9802   7.752  11.792  12.613 -0.1165  0.2668  0.2024
63937SOL    HW1 9803   7.705  11.873  12.631 -1.1934 -0.0567 -1.0203
63937SOL    HW2 9804   7.705  11.752  12.540 -1.1354 -2.6805  2.2424
63938SOL     OW 9805   0.539   4.165   5.113 -0.1743  0.9494 -0.4650
63938SOL    HW1 9806   0.455   4.203   5.140  1.3749  3.1047  1.7314
63938SOL    HW2 9807   0.534   4.074   5.142 -1.7162  1.0442 -0.3451
63939SOL     OW 9808  13.393   1.051   6.054 -0.2235 -0.2820 -0.5980
63939SOL    HW1 9809  13.334   1.110   6.100 -1.3769 -0.0684 -2.2434
63939SOL    HW2 9810  13.445   1.010   6.123 -1.9490 -0.1134  0.8900
63940SOL     OW 9811  12.772   9.896  12.017 -0.5962  0.1971  0.1238
63940SOL    HW1 9812  12.723   9.883  11.935 -1.0166 -0.3721  0.4545
63940SOL    HW2 9813  12.719   9.851  12.083  0.3038 -0.3210  0.5152
63941SOL     OW 9814   5.357   4.349  10.385 -0.1834 -0.2324  0.0315
63941SOL    HW1 9815   5.449   4.324  10.392 -0.2010 -0.3099 -0.0183
63941SOL    HW2 9816   5.344   4.411  10.456 -0.3735 -1.0458  0.7157
63942SOL     OW 9817   8.159  13.374   8.453 -0.4221 -0.7062  0.6939
63942SOL    HW1 9818   8.197  13.444   8.505 -0.4511 -0.2424  0.1033
63942SOL    HW2 9819   8.065  13.383   8.465 -0.4783 -0.0215 -0.1457
63943SOL     OW 9820   8.912   9.199   7.713 -0.0115 -0.1579 -0.2803
63943SOL    HW1 9821   8.969   9.123   7.711 -1.3801 -1.2534  0.4270
63943SOL    HW2 9822   8.903   9.220   7.806  0.9377  1.3604 -0.4987
63944SOL     OW 9823  14.056   6.494  11.773 -0.8494  0.3974  0.2810
63944SOL    HW1 9824  13.981   6.438  11.791 -1.6680  1.6282  0.8414
63944SOL    HW2 9825  14.126   6.434  11.747 -1.9295 -0.7983  0.0550
63945SOL     OW 9826  12.544   8.331   2.468  0.3474  0.0509  0.3694
63945SOL    HW1 9827  12.534   8.261   2.533  2.8351 -0.2304  0.5265
63945SOL    HW2 9828  12.609   8.390   2.505  0.1923  1.0763 -0.9078
63946SOL     OW 9829   8.040   8.753   8.299  0.5975 -0.2326 -0.5621
63946SOL    HW1 9830   8.133   8.742   8.282  0.6052 -0.5831 -0.2981
63946SOL    HW2 9831   7.998   8.681   8.252  0.7020 -1.8987  1.6957
63947SOL     OW 9832   2.881  10.169  12.400 -0.1488 -0.6483 -0.4913
63947SOL    HW1 9833   2.956  10.146  12.345  0.6745 -0.4843  0.5279
63947SOL    HW2 9834   2.806  10.131  12.355  0.6835 -1.8474 -0.9218
63948SOL     OW 9835  14.044  13.472  10.941 -0.0540  0.5376 -0.3977
63948SOL    HW1 9836  13.963  13.423  10.957 -0.8782  1.1386 -2.3796
63948SOL    HW2 9837  14.044  13.541  11.008  0.5411 -1.3603  1.6883
63949SOL     OW 9838   6.810   8.707   4.604  0.1043 -0.2824  0.1596
63949SOL    HW1 9839   6.776   8.763   4.674 -0.4977 -1.7724  1.1202
63949SOL    HW2 9840   6.904   8.725   4.603 -0.0959  0.8586  0.3213
63950SOL     OW 9841   8.759   2.126  11.908  0.3826  0.1483 -0.3671
63950SOL    HW1 9842   8.790   2.097  11.822 -0.1712 -0.2900 -0.4211
63950SOL    HW2 9843   8.744   2.220  11.897  1.3181  0.2995 -0.4453
63951SOL     OW 9844   7.681   1.474   7.968 -0.2902 -0.0933 -0.6602
63951SOL    HW1 9845   7.741   1.474   7.893 -0.3735  1.8707 -0.7636
63951SOL    HW2 9846   7.737   1.480   8.045 -0.2671 -0.8387 -0.6072
63952SOL     OW 9847   3.025  13.787  11.104  0.8480 -0.7169  0.0808
63952SOL    HW1 9848   2.971  13.709  11.091 -2.4601  1.1812  1.2135
63952SOL    HW2 9849   3.010  13.812  11.195  1.7006  1.2793 -0.2760
63953SOL     OW 9850   6.386   8.784  12.233  0.0053 -0.4852 -0.4209
63953SOL    HW1 9851   6.395   8.874  12.265  0.9224 -0.3568 -1.0172
63953SOL    HW2 9852   6.429   8.730  12.300 -2.1842 -0.7141  0.9148
63954SOL     OW 9853   0.790   6.415   0.887 -0.5060  0.0191  0.0349
63954SOL    HW1 9854   0.745   6.346   0.935 -0.2504  0.1329  0.4390
63954SOL    HW2 9855   0.849   6.454   0.951 -1.3058  1.2294  0.0766
63955SOL     OW 9856  12.249   0.035   9.301  0.3911  0.4968 -0.0191
63955SOL    HW1 9857  12.193   0.112   9.295 -1.6407 -1.0269 -3.5216
63955SOL    HW2 9858  12.310   0.044   9.228  1.0880 -0.5366  0.4092
63956SOL     OW 9859  11.890  12.825  12.194 -0.2369 -0.5848 -0.2375
63956SOL    HW1 9860  11.835  12.881  12.249  0.3217  0.9032 -1.1548
63956SOL    HW2 9861  11.860  12.842  12.105 -0.2405 -1.9849 -0.5351
63957SOL     OW 9862  13.221  10.455   9.083 -0.6704  0.1027  0.0563
63957SOL    HW1 9863  13.131  10.430   9.104 -0.5621 -1.0940 -0.7888
63957SOL    HW2 9864  13.214  10.545   9.052 -1.6721 -0.1767 -0.5769
63958SOL     OW 9865   4.363   9.814  13.739 -0.1242  0.3784  0.4529
63958SOL    HW1 9866   4.409   9.746  13.788  0.2123  0.5722  0.4109
63958SOL    HW2 9867   4.404   9.896  13.768 -0.7111  0.5860  0.7081
63959SOL     OW 9868  13.223   0.038  12.677  0.1436 -0.2763  0.5814
63959SOL    HW1 9869  13.208  -0.013  12.598 -0.2602  0.0260  0.4576
63959SOL    HW2 9870  13.146   0.023  12.731 -0.2511  0.6577  0.2920
63960SOL     OW 9871  10.925   8.206   7.942 -0.1826 -0.2639 -0.0177
63960SOL    HW1 9872  10.892   8.285   7.899 -1.6221 -0.6376  0.3189
63960SOL    HW2 9873  11.018   8.204   7.921 -0.3983  0.7534 -1.2143
63961SOL     OW 9874   9.718   7.248   0.004 -0.3592  0.5514 -0.4565
63961SOL    HW1 9875   9.680   7.161   0.006 -1.6980  1.1075 -0.4120
63961SOL    HW2 9876   9.721   7.275   0.096 -1.7422  1.2603 -0.5862
63962SOL     OW 9877   7.413   7.770  12.875 -0.5287 -0.6850  0.0437
63962SOL    HW1 9878   7.376   7.685  12.897  0.1220 -1.0490 -0.2310
63962SOL    HW2 9879   7.481   7.750  12.810 -0.2891  0.0287  0.0680
63963SOL     OW 9880  12.109   4.407   1.715  1.0524 -0.1525  0.0020
63963SOL    HW1 9881  12.135   4.319   1.685 -0.4959 -1.0271  1.1155
63963SOL    HW2 9882  12.036   4.431   1.659  0.5493 -0.1948  0.6338
63964SOL     OW 9883   4.375   6.044   3.234  0.2592 -0.3199 -0.6439
63964SOL    HW1 9884   4.290   6.003   3.220 -0.1353  0.1512  0.2942
63964SOL    HW2 9885   4.380   6.113   3.168 -0.0690 -0.3712 -0.7207
63965SOL     OW 9886   2.758  12.230   0.958 -0.1458 -0.2715  0.0182
63965SOL    HW1 9887   2.759  12.221   1.054  0.7220 -1.4474 -0.0715
63965SOL    HW2 9888   2.820  12.301   0.940 -1.4184  0.9856  0.3737
63966SOL     OW 9889   6.098   2.379  13.005 -0.1540  0.2756  0.3519
63966SOL    HW1 9890   6.096   2.326  13.084 -0.1057 -1.3177 -0.6636
63966SOL    HW2 9891   6.057   2.324  12.938  1.5064  0.7851 -1.1734
63967SOL     OW 9892   0.654  11.538   8.294  0.2526  0.4738 -0.0992
63967SOL    HW1 9893   0.619  11.609   8.240  1.0129  1.7929  1.1001
63967SOL    HW2 9894   0.612  11.550   8.379 -1.5012 -2.0201 -0.4935
63968SOL     OW 9895   3.803  12.470   2.678  1.1508 -0.4891 -0.3282
63968SOL    HW1 9896   3.839  12.428   2.755  0.7814 -0.6953 -0.2678
63968SOL    HW2 9897   3.714  12.436   2.671  1.3229 -0.8085 -1.0919
63969SOL     OW 9898   9.905   4.668   9.846 -0.9302 -0.4891  0.2971
63969SOL    HW1 9899   9.962   4.744   9.855  3.6229 -3.4900  0.2034
63969SOL    HW2 9900   9.884   4.644   9.937 -0.6469 -0.2589  0.4269
63970SOL     OW 9901  10.580   0.181   4.543  0.0236 -0.4264 -0.0490
63970SOL    HW1 9902  10.670   0.210   4.549 -0.5867  1.3534  1.5622
63970SOL    HW2 9903  10.543   0.199   4.630 -1.8898 -1.0430 -0.6782
63971SOL     OW 9904   1.955  13.116  13.498  0.6488 -0.1346  0.1612
63971SOL    HW1 9905   1.980  13.029  13.466 -0.6825 -0.5303  0.1346
63971SOL    HW2 9906   1.863  13.125  13.473  0.6254  1.0731  0.6332
63972SOL     OW 9907   7.491  12.914   8.573 -0.1266 -0.5611 -0.3276
63972SOL    HW1 9908   7.538  12.964   8.640  1.2491 -1.6168 -0.4588
63972SOL    HW2 9909   7.398  12.928   8.593  0.1922  1.7272 -0.1524
63973SOL     OW 9910   2.894   5.078   8.559 -0.1758 -0.0453 -0.3566
63973SOL    HW1 9911   2.836   5.006   8.585  0.0913 -0.2413 -0.3061
63973SOL    HW2 9912   2.838   5.156   8.564  0.4877  0.3695  3.3596
63974SOL     OW 9913   3.752  10.317   1.951 -0.0046  0.0935 -0.0688
63974SOL    HW1 9914   3.665  10.332   1.989  0.4163  0.9717  0.6023
63974SOL    HW2 9915   3.783  10.237   1.992 -0.2835  0.0691  0.0992
63975SOL     OW 9916   4.629   7.080   0.135 -0.7154  0.7011  0.5983
63975SOL    HW1 9917   4.586   7.031   0.205 -0.2212 -0.3015  0.2130
63975SOL    HW2 9918   4.715   7.102   0.171  0.3362 -1.5591 -0.3662
63976SOL     OW 9919   1.262  10.663  14.124 -0.2858 -0.1881 -0.2297
63976SOL    HW1 9920   1.245  10.700  14.211 -0.6170 -1.3502  0.2178
63976SOL    HW2 9921   1.232  10.731  14.063 -0.5050  0.4410  0.5523
63977SOL     OW 9922   1.479   9.604   4.655  0.1368 -0.2495  0.1084
63977SOL    HW1 9923   1.510   9.647   4.576 -0.8340  1.0308  0.3872
63977SOL    HW2 9924   1.462   9.675   4.717  0.1614 -1.1670  1.2090
63978SOL     OW 9925  11.864   2.356   0.414  0.0841 -0.0224 -0.4506
63978SOL    HW1 9926  11.911   2.287   0.460  1.9654  1.8707  0.6097
63978SOL    HW2 9927  11.772   2.333   0.424  0.6004 -1.6597  0.9787
63979SOL     OW 9928   3.772   9.325   0.045  0.4347 -0.1219  0.4319
63979SOL    HW1 9929   3.733   9.390   0.104  1.4395  0.3224  0.6297
63979SOL    HW2 9930   3.701   9.262   0.029 -0.3425  0.6291  0.8097
63980SOL     OW 9931   2.950   9.974  12.657 -0.5469  0.2089  0.0778
63980SOL    HW1 9932   2.927  10.048  12.601 -1.2954  0.5554  0.8277
63980SOL    HW2 9933   3.045   9.969  12.654 -0.4424  1.6250  0.5607
63981SOL     OW 9934  12.546   5.937   1.415  0.0865  0.0085  0.3229
63981SOL    HW1 9935  12.503   5.962   1.333 -1.4095 -0.1722  1.0176
63981SOL    HW2 9936  12.601   6.012   1.437 -2.4140  1.7658  1.0833
63982SOL     OW 9937   2.236  12.603   9.575 -0.0659 -0.1504  0.1730
63982SOL    HW1 9938   2.321  12.575   9.609 -0.3301 -0.1391  0.8529
63982SOL    HW2 9939   2.232  12.697   9.593 -0.5296 -0.2870  0.8235
63983SOL     OW 9940  11.552   3.333   5.241 -0.7287 -0.1201 -0.3694
63983SOL    HW1 9941  11.545   3.428   5.237  0.7480  0.0391  0.3195
63983SOL    HW2 9942  11.520   3.311   5.329  3.3818  0.2895  1.4513
63984SOL     OW 9943   1.509  13.990   5.074 -0.1769  0.1011 -0.1237
63984SOL    HW1 9944   1.477  14.014   4.987 -0.6930 -1.1222 -0.2956
63984SOL    HW2 9945   1.560  13.910   5.059  0.4558  0.3633  0.5801
63985SOL     OW 9946   1.557   9.325   9.166 -0.3539  0.0189  0.2618
63985SOL    HW1 9947   1.556   9.355   9.257 -0.1471  0.1249  0.2314
63985SOL    HW2 9948   1.605   9.242   9.168  1.6438  1.0828 -0.0474
63986SOL     OW 9949  11.399   8.220   5.767 -0.3203 -0.0150  0.5526
63986SOL    HW1 9950  11.310   8.192   5.744 -0.4695  1.2946 -0.6478
63986SOL    HW2 9951  11.386   8.288   5.833 -0.1103 -0.7888  1.4141
63987SOL     OW 9952   3.756  11.385   5.544  0.0227 -0.0602  0.2317
63987SOL    HW1 9953   3.683  11.432   5.583  0.7906  0.1836  1.4590
63987SOL    HW2 9954   3.716  11.311   5.498 -1.1429  1.4136 -1.2003
63988SOL     OW 9955   6.881   3.967   4.924 -0.2813 -0.2283 -0.2876
63988SOL    HW1 9956   6.864   4.038   4.862  1.7366  1.1065  0.5763
63988SOL    HW2 9957   6.960   3.925   4.891  0.0430 -0.3701  0.6530
63989SOL     OW 9958   7.299   9.314  11.238  0.0827 -0.1021 -0.0725
63989SOL    HW1 9959   7.245   9.313  11.317 -0.3713  0.7427 -0.3594
63989SOL    HW2 9960   7.279   9.231  11.194  0.5335 -0.6977  0.8143
63990SOL     OW 9961   0.009  11.409   4.060 -0.7951 -0.1169 -0.4473
63990SOL    HW1 9962  -0.061  11.465   4.092  0.7043  3.0325 -2.2589
63990SOL    HW2 9963   0.010  11.423   3.965  1.4351 -1.0575 -0.6272
63991SOL     OW 9964   7.937   7.021  13.944  0.1944 -0.2079  0.3743
63991SOL    HW1 9965   7.999   6.961  13.903  1.3675  0.5095  1.0618
63991SOL    HW2 9966   7.957   7.106  13.905 -0.3946  0.0240  0.5685
63992SOL     OW 9967   8.605   4.074   7.371  0.0593  0.1871 -0.0538
63992SOL    HW1 9968   8.540   4.144   7.378 -1.3192 -1.0455  0.0031
63992SOL    HW2 9969   8.624   4.069   7.277  1.8259  2.0343  0.1414
63993SOL     OW 9970   1.629   4.171   3.601  0.1189  0.0919  0.6695
63993SOL    HW1 9971   1.603   4.222   3.524  0.0371  0.1253  0.7192
63993SOL    HW2 9972   1.722   4.189   3.612 -0.0099  0.5998  0.9636
63994SOL     OW 9973   6.663   6.812   5.698  0.1284  0.4084 -0.1629
63994SOL    HW1 9974   6.625   6.775   5.618 -0.1528  0.8540 -0.2391
63994SOL    HW2 9975   6.707   6.891   5.669 -0.1211  0.6663  0.1471
63995SOL     OW 9976   8.263   5.735   0.887  0.2531 -0.0631 -0.3709
63995SOL    HW1 9977   8.274   5.736   0.792  1.3079 -0.7254 -0.2606
63995SOL    HW2 9978   8.260   5.828   0.911 -2.2932  0.1924 -1.2607
63996SOL     OW 9979  10.500   9.904   7.247  0.2579 -0.0843  0.4796
63996SOL    HW1 9980  10.499   9.851   7.167 -0.5911 -0.6088  0.8332
63996SOL    HW2 9981  10.558   9.977   7.225 -0.7863  0.3565 -0.9879
63997SOL     OW 9982   7.950   3.453   4.293 -0.0972  0.1320  0.1174
63997SOL    HW1 9983   8.027   3.416   4.336 -1.4691 -3.4255 -0.1425
63997SOL    HW2 9984   7.983   3.490   4.211  1.5730  0.6484  0.9850
63998SOL     OW 9985   8.660   1.847   2.601  0.2560  0.1933 -0.1051
63998SOL    HW1 9986   8.712   1.904   2.545 -0.5443  0.6209 -0.4338
63998SOL    HW2 9987   8.717   1.826   2.675  0.6786  1.1274 -0.1592
63999SOL     OW 9988   4.641   9.140  12.270  0.4543 -0.4730  0.1657
63999SOL    HW1 9989   4.630   9.080  12.344 -0.1955 -0.4616  0.0839
63999SOL    HW2 9990   4.554   9.145  12.230  0.6563  0.0100 -0.2243
64000SOL     OW 9991   6.415  13.120   6.749 -0.0315 -0.0289 -0.0793
64000SOL    HW1 9992   6.447  13.147   6.835 -1.7247  0.0982  0.5572
64000SOL    HW2 9993   6.414  13.024   6.752 -1.6463 -0.0284  0.7133
64001SOL     OW 9994   9.962  13.495   2.230 -0.5152 -0.5382 -0.2881
64001SOL    HW1 9995  10.042  13.471   2.183 -0.5125  1.4248 -1.3802
64001SOL    HW2 9996   9.994  13.541   2.308 -0.5617  0.1589 -0.6744
64002SOL     OW 9997  13.110   7.643   3.535  0.0458 -0.2488 -0.0349
64002SOL    HW1 9998  13.053   7.567   3.547 -0.0626 -0.4390 -1.5455
64002SOL    HW2 9999  13.078   7.685   3.455  2.4926 -0.8344 -1.4282
64003SOL     OW10000  12.280   8.422   7.536 -0.3211 -0.7027  0.0167
64003SOL    HW110001  12.248   8.335   7.558  0.0243 -0.5130  1.3885
64003SOL    HW210002  12.312   8.414   7.446  0.6369 -2.2615  0.4629
64004SOL     OW10003  12.071   5.183   2.158  0.4344  0.1980 -0.1111
64004SOL    HW110004  12.133   5.177   2.231  2.3412 -0.4643 -1.6828
64004SOL    HW210005  12.045   5.275   2.156 -1.6862 -0.2039  2.8982
64005SOL     OW10006   3.703   6.705   8.749  0.3066  0.5130 -0.1174
64005SOL    HW110007   3.654   6.782   8.720  1.2153  0.2046 -2.7823
64005SOL    HW210008   3.781   6.741   8.791 -0.7816  0.9848  1.6257
64006SOL     OW10009  13.395   3.584  10.860  0.7283 -0.7910 -0.1566
64006SOL    HW110010  13.349   3.541  10.932 -0.9234  1.0796 -0.0063
64006SOL    HW210011  13.347   3.556  10.782 -0.1128  0.4080 -0.0923
64007SOL     OW10012   1.656   2.757   9.399 -0.0866 -0.0488 -0.6120
64007SOL    HW110013   1.632   2.790   9.486 -0.7193 -0.0018 -0.8028
64007SOL    HW210014   1.742   2.797   9.382  0.2706 -0.4410  0.1927
64008SOL     OW10015  11.689   9.593  10.606 -0.2584  0.6449  0.1905
64008SOL    HW110016  11.661   9.547  10.527  0.5236  1.2155 -0.4350
64008SOL    HW210017  11.623   9.660  10.620  0.0758  1.1208 -0.4997
64009SOL     OW10018  11.081   3.080   3.787  0.5142  0.0328  0.0344
64009SOL    HW110019  11.050   3.089   3.877 -1.0496  1.3772 -0.5796
64009SOL    HW210020  11.103   2.987   3.778  2.1042  0.1346  2.1810
64010SOL     OW10021   2.683   2.760   0.145 -0.6536  0.2033 -0.1681
64010SOL    HW110022   2.641   2.785   0.227 -0.9262 -0.8399  0.0177
64010SOL    HW210023   2.775   2.748   0.168 -0.4820  1.1233 -0.2931
64011SOL     OW10024  12.335   8.777   5.458  0.0631  0.2865 -0.3078
64011SOL    HW110025  12.413   8.831   5.465  1.1956 -1.3507  0.3213
64011SOL    HW210026  12.323   8.763   5.364 -1.1477  2.7686 -0.6192
64012SOL     OW10027   9.009  13.772   0.558 -0.0292 -0.3868 -0.1009
64012SOL    HW110028   9.102  13.776   0.580 -0.3921  1.0362  1.4573
64012SOL    HW210029   8.966  13.819   0.630 -1.8573 -0.1392 -1.2850
64013SOL     OW10030  12.017   5.625   8.527  0.5745 -0.0746  0.1110
64013SOL    HW110031  11.952   5.581   8.582 -0.6660 -0.0370 -1.2943
64013SOL    HW210032  12.073   5.554   8.495  0.4399 -0.2632  0.2914
64014SOL     OW10033   5.595   5.016  10.454 -0.0980  0.6521 -0.3081
64014SOL    HW110034   5.684   5.052  10.442  1.0572 -1.5723  0.9733
64014SOL    HW210035   5.559   5.067  10.527 -0.1743  2.0192 -1.2653
64015SOL     OW10036   1.962  12.553  13.245 -0.0155 -0.5289 -0.0143
64015SOL    HW110037   1.998  12.481  13.297 -0.7533 -0.1807  1.0096
64015SOL    HW210038   2.038  12.601  13.215  0.4360 -0.7858  0.6917
64016SOL     OW10039  10.040   8.465   1.128  0.2389  0.3414 -0.5989
64016SOL    HW110040  10.066   8.546   1.171  0.7729  0.4793 -1.1623
64016SOL    HW210041  10.058   8.397   1.192  1.1994  0.5220 -0.6540
64017SOL     OW10042   1.464   7.854  11.570  0.2997 -0.3180  0.5710
64017SOL    HW110043   1.503   7.794  11.507  1.2520  1.3140 -0.4907
64017SOL    HW210044   1.397   7.901  11.520  0.0656 -0.0151  1.1641
64018SOL     OW10045  13.717  10.625  11.616  0.5468 -0.1004 -0.1630
64018SOL    HW110046  13.789  10.668  11.570 -0.7187  0.9165 -1.2583
64018SOL    HW210047  13.667  10.581  11.547  0.1497 -0.8742  0.5943
64019SOL     OW10048   5.902   6.700   1.696  0.7300 -0.2050 -0.3320
64019SOL    HW110049   5.909   6.610   1.727  0.3797 -0.1475 -0.0760
64019SOL    HW210050   5.916   6.694   1.602 -1.5728 -0.8669 -0.7089
64020SOL     OW10051  13.070   5.143  13.467  0.4901 -0.1463 -0.1187
64020SOL    HW110052  13.093   5.185  13.384  0.9777 -0.9410 -0.4012
64020SOL    HW210053  13.103   5.201  13.534 -0.3991  0.7871 -0.4623
64021SOL     OW10054  12.185   0.915  11.832  0.0806 -0.3536 -0.5356
64021SOL    HW110055  12.209   0.825  11.851 -1.3289 -1.1021 -2.1294
64021SOL    HW210056  12.264   0.965  11.851  1.0517 -1.9709 -0.1369
64022SOL     OW10057   2.702  13.047   3.081 -0.0596  0.1705  0.2163
64022SOL    HW110058   2.750  13.038   3.163 -1.6298 -2.0851  0.9932
64022SOL    HW210059   2.766  13.026   3.013  0.6521 -0.3846  1.0326
64023SOL     OW10060   8.716   9.530   4.051  0.0433  0.2127 -0.4470
64023SOL    HW110061   8.691   9.622   4.046  0.6234  0.4497  0.7951
64023SOL    HW210062   8.734   9.514   4.143  1.1363 -0.8272 -0.8052
64024SOL     OW10063   9.628   0.885  10.193 -0.5512  0.4199  0.2338
64024SOL    HW110064   9.652   0.808  10.141  0.2915  0.9455 -0.1835
64024SOL    HW210065   9.692   0.952  10.168 -1.1005  1.1776  0.7895
64025SOL     OW10066   8.899   6.030  11.082  0.3324  0.9606 -0.3151
64025SOL    HW110067   8.984   5.987  11.068  0.7333  1.6909 -0.1948
64025SOL    HW210068   8.834   5.967  11.052  0.8787  0.0467  0.3875
64026SOL     OW10069   0.200   6.261  13.101  0.2418  0.1463  0.0145
64026SOL    HW110070   0.257   6.332  13.131 -1.1772  1.5335 -0.4076
64026SOL    HW210071   0.118   6.275  13.148 -0.3432 -0.7055 -0.7231
64027SOL     OW10072   1.666   7.698   2.334 -0.2655 -0.2955 -0.3260
64027SOL    HW110073   1.626   7.612   2.345 -2.0713  0.4249 -0.7468
64027SOL    HW210074   1.731   7.686   2.265 -1.9900 -0.9386 -1.9423
64028SOL     OW10075   6.695   1.422   0.220  0.5871  0.1676 -0.1283
64028SOL    HW110076   6.668   1.396   0.132 -2.0239  0.1272  0.6068
64028SOL    HW210077   6.620   1.402   0.275  2.2766 -0.1270  2.2076
64029SOL     OW10078   0.109  14.088   7.082  0.0646  0.0781  0.1142
64029SOL    HW110079   0.153  14.035   7.016  0.1174 -0.6503  0.7189
64029SOL    HW210080   0.178  14.108   7.146 -0.0838  0.4138  0.1713
64030SOL     OW10081  11.109   9.907   9.997 -0.1791 -0.0636 -0.1389
64030SOL    HW110082  11.058   9.848   9.942  1.2632 -0.5647 -0.9950
64030SOL    HW210083  11.197   9.868   9.999  0.1658  0.7206  1.3522
64031SOL     OW10084   8.370  11.156   7.723  0.2832  0.2392  0.2142
64031SOL    HW110085   8.372  11.240   7.770  0.7121  0.7215 -0.6505
64031SOL    HW210086   8.460  11.142   7.694  0.2342 -0.5732  0.4217
64032SOL     OW10087   6.989   4.277  11.976 -0.3781  0.2874 -0.4624
64032SOL    HW110088   7.021   4.195  12.014 -0.8406  0.4875  0.3535
64032SOL    HW210089   6.908   4.296  12.023 -0.7179  0.7756 -1.2320
64033SOL     OW10090  10.694   5.776   7.337 -0.0883  0.7330 -0.0848
64033SOL    HW110091  10.773   5.722   7.346  0.2328  1.2532  0.2249
64033SOL    HW210092  10.672   5.800   7.426 -1.7740 -1.0632  0.0604
64034SOL     OW10093   5.293   9.700   1.246  0.3679  0.2200  0.3291
64034SOL    HW110094   5.306   9.738   1.333  0.7580 -0.3478  0.5293
64034SOL    HW210095   5.209   9.734   1.217  0.4215  0.7345  0.7598
64035SOL     OW10096   5.993  11.056   9.308 -0.0890 -0.5299  0.4662
64035SOL    HW110097   6.062  11.054   9.375  0.6277 -0.3258 -0.2510
64035SOL    HW210098   5.999  10.971   9.265 -0.3061 -0.5166  0.4068
64036SOL     OW10099  13.092   5.049   0.883 -0.2081  0.0837  0.7926
64036SOL    HW110100  13.110   5.094   0.966 -0.6743 -0.2162  1.0645
64036SOL    HW210101  13.058   4.963   0.910  0.7966 -0.4991  0.2843
64037SOL     OW10102   6.380   7.306   9.313  0.6919 -0.1140 -0.2591
64037SOL    HW110103   6.354   7.386   9.358  0.2931 -0.4546  0.1321
64037SOL    HW210104   6.411   7.336   9.228 -3.1701  0.2372 -1.7692
64038SOL     OW10105   7.961   8.464   4.148 -0.7333  0.0570 -0.1710
64038SOL    HW110106   7.950   8.553   4.116 -0.2797  0.0189 -0.4366
64038SOL    HW210107   8.046   8.464   4.192 -1.5954  0.2741  1.6140
64039SOL     OW10108   4.805   2.244   4.114  0.6212 -0.6738 -0.4365
64039SOL    HW110109   4.820   2.200   4.198  0.1943 -1.5123 -0.7880
64039SOL    HW210110   4.710   2.252   4.108  0.6886  3.0440  0.9915
64040SOL     OW10111   0.745  11.787   3.986 -0.2586  0.2682  0.5775
64040SOL    HW110112   0.747  11.708   3.933 -1.6678  0.6532 -0.0708
64040SOL    HW210113   0.737  11.755   4.076  0.7277 -0.3430  0.4681
64041SOL     OW10114   9.155   4.780  11.514 -0.5645 -0.6819  0.1568
64041SOL    HW110115   9.226   4.837  11.546  0.7405 -1.9042 -0.4365
64041SOL    HW210116   9.135   4.814  11.427  0.2808 -1.1805 -0.2379
64042SOL     OW10117   4.128   7.268   6.656 -0.5837  0.6460 -0.5364
64042SOL    HW110118   4.071   7.191   6.666 -0.2702  0.4749 -0.0431
64042SOL    HW210119   4.141   7.276   6.561  0.7800 -0.9476 -0.5251
64043SOL     OW10120  11.970   4.577  10.626  0.1878 -0.4463 -0.0393
64043SOL    HW110121  12.004   4.548  10.711  2.1712 -0.9371 -0.9648
64043SOL    HW210122  11.879   4.546  10.626 -0.1794  0.3821  2.2620
64044SOL     OW10123   1.858  10.529   5.425  0.8447  0.6326  0.0867
64044SOL    HW110124   1.806  10.550   5.502 -0.2096 -0.5038 -0.2780
64044SOL    HW210125   1.923  10.599   5.420  1.3480  0.4258  2.3584
64045SOL     OW10126   0.883  12.505   5.917 -0.0264 -0.0012  0.0374
64045SOL    HW110127   0.911  12.487   5.827 -0.3155  0.0940 -0.0724
64045SOL    HW210128   0.795  12.541   5.908 -0.3240 -0.6207  0.4039
64046SOL     OW10129   5.012   4.431   0.915 -0.4502 -0.3087 -0.0099
64046SOL    HW110130   4.957   4.509   0.907  0.8280  1.0017  2.7542
64046SOL    HW210131   4.970   4.378   0.983  0.2874 -0.5657  0.2550
64047SOL     OW10132  11.981   3.894   4.932 -0.2411 -0.0161 -0.1008
64047SOL    HW110133  12.029   3.922   5.010  0.3823  1.5992 -1.0078
64047SOL    HW210134  12.005   3.802   4.921 -0.0692 -0.1788  1.3992
64048SOL     OW10135   6.196   0.845   6.418 -0.1538 -0.6297  0.3448
64048SOL    HW110136   6.172   0.770   6.472 -1.2090 -1.0290 -0.6471
64048SOL    HW210137   6.114   0.891   6.402  0.0813 -0.6866 -1.1622
64049SOL     OW10138   5.940   3.836   0.144  0.5415  0.6085 -0.1261
64049SOL    HW110139   6.032   3.823   0.122  0.2647  0.4466 -1.2229
64049SOL    HW210140   5.894   3.764   0.100  0.0831 -0.6250  2.1394
64050SOL     OW10141   8.170   9.810  12.421 -0.3698 -0.0319 -0.6618
64050SOL    HW110142   8.266   9.807  12.412 -0.3817 -1.5966 -0.5633
64050SOL    HW210143   8.140   9.856  12.343  0.4622  0.4842 -0.6898
64051SOL     OW10144   6.277  10.134   2.021  0.4070  0.7211  0.2989
64051SOL    HW110145   6.300  10.158   1.931  1.3227 -0.1107  0.3030
64051SOL    HW210146   6.316  10.203   2.075  0.5781  0.7656  0.1191
64052SOL     OW10147   0.137   0.071   4.709 -0.3222 -0.1252 -0.2328
64052SOL    HW110148   0.155   0.122   4.630 -1.1155  0.7104  0.1210
64052SOL    HW210149   0.069   0.119   4.754 -1.4857 -1.7707 -0.1398
64053SOL     OW10150   1.416  13.288  12.945  0.2016  1.0564  0.3299
64053SOL    HW110151   1.386  13.255  12.860 -2.0356  1.9171  0.7276
64053SOL    HW210152   1.465  13.367  12.923  0.5196  0.7133 -0.2262
64054SOL     OW10153  12.283  10.314   3.542  0.2445 -0.5982  0.1654
64054SOL    HW110154  12.203  10.317   3.490  1.5120 -1.6554 -1.9964
64054SOL    HW210155  12.330  10.237   3.510  2.1461 -0.0145  1.3454
64055SOL     OW10156   1.644   7.848   9.998 -0.1126  0.4587  0.3530
64055SOL    HW110157   1.599   7.779   9.948 -0.4596  0.3442  0.8187
64055SOL    HW210158   1.737   7.837   9.976 -0.1615 -0.1867  0.4524
64056SOL     OW10159   0.763   6.339  13.080  0.3816 -0.4397 -0.3987
64056SOL    HW110160   0.692   6.276  13.068  0.9353 -1.3480  0.8572
64056SOL    HW210161   0.818   6.331  13.002 -0.8282  0.2272 -1.3554
64057SOL     OW10162   1.958   5.053  12.040 -0.0228  0.4094  0.2459
64057SOL    HW110163   1.952   5.109  12.118 -0.7752 -1.9633  2.0185
64057SOL    HW210164   1.951   4.964  12.074  1.5009 -0.8387 -2.3800
64058SOL     OW10165   8.656   6.371   6.487 -0.5340  0.2609  0.1228
64058SOL    HW110166   8.749   6.389   6.474 -0.8211  2.4550  0.6987
64058SOL    HW210167   8.631   6.321   6.410  1.4183 -1.7448  0.6849
64059SOL     OW10168   8.550  12.461  12.949  0.1092  0.5695  0.2911
64059SOL    HW110169   8.519  12.393  13.009  0.6632  0.3675  0.3560
64059SOL    HW210170   8.638  12.481  12.980  0.0256  1.1738  0.1447
64060SOL     OW10171   1.641   1.786   6.806 -0.6151 -0.1570 -0.1122
64060SOL    HW110172   1.571   1.812   6.746  0.2222  0.8902 -0.6645
64060SOL    HW210173   1.633   1.690   6.811 -2.1445 -0.0504 -0.0599
64061SOL     OW10174   4.804  13.286  13.731  0.3421  0.7228  0.1866
64061SOL    HW110175   4.883  13.246  13.694 -0.0730  0.2670 -0.2248
64061SOL    HW210176   4.764  13.216  13.784  0.1134  0.8872  0.2326
64062SOL     OW10177  11.788   0.241   7.538  0.1533  0.0129 -0.1923
64062SOL    HW110178  11.719   0.180   7.512  0.8535 -0.5143 -0.8488
64062SOL    HW210179  11.773   0.319   7.485  0.2789 -0.2404 -0.5999
64063SOL     OW10180   2.982   9.407   6.414  0.3719  0.0119 -0.3610
64063SOL    HW110181   2.910   9.460   6.449  1.5341  2.1746 -1.0140
64063SOL    HW210182   3.029   9.467   6.356  0.4368 -2.4307 -3.0912
64064SOL     OW10183  10.819   0.404  10.442  0.6721 -0.7275 -0.0701
64064SOL    HW110184  10.729   0.421  10.470  0.7821 -0.3920  0.0785
64064SOL    HW210185  10.864   0.378  10.522  0.6010 -1.3428 -0.2232
64065SOL     OW10186   2.582   1.209   7.946  0.4401  0.1242 -0.3768
64065SOL    HW110187   2.541   1.139   7.997  0.5043  0.4116  0.0735
64065SOL    HW210188   2.673   1.211   7.977  0.2715  0.8559  0.1040
64066SOL     OW10189   4.503  11.038  12.683 -0.1161  0.4889  0.0168
64066SOL    HW110190   4.446  10.976  12.728  1.1098  0.6370  1.9005
64066SOL    HW210191   4.443  11.099  12.640 -1.3826 -1.9341 -1.9944
64067SOL     OW10192  14.126   8.372   0.662 -0.3977  0.2903  0.1641
64067SOL    HW110193  14.104   8.370   0.755  0.4362 -1.3175  0.3611
64067SOL    HW210194  14.058   8.318   0.621  0.0782 -0.2382  0.0565
64068SOL     OW10195   6.713  10.299   3.006  0.2099  0.3990 -0.4971
64068SOL    HW110196   6.742  10.254   3.085  1.0314  0.5520 -0.6939
64068SOL    HW210197   6.773  10.267   2.938 -0.7342 -0.0429 -1.1490
64069SOL     OW10198  13.789   2.707   7.163 -0.9456  0.2178 -0.2180
64069SOL    HW110199  13.708   2.662   7.143 -0.5829  0.0807 -1.4322
64069SOL    HW210200  13.856   2.661   7.112  0.3346 -1.1442  2.4541
64070SOL     OW10201   6.967   0.501   2.048 -0.2968  0.2901 -0.5025
64070SOL    HW110202   7.043   0.501   2.106  0.3207 -0.7277 -1.2631
64070SOL    HW210203   6.998   0.541   1.967 -1.0040  1.2344 -0.3172
64071SOL     OW10204  12.795   7.417   5.452  0.2133 -0.5963 -0.1993
64071SOL    HW110205  12.850   7.343   5.476 -0.0481 -1.1554 -1.2787
64071SOL    HW210206  12.707   7.381   5.442  0.4348 -0.6427 -2.8467
64072SOL     OW10207   8.627   7.447   9.398  0.3366 -0.8286 -0.1530
64072SOL    HW110208   8.558   7.381   9.385  0.1751 -0.4046 -1.5703
64072SOL    HW210209   8.707   7.405   9.365  0.1580 -0.1824 -1.4405
64073SOL     OW10210   6.199   9.833   1.574  0.0666 -0.0261  0.3409
64073SOL    HW110211   6.214   9.874   1.659  1.2268 -0.7002  0.4834
64073SOL    HW210212   6.200   9.739   1.592  1.1983 -0.2057 -0.5304
64074SOL     OW10213  13.829  11.367   9.927  0.1685  0.0711 -0.2657
64074SOL    HW110214  13.918  11.377   9.962 -0.4091 -2.0446  2.1705
64074SOL    HW210215  13.811  11.273   9.934 -2.4911  0.5185  0.0141
64075SOL     OW10216  12.439   8.016   9.412 -0.1055 -0.4005  0.0714
64075SOL    HW110217  12.435   7.946   9.346  0.5508 -0.4085  0.0335
64075SOL    HW210218  12.530   8.047   9.409 -0.7520  1.5655 -1.0459
64076SOL     OW10219   3.889   8.055   5.341  0.3860 -0.1699  0.0633
64076SOL    HW110220   3.877   7.971   5.298 -0.9053 -0.1034  0.2245
64076SOL    HW210221   3.864   8.120   5.275  2.6746  0.1988 -0.5149
64077SOL     OW10222   7.217   5.748   0.254  0.1589 -0.4258  0.6371
64077SOL    HW110223   7.145   5.688   0.235 -0.5359 -0.6664  3.5126
64077SOL    HW210224   7.296   5.697   0.238 -0.0230  0.4339 -4.5118
64078SOL     OW10225   7.636   0.960  12.547 -0.0577  0.0259  0.4893
64078SOL    HW110226   7.597   0.879  12.579  0.6151 -0.3707  0.3205
64078SOL    HW210227   7.565   1.004  12.501 -0.7388  0.0812  1.5552
64079SOL     OW10228  10.180   7.960   5.325 -0.3951 -0.7620 -0.0406
64079SOL    HW110229  10.119   7.888   5.342 -1.7819  0.2345 -0.5685
64079SOL    HW210230  10.254   7.919   5.280 -0.0230 -2.2234  1.8035
64080SOL     OW10231   2.202  12.074  12.008  0.1464 -0.2844  0.0420
64080SOL    HW110232   2.230  12.069  12.100 -0.4782  1.0389  0.3309
64080SOL    HW210233   2.275  12.038  11.959  0.3685 -1.3182  1.0676
64081SOL     OW10234   2.232   3.814   7.323  0.1656 -0.4063 -0.2411
64081SOL    HW110235   2.219   3.725   7.290  1.4128 -0.9298  0.6023
64081SOL    HW210236   2.168   3.823   7.393  1.0972 -1.2443  0.7435
64082SOL     OW10237   9.668   3.635   1.347  0.1243 -0.3187  0.2982
64082SOL    HW110238   9.708   3.677   1.271  0.9351  0.1649  0.9744
64082SOL    HW210239   9.623   3.705   1.394 -1.0289 -0.7526 -0.1270
64083SOL     OW10240   7.976  11.641   3.383 -0.6908 -0.2265  0.4337
64083SOL    HW110241   8.041  11.571   3.382  0.2065  0.5656  1.0593
64083SOL    HW210242   8.016  11.712   3.333 -0.8181  0.4688  1.2866
64084SOL     OW10243  10.334  12.357   6.819 -0.1299 -0.1576 -0.1347
64084SOL    HW110244  10.400  12.318   6.877  0.6945 -0.6654 -1.3685
64084SOL    HW210245  10.314  12.442   6.860 -1.6854 -1.6283  2.4001
64085SOL     OW10246   7.344  13.462   4.465  0.1482 -0.1888 -0.3168
64085SOL    HW110247   7.328  13.408   4.543 -1.6516  0.3486 -0.2813
64085SOL    HW210248   7.319  13.406   4.392 -0.6485  0.2005 -0.3456
64086SOL     OW10249   6.554   1.606  13.837  0.1711  0.4374  0.2838
64086SOL    HW110250   6.624   1.546  13.813 -1.4847 -1.3403 -0.3665
64086SOL    HW210251   6.512   1.565  13.913 -1.1605  0.5879 -0.3391
64087SOL     OW10252   7.825   2.553  11.921 -0.0691  0.0898 -0.2691
64087SOL    HW110253   7.833   2.539  12.015  1.1134 -0.3962 -0.4245
64087SOL    HW210254   7.915   2.567  11.891 -0.4726  0.6700 -1.2606
64088SOL     OW10255   9.347  12.376  11.149  0.5026  0.4749 -0.3671
64088SOL    HW110256   9.299  12.439  11.202  2.6110  1.5507  0.4115
64088SOL    HW210257   9.365  12.422  11.067 -0.1936 -0.0990 -0.8531
64089SOL     OW10258   3.831  13.449   9.159 -0.8118 -0.2010 -0.0153
64089SOL    HW110259   3.915  13.417   9.193 -0.5076  1.5793  1.0089
64089SOL    HW210260   3.769  13.432   9.230 -1.1793 -0.8532 -0.4863
64090SOL     OW10261  14.051   0.577  12.075 -0.0168 -0.1653 -0.0571
64090SOL    HW110262  14.077   0.667  12.057 -1.7008  0.2689 -0.5455
64090SOL    HW210263  14.064   0.531  11.992  1.3446 -0.5182  0.3368
64091SOL     OW10264   0.942   3.414  13.866 -0.6043  0.2206  0.2667
64091SOL    HW110265   0.999   3.488  13.888 -0.2278 -0.5003  1.8674
64091SOL    HW210266   0.944   3.409  13.771  0.7922  1.1713  0.2240
64092SOL     OW10267   0.041   3.325   9.438 -0.4449  0.5432  0.1695
64092SOL    HW110268   0.061   3.416   9.462 -0.2832  0.5280  0.0894
64092SOL    HW210269  -0.054   3.318   9.452 -0.5437  0.8635 -0.2900
64093SOL     OW10270   4.135   1.697   9.787 -0.2076 -0.4473 -0.5333
64093SOL    HW110271   4.148   1.607   9.817 -0.6460 -1.0514 -2.0504
64093SOL    HW210272   4.073   1.690   9.714 -0.3407  1.1031 -0.6185
64094SOL     OW10273  11.969   7.813   3.712  0.0334  0.1039  0.7293
64094SOL    HW110274  11.906   7.829   3.642 -0.0449 -0.5085  0.6575
64094SOL    HW210275  12.055   7.816   3.668  0.1278  1.6452  0.9446
64095SOL     OW10276   1.976   3.858   7.464  0.1923 -0.3399 -0.1979
64095SOL    HW110277   1.967   3.944   7.505 -0.8294 -0.2721 -0.5148
64095SOL    HW210278   1.945   3.871   7.374 -1.5941 -1.3683  0.2075
64096SOL     OW10279   4.997  13.898   9.870 -0.3840  0.4828 -0.1546
64096SOL    HW110280   4.999  13.803   9.880  0.1429  0.6028  1.1598
64096SOL    HW210281   4.951  13.913   9.788 -0.0643 -0.9226 -0.6241
64097SOL     OW10282   5.047   4.853   1.620  0.6894  0.3198  0.2590
64097SOL    HW110283   5.096   4.787   1.669 -1.7652 -2.2928 -0.5375
64097SOL    HW210284   4.962   4.858   1.664  0.6283  2.6979  0.0194
64098SOL     OW10285   8.680  10.992   6.091 -0.0368 -0.2738 -0.3044
64098SOL    HW110286   8.722  11.038   6.164 -0.5891 -0.8123  0.3667
64098SOL    HW210287   8.751  10.978   6.028  0.5115 -0.0499  0.2494
64099SOL     OW10288   7.816  10.702   5.136 -0.3443 -0.0738 -0.1688
64099SOL    HW110289   7.872  10.712   5.213  1.6161  0.1757 -1.5282
64099SOL    HW210290   7.728  10.693   5.170  0.5270 -0.4890  2.1110
64100SOL     OW10291   0.827  12.944   1.497  0.2167 -0.9853 -0.6507
64100SOL    HW110292   0.753  12.934   1.437  0.7052 -0.3250 -1.3895
64100SOL    HW210293   0.859  13.032   1.480  1.0888 -1.2166 -0.2412
64101SOL     OW10294   0.017   7.968  13.885 -0.2352 -0.5171  0.2790
64101SOL    HW110295   0.088   7.906  13.900 -0.9344 -2.0045 -2.0179
64101SOL    HW210296   0.058   8.043  13.842  0.3668 -0.0225  1.6648
64102SOL     OW10297   2.883  13.395   4.609  0.3024 -0.7212 -0.4974
64102SOL    HW110298   2.932  13.338   4.668  0.6158  1.0845  1.0976
64102SOL    HW210299   2.796  13.400   4.648  0.2142 -0.2999 -0.7449
64103SOL     OW10300   4.841  13.110   3.880  0.8619  0.0819 -0.4064
64103SOL    HW110301   4.890  13.104   3.961 -0.1729 -2.4629  0.1318
64103SOL    HW210302   4.805  13.022   3.867 -1.6795  1.2176 -1.9113
64104SOL     OW10303   1.395  12.914   6.454 -0.3098  0.4989 -0.5782
64104SOL    HW110304   1.336  12.838   6.453 -1.5252  1.3833 -2.7941
64104SOL    HW210305   1.479  12.879   6.483 -1.2710 -1.3197  0.1777
64105SOL     OW10306   0.160   5.418  11.972 -0.4302 -0.0317 -0.1156
64105SOL    HW110307   0.231   5.436  12.034  0.0091  1.1955 -0.9451
64105SOL    HW210308   0.098   5.365  12.022  1.2673 -1.5550  0.5089
64106SOL     OW10309   5.572   9.819   2.431 -0.0564 -0.8063 -0.4748
64106SOL    HW110310   5.520   9.757   2.483  0.1781 -1.2144 -0.7133
64106SOL    HW210311   5.627   9.763   2.376  1.0909 -0.3947  0.2090
64107SOL     OW10312   2.034   0.564   3.120 -0.0121  0.6172 -0.1195
64107SOL    HW110313   2.050   0.508   3.044 -0.4346 -1.0817  1.0135
64107SOL    HW210314   2.081   0.645   3.099  2.3716 -0.8673 -0.9307
64108SOL     OW10315   1.946  10.966  10.668  0.0537  0.2547 -0.2594
64108SOL    HW110316   1.859  10.955  10.706  0.3128  0.6090  0.4567
64108SOL    HW210317   1.931  11.011  10.586 -0.7638 -2.6595 -1.8640
64109SOL     OW10318   2.955   6.768   8.976 -0.1444 -0.3806 -0.2858
64109SOL    HW110319   2.865   6.755   9.004  0.1442 -0.9811  0.3694
64109SOL    HW210320   2.968   6.863   8.983 -0.2073 -0.4636  1.2416
64110SOL     OW10321   9.370   5.213  10.778  0.0146 -0.0459 -0.1121
64110SOL    HW110322   9.452   5.257  10.803  1.9525 -2.5488 -1.5926
64110SOL    HW210323   9.324   5.278  10.725  1.4965  1.1349 -0.0428
64111SOL     OW10324   4.676   2.973  13.480  0.2727  0.4827 -0.3128
64111SOL    HW110325   4.705   2.921  13.406 -0.4423 -0.6018  0.1435
64111SOL    HW210326   4.696   3.063  13.456  2.8071 -0.0743 -0.5590
64112SOL     OW10327   2.043   2.557  11.390 -0.3260 -0.7821  0.6820
64112SOL    HW110328   2.118   2.551  11.450 -0.0736  0.0656  0.4663
64112SOL    HW210329   2.059   2.488  11.326  0.9417  0.1615 -0.0717
64113SOL     OW10330   1.049  13.848   6.280  0.3484 -0.3143 -0.2637
64113SOL    HW110331   0.955  13.862   6.296  0.5533  2.0013 -0.7175
64113SOL    HW210332   1.073  13.775   6.337 -1.4144  0.0272  0.9800
64114SOL     OW10333   1.785  11.756   9.309  0.0968  0.0565 -0.1606
64114SOL    HW110334   1.842  11.788   9.379 -0.9375  1.0758  0.2455
64114SOL    HW210335   1.697  11.781   9.336 -0.1744  2.7195 -2.8995
64115SOL     OW10336   1.180  12.939  11.414 -0.3706  0.2560 -0.1548
64115SOL    HW110337   1.243  12.882  11.459 -0.5391  1.7849  2.1877
64115SOL    HW210338   1.234  12.997  11.360 -0.0574 -0.5962 -0.7858
64116SOL     OW10339   9.529   5.641   4.067 -0.0263  0.6172 -0.1189
64116SOL    HW110340   9.575   5.663   3.986 -0.5053  0.1273 -0.5379
64116SOL    HW210341   9.446   5.690   4.061 -0.9849 -1.0223 -0.9347
64117SOL     OW10342  11.280   7.407   7.201 -0.2441 -0.2164 -0.0832
64117SOL    HW110343  11.349   7.430   7.139 -0.9549 -0.1782 -0.8741
64117SOL    HW210344  11.226   7.343   7.155 -0.5343 -0.5145  0.6600
64118SOL     OW10345   5.329  11.275   8.512 -0.2839 -0.2626 -0.0667
64118SOL    HW110346   5.266  11.244   8.447 -0.3598  1.5873 -0.9169
64118SOL    HW210347   5.406  11.302   8.461 -0.8255  2.4532  0.3900
64119SOL     OW10348   7.757  11.104   6.202  0.0013  0.3651  0.2465
64119SOL    HW110349   7.732  11.190   6.237  0.1539 -0.1472  1.6950
64119SOL    HW210350   7.804  11.062   6.274  0.2189 -0.8065 -0.5543
64120SOL     OW10351   2.803   0.150   3.528 -0.0616  0.1094 -0.1931
64120SOL    HW110352   2.859   0.156   3.605 -2.8136 -1.2684  2.0976
64120SOL    HW210353   2.765   0.237   3.519  0.0646  0.2051  0.1906
64121SOL     OW10354   6.752   8.257  13.645  0.2654 -0.2342 -0.3447
64121SOL    HW110355   6.711   8.239  13.730  0.5181 -0.6568 -0.3116
64121SOL    HW210356   6.811   8.331  13.662 -0.1176  0.0646 -0.2871
64122SOL     OW10357  12.135  10.810   5.651 -0.0339 -0.1177 -0.2021
64122SOL    HW110358  12.224  10.844   5.660 -0.4466  1.1567 -0.6115
64122SOL    HW210359  12.125  10.793   5.557 -0.6662  1.1136 -0.3800
64123SOL     OW10360   2.043   1.943  11.254 -0.3663 -0.2208 -0.2599
64123SOL    HW110361   2.028   1.969  11.345  0.2540  0.8541 -0.4430
64123SOL    HW210362   1.967   1.890  11.232 -0.5747 -0.4239  0.8519
64124SOL     OW10363  12.574   4.025   2.756  0.1154  0.2844  0.3065
64124SOL    HW110364  12.590   3.939   2.796 -0.1235  0.7882  1.5416
64124SOL    HW210365  12.543   4.005   2.668  1.3152 -0.8579  0.1095
64125SOL     OW10366   9.974   4.038   2.480 -0.7044  0.4613  0.3792
64125SOL    HW110367  10.015   3.959   2.445  0.2477  0.3279  1.7637
64125SOL    HW210368  10.019   4.110   2.436 -2.4052  0.3034 -1.8331
64126SOL     OW10369  13.790  10.731  11.358  0.1034 -0.2680 -0.2945
64126SOL    HW110370  13.805  10.784  11.280  0.0016 -0.6751 -0.5984
64126SOL    HW210371  13.701  10.753  11.384 -0.0120 -0.4366 -0.5399
64127SOL     OW10372   8.823   7.558   2.872  0.5500  0.8438  0.1779
64127SOL    HW110373   8.802   7.525   2.959  1.2010  1.5940  0.6387
64127SOL    HW210374   8.738   7.577   2.832  0.0526 -2.4444 -0.5967
64128SOL     OW10375   5.114   8.486   9.564 -0.6469  0.3941 -0.5431
64128SOL    HW110376   5.051   8.539   9.613  0.9693  1.9977 -0.1000
64128SOL    HW210377   5.153   8.548   9.502 -1.7008 -1.2904 -3.0260
64129SOL     OW10378   0.848  14.081   3.559 -0.6408  0.1028  0.2301
64129SOL    HW110379   0.768  14.102   3.510 -0.8248 -2.6556 -0.8270
64129SOL    HW210380   0.910  14.051   3.492  0.3511 -0.3820  1.3341
64130SOL     OW10381   2.158  12.905   2.197  0.2321  0.0307  0.4007
64130SOL    HW110382   2.118  12.988   2.223 -2.4286 -0.8298 -0.6244
64130SOL    HW210383   2.136  12.845   2.269  0.2637 -0.2916  0.1437
64131SOL     OW10384   7.479  11.329  12.172 -0.0250  0.7704  0.0655
64131SOL    HW110385   7.568  11.313  12.204  0.4795  2.3389 -0.4911
64131SOL    HW210386   7.475  11.284  12.088 -0.1815 -0.3257  0.6366
64132SOL     OW10387  10.553   1.979   7.297 -0.0525  0.3913 -0.1304
64132SOL    HW110388  10.505   2.059   7.276  1.3649  0.9513 -1.4765
64132SOL    HW210389  10.577   1.988   7.389 -0.2828  1.3120 -0.1559
64133SOL     OW10390  10.846   4.814  10.844  0.2497 -0.1247  0.1669
64133SOL    HW110391  10.787   4.884  10.817 -1.0573 -1.2717 -0.0305
64133SOL    HW210392  10.834   4.745  10.779  0.8644 -0.8922  0.8386
64134SOL     OW10393   1.021   2.491   8.079  0.5934  0.0372  0.2140
64134SOL    HW110394   1.013   2.583   8.052 -0.9571 -0.7006 -2.2031
64134SOL    HW210395   1.002   2.441   7.999 -1.2455 -2.4083  2.0232
64135SOL     OW10396   0.627   9.318   9.601 -0.3682 -0.5789 -0.1935
64135SOL    HW110397   0.621   9.251   9.533 -0.3244 -0.9307  0.1448
64135SOL    HW210398   0.705   9.294   9.651 -0.8587 -0.7962  0.4785
64136SOL     OW10399   8.834   5.525   2.226  0.1398 -0.0319 -0.8400
64136SOL    HW110400   8.893   5.465   2.272 -0.5589 -0.2127 -0.1509
64136SOL    HW210401   8.890   5.596   2.196  0.8576 -0.6701 -1.0382
64137SOL     OW10402  14.044  13.836   5.168  0.4990  0.3135  0.3964
64137SOL    HW110403  14.085  13.856   5.084 -0.9222  0.2167 -0.3601
64137SOL    HW210404  14.007  13.919   5.197  0.1919  0.1594  0.4545
64138SOL     OW10405   2.988  13.012  13.230  0.1859 -0.8600 -0.0587
64138SOL    HW110406   3.078  13.010  13.198  0.5372  0.6350  0.7466
64138SOL    HW210407   2.995  12.985  13.322 -0.3447 -1.7917 -0.2853
64139SOL     OW10408   6.916   1.235   5.855  0.2063  0.0392 -0.3673
64139SOL    HW110409   6.832   1.279   5.854  0.3374  0.2824 -1.0733
64139SOL    HW210410   6.961   1.267   5.777  1.5289  1.0088  0.7486
64140SOL     OW10411   2.220  12.160   3.348  0.1295  0.1549  0.0223
64140SOL    HW110412   2.220  12.250   3.380 -0.8463  0.3345 -0.4755
64140SOL    HW210413   2.222  12.167   3.253 -2.6849 -0.2644 -0.1465
64141SOL     OW10414  14.125  10.416   0.649 -0.2488  0.2098 -0.3313
64141SOL    HW110415  14.112  10.321   0.645  0.4921  0.0764  0.3146
64141SOL    HW210416  14.181  10.429   0.725 -1.4567  1.2834  0.4125
64142SOL     OW10417   7.215   8.354  11.440  0.1721  0.2866  0.1013
64142SOL    HW110418   7.238   8.345  11.347  0.8600 -2.5558  0.4445
64142SOL    HW210419   7.120   8.343  11.442  0.2969 -0.9943 -0.1870
64143SOL     OW10420   9.297   1.321   8.046 -0.1304  0.1314  0.1588
64143SOL    HW110421   9.380   1.343   8.004 -1.4937 -0.0319 -2.8585
64143SOL    HW210422   9.271   1.401   8.091  1.2644  0.4262  0.4800
64144SOL     OW10423  12.286  11.905   8.409 -0.2000  0.5469  0.0266
64144SOL    HW110424  12.310  11.922   8.500  0.7198 -0.3920 -0.0209
64144SOL    HW210425  12.196  11.873   8.415  0.4424 -1.3073  0.8519
64145SOL     OW10426   9.924  12.974   1.149 -0.1089 -0.0057  0.3206
64145SOL    HW110427  10.016  12.950   1.160 -0.3379 -1.9161 -1.3123
64145SOL    HW210428   9.877  12.911   1.204 -0.4725  0.5905  0.6930
64146SOL     OW10429   4.801   5.214   6.511 -0.0425 -0.4684 -0.1345
64146SOL    HW110430   4.768   5.127   6.487  0.8102 -0.1828 -2.6122
64146SOL    HW210431   4.723   5.262   6.539 -0.3987 -2.2664  2.3123
64147SOL     OW10432   6.981   9.746   0.185  0.0367  0.5256 -0.0663
64147SOL    HW110433   6.965   9.703   0.101 -2.6816 -0.8914  1.0538
64147SOL    HW210434   6.932   9.828   0.179  0.7584  0.9562 -0.2238
64148SOL     OW10435   8.103   1.421   5.091  0.2663 -0.1127  0.6362
64148SOL    HW110436   8.166   1.456   5.028  0.3730 -0.6024  0.4649
64148SOL    HW210437   8.134   1.332   5.110 -0.9631 -0.7757 -0.2979
64149SOL     OW10438   3.111   9.922   6.698  0.4204 -0.6339  0.2926
64149SOL    HW110439   3.078   9.943   6.610  2.3145  1.2137 -0.0640
64149SOL    HW210440   3.134  10.007   6.735 -0.1932 -1.3939  2.5646
64150SOL     OW10441   5.215   1.485   7.636 -1.1789 -0.7393 -0.2434
64150SOL    HW110442   5.213   1.390   7.624  0.7567 -0.5628 -2.7266
64150SOL    HW210443   5.150   1.519   7.574 -2.4064 -0.4143  1.1631
64151SOL     OW10444   1.842   2.549   6.672  0.4490 -0.6062 -0.2638
64151SOL    HW110445   1.815   2.467   6.714 -0.7510  1.7828  4.3058
64151SOL    HW210446   1.932   2.562   6.702  0.4400 -0.0062 -0.4918
64152SOL     OW10447  12.268   8.412   2.481  0.0425  0.2988 -0.0731
64152SOL    HW110448  12.282   8.318   2.479  0.4226  0.2866  1.7504
64152SOL    HW210449  12.355   8.450   2.467 -0.2153  0.4245 -1.5218
64153SOL     OW10450  10.214  10.418   9.519 -0.3312 -0.1602 -0.3305
64153SOL    HW110451  10.301  10.383   9.540 -0.5317 -0.5238 -0.1004
64153SOL    HW210452  10.232  10.500   9.473  0.1300 -0.0908 -0.0339
64154SOL     OW10453   1.555   1.141   0.100  0.2252  0.5455  0.0199
64154SOL    HW110454   1.617   1.106   0.036 -0.5629  0.4779 -0.7269
64154SOL    HW210455   1.516   1.063   0.141 -3.1833  0.2322 -3.2053
64155SOL     OW10456   9.105   3.747   6.101 -0.0359 -0.4444  0.0922
64155SOL    HW110457   9.181   3.793   6.136 -0.2337  0.8123 -1.0316
64155SOL    HW210458   9.124   3.737   6.008 -0.2651 -2.1636  0.2034
64156SOL     OW10459   9.180   2.351   0.063  0.2865  0.1512 -0.1843
64156SOL    HW110460   9.192   2.372  -0.029 -2.1734  0.8486 -0.4036
64156SOL    HW210461   9.227   2.421   0.110  1.7609 -0.3453 -0.8519
64157SOL     OW10462  12.183  11.098   6.803  0.2130 -0.0344 -0.1925
64157SOL    HW110463  12.213  11.055   6.722  2.6120  2.1423 -0.6174
64157SOL    HW210464  12.206  11.037   6.872  2.2879 -0.0956 -0.8644
64158SOL     OW10465  13.745   7.603   5.565 -0.1997  0.0852  0.5571
64158SOL    HW110466  13.728   7.597   5.659  1.3555 -0.2850  0.8607
64158SOL    HW210467  13.751   7.511   5.536  1.4805  0.1423  0.5827
64159SOL     OW10468   2.447  11.744  10.882  0.1754 -0.4679 -0.7462
64159SOL    HW110469   2.473  11.676  10.820  0.0980 -1.4126  0.2298
64159SOL    HW210470   2.514  11.743  10.950 -1.1881 -1.4467  0.6699
64160SOL     OW10471   4.454   6.263   0.627  0.1087 -0.2351 -0.1232
64160SOL    HW110472   4.498   6.296   0.705  0.1074  0.1959 -0.3050
64160SOL    HW210473   4.448   6.168   0.641  4.2445 -0.9025 -1.6479
64161SOL     OW10474   9.692   9.948   8.697 -0.6380 -0.0545  0.1295
64161SOL    HW110475   9.640  10.024   8.723 -0.0946  0.4307 -0.1818
64161SOL    HW210476   9.781   9.980   8.693 -0.5114 -0.4904 -0.8631
64162SOL     OW10477  12.539   4.142   7.325 -0.2594  0.2985 -0.6910
64162SOL    HW110478  12.524   4.049   7.345 -1.4792  0.9005  1.4976
64162SOL    HW210479  12.454   4.183   7.336  0.3381  1.7670 -1.2752
64163SOL     OW10480   0.642  13.347   4.785  0.1398 -0.2220 -0.7881
64163SOL    HW110481   0.650  13.418   4.849  2.3962 -2.8109  2.1288
64163SOL    HW210482   0.673  13.385   4.703  1.6977  2.0955  0.7422
64164SOL     OW10483  10.437  10.757   9.868 -0.0111  0.2718  0.3515
64164SOL    HW110484  10.413  10.735   9.958 -0.1135  1.3836  0.6107
64164SOL    HW210485  10.353  10.757   9.820  0.1293 -1.1573  0.0326
64165SOL     OW10486   9.422   6.417   4.978  0.1249  0.2657 -0.5075
64165SOL    HW110487   9.507   6.461   4.985  0.0525  0.3008  0.1315
64165SOL    HW210488   9.442   6.324   4.985  0.0511  0.3010  0.2079
64166SOL     OW10489   1.969   3.448  10.363  0.4027  0.0602 -0.3736
64166SOL    HW110490   2.025   3.525  10.377  0.3676  0.1364 -0.6449
64166SOL    HW210491   1.994   3.416  10.276  1.0187 -0.7384  0.0863
64167SOL     OW10492   5.328   9.585  12.601  0.1528  0.4544 -0.4987
64167SOL    HW110493   5.352   9.677  12.587 -0.5040  0.8458  0.8069
64167SOL    HW210494   5.348   9.569  12.693 -0.9575 -0.3226 -0.3844
64168SOL     OW10495  13.304  11.059  10.271 -0.0388  0.3277 -0.1016
64168SOL    HW110496  13.236  11.088  10.211  0.5875 -2.3494 -2.3319
64168SOL    HW210497  13.268  10.981  10.312 -0.0093  1.4860  2.2503
64169SOL     OW10498   7.476   4.751  11.028  0.3760 -0.0035 -0.3534
64169SOL    HW110499   7.466   4.797  11.111  0.5080 -0.7448  0.0830
64169SOL    HW210500   7.517   4.814  10.970 -1.3414  1.1328 -0.3926
64170SOL     OW10501   1.955  14.125  10.730  0.5520 -0.0301  0.2617
64170SOL    HW110502   1.897  14.107  10.803  0.8396  1.4369  0.8867
64170SOL    HW210503   1.952  14.046  10.676 -1.7958 -0.0928  0.4078
64171SOL     OW10504   6.896  11.114  10.041 -0.4543  0.0436 -0.1116
64171SOL    HW110505   6.913  11.148  10.129  2.2695  0.5828 -0.7533
64171SOL    HW210506   6.972  11.142   9.990 -1.5677 -0.9675 -2.4507
64172SOL     OW10507  12.837   5.299   1.172 -0.0352  0.2796  0.1636
64172SOL    HW110508  12.834   5.375   1.113 -1.1723  0.3033  0.2290
64172SOL    HW210509  12.921   5.307   1.216 -0.3899  1.8710  0.6348
64173SOL     OW10510   2.085   3.559  10.768 -0.0669 -0.7121  0.3687
64173SOL    HW110511   2.130   3.637  10.800  0.0252 -0.0140 -1.3607
64173SOL    HW210512   2.015   3.544  10.832 -1.2345  1.8877 -0.1657
64174SOL     OW10513   3.468   4.193   5.761 -0.3013  0.4059 -0.0030
64174SOL    HW110514   3.383   4.163   5.727  0.2971 -0.2473 -0.9647
64174SOL    HW210515   3.481   4.279   5.721  0.3565 -0.3182 -1.4301
64175SOL     OW10516   7.260   0.890   8.866 -0.0087 -0.1480 -0.1319
64175SOL    HW110517   7.252   0.796   8.884  2.3277 -0.4245 -0.1735
64175SOL    HW210518   7.269   0.930   8.953  1.3792 -0.2934 -0.1799
64176SOL     OW10519   7.945  12.235   2.693 -0.6126  0.5953  0.5673
64176SOL    HW110520   8.019  12.294   2.706  0.6349 -0.0634 -2.6101
64176SOL    HW210521   7.976  12.150   2.725  0.2037  0.2470 -1.0595
64177SOL     OW10522   3.939   2.051   0.294 -0.3515 -0.3164  0.4372
64177SOL    HW110523   3.854   2.094   0.281  0.0731  0.1323 -1.1533
64177SOL    HW210524   3.959   2.013   0.208  1.6608  0.7503  0.3870
64178SOL     OW10525  13.875   2.269   8.479 -0.1893  0.0213 -0.2700
64178SOL    HW110526  13.841   2.263   8.569  0.5888 -0.0863  0.0201
64178SOL    HW210527  13.903   2.180   8.458 -0.5740  0.0021 -0.7067
64179SOL     OW10528   7.710   8.904   6.567  0.2058 -0.0498 -0.1255
64179SOL    HW110529   7.794   8.858   6.576  0.8116  1.2786  1.6487
64179SOL    HW210530   7.728   8.973   6.503  0.5737  0.4139  0.4660
64180SOL     OW10531   7.909   5.704   4.009 -0.6319  0.0432  0.0707
64180SOL    HW110532   8.002   5.698   4.029 -0.6527 -0.7388 -0.0303
64180SOL    HW210533   7.897   5.792   3.974  0.3435 -0.3359 -1.3020
64181SOL     OW10534   0.590  10.816   2.497 -0.0102  0.2651 -0.1009
64181SOL    HW110535   0.532  10.829   2.572  1.8373  0.6035  1.3518
64181SOL    HW210536   0.634  10.900   2.486 -0.3836  0.2710 -1.7080
64182SOL     OW10537   6.488  12.481   7.406  0.4753  0.6915  0.2619
64182SOL    HW110538   6.431  12.424   7.458  0.8309 -1.6537 -1.7388
64182SOL    HW210539   6.445  12.567   7.408 -0.3270  0.3208  3.0079
64183SOL     OW10540   1.131   3.191   1.749  0.3564  0.0469 -0.1647
64183SOL    HW110541   1.170   3.109   1.778  3.0466  1.2904 -0.0015
64183SOL    HW210542   1.179   3.214   1.669 -3.4290 -0.7196 -2.9638
64184SOL     OW10543   2.106   2.370   2.305  0.1758 -0.3716  0.3128
64184SOL    HW110544   2.152   2.319   2.371 -1.3655 -1.6176  0.4990
64184SOL    HW210545   2.013   2.352   2.322 -0.3566  1.2621 -0.6347
64185SOL     OW10546   2.411   7.079   9.878  0.2466  0.1353 -0.0669
64185SOL    HW110547   2.400   6.996   9.832  3.0067 -0.6456  0.5123
64185SOL    HW210548   2.411   7.145   9.809 -0.9153 -0.4049 -0.6243
64186SOL     OW10549  12.026   7.812   4.555 -0.2553  0.1105  0.4324
64186SOL    HW110550  12.073   7.895   4.565 -0.0783 -0.0261  0.7763
64186SOL    HW210551  11.957   7.816   4.621 -1.0428  0.5183 -0.4004
64187SOL     OW10552   5.431   3.170  13.177 -0.3157 -0.4385 -0.1330
64187SOL    HW110553   5.409   3.252  13.133  1.9404  0.1122 -0.3457
64187SOL    HW210554   5.398   3.182  13.267 -0.8655  0.2791 -0.4146
64188SOL     OW10555  10.339   4.244   2.312 -0.3306  0.1285  0.1956
64188SOL    HW110556  10.351   4.316   2.251  1.6331 -1.5342 -1.5276
64188SOL    HW210557  10.424   4.231   2.353 -0.4105 -1.6691 -0.1168
64189SOL     OW10558  13.534   2.279   5.612  0.1804  0.6933 -0.0221
64189SOL    HW110559  13.629   2.287   5.613  0.1703  0.9587 -0.5887
64189SOL    HW210560  13.517   2.185   5.608  0.4233  0.6484  0.0066
64190SOL     OW10561   5.509   3.449  13.454 -0.0402 -0.4401 -0.5541
64190SOL    HW110562   5.585   3.446  13.512 -0.3985 -0.8110 -0.0913
64190SOL    HW210563   5.501   3.359  13.422 -2.3493 -1.3506  2.1525
64191SOL     OW10564   4.776  14.097   9.937 -0.2669  0.4373 -0.2597
64191SOL    HW110565   4.862  14.136   9.950 -1.1002  1.7894  1.8721
64191SOL    HW210566   4.780  14.056   9.851  2.1788  1.2811 -0.6160
64192SOL     OW10567   4.038   8.104   2.446 -0.0815 -0.0897 -0.1131
64192SOL    HW110568   4.066   8.118   2.356 -0.1373 -0.6013 -0.2119
64192SOL    HW210569   4.113   8.061   2.488  0.6239  1.6766  0.5506
64193SOL     OW10570   3.454   0.028   5.119  0.3402  0.2597  0.1441
64193SOL    HW110571   3.531   0.077   5.088 -0.2542  0.8149 -0.4804
64193SOL    HW210572   3.480  -0.064   5.112 -0.4087  0.1767 -3.9736
64194SOL     OW10573   1.485   9.737   3.954  0.4903  0.0758  0.5807
64194SOL    HW110574   1.441   9.662   3.915  1.9851 -1.0510  0.9265
64194SOL    HW210575   1.544   9.769   3.885 -0.0682  0.8763  0.4681
64195SOL     OW10576   3.975   4.833   3.253  0.3821 -0.8072  0.5714
64195SOL    HW110577   4.031   4.907   3.232 -0.3875 -0.0317  1.2129
64195SOL    HW210578   3.990   4.817   3.346 -1.0107 -0.1018  0.9325
64196SOL     OW10579  12.702  13.478   0.879  0.2077  0.2389 -0.6655
64196SOL    HW110580  12.660  13.392   0.866 -0.5080  0.4348  0.2446
64196SOL    HW210581  12.681  13.501   0.969  2.0302  0.5043 -0.2752
64197SOL     OW10582  13.935   6.096  12.263 -0.1211  0.2441  0.2337
64197SOL    HW110583  13.842   6.105  12.240 -0.0940 -1.1113 -0.5079
64197SOL    HW210584  13.978   6.169  12.220 -0.7310  0.4225 -0.0869
64198SOL     OW10585   9.741   3.871   0.493  1.0455  0.1845 -0.6261
64198SOL    HW110586   9.808   3.925   0.534  0.4713  0.7867 -0.4499
64198SOL    HW210587   9.713   3.921   0.416  1.0598 -0.2330 -0.9083
64199SOL     OW10588   8.590   5.336   0.977 -0.2694 -0.4455  0.5853
64199SOL    HW110589   8.533   5.284   0.921  1.2159 -1.2247 -0.2418
64199SOL    HW210590   8.647   5.272   1.020  0.6449  0.3859  0.6437
64200SOL     OW10591  13.457   8.217   3.546  0.2844  0.1211  0.4658
64200SOL    HW110592  13.386   8.167   3.586 -1.0390  1.2707 -0.3472
64200SOL    HW210593  13.521   8.151   3.519 -1.3054 -1.1429 -0.4124
64201SOL     OW10594  10.298   0.634   0.879  0.1001  0.0718  0.3918
64201SOL    HW110595  10.263   0.617   0.967  0.7916 -1.8593  0.3482
64201SOL    HW210596  10.386   0.669   0.896 -0.2800  1.0220  0.4598
64202SOL     OW10597   0.520  13.625  12.314 -0.0563 -0.1666 -0.3682
64202SOL    HW110598   0.426  13.608  12.323 -0.2857 -0.5999 -2.8940
64202SOL    HW210599   0.531  13.714  12.347 -0.6794 -1.2545  3.1924
64203SOL     OW10600   4.757   7.853   6.359 -0.0913 -0.4403  0.0599
64203SOL    HW110601   4.794   7.941   6.356  1.3140 -0.8623  2.4894
64203SOL    HW210602   4.715   7.842   6.274  0.3256  2.2833 -0.5885
64204SOL     OW10603   4.358   7.226   3.989  0.0584 -0.5540 -0.4535
64204SOL    HW110604   4.282   7.254   4.041 -0.8651 -0.4692 -1.7903
64204SOL    HW210605   4.321   7.168   3.923  1.4418 -1.9767 -0.0421
64205SOL     OW10606  11.026   6.838  12.151  0.3567  1.0272 -0.1532
64205SOL    HW110607  10.939   6.817  12.118 -0.0025  0.7069  0.9502
64205SOL    HW210608  11.027   6.803  12.240  1.6314  0.9869 -0.1607
64206SOL     OW10609  11.861   4.000   1.296  0.3516  0.1729  0.5470
64206SOL    HW110610  11.819   3.991   1.382 -0.8188  1.0093  0.1014
64206SOL    HW210611  11.792   3.976   1.234  0.9212  0.4084 -0.1868
64207SOL     OW10612   2.455   5.481  11.469 -0.2703 -0.2884  0.0153
64207SOL    HW110613   2.385   5.542  11.444  0.2940  1.3086  2.0415
64207SOL    HW210614   2.436   5.460  11.560  1.5639 -0.2711  0.4306
64208SOL     OW10615  13.237   7.303  12.703  0.5357  0.0765  0.1095
64208SOL    HW110616  13.142   7.313  12.700  0.5142  0.1790 -3.1680
64208SOL    HW210617  13.254   7.250  12.780 -2.3073 -0.9960  0.1032
64209SOL     OW10618   4.635  11.045  12.151  0.3945  0.5509 -0.1726
64209SOL    HW110619   4.635  11.051  12.246  0.5384  1.4706 -0.2261
64209SOL    HW210620   4.680  10.962  12.132 -1.4750 -0.6885  0.5977
64210SOL     OW10621   2.796   0.508   6.827 -0.2372 -0.0883 -0.0571
64210SOL    HW110622   2.721   0.559   6.795  0.0477  0.9981  0.9398
64210SOL    HW210623   2.835   0.562   6.895  0.0672 -1.6591  1.0897
64211SOL     OW10624   8.303  11.920  11.885 -0.6563  0.3917  0.0482
64211SOL    HW110625   8.228  11.861  11.894 -0.7336  0.6455  1.2237
64211SOL    HW210626   8.312  11.960  11.971  0.7293  0.5002 -0.1268
64212SOL     OW10627   5.305   6.065  11.954  0.3448  0.3429 -0.1580
64212SOL    HW110628   5.305   6.115  11.872 -2.2278  0.6387 -0.0761
64212SOL    HW210629   5.212   6.054  11.974  0.8940  0.4419  2.8319
64213SOL     OW10630   7.588   8.730   8.484  0.5144  0.1893 -0.2374
64213SOL    HW110631   7.630   8.682   8.413  1.4792  1.5038 -0.5944
64213SOL    HW210632   7.502   8.754   8.450 -0.4478 -2.1683  0.3467
64214SOL     OW10633   1.488  10.000   3.267 -0.1166 -0.2206  0.0573
64214SOL    HW110634   1.483  10.066   3.336  0.0201 -0.7968  0.6323
64214SOL    HW210635   1.579   9.971   3.268 -0.4852 -1.4080  0.7612
64215SOL     OW10636  13.185   5.577   7.832 -0.0069  0.1091 -0.5196
64215SOL    HW110637  13.192   5.613   7.920  0.4997  0.5491 -0.7306
64215SOL    HW210638  13.184   5.655   7.775  0.0345 -0.1828 -0.9221
64216SOL     OW10639   8.490  13.201  12.534  0.4329  0.0591 -0.2860
64216SOL    HW110640   8.406  13.246  12.523 -0.5174 -1.4598  0.3772
64216SOL    HW210641   8.526  13.236  12.615 -0.1008 -0.0538  0.0064
64217SOL     OW10642   4.304   1.286   0.293  0.0243  0.1816 -0.2786
64217SOL    HW110643   4.369   1.220   0.319  0.0062  0.3697  0.2465
64217SOL    HW210644   4.347   1.370   0.308 -0.7917  0.3552  1.3633
64218SOL     OW10645   3.457   2.055  10.767  0.3998 -0.3290  0.0872
64218SOL    HW110646   3.485   2.108  10.842 -0.6395 -1.1862  1.1119
64218SOL    HW210647   3.363   2.045  10.779  0.3413 -1.1075 -0.9384
64219SOL     OW10648   7.948   8.554   4.456 -0.2398 -0.3005 -0.1108
64219SOL    HW110649   7.877   8.523   4.512 -1.0528  1.4860 -0.0814
64219SOL    HW210650   7.919   8.534   4.367 -0.1661 -0.7693 -0.0289
64220SOL     OW10651   4.211   8.252  12.259 -0.3989  0.3876 -0.5822
64220SOL    HW110652   4.149   8.301  12.312 -0.1497  0.2924 -0.1949
64220SOL    HW210653   4.214   8.165  12.300  0.7316  0.6859  0.0320
64221SOL     OW10654   7.765  11.753   6.884  0.3183 -0.0205  0.6430
64221SOL    HW110655   7.696  11.717   6.828  1.5307  0.7409 -1.4699
64221SOL    HW210656   7.840  11.696   6.868  0.3411 -0.5792  2.5773
64222SOL     OW10657  12.109   8.030  11.051 -0.2398  0.1163  0.0158
64222SOL    HW110658  12.060   8.107  11.077  0.1426 -0.0046  1.1680
64222SOL    HW210659  12.200   8.061  11.044 -0.0345 -0.2903  0.8103
64223SOL     OW10660   0.637   8.550  11.973  0.0030  0.4090  0.1974
64223SOL    HW110661   0.672   8.501  11.899  0.4219  0.2043  0.5250
64223SOL    HW210662   0.543   8.530  11.973 -0.1580  1.1142 -0.8033
64224SOL     OW10663   0.260  14.125   3.228  0.0631 -0.2330 -0.0313
64224SOL    HW110664   0.274  14.172   3.310 -3.8297  1.0685  0.0783
64224SOL    HW210665   0.317  14.169   3.165  1.2692  0.3515  1.4033
64225SOL     OW10666   0.102   9.207   3.142  0.2847  0.3940  0.2437
64225SOL    HW110667   0.171   9.167   3.195  3.0889  1.1297 -2.5543
64225SOL    HW210668   0.048   9.255   3.205  2.2505 -0.2940  2.6003
64226SOL     OW10669  13.227   5.271   1.311 -0.1668  0.3316 -0.6947
64226SOL    HW110670  13.151   5.260   1.367 -1.7097 -0.9043 -2.8547
64226SOL    HW210671  13.261   5.182   1.299  1.6224  0.8455  0.1500
64227SOL     OW10672   1.683  10.803   1.845  0.3352 -0.6419  0.1181
64227SOL    HW110673   1.681  10.804   1.749 -0.2430 -0.3681  0.1246
64227SOL    HW210674   1.770  10.770   1.867  0.9713  0.5208 -0.5093
64228SOL     OW10675  12.113   5.184   8.744 -0.2009 -0.5433 -0.0703
64228SOL    HW110676  12.073   5.186   8.831  0.3512 -0.5886  0.1880
64228SOL    HW210677  12.039   5.187   8.683 -0.5428  2.1760  0.3712
64229SOL     OW10678  12.651   4.439   5.720  0.6065  0.0360  0.1907
64229SOL    HW110679  12.688   4.524   5.697  0.0723  0.2033 -0.0843
64229SOL    HW210680  12.614   4.406   5.638  1.6222 -0.8855  0.0931
64230SOL     OW10681   8.948   6.736  12.494 -0.7010  0.1908 -0.0529
64230SOL    HW110682   9.036   6.739  12.531 -1.2918  1.9877  1.3494
64230SOL    HW210683   8.898   6.683  12.557 -0.9907  0.6211  0.0879
64231SOL     OW10684   1.138   9.587   2.485  0.4800 -0.1475  0.1899
64231SOL    HW110685   1.157   9.608   2.576  1.1576 -0.1594  0.0566
64231SOL    HW210686   1.168   9.497   2.474 -1.1576 -0.7382  0.3946
64232SOL     OW10687   5.138  13.835   3.645 -0.3059  0.4020 -0.2964
64232SOL    HW110688   5.176  13.747   3.646 -1.3680 -0.0755  0.9619
64232SOL    HW210689   5.144  13.865   3.736 -2.8521  0.3073 -0.0422
64233SOL     OW10690  11.773   5.405   2.194  0.0449 -0.4077  0.0480
64233SOL    HW110691  11.866   5.429   2.196 -0.3752  1.2680  1.2198
64233SOL    HW210692  11.730   5.473   2.245 -1.6936 -1.8358  0.5531
64234SOL     OW10693  10.327   5.411   6.841  0.0078  0.0675  0.2241
64234SOL    HW110694  10.392   5.345   6.867 -0.6573 -0.8932 -0.4765
64234SOL    HW210695  10.314   5.464   6.919  1.9450  0.5559  0.2631
64235SOL     OW10696  13.523   6.586   0.609  0.1884 -0.5376 -0.1336
64235SOL    HW110697  13.440   6.539   0.608  0.0890 -0.3547 -0.4754
64235SOL    HW210698  13.523   6.637   0.529 -0.2353  0.9600  0.7741
64236SOL     OW10699   6.885  10.988   8.042  0.4667  0.2350 -0.1052
64236SOL    HW110700   6.964  11.028   8.006  0.3548  0.2658 -0.3239
64236SOL    HW210701   6.915  10.909   8.086  0.7851  0.9329  0.9636
64237SOL     OW10702   2.529   3.432  12.226  0.0981  0.1869  0.3488
64237SOL    HW110703   2.531   3.365  12.295  2.6001 -0.0822  0.1102
64237SOL    HW210704   2.475   3.394  12.157 -1.3663 -0.0832  1.5856
64238SOL     OW10705   7.752  11.036  11.366  0.1630  0.1008 -0.1801
64238SOL    HW110706   7.817  11.092  11.324 -1.0622 -0.1809 -2.5930
64238SOL    HW210707   7.683  11.097  11.394  0.5692  0.1808  0.6976
64239SOL     OW10708   7.333  12.820   7.471  0.3781  0.1222  0.0665
64239SOL    HW110709   7.409  12.763   7.481 -0.5372 -1.2488 -0.3406
64239SOL    HW210710   7.301  12.834   7.560  0.8919  0.3961  0.2067
64240SOL     OW10711   2.904   3.660   7.117  0.4115  0.5042 -0.2910
64240SOL    HW110712   2.993   3.640   7.087 -0.2104  0.6315 -2.3569
64240SOL    HW210713   2.911   3.747   7.157  1.2145  0.5194 -0.4470
64241SOL     OW10714   9.390   5.476   0.447  0.0331 -0.5412  0.7517
64241SOL    HW110715   9.359   5.484   0.356 -0.4488  0.7496  1.0147
64241SOL    HW210716   9.485   5.476   0.440  0.0171  0.6525  0.3101
64242SOL     OW10717  12.529   5.478   0.355 -0.9457 -0.4946 -0.3328
64242SOL    HW110718  12.472   5.554   0.356  0.1280  0.4158 -2.3272
64242SOL    HW210719  12.470   5.405   0.333 -1.5676  0.2365 -1.2087
64243SOL     OW10720   2.084   9.699   9.316 -0.1386 -0.0565 -0.7298
64243SOL    HW110721   2.140   9.632   9.356  1.1996  0.6846 -1.2659
64243SOL    HW210722   2.087   9.772   9.379  0.7490  0.5432 -1.4373
64244SOL     OW10723   7.223  10.299  12.813 -0.6360  0.4861 -0.3847
64244SOL    HW110724   7.135  10.281  12.778 -0.6242  0.5516 -0.4473
64244SOL    HW210725   7.276  10.316  12.736 -0.4752  0.0387 -0.3738
64245SOL     OW10726  12.861  11.547   9.258  0.0093 -0.7494 -0.7944
64245SOL    HW110727  12.872  11.452   9.258  1.7899 -0.5775 -0.1291
64245SOL    HW210728  12.946  11.582   9.231 -0.1882  0.6768  0.2485
64246SOL     OW10729   5.604  10.444   0.786  0.1267  0.3048 -0.1832
64246SOL    HW110730   5.542  10.514   0.763 -1.4851 -1.1823 -0.6308
64246SOL    HW210731   5.605  10.387   0.709  0.9983 -0.4426  0.3628
64247SOL     OW10732   7.300  12.734   5.925  0.5748 -0.4876 -0.5738
64247SOL    HW110733   7.342  12.728   5.839 -1.0158  0.6722 -1.4735
64247SOL    HW210734   7.297  12.643   5.956  0.3576 -1.0561 -2.1650
64248SOL     OW10735   0.081  11.439   7.442 -0.0434  0.0379 -0.1548
64248SOL    HW110736   0.064  11.468   7.531  0.8446 -0.3177  0.1415
64248SOL    HW210737   0.002  11.463   7.393 -1.3425 -1.4746  1.1072
64249SOL     OW10738   3.036   6.107  11.082 -0.4343 -0.4096  0.2281
64249SOL    HW110739   3.090   6.178  11.048 -1.0365  0.1592  0.4347
64249SOL    HW210740   2.996   6.068  11.005 -2.0047  1.0427  0.2338
64250SOL     OW10741   5.964   4.123  12.235  0.0152  0.5913 -0.1485
64250SOL    HW110742   6.034   4.183  12.209 -0.8955  1.1022 -1.5246
64250SOL    HW210743   5.927   4.163  12.314  0.9084  0.6014  0.2803
64251SOL     OW10744   7.617   9.373   7.857  0.5179  0.0882  0.2724
64251SOL    HW110745   7.598   9.309   7.788 -1.9957  0.8517  0.1610
64251SOL    HW210746   7.624   9.456   7.812 -0.0668  0.4340  0.7982
64252SOL     OW10747   9.246   6.818   7.450  0.0316  0.1708 -0.4165
64252SOL    HW110748   9.269   6.825   7.543 -0.1821  0.8125 -0.4059
64252SOL    HW210749   9.187   6.743   7.445  1.7663 -1.2624 -0.3748
64253SOL     OW10750  10.254   9.190   0.953 -0.3468 -0.5603  0.0630
64253SOL    HW110751  10.267   9.234   1.037  0.3898 -1.3931  0.4125
64253SOL    HW210752  10.316   9.116   0.956  0.2646 -0.1500 -1.5277
64254SOL     OW10753   7.688   6.227   0.125 -0.2609 -0.1196  0.0362
64254SOL    HW110754   7.726   6.152   0.080  1.5964 -0.1572  1.5334
64254SOL    HW210755   7.761   6.265   0.175 -1.6627  1.3104  1.1230
64255SOL     OW10756   9.998   6.140   4.674 -0.2009  0.3993  0.1981
64255SOL    HW110757   9.907   6.138   4.644 -0.1264 -1.3194 -0.0521
64255SOL    HW210758   9.995   6.182   4.759 -1.5240 -1.2465  1.0210
64256SOL     OW10759   0.659   8.769  13.254  0.1533  0.4578  0.2135
64256SOL    HW110760   0.732   8.802  13.306  0.7960 -1.7676  0.8581
64256SOL    HW210761   0.679   8.676  13.241 -1.1919  0.4012 -1.9895
64257SOL     OW10762   8.175   9.216   2.768 -0.5359 -0.7952 -0.7328
64257SOL    HW110763   8.270   9.229   2.773 -0.8365  1.4592  0.9232
64257SOL    HW210764   8.148   9.268   2.693 -0.9179  3.2418  1.8604
64258SOL     OW10765  12.866   0.908  12.340  0.3859 -0.9219 -0.3274
64258SOL    HW110766  12.882   0.920  12.247 -0.9550  0.0176 -0.4752
64258SOL    HW210767  12.879   0.815  12.356 -2.1940 -1.6649 -2.0848
64259SOL     OW10768   9.798   4.081  11.040  0.0305 -0.0270 -0.2770
64259SOL    HW110769   9.814   4.114  10.951 -1.0031  0.3274 -0.3437
64259SOL    HW210770   9.703   4.074  11.046  0.1126 -0.4639  0.6610
64260SOL     OW10771   8.091   8.305  12.672 -0.0841  0.2417 -0.1476
64260SOL    HW110772   8.125   8.394  12.678  0.3645  0.0853 -0.3897
64260SOL    HW210773   8.012   8.307  12.726  0.9129  0.3075  1.3775
64261SOL     OW10774  11.179   4.469  10.114  0.2949  0.1300 -0.6401
64261SOL    HW110775  11.117   4.458  10.186  0.5183  1.6974 -0.1693
64261SOL    HW210776  11.258   4.504  10.156  0.9075 -0.2311 -1.4664
64262SOL     OW10777   3.173   4.747  12.132 -0.0589 -0.6020 -0.3017
64262SOL    HW110778   3.231   4.819  12.108 -1.9970  0.9523 -0.6297
64262SOL    HW210779   3.127   4.778  12.211  0.4111 -2.2882  0.6812
64263SOL     OW10780  10.878   5.896   9.128  0.1073  0.0839  0.5121
64263SOL    HW110781  10.842   5.810   9.106 -0.2716  0.2584  0.4475
64263SOL    HW210782  10.801   5.952   9.139  0.3539  0.4109  0.5724
64264SOL     OW10783  10.410  12.884  11.650 -0.5462 -0.2546  0.0973
64264SOL    HW110784  10.490  12.834  11.663 -0.4355 -0.5303 -1.3877
64264SOL    HW210785  10.415  12.913  11.559 -3.0637 -2.0636 -0.7326
64265SOL     OW10786  12.371   0.991   1.106 -0.4720  0.0569 -0.1161
64265SOL    HW110787  12.293   0.961   1.059 -0.2292  0.5955 -0.9027
64265SOL    HW210788  12.340   1.061   1.163 -0.5472  0.3892 -0.5566
64266SOL     OW10789   4.123  10.143  12.949 -0.1124  0.4779  0.2729
64266SOL    HW110790   4.210  10.115  12.923 -1.2381 -2.2279 -0.9109
64266SOL    HW210791   4.114  10.114  13.040 -0.2473 -0.4907 -0.0441
64267SOL     OW10792   5.245   0.354  10.420  0.1190 -0.3470 -0.1193
64267SOL    HW110793   5.296   0.339  10.499  0.2343 -0.4566 -0.2145
64267SOL    HW210794   5.285   0.431  10.380 -0.3282  0.0835  0.2491
64268SOL     OW10795   9.713   5.434   0.147 -0.2510 -0.4557  0.3748
64268SOL    HW110796   9.796   5.430   0.100 -0.7635 -1.6408 -0.4639
64268SOL    HW210797   9.730   5.386   0.228  0.3993  0.8979  1.0706
64269SOL     OW10798   0.717  13.247   4.182  0.8108 -0.4592 -0.6593
64269SOL    HW110799   0.720  13.183   4.110 -2.0318 -1.1770 -0.2674
64269SOL    HW210800   0.641  13.302   4.162 -0.4084 -1.0146  1.9799
64270SOL     OW10801   7.223   5.006  11.494 -0.4155 -0.3878  0.3256
64270SOL    HW110802   7.202   4.913  11.503 -1.8768 -0.1431 -0.1914
64270SOL    HW210803   7.174   5.049  11.564  0.2832  0.0024  0.5887
64271SOL     OW10804   4.729   4.767  11.046  0.0165  0.0792 -0.0557
64271SOL    HW110805   4.702   4.836  11.107  0.5636 -0.7238  1.1464
64271SOL    HW210806   4.648   4.719  11.027 -0.4417  1.2858 -1.2336
64272SOL     OW10807   1.369   0.212   4.087  0.1698  0.4172  0.0246
64272SOL    HW110808   1.410   0.133   4.051  1.1775 -0.1957  2.3762
64272SOL    HW210809   1.275   0.198   4.074  0.4450  0.3636 -2.4886
64273SOL     OW10810  13.661   9.008   0.581  0.2337 -0.0683 -0.4128
64273SOL    HW110811  13.597   9.046   0.641  2.6243  1.8479  1.0809
64273SOL    HW210812  13.623   9.021   0.494 -1.4956  0.7680  0.4279
64274SOL     OW10813   4.973   1.544   2.483 -0.5750 -0.9101 -0.1811
64274SOL    HW110814   4.941   1.457   2.505 -0.0627 -1.5430 -1.7833
64274SOL    HW210815   4.903   1.583   2.430 -0.1828 -0.9468 -0.7387
64275SOL     OW10816   7.660   9.025   2.475 -0.4952  0.3298  0.1447
64275SOL    HW110817   7.711   9.006   2.396 -0.2773  0.7049  0.1949
64275SOL    HW210818   7.638   9.118   2.468 -0.5593  0.3401  0.4812
64276SOL     OW10819   3.005   3.008  13.977 -0.2212 -0.2675 -0.1531
64276SOL    HW110820   3.076   2.945  13.986 -0.8595 -0.9860 -0.1054
64276SOL    HW210821   2.940   2.965  13.922 -1.2575 -0.1985  0.9570
64277SOL     OW10822   0.183   4.117   2.557 -0.2082  0.0698  0.1278
64277SOL    HW110823   0.134   4.197   2.535 -1.1934 -0.7883 -0.9004
64277SOL    HW210824   0.252   4.113   2.491  0.9755  0.9764  1.2408
64278SOL     OW10825  10.802   3.231   9.085  0.3354 -0.0676 -0.2976
64278SOL    HW110826  10.716   3.269   9.102  0.6083  0.7670 -0.7286
64278SOL    HW210827  10.813   3.164   9.153 -0.7129 -0.2953 -0.3379
64279SOL     OW10828   8.167   4.708  11.171 -0.2999 -0.5245 -0.0452
64279SOL    HW110829   8.132   4.682  11.085 -2.0006 -3.1431  1.3015
64279SOL    HW210830   8.089   4.719  11.226  0.8006 -0.6488  1.6040
64280SOL     OW10831   1.740   1.388   1.969 -0.5801 -0.3876 -0.0929
64280SOL    HW110832   1.825   1.353   1.995 -0.6533 -0.2589  0.3231
64280SOL    HW210833   1.729   1.359   1.878  0.1343  0.0402 -0.3183
64281SOL     OW10834  13.413   8.687   6.491  0.4501 -0.0452  0.1805
64281SOL    HW110835  13.462   8.709   6.412  0.7674 -1.0865  0.0699
64281SOL    HW210836  13.343   8.751   6.495 -0.3034 -0.7110 -1.6170
64282SOL     OW10837  12.312  10.755   3.524 -0.2439 -0.3334  0.5583
64282SOL    HW110838  12.266  10.672   3.515  0.8406 -0.8919  0.0880
64282SOL    HW210839  12.242  10.819   3.539 -1.0038 -1.4982  2.2541
64283SOL     OW10840  13.952  10.526   1.754 -0.0698 -0.1531 -0.0981
64283SOL    HW110841  13.896  10.580   1.810  0.5167 -0.0519  0.4121
64283SOL    HW210842  13.934  10.436   1.781  0.7782 -0.0647  0.8205
64284SOL     OW10843   5.286   7.432   1.901 -0.3679  0.1639 -0.1558
64284SOL    HW110844   5.237   7.362   1.944 -0.8431  0.1185 -0.7614
64284SOL    HW210845   5.288   7.504   1.965  0.4370 -0.5190  0.6144
64285SOL     OW10846   7.970  13.607  12.136 -0.3665  0.3420 -0.0244
64285SOL    HW110847   7.947  13.598  12.043  0.3509  0.6126 -0.2297
64285SOL    HW210848   8.044  13.667  12.137 -0.9826  1.1245  0.8041
64286SOL     OW10849   7.008  14.018   8.254  0.4153 -0.7085 -0.0626
64286SOL    HW110850   6.983  14.053   8.339 -0.5153 -0.0880 -0.5776
64286SOL    HW210851   6.925  14.000   8.209  0.8893 -1.1702 -0.7812
64287SOL     OW10852   5.686  13.617   6.918 -0.9688  0.5383  0.4477
64287SOL    HW110853   5.773  13.654   6.933 -0.7901  0.6366 -0.7303
64287SOL    HW210854   5.685  13.538   6.971 -0.4684  0.9611  1.1151
64288SOL     OW10855   2.040   7.052   8.403 -0.1051  0.3751 -0.2783
64288SOL    HW110856   2.030   7.120   8.336 -1.8600  1.4045  0.9312
64288SOL    HW210857   1.995   7.087   8.480 -0.4765 -1.8823  0.6235
64289SOL     OW10858   2.616  13.529   0.280  0.1670  0.2741  0.1835
64289SOL    HW110859   2.580  13.441   0.271 -0.6970  0.3954  2.0324
64289SOL    HW210860   2.669  13.541   0.201  2.6470 -2.9849  1.1043
64290SOL     OW10861   0.638  10.828   9.946  0.5029  0.2358 -0.3353
64290SOL    HW110862   0.655  10.801   9.855  0.6185 -1.4311  0.1526
64290SOL    HW210863   0.719  10.807   9.992 -0.4103 -1.3296  0.6427
64291SOL     OW10864  10.373  12.227   4.549 -0.3384  0.2592  0.2419
64291SOL    HW110865  10.389  12.201   4.458  1.0213 -2.5584  1.1564
64291SOL    HW210866  10.280  12.211   4.562 -0.5708  0.7762 -0.6433
64292SOL     OW10867  12.782   6.118   4.681 -0.3588 -0.0939  0.1246
64292SOL    HW110868  12.689   6.122   4.662 -0.2034  1.2722 -0.4788
64292SOL    HW210869  12.815   6.048   4.624 -0.9037 -0.1152 -0.1694
64293SOL     OW10870   0.824  12.481   5.064 -0.4583  0.3440 -0.0560
64293SOL    HW110871   0.849  12.476   4.972 -0.9981 -0.7562 -0.1710
64293SOL    HW210872   0.839  12.392   5.097  1.0658  1.0506  1.2962
64294SOL     OW10873   8.527  13.362  10.304  0.2369 -0.1202 -0.2233
64294SOL    HW110874   8.539  13.277  10.260  2.6051 -0.5747  1.1266
64294SOL    HW210875   8.455  13.347  10.365  1.2559 -1.5261  0.7004
64295SOL     OW10876   9.037   3.857   9.724 -0.0625 -0.0524  0.6396
64295SOL    HW110877   8.967   3.862   9.790 -1.4152  2.0924 -0.7978
64295SOL    HW210878   8.993   3.827   9.645  1.0330 -0.3396  0.1210
64296SOL     OW10879   0.278   2.107   5.396 -0.0663 -0.2094 -0.2375
64296SOL    HW110880   0.279   2.146   5.484  1.7763 -0.1200 -0.2584
64296SOL    HW210881   0.199   2.052   5.395 -1.7673  2.0770  0.4021
64297SOL     OW10882  11.003   1.209   0.072 -0.4334 -0.3588  0.0103
64297SOL    HW110883  11.061   1.217  -0.004 -0.3554  0.7647  0.1689
64297SOL    HW210884  10.914   1.208   0.035 -0.3525 -1.7776 -0.2106
64298SOL     OW10885  13.016   9.930   5.643 -0.4996  0.0103 -0.2503
64298SOL    HW110886  13.045   9.957   5.556  0.3462  1.5005  0.4574
64298SOL    HW210887  13.087   9.956   5.702 -1.6901  0.3857  1.0752
64299SOL     OW10888   9.894   5.644   2.547 -1.1765  0.1086  0.1437
64299SOL    HW110889   9.897   5.706   2.620 -4.5415  1.6627 -0.8204
64299SOL    HW210890   9.949   5.684   2.480  1.5127 -1.0693  1.4869
64300SOL     OW10891   5.537   6.336   8.350 -0.5280 -0.6660  0.4286
64300SOL    HW110892   5.470   6.363   8.287 -0.9311 -1.1932  0.6249
64300SOL    HW210893   5.547   6.412   8.408  0.6289  0.2466 -0.8892
64301SOL     OW10894  12.544  10.157   3.657 -0.3802 -0.4494  0.8851
64301SOL    HW110895  12.493  10.089   3.613 -0.4770 -0.9942  1.8025
64301SOL    HW210896  12.625  10.164   3.606  0.1477 -2.0961  1.4443
64302SOL     OW10897   5.792   9.541   9.501  0.2663 -0.2439 -0.4709
64302SOL    HW110898   5.869   9.486   9.481  0.3864 -0.1916 -0.1531
64302SOL    HW210899   5.829   9.624   9.530  0.0828  0.1568 -1.3379
64303SOL     OW10900   0.368   2.182   9.027  0.3975 -0.0709  0.4395
64303SOL    HW110901   0.400   2.188   8.937 -1.4284  1.8892 -0.1628
64303SOL    HW210902   0.419   2.248   9.074 -0.8433  1.2132  0.0577
64304SOL     OW10903   5.799   7.073   4.104 -0.7868 -0.2566 -0.7640
64304SOL    HW110904   5.766   7.159   4.080 -0.6111 -0.6306 -2.4221
64304SOL    HW210905   5.891   7.073   4.077  0.2178  0.1553  2.2135
64305SOL     OW10906  10.589   6.372   3.320  0.2028 -0.5424  0.2203
64305SOL    HW110907  10.654   6.440   3.302 -0.0385 -0.2943  0.2776
64305SOL    HW210908  10.543   6.402   3.399  0.4109 -1.0056  0.5180
64306SOL     OW10909   7.933  11.898  13.229 -0.1313 -0.2024  0.0626
64306SOL    HW110910   7.873  11.907  13.155 -0.1221  2.0138  0.2558
64306SOL    HW210911   7.878  11.862  13.299 -0.5517 -0.7385 -0.5258
64307SOL     OW10912  13.993   4.581   4.877 -0.1071  0.0651  0.4174
64307SOL    HW110913  14.007   4.673   4.900 -2.5181  0.1856  1.7366
64307SOL    HW210914  13.975   4.582   4.784  2.4856  0.5264 -0.1737
64308SOL     OW10915   1.456  13.993   4.408 -0.8932  0.5229  0.0185
64308SOL    HW110916   1.428  13.938   4.481 -0.8320  0.7343  0.2020
64308SOL    HW210917   1.388  13.982   4.342 -1.4875  1.1324  0.5135
64309SOL     OW10918   8.208  11.087  12.475  0.0310 -0.7048 -0.3483
64309SOL    HW110919   8.226  10.994  12.493  2.3307 -0.2327  0.1038
64309SOL    HW210920   8.174  11.120  12.558  0.9308 -0.7769  0.0672
64310SOL     OW10921   7.803   2.476   3.515  0.0409 -0.4006  0.3273
64310SOL    HW110922   7.876   2.415   3.515  1.3296  1.0541 -1.0260
64310SOL    HW210923   7.841   2.560   3.540 -1.3626  0.1922  0.5988
64311SOL     OW10924   9.471   1.398   6.299 -0.1167  0.0866 -0.7816
64311SOL    HW110925   9.533   1.368   6.232  3.4015  2.6381  0.9804
64311SOL    HW210926   9.467   1.325   6.362  1.4833 -0.0463 -0.7736
64312SOL     OW10927   5.265   1.255   9.186 -0.1982  0.4132 -0.2595
64312SOL    HW110928   5.211   1.329   9.213 -0.0690 -0.1195  1.6555
64312SOL    HW210929   5.337   1.254   9.249  1.3482  0.3128 -1.9493
64313SOL     OW10930   8.919   7.134   8.440  0.5906 -0.4822  0.8089
64313SOL    HW110931   8.959   7.048   8.429  1.3998  0.0320 -0.5310
64313SOL    HW210932   8.981   7.183   8.495  0.5928 -0.4536  0.7810
64314SOL     OW10933   3.971  10.585  11.604 -0.4264 -0.3121 -0.1506
64314SOL    HW110934   3.977  10.529  11.681 -0.1136 -1.3441 -0.9063
64314SOL    HW210935   3.884  10.567  11.568 -0.7787  0.5574  0.2466
64315SOL     OW10936   5.097  11.087  13.562 -0.5643 -0.2592  0.6032
64315SOL    HW110937   5.050  11.027  13.504 -1.6226  1.5910 -0.5370
64315SOL    HW210938   5.086  11.048  13.649 -2.6300 -0.8857  0.1272
64316SOL     OW10939   9.077   8.219   3.972 -0.5411  0.5811 -0.0385
64316SOL    HW110940   9.012   8.205   3.903  0.1339 -2.0173 -0.2379
64316SOL    HW210941   9.148   8.267   3.929 -0.0833 -1.0983 -1.2168
64317SOL     OW10942   3.795   9.613   7.076 -0.1187  0.2495  0.8304
64317SOL    HW110943   3.875   9.566   7.055 -0.3250  0.6687 -0.9884
64317SOL    HW210944   3.790   9.609   7.172  1.4428 -0.7842  0.9031
64318SOL     OW10945   6.166   0.674   3.353 -0.8729  0.2838  0.2016
64318SOL    HW110946   6.188   0.757   3.395 -0.3091  1.1949 -1.7473
64318SOL    HW210947   6.248   0.624   3.355 -1.1990 -0.2388  1.3296
64319SOL     OW10948   8.269   2.127   8.771  0.6129  0.3874 -0.3375
64319SOL    HW110949   8.175   2.140   8.756  0.3218  0.6200  1.4503
64319SOL    HW210950   8.292   2.055   8.712 -1.1011 -0.8519  0.3932
64320SOL     OW10951   3.684  11.252  13.813 -0.8278  0.0257 -0.3309
64320SOL    HW110952   3.650  11.339  13.793 -0.5653  0.5985  1.5316
64320SOL    HW210953   3.777  11.257  13.791 -1.0753 -0.2304 -1.4941
64321SOL     OW10954  12.498  14.008   8.531  0.2175  0.0682  0.6272
64321SOL    HW110955  12.405  14.025   8.549  0.5436  0.3598  2.1679
64321SOL    HW210956  12.531  13.966   8.610  1.3862 -0.1274  0.0599
64322SOL     OW10957   1.448   9.902   8.054  0.0638 -0.3431  0.3821
64322SOL    HW110958   1.492   9.902   8.139  2.2798 -0.0218 -0.7019
64322SOL    HW210959   1.480   9.823   8.011 -0.2157  0.0545 -0.5722
64323SOL     OW10960   6.657   7.692  13.035  0.3767 -0.1276 -0.0959
64323SOL    HW110961   6.600   7.642  13.093  0.1882 -0.3573 -0.4734
64323SOL    HW210962   6.714   7.625  12.996  1.1551  0.1348  0.5487
64324SOL     OW10963   1.657  10.250  13.605  0.1505 -0.4904  0.1269
64324SOL    HW110964   1.649  10.238  13.510  0.2411 -1.5512  0.2417
64324SOL    HW210965   1.728  10.314  13.615  0.3121 -0.5635 -0.5151
64325SOL     OW10966   0.258   4.761   9.632  0.4258 -0.0542  0.0779
64325SOL    HW110967   0.183   4.777   9.575 -0.6782 -0.6212  1.3315
64325SOL    HW210968   0.240   4.814   9.710  1.2930 -0.2718  0.4342
64326SOL     OW10969   2.719   0.199  13.707 -0.0658 -0.4081  0.0226
64326SOL    HW110970   2.688   0.108  13.701  0.0036 -0.4236 -0.0981
64326SOL    HW210971   2.775   0.200  13.784 -1.5716 -0.0319  1.1488
64327SOL     OW10972   5.449   3.175   3.627  0.2763  0.1866 -0.0865
64327SOL    HW110973   5.403   3.244   3.579  0.9345 -0.4628 -1.7543
64327SOL    HW210974   5.507   3.222   3.687 -0.5250  1.0439  0.0257
64328SOL     OW10975   7.500   3.295  10.476 -0.5760  0.2019  0.5808
64328SOL    HW110976   7.485   3.370  10.418 -0.2521  0.3297  0.6577
64328SOL    HW210977   7.582   3.316  10.521 -1.3525  0.5946  1.8683
64329SOL     OW10978  11.919   1.220  10.856  0.5878  0.2442  0.4072
64329SOL    HW110979  11.939   1.190  10.944  1.0935  0.8740  0.5180
64329SOL    HW210980  11.990   1.184  10.802 -1.9856 -3.9458 -0.6259
64330SOL     OW10981   9.075   9.068   2.210 -0.4057  0.1758 -0.4132
64330SOL    HW110982   9.054   9.154   2.172  1.5660  0.2548 -1.4891
64330SOL    HW210983   9.087   9.085   2.303  0.8316  1.2845 -0.7424
64331SOL     OW10984   5.294   0.994  11.253  0.3174 -0.3299 -0.1634
64331SOL    HW110985   5.257   0.921  11.304 -1.2455  0.6415  0.1321
64331SOL    HW210986   5.261   0.981  11.165  1.1666 -0.7200 -0.4395
64332SOL     OW10987   4.052  10.893   1.258 -0.4606 -0.1054 -0.5370
64332SOL    HW110988   4.057  10.821   1.321  2.2022 -1.6355 -2.2732
64332SOL    HW210989   4.021  10.852   1.177 -1.4140  1.2928 -0.9245
64333SOL     OW10990   2.810  13.008   2.071  0.4493 -0.7931  0.9568
64333SOL    HW110991   2.822  12.968   2.158  1.8685  1.1643  1.7343
64333SOL    HW210992   2.898  13.037   2.046  0.0583 -1.3062 -1.1719
64334SOL     OW10993   5.596  13.623   8.755  0.7391 -0.3906  1.2444
64334SOL    HW110994   5.674  13.633   8.700  0.7125 -0.9896  1.0930
64334SOL    HW210995   5.554  13.544   8.723  0.0908 -0.1018  1.3626
64335SOL     OW10996   5.018   6.641  11.408 -0.2021 -0.1717 -0.1622
64335SOL    HW110997   5.110   6.623  11.427 -0.5808 -0.8528  1.1322
64335SOL    HW210998   5.020   6.701  11.334  1.3523  1.6161  1.2522
64336SOL     OW10999   8.184   7.058   3.477 -0.1758  0.0505 -0.2235
64336SOL    HW111000   8.187   7.037   3.384 -0.6894  1.5643 -0.5944
64336SOL    HW211001   8.269   7.099   3.495  0.0510 -0.5306  0.0588
64337SOL     OW11002  13.685   4.253   2.252 -0.4129  0.1684 -0.1819
64337SOL    HW111003  13.714   4.247   2.343 -0.4352 -0.2157 -0.1996
64337SOL    HW211004  13.603   4.204   2.249  0.1141 -0.6992 -0.6297
64338SOL     OW11005   8.484   1.480   6.170 -0.4280 -0.2060 -0.0429
64338SOL    HW111006   8.451   1.412   6.112 -0.8485 -0.5273  0.5616
64338SOL    HW211007   8.491   1.558   6.114  1.0195 -0.9739 -0.9878
64339SOL     OW11008   9.571   6.709   5.774 -0.3215  0.2111  0.2213
64339SOL    HW111009   9.504   6.771   5.802  0.3640  1.0359  0.0707
64339SOL    HW211010   9.529   6.623   5.782 -1.4677  0.7279 -0.1218
64340SOL     OW11011   6.401  12.818   9.619  0.4911  0.4073  0.0692
64340SOL    HW111012   6.393  12.802   9.525 -0.9041 -1.4495  0.4434
64340SOL    HW211013   6.315  12.850   9.645  0.4770 -0.2953  0.9077
64341SOL     OW11014   2.099  11.383   8.921 -0.6701  0.3213  0.1229
64341SOL    HW111015   2.140  11.424   8.996 -0.2777  1.8066 -0.8701
64341SOL    HW211016   2.033  11.324   8.959  1.8034 -1.6057  1.7213
64342SOL     OW11017  13.106   0.858   6.550  0.1025  0.2336 -1.0123
64342SOL    HW111018  13.132   0.808   6.473 -0.5011  1.5275 -2.0938
64342SOL    HW211019  13.011   0.844   6.558  0.2849 -0.5322 -0.0149
64343SOL     OW11020   8.788  10.879   8.756  0.2804  0.6007  0.0668
64343SOL    HW111021   8.865  10.892   8.812 -0.2367  2.2312  0.4478
64343SOL    HW211022   8.824  10.846   8.674  1.2458  0.0610  0.6829
64344SOL     OW11023   7.757  12.338  12.476 -0.1459  0.5446 -0.1316
64344SOL    HW111024   7.761  12.324  12.571  3.0044  1.8735  0.0361
64344SOL    HW211025   7.750  12.432  12.465 -0.8921  0.3840 -1.2667
64345SOL     OW11026   0.293   7.083   1.393 -0.1090  0.0818 -0.0320
64345SOL    HW111027   0.210   7.111   1.354  0.1946  3.3931  1.3531
64345SOL    HW211028   0.276   7.084   1.487  1.1360 -0.5791  0.2163
64346SOL     OW11029  13.156   7.309   0.280  0.0942 -0.7418 -0.4223
64346SOL    HW111030  13.182   7.366   0.207  0.2475 -1.1992 -0.7345
64346SOL    HW211031  13.229   7.247   0.288 -1.0534 -2.3451 -1.6206
64347SOL     OW11032   7.345  10.287   4.787  0.2246  0.2151 -0.6711
64347SOL    HW111033   7.384  10.255   4.706  0.5571  0.7021 -0.7037
64347SOL    HW211034   7.389  10.238   4.856  1.3257  1.1694 -0.6680
64348SOL     OW11035   4.452   9.734   2.633  0.3634  0.1413 -0.3199
64348SOL    HW111036   4.531   9.775   2.598  0.1170 -0.7293 -1.9876
64348SOL    HW211037   4.382   9.796   2.614  0.5269  0.6258  0.5919
64349SOL     OW11038  12.867   0.352   4.991  0.1847 -0.6264 -0.2765
64349SOL    HW111039  12.865   0.360   5.087 -0.3825  0.9589 -0.3958
64349SOL    HW211040  12.960   0.348   4.970  0.3809  0.7892  0.2342
64350SOL     OW11041   3.626   0.738  11.989  0.0493 -0.3303  0.2308
64350SOL    HW111042   3.694   0.670  11.989  0.5401  0.1424 -0.5272
64350SOL    HW211043   3.622   0.768  12.079  0.0674 -1.1288  0.5063
64351SOL     OW11044   6.273   5.771   6.799 -0.2113  0.0622  0.1501
64351SOL    HW111045   6.207   5.834   6.828  0.1783 -0.0170  1.2314
64351SOL    HW211046   6.243   5.743   6.712 -0.4735  1.6265 -0.2940
64352SOL     OW11047   5.885  13.544   7.722 -0.1248  0.1622 -0.4733
64352SOL    HW111048   5.861  13.452   7.727 -1.2876  0.4985  0.8725
64352SOL    HW211049   5.823  13.588   7.781  0.7589  1.7258 -0.6591
64353SOL     OW11050   5.239   0.981   3.040  0.2893  0.3342  0.6319
64353SOL    HW111051   5.253   0.897   3.084  0.2838  0.3226  0.6116
64353SOL    HW211052   5.185   0.959   2.964 -0.4463  0.4825  1.0957
64354SOL     OW11053  13.786  13.725   0.706 -0.4588 -0.1681  0.1157
64354SOL    HW111054  13.698  13.737   0.668 -0.0370 -0.2087 -0.9193
64354SOL    HW211055  13.792  13.632   0.724 -0.7021 -0.1334  0.3835
64355SOL     OW11056   4.198   5.520  13.738 -0.3799  0.0790 -0.8402
64355SOL    HW111057   4.105   5.523  13.757 -0.1667  0.5634  0.1788
64355SOL    HW211058   4.241   5.531  13.823  0.6052 -0.6092 -1.2320
64356SOL     OW11059  13.844   6.260   9.203 -0.2037 -0.3989 -0.3223
64356SOL    HW111060  13.881   6.324   9.264 -1.7284  0.0322  0.1979
64356SOL    HW211061  13.882   6.283   9.118  0.3624  0.2977  0.1106
64357SOL     OW11062  13.523   4.350   2.947 -0.5330  0.5581 -0.0453
64357SOL    HW111063  13.456   4.377   3.011  0.1680  0.9225  0.5535
64357SOL    HW211064  13.590   4.418   2.953  0.4831 -0.4394  0.2635
64358SOL     OW11065  12.799   7.884   3.323  0.1394 -0.1803  0.0365
64358SOL    HW111066  12.791   7.930   3.406  0.7553  1.2418 -0.6517
64358SOL    HW211067  12.741   7.932   3.264  1.2190  0.0957 -0.8401
64359SOL     OW11068   1.308   2.613   3.242 -0.0350  0.4590 -0.6067
64359SOL    HW111069   1.295   2.537   3.185  1.9527  0.1679 -0.7642
64359SOL    HW211070   1.249   2.597   3.316 -2.3810  0.6586 -2.3140
64360SOL     OW11071   5.636   1.213   8.140 -0.3071  0.5324  0.2611
64360SOL    HW111072   5.636   1.177   8.228 -1.1731  1.3602  0.6232
64360SOL    HW211073   5.654   1.138   8.083 -0.8385 -0.2243  1.0617
64361SOL     OW11074  10.557   4.316   0.368 -0.1357 -0.3176  0.4991
64361SOL    HW111075  10.556   4.394   0.313  1.4782 -0.3227  0.4160
64361SOL    HW211076  10.560   4.243   0.306  1.1049 -0.3414  0.5735
64362SOL     OW11077   4.258   1.821   1.974 -0.2053  0.8879  0.2483
64362SOL    HW111078   4.302   1.744   2.009 -1.0965 -0.2601 -1.0672
64362SOL    HW211079   4.187   1.839   2.036 -1.4439 -0.7964 -0.6264
64363SOL     OW11080   5.898  10.581   8.803 -0.0037  0.0469 -0.0020
64363SOL    HW111081   5.954  10.633   8.746  0.4561 -1.4673 -1.0051
64363SOL    HW211082   5.827  10.640   8.828  1.4130  1.6820  0.4072
64364SOL     OW11083   5.825  10.097   0.825 -0.0522  0.1414 -0.0398
64364SOL    HW111084   5.757  10.043   0.867 -0.1381  1.8851  2.2241
64364SOL    HW211085   5.897  10.036   0.808 -1.6592 -1.4991 -1.3865
64365SOL     OW11086  11.694  13.005   3.669 -0.3266  0.2724 -0.3332
64365SOL    HW111087  11.697  12.934   3.733 -1.4814  0.6923  0.2093
64365SOL    HW211088  11.769  12.988   3.611 -0.2731 -1.0853  0.0940
64366SOL     OW11089  12.013   6.907  14.128  0.5666 -0.1124  0.6429
64366SOL    HW111090  12.041   6.944  14.212  0.0616 -0.3943  0.9441
64366SOL    HW211091  12.079   6.840  14.108 -0.0697 -1.0537  1.5443
64367SOL     OW11092   4.657   5.287  12.858  0.3199 -0.2031 -0.2156
64367SOL    HW111093   4.566   5.311  12.837  0.2969  1.2500  1.3563
64367SOL    HW211094   4.709   5.326  12.788 -0.2545 -1.2533 -1.2626
64368SOL     OW11095   2.442  12.074   1.847 -0.1839 -0.5380 -0.5817
64368SOL    HW111096   2.395  12.069   1.930  0.0086  0.3275 -0.4162
64368SOL    HW211097   2.474  11.985   1.833  1.0402 -0.4172  1.0272
64369SOL     OW11098  13.666   2.572   4.176 -0.1346  0.6432 -0.4933
64369SOL    HW111099  13.708   2.501   4.226 -0.8463 -1.2484 -2.4222
64369SOL    HW211100  13.599   2.606   4.235 -0.1852 -0.7150  0.2908
64370SOL     OW11101   9.835   7.792  11.164  0.4134 -0.3781  0.3200
64370SOL    HW111102   9.926   7.820  11.172  0.7201 -1.2508 -0.0346
64370SOL    HW211103   9.836   7.700  11.191 -0.7761  0.2133  2.6432
64371SOL     OW11104   5.459  10.773  11.181  0.3262  0.3573  0.3251
64371SOL    HW111105   5.370  10.797  11.154  0.0945  0.5466  1.2147
64371SOL    HW211106   5.512  10.784  11.102 -0.1505  1.8613  0.1766
64372SOL     OW11107   3.985   7.233   9.179  0.0117 -0.3795 -0.7780
64372SOL    HW111108   3.981   7.226   9.083 -0.1598  0.0292 -0.8030
64372SOL    HW211109   3.997   7.143   9.208  0.4666 -0.4614 -1.2012
64373SOL     OW11110   2.798   4.460   6.720 -0.6578 -0.3556 -0.1725
64373SOL    HW111111   2.830   4.427   6.804  0.7689  0.9221 -0.1847
64373SOL    HW211112   2.717   4.507   6.742  1.5746  3.2380  1.1994
64374SOL     OW11113   6.698   8.062   1.621 -0.3166  0.3203  0.1099
64374SOL    HW111114   6.700   8.021   1.534 -0.5714 -2.2613  1.2220
64374SOL    HW211115   6.765   8.015   1.671 -1.7608  0.0792  1.9501
64375SOL     OW11116  12.273  11.890  11.766  0.2444  0.0214  0.6717
64375SOL    HW111117  12.213  11.965  11.767 -0.7462 -0.7429  0.3148
64375SOL    HW211118  12.339  11.913  11.700  0.2044  0.7561  0.8780
64376SOL     OW11119   8.981   9.123   4.653 -0.1044  0.3826 -0.7051
64376SOL    HW111120   8.996   9.140   4.746  0.5875 -0.2966 -0.6869
64376SOL    HW211121   8.889   9.098   4.648  0.0955 -0.5392 -0.0526
64377SOL     OW11122   7.347  10.247   9.891  0.0725  0.3349  0.0378
64377SOL    HW111123   7.366  10.222   9.800 -0.9635  0.3029 -0.1877
64377SOL    HW211124   7.309  10.168   9.930  0.5128  0.3507  0.5005
64378SOL     OW11125   8.862  13.738   8.068 -0.1419  0.5482 -0.2618
64378SOL    HW111126   8.794  13.708   8.129 -0.2191 -0.2786 -0.7429
64378SOL    HW211127   8.815  13.754   7.986  0.2481 -0.1136 -0.6252
64379SOL     OW11128   1.144   6.002  13.055 -0.4497  0.7187  1.1833
64379SOL    HW111129   1.146   6.041  12.967 -1.1987  1.1117  1.3381
64379SOL    HW211130   1.083   6.056  13.104  0.0220  0.5416  1.9753
64380SOL     OW11131   9.740   1.701   1.135  0.2603 -0.1644 -0.1631
64380SOL    HW111132   9.752   1.787   1.096  2.2412 -0.0303  0.6625
64380SOL    HW211133   9.732   1.642   1.060  0.8612  0.4848 -0.7445
64381SOL     OW11134  11.126  11.607   5.934  0.5410  0.1297  0.2318
64381SOL    HW111135  11.097  11.626   6.023  1.0694  0.3660  0.3588
64381SOL    HW211136  11.045  11.601   5.883  0.2727  0.9582  0.5428
64382SOL     OW11137   7.762   2.757  10.013 -0.0777 -0.6232  0.1311
64382SOL    HW111138   7.722   2.771  10.099  0.4659 -2.5815  0.7611
64382SOL    HW211139   7.699   2.702   9.967 -0.0003 -0.2414 -0.4351
64383SOL     OW11140   0.125  10.979  11.958 -0.0261 -0.0350  0.4688
64383SOL    HW111141   0.152  10.994  12.049  0.3832 -1.7378  0.6702
64383SOL    HW211142   0.069  10.901  11.963  2.0292 -1.7013 -1.0160
64384SOL     OW11143   8.267   7.406   9.122  0.1861  0.1024  0.0252
64384SOL    HW111144   8.316   7.454   9.055  1.0595  0.8824  1.1880
64384SOL    HW211145   8.201   7.468   9.153  0.2764  0.0081  0.4138
64385SOL     OW11146   5.945  10.422   4.871 -0.4876  0.5022 -0.0829
64385SOL    HW111147   5.868  10.451   4.823  0.2862  1.9651 -0.5077
64385SOL    HW211148   5.945  10.475   4.951 -0.4547 -0.1937  0.3890
64386SOL     OW11149   2.839   2.021  13.051 -0.1812  0.0688  0.5371
64386SOL    HW111150   2.922   2.005  13.095 -0.1053 -1.3834 -0.0637
64386SOL    HW211151   2.790   1.940  13.061 -1.4996  0.8617  0.7801
64387SOL     OW11152  10.790  12.821   1.147 -0.2648 -0.0369  0.1521
64387SOL    HW111153  10.819  12.911   1.163  0.3765 -0.4319  1.3066
64387SOL    HW211154  10.862  12.781   1.098 -1.8464  0.9128 -3.2642
64388SOL     OW11155   1.906   3.024   8.887 -0.5670  0.0569 -0.3521
64388SOL    HW111156   1.838   2.958   8.899  0.5133 -0.9137  0.7470
64388SOL    HW211157   1.949   2.998   8.805 -0.5730 -0.2241 -0.2698
64389SOL     OW11158   4.283   8.234   8.061 -0.4493  0.0598  0.2622
64389SOL    HW111159   4.209   8.261   8.114 -0.6341  1.5421 -0.6879
64389SOL    HW211160   4.360   8.261   8.112 -0.5552 -0.8503  0.9268
64390SOL     OW11161  13.216  13.056   5.969 -0.3143  0.0024  0.0380
64390SOL    HW111162  13.196  13.149   5.958  1.4298  0.4693  0.4829
64390SOL    HW211163  13.305  13.055   6.004  0.5327 -1.9090 -1.9975
64391SOL     OW11164   4.266   5.926   1.292  0.1203 -0.1845 -0.7154
64391SOL    HW111165   4.281   6.012   1.331  0.4211 -0.3221 -0.5249
64391SOL    HW211166   4.185   5.895   1.332  0.3126 -0.2321 -0.3573
64392SOL     OW11167   1.593   8.197   8.682  0.1357 -0.1987 -0.5497
64392SOL    HW111168   1.672   8.219   8.633 -0.3762 -1.2965 -1.9388
64392SOL    HW211169   1.522   8.206   8.619 -0.5794 -1.3964  0.0374
64393SOL     OW11170   3.343  12.881   3.341  0.0273  0.0921  0.8486
64393SOL    HW111171   3.320  12.873   3.249  0.9720 -0.7529  0.6572
64393SOL    HW211172   3.282  12.946   3.377 -1.5633 -0.9288  0.0675
64394SOL     OW11173   0.290   1.646   2.092  0.5123  0.2026  0.1270
64394SOL    HW111174   0.291   1.690   2.177  1.1617 -2.0725  1.3769
64394SOL    HW211175   0.223   1.578   2.101  0.9856 -0.4329 -0.9817
64395SOL     OW11176   4.789   0.159  12.100  0.4231  0.1382 -0.3990
64395SOL    HW111177   4.799   0.122  12.012  0.3323 -0.0600 -0.3268
64395SOL    HW211178   4.878   0.176  12.129  0.4861 -0.3821 -0.2823
64396SOL     OW11179   8.091  13.204   2.041 -0.1600  0.0606  0.8912
64396SOL    HW111180   8.028  13.212   2.112 -1.8513 -1.4223 -0.3370
64396SOL    HW211181   8.038  13.209   1.961  1.3526 -0.6156 -0.2102
64397SOL     OW11182   6.493   5.249  10.581 -0.0010  0.3532  0.1365
64397SOL    HW111183   6.482   5.155  10.597  0.6446 -0.2177 -2.4091
64397SOL    HW211184   6.579   5.269  10.618  1.2485 -0.8068 -1.9821
64398SOL     OW11185   0.309   2.749   7.461  0.0635  0.0660 -0.4524
64398SOL    HW111186   0.389   2.702   7.440  1.2688  0.4355  2.7084
64398SOL    HW211187   0.241   2.681   7.462  1.1032 -1.0139  0.5254
64399SOL     OW11188   0.813   4.499  12.090  0.7743  0.0445  0.0393
64399SOL    HW111189   0.793   4.478  11.999 -0.1981  0.6494  0.0960
64399SOL    HW211190   0.783   4.422  12.139 -0.2850  0.4082 -0.0065
64400SOL     OW11191   4.447  13.500   4.197  0.5098  0.2291  0.0996
64400SOL    HW111192   4.490  13.575   4.239 -0.1112  1.2054 -0.9474
64400SOL    HW211193   4.517  13.459   4.145  0.7351  0.4015  0.2620
64401SOL     OW11194  13.945   9.848  12.292 -0.3233  0.0604 -0.0385
64401SOL    HW111195  13.937   9.900  12.213  0.7473 -0.8128 -0.7477
64401SOL    HW211196  13.916   9.760  12.266 -0.9743  0.0037  0.8248
64402SOL     OW11197   7.170  11.862   0.020 -0.3211 -0.7787  0.3162
64402SOL    HW111198   7.107  11.823   0.081  1.0648 -0.9973  1.6814
64402SOL    HW211199   7.242  11.800   0.017  0.4198  0.0793 -0.1463
64403SOL     OW11200   7.329   0.779   0.232  0.5019 -0.7103 -0.4009
64403SOL    HW111201   7.379   0.808   0.308 -1.0304  0.5645  0.1806
64403SOL    HW211202   7.357   0.689   0.218  1.8710 -0.5122  0.7719
64404SOL     OW11203  11.078  10.303  10.133  0.6113 -0.0954 -0.3024
64404SOL    HW111204  11.027  10.375  10.095 -1.0082  0.0581  1.9740
64404SOL    HW211205  11.021  10.227  10.127  0.7827 -0.3155  0.7119
64405SOL     OW11206   7.068  10.382   4.698 -0.2866 -0.4860 -0.5235
64405SOL    HW111207   7.098  10.296   4.728  1.3233  0.0722 -0.3919
64405SOL    HW211208   7.149  10.431   4.685 -1.1748  0.9608 -0.7554
64406SOL     OW11209  11.930   9.059   8.059 -0.3052 -0.1408 -0.4857
64406SOL    HW111210  11.963   9.148   8.046 -0.4588  0.3059  1.7277
64406SOL    HW211211  11.838   9.063   8.034 -0.0676  0.0448 -1.3571
64407SOL     OW11212   9.649   6.549   6.473  0.0030  0.5645 -0.1377
64407SOL    HW111213   9.717   6.494   6.434 -0.8938 -1.3770  0.8941
64407SOL    HW211214   9.697   6.622   6.512  1.3502  0.0109 -0.7019
64408SOL     OW11215   0.033   0.582   0.108  0.3777 -0.1355 -0.7614
64408SOL    HW111216   0.019   0.636   0.031 -0.5202 -0.1927 -0.6542
64408SOL    HW211217   0.037   0.492   0.074  0.0001 -0.1592 -0.7441
64409SOL     OW11218   4.737  11.545  11.324 -0.1614 -0.5628  0.6974
64409SOL    HW111219   4.816  11.492  11.322  0.9387  0.9967  0.8615
64409SOL    HW211220   4.718  11.557  11.417 -0.6452 -0.9777  0.6591
64410SOL     OW11221   3.934   9.546  11.459  0.2616 -0.7608 -0.7087
64410SOL    HW111222   3.874   9.520  11.389 -0.0037  0.6221 -1.0158
64410SOL    HW211223   3.979   9.465  11.482  0.8168 -1.1510 -2.9044
64411SOL     OW11224   1.667   6.166   1.617  0.1629  0.3833 -0.3118
64411SOL    HW111225   1.582   6.209   1.605  0.7358  1.0599 -2.5348
64411SOL    HW211226   1.696   6.145   1.528  2.0560 -0.3876  0.4237
64412SOL     OW11227   7.040   5.067   1.066  0.0246 -0.6174 -0.3516
64412SOL    HW111228   7.122   5.067   1.016  0.5944 -0.3063  0.5630
64412SOL    HW211229   7.031   4.976   1.097  0.9104 -0.2938  0.9352
64413SOL     OW11230   5.867  10.553   1.668  0.6617 -0.0069 -0.0421
64413SOL    HW111231   5.874  10.587   1.579 -0.0040  0.9204  0.2533
64413SOL    HW211232   5.926  10.608   1.720 -0.1293  0.4691  0.3681
64414SOL     OW11233   9.482   3.694  12.911  0.0279 -0.0994 -0.1662
64414SOL    HW111234   9.522   3.749  12.977 -0.0903  0.5227 -0.6059
64414SOL    HW211235   9.399   3.665  12.951 -0.7600  1.4794 -0.5818
64415SOL     OW11236   0.812  11.724   8.712 -0.6656  0.3441  0.0070
64415SOL    HW111237   0.771  11.774   8.782 -1.9169 -0.4603 -0.1158
64415SOL    HW211238   0.898  11.764   8.700 -1.2225  1.7608  0.6226
64416SOL     OW11239   6.624   7.381   1.834  0.3962  0.1210 -0.0237
64416SOL    HW111240   6.715   7.372   1.806  0.5907 -0.7029  0.8104
64416SOL    HW211241   6.575   7.321   1.778  0.5505 -0.3421  0.3327
64417SOL     OW11242   3.558  10.544  11.894  0.1652 -0.1313  0.0071
64417SOL    HW111243   3.576  10.615  11.833  1.8427 -0.1553  0.4203
64417SOL    HW211244   3.464  10.529  11.887  0.1373  0.6541 -1.6791
64418SOL     OW11245   6.105   2.851  11.455  0.0479  0.2257 -0.1301
64418SOL    HW111246   6.180   2.817  11.504  0.0865 -1.0847 -1.0602
64418SOL    HW211247   6.029   2.832  11.511  0.2476  0.1322  0.1128
64419SOL     OW11248   3.771   2.952  13.294  0.0047 -0.0149 -0.2600
64419SOL    HW111249   3.841   2.898  13.257  0.8823  0.2055  1.0230
64419SOL    HW211250   3.780   3.036  13.249  0.4204 -0.0632 -0.2723
64420SOL     OW11251  14.025   7.557  13.839 -0.1936 -0.4560  0.2238
64420SOL    HW111252  13.986   7.644  13.834 -1.0327 -0.8929 -1.4239
64420SOL    HW211253  14.050   7.548  13.931 -0.1632  1.4720  0.4477
64421SOL     OW11254   7.637  14.150   7.265 -0.0598  0.3928  0.8609
64421SOL    HW111255   7.580  14.118   7.334  0.0594 -0.3137  0.6404
64421SOL    HW211256   7.704  14.082   7.256  1.8416  1.9834  2.3059
64422SOL     OW11257   1.364   6.509   7.423 -0.1207  0.6073  0.9070
64422SOL    HW111258   1.311   6.466   7.357 -0.0956 -0.9787  1.8472
64422SOL    HW211259   1.352   6.603   7.408 -1.3363  0.2774 -0.3371
64423SOL     OW11260   8.347   3.504   1.689  0.1169 -0.2921 -0.5739
64423SOL    HW111261   8.343   3.592   1.727  0.6676 -0.4789 -0.0558
64423SOL    HW211262   8.439   3.479   1.699 -0.4651 -1.8597  1.4720
64424SOL     OW11263  13.687   4.306   4.330 -0.1052 -0.2553  0.3512
64424SOL    HW111264  13.659   4.394   4.304  0.2280 -0.0252  0.7600
64424SOL    HW211265  13.660   4.299   4.422 -0.8648 -0.8903  0.0940
64425SOL     OW11266  11.600   6.176   8.066 -0.0724  0.5387 -0.5291
64425SOL    HW111267  11.537   6.228   8.015 -0.8251  1.1238  0.9132
64425SOL    HW211268  11.672   6.237   8.084 -1.2622  1.4179  1.7402
64426SOL     OW11269   9.978   2.440  10.151 -0.8964 -0.0882  0.3887
64426SOL    HW111270  10.001   2.476  10.065 -0.6417 -0.4327  0.3086
64426SOL    HW211271   9.890   2.473  10.168  0.0249  2.1569  1.1862
64427SOL     OW11272   5.942   8.360   6.172 -0.0526 -0.2491 -0.1731
64427SOL    HW111273   5.959   8.308   6.093  0.3342  1.6263 -1.3764
64427SOL    HW211274   6.023   8.353   6.222  0.3631 -0.0346 -0.7963
64428SOL     OW11275   7.074   4.750  13.798 -0.2992 -0.0561  0.4865
64428SOL    HW111276   7.100   4.744  13.707 -3.0792  3.4229 -0.7999
64428SOL    HW211277   7.155   4.742  13.848  1.3559 -1.6512 -2.2564
64429SOL     OW11278  13.037   6.716  12.141  0.2664 -0.3394  0.1778
64429SOL    HW111279  13.017   6.640  12.195 -1.3576  0.0501  0.1919
64429SOL    HW211280  13.022   6.791  12.198  3.2767  0.0191  0.6108
64430SOL     OW11281  12.934   4.356  12.621 -0.2557 -0.4377  0.2141
64430SOL    HW111282  13.012   4.408  12.642  0.0931 -0.4422 -1.0157
64430SOL    HW211283  12.863   4.420  12.617 -0.4269 -0.4837  1.7409
64431SOL     OW11284  12.472   3.702  12.306  0.3291 -0.4729  0.2900
64431SOL    HW111285  12.444   3.719  12.216  0.1777 -1.3663  0.1561
64431SOL    HW211286  12.446   3.780  12.355 -0.3329 -0.3222 -0.2868
64432SOL     OW11287   8.437   0.928  11.061 -0.5548 -0.2805 -0.6944
64432SOL    HW111288   8.420   0.883  11.144  0.0491  2.1779  0.8948
64432SOL    HW211289   8.358   0.914  11.009 -1.6192 -0.5903  0.9325
64433SOL     OW11290   9.039   8.910   3.441  0.2460 -0.0728 -0.0710
64433SOL    HW111291   9.064   8.996   3.407  0.2222 -0.4075 -0.9428
64433SOL    HW211292   9.116   8.855   3.427 -0.1420 -0.4917 -0.5803
64434SOL     OW11293   9.813   6.652   3.031  0.1630  0.2346 -0.0290
64434SOL    HW111294   9.895   6.657   2.982 -0.5843  1.4768 -1.2517
64434SOL    HW211295   9.745   6.650   2.963 -0.8628  0.8096  0.9467
64435SOL     OW11296  12.044   1.284   7.019 -0.6173  0.3168 -0.3045
64435SOL    HW111297  12.048   1.198   6.978  0.6073  0.6525 -0.9299
64435SOL    HW211298  12.109   1.282   7.088 -0.7702  0.6578 -0.1456
64436SOL     OW11299  10.079   0.831  12.222 -0.0168 -0.0460  0.1074
64436SOL    HW111300  10.104   0.844  12.131 -1.0350  0.3038 -0.1338
64436SOL    HW211301   9.998   0.780  12.217  0.1588 -0.4089  0.8319
64437SOL     OW11302   9.554  11.253   6.797 -0.2094  0.1354 -0.0418
64437SOL    HW111303   9.517  11.275   6.712 -0.4942 -1.0734 -0.2481
64437SOL    HW211304   9.556  11.157   6.798 -2.3265  0.0047  2.1813
64438SOL     OW11305   8.363   1.937  12.954  0.4571 -0.0016  0.5166
64438SOL    HW111306   8.450   1.955  12.991  0.1930  0.2380  1.0320
64438SOL    HW211307   8.376   1.858  12.901  1.2716  0.7435 -0.4353
64439SOL     OW11308   0.357  13.521   9.656 -0.6306  0.1498 -0.2396
64439SOL    HW111309   0.265  13.514   9.681 -0.5292 -0.4291 -0.0114
64439SOL    HW211310   0.363  13.478   9.571 -0.2055 -1.7385  0.6792
64440SOL     OW11311   9.098   0.026  13.902  0.4264 -0.2518 -0.4077
64440SOL    HW111312   9.101   0.102  13.959  1.6235 -0.3449 -0.3292
64440SOL    HW211313   9.069  -0.046  13.959 -0.0622 -0.0016 -0.3327
64441SOL     OW11314   9.943   6.841   7.366  0.1079 -0.2630 -0.0291
64441SOL    HW111315   9.895   6.849   7.448  2.0819  3.2600  1.0279
64441SOL    HW211316   9.896   6.898   7.305  1.3922  1.2395  0.2961
64442SOL     OW11317   7.309   9.158   5.942  0.6201  0.3051 -0.6175
64442SOL    HW111318   7.310   9.250   5.970 -0.4926  0.5093 -1.1824
64442SOL    HW211319   7.343   9.109   6.016 -1.0887  0.9416  0.6441
64443SOL     OW11320   7.487   1.209  12.438 -0.1516 -0.2683 -0.5739
64443SOL    HW111321   7.419   1.225  12.503 -0.2632 -1.0385 -0.4846
64443SOL    HW211322   7.534   1.292  12.431 -0.3199 -0.0896  0.2842
64444SOL     OW11323   0.618   9.586  10.437 -0.0434 -0.2034  0.0685
64444SOL    HW111324   0.687   9.579  10.503 -0.2335  1.6369  0.5150
64444SOL    HW211325   0.609   9.680  10.422 -0.6853 -0.5399 -1.8822
64445SOL     OW11326  10.048  13.952  10.122  0.0506  0.5296 -0.2461
64445SOL    HW111327   9.960  13.923  10.098  0.0350 -0.3429  0.7803
64445SOL    HW211328  10.106  13.911  10.058 -0.0892 -0.7893  0.4475
64446SOL     OW11329   1.845   0.660  12.392  0.3770 -0.3219  0.0972
64446SOL    HW111330   1.880   0.668  12.481 -1.5237 -1.7366  1.0454
64446SOL    HW211331   1.921   0.636  12.339  1.1721 -1.7373  1.7792
64447SOL     OW11332   1.334   0.287   0.948 -0.1638  0.0212 -0.3692
64447SOL    HW111333   1.263   0.343   0.919  0.4757  0.8366 -0.3997
64447SOL    HW211334   1.412   0.321   0.903  0.4034 -0.2702  0.3663
64448SOL     OW11335   0.898   4.466   1.580  0.0924  0.1435 -0.1827
64448SOL    HW111336   0.944   4.550   1.581 -0.3062  0.3680  0.9374
64448SOL    HW211337   0.939   4.417   1.509 -0.1433  1.5440 -1.3346
64449SOL     OW11338   3.795   5.743  10.281 -0.4457  0.5429  0.4103
64449SOL    HW111339   3.859   5.684  10.320  1.3823  1.8879 -0.3976
64449SOL    HW211340   3.790   5.817  10.341  3.0150  3.0327 -1.9773
64450SOL     OW11341   8.845   2.885   1.028  0.1419 -0.2708  0.3882
64450SOL    HW111342   8.917   2.943   1.053  0.9129 -0.6100 -0.9527
64450SOL    HW211343   8.833   2.827   1.103  1.4567 -0.3827  0.5256
64451SOL     OW11344   7.572  12.185   2.079  0.5370  0.2488 -0.3241
64451SOL    HW111345   7.588  12.260   2.022  0.3297  0.2067 -0.4385
64451SOL    HW211346   7.492  12.206   2.126  0.8865  0.4273  0.1984
64452SOL     OW11347  12.413  12.035   1.682  0.1753 -0.0552 -0.0680
64452SOL    HW111348  12.503  12.057   1.709 -0.2327 -0.5942  1.8733
64452SOL    HW211349  12.382  11.975   1.750 -2.0418  0.9859 -0.0940
64453SOL     OW11350   7.468   8.157   5.336  0.4819 -0.0867  0.5983
64453SOL    HW111351   7.556   8.192   5.320  0.7785 -1.9683 -2.9607
64453SOL    HW211352   7.411   8.215   5.285 -0.2572  0.5096  2.0641
64454SOL     OW11353   6.745   0.368   1.958  1.1126 -1.1547  0.2325
64454SOL    HW111354   6.815   0.422   1.995  0.6957 -0.7249  0.4010
64454SOL    HW211355   6.790   0.306   1.901  1.5681 -0.3557 -0.2907
64455SOL     OW11356  13.004   8.498   0.568 -0.5557 -0.0572 -0.0272
64455SOL    HW111357  13.020   8.590   0.550 -0.4144  0.2370  1.4212
64455SOL    HW211358  13.090   8.457   0.562 -0.4089  0.1513  0.5290
64456SOL     OW11359   7.371   2.166   0.189 -0.0880 -0.0507 -0.7123
64456SOL    HW111360   7.343   2.180   0.098  0.2078  2.3703 -0.5154
64456SOL    HW211361   7.304   2.208   0.241  2.4857  3.9252 -0.1422
64457SOL     OW11362   6.324  12.351   6.973 -0.0547 -0.0205  0.0119
64457SOL    HW111363   6.388  12.372   7.041 -0.7675  0.8570  0.4364
64457SOL    HW211364   6.267  12.428   6.969 -1.9212 -1.3007  0.6269
64458SOL     OW11365   5.797  12.260   7.260  0.5981  0.0996  0.6115
64458SOL    HW111366   5.876  12.306   7.231 -0.7116  2.7596  0.9805
64458SOL    HW211367   5.774  12.203   7.187  1.1297  1.6128 -0.7828
64459SOL     OW11368   1.995   4.836   0.519 -0.1002  0.4933  0.0982
64459SOL    HW111369   2.027   4.810   0.606  0.0062  1.7756  0.4577
64459SOL    HW211370   1.902   4.815   0.521  0.5947 -3.8878 -1.1790
64460SOL     OW11371   8.305   5.457  10.795  0.0681  0.5246 -0.1708
64460SOL    HW111372   8.331   5.457  10.703 -0.4151  2.1004 -0.3258
64460SOL    HW211373   8.220   5.500  10.797  0.6786  1.7637  1.1600
64461SOL     OW11374   0.084   2.816  11.953 -0.2801  0.3489  0.2703
64461SOL    HW111375   0.108   2.808  11.861  0.8822  0.3027  0.5608
64461SOL    HW211376  -0.011   2.799  11.955 -0.3585  0.5845 -0.9322
64462SOL     OW11377   6.383   4.425  11.938 -0.0139 -0.4041  0.0667
64462SOL    HW111378   6.326   4.432  11.861  2.2852  2.1669 -1.6089
64462SOL    HW211379   6.404   4.332  11.944 -2.0180 -0.9923 -1.0218
64463SOL     OW11380  12.001   1.616  10.272  0.0817 -0.6591 -0.0379
64463SOL    HW111381  11.988   1.634  10.365 -2.4035 -0.5208 -0.3604
64463SOL    HW211382  11.941   1.675  10.227  2.0327  0.0979 -1.8500
64464SOL     OW11383   0.670   5.846   9.089  0.5642  0.1660  0.2729
64464SOL    HW111384   0.730   5.780   9.055 -0.3793 -0.6715  0.1897
64464SOL    HW211385   0.583   5.817   9.060  0.2264  2.0888 -0.8119
64465SOL     OW11386   3.223   5.991  13.787 -0.2729  0.1195 -0.4255
64465SOL    HW111387   3.190   6.022  13.702 -0.9486 -0.9155 -0.5521
64465SOL    HW211388   3.154   6.014  13.849  0.4142  1.2777 -0.0558
64466SOL     OW11389   7.905  11.116   2.197  0.5537 -0.5187 -0.2621
64466SOL    HW111390   7.893  11.052   2.267 -0.3577 -0.1029 -0.0231
64466SOL    HW211391   7.958  11.185   2.237 -2.5626  1.2785  1.0942
64467SOL     OW11392   9.776   7.842   9.073 -0.0113 -0.7570  0.2346
64467SOL    HW111393   9.724   7.910   9.031  0.1882 -0.8930 -0.2344
64467SOL    HW211394   9.720   7.809   9.143 -0.6473 -1.0606 -0.4093
64468SOL     OW11395   8.389   5.777   3.155 -0.0731 -0.7335 -0.2892
64468SOL    HW111396   8.323   5.762   3.086  0.3003 -0.1765 -0.7761
64468SOL    HW211397   8.472   5.785   3.108  0.2199 -0.5726  0.2440
64469SOL     OW11398   8.309   0.403  13.208  0.0852 -0.0358  0.3752
64469SOL    HW111399   8.325   0.481  13.262 -1.7488  0.5084  0.1937
64469SOL    HW211400   8.351   0.423  13.125  0.3324  0.4016  0.5990
64470SOL     OW11401   2.592   5.973  13.620 -0.5767 -0.0608 -0.4257
64470SOL    HW111402   2.523   5.915  13.650  1.3204 -0.7690  3.2237
64470SOL    HW211403   2.564   6.060  13.649 -0.7809 -0.0611 -0.6227
64471SOL     OW11404  11.624   8.947   0.412 -0.2546 -0.5253 -0.2854
64471SOL    HW111405  11.552   8.922   0.355 -1.3398 -0.6033  1.0520
64471SOL    HW211406  11.676   8.867   0.421  0.2116 -0.3711 -1.5421
64472SOL     OW11407  12.356   4.530  14.076 -0.0775  0.0546  0.0644
64472SOL    HW111408  12.412   4.463  14.116  1.5286  1.6891  0.6957
64472SOL    HW211409  12.412   4.608  14.072 -1.7672  1.2670 -0.9815
64473SOL     OW11410   5.842   0.792  10.963  0.1224  0.0985 -0.4776
64473SOL    HW111411   5.879   0.749  11.040  0.8024 -1.2014 -1.4898
64473SOL    HW211412   5.870   0.883  10.970  0.1597  0.0050  0.8072
64474SOL     OW11413  10.661   2.373   7.188  0.3959  0.2574  0.2113
64474SOL    HW111414  10.648   2.341   7.099  0.8158 -2.1967  0.9493
64474SOL    HW211415  10.756   2.380   7.198  0.5080 -1.6560  1.0720
64475SOL     OW11416   2.270   7.931   0.717  0.1713  0.2277 -0.0384
64475SOL    HW111417   2.242   7.844   0.690  0.6889  0.3443 -0.9896
64475SOL    HW211418   2.193   7.986   0.702 -0.1200 -0.0294  0.4584
64476SOL     OW11419  11.254  13.386   8.719  0.8859  0.4428 -0.3123
64476SOL    HW111420  11.313  13.402   8.793  2.2092  2.3117 -1.6885
64476SOL    HW211421  11.265  13.462   8.662  0.0760 -1.0320 -2.5706
64477SOL     OW11422   9.516   4.306  11.024  0.1275 -0.3313  0.4716
64477SOL    HW111423   9.433   4.352  11.012  1.5574  2.0377 -1.0916
64477SOL    HW211424   9.498   4.217  10.995 -1.6043  0.4038 -0.9269
64478SOL     OW11425  12.845  11.633   0.201 -0.0170  0.2509  0.3110
64478SOL    HW111426  12.843  11.574   0.126 -0.1420 -0.2119  0.6666
64478SOL    HW211427  12.878  11.716   0.167 -0.4842  0.1697 -0.3323
64479SOL     OW11428  10.644   6.815   3.905 -0.1627  0.0578  0.0028
64479SOL    HW111429  10.611   6.790   3.991 -1.0040 -0.4728 -0.4709
64479SOL    HW211430  10.610   6.749   3.845 -0.2386  0.8609 -0.8638
64480SOL     OW11431  10.402   0.367   6.919 -0.3078  0.1515  0.0494
64480SOL    HW111432  10.311   0.342   6.936 -0.6495  1.3221  0.0717
64480SOL    HW211433  10.403   0.386   6.825  0.2963 -1.3123 -0.2535
64481SOL     OW11434   5.114   1.370   0.497 -0.4736 -0.0029  0.0854
64481SOL    HW111435   5.048   1.342   0.433  0.0367 -0.3182 -0.3125
64481SOL    HW211436   5.106   1.465   0.498 -0.9682 -0.0415  0.0743
64482SOL     OW11437  13.234   0.216   8.691  0.3066  0.4101 -0.0553
64482SOL    HW111438  13.150   0.172   8.676  0.9923 -1.3390  0.9179
64482SOL    HW211439  13.240   0.280   8.620 -1.4504 -0.0180 -0.6495
64483SOL     OW11440   4.824  10.167   7.494 -0.2452  0.7905 -0.0246
64483SOL    HW111441   4.833  10.197   7.584  0.3909  1.0421 -0.1617
64483SOL    HW211442   4.759  10.097   7.498  0.4366  0.1733  0.7866
64484SOL     OW11443   3.226   9.425   9.076  0.4148 -0.6445 -0.2288
64484SOL    HW111444   3.176   9.462   9.149 -0.4191  1.8326 -1.9291
64484SOL    HW211445   3.185   9.340   9.059 -2.4168  0.7330 -0.7100
64485SOL     OW11446  13.840   1.232  10.626 -0.0037  0.2733  0.6714
64485SOL    HW111447  13.814   1.141  10.612  1.4693 -0.1304  0.3775
64485SOL    HW211448  13.808   1.278  10.549  1.1504 -0.4392 -0.2781
64486SOL     OW11449  12.085   1.181   0.579 -0.2077  0.0285 -0.0026
64486SOL    HW111450  12.026   1.249   0.611  1.5226  0.4935  2.4439
64486SOL    HW211451  12.044   1.150   0.498 -2.4133  2.1072  0.2138
64487SOL     OW11452   6.202   0.130   8.663  0.1105  0.2868 -0.0743
64487SOL    HW111453   6.168   0.176   8.740  0.1493  0.7057 -0.3012
64487SOL    HW211454   6.128   0.129   8.602 -0.4302 -1.4514  0.5559
64488SOL     OW11455   5.969  11.692  11.010  0.0508 -0.0577 -0.7495
64488SOL    HW111456   5.945  11.633  10.938 -1.1325  0.1792 -0.5733
64488SOL    HW211457   5.885  11.723  11.044  0.6341  1.3447 -0.5153
64489SOL     OW11458  12.608  13.760   3.428 -0.4125 -0.5560 -0.3719
64489SOL    HW111459  12.535  13.727   3.376 -1.5953  1.2044  0.0602
64489SOL    HW211460  12.599  13.855   3.423  1.3992 -0.3122  0.3662
64490SOL     OW11461   4.351   0.394   5.862  0.3922  0.2114 -0.3535
64490SOL    HW111462   4.387   0.482   5.867 -1.0286  0.7949  0.1554
64490SOL    HW211463   4.425   0.336   5.881  0.7804  1.3899  2.1015
64491SOL     OW11464   8.926  14.072   6.799 -0.2609 -0.1234 -0.0550
64491SOL    HW111465   9.019  14.085   6.821 -0.2979  0.7407 -0.3663
64491SOL    HW211466   8.890  14.161   6.797 -1.6031 -0.5480  2.1823
64492SOL     OW11467   9.346  11.641   6.917  0.1644 -0.0433  0.0110
64492SOL    HW111468   9.278  11.579   6.890  0.2650 -0.6954  1.1728
64492SOL    HW211469   9.384  11.602   6.996  1.6701  0.4689 -0.4192
64493SOL     OW11470   0.416   3.224   2.667  0.6659 -0.4765  0.2028
64493SOL    HW111471   0.459   3.152   2.621 -0.3149 -0.6853 -0.4155
64493SOL    HW211472   0.383   3.280   2.597  2.3389  1.1839  0.6465
64494SOL     OW11473   8.273  12.160   5.699  0.8608 -0.1070  0.0735
64494SOL    HW111474   8.213  12.235   5.701  0.3142 -0.5505  0.5509
64494SOL    HW211475   8.247  12.106   5.773  1.2573 -0.7748 -0.2631
64495SOL     OW11476   3.592   8.264  12.898 -0.3587  1.0141 -0.3468
64495SOL    HW111477   3.520   8.201  12.891 -0.8081  1.6003 -1.2104
64495SOL    HW211478   3.558   8.343  12.856  0.8701  1.2306 -0.9612
64496SOL     OW11479   8.040  13.252  11.340 -0.2742 -0.2050 -0.3172
64496SOL    HW111480   7.969  13.264  11.277  0.1577  1.3916 -0.5673
64496SOL    HW211481   8.051  13.158  11.347 -1.0424 -0.4377 -1.8434
64497SOL     OW11482   7.854   9.712   9.333 -0.2217 -0.3271  0.3611
64497SOL    HW111483   7.942   9.677   9.321 -0.2034  0.3527 -1.7815
64497SOL    HW211484   7.866   9.789   9.389  0.4997 -0.3575  0.2578
64498SOL     OW11485  13.233   8.726  12.598  0.7356 -0.0282 -0.2781
64498SOL    HW111486  13.205   8.767  12.680 -0.8154 -1.1223 -0.2012
64498SOL    HW211487  13.200   8.636  12.604  2.0607 -0.6172 -1.3914
64499SOL     OW11488   6.786   3.726   8.150 -0.4251 -0.1478 -0.5832
64499SOL    HW111489   6.729   3.734   8.073  1.6579 -2.9570 -2.6304
64499SOL    HW211490   6.746   3.656   8.202 -0.8737  0.5459  0.0292
64500SOL     OW11491   2.194  13.209  13.972 -0.1648 -0.7596 -0.5410
64500SOL    HW111492   2.115  13.222  14.025 -0.8925 -0.2423 -1.7037
64500SOL    HW211493   2.205  13.291  13.925  1.2799 -0.7092 -0.1582
64501SOL     OW11494  13.226   0.444   9.260 -0.3755 -0.6303 -0.3978
64501SOL    HW111495  13.278   0.366   9.279 -0.4763 -0.3439  1.1903
64501SOL    HW211496  13.268   0.482   9.182  1.8846 -0.3628  0.8600
64502SOL     OW11497  13.597   9.763  12.750  0.1933  0.3097 -0.4813
64502SOL    HW111498  13.625   9.724  12.833  2.1172 -0.3179 -1.3582
64502SOL    HW211499  13.677   9.801  12.713 -0.0894 -1.3416 -3.0584
64503SOL     OW11500   3.456   9.282   0.641  0.9374 -0.1158  0.5151
64503SOL    HW111501   3.393   9.351   0.659  0.7293 -0.4964  1.2935
64503SOL    HW211502   3.402   9.204   0.624  1.1725 -0.1475 -0.1238
64504SOL     OW11503   0.799   1.865  13.351 -0.3336 -0.2200  0.1057
64504SOL    HW111504   0.786   1.786  13.298 -0.2330 -0.8253  0.9609
64504SOL    HW211505   0.885   1.853  13.390 -0.5683  0.0357  0.7055
64505SOL     OW11506   2.499  12.822   3.058  0.2581  0.1707 -0.1353
64505SOL    HW111507   2.594  12.826   3.064  0.3128  0.1547 -0.8784
64505SOL    HW211508   2.480  12.840   2.966 -0.4549  0.1501  0.0013
64506SOL     OW11509   5.428   6.474  12.174 -0.4057  0.1382 -0.0764
64506SOL    HW111510   5.484   6.545  12.144  0.4217 -0.7141 -0.6214
64506SOL    HW211511   5.391   6.437  12.093 -1.6546  0.5890  0.2646
64507SOL     OW11512   3.990   3.449   8.973 -0.3998  0.6012 -0.2964
64507SOL    HW111513   3.920   3.385   8.962 -0.4010  0.2764  1.3861
64507SOL    HW211514   4.035   3.423   9.054  0.5226  1.8621 -0.3650
64508SOL     OW11515  13.294  13.777  12.875  0.7453  0.0257  0.4084
64508SOL    HW111516  13.255  13.790  12.962 -0.0330 -0.5095  0.1552
64508SOL    HW211517  13.312  13.865  12.844 -1.6836  0.4316 -0.0659
64509SOL     OW11518  10.548   0.497  14.036 -0.1431 -0.3073  0.6080
64509SOL    HW111519  10.512   0.421  14.081  0.9217 -1.3358 -0.2275
64509SOL    HW211520  10.499   0.571  14.072 -1.8441 -1.4631  0.7718
64510SOL     OW11521   7.026   3.721   2.379 -0.3832 -0.2064  0.0065
64510SOL    HW111522   7.022   3.779   2.303  2.3914  0.9052  0.5490
64510SOL    HW211523   7.009   3.634   2.345  2.0980  0.0596 -2.2484
64511SOL     OW11524   4.181   2.334   2.635 -0.1471 -0.5124  0.3077
64511SOL    HW111525   4.243   2.270   2.599  0.0262  0.4631 -1.2083
64511SOL    HW211526   4.109   2.281   2.669 -0.4505 -1.5043 -1.7422
64512SOL     OW11527   3.688   6.963  11.972  0.3131  0.2920  0.5024
64512SOL    HW111528   3.612   6.914  12.002 -0.5515  0.9219 -0.5619
64512SOL    HW211529   3.745   6.898  11.932  1.0555 -0.4148  2.5807
64513SOL     OW11530   4.562   2.919   7.486 -0.0151 -0.1535 -0.1049
64513SOL    HW111531   4.532   2.837   7.523 -2.0240  0.6743  0.2161
64513SOL    HW211532   4.527   2.986   7.545  1.2260  0.9581 -0.5764
64514SOL     OW11533   0.512  12.775   4.361  0.1941 -0.3160 -0.1571
64514SOL    HW111534   0.450  12.776   4.435  1.2954  1.1288  0.8087
64514SOL    HW211535   0.458  12.798   4.285 -0.4444  1.2442  0.7181
64515SOL     OW11536  12.639  13.203   1.674 -0.1639 -0.1801 -0.4415
64515SOL    HW111537  12.724  13.160   1.662 -1.0939 -1.9264 -1.1739
64515SOL    HW211538  12.595  13.194   1.590 -1.6866 -0.7777  0.3707
64516SOL     OW11539  10.556   0.769  12.998 -0.8322 -0.2026  0.0943
64516SOL    HW111540  10.641   0.746  12.959 -0.1524  1.5880  0.4147
64516SOL    HW211541  10.558   0.728  13.085  0.2232  0.7537  0.5510
64517SOL     OW11542  10.650  12.005   4.374 -0.5962 -0.2720  0.4442
64517SOL    HW111543  10.557  12.013   4.352 -0.0419  2.6785 -1.3607
64517SOL    HW211544  10.688  11.957   4.300 -0.4634 -0.2523  0.5007
64518SOL     OW11545  10.543   9.674  12.429  0.1154  0.1357 -0.5901
64518SOL    HW111546  10.548   9.591  12.477 -0.7676 -0.4649 -1.4978
64518SOL    HW211547  10.593   9.659  12.349 -0.2666  0.3858 -0.8808
64519SOL     OW11548  12.499   9.904   9.523 -0.0148 -0.2794 -0.2131
64519SOL    HW111549  12.457   9.819   9.515 -0.1725 -0.3384  1.0946
64519SOL    HW211550  12.427   9.967   9.526 -0.0045 -0.2894  0.8704
64520SOL     OW11551   3.417   6.099   9.691 -0.4054 -0.0226  0.0188
64520SOL    HW111552   3.447   6.119   9.780 -0.2173  0.8387 -0.2199
64520SOL    HW211553   3.496   6.110   9.637 -0.7697  0.5914 -0.3957
64521SOL     OW11554   6.274   3.057   8.039  0.2067 -0.0653  0.4171
64521SOL    HW111555   6.342   3.032   7.977 -0.0794  0.9576 -0.3362
64521SOL    HW211556   6.192   3.037   7.995  0.0045  0.1837  0.6756
64522SOL     OW11557   8.663   7.720   6.876  0.0421 -0.2837  0.2287
64522SOL    HW111558   8.726   7.790   6.894 -0.0891  0.6462 -2.5500
64522SOL    HW211559   8.620   7.746   6.795 -2.7710 -1.7277  1.1120
64523SOL     OW11560   0.905   1.953  13.640  0.1645 -0.1392  0.2971
64523SOL    HW111561   0.985   1.947  13.589  0.7115  0.5631  1.0532
64523SOL    HW211562   0.899   2.045  13.666 -1.1664 -0.0729 -0.1895
64524SOL     OW11563  12.211   6.919  13.004 -0.6979 -0.3101 -0.1904
64524SOL    HW111564  12.267   6.983  12.960  0.2268 -1.8583 -1.3858
64524SOL    HW211565  12.122   6.939  12.974 -0.6192  1.2477  0.5568
64525SOL     OW11566   2.480  12.227   0.963  0.2134  0.5000 -0.3309
64525SOL    HW111567   2.443  12.251   0.878  0.7507  0.8737 -0.4662
64525SOL    HW211568   2.573  12.252   0.957 -0.0464  1.9063  0.8828
64526SOL     OW11569  12.710   0.013   8.645  0.1461  0.1154  0.1081
64526SOL    HW111570  12.723   0.072   8.571  1.4968  0.2976  0.4547
64526SOL    HW211571  12.673  -0.066   8.607  0.1334  0.4747 -0.6433
64527SOL     OW11572  12.688  13.978   0.685  0.6096 -0.8045  0.5855
64527SOL    HW111573  12.669  13.903   0.742  0.2316 -0.6731  0.6335
64527SOL    HW211574  12.702  14.051   0.745 -1.2660 -0.3215  0.4908
64528SOL     OW11575   0.123  12.092  13.286 -0.6578  0.1449  0.4659
64528SOL    HW111576   0.208  12.049  13.270 -1.3568 -0.9469 -0.4844
64528SOL    HW211577   0.144  12.185  13.285  0.7810 -0.1089  1.7958
64529SOL     OW11578   5.401   4.090   4.600  0.1794 -0.3856  0.3815
64529SOL    HW111579   5.381   4.084   4.507 -0.7403 -0.1207  0.5488
64529SOL    HW211580   5.331   4.041   4.643 -0.1873  0.6439  1.0066
64530SOL     OW11581   5.870  13.311   0.740  0.3354 -0.3329  0.3364
64530SOL    HW111582   5.956  13.332   0.703  0.4436 -0.1621  0.6844
64530SOL    HW211583   5.822  13.394   0.738 -0.6855 -0.8850 -2.0972
64531SOL     OW11584   8.021   2.266   9.359  0.3039  0.5987 -0.2089
64531SOL    HW111585   8.060   2.336   9.412 -0.7430  1.2011 -0.2018
64531SOL    HW211586   7.965   2.218   9.420  2.7953 -1.7863  0.3761
64532SOL     OW11587   6.005  10.970   0.954 -0.2720 -0.0341 -0.4318
64532SOL    HW111588   6.079  11.025   0.977  0.3603 -0.5311 -1.2323
64532SOL    HW211589   5.975  10.933   1.038 -0.0277  0.6659 -0.0311
64533SOL     OW11590   9.165   4.745   3.506 -0.2395 -0.4142 -0.1027
64533SOL    HW111591   9.227   4.672   3.503 -0.0349 -0.2344 -0.2106
64533SOL    HW211592   9.085   4.709   3.466  0.2104 -0.2425 -1.1808
64534SOL     OW11593   5.715  13.383   4.276  0.0315 -0.4471  0.5305
64534SOL    HW111594   5.649  13.353   4.339  0.4216 -1.9516  0.2612
64534SOL    HW211595   5.665  13.398   4.195  0.0783 -2.5855  0.0167
64535SOL     OW11596   2.192   3.671   4.651 -0.2398 -0.5205 -0.8374
64535SOL    HW111597   2.262   3.705   4.596  0.0600 -0.1308 -0.2198
64535SOL    HW211598   2.185   3.733   4.724  0.3424 -1.7777  0.3260
64536SOL     OW11599  10.595   9.074  12.331 -0.3478 -0.3125 -0.0514
64536SOL    HW111600  10.650   9.000  12.305  2.0336  1.2333  0.3096
64536SOL    HW211601  10.654   9.134  12.377 -2.2931  1.5813  0.1651
64537SOL     OW11602  10.735   6.890   3.046  0.0062  0.0543  0.5345
64537SOL    HW111603  10.748   6.961   2.984  0.7552  0.3491  1.0118
64537SOL    HW211604  10.655   6.846   3.017  0.8418 -0.3991 -1.1751
64538SOL     OW11605   1.627   9.624  12.386  0.2392 -0.0344  0.4607
64538SOL    HW111606   1.624   9.531  12.362 -3.1776  0.1771 -0.4457
64538SOL    HW211607   1.557   9.664  12.335  0.5084  2.7614  2.0877
64539SOL     OW11608   4.883  12.363   5.143  0.5582  0.1767  0.1596
64539SOL    HW111609   4.897  12.272   5.116  2.8331  0.4301  0.2794
64539SOL    HW211610   4.929  12.415   5.077 -0.4321  1.2482  0.2766
64540SOL     OW11611  11.745  10.362   0.995  0.7067  0.8432 -0.8008
64540SOL    HW111612  11.780  10.435   0.944 -0.3134  0.1272 -2.6034
64540SOL    HW211613  11.661  10.342   0.954  0.1637 -0.2595  0.7346
64541SOL     OW11614   3.831   6.686  12.479 -0.1472  0.2197  0.0082
64541SOL    HW111615   3.876   6.753  12.531  0.7307  1.0602 -1.7278
64541SOL    HW211616   3.821   6.727  12.393 -1.3404 -1.1976 -0.5506
64542SOL     OW11617  13.949   2.196   5.954  0.1910 -0.3591  0.6076
64542SOL    HW111618  13.965   2.288   5.937  1.1048 -0.3382  1.4327
64542SOL    HW211619  14.034   2.163   5.986  1.1346 -2.4231 -3.3799
64543SOL     OW11620   1.262   5.164   6.719  0.2853 -0.0040  0.2573
64543SOL    HW111621   1.256   5.186   6.812  0.2270 -0.6836  0.4147
64543SOL    HW211622   1.224   5.240   6.675 -2.2025 -0.8122  0.8984
64544SOL     OW11623   1.107   7.160  11.233  0.7391 -0.2300  0.1668
64544SOL    HW111624   1.121   7.088  11.171  0.3007  1.3729 -1.8982
64544SOL    HW211625   1.012   7.174  11.232  0.9797  1.6388 -1.0354
64545SOL     OW11626   7.623   3.408   7.075  0.1521 -0.4304  0.5856
64545SOL    HW111627   7.682   3.334   7.061 -0.5982 -1.1375  1.0726
64545SOL    HW211628   7.539   3.368   7.096 -0.1507  0.5665  1.3463
64546SOL     OW11629   6.542   7.807   0.982  0.2408  0.1537  0.2302
64546SOL    HW111630   6.612   7.868   0.957  1.0117  1.6594  4.9771
64546SOL    HW211631   6.581   7.721   0.971  0.6711  0.5989 -2.5777
64547SOL     OW11632   9.818   0.990  11.700  0.0233 -0.1511  0.3131
64547SOL    HW111633   9.844   1.057  11.636  0.2818 -0.8305 -0.3158
64547SOL    HW211634   9.899   0.970  11.747 -0.6346  2.1564  2.6677
64548SOL     OW11635  11.295   6.206  11.824 -0.2451  0.0714  0.1699
64548SOL    HW111636  11.310   6.270  11.894  0.8830 -1.0174  0.9578
64548SOL    HW211637  11.381   6.168  11.807 -0.7345 -0.5885 -0.9316
64549SOL     OW11638  12.395   8.115   3.039 -0.0898 -0.3393 -0.3387
64549SOL    HW111639  12.415   8.031   3.080  1.3583  0.0843 -0.1357
64549SOL    HW211640  12.330   8.094   2.972 -0.6373 -1.4198  0.5054
64550SOL     OW11641  11.901  11.024   1.337 -0.0776  0.0095 -0.3608
64550SOL    HW111642  11.889  11.118   1.345  1.7755  0.1742  1.0872
64550SOL    HW211643  11.916  10.994   1.426  1.9361 -1.2468 -1.0568
64551SOL     OW11644   6.764  12.013   3.401  0.1652 -0.2749 -0.4749
64551SOL    HW111645   6.749  12.022   3.495 -1.1619 -1.2963 -0.5637
64551SOL    HW211646   6.855  11.985   3.394  0.0594 -0.9227  0.5678
64552SOL     OW11647  11.741   6.176  12.710  0.0821 -0.5126 -0.0147
64552SOL    HW111648  11.672   6.148  12.650  0.1653  0.2737 -0.4850
64552SOL    HW211649  11.816   6.195  12.653  0.0791  0.5048  0.2996
64553SOL     OW11650   0.223  13.434   3.543  0.4367  0.6952 -0.5235
64553SOL    HW111651   0.182  13.483   3.614  0.5433  0.6425 -0.4233
64553SOL    HW211652   0.314  13.422   3.572  0.7222  1.4428 -1.0696
64554SOL     OW11653  12.819  12.303  12.506 -0.1820  0.0556  0.1314
64554SOL    HW111654  12.801  12.226  12.560  0.3403 -0.4828 -0.4411
64554SOL    HW211655  12.743  12.310  12.447 -2.0275  2.1595  2.5562
64555SOL     OW11656   5.590   6.804  11.020  0.2095 -0.3292  0.3436
64555SOL    HW111657   5.640   6.848  11.090  1.0662  2.2281 -1.6988
64555SOL    HW211658   5.505   6.847  11.022  0.0839 -0.5728  0.1003
64556SOL     OW11659   7.295  14.080   8.709 -0.2621  0.0803  0.1857
64556SOL    HW111660   7.310  14.069   8.803  2.1144 -0.6274 -0.2218
64556SOL    HW211661   7.293  14.175   8.697 -0.0566  0.1783  0.8537
64557SOL     OW11662   4.113   8.665   0.386  0.2964  0.2293  0.1667
64557SOL    HW111663   4.053   8.739   0.391 -1.9590 -1.4066 -0.8928
64557SOL    HW211664   4.193   8.700   0.346 -0.8984  1.9495 -0.7971
64558SOL     OW11665   0.093   0.155   9.373 -0.1804  0.2749 -0.0194
64558SOL    HW111666   0.024   0.148   9.440 -0.0406 -0.7076  0.0490
64558SOL    HW211667   0.132   0.241   9.388 -0.6168  0.3628  0.7086
64559SOL     OW11668   1.130   1.851  10.639  0.0670 -0.1004  0.2129
64559SOL    HW111669   1.189   1.842  10.714 -0.4783 -2.2902  0.4294
64559SOL    HW211670   1.043   1.855  10.677 -0.3389 -2.6826 -0.2867
64560SOL     OW11671   6.180   4.947   0.350  0.3379  0.5298 -0.6567
64560SOL    HW111672   6.178   5.038   0.321  0.3809  0.6772 -0.1989
64560SOL    HW211673   6.236   4.947   0.427  0.4587  0.0878 -0.7395
64561SOL     OW11674   1.160  12.797   4.733  0.4529 -0.2380 -0.0852
64561SOL    HW111675   1.139  12.708   4.760  0.6640 -0.4017 -0.4705
64561SOL    HW211676   1.105  12.852   4.789  1.7047 -0.5286  1.5144
64562SOL     OW11677   7.023  10.094  10.806 -0.3983 -0.0335 -0.2564
64562SOL    HW111678   7.111  10.117  10.778 -0.3239 -0.1517 -0.1214
64562SOL    HW211679   6.968  10.110  10.729 -0.5609  1.8245  0.1932
64563SOL     OW11680  12.678   3.586   7.766  0.0273  0.0644 -0.4932
64563SOL    HW111681  12.590   3.557   7.792 -0.2671  0.0688 -1.4596
64563SOL    HW211682  12.727   3.505   7.751  0.4857  0.0416  0.9264
64564SOL     OW11683  13.049  11.898   3.400 -0.0753  0.2557 -0.2821
64564SOL    HW111684  13.052  11.802   3.402  2.0565  0.2514 -0.8387
64564SOL    HW211685  13.101  11.925   3.476 -0.9046  0.9842  0.0363
64565SOL     OW11686   7.231  11.100   8.963  0.2399 -0.2801 -0.3006
64565SOL    HW111687   7.269  11.094   9.050  1.0265 -2.3333 -0.7220
64565SOL    HW211688   7.153  11.155   8.974  0.5274 -0.1842  1.5889
64566SOL     OW11689   5.418   8.709   1.143 -0.0285  0.6440 -0.5745
64566SOL    HW111690   5.465   8.633   1.109 -0.3326  0.2427 -0.1193
64566SOL    HW211691   5.375   8.677   1.222 -1.3874  0.8803 -1.1742
64567SOL     OW11692   1.111  11.105  12.693 -0.2180 -0.0125 -0.1928
64567SOL    HW111693   1.145  11.120  12.605 -0.3499 -1.2058 -0.4731
64567SOL    HW211694   1.095  11.010  12.697 -2.0382  0.2775  0.4664
64568SOL     OW11695   0.000  11.987  10.607  0.0317  0.3958  0.0873
64568SOL    HW111696   0.050  12.063  10.638 -0.6334  1.6604 -1.7826
64568SOL    HW211697   0.012  11.988  10.512 -0.7428 -1.3368 -0.0668
64569SOL     OW11698   4.177   2.838  11.793 -0.5869 -0.0990  0.8720
64569SOL    HW111699   4.087   2.868  11.803 -1.2583 -1.8265  0.3828
64569SOL    HW211700   4.190   2.777  11.866 -0.0457 -0.3455  0.5752
64570SOL     OW11701   9.490   5.333   0.031 -0.1028 -0.6525 -0.1613
64570SOL    HW111702   9.574   5.377   0.043 -0.7089  0.4880  0.1138
64570SOL    HW211703   9.430   5.378   0.092 -0.4140 -2.9555  1.3487
64571SOL     OW11704   2.313   6.345   5.921  0.0741  0.0872  0.1082
64571SOL    HW111705   2.338   6.369   5.832 -0.3142  0.2352  0.0368
64571SOL    HW211706   2.396   6.332   5.967  0.2742  0.1421 -0.2397
64572SOL     OW11707   3.622   0.327   4.570  0.0331 -0.2952 -0.2621
64572SOL    HW111708   3.677   0.391   4.524 -1.1608  0.3029 -0.8924
64572SOL    HW211709   3.663   0.242   4.551 -0.4881 -0.0939 -2.5831
64573SOL     OW11710   7.878   8.352   7.566 -0.1179  0.5612 -0.2129
64573SOL    HW111711   7.871   8.291   7.639 -1.0447  0.6421 -0.2162
64573SOL    HW211712   7.819   8.317   7.500  3.3690 -1.6034 -2.5237
64574SOL     OW11713   6.155   3.580  12.231  0.2692 -0.4618 -0.4099
64574SOL    HW111714   6.115   3.652  12.181 -0.2562 -1.2077 -1.0932
64574SOL    HW211715   6.220   3.622  12.286 -0.6670  0.6604 -0.1189
64575SOL     OW11716  14.090   3.084   1.003 -0.0525 -0.1311  0.0848
64575SOL    HW111717  14.145   3.155   0.969  0.7223 -1.1146 -0.7783
64575SOL    HW211718  14.012   3.128   1.037  0.1341  1.0836 -0.9924
64576SOL     OW11719  13.981   6.335   8.956 -0.0480 -0.3940  0.4527
64576SOL    HW111720  14.064   6.381   8.940 -0.2569 -0.1534  0.0362
64576SOL    HW211721  13.920   6.373   8.892 -0.2701 -1.1333  0.2189
64577SOL     OW11722  11.073   7.532   1.012 -0.4917 -0.2635  0.3971
64577SOL    HW111723  11.162   7.503   1.027 -0.4437  0.1998  1.0576
64577SOL    HW211724  11.079   7.628   1.006 -1.2897  0.0425  3.2530
64578SOL     OW11725   4.819   3.530   7.541 -0.3932 -0.4575  0.0320
64578SOL    HW111726   4.904   3.508   7.502 -0.8139 -3.0471  0.4156
64578SOL    HW211727   4.808   3.623   7.522  1.9777 -0.3109 -1.0586
64579SOL     OW11728  13.927   6.570   7.567 -0.5361  0.2223 -0.0115
64579SOL    HW111729  13.844   6.611   7.543 -0.3941  1.4841  1.4799
64579SOL    HW211730  13.904   6.481   7.594 -1.4759  0.6705  0.7068
64580SOL     OW11731   5.195   6.772   2.302  0.1761  0.3500  0.1874
64580SOL    HW111732   5.247   6.763   2.222 -0.3729  1.2490 -0.2923
64580SOL    HW211733   5.181   6.867   2.310  0.9352  0.3493  1.8156
64581SOL     OW11734   8.775   7.384   8.694 -0.1482 -0.5996  0.1427
64581SOL    HW111735   8.733   7.309   8.653 -0.9503 -0.1590  0.1377
64581SOL    HW211736   8.811   7.434   8.621  0.2205 -0.8735  0.1336
64582SOL     OW11737  10.811  10.339   2.835 -0.1635  0.2608 -0.3482
64582SOL    HW111738  10.785  10.324   2.926  0.1602 -0.4169 -0.3557
64582SOL    HW211739  10.821  10.434   2.828  1.9465  0.2243  0.9600
64583SOL     OW11740   0.059  13.560   3.720  0.2456  0.5098  0.0950
64583SOL    HW111741  -0.035  13.572   3.731  0.0436 -1.2223  0.5286
64583SOL    HW211742   0.097  13.590   3.802 -0.2449 -1.6589  1.1905
64584SOL     OW11743  11.609   6.197  11.989 -0.4286  0.1529  0.1414
64584SOL    HW111744  11.614   6.204  11.894 -0.9116  1.0009  0.1715
64584SOL    HW211745  11.589   6.286  12.019 -0.4445 -0.1368  1.0227
64585SOL     OW11746   0.298   9.519   9.053  0.1009  0.4670 -0.6073
64585SOL    HW111747   0.347   9.601   9.065  2.4634 -0.5854 -2.1124
64585SOL    HW211748   0.364   9.451   9.063 -1.7726 -1.2993  0.4207
64586SOL     OW11749   5.934   8.903   9.604 -0.2224  0.2905 -0.4647
64586SOL    HW111750   5.963   8.848   9.531  1.8660  0.6085  0.0496
64586SOL    HW211751   5.963   8.856   9.682 -2.3083  0.0211  0.1904
64587SOL     OW11752  11.292   8.182  12.776 -0.3441  0.1057 -0.7033
64587SOL    HW111753  11.347   8.107  12.798  0.6746  0.6802 -1.2125
64587SOL    HW211754  11.273   8.171  12.683  0.7157  1.0262 -1.0489
64588SOL     OW11755   7.187   8.471   6.679 -0.1836 -0.2122  0.0725
64588SOL    HW111756   7.272   8.464   6.721 -0.1604 -0.9430 -0.0850
64588SOL    HW211757   7.185   8.560   6.644  0.0157  0.2195  1.1220
64589SOL     OW11758   9.518   8.018  12.087 -0.7511  0.0112 -0.1629
64589SOL    HW111759   9.500   7.924  12.091 -0.4385 -0.0036  2.2865
64589SOL    HW211760   9.601   8.029  12.133 -0.4849  1.4533 -0.9228
64590SOL     OW11761   9.683  12.772   6.956 -0.0813  0.5426 -0.7145
64590SOL    HW111762   9.687  12.762   6.860  0.9425  1.2651 -0.7641
64590SOL    HW211763   9.638  12.856   6.969  0.9994  1.1232 -0.6172
64591SOL     OW11764   1.195   7.135   5.046 -0.2413 -0.0668  0.5845
64591SOL    HW111765   1.115   7.081   5.047 -1.9354  2.1845 -1.3526
64591SOL    HW211766   1.192   7.183   5.129 -1.3156  0.5111  0.2293
64592SOL     OW11767   1.903  10.889   3.859 -0.3553 -0.0716  0.1602
64592SOL    HW111768   1.821  10.842   3.842 -1.6809  2.1742 -0.0446
64592SOL    HW211769   1.877  10.981   3.868  2.2571  0.8666 -0.7878
64593SOL     OW11770   8.513   7.314   1.914  0.3813 -0.5135 -0.2394
64593SOL    HW111771   8.539   7.223   1.899 -0.8992 -0.8505 -0.5782
64593SOL    HW211772   8.428   7.322   1.869  0.1482  0.6490  0.3729
64594SOL     OW11773  12.864   7.313   0.170  0.4352 -0.1636  0.2602
64594SOL    HW111774  12.926   7.300   0.242 -0.9699 -0.7886  1.4138
64594SOL    HW211775  12.797   7.372   0.206 -0.0052 -0.0321 -0.7264
64595SOL     OW11776  14.039  13.406   3.067 -0.1283 -0.3647  0.2741
64595SOL    HW111777  14.072  13.486   3.107 -0.4052  0.3938 -0.9758
64595SOL    HW211778  14.034  13.425   2.973 -0.5206 -1.7297 -0.0168
64596SOL     OW11779  10.653  11.202   9.896  0.4486  0.3309  0.2406
64596SOL    HW111780  10.711  11.128   9.914 -0.1065 -0.2019 -0.1444
64596SOL    HW211781  10.695  11.249   9.825  0.0275 -0.5025 -0.5810
64597SOL     OW11782  11.182   6.058   7.999  0.2466 -0.1336 -0.3141
64597SOL    HW111783  11.258   6.032   8.050 -0.2785 -1.0375  0.0269
64597SOL    HW211784  11.137   6.121   8.055  0.7971  0.5042 -0.5712
64598SOL     OW11785   0.332   8.279   0.061  0.0953 -0.4078 -0.1632
64598SOL    HW111786   0.296   8.316   0.141  1.5516 -1.3929  0.9993
64598SOL    HW211787   0.259   8.282  -0.001 -1.5050 -0.8506  1.5891
64599SOL     OW11788  13.382  12.830   9.095 -0.3017  0.0052 -0.3559
64599SOL    HW111789  13.431  12.907   9.124 -1.4099  0.4868  0.2754
64599SOL    HW211790  13.323  12.863   9.028 -1.2463 -0.1569  0.3820
64600SOL     OW11791  10.637  11.699  13.024 -0.1355  0.1110  0.0538
64600SOL    HW111792  10.576  11.711  12.951  0.7288 -1.0318 -0.8920
64600SOL    HW211793  10.585  11.721  13.102 -1.2152  0.9060 -0.8496
64601SOL     OW11794  11.112  13.834   2.762  0.3121  0.6761 -0.5350
64601SOL    HW111795  11.128  13.787   2.844  0.1983  0.1813 -0.7947
64601SOL    HW211796  11.033  13.885   2.779  0.6943  1.1252 -0.1024
64602SOL     OW11797  13.078   3.503   6.586 -0.1028  0.5677  0.4947
64602SOL    HW111798  13.057   3.596   6.588  0.6219  0.9397 -2.9751
64602SOL    HW211799  13.173   3.499   6.571 -0.1156 -0.7386  0.5648
64603SOL     OW11800   4.355   4.872   2.345 -0.2936 -0.4130 -0.3924
64603SOL    HW111801   4.265   4.899   2.365 -0.7228 -1.3289 -1.0224
64603SOL    HW211802   4.370   4.902   2.255 -0.1701 -0.7499 -0.4864
64604SOL     OW11803   6.156  10.417   8.544 -0.4165  0.3591 -0.6159
64604SOL    HW111804   6.156  10.513   8.544  0.2616  0.4104 -2.3824
64604SOL    HW211805   6.076  10.393   8.591  0.3387  1.7235  1.5111
64605SOL     OW11806   7.231   7.180  11.975  0.4934 -0.5396 -0.7224
64605SOL    HW111807   7.326   7.173  11.979  0.5764  0.3435 -0.8929
64605SOL    HW211808   7.206   7.220  12.058  0.3894  0.2694 -1.1292
64606SOL     OW11809  10.536  11.316  12.565 -0.0501 -0.1329  0.4045
64606SOL    HW111810  10.563  11.256  12.496 -0.1428 -1.4183  1.4523
64606SOL    HW211811  10.454  11.280  12.598 -0.0008  0.4459  1.1883
64607SOL     OW11812  11.573   7.356   3.668  0.1036  0.6250 -0.0200
64607SOL    HW111813  11.578   7.442   3.626 -1.1870  1.5810  1.5932
64607SOL    HW211814  11.647   7.354   3.729  1.1704 -0.1872 -1.2922
64608SOL     OW11815   4.163  13.495   8.432 -0.1821 -0.0964  0.5083
64608SOL    HW111816   4.122  13.576   8.402 -0.9037 -0.0507  1.5721
64608SOL    HW211817   4.174  13.507   8.527  0.6711 -0.8252  0.5169
64609SOL     OW11818   4.135   5.015  10.899  0.1538 -0.4581  0.2343
64609SOL    HW111819   4.084   5.044  10.823  1.3281 -1.8120 -1.1218
64609SOL    HW211820   4.179   5.094  10.930  0.2953 -0.0311 -1.0151
64610SOL     OW11821   4.714   2.823   9.932  0.5125 -0.2432  0.5707
64610SOL    HW111822   4.768   2.748   9.958  0.1417 -0.7499 -0.0905
64610SOL    HW211823   4.633   2.785   9.899  0.1621  0.4697  0.5791
64611SOL     OW11824  14.109   9.957   3.547  0.2042  0.2736 -0.2326
64611SOL    HW111825  14.034   9.899   3.561  0.3740 -0.1028 -0.8651
64611SOL    HW211826  14.164   9.943   3.625 -0.1883  0.2572  0.0453
64612SOL     OW11827   0.587   8.229   7.724 -0.4280 -0.6033  0.1190
64612SOL    HW111828   0.590   8.134   7.734 -0.0350 -0.8696 -2.0953
64612SOL    HW211829   0.678   8.254   7.709 -0.5964  0.0822  0.2070
64613SOL     OW11830   3.408  10.139   7.504  0.0746 -0.0359  0.3013
64613SOL    HW111831   3.386  10.134   7.411  0.9675  0.6066  0.0517
64613SOL    HW211832   3.460  10.060   7.521 -1.1893 -0.8391  0.5762
64614SOL     OW11833   1.057   7.222   0.075  0.8221 -0.0538 -0.6066
64614SOL    HW111834   1.011   7.178   0.146 -0.4008  0.3810 -1.0988
64614SOL    HW211835   1.027   7.177  -0.004  1.1008  0.3762 -0.9612
64615SOL     OW11836  12.075   7.459   1.569  0.2994  0.0566  0.1823
64615SOL    HW111837  12.045   7.398   1.502  1.0899  2.0414 -2.1175
64615SOL    HW211838  12.033   7.542   1.547  0.6982  0.8328  2.1093
64616SOL     OW11839  13.180  11.821   3.123 -0.3251  0.1352  0.3648
64616SOL    HW111840  13.155  11.869   3.202 -1.6985  0.1870 -0.0763
64616SOL    HW211841  13.178  11.729   3.150  1.1297  0.2344  0.8890
64617SOL     OW11842   9.889  10.445   4.634  0.3878 -0.2933 -0.4287
64617SOL    HW111843   9.935  10.365   4.661  1.6043  1.0508  1.7307
64617SOL    HW211844   9.815  10.451   4.694  1.6546  1.3902  1.0438
64618SOL     OW11845  10.576   4.916   2.283 -0.5896  0.0255  0.3194
64618SOL    HW111846  10.531   4.997   2.261  1.1374  0.9408  0.0343
64618SOL    HW211847  10.562   4.906   2.378 -1.6028  0.1189  0.1953
64619SOL     OW11848  11.509   3.338   8.205 -0.0702 -0.2847 -0.0528
64619SOL    HW111849  11.444   3.283   8.163 -1.8748  1.1646  0.6629
64619SOL    HW211850  11.591   3.320   8.159 -1.6588  0.3899 -3.4636
64620SOL     OW11851   4.008   2.991  12.079 -0.1471  0.0413 -0.4744
64620SOL    HW111852   4.021   2.983  11.985 -1.4286  2.0661 -0.8962
64620SOL    HW211853   3.919   3.025  12.088 -0.3350 -0.8374  1.5170
64621SOL     OW11854  11.516   0.422   7.642  0.2296 -0.1018  0.1081
64621SOL    HW111855  11.545   0.436   7.551  0.2070 -0.9384 -0.0386
64621SOL    HW211856  11.436   0.371   7.633 -1.0419  1.7256  0.5315
64622SOL     OW11857   2.467   8.945   6.218 -0.1778 -0.0849 -0.0494
64622SOL    HW111858   2.397   8.987   6.167  0.9693  2.4021  0.2755
64622SOL    HW211859   2.426   8.923   6.302 -1.3631 -1.7266 -0.9856
64623SOL     OW11860   5.918   4.625   7.569 -0.0634  0.3785 -0.2993
64623SOL    HW111861   5.999   4.598   7.612 -0.3365 -0.5867 -0.3630
64623SOL    HW211862   5.937   4.617   7.475 -0.9664 -2.2816 -0.3304
64624SOL     OW11863   5.464   0.478   8.711 -0.8277  0.0985  0.3643
64624SOL    HW111864   5.379   0.508   8.679 -0.5922 -1.3506 -1.9328
64624SOL    HW211865   5.502   0.554   8.755 -3.4727  0.6386  1.9559
64625SOL     OW11866   5.437   6.047  12.422  0.8742  0.3268 -0.4655
64625SOL    HW111867   5.414   5.997  12.343  0.7855 -0.8887  0.3058
64625SOL    HW211868   5.396   6.132  12.409  0.1340 -0.1482 -1.3445
64626SOL     OW11869  11.872   4.919   8.242 -0.1633  0.3650 -0.4081
64626SOL    HW111870  11.904   4.829   8.246  0.5146  0.5822 -0.7986
64626SOL    HW211871  11.913   4.963   8.316 -1.2504  0.1277  0.3566
64627SOL     OW11872  11.563  11.907   3.619  0.2118 -0.4126 -0.0223
64627SOL    HW111873  11.604  11.942   3.540  0.2949 -3.0332 -1.2278
64627SOL    HW211874  11.608  11.824   3.636 -1.2198 -0.9437  1.5469
64628SOL     OW11875   1.479   4.471   5.969  0.3320 -0.1140 -0.5463
64628SOL    HW111876   1.417   4.431   5.909  0.2630  0.7115 -1.0342
64628SOL    HW211877   1.548   4.506   5.912  1.5308 -1.4802  0.0122
64629SOL     OW11878   9.139  12.565   8.295  0.6182 -0.3855  0.1214
64629SOL    HW111879   9.180  12.594   8.376  0.4504 -1.4223  0.5980
64629SOL    HW211880   9.197  12.495   8.263 -0.3913 -1.4092  0.4592
64630SOL     OW11881  10.673   6.653   4.983 -0.2215 -0.0934 -0.3989
64630SOL    HW111882  10.630   6.700   5.054  0.6449 -0.3511  0.3118
64630SOL    HW211883  10.609   6.653   4.912 -1.3467 -0.3803  0.5950
64631SOL     OW11884   6.447  13.494  12.579  0.1407 -0.0663 -0.1788
64631SOL    HW111885   6.456  13.586  12.555  1.5454 -0.2662 -0.4936
64631SOL    HW211886   6.537  13.463  12.589 -0.3298 -1.0680  1.2340
64632SOL     OW11887   3.702  13.577  10.644  0.7005 -0.0446  0.4051
64632SOL    HW111888   3.657  13.493  10.639  0.3365  0.1914 -0.5074
64632SOL    HW211889   3.790  13.555  10.673  0.4957 -0.6948  0.5606
64633SOL     OW11890   3.671  13.677  10.358 -0.2216 -0.9490  0.1437
64633SOL    HW111891   3.646  13.769  10.361  0.7295 -0.6845  0.4564
64633SOL    HW211892   3.712  13.660  10.443 -2.2063 -2.2333  0.9195
64634SOL     OW11893   5.979  13.104   4.195 -0.0990  0.0101  0.1512
64634SOL    HW111894   5.923  13.178   4.170  2.2215  2.0485  0.6274
64634SOL    HW211895   6.027  13.082   4.115 -0.8756 -1.1305 -0.0256
64635SOL     OW11896  13.162   6.469   6.937 -0.6306  0.4291 -0.3368
64635SOL    HW111897  13.194   6.548   6.893  0.3312 -0.5206 -1.3941
64635SOL    HW211898  13.124   6.416   6.867 -2.5060  0.5031  0.5574
64636SOL     OW11899   5.244  11.016   3.632  0.0805  0.3116 -0.2454
64636SOL    HW111900   5.276  11.027   3.722 -1.1146  1.8778  0.0226
64636SOL    HW211901   5.304  11.068   3.578  1.5673 -1.6288 -0.5879
64637SOL     OW11902   3.009  12.241  11.515 -0.2173 -0.0407 -0.2408
64637SOL    HW111903   2.924  12.262  11.553 -0.4280 -1.1410 -0.0763
64637SOL    HW211904   2.991  12.224  11.423 -0.0394  0.5133 -0.3841
64638SOL     OW11905   5.055   4.464   9.012 -0.4443 -0.0063  0.6617
64638SOL    HW111906   5.059   4.535   8.947 -0.9666  0.2228  0.8738
64638SOL    HW211907   5.030   4.387   8.961  1.7865 -0.4432  0.1268
64639SOL     OW11908  11.304  10.411  10.661 -0.0447  0.2383  0.1346
64639SOL    HW111909  11.319  10.400  10.754  0.3277 -2.3774 -0.1672
64639SOL    HW211910  11.233  10.351  10.640  0.1826  0.4266 -1.3364
64640SOL     OW11911  11.965  10.242   4.313  0.0284 -0.0563  0.1690
64640SOL    HW111912  12.045  10.256   4.262 -0.5220 -0.9344 -0.9709
64640SOL    HW211913  11.895  10.278   4.259 -0.4908 -0.2876  0.6730
64641SOL     OW11914   1.471   1.798   9.734  0.3595 -0.2394  0.0845
64641SOL    HW111915   1.552   1.811   9.783  0.1648 -0.8920  0.6027
64641SOL    HW211916   1.482   1.713   9.692  0.1525 -0.0974 -0.2617
64642SOL     OW11917   6.121   0.103   6.742 -0.4421 -0.2586 -0.5913
64642SOL    HW111918   6.146   0.052   6.819  1.4019  0.2121 -0.8249
64642SOL    HW211919   6.202   0.146   6.715 -1.8405  2.8116 -0.4041
64643SOL     OW11920  11.812  13.377  11.811 -0.3992 -0.3532  0.3081
64643SOL    HW111921  11.890  13.328  11.838  0.5378 -0.5242 -2.4000
64643SOL    HW211922  11.768  13.320  11.749 -1.2198  0.8186 -0.2210
64644SOL     OW11923   6.738   2.194   5.522  0.7778 -0.8718 -0.3049
64644SOL    HW111924   6.831   2.173   5.524  0.4701 -2.4885 -1.3380
64644SOL    HW211925   6.699   2.137   5.588  0.4917 -0.2195  0.1067
64645SOL     OW11926   6.056  12.576  11.764  0.3649 -0.3261 -0.2660
64645SOL    HW111927   5.998  12.646  11.793 -1.2803 -1.3947 -0.8578
64645SOL    HW211928   6.105  12.551  11.843 -0.7098 -0.0838  0.5024
64646SOL     OW11929   3.162   5.960   9.720  0.7832 -0.1889 -0.4024
64646SOL    HW111930   3.256   5.979   9.712  0.9705 -0.9017 -0.0223
64646SOL    HW211931   3.124   6.040   9.755  1.6858 -0.7629  2.0871
64647SOL     OW11932   2.445   7.476   3.994  0.4304  0.2960  0.1589
64647SOL    HW111933   2.539   7.479   4.008  0.6571  0.7589 -1.3770
64647SOL    HW211934   2.420   7.566   3.973 -0.0281 -0.1427 -1.3104
64648SOL     OW11935   1.381   0.678   7.962  0.3988  0.0621 -0.0988
64648SOL    HW111936   1.388   0.753   8.021 -0.6268 -0.4866  0.7447
64648SOL    HW211937   1.300   0.634   7.988  1.5049 -1.9356  0.1472
64649SOL     OW11938   4.722   7.930  11.737  0.3176 -0.2915 -0.4497
64649SOL    HW111939   4.722   7.843  11.697 -0.1140 -0.6157  0.2295
64649SOL    HW211940   4.727   7.990  11.663  0.4838 -0.8855 -0.9398
64650SOL     OW11941   2.479   4.744  11.591 -0.1734 -0.0784  0.3151
64650SOL    HW111942   2.527   4.823  11.564  1.1740 -0.3355  1.7872
64650SOL    HW211943   2.433   4.716  11.512  2.9558 -0.3934 -1.5971
64651SOL     OW11944   0.404   8.694  12.153 -0.6943 -0.4571  0.0273
64651SOL    HW111945   0.416   8.599  12.147 -1.0762 -0.6446  1.7459
64651SOL    HW211946   0.315   8.710  12.122 -0.7399 -0.7134  0.0278
64652SOL     OW11947  10.045   1.413   1.496 -0.8711 -0.8892  0.2890
64652SOL    HW111948  10.060   1.347   1.428  0.2574 -0.6946  0.3365
64652SOL    HW211949  10.067   1.369   1.578 -2.3438 -1.1598  0.5636
64653SOL     OW11950   2.772   1.917   7.272  0.1381 -0.3267 -0.4538
64653SOL    HW111951   2.853   1.872   7.295  0.0823 -0.7231 -1.0038
64653SOL    HW211952   2.797   2.008   7.260  0.1649 -0.0967  1.1707
64654SOL     OW11953  13.055  13.166   7.609 -0.0058  0.2544  0.1885
64654SOL    HW111954  12.974  13.188   7.655 -0.5680  0.1294 -0.7175
64654SOL    HW211955  13.059  13.227   7.535  0.2541 -0.3348 -0.2987
64655SOL     OW11956   3.055   3.278   2.859  0.2746  0.1105 -0.3526
64655SOL    HW111957   2.995   3.352   2.871 -0.7244 -0.6720 -0.3682
64655SOL    HW211958   3.068   3.273   2.764 -2.1873 -1.6103 -0.7047
64656SOL     OW11959   9.998   8.115  12.686  0.3728  0.0457  0.0306
64656SOL    HW111960   9.927   8.124  12.622  0.3021  0.6274  0.1828
64656SOL    HW211961   9.955   8.087  12.766  0.6507 -2.2838 -0.5683
64657SOL     OW11962   6.576  14.020   6.843  0.4710 -0.2744 -0.6432
64657SOL    HW111963   6.580  14.078   6.919 -1.2468 -2.0693  0.9191
64657SOL    HW211964   6.485  14.023   6.815  0.3278 -2.2141 -0.4874
64658SOL     OW11965   9.207   5.333   1.648  0.2727  0.2871 -0.3804
64658SOL    HW111966   9.298   5.358   1.663  0.3969 -0.2471 -0.2204
64658SOL    HW211967   9.156   5.410   1.673  0.5894  0.0920  0.9275
64659SOL     OW11968   6.504  12.474   6.178 -0.2349  0.3438 -0.0002
64659SOL    HW111969   6.454  12.480   6.096 -0.1105 -1.0740 -0.2001
64659SOL    HW211970   6.584  12.428   6.154 -0.2778 -0.2529  0.9575
64660SOL     OW11971  11.083  13.113   5.489 -0.6756 -0.1650  0.1528
64660SOL    HW111972  11.105  13.021   5.481 -2.2397 -0.5195 -0.4271
64660SOL    HW211973  11.008  13.126   5.429  1.5751  2.2369 -2.4838
64661SOL     OW11974  12.118  13.016  12.025  0.4903 -0.2764  0.4654
64661SOL    HW111975  12.192  12.998  12.083 -0.8605 -0.5376  2.1959
64661SOL    HW211976  12.126  12.951  11.956  2.1756  0.0601  0.2945
64662SOL     OW11977   9.097   9.444   1.706 -0.0575  0.2522 -0.5678
64662SOL    HW111978   9.042   9.522   1.694  0.8202  1.0984  0.6070
64662SOL    HW211979   9.181   9.469   1.669  1.0133  0.8758  2.0519
64663SOL     OW11980   0.611   6.996   3.978  0.1745  0.2072 -0.4641
64663SOL    HW111981   0.562   6.938   4.037  0.7822 -0.2655 -0.4157
64663SOL    HW211982   0.544   7.038   3.925 -0.2480 -1.0057 -0.9226
64664SOL     OW11983   1.226   5.876   8.263  0.0173  0.1511 -0.6528
64664SOL    HW111984   1.164   5.834   8.203 -2.1592  0.6817  1.0765
64664SOL    HW211985   1.287   5.807   8.288 -0.1615 -0.5252 -2.0341
64665SOL     OW11986   7.151   7.557   3.624 -0.1082  0.3668 -0.0993
64665SOL    HW111987   7.246   7.547   3.627 -0.1765 -0.8141 -1.2512
64665SOL    HW211988   7.130   7.610   3.702  1.5901  1.6661 -0.4676
64666SOL     OW11989  12.101   7.498  13.197  0.5393  0.1613  0.2351
64666SOL    HW111990  12.123   7.589  13.177  1.1387  0.0441  0.3379
64666SOL    HW211991  12.186   7.454  13.206  0.2996 -0.8282 -1.6531
64667SOL     OW11992  10.087  12.597   0.546  0.1869 -0.7736 -0.4245
64667SOL    HW111993  10.129  12.556   0.471 -0.6996 -1.6987 -0.4249
64667SOL    HW211994  10.006  12.634   0.511 -0.6683 -1.9712  0.2136
64668SOL     OW11995   3.855   9.686   2.003  1.0294  0.3078  0.2603
64668SOL    HW111996   3.845   9.592   1.989 -0.7769  0.4576  0.3302
64668SOL    HW211997   3.789   9.726   1.947  1.0349  1.4705  1.0482
64669SOL     OW11998   7.390  11.691   0.003 -0.2330  0.0320 -0.2349
64669SOL    HW111999   7.438  11.771   0.024  0.0658  0.2829 -1.7636
64669SOL    HW212000   7.450  11.620   0.028  0.2921  0.3228 -0.6322
64670SOL     OW12001   7.863   5.075   6.641  0.2745  0.4652 -0.4226
64670SOL    HW112002   7.827   5.067   6.729  2.2329  0.1000  0.4023
64670SOL    HW212003   7.845   4.990   6.600  2.3034 -0.6715  0.8622
64671SOL     OW12004   0.852   0.007  11.328 -0.8354 -0.0659 -0.0970
64671SOL    HW112005   0.872  -0.086  11.339  2.1705  0.4718 -0.0701
64671SOL    HW212006   0.821   0.014  11.238  0.3482 -0.9261 -0.5984
64672SOL     OW12007   9.113   6.167   3.923  0.1616  0.1932 -0.2739
64672SOL    HW112008   9.206   6.186   3.938 -0.0537 -0.5479  2.6572
64672SOL    HW212009   9.108   6.147   3.829  2.4615  2.6363 -1.0519
64673SOL     OW12010   8.007  10.872   3.720 -0.6191  0.0713 -0.0525
64673SOL    HW112011   7.951  10.797   3.699  1.8518 -1.6460 -0.8998
64673SOL    HW212012   7.985  10.894   3.810 -0.2784 -2.8075  0.8297
64674SOL     OW12013   3.683  14.132   2.693 -0.1371 -0.4626 -0.3994
64674SOL    HW112014   3.755  14.074   2.717 -0.7672  0.0887  3.6680
64674SOL    HW212015   3.609  14.074   2.679  0.1641 -0.8349 -0.4645
64675SOL     OW12016   9.192  12.461   7.848 -0.3983 -0.0977  0.0673
64675SOL    HW112017   9.150  12.541   7.881 -0.4977 -0.4300  0.7601
64675SOL    HW212018   9.271  12.493   7.804  0.3365  0.3119  1.5810
64676SOL     OW12019   4.171  13.902  13.263 -0.4632  0.2221  0.5819
64676SOL    HW112020   4.266  13.912  13.266 -0.1264 -2.0148 -0.8000
64676SOL    HW212021   4.150  13.896  13.170 -1.6367 -1.7368  0.9139
64677SOL     OW12022   0.898  13.536   3.734 -0.3839  0.8530  0.0558
64677SOL    HW112023   0.861  13.464   3.684 -2.4495  1.7162  0.2424
64677SOL    HW212024   0.985  13.550   3.696 -0.0848 -1.4273 -0.2302
64678SOL     OW12025  13.749   7.489   0.092  0.0108  0.8476 -0.2219
64678SOL    HW112026  13.744   7.519   0.183 -0.4592  0.9203 -0.2722
64678SOL    HW212027  13.797   7.406   0.098 -0.7634  0.4168  0.1961
64679SOL     OW12028   9.726   6.180  13.156 -0.0955 -0.2387  0.0549
64679SOL    HW112029   9.727   6.110  13.091 -0.5390  0.6459 -0.9493
64679SOL    HW212030   9.633   6.202  13.165  0.0511  0.3128  0.2489
64680SOL     OW12031   1.686   4.482  13.993  0.0144  0.1704  0.8070
64680SOL    HW112032   1.759   4.434  14.033 -0.4612  0.2986  1.8527
64680SOL    HW212033   1.633   4.511  14.067 -1.3066 -0.2354  0.0565
64681SOL     OW12034   5.615  12.288   6.868  0.1195  0.4284 -0.5938
64681SOL    HW112035   5.560  12.236   6.809 -1.8651 -0.0935  1.5644
64681SOL    HW212036   5.666  12.222   6.917 -0.2922  0.6581  0.1596
64682SOL     OW12037  10.133  12.919   7.968  0.7658 -0.2085 -0.2927
64682SOL    HW112038  10.199  12.903   7.901 -1.5685  1.8325 -3.3431
64682SOL    HW212039  10.161  13.000   8.011  1.6289 -0.8550  0.3963
64683SOL     OW12040   9.292   7.836   1.831 -0.2092  0.0616  0.3716
64683SOL    HW112041   9.347   7.784   1.889  1.6579  1.2296 -0.2423
64683SOL    HW212042   9.300   7.926   1.864 -1.3433  0.3426 -0.0522
64684SOL     OW12043   2.647   5.108   6.726  0.0765  0.1655 -0.3409
64684SOL    HW112044   2.671   5.126   6.635  0.4239  0.4340 -0.2003
64684SOL    HW212045   2.609   5.190   6.758 -0.7604 -0.1611 -0.4669
64685SOL     OW12046  10.960  11.016   4.315 -0.6395 -0.6006  0.4548
64685SOL    HW112047  10.967  10.920   4.312  0.7642 -0.4953 -0.1662
64685SOL    HW212048  11.050  11.047   4.306 -1.2261  0.8114 -0.9237
64686SOL     OW12049   8.820   6.456   8.140 -0.2747  0.2066  0.3565
64686SOL    HW112050   8.737   6.427   8.101 -0.3009  1.0932 -0.2788
64686SOL    HW212051   8.794   6.521   8.204 -0.2413 -1.3466  2.0297
64687SOL     OW12052   2.616   7.057   7.470 -0.4229 -0.5223  0.0514
64687SOL    HW112053   2.659   6.972   7.475  2.7671  0.9601 -0.2711
64687SOL    HW212054   2.557   7.050   7.394 -2.5768 -3.2909  1.7694
64688SOL     OW12055  13.432   7.713   4.944 -0.3807 -0.5161 -0.3807
64688SOL    HW112056  13.392   7.692   4.859 -1.1562 -0.0752 -0.1250
64688SOL    HW212057  13.441   7.628   4.987 -0.6123 -0.6662 -0.6225
64689SOL     OW12058   0.164  13.949   4.154 -0.3728 -1.0658  0.1836
64689SOL    HW112059   0.245  13.910   4.186  0.4486 -0.0799 -0.6132
64689SOL    HW212060   0.158  14.033   4.200 -1.3671 -1.4820  0.8295
64690SOL     OW12061  10.674   9.433   6.691 -0.1051  0.1606  0.1644
64690SOL    HW112062  10.588   9.469   6.715 -0.0446  1.1093 -0.9507
64690SOL    HW212063  10.668   9.340   6.714 -0.7339  0.5914  1.9073
64691SOL     OW12064   3.523   3.294   7.609  0.7990  0.1351  0.5280
64691SOL    HW112065   3.558   3.247   7.685 -0.3641  0.5327  1.3520
64691SOL    HW212066   3.445   3.338   7.643  0.8586  1.1999 -0.6534
64692SOL     OW12067  11.795  11.025  12.252  0.0346 -0.3189 -0.3381
64692SOL    HW112068  11.754  11.083  12.188 -0.7723 -0.7959 -0.2649
64692SOL    HW212069  11.867  10.984  12.204 -0.2821 -0.3343 -0.8085
64693SOL     OW12070  13.019  10.647   0.654  0.1467 -0.2022  0.0141
64693SOL    HW112071  13.095  10.638   0.596  0.5563 -0.4573  0.5743
64693SOL    HW212072  13.046  10.712   0.718  0.0235 -0.5353  0.4106
64694SOL     OW12073   3.708  10.579  10.622 -1.0385 -0.2224  0.1877
64694SOL    HW112074   3.632  10.631  10.647 -0.8944 -0.6023  1.5190
64694SOL    HW212075   3.673  10.491  10.604 -1.0824 -0.0585 -0.5691
64695SOL     OW12076   2.896   4.919  11.737 -0.0292  0.2442  0.0695
64695SOL    HW112077   2.816   4.867  11.746  0.5257 -1.1615 -2.2199
64695SOL    HW212078   2.954   4.885  11.806 -0.1322 -1.3640 -0.5873
64696SOL     OW12079   9.908   5.255  11.178  0.4306  0.6235 -0.1656
64696SOL    HW112080   9.972   5.316  11.215  0.3478  0.3966  0.3534
64696SOL    HW212081   9.942   5.168  11.201  0.2945  0.4825 -0.4864
64697SOL     OW12082   6.942   0.816   4.778  0.5059  0.0446  0.3164
64697SOL    HW112083   6.900   0.760   4.711  1.0137 -1.7633  1.4437
64697SOL    HW212084   6.871   0.872   4.809 -0.4975 -1.2137  0.3992
64698SOL     OW12085   6.147   1.508   3.277  0.6185  0.7746  0.4044
64698SOL    HW112086   6.140   1.513   3.373  0.6583  0.4530  0.4259
64698SOL    HW212087   6.241   1.494   3.261  0.3813 -1.2718  0.4288
64699SOL     OW12088   2.903   6.605   0.794 -0.0355  0.2998  0.0920
64699SOL    HW112089   2.830   6.620   0.734 -1.6360  1.5963  2.1981
64699SOL    HW212090   2.957   6.683   0.786 -0.1880  0.4218  0.2320
64700SOL     OW12091   8.501  10.622   9.617  0.1763 -0.5685  0.4613
64700SOL    HW112092   8.462  10.601   9.702 -0.9612 -1.5313 -0.2698
64700SOL    HW212093   8.432  10.669   9.570 -0.1373 -2.2373 -0.8306
64701SOL     OW12094  11.013   6.505   3.123  0.3328  0.2709  0.1429
64701SOL    HW112095  10.980   6.437   3.182 -1.2180  1.5349  0.7825
64701SOL    HW212096  10.990   6.587   3.165  0.1833  1.2248 -1.6815
64702SOL     OW12097   4.708  11.804   6.604 -0.1675  0.2322 -0.3694
64702SOL    HW112098   4.681  11.761   6.523  0.2251  0.5272 -0.6682
64702SOL    HW212099   4.803  11.792   6.606  0.0130  1.4850 -0.7066
64703SOL     OW12100   7.447   4.286   0.431 -0.1333  0.0696 -0.1273
64703SOL    HW112101   7.490   4.247   0.356  2.2173  1.2124  0.5362
64703SOL    HW212102   7.442   4.380   0.411  0.6850  0.4187  1.1640
64704SOL     OW12103   9.055  10.577   9.127  0.2411  0.3049 -0.8370
64704SOL    HW112104   9.124  10.558   9.190 -0.4706  0.9582  0.1634
64704SOL    HW212105   8.979  10.529   9.160  0.5350 -1.6350 -2.7168
64705SOL     OW12106   4.043  12.244   1.500  0.2368  0.2999 -0.4514
64705SOL    HW112107   4.136  12.256   1.522 -0.1405  0.1898  1.3849
64705SOL    HW212108   4.038  12.263   1.406  2.0379  0.7344 -0.5018
64706SOL     OW12109   9.002  11.827  12.434 -0.2040 -0.5313  0.1729
64706SOL    HW112110   9.088  11.850  12.402  0.2910 -0.8167  1.2485
64706SOL    HW212111   8.957  11.911  12.447 -0.0889 -0.3851 -0.3613
64707SOL     OW12112  11.641  10.494  11.232  0.3721 -0.0348  0.2181
64707SOL    HW112113  11.648  10.589  11.244  2.1468 -0.1857  0.6608
64707SOL    HW212114  11.712  10.472  11.172 -0.8595 -0.9422 -0.9688
64708SOL     OW12115  10.932   9.651   6.869 -0.4162  0.3106  0.0015
64708SOL    HW112116  10.860   9.700   6.909 -0.1400 -0.1767  1.1520
64708SOL    HW212117  10.927   9.565   6.909  1.7779  0.7358  1.3788
64709SOL     OW12118   3.966  10.934   8.598 -0.2874  0.2836 -0.1942
64709SOL    HW112119   4.038  10.995   8.582  0.7847 -0.5575  1.2124
64709SOL    HW212120   3.923  10.968   8.676 -0.4065 -0.1273 -0.0811
64710SOL     OW12121  13.917  11.883   4.914  0.2239 -0.2153 -0.2760
64710SOL    HW112122  13.948  11.796   4.891  1.5806  0.4740 -1.2019
64710SOL    HW212123  13.850  11.902   4.848  0.5202 -0.2246 -0.5793
64711SOL     OW12124   1.504   9.950   9.636  0.2514  0.2779  0.1472
64711SOL    HW112125   1.588   9.906   9.618 -0.7745 -0.9189 -2.1173
64711SOL    HW212126   1.440   9.879   9.635 -0.8246  1.1560  2.0503
64712SOL     OW12127   9.521  13.777  12.509  0.5358 -0.5799  0.2019
64712SOL    HW112128   9.602  13.766  12.558 -0.6373 -1.2517  2.0973
64712SOL    HW212129   9.452  13.772  12.575 -1.1212 -1.0184 -1.4750
64713SOL     OW12130   5.177   1.741   7.376 -0.3554 -0.2648 -0.5233
64713SOL    HW112131   5.221   1.824   7.359 -1.8143  0.8753  0.8674
64713SOL    HW212132   5.207   1.715   7.463  0.9164 -1.8062 -1.3790
64714SOL     OW12133   9.103   8.774  13.440 -0.5257 -0.2480 -0.5262
64714SOL    HW112134   9.139   8.817  13.517 -1.0918 -1.2713  0.3370
64714SOL    HW212135   9.160   8.698  13.426 -0.0446  0.2733 -1.5130
64715SOL     OW12136  11.182  12.885   7.465  0.7074  0.6383 -0.6894
64715SOL    HW112137  11.146  12.829   7.397  1.5373 -0.7428 -0.0326
64715SOL    HW212138  11.172  12.834   7.546  0.2568  2.0005  0.1451
64716SOL     OW12139   2.482   2.377  12.361  0.1703 -0.1442  0.1896
64716SOL    HW112140   2.572   2.379  12.328  1.2373 -0.9775  2.7975
64716SOL    HW212141   2.471   2.288  12.395 -1.4872  0.0947  0.3538
64717SOL     OW12142   1.349   9.228   5.641  0.7528 -0.4217  0.3215
64717SOL    HW112143   1.437   9.192   5.628  0.2447 -1.5452 -0.0889
64717SOL    HW212144   1.324   9.263   5.556  0.5011 -0.7776  0.2502
64718SOL     OW12145   3.377  13.534  13.990 -0.6539  0.3057  0.8795
64718SOL    HW112146   3.423  13.567  13.913 -0.0620 -1.2793  0.5363
64718SOL    HW212147   3.400  13.442  13.996 -3.4977 -0.5213  0.8809
64719SOL     OW12148   2.356   4.294  14.087  0.4557  0.1987 -0.0867
64719SOL    HW112149   2.451   4.305  14.094  0.7096 -0.7256 -1.6442
64719SOL    HW212150   2.323   4.382  14.069  0.8640  0.7200  1.5642
64720SOL     OW12151  13.378   7.178  10.027  0.3162  0.1852 -0.1963
64720SOL    HW112152  13.371   7.253   9.967  2.6185 -1.3460 -2.6392
64720SOL    HW212153  13.350   7.103   9.974 -1.2584 -0.8530  1.9610
64721SOL     OW12154   8.930   1.552  10.561 -0.0871 -0.0335  0.0652
64721SOL    HW112155   8.942   1.478  10.501  0.4201  1.4687 -1.7794
64721SOL    HW212156   9.018   1.587  10.573 -0.6564  2.3245 -1.9084
64722SOL     OW12157   4.065   5.639   6.057 -0.0599 -0.2213 -0.4211
64722SOL    HW112158   4.101   5.567   6.109 -2.3277 -0.5547  0.8205
64722SOL    HW212159   4.137   5.702   6.050  1.5950 -2.0389 -0.4838
64723SOL     OW12160   5.748  11.678   2.958 -0.0615  0.4730 -0.0939
64723SOL    HW112161   5.713  11.686   2.869 -1.3370 -1.8520  0.1114
64723SOL    HW212162   5.822  11.617   2.949 -0.7646 -0.4968  0.5344
64724SOL     OW12163   6.286   9.833  12.091  0.1057  0.1136 -0.3618
64724SOL    HW112164   6.262   9.740  12.084  0.9152 -0.1614  0.2327
64724SOL    HW212165   6.357   9.843  12.028  0.9827 -0.0376  0.5726
64725SOL     OW12166   5.250   2.539  13.949 -0.2945  0.1337 -0.3725
64725SOL    HW112167   5.343   2.547  13.925  0.0721  2.0986  1.3569
64725SOL    HW212168   5.234   2.445  13.953  1.5874 -0.2552 -0.8967
64726SOL     OW12169   9.035  10.214   7.402  0.1377 -0.4741 -0.2477
64726SOL    HW112170   9.003  10.192   7.489 -1.7845 -0.5231 -0.9136
64726SOL    HW212171   9.087  10.294   7.415 -2.8225  1.4965  0.5833
64727SOL     OW12172   8.730   7.017  12.901 -0.5673  0.7278 -0.5034
64727SOL    HW112173   8.640   7.049  12.906 -1.0856 -0.3936 -1.8490
64727SOL    HW212174   8.781   7.092  12.870 -0.7645  1.7468  1.4746
64728SOL     OW12175   8.040   6.559   8.094 -0.1168 -0.4991 -0.1638
64728SOL    HW112176   7.989   6.546   8.174 -1.0487 -0.7546 -0.7929
64728SOL    HW212177   8.077   6.647   8.103 -0.1308 -0.5667  0.5884
64729SOL     OW12178   1.170   6.454   0.902  0.2284 -0.6493  0.5095
64729SOL    HW112179   1.113   6.480   0.830  1.2509 -0.5402 -0.2726
64729SOL    HW212180   1.208   6.371   0.874 -0.1513 -1.1258  1.3743
64730SOL     OW12181   9.430  13.712   3.534  0.6085 -0.2651 -0.4359
64730SOL    HW112182   9.490  13.770   3.488 -1.1009  0.4885 -1.8457
64730SOL    HW212183   9.483  13.637   3.559  2.6813  1.4465  0.6168
64731SOL     OW12184  13.253   4.193  10.340  0.0702 -0.5035  0.5819
64731SOL    HW112185  13.162   4.222  10.345 -0.1548 -1.1289  0.1725
64731SOL    HW212186  13.304   4.274  10.351 -0.5330 -0.1139  0.5752
64732SOL     OW12187   5.040   5.715  12.678  0.1937 -0.1120 -0.2608
64732SOL    HW112188   4.983   5.783  12.641  2.7407  1.0651 -2.3751
64732SOL    HW212189   5.105   5.699  12.610  2.3703 -1.4002  1.9686
64733SOL     OW12190   0.155   2.615   3.148 -0.3217 -0.0750  1.0145
64733SOL    HW112191   0.181   2.690   3.201 -0.1658  0.2255  0.5204
64733SOL    HW212192   0.204   2.625   3.066 -1.3582  0.0493  0.3940
64734SOL     OW12193   1.599  10.254   3.051 -0.2771 -0.4623 -0.8453
64734SOL    HW112194   1.625  10.331   3.000  1.5408 -1.4176 -1.4922
64734SOL    HW212195   1.504  10.251   3.045 -0.6101  2.7159  0.7235
64735SOL     OW12196  13.363   1.496  13.440  0.1116 -0.4929 -0.2551
64735SOL    HW112197  13.388   1.589  13.445  1.9666 -0.7376 -2.7583
64735SOL    HW212198  13.377   1.463  13.529 -1.1797  1.6977  0.8655
64736SOL     OW12199   7.474   3.975  14.148 -0.0514 -0.1844 -1.0216
64736SOL    HW112200   7.387   3.963  14.186  0.5052  0.3894  0.5143
64736SOL    HW212201   7.459   3.974  14.053 -2.1246  2.5503 -0.8598
64737SOL     OW12202   4.414   4.601   2.388 -0.0517  0.5000  0.1323
64737SOL    HW112203   4.393   4.694   2.399 -1.7617  0.2264 -0.4708
64737SOL    HW212204   4.381   4.579   2.301  0.6738 -0.5905  0.1161
64738SOL     OW12205   5.253  13.715   0.267  0.2228 -0.2775  0.4343
64738SOL    HW112206   5.277  13.668   0.187  3.1376  0.9973  0.3999
64738SOL    HW212207   5.302  13.670   0.336  0.1700  0.4725  0.9703
64739SOL     OW12208  10.400   2.576  11.283 -0.4167 -0.6770 -0.2236
64739SOL    HW112209  10.403   2.657  11.232  0.0091 -1.2527 -1.1504
64739SOL    HW212210  10.462   2.590  11.355 -0.4436 -0.1376 -0.3019
64740SOL     OW12211  11.854  11.017   3.288  0.0727 -0.6278  0.4845
64740SOL    HW112212  11.765  10.984   3.287 -0.3242  0.3695 -0.9040
64740SOL    HW212213  11.903  10.955   3.341 -0.6574 -3.3512 -1.8021
64741SOL     OW12214   7.697  11.393  11.334 -0.1935  0.2669 -0.0770
64741SOL    HW112215   7.767  11.373  11.396 -0.6633 -1.6546 -0.1095
64741SOL    HW212216   7.677  11.486  11.349 -0.0106 -0.0265  2.3511
64742SOL     OW12217   5.233   9.936   0.467  0.3195  0.0091 -0.8587
64742SOL    HW112218   5.153   9.987   0.478  0.0321 -0.2289 -1.7824
64742SOL    HW212219   5.252   9.940   0.373  1.7609  0.6194 -0.5640
64743SOL     OW12220   7.197   1.083  13.474 -0.3743 -0.2042 -0.0187
64743SOL    HW112221   7.199   1.121  13.386 -0.9776 -0.9603 -0.3645
64743SOL    HW212222   7.133   1.013  13.469  0.4914 -1.0835  0.6920
64744SOL     OW12223   3.331   8.604   1.841  0.5882  0.4605 -0.1633
64744SOL    HW112224   3.281   8.683   1.819  0.8322  0.6809  0.0831
64744SOL    HW212225   3.407   8.607   1.783  1.9880  1.7835  1.6386
64745SOL     OW12226   6.374  10.947   2.659  0.1196  0.4435  0.0278
64745SOL    HW112227   6.390  10.852   2.656 -0.1323  0.3822  0.4464
64745SOL    HW212228   6.447  10.982   2.709  0.3960  0.5178 -0.4201
64746SOL     OW12229   7.389   9.782   1.214  0.0447  0.0303  0.2419
64746SOL    HW112230   7.462   9.844   1.208 -0.2746  0.4059  0.1663
64746SOL    HW212231   7.428   9.701   1.247  0.5059  0.2075  0.1394
64747SOL     OW12232   2.932   9.743  11.596  0.1376 -0.3480  0.5460
64747SOL    HW112233   3.015   9.696  11.606  0.8836  0.3720 -1.5483
64747SOL    HW212234   2.886   9.696  11.526  0.5504  1.4521 -1.0294
64748SOL     OW12235  12.040   4.538   2.306  0.2984 -0.0925 -0.3568
64748SOL    HW112236  12.117   4.583   2.272  0.1472 -0.2441 -0.8984
64748SOL    HW212237  12.047   4.448   2.272 -0.1185 -0.1070 -0.4162
64749SOL     OW12238  10.894  13.552   6.035 -0.4416  0.1644  0.4559
64749SOL    HW112239  10.800  13.552   6.052 -0.7027 -0.4231 -0.8828
64749SOL    HW212240  10.908  13.626   5.975 -0.1349 -0.0630  0.2405
64750SOL     OW12241  12.046   3.920   0.258 -0.3661 -0.8081  0.1493
64750SOL    HW112242  12.029   3.826   0.271 -1.0442 -0.8935 -1.2083
64750SOL    HW212243  12.080   3.926   0.169 -1.5696  0.3830 -0.2502
64751SOL     OW12244   1.769  11.655   6.716 -0.1594 -0.4391 -0.1367
64751SOL    HW112245   1.743  11.721   6.652  0.2720  0.0435  0.1710
64751SOL    HW212246   1.862  11.674   6.733 -0.0223 -1.1411 -0.0626
64752SOL     OW12247  14.023   2.593   3.235 -0.5035 -0.2769  0.1504
64752SOL    HW112248  14.098   2.566   3.182 -2.1721 -2.4905 -1.2591
64752SOL    HW212249  13.962   2.633   3.172 -0.8889  0.6996  1.1103
64753SOL     OW12250   8.983   9.252   9.451  0.0736 -0.4333 -0.0920
64753SOL    HW112251   8.921   9.241   9.524  0.9701  2.2752  1.2193
64753SOL    HW212252   8.930   9.290   9.381 -0.0255  0.8350  0.6359
64754SOL     OW12253   1.004   9.912  13.965 -0.1667 -0.2810  0.1471
64754SOL    HW112254   1.072   9.979  13.962 -0.2032 -0.1986  0.8744
64754SOL    HW212255   1.033   9.850  14.032 -1.1022  0.1039  0.9381
64755SOL     OW12256   1.833   9.200  11.910 -0.0332 -0.3653 -0.7470
64755SOL    HW112257   1.789   9.184  11.993 -0.3648  0.9499 -0.6421
64755SOL    HW212258   1.800   9.286  11.882  0.0254 -0.8057 -2.2648
64756SOL     OW12259  10.559  10.578   5.506  0.1510 -0.0932  0.7759
64756SOL    HW112260  10.653  10.597   5.506  0.8278 -2.8903  1.5388
64756SOL    HW212261  10.531  10.597   5.595 -0.5661  2.6748  0.0552
64757SOL     OW12262   6.302   1.603  10.160 -0.4557 -0.0609  0.4954
64757SOL    HW112263   6.381   1.657  10.159  0.7116 -1.6275  1.5742
64757SOL    HW212264   6.264   1.619  10.246 -2.1108  1.6619 -0.4779
64758SOL     OW12265  13.792  10.127   0.194  0.5510  0.3886  0.0038
64758SOL    HW112266  13.737  10.048   0.196  1.0650  0.0360  0.5052
64758SOL    HW212267  13.873  10.098   0.151  1.1633  0.3555  1.1493
64759SOL     OW12268   5.034   1.274  11.673  0.4038 -0.5102  0.4803
64759SOL    HW112269   5.053   1.216  11.746  0.3626  0.9560  1.7083
64759SOL    HW212270   4.968   1.335  11.707  0.9506  0.6835 -0.5108
64760SOL     OW12271   4.928   9.470   4.669  0.3875  0.3349  0.4732
64760SOL    HW112272   4.904   9.515   4.588  2.5762  1.9791  0.6343
64760SOL    HW212273   4.922   9.377   4.649  0.6206  0.7055 -1.5044
64761SOL     OW12274  10.616   0.246  13.837 -0.2844 -0.0069 -0.1223
64761SOL    HW112275  10.667   0.326  13.827 -0.7090  0.2442 -0.3395
64761SOL    HW212276  10.675   0.185  13.881 -0.6217  1.1173  2.0574
64762SOL     OW12277   3.913  10.047  10.915 -0.2178  0.1060  0.4918
64762SOL    HW112278   3.916  10.134  10.874 -0.2756  0.1256  0.5292
64762SOL    HW212279   3.993  10.004  10.885 -1.1729 -0.5677 -1.1970
64763SOL     OW12280  13.344   4.132  12.152 -0.3327  0.0090  0.1385
64763SOL    HW112281  13.306   4.049  12.124 -1.6069  0.6231 -0.0303
64763SOL    HW212282  13.298   4.198  12.099  1.0607  0.7903 -0.1566
64764SOL     OW12283   7.572   4.946   4.817 -0.2047  0.2111 -0.1267
64764SOL    HW112284   7.480   4.921   4.806 -0.2772  1.4136 -2.9836
64764SOL    HW212285   7.575   4.986   4.904 -1.9423 -1.4965  0.8053
64765SOL     OW12286  12.773   7.967   2.051  0.4719 -0.0402  0.3689
64765SOL    HW112287  12.739   7.958   1.962 -0.1883  1.1497  0.4859
64765SOL    HW212288  12.777   7.877   2.084 -1.1738 -0.3361 -0.1555
64766SOL     OW12289  10.505  11.861  11.097 -0.2667  0.2417 -0.6519
64766SOL    HW112290  10.510  11.765  11.093 -1.4414  0.1474 -0.2888
64766SOL    HW212291  10.575  11.891  11.040  1.2801 -0.8209  0.5868
64767SOL     OW12292   9.380   1.255   7.112 -0.3706  0.2947  0.0949
64767SOL    HW112293   9.358   1.341   7.146  1.6792  0.4773  1.1785
64767SOL    HW212294   9.422   1.271   7.028  1.1004  0.5263  0.8303
64768SOL     OW12295  10.367   3.807   2.111 -0.3388  0.2415 -0.6399
64768SOL    HW112296  10.426   3.783   2.182 -0.2456  0.3447 -0.6827
64768SOL    HW212297  10.421   3.856   2.050 -0.4493  0.2666 -0.7192
64769SOL     OW12298  13.938   5.577   2.575  0.1116 -0.2660 -0.5823
64769SOL    HW112299  14.014   5.534   2.614 -1.1691 -2.0498  0.0911
64769SOL    HW212300  13.929   5.535   2.489 -1.3013 -1.6544  0.1837
64770SOL     OW12301   6.289   8.407   9.135  0.1799 -0.2029  0.2832
64770SOL    HW112302   6.346   8.404   9.212 -0.8006 -0.7664  1.0212
64770SOL    HW212303   6.263   8.499   9.129 -1.7669 -0.5211  2.2423
64771SOL     OW12304   6.267   1.208   3.222  0.0032 -0.1096 -0.4640
64771SOL    HW112305   6.340   1.148   3.208  0.7629  0.9836 -1.2712
64771SOL    HW212306   6.307   1.289   3.252 -1.1182 -0.4759  2.4735
64772SOL     OW12307   2.175   5.489  12.910 -0.3488 -0.0445 -0.6076
64772SOL    HW112308   2.141   5.570  12.870  0.5898  0.0917 -1.1748
64772SOL    HW212309   2.116   5.471  12.983  0.2497  1.9583  0.4385
64773SOL     OW12310  10.487   9.747   4.593  0.1039 -0.3256 -0.7104
64773SOL    HW112311  10.401   9.708   4.609  0.6851 -1.4998 -0.3774
64773SOL    HW212312  10.513   9.715   4.507  0.2490 -0.0316 -0.7776
64774SOL     OW12313  13.453  10.080  12.656  0.6094 -0.0483 -0.4384
64774SOL    HW112314  13.407   9.998  12.638  2.5007 -0.8874 -1.8530
64774SOL    HW212315  13.435  10.135  12.580 -0.7389  0.9551  0.5509
64775SOL     OW12316  10.141   8.262   1.316 -0.2466  0.0502  0.6343
64775SOL    HW112317  10.155   8.284   1.408  1.1643  0.1583  0.4128
64775SOL    HW212318  10.079   8.189   1.318  2.7240 -2.6825  1.9244
64776SOL     OW12319   0.619  11.849   5.359 -0.3552  0.0941  0.9577
64776SOL    HW112320   0.532  11.814   5.341  0.7816 -2.0091 -1.1796
64776SOL    HW212321   0.639  11.903   5.282  0.5963 -0.3387  0.8792
64777SOL     OW12322   3.947   3.931   9.459 -0.1020  0.0230 -0.3502
64777SOL    HW112323   3.994   4.010   9.486 -0.4159  0.5045 -1.1732
64777SOL    HW212324   3.902   3.901   9.539 -0.9171  1.3456 -0.2818
64778SOL     OW12325   4.369   0.513   2.342  0.3144 -0.1272 -0.5806
64778SOL    HW112326   4.457   0.523   2.307 -0.0210 -1.5257 -1.9361
64778SOL    HW212327   4.312   0.553   2.277 -0.0896  0.3053  0.0336
64779SOL     OW12328  10.715   4.737  11.091 -0.6637 -0.5835  0.4379
64779SOL    HW112329  10.633   4.775  11.061 -2.8731 -5.0390  0.0844
64779SOL    HW212330  10.767   4.727  11.011 -0.6925  0.1280  0.3199
64780SOL     OW12331   6.067   5.133   2.799 -0.4794 -0.7599  0.0766
64780SOL    HW112332   6.129   5.064   2.776  0.3872  0.6182 -2.0745
64780SOL    HW212333   6.029   5.160   2.715 -1.5770  0.6536  0.9710
64781SOL     OW12334  12.309   8.549  10.433 -0.4724  0.1244 -0.0615
64781SOL    HW112335  12.261   8.631  10.438 -0.2635  0.1802  1.1381
64781SOL    HW212336  12.241   8.483  10.417 -0.8015  0.3475  0.4115
64782SOL     OW12337   3.212   6.003   9.009  0.1593  0.1623 -0.4309
64782SOL    HW112338   3.131   6.042   8.975 -0.3888 -0.7801 -0.2397
64782SOL    HW212339   3.278   6.071   8.996 -0.7665  1.1670 -0.0880
64783SOL     OW12340   3.827  13.912   2.799  0.4722 -0.5608  0.0942
64783SOL    HW112341   3.752  13.915   2.859  0.6962 -0.2207  0.3561
64783SOL    HW212342   3.900  13.884   2.853  0.5325 -0.9284 -0.1703
64784SOL     OW12343  11.126   0.040   1.426 -0.3311  0.3341  0.2133
64784SOL    HW112344  11.157   0.111   1.370 -1.6987  1.4828  0.8472
64784SOL    HW212345  11.038   0.019   1.394 -1.7820  2.0593  2.7338
64785SOL     OW12346  12.898   2.765   5.943 -0.0266  0.7869 -0.0168
64785SOL    HW112347  12.935   2.748   5.856  0.1826  1.4911 -0.0743
64785SOL    HW212348  12.936   2.849   5.969 -0.0550  0.5572  0.7767
64786SOL     OW12349   9.330   4.650   8.799 -0.1897 -0.2510 -0.2087
64786SOL    HW112350   9.271   4.575   8.797 -0.2072 -0.2656 -2.6481
64786SOL    HW212351   9.415   4.615   8.772  0.7378 -0.0082  2.1220
64787SOL     OW12352   8.114  13.247   6.931 -0.1241 -0.3963 -0.0569
64787SOL    HW112353   8.114  13.164   6.884 -1.1256 -1.3879  1.5814
64787SOL    HW212354   8.206  13.263   6.952  0.1816 -0.6038 -1.1859
64788SOL     OW12355   6.916   8.792   8.848 -0.3178  0.1682  0.3338
64788SOL    HW112356   7.003   8.798   8.887 -0.3440 -1.6990  0.7853
64788SOL    HW212357   6.933   8.779   8.754 -0.0723 -0.7225  0.4920
64789SOL     OW12358  12.049   9.870   5.071  0.0910  0.4720  0.1550
64789SOL    HW112359  12.124   9.917   5.106  0.3729 -0.9340  1.5335
64789SOL    HW212360  12.023   9.920   4.994  1.0270  2.2496  0.9496
64790SOL     OW12361   1.857  12.201  12.680 -0.1915  0.3394 -0.0379
64790SOL    HW112362   1.821  12.204  12.769  0.4186  0.8987  0.1906
64790SOL    HW212363   1.808  12.267  12.631 -0.9037 -0.3367 -0.2749
64791SOL     OW12364   3.762   0.990   3.659  0.2372  0.4441  0.3314
64791SOL    HW112365   3.692   0.986   3.593 -1.5181  2.5657  1.9165
64791SOL    HW212366   3.826   1.052   3.623  1.4066 -1.4906 -1.1187
64792SOL     OW12367   7.901   8.393   5.896  0.1525  0.5351  0.1841
64792SOL    HW112368   7.952   8.463   5.936  0.0490  0.6429  0.1303
64792SOL    HW212369   7.945   8.313   5.923  1.6736  0.6792 -1.6333
64793SOL     OW12370   8.251   0.238   9.435 -1.0863  0.3918 -0.6678
64793SOL    HW112371   8.156   0.235   9.445 -1.1276 -1.4263 -1.2684
64793SOL    HW212372   8.286   0.232   9.524 -1.5236  0.5232 -0.4885
64794SOL     OW12373   8.236   1.918   2.746  0.1414 -0.3581  0.6753
64794SOL    HW112374   8.275   1.919   2.658 -3.0529  1.4669 -0.9257
64794SOL    HW212375   8.231   2.010   2.771 -1.7575 -0.6011  1.3533
64795SOL     OW12376   7.637   8.242  14.101  0.4682  0.4521 -0.3602
64795SOL    HW112377   7.564   8.286  14.143  0.6395 -0.6174  1.1244
64795SOL    HW212378   7.618   8.149  14.110  1.8539  0.1574 -0.2174
64796SOL     OW12379   4.536   5.725   0.039 -0.1152 -0.3773 -0.0198
64796SOL    HW112380   4.517   5.819   0.042  0.9970 -0.1491  0.4440
64796SOL    HW212381   4.462   5.684   0.082 -0.3565  0.3316  0.2489
64797SOL     OW12382   9.839   5.670  11.173  0.4401  0.1179  0.1774
64797SOL    HW112383   9.825   5.652  11.266 -0.9717 -0.7268 -0.1753
64797SOL    HW212384   9.934   5.673  11.163  0.6550 -1.7098  1.3011
64798SOL     OW12385   3.484   0.540   7.008 -0.4170  0.2624 -0.5943
64798SOL    HW112386   3.431   0.566   6.932 -0.0791 -2.5204 -1.9189
64798SOL    HW212387   3.564   0.503   6.969 -0.7562 -2.3991  0.9862
64799SOL     OW12388   9.322  11.088  13.509  0.3132 -0.3700  0.1610
64799SOL    HW112389   9.370  11.099  13.591  0.3680  0.4061  0.0335
64799SOL    HW212390   9.308  10.993  13.501  0.3146 -0.4471  1.0562
64800SOL     OW12391   2.155   8.239   6.942  0.4327  0.2442  0.0843
64800SOL    HW112392   2.212   8.316   6.949  0.7596  0.0185 -0.0727
64800SOL    HW212393   2.215   8.165   6.948  0.3963 -0.0040 -1.8464
64801SOL     OW12394   1.573   1.649   3.318  0.1040 -0.0653  0.2611
64801SOL    HW112395   1.573   1.629   3.412  0.9244  0.2831  0.3458
64801SOL    HW212396   1.600   1.567   3.276  0.2674 -0.0675  0.3690
64802SOL     OW12397   4.979  10.209   8.189  0.2220 -0.4311  0.1898
64802SOL    HW112398   5.046  10.169   8.134 -0.8446 -2.3826  0.2156
64802SOL    HW212399   4.903  10.219   8.131 -0.2899 -0.6989  0.7897
64803SOL     OW12400   6.034   4.379   5.244  0.9594 -0.2824 -0.3409
64803SOL    HW112401   5.984   4.459   5.263 -0.0099 -0.5449 -1.6255
64803SOL    HW212402   6.018   4.323   5.321 -0.6940 -0.3170 -0.6621
64804SOL     OW12403  11.831  11.119   0.364  0.0176  0.1247  0.0965
64804SOL    HW112404  11.741  11.147   0.349  0.3732  0.4464 -1.6144
64804SOL    HW212405  11.881  11.200   0.367  0.3191 -0.0752  0.5279
64805SOL     OW12406   7.621   2.330   2.762  0.2508 -0.4690 -0.1623
64805SOL    HW112407   7.663   2.333   2.676 -0.5831  2.2220 -0.5489
64805SOL    HW212408   7.691   2.354   2.823  0.6180 -1.4983 -0.1602
64806SOL     OW12409  13.731   4.495   3.741  0.1525  0.0222 -0.0941
64806SOL    HW112410  13.727   4.453   3.827 -0.8468 -0.0625 -0.1617
64806SOL    HW212411  13.704   4.426   3.680  0.8725  0.0776 -0.4853
64807SOL     OW12412  10.028  10.182   2.933 -0.6780 -0.2727 -1.1750
64807SOL    HW112413  10.050  10.135   2.852 -0.1199 -1.3422 -0.4362
64807SOL    HW212414  10.054  10.272   2.916 -0.1685 -0.5662 -2.0407
64808SOL     OW12415  12.421   0.798   2.491  0.5665 -0.5908 -0.0697
64808SOL    HW112416  12.432   0.879   2.540 -0.4750  0.2245 -1.1165
64808SOL    HW212417  12.508   0.778   2.458  0.6824  0.5801 -0.5096
64809SOL     OW12418  12.817  11.681   3.453 -0.2675 -0.3202  0.3311
64809SOL    HW112419  12.833  11.611   3.389  1.8505 -0.4597  0.9246
64809SOL    HW212420  12.819  11.636   3.537 -0.3191  0.2515  0.6395
64810SOL     OW12421   4.054  13.854   2.934 -0.3917 -0.0666  0.0089
64810SOL    HW112422   4.062  13.871   3.027 -0.4174  2.0864 -0.3315
64810SOL    HW212423   4.135  13.888   2.896 -0.0106 -1.6637 -0.6895
64811SOL     OW12424  10.622   5.513   8.892  0.2349  0.8859 -0.3974
64811SOL    HW112425  10.591   5.435   8.846 -1.0000  0.6325  0.7685
64811SOL    HW212426  10.575   5.585   8.851 -0.4629  0.7197  0.0804
64812SOL     OW12427   2.205   3.448   8.987 -0.0696 -0.2699  0.0699
64812SOL    HW112428   2.231   3.429   9.077 -0.5700 -0.2375  0.2294
64812SOL    HW212429   2.142   3.520   8.995  0.7233  0.4898 -0.4037
64813SOL     OW12430  13.586   4.944   5.638  0.3754 -0.2397 -0.1116
64813SOL    HW112431  13.601   4.980   5.551 -0.0077 -1.0898 -0.5363
64813SOL    HW212432  13.512   4.884   5.628 -1.6651  1.8442  1.3782
64814SOL     OW12433   6.441  11.475  13.165  0.0950 -0.0279 -0.3071
64814SOL    HW112434   6.464  11.383  13.174 -3.7886 -1.4193 -2.4615
64814SOL    HW212435   6.415  11.502  13.253 -0.0075 -1.4195  0.1031
64815SOL     OW12436   4.370   5.491   3.910 -0.0782  0.1844  0.6652
64815SOL    HW112437   4.417   5.416   3.874 -1.3458 -1.1653  1.6644
64815SOL    HW212438   4.431   5.531   3.971  0.9370  0.5351 -0.5542
64816SOL     OW12439  13.214   5.062   4.742 -0.3713  0.6222 -0.3364
64816SOL    HW112440  13.273   5.060   4.818  0.9346  0.5896 -1.3081
64816SOL    HW212441  13.126   5.061   4.779  0.2172  2.0937  1.2298
64817SOL     OW12442   7.687   1.011  13.072 -0.1579 -0.5349  0.3678
64817SOL    HW112443   7.647   0.989  12.988  0.7936 -0.3754 -0.1338
64817SOL    HW212444   7.636   1.085  13.104 -0.7869 -0.8610  0.1310
64818SOL     OW12445   5.928   9.829  10.258  0.4259 -0.1462  0.1307
64818SOL    HW112446   5.995   9.890  10.227  0.5429 -0.0483  0.5841
64818SOL    HW212447   5.958   9.802  10.344 -1.3104  1.7600  1.4243
64819SOL     OW12448   3.993   7.890  11.955 -0.1500 -0.3430  0.5059
64819SOL    HW112449   3.970   7.833  11.881 -1.1799  0.6001  0.0864
64819SOL    HW212450   4.014   7.829  12.026 -0.9998 -1.2522 -0.0046
64820SOL     OW12451  13.410  11.891   0.882 -0.1475  0.1618 -0.0421
64820SOL    HW112452  13.415  11.950   0.807 -0.1717 -0.9403 -0.9476
64820SOL    HW212453  13.347  11.824   0.856  0.0383 -0.3930  0.8601
64821SOL     OW12454  11.796  13.196   3.181  0.1382 -0.0783 -0.1407
64821SOL    HW112455  11.753  13.273   3.146  0.2218 -0.3694 -0.9103
64821SOL    HW212456  11.869  13.180   3.121  1.7264  0.7775  1.4646
64822SOL     OW12457   2.002   3.096  12.330  0.6617  0.0552  0.4478
64822SOL    HW112458   1.995   3.146  12.249 -1.5341 -1.3027 -0.2962
64822SOL    HW212459   2.018   3.006  12.302  1.4945 -0.2006  1.6238
64823SOL     OW12460   7.497   0.379  14.061 -0.5884 -0.2207 -0.1075
64823SOL    HW112461   7.533   0.382  13.973 -1.4614  0.6446 -0.4542
64823SOL    HW212462   7.475   0.286  14.075  0.4041 -0.5105 -0.4324
64824SOL     OW12463   7.815   5.821  10.040  0.4327 -0.1798 -0.7365
64824SOL    HW112464   7.831   5.844   9.948 -0.9520 -0.1082 -0.9858
64824SOL    HW212465   7.838   5.729  10.047  1.8392  0.1433 -0.8066
64825SOL     OW12466   7.382   2.270  11.678  0.1004  0.1512 -0.3885
64825SOL    HW112467   7.360   2.331  11.749 -0.5706 -1.0104  0.4422
64825SOL    HW212468   7.452   2.216  11.714  3.0116  2.3678 -2.2307
64826SOL     OW12469  11.424   9.183   7.158 -0.0968  0.1956  0.1937
64826SOL    HW112470  11.392   9.244   7.224  0.9035 -0.5227  1.3926
64826SOL    HW212471  11.356   9.115   7.154 -0.7576  0.8701 -0.4587
64827SOL     OW12472   1.738   3.286   9.411  0.2156 -0.1139  0.0188
64827SOL    HW112473   1.694   3.220   9.465  0.5342 -0.5044 -0.1946
64827SOL    HW212474   1.818   3.243   9.381  1.3539  0.9898  1.3646
64828SOL     OW12475   6.891  11.766  10.569  0.0393  0.2863  0.0060
64828SOL    HW112476   6.937  11.848  10.548  0.7212 -0.1786 -0.3505
64828SOL    HW212477   6.825  11.792  10.633  0.2410  1.1200 -0.1027
64829SOL     OW12478  11.255   5.665  12.794  0.3324  0.5202  0.6551
64829SOL    HW112479  11.317   5.658  12.866  2.3510  0.5148 -0.9749
64829SOL    HW212480  11.263   5.756  12.764  2.0365 -0.2834 -1.5822
64830SOL     OW12481   7.513   0.102   1.677  0.0097  0.0823 -0.0421
64830SOL    HW112482   7.425   0.135   1.659 -0.4058 -1.3694 -0.8683
64830SOL    HW212483   7.558   0.175   1.721 -1.5881  0.8491  0.3961
64831SOL     OW12484   4.922   5.400  11.473 -0.1342  0.1590 -0.1480
64831SOL    HW112485   4.919   5.389  11.568  0.1677 -2.5093 -0.3823
64831SOL    HW212486   5.014   5.392  11.450 -0.3484 -0.6744 -0.7792
64832SOL     OW12487   9.161   0.202   1.918  0.2435 -0.6713 -0.6285
64832SOL    HW112488   9.148   0.278   1.974  0.1144  0.2452 -1.8570
64832SOL    HW212489   9.250   0.174   1.935 -0.0289 -0.8471  0.5441
64833SOL     OW12490   2.854   0.444  11.207  0.0182  0.2308  0.1620
64833SOL    HW112491   2.934   0.404  11.243 -0.5503 -0.6429  0.4675
64833SOL    HW212492   2.787   0.378  11.217 -0.9641  1.2737  0.7045
64834SOL     OW12493   6.139   5.340   2.552 -0.0323  0.5228  0.2506
64834SOL    HW112494   6.143   5.435   2.541  2.3526  0.5641  0.9178
64834SOL    HW212495   6.176   5.324   2.639 -3.1367 -0.8643  1.4420
64835SOL     OW12496   9.207   2.959   8.591  0.2173 -0.1814  0.5790
64835SOL    HW112497   9.293   2.955   8.550 -0.5126 -0.8749 -0.9891
64835SOL    HW212498   9.206   2.886   8.653  0.5087 -0.6401  0.0503
64836SOL     OW12499   7.389  13.833   3.237 -0.1529  0.6633 -0.3817
64836SOL    HW112500   7.425  13.751   3.272  0.0846  0.4988 -0.9985
64836SOL    HW212501   7.296  13.815   3.227  0.1107 -0.0175 -1.8233
64837SOL     OW12502   5.189   7.293   7.905  0.2317 -0.7375 -0.2058
64837SOL    HW112503   5.196   7.358   7.975 -1.3369  1.2710 -1.8061
64837SOL    HW212504   5.099   7.299   7.875  1.3439  0.1202 -3.8530
64838SOL     OW12505   8.167  11.300  11.578 -0.1471 -0.5544  0.0127
64838SOL    HW112506   8.206  11.277  11.494  1.0736 -1.0383  0.6743
64838SOL    HW212507   8.214  11.378  11.606 -1.2244  0.1825 -0.1900
64839SOL     OW12508   7.707   2.747   6.835  0.1131  0.3646  0.5239
64839SOL    HW112509   7.623   2.724   6.794 -0.1456 -0.6554  1.5626
64839SOL    HW212510   7.683   2.778   6.922  0.7702  0.8532  0.5356
64840SOL     OW12511  10.901   7.195  10.117 -0.3796 -1.0431  0.3592
64840SOL    HW112512  10.868   7.271  10.067  0.4744 -1.0535 -0.2423
64840SOL    HW212513  10.873   7.212  10.207  0.9725  0.7167  0.5137
64841SOL     OW12514   9.160   9.017  12.598 -0.5519  0.1199  0.1180
64841SOL    HW112515   9.228   9.068  12.556  0.1094 -3.3045 -3.6390
64841SOL    HW212516   9.206   8.941  12.635 -1.8542  0.1917  2.0573
64842SOL     OW12517   6.804   0.927   9.141 -0.2935 -0.1033  0.4502
64842SOL    HW112518   6.896   0.916   9.163 -0.2593 -0.1311  0.2956
64842SOL    HW212519   6.757   0.885   9.213 -0.1677 -1.1546 -0.0535
64843SOL     OW12520   1.866  10.164   2.038  0.3413 -0.4519  0.0322
64843SOL    HW112521   1.914  10.218   1.976 -0.3966 -0.6237 -0.7019
64843SOL    HW212522   1.805  10.113   1.985  0.2332 -1.1791  0.8201
64844SOL     OW12523   7.916  13.804  13.793 -0.2417  0.2479 -0.1076
64844SOL    HW112524   7.938  13.830  13.882  0.2959  0.7455 -0.3789
64844SOL    HW212525   7.868  13.879  13.758  1.2658  0.9034 -0.8737
64845SOL     OW12526  10.298  11.126  11.905  0.2695 -0.0585  0.1968
64845SOL    HW112527  10.320  11.219  11.903  0.1915  0.0399  2.0091
64845SOL    HW212528  10.207  11.124  11.935  0.3113 -0.7190  0.2853
64846SOL     OW12529  13.492   1.799   4.969  0.9641 -0.4090 -0.6891
64846SOL    HW112530  13.587   1.798   4.982  0.9137 -0.3295 -0.2951
64846SOL    HW212531  13.481   1.793   4.875  1.4063  1.9659 -0.9555
64847SOL     OW12532  11.195   5.941   0.962  0.0695  0.5167  0.2647
64847SOL    HW112533  11.134   5.954   0.889 -2.2356  0.1956  2.0128
64847SOL    HW212534  11.230   6.028   0.979 -1.9238  1.2695  0.8312
64848SOL     OW12535   9.872  12.474   5.858  0.3622  0.1231 -0.1843
64848SOL    HW112536   9.964  12.476   5.884  0.7010 -1.0412 -1.1916
64848SOL    HW212537   9.867  12.535   5.784  0.9820 -1.8107 -1.9344
64849SOL     OW12538   6.292  13.896   1.865  0.0869 -0.3723 -0.1915
64849SOL    HW112539   6.278  13.801   1.871  0.5764 -0.4015  0.5701
64849SOL    HW212540   6.331  13.920   1.949 -1.5277  0.7770  0.2606
64850SOL     OW12541  12.051   1.877   8.010 -0.6757 -0.4034  0.1837
64850SOL    HW112542  12.121   1.940   7.991 -0.1351 -0.7340  1.0197
64850SOL    HW212543  12.046   1.874   8.106 -2.0507 -0.1659  0.1448
64851SOL     OW12544  12.746   0.238   9.809  0.3552 -0.3976  0.1061
64851SOL    HW112545  12.756   0.295   9.733  2.7918 -0.6969  0.1356
64851SOL    HW212546  12.789   0.286   9.880 -0.0923 -1.0156  0.8095
64852SOL     OW12547   3.810  12.608   6.466 -0.0215 -0.3532  0.8049
64852SOL    HW112548   3.901  12.586   6.446  0.3335  0.5994  1.3070
64852SOL    HW212549   3.764  12.524   6.462  0.8602 -0.8367  0.4692
64853SOL     OW12550   1.554   0.964  10.539  0.2263  0.0650  0.0561
64853SOL    HW112551   1.622   0.898  10.549  1.3067  1.2608  0.8324
64853SOL    HW212552   1.589   1.042  10.583 -1.7798  0.6150  0.7795
64854SOL     OW12553  11.209  10.674   5.400 -0.0580  0.0239  0.1504
64854SOL    HW112554  11.202  10.717   5.314  0.2177 -0.7464 -0.2743
64854SOL    HW212555  11.199  10.745   5.463  1.3261  0.8531 -0.5199
64855SOL     OW12556   5.538  10.423  13.987  0.3130  0.6052  0.0078
64855SOL    HW112557   5.586  10.454  13.910  0.5314 -0.3925 -0.2644
64855SOL    HW212558   5.499  10.340  13.960 -1.3890  1.2755  0.2971
64856SOL     OW12559   7.400   8.339   5.557  0.5591 -0.3718  0.0669
64856SOL    HW112560   7.437   8.289   5.484 -0.9527 -2.5416  0.6869
64856SOL    HW212561   7.451   8.311   5.634  1.4906  1.1676  0.0769
64857SOL     OW12562   6.222   6.001   4.260 -0.2724 -0.0615  0.5724
64857SOL    HW112563   6.238   6.090   4.292 -0.1012 -0.4079  1.4939
64857SOL    HW212564   6.161   6.013   4.187  0.3568  0.8696  0.1711
64858SOL     OW12565   0.970   9.583   7.496  0.5255  0.4928 -0.0583
64858SOL    HW112566   0.988   9.654   7.435 -0.5207 -0.5467 -1.6900
64858SOL    HW212567   0.902   9.617   7.554  1.0491  1.2757  0.1047
64859SOL     OW12568   9.318   3.927   7.884  0.0635  0.1404  0.3025
64859SOL    HW112569   9.235   3.948   7.926 -0.6693  0.3343 -1.1589
64859SOL    HW212570   9.346   3.846   7.925 -2.5821 -1.8332 -1.4270
64860SOL     OW12571   5.773  11.800   6.217 -0.6497  0.0615  0.4088
64860SOL    HW112572   5.725  11.721   6.240 -0.3273 -0.1388  0.3928
64860SOL    HW212573   5.705  11.861   6.187 -0.8438 -0.3914 -0.0934
64861SOL     OW12574  10.090   0.242   9.391  0.3085 -0.3238  0.2655
64861SOL    HW112575  10.086   0.221   9.298  0.1653  0.5895  0.0576
64861SOL    HW212576  10.008   0.288   9.409 -0.2440 -1.6095  1.1411
64862SOL     OW12577   8.756   1.577   1.713 -0.6485  0.4483  0.4439
64862SOL    HW112578   8.746   1.563   1.807 -1.1287  0.4710  0.3989
64862SOL    HW212579   8.851   1.585   1.700 -0.5152 -0.4207  0.7998
64863SOL     OW12580   6.930  12.051   8.795  1.1451 -0.0584 -0.1040
64863SOL    HW112581   7.001  12.098   8.840  0.4134  1.0893 -0.1183
64863SOL    HW212582   6.958  12.048   8.703  0.7844  1.1768 -0.2660
64864SOL     OW12583   7.958  11.789   4.977  0.0166 -0.2023 -0.1392
64864SOL    HW112584   8.050  11.796   4.999  0.0977 -0.3371 -0.4209
64864SOL    HW212585   7.925  11.879   4.981 -0.0703 -0.2734  0.9138
64865SOL     OW12586   6.814   4.783   0.765 -0.0726 -1.0067 -0.0713
64865SOL    HW112587   6.781   4.795   0.676  0.2318 -0.2878 -0.0968
64865SOL    HW212588   6.907   4.761   0.753  0.1342 -0.2286  0.0894
64866SOL     OW12589   9.359   6.768   2.610  0.9605  0.4270  0.3680
64866SOL    HW112590   9.348   6.745   2.702  0.0313  1.1319  0.4496
64866SOL    HW212591   9.389   6.687   2.568  2.2355  0.3319  1.4251
64867SOL     OW12592   7.017  12.765   3.432 -0.5873 -0.4314 -0.1965
64867SOL    HW112593   6.970  12.823   3.492  0.9951  0.3747  0.3117
64867SOL    HW212594   7.062  12.703   3.489 -0.6510 -0.9083 -0.6565
64868SOL     OW12595  10.342   5.980  10.269  0.0829  0.4045  0.0747
64868SOL    HW112596  10.322   5.888  10.254  0.8810  0.0718  1.0275
64868SOL    HW212597  10.362   5.986  10.362  0.7813  1.3979 -0.1246
64869SOL     OW12598   0.152   9.617   4.450 -0.5975  0.3269  0.1537
64869SOL    HW112599   0.173   9.651   4.363 -2.3709  0.1558 -0.3912
64869SOL    HW212600   0.196   9.532   4.454 -1.6944 -0.3493 -1.2044
64870SOL     OW12601   8.871   9.408  12.973 -0.1038 -0.1392 -0.3199
64870SOL    HW112602   8.882   9.343  12.903 -0.0797  0.2865 -0.7168
64870SOL    HW212603   8.800   9.374  13.027  0.7282 -1.1105  0.1854
64871SOL     OW12604  11.200   5.175  13.112  0.6681  0.2602 -0.5362
64871SOL    HW112605  11.131   5.173  13.179  1.5224  1.6652  0.4386
64871SOL    HW212606  11.159   5.216  13.036 -0.1269 -0.7712 -0.7024
64872SOL     OW12607   2.515   7.974   6.667 -0.2278  0.6283  0.2939
64872SOL    HW112608   2.609   7.956   6.656 -0.6464 -1.1389 -0.7795
64872SOL    HW212609   2.479   7.968   6.579 -1.6738 -0.8772  0.9333
64873SOL     OW12610   5.508   0.098   1.841  0.1575 -0.2163 -0.5222
64873SOL    HW112611   5.509   0.034   1.912  0.4927 -0.5693 -0.8476
64873SOL    HW212612   5.473   0.051   1.766  3.0691 -0.8692 -1.5590
64874SOL     OW12613   1.889   3.339  13.537  0.3868 -0.3006 -0.4179
64874SOL    HW112614   1.840   3.297  13.466  0.9890 -0.9984 -0.4330
64874SOL    HW212615   1.920   3.266  13.590 -0.2488  0.2204  0.7053
64875SOL     OW12616  10.113  11.707   8.665 -0.1309  0.0365 -0.0118
64875SOL    HW112617  10.049  11.727   8.596  1.9501  1.1621 -1.7425
64875SOL    HW212618  10.128  11.613   8.658 -0.6494 -0.0184 -0.4292
64876SOL     OW12619  13.573   1.322   3.535 -0.4078 -0.0038 -0.4775
64876SOL    HW112620  13.643   1.312   3.600 -1.1070 -2.0364  0.0359
64876SOL    HW212621  13.615   1.364   3.461  0.6703  1.4485  0.8763
64877SOL     OW12622  13.894   3.985  10.738  0.0977  0.1717  0.0970
64877SOL    HW112623  13.962   3.964  10.674 -0.1339  1.7104 -0.6907
64877SOL    HW212624  13.825   3.920  10.723  0.8266 -0.6017  0.0341
64878SOL     OW12625   6.680   3.061   9.638 -0.1733  0.4565 -0.2248
64878SOL    HW112626   6.620   3.011   9.584  0.3783  1.8739 -2.2691
64878SOL    HW212627   6.742   3.099   9.576  0.6422  1.9700  1.4257
64879SOL     OW12628   2.137   0.528   1.985  0.0247 -0.8028  0.8136
64879SOL    HW112629   2.094   0.577   1.915  1.3156  2.6728  2.2279
64879SOL    HW212630   2.068   0.472   2.021 -1.9301  0.7777 -0.2367
64880SOL     OW12631   1.847   0.831   4.461 -0.1202  0.2699 -0.2971
64880SOL    HW112632   1.923   0.876   4.498  0.2404 -1.2737  0.9187
64880SOL    HW212633   1.877   0.801   4.375  1.4100 -2.1251  0.9819
64881SOL     OW12634   0.685  11.855   2.529 -0.4106 -0.4314  0.4527
64881SOL    HW112635   0.748  11.927   2.529 -1.0500  0.1354  0.6282
64881SOL    HW212636   0.739  11.776   2.520  0.3372  0.0276  0.8333
64882SOL     OW12637   0.538  10.353  10.755 -0.0421  0.2659  0.3069
64882SOL    HW112638   0.565  10.418  10.821 -1.6540 -0.0135  1.2921
64882SOL    HW212639   0.484  10.291  10.804  0.1504 -0.9322 -0.9529
64883SOL     OW12640  12.992   9.100   7.633 -0.0669  0.3329 -0.1443
64883SOL    HW112641  13.075   9.054   7.617 -0.6188 -0.4975 -0.6452
64883SOL    HW212642  12.969   9.076   7.723  0.7990  1.4862  0.4168
64884SOL     OW12643   7.998   5.359   8.053 -0.3135  0.3900 -0.5067
64884SOL    HW112644   8.001   5.268   8.084 -3.5783  0.4853  0.5165
64884SOL    HW212645   7.965   5.409   8.128  2.2765  2.6730 -0.7380
64885SOL     OW12646  11.877   7.166  10.702  0.0911  0.1135 -0.0625
64885SOL    HW112647  11.917   7.252  10.710  1.0728 -0.3499  0.1380
64885SOL    HW212648  11.871   7.134  10.792  0.8278 -0.5112 -0.2288
64886SOL     OW12649   1.328   4.516   4.368  0.0851  0.0255 -0.4797
64886SOL    HW112650   1.338   4.585   4.434 -0.3556  0.5624 -0.9691
64886SOL    HW212651   1.233   4.504   4.360  0.1609 -1.9599  0.9591
64887SOL     OW12652   0.196   9.750  13.434  0.1499  0.0485 -0.0740
64887SOL    HW112653   0.278   9.705  13.448 -0.0308  0.5338  3.4462
64887SOL    HW212654   0.214   9.841  13.457 -0.6768  0.8845 -2.3549
64888SOL     OW12655  11.913   7.540  12.025 -0.1137 -0.0844 -0.1477
64888SOL    HW112656  11.846   7.486  11.984 -0.2471  1.5976 -2.3017
64888SOL    HW212657  11.866   7.617  12.057  0.6349  0.7410 -0.9665
64889SOL     OW12658   0.493   5.350   9.275  0.3397 -0.2536 -0.3672
64889SOL    HW112659   0.399   5.366   9.270  0.3719  0.0035 -0.1832
64889SOL    HW212660   0.532   5.410   9.212  0.4714  0.5048  0.4162
64890SOL     OW12661   0.667   8.081   5.309  0.3573 -0.1199  0.2529
64890SOL    HW112662   0.660   8.121   5.395  0.5569 -0.3673  0.3877
64890SOL    HW212663   0.689   8.153   5.250  1.1081 -0.0898  0.5579
64891SOL     OW12664  11.639   5.274   7.366  0.9557  0.0225  0.1173
64891SOL    HW112665  11.575   5.267   7.296 -0.5106 -1.7891  1.5462
64891SOL    HW212666  11.606   5.344   7.423 -1.9556 -3.1059  2.7543
64892SOL     OW12667   8.533   6.107   4.195 -0.4248  0.3739 -0.4861
64892SOL    HW112668   8.534   6.200   4.216  0.3143 -0.2932  3.0685
64892SOL    HW212669   8.530   6.063   4.280  0.2881 -2.8840 -1.9845
64893SOL     OW12670  12.932   8.468   4.787 -0.1389  0.1361 -0.0814
64893SOL    HW112671  12.858   8.498   4.840  0.4164  1.9622 -0.2819
64893SOL    HW212672  13.007   8.472   4.847  0.2542  0.9412 -0.6091
64894SOL     OW12673   7.360   3.125   5.193  0.5135  0.6366 -0.0663
64894SOL    HW112674   7.288   3.171   5.150 -0.9703 -1.4089  0.1040
64894SOL    HW212675   7.433   3.133   5.131 -0.6373  0.4730 -1.5076
64895SOL     OW12676   8.568   9.986   3.146 -0.2047  0.2285 -0.5843
64895SOL    HW112677   8.537  10.043   3.217 -0.6434  0.8186 -1.2428
64895SOL    HW212678   8.505   9.914   3.143 -1.2490  1.1575 -1.5797
64896SOL     OW12679   2.021   1.014  12.245  0.1648 -0.1989 -0.3415
64896SOL    HW112680   1.932   0.978  12.242 -0.1360  0.5388 -0.3824
64896SOL    HW212681   2.067   0.968  12.174  0.8053 -3.0863  1.7555
64897SOL     OW12682   4.974   8.731   1.196 -0.1039 -0.0375  0.1599
64897SOL    HW112683   4.958   8.825   1.192 -1.0308 -0.1905  0.0676
64897SOL    HW212684   5.027   8.713   1.118  0.2811  0.4351  0.3048
64898SOL     OW12685  12.502   6.667   8.299 -0.1233  0.0964  0.2706
64898SOL    HW112686  12.424   6.690   8.349  0.3063  2.6185 -0.0823
64898SOL    HW212687  12.476   6.591   8.247 -2.1382  0.5057  0.5952
64899SOL     OW12688   1.838   9.015   0.517  0.0619 -0.4519 -0.0454
64899SOL    HW112689   1.887   8.947   0.471 -0.2107 -1.1360  0.6676
64899SOL    HW212690   1.747   8.998   0.496 -0.0220 -0.4200  0.2869
64900SOL     OW12691  11.626   0.449  14.023 -0.0461 -0.2763 -0.5385
64900SOL    HW112692  11.674   0.378  14.066  0.7225  0.5728  0.0434
64900SOL    HW212693  11.565   0.404  13.964 -0.8124 -1.4732  1.0861
64901SOL     OW12694   6.117   5.920  10.905  0.0093 -0.0254 -0.4763
64901SOL    HW112695   6.166   5.949  10.828  3.0052 -3.6221 -0.2451
64901SOL    HW212696   6.057   5.853  10.872 -0.9114  0.5576 -0.0250
64902SOL     OW12697   9.671   2.897   0.517 -0.0806 -0.2852  0.0246
64902SOL    HW112698   9.586   2.853   0.511 -0.5706  0.6005  0.2680
64902SOL    HW212699   9.708   2.891   0.429 -0.9016  0.2933 -0.3737
64903SOL     OW12700   4.209  13.677   1.895  0.4113  0.3479 -0.0735
64903SOL    HW112701   4.239  13.703   1.983  0.9567 -0.8565  0.1102
64903SOL    HW212702   4.128  13.628   1.910  0.3165  0.4411 -0.2760
64904SOL     OW12703   5.089  11.113   6.969 -0.7105  0.1245 -0.8846
64904SOL    HW112704   5.033  11.151   7.036 -0.9447 -1.5534 -0.1040
64904SOL    HW212705   5.111  11.187   6.912 -1.5731  1.3142  0.2783
64905SOL     OW12706   0.316   0.254   2.330 -0.0926  0.2375  0.1625
64905SOL    HW112707   0.231   0.248   2.372 -1.1570  0.8382 -1.7702
64905SOL    HW212708   0.334   0.347   2.324  0.2626  0.1497 -0.2510
64906SOL     OW12709  11.443   7.773   8.054 -0.2929 -0.0892  0.5709
64906SOL    HW112710  11.383   7.736   7.988  0.3601 -2.1487  1.0527
64906SOL    HW212711  11.528   7.736   8.031  0.1348  0.0088  1.9507
64907SOL     OW12712   7.917   7.223  11.743  0.1395 -1.2627 -0.2660
64907SOL    HW112713   7.908   7.248  11.650 -1.0779  0.1389  0.1789
64907SOL    HW212714   7.864   7.288  11.790  2.8136 -0.2996  1.6630
64908SOL     OW12715   4.553   9.222   3.596 -0.3033  0.0016 -0.9757
64908SOL    HW112716   4.488   9.237   3.665  2.6715  0.7525  1.8950
64908SOL    HW212717   4.551   9.302   3.543  0.7666  1.6846  1.3688
64909SOL     OW12718   1.941  13.369   6.623 -0.1122  0.4751  0.0146
64909SOL    HW112719   1.965  13.279   6.645  0.4098  0.5616 -0.1965
64909SOL    HW212720   1.869  13.390   6.683 -1.1982 -0.5571 -0.8664
64910SOL     OW12721   1.409   9.240  11.223 -0.0558 -0.6306  0.0877
64910SOL    HW112722   1.385   9.332  11.235  0.1181 -0.5152 -0.4344
64910SOL    HW212723   1.449   9.237  11.136  3.3920 -0.4672  1.4789
64911SOL     OW12724   9.226   7.838   6.410 -0.2654  0.6326 -0.0939
64911SOL    HW112725   9.304   7.879   6.372  0.6540 -1.0223 -0.0867
64911SOL    HW212726   9.159   7.906   6.405  0.8681  1.7439 -1.1143
64912SOL     OW12727  11.504   0.597  10.592  0.3894 -0.8491  0.4144
64912SOL    HW112728  11.562   0.554  10.655  1.0836 -0.6263 -0.0609
64912SOL    HW212729  11.542   0.578  10.507  1.2798  1.4261  0.2180
64913SOL     OW12730   3.248  10.236   2.837  0.1929 -0.7939  0.0134
64913SOL    HW112731   3.331  10.230   2.790  1.8100  1.9319  2.1755
64913SOL    HW212732   3.266  10.196   2.922 -0.2528  0.9050  0.9572
64914SOL     OW12733  12.017  12.332   5.622  0.4127 -0.4740 -0.2491
64914SOL    HW112734  12.101  12.287   5.616  0.2862 -0.5751 -1.4944
64914SOL    HW212735  12.033  12.419   5.585  0.4806  0.2803  1.4876
64915SOL     OW12736   3.461  10.496   8.699 -0.1817 -0.2867  0.3952
64915SOL    HW112737   3.553  10.507   8.676  0.7156 -1.4547  3.0649
64915SOL    HW212738   3.447  10.402   8.699 -1.1439 -0.1568  0.8759
64916SOL     OW12739  13.827  13.282  11.540  0.0978 -0.4018  0.0160
64916SOL    HW112740  13.822  13.202  11.591 -0.1169 -0.4155 -0.0267
64916SOL    HW212741  13.918  13.284  11.508  0.0156 -0.7964 -0.2541
64917SOL     OW12742   6.518   4.775   4.396 -0.0676 -0.8771 -0.1448
64917SOL    HW112743   6.524   4.691   4.443  2.6307 -0.1465  1.0110
64917SOL    HW212744   6.463   4.830   4.451  1.3928 -0.6942  1.2088
64918SOL     OW12745   6.555  12.093   8.849  0.4321 -0.5829  0.1742
64918SOL    HW112746   6.638  12.099   8.801  0.0800 -0.4060 -0.4240
64918SOL    HW212747   6.541  12.000   8.862 -0.1186 -0.7101 -1.2287
64919SOL     OW12748   2.299   6.521   9.505  0.2869  0.4623 -0.3603
64919SOL    HW112749   2.304   6.528   9.600 -0.1154  0.0978 -0.3089
64919SOL    HW212750   2.347   6.441   9.483  0.6916  0.7430 -0.4977
64920SOL     OW12751   3.544   8.795   1.341 -0.2281 -0.4220  0.2587
64920SOL    HW112752   3.528   8.780   1.248  0.9888 -1.5284  0.1941
64920SOL    HW212753   3.458   8.786   1.382 -0.4814 -1.8394 -0.5385
64921SOL     OW12754  13.168   6.950  11.621  0.1204 -0.2133  0.0490
64921SOL    HW112755  13.153   6.914  11.534  1.0779 -0.0716 -0.1841
64921SOL    HW212756  13.162   6.875  11.680  0.6068 -0.5089 -0.2697
64922SOL     OW12757   5.175  12.567   6.592  0.3766 -0.1893  0.1123
64922SOL    HW112758   5.094  12.518   6.576  1.4214 -1.6556 -1.0159
64922SOL    HW212759   5.203  12.539   6.679  0.6200 -1.1109 -0.2539
64923SOL     OW12760   5.184  12.082   6.368 -0.2605  0.2531  0.0182
64923SOL    HW112761   5.223  12.169   6.360 -1.6314  0.7752 -1.7958
64923SOL    HW212762   5.090  12.100   6.376 -0.5645 -1.0472 -0.4868
64924SOL     OW12763   9.935   9.458  12.257 -0.4801 -0.1611  0.5242
64924SOL    HW112764   9.946   9.553  12.246 -0.7456 -0.0905  0.8551
64924SOL    HW212765   9.861   9.436  12.201  0.9770 -0.5639 -1.3556
64925SOL     OW12766   4.615   5.080   7.957  0.2100  0.4233 -0.1169
64925SOL    HW112767   4.654   5.025   7.889  1.9087 -0.6786  1.6468
64925SOL    HW212768   4.658   5.165   7.946  0.0511  0.4276 -0.7512
64926SOL     OW12769   2.811  11.739  11.818  0.3182 -0.0309  0.5293
64926SOL    HW112770   2.831  11.805  11.751  2.3438 -1.8889 -0.8527
64926SOL    HW212771   2.886  11.743  11.878 -0.9205  0.8152  2.0716
64927SOL     OW12772  10.682   3.617   5.106 -0.2132 -0.6460 -0.0657
64927SOL    HW112773  10.602   3.568   5.127 -0.3838 -0.2111  0.3229
64927SOL    HW212774  10.706   3.660   5.188  0.9071 -1.4503  0.0374
64928SOL     OW12775  12.339   2.222  13.513 -0.3535  0.1406  0.2310
64928SOL    HW112776  12.339   2.131  13.541  0.8647  0.6500  2.1202
64928SOL    HW212777  12.399   2.225  13.439 -0.8703 -0.6816 -0.2268
64929SOL     OW12778   6.724   7.181   6.960 -0.5183 -0.6599 -0.1665
64929SOL    HW112779   6.652   7.221   6.911 -0.0157  2.0854  1.1727
64929SOL    HW212780   6.755   7.250   7.018  0.7150 -2.9458  2.0689
64930SOL     OW12781   6.677   4.633   6.262 -0.1423 -1.0990 -0.1396
64930SOL    HW112782   6.705   4.683   6.184  0.4811  0.4806  1.0395
64930SOL    HW212783   6.672   4.699   6.331  0.7839 -2.7017  1.5205
64931SOL     OW12784   5.214  11.630   2.525  0.0038  0.5569 -0.4028
64931SOL    HW112785   5.150  11.592   2.585  0.7618 -1.2990 -0.7039
64931SOL    HW212786   5.168  11.701   2.482 -2.1167 -1.1864 -1.1519
64932SOL     OW12787  10.260   5.158   5.089 -0.6662  0.1754  0.4952
64932SOL    HW112788  10.220   5.075   5.064 -0.5137  0.1203  0.4278
64932SOL    HW212789  10.318   5.179   5.015 -0.4795  0.1905  0.6449
64933SOL     OW12790  13.509   9.841   1.062 -0.3238  0.2106  0.0248
64933SOL    HW112791  13.543   9.923   1.097  1.3248  0.1173 -1.2005
64933SOL    HW212792  13.522   9.777   1.133  1.2556  0.3890 -0.0708
64934SOL     OW12793  14.153   0.250   4.057 -0.6301  0.0541 -0.8097
64934SOL    HW112794  14.132   0.342   4.040 -1.7242 -0.2605 -1.1945
64934SOL    HW212795  14.190   0.218   3.975  2.4166  0.8318  0.0938
64935SOL     OW12796   3.696   0.173   5.002 -0.4707 -0.0736 -0.0394
64935SOL    HW112797   3.757   0.184   5.075 -0.9717 -0.5558  0.4726
64935SOL    HW212798   3.748   0.136   4.931 -0.1359 -0.3505  0.3462
64936SOL     OW12799  12.521  11.155  10.862  0.3309 -0.1915 -0.1223
64936SOL    HW112800  12.445  11.182  10.811  0.2023  1.7292  1.0003
64936SOL    HW212801  12.485  11.111  10.939  0.3728  0.1699  0.1060
64937SOL     OW12802  12.531  11.816   4.304 -0.1364 -0.5070 -0.3396
64937SOL    HW112803  12.560  11.833   4.215  0.0155 -1.7046 -0.5287
64937SOL    HW212804  12.482  11.895   4.329 -0.9063 -0.4971 -1.7846
64938SOL     OW12805  13.264   4.452  12.605 -0.5940  0.3386 -0.4207
64938SOL    HW112806  13.192   4.502  12.644  1.0288  1.6938  0.9604
64938SOL    HW212807  13.222   4.373  12.572 -2.6100  0.7300  0.9911
64939SOL     OW12808  11.553   7.087  10.898  0.2466 -0.2119  0.4516
64939SOL    HW112809  11.551   7.007  10.845 -2.0038  0.0081  0.0906
64939SOL    HW212810  11.516   7.154  10.841  0.4088  0.6776  1.3673
64940SOL     OW12811   7.716   8.101  13.671 -0.2462 -0.0151 -0.3521
64940SOL    HW112812   7.625   8.074  13.680 -0.3964  0.3587 -0.6950
64940SOL    HW212813   7.715   8.163  13.597  0.0380  1.1219  0.5679
64941SOL     OW12814  13.638   5.322   9.147 -0.3177  0.3650  0.0391
64941SOL    HW112815  13.618   5.407   9.185 -1.0711  1.0341 -1.7373
64941SOL    HW212816  13.719   5.336   9.097 -2.0154  0.9233 -2.7468
64942SOL     OW12817   9.756  13.806  12.211 -0.5036  0.3114  0.3837
64942SOL    HW112818   9.709  13.843  12.136 -1.8439  0.4080  1.2348
64942SOL    HW212819   9.687  13.779  12.271  0.5461  1.1503  2.0320
64943SOL     OW12820  12.430   5.282   4.386 -0.8306  0.0005  0.4037
64943SOL    HW112821  12.521   5.299   4.411 -0.0674 -1.1535 -1.3506
64943SOL    HW212822  12.378   5.325   4.454  1.0018  1.1927  1.1395
64944SOL     OW12823   5.088  12.230   0.292  0.3395  0.0087 -0.4992
64944SOL    HW112824   5.011  12.189   0.333  0.5547  0.2057  0.1063
64944SOL    HW212825   5.162  12.177   0.322  0.4669 -0.0572 -0.9189
64945SOL     OW12826   6.707   0.664   7.425  0.4037 -0.5507 -0.0574
64945SOL    HW112827   6.695   0.704   7.511 -1.6146 -0.1938 -0.4686
64945SOL    HW212828   6.761   0.587   7.442  1.9804  0.7517  1.1645
64946SOL     OW12829  13.007  11.223   3.407  0.3815  0.2693  0.4778
64946SOL    HW112830  13.019  11.129   3.396  1.6293  0.3620  0.8440
64946SOL    HW212831  13.035  11.240   3.497  1.0326  1.1137  0.1347
64947SOL     OW12832  10.787  12.472   1.816  0.7747  0.0891  0.0937
64947SOL    HW112833  10.876  12.445   1.793  0.0019 -0.1456 -3.1207
64947SOL    HW212834  10.776  12.557   1.775 -0.9412 -0.5885 -0.9962
64948SOL     OW12835  12.771   6.994  13.396  0.2709  0.5441 -0.0238
64948SOL    HW112836  12.714   6.933  13.443 -0.9120  1.9209  0.3925
64948SOL    HW212837  12.849   7.002  13.451 -0.0974  0.3689  0.5326
64949SOL     OW12838   2.294   0.780  12.415 -0.5722 -0.2683  0.3963
64949SOL    HW112839   2.365   0.830  12.454 -0.0077 -2.2446  2.0812
64949SOL    HW212840   2.320   0.768  12.324  1.8830 -1.8966  1.2240
64950SOL     OW12841   4.480  10.660  10.791 -0.6387  0.1487  0.1118
64950SOL    HW112842   4.527  10.739  10.816 -0.6447  0.6303 -1.2690
64950SOL    HW212843   4.528  10.589  10.833  0.2171  0.7759  0.2317
64951SOL     OW12844  13.192   0.408   7.301 -0.3842  0.6910  0.1373
64951SOL    HW112845  13.177   0.472   7.371 -0.3017  1.1680 -0.2778
64951SOL    HW212846  13.215   0.461   7.225  0.0986  0.1399 -0.0998
64952SOL     OW12847   8.711   7.121   7.302 -0.6323 -0.3881 -0.0602
64952SOL    HW112848   8.788   7.153   7.255  0.5046 -3.0888 -0.1693
64952SOL    HW212849   8.639   7.132   7.240  0.0321  0.1611 -0.7565
64953SOL     OW12850  13.560  11.599   1.933  0.1307  0.7353  0.1740
64953SOL    HW112851  13.514  11.642   2.004 -0.5867  2.0563 -1.0308
64953SOL    HW212852  13.574  11.668   1.868  0.4186 -0.4992 -1.1383
64954SOL     OW12853   6.643   9.713  11.850 -0.2258  0.1985 -0.0674
64954SOL    HW112854   6.720   9.678  11.805  1.0246  1.1301  1.2693
64954SOL    HW212855   6.581   9.732  11.779  0.4412 -1.3039 -1.1081
64955SOL     OW12856   0.793  12.295  10.635 -0.7016  0.0081  0.1675
64955SOL    HW112857   0.818  12.376  10.589  0.8271 -0.0730  0.7775
64955SOL    HW212858   0.720  12.321  10.691  0.1767  1.1627  0.8298
64956SOL     OW12859  13.429   5.032   6.538 -0.4118  0.2543 -0.3366
64956SOL    HW112860  13.357   4.971   6.520 -0.7479  1.3331 -3.1328
64956SOL    HW212861  13.387   5.117   6.546  0.3625  0.5809  0.4274
64957SOL     OW12862  10.787   7.574  11.774  0.0633 -0.4065  0.0388
64957SOL    HW112863  10.778   7.479  11.777 -1.8013 -0.2503  0.8048
64957SOL    HW212864  10.853   7.594  11.840 -0.4745 -1.0939  0.8028
64958SOL     OW12865   3.391   2.454   9.526 -0.3995  0.4751 -0.6204
64958SOL    HW112866   3.453   2.511   9.480 -0.4355  1.5800  0.6300
64958SOL    HW212867   3.381   2.378   9.469 -0.1417  1.5985 -2.2340
64959SOL     OW12868  11.905   6.678  12.605 -0.1721  0.9881  0.4132
64959SOL    HW112869  11.956   6.709  12.680 -0.1286  0.2226  0.7166
64959SOL    HW212870  11.856   6.603  12.639  0.4064  0.1681 -0.4938
64960SOL     OW12871   4.304   1.528   1.258 -0.1353  0.1608 -0.1420
64960SOL    HW112872   4.312   1.499   1.349 -0.2238  0.9157  0.1097
64960SOL    HW212873   4.361   1.469   1.209  1.7665  1.2115  0.7086
64961SOL     OW12874  13.030  11.228  10.446 -0.1572  0.0405  0.9526
64961SOL    HW112875  13.004  11.293  10.510  1.5254 -0.6146  2.3965
64961SOL    HW212876  12.957  11.166  10.443 -1.3262  1.3807  0.3150
64962SOL     OW12877   1.502   6.392   9.211 -0.8444  0.1850 -0.5544
64962SOL    HW112878   1.521   6.448   9.135  1.7041 -0.8317 -0.7830
64962SOL    HW212879   1.573   6.328   9.211 -1.3997 -0.5317  2.0738
64963SOL     OW12880   0.529   4.342   2.468 -0.7677 -0.0358  0.2107
64963SOL    HW112881   0.447   4.366   2.512  0.0853 -0.4542  2.1692
64963SOL    HW212882   0.544   4.252   2.495  0.5016  0.1486  0.1593
64964SOL     OW12883  12.857   2.821   7.476 -0.2256  0.0713 -0.1140
64964SOL    HW112884  12.933   2.787   7.524  0.0437 -0.7516 -1.0918
64964SOL    HW212885  12.887   2.827   7.386 -0.3194  2.8007 -0.0450
64965SOL     OW12886   1.222   3.998  10.783  0.1006  0.6168  0.0474
64965SOL    HW112887   1.284   4.033  10.847 -0.1148 -0.3963  0.8461
64965SOL    HW212888   1.249   3.907  10.771 -1.6721 -0.1072  1.0574
64966SOL     OW12889  10.361  11.244   1.947 -0.1169  0.1512  0.5832
64966SOL    HW112890  10.329  11.320   1.995 -1.1651 -0.6861  1.2307
64966SOL    HW212891  10.298  11.231   1.876  0.9215  0.8231 -0.5000
64967SOL     OW12892   7.756   3.544   7.690 -0.0226 -0.0989  0.7408
64967SOL    HW112893   7.804   3.463   7.704  0.1221 -0.2989 -0.7711
64967SOL    HW212894   7.815   3.613   7.720  0.0368 -0.5121  1.5954
64968SOL     OW12895   9.015   7.238   0.057 -0.5603  0.5940  0.4329
64968SOL    HW112896   8.953   7.223   0.129 -0.9103  0.3725  0.0862
64968SOL    HW212897   8.967   7.214  -0.022 -0.6665  2.1743 -0.0216
64969SOL     OW12898   1.128   7.705   9.884  0.0563  0.1917  0.2019
64969SOL    HW112899   1.173   7.672   9.806  1.0312 -2.0810  1.6142
64969SOL    HW212900   1.198   7.743   9.937  0.3086 -2.4733  1.9730
64970SOL     OW12901   3.005   8.472   0.394  0.3649  0.1573  0.7207
64970SOL    HW112902   2.940   8.402   0.405  1.3946 -0.8765  0.3683
64970SOL    HW212903   3.086   8.435   0.428  1.0180  1.0450  0.1704
64971SOL     OW12904  10.215   3.773   1.137  0.1429 -0.3678  0.3276
64971SOL    HW112905  10.146   3.839   1.145  0.6762  0.0294  2.3458
64971SOL    HW212906  10.280   3.799   1.202  2.4656 -0.4598 -1.7998
64972SOL     OW12907   3.048   4.034   9.705 -0.1474  0.4283  0.4931
64972SOL    HW112908   2.969   4.064   9.750  1.6521  0.9495  3.5347
64972SOL    HW212909   3.071   3.952   9.749  0.8471  0.0945 -0.5866
64973SOL     OW12910   2.211   9.112   1.043 -0.0638 -0.8225 -0.1854
64973SOL    HW112911   2.276   9.139   0.979  1.4930 -1.4545  1.0552
64973SOL    HW212912   2.245   9.144   1.127 -1.6585 -0.6594  0.4346
64974SOL     OW12913   7.207   5.096   2.652  0.2680 -0.3226  0.1123
64974SOL    HW112914   7.240   5.130   2.735  0.2920 -0.1283  0.0235
64974SOL    HW212915   7.156   5.019   2.676 -0.3617  0.1731  0.3877
64975SOL     OW12916   4.375   3.815   1.685  0.4739  0.1821  0.4112
64975SOL    HW112917   4.412   3.800   1.598  2.0960 -1.2994  1.2886
64975SOL    HW212918   4.430   3.882   1.725  1.4263 -0.9928  1.1860
64976SOL     OW12919   9.151  11.154  10.990 -0.1818 -0.1853  0.4051
64976SOL    HW112920   9.158  11.241  11.031 -1.2090  0.4155 -0.6407
64976SOL    HW212921   9.059  11.129  11.004  0.1909 -1.2849  1.0054
64977SOL     OW12922  10.022   7.421   4.053  0.3915  0.4210 -0.1554
64977SOL    HW112923   9.948   7.361   4.065 -0.2419  0.8924 -1.4879
64977SOL    HW212924  10.069   7.385   3.977  1.4779  0.2006  0.5970
64978SOL     OW12925  12.307  12.564   4.040 -0.4280 -0.4883 -0.6648
64978SOL    HW112926  12.340  12.631   4.100 -2.3327  0.5618 -0.7125
64978SOL    HW212927  12.380  12.546   3.981 -0.1395  2.3182 -1.3059
64979SOL     OW12928   8.124   3.582   9.854 -0.1694 -0.5119 -0.0787
64979SOL    HW112929   8.189   3.563   9.786 -1.2343  1.3554 -1.6999
64979SOL    HW212930   8.079   3.498   9.868 -0.9304 -0.6444 -2.8112
64980SOL     OW12931  10.194  12.237   5.026  0.0940 -0.2762 -0.0251
64980SOL    HW112932  10.274  12.250   4.976  0.3898 -0.4821  0.3929
64980SOL    HW212933  10.158  12.325   5.036  0.0277 -0.2336 -0.6006
64981SOL     OW12934  10.811  14.014   0.634  0.0509  0.0722  0.8568
64981SOL    HW112935  10.800  14.059   0.550 -2.9123  1.2781  1.7920
64981SOL    HW212936  10.793  13.922   0.614 -2.6636  0.6253  0.4610
64982SOL     OW12937   0.200   5.968   8.984  0.1455  0.0123 -0.2554
64982SOL    HW112938   0.122   5.998   9.030 -0.3336 -1.4682 -0.0421
64982SOL    HW212939   0.173   5.963   8.892  0.7409  1.8113 -0.5607
64983SOL     OW12940   7.530   8.531   8.678 -0.2674  0.4256 -0.2515
64983SOL    HW112941   7.439   8.554   8.695  0.3688  1.4404  2.2382
64983SOL    HW212942   7.575   8.615   8.665  0.5977  0.0827  0.3700
64984SOL     OW12943   8.026   1.481   7.190  0.8426 -0.2998 -0.2761
64984SOL    HW112944   8.102   1.437   7.152 -0.5508 -1.2801 -2.0913
64984SOL    HW212945   7.980   1.413   7.238  1.2287  0.3571  1.0770
64985SOL     OW12946   3.734   1.081   9.030 -0.0174  0.1623  0.7248
64985SOL    HW112947   3.753   1.016   9.098  0.4599 -0.9715 -0.4538
64985SOL    HW212948   3.666   1.039   8.976  1.8392 -0.3553 -1.3501
64986SOL     OW12949   3.555   9.280   3.876  0.1272 -0.0970  0.2876
64986SOL    HW112950   3.513   9.217   3.935 -1.0189  0.2181 -0.1856
64986SOL    HW212951   3.514   9.265   3.791  1.2199 -0.0164 -0.2798
64987SOL     OW12952  10.075   0.443  13.945  0.2496  0.2436  0.0273
64987SOL    HW112953  10.019   0.520  13.938 -1.1147 -0.7271 -0.2261
64987SOL    HW212954  10.112   0.448  14.033 -2.5291 -0.5211  1.3420
64988SOL     OW12955  13.507  13.384   4.626 -0.0085 -0.1846  0.2377
64988SOL    HW112956  13.602  13.383   4.612 -0.1188 -0.8905 -0.5225
64988SOL    HW212957  13.488  13.473   4.654  0.7592  0.2207 -0.4834
64989SOL     OW12958   0.520   1.421   2.233  0.1167  0.2758 -0.0464
64989SOL    HW112959   0.439   1.432   2.282 -0.4083 -0.5816 -0.7086
64989SOL    HW212960   0.560   1.509   2.233 -0.2812  0.4803  1.1688
64990SOL     OW12961   9.603   8.164   2.167 -0.1072 -0.6233 -0.0276
64990SOL    HW112962   9.637   8.144   2.254 -0.7223 -1.0473  0.1218
64990SOL    HW212963   9.676   8.147   2.107  0.3623 -0.1953  0.4164
64991SOL     OW12964  13.329  11.608   4.198  0.1582 -0.0153 -0.3115
64991SOL    HW112965  13.386  11.599   4.275  0.2369  0.3437 -0.3253
64991SOL    HW212966  13.242  11.582   4.230  0.3406 -0.6491 -0.3135
64992SOL     OW12967   0.389   5.703   8.473 -0.3655 -0.1896  0.7309
64992SOL    HW112968   0.311   5.680   8.522 -1.3545 -0.7179 -1.0083
64992SOL    HW212969   0.462   5.679   8.531 -1.4174  1.6922  2.9877
64993SOL     OW12970   0.457   7.539  13.973  0.4299  0.4208 -0.3443
64993SOL    HW112971   0.364   7.540  13.948  0.3382  0.5981  0.0020
64993SOL    HW212972   0.456   7.531  14.068  0.7701  0.4630 -0.3378
64994SOL     OW12973  12.234   3.500   9.478  0.2483 -0.4248  0.1701
64994SOL    HW112974  12.225   3.425   9.537 -1.5824 -0.7508 -0.4472
64994SOL    HW212975  12.203   3.575   9.529  1.0132 -0.2656  0.4151
64995SOL     OW12976  13.687  10.701  13.491  0.1314 -0.0751 -0.0451
64995SOL    HW112977  13.691  10.679  13.399 -0.4898 -1.0464  0.1492
64995SOL    HW212978  13.596  10.727  13.506  0.4661  1.1119  0.0832
64996SOL     OW12979   8.213   8.223  13.704 -0.2669  0.5006 -0.6532
64996SOL    HW112980   8.151   8.242  13.633 -1.3392 -0.9424 -0.1458
64996SOL    HW212981   8.215   8.128  13.709 -0.0787  0.5718  1.1406
64997SOL     OW12982   8.212   6.505  10.618 -0.2482  0.3096 -0.4310
64997SOL    HW112983   8.147   6.530  10.685  0.1556 -0.5342  0.2909
64997SOL    HW212984   8.255   6.428  10.654 -0.6829 -0.7768 -2.1026
64998SOL     OW12985   3.079   3.269   7.365  0.1007  0.0536 -0.2446
64998SOL    HW112986   3.119   3.317   7.437  0.2334 -0.6519  0.1554
64998SOL    HW212987   3.150   3.217   7.327  0.1545  0.7967 -1.2234
64999SOL     OW12988  11.406  13.903  13.508 -0.0563  0.0892 -0.3570
64999SOL    HW112989  11.501  13.910  13.520 -0.1693 -0.1442  0.7058
64999SOL    HW212990  11.369  13.931  13.591 -0.8874 -1.2001 -0.2761
65000SOL     OW12991  13.152   1.622   3.617  0.3743 -0.4214  0.2464
65000SOL    HW112992  13.166   1.554   3.551  1.7632  0.4470 -0.4158
65000SOL    HW212993  13.229   1.615   3.674 -0.0948 -0.2140  0.9082
65001SOL     OW12994   0.765   9.307   1.399 -0.1897  0.6891 -0.6578
65001SOL    HW112995   0.735   9.371   1.464 -2.4061 -1.0833  0.1947
65001SOL    HW212996   0.705   9.234   1.408  0.7914 -0.5614 -3.2389
65002SOL     OW12997   1.332   9.013   1.072 -0.7623 -0.7958 -0.1698
65002SOL    HW112998   1.323   8.939   1.132  2.8886 -1.1444  0.1466
65002SOL    HW212999   1.396   8.984   1.008  0.8531  2.0804  0.0139
65003SOL     OW13000   4.678  10.479   7.777 -0.7639  0.8064 -0.0398
65003SOL    HW113001   4.712  10.560   7.816 -0.7393  0.8763 -0.2037
65003SOL    HW213002   4.706  10.483   7.686  1.4872 -0.6165  0.5059
65004SOL     OW13003   2.541   5.611  13.340 -0.2295  0.0898 -0.6537
65004SOL    HW113004   2.622   5.652  13.309  0.2069 -0.0350  0.2833
65004SOL    HW213005   2.473   5.644  13.281  0.4381  0.4980 -1.2115
65005SOL     OW13006   7.987   2.323  13.350  0.3021 -0.0008  0.0676
65005SOL    HW113007   7.909   2.268  13.339  1.4197 -2.1199  1.8934
65005SOL    HW213008   7.956   2.399  13.400 -1.1219  0.6963 -1.7872
65006SOL     OW13009  13.625   8.311   0.639 -0.1047  0.1956  0.0820
65006SOL    HW113010  13.712   8.278   0.616  0.2460  0.1809  1.3682
65006SOL    HW213011  13.575   8.303   0.558  0.8092 -0.7135 -0.4216
65007SOL     OW13012   5.656  11.923   2.011  0.7164 -0.3409  0.4576
65007SOL    HW113013   5.652  11.900   1.918  1.3510  0.9419  0.1025
65007SOL    HW213014   5.747  11.906   2.036  0.6686 -0.2059  0.7252
65008SOL     OW13015   0.962  10.396   7.480 -0.2641 -0.7128 -0.5502
65008SOL    HW113016   0.987  10.405   7.572  0.2171 -1.8664 -0.5484
65008SOL    HW213017   0.978  10.482   7.442  1.0126 -0.6329  0.1041
65009SOL     OW13018   1.671   8.792   8.830 -0.2427 -0.4691 -0.2418
65009SOL    HW113019   1.725   8.714   8.837  0.4816  0.0803  0.5257
65009SOL    HW213020   1.715   8.857   8.886 -0.3197  0.7644 -1.5437
65010SOL     OW13021  13.876   8.219   3.728 -0.0006  0.6969 -0.4529
65010SOL    HW113022  13.868   8.292   3.789  0.4642 -0.0623  0.5492
65010SOL    HW213023  13.927   8.153   3.776 -2.8507 -1.5040 -0.1688
65011SOL     OW13024   7.031   6.706  12.493  0.3967 -0.4122  0.2903
65011SOL    HW113025   7.004   6.702  12.584  0.2824  1.4144  0.3711
65011SOL    HW213026   6.956   6.744  12.447  1.3111  0.9461 -0.1421
65012SOL     OW13027   7.033  13.931  12.495  0.0046 -0.2394  0.0811
65012SOL    HW113028   7.105  13.886  12.539  0.1822 -0.8622 -0.8177
65012SOL    HW213029   6.989  13.862  12.444 -1.0207  0.1971  0.3531
65013SOL     OW13030   8.694   7.036   8.741  0.1602  0.2668  0.2926
65013SOL    HW113031   8.621   7.060   8.799  0.0421 -0.5694  0.4989
65013SOL    HW213032   8.654   6.989   8.669  0.2162  1.9670 -0.9072
65014SOL     OW13033   7.049   8.710   9.901  1.1243  0.2416 -0.0657
65014SOL    HW113034   7.111   8.775   9.935  1.9964 -0.5910 -0.0257
65014SOL    HW213035   7.098   8.628   9.902 -0.7973 -1.0239  2.5540
65015SOL     OW13036   4.228   3.307  13.986  0.0722 -0.8661 -0.2201
65015SOL    HW113037   4.311   3.318  13.939  0.4550 -0.3131  0.5785
65015SOL    HW213038   4.229   3.216  14.015  0.4321 -0.8415 -0.1512
65016SOL     OW13039   4.456  11.768   5.289 -0.8629 -0.4787  0.0784
65016SOL    HW113040   4.362  11.753   5.280 -0.7346 -0.2031 -2.0596
65016SOL    HW213041   4.481  11.815   5.210  1.1337 -0.7559  0.4883
65017SOL     OW13042   3.536   1.877  12.329 -0.7945 -0.1498  0.0790
65017SOL    HW113043   3.616   1.926  12.310 -0.7671  0.3611  1.4140
65017SOL    HW213044   3.468   1.922  12.278 -0.4464  0.1666 -0.1111
65018SOL     OW13045  11.081   1.832   8.414 -0.2032  0.4126 -0.2019
65018SOL    HW113046  10.997   1.825   8.460 -1.1313  1.8186 -1.5819
65018SOL    HW213047  11.141   1.866   8.480 -1.1843  1.1470  0.3545
65019SOL     OW13048   0.779  13.352   3.555  0.2632 -0.1739  0.2107
65019SOL    HW113049   0.722  13.409   3.502  0.4808  1.6094  1.8140
65019SOL    HW213050   0.745  13.264   3.539 -0.8418  0.4938 -1.4298
65020SOL     OW13051  14.086   2.492   0.492 -0.6490  0.8590 -0.5027
65020SOL    HW113052  14.049   2.418   0.541  0.7306  1.4556  1.5669
65020SOL    HW213053  14.045   2.569   0.531  0.4118  1.3483 -0.3298
65021SOL     OW13054  10.942  10.913   7.425  0.3522 -0.2992 -0.2137
65021SOL    HW113055  10.880  10.980   7.395 -0.5603  0.2649  2.6105
65021SOL    HW213056  10.986  10.883   7.346 -1.4147  1.4408 -1.9522
65022SOL     OW13057   8.301   7.901  11.820  0.0217  0.2167  0.1670
65022SOL    HW113058   8.272   7.813  11.795 -1.4166  0.6757  0.1482
65022SOL    HW213059   8.252   7.920  11.900  1.7486  0.2724  1.2700
65023SOL     OW13060  10.385   9.322  10.863 -0.4966 -0.3862 -0.0698
65023SOL    HW113061  10.338   9.240  10.849 -1.4525 -0.2902  2.1375
65023SOL    HW213062  10.317   9.386  10.883  0.4005  0.2599  1.0623
65024SOL     OW13063   4.575   6.247   0.876  0.5871 -0.3547  0.6419
65024SOL    HW113064   4.625   6.314   0.923 -0.7328  2.3792 -1.5468
65024SOL    HW213065   4.508   6.219   0.939  0.5892  1.1163  1.3572
65025SOL     OW13066   0.939   6.911  11.750  0.1251  0.3461  1.0343
65025SOL    HW113067   1.021   6.876  11.785  0.6065  0.0911 -0.2768
65025SOL    HW213068   0.904   6.966  11.819  0.6628 -0.7041  2.1773
65026SOL     OW13069  14.020   1.984  11.259 -0.4576  0.3981 -0.5742
65026SOL    HW113070  14.057   2.070  11.237  0.4195 -0.2294 -1.6870
65026SOL    HW213071  14.073   1.953  11.333  1.0959 -0.3224 -1.9049
65027SOL     OW13072   7.989   9.489  13.462 -0.7212  0.4522 -0.1849
65027SOL    HW113073   8.007   9.582  13.447 -1.2410  0.7410  0.9461
65027SOL    HW213074   7.997   9.478  13.556  2.3185 -1.2843 -0.5100
65028SOL     OW13075  12.597   3.024   6.790 -0.6567 -0.4528  0.3621
65028SOL    HW113076  12.576   2.958   6.856 -0.9880  0.0246  0.7427
65028SOL    HW213077  12.572   2.983   6.707 -0.7168 -0.8639  0.5787
65029SOL     OW13078  11.744   5.622   7.983 -0.5506 -0.2923  0.1595
65029SOL    HW113079  11.774   5.559   7.918 -0.0084 -0.8228  0.9093
65029SOL    HW213080  11.655   5.596   8.003 -2.7093  2.7351 -3.9071
65030SOL     OW13081   0.023   1.337  12.359 -0.4064  0.3689 -0.5317
65030SOL    HW113082   0.010   1.327  12.454  0.8752  3.0986  0.0467
65030SOL    HW213083  -0.062   1.367  12.326 -1.2428 -1.8629 -0.5384
65031SOL     OW13084  13.144   1.012   9.347 -0.3859 -0.0308 -0.1386
65031SOL    HW113085  13.100   0.960   9.280  0.4303 -1.6469  0.5162
65031SOL    HW213086  13.073   1.045   9.402 -0.8749 -2.2316  0.6520
65032SOL     OW13087   9.314  12.639  12.680 -0.1300  0.2098  0.6437
65032SOL    HW113088   9.395  12.597  12.651 -1.6590 -1.2592 -1.8871
65032SOL    HW213089   9.279  12.579  12.746 -0.6670 -0.8608 -0.5666
65033SOL     OW13090   5.279   9.782   6.789 -0.1996 -0.5347  0.0906
65033SOL    HW113091   5.242   9.787   6.701  0.8121 -1.9737 -0.4481
65033SOL    HW213092   5.233   9.708   6.830  0.2785 -0.7334  0.2802
65034SOL     OW13093   6.648  10.087  13.726  0.4049  0.6894  0.2193
65034SOL    HW113094   6.737  10.068  13.695  0.3257 -0.0841  0.4211
65034SOL    HW213095   6.607  10.136  13.655  0.2683 -0.9113 -0.8658
65035SOL     OW13096   6.498   3.612  12.137  0.5534 -0.1053 -0.0777
65035SOL    HW113097   6.581   3.635  12.096  0.3171  0.0378 -0.4791
65035SOL    HW213098   6.433   3.624  12.068  0.0424  0.9901  0.5718
65036SOL     OW13099   0.495  13.322   6.563  0.2407 -0.0335  0.3951
65036SOL    HW113100   0.456  13.247   6.608  0.6675 -0.2111  0.4733
65036SOL    HW213101   0.501  13.296   6.472 -2.1672  0.9410 -0.1241
65037SOL     OW13102   1.423   4.303   1.532  0.0844  0.6022  0.5540
65037SOL    HW113103   1.433   4.267   1.444  0.8160  1.1307  0.4074
65037SOL    HW213104   1.509   4.291   1.572 -0.6051 -0.8528  1.6799
65038SOL     OW13105   2.750   9.930   0.039  0.2234  0.5379  0.1505
65038SOL    HW113106   2.815   9.937   0.109  0.2902  0.0538  0.1394
65038SOL    HW213107   2.792   9.971  -0.037  0.2037  0.9430  0.3571
65039SOL     OW13108   8.162   0.853   6.173  0.1632  0.1368 -0.7808
65039SOL    HW113109   8.234   0.869   6.112 -0.7506 -0.3992 -2.0581
65039SOL    HW213110   8.085   0.840   6.116 -1.0514  1.2059  0.5499
65040SOL     OW13111   2.273  13.756   3.317  0.1838  0.0975  0.0022
65040SOL    HW113112   2.328  13.826   3.284 -1.6589  0.2621 -3.1839
65040SOL    HW213113   2.183  13.786   3.301 -0.8250 -1.2801  2.4357
65041SOL     OW13114   9.224   1.828   1.961 -0.3548 -0.6112 -0.1340
65041SOL    HW113115   9.298   1.772   1.939 -0.8274 -1.3202  0.0689
65041SOL    HW213116   9.203   1.872   1.878 -1.4836 -2.5188 -0.9346
65042SOL     OW13117  12.773   5.060   7.315 -0.5227 -0.0119  0.0620
65042SOL    HW113118  12.702   5.082   7.255 -0.8993  1.2762  0.9518
65042SOL    HW213119  12.730   5.019   7.390 -0.3281  0.5842  0.5115
65043SOL     OW13120   9.423   1.411  10.922 -0.2976  0.2285  0.1826
65043SOL    HW113121   9.449   1.499  10.897 -0.7257  0.1353 -0.6191
65043SOL    HW213122   9.455   1.401  11.012  0.5293  0.8721 -0.0328
65044SOL     OW13123   7.716   8.246  13.438  0.4566  0.4706  0.2205
65044SOL    HW113124   7.781   8.176  13.436 -0.2940 -0.2957  1.5154
65044SOL    HW213125   7.716   8.281  13.349  0.4587 -1.5329 -0.6163
65045SOL     OW13126   7.984   0.174  13.393  0.5855  0.1983 -0.2237
65045SOL    HW113127   7.972   0.135  13.479  0.5193  0.2964 -0.1876
65045SOL    HW213128   7.896   0.181  13.357  0.4484  1.6199  0.3466
65046SOL     OW13129  13.215   0.562  12.446  0.3838 -0.8564  0.0809
65046SOL    HW113130  13.211   0.654  12.471 -1.7675 -0.1746 -2.3722
65046SOL    HW213131  13.176   0.515  12.520 -0.6382  0.4520  0.4009
65047SOL     OW13132   9.892   8.413   2.454 -0.3011  0.4287 -0.5197
65047SOL    HW113133   9.982   8.397   2.426  0.8751  0.5854  2.7508
65047SOL    HW213134   9.886   8.508   2.464 -0.4125  0.3250  0.4705
65048SOL     OW13135  12.445   1.988  14.083  0.3614 -0.1484 -0.6397
65048SOL    HW113136  12.386   2.055  14.050  0.2469 -0.3956 -0.9295
65048SOL    HW213137  12.445   1.919  14.017  0.5211 -0.4139 -0.3696
65049SOL     OW13138   1.410  11.280   5.924  0.5921 -0.4209 -0.9306
65049SOL    HW113139   1.489  11.281   5.979  0.1499  2.5048 -0.1729
65049SOL    HW213140   1.404  11.370   5.890 -3.5780  0.2299  0.9064
65050SOL     OW13141   7.211   3.180  13.331  0.6067  0.1785  0.0427
65050SOL    HW113142   7.236   3.091  13.354 -1.1582 -0.3352  0.1015
65050SOL    HW213143   7.118   3.174  13.309  0.8065  1.7323 -1.4533
65051SOL     OW13144   5.408   3.158  10.869 -0.2263  0.0171 -0.3190
65051SOL    HW113145   5.385   3.229  10.929 -0.6945  0.3367 -0.8713
65051SOL    HW213146   5.479   3.111  10.914 -1.5206 -0.6233  1.1301
65052SOL     OW13147   7.089  13.760   7.277  0.1522 -0.2486  0.2617
65052SOL    HW113148   7.045  13.717   7.204 -0.3427 -1.1139  1.0453
65052SOL    HW213149   7.178  13.725   7.276 -0.3771 -1.7379  1.1858
65053SOL     OW13150   4.855  13.491  11.625 -0.9728  0.1866  0.3974
65053SOL    HW113151   4.852  13.563  11.562 -1.4915  1.3771  1.7213
65053SOL    HW213152   4.763  13.469  11.639 -0.8254 -0.6015  0.1730
65054SOL     OW13153   0.726  10.707   4.089 -0.6499  0.2306 -0.1462
65054SOL    HW113154   0.809  10.721   4.044 -1.0996 -1.3738 -1.5997
65054SOL    HW213155   0.729  10.615   4.115 -1.8210  0.2374  0.0746
65055SOL     OW13156   9.239  12.642  11.206 -0.4628  0.0676 -0.2011
65055SOL    HW113157   9.149  12.616  11.186 -0.5481  1.0734 -1.2300
65055SOL    HW213158   9.271  12.682  11.125 -0.2331  2.7886  1.1141
65056SOL     OW13159  11.825  12.054   3.854  0.2660  0.3495 -0.2901
65056SOL    HW113160  11.913  12.069   3.818  0.8103 -0.1122  0.8046
65056SOL    HW213161  11.831  12.083   3.945 -0.8411  0.6898 -0.3143
65057SOL     OW13162   8.362   7.318  10.506  0.6290 -0.0955 -0.1997
65057SOL    HW113163   8.437   7.267  10.536 -0.3606 -1.5063 -0.0567
65057SOL    HW213164   8.385   7.409  10.528  0.7043 -0.8400  3.2834
65058SOL     OW13165   8.129   9.012   7.425  0.6898  0.3252 -0.0043
65058SOL    HW113166   8.090   8.999   7.511 -0.1944 -0.8781 -0.5483
65058SOL    HW213167   8.135   8.923   7.388  0.8481  0.8355 -1.2607
65059SOL     OW13168  14.104   0.816   5.423  0.1716  0.1891 -0.2765
65059SOL    HW113169  14.111   0.856   5.510 -2.7724  0.0756  0.1168
65059SOL    HW213170  14.056   0.880   5.371 -1.5040 -1.3276 -0.6669
65060SOL     OW13171   2.586  13.516   1.815 -0.5949  0.2783  0.1630
65060SOL    HW113172   2.564  13.555   1.900  0.4800  1.7287 -0.1852
65060SOL    HW213173   2.667  13.559   1.789 -1.2001  0.2959 -1.8825
65061SOL     OW13174  11.533  13.880   5.724  0.2237  0.0248 -0.2471
65061SOL    HW113175  11.487  13.818   5.781 -0.3553  1.2207  0.6239
65061SOL    HW213176  11.465  13.922   5.673  0.5309  0.4339 -0.3309
65062SOL     OW13177   7.301   5.990  13.140 -0.3334 -0.0363 -0.0837
65062SOL    HW113178   7.241   5.919  13.163 -0.6973 -0.1661 -1.3426
65062SOL    HW213179   7.387   5.949  13.136 -0.5373 -0.4225 -0.7747
65063SOL     OW13180   1.012  11.449   1.110 -0.3005  0.2720  0.1585
65063SOL    HW113181   0.934  11.503   1.114 -0.6138 -0.2509  1.6509
65063SOL    HW213182   0.979  11.359   1.116  0.3372 -0.0123 -0.4341
65064SOL     OW13183   9.263   7.541  11.460  0.1155 -0.1030 -0.3324
65064SOL    HW113184   9.325   7.558  11.532 -0.5311  0.6045  0.0650
65064SOL    HW213185   9.301   7.466  11.414  0.6539 -0.4403  0.6221
65065SOL     OW13186  10.017  12.798   7.463  0.8172 -0.2742  0.3877
65065SOL    HW113187   9.998  12.717   7.417 -0.2356 -0.3133  0.8678
65065SOL    HW213188  10.007  12.776   7.556 -0.8959  0.7300  0.4770
65066SOL     OW13189  11.696   4.432   2.615 -0.1145 -0.5839  0.1333
65066SOL    HW113190  11.611   4.463   2.582 -0.0729 -0.6090  0.0054
65066SOL    HW213191  11.724   4.500   2.676 -1.7079 -1.9760  2.6166
65067SOL     OW13192   0.245   1.433  10.481 -0.0408 -0.2700  0.4231
65067SOL    HW113193   0.279   1.391  10.560 -0.3311 -0.3056  0.5338
65067SOL    HW213194   0.272   1.375  10.410  0.5222 -0.0544  0.4585
65068SOL     OW13195  12.633   0.471  11.232  0.1211  0.0929  0.1196
65068SOL    HW113196  12.669   0.523  11.304 -1.4661 -0.4090  1.3278
65068SOL    HW213197  12.666   0.383  11.247  0.9613  0.2618 -0.6312
65069SOL     OW13198   9.854   4.917  12.338  0.0443  0.0148 -0.7115
65069SOL    HW113199   9.877   4.867  12.259  2.4196  1.3604 -0.9666
65069SOL    HW213200   9.820   4.999  12.305  0.1125  0.1965 -0.3337
65070SOL     OW13201  11.497   9.657  10.899 -0.2451  0.3576 -0.0824
65070SOL    HW113202  11.413   9.630  10.935  0.2397  0.0398  0.8309
65070SOL    HW213203  11.474   9.702  10.818 -1.3040  0.3968  0.2190
65071SOL     OW13204   7.873  10.965  10.890 -0.0165  0.2391 -0.3749
65071SOL    HW113205   7.800  10.960  10.952  0.0053 -0.0798 -0.3705
65071SOL    HW213206   7.890  11.059  10.880  1.0948  0.2789  1.4120
65072SOL     OW13207   2.791   6.359   0.647 -0.4062 -0.8743 -0.6519
65072SOL    HW113208   2.763   6.448   0.624 -1.3532 -1.1541 -0.6190
65072SOL    HW213209   2.834   6.326   0.568 -0.0862 -0.4016 -0.6784
65073SOL     OW13210   8.311   4.137  11.732  0.1746  0.0593 -0.1557
65073SOL    HW113211   8.401   4.143  11.762  0.1307 -0.4968  0.1075
65073SOL    HW213212   8.312   4.177  11.645  0.1395  2.3652  0.8505
65074SOL     OW13213   6.470   7.051  13.720  0.1423 -0.1916 -0.4180
65074SOL    HW113214   6.391   7.030  13.671 -0.0712 -1.9670  0.5905
65074SOL    HW213215   6.527   6.975  13.709  1.7240  1.0290 -1.0837
65075SOL     OW13216  10.396   8.116  10.343 -0.1502  0.1485  0.5487
65075SOL    HW113217  10.405   8.184  10.276  1.2326 -1.0059 -0.4983
65075SOL    HW213218  10.479   8.120  10.391 -0.0743 -0.7396  0.5105
65076SOL     OW13219  10.171  12.490   8.122 -0.1787 -0.0874 -0.2592
65076SOL    HW113220  10.121  12.485   8.040 -0.0432  1.7222 -0.5055
65076SOL    HW213221  10.155  12.407   8.165  0.2619 -1.3731 -2.4160
65077SOL     OW13222   7.698   5.131   2.511 -0.0074 -0.1444  0.3295
65077SOL    HW113223   7.717   5.047   2.469 -2.0080 -1.2687  1.5135
65077SOL    HW213224   7.604   5.143   2.498  0.3232  2.2501 -0.3314
65078SOL     OW13225  12.523   0.514  10.989  0.0210  0.1640 -0.3426
65078SOL    HW113226  12.541   0.605  10.967 -0.3910  0.6042  1.0450
65078SOL    HW213227  12.552   0.505  11.080  0.8920 -1.3461 -0.7218
65079SOL     OW13228  12.426  10.431   3.280  0.0125  0.3816 -0.0117
65079SOL    HW113229  12.430  10.424   3.375 -0.7961  0.7327  0.0561
65079SOL    HW213230  12.497  10.374   3.249 -0.2755 -0.4379  0.7725
65080SOL     OW13231   7.858   6.241   3.586  0.3435 -0.1312  0.2062
65080SOL    HW113232   7.875   6.328   3.549  0.4340  0.6723  2.0129
65080SOL    HW213233   7.811   6.194   3.518  0.2067  1.3764 -0.7756
65081SOL     OW13234  11.400   3.848  11.146 -0.0814  0.0360 -0.6078
65081SOL    HW113235  11.311   3.839  11.181 -0.3948 -0.3374 -1.4907
65081SOL    HW213236  11.420   3.941  11.155  0.3042 -0.1857  1.6293
65082SOL     OW13237   9.392  13.096   9.304 -0.1419 -0.0514 -0.2201
65082SOL    HW113238   9.395  13.038   9.228  0.2135  0.4830 -0.6285
65082SOL    HW213239   9.482  13.128   9.313 -0.3612  0.5453 -0.0952
65083SOL     OW13240   6.683  10.634   8.318  0.3010  0.5127 -0.3727
65083SOL    HW113241   6.647  10.713   8.277  0.5889 -0.7248 -3.3339
65083SOL    HW213242   6.606  10.580   8.337  0.2190  0.1902 -1.4912
65084SOL     OW13243  10.878   0.561  10.200  0.0321  0.4604 -0.5980
65084SOL    HW113244  10.862   0.512  10.281  0.7109 -0.2005 -0.8561
65084SOL    HW213245  10.796   0.608  10.184 -0.1579  0.4840  0.3922
65085SOL     OW13246   1.950   9.545   4.275  0.3485 -0.6548  0.1752
65085SOL    HW113247   1.890   9.557   4.202  0.0662 -1.1648  0.3212
65085SOL    HW213248   2.004   9.469   4.250  1.4773  0.2661 -0.3114
65086SOL     OW13249   7.924   5.421  13.347 -0.3888 -0.3310 -0.9749
65086SOL    HW113250   7.928   5.371  13.266 -2.7773  0.9290 -1.9855
65086SOL    HW213251   8.015   5.441  13.368  0.3970 -2.3055 -2.2690
65087SOL     OW13252  12.026   6.881   3.092 -0.1857 -0.2825 -0.3996
65087SOL    HW113253  11.962   6.889   3.021 -0.6766  1.3733  0.1793
65087SOL    HW213254  12.067   6.968   3.097  0.2965 -0.5651  0.9103
65088SOL     OW13255  13.048   9.142   1.767 -0.5323  0.1989  0.7751
65088SOL    HW113256  13.085   9.054   1.766 -0.7135  0.0159  3.2473
65088SOL    HW213257  12.959   9.130   1.800 -1.4820  1.0649 -1.3412
65089SOL     OW13258   2.356   8.471  10.353  0.3328 -0.4749  0.0599
65089SOL    HW113259   2.421   8.402  10.337  1.2302  0.4875 -0.5660
65089SOL    HW213260   2.329   8.500  10.266 -1.3740 -1.2072  0.2904
65090SOL     OW13261   4.977   1.973   0.119 -0.0616 -0.3494  0.1266
65090SOL    HW113262   4.921   2.050   0.125  0.5546  0.0846  0.4424
65090SOL    HW213263   5.052   1.994   0.175  1.0687 -0.3450 -1.3216
65091SOL     OW13264   6.498  10.951  11.045 -0.4280 -0.5123  0.5133
65091SOL    HW113265   6.437  11.006  11.094 -0.5635 -0.7026  0.5591
65091SOL    HW213266   6.455  10.866  11.040 -0.9504 -0.1823 -0.9728
65092SOL     OW13267   8.654   1.894   6.914 -0.1431 -0.9141  0.2538
65092SOL    HW113268   8.562   1.878   6.892  0.3851 -2.8619 -0.7336
65092SOL    HW213269   8.656   1.987   6.938 -1.9452 -0.2055 -1.9345
65093SOL     OW13270  10.325  10.099   4.925  0.3243  0.1059 -0.0164
65093SOL    HW113271  10.418  10.076   4.936  0.4369  0.3911 -0.3698
65093SOL    HW213272  10.326  10.176   4.868 -0.1280  0.1471  0.0317
65094SOL     OW13273   6.645   4.547  12.586  0.1141  0.2920  0.2387
65094SOL    HW113274   6.721   4.581  12.539  0.5251 -0.5225  0.3065
65094SOL    HW213275   6.633   4.459  12.551 -0.3238  0.1283  0.7915
65095SOL     OW13276   9.729   1.810  10.834  0.0076  0.0024 -0.5394
65095SOL    HW113277   9.782   1.829  10.911  0.1759 -1.3816 -0.2822
65095SOL    HW213278   9.793   1.790  10.765 -0.0602 -2.7787  0.0559
65096SOL     OW13279   2.248   2.716  11.788 -0.0064 -0.2975 -0.3242
65096SOL    HW113280   2.171   2.772  11.779  0.3464  0.1268 -0.7211
65096SOL    HW213281   2.313   2.754  11.729  0.5398 -0.5965  0.0734
65097SOL     OW13282  10.833  10.334   4.795  0.1002 -0.3751 -0.1074
65097SOL    HW113283  10.909  10.322   4.851  1.9118  0.2089 -2.2947
65097SOL    HW213284  10.796  10.418   4.822  1.3687  0.2389 -0.2245
65098SOL     OW13285  11.768  10.958  13.368  0.3548 -0.0046  0.1390
65098SOL    HW113286  11.757  10.941  13.275  1.5545  0.9009 -0.1950
65098SOL    HW213287  11.862  10.943  13.384  0.4144  1.0722  0.9085
65099SOL     OW13288  13.190   7.677   4.035  0.1928 -0.4211 -0.0285
65099SOL    HW113289  13.263   7.668   4.097  0.7287 -1.2186 -0.7457
65099SOL    HW213290  13.231   7.707   3.954 -0.3795 -0.2125 -0.2458
65100SOL     OW13291  13.616   7.391   9.859  0.3248 -0.6953  0.8870
65100SOL    HW113292  13.678   7.389   9.787 -1.6029  1.6319 -0.9988
65100SOL    HW213293  13.669   7.410   9.936  2.1865 -0.9954 -0.2727
65101SOL     OW13294   2.323   0.776   2.765 -0.1690  0.1538  0.1547
65101SOL    HW113295   2.367   0.747   2.685  0.6411 -1.0191  0.9999
65101SOL    HW213296   2.237   0.733   2.762  0.9356 -2.3416  1.2936
65102SOL     OW13297   4.431   7.751  10.683  0.4723  0.6635  0.5597
65102SOL    HW113298   4.479   7.670  10.665  0.6456  1.2777 -2.2175
65102SOL    HW213299   4.347   7.722  10.719  1.1110 -0.6662  1.0177
65103SOL     OW13300  11.910   8.696   4.140 -0.2069  0.3560 -0.2293
65103SOL    HW113301  11.913   8.708   4.235  3.4512 -1.0132 -0.0368
65103SOL    HW213302  11.976   8.756   4.105  1.2268 -1.8064 -1.4725
65104SOL     OW13303   3.737   3.629  10.901  0.3341 -0.3681  0.1487
65104SOL    HW113304   3.663   3.604  10.846  1.8835 -0.5054 -1.9773
65104SOL    HW213305   3.704   3.703  10.953 -1.1661 -0.1731 -1.0183
65105SOL     OW13306   2.798   0.683   0.251  0.3165 -0.0067 -0.1394
65105SOL    HW113307   2.708   0.704   0.225  0.4627 -0.6821 -1.2765
65105SOL    HW213308   2.830   0.763   0.293 -0.3752  0.7131 -0.9457
65106SOL     OW13309   6.008   7.947  12.297  0.2714 -0.2371  0.0905
65106SOL    HW113310   5.974   7.879  12.238  0.8042 -1.5115  1.2025
65106SOL    HW213311   5.956   7.938  12.377 -0.0410  1.0763  0.0631
65107SOL     OW13312  10.563   8.279   8.274  0.0614  0.0753 -0.3852
65107SOL    HW113313  10.472   8.308   8.266 -0.0054  0.1559  0.6049
65107SOL    HW213314  10.591   8.312   8.359  1.2020  0.5386 -0.9298
65108SOL     OW13315  10.293   1.473   4.168 -0.1519  0.5413  0.0541
65108SOL    HW113316  10.344   1.532   4.223  0.1362  0.6367 -0.3143
65108SOL    HW213317  10.303   1.387   4.209  0.7680  0.4558 -0.3264
65109SOL     OW13318  11.684   6.816   4.798  0.1852  0.3967  0.0857
65109SOL    HW113319  11.634   6.735   4.789 -1.3487  1.4224 -0.9432
65109SOL    HW213320  11.663   6.847   4.886 -0.6620  0.5873 -0.1736
65110SOL     OW13321  12.658   3.103  13.918  0.6512 -0.0468 -0.3378
65110SOL    HW113322  12.720   3.144  13.857  1.5940 -0.5559  0.2453
65110SOL    HW213323  12.656   3.011  13.892 -0.8016  0.1798 -1.1046
65111SOL     OW13324   9.851   0.387   3.811  0.0872  0.1701 -0.3792
65111SOL    HW113325   9.844   0.449   3.884 -0.8351  0.4091 -0.6585
65111SOL    HW213326   9.764   0.387   3.771  0.2757 -0.7793 -0.8162
65112SOL     OW13327   3.827  10.421   1.075 -0.5147 -0.2649  0.0382
65112SOL    HW113328   3.907  10.380   1.042  0.3206  1.8164 -0.6902
65112SOL    HW213329   3.781  10.350   1.120  1.1704 -1.7995 -0.5172
65113SOL     OW13330  12.018   8.836   2.998 -0.4398  0.6410 -0.2408
65113SOL    HW113331  12.102   8.878   2.984 -0.2713  0.8561  1.2873
65113SOL    HW213332  12.006   8.780   2.921  1.6389 -0.2729  0.0395
65114SOL     OW13333   2.878   9.856   6.294 -0.2170  0.3591 -0.0849
65114SOL    HW113334   2.873   9.930   6.234 -2.5359  1.0611  0.8636
65114SOL    HW213335   2.956   9.808   6.266  1.1194  2.8846 -1.0109
65115SOL     OW13336  10.656   3.680   2.546 -0.1398  0.0075 -0.2111
65115SOL    HW113337  10.580   3.631   2.578 -0.9905  1.1622 -0.4078
65115SOL    HW213338  10.717   3.680   2.620 -1.7560  1.9824  1.2254
65116SOL     OW13339   1.384  11.127   0.840 -0.1209  0.4629 -0.0585
65116SOL    HW113340   1.460  11.182   0.858 -0.0893 -0.0426  1.5667
65116SOL    HW213341   1.314  11.167   0.892 -0.4738 -0.1697 -0.0447
65117SOL     OW13342  11.127  11.084   6.551 -0.6302 -0.3340  0.4014
65117SOL    HW113343  11.219  11.061   6.556 -0.4494  0.1216 -0.5362
65117SOL    HW213344  11.089  11.021   6.490 -0.8702 -0.3125  0.5253
65118SOL     OW13345   6.097  12.700  14.092  0.0889  0.0997 -0.1427
65118SOL    HW113346   6.011  12.736  14.116  0.9966  2.1621  0.1979
65118SOL    HW213347   6.159  12.767  14.119  2.0160 -2.1748  1.4733
65119SOL     OW13348   7.522   8.266  13.850 -0.2497 -0.5748  0.4324
65119SOL    HW113349   7.490   8.193  13.904  0.8778 -0.8036  0.8259
65119SOL    HW213350   7.616   8.269  13.868 -0.1762  0.5656 -0.0903
65120SOL     OW13351   1.272   7.470  13.404 -0.6542  0.2229 -0.0228
65120SOL    HW113352   1.320   7.527  13.344 -2.1838  1.0789 -0.4888
65120SOL    HW213353   1.279   7.383  13.366 -2.1635  0.8499 -1.8623
65121SOL     OW13354   5.930  11.581   4.425  0.2335 -0.3375  0.3177
65121SOL    HW113355   5.893  11.653   4.373  0.7927  0.0328  0.4212
65121SOL    HW213356   5.991  11.625   4.485 -0.0007 -0.8192  0.9128
65122SOL     OW13357   4.047  12.612  13.041 -0.3595 -0.3146  0.1131
65122SOL    HW113358   4.037  12.610  12.946 -0.9097 -1.4762  0.1792
65122SOL    HW213359   4.077  12.524  13.065  1.4550  0.4630  0.8593
65123SOL     OW13360   8.035   0.247  12.272 -0.0420  0.1345  0.1684
65123SOL    HW113361   8.043   0.270  12.180  2.2169 -0.2718  0.2137
65123SOL    HW213362   8.079   0.318  12.318  0.7709 -0.7365  0.7692
65124SOL     OW13363   4.844   0.123   3.818 -0.3534 -0.4523  0.8230
65124SOL    HW113364   4.897   0.043   3.817  2.2401  1.1831  0.2655
65124SOL    HW213365   4.797   0.122   3.734  1.9916  0.0278 -0.5652
65125SOL     OW13366   8.508  10.640   4.122 -0.2613  0.0925  0.0233
65125SOL    HW113367   8.601  10.624   4.107 -0.4208 -0.0912 -0.8177
65125SOL    HW213368   8.503  10.731   4.152  0.0134  0.7376 -1.7989
65126SOL     OW13369  12.551  11.404   4.916 -0.5316 -0.1151  0.1298
65126SOL    HW113370  12.585  11.323   4.877  1.1380  0.2037  0.8312
65126SOL    HW213371  12.533  11.380   5.007  0.9245  0.5179  0.6101
65127SOL     OW13372  10.067   0.143   9.124  0.1553 -0.3688 -0.3747
65127SOL    HW113373  10.069   0.059   9.077 -0.1844 -0.8202  0.4022
65127SOL    HW213374  10.101   0.206   9.060  0.6410 -1.1304 -0.8968
65128SOL     OW13375   3.658  13.323  11.123  0.3012 -0.7716  0.3926
65128SOL    HW113376   3.603  13.334  11.201 -1.4315  0.9289 -0.9573
65128SOL    HW213377   3.707  13.405  11.118 -1.0736  0.0243 -1.2968
65129SOL     OW13378  12.817  12.392   3.864  0.1552 -0.0215  0.3869
65129SOL    HW113379  12.902  12.379   3.822  0.6162 -2.6689  1.8913
65129SOL    HW213380  12.754  12.352   3.804  0.1743  0.4707  0.0339
65130SOL     OW13381   0.197   0.698   9.284  0.3011  0.3226 -0.2523
65130SOL    HW113382   0.254   0.627   9.254  2.0697  1.0549  1.2253
65130SOL    HW213383   0.155   0.664   9.362 -0.7446  0.0637 -0.9074
65131SOL     OW13384   9.022   0.441   0.838  0.0579 -0.3623  0.6799
65131SOL    HW113385   9.025   0.516   0.897  1.5223  0.5279 -0.4456
65131SOL    HW213386   8.941   0.452   0.788 -0.7578 -0.6647  1.9004
65132SOL     OW13387   4.513  12.795   6.185  0.1568  0.4818 -0.2861
65132SOL    HW113388   4.512  12.874   6.240  1.1327 -0.9222  1.8883
65132SOL    HW213389   4.605  12.783   6.162  0.2401 -0.7567  0.5983
65133SOL     OW13390   4.314  10.594  10.576 -1.1967  0.1375 -0.5184
65133SOL    HW113391   4.365  10.614  10.498  0.6161  0.3820  0.6819
65133SOL    HW213392   4.377  10.595  10.648 -2.9397  0.8618  1.1109
65134SOL     OW13393   0.702   9.223   9.007 -0.0291  0.0419 -0.3169
65134SOL    HW113394   0.728   9.137   8.973  1.0144  0.3149 -0.2254
65134SOL    HW213395   0.649   9.261   8.936  0.5158 -0.1838 -0.8537
65135SOL     OW13396   4.076   4.211   1.855 -0.4525  0.1062 -0.0642
65135SOL    HW113397   4.043   4.175   1.773 -0.3958  0.5507 -0.2873
65135SOL    HW213398   4.169   4.227   1.838  0.2460 -2.3364  0.9666
65136SOL     OW13399  12.719   1.781  13.979  0.3959  0.0311  0.3495
65136SOL    HW113400  12.628   1.764  13.952  1.9886 -0.8272 -5.8856
65136SOL    HW213401  12.736   1.714  14.045 -2.6525 -1.9245 -0.5843
65137SOL     OW13402  11.749   0.194   3.436  0.0343 -0.0952  0.0975
65137SOL    HW113403  11.669   0.228   3.396  0.2381  0.1772 -0.0802
65137SOL    HW213404  11.742   0.217   3.528 -0.4868 -0.8146  0.2446
65138SOL     OW13405   9.644   0.187   6.867  0.0258 -0.3895  0.2035
65138SOL    HW113406   9.591   0.237   6.930 -1.5554  1.1004 -2.1377
65138SOL    HW213407   9.661   0.104   6.912  0.4705  1.1728  3.2211
65139SOL     OW13408  14.034  12.073   8.236  0.0689  0.9821 -0.2492
65139SOL    HW113409  13.983  12.112   8.308 -1.1948  0.1877 -0.6709
65139SOL    HW213410  14.063  12.148   8.184 -0.4431  1.4835  0.1746
65140SOL     OW13411  13.077   4.645   7.980 -0.0349 -0.5917 -0.3170
65140SOL    HW113412  12.993   4.618   8.018 -1.2624  0.4774 -2.1207
65140SOL    HW213413  13.110   4.566   7.937  2.0520 -2.2486  3.7649
65141SOL     OW13414  12.856   9.765   0.605  0.2435  0.0293 -0.1881
65141SOL    HW113415  12.826   9.782   0.695  0.2853  3.1462 -0.6615
65141SOL    HW213416  12.777   9.739   0.558 -0.0320 -0.3142  0.4501
65142SOL     OW13417   9.887  11.158   9.099 -0.3038  0.1316 -0.4689
65142SOL    HW113418   9.832  11.218   9.050 -1.5377  1.2669  2.1303
65142SOL    HW213419   9.936  11.214   9.160  1.2781 -1.1844 -0.4419
65143SOL     OW13420   4.232   7.347   0.871 -0.2859 -0.1886 -0.0949
65143SOL    HW113421   4.315   7.344   0.824 -0.8935 -1.9861 -1.1825
65143SOL    HW213422   4.234   7.430   0.918  1.1222  0.8975 -1.9127
65144SOL     OW13423   9.582   5.763   8.824 -0.0617 -0.4519 -0.1150
65144SOL    HW113424   9.601   5.722   8.739  1.7424  0.5380 -0.2525
65144SOL    HW213425   9.624   5.706   8.888 -0.1611 -0.4358 -0.0367
65145SOL     OW13426  14.019  12.979   0.888 -0.2159  0.2174 -0.2979
65145SOL    HW113427  13.929  12.947   0.886  0.0664 -0.5531 -1.6949
65145SOL    HW213428  14.026  13.036   0.812  0.1950  1.1363  0.4060
65146SOL     OW13429   4.889   1.605  13.872 -0.0399 -0.0825 -0.1446
65146SOL    HW113430   4.898   1.647  13.787 -1.4868 -0.0315 -0.3034
65146SOL    HW213431   4.861   1.676  13.931  0.0366 -0.3063  0.1636
65147SOL     OW13432   6.470   9.468   2.558 -0.2255 -0.3586 -0.3738
65147SOL    HW113433   6.480   9.406   2.486  1.9361  1.4469 -1.7572
65147SOL    HW213434   6.421   9.541   2.520  0.8848  0.5861 -0.0380
65148SOL     OW13435   2.480   9.777   3.959  0.7562  0.5225 -0.0491
65148SOL    HW113436   2.512   9.768   4.049 -1.3928  3.1947  1.1143
65148SOL    HW213437   2.557   9.802   3.909  1.8394 -0.1967  1.1766
65149SOL     OW13438   1.199   3.073   8.300  0.9020 -0.4618  0.1194
65149SOL    HW113439   1.111   3.038   8.290  1.2417 -0.9983 -1.1522
65149SOL    HW213440   1.251   3.027   8.235  1.4019  2.2664 -1.5961
65150SOL     OW13441   6.699   5.268  12.910  0.0056  0.9407 -0.2496
65150SOL    HW113442   6.747   5.283  12.991 -1.5889  1.7513  0.6045
65150SOL    HW213443   6.715   5.347  12.857  0.3208  0.8114 -0.3496
65151SOL     OW13444  14.040  11.607  11.607  0.3790  0.7164  0.2710
65151SOL    HW113445  14.008  11.571  11.690 -0.7303 -0.5919 -0.6765
65151SOL    HW213446  14.125  11.566  11.594  0.4913  0.8139  0.6826
65152SOL     OW13447  10.153   7.140   2.745  0.2086 -0.0908  0.0901
65152SOL    HW113448  10.184   7.225   2.716  1.0333 -0.5980 -0.5907
65152SOL    HW213449  10.224   7.080   2.722 -0.5041 -1.0131  0.2164
65153SOL     OW13450   8.177   4.847   8.148  0.2607 -0.5926 -0.1022
65153SOL    HW113451   8.108   4.898   8.104  0.0711  0.2879  1.1627
65153SOL    HW213452   8.222   4.801   8.077  0.1376  0.9856 -1.2565
65154SOL     OW13453   3.145  10.531   1.341 -0.2672  0.0965 -0.1064
65154SOL    HW113454   3.137  10.453   1.396  0.7580 -0.4011 -0.6476
65154SOL    HW213455   3.115  10.503   1.254 -1.9543  0.8988  0.1681
65155SOL     OW13456   1.179   3.744  13.538  0.1532 -0.2869  0.5070
65155SOL    HW113457   1.274   3.731  13.531  0.9927  3.7055  1.9104
65155SOL    HW213458   1.142   3.679  13.478  3.8255 -1.0091 -1.2870
65156SOL     OW13459   5.753   2.911   8.844 -0.2206  0.0781  0.1029
65156SOL    HW113460   5.680   2.966   8.816 -0.0339  0.6369  0.6812
65156SOL    HW213461   5.712   2.841   8.896 -0.5386 -0.8103 -1.2871
65157SOL     OW13462   3.170  12.644   9.252 -0.3440  0.1171 -0.2631
65157SOL    HW113463   3.207  12.607   9.332  0.0773  0.1626 -0.4365
65157SOL    HW213464   3.161  12.738   9.271  2.0354  0.5658 -1.1073
65158SOL     OW13465   0.277   7.060   2.366 -0.0490  0.5567 -0.5195
65158SOL    HW113466   0.303   7.142   2.325 -0.1520  0.9723  0.2333
65158SOL    HW213467   0.323   7.059   2.451 -0.1248 -0.1134 -0.4778
65159SOL     OW13468   2.666   4.092   7.151  0.1492 -0.5901  0.2020
65159SOL    HW113469   2.581   4.124   7.183 -0.7045 -1.0273 -1.4847
65159SOL    HW213470   2.717   4.172   7.137 -0.6907 -0.1709 -0.5981
65160SOL     OW13471   2.337  11.115   4.156  0.0944 -0.2390  0.0306
65160SOL    HW113472   2.245  11.092   4.143  0.3182 -0.6149 -1.0182
65160SOL    HW213473   2.385  11.040   4.123  0.7996  0.5543 -0.7969
65161SOL     OW13474   2.369   0.364   3.861 -0.1610  0.0442 -0.4530
65161SOL    HW113475   2.406   0.290   3.814 -0.4068  0.2659 -1.0006
65161SOL    HW213476   2.286   0.332   3.896 -0.9558  0.4619 -1.8909
65162SOL     OW13477  14.133   9.499   2.874 -0.3882  0.5140  0.2996
65162SOL    HW113478  14.165   9.586   2.850 -0.7748  0.0687 -2.0677
65162SOL    HW213479  14.123   9.503   2.969  0.3088  2.8020  0.3435
65163SOL     OW13480   3.534   3.921  10.837  0.2044  0.1384 -0.1212
65163SOL    HW113481   3.491   3.839  10.813  1.5029  0.1792 -2.9682
65163SOL    HW213482   3.625   3.910  10.809  0.5413  2.3745 -0.1055
65164SOL     OW13483   4.316   8.749   8.860 -0.8107 -0.0286 -0.5136
65164SOL    HW113484   4.375   8.768   8.787 -1.2131 -0.5831 -0.9868
65164SOL    HW213485   4.231   8.733   8.819 -0.9936 -0.5558  0.0593
65165SOL     OW13486   3.768  12.864   6.783  0.5604  0.0473  0.0173
65165SOL    HW113487   3.683  12.858   6.826  0.0576 -3.2375 -1.1582
65165SOL    HW213488   3.780  12.957   6.765 -3.3542  0.5030 -0.9179
65166SOL     OW13489   9.594   6.287   7.870  0.3278 -0.8036  0.0254
65166SOL    HW113490   9.688   6.270   7.871  0.2576 -1.5391  2.8685
65166SOL    HW213491   9.587   6.382   7.877  0.8432 -0.7409 -0.2647
65167SOL     OW13492   9.990   2.140   1.536  0.0131  0.0587 -0.2983
65167SOL    HW113493   9.957   2.106   1.619 -0.4565 -1.8731 -1.2002
65167SOL    HW213494  10.082   2.161   1.553 -0.2056  0.1636  0.8194
65168SOL     OW13495  12.280   8.257   3.653 -0.4142 -0.0642  0.1391
65168SOL    HW113496  12.243   8.249   3.741 -1.8207 -2.6967 -0.6079
65168SOL    HW213497  12.245   8.339   3.620  0.1340  0.9835  1.9640
65169SOL     OW13498   8.104  11.223  12.245 -0.4621 -1.0694 -0.0315
65169SOL    HW113499   8.194  11.232  12.276 -0.6071  1.9951 -0.1811
65169SOL    HW213500   8.051  11.240  12.323 -0.8188  1.5464 -0.7451
65170SOL     OW13501   9.120   7.739   5.899  0.0345 -0.1287  0.4207
65170SOL    HW113502   9.036   7.752   5.854  0.8030  1.5990 -0.6212
65170SOL    HW213503   9.096   7.724   5.990 -1.3750  2.1880  0.5054
65171SOL     OW13504   2.509   5.225   4.422 -0.3491  0.2912 -0.2805
65171SOL    HW113505   2.494   5.227   4.516  1.0750  0.4385 -0.0363
65171SOL    HW213506   2.591   5.178   4.411 -1.0744 -0.7544 -1.5501
65172SOL     OW13507   6.875   8.384   9.396  0.2389  0.1908  0.8519
65172SOL    HW113508   6.816   8.335   9.339 -0.2864 -0.1040  1.6251
65172SOL    HW213509   6.930   8.317   9.436 -0.0037  0.2923  1.3698
65173SOL     OW13510  10.009   6.294  11.300 -0.4643 -0.3278  0.1843
65173SOL    HW113511  10.037   6.204  11.282  1.9842  0.4717 -0.4021
65173SOL    HW213512   9.976   6.326  11.217 -0.1331 -0.2925  0.0647
65174SOL     OW13513   0.686   3.681   7.039 -0.0951 -0.2403 -0.6872
65174SOL    HW113514   0.659   3.763   7.080  0.6256  0.1269 -0.9405
65174SOL    HW213515   0.643   3.681   6.954 -0.0061 -0.0742 -0.7313
65175SOL     OW13516   1.301   4.553   0.129 -0.4255 -0.3919  0.1053
65175SOL    HW113517   1.317   4.586   0.041  0.9175  0.4245  0.6260
65175SOL    HW213518   1.206   4.539   0.132 -0.6365  0.5904 -1.1067
65176SOL     OW13519  12.210   5.951   9.286 -0.4830 -0.3972  0.4406
65176SOL    HW113520  12.128   5.911   9.258 -1.2245  0.2123  1.6631
65176SOL    HW213521  12.188   5.997   9.367  0.4659  1.9197 -0.5105
65177SOL     OW13522   2.473   1.438   6.862  0.2042  0.2052 -0.5099
65177SOL    HW113523   2.545   1.500   6.873  2.3733 -2.2572  0.3162
65177SOL    HW213524   2.423   1.444   6.943 -0.1603  1.4624 -0.8096
65178SOL     OW13525  12.690   4.832   2.897  0.2952  0.0397  0.6770
65178SOL    HW113526  12.613   4.775   2.894 -0.2914  0.8268  0.5850
65178SOL    HW213527  12.722   4.833   2.807 -2.3779  3.4168 -0.4553
65179SOL     OW13528   4.568  11.543   5.157 -0.6616 -0.2060 -0.0878
65179SOL    HW113529   4.528  11.574   5.238  0.0841  3.4952 -0.9461
65179SOL    HW213530   4.495  11.524   5.099 -1.1776 -0.5109  0.6491
65180SOL     OW13531  10.482   5.356  13.157 -0.1400 -0.0085 -0.3074
65180SOL    HW113532  10.438   5.438  13.136  1.3502  0.9746  0.2471
65180SOL    HW213533  10.514   5.324  13.073 -1.7912 -0.6952 -0.7063
65181SOL     OW13534   1.656   9.793   1.586  0.2655  0.3319 -0.6554
65181SOL    HW113535   1.718   9.864   1.575 -0.4747  1.3516  1.2545
65181SOL    HW213536   1.707   9.721   1.622  0.6928  0.4790 -0.9659
65182SOL     OW13537   9.449   0.307   7.034 -0.0463 -0.6870  0.3399
65182SOL    HW113538   9.361   0.300   6.996 -0.3514 -0.0005  0.8856
65182SOL    HW213539   9.475   0.398   7.016  0.5100 -0.8511  0.2849
65183SOL     OW13540   4.461  13.631   6.545 -0.1115 -0.1051 -0.6046
65183SOL    HW113541   4.397  13.692   6.509  1.0909  1.0707 -0.8156
65183SOL    HW213542   4.540  13.645   6.493  0.5556 -0.9714  0.1419
65184SOL     OW13543   4.280   1.608  14.058  0.1606  0.4653 -0.1761
65184SOL    HW113544   4.260   1.535  14.117  0.3670  0.5291 -0.0265
65184SOL    HW213545   4.254   1.576  13.971  0.5753  0.0812 -0.1640
65185SOL     OW13546  12.588   7.877  13.134 -0.0183  0.2995 -0.1905
65185SOL    HW113547  12.517   7.887  13.070  1.4950  0.9661 -1.8275
65185SOL    HW213548  12.637   7.959  13.129  1.7661 -0.7231 -0.2450
65186SOL     OW13549   1.943   6.914   9.620  0.2868  0.0820  0.5404
65186SOL    HW113550   2.020   6.861   9.641  0.5008  0.3042  0.3193
65186SOL    HW213551   1.870   6.866   9.659  0.2144 -1.4145 -1.2931
65187SOL     OW13552   4.774   8.600   7.030  0.0379  0.0733  0.1490
65187SOL    HW113553   4.730   8.602   6.945  1.8171 -0.5074 -0.8445
65187SOL    HW213554   4.790   8.692   7.051  0.4730  0.1971 -0.6644
65188SOL     OW13555   5.923   9.496  11.456  0.1372  0.4722 -0.6531
65188SOL    HW113556   5.854   9.528  11.398  1.3285  2.6041 -0.9772
65188SOL    HW213557   5.880   9.428  11.508 -1.9479  1.0872 -1.4600
65189SOL     OW13558   7.458  13.670  12.595 -0.7537  0.2492  0.4887
65189SOL    HW113559   7.517  13.733  12.554  2.7755 -2.8941  0.2678
65189SOL    HW213560   7.407  13.635  12.522  1.3166 -1.0968 -0.3973
65190SOL     OW13561   9.565   3.855   6.417  0.0280 -0.7736 -0.3232
65190SOL    HW113562   9.569   3.880   6.509  0.0805 -1.1887 -0.2115
65190SOL    HW213563   9.621   3.778   6.410 -2.6540 -2.9115  0.0160
65191SOL     OW13564  10.688   0.993   6.949  0.5056 -0.4486 -0.5662
65191SOL    HW113565  10.764   1.049   6.965  0.3458 -0.5180  0.5563
65191SOL    HW213566  10.635   1.042   6.886  0.9303  0.1308 -0.4858
65192SOL     OW13567   4.845   9.413   0.597 -0.3003 -0.5760 -0.2806
65192SOL    HW113568   4.869   9.506   0.600 -0.6950 -0.4515 -0.8976
65192SOL    HW213569   4.825   9.390   0.688  0.4632 -0.2401 -0.0167
65193SOL     OW13570   0.798  12.098   7.662  0.0036  0.1045 -0.0827
65193SOL    HW113571   0.729  12.100   7.595  0.5971 -2.8250 -0.9086
65193SOL    HW213572   0.800  12.007   7.692  1.4859  0.7935  2.1325
65194SOL     OW13573   0.629  14.012   9.757 -0.2004  0.2013  0.4156
65194SOL    HW113574   0.585  14.038   9.676  0.8823  0.1382 -0.2033
65194SOL    HW213575   0.675  13.932   9.735  0.1036  0.1811  1.1024
65195SOL     OW13576   4.175  10.007  13.221  0.1870  0.3278  0.4612
65195SOL    HW113577   4.268  10.007  13.243  0.2098  1.2499  0.3981
65195SOL    HW213578   4.159   9.920  13.184  0.9088 -0.0145  0.9417
65196SOL     OW13579  11.826  12.618   6.273 -0.3509  0.7293  0.8255
65196SOL    HW113580  11.801  12.622   6.181 -2.8222  1.0311  1.4515
65196SOL    HW213581  11.893  12.686   6.282  1.6124 -0.8062 -1.1529
65197SOL     OW13582  13.536   9.387   3.074 -0.4695  0.1925 -0.0137
65197SOL    HW113583  13.514   9.302   3.037  0.6930 -1.1491  2.2411
65197SOL    HW213584  13.602   9.423   3.014  0.5724 -1.4345  0.1107
65198SOL     OW13585   9.549   8.751   2.258 -0.3612  0.2271  0.3077
65198SOL    HW113586   9.599   8.723   2.181  0.2926 -0.1856  0.8670
65198SOL    HW213587   9.476   8.801   2.222  0.1693  0.4030 -0.5610
65199SOL     OW13588   7.295   1.601   4.505 -0.5260  0.5983 -0.2200
65199SOL    HW113589   7.318   1.596   4.412  1.6946 -3.3700  0.3108
65199SOL    HW213590   7.367   1.650   4.544 -1.2199  1.8584 -0.4765
65200SOL     OW13591   9.130   3.823  12.808 -0.0354  0.2419 -0.3187
65200SOL    HW113592   9.163   3.858  12.891 -0.3644  2.7341 -1.1286
65200SOL    HW213593   9.103   3.901  12.759  0.6504 -1.0734 -2.9998
65201SOL     OW13594   1.108   9.191   7.557 -0.2443  0.4022  0.5365
65201SOL    HW113595   1.046   9.123   7.585 -1.4459  0.8864 -0.8494
65201SOL    HW213596   1.174   9.143   7.507  0.2816 -0.0592  1.6416
65202SOL     OW13597   6.983   2.567   4.061  0.5325  0.1274  0.7372
65202SOL    HW113598   6.987   2.615   3.979 -1.1186  0.3772  0.7771
65202SOL    HW213599   7.065   2.517   4.064  1.3708  1.3959 -0.2373
65203SOL     OW13600   0.054   2.636  13.811 -0.6062  0.0889  0.1193
65203SOL    HW113601   0.087   2.721  13.781  0.4643 -0.2780  0.2039
65203SOL    HW213602   0.130   2.594  13.852 -1.2067 -0.7769  0.3772
65204SOL     OW13603   0.205   8.614  11.308  0.3349  0.3774  0.5622
65204SOL    HW113604   0.175   8.648  11.223 -1.0766  2.0314  1.6545
65204SOL    HW213605   0.241   8.690  11.353  2.1274 -0.7167  1.0521
65205SOL     OW13606   2.551  12.236   8.385 -0.5534 -0.3049  0.6784
65205SOL    HW113607   2.533  12.278   8.300 -1.7695 -0.8940  0.6350
65205SOL    HW213608   2.495  12.159   8.386  0.1340 -0.8059  1.6453
65206SOL     OW13609   4.972  11.537  13.697 -0.3588  0.3383 -0.3275
65206SOL    HW113610   4.897  11.597  13.694 -0.0532  0.6998 -0.8644
65206SOL    HW213611   4.937  11.455  13.661 -0.6501  0.3282 -0.0319
65207SOL     OW13612   0.277   4.256   4.181 -0.1962  0.0121 -0.1422
65207SOL    HW113613   0.249   4.286   4.268 -0.1836  0.3724 -0.2633
65207SOL    HW213614   0.268   4.333   4.125  0.1311 -0.1283 -0.3874
65208SOL     OW13615  13.342  11.557  12.209  0.6589  0.0784  0.3180
65208SOL    HW113616  13.424  11.510  12.224  0.1246 -0.5278  1.4378
65208SOL    HW213617  13.348  11.634  12.265  0.5159  0.0981  0.3056
65209SOL     OW13618  12.653   3.612   3.175 -0.0058 -0.9434  0.1429
65209SOL    HW113619  12.722   3.562   3.133 -0.1723 -0.7947 -0.3068
65209SOL    HW213620  12.697   3.691   3.208  0.0658 -0.9170 -0.0170
65210SOL     OW13621  11.602  10.875   7.391  0.0458 -0.1167  0.0513
65210SOL    HW113622  11.528  10.842   7.442 -0.6196  0.9732 -0.1658
65210SOL    HW213623  11.628  10.955   7.436  2.3176 -1.3874  1.1901
65211SOL     OW13624   9.784   8.104  12.545  0.3925 -0.3162  0.3676
65211SOL    HW113625   9.724   8.061  12.605 -1.3866 -0.0836 -1.1307
65211SOL    HW213626   9.775   8.055  12.463 -0.8258  2.1106 -1.0536
65212SOL     OW13627   8.061   5.959   9.362 -0.1664  0.0808  0.1862
65212SOL    HW113628   8.063   5.960   9.458 -0.9681 -0.2426  0.2085
65212SOL    HW213629   8.114   5.883   9.337  1.3534  1.0615  0.3205
65213SOL     OW13630  13.567   5.677   4.706 -0.3637 -0.2043  0.1436
65213SOL    HW113631  13.531   5.765   4.711  1.5312  0.7364 -1.3537
65213SOL    HW213632  13.499   5.625   4.664 -1.3373  0.6309  0.6424
65214SOL     OW13633   4.357  10.120   5.896  0.1833 -0.4401 -0.9551
65214SOL    HW113634   4.405  10.197   5.924  1.0421 -1.2012 -0.2823
65214SOL    HW213635   4.349  10.129   5.801  1.0655  0.0305 -0.9870
65215SOL     OW13636   9.845   8.706  12.847 -0.4225 -0.1465  0.2633
65215SOL    HW113637   9.872   8.615  12.831  0.1489 -0.1962  1.4579
65215SOL    HW213638   9.924   8.750  12.876 -0.6487  0.8057 -0.4974
65216SOL     OW13639   7.871   5.566   6.016  0.5140  0.3739 -0.0004
65216SOL    HW113640   7.947   5.516   5.987 -0.0012  0.2862 -1.2526
65216SOL    HW213641   7.830   5.510   6.082 -1.0239 -1.7820 -2.5604
65217SOL     OW13642   7.582   4.900   2.134 -0.1633  0.0389  0.1305
65217SOL    HW113643   7.511   4.959   2.160  0.8079  1.8374 -1.0942
65217SOL    HW213644   7.581   4.901   2.038  0.6015 -1.0787  0.0882
65218SOL     OW13645  13.302   1.871   9.936  0.3376  0.7692 -0.0649
65218SOL    HW113646  13.295   1.776   9.925  0.1811  0.9869 -2.2027
65218SOL    HW213647  13.368   1.883  10.004  0.6118 -0.8560 -0.0190
65219SOL     OW13648   4.056  11.215  12.678 -0.3225 -0.1271  0.1261
65219SOL    HW113649   4.009  11.214  12.761  1.7493 -1.9122  1.3680
65219SOL    HW213650   4.005  11.157  12.621 -0.4770 -0.8221  0.9556
65220SOL     OW13651  12.719   2.743  13.061 -1.1454 -0.0552  0.0391
65220SOL    HW113652  12.767   2.823  13.042 -0.6910 -0.3572 -0.0938
65220SOL    HW213653  12.784   2.673  13.051 -1.5602 -0.4473  0.0641
65221SOL     OW13654  11.582   7.606   5.875  0.0756 -0.2016 -0.9075
65221SOL    HW113655  11.587   7.690   5.829  0.9128 -0.4916 -1.3825
65221SOL    HW213656  11.489   7.591   5.888 -0.0509  1.4582  0.4405
65222SOL     OW13657  13.404  12.815   9.751 -0.5614  0.3114  0.3411
65222SOL    HW113658  13.391  12.739   9.808 -0.8864 -1.1230 -1.5413
65222SOL    HW213659  13.354  12.885   9.793  0.4795 -0.2040  2.6137
65223SOL     OW13660   3.052   3.206   5.428  0.3635  0.0312 -0.0291
65223SOL    HW113661   3.036   3.144   5.357 -1.0060 -1.8851  1.7985
65223SOL    HW213662   2.980   3.268   5.422  1.3546  1.0949 -1.4529
65224SOL     OW13663  14.103   7.403   0.420  0.1992  0.9872  0.2198
65224SOL    HW113664  14.054   7.321   0.408 -0.3872  1.4502 -0.7738
65224SOL    HW213665  14.042   7.461   0.466 -0.1442  1.5007 -0.8436
65225SOL     OW13666   8.761  12.861   7.839  0.1107  0.0792  0.3341
65225SOL    HW113667   8.678  12.851   7.794  0.9037 -0.4209 -1.0806
65225SOL    HW213668   8.737  12.874   7.931 -1.4954 -0.6039  0.0467
65226SOL     OW13669   7.347   5.318  10.416  0.3362  0.1543  0.2411
65226SOL    HW113670   7.364   5.401  10.371  0.7839 -0.8153 -1.4578
65226SOL    HW213671   7.430   5.295  10.456  0.1523  0.6191  0.9074
65227SOL     OW13672   7.816   1.306   9.604  0.5477  0.2298 -0.0973
65227SOL    HW113673   7.816   1.382   9.663  4.4895  1.5832 -1.5658
65227SOL    HW213674   7.766   1.335   9.528  1.5029  1.1848 -0.3839
65228SOL     OW13675   1.843  12.117   4.886  0.0770  0.7007 -0.0508
65228SOL    HW113676   1.915  12.054   4.892  1.0722  1.6937 -0.9861
65228SOL    HW213677   1.775  12.082   4.943  1.1395 -0.4912  0.5269
65229SOL     OW13678   8.985   8.799  10.333  0.2510  0.1941  0.0873
65229SOL    HW113679   9.079   8.804  10.351  0.0243  0.0405  1.3708
65229SOL    HW213680   8.948   8.875  10.377 -0.1907  0.4766 -0.7487
65230SOL     OW13681   0.471   7.796  12.444 -0.8219 -0.2015  0.0575
65230SOL    HW113682   0.447   7.717  12.492 -0.1205 -0.7401 -0.4636
65230SOL    HW213683   0.502   7.857  12.511  0.6399 -1.1293  0.2624
65231SOL     OW13684   5.321   1.775   3.843  0.0885  0.1561 -0.3344
65231SOL    HW113685   5.288   1.810   3.760  0.0314 -0.8809 -0.7682
65231SOL    HW213686   5.415   1.792   3.841  0.3463 -1.1896 -1.3266
65232SOL     OW13687   7.882   1.623   7.763 -0.3317  0.6611 -0.2064
65232SOL    HW113688   7.899   1.534   7.730 -1.0739  0.2264  0.5594
65232SOL    HW213689   7.965   1.649   7.803 -0.4309 -0.1434  0.5697
65233SOL     OW13690   6.060  10.435  12.204  0.2567  0.6540  0.3097
65233SOL    HW113691   6.074  10.498  12.274  1.1759  0.0908  0.6525
65233SOL    HW213692   6.093  10.352  12.239 -0.6368  0.0393 -0.2454
65234SOL     OW13693   8.274   0.973   5.794 -0.3026 -0.3887 -0.0613
65234SOL    HW113694   8.282   1.068   5.798 -3.1767 -0.0887  0.8073
65234SOL    HW213695   8.309   0.942   5.877 -0.0612 -0.0452 -0.0323
65235SOL     OW13696   0.488   2.776   5.339  0.3924  0.1256 -0.3998
65235SOL    HW113697   0.473   2.869   5.352  1.4818  0.3329 -0.5400
65235SOL    HW213698   0.433   2.734   5.406 -0.4286  0.8287 -0.6030
65236SOL     OW13699  12.185   4.441  11.136 -0.3758 -0.5057 -0.4935
65236SOL    HW113700  12.176   4.446  11.231 -0.3401 -2.4339 -0.3584
65236SOL    HW213701  12.245   4.512  11.114 -1.8349  1.1637  0.6760
65237SOL     OW13702  10.790   4.382   3.338  0.3121 -0.3533 -0.0042
65237SOL    HW113703  10.744   4.302   3.312 -0.6740  1.1376 -3.2910
65237SOL    HW213704  10.871   4.381   3.287 -0.5796  1.5742 -1.5663
65238SOL     OW13705   4.938   1.337   0.282 -0.3557  0.0392  0.6202
65238SOL    HW113706   4.846   1.317   0.299 -0.1072 -1.5261  0.2134
65238SOL    HW213707   4.940   1.364   0.190 -0.0763 -2.3848 -0.1392
65239SOL     OW13708   8.001   5.855   3.434 -0.4729  0.2495  0.2033
65239SOL    HW113709   7.913   5.817   3.428 -0.2476 -0.2333 -0.1172
65239SOL    HW213710   8.008   5.910   3.356 -0.5156  0.3373  0.2620
65240SOL     OW13711  12.267  13.487  11.640  0.0867 -0.8513  0.2272
65240SOL    HW113712  12.310  13.520  11.561 -0.9016 -1.1909 -0.4818
65240SOL    HW213713  12.318  13.410  11.666  0.1835 -0.9779 -0.3267
65241SOL     OW13714   5.901   8.677   9.418 -0.0983  0.0160  0.4301
65241SOL    HW113715   5.984   8.630   9.424 -0.9646 -1.5564  0.5116
65241SOL    HW213716   5.834   8.610   9.429 -1.3970  1.2364  0.2739
65242SOL     OW13717  13.894   3.402   2.208  0.4786  0.4836 -0.4646
65242SOL    HW113718  13.899   3.433   2.298  1.7308  0.1484 -0.4037
65242SOL    HW213719  13.948   3.463   2.158 -0.4258  0.8274 -1.0430
65243SOL     OW13720  12.110  12.780  12.524 -0.3311  0.6069  0.0987
65243SOL    HW113721  12.124  12.691  12.557 -0.9287 -0.2144 -1.7527
65243SOL    HW213722  12.016  12.795  12.538 -0.3348  0.7421 -0.0784
65244SOL     OW13723   4.763   4.540   0.686  0.0870  0.2527  0.1446
65244SOL    HW113724   4.754   4.601   0.759  1.6885 -1.1423  1.5921
65244SOL    HW213725   4.777   4.596   0.610  2.0247  1.7380  1.4815
65245SOL     OW13726  11.436   0.980  11.039  0.6240 -0.1465  0.4355
65245SOL    HW113727  11.397   0.904  11.082  1.0882 -1.2725 -1.0858
65245SOL    HW213728  11.530   0.965  11.043  0.7098  0.2024 -0.1496
65246SOL     OW13729  10.334   3.088   9.593  0.4469 -0.8371  0.2641
65246SOL    HW113730  10.302   3.143   9.664 -0.0596  0.0112 -0.5862
65246SOL    HW213731  10.299   3.001   9.612 -1.5534 -0.1780 -0.0592
65247SOL     OW13732   4.996   0.221  10.749  0.8333  0.8119 -0.7898
65247SOL    HW113733   4.921   0.164  10.728 -0.2940  2.0774 -0.3363
65247SOL    HW213734   5.047   0.170  10.813  0.8750 -0.4328 -1.7666
65248SOL     OW13735   1.816   2.118  13.642 -0.1731  0.1665 -0.1090
65248SOL    HW113736   1.894   2.172  13.654  0.2530 -0.6172  0.7985
65248SOL    HW213737   1.760   2.139  13.717 -1.7484  2.1649 -1.7558
65249SOL     OW13738   1.719   1.052   1.806 -0.1031  0.3148 -0.1996
65249SOL    HW113739   1.764   0.999   1.741  0.5583  0.4680  0.1259
65249SOL    HW213740   1.661   0.991   1.852  0.4854 -0.0807  0.0212
65250SOL     OW13741   5.400  10.066  12.903  0.5187  0.2864  0.1495
65250SOL    HW113742   5.339  10.014  12.850  0.7853  2.1643 -2.1461
65250SOL    HW213743   5.487  10.043  12.870  0.8861 -0.1305  1.3330
65251SOL     OW13744  11.486   6.896   6.548  0.4149 -0.3204  0.2283
65251SOL    HW113745  11.502   6.879   6.456 -0.7868  0.4504 -0.1500
65251SOL    HW213746  11.488   6.991   6.556 -2.6328 -0.1709  0.3125
65252SOL     OW13747  12.256  12.488   5.353 -0.0153 -0.0557 -0.3827
65252SOL    HW113748  12.344  12.469   5.386 -0.6916 -1.3931  0.7672
65252SOL    HW213749  12.271  12.541   5.275  1.7735  0.5156  0.2786
65253SOL     OW13750  11.468  12.425   2.272 -0.2170  0.4144  0.7834
65253SOL    HW113751  11.479  12.401   2.364 -0.5134 -0.1244  0.6870
65253SOL    HW213752  11.396  12.488   2.272 -1.1162 -0.5788  0.7985
65254SOL     OW13753  10.197   7.310  12.234 -0.2006 -0.4519  0.0902
65254SOL    HW113754  10.190   7.405  12.239  0.0063 -0.3628 -1.0629
65254SOL    HW213755  10.181   7.280  12.324  2.2178  0.7955  1.0324
65255SOL     OW13756   6.286  13.208   9.012  0.1621  0.4004  0.4604
65255SOL    HW113757   6.216  13.144   9.021  0.2194  0.2073 -0.3399
65255SOL    HW213758   6.347  13.167   8.950  0.2349  1.2056 -0.0028
65256SOL     OW13759  11.440   1.984   4.719  0.3548 -0.2222 -0.0450
65256SOL    HW113760  11.381   2.056   4.700  0.6419  0.2751  0.8680
65256SOL    HW213761  11.510   2.023   4.771  1.9771 -0.6157 -1.8122
65257SOL     OW13762   6.050   5.186   6.930  0.7466  0.0029  0.2935
65257SOL    HW113763   6.001   5.154   7.006  0.8749  1.0919  0.8514
65257SOL    HW213764   6.017   5.134   6.857 -0.3682 -0.1207  0.8649
65258SOL     OW13765   3.297   9.501  13.023  0.3647  0.0702 -0.3416
65258SOL    HW113766   3.346   9.437  13.075  0.6673 -0.4057 -1.1925
65258SOL    HW213767   3.216   9.455  12.999  0.8991 -0.2820 -1.5627
65259SOL     OW13768   7.251   6.511  13.527  0.0381  0.1449  0.2182
65259SOL    HW113769   7.310   6.479  13.459  0.1120  1.3119 -0.2760
65259SOL    HW213770   7.309   6.534  13.600  0.1584  0.8622 -0.0998
65260SOL     OW13771   3.135   3.172  12.363 -0.0304  0.2434  0.2798
65260SOL    HW113772   3.141   3.105  12.295 -0.1895  0.5019  0.0152
65260SOL    HW213773   3.041   3.187  12.375  0.0312  1.4749 -0.6908
65261SOL     OW13774   0.404  14.100  13.666  0.0458 -0.2198  0.2885
65261SOL    HW113775   0.417  14.029  13.603 -0.9716 -2.0171  1.9620
65261SOL    HW213776   0.491  14.115  13.704  0.0179 -1.7328  1.0255
65262SOL     OW13777   2.982   9.299   8.305  0.3817 -0.7919 -0.3261
65262SOL    HW113778   3.007   9.391   8.313  1.0778 -0.8926 -1.1634
65262SOL    HW213779   2.991   9.280   8.211  0.7000 -1.8281 -0.0992
65263SOL     OW13780   7.488  12.274  11.219  0.5560 -0.1372  0.1094
65263SOL    HW113781   7.455  12.326  11.293 -2.4428 -2.2595  0.4637
65263SOL    HW213782   7.547  12.210  11.259  0.6294  0.0758  0.3447
65264SOL     OW13783   7.671  10.975   3.674  0.3581 -0.2984 -0.6895
65264SOL    HW113784   7.594  10.929   3.640  0.4441 -0.0724 -1.1997
65264SOL    HW213785   7.639  11.022   3.751 -0.6251  1.8031 -2.2916
65265SOL     OW13786  13.105   7.284   5.170  0.0942  0.4284 -0.0038
65265SOL    HW113787  13.145   7.244   5.248 -1.1465  1.2129  1.0633
65265SOL    HW213788  13.155   7.364   5.156  0.5303  0.1216 -0.2159
65266SOL     OW13789   3.171   8.440  10.426 -0.1072  0.1416  0.4800
65266SOL    HW113790   3.085   8.420  10.387 -0.8222 -0.5975  2.3035
65266SOL    HW213791   3.181   8.534  10.414  0.3666 -0.1750 -2.6198
65267SOL     OW13792  11.844  14.147   0.440 -0.2395 -0.1509 -0.3121
65267SOL    HW113793  11.772  14.086   0.425  0.7561 -1.4812  0.0869
65267SOL    HW213794  11.812  14.208   0.507 -0.6389 -1.3724  0.6356
65268SOL     OW13795   4.882   7.053   2.126  0.2139 -0.2191  0.0997
65268SOL    HW113796   4.933   6.992   2.073 -1.1330 -0.5464 -0.8466
65268SOL    HW213797   4.925   7.138   2.112 -0.5517 -0.1620 -2.1414
65269SOL     OW13798   9.338  10.602   2.522 -0.1811  0.5110  0.4993
65269SOL    HW113799   9.406  10.669   2.519 -0.1485  0.4431 -1.9305
65269SOL    HW213800   9.287  10.623   2.601  2.4032  0.7407  2.2241
65270SOL     OW13801  11.485   7.383   2.075  0.5058 -0.2996  0.4498
65270SOL    HW113802  11.460   7.399   2.166 -0.4499  1.0049 -0.0221
65270SOL    HW213803  11.510   7.469   2.041  2.0023 -0.9513 -0.2118
65271SOL     OW13804   0.120  10.298   1.771  0.2694 -0.3441  0.6011
65271SOL    HW113805   0.101  10.215   1.726  0.7459 -0.1353  0.0079
65271SOL    HW213806   0.203  10.327   1.734 -1.3800  2.0324 -1.5688
65272SOL     OW13807   1.576   5.072   9.559 -0.4029 -0.1137  0.3580
65272SOL    HW113808   1.528   5.155   9.553 -0.0547  0.2093  1.7402
65272SOL    HW213809   1.512   5.006   9.534 -1.2995  0.4008  1.2057
65273SOL     OW13810  13.854   8.088   2.042 -0.2195  0.0318 -0.3144
65273SOL    HW113811  13.792   8.018   2.064  0.0509  0.1843  1.0187
65273SOL    HW213812  13.817   8.166   2.082  0.8456  0.1161  0.5353
65274SOL     OW13813  13.061  11.839   1.145 -0.3482 -0.3583 -0.2485
65274SOL    HW113814  13.045  11.830   1.239 -0.5171 -2.0613 -0.4015
65274SOL    HW213815  13.125  11.771   1.125  1.8429  1.7629 -0.9076
65275SOL     OW13816   8.189   2.141   1.297  0.1945  0.0619  0.0659
65275SOL    HW113817   8.099   2.154   1.329  1.0087  2.9456  1.5203
65275SOL    HW213818   8.179   2.091   1.217 -2.6957  0.0248  0.3460
65276SOL     OW13819   5.695  12.057   6.620 -0.8184  0.3861 -0.0591
65276SOL    HW113820   5.757  12.076   6.549 -0.0158 -0.3384  0.4171
65276SOL    HW213821   5.618  12.111   6.601 -1.3966 -1.1736 -2.5052
65277SOL     OW13822  11.601   2.271   4.450 -0.2751 -0.2002  0.0186
65277SOL    HW113823  11.643   2.355   4.429  0.4501 -0.3486  0.8030
65277SOL    HW213824  11.562   2.243   4.368 -2.0150  1.7051  0.1006
65278SOL     OW13825   7.569   9.870   8.602  0.2245  0.2998 -0.1911
65278SOL    HW113826   7.626   9.815   8.656  0.7127  1.3309  0.3686
65278SOL    HW213827   7.502   9.809   8.569  1.7526 -0.9876 -1.0668
65279SOL     OW13828   2.306  12.214  10.432 -0.3621  0.3090  0.1288
65279SOL    HW113829   2.362  12.136  10.430 -0.1440  0.4384 -2.1843
65279SOL    HW213830   2.225  12.185  10.474 -0.0532 -1.0057 -0.1343
65280SOL     OW13831   1.951  11.543   0.810 -0.3903  0.1709 -0.0682
65280SOL    HW113832   1.908  11.621   0.776  2.1574  1.7958  0.1492
65280SOL    HW213833   1.894  11.513   0.881 -1.5534  1.7031 -0.3107
65281SOL     OW13834  12.489  12.826   1.968 -0.1672 -0.3634  0.0273
65281SOL    HW113835  12.450  12.877   2.039  0.9275 -0.6346  0.8528
65281SOL    HW213836  12.418  12.771   1.937 -0.6180 -0.4078  1.0809
65282SOL     OW13837   8.180   3.805   8.280  0.3308 -0.3094  0.4300
65282SOL    HW113838   8.226   3.888   8.294 -1.6428  0.8679  0.3624
65282SOL    HW213839   8.225   3.765   8.206  0.7492  1.1723 -0.1669
65283SOL     OW13840  11.772  11.669  11.942  0.8564 -0.3940  0.5105
65283SOL    HW113841  11.753  11.634  12.030  3.9972 -0.1451  1.4072
65283SOL    HW213842  11.864  11.696  11.947  1.0097  0.0005 -2.7782
65284SOL     OW13843   9.642  12.921  12.753 -0.1611 -0.4889 -0.1586
65284SOL    HW113844   9.704  12.873  12.809  0.7608 -2.1960 -2.4773
65284SOL    HW213845   9.698  12.969  12.692 -1.1035 -0.2103 -0.8265
65285SOL     OW13846   3.380   9.516   8.581 -0.4003  0.1892 -0.0304
65285SOL    HW113847   3.462   9.537   8.626 -0.2639  2.3298 -1.1737
65285SOL    HW213848   3.408   9.473   8.500 -0.1936  2.5440 -1.3152
65286SOL     OW13849   8.044  13.808   7.706 -0.1621 -0.0062 -0.0396
65286SOL    HW113850   8.025  13.841   7.618  0.1575 -0.9049 -0.4568
65286SOL    HW213851   7.973  13.843   7.760 -0.2526  0.7179 -0.6109
65287SOL     OW13852   8.119  14.025   4.304  0.2764 -0.3142 -0.6284
65287SOL    HW113853   8.161  14.054   4.223 -1.3113 -1.0477 -1.7738
65287SOL    HW213854   8.094  13.934   4.287 -0.7421 -0.2558  0.4146
65288SOL     OW13855  13.496   4.712   0.085 -0.4003 -0.0547 -0.0728
65288SOL    HW113856  13.434   4.655   0.038 -1.2303  0.4180  0.4137
65288SOL    HW213857  13.521   4.779   0.021  0.3085 -0.7556 -0.5401
65289SOL     OW13858   2.560   1.853  13.329  0.0083 -0.3373  0.3622
65289SOL    HW113859   2.567   1.903  13.410 -0.4042 -0.9909  0.8048
65289SOL    HW213860   2.535   1.765  13.357 -0.8293 -0.3946 -0.5277
65290SOL     OW13861  11.811   8.143   6.158  0.0562  0.2950  0.4921
65290SOL    HW113862  11.795   8.094   6.078  0.2386  1.6005 -0.3749
65290SOL    HW213863  11.802   8.078   6.228  0.2994 -0.9592 -0.5934
65291SOL     OW13864  12.040  10.670   6.232 -0.3393 -0.5395 -0.4275
65291SOL    HW113865  11.954  10.642   6.262 -1.8020  2.5377 -1.3442
65291SOL    HW213866  12.052  10.624   6.149 -0.5311 -1.8983  0.2770
65292SOL     OW13867   4.868   9.733   3.522  0.2551 -0.4197 -0.6088
65292SOL    HW113868   4.922   9.778   3.587  2.4703 -0.5104 -2.2692
65292SOL    HW213869   4.890   9.641   3.533 -0.1363 -0.5372 -0.8154
65293SOL     OW13870  13.091   8.734   3.730  0.0067  0.3553 -0.0760
65293SOL    HW113871  13.158   8.798   3.755 -0.6071  0.0456  2.7341
65293SOL    HW213872  13.140   8.652   3.720  0.3003  0.5043  0.1172
65294SOL     OW13873   9.711   1.374  12.371 -0.2335  0.7531  0.3168
65294SOL    HW113874   9.727   1.387  12.278 -0.6735 -0.2941  0.0776
65294SOL    HW213875   9.729   1.281  12.386 -0.5919  0.8078  1.1780
65295SOL     OW13876  13.450   1.079   4.364  0.3516 -0.1173  0.1875
65295SOL    HW113877  13.477   0.987   4.362 -1.6206 -0.7413  0.2269
65295SOL    HW213878  13.355   1.076   4.367  0.1613  1.9664 -1.5644
65296SOL     OW13879  10.762   7.515   6.093  0.1560  0.0324 -0.3528
65296SOL    HW113880  10.805   7.534   6.009  1.5533  1.2115  0.5775
65296SOL    HW213881  10.767   7.420   6.101 -1.1577 -0.2581 -2.1600
65297SOL     OW13882   0.611   8.817   4.324 -0.9048 -0.0996 -0.2773
65297SOL    HW113883   0.527   8.779   4.351 -0.8536 -1.1098 -1.4844
65297SOL    HW213884   0.587   8.881   4.257 -0.6338 -1.2560 -1.5037
65298SOL     OW13885   5.390   6.063   5.229 -0.4367  0.9166 -0.3992
65298SOL    HW113886   5.400   6.154   5.257 -1.1219  0.7212  0.5405
65298SOL    HW213887   5.381   6.068   5.134 -0.3668  1.8139 -0.3719
65299SOL     OW13888   5.571   5.576   7.480  0.2794 -0.3159  0.2715
65299SOL    HW113889   5.548   5.522   7.404  0.7366 -0.1549  0.0168
65299SOL    HW213890   5.580   5.513   7.552 -1.1941 -0.3613  0.4494
65300SOL     OW13891  14.007   1.932   6.529 -0.0507  0.7521  0.4381
65300SOL    HW113892  14.059   1.994   6.478 -1.8340  2.1772  0.2632
65300SOL    HW213893  13.932   1.911   6.473  0.1563 -1.0620  0.7809
65301SOL     OW13894   2.181   9.256  12.108  0.3522 -0.4802 -1.0269
65301SOL    HW113895   2.112   9.222  12.165 -0.1659  1.4810 -0.4157
65301SOL    HW213896   2.165   9.215  12.023 -2.1339  0.6197 -1.1403
65302SOL     OW13897   1.129   2.092  13.758  0.0747 -0.5359  0.4097
65302SOL    HW113898   1.132   2.170  13.813 -2.6859  0.2627 -0.4125
65302SOL    HW213899   1.091   2.024  13.815 -2.6590  0.2560 -0.3290
65303SOL     OW13900   1.193  12.311   1.995 -0.1325  0.0560  0.9529
65303SOL    HW113901   1.261  12.270   1.942 -1.4264  0.3258 -1.0135
65303SOL    HW213902   1.120  12.249   1.993 -0.3027  0.1634  2.3016
65304SOL     OW13903   0.662   0.888  13.468 -0.3030 -0.3111  0.3020
65304SOL    HW113904   0.633   0.943  13.395  1.0782  1.7892  1.2463
65304SOL    HW213905   0.581   0.855  13.507 -1.2004  1.3693 -0.0876
65305SOL     OW13906   4.090   7.155   8.393  0.6647  0.1002  0.0516
65305SOL    HW113907   4.166   7.156   8.451 -0.8702 -0.1500  2.1975
65305SOL    HW213908   4.125   7.175   8.306  2.8225  2.5714  1.3662
65306SOL     OW13909   7.243  10.121  13.539 -0.2581 -0.2541  0.4265
65306SOL    HW113910   7.229  10.047  13.479 -0.2613  1.3024 -1.5908
65306SOL    HW213911   7.332  10.151  13.519 -1.0432  1.6707 -0.4937
65307SOL     OW13912   0.784   2.378   1.081  0.2053 -0.4570 -0.0156
65307SOL    HW113913   0.747   2.326   1.010 -1.9745  0.2624  0.5287
65307SOL    HW213914   0.735   2.351   1.159 -0.4073  1.7579  0.4263
65308SOL     OW13915   0.295   3.118   2.042  0.0843  0.1250  0.0243
65308SOL    HW113916   0.270   3.204   2.074  1.3881 -0.6479  3.6326
65308SOL    HW213917   0.390   3.115   2.053  0.3669 -1.0053 -2.2635
65309SOL     OW13918   1.903  10.425  13.579 -0.2483 -0.6073  0.1131
65309SOL    HW113919   1.992  10.398  13.602 -0.3209 -0.9927 -0.0464
65309SOL    HW213920   1.878  10.487  13.647  0.1004 -0.5816  0.2209
65310SOL     OW13921   2.495   1.415   6.005 -0.3267  0.2192 -0.0852
65310SOL    HW113922   2.427   1.349   6.020 -0.1396 -0.0499 -0.4025
65310SOL    HW213923   2.547   1.379   5.934 -2.7724  2.6375 -3.4501
65311SOL     OW13924  12.493  11.871   2.107 -0.0904  0.0738 -0.1006
65311SOL    HW113925  12.513  11.962   2.127  1.6179 -0.1726 -0.4695
65311SOL    HW213926  12.485  11.828   2.192  2.1801  0.0002  0.1359
65312SOL     OW13927   2.913   6.776   1.052 -0.1509 -0.3183 -0.3268
65312SOL    HW113928   2.957   6.771   0.967 -2.6416 -0.2252 -1.7582
65312SOL    HW213929   2.930   6.692   1.093  2.6922  0.3331  0.0084
65313SOL     OW13930   1.896  10.251   1.631 -0.6239  0.3973 -0.5052
65313SOL    HW113931   1.956  10.251   1.706 -0.8591  0.6667 -0.3141
65313SOL    HW213932   1.839  10.326   1.646  0.2595  1.3661 -1.7193
65314SOL     OW13933  14.032  10.337   1.281 -0.4257 -0.8413  0.2660
65314SOL    HW113934  13.947  10.339   1.323 -0.8130 -0.0853 -0.5173
65314SOL    HW213935  14.047  10.427   1.252 -0.4439 -1.4198 -1.6823
65315SOL     OW13936  11.126   7.897   5.012  0.0722 -0.5757  0.5683
65315SOL    HW113937  11.145   7.975   5.064 -0.5175 -1.0477  1.5261
65315SOL    HW213938  11.169   7.912   4.929  0.1026  0.7025  0.8023
65316SOL     OW13939  10.673   6.406   1.153  0.1994 -0.5368 -0.0296
65316SOL    HW113940  10.674   6.345   1.080 -0.1676 -1.0466  0.3792
65316SOL    HW213941  10.676   6.493   1.112 -2.4294 -0.7243 -0.8039
65317SOL     OW13942   9.910   4.008   8.853 -0.2625  0.0210  0.6508
65317SOL    HW113943   9.934   4.085   8.802 -2.0394  0.4525  0.4049
65317SOL    HW213944   9.833   4.034   8.903  0.7914 -0.7324  2.7907
65318SOL     OW13945  12.229   5.531   7.430 -0.4371  0.0892 -0.1734
65318SOL    HW113946  12.310   5.576   7.405 -1.6364  1.3227 -2.0649
65318SOL    HW213947  12.189   5.589   7.494 -0.3817  0.0491 -0.1019
65319SOL     OW13948   4.261  12.034  12.035 -0.2068 -0.6095  0.0009
65319SOL    HW113949   4.330  12.018  11.971  2.0620  1.1581  1.8078
65319SOL    HW213950   4.299  12.006  12.118 -1.7998  0.1073  1.0142
65320SOL     OW13951   1.745   1.776   4.303  0.4029 -0.3001  0.2850
65320SOL    HW113952   1.717   1.705   4.245  0.4355 -0.0332 -0.0569
65320SOL    HW213953   1.664   1.822   4.324  0.6754  1.0929 -1.5184
65321SOL     OW13954  12.256  10.294  10.472  0.0202  0.2198  0.2370
65321SOL    HW113955  12.331  10.237  10.493  0.7871  1.7612  1.9703
65321SOL    HW213956  12.296  10.377  10.447 -1.1063  0.6150 -0.2944
65322SOL     OW13957  10.691  12.614   0.867 -0.3636 -0.1613 -0.5932
65322SOL    HW113958  10.691  12.573   0.953  1.4110 -0.3111 -0.6231
65322SOL    HW213959  10.625  12.566   0.817 -0.8050 -0.6364  0.4272
65323SOL     OW13960  14.123   1.924   4.307 -0.0423 -0.2070 -0.2597
65323SOL    HW113961  14.159   1.920   4.218  1.8204 -1.1561  0.4798
65323SOL    HW213962  14.036   1.884   4.299  0.1029 -0.3069 -1.6442
65324SOL     OW13963  12.564   7.430  14.125 -0.5436  0.0788  0.7840
65324SOL    HW113964  12.554   7.341  14.089 -0.1037  0.2587  0.1988
65324SOL    HW213965  12.487   7.477  14.093 -0.4317  0.0883  0.5196
65325SOL     OW13966   6.891   9.225   1.785  0.0920  0.2764 -0.0867
65325SOL    HW113967   6.930   9.206   1.871  0.3088  0.8357 -0.0598
65325SOL    HW213968   6.965   9.252   1.731 -0.3428  2.0855  0.1754
65326SOL     OW13969   1.429   3.352   9.467  0.1273 -0.6390  0.4711
65326SOL    HW113970   1.471   3.305   9.539  0.7440 -1.3708 -0.3510
65326SOL    HW213971   1.492   3.419   9.442 -0.8132  0.7882  1.7436
65327SOL     OW13972   3.081  10.651   4.693  0.0517 -0.1591 -1.3536
65327SOL    HW113973   3.076  10.739   4.729 -0.3575 -0.7355  0.0968
65327SOL    HW213974   3.149  10.607   4.744  1.8414 -0.0849 -3.5312
65328SOL     OW13975   3.788   3.742   8.696 -0.0881  0.0118  0.3919
65328SOL    HW113976   3.878   3.772   8.704 -0.1247 -0.0267  1.0522
65328SOL    HW213977   3.761   3.724   8.786 -0.2895 -1.3584  0.0903
65329SOL     OW13978   5.490   5.386   6.243 -0.7071  0.3832 -0.3174
65329SOL    HW113979   5.559   5.425   6.298 -1.3039  2.4453 -0.9193
65329SOL    HW213980   5.532   5.375   6.158  0.2790 -3.0018  0.4793
65330SOL     OW13981   3.454   2.719  13.995  0.0058 -0.5848  0.2903
65330SOL    HW113982   3.523   2.785  13.992  0.7752 -1.3229  0.8372
65330SOL    HW213983   3.497   2.639  13.964 -0.8823 -0.8499 -0.2914
65331SOL     OW13984   3.423  11.735   3.332  0.2854  0.5208 -0.4607
65331SOL    HW113985   3.424  11.791   3.410  1.2433  1.3953 -1.0780
65331SOL    HW213986   3.471  11.785   3.266 -0.8130 -0.0548 -1.7262
65332SOL     OW13987  10.641   3.663   3.479  0.3120 -0.6374 -0.3173
65332SOL    HW113988  10.654   3.569   3.469  1.3744 -0.7931  2.0301
65332SOL    HW213989  10.728   3.701   3.465  0.6690 -0.3919  2.1638
65333SOL     OW13990   7.896  14.097   9.426  0.3830  1.0092  0.3513
65333SOL    HW113991   7.962  14.041   9.467 -0.8139 -0.8362 -0.1024
65333SOL    HW213992   7.932  14.118   9.340  0.9523  1.1446  0.6187
65334SOL     OW13993   3.284   2.336   4.540 -0.3176 -0.4994 -0.1745
65334SOL    HW113994   3.221   2.381   4.595  0.7849 -1.0004  1.5754
65334SOL    HW213995   3.365   2.385   4.552  0.4551 -1.8484  0.3505
65335SOL     OW13996  13.405  13.850  10.543 -0.0004  0.4496  0.2343
65335SOL    HW113997  13.367  13.818  10.462  0.4930  0.9585 -0.2100
65335SOL    HW213998  13.459  13.777  10.574  0.0957  0.3796 -0.0897
65336SOL     OW13999   1.533  12.190   8.854 -0.1428 -0.1634  0.0194
65336SOL    HW114000   1.557  12.111   8.903  0.2135  0.2909  0.6013
65336SOL    HW214001   1.600  12.254   8.877 -1.4930  0.9289  1.1448
65337SOL     OW14002   5.949  10.974   1.823 -0.5611 -0.5782 -0.7342
65337SOL    HW114003   5.895  11.040   1.780  2.0903  1.0320 -1.8336
65337SOL    HW214004   6.034  11.015   1.832  0.4378 -2.8583  1.2388
65338SOL     OW14005   2.366   5.379   3.953  0.4505 -0.2963 -0.4274
65338SOL    HW114006   2.381   5.474   3.956 -1.3720  0.0243  2.4352
65338SOL    HW214007   2.411   5.345   4.030 -0.1765 -1.5139 -0.5773
65339SOL     OW14008   7.170   9.486   7.206 -0.3828  0.4544  0.0358
65339SOL    HW114009   7.144   9.558   7.148  0.5192  1.9824  1.4280
65339SOL    HW214010   7.143   9.516   7.293 -0.7978 -1.3279  0.5532
65340SOL     OW14011   6.996   4.356  12.795 -0.3466 -0.6809 -0.0835
65340SOL    HW114012   7.035   4.383  12.879  0.0008 -0.3249 -0.3591
65340SOL    HW214013   7.059   4.293  12.760  0.2207  0.2294 -0.7407
65341SOL     OW14014  12.754   2.627   0.355 -0.6765 -0.4709  0.2099
65341SOL    HW114015  12.679   2.616   0.413 -0.9938  1.0961  0.1544
65341SOL    HW214016  12.800   2.703   0.390  0.3386 -0.8259 -0.3271
65342SOL     OW14017   0.544   0.674   5.148  0.8035 -0.0984 -0.0928
65342SOL    HW114018   0.449   0.684   5.139  0.6430 -1.4093 -0.1497
65342SOL    HW214019   0.580   0.752   5.107 -0.2370  0.0263 -0.8297
65343SOL     OW14020  10.880  13.172   7.680 -0.6207 -0.4442  0.2820
65343SOL    HW114021  10.854  13.115   7.752  0.8717  0.1581  1.3648
65343SOL    HW214022  10.818  13.244   7.683 -1.4207 -1.1129  0.0556
65344SOL     OW14023  13.435   2.715   9.530 -0.0568 -0.4783 -0.0384
65344SOL    HW114024  13.425   2.810   9.519  0.8266 -0.2888  0.7000
65344SOL    HW214025  13.513   2.693   9.480  1.1528 -0.4019  1.7415
65345SOL     OW14026   1.311  10.326  13.906 -0.1476  0.5573  0.1662
65345SOL    HW114027   1.272  10.350  13.822 -3.4384  0.2227  1.4093
65345SOL    HW214028   1.340  10.409  13.943  1.0340  0.7475 -1.1242
65346SOL     OW14029   4.607  12.048   4.132  0.1804  0.3052 -0.2327
65346SOL    HW114030   4.588  11.960   4.100 -0.2011 -0.2403  1.3704
65346SOL    HW214031   4.702  12.051   4.141  0.2662  0.3604 -1.0549
65347SOL     OW14032   5.153   5.312   0.570  0.0816 -0.0995 -0.0952
65347SOL    HW114033   5.071   5.275   0.601 -0.2510 -1.7147 -2.6079
65347SOL    HW214034   5.127   5.384   0.512  0.5115  0.3392  0.2460
65348SOL     OW14035   2.250   6.026  11.213 -0.1529  0.0983 -0.1679
65348SOL    HW114036   2.329   6.057  11.169  0.4742 -1.4251 -0.1812
65348SOL    HW214037   2.271   6.029  11.306 -0.4879  0.7479 -0.1121
65349SOL     OW14038   2.725   6.587  11.275 -0.5968 -0.3449  0.1333
65349SOL    HW114039   2.781   6.640  11.330  0.2230 -0.9092 -0.1435
65349SOL    HW214040   2.669   6.650  11.229  0.9598  0.3524 -0.8716
65350SOL     OW14041  13.273   7.130   3.531 -0.1985 -0.0371 -0.1283
65350SOL    HW114042  13.368   7.139   3.533 -0.0972 -0.8724 -0.7556
65350SOL    HW214043  13.246   7.176   3.451 -0.1350 -1.2677 -0.8803
65351SOL     OW14044  11.996  13.287  13.910  0.1435  0.0945  0.0949
65351SOL    HW114045  11.936  13.253  13.976  0.0173  1.4405  0.7086
65351SOL    HW214046  12.021  13.374  13.942 -0.2249  0.9693 -1.8018
65352SOL     OW14047   8.578   0.900   3.315  0.4764 -0.6778 -0.8722
65352SOL    HW114048   8.530   0.858   3.387  1.2105 -1.2314 -0.6997
65352SOL    HW214049   8.597   0.829   3.254  2.8297 -0.8876  0.0154
65353SOL     OW14050  14.085   8.797   7.807 -0.2371 -0.1615 -0.0572
65353SOL    HW114051  14.028   8.759   7.740 -1.5747  1.7961 -0.0876
65353SOL    HW214052  14.096   8.726   7.871  2.7355 -2.8606 -3.1330
65354SOL     OW14053   5.633  11.518   9.295 -0.4784  0.1499 -0.0896
65354SOL    HW114054   5.670  11.432   9.273 -0.9437 -0.0450 -0.1112
65354SOL    HW214055   5.599  11.507   9.384 -2.1945 -0.2429 -0.7545
65355SOL     OW14056   5.764   2.164  10.171 -0.6604 -0.2363  0.0718
65355SOL    HW114057   5.749   2.142  10.263 -1.1848  1.1967  0.3626
65355SOL    HW214058   5.677   2.167  10.132 -0.5292  0.2808 -0.1958
65356SOL     OW14059   3.683   0.906  12.264 -0.3292 -0.0428 -0.4634
65356SOL    HW114060   3.719   0.929  12.349 -0.6988 -2.0871  0.2962
65356SOL    HW214061   3.643   0.988  12.232  0.7495  1.0241  0.8064
65357SOL     OW14062  14.041   7.301   1.543 -0.1868  0.4161  0.8302
65357SOL    HW114063  14.001   7.341   1.620 -0.2196  2.4855 -0.1918
65357SOL    HW214064  14.029   7.207   1.555 -2.0343  0.7991  2.3265
65358SOL     OW14065  10.251  11.629  12.982 -0.0769  0.0635 -0.1839
65358SOL    HW114066  10.261  11.587  13.067 -3.5976  0.0185  0.3646
65358SOL    HW214067  10.315  11.700  12.982 -0.8217  0.8633  3.0869
65359SOL     OW14068   6.083  11.741   2.502  0.0477  0.3786  0.0261
65359SOL    HW114069   6.083  11.724   2.597 -0.1587  1.3098  0.2064
65359SOL    HW214070   6.047  11.661   2.463 -0.5877  0.2777  0.7935
65360SOL     OW14071  11.680   1.356  11.451 -0.7359 -0.1529 -0.6897
65360SOL    HW114072  11.594   1.325  11.422  0.4348 -3.6171 -0.9733
65360SOL    HW214073  11.712   1.287  11.510  2.1279  0.6063 -1.1743
65361SOL     OW14074   1.866   6.459   5.481  0.2978  0.2792 -0.7138
65361SOL    HW114075   1.864   6.366   5.503 -0.6461  0.1142 -1.4284
65361SOL    HW214076   1.886   6.461   5.387  0.8193  0.8261 -0.5987
65362SOL     OW14077  10.233   3.198   0.916 -0.3185  0.1728  0.5872
65362SOL    HW114078  10.311   3.161   0.875  0.7019  0.1611  2.4182
65362SOL    HW214079  10.171   3.208   0.844  1.5743  0.8007 -1.0753
65363SOL     OW14080   0.549   2.845   8.634 -0.1094 -0.0147 -0.3427
65363SOL    HW114081   0.551   2.933   8.598 -2.7059  0.1198 -0.3144
65363SOL    HW214082   0.466   2.840   8.681  0.1470 -2.3524 -0.0253
65364SOL     OW14083   4.230   4.399  11.829  0.1878 -0.1688  0.4765
65364SOL    HW114084   4.152   4.359  11.869 -0.1379 -0.4408 -0.3860
65364SOL    HW214085   4.195   4.466  11.770  0.6892  0.6922  1.1404
65365SOL     OW14086   7.886   4.667   8.447  0.5365 -0.1127 -0.5955
65365SOL    HW114087   7.940   4.644   8.372  1.6199 -0.9631  0.4204
65365SOL    HW214088   7.896   4.594   8.508 -0.7973  0.2793  0.1343
65366SOL     OW14089   0.780   6.247   5.084 -0.5979 -0.3908  0.1677
65366SOL    HW114090   0.829   6.327   5.102 -0.3890 -0.5443  0.3009
65366SOL    HW214091   0.688   6.273   5.086 -0.5052  0.0115 -0.6334
65367SOL     OW14092  11.677   2.080   4.876  0.2704 -0.0164 -0.1760
65367SOL    HW114093  11.743   2.140   4.841  0.7555 -0.8909 -0.8161
65367SOL    HW214094  11.697   2.075   4.969  2.3651 -1.6793 -0.6137
65368SOL     OW14095   4.566   4.552   4.965 -0.2722 -0.1035 -0.9106
65368SOL    HW114096   4.481   4.520   4.934 -1.1068  1.2202 -0.0776
65368SOL    HW214097   4.596   4.485   5.027 -0.6187 -0.6517 -1.3255
65369SOL     OW14098   0.557   9.411   2.498  0.3988  0.2436 -0.4668
65369SOL    HW114099   0.650   9.399   2.515  0.8612  2.6116 -1.0106
65369SOL    HW214100   0.520   9.323   2.505  2.5112 -0.6354  0.6097
65370SOL     OW14101   9.463   8.359   3.145  0.5283  0.8331 -0.1696
65370SOL    HW114102   9.529   8.293   3.169  1.2427  1.2632 -0.8800
65370SOL    HW214103   9.421   8.323   3.067 -0.8749  0.0515  0.8861
65371SOL     OW14104   4.859   9.008   0.634 -0.1694  0.2571  0.4097
65371SOL    HW114105   4.945   9.028   0.671  0.1472 -1.2069  0.5365
65371SOL    HW214106   4.864   9.037   0.543  0.6086 -0.2042  0.3001
65372SOL     OW14107  12.690   9.944  10.188 -0.0074  0.1749  0.6574
65372SOL    HW114108  12.676   9.995  10.267  0.5445 -0.4896  1.1889
65372SOL    HW214109  12.652   9.858  10.207  2.7771 -0.9877  1.3535
65373SOL     OW14110   9.524   4.698   9.841  0.0226  0.0939 -0.0977
65373SOL    HW114111   9.510   4.618   9.892  0.0992  0.0257 -0.1810
65373SOL    HW214112   9.438   4.740   9.839 -0.2082 -0.3859 -0.7174
65374SOL     OW14113   1.696  13.947  13.838 -0.6548  0.1946  0.4666
65374SOL    HW114114   1.724  13.990  13.757 -1.0759  0.0595  0.2477
65374SOL    HW214115   1.667  14.019  13.894  0.2261  0.3443  0.7374
65375SOL     OW14116  13.859   7.343   6.747  0.2936 -0.0246 -0.1461
65375SOL    HW114117  13.807   7.328   6.668  1.4441 -0.5902 -0.8192
65375SOL    HW214118  13.888   7.434   6.739 -0.5198  0.2750  0.2031
65376SOL     OW14119  12.335   3.094   2.886 -0.2181  1.1313 -0.4963
65376SOL    HW114120  12.307   3.040   2.812 -1.0009  0.4796  0.2482
65376SOL    HW214121  12.262   3.155   2.900 -0.2793  0.9469  0.0157
65377SOL     OW14122  10.066   1.737   3.322 -0.2104  0.1669 -0.5999
65377SOL    HW114123  10.104   1.809   3.272 -0.8492  0.8578 -0.1092
65377SOL    HW214124  10.021   1.684   3.256 -1.6239  1.4367 -0.7034
65378SOL     OW14125   8.693   3.247   9.675 -0.0292  0.2457  0.0740
65378SOL    HW114126   8.724   3.290   9.755  0.8269  0.9316 -0.6073
65378SOL    HW214127   8.749   3.169   9.667  0.1995  0.4242 -0.0928
65379SOL     OW14128   5.631   8.171  11.418 -0.0341  0.9002 -0.9609
65379SOL    HW114129   5.651   8.265  11.425  1.7063  0.7708 -3.0596
65379SOL    HW214130   5.603   8.160  11.327  2.3336 -0.9681 -1.5685
65380SOL     OW14131   4.566  13.251   0.553 -0.5442  0.2131 -0.0041
65380SOL    HW114132   4.531  13.287   0.471 -0.7581  0.7187  0.3047
65380SOL    HW214133   4.505  13.282   0.621 -1.0467 -1.1996  0.2087
65381SOL     OW14134  14.130  12.490   6.046 -0.1248 -0.3374  0.3000
65381SOL    HW114135  14.207  12.520   6.093 -0.3779 -0.0850  0.5493
65381SOL    HW214136  14.111  12.404   6.083  2.3273 -2.2385 -2.3473
65382SOL     OW14137   6.860   1.588  10.924  0.3960  0.1129 -0.3589
65382SOL    HW114138   6.878   1.682  10.932 -0.1081  0.3119 -1.4709
65382SOL    HW214139   6.765   1.581  10.922  0.4262 -0.4438 -0.1106
65383SOL     OW14140  11.883   0.991   2.911 -0.7970  0.7984  0.0247
65383SOL    HW114141  11.843   0.912   2.947 -1.1322  1.6302  1.5631
65383SOL    HW214142  11.967   0.997   2.956 -1.1946  1.8272  0.6598
65384SOL     OW14143   2.256  11.385  12.711  0.2614 -0.4504  0.5104
65384SOL    HW114144   2.234  11.322  12.643  1.1591  0.3778 -0.6009
65384SOL    HW214145   2.174  11.401  12.757 -0.4605 -0.7598 -0.6343
65385SOL     OW14146  11.035   2.356   2.116  0.8449 -0.4051 -0.6666
65385SOL    HW114147  11.032   2.395   2.028  0.9820 -2.8154 -1.8223
65385SOL    HW214148  10.975   2.282   2.112  0.5318 -0.3284  1.4459
65386SOL     OW14149   8.226  13.024   9.199  0.5649 -0.2925  0.8179
65386SOL    HW114150   8.141  13.054   9.229 -0.1517 -0.4076 -0.9736
65386SOL    HW214151   8.254  13.090   9.135  0.9271 -1.2269 -0.0157
65387SOL     OW14152   2.728   3.422   1.282 -0.0656 -0.3990  0.2125
65387SOL    HW114153   2.767   3.505   1.253  0.5810 -0.5906  0.5223
65387SOL    HW214154   2.655   3.407   1.222  0.2122  0.0706 -0.2427
65388SOL     OW14155  11.021   4.540  12.421  0.0720 -0.3594  0.1490
65388SOL    HW114156  11.054   4.591  12.347  1.0932 -1.3097 -0.0775
65388SOL    HW214157  11.036   4.449  12.395 -1.0907 -0.7629  0.8294
65389SOL     OW14158   6.934   6.689  12.134  0.6871 -0.0058 -0.0346
65389SOL    HW114159   7.002   6.735  12.084 -1.0267  1.5609 -1.0698
65389SOL    HW214160   6.978   6.611  12.168  2.8638  0.6939 -1.0304
65390SOL     OW14161   4.539  13.227   4.882  0.1668  0.7582  0.1049
65390SOL    HW114162   4.613  13.175   4.853  0.1482 -0.1440  1.5581
65390SOL    HW214163   4.480  13.164   4.924  0.6469  2.0152  2.9019
65391SOL     OW14164   8.787   2.865   7.652  0.0170  0.5428 -0.2078
65391SOL    HW114165   8.764   2.793   7.710 -0.1070  0.9490  0.2525
65391SOL    HW214166   8.730   2.854   7.576 -0.3053  0.4043  0.0544
65392SOL     OW14167   5.722  11.175   9.093  0.0376 -0.1764  0.1940
65392SOL    HW114168   5.761  11.190   9.180  0.5911 -0.6083  0.0242
65392SOL    HW214169   5.689  11.261   9.067  0.3869  0.0806  0.5804
65393SOL     OW14170   5.620   4.876   6.780 -0.3153  0.5538  0.1091
65393SOL    HW114171   5.660   4.911   6.701 -1.7648  1.4506 -0.2660
65393SOL    HW214172   5.543   4.828   6.749 -1.0237  1.1032  0.9787
65394SOL     OW14173  11.823   2.564   4.706 -0.2070 -0.0164 -0.0906
65394SOL    HW114174  11.913   2.535   4.689 -0.1451  0.1494 -0.0470
65394SOL    HW214175  11.811   2.639   4.648 -0.0102  0.5212  0.5582
65395SOL     OW14176  10.616   7.351  10.513  0.0923 -0.5546 -0.1543
65395SOL    HW114177  10.613   7.443  10.484  0.0634  0.1937  2.0854
65395SOL    HW214178  10.529   7.317  10.492 -0.1374  0.1357 -0.3692
65396SOL     OW14179  11.333   2.604   1.668  0.0077 -0.1575  0.3564
65396SOL    HW114180  11.242   2.584   1.691  0.3691 -0.6703  1.4252
65396SOL    HW214181  11.383   2.577   1.745  0.9622  1.0433  0.1947
65397SOL     OW14182   2.850  11.373  10.235  0.1317  0.1102  0.9184
65397SOL    HW114183   2.809  11.431  10.300 -0.9299 -0.5725  0.8694
65397SOL    HW214184   2.780  11.314  10.208 -0.0533  1.6004 -2.3372
65398SOL     OW14185   0.299   7.124  12.799 -0.3480  0.1989  0.5256
65398SOL    HW114186   0.387   7.091  12.781  0.0238 -0.0418  2.5658
65398SOL    HW214187   0.259   7.134  12.713  2.0860  1.4942 -0.5459
65399SOL     OW14188  12.289   5.130   9.673  0.1424  0.2496  0.0655
65399SOL    HW114189  12.270   5.190   9.745 -1.0678 -1.8096  1.5642
65399SOL    HW214190  12.357   5.072   9.707  0.0699 -0.3016 -0.7012
65400SOL     OW14191   2.932  12.214   2.492 -0.0420 -0.1776 -0.0323
65400SOL    HW114192   2.867  12.144   2.481 -0.9821  0.4173  1.4298
65400SOL    HW214193   2.918  12.272   2.417 -0.6540 -0.4669 -0.1500
65401SOL     OW14194   2.656  11.859   8.086 -0.3953 -0.0960 -0.2306
65401SOL    HW114195   2.567  11.827   8.096 -0.3285 -1.2875 -2.5880
65401SOL    HW214196   2.689  11.869   8.175 -1.9147 -2.4700  0.6843
65402SOL     OW14197  12.337   6.945   7.053 -0.7175 -0.1359 -0.1878
65402SOL    HW114198  12.426   6.938   7.019 -0.5495 -0.6056  0.3162
65402SOL    HW214199  12.307   7.031   7.025  0.0429  0.1938 -0.0228
65403SOL     OW14200   4.293   5.611   2.148 -0.2341 -0.3755 -0.0746
65403SOL    HW114201   4.271   5.697   2.114  1.2565  0.1124  0.1350
65403SOL    HW214202   4.361   5.627   2.214 -1.7215 -1.4616  1.8416
65404SOL     OW14203   0.206   2.528   0.530  0.5671 -0.0996  0.2437
65404SOL    HW114204   0.111   2.537   0.523  0.6828  0.8748 -0.2387
65404SOL    HW214205   0.222   2.436   0.509  0.0770  0.6097 -4.3531
65405SOL     OW14206   5.494   7.015  11.322  0.4977  0.0168 -0.1441
65405SOL    HW114207   5.552   6.951  11.363  0.2016  0.8952  1.7368
65405SOL    HW214208   5.550   7.093  11.310  0.2477  0.1760 -0.2790
65406SOL     OW14209   2.826  13.616   1.800 -0.8769 -0.6754  0.3646
65406SOL    HW114210   2.880  13.664   1.862 -1.2684  1.9561 -1.1789
65406SOL    HW214211   2.888  13.568   1.745 -0.1685  1.0001 -0.3463
65407SOL     OW14212   9.503   3.894   4.680 -0.4518 -0.7170  0.4602
65407SOL    HW114213   9.484   3.920   4.770 -0.3817 -0.5992  0.4419
65407SOL    HW214214   9.419   3.903   4.634 -0.4931 -0.8013  0.5188
65408SOL     OW14215  12.671   0.059   6.400  0.1420 -0.1357 -0.5459
65408SOL    HW114216  12.680   0.143   6.356 -0.5106  0.0305 -0.3671
65408SOL    HW214217  12.659  -0.004   6.329 -1.1287  0.1598 -0.6143
65409SOL     OW14218   6.399   0.517  10.345 -0.5040  1.0212 -0.2749
65409SOL    HW114219   6.436   0.485  10.427 -0.6981  1.0841 -0.1629
65409SOL    HW214220   6.400   0.440  10.287 -1.9058  0.5246  0.3125
65410SOL     OW14221   4.956   4.643   3.917 -0.3986 -0.1873 -0.0398
65410SOL    HW114222   4.963   4.717   3.978  0.5136  0.1953 -0.5938
65410SOL    HW214223   4.871   4.656   3.874 -1.0702 -0.4936  1.1711
65411SOL     OW14224   4.913   9.811  14.104 -0.3963  0.5215 -0.4215
65411SOL    HW114225   4.859   9.886  14.076  1.2750  1.6155 -0.8626
65411SOL    HW214226   4.883   9.738  14.049 -0.2066  1.5497 -1.9633
65412SOL     OW14227   0.091   4.803  13.290  0.3886 -0.0345  0.1133
65412SOL    HW114228   0.177   4.781  13.253 -0.1233  0.8301 -1.7222
65412SOL    HW214229   0.030   4.794  13.217 -0.7542  1.3669  0.8298
65413SOL     OW14230  11.658  13.623   7.199 -0.0961 -0.2905 -0.1695
65413SOL    HW114231  11.584  13.684   7.188 -0.0610 -0.2203 -0.0113
65413SOL    HW214232  11.659  13.604   7.293  0.9512  0.8004  0.0681
65414SOL     OW14233   3.459   9.382  13.666  0.4673  0.4765  0.0336
65414SOL    HW114234   3.506   9.326  13.605  1.0267  2.2346 -1.2242
65414SOL    HW214235   3.502   9.368  13.750  1.1062 -0.3665 -0.4299
65415SOL     OW14236  13.670  11.030  13.362  0.0478  0.4317  0.1445
65415SOL    HW114237  13.590  11.050  13.313 -0.6939  1.5816  1.7239
65415SOL    HW214238  13.673  11.097  13.431  1.7501 -0.3101  0.8433
65416SOL     OW14239  10.322   2.903   6.031  0.3716  0.5024  0.2026
65416SOL    HW114240  10.344   2.812   6.051 -0.5450  0.0546 -0.7248
65416SOL    HW214241  10.328   2.909   5.936 -0.0897  1.2777  0.2123
65417SOL     OW14242  10.041   5.598   5.320 -0.1755 -0.2389  0.1422
65417SOL    HW114243  10.053   5.654   5.397  1.4254 -0.9269  0.4345
65417SOL    HW214244  10.103   5.526   5.333 -0.3437 -0.7140 -1.4864
65418SOL     OW14245   3.798   1.381   3.560  0.3659  0.3197 -0.1661
65418SOL    HW114246   3.847   1.301   3.580  0.6845  0.8602  1.3550
65418SOL    HW214247   3.735   1.389   3.632 -0.0940  1.1088 -0.6445
65419SOL     OW14248  12.440   9.072  10.194  0.3354 -0.2318 -0.1047
65419SOL    HW114249  12.486   9.142  10.240 -0.4041 -0.0202  0.3261
65419SOL    HW214250  12.471   8.992  10.235 -0.6887 -0.0220  1.1245
65420SOL     OW14251   4.660  11.990  11.994 -0.2606 -0.2623 -0.2605
65420SOL    HW114252   4.635  12.076  12.029  1.4974 -0.0698  0.6331
65420SOL    HW214253   4.643  11.930  12.066  1.1064 -0.2226  0.1256
65421SOL     OW14254   9.826   3.714   3.039 -0.2908 -0.8704 -0.2293
65421SOL    HW114255   9.891   3.645   3.044 -0.0040 -0.5625  0.4721
65421SOL    HW214256   9.833   3.760   3.123 -2.3403 -1.6661  0.4482
65422SOL     OW14257  11.462   4.521   0.563  0.5695 -0.0267  0.3961
65422SOL    HW114258  11.394   4.585   0.583  1.4916  1.3494 -0.6368
65422SOL    HW214259  11.436   4.442   0.610 -0.3189  1.2651  2.1901
65423SOL     OW14260   4.724   2.215  13.037 -0.3426 -0.4274 -0.9298
65423SOL    HW114261   4.804   2.267  13.030  0.9813 -1.9972  1.2644
65423SOL    HW214262   4.690   2.235  13.124 -2.4794  0.2820 -1.8559
65424SOL     OW14263  11.931   4.752   7.326 -0.6113  0.9166  0.1805
65424SOL    HW114264  11.937   4.683   7.392 -0.9719 -0.0541 -0.7848
65424SOL    HW214265  11.968   4.829   7.369  0.8555 -0.1497  0.8894
65425SOL     OW14266   6.208  11.106   1.100 -0.1842  0.1068 -0.3287
65425SOL    HW114267   6.207  11.077   1.191 -0.6883 -1.2258 -0.7341
65425SOL    HW214268   6.226  11.200   1.105 -0.5004  0.1163  1.1606
65426SOL     OW14269  10.137   8.314   9.498  0.2892 -0.2254  0.0225
65426SOL    HW114270  10.194   8.341   9.570 -0.6307 -0.9346  1.0406
65426SOL    HW214271  10.066   8.265   9.540  0.5585 -2.0448 -1.5067
65427SOL     OW14272   6.028  13.146   9.197 -0.2646 -0.4372  0.1480
65427SOL    HW114273   6.001  13.093   9.272  0.6346 -1.1860 -0.0424
65427SOL    HW214274   6.064  13.083   9.134 -1.0903  0.1719 -0.9620
65428SOL     OW14275   3.647   6.720   4.395  0.1780  0.3207  0.0198
65428SOL    HW114276   3.729   6.715   4.347 -0.3124  1.7101 -1.0264
65428SOL    HW214277   3.674   6.732   4.486  1.1101 -1.4345  0.0303
65429SOL     OW14278   5.217   5.296   7.186  0.0330  0.4549 -0.0810
65429SOL    HW114279   5.260   5.226   7.137  2.8161  1.2345  1.0457
65429SOL    HW214280   5.276   5.371   7.177 -1.5444  1.8831  0.9266
65430SOL     OW14281   8.794   9.798  11.865 -0.0954  0.5027  0.3370
65430SOL    HW114282   8.788   9.837  11.953 -2.7832 -0.9945  0.9500
65430SOL    HW214283   8.718   9.832  11.819  0.7259  0.4638 -1.0743
65431SOL     OW14284   7.710   2.439   5.728  0.4148  0.1901  0.1198
65431SOL    HW114285   7.646   2.367   5.735  1.0841 -0.4736 -0.4203
65431SOL    HW214286   7.683   2.501   5.795 -0.9171  0.0156 -0.2207
65432SOL     OW14287   9.086   8.500   5.619 -0.0816 -0.1429  0.7588
65432SOL    HW114288   9.076   8.589   5.654 -0.9571 -0.9671  2.7348
65432SOL    HW214289   9.036   8.445   5.678  1.1728 -2.0935  0.1051
65433SOL     OW14290  13.648   1.279   1.996 -0.0430 -0.0078 -0.1131
65433SOL    HW114291  13.565   1.243   2.028 -0.6584  0.8544 -0.6925
65433SOL    HW214292  13.694   1.204   1.957  0.6286 -1.0530  2.4702
65434SOL     OW14293   3.092   5.856  10.209 -0.1586  0.6737 -0.0554
65434SOL    HW114294   3.089   5.825  10.118  0.0244 -0.0588  0.1806
65434SOL    HW214295   3.126   5.782  10.259 -0.8051  0.8741  0.7018
65435SOL     OW14296   7.329   1.483  10.158 -0.7199 -0.2822  0.3751
65435SOL    HW114297   7.387   1.408  10.169 -0.6308 -0.5536 -1.5731
65435SOL    HW214298   7.241   1.449  10.174 -0.7274 -0.9494 -0.9910
65436SOL     OW14299   8.217  12.646  11.018 -0.0850 -0.2970  0.0088
65436SOL    HW114300   8.152  12.600  10.964 -1.8668 -1.2843  2.8108
65436SOL    HW214301   8.175  12.729  11.041 -0.3528 -0.8712  1.7062
65437SOL     OW14302  10.804   4.719  12.249 -0.1027 -0.4008  0.9620
65437SOL    HW114303  10.785   4.783  12.180  0.5932  0.4984  1.5892
65437SOL    HW214304  10.800   4.634  12.205  0.2639  0.1582 -0.1713
65438SOL     OW14305  12.036  14.075   8.482  0.0295 -0.0802  0.2990
65438SOL    HW114306  12.016  14.162   8.448  0.5692 -0.1834 -0.2967
65438SOL    HW214307  11.951  14.030   8.484  0.1548 -0.5595 -2.3329
65439SOL     OW14308   3.638  13.174   0.407  0.3491 -0.5402 -0.0613
65439SOL    HW114309   3.656  13.200   0.316 -1.5784  0.0218 -0.3278
65439SOL    HW214310   3.605  13.254   0.448 -2.0215 -1.5619  0.1720
65440SOL     OW14311   9.227  12.956  13.836  0.0852  0.4775  0.0424
65440SOL    HW114312   9.277  12.920  13.762  0.1675  0.2184  0.2222
65440SOL    HW214313   9.209  13.046  13.811  2.3884  1.2395  0.8048
65441SOL     OW14314   4.387   3.290   3.463  0.1339  0.3550  0.0869
65441SOL    HW114315   4.335   3.339   3.526 -0.3533 -0.8524  0.6436
65441SOL    HW214316   4.418   3.214   3.511 -0.5654 -0.7963 -1.2264
65442SOL     OW14317   3.183  10.994   0.829 -0.2502 -0.0079 -0.1318
65442SOL    HW114318   3.233  11.045   0.892 -1.0498 -1.2415  1.5919
65442SOL    HW214319   3.134  10.932   0.882 -1.2264 -0.9000 -1.9694
65443SOL     OW14320   9.825  12.918  13.008 -0.1908 -0.1490 -0.3238
65443SOL    HW114321   9.871  12.986  12.958  2.1742 -0.4987  1.2043
65443SOL    HW214322   9.773  12.967  13.072 -1.8494  0.2449 -1.8765
65444SOL     OW14323  11.102  12.022   2.901  0.5828 -0.7525 -0.4047
65444SOL    HW114324  11.092  11.971   2.821 -1.0878  0.0072 -0.7207
65444SOL    HW214325  11.043  11.980   2.964  0.4951 -0.2523 -0.1450
65445SOL     OW14326   3.969   2.518   2.472  0.0201  0.7827 -0.3335
65445SOL    HW114327   3.987   2.595   2.419  1.6072 -0.3656 -1.5611
65445SOL    HW214328   3.875   2.502   2.461  0.2517  0.6764 -2.7548
65446SOL     OW14329   2.743   1.342   3.367  0.3408  0.4834  0.6787
65446SOL    HW114330   2.806   1.369   3.300 -0.8787 -0.4070 -0.8744
65446SOL    HW214331   2.797   1.299   3.434  1.4294  0.0832 -0.4174
65447SOL     OW14332   4.799  13.872   5.984 -0.3409  0.5280  0.1069
65447SOL    HW114333   4.831  13.942   6.041  2.1030  0.5585 -1.1751
65447SOL    HW214334   4.713  13.903   5.955 -0.5142  1.7001  1.6707
65448SOL     OW14335   5.254   4.467   5.280 -0.0192 -0.2549  0.0228
65448SOL    HW114336   5.184   4.522   5.245  0.4995 -0.5053 -1.4728
65448SOL    HW214337   5.238   4.465   5.375 -0.7892  1.4083 -0.0385
65449SOL     OW14338   9.466   2.304  10.027  0.7234  0.0591  0.5067
65449SOL    HW114339   9.412   2.375  10.061  1.4110 -0.0228  1.8298
65449SOL    HW214340   9.419   2.272   9.951  1.9007  4.0082 -2.1867
65450SOL     OW14341  10.930   9.931   0.401  0.1550  0.0398 -0.1607
65450SOL    HW114342  10.912  10.011   0.451 -0.0202 -0.4208  0.5251
65450SOL    HW214343  11.004   9.891   0.446  0.1606 -0.2524 -0.4269
65451SOL     OW14344   9.743  13.442   9.591 -0.3088  0.1794 -0.2603
65451SOL    HW114345   9.649  13.441   9.608 -0.2521 -0.9065  0.0454
65451SOL    HW214346   9.783  13.460   9.676 -0.2407  0.6626 -0.3936
65452SOL     OW14347   9.662   8.963   3.413  0.3427 -0.0401  0.1003
65452SOL    HW114348   9.699   8.910   3.483  0.1349 -0.4613 -0.1072
65452SOL    HW214349   9.623   9.038   3.458  0.9187  0.1049  0.3665
65453SOL     OW14350  12.235   1.802   2.005  0.4887 -0.4560  0.0242
65453SOL    HW114351  12.183   1.724   2.027  0.3062 -0.8475 -1.7080
65453SOL    HW214352  12.181   1.876   2.032  0.5511 -0.8969  1.4492
65454SOL     OW14353  10.804  10.749  13.846  0.4783  0.3348 -0.2437
65454SOL    HW114354  10.734  10.738  13.782  0.3995  0.1904 -0.1335
65454SOL    HW214355  10.815  10.662  13.885  0.2084  0.5196  0.2613
65455SOL     OW14356  11.771   0.289   4.988  0.2815  0.0355 -0.3159
65455SOL    HW114357  11.844   0.245   5.032  1.6934  2.5725  0.0843
65455SOL    HW214358  11.709   0.308   5.058  1.6199  2.3057  0.3466
65456SOL     OW14359   2.185   8.420   4.474 -0.0007  0.0546  0.1678
65456SOL    HW114360   2.141   8.464   4.401  0.8361  0.0396 -0.3569
65456SOL    HW214361   2.141   8.335   4.481 -1.9855  1.1087  1.5205
65457SOL     OW14362  11.631   4.874  13.762 -0.2743  0.1052  0.4397
65457SOL    HW114363  11.570   4.801  13.773  1.5185 -1.4010  0.9314
65457SOL    HW214364  11.649   4.904  13.852  1.9239 -1.4498  0.5921
65458SOL     OW14365   5.943  11.786  12.902 -0.8880  0.0589 -0.1914
65458SOL    HW114366   5.868  11.757  12.955 -0.8011  1.5218  0.7938
65458SOL    HW214367   6.014  11.729  12.928 -0.9116  0.6040  1.1467
65459SOL     OW14368   7.371  14.058   7.719  0.6537  0.3216 -0.2724
65459SOL    HW114369   7.308  14.075   7.648  1.6158  2.8996 -0.6257
65459SOL    HW214370   7.368  13.963   7.731 -1.6066  0.1025 -1.8248
65460SOL     OW14371   9.136   7.624   1.334  0.0889 -0.0723  0.1783
65460SOL    HW114372   9.117   7.638   1.241 -1.2410  1.0925  0.5966
65460SOL    HW214373   9.229   7.646   1.342  0.1998 -0.0997 -0.8573
65461SOL     OW14374   1.516  13.104   5.854 -0.1176 -0.1770 -0.3365
65461SOL    HW114375   1.447  13.155   5.895  0.9463  1.2796 -0.2706
65461SOL    HW214376   1.592  13.115   5.912  0.4995 -0.7748 -1.0067
65462SOL     OW14377   7.594  13.574   7.937  0.6007  0.3335  0.3638
65462SOL    HW114378   7.633  13.625   7.865  0.5688  0.4426  0.4238
65462SOL    HW214379   7.564  13.493   7.895  0.8518  0.2684  0.3085
65463SOL     OW14380   5.597   4.377  11.756 -0.0899 -0.2529  0.6267
65463SOL    HW114381   5.551   4.363  11.839 -0.3900 -2.5331  0.1182
65463SOL    HW214382   5.528   4.376  11.690  0.2665  0.4992  0.2298
65464SOL     OW14383   0.746   7.343  10.126  0.1884  0.1324 -0.1460
65464SOL    HW114384   0.836   7.310  10.136 -0.1922 -0.8337  0.1699
65464SOL    HW214385   0.732   7.398  10.203 -0.3427 -1.7532  1.1683
65465SOL     OW14386   0.137   0.219   6.702  0.1162  0.2905  0.1374
65465SOL    HW114387   0.172   0.269   6.628 -1.6959 -0.2554 -1.1490
65465SOL    HW214388   0.192   0.141   6.706  0.9368  0.8561  0.0995
65466SOL     OW14389   2.934   9.127   7.625 -0.2037  0.1297  0.0555
65466SOL    HW114390   2.982   9.209   7.642 -0.2733 -0.0199  1.0371
65466SOL    HW214391   2.967   9.098   7.540 -1.2041  1.9038 -1.0108
65467SOL     OW14392   3.985   5.315   7.374 -0.1062  0.5479  0.2583
65467SOL    HW114393   3.990   5.406   7.406  0.6350  0.1676  1.2747
65467SOL    HW214394   4.013   5.320   7.283 -0.9988  1.4683  0.0081
65468SOL     OW14395   8.732  12.817   9.143 -0.3271 -0.1484 -0.2557
65468SOL    HW114396   8.772  12.735   9.171  1.2802  0.9412  0.7996
65468SOL    HW214397   8.686  12.849   9.220 -1.2076 -0.1749 -0.7533
65469SOL     OW14398  13.592   5.031   4.199 -0.4655 -0.2655 -0.2417
65469SOL    HW114399  13.553   5.005   4.116 -2.3443 -1.6349  1.0026
65469SOL    HW214400  13.520   5.065   4.251  0.8616  1.6277  0.4982
65470SOL     OW14401   5.876  12.283   3.274 -0.0774 -0.3071 -0.4786
65470SOL    HW114402   5.865  12.319   3.186 -0.0689  0.8074 -0.0303
65470SOL    HW214403   5.930  12.347   3.320 -0.4404 -0.6683  0.4675
65471SOL     OW14404  10.360   9.141   5.921 -0.2170  0.7756 -0.0765
65471SOL    HW114405  10.303   9.091   5.863  1.3325 -0.6278 -0.4915
65471SOL    HW214406  10.373   9.084   5.997  0.0057  1.4122  0.3734
65472SOL     OW14407   9.360   3.831   6.253 -0.3032 -0.3879  0.0832
65472SOL    HW114408   9.435   3.870   6.299 -0.9779 -0.4355  1.2707
65472SOL    HW214409   9.343   3.749   6.300 -2.2723  0.5256  1.0986
65473SOL     OW14410  13.633  14.118   7.230  0.1656  0.1283  0.3489
65473SOL    HW114411  13.569  14.158   7.289  0.3957  0.7603  0.1728
65473SOL    HW214412  13.697  14.186   7.213 -0.4940  0.3634 -1.5305
65474SOL     OW14413   7.535   5.645  11.144  0.5800 -0.8456  0.1200
65474SOL    HW114414   7.450   5.603  11.148  0.7633 -1.4514 -1.6472
65474SOL    HW214415   7.592   5.589  11.197 -0.2416 -0.0181  1.9498
65475SOL     OW14416   2.629   3.764   2.427 -0.3331 -0.2974 -0.3913
65475SOL    HW114417   2.574   3.826   2.379  0.3886  0.7120  0.0418
65475SOL    HW214418   2.685   3.725   2.360 -1.0477 -0.7950 -0.7231
65476SOL     OW14419   2.304  11.812  11.782  0.1035 -0.1166 -0.7262
65476SOL    HW114420   2.344  11.898  11.767 -0.9321  0.3436 -0.9638
65476SOL    HW214421   2.378  11.752  11.788  0.8944  0.8998  0.2134
65477SOL     OW14422  11.090  14.024   8.522 -0.0851  0.3148  0.1220
65477SOL    HW114423  11.169  13.983   8.487  1.4009 -0.7327  4.1267
65477SOL    HW214424  11.121  14.079   8.594 -2.9407 -0.3768  2.0805
65478SOL     OW14425  12.121   3.397  12.725 -0.1097 -0.7649 -0.2378
65478SOL    HW114426  12.030   3.399  12.754  0.4473  1.0730  1.6574
65478SOL    HW214427  12.122   3.449  12.645 -0.4702  1.0534  0.8587
65479SOL     OW14428   8.373   8.684   3.838  0.6353  0.1709  0.3202
65479SOL    HW114429   8.371   8.759   3.898  0.4205  0.8509 -0.5145
65479SOL    HW214430   8.289   8.640   3.852  0.2732  0.7477  0.0091
65480SOL     OW14431   1.445  12.632  10.974 -0.3644 -0.0237  0.2637
65480SOL    HW114432   1.396  12.551  10.989  0.8945 -0.5483  1.9700
65480SOL    HW214433   1.424  12.686  11.050  0.5612  0.3054  0.2973
65481SOL     OW14434   1.898   1.130  11.633  0.5918  0.1372 -0.1196
65481SOL    HW114435   1.973   1.084  11.596  1.4281  1.2204  0.1761
65481SOL    HW214436   1.849   1.063  11.680  0.6124 -0.8570 -1.4671
65482SOL     OW14437   9.241  10.047  12.813  0.4513 -0.2898  0.0235
65482SOL    HW114438   9.301  10.042  12.739  1.0972 -1.2746  0.5840
65482SOL    HW214439   9.169  10.102  12.783  0.1070 -1.6383 -1.7537
65483SOL     OW14440   7.885   1.028   9.567  0.0899  0.0009  0.0594
65483SOL    HW114441   7.855   1.115   9.595 -1.0671 -0.3093 -0.1448
65483SOL    HW214442   7.845   1.016   9.481  0.8880 -0.4146 -0.2592
65484SOL     OW14443   8.030   1.478   8.025 -0.6527 -0.6289  0.4600
65484SOL    HW114444   8.092   1.406   8.018 -0.1412 -0.3575  1.9519
65484SOL    HW214445   8.061   1.543   7.961 -0.2856 -1.1246  0.1361
65485SOL     OW14446   6.084   7.267   4.308  0.2658 -0.1356  0.0588
65485SOL    HW114447   6.021   7.336   4.285  1.4845  0.6514 -1.0428
65485SOL    HW214448   6.158   7.313   4.347  0.3691 -1.0046  0.9291
65486SOL     OW14449   7.669   1.379   3.797  0.3852  0.4935 -0.5976
65486SOL    HW114450   7.711   1.420   3.721  0.2813 -0.1613 -1.0181
65486SOL    HW214451   7.707   1.424   3.873  1.8231 -0.0412 -0.9637
65487SOL     OW14452   8.416   6.208  10.169 -0.6156 -0.1641 -0.0263
65487SOL    HW114453   8.393   6.258  10.090 -0.6879  0.6448  0.4990
65487SOL    HW214454   8.332   6.194  10.213 -0.6704 -1.2182 -0.4221
65488SOL     OW14455   3.996   9.297  10.379 -0.3086  0.7087  0.4843
65488SOL    HW114456   3.920   9.341  10.418 -0.9278  1.0563 -1.0371
65488SOL    HW214457   4.071   9.328  10.430 -1.1594  0.3838  2.0024
65489SOL     OW14458  10.570  11.662   4.734 -0.4140  0.1004 -0.2134
65489SOL    HW114459  10.659  11.644   4.704 -0.2352  0.5910  0.0111
65489SOL    HW214460  10.550  11.748   4.697 -0.6040  0.2161  0.1575
65490SOL     OW14461   6.599   4.198  11.672  0.4401 -0.0548 -0.3012
65490SOL    HW114462   6.628   4.124  11.726  1.0825  0.4552  0.0770
65490SOL    HW214463   6.619   4.275  11.726 -0.1305  0.3966 -0.7322
65491SOL     OW14464   8.032   1.812   8.505 -0.3576  0.5180  0.0344
65491SOL    HW114465   8.126   1.826   8.501  0.0712 -1.9438 -0.5528
65491SOL    HW214466   8.007   1.845   8.591  1.2521  0.2514  0.6494
65492SOL     OW14467   4.976  11.845   9.300  0.0465 -0.2438 -0.1462
65492SOL    HW114468   4.902  11.785   9.292  0.5150 -0.7675 -0.7179
65492SOL    HW214469   4.985  11.883   9.212  1.2615 -1.1893 -0.4627
65493SOL     OW14470   5.990   9.271   1.050 -0.1104  0.2987 -0.0586
65493SOL    HW114471   6.020   9.180   1.053 -1.1534 -0.1465 -1.5828
65493SOL    HW214472   5.989   9.299   1.141 -0.5413 -1.4962  0.5367
65494SOL     OW14473  12.586  11.068   5.065 -0.1113  0.7380 -0.1136
65494SOL    HW114474  12.508  11.043   5.015  1.0098 -1.7129 -0.7803
65494SOL    HW214475  12.658  11.063   5.002  1.1939 -1.3951  1.4083
65495SOL     OW14476  11.973   0.511  11.686  0.0853 -1.0230 -0.6556
65495SOL    HW114477  11.883   0.501  11.655  0.1922 -1.8587 -0.7002
65495SOL    HW214478  11.990   0.433  11.738 -0.2310  0.5217  1.9508
65496SOL     OW14479   8.465   4.168   1.172 -0.0171  0.4214 -0.0074
65496SOL    HW114480   8.522   4.096   1.145 -0.2117  0.2467  0.0436
65496SOL    HW214481   8.440   4.146   1.262 -2.2795 -0.8978 -0.8659
65497SOL     OW14482   9.212  12.361   3.559  0.0236 -0.3939 -0.1719
65497SOL    HW114483   9.176  12.276   3.582 -0.1623 -0.6205 -1.2415
65497SOL    HW214484   9.156  12.424   3.603 -0.0750 -0.8057  0.3049
65498SOL     OW14485   7.606   0.488  10.101 -0.4323  0.1207  0.8564
65498SOL    HW114486   7.584   0.552  10.032  0.5666  0.7531  1.1091
65498SOL    HW214487   7.689   0.450  10.073 -1.1763 -1.3683  0.5271
65499SOL     OW14488   2.742   3.137  11.879 -0.7690 -0.8149  0.2496
65499SOL    HW114489   2.782   3.124  11.793  0.5563  0.4455  0.6283
65499SOL    HW214490   2.650   3.118  11.866 -0.7251  0.0464 -1.6411
65500SOL     OW14491   9.790   1.479  12.770  0.2953 -0.5328  0.0568
65500SOL    HW114492   9.821   1.397  12.732 -0.1799 -1.0450  0.7571
65500SOL    HW214493   9.704   1.458  12.806 -1.1153  0.9159 -2.1437
65501SOL     OW14494  13.084   4.044   8.596  0.5338 -0.5742 -0.9149
65501SOL    HW114495  13.017   4.000   8.649 -0.7035  0.8338 -1.2329
65501SOL    HW214496  13.120   4.111   8.654  0.2156  0.0090 -1.3807
65502SOL     OW14497   0.821   2.315   3.987  0.1410 -0.1715 -0.4206
65502SOL    HW114498   0.734   2.280   4.007 -0.0079  0.0107 -0.7564
65502SOL    HW214499   0.817   2.338   3.894  0.6324 -0.4144 -0.5023
65503SOL     OW14500  10.854   8.131  13.461 -0.8365  0.1744  0.3764
65503SOL    HW114501  10.792   8.065  13.493 -1.8524  1.0501  0.2803
65503SOL    HW214502  10.927   8.080  13.426 -0.9989 -0.8687  1.4568
65504SOL     OW14503   7.133   5.912  12.426 -0.1776 -0.3629 -0.4689
65504SOL    HW114504   7.147   5.966  12.349 -0.4260  0.2821 -0.0700
65504SOL    HW214505   7.135   5.973  12.499  2.3784 -1.2454  0.2794
65505SOL     OW14506  11.013   3.462  12.668 -0.1580  0.4495 -0.0066
65505SOL    HW114507  11.058   3.499  12.593  1.1975  0.7638  0.9399
65505SOL    HW214508  10.938   3.416  12.630  1.3435 -0.7252 -1.7005
65506SOL     OW14509   0.301  13.712   9.393 -0.6950  0.0313  0.4716
65506SOL    HW114510   0.326  13.624   9.423  2.6118  0.4843 -0.5169
65506SOL    HW214511   0.241  13.695   9.320 -0.4311 -1.3907  0.5437
65507SOL     OW14512  12.335   7.232  11.815  0.0204 -0.1012  0.3635
65507SOL    HW114513  12.311   7.241  11.907 -0.3940 -0.7532  0.3273
65507SOL    HW214514  12.416   7.181  11.816 -0.1624 -0.3950  0.3554
65508SOL     OW14515   1.980   7.873   9.421 -0.5247  0.0537 -0.4308
65508SOL    HW114516   1.990   7.792   9.471  0.6874 -1.7110 -3.2473
65508SOL    HW214517   1.886   7.882   9.407 -0.6564 -1.1477 -0.4180
65509SOL     OW14518   4.598   7.677   7.957 -0.5836  0.5170  0.4570
65509SOL    HW114519   4.559   7.590   7.959 -3.3312  1.6650  1.5735
65509SOL    HW214520   4.691   7.662   7.974 -0.8954 -2.1921  0.1716
65510SOL     OW14521  13.740  10.941  13.630 -0.0894 -0.1023  0.4283
65510SOL    HW114522  13.778  11.015  13.583  0.1612  0.1223  0.9724
65510SOL    HW214523  13.754  10.866  13.572  0.9250  0.0327  0.4712
65511SOL     OW14524   2.392   3.896  11.012 -0.3230 -0.4581  0.0332
65511SOL    HW114525   2.475   3.878  11.056  0.1582  0.7405 -0.3436
65511SOL    HW214526   2.403   3.984  10.976 -2.5039  0.6208  1.7712
65512SOL     OW14527  13.592   2.582   7.046  0.1953  0.2767 -0.3501
65512SOL    HW114528  13.512   2.618   7.009 -0.1548  0.0034  0.1318
65512SOL    HW214529  13.623   2.519   6.982 -0.4240 -0.2195 -0.1633
65513SOL     OW14530   2.987  13.200  10.327 -0.1656  0.3812 -0.0367
65513SOL    HW114531   2.976  13.131  10.392 -0.4433  0.0726 -0.4020
65513SOL    HW214532   2.898  13.218  10.295  0.1646 -1.1516 -2.0305
65514SOL     OW14533   8.390   5.081   8.497 -0.3991  0.1285 -0.0806
65514SOL    HW114534   8.300   5.051   8.505 -0.8650  1.7593  1.3255
65514SOL    HW214535   8.385   5.176   8.500  1.4102  0.2481  0.6220
65515SOL     OW14536   7.199  11.856   6.318  0.1965  0.1737 -0.6492
65515SOL    HW114537   7.131  11.904   6.365  0.5844  1.4336 -1.3249
65515SOL    HW214538   7.151  11.795   6.262 -0.3485  0.4289 -0.4636
65516SOL     OW14539   5.317  10.719   0.392 -0.3643  0.3468 -0.3603
65516SOL    HW114540   5.243  10.753   0.442  0.3799  1.3355  0.1297
65516SOL    HW214541   5.305  10.624   0.391  0.0130  0.1953  2.4417
65517SOL     OW14542  11.839   7.512   4.533 -0.2244 -0.2169  0.3668
65517SOL    HW114543  11.916   7.458   4.519 -1.0686 -1.1828 -0.7646
65517SOL    HW214544  11.779   7.456   4.583 -0.5487  0.1806  0.4305
65518SOL     OW14545   7.779   9.661   9.047  0.2159 -0.3493 -0.4585
65518SOL    HW114546   7.818   9.742   9.080  0.0406 -0.3259 -0.3020
65518SOL    HW214547   7.727   9.629   9.121  0.1765 -0.5327 -0.5669
65519SOL     OW14548  11.801   0.415   8.475 -0.3461 -0.4564 -0.6589
65519SOL    HW114549  11.810   0.431   8.381 -2.0895 -2.4184 -1.2556
65519SOL    HW214550  11.890   0.397   8.506  0.5730  2.3912 -1.4142
65520SOL     OW14551   4.245  12.223   3.382 -0.9233  0.6850  0.5302
65520SOL    HW114552   4.338  12.221   3.361 -0.3774  1.4076  2.6393
65520SOL    HW214553   4.222  12.316   3.383 -1.1957  0.6160  1.8563
65521SOL     OW14554   7.319  12.409   9.182  0.2004 -0.0649  0.3397
65521SOL    HW114555   7.281  12.378   9.264 -0.6034  1.8702  0.7583
65521SOL    HW214556   7.287  12.499   9.174  0.2700 -0.1932 -2.0908
65522SOL     OW14557   8.815   3.425  11.599  0.1362 -0.2296 -0.6516
65522SOL    HW114558   8.743   3.397  11.656  0.4550 -0.4010 -0.3323
65522SOL    HW214559   8.780   3.414  11.510 -0.3703  0.0562 -0.4976
65523SOL     OW14560   4.752  13.051   0.452 -0.0465 -0.3562 -0.2640
65523SOL    HW114561   4.716  13.124   0.503 -1.4405 -0.1428 -1.4998
65523SOL    HW214562   4.845  13.050   0.476 -0.1596  1.2934  0.4166
65524SOL     OW14563   6.503   7.775  12.370 -0.1766  0.4240 -0.0472
65524SOL    HW114564   6.555   7.696  12.361 -0.1111  0.4994 -0.3227
65524SOL    HW214565   6.488   7.783  12.464 -1.4675 -0.7570 -0.1047
65525SOL     OW14566   2.897   1.191  12.903 -0.0222  0.3357  0.1188
65525SOL    HW114567   2.922   1.279  12.873 -0.7173  0.5240  0.0831
65525SOL    HW214568   2.910   1.194  12.997 -0.2087  0.5363  0.1401
65526SOL     OW14569   8.639  10.811   8.088 -0.2658  0.2080  1.2308
65526SOL    HW114570   8.606  10.740   8.143  2.9915 -1.8904  0.7507
65526SOL    HW214571   8.659  10.770   8.004 -0.0234  2.1430  0.2851
65527SOL     OW14572   3.130   1.142   3.766 -0.0862 -0.2048 -0.1979
65527SOL    HW114573   3.133   1.133   3.671 -0.7095  1.5054 -0.4249
65527SOL    HW214574   3.077   1.068   3.796  0.8874 -1.2772 -1.0648
65528SOL     OW14575   3.628   6.989  10.589 -0.2868  0.1099 -0.2977
65528SOL    HW114576   3.710   7.037  10.589  0.4163 -1.0215  1.0220
65528SOL    HW214577   3.635   6.929  10.663 -0.6341 -2.8137 -2.4383
65529SOL     OW14578   6.910   5.665   6.575 -0.2861  0.0968 -0.5892
65529SOL    HW114579   6.855   5.673   6.652  2.5605 -0.6401  1.6829
65529SOL    HW214580   6.981   5.729   6.589  0.2253  0.0963 -2.7232
65530SOL     OW14581   6.601   4.108  12.908  0.5119 -0.0789 -0.5502
65530SOL    HW114582   6.547   4.055  12.967  1.4180  2.3812  2.7769
65530SOL    HW214583   6.549   4.186  12.891  1.6933  0.8893  0.0867
65531SOL     OW14584   5.012   1.920  11.257  0.4497  0.0362  0.1610
65531SOL    HW114585   4.924   1.946  11.286  0.3668  1.8041 -1.5564
65531SOL    HW214586   4.996   1.848  11.195  0.2944 -0.2362  0.5094
65532SOL     OW14587  12.232   9.765   8.276  0.2649  0.2678 -0.5797
65532SOL    HW114588  12.255   9.820   8.351  1.0461 -1.0081  0.1495
65532SOL    HW214589  12.148   9.801   8.246 -1.2868 -0.5728  2.3400
65533SOL     OW14590  13.405   2.880  11.067  0.3241  0.4724 -0.4951
65533SOL    HW114591  13.454   2.922  10.996  0.0447  0.9461 -0.4093
65533SOL    HW214592  13.472   2.859  11.133  0.6974 -0.6160 -1.1883
65534SOL     OW14593   3.330  12.434   9.123 -0.0426  0.1867 -0.5793
65534SOL    HW114594   3.398  12.498   9.106 -0.3747  0.6156 -0.3201
65534SOL    HW214595   3.264  12.482   9.174 -0.6433 -0.1524 -1.0199
65535SOL     OW14596  11.156  13.693  14.157  0.1971  0.1081 -0.1182
65535SOL    HW114597  11.159  13.631  14.084  0.9109 -0.6062  0.4958
65535SOL    HW214598  11.207  13.651  14.226  0.0736  1.0597  0.5718
65536SOL     OW14599   2.959   2.734  13.988 -0.3811  0.0822 -0.4676
65536SOL    HW114600   2.964   2.688  13.905  0.4940  0.6701 -0.7584
65536SOL    HW214601   3.048   2.730  14.023 -0.3278  1.3319 -0.4020
65537SOL     OW14602   1.520   1.793   0.698  0.5085  0.1226  0.2491
65537SOL    HW114603   1.456   1.731   0.663  2.2529 -0.8049 -1.5350
65537SOL    HW214604   1.479   1.878   0.689 -1.1207 -0.5752  0.7692
65538SOL     OW14605   0.384  12.166  13.068  0.1149 -0.1744  0.0325
65538SOL    HW114606   0.302  12.119  13.052  0.6619 -0.9132 -0.7406
65538SOL    HW214607   0.451  12.111  13.027  0.9598  0.5694  0.3796
65539SOL     OW14608   5.200  10.949  13.059 -0.0188 -0.0966 -0.2669
65539SOL    HW114609   5.163  10.863  13.077 -0.4670 -0.1775 -1.4952
65539SOL    HW214610   5.278  10.953  13.114 -0.9152 -0.5952  1.0854
65540SOL     OW14611   5.570   8.213   5.094 -0.2422 -0.0909  0.2818
65540SOL    HW114612   5.659   8.180   5.103 -0.1622 -0.4230 -1.2896
65540SOL    HW214613   5.579   8.309   5.096  0.4428 -0.0668 -1.7181
65541SOL     OW14614   1.384   7.280   0.818  0.4229  0.2598 -0.4671
65541SOL    HW114615   1.433   7.327   0.751 -0.0047  1.3386 -0.0491
65541SOL    HW214616   1.410   7.322   0.900  1.1273 -1.1973  0.0968
65542SOL     OW14617   4.085   1.208   5.277 -0.3673  0.3603  0.0802
65542SOL    HW114618   4.138   1.190   5.199 -0.3133 -1.9808  0.5669
65542SOL    HW214619   4.124   1.287   5.315  3.1076 -1.4050  0.6317
65543SOL     OW14620   8.995   8.401  12.226 -0.1567 -0.0448  0.0566
65543SOL    HW114621   8.972   8.471  12.165  0.4046 -0.2765 -0.4301
65543SOL    HW214622   9.001   8.444  12.311  1.5923  0.8143 -0.4483
65544SOL     OW14623   6.358  13.374   4.025 -0.5115 -0.2069 -0.8114
65544SOL    HW114624   6.334  13.315   4.096  1.0672 -0.3026 -0.3051
65544SOL    HW214625   6.448  13.348   4.002 -1.3198 -0.8607 -3.5518
65545SOL     OW14626  10.519   8.574   4.032  0.5200  0.2476  0.1111
65545SOL    HW114627  10.558   8.545   4.115  0.7110  0.4173  0.0786
65545SOL    HW214628  10.535   8.668   4.030  0.2195  0.2971  0.0396
65546SOL     OW14629   1.171  13.352  13.497  0.0329  0.1493 -0.2950
65546SOL    HW114630   1.227  13.374  13.572 -0.2004  1.7793 -0.5536
65546SOL    HW214631   1.228  13.305  13.437  0.9156  1.0429 -0.1781
65547SOL     OW14632   2.123   9.758   8.023  0.0420 -0.4196 -0.0954
65547SOL    HW114633   2.175   9.736   7.946  0.5966 -0.4272  0.2789
65547SOL    HW214634   2.178   9.819   8.073  0.3110 -1.5378  1.0310
65548SOL     OW14635   9.083   9.517  13.230 -0.1417  0.3344 -0.9172
65548SOL    HW114636   9.104   9.610  13.239  0.1377  0.4700 -2.6004
65548SOL    HW214637   9.165   9.476  13.204 -0.0887 -0.5319  0.5127
65549SOL     OW14638   1.108   1.630  11.408 -0.2945 -0.0983 -0.2540
65549SOL    HW114639   1.112   1.623  11.503  3.1772  0.2552 -0.2542
65549SOL    HW214640   1.127   1.722  11.389 -0.0275 -0.3514 -1.3025
65550SOL     OW14641  10.482  10.675  11.969 -0.0727  0.0930 -0.4334
65550SOL    HW114642  10.496  10.728  11.891 -1.6381  1.3226  0.0773
65550SOL    HW214643  10.403  10.711  12.010  0.4333 -0.8029  1.4828
65551SOL     OW14644  11.733  13.669   9.320  0.5420  0.5040 -0.6819
65551SOL    HW114645  11.707  13.631   9.236 -0.6155 -1.3964  0.4587
65551SOL    HW214646  11.829  13.673   9.316  0.4857  1.1930 -2.3472
65552SOL     OW14647   0.760   9.566  10.974 -0.5280 -0.1066  0.3304
65552SOL    HW114648   0.797   9.616  11.046  2.2138 -0.5032 -0.6720
65552SOL    HW214649   0.811   9.484  10.973 -0.8565 -0.3420 -1.6868
65553SOL     OW14650   0.692   2.541   1.901  0.1171  0.1064  0.0613
65553SOL    HW114651   0.688   2.456   1.946  0.9601  0.3930  0.7093
65553SOL    HW214652   0.693   2.605   1.972  2.8691  0.5299 -0.2486
65554SOL     OW14653  13.153  13.946   7.338  0.0843  0.0343 -0.1311
65554SOL    HW114654  13.069  13.991   7.349  0.3403  0.8637 -1.3340
65554SOL    HW214655  13.187  13.979   7.254  0.8250 -1.5764 -0.4995
65555SOL     OW14656   0.970  13.025   3.674  0.1350 -0.4327 -0.3153
65555SOL    HW114657   0.995  13.002   3.763  1.2020 -0.2009 -0.5424
65555SOL    HW214658   1.034  12.980   3.618 -0.4011 -0.4213 -0.9572
65556SOL     OW14659   6.834  11.635   8.654  0.5015 -0.5648  0.8075
65556SOL    HW114660   6.839  11.662   8.563  2.8618  2.1263  1.5887
65556SOL    HW214661   6.880  11.551   8.657 -0.1810 -1.0124 -0.5479
65557SOL     OW14662   9.343  13.663   4.880 -0.3926  0.3640  0.0588
65557SOL    HW114663   9.393  13.705   4.810 -0.7796 -0.8764 -1.0092
65557SOL    HW214664   9.262  13.633   4.837 -0.0140 -1.6931  0.6680
65558SOL     OW14665  10.070   4.898   6.633  0.3438 -0.0111 -0.3112
65558SOL    HW114666  10.120   4.941   6.703  1.9148  0.3592 -1.6101
65558SOL    HW214667  10.032   4.969   6.583  0.1806 -0.2457 -0.5218
65559SOL     OW14668   8.325  11.667  10.470  0.0494 -0.0936 -0.4504
65559SOL    HW114669   8.262  11.600  10.442 -0.7080  1.0251 -1.5640
65559SOL    HW214670   8.381  11.680  10.393  1.7270 -1.1011  0.5420
65560SOL     OW14671  11.616  14.114   1.475 -0.4784 -0.2699 -0.3823
65560SOL    HW114672  11.594  14.141   1.386 -1.2826 -1.4408 -0.5636
65560SOL    HW214673  11.590  14.187   1.530 -1.5445 -0.2041 -0.9589
65561SOL     OW14674  10.751   3.708   6.083  0.0576  0.4871  0.1185
65561SOL    HW114675  10.800   3.736   6.006  0.7472  2.5938  1.2518
65561SOL    HW214676  10.780   3.618   6.097  1.5649  0.7749 -0.8343
65562SOL     OW14677  10.364   2.639   5.686  0.4686 -0.1140 -0.4218
65562SOL    HW114678  10.341   2.732   5.675 -0.2036 -0.2684 -0.3342
65562SOL    HW214679  10.435   2.625   5.623  1.6076  0.8230  0.5849
65563SOL     OW14680  10.885  13.782   5.845 -0.0776 -0.7617  0.5312
65563SOL    HW114681  10.810  13.725   5.829 -1.0365 -0.0951  2.4244
65563SOL    HW214682  10.855  13.868   5.816 -0.1368 -0.4556  1.4724
65564SOL     OW14683   8.932   0.557  11.324  0.4675 -0.4227  0.3355
65564SOL    HW114684   8.944   0.485  11.262 -0.2565 -0.0117 -0.2849
65564SOL    HW214685   8.881   0.622  11.277 -0.3433 -0.2170  1.4502
65565SOL     OW14686   9.965   4.498  11.992 -0.2837  0.3881  0.0855
65565SOL    HW114687  10.018   4.442  11.935  0.6107  1.0959  0.1974
65565SOL    HW214688   9.983   4.465  12.080  1.7361  1.9792  0.3420
65566SOL     OW14689  11.177   7.400   8.468 -0.2163 -0.3277 -0.2336
65566SOL    HW114690  11.235   7.423   8.396 -0.5353 -1.1471 -0.7598
65566SOL    HW214691  11.099   7.364   8.426 -0.2630 -1.1465  0.5241
65567SOL     OW14692   0.639   2.716   3.868 -0.3034  0.1143 -0.0859
65567SOL    HW114693   0.668   2.807   3.866 -2.8877  1.0428  0.7558
65567SOL    HW214694   0.610   2.702   3.958  3.2207 -2.7415  0.8406
65568SOL     OW14695   5.525   4.542   5.117 -0.2095  0.4481 -0.0623
65568SOL    HW114696   5.501   4.537   5.024 -0.1919  3.1114 -0.2727
65568SOL    HW214697   5.441   4.547   5.163 -0.2185  2.0033 -0.1988
65569SOL     OW14698  10.330   2.382  13.676 -0.1601 -0.0398  0.6771
65569SOL    HW114699  10.247   2.377  13.630  0.1095  1.6529 -0.0677
65569SOL    HW214700  10.375   2.300  13.655 -1.0444 -0.3479 -0.0678
65570SOL     OW14701   6.602   4.940  12.777 -0.3947  0.1391  0.8152
65570SOL    HW114702   6.681   4.989  12.752  0.8911 -2.7551 -1.4728
65570SOL    HW214703   6.547   4.940  12.698 -0.3435 -1.9142  0.7112
65571SOL     OW14704  10.142   3.446  13.412  0.1847 -0.3238  0.2534
65571SOL    HW114705  10.109   3.366  13.453 -0.3992 -0.3335 -0.2051
65571SOL    HW214706  10.064   3.501  13.401  0.2422 -0.4615 -1.1192
65572SOL     OW14707  12.802   4.060   8.092  0.1642  0.3350 -0.1696
65572SOL    HW114708  12.853   3.980   8.102 -0.0955  0.4146  2.6429
65572SOL    HW214709  12.850   4.125   8.144 -0.1575  1.7750 -1.5966
65573SOL     OW14710   9.111   7.693   1.671  0.0924 -0.0341 -0.1136
65573SOL    HW114711   9.176   7.759   1.693 -0.2389  0.0229  0.7221
65573SOL    HW214712   9.159   7.610   1.674  0.6501  0.1808 -1.7345
65574SOL     OW14713  10.258   1.886   0.790  0.1273  0.3235 -0.2658
65574SOL    HW114714  10.240   1.978   0.807  0.4916  0.7714 -2.0693
65574SOL    HW214715  10.351   1.875   0.813  0.0240  0.3474  0.1653
65575SOL     OW14716  12.329   9.039   8.350  0.3304 -0.3096 -0.3010
65575SOL    HW114717  12.378   9.028   8.269  0.8328  1.5176 -0.2746
65575SOL    HW214718  12.381   9.099   8.403 -0.6547 -0.3926  0.8237
65576SOL     OW14719  11.730   7.773   7.775  0.7000 -0.1553  0.0780
65576SOL    HW114720  11.724   7.723   7.856 -0.1532  2.5208  1.7824
65576SOL    HW214721  11.663   7.735   7.718  0.4552 -1.2950  1.0901
65577SOL     OW14722   4.807   3.518   1.223 -0.2011 -0.0411  0.0110
65577SOL    HW114723   4.722   3.478   1.202 -0.1642  0.6952 -1.6441
65577SOL    HW214724   4.836   3.471   1.301 -0.7593 -2.3443 -1.0915
65578SOL     OW14725   8.766  12.794   6.898  0.3077  0.2002 -0.2068
65578SOL    HW114726   8.813  12.711   6.910 -0.0093 -0.0206 -0.4788
65578SOL    HW214727   8.763  12.806   6.804 -1.4245 -0.5115 -0.2757
65579SOL     OW14728  12.695   1.918  11.338  0.2062 -0.2351  0.3337
65579SOL    HW114729  12.715   1.908  11.431 -0.9195  1.3183  0.7791
65579SOL    HW214730  12.695   2.012  11.323 -0.6315 -0.4235 -1.0089
65580SOL     OW14731  13.936   7.173  12.008  0.1905 -0.5965 -0.2616
65580SOL    HW114732  13.909   7.234  11.938 -0.5556 -0.8451 -0.2018
65580SOL    HW214733  13.985   7.227  12.069  0.5575 -0.3022 -0.8075
65581SOL     OW14734   0.758  13.488   9.880 -0.3066  0.1807 -0.0137
65581SOL    HW114735   0.807  13.525   9.954  1.0617  0.2702 -0.9247
65581SOL    HW214736   0.731  13.401   9.910 -1.0610  0.7867  1.1114
65582SOL     OW14737  12.427  12.374   2.426  0.1635  0.1828 -0.1596
65582SOL    HW114738  12.348  12.415   2.463  0.4436  0.9103 -0.3457
65582SOL    HW214739  12.400  12.347   2.338 -0.1509 -0.4513  0.1216
65583SOL     OW14740   0.081  11.249   4.842  1.0162 -0.3386 -0.4390
65583SOL    HW114741   0.153  11.189   4.823  2.4634  1.4061 -0.7134
65583SOL    HW214742   0.116  11.336   4.821 -0.6064  0.7318  1.0064
65584SOL     OW14743  13.704   6.350   3.281 -0.1044  0.0270  0.6411
65584SOL    HW114744  13.718   6.288   3.210 -1.2514 -0.8663  1.1667
65584SOL    HW214745  13.713   6.299   3.361  3.0000  1.3700  1.2957
65585SOL     OW14746   9.670  13.303   6.402  0.4469  0.4112  0.1708
65585SOL    HW114747   9.607  13.234   6.420 -0.7890  1.2494 -0.8055
65585SOL    HW214748   9.732  13.263   6.341  0.1978 -0.0721  0.2293
65586SOL     OW14749   6.027  11.979   4.720  0.1193  0.5361  0.6856
65586SOL    HW114750   5.936  11.985   4.751  0.3542 -0.9034  1.7722
65586SOL    HW214751   6.024  11.916   4.649  0.1711  1.0622  0.2060
65587SOL     OW14752   6.497   3.285  13.005  0.0158 -0.1536 -0.2712
65587SOL    HW114753   6.483   3.219  13.073 -2.1124  1.7729  1.3311
65587SOL    HW214754   6.429   3.268  12.941 -1.2090  1.0181  0.6636
65588SOL     OW14755  12.683  12.120   0.907  0.2883 -0.0176 -0.0114
65588SOL    HW114756  12.769  12.078   0.911  1.0347  1.3231 -0.7955
65588SOL    HW214757  12.655  12.127   0.998  0.8882 -0.7097  0.2386
65589SOL     OW14758   4.186   5.814  12.330  0.5265  0.3829 -0.2120
65589SOL    HW114759   4.131   5.792  12.405 -1.5672 -0.6098 -1.9518
65589SOL    HW214760   4.243   5.738  12.319  0.7566  0.4802  0.2650
65590SOL     OW14761   9.438  10.789  12.967  0.4735  0.0748  0.1631
65590SOL    HW114762   9.468  10.880  12.968  3.1982 -0.7298 -0.2700
65590SOL    HW214763   9.495  10.743  13.029 -0.7705 -1.3807  0.3000
65591SOL     OW14764  11.846   8.872   8.810 -1.0054  0.2619 -0.1648
65591SOL    HW114765  11.907   8.944   8.795 -0.3450 -0.5588 -1.6619
65591SOL    HW214766  11.897   8.807   8.857 -1.1164  0.1142 -0.2468
65592SOL     OW14767  13.691   5.709  13.717 -0.1541 -0.1756  0.5908
65592SOL    HW114768  13.775   5.662  13.712 -0.0780 -0.3662  2.8161
65592SOL    HW214769  13.709   5.785  13.772 -1.1505  0.4932  0.0211
65593SOL     OW14770   5.028   7.821   0.593  0.3350  0.3015 -0.6684
65593SOL    HW114771   4.986   7.822   0.678  1.7189  0.9344  0.0459
65593SOL    HW214772   5.119   7.797   0.611  0.5418 -0.0298 -2.0209
65594SOL     OW14773  11.965   8.323   9.800  0.0700 -0.4047  0.7064
65594SOL    HW114774  11.991   8.246   9.852  0.3235  0.5839  2.1076
65594SOL    HW214775  12.006   8.397   9.845 -0.1098  0.5637 -0.6545
65595SOL     OW14776   6.208   5.405  10.152 -0.3271 -0.1699  0.6356
65595SOL    HW114777   6.256   5.351  10.089 -1.3711 -1.4289  0.8804
65595SOL    HW214778   6.121   5.366  10.156 -1.2614  1.7858  0.5486
65596SOL     OW14779   3.325   9.393  11.705  0.5461 -0.1172  0.0569
65596SOL    HW114780   3.373   9.405  11.787 -0.1945  0.0206  0.4720
65596SOL    HW214781   3.308   9.300  11.700  0.3742 -0.0914  0.1782
65597SOL     OW14782   0.511   9.157   9.850  0.0465  0.3506 -0.0786
65597SOL    HW114783   0.441   9.092   9.840 -0.3327  0.7932 -0.3365
65597SOL    HW214784   0.589   9.105   9.867 -0.5665 -0.0945  1.5520
65598SOL     OW14785  12.207  12.753   7.297 -0.2130  0.2566 -0.2695
65598SOL    HW114786  12.202  12.663   7.264  0.9145  0.8243 -2.1148
65598SOL    HW214787  12.147  12.802   7.242  0.5707  0.9694 -0.4949
65599SOL     OW14788   2.484   9.384  12.569 -0.5179  0.1106 -0.6274
65599SOL    HW114789   2.543   9.320  12.609  0.1683  0.8520 -0.4330
65599SOL    HW214790   2.439   9.335  12.500  0.1871 -0.5192 -0.6571
65600SOL     OW14791  13.588   1.118   9.644  0.0795  0.0827  0.4401
65600SOL    HW114792  13.604   1.134   9.551  1.3081 -0.5447  0.5260
65600SOL    HW214793  13.666   1.072   9.674 -0.2057  0.4796  1.8378
65601SOL     OW14794  10.910   8.915   0.074 -0.1565 -0.1391  0.7706
65601SOL    HW114795  10.955   9.000   0.080 -2.5510  1.1910  1.2620
65601SOL    HW214796  10.971   8.853   0.113  1.9582  1.2096 -0.2088
65602SOL     OW14797   8.321  11.503  11.366  0.2194 -0.2280  0.3344
65602SOL    HW114798   8.281  11.584  11.334 -0.7202 -0.7388  0.1802
65602SOL    HW214799   8.336  11.520  11.459  0.2194  0.1961  0.2625
65603SOL     OW14800   7.236   1.371  12.802  0.0809 -0.2026  0.1499
65603SOL    HW114801   7.292   1.442  12.772 -0.6873  0.2453 -0.2429
65603SOL    HW214802   7.238   1.378  12.898 -0.4453  0.7033  0.0981
65604SOL     OW14803   1.178   6.781  10.642 -0.5597  0.1635 -0.0762
65604SOL    HW114804   1.271   6.757  10.641 -0.0901  1.7910  0.8185
65604SOL    HW214805   1.132   6.698  10.658  0.6795 -0.7720 -1.1215
65605SOL     OW14806   2.075   8.711   8.768  0.0448 -0.2769 -0.1070
65605SOL    HW114807   2.167   8.735   8.759  0.4723 -1.7157  0.1329
65605SOL    HW214808   2.052   8.672   8.684 -0.0265 -0.9189  0.2080
65606SOL     OW14809   7.085   3.220   8.454  0.0428 -0.4808  0.1748
65606SOL    HW114810   7.169   3.216   8.407 -0.6735  0.8105 -1.2666
65606SOL    HW214811   7.025   3.168   8.401 -0.7158  0.7948 -0.2636
65607SOL     OW14812  14.041   3.074  11.649  0.2887 -0.0544  0.3656
65607SOL    HW114813  14.120   3.033  11.684 -0.2916 -1.1483  0.4711
65607SOL    HW214814  13.984   3.083  11.725 -0.1652 -0.4674  0.0836
65608SOL     OW14815  11.844   5.265   3.919 -0.2887 -0.5260  0.3462
65608SOL    HW114816  11.939   5.272   3.907 -0.6385  1.0275 -2.4299
65608SOL    HW214817  11.828   5.172   3.933  1.4837 -1.1243 -1.2169
65609SOL     OW14818  10.774   5.986   5.875  0.3977  0.0483  0.3999
65609SOL    HW114819  10.797   6.071   5.912 -0.9628  0.7619 -0.3276
65609SOL    HW214820  10.858   5.941   5.864  1.1408  1.3268  0.6951
65610SOL     OW14821   9.557   0.324   3.721  0.4782 -0.8286  0.2171
65610SOL    HW114822   9.613   0.265   3.770  0.0667 -1.3817  0.0273
65610SOL    HW214823   9.498   0.267   3.672 -1.0235 -0.2708  1.2962
65611SOL     OW14824   9.419   8.371   9.694 -0.3883 -0.2405  0.0848
65611SOL    HW114825   9.512   8.350   9.695  0.2624  2.1812  2.8952
65611SOL    HW214826   9.376   8.291   9.725  1.2341 -0.0647  3.0950
65612SOL     OW14827  10.602  13.018   6.446 -0.7265 -0.3332  0.3557
65612SOL    HW114828  10.690  12.982   6.454 -0.5427 -0.2734 -1.0187
65612SOL    HW214829  10.575  13.037   6.535  1.6762  2.0429  0.7176
65613SOL     OW14830  13.713   6.700  13.141  0.0151  0.1264  0.0359
65613SOL    HW114831  13.793   6.737  13.105 -0.5226  0.9121 -0.4035
65613SOL    HW214832  13.643   6.741  13.090 -0.7599  0.9416  1.6670
65614SOL     OW14833  13.704  13.377   5.705 -0.0197  0.7758  0.0274
65614SOL    HW114834  13.726  13.390   5.613 -0.6805 -1.3361 -0.4776
65614SOL    HW214835  13.781  13.407   5.753  0.7147  0.9900 -1.2582
65615SOL     OW14836  13.140   8.725   7.515 -0.3274  0.2715  0.4747
65615SOL    HW114837  13.090   8.648   7.487  2.2521 -1.1511 -0.4817
65615SOL    HW214838  13.113   8.794   7.454 -1.1341 -0.4210  0.0247
65616SOL     OW14839   8.637   6.062  11.806 -0.2074  0.2034 -0.1988
65616SOL    HW114840   8.612   6.152  11.827 -0.9845 -0.2882  1.1061
65616SOL    HW214841   8.705   6.041  11.870  0.0411 -0.1122 -0.5619
65617SOL     OW14842   9.499   3.913   8.702  1.3257 -0.2570  0.3774
65617SOL    HW114843   9.429   3.931   8.639  1.9635  0.2041 -0.2183
65617SOL    HW214844   9.532   3.826   8.677  1.3953 -0.1925  0.2409
65618SOL     OW14845  10.070  10.131   0.650 -0.0806  0.4650  0.1579
65618SOL    HW114846  10.061  10.211   0.598  0.1407  0.5252  0.2101
65618SOL    HW214847  10.098  10.162   0.736  2.2998  0.1965 -0.4554
65619SOL     OW14848   1.044  10.260   4.941  0.0750 -0.4635 -0.6317
65619SOL    HW114849   1.114  10.238   4.880 -0.1638  0.0802 -1.1076
65619SOL    HW214850   0.964  10.227   4.899 -0.0617 -0.3007 -0.5003
65620SOL     OW14851   3.032   7.037   3.545 -0.2723  0.0595 -0.3714
65620SOL    HW114852   2.941   7.057   3.568 -0.3079 -0.6922  0.1634
65620SOL    HW214853   3.028   6.949   3.506  0.2444 -0.0387 -0.2086
65621SOL     OW14854   7.368  11.860  13.556  0.5315 -0.1665  0.0379
65621SOL    HW114855   7.439  11.816  13.604  0.6391 -1.6783 -1.4070
65621SOL    HW214856   7.288  11.830  13.600  0.7294  0.7641  1.0576
65622SOL     OW14857   6.276   7.755   6.886 -0.0060 -0.1732  0.0030
65622SOL    HW114858   6.316   7.798   6.962 -0.3643  0.0277  0.0782
65622SOL    HW214859   6.249   7.828   6.829 -0.0961 -0.3139 -0.1350
65623SOL     OW14860   5.136   3.295  13.282  0.0517 -0.1702  0.1019
65623SOL    HW114861   5.143   3.241  13.361  1.1627  1.1682  0.9610
65623SOL    HW214862   5.191   3.371  13.300  0.5435  0.0546 -2.0672
65624SOL     OW14863   0.981  11.874  12.291  0.0906 -0.1937  0.1699
65624SOL    HW114864   1.032  11.949  12.259 -0.1320 -0.2908 -0.4369
65624SOL    HW214865   0.893  11.908  12.304  0.8252  0.6844  3.8834
65625SOL     OW14866  10.347   0.666   2.866  0.2449  0.2472 -0.0808
65625SOL    HW114867  10.402   0.688   2.941 -1.3535  1.1094  0.8949
65625SOL    HW214868  10.340   0.747   2.817  1.7786 -0.4544 -1.5774
65626SOL     OW14869  10.868   2.587  13.717 -0.2239 -0.2888 -0.5136
65626SOL    HW114870  10.923   2.606  13.792 -2.4611  0.6785  0.9739
65626SOL    HW214871  10.797   2.533  13.752 -2.5879  2.0698 -1.3140
65627SOL     OW14872   9.731   4.104   2.385  0.3984  0.2072  0.6913
65627SOL    HW114873   9.695   4.025   2.345  0.2291  1.2316 -1.2860
65627SOL    HW214874   9.824   4.084   2.398  0.1095 -0.7497  1.4252
65628SOL     OW14875   8.041   3.227  13.844 -0.6745 -0.5541 -0.2798
65628SOL    HW114876   8.092   3.150  13.865 -2.6947 -2.1669 -0.9563
65628SOL    HW214877   7.970   3.227  13.908 -1.8040 -0.4243 -1.4792
65629SOL     OW14878   5.642   9.194  12.630 -0.1657  0.1036 -0.4346
65629SOL    HW114879   5.586   9.263  12.596  0.6807  2.1119  1.9279
65629SOL    HW214880   5.712   9.186  12.565  0.0716  2.0007 -0.4833
65630SOL     OW14881   4.644  14.142  12.273 -0.3601 -0.4025 -0.3758
65630SOL    HW114882   4.690  14.062  12.299  0.0043  0.1787  0.8579
65630SOL    HW214883   4.701  14.182  12.208 -1.3311 -1.9354 -2.2665
65631SOL     OW14884   5.582   1.306  12.226  0.7966 -0.0199  0.0963
65631SOL    HW114885   5.646   1.371  12.196 -0.3050  1.2968  0.4893
65631SOL    HW214886   5.600   1.296  12.319  1.5315 -0.9664 -0.1345
65632SOL     OW14887  13.449   7.470   5.080 -0.2521 -0.3519 -0.4126
65632SOL    HW114888  13.461   7.384   5.039 -1.9938  0.0374 -1.8519
65632SOL    HW214889  13.526   7.481   5.135  1.6875 -1.3755 -2.7676
65633SOL     OW14890   5.880   7.034   9.548  0.2600 -0.3156 -0.0263
65633SOL    HW114891   5.919   7.027   9.635  2.5090  0.1178 -0.9409
65633SOL    HW214892   5.941   6.990   9.490 -1.7960 -1.6909 -1.2883
65634SOL     OW14893  10.341   3.864   0.375 -0.3901 -0.2534  0.0080
65634SOL    HW114894  10.337   3.774   0.407  0.4484 -0.0669  0.6951
65634SOL    HW214895  10.251   3.887   0.354 -0.7970 -0.8119  1.0868
65635SOL     OW14896   9.541   6.322   6.177 -0.0178 -0.0918  0.0706
65635SOL    HW114897   9.564   6.256   6.243  1.9154  1.0263  0.5660
65635SOL    HW214898   9.580   6.403   6.209  0.5454  0.5991 -2.2004
65636SOL     OW14899  13.223   2.213   7.886  0.1968 -0.2619  0.1869
65636SOL    HW114900  13.282   2.231   7.959 -0.3263  0.4751  0.4454
65636SOL    HW214901  13.215   2.118   7.885  2.7442 -0.5415 -0.9701
65637SOL     OW14902   2.955   5.308   5.747 -1.1319 -0.1539 -0.2233
65637SOL    HW114903   2.986   5.299   5.837 -1.2573  1.8742  0.0612
65637SOL    HW214904   2.866   5.271   5.748 -0.3971 -2.0340 -0.0480
65638SOL     OW14905   6.475   0.341   7.765 -0.4912  0.1811  0.3813
65638SOL    HW114906   6.435   0.399   7.830 -0.7128 -0.3363  0.7153
65638SOL    HW214907   6.548   0.301   7.812  0.0895  0.7053 -0.0590
65639SOL     OW14908   4.006  11.409   8.422  0.2864  0.1244 -0.1353
65639SOL    HW114909   3.978  11.498   8.397 -0.8349 -0.4491 -0.9977
65639SOL    HW214910   4.001  11.409   8.518 -0.3520  0.7892 -0.1541
65640SOL     OW14911  10.172   1.212  14.140 -0.1167  0.1182 -0.0436
65640SOL    HW114912  10.131   1.285  14.094  0.1630 -0.2515 -0.9075
65640SOL    HW214913  10.229   1.253  14.205  1.0064  0.7242 -1.3554
65641SOL     OW14914   8.790   5.979   5.732 -0.1888 -0.3057 -0.3071
65641SOL    HW114915   8.856   5.953   5.667 -0.3309 -1.0296 -0.1740
65641SOL    HW214916   8.721   6.021   5.682 -1.4350 -2.9563 -1.0043
65642SOL     OW14917  11.830   4.052   6.826  0.2429  0.3830 -0.5027
65642SOL    HW114918  11.794   3.995   6.757 -1.6739  2.7344 -1.5807
65642SOL    HW214919  11.828   4.140   6.788 -0.7825  1.7727  2.4873
65643SOL     OW14920   8.970   7.223  11.799  0.5695  0.7553 -0.2856
65643SOL    HW114921   9.065   7.220  11.806  0.6443 -0.6240 -1.3800
65643SOL    HW214922   8.944   7.301  11.848  2.2988  1.4971 -0.5033
65644SOL     OW14923   9.941  12.106   8.606 -0.0321  0.1902  0.3212
65644SOL    HW114924   9.959  12.114   8.700  0.4412  0.5209  0.2088
65644SOL    HW214925   9.980  12.185   8.567 -2.2644  1.2525  0.1034
65645SOL     OW14926   6.452   6.051   0.123 -0.1267  0.0141 -0.7075
65645SOL    HW114927   6.539   6.022   0.095  0.3425  1.5863 -0.9940
65645SOL    HW214928   6.404   5.970   0.140  1.9303 -0.9101  1.2072
65646SOL     OW14929   2.507  11.573   0.253 -0.1085  0.5997 -0.1205
65646SOL    HW114930   2.431  11.624   0.226 -0.4895  0.0787 -0.0541
65646SOL    HW214931   2.576  11.598   0.192 -0.9427 -0.5557 -1.6033
65647SOL     OW14932  10.371   0.103   2.966  0.7904 -0.5887 -0.2178
65647SOL    HW114933  10.448   0.077   3.016  0.2220  0.0586  1.0294
65647SOL    HW214934  10.405   0.162   2.899  1.2736  0.5859  1.0153
65648SOL     OW14935   1.657   1.676  13.434 -0.1358  0.1207 -0.5872
65648SOL    HW114936   1.718   1.657  13.505 -1.3017  2.4847  1.2335
65648SOL    HW214937   1.606   1.596  13.424 -0.5621 -0.0501  2.0203
65649SOL     OW14938   5.972   0.306   9.889 -0.9765 -0.0947  0.1866
65649SOL    HW114939   5.971   0.392   9.848  1.0145 -0.3822 -0.5611
65649SOL    HW214940   5.889   0.266   9.864 -1.4960  1.2197 -0.2703
65650SOL     OW14941   2.149   8.155  11.359  0.1180 -0.2756 -0.0446
65650SOL    HW114942   2.221   8.136  11.420 -0.1770 -0.5935  0.2013
65650SOL    HW214943   2.091   8.213  11.409  0.5726  0.5944 -0.4931
65651SOL     OW14944  12.408   1.907   2.314  0.7262  0.2181  0.4631
65651SOL    HW114945  12.480   1.959   2.350  0.6436  1.7012 -1.3995
65651SOL    HW214946  12.448   1.856   2.244  0.4956 -1.1987  1.3021
65652SOL     OW14947   5.474  14.077  10.027 -0.3542 -0.2570 -0.0084
65652SOL    HW114948   5.388  14.109  10.000  0.1940  2.0107  0.6784
65652SOL    HW214949   5.472  14.080  10.123  1.2167  2.3104  0.0570
65653SOL     OW14950   1.655   5.689   9.936 -0.3110  0.6741 -0.1056
65653SOL    HW114951   1.690   5.600   9.921 -0.9124  0.2475  0.9314
65653SOL    HW214952   1.667   5.733   9.852 -0.1547 -0.4441 -0.6987
65654SOL     OW14953   9.388  13.975  12.783  0.4977  0.3657  0.1944
65654SOL    HW114954   9.358  13.890  12.749  1.1943  0.9671 -2.1558
65654SOL    HW214955   9.341  14.040  12.730  2.1656  1.3725 -0.1406
65655SOL     OW14956   5.116   0.306   8.856  0.3772 -0.0723  0.1983
65655SOL    HW114957   5.054   0.258   8.801 -0.0858  0.2847  0.4009
65655SOL    HW214958   5.124   0.391   8.814  0.1936  0.1241  0.5572
65656SOL     OW14959   4.823   9.571   9.748 -0.4580  0.3492  0.3839
65656SOL    HW114960   4.754   9.507   9.768  0.0611  0.0320  1.2189
65656SOL    HW214961   4.844   9.557   9.656 -0.2704 -0.7599  0.5911
65657SOL     OW14962   4.573   9.443   3.205  0.4048  0.0603 -0.9881
65657SOL    HW114963   4.632   9.381   3.249  2.5073  1.8493 -1.1366
65657SOL    HW214964   4.611   9.455   3.118 -1.0021  0.2152 -1.6025
65658SOL     OW14965   3.765  11.670  10.438  0.1262  0.0451 -0.5430
65658SOL    HW114966   3.806  11.639  10.519 -1.2841 -0.0889  0.1559
65658SOL    HW214967   3.671  11.662  10.454 -0.2214 -1.9841 -2.9741
65659SOL     OW14968   0.965  11.489  11.204  0.2429 -0.2647 -0.5682
65659SOL    HW114969   0.877  11.513  11.234  0.7375  0.0935  0.6215
65659SOL    HW214970   1.024  11.546  11.253  1.3213 -2.4038  0.7850
65660SOL     OW14971   2.905   3.461  12.204  0.1201 -0.2840  0.2437
65660SOL    HW114972   2.987   3.508  12.187 -0.2183  0.1667 -0.1352
65660SOL    HW214973   2.842   3.529  12.227 -0.9454 -0.2894 -2.3752
65661SOL     OW14974   8.241   5.890   3.751  0.6543  0.2597  0.2508
65661SOL    HW114975   8.334   5.906   3.766  0.8550 -1.0859  0.4950
65661SOL    HW214976   8.227   5.799   3.777 -0.6956  0.3866  0.0459
65662SOL     OW14977   7.344   1.386   7.789  0.2114  0.1685 -0.0421
65662SOL    HW114978   7.269   1.340   7.827 -1.0822  1.5701 -0.7938
65662SOL    HW214979   7.403   1.401   7.863 -0.7618  0.0048  0.7865
65663SOL     OW14980  10.798  11.534   4.968  0.4688 -0.6422  0.5883
65663SOL    HW114981  10.893  11.526   4.975  0.4563 -1.8264 -0.3312
65663SOL    HW214982  10.773  11.468   4.903 -1.0640 -0.9152  1.4028
65664SOL     OW14983   0.675   0.897   3.813 -0.1292 -0.0489 -0.0029
65664SOL    HW114984   0.738   0.839   3.770 -0.1916  1.8946 -3.0041
65664SOL    HW214985   0.718   0.983   3.815 -1.5174  0.6746  0.6938
65665SOL     OW14986  13.485   0.342   7.200 -0.9118 -0.4462  0.1950
65665SOL    HW114987  13.405   0.357   7.251 -0.1311 -1.7204  1.8796
65665SOL    HW214988  13.545   0.299   7.261  1.7125  1.9209 -0.5146
65666SOL     OW14989   0.407  12.174   4.294  0.5936 -0.0121  0.0116
65666SOL    HW114990   0.440  12.115   4.361  0.3710 -0.2150 -0.0552
65666SOL    HW214991   0.409  12.123   4.213  0.2838  0.0264 -0.0250
65667SOL     OW14992   9.433  13.642   1.432  0.6618  0.1072 -0.1341
65667SOL    HW114993   9.433  13.736   1.411 -1.1743 -0.2791 -2.2855
65667SOL    HW214994   9.350  13.610   1.396  1.5285 -2.4712 -0.0170
65668SOL     OW14995   3.740  13.529   1.295  0.0110 -0.3078 -0.2988
65668SOL    HW114996   3.814  13.473   1.274 -0.8599 -1.3292 -0.7765
65668SOL    HW214997   3.764  13.615   1.261  1.7742 -0.1106  1.2891
65669SOL     OW14998   6.841   5.700   7.512 -0.5325 -0.7149 -0.2136
65669SOL    HW114999   6.893   5.735   7.584  0.8012 -0.5622 -1.2213
65669SOL    HW215000   6.810   5.615   7.544 -0.0296 -0.6139  0.5652
65670SOL     OW15001   2.134   5.999  10.311 -0.2676 -0.3039 -0.5091
65670SOL    HW115002   2.154   5.910  10.339 -0.1694 -0.2780 -0.4997
65670SOL    HW215003   2.061   5.988  10.250  1.4721 -0.6807 -2.6501
65671SOL     OW15004   8.497   7.245  13.719 -0.1123 -0.2055 -0.1904
65671SOL    HW115005   8.552   7.317  13.689  0.1167 -1.4112 -2.9408
65671SOL    HW215006   8.411   7.285  13.733  0.3328  0.8372 -0.3675
65672SOL     OW15007  10.540  11.919  11.514 -0.0772  0.4142  0.0244
65672SOL    HW115008  10.567  11.880  11.597 -0.5058 -0.1901 -0.1152
65672SOL    HW215009  10.515  12.009  11.537 -3.4334 -0.6860  1.2010
65673SOL     OW15010   5.326  12.440   0.563 -0.0430 -0.4643 -0.1803
65673SOL    HW115011   5.359  12.530   0.568  0.9177 -0.7033 -1.6769
65673SOL    HW215012   5.405  12.387   0.553 -0.7267 -1.2966 -1.2657
65674SOL     OW15013   3.305   2.845  11.358  0.0106 -0.0174 -0.3800
65674SOL    HW115014   3.275   2.836  11.267  0.3547 -1.4085 -0.3807
65674SOL    HW215015   3.317   2.755  11.388  2.4597  0.4280  0.1831
65675SOL     OW15016   4.319   3.635   3.416  0.2271  0.4539 -0.2985
65675SOL    HW115017   4.321   3.577   3.492  0.3888  0.4931 -0.2738
65675SOL    HW215018   4.336   3.722   3.451  0.9555  0.3843 -0.4626
65676SOL     OW15019   3.890  13.622  13.545  0.4633 -0.1357  0.1099
65676SOL    HW115020   3.876  13.542  13.596  0.2965 -0.3458 -0.2558
65676SOL    HW215021   3.823  13.618  13.476 -0.4023  0.9832  0.8648
65677SOL     OW15022   8.710   2.264   0.922 -0.2305 -0.4705  0.6936
65677SOL    HW115023   8.705   2.231   0.832  1.3367 -1.5325  0.9525
65677SOL    HW215024   8.713   2.184   0.976  1.1960  0.0966  1.5072
65678SOL     OW15025   0.175   1.952   8.453  0.2286  0.4414 -0.5896
65678SOL    HW115026   0.268   1.949   8.479  0.1178 -0.2563 -0.2538
65678SOL    HW215027   0.153   2.045   8.457  0.7006  0.5372  0.1087
65679SOL     OW15028  12.454   9.970   5.590 -0.1612  0.0827  0.2955
65679SOL    HW115029  12.408   9.928   5.518  0.6921  0.1385 -0.2945
65679SOL    HW215030  12.408   9.940   5.669 -1.5211  0.5601 -0.2898
65680SOL     OW15031  10.695  10.572   4.343  0.5778 -0.3725  0.1240
65680SOL    HW115032  10.675  10.481   4.323  2.0364 -0.5518 -0.6953
65680SOL    HW215033  10.657  10.587   4.429 -0.6160 -1.4213 -0.1934
65681SOL     OW15034   8.060   4.396  11.286 -0.2636 -0.0878 -0.0835
65681SOL    HW115035   7.984   4.453  11.288 -2.1816 -2.4618 -0.7284
65681SOL    HW215036   8.101   4.412  11.201  0.1603  1.3659  0.3626
65682SOL     OW15037  10.758   5.156   2.187 -0.1514  0.0767  0.1363
65682SOL    HW115038  10.706   5.163   2.107  0.5476 -0.1108 -0.3435
65682SOL    HW215039  10.806   5.239   2.192  0.3682 -0.2038 -0.0497
65683SOL     OW15040   9.154   8.672   6.470 -0.4766  0.0646 -0.0011
65683SOL    HW115041   9.120   8.628   6.393 -0.1518 -0.9119  0.3903
65683SOL    HW215042   9.247   8.649   6.472  0.2089  2.4432 -0.8946
65684SOL     OW15043   9.033  12.169   4.658 -0.2368  0.3156  0.2850
65684SOL    HW115044   8.952  12.117   4.661 -0.5785  0.6889 -1.4043
65684SOL    HW215045   9.098  12.114   4.700 -0.2098 -2.2664 -2.7592
65685SOL     OW15046   2.675  12.549  12.654  0.3152  0.3547  0.1935
65685SOL    HW115047   2.668  12.457  12.630  1.0414  0.0330  1.1501
65685SOL    HW215048   2.584  12.581  12.654  0.0834 -0.2787 -0.3932
65686SOL     OW15049  12.318   1.535  12.040  0.0452  0.3166 -0.2511
65686SOL    HW115050  12.396   1.538  11.985 -1.0035 -0.4056 -1.8388
65686SOL    HW215051  12.315   1.621  12.083  0.2578  1.3949 -2.2646
65687SOL     OW15052   4.800   8.396   8.408 -0.3023  0.1163  0.0999
65687SOL    HW115053   4.772   8.456   8.477  0.7238 -1.9274  2.4654
65687SOL    HW215054   4.719   8.370   8.364 -0.7955  2.9189 -0.8568
65688SOL     OW15055   2.386   5.413   2.851 -0.0299 -0.6469 -0.1149
65688SOL    HW115056   2.433   5.331   2.837  0.5750 -0.1732 -0.9013
65688SOL    HW215057   2.315   5.411   2.787  0.3159 -0.3154 -0.5158
65689SOL     OW15058  11.640   3.491   1.893 -0.0607  0.7168  0.0094
65689SOL    HW115059  11.626   3.537   1.811 -0.3884 -0.9099 -0.8895
65689SOL    HW215060  11.565   3.432   1.901  0.4979  0.1053  0.9446
65690SOL     OW15061   2.090   9.960   8.381 -0.2165 -0.0236 -0.4071
65690SOL    HW115062   2.018   9.948   8.442  1.3524 -3.1915  1.0320
65690SOL    HW215063   2.165   9.983   8.437  0.5703  0.1916 -1.5116
65691SOL     OW15064  12.657   4.881  10.921 -0.1894  0.0863  0.1891
65691SOL    HW115065  12.684   4.837  11.002  0.3860 -1.6449 -0.8787
65691SOL    HW215066  12.726   4.944  10.904  0.9807 -1.2326 -0.1769
65692SOL     OW15067  12.992   2.855  12.777 -0.0737  0.2196  0.5877
65692SOL    HW115068  13.019   2.925  12.837  0.1719 -0.2971  1.0919
65692SOL    HW215069  12.996   2.895  12.690  0.4635  0.7128  0.8348
65693SOL     OW15070   9.874   4.648  10.971  0.4462  0.0160  0.1006
65693SOL    HW115071   9.866   4.554  10.989 -0.1648 -0.0156 -0.2967
65693SOL    HW215072   9.933   4.653  10.896  1.7008  0.0491  1.0733
65694SOL     OW15073   5.885   4.634  11.205  0.2530  0.3029 -0.4588
65694SOL    HW115074   5.856   4.692  11.134 -0.1100  0.8194  0.1047
65694SOL    HW215075   5.957   4.584  11.167  0.4615  1.0059 -1.0071
65695SOL     OW15076   5.903   9.201  12.323 -0.3288 -0.5082  0.1188
65695SOL    HW115077   5.928   9.249  12.402  1.2655  1.0696 -1.2519
65695SOL    HW215078   5.968   9.131  12.315  0.2149  0.0423 -0.3793
65696SOL     OW15079  12.279   3.372   7.018  0.3541  0.3188 -0.2556
65696SOL    HW115080  12.262   3.435   6.947  1.0784  1.3409  0.4582
65696SOL    HW215081  12.362   3.331   6.994  0.1081 -0.0570 -0.4855
65697SOL     OW15082   3.115   2.267  12.811  0.1153  0.3021 -0.3750
65697SOL    HW115083   3.208   2.284  12.825 -0.2246  2.2661 -0.1563
65697SOL    HW215084   3.074   2.354  12.815 -1.6407 -0.4395 -1.1434
65698SOL     OW15085  13.229   5.217   9.483  0.2838  0.5719  1.0957
65698SOL    HW115086  13.248   5.305   9.517 -0.9982  1.2823  0.0439
65698SOL    HW215087  13.152   5.228   9.428  1.2712 -0.8523 -0.6750
65699SOL     OW15088   0.803  11.617  10.905  0.2240 -0.0357 -0.1345
65699SOL    HW115089   0.792  11.633  10.811  0.4056 -0.4894 -0.2344
65699SOL    HW215090   0.772  11.698  10.946  0.5879  0.3547 -0.6025
65700SOL     OW15091  11.667  10.381   8.052 -0.2773  0.2588  0.1072
65700SOL    HW115092  11.730  10.426   8.108 -1.1338  2.5854 -0.7105
65700SOL    HW215093  11.582  10.406   8.087 -0.8034  0.8528 -1.5184
65701SOL     OW15094   0.651  10.894   3.522  0.1373 -0.3783  0.2314
65701SOL    HW115095   0.577  10.846   3.560  0.2873  0.4738  1.6254
65701SOL    HW215096   0.617  10.927   3.439  0.2243 -3.4079 -1.1568
65702SOL     OW15097  12.186  13.809  11.389 -0.2255  0.4561 -0.2522
65702SOL    HW115098  12.135  13.740  11.432  0.3234  0.8495  1.0742
65702SOL    HW215099  12.121  13.872  11.360 -0.6385 -0.0099 -0.3586
65703SOL     OW15100   2.111   7.770   3.926  0.5368  0.0262  0.1475
65703SOL    HW115101   2.092   7.708   3.855  1.0416  1.1740 -1.0449
65703SOL    HW215102   2.206   7.773   3.930  0.5405  1.2438 -0.3316
65704SOL     OW15103   9.139   3.741   3.308  0.3543 -0.2366 -0.2744
65704SOL    HW115104   9.202   3.805   3.274  1.8587 -0.7526  1.4037
65704SOL    HW215105   9.138   3.756   3.402 -1.2502 -0.9647 -0.1499
65705SOL     OW15106   7.829   0.357  13.072  0.6172  0.6145 -0.4595
65705SOL    HW115107   7.835   0.452  13.061  2.2709  0.5613 -0.1459
65705SOL    HW215108   7.900   0.322  13.018  1.5652 -0.2889  1.3046
65706SOL     OW15109  12.865  13.261   2.227  0.6561  0.0148  0.7079
65706SOL    HW115110  12.782  13.294   2.192  0.8600  0.4059  0.5907
65706SOL    HW215111  12.850  13.167   2.237  0.2920  0.0360  0.4177
65707SOL     OW15112   0.659   0.945   5.671 -0.2740  0.3737  0.3904
65707SOL    HW115113   0.629   1.021   5.722  0.4670  1.3706 -0.5959
65707SOL    HW215114   0.745   0.925   5.707 -0.9328 -0.7545  1.4074
65708SOL     OW15115   7.797   5.704   0.624 -0.2819 -0.2007 -0.0372
65708SOL    HW115116   7.886   5.740   0.627  1.2047 -3.5058 -0.4148
65708SOL    HW215117   7.761   5.720   0.711  1.2020  0.0418  0.5625
65709SOL     OW15118  13.323   9.530  10.629 -0.0410  0.2200  0.3033
65709SOL    HW115119  13.407   9.546  10.587 -0.1287  0.0881  0.0761
65709SOL    HW215120  13.343   9.471  10.701 -0.2464 -1.5780 -1.0454
65710SOL     OW15121   1.567   8.831   0.570  0.5472  0.1717  0.0639
65710SOL    HW115122   1.577   8.776   0.493  0.6214 -0.8257  0.7645
65710SOL    HW215123   1.483   8.876   0.557 -1.0551 -2.3611  0.7891
65711SOL     OW15124   7.276  10.193  13.798 -0.0760 -0.2060  0.8761
65711SOL    HW115125   7.279  10.104  13.833  1.2011 -0.8312 -0.7089
65711SOL    HW215126   7.250  10.182  13.707 -0.1464  1.0860  0.7272
65712SOL     OW15127  10.312   4.528   8.490  0.1978 -0.3473 -0.3072
65712SOL    HW115128  10.380   4.549   8.554  0.5883 -1.1950 -0.4401
65712SOL    HW215129  10.333   4.440   8.459 -1.2792 -0.8668  0.0664
65713SOL     OW15130   1.508  12.757  13.760 -0.1676 -0.7972 -0.3081
65713SOL    HW115131   1.462  12.675  13.742 -3.2680  0.8343 -0.6027
65713SOL    HW215132   1.460  12.823  13.709  0.7571  1.5397  1.6482
65714SOL     OW15133   3.220   8.815  12.247  0.1684 -0.2351 -0.2062
65714SOL    HW115134   3.245   8.861  12.327  0.2843 -0.6630  0.0100
65714SOL    HW215135   3.270   8.858  12.177 -0.5034  0.6333 -0.1673
65715SOL     OW15136   4.096   8.530   3.187 -0.8104 -0.5297  0.1039
65715SOL    HW115137   4.167   8.501   3.129  1.4055  1.5876  1.5804
65715SOL    HW215138   4.082   8.456   3.246  0.0464 -1.0604 -0.3249
65716SOL     OW15139   3.199  10.504   4.174  0.0611 -0.4366 -0.1415
65716SOL    HW115140   3.111  10.489   4.139  0.0277 -0.0790 -0.2122
65716SOL    HW215141   3.245  10.422   4.159 -0.3419 -0.7189  0.1398
65717SOL     OW15142   0.398   5.477  12.146 -0.1683  0.0066  0.1618
65717SOL    HW115143   0.461   5.405  12.151 -0.4056 -0.1870  0.3884
65717SOL    HW215144   0.423   5.537  12.216 -1.0223 -0.7135  1.1228
65718SOL     OW15145   3.307   7.444   6.209 -0.0446 -0.6222 -0.4040
65718SOL    HW115146   3.214   7.420   6.206 -0.3002  0.1538  0.8204
65718SOL    HW215147   3.308   7.537   6.188  0.3998 -0.5068  0.1283
65719SOL     OW15148  14.057  11.543   2.184 -0.3190  0.3586 -0.6159
65719SOL    HW115149  13.969  11.557   2.149 -0.4429  0.1617 -0.3866
65719SOL    HW215150  14.077  11.625   2.230 -0.2786  0.5007 -0.8881
65720SOL     OW15151  11.957   1.245   5.334  0.1956  0.0494  0.7697
65720SOL    HW115152  12.021   1.181   5.301  1.5739  0.8040  1.8773
65720SOL    HW215153  12.005   1.328   5.336 -0.9868  0.7468  1.1670
65721SOL     OW15154   7.998  11.431   2.767 -0.0525  0.0702 -0.0506
65721SOL    HW115155   8.009  11.525   2.755 -1.2697 -0.0324 -2.7207
65721SOL    HW215156   8.051  11.391   2.698 -1.5957 -1.0605 -0.6573
65722SOL     OW15157   1.501   1.996   0.087 -0.0980  0.1880 -0.1341
65722SOL    HW115158   1.477   2.065   0.149  0.1784  0.5057 -0.3755
65722SOL    HW215159   1.435   2.002   0.018 -1.5095 -1.3558  0.9861
65723SOL     OW15160   5.137  12.318   4.360  0.5866  0.2228 -0.7093
65723SOL    HW115161   5.197  12.247   4.382  0.0128 -0.1719 -0.3830
65723SOL    HW215162   5.081  12.327   4.437 -1.0733 -0.7703 -1.7405
65724SOL     OW15163  13.131  10.349  10.995  0.0860 -0.2454  0.1763
65724SOL    HW115164  13.102  10.298  10.919 -0.8589 -0.3617  0.5955
65724SOL    HW215165  13.187  10.417  10.958  2.4816 -2.3135 -0.2890
65725SOL     OW15166   4.802  11.401   0.489 -0.0711  0.1450 -0.2165
65725SOL    HW115167   4.712  11.373   0.473  0.4892 -0.9069 -1.8212
65725SOL    HW215168   4.820  11.372   0.578 -1.1032 -0.2652 -0.1193
65726SOL     OW15169   9.662  12.065  10.456 -0.2650 -0.4268  0.2152
65726SOL    HW115170   9.572  12.083  10.430 -0.4996  0.0153  1.2858
65726SOL    HW215171   9.662  12.076  10.551  0.9586 -0.2593  0.2106
65727SOL     OW15172   8.657   2.487   8.436  0.1512  0.0766  0.3108
65727SOL    HW115173   8.634   2.401   8.471 -1.0856  0.1840 -0.1930
65727SOL    HW215174   8.589   2.546   8.468  1.0075  0.8822  0.6784
65728SOL     OW15175   9.423  12.126  11.389 -0.3851 -0.2580  0.1652
65728SOL    HW115176   9.453  12.203  11.438  0.9404 -1.1031  0.7605
65728SOL    HW215177   9.441  12.053  11.448 -0.9629 -1.0920 -0.6719
65729SOL     OW15178   7.545   1.378   9.837  0.0871 -0.0888  0.4295
65729SOL    HW115179   7.490   1.370   9.759  0.1969 -0.3074  0.3724
65729SOL    HW215180   7.496   1.332   9.905  0.4778 -0.8322  0.2293
65730SOL     OW15181  10.911   8.581  13.825 -0.0551 -0.1205  0.1280
65730SOL    HW115182  10.916   8.653  13.888  0.5030 -0.3759  0.3925
65730SOL    HW215183  10.868   8.511  13.872  0.1960 -0.2504  0.1685
65731SOL     OW15184  12.776   2.545   7.851 -0.1285  0.3026 -0.4288
65731SOL    HW115185  12.717   2.541   7.926 -1.1989 -0.0857 -1.2676
65731SOL    HW215186  12.852   2.494   7.877 -0.7970 -0.4265  0.1210
65732SOL     OW15187  14.039   7.924   5.500 -0.4147 -0.4178  0.4025
65732SOL    HW115188  14.014   7.953   5.588 -1.8054 -0.7488  0.1398
65732SOL    HW215189  14.034   7.829   5.504  0.6129 -0.4909  0.2558
65733SOL     OW15190  11.225   0.906   9.224 -0.0577 -0.0290  0.2256
65733SOL    HW115191  11.312   0.946   9.224 -0.1993  0.3757 -2.0654
65733SOL    HW215192  11.167   0.974   9.190 -1.3233 -0.2651  1.8027
65734SOL     OW15193   5.626   6.695   0.321  0.4436 -0.6897 -0.4626
65734SOL    HW115194   5.654   6.656   0.238  1.8872 -0.6229 -0.0232
65734SOL    HW215195   5.540   6.733   0.302  0.4721 -1.2379 -1.7520
65735SOL     OW15196   6.774  12.646  11.377 -0.7020  0.7409 -0.1378
65735SOL    HW115197   6.719  12.723  11.392 -0.9334  0.0803  3.1854
65735SOL    HW215198   6.862  12.673  11.405 -0.4317  0.2865 -0.5297
65736SOL     OW15199   9.357   4.170   7.064  0.9600 -0.1456  0.7436
65736SOL    HW115200   9.316   4.133   7.142  0.7773 -0.0530  0.6899
65736SOL    HW215201   9.441   4.205   7.095  0.5060  0.6708  1.0651
65737SOL     OW15202  10.017   7.843  13.843 -0.2863  0.2591  0.7299
65737SOL    HW115203  10.031   7.922  13.895  0.2964  0.7096 -0.0833
65737SOL    HW215204  10.059   7.862  13.759 -0.0106 -0.9677  0.5650
65738SOL     OW15205   4.224   6.308   4.423 -0.0436 -0.0718 -0.6251
65738SOL    HW115206   4.301   6.295   4.477  0.2977  0.9778 -0.8535
65738SOL    HW215207   4.253   6.364   4.351 -0.4072 -1.6159 -2.0729
65739SOL     OW15208   4.119  11.864   4.613  0.0642 -0.0184 -0.0746
65739SOL    HW115209   4.214  11.867   4.601  0.2355  1.2178  1.2897
65739SOL    HW215210   4.093  11.956   4.623 -1.1360 -0.4061  0.5962
65740SOL     OW15211   0.324  12.350   1.599 -0.1269 -0.1567 -0.0825
65740SOL    HW115212   0.316  12.257   1.623  1.5121 -0.3005  0.0509
65740SOL    HW215213   0.386  12.351   1.526 -0.5534  0.7940 -0.4474
65741SOL     OW15214   2.010   5.416  11.532  0.9356 -0.2229 -0.0869
65741SOL    HW115215   1.951   5.369  11.472 -0.9907  0.9326  0.8020
65741SOL    HW215216   2.066   5.348  11.568 -0.2667 -1.5062 -0.5158
65742SOL     OW15217   5.327   3.180  12.218 -0.2108 -0.3349 -0.7729
65742SOL    HW115218   5.412   3.188  12.261 -1.1668  0.2842  1.1118
65742SOL    HW215219   5.342   3.213  12.129  1.8092 -1.5382 -0.9322
65743SOL     OW15220  10.164  11.951   8.472 -0.1089 -0.3743  0.1165
65743SOL    HW115221  10.108  12.025   8.494  1.1337  0.0215  2.2115
65743SOL    HW215222  10.105  11.888   8.431 -1.8973  0.4208  1.3199
65744SOL     OW15223  13.823  13.489   4.004 -0.4356  0.0628 -1.0523
65744SOL    HW115224  13.846  13.397   4.021  0.4697  0.1572 -1.6866
65744SOL    HW215225  13.745  13.504   4.057  1.3730 -0.0466  1.8404
65745SOL     OW15226  11.968  13.567   3.392 -0.4192 -0.2519 -0.2370
65745SOL    HW115227  11.873  13.563   3.405 -0.4943  1.0092 -0.2319
65745SOL    HW215228  11.988  13.661   3.391  0.9389 -0.5024  0.5465
65746SOL     OW15229   9.017   6.141  13.500  0.0922 -0.5005  0.3429
65746SOL    HW115230   8.980   6.127  13.587 -1.2376 -2.3744 -0.4767
65746SOL    HW215231   8.959   6.205  13.459 -0.6455 -1.3730  0.0208
65747SOL     OW15232   3.292   0.153   2.070 -0.5106 -0.3717 -0.0440
65747SOL    HW115233   3.205   0.125   2.098 -1.8248 -0.8780 -4.0168
65747SOL    HW215234   3.315   0.224   2.130 -3.9744  0.2519  0.7622
65748SOL     OW15235   8.994   2.447   8.177 -0.3774  0.3722 -0.6125
65748SOL    HW115236   8.941   2.376   8.212  1.5459 -0.6978  0.2973
65748SOL    HW215237   8.971   2.523   8.230  0.0047 -0.4135  0.7303
65749SOL     OW15238   1.708  13.676   0.803 -0.2626 -0.3250  0.0584
65749SOL    HW115239   1.759  13.716   0.874  0.1547 -1.2651  0.2928
65749SOL    HW215240   1.768  13.672   0.729 -0.5741  0.2751 -0.2361
65750SOL     OW15241   6.197   3.033   0.152 -0.3999 -0.8070 -0.3268
65750SOL    HW115242   6.291   3.049   0.156 -0.6781  1.0976 -0.4580
65750SOL    HW215243   6.169   3.037   0.244 -0.0689 -3.7617 -0.0008
65751SOL     OW15244  10.990   5.412   1.409  0.2547 -1.0250 -0.3679
65751SOL    HW115245  11.052   5.483   1.393  0.9331 -1.2265  1.2169
65751SOL    HW215246  10.904   5.455   1.409  0.6659 -0.1597  0.6773
65752SOL     OW15247   9.027   1.198  10.601  0.7003  0.4805  0.5389
65752SOL    HW115248   8.984   1.237  10.677  1.9727  0.8208  1.1010
65752SOL    HW215249   9.112   1.240  10.596  0.7092  0.3652 -1.0084
65753SOL     OW15250   9.871   9.625   4.148  0.6740 -0.1875  0.4293
65753SOL    HW115251   9.824   9.641   4.230 -0.5424  1.8517 -0.5754
65753SOL    HW215252   9.961   9.650   4.166  0.1379  1.6345  0.8181
65754SOL     OW15253   2.162   5.400   3.772 -0.2081 -0.0257 -0.2117
65754SOL    HW115254   2.209   5.400   3.855 -0.3497 -0.6677 -0.1258
65754SOL    HW215255   2.141   5.492   3.756 -0.4662  0.0655  0.6273
65755SOL     OW15256  11.117  13.301   9.215 -0.2225 -0.1701 -0.0491
65755SOL    HW115257  11.201  13.264   9.239  0.2433  0.7848 -0.1442
65755SOL    HW215258  11.056  13.227   9.215  0.4923 -0.7667  0.6089
65756SOL     OW15259   5.848  13.730   0.975  0.0915  0.3364 -0.0168
65756SOL    HW115260   5.896  13.739   0.892  2.2587  1.2067  1.2245
65756SOL    HW215261   5.830  13.820   1.002  1.3947  0.1972  1.4741
65757SOL     OW15262  12.114   0.915   9.068 -0.5221  0.2765 -0.0793
65757SOL    HW115263  12.024   0.912   9.099 -0.6703 -1.5377 -0.5497
65757SOL    HW215264  12.107   0.942   8.976 -0.9196 -2.4661 -0.9518
65758SOL     OW15265  13.103  13.392   3.885  0.3561  0.5187 -0.3381
65758SOL    HW115266  13.143  13.317   3.841  0.3005  0.0271  0.4325
65758SOL    HW215267  13.009  13.372   3.887  0.5250 -0.3314  1.5554
65759SOL     OW15268   3.324   9.523  10.931  0.1166 -0.2020 -0.7359
65759SOL    HW115269   3.306   9.453  10.994 -0.2003  1.4992  1.1534
65759SOL    HW215270   3.250   9.583  10.940  0.9914  1.0043 -1.4046
65760SOL     OW15271   6.090   6.972  12.814 -0.2099 -0.0677  0.6186
65760SOL    HW115272   6.083   6.887  12.771  2.0278 -0.2948  0.6122
65760SOL    HW215273   6.043   6.961  12.897 -1.1468 -0.8412  0.0098
65761SOL     OW15274   4.624   5.317   3.854 -0.1587  0.2549  0.0603
65761SOL    HW115275   4.695   5.336   3.793 -0.2408  0.5149  0.0419
65761SOL    HW215276   4.665   5.317   3.940 -0.1843  0.6984  0.0779
65762SOL     OW15277   2.563   7.651  11.351  0.0095 -0.5718  0.2028
65762SOL    HW115278   2.623   7.586  11.388 -0.1945 -0.4824  0.7059
65762SOL    HW215279   2.542   7.709  11.425 -0.7435 -0.6474  0.0623
65763SOL     OW15280   1.852  13.230   3.911  0.4204  0.1727 -0.2555
65763SOL    HW115281   1.874  13.168   3.841  2.1225 -0.2506  0.5948
65763SOL    HW215282   1.862  13.179   3.992  0.4423  1.1780  0.3905
65764SOL     OW15283   1.727  11.393   4.052 -0.2607  0.0893  0.6811
65764SOL    HW115284   1.737  11.439   4.135 -0.9760  1.3812  0.0883
65764SOL    HW215285   1.632  11.389   4.037 -0.3613 -2.9466  1.3999
65765SOL     OW15286   0.330   0.614   1.896 -0.2107  0.1623  0.0162
65765SOL    HW115287   0.409   0.653   1.933 -1.1944  2.1527  0.1433
65765SOL    HW215288   0.303   0.676   1.828 -1.0738 -1.0388 -0.7715
65766SOL     OW15289   1.433   7.306  12.181 -0.4517  0.4201  0.8672
65766SOL    HW115290   1.497   7.309  12.110 -0.7384 -0.5610  0.5563
65766SOL    HW215291   1.432   7.395  12.216 -0.0278  0.8186 -0.1065
65767SOL     OW15292   0.136   0.480  11.434  0.1971  0.0300  0.0815
65767SOL    HW115293   0.211   0.427  11.405  0.2661  0.2673 -0.1780
65767SOL    HW215294   0.083   0.420  11.486  0.4253 -0.2149  0.0345
65768SOL     OW15295  12.727   7.645  10.140 -0.2246  0.5866 -0.3177
65768SOL    HW115296  12.665   7.712  10.167 -0.7560 -0.1835  0.4269
65768SOL    HW215297  12.810   7.670  10.182 -0.8251 -0.1111  1.4027
65769SOL     OW15298   3.612   8.575   3.176  0.2382  0.1572  0.2347
65769SOL    HW115299   3.535   8.530   3.211  1.1972 -1.0067  0.9390
65769SOL    HW215300   3.610   8.662   3.216  1.2858 -1.1159  3.3535
65770SOL     OW15301  10.930   8.499  12.135  0.6557 -0.3111  0.0363
65770SOL    HW115302  10.860   8.526  12.195  0.8142 -0.0985  0.1283
65770SOL    HW215303  10.901   8.531  12.049  1.4187  1.2561  0.3382
65771SOL     OW15304  13.638   7.890  12.444 -0.4357  0.6135 -0.4194
65771SOL    HW115305  13.675   7.822  12.501 -0.2080 -0.1068 -1.4010
65771SOL    HW215306  13.553   7.854  12.417 -1.1764  1.5659  0.5517
65772SOL     OW15307  12.542   1.271  13.867  1.3572  1.1557  0.8201
65772SOL    HW115308  12.458   1.224  13.871  1.9042  0.0434 -0.1171
65772SOL    HW215309  12.592   1.234  13.940  1.0490  1.8196  1.3800
65773SOL     OW15310   6.141   0.509   8.341  0.1569  0.1286  0.1200
65773SOL    HW115311   6.094   0.591   8.354  0.4560  0.5492 -1.3597
65773SOL    HW215312   6.198   0.502   8.418 -2.0962 -0.2797  1.8333
65774SOL     OW15313   4.166  13.305   5.120  0.2249 -0.5773  0.4037
65774SOL    HW115314   4.189  13.277   5.031 -0.1216  2.0404 -0.6188
65774SOL    HW215315   4.076  13.275   5.132  0.1612 -0.6787 -0.2781
65775SOL     OW15316   1.737   5.836  10.158 -0.5630 -0.4874  0.5668
65775SOL    HW115317   1.707   5.809  10.072  0.5729  1.2727 -0.4571
65775SOL    HW215318   1.664   5.887  10.194 -0.3442  0.4022 -0.2043
65776SOL     OW15319   0.645   4.784   6.501  0.1346  0.0916  0.4490
65776SOL    HW115320   0.628   4.831   6.420 -1.0265 -1.6836 -0.3940
65776SOL    HW215321   0.569   4.805   6.557  0.1822  0.1084  0.5082
65777SOL     OW15322   2.527  13.648   2.407  0.2932 -0.1654 -0.3990
65777SOL    HW115323   2.606  13.673   2.358 -0.3578 -0.7455 -1.8149
65777SOL    HW215324   2.457  13.697   2.365 -0.7861 -3.0728 -2.2760
65778SOL     OW15325  10.245   2.153   3.716  0.0895  0.5710  0.1375
65778SOL    HW115326  10.215   2.110   3.795 -0.9810  0.0159 -0.5466
65778SOL    HW215327  10.170   2.205   3.687 -0.2264 -0.7089 -1.5215
65779SOL     OW15328   0.184  11.462   1.426 -0.2026  0.0416  0.3566
65779SOL    HW115329   0.188  11.540   1.481  0.0185  1.1312 -1.1243
65779SOL    HW215330   0.275  11.442   1.405 -0.3277  0.9407 -1.2762
65780SOL     OW15331   0.638   2.809   2.808  0.0238  0.2834  0.6049
65780SOL    HW115332   0.666   2.728   2.850 -2.4269 -0.9268  0.0497
65780SOL    HW215333   0.660   2.878   2.870  1.8674 -0.8057  1.2280
65781SOL     OW15334  12.684   8.397   9.443 -0.1099  0.2929 -0.1265
65781SOL    HW115335  12.708   8.365   9.531  1.7951  1.9040  0.0000
65781SOL    HW215336  12.634   8.477   9.460 -1.7057 -0.5863 -0.5093
65782SOL     OW15337   5.221  10.894   6.128  0.3254  0.1590  0.2224
65782SOL    HW115338   5.281  10.914   6.200  0.9480  2.9957 -0.9100
65782SOL    HW215339   5.275  10.848   6.064  0.9998  1.4408 -0.1827
65783SOL     OW15340  11.096   6.746   2.309 -0.0376 -0.2641  0.3721
65783SOL    HW115341  11.034   6.818   2.316 -1.8813 -1.7853  0.5401
65783SOL    HW215342  11.090   6.717   2.218 -0.1680 -0.9263  0.5882
65784SOL     OW15343   1.486   7.031   6.938  0.1623  0.0610  0.4481
65784SOL    HW115344   1.441   7.050   7.020 -0.4052  0.4623  0.0561
65784SOL    HW215345   1.415   7.012   6.876  0.5965 -0.6057  0.1408
65785SOL     OW15346   6.519   6.910   1.256 -0.1428  0.0996  0.4192
65785SOL    HW115347   6.561   6.948   1.334  1.5339 -0.3300 -0.2236
65785SOL    HW215348   6.558   6.823   1.248 -0.8293 -0.1436 -0.5047
65786SOL     OW15349  12.861   1.061   6.562  0.0146 -0.3849  0.1096
65786SOL    HW115350  12.880   1.154   6.548  0.0710 -0.2313  1.1169
65786SOL    HW215351  12.774   1.049   6.524 -0.7043  0.4823  1.3959
65787SOL     OW15352   1.295   9.400   3.357  0.2886 -0.2793 -0.4788
65787SOL    HW115353   1.312   9.306   3.357  1.5976 -0.1025  1.5526
65787SOL    HW215354   1.297   9.424   3.264  1.7164 -1.9748 -0.9512
65788SOL     OW15355  12.020   3.831  13.264 -0.6120  0.3456 -0.0842
65788SOL    HW115356  11.936   3.825  13.219  0.3043  0.2578 -1.8247
65788SOL    HW215357  12.034   3.744  13.301 -1.1444  0.2881 -0.0078
65789SOL     OW15358   4.422   1.363   3.592  0.0241 -0.0940  0.4149
65789SOL    HW115359   4.381   1.444   3.560 -0.4840 -1.4576 -2.8599
65789SOL    HW215360   4.516   1.380   3.587 -0.0496  0.0329 -1.3390
65790SOL     OW15361  13.816   9.269   2.554 -0.0402 -0.2917 -0.3890
65790SOL    HW115362  13.905   9.288   2.584 -0.3969  0.6893  0.0820
65790SOL    HW215363  13.763   9.339   2.592 -1.2614 -1.7040  0.6028
65791SOL     OW15364  13.572   8.809   5.587 -0.0888 -0.7867 -0.1911
65791SOL    HW115365  13.592   8.755   5.511 -0.0370 -0.1495 -0.6359
65791SOL    HW215366  13.595   8.898   5.560 -3.3853  0.0309 -0.6969
65792SOL     OW15367   9.659  11.845   0.242 -0.1520 -0.1519  0.0666
65792SOL    HW115368   9.577  11.889   0.220  1.3884  3.8328  1.3646
65792SOL    HW215369   9.701  11.828   0.158 -0.9748  0.5927 -0.5088
65793SOL     OW15370   2.236   5.316   0.525  0.6365  0.4234 -0.3584
65793SOL    HW115371   2.188   5.363   0.593 -1.5139 -0.8427 -0.9222
65793SOL    HW215372   2.224   5.369   0.446  2.4922  1.4942  0.0282
65794SOL     OW15373  13.898  12.535   3.134 -0.1890  0.3898  0.0948
65794SOL    HW115374  13.809  12.561   3.114 -0.1569 -0.5538 -1.4232
65794SOL    HW215375  13.951  12.613   3.117 -0.4979  0.3787 -0.9576
65795SOL     OW15376  10.836   3.707  10.878  0.6792  0.2615  0.1146
65795SOL    HW115377  10.930   3.690  10.874  0.4883 -0.6489 -1.0191
65795SOL    HW215378  10.815   3.746  10.793 -0.1657 -0.6902 -0.1370
65796SOL     OW15379  12.178   2.730  12.726 -0.3262 -0.0710  0.4252
65796SOL    HW115380  12.163   2.775  12.643  1.7325 -1.8874 -1.0281
65796SOL    HW215381  12.129   2.648  12.718 -0.7846  0.0903  1.3904
65797SOL     OW15382  10.357  12.905   7.781 -0.3148 -0.0210  0.0062
65797SOL    HW115383  10.356  13.001   7.777  0.8248 -0.0373 -1.2294
65797SOL    HW215384  10.358  12.877   7.689 -0.6726 -1.2187  0.3526
65798SOL     OW15385   6.066  11.534   2.084 -0.6761 -0.7547 -0.3982
65798SOL    HW115386   6.098  11.612   2.130 -0.6389 -1.5608  1.0165
65798SOL    HW215387   6.146  11.487   2.059 -0.6522  0.2637 -2.4482
65799SOL     OW15388   7.783   5.208  14.008 -0.1207 -0.1622 -0.0346
65799SOL    HW115389   7.697   5.179  13.977 -0.3264  1.2782 -0.9307
65799SOL    HW215390   7.766   5.293  14.050  0.7446 -0.2554  0.5341
65800SOL     OW15391  13.389  12.796  11.099  0.2584 -0.3902  0.5903
65800SOL    HW115392  13.399  12.796  11.004  1.0305 -0.9009  0.6579
65800SOL    HW215393  13.315  12.738  11.116 -0.4150  0.3542  0.2665
65801SOL     OW15394   9.824   8.542  14.092  0.5407 -0.2411  0.1540
65801SOL    HW115395   9.745   8.593  14.076  0.9941  0.5157  0.2775
65801SOL    HW215396   9.800   8.483  14.164  0.0833 -0.0370  0.1727
65802SOL     OW15397   3.641   8.536  10.052  0.1219 -1.0223 -0.6613
65802SOL    HW115398   3.626   8.567   9.963 -1.4203  0.3191 -0.0110
65802SOL    HW215399   3.702   8.600  10.090 -3.0420  1.5334  0.6735
65803SOL     OW15400   2.915  13.605   5.502 -0.0353  0.3634  0.2287
65803SOL    HW115401   2.902  13.551   5.424  0.7361 -2.6112  1.9868
65803SOL    HW215402   2.826  13.631   5.527 -0.4311  0.0426 -0.7549
65804SOL     OW15403  13.530  11.367  13.750 -0.1598  0.3038 -0.6368
65804SOL    HW115404  13.454  11.392  13.697 -1.1323 -0.9066  0.1420
65804SOL    HW215405  13.496  11.304  13.813  1.2788  0.5743  0.4658
65805SOL     OW15406   4.758  12.359   9.278  0.3493 -0.6976 -0.4377
65805SOL    HW115407   4.697  12.344   9.206  1.2298  0.5664 -1.4980
65805SOL    HW215408   4.703  12.363   9.356 -0.7274 -1.2300 -1.1510
65806SOL     OW15409   5.508  13.767   8.404 -0.1365  0.4193 -0.1002
65806SOL    HW115410   5.523  13.677   8.435  2.2200 -0.2622 -2.7178
65806SOL    HW215411   5.574  13.819   8.449 -1.1268  0.7693  0.9831
65807SOL     OW15412  10.067  10.631   0.511 -0.6625  0.3576 -0.1027
65807SOL    HW115413   9.985  10.677   0.492 -0.9703 -0.1925 -0.1245
65807SOL    HW215414  10.130  10.701   0.528 -1.2532  0.7775  0.3933
65808SOL     OW15415  11.185   1.827   7.083 -0.3124  0.0232  0.3181
65808SOL    HW115416  11.211   1.812   7.173  0.2795 -1.1487 -0.0258
65808SOL    HW215417  11.267   1.829   7.034 -0.6942 -1.1421 -0.4271
65809SOL     OW15418   2.489   9.169  11.695 -0.6822 -0.3423  0.2783
65809SOL    HW115419   2.459   9.129  11.777 -1.8187  0.2568  0.1694
65809SOL    HW215420   2.431   9.133  11.628 -0.0069 -0.5273 -0.2178
65810SOL     OW15421   0.589   6.212  12.581  0.3584  0.4100  0.1518
65810SOL    HW115422   0.530   6.259  12.639  0.4652  0.5248  0.1697
65810SOL    HW215423   0.541   6.202  12.499 -0.2092 -0.7041  0.5967
65811SOL     OW15424   5.792  12.185   8.319 -0.3588 -0.5963 -0.5107
65811SOL    HW115425   5.760  12.107   8.363 -2.6476  0.8909  0.6809
65811SOL    HW215426   5.712  12.230   8.288  0.9783  0.1226 -3.2690
65812SOL     OW15427   3.654  11.119  11.055 -0.2924  0.7895 -0.1857
65812SOL    HW115428   3.655  11.211  11.080 -1.6225  0.6403  0.5265
65812SOL    HW215429   3.746  11.095  11.046  0.0948  1.9620  0.4424
65813SOL     OW15430  11.745   1.829   4.768  0.5085 -0.3084  0.3251
65813SOL    HW115431  11.708   1.884   4.698  2.3615  1.2069  0.4726
65813SOL    HW215432  11.711   1.867   4.849  0.4202 -0.4518  0.3553
65814SOL     OW15433  13.098   8.495   6.036 -0.2272 -0.2001 -0.1810
65814SOL    HW115434  13.141   8.440   5.970  1.4607  1.0779 -0.2334
65814SOL    HW215435  13.029   8.541   5.988 -1.5809 -2.0907 -0.1618
65815SOL     OW15436  11.094  13.469   3.265 -0.3850  0.0349  0.1555
65815SOL    HW115437  11.086  13.435   3.176 -0.9596 -0.5313  0.4171
65815SOL    HW215438  11.178  13.515   3.266  0.3708 -1.3132 -0.2248
65816SOL     OW15439   6.031   0.459   1.248 -0.6308 -0.6646 -0.0721
65816SOL    HW115440   6.047   0.423   1.336  0.3799 -1.1208 -0.4282
65816SOL    HW215441   5.965   0.402   1.211 -0.6144 -0.8417  0.1663
65817SOL     OW15442   1.162   5.693   6.781 -0.2598 -0.1033 -0.2635
65817SOL    HW115443   1.133   5.783   6.764 -0.8507  0.0451  1.3281
65817SOL    HW215444   1.098   5.639   6.735 -1.5740  0.2808  1.0226
65818SOL     OW15445   6.841   0.019  10.125  0.2148 -0.2817  0.2704
65818SOL    HW115446   6.893   0.007  10.205 -0.2331 -1.9806  0.3375
65818SOL    HW215447   6.817  -0.070  10.098 -2.0601  0.3901 -0.1549
65819SOL     OW15448   1.431  11.880  10.499  0.8575 -0.0324 -0.3616
65819SOL    HW115449   1.398  11.948  10.558  0.9754 -0.0394 -0.2879
65819SOL    HW215450   1.441  11.924  10.415  1.3138  0.1406 -0.2169
65820SOL     OW15451   5.217  12.341   4.706  0.2199 -0.2345  0.6121
65820SOL    HW115452   5.270  12.340   4.786  0.2693 -0.6827  0.5751
65820SOL    HW215453   5.280  12.327   4.635  0.5585  2.5321  0.2451
65821SOL     OW15454   5.347  13.690   1.146  0.0051 -0.3866  0.9461
65821SOL    HW115455   5.324  13.731   1.063 -2.5571 -2.0942  0.6967
65821SOL    HW215456   5.439  13.715   1.161  0.6850 -0.3015 -2.5438
65822SOL     OW15457   4.565   8.156  12.515 -0.5232  0.2650 -0.4846
65822SOL    HW115458   4.475   8.127  12.531  0.0586 -1.1170  0.4582
65822SOL    HW215459   4.565   8.247  12.546 -1.4930  0.1632 -0.1217
65823SOL     OW15460  11.811   3.875   8.344 -0.0914  0.4396  0.0379
65823SOL    HW115461  11.747   3.805   8.332 -0.3718  0.7374 -0.2605
65823SOL    HW215462  11.811   3.893   8.438  1.6165 -1.4629  0.4556
65824SOL     OW15463   3.498  13.809   4.233  0.0527  0.5454 -0.6309
65824SOL    HW115464   3.454  13.824   4.316  1.2718 -0.9322  0.3477
65824SOL    HW215465   3.591  13.811   4.255  0.3941 -0.0845 -1.9155
65825SOL     OW15466  11.548   0.761   9.807 -0.5497  0.2373 -0.6205
65825SOL    HW115467  11.507   0.840   9.772  0.9540  1.5821  0.4896
65825SOL    HW215468  11.489   0.733   9.877 -1.7112 -0.3594 -1.8082
65826SOL     OW15469   3.786   8.443  11.494  1.3359  0.0797  0.2524
65826SOL    HW115470   3.735   8.455  11.413 -0.0591 -2.6189  0.6192
65826SOL    HW215471   3.749   8.506  11.555 -0.3207 -0.5121 -0.0818
65827SOL     OW15472   5.076   8.914   5.060  0.1781 -0.3464  0.3498
65827SOL    HW115473   5.054   9.002   5.029 -1.7372 -0.6659  0.6520
65827SOL    HW215474   5.011   8.858   5.019  0.1138 -1.3332  1.7374
65828SOL     OW15475   8.769   9.513   1.846  0.0344 -0.3173  0.5888
65828SOL    HW115476   8.694   9.537   1.900 -0.7848  0.1865 -0.7361
65828SOL    HW215477   8.843   9.559   1.886 -0.8182  1.2620  0.4303
65829SOL     OW15478   4.485   4.227   3.858 -0.4159 -0.4541  0.3816
65829SOL    HW115479   4.492   4.315   3.897  2.6719  0.1493 -1.1829
65829SOL    HW215480   4.441   4.241   3.774  0.4927 -0.2574 -0.0812
65830SOL     OW15481   9.586   8.501   8.924  0.2706  0.0682  0.7567
65830SOL    HW115482   9.493   8.511   8.905 -0.1371 -0.6109  2.2145
65830SOL    HW215483   9.602   8.558   8.999  1.2690  0.9050 -0.0625
65831SOL     OW15484   3.317   6.732  13.436 -0.4032  0.2332  0.0342
65831SOL    HW115485   3.311   6.826  13.452  3.8656  0.6696  0.1123
65831SOL    HW215486   3.315   6.723  13.341 -0.8669  0.3571  0.0289
65832SOL     OW15487   0.558   8.748   0.463  0.1669 -0.0452  0.1239
65832SOL    HW115488   0.649   8.755   0.432 -0.0630 -0.1293 -0.5922
65832SOL    HW215489   0.563   8.770   0.556  1.0264 -0.7565  0.2595
65833SOL     OW15490   4.327   1.132   1.162 -0.0586  0.5494  0.1220
65833SOL    HW115491   4.391   1.175   1.219 -0.2214 -0.0053  0.7488
65833SOL    HW215492   4.345   1.038   1.173 -1.6229  0.3226  1.1199
65834SOL     OW15493  13.741  10.863   2.097  0.4995  0.0086  0.2335
65834SOL    HW115494  13.746  10.942   2.043  0.4861  1.5329  2.3481
65834SOL    HW215495  13.647  10.842   2.100  0.0329  2.0269  2.4342
65835SOL     OW15496  11.296  12.459  13.117  0.7041 -0.1219  0.2238
65835SOL    HW115497  11.308  12.365  13.112  0.8491 -0.1601  1.2169
65835SOL    HW215498  11.262  12.483  13.030 -1.8006 -1.4258  0.7484
65836SOL     OW15499  11.370   2.499   5.474 -0.4743 -0.0205 -0.3900
65836SOL    HW115500  11.380   2.493   5.569 -2.4468  0.0590 -0.1392
65836SOL    HW215501  11.294   2.445   5.454 -0.0406 -0.1065 -1.9585
65837SOL     OW15502  14.054   6.944  10.629 -0.4846  0.0821  0.2424
65837SOL    HW115503  14.030   7.015  10.688 -1.5100 -0.2225  0.2276
65837SOL    HW215504  14.127   6.900  10.671  1.0185  1.8921 -0.3624
65838SOL     OW15505   0.452  12.655   7.925  0.1892  0.7307 -0.0400
65838SOL    HW115506   0.438  12.560   7.919 -0.5474  0.7284  1.2920
65838SOL    HW215507   0.393  12.692   7.860  1.9843  0.2277 -2.0851
65839SOL     OW15508   9.823   7.541   1.948 -0.4923 -0.0946 -0.1834
65839SOL    HW115509   9.886   7.586   2.004 -0.4032 -0.5321  0.0688
65839SOL    HW215510   9.871   7.466   1.914 -1.2298 -1.1132  0.9549
65840SOL     OW15511   5.455  12.974   4.247 -0.1685  0.2040  0.4778
65840SOL    HW115512   5.537  12.944   4.285 -0.0268  0.3507  0.2943
65840SOL    HW215513   5.393  12.904   4.266  0.2101 -0.3232 -0.1372
65841SOL     OW15514   9.391  12.795   9.628 -0.1295 -0.5965  0.2841
65841SOL    HW115515   9.424  12.777   9.540  0.1323 -2.4279  0.7299
65841SOL    HW215516   9.299  12.818   9.615  0.2735  0.6064 -0.5850
65842SOL     OW15517  13.346   8.152   2.868 -0.1035 -0.0686  0.1833
65842SOL    HW115518  13.372   8.132   2.778  0.2682 -0.6792  0.4254
65842SOL    HW215519  13.307   8.240   2.862  0.8705  0.3465 -0.3926
65843SOL     OW15520   1.358   7.861   0.969 -0.0718  0.1621 -0.3743
65843SOL    HW115521   1.279   7.893   1.012 -0.7696 -1.3450 -0.4584
65843SOL    HW215522   1.429   7.890   1.025 -0.7053  1.1926 -0.0707
65844SOL     OW15523  13.922  13.176   5.732  0.1297  0.3746  0.6305
65844SOL    HW115524  13.852  13.122   5.767  1.5885 -2.2409 -0.1566
65844SOL    HW215525  13.909  13.173   5.637 -0.2319  2.1926  0.5888
65845SOL     OW15526  12.192   6.562   3.839  0.1812 -0.2279 -0.6048
65845SOL    HW115527  12.114   6.617   3.836  0.0022 -0.4978 -0.9144
65845SOL    HW215528  12.188   6.518   3.924 -0.7550 -1.3340 -1.2046
65846SOL     OW15529   1.477  13.523   7.986  0.5736 -0.1056  0.1486
65846SOL    HW115530   1.494  13.592   8.050  2.2155 -0.5149  0.2062
65846SOL    HW215531   1.540  13.454   8.008 -1.9685 -2.3142  1.0562
65847SOL     OW15532  14.033   9.507   1.200  0.2916  0.1809  0.7462
65847SOL    HW115533  14.033   9.413   1.218  1.0280  0.0123 -0.0487
65847SOL    HW215534  13.951   9.523   1.154  0.1375 -0.0591  0.9337
65848SOL     OW15535   5.747   6.938  12.753  0.2508 -0.2863  0.0531
65848SOL    HW115536   5.794   6.995  12.691  2.9224 -0.2681  1.9004
65848SOL    HW215537   5.661   6.978  12.762  0.5219  0.9034 -2.0126
65849SOL     OW15538   7.406  13.951   0.488 -0.2803 -0.5067  0.0960
65849SOL    HW115539   7.368  14.038   0.482  0.4518 -0.0871  1.1325
65849SOL    HW215540   7.382  13.920   0.576  0.7955 -0.6872  0.3401
65850SOL     OW15541   5.391   7.990   9.232  0.3898 -0.2504  0.3944
65850SOL    HW115542   5.317   7.949   9.188  1.3989 -1.5739 -0.1452
65850SOL    HW215543   5.442   8.031   9.162  3.2238 -4.2705 -0.2472
65851SOL     OW15544   2.169  12.669  10.937  0.2396  0.1796  0.1077
65851SOL    HW115545   2.079  12.696  10.915 -0.2035 -0.4872  1.0261
65851SOL    HW215546   2.180  12.695  11.028  0.5895 -0.7344  0.3347
65852SOL     OW15547   7.950   3.215  12.441  0.4387  0.0832  0.4740
65852SOL    HW115548   7.969   3.252  12.527  2.1347 -0.2757  0.2865
65852SOL    HW215549   8.002   3.135  12.437 -0.0375 -0.1952 -0.6866
65853SOL     OW15550  13.624   2.593   1.734 -0.1871  0.0175  0.0309
65853SOL    HW115551  13.672   2.514   1.708  1.0339  0.2488  1.4293
65853SOL    HW215552  13.645   2.657   1.666 -2.3529 -1.1908 -1.9342
65854SOL     OW15553  12.603   9.137   2.224 -0.3255  0.4707 -0.7637
65854SOL    HW115554  12.510   9.157   2.215 -0.4496 -0.3107 -1.2756
65854SOL    HW215555  12.606   9.061   2.282 -0.0144  0.4184 -0.8482
65855SOL     OW15556  11.384   6.019   2.763 -0.4622  0.0005  0.3684
65855SOL    HW115557  11.437   6.021   2.683  0.9833  2.2813  1.2795
65855SOL    HW215558  11.320   6.089   2.752  0.2750  0.8866  1.5091
65856SOL     OW15559   2.028   4.986  10.232  0.2575  0.2414 -0.1403
65856SOL    HW115560   1.981   5.056  10.276 -0.1876 -0.0423 -0.1606
65856SOL    HW215561   1.982   4.974  10.149 -2.5665 -3.0999  1.6578
65857SOL     OW15562   2.248  14.028  10.268 -0.2088  0.3994 -0.0348
65857SOL    HW115563   2.232  14.075  10.350 -2.1375  0.5920 -0.4583
65857SOL    HW215564   2.241  14.095  10.200 -1.6158 -0.2102 -0.5418
65858SOL     OW15565  12.493   7.989   1.423 -0.1123  0.0063  0.1283
65858SOL    HW115566  12.567   8.024   1.472  1.0530 -1.7839 -0.2648
65858SOL    HW215567  12.481   8.051   1.350  0.7626  0.5004  0.3918
65859SOL     OW15568   5.661   5.725   8.247  0.2858  0.1860  0.1508
65859SOL    HW115569   5.719   5.662   8.204 -0.0910  0.4342 -0.7443
65859SOL    HW215570   5.573   5.689   8.236  0.1885  0.2283  0.7649
65860SOL     OW15571   1.282   9.561   0.325 -0.3735  0.1579 -0.0676
65860SOL    HW115572   1.329   9.496   0.272 -3.4179 -2.5293  0.2638
65860SOL    HW215573   1.195   9.565   0.286 -0.4364  3.9234  0.1599
65861SOL     OW15574   2.751  10.858  12.853 -0.4240  0.1133 -0.1449
65861SOL    HW115575   2.787  10.863  12.764  0.4128  1.1964  0.2391
65861SOL    HW215576   2.663  10.895  12.844  0.1749  1.5526 -0.2696
65862SOL     OW15577  11.742  13.484   1.977  0.3891  0.6921  0.0168
65862SOL    HW115578  11.655  13.465   2.011 -0.0586  0.5542 -1.1484
65862SOL    HW215579  11.756  13.419   1.908  0.6246  1.8502 -1.0850
65863SOL     OW15580   3.811   7.745   1.122  0.1741 -0.8592 -0.2186
65863SOL    HW115581   3.891   7.727   1.172 -1.1805 -0.6187  2.1472
65863SOL    HW215582   3.740   7.711   1.176 -1.6292  1.9765 -0.6243
65864SOL     OW15583  10.131  13.755   4.429  0.7783 -0.6800  0.5095
65864SOL    HW115584  10.144  13.661   4.421  0.9150 -0.5921 -0.4469
65864SOL    HW215585  10.046  13.772   4.388  0.4479 -0.4696  1.2729
65865SOL     OW15586  10.844   2.386  13.065  0.5959  0.1226 -0.6090
65865SOL    HW115587  10.884   2.420  12.985  0.6242 -1.1827 -1.1709
65865SOL    HW215588  10.753   2.416  13.061  0.3230 -0.8171 -1.6682
65866SOL     OW15589   1.472  11.020   1.168  0.3668 -0.3763 -0.3387
65866SOL    HW115590   1.408  10.978   1.225 -1.6383  3.0071  0.2414
65866SOL    HW215591   1.517  11.083   1.224  0.1737  1.2208 -1.8661
65867SOL     OW15592  13.382   1.402  10.792 -0.2890  0.3305  0.4508
65867SOL    HW115593  13.322   1.452  10.736 -1.5831 -1.8942 -0.2637
65867SOL    HW215594  13.325   1.343  10.841  1.1308 -0.0896  1.6686
65868SOL     OW15595  13.216   3.049   0.978  0.0461  0.1267  0.2512
65868SOL    HW115596  13.159   3.124   0.965  0.9422  0.8064  0.1254
65868SOL    HW215597  13.166   2.974   0.946 -0.4823  0.7984 -0.5133
65869SOL     OW15598   7.176  14.084   1.586 -0.2591  0.1319  0.0145
65869SOL    HW115599   7.108  14.104   1.521  0.2345  0.9602 -0.2590
65869SOL    HW215600   7.145  14.124   1.667 -0.2854  0.1635 -0.0114
65870SOL     OW15601  14.064   4.719  13.090  0.3591  0.6638  0.3844
65870SOL    HW115602  14.039   4.639  13.044  2.1456  0.0644  0.3986
65870SOL    HW215603  14.009   4.787  13.050 -1.0725 -0.5074  0.2586
65871SOL     OW15604   0.817   2.632   3.487  0.1692 -0.3463 -0.0478
65871SOL    HW115605   0.911   2.649   3.476 -0.1641  1.9390  0.0478
65871SOL    HW215606   0.778   2.719   3.492 -1.5602 -1.1587  3.5715
65872SOL     OW15607   8.456   0.854   6.733 -0.5926  0.1319 -0.5347
65872SOL    HW115608   8.456   0.943   6.768 -0.6332 -0.0293 -0.1215
65872SOL    HW215609   8.458   0.798   6.811 -0.1798 -0.2237 -0.7995
65873SOL     OW15610   7.282  12.614  13.273 -0.3360  0.0119  0.3536
65873SOL    HW115611   7.357  12.670  13.292 -0.2845 -0.1445  0.6159
65873SOL    HW215612   7.281  12.550  13.344 -1.0168  0.3119  0.6254
65874SOL     OW15613  10.904  11.053   5.159 -0.3443  0.2496  0.0510
65874SOL    HW115614  10.825  11.009   5.128 -0.7762  1.9852 -1.4223
65874SOL    HW215615  10.873  11.134   5.198  0.5701 -0.0037  1.3972
65875SOL     OW15616  11.467  11.600   1.950  0.3034 -0.2504 -0.3150
65875SOL    HW115617  11.523  11.669   1.915  1.7755 -1.2786 -0.0823
65875SOL    HW215618  11.425  11.639   2.027  0.5296  0.6038 -0.6141
65876SOL     OW15619   1.033   3.332   1.985 -0.0841 -0.5374 -0.7323
65876SOL    HW115620   1.054   3.274   1.912 -0.1657  0.7175 -1.7939
65876SOL    HW215621   1.116   3.344   2.031 -0.4098 -2.9003  0.6154
65877SOL     OW15622   3.063   9.981   7.024 -0.1889  0.2604  0.6396
65877SOL    HW115623   3.021  10.036   7.091  0.1560 -0.9225  1.8581
65877SOL    HW215624   2.991   9.932   6.986 -0.3451  0.7040  0.3553
65878SOL     OW15625   7.105   0.009  12.306 -0.4340  0.7975  0.0437
65878SOL    HW115626   7.126  -0.053  12.375  1.1779  0.7704 -0.4510
65878SOL    HW215627   7.149   0.090  12.332  0.2456  0.7705 -0.9620
65879SOL     OW15628   3.782   8.944   2.361  0.6940 -0.0667  0.4847
65879SOL    HW115629   3.865   8.974   2.399  0.9289 -2.0862  1.7280
65879SOL    HW215630   3.806   8.913   2.273  0.8650  1.1058  0.0978
65880SOL     OW15631   2.400   9.631   5.392  0.2115 -0.3097  0.3434
65880SOL    HW115632   2.439   9.698   5.336 -1.2625 -0.9198 -1.5075
65880SOL    HW215633   2.436   9.548   5.361  1.6932 -0.4938  2.3378
65881SOL     OW15634   4.097   7.533   1.791  0.6574  0.7016  0.2499
65881SOL    HW115635   4.190   7.513   1.787  0.1902 -1.6010 -0.5323
65881SOL    HW215636   4.075   7.564   1.703  0.7780  1.9020  0.6208
65882SOL     OW15637   4.843  11.324   1.735 -0.0212  0.1744 -0.7558
65882SOL    HW115638   4.884  11.402   1.698  1.7938 -1.2630 -1.9959
65882SOL    HW215639   4.913  11.280   1.783 -1.8491  1.0050  3.1054
65883SOL     OW15640   8.481  12.866   1.630 -0.3237  1.3555  0.2689
65883SOL    HW115641   8.412  12.827   1.685  1.1038  1.0188  1.9188
65883SOL    HW215642   8.465  12.830   1.543  0.9839 -3.3014  1.6468
65884SOL     OW15643   9.835   2.097  12.298 -0.0052  0.1462  0.8086
65884SOL    HW115644   9.905   2.085  12.363  0.5544 -1.1497  0.0143
65884SOL    HW215645   9.799   2.183  12.317  0.6303  0.0999  2.3724
65885SOL     OW15646   6.934  12.942   3.616 -0.5009  0.4494  0.1259
65885SOL    HW115647   6.951  13.035   3.601 -0.1966  0.1086 -2.0339
65885SOL    HW215648   6.902  12.937   3.706  0.7333  2.4625  0.7375
65886SOL     OW15649   4.179  10.309   1.143  0.1312 -0.1321  0.2664
65886SOL    HW115650   4.129  10.327   1.223 -0.4926 -0.5685 -0.0190
65886SOL    HW215651   4.122  10.340   1.072  0.1390 -0.8807 -0.0756
65887SOL     OW15652  10.604  11.065   7.069  0.1336  0.1003  0.6721
65887SOL    HW115653  10.679  11.121   7.049  0.5347 -0.4266  0.7045
65887SOL    HW215654  10.570  11.099   7.152  0.6512  0.0087  0.9228
65888SOL     OW15655   6.264   3.631  10.330  0.1248 -0.3081  0.2432
65888SOL    HW115656   6.282   3.594  10.416  2.8430  2.5385  1.0911
65888SOL    HW215657   6.327   3.589  10.272  0.5965  0.1524  0.4071
65889SOL     OW15658  11.185   5.974  10.059 -0.7545  0.1739  0.5442
65889SOL    HW115659  11.199   5.971   9.965 -0.3511 -2.2562  0.6123
65889SOL    HW215660  11.106   5.922  10.074 -1.1430  1.0064  1.5102
65890SOL     OW15661   1.607   2.290  10.251 -0.0697 -0.1553 -0.1634
65890SOL    HW115662   1.616   2.227  10.322  0.4057  2.5177  2.2977
65890SOL    HW215663   1.693   2.290  10.209 -0.3357 -1.7007 -0.8016
65891SOL     OW15664  12.655   6.762   4.463 -0.3011 -0.0304 -0.4687
65891SOL    HW115665  12.697   6.790   4.382  1.6238  0.5739  0.6742
65891SOL    HW215666  12.727   6.757   4.527 -1.2434 -3.1892  0.5452
65892SOL     OW15667   9.179   3.082   7.552 -0.1675 -0.2445 -0.0568
65892SOL    HW115668   9.219   3.166   7.532 -0.4208  0.2709  1.4273
65892SOL    HW215669   9.091   3.104   7.584 -1.1794 -1.2598 -1.9525
65893SOL     OW15670   7.327   8.514   0.911 -0.6599 -0.7180  0.1107
65893SOL    HW115671   7.398   8.456   0.884 -0.2508 -0.4781  0.6598
65893SOL    HW215672   7.282   8.537   0.830  1.9120  1.8407 -0.7350
65894SOL     OW15673  13.568   4.429  12.093 -0.4571  0.5397 -0.2038
65894SOL    HW115674  13.546   4.401  12.182 -1.6871 -1.1583 -0.9939
65894SOL    HW215675  13.492   4.479  12.064 -0.5819  0.0727 -0.7007
65895SOL     OW15676   8.249   9.372  13.388 -0.2691 -0.1943 -0.2556
65895SOL    HW115677   8.275   9.414  13.306 -0.9158  2.0180  0.5901
65895SOL    HW215678   8.160   9.403  13.403 -0.3243 -0.9272  1.0417
65896SOL     OW15679   1.993  10.793   5.335  0.0314  0.1451 -0.0154
65896SOL    HW115680   2.047  10.870   5.316 -1.8700  0.9337 -3.0709
65896SOL    HW215681   1.949  10.814   5.417  0.6013  1.6832 -0.0659
65897SOL     OW15682   2.342  13.169   7.115 -0.1701  0.5551 -0.4376
65897SOL    HW115683   2.316  13.080   7.092  2.8809 -0.2088 -1.4823
65897SOL    HW215684   2.339  13.172   7.211 -0.2889 -0.6961 -0.3912
65898SOL     OW15685   2.921   8.319  11.900  0.4423  0.6724 -0.2830
65898SOL    HW115686   2.995   8.266  11.929 -0.9666 -0.3654  1.6275
65898SOL    HW215687   2.844   8.277  11.938 -0.9444  2.9847 -0.3218
65899SOL     OW15688   2.846   5.146   9.833 -0.3527 -0.9158  0.1857
65899SOL    HW115689   2.907   5.098   9.888 -0.0311  0.3330  0.9658
65899SOL    HW215690   2.803   5.207   9.893 -0.4728  0.0285 -0.8194
65900SOL     OW15691   0.156   0.429   9.441  0.5508  0.0333  0.1713
65900SOL    HW115692   0.062   0.433   9.421  0.2860 -1.5869  0.8929
65900SOL    HW215693   0.160   0.435   9.536  1.1596 -0.2171  0.1637
65901SOL     OW15694   1.733   0.441   4.796 -0.0826  0.1750 -0.1853
65901SOL    HW115695   1.648   0.480   4.773  0.6625  2.3644  0.5420
65901SOL    HW215696   1.725   0.350   4.769 -2.0266  0.7377 -1.7991
65902SOL     OW15697  12.451   1.241  12.829  0.3709  0.0127  0.0894
65902SOL    HW115698  12.419   1.329  12.809 -0.1847 -0.3581 -0.7073
65902SOL    HW215699  12.409   1.185  12.764  0.3122 -0.9259  0.9107
65903SOL     OW15700   2.663  12.785   1.418 -0.2922  0.1349 -0.0613
65903SOL    HW115701   2.599  12.781   1.489 -0.9000  1.8025 -0.4632
65903SOL    HW215702   2.710  12.867   1.432 -0.3028  0.4086 -1.4666
65904SOL     OW15703   2.515  10.563  12.345 -0.4413  0.2837 -0.0568
65904SOL    HW115704   2.502  10.641  12.291 -0.7899 -0.6317 -1.3241
65904SOL    HW215705   2.441  10.506  12.324 -0.7412  0.0041  1.6042
65905SOL     OW15706   6.716  10.423   7.425  0.4935  0.1726 -0.1338
65905SOL    HW115707   6.636  10.474   7.416 -0.1727 -0.5744  1.1712
65905SOL    HW215708   6.787  10.485   7.407 -0.2979  1.4562  1.0032
65906SOL     OW15709   4.705   7.021   6.595  0.3409  0.3090  0.4616
65906SOL    HW115710   4.781   7.071   6.566 -0.0572  1.2950  1.0457
65906SOL    HW215711   4.629   7.073   6.567 -0.0787  0.2809  1.4847
65907SOL     OW15712   4.824   1.624   9.369  0.1837 -0.6662 -0.1968
65907SOL    HW115713   4.788   1.551   9.419  0.6154 -1.2829 -0.7861
65907SOL    HW215714   4.747   1.669   9.334 -0.2731  0.8524  2.4353
65908SOL     OW15715   7.851  13.353   1.429  0.1798  0.0978  0.2630
65908SOL    HW115716   7.875  13.342   1.521 -0.6646  1.8873  0.7577
65908SOL    HW215717   7.932  13.377   1.385  0.4284  0.0883  0.7183
65909SOL     OW15718   7.148  13.037   4.525  0.1515 -0.0334  0.1452
65909SOL    HW115719   7.144  13.058   4.432  1.8823 -0.6848 -0.1178
65909SOL    HW215720   7.136  12.942   4.528  0.9545 -0.1285  0.4969
65910SOL     OW15721  10.765   6.537   6.365 -0.0204 -0.4158 -0.2327
65910SOL    HW115722  10.748   6.546   6.459  0.8608 -0.2065 -0.0757
65910SOL    HW215723  10.768   6.443   6.350  2.0547 -0.5249  0.4278
65911SOL     OW15724  14.045  11.201  13.792  0.5030 -0.2246 -0.3639
65911SOL    HW115725  14.078  11.215  13.881 -0.1373 -0.5115 -0.0807
65911SOL    HW215726  14.048  11.288  13.752  2.1950 -0.3264 -0.5648
65912SOL     OW15727   5.092  12.618   0.099  0.2022  0.5243  0.1244
65912SOL    HW115728   5.137  12.691   0.141  0.3369  1.4416 -1.5276
65912SOL    HW215729   5.008  12.655   0.069 -1.0935 -0.8010  1.9173
65913SOL     OW15730  13.385   1.532  13.744  0.3662 -0.1193  0.3822
65913SOL    HW115731  13.415   1.441  13.741  0.2886 -0.1397  0.2219
65913SOL    HW215732  13.419   1.565  13.827  0.0606 -0.4076  0.6280
65914SOL     OW15733   8.478   9.951   5.069  0.0182 -0.5706  0.8285
65914SOL    HW115734   8.442   9.909   4.991  0.3359  0.4116  0.1352
65914SOL    HW215735   8.458   9.890   5.141  0.3649 -1.8373 -0.1096
65915SOL     OW15736   3.578   2.757  12.196 -0.5184 -0.4917  0.2791
65915SOL    HW115737   3.549   2.848  12.193 -0.1053 -0.3609  0.1467
65915SOL    HW215738   3.639   2.755  12.271 -0.0311 -0.5074 -0.1133
65916SOL     OW15739  11.168  10.772  10.126 -0.1711 -0.1731 -0.2062
65916SOL    HW115740  11.177  10.728  10.211 -0.1939  0.9753  0.4144
65916SOL    HW215741  11.086  10.820  10.133  0.2910  0.6744 -0.5304
65917SOL     OW15742   1.021   5.650  11.342 -0.4582  0.4636 -0.7495
65917SOL    HW115743   0.932   5.627  11.370 -0.0613  1.6985  1.8846
65917SOL    HW215744   1.010   5.734  11.296 -0.6029  1.0716  0.3570
65918SOL     OW15745   6.872   6.791  12.782 -0.2485  0.0719  0.2438
65918SOL    HW115746   6.904   6.788  12.872 -0.5960  0.1717  0.3729
65918SOL    HW215747   6.819   6.871  12.777  1.3610  1.1483 -0.6031
65919SOL     OW15748  10.810   0.523   5.492  0.1346 -0.1597  0.1515
65919SOL    HW115749  10.857   0.472   5.558 -0.9500 -1.1282  0.2076
65919SOL    HW215750  10.718   0.502   5.506 -0.1269 -0.4304 -1.7005
65920SOL     OW15751   7.464  10.901   7.250 -0.1396 -0.5420  0.3047
65920SOL    HW115752   7.444  10.901   7.157  1.6325  3.5486 -0.2718
65920SOL    HW215753   7.396  10.955   7.290  0.0407 -0.8931  1.1206
65921SOL     OW15754   1.942   9.494   1.917 -0.0239  0.0424  0.5478
65921SOL    HW115755   1.927   9.510   1.823 -0.5631  1.3001  0.8306
65921SOL    HW215756   2.027   9.535   1.934 -1.2509  2.4758  1.2015
65922SOL     OW15757   6.385   8.953   9.242  0.5309 -0.2909 -0.0485
65922SOL    HW115758   6.365   8.861   9.229  0.6328 -0.2060 -0.8523
65922SOL    HW215759   6.333   8.978   9.319 -0.1595 -0.8106 -0.3315
65923SOL     OW15760   8.647   1.687  12.468 -0.5000 -0.3633  0.0898
65923SOL    HW115761   8.685   1.640  12.393 -0.1172 -1.1704  0.7674
65923SOL    HW215762   8.554   1.666  12.464 -0.7348  0.7965 -0.9963
65924SOL     OW15763   3.352   2.243  11.622 -0.3862  0.1898  0.2444
65924SOL    HW115764   3.351   2.158  11.579  0.8445 -0.5996  1.6818
65924SOL    HW215765   3.303   2.229  11.704  0.4813  0.6337  0.8571
65925SOL     OW15766   0.477   7.692   9.574  0.4869 -0.0385 -0.0987
65925SOL    HW115767   0.561   7.664   9.611  0.3623 -0.5766 -0.2151
65925SOL    HW215768   0.451   7.621   9.516  0.1665  0.3270 -0.4167
65926SOL     OW15769   0.541   4.704  11.681 -0.2437 -0.0428 -0.5835
65926SOL    HW115770   0.569   4.737  11.596  1.9209 -0.3112 -0.0203
65926SOL    HW215771   0.603   4.742  11.744 -0.8895 -1.0219  0.7084
65927SOL     OW15772   4.640  13.241  10.127 -0.4413  0.4707 -0.5419
65927SOL    HW115773   4.718  13.283  10.163  0.1732  0.0549 -1.3302
65927SOL    HW215774   4.574  13.310  10.124 -0.2454  0.7097  0.5604
65928SOL     OW15775   3.813   5.944  14.061 -0.0571 -0.3246  0.6781
65928SOL    HW115776   3.852   6.028  14.035 -0.9114 -0.2712 -0.5054
65928SOL    HW215777   3.772   5.962  14.145 -1.3585  0.8277 -0.1598
65929SOL     OW15778   3.307   1.068   6.789  0.0779 -0.1074  0.0618
65929SOL    HW115779   3.224   1.024   6.804  0.4617 -0.8713 -0.0272
65929SOL    HW215780   3.373   1.008   6.824  0.5036  1.1099  1.4238
65930SOL     OW15781  11.166   1.008  12.228 -0.3549 -0.0745 -0.0905
65930SOL    HW115782  11.097   0.941  12.227  0.5130 -1.0001 -0.8972
65930SOL    HW215783  11.226   0.980  12.297 -0.5320  0.4478  0.2735
65931SOL     OW15784   7.529   1.629   1.902 -0.4701  0.1699  0.4312
65931SOL    HW115785   7.512   1.537   1.883  0.8423 -0.1603  0.7873
65931SOL    HW215786   7.520   1.673   1.817 -0.3459 -0.4033  0.1167
65932SOL     OW15787  14.092   2.446   8.904  0.1391  0.1058 -0.4279
65932SOL    HW115788  14.012   2.433   8.955 -0.3025  0.3572 -1.0395
65932SOL    HW215789  14.143   2.366   8.917 -0.5422 -0.3640 -0.6151
65933SOL     OW15790   8.286  11.103   5.534  0.0649  0.1716 -0.5340
65933SOL    HW115791   8.300  11.011   5.509  1.4929  0.0960  0.3874
65933SOL    HW215792   8.247  11.143   5.457 -2.1203 -1.5388 -0.4133
65934SOL     OW15793  11.921  14.101   1.131 -0.1080 -0.2265  0.2172
65934SOL    HW115794  11.903  14.034   1.197 -0.9525  0.2942  0.5400
65934SOL    HW215795  12.000  14.071   1.087 -0.9090 -1.8369 -0.2014
65935SOL     OW15796   2.717   6.086  11.170 -0.0878  0.8166  0.0558
65935SOL    HW115797   2.694   6.007  11.119  0.1022  1.1618 -0.5799
65935SOL    HW215798   2.812   6.084  11.175 -0.1467 -1.4233  3.9984
65936SOL     OW15799   2.847   7.888  12.274 -0.0203  0.7059 -0.2866
65936SOL    HW115800   2.812   7.906  12.361 -0.0698  3.1845 -0.7472
65936SOL    HW215801   2.779   7.917  12.214  0.9022  1.1320 -1.1541
65937SOL     OW15802   5.744  13.948   8.489 -0.2597  0.8162 -0.1524
65937SOL    HW115803   5.816  13.886   8.475  0.3945  1.4219  0.4543
65937SOL    HW215804   5.756  14.015   8.422 -0.3453  0.8370 -0.1472
65938SOL     OW15805  11.076   7.789   3.243 -0.7475 -0.2128 -0.6879
65938SOL    HW115806  11.161   7.833   3.237 -1.2931  0.9203 -0.3615
65938SOL    HW215807  11.086   7.710   3.191  0.8315 -0.6212  0.1765
65939SOL     OW15808  10.120   4.523  11.561 -0.3215 -0.2564 -0.2475
65939SOL    HW115809  10.142   4.585  11.491 -0.9357  1.1444  0.7377
65939SOL    HW215810  10.053   4.466  11.522 -2.5673  2.0936 -0.1417
65940SOL     OW15811   1.711  10.116  11.306 -0.2080  0.2087  0.5394
65940SOL    HW115812   1.727  10.186  11.242 -0.5171  1.2712  1.5955
65940SOL    HW215813   1.668  10.047  11.255 -3.7612  2.3930  0.2085
65941SOL     OW15814  14.129   4.903   9.956 -0.4192  0.9590 -0.0994
65941SOL    HW115815  14.044   4.911   9.998  0.2381 -1.0476  1.8258
65941SOL    HW215816  14.189   4.883  10.027  1.4077  0.8395 -1.5977
65942SOL     OW15817   9.126  13.892   9.564 -0.0633  0.1863 -0.2588
65942SOL    HW115818   9.177  13.858   9.638  1.3185  0.1169 -1.1943
65942SOL    HW215819   9.180  13.872   9.487 -1.2543  0.6496 -1.2448
65943SOL     OW15820  14.151   9.269   9.216  0.3580 -0.1615 -0.3514
65943SOL    HW115821  14.065   9.301   9.242  0.2427 -0.3675 -0.4746
65943SOL    HW215822  14.195   9.249   9.299  0.4996  0.4813 -0.2683
65944SOL     OW15823   6.573  13.008   4.245 -0.1879  0.6547  0.4632
65944SOL    HW115824   6.503  13.071   4.260  0.6566  1.3520  1.6612
65944SOL    HW215825   6.581  12.960   4.328  1.2429  1.1144  0.6224
65945SOL     OW15826   8.104  12.306   6.040  0.5371 -0.0513  0.3648
65945SOL    HW115827   8.051  12.275   6.114 -3.9380  1.0406 -1.9957
65945SOL    HW215828   8.134  12.226   5.997 -1.0874 -0.8768  0.6642
65946SOL     OW15829   8.569   2.216   9.810 -0.1163  0.5245  0.2621
65946SOL    HW115830   8.613   2.177   9.734  1.3954  0.3887  1.1506
65946SOL    HW215831   8.499   2.269   9.773  1.1575  1.2035 -1.2988
65947SOL     OW15832  11.546  14.145   2.761 -0.2095  0.5298  0.4233
65947SOL    HW115833  11.465  14.102   2.788 -0.9921  2.2380  0.9168
65947SOL    HW215834  11.551  14.130   2.666 -0.4900 -0.5507  0.5703
65948SOL     OW15835  11.324  13.893   2.555 -0.1158  0.1966  0.2021
65948SOL    HW115836  11.321  13.913   2.649  0.0714  0.5327  0.1360
65948SOL    HW215837  11.416  13.879   2.535 -0.2051 -0.3871  0.1704
65949SOL     OW15838  12.425  13.208   1.526  0.0849  0.0876 -0.2332
65949SOL    HW115839  12.376  13.130   1.500 -0.4691 -0.1016  1.3204
65949SOL    HW215840  12.364  13.259   1.578  1.1017  0.5288  0.5479
65950SOL     OW15841   6.983   1.487   7.045 -0.3040 -0.4262  0.3143
65950SOL    HW115842   6.992   1.577   7.077  0.1067 -0.2925 -0.1594
65950SOL    HW215843   7.021   1.433   7.114 -1.4945 -0.3258  1.0726
65951SOL     OW15844  13.638   6.021   8.348  0.2697  0.2676  0.2228
65951SOL    HW115845  13.627   6.105   8.393 -1.2399 -0.3013  1.0018
65951SOL    HW215846  13.638   5.957   8.418  0.4686 -0.4589 -0.4337
65952SOL     OW15847   1.865   1.934  13.429 -0.2316  0.4537  0.5582
65952SOL    HW115848   1.846   1.993  13.502 -0.5174  0.5892  0.3772
65952SOL    HW215849   1.801   1.863  13.438  0.5766 -0.2164  1.1988
65953SOL     OW15850   2.266  11.795   0.311  0.3359 -0.7142 -0.2386
65953SOL    HW115851   2.252  11.791   0.216  1.0340 -1.5280 -0.3141
65953SOL    HW215852   2.201  11.734   0.347  0.8114 -1.2508 -0.2796
65954SOL     OW15853  13.577   6.305   9.194  0.6456 -0.6289  0.4465
65954SOL    HW115854  13.571   6.306   9.099 -1.2074 -0.3793  0.5254
65954SOL    HW215855  13.664   6.271   9.213  1.9164  1.3690 -1.3487
65955SOL     OW15856   8.666  12.999  13.403  0.6980 -0.3640  0.2515
65955SOL    HW115857   8.589  13.054  13.416  1.2593  0.1975  1.3332
65955SOL    HW215858   8.710  13.038  13.327  1.1220  0.7428  1.0463
65956SOL     OW15859  13.420   6.883   8.222  0.2208 -0.3184  0.3134
65956SOL    HW115860  13.478   6.832   8.165 -0.6073  0.8946 -1.7309
65956SOL    HW215861  13.332   6.858   8.194 -0.3422 -1.7504  3.0176
65957SOL     OW15862  13.856   7.699  11.787 -0.0649  0.0494 -0.0021
65957SOL    HW115863  13.848   7.707  11.882  1.4131  0.6427  0.0963
65957SOL    HW215864  13.768   7.674  11.757 -0.2298 -1.5377  1.6515
65958SOL     OW15865   9.099   7.728  12.428  0.1231 -0.3195  0.4407
65958SOL    HW115866   9.116   7.743  12.335  1.8591  1.5241  0.9637
65958SOL    HW215867   9.184   7.700  12.464 -0.3490 -0.3926  1.5599
65959SOL     OW15868  12.910  10.727   8.807  0.0187  0.6002 -0.1811
65959SOL    HW115869  12.864  10.805   8.776 -2.0333  0.0051  1.1183
65959SOL    HW215870  12.841  10.661   8.815  0.7221  0.1106  3.4431
65960SOL     OW15871   1.538   8.245   1.096  0.0249 -0.0827  0.3941
65960SOL    HW115872   1.530   8.170   1.037 -1.2751  0.3318  0.0088
65960SOL    HW215873   1.546   8.206   1.183 -2.5910 -0.7349  0.4356
65961SOL     OW15874   7.531   6.752  10.616 -0.3503  0.0246  0.5370
65961SOL    HW115875   7.489   6.668  10.595 -1.4163  1.1685 -2.3457
65961SOL    HW215876   7.591   6.768  10.543  1.5997  0.7709  2.1837
65962SOL     OW15877  12.084  10.999   7.925 -0.0460 -0.2973 -0.2004
65962SOL    HW115878  11.997  11.030   7.900 -0.2433  2.2453  3.0249
65962SOL    HW215879  12.068  10.915   7.969 -0.7110 -0.4089 -0.6430
65963SOL     OW15880   9.236   3.371  13.732 -0.0588 -0.0090  0.1974
65963SOL    HW115881   9.195   3.368  13.818 -2.0829  0.0350 -0.7024
65963SOL    HW215882   9.254   3.463  13.717 -0.5384  0.0871  0.2094
65964SOL     OW15883  11.876   8.427   1.841 -0.6518 -0.5604 -0.0130
65964SOL    HW115884  11.813   8.499   1.830 -0.3077  0.0778  1.7963
65964SOL    HW215885  11.962   8.470   1.835 -0.3957 -1.1766 -0.9491
65965SOL     OW15886   2.650  12.466   1.558  0.1348 -0.6300  0.8460
65965SOL    HW115887   2.585  12.508   1.616 -0.2113  0.3798 -0.2333
65965SOL    HW215888   2.601  12.448   1.478  1.1706  0.1134  0.0241
65966SOL     OW15889   8.224   8.949  10.578  0.4356  0.0605 -0.1598
65966SOL    HW115890   8.142   8.995  10.599  0.5576  0.3758 -0.3786
65966SOL    HW215891   8.289   8.989  10.636  0.3277 -0.5652  0.4049
65967SOL     OW15892  13.772   6.544   8.056 -0.3034  0.0774  0.4824
65967SOL    HW115893  13.717   6.474   8.091  0.0472  0.0756  1.0366
65967SOL    HW215894  13.816   6.581   8.132  0.7579 -0.1759  0.0174
65968SOL     OW15895   1.639   1.110  12.815 -0.2623  0.4340  0.5840
65968SOL    HW115896   1.587   1.062  12.752  3.0848 -0.6906 -1.5812
65968SOL    HW215897   1.579   1.175  12.851 -2.8342 -0.0621 -2.3956
65969SOL     OW15898   8.288  13.774   2.734 -0.0465 -0.1793 -0.1693
65969SOL    HW115899   8.203  13.733   2.751 -0.5223  0.3827 -1.0629
65969SOL    HW215900   8.265  13.857   2.690  0.9043  0.7121  0.9534
65970SOL     OW15901   3.753   5.246   4.606 -0.3045  0.1311 -0.5995
65970SOL    HW115902   3.659   5.239   4.627  0.1618 -0.7643  1.4134
65970SOL    HW215903   3.768   5.175   4.543 -0.9609  0.2020 -0.8472
65971SOL     OW15904  12.261   9.550   2.347 -0.0367  0.3610 -0.3715
65971SOL    HW115905  12.230   9.604   2.420  2.6685  1.8684 -0.2012
65971SOL    HW215906  12.317   9.608   2.296  0.9640 -1.6102 -1.6629
65972SOL     OW15907  12.190   7.752  13.169  0.6796 -0.0977  0.2966
65972SOL    HW115908  12.227   7.784  13.252  0.4252 -0.4330  0.5438
65972SOL    HW215909  12.182   7.830  13.115  2.8473 -0.1616 -0.2042
65973SOL     OW15910   5.051   4.177   2.133 -0.5616 -0.5256  0.1002
65973SOL    HW115911   5.027   4.154   2.223 -0.2384  0.1840  0.3741
65973SOL    HW215912   5.045   4.273   2.130 -1.9185 -0.6092 -1.0242
65974SOL     OW15913   0.082   2.249   1.344  0.0165  0.2963  0.4464
65974SOL    HW115914   0.164   2.231   1.298 -0.0119  0.6261  0.2615
65974SOL    HW215915   0.086   2.196   1.423  0.2302  0.0060  0.2424
65975SOL     OW15916   2.768   8.129   8.210 -0.4229  0.0249  0.4890
65975SOL    HW115917   2.733   8.133   8.299  0.5679 -1.9613  1.0125
65975SOL    HW215918   2.863   8.141   8.221 -0.4267  1.1961 -0.4823
65976SOL     OW15919   1.597   2.337   6.772 -0.2772  0.3122 -0.3130
65976SOL    HW115920   1.532   2.407   6.772  0.9337  1.4884 -0.1842
65976SOL    HW215921   1.582   2.289   6.853 -1.3505  0.1883 -0.5748
65977SOL     OW15922   4.104   1.124  10.287 -0.2206  0.1074  0.4263
65977SOL    HW115923   4.054   1.202  10.264 -0.3931 -0.0175  0.3765
65977SOL    HW215924   4.157   1.106  10.210  0.4408  0.6602  0.7439
65978SOL     OW15925   6.205   1.312   9.430 -0.2384 -0.8496  0.0410
65978SOL    HW115926   6.245   1.245   9.373 -0.6473  0.5603 -2.0339
65978SOL    HW215927   6.111   1.302   9.415 -0.2649  1.9018 -2.5956
65979SOL     OW15928   3.140   5.454  11.605  0.1385  0.5541  0.5099
65979SOL    HW115929   3.163   5.378  11.551 -1.1969 -0.3806  1.1745
65979SOL    HW215930   3.214   5.465  11.665  0.4930 -0.0353  0.1933
65980SOL     OW15931  13.752   0.394   9.126 -0.1978 -0.0920  0.0217
65980SOL    HW115932  13.734   0.486   9.144  1.7680  1.3065 -3.9670
65980SOL    HW215933  13.691   0.371   9.056  0.2572 -1.4108  0.0299
65981SOL     OW15934   2.249  13.591   3.795 -0.3217  0.1581 -0.2464
65981SOL    HW115935   2.337  13.576   3.760 -0.4571 -0.1062 -0.4776
65981SOL    HW215936   2.262  13.605   3.889 -0.2000 -1.6478  0.0419
65982SOL     OW15937   2.908   1.939   3.948  0.2787  1.2226 -0.2069
65982SOL    HW115938   2.918   2.028   3.916 -0.3776  1.3969  0.0726
65982SOL    HW215939   2.985   1.893   3.913  0.7727  1.9531 -0.1125
65983SOL     OW15940   3.837   6.460  10.999  0.0942  0.4132 -0.0480
65983SOL    HW115941   3.872   6.549  11.003  0.1130  0.4579 -0.9301
65983SOL    HW215942   3.890   6.410  11.061  0.7420  0.8037 -0.2772
65984SOL     OW15943  13.314  10.218   6.784 -0.0172  0.1135 -1.0469
65984SOL    HW115944  13.259  10.156   6.831  0.4485 -1.3658 -2.3889
65984SOL    HW215945  13.269  10.302   6.793 -0.5768 -0.3523  0.9488
65985SOL     OW15946  12.587  10.116  13.062 -0.1950  0.0781 -0.1647
65985SOL    HW115947  12.625  10.187  13.114 -0.6452 -0.0905  0.3983
65985SOL    HW215948  12.632  10.038  13.092 -0.2191  0.0242 -0.2679
65986SOL     OW15949  11.991   6.636   7.868  0.0340 -0.1240 -0.1276
65986SOL    HW115950  12.042   6.690   7.807 -0.7539  0.4829 -0.2612
65986SOL    HW215951  11.909   6.618   7.822  0.5152 -2.0011 -0.3463
65987SOL     OW15952   9.461   7.128   2.533 -0.0016  0.2202 -0.5651
65987SOL    HW115953   9.513   7.061   2.578  0.6032  0.7629 -0.4371
65987SOL    HW215954   9.380   7.083   2.509 -0.3117 -0.1204  0.9856
65988SOL     OW15955   2.680   7.844   9.323 -0.6664 -0.3291 -0.2003
65988SOL    HW115956   2.761   7.878   9.360 -0.9196 -0.2942  0.3232
65988SOL    HW215957   2.614   7.910   9.346 -1.1645 -1.1724  0.8455
65989SOL     OW15958  12.301   9.531   3.541 -0.5801  0.2198  0.7152
65989SOL    HW115959  12.320   9.498   3.453 -0.9138  0.6985  0.4637
65989SOL    HW215960  12.231   9.474   3.573 -0.6344  0.2052  0.5734
65990SOL     OW15961   3.063   8.137   8.541 -0.1162 -0.0765 -0.1245
65990SOL    HW115962   3.057   8.181   8.456  0.3821  0.2211 -0.0113
65990SOL    HW215963   2.998   8.067   8.537 -0.9023  0.6572 -0.3148
65991SOL     OW15964   6.694   5.655   5.771  0.7671 -0.3478  0.0247
65991SOL    HW115965   6.641   5.701   5.837 -0.4929  1.2258 -1.9638
65991SOL    HW215966   6.783   5.656   5.807  0.2240  0.9666  1.4468
65992SOL     OW15967  10.142  12.077  12.474 -0.1048  0.0715  0.1322
65992SOL    HW115968  10.076  12.095  12.541 -0.7466 -1.0991 -0.1599
65992SOL    HW215969  10.156  12.162  12.431 -1.2351  0.3986  0.3673
65993SOL     OW15970   0.285   4.659   3.596  0.1751 -0.1394  0.0051
65993SOL    HW115971   0.283   4.585   3.534 -0.6627 -0.7500  0.7392
65993SOL    HW215972   0.247   4.624   3.676  0.6708  0.8274  0.6797
65994SOL     OW15973   4.268  13.794  10.697  0.2464 -0.2527  0.4846
65994SOL    HW115974   4.316  13.711  10.691  0.8345  0.0200  1.2284
65994SOL    HW215975   4.230  13.806  10.610  2.1706 -0.1189 -0.4027
65995SOL     OW15976  13.712   5.272  12.048 -0.3938 -0.1396  0.0219
65995SOL    HW115977  13.715   5.280  11.953  2.1245 -1.2514 -0.0788
65995SOL    HW215978  13.679   5.183  12.064 -0.5327 -0.0614  0.1727
65996SOL     OW15979   0.827   4.378  10.439 -0.7008  0.2924  0.9004
65996SOL    HW115980   0.826   4.290  10.401 -0.1617  1.1760 -1.3035
65996SOL    HW215981   0.845   4.364  10.532 -0.8151 -1.9251  0.6322
65997SOL     OW15982   7.087   8.947   2.515  0.3381 -0.0390  0.0429
65997SOL    HW115983   7.066   8.955   2.608 -1.7580  0.6486 -0.4412
65997SOL    HW215984   7.098   8.853   2.502 -2.6213 -0.5423  0.4106
65998SOL     OW15985   6.632  12.884   5.895  0.5187  0.0660  0.1983
65998SOL    HW115986   6.557  12.824   5.895 -1.7856  2.7559 -1.0260
65998SOL    HW215987   6.660  12.887   5.987 -0.1542 -1.7499  0.5145
65999SOL     OW15988   3.631  11.575   2.410 -0.0826  0.2494  0.0186
65999SOL    HW115989   3.537  11.562   2.402  0.1420 -1.3883 -0.2618
65999SOL    HW215990   3.663  11.578   2.320  0.2159  0.0923  0.1175
66000SOL     OW15991   4.704   0.665   7.969  0.5738 -0.3474  0.6077
66000SOL    HW115992   4.688   0.752   8.007 -0.3076 -0.3584  0.2759
66000SOL    HW215993   4.790   0.673   7.927  0.2263  0.5594  0.0312
66001SOL     OW15994  12.323  14.131  10.761  0.1603  0.0921  0.2798
66001SOL    HW115995  12.367  14.067  10.817  0.7160 -0.1734 -0.4429
66001SOL    HW215996  12.339  14.215  10.803 -0.2676 -0.1975  1.0395
66002SOL     OW15997   7.129  10.753  13.608  0.1496  0.1860 -0.0856
66002SOL    HW115998   7.126  10.721  13.518 -0.7475  0.0074 -0.0018
66002SOL    HW215999   7.041  10.735  13.643  0.9050 -1.0387  1.2747
66003SOL     OW16000   0.876   1.903   1.595  0.0636 -0.2108  0.1171
66003SOL    HW116001   0.940   1.974   1.591 -1.2057  0.9860  0.0824
66003SOL    HW216002   0.858   1.892   1.688 -0.2565  0.0061  0.0824
66004SOL     OW16003   1.971  10.839  12.623  0.4953 -0.6693 -0.6704
66004SOL    HW116004   1.899  10.799  12.672  0.3702 -0.5961 -0.7918
66004SOL    HW216005   2.034  10.768  12.610 -0.1003 -1.0513 -1.6001
66005SOL     OW16006  12.384   0.490  11.971 -0.5612  0.4505  0.3314
66005SOL    HW116007  12.307   0.443  11.937  0.6333  0.0170 -1.9949
66005SOL    HW216008  12.415   0.435  12.043 -0.3150 -1.3977 -1.1071
66006SOL     OW16009  10.767   5.990   8.822 -0.0807 -0.9760 -0.0484
66006SOL    HW116010  10.827   5.916   8.821 -0.2976 -1.2896  2.6325
66006SOL    HW216011  10.796   6.045   8.894 -2.2584 -0.5257  0.5831
66007SOL     OW16012  12.455  10.299  10.804  0.2844 -0.4289  0.2332
66007SOL    HW116013  12.377  10.351  10.785 -0.2731 -0.6165  1.8506
66007SOL    HW216014  12.524  10.364  10.820 -0.0934 -0.2074  0.9868
66008SOL     OW16015   9.431   1.872   7.925  0.4551 -0.4047 -0.5049
66008SOL    HW116016   9.351   1.861   7.976  1.1390  1.5565  1.1156
66008SOL    HW216017   9.408   1.936   7.858  0.8436  0.8297  0.5034
66009SOL     OW16018   3.259   5.992  12.657  0.1202  0.5553 -0.4451
66009SOL    HW116019   3.196   5.939  12.707 -1.3439  1.9914 -0.6987
66009SOL    HW216020   3.282   5.937  12.582  0.6365 -0.7252  0.5990
66010SOL     OW16021   9.271   9.886   3.964 -0.5786  0.9523  0.1177
66010SOL    HW116022   9.340   9.952   3.964 -1.7835  2.2817 -1.7632
66010SOL    HW216023   9.297   9.825   4.033  2.0069  1.8655  0.0510
66011SOL     OW16024   1.427   6.294   1.648 -0.6593 -0.1925  0.2205
66011SOL    HW116025   1.331   6.295   1.648 -0.6759 -0.7447 -0.2080
66011SOL    HW216026   1.453   6.351   1.720 -1.3100  0.1645  0.1712
66012SOL     OW16027   8.551   2.922  12.052 -0.3131 -0.2178  0.1290
66012SOL    HW116028   8.647   2.916  12.055 -0.3176  0.2399  1.6988
66012SOL    HW216029   8.521   2.875  12.129 -1.3193  0.3900  0.1264
66013SOL     OW16030  11.799   3.355   4.979  0.1660 -0.2073 -0.4147
66013SOL    HW116031  11.760   3.407   4.908  0.0871 -0.2008 -0.3673
66013SOL    HW216032  11.781   3.264   4.954  2.4102 -0.3498 -1.7389
66014SOL     OW16033   1.520   7.002  10.577 -0.0398  0.0531 -0.1108
66014SOL    HW116034   1.614   6.993  10.591  0.2968 -0.3333 -2.1990
66014SOL    HW216035   1.486   7.036  10.659  1.7343 -1.0019  1.1258
66015SOL     OW16036   1.405   5.258   1.356  0.6565  0.1545  0.0621
66015SOL    HW116037   1.386   5.352   1.362 -1.2246 -0.1462 -0.5288
66015SOL    HW216038   1.466   5.241   1.428 -0.9003  1.3696  1.7567
66016SOL     OW16039   4.597   8.702   9.305  0.3612 -0.4700  0.2247
66016SOL    HW116040   4.673   8.717   9.362  0.2481 -0.8826  0.4912
66016SOL    HW216041   4.626   8.634   9.244  1.3038  1.6276 -1.7975
66017SOL     OW16042   0.125   0.910   6.960  0.1362 -0.2950 -0.4428
66017SOL    HW116043   0.082   0.867   6.886  0.6364 -0.0279 -0.9017
66017SOL    HW216044   0.076   0.882   7.037 -1.7526  1.0828 -1.0553
66018SOL     OW16045   0.482  11.323   4.035 -0.7341  0.4577 -0.0807
66018SOL    HW116046   0.457  11.295   4.123  1.5696 -1.9426 -0.0466
66018SOL    HW216047   0.517  11.244   3.994  1.1596  2.1844 -2.0397
66019SOL     OW16048   3.302   0.917  10.371  0.3536  0.0914  0.6251
66019SOL    HW116049   3.296   0.950  10.461  2.4999  2.0826  0.1409
66019SOL    HW216050   3.384   0.953  10.338  0.0709 -1.3276 -1.8721
66020SOL     OW16051   7.465  13.726  13.402 -0.0139  0.0098  0.2745
66020SOL    HW116052   7.524  13.652  13.416  0.0915  0.1711  0.7044
66020SOL    HW216053   7.382  13.697  13.440 -0.0360  0.0229  0.2365
66021SOL     OW16054   2.408  14.123   0.575  0.3477 -0.2671 -0.7677
66021SOL    HW116055   2.355  14.066   0.631 -0.1639  0.6285 -0.3129
66021SOL    HW216056   2.498  14.110   0.606  0.0841  0.1720  0.2496
66022SOL     OW16057  13.030   5.023   2.277  0.2708 -0.3703 -0.4936
66022SOL    HW116058  13.090   5.062   2.341 -0.6462 -1.0839  0.8587
66022SOL    HW216059  12.962   4.982   2.331 -1.1000 -0.1052 -1.9678
66023SOL     OW16060   9.894   9.606   6.782 -0.0653 -0.0670 -0.3599
66023SOL    HW116061   9.832   9.678   6.771 -0.9990 -0.2705  2.7101
66023SOL    HW216062   9.964   9.643   6.836  0.1370 -1.0695  0.0890
66024SOL     OW16063   7.803   2.235   7.512 -0.5974 -0.4302  0.2293
66024SOL    HW116064   7.722   2.227   7.462 -0.0565 -2.1993 -0.4575
66024SOL    HW216065   7.826   2.144   7.533 -0.0104  0.1770  2.4101
66025SOL     OW16066  12.024  10.323   2.445  0.2142  0.1022  0.0856
66025SOL    HW116067  12.016  10.415   2.468  0.1864  0.1067  0.0582
66025SOL    HW216068  11.934  10.293   2.433  0.2464  0.2695 -0.6640
66026SOL     OW16069  12.156   1.399   5.603 -0.2227  0.0313  0.1384
66026SOL    HW116070  12.071   1.434   5.630 -0.0504  0.8788 -0.3692
66026SOL    HW216071  12.220   1.454   5.648  0.0645 -0.6217  0.5421
66027SOL     OW16072   7.136   1.472   1.783 -0.3556  0.0922  0.4260
66027SOL    HW116073   7.169   1.480   1.693  0.1747 -0.3888  0.5746
66027SOL    HW216074   7.047   1.507   1.778  0.0012  0.9690 -0.0813
66028SOL     OW16075   1.852   9.205  13.789  0.3228 -0.3383  0.1900
66028SOL    HW116076   1.901   9.247  13.860 -0.8730 -0.0968  0.9003
66028SOL    HW216077   1.862   9.111  13.806  0.9675 -0.3114  0.0118
66029SOL     OW16078   6.748  13.931  10.048  0.1759 -0.0088  0.3073
66029SOL    HW116079   6.669  13.974  10.015  0.0667 -1.2452 -1.1490
66029SOL    HW216080   6.759  13.855   9.992  2.5417  0.2498  0.3315
66030SOL     OW16081   4.701   4.202   7.148 -0.4865  0.4951 -0.0106
66030SOL    HW116082   4.612   4.185   7.115 -0.4199  0.4311 -0.1622
66030SOL    HW216083   4.725   4.122   7.194 -0.0129 -0.0018 -1.0820
66031SOL     OW16084   0.433  13.079  10.636  0.2416  0.6591 -0.9509
66031SOL    HW116085   0.406  13.094  10.546  0.4949  1.2532 -0.9359
66031SOL    HW216086   0.512  13.025  10.630 -0.9032 -1.0803 -0.9934
66032SOL     OW16087   8.754   6.848   2.737 -0.1386  0.3211 -0.7737
66032SOL    HW116088   8.810   6.772   2.726 -0.2461  0.1713 -0.2940
66032SOL    HW216089   8.767   6.875   2.828  2.5145  2.9453 -1.7768
66033SOL     OW16090  11.295   2.088   4.213 -0.4300  0.5202  0.1366
66033SOL    HW116091  11.282   2.156   4.278  0.4014  0.6262  0.2001
66033SOL    HW216092  11.359   2.124   4.153  0.0609 -0.2276  0.2013
66034SOL     OW16093   0.817   9.551  10.641 -0.0884  0.0751 -0.2495
66034SOL    HW116094   0.908   9.547  10.672  0.5389 -0.8083 -2.0556
66034SOL    HW216095   0.782   9.632  10.679  1.4581  0.4530  0.4546
66035SOL     OW16096   8.616  10.723   4.723 -0.1329 -0.1287  0.5816
66035SOL    HW116097   8.682  10.724   4.654 -1.2000 -0.2465 -0.4744
66035SOL    HW216098   8.587  10.814   4.730 -3.0012 -0.6555 -2.1608
66036SOL     OW16099  10.851   0.074  12.155  0.1006 -0.6510 -0.0594
66036SOL    HW116100  10.767   0.100  12.118  0.9587 -3.0150 -4.4144
66036SOL    HW216101  10.830   0.004  12.216 -1.1453 -0.5877 -0.3861
66037SOL     OW16102  14.156  11.143   0.868  0.0444 -0.0744 -0.4135
66037SOL    HW116103  14.113  11.189   0.939  1.1685  1.2070 -0.5339
66037SOL    HW216104  14.194  11.212   0.813  4.6249 -1.0077  1.1307
66038SOL     OW16105   5.784  13.248   7.705 -0.1559  0.1067 -0.0481
66038SOL    HW116106   5.808  13.245   7.798 -0.4351  1.2007  0.0644
66038SOL    HW216107   5.703  13.197   7.700  0.1688 -0.4501  0.2007
66039SOL     OW16108   0.352  12.524   5.492 -0.0829  0.5181 -0.0157
66039SOL    HW116109   0.421  12.571   5.539  1.0242 -0.5657 -0.5106
66039SOL    HW216110   0.387  12.511   5.404 -1.6341  1.4394 -0.8117
66040SOL     OW16111   3.028   0.351   7.187  0.3582 -0.0394  0.0545
66040SOL    HW116112   2.966   0.307   7.245  0.7247  1.3303  1.5495
66040SOL    HW216113   3.071   0.280   7.139  0.3794 -1.2625  1.8051
66041SOL     OW16114   8.302   4.357   7.708  0.2649 -0.0930 -0.1120
66041SOL    HW116115   8.391   4.322   7.707  0.6840  0.8273  1.6165
66041SOL    HW216116   8.307   4.439   7.659  0.2263 -0.3349 -0.5251
66042SOL     OW16117  12.275  11.502   9.743 -0.0826 -0.0302 -0.3915
66042SOL    HW116118  12.230  11.437   9.690 -0.9887 -0.4598  0.8732
66042SOL    HW216119  12.213  11.525   9.812  0.1599  2.2696 -0.8496
66043SOL     OW16120   1.797   6.222  12.364 -0.5630 -0.4762  0.0379
66043SOL    HW116121   1.759   6.310  12.353 -0.7305 -0.7112 -1.5875
66043SOL    HW216122   1.738   6.178  12.424 -0.9000  0.2944  0.2884
66044SOL     OW16123   0.361   2.015  12.401  0.1763  0.0839  0.1510
66044SOL    HW116124   0.290   2.006  12.465 -1.7767 -1.1677 -1.9952
66044SOL    HW216125   0.316   2.010  12.316  2.7053  0.9212 -1.3228
66045SOL     OW16126   1.194  13.254  13.137  0.4644 -0.6043  0.0879
66045SOL    HW116127   1.260  13.252  13.067  0.9157 -1.3218  0.5241
66045SOL    HW216128   1.142  13.175  13.123  0.1161 -0.3890  0.1512
66046SOL     OW16129   7.406   4.964   7.175 -0.2539  1.0986 -0.4351
66046SOL    HW116130   7.498   4.937   7.178 -0.8151 -1.3229 -2.1763
66046SOL    HW216131   7.408   5.049   7.131  1.2124  1.8620  0.9589
66047SOL     OW16132   2.498  13.752  11.723  0.5224  0.2326  0.3222
66047SOL    HW116133   2.497  13.674  11.777  3.2278 -1.1756 -1.4074
66047SOL    HW216134   2.447  13.729  11.645 -1.4577  1.4407  1.1966
66048SOL     OW16135   3.236   6.334   9.648 -0.3469  0.1416  0.5692
66048SOL    HW116136   3.295   6.409   9.656  0.9695 -0.4208 -2.5280
66048SOL    HW216137   3.291   6.257   9.663 -1.3279 -0.3047  2.0906
66049SOL     OW16138   0.854   7.224   9.501 -0.0521  0.5498  0.6307
66049SOL    HW116139   0.942   7.238   9.467  0.5033  1.4507  2.3449
66049SOL    HW216140   0.796   7.251   9.429  1.0565  1.7733  0.1577
66050SOL     OW16141  11.314   9.152   8.337  0.3653 -0.1545  0.5359
66050SOL    HW116142  11.240   9.211   8.351 -0.1903 -1.1137  1.9126
66050SOL    HW216143  11.368   9.164   8.416  0.8491 -0.6366  0.2791
66051SOL     OW16144  11.910   4.998   3.868 -0.1871  0.6652  0.3348
66051SOL    HW116145  11.901   4.927   3.804 -0.9719  0.2910  0.8519
66051SOL    HW216146  11.999   4.989   3.901 -0.8750 -1.3129  1.8184
66052SOL     OW16147  11.810  10.056   3.861 -0.4007 -0.2196 -0.1807
66052SOL    HW116148  11.903  10.063   3.883 -0.1398 -1.3386 -0.8732
66052SOL    HW216149  11.808  10.008   3.778 -1.6734 -1.7884  0.7077
66053SOL     OW16150   9.231   3.510   6.000  0.7912 -0.1892 -0.0343
66053SOL    HW116151   9.268   3.598   6.006  0.2761  0.0309 -0.0720
66053SOL    HW216152   9.209   3.499   5.907  2.1943 -0.9147 -0.3083
66054SOL     OW16153   9.568   3.387   1.293  0.0809  0.1405  0.0501
66054SOL    HW116154   9.616   3.467   1.312  0.7328  0.0484 -1.1228
66054SOL    HW216155   9.525   3.403   1.209  0.0219 -0.6521 -0.0858
66055SOL     OW16156  12.737   9.191   8.754  0.0847  0.4959  0.0483
66055SOL    HW116157  12.745   9.200   8.849 -1.6418 -0.3226  0.3093
66055SOL    HW216158  12.643   9.195   8.737  0.3604  0.5163 -1.6206
66056SOL     OW16159   8.818   8.656  13.035 -0.2285  0.1064  0.0789
66056SOL    HW116160   8.869   8.723  12.990  0.6779 -1.1057 -0.7576
66056SOL    HW216161   8.760   8.620  12.967  0.2573 -0.8786  0.1725
66057SOL     OW16162   8.783   4.579   1.661 -0.1213  0.1124  0.3086
66057SOL    HW116163   8.776   4.515   1.731 -1.4838  0.2957  0.3632
66057SOL    HW216164   8.744   4.658   1.697 -3.7833 -0.6140 -1.5846
66058SOL     OW16165   0.246  10.262  12.843  0.0509 -0.0449  0.7608
66058SOL    HW116166   0.179  10.214  12.891 -0.4950  0.5770  0.6309
66058SOL    HW216167   0.323  10.204  12.845 -0.5204 -0.8133  0.8061
66059SOL     OW16168   7.900   8.044   4.416  0.2326  0.3254 -0.5291
66059SOL    HW116169   7.916   7.957   4.380 -2.7402 -0.4806 -0.2259
66059SOL    HW216170   7.838   8.028   4.488  2.3297  2.3649  1.9321
66060SOL     OW16171   2.398   6.709   1.365  0.4646 -0.2210 -0.4552
66060SOL    HW116172   2.387   6.685   1.457  0.7825 -2.8803 -1.0229
66060SOL    HW216173   2.424   6.801   1.367  1.1758 -0.3967  2.1430
66061SOL     OW16174  10.567   3.360   2.189  0.1550 -0.2719  0.3177
66061SOL    HW116175  10.636   3.355   2.255  1.6693 -1.6013 -1.2520
66061SOL    HW216176  10.557   3.270   2.158 -0.7385  0.2480 -1.0212
66062SOL     OW16177   7.182   9.707   4.699  0.0536  0.0738  0.3545
66062SOL    HW116178   7.236   9.783   4.719 -0.1024  0.0263  0.9952
66062SOL    HW216179   7.190   9.651   4.777 -2.9990  1.2477  1.6605
66063SOL     OW16180   3.339   9.586  12.409 -0.3293  0.0735  0.3228
66063SOL    HW116181   3.312   9.662  12.357  2.5404 -1.3814 -3.7827
66063SOL    HW216182   3.267   9.523  12.399 -0.8203  0.6682  0.0594
66064SOL     OW16183   4.278   4.850  14.069  0.3783 -0.4025  0.4195
66064SOL    HW116184   4.247   4.939  14.089  1.3213 -0.3003  1.5984
66064SOL    HW216185   4.198   4.797  14.064 -0.1433  0.3522  0.5760
66065SOL     OW16186   1.633  13.662   4.143 -0.2447  0.1822 -0.0858
66065SOL    HW116187   1.545  13.635   4.116  0.6064 -0.3251 -2.6901
66065SOL    HW216188   1.678  13.579   4.161 -0.4675  0.4753  2.0300
66066SOL     OW16189   6.059   5.457   8.448  0.2643 -0.0635 -0.0099
66066SOL    HW116190   6.085   5.529   8.505 -1.3709  1.6812 -1.3278
66066SOL    HW216191   6.132   5.444   8.389  0.9630 -0.1995  0.8631
66067SOL     OW16192  13.956   7.964  12.226  0.0923 -0.1559  0.3563
66067SOL    HW116193  14.043   8.003  12.225  0.3513 -0.7302  0.1802
66067SOL    HW216194  13.937   7.949  12.319 -0.7810  2.0548  0.5982
66068SOL     OW16195  10.017  11.132   3.609 -0.1813  0.2061  0.1807
66068SOL    HW116196  10.103  11.095   3.589  0.4069  1.8619 -0.5035
66068SOL    HW216197   9.955  11.065   3.581  0.8707 -0.9501  0.5434
66069SOL     OW16198   8.585   0.674   5.387 -0.1317  0.0644 -0.0985
66069SOL    HW116199   8.677   0.650   5.399 -0.2912  0.1061  1.4683
66069SOL    HW216200   8.545   0.599   5.344  0.2497 -0.7825  0.9813
66070SOL     OW16201  13.282   5.783   1.620 -0.2417  0.3857 -0.4996
66070SOL    HW116202  13.240   5.863   1.590 -0.3973 -1.0184 -4.6124
66070SOL    HW216203  13.374   5.795   1.598  0.0991  0.1651  0.7301
66071SOL     OW16204   7.339   9.980   5.329 -0.0458 -0.1034  0.3447
66071SOL    HW116205   7.334  10.067   5.368  2.0241  0.2398 -0.0195
66071SOL    HW216206   7.357   9.921   5.403 -2.4200 -0.4152  0.7338
66072SOL     OW16207  10.750   9.966   8.489  0.1252 -0.2604 -0.2171
66072SOL    HW116208  10.800   9.885   8.497  1.1034  0.4167  0.8238
66072SOL    HW216209  10.798  10.029   8.542  0.2494  1.4405 -2.2218
66073SOL     OW16210   9.304  12.119   0.213 -0.2362  0.1821  0.7152
66073SOL    HW116211   9.325  12.058   0.284 -1.6927  0.8159  1.7329
66073SOL    HW216212   9.261  12.065   0.147  1.3388 -0.4598  0.1604
66074SOL     OW16213  13.396   7.527  11.959  0.7922  0.1471 -0.5210
66074SOL    HW116214  13.466   7.471  11.993  0.7322  0.6520  0.4679
66074SOL    HW216215  13.422   7.615  11.984  0.3515  0.4566 -1.1303
66075SOL     OW16216   5.865   6.078  10.267  0.0586  0.6061  0.4959
66075SOL    HW116217   5.821   6.021  10.204  0.0021 -0.7444  1.7077
66075SOL    HW216218   5.931   6.022  10.308 -1.7432  0.5543  3.6263
66076SOL     OW16219  13.836   7.004   3.074 -0.1344  0.1411 -0.5272
66076SOL    HW116220  13.762   6.945   3.061 -0.8761  0.9207  0.0521
66076SOL    HW216221  13.813   7.084   3.026 -0.6148  1.1424  1.2628
66077SOL     OW16222   4.799   1.993   9.449  0.1234 -0.3919  0.3872
66077SOL    HW116223   4.732   1.925   9.454 -0.8609  0.5821  0.6195
66077SOL    HW216224   4.854   1.978   9.526 -0.4620 -0.5328  0.7783
66078SOL     OW16225   8.785   5.662   4.568 -0.0370  0.2414 -0.1292
66078SOL    HW116226   8.835   5.633   4.491 -0.1621  0.4224 -0.2796
66078SOL    HW216227   8.832   5.625   4.642  2.2930  3.1812 -0.0002
66079SOL     OW16228  10.994   4.015   7.960  0.2672  0.0138 -0.4817
66079SOL    HW116229  10.958   3.937   7.919  0.0747  0.6098 -1.4735
66079SOL    HW216230  10.964   4.088   7.905  0.6257  0.7693  0.2907
66080SOL     OW16231   5.411   2.564   9.006  0.1648 -0.0204  0.6797
66080SOL    HW116232   5.403   2.498   8.936  2.8148 -0.0212  0.2895
66080SOL    HW216233   5.411   2.513   9.087 -1.3101 -0.1541  0.6245
66081SOL     OW16234  12.226   7.787   6.344  0.0607  0.4340 -0.7244
66081SOL    HW116235  12.143   7.835   6.335  0.4657  0.9301 -2.2086
66081SOL    HW216236  12.250   7.798   6.436 -0.8079  1.4903 -0.5952
66082SOL     OW16237  13.996   3.571   1.274 -0.0207  0.6809  0.4094
66082SOL    HW116238  14.011   3.654   1.228 -0.6708  1.0526  0.8429
66082SOL    HW216239  13.903   3.552   1.259  0.4330 -0.7020 -0.8369
66083SOL     OW16240   7.119   4.442   5.157 -0.5655 -0.2442 -0.1564
66083SOL    HW116241   7.138   4.394   5.238 -1.9268  0.0129  0.3312
66083SOL    HW216242   7.154   4.387   5.087 -2.1919 -2.0359  0.3799
66084SOL     OW16243  10.963   8.601  10.497 -0.1018  0.1184 -0.2647
66084SOL    HW116244  10.869   8.616  10.508  0.0238  1.9696 -1.3282
66084SOL    HW216245  10.976   8.602  10.402  1.3582  2.6304 -0.1111
66085SOL     OW16246   7.845   1.732   8.312  0.0434  0.3934 -0.3426
66085SOL    HW116247   7.827   1.638   8.316 -1.3160  0.6600  0.1897
66085SOL    HW216248   7.904   1.748   8.386 -1.0314  0.2221  0.5666
66086SOL     OW16249   5.143   9.390   3.540  0.2407  0.0716 -0.1102
66086SOL    HW116250   5.195   9.401   3.620  0.0070 -3.4066  0.6694
66086SOL    HW216251   5.206   9.361   3.474  0.0511  0.6376 -0.5463
66087SOL     OW16252   5.570   6.994   7.462 -0.3407  0.2663 -0.0752
66087SOL    HW116253   5.487   7.017   7.419 -2.4647 -1.5662  2.7176
66087SOL    HW216254   5.602   7.077   7.497 -2.7858  0.6345  1.5772
66088SOL     OW16255  13.589  10.888  10.499  0.0136 -0.2815 -0.0410
66088SOL    HW116256  13.575  10.981  10.515  1.1346 -0.0901 -0.1361
66088SOL    HW216257  13.541  10.870  10.418 -1.5046 -0.1497  0.7952
66089SOL     OW16258  13.793  11.986   6.379 -0.1233  0.2150  0.7041
66089SOL    HW116259  13.807  11.923   6.308 -1.6736  0.7466 -0.1317
66089SOL    HW216260  13.769  11.932   6.455  1.0919 -0.3295  0.7208
66090SOL     OW16261   5.558   1.203   1.447  0.0219  0.2050 -0.1988
66090SOL    HW116262   5.530   1.285   1.406 -1.2273 -0.6055 -1.0432
66090SOL    HW216263   5.558   1.140   1.376  1.3775 -0.4568  0.3636
66091SOL     OW16264   3.932  10.288   6.294 -0.3379 -0.4231 -0.0379
66091SOL    HW116265   3.948  10.324   6.381 -0.5812 -0.8771  0.1925
66091SOL    HW216266   3.968  10.354   6.234  1.2958 -0.8528  0.4337
66092SOL     OW16267   1.864   7.281   0.488 -0.1026 -0.3877  0.1818
66092SOL    HW116268   1.861   7.230   0.407 -0.6718 -0.3459  0.1735
66092SOL    HW216269   1.867   7.372   0.459 -2.0525 -0.2782  0.1893
66093SOL     OW16270   8.860  13.551  10.970 -0.1416 -0.2278  1.0192
66093SOL    HW116271   8.841  13.457  10.974 -0.5073 -0.3319 -1.3653
66093SOL    HW216272   8.775  13.592  10.957  0.1634  0.2724  0.5345
66094SOL     OW16273   4.910  12.669  10.689  0.2541  0.3144 -0.0137
66094SOL    HW116274   4.888  12.629  10.773  2.2159  1.8658  1.3376
66094SOL    HW216275   4.841  12.734  10.675  0.1962  0.4065  0.6729
66095SOL     OW16276   7.095   9.992   8.088  0.2938  0.2493  0.4526
66095SOL    HW116277   7.185   9.995   8.055  0.1988  0.0237  0.1691
66095SOL    HW216278   7.099  10.037   8.172  0.7075  0.0832  0.5237
66096SOL     OW16279  12.081   3.237  10.102  0.0371  0.3258 -0.0010
66096SOL    HW116280  12.071   3.332  10.107  1.6228  0.5333 -0.3292
66096SOL    HW216281  12.030   3.211  10.026 -1.5237  0.7077  0.8660
66097SOL     OW16282  13.364   6.703   5.985  0.3473  0.1387 -0.3903
66097SOL    HW116283  13.395   6.792   5.973 -0.1993  0.4372  0.3705
66097SOL    HW216284  13.398   6.655   5.909 -0.8067  1.3606 -1.7217
66098SOL     OW16285  13.578   1.801   1.412 -0.5291  0.7673  0.5679
66098SOL    HW116286  13.551   1.771   1.325  1.8096  0.5615 -0.1512
66098SOL    HW216287  13.496   1.826   1.455 -1.8456 -0.0274 -1.3335
66099SOL     OW16288   1.493   8.201  11.196  0.3513  0.0800  0.4018
66099SOL    HW116289   1.544   8.133  11.151  1.6249  0.5193  1.1119
66099SOL    HW216290   1.407   8.197  11.156 -0.1146 -2.9812  1.4199
66100SOL     OW16291   2.682   3.423   3.575 -0.3437  0.1868  0.9817
66100SOL    HW116292   2.718   3.508   3.552  0.3691 -0.2566  0.4375
66100SOL    HW216293   2.601   3.444   3.622 -0.2592  1.1563  0.7230
66101SOL     OW16294  12.108  14.026  10.621  0.6343 -0.6573  0.3938
66101SOL    HW116295  12.184  14.021  10.680  0.4902 -2.1475  0.4956
66101SOL    HW216296  12.114  13.947  10.567  0.0085  0.0008 -0.6815
66102SOL     OW16297   5.569   8.293   4.421 -0.7087  0.5967  0.0815
66102SOL    HW116298   5.650   8.309   4.470 -1.4108  1.9615  0.8796
66102SOL    HW216299   5.523   8.377   4.424 -0.9374  0.6638 -2.7174
66103SOL     OW16300   3.119   6.206   0.228  0.0055 -0.3300  0.4437
66103SOL    HW116301   3.124   6.167   0.141 -0.0705  0.2993  0.1510
66103SOL    HW216302   3.065   6.145   0.279 -1.4546  0.1701 -0.4479
66104SOL     OW16303   1.467  13.961  11.038  0.2978 -0.0351  0.2876
66104SOL    HW116304   1.514  14.042  11.058  1.3963 -0.0943 -1.8636
66104SOL    HW216305   1.378  13.989  11.017 -0.3692  0.2038  2.9565
66105SOL     OW16306   0.002  12.302   6.236  0.5889 -0.1413 -0.0275
66105SOL    HW116307  -0.043  12.347   6.308  0.5986  0.6898 -0.5252
66105SOL    HW216308   0.092  12.293   6.266  0.3870 -0.6431  0.4427
66106SOL     OW16309   7.485  11.346   3.315  0.5086  0.3447  0.0273
66106SOL    HW116310   7.429  11.366   3.391 -0.3107  0.6285 -0.6350
66106SOL    HW216311   7.554  11.291   3.351 -0.0349  0.2189  0.9323
66107SOL     OW16312   0.004   5.763   8.802 -0.8204  0.2348  0.0699
66107SOL    HW116313  -0.008   5.857   8.817  0.5533  0.6070 -0.9541
66107SOL    HW216314   0.059   5.758   8.723  0.7067 -1.3643  1.1536
66108SOL     OW16315  14.004   4.464   3.683  0.0382  0.1037 -0.9681
66108SOL    HW116316  13.992   4.546   3.635 -0.0641  1.1481  0.7519
66108SOL    HW216317  13.927   4.458   3.740  0.8369 -0.3198  0.1034
66109SOL     OW16318   3.146   2.637   9.708 -0.5916 -0.4763 -0.1817
66109SOL    HW116319   3.059   2.605   9.685 -0.4080 -0.3213 -1.1056
66109SOL    HW216320   3.132   2.726   9.740 -0.6727 -0.1230 -1.1912
66110SOL     OW16321   6.866   3.060   0.818  0.2288  0.1410 -0.1172
66110SOL    HW116322   6.956   3.041   0.842  0.2159  0.4703  0.1927
66110SOL    HW216323   6.841   3.134   0.874 -0.5823 -0.6405  0.5708
66111SOL     OW16324  12.326  11.554   2.897  0.2529 -0.4243  0.4336
66111SOL    HW116325  12.242  11.548   2.852 -0.4594 -1.4561  1.7999
66111SOL    HW216326  12.361  11.640   2.874  0.1168 -1.0260 -2.3062
66112SOL     OW16327   4.000   9.868   0.363  0.1656  0.1643 -0.2602
66112SOL    HW116328   4.022   9.782   0.400 -0.9429 -0.4496 -0.9740
66112SOL    HW216329   4.082   9.901   0.327  0.3223 -1.2326 -1.2318
66113SOL     OW16330   2.732  12.626  13.231  0.3370  0.2105 -0.2114
66113SOL    HW116331   2.730  12.720  13.248 -0.3956 -0.2404  2.7751
66113SOL    HW216332   2.824  12.602  13.240  0.2901  0.3962  0.9446
66114SOL     OW16333   5.886  12.385   3.032 -0.2573  0.3502 -0.1576
66114SOL    HW116334   5.932  12.414   2.954 -0.8183  0.6671 -0.3747
66114SOL    HW216335   5.860  12.466   3.077  1.4819  0.2011  1.2283
66115SOL     OW16336  13.343   5.131  10.549  0.2554 -0.5608 -0.7642
66115SOL    HW116337  13.408   5.188  10.590 -0.5929  0.4848 -0.8243
66115SOL    HW216338  13.299   5.088  10.623  0.8416 -1.0952 -0.7165
66116SOL     OW16339   0.411   4.401  10.190  0.3709 -0.2814 -0.2504
66116SOL    HW116340   0.356   4.322  10.186  1.8786 -1.3464 -0.7764
66116SOL    HW216341   0.450   4.398  10.277  1.0500 -0.5665 -0.5578
66117SOL     OW16342   0.402  12.098  10.941  0.1844 -0.5077  0.2958
66117SOL    HW116343   0.330  12.160  10.949  0.9091  0.4962 -0.5884
66117SOL    HW216344   0.373  12.036  10.875  1.1585  1.5365 -2.2354
66118SOL     OW16345   2.357   1.241   0.574  0.0536 -0.2203  0.0037
66118SOL    HW116346   2.379   1.222   0.483 -1.5357  0.2230 -0.5052
66118SOL    HW216347   2.293   1.174   0.598  0.6291 -0.4742  0.8841
66119SOL     OW16348  11.599   1.824  10.662 -0.4501 -0.1799  0.6767
66119SOL    HW116349  11.509   1.852  10.649 -0.4342 -0.2679  0.3474
66119SOL    HW216350  11.597   1.729  10.652 -0.0616 -0.0516 -1.0615
66120SOL     OW16351   9.355   2.564   4.946  0.2305  0.7800 -0.7655
66120SOL    HW116352   9.427   2.521   4.992 -0.6031  0.6976  0.5185
66120SOL    HW216353   9.277   2.515   4.973 -0.7964  3.1121  0.9151
66121SOL     OW16354  10.010   3.424   1.374 -0.7483  0.2148 -0.3121
66121SOL    HW116355   9.955   3.446   1.299 -0.0821 -1.6107 -1.3948
66121SOL    HW216356  10.099   3.445   1.345 -0.3662 -1.5181 -0.4892
66122SOL     OW16357   7.718   4.627   2.703  0.3620 -0.2466  0.6251
66122SOL    HW116358   7.635   4.624   2.654 -0.1671  0.1054  1.4769
66122SOL    HW216359   7.713   4.552   2.763  1.1072 -0.8128 -0.0051
66123SOL     OW16360   6.527   1.537  10.842  0.4726  0.1564 -0.8031
66123SOL    HW116361   6.511   1.451  10.802 -1.3919  0.3383 -0.5256
66123SOL    HW216362   6.550   1.594  10.769  0.4649 -0.2878 -1.1563
66124SOL     OW16363   5.521  10.614   9.614  0.8498 -0.8152  0.0734
66124SOL    HW116364   5.595  10.668   9.641 -0.3545  1.8477 -1.5082
66124SOL    HW216365   5.464  10.611   9.691  0.7766  0.5609  0.1022
66125SOL     OW16366  11.449  13.047  12.265  0.2814  0.1037 -0.2366
66125SOL    HW116367  11.459  13.136  12.230 -0.2800  0.4011  0.3418
66125SOL    HW216368  11.530  13.032  12.314  2.3266 -1.3017 -3.6334
66126SOL     OW16369  10.194  13.015   4.740  0.0497  0.1906  0.4545
66126SOL    HW116370  10.288  13.008   4.725  0.1810 -0.4137  1.5087
66126SOL    HW216371  10.172  13.104   4.714  1.0645  0.6142  1.0132
66127SOL     OW16372  13.527  12.769   8.367  0.0405 -0.2772 -0.2017
66127SOL    HW116373  13.439  12.770   8.405 -0.0658 -0.7684 -0.4292
66127SOL    HW216374  13.518  12.716   8.288  0.3678  0.3356 -0.6535
66128SOL     OW16375   6.742  10.188   6.433 -0.0347 -0.4759  0.2499
66128SOL    HW116376   6.728  10.134   6.355 -1.1098  0.7937 -0.4933
66128SOL    HW216377   6.660  10.236   6.443  1.7914  3.3015 -0.9997
66129SOL     OW16378   1.822   4.836  13.462 -0.2913  0.2811 -0.6061
66129SOL    HW116379   1.848   4.836  13.370 -0.6261  1.5851 -0.7299
66129SOL    HW216380   1.733   4.800  13.462  0.1864 -0.9294 -0.6157
66130SOL     OW16381   2.045  12.560   9.869 -0.5384  0.6542 -0.0121
66130SOL    HW116382   2.105  12.617   9.917 -0.7257  0.8266  0.0216
66130SOL    HW216383   2.005  12.617   9.803 -0.6205  0.5281 -0.0718
66131SOL     OW16384   3.052   4.672   5.806  0.2983 -0.5808  0.1225
66131SOL    HW116385   2.970   4.700   5.847 -0.0173 -2.0025  0.5234
66131SOL    HW216386   3.081   4.748   5.755 -1.7197 -0.3261 -0.7323
66132SOL     OW16387  12.764  12.912   4.435 -0.8029  0.4319  0.3321
66132SOL    HW116388  12.708  12.888   4.508 -2.2817  0.1594 -0.8339
66132SOL    HW216389  12.837  12.961   4.474 -0.0688 -2.0254  2.2846
66133SOL     OW16390   7.760   1.654   8.960 -0.8817 -0.3146 -0.1520
66133SOL    HW116391   7.742   1.658   9.054 -0.9760  1.2565 -0.2117
66133SOL    HW216392   7.729   1.739   8.926 -0.3031 -0.6199 -1.4988
66134SOL     OW16393   1.831   3.374   9.730  0.4063 -0.9088 -0.0385
66134SOL    HW116394   1.875   3.299   9.689  2.1585 -0.5829  1.1600
66134SOL    HW216395   1.900   3.419   9.779 -0.8167  0.9306  0.0958
66135SOL     OW16396  11.590   1.191   7.952  0.0475  0.4790 -0.2951
66135SOL    HW116397  11.558   1.266   7.902 -0.2907  0.2228 -0.4718
66135SOL    HW216398  11.625   1.131   7.885 -0.3181  0.1786 -0.2204
66136SOL     OW16399   7.621   3.006   8.385  0.4035 -0.4043  0.2133
66136SOL    HW116400   7.715   2.987   8.387  0.0722 -2.3678 -0.7599
66136SOL    HW216401   7.599   3.012   8.292 -0.5217 -0.4454  0.4154
66137SOL     OW16402   9.941   3.149   0.948 -0.0966 -0.7003  0.3893
66137SOL    HW116403   9.905   3.229   0.987  0.6910 -0.2195  0.1466
66137SOL    HW216404  10.017   3.178   0.898 -0.2613 -1.4999 -0.3592
66138SOL     OW16405  12.537   8.936   9.256  0.2424  0.5427  0.2938
66138SOL    HW116406  12.569   8.899   9.174 -2.8295 -1.0902 -0.2914
66138SOL    HW216407  12.613   8.983   9.292  2.3690 -0.6770 -2.2663
66139SOL     OW16408  11.532  13.822   5.359 -0.1935 -0.4016  0.6160
66139SOL    HW116409  11.523  13.917   5.346 -3.0331 -0.4735  1.4141
66139SOL    HW216410  11.526  13.786   5.270 -0.7569  0.0967  0.4404
66140SOL     OW16411  13.247  10.030   7.170  0.2570 -0.8577  1.1799
66140SOL    HW116412  13.269  10.116   7.206 -1.7619 -0.7312  2.2723
66140SOL    HW216413  13.181   9.996   7.230 -0.0890 -2.5253 -0.0865
66141SOL     OW16414  12.924   8.665   5.860  0.1097  0.2453 -0.0707
66141SOL    HW116415  12.861   8.729   5.828  1.2506  0.5502 -1.8598
66141SOL    HW216416  13.009   8.705   5.846  0.7867 -0.8570  0.6797
66142SOL     OW16417   9.735  13.765   3.593 -0.5029 -0.2245 -0.0647
66142SOL    HW116418   9.802  13.713   3.549  0.3428  0.2721  0.6069
66142SOL    HW216419   9.776  13.795   3.674  0.0041  3.6416 -1.5366
66143SOL     OW16420   3.231  11.819   2.047 -0.3909  0.4576  0.5231
66143SOL    HW116421   3.263  11.748   1.992 -0.7458  1.7227 -1.4322
66143SOL    HW216422   3.150  11.786   2.085 -1.1514  0.1745 -1.2718
66144SOL     OW16423  11.858  10.438   4.509 -0.1827 -0.0845 -0.0544
66144SOL    HW116424  11.874  10.431   4.415  0.4007  1.2348 -0.0844
66144SOL    HW216425  11.765  10.463   4.515  0.1416  1.2949 -0.3828
66145SOL     OW16426  13.771   2.632   9.017 -0.1472 -0.0290 -0.7531
66145SOL    HW116427  13.844   2.619   9.078 -1.4110  1.4604  1.2059
66145SOL    HW216428  13.700   2.579   9.052 -1.5234  2.3880  0.3448
66146SOL     OW16429   6.578   0.704   3.242 -0.0732  0.2650 -0.3481
66146SOL    HW116430   6.656   0.659   3.209  0.0158 -0.0507  0.2804
66146SOL    HW216431   6.511   0.687   3.175 -0.1521 -1.1704  0.0478
66147SOL     OW16432  12.720   7.819  10.687  0.1992 -0.0245  0.1721
66147SOL    HW116433  12.647   7.761  10.709  0.4372  0.3942  2.2993
66147SOL    HW216434  12.709   7.838  10.594 -0.4551 -2.6602 -0.3733
66148SOL     OW16435   1.467   6.461  13.210 -0.3029  0.1994 -0.1189
66148SOL    HW116436   1.450   6.424  13.124 -0.4875 -0.8383  0.3478
66148SOL    HW216437   1.546   6.513  13.199 -0.6396  0.5340 -1.0398
66149SOL     OW16438   1.450   0.633  11.818 -0.0396 -0.1545 -0.4174
66149SOL    HW116439   1.388   0.700  11.788 -0.3737 -0.1573  0.2575
66149SOL    HW216440   1.534   0.679  11.821 -0.1087  0.0027 -0.7866
66150SOL     OW16441   2.550   5.973   3.462  0.4274  0.0624 -0.0003
66150SOL    HW116442   2.462   5.993   3.430  0.8642 -0.1373 -1.4164
66150SOL    HW216443   2.578   6.054   3.506 -0.5166  0.0633  0.6213
66151SOL     OW16444   7.866   0.166  11.019 -0.4144 -0.5367 -0.1216
66151SOL    HW116445   7.809   0.117  11.078 -1.1348 -0.9139 -1.1071
66151SOL    HW216446   7.822   0.251  11.008 -0.0384 -0.2903  0.2461
66152SOL     OW16447   2.263   0.020  10.495 -0.2781 -0.2683 -0.0049
66152SOL    HW116448   2.285   0.106  10.460  1.2454 -0.4290  0.4793
66152SOL    HW216449   2.292   0.023  10.586 -0.5404 -1.1692  0.1151
66153SOL     OW16450  10.220   9.808   4.912 -0.0053  0.5355  0.0932
66153SOL    HW116451  10.308   9.776   4.930  0.3061  0.6868 -1.0730
66153SOL    HW216452  10.226   9.903   4.922 -0.4544  0.4320  1.6188
66154SOL     OW16453  13.382   0.506   2.328 -0.9191 -0.0004  0.7514
66154SOL    HW116454  13.393   0.474   2.239  0.5202  0.7295  0.6344
66154SOL    HW216455  13.400   0.430   2.383 -1.4330 -0.3590  0.4301
66155SOL     OW16456  13.280   1.122  13.666 -0.4617  0.0789  0.2033
66155SOL    HW116457  13.282   1.102  13.572  0.0716  1.9309 -0.2214
66155SOL    HW216458  13.349   1.187  13.679  0.2610 -0.9910  2.1235
66156SOL     OW16459   8.932   2.279   2.096 -0.5718  0.2539 -0.2093
66156SOL    HW116460   9.009   2.235   2.060 -0.2191 -0.4310  1.3478
66156SOL    HW216461   8.937   2.368   2.060  0.4814 -0.0247 -0.7921
66157SOL     OW16462   1.988   2.877  13.872 -0.4971  0.2276 -0.5693
66157SOL    HW116463   2.040   2.839  13.801 -0.1452  0.2548 -0.3261
66157SOL    HW216464   1.940   2.949  13.830 -1.4342 -0.6897 -1.1169
66158SOL     OW16465  12.324  11.535  12.244  0.3606  0.0240 -0.1325
66158SOL    HW116466  12.277  11.556  12.164  1.1646  0.9896 -0.3660
66158SOL    HW216467  12.268  11.470  12.288 -1.5313  1.5819 -0.0760
66159SOL     OW16468   7.758   4.341  12.510  0.0063 -0.4239  0.3939
66159SOL    HW116469   7.834   4.399  12.515  0.2325 -0.7689  1.1209
66159SOL    HW216470   7.795   4.253  12.503 -0.3371 -0.4679 -1.1415
66160SOL     OW16471   8.759   7.645   2.487 -0.0100 -0.3788 -0.2482
66160SOL    HW116472   8.773   7.558   2.525  0.2293 -0.6349 -0.9097
66160SOL    HW216473   8.717   7.696   2.557 -1.0192 -1.2950 -0.1647
66161SOL     OW16474   1.968   6.706   1.665 -0.4436  0.4487 -0.2677
66161SOL    HW116475   1.887   6.753   1.646 -0.2215  0.3878 -1.4325
66161SOL    HW216476   2.031   6.775   1.686 -0.6004  0.5398 -0.0884
66162SOL     OW16477   0.357   5.406   4.433 -0.0726  0.3620  0.5105
66162SOL    HW116478   0.278   5.398   4.379  0.9486  2.1388 -1.3749
66162SOL    HW216479   0.403   5.323   4.419  1.1212  1.4473 -3.1380
66163SOL     OW16480  10.331   9.536   3.369 -0.0660 -0.6296 -0.4834
66163SOL    HW116481  10.364   9.499   3.287 -0.0044  0.5408 -1.0013
66163SOL    HW216482  10.314   9.628   3.349  0.1906 -0.2606  0.8891
66164SOL     OW16483   1.217   3.208   6.259 -0.2941 -0.0025 -0.1055
66164SOL    HW116484   1.132   3.195   6.217  0.1317 -0.8381 -0.7313
66164SOL    HW216485   1.244   3.121   6.287  0.9533  0.0395 -1.0913
66165SOL     OW16486  12.355   0.507   4.693  0.9535 -0.1323 -0.3159
66165SOL    HW116487  12.387   0.424   4.727 -0.6797 -1.6161 -2.1336
66165SOL    HW216488  12.334   0.489   4.601 -0.1394  2.0982 -0.5773
66166SOL     OW16489   3.174   3.572  13.215 -0.1215  0.0775  0.0297
66166SOL    HW116490   3.085   3.600  13.197  0.5427  2.5631  0.2755
66166SOL    HW216491   3.215   3.568  13.128  0.3856  2.2552  0.1192
66167SOL     OW16492   3.689  12.500   8.182  0.2063  0.1673  0.5812
66167SOL    HW116493   3.755  12.503   8.112 -0.0763  2.2305  0.3267
66167SOL    HW216494   3.639  12.420   8.165  1.1685 -0.2070 -0.6076
66168SOL     OW16495   0.267   6.564  12.705 -0.4979 -0.1106 -0.1422
66168SOL    HW116496   0.342   6.610  12.666 -0.3788  0.8537  1.1545
66168SOL    HW216497   0.191   6.598  12.656 -0.2595  0.2855 -0.2483
66169SOL     OW16498   1.072  12.717  13.186  0.2892 -0.2539  0.1093
66169SOL    HW116499   1.021  12.772  13.245  0.7520 -0.1705  0.4347
66169SOL    HW216500   1.026  12.633  13.186 -0.8334  0.3155 -0.9410
66170SOL     OW16501   2.947   1.312  13.179  0.5760  1.0486  0.0939
66170SOL    HW116502   3.005   1.334  13.252 -0.8754  2.2886  0.9143
66170SOL    HW216503   2.899   1.234  13.208  1.5267  0.2353 -0.4446
66171SOL     OW16504   8.721  10.703   7.838  0.4848  0.4500 -0.6425
66171SOL    HW116505   8.632  10.730   7.814  1.2069  1.6268 -2.1958
66171SOL    HW216506   8.754  10.656   7.761  0.4603 -2.0857  0.7610
66172SOL     OW16507   9.050   5.341   0.259 -0.3099  0.3157  0.3309
66172SOL    HW116508   8.975   5.368   0.205 -0.8903 -2.6620 -0.5528
66172SOL    HW216509   9.011   5.313   0.342  0.1326  0.9965  0.7821
66173SOL     OW16510   0.652   8.682   9.432 -0.1963 -0.1721 -0.7619
66173SOL    HW116511   0.600   8.686   9.513 -0.7912 -1.1899 -1.0755
66173SOL    HW216512   0.705   8.602   9.441  3.4836  2.1701  0.7763
66174SOL     OW16513  10.768   7.988   3.135  0.0529  0.0923 -0.4168
66174SOL    HW116514  10.767   7.897   3.106  0.4567  0.0670 -0.3591
66174SOL    HW216515  10.827   8.033   3.075 -2.0168  0.8640 -1.9932
66175SOL     OW16516   5.350   8.984  10.335 -0.0899  0.1656  0.1182
66175SOL    HW116517   5.399   9.036  10.399  1.1045  0.4401 -0.9751
66175SOL    HW216518   5.259   8.990  10.363  0.4638 -0.2195  2.1320
66176SOL     OW16519   3.146  12.460   9.887 -0.5787  0.1512  0.2030
66176SOL    HW116520   3.114  12.403   9.817  0.4311  0.4610 -0.5376
66176SOL    HW216521   3.121  12.416   9.968 -3.8044  0.8663 -0.2372
66177SOL     OW16522   8.572   2.970  10.154  0.6901 -0.2900 -0.4958
66177SOL    HW116523   8.512   2.904  10.188  0.8750 -0.1367  0.1425
66177SOL    HW216524   8.516   3.046  10.137  0.6103 -0.3406 -0.4593
66178SOL     OW16525   9.276  11.178   4.645 -0.7280 -0.0205  0.0329
66178SOL    HW116526   9.199  11.146   4.693 -0.3415 -1.6841 -0.4075
66178SOL    HW216527   9.347  11.174   4.708 -0.8520  0.9137  0.2505
66179SOL     OW16528  12.587   1.978   2.578 -0.0532 -0.1194  0.0748
66179SOL    HW116529  12.502   1.993   2.619 -1.9948 -1.9791 -2.9573
66179SOL    HW216530  12.619   1.897   2.618  0.0485  0.2669  0.7969
66180SOL     OW16531   8.316   3.487   7.730  0.2783  0.1694  0.1681
66180SOL    HW116532   8.328   3.582   7.725 -2.1784  0.6778  1.8853
66180SOL    HW216533   8.380   3.452   7.669  1.1137  2.9333 -0.7270
66181SOL     OW16534   4.959   3.820  11.066 -0.1294 -0.4404  0.3189
66181SOL    HW116535   5.050   3.821  11.097  0.5440  0.4600 -1.5540
66181SOL    HW216536   4.965   3.834  10.972 -2.3314  2.6359  0.4691
66182SOL     OW16537  14.157   5.435   1.021  0.5270 -0.6015  0.6625
66182SOL    HW116538  14.106   5.410   0.944  1.2300  1.2165 -0.4508
66182SOL    HW216539  14.098   5.420   1.095 -1.2329  0.3333 -0.4835
66183SOL     OW16540   6.430  12.659  14.142 -0.0151 -0.3610  0.7671
66183SOL    HW116541   6.512  12.657  14.190 -0.0919 -0.8738  0.8760
66183SOL    HW216542   6.408  12.567  14.126  0.2662 -0.1948 -0.6895
66184SOL     OW16543   0.875   4.315   7.212  0.0921  0.0275  0.4772
66184SOL    HW116544   0.946   4.342   7.154 -0.5973 -1.2935 -1.0511
66184SOL    HW216545   0.815   4.389   7.212 -1.0072 -0.7362 -2.3830
66185SOL     OW16546   9.889  12.764   1.968 -0.1278 -0.7179 -0.3849
66185SOL    HW116547   9.832  12.694   1.999 -1.6306  0.8505  0.6073
66185SOL    HW216548   9.876  12.835   2.031  0.0821  1.0268 -2.1798
66186SOL     OW16549  11.468   1.478   4.074 -0.0787  0.6978 -0.0100
66186SOL    HW116550  11.434   1.400   4.118 -0.5257  0.8757 -0.0326
66186SOL    HW216551  11.436   1.552   4.126  2.7163  0.8516  1.7304
66187SOL     OW16552  14.118  12.713   4.594  0.5247  0.7305 -0.0662
66187SOL    HW116553  14.086  12.738   4.507 -1.1309 -0.7782  0.0484
66187SOL    HW216554  14.065  12.764   4.655 -1.3372 -1.2524  0.1052
66188SOL     OW16555  12.911   4.123   6.571 -0.6405  0.1665 -0.4673
66188SOL    HW116556  12.989   4.128   6.627 -0.5187 -2.3643 -0.3239
66188SOL    HW216557  12.922   4.195   6.509  1.7027  0.0377 -0.2986
66189SOL     OW16558  13.743   3.963  10.018 -0.5437 -0.2485  1.1258
66189SOL    HW116559  13.781   4.038   9.972 -0.6849 -0.3465  0.8502
66189SOL    HW216560  13.690   4.001  10.088 -0.9398 -0.0781  0.7372
66190SOL     OW16561  12.548  10.021  11.542 -0.3964 -0.0137 -0.3406
66190SOL    HW116562  12.477  10.084  11.534 -0.8101 -0.3785  0.3708
66190SOL    HW216563  12.576  10.005  11.451 -2.3020 -1.0568 -0.7969
66191SOL     OW16564   0.639   6.110   0.302 -0.4105 -0.1290  0.0133
66191SOL    HW116565   0.657   6.146   0.215 -1.2087 -0.2963 -0.2258
66191SOL    HW216566   0.621   6.018   0.286 -1.9675  0.1169  0.1548
66192SOL     OW16567   8.228  13.702  12.076 -0.3643  0.2361  0.3944
66192SOL    HW116568   8.303  13.707  12.017 -0.7903 -0.4572 -0.2202
66192SOL    HW216569   8.267  13.706  12.164  0.4024 -0.2433  0.0851
66193SOL     OW16570   9.211   4.701   1.268 -0.5426  0.1647 -0.7584
66193SOL    HW116571   9.185   4.712   1.360 -0.5418 -0.3223 -0.6996
66193SOL    HW216572   9.207   4.789   1.232 -1.2055  0.2646 -0.4623
66194SOL     OW16573   4.893   9.838  13.024  0.3602 -0.9683  0.5023
66194SOL    HW116574   4.882   9.748  12.995 -1.2783 -0.6355 -0.0016
66194SOL    HW216575   4.878   9.835  13.119  0.1225 -1.1975  0.4568
66195SOL     OW16576  11.071   7.212   8.160  0.0213 -0.0820 -0.2891
66195SOL    HW116577  11.054   7.198   8.067  0.7105 -1.5776 -0.2226
66195SOL    HW216578  11.135   7.144   8.183 -0.6502 -0.1772  1.4298
66196SOL     OW16579   5.681   9.194   2.214 -0.2130  0.8741 -0.5833
66196SOL    HW116580   5.655   9.103   2.196  1.3065  0.4773 -0.8666
66196SOL    HW216581   5.599   9.236   2.241 -0.6212 -1.0868  1.6022
66197SOL     OW16582   0.882   8.501   1.511 -0.9606 -0.2343  0.8293
66197SOL    HW116583   0.954   8.447   1.543 -0.8050  0.2457  1.3047
66197SOL    HW216584   0.807   8.474   1.563 -1.2126 -0.9669  0.1086
66198SOL     OW16585  11.833   8.633  12.106 -0.1797 -0.0295  0.0100
66198SOL    HW116586  11.893   8.559  12.114 -0.5724 -0.2731  0.8007
66198SOL    HW216587  11.774   8.625  12.181 -0.1765  1.1309  0.1682
66199SOL     OW16588  13.785  10.414  11.208 -0.2356 -0.4094  0.4785
66199SOL    HW116589  13.752  10.495  11.169  2.5684  1.2616  1.3190
66199SOL    HW216590  13.715  10.385  11.266 -0.9569  1.9680  0.8820
66200SOL     OW16591  12.271  11.470   4.948 -0.4406  0.0319  0.3094
66200SOL    HW116592  12.367  11.468   4.946 -0.3942 -3.5970 -0.0382
66200SOL    HW216593  12.248  11.443   5.037 -1.2072  1.1089  0.4621
66201SOL     OW16594   4.199   5.982   5.704  0.9401  0.7038 -0.4890
66201SOL    HW116595   4.285   5.990   5.744  0.7778  0.4043 -0.0764
66201SOL    HW216596   4.189   5.888   5.686 -0.4013  0.2875  1.9824
66202SOL     OW16597  10.515   1.964   6.228 -0.1319  0.0071  0.1712
66202SOL    HW116598  10.575   1.983   6.300  0.3620  0.3717 -0.3358
66202SOL    HW216599  10.429   1.992   6.261 -0.2213 -1.4695  1.2882
66203SOL     OW16600   7.828  12.615   3.074 -0.0960 -0.2301 -0.0327
66203SOL    HW116601   7.849  12.670   3.149  0.1068 -0.7881  0.3265
66203SOL    HW216602   7.906  12.619   3.018 -0.5462  0.8136 -0.6063
66204SOL     OW16603   5.538   1.149  12.013 -0.5117 -0.2954 -0.2846
66204SOL    HW116604   5.568   1.213  11.948  1.1453  0.8046  1.4549
66204SOL    HW216605   5.529   1.199  12.094 -1.9174 -1.7458  0.5093
66205SOL     OW16606   1.388   1.931   3.197  0.0264 -0.0428 -0.0023
66205SOL    HW116607   1.310   1.985   3.204  0.7379  1.0776 -0.3665
66205SOL    HW216608   1.455   1.980   3.246  0.7131 -0.5609 -0.4025
66206SOL     OW16609   1.660  13.049   0.641 -0.4786  0.2067 -0.0437
66206SOL    HW116610   1.755  13.045   0.651 -0.4958 -0.1632  0.0067
66206SOL    HW216611   1.631  12.959   0.658 -1.0896  0.8201  2.6731
66207SOL     OW16612   1.429   9.421   1.329 -0.6549 -0.1979 -0.6413
66207SOL    HW116613   1.347   9.436   1.376  0.5895 -0.1918  1.6740
66207SOL    HW216614   1.404   9.421   1.237 -3.1686  0.2686 -0.0364
66208SOL     OW16615   5.547   2.928  11.007  0.0691  0.4076 -0.7578
66208SOL    HW116616   5.568   2.860  10.943  0.9827  0.2250 -0.2870
66208SOL    HW216617   5.496   2.882  11.074  0.1615  0.3265 -0.7425
66209SOL     OW16618  12.948   9.358   9.175 -0.3266 -0.4254 -0.1339
66209SOL    HW116619  13.017   9.362   9.241 -0.7956 -1.6007  0.4727
66209SOL    HW216620  12.940   9.447   9.141  2.5257 -0.5282 -1.3275
66210SOL     OW16621   6.180   5.564  11.246  0.6154 -0.9571  0.0562
66210SOL    HW116622   6.129   5.532  11.172  0.2807  0.5214 -0.3747
66210SOL    HW216623   6.266   5.583  11.209 -0.2072  2.0071 -0.5502
66211SOL     OW16624  12.942  13.794   6.059  0.5385 -0.8460 -0.1321
66211SOL    HW116625  12.918  13.729   5.994  1.1735 -0.7866 -0.4373
66211SOL    HW216626  12.971  13.743   6.134  1.5157 -0.9349 -0.5515
66212SOL     OW16627  13.305   9.053  13.154  0.3431  0.1195 -0.6046
66212SOL    HW116628  13.381   9.094  13.195  0.1025  0.0363 -0.0544
66212SOL    HW216629  13.333   9.033  13.065  1.3264 -0.8765 -0.1081
66213SOL     OW16630   7.387  12.033   3.070 -0.0323  0.0402  0.0263
66213SOL    HW116631   7.308  12.021   3.017 -0.8395  0.2025  1.1666
66213SOL    HW216632   7.379  11.968   3.140  0.2959  0.8019  0.7818
66214SOL     OW16633   1.213   0.886   2.120 -0.3015 -0.4547 -0.2495
66214SOL    HW116634   1.178   0.843   2.197  0.5372 -0.7373 -0.0213
66214SOL    HW216635   1.269   0.820   2.078  0.0350  0.0149 -0.5565
66215SOL     OW16636  10.189   2.050   6.038  0.1205  0.0336  0.5916
66215SOL    HW116637  10.142   2.111   5.981 -1.0829 -0.5287  0.9490
66215SOL    HW216638  10.270   2.096   6.061 -0.1356  0.9264 -0.2391
66216SOL     OW16639   3.031  11.876   7.990 -0.1249 -0.2442  0.3724
66216SOL    HW116640   2.944  11.880   7.951  0.3808  0.4742 -0.7451
66216SOL    HW216641   3.032  11.794   8.039 -0.0376 -2.5602 -3.1365
66217SOL     OW16642   8.908   8.747   7.177  0.0805 -0.4063  0.1295
66217SOL    HW116643   8.847   8.724   7.108  0.4061  1.0385 -0.6889
66217SOL    HW216644   8.933   8.664   7.217 -2.3398 -1.0246  0.4567
66218SOL     OW16645   7.381   7.574   7.409 -0.4988  0.2131  0.0492
66218SOL    HW116646   7.345   7.659   7.436  2.5581  1.5931  0.1994
66218SOL    HW216647   7.419   7.538   7.489  0.5919 -0.0067 -0.5567
66219SOL     OW16648  11.960  10.078  10.557 -0.1814 -0.4076  0.3355
66219SOL    HW116649  12.005  10.110  10.479  1.8012  1.0766  1.9664
66219SOL    HW216650  11.994   9.989  10.570  1.3984  0.2348  0.8276
66220SOL     OW16651   8.878   1.755   4.493  0.5435 -0.1069 -0.2049
66220SOL    HW116652   8.927   1.835   4.513  0.6795 -0.5782  1.5084
66220SOL    HW216653   8.913   1.690   4.554 -1.1013 -0.8784 -0.0341
66221SOL     OW16654  12.276  10.838  12.153  0.0073  0.1151  0.0894
66221SOL    HW116655  12.317  10.922  12.132 -1.5580  0.5084 -1.6697
66221SOL    HW216656  12.307  10.778  12.085  0.3206 -0.4750  0.7424
66222SOL     OW16657   8.673  11.917  11.311  0.0593 -0.0605 -0.2244
66222SOL    HW116658   8.755  11.931  11.357 -0.9146  0.6589  1.3605
66222SOL    HW216659   8.698  11.871  11.230  1.9933  0.1822  0.2021
66223SOL     OW16660   1.148   9.084  10.107  0.5096 -0.7488 -0.0744
66223SOL    HW116661   1.168   9.164  10.059 -2.4397  0.2263  0.1315
66223SOL    HW216662   1.052   9.076  10.102  0.6310 -3.8390  0.5960
66224SOL     OW16663   6.662   6.672   1.277 -0.0888  0.4293 -0.1160
66224SOL    HW116664   6.749   6.696   1.309 -0.0774  0.7309 -0.3612
66224SOL    HW216665   6.676   6.648   1.185 -0.1587 -0.1909  0.0315
66225SOL     OW16666   3.316  10.154  10.178  0.7062  0.4905  0.1049
66225SOL    HW116667   3.221  10.159  10.167  0.8446  2.3319 -0.6527
66225SOL    HW216668   3.339  10.066  10.147 -0.5488  0.7094 -1.6256
66226SOL     OW16669   3.968  11.793   0.892  0.2978 -0.1873 -0.5178
66226SOL    HW116670   3.893  11.772   0.948  1.2237  1.1040  1.2882
66226SOL    HW216671   3.977  11.888   0.898  1.7011 -0.2522 -1.2245
66227SOL     OW16672   6.762  14.148   1.597 -0.3713  0.2777 -0.3490
66227SOL    HW116673   6.677  14.174   1.561  0.1360  1.8566 -0.4841
66227SOL    HW216674   6.805  14.230   1.618  0.0533 -0.5281  2.3272
66228SOL     OW16675   8.297   4.754   1.491  0.0480 -0.1213  0.4535
66228SOL    HW116676   8.368   4.709   1.444 -0.8460  0.1341 -1.1988
66228SOL    HW216677   8.237   4.684   1.517  0.2476 -0.2004  0.7079
66229SOL     OW16678   0.333   7.327  13.453 -0.0401 -0.1758 -0.2420
66229SOL    HW116679   0.293   7.405  13.413 -0.3941  0.0512  0.5256
66229SOL    HW216680   0.415   7.359  13.491  0.1321 -0.3178 -0.4958
66230SOL     OW16681  11.627   6.306   9.624 -1.1736  0.2001 -0.8175
66230SOL    HW116682  11.596   6.218   9.646 -2.6926  0.7547 -0.6148
66230SOL    HW216683  11.651   6.345   9.708 -0.4197 -0.0373 -0.9169
66231SOL     OW16684   1.168   1.341   2.259  0.1507  0.2855  0.5670
66231SOL    HW116685   1.242   1.283   2.276  0.7674  0.8762 -0.0323
66231SOL    HW216686   1.155   1.388   2.341  1.6108  1.4609  0.1741
66232SOL     OW16687  10.974   6.607   0.094 -0.2011  0.4240 -0.5845
66232SOL    HW116688  10.908   6.676   0.104 -1.4098 -0.7886  0.2013
66232SOL    HW216689  11.008   6.619   0.005  0.3474  2.6273 -0.1264
66233SOL     OW16690   3.674   5.801  11.660  0.0955 -0.1528 -0.2147
66233SOL    HW116691   3.756   5.831  11.620  0.2379 -1.0157 -0.5881
66233SOL    HW216692   3.668   5.708  11.636 -1.0551 -0.0675 -0.2890
66234SOL     OW16693   4.311   5.919  12.852  0.0843 -0.4733 -0.4212
66234SOL    HW116694   4.248   5.891  12.918 -0.2161 -0.5151 -0.7192
66234SOL    HW216695   4.315   5.846  12.790  0.8833 -0.7166 -0.0846
66235SOL     OW16696   7.974   5.574   0.443 -0.0469 -0.4007  0.2859
66235SOL    HW116697   7.984   5.496   0.498  0.4189  0.2032  1.0840
66235SOL    HW216698   7.902   5.623   0.482 -0.1409 -0.2825 -0.0295
66236SOL     OW16699   3.703  10.552   5.216  0.0108  0.0031  0.0273
66236SOL    HW116700   3.668  10.628   5.263  0.6750  0.3409 -0.0147
66236SOL    HW216701   3.703  10.482   5.280  0.1978  0.2630  0.3108
66237SOL     OW16702   0.596   5.573   4.011 -0.5404 -0.1280 -0.4425
66237SOL    HW116703   0.523   5.632   4.028 -1.4090 -0.9570 -1.2083
66237SOL    HW216704   0.627   5.547   4.097 -1.3318 -0.0031 -0.1124
66238SOL     OW16705   5.265   7.292   2.576 -0.4060  0.7150 -0.2343
66238SOL    HW116706   5.248   7.270   2.668  1.7062 -0.9852 -0.1605
66238SOL    HW216707   5.324   7.367   2.580 -0.1950  0.5494 -0.1654
66239SOL     OW16708  11.699   0.907   2.309  0.7839  0.4830 -0.4905
66239SOL    HW116709  11.737   0.964   2.242 -0.6925  1.2778 -0.7140
66239SOL    HW216710  11.605   0.929   2.308  0.0879 -2.1553 -0.7811
66240SOL     OW16711   0.384   2.923  11.136  0.1002  0.1749 -0.2611
66240SOL    HW116712   0.432   2.874  11.203 -3.3442 -0.9344  1.6493
66240SOL    HW216713   0.415   3.014  11.146  0.4119 -0.1277  2.1892
66241SOL     OW16714   4.156  10.746   8.577 -0.3364 -0.1829  0.2785
66241SOL    HW116715   4.166  10.769   8.485  0.6398 -0.1891  0.3685
66241SOL    HW216716   4.074  10.787   8.603  0.8124  2.4265  0.1564
66242SOL     OW16717   8.955   9.216  10.833  0.1107 -0.4972  0.1487
66242SOL    HW116718   8.882   9.165  10.799 -0.4822  0.8196 -0.6350
66242SOL    HW216719   8.921   9.255  10.914 -0.1642  0.3409 -0.3618
66243SOL     OW16720   4.616  13.016  12.152  0.2972 -0.2397 -0.4893
66243SOL    HW116721   4.555  12.996  12.081 -1.6066  1.9335  0.4118
66243SOL    HW216722   4.585  13.099  12.188  1.8801 -0.6651  2.1422
66244SOL     OW16723   5.251  13.018   0.078  0.2008 -0.6028 -0.1463
66244SOL    HW116724   5.264  13.109   0.104 -0.9129 -0.9822  1.9918
66244SOL    HW216725   5.308  13.006   0.002 -0.3536  2.1025 -1.0820
66245SOL     OW16726  10.036   1.001   5.614  0.5665  0.2091 -0.1786
66245SOL    HW116727   9.956   0.983   5.664  1.8155  0.4024  2.0354
66245SOL    HW216728  10.037   1.096   5.604  0.4813  0.2004 -0.2691
66246SOL     OW16729   5.627   3.679  10.342 -0.2437 -0.2489  0.0660
66246SOL    HW116730   5.667   3.611  10.287  1.6378  0.5431  0.3722
66246SOL    HW216731   5.652   3.656  10.431  0.6863  0.9561  0.1543
66247SOL     OW16732   2.846   9.480  14.009 -0.0141  0.0369 -0.1295
66247SOL    HW116733   2.866   9.556  14.064  0.1243 -0.1845  0.1318
66247SOL    HW216734   2.912   9.415  14.034 -0.2562 -0.2400 -0.2067
66248SOL     OW16735  10.983   4.491   5.253 -0.0499 -0.1947  0.4368
66248SOL    HW116736  11.022   4.571   5.216 -0.1591  0.1752  1.1011
66248SOL    HW216737  11.038   4.420   5.220 -0.0012  0.1383 -0.2352
66249SOL     OW16738   5.577   1.164  12.970 -0.1653  0.0351  0.0082
66249SOL    HW116739   5.602   1.108  13.044  0.4180 -0.7499 -0.7652
66249SOL    HW216740   5.641   1.143  12.902 -0.1255  1.4204 -0.4103
66250SOL     OW16741   2.745   3.605   7.517  0.7464 -0.0782 -0.2593
66250SOL    HW116742   2.690   3.645   7.451 -0.7075 -1.6204 -0.0425
66250SOL    HW216743   2.813   3.559   7.467  0.4620 -0.1031 -0.6245
66251SOL     OW16744   4.855   5.800  13.969 -0.1498 -0.1366  0.1671
66251SOL    HW116745   4.859   5.823  14.062 -1.3059 -3.5520  1.1826
66251SOL    HW216746   4.780   5.850  13.936 -0.3689  0.3486  1.3211
66252SOL     OW16747   5.657   7.156  11.106  0.1122  0.1140  0.0007
66252SOL    HW116748   5.713   7.079  11.112 -0.0279  0.0705  0.7744
66252SOL    HW216749   5.718   7.230  11.100  0.2575 -0.0820 -1.4934
66253SOL     OW16750   2.168   0.306  11.285 -0.0003 -0.5149 -0.0048
66253SOL    HW116751   2.109   0.238  11.318  1.8451 -1.5247  1.4499
66253SOL    HW216752   2.113   0.361  11.230 -2.9951  0.2701  3.3939
66254SOL     OW16753   8.950  10.818  10.799  0.0476  0.6812 -0.2715
66254SOL    HW116754   8.860  10.821  10.767 -0.1306  0.4051  0.1993
66254SOL    HW216755   9.003  10.839  10.722 -0.2647 -1.8402 -1.2653
66255SOL     OW16756  12.014   4.190   9.042  0.1142  0.2953 -0.1685
66255SOL    HW116757  12.094   4.141   9.061  0.3758  0.4193 -0.9235
66255SOL    HW216758  11.971   4.141   8.972 -1.7093 -1.1024  1.7672
66256SOL     OW16759  10.946   3.734   1.527 -0.1858  0.2236  0.4284
66256SOL    HW116760  10.895   3.695   1.456  1.3900  0.6234 -0.9889
66256SOL    HW216761  11.011   3.667   1.549  0.5749  0.8514  0.1231
66257SOL     OW16762   4.569   6.893   0.442  0.5796  0.0639 -0.7935
66257SOL    HW116763   4.479   6.884   0.408 -0.7291 -0.1469  2.3856
66257SOL    HW216764   4.575   6.984   0.468  0.8693 -0.1973  0.0622
66258SOL     OW16765   7.267   6.740  13.761 -0.2248  0.0065  0.5099
66258SOL    HW116766   7.299   6.663  13.807 -1.3153 -0.2665  0.8224
66258SOL    HW216767   7.219   6.706  13.686  0.3164  0.4216 -0.0451
66259SOL     OW16768   6.210  11.863   3.043  0.1815 -0.8455 -0.5453
66259SOL    HW116769   6.240  11.848   2.953  1.3772 -1.4297 -0.0752
66259SOL    HW216770   6.163  11.783   3.066 -0.5568 -0.4963 -0.8018
66260SOL     OW16771  10.506  12.003   1.398 -0.4020 -0.1420 -0.2472
66260SOL    HW116772  10.478  12.072   1.338 -1.0638  0.1282  0.3441
66260SOL    HW216773  10.431  11.991   1.456 -0.7832 -2.2235 -1.0794
66261SOL     OW16774  12.639   4.495  12.456  0.2192  0.6175 -0.2094
66261SOL    HW116775  12.672   4.570  12.407  0.1285  0.3739 -0.6512
66261SOL    HW216776  12.552   4.480  12.419  0.0387  0.6039  0.2213
66262SOL     OW16777   6.046   3.230   7.618  0.2008 -0.4765 -1.0403
66262SOL    HW116778   6.110   3.268   7.678 -0.8782  0.2717 -0.3209
66262SOL    HW216779   6.076   3.140   7.605 -0.4335 -1.2522  2.0488
66263SOL     OW16780  12.984  11.513   6.753 -0.3126 -0.0469  0.0299
66263SOL    HW116781  12.996  11.592   6.699  2.1185 -0.0497  0.4556
66263SOL    HW216782  12.935  11.544   6.829  0.3713  1.0191  0.0594
66264SOL     OW16783   2.447  13.334   3.590  0.1463  0.4967 -0.5839
66264SOL    HW116784   2.472  13.351   3.499 -0.7822  1.0734 -0.7590
66264SOL    HW216785   2.400  13.414   3.616 -1.7178 -0.5858 -0.4033
66265SOL     OW16786  13.799   0.701   5.453 -0.3898 -0.1021  0.8321
66265SOL    HW116787  13.818   0.646   5.529  1.5518  0.2740  0.6764
66265SOL    HW216788  13.807   0.790   5.486  1.1922  0.0659  0.0561
66266SOL     OW16789   1.511   6.772  11.744  0.1176  0.5305 -0.8324
66266SOL    HW116790   1.429   6.728  11.767  0.3177  1.4165  1.8518
66266SOL    HW216791   1.517   6.762  11.649 -2.2270 -1.0305 -0.9018
66267SOL     OW16792   0.353   2.337  11.577 -0.5591 -0.1917 -0.4193
66267SOL    HW116793   0.277   2.395  11.579 -0.3499  0.0797  0.7872
66267SOL    HW216794   0.424   2.389  11.615 -0.1003 -0.8758 -0.3096
66268SOL     OW16795   3.592   9.762  13.836 -0.2219 -0.3752 -0.9580
66268SOL    HW116796   3.593   9.855  13.814  0.8219 -0.3214 -0.7413
66268SOL    HW216797   3.513   9.728  13.794 -0.0878  0.4041 -1.8748
66269SOL     OW16798   0.902   4.469  13.490  0.1129 -0.2096  0.3188
66269SOL    HW116799   0.907   4.494  13.582 -2.1714 -0.4971  0.5707
66269SOL    HW216800   0.814   4.433  13.479  1.3742 -3.2301 -1.2270
66270SOL     OW16801   7.809   6.606  10.004 -0.1284 -0.1941  0.4950
66270SOL    HW116802   7.816   6.645   9.916 -0.9423 -1.5647 -0.2203
66270SOL    HW216803   7.751   6.665  10.051  1.1434  1.1187  0.4721
66271SOL     OW16804   9.248  10.998   2.910  0.5144 -0.3413  0.3305
66271SOL    HW116805   9.187  10.927   2.932  0.9003 -0.3759  1.3244
66271SOL    HW216806   9.195  11.078   2.916  0.3887 -0.4337  0.4522
66272SOL     OW16807   4.394   0.264   2.216 -0.2170 -0.1272 -0.3237
66272SOL    HW116808   4.323   0.217   2.260 -0.4937 -0.4531 -1.0917
66272SOL    HW216809   4.390   0.353   2.252  0.4186 -0.6990  1.2750
66273SOL     OW16810   3.192   5.954   9.280  0.2472 -0.4492  0.6329
66273SOL    HW116811   3.180   5.967   9.186  0.4228  0.6817  0.7558
66273SOL    HW216812   3.158   6.034   9.320  2.1737  0.0442  1.3873
66274SOL     OW16813   3.857  11.042   4.524  0.1960  0.3322 -0.6697
66274SOL    HW116814   3.815  10.961   4.497 -0.2153 -0.3824  1.8174
66274SOL    HW216815   3.937  11.014   4.567 -0.4060  1.1014  1.0657
66275SOL     OW16816   9.988   8.574  13.756 -0.5183  0.0468  0.4598
66275SOL    HW116817   9.951   8.493  13.791 -2.1410  0.5540 -0.0088
66275SOL    HW216818   9.914   8.634  13.750  0.5873  1.4734  0.4861
66276SOL     OW16819  11.783   9.042   3.146 -0.0093 -0.5266 -0.2568
66276SOL    HW116820  11.715   8.975   3.137 -0.3890 -0.4299  1.5441
66276SOL    HW216821  11.766   9.082   3.232  1.1611  0.8116 -0.6148
66277SOL     OW16822   7.266   8.374   3.753  0.0759  0.2765  0.2209
66277SOL    HW116823   7.196   8.313   3.777  0.2163  0.4967  1.2354
66277SOL    HW216824   7.287   8.419   3.835  0.1210  1.5313 -0.4678
66278SOL     OW16825   3.672   0.979   1.077  0.3292  0.0080  0.3191
66278SOL    HW116826   3.668   1.073   1.065 -1.2557  0.0337  0.8599
66278SOL    HW216827   3.722   0.947   1.002  0.8407  1.2594  0.1048
66279SOL     OW16828   4.342  12.783   1.308 -0.2161 -0.0873  0.5463
66279SOL    HW116829   4.333  12.719   1.379  1.3979 -0.6842  0.2736
66279SOL    HW216830   4.429  12.822   1.323 -0.5650  0.9875 -0.1443
66280SOL     OW16831   4.030  13.758   6.082  0.0730  0.5586  0.1877
66280SOL    HW116832   4.010  13.753   5.988  0.4830  0.9425  0.0777
66280SOL    HW216833   3.981  13.835   6.112  1.9810  2.0264 -0.2552
66281SOL     OW16834   1.073   4.423   7.065 -0.1054 -0.8136  0.1381
66281SOL    HW116835   1.136   4.429   7.136 -0.4428 -2.2293  0.5894
66281SOL    HW216836   1.117   4.462   6.990  1.1508 -1.4045  0.5494
66282SOL     OW16837   6.106  11.465   3.839 -0.1144 -0.4227  0.5799
66282SOL    HW116838   6.052  11.535   3.874  0.3084  0.4615 -0.4589
66282SOL    HW216839   6.183  11.463   3.896 -0.8542 -1.1680  1.5949
66283SOL     OW16840   8.187  11.814  10.667  0.3683  0.3940 -0.2442
66283SOL    HW116841   8.254  11.755  10.634  1.6063  2.1054 -0.9641
66283SOL    HW216842   8.108  11.791  10.619  1.0995  0.0390 -1.3008
66284SOL     OW16843   8.654   1.674   8.553  0.3673 -0.3425 -0.4693
66284SOL    HW116844   8.654   1.627   8.470  1.1328  1.9643 -1.8868
66284SOL    HW216845   8.733   1.644   8.598  1.3806  0.2065 -1.7866
66285SOL     OW16846  10.034  12.446   4.350  0.0527  0.0398  0.4066
66285SOL    HW116847  10.023  12.351   4.352 -1.6038  0.1700 -0.4436
66285SOL    HW216848  10.052  12.466   4.259 -0.8830  0.6441  0.3477
66286SOL     OW16849  12.334  10.695  10.906  0.3066 -0.4008  0.1309
66286SOL    HW116850  12.391  10.692  10.829  1.3027 -1.3096  0.8548
66286SOL    HW216851  12.311  10.787  10.916  1.8142  0.0322 -0.1033
66287SOL     OW16852  13.177   1.795   2.111  0.5930  0.1863  0.1236
66287SOL    HW116853  13.112   1.846   2.062  0.3166 -0.9183 -0.7147
66287SOL    HW216854  13.257   1.802   2.058  0.6465  0.0270  0.1841
66288SOL     OW16855   2.891  11.236   4.360  0.2130  0.2032 -0.2796
66288SOL    HW116856   2.959  11.172   4.384  0.6218  0.1621 -1.5032
66288SOL    HW216857   2.850  11.260   4.444  0.2921 -1.3862  0.2464
66289SOL     OW16858  12.146   4.905   9.341  0.6952 -0.2906  0.3104
66289SOL    HW116859  12.239   4.906   9.317  0.5562 -0.0575 -0.2403
66289SOL    HW216860  12.132   4.987   9.387  1.0315 -0.8742  1.4702
66290SOL     OW16861   2.571   5.529  11.965 -0.0552 -0.0624  0.1700
66290SOL    HW116862   2.508   5.589  12.005  1.1458  1.9721 -0.8595
66290SOL    HW216863   2.656   5.568  11.984  0.6395  0.1600 -2.9567
66291SOL     OW16864  10.319  10.741   7.738  0.4281 -0.2473 -0.0663
66291SOL    HW116865  10.275  10.727   7.822  2.1557 -1.1586  0.7309
66291SOL    HW216866  10.381  10.812   7.754 -0.9002  1.2620 -1.2738
66292SOL     OW16867   4.489   9.342   4.699 -0.2240 -0.2508  0.2932
66292SOL    HW116868   4.406   9.386   4.683  0.4217  0.7727 -0.3110
66292SOL    HW216869   4.548   9.375   4.631  0.8470 -0.4860  1.0749
66293SOL     OW16870   2.981   8.551   8.822  0.3753  0.6233  0.0743
66293SOL    HW116871   2.912   8.583   8.880  0.0718 -0.0235  0.0747
66293SOL    HW216872   3.042   8.505   8.880  1.1937  1.7938  0.1808
66294SOL     OW16873  11.713   4.387  12.698  0.0037  0.1562 -0.7245
66294SOL    HW116874  11.655   4.410  12.771  1.2294 -2.3242  1.1987
66294SOL    HW216875  11.664   4.321  12.649  0.6021 -0.9699  0.1366
66295SOL     OW16876  10.843  13.458   9.922  0.6024 -0.0870 -0.0856
66295SOL    HW116877  10.818  13.390   9.985 -1.5462  0.1868 -0.5595
66295SOL    HW216878  10.936  13.443   9.905  1.1107 -0.5798  2.6417
66296SOL     OW16879   7.185   8.164   7.738 -0.3511  0.2221  0.0139
66296SOL    HW116880   7.196   8.077   7.776 -0.8643 -0.3693 -1.1300
66296SOL    HW216881   7.271   8.204   7.743 -0.0302 -0.4834  0.2279
66297SOL     OW16882  13.876   7.390  13.313 -0.3764  0.2257  0.2729
66297SOL    HW116883  13.957   7.383  13.364 -0.4598  0.9245  0.5164
66297SOL    HW216884  13.869   7.307  13.267 -0.2094 -0.3700  1.2876
66298SOL     OW16885  11.039   5.265  13.322  0.4797  0.1390 -0.1153
66298SOL    HW116886  11.037   5.268  13.418  0.6028 -3.0104  0.0744
66298SOL    HW216887  10.950   5.287  13.296  0.2481  0.3078  0.7653
66299SOL     OW16888   2.317  13.518   4.608  0.3810 -0.1389  0.4667
66299SOL    HW116889   2.353  13.433   4.582 -0.5042 -0.0487 -1.1889
66299SOL    HW216890   2.392  13.578   4.607  0.7394 -0.5871  0.1215
66300SOL     OW16891  11.165   5.137   4.548  0.2711 -0.0015  0.3239
66300SOL    HW116892  11.184   5.090   4.467  1.9487  1.2436 -0.0359
66300SOL    HW216893  11.074   5.166   4.538 -0.1782 -1.4968 -0.2421
66301SOL     OW16894   8.768  10.195  10.989 -0.4006 -0.0241  0.2279
66301SOL    HW116895   8.836  10.143  11.031  0.4493  0.4034 -0.5630
66301SOL    HW216896   8.767  10.164  10.898  0.0922  1.2671 -0.2482
66302SOL     OW16897   9.362  10.446   8.250 -0.2341  0.1392 -0.1792
66302SOL    HW116898   9.346  10.463   8.343 -0.5013  0.6012 -0.3087
66302SOL    HW216899   9.288  10.392   8.222 -0.8335  1.0840 -0.4340
66303SOL     OW16900   9.904  10.364   3.370 -0.4771 -0.1717  0.3342
66303SOL    HW116901   9.990  10.361   3.412 -0.5754 -0.4211  0.5184
66303SOL    HW216902   9.919  10.412   3.289  0.0606 -1.1550 -0.1661
66304SOL     OW16903  10.233  10.002   9.492  0.7280 -0.0241  0.3521
66304SOL    HW116904  10.179   9.997   9.570  2.0722 -0.5961  1.2741
66304SOL    HW216905  10.173   9.983   9.420 -0.6539  1.0740  1.1598
66305SOL     OW16906   9.246   0.635   0.584  0.4685 -0.0086 -0.1590
66305SOL    HW116907   9.300   0.651   0.507 -1.4431  0.0993 -1.5704
66305SOL    HW216908   9.285   0.559   0.626  0.6991 -1.0591 -2.1462
66306SOL     OW16909   9.639   4.859   9.618 -0.3312  0.0927 -0.3625
66306SOL    HW116910   9.638   4.767   9.592  0.3297 -0.8404  2.5099
66306SOL    HW216911   9.551   4.875   9.652 -0.0310  0.0716  0.4459
66307SOL     OW16912   3.360   6.071   7.136 -0.0499 -0.1579 -0.3683
66307SOL    HW116913   3.307   6.146   7.109  1.8289  1.5741  0.5252
66307SOL    HW216914   3.428   6.065   7.069  1.1086  0.3790  0.7277
66308SOL     OW16915   3.250  14.076   5.265  0.3521  0.0629  0.1056
66308SOL    HW116916   3.330  14.123   5.242  0.1327  0.3724 -0.0452
66308SOL    HW216917   3.194  14.087   5.188  1.0705 -2.2390 -0.8224
66309SOL     OW16918   0.884   4.421  10.733  0.4546  0.1596 -0.3821
66309SOL    HW116919   0.804   4.372  10.753  0.5477  0.1950  0.0752
66309SOL    HW216920   0.926   4.435  10.818  1.1894 -0.2755 -0.6649
66310SOL     OW16921   6.081   7.030   4.021 -0.6338 -0.5241 -0.3728
66310SOL    HW116922   6.062   6.943   4.056  0.7930 -0.4405  0.6812
66310SOL    HW216923   6.157   7.017   3.965  0.2129  0.1928  0.5805
66311SOL     OW16924   3.843  12.344   4.460  0.0192 -0.1429 -0.1858
66311SOL    HW116925   3.784  12.278   4.424  0.7689 -0.4828 -0.8161
66311SOL    HW216926   3.928  12.324   4.420  0.5793  0.2819  0.7718
66312SOL     OW16927   1.616   6.573   0.856 -0.1420 -0.6590  0.0574
66312SOL    HW116928   1.684   6.554   0.791 -1.4427  0.8238 -1.8439
66312SOL    HW216929   1.534   6.565   0.808 -1.1079  1.3919  1.2523
66313SOL     OW16930   9.849  11.007  11.036  0.4209  0.5818 -0.1068
66313SOL    HW116931   9.835  11.073  11.103 -1.4318 -1.0985  1.2980
66313SOL    HW216932   9.761  10.982  11.008  0.9033 -2.3746  0.6114
66314SOL     OW16933   0.938  13.860  11.872 -0.0488  0.5360  0.2966
66314SOL    HW116934   0.923  13.947  11.910 -1.4806 -0.4439  2.1487
66314SOL    HW216935   0.919  13.871  11.779 -1.2996  1.9773  0.6713
66315SOL     OW16936  13.631   9.047   2.461 -0.1326  0.3342  0.1016
66315SOL    HW116937  13.720   9.013   2.453  0.5109  1.6564  1.2935
66315SOL    HW216938  13.632   9.129   2.412 -0.9213  0.0128 -0.4873
66316SOL     OW16939   6.851  10.844  11.677 -0.5116  0.2036  0.2428
66316SOL    HW116940   6.943  10.846  11.651 -0.4598  0.3203  0.4337
66316SOL    HW216941   6.832  10.751  11.693 -0.4817  0.1572  0.0133
66317SOL     OW16942   1.601   4.285   0.069  0.1585  0.0498 -0.1727
66317SOL    HW116943   1.646   4.201   0.082  1.2327  0.5390 -0.6312
66317SOL    HW216944   1.583   4.317   0.158 -0.7765 -0.9152  0.0081
66318SOL     OW16945  11.623  11.254   4.987 -0.3916  0.0895 -0.3085
66318SOL    HW116946  11.602  11.344   4.961 -0.5956  0.0998 -0.1079
66318SOL    HW216947  11.699  11.231   4.933 -0.5658  0.2526 -0.6324
66319SOL     OW16948   5.069   7.039  12.061 -0.0261  0.0876  0.2686
66319SOL    HW116949   5.057   6.961  12.007 -0.3315  0.4785 -0.2370
66319SOL    HW216950   5.050   7.112  12.002  0.1449  0.5396  0.7668
66320SOL     OW16951  10.755   2.672  10.519 -0.3841 -0.8400  0.3517
66320SOL    HW116952  10.756   2.766  10.536 -1.0277 -0.9190  0.8639
66320SOL    HW216953  10.694   2.662  10.446 -1.4274 -0.9891  1.2159
66321SOL     OW16954  10.796  10.711   0.392  0.6291 -0.3064  0.0147
66321SOL    HW116955  10.773  10.668   0.310  1.1506 -0.6811  0.0603
66321SOL    HW216956  10.712  10.735   0.431  0.3394 -1.1768 -0.0634
66322SOL     OW16957   4.041   0.850   1.494  0.1812 -0.3577 -0.3205
66322SOL    HW116958   4.134   0.837   1.476  0.0513 -0.2210 -1.1047
66322SOL    HW216959   3.997   0.791   1.432 -0.2812  0.3282 -0.6489
66323SOL     OW16960   3.169   0.745   0.304 -1.1317 -0.5895 -0.2762
66323SOL    HW116961   3.103   0.697   0.354 -0.7397 -1.2258 -0.3496
66323SOL    HW216962   3.240   0.681   0.292 -0.1814  0.2951  0.4592
66324SOL     OW16963   1.152   5.235  11.361 -0.0346  0.4968  0.0128
66324SOL    HW116964   1.211   5.163  11.339  0.4684 -0.0016  2.6563
66324SOL    HW216965   1.207   5.297  11.410 -1.0678  1.3928  0.0884
66325SOL     OW16966   4.731   8.251  10.619 -0.0282 -0.4352  0.6005
66325SOL    HW116967   4.780   8.332  10.604  0.0220 -0.5488  0.1394
66325SOL    HW216968   4.759   8.192  10.549 -1.0408 -0.3948  0.1331
66326SOL     OW16969   8.706   7.837   3.267  0.0217 -0.4289 -0.0357
66326SOL    HW116970   8.706   7.868   3.176  1.7110 -1.2660 -0.3596
66326SOL    HW216971   8.728   7.915   3.319 -0.0085 -0.1599 -0.4211
66327SOL     OW16972   8.353  10.421  10.270 -0.3916 -0.7481 -0.1318
66327SOL    HW116973   8.268  10.456  10.296 -0.8815 -1.1326 -1.1771
66327SOL    HW216974   8.343  10.399  10.177  0.9429 -0.4948 -0.3603
66328SOL     OW16975  13.906   0.044  11.304 -0.2468 -0.3417  0.1617
66328SOL    HW116976  13.816   0.071  11.283  0.5362  2.7628  0.3494
66328SOL    HW216977  13.944   0.019  11.219 -0.8268 -0.1857 -0.1494
66329SOL     OW16978   7.002  10.964  13.757 -0.1731 -0.3207 -0.1669
66329SOL    HW116979   6.907  10.950  13.745 -0.4433  1.0959  0.2288
66329SOL    HW216980   7.039  10.941  13.672 -1.1181  1.0584 -1.0043
66330SOL     OW16981   3.883  13.996  13.765  0.1998 -0.5814  0.1280
66330SOL    HW116982   3.930  14.060  13.712 -0.4629  0.4215  0.7362
66330SOL    HW216983   3.818  14.047  13.814  0.5707 -1.5273  1.6698
66331SOL     OW16984   6.796  12.908   3.877  0.4087 -0.5861  0.3800
66331SOL    HW116985   6.779  12.821   3.913 -0.0816 -0.6206  0.0714
66331SOL    HW216986   6.723  12.925   3.818  0.0095  0.4260  1.1319
66332SOL     OW16987  13.215   3.444   0.202  0.8104  0.7066  0.0754
66332SOL    HW116988  13.141   3.500   0.226  0.1971  0.1129 -0.3646
66332SOL    HW216989  13.292   3.488   0.237 -0.0008 -0.0748  3.1478
66333SOL     OW16990   1.148  13.096  11.953 -0.2684  0.8923 -0.1651
66333SOL    HW116991   1.210  13.128  12.019  1.4694  1.4575 -1.9831
66333SOL    HW216992   1.075  13.060  12.004  1.5554  0.1437  2.0887
66334SOL     OW16993  13.167   4.044  10.690  0.3648 -0.8354 -0.1230
66334SOL    HW116994  13.124   4.030  10.606 -0.5186 -0.6531  0.2755
66334SOL    HW216995  13.202   3.958  10.714 -1.5890 -1.5403  0.4751
66335SOL     OW16996   9.847  12.642  11.204  0.1459  0.0735 -0.0216
66335SOL    HW116997   9.917  12.665  11.143  1.1063 -1.9326  0.2610
66335SOL    HW216998   9.771  12.625  11.149  0.1048  1.3738 -0.3932
66336SOL     OW16999  11.686   0.767  13.386  0.1307  0.0976  0.2460
66336SOL    HW117000  11.641   0.809  13.460 -1.0176 -0.7388  0.0476
66336SOL    HW217001  11.716   0.841  13.332 -0.5831  0.7007  0.6434
66337SOL     OW17002   8.960   0.488   9.192 -0.5134  0.2589 -0.0558
66337SOL    HW117003   8.871   0.484   9.227 -0.6125 -0.2442 -0.3552
66337SOL    HW217004   8.994   0.399   9.203 -0.7016 -0.0299 -1.6256
66338SOL     OW17005  11.290   6.942  12.702 -0.0359 -0.4364  0.8379
66338SOL    HW117006  11.250   6.990  12.775  1.0248 -0.2721  1.3271
66338SOL    HW217007  11.381   6.970  12.702  0.2267 -1.2539  0.1210
66339SOL     OW17008  12.591  10.648   6.219  0.7260  0.4811 -0.4973
66339SOL    HW117009  12.633  10.580   6.272 -1.9531 -0.9613 -0.0360
66339SOL    HW217010  12.583  10.722   6.278 -1.0470 -0.6747  0.8358
66340SOL     OW17011  10.957  11.912   4.776  0.1187  0.2419  0.4885
66340SOL    HW117012  10.906  11.873   4.705 -1.2648 -0.7034  1.9336
66340SOL    HW217013  10.958  12.006   4.756  1.1408 -0.1415 -1.5854
66341SOL     OW17014   2.907   3.160  10.426  0.1279 -0.0509 -0.5213
66341SOL    HW117015   2.886   3.093  10.491 -1.2528  0.4069 -0.4572
66341SOL    HW217016   2.948   3.112  10.354 -0.3567 -0.8987 -0.2513
66342SOL     OW17017   2.431   0.712  12.164 -0.4546  0.7428 -0.7631
66342SOL    HW117018   2.510   0.658  12.160 -0.3377  0.9814 -1.7975
66342SOL    HW217019   2.367   0.665  12.110 -0.4072  1.5370 -1.5291
66343SOL     OW17020  13.253  13.184   1.881  0.9689  0.8623  0.1460
66343SOL    HW117021  13.332  13.233   1.857  1.9045 -0.0838  1.2074
66343SOL    HW217022  13.199  13.248   1.928  1.8993  1.0562  0.9813
66344SOL     OW17023  13.711   4.518  10.510  0.2775  0.9634  0.5273
66344SOL    HW117024  13.653   4.564  10.570  0.8433  0.5217  1.4325
66344SOL    HW217025  13.788   4.575  10.503  0.0971  1.1515 -0.0198
66345SOL     OW17026   8.119   5.066  11.290 -1.2219 -0.1533 -0.3140
66345SOL    HW117027   8.206   5.042  11.259 -0.5137  0.3601  1.1739
66345SOL    HW217028   8.063   4.993  11.263  0.6416 -3.1456  2.9919
66346SOL     OW17029   6.282   2.139  12.436  0.1268  0.6615  0.1614
66346SOL    HW117030   6.247   2.178  12.356  1.1649 -0.1728 -0.7217
66346SOL    HW217031   6.251   2.049  12.435 -1.2150  1.0669  1.5574
66347SOL     OW17032   4.734  12.990   5.346 -0.2358  0.2399  0.0565
66347SOL    HW117033   4.690  12.988   5.431 -3.0005  0.5994 -1.2507
66347SOL    HW217034   4.827  12.985   5.367 -0.8183  0.1972  3.0774
66348SOL     OW17035   9.504  12.850   5.333  0.3755  0.1843 -0.4930
66348SOL    HW117036   9.500  12.891   5.419 -1.9717  1.5682 -1.1459
66348SOL    HW217037   9.595  12.861   5.305  0.6804  1.6488  0.9265
66349SOL     OW17038   9.538   5.623   0.709 -0.5021  0.7734 -0.2972
66349SOL    HW117039   9.450   5.586   0.717  0.4005 -1.3218  0.6784
66349SOL    HW217040   9.576   5.616   0.797  1.1839  0.0952 -1.0293
66350SOL     OW17041  10.897   3.415   7.019  0.9794  0.2890 -0.0942
66350SOL    HW117042  10.835   3.357   7.063  1.4493 -1.6232 -1.8541
66350SOL    HW217043  10.978   3.406   7.070  0.4348  1.2328  0.9958
66351SOL     OW17044   6.117   9.935  12.320 -0.5663  0.1110 -0.0153
66351SOL    HW117045   6.111   9.867  12.388 -0.4743 -0.3393 -0.4583
66351SOL    HW217046   6.145   9.889  12.242  1.4773  0.9624  0.1492
66352SOL     OW17047  12.605   5.897   0.668 -0.3803 -0.5040  0.2589
66352SOL    HW117048  12.687   5.928   0.632  0.3272 -1.4791  0.9720
66352SOL    HW217049  12.573   5.969   0.722 -0.3323  0.1187 -0.5271
66353SOL     OW17050   3.681   6.791  13.438  0.1113  0.5335  0.3201
66353SOL    HW117051   3.630   6.791  13.358  0.4200 -1.2794  0.0818
66353SOL    HW217052   3.772   6.801  13.409  0.2326 -0.2149  0.4053
66354SOL     OW17053   3.550   9.497  12.270 -0.1687 -0.2563 -0.6949
66354SOL    HW117054   3.485   9.537  12.329 -0.7853 -1.1522 -0.7553
66354SOL    HW217055   3.598   9.572  12.234  1.5350  0.3196  2.3418
66355SOL     OW17056   2.063   4.133  10.750  0.4252  0.4303 -0.2681
66355SOL    HW117057   2.043   4.226  10.764 -1.3067  0.0023  0.3380
66355SOL    HW217058   2.038   4.090  10.831  0.3446 -0.7006 -0.8667
66356SOL     OW17059   7.614  10.403  10.678 -0.1829  0.0349 -0.0648
66356SOL    HW117060   7.567  10.448  10.748  1.7473  1.8255  0.1712
66356SOL    HW217061   7.591  10.451  10.598  1.7080  1.4304  0.1577
66357SOL     OW17062   5.100   3.236   8.919 -0.0688 -0.0401 -0.3297
66357SOL    HW117063   5.010   3.206   8.931 -0.8423  1.0956 -2.5694
66357SOL    HW217064   5.133   3.184   8.845  0.7836  0.1843 -0.1155
66358SOL     OW17065   9.811  10.213   5.242 -0.1513 -0.3498  0.5083
66358SOL    HW117066   9.728  10.205   5.290 -0.8835 -0.0411 -0.6726
66358SOL    HW217067   9.875  10.237   5.309 -1.2230  0.4753  1.2733
66359SOL     OW17068  12.250   9.380   8.842 -0.3179 -0.2432  0.7029
66359SOL    HW117069  12.229   9.327   8.919 -0.2916 -1.5456 -0.1529
66359SOL    HW217070  12.189   9.348   8.774 -0.5153  1.0488  0.2440
66360SOL     OW17071   3.638   6.070   9.956  0.3033  0.0764  0.1306
66360SOL    HW117072   3.661   5.984   9.990  1.4907  0.2355 -0.2373
66360SOL    HW217073   3.553   6.089   9.996  0.1871 -1.1082  0.4854
66361SOL     OW17074   1.424   0.554   6.279  0.2084  0.1534  0.5866
66361SOL    HW117075   1.451   0.500   6.205 -1.4018 -0.9477  0.7548
66361SOL    HW217076   1.501   0.608   6.298  0.8073  0.1548 -1.5716
66362SOL     OW17077   3.456  10.640   1.845  0.1455 -0.1633  0.2683
66362SOL    HW117078   3.418  10.613   1.928 -1.3543  0.6937 -0.0960
66362SOL    HW217079   3.399  10.600   1.779 -0.6119  1.7244 -0.2866
66363SOL     OW17080   4.882   5.894   7.099  0.2012 -0.1605  0.4392
66363SOL    HW117081   4.931   5.832   7.153  0.1714 -1.1025 -0.5767
66363SOL    HW217082   4.928   5.977   7.110 -0.4637 -0.0076  2.7925
66364SOL     OW17083   0.553   4.388   3.034 -1.4121 -0.7188 -0.2729
66364SOL    HW117084   0.543   4.442   3.112  2.3544  0.9499 -0.6935
66364SOL    HW217085   0.551   4.298   3.067 -1.6207 -0.1083  1.4899
66365SOL     OW17086   1.472   6.723   9.734  0.0616 -0.0453 -0.4666
66365SOL    HW117087   1.560   6.758   9.747 -0.1463 -0.3449  2.3300
66365SOL    HW217088   1.414   6.799   9.740  0.0498  0.1726 -2.4349
66366SOL     OW17089   9.036   9.389  12.301 -0.2917  0.2143 -0.0534
66366SOL    HW117090   8.995   9.313  12.340 -1.1286 -0.1435 -1.5759
66366SOL    HW217091   9.130   9.376  12.316 -0.4709 -0.8005  0.2225
66367SOL     OW17092   4.454   2.071   4.974  0.1266  0.1723 -0.0596
66367SOL    HW117093   4.478   1.981   4.996  1.5092  0.5101 -0.0809
66367SOL    HW217094   4.407   2.063   4.891  1.3474 -0.4498 -0.7282
66368SOL     OW17095  12.431   3.524  11.734 -0.0863  0.5207 -0.4261
66368SOL    HW117096  12.457   3.616  11.741  0.8754  0.2562 -0.4452
66368SOL    HW217097  12.413   3.498  11.825 -0.9326  0.8818 -0.4827
66369SOL     OW17098   7.482  10.321   2.071 -0.4507  0.4541  0.0259
66369SOL    HW117099   7.451  10.381   2.139 -2.3250  0.8201 -1.0981
66369SOL    HW217100   7.513  10.379   2.001 -0.4097  0.0852 -0.2581
66370SOL     OW17101   0.831   1.146  10.914  0.2737 -0.3445 -0.4467
66370SOL    HW117102   0.841   1.202  10.991  0.3775 -1.3100  0.2588
66370SOL    HW217103   0.913   1.154  10.866  0.2099  0.2538 -0.4630
66371SOL     OW17104  14.102   1.871   2.216  0.1086  0.3110  0.3134
66371SOL    HW117105  14.139   1.842   2.133 -0.7859 -2.9884  0.9269
66371SOL    HW217106  14.007   1.862   2.204 -0.0919  0.8498  1.3741
66372SOL     OW17107  14.043   3.163  13.971  0.4777 -0.0034  0.3959
66372SOL    HW117108  14.131   3.190  13.999  0.2569 -0.5244  1.6582
66372SOL    HW217109  13.993   3.155  14.053 -0.4389 -0.7849 -0.2197
66373SOL     OW17110   0.360   5.104   3.418  0.5180  0.1547  0.1394
66373SOL    HW117111   0.391   5.175   3.362  1.1930  0.2856  0.6713
66373SOL    HW217112   0.373   5.135   3.507  0.6049 -0.5411  0.3789
66374SOL     OW17113  11.113  11.563   5.597 -0.7176  0.1918  0.3301
66374SOL    HW117114  11.073  11.647   5.577 -0.9569  0.1273  0.5269
66374SOL    HW217115  11.070  11.500   5.539 -1.2514  0.0417  0.8849
66375SOL     OW17116   9.924  10.922  11.487 -0.3651  0.0067 -0.5153
66375SOL    HW117117   9.958  10.977  11.557 -3.2180  1.2246  0.0470
66375SOL    HW217118   9.973  10.840  11.495  1.3927  1.1367  1.0158
66376SOL     OW17119   3.727   9.122  12.750  0.6067 -0.0268 -0.1453
66376SOL    HW117120   3.665   9.194  12.764  2.3453  1.4205  0.5181
66376SOL    HW217121   3.745   9.089  12.838  0.8074 -0.4168 -0.3301
66377SOL     OW17122  12.593   1.831   5.491 -0.1864 -0.2075  0.2870
66377SOL    HW117123  12.637   1.793   5.415 -0.8890 -1.2412  0.3769
66377SOL    HW217124  12.505   1.850   5.461 -0.7338 -1.4077  1.0497
66378SOL     OW17125   6.488   5.583   8.497 -0.1030 -0.5629  0.4428
66378SOL    HW117126   6.580   5.577   8.472 -0.0926  1.6026 -0.2948
66378SOL    HW217127   6.450   5.641   8.431 -2.1477 -1.8566  0.4069
66379SOL     OW17128   0.527   7.677   1.463  0.5402  0.0792  0.4187
66379SOL    HW117129   0.506   7.626   1.385  1.0777  1.2899 -0.5664
66379SOL    HW217130   0.594   7.739   1.433  0.8449  0.4938  1.8795
66380SOL     OW17131  12.875   4.073   3.000 -0.0813  0.0544  0.1745
66380SOL    HW117132  12.887   4.082   2.905  1.2320  0.4122  0.3614
66380SOL    HW217133  12.911   4.153   3.037 -1.0638  0.1558  0.9630
66381SOL     OW17134   4.598  11.102   4.494  0.2064 -0.5733  0.1910
66381SOL    HW117135   4.592  11.075   4.585  0.1771 -2.1161 -0.2474
66381SOL    HW217136   4.636  11.190   4.498  0.5354 -0.7552  1.6532
66382SOL     OW17137  13.792  13.939   5.942  0.8819 -0.4393 -0.0805
66382SOL    HW117138  13.819  13.850   5.964  0.5864 -0.8672 -1.3178
66382SOL    HW217139  13.712  13.953   5.993  0.9985 -0.8453  0.2188
66383SOL     OW17140   8.940   5.903   1.084  0.1149 -0.2178 -0.3238
66383SOL    HW117141   8.929   5.852   1.164  1.6815 -1.3058 -0.7491
66383SOL    HW217142   8.906   5.846   1.015  0.1515  0.0807 -0.5893
66384SOL     OW17143   4.932   2.030   0.780 -0.3330  0.0029  0.8081
66384SOL    HW117144   4.975   2.081   0.711  0.1429  2.0251  2.4873
66384SOL    HW217145   4.839   2.046   0.767 -0.3127 -0.3993  0.0943
66385SOL     OW17146  13.918   9.741   4.945  0.1183  0.3600  0.2209
66385SOL    HW117147  13.895   9.657   4.907  1.1601 -0.7248  1.8374
66385SOL    HW217148  13.988   9.775   4.888 -0.1936  0.0616 -0.3463
66386SOL     OW17149  12.941   1.739   6.077 -0.2591  0.2184  0.8840
66386SOL    HW117150  12.930   1.648   6.107 -0.1248  0.1565  0.7449
66386SOL    HW217151  12.867   1.786   6.116 -0.0927  0.1354  1.3039
66387SOL     OW17152   1.589   0.420   3.170 -0.4016  0.2829  0.0553
66387SOL    HW117153   1.681   0.406   3.146 -0.5734 -0.6732 -0.0837
66387SOL    HW217154   1.540   0.366   3.108 -0.9775 -0.3937  1.0778
66388SOL     OW17155   0.034   8.958   6.025  0.6941  0.0634  0.0667
66388SOL    HW117156   0.103   9.014   5.987 -0.0405 -0.0357 -1.4996
66388SOL    HW217157   0.023   8.992   6.114  0.5206  2.2126 -0.6981
66389SOL     OW17158   6.140   7.664  13.846 -0.0302  0.4542  0.1408
66389SOL    HW117159   6.229   7.697  13.832 -0.7296  3.0057  1.2670
66389SOL    HW217160   6.138   7.635  13.937 -0.4640  0.7852  0.2403
66390SOL     OW17161   0.819   8.657   5.164  0.1673  0.3371 -0.3662
66390SOL    HW117162   0.772   8.649   5.247  0.3511  0.1474 -0.2784
66390SOL    HW217163   0.911   8.638   5.187  0.1090 -0.4514 -0.7394
66391SOL     OW17164  11.599   5.199  11.228 -0.6860  0.7158  0.0295
66391SOL    HW117165  11.542   5.169  11.156  0.0207  0.1563 -0.3138
66391SOL    HW217166  11.539   5.213  11.301 -1.0706 -2.0075  0.3620
66392SOL     OW17167  13.246   9.461   7.063  0.4064  0.1670 -0.3037
66392SOL    HW117168  13.313   9.530   7.061 -0.4049  0.9725 -0.4918
66392SOL    HW217169  13.165   9.506   7.040 -0.2014 -0.7984 -0.1054
66393SOL     OW17170   6.187   7.010  10.124 -0.3094 -0.6375 -0.2667
66393SOL    HW117171   6.283   7.009  10.121 -0.2231 -2.3624  0.9735
66393SOL    HW217172   6.166   7.083  10.183  0.2847 -0.6723  0.0019
66394SOL     OW17173  12.129   0.976  13.142  0.2768 -0.0199 -0.4851
66394SOL    HW117174  12.078   0.897  13.160 -0.9563  1.0544  0.9350
66394SOL    HW217175  12.190   0.949  13.074 -0.4507 -2.0584 -0.4089
66395SOL     OW17176   4.342  13.854   6.460  0.3415 -0.1005  0.3026
66395SOL    HW117177   4.332  13.944   6.492 -2.3606 -0.5107  0.8641
66395SOL    HW217178   4.317  13.859   6.368 -2.4552 -0.6173  0.9486
66396SOL     OW17179   3.352  10.570  12.656  1.0519  0.1680  0.3920
66396SOL    HW117180   3.372  10.658  12.624  3.1170 -0.2293  0.4356
66396SOL    HW217181   3.432  10.541  12.699  0.5618 -1.8857  0.0512
66397SOL     OW17182   9.784   7.012   8.135 -0.4252 -0.2082  0.1323
66397SOL    HW117183   9.731   6.973   8.205 -0.2510 -0.0316  0.3624
66397SOL    HW217184   9.862   7.045   8.179  0.4383 -1.5015 -0.3632
66398SOL     OW17185   2.240  12.933   9.622  0.0302 -0.6961 -0.4298
66398SOL    HW117186   2.240  13.029   9.618 -0.7299 -0.7225 -1.5878
66398SOL    HW217187   2.324  12.908   9.583 -0.3843 -0.5223 -1.4574
66399SOL     OW17188   4.559   0.128   0.717 -0.1469 -0.4619  0.1785
66399SOL    HW117189   4.489   0.132   0.652  1.1319  2.8200 -1.2135
66399SOL    HW217190   4.575   0.219   0.740  2.6602 -1.2101  1.6154
66400SOL     OW17191   9.941  13.617   7.380 -0.0539 -0.2825 -0.7046
66400SOL    HW117192   9.892  13.689   7.340  1.9524  0.6807 -1.5626
66400SOL    HW217193   9.905  13.538   7.340 -0.6197  0.4252 -1.6419
66401SOL     OW17194   1.765   2.019   2.372 -0.5804  0.1612  0.0421
66401SOL    HW117195   1.836   1.956   2.361 -0.8897 -0.2837  0.5092
66401SOL    HW217196   1.686   1.968   2.356 -0.7786  0.8260 -1.2411
66402SOL     OW17197   6.293   4.147   5.577 -0.3072 -0.6064  0.6762
66402SOL    HW117198   6.372   4.150   5.524 -0.3404 -1.0588  0.5989
66402SOL    HW217199   6.265   4.239   5.583  0.3591 -0.4125  0.9205
66403SOL     OW17200  13.547  10.482   0.035  0.4825  0.0221  0.2405
66403SOL    HW117201  13.550  10.415  -0.033  0.4092  0.3058 -0.0416
66403SOL    HW217202  13.622  10.539   0.016 -1.1241  1.7507 -1.3073
66404SOL     OW17203   2.399   5.706  12.776  0.5193 -0.0209  0.3155
66404SOL    HW117204   2.358   5.724  12.691  0.2380  0.1516  0.4887
66404SOL    HW217205   2.330   5.721  12.840  1.2182  1.6534  0.7212
66405SOL     OW17206  14.134   6.495   4.695 -0.4561 -0.0124 -0.2734
66405SOL    HW117207  14.044   6.513   4.723 -0.3042 -0.3676  0.4695
66405SOL    HW217208  14.165   6.578   4.658 -0.9840  0.2002 -0.2392
66406SOL     OW17209   1.705   2.035   1.880  0.1634 -0.4948  0.0163
66406SOL    HW117210   1.792   2.039   1.839  0.5399 -1.3305  0.6882
66406SOL    HW217211   1.645   2.069   1.814  1.2735  2.5352  0.3853
66407SOL     OW17212   3.087  10.693  11.639  0.7244  0.0112  0.0167
66407SOL    HW117213   3.133  10.723  11.561  0.3083 -0.0309 -0.2445
66407SOL    HW217214   3.115  10.602  11.650 -1.5407 -1.0221 -1.8765
66408SOL     OW17215   2.560  11.421  12.889 -0.3159 -0.1736 -0.2589
66408SOL    HW117216   2.576  11.343  12.837  1.5559  0.6557 -1.0273
66408SOL    HW217217   2.648  11.458  12.904 -1.1414  1.8055  0.0224
66409SOL     OW17218   5.855  13.954   7.792  0.0565  0.3162 -0.2982
66409SOL    HW117219   5.833  13.976   7.883  0.9052 -0.8179  0.2077
66409SOL    HW217220   5.777  13.910   7.759 -0.0132  0.1476  0.0858
66410SOL     OW17221   9.887   5.647  10.213 -0.3415  0.0138  0.2093
66410SOL    HW117222   9.978   5.618  10.208 -0.1095  0.8873 -1.0858
66410SOL    HW217223   9.892   5.739  10.240 -0.9250 -0.2976  1.4584
66411SOL     OW17224   4.661   1.290   9.908 -0.0529 -0.4427  0.2485
66411SOL    HW117225   4.612   1.208   9.912  1.7852 -1.5931  0.4048
66411SOL    HW217226   4.698   1.292   9.820 -0.1789  0.2921  0.2051
66412SOL     OW17227   0.631   3.302  11.576 -0.3905 -0.2173  0.6612
66412SOL    HW117228   0.692   3.336  11.512  0.6907  1.7279  2.5979
66412SOL    HW217229   0.548   3.295  11.529  0.8563 -1.2383 -1.5534
66413SOL     OW17230   7.601   0.226  10.359 -0.4852  0.0802  0.3982
66413SOL    HW117231   7.640   0.139  10.360  0.6059  0.5365 -0.3256
66413SOL    HW217232   7.529   0.221  10.422  0.3309 -0.9804  1.2915
66414SOL     OW17233   6.651  12.282   0.666 -0.4056  0.6954  0.2681
66414SOL    HW117234   6.622  12.193   0.649 -1.3817  0.9599  0.4389
66414SOL    HW217235   6.570  12.330   0.684  0.0575  1.7076 -0.2446
66415SOL     OW17236  13.005  10.027   3.482 -0.2842  0.0951  0.2220
66415SOL    HW117237  13.035   9.959   3.542  1.5669 -0.6658 -1.4351
66415SOL    HW217238  12.910  10.029   3.493 -0.0918 -0.6120  2.4751
66416SOL     OW17239   0.088   6.627   1.224  0.2292  0.2919 -0.3037
66416SOL    HW117240   0.083   6.627   1.128 -0.5115  1.2170 -0.2840
66416SOL    HW217241  -0.002   6.618   1.253  0.4900 -0.3515  0.3161
66417SOL     OW17242   4.881   0.295  13.523 -0.1634 -0.2567  1.0181
66417SOL    HW117243   4.870   0.348  13.444 -2.1368 -0.9792  0.7569
66417SOL    HW217244   4.949   0.340  13.573  0.2996  0.8682 -0.5386
66418SOL     OW17245  11.150   1.288   4.712  0.1211 -0.2207  0.0424
66418SOL    HW117246  11.135   1.289   4.617 -2.2129  0.6340  0.3317
66418SOL    HW217247  11.154   1.195   4.735 -0.5189 -0.4635 -0.7701
66419SOL     OW17248  13.582  13.306  13.614  0.3577  0.7934  0.0263
66419SOL    HW117249  13.533  13.358  13.551 -3.4653  0.6339  2.5105
66419SOL    HW217250  13.560  13.215  13.593 -0.9766  0.7402  1.4295
66420SOL     OW17251   3.814   4.050   0.787  0.1607 -0.2211 -0.3344
66420SOL    HW117252   3.732   4.096   0.805 -0.3328 -0.3825 -1.9707
66420SOL    HW217253   3.872   4.116   0.751  0.3159 -0.3619 -0.3463
66421SOL     OW17254  10.190   4.091   5.511 -0.2440 -0.0697  0.1629
66421SOL    HW117255  10.198   3.996   5.515  2.1829  0.0377 -0.6690
66421SOL    HW217256  10.098   4.107   5.488 -0.7084 -2.1786  0.3863
66422SOL     OW17257   4.262   6.196  10.301  0.0004 -0.1695 -0.6579
66422SOL    HW117258   4.175   6.234  10.309  0.4812  0.6745  1.1892
66422SOL    HW217259   4.322   6.271  10.306  0.8801 -0.8862  0.0618
66423SOL     OW17260   1.262   0.344  14.040 -0.4724  0.1566 -0.0004
66423SOL    HW117261   1.328   0.280  14.069 -1.8904 -1.5942 -0.4553
66423SOL    HW217262   1.300   0.382  13.960  0.2789 -0.3326  0.1106
66424SOL     OW17263   0.798   1.672  13.133  0.0539 -0.3711 -0.1333
66424SOL    HW117264   0.781   1.706  13.045  0.2727 -1.4074 -0.5882
66424SOL    HW217265   0.743   1.594  13.140  1.2813 -1.2507  0.0157
66425SOL     OW17266   6.086   6.338   1.470  0.1356 -0.0381 -0.3841
66425SOL    HW117267   6.129   6.336   1.555  0.0295  0.5144 -0.3114
66425SOL    HW217268   6.045   6.425   1.466  0.5710  0.1463 -1.2113
66426SOL     OW17269   5.945   1.489   6.177  0.4708  0.6677  0.1286
66426SOL    HW117270   5.879   1.450   6.119  0.6695 -0.9481  0.9349
66426SOL    HW217271   5.915   1.579   6.188 -1.5974  0.0170  0.4029
66427SOL     OW17272   0.100   1.910   0.783 -0.1344  0.7425 -0.0048
66427SOL    HW117273   0.065   1.857   0.855  0.0821  1.1028  0.3682
66427SOL    HW217274   0.144   1.984   0.826  2.2993 -0.3817 -0.3885
66428SOL     OW17275   5.949   1.944   4.371 -0.1402  0.7045 -0.3837
66428SOL    HW117276   5.974   2.036   4.377  0.0011  0.6596 -0.2840
66428SOL    HW217277   5.966   1.908   4.458 -1.8578  0.9939  0.1036
66429SOL     OW17278   7.594   4.690   7.071 -0.0666  0.9424 -0.0105
66429SOL    HW117279   7.638   4.728   6.995  0.8352 -2.1657 -1.1994
66429SOL    HW217280   7.505   4.672   7.042  0.2931 -0.2952 -0.4101
66430SOL     OW17281   1.126  12.610   2.170  0.5391  0.1523 -0.5964
66430SOL    HW117282   1.102  12.574   2.085  1.9090  0.4088 -1.1164
66430SOL    HW217283   1.164  12.695   2.149  3.5973 -0.9711 -0.0515
66431SOL     OW17284   4.034   5.819   1.382 -0.0555  0.1252  0.4630
66431SOL    HW117285   3.972   5.840   1.312 -0.3318 -0.9489  0.3645
66431SOL    HW217286   3.992   5.852   1.462  0.4944  1.8218  0.0897
66432SOL     OW17287   6.307   9.056   4.670  0.1196  0.1832 -0.0291
66432SOL    HW117288   6.392   9.077   4.708  0.2803 -2.2532  1.1099
66432SOL    HW217289   6.275   9.139   4.635  1.7456  1.7195  1.9325
66433SOL     OW17290  10.803   0.020   8.557  0.0108 -0.0697 -0.4499
66433SOL    HW117291  10.872   0.074   8.519 -1.1466  1.3843 -0.5925
66433SOL    HW217292  10.776  -0.038   8.485  0.1492  0.3121 -0.8146
66434SOL     OW17293   2.184   9.974   0.849  0.0782 -0.3083  0.2486
66434SOL    HW117294   2.211   9.957   0.758 -0.2829 -0.7801  0.2292
66434SOL    HW217295   2.091   9.954   0.851 -0.6245  2.5778 -0.0032
66435SOL     OW17296   3.064   7.438   1.732  0.5535  0.3943 -0.3793
66435SOL    HW117297   3.104   7.376   1.793 -2.3907 -2.2381 -0.9145
66435SOL    HW217298   3.102   7.523   1.757  3.8829 -1.3577  1.1738
66436SOL     OW17299   6.690  13.915   9.615  0.3749 -0.2206 -0.1041
66436SOL    HW117300   6.659  13.841   9.562  0.1230 -0.3220  0.1838
66436SOL    HW217301   6.779  13.931   9.583  0.6150 -0.9672  0.1596
66437SOL     OW17302   1.981   1.399  13.845  0.0110  0.9657  0.0917
66437SOL    HW117303   1.909   1.440  13.894  0.0493  0.7558  0.3300
66437SOL    HW217304   2.028   1.347  13.911 -0.9095 -0.6473 -0.4535
66438SOL     OW17305  12.489   1.558   2.920  0.0467 -0.3007 -0.6428
66438SOL    HW117306  12.447   1.533   2.838 -0.0780  0.2032 -0.7361
66438SOL    HW217307  12.488   1.478   2.973 -0.9577 -0.3060 -0.6661
66439SOL     OW17308   5.503   4.522  13.178  0.1238 -0.3126 -0.2686
66439SOL    HW117309   5.415   4.492  13.154 -0.3281 -1.7521  2.7657
66439SOL    HW217310   5.562   4.461  13.133 -0.4210  0.1222 -1.6131
66440SOL     OW17311  10.852  12.292   6.841  0.1865 -0.1049 -0.2486
66440SOL    HW117312  10.947  12.281   6.841  0.2564  0.1864  1.4616
66440SOL    HW217313  10.832  12.330   6.927 -1.0630  3.7615 -2.0166
66441SOL     OW17314   1.951   5.516   6.333 -0.6433 -0.5692  0.0182
66441SOL    HW117315   1.984   5.449   6.273 -1.1877 -0.3174 -0.5694
66441SOL    HW217316   1.857   5.522   6.314 -1.0520 -1.3020  1.6936
66442SOL     OW17317   0.736  13.620   2.128  0.0526  0.1418  0.2271
66442SOL    HW117318   0.725  13.680   2.054  1.8712  0.2436 -0.0119
66442SOL    HW217319   0.781  13.673   2.194  1.7156 -0.9087 -0.0003
66443SOL     OW17320   1.719   0.631   5.788  0.0284  0.1492 -0.4130
66443SOL    HW117321   1.654   0.607   5.721 -1.1236 -1.9442  1.3250
66443SOL    HW217322   1.785   0.562   5.783 -0.1219 -0.0794  0.6471
66444SOL     OW17323  10.124   1.653   2.608  0.2726  0.4083  0.4240
66444SOL    HW117324  10.150   1.572   2.652  1.1315 -0.0406 -0.8726
66444SOL    HW217325  10.046   1.628   2.557  0.3002  0.4949  0.3399
66445SOL     OW17326   5.725  10.482   5.165 -0.4965  0.1780 -0.6519
66445SOL    HW117327   5.721  10.564   5.115 -0.6515 -0.1617 -1.2069
66445SOL    HW217328   5.817  10.455   5.159 -0.2686  0.7255  0.2219
66446SOL     OW17329   4.252   8.196   8.372 -0.7825 -0.0007 -0.2562
66446SOL    HW117330   4.209   8.277   8.400 -0.7891 -0.2449  0.4856
66446SOL    HW217331   4.276   8.152   8.455 -2.5367 -1.7034 -0.5789
66447SOL     OW17332  13.139  11.545   8.078 -0.1924 -0.6113  0.8520
66447SOL    HW117333  13.058  11.596   8.078 -0.0564 -0.3906  0.2443
66447SOL    HW217334  13.122  11.475   8.142 -0.6439 -0.2369  1.1586
66448SOL     OW17335  10.304   9.053   9.477 -0.2266 -0.3511  0.3737
66448SOL    HW117336  10.390   9.031   9.513  0.7420  0.7942 -1.0926
66448SOL    HW217337  10.277   8.974   9.430  0.1014 -0.6573  0.6935
66449SOL     OW17338  13.256   5.783   3.625 -0.1476 -0.1313  0.9714
66449SOL    HW117339  13.300   5.729   3.690 -2.3125 -1.5847  1.3317
66449SOL    HW217340  13.314   5.859   3.613  0.9766 -0.4812  3.5553
66450SOL     OW17341   1.482   4.982   8.864 -0.2546 -0.1518  0.0012
66450SOL    HW117342   1.430   4.905   8.841 -0.5476 -0.0189  0.2170
66450SOL    HW217343   1.423   5.056   8.851 -0.7083 -0.1217  1.9173
66451SOL     OW17344  13.326   9.389   3.277  0.2570 -0.5608 -0.3475
66451SOL    HW117345  13.347   9.378   3.370  1.7160 -0.6858 -0.6721
66451SOL    HW217346  13.411   9.398   3.234 -0.4288  0.4028 -1.5683
66452SOL     OW17347   0.757  10.632   9.730 -0.3571  0.0906 -1.0482
66452SOL    HW117348   0.789  10.556   9.682  2.9383  1.1763 -0.8603
66452SOL    HW217349   0.793  10.707   9.683 -0.9542  1.3853  0.4706
66453SOL     OW17350   2.011  13.939   8.934 -0.4119  0.2232  0.5282
66453SOL    HW117351   1.960  14.000   8.987 -0.4539 -0.0927  0.8501
66453SOL    HW217352   2.029  13.865   8.991 -0.5482 -0.1686  0.0708
66454SOL     OW17353   4.172   0.293   7.139  0.0118 -0.4287 -0.2975
66454SOL    HW117354   4.112   0.367   7.150  1.3448  0.7842 -0.8981
66454SOL    HW217355   4.192   0.266   7.229  1.1270  1.3143  0.0128
66455SOL     OW17356   4.119   0.862   3.094  0.2569  0.0789  0.0447
66455SOL    HW117357   4.166   0.942   3.072 -0.6091  0.4237 -0.6312
66455SOL    HW217358   4.094   0.874   3.186 -0.0304  0.6810 -0.1051
66456SOL     OW17359   7.850  12.000   3.349  0.0425 -0.5956 -0.5387
66456SOL    HW117360   7.811  11.927   3.301 -0.6974 -0.9154  0.5031
66456SOL    HW217361   7.936  11.968   3.377  0.3054 -0.5509 -1.2654
66457SOL     OW17362   3.639   2.799  12.493  0.3077 -0.1803  0.4948
66457SOL    HW117363   3.616   2.891  12.479  0.8311 -0.1375 -0.0960
66457SOL    HW217364   3.582   2.772  12.566 -1.4279  0.0085 -0.7143
66458SOL     OW17365   7.069   4.655  12.080 -0.0528 -0.0683 -0.1819
66458SOL    HW117366   7.003   4.720  12.056 -0.0282 -0.6267 -1.9333
66458SOL    HW217367   7.151   4.689  12.045  0.2322 -0.3337  0.2127
66459SOL     OW17368   9.867   6.266   7.861 -0.1186 -0.1288  0.4052
66459SOL    HW117369   9.881   6.284   7.768  0.4528  0.0964  0.5271
66459SOL    HW217370   9.941   6.210   7.885  0.1467  0.4338  0.9009
66460SOL     OW17371   7.134   9.539   7.466  0.3421  0.0969 -0.0848
66460SOL    HW117372   7.122   9.634   7.472  0.3174  0.0872  0.0312
66460SOL    HW217373   7.104   9.507   7.551 -1.1533 -0.1602 -0.6687
66461SOL     OW17374   9.727  12.326   4.099 -0.2689  0.1710  0.0834
66461SOL    HW117375   9.649  12.320   4.155  0.3963 -2.1653  0.8529
66461SOL    HW217376   9.801  12.318   4.159  0.7397  3.8530 -0.4452
66462SOL     OW17377   7.524   8.436   7.060 -0.2603 -0.1087  0.1149
66462SOL    HW117378   7.537   8.345   7.083  0.6275 -0.2318 -0.7856
66462SOL    HW217379   7.606   8.479   7.082 -0.3936  0.3149 -0.1830
66463SOL     OW17380   3.913   3.155  12.359  0.3121  0.0688 -0.0290
66463SOL    HW117381   3.985   3.184  12.415  0.6850  1.6685 -1.2435
66463SOL    HW217382   3.934   3.063  12.339  2.5403  0.7167 -1.0393
66464SOL     OW17383   3.219  11.979   1.837  0.7109  0.3975  0.6888
66464SOL    HW117384   3.305  12.021   1.830  1.0373 -0.2468  0.6822
66464SOL    HW217385   3.223  11.929   1.919  0.2029  0.6695  0.8828
66465SOL     OW17386   7.778   5.163  11.806 -0.0583  1.1234 -0.0713
66465SOL    HW117387   7.818   5.192  11.724  0.3666  1.8788  0.3890
66465SOL    HW217388   7.771   5.243  11.859  1.0547  0.4102  1.2068
66466SOL     OW17389   5.096   0.198   4.722 -0.2800  0.9259  0.0902
66466SOL    HW117390   5.005   0.181   4.700 -0.2105  2.3072 -1.3702
66466SOL    HW217391   5.135   0.111   4.731 -2.2442  0.2356  3.2426
66467SOL     OW17392  13.211  13.111   0.706 -0.2378  0.2983  0.5332
66467SOL    HW117393  13.264  13.037   0.674  0.6422  0.5949  1.2554
66467SOL    HW217394  13.167  13.077   0.783 -1.1901  0.0309 -0.1090
66468SOL     OW17395  13.309   1.524   1.754  0.2770  0.4606  0.2962
66468SOL    HW117396  13.238   1.504   1.694  0.6607 -2.5869  0.6756
66468SOL    HW217397  13.382   1.549   1.698  0.0270 -0.2517 -0.3610
66469SOL     OW17398   2.931  11.326   1.601  0.0077 -0.2909 -0.2347
66469SOL    HW117399   2.931  11.281   1.517 -0.7460 -1.2218  0.2435
66469SOL    HW217400   2.965  11.414   1.582 -0.6408 -0.3165 -1.5894
66470SOL     OW17401   5.538   9.920   3.398  0.4480 -0.1954 -0.7087
66470SOL    HW117402   5.594   9.898   3.324  0.3651 -4.1835  0.1893
66470SOL    HW217403   5.587   9.892   3.475 -1.9943 -2.3257  0.2206
66471SOL     OW17404   5.433  12.286   7.124  0.0853 -0.4145  0.1336
66471SOL    HW117405   5.393  12.373   7.129 -2.1536 -1.3614 -0.3498
66471SOL    HW217406   5.505  12.297   7.061  0.1557  1.1691  0.4279
66472SOL     OW17407   4.975  13.645  12.930  0.4073  0.3035 -0.5787
66472SOL    HW117408   4.895  13.606  12.965  1.6058 -2.6955 -0.9468
66472SOL    HW217409   4.946  13.693  12.852 -1.1120 -0.0479 -0.2681
66473SOL     OW17410  12.462   1.215  13.312  0.5041 -0.0712 -0.1651
66473SOL    HW117411  12.368   1.214  13.293  0.6797  0.3677 -1.1039
66473SOL    HW217412  12.467   1.209  13.407 -0.4009 -3.2036 -0.1850
66474SOL     OW17413   7.829  11.914   9.481  0.2665 -0.0540  0.0509
66474SOL    HW117414   7.782  11.914   9.564  0.0168 -1.0936 -0.0845
66474SOL    HW217415   7.857  12.005   9.469  0.3128  0.1010  1.2755
66475SOL     OW17416   5.656  11.723   8.043  0.0906 -0.1039  0.2216
66475SOL    HW117417   5.679  11.814   8.027 -0.6835 -0.0283 -0.5826
66475SOL    HW217418   5.738  11.681   8.068  0.0950  1.2227  2.6572
66476SOL     OW17419   7.249   8.378   2.046 -0.1749 -0.6968  0.2926
66476SOL    HW117420   7.216   8.312   2.106 -1.8812  0.0620  0.2349
66476SOL    HW217421   7.302   8.436   2.101 -1.9254  0.1441  1.1812
66477SOL     OW17422  11.644  10.576   9.095 -0.0735  0.3325 -0.0812
66477SOL    HW117423  11.733  10.551   9.119  0.6177  0.4659 -2.2813
66477SOL    HW217424  11.638  10.668   9.118  1.1051  0.8756 -1.7671
66478SOL     OW17425  12.164   1.231   9.174 -0.2645 -0.3296  0.3846
66478SOL    HW117426  12.216   1.205   9.250  0.2777  0.6811  0.3724
66478SOL    HW217427  12.094   1.165   9.170  1.5317 -2.3088 -0.1830
66479SOL     OW17428   9.275   2.094   6.943  0.1205 -0.3707  0.1318
66479SOL    HW117429   9.282   2.163   7.008  3.0569 -1.1465  0.7542
66479SOL    HW217430   9.213   2.031   6.980  0.7841 -0.1781  1.6158
66480SOL     OW17431   1.343   2.209  12.571  0.3695  0.0028  0.3689
66480SOL    HW117432   1.431   2.172  12.569  0.3176 -0.1952  1.4094
66480SOL    HW217433   1.350   2.285  12.628  0.3365  1.2871 -1.2716
66481SOL     OW17434   6.899   5.886   4.505 -0.1954  0.1807 -0.1435
66481SOL    HW117435   6.851   5.967   4.487  2.1156  1.0811 -2.9937
66481SOL    HW217436   6.981   5.914   4.545 -0.3050 -1.0124  1.0188
66482SOL     OW17437   6.754   5.514  10.646  0.3293 -0.2175 -0.1192
66482SOL    HW117438   6.805   5.476  10.575 -1.6741 -2.3554 -0.5194
66482SOL    HW217439   6.814   5.514  10.721  1.2544 -1.6968 -0.8126
66483SOL     OW17440   3.425   2.079   4.438  0.0664 -0.5349 -0.1753
66483SOL    HW117441   3.369   2.153   4.462 -1.0597 -2.2470  3.1775
66483SOL    HW217442   3.369   2.022   4.386  1.0402  0.9472 -3.0740
66484SOL     OW17443  11.461   3.207   0.983  0.0109 -0.1226 -0.5720
66484SOL    HW117444  11.417   3.289   0.964 -0.2456 -0.5244 -1.8348
66484SOL    HW217445  11.554   3.226   0.972 -0.0865 -0.1380 -1.4695
66485SOL     OW17446   5.459   8.354   8.794  0.0466  0.3694 -0.9122
66485SOL    HW117447   5.408   8.435   8.786 -1.4764 -0.5815 -1.3128
66485SOL    HW217448   5.542   8.382   8.832 -0.1827  2.2096 -1.6401
66486SOL     OW17449   5.809   5.927   2.476  0.3087  0.2064  0.5870
66486SOL    HW117450   5.751   5.937   2.552 -0.6239  1.2526 -0.2295
66486SOL    HW217451   5.770   5.983   2.408  1.5045 -0.1630 -0.4458
66487SOL     OW17452  13.426   0.821   4.775 -0.0530  0.0370  0.6196
66487SOL    HW117453  13.444   0.730   4.796 -0.9777 -0.2467  0.2221
66487SOL    HW217454  13.334   0.822   4.748  0.0824  0.9971  0.1467
66488SOL     OW17455  10.331   0.127  10.687 -0.2008 -0.1117 -0.1580
66488SOL    HW117456  10.426   0.118  10.676 -0.0608 -0.6676  1.2627
66488SOL    HW217457  10.295   0.097  10.604  0.7882 -2.9274  0.2859
66489SOL     OW17458   3.997  12.662  10.416  1.0132  0.0705  0.6112
66489SOL    HW117459   4.025  12.754  10.411  1.0951  0.0710  1.0669
66489SOL    HW217460   4.069  12.613  10.378  0.9381  0.1973  0.2953
66490SOL     OW17461  11.761   9.711   6.271 -0.1999  0.3038 -0.0337
66490SOL    HW117462  11.732   9.654   6.343  0.6861 -1.1908 -0.8053
66490SOL    HW217463  11.681   9.754   6.240 -1.6375 -3.1825 -1.6842
66491SOL     OW17464   1.809  12.165   9.384  0.3903  0.1415  0.1314
66491SOL    HW117465   1.847  12.197   9.302 -0.1293 -0.6494 -0.4276
66491SOL    HW217466   1.852  12.081   9.399 -1.1508 -0.7964 -0.5412
66492SOL     OW17467   0.876   5.964   5.367  0.1346  0.1343 -0.2374
66492SOL    HW117468   0.783   5.961   5.387  0.0762 -0.6273 -0.5733
66492SOL    HW217469   0.919   5.947   5.450 -0.0796 -1.5636 -0.4341
66493SOL     OW17470  11.477   9.447  14.111 -0.0883  0.0855  0.4975
66493SOL    HW117471  11.485   9.492  14.027  0.0394 -0.7220  0.0766
66493SOL    HW217472  11.544   9.380  14.110 -1.8433 -1.7454  0.0796
66494SOL     OW17473   6.600   0.141  11.405  0.4201 -0.2931 -0.0352
66494SOL    HW117474   6.530   0.089  11.367  0.4645 -1.0762  0.9173
66494SOL    HW217475   6.680   0.104  11.368  0.4313 -0.6848  0.3711
66495SOL     OW17476  13.114  13.163   8.926  0.2386 -0.3384  0.1045
66495SOL    HW117477  13.150  13.221   8.858  0.9595 -0.0920  0.6834
66495SOL    HW217478  13.025  13.194   8.939  0.5459  0.5076  0.2461
66496SOL     OW17479   1.479   9.278   7.283 -0.2663  0.1305 -0.4553
66496SOL    HW117480   1.528   9.339   7.340 -1.1781 -1.3362  2.0468
66496SOL    HW217481   1.387   9.301   7.298 -0.5261 -0.3548 -1.2896
66497SOL     OW17482   9.321   4.841  13.931  0.0992  0.2199  0.0687
66497SOL    HW117483   9.356   4.911  13.986  2.4791  0.0595 -1.1290
66497SOL    HW217484   9.316   4.765  13.991  2.7333  0.0218  0.1578
66498SOL     OW17485  13.933  10.887   4.468 -0.2585  0.1087 -0.0984
66498SOL    HW117486  13.999  10.839   4.416 -1.0564 -1.2283  0.0680
66498SOL    HW217487  13.984  10.945   4.524  0.7580 -0.4572 -0.4102
66499SOL     OW17488   0.372   6.709  12.277 -0.4310  0.9713 -0.1019
66499SOL    HW117489   0.401   6.638  12.335  1.1923  1.3005 -0.4563
66499SOL    HW217490   0.443   6.773  12.280 -2.1995  3.0466  0.8896
66500SOL     OW17491   3.780  13.780   1.723  0.0033  0.3865  0.4593
66500SOL    HW117492   3.809  13.732   1.646 -1.9745  0.5200 -0.4335
66500SOL    HW217493   3.707  13.729   1.757 -1.1977  1.9510  0.3378
66501SOL     OW17494   7.433   6.395   3.032 -0.1048 -0.7022  0.3366
66501SOL    HW117495   7.394   6.387   3.120  0.6716 -1.4146  0.6303
66501SOL    HW217496   7.520   6.357   3.042 -0.2844 -1.4934 -0.9250
66502SOL     OW17497   9.324   8.255  11.517  0.3411 -0.0124  0.3874
66502SOL    HW117498   9.289   8.342  11.498  0.0839 -0.3626 -0.8249
66502SOL    HW217499   9.412   8.256  11.479 -0.6700 -1.1720 -2.1809
66503SOL     OW17500   6.994  12.384   6.978 -0.2598 -0.0990  0.2873
66503SOL    HW117501   7.073  12.341   6.945 -0.6253 -0.1439 -0.5515
66503SOL    HW217502   7.004  12.475   6.951 -0.9219 -0.2924 -0.6369
66504SOL     OW17503  10.777   4.175  12.573 -0.0122  0.4144  0.3918
66504SOL    HW117504  10.762   4.255  12.523 -3.3171  0.8420  1.8278
66504SOL    HW217505  10.749   4.104  12.515  0.7270  0.4546 -0.0339
66505SOL     OW17506  11.754   7.485  11.046  0.1928  0.5836 -0.4032
66505SOL    HW117507  11.669   7.473  11.006 -0.5598  1.6978  0.7848
66505SOL    HW217508  11.737   7.481  11.140  1.2276  2.0308 -0.1176
66506SOL     OW17509  13.539   8.750   8.349 -0.0715  0.1307  0.8201
66506SOL    HW117510  13.538   8.671   8.295 -0.9612  0.5902  0.1228
66506SOL    HW217511  13.565   8.720   8.436  0.7255 -0.7420  0.3041
66507SOL     OW17512   1.598   5.327  12.067 -0.9245 -0.4981 -0.3741
66507SOL    HW117513   1.650   5.251  12.041  0.5056  0.4206 -0.3443
66507SOL    HW217514   1.508   5.302  12.049 -0.5269 -2.3039 -0.0883
66508SOL     OW17515  13.136   3.847   1.030  0.3839  0.1072  0.7776
66508SOL    HW117516  13.199   3.784   0.995 -1.3984 -0.6460 -1.3234
66508SOL    HW217517  13.133   3.917   0.965 -0.7977  0.2180  0.9243
66509SOL     OW17518   1.739  12.902  13.604 -0.4717 -0.0040 -0.0276
66509SOL    HW117519   1.682  12.961  13.555 -1.4943  0.5377  1.7233
66509SOL    HW217520   1.770  12.955  13.677  1.3658 -0.6504 -0.2856
66510SOL     OW17521  10.652   4.471   1.522  0.2898  0.1475  0.0432
66510SOL    HW117522  10.682   4.391   1.479 -0.0650  0.3331 -0.5649
66510SOL    HW217523  10.559   4.454   1.540  0.1708  0.4924 -0.2516
66511SOL     OW17524   6.713   8.915  12.863  0.0979 -0.0285  0.4543
66511SOL    HW117525   6.651   8.981  12.893 -0.5541 -0.6337  0.4692
66511SOL    HW217526   6.709   8.921  12.768 -1.7279 -1.5985  0.3714
66512SOL     OW17527   8.309   1.860  10.866  0.2248  0.5617  0.4933
66512SOL    HW117528   8.301   1.790  10.801 -0.5115  1.1969 -0.1124
66512SOL    HW217529   8.236   1.918  10.848  1.1449  1.7966  0.6199
66513SOL     OW17530  14.063   0.368   5.775  0.9235 -0.1561 -0.1709
66513SOL    HW117531  13.991   0.416   5.734  2.1262 -0.1092 -2.4280
66513SOL    HW217532  14.048   0.277   5.749  0.1151 -0.6507  1.8504
66514SOL     OW17533   5.371   1.479   2.219  0.1227 -0.3707 -0.2094
66514SOL    HW117534   5.356   1.414   2.288  0.0460 -0.1583 -0.0277
66514SOL    HW217535   5.342   1.434   2.139 -0.3168 -0.4165 -0.0315
66515SOL     OW17536   0.983   8.429   0.342 -0.4783  0.7238 -0.1171
66515SOL    HW117537   0.890   8.427   0.361 -0.3058  0.2356  0.7399
66515SOL    HW217538   1.008   8.521   0.348 -0.8682  0.8314 -0.1725
66516SOL     OW17539  12.398  10.448   2.243 -0.3199  0.2267 -0.2522
66516SOL    HW117540  12.389  10.527   2.191 -1.1847  1.4214  1.5938
66516SOL    HW217541  12.310  10.409   2.243 -0.2868  0.1443  0.1649
66517SOL     OW17542   0.901   3.455   8.109 -0.0779 -0.2000  0.2794
66517SOL    HW117543   0.926   3.464   8.201 -1.7630 -2.1610  1.0144
66517SOL    HW217544   0.858   3.539   8.088  1.2975  0.6922  0.9071
66518SOL     OW17545   4.223   4.239  13.512  0.6288  0.2778  0.1243
66518SOL    HW117546   4.155   4.281  13.458  1.9718  1.8066 -0.4526
66518SOL    HW217547   4.225   4.149  13.481 -0.2606  0.5253 -0.7351
66519SOL     OW17548   7.097   8.528   9.284  0.1943  0.0953 -0.7991
66519SOL    HW117549   7.014   8.495   9.317 -0.8497  2.5311 -0.7538
66519SOL    HW217550   7.157   8.518   9.358 -0.1819 -1.1310 -0.6334
66520SOL     OW17551   7.127  13.173   5.178  0.0431 -0.4158  0.2676
66520SOL    HW117552   7.044  13.198   5.136  0.3196  0.7367  0.3548
66520SOL    HW217553   7.107  13.175   5.272  0.1575 -0.1805  0.2871
66521SOL     OW17554  11.080  13.579  12.289 -0.4838  0.0691 -0.1352
66521SOL    HW117555  11.046  13.493  12.265  0.4070 -0.7977  1.5686
66521SOL    HW217556  11.164  13.585  12.243  0.5072 -0.9569  1.4437
66522SOL     OW17557   9.212  10.016   1.499  0.0104  0.7039 -0.2325
66522SOL    HW117558   9.209  10.016   1.594 -1.3525 -1.6249 -0.1867
66522SOL    HW217559   9.183  10.103   1.473 -0.0558  1.2054  1.4598
66523SOL     OW17560   9.673   1.729   4.185  0.5138 -0.2249 -0.1086
66523SOL    HW117561   9.760   1.693   4.167  1.0801  0.2443  1.5576
66523SOL    HW217562   9.625   1.657   4.225  0.4394 -0.2072 -0.1670
66524SOL     OW17563  13.411   1.370  13.203  0.0371 -0.2336  0.3668
66524SOL    HW117564  13.368   1.418  13.274  2.4989  1.3445  0.9127
66524SOL    HW217565  13.393   1.421  13.124  0.9695  0.5349  0.6267
66525SOL     OW17566  11.080   1.242   9.642  0.1629  0.0318  0.5726
66525SOL    HW117567  11.114   1.157   9.613  0.3305  0.3926 -0.3003
66525SOL    HW217568  11.008   1.261   9.583  0.7551  0.9545  0.1248
66526SOL     OW17569   6.042   1.488  13.002 -0.1875 -0.1341  0.1728
66526SOL    HW117570   6.078   1.492  12.913  1.9495  0.4649  1.0000
66526SOL    HW217571   6.039   1.395  13.023  0.6853 -0.2133 -0.0217
66527SOL     OW17572   8.577   6.465   2.963  0.3888  0.4262 -0.0375
66527SOL    HW117573   8.563   6.379   3.004  1.4028 -0.0548 -0.6606
66527SOL    HW217574   8.520   6.524   3.011  1.7499 -0.0346  2.2760
66528SOL     OW17575  12.792  13.382   8.223  0.0516  0.1299  0.4104
66528SOL    HW117576  12.832  13.430   8.151 -0.8360 -0.5374 -0.5632
66528SOL    HW217577  12.702  13.413   8.226  0.0020 -0.0467  1.0622
66529SOL     OW17578   4.242   9.131   1.535  0.3874 -0.1441 -0.2053
66529SOL    HW117579   4.285   9.209   1.500  0.2750  0.7809  1.5770
66529SOL    HW217580   4.181   9.103   1.466 -0.8727  2.4246 -0.2502
66530SOL     OW17581  10.642   7.399   5.018  0.8084  0.3066  0.0641
66530SOL    HW117582  10.723   7.392   4.967  1.6433 -0.4153  1.4306
66530SOL    HW217583  10.581   7.444   4.960  2.4401  1.6269 -0.7012
66531SOL     OW17584  11.364   0.710   4.541 -0.1780  0.0461  0.0566
66531SOL    HW117585  11.355   0.637   4.602 -0.1771  1.4183  1.7508
66531SOL    HW217586  11.422   0.772   4.585  0.6805  0.6215 -1.8013
66532SOL     OW17587  10.659  12.334   6.518 -0.2766 -0.2974 -0.0159
66532SOL    HW117588  10.664  12.396   6.591  0.8416  0.3924 -0.6540
66532SOL    HW217589  10.629  12.252   6.558  2.4192 -0.5763  1.6341
66533SOL     OW17590   1.954   1.628  13.030  0.2552 -0.6004  0.1542
66533SOL    HW117591   1.963   1.721  13.050 -0.2734 -0.6621  0.7105
66533SOL    HW217592   2.041   1.591  13.048  0.3734 -0.2762  0.2593
66534SOL     OW17593   7.321  10.871   1.570 -0.1609 -0.3366  0.0672
66534SOL    HW117594   7.347  10.947   1.622 -2.0171  0.5386 -0.2172
66534SOL    HW217595   7.400  10.817   1.566  1.6123  2.1622 -0.8032
66535SOL     OW17596   4.221   9.978   9.879 -0.0321  0.0381  0.0899
66535SOL    HW117597   4.148   9.964   9.940 -0.5689  0.7764 -0.3759
66535SOL    HW217598   4.192   9.936   9.798 -0.8333  2.0652 -0.7241
66536SOL     OW17599   9.757   2.932  12.962 -0.1629 -0.0823 -0.2089
66536SOL    HW117600   9.822   2.971  12.904 -0.8991  0.3770 -0.7532
66536SOL    HW217601   9.698   3.004  12.983  0.7105  0.0448  2.0551
66537SOL     OW17602   8.309   2.440   9.041  0.3548  0.5341 -0.7841
66537SOL    HW117603   8.265   2.397   8.967  0.3612 -0.7190 -0.0975
66537SOL    HW217604   8.238   2.461   9.102  0.5374 -0.1536 -0.3241
66538SOL     OW17605   2.550   9.018   4.799  0.1380 -0.1818  0.2678
66538SOL    HW117606   2.456   9.039   4.796  0.1119 -0.4002 -0.9488
66538SOL    HW217607   2.576   9.041   4.888 -0.5704  2.0651 -0.0151
66539SOL     OW17608   6.816   6.953   8.659 -0.1749 -0.7296 -0.6853
66539SOL    HW117609   6.891   6.947   8.717 -0.1916 -1.9013 -0.7537
66539SOL    HW217610   6.743   6.914   8.708 -0.4683 -0.6443 -1.0405
66540SOL     OW17611   0.572   4.899  11.115  0.1648 -0.2903  0.0461
66540SOL    HW117612   0.490   4.856  11.139  0.6493 -1.2188  0.1125
66540SOL    HW217613   0.549   4.959  11.045 -0.3761 -1.4390 -0.7882
66541SOL     OW17614   5.740   7.433  12.742 -0.8187  0.3265  0.0310
66541SOL    HW117615   5.657   7.388  12.722 -0.8163  0.6937 -0.8808
66541SOL    HW217616   5.727   7.522  12.709  0.0994  0.2540 -0.5538
66542SOL     OW17617   6.045   9.588  12.731 -0.1193  0.5282  0.0463
66542SOL    HW117618   6.030   9.498  12.760 -0.9477  0.1248 -1.5819
66542SOL    HW217619   6.113   9.581  12.664 -0.5183  1.0546 -0.4233
66543SOL     OW17620   4.445   6.061   5.814 -0.1688  0.6003 -0.2111
66543SOL    HW117621   4.450   6.083   5.907  2.2776  0.9185 -0.3407
66543SOL    HW217622   4.528   6.016   5.797 -1.7381 -1.9350 -1.6620
66544SOL     OW17623   3.637   6.684   7.437 -0.0835 -0.3098  0.3345
66544SOL    HW117624   3.608   6.642   7.356  0.2215 -0.2784  0.2070
66544SOL    HW217625   3.558   6.724   7.473 -0.1197  0.1172 -0.2122
66545SOL     OW17626  12.712   5.675  12.083 -0.8843  0.1202 -0.7074
66545SOL    HW117627  12.729   5.733  12.009 -0.2841 -1.7307 -2.0809
66545SOL    HW217628  12.662   5.602  12.045  2.0703 -2.4359 -0.0209
66546SOL     OW17629   3.156   8.592  12.508 -0.2524 -0.1277 -0.7461
66546SOL    HW117630   3.101   8.581  12.430 -0.6664  0.9368 -0.6188
66546SOL    HW217631   3.146   8.509  12.555 -1.9374  0.0995 -0.6177
66547SOL     OW17632   2.105   2.643   6.429 -0.1481 -0.2272  0.2395
66547SOL    HW117633   2.057   2.612   6.505 -1.2667  0.4725 -0.1502
66547SOL    HW217634   2.072   2.590   6.356 -0.1804  0.1031  0.0091
66548SOL     OW17635  13.852  12.575   9.061 -0.1913 -0.2995 -0.1984
66548SOL    HW117636  13.906  12.528   9.125 -0.5923 -0.5931 -0.0731
66548SOL    HW217637  13.781  12.613   9.112  0.1040  0.4269 -0.3042
66549SOL     OW17638  11.534   0.374   8.906  0.5294  0.1968  0.0679
66549SOL    HW117639  11.473   0.407   8.839  0.5713  0.7750  0.3019
66549SOL    HW217640  11.611   0.347   8.858 -0.0999 -1.0191 -0.2874
66550SOL     OW17641   4.688  12.553  12.442 -0.0848 -0.0123 -0.3914
66550SOL    HW117642   4.624  12.544  12.371 -0.4783 -0.9370  0.0771
66550SOL    HW217643   4.657  12.629  12.492  0.2922  0.7609 -1.2808
66551SOL     OW17644   9.122   1.533   9.028  0.4272  0.1257  0.3536
66551SOL    HW117645   9.185   1.483   8.977  0.6449  0.0457  0.6920
66551SOL    HW217646   9.093   1.472   9.096 -1.0228 -0.2817 -0.5778
66552SOL     OW17647  12.445   2.364   9.394  0.2462  0.1288  0.3749
66552SOL    HW117648  12.506   2.353   9.321 -0.8080 -0.3871 -0.4584
66552SOL    HW217649  12.390   2.287   9.390  1.6104 -1.1230  3.1881
66553SOL     OW17650  12.163   1.445   7.884 -0.6435  0.2526  0.0627
66553SOL    HW117651  12.159   1.477   7.974 -0.6041  0.9834 -0.1887
66553SOL    HW217652  12.091   1.382   7.877 -0.4455 -0.0483  0.6950
66554SOL     OW17653   5.224   0.801   7.147 -0.2692  0.4996  0.1102
66554SOL    HW117654   5.311   0.773   7.117 -0.8849 -0.3432 -0.9863
66554SOL    HW217655   5.236   0.891   7.176  1.2169  0.0087  1.1405
66555SOL     OW17656   0.313   9.486  13.629 -0.1967 -0.1136  0.0494
66555SOL    HW117657   0.224   9.499  13.597 -0.4509 -0.4865  0.5846
66555SOL    HW217658   0.348   9.574  13.641 -0.7350  0.0419  0.4913
66556SOL     OW17659   4.824   2.974   7.660  0.0558  0.0997 -0.3324
66556SOL    HW117660   4.733   3.002   7.676  0.1908  0.7213 -0.6195
66556SOL    HW217661   4.871   3.055   7.641  0.9275 -0.0771  0.9729
66557SOL     OW17662   3.298   5.686   4.911 -0.3849 -0.3715 -0.5470
66557SOL    HW117663   3.234   5.755   4.930 -0.8126 -0.1701 -2.4982
66557SOL    HW217664   3.298   5.680   4.816  1.0662 -1.7594 -0.4873
66558SOL     OW17665  13.322   5.616   4.618  0.2778 -0.2399 -0.0494
66558SOL    HW117666  13.313   5.563   4.539  0.8977 -0.5945  0.1157
66558SOL    HW217667  13.232   5.629   4.648  0.1367 -1.5302  0.1237
66559SOL     OW17668  14.112   7.119   1.161 -0.2779  0.1759  0.0389
66559SOL    HW117669  14.093   7.073   1.243 -0.2059 -0.8438 -0.4923
66559SOL    HW217670  14.183   7.179   1.183 -0.2819 -0.0563  0.7294
66560SOL     OW17671   8.466  10.316  13.697 -0.2997 -0.5280  0.0723
66560SOL    HW117672   8.406  10.370  13.646  0.6682 -1.1225 -1.7560
66560SOL    HW217673   8.468  10.232  13.651  0.7683 -1.0238  0.9703
66561SOL     OW17674   0.274   6.217   4.495 -0.0782  0.0332 -0.4834
66561SOL    HW117675   0.264   6.304   4.534 -0.5742 -0.7523  1.1948
66561SOL    HW217676   0.240   6.227   4.406  0.7841  1.7917 -0.6497
66562SOL     OW17677   4.961  10.904   2.112 -0.7493 -0.3600  0.0470
66562SOL    HW117678   4.977  10.828   2.056 -0.3386  0.2042 -0.6149
66562SOL    HW217679   4.869  10.896   2.138 -0.9908 -0.5403 -0.8458
66563SOL     OW17680   3.444   2.626   0.321 -0.4288  0.5318 -0.2833
66563SOL    HW117681   3.394   2.601   0.243 -0.6995 -0.6399  0.2594
66563SOL    HW217682   3.395   2.592   0.395  0.5391  0.4232  0.3358
66564SOL     OW17683   2.080   1.410  11.345  0.2479 -0.0440 -0.3289
66564SOL    HW117684   2.038   1.476  11.289 -2.9280 -0.6148  1.1418
66564SOL    HW217685   2.100   1.338  11.286  1.9666  1.3596 -1.5984
66565SOL     OW17686  12.342   7.545   4.190  0.6010 -0.2666  0.5506
66565SOL    HW117687  12.357   7.477   4.255 -0.4320 -2.0937 -1.0336
66565SOL    HW217688  12.250   7.534   4.165  0.3880  1.7661  0.2711
66566SOL     OW17689   0.382   4.872   2.192 -0.4508 -0.3086 -0.5771
66566SOL    HW117690   0.463   4.919   2.176 -0.1193 -0.7003 -0.0769
66566SOL    HW217691   0.406   4.779   2.190 -0.1036 -0.4698  3.0834
66567SOL     OW17692   4.717   9.312   1.864 -0.8344 -0.6716 -0.0459
66567SOL    HW117693   4.742   9.401   1.837 -0.3140 -0.7774  0.0881
66567SOL    HW217694   4.657   9.325   1.937  0.6325 -0.4515  1.1668
66568SOL     OW17695  10.454  11.741  12.129 -0.2903  0.3144  0.0972
66568SOL    HW117696  10.364  11.730  12.162 -0.4767  0.5258 -0.3291
66568SOL    HW217697  10.489  11.814  12.180  0.1126 -0.6368  1.2171
66569SOL     OW17698   3.056   5.468   0.140  0.4233  0.0631  0.1169
66569SOL    HW117699   3.040   5.561   0.127  0.0976  0.1688  1.1819
66569SOL    HW217700   3.015   5.426   0.064 -2.8305  0.5130  1.4892
66570SOL     OW17701  11.267   1.448   9.197  0.1062  0.3652  0.1766
66570SOL    HW117702  11.345   1.503   9.189 -1.0763  2.2283  0.9285
66570SOL    HW217703  11.294   1.375   9.253  0.8266  1.9872  2.0303
66571SOL     OW17704  11.741   7.113   1.425 -0.0596  0.1951  0.1227
66571SOL    HW117705  11.721   7.053   1.353  1.2687  0.1426 -0.2276
66571SOL    HW217706  11.791   7.059   1.487 -0.4751  0.4544  0.6837
66572SOL     OW17707  13.194   8.811  10.212 -0.5778 -0.0866 -0.4548
66572SOL    HW117708  13.280   8.804  10.170  0.1741  0.1688  0.9810
66572SOL    HW217709  13.181   8.726  10.253 -1.4364 -0.4299 -1.3814
66573SOL     OW17710   4.535  10.227   5.131 -0.3821 -0.3157  0.1580
66573SOL    HW117711   4.556  10.210   5.039  0.4953  1.6745 -0.0554
66573SOL    HW217712   4.613  10.270   5.166 -0.6151 -1.2421  1.9153
66574SOL     OW17713   4.360  14.086  10.326  0.3665  0.0236  0.4281
66574SOL    HW117714   4.395  14.062  10.412 -0.0816 -2.3110  0.0361
66574SOL    HW217715   4.429  14.139  10.286 -0.2932  3.0855  2.9764
66575SOL     OW17716  12.458   6.438   8.794  0.4900 -0.4542 -0.2643
66575SOL    HW117717  12.368   6.468   8.785  0.1751 -1.7038 -1.8575
66575SOL    HW217718  12.464   6.407   8.884 -0.2996  0.7331  0.2164
66576SOL     OW17719   7.166  12.289   7.222  0.5877 -0.0304  0.2073
66576SOL    HW117720   7.088  12.312   7.173  1.4555  3.0418  0.0772
66576SOL    HW217721   7.239  12.313   7.164  1.6823 -2.2331  0.5657
66577SOL     OW17722   8.676   0.121   7.556  0.0399  0.3411 -0.5317
66577SOL    HW117723   8.698   0.189   7.619  0.8067 -0.3205 -0.0569
66577SOL    HW217724   8.580   0.125   7.548 -0.1651 -0.1291  1.3523
66578SOL     OW17725  10.414  12.061   3.700 -0.1429 -0.5611 -0.3496
66578SOL    HW117726  10.393  12.055   3.607 -1.2044 -0.4769 -0.1256
66578SOL    HW217727  10.479  11.993   3.714 -0.5478 -1.0938 -0.9961
66579SOL     OW17728   9.084   7.691  10.993 -0.2122  0.5075 -0.2167
66579SOL    HW117729   9.150   7.683  11.062 -0.7172 -1.2184  0.1119
66579SOL    HW217730   9.001   7.695  11.040 -0.4275  1.8654 -0.6616
66580SOL     OW17731  10.116   2.077   7.339  0.6561 -0.8217 -0.0575
66580SOL    HW117732  10.119   2.085   7.244 -1.1280  0.9610 -0.0366
66580SOL    HW217733  10.131   2.166   7.371 -0.7212 -0.9939  1.2108
66581SOL     OW17734   6.546   6.099  13.485 -0.4848 -0.1936 -0.3219
66581SOL    HW117735   6.453   6.078  13.491 -0.1155 -1.6625  0.8282
66581SOL    HW217736   6.565   6.152  13.562 -0.4032  0.2785 -0.6609
66582SOL     OW17737   5.794   2.609   9.376 -0.7333 -0.2162 -0.3511
66582SOL    HW117738   5.792   2.523   9.417 -1.3475 -0.1661 -0.2586
66582SOL    HW217739   5.719   2.655   9.414 -2.0649 -0.5847 -2.3966
66583SOL     OW17740  12.090   2.916  13.418 -0.5834 -0.0891  0.3479
66583SOL    HW117741  12.049   2.937  13.334 -0.1653 -1.1870 -0.1519
66583SOL    HW217742  12.176   2.958  13.414 -0.4458 -0.3924  0.0969
66584SOL     OW17743  13.320  13.566   2.175 -0.0549 -0.1222  0.0202
66584SOL    HW117744  13.388  13.633   2.185  1.0554 -0.9946 -1.3410
66584SOL    HW217745  13.368  13.485   2.157 -1.4130 -1.0743  0.4995
66585SOL     OW17746   7.512   0.541   0.517 -0.2539 -0.3148 -0.2319
66585SOL    HW117747   7.450   0.485   0.469 -0.8009 -3.0982  3.2781
66585SOL    HW217748   7.457   0.594   0.574  0.4647  1.4131 -1.0771
66586SOL     OW17749  10.781   9.550  11.552  0.4647 -0.4784  0.1352
66586SOL    HW117750  10.780   9.543  11.647 -1.9386 -2.6848  0.0607
66586SOL    HW217751  10.746   9.637  11.534  2.3296  0.5569  1.1919
66587SOL     OW17752   9.521   7.389  12.471 -0.5162  0.1673  0.2418
66587SOL    HW117753   9.589   7.422  12.530 -0.6679 -1.3841  1.3777
66587SOL    HW217754   9.568   7.360  12.393  0.0729 -0.2975  0.7583
66588SOL     OW17755   9.918   1.927   2.493 -0.2704  0.0398 -0.7121
66588SOL    HW117756   9.999   1.914   2.541 -1.6279 -2.6572  1.0584
66588SOL    HW217757   9.925   1.867   2.418 -0.7118 -0.3252 -0.4585
66589SOL     OW17758   4.592   7.797  10.906 -0.7492 -0.2648  0.1474
66589SOL    HW117759   4.687   7.791  10.893 -0.8110 -2.3988  0.1988
66589SOL    HW217760   4.555   7.780  10.820 -1.0778 -0.0158  0.2406
66590SOL     OW17761  10.021   6.020   5.040  0.0883  0.3018  0.1491
66590SOL    HW117762   9.933   5.983   5.042 -0.4529  1.3971 -1.2919
66590SOL    HW217763  10.078   5.950   5.073 -1.1522 -0.9392 -0.2489
66591SOL     OW17764  10.283   8.302   9.261 -0.0925 -0.1476 -0.2045
66591SOL    HW117765  10.367   8.260   9.278 -0.9554 -1.3477  1.3766
66591SOL    HW217766  10.232   8.287   9.341 -2.2976 -0.6847 -1.6342
66592SOL     OW17767   5.763  13.316  12.962  0.0667 -0.2113  0.3546
66592SOL    HW117768   5.824  13.347  12.895 -0.3984 -0.8162 -0.3685
66592SOL    HW217769   5.760  13.387  13.027  0.8786  0.1841 -0.0273
66593SOL     OW17770  12.509   2.623  10.703 -0.3677  0.3140 -0.2941
66593SOL    HW117771  12.527   2.628  10.610  1.4062  0.0645 -0.0110
66593SOL    HW217772  12.455   2.545  10.714 -1.3339  0.8382 -1.1866
66594SOL     OW17773   4.316   2.974   8.207  0.4290 -0.2283 -0.4518
66594SOL    HW117774   4.272   2.952   8.125  0.2788 -4.3998  0.5681
66594SOL    HW217775   4.409   2.958   8.190  0.6295  0.6113 -0.2309
66595SOL     OW17776   6.503  10.823  11.663  0.0651 -0.3093  0.0301
66595SOL    HW117777   6.465  10.825  11.575 -0.4107  1.0760  0.2483
66595SOL    HW217778   6.595  10.845  11.650  0.2699 -1.2545 -0.2296
66596SOL     OW17779   4.215  10.083   2.317  0.4002 -0.0793 -0.0606
66596SOL    HW117780   4.265  10.166   2.318  0.6839 -0.1679 -2.0337
66596SOL    HW217781   4.145  10.097   2.380  0.6590  1.5410 -0.0713
66597SOL     OW17782   8.667   4.708  11.477 -0.0145  0.2583  0.0880
66597SOL    HW117783   8.581   4.726  11.440 -0.8518 -1.2167  1.2371
66597SOL    HW217784   8.713   4.792  11.472 -1.7709  1.2613  0.1167
66598SOL     OW17785   8.084  12.455   8.080 -0.2148  0.2412  0.2493
66598SOL    HW117786   8.106  12.475   7.989  2.2640  1.1475  0.9599
66598SOL    HW217787   8.106  12.535   8.128 -2.8433  0.3130  1.5324
66599SOL     OW17788  13.857   3.381  10.362  0.1708  0.2343  0.0478
66599SOL    HW117789  13.941   3.374  10.316 -0.0367  0.7227 -0.4227
66599SOL    HW217790  13.795   3.404  10.293 -0.5097 -0.9504  0.2396
66600SOL     OW17791   6.643   4.783  12.388  0.5047 -0.0873 -0.2661
66600SOL    HW117792   6.734   4.794  12.417 -0.2268 -0.7625  2.5890
66600SOL    HW217793   6.620   4.695  12.416 -0.8765 -0.1457 -1.4915
66601SOL     OW17794   7.695   8.522   2.703  0.1145 -0.3006  0.1477
66601SOL    HW117795   7.787   8.531   2.729  0.0426 -0.6175  0.5215
66601SOL    HW217796   7.662   8.612   2.704 -0.4424 -0.4316  3.2838
66602SOL     OW17797   5.808   8.640   3.704  0.0295 -0.1363  0.2195
66602SOL    HW117798   5.796   8.728   3.742 -0.2601  0.1837 -0.5926
66602SOL    HW217799   5.903   8.630   3.697  0.0532  0.4456 -0.4167
66603SOL     OW17800   3.906   6.993   0.462 -0.1373  0.0554 -0.0626
66603SOL    HW117801   3.840   7.061   0.477 -0.9366 -0.8693  0.7517
66603SOL    HW217802   3.861   6.911   0.482  0.6067 -0.7888 -1.6813
66604SOL     OW17803  10.590  11.854   3.750 -0.2124 -0.4345 -0.2228
66604SOL    HW117804  10.598  11.773   3.800  0.8474 -1.0948 -1.3955
66604SOL    HW217805  10.666  11.906   3.776  0.2016 -0.6736 -0.9202
66605SOL     OW17806  10.807  10.168   2.625  0.2329  0.1934  0.7725
66605SOL    HW117807  10.721  10.136   2.598 -0.9668  3.0177  0.8366
66605SOL    HW217808  10.789  10.225   2.700  1.4101  4.1568 -1.6414
66606SOL     OW17809   9.461   6.969   1.843 -0.3922 -0.5217  0.2354
66606SOL    HW117810   9.460   6.896   1.905 -1.5994 -0.4244  0.3510
66606SOL    HW217811   9.521   7.033   1.882  0.0487 -1.0998  0.5300
66607SOL     OW17812   0.530   0.564   3.903 -0.3440  0.0386  0.0739
66607SOL    HW117813   0.605   0.516   3.937  0.4955  0.2634 -1.3477
66607SOL    HW217814   0.454   0.526   3.948  0.6057 -0.2377  1.4849
66608SOL     OW17815   9.106   4.768   5.808 -0.0812 -0.3103  0.7037
66608SOL    HW117816   9.182   4.790   5.861  1.2748 -0.3830 -1.0983
66608SOL    HW217817   9.131   4.686   5.764 -2.5737 -2.2519  2.5818
66609SOL     OW17818   2.856   1.437   7.731 -0.0902  0.4880  0.2149
66609SOL    HW117819   2.822   1.476   7.650 -0.3824  0.7444  0.4552
66609SOL    HW217820   2.950   1.427   7.716 -0.2220  0.0617 -0.3444
66610SOL     OW17821  10.713  11.323  13.833 -0.0018  0.0644 -0.2059
66610SOL    HW117822  10.685  11.238  13.867  0.0147  0.1610  0.0480
66610SOL    HW217823  10.700  11.384  13.906  1.4548  0.0056  0.1369
66611SOL     OW17824   1.646  13.064  12.152  0.0725  0.1191 -0.0686
66611SOL    HW117825   1.672  13.073  12.061 -0.3109 -0.1996 -0.2128
66611SOL    HW217826   1.597  13.144  12.171  0.3379  0.2854 -0.0760
66612SOL     OW17827   4.898   7.264   8.470 -0.3500 -0.2924  0.1615
66612SOL    HW117828   4.991   7.267   8.445 -0.3606 -0.5889  0.0839
66612SOL    HW217829   4.880   7.171   8.481 -1.1297 -0.3919 -1.6763
66613SOL     OW17830  10.342   7.311  10.471  1.1580  0.2677  0.4806
66613SOL    HW117831  10.290   7.230  10.466 -0.4185  1.1391  1.7676
66613SOL    HW217832  10.315   7.361  10.394  0.9402  0.2500  0.5458
66614SOL     OW17833   6.568   3.075   2.266  0.5800  0.0149 -0.2967
66614SOL    HW117834   6.606   3.123   2.340  0.5725  1.3100 -1.0933
66614SOL    HW217835   6.641   3.065   2.205  0.2728  0.1658 -0.6926
66615SOL     OW17836  12.558   2.303  13.048  0.1737 -0.0630 -0.6331
66615SOL    HW117837  12.612   2.344  12.981 -0.6391  0.9730 -0.6737
66615SOL    HW217838  12.508   2.236  13.000 -3.1087  3.0073 -1.9669
66616SOL     OW17839   6.567   9.344  11.657 -0.4028 -0.0151 -0.1946
66616SOL    HW117840   6.520   9.418  11.616 -0.8043 -0.7568 -1.1160
66616SOL    HW217841   6.499   9.279  11.673 -0.1317 -0.0089  1.0735
66617SOL     OW17842   0.740   6.723  13.699 -0.1718  0.1422 -0.4108
66617SOL    HW117843   0.695   6.729  13.615  0.6061  1.0350 -0.7865
66617SOL    HW217844   0.780   6.636  13.699  1.5242  0.8657 -1.8830
66618SOL     OW17845   6.745  13.321   8.348 -0.3332 -0.6065  0.6015
66618SOL    HW117846   6.732  13.229   8.327 -0.1298 -0.5459  0.1881
66618SOL    HW217847   6.706  13.332   8.435 -1.8290 -0.7136 -0.0251
66619SOL     OW17848   3.323   7.047   9.554 -0.0685  0.3885 -0.4718
66619SOL    HW117849   3.384   7.116   9.578  1.3940 -1.4191  1.3503
66619SOL    HW217850   3.236   7.087   9.565  0.7069  1.7108  1.3957
66620SOL     OW17851   8.926   4.120  10.214 -0.0928  0.5163 -0.4977
66620SOL    HW117852   8.878   4.042  10.241  1.4916 -0.3511 -0.0703
66620SOL    HW217853   8.881   4.150  10.135 -0.4328 -1.1041 -0.9490
66621SOL     OW17854  11.009   9.305   4.341 -0.1364  0.6786  0.2909
66621SOL    HW117855  11.063   9.249   4.285 -0.6233  0.6252 -0.1291
66621SOL    HW217856  11.059   9.313   4.422  0.6980  0.9678 -0.2467
66622SOL     OW17857   6.870  13.696   2.499  0.3936 -0.2529 -0.2402
66622SOL    HW117858   6.908  13.619   2.543 -1.1813 -0.9946 -0.1274
66622SOL    HW217859   6.836  13.661   2.416  0.0866  0.4295 -0.4017
66623SOL     OW17860   9.532   5.161   5.751 -0.1122 -0.1806  0.0531
66623SOL    HW117861   9.455   5.106   5.762 -0.1659 -0.7538 -2.7109
66623SOL    HW217862   9.593   5.130   5.818 -2.1494  0.2135  2.2397
66624SOL     OW17863   1.924   9.237   1.479  0.2107  0.6419 -0.3455
66624SOL    HW117864   1.863   9.303   1.447  0.0550  1.2765  1.1776
66624SOL    HW217865   2.004   9.252   1.428 -0.3553  0.9092 -1.1740
66625SOL     OW17866   1.249  12.774   8.169  0.2920  0.0309 -0.5545
66625SOL    HW117867   1.295  12.718   8.106  0.7623 -1.0218  0.6720
66625SOL    HW217868   1.176  12.720   8.200 -2.1533  1.8347 -2.7956
66626SOL     OW17869   2.538  13.637  12.949  0.2209  0.2609 -0.0249
66626SOL    HW117870   2.621  13.664  12.909  0.6584 -0.2467  0.5113
66626SOL    HW217871   2.540  13.541  12.945 -0.0113  0.2240  0.6493
66627SOL     OW17872  10.132   0.850   3.125  0.1104  0.2151 -0.7197
66627SOL    HW117873  10.079   0.837   3.203 -0.7910  0.7115 -1.2340
66627SOL    HW217874  10.069   0.870   3.056  0.6347 -2.7316 -2.1962
66628SOL     OW17875  10.317  11.602   2.287  0.6601 -0.0774  0.3279
66628SOL    HW117876  10.307  11.520   2.239  1.9932 -0.5624  0.8517
66628SOL    HW217877  10.304  11.670   2.220 -0.0136 -0.7026 -0.1955
66629SOL     OW17878  11.553   4.938   5.180  0.5061  0.8095 -0.5926
66629SOL    HW117879  11.623   4.880   5.150  1.3230  1.0839  0.7000
66629SOL    HW217880  11.503   4.958   5.101  1.4694  0.0540 -1.4254
66630SOL     OW17881  11.504   5.651   6.925  0.2691 -0.2985  0.3710
66630SOL    HW117882  11.498   5.583   6.858  0.8613  0.7175 -0.7715
66630SOL    HW217883  11.598   5.665   6.936  0.1554  0.3599  0.5512
66631SOL     OW17884   7.088  13.095  10.645  0.3554 -0.2358  0.1032
66631SOL    HW117885   7.176  13.101  10.683  0.6334  1.5019 -0.7069
66631SOL    HW217886   7.041  13.034  10.702  0.9841  1.6003  2.7540
66632SOL     OW17887   5.741  10.066  13.639  0.4798  0.0510  0.1530
66632SOL    HW117888   5.656  10.051  13.682  0.8195 -0.2010  0.7481
66632SOL    HW217889   5.788   9.984  13.651  0.4204 -0.1823 -1.1046
66633SOL     OW17890   6.571   4.093  11.203  0.0020 -0.0710  0.1366
66633SOL    HW117891   6.643   4.031  11.190  0.0544  0.0512 -0.1699
66633SOL    HW217892   6.592   4.137  11.286  0.0443 -0.3550  0.2752
66634SOL     OW17893   5.715  11.448  12.326  0.1361 -0.2160  0.2540
66634SOL    HW117894   5.770  11.370  12.325  1.8265  0.9148 -1.1914
66634SOL    HW217895   5.764  11.511  12.379 -0.6327  0.2560  0.4193
66635SOL     OW17896   4.003  11.756   8.877 -0.1990 -0.6513  1.0595
66635SOL    HW117897   3.941  11.709   8.933  0.4329  0.6432  2.9498
66635SOL    HW217898   3.960  11.839   8.858 -0.1680 -0.8553  0.0457
66636SOL     OW17899   6.668   2.652  11.066  0.5265  0.2118 -0.2454
66636SOL    HW117900   6.704   2.605  10.991  0.1202  0.9566 -0.9236
66636SOL    HW217901   6.730   2.722  11.084  0.8449 -0.2179  0.4111
66637SOL     OW17902   3.129   6.467   0.271 -0.5842 -0.0685 -0.3265
66637SOL    HW117903   3.142   6.377   0.239  0.5743 -0.4965  1.2675
66637SOL    HW217904   3.159   6.522   0.199 -2.3214 -0.8942 -1.7691
66638SOL     OW17905   0.716   8.714   7.267  0.3253 -0.3723 -0.4879
66638SOL    HW117906   0.657   8.647   7.301  0.2267  1.6361  3.9605
66638SOL    HW217907   0.803   8.689   7.299  0.3548  1.2424  0.8668
66639SOL     OW17908  10.327   0.774   4.370 -0.0957  0.2848 -0.2228
66639SOL    HW117909  10.243   0.729   4.383  0.0805  0.7095  3.1742
66639SOL    HW217910  10.315   0.859   4.412  0.6312  2.3387 -3.7328
66640SOL     OW17911   9.593   3.180   4.975 -0.1256  0.2365  0.6578
66640SOL    HW117912   9.558   3.176   4.886  0.2684  1.9522  0.3870
66640SOL    HW217913   9.640   3.097   4.986 -1.7297 -0.8217 -0.0251
66641SOL     OW17914   2.681   1.221   0.447  0.0929  0.1518  0.5868
66641SOL    HW117915   2.717   1.290   0.502 -1.2473 -0.5749  2.4837
66641SOL    HW217916   2.594   1.252   0.424  0.9685  0.8958 -2.0775
66642SOL     OW17917   1.725  12.361   6.806 -0.5033  0.0108 -0.3418
66642SOL    HW117918   1.712  12.270   6.833 -0.2204 -0.5169 -1.8801
66642SOL    HW217919   1.637  12.394   6.791 -0.5595 -0.7588 -1.9943
66643SOL     OW17920   8.132   6.227   8.912 -0.0268  0.8434  0.4443
66643SOL    HW117921   8.175   6.253   8.831 -0.5858 -1.6057 -0.7255
66643SOL    HW217922   8.202   6.184   8.963 -0.4291 -0.7743 -0.3152
66644SOL     OW17923   4.949   5.715  13.077 -0.2101  0.0951  0.4773
66644SOL    HW117924   4.917   5.637  13.032 -1.0065  0.8093 -0.2184
66644SOL    HW217925   4.958   5.688  13.169  2.7209 -1.7852 -0.2310
66645SOL     OW17926  10.946   5.607   0.285 -0.0918 -0.1073 -0.7965
66645SOL    HW117927  10.937   5.528   0.231 -1.7705  1.0174 -2.2439
66645SOL    HW217928  11.006   5.663   0.236 -0.3354  0.2540 -0.6830
66646SOL     OW17929  10.781   1.265  11.732 -0.5656  0.3713 -0.0948
66646SOL    HW117930  10.686   1.258  11.724 -0.4290 -0.1831 -1.7562
66646SOL    HW217931  10.815   1.213  11.659  1.0821 -1.5275  1.8812
66647SOL     OW17932   4.091   3.114   7.893  0.2910 -0.0325  0.3564
66647SOL    HW117933   4.171   3.165   7.895  0.4791 -0.1594 -1.5651
66647SOL    HW217934   4.120   3.024   7.911  0.7299 -0.1920 -1.0055
66648SOL     OW17935   0.005   8.921   4.708 -0.0369  0.0622  0.5610
66648SOL    HW117936  -0.050   8.986   4.665 -1.9049 -0.3628  2.1495
66648SOL    HW217937   0.079   8.908   4.649 -1.8277  0.4045 -1.8826
66649SOL     OW17938  11.178  12.650   7.624 -0.1153  0.1935  0.0083
66649SOL    HW117939  11.171  12.606   7.709  1.7398 -0.1921 -0.0065
66649SOL    HW217940  11.176  12.579   7.560  0.4389  0.3230 -0.1556
66650SOL     OW17941   1.540  13.204   9.785  0.0970 -0.6294 -0.2431
66650SOL    HW117942   1.510  13.262   9.715 -1.0068  0.3023  0.9380
66650SOL    HW217943   1.485  13.126   9.776  0.5467 -0.8755 -0.9200
66651SOL     OW17944   5.558   2.775   9.833  0.1681  0.4050 -0.3819
66651SOL    HW117945   5.559   2.868   9.855  2.6870  0.1622  0.8353
66651SOL    HW217946   5.475   2.744   9.870  0.0033  1.8761  0.5902
66652SOL     OW17947   9.861   1.510   8.825  0.2472  0.2285 -0.5857
66652SOL    HW117948   9.795   1.486   8.890  1.0863 -0.8648 -0.0941
66652SOL    HW217949   9.815   1.511   8.742  0.0258 -2.9172 -0.6189
66653SOL     OW17950   3.231  12.701   4.770 -0.2334  0.3190  0.3649
66653SOL    HW117951   3.208  12.736   4.684  1.0003 -0.7420 -0.4224
66653SOL    HW217952   3.318  12.663   4.758 -0.7482 -1.3641  1.6419
66654SOL     OW17953   9.675  13.281  10.340 -0.0271  0.1969 -0.5464
66654SOL    HW117954   9.704  13.275  10.249  1.3957  0.9507 -0.1722
66654SOL    HW217955   9.707  13.366  10.370 -0.7487  0.0974  0.5736
66655SOL     OW17956   3.892   5.134   2.201 -0.4261 -0.0270  0.4838
66655SOL    HW117957   3.854   5.168   2.120 -0.2970  0.8864  0.7978
66655SOL    HW217958   3.983   5.115   2.179 -0.8455 -1.5755 -0.0834
66656SOL     OW17959   7.166   8.275   1.135 -0.0152 -0.0892  0.1774
66656SOL    HW117960   7.250   8.299   1.175  0.2919 -0.0564 -0.4815
66656SOL    HW217961   7.181   8.190   1.095 -0.1396  0.1465 -0.3894
66657SOL     OW17962   6.448   9.664  12.371 -0.0672 -0.1092  0.1385
66657SOL    HW117963   6.357   9.649  12.397 -0.4175  0.4006 -0.7670
66657SOL    HW217964   6.456   9.621  12.286  0.3330  0.4691 -0.1203
66658SOL     OW17965  12.784   6.221   3.966  0.4836  0.2716 -0.1274
66658SOL    HW117966  12.780   6.185   3.877 -0.7595  1.1617 -0.4690
66658SOL    HW217967  12.865   6.186   4.003 -0.3350 -2.4073 -0.6090
66659SOL     OW17968   1.955   4.849   6.322 -0.2334  0.3948  0.6105
66659SOL    HW117969   1.950   4.754   6.311  0.8502  0.1674  1.8442
66659SOL    HW217970   2.029   4.875   6.268 -0.1257  0.4489  0.7846
66660SOL     OW17971   9.676   5.427   6.907  0.2358 -0.4751  0.5213
66660SOL    HW117972   9.616   5.499   6.888  0.0588 -0.7347  0.0777
66660SOL    HW217973   9.756   5.450   6.861 -0.5005 -1.5679 -1.4292
66661SOL     OW17974  10.710   5.269   1.694 -0.1456  0.0094  0.1323
66661SOL    HW117975  10.713   5.317   1.611  0.7060  0.1279  0.2226
66661SOL    HW217976  10.655   5.323   1.751 -1.4514 -0.4862 -0.5913
66662SOL     OW17977   3.101  11.450   6.754  0.4116  0.4542  0.1386
66662SOL    HW117978   3.181  11.397   6.746  0.0887 -0.1847  0.9756
66662SOL    HW217979   3.066  11.454   6.665  1.0388  0.2130 -0.1274
66663SOL     OW17980  11.996  13.096   3.012 -0.3686 -0.6597  0.0123
66663SOL    HW117981  12.026  13.175   2.969  1.1774 -1.4523 -0.4356
66663SOL    HW217982  11.916  13.072   2.965 -1.5283  1.2254  0.9113
66664SOL     OW17983  10.175  13.569   3.240  0.1550 -0.2846  0.3911
66664SOL    HW117984  10.240  13.599   3.305  0.2466  1.7151 -0.5191
66664SOL    HW217985  10.200  13.616   3.159 -0.7077 -1.7269 -0.7523
66665SOL     OW17986  12.354  12.313  11.216  0.4628  0.0049 -0.3715
66665SOL    HW117987  12.345  12.221  11.188 -0.6027  0.6249 -2.2334
66665SOL    HW217988  12.293  12.361  11.160 -0.0619  1.7032  1.5184
66666SOL     OW17989   8.839  13.631   1.963 -0.1905 -0.1538  0.1787
66666SOL    HW117990   8.907  13.690   1.930 -0.6179  0.3808  0.2323
66666SOL    HW217991   8.847  13.638   2.058 -1.0617  0.7990  0.1937
66667SOL     OW17992   0.777   7.134  12.250  0.4527 -0.1616 -0.8758
66667SOL    HW117993   0.865   7.101  12.234  1.0627  1.2613 -0.4987
66667SOL    HW217994   0.787   7.204  12.313 -1.1850 -1.2154  0.6728
66668SOL     OW17995   1.551  12.548   3.171 -0.6635  0.4371 -0.3031
66668SOL    HW117996   1.625  12.572   3.227 -1.1157 -0.6335  0.8324
66668SOL    HW217997   1.496  12.626   3.169 -0.4063  0.6503  0.3928
66669SOL     OW17998   2.709   3.490  10.134  0.2345  0.3143  0.3525
66669SOL    HW117999   2.729   3.491  10.227 -0.2793 -0.2416  0.4769
66669SOL    HW218000   2.615   3.472  10.129  0.2757  0.2257 -0.2720
66670SOL     OW18001   0.479   8.865   3.450  0.6448  0.4601 -0.1775
66670SOL    HW118002   0.557   8.823   3.413  0.2696 -0.7316  0.3367
66670SOL    HW218003   0.508   8.954   3.471  2.0327 -0.1345  0.5440
66671SOL     OW18004   3.922  10.198   3.937 -0.2251 -0.1800  0.0893
66671SOL    HW118005   3.947  10.215   4.028  0.5625  1.2126 -0.3747
66671SOL    HW218006   3.826  10.202   3.938 -0.2276 -0.2824  0.8744
66672SOL     OW18007   2.337  12.041   8.041  0.3385  0.3319 -0.4966
66672SOL    HW118008   2.370  12.040   8.131  0.1218  0.4006 -0.4148
66672SOL    HW218009   2.262  11.982   8.043  0.9711 -0.5069 -0.8830
66673SOL     OW18010  10.289   4.363   4.313 -0.1215  0.1014  0.1268
66673SOL    HW118011  10.208   4.365   4.363 -0.1771  1.1161  0.0081
66673SOL    HW218012  10.265   4.327   4.228 -0.4642  0.4485  0.0746
66674SOL     OW18013  11.630   4.897  14.058  0.1763 -0.2914  0.1923
66674SOL    HW118014  11.706   4.944  14.093  1.3558 -2.1240  0.2204
66674SOL    HW218015  11.577   4.877  14.135  0.9448 -1.1476  0.5244
66675SOL     OW18016   6.036  12.881   4.820  0.1975 -0.1969  0.1260
66675SOL    HW118017   6.130  12.902   4.824  0.5072 -1.4542  0.0911
66675SOL    HW218018   6.031  12.792   4.855 -0.5815 -1.2416 -2.3920
66676SOL     OW18019   1.900   5.514   8.319  0.2376  0.4001 -0.2046
66676SOL    HW118020   1.806   5.499   8.318  0.0571  1.5192 -0.6326
66676SOL    HW218021   1.934   5.447   8.379 -0.6974 -0.6479 -0.8102
66677SOL     OW18022  11.969   2.415  13.582  0.8460 -0.2487  0.3387
66677SOL    HW118023  12.011   2.487  13.535  1.1660 -1.1584 -0.8266
66677SOL    HW218024  11.904   2.457  13.638 -0.3432  0.8415 -1.7467
66678SOL     OW18025  12.801  12.701   6.942 -0.2023  0.3054 -0.3823
66678SOL    HW118026  12.834  12.780   6.985 -0.3631  1.3310 -2.0653
66678SOL    HW218027  12.823  12.713   6.850  1.9516 -2.7232 -0.4348
66679SOL     OW18028   2.360  12.461   2.839 -0.0771 -0.2648 -0.1708
66679SOL    HW118029   2.281  12.430   2.795 -1.5433  2.3097  0.4447
66679SOL    HW218030   2.380  12.544   2.796  1.9214 -0.5369  0.1579
66680SOL     OW18031   7.435   0.161   1.165 -0.2841  0.2104 -0.0387
66680SOL    HW118032   7.459   0.095   1.229 -1.3023 -0.6426 -0.5009
66680SOL    HW218033   7.444   0.244   1.211 -1.1481 -0.3874  1.2730
66681SOL     OW18034  10.210  11.849   2.133  0.4487  0.3118 -0.0482
66681SOL    HW118035  10.298  11.886   2.131  0.4577  0.2867 -2.0671
66681SOL    HW218036  10.210  11.784   2.063 -1.7496  1.7509 -1.5066
66682SOL     OW18037   9.687   2.376  10.183 -0.1260 -0.1664 -0.3190
66682SOL    HW118038   9.710   2.290  10.218  2.9507  0.6521 -0.0846
66682SOL    HW218039   9.629   2.356  10.108 -0.9097 -2.2844  0.7578
66683SOL     OW18040  11.236   9.625  10.931  0.2551 -0.1406  0.6344
66683SOL    HW118041  11.153   9.673  10.936  0.6664  0.7049 -0.3965
66683SOL    HW218042  11.223   9.563  10.860  0.2064 -0.6364  1.0666
66684SOL     OW18043   1.609  12.386  10.179  0.0709  0.0354  0.0079
66684SOL    HW118044   1.562  12.310  10.145  0.8135 -0.6525  0.4895
66684SOL    HW218045   1.691  12.389  10.130  0.1826  0.3455  0.2036
66685SOL     OW18046   1.874   5.501  12.000 -0.3252  0.1778  0.5060
66685SOL    HW118047   1.804   5.437  12.013 -0.3448  0.2831  0.9690
66685SOL    HW218048   1.955   5.453  12.018 -0.2661  0.0138 -0.1944
66686SOL     OW18049  10.842   7.875   0.796 -0.0904 -0.0642 -1.0622
66686SOL    HW118050  10.911   7.941   0.805 -1.5877  1.3564  0.5490
66686SOL    HW218051  10.888   7.791   0.809  1.2858  0.8482  0.3338
66687SOL     OW18052   0.450   2.505  10.322 -0.1289 -0.2574  0.6015
66687SOL    HW118053   0.428   2.567  10.252 -0.5288  0.2195  1.1391
66687SOL    HW218054   0.496   2.558  10.387 -1.9359 -0.1200  1.8509
66688SOL     OW18055   2.376  13.169  11.054  0.0654  0.2042  0.5387
66688SOL    HW118056   2.420  13.119  11.123 -1.9325 -1.4442  0.6933
66688SOL    HW218057   2.352  13.104  10.989 -0.5779  1.3281 -0.3732
66689SOL     OW18058  13.270  13.877  11.017 -0.0257  0.5419  0.3033
66689SOL    HW118059  13.317  13.853  11.096  0.3613  1.3868  0.3431
66689SOL    HW218060  13.179  13.888  11.046 -0.0820 -0.1895  0.4113
66690SOL     OW18061   2.672   1.333  12.193  0.4218 -0.4467 -0.6075
66690SOL    HW118062   2.684   1.245  12.229  2.9551  0.1802  0.3415
66690SOL    HW218063   2.758   1.354  12.155 -0.2312  1.4956 -1.0859
66691SOL     OW18064   0.020   5.111   2.204 -0.1134 -0.2794  0.5812
66691SOL    HW118065   0.081   5.149   2.267  0.8786 -0.2089 -0.3906
66691SOL    HW218066  -0.054   5.082   2.257 -0.0042  1.1767  1.5890
66692SOL     OW18067   9.889  12.172  13.768 -0.3710  0.1785 -0.3749
66692SOL    HW118068   9.984  12.166  13.776 -0.2990  1.1419 -0.3451
66692SOL    HW218069   9.872  12.172  13.674 -0.3002  0.4122 -0.3904
66693SOL     OW18070  11.299   7.711   1.853  0.4188  0.2918 -0.3325
66693SOL    HW118071  11.291   7.633   1.797 -1.0712  1.3011 -1.6089
66693SOL    HW218072  11.383   7.700   1.897  1.1204 -1.1190 -1.9141
66694SOL     OW18073   7.772   0.695  13.464 -0.0648  0.1250  0.3446
66694SOL    HW118074   7.739   0.712  13.376 -1.1299  0.2471  0.7580
66694SOL    HW218075   7.714   0.744  13.522  1.8097  1.6970  1.0193
66695SOL     OW18076   9.587  12.123   8.299  0.3243 -0.8494 -0.0408
66695SOL    HW118077   9.530  12.200   8.295  1.4496  0.0480  0.5886
66695SOL    HW218078   9.545  12.059   8.242 -0.9406  0.0300 -0.1279
66696SOL     OW18079  10.706  10.401   6.281 -0.3541 -0.3776  0.3060
66696SOL    HW118080  10.656  10.353   6.347  0.2343 -1.0387  0.2789
66696SOL    HW218081  10.783  10.346   6.264 -0.4324 -0.1527 -0.8330
66697SOL     OW18082   9.817   9.901   2.691  0.0533  0.0618 -0.0818
66697SOL    HW118083   9.773   9.818   2.669 -0.0384 -0.1434  0.8220
66697SOL    HW218084   9.908   9.876   2.703  0.3455  0.4039 -1.4806
66698SOL     OW18085  10.945   2.308   9.694  0.7074  0.3757  0.0770
66698SOL    HW118086  10.870   2.340   9.643  0.5789  0.8288  0.5257
66698SOL    HW218087  10.976   2.231   9.648 -0.4048 -0.1626  0.1916
66699SOL     OW18088   6.560  10.229  12.437 -0.5496 -0.4578 -0.4283
66699SOL    HW118089   6.477  10.181  12.435  1.3263 -4.0298 -2.0627
66699SOL    HW218090   6.587  10.234  12.346  2.0325 -1.4666  0.1934
66700SOL     OW18091   4.390   6.620  10.749  0.1653  0.3877  0.1235
66700SOL    HW118092   4.456   6.656  10.808 -1.6059 -0.1689  2.6231
66700SOL    HW218093   4.394   6.525  10.765  0.6366  0.0457 -1.8158
66701SOL     OW18094  13.938   9.910   7.218  0.4269 -0.3716  0.1734
66701SOL    HW118095  13.971   9.844   7.158 -2.1864 -1.2902 -0.3730
66701SOL    HW218096  13.879   9.963   7.165  0.6948  0.9682  1.1603
66702SOL     OW18097  13.072   1.830   5.097  0.4516 -0.5102  0.0580
66702SOL    HW118098  13.040   1.877   5.020  3.6315 -0.3937 -1.3399
66702SOL    HW218099  13.056   1.889   5.170  0.6916  1.0157 -1.0808
66703SOL     OW18100   4.233  13.346   1.964  0.0847 -0.0256  0.1714
66703SOL    HW118101   4.304  13.316   2.022  0.0165 -0.2856  0.1196
66703SOL    HW218102   4.174  13.394   2.023 -0.3625 -0.9122  0.4619
66704SOL     OW18103  10.206   3.182   2.810  0.9438  0.9907 -0.4280
66704SOL    HW118104  10.166   3.112   2.861  1.4234  1.2939  0.3882
66704SOL    HW218105  10.156   3.184   2.728  0.1844  0.4709  0.0125
66705SOL     OW18106   7.408   3.513   3.474 -0.7806  0.8313  0.0666
66705SOL    HW118107   7.371   3.474   3.395 -3.9730  0.3903  1.6155
66705SOL    HW218108   7.414   3.607   3.454 -1.6004  0.7358 -0.6954
66706SOL     OW18109   4.087  13.612   8.659  0.4259  0.2654  0.3039
66706SOL    HW118110   4.166  13.619   8.713  1.7221 -0.5198 -1.3709
66706SOL    HW218111   4.061  13.702   8.642  2.3684  0.6660 -0.9659
66707SOL     OW18112   0.802  13.689   5.954 -0.6262  0.8636  0.0664
66707SOL    HW118113   0.839  13.773   5.979 -0.3467  1.0859 -1.0183
66707SOL    HW218114   0.713  13.710   5.924 -0.4398  0.8329 -0.5245
66708SOL     OW18115   1.775  11.473   0.426 -0.4277  0.4019 -0.1075
66708SOL    HW118116   1.702  11.514   0.472 -0.1367  2.2045 -1.1921
66708SOL    HW218117   1.812  11.412   0.491 -0.5724  2.1923  1.7802
66709SOL     OW18118   1.795   0.976   2.931 -0.1261  0.2738  0.1614
66709SOL    HW118119   1.822   0.905   2.989 -0.7523 -0.1482 -0.0513
66709SOL    HW218120   1.700   0.980   2.940  0.0003  1.7794  0.9437
66710SOL     OW18121  11.845   2.634   4.101 -0.2050 -0.0896  0.3875
66710SOL    HW118122  11.842   2.706   4.164 -2.6587 -0.2885  0.6027
66710SOL    HW218123  11.777   2.655   4.037  0.9632 -0.8384 -1.1896
66711SOL     OW18124   3.414   6.939   2.385  0.6844  0.7028 -0.1884
66711SOL    HW118125   3.484   6.892   2.431 -0.1453 -1.3964 -0.9694
66711SOL    HW218126   3.355   6.870   2.354 -1.0580  2.3355 -0.6703
66712SOL     OW18127   4.339  10.586  14.071 -0.0813  0.0948  0.0529
66712SOL    HW118128   4.323  10.506  14.123 -0.7341 -0.4109 -0.8972
66712SOL    HW218129   4.434  10.585  14.056 -0.1295 -0.7323 -0.2884
66713SOL     OW18130  10.353  12.492   5.639  0.0980 -0.3624  0.2672
66713SOL    HW118131  10.432  12.490   5.693  1.1933 -0.9183 -1.2710
66713SOL    HW218132  10.285  12.454   5.695  0.6285  1.0544  1.9856
66714SOL     OW18133   2.716   8.235  11.123  0.3609 -0.0712 -0.0720
66714SOL    HW118134   2.681   8.246  11.211  1.1676  0.3536  0.2003
66714SOL    HW218135   2.723   8.140  11.112  0.7543 -0.1140  0.5176
66715SOL     OW18136  11.772  13.009   0.612  0.4922  0.2223 -0.3494
66715SOL    HW118137  11.823  12.949   0.557 -0.0794  1.2642 -2.0788
66715SOL    HW218138  11.825  13.020   0.691  1.3852 -1.2445 -0.7089
66716SOL     OW18139  11.142   0.562  11.586  0.2064  0.9865  0.4372
66716SOL    HW118140  11.191   0.643  11.573  0.1624  0.6884 -1.8965
66716SOL    HW218141  11.050   0.588  11.582  0.1675  0.6905 -1.8124
66717SOL     OW18142   5.939   6.498   8.819  0.8802 -0.0702 -0.0113
66717SOL    HW118143   5.937   6.574   8.760  1.1882 -0.2120 -0.2041
66717SOL    HW218144   5.938   6.537   8.907  1.0343  0.1579 -0.1088
66718SOL     OW18145  11.563   8.974   1.895  0.0579  0.3746  0.5446
66718SOL    HW118146  11.610   9.004   1.818 -0.5003 -0.2862 -0.0771
66718SOL    HW218147  11.506   8.904   1.862 -0.8871  0.7259  1.3763
66719SOL     OW18148   4.393  11.015   7.868  0.1334  0.2514  0.0581
66719SOL    HW118149   4.461  11.022   7.935  0.3934 -2.6970  0.2377
66719SOL    HW218150   4.328  11.081   7.892  1.7056  1.4162  1.3337
66720SOL     OW18151   3.186   2.269  10.539 -0.3519  0.2460  0.2470
66720SOL    HW118152   3.090   2.273  10.537 -0.4458 -1.4343 -0.3103
66720SOL    HW218153   3.206   2.176  10.535  1.2966  0.4084  2.6856
66721SOL     OW18154  12.446  11.848   3.424 -0.1152 -0.3115  0.4195
66721SOL    HW118155  12.365  11.807   3.454  0.3681 -1.1055  0.6686
66721SOL    HW218156  12.498  11.776   3.390  0.7322  0.1037  0.8108
66722SOL     OW18157  13.364   5.527   1.392  1.0727 -0.1698 -0.2076
66722SOL    HW118158  13.329   5.438   1.392  0.7002 -0.0315  0.1838
66722SOL    HW218159  13.293   5.580   1.426  1.3174  0.2699 -0.3750
66723SOL     OW18160   0.132   8.505   5.317  0.3232  0.8408  0.1247
66723SOL    HW118161   0.104   8.419   5.284  1.6689  0.7611 -0.8849
66723SOL    HW218162   0.203   8.485   5.378  1.8347  1.2668 -1.4067
66724SOL     OW18163   8.929  12.206   8.238  0.1771  0.3506  0.2772
66724SOL    HW118164   9.019  12.237   8.224 -0.1751  1.2414 -0.0894
66724SOL    HW218165   8.928  12.176   8.329  0.0353  3.2583  1.3246
66725SOL     OW18166  14.126  11.510   5.783  0.2489  0.1976  0.5659
66725SOL    HW118167  14.060  11.446   5.757  0.5287  0.2664 -0.3305
66725SOL    HW218168  14.102  11.590   5.736  2.3124 -0.4146 -1.7439
66726SOL     OW18169  13.701   4.521   2.601  0.0052  0.7739  0.4086
66726SOL    HW118170  13.787   4.498   2.566 -0.8835 -1.1322 -0.6672
66726SOL    HW218171  13.705   4.498   2.694  0.7943  1.1781  0.4798
66727SOL     OW18172   4.913   6.878   6.711  0.0529  0.4891 -0.0342
66727SOL    HW118173   4.836   6.935   6.698 -1.4876 -1.4808 -0.0223
66727SOL    HW218174   4.978   6.913   6.650 -1.6990  0.7977 -1.8645
66728SOL     OW18175   1.874   4.078  10.314 -0.1292 -0.7804  0.2667
66728SOL    HW118176   1.845   4.143  10.379  0.4300 -0.0206 -0.2241
66728SOL    HW218177   1.920   4.130  10.248  0.5997 -1.7223  0.0199
66729SOL     OW18178   7.781   4.607   8.151  0.2232 -0.7161  0.6644
66729SOL    HW118179   7.875   4.618   8.135  0.3165  0.7479  2.0296
66729SOL    HW218180   7.771   4.514   8.172  1.1039 -1.2147 -0.9446
66730SOL     OW18181   5.415   9.394   5.677 -0.7051 -0.4005  0.3778
66730SOL    HW118182   5.384   9.324   5.734 -0.6372 -1.0486 -0.3613
66730SOL    HW218183   5.500   9.363   5.645 -0.1336  0.5410  0.9499
66731SOL     OW18184   2.609   4.820   5.674  0.3908  0.3497  0.1464
66731SOL    HW118185   2.619   4.854   5.585  0.2610 -0.2221 -0.0873
66731SOL    HW218186   2.621   4.726   5.666  4.7852  0.5719  1.3599
66732SOL     OW18187   9.128   9.180   2.650 -0.3419  0.3494 -0.1294
66732SOL    HW118188   9.112   9.086   2.637  1.0764  0.1205 -0.3920
66732SOL    HW218189   9.157   9.211   2.564 -0.4742  0.9611  0.0475
66733SOL     OW18190   5.889   2.327   4.899  0.2848  0.0144 -0.0262
66733SOL    HW118191   5.802   2.359   4.877  0.0706 -0.5704 -0.0689
66733SOL    HW218192   5.873   2.256   4.962  0.6812 -0.5265 -0.5168
66734SOL     OW18193  11.936   2.403   1.689  0.4766 -0.1364  0.3357
66734SOL    HW118194  11.907   2.363   1.771  0.4048  0.6693  0.7134
66734SOL    HW218195  12.029   2.422   1.704  0.5392 -0.2691  0.1161
66735SOL     OW18196  12.998   6.283   9.009  0.3595  0.2626 -0.6057
66735SOL    HW118197  12.999   6.374   8.980  1.3259  0.4495 -0.0420
66735SOL    HW218198  13.084   6.249   8.984  0.6789  0.0215  0.7176
66736SOL     OW18199  10.752   7.055  12.432  0.7612 -0.4943 -0.4935
66736SOL    HW118200  10.743   6.969  12.390  0.4492 -0.3087 -0.8224
66736SOL    HW218201  10.838   7.086  12.405  0.3802 -0.1726 -1.4168
66737SOL     OW18202   8.492   1.562  11.386 -0.3177 -0.2740 -0.4782
66737SOL    HW118203   8.515   1.505  11.459  1.0153 -0.1657 -0.7904
66737SOL    HW218204   8.576   1.596  11.354 -1.0170  1.1861 -0.8485
66738SOL     OW18205   1.775   9.239   5.793 -0.6342 -0.0350 -0.3047
66738SOL    HW118206   1.726   9.305   5.842 -0.6019 -0.5446  0.4386
66738SOL    HW218207   1.760   9.261   5.701 -2.8862 -0.5815 -0.1457
66739SOL     OW18208   6.257  12.305  13.141 -0.1247 -0.3816 -0.5875
66739SOL    HW118209   6.170  12.306  13.102 -0.8885  0.9328  1.0348
66739SOL    HW218210   6.301  12.382  13.104 -0.1963 -0.1963 -0.2949
66740SOL     OW18211  13.823   9.852   4.096 -0.0892 -0.1644  0.0504
66740SOL    HW118212  13.795   9.944   4.103  0.4872  0.0091  0.1401
66740SOL    HW218213  13.868   9.847   4.011 -2.0134 -0.8910 -0.9832
66741SOL     OW18214   6.890  11.091   2.345  0.4988 -0.3896  0.5554
66741SOL    HW118215   6.803  11.056   2.366 -0.5302  1.7925  0.2092
66741SOL    HW218216   6.915  11.141   2.422  1.8378 -1.6056  0.9528
66742SOL     OW18217   6.107   8.740   9.803 -0.2517  0.2085  0.1437
66742SOL    HW118218   6.189   8.728   9.850 -0.9436 -1.2724  1.0214
66742SOL    HW218219   6.116   8.687   9.724 -0.1154  0.6061 -0.1145
66743SOL     OW18220   2.355   1.628   3.638  0.2222 -0.0521 -1.0061
66743SOL    HW118221   2.412   1.594   3.569  0.7752  1.2889 -1.2415
66743SOL    HW218222   2.410   1.688   3.688  0.4535 -2.3774  1.8902
66744SOL     OW18223   1.892  10.893   4.530 -0.0588  0.1021 -0.3387
66744SOL    HW118224   1.982  10.905   4.501 -0.1161 -0.8460 -0.9628
66744SOL    HW218225   1.893  10.917   4.623  0.4712  1.6459 -0.7192
66745SOL     OW18226   2.066   4.093   5.516  0.3539  0.8213  0.4796
66745SOL    HW118227   1.998   4.121   5.577 -2.0573  1.5135 -2.3124
66745SOL    HW218228   2.146   4.136   5.548 -1.1039  2.4186  2.1940
66746SOL     OW18229  12.803   5.378  12.775  0.2091 -0.3329  0.4374
66746SOL    HW118230  12.794   5.312  12.706  0.5911  0.6233 -0.5445
66746SOL    HW218231  12.715   5.415  12.785  0.6121  1.2071 -1.2714
66747SOL     OW18232   0.695   7.983   0.967  0.1741  0.7253 -0.0975
66747SOL    HW118233   0.729   7.940   1.045  0.1960  0.5164 -0.2209
66747SOL    HW218234   0.628   7.923   0.934  1.0456  0.1930 -0.9538
66748SOL     OW18235   7.489   1.451   1.148 -0.0122 -0.0958 -0.3500
66748SOL    HW118236   7.471   1.405   1.066 -1.0682  0.9457 -0.7313
66748SOL    HW218237   7.484   1.544   1.125 -0.7241  0.2192  0.9590
66749SOL     OW18238  10.201   2.682   9.780 -0.5575 -0.1583  0.3838
66749SOL    HW118239  10.251   2.608   9.814  1.1454  0.8977  0.2831
66749SOL    HW218240  10.261   2.757   9.786 -0.5445  0.3880 -3.7107
66750SOL     OW18241   4.035   3.829  13.930  0.1031  0.2323  0.0513
66750SOL    HW118242   4.071   3.916  13.913  0.9873  0.4763  2.7289
66750SOL    HW218243   4.106   3.769  13.905  0.0112  0.3413 -0.4905
66751SOL     OW18244   6.916   8.345   5.536  0.2492  0.3478  0.2488
66751SOL    HW118245   6.997   8.305   5.567  0.0958 -0.0289  0.1657
66751SOL    HW218246   6.913   8.324   5.443  0.5531  1.2151  0.0296
66752SOL     OW18247   7.764  11.291   6.928  0.0676 -0.0522  0.3346
66752SOL    HW118248   7.679  11.247   6.920 -0.2758  0.8546 -1.5382
66752SOL    HW218249   7.780  11.328   6.841  0.7728  2.7480  1.5478
66753SOL     OW18250   0.789   5.544   5.260  0.2407  0.5061 -0.1330
66753SOL    HW118251   0.726   5.615   5.249 -0.4504  0.7483  3.7939
66753SOL    HW218252   0.872   5.589   5.276  0.0779  0.4461  0.9704
66754SOL     OW18253   2.833  11.618   8.310  0.0057  0.1644  0.4032
66754SOL    HW118254   2.834  11.711   8.335  0.7127  0.3552 -0.2870
66754SOL    HW218255   2.843  11.619   8.215 -0.4148 -0.6171  0.3396
66755SOL     OW18256   1.979  13.498   2.563 -0.1764  0.1126  0.3296
66755SOL    HW118257   1.989  13.419   2.510  0.0778  1.5435 -1.9190
66755SOL    HW218258   1.885  13.503   2.582 -0.7776  0.9049 -2.3857
66756SOL     OW18259  13.992   5.705  13.657  0.1273 -0.9573  0.7590
66756SOL    HW118260  14.032   5.786  13.688 -0.9120 -0.7082  1.4775
66756SOL    HW218261  14.054   5.637  13.685  0.7377 -0.4713  0.6316
66757SOL     OW18262   7.996  11.119   0.874 -0.2760  0.7358 -0.9004
66757SOL    HW118263   7.997  11.199   0.926 -0.2518  0.1796 -0.0209
66757SOL    HW218264   8.087  11.104   0.850  0.0735 -0.2389  0.8791
66758SOL     OW18265   5.735   0.254   7.148  0.4600 -0.0503  0.4877
66758SOL    HW118266   5.779   0.335   7.123 -0.4009  0.2328 -0.1654
66758SOL    HW218267   5.798   0.209   7.204  1.4820  0.4457 -0.2191
66759SOL     OW18268  11.963   6.508   9.406 -0.0100  0.0388  0.1746
66759SOL    HW118269  11.900   6.504   9.333  0.8881 -0.6310 -0.5833
66759SOL    HW218270  12.049   6.510   9.364  0.5397 -0.6267  1.2131
66760SOL     OW18271  10.516   9.335   0.299  0.1357 -0.8732 -0.1318
66760SOL    HW118272  10.594   9.301   0.343  0.2755  0.9135  1.0980
66760SOL    HW218273  10.443   9.300   0.349  0.2999  1.8074  2.2448
66761SOL     OW18274   3.286   7.102  12.552  0.0460  0.4462 -0.1218
66761SOL    HW118275   3.201   7.081  12.591  0.3596 -0.3717  0.1496
66761SOL    HW218276   3.272   7.185  12.507 -0.5468  1.0072  1.0522
66762SOL     OW18277   7.821   9.933  10.107  0.7489  0.2853  0.3756
66762SOL    HW118278   7.763   9.990  10.056  1.0708  0.5804  0.3347
66762SOL    HW218279   7.824   9.851  10.057 -0.7188 -0.2253  1.0909
66763SOL     OW18280   9.158   1.454   0.435  0.9063 -0.6972  0.0950
66763SOL    HW118281   9.172   1.524   0.372 -0.1608 -1.1308 -0.6563
66763SOL    HW218282   9.172   1.373   0.385  2.1704 -1.0447  0.9601
66764SOL     OW18283   6.466  11.186   9.705 -0.1695  0.4470  0.1878
66764SOL    HW118284   6.394  11.247   9.690 -0.8025 -0.3871 -0.3224
66764SOL    HW218285   6.480  11.145   9.619  0.4899  0.1561  0.4323
66765SOL     OW18286  10.918   5.474   4.818 -0.1107 -0.0302 -0.0024
66765SOL    HW118287  10.996   5.421   4.804 -1.9832 -3.0193  0.0627
66765SOL    HW218288  10.865   5.460   4.739 -1.8079 -0.4476  1.1547
66766SOL     OW18289   5.495  10.628   6.253 -0.1536 -0.4623 -0.0447
66766SOL    HW118290   5.579  10.612   6.209 -0.5873  0.4897 -1.2954
66766SOL    HW218291   5.444  10.676   6.188 -2.1217 -2.0602  0.2214
66767SOL     OW18292   2.005   3.516   2.442  0.1106 -0.3613  0.0972
66767SOL    HW118293   2.068   3.584   2.419  1.8878 -1.3112  1.8186
66767SOL    HW218294   2.043   3.435   2.409 -1.3457 -0.7341 -0.7885
66768SOL     OW18295   6.394  13.714   3.025 -0.3667  0.4964  0.4139
66768SOL    HW118296   6.372  13.670   2.943  0.3013 -0.7684  0.8885
66768SOL    HW218297   6.486  13.738   3.015  0.1844 -1.0900  1.3794
66769SOL     OW18298   0.413  13.976   3.933  0.1046  0.1979 -0.1818
66769SOL    HW118299   0.455  13.894   3.907 -1.3837 -0.9967  0.9897
66769SOL    HW218300   0.412  13.973   4.029 -2.7413  0.0574 -0.1374
66770SOL     OW18301   6.987  10.397   6.628  0.5552 -0.2340 -0.3482
66770SOL    HW118302   6.998  10.349   6.546 -0.8350 -1.0218 -0.1199
66770SOL    HW218303   7.067  10.448   6.638  0.7422 -0.1188 -2.1903
66771SOL     OW18304   3.679  12.461   2.036  0.0656 -0.5720  0.2114
66771SOL    HW118305   3.678  12.440   1.942  0.0248 -0.9792  0.3000
66771SOL    HW218306   3.639  12.548   2.041  1.1039 -0.0513 -0.2617
66772SOL     OW18307   5.732   8.470   4.815  0.2121 -0.2500 -0.6212
66772SOL    HW118308   5.804   8.407   4.824  0.9991  0.6202 -0.7276
66772SOL    HW218309   5.769   8.542   4.764 -0.2852  0.8930  0.5635
66773SOL     OW18310   2.247   4.552   7.570 -0.4512 -0.4281  0.0551
66773SOL    HW118311   2.308   4.478   7.572 -0.7746 -0.7025  2.5934
66773SOL    HW218312   2.300   4.626   7.543  0.5271 -1.0676  0.1621
66774SOL     OW18313   0.802   0.437   5.954  0.3005 -0.3721  0.0939
66774SOL    HW118314   0.851   0.437   6.037  0.5020  1.5971  0.0291
66774SOL    HW218315   0.726   0.493   5.972  1.6009  2.1633 -1.6659
66775SOL     OW18316   0.362  13.270   2.418 -0.1507 -0.2230 -0.6799
66775SOL    HW118317   0.280  13.316   2.403  0.6703  1.1231 -1.2838
66775SOL    HW218318   0.410  13.280   2.335  0.1346 -2.0496 -0.7632
66776SOL     OW18319  10.260  11.484   5.060 -0.1218  0.0152 -0.1170
66776SOL    HW118320  10.177  11.515   5.097  0.4670 -0.6457  1.8786
66776SOL    HW218321  10.298  11.561   5.018 -0.8639  0.8045  0.6242
66777SOL     OW18322   6.984   4.646  13.527 -0.4189  0.2578  0.2389
66777SOL    HW118323   6.943   4.597  13.599 -0.1917  1.2180  1.0513
66777SOL    HW218324   6.970   4.592  13.450 -0.0945 -1.1386  1.1218
66778SOL     OW18325   6.816  10.499   4.084  0.2115  0.1720  0.8932
66778SOL    HW118326   6.772  10.452   4.013 -0.5877  1.9093  0.1687
66778SOL    HW218327   6.909  10.483   4.069 -0.0368 -1.1452  0.6740
66779SOL     OW18328  10.890  10.789   9.403 -0.3226  0.0750 -0.2435
66779SOL    HW118329  10.863  10.792   9.495 -2.6412 -1.7185 -0.7654
66779SOL    HW218330  10.817  10.827   9.356  0.3023 -0.1617 -1.4393
66780SOL     OW18331   9.386   8.436   5.300 -0.0964 -0.2233  0.6258
66780SOL    HW118332   9.403   8.450   5.393  0.0458 -1.8717  0.8771
66780SOL    HW218333   9.292   8.415   5.295  0.1199 -1.2105  0.5499
66781SOL     OW18334  13.837   8.741   7.181  0.4863 -0.2984  0.3392
66781SOL    HW118335  13.836   8.678   7.253  0.3723  0.4045  0.9751
66781SOL    HW218336  13.928   8.744   7.153  1.4521  2.3371  3.1610
66782SOL     OW18337  11.175   8.304   0.984  0.1176  0.3655 -0.1381
66782SOL    HW118338  11.113   8.303   1.057  0.6064  1.1005  0.2903
66782SOL    HW218339  11.251   8.352   1.016  1.1724 -1.0029 -0.4655
66783SOL     OW18340   1.918  10.520   4.637  0.8584 -0.8740 -0.3325
66783SOL    HW118341   1.944  10.431   4.658 -1.2585 -1.2552  0.9333
66783SOL    HW218342   1.964  10.574   4.701  0.1669 -1.3308  0.5727
66784SOL     OW18343   9.226   2.574   6.956  0.1308  0.2170 -0.4556
66784SOL    HW118344   9.316   2.598   6.976  0.8511 -1.7046 -1.1400
66784SOL    HW218345   9.193   2.534   7.037  0.4142 -0.4293 -0.6504
66785SOL     OW18346  11.180   6.239   2.466  0.4363  0.2262 -0.1109
66785SOL    HW118347  11.112   6.182   2.430  0.2714 -1.0807  2.1018
66785SOL    HW218348  11.230   6.267   2.389 -0.5587 -1.4751 -1.4605
66786SOL     OW18349   5.695   5.567  12.084 -0.1865  0.1057  0.5906
66786SOL    HW118350   5.657   5.622  12.152 -0.0020 -0.3391  1.0612
66786SOL    HW218351   5.673   5.610  12.002 -0.9482  0.3149  0.9054
66787SOL     OW18352   0.243  12.696  10.379  0.2101 -0.2813  0.2388
66787SOL    HW118353   0.338  12.708  10.377  0.1651  0.1260  0.5786
66787SOL    HW218354   0.226  12.636  10.307  0.4842  1.3213 -1.2219
66788SOL     OW18355   2.709   7.341   8.344 -0.3848 -0.0518  0.0772
66788SOL    HW118356   2.682   7.250   8.358 -0.7311  0.1776  0.9765
66788SOL    HW218357   2.682   7.361   8.254 -1.2614 -0.5101  0.2337
66789SOL     OW18358   0.833   5.859   6.678  0.7652  0.3330 -0.0925
66789SOL    HW118359   0.851   5.774   6.638 -0.7831  0.2528 -0.6848
66789SOL    HW218360   0.839   5.922   6.607  0.8661  0.5874  0.1377
66790SOL     OW18361  12.315  11.367  13.586  0.1810  0.0984  0.4311
66790SOL    HW118362  12.301  11.278  13.618 -1.9287 -0.1894 -1.1137
66790SOL    HW218363  12.229  11.408  13.591  0.8208  1.5791 -0.2922
66791SOL     OW18364  13.131   2.527  12.230  0.0165  0.4053  0.5701
66791SOL    HW118365  13.137   2.576  12.148  0.4969 -1.2438 -0.4203
66791SOL    HW218366  13.158   2.589  12.297  0.5062  1.5170 -0.6172
66792SOL     OW18367   5.593  12.405   8.316 -0.1543 -0.2888 -0.1808
66792SOL    HW118368   5.521  12.451   8.273 -1.0260 -1.2385  0.2373
66792SOL    HW218369   5.596  12.443   8.404 -1.0362 -1.1911  0.2461
66793SOL     OW18370  11.137   0.907  11.750 -0.3062  0.0832  0.2545
66793SOL    HW118371  11.166   0.955  11.828 -3.5435 -0.6596  2.1407
66793SOL    HW218372  11.095   0.974  11.695 -1.8297  0.0268  1.2831
66794SOL     OW18373  12.069  12.100   8.775  0.0790  0.0499  0.9212
66794SOL    HW118374  12.071  12.083   8.869 -1.8062  1.0062  1.1852
66794SOL    HW218375  12.101  12.190   8.767  2.9940 -0.9296  0.2899
66795SOL     OW18376   2.790   9.717  11.883  0.0229  0.4289 -0.7675
66795SOL    HW118377   2.721   9.712  11.817  0.2283 -0.8244 -0.9087
66795SOL    HW218378   2.865   9.753  11.836 -0.3194  1.1500 -0.7821
66796SOL     OW18379  10.519   8.597   8.651 -1.0656 -0.0025 -0.3796
66796SOL    HW118380  10.451   8.660   8.626 -0.3824  0.8291 -0.1633
66796SOL    HW218381  10.594   8.650   8.675 -0.9979 -0.8330  1.4212
66797SOL     OW18382   0.619  11.969   3.512  0.0573  0.1490 -0.4910
66797SOL    HW118383   0.590  11.970   3.604  2.1761  0.5012  0.2129
66797SOL    HW218384   0.617  12.061   3.486  1.2369  0.2688 -0.1893
66798SOL     OW18385  12.258  12.170   6.054  0.2923 -0.1582  0.2682
66798SOL    HW118386  12.212  12.087   6.050  2.1845 -1.3664  1.8207
66798SOL    HW218387  12.309  12.166   6.135 -0.8475  3.2486  1.3106
66799SOL     OW18388  13.870   5.131   0.972  0.1257 -0.7825  0.8021
66799SOL    HW118389  13.805   5.134   1.042 -0.7520 -0.7615 -0.0014
66799SOL    HW218390  13.904   5.220   0.967 -2.4039  0.1905 -1.1622
66800SOL     OW18391  12.743  12.621  12.182  0.0911 -0.2899  0.0763
66800SOL    HW118392  12.752  12.643  12.275  2.1141 -0.2483 -0.0922
66800SOL    HW218393  12.820  12.568  12.162 -0.5690 -0.7181 -1.4773
66801SOL     OW18394   2.095   6.631  10.641  0.3546  0.1168 -0.3543
66801SOL    HW118395   2.027   6.564  10.646  1.0522 -0.6748 -1.1747
66801SOL    HW218396   2.177   6.583  10.646  0.9007  0.7246 -2.5559
66802SOL     OW18397   3.715   9.034   1.276 -0.0550 -0.2090  0.3904
66802SOL    HW118398   3.752   9.035   1.187 -1.0167 -1.3480 -0.0442
66802SOL    HW218399   3.661   8.956   1.279  1.4470 -1.2600  2.6269
66803SOL     OW18400   0.170   1.017  13.259  0.6745  0.2382 -0.1264
66803SOL    HW118401   0.085   0.980  13.237 -0.2913  2.6215 -0.8045
66803SOL    HW218402   0.205   0.960  13.327 -1.2346 -1.0922 -0.1929
66804SOL     OW18403  14.063   7.825   4.494 -0.1679 -0.2665 -0.5133
66804SOL    HW118404  14.061   7.918   4.473 -0.9832  0.0738  0.9261
66804SOL    HW218405  14.074   7.781   4.409 -0.8519  1.0872 -1.3368
66805SOL     OW18406  12.216   4.467  13.801 -0.3224  0.2226  0.2944
66805SOL    HW118407  12.146   4.402  13.813  0.5664 -0.7380  0.4342
66805SOL    HW218408  12.262   4.468  13.885  0.6531 -0.1753 -0.2085
66806SOL     OW18409   8.035   3.719  10.148  0.1353 -0.6033  0.6489
66806SOL    HW118410   8.040   3.624  10.139 -3.5187 -0.8854 -0.1833
66806SOL    HW218411   8.022   3.751  10.059 -2.2867  0.2202  1.2168
66807SOL     OW18412   9.152   9.602   6.757 -0.0106  0.0263  0.2530
66807SOL    HW118413   9.105   9.629   6.677  1.4659  0.7447 -0.4094
66807SOL    HW218414   9.243   9.627   6.740  0.5226 -0.8695  1.7136
66808SOL     OW18415  11.722   7.995   3.170 -0.5806  0.0116 -0.0197
66808SOL    HW118416  11.717   8.087   3.144  2.0408  0.3259  0.2775
66808SOL    HW218417  11.769   7.953   3.098 -0.4730 -0.7949  0.5197
66809SOL     OW18418   8.253   9.175  11.641 -0.0446 -0.5197  0.2855
66809SOL    HW118419   8.282   9.245  11.700  1.5908 -0.3671 -0.6223
66809SOL    HW218420   8.335   9.134  11.613 -0.7900 -0.7390 -1.6717
66810SOL     OW18421   5.490   6.540   8.044  0.2790 -0.5816 -0.5822
66810SOL    HW118422   5.577   6.503   8.056  0.7009  0.5194 -0.1411
66810SOL    HW218423   5.499   6.632   8.071 -1.7888 -1.1973  2.7123
66811SOL     OW18424   8.033  11.251  10.334 -0.0874  0.1160  0.2639
66811SOL    HW118425   8.117  11.211  10.356  0.0741 -0.0175 -0.5328
66811SOL    HW218426   8.002  11.199  10.259 -1.9600 -1.3047  1.9371
66812SOL     OW18427   8.294  10.842   5.474 -0.0202 -0.1742  0.0918
66812SOL    HW118428   8.270  10.834   5.382 -2.3848  2.0289  0.4141
66812SOL    HW218429   8.240  10.777   5.519 -0.5259  0.2832  0.1471
66813SOL     OW18430  13.634  12.019  12.780  0.5159  0.3322  0.0977
66813SOL    HW118431  13.543  12.043  12.798  0.5401  1.4363 -1.1258
66813SOL    HW218432  13.631  11.969  12.699  0.8615 -0.9658  0.8503
66814SOL     OW18433   6.161   5.008   4.325  0.3643  0.4369  0.1669
66814SOL    HW118434   6.127   5.055   4.248  3.2319  1.2159 -0.7550
66814SOL    HW218435   6.181   4.920   4.293 -0.3128  0.1313  0.5714
66815SOL     OW18436  12.059  13.596   6.708 -0.1062 -0.3725 -0.3762
66815SOL    HW118437  12.043  13.505   6.686  2.0482 -0.3222 -2.5651
66815SOL    HW218438  12.093  13.635   6.627 -0.3900  2.2325  0.6585
66816SOL     OW18439   7.281  10.498   1.540  0.1694  0.0595  0.1345
66816SOL    HW118440   7.313  10.425   1.487 -1.3225  0.0129 -0.7824
66816SOL    HW218441   7.355  10.524   1.594  0.6820 -2.2509  0.6079
66817SOL     OW18442  10.495   9.813  10.665  0.3904 -0.0665  0.1231
66817SOL    HW118443  10.498   9.843  10.756  0.3497 -0.8089  0.3765
66817SOL    HW218444  10.487   9.893  10.614  1.3584  0.4333  0.7223
66818SOL     OW18445   2.795  10.621   9.344  0.0269 -0.3575 -0.1921
66818SOL    HW118446   2.832  10.578   9.266  0.2099 -1.9971  0.7478
66818SOL    HW218447   2.733  10.557   9.378 -0.9440  0.8527  0.3469
66819SOL     OW18448   7.701   7.540  12.245  0.6622 -0.3389  0.3976
66819SOL    HW118449   7.635   7.570  12.308  1.5174  0.7878  0.8001
66819SOL    HW218450   7.653   7.483  12.185 -0.3581 -0.7591  1.5553
66820SOL     OW18451   3.845   3.039   6.626 -0.5826 -0.6177 -0.0883
66820SOL    HW118452   3.813   3.127   6.644  1.5105  0.1507  0.1042
66820SOL    HW218453   3.823   3.024   6.534 -2.3430 -0.5649  0.2876
66821SOL     OW18454   1.088   0.535   2.104 -0.1914 -0.0449  0.0234
66821SOL    HW118455   1.016   0.569   2.050 -0.4051 -0.3146  0.1420
66821SOL    HW218456   1.101   0.445   2.073 -0.8834 -0.4903  1.0048
66822SOL     OW18457  13.055   1.733   5.830 -0.3873 -0.3009 -0.3040
66822SOL    HW118458  13.123   1.670   5.806 -0.6594 -1.5795  1.9627
66822SOL    HW218459  13.030   1.708   5.919 -2.5761  1.2510 -0.4087
66823SOL     OW18460   8.421  12.623   3.885 -0.1294  0.0297 -0.2034
66823SOL    HW118461   8.382  12.593   3.967  0.9654  1.5666  0.9476
66823SOL    HW218462   8.414  12.548   3.826  1.7077 -2.2440  2.2165
66824SOL     OW18463  10.972   2.152   7.014 -0.2657  0.1398 -0.3981
66824SOL    HW118464  10.979   2.101   6.934 -1.6130 -0.9608  0.1570
66824SOL    HW218465  10.919   2.099   7.073  0.3218  1.1126  1.0868
66825SOL     OW18466   9.459  12.774  12.954 -0.4720 -0.0027  0.3607
66825SOL    HW118467   9.539  12.731  12.924  0.3142  0.2988  1.8817
66825SOL    HW218468   9.412  12.797  12.874  0.4084 -1.2156 -0.5371
66826SOL     OW18469  10.284  12.655   8.621  0.0584  0.4033 -0.1232
66826SOL    HW118470  10.296  12.597   8.696 -2.5683  0.4727  0.4409
66826SOL    HW218471  10.317  12.605   8.547 -1.3524 -1.5580  0.4648
66827SOL     OW18472  13.108   1.252  11.577 -0.3958 -0.2872  0.0394
66827SOL    HW118473  13.077   1.272  11.665 -2.4950  0.3909 -0.7920
66827SOL    HW218474  13.171   1.181  11.589  0.5998  0.8718  2.2131
66828SOL     OW18475  13.026   2.353  14.078  0.0650 -0.5398  0.8521
66828SOL    HW118476  12.981   2.371  14.160  1.1629 -0.9328  1.5653
66828SOL    HW218477  12.957   2.328  14.017 -0.9868  1.5042  1.1252
66829SOL     OW18478   9.910   0.138  12.029 -0.3436 -0.0783  0.2418
66829SOL    HW118479   9.982   0.190  11.994  0.1044 -0.0840  1.1210
66829SOL    HW218480   9.899   0.171  12.118 -1.7506  0.2478 -0.0301
66830SOL     OW18481  11.015   9.755  11.536  0.4454 -0.0105 -0.5311
66830SOL    HW118482  11.023   9.701  11.458 -1.1477 -0.8493 -0.1529
66830SOL    HW218483  10.945   9.817  11.515  0.1462 -0.1106  0.1458
66831SOL     OW18484  12.397   9.177  11.228  0.0815  0.4431  0.1781
66831SOL    HW118485  12.344   9.107  11.191  1.0322  0.3129 -0.9999
66831SOL    HW218486  12.393   9.247  11.164  2.8373 -0.2791 -0.9306
66832SOL     OW18487   8.241   9.227   5.452  0.5276 -0.0284  0.0238
66832SOL    HW118488   8.241   9.149   5.397 -0.0704 -1.4358  1.9492
66832SOL    HW218489   8.150   9.258   5.449  0.2895 -0.6294  0.9211
66833SOL     OW18490   9.317   8.546   8.852  0.3690 -0.5495 -0.0407
66833SOL    HW118491   9.272   8.518   8.772 -0.8086  1.6645 -0.2235
66833SOL    HW218492   9.249   8.547   8.919  1.4145 -2.6914  1.1268
66834SOL     OW18493   1.086  10.164   8.825  0.4254 -0.3664  0.7096
66834SOL    HW118494   1.155  10.098   8.815  1.8123  1.2328 -1.0054
66834SOL    HW218495   1.096  10.221   8.748 -2.2752  0.4432  0.8496
66835SOL     OW18496  10.247   3.627   5.911  0.0680  0.2196 -0.0128
66835SOL    HW118497  10.320   3.664   5.960 -0.1207 -1.0480  1.3326
66835SOL    HW218498  10.288   3.572   5.844  0.3719 -0.3084  0.5927
66836SOL     OW18499   1.109   0.649  11.964  0.3192 -0.3529  0.5852
66836SOL    HW118500   1.116   0.717  11.897 -0.5997 -0.8043  0.0122
66836SOL    HW218501   1.016   0.642  11.983  0.2047 -2.4651 -0.4657
66837SOL     OW18502   6.130   7.091   3.410  0.0303 -0.3670 -0.6091
66837SOL    HW118503   6.119   7.073   3.504 -0.1958  0.8490 -0.3858
66837SOL    HW218504   6.147   7.005   3.371  1.8977 -0.7039  0.7868
66838SOL     OW18505   8.664   0.436  12.358  0.2464 -0.6208 -0.0171
66838SOL    HW118506   8.736   0.387  12.317 -0.1805  0.0984 -1.6939
66838SOL    HW218507   8.694   0.527  12.359  0.6621 -0.7146  2.2694
66839SOL     OW18508   2.980   5.827  11.734 -0.1348  0.6386 -0.0638
66839SOL    HW118509   2.937   5.742  11.724  0.2234  0.3693  0.6552
66839SOL    HW218510   3.073   5.808  11.722  0.0175  0.8038  0.8022
66840SOL     OW18511   5.329   3.009  10.148 -0.5075 -0.6787  0.2553
66840SOL    HW118512   5.304   3.027  10.058  0.0524 -0.3557  0.1605
66840SOL    HW218513   5.247   2.990  10.193 -1.0756  1.4541  0.2109
66841SOL     OW18514   8.236   7.081   3.959 -0.0800 -0.1663 -0.1993
66841SOL    HW118515   8.214   7.084   4.052 -0.3846 -1.8655 -0.1757
66841SOL    HW218516   8.331   7.092   3.957 -0.1951  1.0217  0.2055
66842SOL     OW18517  12.033   0.927   4.863  0.7151  0.1958  0.5781
66842SOL    HW118518  12.117   0.961   4.895  1.6594 -0.7289 -0.8079
66842SOL    HW218519  12.007   0.861   4.928  0.0484  1.7873  2.0277
66843SOL     OW18520   7.089   3.868   4.439  0.0666 -0.1723 -0.1663
66843SOL    HW118521   7.117   3.826   4.357 -1.3159 -1.6592  0.0621
66843SOL    HW218522   6.995   3.882   4.427  0.0996  0.8822  0.6541
66844SOL     OW18523  13.923   2.365   2.717 -0.2906 -0.0994  0.0495
66844SOL    HW118524  13.999   2.308   2.704 -0.1002 -0.0648  0.9314
66844SOL    HW218525  13.921   2.380   2.812 -1.0879  0.3297 -0.0315
66845SOL     OW18526  10.819   4.694   3.310 -1.0475  0.2149  0.3829
66845SOL    HW118527  10.791   4.674   3.220 -3.2613  2.0467  0.5657
66845SOL    HW218528  10.807   4.612   3.358  2.0096 -1.3799 -1.2761
66846SOL     OW18529  12.481   0.458   1.923  0.0563  0.3253  0.5205
66846SOL    HW118530  12.568   0.441   1.960  1.2439  0.8478 -1.8200
66846SOL    HW218531  12.497   0.522   1.854 -1.7533 -1.4317 -1.7027
66847SOL     OW18532   4.958   8.516   1.613  0.0526 -0.2921 -0.0653
66847SOL    HW118533   4.885   8.535   1.555  0.7896  1.3480 -0.5212
66847SOL    HW218534   4.921   8.520   1.701 -0.1331  2.2515 -0.1873
66848SOL     OW18535   4.690  11.558   9.510 -0.0799  0.1877 -0.4434
66848SOL    HW118536   4.753  11.523   9.448 -1.4191  0.1273 -1.8335
66848SOL    HW218537   4.659  11.482   9.558  0.1127  0.0708 -0.5035
66849SOL     OW18538   2.956  11.764   4.662  0.0080  0.8274 -0.1074
66849SOL    HW118539   3.015  11.719   4.723 -1.1973  1.1056  1.2954
66849SOL    HW218540   2.952  11.706   4.586  1.7044  0.5751 -0.0445
66850SOL     OW18541  13.977  10.423  11.968  0.0763 -0.0303  0.5290
66850SOL    HW118542  13.902  10.406  11.911  1.1964  0.3913 -1.1451
66850SOL    HW218543  14.029  10.488  11.921  2.6179 -1.8874  0.5501
66851SOL     OW18544   3.875   9.773  13.232 -0.7971  0.7919 -0.0533
66851SOL    HW118545   3.833   9.802  13.151 -2.3420 -0.2731  0.3156
66851SOL    HW218546   3.966   9.756  13.207 -1.1639  0.8070 -1.4833
66852SOL     OW18547  12.642  10.534  12.160 -0.0090  0.0820  0.4350
66852SOL    HW118548  12.690  10.459  12.124  0.1668 -0.3252  1.4720
66852SOL    HW218549  12.550  10.515  12.140 -0.0099 -0.6429  1.0515
66853SOL     OW18550   6.153   7.835  10.494 -0.7555  0.0857  0.0778
66853SOL    HW118551   6.220   7.895  10.527 -0.6395  0.4563 -0.7947
66853SOL    HW218552   6.089   7.829  10.565 -1.2712  2.0232 -0.1534
66854SOL     OW18553   4.994   8.482   8.715 -0.3157  0.4267 -0.4337
66854SOL    HW118554   4.986   8.533   8.635 -2.1855  0.4948 -0.2270
66854SOL    HW218555   4.950   8.535   8.782  0.1306 -0.2029  0.3735
66855SOL     OW18556   0.192   8.472  12.240 -0.2137 -0.4805 -0.4952
66855SOL    HW118557   0.207   8.466  12.145 -1.0166 -0.7218 -0.6141
66855SOL    HW218558   0.146   8.556  12.251  2.0012  0.7433 -0.0176
66856SOL     OW18559  11.938   6.471   5.628 -0.2248 -0.0659  0.1526
66856SOL    HW118560  11.981   6.507   5.706  0.7431 -0.6476 -0.1004
66856SOL    HW218561  11.854   6.440   5.660 -0.4339  0.9798  0.6871
66857SOL     OW18562   8.056  12.045  10.207 -0.1797 -0.0391  0.2149
66857SOL    HW118563   8.026  12.024  10.118  1.2253 -0.2868 -0.2278
66857SOL    HW218564   8.146  12.010  10.210 -0.6408 -1.1703  2.1507
66858SOL     OW18565   5.799   3.436   3.264 -0.2197 -0.3021  0.2265
66858SOL    HW118566   5.766   3.401   3.347 -0.3045 -1.7131 -0.3685
66858SOL    HW218567   5.832   3.359   3.218  0.5747  0.5818 -0.7096
66859SOL     OW18568  13.313   7.131  12.913  0.0647 -0.0508 -0.2989
66859SOL    HW118569  13.402   7.098  12.899 -0.0916 -1.0529  0.8917
66859SOL    HW218570  13.319   7.183  12.993 -0.2415  0.6170 -0.7093
66860SOL     OW18571  12.359   0.739   3.476  0.1887 -0.2067  0.0893
66860SOL    HW118572  12.383   0.689   3.554  2.6291 -1.1617 -1.1582
66860SOL    HW218573  12.264   0.749   3.482  0.1379 -1.4106  2.4709
66861SOL     OW18574   0.629   8.032   2.281  0.1216 -0.2181 -0.5793
66861SOL    HW118575   0.671   7.948   2.301 -2.2528 -1.5183 -0.7213
66861SOL    HW218576   0.663   8.092   2.348  0.7797 -1.6484  0.4341
66862SOL     OW18577  11.538  11.354   5.689 -0.7443 -0.3984 -0.6392
66862SOL    HW118578  11.542  11.391   5.601 -1.1401 -0.8680 -0.8548
66862SOL    HW218579  11.628  11.359   5.721 -0.7805  0.7365 -0.6671
66863SOL     OW18580   4.215  12.171   9.652 -0.2083  0.5378 -0.0335
66863SOL    HW118581   4.126  12.165   9.688 -0.3123 -0.4637 -0.4361
66863SOL    HW218582   4.259  12.092   9.683 -0.0716  0.0341 -1.4749
66864SOL     OW18583   3.586   7.274  13.907  0.3634  0.3419 -0.3434
66864SOL    HW118584   3.552   7.250  13.821  1.9869  0.2045 -0.9900
66864SOL    HW218585   3.681   7.268  13.898  0.5947  0.8362  1.3178
66865SOL     OW18586   0.593   8.643  10.253  0.1139  0.1004  0.3426
66865SOL    HW118587   0.571   8.550  10.246  0.1898  0.2001 -1.6037
66865SOL    HW218588   0.509   8.686  10.271  0.1803 -0.3733  1.9753
66866SOL     OW18589   3.339  11.102  10.550 -0.2570 -0.3780  0.6440
66866SOL    HW118590   3.416  11.068  10.505 -0.7013 -0.9978  0.3425
66866SOL    HW218591   3.299  11.026  10.593 -2.0427 -0.5772 -1.2018
66867SOL     OW18592   3.619  10.660   9.563  0.4062  0.2246  0.1081
66867SOL    HW118593   3.713  10.646   9.569  0.5000  0.7735 -0.0206
66867SOL    HW218594   3.586  10.643   9.652  0.4248 -1.3433 -0.1669
66868SOL     OW18595  10.669   0.311   4.038  0.1525  0.5259 -0.3370
66868SOL    HW118596  10.649   0.345   4.126  0.2828 -0.9177  0.2931
66868SOL    HW218597  10.724   0.235   4.055  0.1001  0.1702 -1.6851
66869SOL     OW18598   6.333  13.532   0.782 -0.9502  0.1526  0.3074
66869SOL    HW118599   6.274  13.596   0.743 -0.4844  0.6793  0.4477
66869SOL    HW218600   6.416  13.544   0.735 -0.5970  0.2914  0.9517
66870SOL     OW18601   6.044   3.811   6.728  0.0758 -0.0579 -0.5605
66870SOL    HW118602   6.075   3.902   6.727  1.9904 -0.6515 -1.2169
66870SOL    HW218603   6.056   3.783   6.819  1.9353 -0.3526 -0.8389
66871SOL     OW18604   1.020   3.216   3.522 -0.8001 -0.0827 -0.4407
66871SOL    HW118605   1.109   3.179   3.517 -0.6066  0.5812 -2.4914
66871SOL    HW218606   0.987   3.185   3.607  0.8910 -1.4485 -0.2186
66872SOL     OW18607   1.517   2.203   0.851  0.5816 -0.6879  0.1551
66872SOL    HW118608   1.478   2.282   0.887  2.2876  0.4587 -0.4143
66872SOL    HW218609   1.520   2.218   0.757 -1.9740 -2.8025 -0.3924
66873SOL     OW18610   5.505   0.258   3.752  0.5155  0.4496 -0.3511
66873SOL    HW118611   5.465   0.239   3.667  0.3358  0.3265 -0.2404
66873SOL    HW218612   5.444   0.318   3.794 -0.0083 -0.4367  0.1821
66874SOL     OW18613   5.471   7.784   1.036 -0.4168 -0.0695  0.8297
66874SOL    HW118614   5.547   7.841   1.046 -0.1245  0.2744 -2.2295
66874SOL    HW218615   5.500   7.716   0.976 -2.2450 -0.4426  0.3093
66875SOL     OW18616  12.861  12.557  10.463 -0.5368  0.0362 -0.2284
66875SOL    HW118617  12.796  12.627  10.466  0.0764  0.5934  0.3626
66875SOL    HW218618  12.936  12.595  10.417  0.1028  0.0467  0.7870
66876SOL     OW18619   4.831   7.772   5.310 -0.3502 -0.6316  0.0162
66876SOL    HW118620   4.885   7.694   5.321  1.4023  0.2955 -1.5558
66876SOL    HW218621   4.824   7.784   5.216 -2.2798  0.0320  0.1871
66877SOL     OW18622   3.160   5.931   1.296  0.1272 -0.0845 -0.3012
66877SOL    HW118623   3.145   6.017   1.337  1.0768 -0.1361  0.1851
66877SOL    HW218624   3.250   5.936   1.263 -0.2756 -0.4121 -1.4966
66878SOL     OW18625  12.811   6.293   1.831 -0.1256  0.0540 -0.0382
66878SOL    HW118626  12.841   6.308   1.921  0.4795 -0.0305 -0.2217
66878SOL    HW218627  12.808   6.197   1.823 -0.4519  0.0604 -0.0244
66879SOL     OW18628   5.599  12.800  11.188  0.2348 -0.3136 -0.0688
66879SOL    HW118629   5.665  12.754  11.136 -2.6202 -2.5736 -1.9353
66879SOL    HW218630   5.582  12.742  11.263  0.2214  0.1777  0.3162
66880SOL     OW18631   7.476  10.445  10.906 -0.2406  0.7515  0.4230
66880SOL    HW118632   7.418  10.484  10.972 -0.1915  1.0789  0.2729
66880SOL    HW218633   7.563  10.454  10.944 -0.3577 -0.5138  1.0357
66881SOL     OW18634  10.471   6.645   3.205 -0.2248  0.8269  0.2352
66881SOL    HW118635  10.429   6.690   3.132 -0.9514 -0.0715  0.0814
66881SOL    HW218636  10.407   6.649   3.276 -0.6612 -0.6652 -0.0396
66882SOL     OW18637   6.938   2.010   3.250 -0.0730  0.4889 -0.5882
66882SOL    HW118638   6.846   1.985   3.246  0.3158 -1.0337 -0.6237
66882SOL    HW218639   6.953   2.062   3.171 -0.3817 -1.1592 -1.7752
66883SOL     OW18640   0.854  12.016  10.519 -0.1539  0.1655  0.0658
66883SOL    HW118641   0.902  11.983  10.595  0.4393 -2.0734 -1.1882
66883SOL    HW218642   0.839  12.108  10.538  1.0200 -0.0493  2.3500
66884SOL     OW18643   3.867   4.691   0.263  0.0614 -0.2895  0.1808
66884SOL    HW118644   3.934   4.667   0.199  0.3643 -1.1511  0.8145
66884SOL    HW218645   3.797   4.729   0.209  0.4711 -0.6428 -0.6299
66885SOL     OW18646   3.539   5.572   8.704 -0.0078 -0.2357 -0.1684
66885SOL    HW118647   3.485   5.650   8.689  0.4341  0.1317  0.1098
66885SOL    HW218648   3.508   5.509   8.639  0.6660  0.6991 -1.4446
66886SOL     OW18649  10.356   9.328  13.733  0.4705 -0.6782  0.2388
66886SOL    HW118650  10.434   9.285  13.698  1.9324  1.9823  0.0048
66886SOL    HW218651  10.360   9.311  13.827  1.9602  0.2817  0.3810
66887SOL     OW18652   3.992   1.677   2.821 -0.4800  0.1877 -0.4025
66887SOL    HW118653   4.012   1.647   2.910 -1.1981 -0.0927 -0.3292
66887SOL    HW218654   4.072   1.721   2.792  0.0055 -0.3226  0.1242
66888SOL     OW18655  10.030   1.594  13.121  0.2049  0.6830 -0.1578
66888SOL    HW118656  10.107   1.649  13.138  0.9227  0.3621 -2.0392
66888SOL    HW218657  10.066   1.506  13.106 -0.8775 -0.2616  2.2827
66889SOL     OW18658  11.331   9.522  13.866  0.0170 -0.0596  0.5175
66889SOL    HW118659  11.304   9.435  13.836 -0.8663  0.0548  0.9450
66889SOL    HW218660  11.332   9.576  13.787  0.2058 -0.3748  0.3064
66890SOL     OW18661   6.273   9.931   4.595 -0.0774  0.0908  1.0535
66890SOL    HW118662   6.232   9.890   4.670 -0.6772 -1.8305 -0.2536
66890SOL    HW218663   6.362   9.896   4.593  0.4182  1.2583  1.6599
66891SOL     OW18664   5.257   2.109   9.588  0.0661  0.2809  0.6522
66891SOL    HW118665   5.177   2.078   9.544 -0.4081  1.4810  0.6279
66891SOL    HW218666   5.276   2.042   9.653 -0.2890 -0.6045 -0.1356
66892SOL     OW18667  12.083   8.479   7.839  0.9957  0.1830  0.3538
66892SOL    HW118668  12.031   8.512   7.913 -0.7939 -1.6952  0.0189
66892SOL    HW218669  12.171   8.465   7.876  0.5967  0.9026  1.6556
66893SOL     OW18670   9.856   7.970   9.610  0.1101 -0.0122 -0.0860
66893SOL    HW118671   9.906   8.039   9.654  2.2105 -1.1116 -0.5893
66893SOL    HW218672   9.821   7.917   9.681  0.9036 -0.0328  0.3057
66894SOL     OW18673   6.753   6.551   1.020 -0.4987  0.1108  0.1207
66894SOL    HW118674   6.775   6.563   0.927 -0.7261  2.1822  0.2829
66894SOL    HW218675   6.675   6.496   1.019 -0.0093 -0.6033 -0.8593
66895SOL     OW18676   9.609  11.790   4.833 -0.2176 -0.3867 -0.5413
66895SOL    HW118677   9.636  11.708   4.875  0.7911 -0.1958 -0.7950
66895SOL    HW218678   9.579  11.845   4.905 -2.0959 -1.4014 -0.4917
66896SOL     OW18679   7.961  10.743   2.872 -0.0513  0.5518 -0.2715
66896SOL    HW118680   7.885  10.744   2.930  1.5426  0.8779  1.9332
66896SOL    HW218681   7.956  10.659   2.827 -1.8137  0.6726 -0.3676
66897SOL     OW18682  10.824   5.879   7.741  1.3873 -0.3687  0.0778
66897SOL    HW118683  10.799   5.960   7.786  0.7400  0.9558 -2.4321
66897SOL    HW218684  10.907   5.901   7.697  0.7900 -0.7429 -1.2942
66898SOL     OW18685   8.405   9.202  14.065 -0.5096  0.0825 -0.8194
66898SOL    HW118686   8.458   9.123  14.053  1.6059  0.8412  2.3024
66898SOL    HW218687   8.334   9.175  14.123 -0.2171  0.3181 -0.3532
66899SOL     OW18688   3.227   5.425   7.807  0.2946  0.2617 -0.5518
66899SOL    HW118689   3.155   5.483   7.831 -0.0949 -0.7819  0.9183
66899SOL    HW218690   3.185   5.349   7.767  0.5091 -0.5873  0.7880
66900SOL     OW18691   7.845   0.905   3.933 -0.5997 -0.1994 -0.0538
66900SOL    HW118692   7.763   0.944   3.901  0.1944  1.2356 -0.4169
66900SOL    HW218693   7.883   0.864   3.855  0.3570  1.5745 -0.5917
66901SOL     OW18694   8.124  13.045   9.900  0.1998  0.2794 -0.5908
66901SOL    HW118695   8.099  13.052   9.808 -1.7951 -0.9864 -0.2031
66901SOL    HW218696   8.066  13.107   9.945  1.2077  0.9391 -0.1652
66902SOL     OW18697  12.522   5.230   8.599  0.5765 -0.3513  0.3214
66902SOL    HW118698  12.475   5.219   8.516  0.4086 -1.3047  0.5357
66902SOL    HW218699  12.489   5.160   8.655 -2.2506  2.5332  2.6240
66903SOL     OW18700   5.494  11.736  13.753 -0.0222 -0.0332 -0.3866
66903SOL    HW118701   5.433  11.716  13.824  0.4725 -2.0092 -0.4661
66903SOL    HW218702   5.580  11.731  13.793  0.2783 -1.4814 -1.1454
66904SOL     OW18703   2.237  11.228   1.659  0.5221  0.6054  0.4184
66904SOL    HW118704   2.258  11.177   1.581 -0.4864 -0.1354  0.6097
66904SOL    HW218705   2.228  11.318   1.628 -2.2333  0.0035 -0.8122
66905SOL     OW18706  12.280   2.442   8.030 -0.3063 -0.1589  0.3451
66905SOL    HW118707  12.215   2.490   8.081  0.7833  2.6816 -0.7475
66905SOL    HW218708  12.246   2.444   7.940  0.8210  0.5912 -0.0895
66906SOL     OW18709   2.184  11.617   3.853 -0.3870  0.2435  0.8481
66906SOL    HW118710   2.138  11.698   3.833 -1.8700 -1.3731 -3.4922
66906SOL    HW218711   2.277  11.640   3.847 -0.7510  1.8730  1.1000
66907SOL     OW18712   8.611  11.394  10.486 -0.2488 -0.0336  0.1434
66907SOL    HW118713   8.519  11.375  10.506 -0.7366  0.7987 -1.1813
66907SOL    HW218714   8.612  11.412  10.392  1.2915 -0.1029  0.1248
66908SOL     OW18715  11.348   8.890   6.838  0.1123 -0.4982 -0.0407
66908SOL    HW118716  11.295   8.811   6.841  0.2643 -0.7652 -2.5344
66908SOL    HW218717  11.432   8.861   6.802 -0.0824  0.8556 -1.7385
66909SOL     OW18718   1.164  13.103   6.478 -0.0585  0.3923 -0.1843
66909SOL    HW118719   1.239  13.081   6.533  0.3382  0.5007 -0.6802
66909SOL    HW218720   1.088  13.077   6.530  0.3489 -0.8853 -0.2032
66910SOL     OW18721   2.564   2.829   4.195 -0.2260  0.1222  0.7823
66910SOL    HW118722   2.583   2.744   4.155 -0.6692  1.0229 -1.4834
66910SOL    HW218723   2.479   2.817   4.237 -0.6361 -0.3643 -0.1599
66911SOL     OW18724   6.248   9.212   6.630 -0.3925 -0.1946  0.5677
66911SOL    HW118725   6.267   9.132   6.581 -2.2026 -0.9156  0.9770
66911SOL    HW218726   6.246   9.281   6.563  3.1627 -0.0171  0.4250
66912SOL     OW18727   8.645   0.935   5.277  0.1332 -0.1437  0.2893
66912SOL    HW118728   8.593   0.870   5.325 -0.0952 -0.2862 -0.1396
66912SOL    HW218729   8.732   0.929   5.314  0.0476 -0.5196  0.4296
66913SOL     OW18730   9.397   1.680   9.335  0.4534 -0.2714 -0.4572
66913SOL    HW118731   9.435   1.594   9.353 -0.3576 -1.0697 -2.2827
66913SOL    HW218732   9.437   1.707   9.252  0.6556  1.1157  0.0619
66914SOL     OW18733  10.205   4.600   9.864  0.6714 -0.0910  0.0409
66914SOL    HW118734  10.175   4.642   9.782 -0.8438  0.7452  0.9670
66914SOL    HW218735  10.251   4.522   9.835  2.8769  1.7225 -1.7519
66915SOL     OW18736  11.144  12.178   5.487  0.2011  0.3850 -0.4938
66915SOL    HW118737  11.118  12.119   5.416 -0.2534 -0.2595  0.1969
66915SOL    HW218738  11.214  12.231   5.449 -0.4799  0.5033 -1.6281
66916SOL     OW18739  12.442   0.714  11.818 -0.3591  0.1202 -0.3230
66916SOL    HW118740  12.464   0.623  11.841  1.2378  0.5886  0.0978
66916SOL    HW218741  12.369   0.705  11.757  0.5992 -1.5452 -1.3363
66917SOL     OW18742   9.220  11.222   0.808  0.2000 -0.2007 -0.3073
66917SOL    HW118743   9.188  11.292   0.751 -0.4484  0.4994  0.8828
66917SOL    HW218744   9.315  11.234   0.808  0.1399  0.3272 -0.5635
66918SOL     OW18745   6.654  10.670   6.366  0.0252 -0.0898  0.2887
66918SOL    HW118746   6.600  10.598   6.336  0.9149 -1.3794  1.6526
66918SOL    HW218747   6.599  10.748   6.355 -1.9338 -1.2775  1.1694
66919SOL     OW18748   2.415   0.286   9.325  0.4189 -0.1853 -0.1207
66919SOL    HW118749   2.437   0.351   9.258 -0.4513  0.0533 -0.1897
66919SOL    HW218750   2.490   0.287   9.385  1.1303 -0.2816 -0.9946
66920SOL     OW18751   9.245   5.801   8.501  0.2412  0.4175 -0.5015
66920SOL    HW118752   9.293   5.794   8.418  1.2920  1.1793  0.0339
66920SOL    HW218753   9.278   5.880   8.542 -1.5801  1.0627 -0.1591
66921SOL     OW18754   9.474   1.725   7.400  0.2578  0.3331 -0.0830
66921SOL    HW118755   9.536   1.788   7.436  0.4075  0.9727 -1.4199
66921SOL    HW218756   9.474   1.741   7.306 -0.6690 -0.8028 -0.3082
66922SOL     OW18757   3.398   8.385   3.218 -0.1469  0.0876 -0.1153
66922SOL    HW118758   3.374   8.310   3.165  0.7705  0.3848 -0.9705
66922SOL    HW218759   3.412   8.348   3.306  0.5636 -0.7938 -0.5792
66923SOL     OW18760  10.691   8.041   7.951  0.4332 -0.8298  0.3211
66923SOL    HW118761  10.758   8.108   7.965  1.1255 -1.3595 -0.3909
66923SOL    HW218762  10.678   8.039   7.856  0.0634 -1.3644  0.3757
66924SOL     OW18763   9.315   5.183   7.106  0.2987 -0.3172 -0.1560
66924SOL    HW118764   9.388   5.233   7.142 -0.5489  1.3761 -0.6806
66924SOL    HW218765   9.345   5.156   7.019 -0.8703  3.6062 -2.0223
66925SOL     OW18766   5.128   4.768  10.396  0.1213 -0.1394  0.1135
66925SOL    HW118767   5.207   4.728  10.361  0.1080  0.8938 -1.1688
66925SOL    HW218768   5.059   4.705  10.379  0.4332 -0.4394 -0.0435
66926SOL     OW18769  13.530   0.703   3.106  0.4367 -0.0541 -0.1276
66926SOL    HW118770  13.477   0.623   3.110 -0.5684  0.6262  0.6304
66926SOL    HW218771  13.581   0.693   3.026 -2.9238  0.4864 -2.5539
66927SOL     OW18772   1.501   4.107  10.985  0.7297  0.3900 -0.2359
66927SOL    HW118773   1.488   4.163  10.909  0.8781  1.9852  0.8592
66927SOL    HW218774   1.595   4.112  11.003  0.7310 -0.1501 -0.0683
66928SOL     OW18775   8.296  13.607   8.593 -0.1012 -0.1611 -0.4784
66928SOL    HW118776   8.301  13.670   8.522  1.4166  0.0810 -0.1777
66928SOL    HW218777   8.339  13.650   8.667 -0.3120 -1.0013  0.1542
66929SOL     OW18778   7.870   8.743   2.602  0.2171  0.0289 -0.5382
66929SOL    HW118779   7.920   8.813   2.559  0.9464 -0.6263 -0.7798
66929SOL    HW218780   7.924   8.717   2.676  0.8145 -1.4750 -1.4659
66930SOL     OW18781   2.022   0.315  12.119 -0.6830  0.4217  0.7215
66930SOL    HW118782   1.941   0.285  12.077 -1.4516  2.2856  0.7488
66930SOL    HW218783   2.027   0.266  12.200 -0.0801 -2.0043 -0.6892
66931SOL     OW18784  13.627  11.494   2.224  0.6841  0.3310 -0.4702
66931SOL    HW118785  13.614  11.479   2.318  0.9136 -0.7489 -0.5917
66931SOL    HW218786  13.566  11.564   2.202  1.5533  1.5281  0.7423
66932SOL     OW18787   8.645   7.960   1.127 -0.4182 -0.2770 -0.2395
66932SOL    HW118788   8.722   7.920   1.088 -0.7965 -0.8101 -0.4529
66932SOL    HW218789   8.668   7.972   1.219 -0.7607 -2.2467  0.1442
66933SOL     OW18790   7.304   0.634  11.942 -0.3327 -0.3105  0.2568
66933SOL    HW118791   7.239   0.567  11.960  1.0032 -1.6864  0.2026
66933SOL    HW218792   7.387   0.596  11.973  0.4589  1.3716  0.3496
66934SOL     OW18793   3.314   9.856  11.685  0.5360  0.4335  0.1425
66934SOL    HW118794   3.367   9.818  11.614  1.1924 -0.8226  1.2592
66934SOL    HW218795   3.376   9.871  11.756 -0.2659  0.8520  0.7755
66935SOL     OW18796   1.459   2.812   8.423  0.1934  0.1215  0.4640
66935SOL    HW118797   1.535   2.852   8.465  0.2186 -0.4581  0.9884
66935SOL    HW218798   1.489   2.786   8.337  1.0830 -1.5801  1.2418
66936SOL     OW18799   8.826   0.481   8.888 -0.0523 -0.1447 -0.2050
66936SOL    HW118800   8.795   0.406   8.940  3.4543 -1.0667  0.8738
66936SOL    HW218801   8.808   0.456   8.797 -0.5390 -1.4839  0.2297
66937SOL     OW18802  13.757   0.852  13.675  0.1210  0.1046 -0.1918
66937SOL    HW118803  13.789   0.779  13.621 -1.4971 -0.0766 -1.0025
66937SOL    HW218804  13.835   0.895  13.707  1.1368 -1.8275  0.0790
66938SOL     OW18805   8.388   8.821   6.041  0.2570  0.1697  0.0893
66938SOL    HW118806   8.466   8.811   5.986  0.8932  2.2601  0.5052
66938SOL    HW218807   8.320   8.852   5.980  1.4408  4.3202  0.5539
66939SOL     OW18808   1.053   1.614   3.309  0.0702  1.0082 -0.3579
66939SOL    HW118809   1.144   1.642   3.299  0.4346  0.7070  1.7305
66939SOL    HW218810   1.054   1.522   3.283  1.3956 -0.3155  3.6306
66940SOL     OW18811  11.946   0.783   7.125  0.7069 -0.0557  1.1777
66940SOL    HW118812  12.035   0.748   7.114  0.9138  0.8839 -0.4210
66940SOL    HW218813  11.907   0.776   7.038 -0.8521 -0.5565  1.8880
66941SOL     OW18814  13.425  10.811  13.474 -0.4047  0.5641  0.1876
66941SOL    HW118815  13.421  10.906  13.467  1.2530  0.8133  1.8244
66941SOL    HW218816  13.346  10.787  13.522 -0.3753  1.2114  0.5656
66942SOL     OW18817   0.779   2.591   0.167 -0.6320 -0.3275  0.2621
66942SOL    HW118818   0.709   2.649   0.196 -0.7174  0.1758 -0.9007
66942SOL    HW218819   0.805   2.543   0.246 -2.1008 -0.3409  0.7578
66943SOL     OW18820  11.760   5.368   5.715 -0.4435 -0.0122  0.4388
66943SOL    HW118821  11.668   5.341   5.713  0.0914 -1.9884 -1.4624
66943SOL    HW218822  11.771   5.423   5.638  0.6130 -2.6003 -1.4348
66944SOL     OW18823   6.831   9.903   2.821  0.6171 -0.2849 -0.2055
66944SOL    HW118824   6.903   9.886   2.883  1.0704  0.5622 -0.4803
66944SOL    HW218825   6.867   9.880   2.736  0.7816  0.7034 -0.4157
66945SOL     OW18826   4.168   4.903  10.570 -0.5049  0.0449  0.2885
66945SOL    HW118827   4.181   4.853  10.650 -1.5464 -0.2958  0.2573
66945SOL    HW218828   4.185   4.994  10.595  3.5438 -0.3906 -0.1310
66946SOL     OW18829   4.609   6.122   4.556  0.3816  0.1441 -0.2417
66946SOL    HW118830   4.550   6.190   4.589 -0.0987 -0.1252 -0.5331
66946SOL    HW218831   4.592   6.120   4.462 -0.0080 -0.7519 -0.1642
66947SOL     OW18832   0.736   9.219  11.973 -0.5959 -0.3511 -0.1167
66947SOL    HW118833   0.772   9.294  12.021 -0.7223 -0.1425 -0.3449
66947SOL    HW218834   0.652   9.200  12.016 -0.3737 -0.6203  0.1989
66948SOL     OW18835   3.770   0.853   1.338 -0.3073  0.5618 -0.0247
66948SOL    HW118836   3.748   0.909   1.264  0.2985  1.3288  0.3577
66948SOL    HW218837   3.689   0.845   1.388 -0.5362  0.6265 -0.3808
66949SOL     OW18838   0.805   1.675   4.287  0.3690 -0.3188 -0.0892
66949SOL    HW118839   0.785   1.590   4.327  0.5083 -0.4005 -0.1972
66949SOL    HW218840   0.771   1.669   4.198  0.6493 -0.3663 -0.1919
66950SOL     OW18841   4.867   7.463   0.694 -0.5988  0.1390 -0.4691
66950SOL    HW118842   4.849   7.553   0.669 -2.2552 -0.4235 -1.4658
66950SOL    HW218843   4.855   7.412   0.614 -0.6206 -1.0809  0.2735
66951SOL     OW18844  10.180  12.428   0.794 -0.2988  0.5006  0.3558
66951SOL    HW118845  10.116  12.495   0.769 -1.7656 -0.2059  2.0332
66951SOL    HW218846  10.212  12.393   0.711 -1.7294  1.2044 -0.5224
66952SOL     OW18847  12.808  12.633  14.141 -0.0976 -0.9275  0.3207
66952SOL    HW118848  12.750  12.684  14.085 -0.0685 -1.2434  0.0056
66952SOL    HW218849  12.802  12.677  14.227  2.5415  1.7562 -0.6961
66953SOL     OW18850   5.635  12.204  11.616 -0.0827  0.3439  0.2572
66953SOL    HW118851   5.723  12.179  11.589 -1.3147 -1.7845 -2.2505
66953SOL    HW218852   5.626  12.170  11.704  1.1207 -0.7609 -0.0188
66954SOL     OW18853   0.769   8.784   8.199 -0.7103 -0.1900  0.3971
66954SOL    HW118854   0.730   8.798   8.112 -0.4170 -0.4611  0.2193
66954SOL    HW218855   0.839   8.720   8.184  0.0683  0.5824  0.6386
66955SOL     OW18856   3.194   7.395   9.949 -0.1863 -0.3160  0.1567
66955SOL    HW118857   3.287   7.376   9.938 -0.3561 -0.5110 -1.0289
66955SOL    HW218858   3.184   7.410  10.043  0.7469 -1.9275  0.5602
66956SOL     OW18859   8.426   6.856   5.487 -0.2890 -0.4556 -0.8178
66956SOL    HW118860   8.434   6.761   5.488 -0.2364 -0.4871  1.3938
66956SOL    HW218861   8.343   6.874   5.532  1.0053  0.5280  1.3934
66957SOL     OW18862   4.728   9.359   0.139 -0.2337 -0.0584  0.0525
66957SOL    HW118863   4.780   9.345   0.218 -0.8717 -0.0438  0.4872
66957SOL    HW218864   4.787   9.338   0.067  0.8482  1.4670  0.4599
66958SOL     OW18865   9.378   8.094   0.796 -0.3102 -0.3824  0.1425
66958SOL    HW118866   9.421   8.154   0.735 -1.2454  1.3062  1.0640
66958SOL    HW218867   9.284   8.110   0.782 -0.5483  0.3562  2.2755
66959SOL     OW18868  10.856  11.786   2.625  0.3524  0.0093 -0.1220
66959SOL    HW118869  10.820  11.873   2.644 -2.4026 -1.0482 -0.0153
66959SOL    HW218870  10.844  11.775   2.531 -0.4017 -0.6807  0.0454
66960SOL     OW18871   9.994   8.642   7.674  0.2340 -0.3895 -0.2467
66960SOL    HW118872   9.959   8.688   7.751 -0.1648  0.8669 -1.1474
66960SOL    HW218873   9.968   8.551   7.686 -0.4935 -0.0663  0.7251
66961SOL     OW18874   5.312  11.589  11.630 -0.1131  0.3232  0.3834
66961SOL    HW118875   5.279  11.653  11.694 -1.0856  1.2737 -1.0034
66961SOL    HW218876   5.352  11.643  11.562 -0.8877 -0.5267 -0.7845
66962SOL     OW18877   0.141  11.706  11.907 -0.2589  0.1085  0.0733
66962SOL    HW118878   0.195  11.631  11.931 -1.3273 -1.0380 -0.9582
66962SOL    HW218879   0.169  11.728  11.818 -1.0941 -0.1654 -0.2704
66963SOL     OW18880   8.703  12.882   9.568  0.2901 -0.0937  0.0147
66963SOL    HW118881   8.639  12.814   9.586  1.5832 -0.8617  1.9421
66963SOL    HW218882   8.770  12.872   9.635  0.2174  3.5180  0.8315
66964SOL     OW18883   7.128  11.052   2.761  0.1777 -0.9003 -0.2812
66964SOL    HW118884   7.166  11.026   2.845 -0.1593  0.7742  0.4278
66964SOL    HW218885   7.198  11.039   2.698  1.4663  0.6137  0.7581
66965SOL     OW18886   3.489   8.254   0.470 -0.1708 -0.1818 -0.1768
66965SOL    HW118887   3.537   8.181   0.430  1.8787  1.3695 -0.6677
66965SOL    HW218888   3.545   8.284   0.541 -0.8702  1.0890 -0.1362
66966SOL     OW18889  13.093   2.963   9.804  0.3312 -0.0401  0.3854
66966SOL    HW118890  13.096   2.877   9.847 -0.0748 -0.1529  0.1971
66966SOL    HW218891  13.001   2.989   9.810  0.2859 -0.0235 -0.3472
66967SOL     OW18892  13.963   3.589   3.668  0.3371  0.1624 -0.0783
66967SOL    HW118893  13.919   3.583   3.583 -0.0743  0.6497  0.0962
66967SOL    HW218894  13.902   3.637   3.723 -0.1395 -1.5868  0.9933
66968SOL     OW18895   9.947  12.226   4.224  0.2372 -0.3072  0.2867
66968SOL    HW118896  10.013  12.207   4.157 -0.7490  0.9243 -1.0993
66968SOL    HW218897   9.909  12.140   4.244 -1.3731 -0.4611 -2.8500
66969SOL     OW18898  14.047  13.936   6.202 -0.6797  0.1280 -0.2377
66969SOL    HW118899  13.956  13.961   6.219 -1.3394 -0.9071 -1.9108
66969SOL    HW218900  14.085  14.013   6.159 -0.7434  0.5623  0.4638
66970SOL     OW18901  10.439   7.309   6.493  0.1637 -0.1080  0.0968
66970SOL    HW118902  10.510   7.292   6.431  0.3711 -0.2296  0.3663
66970SOL    HW218903  10.445   7.238   6.556  0.0456  0.0988  0.3420
66971SOL     OW18904   9.163   4.106   1.468 -0.3556 -0.4850  0.6417
66971SOL    HW118905   9.230   4.050   1.506  1.4767  0.4819 -1.0104
66971SOL    HW218906   9.146   4.069   1.382 -2.2113 -0.8825  1.1310
66972SOL     OW18907   3.825   9.934   7.717  0.2138 -0.4868 -0.1632
66972SOL    HW118908   3.882  10.002   7.753  0.4839 -0.9250  0.2486
66972SOL    HW218909   3.832   9.945   7.622 -1.7306  1.7097 -0.1468
66973SOL     OW18910   4.497  12.122   9.650 -0.4734  0.4934  0.1435
66973SOL    HW118911   4.571  12.066   9.629 -0.1042  0.9385  0.2235
66973SOL    HW218912   4.437  12.066   9.698  0.6847  0.5994  1.8068
66974SOL     OW18913   0.409  12.392   7.924 -0.8880 -0.6297  0.6045
66974SOL    HW118914   0.360  12.345   7.992 -2.2376 -0.1099  0.0375
66974SOL    HW218915   0.490  12.342   7.914  0.1266  0.1459  3.7073
66975SOL     OW18916  11.006   8.510   8.332 -0.2562  0.4773 -0.5083
66975SOL    HW118917  10.955   8.486   8.255  0.6830  1.7609 -1.5860
66975SOL    HW218918  11.018   8.605   8.324  0.7939  0.4714  0.6455
66976SOL     OW18919   8.320   8.698   1.271  0.1339  0.2549 -0.2221
66976SOL    HW118920   8.248   8.691   1.208  0.0056  0.1320 -0.0644
66976SOL    HW218921   8.276   8.706   1.356  0.3064 -0.1837 -0.0890
66977SOL     OW18922   6.255   4.984   5.519 -0.1779 -0.1171 -0.0274
66977SOL    HW118923   6.248   4.898   5.559  0.5184 -0.7755 -1.2642
66977SOL    HW218924   6.249   4.968   5.425  0.8935  1.0552 -0.3363
66978SOL     OW18925   3.499  12.394  11.832 -0.0028  0.5297  0.0955
66978SOL    HW118926   3.589  12.364  11.822 -0.2179 -0.8438  1.9394
66978SOL    HW218927   3.452  12.350  11.761  0.5453  0.3405 -0.1609
66979SOL     OW18928   2.186   1.037  10.290  0.0780  0.3877 -0.3753
66979SOL    HW118929   2.153   0.959  10.333  0.6597  0.9352  1.1457
66979SOL    HW218930   2.108   1.080  10.254 -0.3186 -0.5185 -0.6288
66980SOL     OW18931   7.596   0.332  13.805 -0.1166 -0.3281 -0.2776
66980SOL    HW118932   7.555   0.260  13.758 -0.8532  0.1944 -0.4662
66980SOL    HW218933   7.641   0.383  13.737 -2.2127  1.1283 -0.6944
66981SOL     OW18934   7.597  13.373   9.195  0.7567  0.5174  0.5661
66981SOL    HW118935   7.642  13.324   9.264 -0.1313 -2.5669 -0.8740
66981SOL    HW218936   7.666  13.393   9.131  0.9736  0.3230  0.7381
66982SOL     OW18937  12.172   4.306   4.638  0.0376 -0.1126 -0.7627
66982SOL    HW118938  12.201   4.242   4.574 -0.1974 -1.0627  0.0532
66982SOL    HW218939  12.104   4.261   4.689 -0.9138  1.1486 -0.8679
66983SOL     OW18940   4.194   8.559  14.069  0.1652 -0.3083  0.3291
66983SOL    HW118941   4.260   8.516  14.015 -0.2349 -0.1270 -0.3212
66983SOL    HW218942   4.193   8.649  14.038 -0.3840 -0.3092  0.3250
66984SOL     OW18943  12.689   0.761   2.106 -0.2654 -0.4279 -0.4680
66984SOL    HW118944  12.718   0.826   2.042 -1.0180  0.5733  0.1724
66984SOL    HW218945  12.766   0.706   2.122  0.9088  1.3128  0.1797
66985SOL     OW18946   7.158   7.129  10.004  0.5531 -0.2312 -0.5604
66985SOL    HW118947   7.251   7.130   9.982  0.5813 -0.8373 -0.4838
66985SOL    HW218948   7.114   7.123   9.919  0.6564 -2.3544 -0.5025
66986SOL     OW18949  10.882   8.153   4.080 -0.3387  0.3454  0.1873
66986SOL    HW118950  10.787   8.142   4.081 -0.1335 -1.7363  0.8409
66986SOL    HW218951  10.907   8.151   4.173  0.3749  0.5894  0.0032
66987SOL     OW18952  12.882  12.867  10.178 -0.2069 -0.2737 -0.3333
66987SOL    HW118953  12.805  12.828  10.136 -0.3668 -0.6483  0.2910
66987SOL    HW218954  12.874  12.841  10.270  0.2783  0.3038 -0.1259
66988SOL     OW18955   5.494   2.617   0.331 -0.4733  0.1416 -0.4799
66988SOL    HW118956   5.407   2.632   0.366 -0.4670  0.9015 -0.7894
66988SOL    HW218957   5.529   2.704   0.312  0.2775 -0.1597 -0.5436
66989SOL     OW18958   4.334   0.004  11.405 -0.7743  0.2161  0.6642
66989SOL    HW118959   4.358  -0.081  11.369 -0.9551 -0.5273  2.2526
66989SOL    HW218960   4.257   0.030  11.355  1.2219  1.1097 -2.2276
66990SOL     OW18961   0.431   9.630  11.506 -0.0379  0.3295  0.6993
66990SOL    HW118962   0.387   9.547  11.490  0.3679 -0.3344  2.6717
66990SOL    HW218963   0.368   9.680  11.559 -0.2328  1.2603 -0.3719
66991SOL     OW18964   3.639  11.713   7.412 -0.0594  0.3630 -0.2715
66991SOL    HW118965   3.543  11.713   7.411 -0.1400  1.2397  1.9189
66991SOL    HW218966   3.663  11.626   7.443 -0.2504  0.8210  1.2226
66992SOL     OW18967  11.204   8.562   4.946  0.4740  0.2028  0.7348
66992SOL    HW118968  11.288   8.520   4.965  0.0287 -1.1037 -0.1272
66992SOL    HW218969  11.166   8.578   5.032  0.2780 -1.9771  1.1135
66993SOL     OW18970   4.894   4.817   8.602 -0.3959  0.1106 -0.2218
66993SOL    HW118971   4.946   4.782   8.530  0.7277  0.1538  0.5522
66993SOL    HW218972   4.834   4.746   8.626  1.3855 -1.0970  0.8691
66994SOL     OW18973   6.995   5.518   0.133  0.1570 -0.3806  0.1830
66994SOL    HW118974   6.998   5.594   0.076  0.1896 -0.6692 -0.2044
66994SOL    HW218975   6.930   5.540   0.199 -1.1754 -0.7215 -0.9664
66995SOL     OW18976   5.093   3.972   5.421 -0.4572 -0.3593 -0.1741
66995SOL    HW118977   5.084   4.061   5.455  2.4585 -0.0131 -0.0910
66995SOL    HW218978   5.003   3.945   5.401 -1.5263  2.1764  0.7975
66996SOL     OW18979   4.433  12.243   4.627 -0.2937  0.3814 -0.7608
66996SOL    HW118980   4.427  12.150   4.608  2.5910 -0.1298  0.2263
66996SOL    HW218981   4.343  12.273   4.633 -1.3478 -2.6239  0.0860
66997SOL     OW18982  10.926   9.330   1.084 -0.2845 -0.3532  0.2595
66997SOL    HW118983  10.909   9.408   1.136 -1.1818  0.3253 -0.9860
66997SOL    HW218984  10.876   9.261   1.127 -0.6771  0.0987  0.5349
66998SOL     OW18985   3.303   7.053  10.216  0.0103 -0.1559  0.3466
66998SOL    HW118986   3.258   7.067  10.133 -0.9371 -0.9682  0.7117
66998SOL    HW218987   3.371   6.989  10.195 -0.7673 -1.0042  0.3616
66999SOL     OW18988  13.180   4.269  11.307  0.3176 -0.3732 -0.4595
66999SOL    HW118989  13.106   4.220  11.271 -0.6182  1.7149 -1.5013
66999SOL    HW218990  13.197   4.338  11.243  1.0830  1.1491  1.2858
67000SOL     OW18991   9.275   5.330   6.728 -0.3858 -0.2767  0.2231
67000SOL    HW118992   9.191   5.367   6.754 -0.7893 -0.1963 -1.1088
67000SOL    HW218993   9.252   5.254   6.674  0.4250 -1.9480  2.1181
67001SOL     OW18994   7.970  11.791  11.310  0.1418 -0.3012  0.1933
67001SOL    HW118995   7.880  11.759  11.319  0.1103  0.0404  1.2230
67001SOL    HW218996   7.961  11.885  11.293  0.2944 -0.0393  1.4016
67002SOL     OW18997   3.703   3.412   3.613 -0.3147  1.0960  0.5845
67002SOL    HW118998   3.613   3.403   3.645 -0.0099 -1.9154  0.9348
67002SOL    HW218999   3.693   3.445   3.523 -2.0414 -1.5595 -0.3297
67003SOL     OW19000   5.238   4.143   9.544 -0.3765 -0.1453  0.1931
67003SOL    HW119001   5.318   4.094   9.564 -1.4299 -1.4270  1.4217
67003SOL    HW219002   5.176   4.077   9.513 -1.5403  0.5380  0.9955
67004SOL     OW19003   1.078   2.962  12.536 -0.0833 -0.4211 -0.1385
67004SOL    HW119004   1.163   2.954  12.492 -0.2293  1.0964 -0.7526
67004SOL    HW219005   1.090   3.033  12.598 -1.6776  1.8950 -2.2964
67005SOL     OW19006  10.163   2.662   6.800 -0.8500  0.3627  0.5067
67005SOL    HW119007  10.176   2.753   6.826 -1.3232  0.5307  0.1752
67005SOL    HW219008  10.234   2.614   6.843  0.0505  1.0466 -0.1819
67006SOL     OW19009   0.191   0.290   6.987  0.5657 -0.8573  0.4515
67006SOL    HW119010   0.149   0.280   6.901 -0.1909  1.5618  0.4807
67006SOL    HW219011   0.268   0.344   6.969 -0.4470  1.0333  1.4445
67007SOL     OW19012   5.317   4.264   5.107 -0.2476  0.5137  0.9783
67007SOL    HW119013   5.257   4.196   5.138  0.6624  0.0965  1.8461
67007SOL    HW219014   5.313   4.332   5.174 -0.3830  0.8754  0.6120
67008SOL     OW19015   8.468   4.410  12.089 -0.3065 -0.3955 -0.0898
67008SOL    HW119016   8.473   4.426  11.995  0.4431  1.3939  0.2257
67008SOL    HW219017   8.555   4.430  12.122 -1.3441  2.1863  1.3996
67009SOL     OW19018   8.907   5.028   1.541  0.2307 -0.0434 -0.1607
67009SOL    HW119019   8.938   5.007   1.453  1.6302  1.8470 -0.1879
67009SOL    HW219020   8.812   5.026   1.534  0.3037  0.6354 -1.8790
67010SOL     OW19021   3.385   1.227   1.767 -0.3634  0.5737 -0.0530
67010SOL    HW119022   3.434   1.232   1.685 -0.9395 -3.1631 -0.8232
67010SOL    HW219023   3.449   1.252   1.834  1.2189  0.2894 -1.3816
67011SOL     OW19024   1.854  12.855   8.238 -0.3743  0.1489  0.4898
67011SOL    HW119025   1.771  12.845   8.286 -0.8810  2.0881  0.0971
67011SOL    HW219026   1.856  12.780   8.178 -3.2532  1.4426 -1.4799
67012SOL     OW19027  10.270   2.793   8.229  0.0293 -0.2656 -0.0443
67012SOL    HW119028  10.244   2.840   8.309 -0.6427 -1.9073  0.7391
67012SOL    HW219029  10.221   2.837   8.160  1.0516  1.5538  0.3241
67013SOL     OW19030   8.969   4.568   9.010  0.4649 -0.0705  0.3562
67013SOL    HW119031   8.984   4.538   9.100  1.5372 -0.4639  0.0682
67013SOL    HW219032   9.043   4.625   8.991  0.0671  0.2770 -0.1687
67014SOL     OW19033   0.670  10.822   1.942 -0.1458 -0.6265 -0.3475
67014SOL    HW119034   0.742  10.779   1.896 -0.8153 -1.2089 -0.8734
67014SOL    HW219035   0.671  10.784   2.030  1.7555  1.1928  0.5129
67015SOL     OW19036   2.253   9.534   4.221 -0.1080  0.3669  0.0438
67015SOL    HW119037   2.310   9.560   4.149 -1.6313 -1.3411 -1.8997
67015SOL    HW219038   2.189   9.605   4.228 -0.0193  0.4900 -0.3594
67016SOL     OW19039  13.472   1.713   7.256  0.0399  0.8031  0.6240
67016SOL    HW119040  13.518   1.773   7.315 -0.0024  1.7333 -0.2536
67016SOL    HW219041  13.380   1.734   7.268 -0.0216  0.3897  0.8654
67017SOL     OW19042  10.869   2.698   1.140 -0.1651 -0.5949 -0.0688
67017SOL    HW119043  10.808   2.681   1.068  0.9396 -0.5290 -1.0486
67017SOL    HW219044  10.920   2.773   1.111  1.4514 -1.6276  0.0184
67018SOL     OW19045   9.923  12.817   4.602  0.2109  0.0509 -0.1486
67018SOL    HW119046   9.902  12.885   4.538 -0.9101  1.2031  1.3406
67018SOL    HW219047   9.987  12.761   4.559 -1.5829 -0.1074 -2.8138
67019SOL     OW19048   0.470   1.044   4.366 -0.2827  0.0952  0.1860
67019SOL    HW119049   0.513   1.020   4.283 -0.3989  0.7054 -0.0533
67019SOL    HW219050   0.459   0.960   4.412 -0.0505 -0.2271 -0.3336
67020SOL     OW19051  11.425   0.187   5.785 -0.1548  0.1365 -0.4618
67020SOL    HW119052  11.433   0.279   5.757  0.8219  0.2787  0.2289
67020SOL    HW219053  11.496   0.175   5.848 -0.5603 -0.9741 -0.1952
67021SOL     OW19054   5.662  12.224   2.971  0.0406  0.4961  0.1846
67021SOL    HW119055   5.733  12.280   3.002 -1.4413  2.3054  0.4913
67021SOL    HW219056   5.596  12.228   3.040 -0.1681 -1.6200  0.1758
67022SOL     OW19057   1.652  12.977  12.815  0.3977 -0.3106 -0.7158
67022SOL    HW119058   1.581  12.914  12.829  0.4244 -0.3945 -0.9566
67022SOL    HW219059   1.722  12.926  12.775  0.6429 -0.2543 -0.3635
67023SOL     OW19060   6.919   9.592   1.664 -0.1847  0.3574  0.3493
67023SOL    HW119061   6.893   9.664   1.606  0.8509 -0.1031 -0.7204
67023SOL    HW219062   6.840   9.540   1.675 -0.5320  0.7613 -0.1947
67024SOL     OW19063  10.491  10.235  10.941 -0.3719 -0.9485 -0.1779
67024SOL    HW119064  10.583  10.221  10.918 -0.4295 -1.3012 -0.2003
67024SOL    HW219065  10.486  10.328  10.964 -0.1666 -0.7600 -0.8893
67025SOL     OW19066  10.067   2.875   1.825  0.0468  0.0353  0.6220
67025SOL    HW119067  10.143   2.894   1.770  0.2334  1.1107  1.2192
67025SOL    HW219068  10.076   2.783   1.848  1.5318  0.2929  1.1865
67026SOL     OW19069   7.044  13.956  11.663  0.0984 -0.5187  1.0408
67026SOL    HW119070   7.077  14.046  11.661  1.2915 -0.8744  2.5333
67026SOL    HW219071   6.957  13.963  11.703 -0.5844  0.1345 -0.4743
67027SOL     OW19072  13.539   1.902   8.677 -0.2864  0.1652  0.1074
67027SOL    HW119073  13.584   1.982   8.649  1.1958 -0.4244  0.7220
67027SOL    HW219074  13.483   1.879   8.603  0.5787  0.8183 -0.7670
67028SOL     OW19075   5.711  10.013  12.055  0.3761 -0.0506 -0.2001
67028SOL    HW119076   5.775  10.080  12.031  1.3266 -0.5495  0.8303
67028SOL    HW219077   5.632  10.036  12.007  1.5235  0.1908 -2.0788
67029SOL     OW19078   5.500   3.215  10.612  0.4394  0.1662 -0.3012
67029SOL    HW119079   5.460   3.148  10.557  2.6252 -1.6074  0.1417
67029SOL    HW219080   5.467   3.198  10.700  0.0651  0.4498 -0.3844
67030SOL     OW19081  12.212  13.107   1.976 -0.3341 -0.0025 -0.0753
67030SOL    HW119082  12.214  13.026   2.028  1.3783 -0.6588 -1.0639
67030SOL    HW219083  12.232  13.176   2.038  1.3905 -0.7377  0.2543
67031SOL     OW19084   5.611  14.050  13.628  0.7279  0.0156 -0.0944
67031SOL    HW119085   5.594  14.004  13.710  2.6008  2.7978  2.0587
67031SOL    HW219086   5.574  13.993  13.560 -0.8560 -2.4726  2.6163
67032SOL     OW19087   5.579  14.141   4.548 -0.3082 -0.6471  0.0215
67032SOL    HW119088   5.536  14.066   4.588 -2.0519 -0.3109 -1.1117
67032SOL    HW219089   5.648  14.103   4.492 -0.1862 -1.2981  0.6054
67033SOL     OW19090   9.164  13.191   7.426 -0.4602 -0.1753 -0.0908
67033SOL    HW119091   9.173  13.286   7.426 -0.1015 -0.2070 -0.2759
67033SOL    HW219092   9.088  13.175   7.370 -0.6535  0.0106  0.1147
67034SOL     OW19093   8.823   6.090   7.514 -0.5191  0.7806  0.1180
67034SOL    HW119094   8.763   6.163   7.504 -2.1296 -0.5944 -0.6704
67034SOL    HW219095   8.811   6.037   7.435  0.3557 -0.5101  0.8047
67035SOL     OW19096  10.051   7.549   0.710  0.0726 -0.1438  0.1280
67035SOL    HW119097  10.097   7.603   0.645 -0.0631  0.8621  0.8504
67035SOL    HW219098  10.110   7.549   0.786  0.6310 -2.0183 -0.2602
67036SOL     OW19099   1.314   7.960  12.271  0.1319 -0.0095 -0.1051
67036SOL    HW119100   1.223   7.931  12.278  0.4727 -1.0320  0.4372
67036SOL    HW219101   1.343   7.930  12.185  0.0680 -0.0263 -0.1205
67037SOL     OW19102   9.674   2.978  13.543  0.1397 -0.4883  0.4854
67037SOL    HW119103   9.705   3.028  13.619 -0.3737 -0.7063  0.8429
67037SOL    HW219104   9.732   2.902  13.539  1.1930  0.3200 -0.3100
67038SOL     OW19105   7.417   7.522   6.904 -0.0267  0.4497  0.5413
67038SOL    HW119106   7.400   7.523   6.998 -2.1391 -0.6610  0.2203
67038SOL    HW219107   7.418   7.429   6.881 -0.4562  0.7310 -0.6835
67039SOL     OW19108   7.053   5.224   4.629 -0.2999  0.6237  0.4638
67039SOL    HW119109   7.037   5.303   4.576 -1.6444  1.3251  1.8267
67039SOL    HW219110   6.966   5.200   4.662 -0.1377 -2.1785 -0.8579
67040SOL     OW19111   0.915   5.543  11.677 -0.2600 -0.0366 -0.0787
67040SOL    HW119112   0.893   5.491  11.599  0.4250 -0.0022 -0.3095
67040SOL    HW219113   0.889   5.488  11.751 -1.2159  0.0657 -0.3241
67041SOL     OW19114  12.842   7.185   4.203 -0.3113 -0.1999  0.3557
67041SOL    HW119115  12.903   7.222   4.138  0.4762 -1.4121  0.3760
67041SOL    HW219116  12.755   7.209   4.171  0.1439  1.1004  0.0314
67042SOL     OW19117   1.705  12.497   5.546 -1.0229 -0.2754 -0.8972
67042SOL    HW119118   1.700  12.444   5.625  1.5913 -0.3298 -0.6995
67042SOL    HW219119   1.658  12.578   5.569 -1.6896 -0.9220  0.1217
67043SOL     OW19120   8.540   9.526   2.075 -0.0119  0.1481  0.0751
67043SOL    HW119121   8.451   9.496   2.094  0.4215 -1.5374 -0.3212
67043SOL    HW219122   8.529   9.606   2.024 -1.3200 -0.5620 -0.8030
67044SOL     OW19123   1.578   8.515   1.399 -0.3858 -0.2737 -0.1423
67044SOL    HW119124   1.597   8.597   1.353  0.8824  0.2720  1.2767
67044SOL    HW219125   1.648   8.456   1.372 -0.0972 -0.2062  0.4509
67045SOL     OW19126   0.144  11.323   8.530  0.1327  1.2329  0.0850
67045SOL    HW119127   0.065  11.372   8.506  0.6428  1.9920 -0.0586
67045SOL    HW219128   0.215  11.386   8.520  0.7495  0.5747  0.2994
67046SOL     OW19129  10.622   6.358   0.588 -0.3869  0.2294 -0.0054
67046SOL    HW119130  10.627   6.264   0.605 -0.3053  0.2128 -0.1245
67046SOL    HW219131  10.674   6.398   0.658  0.5545  0.1215 -0.6326
67047SOL     OW19132   7.319   5.362   6.540  0.2464 -0.6943 -0.1257
67047SOL    HW119133   7.372   5.417   6.482 -2.1213  0.0351 -1.7814
67047SOL    HW219134   7.303   5.282   6.490  0.4924 -1.2889  0.7164
67048SOL     OW19135   6.079   1.812   2.015 -0.1192  0.6626 -0.0074
67048SOL    HW119136   6.007   1.775   1.965 -0.3568  0.8844  0.1652
67048SOL    HW219137   6.156   1.762   1.989  0.1648  2.0797 -2.1458
67049SOL     OW19138   3.833  11.334   2.022 -0.1259  0.5098 -0.3301
67049SOL    HW119139   3.789  11.252   2.000 -0.7712  0.9139 -0.5973
67049SOL    HW219140   3.798  11.397   1.958  1.7466  0.5978 -1.3413
67050SOL     OW19141   1.999   7.201  11.402  0.1756 -0.5057 -0.4326
67050SOL    HW119142   2.033   7.121  11.362  0.3616 -0.0422 -1.2425
67050SOL    HW219143   2.036   7.202  11.490  0.7284 -0.9626 -0.6536
67051SOL     OW19144  11.149  14.049   5.971  0.6029  0.4885 -0.0213
67051SOL    HW119145  11.196  14.052   6.055  0.9348  1.8835 -0.2340
67051SOL    HW219146  11.159  14.137   5.935 -1.5489  0.6058 -0.4353
67052SOL     OW19147   8.246  12.229   6.862  0.3067 -0.4662 -0.1281
67052SOL    HW119148   8.230  12.148   6.911  0.3670 -1.9328 -2.3900
67052SOL    HW219149   8.217  12.299   6.921 -0.7602 -2.1874  1.5010
67053SOL     OW19150   1.542  11.633  10.393 -0.0204  0.0910 -0.7230
67053SOL    HW119151   1.506  11.708  10.440 -1.3178 -1.8370  1.6246
67053SOL    HW219152   1.497  11.634  10.308 -1.0751  1.1500 -0.1790
67054SOL     OW19153  13.531  10.326  13.970 -0.5291 -1.0176  0.6614
67054SOL    HW119154  13.460  10.266  13.991 -0.7555 -0.9897 -0.0175
67054SOL    HW219155  13.526  10.338  13.875 -1.0734  0.7933  0.8828
67055SOL     OW19156   0.289   7.392   2.406  0.0087 -0.2140 -0.5501
67055SOL    HW119157   0.358   7.332   2.376 -0.6451 -1.4870  0.4099
67055SOL    HW219158   0.320   7.479   2.381  0.7402 -0.9770 -2.4745
67056SOL     OW19159   0.766  13.789   9.675  0.7641 -0.0824 -0.1294
67056SOL    HW119160   0.713  13.713   9.650  2.0018 -0.7731 -0.7408
67056SOL    HW219161   0.801  13.822   9.592  3.9378 -1.6497  0.4302
67057SOL     OW19162   5.717   8.908  13.902  0.5669  0.2902 -0.1307
67057SOL    HW119163   5.714   8.817  13.932  1.5935  0.4795  0.5867
67057SOL    HW219164   5.729   8.901  13.807 -1.6816 -0.3029 -0.4428
67058SOL     OW19165   9.895   7.458   9.595  0.0094 -0.0472 -0.3108
67058SOL    HW119166   9.972   7.477   9.542  0.1953  0.5197  0.1408
67058SOL    HW219167   9.821   7.481   9.539  0.2197  2.5313  0.3165
67059SOL     OW19168  11.257   4.809   3.776 -0.0446 -0.3461  0.6886
67059SOL    HW119169  11.169   4.845   3.789  0.0132 -0.5391  1.6394
67059SOL    HW219170  11.246   4.745   3.706 -0.4408  0.3950  0.0446
67060SOL     OW19171  11.719  13.987   7.964  0.6163 -0.2266  0.3853
67060SOL    HW119172  11.652  13.997   7.896 -0.0678  0.1580  1.0952
67060SOL    HW219173  11.762  14.072   7.967  0.7274 -0.2810  0.3577
67061SOL     OW19174  13.565   9.864   7.341 -0.1200  0.2951  0.4540
67061SOL    HW119175  13.540   9.775   7.316 -0.9785 -0.0058  2.1901
67061SOL    HW219176  13.616   9.897   7.267 -0.6087 -1.2854 -0.6358
67062SOL     OW19177   1.554  12.095  12.569 -0.3292  0.3216  0.1231
67062SOL    HW119178   1.645  12.109  12.595 -0.5517 -0.5394  1.4929
67062SOL    HW219179   1.506  12.165  12.613 -0.3964  0.4162 -0.1028
67063SOL     OW19180  12.709  13.034  12.025  0.3460 -0.3167 -0.0032
67063SOL    HW119181  12.784  12.975  12.033  0.5022  0.0432  1.5173
67063SOL    HW219182  12.664  13.027  12.109 -0.3577  0.7716 -0.2678
67064SOL     OW19183   7.209   4.466   2.386 -0.6702  0.4614 -0.2360
67064SOL    HW119184   7.177   4.416   2.311 -1.2230  1.5458 -0.7365
67064SOL    HW219185   7.294   4.427   2.406 -1.2544 -0.9349 -0.3605
67065SOL     OW19186   6.349  13.484   8.797 -0.2276  0.2155 -0.4229
67065SOL    HW119187   6.423  13.427   8.774 -1.1734 -1.0886 -0.3329
67065SOL    HW219188   6.273  13.441   8.757 -0.7962  2.1468 -1.5094
67066SOL     OW19189  10.489  12.084   8.610  0.3061  0.2685  0.1096
67066SOL    HW119190  10.470  12.171   8.575  0.4148  0.3933  0.3642
67066SOL    HW219191  10.559  12.098   8.674  0.8639 -0.1088 -0.4078
67067SOL     OW19192  11.280   0.118  11.738  0.2366 -0.2624  0.1976
67067SOL    HW119193  11.328   0.131  11.820 -0.2285 -0.2648  0.4723
67067SOL    HW219194  11.331   0.166  11.673  0.4806 -0.0639  0.5326
67068SOL     OW19195   8.487   3.764   7.386  0.5456  0.1806 -0.5507
67068SOL    HW119196   8.436   3.831   7.430  0.7080 -0.9210  1.4137
67068SOL    HW219197   8.570   3.808   7.363  0.2445  0.9132 -0.2541
67069SOL     OW19198   1.318  13.146   3.526  0.0558  0.1545 -0.0609
67069SOL    HW119199   1.270  13.191   3.456 -1.5265 -1.2508  0.0511
67069SOL    HW219200   1.393  13.107   3.482  0.1541  0.9118 -0.5958
67070SOL     OW19201  10.486   4.395   9.441 -0.4438  0.5941  0.4029
67070SOL    HW119202  10.500   4.333   9.513  1.0591  0.9765  0.4690
67070SOL    HW219203  10.434   4.346   9.377  1.3584 -1.0600  0.1041
67071SOL     OW19204   4.589   3.921  11.540  0.2130 -0.1262 -0.0723
67071SOL    HW119205   4.590   3.830  11.568 -3.4114 -0.3713 -0.3537
67071SOL    HW219206   4.509   3.957  11.576  0.0739  2.1381 -2.3503
67072SOL     OW19207  12.848   1.282   1.280  0.8329 -0.4364 -0.4191
67072SOL    HW119208  12.942   1.297   1.293  0.8408 -1.2700  0.5837
67072SOL    HW219209  12.839   1.186   1.284 -0.3670 -0.2887  1.8416
67073SOL     OW19210   6.827   6.551  13.607 -0.0730  0.1186  0.2064
67073SOL    HW119211   6.785   6.477  13.563  0.4745  0.6278 -1.2080
67073SOL    HW219212   6.801   6.541  13.699 -0.7272 -1.3236 -0.1009
67074SOL     OW19213   7.992   1.096   5.212  0.1045 -0.0920  0.3062
67074SOL    HW119214   8.002   1.077   5.306 -0.8456  3.7529  1.3415
67074SOL    HW219215   8.077   1.133   5.186  0.2662 -0.8693 -0.3138
67075SOL     OW19216   2.734   6.267   7.306  0.7685  0.3673  0.2819
67075SOL    HW119217   2.765   6.223   7.227 -0.9982 -0.0788 -0.2122
67075SOL    HW219218   2.802   6.250   7.371  0.7179 -2.1591 -0.2022
67076SOL     OW19219   5.617   1.093   2.033 -0.0080  0.1389 -0.3844
67076SOL    HW119220   5.661   1.026   1.981 -0.7188 -0.8354  0.2251
67076SOL    HW219221   5.531   1.103   1.993 -0.9750 -1.3935  1.1426
67077SOL     OW19222   1.805   9.807  11.157 -0.7376 -0.0358  0.4184
67077SOL    HW119223   1.720   9.849  11.147 -0.3472  0.4852 -0.8035
67077SOL    HW219224   1.846   9.813  11.071  0.8131  0.3104  1.1448
67078SOL     OW19225   8.461   2.761   5.535 -0.1510  0.2867 -0.0165
67078SOL    HW119226   8.381   2.735   5.489 -0.0430 -0.5690  0.2617
67078SOL    HW219227   8.528   2.765   5.467  0.0533 -1.1686  0.0714
67079SOL     OW19228   1.479  11.666   8.820 -0.1331 -0.1467  0.0942
67079SOL    HW119229   1.526  11.735   8.866 -1.3114  0.6692  0.1371
67079SOL    HW219230   1.412  11.637   8.883  0.3245 -1.3058  0.0609
67080SOL     OW19231   1.673  11.088  11.313  0.1152  0.4082 -0.4091
67080SOL    HW119232   1.606  11.067  11.378  0.7488  0.2753  0.2164
67080SOL    HW219233   1.665  11.019  11.247  0.5887 -0.4654  0.4072
67081SOL     OW19234  11.529  10.714  10.387 -0.3402  0.3688  1.3265
67081SOL    HW119235  11.501  10.787  10.443 -2.1983 -0.4437  1.5482
67081SOL    HW219236  11.465  10.645  10.405 -0.1829 -0.4049 -0.7960
67082SOL     OW19237  12.902   6.356   7.111 -0.4092  0.5863  0.7786
67082SOL    HW119238  12.995   6.345   7.132  0.0932  2.4443 -0.1755
67082SOL    HW219239  12.897   6.445   7.076 -1.6142 -1.0895 -4.0609
67083SOL     OW19240   6.720   9.435   7.144 -0.2746 -0.1220 -0.1125
67083SOL    HW119241   6.668   9.515   7.157  0.9151  0.8105 -0.8850
67083SOL    HW219242   6.793   9.444   7.206  0.9667  0.4039 -1.5965
67084SOL     OW19243  10.767   5.678  11.569 -0.3435 -0.1262  0.0159
67084SOL    HW119244  10.812   5.630  11.500 -0.5502  0.4503 -0.5332
67084SOL    HW219245  10.734   5.757  11.526 -1.6157 -0.3883  0.4819
67085SOL     OW19246  14.100   9.848   1.048 -0.0904  0.5196  0.3693
67085SOL    HW119247  14.145   9.766   1.065 -0.3491  0.1489 -0.6117
67085SOL    HW219248  14.156   9.915   1.085  1.0528  0.0339 -0.4258
67086SOL     OW19249   8.271   9.112  12.472 -0.1883  0.2394  0.1249
67086SOL    HW119250   8.242   9.132  12.562  0.6101  2.3079 -0.0147
67086SOL    HW219251   8.194   9.130  12.418 -0.0502  1.1151  0.2052
67087SOL     OW19252   8.848  14.063  10.458  0.0981 -0.5050  0.0035
67087SOL    HW119253   8.759  14.094  10.440  0.1216 -0.6818 -0.4361
67087SOL    HW219254   8.837  13.971  10.480  0.0552 -0.2578  1.0575
67088SOL     OW19255   9.263   5.167   4.758 -0.1720 -0.1233 -0.1186
67088SOL    HW119256   9.358   5.155   4.747  0.0555  0.0095  1.5105
67088SOL    HW219257   9.227   5.078   4.751  0.3168 -0.4519  1.2188
67089SOL     OW19258   7.824  11.560   4.913 -0.0663  0.5080  0.3910
67089SOL    HW119259   7.848  11.645   4.950  0.0284  0.7950 -0.3119
67089SOL    HW219260   7.789  11.581   4.826  0.3703 -0.2094  0.0318
67090SOL     OW19261   8.773   3.360  10.458 -0.2024 -0.4702  0.7951
67090SOL    HW119262   8.847   3.364  10.398 -0.0450  0.9770  1.0488
67090SOL    HW219263   8.795   3.289  10.519  0.7813 -0.3269  0.6190
67091SOL     OW19264   9.269   2.388   5.269 -0.0457 -0.4600 -0.6598
67091SOL    HW119265   9.296   2.479   5.259 -3.5455  0.9598  1.1831
67091SOL    HW219266   9.287   2.368   5.361  0.1460 -1.4831 -0.9044
67092SOL     OW19267   2.104   3.320   1.485 -0.2817 -0.0846 -0.0132
67092SOL    HW119268   2.045   3.275   1.424 -0.0169 -1.5989  0.8204
67092SOL    HW219269   2.188   3.325   1.439  0.3431 -2.5762  0.7401
67093SOL     OW19270  12.473   9.659  12.833  0.2348 -0.6442 -0.2429
67093SOL    HW119271  12.480   9.752  12.854  1.5480 -0.5724 -0.8866
67093SOL    HW219272  12.407   9.655  12.764  0.2185 -0.1826 -0.2572
67094SOL     OW19273   0.182   2.760  11.062 -0.3429  0.1370  0.3764
67094SOL    HW119274   0.217   2.682  11.106  0.5960 -0.6691 -1.6771
67094SOL    HW219275   0.254   2.823  11.065  0.1900 -0.3690 -1.0257
67095SOL     OW19276   8.474   1.120   8.744  0.3144  0.1723 -0.5492
67095SOL    HW119277   8.547   1.164   8.701  2.1855 -1.7799  0.4779
67095SOL    HW219278   8.410   1.190   8.759  2.5485  2.2734 -0.1788
67096SOL     OW19279   6.430   2.897   0.638  0.4186  0.3184  0.0934
67096SOL    HW119280   6.391   2.826   0.688  0.4468 -0.1314 -0.5031
67096SOL    HW219281   6.357   2.934   0.588  0.7955 -0.8643 -1.4250
67097SOL     OW19282   3.111   3.104  13.562  0.2208  0.1644 -0.0507
67097SOL    HW119283   3.202   3.108  13.592  0.8467  2.1716 -1.9154
67097SOL    HW219284   3.078   3.193  13.573 -0.6897  0.0803 -1.7010
67098SOL     OW19285  11.740   0.113   7.974 -0.3888  0.1144  0.4154
67098SOL    HW119286  11.650   0.118   7.942 -0.2050 -0.2120 -0.1641
67098SOL    HW219287  11.792   0.155   7.906 -0.0681  0.0229  0.6011
67099SOL     OW19288   7.555  11.476   8.045  0.4638 -0.0721 -0.2933
67099SOL    HW119289   7.548  11.480   7.950  0.6100 -0.5601 -0.3327
67099SOL    HW219290   7.642  11.438   8.060  1.1907  1.6814  0.0747
67100SOL     OW19291  13.529   5.992   0.294 -0.3122  0.0549 -0.0720
67100SOL    HW119292  13.546   5.918   0.352  0.4626 -0.4892 -0.9562
67100SOL    HW219293  13.581   5.973   0.216 -1.2088  0.8280 -0.8889
67101SOL     OW19294   6.876   5.605   5.417 -0.3642 -0.1843 -0.1140
67101SOL    HW119295   6.924   5.679   5.455  0.6408 -1.1443  0.5542
67101SOL    HW219296   6.835   5.562   5.493  1.4027 -1.9404 -0.0525
67102SOL     OW19297   5.280   3.378   2.234 -0.2938  0.4660 -0.1743
67102SOL    HW119298   5.272   3.387   2.329  0.7627 -0.1779 -0.0101
67102SOL    HW219299   5.311   3.288   2.221  0.7707  0.9309 -1.0441
67103SOL     OW19300  11.604   5.073   0.124 -0.7521 -0.0807 -0.5241
67103SOL    HW119301  11.615   5.023   0.205 -2.1609 -2.3588 -1.6501
67103SOL    HW219302  11.512   5.097   0.122 -0.4545  1.1311 -0.8482
67104SOL     OW19303  10.110   0.484  13.050 -0.1066 -0.1245  0.1290
67104SOL    HW119304  10.085   0.571  13.019 -0.2419 -0.9726 -2.3374
67104SOL    HW219305  10.027   0.436  13.054  0.1008 -0.4585  0.4405
67105SOL     OW19306   1.105   2.127  10.194 -0.5241  0.1473  0.1089
67105SOL    HW119307   1.112   2.098  10.103  1.7732 -1.6677  0.7473
67105SOL    HW219308   1.143   2.215  10.195 -1.0802  0.4015 -0.7649
67106SOL     OW19309   3.120  13.619   2.097 -0.6733 -0.2255 -0.0401
67106SOL    HW119310   3.159  13.704   2.076 -2.1279  0.3579 -0.5377
67106SOL    HW219311   3.119  13.616   2.192 -1.0031  0.5235 -0.0093
67107SOL     OW19312  12.791   3.530  12.516 -0.0997  0.0642  0.0554
67107SOL    HW119313  12.783   3.561  12.606  0.7540 -2.1966  1.0032
67107SOL    HW219314  12.732   3.455  12.511 -2.6875  2.0594 -2.3551
67108SOL     OW19315   7.336   2.568   1.766 -0.3019  0.2706  0.3373
67108SOL    HW119316   7.273   2.510   1.723  0.6101 -0.7336  0.2868
67108SOL    HW219317   7.407   2.576   1.702  0.3293  0.0807  0.9939
67109SOL     OW19318   2.898  10.293   9.614 -0.3437 -0.1879 -0.0199
67109SOL    HW119319   2.920  10.207   9.652 -1.0172 -0.2080  0.3449
67109SOL    HW219320   2.835  10.273   9.545  0.7315 -0.1313 -1.0510
67110SOL     OW19321  10.198   1.407  12.140 -0.1137  0.3878  0.1728
67110SOL    HW119322  10.189   1.401  12.235 -0.7742  0.0424  0.0935
67110SOL    HW219323  10.223   1.498  12.124  1.8846 -0.0119  0.8013
67111SOL     OW19324   2.571  10.096   3.271  0.3806  0.3837 -0.1583
67111SOL    HW119325   2.576  10.119   3.364  0.6879 -1.6197  0.3764
67111SOL    HW219326   2.634  10.154   3.229  0.9304  0.7083  1.0490
67112SOL     OW19327   5.169  11.723  11.089  0.0041 -0.0060 -0.1831
67112SOL    HW119328   5.111  11.727  11.013 -0.2761 -1.0731 -0.0319
67112SOL    HW219329   5.113  11.740  11.164  0.2308  0.7594 -0.1698
67113SOL     OW19330  11.938   2.416  11.800 -0.0619 -0.0453  0.1914
67113SOL    HW119331  12.007   2.480  11.820 -0.5094  0.0154  1.6728
67113SOL    HW219332  11.890   2.454  11.727  0.5991  0.5982  0.0803
67114SOL     OW19333   3.948   3.886   0.206 -0.4440  0.4853 -0.3245
67114SOL    HW119334   3.968   3.814   0.147 -0.0192  0.2486  0.1044
67114SOL    HW219335   3.981   3.964   0.161 -0.6205  0.3772 -0.6433
67115SOL     OW19336   4.996  13.153   7.853  0.3659  0.0260 -0.0536
67115SOL    HW119337   5.030  13.068   7.822  1.2760  0.2894  0.1973
67115SOL    HW219338   4.926  13.129   7.914 -0.6897 -0.5155 -1.4191
67116SOL     OW19339   3.635   5.222   3.105 -0.2704 -0.4623  0.1762
67116SOL    HW119340   3.728   5.241   3.120 -0.3363 -1.8699  3.0149
67116SOL    HW219341   3.636   5.140   3.054  0.0039  0.2150 -0.9398
67117SOL     OW19342   1.942  13.364   8.047  0.3209  0.3725 -0.3132
67117SOL    HW119343   2.031  13.361   8.011  0.4372  0.6592 -0.0555
67117SOL    HW219344   1.955  13.371   8.142  0.0164 -0.4985 -0.1962
67118SOL     OW19345   1.998   2.379  13.642 -0.0653  0.9370 -0.4031
67118SOL    HW119346   2.086   2.408  13.619  0.7936 -1.1582 -0.0092
67118SOL    HW219347   1.987   2.405  13.733  2.0894 -2.6499  1.1354
67119SOL     OW19348   0.297   1.750   8.289  0.1469  0.1356 -0.4038
67119SOL    HW119349   0.293   1.761   8.194  1.4744  2.4310 -0.2612
67119SOL    HW219350   0.259   1.831   8.324  2.6759  0.8238  0.9615
67120SOL     OW19351   6.469   4.044   9.644  0.4041 -0.4079 -0.5035
67120SOL    HW119352   6.375   4.057   9.654  0.2742 -0.3640 -1.7370
67120SOL    HW219353   6.480   3.949   9.645  0.5693 -0.4225  1.3408
67121SOL     OW19354   3.382   5.380  10.682 -0.8969 -0.3806  0.0734
67121SOL    HW119355   3.398   5.308  10.620 -0.2856  0.7995 -1.1921
67121SOL    HW219356   3.290   5.372  10.705 -0.9106 -1.3964 -0.2790
67122SOL     OW19357   6.755  10.009   6.769 -0.1430 -0.3791  0.3575
67122SOL    HW119358   6.718  10.096   6.789 -2.6661 -1.5007  1.0328
67122SOL    HW219359   6.765   9.968   6.855  1.2026 -0.7275  0.0510
67123SOL     OW19360   3.746   2.670   6.476 -0.1022 -0.7319  0.0605
67123SOL    HW119361   3.654   2.650   6.458 -0.4952 -0.1199  1.2867
67123SOL    HW219362   3.776   2.597   6.530 -0.2956 -0.2238  0.8746
67124SOL     OW19363  10.851   9.603  13.673  0.2089 -0.2548  0.4709
67124SOL    HW119364  10.878   9.625  13.761 -1.2073  0.7263  0.6912
67124SOL    HW219365  10.875   9.679  13.620  1.8701 -1.1925 -0.2038
67125SOL     OW19366   1.623   8.710   8.434 -0.0948  0.5633 -0.4809
67125SOL    HW119367   1.640   8.651   8.507  1.2863  0.9279 -0.4677
67125SOL    HW219368   1.650   8.660   8.357  0.7096  1.0055 -0.5044
67126SOL     OW19369  10.151  12.736   8.196 -0.2611 -0.3110  0.3157
67126SOL    HW119370  10.143  12.645   8.169  1.0628 -0.1350 -0.7381
67126SOL    HW219371  10.162  12.785   8.115 -0.6145  0.7599  0.8883
67127SOL     OW19372   1.203   6.629   9.771  0.0062  0.7415 -0.2761
67127SOL    HW119373   1.298   6.623   9.785 -0.1906 -1.2486  0.4436
67127SOL    HW219374   1.172   6.685   9.842  0.5776  0.9766 -0.2104
67128SOL     OW19375   3.464   4.889   3.775 -0.3489  0.4804 -0.6214
67128SOL    HW119376   3.431   4.979   3.780 -0.7525  0.4564 -2.2119
67128SOL    HW219377   3.471   4.871   3.681 -1.6001 -1.6129 -0.3924
67129SOL     OW19378   3.865   5.911   1.609  0.1505 -0.0861 -0.2360
67129SOL    HW119379   3.824   5.952   1.533  0.2565  0.8397  0.1815
67129SOL    HW219380   3.897   5.985   1.661  0.5061 -0.7198  0.4662
67130SOL     OW19381  13.207  12.599  14.028 -0.0007  0.1226 -0.4544
67130SOL    HW119382  13.196  12.617  14.121  2.4222 -1.0093  0.1297
67130SOL    HW219383  13.241  12.510  14.024  0.4068  0.3199 -2.3831
67131SOL     OW19384  11.503   9.902   3.799 -0.8575 -0.4566  0.1693
67131SOL    HW119385  11.465   9.817   3.820 -1.2600 -0.1491  0.6857
67131SOL    HW219386  11.584   9.906   3.850  1.5706 -2.3766 -3.1247
67132SOL     OW19387   4.585   1.626  10.182 -0.6747  0.7156 -0.1896
67132SOL    HW119388   4.594   1.679  10.261  0.4285  0.9885 -0.4809
67132SOL    HW219389   4.668   1.637  10.137 -1.1635  0.2767 -1.2182
67133SOL     OW19390   1.405   8.715  12.817  0.2948  0.5674  0.1154
67133SOL    HW119391   1.343   8.775  12.859 -1.7613 -1.6686  0.4644
67133SOL    HW219392   1.485   8.724  12.869 -0.4055  1.9408  1.0347
67134SOL     OW19393   5.098  10.839   2.948 -0.1839  0.7144  0.8283
67134SOL    HW119394   5.092  10.756   2.899 -0.7486  0.4709  1.3006
67134SOL    HW219395   5.110  10.905   2.880  0.4836  0.2240  0.4543
67135SOL     OW19396  12.026  12.208   1.198  0.0701 -0.3289 -0.5217
67135SOL    HW119397  12.070  12.166   1.272 -0.3208 -0.1419 -0.1825
67135SOL    HW219398  11.991  12.135   1.146 -0.8833 -0.4264  0.2327
67136SOL     OW19399   6.593   8.077  11.716  0.0026 -0.1729  0.1173
67136SOL    HW119400   6.520   8.062  11.656 -0.2449 -0.4804  0.4994
67136SOL    HW219401   6.561   8.050  11.801  0.1990  0.7143  0.4833
67137SOL     OW19402   5.945   4.895   1.284 -0.2796  0.2208  0.1295
67137SOL    HW119403   5.919   4.969   1.339  0.2313  0.8555 -0.4667
67137SOL    HW219404   6.034   4.915   1.256 -0.0258 -0.7667  0.1907
67138SOL     OW19405   1.179   2.433  10.620 -0.4467 -0.3323 -0.5446
67138SOL    HW119406   1.085   2.423  10.632 -0.1651 -0.7246  1.5754
67138SOL    HW219407   1.198   2.520  10.655  0.5260 -1.8258  2.9879
67139SOL     OW19408   6.417   7.939  11.142  0.0176  0.0139  0.3052
67139SOL    HW119409   6.462   8.015  11.104  1.7001  1.0828  3.9456
67139SOL    HW219410   6.474   7.865  11.122 -0.1255  0.1864 -0.8105
67140SOL     OW19411  10.701   4.970   1.478  0.2965 -0.4597 -0.3516
67140SOL    HW119412  10.727   4.882   1.506 -1.3653 -0.9633 -0.3253
67140SOL    HW219413  10.608   4.963   1.458 -0.0300  1.4566  0.2983
67141SOL     OW19414  10.966   0.337  13.928 -0.2363  0.1918 -0.8395
67141SOL    HW119415  10.887   0.391  13.918  0.0412  0.8529  0.3606
67141SOL    HW219416  10.964   0.308  14.020  0.4859 -0.4812 -1.0248
67142SOL     OW19417   2.847  11.153   1.948 -0.0611 -0.2817 -0.3403
67142SOL    HW119418   2.778  11.203   1.992  0.7498  0.3375  0.2419
67142SOL    HW219419   2.913  11.218   1.924  0.1287 -0.8091 -1.2793
67143SOL     OW19420  13.768  10.118   8.090  0.2728 -0.1709  0.6851
67143SOL    HW119421  13.749  10.169   8.168  1.0738 -0.6323  1.1872
67143SOL    HW219422  13.703  10.148   8.026  1.4594  2.3301  0.5611
67144SOL     OW19423   7.455  10.683   9.235  0.1158 -1.1133  0.2145
67144SOL    HW119424   7.521  10.634   9.185  1.1073 -2.0786  2.3601
67144SOL    HW219425   7.377  10.627   9.232 -0.4597 -0.3042 -1.7134
67145SOL     OW19426   0.842   3.170  10.970  0.0076  1.2211 -0.4830
67145SOL    HW119427   0.762   3.210  11.005 -1.0048 -1.6172  0.7877
67145SOL    HW219428   0.905   3.177  11.042 -0.6764 -0.6639  0.3887
67146SOL     OW19429  11.395  13.902  10.664 -0.6327  0.3946  0.2196
67146SOL    HW119430  11.341  13.852  10.724 -0.9958  0.2996 -0.1873
67146SOL    HW219431  11.484  13.868  10.677 -1.2640 -2.6356 -2.2984
67147SOL     OW19432   9.922  12.325   3.335 -0.0160  0.3560  0.5084
67147SOL    HW119433   9.999  12.268   3.327 -1.5795 -1.7187 -0.9638
67147SOL    HW219434   9.897  12.344   3.244 -0.0594  2.8046  0.9570
67148SOL     OW19435  11.110   9.328   8.423 -0.0052 -0.1659  0.2584
67148SOL    HW119436  11.162   9.399   8.460  0.2255  0.4398 -1.1640
67148SOL    HW219437  11.046   9.372   8.366 -0.6479 -1.0265  0.3012
67149SOL     OW19438  10.799   4.684   5.556 -0.0734 -0.9506  0.3500
67149SOL    HW119439  10.793   4.670   5.461 -0.8047 -1.2661  0.4342
67149SOL    HW219440  10.884   4.648   5.581  1.5211  1.8144 -0.6336
67150SOL     OW19441  11.151   4.184   4.177 -0.6578 -0.5373 -0.7233
67150SOL    HW119442  11.124   4.141   4.096 -0.7564 -0.4603 -0.7313
67150SOL    HW219443  11.072   4.184   4.231 -0.4429 -1.1204 -0.3979
67151SOL     OW19444   6.254  14.077   9.543 -0.1385  0.2182 -0.0279
67151SOL    HW119445   6.283  14.133   9.615 -0.2784 -0.1691  0.3280
67151SOL    HW219446   6.162  14.058   9.563  0.0921 -0.6829  0.1994
67152SOL     OW19447   8.243  11.925  12.480 -0.6552 -0.1243 -0.5433
67152SOL    HW119448   8.207  11.960  12.561 -1.7735  1.4433 -1.6776
67152SOL    HW219449   8.249  12.000  12.421 -0.7159 -1.3665 -2.2125
67153SOL     OW19450  10.121   7.547  13.057  0.3388 -1.1963 -0.5777
67153SOL    HW119451  10.124   7.479  13.124 -1.6569 -0.8904 -0.1062
67153SOL    HW219452  10.203   7.539  13.010  0.8763 -2.7989  0.5706
67154SOL     OW19453  11.119  12.912   3.203  0.3373  0.1805  0.1924
67154SOL    HW119454  11.177  12.976   3.245  0.8483  0.2671 -0.6361
67154SOL    HW219455  11.054  12.892   3.270 -0.2533  2.0776  0.2422
67155SOL     OW19456  12.869  11.129   2.367  0.0202 -0.5070  0.7705
67155SOL    HW119457  12.958  11.106   2.341 -0.5135 -1.3143 -0.4385
67155SOL    HW219458  12.840  11.193   2.302 -0.4077 -0.5256  0.9346
67156SOL     OW19459   7.467   8.573  13.311 -0.1934  0.8367  0.3574
67156SOL    HW119460   7.467   8.509  13.382 -0.7822  1.0071  0.5237
67156SOL    HW219461   7.378   8.569  13.275  0.3574  0.0909 -0.9873
67157SOL     OW19462   8.227   0.378   2.740  0.2321  0.3074  0.2317
67157SOL    HW119463   8.173   0.300   2.755 -0.2074  0.3080 -1.1852
67157SOL    HW219464   8.263   0.365   2.652  0.0771  1.7506 -0.0614
67158SOL     OW19465   2.632  13.799  10.759 -0.1493 -0.3087  0.0695
67158SOL    HW119466   2.575  13.862  10.717 -2.8392 -0.8895  2.4855
67158SOL    HW219467   2.587  13.715  10.749  1.6922 -1.3108 -0.2793
67159SOL     OW19468  12.226   8.434  11.970  0.6825 -0.7184 -0.4977
67159SOL    HW119469  12.135   8.461  11.983  0.0033 -3.2200  0.3639
67159SOL    HW219470  12.267   8.445  12.056  1.1098 -0.0208 -0.7782
67160SOL     OW19471   3.353   1.270   2.229 -0.3832  0.3707  0.1865
67160SOL    HW119472   3.262   1.270   2.201 -0.3093 -0.9602 -0.1195
67160SOL    HW219473   3.354   1.322   2.309 -1.6475 -0.6672  0.9122
67161SOL     OW19474   7.070   1.696   2.766 -0.4348 -0.1503 -0.8989
67161SOL    HW119475   7.147   1.700   2.822 -1.1958  1.7517  0.1037
67161SOL    HW219476   7.100   1.730   2.682  0.4343 -1.9546 -1.3664
67162SOL     OW19477  12.351   2.940  10.723  0.5158 -0.0803 -0.1066
67162SOL    HW119478  12.261   2.951  10.752  0.6536  0.6621  0.0469
67162SOL    HW219479  12.354   2.980  10.636  0.3419 -1.4420 -0.7757
67163SOL     OW19480   1.088   1.025   9.170 -0.6406 -0.0936 -0.2535
67163SOL    HW119481   1.122   1.110   9.141 -0.0972 -0.2145  0.0145
67163SOL    HW219482   1.166   0.969   9.174 -0.7643 -0.1904  1.0602
67164SOL     OW19483   5.531  11.408   4.435  0.4638  0.1305  0.1853
67164SOL    HW119484   5.625  11.417   4.419  0.6789 -0.8032  0.8146
67164SOL    HW219485   5.500  11.497   4.448  1.4964  0.3703  1.1984
67165SOL     OW19486  10.209   7.455   8.107  0.3843 -0.3324 -0.1019
67165SOL    HW119487  10.198   7.548   8.124 -2.7308 -0.9190  1.7836
67165SOL    HW219488  10.126   7.428   8.068  0.9244 -2.4557  0.1022
67166SOL     OW19489   3.792  12.066   1.402  0.7050  0.4739 -0.7761
67166SOL    HW119490   3.834  12.015   1.472 -0.5345 -0.1842 -0.4955
67166SOL    HW219491   3.865  12.114   1.361  1.4523  0.9489  1.0024
67167SOL     OW19492  11.871  13.803   6.770 -0.3912 -0.1630 -0.4236
67167SOL    HW119493  11.863  13.829   6.679 -0.7511  1.7310  0.1153
67167SOL    HW219494  11.933  13.729   6.769 -2.5537 -2.1105 -2.4882
67168SOL     OW19495   0.340   5.758   4.997 -0.3317 -0.2098 -0.3786
67168SOL    HW119496   0.332   5.664   4.980  1.0595 -0.7143  1.4398
67168SOL    HW219497   0.285   5.773   5.074  0.1328  0.2938 -0.1391
67169SOL     OW19498   9.588   3.030   9.520 -0.4022 -0.4883  0.2239
67169SOL    HW119499   9.589   3.026   9.424 -0.7435  0.3136  0.1814
67169SOL    HW219500   9.498   3.009   9.544 -0.4643 -0.0919  0.3376
67170SOL     OW19501  13.037  10.878  12.129  0.0234 -0.3246 -0.2042
67170SOL    HW119502  13.029  10.967  12.163  0.3783 -0.7435  1.0378
67170SOL    HW219503  12.950  10.841  12.138  0.0587 -0.3540  0.0146
67171SOL     OW19504   7.997   4.121   4.451 -0.3158 -0.2319 -0.1354
67171SOL    HW119505   7.986   4.099   4.543 -0.6144  0.0717 -0.0979
67171SOL    HW219506   7.986   4.039   4.405 -0.7534 -0.2807  0.0542
67172SOL     OW19507  12.048   8.551   9.945 -0.0303 -0.0867  0.2297
67172SOL    HW119508  12.042   8.646   9.954 -1.2975  0.1011 -1.9598
67172SOL    HW219509  12.140   8.531   9.964  0.8199  1.8796 -1.4552
67173SOL     OW19510   5.530   9.036   3.582  0.3449 -0.7747  0.4768
67173SOL    HW119511   5.554   8.992   3.663  0.7563  0.1069  0.8541
67173SOL    HW219512   5.434   9.043   3.586  0.4130 -0.1677  1.2039
67174SOL     OW19513   2.801   8.534   0.019  0.4888 -0.1849 -0.0677
67174SOL    HW119514   2.834   8.598   0.083  0.4202  1.2466 -1.4053
67174SOL    HW219515   2.706   8.535   0.032  0.2535  1.6697 -1.5129
67175SOL     OW19516  12.634  13.727   9.393  0.1142 -0.4418  0.1037
67175SOL    HW119517  12.598  13.722   9.305 -0.6322  2.7907  0.1120
67175SOL    HW219518  12.619  13.640   9.430 -3.9043 -0.5880 -1.3497
67176SOL     OW19519   3.624  14.062   8.372  0.2695 -0.1324 -0.2964
67176SOL    HW119520   3.542  14.014   8.383  0.2508 -0.1113 -0.3412
67176SOL    HW219521   3.607  14.119   8.297 -0.5874  1.7855  1.2655
67177SOL     OW19522  11.642  12.711  13.344  0.4786 -0.3360  0.1108
67177SOL    HW119523  11.719  12.752  13.382  0.3521  0.8491 -0.8174
67177SOL    HW219524  11.615  12.645  13.407  0.7452  0.9917  1.6736
67178SOL     OW19525  11.193  11.340  11.285  0.0396 -0.0407 -0.0605
67178SOL    HW119526  11.287  11.358  11.290 -0.5188  3.0707  1.3931
67178SOL    HW219527  11.179  11.315  11.193  2.1600  0.1830 -0.5123
67179SOL     OW19528   5.518  11.620   7.802 -0.5176  0.1191 -0.0503
67179SOL    HW119529   5.562  11.649   7.882 -0.1801 -0.2582 -0.0980
67179SOL    HW219530   5.426  11.613   7.826 -0.7036  1.7447 -0.1722
67180SOL     OW19531  12.675  13.821  13.584 -0.0365  0.0393 -0.3484
67180SOL    HW119532  12.625  13.870  13.519 -0.2217 -0.0974 -0.3099
67180SOL    HW219533  12.675  13.731  13.553 -0.1218 -0.0251 -0.1617
67181SOL     OW19534  13.085   3.459   5.518  0.3439  0.5429  0.1571
67181SOL    HW119535  13.087   3.505   5.602  0.4798 -0.0789  0.4983
67181SOL    HW219536  13.165   3.405   5.517 -0.5425 -0.8274  0.4219
67182SOL     OW19537  12.658  11.938  10.918  0.3029  0.4422 -0.3107
67182SOL    HW119538  12.696  11.999  10.981  1.0976 -0.0234 -0.3199
67182SOL    HW219539  12.712  11.859  10.926 -0.7140 -0.2758 -0.2794
67183SOL     OW19540  11.951   3.667  11.863 -0.2488  0.3232 -0.0615
67183SOL    HW119541  11.995   3.746  11.893 -0.0727  0.4137 -0.5468
67183SOL    HW219542  11.988   3.597  11.918 -0.3860  0.5706  0.3481
67184SOL     OW19543   2.531  10.208   2.154 -0.1043  0.4457  0.0124
67184SOL    HW119544   2.493  10.287   2.193 -0.6662  0.5605 -0.7517
67184SOL    HW219545   2.544  10.230   2.062  2.4860  0.6513  0.3522
67185SOL     OW19546   7.633  13.066   8.756 -0.0253 -0.3075 -0.3075
67185SOL    HW119547   7.579  13.101   8.828 -0.8349 -2.6011  0.3221
67185SOL    HW219548   7.711  13.120   8.756 -0.2949  0.2102  1.8971
67186SOL     OW19549  12.210   7.997   5.481 -0.3936 -0.2932  0.3148
67186SOL    HW119550  12.235   7.990   5.573  0.9664 -1.0164 -0.0769
67186SOL    HW219551  12.145   8.067   5.479  1.4125  1.5241  1.4933
67187SOL     OW19552  11.248   4.956   4.735 -0.1158  0.0547 -0.2990
67187SOL    HW119553  11.207   5.039   4.709 -1.1249 -0.1221  0.6634
67187SOL    HW219554  11.290   4.925   4.655  0.2617  1.4822 -0.6865
67188SOL     OW19555   3.616  13.507   2.924 -0.1997 -0.1589 -0.1469
67188SOL    HW119556   3.593  13.416   2.905 -2.9967  0.6978 -1.4019
67188SOL    HW219557   3.572  13.526   3.007 -0.5162  0.3189 -0.4186
67189SOL     OW19558   0.663   1.377   3.605  0.4684 -0.1545  0.0344
67189SOL    HW119559   0.641   1.312   3.539 -0.3748  1.3780 -1.2574
67189SOL    HW219560   0.751   1.407   3.580 -0.4827  1.5888 -1.4533
67190SOL     OW19561   7.940  12.089   7.722 -0.1240  0.0840 -0.5455
67190SOL    HW119562   7.897  12.172   7.704  0.3910  0.3737 -0.4749
67190SOL    HW219563   8.020  12.114   7.769  0.0273 -0.4511 -0.5162
67191SOL     OW19564   8.563   5.999   8.655 -0.6396 -0.1900 -0.1156
67191SOL    HW119565   8.632   5.936   8.632  0.4165  0.7434  0.3572
67191SOL    HW219566   8.608   6.064   8.709 -2.0679  0.0745  0.8127
67192SOL     OW19567  10.491  13.925   6.290  0.7112  0.2938  0.3333
67192SOL    HW119568  10.430  13.880   6.348 -0.7680  1.9006  0.1042
67192SOL    HW219569  10.572  13.932   6.340  1.0669 -2.6345  0.3360
67193SOL     OW19570   5.467  10.459   2.720 -0.0835  0.4164 -0.2371
67193SOL    HW119571   5.551  10.507   2.718  1.0457 -1.4405  0.1859
67193SOL    HW219572   5.465  10.411   2.637  0.1084 -0.8725  0.4832
67194SOL     OW19573  13.508   9.037   6.405 -0.0410 -0.2140  0.5758
67194SOL    HW119574  13.447   9.028   6.331  1.2094  2.0838 -0.8633
67194SOL    HW219575  13.474   9.110   6.456  0.5621 -0.0196  0.7120
67195SOL     OW19576   1.885   6.921  11.886 -0.9496 -0.0396 -0.3732
67195SOL    HW119577   1.896   7.007  11.843 -0.3025 -0.8597 -1.9247
67195SOL    HW219578   1.892   6.858  11.815  1.0361 -1.5517  1.0701
67196SOL     OW19579   8.347   9.559   5.639 -0.1331 -0.3330  0.1530
67196SOL    HW119580   8.273   9.618   5.622  0.1447  0.0826  0.3669
67196SOL    HW219581   8.421   9.617   5.654  0.0251 -0.7234  0.9376
67197SOL     OW19582  12.907   1.283   3.394 -0.3779 -0.5350  0.3498
67197SOL    HW119583  12.905   1.321   3.481  0.6395  0.2242  0.0700
67197SOL    HW219584  12.861   1.199   3.402  0.2569 -0.7723  1.7613
67198SOL     OW19585  10.556  13.892  13.456 -0.0838 -0.4138 -0.8452
67198SOL    HW119586  10.513  13.977  13.459  0.0185 -0.3962  0.5678
67198SOL    HW219587  10.591  13.886  13.366 -2.4201 -0.1710 -1.8355
67199SOL     OW19588   7.174  11.775   4.162 -0.5828  0.2303  0.2324
67199SOL    HW119589   7.163  11.709   4.230  2.0071 -1.9590 -1.2707
67199SOL    HW219590   7.173  11.859   4.210 -1.6320 -0.9843  2.5196
67200SOL     OW19591  11.421   0.777  11.568 -0.0627  0.0262  0.7464
67200SOL    HW119592  11.325   0.777  11.561 -0.0353 -0.6184  0.2251
67200SOL    HW219593  11.445   0.869  11.562 -0.6938  0.2662  1.6351
67201SOL     OW19594   7.300  12.495   9.590  0.1353 -0.3944  0.7328
67201SOL    HW119595   7.252  12.574   9.567  0.4571 -0.5280 -0.4726
67201SOL    HW219596   7.297  12.441   9.511 -0.0333 -1.5703  1.5101
67202SOL     OW19597   5.795  10.225   7.883 -0.7000  0.6247  0.2236
67202SOL    HW119598   5.842  10.181   7.812  1.4356  1.5011  1.0044
67202SOL    HW219599   5.705  10.232   7.851  0.2777  1.5616 -2.6951
67203SOL     OW19600  10.426  11.127   7.904  0.3833 -0.2701 -0.2075
67203SOL    HW119601  10.347  11.086   7.870  2.4161 -0.9161 -4.8097
67203SOL    HW219602  10.451  11.072   7.979 -1.1452 -2.7892 -1.4176
67204SOL     OW19603  10.126   7.064  11.876 -0.5508 -0.0639  0.0397
67204SOL    HW119604  10.067   7.076  11.802  0.6656  1.8193 -0.7140
67204SOL    HW219605  10.080   7.105  11.950 -0.2271  1.4482 -0.5526
67205SOL     OW19606   5.686  12.756   1.502  0.3390 -0.0320  0.2328
67205SOL    HW119607   5.741  12.829   1.475  2.0367 -0.9185  1.1288
67205SOL    HW219608   5.741  12.706   1.563 -1.1244 -1.5028  0.4091
67206SOL     OW19609  12.510  12.874  11.769  0.3421 -0.1626  0.2784
67206SOL    HW119610  12.567  12.864  11.693  0.0781 -0.2232  0.0849
67206SOL    HW219611  12.549  12.817  11.836  0.6143 -0.0564  0.2103
67207SOL     OW19612   5.136   6.986   7.664  0.2935 -0.0109  0.4702
67207SOL    HW119613   5.093   6.901   7.676  0.0070 -0.1611 -1.3512
67207SOL    HW219614   5.226   6.972   7.696 -0.1030 -0.5905  1.3977
67208SOL     OW19615   1.518   8.428   2.179  0.4068 -0.3528 -0.0152
67208SOL    HW119616   1.509   8.463   2.090  2.1365 -2.3191 -1.0554
67208SOL    HW219617   1.428   8.413   2.208 -0.1963  0.4525 -1.3761
67209SOL     OW19618   2.040   4.094   1.305 -0.1598  0.3151  0.1770
67209SOL    HW119619   2.070   4.163   1.246  2.1872 -1.4978 -0.9300
67209SOL    HW219620   2.026   4.138   1.389  1.6890  2.0981 -0.3725
67210SOL     OW19621  10.118   6.047   1.338  0.4887  0.0623 -0.9739
67210SOL    HW119622  10.194   5.989   1.347  0.5057  0.4089  1.7543
67210SOL    HW219623  10.046   5.988   1.313  1.5772 -0.2470 -3.7886
67211SOL     OW19624   8.237   9.403   6.707  0.2626  0.2709  0.5695
67211SOL    HW119625   8.267   9.429   6.795  0.3716 -0.3666  0.7233
67211SOL    HW219626   8.262   9.311   6.699  0.6049  0.4290 -0.2889
67212SOL     OW19627  11.285   6.688  12.972  0.0420 -0.2398  0.6288
67212SOL    HW119628  11.311   6.755  13.036  2.1125 -0.5576  0.1964
67212SOL    HW219629  11.210   6.645  13.012 -1.2106  2.1454  1.0409
67213SOL     OW19630  12.831   8.823   3.766  0.0262  0.0849  0.8657
67213SOL    HW119631  12.840   8.907   3.810  0.3204  0.4588  0.1165
67213SOL    HW219632  12.919   8.785   3.768 -0.0594 -0.1098  1.0128
67214SOL     OW19633   3.926  14.089   3.531 -0.2570  0.6212 -0.1659
67214SOL    HW119634   3.888  14.139   3.604  0.6981  2.3529 -0.8040
67214SOL    HW219635   3.915  14.145   3.455 -0.1435 -0.6540 -1.1599
67215SOL     OW19636   9.192   4.980   0.330 -0.0572  0.2454 -0.4722
67215SOL    HW119637   9.242   5.061   0.320 -0.0020  0.4698  1.2228
67215SOL    HW219638   9.126   5.002   0.396  0.3598 -1.2637  0.4875
67216SOL     OW19639  10.225   1.611   9.814  0.2626  1.0142  0.3179
67216SOL    HW119640  10.252   1.703   9.814  0.0909  1.0667 -0.0729
67216SOL    HW219641  10.298   1.566   9.771 -0.0369  1.0894 -0.2857
67217SOL     OW19642   6.501  13.577   0.327  0.0585 -0.7582  0.7257
67217SOL    HW119643   6.497  13.637   0.402  2.8386 -1.4316  1.5550
67217SOL    HW219644   6.492  13.490   0.366  1.3331 -1.1018  0.3085
67218SOL     OW19645   0.888  11.770  14.034 -0.4811  0.2358  0.5400
67218SOL    HW119646   0.958  11.814  13.986 -0.3016 -0.0289  0.5567
67218SOL    HW219647   0.816  11.833  14.036 -0.3898  0.3509  0.1631
67219SOL     OW19648   5.074   8.821   8.276  0.1229  0.0520 -0.3670
67219SOL    HW119649   5.013   8.894   8.293 -1.2033 -0.0526 -3.7567
67219SOL    HW219650   5.066   8.806   8.182  3.4280 -1.8501 -0.4851
67220SOL     OW19651   4.712   0.029  10.408  0.4190 -0.8278 -0.1624
67220SOL    HW119652   4.694   0.022  10.314  0.3179  1.5205 -0.3760
67220SOL    HW219653   4.805   0.051  10.414  0.9289 -2.9066  0.4423
67221SOL     OW19654   3.727  12.682  10.157 -1.0316  0.2321 -0.8065
67221SOL    HW119655   3.738  12.615  10.089 -1.4330  1.7450 -2.4479
67221SOL    HW219656   3.795  12.662  10.221 -0.7825 -1.3991 -1.5253
67222SOL     OW19657   5.013   5.373   7.372 -0.2577  0.2359 -0.0507
67222SOL    HW119658   5.082   5.334   7.319  0.3106  0.2540  0.6501
67222SOL    HW219659   5.060   5.410   7.448 -1.1922 -1.2112  1.2848
67223SOL     OW19660  10.818   5.805   0.442 -0.4732  0.1998  0.3594
67223SOL    HW119661  10.872   5.746   0.389 -0.4740 -0.0665  0.6492
67223SOL    HW219662  10.820   5.888   0.395 -0.6118 -0.0775 -0.1482
67224SOL     OW19663   7.392   1.989   7.110 -0.0141  0.0787  0.7062
67224SOL    HW119664   7.356   1.956   7.193  0.4598 -1.1575  0.4424
67224SOL    HW219665   7.318   2.032   7.068  0.1570  2.3431  2.5445
67225SOL     OW19666   2.440   3.062   4.482 -0.1521  0.0173 -0.3776
67225SOL    HW119667   2.522   3.025   4.516  0.2074  0.7215 -0.4455
67225SOL    HW219668   2.375   2.993   4.493  0.0718  0.0195  1.2432
67226SOL     OW19669   7.400   8.201   9.773 -0.1760 -0.2604 -0.0674
67226SOL    HW119670   7.459   8.133   9.806 -0.7026 -0.7239 -0.0692
67226SOL    HW219671   7.322   8.194   9.828 -0.0993  0.5809  0.1613
67227SOL     OW19672   0.050   2.531   8.497  0.2940 -0.1816  0.0929
67227SOL    HW119673   0.093   2.616   8.483  0.4193 -0.5777 -2.3684
67227SOL    HW219674   0.088   2.474   8.430 -2.8021 -0.9995 -1.1309
67228SOL     OW19675  13.252   4.687   2.433 -0.0407  0.3050  0.5613
67228SOL    HW119676  13.185   4.677   2.366  1.6866 -1.0371 -1.0695
67228SOL    HW219677  13.259   4.601   2.473  1.0339  0.2954  0.3766
67229SOL     OW19678   1.821   2.574   5.764  0.4089  0.3808 -0.2350
67229SOL    HW119679   1.842   2.624   5.844  0.7578 -0.4179  0.1843
67229SOL    HW219680   1.731   2.546   5.776  0.4879  0.1917 -0.0842
67230SOL     OW19681   6.824  11.085   3.817 -0.3788  0.6147  0.2675
67230SOL    HW119682   6.877  11.127   3.884 -0.1712  0.1266  0.4143
67230SOL    HW219683   6.840  11.137   3.738  1.0118 -0.0324  0.0912
67231SOL     OW19684   1.375   6.211   0.872  0.5228  0.3545  0.0803
67231SOL    HW119685   1.470   6.220   0.861  0.1758  1.4636 -2.9698
67231SOL    HW219686   1.351   6.138   0.815 -0.5792  0.7889 -0.0394
67232SOL     OW19687   0.501  12.904   1.578  0.3286 -0.0262  0.4332
67232SOL    HW119688   0.407  12.898   1.564  0.5135 -2.4207 -0.2461
67232SOL    HW219689   0.530  12.972   1.518 -0.9158  0.4829  0.3804
67233SOL     OW19690   4.529   1.578   3.116  0.2909 -0.1996 -0.0518
67233SOL    HW119691   4.513   1.665   3.151 -0.7301 -0.0142 -0.9255
67233SOL    HW219692   4.452   1.527   3.143  0.2847 -0.4924 -0.6179
67234SOL     OW19693  12.037   4.531  10.912 -0.0027  0.0293  0.4500
67234SOL    HW119694  11.995   4.589  10.975  1.3860  1.1737  0.3817
67234SOL    HW219695  12.119   4.504  10.954  0.4482 -0.0341 -0.4345
67235SOL     OW19696   4.023   7.546  11.850  0.3484  0.2008 -0.0085
67235SOL    HW119697   4.020   7.480  11.920  2.2017  0.0111 -0.0579
67235SOL    HW219698   3.942   7.596  11.861 -0.5591 -1.3413  0.7541
67236SOL     OW19699   4.261   4.777  12.875 -0.8314 -0.2044 -0.5067
67236SOL    HW119700   4.229   4.850  12.822 -1.7624 -0.4849 -0.3435
67236SOL    HW219701   4.193   4.711  12.869 -1.8424  0.4289  2.4696
67237SOL     OW19702   3.859   9.451   4.561 -0.4135  0.3375 -0.4581
67237SOL    HW119703   3.939   9.493   4.593  0.1995 -1.5210  0.5900
67237SOL    HW219704   3.804   9.441   4.638 -1.2271  0.6428 -0.9849
67238SOL     OW19705   7.752   4.875   7.677 -0.1751  0.4448  0.1992
67238SOL    HW119706   7.802   4.951   7.644  0.1635  1.2103  2.3347
67238SOL    HW219707   7.804   4.842   7.750 -1.7052 -0.1168  1.0819
67239SOL     OW19708  12.340   6.657  11.353  0.3144 -0.1797  0.2999
67239SOL    HW119709  12.282   6.586  11.326 -2.3576  1.5732  0.9512
67239SOL    HW219710  12.317   6.729  11.294  1.7964  0.6215  0.6739
67240SOL     OW19711  10.745   6.600   7.377  0.1902 -0.0098 -0.1664
67240SOL    HW119712  10.706   6.688   7.373 -1.1935 -0.4402  1.9552
67240SOL    HW219713  10.716   6.565   7.461  4.6609 -0.6814  1.3906
67241SOL     OW19714   3.679   7.547   3.872 -0.0599 -0.5809  0.4678
67241SOL    HW119715   3.691   7.589   3.787  0.8280  0.4677  1.0747
67241SOL    HW219716   3.740   7.473   3.871 -0.2765 -0.7532  0.0773
67242SOL     OW19717  11.565   2.226   0.104 -0.4515  0.8820  0.6001
67242SOL    HW119718  11.581   2.302   0.049 -0.4407  0.6528  0.2816
67242SOL    HW219719  11.515   2.259   0.178 -0.1413  1.2620  0.6401
67243SOL     OW19720   5.188   0.821  13.305 -0.0851  0.1166  0.0453
67243SOL    HW119721   5.205   0.906  13.266 -0.2659  0.6660  1.1423
67243SOL    HW219722   5.098   0.827  13.338 -0.4343 -0.8217 -0.6812
67244SOL     OW19723   3.772  13.479   5.881 -0.1002  0.2787  0.6721
67244SOL    HW119724   3.788  13.560   5.833  2.2518 -0.1978  0.5584
67244SOL    HW219725   3.824  13.413   5.835  0.8020 -0.5566  2.7642
67245SOL     OW19726  13.045   1.587   5.400  0.2045  0.0267  0.9360
67245SOL    HW119727  13.126   1.638   5.409  0.8829 -0.4934 -1.5006
67245SOL    HW219728  12.985   1.647   5.355  0.0658 -0.3921  0.5610
67246SOL     OW19729   7.099   8.814  12.092  0.5972 -0.3200 -0.4506
67246SOL    HW119730   7.149   8.743  12.053 -2.1109 -2.3081 -0.5640
67246SOL    HW219731   7.076   8.783  12.179 -1.2405  0.0548 -0.7620
67247SOL     OW19732   4.821  13.454   8.101  0.2031 -0.2968 -0.1808
67247SOL    HW119733   4.817  13.360   8.084  1.3097 -0.3153 -0.4004
67247SOL    HW219734   4.744  13.472   8.155 -0.3984 -1.1971 -0.7156
67248SOL     OW19735   3.447   1.235   0.613 -0.4223  0.5523  0.2926
67248SOL    HW119736   3.444   1.145   0.645  1.2833  0.3999  0.0930
67248SOL    HW219737   3.355   1.264   0.615 -0.9947 -1.1586  0.4041
67249SOL     OW19738   9.899   9.111   6.192 -0.7216 -0.2525 -0.1766
67249SOL    HW119739   9.807   9.099   6.166 -0.3200  0.5950 -2.1116
67249SOL    HW219740   9.950   9.083   6.116  0.7237 -1.9293  1.3116
67250SOL     OW19741  12.038   2.326   3.639 -0.2877 -0.5374 -0.6025
67250SOL    HW119742  11.976   2.398   3.630 -0.3036 -0.5264 -0.4038
67250SOL    HW219743  12.086   2.344   3.719  0.8628  0.1197 -1.4199
67251SOL     OW19744   0.386   5.777  12.339  0.0285  0.0351 -0.3645
67251SOL    HW119745   0.311   5.833  12.319  0.6936  0.5537 -1.4614
67251SOL    HW219746   0.462   5.836  12.337  0.3000 -0.0902  2.6615
67252SOL     OW19747  12.891   9.645  14.049 -0.2659 -0.3038  0.1373
67252SOL    HW119748  12.880   9.665  14.142 -2.4359  0.4282 -0.2176
67252SOL    HW219749  12.985   9.636  14.037  0.0906  0.0016  2.3105
67253SOL     OW19750  11.862   6.281  12.991  0.5804 -0.0954 -0.2251
67253SOL    HW119751  11.891   6.247  12.907  0.9718  0.1475 -0.1909
67253SOL    HW219752  11.861   6.204  13.049  3.6285  0.2271  0.4608
67254SOL     OW19753   6.487   5.683   5.599  0.1520  0.5035  0.1538
67254SOL    HW119754   6.487   5.764   5.547  0.9709  0.7993  0.6083
67254SOL    HW219755   6.571   5.684   5.645  0.2249 -0.6733  0.0628
67255SOL     OW19756   1.630   5.534   3.009 -0.1928  0.0971 -0.0074
67255SOL    HW119757   1.723   5.516   2.995 -0.4842  0.4459 -3.1592
67255SOL    HW219758   1.629   5.597   3.082  1.8404 -1.3643  1.3925
67256SOL     OW19759  12.506  13.028   3.526  0.1343  0.0614  0.4653
67256SOL    HW119760  12.594  13.066   3.522  0.4174 -0.4619  1.3420
67256SOL    HW219761  12.517  12.947   3.575 -0.5039 -1.0505 -1.1532
67257SOL     OW19762   4.780   9.194  11.670 -0.5647 -0.1891 -0.0928
67257SOL    HW119763   4.849   9.158  11.726 -0.2368  0.1646 -0.2611
67257SOL    HW219764   4.702   9.143  11.692 -0.1909 -0.7676 -0.0835
67258SOL     OW19765   3.385   5.506  13.698  0.1395 -0.0988 -0.2238
67258SOL    HW119766   3.321   5.518  13.629  1.2532 -1.0287 -1.4659
67258SOL    HW219767   3.379   5.586  13.751 -0.2105  0.9781 -1.8306
67259SOL     OW19768   0.578   0.401   4.578 -0.0396  0.3937 -0.8932
67259SOL    HW119769   0.531   0.444   4.649  0.1424  1.6023 -1.4839
67259SOL    HW219770   0.671   0.419   4.595  0.0362  0.2859 -1.1778
67260SOL     OW19771   9.230   4.417  10.360  0.7251 -0.6054  0.4433
67260SOL    HW119772   9.204   4.438  10.450 -0.0064 -0.3406  0.1745
67260SOL    HW219773   9.295   4.483  10.338 -0.3389  0.3826  0.1914
67261SOL     OW19774   5.421   9.477  11.274 -0.0310  0.4120 -0.1937
67261SOL    HW119775   5.390   9.389  11.253 -2.8017  1.4408 -0.8599
67261SOL    HW219776   5.457   9.509  11.192 -1.1742  0.6890 -0.6077
67262SOL     OW19777   0.220   4.550   7.572 -0.1422 -0.2131  0.1787
67262SOL    HW119778   0.269   4.630   7.551 -0.9797  0.1705 -0.3598
67262SOL    HW219779   0.287   4.489   7.602  0.4351  0.8806  1.1925
67263SOL     OW19780  10.439  11.345  13.740  0.3271 -0.8318 -0.1151
67263SOL    HW119781  10.433  11.303  13.827 -0.1476  0.1494  0.3424
67263SOL    HW219782  10.527  11.383  13.738 -0.1977  0.4752  0.5803
67264SOL     OW19783  10.951  14.145   8.858 -0.1027  0.0103 -0.1041
67264SOL    HW119784  10.892  14.082   8.899  1.2157 -1.2488 -0.0785
67264SOL    HW219785  10.913  14.160   8.771  0.0174 -1.4967 -0.4424
67265SOL     OW19786   5.540   6.838   2.423 -0.0678  0.2337 -0.6269
67265SOL    HW119787   5.493   6.907   2.470 -1.4764 -0.9477 -0.2191
67265SOL    HW219788   5.483   6.761   2.429  1.1153 -0.7863 -1.6805
67266SOL     OW19789  13.630   9.777   4.260 -0.2696 -0.2015  0.7205
67266SOL    HW119790  13.661   9.839   4.326  0.9285 -1.5487  1.4743
67266SOL    HW219791  13.683   9.795   4.182 -0.6850  0.4238  0.5734
67267SOL     OW19792   4.812   9.851   3.930  0.3975  0.4652 -0.1178
67267SOL    HW119793   4.782   9.904   4.004  1.7349  1.0177  0.0490
67267SOL    HW219794   4.897   9.817   3.957 -0.0402 -1.0871 -0.5729
67268SOL     OW19795   9.961   7.999   2.533  0.3616  0.3592 -0.5575
67268SOL    HW119796   9.986   8.085   2.565 -0.3181  0.6577 -0.7998
67268SOL    HW219797   9.945   8.011   2.440 -0.1017  0.0648 -0.5243
67269SOL     OW19798   9.769  13.669  12.575  0.0107 -0.1522 -0.2406
67269SOL    HW119799   9.848  13.624  12.603  0.7027  1.8573  1.3142
67269SOL    HW219800   9.784  13.760  12.599 -2.4706  0.4257 -0.6289
67270SOL     OW19801  10.888   6.703  13.599 -0.0568  0.4284 -0.2213
67270SOL    HW119802  10.834   6.624  13.593  0.6274 -0.0341 -0.3222
67270SOL    HW219803  10.968   6.682  13.551  1.0733  0.3907  1.5879
67271SOL     OW19804   3.253  13.467   8.011 -0.7779  0.8506 -0.0482
67271SOL    HW119805   3.212  13.426   7.935  0.9903  0.6186 -0.9200
67271SOL    HW219806   3.271  13.557   7.983 -0.5273  0.8999  0.2632
67272SOL     OW19807   7.334   5.952   9.388  0.2573 -0.1251 -0.2344
67272SOL    HW119808   7.243   5.930   9.369 -0.4806  2.2345  0.2267
67272SOL    HW219809   7.329   6.029   9.444  2.5065 -1.7451  2.4800
67273SOL     OW19810  10.423  13.224  10.263 -0.0677  0.2552  1.0867
67273SOL    HW119811  10.385  13.200  10.347  0.8896 -0.3741  1.3563
67273SOL    HW219812  10.487  13.292  10.285 -1.5464  1.9060  0.5426
67274SOL     OW19813   4.186   6.073   6.925  0.5115 -0.5503 -0.4043
67274SOL    HW119814   4.120   6.121   6.877 -0.9902 -0.6313  1.4790
67274SOL    HW219815   4.139   5.999   6.963  1.9443 -1.2905 -0.0026
67275SOL     OW19816  13.547   9.960   4.566 -0.2799  0.2201  0.0719
67275SOL    HW119817  13.629   9.959   4.516  0.0168 -3.5944  0.3706
67275SOL    HW219818  13.479   9.963   4.499  0.0190  2.1473 -0.2140
67276SOL     OW19819  13.010   0.467  13.090 -0.3565  0.7053  0.4265
67276SOL    HW119820  13.073   0.490  13.021  1.9540 -2.4474  1.2475
67276SOL    HW219821  12.941   0.418  13.044  0.9169 -0.9479  0.1931
67277SOL     OW19822   2.864   3.663   3.124  0.3619  0.2193  0.1102
67277SOL    HW119823   2.891   3.600   3.191 -1.9418  1.8168  2.7852
67277SOL    HW219824   2.887   3.748   3.160 -2.3757  1.2276 -0.2795
67278SOL     OW19825   2.863   9.424   6.824 -0.0784 -0.2124 -0.0275
67278SOL    HW119826   2.780   9.447   6.867  0.3030  2.2094 -0.4386
67278SOL    HW219827   2.927   9.422   6.896  0.1479  1.6076 -0.1414
67279SOL     OW19828   2.359   4.131   4.468  0.3764  0.3449 -0.3700
67279SOL    HW119829   2.303   4.123   4.546 -1.1528 -1.0594 -1.5301
67279SOL    HW219830   2.373   4.225   4.458 -1.8044  0.7672  0.0037
67280SOL     OW19831   0.328   7.157   9.974 -0.2553  0.1628  0.7487
67280SOL    HW119832   0.276   7.085   9.939 -0.6539 -0.3099  2.2599
67280SOL    HW219833   0.395   7.115  10.027  0.1242  0.8671  0.8414
67281SOL     OW19834  10.427   2.321   5.171 -0.1156 -0.4623  0.3659
67281SOL    HW119835  10.370   2.335   5.096  1.4172 -0.0312 -0.7597
67281SOL    HW219836  10.390   2.377   5.240 -0.9454 -0.0623 -0.3832
67282SOL     OW19837  10.118   8.875  12.924  0.5660 -0.2274 -0.1225
67282SOL    HW119838  10.162   8.802  12.880  1.8608 -0.1719  0.9982
67282SOL    HW219839  10.190   8.932  12.953 -0.2248 -0.2005  1.9139
67283SOL     OW19840   4.976   7.092   2.449 -0.4202 -0.3880 -0.3363
67283SOL    HW119841   4.963   7.091   2.355  1.3567  0.7542 -0.6272
67283SOL    HW219842   5.067   7.116   2.461 -1.0578  1.3269  1.7032
67284SOL     OW19843  13.046   1.490   8.459  0.3059 -0.0876  0.7312
67284SOL    HW119844  13.053   1.409   8.510 -1.0238 -1.0987 -0.6297
67284SOL    HW219845  13.133   1.503   8.423  0.3150 -1.4296  0.2195
67285SOL     OW19846   4.177   5.051   6.896 -0.1118  0.0725 -0.3805
67285SOL    HW119847   4.200   5.076   6.985  0.3488 -1.2870 -0.0990
67285SOL    HW219848   4.082   5.059   6.893 -0.0214  1.5866 -0.2526
67286SOL     OW19849   4.212  10.840  10.500  0.2300 -0.0522 -0.4218
67286SOL    HW119850   4.272  10.894  10.551  1.1410 -1.1786 -0.2634
67286SOL    HW219851   4.225  10.751  10.533 -0.8513 -0.4678 -1.0330
67287SOL     OW19852  12.249   2.941   9.158  0.1277 -0.5353 -0.1583
67287SOL    HW119853  12.270   3.017   9.104  0.1935 -0.5458 -0.1480
67287SOL    HW219854  12.164   2.912   9.126  1.2896 -2.1165 -2.0743
67288SOL     OW19855   8.465   5.565  12.540 -0.1410 -0.3486  0.2252
67288SOL    HW119856   8.421   5.525  12.615 -0.6015 -1.5219 -0.6439
67288SOL    HW219857   8.418   5.531  12.464 -0.8879  2.2533 -0.5745
67289SOL     OW19858   7.177  11.790   6.980  0.2972 -0.6755 -0.6970
67289SOL    HW119859   7.100  11.794   7.036 -0.4162  1.1374 -1.7083
67289SOL    HW219860   7.251  11.781   7.041 -0.4764  0.8056  0.5413
67290SOL     OW19861   6.189  13.638  10.246 -0.1181 -0.4267  0.3679
67290SOL    HW119862   6.175  13.664  10.337 -2.7614 -1.9707  0.4983
67290SOL    HW219863   6.273  13.679  10.222  0.0624  1.0204  3.0746
67291SOL     OW19864   6.539   4.557  13.212 -0.4243 -0.1969 -0.1614
67291SOL    HW119865   6.563   4.644  13.242  2.1391 -1.1483  0.8237
67291SOL    HW219866   6.566   4.555  13.120 -1.0049  0.1947 -0.3465
67292SOL     OW19867  13.646   4.639   5.783 -0.2446  1.1590  0.1402
67292SOL    HW119868  13.609   4.675   5.864 -2.8791 -0.1781 -0.3515
67292SOL    HW219869  13.595   4.681   5.713 -0.3108 -0.1738 -0.6324
67293SOL     OW19870  12.374   4.629  11.082  0.2679  0.4362  0.1579
67293SOL    HW119871  12.449   4.656  11.136 -0.2285  1.5799  0.3049
67293SOL    HW219872  12.406   4.636  10.992  0.3279  1.0248  0.2168
67294SOL     OW19873   6.313  10.687   3.347  0.2605  0.2839  0.3075
67294SOL    HW119874   6.321  10.737   3.266  0.7454 -0.7107 -0.2697
67294SOL    HW219875   6.240  10.728   3.393 -1.1434 -0.1770 -1.4074
67295SOL     OW19876   3.008   2.590   5.531 -0.6639  0.3720 -0.0812
67295SOL    HW119877   2.965   2.654   5.588  0.6530  1.2538 -0.0406
67295SOL    HW219878   2.980   2.613   5.443 -0.1576  1.0375 -0.0697
67296SOL     OW19879   7.300  10.935   2.953 -0.1181  0.1624  0.7348
67296SOL    HW119880   7.354  10.974   3.021  0.9337  1.8000 -0.9327
67296SOL    HW219881   7.360  10.919   2.880 -1.3077 -0.9241 -0.0684
67297SOL     OW19882  12.877   2.609   1.353 -0.0554 -0.2605 -0.1689
67297SOL    HW119883  12.966   2.591   1.322  0.0206 -0.4665  0.1568
67297SOL    HW219884  12.844   2.677   1.295  0.1788 -0.4518 -0.5288
67298SOL     OW19885   6.128  10.562   5.572  0.1596  0.6102  0.0830
67298SOL    HW119886   6.131  10.647   5.617 -2.1186  0.6600  0.2947
67298SOL    HW219887   6.181  10.504   5.627 -1.8644  0.8720  2.5133
67299SOL     OW19888   7.326   8.447   2.781 -0.1909  0.0474  0.1225
67299SOL    HW119889   7.236   8.470   2.756 -0.1912 -0.9205 -0.8600
67299SOL    HW219890   7.361   8.526   2.822 -1.2779  0.6480 -0.0773
67300SOL     OW19891  11.940  12.018   7.333  0.2947 -0.9033 -0.1182
67300SOL    HW119892  11.878  12.090   7.320  0.8992 -0.5209 -1.0959
67300SOL    HW219893  12.026  12.059   7.318  0.5774 -2.0915 -2.0631
67301SOL     OW19894   1.813   8.577   7.521 -0.0120  0.1850  0.4972
67301SOL    HW119895   1.857   8.611   7.443 -1.1878 -0.9593 -0.7105
67301SOL    HW219896   1.795   8.654   7.574  1.0584  0.9571 -0.2246
67302SOL     OW19897   8.085   7.227   2.696  0.6028 -0.1650 -0.2267
67302SOL    HW119898   8.178   7.211   2.717  0.3144 -1.6488  0.0338
67302SOL    HW219899   8.083   7.233   2.600  0.9017 -0.7638 -0.2819
67303SOL     OW19900   5.075   3.460   0.379 -0.2731  0.4516  0.0940
67303SOL    HW119901   5.135   3.418   0.440  0.6094  0.2221 -0.8969
67303SOL    HW219902   5.026   3.523   0.432  2.2074  2.0907  0.6050
67304SOL     OW19903   3.328   5.177   8.439  0.1384 -0.2752  0.1615
67304SOL    HW119904   3.238   5.208   8.426  0.4533  0.3526 -0.6022
67304SOL    HW219905   3.320   5.108   8.504 -0.9387 -0.4453 -0.1295
67305SOL     OW19906   5.940   9.591  14.073 -0.0529 -0.1942 -0.0218
67305SOL    HW119907   5.851   9.562  14.053 -0.9907  2.2186  0.2427
67305SOL    HW219908   5.993   9.560  14.000 -1.3678 -0.5748 -0.8571
67306SOL     OW19909  10.414  12.852  13.573  0.0087 -0.8288 -0.1164
67306SOL    HW119910  10.467  12.775  13.550 -0.4924 -1.0480 -0.5611
67306SOL    HW219911  10.324  12.820  13.569 -0.3945  0.3478 -2.7121
67307SOL     OW19912   1.605   0.527   9.198  0.0484 -0.5950  0.4051
67307SOL    HW119913   1.647   0.488   9.122  1.6624 -1.1858  1.5564
67307SOL    HW219914   1.512   0.532   9.174  0.6565  0.4200 -2.0752
67308SOL     OW19915   8.291   1.928   9.529 -0.0315 -0.3405 -0.0687
67308SOL    HW119916   8.287   2.011   9.482  0.1962 -0.3666 -0.1393
67308SOL    HW219917   8.272   1.861   9.463 -1.4300 -0.2755  0.2469
67309SOL     OW19918   7.114   8.173   3.471 -0.7739 -0.8022 -0.2453
67309SOL    HW119919   7.120   8.152   3.378  0.5038 -1.5980 -0.0143
67309SOL    HW219920   7.182   8.239   3.485 -1.4850 -0.1140 -0.0210
67310SOL     OW19921   4.519  13.165   4.432  0.0688 -0.2662  0.1003
67310SOL    HW119922   4.589  13.154   4.496 -0.3846 -0.9031  0.5010
67310SOL    HW219923   4.564  13.169   4.347  0.5052 -2.4300  0.1695
67311SOL     OW19924   9.799  13.228   5.757  0.2546 -0.1547 -0.1961
67311SOL    HW119925   9.823  13.143   5.793 -1.4667 -0.6572 -0.1376
67311SOL    HW219926   9.766  13.209   5.670 -2.9085 -0.0226  0.8475
67312SOL     OW19927  11.549   6.606   4.705  0.4860 -0.1931  0.2113
67312SOL    HW119928  11.456   6.603   4.681  0.3330  1.1242  0.5688
67312SOL    HW219929  11.553   6.566   4.791  0.4398 -1.3441 -0.3093
67313SOL     OW19930  11.368   9.399   3.124  1.1028 -0.1761 -0.0285
67313SOL    HW119931  11.320   9.358   3.052  1.9573  1.3218 -1.5193
67313SOL    HW219932  11.460   9.384   3.104  1.3483 -0.6677  1.3528
67314SOL     OW19933   3.866   7.811   2.894 -0.2511 -0.3251  0.0976
67314SOL    HW119934   3.871   7.810   2.798  0.7546 -0.9579  0.1347
67314SOL    HW219935   3.788   7.759   2.914 -0.1107 -0.7344 -0.3771
67315SOL     OW19936   1.023   9.074   6.068 -0.1929 -0.0568 -0.3715
67315SOL    HW119937   1.061   9.162   6.071 -1.6239  0.5614  0.4459
67315SOL    HW219938   1.023   9.044   6.159 -2.2247  0.2389 -0.2289
67316SOL     OW19939   7.083  12.500   1.014 -0.3374  1.0063 -0.2613
67316SOL    HW119940   7.013  12.485   0.951 -0.0477  1.0154 -0.5904
67316SOL    HW219941   7.161  12.462   0.973 -0.1276  1.0950  0.0482
67317SOL     OW19942   9.426  13.438   2.605 -0.6304  0.1285  0.2227
67317SOL    HW119943   9.348  13.481   2.569  0.0238  0.9633 -0.2322
67317SOL    HW219944   9.461  13.500   2.668  1.3744  1.1530 -1.7692
67318SOL     OW19945   8.513  14.142   9.380 -0.0420  0.2052  0.3797
67318SOL    HW119946   8.432  14.159   9.332  0.6535  1.9555 -0.2356
67318SOL    HW219947   8.529  14.049   9.366 -1.6516 -0.0597  0.0647
67319SOL     OW19948   5.872   8.486   8.369 -0.4226  0.2957  0.2374
67319SOL    HW119949   5.789   8.532   8.380 -1.1624 -0.6752 -0.9821
67319SOL    HW219950   5.932   8.552   8.334 -1.0390  0.7158 -0.0393
67320SOL     OW19951  11.196   1.564   0.010  0.1231  0.1495  0.1448
67320SOL    HW119952  11.203   1.550   0.104 -0.1168  1.6734  0.4056
67320SOL    HW219953  11.146   1.488  -0.021 -2.3753  1.0459  1.6936
67321SOL     OW19954   6.259   0.182  13.025  0.1129 -0.1867  0.5584
67321SOL    HW119955   6.353   0.167  13.024 -0.0024 -0.9547  0.1931
67321SOL    HW219956   6.226   0.121  13.090 -0.3117 -1.1802 -0.5462
67322SOL     OW19957   8.288   8.255   4.671 -0.7996 -0.3432  0.8439
67322SOL    HW119958   8.362   8.249   4.610 -0.3001  2.0206  1.1299
67322SOL    HW219959   8.211   8.236   4.618 -0.1411 -1.1907  0.1584
67323SOL     OW19960   5.306  13.189   2.111 -0.0041 -0.3540 -0.3517
67323SOL    HW119961   5.342  13.269   2.149 -2.6191  1.6737 -1.7778
67323SOL    HW219962   5.361  13.173   2.034 -0.1148  0.7711 -0.6920
67324SOL     OW19963  11.203   2.893  10.091 -0.1300 -0.1705  0.3826
67324SOL    HW119964  11.197   2.955  10.163 -1.8572  1.7201 -1.2890
67324SOL    HW219965  11.118   2.850  10.088  0.4181 -1.2966  0.3391
67325SOL     OW19966   0.109  12.319   7.201 -0.0864 -0.1310 -0.2792
67325SOL    HW119967   0.197  12.307   7.237 -0.0169 -0.8439 -0.6615
67325SOL    HW219968   0.066  12.379   7.262 -0.0795 -1.5509  1.2047
67326SOL     OW19969   3.585   5.922   7.597 -0.0418 -0.1660  0.2707
67326SOL    HW119970   3.495   5.890   7.587 -0.1753  0.3914 -0.3806
67326SOL    HW219971   3.621   5.919   7.508  0.6136 -0.4526  0.5378
67327SOL     OW19972   2.514   0.723   4.869 -0.5550  0.3621 -0.2559
67327SOL    HW119973   2.596   0.684   4.899 -1.3863 -3.5809 -2.4255
67327SOL    HW219974   2.446   0.680   4.921 -1.4209  1.4725 -0.4293
67328SOL     OW19975   9.050   4.297  12.411 -0.3383 -0.3257  0.1469
67328SOL    HW119976   9.097   4.274  12.492 -1.4472 -1.2378  0.5725
67328SOL    HW219977   9.018   4.386  12.426  1.6766  0.5510 -0.3891
67329SOL     OW19978   2.737   3.486   5.659 -0.1707 -0.3867 -0.0779
67329SOL    HW119979   2.644   3.492   5.678 -0.4708 -1.6806 -1.0109
67329SOL    HW219980   2.778   3.464   5.743 -0.5630  1.0594  0.5303
67330SOL     OW19981   0.412   3.056   0.948 -0.0841  0.4073  0.1900
67330SOL    HW119982   0.369   3.137   0.923  1.3154  1.0671 -0.1446
67330SOL    HW219983   0.478   3.082   1.012 -1.6549 -0.8827  2.4880
67331SOL     OW19984   8.198   4.042   1.052 -0.2255 -0.4561 -0.1712
67331SOL    HW119985   8.136   4.022   1.122 -0.0527  2.3362  0.8919
67331SOL    HW219986   8.271   4.086   1.096  2.1964 -2.8427 -1.4971
67332SOL     OW19987   0.252   2.570  13.292 -0.2605 -0.3117  0.7398
67332SOL    HW119988   0.221   2.480  13.296 -0.6909 -0.1189  2.8255
67332SOL    HW219989   0.225   2.609  13.376  1.5442  1.2268  0.6721
67333SOL     OW19990   4.360  11.736   2.130 -0.2446  0.2084  0.1874
67333SOL    HW119991   4.295  11.680   2.172  0.4334 -0.1855  0.7564
67333SOL    HW219992   4.368  11.702   2.041 -1.2341  0.6385 -0.0717
67334SOL     OW19993  13.024  13.672   6.557 -0.3781  0.8658 -0.0332
67334SOL    HW119994  13.024  13.650   6.464 -1.2965 -1.1920  0.3922
67334SOL    HW219995  12.989  13.761   6.561  2.4399  2.2295 -1.8233
67335SOL     OW19996   1.425   1.474  11.642  0.1021  0.3746  0.1394
67335SOL    HW119997   1.394   1.401  11.589 -0.1962  1.2390 -0.9177
67335SOL    HW219998   1.519   1.458  11.654  0.3441  0.5417 -1.3259
67336SOL     OW19999  11.037   6.640  13.140  0.2974  0.2508 -0.3657
67336SOL    HW120000  11.017   6.642  13.233  1.4778  0.9685 -0.1107
67336SOL    HW220001  10.958   6.675  13.098 -0.1290  0.1982  0.3798
67337SOL     OW20002   6.172  11.636   5.385 -0.0470  0.1812 -0.0995
67337SOL    HW120003   6.164  11.542   5.401  0.7210 -0.0768 -1.1143
67337SOL    HW220004   6.261  11.658   5.410  0.4508  0.2080 -1.7626
67338SOL     OW20005   3.427   6.938   4.841  0.6692 -0.3135 -0.2246
67338SOL    HW120006   3.389   7.026   4.831  1.7336  0.1547 -0.4068
67338SOL    HW220007   3.472   6.941   4.925  1.0857 -0.5366 -0.4380
67339SOL     OW20008   2.566  12.224   3.315  0.3320 -0.3185  0.1211
67339SOL    HW120009   2.487  12.171   3.324 -0.2531  0.6997  1.1097
67339SOL    HW220010   2.561  12.259   3.226 -0.7824  0.4488  0.4752
67340SOL     OW20011   1.661   4.170  11.737  0.1392 -0.1399  0.0529
67340SOL    HW120012   1.593   4.105  11.755 -0.8658  0.7403 -0.4923
67340SOL    HW220013   1.735   4.118  11.706 -0.6969 -1.0270 -0.5330
67341SOL     OW20014   1.159   6.852   0.890  0.1307  0.0516 -0.4520
67341SOL    HW120015   1.245   6.893   0.882  0.6616 -0.4972  1.8726
67341SOL    HW220016   1.102   6.921   0.924 -0.1634  0.1846 -1.1980
67342SOL     OW20017  13.415  10.547   1.764 -0.0468 -0.1325 -0.2620
67342SOL    HW120018  13.320  10.540   1.764 -0.0890  0.4258 -0.8018
67342SOL    HW220019  13.440  10.521   1.853 -0.6724 -0.5973 -0.2138
67343SOL     OW20020   6.483   8.767  13.405 -0.2121  0.4706 -0.0307
67343SOL    HW120021   6.505   8.738  13.317  1.6013 -1.3989  0.9558
67343SOL    HW220022   6.550   8.832  13.427 -2.0078  2.7433 -0.7834
67344SOL     OW20023   1.434   6.558   1.458 -0.4499  0.0351  0.0794
67344SOL    HW120024   1.366   6.625   1.456  0.0085  0.4947 -0.3033
67344SOL    HW220025   1.388   6.477   1.436 -1.3375 -0.0957  2.1769
67345SOL     OW20026   4.432   7.646  11.569  0.0700  0.0307 -0.1299
67345SOL    HW120027   4.379   7.621  11.644 -1.3683  0.5803 -0.9332
67345SOL    HW220028   4.423   7.573  11.508 -0.3903  0.4470 -0.5725
67346SOL     OW20029  11.239   4.508  11.285  0.0749 -0.1973 -0.0961
67346SOL    HW120030  11.243   4.586  11.341 -1.0010  0.2279 -0.5786
67346SOL    HW220031  11.151   4.474  11.299 -0.1107 -0.2475 -1.2974
67347SOL     OW20032   7.020  12.594   7.774 -0.0052  0.1044 -0.5182
67347SOL    HW120033   6.936  12.583   7.729 -0.1973 -1.2424  0.1367
67347SOL    HW220034   7.022  12.525   7.840  0.4256  1.8028  1.3433
67348SOL     OW20035   8.037   2.075   4.006  0.0281  0.5724  0.4730
67348SOL    HW120036   8.093   2.111   4.075 -0.4641  0.0631  1.1437
67348SOL    HW220037   8.034   1.981   4.024 -0.5237  0.5093  0.0620
67349SOL     OW20038   4.368   8.481   5.060  0.1045 -0.0250  0.1206
67349SOL    HW120039   4.332   8.557   5.015  0.3397  0.2793  0.4465
67349SOL    HW220040   4.413   8.517   5.137  1.0037 -0.4053 -0.2124
67350SOL     OW20041  12.794  14.134  13.232 -0.0078  0.3166  0.1542
67350SOL    HW120042  12.883  14.169  13.228 -0.0135  0.8656  2.7641
67350SOL    HW220043  12.742  14.207  13.267 -1.7979  0.4418 -2.5158
67351SOL     OW20044  13.377   5.416   4.116 -0.1311  0.1890 -0.3344
67351SOL    HW120045  13.299   5.464   4.088 -0.2871 -0.8862 -1.8963
67351SOL    HW220046  13.347   5.325   4.125  0.9673 -0.2909 -1.2431
67352SOL     OW20047  10.636   6.274   8.541 -0.5573  0.2233 -0.3930
67352SOL    HW120048  10.579   6.340   8.500 -2.3651 -0.4892  0.8543
67352SOL    HW220049  10.715   6.322   8.564 -1.6608  1.8850  0.1013
67353SOL     OW20050  13.265  10.917   7.219 -0.4983 -0.2297 -0.7778
67353SOL    HW120051  13.305  10.947   7.137 -0.3941 -0.2870 -0.7470
67353SOL    HW220052  13.240  10.827   7.202 -1.7358  0.1795 -1.2106
67354SOL     OW20053  12.717  10.808   4.553  0.0478 -0.6271  0.5534
67354SOL    HW120054  12.717  10.719   4.518 -2.1570 -0.7200  0.6529
67354SOL    HW220055  12.787  10.852   4.505  0.2150 -2.0314 -0.5742
67355SOL     OW20056   8.456   5.577   0.057  0.2441  0.1226 -0.8420
67355SOL    HW120057   8.551   5.566   0.047  0.1036 -1.6237 -0.6129
67355SOL    HW220058   8.447   5.646   0.123  1.3471  0.3322 -0.8861
67356SOL     OW20059  14.102   2.264   4.782 -0.1809 -0.5019  0.7293
67356SOL    HW120060  14.193   2.281   4.758 -0.7402  1.0560 -0.5230
67356SOL    HW220061  14.097   2.169   4.793  1.6224 -0.5949  1.0143
67357SOL     OW20062   8.205   9.673   5.171  0.2745 -0.0372 -1.1206
67357SOL    HW120063   8.154   9.754   5.170  2.6282  1.5770 -0.2576
67357SOL    HW220064   8.202   9.642   5.080 -0.8868  0.8626 -1.4177
67358SOL     OW20065   8.893  11.450   7.796 -0.1962 -0.5388 -0.1212
67358SOL    HW120066   8.925  11.374   7.747  2.2472  0.4554 -0.2126
67358SOL    HW220067   8.929  11.438   7.884 -1.8530 -0.6711  0.5791
67359SOL     OW20068  12.727  11.801   2.375  0.1015 -0.1563 -0.5889
67359SOL    HW120069  12.777  11.867   2.421  0.0519 -1.1191  0.9183
67359SOL    HW220070  12.644  11.844   2.353  0.6538  0.7231 -0.9970
67360SOL     OW20071   2.933   8.550   4.494  0.2308 -0.3578  0.0543
67360SOL    HW120072   2.988   8.518   4.565 -0.8234 -1.7545  0.2909
67360SOL    HW220073   2.902   8.471   4.450 -0.3339  0.4359 -1.0328
67361SOL     OW20074  12.908   6.495   0.003 -0.0035  0.3526  0.1099
67361SOL    HW120075  12.834   6.459  -0.046  0.2207  0.0345  0.0092
67361SOL    HW220076  12.907   6.447   0.086 -0.5803  1.1096  0.5582
67362SOL     OW20077  10.965   2.375   0.641 -0.9166 -0.1197 -0.2284
67362SOL    HW120078  10.899   2.386   0.573 -1.0780 -0.8185 -0.1859
67362SOL    HW220079  10.992   2.465   0.663  0.2098  0.0900 -2.2380
67363SOL     OW20080  13.485   4.352  13.593  0.1766 -0.0821  0.0232
67363SOL    HW120081  13.418   4.289  13.565 -2.1333  1.1226  2.3774
67363SOL    HW220082  13.468   4.430  13.541  0.6821 -0.2136 -0.3468
67364SOL     OW20083  13.010   9.051  10.085 -0.0922  0.7628  0.7002
67364SOL    HW120084  13.066   9.019  10.014 -1.5879  1.4889 -0.8816
67364SOL    HW220085  12.986   8.973  10.134  0.5668  0.1723  0.1027
67365SOL     OW20086  13.191   8.590  10.398  0.3433  0.0693 -0.3469
67365SOL    HW120087  13.175   8.602  10.491 -1.1861 -0.8136 -0.4757
67365SOL    HW220088  13.233   8.504  10.391 -0.3237 -0.2452 -0.5384
67366SOL     OW20089  12.538  10.876   3.621  0.3037 -0.2944 -0.1376
67366SOL    HW120090  12.472  10.814   3.587 -0.5724  0.6957 -0.2831
67366SOL    HW220091  12.582  10.827   3.690 -1.0091 -0.7926  0.3914
67367SOL     OW20092   9.260   5.242   5.307 -0.3120 -0.1741  0.0425
67367SOL    HW120093   9.206   5.162   5.307 -0.7883  0.1345  0.4766
67367SOL    HW220094   9.223   5.296   5.237 -0.3667 -0.0942  0.1322
67368SOL     OW20095  13.778   5.302   1.727 -0.1786 -0.4405 -0.4805
67368SOL    HW120096  13.739   5.219   1.757 -2.4521  1.0719  1.1158
67368SOL    HW220097  13.724   5.328   1.653 -1.7153  1.1514  1.0884
67369SOL     OW20098  13.643   9.158   6.933  0.9891  0.1266 -0.2250
67369SOL    HW120099  13.582   9.097   6.890 -1.4955  2.6968 -0.6956
67369SOL    HW220100  13.625   9.149   7.026 -1.8848  2.2911 -0.4180
67370SOL     OW20101  10.601  11.680   4.040  0.1662 -0.4433  0.4507
67370SOL    HW120102  10.624  11.606   3.984 -0.9197  0.3222 -1.1120
67370SOL    HW220103  10.576  11.641   4.124 -0.6930 -1.8889 -0.4417
67371SOL     OW20104   9.738   8.466   3.265  0.2779  0.0538 -0.2588
67371SOL    HW120105   9.780   8.451   3.180  0.5690 -3.1391  0.3053
67371SOL    HW220106   9.645   8.454   3.248  0.4020 -1.3835 -0.0399
67372SOL     OW20107   9.633   2.219   2.765 -0.0456  0.0472  0.2036
67372SOL    HW120108   9.578   2.212   2.843  0.6850 -1.7834  0.5984
67372SOL    HW220109   9.646   2.129   2.736  2.1712  0.4520 -0.2671
67373SOL     OW20110   0.488   8.239   5.866 -0.0032  0.1861 -0.5484
67373SOL    HW120111   0.576   8.222   5.900 -0.1302  2.2286  0.9677
67373SOL    HW220112   0.497   8.319   5.815 -1.1552  0.9963  0.4782
67374SOL     OW20113  11.869   6.731   5.488 -0.1101 -0.2515  0.2562
67374SOL    HW120114  11.940   6.783   5.527 -0.2060 -0.1920  0.3536
67374SOL    HW220115  11.871   6.648   5.536  0.5763 -0.6579 -0.4559
67375SOL     OW20116  12.499   3.796   8.632  0.4035  0.3221  0.4270
67375SOL    HW120117  12.462   3.787   8.720  0.1970  0.3310  0.3417
67375SOL    HW220118  12.423   3.803   8.574  0.5184  2.3455  0.4446
67376SOL     OW20119   6.031  12.825   5.877 -0.3370 -0.1256 -0.1788
67376SOL    HW120120   6.053  12.759   5.811 -1.4501 -1.5466  0.8010
67376SOL    HW220121   6.103  12.820   5.941 -1.7568 -2.5544  1.4055
67377SOL     OW20122   9.518   3.838   9.639 -0.4908 -0.2302  0.4742
67377SOL    HW120123   9.445   3.818   9.698 -1.7848  0.5517 -0.8101
67377SOL    HW220124   9.478   3.849   9.553  1.0747  0.7822 -0.1733
67378SOL     OW20125  10.484  12.102   6.712 -0.1845 -0.0980  0.6265
67378SOL    HW120126  10.397  12.064   6.701  0.5657 -1.8111  0.2925
67378SOL    HW220127  10.511  12.077   6.800 -0.3901  1.2558  1.0969
67379SOL     OW20128   1.735   0.249   6.475  0.1793 -0.3363  0.4133
67379SOL    HW120129   1.726   0.190   6.401 -0.9598 -0.4038  0.5968
67379SOL    HW220130   1.646   0.274   6.498  0.5309 -0.0332  1.5408
67380SOL     OW20131   1.451   5.972   5.985 -0.0857 -0.7529 -0.8219
67380SOL    HW120132   1.406   6.052   6.012  0.3418 -0.2190 -1.6453
67380SOL    HW220133   1.447   5.915   6.062  0.8956  0.6148  0.3001
67381SOL     OW20134   2.850  11.925   6.218  0.3655 -0.0782 -0.2711
67381SOL    HW120135   2.838  11.893   6.128 -0.0074 -1.0948  0.1272
67381SOL    HW220136   2.763  11.923   6.256  0.7477 -1.0653  0.5669
67382SOL     OW20137   1.919  13.236   4.763  0.6985  0.3294 -0.0826
67382SOL    HW120138   1.989  13.205   4.820 -0.1901  1.6878  1.8605
67382SOL    HW220139   1.955  13.314   4.721  0.1668  1.5291  1.5609
67383SOL     OW20140  13.251   0.517   5.119  0.1947 -0.2346 -0.0467
67383SOL    HW120141  13.180   0.563   5.163  0.1827 -1.0965  0.8745
67383SOL    HW220142  13.311   0.492   5.189  1.8840  1.2145 -0.8762
67384SOL     OW20143   6.817   3.261  12.726  0.0277 -0.0363  0.3446
67384SOL    HW120144   6.777   3.306  12.652  0.4038 -1.1508 -0.5503
67384SOL    HW220145   6.781   3.173  12.724  0.6425 -0.3147  1.0250
67385SOL     OW20146  11.832   2.813   4.295  0.5446 -0.0546 -0.2447
67385SOL    HW120147  11.738   2.827   4.288  0.1819 -1.6086  0.9449
67385SOL    HW220148  11.851   2.828   4.388  2.0795  3.2616 -0.9276
67386SOL     OW20149   2.214  12.015   2.539  0.3111  0.0756 -0.3437
67386SOL    HW120150   2.227  11.928   2.578 -2.3511 -1.8811 -3.3388
67386SOL    HW220151   2.130  12.044   2.572  0.7969  1.1878 -0.0379
67387SOL     OW20152  10.570  12.581   8.735 -0.3815  0.3686 -0.1078
67387SOL    HW120153  10.590  12.654   8.677 -1.7915 -0.8145 -2.2038
67387SOL    HW220154  10.644  12.578   8.796 -0.3380  3.5808  0.1669
67388SOL     OW20155  10.508   1.360   7.549 -0.6030  0.2879  0.1454
67388SOL    HW120156  10.458   1.430   7.590 -0.9288  0.5234 -0.6449
67388SOL    HW220157  10.479   1.359   7.458 -1.0422 -1.2487  0.2590
67389SOL     OW20158   1.099   7.274   5.265 -0.1982  0.0740 -0.3735
67389SOL    HW120159   1.073   7.235   5.348  0.2054 -1.7417 -1.0596
67389SOL    HW220160   1.025   7.329   5.240 -1.6237 -1.6778 -0.2192
67390SOL     OW20161  10.583   4.679   7.570  0.1084 -0.7563 -0.7690
67390SOL    HW120162  10.544   4.644   7.651  0.6350  1.2187  0.3968
67390SOL    HW220163  10.514   4.733   7.532  1.4488  2.8509  1.3617
67391SOL     OW20164   0.759   8.180   9.902 -0.1328  0.0444  0.2290
67391SOL    HW120165   0.706   8.138   9.834  1.1752 -0.3548 -0.5787
67391SOL    HW220166   0.792   8.108   9.955 -0.3494  0.2831  0.6929
67392SOL     OW20167   9.167  12.973   9.449 -0.2092 -0.1894  0.2036
67392SOL    HW120168   9.163  12.989   9.543 -0.2332 -1.3983  0.4255
67392SOL    HW220169   9.259  12.987   9.426  0.2148 -1.7800  0.8000
67393SOL     OW20170   6.213  11.035   7.809 -0.1237  0.1531  0.4110
67393SOL    HW120171   6.234  10.949   7.771  0.0406 -1.0197  2.9833
67393SOL    HW220172   6.299  11.076   7.821  0.2153 -1.0623  2.8630
67394SOL     OW20173   8.406   5.122  10.296 -0.5034  0.0893 -0.2463
67394SOL    HW120174   8.401   5.139  10.202 -2.2486  0.3203 -0.1385
67394SOL    HW220175   8.330   5.067  10.315  0.5365 -1.0553  0.8327
67395SOL     OW20176  12.052  10.472   7.598 -0.0538  0.0818 -0.0377
67395SOL    HW120177  12.089  10.532   7.534  1.0151 -1.3347 -0.8008
67395SOL    HW220178  11.960  10.496   7.603 -0.1882  0.1913 -2.1735
67396SOL     OW20179  12.796   6.059   3.728 -0.2652 -0.6203  0.4233
67396SOL    HW120180  12.746   6.052   3.646  1.0942  1.3453 -0.6585
67396SOL    HW220181  12.880   6.018   3.708  0.2286  0.2534  0.6770
67397SOL     OW20182   0.111  13.125  11.891  0.5880  0.0628  0.2638
67397SOL    HW120183   0.111  13.220  11.896 -0.3281  0.1919 -1.5013
67397SOL    HW220184   0.025  13.099  11.922  0.6619 -0.1667  0.2819
67398SOL     OW20185  11.448   1.836   2.968  0.3880 -0.6077  0.0042
67398SOL    HW120186  11.499   1.800   3.040  0.7621  0.3802  0.2448
67398SOL    HW220187  11.392   1.763   2.940 -3.5804  0.1567  4.5686
67399SOL     OW20188   7.958   8.171  11.309 -0.4747 -0.5177 -0.8220
67399SOL    HW120189   7.980   8.172  11.402 -0.1829  2.3521 -0.8126
67399SOL    HW220190   7.975   8.081  11.280  3.5322 -0.5571  0.9818
67400SOL     OW20191   0.705   4.578   0.944 -0.2243  0.2241  0.6734
67400SOL    HW120192   0.683   4.550   1.033  0.7079  0.4178  0.9663
67400SOL    HW220193   0.730   4.669   0.953 -0.0321  0.2142  0.2198
67401SOL     OW20194   8.912   2.870   8.794 -0.1619 -0.0724  0.0838
67401SOL    HW120195   8.833   2.864   8.847  0.8590  0.6908  1.7640
67401SOL    HW220196   8.880   2.895   8.707 -1.9271 -2.0099  0.1007
67402SOL     OW20197  10.365  11.858  11.869  0.1473  0.4308 -0.6696
67402SOL    HW120198  10.386  11.879  11.960  2.6771 -1.8248 -0.5967
67402SOL    HW220199  10.443  11.884  11.820 -0.4151 -0.1295 -1.8893
67403SOL     OW20200   6.174   9.312  13.766  0.0669 -0.0079  0.0294
67403SOL    HW120201   6.189   9.218  13.761  0.8132  0.1632 -1.6924
67403SOL    HW220202   6.196   9.345  13.679 -1.2389  1.6212  0.2503
67404SOL     OW20203   7.400  12.724   2.156  0.5341  0.0474  0.0544
67404SOL    HW120204   7.456  12.794   2.122  2.8972 -1.2762  0.9522
67404SOL    HW220205   7.356  12.689   2.079  0.7894  1.2737 -0.6773
67405SOL     OW20206   6.034   3.226  11.840  0.7144  0.6779 -0.2317
67405SOL    HW120207   5.953   3.194  11.878  0.3325  1.0037 -0.7561
67405SOL    HW220208   6.041   3.182  11.756  1.7306 -0.3011  0.3453
67406SOL     OW20209  10.858   1.302   9.527 -0.0771  0.0617  0.2879
67406SOL    HW120210  10.873   1.382   9.476  0.2618  1.3508  2.3131
67406SOL    HW220211  10.803   1.330   9.599 -1.0450 -1.8449  0.3422
67407SOL     OW20212  10.531   4.940  11.341 -0.3547 -0.2965  0.0182
67407SOL    HW120213  10.596   4.872  11.363 -0.6404 -0.2579  1.0618
67407SOL    HW220214  10.568   4.985  11.266  0.2777 -1.0265 -0.1240
67408SOL     OW20215  11.090   6.232   1.945  0.7828 -0.1160 -0.6275
67408SOL    HW120216  11.118   6.257   2.033  1.5893 -0.7161 -0.7055
67408SOL    HW220217  11.165   6.253   1.889  0.6786 -0.7430 -1.0110
67409SOL     OW20218   4.126   6.734   0.653 -0.2266  0.3864 -0.9315
67409SOL    HW120219   4.148   6.746   0.745 -0.4937 -0.9223 -0.6844
67409SOL    HW220220   4.156   6.815   0.611  0.8267  0.5773  0.1313
67410SOL     OW20221   8.945  11.606   6.662  0.4477  0.7475  0.0705
67410SOL    HW120222   8.999  11.545   6.711  1.2423 -0.5945 -2.3451
67410SOL    HW220223   8.912  11.667   6.728  1.7798 -0.6908  2.1675
67411SOL     OW20224   7.410   9.506   8.065  0.2031 -0.2660 -0.1363
67411SOL    HW120225   7.446   9.572   8.006 -0.8389  1.8223  1.4789
67411SOL    HW220226   7.485   9.477   8.117  0.7126 -0.6121 -1.0277
67412SOL     OW20227  11.698   2.542   4.449 -0.7963 -0.2613  0.5218
67412SOL    HW120228  11.768   2.503   4.396  0.8673  2.4685  0.5308
67412SOL    HW220229  11.725   2.525   4.539  0.9106  2.2090  0.5839
67413SOL     OW20230   6.343   7.587   5.725  0.5656  0.8202 -0.3252
67413SOL    HW120231   6.384   7.559   5.643  0.5473  0.6245 -0.2667
67413SOL    HW220232   6.249   7.586   5.705  0.5058 -0.0624 -0.0442
67414SOL     OW20233  11.043   0.810   8.175 -0.8107 -0.1634 -0.0261
67414SOL    HW120234  10.990   0.743   8.132  0.6214 -2.7419  1.9574
67414SOL    HW220235  11.120   0.819   8.120 -0.5436 -0.9370  0.2073
67415SOL     OW20236   3.325  11.283   2.399  0.1635  0.0594  0.3022
67415SOL    HW120237   3.343  11.238   2.482 -1.4931 -0.5765  0.3628
67415SOL    HW220238   3.297  11.371   2.426 -0.1083 -0.0585  0.4148
67416SOL     OW20239   8.523   1.880  11.222  0.2414  0.5412  0.0819
67416SOL    HW120240   8.502   1.964  11.180 -0.2540  0.6169  0.4741
67416SOL    HW220241   8.500   1.814  11.157 -0.8380  0.6395  0.3487
67417SOL     OW20242   6.822   7.880  11.352  0.0108 -0.0685  0.0594
67417SOL    HW120243   6.792   7.817  11.417  0.9858  0.0480  0.6435
67417SOL    HW220244   6.859   7.827  11.282 -2.7305 -0.2913 -1.3658
67418SOL     OW20245   8.172  10.834  10.520 -0.2145 -0.9587  0.3797
67418SOL    HW120246   8.223  10.888  10.460  0.0876  0.4013  1.7710
67418SOL    HW220247   8.081  10.850  10.495 -0.0599 -1.2353 -0.3704
67419SOL     OW20248  10.712  11.976  10.954  0.6307 -0.1794 -0.2604
67419SOL    HW120249  10.670  11.945  10.873  1.3330  0.3650 -0.8465
67419SOL    HW220250  10.749  12.061  10.930 -1.6394  1.4018  1.4150
67420SOL     OW20251  10.503  11.487   9.674  0.5221  0.1806  0.4944
67420SOL    HW120252  10.418  11.442   9.676  2.1083 -3.3464 -1.8100
67420SOL    HW220253  10.494  11.550   9.602  0.7019 -2.5158 -2.0790
67421SOL     OW20254  11.120  13.171   4.965 -0.2157  0.2300 -0.2997
67421SOL    HW120255  11.076  13.161   5.049  1.2975  0.5443  0.5670
67421SOL    HW220256  11.091  13.256   4.932 -0.6856  0.1775 -0.0314
67422SOL     OW20257  11.388   7.353  12.929  0.1668 -0.8155 -0.2526
67422SOL    HW120258  11.330   7.326  12.858 -1.4926  0.9765  0.3128
67422SOL    HW220259  11.435   7.428  12.894 -0.4774 -0.0805  0.4161
67423SOL     OW20260   7.169   7.892   9.812  0.5625 -0.3426  0.0422
67423SOL    HW120261   7.259   7.867   9.795  0.6962 -0.7254  1.2432
67423SOL    HW220262   7.128   7.813   9.848 -0.2547 -0.1746 -0.4721
67424SOL     OW20263  11.432   1.321  12.719 -0.1425 -0.1161  0.1864
67424SOL    HW120264  11.437   1.312  12.815  2.9808  2.5147  0.4338
67424SOL    HW220265  11.414   1.413  12.704  1.6074 -0.0039 -1.7064
67425SOL     OW20266   5.245  10.218   0.746 -0.4974  0.1082 -0.1733
67425SOL    HW120267   5.223  10.204   0.838 -1.4594  0.3359 -0.3581
67425SOL    HW220268   5.282  10.306   0.744 -0.2872  0.0267  0.0195
67426SOL     OW20269   7.111   7.375   0.129  0.4888 -0.3346 -0.9203
67426SOL    HW120270   7.152   7.291   0.150 -2.1865 -1.0653  2.1782
67426SOL    HW220271   7.172   7.441   0.164  0.9552 -1.1869 -0.0923
67427SOL     OW20272  11.035   6.018   6.057  0.2577  0.6080 -0.5617
67427SOL    HW120273  11.120   6.061   6.053 -0.2269  1.5086 -2.0460
67427SOL    HW220274  11.044   5.941   6.002  0.5023 -0.0839  0.4148
67428SOL     OW20275  11.222   0.266  10.897  0.3635  0.1163 -0.0617
67428SOL    HW120276  11.134   0.275  10.933  0.5355  0.7484  0.2005
67428SOL    HW220277  11.269   0.345  10.925  1.1766 -0.4562  0.2605
67429SOL     OW20278  12.705   4.583   3.678  0.1082  0.2878 -0.1585
67429SOL    HW120279  12.701   4.614   3.768  1.1916 -1.9840  0.7467
67429SOL    HW220280  12.794   4.601   3.650  0.3480 -0.7292 -0.0801
67430SOL     OW20281   0.207   0.858   3.929  0.0276 -0.7870 -0.1349
67430SOL    HW120282   0.282   0.833   3.982  1.3333 -0.8940 -1.9291
67430SOL    HW220283   0.171   0.775   3.898 -2.1899 -0.8767  2.3600
67431SOL     OW20284   6.521   6.259  11.399 -0.1453 -0.7294 -0.1080
67431SOL    HW120285   6.596   6.251  11.340 -0.0490  1.9420 -0.4549
67431SOL    HW220286   6.553   6.224  11.483  1.0547 -0.8186 -0.5803
67432SOL     OW20287   6.203   7.703  13.527 -0.1748 -0.3386  0.2086
67432SOL    HW120288   6.290   7.674  13.501  0.3349 -0.6477  2.0911
67432SOL    HW220289   6.208   7.712  13.622 -1.4881  2.1090  0.1184
67433SOL     OW20290   6.795   3.758  10.582 -0.0956 -0.2402 -0.5554
67433SOL    HW120291   6.761   3.846  10.599 -2.3730 -1.2627  0.7022
67433SOL    HW220292   6.740   3.725  10.511 -0.4080 -1.2084  0.1146
67434SOL     OW20293   5.157   2.206   3.422 -0.3467 -0.3629  0.0742
67434SOL    HW120294   5.187   2.168   3.504 -0.5073  1.6531  1.1242
67434SOL    HW220295   5.237   2.214   3.369 -0.0347 -0.4989  0.5204
67435SOL     OW20296  11.836   4.267   4.319 -0.2236  0.1928  0.3473
67435SOL    HW120297  11.761   4.269   4.378 -0.8981 -0.1067 -0.4859
67435SOL    HW220298  11.798   4.261   4.231  0.7945 -1.3077 -0.0266
67436SOL     OW20299  11.387   9.332   0.189  0.1041  0.3065  0.1044
67436SOL    HW120300  11.315   9.395   0.180 -0.6344 -0.3007  1.4091
67436SOL    HW220301  11.427   9.327   0.102  0.0462  2.4007 -0.0836
67437SOL     OW20302   1.238   4.320   5.779 -0.3934  0.1743 -0.5662
67437SOL    HW120303   1.186   4.368   5.842  0.4707 -0.5647  0.7583
67437SOL    HW220304   1.212   4.355   5.694 -0.0140  2.7465  0.3045
67438SOL     OW20305   5.670   7.127   9.009 -0.8602 -0.4813 -0.2859
67438SOL    HW120306   5.589   7.132   9.060  1.0215  1.0171  2.8638
67438SOL    HW220307   5.706   7.041   9.030 -0.0432  0.1683  1.1458
67439SOL     OW20308   9.674   7.146  10.260 -0.3493 -0.4118 -0.2205
67439SOL    HW120309   9.615   7.071  10.252 -0.7814  0.0252 -1.3382
67439SOL    HW220310   9.660   7.197  10.180  0.4143  0.5228  0.2117
67440SOL     OW20311  12.991   3.153  10.451  0.3400  0.7059 -0.0857
67440SOL    HW120312  13.001   3.118  10.539 -2.0166  1.3440  0.5063
67440SOL    HW220313  13.007   3.247  10.461  0.3745  0.7359 -0.4137
67441SOL     OW20314  12.852   9.830   8.214 -0.0114 -0.6665  0.5088
67441SOL    HW120315  12.898   9.812   8.131 -0.4621  1.4060 -0.2526
67441SOL    HW220316  12.887   9.766   8.275  0.8454 -1.8201 -1.1169
67442SOL     OW20317   7.266   9.844   8.358  0.2646 -1.0486 -0.1616
67442SOL    HW120318   7.335   9.857   8.292 -0.6837  1.0511 -0.8350
67442SOL    HW220319   7.310   9.799   8.430  2.5620  0.8389 -0.2575
67443SOL     OW20320   1.494   8.759   6.612  0.0669  0.2363  0.4080
67443SOL    HW120321   1.523   8.755   6.521  1.6933 -1.9517  0.9281
67443SOL    HW220322   1.412   8.710   6.614  0.3499 -0.2496  0.2130
67444SOL     OW20323   0.266   0.837  11.891  0.5193 -0.5480 -0.0472
67444SOL    HW120324   0.302   0.795  11.969  0.9259  0.6401  0.4263
67444SOL    HW220325   0.269   0.930  11.910 -1.3232 -0.3266 -0.6505
67445SOL     OW20326   0.247   6.849  11.126  0.0429  0.5276 -0.3982
67445SOL    HW120327   0.307   6.912  11.085  0.9266 -1.3133 -2.1371
67445SOL    HW220328   0.228   6.787  11.056 -0.3945 -1.3948  1.3601
67446SOL     OW20329  10.607  10.638   2.405 -0.2848  0.6036 -1.0486
67446SOL    HW120330  10.594  10.726   2.368 -1.7762  0.5213 -0.7757
67446SOL    HW220331  10.699  10.619   2.388  0.7971  3.2163  0.9927
67447SOL     OW20332   5.099   4.718  12.393  0.7983  0.2051  0.8265
67447SOL    HW120333   5.044   4.791  12.419  1.0101 -0.0050  1.8942
67447SOL    HW220334   5.133   4.743  12.307 -1.1358  0.2272  0.0209
67448SOL     OW20335   7.872   7.382   2.682 -0.2139 -0.3050 -0.1511
67448SOL    HW120336   7.931   7.309   2.664  0.1677 -0.6293  2.1290
67448SOL    HW220337   7.788   7.355   2.644  0.2237 -1.3935 -0.3805
67449SOL     OW20338   2.412   0.172   3.075 -0.5962 -0.7001 -0.0752
67449SOL    HW120339   2.457   0.256   3.072 -1.0185 -0.3822  1.6184
67449SOL    HW220340   2.423   0.136   2.987  0.3064  0.7392 -0.5862
67450SOL     OW20341   4.352  10.473   1.618  0.5032  0.0337 -0.2197
67450SOL    HW120342   4.304  10.506   1.543 -0.2803 -1.9106 -0.6346
67450SOL    HW220343   4.393  10.550   1.657 -0.6355  1.3330 -1.5185
67451SOL     OW20344  13.931   4.673  10.372  0.0234  0.3308  0.2814
67451SOL    HW120345  13.866   4.741  10.393 -1.3187 -1.1139  0.9625
67451SOL    HW220346  13.898   4.631  10.293 -1.0935 -1.8338  1.8093
67452SOL     OW20347  11.725   8.228   0.643 -0.0115  0.7859  0.0275
67452SOL    HW120348  11.784   8.156   0.621 -0.7327 -0.7598  2.8041
67452SOL    HW220349  11.778   8.287   0.697 -0.3383  0.6871  0.4526
67453SOL     OW20350   8.307   4.204  13.396  0.2314 -0.0165 -0.8192
67453SOL    HW120351   8.233   4.252  13.358  0.1335  0.8087  0.3900
67453SOL    HW220352   8.381   4.263  13.389  0.6324 -0.5742 -1.3805
67454SOL     OW20353   0.727  12.955   1.760  0.4399  0.0382  0.2139
67454SOL    HW120354   0.756  12.964   1.669 -0.0437 -1.4993 -0.1225
67454SOL    HW220355   0.680  12.872   1.762  2.1605 -0.9969  2.3128
67455SOL     OW20356  12.248   1.376  11.157 -0.1046 -0.4709  0.6612
67455SOL    HW120357  12.257   1.321  11.235 -0.2194  0.3147  1.2394
67455SOL    HW220358  12.237   1.314  11.085  2.6052 -1.3282  0.8694
67456SOL     OW20359  12.348   5.805   8.882 -0.4496  0.2011 -0.6150
67456SOL    HW120360  12.318   5.852   8.960  1.6467  0.1565  0.2717
67456SOL    HW220361  12.341   5.870   8.812 -1.4829  0.5250 -0.2401
67457SOL     OW20362  10.262  10.799  12.865  0.5681 -0.1572  0.4574
67457SOL    HW120363  10.199  10.863  12.897 -0.8609  0.3782 -2.9862
67457SOL    HW220364  10.332  10.799  12.930 -1.6152  1.3549  2.9721
67458SOL     OW20365  12.169   4.744   0.834 -0.2359  0.0136 -0.3186
67458SOL    HW120366  12.078   4.717   0.818 -0.0241  0.3175 -2.2991
67458SOL    HW220367  12.216   4.720   0.754  1.2463  0.6786  0.3113
67459SOL     OW20368  12.089   9.559   8.172  0.2865  0.1493  0.0611
67459SOL    HW120369  12.144   9.637   8.186  0.6879 -0.3383  1.3667
67459SOL    HW220370  12.002   9.587   8.199  0.4060  0.1990  0.4074
67460SOL     OW20371   0.887   6.809  13.285 -0.3609  0.1982  0.1828
67460SOL    HW120372   0.960   6.868  13.306 -0.6482  0.3514  0.7656
67460SOL    HW220373   0.894   6.795  13.190 -1.1974  2.3973 -0.2740
67461SOL     OW20374   8.866  10.370   9.915  0.4594 -0.0884  0.3899
67461SOL    HW120375   8.862  10.466   9.911 -0.3992 -0.1312 -2.9544
67461SOL    HW220376   8.792  10.345   9.971  1.1777  1.1666  1.9660
67462SOL     OW20377  13.252  11.443  10.324  0.0717  0.5260 -0.0541
67462SOL    HW120378  13.328  11.497  10.302  0.3146  0.7839  1.3019
67462SOL    HW220379  13.289  11.364  10.364 -0.3665  0.7608  0.8348
67463SOL     OW20380  10.618   8.238   9.984  0.1022 -0.0854 -0.5704
67463SOL    HW120381  10.627   8.284  10.068  1.2773  1.5332 -1.5280
67463SOL    HW220382  10.535   8.270   9.948  0.1442  0.0700 -0.5297
67464SOL     OW20383  13.139  12.027  11.407 -0.5279  0.0964 -0.3424
67464SOL    HW120384  13.178  11.941  11.389 -0.4307 -0.0079  0.3404
67464SOL    HW220385  13.081  12.042  11.332 -1.9620 -1.4094  0.3996
67465SOL     OW20386   5.420   7.743  11.638  0.1717 -0.0326 -0.0679
67465SOL    HW120387   5.441   7.703  11.723  4.3082 -0.1678 -0.9372
67465SOL    HW220388   5.455   7.832  11.644 -1.0797  0.5603 -1.0865
67466SOL     OW20389  12.358   2.021   6.683 -0.3632  0.1571 -0.4089
67466SOL    HW120390  12.388   1.932   6.701 -0.0414  0.0418 -1.4529
67466SOL    HW220391  12.434   2.065   6.645 -1.1422  0.2005 -2.0012
67467SOL     OW20392  13.089  11.491   7.171  0.0605 -0.0199  0.7703
67467SOL    HW120393  13.029  11.416   7.171 -1.2358  0.9344 -1.0903
67467SOL    HW220394  13.153  11.470   7.239 -1.5398 -1.7647  1.8557
67468SOL     OW20395  13.434   4.496   3.795 -0.1903  0.2818  0.6115
67468SOL    HW120396  13.444   4.405   3.765 -2.5436  0.0481  0.3760
67468SOL    HW220397  13.475   4.497   3.881 -0.0547 -0.9940  0.5868
67469SOL     OW20398  10.807  12.807  11.301 -0.4413  0.2917  0.2379
67469SOL    HW120399  10.896  12.825  11.269 -1.3936  1.3039 -2.1076
67469SOL    HW220400  10.798  12.712  11.291 -0.2140  0.4010 -1.3643
67470SOL     OW20401   1.014  12.737  10.688 -0.2071 -0.1188  0.5136
67470SOL    HW120402   1.002  12.716  10.780 -0.9423 -0.5948  0.3199
67470SOL    HW220403   1.091  12.687  10.662 -0.2562 -0.3281  0.7642
67471SOL     OW20404  10.378  11.285  13.151  0.2971  0.7424 -0.6484
67471SOL    HW120405  10.315  11.226  13.109  0.8319 -0.9960  0.8654
67471SOL    HW220406  10.462  11.262  13.113  0.7677 -0.7558  1.1300
67472SOL     OW20407   0.947  12.496   5.650 -0.1767 -0.5605  0.3545
67472SOL    HW120408   1.021  12.452   5.609 -0.2260 -0.7609  0.4803
67472SOL    HW220409   0.873  12.478   5.591  0.0281  0.2807 -0.1776
67473SOL     OW20410   1.497   3.725   2.656 -0.4087  0.0198  0.4092
67473SOL    HW120411   1.555   3.712   2.580  0.7891 -1.0207  1.4455
67473SOL    HW220412   1.411   3.694   2.627 -0.1703  0.4504 -0.7923
67474SOL     OW20413   3.386   5.225   4.509  0.4300  0.2371 -0.0255
67474SOL    HW120414   3.407   5.136   4.479 -0.2076  0.0777 -0.0067
67474SOL    HW220415   3.297   5.218   4.545 -0.3837  1.2632 -1.7114
67475SOL     OW20416  12.442   8.506   9.220  0.0614 -0.1946 -0.0651
67475SOL    HW120417  12.431   8.413   9.200 -2.0827 -0.5418  2.2031
67475SOL    HW220418  12.357   8.545   9.198  0.1764  0.7737  1.0896
67476SOL     OW20419   7.876   8.852  11.592  0.7188  0.0651  0.0608
67476SOL    HW120420   7.782   8.850  11.606  0.7124 -0.0416  0.0062
67476SOL    HW220421   7.899   8.945  11.593  0.4594  0.1569 -0.9629
67477SOL     OW20422   0.377  12.515   5.207 -0.2110  0.1808  0.1081
67477SOL    HW120423   0.438  12.550   5.143 -0.6137  1.4066  0.3497
67477SOL    HW220424   0.350  12.431   5.172  3.0528 -1.3621  0.9213
67478SOL     OW20425   3.196   4.320  10.832 -0.0496  0.0168 -0.4029
67478SOL    HW120426   3.265   4.253  10.824  0.4779  0.6879 -1.8170
67478SOL    HW220427   3.237   4.400  10.799 -0.9560  0.8453  0.4306
67479SOL     OW20428   9.627   3.975   2.989  1.1622 -0.0972  0.3005
67479SOL    HW120429   9.638   4.000   2.898 -0.3704 -0.1668  0.0662
67479SOL    HW220430   9.704   3.921   3.009  3.2221  2.5611  0.0708
67480SOL     OW20431  13.551   1.839   6.622 -0.0952 -0.1695 -0.2321
67480SOL    HW120432  13.621   1.779   6.646  1.1659  1.5229  0.5647
67480SOL    HW220433  13.594   1.924   6.612 -1.8094  0.6475 -1.1781
67481SOL     OW20434   2.015   0.479   5.127 -0.4368  0.4600 -0.5427
67481SOL    HW120435   2.052   0.567   5.124 -2.8001  1.5418 -0.1471
67481SOL    HW220436   1.938   0.487   5.184 -0.6162 -1.9178 -0.3431
67482SOL     OW20437  13.668   3.289  10.517 -0.5030 -0.2776  0.0919
67482SOL    HW120438  13.736   3.328  10.462 -0.8233  0.1440 -0.0089
67482SOL    HW220439  13.588   3.334  10.491 -1.3154 -2.5356 -1.6570
67483SOL     OW20440   1.112   8.799  11.031  0.7547  0.5336 -0.4099
67483SOL    HW120441   1.076   8.778  10.944  0.7423 -2.0235  0.1374
67483SOL    HW220442   1.047   8.857  11.070 -0.0426  0.4256 -1.5266
67484SOL     OW20443   4.996   8.049   3.922 -0.0888 -0.3478  0.4849
67484SOL    HW120444   5.035   8.056   4.010 -0.4453  0.7415  0.5736
67484SOL    HW220445   5.025   7.963   3.890 -0.9921 -1.3249  2.1538
67485SOL     OW20446   1.683   9.147   8.845 -0.1122 -0.2343  0.8571
67485SOL    HW120447   1.591   9.163   8.822 -0.3778 -0.6246  1.6016
67485SOL    HW220448   1.714   9.231   8.878  0.0059  0.0850 -0.0405
67486SOL     OW20449   1.428   0.841   1.350 -0.2376 -0.6237 -0.4113
67486SOL    HW120450   1.483   0.847   1.272  0.2198 -1.4653 -0.1724
67486SOL    HW220451   1.344   0.879   1.324 -0.4446 -1.8735 -1.6631
67487SOL     OW20452  13.436   7.223   2.535 -0.4445  0.1260 -1.0289
67487SOL    HW120453  13.454   7.151   2.595  1.4175 -0.3331 -2.0475
67487SOL    HW220454  13.340   7.229   2.532 -0.6144  0.3097  2.0681
67488SOL     OW20455   2.401   8.374   9.387  0.1028  0.2340  0.3293
67488SOL    HW120456   2.474   8.338   9.336 -0.4223 -0.2047 -0.1184
67488SOL    HW220457   2.391   8.313   9.460 -1.8829 -1.5872 -1.3177
67489SOL     OW20458   1.421   1.267  10.017 -0.3313  0.1901  0.2615
67489SOL    HW120459   1.326   1.277  10.028 -0.7210 -1.5296 -1.1611
67489SOL    HW220460   1.447   1.343   9.964 -0.9687  0.4377  0.2943
67490SOL     OW20461  14.099  12.210  10.046  0.2286  0.1038  0.0536
67490SOL    HW120462  14.056  12.127  10.069 -0.0224  0.2730  0.1913
67490SOL    HW220463  14.027  12.272  10.038  0.3635  0.1837 -0.6101
67491SOL     OW20464  11.958   4.841   6.579 -0.5408 -0.3974  0.3225
67491SOL    HW120465  11.867   4.845   6.608 -0.9258  0.8554 -0.8887
67491SOL    HW220466  11.991   4.758   6.612 -1.9992 -0.6837  1.1392
67492SOL     OW20467   8.269   0.497  13.563  0.0437 -0.1332  0.0674
67492SOL    HW120468   8.176   0.482  13.547  0.2666  0.1567 -1.6038
67492SOL    HW220469   8.272   0.580  13.612 -0.5822 -0.2271  0.2672
67493SOL     OW20470   3.943   0.623   2.818  0.5636 -0.5517 -0.0989
67493SOL    HW120471   3.853   0.632   2.787  0.5556  1.1323  0.3024
67493SOL    HW220472   3.938   0.640   2.912  1.4916  1.3391 -0.3382
67494SOL     OW20473  11.601  13.700  11.513  0.0788 -0.0774  0.1065
67494SOL    HW120474  11.534  13.768  11.519 -0.0807 -0.1937 -0.3408
67494SOL    HW220475  11.575  13.635  11.578 -0.6906 -0.5064 -0.6040
67495SOL     OW20476   3.573  13.446   4.288  0.2382 -0.8136 -0.4619
67495SOL    HW120477   3.547  13.532   4.321  1.2741 -1.0916  1.2450
67495SOL    HW220478   3.610  13.463   4.202 -0.5027  0.3018 -0.5849
67496SOL     OW20479  13.496  13.652   2.720  0.5713  0.0547  0.0229
67496SOL    HW120480  13.421  13.704   2.747  0.7276  0.7431 -0.8246
67496SOL    HW220481  13.463  13.562   2.715 -0.4817  0.4890 -1.3312
67497SOL     OW20482   3.759   3.067   1.541  0.3128 -0.4231 -0.3696
67497SOL    HW120483   3.673   3.054   1.501  0.4512 -1.1651 -0.4307
67497SOL    HW220484   3.815   3.099   1.470  0.1756 -0.2723 -0.4094
67498SOL     OW20485   6.303  11.591  11.718  0.7126 -0.2829  0.3233
67498SOL    HW120486   6.291  11.522  11.783 -2.7797 -1.3925 -1.2893
67498SOL    HW220487   6.235  11.655  11.738 -0.5270 -0.7042 -2.1668
67499SOL     OW20488  11.752   4.279  13.137 -0.3411  0.6838  0.2597
67499SOL    HW120489  11.703   4.270  13.056 -1.7384 -0.5612  1.1857
67499SOL    HW220490  11.829   4.224  13.125  0.6326  2.2774 -1.0323
67500SOL     OW20491   4.878   2.808   6.817 -0.1745 -0.0067  0.1388
67500SOL    HW120492   4.922   2.784   6.899  1.0668  0.7480 -0.2939
67500SOL    HW220493   4.941   2.862   6.770 -0.7410 -0.7159 -1.4922
67501SOL     OW20494   3.327  10.585   5.398 -0.1225  0.1474 -0.1100
67501SOL    HW120495   3.362  10.672   5.379 -1.1473  0.5555 -0.1884
67501SOL    HW220496   3.404  10.532   5.419  0.6367  0.7492 -1.2912
67502SOL     OW20497   5.649  12.040   0.595 -0.4529 -0.2575  0.4258
67502SOL    HW120498   5.729  11.995   0.566 -0.2495 -0.3862  1.1711
67502SOL    HW220499   5.578  11.989   0.556 -0.1980 -0.7174  0.5537
67503SOL     OW20500  12.078  10.820   4.379  0.3875 -0.4729  0.0084
67503SOL    HW120501  12.100  10.729   4.397  0.5752 -0.5779 -0.7040
67503SOL    HW220502  12.050  10.820   4.287 -0.6367  0.0029  0.2994
67504SOL     OW20503  13.800  12.753   7.140  0.4025  0.1809  0.1901
67504SOL    HW120504  13.799  12.735   7.234 -0.7698 -0.7055  0.0323
67504SOL    HW220505  13.887  12.727   7.111  0.3763 -0.6718  0.8392
67505SOL     OW20506  13.067   7.791   4.253 -0.4719  0.7016  0.0050
67505SOL    HW120507  13.100   7.801   4.163  1.0607  0.4525  0.4968
67505SOL    HW220508  13.030   7.876   4.275 -0.9208  0.7429 -0.8902
67506SOL     OW20509   3.816   6.251  10.016  0.1645  0.5112 -0.3856
67506SOL    HW120510   3.779   6.266  10.103 -2.4111  0.5298 -1.3766
67506SOL    HW220511   3.756   6.188   9.976  0.7572  1.1983 -2.4555
67507SOL     OW20512   7.785   0.122  13.817 -0.2217 -0.0140  0.0478
67507SOL    HW120513   7.868   0.169  13.802 -0.8439  0.7765 -1.0753
67507SOL    HW220514   7.734   0.181  13.872 -1.1111  0.8280 -1.5894
67508SOL     OW20515   8.941   2.796  12.783 -0.1025  0.0533 -0.3371
67508SOL    HW120516   8.949   2.810  12.688  3.0598 -0.4997 -0.2521
67508SOL    HW220517   8.967   2.879  12.822 -0.1163 -0.1249  0.0556
67509SOL     OW20518  11.072   4.565   1.443  0.4507 -0.1304 -0.0347
67509SOL    HW120519  11.016   4.503   1.397  0.7362 -0.8258  0.5509
67509SOL    HW220520  11.013   4.616   1.498  0.5588 -2.2093  2.1484
67510SOL     OW20521   5.276  12.742   2.290 -0.1648  0.4934 -0.2430
67510SOL    HW120522   5.310  12.784   2.369  1.0178  0.5204 -0.7557
67510SOL    HW220523   5.291  12.649   2.304  0.6364  0.5470 -0.7015
67511SOL     OW20524   3.994   1.292  12.287  0.4092  0.1247  0.6461
67511SOL    HW120525   3.950   1.368  12.325 -0.4291 -0.2407  0.4301
67511SOL    HW220526   4.047   1.328  12.216  0.8097  0.6240  1.1897
67512SOL     OW20527   9.295  11.037   5.853 -0.4339  0.2039  0.2819
67512SOL    HW120528   9.350  10.988   5.792  0.9666  0.8879  0.9724
67512SOL    HW220529   9.256  10.970   5.909  1.6134 -0.1519  1.3404
67513SOL     OW20530  13.627  13.041   7.268  0.4597 -0.1488  0.6018
67513SOL    HW120531  13.541  13.061   7.304  0.4103 -0.0630  0.4352
67513SOL    HW220532  13.660  13.125   7.235  0.8323 -0.0783  1.1430
67514SOL     OW20533  12.435   4.901   9.277 -0.5846 -0.1496  1.0752
67514SOL    HW120534  12.449   4.994   9.296  0.5751  0.2342 -1.3044
67514SOL    HW220535  12.517   4.859   9.302  0.2279  0.0670 -1.0579
67515SOL     OW20536  12.801  10.930   2.800  0.3194 -0.0373  0.2755
67515SOL    HW120537  12.739  10.859   2.811 -0.8792  1.3477  3.5424
67515SOL    HW220538  12.836  10.946   2.887  1.0088  2.9553 -0.4261
67516SOL     OW20539   7.748   5.570   2.205 -0.6949 -0.4129  0.0732
67516SOL    HW120540   7.764   5.576   2.110 -1.0909  0.5653  0.0575
67516SOL    HW220541   7.730   5.477   2.220  0.0484 -0.6906 -0.6991
67517SOL     OW20542  11.413  13.719   9.957  0.0873 -0.1413  0.5076
67517SOL    HW120543  11.505  13.740   9.968  0.3454 -1.2206  0.5296
67517SOL    HW220544  11.366  13.796   9.988  0.9210 -0.4772  2.7855
67518SOL     OW20545  13.895   5.023   6.820 -0.3400  0.0268 -0.1319
67518SOL    HW120546  13.892   5.061   6.732  0.7522 -0.1594 -0.2654
67518SOL    HW220547  13.975   5.059   6.859  1.1635 -2.6652 -0.5272
67519SOL     OW20548   9.615  10.843  11.357  0.7906 -0.4800  0.0108
67519SOL    HW120549   9.547  10.796  11.307  0.0063  0.8579 -0.2177
67519SOL    HW220550   9.698  10.808  11.323  0.2430 -1.1990 -0.6324
67520SOL     OW20551  11.642  12.559   7.242 -0.5177  0.3549 -0.1162
67520SOL    HW120552  11.661  12.480   7.192 -1.0257 -0.4695  0.9604
67520SOL    HW220553  11.577  12.605   7.189  2.5858  2.1287 -2.7592
67521SOL     OW20554  10.334   1.330   9.080 -0.0010  0.2401  0.4094
67521SOL    HW120555  10.345   1.416   9.122  0.4001  0.1272  0.5426
67521SOL    HW220556  10.256   1.340   9.026 -0.0928  0.6194  0.6041
67522SOL     OW20557   7.272   2.604  13.851  0.1198 -0.1180 -0.7745
67522SOL    HW120558   7.188   2.648  13.846  0.7337  1.2600  0.4965
67522SOL    HW220559   7.260   2.537  13.919  0.5237  1.2566  0.7039
67523SOL     OW20560   4.641   8.506   9.093 -0.3642 -1.0266 -0.1348
67523SOL    HW120561   4.715   8.499   9.153 -0.4241 -0.4203  0.0106
67523SOL    HW220562   4.593   8.424   9.104  0.4263 -1.5380 -0.4244
67524SOL     OW20563   2.119  13.856   6.504  0.2766 -0.0261  0.0675
67524SOL    HW120564   2.203  13.874   6.463  1.6187 -1.4726  2.0224
67524SOL    HW220565   2.121  13.762   6.525 -1.0923  0.2423  1.6646
67525SOL     OW20566   5.313   2.323   2.426 -0.2341  0.5731 -0.6449
67525SOL    HW120567   5.222   2.339   2.454 -0.0226  1.1084 -0.2519
67525SOL    HW220568   5.357   2.292   2.505 -0.2258 -0.3551 -0.9955
67526SOL     OW20569  13.980  11.484   7.317 -0.1711  0.1631 -0.3457
67526SOL    HW120570  13.890  11.484   7.350 -0.2083  3.3301 -0.1241
67526SOL    HW220571  13.970  11.473   7.222 -0.6900 -0.6250 -0.2080
67527SOL     OW20572  13.107   9.694   4.961 -0.0059  0.1071 -0.0786
67527SOL    HW120573  13.040   9.713   5.026 -0.0923  0.3060 -0.2262
67527SOL    HW220574  13.089   9.604   4.934 -0.2306  0.1685 -0.1376
67528SOL     OW20575  13.946  12.256   5.891 -0.0479 -0.0961 -0.7838
67528SOL    HW120576  14.007  12.192   5.927  0.4608  0.4900 -0.5935
67528SOL    HW220577  13.895  12.286   5.966  1.9218  2.1280 -0.2511
67529SOL     OW20578   4.211  12.024   6.995  0.1900  0.6278  0.6494
67529SOL    HW120579   4.205  12.117   7.014  1.4915  1.3762 -2.2531
67529SOL    HW220580   4.121  11.993   7.002 -0.3980  2.2700  0.7847
67530SOL     OW20581   7.013   7.679   6.720 -0.5283  0.2275  0.3797
67530SOL    HW120582   7.103   7.708   6.738 -0.1281 -0.5913 -0.2512
67530SOL    HW220583   7.016   7.584   6.729 -1.1641  0.1324 -0.3355
67531SOL     OW20584   3.557  11.497  11.787 -0.1170  0.7304  0.7130
67531SOL    HW120585   3.497  11.498  11.862  0.4352 -0.2661  1.1803
67531SOL    HW220586   3.553  11.587  11.753 -0.8593  1.0308  1.5422
67532SOL     OW20587   2.668   8.905   7.262 -0.1710  0.8644  0.4545
67532SOL    HW120588   2.652   8.896   7.356 -2.6187  1.6297  0.1787
67532SOL    HW220589   2.683   8.999   7.249 -0.1768  0.8103  0.0326
67533SOL     OW20590   8.221   3.533   2.861  0.3874 -0.0337 -0.0680
67533SOL    HW120591   8.308   3.534   2.903  0.8296 -1.6950 -0.8626
67533SOL    HW220592   8.237   3.498   2.773 -1.0998 -0.4681 -0.1916
67534SOL     OW20593   0.034   2.481   9.931  0.1746 -0.0376 -0.1033
67534SOL    HW120594  -0.000   2.417   9.869  0.0811 -0.8802  0.7909
67534SOL    HW220595  -0.032   2.485  10.000  0.8012  0.0173  0.5059
67535SOL     OW20596   1.286   4.322  12.903 -0.1538  0.4746  0.2858
67535SOL    HW120597   1.256   4.343  12.991  1.0092 -0.0371  0.8302
67535SOL    HW220598   1.253   4.394  12.849  0.6836  1.8128  1.4678
67536SOL     OW20599  11.519   6.099   1.539 -0.9216 -0.1912  0.0782
67536SOL    HW120600  11.522   6.052   1.623 -0.7085 -0.0482  0.1499
67536SOL    HW220601  11.587   6.058   1.486 -0.1927  0.5556  0.4135
67537SOL     OW20602   7.350   4.544  11.713 -0.5138  0.2947 -0.2593
67537SOL    HW120603   7.305   4.485  11.773  0.5853 -0.6854 -0.3435
67537SOL    HW220604   7.427   4.494  11.684 -0.5360  1.0797 -1.7833
67538SOL     OW20605  12.527   7.314   5.400  0.5930 -0.2518  0.7903
67538SOL    HW120606  12.471   7.287   5.327  3.1483  0.6065 -1.6819
67538SOL    HW220607  12.491   7.397   5.429  1.2723  1.0380 -1.7550
67539SOL     OW20608   4.837  12.878  12.245  0.5736 -0.1902 -0.1283
67539SOL    HW120609   4.850  12.828  12.165  1.1003 -0.6724  0.2526
67539SOL    HW220610   4.765  12.937  12.224  0.8553 -0.1473 -1.0280
67540SOL     OW20611  10.398   0.233  13.051  0.4009  0.2621  0.2070
67540SOL    HW120612  10.415   0.323  13.077 -1.8475  0.6621  0.5359
67540SOL    HW220613  10.367   0.240  12.960 -1.2969  0.0539  0.7335
67541SOL     OW20614  11.346   5.917   5.371  0.4414 -0.2802  0.0537
67541SOL    HW120615  11.350   6.008   5.342 -0.2745 -0.3903 -0.4007
67541SOL    HW220616  11.256   5.904   5.399  0.2216 -1.1790 -1.0018
67542SOL     OW20617   9.982   5.444   7.151  0.1200 -0.2764 -0.1640
67542SOL    HW120618   9.934   5.443   7.234 -1.4131  0.4212 -0.9952
67542SOL    HW220619   9.940   5.514   7.101 -0.4714 -2.1310 -2.3750
67543SOL     OW20620   1.586   7.092   9.809 -0.4411  0.2487 -0.2240
67543SOL    HW120621   1.525   7.130   9.872 -1.9166 -0.1207 -1.3605
67543SOL    HW220622   1.531   7.066   9.735  0.9490 -1.1440 -0.8329
67544SOL     OW20623   4.473   1.568   8.816 -0.0172  0.2881  0.6674
67544SOL    HW120624   4.379   1.585   8.827 -0.1691  0.8867 -1.1582
67544SOL    HW220625   4.515   1.619   8.885 -0.9759  0.7396  0.9371
67545SOL     OW20626   4.828  14.141   0.358  0.4361  0.0343 -0.2574
67545SOL    HW120627   4.787  14.057   0.380 -1.6123  1.0821  0.2289
67545SOL    HW220628   4.809  14.153   0.265  0.7279 -0.0557 -0.3268
67546SOL     OW20629   0.876   2.598   7.075 -0.3609  0.5450  0.2333
67546SOL    HW120630   0.819   2.624   7.147  0.4537 -0.8980  1.4384
67546SOL    HW220631   0.926   2.524   7.109  2.0238  1.5526 -0.8674
67547SOL     OW20632   0.448  11.450   0.406 -0.0073 -0.4838 -0.6605
67547SOL    HW120633   0.508  11.378   0.423 -1.3769 -1.4493  0.3067
67547SOL    HW220634   0.423  11.440   0.314  1.0068 -0.2764 -0.9695
67548SOL     OW20635   7.982   0.355  13.747  0.6713  1.1945 -0.1235
67548SOL    HW120636   7.995   0.298  13.672  0.1350 -0.4076  0.9613
67548SOL    HW220637   7.979   0.443  13.710 -2.6352  0.2898 -2.4090
67549SOL     OW20638   9.046   0.378   0.453  0.0163 -0.2791 -0.0058
67549SOL    HW120639   9.062   0.472   0.447 -0.3510 -0.1544  0.8005
67549SOL    HW220640   8.963   0.371   0.500  0.3984 -1.0055  0.5882
67550SOL     OW20641  10.780  14.129   4.421  0.1935 -0.1080 -0.3448
67550SOL    HW120642  10.693  14.089   4.426  0.1477 -0.2003 -1.4563
67550SOL    HW220643  10.811  14.131   4.511 -0.4191 -1.3060 -0.0793
67551SOL     OW20644  11.663  12.668  11.453 -0.0246  0.1410  0.1734
67551SOL    HW120645  11.604  12.595  11.474 -0.7702  0.6327 -0.1752
67551SOL    HW220646  11.608  12.730  11.405  1.1408 -0.0376 -1.4673
67552SOL     OW20647   7.884   6.897   2.426  0.0055  0.0810 -0.7813
67552SOL    HW120648   7.845   6.869   2.343 -0.3868  0.2711 -0.6611
67552SOL    HW220649   7.870   6.992   2.429  0.3466  0.1288 -0.6698
67553SOL     OW20650   6.986  12.979   7.119  0.3696 -0.2057 -0.6068
67553SOL    HW120651   7.058  13.042   7.124 -0.1610  0.3283  0.5518
67553SOL    HW220652   7.016  12.903   7.169 -0.2402  0.4079  0.7252
67554SOL     OW20653   9.922   9.383   5.676 -0.1693  0.2906  0.4749
67554SOL    HW120654  10.004   9.347   5.642  1.7684  1.8030  3.1983
67554SOL    HW220655   9.856   9.316   5.655  2.1232 -1.9892  0.0257
67555SOL     OW20656  12.146   8.723   4.834 -0.3207 -0.0499  0.0131
67555SOL    HW120657  12.148   8.786   4.905  0.0873 -0.3211  0.2449
67555SOL    HW220658  12.056   8.725   4.802 -0.5689 -0.1067  0.6975
67556SOL     OW20659   0.074   5.348   8.127  0.2142 -0.5061  0.2606
67556SOL    HW120660  -0.003   5.361   8.071 -1.0348  2.3296  2.4146
67556SOL    HW220661   0.045   5.285   8.193 -0.3266  0.6155  1.1134
67557SOL     OW20662  12.039   4.207   2.367 -0.3860  0.3902  0.2342
67557SOL    HW120663  12.134   4.217   2.375 -0.4210 -0.1562  1.7904
67557SOL    HW220664  12.004   4.258   2.441 -1.3124  0.7184 -0.4195
67558SOL     OW20665   6.184  13.098  11.440  0.3547 -0.0434 -0.5730
67558SOL    HW120666   6.167  13.190  11.464  0.7256  0.5643 -2.4832
67558SOL    HW220667   6.124  13.048  11.495 -1.1987  1.4595 -0.7952
67559SOL     OW20668  14.007  12.237   4.045  0.1859 -0.1565 -0.0121
67559SOL    HW120669  14.086  12.284   4.070  0.4344  0.1741 -1.3381
67559SOL    HW220670  13.936  12.297   4.066  0.1796 -0.7745  1.9520
67560SOL     OW20671   7.650   2.986   0.895  0.1476 -0.0455 -0.1308
67560SOL    HW120672   7.630   2.968   0.987 -0.8937  0.4302 -0.2614
67560SOL    HW220673   7.638   2.901   0.851  2.0654 -0.6467  0.3647
67561SOL     OW20674   0.790   0.082   8.336  0.1236 -0.2489 -0.2528
67561SOL    HW120675   0.772   0.102   8.428 -0.4003  0.7078 -0.5383
67561SOL    HW220676   0.798   0.168   8.294 -0.3607 -0.6604 -1.2310
67562SOL     OW20677  12.666   1.309   7.354 -0.2577  0.6678  0.1090
67562SOL    HW120678  12.745   1.321   7.406  1.5907  2.4176 -2.7966
67562SOL    HW220679  12.605   1.376   7.385  0.3826  0.9720  0.7267
67563SOL     OW20680   2.756   8.019   2.052 -0.3257  0.1176 -0.3908
67563SOL    HW120681   2.769   7.936   2.097 -0.5727 -0.7833 -1.9072
67563SOL    HW220682   2.661   8.026   2.039 -0.1298 -0.9430 -2.9954
67564SOL     OW20683   1.196   4.434  13.985  0.1479 -0.1068  0.1602
67564SOL    HW120684   1.162   4.441  14.074 -1.3654  1.0597 -0.4614
67564SOL    HW220685   1.236   4.519  13.968  1.4010 -0.6964  0.0865
67565SOL     OW20686   0.741  13.206  13.699  0.0009  0.7430  0.5792
67565SOL    HW120687   0.754  13.114  13.724 -0.2159  1.0034  1.6779
67565SOL    HW220688   0.651  13.209  13.667 -0.1996  0.6975  1.1315
67566SOL     OW20689   6.795   8.047   5.107 -0.3517  0.1929 -0.3688
67566SOL    HW120690   6.715   8.099   5.098 -0.0562  0.6424 -0.4166
67566SOL    HW220691   6.825   8.064   5.197 -1.6951 -1.9873  0.5777
67567SOL     OW20692  13.443   2.097   4.521 -0.1255  0.4984 -0.4983
67567SOL    HW120693  13.428   2.004   4.501 -0.4603  0.4303  0.0439
67567SOL    HW220694  13.357   2.130   4.548 -0.0283  0.9924 -0.7819
67568SOL     OW20695  10.722   4.288   7.991  0.4188  0.3171  0.2254
67568SOL    HW120696  10.682   4.366   8.027  1.0791  1.0110 -0.5029
67568SOL    HW220697  10.744   4.234   8.067 -3.1070 -0.7705  0.6318
67569SOL     OW20698   8.096   3.404  12.922 -0.1447 -0.6544  0.1050
67569SOL    HW120699   8.158   3.472  12.948  0.2417 -1.0155  0.1484
67569SOL    HW220700   8.115   3.332  12.982 -0.3856 -0.8864 -0.0987
67570SOL     OW20701   0.516   0.680   0.091  0.4112 -0.6937  0.3258
67570SOL    HW120702   0.508   0.774   0.104  0.3369 -0.7605  0.7590
67570SOL    HW220703   0.606   0.659   0.116  0.4393 -0.7339  0.1953
67571SOL     OW20704  12.022  11.246  11.244  0.6456 -0.1068  0.0333
67571SOL    HW120705  11.998  11.318  11.302  0.4647  0.9224 -1.2682
67571SOL    HW220706  11.942  11.196  11.234 -0.4265  1.8770 -2.2822
67572SOL     OW20707  10.065   2.504   3.400  0.5926  0.5964  0.2554
67572SOL    HW120708  10.104   2.425   3.361 -0.2305  0.9484 -1.3579
67572SOL    HW220709  10.127   2.574   3.379  0.3149  0.7316 -0.1022
67573SOL     OW20710   0.625   2.288   8.863 -0.4529  0.3094  0.6828
67573SOL    HW120711   0.696   2.340   8.901  0.9601 -1.4306  0.5111
67573SOL    HW220712   0.589   2.345   8.795  1.9848  0.6126 -0.4668
67574SOL     OW20713  11.682  14.109   5.081  0.4564 -0.1317 -0.5454
67574SOL    HW120714  11.761  14.068   5.117 -1.3906 -1.9449  1.8155
67574SOL    HW220715  11.664  14.182   5.141 -0.2204 -0.4149 -0.3930
67575SOL     OW20716   3.023  13.242  10.923  0.7637  0.2280 -0.1697
67575SOL    HW120717   2.983  13.305  10.863  0.3431  0.7711  0.6524
67575SOL    HW220718   2.950  13.188  10.953  1.0371 -0.3087 -0.4569
67576SOL     OW20719   2.825  10.462  13.929  0.1524  0.0550  0.9718
67576SOL    HW120720   2.866  10.480  14.013 -1.2677  1.8946  1.3352
67576SOL    HW220721   2.743  10.418  13.951 -0.0493  0.1975  0.5079
67577SOL     OW20722  14.070  13.341   6.148  0.4849  0.0550  0.0186
67577SOL    HW120723  14.012  13.312   6.219  0.4247  0.2792  0.0631
67577SOL    HW220724  14.105  13.424   6.178  0.6951  0.0056 -0.0865
67578SOL     OW20725   2.044  10.198   9.252  0.1062  0.3519 -0.4041
67578SOL    HW120726   2.005  10.245   9.325  0.1830  0.4798 -0.4459
67578SOL    HW220727   2.056  10.109   9.284 -0.3768  0.2676 -0.4411
67579SOL     OW20728   4.061   2.617   5.811  0.0827  0.0801  0.2993
67579SOL    HW120729   3.966   2.615   5.823  0.2231 -0.2879  1.4129
67579SOL    HW220730   4.085   2.526   5.795  0.3291  0.0724  0.7058
67580SOL     OW20731  10.466   5.871  12.086 -0.7545 -0.2903  0.0315
67580SOL    HW120732  10.520   5.894  12.162  0.1053 -0.5071 -0.5005
67580SOL    HW220733  10.520   5.894  12.010 -0.5775 -2.2977 -0.5230
67581SOL     OW20734   0.824   8.522   0.027  0.3076 -0.3599  1.1423
67581SOL    HW120735   0.895   8.583   0.047 -1.3340  1.0349  3.3454
67581SOL    HW220736   0.770   8.568  -0.037 -0.0234 -0.2022  1.5256
67582SOL     OW20737  13.870   0.534  13.918 -0.0840 -0.6629 -0.1408
67582SOL    HW120738  13.819   0.508  13.842  0.4733  0.6362 -0.9968
67582SOL    HW220739  13.874   0.456  13.973  1.0891 -2.2290 -2.3183
67583SOL     OW20740   8.961  11.659  13.007 -0.0251 -0.4229 -0.4064
67583SOL    HW120741   8.907  11.666  13.086  2.3249  2.0336  1.1216
67583SOL    HW220742   9.035  11.605  13.033  0.0055 -0.9345 -1.4788
67584SOL     OW20743   5.223  11.885   1.648 -0.6509  0.4108 -0.0211
67584SOL    HW120744   5.276  11.963   1.631 -0.3093  0.2287  0.2106
67584SOL    HW220745   5.227  11.873   1.742 -0.8671  0.2228 -0.0346
67585SOL     OW20746   9.610   6.184   6.409  0.5520 -0.5168 -0.5480
67585SOL    HW120747   9.699   6.181   6.443  0.8394  1.9168 -0.8934
67585SOL    HW220748   9.558   6.135   6.473  1.6075  1.0423  1.6302
67586SOL     OW20749   5.711  11.395  13.626 -0.5472  0.4452  0.2882
67586SOL    HW120750   5.645  11.406  13.694 -1.6354 -1.9695 -0.2615
67586SOL    HW220751   5.667  11.345  13.557  1.4750 -0.1165 -0.6942
67587SOL     OW20752  13.730   8.971  10.917  1.0485 -0.2880  0.7298
67587SOL    HW120753  13.771   8.989  10.833  0.6530 -0.6451  0.4570
67587SOL    HW220754  13.646   8.931  10.895 -0.7715  2.9089  1.1784
67588SOL     OW20755   4.695   8.152   0.342 -0.2192  0.4195 -0.2650
67588SOL    HW120756   4.730   8.182   0.425 -2.9848  1.6340  0.6086
67588SOL    HW220757   4.651   8.230   0.306  0.3013 -0.2628 -2.5383
67589SOL     OW20758  12.094  13.582   7.405 -0.2039  0.4300  0.0720
67589SOL    HW120759  12.170  13.549   7.357 -1.0485 -1.1098 -0.2692
67589SOL    HW220760  12.132  13.633   7.477  1.1277  0.3353 -0.5274
67590SOL     OW20761   0.568   6.933   3.626 -0.2044 -0.0593 -0.1708
67590SOL    HW120762   0.625   6.990   3.678  0.2023 -0.7032  0.1067
67590SOL    HW220763   0.494   6.914   3.683 -1.2887  1.6386 -0.8982
67591SOL     OW20764   3.778   6.626  14.075  0.6340 -0.1097 -0.1359
67591SOL    HW120765   3.698   6.678  14.089  0.6135 -0.9171  4.0419
67591SOL    HW220766   3.746   6.545  14.035 -0.2670  0.5217 -0.7536
67592SOL     OW20767   1.655   4.097   7.422 -0.0207  0.0688 -0.1824
67592SOL    HW120768   1.673   4.097   7.516 -1.3326  0.7434  0.0949
67592SOL    HW220769   1.587   4.164   7.411  0.2056  0.0789 -1.6297
67593SOL     OW20770   0.055   5.155  11.292 -0.2170 -0.0162  0.8696
67593SOL    HW120771  -0.021   5.102  11.269 -0.7989  1.6264 -1.4193
67593SOL    HW220772   0.045   5.173  11.385 -3.2683  0.9873  0.4630
67594SOL     OW20773  11.973  14.138   8.790  0.4199  0.4122 -0.4300
67594SOL    HW120774  11.882  14.128   8.818  0.8371 -0.3107  0.7202
67594SOL    HW220775  12.014  14.190   8.859  1.1419 -0.2267 -0.3653
67595SOL     OW20776  10.362   6.359   4.489 -0.3875 -0.2997  0.1196
67595SOL    HW120777  10.382   6.286   4.431 -2.3065 -0.3907 -0.5228
67595SOL    HW220778  10.339   6.431   4.429  1.1032  0.7388  0.7388
67596SOL     OW20779   6.008   6.916   1.872  0.6074  0.4999  0.0531
67596SOL    HW120780   6.010   6.976   1.798  0.1972 -0.2397 -0.5702
67596SOL    HW220781   5.979   6.832   1.835 -1.9856  0.6715  1.4454
67597SOL     OW20782   9.549   9.446   5.553 -0.0597  0.1488 -0.1539
67597SOL    HW120783   9.483   9.381   5.578  0.4008 -0.5198 -0.6397
67597SOL    HW220784   9.608   9.450   5.628 -0.0541 -0.0452 -0.1462
67598SOL     OW20785  10.898   2.737   5.472 -0.7690  0.3826 -0.2865
67598SOL    HW120786  10.855   2.703   5.394 -0.2083 -0.8496 -0.0902
67598SOL    HW220787  10.991   2.737   5.450 -0.6071  0.0379  0.3651
67599SOL     OW20788   1.406   2.027   8.512 -0.5769  0.4497 -0.3425
67599SOL    HW120789   1.393   2.112   8.468 -1.5911  0.5591  0.1414
67599SOL    HW220790   1.394   2.046   8.605  0.6528  0.0421 -0.0803
67600SOL     OW20791   8.589   8.772  10.689 -0.1116  0.1882  0.4708
67600SOL    HW120792   8.643   8.800  10.763 -0.6247 -1.1796  1.4013
67600SOL    HW220793   8.650   8.733  10.627  0.1057 -0.4383  1.0698
67601SOL     OW20794   6.081  13.426  10.683 -0.2376  0.3103 -0.5086
67601SOL    HW120795   6.168  13.463  10.668 -0.1088  0.5875  0.8424
67601SOL    HW220796   6.093  13.366  10.757 -1.2132  0.4314 -0.2371
67602SOL     OW20797  13.740   5.215   3.924  0.1879  0.1908 -0.0070
67602SOL    HW120798  13.823   5.167   3.932 -0.6194 -1.2829 -0.1304
67602SOL    HW220799  13.680   5.168   3.982 -0.2709  1.9788  1.0469
67603SOL     OW20800  11.781  12.668   5.642  0.3369  0.1233  0.1828
67603SOL    HW120801  11.848  12.667   5.574  1.1297 -0.3494  0.9469
67603SOL    HW220802  11.700  12.645   5.597  0.3070  2.4731 -1.1205
67604SOL     OW20803  13.534  12.234   0.222  0.1873  0.0556 -0.5136
67604SOL    HW120804  13.590  12.190   0.158  0.4494  1.1010 -1.0247
67604SOL    HW220805  13.594  12.262   0.291  0.1514  0.3552 -0.6039
67605SOL     OW20806  11.863   5.855   0.574  0.0702  1.0722 -0.1432
67605SOL    HW120807  11.810   5.849   0.654  0.5750  0.5320  0.1581
67605SOL    HW220808  11.892   5.766   0.557  0.1774  1.2248 -0.7938
67606SOL     OW20809   9.369   4.546  13.120  0.0451  0.0077  0.2003
67606SOL    HW120810   9.355   4.479  13.187 -2.0996  1.2214  1.0374
67606SOL    HW220811   9.285   4.591  13.112  0.2158 -0.0092 -3.2760
67607SOL     OW20812   5.666   8.099  13.201  0.5521  0.1243  0.0534
67607SOL    HW120813   5.624   8.045  13.135  0.0720  0.3045  0.2000
67607SOL    HW220814   5.729   8.041  13.244  1.2791  0.1612 -0.9279
67608SOL     OW20815   1.901  13.310   6.207 -0.0418  0.4585 -0.1515
67608SOL    HW120816   1.838  13.276   6.271  0.6129 -0.0551  0.2327
67608SOL    HW220817   1.881  13.262   6.127  0.5258 -0.4801  0.2485
67609SOL     OW20818  11.626  11.764   3.107 -0.6822  0.0384  0.4054
67609SOL    HW120819  11.535  11.743   3.087 -0.0502 -1.3236 -1.2327
67609SOL    HW220820  11.670  11.764   3.022  0.6509  1.8466  1.0219
67610SOL     OW20821   8.511   2.626  11.978 -0.5310 -0.0045  0.1382
67610SOL    HW120822   8.461   2.560  11.929 -1.8653  0.5986  0.6550
67610SOL    HW220823   8.455   2.649  12.052  0.3869  0.9184  0.5684
67611SOL     OW20824  12.759   9.818   5.543 -0.0227 -0.0132 -0.0519
67611SOL    HW120825  12.849   9.844   5.566 -0.0301 -0.4059  0.4596
67611SOL    HW220826  12.704   9.890   5.574  0.2101  0.8689 -1.5828
67612SOL     OW20827   9.238   0.867  11.208  0.3148  0.1699  0.0416
67612SOL    HW120828   9.249   0.779  11.172 -1.0308 -0.1858  0.4578
67612SOL    HW220829   9.152   0.895  11.177  0.6139  1.2359  0.1417
67613SOL     OW20830  11.287  12.935   6.980 -0.2717 -0.1530 -0.5755
67613SOL    HW120831  11.318  12.937   7.071 -0.0487  0.6917 -0.6594
67613SOL    HW220832  11.299  13.025   6.949 -0.0883 -0.4958 -1.5274
67614SOL     OW20833   5.844   2.585   4.101 -0.1256 -0.5938 -0.0171
67614SOL    HW120834   5.782   2.652   4.130  0.1883 -0.5779  0.6386
67614SOL    HW220835   5.898   2.628   4.035  0.9624  0.2257  1.3633
67615SOL     OW20836   5.611  13.247   7.364 -0.0028  0.0744  0.1788
67615SOL    HW120837   5.549  13.287   7.424  1.9738  1.7710  1.2050
67615SOL    HW220838   5.696  13.257   7.406  1.1144 -1.4504 -1.5190
67616SOL     OW20839   2.646   5.837   1.974  0.4236  0.4567 -0.3651
67616SOL    HW120840   2.625   5.765   1.914 -1.0749  0.9806 -0.5059
67616SOL    HW220841   2.610   5.810   2.058  0.6372  0.6600 -0.2059
67617SOL     OW20842  11.228  10.030  12.141 -0.5041  0.2050  0.3208
67617SOL    HW120843  11.225   9.972  12.066 -1.2122  0.7080 -0.0503
67617SOL    HW220844  11.143  10.074  12.141 -0.7045 -0.1279  1.6842
67618SOL     OW20845   2.196  10.005   6.627 -0.5783 -0.5876 -0.4111
67618SOL    HW120846   2.137  10.064   6.580 -0.4636 -0.9139 -0.9725
67618SOL    HW220847   2.282  10.047   6.620 -0.1579 -1.6548 -2.3324
67619SOL     OW20848  12.814   8.827   1.022 -0.3711 -0.4312 -0.7841
67619SOL    HW120849  12.878   8.760   1.047  0.9017  0.6096 -1.1329
67619SOL    HW220850  12.737   8.778   0.993 -0.0720 -1.7110  0.4997
67620SOL     OW20851   8.235   7.873   2.819  0.5628 -0.4137 -0.1529
67620SOL    HW120852   8.304   7.818   2.855  0.7125  0.1944  0.4893
67620SOL    HW220853   8.264   7.892   2.730  0.9255 -0.6648 -0.0901
67621SOL     OW20854  13.202   9.591  12.831  0.2384  0.0178  0.9732
67621SOL    HW120855  13.211   9.659  12.898  0.9554 -1.1424  2.0959
67621SOL    HW220856  13.205   9.509  12.879  1.4213 -0.8834 -0.5283
67622SOL     OW20857   4.699  10.034   0.194 -0.7342  0.2121 -0.2788
67622SOL    HW120858   4.789  10.000   0.192 -0.8285  0.0142 -1.2522
67622SOL    HW220859   4.710  10.129   0.203 -0.4564  0.0846  0.9595
67623SOL     OW20860  10.762   9.698  11.783  0.1265  0.4026  0.3803
67623SOL    HW120861  10.787   9.785  11.814  1.5331 -0.2912  1.2534
67623SOL    HW220862  10.800   9.638  11.846 -1.5029 -0.8505  0.2509
67624SOL     OW20863  13.444   6.623   7.612 -0.0161  0.2834  0.1912
67624SOL    HW120864  13.366   6.569   7.598  0.2745 -0.1047  0.0625
67624SOL    HW220865  13.460   6.618   7.706 -0.3694  0.6786  0.2765
67625SOL     OW20866  14.107   6.378   2.761  0.3714 -0.3700 -0.3453
67625SOL    HW120867  14.177   6.313   2.767  0.9893  0.3442  0.3161
67625SOL    HW220868  14.128   6.443   2.828 -0.7815 -0.0014 -0.3130
67626SOL     OW20869   0.508   4.261   6.779  0.2798 -0.5038 -0.2831
67626SOL    HW120870   0.432   4.318   6.768 -0.9571 -1.8933  0.7925
67626SOL    HW220871   0.472   4.176   6.800  2.1524 -1.1943  0.3301
67627SOL     OW20872  11.491  13.906   8.948 -0.4391  0.9393 -0.1474
67627SOL    HW120873  11.471  13.897   9.042  0.6801 -0.6602 -0.0232
67627SOL    HW220874  11.586  13.897   8.943 -0.7034 -2.5123 -1.7302
67628SOL     OW20875   2.463  12.391   8.190  0.2516 -0.3032 -0.4845
67628SOL    HW120876   2.523  12.423   8.123 -0.6110 -1.7510 -2.0309
67628SOL    HW220877   2.379  12.384   8.144 -0.2742 -1.7042  0.6487
67629SOL     OW20878   7.542   7.814   6.082 -0.2467  0.0076 -0.0315
67629SOL    HW120879   7.551   7.827   5.988 -0.6369  0.7206  0.0235
67629SOL    HW220880   7.547   7.719   6.094  2.3430  0.0122 -0.4920
67630SOL     OW20881  11.340  12.879   3.557 -0.1077  0.2470 -0.2205
67630SOL    HW120882  11.308  12.902   3.470  0.1040 -1.3844 -0.7754
67630SOL    HW220883  11.418  12.932   3.570 -0.2819  0.6821 -0.9281
67631SOL     OW20884   7.303   8.154  13.179  0.6267 -0.4855 -0.0881
67631SOL    HW120885   7.291   8.174  13.271 -0.4243 -1.2223 -0.0451
67631SOL    HW220886   7.215   8.148  13.143  0.9375 -1.9637 -0.7340
67632SOL     OW20887  10.924   8.220  11.873 -0.1901  0.8525  0.6808
67632SOL    HW120888  11.017   8.237  11.858  0.2435 -1.0304  1.0572
67632SOL    HW220889  10.886   8.218  11.785  1.0666 -3.1650  0.0398
67633SOL     OW20890   1.174   7.712  12.656  0.3673  0.0935  0.2687
67633SOL    HW120891   1.208   7.626  12.684 -0.4876 -0.5475 -0.6049
67633SOL    HW220892   1.087   7.717  12.695  0.4499  0.6065  0.3863
67634SOL     OW20893  13.004  12.179   3.497 -0.2334  0.1051  0.1335
67634SOL    HW120894  12.938  12.125   3.539 -0.4647  1.0949  1.0985
67634SOL    HW220895  13.087  12.148   3.532 -0.5006  1.9437  2.6815
67635SOL     OW20896   2.902   9.047  12.180  0.1198 -0.3926 -0.3336
67635SOL    HW120897   2.946   9.074  12.260 -0.0236  2.1146 -1.0418
67635SOL    HW220898   2.967   9.063  12.111 -0.0578 -1.7252 -0.8460
67636SOL     OW20899   4.827   3.785   8.771 -0.3591 -0.5579  0.4902
67636SOL    HW120900   4.758   3.723   8.795 -1.6830 -0.7102 -3.0938
67636SOL    HW220901   4.838   3.774   8.677  1.2126  2.8288  0.1055
67637SOL     OW20902   4.846   6.201   1.237 -0.9279  0.0834 -0.3327
67637SOL    HW120903   4.768   6.255   1.247 -0.3674  0.8346  0.1084
67637SOL    HW220904   4.911   6.241   1.295 -0.1952 -0.4938 -0.7311
67638SOL     OW20905  12.502   6.498   1.244  0.1905 -0.3288 -0.1387
67638SOL    HW120906  12.572   6.552   1.281 -0.9150 -0.0630  1.7483
67638SOL    HW220907  12.499   6.522   1.152  0.9902  1.4530  0.2506
67639SOL     OW20908   0.878   2.698   1.150  0.4850 -0.3505  0.0166
67639SOL    HW120909   0.796   2.648   1.154 -0.2579  0.8123 -0.3285
67639SOL    HW220910   0.939   2.639   1.106  0.2650 -1.7943  1.5482
67640SOL     OW20911  11.098  10.055   6.945  0.3416 -0.1912 -0.6391
67640SOL    HW120912  11.061   9.986   6.891  1.0178 -0.2731 -1.0196
67640SOL    HW220913  11.025  10.087   6.997  0.0657 -1.3755 -0.2570
67641SOL     OW20914   1.434  13.233   2.082 -0.3669 -0.0397  0.0026
67641SOL    HW120915   1.453  13.228   2.176  0.3435  1.7964 -0.0107
67641SOL    HW220916   1.487  13.163   2.043  0.1719 -0.1104  0.8444
67642SOL     OW20917   4.762  11.443  10.297  0.3926 -0.1507 -0.3215
67642SOL    HW120918   4.793  11.355  10.317 -1.6954 -0.9358 -0.2396
67642SOL    HW220919   4.714  11.470  10.375  2.0311  1.6049  0.1344
67643SOL     OW20920  12.560   6.565   5.871 -0.1526  0.0749 -0.1386
67643SOL    HW120921  12.649   6.583   5.899  0.6304 -2.1650 -1.0022
67643SOL    HW220922  12.569   6.523   5.785 -2.1011  0.6563 -0.6886
67644SOL     OW20923  12.398   7.740   0.873  0.1911 -0.2414  0.3685
67644SOL    HW120924  12.415   7.727   0.966 -0.0775  1.0264  0.6136
67644SOL    HW220925  12.473   7.791   0.841  1.7319 -3.0153 -0.7864
67645SOL     OW20926   6.130   3.364  13.615 -0.2045 -0.2006  0.3989
67645SOL    HW120927   6.043   3.402  13.628  0.2114 -0.0784  3.6548
67645SOL    HW220928   6.186   3.438  13.593 -0.1114  0.6182  3.0434
67646SOL     OW20929   4.372  10.313  11.875 -0.2470 -0.1623 -0.0554
67646SOL    HW120930   4.466  10.327  11.885 -0.2672 -0.4933  0.6213
67646SOL    HW220931   4.336  10.401  11.860  0.0425  0.0890  0.6994
67647SOL     OW20932   7.922  13.193  10.911 -0.3555 -0.4315  0.3209
67647SOL    HW120933   7.887  13.193  11.000  0.1566 -0.9298  0.5289
67647SOL    HW220934   7.875  13.264  10.867 -0.6445 -0.2078  0.9736
67648SOL     OW20935   4.451  13.343   1.523  0.3957 -0.4731 -0.1493
67648SOL    HW120936   4.543  13.365   1.509  0.2061 -0.2563 -1.1104
67648SOL    HW220937   4.446  13.249   1.502  0.7313 -0.9226  1.6272
67649SOL     OW20938   1.203   9.660   8.294 -0.1218  0.3742  0.1063
67649SOL    HW120939   1.113   9.655   8.326  0.1046 -1.2530  0.5700
67649SOL    HW220940   1.200   9.621   8.206 -0.4029  3.1804 -1.2367
67650SOL     OW20941   4.207   5.320   0.204  0.3014  0.1036  0.0018
67650SOL    HW120942   4.267   5.301   0.276  1.5941 -2.0621 -1.4999
67650SOL    HW220943   4.225   5.411   0.181  1.0047  0.3406  1.3855
67651SOL     OW20944   2.097  10.519  13.328 -0.2955  0.4545  0.5185
67651SOL    HW120945   2.116  10.502  13.420 -0.0964  0.6411  0.5122
67651SOL    HW220946   2.055  10.605  13.327 -3.2981 -0.8565  0.7987
67652SOL     OW20947  13.993  12.978  11.516  0.0432  0.0178 -0.1591
67652SOL    HW120948  13.975  12.897  11.469  0.1518  0.4678 -1.0014
67652SOL    HW220949  13.937  12.974  11.593  0.0125 -0.8346 -0.2180
67653SOL     OW20950  12.739  12.708   4.124  0.1835 -0.2355  0.5500
67653SOL    HW120951  12.750  12.783   4.183 -2.4363  1.0865 -0.4954
67653SOL    HW220952  12.786  12.734   4.045 -2.0941  1.1881 -0.4427
67654SOL     OW20953  10.998   8.471   2.974  0.2160 -0.3232 -0.2956
67654SOL    HW120954  11.094   8.467   2.976  0.3561  2.1277  0.0300
67654SOL    HW220955  10.978   8.513   2.890 -0.2579  3.4195  1.5003
67655SOL     OW20956  11.453   6.924   2.803 -0.9226 -0.0575 -0.1430
67655SOL    HW120957  11.398   6.921   2.881 -0.8163  1.2573  0.0014
67655SOL    HW220958  11.527   6.868   2.824 -1.5491 -0.7830  0.1774
67656SOL     OW20959   1.216   9.427  11.036  0.1804  0.0856 -0.5420
67656SOL    HW120960   1.245   9.516  11.020  0.1500  0.5922  1.8308
67656SOL    HW220961   1.195   9.425  11.129 -0.7425 -2.1481 -0.7289
67657SOL     OW20962  12.525   9.741  10.859  0.6733  0.4849 -0.2862
67657SOL    HW120963  12.434   9.741  10.889  0.7076 -1.1395 -0.1039
67657SOL    HW220964  12.576   9.773  10.933  0.2509  1.4573 -0.4095
67658SOL     OW20965  12.998   3.355   2.401  0.4679  0.3551  0.3796
67658SOL    HW120966  13.015   3.377   2.310 -3.6038  1.3590 -0.3276
67658SOL    HW220967  12.996   3.259   2.403 -1.7767  0.2775 -1.2733
67659SOL     OW20968   5.980  13.364   9.057 -0.1169 -0.1774  0.2865
67659SOL    HW120969   6.045  13.420   9.098  2.6975 -0.9788 -2.6462
67659SOL    HW220970   5.979  13.284   9.110  0.8511  0.1008  0.7343
67660SOL     OW20971  10.519   3.403   3.167 -0.1179 -0.4915 -0.6169
67660SOL    HW120972  10.573   3.479   3.189  0.7011 -0.7218 -1.7484
67660SOL    HW220973  10.566   3.329   3.204 -1.4167 -0.4050  1.3597
67661SOL     OW20974  11.757  13.936   2.806 -0.1759  0.4181  0.4670
67661SOL    HW120975  11.843  13.975   2.792  0.0094 -0.0381  0.3142
67661SOL    HW220976  11.695  14.008   2.792  0.1269  0.5127 -0.4534
67662SOL     OW20977  13.049   6.198   8.462 -0.3779  0.4646 -0.6133
67662SOL    HW120978  13.076   6.280   8.503  0.4630 -0.4009  0.6897
67662SOL    HW220979  13.036   6.138   8.536  1.3326 -1.2241 -1.5873
67663SOL     OW20980   7.323  11.710   4.820  0.5078 -0.2684  0.6494
67663SOL    HW120981   7.321  11.780   4.885  1.1784  0.3516  0.0315
67663SOL    HW220982   7.416  11.695   4.803  0.4152 -1.9294  1.3881
67664SOL     OW20983   7.165   7.819   9.161  0.5217  0.0459  0.1458
67664SOL    HW120984   7.250   7.775   9.156  0.6922  0.2670  0.9123
67664SOL    HW220985   7.185   7.912   9.152  0.3587  0.0969  0.2936
67665SOL     OW20986   1.072   4.072   2.830  0.2209 -0.7210 -0.5646
67665SOL    HW120987   1.040   4.027   2.908  0.3579  1.2777  0.7341
67665SOL    HW220988   1.035   4.024   2.757 -1.1904 -1.7563  0.7739
67666SOL     OW20989  12.830   9.923   4.963 -0.1151 -0.2691 -0.3671
67666SOL    HW120990  12.750   9.877   4.940  0.9602 -2.1544 -0.5847
67666SOL    HW220991  12.851   9.892   5.051  0.6109 -0.1792 -0.5001
67667SOL     OW20992  13.057   2.188   6.024 -0.4207  0.0514  0.2233
67667SOL    HW120993  13.125   2.124   6.005 -0.6224 -0.4916  1.2824
67667SOL    HW220994  13.085   2.230   6.106  0.0944  1.8660 -0.8138
67668SOL     OW20995  13.138  14.151  10.787  0.1471  0.5492  0.2424
67668SOL    HW120996  13.200  14.159  10.714 -0.2337  2.2692  0.0586
67668SOL    HW220997  13.190  14.171  10.865 -0.1329  2.0392  0.0833
67669SOL     OW20998   0.706  12.226  12.169 -0.1845 -0.2344  0.0454
67669SOL    HW120999   0.767  12.200  12.101 -0.8946 -0.5945 -0.4623
67669SOL    HW221000   0.715  12.321  12.175 -0.0154 -0.2192 -0.4463
67670SOL     OW21001   1.069   1.210   6.364  0.1322  0.2684  0.2005
67670SOL    HW121002   0.993   1.153   6.369  0.1341  0.3863  2.7030
67670SOL    HW221003   1.086   1.236   6.454  3.1819  0.1957 -0.2322
67671SOL     OW21004  12.542  13.210   2.600  0.0911 -0.0840  0.1847
67671SOL    HW121005  12.521  13.205   2.506 -0.9528 -1.0260  0.4477
67671SOL    HW221006  12.615  13.272   2.605 -0.4188  0.6592 -1.1572
67672SOL     OW21007   8.986   6.623   4.554 -0.1663 -0.6433  0.6234
67672SOL    HW121008   8.911   6.662   4.598 -1.8682 -2.8894 -0.1168
67672SOL    HW221009   9.050   6.608   4.624  0.0306  2.0573  1.1366
67673SOL     OW21010   6.285  12.857   0.069 -0.3950 -0.5222 -0.7197
67673SOL    HW121011   6.361  12.799   0.062  0.5861  0.6243 -0.0100
67673SOL    HW221012   6.246  12.837   0.154  1.1669  1.2177  0.4749
67674SOL     OW21013   8.662   4.871   6.275 -0.1072  0.1627 -0.0102
67674SOL    HW121014   8.744   4.920   6.266 -0.2790  0.1683 -1.9405
67674SOL    HW221015   8.625   4.901   6.358  2.2476 -0.5000  1.3707
67675SOL     OW21016   0.226  13.553   6.023  0.3049 -0.0290  0.0146
67675SOL    HW121017   0.227  13.629   6.082 -2.8882  0.8450 -0.8485
67675SOL    HW221018   0.308  13.559   5.975 -0.2749  3.6462 -0.8141
67676SOL     OW21019   0.221  10.025   7.152  0.1123  0.5562 -0.1226
67676SOL    HW121020   0.287  10.051   7.087 -1.3115 -1.3522 -2.4764
67676SOL    HW221021   0.187   9.942   7.120 -1.4806  0.0726  2.5471
67677SOL     OW21022  13.685  11.594   6.275 -0.3901 -0.1307 -0.6208
67677SOL    HW121023  13.642  11.666   6.322  0.9308 -0.7225  1.6853
67677SOL    HW221024  13.631  11.580   6.198 -2.3486  1.3919  0.3687
67678SOL     OW21025  14.154  10.366  10.693  0.0528  0.3951 -0.1260
67678SOL    HW121026  14.193  10.307  10.628  0.4184 -0.2604  0.6574
67678SOL    HW221027  14.155  10.315  10.774 -0.7685  1.0488  0.3055
67679SOL     OW21028   4.758   1.699   7.050  0.4113 -0.3592 -0.1751
67679SOL    HW121029   4.822   1.745   6.995  0.2618 -1.2384 -1.1115
67679SOL    HW221030   4.810   1.665   7.123  0.8904 -0.4277 -0.5414
67680SOL     OW21031   1.656   6.683  13.864 -0.3706 -0.1458  0.1724
67680SOL    HW121032   1.609   6.734  13.798  0.4340  1.0791  0.5220
67680SOL    HW221033   1.640   6.592  13.839  0.7271  0.2745 -2.3381
67681SOL     OW21034   0.271   9.190   5.191  0.1889  0.0099 -0.2704
67681SOL    HW121035   0.277   9.162   5.099 -0.5642  0.5774 -0.4996
67681SOL    HW221036   0.178   9.199   5.207  0.2703 -0.8927  0.8154
67682SOL     OW21037  11.151   8.245   0.710  0.6458  0.2727  0.4736
67682SOL    HW121038  11.179   8.156   0.733  0.6760  0.5376  1.5586
67682SOL    HW221039  11.142   8.289   0.795 -1.7777  0.5927  0.1323
67683SOL     OW21040   0.562   7.385   5.673 -0.2286  0.0746 -0.2491
67683SOL    HW121041   0.636   7.382   5.612  0.1715 -0.2739  0.2484
67683SOL    HW221042   0.600   7.415   5.755 -0.0795 -2.5925  0.7657
67684SOL     OW21043  12.356   3.206  12.105 -0.1074  0.3505  0.4911
67684SOL    HW121044  12.328   3.116  12.090 -1.4289  0.8873 -0.4608
67684SOL    HW221045  12.428   3.219  12.044  0.9864 -0.4406  1.5666
67685SOL     OW21046   0.354   8.333   3.986 -0.4153  0.2202 -0.3239
67685SOL    HW121047   0.265   8.311   3.957 -0.7141  2.4718 -1.3294
67685SOL    HW221048   0.402   8.351   3.905  0.5413  0.4315  0.2728
67686SOL     OW21049  11.488  10.288   0.908 -0.2586  0.1363  0.2955
67686SOL    HW121050  11.403  10.324   0.933  0.0149  0.7101  0.4137
67686SOL    HW221051  11.488  10.291   0.813  0.2577  1.6643  0.3120
67687SOL     OW21052   8.349  13.453   4.902  0.6061 -0.1276  0.3068
67687SOL    HW121053   8.318  13.533   4.860  1.5329 -0.5676 -1.3353
67687SOL    HW221054   8.444  13.457   4.895  0.7412 -0.7021  1.5216
67688SOL     OW21055   2.317   1.569  11.940  0.4545  0.5837  0.1333
67688SOL    HW121056   2.348   1.513  12.011  0.1188 -0.0804 -0.2378
67688SOL    HW221057   2.227   1.591  11.965  0.2685  0.1851 -0.1840
67689SOL     OW21058  13.169   4.606  11.394  0.2147 -0.1226 -0.6591
67689SOL    HW121059  13.135   4.593  11.305 -0.5909 -1.4431 -0.1889
67689SOL    HW221060  13.264   4.608  11.383  0.1473 -0.9305 -1.4884
67690SOL     OW21061   2.034   1.824   9.566  0.2692  0.4914 -0.0415
67690SOL    HW121062   1.947   1.856   9.591 -0.5091  1.0268 -3.0486
67690SOL    HW221063   2.083   1.903   9.546  1.1074  0.1263  0.5235
67691SOL     OW21064   9.357   9.026   2.329 -0.0100 -0.3730 -0.5473
67691SOL    HW121065   9.338   9.115   2.360 -2.4941  0.0065 -2.7863
67691SOL    HW221066   9.436   9.036   2.276 -0.0883  0.4350 -0.5281
67692SOL     OW21067  12.789   9.255   1.828 -0.2205 -0.2592  0.4495
67692SOL    HW121068  12.841   9.335   1.819 -1.0175  0.1778 -0.6003
67692SOL    HW221069  12.724   9.276   1.896  0.2030 -0.3764  0.8937
67693SOL     OW21070   6.641  13.944   1.937 -0.0030  0.5359  0.1331
67693SOL    HW121071   6.569  13.924   1.997  0.3567  0.4520  0.5405
67693SOL    HW221072   6.717  13.900   1.975  0.0653 -0.2005 -0.8200
67694SOL     OW21073   4.015   4.268   3.668 -0.1699  0.2723  0.2700
67694SOL    HW121074   3.986   4.354   3.698 -0.8060  1.0661 -2.3294
67694SOL    HW221075   3.996   4.210   3.741 -1.8146  1.9820  1.3053
67695SOL     OW21076  13.365  12.153   6.117  0.1975 -0.2224 -0.1046
67695SOL    HW121077  13.371  12.086   6.186 -0.1386 -1.5386 -1.3053
67695SOL    HW221078  13.292  12.209   6.145  0.4590 -0.3588  0.9025
67696SOL     OW21079   8.775   3.414   9.269  0.0390  0.2623  0.1419
67696SOL    HW121080   8.755   3.446   9.182 -0.2173 -2.0447 -0.7061
67696SOL    HW221081   8.855   3.363   9.258 -1.5354 -2.4906  0.5912
67697SOL     OW21082   7.324   1.458  12.366  0.3408  0.7739  0.2882
67697SOL    HW121083   7.290   1.417  12.287  1.6917  0.1564 -0.0144
67697SOL    HW221084   7.386   1.524  12.333 -0.4696  1.8183  0.8091
67698SOL     OW21085  12.961   3.244   7.785 -0.3995 -0.2598 -0.6057
67698SOL    HW121086  13.038   3.298   7.803  0.1200 -1.5631  1.4166
67698SOL    HW221087  12.922   3.284   7.707  2.6112  0.1296 -2.0776
67699SOL     OW21088  13.669  12.964  12.172 -0.0621  0.2955 -0.1091
67699SOL    HW121089  13.575  12.948  12.163 -0.0440 -1.3376  1.8946
67699SOL    HW221090  13.710  12.880  12.153  1.2469  1.4646 -3.0382
67700SOL     OW21091   7.603  10.438   0.203 -0.2604 -0.6858  0.4158
67700SOL    HW121092   7.528  10.400   0.249 -0.9345 -0.7106 -0.6782
67700SOL    HW221093   7.571  10.521   0.168  0.2588 -0.6349  0.0434
67701SOL     OW21094   2.555   6.031   4.188  0.5609  0.1176 -0.4568
67701SOL    HW121095   2.587   5.941   4.186  0.1498 -0.0550  0.3960
67701SOL    HW221096   2.460   6.023   4.191  0.5396  0.5615  0.3262
67702SOL     OW21097   4.532   0.446   7.898  0.2290 -0.7053 -0.1003
67702SOL    HW121098   4.585   0.525   7.904  1.6770 -1.7320  1.6442
67702SOL    HW221099   4.452   0.475   7.855  0.5043  1.8183  0.8710
67703SOL     OW21100  11.299   6.005   4.898 -0.6170  0.2716 -0.1792
67703SOL    HW121101  11.225   6.058   4.926 -1.4822 -0.0446 -1.7077
67703SOL    HW221102  11.355   6.066   4.850 -0.4821  0.2625 -0.0346
67704SOL     OW21103   4.683   2.970  12.063 -0.5585 -0.3626 -0.1302
67704SOL    HW121104   4.734   3.023  12.124 -1.6902 -0.4850  0.9489
67704SOL    HW221105   4.740   2.896  12.042 -0.0171 -0.1198  0.4730
67705SOL     OW21106   2.171   0.089   4.598  0.1688 -0.3556 -0.5810
67705SOL    HW121107   2.088   0.135   4.584  0.4719 -0.2557 -2.1879
67705SOL    HW221108   2.149   0.014   4.653 -0.5817  0.9045  0.8934
67706SOL     OW21109   5.633   6.169  11.745  0.0457 -0.2788 -0.5387
67706SOL    HW121110   5.543   6.201  11.736  0.0155  0.4930  1.7712
67706SOL    HW221111   5.678   6.238  11.792  1.9234 -0.6190 -1.7366
67707SOL     OW21112  10.654   1.491   1.890 -0.0190  0.0372 -0.0203
67707SOL    HW121113  10.700   1.457   1.966  0.6003  0.1676 -0.3220
67707SOL    HW221114  10.562   1.493   1.915 -0.2755 -3.0282 -0.4145
67708SOL     OW21115   0.809   0.311   0.811  0.5345  0.1411 -0.2100
67708SOL    HW121116   0.734   0.362   0.841  1.3006  0.1220  1.9444
67708SOL    HW221117   0.773   0.225   0.789  0.0670 -0.4972  2.5867
67709SOL     OW21118   1.810  12.139  12.216  0.4613 -0.1941  0.3077
67709SOL    HW121119   1.818  12.193  12.137 -1.3375  0.2419  0.3806
67709SOL    HW221120   1.721  12.157  12.248  0.1676 -2.4527  0.9016
67710SOL     OW21121  13.427  12.153   3.624 -0.1222 -0.1386 -0.1733
67710SOL    HW121122  13.450  12.235   3.579  0.9956 -0.6563 -0.5989
67710SOL    HW221123  13.512  12.111   3.641 -0.6131 -0.6913  1.0414
67711SOL     OW21124   0.216   6.826  10.716 -0.4954 -0.0668 -0.3558
67711SOL    HW121125   0.172   6.766  10.656  0.5775 -0.3339 -0.9178
67711SOL    HW221126   0.219   6.780  10.800 -2.8296  0.6858  0.2008
67712SOL     OW21127   0.166   5.213  10.591  0.7408  0.1533  0.0646
67712SOL    HW121128   0.229   5.280  10.565  0.4930  0.0377 -0.8421
67712SOL    HW221129   0.094   5.262  10.630  0.3898  0.4518 -0.9389
67713SOL     OW21130   1.621   0.356  11.799 -0.3568  0.0945  0.0032
67713SOL    HW121131   1.615   0.274  11.750  0.1533  0.2942 -0.3918
67713SOL    HW221132   1.550   0.409  11.765 -0.3107  0.0472 -0.1668
67714SOL     OW21133  13.621   8.053   6.324 -0.2363 -0.0916  0.1492
67714SOL    HW121134  13.644   7.984   6.386  0.5610 -1.1542 -1.2708
67714SOL    HW221135  13.705   8.082   6.289 -0.6610  0.6806 -0.2551
67715SOL     OW21136   0.036   4.669   9.079  0.4149 -0.3934 -0.0552
67715SOL    HW121137   0.056   4.591   9.129 -0.5634 -0.1080  0.8139
67715SOL    HW221138   0.120   4.713   9.068  1.2176 -2.2128 -1.7359
67716SOL     OW21139   8.945   5.635   9.433 -0.2400  0.1707 -1.0689
67716SOL    HW121140   9.036   5.626   9.405  0.7691 -0.7298  2.0373
67716SOL    HW221141   8.947   5.706   9.497 -1.7835  0.3416 -1.1836
67717SOL     OW21142   7.317   4.312  10.548  0.0554 -0.2058  0.5548
67717SOL    HW121143   7.366   4.241  10.508  1.3980  0.2811  1.2478
67717SOL    HW221144   7.226   4.297  10.522  0.5097 -1.3626 -0.4570
67718SOL     OW21145   8.401   2.462   1.841  0.1412  0.7385  0.2846
67718SOL    HW121146   8.456   2.402   1.891 -1.0330 -0.6978 -0.0386
67718SOL    HW221147   8.462   2.516   1.791  1.3031  1.4059  2.3349
67719SOL     OW21148   3.448   0.554  13.678 -0.4752 -0.0386 -0.3057
67719SOL    HW121149   3.512   0.619  13.705 -0.9196 -0.0493  0.8407
67719SOL    HW221150   3.363   0.595  13.693 -0.7680 -0.9413  0.6712
67720SOL     OW21151   6.165  14.100   3.917  0.0995 -0.3773 -0.1463
67720SOL    HW121152   6.134  14.151   3.991 -1.0662  0.3275 -1.0807
67720SOL    HW221153   6.251  14.068   3.944  0.6308  1.6287  0.6900
67721SOL     OW21154   9.228   8.671  13.725  0.0029  0.0672  0.0983
67721SOL    HW121155   9.147   8.681  13.774  0.0072  0.6994 -0.0230
67721SOL    HW221156   9.242   8.755  13.681  0.2315 -0.3378 -0.6382
67722SOL     OW21157   9.915  13.851  13.693  0.2680  0.1652 -0.0053
67722SOL    HW121158   9.936  13.930  13.744 -1.2321  1.3384 -1.0989
67722SOL    HW221159   9.874  13.885  13.613 -0.1448 -1.7258 -0.6389
67723SOL     OW21160   9.327   6.331   1.895 -0.0676  0.0115  1.0214
67723SOL    HW121161   9.264   6.373   1.837  0.4412 -0.2328  0.2782
67723SOL    HW221162   9.376   6.404   1.933  0.7659  0.1274 -0.2114
67724SOL     OW21163  14.055  13.121  13.009 -0.0584 -0.2485 -0.1882
67724SOL    HW121164  14.035  13.028  13.000 -0.3476 -0.1000 -1.2582
67724SOL    HW221165  13.997  13.164  12.946  1.0150  0.5213 -0.6942
67725SOL     OW21166   2.462   4.194  12.295  0.4227 -0.1262 -0.2165
67725SOL    HW121167   2.458   4.266  12.232 -0.3023 -0.0011 -0.0352
67725SOL    HW221168   2.391   4.211  12.356  0.9192 -0.4213  0.4617
67726SOL     OW21169  12.402   8.711   8.759 -0.2501  0.3214  0.4858
67726SOL    HW121170  12.315   8.747   8.743 -0.4229 -0.2518  0.1074
67726SOL    HW221171  12.387   8.617   8.775  0.3695  0.0414 -0.4789
67727SOL     OW21172  11.727   8.252   9.699 -0.0414  0.4249  0.3211
67727SOL    HW121173  11.805   8.270   9.751  1.4846 -0.7136 -1.4605
67727SOL    HW221174  11.727   8.156   9.688 -0.2125  0.6207 -1.8181
67728SOL     OW21175   5.897  13.777  12.728  0.6319  0.2161  0.0997
67728SOL    HW121176   5.882  13.829  12.649 -0.4583 -1.2110 -0.6711
67728SOL    HW221177   5.895  13.841  12.800 -2.1965  1.0770 -0.6513
67729SOL     OW21178  12.548  14.149   0.127 -0.0684 -0.5458 -0.2628
67729SOL    HW121179  12.622  14.181   0.179 -0.6840 -0.2362  0.4564
67729SOL    HW221180  12.563  14.184   0.040  0.0945  0.4082  0.1302
67730SOL     OW21181   8.916   9.937   9.200  0.4188  0.0124 -0.2467
67730SOL    HW121182   8.832   9.892   9.200 -0.5403  1.5197  2.9419
67730SOL    HW221183   8.907  10.007   9.135 -0.8676  0.2539  0.1729
67731SOL     OW21184   2.307   2.146   7.032  0.2526 -0.3581  0.0917
67731SOL    HW121185   2.318   2.119   7.123  1.0096  1.9310  0.7704
67731SOL    HW221186   2.333   2.070   6.980  2.2592 -0.9228  1.7916
67732SOL     OW21187  12.532  10.655   4.899 -0.2131 -0.0265  0.0191
67732SOL    HW121188  12.601  10.590   4.894 -0.2753 -0.0396 -0.7978
67732SOL    HW221189  12.518  10.668   4.993  2.0907  1.2562  0.2645
67733SOL     OW21190   9.238  11.900   6.911  0.2565 -0.0772 -0.6389
67733SOL    HW121191   9.245  11.959   6.986 -2.1690 -1.7096  1.0310
67733SOL    HW221192   9.296  11.827   6.934  0.0745 -0.2345 -0.6751
67734SOL     OW21193   9.193  13.670   0.112 -0.4541 -0.4539  0.4025
67734SOL    HW121194   9.269  13.712   0.152 -0.3092  1.4257 -1.6429
67734SOL    HW221195   9.197  13.579   0.142  1.4445  0.0674  1.9351
67735SOL     OW21196   7.099  10.431   4.062  0.3821  0.7424 -0.1085
67735SOL    HW121197   7.111  10.384   4.144 -0.5716  0.5625 -0.0547
67735SOL    HW221198   7.108  10.364   3.994  0.4414  0.7516 -0.1092
67736SOL     OW21199   8.536   3.367  14.018  0.5856 -0.2302  0.5326
67736SOL    HW121200   8.617   3.364  13.968  0.0291 -0.3532 -0.3821
67736SOL    HW221201   8.515   3.275  14.034  0.8433 -0.1864  1.1307
67737SOL     OW21202  12.856  11.485  10.143 -0.5053 -0.1798  0.4992
67737SOL    HW121203  12.915  11.553  10.177 -1.7069  1.7705 -1.0955
67737SOL    HW221204  12.870  11.487  10.048 -2.1004 -0.6565  0.2285
67738SOL     OW21205   6.898  12.883  10.708  0.0545  0.3303  0.1464
67738SOL    HW121206   6.884  12.800  10.754  0.1549  0.6385  0.7406
67738SOL    HW221207   6.850  12.873  10.626 -1.3842  0.3216  0.9561
67739SOL     OW21208  11.228   4.061   2.578  0.1667 -0.4673  0.7492
67739SOL    HW121209  11.256   4.040   2.667 -2.3526 -3.2931  1.0537
67739SOL    HW221210  11.138   4.092   2.588 -0.7331 -2.3479 -0.8530
67740SOL     OW21211   4.879   4.914   5.004 -0.2139 -0.0425  0.5062
67740SOL    HW121212   4.834   4.930   5.087  0.8376 -0.9958  1.3099
67740SOL    HW221213   4.824   4.850   4.959 -1.1643  1.0191  0.1154
67741SOL     OW21214  11.263   7.591  10.916 -0.1432  0.3130  0.5566
67741SOL    HW121215  11.234   7.642  10.840 -1.2678  1.2787  1.5827
67741SOL    HW221216  11.209   7.624  10.988  1.4636  0.0146  1.9505
67742SOL     OW21217   7.783  11.300  12.215  0.0636 -0.6627 -0.5542
67742SOL    HW121218   7.827  11.367  12.267  1.3784 -1.4827 -0.5834
67742SOL    HW221219   7.774  11.225  12.275 -0.1113 -0.9560 -0.9428
67743SOL     OW21220  11.824   5.845  13.999 -0.7372 -0.2749 -0.7539
67743SOL    HW121221  11.885   5.782  14.036  0.2007 -0.0477 -1.8249
67743SOL    HW221222  11.863   5.930  14.019 -0.8335 -0.1172 -1.2254
67744SOL     OW21223   5.165  13.160   7.527 -0.6254 -0.1381  0.3463
67744SOL    HW121224   5.104  13.222   7.567 -0.4859 -0.0020  0.3493
67744SOL    HW221225   5.177  13.092   7.593  0.9557  0.9616  1.2516
67745SOL     OW21226  11.947   7.643  10.102 -0.4716 -0.0495  0.0194
67745SOL    HW121227  12.029   7.669  10.144 -1.3354  0.1636  1.6391
67745SOL    HW221228  11.898   7.725  10.092 -0.3084 -0.0903 -1.4449
67746SOL     OW21229   9.332   8.211   7.236 -0.2889 -0.0181 -0.0906
67746SOL    HW121230   9.261   8.149   7.218 -2.1001  1.4281  1.5285
67746SOL    HW221231   9.409   8.156   7.250 -1.4938 -1.7995 -0.0799
67747SOL     OW21232   0.650   2.785  12.409  0.0697  0.4416 -0.0873
67747SOL    HW121233   0.680   2.708  12.458  0.0936  1.8172  2.2105
67747SOL    HW221234   0.727   2.842  12.405 -0.0110  0.4944 -1.5725
67748SOL     OW21235  13.649  13.167   2.030 -0.7254  0.3268 -0.1615
67748SOL    HW121236  13.602  13.084   2.034 -1.3026  0.6270 -0.7470
67748SOL    HW221237  13.701  13.162   1.950  2.2227 -1.0422  1.6657
67749SOL     OW21238   5.300   0.496  12.225 -0.5620 -0.4204  0.3966
67749SOL    HW121239   5.297   0.561  12.154  0.2246 -0.5282  0.2573
67749SOL    HW221240   5.208   0.476  12.243 -0.7936  0.2888  0.0328
67750SOL     OW21241   4.386  13.121   9.564 -0.5330 -0.6216 -0.1864
67750SOL    HW121242   4.450  13.101   9.632 -1.0897  1.4772  1.0224
67750SOL    HW221243   4.333  13.042   9.557 -1.1739 -0.5395  2.6389
67751SOL     OW21244   6.393   8.318  12.970 -0.1263 -0.7379  0.4165
67751SOL    HW121245   6.326   8.255  12.996  0.1457 -0.7082  1.2218
67751SOL    HW221246   6.419   8.361  13.052  0.4041 -0.2879  0.0225
67752SOL     OW21247   7.117   6.006   4.567 -0.4736 -0.2758  0.3731
67752SOL    HW121248   7.078   6.092   4.549 -0.1853 -0.3596 -0.6932
67752SOL    HW221249   7.204   6.011   4.528  0.1744 -0.4876  1.7457
67753SOL     OW21250  11.258  10.098   0.290 -0.4437  0.0878  0.0375
67753SOL    HW121251  11.241  10.034   0.359 -0.8658 -1.5534 -1.5106
67753SOL    HW221252  11.341  10.071   0.252 -0.6871  0.3754 -0.7185
67754SOL     OW21253   4.998   5.123  10.712 -0.2453  0.0228  0.0328
67754SOL    HW121254   5.066   5.178  10.672  0.3745 -1.5451 -1.2108
67754SOL    HW221255   4.926   5.183  10.730  0.0016  1.1065 -2.1749
67755SOL     OW21256  13.555   4.488  13.824 -0.2684  0.1836 -0.2567
67755SOL    HW121257  13.567   4.425  13.895 -1.6955  0.1224 -0.0566
67755SOL    HW221258  13.527   4.435  13.750  1.4863  0.2114 -0.9822
67756SOL     OW21259  13.566   8.848   7.794 -0.5783  0.3573 -0.0577
67756SOL    HW121260  13.652   8.865   7.833 -0.6202 -0.0099  0.2021
67756SOL    HW221261  13.504   8.868   7.864 -0.6614 -0.1735  0.0229
67757SOL     OW21262  13.176   7.967  12.901  0.2013  0.2277 -0.0809
67757SOL    HW121263  13.138   7.894  12.851  0.7839 -0.0011 -0.1987
67757SOL    HW221264  13.112   7.984  12.970 -0.4367  0.2987 -0.6798
67758SOL     OW21265  13.949   6.661  10.329  0.4612 -1.0001  0.2291
67758SOL    HW121266  14.040   6.654  10.300  0.9331 -0.2867  1.4496
67758SOL    HW221267  13.949   6.625  10.418  0.2117  1.6089  1.3958
67759SOL     OW21268   9.778   2.088   8.395  0.4722  0.1390 -0.1207
67759SOL    HW121269   9.797   2.149   8.466  0.5147 -0.3525  0.2966
67759SOL    HW221270   9.851   2.098   8.335  0.0674  1.0893 -0.4653
67760SOL     OW21271   2.184   2.457  14.009 -0.7069  0.0143 -0.0927
67760SOL    HW121272   2.199   2.535  13.956  0.8587 -0.4855 -0.4475
67760SOL    HW221273   2.265   2.446  14.060 -1.1738 -0.9773  0.4671
67761SOL     OW21274   6.617   5.370   5.340 -0.0769 -0.2349 -0.0103
67761SOL    HW121275   6.653   5.405   5.421  1.0128  1.7073 -1.2363
67761SOL    HW221276   6.561   5.297   5.367  1.5234 -0.6969  2.3125
67762SOL     OW21277   1.217  13.025  10.217  0.1873 -0.3452  0.1002
67762SOL    HW121278   1.296  13.073  10.194 -1.0655  0.9535 -1.8617
67762SOL    HW221279   1.230  12.938  10.179  0.6725 -0.1374 -0.2216
67763SOL     OW21280  13.968   5.296   0.592 -0.4023  0.3525  0.2351
67763SOL    HW121281  13.917   5.361   0.544  0.1668  1.3053  0.8999
67763SOL    HW221282  13.954   5.215   0.543 -0.4643  1.1266 -1.0969
67764SOL     OW21283  13.749   3.277   5.949  0.0060  0.0574  0.1519
67764SOL    HW121284  13.676   3.301   5.891  1.1390  1.3009 -0.8258
67764SOL    HW221285  13.772   3.187   5.922  0.4038  0.5566 -1.2560
67765SOL     OW21286   7.829   2.478   9.118  0.3783 -0.1715  0.7416
67765SOL    HW121287   7.771   2.415   9.075 -0.5357 -0.8197  2.7980
67765SOL    HW221288   7.913   2.434   9.124 -0.0060 -0.8303  1.3354
67766SOL     OW21289  13.007   0.866  11.175 -0.2247 -0.5484  0.1715
67766SOL    HW121290  12.969   0.855  11.263  0.0139  0.6971  0.4518
67766SOL    HW221291  12.931   0.876  11.118 -0.3951 -1.7537  0.1502
67767SOL     OW21292  14.129   8.165  10.438 -0.0947 -0.2226 -0.1405
67767SOL    HW121293  14.086   8.223  10.502 -1.8577 -1.1275 -0.4404
67767SOL    HW221294  14.129   8.079  10.481 -0.1764 -0.5861 -0.8552
67768SOL     OW21295   5.902  12.927   7.914  0.3847  0.3355  0.0679
67768SOL    HW121296   5.848  12.855   7.948  1.5215  0.1609  1.6654
67768SOL    HW221297   5.873  13.004   7.963  0.8344  0.4506  0.1611
67769SOL     OW21298   6.623  10.945   0.673 -0.3323 -0.0267 -0.7372
67769SOL    HW121299   6.618  10.855   0.640 -1.0712 -0.6917  1.0491
67769SOL    HW221300   6.715  10.958   0.695 -0.4370 -0.8626  0.2688
67770SOL     OW21301  13.315   5.894  13.543 -0.6682  0.1027 -0.9035
67770SOL    HW121302  13.235   5.920  13.588 -0.6445 -0.8297 -0.3063
67770SOL    HW221303  13.382   5.890  13.611 -0.0758  0.9732 -1.4137
67771SOL     OW21304  13.864   6.306   5.236  0.1463  0.1829 -0.3691
67771SOL    HW121305  13.807   6.298   5.312 -1.7600  2.8536 -1.3708
67771SOL    HW221306  13.952   6.306   5.272 -0.7053  1.7383  1.9189
67772SOL     OW21307  11.497  10.309  13.109 -0.1674  0.1074  0.6602
67772SOL    HW121308  11.420  10.328  13.055 -0.8040  0.2551  1.5932
67772SOL    HW221309  11.531  10.226  13.075  0.2845  0.8861 -0.8706
67773SOL     OW21310   0.946  12.098   2.801  0.1401  0.3749  0.1192
67773SOL    HW121311   1.016  12.163   2.801  0.0165  0.5504  1.5919
67773SOL    HW221312   0.986  12.021   2.841  0.0221 -0.1599 -0.7829
67774SOL     OW21313   4.983   8.577   7.238  0.5755  0.3255 -0.0711
67774SOL    HW121314   4.922   8.622   7.297  0.3678  1.3093 -1.0209
67774SOL    HW221315   4.934   8.563   7.158  1.4092  0.6133 -0.6468
67775SOL     OW21316   2.004  10.510   0.912 -0.1156  0.1055  0.6072
67775SOL    HW121317   2.099  10.499   0.904 -0.1265 -0.2288  0.9326
67775SOL    HW221318   1.983  10.475   0.998 -0.8033 -1.6589 -0.2273
67776SOL     OW21319  10.168  13.949   5.357 -0.2670 -0.1018 -0.0168
67776SOL    HW121320  10.216  13.903   5.288  0.7254  1.0618 -0.1381
67776SOL    HW221321  10.120  14.018   5.310 -0.6003 -0.1039  0.3134
67777SOL     OW21322   6.146  10.200  12.296 -0.1753 -0.0105 -0.0225
67777SOL    HW121323   6.102  10.115  12.291 -0.9045  0.4243 -1.5360
67777SOL    HW221324   6.239  10.178  12.304 -0.4714 -0.9302  1.5379
67778SOL     OW21325   0.630   2.331   6.793  0.1310  0.0881 -0.0914
67778SOL    HW121326   0.701   2.310   6.733  0.1688 -1.4067  0.4356
67778SOL    HW221327   0.593   2.413   6.759  1.9472  0.7850 -0.4865
67779SOL     OW21328   8.860   5.671  13.351  0.1609  0.0336  0.2530
67779SOL    HW121329   8.765   5.658  13.353  0.1792 -0.6260 -1.5563
67779SOL    HW221330   8.877   5.732  13.423 -1.4266 -1.0110  1.6061
67780SOL     OW21331   3.733   6.967   9.644 -0.6000 -0.2273 -0.7321
67780SOL    HW121332   3.704   6.906   9.577 -0.3187 -0.7924 -0.3504
67780SOL    HW221333   3.720   7.054   9.605 -2.1678 -0.4714 -0.8204
67781SOL     OW21334   6.061   5.574   9.712  0.2883 -0.1366 -0.2183
67781SOL    HW121335   6.040   5.496   9.764 -1.2649  0.2675 -0.2094
67781SOL    HW221336   6.152   5.560   9.684  0.6797 -1.0449  1.3812
67782SOL     OW21337  10.414   4.102  11.294  0.3879 -0.0341  0.1374
67782SOL    HW121338  10.333   4.050  11.294  0.1237  0.3282  1.3796
67782SOL    HW221339  10.484   4.037  11.303  0.1454 -0.2761  0.3159
67783SOL     OW21340   3.950   2.813  11.527 -0.1794 -0.6058 -0.3722
67783SOL    HW121341   3.906   2.729  11.513  1.3050 -1.3595 -0.6346
67783SOL    HW221342   3.981   2.839  11.440 -1.0117  0.4651 -0.3760
67784SOL     OW21343  13.858   0.753  11.910  0.5752 -0.2477  0.3531
67784SOL    HW121344  13.819   0.836  11.937 -0.5995 -1.3772  2.4199
67784SOL    HW221345  13.944   0.752  11.952  1.5914  0.8390 -1.5527
67785SOL     OW21346   8.881   7.238  12.958 -0.2217  0.1450  0.1883
67785SOL    HW121347   8.853   7.328  12.974 -1.3934  0.0018 -0.8621
67785SOL    HW221348   8.966   7.247  12.915  0.1498  0.7056  1.0257
67786SOL     OW21349   6.533  13.499  10.301  0.1680 -0.1204 -0.0411
67786SOL    HW121350   6.585  13.569  10.342 -0.0061 -0.0825  0.1126
67786SOL    HW221351   6.489  13.542  10.228 -1.5060  0.4141  1.2097
67787SOL     OW21352   6.765   0.929  11.317 -0.2638 -0.0961 -0.8639
67787SOL    HW121353   6.861   0.934  11.319 -0.0907 -1.8669 -2.1601
67787SOL    HW221354   6.736   1.020  11.323  1.4208  0.3983  1.1205
67788SOL     OW21355   0.958   8.858   7.524 -0.1626  0.1974 -0.1804
67788SOL    HW121356   1.046   8.837   7.492  0.5674  1.0127  1.2016
67788SOL    HW221357   0.933   8.783   7.578 -0.6902 -0.4132 -1.2399
67789SOL     OW21358  10.708   7.829  10.985 -0.4358  0.4168  0.3489
67789SOL    HW121359  10.620   7.868  10.982  0.3053  2.1123 -0.2837
67789SOL    HW221360  10.751   7.874  11.057 -0.1057 -0.5073  0.7421
67790SOL     OW21361   3.416   9.002   5.765 -0.0425 -0.1634  0.3953
67790SOL    HW121362   3.345   8.960   5.813  1.5218 -1.5167  1.6641
67790SOL    HW221363   3.470   9.042   5.833  1.1566 -0.3806 -0.4046
67791SOL     OW21364  11.314   9.886  14.044  0.2747 -0.5490  0.1706
67791SOL    HW121365  11.356   9.963  14.004  1.8543 -1.2641  0.3784
67791SOL    HW221366  11.366   9.868  14.122 -1.5715 -0.3850  1.5060
67792SOL     OW21367   6.466   3.803  10.598  0.1848  0.2716  0.0434
67792SOL    HW121368   6.517   3.750  10.537  1.6710  1.4474  0.1943
67792SOL    HW221369   6.466   3.753  10.679 -1.0333 -0.8813 -0.6441
67793SOL     OW21370   4.501  10.268   2.505 -0.5947 -0.2361 -0.2293
67793SOL    HW121371   4.510  10.177   2.475 -2.1660  0.2516 -2.4573
67793SOL    HW221372   4.591  10.301   2.509 -0.0299 -1.7543  0.2655
67794SOL     OW21373  13.658   7.305   1.713  0.0225  0.5935 -0.6909
67794SOL    HW121374  13.571   7.267   1.706 -0.9906  2.3379  1.3502
67794SOL    HW221375  13.662   7.370   1.643  0.3946 -0.6705 -1.8832
67795SOL     OW21376  11.845   1.811   7.062  0.2380  0.3550  0.2380
67795SOL    HW121377  11.872   1.757   6.987  0.6507  2.1807 -0.9992
67795SOL    HW221378  11.772   1.763   7.101  1.0265 -1.4298 -0.3481
67796SOL     OW21379   9.650  11.329   6.121  0.1056 -0.6718 -0.0567
67796SOL    HW121380   9.639  11.358   6.211  0.9186 -0.7572  0.0749
67796SOL    HW221381   9.587  11.258   6.110 -0.2590 -0.4078  0.3255
67797SOL     OW21382  13.143   1.116   6.467 -0.4321 -0.0736 -0.6908
67797SOL    HW121383  13.216   1.133   6.526 -0.3745 -0.3795 -0.6740
67797SOL    HW221384  13.102   1.037   6.501 -2.4215  1.5314  0.9184
67798SOL     OW21385   2.109   1.951  12.972  0.2780 -0.5082  0.1530
67798SOL    HW121386   2.032   1.951  13.029  1.6493 -1.3324  2.0995
67798SOL    HW221387   2.159   2.029  12.999 -1.1893  1.8063 -3.1409
67799SOL     OW21388  12.496   6.152   9.204  0.4733 -0.2113 -0.4222
67799SOL    HW121389  12.520   6.184   9.290  1.6254 -0.2937 -0.7034
67799SOL    HW221390  12.567   6.093   9.178 -0.3641 -1.0227 -0.9883
67800SOL     OW21391  13.393   3.801  13.078  0.3305  0.4611 -0.2362
67800SOL    HW121392  13.333   3.813  13.151  0.0907 -2.4990  0.1905
67800SOL    HW221393  13.467   3.858  13.098 -1.0051  1.9411  0.7417
67801SOL     OW21394  10.724   9.656  10.232  0.3274  0.2113  0.1718
67801SOL    HW121395  10.732   9.643  10.326 -2.3671 -0.9758  0.3463
67801SOL    HW221396  10.703   9.749  10.222 -1.4163 -0.0486  1.0008
67802SOL     OW21397  14.014   3.718   7.643  0.0137 -0.3513 -0.6798
67802SOL    HW121398  13.991   3.747   7.554 -0.3277 -0.2686 -0.5662
67802SOL    HW221399  13.930   3.703   7.685  0.1779 -0.6851 -0.4629
67803SOL     OW21400   5.924  13.445   2.160 -0.0392 -0.7707  0.3152
67803SOL    HW121401   5.845  13.476   2.116  0.6650 -0.8430 -1.0493
67803SOL    HW221402   5.970  13.525   2.185  0.5431 -0.6957 -0.9314
67804SOL     OW21403   7.278   4.802  12.739  0.0463 -0.3227  0.2412
67804SOL    HW121404   7.274   4.758  12.654  0.5849  1.3477 -0.7060
67804SOL    HW221405   7.188   4.801  12.771 -0.1197 -1.1798 -0.2416
67805SOL     OW21406   0.872   3.749   6.249  0.1756 -0.5476  0.6581
67805SOL    HW121407   0.799   3.739   6.189  0.8037  1.4513 -0.5610
67805SOL    HW221408   0.851   3.828   6.300  1.9566  0.8166 -0.5778
67806SOL     OW21409   4.749  13.727   4.484 -0.1478 -0.3157 -0.9437
67806SOL    HW121410   4.805  13.656   4.454 -0.1966 -0.6253 -0.2955
67806SOL    HW221411   4.808  13.802   4.493 -0.0356 -0.3609 -1.2783
67807SOL     OW21412   1.879   3.845   2.569  0.3272  0.3763 -0.2981
67807SOL    HW121413   1.940   3.802   2.630 -0.0646  0.9427  0.5204
67807SOL    HW221414   1.900   3.938   2.576 -2.0361  0.8862  1.7268
67808SOL     OW21415   4.459   0.588  13.571 -0.8147  0.1324 -0.0252
67808SOL    HW121416   4.374   0.544  13.573  0.1620 -1.8827  0.2538
67808SOL    HW221417   4.516   0.532  13.625  1.4891 -0.4541 -2.7846
67809SOL     OW21418   8.633  14.142   6.386  0.0509  0.0671 -0.4115
67809SOL    HW121419   8.653  14.168   6.296  1.3710  1.3975  0.2299
67809SOL    HW221420   8.676  14.208   6.440 -1.0391 -0.4900  1.2040
67810SOL     OW21421  11.062   5.241   0.837  0.0871 -0.3753  0.2255
67810SOL    HW121422  11.114   5.236   0.917 -0.6733  1.6915  0.9039
67810SOL    HW221423  10.971   5.244   0.868 -0.3268 -1.4155 -0.8219
67811SOL     OW21424   8.136  14.147  11.098  0.0035  0.1650  0.2697
67811SOL    HW121425   8.141  14.113  11.187  0.8926  1.0279  0.5686
67811SOL    HW221426   8.043  14.154  11.080 -0.1868  0.1830  1.2210
67812SOL     OW21427  13.897   8.214   6.470  0.0530 -0.1361 -0.5247
67812SOL    HW121428  13.855   8.175   6.548  0.2973 -1.8314 -1.2061
67812SOL    HW221429  13.843   8.291   6.451 -0.9728 -0.5939  0.3779
67813SOL     OW21430  11.857   1.445   2.972  0.7921 -0.0770 -0.9391
67813SOL    HW121431  11.767   1.452   3.003  0.8207 -1.3810 -0.4754
67813SOL    HW221432  11.856   1.368   2.914  1.3581  0.6103 -1.8901
67814SOL     OW21433   2.748  11.279   7.066 -0.5732  0.0023  0.3291
67814SOL    HW121434   2.747  11.294   6.971  0.1193 -3.1647 -0.2915
67814SOL    HW221435   2.833  11.240   7.084 -1.9336 -2.6391  1.6116
67815SOL     OW21436   1.603  11.485   2.583  0.3324  0.3401  0.2927
67815SOL    HW121437   1.624  11.542   2.657 -0.8570  0.5415  0.4909
67815SOL    HW221438   1.551  11.541   2.524  1.8925  0.4204 -1.0832
67816SOL     OW21439   9.440  11.688   2.092 -0.5230 -0.3048 -0.0907
67816SOL    HW121440   9.495  11.631   2.146 -0.7922 -0.0555  0.4592
67816SOL    HW221441   9.495  11.763   2.070 -0.3652 -0.4778 -0.2870
67817SOL     OW21442  10.253  12.954  12.249 -0.0629  0.3872  0.7422
67817SOL    HW121443  10.217  12.878  12.203 -0.6098  1.7638 -1.2284
67817SOL    HW221444  10.294  12.917  12.327  0.3580 -2.0156 -0.5141
67818SOL     OW21445  13.524   0.335  14.106 -0.4131 -0.0201 -0.1709
67818SOL    HW121446  13.443   0.379  14.079 -0.6119 -0.1212  0.2450
67818SOL    HW221447  13.548   0.281  14.031 -0.9772 -0.3232 -0.1418
67819SOL     OW21448   8.791   2.973  13.041 -0.3621 -0.0448  0.0960
67819SOL    HW121449   8.836   3.033  13.100 -0.3688 -0.7196  0.8203
67819SOL    HW221450   8.859   2.912  13.012 -0.9626 -2.0404  2.4248
67820SOL     OW21451   5.998   3.524   2.851 -0.9549 -0.1640  0.0094
67820SOL    HW121452   6.069   3.576   2.888 -0.8218 -0.6912  0.5070
67820SOL    HW221453   6.030   3.434   2.856 -2.0566 -0.5108  1.1621
67821SOL     OW21454   0.429   7.960  11.104 -0.2893 -0.2507 -0.2891
67821SOL    HW121455   0.363   7.981  11.170 -0.6840  1.5565 -1.2011
67821SOL    HW221456   0.378   7.929  11.029  0.1867 -2.8961  0.3656
67822SOL     OW21457   8.543  13.628   9.356  0.1390 -0.6125  0.1111
67822SOL    HW121458   8.455  13.591   9.354  1.1123 -3.2298  0.8375
67822SOL    HW221459   8.597  13.559   9.395  2.2951  1.4048  0.9663
67823SOL     OW21460   3.378   2.645   3.781 -0.0174  0.4061  0.2632
67823SOL    HW121461   3.363   2.575   3.845 -0.0298 -0.6997 -0.9075
67823SOL    HW221462   3.463   2.625   3.743 -0.9440 -0.2178 -1.5737
67824SOL     OW21463   5.870   4.812   2.853 -0.3304  0.0999  0.4795
67824SOL    HW121464   5.825   4.757   2.917 -0.8289 -0.8017 -0.6277
67824SOL    HW221465   5.893   4.753   2.781  3.2672  0.3415  1.2407
67825SOL     OW21466   0.196   3.945   6.955 -0.1609  0.3902 -0.1077
67825SOL    HW121467   0.166   3.858   6.981 -1.6853  1.4143  1.7431
67825SOL    HW221468   0.143   3.967   6.878  0.6908 -0.5291 -0.9945
67826SOL     OW21469   9.221   9.844  11.768 -0.0161 -0.3015  0.2509
67826SOL    HW121470   9.268   9.925  11.790  2.0185 -1.6072  0.9717
67826SOL    HW221471   9.215   9.845  11.672 -0.2029  0.7833  0.2600
67827SOL     OW21472   7.411   5.234   7.073  0.2636  0.0479  0.4401
67827SOL    HW121473   7.364   5.226   6.990  0.4534  0.2100  0.3161
67827SOL    HW221474   7.347   5.274   7.133  0.3524  0.5938  0.1772
67828SOL     OW21475   2.756  12.773   4.800 -0.5175 -0.2128  0.7552
67828SOL    HW121476   2.765  12.693   4.852 -0.3007 -0.2655  0.6370
67828SOL    HW221477   2.725  12.742   4.715 -2.4367  0.0108  1.3251
67829SOL     OW21478   0.541  10.433   3.337 -0.3951 -0.4177  0.5099
67829SOL    HW121479   0.593  10.508   3.307 -0.8751 -0.2472  0.0786
67829SOL    HW221480   0.451  10.465   3.337 -0.7473 -1.3179 -0.8005
67830SOL     OW21481   2.649   6.143   7.873 -0.4362 -0.3567  0.0540
67830SOL    HW121482   2.676   6.234   7.859  0.5672 -0.3523  1.7384
67830SOL    HW221483   2.561   6.149   7.909 -0.4363 -0.0631  0.0029
67831SOL     OW21484   3.281   1.878   1.820 -0.0958 -0.0172  0.2133
67831SOL    HW121485   3.302   1.888   1.728  0.2592 -0.9411  0.1879
67831SOL    HW221486   3.231   1.797   1.825 -0.8635  0.4714  0.7210
67832SOL     OW21487  11.948   6.803   1.128  0.5816 -0.1491  0.4549
67832SOL    HW121488  12.030   6.784   1.174  0.3301 -0.4966  0.7655
67832SOL    HW221489  11.945   6.740   1.056  0.0573 -0.8852  1.1036
67833SOL     OW21490   9.463   8.408   2.457 -0.0037 -0.2527 -0.0357
67833SOL    HW121491   9.416   8.410   2.373  0.5630  2.2705 -0.3633
67833SOL    HW221492   9.542   8.358   2.438  0.8575  1.5480 -1.5025
67834SOL     OW21493   9.887   7.255   5.924  0.2119 -0.3663 -0.6708
67834SOL    HW121494   9.949   7.317   5.962  0.5226 -2.0102  1.7693
67834SOL    HW221495   9.898   7.175   5.977 -1.5183 -1.8673 -2.4180
67835SOL     OW21496   5.159  10.939   2.686  0.1657 -0.2239 -0.4857
67835SOL    HW121497   5.201  11.019   2.654  0.6064 -1.2089 -2.4664
67835SOL    HW221498   5.066  10.950   2.664  0.0127  0.2258  0.3242
67836SOL     OW21499   5.445   4.236   1.170 -0.4409  0.1546 -0.0752
67836SOL    HW121500   5.425   4.318   1.125 -0.6177  0.1159 -0.0670
67836SOL    HW221501   5.440   4.258   1.263 -1.3787 -0.0758 -0.0622
67837SOL     OW21502   2.156  12.684  12.560 -0.0088  0.3743 -0.4797
67837SOL    HW121503   2.098  12.622  12.517  1.6366 -2.9200  1.6081
67837SOL    HW221504   2.100  12.731  12.622 -0.9156 -0.9102 -0.2833
67838SOL     OW21505   8.391   4.757  10.262 -0.2153  0.0478 -0.3038
67838SOL    HW121506   8.302   4.734  10.235 -0.0726 -0.0456 -0.6997
67838SOL    HW221507   8.437   4.777  10.180 -0.2695  1.5267  0.0174
67839SOL     OW21508   9.350   4.032   2.952  0.3519 -0.1885 -0.1916
67839SOL    HW121509   9.442   4.060   2.953 -0.2116  1.7540  0.1881
67839SOL    HW221510   9.326   4.022   3.044 -0.4285  1.5672 -0.1663
67840SOL     OW21511   2.794   3.564   8.546 -0.1478 -0.2620 -0.1003
67840SOL    HW121512   2.712   3.554   8.595 -0.6212  1.7453 -0.3851
67840SOL    HW221513   2.857   3.508   8.593 -1.8111 -2.4598 -0.3334
67841SOL     OW21514   8.823   1.468   8.088  0.2626 -0.3564  0.2401
67841SOL    HW121515   8.865   1.533   8.032  0.0591  0.3301  0.8651
67841SOL    HW221516   8.774   1.412   8.027  0.7823 -0.1877 -0.3426
67842SOL     OW21517   2.192  10.218  10.055  0.0188 -0.5317 -0.1362
67842SOL    HW121518   2.155  10.225  10.143  0.0198  0.5210 -0.1973
67842SOL    HW221519   2.287  10.219  10.069  0.0202 -0.7679 -0.1267
67843SOL     OW21520  14.137  12.255  12.986 -0.2324 -0.1730  0.1244
67843SOL    HW121521  14.073  12.192  12.953 -1.4677  1.3969 -0.6115
67843SOL    HW221522  14.118  12.262  13.079  3.2951 -4.6592  1.5720
67844SOL     OW21523   5.978   5.152   0.854 -0.3463 -0.4613 -0.2365
67844SOL    HW121524   6.034   5.227   0.872  2.6197 -2.6753  0.4482
67844SOL    HW221525   5.910   5.156   0.922  1.7534 -0.2187  1.9636
67845SOL     OW21526  10.946   2.110   0.782 -0.4343  0.4588 -0.0323
67845SOL    HW121527  10.875   2.111   0.847  0.9220  1.9022  1.5493
67845SOL    HW221528  10.967   2.203   0.768  1.7601  0.0816  0.3390
67846SOL     OW21529  13.361   9.529   9.758 -0.0795 -0.5227  0.2294
67846SOL    HW121530  13.378   9.522   9.852 -1.3362 -0.7418  0.4513
67846SOL    HW221531  13.380   9.620   9.737  0.9067 -0.6468  0.5418
67847SOL     OW21532  14.012   5.279  10.367 -0.0283 -0.2008  0.3848
67847SOL    HW121533  14.097   5.262  10.328  0.8808  1.3167  1.6127
67847SOL    HW221534  13.980   5.357  10.322 -1.2048 -1.2367 -0.6641
67848SOL     OW21535   9.173   4.767   0.743  0.7923 -0.0044  0.1913
67848SOL    HW121536   9.219   4.760   0.660 -2.1594 -1.1070 -1.5136
67848SOL    HW221537   9.159   4.861   0.755  1.9480  0.2172 -0.1188
67849SOL     OW21538   5.732   8.903   9.309  0.1521  0.0412 -0.4046
67849SOL    HW121539   5.765   8.813   9.308  1.9767  0.6233  1.1789
67849SOL    HW221540   5.655   8.899   9.366 -0.0432 -0.5915 -0.7058
67850SOL     OW21541   3.443   6.849   4.159  0.4440  0.4062  0.0342
67850SOL    HW121542   3.379   6.882   4.222 -3.4767 -0.0378 -3.3156
67850SOL    HW221543   3.461   6.760   4.187 -2.6215 -0.4078 -0.2711
67851SOL     OW21544   0.423   4.349  10.493 -0.3190 -0.2328 -0.0555
67851SOL    HW121545   0.516   4.334  10.514 -0.4564  0.9676  1.6637
67851SOL    HW221546   0.377   4.282  10.543 -0.4190 -0.3707 -0.3333
67852SOL     OW21547   8.288  10.250   7.329 -0.6066  0.1460 -0.5457
67852SOL    HW121548   8.321  10.323   7.278 -2.4566 -0.1869 -2.3323
67852SOL    HW221549   8.363  10.192   7.339  1.2223  2.6574  1.8619
67853SOL     OW21550   5.674   0.530  12.133 -0.1706  0.1738  0.1908
67853SOL    HW121551   5.608   0.495  12.073 -0.7164 -0.9160  1.4008
67853SOL    HW221552   5.646   0.620  12.149  0.0820  0.5442 -1.3006
67854SOL     OW21553  14.106   1.979   4.777 -0.2250 -0.3303 -0.2086
67854SOL    HW121554  14.128   1.921   4.850  0.7098  0.9644  0.5827
67854SOL    HW221555  14.010   1.973   4.771 -0.3307 -0.4889  1.1221
67855SOL     OW21556   7.803  11.471  13.956 -0.6178  0.0683  0.0288
67855SOL    HW121557   7.797  11.390  13.906 -1.8405  0.1718 -0.0321
67855SOL    HW221558   7.789  11.540  13.891  0.9993  0.3753 -0.0245
67856SOL     OW21559   6.203  10.888   5.042  0.4249 -0.2949 -0.1103
67856SOL    HW121560   6.265  10.856   5.107  0.9720  2.1177  0.6509
67856SOL    HW221561   6.243  10.864   4.958  1.0297 -1.1115  0.3879
67857SOL     OW21562   4.059   2.942   9.953  0.4899 -0.0257 -0.7740
67857SOL    HW121563   4.096   2.914   9.868 -1.0544  0.7745 -1.7563
67857SOL    HW221564   4.097   2.881  10.016  1.3964 -0.8976 -2.0923
67858SOL     OW21565  10.155   8.770   1.615  0.2149  0.1645  0.3488
67858SOL    HW121566  10.243   8.754   1.650  0.5426  0.1284 -0.4784
67858SOL    HW221567  10.097   8.752   1.689  0.6860 -2.8496  0.0891
67859SOL     OW21568   7.513   7.368   1.884  0.6423 -0.1030 -0.0263
67859SOL    HW121569   7.555   7.355   1.799 -1.2548 -2.4117 -0.7438
67859SOL    HW221570   7.471   7.283   1.902 -0.1441  0.7569  2.5796
67860SOL     OW21571   1.274   5.246   3.624  0.9713  0.0404 -0.1833
67860SOL    HW121572   1.335   5.311   3.659  0.0554  1.2231 -0.7050
67860SOL    HW221573   1.277   5.174   3.686 -0.1014  1.7734  2.0052
67861SOL     OW21574   9.994   4.650  10.548 -0.0888 -0.2077 -0.5591
67861SOL    HW121575  10.026   4.692  10.468 -1.5588 -0.4923 -1.3381
67861SOL    HW221576   9.899   4.653  10.540 -0.2554 -0.8952  0.8497
67862SOL     OW21577   0.731   7.120   5.347 -0.2150  0.1423  0.1119
67862SOL    HW121578   0.742   7.151   5.257  0.1959  1.6442  0.6479
67862SOL    HW221579   0.739   7.025   5.341  0.1325  0.2441 -1.3866
67863SOL     OW21580   5.160   0.620   0.300  0.1777  0.2155 -0.4200
67863SOL    HW121581   5.255   0.617   0.289  0.0875  1.9804 -2.5260
67863SOL    HW221582   5.135   0.531   0.322  2.3622 -0.1811  0.6774
67864SOL     OW21583   2.497   2.375  10.802  0.1657  0.2466 -0.5724
67864SOL    HW121584   2.418   2.364  10.748 -0.8121  0.0466  0.8449
67864SOL    HW221585   2.497   2.467  10.825 -0.7857 -0.1143  1.0361
67865SOL     OW21586  11.835   5.655   6.943 -0.4893  0.2573 -0.2319
67865SOL    HW121587  11.841   5.561   6.961 -1.1542  0.4495  1.2098
67865SOL    HW221588  11.769   5.686   7.005  0.0190  1.7385 -0.3942
67866SOL     OW21589  11.672  13.374   5.004  0.0593 -0.1693  0.4372
67866SOL    HW121590  11.579  13.358   5.014  0.3505 -1.5402  1.1943
67866SOL    HW221591  11.698  13.318   4.931  0.7416 -1.8384  1.8895
67867SOL     OW21592   2.993   8.458   5.774 -0.9292 -0.2619 -0.1742
67867SOL    HW121593   2.951   8.542   5.792 -0.5341 -0.1438  0.2035
67867SOL    HW221594   3.041   8.472   5.692 -1.7214 -0.4378 -0.6855
67868SOL     OW21595   6.647  12.905   1.325 -0.4348 -0.6847  0.4332
67868SOL    HW121596   6.663  12.830   1.382  0.3536 -0.8351  0.0276
67868SOL    HW221597   6.727  12.957   1.331 -1.5951  1.0898  2.0995
67869SOL     OW21598   5.836   7.516  11.403  0.0725  0.1889  0.2683
67869SOL    HW121599   5.873   7.589  11.454 -0.4829  0.4070  0.3626
67869SOL    HW221600   5.754   7.550  11.368 -1.1985 -0.9969  1.9363
67870SOL     OW21601   4.224   9.372   7.528  0.5615 -0.2523 -0.1858
67870SOL    HW121602   4.221   9.317   7.449  0.2936 -1.7607  0.8315
67870SOL    HW221603   4.318   9.383   7.544  0.6405 -1.3733  0.2176
67871SOL     OW21604   5.299  13.626   4.237 -0.6393  0.2557  0.1376
67871SOL    HW121605   5.222  13.665   4.196  0.5753 -0.1980 -2.8674
67871SOL    HW221606   5.283  13.532   4.234 -1.8972  0.1989  3.8715
67872SOL     OW21607   2.384   1.586  11.093 -0.5887  0.5597 -0.1403
67872SOL    HW121608   2.367   1.678  11.109 -1.3770  0.3680  0.1789
67872SOL    HW221609   2.387   1.546  11.180  1.4752  0.5556 -0.1792
67873SOL     OW21610  13.887   5.440  10.141 -0.1153  0.3263  0.1157
67873SOL    HW121611  13.837   5.514  10.174  0.1869 -0.3097  2.1810
67873SOL    HW221612  13.837   5.408  10.066 -1.0683  1.6582  0.1625
67874SOL     OW21613   8.136   9.447  11.173 -0.2764 -0.2103  0.2032
67874SOL    HW121614   8.145   9.538  11.203  1.5150 -0.5711  0.8401
67874SOL    HW221615   8.162   9.394  11.248  0.3759 -1.2134 -0.6998
67875SOL     OW21616  13.114   9.289   4.774 -0.8224 -0.0000 -0.1608
67875SOL    HW121617  13.079   9.307   4.687 -0.1259 -0.8307 -0.6289
67875SOL    HW221618  13.125   9.194   4.776 -2.2528 -0.1781  1.3970
67876SOL     OW21619  11.260   1.655  11.246  0.0622 -0.0913  0.5464
67876SOL    HW121620  11.203   1.643  11.322  1.9246  0.2073  2.0645
67876SOL    HW221621  11.316   1.577  11.245  0.9234  0.5110  0.2854
67877SOL     OW21622   4.638   8.682   3.207  0.0900  0.4406  0.1750
67877SOL    HW121623   4.553   8.643   3.230  0.1551  0.0246 -0.2751
67877SOL    HW221624   4.700   8.640   3.268  0.0373  0.4395  0.2284
67878SOL     OW21625   0.912  11.723   3.761 -0.3769 -0.2662 -0.4979
67878SOL    HW121626   0.942  11.666   3.832  1.0446  0.6957 -0.2949
67878SOL    HW221627   0.879  11.801   3.805 -1.8517 -0.7035 -0.7986
67879SOL     OW21628   4.952  10.424   2.056  0.0888 -0.1417 -0.2432
67879SOL    HW121629   4.983  10.370   1.984 -0.6706 -0.6481 -0.2011
67879SOL    HW221630   5.025  10.426   2.118  1.5420  1.9658 -1.8835
67880SOL     OW21631   3.354   0.079  11.089  0.5207  0.0338 -0.0025
67880SOL    HW121632   3.267   0.090  11.128  0.0624 -0.8193 -0.7429
67880SOL    HW221633   3.378   0.166  11.059 -1.1180 -0.1033 -1.8856
67881SOL     OW21634   9.216  12.944   8.587 -0.0489 -0.4919 -0.3626
67881SOL    HW121635   9.263  12.900   8.516  0.4434 -0.6145  0.0303
67881SOL    HW221636   9.250  12.904   8.667 -0.2468 -0.0221 -0.0336
67882SOL     OW21637   1.337   0.024   0.757  0.4001  0.0712 -0.2898
67882SOL    HW121638   1.334   0.119   0.749  0.7700  0.0318 -0.9542
67882SOL    HW221639   1.256   0.001   0.803  0.7666  0.7844  0.7433
67883SOL     OW21640   0.412  10.032   6.968 -0.0435 -0.3593  0.2329
67883SOL    HW121641   0.506  10.041   6.985 -0.0304 -2.4477  1.7082
67883SOL    HW221642   0.404  10.035   6.873  1.3097  1.3279  0.1313
67884SOL     OW21643   9.722   6.620   1.910 -0.1031  0.2137 -0.1463
67884SOL    HW121644   9.764   6.626   1.996  0.1322 -1.1607 -0.1416
67884SOL    HW221645   9.628   6.622   1.928 -0.0624  1.3919  0.0037
67885SOL     OW21646   7.678  11.082  13.279  0.1792  0.5278 -0.8163
67885SOL    HW121647   7.705  11.167  13.313  0.3437  0.0142  0.3859
67885SOL    HW221648   7.759  11.043  13.245  0.2398  0.5598 -0.7091
67886SOL     OW21649   3.121   9.253   5.812  0.1119 -0.5440  0.1391
67886SOL    HW121650   3.044   9.284   5.860 -0.4115  0.7426 -1.4287
67886SOL    HW221651   3.186   9.235   5.880 -1.0697 -0.1934  1.4019
67887SOL     OW21652   5.976  11.601   8.567 -0.2763 -0.2612  0.2395
67887SOL    HW121653   5.931  11.632   8.489  0.0840  0.7914  0.4258
67887SOL    HW221654   6.066  11.630   8.556 -0.4602  0.9576  1.5571
67888SOL     OW21655   3.189   3.125   7.013  0.2585  0.1166  0.1969
67888SOL    HW121656   3.164   3.133   7.105 -1.0298 -0.6297 -0.0612
67888SOL    HW221657   3.179   3.032   6.993  1.4402  0.1156 -0.4579
67889SOL     OW21658   0.194   2.218  11.757  0.1215  0.2448  0.2981
67889SOL    HW121659   0.241   2.198  11.838  1.5422 -1.7238 -0.9149
67889SOL    HW221660   0.263   2.246  11.697 -0.1411 -2.6263 -1.5151
67890SOL     OW21661   8.488  10.074   4.354 -0.2739 -0.2581  0.1975
67890SOL    HW121662   8.454  10.149   4.304  0.1274  0.5530  1.1180
67890SOL    HW221663   8.582  10.089   4.359 -0.4620  0.4927  2.4762
67891SOL     OW21664   0.045  12.485  12.335 -0.6814 -0.3026  0.1982
67891SOL    HW121665  -0.036  12.502  12.286 -0.4020  1.8845  0.4310
67891SOL    HW221666   0.102  12.442  12.271 -0.8301  1.2136 -1.0094
67892SOL     OW21667   1.517   6.629  12.612  0.3153 -0.3279  0.3348
67892SOL    HW121668   1.513   6.547  12.661 -0.8426 -1.0218 -0.8375
67892SOL    HW221669   1.474   6.693  12.669  0.8082 -0.6307  1.0630
67893SOL     OW21670  13.468  14.125   7.802 -0.4953 -0.2464  0.0204
67893SOL    HW121671  13.382  14.129   7.760 -0.1594  1.9580 -0.5770
67893SOL    HW221672  13.453  14.159   7.890 -0.1617  0.6330 -0.2547
67894SOL     OW21673  13.664   9.835  10.896  0.3203 -0.5243  0.3069
67894SOL    HW121674  13.691   9.860  10.808  1.6019 -3.2921 -0.2100
67894SOL    HW221675  13.570   9.821  10.889  0.3862 -0.5741 -0.5934
67895SOL     OW21676   8.267  14.039   8.389  0.2676  0.0513 -0.1259
67895SOL    HW121677   8.286  13.950   8.360  0.1222  0.3373 -1.1451
67895SOL    HW221678   8.256  14.032   8.484  1.0754 -0.8714 -0.0843
67896SOL     OW21679  11.820  13.202   5.235 -0.6089 -0.2896 -0.7087
67896SOL    HW121680  11.856  13.223   5.320 -1.1740 -2.1466  0.0343
67896SOL    HW221681  11.772  13.281   5.209 -0.6874  0.2006  0.8387
67897SOL     OW21682  11.358  11.404   7.945 -0.0387  0.1180 -0.0398
67897SOL    HW121683  11.381  11.361   7.863  0.4180  0.1265  0.0761
67897SOL    HW221684  11.339  11.333   8.006 -1.0734  0.1252 -0.3385
67898SOL     OW21685   6.382  12.332   2.374 -0.4731 -0.5454 -0.0264
67898SOL    HW121686   6.394  12.400   2.308  0.9246 -1.3468 -0.6160
67898SOL    HW221687   6.289  12.310   2.368 -1.1326  1.7221  0.6154
67899SOL     OW21688   5.486   2.239   8.568 -0.1097 -0.0531  0.1254
67899SOL    HW121689   5.459   2.329   8.556 -0.7855 -0.1579  0.7685
67899SOL    HW221690   5.580   2.244   8.587  0.3957  0.3077 -2.1780
67900SOL     OW21691   1.335   4.869   8.603  0.6514  0.0934  0.0011
67900SOL    HW121692   1.254   4.833   8.638  1.1654 -1.0328  0.0583
67900SOL    HW221693   1.307   4.940   8.545 -0.2591  1.3292  1.8733
67901SOL     OW21694   3.766   0.093   0.037 -0.1991 -0.2931 -0.3253
67901SOL    HW121695   3.761   0.135   0.123  0.0985  1.2702 -1.0502
67901SOL    HW221696   3.724   0.154  -0.023  1.7294 -0.2190 -1.6913
67902SOL     OW21697  10.318   4.971  12.959  0.1696  0.5006 -0.5988
67902SOL    HW121698  10.329   4.979  12.865  0.2186  0.3645 -0.6036
67902SOL    HW221699  10.238   4.921  12.970  0.9532 -0.7833 -0.5782
67903SOL     OW21700   9.029  11.771  13.275  0.2676 -0.3152 -0.5793
67903SOL    HW121701   9.081  11.852  13.281  0.2610 -0.3736  0.3629
67903SOL    HW221702   9.093  11.704  13.248  0.0828  0.1703 -2.3422
67904SOL     OW21703   4.321  10.339   3.076  0.2358 -0.2112  0.0665
67904SOL    HW121704   4.324  10.393   2.997 -0.0183 -0.0913  0.1378
67904SOL    HW221705   4.298  10.252   3.045 -1.0678  0.0903  0.1262
67905SOL     OW21706  14.017   2.015   7.073  0.0961  0.5264 -0.3243
67905SOL    HW121707  14.112   2.014   7.086  0.3106 -0.0946 -1.7414
67905SOL    HW221708  13.983   1.959   7.142  0.7519  0.7870  0.2233
67906SOL     OW21709   0.593   0.950   6.229 -0.2962  0.0721 -0.0608
67906SOL    HW121710   0.518   0.999   6.195 -0.0585 -0.5912 -1.6567
67906SOL    HW221711   0.557   0.896   6.299 -0.7823  1.6450  0.9308
67907SOL     OW21712  13.457   3.283   3.575  0.2462 -0.3823 -0.1089
67907SOL    HW121713  13.474   3.302   3.483 -2.5739  0.0421 -0.6249
67907SOL    HW221714  13.455   3.187   3.580 -0.0902 -0.4065 -0.6271
67908SOL     OW21715  12.845   9.505   0.474 -0.3731 -0.3571  0.1771
67908SOL    HW121716  12.922   9.463   0.435 -0.9556 -2.6684  1.2938
67908SOL    HW221717  12.877   9.590   0.504  2.1531 -1.7347  1.7748
67909SOL     OW21718   0.446   0.717   2.304 -0.1414 -0.3615 -0.0580
67909SOL    HW121719   0.375   0.662   2.334  0.0109  0.4511  1.9729
67909SOL    HW221720   0.524   0.682   2.348  0.4131 -0.1760 -0.8698
67910SOL     OW21721   3.902  11.041  11.046 -0.2639 -0.3155 -0.3112
67910SOL    HW121722   3.894  11.091  10.965 -0.1257  0.9436  0.4363
67910SOL    HW221723   3.964  10.971  11.025 -0.3537 -0.1067 -1.3320
67911SOL     OW21724   2.448  12.544  11.586 -0.2760  0.0379  0.0634
67911SOL    HW121725   2.396  12.620  11.562  0.8286  0.6124 -0.5460
67911SOL    HW221726   2.418  12.475  11.527 -0.1391  0.4479 -0.4909
67912SOL     OW21727  13.143  10.474   2.654 -0.1171 -0.1748 -0.4240
67912SOL    HW121728  13.165  10.545   2.714 -1.6672  0.1459 -0.1864
67912SOL    HW221729  13.193  10.493   2.575  0.5421  0.4164  0.1257
67913SOL     OW21730   2.271   7.174   8.804 -0.1871  0.5017 -0.0419
67913SOL    HW121731   2.268   7.220   8.889  1.6134 -0.0371  0.3458
67913SOL    HW221732   2.223   7.093   8.820 -0.7897  0.8834  0.1360
67914SOL     OW21733  10.448   0.668  11.277 -0.1993  0.2814  0.4986
67914SOL    HW121734  10.385   0.740  11.268 -0.6263 -0.1175  0.2638
67914SOL    HW221735  10.465   0.640  11.187  1.0620  1.0152  0.4834
67915SOL     OW21736   3.352   2.742   9.537  0.4177 -0.2025 -0.4320
67915SOL    HW121737   3.442   2.749   9.569  0.7810 -0.9887 -1.2203
67915SOL    HW221738   3.317   2.664   9.580  0.4518 -0.4667 -0.8706
67916SOL     OW21739   2.974   4.450   4.974  0.0726  0.1937  0.2741
67916SOL    HW121740   2.932   4.535   4.958 -1.3381 -0.8800 -2.4644
67916SOL    HW221741   2.902   4.387   4.974  1.3148 -1.3045 -0.7344
67917SOL     OW21742   2.666  11.730   4.070  0.0294  0.3569 -0.1219
67917SOL    HW121743   2.712  11.801   4.115 -0.1961  0.1249  0.4837
67917SOL    HW221744   2.713  11.718   3.988  0.7483  0.4477  0.2774
67918SOL     OW21745   9.880  11.677  12.025  0.3282  0.1444  0.2330
67918SOL    HW121746   9.930  11.749  11.987  0.1462 -0.4954 -1.2763
67918SOL    HW221747   9.920  11.662  12.110  0.8876  1.4822  0.2259
67919SOL     OW21748   8.000   2.286   3.524 -0.0818 -0.0243  0.1854
67919SOL    HW121749   8.044   2.293   3.609 -0.0276  1.4795  0.0657
67919SOL    HW221750   7.958   2.200   3.526  0.2190 -0.1676  1.5847
67920SOL     OW21751  13.502   1.646   1.190 -0.5463  0.2830  0.6252
67920SOL    HW121752  13.566   1.659   1.120  0.2252  1.8133  1.5386
67920SOL    HW221753  13.516   1.557   1.220  1.5021  0.7063  1.0761
67921SOL     OW21754   6.266  10.065  11.272  0.2493 -0.2446  0.3734
67921SOL    HW121755   6.247   9.985  11.321 -2.0177 -1.1336 -1.7351
67921SOL    HW221756   6.238  10.046  11.182  2.5628  1.8772 -0.9406
67922SOL     OW21757   4.585   5.150   4.278  0.6259  0.1129 -0.5892
67922SOL    HW121758   4.551   5.230   4.238  1.1455  1.1433  0.9644
67922SOL    HW221759   4.509   5.111   4.322 -0.0342 -1.2142 -2.7418
67923SOL     OW21760   2.920   7.593  13.921 -0.0937  0.1229 -0.3707
67923SOL    HW121761   2.912   7.550  14.006 -1.6064  0.5800 -0.2621
67923SOL    HW221762   2.926   7.686  13.941  1.5672  0.1151 -0.6890
67924SOL     OW21763   2.425   7.823   7.436 -0.1932 -0.1805 -0.3001
67924SOL    HW121764   2.390   7.909   7.459 -2.0113 -1.1358  0.8099
67924SOL    HW221765   2.449   7.783   7.519  1.0467 -0.6122 -0.8357
67925SOL     OW21766  11.813  10.867   4.452  0.0896 -0.0828 -0.0522
67925SOL    HW121767  11.797  10.808   4.525  0.4970 -1.3510 -0.9465
67925SOL    HW221768  11.907  10.860   4.435 -0.1042 -0.3904 -1.1400
67926SOL     OW21769   7.968  13.183   7.157 -0.3839 -0.1409  0.0614
67926SOL    HW121770   8.020  13.210   7.082 -0.1266 -1.2507 -0.1811
67926SOL    HW221771   7.901  13.125   7.121 -0.4364 -0.4533  0.6343
67927SOL     OW21772   0.738   0.679  10.267 -0.0417 -0.8761 -0.0319
67927SOL    HW121773   0.704   0.594  10.241 -0.6308 -1.2868  1.9221
67927SOL    HW221774   0.758   0.670  10.360  1.2473  0.6981 -0.1048
67928SOL     OW21775  11.926   2.975   9.986  0.0602 -0.1232  0.1333
67928SOL    HW121776  11.900   3.039   9.919  1.8518  0.7840  0.2569
67928SOL    HW221777  12.011   2.943   9.958 -0.7422 -2.4678  0.1261
67929SOL     OW21778   9.346   6.100   1.515  0.4259 -0.0922 -0.1414
67929SOL    HW121779   9.421   6.040   1.512  0.6721  0.1889  0.3256
67929SOL    HW221780   9.272   6.046   1.486  0.3821 -1.0137  1.5702
67930SOL     OW21781  13.496  10.487   7.419 -0.4168 -0.2856  0.6327
67930SOL    HW121782  13.576  10.489   7.366 -1.5865 -1.0651 -1.2852
67930SOL    HW221783  13.465  10.578   7.418 -0.6949 -0.3675 -0.5545
67931SOL     OW21784  12.812  10.407   7.903 -0.2626  0.5399  0.4641
67931SOL    HW121785  12.880  10.421   7.837 -0.4256  2.3488  0.6522
67931SOL    HW221786  12.765  10.330   7.871  2.3547 -1.3374  0.7901
67932SOL     OW21787   1.861  12.739   3.168  0.0685 -0.0619  0.1405
67932SOL    HW121788   1.926  12.793   3.214  0.4883  0.5052 -1.0929
67932SOL    HW221789   1.905  12.656   3.152  0.7714  0.5599 -1.3133
67933SOL     OW21790   5.389  11.503  12.954  0.2006 -0.6751  0.0061
67933SOL    HW121791   5.471  11.472  12.993 -1.6561 -2.5676  2.7749
67933SOL    HW221792   5.352  11.426  12.912 -0.4341  0.0398 -0.7792
67934SOL     OW21793   0.563  10.643  13.799 -0.1040  0.1838 -0.0815
67934SOL    HW121794   0.651  10.606  13.792 -0.0116  0.5398 -0.8169
67934SOL    HW221795   0.509  10.569  13.827  0.1154 -0.4919 -1.3612
67935SOL     OW21796   7.669   5.322  13.531  0.2396  0.3065 -0.2115
67935SOL    HW121797   7.725   5.384  13.486 -2.0722  2.3851 -0.3952
67935SOL    HW221798   7.725   5.285  13.600  2.9462 -0.7525 -2.7817
67936SOL     OW21799  10.096   5.347   6.103  0.3348 -0.7631  0.7778
67936SOL    HW121800  10.108   5.371   6.011 -1.3150  2.6559  1.2741
67936SOL    HW221801  10.101   5.431   6.149  0.0916 -2.2540  3.7006
67937SOL     OW21802   3.272  11.089  10.930 -0.5843 -0.0037  0.2454
67937SOL    HW121803   3.222  11.103  11.011  0.0911  1.1717  0.4982
67937SOL    HW221804   3.239  11.156  10.870 -0.4559 -0.2821 -0.1326
67938SOL     OW21805   0.951   2.823   0.717 -0.0950  0.4047 -1.0289
67938SOL    HW121806   0.972   2.916   0.709 -1.0600  0.7468  0.0895
67938SOL    HW221807   0.872   2.821   0.771  0.0296 -1.0778 -0.8598
67939SOL     OW21808   7.168  10.511  14.051 -0.0169 -0.0831  0.5074
67939SOL    HW121809   7.217  10.520  13.969 -2.7243  0.6625 -1.1572
67939SOL    HW221810   7.201  10.430  14.089  1.7888 -0.1196 -0.9533
67940SOL     OW21811  11.658   8.905  13.945  0.4823 -0.0775  0.0217
67940SOL    HW121812  11.691   8.857  14.021 -1.7539 -0.5509  0.7440
67940SOL    HW221813  11.674   8.847  13.870  0.7582 -0.5241  0.4268
67941SOL     OW21814   2.142   1.714   2.041 -0.1437  0.0801 -0.5978
67941SOL    HW121815   2.108   1.642   2.094  1.5901 -1.4359 -1.4115
67941SOL    HW221816   2.110   1.793   2.084 -1.5864 -1.1392  0.7100
67942SOL     OW21817  13.253  11.816   5.523  0.1261  0.3015  0.1649
67942SOL    HW121818  13.161  11.821   5.551 -0.0488 -1.1996 -0.0694
67942SOL    HW221819  13.266  11.894   5.469 -0.9224  0.6840  0.4411
67943SOL     OW21820  10.068  11.211  10.142  0.3115  0.0270  0.2318
67943SOL    HW121821  10.023  11.293  10.123 -0.3942 -0.4044 -0.0111
67943SOL    HW221822  10.086  11.173  10.056  0.0848 -0.3564  0.3480
67944SOL     OW21823   3.382   0.006   6.340  0.3829 -0.5050 -0.1251
67944SOL    HW121824   3.370   0.088   6.387  0.5893  0.3815 -1.5698
67944SOL    HW221825   3.418   0.031   6.255  1.2692 -2.1577 -0.2972
67945SOL     OW21826   4.523   0.912   3.301  0.2135 -0.1623  0.1971
67945SOL    HW121827   4.498   0.902   3.209 -1.4166 -1.7186  0.7415
67945SOL    HW221828   4.610   0.953   3.298 -1.2085  3.1254 -1.9089
67946SOL     OW21829   8.016  10.598   9.634  0.6042  0.4977 -0.1398
67946SOL    HW121830   7.959  10.590   9.557  0.5776  1.4357 -0.2325
67946SOL    HW221831   8.033  10.692   9.641  2.1336  0.2476 -0.1183
67947SOL     OW21832   4.316  10.145  10.660 -0.1329 -0.0851 -0.1624
67947SOL    HW121833   4.368  10.207  10.610  0.8943 -0.4578  0.4139
67947SOL    HW221834   4.225  10.166  10.638  0.1708  1.7590  0.1773
67948SOL     OW21835  11.440   0.742   7.626 -0.2195  0.4488  0.1241
67948SOL    HW121836  11.528   0.705   7.625  0.1064  1.2037  0.0529
67948SOL    HW221837  11.397   0.705   7.548  0.1561  0.3597 -0.0425
67949SOL     OW21838   5.009   6.303   5.063 -0.5573  0.4795  0.2491
67949SOL    HW121839   5.061   6.359   5.122 -0.1116 -1.7728  2.1290
67949SOL    HW221840   4.988   6.226   5.116 -4.4293  0.4994 -0.9854
67950SOL     OW21841  13.464   4.565   9.651 -0.3062  0.3076 -0.0099
67950SOL    HW121842  13.540   4.621   9.637  0.7113 -0.8281  0.7827
67950SOL    HW221843  13.426   4.596   9.733 -1.9195  2.1466 -1.3435
67951SOL     OW21844   7.972  11.740   1.051 -0.1199 -0.6209  0.4011
67951SOL    HW121845   7.983  11.823   1.096  1.1477 -0.2960 -0.4494
67951SOL    HW221846   8.035  11.681   1.092  1.1724 -0.2723 -0.9865
67952SOL     OW21847   6.270   1.981   6.874 -0.4274 -0.2421 -0.3046
67952SOL    HW121848   6.176   1.983   6.857 -0.4038 -1.4990 -0.6840
67952SOL    HW221849   6.290   1.889   6.891  0.2697  0.3286  2.6015
67953SOL     OW21850   8.983  14.026  11.213 -0.6751  0.1901 -0.3206
67953SOL    HW121851   8.964  14.026  11.307  1.0117 -1.0662  0.0601
67953SOL    HW221852   8.933  13.953  11.178  0.0027 -0.4117 -0.0708
67954SOL     OW21853   1.278   8.097  13.357  1.0470  0.4415 -0.0887
67954SOL    HW121854   1.230   8.178  13.341  3.4885  1.7284 -1.5286
67954SOL    HW221855   1.255   8.041  13.283  0.4847  0.3553  0.1413
67955SOL     OW21856   6.345   5.157   2.478 -0.1094  0.5919  0.5876
67955SOL    HW121857   6.271   5.206   2.512  1.2402  2.2521  1.2821
67955SOL    HW221858   6.353   5.186   2.387 -0.4234  0.2486  0.4469
67956SOL     OW21859   1.544   8.886   4.498  0.0394 -0.6902  0.4138
67956SOL    HW121860   1.518   8.808   4.548  0.2883 -1.7626 -1.0548
67956SOL    HW221861   1.633   8.868   4.471  0.7799  0.9612  1.5798
67957SOL     OW21862  13.871   2.446   2.267 -0.2554 -0.5282  0.5573
67957SOL    HW121863  13.832   2.523   2.226  2.5790  0.6178 -0.1972
67957SOL    HW221864  13.847   2.454   2.359  0.6294  1.7583  0.6603
67958SOL     OW21865   5.660  10.585   4.289 -0.3287 -0.5996  0.1380
67958SOL    HW121866   5.598  10.653   4.263 -0.1052 -0.7443 -0.8232
67958SOL    HW221867   5.619  10.542   4.364  0.1197  1.4062  1.6061
67959SOL     OW21868   3.675   0.862   7.960 -0.1845 -0.1616 -0.3700
67959SOL    HW121869   3.661   0.791   7.898 -0.2722 -1.1257  0.7122
67959SOL    HW221870   3.766   0.853   7.987 -0.2465  0.0275 -0.0901
67960SOL     OW21871   4.968   8.576  10.388  0.0032  0.3057  0.2149
67960SOL    HW121872   4.891   8.522  10.409  0.2328  0.3445  1.2074
67960SOL    HW221873   4.932   8.650  10.338 -0.3777 -0.4991 -0.7463
67961SOL     OW21874  12.077   9.383   2.474 -0.5584 -0.0909  0.1718
67961SOL    HW121875  12.005   9.445   2.482 -1.0272 -0.3821 -1.5247
67961SOL    HW221876  12.141   9.427   2.418 -1.2441 -1.3825 -1.7222
67962SOL     OW21877   1.475   8.920   1.702  0.5446  0.1456 -0.3083
67962SOL    HW121878   1.411   8.858   1.666  2.3957 -2.2964  0.3243
67962SOL    HW221879   1.502   8.973   1.626  0.4028 -1.2478 -1.3738
67963SOL     OW21880   7.980   5.291   7.789 -0.8993  0.0726 -0.5634
67963SOL    HW121881   7.977   5.375   7.743 -1.7121  0.5893  0.4101
67963SOL    HW221882   7.964   5.313   7.881 -4.6270 -1.4416 -0.6915
67964SOL     OW21883   9.258   6.014  10.126  0.3863 -0.2471  0.3654
67964SOL    HW121884   9.240   6.080  10.059  2.6940 -1.3834 -1.5290
67964SOL    HW221885   9.187   5.951  10.119 -0.9556  1.1357  1.0681
67965SOL     OW21886   7.785  11.458   5.457  0.1261 -0.3952  0.2347
67965SOL    HW121887   7.866  11.496   5.490  0.0583 -0.3712  0.3745
67965SOL    HW221888   7.811  11.374   5.419  0.0628 -0.8751  1.2205
67966SOL     OW21889   2.553   9.624  10.149 -0.0043 -0.4164  0.0801
67966SOL    HW121890   2.590   9.595  10.066  0.9169 -0.1301  0.3726
67966SOL    HW221891   2.626   9.666  10.194 -0.8756  0.8169  0.3874
67967SOL     OW21892   6.371   8.920   5.830  0.2373 -0.1582 -0.1760
67967SOL    HW121893   6.387   9.015   5.833 -1.1418  0.0755  1.5047
67967SOL    HW221894   6.415   8.887   5.909 -0.1223 -0.7734 -0.2338
67968SOL     OW21895  13.285  10.816  13.200  0.2547 -0.5047  0.4779
67968SOL    HW121896  13.331  10.793  13.280 -1.0462 -0.4965  1.2516
67968SOL    HW221897  13.325  10.898  13.172  0.3448 -0.2235  1.4122
67969SOL     OW21898   8.718  12.806   8.562  0.1905 -0.5552 -0.3386
67969SOL    HW121899   8.702  12.803   8.656  1.3940 -0.8056 -0.1257
67969SOL    HW221900   8.780  12.877   8.551 -0.6401  0.0742 -1.0694
67970SOL     OW21901  13.448  10.883   2.487 -0.3736  0.2693 -0.3217
67970SOL    HW121902  13.442  10.963   2.435 -0.5518  0.7977  0.4874
67970SOL    HW221903  13.494  10.909   2.567  1.2375 -0.8620 -0.8444
67971SOL     OW21904  13.693   0.457   4.509 -0.0782 -0.8167  0.0979
67971SOL    HW121905  13.746   0.430   4.584  1.0736  0.4223 -0.2221
67971SOL    HW221906  13.757   0.477   4.440 -1.0001 -0.1070 -0.5780
67972SOL     OW21907   2.339   0.383   2.193 -0.3308  0.5094 -0.2599
67972SOL    HW121908   2.284   0.430   2.130 -0.6710  0.6638  0.1467
67972SOL    HW221909   2.408   0.446   2.215 -0.5405  0.6634 -0.0418
67973SOL     OW21910  11.890   6.052  10.808 -0.1710 -0.1749  0.4292
67973SOL    HW121911  11.847   5.969  10.831  1.1795 -1.6971 -2.0617
67973SOL    HW221912  11.821   6.105  10.770 -0.8709 -0.5371  1.1655
67974SOL     OW21913   0.267   0.639   5.039 -0.4811  0.0586  0.2359
67974SOL    HW121914   0.207   0.583   4.989 -1.0078 -3.2367  4.1241
67974SOL    HW221915   0.209   0.701   5.084 -0.6763 -0.9428  1.3945
67975SOL     OW21916   6.253  11.943   4.304 -0.4831 -0.1972  0.2500
67975SOL    HW121917   6.324  11.968   4.246 -0.7577  2.5812  0.9575
67975SOL    HW221918   6.297  11.919   4.386 -0.2973 -0.2903  0.1255
67976SOL     OW21919  13.320  10.363   1.055 -0.0399 -0.3252 -0.5830
67976SOL    HW121920  13.271  10.281   1.053  1.1630 -1.1020  0.6322
67976SOL    HW221921  13.355  10.372   0.966  0.2416 -1.3864 -0.5910
67977SOL     OW21922   8.916  12.884   8.928 -0.2317  0.8029 -0.0679
67977SOL    HW121923   8.879  12.881   9.016  0.9803  1.0323  0.4679
67977SOL    HW221924   8.840  12.885   8.870 -1.0468  0.5907  0.9667
67978SOL     OW21925  13.522   0.333  10.180 -0.2026 -0.1252  0.8246
67978SOL    HW121926  13.582   0.273  10.136  0.6609  1.0056  0.4146
67978SOL    HW221927  13.436   0.311  10.145  0.3042 -0.0833 -0.5158
67979SOL     OW21928   2.579   7.057  10.093 -0.0164  0.3062  0.2375
67979SOL    HW121929   2.544   6.978  10.133 -1.1578  0.4113 -0.4950
67979SOL    HW221930   2.528   7.068  10.012  1.3811  0.7650 -0.6272
67980SOL     OW21931   7.428  13.689   5.884  0.1087  0.4683  0.5440
67980SOL    HW121932   7.513  13.665   5.919 -0.3368  0.2514  1.5042
67980SOL    HW221933   7.446  13.762   5.824  1.0709 -0.1809  0.0145
67981SOL     OW21934  12.208  10.409  11.377 -0.0338  0.1274  0.0165
67981SOL    HW121935  12.273  10.439  11.313  0.9324 -1.4006  0.2332
67981SOL    HW221936  12.233  10.453  11.458 -0.3281  0.8767 -0.2910
67982SOL     OW21937   7.791   8.788   5.513  0.0474 -0.1535  0.3954
67982SOL    HW121938   7.849   8.846   5.561  0.5624 -0.5018  0.2025
67982SOL    HW221939   7.727   8.758   5.578  0.4308 -0.2192  0.7430
67983SOL     OW21940  10.660   0.178   3.575  0.1844  0.7468 -0.6310
67983SOL    HW121941  10.725   0.244   3.550 -0.6923  2.4456  1.3000
67983SOL    HW221942  10.591   0.228   3.618 -0.6629 -1.4179  0.6759
67984SOL     OW21943   5.430   9.958   7.258 -0.6523  0.5923  0.1829
67984SOL    HW121944   5.415   9.933   7.167 -0.8921  1.8633 -0.1548
67984SOL    HW221945   5.373   9.901   7.309 -0.3258 -0.3064 -0.4308
67985SOL     OW21946  11.202   2.600   3.546  0.2229  0.4953  0.0647
67985SOL    HW121947  11.282   2.571   3.589  0.5964  0.0769 -0.8696
67985SOL    HW221948  11.144   2.523   3.548  0.5014  0.2445 -0.7447
67986SOL     OW21949   8.606   4.257   8.254  0.3933  0.3212 -0.2064
67986SOL    HW121950   8.652   4.182   8.216 -1.4904 -0.1419 -1.7502
67986SOL    HW221951   8.635   4.332   8.202  1.2325  0.4431  0.4286
67987SOL     OW21952   4.272   8.017  12.382  0.4824 -0.4376  0.0821
67987SOL    HW121953   4.353   7.991  12.336  1.6014  0.4735  1.4456
67987SOL    HW221954   4.287   7.990  12.472 -1.6340 -2.1115 -0.0055
67988SOL     OW21955  12.039   8.196   0.353 -0.0469 -0.7180 -0.0096
67988SOL    HW121956  12.050   8.107   0.386  0.3524 -0.7062 -0.1110
67988SOL    HW221957  12.070   8.191   0.262  1.5074 -0.1104  0.4625
67989SOL     OW21958   3.582  10.751  10.374 -0.4613  0.0427 -0.1180
67989SOL    HW121959   3.650  10.688  10.351  1.8250  0.8756  3.4916
67989SOL    HW221960   3.505  10.698  10.394 -0.2488 -1.0921 -2.0732
67990SOL     OW21961  12.130   6.727   2.107  0.5253 -0.1262  0.1915
67990SOL    HW121962  12.100   6.785   2.037 -1.1099  0.0410  1.0081
67990SOL    HW221963  12.134   6.640   2.066  0.0041  0.0397 -0.2140
67991SOL     OW21964   1.707   4.274  10.474  0.2943  0.5785  0.3891
67991SOL    HW121965   1.632   4.309  10.425  0.1129 -0.5548 -0.1735
67991SOL    HW221966   1.765   4.350  10.486 -0.8222  1.4132  0.6221
67992SOL     OW21967   0.012   7.656   2.399  0.8135  0.0133  0.5202
67992SOL    HW121968   0.106   7.661   2.383  0.8981  0.2452  1.0638
67992SOL    HW221969   0.003   7.670   2.493  0.2958 -0.7439  0.5974
67993SOL     OW21970   3.318   7.829   8.869  0.0283  0.0019  0.1068
67993SOL    HW121971   3.288   7.867   8.952  0.2544 -1.9828  1.1518
67993SOL    HW221972   3.376   7.758   8.894 -0.6325 -1.2760 -1.7165
67994SOL     OW21973  11.062   1.605  13.475  0.0150  0.3028 -0.0199
67994SOL    HW121974  11.156   1.616  13.465  0.1917 -0.0710  1.0877
67994SOL    HW221975  11.028   1.600  13.385  0.7037  3.0123 -0.5116
67995SOL     OW21976   1.002   2.163  11.477 -0.5925 -0.6724  0.0936
67995SOL    HW121977   1.071   2.183  11.414  0.2667 -2.0353  0.5604
67995SOL    HW221978   1.040   2.182  11.562 -1.3114 -0.0310  0.2764
67996SOL     OW21979  13.842   2.169   6.938  0.0303 -0.2772  0.2143
67996SOL    HW121980  13.912   2.120   6.982  0.3423  0.0203  0.0609
67996SOL    HW221981  13.887   2.245   6.901 -0.7977  1.3683  2.3861
67997SOL     OW21982   5.842   0.196   3.395 -0.0281  0.2772  0.2103
67997SOL    HW121983   5.805   0.284   3.395 -0.6464  0.0444  1.8687
67997SOL    HW221984   5.937   0.210   3.386 -0.2765  0.9714 -1.7832
67998SOL     OW21985  13.596   2.911   7.141 -0.2195  0.0715  0.5094
67998SOL    HW121986  13.668   2.858   7.175 -1.3887 -2.1114 -0.2029
67998SOL    HW221987  13.528   2.903   7.208 -0.4965  0.5010  0.2782
67999SOL     OW21988   5.081   3.911   9.593  0.0041 -0.0522  0.6406
67999SOL    HW121989   4.995   3.869   9.585 -1.0109  1.8519  0.9102
67999SOL    HW221990   5.124   3.865   9.666 -0.0498 -2.1568 -0.5953
68000SOL     OW21991  13.128  13.082   2.996 -0.4911 -0.2750  0.6893
68000SOL    HW121992  13.044  13.076   3.041 -1.2515  0.0485 -0.6503
68000SOL    HW221993  13.109  13.059   2.906  0.8594 -0.1321  0.3390
68001SOL     OW21994   7.100  10.557   3.541 -0.2048  0.1038  0.1752
68001SOL    HW121995   7.025  10.611   3.565 -0.6713 -0.3659 -0.2048
68001SOL    HW221996   7.071  10.508   3.463  1.1232  1.2766 -1.1148
68002SOL     OW21997   0.799   5.935   8.697  0.1211  0.1580 -0.3368
68002SOL    HW121998   0.858   5.939   8.773  1.0150  3.3520 -1.0522
68002SOL    HW221999   0.713   5.957   8.732 -0.2690 -2.1369  0.3020
68003SOL     OW22000  13.285   0.013  13.477  0.5229 -0.2416 -0.1809
68003SOL    HW122001  13.306  -0.048  13.548 -0.7562  0.5600  0.9405
68003SOL    HW222002  13.232  -0.038  13.416 -0.6751 -0.2613  0.8294
68004SOL     OW22003  10.103   7.396  11.663  0.3385  0.4627  0.0719
68004SOL    HW122004  10.159   7.323  11.689  1.5945  1.3366 -0.0731
68004SOL    HW222005  10.092   7.386  11.568 -0.9003 -0.4541  0.2803
68005SOL     OW22006   4.725   9.948  11.104 -0.2567  1.0099 -0.1460
68005SOL    HW122007   4.715   9.977  11.013  0.1612  1.0221 -0.1913
68005SOL    HW222008   4.660   9.879  11.114  0.2000  0.4886 -0.6857
68006SOL     OW22009   9.297   3.760  11.096 -0.0887 -0.0766 -0.5123
68006SOL    HW122010   9.247   3.689  11.138 -0.9008 -0.1732 -1.5873
68006SOL    HW222011   9.354   3.793  11.165 -1.2602 -0.3235  0.6207
68007SOL     OW22012   8.592   8.769  12.159  0.3492  0.0405 -0.2761
68007SOL    HW122013   8.655   8.771  12.231 -1.1823  1.3306  1.1061
68007SOL    HW222014   8.611   8.687  12.113  1.6867 -0.6064  1.3167
68008SOL     OW22015  12.406   2.034   1.524  0.1907 -0.3725 -0.0769
68008SOL    HW122016  12.362   1.965   1.476 -1.3491  1.0529 -0.7990
68008SOL    HW222017  12.462   2.077   1.459  0.1319 -0.1141  0.0399
68009SOL     OW22018   0.907   5.360   9.345 -0.0586  0.1322  0.4716
68009SOL    HW122019   0.981   5.384   9.289  0.6070 -2.7128 -0.0394
68009SOL    HW222020   0.834   5.346   9.285  0.1089 -0.9215  0.4816
68010SOL     OW22021   8.908  13.995  12.328  0.1125 -0.3045 -0.2465
68010SOL    HW122022   8.905  14.090  12.333  1.2928 -0.2054 -1.1189
68010SOL    HW222023   8.991  13.971  12.369  1.8421 -0.6045 -3.5745
68011SOL     OW22024   0.694   7.832   1.963 -0.4739  0.1978 -0.2191
68011SOL    HW122025   0.613   7.848   1.914  0.2939 -0.5986 -1.8089
68011SOL    HW222026   0.752   7.904   1.938  0.1270 -0.5306 -0.9679
68012SOL     OW22027  13.957   7.582   2.958  0.3236  0.1200 -0.1172
68012SOL    HW122028  13.957   7.671   2.993  1.0864  0.4206 -0.8510
68012SOL    HW222029  14.048   7.553   2.967 -0.2680 -1.3337  1.9140
68013SOL     OW22030  10.855   9.215   5.340 -0.2352 -0.6351  0.0800
68013SOL    HW122031  10.932   9.160   5.352  1.3346  1.2568 -0.8732
68013SOL    HW222032  10.825   9.234   5.429  1.6745  0.2891  0.5656
68014SOL     OW22033  13.776  11.799  11.185  0.4430  0.4647  0.2369
68014SOL    HW122034  13.786  11.723  11.242 -1.2119  0.3516  0.4279
68014SOL    HW222035  13.764  11.872  11.245  2.6821  1.0478  0.0712
68015SOL     OW22036  13.101   4.730   5.304 -0.0909 -0.6218  0.3773
68015SOL    HW122037  13.117   4.688   5.220  0.2971  0.4660 -0.1133
68015SOL    HW222038  13.107   4.660   5.369 -2.4867 -1.9140 -0.6551
68016SOL     OW22039   5.044  12.660   3.635  0.0156 -0.5222 -0.4456
68016SOL    HW122040   5.080  12.691   3.552  1.7753 -0.6939  0.1940
68016SOL    HW222041   4.949  12.667   3.625  0.2111  0.0746 -2.2156
68017SOL     OW22042  13.581   1.400   1.216  0.7077 -0.1044  0.5146
68017SOL    HW122043  13.521   1.349   1.163  1.2406 -1.9458  1.5705
68017SOL    HW222044  13.668   1.373   1.187  1.0333 -1.8276  2.7642
68018SOL     OW22045   9.456   6.895  13.928  0.2635 -0.8297 -0.3332
68018SOL    HW122046   9.428   6.817  13.881 -1.4904  0.3643 -1.4320
68018SOL    HW222047   9.377   6.927  13.971  1.0324  0.1218  0.4246
68019SOL     OW22048   4.069  12.486  10.224  0.3043  0.2342 -0.2631
68019SOL    HW122049   4.148  12.444  10.190  0.6229 -0.0979  0.8387
68019SOL    HW222050   4.048  12.553  10.160  2.3667  1.3675  0.1333
68020SOL     OW22051   0.063   0.205   5.551  0.2699 -0.1235  0.0597
68020SOL    HW122052  -0.022   0.228   5.512 -0.0745  1.6310  1.7166
68020SOL    HW222053   0.118   0.184   5.476 -1.1818  0.2235 -1.1706
68021SOL     OW22054   9.057   0.223  12.559 -0.1352 -0.0214 -0.8279
68021SOL    HW122055   9.054   0.232  12.654 -1.4198 -1.1606 -0.7336
68021SOL    HW222056   9.129   0.281  12.532  0.1838  0.4036  0.8082
68022SOL     OW22057  10.409  13.292   5.043 -0.3342  0.0048 -0.6342
68022SOL    HW122058  10.324  13.336   5.042  0.1525  1.0642  0.7358
68022SOL    HW222059  10.458  13.337   5.112  1.4629 -0.3560 -1.6112
68023SOL     OW22060   5.320   3.911   7.235  0.5849 -0.2814  0.1353
68023SOL    HW122061   5.243   3.855   7.229  0.0541  0.2964  1.2635
68023SOL    HW222062   5.392   3.857   7.202  0.2641 -1.9864  2.0614
68024SOL     OW22063   3.247   8.611   3.202  0.7184  0.3740  0.0448
68024SOL    HW122064   3.286   8.525   3.215 -0.0681  0.1542  1.1304
68024SOL    HW222065   3.288   8.645   3.122  1.1583 -0.9267 -0.3003
68025SOL     OW22066   3.226  10.626   9.750 -0.4074  0.6158 -0.0298
68025SOL    HW122067   3.173  10.699   9.717 -0.1081  1.6486  1.6446
68025SOL    HW222068   3.208  10.554   9.690 -0.1962  2.2418 -2.1532
68026SOL     OW22069  11.415   3.569   7.578 -0.5080  0.1388  0.0007
68026SOL    HW122070  11.464   3.644   7.610 -2.2142  1.7376 -0.9063
68026SOL    HW222071  11.407   3.512   7.654  4.2807 -1.2557 -0.2153
68027SOL     OW22072   4.916  11.964  13.396 -0.4917  0.0538  0.0770
68027SOL    HW122073   4.821  11.955  13.401 -0.2932 -3.5081  0.7009
68027SOL    HW222074   4.939  11.935  13.308  0.0588 -1.1727  0.5844
68028SOL     OW22075   9.504  12.665   9.398 -0.4055  0.6396 -0.6895
68028SOL    HW122076   9.442  12.672   9.326  0.1887 -2.6774 -1.6467
68028SOL    HW222077   9.581  12.624   9.360 -0.4365 -2.1947  1.9551
68029SOL     OW22078   8.260  13.722   4.811  0.1477  0.1490 -0.0925
68029SOL    HW122079   8.264  13.730   4.716 -0.1299  0.8035 -0.0609
68029SOL    HW222080   8.166  13.724   4.831  0.2073  0.0757  0.1986
68030SOL     OW22081  10.257  11.052   0.350  0.6138 -0.4774 -0.0247
68030SOL    HW122082  10.214  11.073   0.267  0.2571  1.3760  0.5878
68030SOL    HW222083  10.239  11.127   0.406  1.5286 -1.3345  1.4827
68031SOL     OW22084   5.500   9.233   3.005  0.4728 -0.2637  0.0374
68031SOL    HW122085   5.577   9.244   3.060 -0.2288  0.8341  0.8612
68031SOL    HW222086   5.427   9.228   3.067 -0.3188  0.7918 -0.7554
68032SOL     OW22087  11.602   8.926   7.157 -0.4951 -0.0085  0.1188
68032SOL    HW122088  11.568   8.837   7.166  0.0705 -0.2307  0.0937
68032SOL    HW222089  11.524   8.982   7.155 -0.8998 -0.5810 -0.7948
68033SOL     OW22090   4.403   6.015   0.300 -0.0055 -0.0459 -0.3431
68033SOL    HW122091   4.436   5.975   0.220 -0.5057 -2.0742  0.3965
68033SOL    HW222092   4.383   5.941   0.357 -0.8454  1.2988  1.1947
68034SOL     OW22093   9.483   0.258   9.214  0.3334  0.3137  0.4158
68034SOL    HW122094   9.410   0.316   9.193 -0.2373 -1.2405 -2.3469
68034SOL    HW222095   9.561   0.307   9.187  0.1385  0.9494  0.9629
68035SOL     OW22096   2.304   6.466   1.848 -0.2790  0.1307  0.3471
68035SOL    HW122097   2.217   6.467   1.808  0.0128 -2.9097 -0.6067
68035SOL    HW222098   2.294   6.519   1.928 -2.9208  0.1062  0.1233
68036SOL     OW22099  12.317  12.957   7.410  0.3195 -0.3247  0.0501
68036SOL    HW122100  12.285  12.874   7.376 -0.7378 -0.1964  0.6954
68036SOL    HW222101  12.394  12.934   7.462  1.2887 -0.6442 -1.4638
68037SOL     OW22102  12.793   7.142   7.196  0.3365  0.0958 -0.1123
68037SOL    HW122103  12.846   7.211   7.156  2.0725 -1.7283 -1.1463
68037SOL    HW222104  12.769   7.085   7.123 -4.0346  1.2989  0.0989
68038SOL     OW22105   9.917   6.666  11.252 -0.0104 -0.1049  0.4648
68038SOL    HW122106   9.855   6.633  11.317 -1.2314  0.1293 -0.5348
68038SOL    HW222107   9.905   6.761  11.254  1.4871  0.0911  1.3763
68039SOL     OW22108  10.553   5.313  12.203  0.3219 -0.5233 -0.2813
68039SOL    HW122109  10.554   5.387  12.142 -0.9101 -0.4541 -0.2532
68039SOL    HW222110  10.580   5.350  12.287 -0.0633 -0.1389 -0.3207
68040SOL     OW22111  13.065   1.861   5.516 -0.5486 -0.1493 -0.3515
68040SOL    HW122112  13.158   1.872   5.533 -1.0547  0.8839  2.2070
68040SOL    HW222113  13.047   1.917   5.441  0.0651  3.7683  2.1484
68041SOL     OW22114  10.628  13.167   2.869 -0.2122 -0.1096  0.7740
68041SOL    HW122115  10.568  13.176   2.795 -1.6528  0.1977  1.9332
68041SOL    HW222116  10.617  13.248   2.919  0.1234 -0.6571  1.7641
68042SOL     OW22117   2.212  11.300   6.356  0.0566 -0.0819  0.1770
68042SOL    HW122118   2.132  11.253   6.377 -0.6126  0.3947 -1.2084
68042SOL    HW222119   2.231  11.277   6.265  1.4929 -0.1635  0.4641
68043SOL     OW22120   8.163   7.219  12.056  0.0367 -0.0008  0.2683
68043SOL    HW122121   8.250   7.236  12.092  0.3081  1.6238 -1.0355
68043SOL    HW222122   8.105   7.224  12.132  0.6898  2.5792  0.7011
68044SOL     OW22123   6.520  13.842   0.495  0.1059  0.1403  0.0056
68044SOL    HW122124   6.525  13.931   0.529 -1.7989  0.2946 -0.0177
68044SOL    HW222125   6.536  13.786   0.571 -0.1685  0.5082  0.3395
68045SOL     OW22126   4.686   8.856  11.130 -0.1658  0.8621 -0.3138
68045SOL    HW122127   4.768   8.815  11.156  0.3212  1.2573 -1.2052
68045SOL    HW222128   4.624   8.830  11.199  0.3580 -0.5441 -0.3323
68046SOL     OW22129   9.100  12.872   7.293  0.0420 -0.1311 -0.3641
68046SOL    HW122130   9.052  12.790   7.291  1.2999 -0.8961 -1.6321
68046SOL    HW222131   9.116  12.889   7.386 -3.3291  0.6399  0.1849
68047SOL     OW22132   9.512   7.702  13.618 -0.7505 -0.6468 -0.1542
68047SOL    HW122133   9.416   7.693  13.618 -1.0034  1.1380  2.1538
68047SOL    HW222134   9.541   7.646  13.689 -0.1646 -0.4337 -0.2271
68048SOL     OW22135   8.917   0.209   3.764 -0.4790 -0.3258 -0.4010
68048SOL    HW122136   8.849   0.247   3.708  0.3949  0.4621 -0.9565
68048SOL    HW222137   8.869   0.174   3.838 -1.3654  2.2994  0.4043
68049SOL     OW22138  10.883   8.282  13.767 -0.0971  0.7364  0.6770
68049SOL    HW122139  10.902   8.202  13.718 -0.3833  0.3503  1.1905
68049SOL    HW222140  10.827   8.333  13.708  2.6432  2.0593 -1.0251
68050SOL     OW22141  11.451   5.792  11.415  0.3808  0.4463 -0.1840
68050SOL    HW122142  11.539   5.828  11.417  0.6500 -0.1911  1.8976
68050SOL    HW222143  11.394   5.868  11.423  0.7184  0.8598 -1.5395
68051SOL     OW22144  10.416   4.937  11.697 -0.1292 -0.6296 -0.4998
68051SOL    HW122145  10.455   5.024  11.685  1.8410 -1.4519 -0.4440
68051SOL    HW222146  10.350   4.931  11.628 -0.9305  1.2269  0.0480
68052SOL     OW22147   6.417   8.293   6.077 -0.4903  0.1594  0.2490
68052SOL    HW122148   6.396   8.325   5.989 -0.1718 -0.7445 -0.1724
68052SOL    HW222149   6.386   8.361   6.136 -0.3900  0.9402 -0.5863
68053SOL     OW22150   1.323  13.413  10.746  0.1569  0.0344 -0.4801
68053SOL    HW122151   1.305  13.505  10.766 -2.6903 -0.4382 -0.3821
68053SOL    HW222152   1.291  13.366  10.823  1.2616 -1.0741 -0.6729
68054SOL     OW22153   4.499   6.550  10.317 -0.1371  0.3214 -0.2889
68054SOL    HW122154   4.425   6.597  10.281 -1.1201  1.6777  3.1219
68054SOL    HW222155   4.562   6.618  10.340  1.3997 -0.6671 -1.3652
68055SOL     OW22156   8.191   7.732   9.654 -0.3295 -0.2989  0.3731
68055SOL    HW122157   8.134   7.775   9.590 -0.5142  1.1061  1.4329
68055SOL    HW222158   8.278   7.733   9.615 -0.6095 -0.3261 -0.2524
68056SOL     OW22159   3.559   3.328  13.377 -0.2061 -0.2014  0.0539
68056SOL    HW122160   3.574   3.386  13.452 -0.6266  0.5537 -0.4254
68056SOL    HW222161   3.605   3.371  13.305 -0.2427 -0.6459 -0.2379
68057SOL     OW22162   0.349   1.950   5.804  0.5386  0.1336 -0.7479
68057SOL    HW122163   0.307   2.023   5.758  0.8485  0.9193  0.1736
68057SOL    HW222164   0.431   1.936   5.757  0.6144  0.5801 -0.7555
68058SOL     OW22165   1.629   0.418  11.421 -0.0472  0.2517 -0.2694
68058SOL    HW122166   1.607   0.333  11.459  1.5736 -0.1573 -0.1634
68058SOL    HW222167   1.546   0.452  11.388 -0.7986 -1.1782  0.0780
68059SOL     OW22168   9.872   9.361  14.008 -0.3558 -0.5306 -0.5103
68059SOL    HW122169   9.871   9.347  13.914 -1.3924 -0.6914 -0.4881
68059SOL    HW222170   9.780   9.375  14.031 -0.4264 -2.6191  0.7820
68060SOL     OW22171  11.181   7.572  12.074 -0.0747  0.5926 -0.3527
68060SOL    HW122172  11.270   7.604  12.088  0.2072 -0.0422 -0.6503
68060SOL    HW222173  11.137   7.587  12.158  0.3255  0.8490 -0.1821
68061SOL     OW22174   1.863   3.068   3.944  0.0715 -0.4342 -0.8260
68061SOL    HW122175   1.810   3.022   4.010 -1.8869  0.2874 -1.8065
68061SOL    HW222176   1.800   3.125   3.899  2.1181  2.2569 -0.5229
68062SOL     OW22177  11.172   6.314   6.659 -0.2906  0.6674 -0.3865
68062SOL    HW122178  11.264   6.287   6.652 -0.1444 -0.3193  3.3262
68062SOL    HW222179  11.129   6.241   6.704 -2.3826  2.0964  0.0972
68063SOL     OW22180   3.853   9.919   9.058 -0.7673 -0.5564 -0.2632
68063SOL    HW122181   3.947   9.927   9.039 -0.3245  1.0118  2.2199
68063SOL    HW222182   3.842   9.827   9.083 -0.1705 -1.0587 -1.7284
68064SOL     OW22183  10.389   5.580   4.898 -0.1009  0.2434  0.1687
68064SOL    HW122184  10.448   5.606   4.969  0.1010 -0.3460  0.2210
68064SOL    HW222185  10.416   5.491   4.875 -1.0477 -0.0855  0.2691
68065SOL     OW22186  10.132   7.584   1.809  0.1285  0.4039 -0.2661
68065SOL    HW122187  10.111   7.584   1.716  0.9942  2.5330 -0.5159
68065SOL    HW222188  10.115   7.674   1.837  1.1091  0.1205  1.3454
68066SOL     OW22189  11.683  13.355  13.937  0.2474 -0.0435  0.1430
68066SOL    HW122190  11.599  13.350  13.984 -0.4816  3.1919 -0.5850
68066SOL    HW222191  11.663  13.321  13.850  0.5664 -2.1394  0.8102
68067SOL     OW22192   5.333   6.685  10.783 -0.1662  0.0277 -0.1789
68067SOL    HW122193   5.393   6.702  10.711 -0.6615 -2.4283 -1.2606
68067SOL    HW222194   5.290   6.602  10.761 -2.0224  0.3337  1.8347
68068SOL     OW22195   4.391   0.328  13.894  0.5272 -0.0645 -0.1399
68068SOL    HW122196   4.446   0.346  13.818  1.6596 -1.9683  0.1628
68068SOL    HW222197   4.321   0.392  13.889  1.6525  1.1194 -1.6900
68069SOL     OW22198  13.088   4.278   0.374  0.1462 -0.0138 -0.0824
68069SOL    HW122199  13.111   4.220   0.302 -0.2008  0.0950 -0.2865
68069SOL    HW222200  13.104   4.366   0.340 -1.7143  0.1422 -0.6896
68070SOL     OW22201  11.882   1.603   5.106 -0.4798 -0.0128 -0.1540
68070SOL    HW122202  11.854   1.531   5.050 -0.9191  0.6796 -0.8487
68070SOL    HW222203  11.952   1.566   5.160 -1.2841 -1.1900  0.1201
68071SOL     OW22204  11.758   7.209   4.044 -1.2274 -0.5045  0.0286
68071SOL    HW122205  11.773   7.218   3.950 -0.0614 -1.6867  0.0810
68071SOL    HW222206  11.773   7.117   4.062 -2.6169 -0.5354  1.1987
68072SOL     OW22207   6.027  10.317   6.034 -0.6139  0.3182 -0.1423
68072SOL    HW122208   5.951  10.285   5.985 -0.5580  0.4575 -0.3208
68072SOL    HW222209   6.027  10.266   6.114  0.3156 -1.1604 -1.0380
68073SOL     OW22210  12.029  11.611  13.502  0.2355  0.3713  0.1963
68073SOL    HW122211  12.083  11.662  13.562 -0.4216 -0.5544  1.6349
68073SOL    HW222212  11.967  11.565  13.559  0.1492 -1.2299 -1.1179
68074SOL     OW22213   2.941  10.519   3.264 -0.6286  0.1946  0.4554
68074SOL    HW122214   2.860  10.565   3.284 -0.4426  0.3642  0.8170
68074SOL    HW222215   2.979  10.567   3.190  0.6792  2.0072  2.1986
68075SOL     OW22216   1.635  10.867  10.444  0.7286 -0.7372 -0.0124
68075SOL    HW122217   1.648  10.781  10.483 -2.5743 -1.2197  0.2628
68075SOL    HW222218   1.645  10.852  10.350  1.2677 -1.1701  0.1094
68076SOL     OW22219   3.310   5.119   7.315  0.3984  0.5468  0.0142
68076SOL    HW122220   3.232   5.148   7.268  0.4955  1.0082  0.1330
68076SOL    HW222221   3.370   5.194   7.310  0.0195  1.0056  1.7626
68077SOL     OW22222   5.290   8.659  10.047  0.0982 -0.3817  0.3389
68077SOL    HW122223   5.263   8.729   9.988 -0.2736  0.0079  0.9691
68077SOL    HW222224   5.332   8.594   9.989 -1.3956 -0.6112 -0.5373
68078SOL     OW22225   1.467   4.568   1.201 -0.5248  0.4605  0.1516
68078SOL    HW122226   1.381   4.540   1.170  0.2682 -1.2857 -0.6317
68078SOL    HW222227   1.528   4.540   1.133  0.8415  0.2485  1.3910
68079SOL     OW22228   2.911   3.529  11.784 -0.1275  0.2102  0.0394
68079SOL    HW122229   2.861   3.603  11.748 -2.4390 -1.8333 -1.2349
68079SOL    HW222230   2.860   3.501  11.860  1.6494  0.9093  1.5480
68080SOL     OW22231   0.161  13.486   5.283  0.5510  0.5668  0.3018
68080SOL    HW122232   0.179  13.578   5.303 -0.1107  1.4923 -2.7319
68080SOL    HW222233   0.066  13.482   5.271  0.7495 -0.0439 -1.3377
68081SOL     OW22234   2.737   6.153  13.868  0.1050 -0.2661 -0.0876
68081SOL    HW122235   2.762   6.234  13.913  0.2819  0.4502 -1.4412
68081SOL    HW222236   2.649   6.172  13.833  0.4506 -0.3764 -1.0384
68082SOL     OW22237   1.544   0.234   2.930  0.4706  0.2588 -0.3153
68082SOL    HW122238   1.550   0.139   2.944 -2.4321  0.0493  0.2328
68082SOL    HW222239   1.475   0.244   2.864 -0.2372  2.0034  0.6229
68083SOL     OW22240   1.824   4.810   1.577  0.1037 -0.6850 -0.0827
68083SOL    HW122241   1.866   4.777   1.497 -1.9254  0.3452 -1.6788
68083SOL    HW222242   1.735   4.775   1.574 -0.5857  0.8760  0.7433
68084SOL     OW22243   2.175   9.347   1.583 -0.1389 -0.0465  0.0745
68084SOL    HW122244   2.196   9.261   1.619  0.6327  0.3539  0.6283
68084SOL    HW222245   2.186   9.407   1.657 -0.4279  0.5557 -0.3629
68085SOL     OW22246   0.964   9.739   8.422  0.1103  0.3589  0.7559
68085SOL    HW122247   0.948   9.649   8.393  1.5616  0.2325  0.2443
68085SOL    HW222248   1.025   9.730   8.495 -0.0780  0.9126  0.9889
68086SOL     OW22249  13.086   7.331   5.981  0.1944 -0.3223 -0.1467
68086SOL    HW122250  13.036   7.398   5.935 -0.8448 -0.3219  0.9212
68086SOL    HW222251  13.105   7.370   6.067  1.3626 -0.6330 -0.2409
68087SOL     OW22252   0.946  12.885   5.579  0.3596  0.5648  0.2552
68087SOL    HW122253   1.026  12.876   5.632 -0.4251 -1.0932  1.2203
68087SOL    HW222254   0.886  12.935   5.635 -0.0735 -0.2101  0.4984
68088SOL     OW22255  10.604   5.828   6.448 -0.1325  0.0800  0.4679
68088SOL    HW122256  10.618   5.857   6.538  0.9286 -1.1730  0.7217
68088SOL    HW222257  10.673   5.764   6.431 -1.1909 -0.7989 -0.7500
68089SOL     OW22258   0.138   7.079   3.680  0.3814  0.1868 -0.0900
68089SOL    HW122259   0.135   7.001   3.736 -0.1730  0.0610 -0.2903
68089SOL    HW222260   0.135   7.152   3.741  1.0446  0.0596  0.1083
68090SOL     OW22261   1.849   6.531   9.671  0.6036 -0.1779  0.7579
68090SOL    HW122262   1.814   6.444   9.691  2.4914 -1.5003 -1.2050
68090SOL    HW222263   1.830   6.544   9.578  0.9704  1.2236  0.8535
68091SOL     OW22264  11.245   8.079  10.990 -0.2461  0.1187  0.3092
68091SOL    HW122265  11.165   8.080  10.939 -0.0219 -1.1329 -0.0858
68091SOL    HW222266  11.300   8.013  10.948  0.9284  0.8222  0.6766
68092SOL     OW22267   5.343   8.562   5.428 -0.5906  0.0681  0.2273
68092SOL    HW122268   5.321   8.636   5.372  1.6227  0.9818  0.4575
68092SOL    HW222269   5.369   8.602   5.511 -1.6765 -1.1354  1.1816
68093SOL     OW22270   4.340  11.458  12.279  0.2739 -0.2961  0.0449
68093SOL    HW122271   4.372  11.494  12.196  1.4377 -0.5372  0.3697
68093SOL    HW222272   4.381  11.513  12.346 -2.1537  1.1434  0.4784
68094SOL     OW22273   7.725  12.308   6.221  0.4026  0.0667 -0.3041
68094SOL    HW122274   7.689  12.373   6.281  0.3567  0.0210 -0.2819
68094SOL    HW222275   7.819  12.312   6.235  0.3343 -0.6149  0.4770
68095SOL     OW22276   7.445   2.062   4.059  1.0278 -0.1044 -0.5289
68095SOL    HW122277   7.365   2.086   4.013 -0.7861  1.4530  3.0536
68095SOL    HW222278   7.423   1.982   4.107  2.3379 -0.8318 -1.0711
68096SOL     OW22279  12.655  11.481  14.070 -0.3192 -0.7542  0.2341
68096SOL    HW122280  12.676  11.555  14.013  0.5217 -0.0655  1.3909
68096SOL    HW222281  12.579  11.440  14.029  0.1801 -0.2183 -1.3014
68097SOL     OW22282   4.017   0.288  11.079  0.6563 -0.5768 -0.5926
68097SOL    HW122283   3.946   0.225  11.065  1.5566 -1.3835 -1.6787
68097SOL    HW222284   4.089   0.255  11.026  1.3405  1.0850 -0.7507
68098SOL     OW22285  13.135   1.249   4.801  0.2122 -0.0349 -0.0462
68098SOL    HW122286  13.152   1.172   4.747 -0.7887  0.5302 -1.2342
68098SOL    HW222287  13.142   1.217   4.891 -0.9163 -1.7118 -0.4925
68099SOL     OW22288   2.827   2.895   4.232 -0.0829  0.0983  0.2797
68099SOL    HW122289   2.857   2.913   4.143  0.0323  1.7248  0.6172
68099SOL    HW222290   2.733   2.882   4.223 -0.1929  1.0043  0.0027
68100SOL     OW22291   9.378   1.848   0.013 -0.3241 -0.3177  0.1640
68100SOL    HW122292   9.423   1.775   0.056  1.1240  0.5271  0.1117
68100SOL    HW222293   9.333   1.808  -0.061  1.8925 -0.9335 -0.9171
68101SOL     OW22294  11.065   1.836   0.706 -0.0838 -0.2412 -0.6310
68101SOL    HW122295  11.043   1.926   0.729 -0.0146 -0.1798 -0.7991
68101SOL    HW222296  10.990   1.785   0.736  0.4819 -0.3091  0.7012
68102SOL     OW22297   6.306   6.043   5.688  0.1880 -0.0576  0.1867
68102SOL    HW122298   6.232   6.048   5.628 -0.1228 -0.9868  0.4709
68102SOL    HW222299   6.322   5.949   5.698  2.2871  0.1084 -0.9349
68103SOL     OW22300  12.781   3.614   1.290  0.1547 -0.1109 -0.2759
68103SOL    HW122301  12.835   3.535   1.287 -0.9075 -0.9016  0.3832
68103SOL    HW222302  12.817   3.671   1.223  1.9806 -0.4749  0.3414
68104SOL     OW22303  11.341  13.826  11.786 -0.0098  0.4603 -0.3609
68104SOL    HW122304  11.398  13.749  11.782 -0.9038 -0.1809 -3.3002
68104SOL    HW222305  11.400  13.900  11.770  0.2935 -0.0676 -1.9238
68105SOL     OW22306   5.826  11.120   3.296  0.5226  0.9703  0.3483
68105SOL    HW122307   5.836  11.091   3.386 -0.0008 -0.6375 -0.0739
68105SOL    HW222308   5.731  11.130   3.285  0.3666 -1.1608 -0.6613
68106SOL     OW22309   3.056  13.871   5.575 -0.4335 -0.1024 -0.8833
68106SOL    HW122310   2.968  13.907   5.559 -0.7392 -0.3352  0.2128
68106SOL    HW222311   3.040  13.786   5.615  0.3013 -0.2121 -0.8078
68107SOL     OW22312  13.908  10.798   6.510  0.1302  0.1057  0.6255
68107SOL    HW122313  13.982  10.764   6.562  0.0235  0.1665  0.8198
68107SOL    HW222314  13.852  10.722   6.496  0.9178 -0.2529 -0.7266
68108SOL     OW22315   7.007   5.122   2.013  0.4999  0.1734  0.3409
68108SOL    HW122316   6.933   5.064   1.994  0.8063 -0.3823  0.8408
68108SOL    HW222317   7.067   5.110   1.939  0.7677 -0.4811  0.6641
68109SOL     OW22318   0.133  13.342   2.652  0.5329 -0.0020 -0.3662
68109SOL    HW122319   0.061  13.311   2.598  2.3790 -0.1201 -2.9517
68109SOL    HW222320   0.186  13.265   2.668  1.4814  0.5306 -0.8409
68110SOL     OW22321  12.727   4.897   4.571  0.1905  0.1084  0.3924
68110SOL    HW122322  12.664   4.969   4.570 -0.8522 -0.7715  0.4778
68110SOL    HW222323  12.809   4.937   4.541 -0.9547  0.8068 -2.1259
68111SOL     OW22324  12.848   6.152  12.216  0.4110  0.0785 -0.0930
68111SOL    HW122325  12.941   6.177  12.207  0.5310 -0.9146 -2.2911
68111SOL    HW222326  12.801   6.220  12.168  0.2788 -0.8659 -1.3600
68112SOL     OW22327   4.254   8.754  13.226  0.4052  0.1858  0.0506
68112SOL    HW122328   4.321   8.701  13.271  0.0500  1.3090  1.9968
68112SOL    HW222329   4.239   8.828  13.284  0.1919  1.9826 -2.1504
68113SOL     OW22330  13.753   5.800   6.799 -0.1833  0.6939 -0.0571
68113SOL    HW122331  13.682   5.835   6.853 -1.2767  0.1528 -1.1048
68113SOL    HW222332  13.823   5.780   6.862 -1.4746 -0.0703  1.2025
68114SOL     OW22333  12.468   8.370   0.574 -0.0588  0.7182 -0.1909
68114SOL    HW122334  12.466   8.457   0.533 -2.0748  0.4138 -0.8316
68114SOL    HW222335  12.413   8.379   0.651  0.4294  0.2093  0.2249
68115SOL     OW22336   3.400  13.845   4.488 -0.4009  0.1672 -0.1216
68115SOL    HW122337   3.416  13.751   4.500 -0.4299 -0.2847 -2.9125
68115SOL    HW222338   3.427  13.885   4.570 -1.1657 -2.3570  1.4673
68116SOL     OW22339   2.850   3.577   8.250 -0.1218  0.6217 -0.1968
68116SOL    HW122340   2.792   3.500   8.246 -0.1540  0.4205  2.2574
68116SOL    HW222341   2.823   3.622   8.330  1.2826  2.0808 -0.5058
68117SOL     OW22342   5.097   1.903  13.877 -0.0544 -0.8133 -0.1268
68117SOL    HW122343   5.085   1.937  13.788 -1.2034 -2.6194 -0.7113
68117SOL    HW222344   5.136   1.817  13.864  0.6803 -0.6982  1.1955
68118SOL     OW22345   0.197   9.252   3.847  0.3632  0.2683  0.4189
68118SOL    HW122346   0.238   9.168   3.828  0.6610  0.7051 -0.9914
68118SOL    HW222347   0.150   9.274   3.767 -1.7428  0.3234  1.5933
68119SOL     OW22348  10.772   0.190   1.535 -0.0424  0.2666 -0.4424
68119SOL    HW122349  10.681   0.161   1.545 -0.3406  1.0514 -0.8153
68119SOL    HW222350  10.809   0.184   1.624 -0.7042  0.7497 -0.1290
68120SOL     OW22351   7.242  13.834  14.077  0.1501 -0.5747  0.1944
68120SOL    HW122352   7.185  13.895  14.029  0.7087 -0.2158 -0.0333
68120SOL    HW222353   7.330  13.859  14.050  0.5498  0.2710  2.1567
68121SOL     OW22354  12.048   9.851   4.632  0.0287  0.0182 -0.4638
68121SOL    HW122355  12.128   9.902   4.624 -0.2102  0.7396  1.2045
68121SOL    HW222356  12.077   9.760   4.631  0.7273  0.2405 -1.0927
68122SOL     OW22357   8.702   1.079   2.069  0.2744  0.3122  0.3039
68122SOL    HW122358   8.787   1.036   2.079 -0.3937 -0.8348  1.4206
68122SOL    HW222359   8.714   1.140   1.996  1.9029 -0.1883  0.1132
68123SOL     OW22360  13.144   2.554   7.188 -0.5713  0.6809  0.4147
68123SOL    HW122361  13.102   2.526   7.106 -0.3716  2.2792 -0.2582
68123SOL    HW222362  13.165   2.472   7.233  0.6467 -0.3147 -1.8019
68124SOL     OW22363   8.488   1.662   4.114 -0.7875  0.0597  0.3173
68124SOL    HW122364   8.542   1.622   4.046 -1.7256 -2.6694  1.0484
68124SOL    HW222365   8.547   1.674   4.188 -0.5563 -0.3338  0.2006
68125SOL     OW22366  10.307   8.042   0.901  0.4794  0.0552 -0.2606
68125SOL    HW122367  10.354   8.095   0.838 -0.3529 -0.5786 -1.4568
68125SOL    HW222368  10.302   8.097   0.980 -0.6012  1.8809 -1.5312
68126SOL     OW22369   9.034   4.137   2.558  0.0224  0.2257  0.3882
68126SOL    HW122370   9.122   4.099   2.562  0.7213  1.8534  1.8311
68126SOL    HW222371   9.031   4.181   2.473  0.6259  0.1722  0.3314
68127SOL     OW22372   9.402   1.531   1.009 -0.2964 -0.0360  0.6579
68127SOL    HW122373   9.354   1.590   1.067 -1.6439  0.1141 -0.5467
68127SOL    HW222374   9.487   1.573   0.997 -0.0456  0.0290  2.3110
68128SOL     OW22375   9.617   4.625   1.994  0.4426  0.6254  0.1660
68128SOL    HW122376   9.605   4.649   1.902  1.1902  1.3353  0.2433
68128SOL    HW222377   9.566   4.544   2.004  0.4002  0.5041 -0.8816
68129SOL     OW22378   3.298   0.552   7.980  0.8266  0.0026  0.1858
68129SOL    HW122379   3.354   0.475   7.973  0.9290  0.1644 -1.1793
68129SOL    HW222380   3.209   0.517   7.975  0.8773 -0.0200 -0.7154
68130SOL     OW22381   1.431   1.622  13.896  0.2434 -0.0613 -0.1140
68130SOL    HW122382   1.374   1.571  13.839 -0.5173 -0.1894  0.7330
68130SOL    HW222383   1.400   1.712  13.886  0.5853  0.0215 -0.4481
68131SOL     OW22384   3.333   9.916  10.054  0.0909 -0.1744 -0.2641
68131SOL    HW122385   3.402   9.938   9.991  3.3000  0.8324  3.1967
68131SOL    HW222386   3.359   9.831  10.089 -0.7790 -0.0436  0.7382
68132SOL     OW22387   0.051   5.912   6.509 -0.0205  0.5005 -0.5326
68132SOL    HW122388   0.082   5.958   6.586 -0.7796  1.9481 -1.0579
68132SOL    HW222389  -0.044   5.919   6.512 -0.0717  0.4897 -1.5309
68133SOL     OW22390   8.871  10.055   7.788  0.0335  0.0198  0.1512
68133SOL    HW122391   8.812   9.986   7.758 -2.2391  1.8862  0.0607
68133SOL    HW222392   8.934  10.065   7.716 -0.4991 -0.9497 -0.4668
68134SOL     OW22393   7.855   0.933   0.857 -0.1935 -0.1203 -0.2808
68134SOL    HW122394   7.850   1.010   0.799  0.7174  0.1541 -0.0160
68134SOL    HW222395   7.854   0.858   0.797  5.0993  0.1620 -1.1923
68135SOL     OW22396   3.567   1.048  12.644  0.0227  0.1574  0.1327
68135SOL    HW122397   3.538   0.957  12.646  1.1785 -0.2118  0.8307
68135SOL    HW222398   3.489   1.098  12.668 -0.7203 -0.6097 -0.6294
68136SOL     OW22399   6.646   6.563  12.531 -0.0327  0.3025 -0.2768
68136SOL    HW122400   6.662   6.579  12.624 -0.2697  0.6262 -0.2905
68136SOL    HW222401   6.704   6.489  12.509 -0.1118  0.1035  0.1698
68137SOL     OW22402   6.810  11.092   1.765  0.4983  0.1057 -0.0233
68137SOL    HW122403   6.755  11.036   1.711  1.4019  0.0180 -0.8733
68137SOL    HW222404   6.748  11.142   1.819 -0.4915  0.8179 -1.7396
68138SOL     OW22405   7.605  12.500   7.904  0.2258  0.7152  0.1349
68138SOL    HW122406   7.584  12.417   7.946 -1.0727  0.6981 -0.4941
68138SOL    HW222407   7.633  12.557   7.975  2.3734 -0.6005  0.4233
68139SOL     OW22408   5.698   7.446   9.076 -0.7205  0.0177 -0.7266
68139SOL    HW122409   5.742   7.426   8.993 -1.0978 -1.6592 -0.5506
68139SOL    HW222410   5.614   7.482   9.051 -0.9297 -0.7040 -1.0935
68140SOL     OW22411   6.233   9.201   4.216 -0.0426  0.1667  0.3757
68140SOL    HW122412   6.208   9.203   4.123  0.5672 -2.8213  0.0364
68140SOL    HW222413   6.327   9.219   4.216 -0.2740  1.4365  0.5792
68141SOL     OW22414   1.187  12.149  12.845  0.2714  0.5907  0.0909
68141SOL    HW122415   1.180  12.099  12.926  1.2293  0.7638  0.2929
68141SOL    HW222416   1.234  12.091  12.785 -2.0511 -0.2951 -1.0050
68142SOL     OW22417   4.894   6.362  12.869 -0.1593 -0.5966 -0.5435
68142SOL    HW122418   4.825   6.297  12.883  0.9917 -2.1124 -1.5413
68142SOL    HW222419   4.976   6.313  12.883  0.7408  0.8487 -0.5484
68143SOL     OW22420   8.792   9.076   9.626 -0.8440  0.0123  0.2683
68143SOL    HW122421   8.743   9.034   9.697  0.4491  0.1285  1.2689
68143SOL    HW222422   8.849   9.007   9.592  0.3378  0.5518  1.0472
68144SOL     OW22423   9.427  11.965   4.552 -0.4852 -0.2567 -0.1551
68144SOL    HW122424   9.345  12.003   4.581 -1.5414 -0.5690 -2.4812
68144SOL    HW222425   9.475  11.945   4.632 -2.4345  0.4210  1.2379
68145SOL     OW22426   1.551   1.879   1.396  0.3866 -0.6374  0.0756
68145SOL    HW122427   1.466   1.891   1.437  0.5468 -1.6091  0.7387
68145SOL    HW222428   1.546   1.928   1.314 -0.2649  0.5768  0.8188
68146SOL     OW22429   8.762   9.511   5.594  0.6955  1.0392  0.2342
68146SOL    HW122430   8.703   9.586   5.590 -0.8084 -0.0833  0.5090
68146SOL    HW222431   8.827   9.527   5.525 -1.3054  1.1848 -1.7166
68147SOL     OW22432   5.767   5.577  10.716  0.2709  0.6516  0.4896
68147SOL    HW122433   5.672   5.589  10.715  0.3603  1.5767 -1.3057
68147SOL    HW222434   5.785   5.523  10.639  1.2657  1.1676  0.3498
68148SOL     OW22435   7.613   2.045  10.529  0.4073 -0.1232  0.1612
68148SOL    HW122436   7.567   1.972  10.487  0.4749  0.8451 -1.6822
68148SOL    HW222437   7.610   2.024  10.622  1.3718 -3.0293 -0.3590
68149SOL     OW22438  10.594   7.991   2.318  0.1926  0.2234  0.1716
68149SOL    HW122439  10.592   8.027   2.407 -1.5221 -1.4000  0.8509
68149SOL    HW222440  10.541   7.912   2.323  0.8841 -0.4550 -2.0929
68150SOL     OW22441   3.031   1.456   3.311 -0.2405  0.0980 -0.2903
68150SOL    HW122442   3.016   1.550   3.298 -1.2559 -0.1501 -1.0519
68150SOL    HW222443   3.019   1.443   3.405  0.6479  0.8397 -0.0551
68151SOL     OW22444   5.778   9.951  14.124 -0.2790 -0.1231  0.0621
68151SOL    HW122445   5.852   9.916  14.172  2.0148  0.6196 -2.6312
68151SOL    HW222446   5.787  10.046  14.131 -1.1379 -0.0303 -0.0337
68152SOL     OW22447  11.791  11.216   1.762  0.1166 -0.1130  0.3348
68152SOL    HW122448  11.868  11.247   1.714 -0.8604 -0.8285 -1.8206
68152SOL    HW222449  11.733  11.292   1.764 -0.3228 -0.4025 -0.7201
68153SOL     OW22450   4.536   4.518   0.027  0.1557 -0.5915  0.4207
68153SOL    HW122451   4.600   4.579  -0.009 -0.2991  0.3014  1.0882
68153SOL    HW222452   4.487   4.569   0.091  1.0879 -2.1597  2.5207
68154SOL     OW22453  12.530  12.272   5.249  0.0589 -0.2352 -0.6122
68154SOL    HW122454  12.550  12.193   5.199 -0.1474  0.2437 -1.4823
68154SOL    HW222455  12.457  12.312   5.201  0.0211  0.3704 -0.0589
68155SOL     OW22456   6.665  13.929   7.616 -0.4451 -0.3912 -0.6880
68155SOL    HW122457   6.722  13.962   7.546 -1.5114  1.4650 -0.7543
68155SOL    HW222458   6.705  13.962   7.696 -1.7381  1.5999 -0.7790
68156SOL     OW22459   3.231   1.502  10.402  0.5829  0.6606 -0.0248
68156SOL    HW122460   3.274   1.432  10.450 -1.7467 -0.0071  1.2400
68156SOL    HW222461   3.204   1.461  10.319  0.5290  0.4824  0.0802
68157SOL     OW22462   3.968   0.449   7.289 -0.2242 -0.2491 -0.3312
68157SOL    HW122463   3.957   0.402   7.372  1.2587  0.0104  0.0406
68157SOL    HW222464   3.908   0.405   7.229 -1.4660 -0.3288  0.8987
68158SOL     OW22465   2.058  12.195   1.844 -0.2310 -0.6183  0.5192
68158SOL    HW122466   1.980  12.250   1.837  2.0108  2.9439  0.8850
68158SOL    HW222467   2.115  12.227   1.774  2.1002 -0.8663  2.2107
68159SOL     OW22468   2.706   7.781   9.644 -0.1795  0.0081  0.4192
68159SOL    HW122469   2.795   7.755   9.665 -0.0583  0.0023 -0.0790
68159SOL    HW222470   2.651   7.717   9.688  0.0955 -0.5882 -0.0933
68160SOL     OW22471  10.298   6.062   6.902 -0.4056 -0.1449  0.0196
68160SOL    HW122472  10.353   6.088   6.829  0.3057 -0.4593  0.4326
68160SOL    HW222473  10.330   6.114   6.976 -0.9858  0.0231  0.1572
68161SOL     OW22474   2.548   3.820   4.114 -0.5155 -0.5737 -0.5662
68161SOL    HW122475   2.640   3.802   4.131 -1.2290 -2.2603  2.0785
68161SOL    HW222476   2.531   3.904   4.157 -0.6960 -1.4542  1.1885
68162SOL     OW22477   0.666   0.585   3.469  0.2129 -0.0804  0.0948
68162SOL    HW122478   0.585   0.625   3.501  0.8545  0.0594  1.6661
68162SOL    HW222479   0.712   0.656   3.425  0.5785  0.5202  1.3847
68163SOL     OW22480   8.631  10.975  12.803  0.7032 -0.3523 -0.0932
68163SOL    HW122481   8.615  10.896  12.855 -1.2152 -0.0512 -0.1452
68163SOL    HW222482   8.639  11.045  12.869 -0.4713 -0.1693 -0.1213
68164SOL     OW22483  12.958  10.134  12.007 -0.0181 -0.1862  0.0696
68164SOL    HW122484  12.922  10.047  12.026  3.4333 -1.6419  0.7803
68164SOL    HW222485  12.992  10.165  12.091  0.1252  1.1937 -0.4716
68165SOL     OW22486   6.660  11.097   3.048  0.4624  0.1957  0.2668
68165SOL    HW122487   6.733  11.150   3.078 -1.2804  1.1438  3.3049
68165SOL    HW222488   6.691  11.007   3.054  1.5823  0.6120  0.8764
68166SOL     OW22489  13.696   0.047   7.641 -0.4252  0.4126  0.0223
68166SOL    HW122490  13.633   0.020   7.707  0.2339 -0.6660  0.2407
68166SOL    HW222491  13.741   0.122   7.680 -1.8770  1.4962 -0.3392
68167SOL     OW22492   3.283   9.090   0.638  0.0044 -0.1239  0.1423
68167SOL    HW122493   3.201   9.096   0.590  0.7110 -0.4020 -1.1637
68167SOL    HW222494   3.257   9.081   0.730 -1.3770  1.3721 -0.0556
68168SOL     OW22495  10.195  12.625  13.268 -0.3666  0.7716  0.5213
68168SOL    HW122496  10.139  12.559  13.309 -0.4692  0.5749  0.0779
68168SOL    HW222497  10.139  12.703  13.263 -0.7773  0.4360 -0.3590
68169SOL     OW22498   8.604   2.669   1.778 -0.1449  0.0265 -0.2346
68169SOL    HW122499   8.613   2.760   1.804 -1.5098  0.7231 -1.9925
68169SOL    HW222500   8.668   2.657   1.709 -1.1958  0.2329 -1.2843
68170SOL     OW22501   7.310   4.148   6.099  0.4191 -0.1753 -0.2587
68170SOL    HW122502   7.295   4.230   6.051 -0.0108  0.1883  0.4970
68170SOL    HW222503   7.293   4.080   6.034  0.9200  0.3271 -0.9371
68171SOL     OW22504   9.551  11.126  14.023 -0.4672 -0.1970 -0.0745
68171SOL    HW122505   9.645  11.143  14.020 -0.3785 -0.5644  0.4372
68171SOL    HW222506   9.531  11.118  14.116 -1.3255  1.5441 -0.0861
68172SOL     OW22507   2.426   3.125   9.356 -0.6168  0.4326 -0.6278
68172SOL    HW122508   2.397   3.170   9.435  0.1928 -0.4896  0.2235
68172SOL    HW222509   2.521   3.133   9.357 -0.4920 -0.7971 -0.7457
68173SOL     OW22510   2.781   7.434   2.315  0.1916  0.3338 -0.1646
68173SOL    HW122511   2.696   7.398   2.293 -0.2855  1.1889  0.2498
68173SOL    HW222512   2.782   7.437   2.411  0.5968  0.5505 -0.1723
68174SOL     OW22513   2.906   0.085  12.096  0.4863 -0.0428  0.0856
68174SOL    HW122514   2.843   0.066  12.027  0.7028 -2.6212  0.4810
68174SOL    HW222515   2.928  -0.001  12.132  0.8076  1.1582  3.0041
68175SOL     OW22516  10.608   4.414   4.265  0.2587  0.0233  0.3211
68175SOL    HW122517  10.540   4.376   4.210  1.4283  0.7782 -1.7594
68175SOL    HW222518  10.657   4.472   4.207  1.8106  0.5963  2.0834
68176SOL     OW22519   7.981   9.068   8.701 -0.6425 -0.0186 -0.2586
68176SOL    HW122520   8.029   9.036   8.777 -2.2667 -0.1585  0.7464
68176SOL    HW222521   7.964   8.989   8.649  0.4868  0.0811 -0.8215
68177SOL     OW22522  12.850   2.783  11.625 -0.4691 -0.3956  0.0399
68177SOL    HW122523  12.798   2.751  11.698 -0.5263 -1.4332 -0.4352
68177SOL    HW222524  12.816   2.737  11.549 -0.2136  0.4481 -0.5976
68178SOL     OW22525   6.354  10.932   3.183  0.0914 -0.0077 -0.3329
68178SOL    HW122526   6.348  10.871   3.109 -0.3105 -1.0995  0.5650
68178SOL    HW222527   6.446  10.931   3.208  0.4509  1.2324 -1.4942
68179SOL     OW22528  11.129  13.430   9.862  0.3932  0.1457 -0.4679
68179SOL    HW122529  11.134  13.525   9.858 -1.0264  0.4410  2.2958
68179SOL    HW222530  11.196  13.405   9.925 -1.4577 -0.2650  1.4542
68180SOL     OW22531  12.266   1.236   4.762 -0.0001 -0.3215 -0.0236
68180SOL    HW122532  12.288   1.160   4.815  0.1417 -0.8405 -0.8100
68180SOL    HW222533  12.344   1.291   4.764  0.3086 -0.7436 -0.3837
68181SOL     OW22534   1.203   2.673   2.687  0.1164  0.1313 -0.0818
68181SOL    HW122535   1.114   2.702   2.667 -0.3710  0.2614  2.0768
68181SOL    HW222536   1.250   2.684   2.604 -2.1158 -1.0755 -1.6140
68182SOL     OW22537  13.607   2.070   0.366 -0.1154  0.4420 -0.0074
68182SOL    HW122538  13.643   1.991   0.326  1.0428  1.5991 -1.3632
68182SOL    HW222539  13.654   2.079   0.449 -0.6362 -0.5448  0.4150
68183SOL     OW22540  12.064   1.981   8.668  0.0417 -0.3379 -0.2545
68183SOL    HW122541  12.158   1.983   8.647  0.1972 -1.0466  0.3316
68183SOL    HW222542  12.061   1.969   8.763 -0.6457  0.0603 -0.2209
68184SOL     OW22543   1.542   3.711   9.509 -0.6289  0.1735 -0.2653
68184SOL    HW122544   1.542   3.666   9.594 -0.5396  0.7962  0.0680
68184SOL    HW222545   1.603   3.659   9.456  0.3351  0.5215  0.4568
68185SOL     OW22546  12.479  11.346  13.176  0.2094  0.7617  0.0310
68185SOL    HW122547  12.419  11.344  13.250  0.6641  1.7154  0.4489
68185SOL    HW222548  12.436  11.295  13.108  0.5545 -1.6663  1.5134
68186SOL     OW22549   1.398  12.066   2.776 -0.4825 -0.0971 -0.1627
68186SOL    HW122550   1.419  12.082   2.868 -3.2214 -0.1445  0.5715
68186SOL    HW222551   1.460  11.998   2.749 -0.0482 -0.5899  1.8720
68187SOL     OW22552   3.436  13.240   5.659  0.0394  0.7464 -0.9519
68187SOL    HW122553   3.384  13.304   5.611 -0.8341  2.0948  1.6068
68187SOL    HW222554   3.385  13.222   5.738  1.1120 -1.7911 -0.7314
68188SOL     OW22555   5.102   8.863   5.498  0.2329 -0.1903  0.1870
68188SOL    HW122556   5.027   8.846   5.441  0.7273 -0.5813 -0.3606
68188SOL    HW222557   5.080   8.945   5.543 -1.0339 -0.8835  0.9039
68189SOL     OW22558  12.584  10.916   6.666  0.6882 -0.2672 -0.1045
68189SOL    HW122559  12.561  10.967   6.744 -0.7278 -1.3253  0.1991
68189SOL    HW222560  12.551  10.828   6.684  2.3273 -1.1122 -0.9735
68190SOL     OW22561   5.750  11.096  13.668  0.7472 -0.3515 -0.3712
68190SOL    HW122562   5.673  11.146  13.641  1.7185  0.8832 -0.9151
68190SOL    HW222563   5.737  11.081  13.762  0.2137  0.5300 -0.2940
68191SOL     OW22564  12.738   5.607   0.025 -0.3327 -0.3286 -0.4325
68191SOL    HW122565  12.742   5.538   0.091  0.9803  1.0004  0.9647
68191SOL    HW222566  12.675   5.670   0.060 -0.4235 -0.1042 -0.9899
68192SOL     OW22567   8.344   4.090  12.312  0.1692  0.0341 -0.2185
68192SOL    HW122568   8.406   4.158  12.337  0.6191  0.1554 -1.5880
68192SOL    HW222569   8.263   4.114  12.356  0.8495  0.3472  0.9016
68193SOL     OW22570   8.928   5.990   4.419  0.0445  0.2516 -0.3727
68193SOL    HW122571   8.895   5.932   4.350 -0.2632 -1.1115  0.8677
68193SOL    HW222572   8.853   6.002   4.477  0.3308  1.2909 -0.2081
68194SOL     OW22573   3.552   5.207   3.561 -0.6728  0.3511 -0.1268
68194SOL    HW122574   3.562   5.119   3.525 -2.6012  0.5137 -1.1547
68194SOL    HW222575   3.582   5.265   3.492 -0.7622  0.5611  0.0097
68195SOL     OW22576   5.351  11.214  10.359 -0.4799  0.2481 -0.3548
68195SOL    HW122577   5.318  11.124  10.350  0.0014  0.1182 -0.9114
68195SOL    HW222578   5.284  11.269  10.318  0.4985 -0.1157 -2.5862
68196SOL     OW22579   9.861   4.423   1.465  0.5236 -0.3907 -0.3005
68196SOL    HW122580   9.916   4.420   1.543  0.3604  0.0824 -0.1675
68196SOL    HW222581   9.899   4.492   1.411  2.6094 -2.7573 -2.1396
68197SOL     OW22582   8.704  13.663  11.940  0.6629  0.4264 -0.0604
68197SOL    HW122583   8.781  13.636  11.890  0.2104 -0.6516 -0.1954
68197SOL    HW222584   8.710  13.614  12.022 -1.2221 -1.7462 -1.1179
68198SOL     OW22585   1.256   9.697   3.601 -0.2164  0.5224 -0.2658
68198SOL    HW122586   1.206   9.779   3.596  0.7977  1.2372  0.9218
68198SOL    HW222587   1.249   9.660   3.513  0.8922  2.8531 -1.4320
68199SOL     OW22588  13.319   5.028  13.776 -0.0470 -0.3745  0.6498
68199SOL    HW122589  13.352   5.116  13.789 -0.4313  0.0156 -0.8180
68199SOL    HW222590  13.336   4.983  13.859  0.9356  0.8151  1.1221
68200SOL     OW22591   2.164  11.254   8.237 -0.3099  0.0799 -0.0004
68200SOL    HW122592   2.145  11.300   8.318 -1.6640  1.8089 -1.2188
68200SOL    HW222593   2.229  11.310   8.193  2.6232 -2.2540  1.0282
68201SOL     OW22594   2.662   6.754   1.185 -0.1047 -0.1803  0.2543
68201SOL    HW122595   2.650   6.659   1.194 -2.9479 -0.0162 -0.5533
68201SOL    HW222596   2.737   6.763   1.126 -1.0935 -2.0742 -1.4567
68202SOL     OW22597   1.437  11.363   1.159 -0.4826  0.1335 -0.3558
68202SOL    HW122598   1.361  11.325   1.116 -0.9783  0.3817  0.2864
68202SOL    HW222599   1.483  11.288   1.198  0.2536 -0.1568 -1.7188
68203SOL     OW22600  10.868   1.281   3.606 -0.7969 -0.0266  0.0843
68203SOL    HW122601  10.871   1.356   3.665  1.7384 -0.3974  0.5819
68203SOL    HW222602  10.864   1.318   3.518 -1.2469  0.6439  0.3906
68204SOL     OW22603   0.837  14.120   5.629 -0.4107 -0.0847  0.2411
68204SOL    HW122604   0.751  14.080   5.641 -1.7541  1.8686 -1.9573
68204SOL    HW222605   0.834  14.200   5.682 -0.6026  0.7966 -1.0544
68205SOL     OW22606   0.039  13.175   4.759  0.9008 -0.0039 -0.4424
68205SOL    HW122607  -0.045  13.173   4.713  0.0477 -1.0133  1.0595
68205SOL    HW222608   0.072  13.263   4.745 -1.9535  1.5428  1.5152
68206SOL     OW22609   8.158   6.853   8.303  0.0535  0.5579 -0.3521
68206SOL    HW122610   8.216   6.928   8.287 -0.2675  0.5926 -1.3718
68206SOL    HW222611   8.092   6.859   8.235 -0.5834 -0.0648  0.1970
68207SOL     OW22612   5.276   5.488  10.133 -0.9176  0.1563 -0.2547
68207SOL    HW122613   5.201   5.450  10.087  0.2193 -0.8661 -1.3477
68207SOL    HW222614   5.246   5.575  10.160 -2.4423 -0.1707 -0.7810
68208SOL     OW22615  11.725   7.273   5.028 -0.3212 -0.1545 -0.0745
68208SOL    HW122616  11.698   7.220   4.952 -1.1931 -0.4869  0.4472
68208SOL    HW222617  11.773   7.212   5.083  0.5133  0.1461 -0.4560
68209SOL     OW22618   3.530   4.855   0.797  0.6922  0.1870  0.2141
68209SOL    HW122619   3.572   4.874   0.713  1.1766 -1.4966  0.0389
68209SOL    HW222620   3.530   4.759   0.802 -0.0280  0.2498  1.7916
68210SOL     OW22621  14.113  10.882   3.223 -0.3513 -0.1348 -0.1062
68210SOL    HW122622  14.099  10.798   3.266  0.1685 -0.4261 -0.4896
68210SOL    HW222623  14.090  10.947   3.289 -0.1007 -0.5744  0.4263
68211SOL     OW22624  12.584  11.017  10.633  0.1528  0.0458 -0.2301
68211SOL    HW122625  12.569  11.082  10.702 -0.6551 -0.1502 -0.2178
68211SOL    HW222626  12.666  11.045  10.592  0.2077  0.6388  0.2690
68212SOL     OW22627   1.981  12.780   6.707 -0.1411  0.2680 -0.0740
68212SOL    HW122628   2.002  12.823   6.790  0.3165  0.6949 -0.4011
68212SOL    HW222629   1.891  12.806   6.688 -0.8020 -1.0687  1.0369
68213SOL     OW22630  11.719   4.461   8.709  0.2970 -0.2621  0.0747
68213SOL    HW122631  11.797   4.408   8.691  0.5574 -0.0771  0.6313
68213SOL    HW222632  11.728   4.537   8.652  1.1615  0.3622  0.9963
68214SOL     OW22633   4.984   0.362   0.638 -0.2644 -0.2516 -0.0084
68214SOL    HW122634   4.926   0.292   0.609  0.0309 -0.9433  1.0161
68214SOL    HW222635   5.039   0.381   0.562  0.8153 -2.3401  0.1800
68215SOL     OW22636  11.013   8.926   4.293 -0.1174  0.2234 -0.0901
68215SOL    HW122637  11.039   8.858   4.231 -0.6803  1.2502 -1.5002
68215SOL    HW222638  11.051   9.006   4.259 -1.9970  1.1319 -0.1867
68216SOL     OW22639   3.451   4.462   5.558  0.0339 -0.3283 -0.3810
68216SOL    HW122640   3.513   4.482   5.629  1.1287 -0.0612 -1.3775
68216SOL    HW222641   3.498   4.398   5.504  0.2361  1.3088 -2.2205
68217SOL     OW22642   8.724   1.113  11.688 -0.0281 -0.1494 -0.0004
68217SOL    HW122643   8.684   1.058  11.621  1.9043 -0.6163 -0.8455
68217SOL    HW222644   8.813   1.129  11.656  0.7161  0.2567  2.0996
68218SOL     OW22645  12.362  10.687  10.008 -0.1641  0.2113  0.5019
68218SOL    HW122646  12.335  10.600  10.038 -0.5845  0.7261  1.7071
68218SOL    HW222647  12.411  10.723  10.083 -1.5913  1.7203  0.7637
68219SOL     OW22648  13.529  13.830  10.879 -0.2178  0.3460 -0.0872
68219SOL    HW122649  13.438  13.852  10.898 -0.8260 -0.6726 -1.6861
68219SOL    HW222650  13.524  13.755  10.820  1.5731  1.7677 -2.1908
68220SOL     OW22651   8.502  13.080  11.264  0.5357 -0.1479  0.0463
68220SOL    HW122652   8.553  13.159  11.246  0.5467  0.1026  1.0952
68220SOL    HW222653   8.567  13.011  11.273  0.5525 -0.2046 -0.4982
68221SOL     OW22654  12.872   7.212  12.069 -0.3588 -0.2766 -0.0581
68221SOL    HW122655  12.908   7.124  12.061  0.5643  0.0859  0.0638
68221SOL    HW222656  12.835   7.215  12.157 -0.6870 -0.6361 -0.1768
68222SOL     OW22657   4.859  12.077  10.837  0.4038  0.0355  0.0871
68222SOL    HW122658   4.867  12.005  10.774 -1.3916  1.0293 -1.4160
68222SOL    HW222659   4.794  12.046  10.901 -0.4374  0.3051 -0.6106
68223SOL     OW22660   2.512   6.723   9.479 -0.1126  0.6574  0.0255
68223SOL    HW122661   2.465   6.800   9.447 -0.9969 -0.0887 -0.4817
68223SOL    HW222662   2.446   6.655   9.486  0.8304 -0.3377 -0.4450
68224SOL     OW22663   0.732  13.643   0.104  0.4744  0.7701  0.0220
68224SOL    HW122664   0.718  13.736   0.084 -1.8478  0.1829 -1.4158
68224SOL    HW222665   0.827  13.636   0.117  0.9352  3.0384 -1.4506
68225SOL     OW22666   0.371   8.446  12.557 -0.1493  0.3028 -0.3947
68225SOL    HW122667   0.361   8.460  12.652 -1.9652  0.3575 -0.5688
68225SOL    HW222668   0.464   8.427  12.546  0.2411  1.0221  1.3092
68226SOL     OW22669   0.509  12.726  10.309 -0.5910 -0.1091  0.3326
68226SOL    HW122670   0.582  12.773  10.350 -1.3352 -0.5303  2.2920
68226SOL    HW222671   0.508  12.756  10.219  2.7846 -1.0205 -0.1365
68227SOL     OW22672   8.897   3.139  13.444 -0.1750  0.0586 -0.2753
68227SOL    HW122673   8.906   3.103  13.532 -2.2328  1.7400  0.7249
68227SOL    HW222674   8.957   3.214  13.443 -0.4089  0.2482 -0.1744
68228SOL     OW22675   1.073   6.714   2.330 -0.5962  0.0881  0.2327
68228SOL    HW122676   1.065   6.805   2.302  1.0576  0.5083  0.9965
68228SOL    HW222677   1.146   6.680   2.277 -0.1821 -0.3221  1.0502
68229SOL     OW22678   7.333  13.100   3.176  0.2630  0.6164  0.1704
68229SOL    HW122679   7.340  13.189   3.142 -2.3835  1.6520  1.9656
68229SOL    HW222680   7.269  13.058   3.119  0.7088  0.2011 -0.0286
68230SOL     OW22681  13.677   9.361   9.691 -0.0613 -0.1876 -0.6191
68230SOL    HW122682  13.735   9.389   9.762 -0.1735 -2.6017  0.4934
68230SOL    HW222683  13.589   9.365   9.728 -0.1919 -0.7394 -0.8539
68231SOL     OW22684   6.070  13.410  13.584  0.6892 -0.3745 -0.2130
68231SOL    HW122685   6.064  13.328  13.535 -0.5063 -0.4096 -0.0429
68231SOL    HW222686   5.995  13.409  13.643  0.7269  0.7751 -0.1080
68232SOL     OW22687   4.251   4.963  11.865  0.6427 -0.1506  0.0229
68232SOL    HW122688   4.171   4.961  11.812  1.7708 -1.1300 -1.7178
68232SOL    HW222689   4.233   4.902  11.936 -0.5422  0.4703  0.2986
68233SOL     OW22690   8.020   7.700   7.332 -0.4258 -0.0107 -0.6607
68233SOL    HW122691   8.059   7.662   7.253  0.7597 -0.9158  0.3201
68233SOL    HW222692   8.057   7.788   7.338  0.9715 -0.6067 -0.1258
68234SOL     OW22693   5.511  10.093   9.791 -0.4084 -0.4248 -0.3248
68234SOL    HW122694   5.495  10.178   9.832  1.8038  0.8579 -1.9063
68234SOL    HW222695   5.439  10.081   9.729 -0.0482  0.9688 -1.0377
68235SOL     OW22696   2.956   2.083   4.214  0.1643 -0.6037  0.0808
68235SOL    HW122697   2.939   2.056   4.124  1.3722 -1.5574  0.1154
68235SOL    HW222698   3.026   2.025   4.244  1.0572  0.9077  1.0320
68236SOL     OW22699   8.958   2.532  13.919 -0.2998 -0.1198  0.4579
68236SOL    HW122700   8.928   2.459  13.973 -0.1740 -1.7701 -1.5625
68236SOL    HW222701   8.924   2.610  13.962 -1.6695 -1.4662  1.9214
68237SOL     OW22702   6.143  11.179   3.788 -0.1328 -0.1681 -0.6484
68237SOL    HW122703   6.118  11.268   3.766 -0.6860 -0.0371  0.4203
68237SOL    HW222704   6.183  11.186   3.875 -1.7757 -1.1594  0.2485
68238SOL     OW22705   8.378  13.898  11.771 -0.2744  0.4269 -0.3352
68238SOL    HW122706   8.286  13.923  11.773 -1.2381 -2.6508 -0.6439
68238SOL    HW222707   8.409  13.926  11.684 -0.9128  1.4192 -0.2546
68239SOL     OW22708  11.370   0.293   1.465  0.0519  0.4427  0.6902
68239SOL    HW122709  11.398   0.235   1.394  0.0566 -1.3655  2.1106
68239SOL    HW222710  11.388   0.381   1.431 -0.0874 -0.3311 -1.5952
68240SOL     OW22711   3.404   2.251   3.390 -0.0452 -0.7606  0.4663
68240SOL    HW122712   3.353   2.199   3.452 -2.2924  0.6479 -0.0929
68240SOL    HW222713   3.408   2.198   3.311  1.0726 -1.6904  1.1113
68241SOL     OW22714  13.987   7.021  12.480  0.0735  0.4861 -0.6578
68241SOL    HW122715  14.073   6.979  12.480 -0.5950 -0.9774  0.9103
68241SOL    HW222716  13.997   7.095  12.540  0.4817  0.9032 -1.2286
68242SOL     OW22717  10.244  11.043   9.708 -0.6777  0.0406 -0.3683
68242SOL    HW122718  10.245  10.953   9.677 -0.4041  0.1880 -0.7897
68242SOL    HW222719  10.165  11.081   9.670 -0.4802  0.1474 -0.6695
68243SOL     OW22720   1.361  12.506   2.893  0.7043  0.2386 -0.5203
68243SOL    HW122721   1.334  12.582   2.945 -1.1763 -1.2596  0.8351
68243SOL    HW222722   1.330  12.526   2.804  2.0203  1.8729 -0.6792
68244SOL     OW22723   9.942  13.754  13.011 -0.1253  0.0128 -0.6656
68244SOL    HW122724   9.848  13.740  13.020  0.2015 -1.4504  1.1270
68244SOL    HW222725   9.971  13.686  12.951  0.1697 -1.5406  1.1429
68245SOL     OW22726   8.181   7.196   9.892  0.3925  0.1777 -0.2618
68245SOL    HW122727   8.137   7.116   9.862 -2.2069  1.1132  0.7689
68245SOL    HW222728   8.228   7.227   9.815 -1.3535 -0.5487 -1.7059
68246SOL     OW22729   0.139   3.670   3.431 -0.2270  0.4049 -0.3136
68246SOL    HW122730   0.125   3.765   3.435 -1.2315  0.2676 -0.1412
68246SOL    HW222731   0.051   3.633   3.442  0.2574 -0.5637  0.4237
68247SOL     OW22732   9.724   2.411   8.431 -0.2715 -0.3924  0.5817
68247SOL    HW122733   9.635   2.376   8.427 -1.3408  2.1688 -0.9771
68247SOL    HW222734   9.760   2.377   8.513 -2.4123 -2.0924  0.8900
68248SOL     OW22735   5.902   9.300   0.054  0.1013 -0.4735  0.1230
68248SOL    HW122736   5.939   9.353  -0.017  1.1453 -0.7545  0.4448
68248SOL    HW222737   5.809   9.291   0.031  0.1756  0.4122 -0.5973
68249SOL     OW22738   9.597   8.842   3.714  0.4669  0.0075 -0.1497
68249SOL    HW122739   9.618   8.787   3.790  0.9039  1.6740  1.0107
68249SOL    HW222740   9.595   8.782   3.640  0.8936 -1.5525  1.0539
68250SOL     OW22741   1.905  13.668   0.293 -0.3059 -0.0969 -0.0375
68250SOL    HW122742   1.860  13.711   0.365  0.2324 -0.0536  0.2797
68250SOL    HW222743   1.971  13.731   0.265 -0.0565 -0.3829 -0.1095
68251SOL     OW22744   2.292  10.029   9.824 -0.6909  0.1134 -0.3737
68251SOL    HW122745   2.374  10.077   9.812 -0.0204 -0.7949  0.4314
68251SOL    HW222746   2.265  10.048   9.913 -2.7644  2.4652 -1.3949
68252SOL     OW22747   1.387  12.817   5.079 -0.3344  0.0181 -0.5049
68252SOL    HW122748   1.480  12.794   5.076 -0.3477 -0.0727 -0.2601
68252SOL    HW222749   1.379  12.895   5.024  0.2767  1.3752  1.2243
68253SOL     OW22750   9.866   2.277  12.841 -0.4570 -0.0028 -0.2962
68253SOL    HW122751   9.876   2.354  12.895  0.0869  2.1751 -3.2467
68253SOL    HW222752   9.918   2.209  12.885  0.2222  1.7123  1.6686
68254SOL     OW22753   5.734   3.383  10.978  0.0090 -0.5788  0.1454
68254SOL    HW122754   5.699   3.383  11.068 -0.9542 -2.5037 -0.1793
68254SOL    HW222755   5.658   3.400  10.923  0.0842 -2.0259 -0.4281
68255SOL     OW22756   2.164  11.747  11.487  0.1573  0.0167  0.2590
68255SOL    HW122757   2.119  11.743  11.571  1.7080 -1.0135  1.0766
68255SOL    HW222758   2.144  11.663  11.445 -1.8798  1.1012 -1.1536
68256SOL     OW22759  10.687  12.933  12.965 -0.4650 -0.8534  0.1922
68256SOL    HW122760  10.594  12.944  12.946 -0.2244 -1.3523 -1.3919
68256SOL    HW222761  10.726  13.018  12.944 -0.2819 -1.2439 -1.1380
68257SOL     OW22762   6.488  12.476   9.158  0.6356 -0.6689  0.5394
68257SOL    HW122763   6.494  12.540   9.087 -0.9988  0.8914  1.7207
68257SOL    HW222764   6.497  12.391   9.114 -0.1856  0.2344 -1.5165
68258SOL     OW22765  13.531   4.414   8.120  0.3148  0.4849 -0.1776
68258SOL    HW122766  13.572   4.351   8.179  0.9707  0.7452 -0.3486
68258SOL    HW222767  13.500   4.361   8.046 -0.9680  0.0801  0.6008
68259SOL     OW22768   9.455   5.447  11.927 -0.1264  0.0640 -0.0011
68259SOL    HW122769   9.434   5.394  11.850 -0.8454  1.9370 -1.1656
68259SOL    HW222770   9.467   5.383  11.998 -0.2831 -1.6608 -1.4584
68260SOL     OW22771   2.466   2.708  14.090  0.3068  0.0772  0.2631
68260SOL    HW122772   2.505   2.667  14.013  0.5665  2.1049 -0.7411
68260SOL    HW222773   2.540   2.749  14.135  0.1738 -1.1196  1.6944
68261SOL     OW22774   1.216  12.214   7.702 -0.0085  0.4198 -0.0302
68261SOL    HW122775   1.146  12.195   7.764  1.0817 -0.0571  1.1018
68261SOL    HW222776   1.185  12.290   7.652 -1.3204  0.2045  0.4274
68262SOL     OW22777   5.020   6.731   7.703 -0.2892 -0.1607  0.3383
68262SOL    HW122778   5.051   6.695   7.620 -0.0788  2.8349 -0.9887
68262SOL    HW222779   5.072   6.685   7.769  0.5807 -1.5997 -1.2659
68263SOL     OW22780   8.362   3.570  10.186 -0.6636  0.6325  0.0779
68263SOL    HW122781   8.295   3.529  10.241 -1.0829 -1.9436 -2.1139
68263SOL    HW222782   8.441   3.518  10.202 -0.3209  0.9840 -0.4215
68264SOL     OW22783  13.475   1.315   8.168  0.3112  0.4148 -0.2163
68264SOL    HW122784  13.413   1.327   8.240 -0.9612  0.5444 -1.3118
68264SOL    HW222785  13.504   1.404   8.146 -1.6648  0.7129 -1.8661
68265SOL     OW22786  10.862  13.807  12.186 -0.1625  0.2026 -0.6135
68265SOL    HW122787  10.791  13.866  12.212 -0.8112  0.7308 -3.3536
68265SOL    HW222788  10.926  13.814  12.258 -1.1441  2.6588  0.1183
68266SOL     OW22789  13.241  11.560  13.068  0.0369  0.0039 -0.5783
68266SOL    HW122790  13.254  11.655  13.063  0.5819 -0.0665 -0.5892
68266SOL    HW222791  13.155  11.550  13.107 -0.2679  0.5085 -1.1011
68267SOL     OW22792   6.461  10.484  10.216 -0.5695  0.1674 -0.4251
68267SOL    HW122793   6.494  10.406  10.261  0.3849 -0.0881 -1.5186
68267SOL    HW222794   6.537  10.542  10.209 -0.1549 -0.5815 -3.3059
68268SOL     OW22795   8.270   0.810   1.236 -0.2508 -0.6952  0.0178
68268SOL    HW122796   8.340   0.875   1.239 -0.2159 -0.7049  3.2154
68268SOL    HW222797   8.292   0.754   1.162  0.4003  2.1219 -2.0795
68269SOL     OW22798   9.324   4.759   0.508 -0.0190  0.1795 -0.0320
68269SOL    HW122799   9.392   4.727   0.448  0.9709 -0.3218  1.2988
68269SOL    HW222800   9.295   4.842   0.471  2.1197  0.9544 -0.0873
68270SOL     OW22801  12.761  13.498   4.710 -0.0173  0.0550  0.2248
68270SOL    HW122802  12.709  13.418   4.720  0.9893 -0.6023  0.3979
68270SOL    HW222803  12.792  13.496   4.620  0.2907  0.0651  0.3281
68271SOL     OW22804  11.190   1.437   6.159  0.4241 -0.0148  0.7570
68271SOL    HW122805  11.247   1.463   6.232  1.1213 -0.8862  0.5411
68271SOL    HW222806  11.106   1.480   6.177  0.4665 -0.5283  2.2678
68272SOL     OW22807   7.562   9.032   7.367 -0.0916 -0.1961  0.0607
68272SOL    HW122808   7.642   9.053   7.415 -0.4751 -1.2429  1.1868
68272SOL    HW222809   7.551   9.106   7.306  0.6747  0.9175  1.2248
68273SOL     OW22810   2.734   2.360   5.069  0.4034  0.0420  0.0447
68273SOL    HW122811   2.705   2.308   4.994  1.4567  0.2068 -0.4898
68273SOL    HW222812   2.759   2.444   5.032 -1.7782  1.1656  0.9729
68274SOL     OW22813  10.385  11.694   4.503 -0.4780 -0.0442 -0.2542
68274SOL    HW122814  10.388  11.767   4.564  0.1351  2.8683 -3.5037
68274SOL    HW222815  10.293  11.667   4.503 -0.5925  0.1921  1.4846
68275SOL     OW22816  14.059  12.632   7.159  0.3545 -0.1220 -1.1015
68275SOL    HW122817  14.028  12.541   7.160  0.1832 -0.0673  0.1615
68275SOL    HW222818  14.151  12.626   7.136  0.3297 -0.6124 -1.0738
68276SOL     OW22819   5.453   2.529   4.199 -0.5321 -0.4186 -0.1367
68276SOL    HW122820   5.504   2.482   4.133 -1.2784 -1.7340  0.2083
68276SOL    HW222821   5.464   2.621   4.175 -0.3306 -0.8342 -1.7694
68277SOL     OW22822   1.934   7.147  13.079 -0.2410 -0.9367 -0.1032
68277SOL    HW122823   1.971   7.224  13.036 -0.4888 -1.4956 -1.3899
68277SOL    HW222824   2.007   7.110  13.129  0.6586 -1.3795 -1.6793
68278SOL     OW22825   7.003   5.371   2.108  0.2120 -0.1484  0.1357
68278SOL    HW122826   7.023   5.280   2.088  2.8959  0.3516  0.0948
68278SOL    HW222827   6.999   5.374   2.204 -3.0198 -0.7955  0.1175
68279SOL     OW22828   8.892  13.146  12.893  0.1533  0.1797  0.1134
68279SOL    HW122829   8.873  13.053  12.903  0.7989  0.1490  1.1791
68279SOL    HW222830   8.860  13.168  12.805  2.6972 -1.7548 -1.4217
68280SOL     OW22831   6.700  11.317   6.443  0.0533  0.1410  0.0443
68280SOL    HW122832   6.762  11.385   6.417  0.4305 -0.8076 -1.7150
68280SOL    HW222833   6.663  11.348   6.525 -0.4919  2.9409 -1.1350
68281SOL     OW22834   1.253  13.585   8.546  0.3354  0.3583 -0.3279
68281SOL    HW122835   1.299  13.546   8.472 -1.7622 -0.6135 -1.2081
68281SOL    HW222836   1.172  13.620   8.508 -0.5492  0.3036  1.3976
68282SOL     OW22837  10.614   7.266   5.282  0.1639  0.1313  0.1555
68282SOL    HW122838  10.619   7.291   5.190 -0.7645  0.7077  0.2485
68282SOL    HW222839  10.629   7.347   5.330  1.9435 -0.3889  0.5632
68283SOL     OW22840   7.245  12.623   7.271 -0.3530 -0.7448  0.2821
68283SOL    HW122841   7.261  12.550   7.332 -0.9753 -0.1826  1.1316
68283SOL    HW222842   7.222  12.697   7.327 -0.2632 -0.0272 -0.6065
68284SOL     OW22843   5.349   3.389   2.741 -0.0681  0.1247  0.3032
68284SOL    HW122844   5.434   3.362   2.778  0.2988  0.4347 -0.2950
68284SOL    HW222845   5.352   3.484   2.743 -0.3919  0.1371  0.2305
68285SOL     OW22846   4.112   7.680   7.531  0.2936 -0.0653 -0.1913
68285SOL    HW122847   4.025   7.639   7.526  0.2330  0.0209  0.1567
68285SOL    HW222848   4.145   7.655   7.617  0.1167  0.9027  0.1691
68286SOL     OW22849   0.740  10.709  10.635 -0.1267 -0.0950 -0.2627
68286SOL    HW122850   0.766  10.790  10.592  1.8868 -0.6578 -0.2003
68286SOL    HW222851   0.760  10.641  10.570 -0.8695 -0.6222  0.0541
68287SOL     OW22852   7.615  10.150   3.357 -0.4489 -0.4707  0.3387
68287SOL    HW122853   7.538  10.207   3.353 -0.2936 -0.2883 -0.1143
68287SOL    HW222854   7.681  10.195   3.304 -0.8376 -1.8445 -1.4316
68288SOL     OW22855   4.461   8.452  12.288 -0.2867  0.1752 -0.0191
68288SOL    HW122856   4.482   8.544  12.303 -1.4589  0.2437  1.4566
68288SOL    HW222857   4.367   8.452  12.269 -0.2128 -0.6851 -0.4554
68289SOL     OW22858   8.138   0.030  13.917 -0.0098 -0.3231 -0.1714
68289SOL    HW122859   8.180   0.112  13.893 -0.9338 -0.0288 -0.8274
68289SOL    HW222860   8.202  -0.038  13.894  1.0710  0.2325  1.0989
68290SOL     OW22861   3.714  13.302   8.414  0.3146  0.6582  0.0482
68290SOL    HW122862   3.801  13.299   8.453  1.0724 -0.6124 -1.6298
68290SOL    HW222863   3.654  13.286   8.487  1.5392  0.3575  1.0173
68291SOL     OW22864   6.587   4.481   3.009  0.1595 -0.1356  0.1722
68291SOL    HW122865   6.496   4.460   2.987  0.5136 -1.5714 -0.0546
68291SOL    HW222866   6.636   4.463   2.928  0.6753  0.3789  0.3641
68292SOL     OW22867  12.507   5.278  10.144  0.0401  0.3897  0.0588
68292SOL    HW122868  12.577   5.280  10.078  0.6739  1.0285  0.7413
68292SOL    HW222869  12.529   5.348  10.205 -1.3001  0.7264  0.1944
68293SOL     OW22870  12.910   9.747   5.176 -0.2525 -0.2549 -0.5067
68293SOL    HW122871  12.952   9.772   5.259  0.8974 -0.3844 -1.0370
68293SOL    HW222872  12.889   9.655   5.187  0.0857 -0.3259 -0.4257
68294SOL     OW22873   7.494  13.392   5.018 -0.0236  0.2134  0.1246
68294SOL    HW122874   7.455  13.305   5.029  0.3734 -0.1011 -0.8679
68294SOL    HW222875   7.530  13.413   5.104 -0.2834 -0.5244  0.4251
68295SOL     OW22876  14.100  13.629  10.686 -0.5705  0.3028 -0.6015
68295SOL    HW122877  14.082  13.721  10.705  2.6985  0.9139  0.2152
68295SOL    HW222878  14.087  13.584  10.769 -2.4418 -0.0965 -1.0657
68296SOL     OW22879   7.381   7.963   3.220  0.3268  0.2460 -0.1450
68296SOL    HW122880   7.462   7.997   3.181 -1.2503  1.2254 -2.8829
68296SOL    HW222881   7.380   7.870   3.197  1.0869  0.0109  0.7293
68297SOL     OW22882   7.482  10.208   1.474 -0.1395  0.2188  0.3205
68297SOL    HW122883   7.399  10.198   1.520 -0.3527  0.6043  0.0252
68297SOL    HW222884   7.543  10.237   1.542 -0.1459 -0.4402  0.6197
68298SOL     OW22885   3.214  12.065   3.115  0.0380 -0.0588  0.0438
68298SOL    HW122886   3.287  12.126   3.104 -1.2264  1.6382  0.6838
68298SOL    HW222887   3.136  12.120   3.118 -0.9956 -1.4447  3.0384
68299SOL     OW22888  11.840   5.327  12.705 -0.0351  0.2841 -0.2296
68299SOL    HW122889  11.835   5.329  12.800  0.8462  1.2021 -0.1782
68299SOL    HW222890  11.894   5.251  12.684  0.4981  0.5787  0.0585
68300SOL     OW22891   0.729  13.275  10.037  0.0953  0.5948 -0.6200
68300SOL    HW122892   0.717  13.342  10.104 -0.6400  1.1168 -1.2543
68300SOL    HW222893   0.654  13.217  10.048  1.8244 -1.4732  1.3741
68301SOL     OW22894  12.275   8.336   9.478 -1.1863  0.0995 -0.1723
68301SOL    HW122895  12.305   8.371   9.563  0.8663  0.9095 -1.1550
68301SOL    HW222896  12.213   8.267   9.501 -1.5306  1.0250  1.9588
68302SOL     OW22897  13.571   4.923   8.236 -0.5768  0.1069  0.0770
68302SOL    HW122898  13.553   4.830   8.226 -0.0885  0.0684 -0.5520
68302SOL    HW222899  13.559   4.959   8.148  0.1427  0.4651  0.1113
68303SOL     OW22900  11.309  13.120   8.652 -0.5018 -0.2426  0.0854
68303SOL    HW122901  11.399  13.087   8.658 -0.7244 -1.2445 -1.5331
68303SOL    HW222902  11.317  13.214   8.668  0.3328 -0.7594  3.4682
68304SOL     OW22903   9.758   4.012   4.728 -0.2265 -0.4802 -0.0323
68304SOL    HW122904   9.672   3.975   4.746  0.3061 -1.1263  1.3155
68304SOL    HW222905   9.809   3.995   4.807  1.0739  0.1107 -0.7041
68305SOL     OW22906  11.297  11.056   3.325 -0.1251 -0.2402  0.1177
68305SOL    HW122907  11.249  11.105   3.391 -1.7859 -0.4229 -0.9150
68305SOL    HW222908  11.254  10.971   3.321  1.0361 -0.8465 -0.0056
68306SOL     OW22909   5.537   2.358   3.990 -0.6068 -1.0455  0.2700
68306SOL    HW122910   5.542   2.268   4.023 -0.4046 -1.4248 -0.7676
68306SOL    HW222911   5.599   2.360   3.917  0.8308  0.4581  1.4623
68307SOL     OW22912   4.936   0.267   0.906  0.2065  0.0242  0.2944
68307SOL    HW122913   4.918   0.173   0.901 -0.0654  0.1312 -1.1257
68307SOL    HW222914   4.959   0.292   0.817  0.4356  1.2819  0.6844
68308SOL     OW22915  11.110   0.137  13.346  0.1292  0.0084  0.0252
68308SOL    HW122916  11.105   0.171  13.257  0.2254  0.8305  0.3300
68308SOL    HW222917  11.162   0.201  13.394  1.0346 -0.9896  0.4225
68309SOL     OW22918   3.476  10.925   2.454  0.4709  0.1866  0.3155
68309SOL    HW122919   3.569  10.945   2.450  0.5592 -0.0021  1.3875
68309SOL    HW222920   3.442  10.981   2.524 -0.1624  0.0205  0.1497
68310SOL     OW22921  11.639  10.703  13.756 -0.1285  0.0091  0.3790
68310SOL    HW122922  11.644  10.615  13.719  0.0021  0.8945 -1.9255
68310SOL    HW222923  11.546  10.725  13.755 -0.3802 -0.6919  2.6410
68311SOL     OW22924  12.500  11.758   0.520 -0.2846 -0.9344 -0.4358
68311SOL    HW122925  12.528  11.691   0.458 -0.4675 -0.9126 -0.5434
68311SOL    HW222926  12.553  11.835   0.498  0.6693 -1.3366  0.3562
68312SOL     OW22927   1.027   2.902  10.630 -0.0892  0.3532 -0.0946
68312SOL    HW122928   0.961   2.858  10.575  0.3635 -1.8694  1.0127
68312SOL    HW222929   1.105   2.905  10.575 -0.0510 -0.5474 -0.1158
68313SOL     OW22930   8.709   6.863   3.012 -0.5383 -0.1731  0.0563
68313SOL    HW122931   8.728   6.880   3.105  0.5594  0.1204 -0.2035
68313SOL    HW222932   8.646   6.791   3.014  0.6337 -1.2379  1.0303
68314SOL     OW22933   0.301  11.529   9.729  0.1823  0.3788  0.5349
68314SOL    HW122934   0.218  11.545   9.773 -1.1453  1.6199 -2.1287
68314SOL    HW222935   0.278  11.470   9.656  1.9306 -0.3970  0.5753
68315SOL     OW22936   5.147   8.508  11.076  0.0107 -0.3360 -0.1438
68315SOL    HW122937   5.227   8.514  11.023 -1.2456 -1.5425 -2.2977
68315SOL    HW222938   5.158   8.429  11.128  0.0178 -0.8060 -0.8428
68316SOL     OW22939   6.917   6.499   8.840 -0.1319  0.0548 -0.5605
68316SOL    HW122940   6.997   6.479   8.888 -0.6473 -0.6063  0.0429
68316SOL    HW222941   6.878   6.414   8.821 -1.6604  0.4029  0.8281
68317SOL     OW22942   1.081   8.553  13.834 -0.3469  0.1585  0.2540
68317SOL    HW122943   1.069   8.461  13.813 -1.1772  0.1605  0.6746
68317SOL    HW222944   0.993   8.591  13.830  0.0815  1.1159 -0.7341
68318SOL     OW22945  12.369   9.727   7.617  0.5186  0.1615  0.0974
68318SOL    HW122946  12.293   9.672   7.635  0.0122  1.1567  1.0855
68318SOL    HW222947  12.411   9.686   7.541  0.7430 -2.1822  1.4013
68319SOL     OW22948   4.750   1.395   0.750 -0.2834  0.0926  0.2504
68319SOL    HW122949   4.728   1.477   0.707  0.2570  0.7334  1.1526
68319SOL    HW222950   4.811   1.420   0.820  0.9826 -1.2387 -0.3213
68320SOL     OW22951   3.600   5.605   9.144  0.0550 -0.7815  0.2705
68320SOL    HW122952   3.574   5.545   9.073 -2.0707 -1.8537  1.8330
68320SOL    HW222953   3.532   5.673   9.143  0.2774 -0.5488  0.9862
68321SOL     OW22954   8.980   6.209   5.773 -0.1225 -0.3611 -0.4158
68321SOL    HW122955   9.028   6.239   5.696 -1.0819  0.1742 -0.8097
68321SOL    HW222956   8.891   6.241   5.761 -0.4735 -0.9227  0.5494
68322SOL     OW22957   4.608  13.847  12.566  0.3930 -0.1867  0.0902
68322SOL    HW122958   4.528  13.845  12.513  1.0712 -0.8878 -0.9589
68322SOL    HW222959   4.579  13.824  12.654 -0.5735 -0.3486 -0.2592
68323SOL     OW22960   6.578   0.457  10.583  0.8859 -0.5298 -0.2329
68323SOL    HW122961   6.586   0.415  10.669  3.2953  0.4270  0.0824
68323SOL    HW222962   6.614   0.393  10.522 -1.8311 -1.6668 -0.7712
68324SOL     OW22963   0.765   2.706   7.305  0.3327 -0.3426  0.4782
68324SOL    HW122964   0.832   2.701   7.373  1.0877  0.7470 -0.1470
68324SOL    HW222965   0.707   2.776   7.333  0.3761 -0.2099  0.2454
68325SOL     OW22966   1.463   5.388  10.418  0.4448 -0.1194 -0.1769
68325SOL    HW122967   1.500   5.445  10.486 -1.5306  1.6231 -0.4775
68325SOL    HW222968   1.383   5.432  10.390  0.3440 -1.6099 -2.5125
68326SOL     OW22969  11.432   6.384  12.880 -0.5240 -0.2312  0.4922
68326SOL    HW122970  11.451   6.438  12.957 -2.6665 -0.4447  1.2309
68326SOL    HW222971  11.387   6.442  12.819 -2.1239 -0.9274  0.9605
68327SOL     OW22972  12.572   2.487   0.869  0.2041 -0.0651  0.2206
68327SOL    HW122973  12.543   2.399   0.895 -1.9483  0.5605  0.1306
68327SOL    HW222974  12.649   2.503   0.922 -1.5205 -0.5498  3.1130
68328SOL     OW22975  12.058   3.905   9.000  0.4516 -0.1745 -0.1430
68328SOL    HW122976  11.968   3.910   8.968  0.0533 -2.3762  0.4676
68328SOL    HW222977  12.091   3.822   8.966  1.3961 -0.6018  1.6667
68329SOL     OW22978   7.850   5.061   9.336  0.0490  0.1804 -0.5785
68329SOL    HW122979   7.852   5.041   9.429  2.5978  0.7490 -0.4224
68329SOL    HW222980   7.767   5.025   9.305 -0.4898 -0.7443  1.7380
68330SOL     OW22981   3.589  12.229  14.134 -0.3227  0.5708  0.0848
68330SOL    HW122982   3.645  12.207  14.208  1.3794  0.3858 -1.1734
68330SOL    HW222983   3.587  12.325  14.133 -2.4117  0.6087  1.7722
68331SOL     OW22984   5.815   3.786  10.703  0.0766  0.5210 -0.0567
68331SOL    HW122985   5.823   3.875  10.735  0.7311 -0.1105  1.6713
68331SOL    HW222986   5.887   3.775  10.642 -0.0585  1.1901 -0.3429
68332SOL     OW22987  13.170   9.720   3.963 -0.1656  0.0464  0.2228
68332SOL    HW122988  13.083   9.758   3.951  0.4687  1.4811 -0.0078
68332SOL    HW222989  13.177   9.706   4.057 -1.8169 -3.0991  0.0331
68333SOL     OW22990   2.084   0.951  11.409  0.6438  0.0091  0.0700
68333SOL    HW122991   2.011   0.893  11.389  1.3399 -1.0951  0.6084
68333SOL    HW222992   2.072   1.027  11.351 -0.1102 -0.8205 -0.8910
68334SOL     OW22993   4.648   7.310   9.707 -0.1713  0.6135  0.1138
68334SOL    HW122994   4.603   7.313   9.792 -0.8478  0.4075 -0.2394
68334SOL    HW222995   4.584   7.343   9.644  0.4542  1.1315 -0.2761
68335SOL     OW22996   0.623   7.393  12.786 -0.5201  0.2888  0.0964
68335SOL    HW122997   0.603   7.300  12.775 -1.0745  0.4803 -0.5935
68335SOL    HW222998   0.592   7.414  12.874 -3.5517  0.5829 -0.9329
68336SOL     OW22999   2.611   4.313   0.822  0.5501  0.1135 -0.7434
68336SOL    HW123000   2.553   4.300   0.898  2.0482 -1.2028  0.2373
68336SOL    HW223001   2.646   4.401   0.835  1.6963 -0.5200  0.8009
68337SOL     OW23002   7.349   0.227   0.620 -0.3304 -0.7753  0.2837
68337SOL    HW123003   7.314   0.149   0.577 -0.3120 -0.6726  0.0839
68337SOL    HW223004   7.444   0.213   0.621 -0.4471 -1.9445  2.4994
68338SOL     OW23005   6.119  12.637   0.480  0.6310 -0.4623 -0.0000
68338SOL    HW123006   6.188  12.573   0.498 -0.6230 -1.9666 -0.3100
68338SOL    HW223007   6.071  12.643   0.562 -0.8931 -2.0515 -0.7097
68339SOL     OW23008   4.410  12.394   8.498 -0.4610  0.4674 -0.2423
68339SOL    HW123009   4.480  12.370   8.559  0.0202  0.4581 -0.7927
68339SOL    HW223010   4.427  12.485   8.477  0.5472 -0.0745 -1.8952
68340SOL     OW23011   0.741  10.544   1.178 -0.3272  0.2411 -0.3162
68340SOL    HW123012   0.710  10.633   1.193 -0.9559 -0.0809  0.3460
68340SOL    HW223013   0.663  10.496   1.152  0.5663  0.6189 -4.2334
68341SOL     OW23014   6.902   9.618  13.024  0.1712 -0.3698  0.3106
68341SOL    HW123015   6.961   9.551  13.057  1.0358  0.3447  0.2428
68341SOL    HW223016   6.825   9.612  13.081  0.2978 -1.2989  0.4073
68342SOL     OW23017   2.625   9.279  12.336  0.4314 -0.2533  0.0207
68342SOL    HW123018   2.670   9.233  12.265  1.3108  1.0036 -0.2762
68342SOL    HW223019   2.569   9.343  12.291  3.1026  2.5371  0.3592
68343SOL     OW23020   1.253   8.743  13.715  0.7075  0.1007 -0.0563
68343SOL    HW123021   1.281   8.654  13.692  0.4417  0.0865 -0.3289
68343SOL    HW223022   1.184   8.730  13.780 -0.5833  0.0294 -1.3814
68344SOL     OW23023   3.050   8.542  11.955 -0.3408  0.2130  0.1533
68344SOL    HW123024   3.002   8.591  11.888 -0.4952 -0.6691 -0.4019
68344SOL    HW223025   3.024   8.451  11.941  0.1042 -0.0592  1.0205
68345SOL     OW23026   1.688  13.135   0.305 -0.3003  0.9444  0.1492
68345SOL    HW123027   1.688  13.224   0.270 -0.0341  0.2164 -1.8264
68345SOL    HW223028   1.626  13.087   0.249 -0.3327 -0.1418  1.0842
68346SOL     OW23029   3.413   6.140   4.148 -0.3300  0.3517  0.1268
68346SOL    HW123030   3.457   6.179   4.073  0.4114  1.3447  1.0407
68346SOL    HW223031   3.467   6.064   4.170  1.2766  1.8001  1.5024
68347SOL     OW23032  12.471   9.536   6.648 -0.4752 -0.2807  0.1428
68347SOL    HW123033  12.561   9.568   6.645 -0.2425 -0.1281  3.7499
68347SOL    HW223034  12.472   9.455   6.598  0.9740  0.9778 -2.0306
68348SOL     OW23035   1.476  13.244   3.267  0.6575  0.9773 -0.1923
68348SOL    HW123036   1.502  13.154   3.247  2.1411  1.2433  0.3876
68348SOL    HW223037   1.384  13.249   3.243  0.8584 -0.3638 -1.3343
68349SOL     OW23038   8.244   8.042  12.640 -0.4374  0.1322  0.1655
68349SOL    HW123039   8.212   8.131  12.631  0.3377  0.3840 -0.1523
68349SOL    HW223040   8.166   7.990  12.658 -0.9104  0.8513  0.2049
68350SOL     OW23041  10.622   0.408   2.956 -0.2043  0.3475 -0.1578
68350SOL    HW123042  10.695   0.469   2.966 -1.2529  1.6866 -0.4724
68350SOL    HW223043  10.564   0.428   3.030  1.1125 -2.8012  1.9734
68351SOL     OW23044  13.618   4.903   7.308  0.3028 -0.0800  0.7986
68351SOL    HW123045  13.680   4.976   7.309  1.1291 -0.7699  1.1360
68351SOL    HW223046  13.574   4.908   7.393  0.9231 -0.4197  1.1564
68352SOL     OW23047   0.462   1.977   2.536 -0.1244  0.2241 -0.0461
68352SOL    HW123048   0.405   1.900   2.539  0.2258 -0.0202  0.6046
68352SOL    HW223049   0.466   2.007   2.627 -1.3366  1.8246 -0.4680
68353SOL     OW23050   8.888   2.769  10.977 -0.5399 -0.0788  0.7696
68353SOL    HW123051   8.942   2.692  10.957 -0.6924  0.0202 -0.0643
68353SOL    HW223052   8.860   2.755  11.067  1.5936  0.3005  1.5491
68354SOL     OW23053  10.487  11.612   7.800 -0.2625  0.0406  0.2663
68354SOL    HW123054  10.447  11.542   7.852 -1.1888  0.8436  0.6685
68354SOL    HW223055  10.436  11.615   7.719  0.3924 -0.3832 -0.1714
68355SOL     OW23056   4.107   5.900  14.102 -0.0541  0.3662 -0.2482
68355SOL    HW123057   4.024   5.854  14.108  0.6001 -0.7771  0.2124
68355SOL    HW223058   4.150   5.883  14.185  0.9265  0.3881 -0.7394
68356SOL     OW23059  12.846   6.638   5.097  0.3072 -0.1069  0.0898
68356SOL    HW123060  12.869   6.606   5.009  1.3375 -0.1317  0.3570
68356SOL    HW223061  12.917   6.698   5.119 -0.2802  0.3866  0.6523
68357SOL     OW23062  10.855   6.536   1.484  0.2966 -0.0535 -0.4180
68357SOL    HW123063  10.910   6.509   1.559 -0.2367  1.8447  0.7277
68357SOL    HW223064  10.889   6.484   1.411  1.9358 -0.7990  0.7736
68358SOL     OW23065   6.515   1.795  13.580 -0.1157  0.1590 -0.0519
68358SOL    HW123066   6.428   1.836  13.584  0.3722  1.2777 -0.7379
68358SOL    HW223067   6.510   1.724  13.645 -1.4939  0.2827  0.0169
68359SOL     OW23068   9.088   7.584  12.845  0.3450  0.2746  0.3878
68359SOL    HW123069   9.082   7.534  12.763 -1.4831 -1.3645  1.4360
68359SOL    HW223070   9.087   7.517  12.913  1.7317  1.6163  1.7880
68360SOL     OW23071   9.495  11.190  13.743 -0.1080  0.3650 -0.1065
68360SOL    HW123072   9.505  11.238  13.661  2.1597 -0.3204 -0.3004
68360SOL    HW223073   9.433  11.242  13.794 -1.2875  1.0063 -2.0744
68361SOL     OW23074  13.209  12.631   3.644 -0.0904  0.1376  0.8307
68361SOL    HW123075  13.216  12.718   3.603 -0.7652 -0.6067 -0.9442
68361SOL    HW223076  13.219  12.570   3.572  1.0644 -1.3196  2.1546
68362SOL     OW23077  12.482   8.438  12.672 -0.1510  0.9664  0.4120
68362SOL    HW123078  12.446   8.435  12.761  1.7977 -0.6621  1.2347
68362SOL    HW223079  12.573   8.468  12.685 -0.5358  3.1469 -1.3509
68363SOL     OW23080  10.880  12.668   6.398 -0.0683  0.1484 -0.3795
68363SOL    HW123081  10.973  12.691   6.391  0.1089  0.4977  2.3097
68363SOL    HW223082  10.879  12.573   6.389  1.0896 -0.3072  2.8433
68364SOL     OW23083   7.606  11.240  12.466  0.4194 -0.1276  0.9017
68364SOL    HW123084   7.565  11.263  12.550 -0.0735 -0.2427  0.6985
68364SOL    HW223085   7.569  11.155  12.444  1.2173 -0.5062  0.9934
68365SOL     OW23086   8.044   1.848  10.081  0.4665 -0.0725  0.9797
68365SOL    HW123087   7.988   1.774  10.055 -1.1410  1.1582  0.8134
68365SOL    HW223088   8.125   1.806  10.110 -0.4971 -1.9323  1.1983
68366SOL     OW23089   1.074   3.237   9.617 -0.6504 -0.5503 -0.1111
68366SOL    HW123090   1.012   3.165   9.629  0.8601 -2.1164 -1.2433
68366SOL    HW223091   1.147   3.216   9.676 -0.5449  0.5046  0.1519
68367SOL     OW23092  10.506   8.980  13.470 -0.2077 -0.7313  0.6917
68367SOL    HW123093  10.504   8.920  13.544  1.6079  1.5709  2.7629
68367SOL    HW223094  10.525   9.066  13.508  0.4468  0.6549 -2.3957
68368SOL     OW23095   0.138   1.509  11.325 -0.0638 -0.5072 -0.0899
68368SOL    HW123096   0.127   1.515  11.230 -1.9886  0.4274  0.1598
68368SOL    HW223097   0.068   1.450  11.353  0.6638 -0.9926  0.7434
68369SOL     OW23098   9.137   4.518  11.630 -0.1813  0.1250  0.4974
68369SOL    HW123099   9.078   4.472  11.570  0.8401 -0.4639 -0.0896
68369SOL    HW223100   9.165   4.596  11.581 -0.7778  0.6339  0.9391
68370SOL     OW23101  11.684   8.658   0.930 -0.0307 -0.0528  0.1086
68370SOL    HW123102  11.732   8.706   0.863 -1.2812 -0.6706 -1.2892
68370SOL    HW223103  11.595   8.693   0.926  0.0355  0.4424  2.0169
68371SOL     OW23104   4.335   0.168   9.350  0.5178  0.6307 -0.1824
68371SOL    HW123105   4.404   0.163   9.416 -0.9569 -0.1323  1.3964
68371SOL    HW223106   4.365   0.111   9.279  0.4978 -1.6484  1.5267
68372SOL     OW23107   0.838   6.552   5.680 -0.1157 -0.2380 -0.3738
68372SOL    HW123108   0.857   6.561   5.773  0.8806 -1.1572 -0.4680
68372SOL    HW223109   0.743   6.557   5.674 -0.2804 -1.4083  0.8467
68373SOL     OW23110   9.220  13.362   5.063 -0.3010 -0.3184  0.0462
68373SOL    HW123111   9.241  13.306   4.988  0.4173  0.4921 -0.3850
68373SOL    HW223112   9.297  13.419   5.073 -0.7357  0.1495  0.8758
68374SOL     OW23113   3.480   3.152  13.904  0.9024 -0.0667  0.0598
68374SOL    HW123114   3.407   3.176  13.960  0.3364  1.3739 -1.2396
68374SOL    HW223115   3.548   3.217  13.924  1.2557 -0.4321  0.0893
68375SOL     OW23116   8.912  12.747  10.508  0.0554 -0.2199 -0.0838
68375SOL    HW123117   8.834  12.703  10.473 -0.0658 -1.1686  1.2863
68375SOL    HW223118   8.967  12.675  10.542  0.4586  0.5808  1.0237
68376SOL     OW23119   8.554  11.737   9.773 -0.1982 -0.1700  0.0630
68376SOL    HW123120   8.603  11.761   9.694  0.6942  0.6749  0.8467
68376SOL    HW223121   8.472  11.699   9.740 -1.3009  3.0596 -1.2911
68377SOL     OW23122   8.871  11.128  10.479  0.2310 -0.1074  0.1864
68377SOL    HW123123   8.962  11.118  10.506  0.3735  1.0131  0.1333
68377SOL    HW223124   8.872  11.195  10.412 -0.4165 -1.3365 -1.1089
68378SOL     OW23125   3.042   2.429   7.277 -0.5934  0.7521  0.1411
68378SOL    HW123126   3.061   2.521   7.296  0.6911  0.3001  1.1832
68378SOL    HW223127   2.999   2.397   7.357  0.1746  0.1273  0.3188
68379SOL     OW23128  12.384   2.756   0.780 -0.0631 -0.2933 -0.7304
68379SOL    HW123129  12.386   2.809   0.860 -0.5403 -0.8074 -0.3738
68379SOL    HW223130  12.469   2.713   0.778 -0.6942 -1.6464  0.4462
68380SOL     OW23131   3.763   1.736   2.698  0.1854 -0.4745  0.0726
68380SOL    HW123132   3.716   1.719   2.779 -0.5964 -0.4579 -0.3690
68380SOL    HW223133   3.855   1.721   2.720  0.1197  0.6387  1.2706
68381SOL     OW23134  11.125   2.607   9.108  0.0112  0.0011 -0.0471
68381SOL    HW123135  11.128   2.605   9.012  0.4007 -1.0919 -0.0279
68381SOL    HW223136  11.209   2.568   9.135 -0.2919 -0.1272  0.7322
68382SOL     OW23137   5.153   2.798  11.929 -0.8520 -0.5362  0.0403
68382SOL    HW123138   5.065   2.811  11.966 -0.4574 -0.4752  0.9919
68382SOL    HW223139   5.209   2.858  11.979 -0.3123 -0.3833 -0.7384
68383SOL     OW23140   5.008   5.703   1.180  0.0892 -0.3992  0.6554
68383SOL    HW123141   4.982   5.691   1.089  0.9136  2.9224 -0.1416
68383SOL    HW223142   5.086   5.648   1.189  0.9821  0.4530 -1.2014
68384SOL     OW23143   3.713  12.597   1.020  0.3416 -0.6296  1.0414
68384SOL    HW123144   3.804  12.620   1.040  0.7087 -0.2801 -0.8594
68384SOL    HW223145   3.663  12.676   1.042  0.4436 -0.8538  2.1779
68385SOL     OW23146   4.159  12.158   7.409  0.1957  0.2198 -0.0193
68385SOL    HW123147   4.253  12.141   7.416  0.1016 -0.3961 -0.1402
68385SOL    HW223148   4.133  12.189   7.496  0.4311 -0.0339  0.1420
68386SOL     OW23149  10.480   6.117   1.936  0.4581  0.1679  0.2084
68386SOL    HW123150  10.390   6.121   1.969  0.3741  1.3789 -0.1010
68386SOL    HW223151  10.474   6.155   1.848  1.0532 -0.9772 -0.3515
68387SOL     OW23152   4.665   6.757   6.525  0.2539 -0.5559 -0.1783
68387SOL    HW123153   4.694   6.847   6.544 -0.8948 -0.1590 -0.2219
68387SOL    HW223154   4.724   6.702   6.576  1.3654  0.1890 -0.6198
68388SOL     OW23155  12.904  10.185   3.301 -0.3105  0.1131  0.0729
68388SOL    HW123156  12.967  10.151   3.364 -1.2792 -1.3250  0.3193
68388SOL    HW223157  12.947  10.174   3.216 -0.1893 -0.7918  0.2432
68389SOL     OW23158  12.536   8.632  13.012 -0.5769  0.0385  0.2077
68389SOL    HW123159  12.470   8.568  12.988 -0.1186 -0.8281  1.1701
68389SOL    HW223160  12.502   8.673  13.092 -0.8882  1.0510 -0.4218
68390SOL     OW23161   2.754   9.046   2.690 -0.2651 -0.2002 -0.9126
68390SOL    HW123162   2.741   9.132   2.649 -1.6804  0.2221  0.3545
68390SOL    HW223163   2.839   9.054   2.734 -1.2759  1.2890  0.8759
68391SOL     OW23164   0.009   0.028   2.244  0.0491  0.1006 -0.5863
68391SOL    HW123165  -0.056   0.037   2.313  0.0331 -0.8402 -0.4654
68391SOL    HW223166  -0.042   0.019   2.163  0.0454 -0.0907 -0.5614
68392SOL     OW23167   2.845   9.770  13.291  0.1980 -0.1271 -0.0761
68392SOL    HW123168   2.928   9.731  13.318 -0.4962 -2.3417 -0.9659
68392SOL    HW223169   2.852   9.779  13.196  0.8082  3.2274  0.1657
68393SOL     OW23170   6.023  12.792   1.107  0.9317  0.0631  0.4005
68393SOL    HW123171   5.993  12.797   1.016 -0.0817  0.0234  0.7228
68393SOL    HW223172   6.073  12.711   1.112  0.6855 -0.1164 -0.0270
68394SOL     OW23173   8.279   9.430   2.222  0.1871  0.0705 -0.3009
68394SOL    HW123174   8.329   9.363   2.269  0.0492  0.3450  0.2502
68394SOL    HW223175   8.279   9.401   2.131  1.4703  0.1302 -0.3453
68395SOL     OW23176   9.592   5.529   2.255 -0.4840 -0.4863  0.2281
68395SOL    HW123177   9.637   5.495   2.178 -0.9850 -0.5302 -0.0479
68395SOL    HW223178   9.572   5.451   2.307 -1.1752 -0.5829 -0.1598
68396SOL     OW23179  11.916   7.803   7.573  0.0628  0.1238  0.4120
68396SOL    HW123180  11.973   7.731   7.601  0.6049  0.3789 -0.0134
68396SOL    HW223181  11.849   7.809   7.641  0.9581  0.2936  1.2868
68397SOL     OW23182   9.287  12.179  11.679 -0.1825  0.2385 -0.1393
68397SOL    HW123183   9.371  12.218  11.654 -0.4454  0.0332 -1.4388
68397SOL    HW223184   9.305  12.132  11.760  0.8377  0.6011 -0.1425
68398SOL     OW23185  13.052   9.744   5.968  0.0027 -0.7470  0.8133
68398SOL    HW123186  12.970   9.736   5.919 -0.1602 -1.3586  1.1771
68398SOL    HW223187  13.030   9.802   6.041  0.3027  0.3467  0.0729
68399SOL     OW23188   3.027   8.866   7.703  0.3732 -0.1897  0.1003
68399SOL    HW123189   2.988   8.931   7.762 -0.4253  0.6622 -1.3140
68399SOL    HW223190   2.997   8.892   7.616  2.7014 -0.5394 -0.8756
68400SOL     OW23191  12.224   4.643  13.605 -0.1920 -0.0480  0.2149
68400SOL    HW123192  12.233   4.569  13.666  0.0360 -0.3887 -0.2202
68400SOL    HW223193  12.235   4.721  13.659 -1.2984 -0.3056  0.8298
68401SOL     OW23194  11.265   5.364   1.467  0.2967  0.2457 -0.2344
68401SOL    HW123195  11.170   5.361   1.459  0.2040  0.3837  0.6843
68401SOL    HW223196  11.296   5.294   1.409 -0.4191 -0.5270  0.2883
68402SOL     OW23197   4.771  12.344  10.749  0.1731 -0.0539  0.1962
68402SOL    HW123198   4.848  12.378  10.701 -0.0995 -1.4382 -1.2886
68402SOL    HW223199   4.788  12.251  10.758 -0.2198  0.0229  2.0808
68403SOL     OW23200  11.382   2.663  11.191  0.2417 -0.2836 -0.0051
68403SOL    HW123201  11.357   2.572  11.172 -0.0981 -0.3685  0.8206
68403SOL    HW223202  11.471   2.670  11.156 -0.1331 -0.6001 -1.0767
68404SOL     OW23203   9.156   5.552  11.284 -0.1824  0.2716  0.3350
68404SOL    HW123204   9.237   5.600  11.302 -0.5403  1.1163 -0.2438
68404SOL    HW223205   9.101   5.569  11.361 -0.2943  0.7659  0.1473
68405SOL     OW23206  10.420   4.164  11.871  0.0430 -0.6984  0.5000
68405SOL    HW123207  10.494   4.145  11.929  0.1755 -1.2630  0.1470
68405SOL    HW223208  10.420   4.093  11.807 -0.5828 -0.5042  0.2758
68406SOL     OW23209  11.480   8.989   5.378  0.2592  0.3742  0.0382
68406SOL    HW123210  11.466   9.033   5.461 -1.4398 -0.3262  0.1544
68406SOL    HW223211  11.561   8.940   5.390  1.4937  2.3894  0.3267
68407SOL     OW23212   1.803   0.932  11.979 -0.2169  0.3951 -0.4441
68407SOL    HW123213   1.729   0.974  12.021 -2.2566 -1.9570 -1.4745
68407SOL    HW223214   1.787   0.942  11.885 -0.1889 -1.6153 -0.7096
68408SOL     OW23215  11.092   2.874  11.633 -0.0852 -0.0087 -0.0694
68408SOL    HW123216  11.099   2.786  11.669 -1.7323  0.0511  0.5108
68408SOL    HW223217  11.032   2.865  11.559  0.1912  0.5235 -0.3609
68409SOL     OW23218  11.567   7.694   6.633 -0.3091 -0.3044  0.0341
68409SOL    HW123219  11.488   7.747   6.646 -0.1911 -0.2370  0.4720
68409SOL    HW223220  11.627   7.723   6.701  1.4223  2.1279 -2.2859
68410SOL     OW23221   5.623   6.989  10.537 -0.4345 -0.4836  0.3923
68410SOL    HW123222   5.706   6.944  10.524  0.0143 -0.0083  1.5179
68410SOL    HW223223   5.615   7.000  10.632 -1.5891 -0.1626  0.2777
68411SOL     OW23224   0.510  10.384  10.153 -0.1477  0.4772 -0.0028
68411SOL    HW123225   0.597  10.401  10.187  0.2298 -0.5157 -0.4310
68411SOL    HW223226   0.473  10.471  10.137  1.1368  0.9125 -0.7576
68412SOL     OW23227   1.153  12.903   9.630  0.5519  0.5696 -0.5049
68412SOL    HW123228   1.132  12.868   9.717 -1.5149 -0.5851 -1.3901
68412SOL    HW223229   1.144  12.829   9.571  2.5042  1.2000 -1.6924
68413SOL     OW23230   3.381  13.591   2.266 -0.1761  0.3890 -0.3281
68413SOL    HW123231   3.389  13.552   2.354 -0.3381  0.3201 -0.3426
68413SOL    HW223232   3.298  13.638   2.269 -0.8832 -0.7703 -0.8794
68414SOL     OW23233   5.023   4.093  11.483 -0.4109  0.2001 -0.2999
68414SOL    HW123234   4.964   4.082  11.408 -0.1785  1.5782 -0.7023
68414SOL    HW223235   5.110   4.096  11.444 -0.2774  0.7577  0.0384
68415SOL     OW23236   9.900   1.192   9.044 -0.3643 -0.1185  0.0732
68415SOL    HW123237   9.885   1.144   9.125  0.0867  0.6207  0.5982
68415SOL    HW223238   9.902   1.124   8.976 -2.1182 -0.6315  0.4735
68416SOL     OW23239   5.002   9.777   9.063  0.5191 -0.1613 -0.6637
68416SOL    HW123240   5.093   9.772   9.093  0.1570 -2.9339  0.2171
68416SOL    HW223241   4.957   9.826   9.132  0.9700 -0.6171 -0.0339
68417SOL     OW23242   6.406  12.211  12.433  0.1112 -0.1549 -0.3482
68417SOL    HW123243   6.394  12.244  12.344  1.0046 -0.6851 -0.6762
68417SOL    HW223244   6.472  12.142  12.424 -0.0522 -0.4525  0.6718
68418SOL     OW23245  12.176  13.372   4.434  0.0590 -1.0799 -0.1028
68418SOL    HW123246  12.107  13.434   4.409 -0.1757 -1.5718 -0.6980
68418SOL    HW223247  12.222  13.416   4.506 -2.2052 -1.6016  1.8221
68419SOL     OW23248   6.605  11.954   7.971 -0.3900  0.7301  0.0680
68419SOL    HW123249   6.569  11.959   7.883 -2.0809 -0.6228  0.6326
68419SOL    HW223250   6.689  11.909   7.960 -1.3192 -0.9016 -0.6990
68420SOL     OW23251   2.720  11.532   0.471 -0.2597  0.0124  0.2565
68420SOL    HW123252   2.716  11.437   0.456  0.8623  0.2299 -1.8536
68420SOL    HW223253   2.655  11.568   0.411  0.5598  0.6746 -0.2432
68421SOL     OW23254   5.318   2.795  10.637 -0.2422 -0.0817 -0.0872
68421SOL    HW123255   5.380   2.732  10.601 -0.9573 -0.6295 -0.3910
68421SOL    HW223256   5.328   2.873  10.583  0.2646 -0.1232 -0.0559
68422SOL     OW23257  13.476   8.269   9.294 -0.6999 -0.0893 -0.9352
68422SOL    HW123258  13.422   8.289   9.218 -1.9896  1.0779  0.2316
68422SOL    HW223259  13.424   8.297   9.369  1.1611  0.2530  0.3080
68423SOL     OW23260   6.411  13.463  13.397 -0.3784  0.1076  0.1401
68423SOL    HW123261   6.499  13.427  13.405 -1.2693 -2.4970 -0.4937
68423SOL    HW223262   6.365  13.432  13.476 -0.9380  0.7102  0.0571
68424SOL     OW23263   8.682   1.914   9.060  0.7264 -0.6899 -0.3706
68424SOL    HW123264   8.769   1.952   9.068  1.0150 -1.6608  1.9567
68424SOL    HW223265   8.697   1.820   9.057 -0.2304 -0.8693  0.0268
68425SOL     OW23266  14.008  10.946   6.272 -0.3450 -0.1555  0.3079
68425SOL    HW123267  13.956  11.026   6.270 -0.6674 -0.3346  1.1896
68425SOL    HW223268  13.950  10.880   6.310 -0.2461 -0.9449 -0.8468
68426SOL     OW23269   9.869  13.606  11.357  0.6720  0.8488 -0.0490
68426SOL    HW123270   9.807  13.658  11.306 -1.4550 -2.4246 -1.1271
68426SOL    HW223271   9.814  13.550  11.411  2.7704 -0.5307  0.7758
68427SOL     OW23272  11.947  11.928   6.210  0.1113 -0.0203  0.1703
68427SOL    HW123273  11.862  11.973   6.210 -0.5922 -1.2937  0.1741
68427SOL    HW223274  11.977  11.933   6.120 -1.1377 -1.6089 -0.3866
68428SOL     OW23275   2.500  10.055   6.837  0.1978 -0.1957  0.8044
68428SOL    HW123276   2.426  10.038   6.895 -0.9771  0.5586 -0.4147
68428SOL    HW223277   2.531   9.968   6.812 -0.0035 -0.5190  1.6485
68429SOL     OW23278  12.125   2.541   6.308 -0.5409 -0.4776  0.5610
68429SOL    HW123279  12.130   2.546   6.213 -0.5815 -0.0255  0.5767
68429SOL    HW223280  12.141   2.449   6.329  1.0909 -0.3033  0.2142
68430SOL     OW23281  13.394   1.843  10.499  0.0439  0.1579  0.3729
68430SOL    HW123282  13.388   1.938  10.511  1.3113  0.2227  0.6171
68430SOL    HW223283  13.315   1.820  10.450 -0.4093  1.2995  0.5423
68431SOL     OW23284   5.171  11.609  10.698 -0.1431 -0.1482 -0.1798
68431SOL    HW123285   5.116  11.560  10.760 -0.1879  0.2702  0.1120
68431SOL    HW223286   5.174  11.698  10.733  1.1675 -0.2861  0.1021
68432SOL     OW23287   4.663   5.621  13.833 -0.3569 -0.4243  0.0613
68432SOL    HW123288   4.597   5.687  13.853 -0.6943 -0.5200 -0.6842
68432SOL    HW223289   4.725   5.626  13.905  1.2279  2.7342 -1.3395
68433SOL     OW23290   9.071  11.452  10.547  0.2322  0.3085 -0.3545
68433SOL    HW123291   9.032  11.510  10.482  0.4882  0.4076 -0.4232
68433SOL    HW223292   9.165  11.453  10.527  0.4437  1.0547  0.5660
68434SOL     OW23293   2.368   2.118  10.245  0.3403  0.1150 -0.1453
68434SOL    HW123294   2.324   2.189  10.290  0.3813  0.4101 -0.5679
68434SOL    HW223295   2.350   2.132  10.153 -0.1684 -0.7779 -0.1921
68435SOL     OW23296   8.793  10.314   5.368  0.5231  0.3126 -0.2256
68435SOL    HW123297   8.815  10.222   5.374  0.1580  0.3324  2.3161
68435SOL    HW223298   8.721  10.317   5.304  0.3203 -1.1901 -0.1002
68436SOL     OW23299   0.655  14.157  11.789  0.2578 -0.3217  0.2148
68436SOL    HW123300   0.608  14.101  11.851  0.9943 -1.8702 -0.5774
68436SOL    HW223301   0.589  14.179  11.723 -0.0339 -0.2381  0.5278
68437SOL     OW23302   5.785   4.915   1.012  0.9264 -0.0608 -0.0680
68437SOL    HW123303   5.789   4.879   1.100  1.5409 -1.1234 -0.5087
68437SOL    HW223304   5.752   5.005   1.023  0.2484 -0.4491  1.1466
68438SOL     OW23305   0.708   0.494   1.510 -0.0166  0.2201 -0.2314
68438SOL    HW123306   0.727   0.585   1.488  1.1990  0.0448  0.0377
68438SOL    HW223307   0.768   0.443   1.455 -0.1593 -0.3873  0.1702
68439SOL     OW23308   3.036  11.156   9.427  0.1400 -0.6651  0.1150
68439SOL    HW123309   3.039  11.064   9.400 -1.6742 -1.3613  2.0004
68439SOL    HW223310   2.943  11.173   9.445  0.6898  0.8837  1.8504
68440SOL     OW23311   3.764   4.868   5.045 -0.3779  0.3594 -0.2014
68440SOL    HW123312   3.772   4.775   5.066 -0.0473  0.4350  0.0187
68440SOL    HW223313   3.702   4.902   5.110 -0.5514  0.2778 -0.3252
68441SOL     OW23314   8.226  11.591   8.968 -0.3736 -0.3577  0.5193
68441SOL    HW123315   8.200  11.644   9.043  0.2369 -2.2639  2.1783
68441SOL    HW223316   8.319  11.608   8.957 -0.3690 -0.4098  0.4805
68442SOL     OW23317  12.340   6.965   1.019  0.2450  0.8918 -0.1477
68442SOL    HW123318  12.406   6.931   1.081  0.2315 -0.9337 -1.0581
68442SOL    HW223319  12.386   6.968   0.935 -0.7533 -0.2605 -0.7628
68443SOL     OW23320   3.944   6.370   6.234  0.1219  0.0511 -0.3098
68443SOL    HW123321   3.968   6.361   6.141 -0.6213 -1.3171 -0.4005
68443SOL    HW223322   3.935   6.280   6.265  0.4234  0.4871  1.1280
68444SOL     OW23323   7.332   1.236   8.262 -0.2741 -0.1167  0.1264
68444SOL    HW123324   7.280   1.169   8.307 -0.2220 -0.4325 -0.2845
68444SOL    HW223325   7.350   1.301   8.330 -1.3933  0.1101  0.2166
68445SOL     OW23326   9.717  13.424   6.651 -0.3007 -0.0328  0.5085
68445SOL    HW123327   9.773  13.499   6.630 -3.5949  2.1855 -1.3371
68445SOL    HW223328   9.703  13.381   6.567 -1.2586 -0.5908  0.9375
68446SOL     OW23329  10.790   5.919   6.166  0.6871  0.5858  0.4962
68446SOL    HW123330  10.869   5.965   6.137  1.5906 -1.3918 -0.4233
68446SOL    HW223331  10.822   5.854   6.228 -0.1504 -0.4549 -0.1343
68447SOL     OW23332  11.678   6.379   7.165  0.0756  0.4888  0.3136
68447SOL    HW123333  11.656   6.291   7.135 -0.9162  0.7037  0.3770
68447SOL    HW223334  11.742   6.411   7.102 -0.3708  0.1237 -0.3383
68448SOL     OW23335   8.442   0.360   0.804  0.2635  0.4838  0.0976
68448SOL    HW123336   8.498   0.437   0.798 -1.4734  1.8190  0.4840
68448SOL    HW223337   8.354   0.394   0.811 -0.7008 -1.5658 -1.0633
68449SOL     OW23338   3.345   7.442  11.948 -0.7909 -0.2395 -0.1687
68449SOL    HW123339   3.310   7.514  12.000 -0.3102  0.6752 -1.0629
68449SOL    HW223340   3.268   7.406  11.903 -0.6904  1.8214 -2.1981
68450SOL     OW23341   3.079   3.752  13.418  0.4976 -0.3791 -0.3456
68450SOL    HW123342   3.124   3.683  13.467 -0.6754 -0.3048  0.8801
68450SOL    HW223343   3.082   3.828  13.476 -0.7094 -0.2152 -0.4842
68451SOL     OW23344   0.354   3.900   4.291 -0.4715  0.5572  0.6599
68451SOL    HW123345   0.304   3.887   4.211 -2.3937 -2.1140  2.1520
68451SOL    HW223346   0.439   3.860   4.273 -1.0553 -0.4724  0.0791
68452SOL     OW23347   4.365   4.821   1.147 -0.1332 -0.3560  0.6042
68452SOL    HW123348   4.414   4.758   1.201  2.7485  0.3615 -0.9623
68452SOL    HW223349   4.275   4.790   1.150  0.5992 -2.6184  2.5623
68453SOL     OW23350   6.984   9.179   5.852  0.3256  0.3240 -0.2794
68453SOL    HW123351   7.077   9.186   5.877  0.0210  0.1281  1.0036
68453SOL    HW223352   6.959   9.268   5.829  0.4647  0.6727  0.8444
68454SOL     OW23353   4.074   4.445   2.156  0.4922 -0.0417  0.0055
68454SOL    HW123354   4.118   4.362   2.137 -0.6421 -0.9356  1.1721
68454SOL    HW223355   4.032   4.432   2.241  0.8303  1.9577  0.5366
68455SOL     OW23356   9.187  10.678   2.731 -0.0271  0.9381  0.3577
68455SOL    HW123357   9.100  10.704   2.763 -0.0247  0.4409  0.7853
68455SOL    HW223358   9.201  10.591   2.769  1.2474  1.5903  1.4719
68456SOL     OW23359   0.360  10.558  11.588 -0.1212 -0.4963  0.4982
68456SOL    HW123360   0.411  10.638  11.598 -2.6255  1.0910  1.6169
68456SOL    HW223361   0.291  10.582  11.526 -0.3150 -2.1362  0.0455
68457SOL     OW23362   9.148   0.128   1.407  0.1854  0.6890 -0.2515
68457SOL    HW123363   9.197   0.191   1.355 -1.7394  1.2099 -1.5426
68457SOL    HW223364   9.180   0.043   1.378  0.2641  1.0105 -1.1197
68458SOL     OW23365   2.694   0.371  11.848  0.7190  0.0134 -0.0284
68458SOL    HW123366   2.603   0.371  11.816 -0.0264  2.1343  1.8265
68458SOL    HW223367   2.738   0.437  11.794  0.2274  1.4502  1.2727
68459SOL     OW23368   1.303   9.910   2.164 -0.1933 -0.1687 -0.3148
68459SOL    HW123369   1.276   9.823   2.195  1.0483 -0.6025 -0.3922
68459SOL    HW223370   1.230   9.939   2.109 -1.7163 -0.0963  1.6231
68460SOL     OW23371   4.624  12.895   1.457 -0.3814 -0.0332 -0.2764
68460SOL    HW123372   4.673  12.960   1.508 -0.3192  0.8829 -1.4443
68460SOL    HW223373   4.655  12.810   1.489  1.6432  0.5104 -0.6233
68461SOL     OW23374   9.295  11.617   8.443 -0.2014 -0.1469 -0.0843
68461SOL    HW123375   9.292  11.522   8.429 -2.1351  0.2269 -3.4578
68461SOL    HW223376   9.206  11.641   8.465 -0.7870  1.2028 -3.3695
68462SOL     OW23377   6.955  10.783   8.413 -0.3838 -0.5745 -0.6543
68462SOL    HW123378   6.937  10.759   8.504  1.4650  0.7834  0.1397
68462SOL    HW223379   6.934  10.876   8.409  2.1659  0.0762 -0.7742
68463SOL     OW23380   0.133   5.565   0.610  0.1940 -0.6485  0.4020
68463SOL    HW123381   0.038   5.568   0.606  0.2481 -0.0075 -0.6073
68463SOL    HW223382   0.159   5.652   0.640  0.4594 -0.8657  0.8112
68464SOL     OW23383   5.146  13.663  10.858  0.0499 -0.0256 -0.1205
68464SOL    HW123384   5.232  13.704  10.853  0.1061 -0.1015  0.2314
68464SOL    HW223385   5.095  13.720  10.915 -0.2128  0.1608 -0.5399
68465SOL     OW23386   5.946   1.132  12.167 -0.3284  0.0010 -0.5323
68465SOL    HW123387   5.948   1.208  12.109 -0.3559  0.8026  0.4892
68465SOL    HW223388   5.904   1.063  12.114 -2.9062  1.4679 -0.6045
68466SOL     OW23389   5.977  14.074  12.725 -0.8561  0.2703  0.1056
68466SOL    HW123390   5.932  14.037  12.649 -1.8882 -1.1974  1.3737
68466SOL    HW223391   6.042  14.134  12.687 -2.0944  0.4627 -1.8762
68467SOL     OW23392  10.265   1.246   3.801 -0.3102  0.7099  0.4666
68467SOL    HW123393  10.251   1.260   3.895 -2.0743 -0.7767  0.4699
68467SOL    HW223394  10.195   1.295   3.759 -1.6711 -1.4297  0.1267
68468SOL     OW23395   5.971  13.036   3.741  0.3380 -0.3609  0.1673
68468SOL    HW123396   5.961  12.950   3.781  2.4099 -0.6301  0.2159
68468SOL    HW223397   5.935  13.097   3.805 -2.1179 -1.1989 -0.3008
68469SOL     OW23398   0.532   6.483   5.656  0.3819 -0.2855  0.2159
68469SOL    HW123399   0.500   6.402   5.616 -1.0307  0.2465  0.2305
68469SOL    HW223400   0.459   6.545   5.648  0.8748  0.5162  1.6028
68470SOL     OW23401   2.377   1.202  11.061  0.0351 -0.1861 -0.1508
68470SOL    HW123402   2.323   1.256  11.004 -1.6853 -1.4975  0.1443
68470SOL    HW223403   2.402   1.127  11.007 -0.4165 -0.7333  0.3748
68471SOL     OW23404  12.490   1.698  11.388  0.3122 -0.2424  0.0410
68471SOL    HW123405  12.568   1.747  11.362  0.1387 -0.5713 -1.1592
68471SOL    HW223406  12.502   1.680  11.481  1.2263  0.5124  0.0733
68472SOL     OW23407   3.584   2.792   6.683 -0.3541  0.2410  0.3704
68472SOL    HW123408   3.636   2.770   6.607  0.8569  0.0852  1.2179
68472SOL    HW223409   3.536   2.712   6.704  0.8425 -0.3514  0.9469
68473SOL     OW23410   1.664   4.825  12.308 -0.2019 -0.7714 -0.6722
68473SOL    HW123411   1.620   4.740  12.305 -2.4137  0.3063 -0.6492
68473SOL    HW223412   1.724   4.818  12.382 -1.4284 -1.8616  0.2703
68474SOL     OW23413  11.543   2.926   6.877 -0.0540 -0.1442  0.2521
68474SOL    HW123414  11.470   2.913   6.938  0.1948 -0.1823  0.5429
68474SOL    HW223415  11.620   2.896   6.925 -0.0799 -1.9982 -0.7380
68475SOL     OW23416   3.464   5.946  11.747 -0.3854  0.1978 -0.0419
68475SOL    HW123417   3.451   6.010  11.677  0.1630 -2.3398 -2.6157
68475SOL    HW223418   3.539   5.893  11.719 -1.8125 -2.6369  1.0991
68476SOL     OW23419   8.647   0.888  10.200  0.0117 -0.2529 -0.0419
68476SOL    HW123420   8.690   0.907  10.284 -2.1879 -0.8371  1.2979
68476SOL    HW223421   8.611   0.800  10.211 -0.3046 -0.3526 -1.6435
68477SOL     OW23422  10.424   9.721   7.826  0.5852 -0.2422  0.2051
68477SOL    HW123423  10.369   9.703   7.903  0.3908 -0.7714 -0.0501
68477SOL    HW223424  10.413   9.644   7.771  1.4783 -0.2894  0.0837
68478SOL     OW23425  10.343   8.916   6.895  0.8572  1.0585  0.3436
68478SOL    HW123426  10.436   8.912   6.915  0.3962 -0.1328  2.5500
68478SOL    HW223427  10.300   8.900   6.979 -1.3525  2.5999 -0.4080
68479SOL     OW23428   5.002   3.119   4.073 -0.2355 -0.2361  0.0156
68479SOL    HW123429   5.035   3.136   4.161 -1.5865 -2.5102  1.0319
68479SOL    HW223430   4.919   3.166   4.068  0.7685  1.5362 -0.8209
68480SOL     OW23431   5.109  11.370   6.863  0.3190  0.2549  0.0095
68480SOL    HW123432   5.021  11.391   6.895  0.1954 -0.6350  0.2502
68480SOL    HW223433   5.140  11.453   6.824 -0.2626  0.8185  0.7243
68481SOL     OW23434   7.836   2.910   4.751  0.2354  0.5739 -0.0326
68481SOL    HW123435   7.826   2.957   4.833 -1.1752 -0.0879  0.2032
68481SOL    HW223436   7.930   2.896   4.743  0.7114  3.2617 -0.0601
68482SOL     OW23437   3.240   3.470  12.864  0.1671  0.2845 -0.4370
68482SOL    HW123438   3.310   3.525  12.899  0.1656 -0.7694  1.3290
68482SOL    HW223439   3.164   3.527  12.863  0.6947  1.0009 -0.9210
68483SOL     OW23440   8.758   9.584   4.485  0.0126  0.1936 -0.2113
68483SOL    HW123441   8.842   9.548   4.511  0.4789  1.1721 -0.3116
68483SOL    HW223442   8.718   9.516   4.431 -1.2161 -2.1421  3.3210
68484SOL     OW23443   0.228  11.963   5.604  0.2538 -0.5738  0.4107
68484SOL    HW123444   0.210  11.928   5.691  0.3030 -1.8036 -0.0554
68484SOL    HW223445   0.141  11.986   5.570  0.0205 -1.9017  0.0578
68485SOL     OW23446   0.466   2.979   2.585  0.1405  0.0116 -0.3314
68485SOL    HW123447   0.405   2.959   2.656  0.2309  0.3419 -0.1595
68485SOL    HW223448   0.446   2.914   2.518  1.5838 -1.7613  0.8812
68486SOL     OW23449   6.076  14.140   1.986 -0.6604 -0.1303  0.1716
68486SOL    HW123450   6.065  14.125   1.893 -1.2861  0.7624  0.0854
68486SOL    HW223451   6.051  14.232   1.999 -0.6326 -0.2523  1.2171
68487SOL     OW23452  11.748   2.897   3.247  0.3167 -0.9896 -0.0839
68487SOL    HW123453  11.719   2.900   3.155  0.6841 -0.7874 -0.1955
68487SOL    HW223454  11.843   2.888   3.241  0.4231 -0.1729  0.2775
68488SOL     OW23455  13.214   6.632  12.367 -0.2756  0.8325 -0.2115
68488SOL    HW123456  13.164   6.567  12.317 -0.8944  0.0964  1.3211
68488SOL    HW223457  13.161   6.711  12.363 -1.5425  0.1043  1.2616
68489SOL     OW23458  13.956   2.531  12.189 -0.5410  0.4440 -0.3142
68489SOL    HW123459  13.957   2.567  12.100  0.4155  1.8681  0.2401
68489SOL    HW223460  14.033   2.569  12.231 -0.3140 -1.1382  0.7801
68490SOL     OW23461   0.271   0.805   5.787 -0.2920 -0.1077 -0.3620
68490SOL    HW123462   0.260   0.899   5.801 -1.0952 -0.2211 -0.2175
68490SOL    HW223463   0.228   0.765   5.862 -0.3016 -0.6041 -0.6332
68491SOL     OW23464  11.591   5.046  10.630  0.6320 -0.2216  0.0643
68491SOL    HW123465  11.563   4.993  10.704  0.5528 -1.6559 -0.9587
68491SOL    HW223466  11.672   5.005  10.599 -0.2756 -0.7794 -1.7326
68492SOL     OW23467   6.844   1.032  13.898 -0.7368 -0.2226 -0.2705
68492SOL    HW123468   6.762   0.983  13.888 -0.8284 -0.5120  1.5195
68492SOL    HW223469   6.859   1.034  13.993  1.0361  0.3266 -0.5291
68493SOL     OW23470  13.464   9.506  11.505  0.3508  0.2809 -0.4020
68493SOL    HW123471  13.454   9.552  11.589 -2.6296 -1.2015  0.2068
68493SOL    HW223472  13.437   9.571  11.439 -0.6506  0.4391  0.1371
68494SOL     OW23473   5.221   8.178   0.171 -0.1036 -0.6523 -0.4070
68494SOL    HW123474   5.140   8.183   0.223  0.2478 -0.8434  0.1689
68494SOL    HW223475   5.220   8.257   0.117  0.5591  0.6785  1.4225
68495SOL     OW23476  13.433   6.934  12.400 -0.5920 -0.1878 -0.0523
68495SOL    HW123477  13.375   6.898  12.467  0.9853 -1.0792  0.8914
68495SOL    HW223478  13.438   6.866  12.332  0.7515 -0.9289  0.7456
68496SOL     OW23479   8.082   7.593   9.234  0.0661  0.1801 -0.2064
68496SOL    HW123480   7.999   7.620   9.273 -0.2017 -1.0920  0.1572
68496SOL    HW223481   8.105   7.665   9.175 -0.4000  1.3581  0.9788
68497SOL     OW23482   0.502  11.989   4.061  0.1426  0.1898  0.1166
68497SOL    HW123483   0.426  11.949   4.019 -0.8623  2.3267 -0.2195
68497SOL    HW223484   0.550  12.031   3.989 -1.4028  3.5714  0.8560
68498SOL     OW23485   5.649   4.629   9.312 -0.5287  0.1183  0.1827
68498SOL    HW123486   5.688   4.549   9.278  0.6332  1.2278 -1.2376
68498SOL    HW223487   5.723   4.682   9.340 -1.1498  1.2843 -0.2920
68499SOL     OW23488   8.349  11.253   3.286  0.3725 -0.3297 -0.4869
68499SOL    HW123489   8.404  11.208   3.350 -0.7256 -0.3471  0.4748
68499SOL    HW223490   8.374  11.215   3.201 -0.5350 -2.8403  0.2716
68500SOL     OW23491   5.937   2.289   0.479  0.2133  0.2144  0.1547
68500SOL    HW123492   5.947   2.206   0.526  1.3583  0.4451  0.3329
68500SOL    HW223493   5.868   2.272   0.415 -0.6491 -0.4162  1.2053
68501SOL     OW23494   5.934   9.362   3.741  0.6197 -0.3596  0.1254
68501SOL    HW123495   5.968   9.336   3.827  1.3458  0.4535  0.0995
68501SOL    HW223496   6.004   9.338   3.681  0.1326 -0.8803 -0.2423
68502SOL     OW23497   2.497  10.279   6.130  0.1003 -0.0371 -0.4308
68502SOL    HW123498   2.443  10.285   6.051  0.2469  0.3830 -0.5035
68502SOL    HW223499   2.440  10.308   6.201 -0.1148 -0.6775 -0.3417
68503SOL     OW23500  13.797   0.532   6.368 -0.7368  0.2261  0.6565
68503SOL    HW123501  13.724   0.473   6.390 -1.9552  1.0167 -1.0527
68503SOL    HW223502  13.787   0.548   6.275  0.7468  1.5899  0.7063
68504SOL     OW23503  13.429   5.637   0.292  0.2671 -0.3863 -0.3371
68504SOL    HW123504  13.357   5.576   0.307  1.0697 -1.5529 -1.0574
68504SOL    HW223505  13.502   5.582   0.262  1.4201  0.7799  0.2269
68505SOL     OW23506  10.054  13.428   8.577 -0.5303 -0.4774  0.2488
68505SOL    HW123507  10.043  13.471   8.662 -1.5241  1.3048 -0.7156
68505SOL    HW223508  10.005  13.483   8.516  0.3876 -1.5494 -1.5368
68506SOL     OW23509   4.262   8.885  13.680  0.1561  0.0894 -0.5819
68506SOL    HW123510   4.216   8.816  13.632  0.5251 -0.5655 -0.0072
68506SOL    HW223511   4.203   8.960  13.675 -0.4760 -0.4097 -0.7968
68507SOL     OW23512   3.733  12.469   2.390 -0.4150  0.3606 -0.2863
68507SOL    HW123513   3.741  12.505   2.478  0.2695 -1.7716  0.5985
68507SOL    HW223514   3.699  12.380   2.404 -0.4836  0.0551 -2.1833
68508SOL     OW23515  11.475  11.604   7.631  0.3991 -0.1917  0.2768
68508SOL    HW123516  11.522  11.593   7.548 -1.7198 -3.2974 -0.6819
68508SOL    HW223517  11.501  11.529   7.684  0.7907  1.1077  1.9937
68509SOL     OW23518   3.647   5.899  12.162  0.3701  0.2191  0.1960
68509SOL    HW123519   3.607   5.980  12.132  0.0274 -0.6541 -1.8727
68509SOL    HW223520   3.701   5.870  12.088  0.5142 -1.4126  0.8961
68510SOL     OW23521   8.248  10.212   7.686  0.6335  0.4579  0.6324
68510SOL    HW123522   8.191  10.158   7.741  2.2647 -1.7672  0.2496
68510SOL    HW223523   8.319  10.238   7.744 -0.2673  2.5497  0.8904
68511SOL     OW23524   9.605  10.860   8.141 -0.2624 -0.0426  0.0110
68511SOL    HW123525   9.589  10.859   8.047  1.3108 -1.2462 -0.2881
68511SOL    HW223526   9.520  10.838   8.179 -0.7247 -0.4160 -1.1770
68512SOL     OW23527   4.159   2.667  12.018  0.0422  0.3908 -0.4801
68512SOL    HW123528   4.092   2.645  12.082  0.4799 -1.4422 -0.5946
68512SOL    HW223529   4.227   2.712  12.069  0.2918 -0.8598  0.3475
68513SOL     OW23530   6.953  13.180   8.156 -0.0411 -0.1195  0.2391
68513SOL    HW123531   6.975  13.243   8.225 -0.9658  0.2445  0.2273
68513SOL    HW223532   6.866  13.148   8.181 -0.4362  0.0923 -0.8030
68514SOL     OW23533   2.396   0.970  12.124  0.0220 -0.1598 -0.1732
68514SOL    HW123534   2.307   0.995  12.097 -0.4637 -2.7816 -1.3288
68514SOL    HW223535   2.399   0.876  12.110  2.5103 -0.3822  1.3818
68515SOL     OW23536   7.259   5.527  13.517 -0.1668 -0.4268  0.4448
68515SOL    HW123537   7.277   5.471  13.593  1.6080 -1.5738 -0.7498
68515SOL    HW223538   7.343   5.533  13.470 -1.2683 -0.0374 -1.6096
68516SOL     OW23539   4.863   0.267   3.286 -0.4452 -0.0473  0.2507
68516SOL    HW123540   4.906   0.184   3.304  2.3502  0.9768 -1.0989
68516SOL    HW223541   4.894   0.326   3.355  0.4967  0.7356 -0.8039
68517SOL     OW23542   5.824   6.361  14.020 -0.0171  0.1696  0.0489
68517SOL    HW123543   5.744   6.413  14.025  0.1257  0.2972  1.2518
68517SOL    HW223544   5.877   6.406  13.954 -1.1011 -0.1821 -1.1011
68518SOL     OW23545   5.882   1.655   5.693  0.1767  0.2119  0.0822
68518SOL    HW123546   5.865   1.626   5.603  0.9334 -2.3949  0.7145
68518SOL    HW223547   5.803   1.630   5.741 -0.0328  1.1879  0.2708
68519SOL     OW23548   5.595   8.769  11.086 -0.3408 -0.4941 -0.0425
68519SOL    HW123549   5.573   8.769  11.179 -0.4378 -0.9780 -0.0647
68519SOL    HW223550   5.560   8.852  11.053 -2.0811 -1.1972 -0.0565
68520SOL     OW23551  13.067   5.804   6.136  0.5596  0.3076 -0.0839
68520SOL    HW123552  13.093   5.894   6.154  0.1950  0.4232 -0.1190
68520SOL    HW223553  12.989   5.812   6.081  0.9321 -0.0352 -0.6654
68521SOL     OW23554   6.626  14.079   1.167  0.1108  0.1403  0.4570
68521SOL    HW123555   6.600  14.024   1.093  1.8183  0.0155 -0.1015
68521SOL    HW223556   6.598  14.030   1.244  1.4017 -1.4572 -0.0344
68522SOL     OW23557   3.732   9.837   5.026 -0.1486 -0.0311 -0.3004
68522SOL    HW123558   3.718   9.752   5.067  1.5655  0.1014  0.6305
68522SOL    HW223559   3.706   9.900   5.093  1.5154  0.1757  0.1883
68523SOL     OW23560   6.266   8.567  11.316  0.0369 -0.2099  0.0160
68523SOL    HW123561   6.317   8.517  11.380 -0.7898 -0.9614  0.1138
68523SOL    HW223562   6.183   8.585  11.362 -0.5960 -0.8235 -0.8637
68524SOL     OW23563   6.941  10.455  13.043 -0.2541 -0.1628  0.5196
68524SOL    HW123564   7.007  10.510  13.002  1.1055 -4.1962 -3.4919
68524SOL    HW223565   6.977  10.435  13.129  1.6391  1.0770  0.0684
68525SOL     OW23566  12.996  13.642   1.456 -0.2783  0.1540  0.2694
68525SOL    HW123567  13.030  13.565   1.501 -0.8131 -0.2489  0.0045
68525SOL    HW223568  12.961  13.697   1.526  1.1505  0.7094  0.5693
68526SOL     OW23569  11.583   2.710   3.402  0.3270 -0.6703  0.9538
68526SOL    HW123570  11.630   2.773   3.348  0.8528 -1.2178  0.7708
68526SOL    HW223571  11.624   2.625   3.383 -1.3475 -1.3238  0.0539
68527SOL     OW23572  13.454   7.326  11.726 -0.0624 -0.4556  0.3054
68527SOL    HW123573  13.472   7.266  11.798  1.2480  0.7280  1.0028
68527SOL    HW223574  13.472   7.413  11.762 -2.3403  0.4379 -0.5335
68528SOL     OW23575   6.407  10.050  12.266 -0.3818 -0.5004 -0.1314
68528SOL    HW123576   6.451  10.043  12.181  1.1292 -1.0996  0.6665
68528SOL    HW223577   6.350   9.974  12.270  0.3890 -1.0906 -0.1537
68529SOL     OW23578   2.959   2.456   4.514 -0.2207  0.6399 -0.1836
68529SOL    HW123579   3.033   2.402   4.540 -0.7397  0.5399  1.1646
68529SOL    HW223580   2.945   2.436   4.422 -0.3814 -1.5131  0.2723
68530SOL     OW23581  11.288   9.181   6.857  0.5180 -0.2290  1.2139
68530SOL    HW123582  11.342   9.102   6.851 -0.1581 -0.5840 -0.9690
68530SOL    HW223583  11.346   9.252   6.829 -0.5199 -0.8970 -3.5605
68531SOL     OW23584   0.944   0.766   0.974 -0.8320 -0.0824 -0.3218
68531SOL    HW123585   1.032   0.747   1.006 -1.6118  0.4215  2.4261
68531SOL    HW223586   0.954   0.844   0.919  0.6505 -1.1126 -1.5521
68532SOL     OW23587   1.092   4.645   1.569 -0.4335 -0.0347 -0.4571
68532SOL    HW123588   1.157   4.643   1.499  0.2361  2.1824  0.0108
68532SOL    HW223589   1.138   4.609   1.645 -0.4624 -0.4676 -0.6429
68533SOL     OW23590  10.197  11.616   2.955  0.8455  0.3725  0.1126
68533SOL    HW123591  10.122  11.573   2.996  0.4979  1.5178  0.7088
68533SOL    HW223592  10.266  11.614   3.021  0.8085  0.7937  0.1615
68534SOL     OW23593   3.747  12.561   7.096 -0.3049 -0.2834  0.4863
68534SOL    HW123594   3.755  12.468   7.072  0.6260  0.1643 -1.0882
68534SOL    HW223595   3.834  12.598   7.078 -0.7683  0.9707  0.7306
68535SOL     OW23596  12.208   7.255   7.751  0.0307 -0.1445 -0.5730
68535SOL    HW123597  12.132   7.262   7.693  0.2823  0.1651 -0.8745
68535SOL    HW223598  12.224   7.160   7.757  1.4136 -0.1541 -2.9401
68536SOL     OW23599   9.911   7.384   9.851 -0.0700 -0.6734 -0.2214
68536SOL    HW123600   9.892   7.405   9.760  0.0611  1.2234  0.1623
68536SOL    HW223601   9.837   7.330   9.879 -0.9849  0.1683 -0.9570
68537SOL     OW23602  10.004   8.069   6.622  0.2364 -0.1063  0.3208
68537SOL    HW123603  10.046   8.138   6.672 -0.7727  0.8110 -0.0506
68537SOL    HW223604  10.059   8.058   6.545 -0.7406  1.8805 -0.7282
68538SOL     OW23605   4.733  12.882   9.607 -0.2481  0.4104  0.2761
68538SOL    HW123606   4.761  12.803   9.654 -0.2532  0.5940  0.5922
68538SOL    HW223607   4.806  12.943   9.619  0.3228  0.0281 -1.0425
68539SOL     OW23608   5.877  11.435   7.314 -0.5024  0.3866  0.0775
68539SOL    HW123609   5.879  11.421   7.219  1.4668 -0.0793  0.1421
68539SOL    HW223610   5.889  11.348   7.351 -0.6680  0.6432  0.7341
68540SOL     OW23611  13.834   8.465  10.651 -0.6801  0.1535  0.1634
68540SOL    HW123612  13.780   8.408  10.597 -1.4868  1.0916 -0.0548
68540SOL    HW223613  13.882   8.519  10.589  0.4626 -0.6069  0.3596
68541SOL     OW23614  12.308  13.536   1.050 -0.3188 -0.4380  0.0807
68541SOL    HW123615  12.222  13.515   1.086  0.3314 -1.2422  1.2367
68541SOL    HW223616  12.318  13.630   1.064 -0.5682 -0.5359  0.9596
68542SOL     OW23617  11.945  10.129   9.751 -0.1125  0.0204  0.2036
68542SOL    HW123618  11.884  10.058   9.729  1.2275 -0.6336 -1.6433
68542SOL    HW223619  11.935  10.140   9.846 -1.5354 -1.5127  0.2911
68543SOL     OW23620  12.182   6.363   9.032 -0.1960  0.0274  0.3902
68543SOL    HW123621  12.264   6.398   8.995 -1.2016  2.0865 -0.0494
68543SOL    HW223622  12.210   6.310   9.106  1.5500  0.4936  0.1163
68544SOL     OW23623  12.695  10.416   4.979  0.1636  0.1908  0.0306
68544SOL    HW123624  12.685  10.349   4.912  1.3216 -0.5755  0.6050
68544SOL    HW223625  12.738  10.372   5.052  1.5091  1.6807  0.2033
68545SOL     OW23626  11.286   5.221   5.240 -0.0366 -0.3886 -0.1654
68545SOL    HW123627  11.344   5.295   5.223 -1.1634  1.2213  2.2993
68545SOL    HW223628  11.204   5.243   5.196 -0.0201 -0.7400 -0.3780
68546SOL     OW23629  10.008  12.543   9.070 -0.2590 -0.1661  0.8198
68546SOL    HW123630   9.988  12.634   9.051  2.0675  0.4806  1.2172
68546SOL    HW223631  10.082  12.546   9.131 -2.8896 -2.2592  4.5650
68547SOL     OW23632   6.080   4.178   0.687 -0.0708  0.1921  0.2346
68547SOL    HW123633   6.157   4.220   0.726  0.9428  0.1648 -1.6242
68547SOL    HW223634   6.102   4.085   0.683 -0.6346  0.0341  0.5939
68548SOL     OW23635  11.231   1.689   2.437 -0.3865 -0.0469  0.1578
68548SOL    HW123636  11.261   1.733   2.358 -0.9861 -0.1835 -0.1482
68548SOL    HW223637  11.287   1.612   2.445 -0.3283 -0.0336 -0.1354
68549SOL     OW23638   2.529   8.362   9.019  0.1204  0.2469 -0.2837
68549SOL    HW123639   2.545   8.434   9.081 -0.2982  0.4990 -0.4648
68549SOL    HW223640   2.553   8.283   9.068 -0.5924  0.4088  0.3502
68550SOL     OW23641   9.094   0.808   1.213  0.0442 -0.0903  0.1239
68550SOL    HW123642   9.027   0.848   1.268 -1.9763 -0.3636 -1.9520
68550SOL    HW223643   9.109   0.722   1.252 -0.6091  0.1058  0.8236
68551SOL     OW23644   9.960  11.859   4.800  0.6643  0.2003  0.1753
68551SOL    HW123645  10.045  11.904   4.800 -0.5478  2.7107 -0.7467
68551SOL    HW223646   9.898  11.928   4.824 -1.2023 -1.3941  0.1010
68552SOL     OW23647   3.348  13.284   3.930 -0.6096  0.7195  0.3762
68552SOL    HW123648   3.388  13.342   3.995 -0.5763 -0.3021  1.2898
68552SOL    HW223649   3.266  13.328   3.907 -0.9668  0.7675  1.6372
68553SOL     OW23650   6.906   2.441   8.964 -0.0924 -0.5624 -0.0756
68553SOL    HW123651   6.854   2.383   9.020 -0.2389 -0.2469  0.1181
68553SOL    HW223652   6.974   2.476   9.022 -0.9016  0.6118  0.1884
68554SOL     OW23653  11.358   9.940   2.324  0.3296 -0.2596 -0.0608
68554SOL    HW123654  11.307   9.859   2.327 -0.0490 -0.0351 -0.4136
68554SOL    HW223655  11.393   9.949   2.413  0.5143 -0.8962 -0.0581
68555SOL     OW23656  12.991  13.115  11.816  0.0642 -0.4895  0.5139
68555SOL    HW123657  13.005  13.066  11.897 -0.8264  0.0823  1.0296
68555SOL    HW223658  12.936  13.189  11.841  0.2547  0.0254 -0.5079
68556SOL     OW23659   2.306   3.266   4.947  0.2162  0.1120  0.0767
68556SOL    HW123660   2.232   3.291   5.002  0.2977 -2.2011  1.3736
68556SOL    HW223661   2.285   3.302   4.861 -1.8122  0.5890  0.7117
68557SOL     OW23662   3.070  13.009   1.986 -0.2929 -0.3574 -0.2169
68557SOL    HW123663   3.122  12.942   1.943  0.6001  0.8005 -1.0067
68557SOL    HW223664   3.101  13.091   1.948 -2.9994  0.3801 -1.0312
68558SOL     OW23665   1.994   9.122  12.272  0.1335 -0.0343 -0.4401
68558SOL    HW123666   2.010   9.051  12.334 -0.6065 -0.2428 -0.4762
68558SOL    HW223667   1.943   9.081  12.202 -0.1569  0.4929 -0.5423
68559SOL     OW23668   1.737  11.692  12.765  0.2614  0.5345  0.2973
68559SOL    HW123669   1.656  11.741  12.766  0.3304  0.6425  0.8774
68559SOL    HW223670   1.770  11.701  12.676  1.4051  3.4304  0.9013
68560SOL     OW23671   6.342   7.762  12.152  0.1866  0.5477  0.2511
68560SOL    HW123672   6.404   7.752  12.080 -0.2756 -0.6987  0.0098
68560SOL    HW223673   6.396   7.759  12.231  0.5137  0.2153  0.0173
68561SOL     OW23674  11.863   0.459   3.072  0.3504 -0.0018  0.6259
68561SOL    HW123675  11.896   0.509   2.998  0.6605  1.0723  1.4683
68561SOL    HW223676  11.941   0.429   3.118  0.2374  2.0556  2.2975
68562SOL     OW23677   4.448   0.504   9.956  0.4319 -0.0713 -0.5945
68562SOL    HW123678   4.507   0.473  10.025 -0.2713  1.8680  0.9601
68562SOL    HW223679   4.412   0.424   9.918  0.9871 -1.2214  1.1534
68563SOL     OW23680   6.504   1.530   9.351  0.1343  0.0513 -0.1718
68563SOL    HW123681   6.477   1.524   9.442  1.3804 -0.6008  0.1769
68563SOL    HW223682   6.447   1.598   9.313 -2.4465 -1.6944  0.3028
68564SOL     OW23683   4.620   0.959   6.479  0.3648  0.0010 -0.1048
68564SOL    HW123684   4.556   0.969   6.408  0.7085 -1.2221 -0.6113
68564SOL    HW223685   4.702   0.991   6.441  1.0466 -2.6719 -1.0820
68565SOL     OW23686   3.204   8.484   3.688 -0.4105 -0.4365  0.6160
68565SOL    HW123687   3.142   8.556   3.677  0.3177  0.4304  1.9144
68565SOL    HW223688   3.269   8.517   3.750 -1.2589 -2.9405  3.0854
68566SOL     OW23689  13.310   5.428   3.446 -0.5767  0.7540  0.4815
68566SOL    HW123690  13.387   5.379   3.417 -1.5690  0.4020 -1.8024
68566SOL    HW223691  13.244   5.361   3.463 -0.7615  1.1205  1.2641
68567SOL     OW23692  12.466   6.663   5.524  0.3491  0.1316  0.2929
68567SOL    HW123693  12.410   6.737   5.549 -0.5575 -0.4645  0.0902
68567SOL    HW223694  12.423   6.587   5.564  0.5350 -0.4540 -0.5979
68568SOL     OW23695  10.509   2.728   0.670  0.4282  0.1765  0.4279
68568SOL    HW123696  10.442   2.682   0.619  1.8155  0.5402 -1.9156
68568SOL    HW223697  10.506   2.688   0.756 -2.0631 -0.5182  0.0857
68569SOL     OW23698  12.290   2.253   8.277  0.3302 -0.4377 -0.5970
68569SOL    HW123699  12.377   2.216   8.296  0.3881 -0.0873 -0.1816
68569SOL    HW223700  12.306   2.313   8.204  0.6760  0.5637  0.2674
68570SOL     OW23701  13.986   0.764  10.276  0.0972 -0.2508 -0.3960
68570SOL    HW123702  14.080   0.761  10.259 -0.2890  0.6031 -3.1136
68570SOL    HW223703  13.947   0.716  10.203 -1.6184 -0.6833  0.7403
68571SOL     OW23704   1.321  11.928   2.255  0.8740 -0.2349 -1.0870
68571SOL    HW123705   1.322  11.927   2.350 -0.0841 -1.4233 -1.0607
68571SOL    HW223706   1.286  12.015   2.232  3.3587  1.0100 -0.4622
68572SOL     OW23707   9.801   5.632   2.865  0.2345  0.0963 -0.2241
68572SOL    HW123708   9.819   5.578   2.789  1.2883  0.4025 -0.2057
68572SOL    HW223709   9.715   5.603   2.895  1.4094 -2.7157  0.7685
68573SOL     OW23710   6.668   3.392   1.031  0.4525 -0.0717  0.4459
68573SOL    HW123711   6.714   3.432   0.957 -1.0951  0.6560 -0.1578
68573SOL    HW223712   6.611   3.326   0.992 -1.9015  1.6831  0.6536
68574SOL     OW23713  13.434   6.730  12.198 -0.2123 -0.1491 -0.3936
68574SOL    HW123714  13.416   6.689  12.113  1.0288 -1.8813  0.1159
68574SOL    HW223715  13.369   6.692  12.257 -0.4931  0.3609 -0.3680
68575SOL     OW23716   0.586   7.420   3.969  0.4385  0.2883  0.0349
68575SOL    HW123717   0.559   7.413   3.878  1.5454  0.1309 -0.2890
68575SOL    HW223718   0.519   7.370   4.017  0.8645 -1.2339 -0.8870
68576SOL     OW23719   7.741  13.917   2.077 -0.1131 -0.5406  0.0787
68576SOL    HW123720   7.736  13.867   2.158  2.3919  0.0416  0.6801
68576SOL    HW223721   7.664  13.974   2.079 -0.4256 -0.9791  1.7373
68577SOL     OW23722  12.297  10.115   4.213  0.9539 -0.0490 -0.1705
68577SOL    HW123723  12.354  10.053   4.258  2.5817  1.1254 -0.4804
68577SOL    HW223724  12.272  10.178   4.280  0.6350 -0.1500 -0.1947
68578SOL     OW23725   2.800   6.375  14.009  0.2668  0.2113 -0.1565
68578SOL    HW123726   2.832   6.411  14.092 -1.1283  0.7347  0.1779
68578SOL    HW223727   2.725   6.430  13.986 -0.6099 -1.1560 -0.7243
68579SOL     OW23728  12.198   7.222   6.983  0.1852 -0.2309  0.1620
68579SOL    HW123729  12.172   7.223   6.891  1.4566  1.5952 -0.2201
68579SOL    HW223730  12.125   7.262   7.029 -0.8337 -1.9259  0.1138
68580SOL     OW23731   8.513   3.139   8.309 -0.2883  0.2646 -0.2643
68580SOL    HW123732   8.484   3.181   8.228 -0.4519 -0.4437 -0.5799
68580SOL    HW223733   8.600   3.104   8.288  0.4103  1.5266  0.3816
68581SOL     OW23734   2.842   7.384  13.737 -0.5352 -0.7170  0.0418
68581SOL    HW123735   2.877   7.446  13.801 -0.1433 -1.1833  0.2793
68581SOL    HW223736   2.911   7.377  13.670 -0.7561 -0.5767 -0.2036
68582SOL     OW23737  13.184   6.339   3.829 -0.1082  0.1537 -0.0788
68582SOL    HW123738  13.179   6.253   3.788 -1.3804  0.6363 -1.0208
68582SOL    HW223739  13.244   6.389   3.773  0.7474 -0.1294  0.5504
68583SOL     OW23740   5.245   3.743   7.765  0.0097 -0.1462 -0.0713
68583SOL    HW123741   5.225   3.823   7.718  1.5353 -1.0654 -2.4951
68583SOL    HW223742   5.240   3.767   7.858 -1.8977  2.0782 -0.6672
68584SOL     OW23743   8.534   8.904   9.735  0.3213 -0.1788 -0.2568
68584SOL    HW123744   8.600   8.885   9.802 -0.0727  0.3213  0.2803
68584SOL    HW223745   8.546   8.835   9.670  0.3733 -0.9672  0.5697
68585SOL     OW23746   9.789   0.124  12.579 -0.5729 -0.3706  0.1738
68585SOL    HW123747   9.880   0.153  12.584 -0.8666  0.6651 -0.3120
68585SOL    HW223748   9.781   0.060  12.650 -0.5064  2.4618  2.9940
68586SOL     OW23749   3.642   6.502   0.839 -0.4062 -0.3582 -0.4315
68586SOL    HW123750   3.696   6.496   0.760 -2.0195 -1.9871 -1.4990
68586SOL    HW223751   3.557   6.532   0.808 -0.0834  2.7829  1.3017
68587SOL     OW23752   7.020   9.850  13.812 -0.2070 -0.8428  0.0035
68587SOL    HW123753   6.995   9.760  13.835 -0.4862 -1.1020 -1.2364
68587SOL    HW223754   7.098   9.840  13.757 -0.2620 -0.3284 -0.1731
68588SOL     OW23755   4.760   5.980   2.509  0.1741  0.5094  0.0412
68588SOL    HW123756   4.772   5.908   2.570 -1.0408 -0.4239 -0.7768
68588SOL    HW223757   4.672   5.968   2.474  0.6549  1.2788 -1.5371
68589SOL     OW23758   9.921   2.438  11.786 -0.1096  0.2738  0.1617
68589SOL    HW123759   9.919   2.522  11.740 -1.0348  1.0712  1.6052
68589SOL    HW223760   9.840   2.436  11.837  0.3108 -1.1139  0.8321
68590SOL     OW23761   8.516   2.035   4.574  0.0804  0.6157  0.0579
68590SOL    HW123762   8.443   1.973   4.577  1.2701 -0.8577 -0.5074
68590SOL    HW223763   8.550   2.037   4.663  2.4183 -2.5810 -0.5958
68591SOL     OW23764   4.016  10.035   0.082 -0.1186  0.2110 -0.1067
68591SOL    HW123765   4.054  10.017  -0.004 -0.2000  2.0135 -0.5631
68591SOL    HW223766   3.991   9.949   0.116  1.2984 -0.6929 -1.2180
68592SOL     OW23767   1.587   1.341   8.983 -0.6807 -0.3892  0.0849
68592SOL    HW123768   1.516   1.403   8.966 -1.0691 -1.4045 -2.4101
68592SOL    HW223769   1.667   1.392   8.971 -1.0051 -0.0305 -0.6447
68593SOL     OW23770   8.843  10.212   4.105 -0.1848 -0.1817 -0.8210
68593SOL    HW123771   8.806  10.290   4.065  0.3359  0.3129 -0.3443
68593SOL    HW223772   8.780  10.188   4.173 -0.1910 -0.0058 -0.7649
68594SOL     OW23773  12.103   9.376  10.452  0.3795  0.4341  0.7669
68594SOL    HW123774  12.189   9.417  10.463 -0.5483  1.9210  3.3449
68594SOL    HW223775  12.040   9.449  10.460 -1.2165 -1.0084  1.9969
68595SOL     OW23776  12.826   1.676   5.669 -0.1917 -0.4964  0.4717
68595SOL    HW123777  12.873   1.596   5.695 -0.3497 -1.1231 -1.0609
68595SOL    HW223778  12.744   1.644   5.630 -1.2434  0.5266  1.7785
68596SOL     OW23779  13.907   1.196   7.394 -0.4263 -0.5814 -0.1753
68596SOL    HW123780  13.951   1.270   7.351 -1.8358  0.0858 -0.5435
68596SOL    HW223781  13.957   1.119   7.367  0.1635  0.0828 -1.0389
68597SOL     OW23782   9.974  13.031   3.419 -0.0238  0.2703  0.0448
68597SOL    HW123783  10.044  12.993   3.471 -2.0813 -1.3507  1.8232
68597SOL    HW223784   9.949  12.962   3.358 -0.9697  0.3020  0.3762
68598SOL     OW23785  12.854   7.842   1.082 -0.1294 -0.8178  0.5715
68598SOL    HW123786  12.870   7.927   1.041 -1.2051 -0.3652  1.0605
68598SOL    HW223787  12.912   7.840   1.158  0.9828 -1.1549 -0.2635
68599SOL     OW23788   0.905   9.225   8.492  0.2472  0.0837 -0.8033
68599SOL    HW123789   0.845   9.176   8.548  0.8156 -0.5108 -0.7056
68599SOL    HW223790   0.907   9.176   8.410 -0.7828  1.0901 -1.4659
68600SOL     OW23791   5.130   7.579  11.274 -0.2955 -0.4200  0.2108
68600SOL    HW123792   5.141   7.647  11.341  0.3298  2.0389 -2.2020
68600SOL    HW223793   5.040   7.550  11.284  0.0747 -0.9479  2.7431
68601SOL     OW23794   0.471   9.568   0.981  0.2802 -0.3262 -0.2189
68601SOL    HW123795   0.499   9.520   1.058 -0.2663  0.7999  0.7161
68601SOL    HW223796   0.543   9.558   0.919  0.7873 -1.1463  0.4800
68602SOL     OW23797   9.573   7.452   4.041  0.5239 -0.1504  0.2055
68602SOL    HW123798   9.503   7.389   4.027  1.1236 -0.9425  0.7031
68602SOL    HW223799   9.528   7.537   4.046 -0.2995 -0.5436 -0.3159
68603SOL     OW23800   7.881   9.594   1.729 -0.4482 -0.1476  0.6089
68603SOL    HW123801   7.906   9.616   1.639  1.6721 -1.8754  0.7042
68603SOL    HW223802   7.830   9.670   1.759  0.1859  1.1896 -1.4922
68604SOL     OW23803   8.056   6.396  13.767  0.2085  0.0619  0.5481
68604SOL    HW123804   8.113   6.358  13.834  0.1606 -2.9078 -0.9460
68604SOL    HW223805   8.115   6.412  13.693 -0.5223 -1.3666 -0.3848
68605SOL     OW23806   8.942   4.966   1.909  0.0391 -0.1132 -0.0324
68605SOL    HW123807   9.002   5.015   1.853  0.2398  0.4238  0.6466
68605SOL    HW223808   8.887   5.032   1.951 -1.0699 -0.5953 -0.6708
68606SOL     OW23809   8.090   6.053  13.481 -0.0723 -0.1932 -0.5078
68606SOL    HW123810   8.041   6.026  13.559  0.5052  1.2416  0.3875
68606SOL    HW223811   8.141   6.129  13.510  0.3436  0.2157 -2.2283
68607SOL     OW23812   7.436   2.529   8.080  0.4207 -0.2512 -0.4894
68607SOL    HW123813   7.468   2.612   8.115 -0.7205 -0.4121  1.0417
68607SOL    HW223814   7.490   2.462   8.122  0.2290 -0.3627 -0.4180
68608SOL     OW23815  13.726  11.620  10.992 -0.7608 -0.3304  0.3744
68608SOL    HW123816  13.737  11.693  11.052 -1.1680 -0.1287  0.2071
68608SOL    HW223817  13.800  11.562  11.011  1.0659  1.3063 -1.2341
68609SOL     OW23818  13.385   0.440   5.343  0.4042  0.4251  0.0215
68609SOL    HW123819  13.450   0.508   5.363 -0.0560  0.5630  1.1342
68609SOL    HW223820  13.338   0.427   5.426  0.1690 -0.9213 -0.2992
68610SOL     OW23821   2.446   9.460   2.246  0.1997 -0.1553 -0.3226
68610SOL    HW123822   2.382   9.481   2.178 -0.8840 -0.1747  0.6677
68610SOL    HW223823   2.461   9.543   2.291  0.6876 -0.2068 -0.3828
68611SOL     OW23824   6.218   9.799   0.298 -0.2700  0.4315 -0.2393
68611SOL    HW123825   6.194   9.888   0.271 -0.1203  0.3546 -0.6309
68611SOL    HW223826   6.306   9.786   0.263 -0.6864 -0.2367 -1.0816
68612SOL     OW23827  12.965  13.763   9.412  0.1344  0.0739 -0.4086
68612SOL    HW123828  12.876  13.782   9.383 -1.0162  0.8073  3.0828
68612SOL    HW223829  12.979  13.671   9.391 -0.8687  0.2951 -2.2206
68613SOL     OW23830  12.272   5.190   0.674  0.0430 -0.3006  0.0339
68613SOL    HW123831  12.354   5.235   0.656 -0.1920  0.8960  1.6797
68613SOL    HW223832  12.298   5.104   0.708  0.5841 -0.2323 -0.2011
68614SOL     OW23833   9.514   0.725  10.395  0.0155  0.0600  0.3263
68614SOL    HW123834   9.557   0.777  10.463 -0.7540 -0.7477  1.4623
68614SOL    HW223835   9.505   0.786  10.321  0.7326  1.0006  0.9761
68615SOL     OW23836   3.791  11.240   8.831 -0.0678  0.0058  0.0056
68615SOL    HW123837   3.788  11.240   8.927 -1.3642 -2.7743  0.0784
68615SOL    HW223838   3.710  11.283   8.804 -1.2283 -1.8717  0.2999
68616SOL     OW23839   9.446  10.846   2.273 -0.2753  0.1370  0.4454
68616SOL    HW123840   9.487  10.931   2.289  1.0790 -0.4148  0.0687
68616SOL    HW223841   9.388  10.861   2.198 -0.8316  0.9442  1.0152
68617SOL     OW23842   7.780  13.738   3.867 -0.0214 -0.0266  0.0694
68617SOL    HW123843   7.689  13.750   3.894 -0.1736  0.4730 -0.6347
68617SOL    HW223844   7.774  13.707   3.777  0.5078  0.1862 -0.0436
68618SOL     OW23845   5.303  12.754   1.712 -0.2758  0.6659  0.0086
68618SOL    HW123846   5.325  12.800   1.793 -2.7830  0.7155  0.7643
68618SOL    HW223847   5.362  12.679   1.710  0.9989  1.6049  0.9701
68619SOL     OW23848   4.820  10.552  10.692 -0.5177 -0.3890 -0.1137
68619SOL    HW123849   4.784  10.538  10.605  1.5293 -0.1056 -1.0625
68619SOL    HW223850   4.743  10.558  10.749 -2.1942  3.1883 -2.4094
68620SOL     OW23851  10.873  12.803   0.044  0.3963  0.3852  0.3619
68620SOL    HW123852  10.930  12.878   0.057  0.3476  0.3734  0.6703
68620SOL    HW223853  10.899  12.741   0.113 -0.8082  0.8914  1.3140
68621SOL     OW23854   5.852  10.955   1.234  0.0846  0.0860 -0.2015
68621SOL    HW123855   5.937  10.950   1.279  0.8046  0.8870 -1.4279
68621SOL    HW223856   5.841  10.868   1.195  0.5164  0.0992 -0.3563
68622SOL     OW23857  12.942  12.537   0.273 -0.4378  0.3680  0.3236
68622SOL    HW123858  13.001  12.602   0.235  1.5663 -2.5017 -1.9729
68622SOL    HW223859  12.995  12.492   0.339 -0.5456 -1.1856 -0.6017
68623SOL     OW23860   9.493   8.295   3.561 -0.3261 -0.6325  0.1275
68623SOL    HW123861   9.408   8.336   3.580 -0.5621 -1.1009  0.1115
68623SOL    HW223862   9.481   8.257   3.474  0.3608  0.4928 -0.4913
68624SOL     OW23863  14.081  11.128   6.048 -0.2110 -0.0812  0.3459
68624SOL    HW123864  14.061  11.108   5.957  1.1845 -0.0087 -0.0127
68624SOL    HW223865  14.070  11.045   6.095  2.1895 -0.9570 -0.5040
68625SOL     OW23866   9.396  10.276  12.032  0.8712 -0.0455  0.1051
68625SOL    HW123867   9.449  10.282  12.112 -0.8243  1.4594  1.1828
68625SOL    HW223868   9.381  10.367  12.005 -1.2108 -0.3761 -0.0704
68626SOL     OW23869   5.314   1.828  12.043  0.8563 -0.4848  0.5069
68626SOL    HW123870   5.234   1.780  12.022  1.1071  0.4013 -3.1088
68626SOL    HW223871   5.286   1.899  12.101 -0.8957 -0.5451 -0.2140
68627SOL     OW23872  13.105   6.912   4.948 -0.0065 -0.2744 -0.0597
68627SOL    HW123873  13.144   6.868   4.872  0.6532 -0.6781  0.4967
68627SOL    HW223874  13.125   7.004   4.936 -2.1305  0.0459 -1.6764
68628SOL     OW23875  11.608   5.194   4.610 -0.2689  0.3991  0.2209
68628SOL    HW123876  11.558   5.243   4.676 -0.7516  0.7188 -0.3648
68628SOL    HW223877  11.614   5.254   4.536  2.5029  1.0399  0.8676
68629SOL     OW23878   5.402   8.968   3.837  0.2589  0.3468  0.5984
68629SOL    HW123879   5.433   8.881   3.862  1.2264  0.6500  0.5264
68629SOL    HW223880   5.360   8.955   3.752  1.4652  0.1228  0.0123
68630SOL     OW23881   7.183   3.992   2.411  0.1192  0.1388 -0.1398
68630SOL    HW123882   7.261   3.942   2.435 -0.5692  0.9231  4.8365
68630SOL    HW223883   7.114   3.926   2.400  0.7934 -0.3771 -1.3561
68631SOL     OW23884  13.917   1.644   1.131 -0.1362 -0.1639 -0.0580
68631SOL    HW123885  13.908   1.691   1.214  1.3516 -2.2891  1.4023
68631SOL    HW223886  13.830   1.648   1.091 -0.7452  1.3850  1.3187
68632SOL     OW23887   2.626  11.807   0.102  0.6045  0.0789  0.1083
68632SOL    HW123888   2.564  11.780   0.034 -1.5638 -0.8835  2.3021
68632SOL    HW223889   2.612  11.901   0.111 -0.7532 -0.1551  0.6958
68633SOL     OW23890   5.412  10.139  10.075 -0.4010 -0.2744  0.2176
68633SOL    HW123891   5.334  10.085  10.091  0.9015 -2.9326 -1.8074
68633SOL    HW223892   5.481  10.096  10.125  0.5579 -0.2073 -1.0141
68634SOL     OW23893   5.430  11.293   9.749 -0.1316 -0.2272 -0.3281
68634SOL    HW123894   5.423  11.228   9.679 -0.9571 -0.3732 -0.1214
68634SOL    HW223895   5.470  11.370   9.707 -1.5025  0.0350 -1.2111
68635SOL     OW23896   1.915  13.682   9.091 -0.4095 -0.2041 -0.0477
68635SOL    HW123897   1.857  13.758   9.104  3.3821  3.4817 -2.2173
68635SOL    HW223898   1.956  13.668   9.176  0.7260  2.0701 -0.1513
68636SOL     OW23899  12.184  11.276   4.353  0.2805  0.0576 -0.1767
68636SOL    HW123900  12.280  11.271   4.355  0.3798  0.9541 -1.3545
68636SOL    HW223901  12.166  11.365   4.321 -0.9012 -0.8482 -2.2081
68637SOL     OW23902   2.211  11.663   9.650 -0.3968 -0.0192 -0.1258
68637SOL    HW123903   2.179  11.573   9.650 -1.2241  0.2647 -0.6196
68637SOL    HW223904   2.132  11.717   9.660 -0.0374  0.6794 -0.8918
68638SOL     OW23905   1.003  11.562   3.956 -0.1115 -0.0875 -0.1748
68638SOL    HW123906   1.048  11.478   3.952 -0.1774 -0.2834  1.9708
68638SOL    HW223907   1.024  11.596   4.043 -0.1608  2.0954 -0.9618
68639SOL     OW23908   2.979   2.554  10.425 -0.2684 -0.3562  0.2937
68639SOL    HW123909   2.925   2.484  10.387 -1.3973  0.8428 -0.4341
68639SOL    HW223910   2.939   2.634  10.391  0.9052  0.6421  1.2157
68640SOL     OW23911   1.086   4.044   9.928  0.5080 -0.6333 -0.1026
68640SOL    HW123912   1.024   4.006   9.865 -1.0909  0.6385  0.6236
68640SOL    HW223913   1.116   3.969   9.979 -2.5306 -1.0842  1.2836
68641SOL     OW23914   0.806   7.331  10.966 -0.0828 -0.1503  0.1572
68641SOL    HW123915   0.792   7.287  11.049 -0.5470  0.0556  0.1917
68641SOL    HW223916   0.764   7.416  10.976 -0.8771 -0.4393 -0.5666
68642SOL     OW23917   6.095   6.696  11.350  0.7057 -0.0308  0.2862
68642SOL    HW123918   6.133   6.629  11.407  2.5291  0.7966  0.1073
68642SOL    HW223919   6.000   6.686  11.361  0.9607 -1.7316  1.2861
68643SOL     OW23920   4.296   9.539   6.514  0.4434 -0.6794 -0.3654
68643SOL    HW123921   4.313   9.620   6.562 -0.5538 -0.6523 -0.0270
68643SOL    HW223922   4.269   9.567   6.427  0.3364 -0.6516 -0.3237
68644SOL     OW23923   5.342  12.512   7.475  0.4066 -0.2930  0.4657
68644SOL    HW123924   5.378  12.549   7.394  1.1698 -2.2263 -0.1457
68644SOL    HW223925   5.369  12.420   7.473  0.1795 -0.4665  2.7864
68645SOL     OW23926   3.141   3.340   8.890  0.1526  0.7442  0.4258
68645SOL    HW123927   3.183   3.267   8.936  0.9790  0.5475 -0.5906
68645SOL    HW223928   3.209   3.374   8.832  0.7428  4.2362  2.8968
68646SOL     OW23929  13.866  11.206  10.818 -0.0320  0.0703  0.3677
68646SOL    HW123930  13.849  11.235  10.908  1.8144  0.6737  0.5554
68646SOL    HW223931  13.940  11.146  10.826  0.1028  0.0743 -0.7579
68647SOL     OW23932   3.772   0.800  11.743  0.0343  0.4860  0.0317
68647SOL    HW123933   3.726   0.787  11.826  1.3509 -1.1628  0.5437
68647SOL    HW223934   3.807   0.714  11.721 -1.4828  0.5123 -2.9977
68648SOL     OW23935   6.147   1.718  11.990 -0.2425  0.9154  0.1114
68648SOL    HW123936   6.150   1.712  12.085 -0.4317  2.3339  0.2262
68648SOL    HW223937   6.056   1.740  11.970 -0.2948  0.2296 -0.4320
68649SOL     OW23938   9.983  12.139   6.633 -0.0556 -0.2832  0.3532
68649SOL    HW123939   9.922  12.093   6.576 -0.8541 -0.0892  1.0340
68649SOL    HW223940   9.940  12.222   6.652  0.3867 -0.1720  0.8956
68650SOL     OW23941   2.889  12.123   7.332 -0.3521 -0.1748 -0.3416
68650SOL    HW123942   2.870  12.071   7.410 -2.5013 -0.2359 -0.8301
68650SOL    HW223943   2.809  12.117   7.279 -0.2182  2.5959 -1.0033
68651SOL     OW23944  10.299   6.592   8.177 -0.8315 -0.1952  0.5002
68651SOL    HW123945  10.224   6.533   8.181 -0.8548 -0.2675 -0.6143
68651SOL    HW223946  10.339   6.587   8.264 -2.1271 -0.1287  1.1183
68652SOL     OW23947   5.718   0.242   9.846 -0.0067 -0.1816  0.6576
68652SOL    HW123948   5.671   0.220   9.926 -2.1110 -0.3436 -0.5728
68652SOL    HW223949   5.654   0.285   9.791  0.8390 -1.7662 -1.7229
68653SOL     OW23950  10.401   2.365   0.045 -0.0714 -0.4412  0.5010
68653SOL    HW123951  10.372   2.275   0.055  0.8544 -0.5983  2.0322
68653SOL    HW223952  10.472   2.360  -0.019  0.8326 -1.0087  1.5205
68654SOL     OW23953   9.107  11.483   6.935  0.3034  0.0017  0.0647
68654SOL    HW123954   9.097  11.565   6.983  0.2784 -0.5623  1.0434
68654SOL    HW223955   9.044  11.423   6.976  0.6899 -0.6621 -0.2962
68655SOL     OW23956   9.672   5.638   3.801  0.4099  0.0545 -0.0666
68655SOL    HW123957   9.759   5.664   3.829  1.3342 -1.2408 -1.6029
68655SOL    HW223958   9.678   5.629   3.706 -1.5753  0.5434 -0.2875
68656SOL     OW23959   4.885  11.372   3.272  0.1926  0.1906  0.2129
68656SOL    HW123960   4.958  11.311   3.282 -0.0234 -0.6400 -2.4117
68656SOL    HW223961   4.823  11.348   3.341  0.8937 -1.4045  0.3283
68657SOL     OW23962  13.895   7.393   1.773 -0.1425  0.2725 -0.2204
68657SOL    HW123963  13.892   7.486   1.750 -0.0018  0.3017 -0.1275
68657SOL    HW223964  13.804   7.365   1.774 -0.1813  0.3950 -0.3114
68658SOL     OW23965   2.629   9.952   2.660  0.0029 -0.9191 -0.3912
68658SOL    HW123966   2.619   9.951   2.755  0.7931 -0.3769 -0.2932
68658SOL    HW223967   2.556  10.005   2.629  1.3410  1.4167  0.1688
68659SOL     OW23968  13.369   5.156  11.774  0.2402 -0.1886 -0.6033
68659SOL    HW123969  13.323   5.187  11.853  1.7329  1.1275 -0.2158
68659SOL    HW223970  13.329   5.070  11.757 -0.0113 -0.6104  1.6931
68660SOL     OW23971   8.344  11.205   1.753  0.3978 -0.1231 -0.3328
68660SOL    HW123972   8.315  11.115   1.765 -0.3395 -0.0077 -1.1141
68660SOL    HW223973   8.411  11.219   1.820 -0.0706 -0.9861  0.3277
68661SOL     OW23974  12.991   2.875   2.506 -0.2343  0.4443 -0.0781
68661SOL    HW123975  12.934   2.949   2.527 -0.2531  0.1717  0.8750
68661SOL    HW223976  12.971   2.809   2.573 -0.7167 -0.7073 -1.3060
68662SOL     OW23977   1.869   8.947  12.075  0.7801 -0.3073 -0.2335
68662SOL    HW123978   1.906   8.870  12.118  2.4049 -0.2623 -1.4501
68662SOL    HW223979   1.832   8.913  11.993 -0.1401 -0.0452  0.0625
68663SOL     OW23980   7.722   8.375   8.352  0.3339 -0.3551  0.1775
68663SOL    HW123981   7.755   8.332   8.273 -0.9184  1.1355 -1.2185
68663SOL    HW223982   7.798   8.422   8.387  0.6132  0.0144 -0.8902
68664SOL     OW23983  12.210  10.013  10.793 -0.1104  0.0331 -0.4770
68664SOL    HW123984  12.122  10.037  10.821  0.5417  0.6936  1.1716
68664SOL    HW223985  12.250  10.096  10.765 -0.0128 -0.2622 -1.2310
68665SOL     OW23986  12.011   3.266  11.259 -0.0159 -0.3338  0.3460
68665SOL    HW123987  11.916   3.267  11.254 -0.0860 -0.9622  1.2517
68665SOL    HW223988  12.034   3.348  11.302  0.0286  0.9048 -1.9145
68666SOL     OW23989   5.329  11.972   5.488  0.0534  0.2243  0.5995
68666SOL    HW123990   5.319  11.914   5.564 -0.6855  1.1040  1.1908
68666SOL    HW223991   5.423  11.993   5.486  0.3087 -0.8802  0.4529
68667SOL     OW23992  11.494   9.226  12.986  0.1324 -0.3288 -0.3816
68667SOL    HW123993  11.426   9.237  12.919 -0.3276  0.7922  0.2310
68667SOL    HW223994  11.575   9.213  12.936  0.2427  3.0033 -1.3075
68668SOL     OW23995   2.602   6.239   9.688  0.6011  0.2130  0.6315
68668SOL    HW123996   2.611   6.331   9.712 -1.0516  1.1979 -2.0851
68668SOL    HW223997   2.690   6.203   9.695  0.9304  1.3514  3.8391
68669SOL     OW23998  11.886   0.530  10.547 -0.5868  0.6768  0.6973
68669SOL    HW123999  11.890   0.517  10.642 -0.3503  1.0632  0.7429
68669SOL    HW224000  11.960   0.481  10.513  0.0854  1.5785  0.8361
68670SOL     OW24001  10.210   0.659   8.804  0.4504  0.2659 -0.2965
68670SOL    HW124002  10.206   0.570   8.840  0.6984  0.0759 -0.7249
68670SOL    HW224003  10.239   0.646   8.714 -3.2887  0.4401 -1.6606
68671SOL     OW24004   8.081  10.078  11.395  0.0636  0.4149 -1.1237
68671SOL    HW124005   8.167  10.041  11.413 -0.8519 -0.9341  0.8226
68671SOL    HW224006   8.043  10.021  11.328 -0.8258 -1.5157  0.9174
68672SOL     OW24007   5.507  12.483   4.659  0.1757  0.4134 -0.4253
68672SOL    HW124008   5.525  12.543   4.731 -0.5457  0.8110 -0.5640
68672SOL    HW224009   5.488  12.399   4.701 -0.6381  0.7407 -0.1224
68673SOL     OW24010   5.412   7.495   4.688  0.0785 -0.3828 -0.6005
68673SOL    HW124011   5.483   7.556   4.665 -1.1098  0.6299 -1.7114
68673SOL    HW224012   5.417   7.426   4.621 -1.3445  0.8683 -2.0688
68674SOL     OW24013   3.161  13.443   3.843 -0.0216  0.0590 -0.0433
68674SOL    HW124014   3.077  13.427   3.801  0.2916 -0.3670 -0.5252
68674SOL    HW224015   3.161  13.537   3.862 -0.7006  0.0182  0.1757
68675SOL     OW24016   2.649   0.283   2.946 -0.1232  0.2222 -0.0067
68675SOL    HW124017   2.740   0.263   2.967 -0.6663 -2.0796  0.4401
68675SOL    HW224018   2.621   0.210   2.890 -1.6198  1.0478 -0.3849
68676SOL     OW24019  11.025   1.701   3.190 -0.3678 -0.1242  0.1078
68676SOL    HW124020  11.111   1.723   3.228  0.0620 -0.4192 -0.6746
68676SOL    HW224021  11.042   1.622   3.138 -0.2283  1.8685 -3.1642
68677SOL     OW24022   2.480   3.185  12.363  0.9014  0.1071  0.4378
68677SOL    HW124023   2.393   3.217  12.387  0.1449 -0.2781 -1.6252
68677SOL    HW224024   2.482   3.094  12.394  0.1834 -0.1881 -0.3575
68678SOL     OW24025  13.269  12.245   2.414  0.0859  0.1586 -0.3293
68678SOL    HW124026  13.293  12.175   2.474 -0.3071 -1.5119 -2.0020
68678SOL    HW224027  13.322  12.320   2.441  1.7904 -1.2844  0.4936
68679SOL     OW24028   1.042   1.207  10.782 -0.5508 -0.3243 -0.1074
68679SOL    HW124029   1.101   1.273  10.819 -0.7437 -0.2151  0.0085
68679SOL    HW224030   0.998   1.252  10.710  2.2214 -1.4541 -2.7136
68680SOL     OW24031   5.352   5.926  12.199 -0.0840  0.0922 -0.0830
68680SOL    HW124032   5.340   5.961  12.110 -0.6267 -0.1220 -0.1005
68680SOL    HW224033   5.266   5.891  12.222  0.4541 -1.3206 -0.1078
68681SOL     OW24034  10.760   4.626   2.298 -0.4114  0.4961 -0.2307
68681SOL    HW124035  10.739   4.658   2.386  1.2629 -1.2395  0.8957
68681SOL    HW224036  10.856   4.629   2.294 -0.4627  0.9891 -2.2175
68682SOL     OW24037  12.515   3.453   9.978 -0.2955  0.0900 -0.0000
68682SOL    HW124038  12.426   3.489   9.984 -0.3995 -0.1168 -0.2772
68682SOL    HW224039  12.504   3.360  10.000 -0.2973 -0.1431 -0.9602
68683SOL     OW24040  13.702   4.491   7.422 -0.0883 -0.1416 -0.5044
68683SOL    HW124041  13.717   4.482   7.328 -0.4892  0.3451 -0.6201
68683SOL    HW224042  13.610   4.519   7.429  0.4233  1.5135 -0.0649
68684SOL     OW24043   9.724   5.243  11.981  0.4658  0.7185  0.2237
68684SOL    HW124044   9.780   5.237  11.903 -0.6403  1.6751 -0.6831
68684SOL    HW224045   9.650   5.186  11.962  0.5935  0.2880  0.9665
68685SOL     OW24046   4.966   1.735  10.169 -0.3215 -0.1813  0.3015
68685SOL    HW124047   4.885   1.685  10.156  0.7251 -1.6635 -0.8091
68685SOL    HW224048   4.991   1.716  10.259 -0.3567 -1.0245  0.1397
68686SOL     OW24049   5.028   9.030  10.095 -0.2107 -0.1992  0.1917
68686SOL    HW124050   4.991   9.109  10.056 -1.8926 -0.4061  1.2611
68686SOL    HW224051   4.971   8.959  10.065  1.8870 -1.2482 -1.6207
68687SOL     OW24052   8.906   4.812   3.743  0.6040 -0.1125  0.0847
68687SOL    HW124053   8.964   4.735   3.741  1.1856  0.3183 -0.0415
68687SOL    HW224054   8.919   4.852   3.657  0.9648  0.6006  0.4661
68688SOL     OW24055   8.542   4.306   6.649  0.1623  0.1069 -0.1216
68688SOL    HW124056   8.502   4.392   6.664 -0.4663 -0.1830 -0.1158
68688SOL    HW224057   8.549   4.267   6.736 -0.3032 -0.1758 -0.2099
68689SOL     OW24058   5.449   7.065   3.056  0.0481  0.7330 -0.1865
68689SOL    HW124059   5.520   7.130   3.054  1.3724 -0.6009  0.8325
68689SOL    HW224060   5.477   7.002   3.122 -2.9323  1.0552  1.6058
68690SOL     OW24061   5.964   1.339   8.196  0.0135 -0.0978  0.5829
68690SOL    HW124062   5.870   1.328   8.181 -0.1880 -2.4099  2.7608
68690SOL    HW224063   5.970   1.383   8.281  0.9535  1.0966 -0.0674
68691SOL     OW24064   0.557  11.599  13.184 -0.5071 -0.1220  0.4506
68691SOL    HW124065   0.626  11.602  13.118  1.3774 -2.2096  2.1623
68691SOL    HW224066   0.579  11.670  13.244 -1.4419  0.9087 -0.3832
68692SOL     OW24067   7.100  11.771   5.233  0.1567  0.4900 -0.1807
68692SOL    HW124068   7.185  11.815   5.228  0.5463 -0.2091  0.1983
68692SOL    HW224069   7.120  11.684   5.266 -0.4956 -0.3285 -1.8341
68693SOL     OW24070   0.865  10.196  11.892  0.0051 -0.0433  0.1734
68693SOL    HW124071   0.887  10.248  11.970 -0.0624  0.5768 -0.2142
68693SOL    HW224072   0.848  10.261  11.824 -0.8588 -0.5534 -0.1170
68694SOL     OW24073   6.681   1.293   9.515  0.2826  0.1289 -0.4742
68694SOL    HW124074   6.640   1.360   9.570 -0.2405  0.8447 -1.6981
68694SOL    HW224075   6.662   1.211   9.561  1.1102  0.7999  1.1633
68695SOL     OW24076   6.040   1.101  13.478  0.2447  0.7796  0.0124
68695SOL    HW124077   6.084   1.017  13.463  1.5665  1.3906  0.3467
68695SOL    HW224078   6.105   1.167  13.457  0.2669  1.7105  2.6503
68696SOL     OW24079  13.037  10.917   1.674 -0.3624  0.2858  0.7622
68696SOL    HW124080  13.036  10.832   1.716  1.8197 -0.2727 -0.1378
68696SOL    HW224081  13.094  10.971   1.730  0.9049  0.1384 -0.3314
68697SOL     OW24082   0.774   2.305   6.311  0.4071  0.1730  0.3832
68697SOL    HW124083   0.716   2.229   6.315  0.7061 -0.0611  0.3304
68697SOL    HW224084   0.775   2.340   6.400  0.4796 -0.0487  0.4707
68698SOL     OW24085   7.710  10.065  11.278 -0.2173  0.0991 -0.0457
68698SOL    HW124086   7.757  10.103  11.204 -0.0027  0.0654  0.0693
68698SOL    HW224087   7.627  10.112  11.281 -1.3093 -1.5815 -1.8138
68699SOL     OW24088   6.814  11.132   8.860 -0.0409  0.0883  0.8646
68699SOL    HW124089   6.837  11.060   8.919 -1.0778 -1.5525 -0.6281
68699SOL    HW224090   6.895  11.182   8.852  1.0657 -1.5660  1.0759
68700SOL     OW24091   2.332   1.385   3.408  0.6121  0.2144 -0.0428
68700SOL    HW124092   2.296   1.410   3.323  1.8283  0.9286 -0.3749
68700SOL    HW224093   2.405   1.327   3.388  1.0106  0.5133  0.4943
68701SOL     OW24094  10.794   4.828   1.120 -0.1854 -0.0321 -0.3791
68701SOL    HW124095  10.724   4.813   1.057 -1.1650  0.5623  0.5430
68701SOL    HW224096  10.772   4.772   1.195 -0.0097  0.6191  0.1694
68702SOL     OW24097  13.109   6.130   0.135 -0.1556  0.1600  0.0126
68702SOL    HW124098  13.159   6.049   0.130 -0.6189 -0.2308  1.2809
68702SOL    HW224099  13.061   6.123   0.218  0.6738  2.2244  0.7371
68703SOL     OW24100   0.513   1.562   4.969 -0.0584  0.1899  0.5643
68703SOL    HW124101   0.556   1.489   5.014  0.5181  0.2437  0.1106
68703SOL    HW224102   0.558   1.640   5.002  1.8413  0.1368 -1.5768
68704SOL     OW24103   0.393  10.056  13.489 -0.4399 -0.3556 -0.2079
68704SOL    HW124104   0.442  10.134  13.516 -0.1156 -0.9188  0.8766
68704SOL    HW224105   0.318  10.090  13.440 -0.1346  0.6139 -0.0152
68705SOL     OW24106   9.035   7.645   0.663  0.7000 -0.3825 -0.9915
68705SOL    HW124107   9.125   7.619   0.684 -0.0024 -1.3626  1.0224
68705SOL    HW224108   9.045   7.730   0.621  2.4592  1.1001  2.0448
68706SOL     OW24109   9.895  13.652  10.178  0.1417 -0.5026  0.4314
68706SOL    HW124110   9.858  13.624  10.261  0.9661  1.9051  1.7129
68706SOL    HW224111   9.825  13.703  10.137 -0.1705 -1.4636 -0.2702
68707SOL     OW24112   6.091  11.572   9.574  0.0728  0.0775  0.3454
68707SOL    HW124113   5.998  11.571   9.551 -0.0542 -2.0849  0.7329
68707SOL    HW224114   6.093  11.612   9.661 -0.5056  0.1044  0.3559
68708SOL     OW24115   5.718  13.143   1.472 -0.3860  0.1602  0.3650
68708SOL    HW124116   5.652  13.082   1.439  0.0121 -1.8616  2.9461
68708SOL    HW224117   5.668  13.219   1.503 -1.3979 -0.7317  0.9889
68709SOL     OW24118   3.562   9.211   7.519 -0.0232 -0.2248  0.4980
68709SOL    HW124119   3.478   9.165   7.524 -0.9182  1.3744  1.0047
68709SOL    HW224120   3.552   9.286   7.577  1.2881  0.7278 -0.4264
68710SOL     OW24121  11.099   1.023  13.716  0.2171 -0.5648 -0.6023
68710SOL    HW124122  11.168   1.081  13.748 -0.1642 -0.1320 -0.5516
68710SOL    HW224123  11.101   1.035  13.621  0.4530 -0.8284 -0.6318
68711SOL     OW24124   2.156   2.961   0.134  0.0091  0.5175  0.2785
68711SOL    HW124125   2.168   3.031   0.070  1.9489 -0.3408 -0.3400
68711SOL    HW224126   2.220   2.980   0.203 -0.9167  0.5029  1.1684
68712SOL     OW24127   5.896  10.101  12.591  0.4945  0.2757  0.0981
68712SOL    HW124128   5.804  10.108  12.564  0.4294  1.7113  0.5918
68712SOL    HW224129   5.931  10.029  12.538 -0.5027  0.7485 -1.2706
68713SOL     OW24130   5.379   2.432   7.134 -0.0420  0.1114  0.8906
68713SOL    HW124131   5.471   2.407   7.125 -0.1492 -0.3901  1.1667
68713SOL    HW224132   5.381   2.527   7.148  0.4069  0.1638  0.4805
68714SOL     OW24133  11.061   9.695  12.881 -0.2486  0.1679  0.0962
68714SOL    HW124134  11.035   9.717  12.970  0.8343  0.2942  0.3923
68714SOL    HW224135  11.008   9.618  12.860 -1.0469  0.5678  0.5650
68715SOL     OW24136  11.138   1.524  10.960 -0.5896  0.2465 -0.1930
68715SOL    HW124137  11.129   1.616  10.936 -1.7564  0.5106  1.1197
68715SOL    HW224138  11.224   1.498  10.926 -1.0442  1.2554 -2.2772
68716SOL     OW24139  11.904   2.745  10.470 -0.0282  0.0053 -0.2460
68716SOL    HW124140  11.891   2.797  10.391  0.1092 -0.6003 -0.6708
68716SOL    HW224141  11.865   2.798  10.540 -0.1812  0.5279 -0.7206
68717SOL     OW24142  11.945   6.095   5.307  0.5189  0.1317  0.2665
68717SOL    HW124143  11.928   6.103   5.401  1.5394  2.9642  0.3121
68717SOL    HW224144  11.924   6.181   5.271  2.2769 -0.1723 -1.7021
68718SOL     OW24145  10.561  11.726   0.606 -0.1413 -0.4176  0.0064
68718SOL    HW124146  10.560  11.642   0.561  0.9670 -0.9863  0.9988
68718SOL    HW224147  10.595  11.788   0.541 -0.7549 -0.7623 -0.6570
68719SOL     OW24148   4.915   2.638   1.238  0.0632 -0.2725  0.3312
68719SOL    HW124149   4.915   2.585   1.159 -0.0647 -1.1985  0.9469
68719SOL    HW224150   4.992   2.695   1.228 -0.3740  0.1505 -0.7937
68720SOL     OW24151  12.711   7.694  12.831 -0.3288  0.5145 -0.2088
68720SOL    HW124152  12.726   7.652  12.916  2.2624 -1.1731 -1.3743
68720SOL    HW224153  12.619   7.676  12.811 -1.4031  2.0370  2.6968
68721SOL     OW24154   0.839   8.810  10.257  0.4541  0.1673  0.1160
68721SOL    HW124155   0.889   8.775  10.330 -0.3202 -1.6931 -0.1673
68721SOL    HW224156   0.748   8.791  10.280  0.2744 -2.4037 -2.1614
68722SOL     OW24157   6.850   8.645  13.741 -0.9011  0.4282  0.2474
68722SOL    HW124158   6.764   8.678  13.767 -0.7239  1.2689 -0.2291
68722SOL    HW224159   6.910   8.718  13.755 -0.4859  0.2825 -0.6999
68723SOL     OW24160  12.007   0.463   6.770  0.3525  0.4839 -0.0810
68723SOL    HW124161  11.965   0.543   6.802  1.5272  1.1282 -0.0887
68723SOL    HW224162  12.098   0.488   6.755  0.7688 -0.8839 -0.0018
68724SOL     OW24163   2.657  10.736   5.760  0.2497  0.5093  0.0198
68724SOL    HW124164   2.668  10.650   5.719 -0.2352  0.2921  0.3294
68724SOL    HW224165   2.640  10.716   5.852  1.2314  0.9900  0.3139
68725SOL     OW24166  13.373  12.307  14.025 -0.7199  0.0465  0.5580
68725SOL    HW124167  13.398  12.335  14.113  1.1479  0.4655 -0.0693
68725SOL    HW224168  13.397  12.214  14.022 -1.4919 -0.1667  0.7199
68726SOL     OW24169   8.618   8.287  12.863 -0.2870 -0.5646 -0.2427
68726SOL    HW124170   8.604   8.210  12.808 -1.8287 -0.9494  0.6539
68726SOL    HW224171   8.647   8.252  12.947  1.2290 -0.0171 -0.4904
68727SOL     OW24172  13.916   9.804   5.478  0.3822 -0.1024  0.0400
68727SOL    HW124173  13.825   9.817   5.504  0.0742 -1.0164 -0.5273
68727SOL    HW224174  13.912   9.762   5.392  1.3736  1.4039 -0.7889
68728SOL     OW24175  11.929  12.668  10.933  0.2328  0.2785  0.0958
68728SOL    HW124176  11.909  12.588  10.885  2.1142  0.3051 -0.8008
68728SOL    HW224177  11.844  12.710  10.946 -0.5037 -0.5624 -1.7215
68729SOL     OW24178   1.240   8.057   0.641 -0.0298  0.2102  0.0982
68729SOL    HW124179   1.232   8.057   0.736 -0.0163 -0.5614  0.1101
68729SOL    HW224180   1.218   8.146   0.615 -0.9772  0.1842  0.7462
68730SOL     OW24181   4.662   4.498   6.007  0.4980  0.0668 -0.0552
68730SOL    HW124182   4.687   4.585   6.038 -2.5517  0.9117  0.3946
68730SOL    HW224183   4.586   4.514   5.951  0.9204 -2.1842 -1.3802
68731SOL     OW24184   3.583   2.472   6.123 -0.1100  0.2252  0.4179
68731SOL    HW124185   3.621   2.560   6.120  0.2920  0.0254 -0.7795
68731SOL    HW224186   3.650   2.417   6.163  1.2319 -0.2548 -2.2572
68732SOL     OW24187   2.765   5.506   2.756 -0.4839  0.1720  0.2642
68732SOL    HW124188   2.765   5.572   2.825  2.1800  1.8026 -1.1478
68732SOL    HW224189   2.846   5.458   2.769 -0.5470 -0.3043 -1.0087
68733SOL     OW24190   4.420  12.946   0.614 -0.1287  0.2803  0.0004
68733SOL    HW124191   4.357  13.018   0.612 -0.2745  0.1276 -1.4819
68733SOL    HW224192   4.371  12.870   0.586  0.7473  0.1966 -1.3977
68734SOL     OW24193  10.300  13.779   9.360 -0.2884 -0.2596 -0.1796
68734SOL    HW124194  10.353  13.859   9.367 -0.9798  0.0561  2.1586
68734SOL    HW224195  10.346  13.727   9.293  0.3092  1.9427 -1.6250
68735SOL     OW24196   0.844   9.437   5.149 -0.4029 -0.3731  0.0173
68735SOL    HW124197   0.851   9.473   5.061 -0.6721  2.0836  0.9218
68735SOL    HW224198   0.750   9.430   5.165 -0.3662 -0.2755  0.2958
68736SOL     OW24199   0.419   9.809  10.564 -0.1622  0.1944  0.1969
68736SOL    HW124200   0.475   9.836  10.637  0.0548 -1.5422  0.6980
68736SOL    HW224201   0.423   9.883  10.503 -0.8270  1.9384  2.1645
68737SOL     OW24202  12.336  13.711   0.796 -0.4653  0.8935 -0.1432
68737SOL    HW124203  12.338  13.685   0.704 -0.4825  2.6333 -0.6868
68737SOL    HW224204  12.427  13.732   0.817 -0.5757  1.2309  0.0078
68738SOL     OW24205   8.201  12.217   8.182  0.4627 -0.6582 -0.0341
68738SOL    HW124206   8.154  12.296   8.156 -0.3791 -0.5981  1.5673
68738SOL    HW224207   8.146  12.177   8.249  2.0096 -1.3293  0.8871
68739SOL     OW24208  11.118   1.223   2.417 -0.1740  0.5052  0.0991
68739SOL    HW124209  11.055   1.239   2.487 -0.0135  1.3237  0.0647
68739SOL    HW224210  11.189   1.285   2.433  0.2574  0.1339 -0.3199
68740SOL     OW24211   9.349  12.929   0.085 -0.4245  0.2767  0.0596
68740SOL    HW124212   9.416  12.988   0.051  0.2787 -1.2275 -1.2876
68740SOL    HW224213   9.326  12.965   0.171  2.3139  0.7031  0.6959
68741SOL     OW24214   0.212   0.942   6.593  0.0937  0.3667  0.0287
68741SOL    HW124215   0.240   1.028   6.562 -1.5892  0.8822 -0.1418
68741SOL    HW224216   0.284   0.912   6.649  1.2015  1.3712 -0.8198
68742SOL     OW24217   0.701  12.878   0.101 -0.0612  0.2957  0.4497
68742SOL    HW124218   0.769  12.944   0.117 -1.0648  1.0881  1.5993
68742SOL    HW224219   0.642  12.886   0.176 -1.9357  0.2504 -0.9729
68743SOL     OW24220   9.883   9.058   8.007  0.0719  0.3388 -0.1287
68743SOL    HW124221   9.809   9.102   8.048 -0.1320  0.6032 -0.7817
68743SOL    HW224222   9.961   9.101   8.044 -0.1171  0.9001 -0.3771
68744SOL     OW24223  11.477  10.401   8.988 -0.6575  0.5202  0.5017
68744SOL    HW124224  11.393  10.447   8.992 -1.2211 -0.5284  1.5469
68744SOL    HW224225  11.542  10.466   9.012 -1.0976  1.4971 -0.8722
68745SOL     OW24226   9.318   8.570  13.999 -0.6200  0.8010 -0.2461
68745SOL    HW124227   9.277   8.503  14.053 -0.9822  0.5175 -0.8565
68745SOL    HW224228   9.260   8.579  13.924  0.8789 -0.3093 -1.6227
68746SOL     OW24229   3.500   8.095  11.415  0.9262 -0.5226  0.4428
68746SOL    HW124230   3.568   8.110  11.350  0.8873 -1.2831  0.2192
68746SOL    HW224231   3.545   8.059  11.490  0.9255  0.0626  0.7325
68747SOL     OW24232   5.941  14.086  11.403 -0.4726 -0.3286  0.0071
68747SOL    HW124233   5.906  14.120  11.321 -0.0613 -1.3330 -0.5980
68747SOL    HW224234   5.900  14.140  11.471  0.6277  1.7841 -0.9291
68748SOL     OW24235  10.387   0.454   5.125 -0.3479 -0.5229 -0.1382
68748SOL    HW124236  10.383   0.361   5.100  1.9008 -0.4884 -0.8168
68748SOL    HW224237  10.408   0.452   5.219 -1.9444 -0.6633  0.2406
68749SOL     OW24238  11.293   3.532  11.208 -0.4842 -0.4405  0.0385
68749SOL    HW124239  11.213   3.554  11.255 -1.8285 -2.5669 -1.0729
68749SOL    HW224240  11.263   3.484  11.131  1.8678 -1.2747 -0.4486
68750SOL     OW24241   1.187   1.775   7.856  0.1029  0.0900 -0.3475
68750SOL    HW124242   1.253   1.824   7.808  0.3651 -0.9899 -1.1457
68750SOL    HW224243   1.112   1.773   7.796 -0.1531  0.1317 -0.0266
68751SOL     OW24244   7.821   5.943   2.539  0.1202  0.0344  0.1148
68751SOL    HW124245   7.788   5.857   2.510  1.5578 -0.3196 -0.5876
68751SOL    HW224246   7.831   5.993   2.458  0.6007  0.3739  0.3811
68752SOL     OW24247   1.712  14.011   1.697  0.2732  0.5374 -0.3961
68752SOL    HW124248   1.726  13.940   1.634  0.4432  0.3337 -0.1295
68752SOL    HW224249   1.782  14.074   1.677 -0.8809  1.4580 -1.7730
68753SOL     OW24250   9.632   8.339   9.434  0.3836  0.0973  0.3924
68753SOL    HW124251   9.655   8.298   9.518  0.9217 -1.9199 -0.6711
68753SOL    HW224252   9.712   8.335   9.382  0.6442  3.0992  0.3589
68754SOL     OW24253   3.130   0.888  11.125 -0.4711  0.3351 -0.5853
68754SOL    HW124254   3.168   0.906  11.211 -0.0058 -0.0747 -0.7021
68754SOL    HW224255   3.052   0.836  11.144 -0.0193 -0.3000 -0.4443
68755SOL     OW24256   4.110   2.772   8.812 -0.4891 -0.4107 -0.2349
68755SOL    HW124257   4.158   2.690   8.799  1.1429  0.4997 -0.2548
68755SOL    HW224258   4.092   2.803   8.723 -0.1550 -0.2214 -0.2375
68756SOL     OW24259  11.189   6.088  11.615  0.3747  0.3087 -0.5470
68756SOL    HW124260  11.231   6.141  11.683 -0.7412 -0.0947  0.4850
68756SOL    HW224261  11.167   6.006  11.658  0.2122 -0.1988 -1.5732
68757SOL     OW24262   6.217   3.064   3.082  0.1040  0.0252  0.0668
68757SOL    HW124263   6.306   3.099   3.085  1.4120 -2.8519 -1.4662
68757SOL    HW224264   6.176   3.110   3.009  1.5843 -1.0810 -1.5330
68758SOL     OW24265   2.084   7.594   6.053  0.0073  0.2962  0.5081
68758SOL    HW124266   2.125   7.588   6.139 -0.3153  1.7429  0.7889
68758SOL    HW224267   2.133   7.532   5.999  0.2339 -0.6132  1.7095
68759SOL     OW24268   1.420   8.343   8.849  0.2463 -0.1800  0.0895
68759SOL    HW124269   1.447   8.270   8.793  0.5172  0.4154 -0.5769
68759SOL    HW224270   1.433   8.421   8.795  0.0137  0.3722  0.8056
68760SOL     OW24271   7.191  13.988   6.547  0.7288  0.0823  0.0933
68760SOL    HW124272   7.187  13.912   6.489 -1.6014  0.1407  0.0973
68760SOL    HW224273   7.280  14.022   6.536  1.1899 -1.4965 -1.3816
68761SOL     OW24274   0.782  11.903  13.049  0.4821  0.1801  0.8104
68761SOL    HW124275   0.788  11.943  12.962  1.4055  0.7500  1.1211
68761SOL    HW224276   0.768  11.810  13.032 -0.0796  0.3906  0.0599
68762SOL     OW24277   5.811  10.136   5.943 -0.2414  1.0532  0.2651
68762SOL    HW124278   5.811  10.043   5.962 -0.2104  1.2262  1.1283
68762SOL    HW224279   5.729  10.168   5.980 -0.4897  1.2908 -0.4607
68763SOL     OW24280   6.992   0.982   7.368  0.2433  0.0321 -0.1293
68763SOL    HW124281   7.073   0.947   7.406 -0.5929 -0.6097  1.1571
68763SOL    HW224282   6.948   0.905   7.333 -0.4470  0.1567  0.4448
68764SOL     OW24283   5.713   2.362  10.950 -0.5778 -0.7225 -0.0983
68764SOL    HW124284   5.662   2.413  11.012 -2.5178 -3.0807  0.3690
68764SOL    HW224285   5.653   2.344  10.878  0.5860 -0.8972 -1.0643
68765SOL     OW24286  12.567   2.910   9.533 -0.0487  0.0516  0.0851
68765SOL    HW124287  12.502   2.897   9.464  1.4595  0.6762 -1.5246
68765SOL    HW224288  12.609   2.824   9.544 -0.5061 -0.1273  0.4852
68766SOL     OW24289  10.745  14.117  13.759 -0.2421 -0.2440 -0.0315
68766SOL    HW124290  10.744  14.138  13.666 -1.6294  1.5475  0.3337
68766SOL    HW224291  10.830  14.076  13.774  2.7569  4.8282 -0.9959
68767SOL     OW24292   4.283   1.041   6.540  0.6069  0.1457  0.0708
68767SOL    HW124293   4.306   0.949   6.550 -1.0530 -0.3423 -0.1750
68767SOL    HW224294   4.349   1.077   6.482  1.8035 -0.6545  0.9008
68768SOL     OW24295   9.906   8.099  11.781 -0.2171 -0.2128  0.0715
68768SOL    HW124296   9.864   8.158  11.718 -0.8465  0.5842  1.1992
68768SOL    HW224297   9.842   8.030  11.795 -0.6413  0.3218  0.8273
68769SOL     OW24298   7.268  11.487   1.902  0.7974  0.2256 -0.6846
68769SOL    HW124299   7.317  11.406   1.915  0.8012  0.6172  2.3622
68769SOL    HW224300   7.319  11.536   1.838  2.6643 -0.7393 -0.0125
68770SOL     OW24301   3.076  13.608   0.898  0.5371  0.1858 -0.4498
68770SOL    HW124302   3.139  13.678   0.916 -0.7105  1.0716  0.7263
68770SOL    HW224303   2.994  13.641   0.934 -0.5632 -1.0261 -1.7297
68771SOL     OW24304   4.046  10.733   2.191 -0.1186  0.3684 -0.4619
68771SOL    HW124305   3.998  10.697   2.117 -1.4255 -0.4588  0.7375
68771SOL    HW224306   4.089  10.811   2.157 -0.5919 -0.0565 -2.0988
68772SOL     OW24307   4.595   9.834   4.174 -0.0239 -0.0445  0.0951
68772SOL    HW124308   4.574   9.909   4.117  1.8894 -0.1523 -0.8246
68772SOL    HW224309   4.511   9.811   4.215 -0.9444  1.6776 -0.7053
68773SOL     OW24310  10.476   2.907  13.817  0.1511  0.4371  0.4569
68773SOL    HW124311  10.417   2.832  13.810  1.6155 -0.7427  0.2303
68773SOL    HW224312  10.536   2.897  13.744  0.5572  1.6958  0.5916
68774SOL     OW24313   2.720  11.151  14.044  0.0333 -0.2783 -0.1361
68774SOL    HW124314   2.627  11.171  14.051  0.1014  0.0829 -0.2294
68774SOL    HW224315   2.755  11.164  14.132  0.0981  0.1373 -0.2198
68775SOL     OW24316   7.416   7.237   5.819  0.2480 -0.1463  0.5091
68775SOL    HW124317   7.460   7.273   5.897  0.2324 -1.2552  1.0396
68775SOL    HW224318   7.343   7.297   5.803  0.3098  0.1496  1.2880
68776SOL     OW24319  11.158   4.844   0.811  0.4208 -0.7041  0.3419
68776SOL    HW124320  11.072   4.865   0.774 -0.0766 -0.3490  1.6427
68776SOL    HW224321  11.138   4.785   0.884  1.0570  1.0509  2.0100
68777SOL     OW24322  11.006   0.692   7.791  0.0083 -0.2255 -0.8894
68777SOL    HW124323  11.013   0.777   7.749 -1.9968 -1.2238 -3.5382
68777SOL    HW224324  10.923   0.657   7.760  1.0263 -3.4056 -0.3946
68778SOL     OW24325  11.654  10.713   7.720  0.3573  0.0427 -0.6420
68778SOL    HW124326  11.564  10.696   7.695  0.1029  0.2624  0.0986
68778SOL    HW224327  11.690  10.627   7.742  0.1731  0.0144 -0.4463
68779SOL     OW24328  13.919   1.981   7.854  0.7995  0.7300  0.4463
68779SOL    HW124329  13.914   1.904   7.797 -2.1972  0.4219  0.9917
68779SOL    HW224330  13.999   1.967   7.906 -0.6996 -3.2298  2.0626
68780SOL     OW24331   7.483   9.734  10.128  0.1951 -0.1279  0.0734
68780SOL    HW124332   7.506   9.698  10.042 -0.7119 -0.7013  0.0676
68780SOL    HW224333   7.388   9.738  10.129  0.1315 -1.2423  1.4993
68781SOL     OW24334  13.611   8.900   2.191 -0.0353  0.8910  0.4481
68781SOL    HW124335  13.543   8.944   2.241 -1.3682 -0.3386 -0.1997
68781SOL    HW224336  13.624   8.817   2.237 -1.6985 -0.5147 -1.4737
68782SOL     OW24337  11.589   2.371  10.262  0.2823  0.1438 -0.1316
68782SOL    HW124338  11.530   2.432  10.219  0.5864 -0.3427 -1.2876
68782SOL    HW224339  11.660   2.426  10.296 -0.4635  0.6457  0.6586
68783SOL     OW24340   8.492   4.611   7.748  0.2691  0.0428 -0.2763
68783SOL    HW124341   8.476   4.565   7.666  0.4392 -0.7245  0.1087
68783SOL    HW224342   8.507   4.702   7.722 -1.6351  0.2152 -0.9136
68784SOL     OW24343  12.748  10.000  13.305  0.2258 -0.4225 -0.8132
68784SOL    HW124344  12.674   9.998  13.366  1.2867  1.7567  0.6677
68784SOL    HW224345  12.822   9.967  13.355  1.3374  2.3443 -0.4643
68785SOL     OW24346   7.454   0.369   2.317 -0.1855 -0.0866 -0.6755
68785SOL    HW124347   7.401   0.295   2.345  0.0086 -0.3301 -0.9448
68785SOL    HW224348   7.398   0.418   2.256  0.1883 -0.8057 -1.6127
68786SOL     OW24349   1.032  12.058  13.435  0.1804 -0.0719 -0.1487
68786SOL    HW124350   0.965  12.035  13.500  1.7997 -3.1115  0.6064
68786SOL    HW224351   1.068  12.141  13.467 -0.5412 -0.4006  1.6550
68787SOL     OW24352   8.304   0.204  11.708  0.6166 -0.3027  0.1076
68787SOL    HW124353   8.347   0.165  11.783  0.2817  0.0102  0.4660
68787SOL    HW224354   8.373   0.209  11.641  1.1148  0.0954  0.6380
68788SOL     OW24355   4.955   6.224   4.811  0.2615  0.3036  0.1104
68788SOL    HW124356   4.906   6.142   4.810  0.1378  0.3688  0.4125
68788SOL    HW224357   4.973   6.240   4.904  0.4033  0.5465  0.0437
68789SOL     OW24358   6.831   6.141  10.105 -0.3554 -0.4027  0.5437
68789SOL    HW124359   6.908   6.197  10.111 -0.6384  0.0245  0.3287
68789SOL    HW224360   6.817   6.109  10.194 -0.1311 -0.2022  0.6530
68790SOL     OW24361   0.243  13.005   4.740  0.4247  0.0995 -0.0617
68790SOL    HW124362   0.161  13.055   4.739 -0.3280 -1.0863  0.0366
68790SOL    HW224363   0.303  13.056   4.686 -0.2464  1.2009  0.1932
68791SOL     OW24364   9.904  10.725   2.033  0.4297  0.7279 -0.2698
68791SOL    HW124365   9.894  10.790   2.102  2.7405  2.2526 -1.2266
68791SOL    HW224366   9.819  10.722   1.989 -0.4143  1.3147  1.2771
68792SOL     OW24367   5.442   3.539   5.365  0.3280 -0.0855  0.2140
68792SOL    HW124368   5.499   3.489   5.306 -1.5812 -1.9458 -0.1707
68792SOL    HW224369   5.395   3.599   5.307 -1.0877 -1.4745 -0.1373
68793SOL     OW24370   2.130   5.804   0.701 -0.4293  0.3078  0.7928
68793SOL    HW124371   2.068   5.760   0.642 -1.3653  0.5703  1.5617
68793SOL    HW224372   2.097   5.893   0.708  0.7002  0.7807  0.3150
68794SOL     OW24373   7.390   5.495   1.572 -0.7683  0.0837  0.4611
68794SOL    HW124374   7.447   5.456   1.637 -1.7913  0.1899  1.4633
68794SOL    HW224375   7.327   5.427   1.550 -0.4991  0.0811 -0.3647
68795SOL     OW24376   6.794   6.418   5.113 -0.2809 -0.1836  0.0021
68795SOL    HW124377   6.792   6.373   5.028 -0.4301 -1.3082  0.5785
68795SOL    HW224378   6.783   6.510   5.092  0.6881 -0.3321 -1.2828
68796SOL     OW24379   9.667   0.243   1.115  0.0837  0.0170  0.0961
68796SOL    HW124380   9.626   0.247   1.029  1.1160 -1.8193 -0.5534
68796SOL    HW224381   9.757   0.272   1.101 -0.4203  2.3599  1.1632
68797SOL     OW24382  13.415   3.415   9.065 -1.0683  0.1941 -0.6831
68797SOL    HW124383  13.432   3.327   9.032 -0.3260  0.7485 -1.8578
68797SOL    HW224384  13.322   3.430   9.048 -1.4273 -0.7011  0.3993
68798SOL     OW24385  11.561  11.571   8.040 -0.1836  0.3770  0.4249
68798SOL    HW124386  11.478  11.527   8.019 -0.8661  1.6812  0.2716
68798SOL    HW224387  11.626  11.525   7.987 -0.4152 -1.9767  2.0082
68799SOL     OW24388   1.390  12.784   2.680 -0.3596  0.4742 -0.1397
68799SOL    HW124389   1.365  12.815   2.593  1.4199 -0.9816 -1.2404
68799SOL    HW224390   1.485  12.782   2.678 -0.2300  1.3160  2.2179
68800SOL     OW24391  11.320  10.730   3.877 -0.7330  0.1072 -0.3062
68800SOL    HW124392  11.299  10.705   3.787  0.0126  0.0080 -0.4638
68800SOL    HW224393  11.415  10.744   3.876 -0.7210  0.1209  0.4620
68801SOL     OW24394   3.508  13.413  11.313  0.0751  0.1965 -0.3720
68801SOL    HW124395   3.479  13.381  11.398 -0.8002 -1.7343 -1.3346
68801SOL    HW224396   3.441  13.477  11.287 -0.5962 -0.4878 -0.3512
68802SOL     OW24397   1.331   1.353  13.256  0.8280 -0.3715 -0.3705
68802SOL    HW124398   1.405   1.384  13.205  1.0991 -0.4462 -0.0259
68802SOL    HW224399   1.337   1.258  13.251  0.9386 -0.3794 -0.0787
68803SOL     OW24400   4.649   9.643   1.463  0.1004  0.4966  0.3508
68803SOL    HW124401   4.570   9.596   1.491 -0.6851  1.7619  0.3324
68803SOL    HW224402   4.652   9.628   1.369  1.0006 -1.1608  0.5950
68804SOL     OW24403   0.386   3.156   5.622  0.0985 -0.6563  0.4717
68804SOL    HW124404   0.459   3.135   5.679  0.1866  0.1102  0.6578
68804SOL    HW224405   0.367   3.075   5.575  1.6001 -0.6541 -0.1881
68805SOL     OW24406   0.128  12.741   3.276 -0.1195  0.1629  0.7226
68805SOL    HW124407   0.186  12.781   3.211 -0.6919 -0.9847 -0.5299
68805SOL    HW224408   0.172  12.660   3.302 -0.4001  0.0861  0.9686
68806SOL     OW24409   0.106  10.944   2.952 -0.4106 -0.2770  0.3928
68806SOL    HW124410   0.026  10.989   2.981  0.1018  0.9999 -0.0858
68806SOL    HW224411   0.088  10.919   2.862  0.0551  0.8798 -0.0398
68807SOL     OW24412   5.561   7.566   6.635 -0.0735  0.5175  0.2550
68807SOL    HW124413   5.540   7.493   6.578  0.1643  0.0767  0.7210
68807SOL    HW224414   5.622   7.530   6.699 -0.6336  0.8901  1.0290
68808SOL     OW24415   5.552   8.393   5.394 -0.1686 -0.2391  0.7847
68808SOL    HW124416   5.629   8.439   5.361 -1.1111  0.2826 -0.7944
68808SOL    HW224417   5.497   8.461   5.432 -0.2628 -0.4818  1.0923
68809SOL     OW24418   8.629   7.070   6.078 -0.3295 -0.9048  0.0269
68809SOL    HW124419   8.716   7.039   6.052  0.1608  0.4924 -0.1087
68809SOL    HW224420   8.590   7.102   5.997  0.7414  2.3904  0.6442
68810SOL     OW24421   1.977   9.609   1.608  0.4061  0.3444 -0.9587
68810SOL    HW124422   1.890   9.572   1.620  0.5052 -0.0728 -1.4949
68810SOL    HW224423   1.985   9.619   1.513  0.5183  1.4008 -0.8500
68811SOL     OW24424   0.819   3.780   6.671  0.1565 -0.2523 -0.3193
68811SOL    HW124425   0.859   3.722   6.737 -1.3870 -0.4986  0.4475
68811SOL    HW224426   0.726   3.755   6.671 -0.4382  1.8069 -0.4107
68812SOL     OW24427   5.023   1.436   7.864 -0.0195 -0.4042 -0.1271
68812SOL    HW124428   5.062   1.520   7.889 -0.8799  0.1505 -0.6070
68812SOL    HW224429   4.982   1.452   7.779 -0.6794 -1.1625  0.0333
68813SOL     OW24430   3.935   4.742   4.188 -0.2553  0.0130 -0.5571
68813SOL    HW124431   3.906   4.684   4.258  1.0488  0.4848  0.4186
68813SOL    HW224432   4.029   4.724   4.179 -0.4441 -0.2799 -2.4389
68814SOL     OW24433   4.665   9.753   2.023 -0.7898 -0.2592  0.7048
68814SOL    HW124434   4.643   9.681   2.082 -1.3300 -0.2301  0.5387
68814SOL    HW224435   4.605   9.823   2.047 -0.2760  0.1325  0.8530
68815SOL     OW24436   3.562   4.999  11.783  0.1875 -0.5103  0.7816
68815SOL    HW124437   3.604   4.914  11.799  0.2028 -1.1210 -1.9669
68815SOL    HW224438   3.621   5.043  11.722 -1.1228  0.3484  0.0904
68816SOL     OW24439   2.165  12.005   9.541  1.0339 -0.0015  0.5110
68816SOL    HW124440   2.195  12.096   9.552  0.0913  0.2012  1.5829
68816SOL    HW224441   2.204  11.958   9.614 -0.5474  0.1010  1.4580
68817SOL     OW24442   9.597   3.227   4.090 -0.1938  0.1548 -0.5963
68817SOL    HW124443   9.660   3.168   4.048  0.6178  0.3767  0.2799
68817SOL    HW224444   9.600   3.307   4.038  0.9055  0.4775 -0.0680
68818SOL     OW24445  13.931  11.472  11.853 -0.0793  0.2930  0.5791
68818SOL    HW124446  13.838  11.447  11.850 -0.4969  1.7289  0.6640
68818SOL    HW224447  13.966  11.424  11.928 -0.9626  0.3950  1.0735
68819SOL     OW24448   9.401   8.189   2.951  0.3076  0.3640  0.3519
68819SOL    HW124449   9.331   8.162   2.891 -0.6614 -0.5474  1.8288
68819SOL    HW224450   9.456   8.248   2.899 -0.3977 -0.5134 -1.4667
68820SOL     OW24451   0.209   6.684   9.276  0.0509 -0.8440 -0.2216
68820SOL    HW124452   0.242   6.706   9.189 -0.0521  0.2449 -0.0031
68820SOL    HW224453   0.280   6.709   9.335 -0.2236 -0.7394  0.0672
68821SOL     OW24454  12.420  12.871  10.092  0.2678  0.1910 -0.3146
68821SOL    HW124455  12.455  12.920  10.167 -3.5731  1.3181  0.9894
68821SOL    HW224456  12.440  12.926  10.017  1.2221  0.7604  0.3293
68822SOL     OW24457   2.620  11.388  11.980  0.0439 -0.2215  0.1765
68822SOL    HW124458   2.693  11.449  11.995 -1.0179  1.5294 -1.3829
68822SOL    HW224459   2.559  11.405  12.051 -0.5636  1.0857 -0.6285
68823SOL     OW24460  10.391   7.784   5.271  0.0367  0.1732 -0.4754
68823SOL    HW124461  10.347   7.699   5.280  0.4872 -0.1025 -0.8363
68823SOL    HW224462  10.483   7.763   5.262  0.0789  0.6544 -1.3441
68824SOL     OW24463   5.551   9.764  10.381  0.1172  0.1525 -0.4384
68824SOL    HW124464   5.461   9.732  10.386  0.7271 -2.2098 -2.4146
68824SOL    HW224465   5.588   9.744  10.467 -1.1046  0.8598  0.2865
68825SOL     OW24466  12.507   8.525  10.899 -0.4309 -0.2146  0.4269
68825SOL    HW124467  12.535   8.466  10.828 -1.4542 -2.1508  1.5585
68825SOL    HW224468  12.423   8.560  10.869 -0.9615 -1.1883  0.7477
68826SOL     OW24469  11.590   4.700   5.030 -0.6079  0.0627  0.1124
68826SOL    HW124470  11.555   4.754   4.959  0.3292  0.4845 -0.0428
68826SOL    HW224471  11.516   4.689   5.090 -1.0399  0.8227 -0.2655
68827SOL     OW24472   6.274  10.570   4.147  0.3633  0.5443  0.3848
68827SOL    HW124473   6.358  10.557   4.192  0.5573  0.8546  0.1124
68827SOL    HW224474   6.270  10.664   4.129 -0.4262  0.6744  1.1495
68828SOL     OW24475   2.079  11.943  13.649  0.1383  0.0242 -0.0138
68828SOL    HW124476   1.984  11.944  13.651  0.1459  0.1646  0.4622
68828SOL    HW224477   2.102  11.867  13.596 -0.2321 -0.6735  0.8149
68829SOL     OW24478   3.353   6.564  11.740 -0.1157 -0.0200 -0.3375
68829SOL    HW124479   3.309   6.480  11.746  1.4262 -1.0774 -2.3626
68829SOL    HW224480   3.309   6.609  11.668 -0.7449  0.8127  0.5479
68830SOL     OW24481  14.127   5.350   9.699  0.5582  0.1187  0.1396
68830SOL    HW124482  14.087   5.429   9.663 -0.7209  0.1526  1.5641
68830SOL    HW224483  14.062   5.282   9.687  1.4698 -0.6462 -0.6475
68831SOL     OW24484   6.163   1.460  13.385  0.2234 -0.0818  0.0935
68831SOL    HW124485   6.162   1.532  13.323  1.1269  0.9176  1.1993
68831SOL    HW224486   6.080   1.468  13.432  1.0930  1.4200  1.4734
68832SOL     OW24487  10.833   0.344   6.189 -0.1462  0.6415 -0.1921
68832SOL    HW124488  10.860   0.322   6.099  1.3958  0.0603  0.3718
68832SOL    HW224489  10.868   0.272   6.242 -0.8892  1.0657  0.8977
68833SOL     OW24490   0.913  11.206   0.290 -0.2469  0.0515 -0.1451
68833SOL    HW124491   0.860  11.268   0.239 -2.0369 -1.0634  0.2801
68833SOL    HW224492   0.999  11.248   0.296 -0.4912  1.0548 -2.4961
68834SOL     OW24493  12.628   2.079   6.354  0.3053  0.2814  0.4665
68834SOL    HW124494  12.709   2.039   6.323  0.4098  1.1348 -0.3978
68834SOL    HW224495  12.639   2.083   6.449  1.3594  0.5646  0.3445
68835SOL     OW24496   7.647  13.782   7.411  0.3956 -0.6022 -0.0067
68835SOL    HW124497   7.718  13.728   7.447 -0.3719 -1.8535 -0.3197
68835SOL    HW224498   7.692  13.852   7.363  1.4327  0.2718  2.0906
68836SOL     OW24499  13.533  11.439   2.833 -0.3015  0.0814 -0.3330
68836SOL    HW124500  13.524  11.519   2.780 -1.0962 -0.3301 -0.8438
68836SOL    HW224501  13.626  11.417   2.827  0.1161  1.4713  0.5696
68837SOL     OW24502   2.897   1.659   7.255 -0.2125 -0.4987 -0.3515
68837SOL    HW124503   2.819   1.603   7.249  0.2061 -0.9239 -2.9171
68837SOL    HW224504   2.966   1.600   7.284 -0.5573 -0.3749  0.7955
68838SOL     OW24505  10.576   8.666   2.317 -0.1761  0.0211  0.1597
68838SOL    HW124506  10.538   8.615   2.245  0.4022 -1.8194  1.0980
68838SOL    HW224507  10.670   8.655   2.307 -0.0598  0.5504  0.6493
68839SOL     OW24508  10.667   1.827  13.751 -0.7786  0.0673 -0.0040
68839SOL    HW124509  10.700   1.750  13.704 -0.8162  0.3390 -0.4820
68839SOL    HW224510  10.573   1.813  13.758 -0.5792 -0.7898  1.5086
68840SOL     OW24511   4.455   9.628   3.341  0.4756 -0.4003 -0.0322
68840SOL    HW124512   4.490   9.585   3.262  1.3578  0.2887 -0.0223
68840SOL    HW224513   4.480   9.570   3.413  1.9347  0.2455  0.0155
68841SOL     OW24514   9.554   0.004  12.955 -0.3736 -0.3607  0.5460
68841SOL    HW124515   9.537  -0.087  12.931  0.0352  0.2868 -2.6786
68841SOL    HW224516   9.471   0.049  12.940  0.0288  0.1574 -0.2498
68842SOL     OW24517  10.333   2.163   9.985 -0.2274  0.3016 -0.3784
68842SOL    HW124518  10.428   2.152   9.974 -0.0051  0.1163  1.3209
68842SOL    HW224519  10.304   2.207   9.906  1.0534 -0.8616 -1.5575
68843SOL     OW24520  11.453   7.362  12.089 -0.3341 -0.0044 -0.1250
68843SOL    HW124521  11.519   7.344  12.023 -0.6059 -1.4282 -0.0627
68843SOL    HW224522  11.416   7.447  12.065  0.4048  0.0580 -1.0895
68844SOL     OW24523   1.845  13.075   3.455 -0.0283  0.0075 -0.0600
68844SOL    HW124524   1.841  13.093   3.361 -0.2863  1.8532  0.2847
68844SOL    HW224525   1.883  13.153   3.494  0.0741 -0.7281  1.3898
68845SOL     OW24526   2.563   4.912   2.135  0.3979  0.2176  0.1304
68845SOL    HW124527   2.516   4.892   2.054  3.0354 -0.4374 -1.3815
68845SOL    HW224528   2.556   5.007   2.143 -0.0912  0.2734 -0.7553
68846SOL     OW24529  12.102   6.320  10.031 -0.0180  0.0756  0.2757
68846SOL    HW124530  12.195   6.336  10.015 -0.0721 -0.7691 -0.9556
68846SOL    HW224531  12.091   6.226  10.020 -1.0965  0.2185  0.0028
68847SOL     OW24532   1.661   2.740   7.174 -0.2965 -0.2210  0.6148
68847SOL    HW124533   1.656   2.645   7.165  1.0421 -0.3128  0.6754
68847SOL    HW224534   1.578   2.765   7.214 -2.1251 -0.9832 -2.3474
68848SOL     OW24535   8.300  11.317   5.728  0.0764  0.1612  0.0927
68848SOL    HW124536   8.221  11.323   5.781 -0.5427  1.6874 -0.9419
68848SOL    HW224537   8.280  11.251   5.662 -1.1395  1.9254 -1.3851
68849SOL     OW24538   3.383  12.521   1.614 -0.2063  0.3616  0.0159
68849SOL    HW124539   3.403  12.476   1.532 -2.8458 -0.0341 -0.5134
68849SOL    HW224540   3.436  12.476   1.680 -0.3189 -1.3889 -1.0172
68850SOL     OW24541  12.803   5.487   0.987  0.6737 -0.8961 -0.3932
68850SOL    HW124542  12.830   5.450   0.903  0.8061  0.1983 -0.8478
68850SOL    HW224543  12.805   5.582   0.973  1.9378 -0.6394  1.2241
68851SOL     OW24544   1.685   5.078   9.300  0.9112  0.3313  0.9261
68851SOL    HW124545   1.600   5.063   9.258  1.2893 -2.2202  0.8645
68851SOL    HW224546   1.669   5.065   9.393  1.5049 -2.3346  0.7572
68852SOL     OW24547   3.230   1.041   2.809 -0.6268  0.0671  0.1060
68852SOL    HW124548   3.180   1.110   2.765 -0.4705  0.0362 -0.1175
68852SOL    HW224549   3.167   0.969   2.819  0.0923 -1.0588 -2.6839
68853SOL     OW24550  14.042   6.475  11.408 -0.3133 -0.2099  0.2922
68853SOL    HW124551  14.127   6.506  11.376 -0.7123  1.4943  0.8029
68853SOL    HW224552  14.027   6.524  11.489 -1.9620 -0.1976  0.0131
68854SOL     OW24553   1.691   0.910   9.320  0.3431 -0.3438 -0.3347
68854SOL    HW124554   1.784   0.896   9.337  0.4732  0.1196 -0.6256
68854SOL    HW224555   1.689   0.952   9.233  0.0683  2.2792  0.8399
68855SOL     OW24556   0.217   0.572   3.862  0.4671  0.4326 -0.0034
68855SOL    HW124557   0.259   0.505   3.915  0.5095  0.0516 -0.5138
68855SOL    HW224558   0.128   0.539   3.847  1.0880 -0.5127 -1.9574
68856SOL     OW24559   6.610   1.605   1.939  0.1073  0.1550  0.2064
68856SOL    HW124560   6.629   1.692   1.902  2.2868 -1.2000 -2.2791
68856SOL    HW224561   6.537   1.573   1.886 -0.6940  0.4430  1.1216
68857SOL     OW24562   1.578   1.688   0.929  0.3158  0.0186 -0.2926
68857SOL    HW124563   1.579   1.717   0.837  0.9806 -0.7804 -0.5465
68857SOL    HW224564   1.575   1.592   0.924 -1.4377 -0.0243  0.5273
68858SOL     OW24565   5.564   8.782   3.391  0.3719  0.2566 -0.1436
68858SOL    HW124566   5.517   8.700   3.410  0.0302 -0.0587 -2.1412
68858SOL    HW224567   5.496   8.841   3.358  0.7555  1.1179  0.5620
68859SOL     OW24568  11.113  13.080   6.714 -0.1271  0.1907  0.3865
68859SOL    HW124569  11.167  13.091   6.793 -1.1828  0.6089  1.0757
68859SOL    HW224570  11.027  13.113   6.740 -0.3803  0.7352 -1.0871
68860SOL     OW24571   8.539   0.267   1.073 -0.1342 -0.0929  0.4976
68860SOL    HW124572   8.609   0.228   1.022 -0.9780  0.5181 -1.2038
68860SOL    HW224573   8.496   0.328   1.013 -1.4497  0.3431  1.8122
68861SOL     OW24574   7.816   3.279   7.662 -0.4059  0.2111  0.0100
68861SOL    HW124575   7.747   3.212   7.659 -0.2465 -0.1710  2.5771
68861SOL    HW224576   7.885   3.245   7.604 -0.3642 -1.8702  1.1907
68862SOL     OW24577   5.241  13.497   3.211 -0.2124 -0.1600  0.9195
68862SOL    HW124578   5.207  13.478   3.123  1.8547 -0.2063  0.0832
68862SOL    HW224579   5.190  13.573   3.240 -2.2519 -1.3149  0.5116
68863SOL     OW24580   1.083  11.952   1.170  0.3675 -0.5522 -0.0097
68863SOL    HW124581   1.036  11.870   1.180  0.9558 -0.8768  0.1140
68863SOL    HW224582   1.141  11.957   1.246  2.2481 -1.3104 -1.3203
68864SOL     OW24583   8.944  12.449  11.264  0.5815  0.0727 -0.0957
68864SOL    HW124584   9.014  12.393  11.297  0.2491 -0.1911  0.1615
68864SOL    HW224585   8.901  12.396  11.196  0.1712 -0.0408  0.2542
68865SOL     OW24586   2.604   9.987   5.905 -0.1805  0.5865 -0.0788
68865SOL    HW124587   2.516   9.983   5.869  0.5165  2.2510 -2.1684
68865SOL    HW224588   2.607   9.916   5.969 -2.8861  0.2463 -0.2157
68866SOL     OW24589   0.733  10.499  11.852  0.4173 -0.3539  0.2813
68866SOL    HW124590   0.814  10.511  11.802 -0.2284 -2.0703 -1.2944
68866SOL    HW224591   0.756  10.524  11.941  2.4314  0.0871 -0.3123
68867SOL     OW24592  11.075   4.805  11.013  0.0189 -0.1992 -0.6281
68867SOL    HW124593  10.979   4.808  11.012 -0.1067 -1.5039  1.2759
68867SOL    HW224594  11.100   4.892  11.046 -0.7573 -0.9867  2.3551
68868SOL     OW24595   0.822  11.619  11.566 -0.0774 -0.5922  0.4318
68868SOL    HW124596   0.834  11.527  11.590  0.7787 -0.6656 -0.2444
68868SOL    HW224597   0.791  11.616  11.476  1.5713 -0.1952 -0.1865
68869SOL     OW24598   4.779   7.306  13.257 -0.4045  0.2696 -0.2760
68869SOL    HW124599   4.743   7.313  13.169  0.2231 -0.6145 -0.6197
68869SOL    HW224600   4.855   7.248  13.247 -2.3129 -2.7666  1.4068
68870SOL     OW24601   5.518   7.664  10.885  0.3594  0.2120 -0.0394
68870SOL    HW124602   5.603   7.624  10.865  0.2379 -0.1651  0.1820
68870SOL    HW224603   5.502   7.640  10.976 -0.5547 -0.7552 -0.4439
68871SOL     OW24604   4.202   6.764  10.916  0.3470  0.0306  0.4413
68871SOL    HW124605   4.251   6.717  10.849 -0.3061 -1.3196  0.8649
68871SOL    HW224606   4.224   6.856  10.903  0.5043 -0.2340 -1.3892
68872SOL     OW24607  11.329  10.943   8.194 -0.0265 -0.0370  0.5935
68872SOL    HW124608  11.380  10.914   8.118 -0.3111  1.1530 -0.0683
68872SOL    HW224609  11.247  10.974   8.157 -0.2829  0.2895  1.4251
68873SOL     OW24610   4.442   1.281  12.455 -0.4148 -0.0212 -0.2660
68873SOL    HW124611   4.418   1.189  12.446  0.5090 -0.2484 -0.5882
68873SOL    HW224612   4.534   1.279  12.482 -0.2533  0.8058 -0.7077
68874SOL     OW24613  14.012   8.052   6.278 -0.4090  0.4486  0.1488
68874SOL    HW124614  13.971   8.112   6.341  0.2294  2.3501 -1.1511
68874SOL    HW224615  14.075   8.106   6.230 -0.1439 -1.1554 -1.4438
68875SOL     OW24616  11.675   1.592  13.186  0.4940 -0.5513 -0.5652
68875SOL    HW124617  11.684   1.497  13.191  1.5283 -0.3999  2.2816
68875SOL    HW224618  11.705   1.623  13.272 -1.0980  2.2563 -0.9191
68876SOL     OW24619   6.083   9.566   7.699  0.0689  0.1240 -0.3796
68876SOL    HW124620   6.074   9.567   7.604 -0.0627  1.0361 -0.3679
68876SOL    HW224621   6.000   9.530   7.730 -0.2286  0.6145 -0.5870
68877SOL     OW24622  10.848  10.163  10.387  0.6455 -0.0915  0.1167
68877SOL    HW124623  10.910  10.228  10.419  1.0207  0.6378 -1.9814
68877SOL    HW224624  10.903  10.095  10.347  0.1747  1.2291 -3.0129
68878SOL     OW24625   9.326  11.647  10.090  0.1454 -0.7554 -0.2202
68878SOL    HW124626   9.333  11.635  10.184  2.2032 -0.3168 -0.2877
68878SOL    HW224627   9.335  11.559  10.053  0.4490 -0.7867 -0.0668
68879SOL     OW24628  11.771   7.964  11.641 -0.2592 -0.0312  0.5968
68879SOL    HW124629  11.826   8.031  11.682 -0.0645  0.3237 -0.2412
68879SOL    HW224630  11.698   8.012  11.603  0.9310  0.0014 -1.8276
68880SOL     OW24631   6.840   0.828  13.412 -0.5192  0.1722 -0.3019
68880SOL    HW124632   6.866   0.855  13.500 -1.1565 -0.3506  0.0587
68880SOL    HW224633   6.763   0.881  13.392 -1.2115 -0.6861  0.0303
68881SOL     OW24634  12.972   9.881   1.632 -0.0116 -0.0259  0.0146
68881SOL    HW124635  12.887   9.897   1.673  0.5203 -1.4753  1.7826
68881SOL    HW224636  13.007   9.968   1.614  0.2566  0.8349  3.8777
68882SOL     OW24637   7.324   4.720  13.919 -0.2711  0.6360  0.6348
68882SOL    HW124638   7.375   4.776  13.862 -0.6802  0.2642 -0.1071
68882SOL    HW224639   7.383   4.648  13.941 -1.1129 -0.9701 -2.0117
68883SOL     OW24640  10.522   2.652   4.106 -0.0492  0.0949 -0.2937
68883SOL    HW124641  10.558   2.570   4.140  0.4000  1.0293  1.6522
68883SOL    HW224642  10.543   2.651   4.013  2.3048 -0.8292  0.1741
68884SOL     OW24643   5.896   9.921  13.814  0.5582 -0.3464 -0.0005
68884SOL    HW124644   5.965   9.854  13.813  0.6025 -0.3194  0.8983
68884SOL    HW224645   5.823   9.878  13.858  0.5901  0.2018  0.5869
68885SOL     OW24646   7.719   4.527  13.053  0.0238 -0.1603  0.3105
68885SOL    HW124647   7.786   4.567  13.108 -0.5447 -3.0934  3.4163
68885SOL    HW224648   7.637   4.562  13.086 -0.2295 -0.0733 -0.3908
68886SOL     OW24649   7.861  13.272   8.492  0.0658 -0.0110 -0.1676
68886SOL    HW124650   7.882  13.189   8.451 -0.0747 -0.2734  0.2920
68886SOL    HW224651   7.767  13.267   8.510  0.3609 -0.4602  1.4256
68887SOL     OW24652   2.477   7.155   9.113  0.8298 -0.5232 -0.3638
68887SOL    HW124653   2.556   7.128   9.159  1.1440  1.4752  0.3644
68887SOL    HW224654   2.507   7.177   9.025  0.9263 -0.6158 -0.3540
68888SOL     OW24655   6.602  11.609  12.818  0.5692 -0.2228 -0.4969
68888SOL    HW124656   6.541  11.625  12.890  0.9376 -1.0814  0.0174
68888SOL    HW224657   6.548  11.577  12.746  0.3669 -0.5983 -0.1749
68889SOL     OW24658  12.287  10.121  11.518  0.5737  0.1739 -0.0777
68889SOL    HW124659  12.194  10.103  11.531  0.3301  1.2424 -0.2192
68889SOL    HW224660  12.298  10.127  11.423  0.2139  2.6565 -0.0355
68890SOL     OW24661  11.861   8.719   6.613 -0.3080 -0.5352 -0.0257
68890SOL    HW124662  11.860   8.663   6.536  1.8951 -0.9511  0.1758
68890SOL    HW224663  11.876   8.658   6.686  2.4045  0.2175  0.1710
68891SOL     OW24664   5.212   8.234   1.691 -0.1393  0.7756  0.3641
68891SOL    HW124665   5.170   8.248   1.776 -0.4031  1.6498  0.0961
68891SOL    HW224666   5.146   8.191   1.637  0.4538 -1.0324  0.9798
68892SOL     OW24667  10.027  12.663   0.160  0.0528 -0.2968 -0.0283
68892SOL    HW124668   9.939  12.625   0.156  0.1970 -0.7462  0.8438
68892SOL    HW224669  10.045  12.690   0.070 -0.0391 -2.3509 -0.7301
68893SOL     OW24670  13.665   9.882   5.500  0.0941  0.6764  0.5530
68893SOL    HW124671  13.588   9.835   5.471  0.1356  0.3894  0.9032
68893SOL    HW224672  13.657   9.886   5.595  0.0377  1.4645  0.5229
68894SOL     OW24673   6.709   9.430   0.724  0.4946  0.3081 -0.1507
68894SOL    HW124674   6.802   9.447   0.713  0.8774 -0.3471  1.7181
68894SOL    HW224675   6.689   9.459   0.813 -0.8457 -0.5546 -0.1291
68895SOL     OW24676   9.502   6.949  12.363  0.3239  0.4600 -0.3222
68895SOL    HW124677   9.460   6.949  12.449  1.2287 -0.3987  0.1455
68895SOL    HW224678   9.431   6.936  12.301 -0.1966 -0.2251  0.3940
68896SOL     OW24679   4.761   7.890   3.585  0.9076  0.5837 -0.4171
68896SOL    HW124680   4.753   7.918   3.676 -0.1411  1.1304 -0.6595
68896SOL    HW224681   4.691   7.826   3.574  0.8777  0.6972 -0.9002
68897SOL     OW24682   7.845   0.508   7.125 -0.0992 -0.0247  0.6785
68897SOL    HW124683   7.840   0.460   7.208  0.6341 -1.6745 -0.1925
68897SOL    HW224684   7.813   0.446   7.060  1.1862  0.5440 -0.5388
68898SOL     OW24685   3.793  12.393   1.312  0.2437 -0.3539  0.1284
68898SOL    HW124686   3.708  12.421   1.279  0.8266  0.7815 -0.4486
68898SOL    HW224687   3.855  12.457   1.278  1.3235 -1.0904  0.6428
68899SOL     OW24688   9.803   8.273  12.297 -0.2215  0.6831  0.0712
68899SOL    HW124689   9.728   8.328  12.273  1.0511  2.0928 -0.9026
68899SOL    HW224690   9.764   8.196  12.339 -2.3104  0.5093 -1.9902
68900SOL     OW24691   8.881   1.647   0.165  0.4166  0.3665 -0.0771
68900SOL    HW124692   8.894   1.682   0.253  0.2136  1.4325 -0.4466
68900SOL    HW224693   8.927   1.709   0.108 -2.1270  1.5606 -0.9888
68901SOL     OW24694  11.951  10.590   5.943  0.2689  0.1764 -0.0858
68901SOL    HW124695  11.978  10.579   5.852  0.6734 -0.5395  0.1210
68901SOL    HW224696  11.889  10.519   5.958  2.7929 -1.9224  1.2097
68902SOL     OW24697   6.689   7.356   4.084 -0.5161  0.0733  0.0283
68902SOL    HW124698   6.698   7.374   4.178  1.2392 -1.2391  0.1656
68902SOL    HW224699   6.683   7.442   4.044  0.1175  0.7155  1.2429
68903SOL     OW24700  11.509   6.826  12.531 -0.0124 -0.0081 -0.1128
68903SOL    HW124701  11.492   6.919  12.516  0.2969  0.3824  1.7249
68903SOL    HW224702  11.573   6.802  12.463  0.4534  1.2973 -0.1570
68904SOL     OW24703   5.029  13.954  13.775  0.0598 -0.2111  0.1792
68904SOL    HW124704   5.123  13.964  13.759 -0.2876  1.2045 -1.2779
68904SOL    HW224705   5.015  13.994  13.861  0.3098  3.0782 -1.1637
68905SOL     OW24706   5.298  11.435   0.331 -0.2424  0.7113 -0.0813
68905SOL    HW124707   5.301  11.471   0.420 -0.1283  3.7323 -1.1945
68905SOL    HW224708   5.205  11.419   0.316 -0.0942 -2.1088  1.3006
68906SOL     OW24709  11.702   5.547   5.102 -0.6895 -0.3863  0.0789
68906SOL    HW124710  11.734   5.530   5.013 -3.2272 -0.7296 -0.8605
68906SOL    HW224711  11.777   5.585   5.148  1.0489 -1.2789 -1.8505
68907SOL     OW24712   6.169  13.310   0.708  0.9428  0.0017 -0.1485
68907SOL    HW124713   6.101  13.284   0.769  1.4646 -2.3456 -0.4859
68907SOL    HW224714   6.219  13.377   0.755  0.1870 -0.3588  1.2286
68908SOL     OW24715   3.669  14.014   0.913  0.0516 -0.3439  0.3621
68908SOL    HW124716   3.652  14.086   0.852  1.9047  0.7611  1.0720
68908SOL    HW224717   3.652  13.935   0.861 -0.8166  0.5789 -0.8161
68909SOL     OW24718   3.949   0.488   1.066  0.1960  0.5496 -0.1533
68909SOL    HW124719   3.990   0.566   1.105  0.5431  0.7329 -0.8728
68909SOL    HW224720   3.859   0.515   1.049  0.1862  0.6403  0.0358
68910SOL     OW24721  11.045  13.466  10.196 -0.4611  0.2953  0.2561
68910SOL    HW124722  10.997  13.467  10.279 -1.3469 -1.8930 -0.1608
68910SOL    HW224723  11.120  13.410  10.212 -0.4323  0.1667 -0.3194
68911SOL     OW24724   5.618  10.311   9.004 -0.6208  0.5693  0.1587
68911SOL    HW124725   5.549  10.271   9.057 -0.0991  0.5852  0.8754
68911SOL    HW224726   5.588  10.400   8.989 -0.7195  0.6049  0.5461
68912SOL     OW24727   7.662   4.831   5.833 -0.2606  0.2977  0.6046
68912SOL    HW124728   7.736   4.854   5.889  2.1215 -0.5984 -1.9532
68912SOL    HW224729   7.638   4.742   5.859  0.3761  0.1416  0.6571
68913SOL     OW24730  11.448  13.507   8.418 -0.1714  0.5325  0.3222
68913SOL    HW124731  11.403  13.591   8.428 -2.0082 -0.3655  0.1303
68913SOL    HW224732  11.381  13.449   8.380  1.0001 -1.0456  0.5733
68914SOL     OW24733  11.591   2.274   7.751 -0.1324 -0.3863  0.9777
68914SOL    HW124734  11.583   2.195   7.805  1.7888 -1.4134 -0.1212
68914SOL    HW224735  11.640   2.335   7.807  0.1664 -0.7381  1.1084
68915SOL     OW24736  10.895   3.907  11.556 -0.4647 -0.2111 -0.1401
68915SOL    HW124737  10.963   3.908  11.623 -0.4012 -0.9150 -0.1968
68915SOL    HW224738  10.896   3.819  11.521 -1.6349 -0.3405  0.0979
68916SOL     OW24739  10.427   6.299   5.405  0.4219  0.6024 -0.2001
68916SOL    HW124740  10.397   6.246   5.479  0.5789  1.7869  0.7523
68916SOL    HW224741  10.359   6.289   5.339  0.4965 -0.8375 -0.0865
68917SOL     OW24742   3.823  10.519   3.670 -0.1017 -0.1327  0.0553
68917SOL    HW124743   3.808  10.493   3.579 -2.6155  0.1323  0.3165
68917SOL    HW224744   3.916  10.502   3.685  0.3659 -0.2333 -2.5313
68918SOL     OW24745  12.686   7.495   1.438  0.1167  0.0239 -0.1089
68918SOL    HW124746  12.706   7.588   1.443  3.2057 -0.4936 -0.7535
68918SOL    HW224747  12.634   7.477   1.516 -3.8474  2.8596 -1.7830
68919SOL     OW24748  14.050   4.780   1.794  0.2292  0.4584 -0.3829
68919SOL    HW124749  14.141   4.755   1.782  0.4895  1.4092 -0.4660
68919SOL    HW224750  14.001   4.699   1.780  0.9282  0.2979 -2.1693
68920SOL     OW24751   8.489  10.524  11.616 -0.0355  0.0012 -0.1883
68920SOL    HW124752   8.508  10.540  11.523  0.2133  0.7960 -0.0131
68920SOL    HW224753   8.413  10.579  11.635 -0.1809 -0.2782  0.0389
68921SOL     OW24754   0.643   1.543   1.452  0.1100 -0.3525 -0.1164
68921SOL    HW124755   0.695   1.467   1.426 -0.3534 -0.0180 -2.2362
68921SOL    HW224756   0.592   1.514   1.527  2.1609 -1.1630  1.0187
68922SOL     OW24757  11.373  10.494   0.452  0.3610  0.1041 -0.0482
68922SOL    HW124758  11.426  10.437   0.508  1.0983  1.7896  1.0336
68922SOL    HW224759  11.283  10.468   0.469  0.6078  0.1893  1.5106
68923SOL     OW24760   1.959  12.218   6.701  0.4342  0.3350  0.3364
68923SOL    HW124761   2.034  12.245   6.648 -0.8523 -1.5769 -2.7464
68923SOL    HW224762   1.900  12.293   6.700  0.8582  0.6635 -0.0680
68924SOL     OW24763   3.989   1.712  14.031  0.9302  0.1587  0.4881
68924SOL    HW124764   3.916   1.686  13.975  0.8076 -1.9454  1.5100
68924SOL    HW224765   4.022   1.793  13.992 -1.3116  0.6464 -0.5640
68925SOL     OW24766   1.101   2.014   5.116 -0.2342  0.2882  0.1832
68925SOL    HW124767   1.068   2.100   5.143 -0.1642 -0.0951  1.5766
68925SOL    HW224768   1.032   1.978   5.061 -0.2924  1.2081 -0.3662
68926SOL     OW24769   9.363   3.409  11.630  0.4797  0.2477  0.0454
68926SOL    HW124770   9.430   3.475  11.609  0.7293 -0.3079 -0.9442
68926SOL    HW224771   9.413   3.327  11.640 -0.0950 -0.3028 -1.3314
68927SOL     OW24772   8.929   0.367   8.455 -0.1305  0.4577 -0.2467
68927SOL    HW124773   8.944   0.275   8.437  1.7807  0.8163 -0.6663
68927SOL    HW224774   9.011   0.411   8.431 -0.2779  2.0180  1.7661
68928SOL     OW24775  11.819   1.432   7.013  0.7852 -0.1376 -0.0570
68928SOL    HW124776  11.762   1.382   6.955 -0.4864 -0.1975  1.2205
68928SOL    HW224777  11.901   1.383   7.014 -0.2939 -2.0071  0.8426
68929SOL     OW24778   1.677   3.339   4.783 -0.5910 -0.0411  0.1807
68929SOL    HW124779   1.656   3.251   4.754 -0.8210 -0.1745  0.7396
68929SOL    HW224780   1.773   3.344   4.778 -0.4856 -0.7395  1.3052
68930SOL     OW24781   1.428  10.180  13.021  0.0765 -0.0700  0.2555
68930SOL    HW124782   1.412  10.139  13.105 -0.2803 -0.9715 -0.2349
68930SOL    HW224783   1.375  10.259  13.022  0.9984  0.5541  1.3290
68931SOL     OW24784   0.732   8.343   2.755  0.4641  0.0585  0.1423
68931SOL    HW124785   0.799   8.400   2.717  0.5166 -0.6438 -0.8712
68931SOL    HW224786   0.655   8.357   2.700  0.4885 -0.8624 -0.1416
68932SOL     OW24787   3.099  10.618   2.159  0.2194 -0.5808  0.3987
68932SOL    HW124788   3.014  10.579   2.176  0.3223  0.2473  3.3396
68932SOL    HW224789   3.080  10.706   2.128  0.0274 -0.8747 -0.3364
68933SOL     OW24790  10.701  10.403   5.115  0.2069 -0.4259  0.2615
68933SOL    HW124791  10.721  10.359   5.197 -0.4352 -0.7283  0.2623
68933SOL    HW224792  10.662  10.335   5.060 -1.5535  0.2979  0.5503
68934SOL     OW24793   1.914  13.829  10.618 -0.3036 -0.8555 -0.2673
68934SOL    HW124794   1.819  13.838  10.616 -0.1599  1.1011 -1.4210
68934SOL    HW224795   1.936  13.778  10.540 -0.3933 -1.3254  0.0108
68935SOL     OW24796   7.526   5.529   7.532 -0.6352  0.0688  0.4041
68935SOL    HW124797   7.514   5.440   7.566  1.0243 -0.0120  0.8596
68935SOL    HW224798   7.548   5.516   7.440 -0.4458  0.0151  0.4572
68936SOL     OW24799   2.699  11.898  12.747 -0.1361  0.1453  0.3557
68936SOL    HW124800   2.636  11.826  12.752  0.3057 -0.1663  2.4010
68936SOL    HW224801   2.653  11.967  12.699 -0.5206 -1.4904 -1.7641
68937SOL     OW24802   8.775  12.799   5.032  0.0557 -0.1602  0.1797
68937SOL    HW124803   8.782  12.888   5.068  1.6436  0.4195 -1.4049
68937SOL    HW224804   8.804  12.742   5.103  0.4696  0.7177  0.7358
68938SOL     OW24805   8.270   9.554  12.777 -0.0706 -0.3324 -0.0293
68938SOL    HW124806   8.341   9.490  12.766 -0.7593 -1.0272 -0.5339
68938SOL    HW224807   8.222   9.551  12.694 -1.3824 -0.7255  0.7076
68939SOL     OW24808   9.007   6.030   0.430  0.3753 -0.1076  0.2288
68939SOL    HW124809   8.954   6.099   0.469 -0.0397 -1.4628  2.1972
68939SOL    HW224810   8.944   5.966   0.398  0.7914 -0.4475  0.0757
68940SOL     OW24811  10.962   0.323   7.504 -0.4550 -0.0812  0.6342
68940SOL    HW124812  10.977   0.367   7.420 -0.9244  0.0911  0.6344
68940SOL    HW224813  10.867   0.325   7.515 -1.1688 -5.0514 -1.5717
68941SOL     OW24814   6.214   5.525  11.552 -0.1982  0.3053  0.6479
68941SOL    HW124815   6.210   5.616  11.584 -3.3905  1.3825 -2.1662
68941SOL    HW224816   6.234   5.533  11.459  1.7199 -2.1387  0.7569
68942SOL     OW24817   8.739   8.741   8.033  0.3712 -0.1887 -0.4480
68942SOL    HW124818   8.786   8.664   8.066  0.9834 -0.2281 -1.3440
68942SOL    HW224819   8.780   8.815   8.078 -0.1301 -0.3764  0.3209
68943SOL     OW24820   7.555  10.490   8.350 -0.1634  0.0672 -0.0401
68943SOL    HW124821   7.547  10.434   8.427  0.3387  0.5288  0.3500
68943SOL    HW224822   7.466  10.523   8.335  0.0156  1.2315  1.2956
68944SOL     OW24823  10.258   6.998  13.655 -0.0662  0.3172 -0.2561
68944SOL    HW124824  10.255   6.910  13.693  0.8754 -0.4264 -1.8070
68944SOL    HW224825  10.240   7.057  13.728 -2.3800 -1.2220  0.5026
68945SOL     OW24826   9.072   1.632   9.623 -1.0770  0.1077 -0.2863
68945SOL    HW124827   9.052   1.622   9.716 -1.6495  1.3833 -0.2490
68945SOL    HW224828   9.101   1.546   9.595  1.9890  0.3410  1.7525
68946SOL     OW24829   8.074   8.631   3.441  0.0213 -0.0296  0.2682
68946SOL    HW124830   8.058   8.644   3.348  1.3211 -2.8058 -0.4479
68946SOL    HW224831   8.040   8.710   3.483 -1.0750  1.0635 -2.4833
68947SOL     OW24832   9.047   4.179   7.462  0.1934  0.1801 -0.0261
68947SOL    HW124833   8.983   4.108   7.468 -0.0279  0.3627 -0.2426
68947SOL    HW224834   9.054   4.213   7.551  1.8984 -1.5134  0.5570
68948SOL     OW24835   2.370  11.352  13.244  0.3502 -0.1220  0.3819
68948SOL    HW124836   2.319  11.393  13.175 -0.0166 -1.2039 -0.0066
68948SOL    HW224837   2.312  11.287  13.282  1.1320 -0.7539  0.5290
68949SOL     OW24838  10.047   7.944   8.187 -0.5743  0.3752  0.3550
68949SOL    HW124839   9.959   7.935   8.149 -0.1157 -0.1122 -0.6406
68949SOL    HW224840  10.057   8.038   8.201 -0.6885  0.6118 -0.9852
68950SOL     OW24841   8.211   8.571  12.960 -0.1456 -0.2884  0.2355
68950SOL    HW124842   8.218   8.476  12.961  1.1198 -0.2015  1.2379
68950SOL    HW224843   8.210   8.594  12.867 -0.8199 -1.2782 -0.0212
68951SOL     OW24844   3.434   6.925   7.400  0.2220  0.5060  0.1046
68951SOL    HW124845   3.383   6.845   7.385  0.6445 -0.2448  2.3331
68951SOL    HW224846   3.375   6.996   7.373 -1.2741 -0.4411  0.7229
68952SOL     OW24847  12.348   3.081   4.816  0.7403  0.2933  0.4059
68952SOL    HW124848  12.395   3.032   4.748 -0.4002  0.4619 -0.5252
68952SOL    HW224849  12.260   3.044   4.817  0.4823  0.8815  1.2011
68953SOL     OW24850   9.318   2.772   2.505  0.4421  0.0439 -0.0349
68953SOL    HW124851   9.310   2.741   2.415  0.8573 -3.9522  1.1275
68953SOL    HW224852   9.384   2.715   2.544 -0.7573  0.6747  3.2052
68954SOL     OW24853   4.068  12.946   9.876  0.5159  0.5563  0.2074
68954SOL    HW124854   4.058  12.937   9.781  1.8412  0.7484  0.0343
68954SOL    HW224855   4.001  13.009   9.901 -0.8566 -0.6026 -0.3505
68955SOL     OW24856  10.591   1.054   9.343  0.0932  0.0143 -0.2525
68955SOL    HW124857  10.590   1.045   9.438  0.7900 -1.0511 -0.3307
68955SOL    HW224858  10.585   0.965   9.309 -1.1937  0.4376 -1.2422
68956SOL     OW24859   6.762   5.161   7.713  0.0596  0.1145 -0.1675
68956SOL    HW124860   6.670   5.136   7.707  0.1108 -0.3153  0.7229
68956SOL    HW224861   6.761   5.257   7.708 -0.3145  0.0645 -1.4486
68957SOL     OW24862   3.335   9.365   5.643  0.4156  0.1649 -0.2215
68957SOL    HW124863   3.372   9.295   5.590  0.1185 -0.3132  0.1862
68957SOL    HW224864   3.265   9.322   5.694  1.6188  0.2736  1.6119
68958SOL     OW24865   3.684  13.927   7.788  0.2340 -0.1399 -0.2379
68958SOL    HW124866   3.735  13.999   7.749 -1.7312  1.7866  0.5321
68958SOL    HW224867   3.706  13.931   7.881  1.7023 -1.9805 -0.4504
68959SOL     OW24868   3.305  14.114  13.292  0.2671 -0.2164  0.6826
68959SOL    HW124869   3.336  14.122  13.202 -2.4302 -1.2475 -0.4466
68959SOL    HW224870   3.378  14.145  13.346  2.3478 -0.5344 -1.7785
68960SOL     OW24871   6.292  13.462   7.308 -0.4472 -0.1413  0.0051
68960SOL    HW124872   6.281  13.478   7.402  0.6957  0.6604  0.0200
68960SOL    HW224873   6.305  13.549   7.270 -1.1583 -0.4321 -0.9488
68961SOL     OW24874   7.095  11.694   6.718  0.5961  0.0264  0.3292
68961SOL    HW124875   7.120  11.744   6.796  0.9876  0.2471  0.0659
68961SOL    HW224876   7.104  11.756   6.646 -0.4568  0.0319  0.1852
68962SOL     OW24877   6.691   3.539  13.410 -0.3539 -0.3816 -0.0181
68962SOL    HW124878   6.608   3.525  13.455  0.4971 -1.4044  1.3039
68962SOL    HW224879   6.709   3.456  13.366 -0.9430  0.4558 -1.9536
68963SOL     OW24880   1.982  11.292   2.539 -0.0804  0.0563 -0.1138
68963SOL    HW124881   1.906  11.319   2.591  1.6458  1.4306  1.8405
68963SOL    HW224882   1.945  11.233   2.473 -2.6039 -0.7705  1.8436
68964SOL     OW24883  12.839  11.609  11.878  0.0553 -0.1585 -0.0988
68964SOL    HW124884  12.755  11.590  11.837  0.4021 -0.0326 -0.8991
68964SOL    HW224885  12.837  11.703  11.895  0.7429  0.2026 -1.8333
68965SOL     OW24886   1.682  14.126   7.097 -0.0469 -0.2430  0.0773
68965SOL    HW124887   1.773  14.115   7.125  0.0116  1.4348  0.6345
68965SOL    HW224888   1.632  14.130   7.179 -0.1261  2.5936 -0.0158
68966SOL     OW24889   2.124  11.116  11.295 -0.0765 -0.6377  0.0009
68966SOL    HW124890   2.084  11.132  11.209 -0.7065 -1.0923  0.2065
68966SOL    HW224891   2.210  11.158  11.289 -1.0462  1.4976  0.0095
68967SOL     OW24892   3.367   0.002  10.379  0.5341 -0.4842 -0.2350
68967SOL    HW124893   3.436   0.061  10.408  0.5940 -1.2794  1.3587
68967SOL    HW224894   3.288   0.057  10.378  0.9103  0.0655 -0.6157
68968SOL     OW24895   1.416   0.510  11.287  0.1893 -0.3165 -0.4412
68968SOL    HW124896   1.415   0.449  11.213 -0.1524 -1.9310  0.8325
68968SOL    HW224897   1.334   0.558  11.280 -0.8415 -1.9267 -0.0039
68969SOL     OW24898  12.452   9.311   6.457 -0.1726  0.6931 -0.1526
68969SOL    HW124899  12.414   9.225   6.438 -2.3764  1.9642 -1.8468
68969SOL    HW224900  12.397   9.373   6.411  1.3943  3.0701  0.9712
68970SOL     OW24901   5.928   7.360  13.913  0.5927  0.6001  0.0565
68970SOL    HW124902   6.008   7.352  13.860 -0.5738 -2.4918 -1.4895
68970SOL    HW224903   5.949   7.313  13.994 -0.0362 -1.6857 -1.0121
68971SOL     OW24904  10.834   6.404   4.561 -0.3557 -0.4473 -0.3016
68971SOL    HW124905  10.871   6.351   4.632 -1.4156 -1.2035 -0.2986
68971SOL    HW224906  10.743   6.417   4.586 -0.9644 -1.4036 -1.8816
68972SOL     OW24907  10.398   7.281   0.427  0.2101  0.2456  0.1482
68972SOL    HW124908  10.406   7.345   0.497  1.2714  0.1635  0.1287
68972SOL    HW224909  10.447   7.205   0.458 -1.5528 -0.8173  0.4417
68973SOL     OW24910   8.201   6.629  13.513 -0.2892  0.2476 -0.6227
68973SOL    HW124911   8.142   6.674  13.574  1.0230 -0.4641  1.2774
68973SOL    HW224912   8.144   6.571  13.463 -1.6330  2.0219 -1.2685
68974SOL     OW24913   6.324   7.999  13.474  0.3101 -0.1202  0.1148
68974SOL    HW124914   6.391   8.039  13.529  0.4738 -0.4335  0.1437
68974SOL    HW224915   6.372   7.941  13.415  0.0761 -0.2728  0.0711
68975SOL     OW24916  13.434  12.277   5.344  0.1172 -0.3386  0.0349
68975SOL    HW124917  13.381  12.355   5.327 -0.0642 -0.1017  1.5669
68975SOL    HW224918  13.523  12.302   5.318  0.0841  0.4386  0.6463
68976SOL     OW24919   7.661  11.268  11.068  0.6754 -0.1793 -0.3638
68976SOL    HW124920   7.727  11.235  11.007  2.0236  1.9075 -0.1330
68976SOL    HW224921   7.710  11.292  11.146 -0.1902  2.0997 -0.4368
68977SOL     OW24922   4.206   3.260   2.330 -0.5992  0.3269  0.2523
68977SOL    HW124923   4.264   3.235   2.402 -0.1861  2.0052  0.5485
68977SOL    HW224924   4.256   3.239   2.251 -0.1103  0.5807  0.4899
68978SOL     OW24925  10.812   7.549   3.645  0.3746 -0.1898 -0.8991
68978SOL    HW124926  10.881   7.482   3.653  0.2466 -0.3570 -1.1589
68978SOL    HW224927  10.771   7.552   3.731  0.9272  0.1519 -0.6423
68979SOL     OW24928   6.257  10.157   8.992  0.7764 -0.1449  0.0643
68979SOL    HW124929   6.350  10.159   9.015  0.6838 -1.8019  0.7133
68979SOL    HW224930   6.225  10.244   9.018  1.9104  0.0801  0.8097
68980SOL     OW24931   0.199  10.219   8.660 -0.2004  0.0442 -0.0148
68980SOL    HW124932   0.272  10.168   8.625  0.7466  0.1547  1.6848
68980SOL    HW224933   0.239  10.301   8.690 -1.3029  0.7936 -0.4831
68981SOL     OW24934   5.755  13.394  13.294  0.1972 -0.0923  0.2698
68981SOL    HW124935   5.771  13.345  13.375 -0.7263 -0.6547  0.1200
68981SOL    HW224936   5.685  13.346  13.250 -1.5830  1.9985  0.6703
68982SOL     OW24937   6.507   6.783   5.005  0.2434  0.1346 -0.9626
68982SOL    HW124938   6.416   6.769   5.033  0.4010 -0.4944 -0.7355
68982SOL    HW224939   6.501   6.843   4.931 -0.3408  0.2766 -0.8040
68983SOL     OW24940   8.033   2.005  11.972 -0.2397  0.0812  0.0805
68983SOL    HW124941   8.095   1.932  11.973 -1.9780 -1.5162  1.7839
68983SOL    HW224942   7.956   1.971  12.019 -1.5793  2.6576 -0.0681
68984SOL     OW24943  12.311   8.324   3.219  0.3099  0.1787 -0.3784
68984SOL    HW124944  12.248   8.386   3.182 -2.2370  0.2182  3.4911
68984SOL    HW224945  12.302   8.246   3.164 -2.8987  0.3421 -0.2917
68985SOL     OW24946  13.295   8.802  10.597  0.0888 -0.2633 -0.1842
68985SOL    HW124947  13.385   8.771  10.584  0.4476  0.1846  1.1171
68985SOL    HW224948  13.256   8.801  10.509  1.4027 -0.3320 -0.7815
68986SOL     OW24949   9.990  11.925  10.774  0.4005 -0.2860 -0.1771
68986SOL    HW124950  10.008  11.835  10.749  0.2291 -0.7594  1.3130
68986SOL    HW224951   9.903  11.943  10.738 -0.6685 -1.5809  1.5942
68987SOL     OW24952   2.062  13.977  13.350  0.3417  0.2613  0.0659
68987SOL    HW124953   2.042  13.893  13.308  0.3146  0.4852 -0.3742
68987SOL    HW224954   2.124  13.955  13.420 -0.9374 -0.3623  1.0534
68988SOL     OW24955  12.156   6.576  13.669  0.0624  0.1054 -0.0824
68988SOL    HW124956  12.086   6.631  13.705 -1.3239 -1.7090  0.1396
68988SOL    HW224957  12.181   6.619  13.587  0.6081  2.2242  1.0918
68989SOL     OW24958   1.040   7.859   7.807  0.0378 -0.2269 -0.0329
68989SOL    HW124959   0.980   7.885   7.738  0.9801  0.5132 -0.5964
68989SOL    HW224960   1.117   7.824   7.761  0.1051 -1.0509  0.6655
68990SOL     OW24961   2.370   5.485   2.027  0.1933 -0.8426  0.6787
68990SOL    HW124962   2.402   5.406   2.071 -0.1892 -0.7912  1.0521
68990SOL    HW224963   2.287   5.457   1.987 -1.3082  0.0106  2.9910
68991SOL     OW24964   2.998   3.868  12.258  0.5188  0.2077 -0.0914
68991SOL    HW124965   3.035   3.803  12.318 -0.2097 -1.3039 -1.1996
68991SOL    HW224966   2.941   3.817  12.200  0.1151  1.8197 -1.1826
68992SOL     OW24967  13.291  12.527   8.237  0.1818  0.5515  0.1018
68992SOL    HW124968  13.253  12.448   8.197  0.5820  1.9225 -3.3432
68992SOL    HW224969  13.377  12.498   8.269  0.3193 -0.4612 -1.0767
68993SOL     OW24970  12.593   0.763  10.904 -0.5333  0.1431  0.0469
68993SOL    HW124971  12.657   0.831  10.924 -0.6649  0.2236  0.1993
68993SOL    HW224972  12.606   0.744  10.811 -0.5360  0.4210 -0.0108
68994SOL     OW24973   0.619   3.250  12.896  0.2923 -0.2625  0.9848
68994SOL    HW124974   0.661   3.335  12.885 -0.1721  0.0992  1.8337
68994SOL    HW224975   0.558   3.263  12.969 -0.8303 -0.9312  0.2117
68995SOL     OW24976   6.798   4.200   4.337  0.1520 -0.3839  0.2702
68995SOL    HW124977   6.826   4.129   4.280 -0.0033 -0.0097 -0.2865
68995SOL    HW224978   6.880   4.244   4.361  0.0908  0.7796 -1.4526
68996SOL     OW24979   4.316  11.764   6.736 -0.1559  0.0347 -0.2753
68996SOL    HW124980   4.360  11.849   6.748  0.3830 -0.3778  0.7957
68996SOL    HW224981   4.229  11.787   6.702 -0.8483  1.2016  2.0823
68997SOL     OW24982   1.325   0.686  10.829  0.2083 -0.2955 -0.2693
68997SOL    HW124983   1.311   0.781  10.821 -1.7322 -0.5137 -0.0307
68997SOL    HW224984   1.251   0.656  10.882  0.3619 -2.0537 -0.9961
68998SOL     OW24985   2.097   0.234   1.981 -0.7754  0.2775  0.1190
68998SOL    HW124986   2.109   0.228   2.076 -2.4466 -2.1862  0.2478
68998SOL    HW224987   2.171   0.185   1.945 -0.0485  1.3507  0.0841
68999SOL     OW24988   4.594  10.448   3.183  0.9831 -0.1782  0.0854
68999SOL    HW124989   4.558  10.363   3.159  0.9685 -0.6503  1.6593
68999SOL    HW224990   4.674  10.456   3.132  0.8390 -1.0042 -0.2912
69000SOL     OW24991   8.408  10.489  10.697  0.3947 -0.0944  0.1698
69000SOL    HW124992   8.409  10.421  10.630  0.4996  0.0838 -0.0125
69000SOL    HW224993   8.316  10.511  10.708  0.3812 -0.0876  0.0440
69001SOL     OW24994   4.404  10.579   7.444  0.4685 -0.5361  0.0347
69001SOL    HW124995   4.408  10.653   7.506 -0.4015 -0.7935  0.4232
69001SOL    HW224996   4.345  10.517   7.486  0.0509 -0.8223 -0.9526
69002SOL     OW24997   0.550   9.746   0.657  0.0260 -0.0242  0.6361
69002SOL    HW124998   0.488   9.819   0.667 -0.6290 -0.5080  0.1756
69002SOL    HW224999   0.496   9.673   0.629  0.9830 -0.1131 -1.1054
69003SOL     OW25000  11.544  12.448   5.296 -0.4697  0.0157  0.5546
69003SOL    HW125001  11.562  12.432   5.204 -1.1054 -1.2401  0.6232
69003SOL    HW225002  11.627  12.427   5.340 -0.3109  0.1346  0.3130
69004SOL     OW25003   2.480   3.104  11.801 -0.0356 -0.2301 -0.4313
69004SOL    HW125004   2.432   3.049  11.863  0.7036 -1.2565 -0.7401
69004SOL    HW225005   2.415   3.166  11.768 -0.7977 -0.6715  0.2083
69005SOL     OW25006  12.298   2.401   7.576  0.6572  0.0775 -0.6852
69005SOL    HW125007  12.382   2.360   7.555  1.3253  0.7198  0.6475
69005SOL    HW225008  12.318   2.464   7.645 -1.0184 -0.1393  0.0383
69006SOL     OW25009   0.794   6.095   2.288  1.1961  0.7290  0.0054
69006SOL    HW125010   0.776   6.144   2.209 -2.1219 -1.5613 -0.8607
69006SOL    HW225011   0.836   6.014   2.257 -1.6830 -0.9702  0.2100
69007SOL     OW25012   8.243   0.180   6.943  0.4126  0.2644  0.1646
69007SOL    HW125013   8.203   0.105   6.898  2.7537 -0.4476 -0.9620
69007SOL    HW225014   8.260   0.148   7.031  3.1182 -1.3830 -0.8113
69008SOL     OW25015   8.444   2.876  11.490  0.9694 -0.7146  0.6011
69008SOL    HW125016   8.476   2.859  11.579  0.1551  0.3403  1.1134
69008SOL    HW225017   8.498   2.820  11.434  1.3586 -1.5438  1.7738
69009SOL     OW25018   5.972  12.189  11.200 -0.1519 -0.3622 -0.2860
69009SOL    HW125019   6.047  12.247  11.187  0.6569 -0.7854  1.9906
69009SOL    HW225020   5.985  12.118  11.137  1.2158 -0.2713 -0.1366
69010SOL     OW25021  12.671  13.053  13.037 -0.3384  0.0356 -0.2123
69010SOL    HW125022  12.722  12.978  13.005 -1.3734 -1.3828  1.2981
69010SOL    HW225023  12.580  13.025  13.029 -0.7550  1.2874  0.0500
69011SOL     OW25024   9.392   6.033  13.615  0.1978  0.7450 -0.0751
69011SOL    HW125025   9.477   6.010  13.651  0.4028  0.6000 -0.6451
69011SOL    HW225026   9.371   6.118  13.655  0.0723  0.2444  0.9550
69012SOL     OW25027  11.739  12.728   0.812 -0.1357  0.0541  0.2687
69012SOL    HW125028  11.676  12.715   0.883 -1.9025  0.5052 -1.1410
69012SOL    HW225029  11.769  12.818   0.823 -1.5926  0.6656 -0.3938
69013SOL     OW25030   9.053   0.251   7.332  0.1858  0.3997 -0.1349
69013SOL    HW125031   9.038   0.308   7.408 -1.2171  0.5581 -0.5041
69013SOL    HW225032   9.140   0.214   7.347  0.5581  1.5844  0.7952
69014SOL     OW25033  10.782  12.176   4.532  0.0027  0.3242  0.3166
69014SOL    HW125034  10.759  12.254   4.482  1.1459 -0.0586 -0.8457
69014SOL    HW225035  10.728  12.107   4.496 -0.0453  0.2929  0.4449
69015SOL     OW25036   6.517  13.981   6.514  0.2225 -0.2468 -0.3679
69015SOL    HW125037   6.480  13.894   6.499  0.9675 -0.4914 -0.8734
69015SOL    HW225038   6.479  14.010   6.597  0.7437 -1.4757  0.3196
69016SOL     OW25039   2.989   7.445   8.382  0.0609  0.2424 -0.4200
69016SOL    HW125040   2.911   7.390   8.374 -1.1995  1.7112  0.9083
69016SOL    HW225041   3.011   7.442   8.475  0.1975  1.5934 -0.3818
69017SOL     OW25042   0.188   8.407   4.740 -0.7964 -0.3048  0.2980
69017SOL    HW125043   0.103   8.372   4.714 -1.0856 -0.1065  0.9574
69017SOL    HW225044   0.170   8.498   4.766 -0.7457 -0.8246  2.3163
69018SOL     OW25045   1.386  11.806   5.220 -0.0276  0.6073  0.2078
69018SOL    HW125046   1.308  11.850   5.185  1.3906  2.3385 -0.9417
69018SOL    HW225047   1.448  11.805   5.147  1.3260 -0.0120  1.3100
69019SOL     OW25048   0.605  12.654   2.430 -0.1133 -0.5406  0.1922
69019SOL    HW125049   0.620  12.702   2.512  0.7352  0.7449 -0.6761
69019SOL    HW225050   0.693  12.640   2.394 -0.4134 -1.9037 -0.0771
69020SOL     OW25051  10.934  13.534   1.248 -0.2701  0.3164  0.1423
69020SOL    HW125052  10.975  13.557   1.331 -0.2797  0.4109  0.1210
69020SOL    HW225053  11.007  13.508   1.191 -0.4031 -1.2481  0.6604
69021SOL     OW25054  10.452   6.957   7.578  0.2059 -1.1552 -0.5934
69021SOL    HW125055  10.382   6.996   7.525  0.5845 -2.3804 -2.0608
69021SOL    HW225056  10.419   6.871   7.602 -0.4528 -0.2193  2.2899
69022SOL     OW25057   6.389   3.985  13.057  0.3190  0.0933  0.4068
69022SOL    HW125058   6.379   4.070  13.101 -2.0929 -0.3091  0.7489
69022SOL    HW225059   6.408   3.924  13.128 -1.3652 -0.1855  0.6529
69023SOL     OW25060   0.625   9.034   5.823 -0.4358  0.2117 -0.3704
69023SOL    HW125061   0.720   9.032   5.833 -0.4588  3.5569  2.2875
69023SOL    HW225062   0.592   9.051   5.911 -3.4839  0.1101 -1.3785
69024SOL     OW25063   0.953   5.059  11.432 -0.0525 -0.2407 -0.4544
69024SOL    HW125064   0.927   5.026  11.346  1.2146 -0.7444 -0.6610
69024SOL    HW225065   1.047   5.077  11.423 -0.4746  2.6304 -0.1081
69025SOL     OW25066   1.251   4.381   9.101  0.3480 -0.0681  0.9758
69025SOL    HW125067   1.277   4.465   9.138  0.8754 -0.0164  0.5045
69025SOL    HW225068   1.177   4.353   9.154  1.6420 -0.4452  2.6619
69026SOL     OW25069   1.531   0.503   7.532 -0.2681 -0.1107 -0.1064
69026SOL    HW125070   1.541   0.408   7.535  0.7169 -0.0239 -0.2383
69026SOL    HW225071   1.594   0.535   7.597 -0.4391  0.4574 -0.2152
69027SOL     OW25072  12.213  13.465   3.468  0.6157 -0.0920  0.3614
69027SOL    HW125073  12.126  13.502   3.462  0.3094 -0.8643 -0.2427
69027SOL    HW225074  12.230  13.455   3.562  0.5098  1.0699  0.5151
69028SOL     OW25075   6.819  10.954  12.986  0.0681  0.0194 -0.3970
69028SOL    HW125076   6.726  10.962  12.965 -0.3052  1.2690  1.4318
69028SOL    HW225077   6.831  10.861  13.005 -1.3734  0.1325  1.4292
69029SOL     OW25078   4.107   7.040  11.261 -0.1452  0.3214 -0.4261
69029SOL    HW125079   4.063   7.004  11.338 -0.3970  0.7316 -0.3781
69029SOL    HW225080   4.198   7.053  11.290 -0.2078  0.3492 -0.2389
69030SOL     OW25081  14.073   5.682   7.402 -0.0796 -0.5956  0.1628
69030SOL    HW125082  14.065   5.746   7.474 -1.5884  0.2895 -0.7307
69030SOL    HW225083  14.121   5.609   7.441  1.2354  0.8218  1.3920
69031SOL     OW25084   2.513  10.733   0.396 -0.5702 -0.3495 -0.2064
69031SOL    HW125085   2.591  10.762   0.442  0.6514 -2.1024 -1.0778
69031SOL    HW225086   2.504  10.793   0.322  0.1383 -0.3406 -0.2847
69032SOL     OW25087   5.950   0.614  10.322  0.0521  0.1535 -0.4886
69032SOL    HW125088   5.921   0.565  10.245  0.3431 -2.1433  0.7714
69032SOL    HW225089   5.928   0.705  10.303 -1.0188 -0.5134 -2.7296
69033SOL     OW25090   8.009  10.967   8.467  0.2508  0.1550 -0.2129
69033SOL    HW125091   8.079  10.997   8.409  0.8360  2.1252  1.3742
69033SOL    HW225092   8.041  10.884   8.503  1.4901  0.6819 -0.0409
69034SOL     OW25093   3.564  13.868  12.866 -0.0247  0.9690 -0.4641
69034SOL    HW125094   3.640  13.908  12.823 -0.1030  1.1195 -0.4637
69034SOL    HW225095   3.490  13.892  12.810 -0.0605  0.7516 -0.5094
69035SOL     OW25096   7.609   0.176  12.054  0.5387 -0.0488 -0.1426
69035SOL    HW125097   7.578   0.124  12.128  0.6040  0.8326  0.5254
69035SOL    HW225098   7.546   0.159  11.984  1.0656 -1.7167 -0.2455
69036SOL     OW25099   9.254  10.008  13.115 -0.2086  0.5385 -0.1878
69036SOL    HW125100   9.345  10.025  13.142 -0.1091 -0.4066  0.1359
69036SOL    HW225101   9.263   9.957  13.034 -0.2781 -2.8777  1.7472
69037SOL     OW25102  10.219   4.278   4.948 -0.1757  0.4993 -0.0590
69037SOL    HW125103  10.243   4.370   4.961 -1.4094  0.8974 -0.4445
69037SOL    HW225104  10.155   4.280   4.877 -0.5855 -0.6053  0.2587
69038SOL     OW25105   3.192   0.275   2.809  0.6426  0.4391 -0.2296
69038SOL    HW125106   3.190   0.180   2.819  2.0162  0.0341 -2.9883
69038SOL    HW225107   3.208   0.308   2.898 -1.9544 -1.7088  1.1899
69039SOL     OW25108   4.097   8.005   6.402 -0.2427  0.3056 -0.2014
69039SOL    HW125109   4.078   7.916   6.375  1.4381  0.1904 -1.1486
69039SOL    HW225110   4.097   8.002   6.498  1.6590 -1.2005 -0.1853
69040SOL     OW25111  14.064   4.631  13.861  0.0848  0.3948  0.1106
69040SOL    HW125112  14.015   4.713  13.870 -0.4496  0.1285 -0.3334
69040SOL    HW225113  14.131   4.636  13.929 -2.2502 -0.4628  2.6810
69041SOL     OW25114   9.123  10.831   5.946 -0.2064 -0.3607 -0.4665
69041SOL    HW125115   9.045  10.883   5.930 -0.4723 -0.2694  0.9981
69041SOL    HW225116   9.099  10.742   5.919 -0.9731 -0.4240  0.4019
69042SOL     OW25117  12.012   8.811   1.216 -0.3443  0.2593  0.3606
69042SOL    HW125118  12.008   8.716   1.204  0.6269  0.0917  1.2352
69042SOL    HW225119  12.098   8.836   1.184 -0.7146  0.9103 -0.1660
69043SOL     OW25120   8.371  10.083  11.221 -0.3593  0.1560  0.6291
69043SOL    HW125121   8.363  10.178  11.227  3.5167  0.7620 -0.9983
69043SOL    HW225122   8.377  10.053  11.311  0.4196  1.7561  1.1382
69044SOL     OW25123  12.259  12.273  13.680 -0.5918 -0.1676 -0.3784
69044SOL    HW125124  12.277  12.180  13.694  0.3123  0.0108 -0.2692
69044SOL    HW225125  12.327  12.301  13.618 -2.1312 -0.0516 -2.0865
69045SOL     OW25126  10.031   5.858   8.343 -0.0400  0.2602  0.3407
69045SOL    HW125127  10.003   5.946   8.316  0.0120 -0.1381 -1.0613
69045SOL    HW225128   9.993   5.800   8.278  1.4385 -0.5947  0.2118
69046SOL     OW25129   5.187   2.051   3.902  0.1571 -0.6862  0.3305
69046SOL    HW125130   5.221   1.968   3.935  1.3906  0.4607  2.1244
69046SOL    HW225131   5.242   2.071   3.826  1.6269 -0.2876  1.4538
69047SOL     OW25132   2.876  10.071   0.246 -0.3361  0.8117 -0.0660
69047SOL    HW125133   2.947  10.028   0.293  1.9271  3.4585 -0.8468
69047SOL    HW225134   2.813  10.095   0.315  1.1663  1.4419  1.1379
69048SOL     OW25135  10.129  12.768   1.448  0.0402  0.2976 -0.3253
69048SOL    HW125136  10.210  12.779   1.498 -1.0801 -3.1961  2.7453
69048SOL    HW225137  10.068  12.831   1.485  0.3355  0.4551 -0.1071
69049SOL     OW25138   9.904   2.181   0.779 -0.0108  0.1797 -0.0047
69049SOL    HW125139   9.858   2.214   0.857 -1.2090  0.4894 -0.8091
69049SOL    HW225140   9.868   2.232   0.707  0.0003 -1.0902 -0.9519
69050SOL     OW25141   5.733  12.131   3.910 -0.3814 -0.4513  0.0561
69050SOL    HW125142   5.813  12.085   3.937 -1.2979 -0.2165  3.6828
69050SOL    HW225143   5.664  12.065   3.917 -0.7874 -0.2370 -1.5199
69051SOL     OW25144   2.638   5.460   0.242 -0.2671 -0.0765  0.4612
69051SOL    HW125145   2.591   5.407   0.178 -0.4829 -0.2250  0.7356
69051SOL    HW225146   2.724   5.418   0.250 -0.2305 -0.0429  0.2567
69052SOL     OW25147   0.298   8.910   0.627  0.1715 -0.0102  0.2644
69052SOL    HW125148   0.226   8.915   0.690  0.3539  0.9208  0.4192
69052SOL    HW225149   0.262   8.862   0.553  0.5252 -2.9379  1.8290
69053SOL     OW25150  14.001   0.513   2.454 -0.0631  0.0973 -0.4562
69053SOL    HW125151  13.927   0.502   2.394 -0.3764 -0.5431  0.0318
69053SOL    HW225152  14.061   0.442   2.431 -1.0066 -1.3017  1.1447
69054SOL     OW25153   8.443  13.196   2.745 -0.2634 -0.0015  0.9979
69054SOL    HW125154   8.426  13.289   2.758  2.4267  0.8570 -0.8314
69054SOL    HW225155   8.423  13.156   2.830 -3.0391  1.9116  1.3945
69055SOL     OW25156   7.937   2.482  11.227  0.3298 -0.0286  0.3567
69055SOL    HW125157   7.901   2.571  11.225 -0.4706 -0.2878  1.9759
69055SOL    HW225158   8.006   2.483  11.161 -0.1363  1.5886 -0.1555
69056SOL     OW25159   8.430   7.648  12.698  0.8633  0.5271 -0.5329
69056SOL    HW125160   8.512   7.697  12.700  0.6062  0.9505 -0.2585
69056SOL    HW225161   8.366   7.710  12.663  0.7634  0.0328 -1.2704
69057SOL     OW25162   1.974   4.980  10.549  0.2173 -0.1794  0.2031
69057SOL    HW125163   2.019   5.010  10.628  0.9638  1.6540 -0.8640
69057SOL    HW225164   1.950   5.060  10.503 -1.2858 -1.1898 -0.8567
69058SOL     OW25165   8.343   7.742   0.181 -0.6349 -0.2016 -0.1744
69058SOL    HW125166   8.248   7.741   0.177 -0.6273  0.8593 -1.8066
69058SOL    HW225167   8.371   7.743   0.089  0.8573  1.7654  0.2156
69059SOL     OW25168   6.236   8.821   4.968  0.4716 -0.4946 -0.2065
69059SOL    HW125169   6.330   8.829   4.983  0.8173 -1.8175 -1.4694
69059SOL    HW225170   6.201   8.793   5.053  1.0375  0.9887  0.5542
69060SOL     OW25171   3.729   7.508  10.580  0.1082 -0.4315  0.3007
69060SOL    HW125172   3.701   7.541  10.666 -0.9697 -2.1596  0.6821
69060SOL    HW225173   3.648   7.500  10.530  0.1985 -2.7230  0.3801
69061SOL     OW25174  13.401   2.537  12.296 -1.3088 -0.2215 -1.0398
69061SOL    HW125175  13.344   2.548  12.372 -1.0313  0.2745 -0.8955
69061SOL    HW225176  13.375   2.453  12.258 -0.3809 -1.2773  0.5336
69062SOL     OW25177   6.979  13.947   5.632 -0.0448 -0.2990  0.2170
69062SOL    HW125178   6.972  13.888   5.557 -0.9001 -0.4802  0.4244
69062SOL    HW225179   6.926  13.905   5.700 -0.1416  0.3891  0.5759
69063SOL     OW25180   4.403  11.245  12.999 -0.3327 -0.3856  0.3993
69063SOL    HW125181   4.355  11.293  12.933 -1.1398  0.8403  1.8318
69063SOL    HW225182   4.357  11.161  13.006  0.9807 -1.4157 -1.9791
69064SOL     OW25183   2.819   6.559  10.215  0.0449  0.4657  0.1040
69064SOL    HW125184   2.801   6.592  10.303 -1.1899 -1.4927  0.6477
69064SOL    HW225185   2.759   6.486  10.204  0.6271  0.2496 -2.1420
69065SOL     OW25186  10.881   9.706   0.666  0.4967  0.2321  0.1437
69065SOL    HW125187  10.919   9.618   0.667  1.8192  0.7677 -0.8185
69065SOL    HW225188  10.949   9.763   0.702  0.2166  1.0548 -0.5853
69066SOL     OW25189  13.006  11.467   3.280  0.3863 -0.0551 -0.1130
69066SOL    HW125190  12.995  11.373   3.297 -2.3999  0.5215  1.9808
69066SOL    HW225191  13.093  11.487   3.314  0.4562 -1.6196  0.7353
69067SOL     OW25192   2.408   0.656   0.018  0.3754  0.9437  0.6760
69067SOL    HW125193   2.479   0.613  -0.030 -0.6573  1.2207 -1.2124
69067SOL    HW225194   2.389   0.596   0.090  0.7449 -0.4682 -0.3461
69068SOL     OW25195   5.368  13.280  10.628 -0.3467  0.1185 -0.1549
69068SOL    HW125196   5.442  13.272  10.688 -1.1870 -1.2638  0.7448
69068SOL    HW225197   5.291  13.287  10.685 -0.9923  0.6651 -1.0724
69069SOL     OW25198  11.500   0.564  11.829 -0.1169  0.5263  0.0124
69069SOL    HW125199  11.553   0.608  11.896  2.0460 -2.0132  0.1630
69069SOL    HW225200  11.410   0.585  11.853  0.4371 -0.8576  4.3587
69070SOL     OW25201  12.798  10.659   1.991  0.1480 -0.1987  0.2892
69070SOL    HW125202  12.715  10.642   1.947  0.3034  0.8230 -0.4545
69070SOL    HW225203  12.787  10.747   2.028  0.9415  0.0082  0.0514
69071SOL     OW25204   5.431   1.689   5.518  0.0665 -0.1940 -0.1933
69071SOL    HW125205   5.368   1.704   5.588  1.1328 -1.8544  1.1798
69071SOL    HW225206   5.464   1.777   5.496 -0.9310  0.4366  0.7457
69072SOL     OW25207   9.948   3.324  13.989 -0.2069 -0.3103  0.0169
69072SOL    HW125208   9.999   3.340  13.909  1.1843  1.6382  1.2273
69072SOL    HW225209   9.993   3.374  14.057 -2.0717 -0.9152  1.7859
69073SOL     OW25210   9.276   0.347  10.690 -0.0851  0.4450  0.7024
69073SOL    HW125211   9.214   0.331  10.619  1.3483 -1.5802 -0.1911
69073SOL    HW225212   9.361   0.348  10.647  0.7944 -0.5234  2.3405
69074SOL     OW25213  12.841   4.867   2.402 -0.2165  0.0659  0.2683
69074SOL    HW125214  12.776   4.877   2.471 -2.8789 -0.9807 -1.8845
69074SOL    HW225215  12.824   4.780   2.366  1.8597  0.0987 -0.9681
69075SOL     OW25216   7.845  11.035  12.348 -0.2545  0.0966 -0.2445
69075SOL    HW125217   7.923  11.005  12.302  1.2203 -0.1553  2.2206
69075SOL    HW225218   7.790  10.957  12.354 -1.0116  0.3945 -2.4352
69076SOL     OW25219   0.619  11.578   9.112  0.3122 -0.5698 -0.2195
69076SOL    HW125220   0.708  11.577   9.147 -0.4702 -0.7861  1.9246
69076SOL    HW225221   0.570  11.519   9.169 -2.2101  2.9553  1.6647
69077SOL     OW25222   3.555   4.798  13.637  0.3531 -0.2943 -0.1138
69077SOL    HW125223   3.495   4.867  13.665 -0.0240 -0.8210  0.4046
69077SOL    HW225224   3.498   4.734  13.594 -0.1369 -2.5988  3.5360
69078SOL     OW25225  11.386  11.529   9.833 -0.5534  0.1619 -0.1732
69078SOL    HW125226  11.334  11.468   9.781 -0.3623  2.4850 -3.4587
69078SOL    HW225227  11.465  11.480   9.857 -1.6137 -1.6410 -0.2221
69079SOL     OW25228   0.882   9.614   6.942 -0.2321 -0.5695 -0.2376
69079SOL    HW125229   0.953   9.678   6.949  2.0038 -2.8917 -0.0761
69079SOL    HW225230   0.819   9.641   7.009  1.4915  0.4500  1.0755
69080SOL     OW25231   9.371   6.225   4.314 -0.2752  0.2545  0.3068
69080SOL    HW125232   9.309   6.293   4.288 -1.0918 -0.2633  0.8242
69080SOL    HW225233   9.457   6.258   4.288 -0.9199  0.1831 -2.1657
69081SOL     OW25234  11.858   9.326   5.540 -0.0433 -0.0618 -0.3534
69081SOL    HW125235  11.851   9.352   5.448 -2.4413 -1.2337 -0.5829
69081SOL    HW225236  11.927   9.260   5.540 -0.6212 -0.7100 -1.5127
69082SOL     OW25237   8.237   5.097   9.604 -0.0049  0.0027  0.5491
69082SOL    HW125238   8.207   5.106   9.695  0.3497 -0.0297  0.6708
69082SOL    HW225239   8.175   5.148   9.553 -0.9974 -1.0524  0.6582
69083SOL     OW25240  12.703   0.368   4.348  0.5605  0.1478  0.0550
69083SOL    HW125241  12.768   0.306   4.314  1.1706  0.6980  0.1943
69083SOL    HW225242  12.707   0.442   4.288 -1.5054 -0.6824 -1.2191
69084SOL     OW25243   0.234   4.358   3.494  0.2382 -0.6390 -0.2051
69084SOL    HW125244   0.217   4.291   3.561 -0.3734 -0.0093  0.2833
69084SOL    HW225245   0.195   4.322   3.415  1.2730 -1.5529 -0.3327
69085SOL     OW25246   0.663   6.678   7.663  0.1640  0.7373  0.0610
69085SOL    HW125247   0.570   6.690   7.645  0.5892  1.2285 -2.0094
69085SOL    HW225248   0.683   6.591   7.631  0.6793  1.1529 -0.7886
69086SOL     OW25249   3.500   7.203  12.962  0.1692 -0.2505 -0.1389
69086SOL    HW125250   3.472   7.176  12.875  0.4726 -0.8233 -0.0620
69086SOL    HW225251   3.536   7.124  13.002  2.3473  0.5535 -0.3958
69087SOL     OW25252   7.595   9.638  13.554 -0.1073 -0.1030 -0.4712
69087SOL    HW125253   7.514   9.689  13.551 -0.6703 -1.0184 -1.7188
69087SOL    HW225254   7.664   9.703  13.570 -1.0545  0.7054  0.4844
69088SOL     OW25255   3.795   0.492   4.420 -0.3391 -0.2456 -0.2512
69088SOL    HW125256   3.815   0.505   4.327  1.2156  0.1044  0.1030
69088SOL    HW225257   3.881   0.492   4.463 -1.0630  0.1500  1.2520
69089SOL     OW25258  13.298   2.413   7.392 -0.3087 -0.3370 -0.4480
69089SOL    HW125259  13.376   2.417   7.336  0.0482  0.0542  0.0738
69089SOL    HW225260  13.294   2.321   7.419  0.6259 -0.1293  0.4382
69090SOL     OW25261   1.641   0.143  10.423 -0.4559  0.0760 -0.2745
69090SOL    HW125262   1.707   0.145  10.353 -1.0440 -0.6199 -0.8673
69090SOL    HW225263   1.586   0.219  10.406  1.1198  1.6295  1.1878
69091SOL     OW25264   9.011  11.790   0.152 -0.5751  0.4321 -0.0476
69091SOL    HW125265   9.046  11.702   0.163  1.3793  0.9586 -1.4616
69091SOL    HW225266   9.024  11.832   0.237  0.1198 -0.0996  0.1111
69092SOL     OW25267   8.366   5.544   7.524 -0.2984  0.0152  0.4344
69092SOL    HW125268   8.417   5.477   7.570 -0.6747 -0.8339 -0.3593
69092SOL    HW225269   8.346   5.609   7.592  0.5579 -0.3738  1.0925
69093SOL     OW25270   6.974  14.149   1.407  0.2918 -0.2154  0.1312
69093SOL    HW125271   6.987  14.195   1.323 -1.9350 -0.2090 -0.2609
69093SOL    HW225272   6.888  14.177   1.437  0.9342 -0.4152  2.3515
69094SOL     OW25273   6.986   5.293   8.672  0.2679 -0.4799 -0.1404
69094SOL    HW125274   6.901   5.306   8.715  0.1386 -0.5567 -0.3717
69094SOL    HW225275   6.980   5.346   8.592 -0.1126 -1.6365 -0.9019
69095SOL     OW25276   8.938   8.008   2.764  0.2230  0.3343  0.0671
69095SOL    HW125277   8.855   7.983   2.724  0.3374  0.0033  0.0369
69095SOL    HW225278   8.958   7.937   2.824 -0.5421  1.3795  1.6207
69096SOL     OW25279  13.378   1.264   9.731  0.0887 -0.1826  0.3891
69096SOL    HW125280  13.433   1.191   9.702 -1.8141 -0.3452 -3.4646
69096SOL    HW225281  13.396   1.334   9.669 -0.8184  1.3589  1.7766
69097SOL     OW25282  13.851  13.839  13.332 -0.0681 -0.5453 -0.7141
69097SOL    HW125283  13.802  13.778  13.276  0.6775 -0.7410 -1.1739
69097SOL    HW225284  13.896  13.783  13.396 -1.7947 -0.2468  0.8257
69098SOL     OW25285  12.578  13.683  13.106 -0.0331 -0.1879 -0.4755
69098SOL    HW125286  12.511  13.745  13.075 -0.1085 -1.1049 -2.2237
69098SOL    HW225287  12.633  13.666  13.030  1.4030 -0.5033  0.5881
69099SOL     OW25288   1.166   1.576   9.177  0.0673  0.3844  0.0340
69099SOL    HW125289   1.144   1.483   9.178  0.0908  0.3560  1.6933
69099SOL    HW225290   1.094   1.618   9.131  1.2538 -0.6474 -3.0547
69100SOL     OW25291   3.089   5.128  11.688  0.4854  0.0432 -0.3596
69100SOL    HW125292   3.165   5.112  11.743  0.6879 -0.6759 -0.8377
69100SOL    HW225293   3.032   5.053  11.703  0.4821 -0.0966 -1.0201
69101SOL     OW25294   4.154  14.047   5.015 -0.3160  0.3343  0.4912
69101SOL    HW125295   4.184  13.958   5.034 -0.7178  0.0753 -0.0620
69101SOL    HW225296   4.154  14.052   4.919 -1.0576  0.6687  0.5029
69102SOL     OW25297   7.838  12.841   5.544 -0.1934 -0.0529  0.0896
69102SOL    HW125298   7.836  12.845   5.449  0.8608  1.2401  0.0946
69102SOL    HW225299   7.764  12.894   5.572 -1.8829 -2.2234  0.0334
69103SOL     OW25300   6.742   1.818   0.827  0.2799  0.6872  0.3096
69103SOL    HW125301   6.771   1.908   0.841 -1.2112  1.1534  0.5546
69103SOL    HW225302   6.664   1.826   0.772  0.0328 -0.4303  0.4713
69104SOL     OW25303  11.486   7.490   0.370 -0.0032  0.2838  0.2797
69104SOL    HW125304  11.566   7.530   0.335  0.6021  0.3351  1.6613
69104SOL    HW225305  11.432   7.474   0.293  1.6417 -0.4504 -0.7881
69105SOL     OW25306   6.535   7.036   7.097  0.4900  0.3205  0.1750
69105SOL    HW125307   6.608   7.067   7.043  1.1034 -0.2833  0.6586
69105SOL    HW225308   6.457   7.064   7.048  1.0039 -1.5073 -1.8225
69106SOL     OW25309   4.203  11.048   2.089  0.0674 -0.4038 -0.1081
69106SOL    HW125310   4.181  11.035   2.182  1.4739  0.0967  0.3176
69106SOL    HW225311   4.189  11.141   2.074 -2.1160 -0.8143 -0.9765
69107SOL     OW25312  10.915   9.539   3.857 -0.0795  0.2734  0.5929
69107SOL    HW125313  10.946   9.617   3.812  1.0359 -0.1815  0.5376
69107SOL    HW225314  10.974   9.529   3.931 -1.2855  0.4482  1.6100
69108SOL     OW25315   8.721   4.516  12.015 -0.3391  0.0192 -1.0419
69108SOL    HW125316   8.814   4.537  12.002  0.0961 -0.2079  1.2315
69108SOL    HW225317   8.689   4.586  12.072 -1.7401  0.3919 -2.2486
69109SOL     OW25318   4.469   4.140   6.882 -0.1604  0.0238 -0.6350
69109SOL    HW125319   4.456   4.096   6.966  0.0002  0.2519 -0.4888
69109SOL    HW225320   4.450   4.232   6.901  0.9712  0.2558 -0.5843
69110SOL     OW25321   0.372   8.378   9.623  0.4560  0.6504 -0.4903
69110SOL    HW125322   0.335   8.290   9.637 -1.1683  1.4977  0.8594
69110SOL    HW225323   0.464   8.369   9.652  0.6907 -0.8887 -1.5625
69111SOL     OW25324  13.442   6.379   3.406 -0.1499 -0.0756 -0.4206
69111SOL    HW125325  13.412   6.302   3.357  0.6834 -0.8221  0.1846
69111SOL    HW225326  13.537   6.381   3.391 -0.0546  0.3859  0.1805
69112SOL     OW25327   9.239   6.737  13.840  0.1848  0.3665  0.1063
69112SOL    HW125328   9.175   6.807  13.832 -1.6217 -0.7511  3.2320
69112SOL    HW225329   9.209   6.669  13.780 -0.6539  0.5149  0.3476
69113SOL     OW25330  12.057   2.310   4.516  1.0641 -0.0586  0.5212
69113SOL    HW125331  11.997   2.235   4.509  0.1060  0.8255 -2.3155
69113SOL    HW225332  12.029   2.369   4.446  4.5731  0.9497 -0.2110
69114SOL     OW25333  13.924   9.671   7.370  0.0287  0.2035  0.3847
69114SOL    HW125334  13.969   9.612   7.310 -3.1505 -1.5536 -0.4894
69114SOL    HW225335  13.925   9.755   7.325  2.6702  0.4075  0.6245
69115SOL     OW25336  11.577   2.215   2.582 -0.6355  0.3237  0.1904
69115SOL    HW125337  11.514   2.144   2.577  0.3180 -0.5914  0.9587
69115SOL    HW225338  11.634   2.202   2.506  0.8105 -1.0011  1.4431
69116SOL     OW25339  12.765   6.856  11.739  0.1920 -0.1986  0.0509
69116SOL    HW125340  12.717   6.775  11.718 -1.6967  0.6798  0.7635
69116SOL    HW225341  12.800   6.885  11.654  2.6967 -2.7463  0.0434
69117SOL     OW25342   8.458   3.285   0.519  0.1370 -0.4154  0.1970
69117SOL    HW125343   8.530   3.263   0.578  0.5838 -0.9120 -0.5148
69117SOL    HW225344   8.439   3.376   0.538  2.0516  0.2270 -0.7014
69118SOL     OW25345   4.031   5.859  12.087 -0.2205 -0.2945  0.6757
69118SOL    HW125346   4.091   5.837  12.158  1.1552  1.1653  0.0089
69118SOL    HW225347   4.008   5.774  12.048  1.0092 -0.9268  1.2768
69119SOL     OW25348   4.187  10.661   7.301 -0.5184  0.0984 -0.6288
69119SOL    HW125349   4.199  10.685   7.209 -1.0056 -0.7038 -0.9123
69119SOL    HW225350   4.272  10.679   7.341 -0.6245  1.5190 -0.9820
69120SOL     OW25351   7.216   9.072   0.591 -0.3481  0.3909 -0.2309
69120SOL    HW125352   7.170   9.149   0.557 -0.6646  0.4822  0.3747
69120SOL    HW225353   7.163   8.998   0.562 -2.5144  0.5852  2.6799
69121SOL     OW25354  10.646   4.115   2.814 -0.0898  0.0772  0.0243
69121SOL    HW125355  10.667   4.177   2.884 -0.0796 -0.4181  0.4655
69121SOL    HW225356  10.730   4.086   2.781 -0.0868  1.1208 -0.9318
69122SOL     OW25357   2.618   3.729   6.421 -0.4571  0.2292 -0.2752
69122SOL    HW125358   2.532   3.713   6.384 -0.9165  0.5341  0.6206
69122SOL    HW225359   2.678   3.676   6.369 -1.4741 -1.7786  0.5057
69123SOL     OW25360   3.304  13.719   4.808  0.4726 -0.0304 -0.4251
69123SOL    HW125361   3.325  13.703   4.900 -0.7804  0.5998  0.0066
69123SOL    HW225362   3.209  13.706   4.803  0.5445 -0.2003 -1.6691
69124SOL     OW25363  12.799  13.317   4.473  0.0722  0.1302 -0.1771
69124SOL    HW125364  12.726  13.284   4.526  0.8052  0.7592  1.3115
69124SOL    HW225365  12.872  13.257   4.493  0.3454  0.3471 -0.5179
69125SOL     OW25366   1.879   9.785   5.100  0.1391 -0.2663  0.4032
69125SOL    HW125367   1.858   9.693   5.082  0.0054 -0.4334  1.3715
69125SOL    HW225368   1.850   9.832   5.021  0.1330 -1.0382 -0.0637
69126SOL     OW25369   1.183   3.026   8.581  0.0161  0.0565 -0.3453
69126SOL    HW125370   1.208   2.934   8.587  1.0955  0.4066  1.2312
69126SOL    HW225371   1.183   3.045   8.488 -0.4186 -1.5756 -0.7105
69127SOL     OW25372   7.160   9.337  10.814 -0.2652 -0.0008  0.1024
69127SOL    HW125373   7.153   9.384  10.732 -0.1002  1.1132  0.7119
69127SOL    HW225374   7.252   9.310  10.819 -0.2797 -0.0871 -0.0733
69128SOL     OW25375   9.051   6.586   3.201 -0.2513 -0.6373 -0.3164
69128SOL    HW125376   9.124   6.573   3.140 -0.3763 -1.6002 -0.2852
69128SOL    HW225377   8.973   6.574   3.147 -0.5032  2.5521 -0.8478
69129SOL     OW25378  13.380   4.505   7.366  0.7253 -0.3126 -0.3388
69129SOL    HW125379  13.403   4.562   7.292  0.6433 -1.3726 -1.2136
69129SOL    HW225380  13.376   4.417   7.328 -1.0159 -0.6809  0.5684
69130SOL     OW25381   5.200   5.113   1.258  0.4393  0.0755 -0.1775
69130SOL    HW125382   5.259   5.176   1.299  1.4694 -0.1993 -1.1825
69130SOL    HW225383   5.256   5.040   1.233 -0.4394 -0.4849 -0.5798
69131SOL     OW25384   0.677   0.688   0.929  0.0936 -0.1299 -0.3915
69131SOL    HW125385   0.665   0.593   0.932  0.2614 -0.1472  2.7459
69131SOL    HW225386   0.772   0.701   0.934  0.0214  0.1820  0.3523
69132SOL     OW25387   9.010  12.540   0.159  0.2022  0.0997  0.2703
69132SOL    HW125388   9.073  12.608   0.135 -0.2186  1.5265  2.7970
69132SOL    HW225389   9.059  12.482   0.217 -0.1401 -0.2222  0.2371
69133SOL     OW25390  10.568  13.827  11.372  0.1011 -0.8042  0.3118
69133SOL    HW125391  10.652  13.781  11.362  1.0664  0.9278  0.2053
69133SOL    HW225392  10.537  13.800  11.459  0.3997 -1.9888  0.0776
69134SOL     OW25393   7.615   6.768   0.414 -0.2688 -0.4696 -0.4927
69134SOL    HW125394   7.638   6.766   0.507 -0.5970 -1.0602 -0.4220
69134SOL    HW225395   7.612   6.861   0.392  1.6901 -0.3260 -0.3772
69135SOL     OW25396  11.891  12.771  10.326  0.2500 -0.1078  0.2752
69135SOL    HW125397  11.924  12.789  10.239 -0.3361 -1.2756 -0.2111
69135SOL    HW225398  11.830  12.843  10.344  0.7715  0.4238 -0.0432
69136SOL     OW25399   9.044  13.144   1.861 -0.3024  0.3019 -0.3439
69136SOL    HW125400   9.003  13.060   1.880 -1.3429  0.7319 -0.6566
69136SOL    HW225401   9.118  13.149   1.922 -0.6170 -0.5468  0.1152
69137SOL     OW25402   0.499   8.836   7.806 -0.1648  0.0414 -1.1973
69137SOL    HW125403   0.500   8.869   7.896 -0.2190 -3.6326  0.3256
69137SOL    HW225404   0.407   8.840   7.781 -0.1318  1.2262 -1.2182
69138SOL     OW25405   2.395  10.539  11.140 -0.0622 -0.1047  0.2313
69138SOL    HW125406   2.325  10.589  11.098  0.2219  1.4953  1.5619
69138SOL    HW225407   2.365  10.528  11.231  1.0207 -0.1296  0.5960
69139SOL     OW25408  12.192  13.149   4.703  0.3603  0.1119  0.7850
69139SOL    HW125409  12.105  13.172   4.734 -0.2263  0.2796 -0.9321
69139SOL    HW225410  12.227  13.230   4.666  0.4109 -0.4253 -0.3903
69140SOL     OW25411  10.580   8.194   1.390  0.1761  0.4225  0.1478
69140SOL    HW125412  10.591   8.129   1.321  0.5616 -0.2066  0.7907
69140SOL    HW225413  10.667   8.230   1.404 -0.2192  1.8692 -0.9517
69141SOL     OW25414   0.546   0.870  10.984 -0.1731 -0.3356 -0.5775
69141SOL    HW125415   0.640   0.852  10.972 -0.2628 -0.7562 -0.6441
69141SOL    HW225416   0.502   0.801  10.934 -0.5190 -0.1479 -0.5299
69142SOL     OW25417  11.468   6.420  13.197  0.2040 -0.1825 -0.7778
69142SOL    HW125418  11.490   6.408  13.289  1.8577 -1.9244 -1.3463
69142SOL    HW225419  11.397   6.358  13.181 -0.9327  0.9746 -0.4473
69143SOL     OW25420   9.508   0.194  11.858 -0.1948  0.2569  0.5096
69143SOL    HW125421   9.441   0.258  11.881 -0.9591 -0.4138  0.1941
69143SOL    HW225422   9.479   0.112  11.899  1.3855  0.3465  1.9263
69144SOL     OW25423   5.196   5.503   8.102 -0.1494  0.0728  0.3886
69144SOL    HW125424   5.174   5.499   8.009 -0.2806  0.0520  0.4219
69144SOL    HW225425   5.264   5.435   8.113  0.1525  0.3446  0.2279
69145SOL     OW25426  11.259  11.584  12.004 -0.0766 -0.8111  0.3445
69145SOL    HW125427  11.204  11.571  11.926 -1.0441  0.2953  0.8164
69145SOL    HW225428  11.348  11.566  11.973 -0.3912 -0.0425 -1.1316
69146SOL     OW25429  12.943   9.997  10.052 -0.0429 -0.2694 -0.4997
69146SOL    HW125430  12.852   9.968  10.055 -0.9918  1.6821 -4.5008
69146SOL    HW225431  12.992   9.918  10.030 -1.0044 -0.9918 -0.1127
69147SOL     OW25432  12.555   0.614   9.080  0.2096  0.4039 -0.1313
69147SOL    HW125433  12.485   0.677   9.096  0.3805  0.4840  0.3316
69147SOL    HW225434  12.531   0.537   9.132 -0.3590 -0.1950 -1.2364
69148SOL     OW25435   5.971  11.945   5.179 -0.0937  0.3483  0.0249
69148SOL    HW125436   5.927  12.002   5.115  0.0523  2.0018  1.3503
69148SOL    HW225437   6.063  11.948   5.154 -0.0932  0.6608  0.0581
69149SOL     OW25438   9.112   0.775   9.946 -0.4396  1.0610 -0.0239
69149SOL    HW125439   9.032   0.824   9.964 -0.4786  0.6173  1.0791
69149SOL    HW225440   9.170   0.794  10.019  0.5396  1.4996 -0.8904
69150SOL     OW25441   8.438  11.227   2.440  0.1473 -0.7573 -0.0958
69150SOL    HW125442   8.413  11.146   2.483 -0.9161 -0.6276 -0.4451
69150SOL    HW225443   8.424  11.295   2.506  0.4259 -0.7814 -0.0105
69151SOL     OW25444   6.800   0.227  11.077 -0.0043 -0.9624  0.2383
69151SOL    HW125445   6.769   0.141  11.105 -2.3520  0.4057  2.1985
69151SOL    HW225446   6.804   0.279  11.158 -1.5689  1.5996 -1.1897
69152SOL     OW25447   7.778   9.072   7.930  0.2796  0.0989  0.6948
69152SOL    HW125448   7.810   8.988   7.962  0.7194  0.0304  0.0821
69152SOL    HW225449   7.849   9.133   7.949 -0.5088  0.6080  2.2660
69153SOL     OW25450  12.810  11.270   8.869  0.0142  0.1137  0.1878
69153SOL    HW125451  12.831  11.363   8.865  2.4838 -0.4117 -2.3606
69153SOL    HW225452  12.719  11.265   8.839  0.1484  1.6555 -0.5897
69154SOL     OW25453   3.678  11.604   2.683 -0.6602 -0.3165  0.1669
69154SOL    HW125454   3.659  11.519   2.722 -0.1156 -0.6636 -0.3108
69154SOL    HW225455   3.650  11.596   2.591 -0.4820 -0.0275  0.0845
69155SOL     OW25456  11.503   1.083  12.253  0.2629  0.3080 -0.0792
69155SOL    HW125457  11.562   1.151  12.284  0.8246 -0.2410  0.0813
69155SOL    HW225458  11.525   1.073  12.160  0.2013  0.3287 -0.0962
69156SOL     OW25459   4.889   6.032  10.210  0.3432  0.8329  0.0462
69156SOL    HW125460   4.877   5.938  10.226 -3.2417  1.4801  2.3363
69156SOL    HW225461   4.824   6.052  10.142 -1.3222  2.0828  1.8998
69157SOL     OW25462   3.390  13.557  10.872  0.4688  0.2983 -0.1640
69157SOL    HW125463   3.437  13.476  10.891 -0.4459 -0.2737 -0.2820
69157SOL    HW225464   3.353  13.584  10.956 -0.2797 -0.0981 -0.3585
69158SOL     OW25465   2.542   4.770   6.055 -0.1111  0.5581 -0.1020
69158SOL    HW125466   2.533   4.814   6.140  0.0939 -1.9119  1.2788
69158SOL    HW225467   2.486   4.821   5.996 -0.3753  2.2699  1.5285
69159SOL     OW25468   0.419   5.495   9.911  0.0653 -0.2254 -0.0997
69159SOL    HW125469   0.497   5.452   9.874 -0.3199 -1.5970  0.6472
69159SOL    HW225470   0.401   5.448   9.991 -0.0314  1.7439  1.1068
69160SOL     OW25471  12.969  13.181  12.208 -0.2904 -0.0606  0.0070
69160SOL    HW125472  12.888  13.220  12.239 -0.6373 -0.6303 -0.1513
69160SOL    HW225473  13.005  13.245  12.147  1.4744  2.0295  2.9962
69161SOL     OW25474   2.196   0.136   9.158  0.2106 -0.3011  0.1630
69161SOL    HW125475   2.163   0.186   9.232  1.6492  0.9531  0.0102
69161SOL    HW225476   2.270   0.188   9.125  0.1903 -1.2931 -1.5650
69162SOL     OW25477   7.023   4.408   9.733 -0.4687 -0.6607 -0.0811
69162SOL    HW125478   6.960   4.361   9.789 -1.9350  0.7866 -0.4437
69162SOL    HW225479   7.105   4.405   9.783 -1.0826 -1.6438  0.9371
69163SOL     OW25480  10.554   7.841   1.888 -0.0823  0.0566 -0.4953
69163SOL    HW125481  10.644   7.842   1.920 -0.1059 -0.2341 -0.4243
69163SOL    HW225482  10.562   7.813   1.797 -0.0390  0.6581 -0.6798
69164SOL     OW25483  12.604  11.497  12.642  0.1003 -0.5338  0.1804
69164SOL    HW125484  12.640  11.428  12.586  0.8020 -0.7577  0.8815
69164SOL    HW225485  12.644  11.482  12.727  2.4782  2.3230 -0.2464
69165SOL     OW25486  11.693   5.252   9.754  0.7197 -0.3775  0.4440
69165SOL    HW125487  11.637   5.174   9.750  0.0905  0.1057 -0.3890
69165SOL    HW225488  11.776   5.220   9.789  0.2925 -1.3176  0.6360
69166SOL     OW25489  13.772   0.154   2.201 -0.3291  0.6121 -0.2387
69166SOL    HW125490  13.852   0.201   2.225 -0.0142  0.4415 -0.9211
69166SOL    HW225491  13.737   0.202   2.126  0.0351 -0.2663 -0.9893
69167SOL     OW25492   8.417  12.987  12.407  0.2228  0.5357 -0.3765
69167SOL    HW125493   8.456  13.059  12.457 -0.2816 -0.2577  1.2138
69167SOL    HW225494   8.465  12.909  12.435 -0.2857  0.0213 -0.9077
69168SOL     OW25495  10.800  11.304   4.665  0.8731  0.2009  0.8432
69168SOL    HW125496  10.760  11.252   4.595 -0.6401  0.2480  1.6274
69168SOL    HW225497  10.893  11.285   4.659  0.4596 -2.0339  0.6370
69169SOL     OW25498  11.423  13.674   9.163 -0.1311  0.3305  0.0789
69169SOL    HW125499  11.422  13.668   9.258 -0.3878 -1.7217 -0.0199
69169SOL    HW225500  11.498  13.623   9.136 -0.9538 -0.4163 -0.8787
69170SOL     OW25501  12.021   6.207   8.166  0.3187 -0.5084 -0.1380
69170SOL    HW125502  12.052   6.289   8.205 -0.8315 -0.6840  1.1781
69170SOL    HW225503  12.053   6.138   8.224  1.0877 -1.0102 -1.1172
69171SOL     OW25504   0.647  10.019  13.657 -0.3141  0.4051  0.3460
69171SOL    HW125505   0.594   9.987  13.731  1.1622  1.3085  1.8746
69171SOL    HW225506   0.612  10.106  13.638 -1.8122 -0.4883 -1.2295
69172SOL     OW25507   5.265   8.544   3.964 -0.5817  0.6327  0.1889
69172SOL    HW125508   5.285   8.513   3.875  0.8460  0.9901  0.3495
69172SOL    HW225509   5.185   8.595   3.954  0.4383  2.0707 -1.2442
69173SOL     OW25510   0.340   2.953   3.120  0.2911 -0.1011 -0.2732
69173SOL    HW125511   0.368   2.874   3.074  2.3712  0.9991 -1.0064
69173SOL    HW225512   0.374   2.943   3.209  0.5586 -0.0296 -0.3672
69174SOL     OW25513   7.635  12.935  11.333  0.1137 -0.1228  0.0503
69174SOL    HW125514   7.603  12.902  11.249 -0.8680 -1.2729  0.8417
69174SOL    HW225515   7.569  12.999  11.360  0.7641  0.7290 -0.3432
69175SOL     OW25516   9.975   5.962  11.329 -0.0691 -0.1337  0.2398
69175SOL    HW125517  10.035   5.994  11.262  0.8492  0.6907  1.4084
69175SOL    HW225518   9.956   5.871  11.303 -0.0561  0.2795 -1.3191
69176SOL     OW25519   9.772   8.723   5.416 -0.4370 -0.0852 -0.2819
69176SOL    HW125520   9.862   8.696   5.397  0.7701  2.2308  1.5559
69176SOL    HW225521   9.751   8.681   5.499 -0.2383  0.9700  0.3208
69177SOL     OW25522   9.913  11.730  12.329 -0.3842  0.2396 -0.2114
69177SOL    HW125523   9.853  11.657  12.346 -0.3004  0.6448  2.0577
69177SOL    HW225524   9.936  11.764  12.415  2.4429  0.6762 -1.0228
69178SOL     OW25525  13.930   5.670   7.194  0.0421 -0.1938 -0.1886
69178SOL    HW125526  13.993   5.679   7.265 -0.6540  0.5877  0.3492
69178SOL    HW225527  13.889   5.585   7.208 -1.4697  0.7350  1.5436
69179SOL     OW25528  13.463   1.921  10.163  0.0980  0.3717 -0.4407
69179SOL    HW125529  13.512   1.874  10.230  1.6785  1.5403 -0.7218
69179SOL    HW225530  13.526   1.983  10.125 -1.5003  1.7030 -1.0800
69180SOL     OW25531   5.396   3.571   3.839  0.1540  0.1537 -0.1811
69180SOL    HW125532   5.444   3.489   3.836 -1.2492 -0.6641 -1.8030
69180SOL    HW225533   5.456   3.632   3.883  1.3380 -1.6210  0.7922
69181SOL     OW25534   6.668   2.795  12.497  0.1669  0.4380  0.0042
69181SOL    HW125535   6.585   2.763  12.533 -1.2325  2.6578 -1.0116
69181SOL    HW225536   6.707   2.719  12.453 -1.3357 -0.6573  0.5065
69182SOL     OW25537   5.993   3.366  10.423 -0.3136  0.3096 -0.1829
69182SOL    HW125538   5.921   3.377  10.485 -0.0065 -1.2334  0.4796
69182SOL    HW225539   6.062   3.323  10.473  0.9651  1.4622 -0.9019
69183SOL     OW25540   4.028   0.710   7.367 -0.4972 -0.3869  0.5270
69183SOL    HW125541   4.005   0.695   7.275 -1.0357 -0.1070  0.6133
69183SOL    HW225542   4.053   0.624   7.400  0.2446 -0.3948 -0.0304
69184SOL     OW25543   9.129   7.467  13.524  0.0861 -0.1392 -0.3559
69184SOL    HW125544   9.222   7.474  13.547 -0.2321 -0.4413  1.1076
69184SOL    HW225545   9.094   7.403  13.586 -1.1481  0.1592 -0.7250
69185SOL     OW25546   3.865   2.322   5.977  0.0154  0.4566  0.1222
69185SOL    HW125547   3.819   2.344   6.058 -1.5461  0.5150 -0.7494
69185SOL    HW225548   3.840   2.391   5.916  0.6336  0.0401 -0.6165
69186SOL     OW25549   4.124   9.898  10.827 -0.1141  0.4528  0.0813
69186SOL    HW125550   4.170   9.890  10.911  0.8215 -0.3863 -0.4916
69186SOL    HW225551   4.190   9.935  10.767 -0.1203 -0.8532 -0.7732
69187SOL     OW25552  12.000  10.804  10.064  0.0597  0.2245 -0.2821
69187SOL    HW125553  11.933  10.783  10.128  0.3794 -0.1242 -0.0508
69187SOL    HW225554  12.047  10.878  10.101  0.8582 -0.5782  0.3639
69188SOL     OW25555   9.079   5.472  13.488 -0.1654 -0.3093  0.1511
69188SOL    HW125556   9.020   5.547  13.495  1.8056  1.1500  3.1605
69188SOL    HW225557   9.051   5.426  13.408 -2.0084  3.1220 -1.3711
69189SOL     OW25558   9.108   1.823  12.454 -0.3831 -0.1379 -0.2245
69189SOL    HW125559   9.192   1.837  12.498 -0.0840  0.0636 -0.8394
69189SOL    HW225560   9.099   1.898  12.396 -0.8362 -0.3278 -0.4051
69190SOL     OW25561   9.247   2.456   1.055  0.5982  0.2253 -0.1714
69190SOL    HW125562   9.181   2.441   0.986  1.5997  1.7594 -1.5409
69190SOL    HW225563   9.237   2.548   1.078  1.0984  0.0245  0.9010
69191SOL     OW25564   0.271   0.801   0.893 -0.3850 -0.0974  0.0790
69191SOL    HW125565   0.219   0.854   0.833  3.3341  2.8015 -0.9902
69191SOL    HW225566   0.348   0.774   0.842  3.6656  3.5917  3.4122
69192SOL     OW25567   5.382   8.153   4.881 -0.3214  0.4207 -0.3491
69192SOL    HW125568   5.436   8.191   4.812  0.0621  0.7760  0.1411
69192SOL    HW225569   5.425   8.180   4.963 -1.4888  1.0809  0.0659
69193SOL     OW25570  10.701   0.670   4.889 -0.1763  0.0546 -0.3451
69193SOL    HW125571  10.778   0.635   4.934 -0.4914 -0.3161 -0.0840
69193SOL    HW225572  10.696   0.761   4.917  0.5346  0.2663 -0.8651
69194SOL     OW25573   2.453  10.159  12.108 -0.0872 -0.4371 -0.0914
69194SOL    HW125574   2.398  10.139  12.183 -0.3834  1.5461  0.2629
69194SOL    HW225575   2.538  10.182  12.146 -0.5629  1.7184 -0.2185
69195SOL     OW25576   1.363   9.134   3.364  0.8358  0.0169  0.5688
69195SOL    HW125577   1.364   9.053   3.313  2.5971  0.2397  0.1838
69195SOL    HW225578   1.327   9.108   3.449  1.2001 -1.1309  0.3909
69196SOL     OW25579   3.832   0.626  10.141  0.0303 -0.0888  0.3029
69196SOL    HW125580   3.868   0.712  10.120 -0.0199 -0.1336  0.0212
69196SOL    HW225581   3.757   0.644  10.197 -0.1237  0.0667  0.0492
69197SOL     OW25582  12.313   1.581  10.512 -0.0963 -0.0427 -0.0410
69197SOL    HW125583  12.227   1.561  10.476 -0.4103  2.3337 -0.7626
69197SOL    HW225584  12.359   1.628  10.442  1.4334 -0.4054  0.6746
69198SOL     OW25585   5.974  11.130  11.110  0.1435 -0.5385 -0.3812
69198SOL    HW125586   5.887  11.155  11.141  0.4350  0.5709 -0.3886
69198SOL    HW225587   6.024  11.212  11.114  0.4127 -0.5029 -3.0466
69199SOL     OW25588   5.962   2.765  12.032 -0.1088 -0.2756 -0.4187
69199SOL    HW125589   5.971   2.859  12.042 -0.0242  0.0801 -3.1863
69199SOL    HW225590   5.870   2.747  12.055  0.5293 -0.0314  2.7588
69200SOL     OW25591  12.204   7.250   2.027 -0.2600 -0.1607 -0.0672
69200SOL    HW125592  12.269   7.201   1.977 -1.5583 -0.3806 -1.6090
69200SOL    HW225593  12.236   7.248   2.117  0.3104 -2.8809 -0.2510
69201SOL     OW25594  12.750   6.892  12.427  0.1706 -0.1001 -0.1070
69201SOL    HW125595  12.677   6.953  12.414 -0.1209 -0.3080  0.5397
69201SOL    HW225596  12.769   6.897  12.521  0.3670 -0.7577 -0.1094
69202SOL     OW25597  11.138   4.735  13.272  0.5159 -0.3542 -0.4104
69202SOL    HW125598  11.100   4.805  13.324 -0.2535 -0.9318 -0.1695
69202SOL    HW225599  11.089   4.737  13.189 -0.0056 -1.0416 -0.1345
69203SOL     OW25600   4.597   0.990   5.334 -0.1104 -0.2439 -0.3502
69203SOL    HW125601   4.678   0.942   5.321  0.2922  0.6761 -1.4302
69203SOL    HW225602   4.530   0.923   5.348  0.6685 -1.0470 -0.4332
69204SOL     OW25603   9.514   2.139  10.498 -0.0477 -0.2710  0.2213
69204SOL    HW125604   9.542   2.110  10.584 -3.2148  2.7282  2.5306
69204SOL    HW225605   9.443   2.079  10.474 -0.5317  0.1117  0.6887
69205SOL     OW25606  12.064   1.600   2.074 -0.4020 -0.3351  0.0337
69205SOL    HW125607  11.999   1.574   2.139 -1.8242  0.5218 -0.9824
69205SOL    HW225608  12.103   1.518   2.046 -0.4748 -0.8051  1.2324
69206SOL     OW25609   4.611  10.397   5.310 -0.2938 -0.0057 -0.3728
69206SOL    HW125610   4.562  10.469   5.268 -2.3742 -0.6223  0.8631
69206SOL    HW225611   4.615  10.422   5.402  0.1424 -0.8609 -0.1554
69207SOL     OW25612  10.385  13.322   3.146  0.4241 -0.1111 -0.6824
69207SOL    HW125613  10.341  13.353   3.067  0.0740 -0.2460 -0.5427
69207SOL    HW225614  10.441  13.395   3.172  0.9338 -0.2486 -1.3381
69208SOL     OW25615   1.446   1.201  11.593  0.1913  0.0159  0.5207
69208SOL    HW125616   1.509   1.147  11.545  0.3980  1.0046 -0.3535
69208SOL    HW225617   1.475   1.195  11.685  0.7284 -0.6447  0.3170
69209SOL     OW25618  12.981   0.354   2.239  0.5467 -0.0267 -0.4219
69209SOL    HW125619  12.894   0.351   2.279  0.1794 -1.8787 -1.2596
69209SOL    HW225620  12.995   0.447   2.219 -0.5643  0.5056  1.1050
69210SOL     OW25621   3.193   7.056   1.682  0.4570 -0.5833 -0.5807
69210SOL    HW125622   3.253   6.981   1.684 -0.5408 -1.4064 -1.0790
69210SOL    HW225623   3.106   7.018   1.691  0.0679  0.7450  2.2805
69211SOL     OW25624   5.336   5.939  11.608 -0.7175 -0.1088 -0.0788
69211SOL    HW125625   5.261   5.984  11.645 -0.9166 -0.2518 -0.3047
69211SOL    HW225626   5.334   5.852  11.648  1.4766  1.0104  2.8314
69212SOL     OW25627   1.233   9.003   3.110  0.0120 -0.2428 -0.3745
69212SOL    HW125628   1.192   9.087   3.129  2.2404  0.3107  2.8110
69212SOL    HW225629   1.179   8.939   3.157  0.5351 -0.0127  0.5713
69213SOL     OW25630   7.230   4.563   0.069 -0.4444 -0.0482 -0.5564
69213SOL    HW125631   7.156   4.609   0.109  0.3513 -0.5646  1.6827
69213SOL    HW225632   7.303   4.626   0.074 -0.2111 -0.3045 -0.6975
69214SOL     OW25633   1.480   1.136   5.159 -0.1611  0.0304 -0.4017
69214SOL    HW125634   1.551   1.170   5.106  1.1967 -3.6450 -1.2477
69214SOL    HW225635   1.522   1.074   5.219 -2.3201 -0.0664  1.1391
69215SOL     OW25636   9.391  11.279  10.937  0.5814  0.0897  0.1968
69215SOL    HW125637   9.460  11.216  10.958  0.5182  0.0812  0.3821
69215SOL    HW225638   9.321  11.226  10.899  0.7650  0.1294 -0.1965
69216SOL     OW25639   4.168   8.143   7.809  0.0526  0.4398 -0.1383
69216SOL    HW125640   4.227   8.133   7.883 -0.7101  0.9328  0.5586
69216SOL    HW225641   4.141   8.235   7.812  0.3383  0.5702 -1.2890
69217SOL     OW25642   5.636  12.135   4.289 -0.3663 -0.0575  0.7842
69217SOL    HW125643   5.667  12.065   4.232  0.5437  0.9367  0.0081
69217SOL    HW225644   5.582  12.190   4.232 -0.3503  0.3473  1.1546
69218SOL     OW25645   4.682   1.482   7.715  0.1503 -0.1614 -1.1198
69218SOL    HW125646   4.647   1.571   7.722 -1.3405 -0.6794 -1.5289
69218SOL    HW225647   4.611   1.431   7.676  1.7939 -1.0706 -3.0849
69219SOL     OW25648   9.327  11.759   2.385  0.0385  0.3331  0.1221
69219SOL    HW125649   9.275  11.705   2.325  1.4351 -1.1557  0.1822
69219SOL    HW225650   9.372  11.820   2.327 -0.2843  0.3475 -0.1215
69220SOL     OW25651   2.582   1.161   8.964 -0.2793  0.3821  0.2444
69220SOL    HW125652   2.495   1.176   9.001 -0.9001  0.2921 -1.1326
69220SOL    HW225653   2.599   1.068   8.980  0.0586  0.6424  1.4983
69221SOL     OW25654   5.381   8.266  11.758 -0.1867  0.1787  0.6073
69221SOL    HW125655   5.316   8.311  11.812  1.0779  0.9384  1.5469
69221SOL    HW225656   5.424   8.204  11.817  1.3071  1.1125  0.5634
69222SOL     OW25657  10.020   5.010  11.616  0.2278 -0.4232  0.5532
69222SOL    HW125658  10.106   4.968  11.627 -0.8637 -2.9858 -0.0633
69222SOL    HW225659   9.978   4.961  11.546 -1.6559  0.9809  0.6208
69223SOL     OW25660   3.880  12.405  11.359  0.2479 -0.0542  0.2044
69223SOL    HW125661   3.872  12.421  11.453  0.0085 -0.2976  0.2276
69223SOL    HW225662   3.836  12.480  11.318  2.6220  1.4383  0.2185
69224SOL     OW25663   6.412  10.385  11.055 -0.7413  0.0035 -0.2340
69224SOL    HW125664   6.341  10.441  11.086 -1.0427  0.1581 -1.1685
69224SOL    HW225665   6.459  10.438  10.991  0.9799  0.3389  1.2388
69225SOL     OW25666   7.886   1.175   7.190 -0.4280 -0.4567  0.2034
69225SOL    HW125667   7.970   1.160   7.146  0.6843 -0.6993  2.3035
69225SOL    HW225668   7.828   1.107   7.155  0.4964 -0.8487 -0.6032
69226SOL     OW25669  13.214   5.417  12.972  0.8724 -0.7508  0.1441
69226SOL    HW125670  13.267   5.368  12.909  1.0454 -0.3845  0.0004
69226SOL    HW225671  13.274   5.481  13.010 -0.1570  2.0180 -2.5003
69227SOL     OW25672   1.231   0.105  13.148  0.2513 -0.1570 -0.2442
69227SOL    HW125673   1.311   0.059  13.175  0.1519 -0.7898 -1.0005
69227SOL    HW225674   1.183   0.119  13.230 -0.0803 -2.1225 -0.0549
69228SOL     OW25675   5.945   2.056   8.828 -0.5620  0.7182  0.0098
69228SOL    HW125676   5.973   2.041   8.738 -0.9923  1.1113 -0.1891
69228SOL    HW225677   5.983   2.141   8.851  0.9814 -0.1185  0.7825
69229SOL     OW25678  10.530   6.877   8.544 -0.7541  0.0970  0.0336
69229SOL    HW125679  10.487   6.886   8.459 -0.2268 -1.3618 -0.4288
69229SOL    HW225680  10.623   6.887   8.524 -0.6252 -0.2755  0.4274
69230SOL     OW25681   6.661   7.573  12.287  0.1055 -0.2591  0.7181
69230SOL    HW125682   6.629   7.485  12.267 -0.9258  0.7096 -2.6720
69230SOL    HW225683   6.757   7.565  12.285  0.0303 -1.1566 -0.6792
69231SOL     OW25684  13.454   4.837   9.139 -0.3085  0.4706 -0.2101
69231SOL    HW125685  13.396   4.911   9.122 -1.9197 -0.3103  1.4526
69231SOL    HW225686  13.539   4.876   9.158 -0.4683  1.7073 -1.8853
69232SOL     OW25687  12.734   0.441  12.928  0.2257  0.4986  0.2837
69232SOL    HW125688  12.744   0.481  13.015  0.3425  1.2149 -0.0475
69232SOL    HW225689  12.702   0.513  12.873  1.2537  0.3506 -0.5241
69233SOL     OW25690  12.632   3.254   2.783  0.6718  0.2129  0.1870
69233SOL    HW125691  12.592   3.177   2.743 -0.7941  0.8602  0.3213
69233SOL    HW225692  12.726   3.239   2.776  0.4863 -2.5440  1.9912
69234SOL     OW25693  10.073  12.372  13.959 -0.6280  0.2850  0.4184
69234SOL    HW125694  10.116  12.457  13.950  0.5588 -0.2782  0.5221
69234SOL    HW225695  10.130  12.311  13.912 -1.4372 -0.4599  0.3768
69235SOL     OW25696  10.715   3.283   7.185  0.0432  0.3571 -0.5893
69235SOL    HW125697  10.772   3.222   7.231 -0.6560  0.0041 -0.1762
69235SOL    HW225698  10.648   3.228   7.144  1.0263  0.5739 -2.6491
69236SOL     OW25699   1.105   7.628   5.415 -0.3486 -0.3839 -0.3885
69236SOL    HW125700   1.192   7.590   5.415 -0.4783 -0.7108 -1.3350
69236SOL    HW225701   1.052   7.570   5.470 -0.3778 -1.1830 -1.2425
69237SOL     OW25702   6.089  11.473  12.154 -0.4327 -0.0415 -0.0810
69237SOL    HW125703   5.995  11.492  12.156 -0.8269 -1.8411  0.9100
69237SOL    HW225704   6.099  11.397  12.212  1.9889  1.5435  1.7672
69238SOL     OW25705   4.718   5.102  10.778  0.2988 -0.6011  0.2359
69238SOL    HW125706   4.675   5.187  10.772 -2.6991 -2.0581 -0.3846
69238SOL    HW225707   4.716   5.081  10.872  2.7091  0.6944  0.6686
69239SOL     OW25708   0.678   2.898   0.759  0.0774  0.7176 -0.1620
69239SOL    HW125709   0.594   2.872   0.798  1.2156 -0.5770  1.5607
69239SOL    HW225710   0.678   2.993   0.763 -0.8101  0.6862  0.9029
69240SOL     OW25711   7.998  13.066   3.795  0.2237  0.5887  0.0793
69240SOL    HW125712   7.961  13.148   3.764 -2.0950 -0.2126  0.5102
69240SOL    HW225713   7.947  12.998   3.751  2.6548 -0.6922 -0.9527
69241SOL     OW25714   0.703   5.814  12.090 -0.2176 -0.2744  0.2067
69241SOL    HW125715   0.679   5.728  12.124 -0.5640  0.3852  1.7120
69241SOL    HW225716   0.760   5.795  12.015 -0.5048 -1.8049  0.3364
69242SOL     OW25717   7.819   9.863   7.329  0.5382 -0.2632  0.4869
69242SOL    HW125718   7.813   9.780   7.377  0.5472 -0.7102 -0.2838
69242SOL    HW225719   7.738   9.867   7.278  1.6434 -1.0036 -1.4034
69243SOL     OW25720   6.011   9.369   9.452 -0.4483  0.5940  0.3467
69243SOL    HW125721   5.970   9.285   9.474 -0.6956  0.5971 -0.0879
69243SOL    HW225722   6.093   9.369   9.501 -0.7445  0.3783  0.8510
69244SOL     OW25723   4.242  12.802   4.814 -0.4413  0.0552  0.4369
69244SOL    HW125724   4.311  12.840   4.759 -0.5275 -2.2086 -1.4268
69244SOL    HW225725   4.287  12.773   4.893  1.2122 -2.7135 -1.3389
69245SOL     OW25726   8.105  10.520  10.339  0.0197  0.3244  0.1748
69245SOL    HW125727   8.013  10.506  10.316  0.1632 -1.0667  0.3329
69245SOL    HW225728   8.102  10.567  10.422 -0.6245 -1.7707  1.4114
69246SOL     OW25729   0.278   3.934   6.135  0.2816 -0.2033  0.6185
69246SOL    HW125730   0.197   3.927   6.084  0.4796 -1.1372  0.4087
69246SOL    HW225731   0.268   4.014   6.186 -1.3701 -1.0225  1.6508
69247SOL     OW25732   3.411   0.577  11.907  0.4525 -0.2672 -0.0019
69247SOL    HW125733   3.490   0.630  11.925 -0.4567  0.9028  0.7047
69247SOL    HW225734   3.445   0.498  11.865  1.7910  1.3639 -2.2098
69248SOL     OW25735   7.732   6.831   8.244 -0.0840  0.3556  0.5380
69248SOL    HW125736   7.678   6.762   8.283 -0.7173  0.4350 -0.1815
69248SOL    HW225737   7.780   6.868   8.318  3.0595 -3.1707  0.5671
69249SOL     OW25738   0.812   0.481   4.689  0.3196  0.4882 -0.0102
69249SOL    HW125739   0.779   0.558   4.735  1.1487  0.1563  1.2102
69249SOL    HW225740   0.904   0.502   4.670  0.1140  0.4308 -1.1300
69250SOL     OW25741  12.071   9.407  13.693  0.1912  0.6069 -0.0825
69250SOL    HW125742  12.090   9.450  13.776 -0.7728  0.5202  0.1897
69250SOL    HW225743  12.028   9.474  13.640  0.1309  0.4414 -0.2437
69251SOL     OW25744  10.596   7.167   4.487  0.2889  0.5178 -0.1045
69251SOL    HW125745  10.567   7.256   4.510 -0.1473  0.4118 -0.2248
69251SOL    HW225746  10.582   7.161   4.393 -2.6545 -0.6976  0.3044
69252SOL     OW25747   5.729   5.277   2.253  0.2918 -0.0658  0.7791
69252SOL    HW125748   5.821   5.295   2.275  0.4704  1.2716 -0.8503
69252SOL    HW225749   5.681   5.350   2.292  0.3486  1.0594 -1.1512
69253SOL     OW25750   0.514   6.089   6.566 -0.2810 -0.7286 -0.0578
69253SOL    HW125751   0.452   6.144   6.614 -0.0308  1.2121 -1.7996
69253SOL    HW225752   0.598   6.104   6.610  0.1164  1.7096 -1.4903
69254SOL     OW25753  13.479   9.732   2.254  0.2686 -0.2063  0.0819
69254SOL    HW125754  13.448   9.802   2.197  0.4718  0.6248  0.9624
69254SOL    HW225755  13.488   9.774   2.340  0.1397 -1.3756  0.6845
69255SOL     OW25756   0.081   7.609   8.165 -0.5088  0.1321  0.5316
69255SOL    HW125757   0.158   7.581   8.116 -0.6632  0.0577  0.3306
69255SOL    HW225758   0.107   7.693   8.204 -0.0052 -0.3394  1.2394
69256SOL     OW25759  13.460   1.549   8.721 -0.0102 -0.1861  0.4161
69256SOL    HW125760  13.427   1.614   8.659  0.8836 -1.3382 -1.3513
69256SOL    HW225761  13.552   1.572   8.733 -0.3229  0.4091  1.8750
69257SOL     OW25762   9.857  10.951   7.420 -0.6207  0.4256 -1.0572
69257SOL    HW125763   9.946  10.922   7.401 -0.3399  1.3860 -1.2522
69257SOL    HW225764   9.868  11.035   7.464 -1.3627 -0.3147  0.6519
69258SOL     OW25765  12.024   0.607   5.711  0.0363 -0.5436  0.5989
69258SOL    HW125766  12.041   0.536   5.773  0.1659 -1.3722 -0.3656
69258SOL    HW225767  12.108   0.623   5.669 -0.4948 -1.4725 -0.8881
69259SOL     OW25768   8.974   3.624   5.177 -0.0586 -0.4656 -0.5981
69259SOL    HW125769   8.947   3.539   5.143  1.3043 -0.3947 -1.9615
69259SOL    HW225770   9.058   3.607   5.220 -1.4353 -0.4376  2.3768
69260SOL     OW25771   5.309   2.553   1.803  0.1623  0.4588 -0.1500
69260SOL    HW125772   5.239   2.590   1.749  0.1381  0.9252  0.1915
69260SOL    HW225773   5.364   2.628   1.825  0.3687  0.2127  0.1782
69261SOL     OW25774   7.575  10.139  13.201 -0.5664 -0.4140 -0.0526
69261SOL    HW125775   7.639  10.074  13.175 -0.4768 -0.6841  0.8119
69261SOL    HW225776   7.522  10.155  13.123  2.6772  2.4084 -1.9269
69262SOL     OW25777   5.988  12.027   4.394 -0.2200  0.1872  0.2233
69262SOL    HW125778   6.073  12.013   4.352  0.2175 -0.2965  1.2304
69262SOL    HW225779   5.942  11.944   4.381 -0.7588  0.6181 -0.7633
69263SOL     OW25780  12.302  12.392   9.395  0.0885 -0.3790  0.1928
69263SOL    HW125781  12.392  12.357   9.392  0.6039  0.9125 -0.0556
69263SOL    HW225782  12.303  12.454   9.467 -0.2402  0.5979 -0.6192
69264SOL     OW25783  10.898   3.811   9.109  0.5123 -0.5279 -0.2502
69264SOL    HW125784  10.819   3.757   9.106 -0.4333  0.8325 -1.0889
69264SOL    HW225785  10.962   3.757   9.154 -0.5250 -2.1571 -0.6375
69265SOL     OW25786   3.548   9.189   0.916  0.0648 -0.1603 -0.5034
69265SOL    HW125787   3.550   9.231   0.830  0.0262  1.4839  0.2674
69265SOL    HW225788   3.476   9.232   0.962  1.3933  0.4977  1.0697
69266SOL     OW25789   5.374   5.105   5.552  0.4514 -0.0308 -0.7304
69266SOL    HW125790   5.462   5.140   5.538  0.7663 -1.0609 -1.4147
69266SOL    HW225791   5.388   5.020   5.593 -0.1525 -0.7657 -1.9684
69267SOL     OW25792   9.095   0.975  11.707  0.2342 -0.0754  0.1786
69267SOL    HW125793   9.163   0.953  11.644  0.6786  0.7673  0.3541
69267SOL    HW225794   9.047   1.048  11.667  0.6231  0.5756  0.8800
69268SOL     OW25795   5.452  11.905   5.852 -0.5144  0.4965  0.1567
69268SOL    HW125796   5.414  11.846   5.786 -0.6500  1.2089 -0.4205
69268SOL    HW225797   5.384  11.971   5.867  0.2603  1.4744 -0.4735
69269SOL     OW25798   4.520  10.789  12.850  0.0046 -0.6325 -0.0425
69269SOL    HW125799   4.575  10.761  12.777 -0.9425  0.0656 -1.0518
69269SOL    HW225800   4.431  10.789  12.815 -0.5094 -0.5644  1.2025
69270SOL     OW25801   0.348   1.705  10.402  0.2420 -0.2105 -0.4460
69270SOL    HW125802   0.346   1.629  10.345 -1.0845 -1.0321  0.6488
69270SOL    HW225803   0.296   1.771  10.357 -0.0101 -0.5267 -0.6150
69271SOL     OW25804   8.541   3.896   9.631  0.7463 -0.4684 -0.3034
69271SOL    HW125805   8.534   3.831   9.562 -2.9006 -0.6285  0.0256
69271SOL    HW225806   8.496   3.857   9.706  1.2257  1.2204  0.9304
69272SOL     OW25807  12.491   5.914   5.431  0.0317  0.0510 -0.0260
69272SOL    HW125808  12.436   5.839   5.412 -0.2078 -0.3804  2.1320
69272SOL    HW225809  12.565   5.878   5.479 -0.3685  1.1996  1.5454
69273SOL     OW25810   8.252   1.520   4.851 -0.4096  0.4777 -0.4219
69273SOL    HW125811   8.216   1.590   4.796 -2.7893  0.1346  0.5674
69273SOL    HW225812   8.239   1.440   4.799 -0.4063  0.4303 -0.3490
69274SOL     OW25813  11.599  11.605  11.586  0.0531  0.0653  0.0764
69274SOL    HW125814  11.586  11.585  11.493  0.9184 -0.7806  0.1107
69274SOL    HW225815  11.512  11.597  11.625 -0.5900  1.8377 -0.8813
69275SOL     OW25816   4.750   5.087  13.106 -0.7255  0.1039  0.0040
69275SOL    HW125817   4.741   5.091  13.011  2.5789  1.0750 -0.3837
69275SOL    HW225818   4.707   5.167  13.138 -0.9373  0.3016 -0.7695
69276SOL     OW25819   1.581   5.130   5.890 -0.1245 -0.0812 -0.1520
69276SOL    HW125820   1.650   5.196   5.894  0.8200 -0.7849 -2.6796
69276SOL    HW225821   1.513   5.170   5.836 -0.3733 -0.4876 -0.1422
69277SOL     OW25822  12.939   1.844  13.283 -0.5027  0.4588 -0.3517
69277SOL    HW125823  12.950   1.781  13.353  0.5533 -1.2264 -1.9400
69277SOL    HW225824  12.905   1.793  13.209  1.0811  1.5170 -1.9181
69278SOL     OW25825   5.571   9.660   1.198 -0.4992  0.2176  0.1771
69278SOL    HW125826   5.584   9.646   1.105  0.8773  1.5892  0.1232
69278SOL    HW225827   5.476   9.673   1.207 -0.4547  2.2303 -1.4014
69279SOL     OW25828   8.039   5.239   1.022 -0.4080 -0.6303  0.0537
69279SOL    HW125829   7.976   5.275   1.084 -1.2199  0.4098 -1.3135
69279SOL    HW225830   7.994   5.163   0.984  0.7110 -2.2673  1.8291
69280SOL     OW25831   2.889   5.113   9.385  0.1867  0.1601  0.0047
69280SOL    HW125832   2.966   5.074   9.343  0.1820 -0.0488  0.1894
69280SOL    HW225833   2.820   5.049   9.374 -0.2867  0.8418 -1.1922
69281SOL     OW25834   5.369   9.411   8.158  1.0340  0.2796  0.1217
69281SOL    HW125835   5.293   9.466   8.179 -0.6030 -2.0363  0.5843
69281SOL    HW225836   5.419   9.408   8.239  0.1051 -0.4426  0.6859
69282SOL     OW25837   5.984  13.992   9.561 -0.0172  0.0386 -0.6982
69282SOL    HW125838   5.938  14.016   9.480 -0.6918 -0.1404 -0.3748
69282SOL    HW225839   5.947  14.051   9.627 -1.7499 -1.8456  0.1356
69283SOL     OW25840  12.963   5.256   1.432 -0.1604 -0.1429  0.0286
69283SOL    HW125841  12.966   5.175   1.381  0.0046 -0.2817  0.2528
69283SOL    HW225842  12.873   5.260   1.465 -1.9678  2.5838 -4.4238
69284SOL     OW25843  12.573  13.694   4.047 -0.2242 -0.2894 -0.0351
69284SOL    HW125844  12.602  13.604   4.035 -1.1540 -0.3315 -2.5045
69284SOL    HW225845  12.633  13.730   4.112  0.9892 -2.3028  0.0343
69285SOL     OW25846   9.367   8.245   1.912  0.2225  0.5896  0.0263
69285SOL    HW125847   9.286   8.195   1.913  1.1720 -1.0058  1.1852
69285SOL    HW225848   9.356   8.307   1.839 -2.1923  0.7486  0.4544
69286SOL     OW25849   2.771   2.225   3.115  0.8517 -0.0458  0.0147
69286SOL    HW125850   2.858   2.208   3.080  0.1352 -0.0817 -1.8339
69286SOL    HW225851   2.770   2.179   3.199  2.4007 -0.5351 -0.1976
69287SOL     OW25852  12.532  13.202   0.749 -0.0084 -0.0420  0.0741
69287SOL    HW125853  12.480  13.181   0.671  1.2192 -0.5730 -0.6210
69287SOL    HW225854  12.477  13.264   0.797 -1.1942 -0.4125 -0.7375
69288SOL     OW25855   6.102   8.353  10.912  0.4351 -0.2028 -0.1571
69288SOL    HW125856   6.013   8.322  10.899  0.2445  0.4080 -0.3356
69288SOL    HW225857   6.097   8.410  10.989  1.0250 -1.5864  0.9563
69289SOL     OW25858   6.676  11.847  11.309  0.0577  0.4585 -0.3367
69289SOL    HW125859   6.591  11.882  11.284  0.1594 -0.7024 -2.5648
69289SOL    HW225860   6.721  11.921  11.351 -2.4218  0.7676  2.1079
69290SOL     OW25861   6.586   5.350   0.604 -0.1238  0.4677  0.1905
69290SOL    HW125862   6.667   5.370   0.649  0.8575 -0.9786 -0.8300
69290SOL    HW225863   6.601   5.380   0.514 -1.2883  1.4970  0.3088
69291SOL     OW25864   1.897   0.044  13.180 -0.4426  0.6761  0.2229
69291SOL    HW125865   1.891  -0.042  13.137 -0.8285  1.4945 -1.4162
69291SOL    HW225866   1.909   0.023  13.273 -1.6631 -1.1640  0.0257
69292SOL     OW25867   7.828   9.198   8.224 -0.3879  0.3318 -0.0879
69292SOL    HW125868   7.828   9.118   8.275  0.3842  0.5436  0.2503
69292SOL    HW225869   7.867   9.174   8.140  4.3043  1.2512  1.5370
69293SOL     OW25870   7.922   6.636   1.859 -0.4870 -0.4276  0.1829
69293SOL    HW125871   7.838   6.595   1.879 -0.3310 -0.7799  0.1276
69293SOL    HW225872   7.969   6.569   1.808  1.0929 -1.5135  2.8876
69294SOL     OW25873   5.902   0.085   2.615 -0.1332  0.1802 -0.3040
69294SOL    HW125874   5.876   0.054   2.528  2.4214 -0.5982 -0.8720
69294SOL    HW225875   5.905   0.005   2.669  2.4760 -0.0812 -0.7004
69295SOL     OW25876  11.710   9.009  13.402 -0.3135  0.2349 -0.3222
69295SOL    HW125877  11.783   9.035  13.345  2.6282 -0.8468  2.6085
69295SOL    HW225878  11.742   8.931  13.447 -2.7927  0.4836  2.1207
69296SOL     OW25879   7.397   0.911   4.683 -0.6295  0.2623 -0.1024
69296SOL    HW125880   7.325   0.873   4.733  0.9535 -0.8663  1.4270
69296SOL    HW225881   7.447   0.961   4.748  0.0850  0.8550 -1.0883
69297SOL     OW25882   2.717   6.429   8.695 -0.2514 -0.2946 -0.0313
69297SOL    HW125883   2.646   6.486   8.666  0.4862 -0.3931 -2.2389
69297SOL    HW225884   2.796   6.481   8.681  0.4646 -1.8739 -2.4380
69298SOL     OW25885  12.656   1.189  11.545  0.9108  0.0961 -0.2086
69298SOL    HW125886  12.621   1.110  11.503  1.5845 -1.9966  2.8343
69298SOL    HW225887  12.743   1.199  11.508  1.2144 -1.2571  0.0858
69299SOL     OW25888  11.721  12.983  11.303  0.1684 -0.2031  0.2086
69299SOL    HW125889  11.706  13.037  11.225  0.5795  2.3366  1.7724
69299SOL    HW225890  11.808  12.947  11.291 -0.5275 -1.4636 -1.3557
69300SOL     OW25891  12.216   4.408   5.446  0.4123  0.7276 -0.4519
69300SOL    HW125892  12.246   4.484   5.395  0.4231  0.9937 -0.0551
69300SOL    HW225893  12.121   4.419   5.452  0.4135  0.7066 -0.3970
69301SOL     OW25894   8.591   3.343  13.737  0.4753  0.1989 -0.1847
69301SOL    HW125895   8.503   3.348  13.772  0.6156  3.0753 -0.0122
69301SOL    HW225896   8.580   3.314  13.646 -0.2450 -2.9477  0.7880
69302SOL     OW25897   9.478  10.674   6.277 -0.2298  0.0039  0.2557
69302SOL    HW125898   9.489  10.581   6.259 -1.3565 -0.1861  0.4474
69302SOL    HW225899   9.463  10.714   6.191 -0.9475 -0.1855  0.2853
69303SOL     OW25900   1.544  10.210   4.727  0.2232 -0.4637  0.2635
69303SOL    HW125901   1.501  10.286   4.767  1.0669  1.0366 -1.5416
69303SOL    HW225902   1.579  10.243   4.644  0.5552 -2.8633 -0.6223
69304SOL     OW25903   6.317   6.288   8.438 -0.0082 -0.2205 -0.1663
69304SOL    HW125904   6.392   6.318   8.490  0.5834 -0.0111 -1.1279
69304SOL    HW225905   6.259   6.364   8.434  0.0877 -0.1405 -0.0722
69305SOL     OW25906  10.067   3.167  12.945 -0.2771  0.3406 -0.3955
69305SOL    HW125907  10.003   3.147  12.877  1.3123 -0.2729 -1.7686
69305SOL    HW225908  10.090   3.082  12.982 -1.4040  0.6922  1.2487
69306SOL     OW25909   6.560  13.140  12.386  0.1467  0.4665  0.2133
69306SOL    HW125910   6.505  13.146  12.463 -1.6732 -1.4592 -0.8266
69306SOL    HW225911   6.515  13.079  12.328  3.7250 -1.8989 -0.4432
69307SOL     OW25912   7.847   4.674   3.459 -0.0343  0.0313 -0.3736
69307SOL    HW125913   7.817   4.608   3.521 -0.7494  0.1562 -0.5861
69307SOL    HW225914   7.927   4.637   3.422  0.2190 -0.1857  0.3793
69308SOL     OW25915  13.235   1.738   7.558 -0.0364  0.2207  0.1710
69308SOL    HW125916  13.281   1.755   7.640  0.3990 -1.3594  0.2920
69308SOL    HW225917  13.270   1.655   7.527 -2.7059 -1.0473  0.2090
69309SOL     OW25918   0.199   4.157   4.764 -0.0417 -0.2018  0.3148
69309SOL    HW125919   0.110   4.126   4.751  0.0419  0.3127 -1.8093
69309SOL    HW225920   0.254   4.084   4.733  0.1683  1.1906 -2.9705
69310SOL     OW25921   0.839   4.990  10.867  0.3220  0.1260  0.4088
69310SOL    HW125922   0.793   4.908  10.850  2.1051 -1.0586  1.0557
69310SOL    HW225923   0.886   4.975  10.949  4.2257  0.1332 -1.6092
69311SOL     OW25924  10.194  12.088   6.046  0.3069 -0.0756 -0.5810
69311SOL    HW125925  10.270  12.052   6.091 -0.2406 -0.6159 -0.0604
69311SOL    HW225926  10.197  12.182   6.064  1.3619  0.0496 -1.3579
69312SOL     OW25927   9.684   4.703  10.305  0.5199 -0.0099  0.0783
69312SOL    HW125928   9.702   4.611  10.322 -0.5850 -0.1889  0.3453
69312SOL    HW225929   9.710   4.748  10.385  0.3639 -0.1858  0.2292
69313SOL     OW25930   6.510   1.350  10.182 -0.3418  0.3552 -0.4966
69313SOL    HW125931   6.477   1.261  10.192  2.1272 -0.6879 -1.0341
69313SOL    HW225932   6.431   1.402  10.166 -2.2101 -1.1577  2.7840
69314SOL     OW25933  10.784  10.831   7.637  0.2147 -0.0270 -0.1560
69314SOL    HW125934  10.840  10.880   7.577  0.6790 -0.7247 -0.3020
69314SOL    HW225935  10.779  10.743   7.599 -0.7182 -0.0644  0.0249
69315SOL     OW25936   6.623  10.909   4.812 -0.1283  0.0206  0.2616
69315SOL    HW125937   6.692  10.918   4.746  0.2159  0.2108  0.6446
69315SOL    HW225938   6.669  10.912   4.896 -0.6588  0.7877  0.5430
69316SOL     OW25939   7.529   4.206  13.784  0.1933 -0.0018  0.4352
69316SOL    HW125940   7.469   4.250  13.845 -1.4583  0.4606 -1.4171
69316SOL    HW225941   7.558   4.275  13.724  1.7351 -0.4523  0.6197
69317SOL     OW25942  10.658   5.981   9.664  0.1258 -0.1500 -0.3545
69317SOL    HW125943  10.696   5.916   9.605  0.1503 -0.1596 -0.3283
69317SOL    HW225944  10.666   6.064   9.616  0.8193 -0.0365 -0.0624
69318SOL     OW25945   1.228   7.106  11.479  0.2507  0.3825 -0.1817
69318SOL    HW125946   1.239   7.013  11.497 -1.2037  0.6517  2.5588
69318SOL    HW225947   1.177   7.109  11.398  0.2745 -1.1673 -0.2884
69319SOL     OW25948   8.367   5.057  10.765 -0.3479  0.0834 -0.2043
69319SOL    HW125949   8.318   4.998  10.822 -0.5313  0.4731  0.0478
69319SOL    HW225950   8.457   5.054  10.798 -0.4237  0.1915  0.0118
69320SOL     OW25951  10.026   0.626   1.755  0.3030 -0.2131 -0.2583
69320SOL    HW125952  10.038   0.533   1.774 -0.2727 -0.5128 -1.2952
69320SOL    HW225953   9.994   0.628   1.665  0.6936  1.0175 -0.3868
69321SOL     OW25954  11.309   9.589   6.264 -0.0131 -0.0957  0.0203
69321SOL    HW125955  11.333   9.519   6.325  0.7413 -2.9089 -3.1895
69321SOL    HW225956  11.216   9.604   6.279  0.3802  0.2301  2.5846
69322SOL     OW25957   9.187  11.246  13.201  0.0296  0.5331 -0.1821
69322SOL    HW125958   9.200  11.175  13.137 -0.1170 -0.1766  0.5562
69322SOL    HW225959   9.136  11.205  13.271  0.0198  1.3562  0.2970
69323SOL     OW25960  10.984  13.978   1.003  0.0304  0.5376 -0.4136
69323SOL    HW125961  11.008  14.042   0.937  0.1968  0.8561 -0.0528
69323SOL    HW225962  10.889  13.983   1.008  0.1114  1.5870  0.4138
69324SOL     OW25963   6.387   6.553   7.909 -0.5020  0.6646  0.0189
69324SOL    HW125964   6.333   6.626   7.879 -2.3545  0.1312  1.8161
69324SOL    HW225965   6.369   6.547   8.003 -0.2316 -1.9540 -0.0193
69325SOL     OW25966  10.535   3.167   9.433 -0.3471 -0.7032  0.0736
69325SOL    HW125967  10.480   3.162   9.355 -0.0761  0.5849 -0.2221
69325SOL    HW225968  10.481   3.130   9.503 -1.5208  0.3446 -0.2478
69326SOL     OW25969   1.126  12.777  13.755  0.4355 -0.2428 -0.3502
69326SOL    HW125970   1.062  12.727  13.704 -0.6782 -0.2186  0.9819
69326SOL    HW225971   1.168  12.711  13.811  0.3782  0.0087 -0.0113
69327SOL     OW25972  11.390   8.205   6.699  0.5846  0.0430  0.2928
69327SOL    HW125973  11.310   8.238   6.742  0.9572  0.5611  0.6026
69327SOL    HW225974  11.362   8.185   6.610  0.5992  2.4667 -0.3239
69328SOL     OW25975  11.805   3.259   3.713 -0.5368  0.3328  0.0747
69328SOL    HW125976  11.811   3.295   3.625 -2.9947 -1.3164 -0.8994
69328SOL    HW225977  11.723   3.210   3.713  0.7800 -2.1936  2.3490
69329SOL     OW25978  14.140   7.547   1.318  0.0324 -0.6455  0.4750
69329SOL    HW125979  14.176   7.559   1.406 -1.7528 -0.0372  1.1726
69329SOL    HW225980  14.071   7.614   1.311  0.0531 -0.7716 -1.3375
69330SOL     OW25981   4.549   9.059   4.633  0.4329 -0.2982 -0.3948
69330SOL    HW125982   4.599   9.019   4.703 -1.4635 -0.5649  0.8513
69330SOL    HW225983   4.567   9.153   4.641 -0.5020 -0.2218  1.0897
69331SOL     OW25984   1.687   4.221   9.763  0.6510 -0.4861  0.0267
69331SOL    HW125985   1.741   4.154   9.719  1.6548 -1.3949  2.4902
69331SOL    HW225986   1.602   4.215   9.719  2.1180  0.2564 -3.2791
69332SOL     OW25987   8.028   2.920   0.021 -0.5520 -0.0003  0.1803
69332SOL    HW125988   8.104   2.977   0.013  0.3673 -1.4075 -2.4309
69332SOL    HW225989   8.042   2.872   0.103  1.9785 -0.9174 -0.6779
69333SOL     OW25990  13.118   8.542  10.654 -0.1942  0.0570  0.2858
69333SOL    HW125991  13.059   8.468  10.668 -0.0337 -0.1309 -0.0377
69333SOL    HW225992  13.061   8.619  10.653 -0.7790 -0.3296 -2.6158
69334SOL     OW25993   8.430  13.637   6.051 -0.1589 -0.2015  0.2846
69334SOL    HW125994   8.398  13.612   6.138  0.6623  1.2722  1.0688
69334SOL    HW225995   8.525  13.639   6.061  0.0062 -1.0801 -0.9809
69335SOL     OW25996   1.641   6.285   4.483 -0.1059 -0.1713 -0.0471
69335SOL    HW125997   1.654   6.323   4.570 -0.7064 -0.6494  0.2588
69335SOL    HW225998   1.628   6.192   4.500 -1.9847 -0.0230 -0.4876
69336SOL     OW25999   4.296   6.399  11.714 -0.1892 -0.2186  0.2505
69336SOL    HW126000   4.363   6.366  11.774 -1.1821 -2.6118  0.1713
69336SOL    HW226001   4.343   6.415  11.633  0.3957 -1.4862  0.3089
69337SOL     OW26002   6.981  11.305   2.528 -0.3711 -0.4784 -0.3857
69337SOL    HW126003   6.937  11.384   2.497  2.2285  1.0230 -0.5479
69337SOL    HW226004   6.980  11.313   2.623  0.1344 -0.0594 -0.4074
69338SOL     OW26005  10.050   0.589   2.159  0.1070 -0.0686 -0.0481
69338SOL    HW126006   9.974   0.594   2.217 -0.8539 -0.1599 -1.2547
69338SOL    HW226007  10.036   0.658   2.095 -0.0158 -1.3483 -1.4755
69339SOL     OW26008  11.038   7.029  14.004 -0.3568 -0.9529 -0.3946
69339SOL    HW126009  10.950   7.066  14.013 -1.1644 -2.7515 -0.4243
69339SOL    HW226010  11.026   6.954  13.946  1.2245 -1.2037 -0.4262
69340SOL     OW26011   6.375   6.298   0.047  0.6973 -0.3653  0.7739
69340SOL    HW126012   6.428   6.360   0.097  1.3040 -0.5483  0.3648
69340SOL    HW226013   6.402   6.212   0.078 -0.1739 -0.4386  1.3706
69341SOL     OW26014   9.931   4.085  14.138 -0.6173 -0.4378 -0.1757
69341SOL    HW126015  10.023   4.090  14.165 -0.2914 -1.4083 -1.0659
69341SOL    HW226016   9.910   4.175  14.110 -0.5526  0.2692  1.8538
69342SOL     OW26017   0.140   8.867   1.103  0.3040 -0.0033  0.4696
69342SOL    HW126018   0.125   8.921   1.181  0.2500  0.8763 -0.1284
69342SOL    HW226019   0.070   8.802   1.105 -0.2361  0.5759  0.6869
69343SOL     OW26020  10.342  12.713   4.634  0.1814  0.7161  0.2376
69343SOL    HW126021  10.254  12.696   4.601 -0.2970  0.6469  1.4994
69343SOL    HW226022  10.375  12.784   4.578 -0.6547  0.7210 -0.2671
69344SOL     OW26023  13.991   9.131   9.055 -0.1793  0.4074  0.4411
69344SOL    HW126024  14.051   9.095   8.990 -0.3858 -1.6369  1.3215
69344SOL    HW226025  14.048   9.169   9.122  0.2462 -1.8974  1.4829
69345SOL     OW26026   7.789   2.745  11.223 -0.3267  0.3200  0.1503
69345SOL    HW126027   7.699   2.775  11.234 -1.2259 -1.7385 -0.9243
69345SOL    HW226028   7.825   2.802  11.155 -1.6867 -0.4039 -1.2366
69346SOL     OW26029   1.646   6.639   7.486  0.5429  0.7680 -0.4275
69346SOL    HW126030   1.618   6.586   7.560  1.9216 -0.1176 -0.5016
69346SOL    HW226031   1.597   6.721   7.495  0.1589  0.4047  1.0533
69347SOL     OW26032   9.278   8.599   4.730 -0.1576  0.2466  0.1534
69347SOL    HW126033   9.328   8.590   4.812  0.4648  0.6182 -0.1766
69347SOL    HW226034   9.340   8.637   4.668  0.0389 -1.9972 -1.1255
69348SOL     OW26035   7.312  11.984  12.747 -0.1282  0.1723  0.1653
69348SOL    HW126036   7.217  12.000  12.753 -0.2446  1.0388 -2.7147
69348SOL    HW226037   7.342  12.042  12.677  2.6851  0.3244  1.3695
69349SOL     OW26038  10.920   3.071   7.041  0.1350  0.2661 -0.2635
69349SOL    HW126039  11.010   3.100   7.029  0.3357  0.2569  1.1060
69349SOL    HW226040  10.875   3.099   6.961  0.6822  2.9464  0.2762
69350SOL     OW26041   0.485   3.095   0.025 -0.5774 -0.5417  0.0953
69350SOL    HW126042   0.575   3.115   0.050 -0.8325  1.6760 -0.5029
69350SOL    HW226043   0.492   3.062  -0.064 -0.3812  0.3166 -0.2209
69351SOL     OW26044   7.608   6.479   8.542  0.2594 -0.1729  0.4315
69351SOL    HW126045   7.660   6.512   8.616  0.6992 -0.3095  0.1876
69351SOL    HW226046   7.628   6.386   8.539  0.5800 -0.0867 -0.1303
69352SOL     OW26047   3.245   6.713   0.166 -0.2251 -0.0863 -0.0924
69352SOL    HW126048   3.332   6.674   0.180  0.1320  0.8327  0.2888
69352SOL    HW226049   3.263   6.798   0.127 -0.9409  0.2871  0.3764
69353SOL     OW26050   4.680   3.498  12.603 -0.1258 -0.3534 -0.0009
69353SOL    HW126051   4.631   3.449  12.669 -3.7777  1.2252 -1.3314
69353SOL    HW226052   4.719   3.570  12.653 -0.5852 -0.6685  0.8446
69354SOL     OW26053   0.767   6.378   6.696  0.0755 -0.2902 -0.4674
69354SOL    HW126054   0.772   6.283   6.684  1.3825 -0.2102 -0.7632
69354SOL    HW226055   0.859   6.405   6.701 -0.2819  1.0002 -0.6965
69355SOL     OW26056   6.941   0.662   6.574  0.6185 -0.1733  0.0366
69355SOL    HW126057   6.964   0.635   6.662  1.5780  0.4990  0.0106
69355SOL    HW226058   6.880   0.735   6.586  2.6929  1.6433  0.2454
69356SOL     OW26059   3.129   4.076   2.528  0.4547 -0.1342  0.1198
69356SOL    HW126060   3.196   4.030   2.578 -0.8890 -0.6450  1.5513
69356SOL    HW226061   3.068   4.007   2.500 -0.6525  0.5345  0.7946
69357SOL     OW26062   8.784  11.649  13.219  0.0179 -0.0748  0.0382
69357SOL    HW126063   8.742  11.605  13.293 -1.4054  0.8162 -0.2000
69357SOL    HW226064   8.859  11.695  13.257  1.6893 -2.7902  0.2599
69358SOL     OW26065   9.270  10.083   6.806  0.2680  0.9536 -0.5006
69358SOL    HW126066   9.197  10.039   6.763  0.1104  0.6771  0.0508
69358SOL    HW226067   9.315  10.129   6.735  1.4973 -1.4937 -1.4264
69359SOL     OW26068   9.766   1.202   1.461 -0.7590  0.0913 -0.0219
69359SOL    HW126069   9.705   1.159   1.402 -1.2336 -0.2757  0.7123
69359SOL    HW226070   9.841   1.224   1.407 -1.5961  0.6781 -0.9815
69360SOL     OW26071   8.205  10.417   6.454 -0.2479  0.4847 -0.0385
69360SOL    HW126072   8.195  10.374   6.539 -0.8113  0.8513  0.0882
69360SOL    HW226073   8.296  10.446   6.452 -0.2303  0.4708  0.4400
69361SOL     OW26074   8.825   8.802   3.266 -0.1498 -0.2988  0.2707
69361SOL    HW126075   8.759   8.866   3.244  0.7316  0.1087 -1.3211
69361SOL    HW226076   8.893   8.851   3.313 -0.3432 -0.4598  0.7319
69362SOL     OW26077   3.941  11.585   3.547 -0.2879 -1.1287  0.2232
69362SOL    HW126078   3.854  11.544   3.556 -0.9134  0.2383  0.5745
69362SOL    HW226079   3.932  11.644   3.473 -0.2768  0.5264  1.5000
69363SOL     OW26080  10.865   2.205  11.941 -0.4752 -1.1810  0.0540
69363SOL    HW126081  10.862   2.155  11.860  3.1507 -0.6914 -0.5534
69363SOL    HW226082  10.797   2.272  11.931 -1.6461 -2.5396 -1.5233
69364SOL     OW26083   4.785  12.041   2.843  0.1675 -0.1352 -0.6318
69364SOL    HW126084   4.807  11.959   2.886  0.5204  1.1453  1.7901
69364SOL    HW226085   4.691  12.033   2.824 -0.3069 -0.3390  1.5185
69365SOL     OW26086   6.378   6.219   9.579 -0.2882  0.1540 -0.3098
69365SOL    HW126087   6.375   6.314   9.565 -0.3490  0.6507  2.4366
69365SOL    HW226088   6.323   6.204   9.656 -0.5548 -2.1793 -0.8680
69366SOL     OW26089   6.435   9.417   3.569  0.3521 -0.1802 -0.0600
69366SOL    HW126090   6.401   9.477   3.502 -2.0414 -2.2799 -0.9089
69366SOL    HW226091   6.449   9.335   3.523  1.1272 -0.9929  1.5437
69367SOL     OW26092  11.808   8.204   1.076  0.2926 -0.2292 -0.1694
69367SOL    HW126093  11.800   8.138   1.145  0.0882  0.1649  0.1883
69367SOL    HW226094  11.787   8.157   0.996 -0.4930 -0.4536  0.1550
69368SOL     OW26095   3.949   4.458   1.538 -0.7044 -0.5648  0.1848
69368SOL    HW126096   4.004   4.380   1.529  0.4353  0.1352  0.9117
69368SOL    HW226097   3.880   4.432   1.599 -0.5236 -1.0958  0.1686
69369SOL     OW26098   9.720   8.324   4.648  0.3992 -0.0023 -0.1695
69369SOL    HW126099   9.747   8.278   4.727  0.5868  1.2910  0.5367
69369SOL    HW226100   9.740   8.263   4.577  2.5334 -0.2191  0.5592
69370SOL     OW26101  12.495  14.046   7.414 -0.4519 -0.5822 -0.1252
69370SOL    HW126102  12.510  13.990   7.490 -0.4676 -2.1310 -1.2134
69370SOL    HW226103  12.446  13.991   7.353 -1.5921  1.0344 -0.7666
69371SOL     OW26104   9.540   5.666   5.879 -0.3713  0.3038 -0.6140
69371SOL    HW126105   9.497   5.728   5.821  0.8685  0.9677 -0.8550
69371SOL    HW226106   9.599   5.616   5.821 -0.6170 -0.4062 -0.2593
69372SOL     OW26107   0.121   8.505   6.118 -0.1655  0.4235 -0.3989
69372SOL    HW126108   0.213   8.506   6.142 -0.0065 -0.0318 -0.9711
69372SOL    HW226109   0.114   8.565   6.044 -0.6445  1.7791  0.6905
69373SOL     OW26110   6.777   8.193   8.634 -0.1981  0.4596 -0.0163
69373SOL    HW126111   6.738   8.180   8.721 -0.6408  1.5456 -0.0398
69373SOL    HW226112   6.726   8.263   8.595  0.3704  0.3739 -0.9331
69374SOL     OW26113  13.492   5.136   2.424 -0.0163 -0.0328 -0.2277
69374SOL    HW126114  13.495   5.042   2.405  0.6062  0.0056 -0.3369
69374SOL    HW226115  13.450   5.141   2.510 -0.3500 -0.3866 -0.3645
69375SOL     OW26116   5.850   1.397   5.431 -0.5430 -0.4130 -0.5089
69375SOL    HW126117   5.868   1.486   5.402  1.1913  0.5918  3.1032
69375SOL    HW226118   5.754   1.393   5.438 -0.5946  2.2136  1.8772
69376SOL     OW26119   4.613   1.697   9.199 -0.4421 -0.3311 -0.0235
69376SOL    HW126120   4.653   1.692   9.112  1.7174 -0.3419  0.9197
69376SOL    HW226121   4.565   1.615   9.208  0.6822 -1.0731 -0.5830
69377SOL     OW26122  11.492  11.961   5.490 -0.3742  0.0695 -0.5652
69377SOL    HW126123  11.401  11.976   5.513 -0.5284  1.5250 -1.9075
69377SOL    HW226124  11.492  11.954   5.394  0.6907 -1.8205 -0.4687
69378SOL     OW26125  12.226   2.533  10.051  0.2898  0.0261 -0.1269
69378SOL    HW126126  12.138   2.568  10.068 -0.6479 -1.7570 -0.9807
69378SOL    HW226127  12.248   2.565   9.964  1.2312  1.8022  0.7177
69379SOL     OW26128   7.134   1.647  13.789 -0.4969  0.2277 -0.2729
69379SOL    HW126129   7.102   1.731  13.755 -0.2814  0.1140 -0.7664
69379SOL    HW226130   7.134   1.658  13.884 -0.7410  0.6887 -0.3233
69380SOL     OW26131   9.666  12.779   0.916 -0.1185 -0.3754  0.2138
69380SOL    HW126132   9.601  12.757   0.849  0.1757  1.1944 -0.6180
69380SOL    HW226133   9.615  12.797   0.994 -0.7089  0.7127 -0.3998
69381SOL     OW26134   8.254   4.335   6.087  0.0255  0.2576 -0.3168
69381SOL    HW126135   8.278   4.296   6.171  1.2441 -1.1462 -1.2705
69381SOL    HW226136   8.165   4.303   6.071 -0.4122  0.9486  0.6487
69382SOL     OW26137   2.510   9.339  10.727 -0.7996 -0.0486 -0.3473
69382SOL    HW126138   2.597   9.373  10.749  0.0613 -1.1899 -1.8282
69382SOL    HW226139   2.483   9.291  10.805  0.3623 -0.5316 -0.2161
69383SOL     OW26140   1.513  14.053  12.551  0.1608  0.6484  0.0697
69383SOL    HW126141   1.463  14.118  12.600 -1.4449 -0.5878  0.1395
69383SOL    HW226142   1.599  14.054  12.592 -0.4747  1.2313  1.4522
69384SOL     OW26143   9.769   0.435  11.300 -0.1386  0.4193  0.0982
69384SOL    HW126144   9.838   0.415  11.364  0.4146  0.3149 -0.5218
69384SOL    HW226145   9.720   0.507  11.340  1.1029  1.3481  0.0026
69385SOL     OW26146   3.300  11.430   0.465 -0.2324  0.2607  0.3728
69385SOL    HW126147   3.229  11.475   0.419  0.7046  1.7586  0.3254
69385SOL    HW226148   3.308  11.346   0.421 -1.9506  0.0465  0.3726
69386SOL     OW26149   2.538  13.102  10.582  0.1567  0.2482 -0.0299
69386SOL    HW126150   2.588  13.050  10.644  0.5459 -0.6950 -1.0950
69386SOL    HW226151   2.470  13.145  10.635 -0.2932 -1.4812  0.8701
69387SOL     OW26152   3.744  12.518   4.977  0.0285  0.5101  0.0115
69387SOL    HW126153   3.792  12.550   5.053  1.2191  0.6214 -0.7603
69387SOL    HW226154   3.810  12.474   4.923 -0.7660  0.5092 -1.0005
69388SOL     OW26155  11.748  10.453   7.769 -0.2945 -0.0409 -0.8216
69388SOL    HW126156  11.753  10.433   7.863  1.9961 -1.0899 -1.1039
69388SOL    HW226157  11.670  10.406   7.739 -1.0910  0.3396  0.5327
69389SOL     OW26158   8.991   9.746   2.276  0.0249  0.0218  0.2771
69389SOL    HW126159   9.024   9.824   2.321 -1.3387  2.4996 -2.6327
69389SOL    HW226160   9.040   9.744   2.194 -1.6578 -0.6963 -0.7670
69390SOL     OW26161  12.135  10.036   8.340 -0.6627  0.5380  0.1134
69390SOL    HW126162  12.153  10.069   8.428  0.8645 -0.3160  0.1464
69390SOL    HW226163  12.056   9.982   8.350 -0.9351  1.0486  0.7940
69391SOL     OW26164   2.603   5.100  10.888 -0.3157  0.2776 -0.2211
69391SOL    HW126165   2.666   5.171  10.875  0.5296 -0.1439  1.3302
69391SOL    HW226166   2.624   5.036  10.820 -0.6714  1.2037 -1.2282
69392SOL     OW26167  13.932   1.909   8.213  0.0810 -0.3129 -0.0795
69392SOL    HW126168  13.955   1.818   8.232  3.5342  0.7637  1.5948
69392SOL    HW226169  13.988   1.933   8.139 -1.0508  0.4236 -0.7348
69393SOL     OW26170  12.579   8.927   2.423 -0.2297 -0.3594  0.4072
69393SOL    HW126171  12.643   8.948   2.491 -0.1721 -3.2116  1.3770
69393SOL    HW226172  12.582   8.831   2.417 -1.0830 -0.2944 -2.8239
69394SOL     OW26173  11.316   1.125   6.086 -0.4977 -0.3015 -0.3346
69394SOL    HW126174  11.224   1.131   6.059 -0.9986 -0.3759  1.2580
69394SOL    HW226175  11.314   1.138   6.181  1.1203 -0.5348 -0.2427
69395SOL     OW26176   3.066  10.662   3.080  0.7379 -0.4332  0.2651
69395SOL    HW126177   3.050  10.756   3.077  0.5419 -0.4879 -0.8663
69395SOL    HW226178   3.105  10.642   2.994 -0.2624 -1.5650  0.0559
69396SOL     OW26179   0.021   9.538  10.439  0.0036 -0.0758 -0.2800
69396SOL    HW126180   0.056   9.571  10.521  0.3199  0.0704 -0.4707
69396SOL    HW226181   0.083   9.568  10.372 -0.0443 -0.5121 -0.5293
69397SOL     OW26182  12.962   1.157   0.283  0.3454 -0.1007  0.2609
69397SOL    HW126183  12.959   1.081   0.225 -1.1764 -1.5232  2.0929
69397SOL    HW226184  12.899   1.218   0.247 -0.0498 -0.6624 -0.0092
69398SOL     OW26185   3.453   7.892   9.182 -0.0705 -0.2161  0.3306
69398SOL    HW126186   3.531   7.861   9.136 -0.0268 -0.0337  0.2775
69398SOL    HW226187   3.478   7.980   9.213 -1.2082  1.1416 -2.2412
69399SOL     OW26188   8.810   8.657  13.549  0.1165 -0.1065 -0.4716
69399SOL    HW126189   8.885   8.714  13.527 -0.7050  0.3927 -2.2127
69399SOL    HW226190   8.799   8.602  13.471 -0.9461 -0.6055  0.0172
69400SOL     OW26191  10.266   6.701   6.800 -0.1233 -0.0463 -0.6435
69400SOL    HW126192  10.303   6.784   6.831  0.6303 -0.6660  0.1753
69400SOL    HW226193  10.268   6.708   6.704  1.4101  0.2664 -0.6171
69401SOL     OW26194  10.807   0.818   9.111 -0.2989  0.3105 -0.6440
69401SOL    HW126195  10.879   0.768   9.150  0.9020  0.3962 -2.5937
69401SOL    HW226196  10.850   0.895   9.072 -1.5229  0.6545 -1.3751
69402SOL     OW26197   5.320   0.308   1.177 -0.0423 -0.2941 -0.4811
69402SOL    HW126198   5.261   0.325   1.103 -1.1456 -0.8198  0.2508
69402SOL    HW226199   5.301   0.218   1.203  2.2821 -1.0726 -1.2500
69403SOL     OW26200  12.654   2.353   7.076  0.4564  0.1808  0.2470
69403SOL    HW126201  12.685   2.405   7.150  0.4583  0.0184  0.3612
69403SOL    HW226202  12.559   2.368   7.074  0.1451 -1.3428  1.4981
69404SOL     OW26203  12.793   7.266  13.240  0.2304 -0.0439  0.2443
69404SOL    HW126204  12.861   7.223  13.292  0.3786 -0.4549 -0.2736
69404SOL    HW226205  12.829   7.269  13.151 -0.1407  0.3674  0.1026
69405SOL     OW26206  10.811   0.314  12.758  0.5052 -0.3359  0.4343
69405SOL    HW126207  10.810   0.287  12.666 -0.0700  0.4376  0.1991
69405SOL    HW226208  10.720   0.337  12.777  0.6480 -0.3561  1.1542
69406SOL     OW26209   2.939  13.840   9.131 -0.4132  0.3795 -0.1043
69406SOL    HW126210   2.871  13.836   9.064  0.6732  3.8407 -1.5906
69406SOL    HW226211   3.017  13.807   9.088 -0.1736  0.5514  0.1939
69407SOL     OW26212   4.312  12.283   9.035 -0.2338 -0.1403 -0.2762
69407SOL    HW126213   4.352  12.343   9.099 -1.4233  0.1396  0.2333
69407SOL    HW226214   4.267  12.218   9.088 -0.9982 -0.0705 -0.8287
69408SOL     OW26215  13.151   7.482  10.019  0.0241 -0.3946 -0.2073
69408SOL    HW126216  13.136   7.520  10.106 -1.3840 -1.9441  0.2771
69408SOL    HW226217  13.232   7.523   9.989 -0.5388  1.7233  0.9403
69409SOL     OW26218  12.924   0.082  11.024  0.1855  0.3036 -0.1011
69409SOL    HW126219  12.939   0.173  11.049 -0.9081  0.9296 -1.5696
69409SOL    HW226220  13.012   0.043  11.022  0.5912  1.0259  1.4700
69410SOL     OW26221   7.968   0.369   4.499  0.1342 -0.3377 -0.9551
69410SOL    HW126222   8.052   0.392   4.538  0.3730  0.4328 -1.9078
69410SOL    HW226223   7.965   0.273   4.504  0.3652 -0.3003  0.4923
69411SOL     OW26224   4.239   2.574   8.119 -0.5848  0.4599 -0.2361
69411SOL    HW126225   4.313   2.546   8.066  0.0722  2.1456 -0.2573
69411SOL    HW226226   4.197   2.643   8.067 -1.0941  0.7752  0.5755
69412SOL     OW26227   5.417   1.398   1.323 -0.6540  0.2012  0.5687
69412SOL    HW126228   5.398   1.358   1.238 -0.1949  1.2233 -0.0385
69412SOL    HW226229   5.380   1.486   1.317  0.1278  0.5784  1.1052
69413SOL     OW26230   7.205   7.035   1.641  0.1262  0.2064 -0.0439
69413SOL    HW126231   7.164   7.015   1.725 -0.4453  2.5206  0.3014
69413SOL    HW226232   7.132   7.034   1.578  0.5747 -1.6769 -0.5959
69414SOL     OW26233  12.469   8.153  10.140  0.0826  0.1524  0.8848
69414SOL    HW126234  12.429   8.173  10.056  0.3241 -3.9994 -0.4277
69414SOL    HW226235  12.553   8.198  10.138 -0.6619  1.5639 -0.2830
69415SOL     OW26236  13.909   7.575   8.696 -0.1472  0.1755  0.0813
69415SOL    HW126237  13.828   7.578   8.747  0.9832 -0.7930  2.0434
69415SOL    HW226238  13.904   7.494   8.647 -0.9623  0.8068 -0.9256
69416SOL     OW26239  13.023  12.285   7.016  0.1727 -0.0834 -0.4709
69416SOL    HW126240  13.064  12.360   7.058  2.1394 -1.7236  0.7398
69416SOL    HW226241  12.969  12.322   6.947  1.1071  2.4066  0.0479
69417SOL     OW26242   6.017   2.626   3.616  0.2018 -0.1714  0.7485
69417SOL    HW126243   5.938   2.604   3.567  0.0861  2.3926 -0.3833
69417SOL    HW226244   5.986   2.652   3.702  0.0990 -1.7078  1.1948
69418SOL     OW26245  13.948   4.887   5.533  0.0429  0.4459  0.6729
69418SOL    HW126246  13.916   4.829   5.603  0.3134  0.0969  0.5122
69418SOL    HW226247  13.993   4.957   5.579  0.2584  0.1939  0.8487
69419SOL     OW26248   5.495  13.980   1.325 -0.4363  0.0100  0.0964
69419SOL    HW126249   5.439  13.934   1.388  2.1249 -1.8563  1.1918
69419SOL    HW226250   5.505  13.919   1.252  3.9426 -2.1240  2.0680
69420SOL     OW26251   4.398   9.348   8.146  0.3912 -0.6438 -0.4214
69420SOL    HW126252   4.493   9.345   8.156  0.3959  0.3598 -0.0300
69420SOL    HW226253   4.375   9.265   8.104  1.3435 -1.2523  0.2179
69421SOL     OW26254   9.086   9.380   6.339 -0.5948  0.4277  0.0002
69421SOL    HW126255   9.070   9.474   6.349 -0.6868  0.5224 -0.9333
69421SOL    HW226256   9.067   9.344   6.425  0.6951  1.4210  0.7449
69422SOL     OW26257   0.380  11.598   8.237 -0.1154  0.0469  0.0762
69422SOL    HW126258   0.360  11.673   8.293  0.8363 -0.7583  1.5705
69422SOL    HW226259   0.381  11.523   8.297  2.7823 -0.5977 -0.6294
69423SOL     OW26260  12.559   3.406   2.390 -0.3919  0.0289 -0.8391
69423SOL    HW126261  12.636   3.432   2.442 -0.4095  0.1781 -0.8875
69423SOL    HW226262  12.595   3.357   2.316 -0.4765 -1.9238  0.3391
69424SOL     OW26263  13.279   0.117   7.113 -0.0314 -0.4033 -0.4652
69424SOL    HW126264  13.354   0.170   7.087 -0.3187 -0.9499 -2.6131
69424SOL    HW226265  13.281   0.118   7.209  1.3388  1.4918 -0.4503
69425SOL     OW26266   3.160  13.151   4.130  0.7237 -0.3434 -0.0175
69425SOL    HW126267   3.171  13.155   4.035 -2.8693  2.0525 -0.5281
69425SOL    HW226268   3.184  13.239   4.161 -1.1724 -0.0541  0.7679
69426SOL     OW26269   3.930   0.788   9.471  0.4107 -0.1894 -0.1990
69426SOL    HW126270   3.916   0.701   9.435 -2.4650  0.5236 -1.0600
69426SOL    HW226271   3.853   0.805   9.526  1.4038  1.4161  0.7918
69427SOL     OW26272   4.087   0.441   5.463  0.3495 -0.3265  0.3309
69427SOL    HW126273   4.068   0.532   5.483  0.4689 -0.6245  1.9721
69427SOL    HW226274   4.004   0.395   5.475  0.5797 -0.6215  0.8439
69428SOL     OW26275   6.148  12.938  13.287  0.1184  0.8888  0.0672
69428SOL    HW126276   6.117  12.848  13.295 -0.1506  1.1100  1.6710
69428SOL    HW226277   6.084  12.981  13.230 -0.1414  0.2694 -0.1164
69429SOL     OW26278   6.122   3.441   3.111  0.1850 -0.3739  0.2982
69429SOL    HW126279   6.156   3.373   3.052 -1.6188 -0.7603 -0.3760
69429SOL    HW226280   6.027   3.430   3.107 -0.1118  1.5771  0.9336
69430SOL     OW26281   8.372  11.413   7.915 -0.1824 -0.0079 -0.0707
69430SOL    HW126282   8.306  11.436   7.981  0.2122  0.5853  0.1331
69430SOL    HW226283   8.456  11.420   7.962  0.1026  0.4108 -0.6209
69431SOL     OW26284   4.729   5.703   8.304 -0.0013  0.5534  0.1931
69431SOL    HW126285   4.730   5.747   8.220 -1.2737  1.4080  0.6070
69431SOL    HW226286   4.749   5.771   8.368 -1.7717  0.5413  0.8176
69432SOL     OW26287  12.830   4.038   1.695 -0.5826  0.0997  1.0848
69432SOL    HW126288  12.792   4.034   1.607  1.3515  1.0029  0.1440
69432SOL    HW226289  12.760   4.075   1.749 -0.5348  3.6377 -0.9568
69433SOL     OW26290   0.389  10.510   6.135  0.3984  0.1913 -0.3904
69433SOL    HW126291   0.474  10.552   6.121 -0.1151  1.5168  0.3831
69433SOL    HW226292   0.331  10.552   6.071 -0.0297  0.3797  0.1208
69434SOL     OW26293  12.169   3.715   7.882  0.7871 -0.0374  0.2698
69434SOL    HW126294  12.241   3.732   7.821  0.6717  0.5721  0.2928
69434SOL    HW226295  12.096   3.768   7.847 -0.4751 -2.5651 -1.2134
69435SOL     OW26296  12.452   5.723   5.751  0.4948 -0.2273 -0.8944
69435SOL    HW126297  12.499   5.787   5.698  1.4856  0.0393  0.2518
69435SOL    HW226298  12.360   5.749   5.744  0.8285  1.0272 -0.8602
69436SOL     OW26299   2.346   2.812  10.754 -0.2714  0.1997  0.0591
69436SOL    HW126300   2.360   2.830  10.661 -1.0866  0.2242 -0.0699
69436SOL    HW226301   2.304   2.892  10.787  0.9852  0.6200  0.6961
69437SOL     OW26302  13.025   1.768  11.644 -0.2786  0.1310  0.0304
69437SOL    HW126303  13.045   1.843  11.699 -0.5681  0.3605 -0.1752
69437SOL    HW226304  13.110   1.734  11.617 -0.1188 -0.2644  0.9989
69438SOL     OW26305   7.277   4.408   9.162  0.0283  0.6223 -0.5665
69438SOL    HW126306   7.275   4.487   9.108  0.6727  1.0232 -0.0206
69438SOL    HW226307   7.365   4.406   9.199 -0.2475  0.0961  0.0913
69439SOL     OW26308   2.015   3.028   9.141 -0.3820 -0.2790  0.4811
69439SOL    HW126309   2.105   2.995   9.142  0.1367  1.0597  2.5878
69439SOL    HW226310   1.995   3.038   9.048  1.8448 -0.0569 -0.0325
69440SOL     OW26311   1.538   4.631  13.780  0.1743 -0.3348 -0.7815
69440SOL    HW126312   1.593   4.638  13.703 -1.3931 -0.6495 -1.9757
69440SOL    HW226313   1.565   4.549  13.822  0.5405 -0.5273 -1.3889
69441SOL     OW26314   2.159   0.081   5.952  1.0000  0.0441 -0.0594
69441SOL    HW126315   2.175   0.028   5.874  0.4413  0.5330 -0.5169
69441SOL    HW226316   2.085   0.038   5.995  1.4471 -0.3527  0.3304
69442SOL     OW26317   2.269  10.696  10.810 -0.0614  0.0969 -0.2801
69442SOL    HW126318   2.219  10.730  10.885 -0.1163  2.1034 -1.1622
69442SOL    HW226319   2.202  10.665  10.749 -0.0804 -0.1848 -0.1178
69443SOL     OW26320   5.101  11.161   3.318  0.5176  0.1800 -0.5359
69443SOL    HW126321   5.148  11.199   3.244  1.3201 -0.6031 -0.4386
69443SOL    HW226322   5.082  11.071   3.292  2.1071 -0.5763  0.7471
69444SOL     OW26323   5.264   9.366  12.285 -0.1327 -0.3714  0.0040
69444SOL    HW126324   5.193   9.430  12.281 -0.2799 -0.5865 -2.0606
69444SOL    HW226325   5.222   9.286  12.317 -0.2935  0.0953  1.0151
69445SOL     OW26326   4.921  10.180   6.785 -0.4122 -0.7987 -0.2296
69445SOL    HW126327   4.854  10.227   6.734  0.3750  1.4488  0.6596
69445SOL    HW226328   4.873  10.138   6.856 -1.0154 -0.1249 -0.2271
69446SOL     OW26329   7.346   7.202  11.509  0.2772  0.2724  0.0051
69446SOL    HW126330   7.293   7.205  11.589  2.3645 -2.8914  1.6881
69446SOL    HW226331   7.296   7.148  11.448 -0.3639  0.9580 -0.0901
69447SOL     OW26332   0.833  12.749  11.324 -0.5990  0.5195  0.4792
69447SOL    HW126333   0.920  12.787  11.332 -0.8850  0.8105  3.0887
69447SOL    HW226334   0.783  12.789  11.395 -2.2313 -1.2652  0.4078
69448SOL     OW26335   5.229   3.673   8.468  0.5202 -0.0934 -0.1581
69448SOL    HW126336   5.223   3.766   8.446  1.2509  0.1451  0.6262
69448SOL    HW226337   5.172   3.662   8.544 -1.3179 -0.7525 -1.5371
69449SOL     OW26338   9.247   0.531   7.591  0.7344 -0.1291  0.6733
69449SOL    HW126339   9.172   0.474   7.575  0.1671  0.5402  0.9071
69449SOL    HW226340   9.287   0.543   7.505  0.2769 -0.0867  0.4637
69450SOL     OW26341   8.361   4.030   2.509 -0.3828 -0.1871  0.2774
69450SOL    HW126342   8.334   3.967   2.443  0.2570  1.1377 -1.3333
69450SOL    HW226343   8.456   4.019   2.515 -0.2029  0.8677 -0.3390
69451SOL     OW26344   8.159   7.260   2.433  0.2685  0.0032 -0.5834
69451SOL    HW126345   8.105   7.279   2.357 -1.0997  0.1045  0.3812
69451SOL    HW226346   8.231   7.324   2.428 -0.5605  0.9231 -1.0422
69452SOL     OW26347   0.258  11.139   7.865 -0.5931 -0.0555  0.2723
69452SOL    HW126348   0.329  11.141   7.928  0.0456  0.1472 -0.4492
69452SOL    HW226349   0.196  11.206   7.896  0.5718  1.3326 -0.3083
69453SOL     OW26350   4.108   0.247   2.001 -0.3028  0.2898  0.6929
69453SOL    HW126351   4.055   0.181   1.955 -1.1840  1.2583  0.2816
69453SOL    HW226352   4.191   0.248   1.954  0.4271 -1.8078  1.8195
69454SOL     OW26353   9.238  12.379  12.883 -0.1037  0.1448 -0.1978
69454SOL    HW126354   9.168  12.400  12.821 -0.6445 -0.7059  0.1191
69454SOL    HW226355   9.230  12.285  12.897  2.3402 -0.3666 -1.6729
69455SOL     OW26356   2.602   7.910   2.486 -0.8856  0.4725 -0.6446
69455SOL    HW126357   2.627   7.818   2.494  1.3831  0.9820 -1.2250
69455SOL    HW226358   2.549   7.913   2.407 -1.4044 -0.3963 -0.3500
69456SOL     OW26359   8.640  10.386   9.718  0.3453  0.6894 -0.1837
69456SOL    HW126360   8.713  10.382   9.656  0.0844  0.6155 -0.4853
69456SOL    HW226361   8.592  10.465   9.694  0.1867  0.6052 -0.1410
69457SOL     OW26362  12.473   3.694  10.739 -0.3205 -0.0449  0.0376
69457SOL    HW126363  12.551   3.692  10.682 -0.9108 -0.3008 -0.7759
69457SOL    HW226364  12.504   3.660  10.823  0.2070 -1.1345 -0.5746
69458SOL     OW26365   8.478  10.719   5.178 -0.3612 -0.8700 -0.1708
69458SOL    HW126366   8.509  10.726   5.088 -0.7516 -2.0552 -0.4091
69458SOL    HW226367   8.393  10.764   5.178 -0.0112 -0.1877 -0.1957
69459SOL     OW26368  11.382   7.427   6.319  0.0031  0.5397  0.4154
69459SOL    HW126369  11.305   7.460   6.275  0.1258 -0.4050 -0.5488
69459SOL    HW226370  11.366   7.443   6.412 -2.3086 -1.5152  0.4460
69460SOL     OW26371   2.924  13.990   9.715  0.2473 -0.3984 -0.1196
69460SOL    HW126372   2.962  14.027   9.795 -0.0526  0.9156 -0.5618
69460SOL    HW226373   2.999  13.961   9.664  0.4259 -1.5838  0.7791
69461SOL     OW26374   2.331   9.410  13.979  0.1976  0.0815 -0.0877
69461SOL    HW126375   2.346   9.452  13.894 -1.4347  0.5532 -0.1772
69461SOL    HW226376   2.417   9.411  14.022  0.5569  2.1069 -0.7233
69462SOL     OW26377   8.619   3.466   7.233 -0.2279 -0.3378 -0.1298
69462SOL    HW126378   8.616   3.394   7.170  0.5856 -1.0316  0.6021
69462SOL    HW226379   8.528   3.479   7.258 -0.6734  0.4746 -1.9951
69463SOL     OW26380   8.924  13.983  12.765 -0.0479  0.3180 -0.4710
69463SOL    HW126381   8.856  13.959  12.701 -0.4580 -0.0639  0.1006
69463SOL    HW226382   8.915  13.918  12.835  1.7697 -0.5555 -0.9870
69464SOL     OW26383   6.792   7.058   9.337 -0.1562  0.5385  1.0543
69464SOL    HW126384   6.883   7.080   9.353 -0.0528  0.3801  0.6947
69464SOL    HW226385   6.749   7.143   9.325 -0.1934  0.6482  1.9057
69465SOL     OW26386  12.613   3.922   6.776 -0.0969 -0.0904  0.1305
69465SOL    HW126387  12.656   3.984   6.835 -0.5799 -1.6399  2.2350
69465SOL    HW226388  12.523   3.953   6.771 -0.0304  0.1036  0.0871
69466SOL     OW26389   2.425  11.406   0.582 -0.2294 -0.2496 -0.3419
69466SOL    HW126390   2.337  11.414   0.619  0.4705 -0.4504  1.4891
69466SOL    HW226391   2.479  11.375   0.655  1.3534 -0.1943 -1.4305
69467SOL     OW26392   9.916   4.148   5.480 -0.0846  0.1411  0.5988
69467SOL    HW126393   9.856   4.216   5.448 -1.0807 -0.8007  0.4163
69467SOL    HW226394   9.860   4.085   5.525  0.5391 -1.4776 -0.7618
69468SOL     OW26395  13.481  13.837   8.424  0.5401  0.3647 -0.7652
69468SOL    HW126396  13.538  13.913   8.414 -0.0043  1.3860  2.7383
69468SOL    HW226397  13.541  13.764   8.438  1.0251  0.8722 -0.1805
69469SOL     OW26398   1.931  11.483   7.962  0.4687 -0.7759  0.4398
69469SOL    HW126399   1.885  11.423   8.020 -1.3938 -0.9779 -1.1209
69469SOL    HW226400   1.863  11.543   7.932  1.1776 -1.0684 -1.9791
69470SOL     OW26401   8.383  12.441   5.107 -0.0672  0.0199  0.2186
69470SOL    HW126402   8.446  12.487   5.051  2.1901 -2.2392  0.6997
69470SOL    HW226403   8.401  12.474   5.195  0.6224 -0.7446  0.3790
69471SOL     OW26404   2.375   4.280   9.115 -0.1902  0.3393 -0.0356
69471SOL    HW126405   2.430   4.284   9.193 -0.3654  0.0614  0.1050
69471SOL    HW226406   2.285   4.275   9.150 -0.1838 -1.7347 -0.2012
69472SOL     OW26407   0.963   0.635   6.395 -0.2321 -0.1707  0.3789
69472SOL    HW126408   0.876   0.670   6.417 -0.5991 -0.7838 -0.0544
69472SOL    HW226409   1.000   0.608   6.479 -0.5802 -0.1675  0.5360
69473SOL     OW26410   4.166   5.121   2.111  0.2762  0.1822 -0.3338
69473SOL    HW126411   4.165   5.174   2.031 -1.3496  0.8573  0.0848
69473SOL    HW226412   4.218   5.171   2.173  0.4444  0.2957 -0.5655
69474SOL     OW26413   1.045   0.530   8.690 -0.1258 -0.3477  0.8496
69474SOL    HW126414   1.030   0.533   8.785  0.3722 -1.9820  1.0126
69474SOL    HW226415   1.029   0.439   8.666 -2.3014  0.4650 -1.0347
69475SOL     OW26416   9.577   5.404   8.493 -0.0225 -0.5243 -0.3611
69475SOL    HW126417   9.500   5.402   8.550 -0.0721 -0.7426 -0.4354
69475SOL    HW226418   9.606   5.313   8.487 -0.7479 -0.6974 -1.6629
69476SOL     OW26419   6.887   9.408  10.395  0.0186  0.0712  0.1187
69476SOL    HW126420   6.797   9.432  10.416  0.2006  0.9003 -0.0091
69476SOL    HW226421   6.940   9.478  10.433  0.4496  0.8636 -1.8592
69477SOL     OW26422   7.510   0.749   5.437 -0.1642  0.2069 -0.4746
69477SOL    HW126423   7.484   0.823   5.382 -1.3594  0.4423  0.3576
69477SOL    HW226424   7.479   0.772   5.524  1.7911 -0.1055  0.3533
69478SOL     OW26425   7.435   0.196  13.037  0.3108  0.7037  0.2515
69478SOL    HW126426   7.434   0.142  12.957  0.9249  0.9981  0.0325
69478SOL    HW226427   7.475   0.139  13.103  0.0738  0.5614  0.2737
69479SOL     OW26428   9.724   9.200   6.785 -0.0224 -0.5944 -0.0483
69479SOL    HW126429   9.783   9.237   6.719  0.3248  0.0483  0.6086
69479SOL    HW226430   9.653   9.160   6.734  0.5040 -0.5685 -0.8200
69480SOL     OW26431   7.000   7.243   6.737 -0.1329 -0.2951  0.3995
69480SOL    HW126432   7.029   7.327   6.771  0.5151 -1.3506  2.6982
69480SOL    HW226433   7.045   7.178   6.792 -0.5274 -2.1603 -1.3251
69481SOL     OW26434   3.791   1.389  14.139  0.3819  0.9253  0.1369
69481SOL    HW126435   3.730   1.460  14.119  0.2166  0.0627 -3.0939
69481SOL    HW226436   3.746   1.335  14.203 -0.5306  2.3919  0.7703
69482SOL     OW26437  12.804  10.290   3.855  0.2662  0.6440  0.3948
69482SOL    HW126438  12.790  10.275   3.948  1.2359 -0.0294  0.4453
69482SOL    HW226439  12.865  10.221   3.828 -1.2203 -0.1446 -1.0970
69483SOL     OW26440  13.671   7.641   1.734 -0.2997 -0.6769  0.4138
69483SOL    HW126441  13.610   7.692   1.788  0.2640  1.3002 -0.7238
69483SOL    HW226442  13.623   7.623   1.653  0.0289 -0.5917  0.1962
69484SOL     OW26443   9.875   3.644   2.328 -0.1329 -0.3146  0.0523
69484SOL    HW126444   9.802   3.698   2.295  1.2081  3.0128  1.9726
69484SOL    HW226445   9.944   3.656   2.263 -0.4510 -1.4023 -0.5023
69485SOL     OW26446  13.905   1.430  11.156  0.2048  0.0026  0.2465
69485SOL    HW126447  13.855   1.493  11.104  1.2267 -0.3373 -1.2020
69485SOL    HW226448  13.880   1.344  11.121  0.6794 -0.2607  0.5346
69486SOL     OW26449  11.012   0.459   4.334  0.3228  0.0226 -0.0729
69486SOL    HW126450  11.053   0.540   4.364  1.5900 -0.6324  0.0222
69486SOL    HW226451  10.964   0.485   4.255  1.2983  0.7253 -0.4549
69487SOL     OW26452   1.387  11.930  11.015 -0.8939 -0.5901  0.3656
69487SOL    HW126453   1.333  11.852  11.031  0.1564 -1.2469  0.7601
69487SOL    HW226454   1.459  11.923  11.076 -0.5278  0.4698  0.0851
69488SOL     OW26455  11.412  11.364  10.311  0.3524  0.3150 -0.0413
69488SOL    HW126456  11.451  11.276  10.312 -0.8799 -0.3321 -2.3972
69488SOL    HW226457  11.488  11.423  10.310  1.2489 -0.7977 -0.5939
69489SOL     OW26458   6.624  13.046  14.006  0.0908  0.7067 -0.3066
69489SOL    HW126459   6.626  12.954  14.032 -0.9694  0.3167 -1.4728
69489SOL    HW226460   6.537  13.058  13.968  0.8631  1.7047 -1.8733
69490SOL     OW26461   0.482   7.988   6.511 -0.4401 -0.1028  0.5173
69490SOL    HW126462   0.397   8.017   6.477 -0.9313  0.0025  1.7759
69490SOL    HW226463   0.534   8.068   6.517 -0.5629 -0.0294  0.5987
69491SOL     OW26464   0.992   1.763   7.607 -0.0337 -0.2902 -0.6115
69491SOL    HW126465   0.937   1.688   7.585  0.1119  0.2215 -3.0106
69491SOL    HW226466   0.930   1.834   7.622 -0.1134 -0.4860  0.0161
69492SOL     OW26467  12.558   2.297   8.667  0.5702  0.5466 -0.4478
69492SOL    HW126468  12.628   2.355   8.640  0.0861  1.8082  0.8997
69492SOL    HW226469  12.600   2.235   8.727  0.6868  0.7862 -0.2827
69493SOL     OW26470  11.105   3.747   1.101 -1.0980  0.4192  0.5149
69493SOL    HW126471  11.138   3.667   1.142  0.6988 -0.5913 -2.5982
69493SOL    HW226472  11.183   3.801   1.087 -1.8534  1.3503 -0.2425
69494SOL     OW26473   7.649  11.256   9.697  0.2203  0.0931  0.0409
69494SOL    HW126474   7.651  11.349   9.676 -0.4270  0.2678  0.7143
69494SOL    HW226475   7.710  11.216   9.635  0.1513  0.9014 -0.5663
69495SOL     OW26476   4.469   0.825  10.516 -0.0267  0.0947 -0.1818
69495SOL    HW126477   4.429   0.912  10.507  2.1764  1.0934 -1.2675
69495SOL    HW226478   4.527   0.833  10.592 -2.1970 -1.5265  1.7779
69496SOL     OW26479   6.205   4.751   0.679 -0.4495 -0.0006  0.3154
69496SOL    HW126480   6.165   4.788   0.757 -0.1407  0.4170  0.2776
69496SOL    HW226481   6.242   4.826   0.633 -1.9147 -0.0451 -1.0016
69497SOL     OW26482   4.538  10.449   4.765 -0.1264  0.5291  0.1891
69497SOL    HW126483   4.471  10.445   4.833  1.0754 -1.0891  1.3822
69497SOL    HW226484   4.579  10.362   4.767 -0.4162  0.1877 -3.0634
69498SOL     OW26485   1.654   6.133  11.264 -0.1815  0.0267 -0.1475
69498SOL    HW126486   1.671   6.039  11.259  1.2243  0.2435  0.3821
69498SOL    HW226487   1.580   6.140  11.325  0.7859 -0.6228  1.1450
69499SOL     OW26488  12.596   4.496   5.428  0.2977 -0.3447 -0.2051
69499SOL    HW126489  12.647   4.483   5.347 -1.7769  3.1584 -2.3445
69499SOL    HW226490  12.541   4.418   5.434  1.6956 -1.4691 -1.1761
69500SOL     OW26491   1.824   3.907   7.225 -0.2691 -0.0094 -0.1833
69500SOL    HW126492   1.796   3.995   7.250  1.2714  0.5057 -0.1817
69500SOL    HW226493   1.742   3.858   7.214 -1.1241  0.9843  1.3525
69501SOL     OW26494  12.238  13.531  10.557 -0.0011  0.3746 -0.1534
69501SOL    HW126495  12.320  13.509  10.600 -0.0102 -0.1755 -0.4105
69501SOL    HW226496  12.176  13.545  10.628 -0.2085 -1.2555  0.0191
69502SOL     OW26497  11.694  13.708  10.476 -0.0954  0.4473 -0.1366
69502SOL    HW126498  11.695  13.804  10.472  0.5100  0.4625  0.2519
69502SOL    HW226499  11.669  13.688  10.566 -0.1708  0.2378 -0.2039
69503SOL     OW26500   8.003   6.573  11.990 -0.7099 -0.1382 -0.0944
69503SOL    HW126501   8.098   6.573  12.003 -0.9978  0.4607  2.5280
69503SOL    HW226502   7.992   6.571  11.895  1.9157 -0.1661 -0.4703
69504SOL     OW26503  12.327   2.942   4.108  0.2935 -0.1416 -0.3713
69504SOL    HW126504  12.370   2.915   4.189 -0.3366 -0.0914 -0.0084
69504SOL    HW226505  12.268   2.870   4.087 -2.2118  1.2935  1.2024
69505SOL     OW26506  12.280  10.776   6.321 -0.2485 -0.1232 -0.4237
69505SOL    HW126507  12.196  10.737   6.299  0.2612 -1.6419  0.1946
69505SOL    HW226508  12.327  10.708   6.370  0.5466  1.4086  1.0611
69506SOL     OW26509  12.195  13.336   2.124 -0.4506 -0.4607 -0.4291
69506SOL    HW126510  12.236  13.422   2.123 -1.5455  0.0861 -0.3161
69506SOL    HW226511  12.166  13.323   2.214  0.6963 -1.4617 -0.1737
69507SOL     OW26512   8.588   4.217   0.031  0.1838 -0.5223  0.0657
69507SOL    HW126513   8.503   4.199   0.071 -0.8205  1.3380 -1.1167
69507SOL    HW226514   8.615   4.133  -0.006 -0.5597 -1.4175  1.4550
69508SOL     OW26515   2.268   8.947   0.676  0.3681 -0.2635 -0.1257
69508SOL    HW126516   2.354   8.951   0.634  0.7714 -0.6009  0.6562
69508SOL    HW226517   2.223   9.027   0.646  1.7644  1.0809  1.1895
69509SOL     OW26518   0.936   9.898   5.124 -0.3388  0.1996  0.2306
69509SOL    HW126519   0.875   9.881   5.052 -0.4801 -0.6646  0.5470
69509SOL    HW226520   0.936   9.993   5.133  0.5265  0.4142 -1.6343
69510SOL     OW26521   9.313   7.095   6.513 -0.3949  0.3137 -0.1047
69510SOL    HW126522   9.323   7.187   6.488 -1.9243  0.9626  1.4121
69510SOL    HW226523   9.232   7.094   6.564  0.4414 -1.5724  1.2903
69511SOL     OW26524   4.334  10.759  11.992 -0.4310  0.6469  0.1245
69511SOL    HW126525   4.331  10.687  11.929  0.6737  0.5356  0.1803
69511SOL    HW226526   4.249  10.755  12.037 -1.3638  0.8978 -1.5124
69512SOL     OW26527   6.780   3.147  13.800  0.1944  0.1471 -0.4172
69512SOL    HW126528   6.805   3.089  13.873  0.5645  1.1191  0.2527
69512SOL    HW226529   6.816   3.105  13.722  0.1374 -0.7094  0.0087
69513SOL     OW26530  13.470   9.924   2.476 -0.2422 -0.6863  0.2344
69513SOL    HW126531  13.527   9.997   2.453 -1.6469  0.1782 -0.6358
69513SOL    HW226532  13.506   9.891   2.558  1.6709 -0.3841 -0.4335
69514SOL     OW26533   7.552   9.592  14.087 -0.7914 -0.2260 -0.2322
69514SOL    HW126534   7.512   9.514  14.124  0.8211 -1.3123 -0.6676
69514SOL    HW226535   7.543   9.581  13.993 -1.6845  0.7670 -0.2798
69515SOL     OW26536   3.448  13.594   4.608  0.1401 -0.0036 -0.0541
69515SOL    HW126537   3.401  13.640   4.677 -0.1303 -0.6369  0.1984
69515SOL    HW226538   3.520  13.549   4.653  0.7363  0.6203 -0.3774
69516SOL     OW26539  12.652  11.900  11.900  0.0495  0.0816  0.3601
69516SOL    HW126540  12.694  11.889  11.985 -0.3879  2.4962  0.9717
69516SOL    HW226541  12.725  11.914  11.839  0.3139 -0.4578  0.5493
69517SOL     OW26542   7.872   0.067   7.446 -0.0612  0.7055 -0.3209
69517SOL    HW126543   7.857   0.089   7.538 -0.0123  0.4717 -0.2569
69517SOL    HW226544   7.789   0.027   7.418  0.6933 -1.3596  0.2632
69518SOL     OW26545  13.350   7.017   1.516  0.0753  0.2182  0.6061
69518SOL    HW126546  13.421   7.039   1.456 -0.1139  1.6164  0.8445
69518SOL    HW226547  13.280   6.984   1.460  0.0230  1.1954  0.0685
69519SOL     OW26548  11.013  11.636   0.815  0.4368 -0.2506 -0.3579
69519SOL    HW126549  10.922  11.657   0.836 -0.4682 -3.0089 -1.1931
69519SOL    HW226550  11.048  11.718   0.779 -1.4006  1.1451  0.8395
69520SOL     OW26551  14.107   1.816  13.933  0.5614 -0.4195 -0.3195
69520SOL    HW126552  14.094   1.882  13.866  3.0820  0.9778  0.4357
69520SOL    HW226553  14.019   1.794  13.963 -0.4183  1.3979 -1.7086
69521SOL     OW26554   1.304   0.368   0.264  0.0261  0.3933 -0.4318
69521SOL    HW126555   1.288   0.277   0.241  0.3602  0.4378 -0.8494
69521SOL    HW226556   1.241   0.418   0.211 -2.5674  0.2482  2.2376
69522SOL     OW26557  10.463   1.732  10.842  0.4078 -0.8871 -0.3369
69522SOL    HW126558  10.508   1.786  10.906  0.3093  0.8553 -1.6816
69522SOL    HW226559  10.439   1.653  10.890 -1.3765  1.1193  2.3339
69523SOL     OW26560   6.215  10.034   3.451  0.4562 -0.1071 -0.4734
69523SOL    HW126561   6.198   9.970   3.382 -0.8738 -0.3438  0.0316
69523SOL    HW226562   6.163  10.110   3.427  0.2365 -0.0716  0.0860
69524SOL     OW26563   2.143  11.017   5.254 -0.1962  0.3646 -0.0920
69524SOL    HW126564   2.228  11.019   5.211  0.3030 -2.9209  0.5215
69524SOL    HW226565   2.139  11.098   5.304  2.8618  0.3249  0.3662
69525SOL     OW26566  11.292  10.958   6.270 -0.1581 -0.0794 -0.0705
69525SOL    HW126567  11.336  11.004   6.342 -0.6727 -0.7283  0.6810
69525SOL    HW226568  11.348  10.972   6.194  0.4753  0.5039  0.4920
69526SOL     OW26569   9.755  12.931   2.170 -0.1351  0.2658  0.2708
69526SOL    HW126570   9.667  12.894   2.156 -0.3195  0.7167  0.2187
69526SOL    HW226571   9.739  13.012   2.218  0.3104 -0.0034  0.8885
69527SOL     OW26572   8.453  12.665   0.807 -0.2945  0.0736  0.0541
69527SOL    HW126573   8.474  12.576   0.779 -1.0428 -0.2352  0.4473
69527SOL    HW226574   8.383  12.694   0.748 -1.5937 -0.4302  1.3029
69528SOL     OW26575  12.365   3.726   1.550  0.3960 -0.0321 -0.0998
69528SOL    HW126576  12.310   3.734   1.472 -0.4886 -0.2095  0.4952
69528SOL    HW226577  12.455   3.722   1.515 -0.0927 -3.0830 -1.3413
69529SOL     OW26578   7.137   9.107   3.605  0.0192  0.0207 -0.2193
69529SOL    HW126579   7.159   9.198   3.621  2.6901 -0.5854  0.0181
69529SOL    HW226580   7.104   9.075   3.689  2.5729 -0.0885  0.8327
69530SOL     OW26581   8.246   7.534   6.422 -0.4032  0.0556  0.1965
69530SOL    HW126582   8.173   7.475   6.441  0.4958 -1.3242 -0.4773
69530SOL    HW226583   8.324   7.481   6.437  0.4575  1.3710  0.4776
69531SOL     OW26584   9.628   6.801  10.428 -0.0649 -0.3021 -0.3459
69531SOL    HW126585   9.714   6.831  10.457 -0.2230  3.1511 -2.7967
69531SOL    HW226586   9.566   6.840  10.490  0.0110  0.1367 -0.5381
69532SOL     OW26587   0.055  13.736   2.972 -0.2784 -0.1612  0.4504
69532SOL    HW126588   0.077  13.653   2.929  0.3549  0.7985 -1.1741
69532SOL    HW226589   0.137  13.765   3.012 -0.0347  0.5103 -0.4976
69533SOL     OW26590  11.968  10.979   2.614  0.0927  0.0557  0.4154
69533SOL    HW126591  11.918  10.902   2.587  1.0152 -0.2487 -0.4992
69533SOL    HW226592  11.915  11.021   2.682 -1.3617 -0.2848 -0.4912
69534SOL     OW26593   2.587   2.794  12.180 -0.1875 -0.3700 -0.1001
69534SOL    HW126594   2.555   2.797  12.271 -1.9740 -1.2416 -0.6506
69534SOL    HW226595   2.547   2.715  12.144  1.7479 -0.8749 -1.2273
69535SOL     OW26596   8.430   7.205  12.173 -0.3332 -0.2309 -0.1295
69535SOL    HW126597   8.492   7.228  12.242  0.1716  0.8625 -0.9050
69535SOL    HW226598   8.463   7.251  12.096 -0.8126 -1.5174 -1.1358
69536SOL     OW26599   2.417   7.369   2.978 -0.2124  0.2844 -0.3323
69536SOL    HW126600   2.440   7.279   3.001 -0.4308 -0.3125 -2.2723
69536SOL    HW226601   2.339   7.361   2.923  0.7145  1.4948 -1.9285
69537SOL     OW26602   7.233   9.020   7.823  0.4276  0.3969  0.3346
69537SOL    HW126603   7.283   8.959   7.767  0.1732 -0.0961  0.6341
69537SOL    HW226604   7.283   9.023   7.905  0.1277  0.1375  0.5270
69538SOL     OW26605   8.452   6.834   5.161  0.1509  0.0761 -0.5961
69538SOL    HW126606   8.512   6.797   5.226  0.3354  0.7074 -0.4017
69538SOL    HW226607   8.502   6.834   5.080  0.3154  0.3445 -0.4943
69539SOL     OW26608  12.469   5.596   8.763  0.0634 -0.0665  0.8773
69539SOL    HW126609  12.387   5.548   8.763  0.7552 -1.3944 -1.4544
69539SOL    HW226610  12.449   5.678   8.809 -3.0074  0.3644 -0.9727
69540SOL     OW26611   6.144   1.238  10.274 -0.0530  0.3651  0.3403
69540SOL    HW126612   6.201   1.308  10.307  0.7317  1.0882 -2.3001
69540SOL    HW226613   6.075   1.284  10.227 -1.2136 -0.6054  1.0493
69541SOL     OW26614  10.101   5.764   5.562 -0.1882 -0.0096 -0.4206
69541SOL    HW126615  10.169   5.709   5.601  0.5172  1.1975  0.0880
69541SOL    HW226616  10.040   5.781   5.633 -0.4002 -0.1053 -0.5768
69542SOL     OW26617   1.980   4.611  11.481 -0.3953 -0.2373 -0.0405
69542SOL    HW126618   1.944   4.670  11.546 -0.4089 -0.1423 -0.1349
69542SOL    HW226619   1.907   4.594  11.421  0.2863  1.6963 -1.5017
69543SOL     OW26620  11.165  11.652   6.971  0.5289  0.1890 -0.0308
69543SOL    HW126621  11.259  11.663   6.955  0.9220 -1.6427  0.8114
69543SOL    HW226622  11.147  11.710   7.045  0.8792  0.9180 -0.5022
69544SOL     OW26623   2.556   0.715   3.596 -0.1254 -0.2022 -0.1311
69544SOL    HW126624   2.523   0.630   3.567 -0.7210 -0.0135 -0.0187
69544SOL    HW226625   2.486   0.776   3.575 -1.4101 -0.2971  3.2569
69545SOL     OW26626   8.796   7.435   6.726 -0.2332 -0.2808 -0.1867
69545SOL    HW126627   8.768   7.519   6.763 -2.0166  0.0716 -2.1247
69545SOL    HW226628   8.865   7.459   6.663 -0.8675 -0.2123 -0.8717
69546SOL     OW26629   9.380   3.703   8.015 -0.3005 -0.2253  0.1709
69546SOL    HW126630   9.381   3.710   8.110 -0.8040 -0.2359  0.1778
69546SOL    HW226631   9.424   3.620   7.996 -1.9849 -1.2256  0.4970
69547SOL     OW26632   0.803   0.337  14.112  0.1275 -0.3990 -0.2704
69547SOL    HW126633   0.835   0.395  14.180 -2.3348  1.8525 -0.8824
69547SOL    HW226634   0.723   0.299  14.148  0.8318 -2.2028 -0.5074
69548SOL     OW26635  11.625   0.953   8.125 -0.0007  0.6269  0.2558
69548SOL    HW126636  11.603   0.898   8.050  0.3964  1.5317 -0.5290
69548SOL    HW226637  11.604   1.042   8.098 -1.2446  0.8339  1.7515
69549SOL     OW26638   0.319   9.303  13.288 -0.2987  0.0185 -0.0623
69549SOL    HW126639   0.326   9.207  13.284 -0.2899 -0.0205  0.8214
69549SOL    HW226640   0.269   9.320  13.367  2.4844  0.8485  1.6473
69550SOL     OW26641   2.722   8.834  13.769  0.0456 -0.4165 -0.3811
69550SOL    HW126642   2.782   8.804  13.701 -0.1799 -2.2080  0.1561
69550SOL    HW226643   2.636   8.799  13.743 -0.1519 -0.6137  0.4881
69551SOL     OW26644   1.575   0.221   8.719  0.1043  0.3589  0.0480
69551SOL    HW126645   1.609   0.135   8.693 -1.0127 -0.2760  0.5817
69551SOL    HW226646   1.507   0.241   8.655  0.8105  1.1630 -0.4583
69552SOL     OW26647  13.005   4.251   6.960 -0.2227  0.1338 -0.5973
69552SOL    HW126648  13.004   4.322   7.024  1.5689 -0.3138 -0.0249
69552SOL    HW226649  12.914   4.222   6.956 -0.5926  1.0015  0.8164
69553SOL     OW26650  14.053  12.652  10.147  0.4091  0.4054 -0.5039
69553SOL    HW126651  14.075  12.734  10.101  1.0492  0.2277 -0.5234
69553SOL    HW226652  14.090  12.664  10.235 -1.2746  0.9672  0.1770
69554SOL     OW26653   4.516   0.827  12.910  0.3636  0.2201 -0.0250
69554SOL    HW126654   4.521   0.731  12.907  2.4669  0.0364  3.3309
69554SOL    HW226655   4.606   0.856  12.893  0.4097  1.3318  1.7978
69555SOL     OW26656  10.126   5.412   5.547 -0.1417 -0.2549  0.1675
69555SOL    HW126657  10.152   5.339   5.603 -2.4725 -0.1616  1.4717
69555SOL    HW226658  10.185   5.484   5.573 -0.4232 -0.5448  1.7296
69556SOL     OW26659   8.871   0.912   9.995 -0.2879 -0.0545  0.5856
69556SOL    HW126660   8.938   0.979  10.010  0.0108 -0.2345  0.0615
69556SOL    HW226661   8.810   0.923  10.068 -0.2116  0.7476  0.5399
69557SOL     OW26662  10.462   5.876   4.413  0.1986 -0.1339  0.1291
69557SOL    HW126663  10.389   5.813   4.412  0.5817 -0.6198  1.2230
69557SOL    HW226664  10.490   5.878   4.504  1.1953  0.4751 -0.1822
69558SOL     OW26665  12.342   4.643   3.444  0.7447  0.7280  0.3458
69558SOL    HW126666  12.401   4.695   3.389  1.3926 -1.8943 -1.6682
69558SOL    HW226667  12.273   4.704   3.470  1.8375  2.7562 -1.2074
69559SOL     OW26668   9.318   0.212   3.582 -0.3837  0.5113 -0.4864
69559SOL    HW126669   9.274   0.263   3.515  0.2520  0.4744 -0.9429
69559SOL    HW226670   9.250   0.155   3.618 -0.4708 -0.3774 -1.9896
69560SOL     OW26671   9.738  10.476   7.523 -0.6940  0.0909 -0.4240
69560SOL    HW126672   9.753  10.445   7.612 -4.1507  1.1419  0.6725
69560SOL    HW226673   9.817  10.526   7.501  0.4907 -0.6937  1.7892
69561SOL     OW26674   8.228  10.458   0.032  0.1776  0.2383  0.0567
69561SOL    HW126675   8.287  10.431  -0.039  0.3623 -0.3966  0.4360
69561SOL    HW226676   8.249  10.397   0.104 -0.7140  0.2191  0.3064
69562SOL     OW26677  12.891   3.320   4.022 -0.5101  0.3764  0.1788
69562SOL    HW126678  12.809   3.289   3.983 -0.5918  0.3113  0.3992
69562SOL    HW226679  12.863   3.369   4.100 -0.3576  0.6248  0.0753
69563SOL     OW26680   2.225  12.062  12.290 -0.1761  0.4003 -0.1261
69563SOL    HW126681   2.140  12.086  12.327 -1.0660 -2.8399  0.2290
69563SOL    HW226682   2.236  11.970  12.313  3.1456  0.4977 -0.7913
69564SOL     OW26683   6.919   9.424   7.323 -0.1667  0.1829  0.0571
69564SOL    HW126684   7.005   9.444   7.360 -0.8667  1.4920  1.0595
69564SOL    HW226685   6.902   9.334   7.352  1.3763 -0.6015 -1.2543
69565SOL     OW26686   9.408   5.074  14.077  0.3747 -0.1761  0.6392
69565SOL    HW126687   9.449   5.152  14.113  0.0416  1.7517 -2.6714
69565SOL    HW226688   9.323   5.069  14.120  0.1139  1.7766  0.4393
69566SOL     OW26689   3.305  11.806  13.991  0.2860 -0.9604 -0.0255
69566SOL    HW126690   3.385  11.858  14.000 -0.4914  0.0164  1.6990
69566SOL    HW226691   3.335  11.715  13.985  1.5846 -0.4860 -1.3095
69567SOL     OW26692   3.337   4.889  13.135 -0.6499  0.3984  0.1405
69567SOL    HW126693   3.316   4.796  13.138 -0.7042  0.3583 -1.0423
69567SOL    HW226694   3.430   4.892  13.113 -0.7876  0.6178 -0.4328
69568SOL     OW26695   2.079   4.796   2.800  0.3435  0.1734 -0.1093
69568SOL    HW126696   2.071   4.710   2.841 -1.1140  0.9452  1.3111
69568SOL    HW226697   2.065   4.779   2.706 -1.3457 -0.9647  0.3080
69569SOL     OW26698   7.679   0.949   7.209 -0.4763 -0.3141 -0.1124
69569SOL    HW126699   7.654   0.864   7.173  0.1964  0.2646 -2.0789
69569SOL    HW226700   7.604   1.006   7.190 -0.6338 -0.2982  0.5521
69570SOL     OW26701   0.674   7.190   3.440  0.0347  0.2313 -0.0462
69570SOL    HW126702   0.647   7.245   3.367 -0.1065  0.3181  0.0724
69570SOL    HW226703   0.593   7.155   3.476  0.1908 -0.9742 -0.8340
69571SOL     OW26704   4.311  11.823  10.030  0.5365  0.3341 -0.5477
69571SOL    HW126705   4.399  11.785  10.026  0.3994  0.0187 -0.6620
69571SOL    HW226706   4.256  11.753  10.066  0.6478  1.1379  1.2439
69572SOL     OW26707  13.508   5.181   8.273 -0.7009 -0.6068  0.3198
69572SOL    HW126708  13.584   5.125   8.262  1.5631  2.0640  1.1025
69572SOL    HW226709  13.456   5.139   8.341  0.3599 -2.2085  0.1854
69573SOL     OW26710   8.532   8.508   0.932  0.0715 -0.0011  0.0467
69573SOL    HW126711   8.529   8.563   1.010 -1.0919  0.3606 -0.2252
69573SOL    HW226712   8.625   8.492   0.917  0.2977 -0.3906  1.7037
69574SOL     OW26713   8.641   9.401  11.656 -0.1678  0.1065 -0.0665
69574SOL    HW126714   8.606   9.321  11.693  0.1750 -0.2387 -0.4810
69574SOL    HW226715   8.681   9.374  11.574 -0.3965  0.7663 -0.4021
69575SOL     OW26716  13.547   5.125   2.978  0.2639 -0.1870 -0.9311
69575SOL    HW126717  13.534   5.220   2.968  0.0429 -0.1466 -0.3338
69575SOL    HW226718  13.586   5.116   3.065 -1.9607 -0.8149  0.0632
69576SOL     OW26719  13.209   9.414   6.109  0.1873  0.0750  0.3085
69576SOL    HW126720  13.119   9.443   6.091 -0.3475 -0.9055  1.2781
69576SOL    HW226721  13.251   9.491   6.147 -0.1879  0.5874 -0.2775
69577SOL     OW26722   9.488   7.024  11.471  0.3811  0.5523 -0.5144
69577SOL    HW126723   9.442   6.941  11.455 -1.8661  1.3649  1.2076
69577SOL    HW226724   9.522   7.015  11.561  0.0930  1.4968 -0.3079
69578SOL     OW26725  10.460  13.153   5.851  0.4993  0.0616 -0.5936
69578SOL    HW126726  10.522  13.096   5.897  1.1546 -1.4631 -3.1540
69578SOL    HW226727  10.378  13.104   5.850 -0.2825  1.2215  1.0635
69579SOL     OW26728   3.169  10.848   8.494  0.9055  0.3230 -0.0628
69579SOL    HW126729   3.081  10.861   8.530  0.2143  0.0295 -1.5564
69579SOL    HW226730   3.184  10.753   8.499  0.3744  0.1419 -1.4183
69580SOL     OW26731   9.721  12.731   8.979  0.0664 -0.2258  0.0198
69580SOL    HW126732   9.813  12.759   8.983  0.2966 -0.4930 -2.3747
69580SOL    HW226733   9.676  12.803   8.935 -1.3187  0.7313  2.7047
69581SOL     OW26734   9.284  10.459   6.357 -0.1917 -0.2085  0.2577
69581SOL    HW126735   9.267  10.392   6.423 -1.8824  1.1799  1.3263
69581SOL    HW226736   9.338  10.524   6.403  0.1612 -0.1066 -0.2982
69582SOL     OW26737  10.176   3.017  11.555  0.1718 -0.2341 -0.2566
69582SOL    HW126738  10.105   3.032  11.492 -0.0885  0.1619  0.1293
69582SOL    HW226739  10.157   2.932  11.593 -0.4360  0.1405  0.2877
69583SOL     OW26740   7.333   3.243   0.785  0.6410 -0.2488  0.4840
69583SOL    HW126741   7.369   3.314   0.732  0.9935 -1.0356 -0.3500
69583SOL    HW226742   7.247   3.276   0.813  1.3281  1.0075  1.1844
69584SOL     OW26743   1.355  11.758   7.128 -0.6947 -0.8153  0.3815
69584SOL    HW126744   1.429  11.750   7.187 -0.4780 -0.1868  0.2032
69584SOL    HW226745   1.393  11.780   7.043 -1.1096  0.3098  0.4605
69585SOL     OW26746   6.564   1.436   8.371 -0.4249  0.1915 -0.2883
69585SOL    HW126747   6.491   1.397   8.323 -0.0995  0.0666 -0.6900
69585SOL    HW226748   6.600   1.364   8.423  0.3979 -0.1574 -1.2987
69586SOL     OW26749  14.024   9.918   0.780 -0.0538 -0.3264 -0.3373
69586SOL    HW126750  14.021   9.833   0.737  1.1233  0.0629 -1.2189
69586SOL    HW226751  14.027   9.898   0.874  1.4710 -1.2869 -0.5783
69587SOL     OW26752   8.082  10.512   9.162 -0.1586  0.0714  0.6114
69587SOL    HW126753   8.016  10.471   9.219  0.5083 -0.0212  1.3393
69587SOL    HW226754   8.157  10.527   9.220  0.7352 -0.4876 -0.3712
69588SOL     OW26755   3.789   7.606  11.989 -0.0088  0.5375 -0.0669
69588SOL    HW126756   3.734   7.640  11.919  1.2371  0.8234 -0.9378
69588SOL    HW226757   3.730   7.551  12.042 -0.8119 -0.2949 -1.7576
69589SOL     OW26758   2.531   8.674   7.056  0.1502  0.3100  0.7434
69589SOL    HW126759   2.547   8.670   7.151  0.2870  2.1462  0.8310
69589SOL    HW226760   2.614   8.645   7.017  0.6937  1.2104  1.1979
69590SOL     OW26761  11.697   9.879   9.113 -0.8147 -0.2399  0.1078
69590SOL    HW126762  11.641   9.957   9.111  0.2102  0.5740  1.7257
69590SOL    HW226763  11.761   9.894   9.043 -1.0326  0.0404 -0.0347
69591SOL     OW26764   8.981  10.919   0.888  0.5521  0.4845 -0.1729
69591SOL    HW126765   8.948  10.830   0.872  0.4485  0.6336 -0.7889
69591SOL    HW226766   8.904  10.968   0.916  0.2719  0.7779 -1.3999
69592SOL     OW26767   3.170   7.782   4.056 -0.0577  0.1399 -0.0844
69592SOL    HW126768   3.124   7.830   4.125  0.2628  1.1346 -0.5486
69592SOL    HW226769   3.101   7.732   4.011 -0.7361  1.6920 -0.8364
69593SOL     OW26770   9.041   6.857  10.219  0.0377 -0.0543 -0.4133
69593SOL    HW126771   9.067   6.799  10.291  0.7569 -0.2441 -0.8208
69593SOL    HW226772   8.984   6.922  10.260 -0.5375 -0.8590  0.1121
69594SOL     OW26773   0.017   1.527   9.789  0.1380  0.2956 -0.3610
69594SOL    HW126774   0.083   1.473   9.746 -0.7822 -1.5738  0.4701
69594SOL    HW226775   0.067   1.600   9.827  1.7151 -1.0019  0.1565
69595SOL     OW26776   2.687   0.119   7.450  0.0804  0.4145  0.3387
69595SOL    HW126777   2.593   0.114   7.464  0.1268  1.2913  1.0489
69595SOL    HW226778   2.725   0.101   7.536  0.6045 -0.8828 -0.1380
69596SOL     OW26779  11.507  13.647  14.115 -0.3823 -0.4096  0.2320
69596SOL    HW126780  11.486  13.694  14.034 -1.0858 -0.1243  0.5738
69596SOL    HW226781  11.577  13.697  14.154 -0.1151 -0.4846 -0.1417
69597SOL     OW26782   9.564   6.034   4.124 -0.0003  0.2418 -0.4633
69597SOL    HW126783   9.490   5.994   4.078  0.9772 -1.2924 -0.7265
69597SOL    HW226784   9.642   6.000   4.080  0.8961  1.6847 -0.0644
69598SOL     OW26785  13.539  10.677   3.027 -0.2325 -0.1632 -0.0563
69598SOL    HW126786  13.462  10.620   3.019  0.6666 -1.4367  0.1737
69598SOL    HW226787  13.611  10.625   2.992  0.7946  0.4323  1.1040
69599SOL     OW26788   3.376  12.308  11.621  0.3178  0.4038 -0.1047
69599SOL    HW126789   3.345  12.230  11.575  1.0882 -0.3976  0.6790
69599SOL    HW226790   3.463  12.325  11.583  0.6010  0.2335  0.4537
69600SOL     OW26791  11.315   0.514  10.950 -0.3286 -0.4957 -0.5451
69600SOL    HW126792  11.314   0.566  11.030 -0.9130 -2.1145  0.5663
69600SOL    HW226793  11.298   0.577  10.879  1.3544  1.1639  0.4477
69601SOL     OW26794  13.952  11.564   6.295 -0.1255 -0.0398  0.2794
69601SOL    HW126795  13.981  11.478   6.325 -1.8113 -1.1215 -1.0191
69601SOL    HW226796  13.857  11.557   6.289 -0.4104  2.2665  1.0992
69602SOL     OW26797   9.608   1.271   8.014  0.5097  0.6890 -0.1986
69602SOL    HW126798   9.606   1.304   7.924 -2.5533  0.0684 -0.4653
69602SOL    HW226799   9.600   1.176   8.005  2.7293  0.3645  0.7230
69603SOL     OW26800   3.566   0.970   8.830 -0.4722 -0.0989  0.1774
69603SOL    HW126801   3.499   1.037   8.824 -1.1612 -0.7278  0.6081
69603SOL    HW226802   3.518   0.889   8.848  0.3280 -0.7310 -0.4175
69604SOL     OW26803   7.400   6.361   1.042  0.1229 -0.1017  0.1366
69604SOL    HW126804   7.452   6.306   0.984 -0.5380 -0.3153 -0.2658
69604SOL    HW226805   7.449   6.363   1.124  0.8191 -0.2010 -0.2715
69605SOL     OW26806   1.582  10.776   5.589  0.0750  0.1417 -0.0264
69605SOL    HW126807   1.622  10.859   5.565 -1.0334  1.2725  1.7902
69605SOL    HW226808   1.527  10.753   5.514 -0.6548  1.7907 -0.0440
69606SOL     OW26809  12.539   2.231   4.470  0.0784 -0.1189  0.3656
69606SOL    HW126810  12.506   2.259   4.385  1.7247 -1.8277 -0.9229
69606SOL    HW226811  12.462   2.207   4.520 -0.8140 -1.4049 -1.5352
69607SOL     OW26812  10.114   8.339   8.975 -0.3607 -0.2610  0.0721
69607SOL    HW126813  10.197   8.293   8.964 -0.2521 -0.0301 -0.0873
69607SOL    HW226814  10.075   8.338   8.888 -0.5040 -0.3316  0.1380
69608SOL     OW26815   2.090   9.504   2.450 -0.0130  0.4874 -0.0457
69608SOL    HW126816   2.065   9.558   2.374  0.5245  0.0476 -0.5437
69608SOL    HW226817   2.100   9.567   2.521 -0.6733  0.8913 -0.2916
69609SOL     OW26818  12.509   0.666  13.876 -0.5202  0.0058 -1.0458
69609SOL    HW126819  12.570   0.594  13.891 -0.5776  0.4950  2.0779
69609SOL    HW226820  12.564   0.743  13.868 -0.6089  0.0488 -1.2624
69610SOL     OW26821   0.667  11.291   1.295 -0.0661  0.0536  0.5831
69610SOL    HW126822   0.703  11.208   1.326 -1.4329  0.2375  2.8734
69610SOL    HW226823   0.651  11.276   1.201 -0.9666 -2.5605  1.0561
69611SOL     OW26824   8.148   3.742   6.971  0.8047 -0.0309 -1.1956
69611SOL    HW126825   8.158   3.721   6.878  2.4081  0.1985 -1.1046
69611SOL    HW226826   8.220   3.696   7.014 -1.0225 -1.7035  0.2247
69612SOL     OW26827   8.163   8.767   6.687 -0.4106  0.4363  0.0745
69612SOL    HW126828   8.233   8.823   6.719 -0.0748  0.4190 -0.6293
69612SOL    HW226829   8.186   8.679   6.718 -1.7727  0.8521  2.6267
69613SOL     OW26830  11.639   0.071  10.806  0.2129 -0.0975 -0.4627
69613SOL    HW126831  11.600   0.063  10.719  1.2065  2.1428 -1.2003
69613SOL    HW226832  11.699   0.145  10.798 -0.8157  1.2058  2.5359
69614SOL     OW26833   7.008  12.941   1.889 -0.0842  0.0877  0.4469
69614SOL    HW126834   6.933  12.882   1.896  0.7701 -1.0021  0.8025
69614SOL    HW226835   7.016  12.981   1.975 -0.2747  0.2289  0.3990
69615SOL     OW26836   3.801   2.943   9.851 -0.1804  0.2322 -0.2877
69615SOL    HW126837   3.769   2.982   9.933  0.3158 -0.5448  0.2942
69615SOL    HW226838   3.895   2.936   9.864 -0.0337  0.5810 -1.1465
69616SOL     OW26839   0.277  10.829   3.595 -0.1860  0.1507 -0.0476
69616SOL    HW126840   0.226  10.749   3.611  1.9800 -1.1192  1.0293
69616SOL    HW226841   0.327  10.810   3.516  1.1087 -0.0104  0.7838
69617SOL     OW26842  10.122  13.292   9.560  0.1432  0.2386 -0.5216
69617SOL    HW126843  10.201  13.261   9.606  0.8416  1.6920 -0.6922
69617SOL    HW226844  10.115  13.384   9.585 -2.7458 -0.3297  1.2116
69618SOL     OW26845   2.465   2.957  10.099 -0.1980  0.1744 -0.3206
69618SOL    HW126846   2.450   2.877  10.050  2.1291 -1.1515  0.9858
69618SOL    HW226847   2.560   2.965  10.105 -0.3803  1.5865  1.8629
69619SOL     OW26848   7.727  10.214  11.896  0.2513 -0.5671 -0.3091
69619SOL    HW126849   7.675  10.255  11.965 -0.0453 -1.8750  0.2674
69619SOL    HW226850   7.752  10.287  11.839  0.4448  0.5504  1.1235
69620SOL     OW26851  13.536   6.144  12.453  0.4727  0.3919 -1.1294
69620SOL    HW126852  13.566   6.222  12.499 -0.2617 -0.3039  0.6297
69620SOL    HW226853  13.444   6.162  12.432  0.2103 -0.0938 -0.4388
69621SOL     OW26854   3.986  11.985   2.433 -0.7153  0.0491 -0.7220
69621SOL    HW126855   4.053  12.053   2.428 -0.4472  0.0893  2.1231
69621SOL    HW226856   4.036  11.904   2.442 -1.0695 -0.1866 -0.8497
69622SOL     OW26857   4.698   1.704   1.358  0.0522  0.1138  0.4104
69622SOL    HW126858   4.783   1.662   1.367  0.7514  1.2055 -0.7532
69622SOL    HW226859   4.689   1.722   1.265 -0.8292  1.2789  0.6858
69623SOL     OW26860   3.936   1.864   0.096  0.5664 -0.1318  0.2775
69623SOL    HW126861   3.999   1.848   0.025  1.1260  0.5880  0.6041
69623SOL    HW226862   3.874   1.791   0.089 -0.2228  0.6706 -1.8437
69624SOL     OW26863   9.160  12.793   8.161  0.1280  0.3509  0.0602
69624SOL    HW126864   9.130  12.711   8.198 -0.6220 -0.2657 -1.7917
69624SOL    HW226865   9.081  12.837   8.130  0.5939  1.4050  0.3051
69625SOL     OW26866   6.018   5.933   1.718  0.2804  0.2677 -0.0412
69625SOL    HW126867   6.098   5.917   1.768  0.7647  0.2781 -0.7929
69625SOL    HW226868   6.048   5.978   1.639 -0.5276  0.6913 -0.1160
69626SOL     OW26869   8.327   4.380   1.729 -0.3992 -0.3725  0.0146
69626SOL    HW126870   8.257   4.342   1.782 -0.5591 -0.0737  0.0213
69626SOL    HW226871   8.316   4.475   1.739 -0.2221 -0.3192 -0.2814
69627SOL     OW26872   7.987   9.487   3.764  0.1355 -0.1946  0.3384
69627SOL    HW126873   8.071   9.531   3.748 -0.6070  1.1438 -0.0275
69627SOL    HW226874   7.975   9.430   3.688  1.1671 -1.1691  0.8720
69628SOL     OW26875   4.079  12.906  10.434 -0.0106 -0.1450 -0.0840
69628SOL    HW126876   4.161  12.936  10.394  1.2557 -2.0146  0.9615
69628SOL    HW226877   4.072  12.957  10.515 -1.7327  2.4531 -1.6950
69629SOL     OW26878   5.358   8.931   3.290 -0.0487  0.5207 -0.0771
69629SOL    HW126879   5.308   8.879   3.228 -2.6471  1.9121  0.7061
69629SOL    HW226880   5.365   9.017   3.249 -3.4065  2.0367  2.0732
69630SOL     OW26881   4.768  13.592   7.079 -0.4848 -0.1809 -0.3742
69630SOL    HW126882   4.864  13.584   7.080 -0.4530 -0.7846 -2.7047
69630SOL    HW226883   4.739  13.522   7.020 -2.3915 -0.0742  0.3737
69631SOL     OW26884  12.329   4.750   4.115  0.3971  0.7766 -0.1388
69631SOL    HW126885  12.369   4.763   4.201  0.9818 -2.1049  0.1236
69631SOL    HW226886  12.403   4.747   4.054  0.2506 -0.3398 -0.2711
69632SOL     OW26887   2.502   8.156   7.521  0.7441 -0.2297  0.8567
69632SOL    HW126888   2.517   8.214   7.595 -0.9390  1.2769  0.0887
69632SOL    HW226889   2.411   8.127   7.530  0.4721  0.0426 -0.6064
69633SOL     OW26890   4.014  12.834  14.151  0.4697  0.1293 -0.5097
69633SOL    HW126891   4.039  12.920  14.116 -2.1726  1.2034  0.0183
69633SOL    HW226892   3.933  12.812  14.105 -1.3221  0.0479  2.4919
69634SOL     OW26893  12.964   6.280   6.305 -0.5368  0.4512 -0.1440
69634SOL    HW126894  13.033   6.309   6.245 -0.0532  0.8439  0.5852
69634SOL    HW226895  13.008   6.269   6.389 -1.3983  0.9286  0.3955
69635SOL     OW26896   9.214   8.794   6.714  0.3510  0.1564 -0.4210
69635SOL    HW126897   9.126   8.826   6.733  0.4046  0.1323 -0.1396
69635SOL    HW226898   9.200   8.709   6.670  0.2704 -0.9134  1.5732
69636SOL     OW26899   5.680   6.445   3.386 -0.6502  0.2390  0.1159
69636SOL    HW126900   5.772   6.440   3.414 -1.1891  0.4060  2.0142
69636SOL    HW226901   5.649   6.355   3.390 -0.2471 -0.0453 -1.8739
69637SOL     OW26902   6.409  12.237   0.843  0.0359  0.4305  0.3630
69637SOL    HW126903   6.491  12.205   0.880  1.0454 -2.2345 -3.6233
69637SOL    HW226904   6.351  12.161   0.843 -1.1607  1.3050 -0.1781
69638SOL     OW26905   4.586  11.293  13.330 -0.1215  0.1423  0.3023
69638SOL    HW126906   4.510  11.346  13.355  1.3518  2.6993 -0.1811
69638SOL    HW226907   4.656  11.358  13.315  2.3622 -2.0862  1.3702
69639SOL     OW26908   6.577   2.862   0.884 -0.7931  0.2286 -0.2038
69639SOL    HW126909   6.522   2.792   0.848 -0.1590  0.7589 -2.4017
69639SOL    HW226910   6.564   2.935   0.823  0.0704  1.3611  0.9330
69640SOL     OW26911  14.044  11.656  10.075 -0.6120  0.0903 -0.3671
69640SOL    HW126912  14.115  11.639  10.136  0.2506 -1.7080 -1.7682
69640SOL    HW226913  13.970  11.681  10.130 -0.0089 -1.8799  1.4842
69641SOL     OW26914  13.384   4.889   9.750  0.4389  0.1294 -0.0971
69641SOL    HW126915  13.326   4.831   9.799 -2.1419  2.2417 -0.3728
69641SOL    HW226916  13.353   4.977   9.772  1.6945  1.2733 -2.5151
69642SOL     OW26917  10.327   6.170   3.820  0.2907 -0.1071  0.4833
69642SOL    HW126918  10.340   6.174   3.725 -0.4407  2.5341  0.3959
69642SOL    HW226919  10.232   6.174   3.831  0.3431 -0.9162  1.3488
69643SOL     OW26920   7.349   6.995  13.724  0.0785 -0.1780 -0.1652
69643SOL    HW126921   7.305   6.912  13.743 -0.7361  0.1973 -0.3829
69643SOL    HW226922   7.413   7.003  13.794 -0.1667 -0.7575  0.1403
69644SOL     OW26923  12.222  13.423   8.601 -0.1093  0.1575  0.4127
69644SOL    HW126924  12.174  13.421   8.518  0.1683 -2.8596  0.2052
69644SOL    HW226925  12.156  13.401   8.667  0.2120 -0.2937  0.5938
69645SOL     OW26926   2.676  12.481   0.728 -0.1372  0.3533  0.2006
69645SOL    HW126927   2.736  12.551   0.753 -0.4573  0.4969  0.5891
69645SOL    HW226928   2.591  12.510   0.762 -0.5409  0.4462 -0.8594
69646SOL     OW26929   2.718   2.884  10.499  0.4870 -0.1585 -0.0216
69646SOL    HW126930   2.802   2.873  10.455  0.3672 -0.7062 -0.1258
69646SOL    HW226931   2.717   2.817  10.567 -0.0605 -0.4865 -0.3379
69647SOL     OW26932   4.095   9.907   5.744  0.5293 -0.1906 -0.3501
69647SOL    HW126933   4.120   9.828   5.792  0.1667  0.1735  0.4558
69647SOL    HW226934   4.088   9.974   5.811 -0.1281  0.3003 -0.9032
69648SOL     OW26935   8.584   4.019   6.583  0.7010  0.0419 -0.1882
69648SOL    HW126936   8.579   4.114   6.587  1.0985  0.1186 -1.2549
69648SOL    HW226937   8.660   3.996   6.637  1.7045  0.4764 -1.3773
69649SOL     OW26938   8.505   8.556   8.885  0.0697  0.3204 -0.5287
69649SOL    HW126939   8.474   8.625   8.945  1.4726  0.6434 -0.1332
69649SOL    HW226940   8.425   8.517   8.850 -0.7749  0.7509  0.8470
69650SOL     OW26941   1.683   8.966  12.678  0.0856 -0.5452  0.0293
69650SOL    HW126942   1.613   8.919  12.632 -0.2340  0.7629 -0.9043
69650SOL    HW226943   1.736   9.004  12.607  0.1901  0.6846  0.7528
69651SOL     OW26944   0.391  13.443   1.991 -0.2178 -0.3652  0.0726
69651SOL    HW126945   0.362  13.462   1.902 -1.3114 -0.2254  0.4541
69651SOL    HW226946   0.375  13.523   2.040  0.3331 -0.4591  0.4204
69652SOL     OW26947  11.448   5.998   0.651  0.2112 -0.3421  0.3313
69652SOL    HW126948  11.401   5.919   0.679  0.0352 -0.1364  0.6100
69652SOL    HW226949  11.448   5.992   0.555  0.8203 -1.0438  0.3633
69653SOL     OW26950  10.953   7.585   6.424  0.0019  0.0062 -0.6709
69653SOL    HW126951  10.964   7.637   6.345 -0.9345 -0.2740 -0.9951
69653SOL    HW226952  10.860   7.562   6.425 -0.4052  1.4092  1.3717
69654SOL     OW26953   6.981  10.740   0.704 -0.0637 -0.4290  0.0279
69654SOL    HW126954   6.994  10.694   0.787  1.2003 -0.6176 -0.2614
69654SOL    HW226955   7.056  10.715   0.651 -1.1019 -0.7052 -1.3678
69655SOL     OW26956   0.740   2.653   6.072  0.2818 -0.2195 -0.1775
69655SOL    HW126957   0.757   2.565   6.040  1.1979  0.9525 -3.1962
69655SOL    HW226958   0.659   2.680   6.029  0.3282  0.6462  0.2430
69656SOL     OW26959  10.905   3.719   6.747  0.2789  0.6708 -0.5218
69656SOL    HW126960  10.829   3.777   6.736  0.8482  1.7654  0.9229
69656SOL    HW226961  10.867   3.637   6.780 -0.4818  0.4050 -1.9917
69657SOL     OW26962   9.571   2.764  12.365  0.3518  0.3452 -0.1819
69657SOL    HW126963   9.597   2.680  12.403 -0.1342 -0.4536 -1.5181
69657SOL    HW226964   9.562   2.823  12.440 -0.4227 -1.0995  0.9266
69658SOL     OW26965   6.529   9.931   7.368 -0.2332 -0.3937 -0.0994
69658SOL    HW126966   6.549  10.023   7.386 -1.7825  0.5116 -2.3899
69658SOL    HW226967   6.474   9.903   7.441 -2.2103  1.5125 -0.7430
69659SOL     OW26968   7.976   2.940   7.137 -0.6594 -0.3307 -0.7587
69659SOL    HW126969   7.961   2.989   7.218  0.6807 -0.4236 -0.4351
69659SOL    HW226970   7.913   2.868   7.141  0.2613 -1.0956  0.8546
69660SOL     OW26971   1.708   2.093   8.570  0.1778  0.7780 -0.4912
69660SOL    HW126972   1.635   2.150   8.547 -1.1956 -0.3754  0.8767
69660SOL    HW226973   1.719   2.037   8.493  0.1568  1.4785 -1.0129
69661SOL     OW26974  12.937   5.302   4.282  0.1970 -0.1071 -0.1691
69661SOL    HW126975  13.004   5.365   4.311 -0.4570 -0.6145  2.7593
69661SOL    HW226976  12.986   5.222   4.263  0.5272 -0.3575  1.5849
69662SOL     OW26977  11.341   7.812   5.262 -0.3124 -0.2573 -0.4834
69662SOL    HW126978  11.389   7.743   5.218 -1.5281 -1.5480  0.1476
69662SOL    HW226979  11.252   7.808   5.226 -0.0906  1.9008 -1.4373
69663SOL     OW26980   5.181   6.585  10.493  0.4289  0.0566 -0.0671
69663SOL    HW126981   5.222   6.513  10.542  0.1490  0.2456  0.4591
69663SOL    HW226982   5.254   6.628  10.448  0.9607  0.8388  1.4364
69664SOL     OW26983   8.532   5.910   7.104  0.3537 -0.3604  0.1426
69664SOL    HW126984   8.443   5.902   7.071 -0.1156 -1.6922  1.5859
69664SOL    HW226985   8.585   5.861   7.042  0.1281  0.6264 -0.8463
69665SOL     OW26986   6.886  13.264   9.170  0.6923  0.4956 -0.0246
69665SOL    HW126987   6.857  13.173   9.161 -0.0265  0.5489  1.4151
69665SOL    HW226988   6.837  13.312   9.104 -1.0545  0.2458  1.0209
69666SOL     OW26989   3.846   4.384   8.112  0.4032 -0.3334  0.5478
69666SOL    HW126990   3.872   4.444   8.182  1.0608 -0.7213  0.6463
69666SOL    HW226991   3.926   4.338   8.088  0.5026  0.7819 -1.4551
69667SOL     OW26992   3.781   1.593  11.810  0.1267 -0.1587 -0.3616
69667SOL    HW126993   3.781   1.683  11.841  0.2120  0.3019 -1.6318
69667SOL    HW226994   3.873   1.566  11.814  0.0701 -0.2839  0.2409
69668SOL     OW26995   6.390   4.134  10.104  0.2497  0.2057  0.0615
69668SOL    HW126996   6.441   4.150  10.183 -0.5502  1.0080  0.4414
69668SOL    HW226997   6.335   4.212  10.095  1.1426  0.6624 -1.9296
69669SOL     OW26998   5.230   7.853  13.240 -0.4204 -0.3663  0.2737
69669SOL    HW126999   5.207   7.918  13.174  0.3865 -0.1278  0.2231
69669SOL    HW227000   5.151   7.846  13.294 -0.9728 -0.3240 -0.5090
69670SOL     OW27001  13.731  13.240   6.283  0.1655 -0.3025 -0.6013
69670SOL    HW127002  13.748  13.156   6.326 -3.1593 -1.3082 -0.9499
69670SOL    HW227003  13.769  13.305   6.342 -0.1752 -1.8991  1.5205
69671SOL     OW27004   3.614   1.070  11.295 -0.2062 -0.1350  0.2645
69671SOL    HW127005   3.662   1.049  11.375  0.6310  1.5463  0.2612
69671SOL    HW227006   3.533   1.112  11.326 -0.8916 -1.4082  0.2414
69672SOL     OW27007   4.805   0.356   7.515  0.6062 -0.1143 -0.1921
69672SOL    HW127008   4.747   0.425   7.547  0.9234  0.1750 -0.2262
69672SOL    HW227009   4.754   0.276   7.523  0.2816  0.1057 -0.0167
69673SOL     OW27010  12.266   6.527   1.364  0.0376 -0.2906  0.3375
69673SOL    HW127011  12.288   6.440   1.399  2.2726  0.2099  0.3669
69673SOL    HW227012  12.343   6.551   1.312 -0.4991  1.7064  0.3981
69674SOL     OW27013   2.366   1.231  11.948  0.2907  0.0973 -0.8218
69674SOL    HW127014   2.397   1.263  12.032 -0.4211 -0.1824 -0.4483
69674SOL    HW227015   2.338   1.310  11.901  1.5847  0.3601 -1.1890
69675SOL     OW27016  11.810   3.875   5.822 -0.2375 -0.3446  0.3462
69675SOL    HW127017  11.896   3.870   5.781 -0.9558  0.1321 -1.2954
69675SOL    HW227018  11.823   3.836   5.909  1.2271 -1.9248 -0.5063
69676SOL     OW27019   6.997   4.249   5.576 -0.3316  0.3871 -1.1431
69676SOL    HW127020   7.015   4.289   5.661  1.5787  2.2059 -2.2880
69676SOL    HW227021   7.035   4.162   5.582 -2.2136 -0.3800  0.5539
69677SOL     OW27022  14.135   8.834   6.837  0.1183  0.4239 -0.2397
69677SOL    HW127023  14.090   8.876   6.764  0.8171  0.0137 -0.9306
69677SOL    HW227024  14.225   8.868   6.832  0.3421 -0.1262  0.0020
69678SOL     OW27025  13.855   9.664  11.523 -0.2126  0.0308 -0.4800
69678SOL    HW127026  13.934   9.658  11.468 -1.6691  1.7426 -2.9982
69678SOL    HW227027  13.825   9.754  11.511 -2.8283 -0.7010 -0.0787
69679SOL     OW27028   2.951   1.703   8.958 -0.4508 -0.0446  0.1663
69679SOL    HW127029   2.994   1.659   9.032 -1.3799 -1.3166 -0.0108
69679SOL    HW227030   2.924   1.632   8.900  0.0007  0.9212 -1.2795
69680SOL     OW27031   2.810   7.744   8.208  0.6021  0.1904  0.1019
69680SOL    HW127032   2.820   7.808   8.278  1.1433  1.5421 -1.1709
69680SOL    HW227033   2.900   7.721   8.183  0.4244  0.0559 -0.4341
69681SOL     OW27034   7.996  11.389   5.064  0.0226 -0.2628 -0.4875
69681SOL    HW127035   7.992  11.294   5.075  1.9252 -0.3739 -0.3914
69681SOL    HW227036   8.007  11.402   4.970 -1.8537 -0.0268 -0.7052
69682SOL     OW27037   3.929  13.462  14.041  0.0567 -0.8344  0.2773
69682SOL    HW127038   3.976  13.543  14.061  1.0134 -1.6080  1.3917
69682SOL    HW227039   3.857  13.460  14.103  1.0873 -1.6524  1.5117
69683SOL     OW27040   7.546   9.200  14.121  0.7254  0.2952  0.2394
69683SOL    HW127041   7.465   9.248  14.136  1.2455  0.6764  2.0766
69683SOL    HW227042   7.578   9.179  14.208  1.9540 -0.9685 -0.4781
69684SOL     OW27043  10.522  12.481   2.332  0.5992 -0.4810  0.1097
69684SOL    HW127044  10.439  12.531   2.333 -1.2896 -3.2249 -2.3887
69684SOL    HW227045  10.562  12.505   2.249  1.4907 -0.4549  0.5417
69685SOL     OW27046  13.425   7.869   3.511 -0.0628 -0.1036 -0.0920
69685SOL    HW127047  13.398   7.847   3.421 -0.1151 -0.4634  0.0108
69685SOL    HW227048  13.349   7.849   3.564 -0.1141  0.3401  0.0053
69686SOL     OW27049   7.957   7.205   3.491  0.3343  0.2709 -0.1294
69686SOL    HW127050   8.039   7.158   3.505  0.6258  1.2982  2.2875
69686SOL    HW227051   7.982   7.282   3.441  0.4962 -0.3305 -0.9896
69687SOL     OW27052   0.347   0.406   4.046  0.4921 -0.1477 -0.4763
69687SOL    HW127053   0.376   0.316   4.062 -5.3007 -2.4483 -0.4004
69687SOL    HW227054   0.291   0.427   4.121 -3.3391  0.8030 -3.2959
69688SOL     OW27055  11.328   8.076   5.356 -0.1084 -0.6112 -0.0618
69688SOL    HW127056  11.325   7.980   5.351  0.6514 -0.9216  3.1726
69688SOL    HW227057  11.407   8.099   5.308 -0.3056 -1.6055 -0.8989
69689SOL     OW27058  13.376   6.244   0.996 -0.3287 -0.6326 -0.4722
69689SOL    HW127059  13.326   6.166   0.971 -1.3024  0.6066 -2.6504
69689SOL    HW227060  13.442   6.253   0.927  0.0114  0.2804 -0.0368
69690SOL     OW27061  13.914   0.592  10.779  0.2265 -0.2749 -0.8303
69690SOL    HW127062  13.934   0.575  10.871  0.0757  0.4054 -0.6690
69690SOL    HW227063  13.870   0.677  10.779  0.5706 -0.0884 -1.5707
69691SOL     OW27064   9.956   8.314   0.547  0.1851  0.2980 -0.1919
69691SOL    HW127065   9.919   8.327   0.634  0.0372 -0.6479 -0.0987
69691SOL    HW227066  10.035   8.369   0.546  0.0528  0.5106  0.4503
69692SOL     OW27067   3.447   9.738   6.939 -0.3251  0.1184 -0.2066
69692SOL    HW127068   3.486   9.653   6.960  0.4756  0.5803  0.2222
69692SOL    HW227069   3.473   9.755   6.849 -1.3612 -0.5538 -0.6516
69693SOL     OW27070   0.975   3.625   2.485 -0.0220 -0.3048  0.2151
69693SOL    HW127071   0.997   3.532   2.475  0.3631 -0.1754 -0.1568
69693SOL    HW227072   0.897   3.636   2.432 -0.9791 -0.7468  1.4737
69694SOL     OW27073  11.988   1.770   7.779 -0.2517  0.7020 -0.1781
69694SOL    HW127074  11.920   1.704   7.792  1.6225 -1.6429 -1.3115
69694SOL    HW227075  12.013   1.796   7.867 -0.5098 -0.7753  0.3719
69695SOL     OW27076  11.622   8.867  12.022  0.0460 -0.4473  0.4742
69695SOL    HW127077  11.657   8.952  12.046 -0.5142 -0.4393  1.3356
69695SOL    HW227078  11.527   8.878  12.027 -0.0360 -1.5950  2.4589
69696SOL     OW27079   3.596   1.048   8.289 -0.5368 -0.2873 -0.3842
69696SOL    HW127080   3.563   1.025   8.202 -1.8825 -0.5150  0.1663
69696SOL    HW227081   3.690   1.028   8.285 -0.7701 -1.2628 -1.4645
69697SOL     OW27082   9.984   9.714   8.526  0.0202 -0.0772  0.0154
69697SOL    HW127083  10.007   9.628   8.559 -0.9201 -0.2768  0.1558
69697SOL    HW227084   9.954   9.698   8.436 -0.5295  0.0456  0.1722
69698SOL     OW27085  12.741   9.020   4.841  0.1174 -0.2116 -0.0869
69698SOL    HW127086  12.833   9.006   4.864  0.5184  0.4740 -1.2017
69698SOL    HW227087  12.692   8.971   4.907  1.2743 -0.3824  0.6718
69699SOL     OW27088   6.536  13.920   3.700 -0.6948 -0.2952  0.2841
69699SOL    HW127089   6.507  13.961   3.781  1.9015 -0.5094  1.4228
69699SOL    HW227090   6.605  13.859   3.727  0.4985 -0.1402 -2.0929
69700SOL     OW27091   5.845   5.026   4.829 -0.0085 -0.1822 -0.1526
69700SOL    HW127092   5.873   5.005   4.918  0.4087 -0.8406 -0.4311
69700SOL    HW227093   5.822   4.941   4.791 -0.3470  0.1151 -0.6185
69701SOL     OW27094  13.692   1.801   0.371 -0.2980 -0.2315  0.1992
69701SOL    HW127095  13.606   1.796   0.413 -0.1856 -1.0510  0.3493
69701SOL    HW227096  13.753   1.825   0.441 -0.3342 -0.1080  0.1885
69702SOL     OW27097   2.394   5.850   1.725 -0.2482  0.5487 -0.0328
69702SOL    HW127098   2.334   5.917   1.691 -1.1642  0.4803  1.3745
69702SOL    HW227099   2.481   5.890   1.715 -0.7023  1.5729 -0.0850
69703SOL     OW27100   6.402   9.536   9.485 -0.2270  0.9548 -0.5814
69703SOL    HW127101   6.313   9.567   9.502 -0.7814  0.4018 -2.2330
69703SOL    HW227102   6.394   9.440   9.488  0.4731  0.9130 -0.0009
69704SOL     OW27103  13.631  10.927   5.090  0.2939 -0.2304  0.1470
69704SOL    HW127104  13.674  11.011   5.076  1.0195 -0.5393  0.4661
69704SOL    HW227105  13.592  10.906   5.005  1.7702 -0.4777 -0.5076
69705SOL     OW27106   9.040  11.166   2.907 -0.2222  0.5032 -0.0813
69705SOL    HW127107   9.022  11.190   2.997  1.3717 -1.7014  0.9106
69705SOL    HW227108   8.955  11.175   2.863 -0.7754  2.7715  1.2845
69706SOL     OW27109  11.019   2.458   2.915 -0.5505  0.0983  0.2113
69706SOL    HW127110  11.057   2.498   2.993  2.2826 -1.1163 -0.4292
69706SOL    HW227111  10.992   2.371   2.942  0.5417 -0.3677 -0.1326
69707SOL     OW27112  13.381   6.432  10.674  0.1224 -0.3318 -0.4442
69707SOL    HW127113  13.428   6.429  10.590 -0.6251 -1.1893 -0.8434
69707SOL    HW227114  13.442   6.476  10.733  1.6058 -1.7104 -0.8623
69708SOL     OW27115  14.080   6.562   8.094 -0.0264  0.2454 -0.3028
69708SOL    HW127116  14.161   6.568   8.145 -0.6273  2.6130  0.4776
69708SOL    HW227117  14.068   6.649   8.056 -0.9478 -0.7416 -2.4734
69709SOL     OW27118   3.978   9.072   0.099  0.4427  0.5072  0.4342
69709SOL    HW127119   3.919   9.107   0.032  1.2585  0.7723 -0.1598
69709SOL    HW227120   3.974   8.977   0.087 -0.7241  0.4387  1.1542
69710SOL     OW27121  13.730   6.999  13.398  0.2740  0.4847 -0.0762
69710SOL    HW127122  13.810   6.946  13.393 -0.6020 -0.8167 -3.1958
69710SOL    HW227123  13.692   6.978  13.483  2.7204  0.3969  1.0604
69711SOL     OW27124   9.715   9.127   7.062 -0.7536 -0.2356 -0.1767
69711SOL    HW127125   9.703   9.140   6.967 -0.0197  0.8796 -0.1437
69711SOL    HW227126   9.782   9.060   7.069  0.2726  0.7312 -0.4877
69712SOL     OW27127   2.178  11.149   8.631 -0.3431  0.0162  0.0565
69712SOL    HW127128   2.197  11.231   8.677 -1.9432 -0.0997  0.9977
69712SOL    HW227129   2.084  11.137   8.643 -0.3741 -1.2545 -1.2636
69713SOL     OW27130  11.128  13.663  13.641 -0.2627  0.4489 -0.1993
69713SOL    HW127131  11.170  13.578  13.631 -0.2486  0.4416 -0.0759
69713SOL    HW227132  11.139  13.705  13.556  2.5986  1.6403  0.6551
69714SOL     OW27133  12.156   1.764   4.210 -0.1830  0.3857 -0.0621
69714SOL    HW127134  12.219   1.693   4.199  0.6561  0.9540  0.9480
69714SOL    HW227135  12.071   1.721   4.202  0.3148 -0.6173 -0.1464
69715SOL     OW27136   3.657  13.840  10.005 -0.2851 -0.2226  0.0570
69715SOL    HW127137   3.632  13.899  10.076  0.4121 -0.2780  0.3528
69715SOL    HW227138   3.637  13.889   9.925  1.4087  0.9057  0.2895
69716SOL     OW27139  11.044   5.640   0.994  0.3354  0.2208  0.0516
69716SOL    HW127140  11.031   5.716   0.937  2.0413  0.4048 -0.1615
69716SOL    HW227141  11.087   5.576   0.937 -0.1020 -0.5027  0.5240
69717SOL     OW27142   5.732  12.006   2.811 -0.2336 -0.1575  0.8380
69717SOL    HW127143   5.692  12.087   2.844 -0.0643 -0.9628  3.1902
69717SOL    HW227144   5.792  11.980   2.880  1.8421 -0.8255 -1.1209
69718SOL     OW27145  10.315   1.413   0.136  0.3533 -0.6791  0.0328
69718SOL    HW127146  10.396   1.440   0.092 -0.2007 -0.1817 -0.7039
69718SOL    HW227147  10.288   1.491   0.185  0.5534 -0.9895  0.6501
69719SOL     OW27148   3.919  10.762   6.772  0.8906  0.3064 -0.4640
69719SOL    HW127149   4.012  10.745   6.758  1.3254  1.5333  0.7120
69719SOL    HW227150   3.908  10.855   6.751 -0.6239 -0.3444 -3.0423
69720SOL     OW27151   0.891   5.523   8.477  0.1010 -0.2795 -0.7328
69720SOL    HW127152   0.835   5.513   8.401 -0.4286  1.8501 -0.7021
69720SOL    HW227153   0.834   5.559   8.545  1.4032  1.8522 -0.6696
69721SOL     OW27154  11.049   6.554   7.353  0.0263  0.1227 -0.2928
69721SOL    HW127155  11.106   6.630   7.335  0.6255 -0.6888 -2.0315
69721SOL    HW227156  10.961   6.587   7.337  0.3758  0.0868 -2.7495
69722SOL     OW27157  14.086   3.622  12.504  0.0923  0.2723  0.0974
69722SOL    HW127158  13.999   3.585  12.491  0.4512 -1.1677  1.4741
69722SOL    HW227159  14.102   3.613  12.598  2.1024 -0.3882 -0.2718
69723SOL     OW27160   5.843  12.258   4.430  0.6035  0.1240 -0.6043
69723SOL    HW127161   5.765  12.244   4.376  1.2600  0.5458 -1.6892
69723SOL    HW227162   5.894  12.177   4.419  1.1334  0.5451 -1.3072
69724SOL     OW27163   4.372  10.987   8.445  0.7404 -0.0765  0.0515
69724SOL    HW127164   4.386  10.982   8.540 -2.0318 -1.0633  0.5064
69724SOL    HW227165   4.382  10.897   8.414  2.2104  0.3291 -0.7389
69725SOL     OW27166  13.065   6.310   4.415 -0.0840  0.1008 -0.0872
69725SOL    HW127167  13.035   6.228   4.375  0.6916 -0.6827  0.8594
69725SOL    HW227168  12.989   6.342   4.464  0.5809 -2.0654  2.6215
69726SOL     OW27169   0.541   1.570   3.420  0.7587  0.2512  0.3409
69726SOL    HW127170   0.580   1.512   3.485  0.8911 -2.5700 -2.0660
69726SOL    HW227171   0.594   1.557   3.341 -1.9718  0.0987 -1.6000
69727SOL     OW27172   5.059  13.309  11.577 -0.4765 -0.1979  0.5282
69727SOL    HW127173   4.988  13.360  11.616 -0.4810 -1.5160  2.4231
69727SOL    HW227174   5.135  13.367  11.578 -0.4748 -0.1436  2.6567
69728SOL     OW27175   9.787   6.144  12.275  0.4168 -0.3342  0.0896
69728SOL    HW127176   9.860   6.166  12.216  1.4408 -0.4897  1.2535
69728SOL    HW227177   9.768   6.227  12.320  0.7588 -0.5911  0.7172
69729SOL     OW27178   1.312   7.142   4.420  0.5768  0.2792 -0.2482
69729SOL    HW127179   1.268   7.065   4.455  2.1219 -0.0391  1.0798
69729SOL    HW227180   1.261   7.216   4.452 -1.0118 -0.1349 -1.6593
69730SOL     OW27181   0.086   7.657  10.978 -0.4993 -0.0636 -0.5910
69730SOL    HW127182   0.128   7.740  10.999  0.5413 -0.8917  0.8092
69730SOL    HW227183  -0.007   7.671  10.998 -0.5913  1.1656 -1.7529
69731SOL     OW27184   3.729  12.084  13.157 -0.1670  0.1909 -0.1380
69731SOL    HW127185   3.649  12.092  13.104 -0.1451 -0.6071 -0.3148
69731SOL    HW227186   3.718  12.148  13.227  0.8673  2.9879 -2.3612
69732SOL     OW27187  10.773   7.522   1.571  0.1143  0.0641 -0.0833
69732SOL    HW127188  10.783   7.616   1.555  0.9161 -0.0305 -0.2060
69732SOL    HW227189  10.859   7.485   1.549  0.0668 -0.5850  0.7640
69733SOL     OW27190   6.265  10.609   6.406  0.1879 -0.2107  0.0118
69733SOL    HW127191   6.353  10.576   6.384 -0.1273 -0.9225 -0.2052
69733SOL    HW227192   6.213  10.589   6.328 -0.5902 -1.4106  0.8008
69734SOL     OW27193   1.798   9.548   5.008  0.0117 -0.2988 -0.1784
69734SOL    HW127194   1.745   9.527   4.932  0.6315  1.4726 -1.1685
69734SOL    HW227195   1.885   9.512   4.987 -0.0537 -0.6159  0.1001
69735SOL     OW27196   2.088  11.549   8.181  0.7686  0.3728 -0.3510
69735SOL    HW127197   2.055  11.552   8.091 -0.7694  1.9440  0.2089
69735SOL    HW227198   2.012  11.567   8.235  1.9166  0.7011  1.2191
69736SOL     OW27199   6.216   5.580   7.000 -0.0059  0.0807 -0.2687
69736SOL    HW127200   6.251   5.625   7.076 -1.2883 -0.7012  0.8205
69736SOL    HW227201   6.222   5.644   6.929 -1.4843  1.8908  1.1425
69737SOL     OW27202   1.667   5.817   9.676 -0.5263  0.1578 -0.0596
69737SOL    HW127203   1.757   5.849   9.674 -0.7164  0.7169  0.1813
69737SOL    HW227204   1.617   5.885   9.632 -0.7505 -0.4432 -0.7605
69738SOL     OW27205  13.906   6.573  13.571 -0.4006 -0.2470 -0.4055
69738SOL    HW127206  13.853   6.618  13.504  1.2707  1.4113 -0.6925
69738SOL    HW227207  13.992   6.562  13.530  0.1916 -0.6927  0.9047
69739SOL     OW27208   1.625   1.573   4.161  0.0414 -0.3163 -0.1064
69739SOL    HW127209   1.564   1.562   4.087 -1.0211 -0.1691  0.7295
69739SOL    HW227210   1.595   1.511   4.227  0.4383  0.1797  0.5561
69740SOL     OW27211   3.035   7.593   3.640 -0.1475  0.0655  0.3590
69740SOL    HW127212   3.049   7.663   3.576 -1.1249 -1.5373 -1.7296
69740SOL    HW227213   3.123   7.564   3.664  0.4226  3.6008  3.2931
69741SOL     OW27214  13.218  10.741   4.996 -0.4988 -0.1683  0.2244
69741SOL    HW127215  13.305  10.701   4.997 -0.2071  0.4604  0.1185
69741SOL    HW227216  13.158  10.667   4.986  0.0906 -0.5031 -1.0212
69742SOL     OW27217   1.422   5.106  10.851  0.2763 -0.1880  0.2572
69742SOL    HW127218   1.500   5.105  10.906 -1.7195  2.7701  3.5744
69742SOL    HW227219   1.435   5.181  10.792 -0.0845  0.4638  0.9836
69743SOL     OW27220  13.588   3.852   3.632  0.3721  0.0032  0.8124
69743SOL    HW127221  13.536   3.775   3.610 -0.3426  0.4620  0.8321
69743SOL    HW227222  13.652   3.822   3.697 -0.4699 -0.3905  1.4764
69744SOL     OW27223   6.026   1.953   3.736 -0.4830  0.0529 -0.3462
69744SOL    HW127224   5.999   2.022   3.797  1.4012  1.4416 -0.9856
69744SOL    HW227225   5.979   1.973   3.656  0.9408  1.3824 -0.9013
69745SOL     OW27226  13.673  12.883   6.242  0.0666  0.3042  0.2828
69745SOL    HW127227  13.689  12.792   6.267 -1.2604  0.1659  0.7035
69745SOL    HW227228  13.752  12.930   6.268  0.4074 -0.5714  0.8600
69746SOL     OW27229  10.068   0.064   4.791  0.4472 -0.9718 -0.5603
69746SOL    HW127230  10.103   0.152   4.781  0.7760 -0.8839  1.0323
69746SOL    HW227231  10.143   0.006   4.782  0.3158 -1.0685 -1.0904
69747SOL     OW27232   1.783   1.746  12.451 -0.2042 -0.1281 -0.4463
69747SOL    HW127233   1.702   1.777  12.491  0.0505  0.9775 -0.7725
69747SOL    HW227234   1.802   1.663  12.496 -1.9724 -0.8610 -0.9579
69748SOL     OW27235   9.571   5.498  13.733 -0.6490  0.7217 -0.4810
69748SOL    HW127236   9.563   5.416  13.781 -0.4910  1.7109  1.3342
69748SOL    HW227237   9.521   5.485  13.652  0.0903 -1.4256 -0.6583
69749SOL     OW27238  10.478  13.108   0.735 -0.1600  0.1024 -0.3526
69749SOL    HW127239  10.426  13.102   0.815 -1.2524  0.9885 -0.9578
69749SOL    HW227240  10.567  13.123   0.765 -0.4940  0.0164  0.7043
69750SOL     OW27241   2.560   2.352   3.246 -0.2620  0.0281  0.2741
69750SOL    HW127242   2.619   2.374   3.318  1.3757 -3.0191  0.0418
69750SOL    HW227243   2.617   2.328   3.173 -1.8472  0.2506 -1.1118
69751SOL     OW27244   5.519  13.120   5.534 -0.2211  0.3631 -0.1428
69751SOL    HW127245   5.471  13.060   5.477 -0.7665 -0.8490  1.5174
69751SOL    HW227246   5.489  13.099   5.622  2.8426  0.0003  0.9394
69752SOL     OW27247   8.925   6.478  13.723  0.5147 -1.0444 -0.2504
69752SOL    HW127248   8.882   6.445  13.802 -1.0783 -1.3812 -1.2169
69752SOL    HW227249   8.853   6.512  13.669  1.8361  2.5505 -0.0533
69753SOL     OW27250   1.927   8.923   8.291  0.6856 -0.3293 -0.4869
69753SOL    HW127251   1.873   8.947   8.367  1.1854  1.1291 -0.5461
69753SOL    HW227252   1.882   8.961   8.216  0.8666 -0.6462 -0.7594
69754SOL     OW27253   0.088   7.954   3.345 -0.1168 -0.3584 -0.5047
69754SOL    HW127254   0.095   7.975   3.252  0.1185  0.6251 -0.2766
69754SOL    HW227255   0.050   8.032   3.384  0.2531 -0.5741  0.2991
69755SOL     OW27256  12.017  11.554  11.758 -0.0699 -0.2048 -0.1623
69755SOL    HW127257  12.067  11.594  11.687  0.6036 -0.4754  0.1489
69755SOL    HW227258  12.015  11.621  11.826  0.3672 -0.3984  0.0457
69756SOL     OW27259  11.310  11.035  13.593 -0.0810  0.3985 -0.3429
69756SOL    HW127260  11.395  10.993  13.578 -0.5099 -0.7461  0.3200
69756SOL    HW227261  11.275  10.992  13.671 -0.9101  1.4396 -0.1161
69757SOL     OW27262  13.150   1.333  12.169 -0.4527  0.2472  0.1374
69757SOL    HW127263  13.084   1.263  12.166 -0.3079  0.1501 -0.8254
69757SOL    HW227264  13.233   1.290  12.149 -0.0684  0.3605  1.3989
69758SOL     OW27265   3.763  12.937   0.191  0.6219 -0.2163 -0.4253
69758SOL    HW127266   3.816  12.896   0.259 -0.2262  0.8100  0.9102
69758SOL    HW227267   3.766  13.031   0.212 -0.2854  0.0370 -1.3565
69759SOL     OW27268   0.986  10.247  12.162  0.0567 -0.2425  0.8102
69759SOL    HW127269   1.079  10.228  12.145 -0.4592 -1.8687 -0.5334
69759SOL    HW227270   0.966  10.198  12.242  0.3181  0.0276  1.0454
69760SOL     OW27271  11.694  11.469   9.160 -0.1374 -0.5687 -0.5858
69760SOL    HW127272  11.691  11.441   9.069 -0.9519 -1.4237 -0.3234
69760SOL    HW227273  11.787  11.469   9.183 -0.0054 -1.5428 -1.0752
69761SOL     OW27274   8.296  10.479   9.391  0.1524  0.5321  0.4011
69761SOL    HW127275   8.363  10.412   9.379  0.1770  0.6537 -0.2030
69761SOL    HW227276   8.220  10.432   9.424 -0.3034 -0.0644 -1.3667
69762SOL     OW27277   3.308   7.672   9.231  0.0483 -0.1640  0.3605
69762SOL    HW127278   3.355   7.749   9.199 -2.4474  0.3069 -2.7041
69762SOL    HW227279   3.237   7.709   9.285 -0.1108 -0.4198  0.3271
69763SOL     OW27280   8.356   3.046  11.171 -0.4248  0.3965 -0.4092
69763SOL    HW127281   8.449   3.031  11.152 -0.5712 -0.7880 -0.2780
69763SOL    HW227282   8.353   3.063  11.265 -0.2585  1.2635 -0.5524
69764SOL     OW27283   5.474   3.842   9.959  0.1373  0.4559 -0.1876
69764SOL    HW127284   5.469   3.928   9.917 -0.5252  0.9805  0.9333
69764SOL    HW227285   5.566   3.835   9.985 -0.1190  1.5474  1.1414
69765SOL     OW27286   0.849  10.140   4.097 -0.1399  0.2138  0.7277
69765SOL    HW127287   0.833  10.193   4.019  1.7838 -0.3472 -0.1048
69765SOL    HW227288   0.877  10.055   4.063 -0.8006 -0.5769  2.0532
69766SOL     OW27289   0.171  10.224  11.744 -0.5679  0.3210  0.1366
69766SOL    HW127290   0.161  10.294  11.808  0.0746  0.7348 -0.1997
69766SOL    HW227291   0.160  10.267  11.659  0.6884  0.1992 -0.1133
69767SOL     OW27292   9.245   5.874  12.645 -0.0960  0.2469  0.2973
69767SOL    HW127293   9.313   5.879  12.577 -0.9222  0.3750 -0.5405
69767SOL    HW227294   9.220   5.965  12.660 -0.4515  0.1667  0.2091
69768SOL     OW27295   0.173  10.878  11.413 -0.2671  0.0275  0.1638
69768SOL    HW127296   0.269  10.886  11.412 -0.3288  1.1604  1.1215
69768SOL    HW227297   0.149  10.872  11.320  0.6944  0.3556 -0.1194
69769SOL     OW27298   1.402   9.718   5.501 -0.5245 -0.4948  0.1982
69769SOL    HW127299   1.403   9.657   5.427 -2.9903  1.2800 -1.4338
69769SOL    HW227300   1.325   9.693   5.552 -0.2209 -0.1724  0.8230
69770SOL     OW27301   1.768   2.475  13.181  0.2546  0.0059 -0.1060
69770SOL    HW127302   1.733   2.410  13.242 -1.2290 -0.1409 -1.0453
69770SOL    HW227303   1.757   2.434  13.095  1.0896  0.7293 -0.5669
69771SOL     OW27304  13.059   3.624  12.795  0.4652 -0.2327  0.2123
69771SOL    HW127305  12.980   3.569  12.800  0.0619  0.2322 -0.8398
69771SOL    HW227306  13.027   3.709  12.766  1.5467 -0.4864 -1.8960
69772SOL     OW27307   5.146   8.293   5.909  0.4746 -0.0135 -0.4385
69772SOL    HW127308   5.068   8.329   5.867  0.5604  0.2127 -0.4054
69772SOL    HW227309   5.205   8.368   5.919  0.8488 -0.2570 -0.7994
69773SOL     OW27310   2.341   7.719  10.160  0.3672  0.4630 -0.0903
69773SOL    HW127311   2.324   7.685  10.248 -1.6668  0.0826 -0.5913
69773SOL    HW227312   2.430   7.690  10.141 -1.3095 -5.6181 -0.7712
69774SOL     OW27313   9.156   1.070   9.506  0.5061  0.1836  0.3795
69774SOL    HW127314   9.198   1.036   9.585  3.0056  0.5951 -0.6745
69774SOL    HW227315   9.205   1.031   9.434 -0.5526  1.1991 -0.9425
69775SOL     OW27316   3.889   2.876  12.311 -0.2149 -0.1896 -0.2703
69775SOL    HW127317   3.957   2.821  12.272 -1.0613 -1.1096 -0.4808
69775SOL    HW227318   3.855   2.927  12.238  1.1052  1.2390  0.0599
69776SOL     OW27319  11.497   5.812   5.013  0.1153  0.4761 -0.1304
69776SOL    HW127320  11.463   5.901   5.013  0.6159  0.6804 -0.6277
69776SOL    HW227321  11.565   5.812   5.081 -0.8296  0.0803  0.8331
69777SOL     OW27322  13.542   9.473  12.280 -0.0565  0.3029 -0.1701
69777SOL    HW127323  13.464   9.511  12.240  0.3421  0.5469 -0.7361
69777SOL    HW227324  13.562   9.532  12.353  0.2218  0.8600 -0.6883
69778SOL     OW27325   1.634  13.101   8.382  0.6384 -0.5644 -0.1606
69778SOL    HW127326   1.641  13.044   8.459  0.9852 -0.7360 -0.3153
69778SOL    HW227327   1.724  13.127   8.364  0.2745  2.0812  1.4085
69779SOL     OW27328   9.228  12.998   1.648  0.1874 -0.6442  0.2502
69779SOL    HW127329   9.297  12.959   1.700  1.6447 -0.1903 -1.2388
69779SOL    HW227330   9.196  12.926   1.593  1.9424 -0.1495 -1.5324
69780SOL     OW27331   4.065   3.634  13.412  0.0315 -0.3246 -0.6191
69780SOL    HW127332   4.052   3.587  13.494 -2.0675 -0.1705 -0.8273
69780SOL    HW227333   4.143   3.688  13.428 -0.4182 -0.1755  1.3209
69781SOL     OW27334   5.577   8.815  11.862 -0.1907 -0.3632 -0.1822
69781SOL    HW127335   5.517   8.848  11.929 -0.9285 -1.3530 -0.3286
69781SOL    HW227336   5.645   8.769  11.913  0.9208  1.4400  0.0271
69782SOL     OW27337  11.811   9.304   8.971 -0.5546 -0.1625 -0.0477
69782SOL    HW127338  11.776   9.256   9.046 -1.3363  0.0984 -0.2350
69782SOL    HW227339  11.867   9.241   8.926 -1.8510 -1.0437 -0.5002
69783SOL     OW27340   8.425  10.087   4.619  0.0356 -0.2067 -0.1550
69783SOL    HW127341   8.353  10.024   4.619  0.7519 -1.0626  0.5786
69783SOL    HW227342   8.442  10.105   4.527 -1.0958 -0.0101 -0.3326
69784SOL     OW27343  10.511   4.040   2.406  0.1092  0.3042 -0.0562
69784SOL    HW127344  10.601   4.074   2.404  0.1065  0.3379  0.2798
69784SOL    HW227345  10.518   3.952   2.370  0.5718 -0.3345  1.5079
69785SOL     OW27346   0.207   7.504   6.214 -0.4955 -0.2432 -0.8856
69785SOL    HW127347   0.151   7.427   6.213 -0.1209 -0.5236 -0.7527
69785SOL    HW227348   0.269   7.489   6.142  0.4998 -0.7727  0.0375
69786SOL     OW27349   0.964   8.026   5.677 -0.2110 -0.0578 -0.0485
69786SOL    HW127350   1.033   7.972   5.715  0.0884  0.4414  0.1279
69786SOL    HW227351   0.884   7.976   5.689  0.1171 -0.6268 -0.2230
69787SOL     OW27352  13.406  13.868  13.939 -0.1620  0.2378 -0.0232
69787SOL    HW127353  13.427  13.785  13.981  2.2162  1.0391  0.5337
69787SOL    HW227354  13.430  13.934  14.004 -0.1717  1.4114 -1.1622
69788SOL     OW27355   4.694   8.297   9.697  0.2690  0.1348 -0.2514
69788SOL    HW127356   4.652   8.324   9.779  1.2340  0.4557  0.1627
69788SOL    HW227357   4.632   8.237   9.657 -0.3945  0.2738  0.5278
69789SOL     OW27358   9.463  10.150   2.218 -0.0433 -0.1751 -0.1209
69789SOL    HW127359   9.546  10.106   2.238 -1.1381 -2.1049  0.4233
69789SOL    HW227360   9.403  10.120   2.286 -0.7226  2.7791  0.6933
69790SOL     OW27361   6.345   9.865   6.142 -0.0802 -0.0058  0.2364
69790SOL    HW127362   6.436   9.838   6.127 -0.1352  0.1153 -0.3130
69790SOL    HW227363   6.335   9.860   6.237 -0.1879 -2.2352  0.1531
69791SOL     OW27364  12.529   4.792  13.817  0.0171  0.2314 -0.4300
69791SOL    HW127365  12.435   4.806  13.819 -0.2366 -0.9947 -1.9918
69791SOL    HW227366  12.557   4.826  13.732  0.4522 -2.1297 -1.3049
69792SOL     OW27367   3.646  12.376   6.434 -0.1261  0.1860 -0.3701
69792SOL    HW127368   3.638  12.280   6.429 -1.9593  0.3493 -1.1077
69792SOL    HW227369   3.612  12.407   6.351  0.6992  1.4941 -0.2442
69793SOL     OW27370   0.378   5.456   0.130  0.1938 -0.0697  0.1124
69793SOL    HW127371   0.320   5.433   0.202 -0.9677  0.7615 -0.5299
69793SOL    HW227372   0.355   5.394   0.060  1.6403 -1.1857  0.5692
69794SOL     OW27373   2.921   0.846   0.403 -0.2549  0.3601 -0.1241
69794SOL    HW127374   2.853   0.914   0.402  0.5529  1.2735  1.8790
69794SOL    HW227375   3.002   0.894   0.419  0.7579 -0.8261 -1.5178
69795SOL     OW27376  12.052   5.290  11.875 -0.4880 -0.4618 -0.1354
69795SOL    HW127377  12.098   5.261  11.797 -0.3229 -0.5841  0.0063
69795SOL    HW227378  12.076   5.226  11.942 -0.9269 -0.5715 -0.0814
69796SOL     OW27379   8.586  13.975   9.059  0.0211 -0.0152 -0.0286
69796SOL    HW127380   8.508  14.021   9.030  0.4625  0.2865 -0.7785
69796SOL    HW227381   8.559  13.928   9.137 -0.9148  0.0492 -0.3065
69797SOL     OW27382   5.454   6.398   3.105  0.6259  0.1046  0.6291
69797SOL    HW127383   5.520   6.427   3.168 -0.4117  2.1688  0.8276
69797SOL    HW227384   5.409   6.478   3.078  0.0824 -0.8929 -1.6657
69798SOL     OW27385  13.961   8.866   6.626  0.3382 -0.4882  0.2764
69798SOL    HW127386  13.875   8.826   6.612  0.4817 -0.3257 -1.3180
69798SOL    HW227387  13.958   8.947   6.574  0.1816  1.4565  3.0954
69799SOL     OW27388   0.601   6.200   7.739  0.9213 -0.9025  0.5252
69799SOL    HW127389   0.625   6.115   7.775 -0.8688 -1.5890  0.2160
69799SOL    HW227390   0.575   6.252   7.815 -0.3467 -1.4773  0.5046
69800SOL     OW27391   9.274   5.143   8.970  0.3757  0.0498  0.1693
69800SOL    HW127392   9.362   5.152   9.005 -0.1608  1.5186  1.2333
69800SOL    HW227393   9.287   5.123   8.877  1.8060 -0.5328  0.4649
69801SOL     OW27394   9.774  11.163   7.070  0.0195 -0.2234 -0.1247
69801SOL    HW127395   9.742  11.253   7.073  1.0701  0.1777 -0.3986
69801SOL    HW227396   9.858  11.169   7.023  0.2856 -1.2895  0.1822
69802SOL     OW27397   2.197   5.204   2.542 -0.1414 -0.4892 -0.7545
69802SOL    HW127398   2.161   5.243   2.463 -2.8802 -1.6784 -0.2018
69802SOL    HW227399   2.216   5.279   2.599 -0.9859  0.2490 -1.4203
69803SOL     OW27400   4.453   0.696   7.247  0.1317 -0.2990  0.2552
69803SOL    HW127401   4.385   0.674   7.184 -0.3776  0.6730  0.4433
69803SOL    HW227402   4.498   0.614   7.264 -1.5183 -1.1344  0.7592
69804SOL     OW27403   9.947   9.441   4.653 -0.0945  0.3155  0.4022
69804SOL    HW127404   9.954   9.441   4.749 -1.4754  0.7517  0.5274
69804SOL    HW227405   9.867   9.391   4.635  0.0835  0.3491 -0.5137
69805SOL     OW27406   7.818  11.854   2.507 -0.3478  0.3001  0.9420
69805SOL    HW127407   7.858  11.910   2.442 -0.5680  0.4277  0.9163
69805SOL    HW227408   7.878  11.779   2.515 -0.7724 -0.1723 -0.0785
69806SOL     OW27409  11.578  10.194   4.585  0.0577  0.2974  0.1475
69806SOL    HW127410  11.568  10.167   4.494 -1.2985 -1.7299  0.8145
69806SOL    HW227411  11.552  10.286   4.587 -2.4328 -0.3075 -1.1301
69807SOL     OW27412  12.843   8.715  11.440  0.2470  0.3464 -0.0789
69807SOL    HW127413  12.850   8.638  11.496 -1.8300  0.3944  0.3560
69807SOL    HW227414  12.819   8.786  11.500 -0.4368  0.7455 -0.7940
69808SOL     OW27415  11.641   9.061   6.069 -0.0006  0.2160 -0.0649
69808SOL    HW127416  11.676   9.001   6.003  1.4817  2.4418 -1.4601
69808SOL    HW227417  11.669   9.148   6.039 -2.2234  1.6583  1.7040
69809SOL     OW27418   1.168   3.436   7.870 -0.7486 -0.2761  0.5746
69809SOL    HW127419   1.136   3.473   7.953 -0.4208  0.3233  0.4344
69809SOL    HW227420   1.219   3.506   7.830 -1.5171 -0.2970 -0.4891
69810SOL     OW27421   2.499  11.163   7.764  0.1803  0.1489  0.3312
69810SOL    HW127422   2.436  11.134   7.699  0.1228  0.8622  0.0618
69810SOL    HW227423   2.467  11.125   7.847  1.6019 -2.8624 -0.3665
69811SOL     OW27424   3.827  13.589   8.350 -0.0605  0.3503 -0.0526
69811SOL    HW127425   3.767  13.515   8.351  0.0541  0.2257 -0.9645
69811SOL    HW227426   3.829  13.621   8.440 -0.0223 -0.8295  0.3826
69812SOL     OW27427   8.853   0.959   0.039  0.4003  0.5535  0.1269
69812SOL    HW127428   8.872   1.052   0.055 -2.9673  1.7241 -1.6346
69812SOL    HW227429   8.763   0.948   0.068  0.0287 -1.6466 -1.6366
69813SOL     OW27430   4.198  12.252   1.870 -0.4819 -0.0711 -0.0956
69813SOL    HW127431   4.229  12.164   1.851 -0.6394 -0.3124  0.7409
69813SOL    HW227432   4.103  12.246   1.863 -0.4470  0.3629 -1.3626
69814SOL     OW27433   2.593   5.654   8.210 -0.1247 -0.0173 -0.5200
69814SOL    HW127434   2.601   5.741   8.170 -1.3685  1.3810  2.0092
69814SOL    HW227435   2.598   5.670   8.304  0.2679 -2.8072  0.0204
69815SOL     OW27436   8.772   9.151   6.693 -0.0753 -0.1443  0.0260
69815SOL    HW127437   8.802   9.240   6.709  0.0784 -0.2126  0.1222
69815SOL    HW227438   8.773   9.142   6.598  0.1062 -0.1100  0.0239
69816SOL     OW27439  12.285  12.108  12.541 -0.6605  0.0756  0.4041
69816SOL    HW127440  12.266  12.173  12.608 -1.6615 -0.1829  0.3852
69816SOL    HW227441  12.199  12.078  12.511 -0.2191 -0.7296 -0.0985
69817SOL     OW27442  10.378   3.459   5.742  0.3098 -0.3900 -0.0831
69817SOL    HW127443  10.391   3.368   5.770  0.2981 -0.3656  0.0017
69817SOL    HW227444  10.465   3.498   5.745  0.2316 -0.2479  0.4118
69818SOL     OW27445   3.766  12.132   6.032 -0.6662 -0.2834  0.2062
69818SOL    HW127446   3.701  12.097   6.093  0.1865 -1.6171  0.3713
69818SOL    HW227447   3.841  12.155   6.086 -0.4736 -0.0396 -0.1590
69819SOL     OW27448   0.813   6.947   8.346 -0.1498 -0.2756 -0.3269
69819SOL    HW127449   0.853   6.953   8.433  0.6823 -0.5923 -0.6821
69819SOL    HW227450   0.827   7.033   8.306  1.6289 -0.8621 -1.0569
69820SOL     OW27451   7.271   5.437   8.055  0.0307  0.3744  0.1760
69820SOL    HW127452   7.350   5.491   8.058  0.3721 -0.1356  0.9031
69820SOL    HW227453   7.303   5.348   8.073 -0.8603  0.3532  1.8913
69821SOL     OW27454  13.149  12.950   1.698 -0.1349  0.1815 -0.3508
69821SOL    HW127455  13.239  12.932   1.669 -0.2820 -1.4833  0.1351
69821SOL    HW227456  13.158  12.978   1.789  0.0982  2.9023 -1.1171
69822SOL     OW27457   4.827   9.189   9.936 -0.3161 -0.3329 -0.2404
69822SOL    HW127458   4.807   9.217   9.847 -0.4566 -0.3443 -0.2126
69822SOL    HW227459   4.774   9.111   9.949  1.3571 -1.6427 -0.9244
69823SOL     OW27460   8.142   3.471  11.378  0.0500 -0.4083 -0.2370
69823SOL    HW127461   8.120   3.383  11.345 -2.3735  0.0564 -0.0521
69823SOL    HW227462   8.227   3.460  11.421  0.9601 -2.1226 -2.2536
69824SOL     OW27463   2.882   6.787   5.810 -0.8207 -0.6804  0.9245
69824SOL    HW127464   2.935   6.712   5.835 -0.0517 -0.5198 -0.1446
69824SOL    HW227465   2.923   6.862   5.853  2.4190  0.1016 -2.9357
69825SOL     OW27466   3.092   1.847   4.729  0.3782  1.0790  0.4056
69825SOL    HW127467   3.095   1.907   4.654  1.1238  1.6641  0.8893
69825SOL    HW227468   3.172   1.866   4.777  0.4980 -0.1484  0.7048
69826SOL     OW27469  10.192  12.244   4.115 -0.3742 -0.1304 -0.4295
69826SOL    HW127470  10.236  12.175   4.066 -1.9931 -0.5032 -1.4105
69826SOL    HW227471  10.216  12.228   4.206  1.1577 -0.5531 -0.8726
69827SOL     OW27472   3.896   9.857   9.557  0.0238 -0.2545  0.0101
69827SOL    HW127473   3.843   9.789   9.600 -0.0576 -0.0233  0.2739
69827SOL    HW227474   3.833   9.924   9.531  0.1294 -0.1904 -0.0793
69828SOL     OW27475   9.950   8.855   8.964 -0.1479  0.1966 -0.0611
69828SOL    HW127476   9.994   8.782   8.920  1.2973 -0.0667  1.6768
69828SOL    HW227477   9.902   8.813   9.036  0.2800  0.8700  0.6373
69829SOL     OW27478   9.433   9.262   8.896  0.0085  0.4213 -0.1265
69829SOL    HW127479   9.505   9.296   8.844  0.0815  1.5286  0.6431
69829SOL    HW227480   9.408   9.336   8.953 -2.6743  0.5993 -1.3561
69830SOL     OW27481   7.794   6.201  11.881  0.7360  0.3809  0.1358
69830SOL    HW127482   7.887   6.222  11.888  0.7218 -0.0347  2.2949
69830SOL    HW227483   7.790   6.106  11.889  0.0762  0.4744  1.0026
69831SOL     OW27484  10.435  12.348   4.790 -0.0966  0.4501 -0.5254
69831SOL    HW127485  10.522  12.308   4.794 -0.8891 -1.2917  0.9014
69831SOL    HW227486  10.396  12.315   4.709 -1.0045 -2.4404  0.9666
69832SOL     OW27487   0.505   2.332   6.430  0.1216 -1.2503 -0.6808
69832SOL    HW127488   0.437   2.348   6.496  0.0701 -1.8554 -0.5821
69832SOL    HW227489   0.511   2.237   6.424 -0.6968 -1.2213 -2.4059
69833SOL     OW27490   0.548   6.107   3.320 -0.0062 -0.4228 -0.4298
69833SOL    HW127491   0.601   6.187   3.320 -0.9480  0.2221 -0.4797
69833SOL    HW227492   0.487   6.120   3.248  0.5780 -1.7130 -1.1773
69834SOL     OW27493   1.440   3.075   7.489  0.4211 -0.3734  0.6061
69834SOL    HW127494   1.442   3.037   7.577  0.5581 -0.1741  0.6922
69834SOL    HW227495   1.531   3.104   7.474  0.8984 -2.2949 -0.4479
69835SOL     OW27496   8.935  12.594   1.016 -0.2981  1.1738  0.0574
69835SOL    HW127497   9.025  12.613   0.990  0.4959 -1.3349  0.6194
69835SOL    HW227498   8.935  12.602   1.111 -0.1963 -0.2921  0.2153
69836SOL     OW27499  11.516   0.587   7.076 -0.4670  0.8938  0.1813
69836SOL    HW127500  11.609   0.567   7.076 -0.3536  1.1528 -2.1031
69836SOL    HW227501  11.512   0.682   7.088 -0.4875  0.8118  0.8709
69837SOL     OW27502   3.688   1.659   9.524 -0.0951 -0.3414  0.0185
69837SOL    HW127503   3.666   1.745   9.559 -1.8158 -0.2046 -1.2849
69837SOL    HW227504   3.633   1.649   9.446  1.9884 -1.5217 -1.4261
69838SOL     OW27505  12.691   9.709   1.160 -0.3777 -0.2601  0.3022
69838SOL    HW127506  12.708   9.802   1.149  0.2810 -0.5189 -1.2432
69838SOL    HW227507  12.596   9.701   1.164 -0.4055  0.6359  2.5118
69839SOL     OW27508  13.218   7.959   9.756 -0.4284  0.2709 -0.0590
69839SOL    HW127509  13.157   8.031   9.739  0.0365  0.6701 -0.0541
69839SOL    HW227510  13.228   7.958   9.851 -0.0288  0.5481 -0.0923
69840SOL     OW27511  11.640  14.055  11.388  0.4362 -0.3655  0.4179
69840SOL    HW127512  11.612  14.142  11.360  0.2141 -0.4219  0.4640
69840SOL    HW227513  11.573  14.027  11.450 -0.5011 -1.3179 -0.9341
69841SOL     OW27514   1.981   6.318   6.976  0.4421  0.3946  0.3593
69841SOL    HW127515   1.912   6.369   7.019 -1.1074  0.2695 -1.7729
69841SOL    HW227516   2.063   6.355   7.009 -0.6242  1.4716  1.9697
69842SOL     OW27517   1.003  12.225   4.151  0.2575 -0.3814  0.1542
69842SOL    HW127518   0.914  12.221   4.117  0.9585  0.6293 -2.0621
69842SOL    HW227519   1.042  12.141   4.127  0.5605  0.0898 -1.1144
69843SOL     OW27520   9.381  11.759   6.057 -0.3409  0.4192 -0.1535
69843SOL    HW127521   9.461  11.783   6.103 -0.3358  0.0073  0.0561
69843SOL    HW227522   9.374  11.823   5.985 -0.6090  1.3640  0.6914
69844SOL     OW27523   3.229  10.800  11.401  0.1371 -0.0850  0.3760
69844SOL    HW127524   3.249  10.746  11.325  0.8191 -0.0940  0.5478
69844SOL    HW227525   3.305  10.859  11.409 -1.0892  1.7107 -0.4931
69845SOL     OW27526   5.902  13.027   6.506 -0.3779 -0.2768  0.3290
69845SOL    HW127527   5.906  13.117   6.474 -0.8519 -0.6549 -0.8153
69845SOL    HW227528   5.987  12.989   6.481  0.2404  0.1145  1.7013
69846SOL     OW27529   5.453  13.172  13.190  0.1194 -0.6389  0.2251
69846SOL    HW127530   5.505  13.128  13.257  1.0047 -0.3396 -0.2428
69846SOL    HW227531   5.489  13.141  13.107  1.8406  2.0618 -0.1583
69847SOL     OW27532   1.699   9.730   6.671  0.1943  0.1407  0.3032
69847SOL    HW127533   1.788   9.766   6.666  0.4809 -0.3213  1.4451
69847SOL    HW227534   1.664   9.765   6.753  0.4239 -1.9589  1.3592
69848SOL     OW27535   9.878   7.659   7.377 -0.1618 -1.1922  0.3162
69848SOL    HW127536   9.911   7.700   7.297 -2.7377 -0.9372 -0.6912
69848SOL    HW227537   9.835   7.730   7.425 -0.0906 -1.6784  1.1172
69849SOL     OW27538   8.689  11.124   9.739  0.2006 -0.5597  0.4150
69849SOL    HW127539   8.621  11.077   9.690  0.5569 -1.3029  0.6217
69849SOL    HW227540   8.771  11.099   9.696  0.2956  0.9344 -0.3154
69850SOL     OW27541   5.036   3.654   3.027  0.0880 -0.3344  0.0703
69850SOL    HW127542   5.131   3.643   3.031  0.1020 -0.4826 -0.5368
69850SOL    HW227543   5.004   3.621   3.111  0.7778  2.0862  1.3834
69851SOL     OW27544  11.632   3.856   7.008 -0.2950 -0.5499  0.3261
69851SOL    HW127545  11.613   3.857   6.915 -1.4148 -1.8859  0.5174
69851SOL    HW227546  11.696   3.785   7.019 -0.8569 -1.0084  0.6874
69852SOL     OW27547  10.081   2.761   1.334  0.1121  0.2617 -0.1759
69852SOL    HW127548  10.110   2.810   1.411  0.6433  0.9423 -0.7949
69852SOL    HW227549  10.086   2.824   1.262 -1.6717  0.0310 -0.5496
69853SOL     OW27550  12.224   0.984   2.973 -0.3734  0.7429  0.2336
69853SOL    HW127551  12.309   0.965   3.013 -0.5667 -0.4300  0.1113
69853SOL    HW227552  12.241   0.987   2.879 -0.6080 -0.3238  0.1494
69854SOL     OW27553   7.631   7.274  13.929  0.1862  0.5788  0.3766
69854SOL    HW127554   7.563   7.271  13.995 -2.1340  3.9060 -1.5329
69854SOL    HW227555   7.633   7.186  13.892 -1.0890 -0.3328  2.3285
69855SOL     OW27556  10.864   0.960   4.835 -0.7001  0.1199 -0.0254
69855SOL    HW127557  10.776   0.989   4.860 -0.0390  3.5364 -1.2077
69855SOL    HW227558  10.921   1.034   4.855  1.2008 -0.2372 -3.3092
69856SOL     OW27559   2.442  13.209   5.435 -0.0545  0.6812  0.3838
69856SOL    HW127560   2.385  13.147   5.481 -0.3434  1.4169  1.0587
69856SOL    HW227561   2.507  13.154   5.391 -0.4292 -0.1075  0.7833
69857SOL     OW27562   0.409  13.690   0.485  0.0368  0.0554  0.6390
69857SOL    HW127563   0.329  13.638   0.475 -0.9999  1.8225 -1.0620
69857SOL    HW227564   0.468  13.655   0.419 -0.5741  0.8070 -0.3428
69858SOL     OW27565  11.011   5.636   8.457 -0.0232  0.5608  0.4939
69858SOL    HW127566  11.020   5.544   8.434 -2.6429 -1.0023  4.5684
69858SOL    HW227567  10.918   5.655   8.443  0.4738  2.7050 -0.3812
69859SOL     OW27568   4.514   4.712   0.927  0.4226 -0.0477  0.3449
69859SOL    HW127569   4.604   4.678   0.929 -0.3719 -2.2758  0.6598
69859SOL    HW227570   4.508   4.769   1.003  0.9932 -1.5674  1.5897
69860SOL     OW27571   8.744   1.143   1.308  0.2700 -0.5423 -0.0830
69860SOL    HW127572   8.716   1.183   1.391 -1.0275 -2.3449  0.4109
69860SOL    HW227573   8.674   1.163   1.246  0.6462 -0.2442 -0.4166
69861SOL     OW27574   4.087   9.284  11.491 -0.1704  0.1522 -0.8645
69861SOL    HW127575   4.075   9.190  11.485 -1.2639  0.2357 -0.1677
69861SOL    HW227576   4.157   9.303  11.428 -0.9120 -0.9254 -2.0751
69862SOL     OW27577  12.721   6.135   0.205 -0.2261 -0.8024 -0.0685
69862SOL    HW127578  12.692   6.095   0.122  1.0356 -0.9525 -0.4545
69862SOL    HW227579  12.641   6.144   0.256 -1.0918 -0.3884 -1.4359
69863SOL     OW27580   1.210   6.659   2.580  0.0382 -0.0609  0.1204
69863SOL    HW127581   1.304   6.643   2.585 -0.1347 -1.8930 -1.0955
69863SOL    HW227582   1.200   6.722   2.508  0.3764  0.9879  0.9689
69864SOL     OW27583  11.272   3.803   4.463 -0.2207 -0.2576 -0.0218
69864SOL    HW127584  11.221   3.722   4.467 -0.1777 -0.4364 -2.2924
69864SOL    HW227585  11.361   3.777   4.489 -0.4482 -0.6934  0.3247
69865SOL     OW27586   0.702   6.600   6.397  0.3241  0.6966 -0.2480
69865SOL    HW127587   0.686   6.508   6.376 -1.9515  0.8810  0.3568
69865SOL    HW227588   0.797   6.609   6.395  0.5602 -1.3302 -1.6512
69866SOL     OW27589  10.135   8.919   8.257  0.0413  0.5529  0.3530
69866SOL    HW127590  10.158   8.844   8.312  0.6668  1.9103  2.0402
69866SOL    HW227591  10.093   8.981   8.316  0.1405  1.8228 -0.8420
69867SOL     OW27592   7.522   4.331   7.129 -0.2242 -0.3021 -0.4041
69867SOL    HW127593   7.449   4.380   7.092 -0.2827 -0.3941 -0.4112
69867SOL    HW227594   7.561   4.390   7.193 -1.2353 -0.8012  0.7078
69868SOL     OW27595   1.901   6.446  10.585 -0.2699 -0.0908  0.1048
69868SOL    HW127596   1.845   6.395  10.644 -1.1909  0.4794 -0.2619
69868SOL    HW227597   1.931   6.382  10.520  1.2781 -0.8725  1.5011
69869SOL     OW27598  11.294  10.874   4.510 -0.9679  0.0784 -0.4653
69869SOL    HW127599  11.289  10.969   4.509 -1.3986  0.0967  1.1402
69869SOL    HW227600  11.204  10.844   4.515 -0.8410 -0.4273 -1.0243
69870SOL     OW27601   5.242  12.487   7.927  0.1047 -0.0029  0.3437
69870SOL    HW127602   5.285  12.402   7.917 -1.1856 -0.7205  0.7769
69870SOL    HW227603   5.164  12.482   7.873  0.1554  1.0345  0.1370
69871SOL     OW27604   2.487  13.627   3.449 -0.3057 -1.0073 -0.1523
69871SOL    HW127605   2.495  13.640   3.543  0.3355  0.9353 -0.4308
69871SOL    HW227606   2.409  13.676   3.425  0.1200 -0.6028 -0.7523
69872SOL     OW27607   9.664   5.174  11.025 -0.4443  0.0748  0.0837
69872SOL    HW127608   9.754   5.197  11.046 -0.6036 -0.2784  1.1954
69872SOL    HW227609   9.665   5.155  10.931  0.8470 -0.8952  0.2723
69873SOL     OW27610   2.574   9.273   1.492  0.1491  0.5250 -0.1104
69873SOL    HW127611   2.516   9.216   1.544 -0.9901  0.7623 -1.0630
69873SOL    HW227612   2.578   9.355   1.541 -0.4106  0.5360 -0.0753
69874SOL     OW27613   6.247   5.048  12.645  0.0429 -0.2073 -0.0329
69874SOL    HW127614   6.267   5.135  12.609 -1.3323  0.5089  0.8638
69874SOL    HW227615   6.312   4.990  12.605  0.5280  1.1020 -1.2136
69875SOL     OW27616   7.332  13.433   2.409 -0.3766  0.3281 -0.4413
69875SOL    HW127617   7.303  13.418   2.498 -0.5182  0.9408 -0.3787
69875SOL    HW227618   7.282  13.509   2.379  0.3832  0.7521 -0.6926
69876SOL     OW27619   2.857   0.909   9.315 -0.3989  0.2563  0.4770
69876SOL    HW127620   2.770   0.908   9.355 -1.1120 -1.8838 -0.9782
69876SOL    HW227621   2.918   0.915   9.389 -1.7241  2.5914  1.4883
69877SOL     OW27622   5.860  13.629   0.522 -0.2092  0.0919 -0.1687
69877SOL    HW127623   5.901  13.709   0.487 -1.1651  0.4936 -0.3936
69877SOL    HW227624   5.772  13.657   0.549  0.0014 -0.5273  1.2521
69878SOL     OW27625   8.306  12.343   9.753 -1.0998  0.7558  0.5210
69878SOL    HW127626   8.322  12.337   9.847  0.5727 -0.9425  0.2121
69878SOL    HW227627   8.393  12.336   9.714 -1.7417  1.5764 -1.1660
69879SOL     OW27628   4.253   8.806   1.346  0.2649 -0.0382 -0.5857
69879SOL    HW127629   4.194   8.881   1.348 -0.5412 -0.6702  0.9371
69879SOL    HW227630   4.196   8.731   1.326  0.7478 -0.4901 -0.3021
69880SOL     OW27631   0.976  12.019   1.531 -0.0008  0.2123 -0.0940
69880SOL    HW127632   0.912  12.090   1.533  0.3567  0.6912 -2.4868
69880SOL    HW227633   1.027  12.035   1.452  1.4283 -1.5873  0.3967
69881SOL     OW27634  13.703   0.820   0.356 -0.4160 -0.3482 -0.4757
69881SOL    HW127635  13.654   0.749   0.398 -2.7141  1.7333  0.5930
69881SOL    HW227636  13.636   0.877   0.319  1.1142  2.5332  0.8449
69882SOL     OW27637   2.846   6.223  12.271 -0.7400  0.2227 -0.0287
69882SOL    HW127638   2.766   6.172  12.255 -1.2425  1.0528 -0.2078
69882SOL    HW227639   2.844   6.292  12.205  0.6773 -0.3639 -0.7183
69883SOL     OW27640   8.492   6.498   6.212  0.4880  0.5477  0.4238
69883SOL    HW127641   8.434   6.573   6.210  0.0289  0.1820 -1.0424
69883SOL    HW227642   8.439   6.427   6.247 -0.1266  0.1167 -1.2740
69884SOL     OW27643   4.372  11.431   2.383  0.0827  0.0182  0.2070
69884SOL    HW127644   4.370  11.447   2.288  1.5655 -1.4391 -0.1358
69884SOL    HW227645   4.377  11.518   2.422  0.5356  0.6183 -1.1203
69885SOL     OW27646  10.213   3.933   0.725  0.1865 -0.5062  0.2922
69885SOL    HW127647  10.284   3.920   0.663 -0.2006  0.4219 -0.3745
69885SOL    HW227648  10.223   3.863   0.789  1.8100 -0.2681  0.3304
69886SOL     OW27649  11.218  10.581   1.979 -0.3571 -0.1307  0.4609
69886SOL    HW127650  11.268  10.657   1.949 -1.8698  0.2161 -1.3592
69886SOL    HW227651  11.188  10.606   2.067  0.3229  0.7814  0.4553
69887SOL     OW27652  10.410   2.920   4.951  0.5219 -0.1188 -0.6789
69887SOL    HW127653  10.468   2.927   4.874  0.1242 -0.2310 -0.9897
69887SOL    HW227654  10.335   2.974   4.928  0.4800 -0.0127 -0.2913
69888SOL     OW27655  12.300   0.634   1.618 -0.3065  0.0302 -0.1012
69888SOL    HW127656  12.258   0.604   1.698 -0.2422 -1.8771 -0.7314
69888SOL    HW227657  12.260   0.582   1.548 -0.1806  1.4661 -1.2892
69889SOL     OW27658   0.930   1.990   6.540  0.1338  0.0517  0.2071
69889SOL    HW127659   1.022   2.013   6.530  0.5303 -1.9167 -1.5023
69889SOL    HW227660   0.930   1.920   6.606  0.1317 -1.0734 -0.9375
69890SOL     OW27661  13.022  10.842   9.321  0.4220 -0.4181 -0.2164
69890SOL    HW127662  12.951  10.905   9.331  0.9983  0.2469 -0.2404
69890SOL    HW227663  12.990  10.780   9.254 -1.2655 -1.7732  1.7080
69891SOL     OW27664   1.808   6.591   5.108 -0.1217  0.6644 -0.4101
69891SOL    HW127665   1.893   6.546   5.113 -0.6437 -0.3433 -0.3243
69891SOL    HW227666   1.795   6.608   5.015  0.1103  0.7014 -0.4368
69892SOL     OW27667  13.443   1.983  11.062 -0.0381  0.2794  0.0017
69892SOL    HW127668  13.537   1.968  11.064 -0.3164 -1.7389  0.3136
69892SOL    HW227669  13.432   2.064  11.013  1.7262 -0.9023 -2.5644
69893SOL     OW27670  13.663  11.685   9.033  0.2709 -0.2041 -0.2704
69893SOL    HW127671  13.679  11.591   9.037 -0.2774 -0.2704  0.3768
69893SOL    HW227672  13.666  11.714   9.124 -1.5039  0.0779 -0.2681
69894SOL     OW27673  11.231   9.466  10.701  0.0043 -0.0080  0.5774
69894SOL    HW127674  11.267   9.395  10.646 -0.5603  0.3575 -0.2721
69894SOL    HW227675  11.204   9.533  10.639 -1.7339 -0.0709  1.2232
69895SOL     OW27676   4.650   9.328   1.063 -0.0992  0.2203 -0.3733
69895SOL    HW127677   4.633   9.308   0.971 -1.0371 -1.0211  0.0351
69895SOL    HW227678   4.666   9.243   1.103  0.7482  0.7903  0.5351
69896SOL     OW27679   8.913   3.423  13.525 -0.0753 -0.5475  0.5039
69896SOL    HW127680   8.927   3.514  13.553 -0.3446 -1.0390  2.4161
69896SOL    HW227681   8.878   3.430  13.437  1.5978  1.1326 -0.1122
69897SOL     OW27682   5.342   1.485  11.878 -0.2040 -0.2653  0.0465
69897SOL    HW127683   5.374   1.574  11.861 -2.6223  1.0903  1.8604
69897SOL    HW227684   5.289   1.463  11.802 -1.2404  0.7360  0.4524
69898SOL     OW27685  12.157   2.911   9.835 -0.0128  0.0389  0.0231
69898SOL    HW127686  12.197   2.825   9.830  0.8005  0.4271 -0.4592
69898SOL    HW227687  12.228   2.972   9.811 -0.6725  0.8054 -0.0359
69899SOL     OW27688   3.033  12.284  12.507 -0.1968  0.0242  0.0455
69899SOL    HW127689   2.960  12.233  12.542 -1.0462  1.0923 -0.0923
69899SOL    HW227690   3.037  12.259  12.415 -0.0593 -0.4128  0.1694
69900SOL     OW27691  11.105   6.993   0.576 -0.0233  0.5480  0.1341
69900SOL    HW127692  11.055   7.038   0.508  0.3443 -0.7317 -1.0423
69900SOL    HW227693  11.185   7.045   0.586  1.1367 -0.5650 -2.3511
69901SOL     OW27694   5.512  12.750   9.859  0.3362 -0.6307 -0.1243
69901SOL    HW127695   5.458  12.811   9.808 -0.3944 -0.7915  0.4394
69901SOL    HW227696   5.449  12.700   9.911  1.0255 -0.8905  0.4784
69902SOL     OW27697   4.686   2.123   6.975 -0.1043 -0.2100  0.1137
69902SOL    HW127698   4.602   2.155   7.008 -1.2866 -0.6501 -2.2815
69902SOL    HW227699   4.666   2.038   6.936  1.3090 -0.0251 -1.1050
69903SOL     OW27700   7.100   1.262   7.497 -0.1178  0.0688  0.3518
69903SOL    HW127701   7.175   1.235   7.445  0.4641  1.2117  0.5610
69903SOL    HW227702   7.091   1.195   7.564  2.1029  0.9788  1.6610
69904SOL     OW27703   9.545  12.316   9.059 -0.2661  0.2155 -0.2601
69904SOL    HW127704   9.591  12.305   8.976 -1.0261 -0.6115 -0.5812
69904SOL    HW227705   9.578  12.245   9.114 -0.7948 -0.0814 -0.3252
69905SOL     OW27706   5.751  12.648  13.863 -0.3726  0.5422  0.3816
69905SOL    HW127707   5.841  12.619  13.851 -0.0862  1.6187 -0.1505
69905SOL    HW227708   5.758  12.736  13.900 -1.2251 -0.0412  2.0291
69906SOL     OW27709   1.008  13.916   5.544  0.5925  0.0530  0.0027
69906SOL    HW127710   1.063  13.905   5.621 -1.9637 -1.8628  1.6769
69906SOL    HW227711   0.948  13.986   5.567  0.0690 -0.2496 -0.4212
69907SOL     OW27712  14.052  11.973   3.114  0.9704  0.1136  0.4321
69907SOL    HW127713  14.138  11.992   3.152  1.7117 -2.3994  0.1840
69907SOL    HW227714  13.991  11.976   3.187  1.5234  0.4095  0.8863
69908SOL     OW27715   8.246  11.061  10.309  0.7237  0.1175 -0.0453
69908SOL    HW127716   8.337  11.031  10.315  1.0919  1.0633 -0.7672
69908SOL    HW227717   8.234  11.085  10.218  0.1972  1.3942  0.3422
69909SOL     OW27718   8.031   4.384   0.569 -0.3016 -0.6366  0.5339
69909SOL    HW127719   8.038   4.465   0.518  0.8863  0.5417  2.4674
69909SOL    HW227720   7.946   4.347   0.543  0.7313 -0.7627 -3.1380
69910SOL     OW27721   2.598  13.608   9.539 -0.0656  0.5302  0.1493
69910SOL    HW127722   2.559  13.682   9.492  0.3841  0.1958 -0.7722
69910SOL    HW227723   2.657  13.567   9.475 -0.8672 -1.0761  0.3820
69911SOL     OW27724  11.635   2.815   7.438 -0.3230 -0.0076  0.4655
69911SOL    HW127725  11.586   2.749   7.487  0.7244  0.0431  1.6256
69911SOL    HW227726  11.714   2.830   7.490  0.5038  0.5618 -0.8937
69912SOL     OW27727   2.537   4.618   2.345 -0.3380  0.0238  1.2027
69912SOL    HW127728   2.540   4.535   2.392 -1.1023  0.3221  1.7971
69912SOL    HW227729   2.490   4.598   2.264 -0.1384 -0.2118  1.1423
69913SOL     OW27730   1.691   0.949   6.672  0.4600  0.6012  0.3446
69913SOL    HW127731   1.672   0.960   6.579 -1.7760  0.0639  0.6710
69913SOL    HW227732   1.678   1.036   6.710 -1.1664  0.3215  0.4992
69914SOL     OW27733   8.357   3.349  11.057 -0.0427 -0.6808  0.4391
69914SOL    HW127734   8.406   3.334  10.976 -0.1281 -1.2050  0.4803
69914SOL    HW227735   8.365   3.267  11.105  1.2661  0.0963  1.6425
69915SOL     OW27736   5.861  12.150   1.300 -0.1218 -0.4642 -0.3008
69915SOL    HW127737   5.794  12.157   1.232 -0.0506 -0.3408 -0.3585
69915SOL    HW227738   5.814  12.115   1.376 -0.5922  1.0195  0.1321
69916SOL     OW27739  10.063  10.826   2.641 -0.1702 -0.8186  0.0840
69916SOL    HW127740  10.011  10.903   2.664  0.7563 -0.2678  0.3986
69916SOL    HW227741  10.121  10.856   2.570 -1.6019 -1.9531 -1.6593
69917SOL     OW27742  12.941   3.333   8.794  0.6464 -0.1016 -0.5854
69917SOL    HW127743  12.947   3.280   8.714 -3.3710 -1.4358 -0.2388
69917SOL    HW227744  12.892   3.411   8.767  0.1176 -0.0921  0.3657
69918SOL     OW27745  11.045  13.230   8.837 -0.4778  0.2717 -0.0956
69918SOL    HW127746  11.112  13.262   8.776 -1.1865  0.2137 -0.9200
69918SOL    HW227747  11.049  13.291   8.910  0.4636  0.2799 -0.1388
69919SOL     OW27748   8.070  10.925   3.281 -0.3253 -0.6301 -0.1204
69919SOL    HW127749   8.052  11.017   3.264  1.3238 -0.0026  1.2481
69919SOL    HW227750   8.006  10.899   3.347 -1.4952 -0.8122 -1.2834
69920SOL     OW27751   4.744   6.628   1.572 -0.0749 -0.2732  0.6678
69920SOL    HW127752   4.710   6.639   1.484  1.0939 -2.5110 -0.1439
69920SOL    HW227753   4.714   6.706   1.620 -1.8179  0.3652 -1.3260
69921SOL     OW27754  11.311  13.042   2.405 -0.1181  0.1321 -0.4805
69921SOL    HW127755  11.221  13.069   2.387  0.2967  1.9317 -0.0644
69921SOL    HW227756  11.302  12.959   2.450 -1.5450 -0.0086 -0.9643
69922SOL     OW27757  13.099   0.405   9.699 -0.2941  0.3347  0.5508
69922SOL    HW127758  13.067   0.352   9.626 -1.1790  0.3716  0.8974
69922SOL    HW227759  13.194   0.399   9.693 -0.1846  2.5560 -2.2767
69923SOL     OW27760   1.746  13.624  12.577 -0.7199 -0.8457  0.1705
69923SOL    HW127761   1.751  13.656  12.667  0.7044 -1.5876  0.3919
69923SOL    HW227762   1.837  13.615  12.550 -1.1239 -1.1789 -1.1566
69924SOL     OW27763  13.545   1.566   2.154 -0.1480  0.0842 -0.1439
69924SOL    HW127764  13.614   1.510   2.188  0.8936  0.8631 -0.9261
69924SOL    HW227765  13.468   1.544   2.207  0.4899 -1.3312  0.2393
69925SOL     OW27766   0.190   7.503  13.908 -0.0610  0.5938 -0.2012
69925SOL    HW127767   0.185   7.491  13.813  0.9153 -0.9876 -0.0812
69925SOL    HW227768   0.141   7.430  13.945 -4.0763  3.3476  0.5816
69926SOL     OW27769   4.045   0.202   0.746 -0.0920  0.0872 -0.5518
69926SOL    HW127770   4.036   0.291   0.712  0.2996  0.2337 -0.2846
69926SOL    HW227771   3.975   0.194   0.811  0.7674  0.7144  0.4793
69927SOL     OW27772   3.457   8.245   1.989 -0.0292  0.0646 -0.4736
69927SOL    HW127773   3.451   8.339   2.011  0.7324  0.0049  0.0165
69927SOL    HW227774   3.467   8.243   1.894 -0.6543  0.4527 -0.5562
69928SOL     OW27775   1.231  12.170   9.930 -0.0234  0.4289  0.2574
69928SOL    HW127776   1.140  12.172   9.960  0.6182 -0.1319  2.4205
69928SOL    HW227777   1.241  12.252   9.882 -1.6479  0.5417  0.0397
69929SOL     OW27778  10.798   8.554  12.348  0.2008 -0.7328  0.3780
69929SOL    HW127779  10.877   8.552  12.401 -0.3850 -2.4111  1.2896
69929SOL    HW227780  10.741   8.487  12.388 -2.0872  1.0887  0.3813
69930SOL     OW27781  12.018   4.433   8.664  0.5639 -0.0478  0.9684
69930SOL    HW127782  11.963   4.508   8.644  0.1303 -0.4283  0.7237
69930SOL    HW227783  12.093   4.442   8.604 -1.0199 -1.5158 -1.3807
69931SOL     OW27784   0.715  10.193   9.238  0.0747 -0.4683 -0.5875
69931SOL    HW127785   0.665  10.210   9.318  0.1987  0.7231 -0.7334
69931SOL    HW227786   0.804  10.221   9.260 -0.4537  2.8457 -1.9932
69932SOL     OW27787  10.271   9.361   4.763  0.3567  0.3962 -0.4109
69932SOL    HW127788  10.365   9.343   4.751  0.5055  0.2985  0.7125
69932SOL    HW227789  10.267   9.415   4.842 -0.7195 -2.4483  1.6792
69933SOL     OW27790  12.946  12.812  11.815  0.0338  0.2349 -0.0850
69933SOL    HW127791  12.967  12.860  11.895 -0.3496 -0.3587  0.3835
69933SOL    HW227792  12.863  12.768  11.835  0.0941 -0.1651 -0.6978
69934SOL     OW27793   0.913   4.139   5.566  0.2738 -0.3431 -0.0943
69934SOL    HW127794   0.826   4.162   5.533  0.9816 -2.5317 -4.0343
69934SOL    HW227795   0.960   4.222   5.568 -1.1163  0.5037 -0.5148
69935SOL     OW27796   9.988   8.975   3.457 -0.3696 -0.2723 -0.4704
69935SOL    HW127797   9.968   8.957   3.549  0.9041 -1.7962 -0.4451
69935SOL    HW227798  10.036   8.897   3.428  1.3649  1.2200 -1.7645
69936SOL     OW27799  11.266   0.732   5.226  0.0265 -0.5795  0.6558
69936SOL    HW127800  11.338   0.770   5.276  0.8479  1.0113 -1.5514
69936SOL    HW227801  11.210   0.806   5.205 -0.5943 -1.2816 -0.2639
69937SOL     OW27802   8.871   7.870   0.998 -0.6856  0.1513 -0.4021
69937SOL    HW127803   8.851   7.899   0.908 -0.2401 -0.2380 -0.6304
69937SOL    HW227804   8.906   7.782   0.987  0.1541  0.4162  0.0738
69938SOL     OW27805   2.809   9.517  12.711  0.8667 -0.2375  0.6808
69938SOL    HW127806   2.762   9.540  12.792 -0.5961  0.8396 -0.4277
69938SOL    HW227807   2.825   9.601  12.668 -1.2113 -0.9579 -1.6631
69939SOL     OW27808   8.698  12.404   5.886  0.2721 -0.4011  0.1589
69939SOL    HW127809   8.660  12.333   5.834  2.6934 -2.0479  0.4838
69939SOL    HW227810   8.707  12.366   5.974 -1.6501  1.5625  1.3087
69940SOL     OW27811   5.829   1.854  10.459 -0.0708 -0.6660 -0.2913
69940SOL    HW127812   5.812   1.946  10.481 -0.1539 -0.8354  0.3695
69940SOL    HW227813   5.900   1.858  10.394 -0.3108 -0.1235 -0.5350
69941SOL     OW27814   2.148   1.068  10.681 -0.5060  0.0817  0.4248
69941SOL    HW127815   2.236   1.057  10.718 -0.2563 -0.0551 -0.1796
69941SOL    HW227816   2.150   1.153  10.638 -0.9063  0.3973  1.0294
69942SOL     OW27817  13.980  10.809  10.230 -0.2631 -0.2643 -0.0149
69942SOL    HW127818  13.925  10.810  10.309 -0.8684  0.2634 -0.4361
69942SOL    HW227819  13.926  10.768  10.163 -0.0036 -0.0908 -0.3350
69943SOL     OW27820   3.885   8.814   3.078  0.3965  0.0852  0.2379
69943SOL    HW127821   3.882   8.726   3.116 -0.5153 -0.0991 -0.2494
69943SOL    HW227822   3.976   8.826   3.052  0.2652 -1.2391 -0.9022
69944SOL     OW27823   5.459   9.131   8.378  0.3265  0.1595  0.3365
69944SOL    HW127824   5.457   9.050   8.428 -0.4873  0.6330  1.0924
69944SOL    HW227825   5.391   9.121   8.311  0.0688  0.3068  0.5753
69945SOL     OW27826  13.368  13.471   8.514 -0.1761 -0.4265 -0.6487
69945SOL    HW127827  13.361  13.421   8.433  0.7193  0.0474 -1.0356
69945SOL    HW227828  13.306  13.544   8.503  0.1331 -0.2177 -1.0179
69946SOL     OW27829   3.675   9.325   0.524 -0.4024 -0.0916 -0.6474
69946SOL    HW127830   3.630   9.356   0.445  0.0540 -0.8399 -1.2188
69946SOL    HW227831   3.604   9.305   0.585 -0.7460  0.8030 -0.7458
69947SOL     OW27832  12.716   2.374   9.987 -0.1202 -0.3384  0.0973
69947SOL    HW127833  12.769   2.377   9.907 -0.1424 -2.3017 -0.0434
69947SOL    HW227834  12.664   2.454   9.984 -0.9071 -0.8326 -2.4342
69948SOL     OW27835  13.591   6.876   3.026  0.0216  0.1359  0.2426
69948SOL    HW127836  13.525   6.900   3.091 -0.0292  3.2129 -0.7633
69948SOL    HW227837  13.540   6.858   2.946  0.2739 -0.2933  0.1741
69949SOL     OW27838   7.612   7.267  13.630 -0.0063 -0.2417  0.1078
69949SOL    HW127839   7.672   7.286  13.558 -0.8877  0.0379 -0.5592
69949SOL    HW227840   7.640   7.181  13.661  1.4549  0.3689  0.5506
69950SOL     OW27841   4.097   2.498  10.771  0.2625 -0.4033 -0.3909
69950SOL    HW127842   4.067   2.429  10.830 -0.1836 -1.0261 -1.3294
69950SOL    HW227843   4.043   2.574  10.794  1.3127 -0.0773  1.2135
69951SOL     OW27844   2.425  10.280   8.530  0.0113  0.3135 -0.0075
69951SOL    HW127845   2.499  10.233   8.568  0.9649  0.1678 -1.9042
69951SOL    HW227846   2.460  10.317   8.448 -1.6548  1.3797 -0.2870
69952SOL     OW27847   4.194  12.969   3.384 -0.0713  0.0353 -0.4494
69952SOL    HW127848   4.213  12.907   3.454  0.1294 -0.6124 -1.0775
69952SOL    HW227849   4.140  13.036   3.427 -1.4016 -1.2330 -0.0542
69953SOL     OW27850  13.164  11.750   4.916 -1.1175 -0.6135 -0.6324
69953SOL    HW127851  13.079  11.710   4.898 -0.8051 -2.3281  1.2472
69953SOL    HW227852  13.144  11.840   4.941 -2.0721 -0.1553 -2.7777
69954SOL     OW27853   3.288   2.814   4.839  0.2775  0.0598  0.0130
69954SOL    HW127854   3.305   2.908   4.848 -0.5024  0.2424 -0.3194
69954SOL    HW227855   3.373   2.777   4.816  0.3207  0.9074 -1.3414
69955SOL     OW27856   7.454   1.897   5.218  0.0062  0.7645 -0.0586
69955SOL    HW127857   7.432   1.813   5.258  2.2015  0.3327  0.3819
69955SOL    HW227858   7.375   1.950   5.228 -1.3223 -1.1378 -0.0838
69956SOL     OW27859   0.310   1.680   3.008 -0.3393  0.2403 -0.6763
69956SOL    HW127860   0.391   1.692   2.959  1.0789 -1.3061  1.1356
69956SOL    HW227861   0.254   1.753   2.980  1.4322  1.0398 -2.3844
69957SOL     OW27862   5.570  11.522   9.587  0.2768  0.2147  0.2274
69957SOL    HW127863   5.631  11.596   9.582 -0.2808  0.5825 -2.5643
69957SOL    HW227864   5.483  11.562   9.591  0.0345 -0.3222  0.4800
69958SOL     OW27865   3.841   0.955   9.916 -0.2510 -0.0508  0.4816
69958SOL    HW127866   3.762   0.914   9.953 -0.9745  1.5120  0.7610
69958SOL    HW227867   3.826   1.049   9.926  0.9150  0.3365 -1.0042
69959SOL     OW27868   4.884   7.180   3.868 -0.4434 -0.5622 -0.4149
69959SOL    HW127869   4.959   7.202   3.923  0.0943 -1.0019 -0.9557
69959SOL    HW227870   4.820   7.249   3.886  0.8140  0.9256 -1.3288
69960SOL     OW27871  12.425  12.174   9.962  0.1771 -0.0658 -0.4577
69960SOL    HW127872  12.408  12.151  10.054 -1.9092 -1.0276 -1.0134
69960SOL    HW227873  12.495  12.116   9.935  1.6097  1.0002  0.7916
69961SOL     OW27874   6.886   1.247   8.561  0.6621 -0.0587  0.0765
69961SOL    HW127875   6.904   1.155   8.541  2.0324 -0.0152  0.9804
69961SOL    HW227876   6.791   1.255   8.549  0.3914 -1.7758  0.6481
69962SOL     OW27877  10.973   9.764   1.996 -0.1325  0.3277 -0.4820
69962SOL    HW127878  10.953   9.684   1.947  1.0559  0.2194 -0.8182
69962SOL    HW227879  10.897   9.820   1.981 -0.1087  0.0251 -1.9073
69963SOL     OW27880   2.641   6.372  10.181  0.2308  0.4905  0.7045
69963SOL    HW127881   2.551   6.381  10.151  0.9637 -1.2650 -2.4752
69963SOL    HW227882   2.646   6.283  10.215  0.7693  0.5876  0.8977
69964SOL     OW27883   1.425  11.543   1.565 -0.2744 -0.4167 -0.2665
69964SOL    HW127884   1.381  11.460   1.546 -1.1837 -0.2994  1.1988
69964SOL    HW227885   1.355  11.601   1.594  0.8465 -0.3564  2.5999
69965SOL     OW27886   3.013   9.354   0.275  0.1312  0.1031 -0.4062
69965SOL    HW127887   2.988   9.298   0.202  0.1097  0.0309 -0.3442
69965SOL    HW227888   2.982   9.441   0.251 -1.4328 -0.2226  0.2737
69966SOL     OW27889   7.886   8.253   7.049 -0.1822  0.2576 -0.0881
69966SOL    HW127890   7.970   8.210   7.031  1.0377  0.5300  3.9745
69966SOL    HW227891   7.910   8.339   7.085 -2.2495  0.8057  0.1207
69967SOL     OW27892  10.664   2.900  13.046 -0.2797  0.3351 -0.1477
69967SOL    HW127893  10.698   2.988  13.030 -0.5311  0.4908  0.1506
69967SOL    HW227894  10.584   2.895  12.994 -0.4864  0.4329  0.1572
69968SOL     OW27895  12.510  12.621   6.631  0.4802 -0.1861 -0.0637
69968SOL    HW127896  12.565  12.667   6.568 -0.4020  0.9796 -0.0257
69968SOL    HW227897  12.441  12.581   6.578  0.3324 -0.0977  0.0618
69969SOL     OW27898   2.431  12.693   6.918 -0.2662  0.1983  0.2130
69969SOL    HW127899   2.379  12.682   6.839  0.2433  0.8317 -0.2244
69969SOL    HW227900   2.473  12.778   6.907  0.2007  0.0714  0.9382
69970SOL     OW27901   1.010  12.332   3.368 -0.0114  0.0425 -0.3183
69970SOL    HW127902   1.068  12.287   3.430 -0.8088 -0.7527 -0.1256
69970SOL    HW227903   0.965  12.398   3.420  0.0877  0.0863 -0.2868
69971SOL     OW27904   4.465   6.907   6.041 -0.0724 -0.1265 -0.2489
69971SOL    HW127905   4.555   6.934   6.025 -0.0068  0.1341  0.5140
69971SOL    HW227906   4.459   6.897   6.136 -0.4162 -1.6781 -0.4134
69972SOL     OW27907   6.999  13.887   7.710 -0.2357 -0.0590 -0.8890
69972SOL    HW127908   7.053  13.923   7.639 -0.4786  0.6584 -0.7154
69972SOL    HW227909   6.977  13.799   7.680  1.5822 -0.6399 -0.6750
69973SOL     OW27910   2.533  13.485   7.153  0.1513 -0.1553  0.3109
69973SOL    HW127911   2.473  13.441   7.214  0.5769 -0.8603  0.2419
69973SOL    HW227912   2.522  13.578   7.171 -0.6760 -0.2939  0.5654
69974SOL     OW27913  10.023   2.349   5.119 -0.0185  0.3796 -0.0768
69974SOL    HW127914  10.081   2.423   5.138 -0.8936  1.3240 -0.9567
69974SOL    HW227915  10.052   2.280   5.178 -0.1911  1.9275  1.9168
69975SOL     OW27916  11.061   0.562   0.507 -0.4850  0.0302  0.0710
69975SOL    HW127917  10.978   0.573   0.462  0.1675  1.3854 -0.8719
69975SOL    HW227918  11.074   0.644   0.555  0.7241  0.2111 -0.5317
69976SOL     OW27919   6.200   8.535   4.874  0.2520 -0.1704 -0.4162
69976SOL    HW127920   6.193   8.628   4.895  3.0417 -0.0937  0.5979
69976SOL    HW227921   6.173   8.529   4.782  0.8975  1.8046 -0.7920
69977SOL     OW27922   8.490   2.899   0.458  0.3263 -0.1311 -0.0276
69977SOL    HW127923   8.420   2.862   0.404 -0.3287  0.1249  0.6398
69977SOL    HW227924   8.445   2.949   0.525  1.1852  0.9610 -0.2415
69978SOL     OW27925  12.066   1.534   6.177  0.4749 -0.0961 -0.3669
69978SOL    HW127926  12.158   1.542   6.151  0.0471  0.7946 -1.7485
69978SOL    HW227927  12.020   1.515   6.095 -0.5273 -1.0185  0.3748
69979SOL     OW27928   8.796  10.776  13.558 -0.1689  0.2469 -0.0769
69979SOL    HW127929   8.725  10.801  13.499 -1.4115  0.4242  1.4271
69979SOL    HW227930   8.760  10.791  13.646  0.7176 -2.2806  0.8138
69980SOL     OW27931   6.408   1.116   1.212 -0.0108  0.4043 -0.1712
69980SOL    HW127932   6.423   1.185   1.148 -1.0841  0.2205 -0.6351
69980SOL    HW227933   6.457   1.144   1.289 -1.9464  2.6681  0.3376
69981SOL     OW27934   7.035   8.496  12.842 -0.6790  0.2976  0.2677
69981SOL    HW127935   7.078   8.514  12.759  0.2757  0.0809  0.6982
69981SOL    HW227936   7.020   8.401  12.841 -0.0725  0.1919  0.6067
69982SOL     OW27937   8.066   5.250  10.193  0.1263 -0.0780 -0.0618
69982SOL    HW127938   8.095   5.267  10.104  1.1708 -2.7169 -0.3395
69982SOL    HW227939   7.976   5.282  10.196  0.6366  1.6064 -1.5009
69983SOL     OW27940   2.471  10.863   0.928 -0.0548 -0.3916  0.2483
69983SOL    HW127941   2.552  10.866   0.877  0.6549 -0.8358  1.3132
69983SOL    HW227942   2.414  10.803   0.880  0.2411 -0.0700 -0.5122
69984SOL     OW27943   3.929  10.179   8.901 -0.2778  0.1826  0.3413
69984SOL    HW127944   3.988  10.244   8.938  0.9492 -0.1264 -0.9614
69984SOL    HW227945   3.952  10.098   8.945  1.5256 -0.2885 -1.3045
69985SOL     OW27946   4.734   9.394  12.217 -0.8332 -0.3579 -0.8169
69985SOL    HW127947   4.702   9.306  12.198 -2.0973 -0.2037  0.4723
69985SOL    HW227948   4.726   9.403  12.312 -0.9565  1.2349 -0.9577
69986SOL     OW27949  13.172   6.364   0.739  0.0266 -0.1591  0.2671
69986SOL    HW127950  13.133   6.364   0.826  1.3823  0.2453  0.8965
69986SOL    HW227951  13.224   6.444   0.736  2.1568 -1.4646  0.0968
69987SOL     OW27952  10.375   9.016  10.545 -0.3510  0.1280  0.2238
69987SOL    HW127953  10.459   9.061  10.551 -0.8803  1.0084  1.3784
69987SOL    HW227954  10.310   9.087  10.551 -1.2011 -0.7303  1.4846
69988SOL     OW27955   6.221   6.927   7.520  0.2383  0.3484 -0.3575
69988SOL    HW127956   6.279   6.968   7.584  0.6797  0.9145 -1.0940
69988SOL    HW227957   6.270   6.932   7.437 -1.2243  1.7401 -1.2056
69989SOL     OW27958   7.454   5.896   4.043 -0.7004  0.2354  0.2391
69989SOL    HW127959   7.406   5.860   4.118 -0.1723 -1.8117 -0.3337
69989SOL    HW227960   7.546   5.878   4.064 -0.3895  1.4873  0.0025
69990SOL     OW27961  12.312   4.424   0.812  0.2625 -0.0069  0.3060
69990SOL    HW127962  12.383   4.468   0.766  0.3691 -0.3180  0.1695
69990SOL    HW227963  12.354   4.377   0.884  0.2053 -0.2459  0.1850
69991SOL     OW27964  11.124   3.786  10.437  1.0072  0.6209 -0.4546
69991SOL    HW127965  11.061   3.850  10.403  1.1503  0.0789 -1.7982
69991SOL    HW227966  11.191   3.840  10.479  0.2211  1.2519  0.0300
69992SOL     OW27967   6.267   1.670   8.459 -0.2414 -0.7365 -0.2172
69992SOL    HW127968   6.325   1.732   8.415 -0.1854  0.4660  1.4589
69992SOL    HW227969   6.320   1.635   8.531 -0.2403 -2.8504 -1.1664
69993SOL     OW27970   9.909  10.617  13.597 -0.0306 -0.3545 -0.5845
69993SOL    HW127971   9.909  10.627  13.502 -1.1606  1.2923 -0.4572
69993SOL    HW227972   9.927  10.705  13.631 -0.3633 -0.7607  0.7196
69994SOL     OW27973   7.440  10.359   3.493 -0.2327 -0.1853 -0.5395
69994SOL    HW127974   7.425  10.378   3.586 -1.7160 -1.1099 -0.5558
69994SOL    HW227975   7.425  10.442   3.449  0.3813  0.2393  0.0373
69995SOL     OW27976   4.319   2.652  12.552  0.0344  0.8928 -0.3344
69995SOL    HW127977   4.304   2.558  12.543  0.5306  0.5073  2.1036
69995SOL    HW227978   4.410   2.659  12.581 -0.1753  2.0876  0.0854
69996SOL     OW27979   2.791   5.568   5.324  0.1154  0.3741  0.6992
69996SOL    HW127980   2.885   5.559   5.308  0.2265 -1.4394  2.0136
69996SOL    HW227981   2.762   5.479   5.345 -1.9580  0.8481  0.0804
69997SOL     OW27982  13.028   1.927   4.309  0.0174  0.5514  0.1789
69997SOL    HW127983  13.086   1.859   4.345 -0.1890  0.2619 -0.0333
69997SOL    HW227984  12.976   1.881   4.242  0.6906  1.1678 -0.7994
69998SOL     OW27985  13.617   3.057   4.794  0.2292 -0.1796 -0.3626
69998SOL    HW127986  13.675   2.990   4.756  0.2199 -0.5117  0.1948
69998SOL    HW227987  13.535   3.011   4.809  0.2198 -0.0398  0.0148
69999SOL     OW27988   0.994   2.611  14.157  0.0754 -0.3822 -0.0729
69999SOL    HW127989   0.905   2.617  14.191 -0.0996  0.7913 -0.6587
69999SOL    HW227990   0.994   2.531  14.104 -0.1051 -1.3376  1.3238
70000SOL     OW27991   9.697   2.207   7.333  0.5582  0.0054  0.0151
70000SOL    HW127992   9.753   2.230   7.407 -0.0923  0.6545  0.3132
70000SOL    HW227993   9.701   2.282   7.274  2.1111 -1.0181 -1.2765
70001SOL     OW27994  13.770   6.923  10.626  0.2585 -0.5616 -0.6111
70001SOL    HW127995  13.732   7.002  10.663 -0.5697  0.7059 -3.8383
70001SOL    HW227996  13.865   6.937  10.629  0.1125  0.7143 -1.4045
70002SOL     OW27997   4.110  11.232   3.069 -0.2082  0.0045 -0.1270
70002SOL    HW127998   4.104  11.297   2.999 -0.1237  0.6799  0.4711
70002SOL    HW227999   4.195  11.191   3.057 -0.2956 -0.0486 -0.5612
70003SOL     OW28000   1.895   5.781   1.523  0.1134  0.0106  0.1418
70003SOL    HW128001   1.907   5.687   1.510 -3.0218 -0.2953 -1.5976
70003SOL    HW228002   1.971   5.821   1.480  1.2175 -1.6726  0.4299
70004SOL     OW28003   1.194   8.108  10.862  0.4029  0.1290  0.1960
70004SOL    HW128004   1.218   8.162  10.786  1.4650  0.3488  0.6622
70004SOL    HW228005   1.112   8.146  10.894 -1.2715 -1.3250 -2.1067
70005SOL     OW28006   4.689   2.911  10.550  0.0292  0.0676  0.5361
70005SOL    HW128007   4.685   2.862  10.632  0.6314 -1.0029 -0.0503
70005SOL    HW228008   4.772   2.884  10.510 -0.2438  0.5801 -0.4093
70006SOL     OW28009   5.833   0.214   9.003 -0.4306  0.7454 -0.5384
70006SOL    HW128010   5.838   0.210   9.099  3.0675 -0.7856 -0.6274
70006SOL    HW228011   5.788   0.134   8.978 -1.4464  1.1977 -0.2154
70007SOL     OW28012   8.709   9.122  10.806 -0.1298 -0.2665 -0.0599
70007SOL    HW128013   8.667   9.162  10.882 -1.6975 -0.4629 -0.7942
70007SOL    HW228014   8.723   9.031  10.831  0.5932 -0.0183  0.4714
70008SOL     OW28015   9.131   2.174   1.948 -0.1196 -0.1572 -0.2150
70008SOL    HW128016   9.079   2.101   1.914  0.1031 -0.2409 -0.3789
70008SOL    HW228017   9.209   2.176   1.892  0.9969 -1.2659  1.2406
70009SOL     OW28018  13.378  10.326  13.706 -0.2524 -0.4990  0.1017
70009SOL    HW128019  13.306  10.330  13.769  0.2523 -0.5204  0.6799
70009SOL    HW228020  13.408  10.416  13.698  2.9163 -0.9792  3.6781
70010SOL     OW28021   4.186  10.441  13.416 -0.0045 -0.3421  0.1952
70010SOL    HW128022   4.217  10.410  13.331 -0.8539  0.2220 -0.3369
70010SOL    HW228023   4.251  10.410  13.478  1.6112  0.7856 -0.8590
70011SOL     OW28024  12.047   3.397   8.939  0.0229  0.2909 -0.3646
70011SOL    HW128025  12.033   3.340   9.015  0.7829 -0.0260 -0.4543
70011SOL    HW228026  12.105   3.346   8.882 -1.5053 -0.0073 -1.7400
70012SOL     OW28027  10.078  12.706  12.434 -0.1853  0.0899 -0.1064
70012SOL    HW128028  10.156  12.749  12.471 -1.4683  1.4974  1.0823
70012SOL    HW228029  10.095  12.703  12.340  1.2963  0.3883  0.1246
70013SOL     OW28030  11.482  12.354   1.815  0.2536 -0.4376  0.1488
70013SOL    HW128031  11.549  12.287   1.802  2.4863  1.5713  0.5725
70013SOL    HW228032  11.506  12.425   1.755 -3.2949 -0.7507 -1.9636
70014SOL     OW28033   8.458   0.758   9.351  0.3036 -0.3092 -0.5745
70014SOL    HW128034   8.445   0.667   9.377 -0.2398 -0.4500 -1.3207
70014SOL    HW228035   8.370   0.793   9.340  0.5152  0.0427 -1.1797
70015SOL     OW28036   1.696   7.861   9.388 -0.2847  0.5536 -0.2361
70015SOL    HW128037   1.626   7.894   9.332 -1.0202 -1.1596 -0.3857
70015SOL    HW228038   1.651   7.834   9.468 -0.0143 -1.6280 -0.7636
70016SOL     OW28039   0.594   3.847   4.185  0.1969 -0.1357  0.1950
70016SOL    HW128040   0.606   3.758   4.152  0.8194  0.1363 -0.3423
70016SOL    HW228041   0.652   3.852   4.261 -1.2080 -0.7501  1.3606
70017SOL     OW28042   1.997   2.587   0.467 -0.3328  0.7115  0.3688
70017SOL    HW128043   1.991   2.491   0.465 -1.2944  0.6966  1.9435
70017SOL    HW228044   1.990   2.613   0.375  0.4475 -0.7408 -0.1364
70018SOL     OW28045   3.979   8.872  11.104 -0.1070 -0.0612  0.0573
70018SOL    HW128046   3.981   8.786  11.062  0.4730 -0.8120  1.5625
70018SOL    HW228047   3.931   8.858  11.186  0.7780  0.8379  0.7572
70019SOL     OW28048   3.178   7.045   2.079 -0.5855  0.1639 -0.2038
70019SOL    HW128049   3.179   6.951   2.065 -0.8054  0.1186  0.0702
70019SOL    HW228050   3.193   7.056   2.173  3.6409  0.5493 -0.7574
70020SOL     OW28051   5.388  11.570   8.755  0.2091 -0.1313  0.3365
70020SOL    HW128052   5.481  11.569   8.730  0.3254 -1.1859  0.7469
70020SOL    HW228053   5.345  11.620   8.687  0.8817 -0.8052 -0.6106
70021SOL     OW28054   4.211   5.482   1.616  0.3211  0.1423 -0.0976
70021SOL    HW128055   4.302   5.508   1.600  0.4867 -0.0945  0.4324
70021SOL    HW228056   4.195   5.504   1.708  0.3339 -1.1741  0.2546
70022SOL     OW28057   8.447   9.805   5.955 -0.1910 -0.0193 -0.1909
70022SOL    HW128058   8.440   9.819   5.861 -1.1319  0.9212  0.0000
70022SOL    HW228059   8.438   9.710   5.966  3.0212 -0.5556 -1.2608
70023SOL     OW28060   9.970   4.824   2.167 -0.1650  0.5618  0.0990
70023SOL    HW128061   9.919   4.746   2.188 -1.1327  1.3370  0.7318
70023SOL    HW228062   9.978   4.822   2.071  0.1134 -0.4748  0.1294
70024SOL     OW28063   8.065  11.310   9.871  1.3048  0.6982 -0.3886
70024SOL    HW128064   8.113  11.290   9.791  0.1569  1.5240 -1.3240
70024SOL    HW228065   7.991  11.362   9.842  0.9245  1.1301  1.2425
70025SOL     OW28066   5.704   8.404   6.278  0.2013  0.0772  0.0514
70025SOL    HW128067   5.733   8.389   6.368 -0.5123 -1.6162  0.0219
70025SOL    HW228068   5.781   8.386   6.224 -0.2145 -2.2407  0.1288
70026SOL     OW28069   6.157   0.547  11.287  0.2932 -0.1110  0.9353
70026SOL    HW128070   6.154   0.457  11.320  0.5604  0.2390  1.9499
70026SOL    HW228071   6.249   0.573  11.297  0.2346  0.2565  0.5662
70027SOL     OW28072  10.507  10.230   8.214  0.2238  0.0681  0.1694
70027SOL    HW128073  10.489  10.144   8.176 -1.8806 -0.1334  1.5197
70027SOL    HW228074  10.513  10.215   8.308  1.2067  1.2185  0.3231
70028SOL     OW28075  13.475   8.611   7.459  0.5218 -0.4603 -0.2488
70028SOL    HW128076  13.394   8.655   7.434  0.9763  0.6739  0.2040
70028SOL    HW228077  13.480   8.535   7.400 -2.1344 -2.0570  1.3863
70029SOL     OW28078   6.883  10.697   2.843  0.0121  0.1382 -0.2017
70029SOL    HW128079   6.954  10.654   2.795  0.5225  0.6098  0.1126
70029SOL    HW228080   6.808  10.639   2.832  0.3826 -0.2486 -0.7460
70030SOL     OW28081   2.569   3.825   6.125 -0.3625 -0.0422 -0.1950
70030SOL    HW128082   2.498   3.887   6.138 -1.6610 -1.5655  0.3747
70030SOL    HW228083   2.564   3.800   6.033  1.2229  1.8576 -0.8631
70031SOL     OW28084   5.976   1.278   0.091  0.0337  0.1775  0.4370
70031SOL    HW128085   5.940   1.199   0.051  0.9003  0.5863 -1.2285
70031SOL    HW228086   5.905   1.341   0.088  0.0478  0.1671 -0.4037
70032SOL     OW28087   3.302   7.124   3.204  0.2589 -0.3024  0.4932
70032SOL    HW128088   3.252   7.053   3.244  0.7354 -0.4408  0.8538
70032SOL    HW228089   3.264   7.134   3.116  0.1067 -0.9160  0.4864
70033SOL     OW28090  11.311   5.504   4.480  0.1946 -0.5486 -0.0457
70033SOL    HW128091  11.324   5.571   4.413 -0.0102 -0.2559  0.2037
70033SOL    HW228092  11.242   5.539   4.536 -2.7040 -2.5832 -2.0396
70034SOL     OW28093   4.040   8.184  13.050  0.4920 -0.1493 -0.0924
70034SOL    HW128094   3.954   8.217  13.078 -0.0642 -2.2397  0.9473
70034SOL    HW228095   4.059   8.114  13.113  2.9538  0.2327 -0.3506
70035SOL     OW28096   0.635   1.048   6.797 -0.3967 -0.1844 -0.2858
70035SOL    HW128097   0.725   1.068   6.823  0.5336 -3.5399 -0.4541
70035SOL    HW228098   0.595   1.012   6.876 -0.6816 -1.2801 -0.9112
70036SOL     OW28099   5.186   6.752   8.707 -0.4052 -0.7232  0.0603
70036SOL    HW128100   5.278   6.758   8.734 -0.2666  0.7698 -0.6498
70036SOL    HW228101   5.136   6.767   8.787 -0.0300 -0.4210  0.2378
70037SOL     OW28102   5.404   3.777  11.428  0.5816  0.1501 -0.1920
70037SOL    HW128103   5.385   3.871  11.432  1.3337  0.3929 -1.7734
70037SOL    HW228104   5.318   3.735  11.424  0.2533  0.9100 -1.6536
70038SOL     OW28105  12.563   6.281   1.111 -0.1894 -0.1312 -0.2856
70038SOL    HW128106  12.523   6.345   1.171 -0.3476 -0.3550 -0.1480
70038SOL    HW228107  12.636   6.327   1.071 -0.6051  0.2896 -0.5566
70039SOL     OW28108   3.221   6.765   2.301 -0.3254  0.2180 -0.0374
70039SOL    HW128109   3.165   6.836   2.332 -0.2186  0.3032 -0.0385
70039SOL    HW228110   3.195   6.752   2.210 -0.8737 -0.2591  0.1781
70040SOL     OW28111  13.677   6.358  12.538  0.5466  0.6505  0.4805
70040SOL    HW128112  13.631   6.441  12.528 -1.1469 -0.4242 -1.3614
70040SOL    HW228113  13.770   6.381  12.531  0.1194  2.3749 -0.0524
70041SOL     OW28114   6.355   0.676  12.228  0.0673  0.0479 -0.1801
70041SOL    HW128115   6.382   0.586  12.244  0.4291  0.1279 -0.3448
70041SOL    HW228116   6.423   0.713  12.171 -1.6753 -0.5662 -2.8769
70042SOL     OW28117   8.282  11.302   4.570  0.6916  0.4230  0.1331
70042SOL    HW128118   8.221  11.281   4.499  0.6299 -0.0184  0.3123
70042SOL    HW228119   8.237  11.369   4.621  1.3042  1.7608 -1.0134
70043SOL     OW28120   5.550   4.689  12.735 -0.3112 -0.2235  0.3978
70043SOL    HW128121   5.589   4.687  12.823 -2.3665  3.2413  1.6128
70043SOL    HW228122   5.462   4.654  12.747 -0.1731 -0.9341 -0.5985
70044SOL     OW28123  13.928   1.130   4.798  0.1623 -0.3120  0.3860
70044SOL    HW128124  13.964   1.097   4.880 -1.2650 -0.6874  0.8981
70044SOL    HW228125  13.920   1.053   4.742 -0.0102 -0.2621  0.3410
70045SOL     OW28126   3.646   7.650   3.000 -0.0795 -0.1307 -0.3887
70045SOL    HW128127   3.573   7.706   3.027  0.4198  0.2787  0.1430
70045SOL    HW228128   3.605   7.570   2.967 -0.7887  0.4134 -0.8381
70046SOL     OW28129   2.981  12.612   5.359 -0.1970  0.1259  0.6138
70046SOL    HW128130   3.043  12.555   5.313 -0.1180  1.4354 -1.0012
70046SOL    HW228131   2.936  12.555   5.420  0.4354 -1.4891 -0.3755
70047SOL     OW28132   8.911   4.443   5.922 -0.6497 -0.0567 -0.3504
70047SOL    HW128133   8.951   4.357   5.909 -0.5594 -0.1945  0.6965
70047SOL    HW228134   8.911   4.455   6.017  0.6699  1.7336 -0.5268
70048SOL     OW28135   7.664   7.589  10.541 -0.5921 -0.9063  0.5711
70048SOL    HW128136   7.607   7.641  10.485  0.9951 -0.3416 -0.5746
70048SOL    HW228137   7.630   7.499  10.534 -1.6184 -0.5042  0.3088
70049SOL     OW28138  10.586  12.937   6.008 -0.3404  0.0159 -0.6443
70049SOL    HW128139  10.602  12.863   6.068  0.2442  0.7981  0.1882
70049SOL    HW228140  10.639  12.918   5.931 -0.2865 -0.4928 -0.4842
70050SOL     OW28141   9.245   3.181   2.740  0.0040  0.2252 -1.5367
70050SOL    HW128142   9.227   3.088   2.750 -1.7469  0.5799 -0.9808
70050SOL    HW228143   9.306   3.202   2.811  0.6566 -0.5439 -1.8604
70051SOL     OW28144  12.544  13.949   5.536 -0.0158  0.1015 -0.6786
70051SOL    HW128145  12.449  13.957   5.538 -0.3077 -2.4938 -0.6598
70051SOL    HW228146  12.565  13.925   5.446  0.6474  0.6677 -0.6877
70052SOL     OW28147  11.380   1.403   8.239  0.0242 -0.2461 -0.4696
70052SOL    HW128148  11.307   1.419   8.179  0.7423  0.9857 -1.0557
70052SOL    HW228149  11.346   1.339   8.302 -2.4607  2.1742  0.8750
70053SOL     OW28150   0.787   7.480   8.401  0.1615 -0.0107  0.7714
70053SOL    HW128151   0.778   7.573   8.377  1.7420 -0.1046 -0.3357
70053SOL    HW228152   0.700   7.455   8.433 -0.7876  1.3950 -0.5586
70054SOL     OW28153   7.927   2.147  10.978  0.7119  0.6387  0.1114
70054SOL    HW128154   7.966   2.159  11.065 -1.2952  1.5784  0.9478
70054SOL    HW228155   7.834   2.165  10.991 -0.7603 -4.4336 -1.1087
70055SOL     OW28156   6.471   6.164   4.508  0.0195 -0.1114 -0.0882
70055SOL    HW128157   6.432   6.078   4.495 -0.1729 -0.6495  3.1408
70055SOL    HW228158   6.422   6.222   4.449 -2.6367 -1.5408  0.5532
70056SOL     OW28159   8.902  13.001   9.349 -0.8946 -0.2779 -0.1846
70056SOL    HW128160   8.986  13.017   9.393 -0.5498 -1.2692 -0.4604
70056SOL    HW228161   8.850  12.954   9.414 -0.6483 -1.0969 -0.5759
70057SOL     OW28162   3.094  12.641  10.304  0.1694 -0.0945  0.1143
70057SOL    HW128163   3.159  12.644  10.234  1.1424 -1.5392  0.8895
70057SOL    HW228164   3.106  12.723  10.353  2.5248 -0.9661  1.1419
70058SOL     OW28165   7.506   5.048  13.981  0.3080  0.0140 -0.3783
70058SOL    HW128166   7.432   5.017  14.033  0.2053  0.5274 -0.2168
70058SOL    HW228167   7.573   4.981  13.992 -1.8315 -3.3567 -4.7100
70059SOL     OW28168   6.353   0.531   2.072  0.1696 -0.0331 -0.1905
70059SOL    HW128169   6.340   0.623   2.048 -0.3702  0.1679  0.7901
70059SOL    HW228170   6.282   0.484   2.028  1.0648 -0.1549 -1.5572
70060SOL     OW28171  12.195   9.584   0.134  0.3711  0.2400  0.3848
70060SOL    HW128172  12.168   9.589   0.042  0.6225  1.0106  0.3499
70060SOL    HW228173  12.124   9.536   0.177 -0.5658  1.3365  0.1012
70061SOL     OW28174   3.938   3.277   1.648 -0.7517 -0.1856  0.1182
70061SOL    HW128175   3.918   3.363   1.611 -1.5045 -0.3360  0.1511
70061SOL    HW228176   3.883   3.217   1.598  0.6965 -0.8178 -0.7524
70062SOL     OW28177  10.258  10.627   6.679  0.2899  0.5598  0.3833
70062SOL    HW128178  10.293  10.607   6.592 -0.8221 -1.7849  0.3911
70062SOL    HW228179  10.336  10.638   6.734  1.0154 -0.2286 -0.4558
70063SOL     OW28180   4.629   7.897   4.302 -0.1498 -0.4574  0.1221
70063SOL    HW128181   4.590   7.957   4.367  2.0988  1.3079 -0.0397
70063SOL    HW228182   4.705   7.861   4.346 -0.6665 -2.1626 -0.3118
70064SOL     OW28183   7.603   7.479   6.290 -0.3027  0.0402 -0.1992
70064SOL    HW128184   7.565   7.500   6.205  0.0092 -0.1148 -0.3760
70064SOL    HW228185   7.695   7.506   6.283 -0.0802 -0.6855 -0.1761
70065SOL     OW28186  10.601  10.146   5.033 -0.3078  0.0345 -0.7323
70065SOL    HW128187  10.667  10.104   4.977 -1.7193 -1.0244 -1.6620
70065SOL    HW228188  10.603  10.094   5.114  1.1771  1.0838 -0.0394
70066SOL     OW28189  13.113  10.948   6.227  0.2063 -0.1122 -0.2000
70066SOL    HW128190  13.090  11.021   6.169 -1.5042 -0.2104  0.2989
70066SOL    HW228191  13.122  10.873   6.170  1.3821  0.3408 -0.6476
70067SOL     OW28192   0.524   5.999  11.780  0.0364  0.1165 -0.1421
70067SOL    HW128193   0.532   5.913  11.822  0.7840 -0.0961 -0.6969
70067SOL    HW228194   0.569   6.059  11.840 -2.3321  0.5331  1.3364
70068SOL     OW28195   0.969   4.088   2.150  0.1192 -0.7569 -0.1385
70068SOL    HW128196   0.988   3.996   2.164 -0.9123 -1.3340 -2.1398
70068SOL    HW228197   0.949   4.095   2.056 -5.3033  0.4097  0.7400
70069SOL     OW28198   7.416  14.011   6.810 -0.1830  0.4934  0.7005
70069SOL    HW128199   7.324  14.027   6.829 -0.4579 -0.8980  0.6379
70069SOL    HW228200   7.421  13.917   6.794  1.2257  0.5763  0.5494
70070SOL     OW28201  11.710  12.383  12.221 -0.1645  0.1305  0.0530
70070SOL    HW128202  11.720  12.321  12.149 -1.9598  0.2612 -0.3592
70070SOL    HW228203  11.620  12.416  12.213 -0.9086 -0.7799  3.0716
70071SOL     OW28204  12.440   9.036  12.969 -0.2097  0.1213 -0.7187
70071SOL    HW128205  12.364   9.065  13.020 -1.1444  0.0230 -1.9842
70071SOL    HW228206  12.477   8.964  13.019  0.2886  1.4606  0.9368
70072SOL     OW28207   8.254   6.134  12.848  0.0754 -0.2338 -0.0002
70072SOL    HW128208   8.255   6.163  12.757 -0.0314  4.0157  1.1149
70072SOL    HW228209   8.346   6.120  12.870  0.0662 -1.6873 -0.8180
70073SOL     OW28210   3.737   4.539   0.480 -0.1683 -0.1762  0.1229
70073SOL    HW128211   3.823   4.580   0.494 -0.6284  0.6908  0.4751
70073SOL    HW228212   3.724   4.543   0.385  0.0771 -0.1022  0.0918
70074SOL     OW28213   8.807   8.306  13.315 -0.4823  0.1723  0.5970
70074SOL    HW128214   8.793   8.400  13.306  0.7911  0.4537  1.3516
70074SOL    HW228215   8.822   8.276  13.225 -1.3948  0.5983  0.2963
70075SOL     OW28216   6.797   8.112   5.364 -0.4665 -0.4982  0.4896
70075SOL    HW128217   6.761   8.047   5.425 -1.4588  0.1890  0.6619
70075SOL    HW228218   6.736   8.185   5.368  0.7035  0.5172  0.3939
70076SOL     OW28219   6.160   3.513  12.536 -0.5901 -0.7549  0.1717
70076SOL    HW128220   6.228   3.543  12.477 -1.6035  1.9205  0.2163
70076SOL    HW228221   6.080   3.514  12.483 -0.8535 -2.7480  0.4289
70077SOL     OW28222   0.332   1.171   2.836 -0.0290 -0.3930  0.0864
70077SOL    HW128223   0.367   1.139   2.753  0.2863 -1.2424  0.5321
70077SOL    HW228224   0.405   1.160   2.898 -0.9733 -1.9405  0.9700
70078SOL     OW28225   2.774   6.982   8.185 -0.0955  0.4275 -0.4102
70078SOL    HW128226   2.694   6.937   8.210 -0.5033  0.6921 -1.1907
70078SOL    HW228227   2.746   7.072   8.168  0.2651  0.3978 -1.1925
70079SOL     OW28228   3.678   9.504   4.130  0.0890  0.8051 -0.1631
70079SOL    HW128229   3.732   9.571   4.171 -1.2125  2.3174 -0.8126
70079SOL    HW228230   3.733   9.467   4.061 -0.2783  3.7403 -2.1904
70080SOL     OW28231  11.372   6.219  11.144 -0.0939 -0.2192  0.0101
70080SOL    HW128232  11.397   6.286  11.081 -0.3694 -0.4128 -0.3153
70080SOL    HW228233  11.276   6.220  11.143 -0.1399 -1.6322 -1.1344
70081SOL     OW28234   5.581   4.311   4.185 -0.1172 -0.2120 -0.0721
70081SOL    HW128235   5.520   4.334   4.255 -0.7988  0.1160 -0.7468
70081SOL    HW228236   5.541   4.349   4.106  0.6424 -0.5480 -0.6292
70082SOL     OW28237   3.760  10.656  12.928  0.7850 -0.0840 -0.5336
70082SOL    HW128238   3.787  10.741  12.961 -0.0409 -0.5755  1.5837
70082SOL    HW228239   3.813  10.593  12.977 -0.8088 -0.8688  0.2535
70083SOL     OW28240   7.611  11.791   8.215 -0.0015 -0.2750  0.0580
70083SOL    HW128241   7.622  11.704   8.254 -1.6148 -1.0705 -1.1167
70083SOL    HW228242   7.660  11.786   8.132 -0.5076 -0.2599 -0.2477
70084SOL     OW28243  12.197   9.329   5.145  0.0810 -0.1068 -0.1153
70084SOL    HW128244  12.142   9.268   5.095 -0.3067  0.1736 -0.0321
70084SOL    HW228245  12.250   9.372   5.078  1.1160 -1.2771 -0.0875
70085SOL     OW28246  10.995   4.201  13.217  0.6119  0.0134  0.0673
70085SOL    HW128247  10.995   4.185  13.311  0.8400  0.5275  0.1618
70085SOL    HW228248  10.919   4.153  13.184 -1.8832  2.8710  1.0788
70086SOL     OW28249   5.716   1.890   6.641 -0.0091  0.4715 -0.2311
70086SOL    HW128250   5.709   1.982   6.614  0.5141  0.5420 -0.1354
70086SOL    HW228251   5.655   1.844   6.583 -0.1451  0.8534 -0.3974
70087SOL     OW28252  12.118  12.114  11.786  0.7617  0.0906  0.6739
70087SOL    HW128253  12.054  12.086  11.852  1.2662 -0.6036  0.8905
70087SOL    HW228254  12.117  12.209  11.790 -2.0536  0.2419 -1.0635
70088SOL     OW28255  13.939   9.037   0.493  0.8140 -0.1785  0.0896
70088SOL    HW128256  13.975   8.949   0.499 -0.9345 -1.0291 -1.2088
70088SOL    HW228257  13.845   9.026   0.506  0.3438  1.2537 -1.6578
70089SOL     OW28258  11.595   5.261   3.510 -0.5416  0.0515  1.0672
70089SOL    HW128259  11.596   5.333   3.574 -0.2778  0.4186  0.6514
70089SOL    HW228260  11.650   5.193   3.550 -1.2685 -0.1708  1.7336
70090SOL     OW28261   0.479   3.296   7.357 -0.4552  0.0874  0.3097
70090SOL    HW128262   0.507   3.357   7.425 -0.3028 -0.7097  0.9815
70090SOL    HW228263   0.392   3.267   7.386  0.3065 -1.5470  1.0894
70091SOL     OW28264   0.627   9.391   9.889 -0.4860 -0.1996 -0.1407
70091SOL    HW128265   0.612   9.435   9.806  2.2023 -1.5861 -1.5018
70091SOL    HW228266   0.590   9.304   9.877  1.1379 -0.8765 -0.4773
70092SOL     OW28267   8.383  10.822   1.185  0.5055 -0.2755 -0.3047
70092SOL    HW128268   8.401  10.756   1.118  0.7602 -0.2800 -0.2341
70092SOL    HW228269   8.288  10.831   1.186  0.5020 -0.2651 -0.6781
70093SOL     OW28270  10.619   6.594   8.714 -0.3008  0.1018  0.2751
70093SOL    HW128271  10.643   6.686   8.726  0.2594  0.0556 -0.3878
70093SOL    HW228272  10.700   6.553   8.682 -0.5809 -0.5942  0.4543
70094SOL     OW28273   1.325   0.301   8.222  0.3653 -0.7013 -0.7055
70094SOL    HW128274   1.308   0.388   8.258  2.1858 -0.3838 -0.5178
70094SOL    HW228275   1.238   0.263   8.209 -0.4741  1.2516 -1.0983
70095SOL     OW28276   7.837  10.979   6.434  0.9722 -0.1645  0.4669
70095SOL    HW128277   7.797  10.893   6.423  1.8161 -0.4382 -0.7545
70095SOL    HW228278   7.925  10.960   6.469  1.2554  0.1783 -0.0485
70096SOL     OW28279   5.798   0.156   0.393 -0.3848  0.6234  0.0167
70096SOL    HW128280   5.738   0.230   0.409 -0.2456  0.8406 -0.4388
70096SOL    HW228281   5.746   0.078   0.413 -0.4625  0.8508  0.7284
70097SOL     OW28282   5.464   6.530  13.344  0.6730  0.0976 -0.4950
70097SOL    HW128283   5.419   6.466  13.290 -2.5930  2.8120 -1.3068
70097SOL    HW228284   5.536   6.562  13.289 -1.2366  1.2093 -2.4698
70098SOL     OW28285   7.115   7.844   1.340  0.1330  0.0098  0.0540
70098SOL    HW128286   7.082   7.880   1.258 -0.4632 -1.3492 -0.3384
70098SOL    HW228287   7.113   7.749   1.327  2.2850 -0.1745  0.7957
70099SOL     OW28288   6.178  13.736   0.596  0.1292  0.0261 -0.0273
70099SOL    HW128289   6.090  13.719   0.562 -0.2268 -1.8133  1.6381
70099SOL    HW228290   6.162  13.780   0.680  0.8559  0.6582 -0.2104
70100SOL     OW28291   8.297  11.837  10.905 -0.2570  0.1985 -0.1643
70100SOL    HW128292   8.371  11.890  10.877  0.9498 -1.3231  0.0282
70100SOL    HW228293   8.242  11.830  10.826 -0.0922  1.1069 -0.3792
70101SOL     OW28294   9.491   9.399  12.899 -0.1715  0.6246  0.0497
70101SOL    HW128295   9.511   9.325  12.956  2.0119  0.3535 -0.9719
70101SOL    HW228296   9.433   9.363  12.832  0.1369  0.0490  0.0867
70102SOL     OW28297   0.910   7.126   1.238  0.1306  0.3660 -0.3465
70102SOL    HW128298   0.902   7.166   1.324  0.3767 -0.8864  0.2845
70102SOL    HW228299   0.839   7.166   1.187 -2.6171 -1.6259  1.5769
70103SOL     OW28300   4.404   6.746   4.326  0.2411 -0.4049 -0.4145
70103SOL    HW128301   4.473   6.708   4.380  0.8164  0.2562 -0.6546
70103SOL    HW228302   4.383   6.829   4.368  2.8362  1.6244 -2.7038
70104SOL     OW28303  11.701  12.339   8.233 -0.2455 -0.0916  0.5724
70104SOL    HW128304  11.666  12.426   8.215  0.8304  0.3816  0.6649
70104SOL    HW228305  11.796  12.349   8.221  0.0388 -0.8993  1.9582
70105SOL     OW28306   8.779  12.074   5.354 -0.4523 -0.3086 -0.0490
70105SOL    HW128307   8.817  12.161   5.335 -0.1776  0.3222  2.8988
70105SOL    HW228308   8.823  12.015   5.293  1.0334  1.3075 -0.6327
70106SOL     OW28309   1.322   4.693   0.418 -0.1520  0.8216  0.2981
70106SOL    HW128310   1.229   4.708   0.401 -0.7115 -2.3070 -0.1056
70106SOL    HW228311   1.363   4.694   0.331 -0.7659 -2.4170 -0.1883
70107SOL     OW28312  13.234   6.373   0.233 -0.3743  0.3298 -0.3067
70107SOL    HW128313  13.212   6.296   0.181  0.5859  0.3135 -0.7263
70107SOL    HW228314  13.252   6.339   0.320 -0.4875  0.1498 -0.3538
70108SOL     OW28315  10.661   3.565   1.568 -0.2091 -0.4810 -0.2285
70108SOL    HW128316  10.591   3.524   1.517  0.2018 -2.1810  0.4991
70108SOL    HW228317  10.668   3.511   1.647  1.6740 -0.1358 -0.1188
70109SOL     OW28318  13.233   8.394  10.096  0.2706  0.2563  0.3006
70109SOL    HW128319  13.149   8.408  10.139 -0.8152 -0.8915 -1.3255
70109SOL    HW228320  13.264   8.310  10.131  0.4317  0.3701  0.4304
70110SOL     OW28321   2.135  13.897   9.692 -0.4001  0.2036  0.0782
70110SOL    HW128322   2.071  13.966   9.713 -0.9191 -0.2109 -0.1227
70110SOL    HW228323   2.190  13.891   9.771  0.2298  1.4665 -0.2398
70111SOL     OW28324   4.207  13.301   1.679  0.2553 -0.1667  0.3817
70111SOL    HW128325   4.142  13.354   1.634  0.2945  0.6383  1.2412
70111SOL    HW228326   4.289  13.318   1.632  0.1330  0.0109  0.2320
70112SOL     OW28327   3.720  12.779   8.768  0.4567  0.0201 -0.2200
70112SOL    HW128328   3.697  12.850   8.828  0.5434  0.4567 -0.6969
70112SOL    HW228329   3.676  12.702   8.804  0.1663  0.3634  0.1703
70113SOL     OW28330   9.640  13.632   7.582  0.0334 -0.0940 -0.4178
70113SOL    HW128331   9.625  13.642   7.488 -1.7591  1.7442 -0.0205
70113SOL    HW228332   9.554  13.606   7.617  0.3249  0.5804  0.8593
70114SOL     OW28333  10.240   2.132   3.025  0.4334 -0.3109 -0.0505
70114SOL    HW128334  10.165   2.191   3.019  0.5132  0.0363  1.8039
70114SOL    HW228335  10.296   2.157   2.951  0.5577  2.0885  0.7653
70115SOL     OW28336  13.625   1.620  13.016  0.2781  0.0118 -0.5480
70115SOL    HW128337  13.533   1.600  12.999  0.2268 -2.7427  2.1115
70115SOL    HW228338  13.624   1.681  13.089  0.3410 -3.3989  2.5952
70116SOL     OW28339   8.564  10.086  12.370 -0.1843 -0.1813 -0.0541
70116SOL    HW128340   8.617  10.071  12.292 -0.0521 -0.7483  0.1382
70116SOL    HW228341   8.602  10.164  12.411  1.5243 -1.4405  0.9176
70117SOL     OW28342  11.772   3.296   6.988 -0.2908 -0.3039  0.1110
70117SOL    HW128343  11.826   3.349   6.929 -0.5100 -0.3838 -0.1595
70117SOL    HW228344  11.783   3.339   7.074 -0.1370 -0.0665 -0.0246
70118SOL     OW28345   4.569  12.534   7.715 -0.1786  0.3151 -0.1837
70118SOL    HW128346   4.547  12.623   7.688 -0.3062 -0.0442 -1.3245
70118SOL    HW228347   4.561  12.535   7.810  2.1083  2.1264  0.0745
70119SOL     OW28348  11.999   9.467   0.289 -0.0621  0.4684  0.4865
70119SOL    HW128349  11.915   9.473   0.334 -1.2592 -1.0632 -1.3890
70119SOL    HW228350  12.029   9.378   0.305 -1.0102 -0.4848 -2.3465
70120SOL     OW28351   0.159   3.708  11.475 -0.0470 -0.0059  0.1686
70120SOL    HW128352   0.074   3.665  11.466  0.2563 -0.4221 -0.7741
70120SOL    HW228353   0.163   3.732  11.568 -1.0392 -0.2912  0.3036
70121SOL     OW28354  12.050   8.462   6.852  0.0388 -0.4136  0.0108
70121SOL    HW128355  12.105   8.401   6.902  1.1359  0.5987  0.0806
70121SOL    HW228356  12.106   8.539   6.839 -1.9881  1.4326  1.6616
70122SOL     OW28357   6.837   4.000   6.857  0.4538 -0.1630  0.0241
70122SOL    HW128358   6.845   3.933   6.789 -0.6737  1.3132 -1.6460
70122SOL    HW228359   6.744   4.020   6.860  0.4102 -0.4770  2.3539
70123SOL     OW28360   0.695   6.849   5.262 -0.2301  0.2948  0.0595
70123SOL    HW128361   0.681   6.835   5.168 -3.4769  2.2355  0.1122
70123SOL    HW228362   0.687   6.762   5.301  0.0650 -0.3733 -1.3111
70124SOL     OW28363   6.738   1.568   7.630  0.6590  0.0869 -0.0379
70124SOL    HW128364   6.720   1.661   7.641 -0.4347 -0.2641  1.2883
70124SOL    HW228365   6.831   1.565   7.605  0.1261  1.6458 -2.5456
70125SOL     OW28366   1.031  13.389   3.430 -0.1968 -0.2879  0.1421
70125SOL    HW128367   0.948  13.369   3.472  0.2135 -1.0071  0.6092
70125SOL    HW228368   1.040  13.484   3.438 -2.2252  0.2154 -2.2313
70126SOL     OW28369   4.697   4.649   3.813  0.2892 -0.2501 -0.8456
70126SOL    HW128370   4.630   4.674   3.750  0.0480 -0.8520 -0.8280
70126SOL    HW228371   4.652   4.594   3.876  0.7345 -0.4128 -0.6638
70127SOL     OW28372  10.427   2.994   1.428  0.1987 -0.6629 -0.3152
70127SOL    HW128373  10.479   2.932   1.377  2.6801  0.8145  0.2774
70127SOL    HW228374  10.491   3.052   1.469 -1.7936 -0.2014  2.4674
70128SOL     OW28375  10.461   9.480  13.259  0.4518 -0.2447  0.1906
70128SOL    HW128376  10.406   9.552  13.289  1.1914  0.3905  0.0618
70128SOL    HW228377  10.427   9.403  13.305 -1.2634 -0.0969 -0.7593
70129SOL     OW28378  11.729   5.858   0.304 -0.3816 -0.5773  0.5929
70129SOL    HW128379  11.760   5.883   0.390  0.5913  0.3004  0.0086
70129SOL    HW228380  11.790   5.899   0.243 -2.4233  0.8933 -0.6127
70130SOL     OW28381   6.676   0.948  12.970  0.2664  0.1380  0.3023
70130SOL    HW128382   6.648   0.913  12.885 -2.5153  2.1852  0.2275
70130SOL    HW228383   6.740   0.885  13.003 -2.6014 -3.6803 -0.8174
70131SOL     OW28384   4.648   6.318  11.880 -0.1584  0.4573  0.6193
70131SOL    HW128385   4.588   6.257  11.922 -0.2189 -1.1344 -1.5884
70131SOL    HW228386   4.734   6.291  11.910 -0.3006  0.3117  0.9016
70132SOL     OW28387  13.957  11.053   8.596 -0.5706  0.4713 -0.0361
70132SOL    HW128388  14.041  11.082   8.562  0.1951 -0.3226  1.0987
70132SOL    HW228389  13.896  11.067   8.524  0.4109  1.6126 -0.6802
70133SOL     OW28390   8.353  12.892  10.554 -0.3869  0.0002  0.2864
70133SOL    HW128391   8.298  12.957  10.510 -3.4281 -1.7319  1.2036
70133SOL    HW228392   8.331  12.901  10.647  0.9637 -0.7734  0.7118
70134SOL     OW28393  14.105   3.745   8.473  0.1706 -0.4246 -0.7388
70134SOL    HW128394  14.163   3.816   8.500 -1.1542 -0.3902  2.4548
70134SOL    HW228395  14.126   3.672   8.532 -2.3663 -0.6834 -0.0244
70135SOL     OW28396  11.149   6.347   9.304 -0.4212 -0.1989 -0.4499
70135SOL    HW128397  11.175   6.270   9.253 -3.3358 -0.3353 -1.9468
70135SOL    HW228398  11.054   6.352   9.293 -0.9838  0.9245  3.4696
70136SOL     OW28399   5.951   5.352   4.012 -0.7175  0.8811 -0.3304
70136SOL    HW128400   5.989   5.330   3.927 -0.4184  0.9830 -0.2268
70136SOL    HW228401   6.015   5.411   4.052 -0.5955  0.4195  0.1781
70137SOL     OW28402   5.325   9.752   1.561  0.2443 -0.2132  0.3752
70137SOL    HW128403   5.366   9.678   1.606 -0.5932 -0.2519  1.1246
70137SOL    HW228404   5.242   9.765   1.608 -0.2113  0.3805 -0.5593
70138SOL     OW28405  13.983  11.917   8.017  0.7408 -0.1455 -0.0582
70138SOL    HW128406  14.056  11.945   7.962 -0.2359  1.2642 -0.6817
70138SOL    HW228407  13.998  11.961   8.101 -0.3106  1.5960 -0.7519
70139SOL     OW28408  11.310   7.107   0.975 -0.4186 -0.0914 -0.0152
70139SOL    HW128409  11.340   7.016   0.966  0.6823  0.3839 -1.4300
70139SOL    HW228410  11.281   7.131   0.887  0.3040  1.2685  0.0981
70140SOL     OW28411  12.559  12.726  11.008 -0.5387 -0.3929 -0.3540
70140SOL    HW128412  12.521  12.801  10.963 -0.4569  0.5242  1.0570
70140SOL    HW228413  12.651  12.748  11.020 -0.8633  0.0903  1.5899
70141SOL     OW28414   1.191   9.468   7.595  0.1937  0.4253  0.1450
70141SOL    HW128415   1.126   9.517   7.544 -0.1906  0.4712  0.6693
70141SOL    HW228416   1.175   9.377   7.571  0.8504  0.5336 -0.7634
70142SOL     OW28417   3.908   4.431   5.703 -0.3252  0.2989 -0.6714
70142SOL    HW128418   3.836   4.378   5.669 -0.0728 -0.3237 -0.2399
70142SOL    HW228419   3.986   4.376   5.694 -0.4290 -0.4438  2.0976
70143SOL     OW28420  12.518   4.226   8.990  0.6884 -0.2688 -0.8999
70143SOL    HW128421  12.577   4.163   8.948  0.9887 -0.4535 -0.2324
70143SOL    HW228422  12.458   4.171   9.042  0.6066 -0.0335 -0.7465
70144SOL     OW28423  13.205   7.518   2.333  0.1740  0.1603  0.2877
70144SOL    HW128424  13.138   7.452   2.349  0.4744  0.1061  1.4240
70144SOL    HW228425  13.246   7.492   2.251 -1.7652  0.6934 -0.9016
70145SOL     OW28426  11.117   7.712   7.698  0.1125  0.8015 -0.4314
70145SOL    HW128427  11.090   7.769   7.770  0.1453  0.9924 -0.5694
70145SOL    HW228428  11.052   7.727   7.630 -0.7404 -0.4384  0.0786
70146SOL     OW28429   1.589  13.587  10.415  0.5911 -0.3081  0.2330
70146SOL    HW128430   1.553  13.513  10.464  0.1334  0.9424  1.8733
70146SOL    HW228431   1.676  13.558  10.387  1.4390 -0.6752  2.9494
70147SOL     OW28432  11.829   0.437   0.878  0.2723  0.3855  0.1740
70147SOL    HW128433  11.862   0.368   0.935  0.0326  1.5926  1.8506
70147SOL    HW228434  11.903   0.460   0.822  0.6786 -0.4787  0.3496
70148SOL     OW28435   5.816   4.290   6.649 -0.3882 -0.6003  0.1040
70148SOL    HW128436   5.786   4.343   6.723  0.2685 -0.4235  0.2542
70148SOL    HW228437   5.902   4.326   6.627 -0.9635 -0.0816 -1.3382
70149SOL     OW28438   6.952   8.958  11.653 -0.3542  0.4947 -0.3842
70149SOL    HW128439   6.907   9.042  11.662 -2.6695 -0.8820  3.0193
70149SOL    HW228440   7.019   8.960  11.721 -0.4578 -0.4431 -0.2514
70150SOL     OW28441   0.663   8.652   6.473 -0.7076 -0.4993 -0.1484
70150SOL    HW128442   0.570   8.661   6.490 -0.6970 -0.1628 -0.2425
70150SOL    HW228443   0.705   8.710   6.537 -0.5674 -0.6134 -0.1352
70151SOL     OW28444  12.950   2.905   9.545  0.0297 -0.3328 -0.2580
70151SOL    HW128445  12.943   2.834   9.481  0.3696 -1.4307  0.8933
70151SOL    HW228446  13.037   2.943   9.529 -0.1090 -0.2405 -0.8056
70152SOL     OW28447   9.166   3.355   1.956 -0.0827 -0.1271  0.2374
70152SOL    HW128448   9.174   3.272   2.003  0.0590 -0.4058 -0.2664
70152SOL    HW228449   9.144   3.329   1.866 -1.6109  0.4403  0.4216
70153SOL     OW28450  11.851  10.409   5.115  0.4414  0.1907 -0.2365
70153SOL    HW128451  11.815  10.323   5.136  0.0755 -0.3448 -2.7909
70153SOL    HW228452  11.834  10.421   5.022 -0.0860  3.3394  0.1557
70154SOL     OW28453  11.214  13.296  12.179 -0.5360  0.2803  0.6471
70154SOL    HW128454  11.286  13.359  12.191  1.1443 -1.3079 -0.6359
70154SOL    HW228455  11.223  13.267  12.089 -1.9957 -0.9540  0.8747
70155SOL     OW28456   5.753   7.695   3.843 -0.0281  0.4376  0.1977
70155SOL    HW128457   5.694   7.761   3.804  0.2485  0.8883  0.5340
70155SOL    HW228458   5.770   7.634   3.771 -0.5930  0.5227 -0.0141
70156SOL     OW28459   3.764  10.571   0.033 -0.2769 -0.2091 -0.2253
70156SOL    HW128460   3.710  10.594   0.109 -1.1623  0.8745 -1.1514
70156SOL    HW228461   3.791  10.656  -0.003  1.9186 -0.7295  0.1037
70157SOL     OW28462   2.300   6.974  12.104  0.4536 -0.0512 -0.1799
70157SOL    HW128463   2.383   7.013  12.076 -0.6191  1.0483 -2.0788
70157SOL    HW228464   2.286   6.903  12.041 -1.6981  2.0445 -2.2687
70158SOL     OW28465  13.008  12.598   7.295 -0.0210  0.5856  0.3245
70158SOL    HW128466  12.993  12.691   7.314 -2.1650  0.1832  0.9101
70158SOL    HW228467  13.071  12.570   7.361 -1.5194  1.0215  2.0246
70159SOL     OW28468   3.297  11.015   0.188  0.1256 -0.6101  0.3637
70159SOL    HW128469   3.351  10.951   0.143  0.5494  1.2407 -1.9400
70159SOL    HW228470   3.339  11.099   0.170 -0.5860  0.4298  2.9864
70160SOL     OW28471   5.778   9.822   9.365  0.1487  0.3957 -0.2977
70160SOL    HW128472   5.813   9.846   9.451  0.0196 -1.3468  0.2924
70160SOL    HW228473   5.690   9.859   9.362  0.3854  0.9876  0.0660
70161SOL     OW28474   0.196   5.080  13.643  0.2309  0.4386 -0.2207
70161SOL    HW128475   0.226   5.111  13.728  1.4418 -0.4671 -0.2915
70161SOL    HW228476   0.103   5.061  13.655  0.1282  1.3655  0.5749
70162SOL     OW28477  10.670   1.539   6.583 -0.7197  0.4485  0.2495
70162SOL    HW128478  10.590   1.494   6.610 -0.5921  0.8850  1.3972
70162SOL    HW228479  10.722   1.546   6.663  0.1631  0.7861 -0.3471
70163SOL     OW28480   0.270   6.988   7.704 -0.1882 -0.4381 -0.5893
70163SOL    HW128481   0.200   6.972   7.768 -0.7294 -0.8036 -1.2534
70163SOL    HW228482   0.322   6.908   7.706  0.8129  0.2096  0.6130
70164SOL     OW28483   5.273   6.575   7.864 -0.0006  0.4853 -0.6024
70164SOL    HW128484   5.326   6.564   7.785  0.7098 -0.5047 -0.0141
70164SOL    HW228485   5.327   6.539   7.934 -1.8078 -1.5569 -0.1183
70165SOL     OW28486   5.443   8.581   3.173 -0.4283  0.3473 -0.7052
70165SOL    HW128487   5.482   8.503   3.135 -0.8124  0.2348 -0.8764
70165SOL    HW228488   5.415   8.555   3.261 -0.1944  0.4055 -0.6127
70166SOL     OW28489  13.343  12.414   7.171 -0.1885  0.8441 -0.8269
70166SOL    HW128490  13.290  12.430   7.249  1.1432  0.9583  0.1011
70166SOL    HW228491  13.433  12.417   7.203  0.4238  1.6395 -2.5078
70167SOL     OW28492  13.073   5.298   5.939 -0.1781  0.2111  0.9975
70167SOL    HW128493  13.060   5.357   5.865 -1.1768 -0.0136  0.9744
70167SOL    HW228494  13.037   5.345   6.014  0.4083  0.2470  1.2627
70168SOL     OW28495   9.628  13.050   4.250 -0.4807  0.1940 -0.0422
70168SOL    HW128496   9.704  13.084   4.203 -0.2950  0.6361  0.5672
70168SOL    HW228497   9.657  13.045   4.341  0.5114 -4.2592 -0.3692
70169SOL     OW28498   6.820  11.443   5.297 -0.1129  0.0087 -0.0119
70169SOL    HW128499   6.774  11.428   5.214  1.3557 -1.0541 -0.6672
70169SOL    HW228500   6.753  11.482   5.354 -1.5319 -0.5137 -1.2462
70170SOL     OW28501   5.150   5.722   7.008  0.1718  0.2378  0.2462
70170SOL    HW128502   5.105   5.649   6.966  0.0558  0.3546  0.1657
70170SOL    HW228503   5.132   5.797   6.951  1.9858 -0.0712 -0.8148
70171SOL     OW28504   2.413   0.445   3.560 -0.5713  0.1226  0.3810
70171SOL    HW128505   2.345   0.425   3.624  0.3650  0.0381  1.3778
70171SOL    HW228506   2.365   0.471   3.482 -1.7482  0.5483  1.2108
70172SOL     OW28507   7.959   3.038   6.862  0.0212 -0.2381  0.2902
70172SOL    HW128508   7.960   2.972   6.930 -1.6208 -0.5175  0.1000
70172SOL    HW228509   7.923   2.993   6.785  0.3390  0.4732 -0.2872
70173SOL     OW28510  12.699   9.848   4.293  0.0609  0.0515  0.1390
70173SOL    HW128511  12.763   9.812   4.231  1.1511 -1.5772  2.0671
70173SOL    HW228512  12.742   9.925   4.330  0.4164 -0.3402  0.5535
70174SOL     OW28513   9.395   6.462   3.896  0.2087  0.0773 -0.4135
70174SOL    HW128514   9.305   6.485   3.919 -0.3584  0.5350 -2.8650
70174SOL    HW228515   9.403   6.369   3.917 -2.3177 -1.1782 -4.0803
70175SOL     OW28516  12.726  10.367  11.967  0.0686  0.0657 -0.2976
70175SOL    HW128517  12.819  10.366  11.987 -0.2798 -0.5342  1.4684
70175SOL    HW228518  12.719  10.322  11.882  1.6184  2.5883 -1.8711
70176SOL     OW28519   1.346  10.600   5.913  0.3568  0.3544 -0.2414
70176SOL    HW128520   1.413  10.668   5.906  0.7451 -0.1559 -2.0598
70176SOL    HW228521   1.317  10.586   5.823 -1.2494 -0.3928  0.3542
70177SOL     OW28522   9.307   6.340   0.189  0.0677  0.1541 -0.0996
70177SOL    HW128523   9.266   6.312   0.107 -0.0046 -0.9906  0.3087
70177SOL    HW228524   9.234   6.374   0.241  0.1116  0.8715 -0.4893
70178SOL     OW28525   5.221  13.366   4.105 -0.1738  0.1709 -0.0573
70178SOL    HW128526   5.195  13.276   4.084 -2.1979  0.8162 -0.5983
70178SOL    HW228527   5.316  13.363   4.112 -0.3249 -2.5573  2.5736
70179SOL     OW28528   6.213   7.204   4.729 -0.2281 -0.0140 -0.1093
70179SOL    HW128529   6.293   7.177   4.684  1.1608  1.1755  1.4946
70179SOL    HW228530   6.211   7.299   4.718 -2.5751 -0.1915 -1.8476
70180SOL     OW28531   0.229  13.109   0.501  0.0987  0.2388 -0.5550
70180SOL    HW128532   0.155  13.051   0.516  1.8087 -2.0005 -0.2083
70180SOL    HW228533   0.265  13.124   0.589  0.6877  0.4194 -0.8244
70181SOL     OW28534   4.689   9.721   9.400 -0.0445  0.2358  0.6708
70181SOL    HW128535   4.766   9.764   9.364 -0.1755 -0.4391 -0.4489
70181SOL    HW228536   4.722   9.639   9.437  0.1358  1.0485  2.4126
70182SOL     OW28537  10.011   8.410  10.490  0.2916 -0.3469  0.7874
70182SOL    HW128538  10.101   8.440  10.506  0.4022 -0.6853  0.8230
70182SOL    HW228539   9.979   8.382  10.576 -0.1641  0.5953  0.9341
70183SOL     OW28540   3.058   5.557   5.368  0.1866  0.6453 -0.0470
70183SOL    HW128541   3.090   5.576   5.280  1.7207 -0.7769  0.1398
70183SOL    HW228542   3.103   5.620   5.424  2.4664 -1.0486  0.1543
70184SOL     OW28543   1.894   0.573   5.472 -0.2505  0.5708 -0.2876
70184SOL    HW128544   1.912   0.663   5.497  2.7140 -0.1906  0.7705
70184SOL    HW228545   1.899   0.524   5.555 -0.2541 -0.7388 -1.0326
70185SOL     OW28546   7.092  10.169   1.822  0.3208 -0.2776  0.3555
70185SOL    HW128547   7.036  10.244   1.843  1.9916  0.5096  2.4115
70185SOL    HW228548   7.040  10.093   1.845 -1.2172  0.2175 -1.2781
70186SOL     OW28549  13.299  13.349   8.284 -0.5786 -0.8397 -0.1011
70186SOL    HW128550  13.356  13.387   8.217  0.8293  0.8812  1.9095
70186SOL    HW228551  13.332  13.261   8.297  3.2667  0.7039  2.4367
70187SOL     OW28552   3.866   9.216   8.699 -0.2823 -0.7232  0.1440
70187SOL    HW128553   3.863   9.128   8.664 -0.8499 -0.1445 -1.3309
70187SOL    HW228554   3.940   9.257   8.654  1.5929 -1.1266  2.6200
70188SOL     OW28555   0.411  12.396  13.198 -0.5779 -0.1221 -0.6404
70188SOL    HW128556   0.342  12.406  13.264 -0.4497  0.8788 -0.6444
70188SOL    HW228557   0.405  12.304  13.171 -0.3257 -0.6983  1.1039
70189SOL     OW28558   4.708   5.381  12.300  0.3207 -0.0326  0.1364
70189SOL    HW128559   4.779   5.430  12.258 -1.1751  2.1389  0.0308
70189SOL    HW228560   4.659   5.446  12.350 -0.3835 -1.8505  1.9596
70190SOL     OW28561  10.275   1.885   4.647 -0.4141 -0.1453 -0.1704
70190SOL    HW128562  10.296   1.884   4.553  0.1584  0.3366 -0.0543
70190SOL    HW228563  10.350   1.841   4.688 -0.2779  0.3545  0.1285
70191SOL     OW28564   3.544  10.417   8.242 -0.0735  0.3433  0.2736
70191SOL    HW128565   3.546  10.401   8.147 -1.3585 -1.0907  0.4476
70191SOL    HW228566   3.535  10.512   8.249 -0.5877  0.4244 -1.0694
70192SOL     OW28567  12.354  11.102  13.656 -0.3630 -0.2701 -0.0373
70192SOL    HW128568  12.438  11.101  13.701 -0.4132  0.3694  0.0844
70192SOL    HW228569  12.366  11.044  13.581 -0.0047 -0.6538  0.3149
70193SOL     OW28570  13.703   5.424   8.303 -0.9732 -0.1069 -0.2389
70193SOL    HW128571  13.684   5.517   8.290  0.3043  0.5012  1.8610
70193SOL    HW228572  13.618   5.381   8.293 -1.9945  1.5413  0.8288
70194SOL     OW28573   2.483   9.526   4.878 -0.3293 -0.6015  0.2737
70194SOL    HW128574   2.518   9.568   4.800  1.5102 -1.3571  0.6428
70194SOL    HW228575   2.497   9.590   4.948  2.1858 -1.5758  0.7760
70195SOL     OW28576   2.828   1.202  10.808 -0.5037 -0.4050  0.0899
70195SOL    HW128577   2.836   1.238  10.720 -1.8658 -0.7342 -0.1891
70195SOL    HW228578   2.734   1.189  10.821 -0.3514 -0.2133  1.6580
70196SOL     OW28579   6.410   0.822   2.960  0.4000  0.2317 -0.0309
70196SOL    HW128580   6.499   0.837   2.926  0.1201 -1.2099 -1.5670
70196SOL    HW228581   6.400   0.726   2.956 -1.3265  0.3942 -0.1811
70197SOL     OW28582   8.584  10.265   5.126  0.2227 -0.0858  0.2718
70197SOL    HW128583   8.602  10.284   5.034 -0.9252 -0.2791 -0.0055
70197SOL    HW228584   8.534  10.183   5.124  0.5605 -0.3172  1.0980
70198SOL     OW28585  13.907  14.063   4.020 -0.1470  0.0917 -0.3229
70198SOL    HW128586  13.947  13.976   4.021  1.9619  1.0113 -0.1927
70198SOL    HW228587  13.942  14.105   3.942 -3.5237 -0.1307 -2.1679
70199SOL     OW28588   7.730  11.089  10.385 -0.3652 -0.1570 -0.2920
70199SOL    HW128589   7.638  11.112  10.397 -0.9548 -1.8559 -1.2483
70199SOL    HW228590   7.756  11.050  10.469 -0.7314 -0.3587 -0.2702
70200SOL     OW28591  12.428  13.769  14.108  0.2997  0.2384 -0.1202
70200SOL    HW128592  12.457  13.678  14.107 -0.3933  0.0187 -0.7290
70200SOL    HW228593  12.450  13.800  14.197  0.9340 -0.3799 -0.0507
70201SOL     OW28594   7.785   5.022  10.593  0.2345  0.0410  0.1857
70201SOL    HW128595   7.821   5.110  10.583 -1.4211  0.6479 -0.8870
70201SOL    HW228596   7.848   4.976  10.650  2.0846  1.3233 -0.7215
70202SOL     OW28597   6.312   0.225   7.331 -0.3607 -0.0217  0.1906
70202SOL    HW128598   6.361   0.286   7.387  0.7558 -0.9751  0.2877
70202SOL    HW228599   6.244   0.189   7.389  0.7938 -1.0104  0.9867
70203SOL     OW28600   7.964   1.426  10.186  0.0727  0.1347 -0.2098
70203SOL    HW128601   7.950   1.340  10.144 -0.4481 -0.1506  0.5295
70203SOL    HW228602   8.046   1.416  10.234 -0.4252 -0.2328  0.5749
70204SOL     OW28603   7.057   1.511  13.017  0.1544  0.6516  0.4432
70204SOL    HW128604   7.045   1.494  12.924  0.2369 -0.8068  0.6795
70204SOL    HW228605   6.969   1.524  13.051  0.1521  1.5884  0.1028
70205SOL     OW28606   3.409   9.695   2.255 -0.0834  0.4298  0.0455
70205SOL    HW128607   3.404   9.657   2.167 -2.1235  0.2726  0.1865
70205SOL    HW228608   3.380   9.786   2.244 -0.1983  0.4555  0.5393
70206SOL     OW28609   3.537   2.756  11.698 -0.0087  0.6465  0.2407
70206SOL    HW128610   3.617   2.708  11.717 -1.2152 -0.9680  1.6176
70206SOL    HW228611   3.533   2.825  11.764 -0.0530  0.3066  0.6002
70207SOL     OW28612  11.933   9.265  10.240 -0.7600 -0.1980 -0.3117
70207SOL    HW128613  11.874   9.211  10.293  0.7104 -0.5840  1.0209
70207SOL    HW228614  12.009   9.280  10.297  1.0740 -0.9308 -2.4361
70208SOL     OW28615  10.276  10.772  12.385 -0.0191 -0.3504  0.2456
70208SOL    HW128616  10.185  10.768  12.416 -0.1116  1.6570  0.3536
70208SOL    HW228617  10.268  10.795  12.293  0.3858 -1.5030 -0.0984
70209SOL     OW28618  14.149   5.905   4.614  0.0193  0.5341  0.7909
70209SOL    HW128619  14.178   5.882   4.702  0.0159  1.4190  1.0258
70209SOL    HW228620  14.158   6.000   4.609  1.6057  0.3563 -0.7378
70210SOL     OW28621   8.993   9.271   0.407  0.0832 -0.8417 -0.1787
70210SOL    HW128622   9.061   9.334   0.384  1.7844 -2.2990  0.5844
70210SOL    HW228623   8.948   9.311   0.482 -0.4941  0.5166 -1.2130
70211SOL     OW28624  11.541   6.835   9.090  1.0417  0.2990  0.8710
70211SOL    HW128625  11.627   6.874   9.079  0.7315  1.5639  2.6339
70211SOL    HW228626  11.524   6.839   9.184 -1.0746  0.3864  0.5348
70212SOL     OW28627   7.507  12.456  11.011  0.5841 -0.7405 -0.0494
70212SOL    HW128628   7.495  12.378  11.065  2.5244 -0.7821  0.3972
70212SOL    HW228629   7.581  12.434  10.953 -1.3905 -0.7080 -2.7867
70213SOL     OW28630  12.266   2.441  10.750  0.1285  0.7930  0.4038
70213SOL    HW128631  12.272   2.346  10.764  0.8937  0.7998  0.1454
70213SOL    HW228632  12.278   2.479  10.836  1.2492  0.7046  0.2922
70214SOL     OW28633  11.354  10.089  10.111 -0.8221  0.6128  0.5944
70214SOL    HW128634  11.396  10.089  10.197  1.8082  0.8386 -0.6058
70214SOL    HW228635  11.390  10.012  10.066  0.7630  2.4680 -1.5396
70215SOL     OW28636   6.259  10.494  13.327 -0.2131 -0.9574  0.0168
70215SOL    HW128637   6.215  10.446  13.398 -0.0952  0.2749  0.9658
70215SOL    HW228638   6.322  10.431  13.291  0.9965 -1.1149  2.2122
70216SOL     OW28639  10.631  13.032   5.314 -0.1650  0.4510  0.0465
70216SOL    HW128640  10.704  13.000   5.368 -0.8219 -0.0921  0.6425
70216SOL    HW228641  10.667  13.038   5.226  0.3984 -0.5557  0.1922
70217SOL     OW28642   5.671   2.226   1.165  0.6919  0.1916  0.7022
70217SOL    HW128643   5.745   2.205   1.223  0.1967 -0.3862  1.1361
70217SOL    HW228644   5.642   2.141   1.131  0.7117  0.4912 -0.0724
70218SOL     OW28645   9.939   7.869   4.654  0.4409 -0.5508  0.3315
70218SOL    HW128646  10.002   7.798   4.646 -0.5929 -1.8848  2.8569
70218SOL    HW228647   9.890   7.850   4.735 -1.8102  1.5059 -0.3914
70219SOL     OW28648  10.538   5.314   1.423  0.1743 -0.1691 -0.0885
70219SOL    HW128649  10.505   5.392   1.377 -0.7256 -0.3423  0.2420
70219SOL    HW228650  10.602   5.276   1.363  0.0302  0.3837 -0.5993
70220SOL     OW28651   5.294   5.266  13.271 -0.6852 -0.3085  0.6826
70220SOL    HW128652   5.249   5.346  13.246 -0.5288 -0.3849  0.1442
70220SOL    HW228653   5.387   5.286  13.263 -0.6204 -0.2239  1.5622
70221SOL     OW28654   7.003  10.128   2.182 -0.5226 -0.2540 -0.0094
70221SOL    HW128655   7.032  10.060   2.121  0.7972  0.0257  0.2677
70221SOL    HW228656   7.034  10.098   2.268  0.3700  0.8273  0.0772
70222SOL     OW28657  13.025  12.948  12.484  0.2628 -0.2455 -0.2943
70222SOL    HW128658  13.002  13.009  12.554  0.5671 -0.2446 -0.1929
70222SOL    HW228659  12.947  12.944  12.430  0.0173 -0.2588  0.0553
70223SOL     OW28660  11.835  12.737   0.532 -0.4125  0.5530 -0.5921
70223SOL    HW128661  11.780  12.740   0.611 -0.6564  1.7785 -0.7792
70223SOL    HW228662  11.924  12.744   0.565 -0.5334  1.4692 -0.4338
70224SOL     OW28663   7.943  11.148   1.775 -0.0886  0.2424  0.0482
70224SOL    HW128664   7.915  11.075   1.720 -0.5570  0.8619 -0.5524
70224SOL    HW228665   7.989  11.207   1.716 -1.1340  1.2122  0.1558
70225SOL     OW28666  12.260  10.329   9.889  0.3568  0.2110  0.6172
70225SOL    HW128667  12.327  10.309   9.824 -1.0836 -2.0031 -0.2961
70225SOL    HW228668  12.180  10.340   9.839 -0.2440  1.5289  1.7972
70226SOL     OW28669   0.428  11.231  14.094  0.1889 -0.2179  0.0500
70226SOL    HW128670   0.514  11.193  14.114  0.1362  0.4289  1.5642
70226SOL    HW228671   0.383  11.161  14.046  0.7443 -1.4304  1.2146
70227SOL     OW28672   7.104   2.226   1.796  0.1574 -0.0539  0.3599
70227SOL    HW128673   7.104   2.292   1.726  0.7358  0.8327  1.1743
70227SOL    HW228674   7.196   2.203   1.808 -0.0672 -1.2626 -0.1297
70228SOL     OW28675   5.151  10.233   6.161 -0.1456  0.2356 -0.2950
70228SOL    HW128676   5.227  10.195   6.118  0.1525  0.4906 -0.0003
70228SOL    HW228677   5.182  10.255   6.249 -0.7906 -0.4364  0.1064
70229SOL     OW28678   4.669   1.693   3.340  0.1674 -1.0005 -0.4691
70229SOL    HW128679   4.694   1.719   3.252  1.0287  0.6514  0.2089
70229SOL    HW228680   4.733   1.735   3.397 -0.6550 -1.6060  0.9859
70230SOL     OW28681   7.279   0.368   9.342 -0.0174 -0.2433 -0.3184
70230SOL    HW128682   7.268   0.314   9.264 -0.9735  0.3722 -0.6259
70230SOL    HW228683   7.298   0.456   9.308 -0.9692  0.1438  0.1183
70231SOL     OW28684  12.612   9.476   3.281 -0.4567 -0.0374 -0.0197
70231SOL    HW128685  12.650   9.506   3.198  1.0379 -1.6299  0.0251
70231SOL    HW228686  12.523   9.510   3.280 -0.1856  0.7668 -1.8425
70232SOL     OW28687   8.876  12.039   7.445  0.1139 -0.2086 -0.5266
70232SOL    HW128688   8.878  11.944   7.434 -0.1817 -0.3169  0.3060
70232SOL    HW228689   8.875  12.053   7.540 -0.7445  0.6096 -0.6360
70233SOL     OW28690  11.709   2.511   6.549 -0.9516 -0.3705  0.0443
70233SOL    HW128691  11.651   2.459   6.604  0.1319 -1.9457 -0.2456
70233SOL    HW228692  11.782   2.536   6.606  0.2835 -2.1927 -0.6648
70234SOL     OW28693   0.096   3.088   7.080  0.4037 -0.1547  0.3561
70234SOL    HW128694   0.157   3.070   7.009 -0.7454 -0.6069 -0.5469
70234SOL    HW228695   0.064   3.002   7.108 -1.1878  0.1244 -0.4531
70235SOL     OW28696  11.792   9.425   8.041 -0.1353  0.2431  0.6922
70235SOL    HW128697  11.730   9.388   8.104  0.8364 -0.7752  1.1080
70235SOL    HW228698  11.768   9.386   7.957 -1.0033  1.0632  0.5458
70236SOL     OW28699   3.195   6.028   7.699 -0.0268 -0.3247 -0.0246
70236SOL    HW128700   3.250   6.009   7.775  0.9615 -0.4255 -0.7477
70236SOL    HW228701   3.212   5.956   7.638 -0.2153  0.1562 -0.6595
70237SOL     OW28702  11.083  12.977   0.046 -0.0734 -0.4773  0.0315
70237SOL    HW128703  11.144  13.016  -0.017 -0.6785  2.4008  1.0732
70237SOL    HW228704  11.127  12.983   0.130 -1.9282  2.5608  0.9787
70238SOL     OW28705   2.567  11.463   2.813  0.2174  0.2833  0.7102
70238SOL    HW128706   2.596  11.441   2.902 -0.1720  0.2698  0.8382
70238SOL    HW228707   2.474  11.483   2.823 -0.2646 -1.4243  0.0347
70239SOL     OW28708   6.556   8.409  11.116 -0.0974 -0.3841  0.0553
70239SOL    HW128709   6.556   8.465  11.039  0.2465 -0.8066 -0.2568
70239SOL    HW228710   6.486   8.444  11.171  1.3832  1.6467  0.8088
70240SOL     OW28711   8.898  13.302   4.169 -0.1394  0.4539  0.2964
70240SOL    HW128712   8.971  13.360   4.145 -0.4558  0.7803  0.1101
70240SOL    HW228713   8.875  13.257   4.089  0.0985  0.0782  0.4395
70241SOL     OW28714   0.019   1.381   8.950  0.0472  0.3044  0.3688
70241SOL    HW128715  -0.041   1.452   8.928  0.6644  0.9015  0.5700
70241SOL    HW228716  -0.031   1.301   8.933  0.0907  0.7358 -2.1027
70242SOL     OW28717   3.339   7.793   5.982  0.2385 -0.3242 -0.2163
70242SOL    HW128718   3.311   7.872   6.026 -0.0212 -0.9256  0.7224
70242SOL    HW228719   3.263   7.735   5.984  1.2789 -1.7439  1.8332
70243SOL     OW28720   3.321   1.159  12.986 -0.2781 -0.1560 -0.7698
70243SOL    HW128721   3.327   1.187  12.894  0.5212 -0.1349 -0.7167
70243SOL    HW228722   3.275   1.075  12.983  1.7432 -1.3098 -1.4329
70244SOL     OW28723   4.973   2.180   9.836 -0.3912  0.3045  0.1242
70244SOL    HW128724   4.892   2.131   9.851 -0.3106 -0.3728 -1.4633
70244SOL    HW228725   4.948   2.252   9.778  0.1711 -0.0717 -0.6082
70245SOL     OW28726   5.762   7.820  11.226 -0.2583  0.1287  0.7383
70245SOL    HW128727   5.840   7.803  11.174 -0.5030  2.0523 -0.3286
70245SOL    HW228728   5.795   7.834  11.315  0.3575 -1.1561  0.7447
70246SOL     OW28729  12.973   5.884   3.617  0.0118 -0.2691  0.2633
70246SOL    HW128730  13.042   5.819   3.620  1.5129  1.2607  0.5300
70246SOL    HW228731  12.924   5.864   3.537  1.0001 -1.1652 -0.1348
70247SOL     OW28732  11.115  11.118   0.197 -0.0363 -0.9930 -0.0650
70247SOL    HW128733  11.130  11.208   0.167  2.0377 -0.0902  3.1273
70247SOL    HW228734  11.022  11.114   0.218  0.0931  1.0009  1.1547
70248SOL     OW28735  11.569  10.326   5.270  0.3182 -0.2215 -0.1714
70248SOL    HW128736  11.576  10.239   5.232 -2.2242 -0.1145 -1.0759
70248SOL    HW228737  11.634  10.378   5.224  0.3909 -1.1424 -1.1370
70249SOL     OW28738   8.738  13.715   1.687  0.1318 -0.2636  0.7018
70249SOL    HW128739   8.740  13.794   1.632 -1.4427 -0.5037  0.2559
70249SOL    HW228740   8.830  13.694   1.701  0.5828  0.6615 -0.6172
70250SOL     OW28741   1.912  12.801   1.908 -0.0155 -0.1130 -0.2326
70250SOL    HW128742   1.839  12.739   1.906 -1.0951  1.1219 -0.7186
70250SOL    HW228743   1.967  12.776   1.833 -0.6408 -0.2423 -0.6517
70251SOL     OW28744  10.356   9.376   8.293 -0.3146  0.9030 -0.1236
70251SOL    HW128745  10.395   9.425   8.220  0.0215  2.1456  0.8418
70251SOL    HW228746  10.296   9.439   8.333 -0.4511  0.2538  0.6986
70252SOL     OW28747   6.748  11.259   1.004  0.3033 -0.3912 -0.5004
70252SOL    HW128748   6.673  11.309   1.035  1.3926  1.1496 -0.2391
70252SOL    HW228749   6.724  11.167   1.018 -0.5387  0.1372  1.8732
70253SOL     OW28750   1.058  11.606   4.994  0.0949 -0.3168 -0.1467
70253SOL    HW128751   0.965  11.626   5.001  0.1997  0.2108 -0.1932
70253SOL    HW228752   1.070  11.529   5.049 -0.6424 -1.3197 -1.3522
70254SOL     OW28753   1.193  13.618   7.065  0.1061 -0.1899  0.2451
70254SOL    HW128754   1.274  13.647   7.025 -0.2569  0.6689  0.1083
70254SOL    HW228755   1.195  13.523   7.058  0.2748 -0.0905 -1.3847
70255SOL     OW28756   8.740   8.522   0.178 -0.0605 -0.1294  0.1699
70255SOL    HW128757   8.744   8.519   0.273 -0.0605  4.2256  0.5043
70255SOL    HW228758   8.653   8.556   0.158 -0.0274 -0.8663 -1.3995
70256SOL     OW28759   9.673   9.269   7.325 -0.2640 -0.5085  0.4877
70256SOL    HW128760   9.749   9.232   7.371  1.1971  0.7169 -0.8472
70256SOL    HW228761   9.645   9.199   7.266 -0.0364 -0.8876  0.8196
70257SOL     OW28762   1.399   7.299   6.679  0.6578  0.0553  0.1785
70257SOL    HW128763   1.484   7.262   6.657  0.7141  0.7253 -0.7885
70257SOL    HW228764   1.405   7.391   6.652 -0.6556 -0.0950 -0.7376
70258SOL     OW28765   3.395   1.832   2.063  0.2247 -0.5336  0.1379
70258SOL    HW128766   3.389   1.737   2.072 -0.6461 -0.5770 -0.8093
70258SOL    HW228767   3.361   1.851   1.976 -1.7581  0.8488  1.1226
70259SOL     OW28768  10.634   2.823   5.702 -0.9851 -0.7590  0.0258
70259SOL    HW128769  10.605   2.775   5.625 -2.4451  0.4767 -0.2346
70259SOL    HW228770  10.719   2.860   5.677 -0.7187 -1.6341 -0.4163
70260SOL     OW28771   8.655   3.935  14.079  0.1752  0.6559  0.1238
70260SOL    HW128772   8.730   3.966  14.027  0.5040  0.5070  0.5071
70260SOL    HW228773   8.622   3.859  14.030  2.3177 -1.3743  1.5968
70261SOL     OW28774   8.129   1.876   8.740 -0.4194  0.4005  0.1765
70261SOL    HW128775   8.144   1.783   8.722 -0.0408  0.7266 -1.3602
70261SOL    HW228776   8.216   1.910   8.760 -0.2656  0.7482 -1.0013
70262SOL     OW28777  13.409  12.844   1.038  0.1323  0.0985 -0.1241
70262SOL    HW128778  13.435  12.770   1.093  1.7776  1.9118  1.6734
70262SOL    HW228779  13.469  12.840   0.964  1.6786  0.8352  1.0522
70263SOL     OW28780   7.008  13.488  12.121  0.8453  0.0479 -0.0263
70263SOL    HW128781   6.959  13.407  12.113 -0.5940  1.0425 -2.0442
70263SOL    HW228782   7.078  13.480  12.056  0.2561  0.6973 -0.7542
70264SOL     OW28783   2.810   9.754   2.790  0.0516  0.1983 -0.7591
70264SOL    HW128784   2.736   9.787   2.740 -0.6646 -2.0750 -1.3149
70264SOL    HW228785   2.775   9.739   2.878  0.0298 -0.1943 -0.8317
70265SOL     OW28786  10.476   5.900   0.991  0.3951 -0.4174  0.3460
70265SOL    HW128787  10.446   5.982   1.031  0.9984  1.0365 -1.9580
70265SOL    HW228788  10.413   5.884   0.920  1.3530 -0.9044 -0.4174
70266SOL     OW28789   1.800   8.958   4.376  0.1956 -0.0853 -0.3243
70266SOL    HW128790   1.781   9.046   4.409 -1.2792 -0.4232 -0.1971
70266SOL    HW228791   1.895   8.953   4.376  0.3044  1.4199 -0.0911
70267SOL     OW28792  10.182   2.509   5.499  0.1001  0.2085  0.1299
70267SOL    HW128793  10.172   2.418   5.528 -2.7251  0.5838  0.6797
70267SOL    HW228794  10.227   2.553   5.571 -0.0487 -0.4190  0.6119
70268SOL     OW28795   2.905   2.544   2.591  0.6369  0.0229  0.0368
70268SOL    HW128796   2.901   2.575   2.682  0.1535 -0.5239  0.2096
70268SOL    HW228797   2.916   2.624   2.540  0.0846  0.4243  0.5228
70269SOL     OW28798   7.864   0.432   5.363  0.2900 -0.1111  0.1935
70269SOL    HW128799   7.946   0.437   5.412  1.3704  2.1718 -1.6599
70269SOL    HW228800   7.883   0.372   5.290  0.6690  1.1333 -0.7634
70270SOL     OW28801  12.644   2.992   8.205  0.2376 -0.2632  0.2685
70270SOL    HW128802  12.615   2.902   8.186 -0.2731  0.0710 -0.6348
70270SOL    HW228803  12.723   3.003   8.152  0.2287 -0.1438  0.2796
70271SOL     OW28804   8.378   7.426   4.109 -0.3589  0.3085  0.1263
70271SOL    HW128805   8.424   7.509   4.123  1.2353 -0.5921  0.5422
70271SOL    HW228806   8.428   7.362   4.160 -2.0953 -0.7597  0.5687
70272SOL     OW28807  10.982   2.231  11.020  0.1130 -0.1447  0.2074
70272SOL    HW128808  10.993   2.239  10.926 -0.1388  2.9463  0.3608
70272SOL    HW228809  11.070   2.214  11.053  0.4775  0.3817 -0.4776
70273SOL     OW28810   2.093  12.480   6.064  0.3121  0.1181 -0.8915
70273SOL    HW128811   2.000  12.459   6.069  1.0061 -3.1907  0.8877
70273SOL    HW228812   2.116  12.462   5.973 -0.6679  0.5022 -1.2321
70274SOL     OW28813   8.722   8.260   2.084  0.1496  0.3873 -0.5617
70274SOL    HW128814   8.635   8.273   2.048 -0.9427 -0.4973  1.6054
70274SOL    HW228815   8.738   8.338   2.137 -0.0783 -0.2071  0.4077
70275SOL     OW28816   6.966   5.169   3.886 -0.0260  0.0269  0.0126
70275SOL    HW128817   7.055   5.189   3.858  0.1715 -1.6462 -0.7201
70275SOL    HW228818   6.965   5.188   3.979  0.2591  2.6596 -0.4571
70276SOL     OW28819  12.635   8.869   5.325 -0.8424  0.2012 -0.1177
70276SOL    HW128820  12.659   8.953   5.365  2.2575 -0.1187 -1.0401
70276SOL    HW228821  12.716   8.819   5.324 -2.3423 -2.4044 -0.6722
70277SOL     OW28822   7.018   1.133   8.146  0.5209 -0.1678  0.3318
70277SOL    HW128823   7.077   1.134   8.222  0.7138  1.1667  0.1989
70277SOL    HW228824   6.980   1.221   8.145 -1.1456 -0.8553  0.1444
70278SOL     OW28825   2.998  12.005   1.190 -0.3561  0.0903 -0.1906
70278SOL    HW128826   3.038  12.088   1.216 -0.9273  0.5628 -0.7665
70278SOL    HW228827   3.050  11.938   1.234 -0.1047  0.7698  0.5673
70279SOL     OW28828  12.703  11.494   3.831  0.3111  0.0639 -0.1468
70279SOL    HW128829  12.631  11.529   3.778  0.7526 -0.8909 -1.4158
70279SOL    HW228830  12.780  11.501   3.774  0.9940 -0.0435  0.7500
70280SOL     OW28831   1.622  11.890  13.004  0.0486 -0.9929 -0.3687
70280SOL    HW128832   1.689  11.826  13.029 -0.9759 -2.1399 -0.4672
70280SOL    HW228833   1.562  11.893  13.079  1.4157  1.8187  0.7656
70281SOL     OW28834   5.753  10.582  12.942 -0.0773  0.1052 -0.3778
70281SOL    HW128835   5.749  10.652  12.877 -0.7942 -1.0763 -1.6631
70281SOL    HW228836   5.717  10.505  12.897 -2.9016 -0.2343  2.1232
70282SOL     OW28837   4.228   0.229   2.437 -0.9878  0.1172 -0.5654
70282SOL    HW128838   4.278   0.153   2.467 -0.1507  0.2955 -1.4555
70282SOL    HW228839   4.261   0.302   2.490 -1.0492  0.0501 -0.4343
70283SOL     OW28840   0.193   3.522   8.149  0.2025 -0.0436  0.3902
70283SOL    HW128841   0.123   3.475   8.194 -0.5395 -0.3033 -0.9756
70283SOL    HW228842   0.272   3.501   8.199 -0.1650 -2.4544  0.0641
70284SOL     OW28843  12.642  11.976   9.903  0.0340 -0.3984 -0.1080
70284SOL    HW128844  12.729  11.967   9.941 -0.3793  0.6270  1.1306
70284SOL    HW228845  12.604  11.888   9.909  1.1782 -1.0068 -1.2435
70285SOL     OW28846   6.731   9.995   8.433  0.5305  0.1122  0.1359
70285SOL    HW128847   6.768  10.048   8.362 -0.5608 -0.1252 -0.6342
70285SOL    HW228848   6.759  10.040   8.513 -0.7119  2.1428 -0.4856
70286SOL     OW28849  12.479   3.603   9.740 -0.1723 -0.1873  0.1861
70286SOL    HW128850  12.499   3.568   9.653 -1.0729 -0.2405 -0.0085
70286SOL    HW228851  12.502   3.532   9.800  2.9709  0.7496  0.2676
70287SOL     OW28852   3.579   9.479   0.322  0.2643 -0.4738 -0.1889
70287SOL    HW128853   3.542   9.562   0.354 -0.1609 -1.6396  2.6652
70287SOL    HW228854   3.673   9.494   0.322  0.4447 -0.6965  3.1041
70288SOL     OW28855  10.144   8.478   2.275 -0.0264 -0.5481  0.2689
70288SOL    HW128856  10.194   8.544   2.227 -0.5054  0.1929  0.7684
70288SOL    HW228857  10.059   8.475   2.231  0.0454 -0.9411  0.1554
70289SOL     OW28858  10.990  11.749   6.164  0.1859 -0.2821 -0.3250
70289SOL    HW128859  10.936  11.787   6.233  0.6255  2.2611 -1.2721
70289SOL    HW228860  11.079  11.751   6.199  0.0691 -1.8191  0.1389
70290SOL     OW28861   6.689   3.292  14.026 -0.0186 -0.3262 -0.0854
70290SOL    HW128862   6.687   3.385  14.004  0.0737  0.1661  1.7718
70290SOL    HW228863   6.676   3.246  13.943  2.2112  1.2845 -1.4200
70291SOL     OW28864   6.210   9.356   5.760 -0.2165 -0.0897 -0.6197
70291SOL    HW128865   6.187   9.419   5.692 -1.2887 -0.0344 -0.2260
70291SOL    HW228866   6.147   9.285   5.750 -0.5169  0.0015  0.4067
70292SOL     OW28867   1.901   4.532  12.230  0.1296 -0.0642  0.1284
70292SOL    HW128868   1.853   4.450  12.224 -0.9588  0.5543  0.2162
70292SOL    HW228869   1.968   4.515  12.297  1.0093 -1.3829 -1.0220
70293SOL     OW28870   1.789  11.926  13.664 -0.1997  0.1411 -0.4762
70293SOL    HW128871   1.741  11.974  13.732 -1.5551 -0.1796 -1.1707
70293SOL    HW228872   1.748  11.953  13.582 -1.5321 -2.7110 -0.8679
70294SOL     OW28873  11.523  10.361   9.274 -0.2686  0.5582  0.0945
70294SOL    HW128874  11.440  10.315   9.288  0.1610 -0.5278 -0.8275
70294SOL    HW228875  11.510  10.409   9.192  0.6548 -1.1906 -1.1239
70295SOL     OW28876   3.177  14.023   2.664  0.5636  0.6964 -0.2921
70295SOL    HW128877   3.111  13.957   2.645  1.7515  0.0711 -2.7310
70295SOL    HW228878   3.128  14.101   2.689 -0.8986 -0.8663  2.1940
70296SOL     OW28879   2.767   9.462   5.143 -0.2357 -0.4407 -0.0155
70296SOL    HW128880   2.766   9.554   5.166  1.4413 -0.6262  1.0241
70296SOL    HW228881   2.782   9.461   5.048 -0.9604  0.3430 -0.1436
70297SOL     OW28882   9.491   1.198   6.475 -0.3195  0.4156 -0.7777
70297SOL    HW128883   9.586   1.208   6.471  0.1622 -2.2221  1.1247
70297SOL    HW228884   9.476   1.107   6.449 -2.1437  0.3421  0.3630
70298SOL     OW28885  10.668   1.465   0.681  0.0924 -0.1940  0.0716
70298SOL    HW128886  10.696   1.500   0.596 -1.2661  2.9626  0.7935
70298SOL    HW228887  10.639   1.376   0.661 -0.0727  0.3801 -2.7526
70299SOL     OW28888   3.660  11.204  10.116  0.3149  0.6484  0.1762
70299SOL    HW128889   3.677  11.187  10.024 -0.5236  0.3307  0.0647
70299SOL    HW228890   3.612  11.287  10.117  0.1486  0.5533  0.3038
70300SOL     OW28891   3.158   9.284   4.512  0.5288 -0.0060  0.4257
70300SOL    HW128892   3.087   9.294   4.449  1.1571 -0.0740 -0.3133
70300SOL    HW228893   3.138   9.347   4.582 -1.0648 -1.1131  1.0197
70301SOL     OW28894  13.005   5.771   5.353  0.0320 -0.0245 -0.0901
70301SOL    HW128895  13.082   5.780   5.298 -0.7312 -0.6314 -1.3046
70301SOL    HW228896  13.003   5.851   5.405  1.2846  0.1404 -0.2676
70302SOL     OW28897   8.177   3.376   2.645 -0.6206  0.1129  0.2945
70302SOL    HW128898   8.082   3.387   2.652 -1.3234 -1.3305 -3.9243
70302SOL    HW228899   8.196   3.296   2.695 -1.8502 -0.2164  0.2645
70303SOL     OW28900   9.346   6.284   7.595  0.3004 -0.0688  0.2197
70303SOL    HW128901   9.346   6.354   7.529  2.1840 -1.2578 -1.1607
70303SOL    HW228902   9.278   6.310   7.658 -1.4326  1.2549 -2.0372
70304SOL     OW28903   9.421   6.011   7.645  0.5437  0.2691 -0.0618
70304SOL    HW128904   9.353   6.077   7.634  0.5830  0.9636  3.1475
70304SOL    HW228905   9.498   6.060   7.673  0.8089 -1.0176  1.5902
70305SOL     OW28906  12.356   9.327   7.407  0.0345 -0.1434  0.1019
70305SOL    HW128907  12.303   9.404   7.385 -1.8444 -0.9591  1.4934
70305SOL    HW228908  12.364   9.279   7.325  1.2370  1.4672 -0.7932
70306SOL     OW28909   3.213  12.180   8.957 -0.1065 -0.3016 -0.0671
70306SOL    HW128910   3.120  12.165   8.940  0.0763  0.0475 -1.4760
70306SOL    HW228911   3.215  12.254   9.018 -0.7306  0.6911 -1.2048
70307SOL     OW28912   3.287  12.806   0.760  0.2536  0.2593 -0.1415
70307SOL    HW128913   3.361  12.840   0.811 -0.9109 -0.2145  2.0275
70307SOL    HW228914   3.214  12.862   0.785 -0.4665 -0.2804 -0.9995
70308SOL     OW28915  12.472   7.040  14.086  0.8166 -0.0902 -0.4470
70308SOL    HW128916  12.424   6.989  14.151 -1.5263  3.6522  1.0805
70308SOL    HW228917  12.559   7.053  14.125  0.5604 -0.6866  0.3531
70309SOL     OW28918   7.679   6.270  10.448 -0.2607  0.2052  0.5195
70309SOL    HW128919   7.756   6.242  10.499  0.8038 -0.3043 -1.2928
70309SOL    HW228920   7.616   6.200  10.460  0.1778 -0.1601  0.7203
70310SOL     OW28921   8.481   0.463  13.009  0.4206 -0.1793 -0.1688
70310SOL    HW128922   8.553   0.400  13.012  1.7783  1.2980  0.2202
70310SOL    HW228923   8.512   0.532  12.950 -1.5354 -0.4207 -1.5774
70311SOL     OW28924   6.798   4.717  14.116  0.2231 -0.2166 -0.6287
70311SOL    HW128925   6.787   4.758  14.030 -1.0768 -0.3788 -0.5551
70311SOL    HW228926   6.766   4.627  14.103  0.7665 -0.4793 -0.1733
70312SOL     OW28927  10.302   5.237   3.496  0.0162  0.4081  0.5501
70312SOL    HW128928  10.385   5.189   3.495  0.0560  0.4829  0.1919
70312SOL    HW228929  10.278   5.240   3.588 -0.1076 -0.5075  0.5585
70313SOL     OW28930  11.551   7.031  12.310 -0.0450 -0.5203 -0.3941
70313SOL    HW128931  11.489   7.035  12.237 -1.3875  1.2541  0.7538
70313SOL    HW228932  11.637   7.042  12.270 -0.8331  1.6331 -1.6688
70314SOL     OW28933   5.217   0.342   1.639 -0.1319 -0.6572 -0.2196
70314SOL    HW128934   5.136   0.347   1.689  0.1062 -0.2340  0.1316
70314SOL    HW228935   5.226   0.249   1.617  0.9141 -1.2856  2.4615
70315SOL     OW28936  12.396   3.450   5.980 -0.2101  0.1916 -0.3830
70315SOL    HW128937  12.346   3.466   6.060  0.5544  2.0394 -0.2236
70315SOL    HW228938  12.331   3.416   5.918 -0.8974 -0.8364  0.8570
70316SOL     OW28939  13.044  12.216   5.250  0.0654 -0.1155  0.5457
70316SOL    HW128940  13.004  12.287   5.200 -0.1109 -0.1502  0.6413
70316SOL    HW228941  13.111  12.181   5.191  0.2351  0.2081  0.5447
70317SOL     OW28942   1.233   8.707   5.397 -0.1366  0.4145 -0.5514
70317SOL    HW128943   1.187   8.706   5.481 -1.0886 -0.6239 -1.0520
70317SOL    HW228944   1.285   8.787   5.398 -0.2287  0.4773  0.9710
70318SOL     OW28945   6.392   9.311   1.191  0.0602 -0.0794 -0.3947
70318SOL    HW128946   6.470   9.271   1.228 -0.7157 -1.2564  0.0141
70318SOL    HW228947   6.328   9.241   1.187 -0.4701  0.4413 -2.3042
70319SOL     OW28948   2.340  13.287  11.565  0.8778  0.3488  0.7497
70319SOL    HW128949   2.268  13.320  11.511  1.5363 -0.5310 -0.7116
70319SOL    HW228950   2.329  13.333  11.649  0.4125  2.5353 -0.4190
70320SOL     OW28951  11.147   2.312   3.763 -0.1824  0.1127 -0.0128
70320SOL    HW128952  11.111   2.327   3.675  0.2255 -0.2648 -0.2468
70320SOL    HW228953  11.221   2.253   3.749 -0.0901  0.0818  0.5826
70321SOL     OW28954  12.973   3.382   4.623 -0.4163  0.1870 -0.0641
70321SOL    HW128955  12.947   3.402   4.533 -1.4823 -0.2298  0.1386
70321SOL    HW228956  12.982   3.468   4.665 -0.4471  0.3664 -0.4255
70322SOL     OW28957  13.572  12.425   2.358 -0.6603  0.6337  0.1099
70322SOL    HW128958  13.636  12.359   2.331 -1.1035  0.4765 -0.5716
70322SOL    HW228959  13.537  12.392   2.441 -1.5216 -0.4517 -0.6607
70323SOL     OW28960   0.237  12.306   4.472 -0.1197 -0.4408 -0.0489
70323SOL    HW128961   0.297  12.280   4.542  1.1825  0.8556 -0.6377
70323SOL    HW228962   0.275  12.270   4.393  1.2353  2.2639 -0.7555
70324SOL     OW28963  12.797  12.811   5.829 -0.5517 -0.6802  0.2294
70324SOL    HW128964  12.818  12.746   5.896  0.2017  0.4830  1.1804
70324SOL    HW228965  12.852  12.787   5.755 -0.8820 -1.5858  0.2652
70325SOL     OW28966   3.417   8.793  12.964  0.2378  0.2151  0.0289
70325SOL    HW128967   3.445   8.829  12.880 -1.5593 -0.9469 -1.1244
70325SOL    HW228968   3.392   8.702  12.945 -0.0702 -0.1177  1.8388
70326SOL     OW28969   9.927   2.344  10.743 -0.6583 -0.4459  0.4152
70326SOL    HW128970  10.022   2.354  10.741 -0.6070 -0.7611  0.8814
70326SOL    HW228971   9.913   2.250  10.755 -1.0362 -0.4460  0.0041
70327SOL     OW28972   3.423   9.409   9.945  0.3166 -0.0239  0.2412
70327SOL    HW128973   3.375   9.352  10.005 -1.2437  0.6090 -0.3313
70327SOL    HW228974   3.511   9.373   9.943 -0.0016 -0.9921  1.6894
70328SOL     OW28975   9.979   8.529  10.230 -0.4362  0.5569  0.2106
70328SOL    HW128976  10.002   8.491  10.315  0.0451  1.3517  0.4450
70328SOL    HW228977   9.890   8.496  10.213 -0.1209 -0.4913  0.4929
70329SOL     OW28978  10.113   9.075   9.095  0.1977  0.0427  0.3795
70329SOL    HW128979  10.053   9.018   9.047 -1.5154  1.4044  0.7965
70329SOL    HW228980  10.104   9.049   9.186  0.0468  0.4422  0.4769
70330SOL     OW28981   8.060  13.278  11.784 -0.8951 -0.2387  0.2083
70330SOL    HW128982   8.136  13.330  11.758 -0.5772 -1.5991 -1.7880
70330SOL    HW228983   8.009  13.337  11.840  0.8780  1.1951  0.4060
70331SOL     OW28984  11.666   4.296   0.008  0.2417 -0.5840 -0.1011
70331SOL    HW128985  11.703   4.377   0.041  0.9636 -0.6390 -0.7415
70331SOL    HW228986  11.742   4.239  -0.007  0.1220 -0.1181 -3.0492
70332SOL     OW28987   8.878   5.303   1.499  0.3405  0.2786 -0.1882
70332SOL    HW128988   8.936   5.227   1.505  0.0508  0.1683  1.5161
70332SOL    HW228989   8.856   5.324   1.589 -0.7644  1.4951 -0.7113
70333SOL     OW28990   1.996   3.552   1.530  0.2409 -0.3370 -0.1382
70333SOL    HW128991   2.008   3.459   1.549  0.1542 -0.1786  0.7564
70333SOL    HW228992   1.943   3.554   1.451 -0.7561 -1.0629  0.4910
70334SOL     OW28993  11.652   1.143   7.134  0.3409  0.1759  0.1368
70334SOL    HW128994  11.734   1.103   7.161  0.2848 -0.3606 -0.4717
70334SOL    HW228995  11.591   1.124   7.206  0.5817  0.0331  0.3017
70335SOL     OW28996   5.293   6.557   8.535 -0.0894 -0.0545  0.4305
70335SOL    HW128997   5.259   6.642   8.562 -0.9352 -0.0218 -0.7037
70335SOL    HW228998   5.360   6.537   8.601 -0.1486  1.2948  0.9367
70336SOL     OW28999  10.998   8.821  11.123 -0.3820 -0.2749 -0.4631
70336SOL    HW129000  11.085   8.797  11.155 -0.3005  0.4282 -0.1436
70336SOL    HW229001  10.961   8.875  11.192 -1.2251 -0.8596 -0.4361
70337SOL     OW29002  12.882  11.247   9.666  0.0013  0.0488  0.3180
70337SOL    HW129003  12.827  11.212   9.737 -0.3842  0.5056  0.2479
70337SOL    HW229004  12.952  11.294   9.711 -1.0395  1.5668  0.3989
70338SOL     OW29005   9.304   4.184  13.896 -0.4338 -0.5776  0.0493
70338SOL    HW129006   9.224   4.234  13.879 -1.0652 -1.0635  1.4178
70338SOL    HW229007   9.374   4.237  13.859 -1.1891  0.8446  0.5799
70339SOL     OW29008   4.611  13.376   6.102 -0.0034  0.5551  0.1714
70339SOL    HW129009   4.668  13.298   6.103 -0.0124  0.4543 -2.1147
70339SOL    HW229010   4.523  13.341   6.095 -0.0925  0.7728  0.2031
70340SOL     OW29011  13.651   3.435   1.921 -0.0660 -0.0470 -0.4425
70340SOL    HW129012  13.738   3.438   1.960  0.1806  0.9448 -1.0406
70340SOL    HW229013  13.598   3.494   1.974  0.2155  1.1313 -1.4292
70341SOL     OW29014   2.547  11.352   0.995 -0.1493 -0.5395  0.0810
70341SOL    HW129015   2.578  11.349   0.905  2.7013  0.8847  0.8833
70341SOL    HW229016   2.528  11.445   1.011  1.4993 -0.3886  1.5110
70342SOL     OW29017   4.340   8.770  13.924 -0.0828 -0.0728  0.2979
70342SOL    HW129018   4.323   8.803  13.835 -1.2937 -2.1055 -0.3027
70342SOL    HW229019   4.430   8.738  13.920  0.3653  1.1553  0.2563
70343SOL     OW29020   8.110   7.406   3.978  0.4434 -0.2658  0.3013
70343SOL    HW129021   8.201   7.380   3.995  0.0152 -2.9824 -1.0130
70343SOL    HW229022   8.109   7.427   3.884 -0.7090 -2.7408 -0.3208
70344SOL     OW29023   8.089  12.290  11.471 -0.0607 -0.2656  0.4548
70344SOL    HW129024   8.163  12.342  11.441  0.5835 -0.3962  1.7679
70344SOL    HW229025   8.123  12.239  11.544 -1.3956 -0.4594  0.9723
70345SOL     OW29026   2.752   2.029   8.597  0.2226 -0.1471  0.4068
70345SOL    HW129027   2.761   1.934   8.603  0.2632 -0.2656 -1.0932
70345SOL    HW229028   2.688   2.043   8.527 -0.3406  0.9220  1.1202
70346SOL     OW29029   0.361   2.876   2.830  0.2172 -0.6139  0.1563
70346SOL    HW129030   0.388   2.945   2.890  0.7988  0.9685 -1.8158
70346SOL    HW229031   0.442   2.831   2.805 -0.0469 -1.4150  0.7001
70347SOL     OW29032  10.600   3.211   4.709  0.4589 -0.1481 -0.6759
70347SOL    HW129033  10.528   3.274   4.710  1.7403  1.3927 -1.1476
70347SOL    HW229034  10.664   3.247   4.771  0.1856 -2.3305  0.9785
70348SOL     OW29035   0.137   2.994   1.188  0.3200  0.1131 -0.1060
70348SOL    HW129036   0.080   3.035   1.124  0.0987  0.3061  0.2088
70348SOL    HW229037   0.205   3.059   1.205  2.0826 -1.0487 -2.3202
70349SOL     OW29038  10.829   8.467   1.478  0.1297 -0.2557  0.2953
70349SOL    HW129039  10.919   8.498   1.468 -0.4544  0.8187 -2.8606
70349SOL    HW229040  10.828   8.425   1.564  3.2537  0.8960  1.0558
70350SOL     OW29041   6.248   6.557  12.207  0.2533  0.6866 -0.1930
70350SOL    HW129042   6.247   6.644  12.167 -2.2342  0.8807  0.1315
70350SOL    HW229043   6.243   6.574  12.301 -0.4830  0.2197 -0.1381
70351SOL     OW29044   6.133  10.018  11.047  0.1749 -0.0239  0.2951
70351SOL    HW129045   6.048  10.002  11.089 -0.4003 -0.0073 -0.8446
70351SOL    HW229046   6.150   9.939  10.996  0.7831  0.0349  0.3981
70352SOL     OW29047   0.944  10.500  13.144 -0.0497 -0.6237  0.3914
70352SOL    HW129048   1.002  10.495  13.219 -0.2872 -1.1249  0.5532
70352SOL    HW229049   0.902  10.413  13.141  0.6682 -0.9546 -0.8907
70353SOL     OW29050   7.569   7.009  13.885 -0.2902 -0.1585 -0.3090
70353SOL    HW129051   7.654   6.969  13.868  0.6911  1.7428 -0.1819
70353SOL    HW229052   7.568   7.026  13.979 -1.1256 -0.7879 -0.1883
70354SOL     OW29053   6.363   6.968  10.855 -0.4518 -0.0989  0.7072
70354SOL    HW129054   6.378   6.876  10.878 -1.7863  0.1515  2.9280
70354SOL    HW229055   6.450   7.007  10.856  0.0934 -1.2521  0.0998
70355SOL     OW29056   9.076   9.401   4.128  0.2150 -0.4414 -0.5665
70355SOL    HW129057   9.105   9.405   4.037  0.4991 -1.2340 -0.5202
70355SOL    HW229058   9.005   9.336   4.128 -1.8836  1.7037 -0.7416
70356SOL     OW29059   2.877  13.794   2.455 -0.5414  0.2335  0.1773
70356SOL    HW129060   2.920  13.782   2.539  0.3940 -0.1889 -0.3481
70356SOL    HW229061   2.835  13.880   2.461 -1.5835 -0.3282  1.5259
70357SOL     OW29062   3.910   3.268   2.616  0.4673  0.4513 -0.0833
70357SOL    HW129063   3.838   3.331   2.622 -0.0789 -0.1943  0.3291
70357SOL    HW229064   3.951   3.286   2.532 -0.3234  0.6830 -0.4303
70358SOL     OW29065   2.331   3.291   1.012 -0.2753  0.4173 -0.0222
70358SOL    HW129066   2.301   3.202   1.029  1.3250  0.0747  1.1688
70358SOL    HW229067   2.261   3.330   0.958 -0.5835 -1.8021 -1.3244
70359SOL     OW29068   3.437   7.808  12.019  0.0335  0.5023  0.2805
70359SOL    HW129069   3.502   7.878  12.022  0.3762  0.5341 -3.0988
70359SOL    HW229070   3.455   7.763  11.936 -3.0717 -0.6676  0.0982
70360SOL     OW29071   4.284   9.124   9.286  0.1938 -0.3963  1.0600
70360SOL    HW129072   4.323   9.054   9.234  1.3773 -1.9194  3.8014
70360SOL    HW229073   4.209   9.083   9.329 -1.1936  1.0237  0.1045
70361SOL     OW29074  11.043   6.740   2.007  0.9555  0.4832 -0.2166
70361SOL    HW129075  11.095   6.671   1.966  1.2670  1.0987 -0.8866
70361SOL    HW229076  11.087   6.821   1.981  0.2616  0.9609  0.0777
70362SOL     OW29077   6.383   3.693  11.904  0.6037  0.1808 -0.3793
70362SOL    HW129078   6.366   3.773  11.855 -0.6496  0.9660  1.2053
70362SOL    HW229079   6.296   3.654  11.916  0.9933 -0.5039  0.3317
70363SOL     OW29080   6.408  12.690   8.965  0.0083  0.0707 -0.0934
70363SOL    HW129081   6.428  12.770   9.013 -1.0069  1.0964 -1.3220
70363SOL    HW229082   6.460  12.697   8.885 -0.2004 -0.4275 -0.2754
70364SOL     OW29083  11.161   5.235  11.482 -0.0783 -0.0802 -0.3870
70364SOL    HW129084  11.193   5.291  11.411  0.2017  0.9292  0.4987
70364SOL    HW229085  11.077   5.273  11.507  0.3132  0.2295  0.5097
70365SOL     OW29086   9.193  12.365   3.156 -0.3417 -0.2526 -1.1971
70365SOL    HW129087   9.138  12.443   3.154  0.2510  0.2750  0.5825
70365SOL    HW229088   9.254  12.381   3.228  2.1795 -0.7978 -3.0683
70366SOL     OW29089  10.323  10.599  10.111  0.3102 -0.1185  0.5012
70366SOL    HW129090  10.250  10.644  10.153 -0.2182 -0.3654 -0.1504
70366SOL    HW229091  10.284  10.551  10.039  0.8707 -1.6409  1.1783
70367SOL     OW29092  12.050  12.428  13.781  0.1737  0.3360  0.4771
70367SOL    HW129093  12.112  12.363  13.746 -0.2620  0.0265  0.2713
70367SOL    HW229094  12.006  12.382  13.852  0.5168  0.7164  0.9388
70368SOL     OW29095   8.591  10.739   3.541  0.0578 -0.2227  0.6358
70368SOL    HW129096   8.586  10.779   3.628  1.7401 -0.4311  0.8516
70368SOL    HW229097   8.666  10.781   3.499  0.2039 -1.2213 -0.1358
70369SOL     OW29098   3.096  10.713  10.348  0.4418  0.6554 -0.0143
70369SOL    HW129099   3.158  10.657  10.395 -0.4576 -1.1617 -0.8597
70369SOL    HW229100   3.150  10.783  10.312  1.2191  2.0581  3.4305
70370SOL     OW29101   9.538   2.026   7.038 -0.1867  0.2134  0.0607
70370SOL    HW129102   9.581   2.083   6.974 -0.6835 -1.3525 -1.7587
70370SOL    HW229103   9.446   2.026   7.011 -0.1930 -1.4423 -0.0021
70371SOL     OW29104  10.012  10.728   7.784  0.1529  0.1973  0.2268
70371SOL    HW129105  10.069  10.677   7.726 -0.2885  0.3061 -0.3040
70371SOL    HW229106   9.925  10.722   7.745  0.1127  1.4866  0.0580
70372SOL     OW29107  10.523   8.939   4.647  0.4739  0.2449  0.1501
70372SOL    HW129108  10.537   8.886   4.568  0.6623  0.5151 -0.0017
70372SOL    HW229109  10.529   9.029   4.616 -0.2362  0.3662  0.3324
70373SOL     OW29110   6.091   9.394   4.404  0.4564 -0.2584 -0.0990
70373SOL    HW129111   5.995   9.387   4.406  0.4641 -0.2842  0.2644
70373SOL    HW229112   6.118   9.334   4.335  0.1522  0.4317 -0.8307
70374SOL     OW29113  10.989   5.608  11.710 -0.2734  0.6698  0.1508
70374SOL    HW129114  10.910   5.646  11.672  0.5384  0.8515 -1.4388
70374SOL    HW229115  11.005   5.530  11.657  0.9095  0.9335  0.0985
70375SOL     OW29116   2.355   4.018   2.797 -0.1015 -0.1109 -0.2353
70375SOL    HW129117   2.309   3.941   2.763 -0.4172 -1.0025  2.0273
70375SOL    HW229118   2.285   4.076   2.828  0.1947 -0.0099  0.2627
70376SOL     OW29119   7.035  12.030  12.770 -0.3638 -0.0493  0.0532
70376SOL    HW129120   6.954  12.077  12.750  1.3530  2.9000 -0.6507
70376SOL    HW229121   7.026  12.005  12.862 -1.1312  2.4134  0.7230
70377SOL     OW29122   3.435  12.503  13.729 -0.1200 -0.3057  0.3112
70377SOL    HW129123   3.459  12.477  13.818 -0.4323  1.0510  0.8288
70377SOL    HW229124   3.480  12.587  13.716 -0.8471 -0.0160 -0.4410
70378SOL     OW29125  10.319   8.586   6.545  0.6303  0.1104 -0.0212
70378SOL    HW129126  10.313   8.513   6.606 -1.5715  0.4468  0.2659
70378SOL    HW229127  10.297   8.663   6.598 -1.4166  0.3982 -1.1746
70379SOL     OW29128  12.555   8.119   6.417 -0.0097  0.3925 -0.1900
70379SOL    HW129129  12.516   8.116   6.329 -0.3333 -0.0273 -0.0347
70379SOL    HW229130  12.648   8.135   6.401  0.3129 -1.7133 -0.7347
70380SOL     OW29131   1.338  11.535  13.412  0.5556  0.2939 -0.4499
70380SOL    HW129132   1.431  11.535  13.388  0.1545 -0.1401 -2.1182
70380SOL    HW229133   1.310  11.626  13.401  0.9656  0.5929  0.8741
70381SOL     OW29134  13.063   4.633  11.140 -0.0280 -0.1019  0.2400
70381SOL    HW129135  13.096   4.596  11.058 -0.9307  0.3390 -0.3484
70381SOL    HW229136  12.968   4.639  11.126 -0.1706  0.1220  1.2653
70382SOL     OW29137   6.785   8.385   9.892  0.1042 -1.2438  0.4822
70382SOL    HW129138   6.881   8.391   9.895  0.0734 -0.1161 -0.2998
70382SOL    HW229139   6.767   8.308   9.838  0.5626 -1.1710  0.2228
70383SOL     OW29140  13.390   1.823   6.879  0.1423  0.2865 -0.3388
70383SOL    HW129141  13.466   1.859   6.923 -0.2762 -0.2994  0.9126
70383SOL    HW229142  13.416   1.816   6.787  1.0000  1.6436 -0.2336
70384SOL     OW29143  11.708   7.622   8.021  0.8796 -0.4956 -0.1829
70384SOL    HW129144  11.737   7.536   8.052  0.8844  0.3883  2.5523
70384SOL    HW229145  11.737   7.683   8.089 -0.2652  1.5233 -1.3965
70385SOL     OW29146  12.173   8.823   1.638 -0.2826  0.3425  0.0517
70385SOL    HW129147  12.120   8.822   1.717  0.5147  2.2866  0.6696
70385SOL    HW229148  12.117   8.864   1.572 -0.6053 -0.3876 -0.1302
70386SOL     OW29149  14.072   0.851   8.760 -0.0903 -0.1030 -0.6200
70386SOL    HW129150  14.013   0.858   8.835  0.9075  2.8140  0.0159
70386SOL    HW229151  14.159   0.837   8.800  0.3866  1.0644 -1.2105
70387SOL     OW29152   6.802   4.546  11.417  0.1505 -0.1604 -0.2018
70387SOL    HW129153   6.747   4.470  11.400 -0.7136  0.1102  1.1838
70387SOL    HW229154   6.755   4.594  11.486  0.0245  2.2999 -1.8830
70388SOL     OW29155  13.206   0.118   4.165 -0.8078  0.2304 -0.1240
70388SOL    HW129156  13.246   0.089   4.083  1.0051  0.9441  0.4571
70388SOL    HW229157  13.279   0.123   4.227 -1.8347  1.4396  1.0569
70389SOL     OW29158   7.150   6.908   3.605  0.3465  0.5380  0.4022
70389SOL    HW129159   7.071   6.952   3.575  0.1325 -0.1229 -0.0202
70389SOL    HW229160   7.214   6.922   3.536  0.1042 -0.2869  0.0043
70390SOL     OW29161   5.985   7.507   3.451 -0.3891  0.1533 -0.0253
70390SOL    HW129162   6.037   7.583   3.427  1.7471 -1.1256  0.3313
70390SOL    HW229163   5.943   7.532   3.533  2.5271  0.0353  1.6212
70391SOL     OW29164  11.885   7.962   0.564  0.1647 -0.9074  0.2628
70391SOL    HW129165  11.977   7.949   0.541  0.0486 -0.8037 -0.2557
70391SOL    HW229166  11.856   7.877   0.595  0.8460 -0.5880  1.8852
70392SOL     OW29167   8.518   4.753  11.845 -0.0337  0.1951 -0.3124
70392SOL    HW129168   8.503   4.662  11.817 -1.0608  0.0598  0.5948
70392SOL    HW229169   8.436   4.797  11.827 -0.0890  0.5458  0.7211
70393SOL     OW29170   9.467   9.381   9.435  0.4177 -0.7289 -0.1982
70393SOL    HW129171   9.517   9.302   9.456 -0.7384 -1.0304  1.6726
70393SOL    HW229172   9.379   9.362   9.465 -0.1174  0.9312 -0.6170
70394SOL     OW29173   0.046  12.286   3.847 -0.7744 -0.1168 -0.9311
70394SOL    HW129174  -0.036  12.254   3.887  0.8687 -3.6225  0.0870
70394SOL    HW229175   0.055  12.234   3.767  0.9398 -0.5879 -0.4631
70395SOL     OW29176   4.790  10.604  13.433 -0.1107  0.1928  0.8828
70395SOL    HW129177   4.712  10.655  13.457  0.2385  0.5166  1.3581
70395SOL    HW229178   4.821  10.644  13.352  1.5126  2.3370  2.4365
70396SOL     OW29179   8.550   7.804   5.459 -0.4828 -0.4307  0.3635
70396SOL    HW129180   8.559   7.898   5.449 -0.3745 -0.3359  1.2491
70396SOL    HW229181   8.456   7.789   5.470 -0.4996 -0.4216  0.2296
70397SOL     OW29182   7.103  12.422  12.251  0.1105  0.1969 -0.3194
70397SOL    HW129183   7.040  12.494  12.255  0.3451  0.5228 -1.7054
70397SOL    HW229184   7.101  12.394  12.159  0.7184 -0.9426 -0.0064
70398SOL     OW29185   2.996  13.128   6.247  0.3394  0.1092  0.0942
70398SOL    HW129186   2.951  13.166   6.323 -1.2047 -1.5338  0.0717
70398SOL    HW229187   2.940  13.150   6.173  0.5893 -0.3044 -0.2197
70399SOL     OW29188   9.862   0.469   6.151  0.4945  0.5612 -0.6336
70399SOL    HW129189   9.899   0.546   6.192  0.1541 -0.4321  1.7107
70399SOL    HW229190   9.874   0.483   6.057  1.6243  2.8159 -0.2121
70400SOL     OW29191   4.791  12.425  12.212  0.3028 -0.0824 -0.0763
70400SOL    HW129192   4.705  12.430  12.168 -0.0550 -2.6500  0.1567
70400SOL    HW229193   4.781  12.479  12.290 -1.0696 -0.1598 -0.1628
70401SOL     OW29194   4.318  13.204  13.710 -0.3210  0.5087  0.0977
70401SOL    HW129195   4.308  13.215  13.805  0.0814  0.2531  0.1740
70401SOL    HW229196   4.334  13.292  13.677  1.0670  0.4247  0.4690
70402SOL     OW29197   1.938  12.000  11.949 -0.0745 -1.0528 -0.0152
70402SOL    HW129198   1.930  12.014  11.854 -0.1980  1.9738  0.3434
70402SOL    HW229199   2.031  12.012  11.967 -0.4702  1.5942  0.5867
70403SOL     OW29200   8.597  12.643   9.874 -0.2298 -0.0570  0.7271
70403SOL    HW129201   8.599  12.561   9.925 -1.0508 -0.0599  0.7555
70403SOL    HW229202   8.584  12.614   9.784  1.0115 -0.0381  0.5155
70404SOL     OW29203   7.557   2.154   8.679  0.0201 -0.2010 -0.1412
70404SOL    HW129204   7.505   2.082   8.644 -0.9243  1.0032 -1.3444
70404SOL    HW229205   7.536   2.228   8.622  1.1234  0.9715  0.9170
70405SOL     OW29206   4.933   9.454  13.680 -0.2273 -0.0455 -0.3117
70405SOL    HW129207   4.891   9.508  13.614  0.4261  1.0769  0.1699
70405SOL    HW229208   4.938   9.509  13.758  2.9155  0.2707 -0.5795
70406SOL     OW29209   8.059   7.548   4.189 -0.2788  0.0156  0.5942
70406SOL    HW129210   8.118   7.505   4.251  0.5777  0.0519 -0.1754
70406SOL    HW229211   8.067   7.497   4.109 -2.8355 -1.2085  1.0201
70407SOL     OW29212   5.680   9.476  12.314 -0.3897 -0.0513  0.3792
70407SOL    HW129213   5.730   9.477  12.232 -2.3501  0.1293 -0.8767
70407SOL    HW229214   5.664   9.383  12.332 -1.1705 -0.0497 -0.2500
70408SOL     OW29215   9.801   5.195  12.252 -0.3532  0.5404  0.9310
70408SOL    HW129216   9.767   5.203  12.163  0.1921  0.1525  0.6780
70408SOL    HW229217   9.760   5.266  12.300 -1.1110  0.3991  0.5142
70409SOL     OW29218  11.434   0.890   7.094 -0.2036  0.3428  0.2485
70409SOL    HW129219  11.468   0.947   7.026  0.7397  0.6417  0.9399
70409SOL    HW229220  11.434   0.944   7.173 -0.3429 -0.2890  0.6931
70410SOL     OW29221  11.067  10.471  10.837 -0.4750  0.1213 -0.8476
70410SOL    HW129222  11.125  10.532  10.882  1.6300 -0.9371 -1.9505
70410SOL    HW229223  11.015  10.525  10.779  0.3459  1.0047 -0.7818
70411SOL     OW29224   1.760  10.198   9.804 -0.5407  0.0306  0.4403
70411SOL    HW129225   1.739  10.127   9.864  1.2919 -1.1622 -0.2537
70411SOL    HW229226   1.836  10.167   9.755 -0.9821  1.6203 -1.3793
70412SOL     OW29227   2.896   7.651  11.607 -0.1003 -0.0136 -0.0024
70412SOL    HW129228   2.818   7.701  11.632  0.1701  0.5633 -0.2893
70412SOL    HW229229   2.861   7.572  11.565 -0.5334 -0.3205  0.9225
70413SOL     OW29230   7.805  12.655   4.178  0.4213  0.2429 -0.1078
70413SOL    HW129231   7.758  12.594   4.121  0.9127 -0.7443  0.5194
70413SOL    HW229232   7.770  12.741   4.155 -1.2661 -0.4053 -0.0454
70414SOL     OW29233   7.315   2.012  13.624  0.2008  0.2181 -0.0817
70414SOL    HW129234   7.267   2.080  13.578 -2.5219 -1.1152  0.6073
70414SOL    HW229235   7.399   2.006  13.578 -0.5229  2.1799 -1.7880
70415SOL     OW29236   3.713   5.138   1.316  0.5271 -0.6397 -0.4883
70415SOL    HW129237   3.727   5.226   1.350 -0.2199 -0.9770  0.7473
70415SOL    HW229238   3.734   5.145   1.223  2.3923  0.3671 -0.0385
70416SOL     OW29239  10.760   2.500   0.873 -0.1608  0.3551 -0.4579
70416SOL    HW129240  10.687   2.561   0.860 -0.5614 -0.1317 -0.5425
70416SOL    HW229241  10.834   2.540   0.828 -0.0619  1.4276  0.5890
70417SOL     OW29242   8.562   7.661   5.713 -0.4751 -0.2670 -0.4698
70417SOL    HW129243   8.600   7.604   5.646  0.3194  0.9122 -1.0611
70417SOL    HW229244   8.563   7.748   5.674  0.1938  0.4927  1.1311
70418SOL     OW29245   8.324  10.796   0.625  0.2246  0.0259 -0.0900
70418SOL    HW129246   8.355  10.734   0.560  0.2802  1.0501 -1.0784
70418SOL    HW229247   8.294  10.742   0.698 -1.1842 -1.2383 -1.5254
70419SOL     OW29248   7.221  12.502  13.033 -0.5498  0.5641 -0.0394
70419SOL    HW129249   7.188  12.414  13.051  0.4881 -0.1201 -1.2984
70419SOL    HW229250   7.240  12.539  13.119 -3.9139  0.8058  0.7509
70420SOL     OW29251   7.828   1.509   3.379  0.4922  0.2842 -0.5772
70420SOL    HW129252   7.830   1.440   3.313 -1.0910 -0.3914  0.0427
70420SOL    HW229253   7.880   1.475   3.452  1.7877  0.8071 -1.2261
70421SOL     OW29254  14.029   2.979  13.128  0.3629 -0.3699 -0.0722
70421SOL    HW129255  13.968   2.906  13.114  1.0583 -0.6907 -1.5856
70421SOL    HW229256  14.084   2.980  13.050  0.2073  1.9661 -0.2212
70422SOL     OW29257   8.139   7.524  13.513  0.0389 -0.0249  0.7205
70422SOL    HW129258   8.180   7.439  13.529 -0.0206 -0.2639 -0.3565
70422SOL    HW229259   8.045   7.508  13.528  0.1004  0.0270  1.1898
70423SOL     OW29260  11.156  13.188   9.774 -0.3512 -0.1168  0.2045
70423SOL    HW129261  11.142  13.276   9.810 -0.6764 -0.4918  1.0342
70423SOL    HW229262  11.107  13.187   9.692 -1.0959  0.1945  0.6361
70424SOL     OW29263   8.549   2.780   3.890 -0.0877  0.2475  0.1034
70424SOL    HW129264   8.591   2.715   3.834  1.7370  2.2526 -1.0278
70424SOL    HW229265   8.586   2.765   3.977 -1.7126 -1.8432  0.5172
70425SOL     OW29266  12.037   6.716  10.023  0.0224  0.0931 -0.5261
70425SOL    HW129267  12.097   6.709   9.948  1.0587 -0.4167  0.3207
70425SOL    HW229268  12.065   6.795  10.069  0.4688 -0.4749  0.2076
70426SOL     OW29269   1.381  11.207  13.374 -0.4971 -0.2454 -0.0979
70426SOL    HW129270   1.415  11.250  13.296  0.1493 -1.9266 -0.7896
70426SOL    HW229271   1.286  11.216  13.367 -0.3888  1.3558  0.0030
70427SOL     OW29272   5.239   9.214  10.958  0.0432 -0.1757  0.3603
70427SOL    HW129273   5.296   9.161  11.014 -0.9674 -0.1471  1.4673
70427SOL    HW229274   5.185   9.150  10.912 -1.4521 -0.1794  1.9933
70428SOL     OW29275   8.235   8.433   8.421 -0.2179 -0.0063 -0.5468
70428SOL    HW129276   8.323   8.397   8.415 -0.0340  0.6347 -2.5211
70428SOL    HW229277   8.235   8.506   8.359 -1.7015  0.9691  0.5385
70429SOL     OW29278   9.578   3.272  10.198  0.0253 -0.4363 -0.0656
70429SOL    HW129279   9.508   3.329  10.229  0.2534 -0.5136  0.6004
70429SOL    HW229280   9.580   3.199  10.260 -0.8315 -1.6268 -1.3800
70430SOL     OW29281  10.411   0.821   9.013  0.5048 -0.4239  0.1218
70430SOL    HW129282  10.386   0.843   8.923 -0.7053  0.5276  0.6564
70430SOL    HW229283  10.415   0.726   9.014  0.8787 -0.4348 -1.0183
70431SOL     OW29284   9.068   0.253  11.726 -0.2905  0.0743 -0.3199
70431SOL    HW129285   9.008   0.327  11.735  0.0793  0.5426 -1.5339
70431SOL    HW229286   9.140   0.286  11.673  1.4802 -0.2479  1.7444
70432SOL     OW29287  13.769  13.996   6.250 -0.6885 -0.6196 -0.2643
70432SOL    HW129288  13.695  13.978   6.193 -1.3846 -3.0024  1.1974
70432SOL    HW229289  13.752  14.082   6.287 -1.8989 -0.4576 -1.1594
70433SOL     OW29290   7.877  12.126   0.787  0.5998  0.3135 -0.5569
70433SOL    HW129291   7.972  12.112   0.796  0.3630 -1.2255 -0.0352
70433SOL    HW229292   7.846  12.046   0.744 -0.7117 -0.0930  1.0508
70434SOL     OW29293  12.189   7.721   1.669  0.3582 -0.0423 -0.0632
70434SOL    HW129294  12.172   7.645   1.613 -1.7984  0.8322 -0.6821
70434SOL    HW229295  12.199   7.794   1.607  0.5809  0.4921  0.5969
70435SOL     OW29296  11.686  13.570   9.670 -0.2581 -0.3297  0.2286
70435SOL    HW129297  11.738  13.490   9.669  0.2166 -0.0293  0.4422
70435SOL    HW229298  11.748  13.639   9.645 -0.8523 -0.1345 -0.7325
70436SOL     OW29299   0.722   0.447   9.451  0.0621 -0.4704 -0.0077
70436SOL    HW129300   0.726   0.352   9.463 -0.4912 -0.6120 -0.8367
70436SOL    HW229301   0.794   0.467   9.393 -0.0249 -0.4284 -0.1007
70437SOL     OW29302   8.834   4.194   4.363 -0.0141  0.6874  0.0807
70437SOL    HW129303   8.903   4.221   4.303  0.2082 -2.1612 -1.0881
70437SOL    HW229304   8.753   4.200   4.312 -0.3499  1.7737  0.7091
70438SOL     OW29305  12.816  13.473   9.101  0.3265  0.5097 -0.1692
70438SOL    HW129306  12.729  13.499   9.130 -0.8064 -1.2785 -1.7336
70438SOL    HW229307  12.875  13.536   9.144 -1.6608  1.5767  1.1916
70439SOL     OW29308   0.031  13.375   1.538  0.5692  0.2478  0.4297
70439SOL    HW129309   0.049  13.283   1.556  2.3665  0.8795  2.1406
70439SOL    HW229310  -0.043  13.397   1.594 -0.2591 -0.2707 -0.4300
70440SOL     OW29311   9.175  11.518   2.644 -0.3740 -0.8141  0.0149
70440SOL    HW129312   9.236  11.462   2.692  0.8928 -0.8175 -1.5362
70440SOL    HW229313   9.191  11.499   2.552  0.9166  2.7787 -0.6950
70441SOL     OW29314   4.144   1.204  11.345 -0.0803 -0.3865  0.0909
70441SOL    HW129315   4.134   1.297  11.364 -0.8873 -0.6785  1.2139
70441SOL    HW229316   4.199   1.171  11.417 -1.7339 -1.1973  1.0308
70442SOL     OW29317   1.792   8.544   5.411 -0.5161 -0.1277 -0.0766
70442SOL    HW129318   1.856   8.474   5.418 -0.1498  0.3575  2.2059
70442SOL    HW229319   1.762   8.540   5.320  0.7308 -2.1098 -0.4639
70443SOL     OW29320   1.152   3.168   0.306  0.4222  0.3351 -0.1685
70443SOL    HW129321   1.164   3.101   0.373  1.0088 -0.2746 -0.8662
70443SOL    HW229322   1.144   3.250   0.355 -0.5380 -0.2629  0.7099
70444SOL     OW29323  14.144   3.391  10.273  0.0666  0.0010  0.5649
70444SOL    HW129324  14.231   3.420  10.299  0.1803  0.6401 -0.4573
70444SOL    HW229325  14.123   3.445  10.197 -1.3227  0.0211  0.9439
70445SOL     OW29326   0.823   6.097  11.716  0.5160  0.1198 -0.0968
70445SOL    HW129327   0.766   6.056  11.651 -0.0604  0.2865  0.2960
70445SOL    HW229328   0.763   6.144  11.774  0.9937 -0.2525  0.7204
70446SOL     OW29329  10.171  11.872   6.451  0.0750  0.1282  0.1714
70446SOL    HW129330  10.197  11.964   6.453  1.1539 -0.1595  0.2079
70446SOL    HW229331  10.253  11.825   6.434 -0.4605 -0.8246  0.1763
70447SOL     OW29332   0.902  14.137  13.902 -0.3131  0.6153  0.5335
70447SOL    HW129333   0.950  14.059  13.873 -0.1213  0.2320  1.8505
70447SOL    HW229334   0.971  14.201  13.921 -0.4867  1.4775 -1.4195
70448SOL     OW29335  11.984  11.470   9.198  0.0036 -0.2332 -0.1658
70448SOL    HW129336  12.066  11.519   9.190 -0.3561  0.5431  0.7884
70448SOL    HW229337  11.978  11.421   9.116 -0.3371  2.3829 -1.8068
70449SOL     OW29338   2.573   9.840   1.938  0.0610  0.0890 -0.0057
70449SOL    HW129339   2.640   9.772   1.936  1.5277  1.4501 -2.7081
70449SOL    HW229340   2.623   9.922   1.941 -1.4415  1.1419 -1.8610
70450SOL     OW29341  11.835  11.860   2.643  0.4704 -0.1962  0.2193
70450SOL    HW129342  11.929  11.846   2.630  0.1365 -0.6113 -2.2873
70450SOL    HW229343  11.809  11.915   2.569 -1.1646  0.4167  1.2065
70451SOL     OW29344  10.800   4.429   6.403  0.3768  0.6713 -0.2911
70451SOL    HW129345  10.755   4.486   6.340  1.6909  1.4504 -0.5717
70451SOL    HW229346  10.742   4.427   6.479 -0.2281  1.4693 -0.7075
70452SOL     OW29347  10.760  11.155   8.279 -0.4013  0.1089  0.4931
70452SOL    HW129348  10.779  11.249   8.285 -1.0207  0.3687 -1.0288
70452SOL    HW229349  10.671  11.146   8.313  0.9084 -0.5444  4.1225
70453SOL     OW29350   6.851   2.428   8.681 -0.1653  0.0129  0.1948
70453SOL    HW129351   6.866   2.414   8.774 -1.8679  2.2453  0.9091
70453SOL    HW229352   6.872   2.520   8.667 -2.4505  0.4258 -0.9827
70454SOL     OW29353   7.090   1.712   0.215 -0.0183 -0.4625 -0.2118
70454SOL    HW129354   7.157   1.781   0.207  0.9630 -1.4653 -1.1269
70454SOL    HW229355   7.140   1.630   0.216 -1.1822 -1.1964  0.3866
70455SOL     OW29356   6.439   3.226   2.061  0.0617  0.6375 -0.0840
70455SOL    HW129357   6.372   3.284   2.096 -0.5569  0.5123 -1.0564
70455SOL    HW229358   6.449   3.158   2.129  0.4136  1.5518  0.8111
70456SOL     OW29359   8.897   4.611   5.552  0.3230  0.2219  0.2870
70456SOL    HW129360   8.878   4.652   5.468 -2.0405  0.3107  0.7958
70456SOL    HW229361   8.991   4.625   5.565  0.2263  2.6104 -1.0675
70457SOL     OW29362  11.736   0.355  11.737  0.1515 -0.7185 -0.0315
70457SOL    HW129363  11.754   0.261  11.742  0.5624 -0.6235  0.3643
70457SOL    HW229364  11.642   0.360  11.717  0.0499 -1.2120  0.2805
70458SOL     OW29365  13.515   0.997   0.254  0.0807 -0.7562 -0.3265
70458SOL    HW129366  13.431   1.038   0.275  0.2924 -0.6823  0.3940
70458SOL    HW229367  13.541   1.038   0.171 -1.4564 -2.0879 -1.5315
70459SOL     OW29368   5.294  14.012  11.189  0.2419  0.3852 -0.3249
70459SOL    HW129369   5.204  13.980  11.185  0.7578 -1.0916 -0.6754
70459SOL    HW229370   5.338  13.968  11.116  0.9799  1.9925 -0.8937
70460SOL     OW29371   9.180   5.158   6.547  0.2408  0.6373 -0.2254
70460SOL    HW129372   9.163   5.157   6.452 -2.0871 -0.4887  0.1401
70460SOL    HW229373   9.102   5.121   6.586  0.9014  1.6180  2.2300
70461SOL     OW29374   4.225   8.834  12.290  0.1850  0.4899  0.1720
70461SOL    HW129375   4.159   8.896  12.320 -1.0471  0.4243 -2.0963
70461SOL    HW229376   4.186   8.748  12.306  0.7096  0.3783  0.8637
70462SOL     OW29377  12.076   7.591   2.136 -0.1137  0.1704  0.1963
70462SOL    HW129378  12.135   7.577   2.062  1.6225 -0.3093  1.6016
70462SOL    HW229379  12.016   7.516   2.134  0.5247 -0.3398 -0.1616
70463SOL     OW29380   0.856   0.856   6.864 -0.0988 -0.0773 -0.3804
70463SOL    HW129381   0.850   0.793   6.936 -0.2595  0.3390 -0.0297
70463SOL    HW229382   0.941   0.897   6.875 -0.3276  0.3382 -0.1323
70464SOL     OW29383  13.049  11.506  11.518  0.0064  0.1952  0.0990
70464SOL    HW129384  13.090  11.572  11.573 -1.4601  0.9941  0.2758
70464SOL    HW229385  13.007  11.446  11.580  2.7776 -2.0096  0.0453
70465SOL     OW29386   3.088   3.355  13.637 -0.0817  0.2572  0.7216
70465SOL    HW129387   3.014   3.382  13.582  2.5409  0.6103 -3.0576
70465SOL    HW229388   3.142   3.434  13.646  1.6673 -0.7998  0.0457
70466SOL     OW29389  10.417   1.267   4.363 -0.0990 -0.3258 -0.1068
70466SOL    HW129390  10.455   1.344   4.404 -0.1805  0.7938 -1.9997
70466SOL    HW229391  10.481   1.241   4.297 -0.3386 -1.5539  0.1134
70467SOL     OW29392   9.972   1.379   2.856  0.3968  0.0510 -0.0734
70467SOL    HW129393  10.061   1.403   2.834 -0.1388  0.2973 -2.1323
70467SOL    HW229394   9.974   1.285   2.869  0.6089 -0.2600 -2.1369
70468SOL     OW29395   5.990   3.441   2.429 -0.3455  0.4360 -0.2251
70468SOL    HW129396   6.063   3.427   2.369  0.5240 -0.1585  0.9371
70468SOL    HW229397   6.031   3.467   2.512 -1.4480  0.1816  0.4178
70469SOL     OW29398  13.512   0.959   3.710 -0.1616  0.2126  0.0448
70469SOL    HW129399  13.459   0.997   3.640 -0.7110  1.1664  0.9494
70469SOL    HW229400  13.582   0.912   3.665  0.8062  2.6499 -1.1343
70470SOL     OW29401   4.917   5.394  13.159  0.2172  0.9175 -0.2619
70470SOL    HW129402   5.010   5.411  13.177  0.2414  1.6449 -1.0227
70470SOL    HW229403   4.909   5.401  13.064 -0.5596  0.5013 -0.2388
70471SOL     OW29404   3.403  11.272   0.163 -0.2869  0.4074 -0.1986
70471SOL    HW129405   3.471  11.257   0.098 -0.1290  0.9884 -0.1805
70471SOL    HW229406   3.451  11.304   0.240 -0.7069  2.7031 -0.8061
70472SOL     OW29407   4.179   7.781   5.242 -0.4188 -0.1162 -0.5373
70472SOL    HW129408   4.208   7.778   5.333 -0.6109  2.4214 -0.3323
70472SOL    HW229409   4.250   7.738   5.193 -0.4161 -1.7034  0.7714
70473SOL     OW29410   6.585   8.653   5.803 -0.1012 -0.3554  0.3576
70473SOL    HW129411   6.518   8.585   5.810 -1.2423  0.6618 -0.3360
70473SOL    HW229412   6.541   8.733   5.831  0.0714  0.7749 -2.3899
70474SOL     OW29413   5.049   6.274  10.754 -0.2886 -0.0188  0.1056
70474SOL    HW129414   5.000   6.192  10.757  0.7330 -0.6209  0.4684
70474SOL    HW229415   5.005   6.325  10.686 -0.0562 -1.4381 -1.1687
70475SOL     OW29416   6.553   1.077  10.290  0.0490 -0.4632  0.3401
70475SOL    HW129417   6.628   1.103  10.236  0.0463 -0.8274  0.1599
70475SOL    HW229418   6.494   1.032  10.230 -0.8178  0.7455  0.2454
70476SOL     OW29419   1.291   6.125  14.071 -0.1991 -0.3359 -0.5981
70476SOL    HW129420   1.238   6.182  14.128 -2.1498 -0.0175 -2.6115
70476SOL    HW229421   1.380   6.132  14.106 -1.1535  0.4748  1.8801
70477SOL     OW29422  13.519  11.942   7.841  0.1432  0.3832 -0.4399
70477SOL    HW129423  13.467  11.945   7.921  1.6901  0.2136  0.6033
70477SOL    HW229424  13.553  12.031   7.830  1.9803 -0.1621  0.5193
70478SOL     OW29425  13.660  10.099   7.719 -0.0636  0.1951 -0.2289
70478SOL    HW129426  13.590  10.103   7.785  0.5769  0.6370  0.4387
70478SOL    HW229427  13.712  10.022   7.745  1.3372  1.4845  0.9931
70479SOL     OW29428   9.602   9.661   1.727  0.5124 -0.2802  0.2695
70479SOL    HW129429   9.678   9.691   1.678  0.8009  1.2252  1.5506
70479SOL    HW229430   9.627   9.672   1.819 -1.4275  0.8081  0.7232
70480SOL     OW29431   8.906  11.088   6.264 -0.0422  0.1598  0.0060
70480SOL    HW129432   8.930  11.130   6.182  1.1537 -0.0005  0.2476
70480SOL    HW229433   8.948  11.142   6.331 -0.7969  0.1456  0.4964
70481SOL     OW29434   3.036   4.380   9.341 -0.1251  0.4380 -0.4159
70481SOL    HW129435   2.996   4.311   9.394  0.9377 -0.2356 -0.4724
70481SOL    HW229436   3.017   4.355   9.251 -2.2206  1.7575 -0.4033
70482SOL     OW29437   5.206   4.521   3.906  0.5606  0.0894 -0.4259
70482SOL    HW129438   5.236   4.612   3.907 -0.6145  0.5012 -0.8305
70482SOL    HW229439   5.110   4.527   3.903  0.3554 -1.1724  1.5943
70483SOL     OW29440  10.145   6.814   2.903 -0.5386 -0.0924 -0.3356
70483SOL    HW129441  10.109   6.884   2.958  2.7180  2.6505 -1.3190
70483SOL    HW229442  10.111   6.832   2.816  2.3562  2.1891 -1.1591
70484SOL     OW29443   6.214   0.174   6.375 -0.2320 -0.3989 -0.0109
70484SOL    HW129444   6.124   0.148   6.352  0.0456 -0.4652 -1.0794
70484SOL    HW229445   6.266   0.095   6.361  0.2079  0.0114 -0.7945
70485SOL     OW29446   1.697   8.020  12.649 -0.0177  0.0661  0.0084
70485SOL    HW129447   1.610   7.983  12.637  0.0434 -0.4333  0.9734
70485SOL    HW229448   1.753   7.969  12.591 -0.5164  1.1022 -1.4409
70486SOL     OW29449   8.252   6.497   9.204 -0.0391 -0.1050 -0.3630
70486SOL    HW129450   8.172   6.510   9.255 -0.2907 -1.0490 -0.4892
70486SOL    HW229451   8.322   6.494   9.269 -0.3918 -1.6320  0.0052
70487SOL     OW29452  13.961   6.327   7.941  0.1733  0.1646 -0.2483
70487SOL    HW129453  13.878   6.373   7.954  0.3618  0.0217  1.7022
70487SOL    HW229454  14.026   6.381   7.986  1.2121  0.3826 -1.9231
70488SOL     OW29455  11.842   1.539   8.259 -0.7533 -0.8505  0.1768
70488SOL    HW129456  11.774   1.548   8.193  1.7347  2.5480 -2.2975
70488SOL    HW229457  11.825   1.611   8.321  0.3628 -0.0900 -0.3578
70489SOL     OW29458   1.076  13.874  12.666 -0.1898 -0.2225 -0.0257
70489SOL    HW129459   1.151  13.883  12.607 -1.5333  2.6069 -1.5274
70489SOL    HW229460   1.029  13.797  12.634  1.6493 -1.6534  0.5398
70490SOL     OW29461   1.729   8.421   3.232 -0.1358 -0.2816 -0.1691
70490SOL    HW129462   1.728   8.472   3.313  1.6535 -0.0842 -0.2349
70490SOL    HW229463   1.738   8.330   3.261 -1.2086 -0.3896 -0.1211
70491SOL     OW29464  11.231   6.615  11.741  0.4599 -0.3053  0.0532
70491SOL    HW129465  11.171   6.542  11.723 -0.1181 -0.0137  0.7510
70491SOL    HW229466  11.215   6.637  11.832  1.5143 -0.0989  0.1951
70492SOL     OW29467   8.597   7.386   4.376 -0.0619 -0.7015  0.6252
70492SOL    HW129468   8.651   7.334   4.316  1.5933  0.3317  1.1596
70492SOL    HW229469   8.660   7.435   4.428 -1.5208 -0.2052  1.9804
70493SOL     OW29470   8.451   1.134   0.081 -0.1748  0.1950  0.1805
70493SOL    HW129471   8.471   1.064   0.143 -1.0677 -0.3954 -0.1828
70493SOL    HW229472   8.483   1.214   0.124  2.4522 -0.5799 -0.1172
70494SOL     OW29473   5.883  12.860   1.330  0.2286 -0.0580  0.8533
70494SOL    HW129474   5.939  12.932   1.357 -0.8663  1.2404 -0.1869
70494SOL    HW229475   5.907  12.843   1.239 -0.3701 -0.1570  0.7076
70495SOL     OW29476   7.050  13.127   9.371 -0.2325 -0.4735 -0.4347
70495SOL    HW129477   7.008  13.204   9.334 -1.4411 -0.7190  0.3719
70495SOL    HW229478   6.978  13.068   9.392  0.4397 -0.7145  1.4179
70496SOL     OW29479   9.491   4.206   7.389  0.2885  0.1041  0.3133
70496SOL    HW129480   9.430   4.270   7.354 -1.4951 -1.7211 -0.1316
70496SOL    HW229481   9.441   4.159   7.456  0.7553 -2.1715 -0.8245
70497SOL     OW29482  10.277   0.284  12.785  0.1902  0.3074 -0.1750
70497SOL    HW129483  10.254   0.368  12.824 -1.7281 -0.4806  0.5576
70497SOL    HW229484  10.331   0.306  12.709 -0.0808  2.1794  0.1289
70498SOL     OW29485   7.418   9.578   1.715 -0.0760 -0.8864  0.3182
70498SOL    HW129486   7.365   9.655   1.699 -0.4001 -0.7755  1.7456
70498SOL    HW229487   7.485   9.579   1.647 -1.5422 -0.7270 -1.1692
70499SOL     OW29488   7.466   2.519   2.010 -0.1947 -0.1261 -0.2084
70499SOL    HW129489   7.432   2.524   1.920  2.2770 -0.7192 -1.2752
70499SOL    HW229490   7.464   2.425   2.030  2.3194 -0.4310 -1.0246
70500SOL     OW29491   8.264   5.311   1.851  0.3309 -0.0604  0.0133
70500SOL    HW129492   8.244   5.221   1.826  0.5448  0.1604 -0.9619
70500SOL    HW229493   8.320   5.344   1.781 -0.6469  1.1896 -0.1973
70501SOL     OW29494   1.067   5.154  11.904 -0.4246 -0.4008  0.6063
70501SOL    HW129495   1.024   5.068  11.904 -0.5219 -0.3806 -0.7082
70501SOL    HW229496   0.995   5.217  11.906 -0.4158 -0.3658  0.0714
70502SOL     OW29497   4.413  12.533  11.005 -0.3970 -0.1583  0.6790
70502SOL    HW129498   4.321  12.510  11.018 -0.3924 -1.1084 -0.6968
70502SOL    HW229499   4.447  12.463  10.949  0.1497  2.1697 -2.1174
70503SOL     OW29500   4.920   7.142   6.447 -0.7807 -0.1155 -0.1356
70503SOL    HW129501   4.854   7.184   6.392  0.3182  0.1487 -1.2984
70503SOL    HW229502   4.993   7.126   6.389 -0.7023 -2.6286  0.5524
70504SOL     OW29503   3.383   0.642   2.086 -0.9559  0.0759  0.8762
70504SOL    HW129504   3.427   0.560   2.062 -1.7276 -0.5532  1.5926
70504SOL    HW229505   3.300   0.639   2.039 -0.9200  0.5357  0.7760
70505SOL     OW29506   0.043  12.104   4.782  0.2583  0.1817 -0.0350
70505SOL    HW129507   0.043  12.105   4.686  1.7941  0.3289 -0.0702
70505SOL    HW229508  -0.037  12.150   4.807  0.8494  2.0360 -1.2859
70506SOL     OW29509   1.661   3.329  12.143  0.0658  0.4769 -0.1209
70506SOL    HW129510   1.727   3.374  12.196 -0.5361  0.0239  1.0437
70506SOL    HW229511   1.662   3.238  12.175  0.6820 -0.1621 -1.8684
70507SOL     OW29512  11.251  11.926   7.366  0.1887 -0.3773 -0.2479
70507SOL    HW129513  11.329  11.908   7.314  1.2476 -0.7770  1.3936
70507SOL    HW229514  11.206  11.841   7.371  0.5969 -0.5658  0.2789
70508SOL     OW29515   7.509   6.269   5.806  0.1291  0.0423  0.1334
70508SOL    HW129516   7.603   6.259   5.816  0.0273  0.6242  2.0167
70508SOL    HW229517   7.471   6.213   5.874 -0.8829 -0.0378 -0.4695
70509SOL     OW29518  10.180   7.597  12.257 -0.3562  0.0828  0.5105
70509SOL    HW129519  10.159   7.612  12.164 -0.6534  1.0384  0.7162
70509SOL    HW229520  10.111   7.643  12.304  0.5284  0.7352  1.2074
70510SOL     OW29521   9.986  10.710  10.833 -0.4714  0.2881 -0.4680
70510SOL    HW129522   9.965  10.759  10.754  1.1850 -1.5184 -2.1440
70510SOL    HW229523  10.035  10.634  10.802  0.8244 -0.1785  2.3593
70511SOL     OW29524  11.338   0.705  12.140 -0.0721 -0.1298 -0.9992
70511SOL    HW129525  11.333   0.767  12.067 -2.0580  0.3131 -0.5479
70511SOL    HW229526  11.252   0.663  12.142 -0.0937 -0.1101  1.0864
70512SOL     OW29527   9.630  13.715   6.434 -0.6318 -0.3717  0.0187
70512SOL    HW129528   9.643  13.717   6.528  0.2481  0.0824 -0.0972
70512SOL    HW229529   9.597  13.803   6.412 -1.5922 -0.7210 -0.0118
70513SOL     OW29530  10.076   2.549  12.600  0.2219  0.2381 -0.3464
70513SOL    HW129531  10.028   2.468  12.582  1.2820 -0.6784  0.8074
70513SOL    HW229532  10.152   2.545  12.540 -0.7418  1.3693 -1.7050
70514SOL     OW29533  11.771   3.985   3.087  0.2785  0.2783  0.1286
70514SOL    HW129534  11.821   3.959   3.009  0.6990  0.4440  0.3399
70514SOL    HW229535  11.794   3.921   3.154  0.4378  0.5318  0.3155
70515SOL     OW29536   5.168  11.688   4.677  0.2451  0.3237 -0.1646
70515SOL    HW129537   5.227  11.642   4.617  0.5766 -1.2477  1.2781
70515SOL    HW229538   5.117  11.747   4.620  1.8931  0.3708 -1.6880
70516SOL     OW29539   0.390  12.520   2.558  0.6046  0.3124  0.0142
70516SOL    HW129540   0.416  12.584   2.624 -1.0427  2.4049 -1.2501
70516SOL    HW229541   0.447  12.538   2.483 -1.2688  1.8425 -1.1193
70517SOL     OW29542   8.959  13.089   3.969  0.1297 -0.0543 -0.0868
70517SOL    HW129543   8.968  13.178   3.934  0.3030  0.1871  0.5463
70517SOL    HW229544   9.043  13.048   3.950  0.1842  0.0418 -0.0612
70518SOL     OW29545   3.683   9.739  12.189  0.1317  0.3614  0.2812
70518SOL    HW129546   3.778   9.730  12.196  0.2477 -1.9777 -2.3091
70518SOL    HW229547   3.669   9.806  12.122  0.0227 -0.1856 -0.2554
70519SOL     OW29548   6.475   4.914  11.765  0.8440  0.4035  0.1111
70519SOL    HW129549   6.530   4.838  11.782  0.2015  0.0541  0.7138
70519SOL    HW229550   6.386   4.882  11.779  0.5133  1.0463 -0.4940
70520SOL     OW29551  13.524   7.662  10.126 -0.0711  0.0665 -0.0466
70520SOL    HW129552  13.527   7.589  10.187 -1.9342 -0.3868 -0.4424
70520SOL    HW229553  13.508   7.622  10.041  0.7733  0.8100 -0.5728
70521SOL     OW29554  13.896  11.085   0.216  0.0560  0.1378  0.2344
70521SOL    HW129555  13.940  11.163   0.250  0.3633 -0.3998  1.0998
70521SOL    HW229556  13.937  11.070   0.131  1.1127  0.0157  0.7486
70522SOL     OW29557   4.374   9.903   7.232  0.5949 -0.0361  0.5862
70522SOL    HW129558   4.433   9.839   7.272  1.2580  0.1969  0.0210
70522SOL    HW229559   4.299   9.852   7.202  1.0719 -0.5441  0.2273
70523SOL     OW29560   6.680   0.380   1.134  0.4170  0.1866  0.0264
70523SOL    HW129561   6.692   0.463   1.179 -2.2680  1.7303 -1.7976
70523SOL    HW229562   6.585   0.368   1.131  0.5780 -1.1767 -2.7731
70524SOL     OW29563  11.259   6.535   1.301 -0.1868  0.3232 -0.3963
70524SOL    HW129564  11.213   6.453   1.320 -0.2528  0.0851 -1.5285
70524SOL    HW229565  11.299   6.521   1.215  1.3342  0.8229  0.1936
70525SOL     OW29566   3.552  11.579  11.364  0.0592  0.2428 -0.2750
70525SOL    HW129567   3.509  11.519  11.425 -0.3021  0.8257  0.0605
70525SOL    HW229568   3.544  11.665  11.406  1.5648  0.3681 -0.1956
70526SOL     OW29569  11.521   4.761   9.824 -0.0356 -0.1144  0.6834
70526SOL    HW129570  11.441   4.726   9.784  1.8951 -2.8505 -1.1055
70526SOL    HW229571  11.537   4.705   9.900  0.7586 -0.3137  0.3784
70527SOL     OW29572   6.795   7.492   1.221  0.4274  0.0681  0.9074
70527SOL    HW129573   6.723   7.506   1.160  1.7531  0.9791 -0.5210
70527SOL    HW229574   6.802   7.397   1.230 -0.0481 -0.0625 -0.0478
70528SOL     OW29575   3.441  10.046   6.277 -0.2398 -0.2896 -0.3252
70528SOL    HW129576   3.442  10.006   6.190 -1.3507 -1.6345  0.2409
70528SOL    HW229577   3.507  10.115   6.272  0.0268 -0.6146 -2.0962
70529SOL     OW29578   2.841   4.297   9.944 -0.3966  0.4801 -0.4953
70529SOL    HW129579   2.831   4.288   9.849 -0.0573 -0.7739 -0.4305
70529SOL    HW229580   2.752   4.308   9.977 -0.5860  0.1926 -0.8971
70530SOL     OW29581   9.445   7.718   0.269  0.9380  0.0755 -0.2991
70530SOL    HW129582   9.353   7.732   0.291  0.5391 -2.3165 -0.1304
70530SOL    HW229583   9.443   7.670   0.186  2.0984  0.8100 -0.7882
70531SOL     OW29584  11.483   1.770   4.200 -0.0824 -0.1763 -0.2037
70531SOL    HW129585  11.393   1.738   4.194 -0.2463  0.2112  0.1339
70531SOL    HW229586  11.495   1.791   4.292  0.2719  0.0165 -0.2922
70532SOL     OW29587  12.559   0.963  11.456  0.5128  0.2743  0.4541
70532SOL    HW129588  12.464   0.951  11.467  0.7062 -0.7859  1.1408
70532SOL    HW229589  12.574   0.957  11.362 -0.0514  0.0273  0.3781
70533SOL     OW29590  13.991  10.091  10.107  0.2690 -0.1415 -0.1942
70533SOL    HW129591  13.943  10.135  10.176 -0.4535 -0.7274 -0.3081
70533SOL    HW229592  13.990  10.153  10.034  0.6687  0.3052  0.1746
70534SOL     OW29593   0.986  11.382  10.621 -0.0902  0.1749  0.5727
70534SOL    HW129594   1.069  11.421  10.590 -0.5175  1.6520  1.2040
70534SOL    HW229595   1.012  11.300  10.661  1.2331  1.0977  1.6940
70535SOL     OW29596   6.432   0.551  13.914 -1.1859  0.1386  0.6073
70535SOL    HW129597   6.449   0.547  13.820 -3.0328  0.8293  0.1904
70535SOL    HW229598   6.479   0.476  13.950 -1.1948 -0.7052 -1.0093
70536SOL     OW29599  14.149  10.130   1.059 -0.1025  0.0871  0.3931
70536SOL    HW129600  14.215  10.173   1.113  0.0322  0.5859 -0.1566
70536SOL    HW229601  14.068  10.136   1.110  0.2543 -0.4722  1.0432
70537SOL     OW29602   8.202   7.059   7.151  0.2272 -0.5694 -0.0505
70537SOL    HW129603   8.283   7.109   7.156 -0.3165  0.3352 -0.1053
70537SOL    HW229604   8.133   7.125   7.145 -0.5111 -1.3247 -0.0908
70538SOL     OW29605   7.839   7.978   2.167 -0.4298  0.0974  0.1641
70538SOL    HW129606   7.895   7.911   2.128  0.6082  1.7074 -1.2762
70538SOL    HW229607   7.873   7.990   2.255  0.0790 -0.5081  0.0529
70539SOL     OW29608   6.667  12.831   4.688  0.8030  0.0048 -0.0885
70539SOL    HW129609   6.735  12.898   4.693  0.0003  1.1542 -2.7522
70539SOL    HW229610   6.713  12.748   4.701  2.0650  0.9069  1.6762
70540SOL     OW29611  12.328   5.640  10.069  0.0797  0.2922 -0.5210
70540SOL    HW129612  12.349   5.725  10.108  0.6054  0.5625 -1.3641
70540SOL    HW229613  12.235   5.629  10.086  0.1556  0.6907  0.2403
70541SOL     OW29614   9.655   4.951   0.074 -0.2288  0.2446  0.0542
70541SOL    HW129615   9.601   4.995   0.008  0.2078 -1.5685 -1.6365
70541SOL    HW229616   9.734   5.004   0.079  1.0487 -1.0700 -3.2315
70542SOL     OW29617   5.662  14.047   6.518  0.1764  0.5944 -0.0282
70542SOL    HW129618   5.684  13.964   6.477 -0.6602  0.2535  0.2005
70542SOL    HW229619   5.747  14.091   6.528  0.7232 -0.5474  0.5555
70543SOL     OW29620   4.270   6.958   0.686  0.2564 -0.0899  0.0819
70543SOL    HW129621   4.219   6.985   0.761 -0.2061 -2.0785  0.5496
70543SOL    HW229622   4.346   6.913   0.723  0.6161 -0.0943 -0.6315
70544SOL     OW29623   2.562   5.244  11.959 -0.0437  0.3904 -0.4528
70544SOL    HW129624   2.505   5.229  12.034 -0.5017 -0.2110 -0.9069
70544SOL    HW229625   2.589   5.336  11.967  0.4297  0.1530  0.7822
70545SOL     OW29626  10.942   7.101  12.781  0.1790  0.4059 -0.3583
70545SOL    HW129627  10.945   7.038  12.853 -0.3090  1.6159  0.7668
70545SOL    HW229628  10.854   7.092  12.744 -1.5218  3.1848  2.4973
70546SOL     OW29629   1.329   7.228  14.030  0.1504 -0.1487 -0.4048
70546SOL    HW129630   1.385   7.189  13.963  0.6431  0.3947 -0.3248
70546SOL    HW229631   1.257   7.166  14.041 -0.1934 -0.0230 -1.7718
70547SOL     OW29632  13.161  13.756  13.826  0.1682 -0.1105  0.1659
70547SOL    HW129633  13.201  13.767  13.912  0.7291  0.2234 -0.1331
70547SOL    HW229634  13.094  13.825  13.821 -0.1297 -0.3761  0.4826
70548SOL     OW29635   8.843  11.558  11.655 -0.1552 -0.0343  0.3593
70548SOL    HW129636   8.830  11.514  11.738  2.3879  0.2572  1.0006
70548SOL    HW229637   8.814  11.648  11.671  3.2411  0.9291  2.1021
70549SOL     OW29638  13.853   9.030   1.888 -0.0710  0.0596 -0.9118
70549SOL    HW129639  13.916   9.093   1.923  0.2581 -0.1887 -1.0522
70549SOL    HW229640  13.872   8.949   1.936 -1.9161  0.5943  0.8495
70550SOL     OW29641   3.688   5.642  13.271 -0.8462 -0.0040 -0.3441
70550SOL    HW129642   3.689   5.572  13.206 -0.3602 -0.4282  0.1142
70550SOL    HW229643   3.659   5.600  13.352 -0.9871  0.4207 -0.1698
70551SOL     OW29644   4.183   4.765   7.068  0.1762  0.5539  0.3585
70551SOL    HW129645   4.167   4.824   6.995 -0.9153 -0.9450 -0.6777
70551SOL    HW229646   4.278   4.768   7.082  0.3813  0.9687 -1.0327
70552SOL     OW29647  13.899  11.381   3.504  0.3266  0.0631 -0.4334
70552SOL    HW129648  13.993  11.365   3.510  0.3534 -1.0219 -2.7872
70552SOL    HW229649  13.891  11.463   3.455  0.0990 -0.8224 -1.9640
70553SOL     OW29650   4.245   4.122   3.419  0.2294 -0.0697  0.4377
70553SOL    HW129651   4.278   4.036   3.447  0.2692  0.4823  2.2611
70553SOL    HW229652   4.152   4.106   3.401  0.1306 -0.4390  1.1910
70554SOL     OW29653   4.333   4.245   5.922 -0.4117 -0.0553  0.1552
70554SOL    HW129654   4.304   4.311   5.985  0.6522 -0.2999  0.9241
70554SOL    HW229655   4.292   4.272   5.840 -0.2273  1.4145  0.5032
70555SOL     OW29656  13.626  14.087   8.437 -0.3815  0.2596 -0.2054
70555SOL    HW129657  13.635  14.123   8.525  1.1787  0.9704 -0.6109
70555SOL    HW229658  13.709  14.109   8.394 -0.4712 -1.4773 -1.3494
70556SOL     OW29659  11.580   4.254  12.929 -0.3140  0.5247  0.4678
70556SOL    HW129660  11.519   4.297  12.870  0.2726 -0.1328 -0.6557
70556SOL    HW229661  11.525   4.198  12.985 -0.7054 -0.7269 -1.1006
70557SOL     OW29662   0.814  14.072   7.129 -0.1413 -0.0576  0.0717
70557SOL    HW129663   0.855  14.151   7.095  0.2621 -0.4625 -0.4204
70557SOL    HW229664   0.880  14.033   7.186 -0.9429  0.7935  1.6314
70558SOL     OW29665   8.045   4.056   8.056 -0.3860  0.2489 -1.1599
70558SOL    HW129666   8.123   4.053   8.001  1.2717 -0.4155  1.1078
70558SOL    HW229667   8.025   3.965   8.076 -0.6358  0.4986 -0.2219
70559SOL     OW29668   1.335  11.082   0.568 -0.1231 -0.4741  0.0818
70559SOL    HW129669   1.269  11.028   0.612 -0.3473  0.3030  0.7337
70559SOL    HW229670   1.391  11.114   0.640  0.5569 -0.5876 -0.3918
70560SOL     OW29671  12.317   8.292   2.190 -0.2666  0.2651 -0.4646
70560SOL    HW129672  12.273   8.270   2.273  0.7007 -0.1072 -0.0430
70560SOL    HW229673  12.410   8.280   2.208 -0.0399  0.2058 -1.6042
70561SOL     OW29674  12.252  10.945   6.602  0.4975 -0.7296  0.1397
70561SOL    HW129675  12.279  10.859   6.632 -0.5055 -1.5095 -1.0666
70561SOL    HW229676  12.256  10.939   6.506 -0.4153  0.2572  0.0173
70562SOL     OW29677  13.326  11.875  11.742  0.1453 -0.0329 -0.2855
70562SOL    HW129678  13.315  11.969  11.756 -0.5761  0.0840 -1.5402
70562SOL    HW229679  13.343  11.867  11.649  0.0579 -1.1715 -0.2119
70563SOL     OW29680   0.080   9.742   2.836  0.1936  0.0372  0.3616
70563SOL    HW129681   0.092   9.804   2.764  2.2133 -0.3699  0.2803
70563SOL    HW229682   0.098   9.793   2.915  0.0157 -0.0009  0.4264
70564SOL     OW29683   5.779  12.438   2.297 -0.2128  0.1948 -0.2101
70564SOL    HW129684   5.871  12.465   2.293  0.1616 -1.0609 -0.3830
70564SOL    HW229685   5.760  12.434   2.391 -0.0842  0.4308 -0.1727
70565SOL     OW29686   3.389   2.569   6.791 -0.4177  0.4302  0.9248
70565SOL    HW129687   3.331   2.556   6.716  0.1985 -3.4053  0.9314
70565SOL    HW229688   3.357   2.507   6.857  0.5249  2.0096  2.9967
70566SOL     OW29689  13.894   5.463   8.116 -0.3967 -0.1393  0.0736
70566SOL    HW129690  13.889   5.404   8.041  0.7028 -0.6090  0.3547
70566SOL    HW229691  13.826   5.432   8.177 -1.7337  0.6312 -0.9569
70567SOL     OW29692   3.928  14.011   9.761  0.4326 -0.0365  0.4994
70567SOL    HW129693   3.909  14.085   9.819 -1.6883  0.3807 -0.6230
70567SOL    HW229694   3.983  13.954   9.814  0.0985  1.1826  2.2872
70568SOL     OW29695   6.884   8.388  10.225 -0.1214  0.4661  0.4847
70568SOL    HW129696   6.896   8.299  10.192  1.1034  0.0117  2.0212
70568SOL    HW229697   6.949   8.441  10.178 -1.0218  0.6259 -0.6143
70569SOL     OW29698  13.506  11.958   8.670 -0.8105  0.1885 -0.0134
70569SOL    HW129699  13.565  11.901   8.718 -0.0878  1.1416  0.2672
70569SOL    HW229700  13.487  12.030   8.730 -4.0540 -1.1274  0.7486
70570SOL     OW29701  12.266   4.062  12.907  0.3504 -0.4089  0.1047
70570SOL    HW129702  12.210   4.074  12.830  0.6732  0.7620  0.0316
70570SOL    HW229703  12.337   4.006  12.875 -0.5310 -1.5629  0.0914
70571SOL     OW29704   3.295   1.270   3.018 -0.5181 -0.0779 -0.3939
70571SOL    HW129705   3.288   1.198   2.955  0.4921  0.9010 -1.6759
70571SOL    HW229706   3.389   1.278   3.035 -0.5096  1.5689 -1.0593
70572SOL     OW29707   0.144   6.693   3.303  0.6601  0.0680  0.5776
70572SOL    HW129708   0.109   6.711   3.215  2.3327  1.5946  0.1615
70572SOL    HW229709   0.067   6.690   3.359 -0.4768 -1.1314 -0.9383
70573SOL     OW29710   2.491   0.016   2.869  0.3010 -0.3357  0.1710
70573SOL    HW129711   2.584   0.016   2.846  0.3561  0.7874  0.3417
70573SOL    HW229712   2.446   0.035   2.786  0.1715 -1.4344 -0.0295
70574SOL     OW29713  13.486  13.251  11.710  0.3153  0.3137  0.0991
70574SOL    HW129714  13.410  13.201  11.681  0.5812 -1.1505  1.7122
70574SOL    HW229715  13.536  13.189  11.764  0.8549  2.2101  1.9431
70575SOL     OW29716   4.709   7.184   6.294  0.1431 -0.1177 -0.2686
70575SOL    HW129717   4.700   7.159   6.202  0.3523  1.1114 -0.6468
70575SOL    HW229718   4.651   7.260   6.304  2.0905  1.4170 -0.0837
70576SOL     OW29719   3.234  11.473   0.053  0.3763 -0.6039  0.5830
70576SOL    HW129720   3.328  11.458   0.053  0.6888  1.1464  0.7403
70576SOL    HW229721   3.196  11.386   0.060  1.9778 -1.3359  0.6131
70577SOL     OW29722   3.714  13.285   5.575 -1.0781  0.1521 -0.1989
70577SOL    HW129723   3.628  13.275   5.616 -2.0263  3.2696 -1.1409
70577SOL    HW229724   3.695  13.310   5.485  0.8746 -0.4777 -0.8371
70578SOL     OW29725   8.274  10.448   9.760 -0.1091 -0.6343 -1.1259
70578SOL    HW129726   8.219  10.439   9.682  2.4632 -3.2071 -2.8220
70578SOL    HW229727   8.302  10.359   9.780  1.9882  0.3672  0.7342
70579SOL     OW29728   5.705   7.854   5.163  0.3229  0.1177 -0.1664
70579SOL    HW129729   5.621   7.892   5.187 -0.8006 -1.3050 -1.6248
70579SOL    HW229730   5.695   7.830   5.071  2.5261  0.3980 -0.5346
70580SOL     OW29731   0.457   8.002  10.368  0.1492  0.0369 -0.4098
70580SOL    HW129732   0.526   7.998  10.301 -0.5174  1.6716 -1.2595
70580SOL    HW229733   0.424   8.092  10.362 -1.3467 -0.4074  0.7016
70581SOL     OW29734   1.366  12.117   5.099  0.3381  0.1534 -0.0176
70581SOL    HW129735   1.307  12.118   5.175  1.0438  0.9103  0.5374
70581SOL    HW229736   1.406  12.204   5.098  0.6332  0.0217 -1.0374
70582SOL     OW29737  13.270   0.124   3.875 -0.0980 -0.0066  0.5750
70582SOL    HW129738  13.299   0.036   3.850 -0.0250  1.0084 -3.7639
70582SOL    HW229739  13.175   0.121   3.862 -0.0561  0.6032  0.1087
70583SOL     OW29740   5.735   0.177   8.606 -0.5542  0.3087  0.4971
70583SOL    HW129741   5.780   0.245   8.557 -2.0774  0.5054 -0.7164
70583SOL    HW229742   5.799   0.107   8.614  0.5699  1.2905  0.4943
70584SOL     OW29743   3.603   3.893   8.002 -0.2594 -0.0133 -0.2437
70584SOL    HW129744   3.581   3.938   8.084  2.4111  0.3878  0.3560
70584SOL    HW229745   3.598   3.962   7.935 -0.0286  0.2418  0.0020
70585SOL     OW29746   4.759   6.870   8.200  0.0220 -0.2209 -0.4578
70585SOL    HW129747   4.792   6.799   8.255 -0.1694  0.4167  0.5083
70585SOL    HW229748   4.833   6.894   8.144  0.7765  0.2179  0.6835
70586SOL     OW29749   7.068   6.037  12.907 -0.4465 -0.2562 -0.4845
70586SOL    HW129750   7.135   5.993  12.960 -1.7555 -1.9073 -0.1317
70586SOL    HW229751   6.985   5.998  12.935 -1.4249  0.6159 -2.0042
70587SOL     OW29752   5.950   3.311  10.850  0.1816  0.4865  0.6152
70587SOL    HW129753   5.868   3.336  10.893  0.6733  0.8169  1.3759
70587SOL    HW229754   5.967   3.222  10.881 -0.7486 -0.2590 -0.8692
70588SOL     OW29755   4.568  12.238  12.076 -0.5287 -0.1514 -0.1409
70588SOL    HW129756   4.616  12.282  12.006 -1.0906 -2.2443 -1.9669
70588SOL    HW229757   4.483  12.282  12.078 -0.6766 -0.3641 -1.1264
70589SOL     OW29758  13.770  13.965   0.813  0.8618  0.1710 -0.6328
70589SOL    HW129759  13.709  14.010   0.755  1.7766  0.2186 -1.5815
70589SOL    HW229760  13.780  13.878   0.774 -1.9505 -1.5187  1.9076
70590SOL     OW29761  10.243  10.079   3.756  0.3361 -0.3837  0.9493
70590SOL    HW129762  10.213  10.144   3.692  1.3573 -1.8360 -1.1103
70590SOL    HW229763  10.167  10.024   3.772  0.2329 -0.3690  0.5192
70591SOL     OW29764   2.360   9.223   9.751 -0.4691  0.7027  0.2695
70591SOL    HW129765   2.400   9.163   9.814 -1.8945  0.1519  0.7044
70591SOL    HW229766   2.362   9.176   9.668 -2.3786 -0.4042  0.7775
70592SOL     OW29767   4.426   3.537   2.170  0.7220 -0.0760 -0.8297
70592SOL    HW129768   4.411   3.515   2.262 -1.2401  1.3767 -0.7540
70592SOL    HW229769   4.435   3.452   2.126  0.5064 -0.8130  0.5141
70593SOL     OW29770   1.065   2.957  13.621 -0.1539  0.3646 -0.5663
70593SOL    HW129771   1.076   2.879  13.567 -1.1157  0.2530 -0.6214
70593SOL    HW229772   1.137   3.015  13.596  0.3090 -0.3238 -0.8410
70594SOL     OW29773   9.852   3.980   2.782 -0.1292  0.0226 -0.4485
70594SOL    HW129774   9.904   4.004   2.706  2.3557 -1.6068  0.5932
70594SOL    HW229775   9.859   4.055   2.841  0.6594  0.0304 -0.5408
70595SOL     OW29776  11.092   7.595  12.330  0.4312 -0.0058  0.4763
70595SOL    HW129777  11.143   7.675  12.347  0.7475  0.5298 -2.5740
70595SOL    HW229778  11.002   7.626  12.318 -0.0039 -0.5189  2.0925
70596SOL     OW29779   9.424   5.123   0.250  0.2408  0.1626  0.1934
70596SOL    HW129780   9.478   5.155   0.322  1.8833  1.2018 -1.4011
70596SOL    HW229781   9.479   5.134   0.172 -1.7737 -0.0547 -1.3523
70597SOL     OW29782   3.377  13.968   3.252  0.5703 -0.3837 -0.0174
70597SOL    HW129783   3.376  13.894   3.192 -0.0070 -0.2077 -0.2284
70597SOL    HW229784   3.434  13.941   3.324 -1.2958 -1.8736  0.9837
70598SOL     OW29785  14.028  11.091   1.832  0.0697 -0.2920 -0.3284
70598SOL    HW129786  14.015  11.115   1.924 -1.4633 -0.1876 -0.5382
70598SOL    HW229787  14.013  11.172   1.783  1.3864 -0.2258 -0.6616
70599SOL     OW29788  12.972  11.107   4.708  0.2170 -0.2626 -0.1810
70599SOL    HW129789  13.031  11.032   4.708 -0.2848 -0.7366  1.9816
70599SOL    HW229790  13.029  11.182   4.687  1.2842 -0.9132  0.2857
70600SOL     OW29791   9.487   5.655   7.377  0.0982  0.0599 -0.8478
70600SOL    HW129792   9.449   5.568   7.366 -0.2560  0.1075 -0.1030
70600SOL    HW229793   9.434   5.696   7.446  3.6066 -1.1886  3.0238
70601SOL     OW29794  11.892  12.936  14.129  0.2186  0.2395 -0.2036
70601SOL    HW129795  11.883  13.022  14.088  0.5486  0.1167 -0.5381
70601SOL    HW229796  11.921  12.956  14.218  2.8805  0.4205 -1.0271
70602SOL     OW29797   5.496   1.115   5.225  0.3869  0.7030  0.2833
70602SOL    HW129798   5.454   1.190   5.183  1.3624  1.6317  0.9154
70602SOL    HW229799   5.464   1.116   5.315  0.7338  0.6186  0.4087
70603SOL     OW29800   7.622   9.160   3.329 -0.3364  0.0289  0.8278
70603SOL    HW129801   7.548   9.132   3.383 -0.2225 -0.6555  0.6380
70603SOL    HW229802   7.698   9.122   3.373 -0.0746  0.8668  1.1157
70604SOL     OW29803   2.483   0.076   9.981 -0.5349 -0.5816  0.6592
70604SOL    HW129804   2.496  -0.014   9.951  0.9010  0.3510 -1.8387
70604SOL    HW229805   2.569   0.106  10.008  0.0359  1.3080 -2.7155
70605SOL     OW29806   1.994   0.028   8.746  0.1166  0.5134 -0.1069
70605SOL    HW129807   1.940   0.002   8.820 -1.2547  0.3815 -1.1220
70605SOL    HW229808   1.981   0.123   8.739 -1.1861  0.2946 -1.2182
70606SOL     OW29809  12.139   2.435   1.463  0.3925  0.2620 -0.8028
70606SOL    HW129810  12.166   2.380   1.536  0.6279  1.2194 -0.1443
70606SOL    HW229811  12.219   2.480   1.435 -0.1997  2.1779  0.3470
70607SOL     OW29812  11.358  11.832   6.503  0.7752  0.0002 -0.3644
70607SOL    HW129813  11.430  11.871   6.454  1.9514 -0.8346  0.6690
70607SOL    HW229814  11.389  11.745   6.528 -0.1226  0.0690  1.1231
70608SOL     OW29815   1.316  10.514  12.156 -0.6015 -0.4194  0.4436
70608SOL    HW129816   1.309  10.605  12.185  1.2768 -0.9421  2.8336
70608SOL    HW229817   1.294  10.462  12.233 -1.5713 -2.0360 -0.8451
70609SOL     OW29818   3.190  10.766   7.901 -0.2513  0.1367 -0.5770
70609SOL    HW129819   3.121  10.794   7.840 -1.3197  1.2561  1.0716
70609SOL    HW229820   3.145  10.711   7.965  0.8112 -0.8521 -0.6441
70610SOL     OW29821   3.509   5.616  10.632  0.1077 -0.1352  0.0116
70610SOL    HW129822   3.464   5.542  10.672  0.1723 -0.8769 -1.2292
70610SOL    HW229823   3.469   5.693  10.672 -1.9834 -0.7823 -0.7269
70611SOL     OW29824   3.336  13.676   6.303  0.6173 -0.0230 -0.2802
70611SOL    HW129825   3.418  13.658   6.351  0.5130 -0.3198 -0.2099
70611SOL    HW229826   3.345  13.767   6.274  0.0242  0.6760  1.6159
70612SOL     OW29827   7.535  11.848   4.069  0.4553  0.1239 -0.1802
70612SOL    HW129828   7.455  11.837   4.017 -0.9180 -2.8705  2.2313
70612SOL    HW229829   7.595  11.782   4.035  0.5878  0.0241  0.2435
70613SOL     OW29830  11.298  13.169   1.783  0.0307  0.0323 -0.6345
70613SOL    HW129831  11.391  13.164   1.802  0.0386  1.4011 -0.1861
70613SOL    HW229832  11.280  13.263   1.773 -0.7793 -0.3456 -3.3942
70614SOL     OW29833  13.356   0.986  13.362  0.3105  0.3282 -0.3087
70614SOL    HW129834  13.424   0.918  13.364 -1.2689 -1.4235 -2.1642
70614SOL    HW229835  13.274   0.939  13.370 -0.7841  2.3600  1.3914
70615SOL     OW29836  10.065   2.907   6.231  0.3969  0.2619  0.0214
70615SOL    HW129837  10.092   2.872   6.146  0.4061  0.8954 -0.2394
70615SOL    HW229838  10.139   2.889   6.289  0.9496  1.0300 -0.4321
70616SOL     OW29839   9.281  10.485  13.305  0.3598  0.1926  0.6214
70616SOL    HW129840   9.298  10.578  13.322  0.5935  0.2443  0.1326
70616SOL    HW229841   9.311  10.440  13.385  0.9839  0.4701  0.5507
70617SOL     OW29842   2.548   4.266   9.347  0.2319 -0.4605 -0.3564
70617SOL    HW129843   2.557   4.361   9.359  0.1932 -0.5521  0.4563
70617SOL    HW229844   2.487   4.239   9.415  1.8858 -1.3788  0.8469
70618SOL     OW29845   2.701   0.233   2.619 -0.1521  0.0282  0.0206
70618SOL    HW129846   2.779   0.284   2.644 -1.4046  1.6499  0.8016
70618SOL    HW229847   2.734   0.168   2.557  1.8327  0.6269  0.3666
70619SOL     OW29848   2.134   6.566   7.536  0.2704  0.1356 -0.7204
70619SOL    HW129849   2.125   6.502   7.606  0.1635  0.3150 -0.5701
70619SOL    HW229850   2.211   6.617   7.560  0.0258  0.4289 -0.5459
70620SOL     OW29851   2.848   0.578   6.363 -0.2090  0.2539  0.6962
70620SOL    HW129852   2.797   0.512   6.410  0.7708 -1.6802 -0.7760
70620SOL    HW229853   2.905   0.527   6.306 -0.5118  2.3958 -1.7109
70621SOL     OW29854   5.238   8.424   0.691  0.0879  0.1798  0.0633
70621SOL    HW129855   5.190   8.429   0.774 -0.9421  0.5223 -0.5318
70621SOL    HW229856   5.182   8.470   0.628  1.3999  0.9303 -0.5809
70622SOL     OW29857   4.569   2.373   2.777 -0.0032  0.1834  0.0354
70622SOL    HW129858   4.573   2.285   2.741  0.3086 -0.0066  0.5280
70622SOL    HW229859   4.537   2.362   2.866 -0.1125  0.5821  0.0489
70623SOL     OW29860   1.473   9.704  11.343  0.2387  0.0395  0.7922
70623SOL    HW129861   1.541   9.739  11.400  0.5916  2.0303 -0.7588
70623SOL    HW229862   1.416   9.778  11.325 -0.7695 -0.9329 -0.1732
70624SOL     OW29863  11.086  13.657   1.888  0.1137  0.0879  0.0047
70624SOL    HW129864  11.129  13.645   1.973  1.7788 -1.1469 -0.9612
70624SOL    HW229865  11.139  13.723   1.843 -1.4967  1.7012  0.3346
70625SOL     OW29866  12.600   0.101   0.521 -0.3413 -0.6198 -0.7180
70625SOL    HW129867  12.662   0.037   0.487 -1.3439 -1.6991 -0.5756
70625SOL    HW229868  12.522   0.050   0.545 -0.5682  0.4082  0.9692
70626SOL     OW29869   6.404   4.618  12.712 -0.5178  0.2254  0.2583
70626SOL    HW129870   6.486   4.596  12.668 -1.0597  1.4511 -1.4842
70626SOL    HW229871   6.336   4.595  12.648 -1.3022  2.9644 -0.0104
70627SOL     OW29872   8.361  12.335   5.948  0.2692  0.4345  0.2280
70627SOL    HW129873   8.279  12.316   5.993  0.2266  0.7688  0.2901
70627SOL    HW229874   8.360  12.429   5.935  0.3299  0.3515 -0.3861
70628SOL     OW29875   1.288   2.925  14.131 -0.2764 -0.1372  0.0388
70628SOL    HW129876   1.360   2.967  14.084 -1.4129 -0.0623 -1.7735
70628SOL    HW229877   1.226   2.901  14.062 -2.1287  0.0774  1.5439
70629SOL     OW29878   1.711  10.259   5.409 -0.7215  0.6209  0.3427
70629SOL    HW129879   1.697  10.232   5.318 -1.6865  0.7320  0.4436
70629SOL    HW229880   1.785  10.319   5.405 -1.5843  1.6612 -0.5734
70630SOL     OW29881   2.185   7.191   1.856  0.2368  0.3752 -0.2474
70630SOL    HW129882   2.159   7.283   1.854 -1.0568  0.2688  3.3611
70630SOL    HW229883   2.280   7.194   1.872  0.2641  1.0725 -0.4822
70631SOL     OW29884   5.363   7.176   6.631 -0.7828  0.0505  0.6985
70631SOL    HW129885   5.396   7.251   6.581 -1.3140  0.7530  1.3713
70631SOL    HW229886   5.429   7.108   6.619 -1.8624 -0.5691 -2.6606
70632SOL     OW29887   8.674   4.926   5.627  0.8601 -0.5568  0.8089
70632SOL    HW129888   8.612   4.927   5.700 -1.2198  0.6157 -0.8288
70632SOL    HW229889   8.732   5.000   5.644 -1.2055  1.3504  0.1311
70633SOL     OW29890   0.932  11.018   5.880  0.2097  0.5428 -0.3548
70633SOL    HW129891   1.008  11.025   5.822  0.5052  0.6360  0.0413
70633SOL    HW229892   0.960  10.958   5.949 -0.7580 -1.0501 -1.2752
70634SOL     OW29893   4.044   5.870  11.719  0.2938  0.8025  0.0378
70634SOL    HW129894   3.982   5.878  11.791 -0.6245 -0.0826 -0.6274
70634SOL    HW229895   3.994   5.894  11.641  0.8446  0.2512 -0.4943
70635SOL     OW29896   2.182   2.964   5.274 -0.1206 -0.2800  0.0933
70635SOL    HW129897   2.117   2.967   5.203 -0.5188  3.1847  0.4173
70635SOL    HW229898   2.265   2.943   5.230 -0.9554 -1.9602 -0.7513
70636SOL     OW29899   0.688   5.237   5.568  0.0503  0.3365  0.2989
70636SOL    HW129900   0.601   5.221   5.530 -0.4907  0.5177  1.4243
70636SOL    HW229901   0.682   5.204   5.657  1.8395 -1.6863 -0.2520
70637SOL     OW29902  13.315  13.122   8.696 -0.0332 -0.7896 -0.4819
70637SOL    HW129903  13.283  13.050   8.642  1.8465 -0.4780 -2.1095
70637SOL    HW229904  13.374  13.081   8.759 -0.2293 -0.8532 -0.3389
70638SOL     OW29905   5.214   9.553   7.503 -0.3727  0.0149  0.4031
70638SOL    HW129906   5.268   9.616   7.550 -0.5037  0.3996  0.0448
70638SOL    HW229907   5.126   9.591   7.504 -0.7094 -0.7590  1.2643
70639SOL     OW29908   6.154   9.731  10.914 -0.1092  0.7008  0.0165
70639SOL    HW129909   6.204   9.764  10.840  1.0108  0.0537  0.4636
70639SOL    HW229910   6.212   9.667  10.956 -1.7137 -0.8571 -0.0548
70640SOL     OW29911   3.294   6.990  13.471 -0.0780 -0.0601  0.2248
70640SOL    HW129912   3.219   7.046  13.488 -0.2913  0.2617 -1.5276
70640SOL    HW229913   3.334   7.028  13.392  0.9557 -1.1898  0.1760
70641SOL     OW29914   8.648   0.605  10.225 -0.1165  0.6335 -0.8803
70641SOL    HW129915   8.555   0.613  10.204 -0.8952  1.1572  2.3208
70641SOL    HW229916   8.650   0.567  10.313  2.7630 -0.6867 -1.4085
70642SOL     OW29917   4.193   9.243   4.920  0.0355 -0.0725  0.2032
70642SOL    HW129918   4.149   9.192   4.989  0.2406  0.4319  0.7180
70642SOL    HW229919   4.286   9.226   4.933  0.0053 -1.4992 -1.1718
70643SOL     OW29920  11.268   6.009   4.264  0.4528 -0.1495 -0.0081
70643SOL    HW129921  11.265   6.104   4.258 -1.5498 -0.2300 -0.9145
70643SOL    HW229922  11.194   5.986   4.320  1.8686 -1.1334  1.5669
70644SOL     OW29923   4.927   7.973  10.068  0.0871  0.0453  0.4706
70644SOL    HW129924   4.837   7.957  10.039 -0.2183 -1.6746  2.1870
70644SOL    HW229925   4.925   8.062  10.105 -0.5041  0.6086 -0.8375
70645SOL     OW29926   1.095   9.001   3.816  0.3573  0.2284 -0.0129
70645SOL    HW129927   1.053   8.921   3.847  1.6896 -0.7635 -0.6042
70645SOL    HW229928   1.024   9.063   3.803 -0.8870 -1.2799 -0.7473
70646SOL     OW29929   1.353   1.114   7.857  0.2946  0.1122  0.3338
70646SOL    HW129930   1.308   1.147   7.935  1.4149 -1.5661  1.7788
70646SOL    HW229931   1.442   1.147   7.866  0.5750 -0.5587  0.0940
70647SOL     OW29932  10.306   9.649   1.632 -0.2281 -0.2850  0.5969
70647SOL    HW129933  10.277   9.740   1.622 -1.4362 -0.7850 -0.7563
70647SOL    HW229934  10.400   9.652   1.616 -0.7379  0.2808 -3.0118
70648SOL     OW29935   2.491   2.958   8.300 -0.7136  0.0949 -0.3133
70648SOL    HW129936   2.428   2.921   8.362 -1.2408  0.1862 -0.7819
70648SOL    HW229937   2.495   3.051   8.324 -0.3985 -0.0045  0.0189
70649SOL     OW29938   0.651  12.016   2.233  0.1330 -0.4646  0.1050
70649SOL    HW129939   0.675  12.074   2.305 -1.1262  0.4169 -0.1448
70649SOL    HW229940   0.724  12.022   2.171  0.3600  0.2719  0.4335
70650SOL     OW29941   3.643   6.704   8.031 -0.0194  0.1197 -0.1049
70650SOL    HW129942   3.607   6.617   8.014 -0.3663  0.3582 -0.6200
70650SOL    HW229943   3.604   6.729   8.115 -0.5465  0.1015 -0.3356
70651SOL     OW29944  10.515  13.082   6.686  0.1712  0.6145 -0.5825
70651SOL    HW129945  10.533  13.003   6.737  0.5988 -0.1155 -1.8250
70651SOL    HW229946  10.426  13.107   6.710 -0.8090 -1.5038 -1.7574
70652SOL     OW29947   5.456   8.660   2.781 -0.2695  0.2750 -0.4694
70652SOL    HW129948   5.549   8.666   2.805 -0.5882 -0.2987  1.0470
70652SOL    HW229949   5.452   8.588   2.718  0.2738  0.0099 -0.2100
70653SOL     OW29950   0.371   5.972   6.848  0.1964  0.5438  0.2366
70653SOL    HW129951   0.459   5.941   6.828  0.6081  2.4964 -1.2887
70653SOL    HW229952   0.385   6.051   6.902 -0.5534  1.2859 -0.6217
70654SOL     OW29953   9.193  11.262   3.542 -0.2975  0.3858 -0.0319
70654SOL    HW129954   9.267  11.228   3.492 -1.3478 -1.5479 -0.3378
70654SOL    HW229955   9.232  11.328   3.599  2.0135 -1.7545  1.0656
70655SOL     OW29956   7.309   6.693   9.559 -0.2929 -0.6371  0.6865
70655SOL    HW129957   7.268   6.641   9.627 -1.1792 -0.2748  0.4413
70655SOL    HW229958   7.248   6.766   9.544  0.6208  0.1277  0.5921
70656SOL     OW29959   6.374  13.788  13.933  0.2218  0.1238  0.1365
70656SOL    HW129960   6.334  13.777  13.847  1.0643  0.1203 -0.2691
70656SOL    HW229961   6.317  13.739  13.992 -0.7638  0.7227 -0.2946
70657SOL     OW29962   5.911   5.438   1.308  0.5487  1.4442  0.4377
70657SOL    HW129963   5.944   5.527   1.295  1.8888  0.8823 -0.1164
70657SOL    HW229964   5.989   5.385   1.323 -0.0389  0.0215 -1.1740
70658SOL     OW29965   3.759   9.097   4.056  0.1712 -0.3336 -0.0478
70658SOL    HW129966   3.831   9.159   4.045  0.8408 -0.7180  1.9194
70658SOL    HW229967   3.701   9.137   4.121  0.2129 -1.4062  0.6703
70659SOL     OW29968  10.764   3.192   0.106  0.3173 -0.5319  0.1189
70659SOL    HW129969  10.740   3.283   0.121 -0.2834 -0.4907 -1.0305
70659SOL    HW229970  10.858   3.194   0.086  0.2833 -0.1526 -0.0010
70660SOL     OW29971   1.386   6.229  11.278 -0.6647 -0.2803  0.2504
70660SOL    HW129972   1.334   6.154  11.249 -1.1704  0.5258 -1.0549
70660SOL    HW229973   1.331   6.305  11.259  0.8820  0.6043 -1.0371
70661SOL     OW29974   8.838  11.410   2.730  0.4761 -0.3895 -0.6590
70661SOL    HW129975   8.833  11.315   2.733  2.5122 -0.5737 -1.2487
70661SOL    HW229976   8.773  11.436   2.665  2.1460 -1.7105 -3.0201
70662SOL     OW29977   6.291  11.604  13.653 -0.1785  0.2806 -0.0393
70662SOL    HW129978   6.218  11.665  13.653  0.4714  1.0911  0.7767
70662SOL    HW229979   6.251  11.517  13.656 -1.0953  0.6924 -0.1645
70663SOL     OW29980   9.504   3.323   6.311 -0.1222 -0.4820 -0.2318
70663SOL    HW129981   9.506   3.317   6.215 -1.4496 -0.1748 -0.2947
70663SOL    HW229982   9.583   3.276   6.339  1.3259  1.0327 -1.5305
70664SOL     OW29983   3.401   9.976   0.870  0.0161  0.4207  0.1325
70664SOL    HW129984   3.443  10.045   0.920  0.6093  0.5560 -0.5378
70664SOL    HW229985   3.309   9.980   0.896  0.3072  0.4778  1.2103
70665SOL     OW29986   5.730   9.425   2.505  0.2916  0.5590  0.0609
70665SOL    HW129987   5.779   9.426   2.587 -0.3502 -1.4197  0.5172
70665SOL    HW229988   5.754   9.343   2.463 -1.9737 -0.0897 -0.0834
70666SOL     OW29989   5.243  10.386   8.221 -0.2143 -0.1068  0.1355
70666SOL    HW129990   5.205  10.342   8.297  0.3887 -0.8526  0.0209
70666SOL    HW229991   5.193  10.354   8.147  1.0369 -1.6422 -0.0998
70667SOL     OW29992   5.717   6.046   1.474  0.2009 -0.4774 -0.1885
70667SOL    HW129993   5.677   5.973   1.521  1.6379 -1.4543 -0.4020
70667SOL    HW229994   5.733   6.112   1.541 -0.4884 -0.6343  0.1369
70668SOL     OW29995   4.906   7.852   0.837  0.0924 -0.3327 -0.0071
70668SOL    HW129996   4.812   7.868   0.830  0.3956  1.1281 -1.2014
70668SOL    HW229997   4.916   7.804   0.919 -1.4825  1.4263  1.2956
70669SOL     OW29998   9.682  13.639   2.493  0.1935 -0.9422  0.5238
70669SOL    HW129999   9.710  13.548   2.479  0.6223 -0.7531  0.1384
70669SOL    HW230000   9.597  13.631   2.537  0.2676 -1.5296  0.5722
70670SOL     OW30001  11.367   8.375   0.099  0.5801 -0.1168 -0.3641
70670SOL    HW130002  11.323   8.381   0.014 -0.3097 -2.2261 -0.1071
70670SOL    HW230003  11.387   8.282   0.109  5.4528  0.6408 -0.5564
70671SOL     OW30004   5.001  11.802  11.619 -0.1398 -0.1123  0.5122
70671SOL    HW130005   5.089  11.839  11.631 -0.4250  0.2164  1.8300
70671SOL    HW230006   4.946  11.856  11.675 -0.9842 -1.0619  0.6163
70672SOL     OW30007   3.081  13.075   3.201 -0.0326 -0.4254 -0.6415
70672SOL    HW130008   3.074  13.072   3.296 -0.4217 -1.7035 -0.6827
70672SOL    HW230009   3.144  13.144   3.183  1.4909 -1.4106  0.6432
70673SOL     OW30010  10.446   9.773  12.916 -0.0003 -0.2451  0.2700
70673SOL    HW130011  10.498   9.762  12.996  0.1286 -2.2380 -0.0282
70673SOL    HW230012  10.466   9.695  12.864 -2.2740 -0.4125 -0.4487
70674SOL     OW30013  10.670   5.211  10.176  0.2299  0.2768 -0.0619
70674SOL    HW130014  10.645   5.302  10.160  0.4583  0.3191 -0.1743
70674SOL    HW230015  10.638   5.163  10.100 -0.6209  0.1284  0.3720
70675SOL     OW30016  14.017   6.330  12.148  0.0120  0.3954  0.0206
70675SOL    HW130017  14.086   6.384  12.188 -1.1811  0.7770  1.6654
70675SOL    HW230018  13.952   6.394  12.117 -0.3647 -0.0210 -0.0463
70676SOL     OW30019   0.672   0.681   6.046 -0.1600  0.3843 -0.4667
70676SOL    HW130020   0.631   0.702   5.962 -0.4136  0.8282 -0.2360
70676SOL    HW230021   0.718   0.762   6.071  0.4469  0.0523 -0.4835
70677SOL     OW30022  13.324   1.511   6.722  0.4161  0.0979 -0.5143
70677SOL    HW130023  13.277   1.594   6.726 -0.5240 -0.4585  2.1818
70677SOL    HW230024  13.262   1.447   6.756  2.5447 -0.9105  1.7516
70678SOL     OW30025   2.602   9.147   9.893  0.3907 -0.2594  0.0170
70678SOL    HW130026   2.563   9.062   9.913  1.3190 -0.7524 -0.2032
70678SOL    HW230027   2.617   9.187   9.979  0.3013 -0.4806  0.1358
70679SOL     OW30028  11.233  11.536  10.190  0.3952  0.3461 -0.3802
70679SOL    HW130029  11.300  11.487  10.237  0.6361  0.0645 -1.0081
70679SOL    HW230030  11.179  11.470  10.148  0.2870  0.5993 -0.6447
70680SOL     OW30031   0.857   3.342   5.356 -0.2350  0.2858 -0.0607
70680SOL    HW130032   0.767   3.353   5.388 -0.0193  1.9594  0.0713
70680SOL    HW230033   0.904   3.417   5.392  1.3418 -0.7927  0.2356
70681SOL     OW30034   3.173  11.967   5.493  0.0823 -0.3719 -1.3378
70681SOL    HW130035   3.230  11.994   5.422 -0.4413 -3.1282 -2.9533
70681SOL    HW230036   3.213  11.888   5.528 -0.5576  0.0015  0.3590
70682SOL     OW30037   5.314   1.437  12.143 -0.4746 -0.2841 -0.3325
70682SOL    HW130038   5.323   1.442  12.048 -2.2966  0.6761 -0.4836
70682SOL    HW230039   5.401   1.410  12.174  0.0062 -1.1093 -2.2858
70683SOL     OW30040   9.180   0.329  12.772 -0.1890  0.4071  0.4622
70683SOL    HW130041   9.210   0.260  12.831 -1.5578 -2.3228 -1.7603
70683SOL    HW230042   9.255   0.346  12.715 -0.4383 -0.8574 -0.2895
70684SOL     OW30043   9.835   1.322   5.687 -0.0267  0.1586  0.5517
70684SOL    HW130044   9.756   1.338   5.635 -0.3945  0.1913  1.1037
70684SOL    HW230045   9.904   1.370   5.642 -0.1592 -0.4889 -0.3552
70685SOL     OW30046  13.906  12.915   5.404  0.0469  0.7478 -0.4495
70685SOL    HW130047  13.993  12.920   5.364 -0.1492 -2.0287 -1.4913
70685SOL    HW230048  13.923  12.905   5.498  0.8474  0.5116 -0.6147
70686SOL     OW30049  11.966   7.309   1.372  0.1616 -0.1558  0.7774
70686SOL    HW130050  11.986   7.216   1.362 -1.6932 -0.3430 -2.3475
70686SOL    HW230051  11.878   7.311   1.410 -0.1119  0.2953  0.1283
70687SOL     OW30052   0.750   4.907   7.845 -0.3269 -0.5276 -0.0447
70687SOL    HW130053   0.751   4.955   7.763 -1.4582  1.6928  1.1439
70687SOL    HW230054   0.657   4.902   7.868 -0.0847 -1.7947  0.7339
70688SOL     OW30055  11.327   6.833   7.912 -0.0014 -0.1283 -0.0557
70688SOL    HW130056  11.341   6.913   7.860  0.7173  1.3818  2.2952
70688SOL    HW230057  11.395   6.836   7.979 -1.2368 -1.6410  1.3459
70689SOL     OW30058   2.450   4.130  10.183 -0.3563  0.1848  0.0650
70689SOL    HW130059   2.360   4.151  10.158 -0.7030 -1.3208 -0.0552
70689SOL    HW230060   2.441   4.064  10.252  0.6194 -1.6432 -1.4464
70690SOL     OW30061   6.993   5.012  12.977 -0.0661 -0.0126 -0.2841
70690SOL    HW130062   6.989   4.917  12.976  0.3521 -0.0352 -0.0498
70690SOL    HW230063   6.967   5.038  12.889 -0.1996 -0.3410 -0.3428
70691SOL     OW30064  12.516   4.490   1.471 -0.7957  0.6234  0.3088
70691SOL    HW130065  12.442   4.444   1.431 -0.7653  0.7631  0.0939
70691SOL    HW230066  12.589   4.429   1.462 -0.9740  0.3185  0.8792
70692SOL     OW30067   1.894   6.559   9.985  0.0714  0.2331  0.0566
70692SOL    HW130068   1.920   6.536  10.074  1.6173 -1.1380 -0.6884
70692SOL    HW230069   1.820   6.501   9.966  2.5645 -2.9164 -1.0305
70693SOL     OW30070  12.536  12.586   8.975  0.5150 -0.0108 -0.1061
70693SOL    HW130071  12.505  12.605   9.063  0.8856 -1.9750  0.4785
70693SOL    HW230072  12.572  12.669   8.944 -1.2665  1.1861  0.8650
70694SOL     OW30073   9.797   2.164  11.433  0.9288  0.3015  0.3406
70694SOL    HW130074   9.880   2.197  11.467  1.0537 -0.2663  0.5978
70694SOL    HW230075   9.764   2.106  11.502  1.1860 -0.8653 -0.4911
70695SOL     OW30076  13.073  11.252  13.214 -0.2938 -0.4982 -0.0924
70695SOL    HW130077  13.022  11.332  13.223 -0.6356 -0.7182 -0.0462
70695SOL    HW230078  13.084  11.241  13.119  0.8741  0.2996 -0.0628
70696SOL     OW30079   2.508   2.329   0.352  0.0357 -0.2790  0.2087
70696SOL    HW130080   2.416   2.355   0.362 -0.1134 -1.0452  0.9596
70696SOL    HW230081   2.535   2.370   0.270 -1.3332 -0.9976 -0.6540
70697SOL     OW30082  10.757   7.383   9.829  0.2978 -0.2496  0.1473
70697SOL    HW130083  10.685   7.402   9.888 -2.3085  0.7994 -3.0523
70697SOL    HW230084  10.729   7.305   9.781  1.0830  0.3753 -1.3996
70698SOL     OW30085   4.770  10.807  12.226  0.8678 -0.3942 -0.2392
70698SOL    HW130086   4.677  10.790  12.235  0.6705  0.4954 -0.5042
70698SOL    HW230087   4.805  10.799  12.315  0.3087  0.5350  0.0759
70699SOL     OW30088   2.160   4.761  14.119  0.7147 -0.2622  0.3576
70699SOL    HW130089   2.164   4.812  14.200  1.8794 -0.7991  0.6604
70699SOL    HW230090   2.206   4.814  14.054  0.3881 -0.1416  0.2243
70700SOL     OW30091  13.319   0.637  10.014  0.6682 -0.4737  0.0967
70700SOL    HW130092  13.362   0.632   9.929  1.6295  0.7557  0.4736
70700SOL    HW230093  13.391   0.635  10.077 -0.0300 -1.4059  0.8928
70701SOL     OW30094  11.278   4.469   9.199  0.6280  0.0540  0.2850
70701SOL    HW130095  11.293   4.385   9.244  1.2009  0.1170  0.2188
70701SOL    HW230096  11.190   4.461   9.163 -0.1927  0.3196  2.1235
70702SOL     OW30097   7.162  12.508   5.668 -0.4250  0.4625  0.0780
70702SOL    HW130098   7.129  12.419   5.681  0.3374  0.2423  0.5830
70702SOL    HW230099   7.212  12.527   5.747 -2.4181  2.2098  1.0050
70703SOL     OW30100   1.637  11.768   4.422 -0.2414  0.3729  0.7232
70703SOL    HW130101   1.646  11.684   4.377  0.6388 -0.1096  1.7525
70703SOL    HW230102   1.701  11.825   4.379 -0.4182  0.3483  0.4222
70704SOL     OW30103  11.848   2.962   0.458 -0.3990 -0.1758  0.2424
70704SOL    HW130104  11.930   2.988   0.500 -0.1661  0.4954 -0.6009
70704SOL    HW230105  11.795   3.041   0.459 -0.4572 -0.2040 -0.5620
70705SOL     OW30106  10.662   9.621   3.830 -0.0942  0.1058  0.0731
70705SOL    HW130107  10.619   9.576   3.758 -1.5835  0.7636  0.5129
70705SOL    HW230108  10.753   9.590   3.827 -0.1516 -0.0075 -1.9620
70706SOL     OW30109  12.921  10.986  10.741  0.1486  0.0767 -0.2042
70706SOL    HW130110  12.909  10.999  10.835 -2.4289 -1.1570 -0.2705
70706SOL    HW230111  12.980  11.056  10.714 -0.4138  1.5165  2.0360
70707SOL     OW30112   4.342  12.255  12.660 -0.1821  0.2702  0.8210
70707SOL    HW130113   4.302  12.190  12.718  0.2323 -1.6693 -0.9560
70707SOL    HW230114   4.436  12.242  12.670 -0.1038  0.1045 -0.0488
70708SOL     OW30115   7.428   3.439   0.618 -0.1266 -0.2743  0.5372
70708SOL    HW130116   7.343   3.443   0.575 -1.3917 -0.1952  2.8488
70708SOL    HW230117   7.454   3.530   0.629 -1.4691 -0.0658  2.8020
70709SOL     OW30118   8.975   8.052   9.721 -0.1066 -0.2344 -0.1189
70709SOL    HW130119   8.939   7.963   9.719 -1.6437  0.3592 -0.0079
70709SOL    HW230120   8.951   8.086   9.807  1.3551 -0.0406  0.2374
70710SOL     OW30121  13.977  11.188   6.916 -0.4717  0.2357  0.2546
70710SOL    HW130122  13.888  11.175   6.949  0.1860 -0.9112  1.7020
70710SOL    HW230123  13.975  11.154   6.827 -1.8158  1.5498 -0.2560
70711SOL     OW30124   6.710   8.310   2.386 -0.3212 -0.1325  0.3477
70711SOL    HW130125   6.655   8.244   2.344 -1.5120 -1.0476  3.0875
70711SOL    HW230126   6.778   8.260   2.431  0.1610  0.6879  0.5538
70712SOL     OW30127   8.484  12.228   8.797 -0.6498 -0.2564 -0.2354
70712SOL    HW130128   8.431  12.204   8.721 -2.4052 -0.7151  1.0690
70712SOL    HW230129   8.534  12.148   8.816  0.3953  0.1023 -1.3278
70713SOL     OW30130   1.235   5.530  10.756  0.3693  0.6166 -0.0020
70713SOL    HW130131   1.145   5.554  10.778  0.5208  0.3135  0.9732
70713SOL    HW230132   1.289   5.597  10.799  0.6365  0.5011 -0.1559
70714SOL     OW30133   7.586   0.146   6.638 -0.4546  0.0361 -0.1147
70714SOL    HW130134   7.680   0.165   6.637  0.0400 -2.0285 -1.9960
70714SOL    HW230135   7.569   0.116   6.727  0.9484 -0.6840 -0.0608
70715SOL     OW30136   0.158   4.853   2.068 -0.2349 -0.1945  0.4868
70715SOL    HW130137   0.133   4.943   2.087  1.2880  0.1690  0.9299
70715SOL    HW230138   0.241   4.841   2.114 -0.1976 -1.6928  0.0895
70716SOL     OW30139   1.195   9.430  12.000 -0.5412  0.0173 -0.3193
70716SOL    HW130140   1.224   9.424  12.091  0.1335 -0.8403 -0.5780
70716SOL    HW230141   1.163   9.519  11.991  1.4987  0.8460  0.1463
70717SOL     OW30142  13.571  13.368   0.849 -0.1500 -0.1051 -0.1541
70717SOL    HW130143  13.481  13.375   0.815 -0.8498  1.0872  1.7966
70717SOL    HW230144  13.597  13.458   0.868  2.2189 -0.2320 -2.3758
70718SOL     OW30145   1.795   2.164   8.814  0.1091  0.1250 -0.3985
70718SOL    HW130146   1.887   2.179   8.793 -0.3413  1.1003 -1.8285
70718SOL    HW230147   1.757   2.132   8.732 -0.9980  0.5380 -0.0655
70719SOL     OW30148   5.069   3.374   7.980  0.3163 -0.4100 -0.3019
70719SOL    HW130149   4.994   3.314   7.976  0.0257 -0.0878  0.1302
70719SOL    HW230150   5.139   3.328   7.934 -0.3986 -0.3474 -1.5184
70720SOL     OW30151  10.839   5.331  14.106  0.7487 -0.6475  0.5821
70720SOL    HW130152  10.770   5.392  14.079 -0.4683 -1.6835  1.1779
70720SOL    HW230153  10.917   5.385  14.115 -0.2581  0.8198  1.0270
70721SOL     OW30154   8.598  13.347   1.432  0.0682 -0.3901  0.0630
70721SOL    HW130155   8.535  13.275   1.434 -2.4568  1.6530  0.4072
70721SOL    HW230156   8.597  13.377   1.342  0.5082 -0.2918  0.0886
70722SOL     OW30157  12.482  13.899   0.225 -0.2936 -0.3205 -0.6006
70722SOL    HW130158  12.529  13.979   0.199  0.1424 -0.2883  0.2409
70722SOL    HW230159  12.549  13.844   0.266 -0.9522 -0.3177  0.5318
70723SOL     OW30160   5.992   6.558  10.668 -0.3455 -0.5077  0.1063
70723SOL    HW130161   6.032   6.558  10.755  2.3255  0.7440 -1.0167
70723SOL    HW230162   6.027   6.479  10.626 -0.4350 -0.3167 -0.3308
70724SOL     OW30163  10.061   2.701   8.889  0.0060  0.4633 -0.5472
70724SOL    HW130164  10.017   2.638   8.946  0.2963  1.4196  0.8158
70724SOL    HW230165   9.991   2.756   8.855 -0.0173  1.2617  0.6959
70725SOL     OW30166   9.597   4.256   7.144 -0.5017  0.0568  0.0247
70725SOL    HW130167   9.686   4.289   7.154 -0.4573  0.0630 -0.3674
70725SOL    HW230168   9.569   4.234   7.232 -0.1801  0.2350  0.1718
70726SOL     OW30169   3.370   3.054   8.321 -0.1306 -0.2373  0.1687
70726SOL    HW130170   3.408   3.075   8.406 -1.4628  0.9415  0.5096
70726SOL    HW230171   3.389   3.130   8.266 -1.2770  0.0422  0.1245
70727SOL     OW30172   2.644  11.124   2.348  0.1269  0.7624 -0.1402
70727SOL    HW130173   2.681  11.051   2.298 -1.3105  0.7164 -1.2360
70727SOL    HW230174   2.622  11.087   2.433 -1.4393 -0.3888 -0.9926
70728SOL     OW30175   0.185   4.680   4.458  0.5319  0.4035 -0.2813
70728SOL    HW130176   0.163   4.613   4.394  1.3376  1.3128 -1.5739
70728SOL    HW230177   0.240   4.634   4.522 -0.0511 -0.4611 -0.3793
70729SOL     OW30178   3.359   8.865  13.542 -0.3079 -0.1839 -0.7761
70729SOL    HW130179   3.266   8.882  13.528  0.0127  0.7046 -1.9945
70729SOL    HW230180   3.370   8.868  13.637 -1.4937 -0.1794 -0.6219
70730SOL     OW30181  11.339   3.181   1.398 -0.4252 -0.0744 -0.6925
70730SOL    HW130182  11.361   3.208   1.488  2.5293  0.0667 -1.3427
70730SOL    HW230183  11.337   3.263   1.349 -2.0164 -0.1566 -0.8080
70731SOL     OW30184   1.331   0.801  12.270  0.2378  0.4129  0.2575
70731SOL    HW130185   1.397   0.791  12.338  0.6890 -0.9215 -0.3436
70731SOL    HW230186   1.275   0.723  12.278 -0.9543  1.2600  0.4189
70732SOL     OW30187  11.903   0.168   2.950  0.3217  0.6908  0.6431
70732SOL    HW130188  11.827   0.226   2.952 -0.0044  0.2426  1.1532
70732SOL    HW230189  11.892   0.117   2.870 -0.2267  0.2102  1.0185
70733SOL     OW30190  13.139  14.086   8.867  0.6435 -0.3637 -0.0102
70733SOL    HW130191  13.166  14.178   8.871 -0.7133  0.1257 -1.0262
70733SOL    HW230192  13.119  14.071   8.774 -0.8663 -1.1398  0.3989
70734SOL     OW30193   7.423   2.222  12.515  0.2673  0.0074  0.4062
70734SOL    HW130194   7.490   2.227  12.583  0.4138  0.0513  0.2584
70734SOL    HW230195   7.471   2.208  12.434  0.0451 -0.8696  0.4165
70735SOL     OW30196   4.366  13.280   6.006  0.1298 -0.6562 -0.3031
70735SOL    HW130197   4.332  13.356   5.960  0.4182 -0.9815 -1.0621
70735SOL    HW230198   4.289  13.226   6.026  0.1008 -1.0036 -1.3055
70736SOL     OW30199  11.765   1.557   1.308  0.5413 -0.1049 -0.3411
70736SOL    HW130200  11.740   1.474   1.268 -0.7895  1.7255 -3.6982
70736SOL    HW230201  11.766   1.619   1.236  1.7707  2.7916  1.9624
70737SOL     OW30202   8.056   9.964   2.043 -0.4596 -0.3416 -0.0715
70737SOL    HW130203   7.988   9.929   2.101 -0.2825 -0.9102 -0.2044
70737SOL    HW230204   8.057   9.904   1.968 -0.4806  0.2202 -0.5263
70738SOL     OW30205   5.118  13.597   1.566  0.2153  0.0618 -0.0478
70738SOL    HW130206   5.115  13.572   1.473 -1.2940 -1.0515  0.2596
70738SOL    HW230207   5.116  13.514   1.613 -0.0469  0.6380  0.9833
70739SOL     OW30208  11.646   6.070  13.964  0.1282 -0.6923  0.6832
70739SOL    HW130209  11.582   6.075  13.893 -0.7350 -1.4961  1.3692
70739SOL    HW230210  11.689   5.986  13.951  0.2516 -0.6593  0.8721
70740SOL     OW30211  13.228  14.051   4.640  0.6216  0.1234 -0.4041
70740SOL    HW130212  13.191  14.006   4.564 -0.7079  2.6592 -1.3781
70740SOL    HW230213  13.163  14.039   4.708  0.8238 -0.3659 -0.2894
70741SOL     OW30214   2.645   4.595   4.210  0.1648 -0.6300  0.1704
70741SOL    HW130215   2.681   4.523   4.157  0.4683 -0.0613 -0.4032
70741SOL    HW230216   2.662   4.568   4.300  0.7484 -1.0404 -0.0538
70742SOL     OW30217   6.438   5.990   8.104  0.8898  0.1575  0.1305
70742SOL    HW130218   6.441   5.982   8.009 -1.7154  1.4045 -0.1640
70742SOL    HW230219   6.386   6.069   8.120 -0.6724 -1.2204  2.5720
70743SOL     OW30220   5.618   4.146   0.686  0.0521 -0.1198 -0.0730
70743SOL    HW130221   5.608   4.206   0.760 -0.7746 -0.6978  0.3011
70743SOL    HW230222   5.697   4.176   0.641 -0.2655  1.1679  0.1739
70744SOL     OW30223   6.846   7.963   8.998  0.2204 -0.1678 -0.3979
70744SOL    HW130224   6.898   7.948   8.920 -0.1785  0.6633 -0.8323
70744SOL    HW230225   6.837   7.876   9.038 -0.4704 -0.7869 -1.8312
70745SOL     OW30226  11.870   6.327   3.369  0.1203 -0.1414  0.3647
70745SOL    HW130227  11.887   6.371   3.286  2.2806  1.8623  1.7438
70745SOL    HW230228  11.826   6.394   3.422 -1.2587 -1.3973  0.8885
70746SOL     OW30229   5.920   6.976  13.795  0.0572  0.0004  0.3390
70746SOL    HW130230   5.916   6.937  13.707 -0.2772 -0.7578  0.6867
70746SOL    HW230231   5.838   7.023  13.804 -0.5131 -1.0385  0.7488
70747SOL     OW30232  11.931   5.589  11.176 -0.0841 -0.0830 -0.4292
70747SOL    HW130233  11.997   5.521  11.163 -0.1426  0.0008 -1.1530
70747SOL    HW230234  11.862   5.546  11.227  0.0717 -0.4433 -0.5237
70748SOL     OW30235   1.602  10.092   5.611 -1.2278 -0.1234  0.1944
70748SOL    HW130236   1.529  10.143   5.646 -0.8167  0.3985  0.2941
70748SOL    HW230237   1.644  10.150   5.548 -0.0842  0.0898  1.1183
70749SOL     OW30238   3.022   2.786  11.217 -0.1331 -0.0031  0.2093
70749SOL    HW130239   3.092   2.752  11.161 -0.9753 -1.6242  0.0873
70749SOL    HW230240   2.988   2.709  11.262 -1.6640  0.7997  0.4650
70750SOL     OW30241   0.498   8.100  11.392 -0.5274 -0.6489 -0.4036
70750SOL    HW130242   0.588   8.072  11.376 -0.0216 -0.5085  1.9715
70750SOL    HW230243   0.498   8.194  11.374 -0.2991 -0.6997 -0.6825
70751SOL     OW30244   5.107   0.701   6.359  0.0870 -0.0624  0.0612
70751SOL    HW130245   5.158   0.780   6.343  1.8316 -0.7089  1.9649
70751SOL    HW230246   5.081   0.707   6.451 -3.4692  0.2580 -0.8284
70752SOL     OW30247   7.437   6.059   0.095  0.1331 -0.8015  0.0314
70752SOL    HW130248   7.487   6.138   0.119  0.4414 -1.4150  1.4951
70752SOL    HW230249   7.421   6.069   0.001 -0.7928  1.5446  0.3709
70753SOL     OW30250   6.529   2.696   3.258 -0.4835 -0.1131  0.2150
70753SOL    HW130251   6.587   2.763   3.221 -1.3496  0.5955  0.1099
70753SOL    HW230252   6.559   2.685   3.348  0.7694 -0.8569 -0.2699
70754SOL     OW30253   7.998   3.867   5.786 -0.1072  0.0921 -0.5362
70754SOL    HW130254   8.059   3.930   5.824 -0.6471  1.4276 -1.7741
70754SOL    HW230255   7.949   3.918   5.722 -1.3312 -1.3578 -0.7973
70755SOL     OW30256   5.107  11.486   5.767 -0.7866 -0.1787 -0.2166
70755SOL    HW130257   5.100  11.547   5.841 -1.6050 -0.8961  0.3148
70755SOL    HW230258   5.051  11.525   5.700  0.8332  1.0596 -0.9027
70756SOL     OW30259   2.295   8.808   7.556  0.1824  0.4407  0.2065
70756SOL    HW130260   2.285   8.717   7.583  1.1248  0.8605  2.1740
70756SOL    HW230261   2.207   8.845   7.562 -0.0994 -0.1918  0.0051
70757SOL     OW30262  12.256   3.815   6.531 -0.0741  0.2838  0.2211
70757SOL    HW130263  12.188   3.753   6.506  0.2586 -0.1316  0.3318
70757SOL    HW230264  12.209   3.895   6.554 -0.4503  0.3783 -0.8208
70758SOL     OW30265  11.160   5.322  10.366  0.2729  0.3072 -0.1475
70758SOL    HW130266  11.189   5.262  10.297  2.0722  1.5680 -0.5505
70758SOL    HW230267  11.064   5.319  10.363  0.3283 -1.4145 -1.1191
70759SOL     OW30268   2.232   2.071   0.153  0.6294  0.6264 -0.7773
70759SOL    HW130269   2.295   2.112   0.094  1.9795  1.6625  1.2293
70759SOL    HW230270   2.195   2.145   0.202  1.6903 -0.2959  1.5976
70760SOL     OW30271   8.844   7.808   5.550  0.3558  0.3448  0.0729
70760SOL    HW130272   8.817   7.762   5.471 -1.0562 -1.5268  1.5436
70760SOL    HW230273   8.920   7.860   5.523 -0.4334  0.2783 -2.6194
70761SOL     OW30274   3.951   1.886   0.855 -0.9280 -0.2082  0.1601
70761SOL    HW130275   4.020   1.848   0.909 -2.0630  0.3457  2.1095
70761SOL    HW230276   3.998   1.925   0.781  1.0921  1.5274  2.1728
70762SOL     OW30277  12.114   7.300   4.995 -0.4054 -0.0137 -0.1772
70762SOL    HW130278  12.133   7.371   4.933  1.0248  0.1534  0.4043
70762SOL    HW230279  12.108   7.222   4.940 -2.8816  0.6081 -0.9424
70763SOL     OW30280   7.341   4.674   2.690 -0.1405 -0.1084 -0.1962
70763SOL    HW130281   7.265   4.620   2.671 -0.9908  0.6008  1.0676
70763SOL    HW230282   7.396   4.666   2.612 -1.4427 -0.7325 -1.0861
70764SOL     OW30283  10.296   1.839   3.632  0.0788  0.1667 -0.0936
70764SOL    HW130284  10.214   1.888   3.643  0.4860  1.5057 -2.3362
70764SOL    HW230285  10.310   1.837   3.537  2.2990 -0.6440  0.1874
70765SOL     OW30286   8.950   9.179   5.958 -0.4707 -0.4387 -0.4199
70765SOL    HW130287   8.906   9.125   5.891  2.0144 -1.6729 -1.1587
70765SOL    HW230288   9.043   9.174   5.936  0.3432  0.0149  2.5278
70766SOL     OW30289   2.667   1.884   0.729  0.3619  0.8054  0.5301
70766SOL    HW130290   2.737   1.914   0.787  0.8269 -0.0956  0.4499
70766SOL    HW230291   2.712   1.854   0.651 -0.1354  0.4551  0.3761
70767SOL     OW30292   9.341   1.602  12.954 -0.6703  0.0006  0.0556
70767SOL    HW130293   9.300   1.596  13.040 -0.2001  0.3318  0.3079
70767SOL    HW230294   9.417   1.658  12.968  0.4515 -1.4222 -0.1780
70768SOL     OW30295  12.967   4.593   1.152 -0.0409 -0.0011  0.0900
70768SOL    HW130296  12.874   4.591   1.176 -0.4089 -0.7766 -1.3039
70768SOL    HW230297  13.013   4.602   1.236 -1.2728 -2.1931  1.0739
70769SOL     OW30298   9.817  13.394  12.980  0.0751 -0.2444 -0.0624
70769SOL    HW130299   9.860  13.449  12.915 -0.6861 -1.7059 -1.8864
70769SOL    HW230300   9.776  13.456  13.041  0.7903  1.1660 -0.9675
70770SOL     OW30301   4.927  12.753   2.064 -0.2075 -0.2414  0.3624
70770SOL    HW130302   4.999  12.814   2.080 -0.3788 -0.4213  1.9201
70770SOL    HW230303   4.967  12.677   2.022  0.0585  0.7580 -1.3189
70771SOL     OW30304  10.839  12.036   9.904  0.1655  0.1704  0.0409
70771SOL    HW130305  10.845  11.945   9.876  0.0924  0.4154 -0.8090
70771SOL    HW230306  10.844  12.033   9.999  1.6501 -0.6082 -0.0276
70772SOL     OW30307  13.237   9.891  12.074 -0.4574  0.3024 -0.2961
70772SOL    HW130308  13.179   9.952  12.118 -1.5921  0.7060 -2.2478
70772SOL    HW230309  13.185   9.812  12.061 -0.1076  0.1446 -0.7866
70773SOL     OW30310  10.451   6.322   1.294 -0.5396  0.0395 -0.2655
70773SOL    HW130311  10.533   6.340   1.247  0.1756 -0.6806  0.6816
70773SOL    HW230312  10.390   6.388   1.261  0.7915  1.4510 -0.0099
70774SOL     OW30313   4.296   8.988   8.513  0.4044 -0.6627 -0.1240
70774SOL    HW130314   4.344   9.019   8.436 -1.6441  0.0884 -1.1641
70774SOL    HW230315   4.239   8.919   8.480 -1.2375  0.3516  0.5000
70775SOL     OW30316   4.973   3.373   3.873  0.1656 -0.5450  0.0353
70775SOL    HW130317   5.038   3.441   3.886  0.5204 -0.7163 -0.7802
70775SOL    HW230318   5.010   3.316   3.806 -0.5303 -1.0184  0.0349
70776SOL     OW30319   6.850  10.005   3.136 -0.2883  0.3750 -0.4023
70776SOL    HW130320   6.772  10.002   3.080  0.3748  1.7509 -1.4463
70776SOL    HW230321   6.917  10.047   3.082  0.5260  1.3112  1.2559
70777SOL     OW30322   1.212   1.524   9.489  0.1586 -0.1975 -0.1350
70777SOL    HW130323   1.230   1.440   9.445  1.3705  0.2750 -0.5805
70777SOL    HW230324   1.176   1.499   9.574  0.8121 -1.1939 -0.1309
70778SOL     OW30325  12.528  11.986   0.718 -0.1200  0.0175 -0.4661
70778SOL    HW130326  12.540  11.971   0.624  0.4740 -2.2364 -0.0810
70778SOL    HW230327  12.598  12.046   0.742 -0.1001  0.3897 -1.4101
70779SOL     OW30328   4.207   3.585   7.907 -0.2715 -0.4272  0.0904
70779SOL    HW130329   4.174   3.579   7.818  0.6648  0.2748 -0.3199
70779SOL    HW230330   4.255   3.503   7.921  0.3160 -0.1680 -0.3666
70780SOL     OW30331  13.555   1.469  13.972 -0.6840  0.2092  0.6713
70780SOL    HW130332  13.589   1.454  14.060 -1.0234  1.9708  1.1217
70780SOL    HW230333  13.501   1.392  13.954 -2.1253  0.6429  2.7534
70781SOL     OW30334   0.605  10.350  11.235  0.9214  0.0688  0.0996
70781SOL    HW130335   0.643  10.334  11.322  3.6712 -2.0164 -1.3327
70781SOL    HW230336   0.645  10.431  11.205  0.1750  0.6457  0.6253
70782SOL     OW30337   7.511   9.938   5.088  0.4650 -0.5724  0.3998
70782SOL    HW130338   7.486   9.970   5.174 -0.7846 -0.8294  0.1417
70782SOL    HW230339   7.445   9.873   5.066 -0.2149  0.6847 -1.4897
70783SOL     OW30340   3.267  13.723   7.385 -0.0810 -0.2006  0.6547
70783SOL    HW130341   3.329  13.742   7.314 -2.2463 -1.1930 -1.6790
70783SOL    HW230342   3.203  13.795   7.381 -0.3942 -0.4347  1.3816
70784SOL     OW30343  13.599   8.809   5.132  0.4045 -0.2892  0.4886
70784SOL    HW130344  13.557   8.742   5.078 -0.8378  2.2198 -1.8987
70784SOL    HW230345  13.593   8.775   5.222 -2.7680 -2.0630 -0.2446
70785SOL     OW30346   0.532   3.086  10.328 -0.1132 -0.0919 -0.1775
70785SOL    HW130347   0.475   3.128  10.394 -0.0361 -0.3035  0.0263
70785SOL    HW230348   0.619   3.122  10.345  0.1262 -0.9882  0.5752
70786SOL     OW30349   6.450   9.091   2.285 -0.1895  0.0436  0.5593
70786SOL    HW130350   6.457   9.021   2.221  0.1163  1.1512 -0.6754
70786SOL    HW230351   6.362   9.082   2.323 -0.2314 -0.8486  0.2512
70787SOL     OW30352  12.729  10.390   9.520  1.1685  0.1864 -0.4740
70787SOL    HW130353  12.714  10.366   9.612  0.9453  1.3926 -0.1738
70787SOL    HW230354  12.696  10.316   9.470 -1.6153  0.7368  0.3416
70788SOL     OW30355  14.027  12.881   9.279  0.6387 -0.4332 -0.8866
70788SOL    HW130356  14.109  12.837   9.302 -0.2792 -2.2418 -0.9131
70788SOL    HW230357  14.049  12.934   9.203  2.4917  1.5656  0.8859
70789SOL     OW30358   4.533   7.397   6.235 -0.4212 -0.2492  0.0116
70789SOL    HW130359   4.444   7.375   6.261 -0.1930  0.4810  1.5302
70789SOL    HW230360   4.523   7.450   6.155 -1.3250 -0.3431  0.0579
70790SOL     OW30361  12.183   2.195   5.100  0.5375 -0.0951 -0.5209
70790SOL    HW130362  12.100   2.234   5.071  1.0528  1.8137  0.4162
70790SOL    HW230363  12.236   2.190   5.021 -0.7791 -2.3880 -1.3747
70791SOL     OW30364  11.266   6.753  13.617 -0.2877  0.3607 -0.0310
70791SOL    HW130365  11.332   6.822  13.609 -0.0756 -0.0200 -2.1071
70791SOL    HW230366  11.244   6.730  13.526 -4.7384  1.8201  0.4526
70792SOL     OW30367  13.568   5.890   5.498  0.0811 -0.2036 -0.2635
70792SOL    HW130368  13.549   5.981   5.475  1.5320  0.5311  1.2392
70792SOL    HW230369  13.647   5.895   5.553  1.4620 -2.5438 -1.8499
70793SOL     OW30370   9.278  11.292   6.283  0.0075 -0.3822 -0.1575
70793SOL    HW130371   9.310  11.207   6.313 -0.4744 -0.0563  1.4013
70793SOL    HW230372   9.273  11.284   6.188  3.0523 -0.9925 -0.3520
70794SOL     OW30373   8.874   6.658   7.583  0.1104 -0.3067  0.7796
70794SOL    HW130374   8.886   6.746   7.620 -1.5763  0.3054 -0.0428
70794SOL    HW230375   8.954   6.643   7.532 -0.4065  1.6282 -0.7257
70795SOL     OW30376   8.294   1.804   6.344 -0.2057  0.2924  0.2825
70795SOL    HW130377   8.382   1.781   6.375  0.4383  0.1639 -1.5327
70795SOL    HW230378   8.277   1.890   6.383  0.6513  0.2502  0.7776
70796SOL     OW30379   1.139   6.313   5.454 -0.8826 -0.2042  0.8978
70796SOL    HW130380   1.056   6.360   5.457 -0.2496  0.8760  2.4186
70796SOL    HW230381   1.200   6.375   5.414 -0.5248 -0.5259  0.9392
70797SOL     OW30382  10.309   0.445   3.932 -0.0770 -0.0544  0.0873
70797SOL    HW130383  10.272   0.401   4.009 -0.3635  1.3710  0.7866
70797SOL    HW230384  10.240   0.438   3.866 -0.1374 -0.6022  0.1951
70798SOL     OW30385   8.935   2.737   5.163 -0.2500 -0.6515 -0.3964
70798SOL    HW130386   8.885   2.800   5.216  1.3746  0.8971 -0.6056
70798SOL    HW230387   8.925   2.654   5.209  1.6011  0.7087  2.8173
70799SOL     OW30388   2.429  10.813  10.026  0.3530 -0.2789 -0.3925
70799SOL    HW130389   2.489  10.883  10.000 -0.3437  0.5702  0.2255
70799SOL    HW230390   2.421  10.822  10.121 -0.0827 -0.9268 -0.3611
70800SOL     OW30391   8.115  11.503   4.728  0.1140  0.1015 -0.2439
70800SOL    HW130392   8.034  11.461   4.700  0.7589 -0.5409 -1.1859
70800SOL    HW230393   8.095  11.597   4.725 -0.3867 -0.0244 -1.1545
70801SOL     OW30394  11.209   8.513   3.536 -0.5299  0.0758  0.2098
70801SOL    HW130395  11.226   8.439   3.478 -0.1709 -1.4401  2.1186
70801SOL    HW230396  11.150   8.478   3.603 -1.5768  1.9617  0.3596
70802SOL     OW30397   8.416   2.343   9.581 -0.1262 -0.2849 -0.3732
70802SOL    HW130398   8.349   2.306   9.524  1.1576 -0.9376 -1.4930
70802SOL    HW230399   8.432   2.430   9.544 -0.5025 -0.0343  0.0380
70803SOL     OW30400   4.963   8.226  11.924 -0.6853 -1.3029  0.0908
70803SOL    HW130401   4.879   8.255  11.961 -0.8344 -0.4047 -0.8710
70803SOL    HW230402   4.941   8.198  11.835  0.1873  0.0723 -0.5982
70804SOL     OW30403  13.945  10.324   9.994 -0.1474 -0.9083 -0.2835
70804SOL    HW130404  13.974  10.383   9.925 -0.0487 -1.5605 -0.8055
70804SOL    HW230405  13.881  10.375  10.044 -0.4336 -0.5255 -1.0247
70805SOL     OW30406   6.794   5.835  10.297 -0.0735  0.6943  0.8074
70805SOL    HW130407   6.852   5.909  10.280 -0.1888  0.8161  0.9304
70805SOL    HW230408   6.764   5.850  10.387 -1.3566  1.3730  0.2988
70806SOL     OW30409   8.175   4.287   1.451 -0.3367 -0.4852  0.1868
70806SOL    HW130410   8.104   4.252   1.396 -0.9466  0.6732  0.1966
70806SOL    HW230411   8.212   4.211   1.494 -1.9945 -1.0814  0.6515
70807SOL     OW30412   5.297   9.919   4.414 -0.0768 -0.0306  0.6307
70807SOL    HW130413   5.287   9.970   4.333  2.3528 -0.2165  0.1619
70807SOL    HW230414   5.289   9.828   4.385 -2.3351 -0.0800  1.1591
70808SOL     OW30415   5.123   6.871  10.852 -0.5206 -0.6773 -0.2421
70808SOL    HW130416   5.151   6.956  10.818 -1.2856  1.6837  4.2856
70808SOL    HW230417   5.204   6.827  10.877 -0.2195 -0.3146 -0.5601
70809SOL     OW30418   3.024   8.638   3.342  0.0007 -0.6674  0.7415
70809SOL    HW130419   2.975   8.679   3.271  0.4680  0.8577  1.2599
70809SOL    HW230420   3.105   8.606   3.301 -0.5221 -1.4194  0.2698
70810SOL     OW30421   9.832  11.119   6.192 -0.1735 -0.7474 -0.2310
70810SOL    HW130422   9.782  11.201   6.192 -0.4339 -0.9045 -1.0704
70810SOL    HW230423   9.923  11.146   6.207 -0.3753 -0.3881  0.3965
70811SOL     OW30424  13.474  10.472  10.702 -0.1078  0.0419 -0.2328
70811SOL    HW130425  13.561  10.445  10.675 -0.0313  0.5030 -0.4550
70811SOL    HW230426  13.457  10.553  10.653  0.0933  0.9808  1.2105
70812SOL     OW30427   3.135  10.137   8.124 -0.1390 -0.5657  0.3628
70812SOL    HW130428   3.181  10.218   8.101  0.0007 -0.8400 -0.3405
70812SOL    HW230429   3.098  10.106   8.041  0.1659 -1.4421  0.5418
70813SOL     OW30430  11.893  11.181   7.629 -0.4706 -0.1893 -0.3263
70813SOL    HW130431  11.888  11.173   7.724 -0.3777  1.1659 -0.1955
70813SOL    HW230432  11.986  11.197   7.611 -0.1743 -2.1676 -0.8181
70814SOL     OW30433  10.716  14.094   0.393  1.0753  0.1841 -0.3167
70814SOL    HW130434  10.762  14.155   0.335  0.1226  1.7364  0.5095
70814SOL    HW230435  10.627  14.128   0.399  0.8176 -0.6430  1.0648
70815SOL     OW30436  10.698   9.918   5.831  0.1261 -0.2343 -0.4472
70815SOL    HW130437  10.760   9.873   5.774  0.7574  0.8701 -0.6580
70815SOL    HW230438  10.731   9.902   5.920 -0.4129 -1.2873 -0.4192
70816SOL     OW30439  10.866   5.012   6.171 -0.0708 -0.0422 -0.4799
70816SOL    HW130440  10.842   5.071   6.243 -0.9093  0.7742 -1.3956
70816SOL    HW230441  10.864   4.925   6.209 -0.3379  0.3899  0.5222
70817SOL     OW30442  10.306  12.446   3.422  0.1524 -0.2083  0.1883
70817SOL    HW130443  10.292  12.407   3.509  0.2729  0.5465  0.5530
70817SOL    HW230444  10.400  12.437   3.407  0.1012 -0.5169  0.0478
70818SOL     OW30445  11.163  13.427   2.877  0.0149 -0.3446 -0.3937
70818SOL    HW130446  11.095  13.424   2.944  2.1725 -1.3080  1.9427
70818SOL    HW230447  11.180  13.521   2.864 -0.4800 -0.1385  0.4098
70819SOL     OW30448   8.179   3.985   0.619  0.0586  0.3746 -0.2250
70819SOL    HW130449   8.156   3.893   0.610 -1.2197  0.7575 -1.1982
70819SOL    HW230450   8.248   4.000   0.554  0.1225  0.1549 -0.2059
70820SOL     OW30451   8.049   8.971   6.340 -0.2097 -0.0897 -0.9807
70820SOL    HW130452   8.135   8.930   6.352 -0.4964 -0.4279  0.1354
70820SOL    HW230453   8.049   9.044   6.402 -1.2348 -0.9670  0.1095
70821SOL     OW30454   3.151   4.569   9.726 -0.0932  0.3696 -0.1174
70821SOL    HW130455   3.172   4.584   9.634  1.4873  0.3586  0.1997
70821SOL    HW230456   3.145   4.473   9.733 -1.4594  0.4168 -0.4335
70822SOL     OW30457   5.023  13.277  13.513  0.0714  0.1404  0.7169
70822SOL    HW130458   5.094  13.224  13.475 -1.0860 -0.0479 -1.3826
70822SOL    HW230459   5.052  13.367  13.500  0.0033  0.0646 -0.0359
70823SOL     OW30460   4.266  13.164   9.298 -0.0404  1.0605 -0.0904
70823SOL    HW130461   4.334  13.165   9.364 -0.4510 -1.2847  0.4609
70823SOL    HW230462   4.307  13.202   9.220  0.9883  2.2324  0.9955
70824SOL     OW30463   6.457   0.996   8.392  0.7995  0.1656 -0.3687
70824SOL    HW130464   6.527   0.961   8.337  0.9005 -1.1148  0.5174
70824SOL    HW230465   6.502   1.044   8.462  0.7003  1.0421 -0.8869
70825SOL     OW30466  12.244   0.204   5.232 -0.2486  0.0956 -0.8290
70825SOL    HW130467  12.309   0.134   5.230  0.2737  0.5950 -2.5304
70825SOL    HW230468  12.180   0.181   5.165 -1.4930 -0.0375  0.3581
70826SOL     OW30469   0.643   8.318   5.476  0.2020 -0.1600  0.5355
70826SOL    HW130470   0.626   8.363   5.559  1.6948 -1.1224  1.3985
70826SOL    HW230471   0.722   8.359   5.442  1.0525 -1.4764  0.8756
70827SOL     OW30472  13.524   7.322   1.453  0.0317 -0.6044  0.4347
70827SOL    HW130473  13.572   7.358   1.377 -0.0061  0.3946  0.8714
70827SOL    HW230474  13.481   7.244   1.418 -0.0924 -0.0948 -0.6151
70828SOL     OW30475   5.645   9.950   0.941  0.0414 -0.1701 -0.1590
70828SOL    HW130476   5.594   9.973   1.019  1.3048  0.0812  0.6223
70828SOL    HW230477   5.594   9.881   0.898 -1.6699  1.0785 -0.2084
70829SOL     OW30478   1.928  11.852   3.208 -0.0881  0.0821 -0.2201
70829SOL    HW130479   1.914  11.921   3.272 -0.2159  1.4092 -1.6105
70829SOL    HW230480   1.990  11.891   3.145 -0.0372 -1.1270 -0.9442
70830SOL     OW30481   9.789   2.302   9.509  0.3570  0.2746 -0.1606
70830SOL    HW130482   9.695   2.309   9.522  0.5337  1.8718  0.3940
70830SOL    HW230483   9.826   2.380   9.551  1.9703 -0.5494  0.0500
70831SOL     OW30484  12.865  13.273  13.693  0.2967  0.3508 -0.0214
70831SOL    HW130485  12.954  13.244  13.676  0.2193 -0.3903  0.8250
70831SOL    HW230486  12.859  13.359  13.650  1.1771  0.0743 -0.7112
70832SOL     OW30487   1.451  11.022   1.628 -0.4490 -0.0586  0.2734
70832SOL    HW130488   1.416  11.054   1.712 -1.3279 -0.5175  0.0965
70832SOL    HW230489   1.533  11.070   1.616 -0.3946  0.1250  1.3199
70833SOL     OW30490  10.568  12.212   5.028  0.2820  0.2983 -0.6043
70833SOL    HW130491  10.597  12.292   4.986 -1.0238  0.8366 -0.5392
70833SOL    HW230492  10.647  12.176   5.069  1.2273  0.6324 -2.0657
70834SOL     OW30493  12.769   5.944   8.561 -0.0458  0.1760 -0.2568
70834SOL    HW130494  12.747   6.027   8.518  1.8531  0.1870 -1.2931
70834SOL    HW230495  12.770   5.965   8.655  0.9143  1.4560 -0.5410
70835SOL     OW30496   0.829   2.667   6.337 -0.0427  0.2803 -0.3074
70835SOL    HW130497   0.739   2.693   6.356 -0.3258 -0.6028 -0.3774
70835SOL    HW230498   0.827   2.638   6.246  0.0324 -0.8784  0.0446
70836SOL     OW30499   2.636  11.671  11.100 -0.2529  0.4517 -0.3110
70836SOL    HW130500   2.716  11.619  11.089 -0.5344  0.1903 -1.2715
70836SOL    HW230501   2.667  11.760  11.116  0.2603 -0.1724  2.6325
70837SOL     OW30502   0.172  11.072   7.439 -0.2435 -0.4108  0.4941
70837SOL    HW130503   0.243  11.123   7.478 -0.8233  0.7613  0.0716
70837SOL    HW230504   0.137  11.130   7.371 -0.5358 -1.6204 -0.4078
70838SOL     OW30505   5.140   7.805  13.928 -0.0391  0.1973 -0.0824
70838SOL    HW130506   5.114   7.839  13.842  1.0097  0.2084 -0.4107
70838SOL    HW230507   5.136   7.881  13.986  1.2015  0.6554 -0.5713
70839SOL     OW30508   6.935   3.108   8.265  0.7223 -0.1542  0.0808
70839SOL    HW130509   6.949   3.038   8.202 -0.6564 -0.2285 -0.1619
70839SOL    HW230510   6.930   3.188   8.212  0.1574 -0.1404  0.1540
70840SOL     OW30511   0.308   0.897  13.905 -0.8684 -0.6129 -0.1049
70840SOL    HW130512   0.364   0.820  13.911 -0.0730 -0.1001 -0.7843
70840SOL    HW230513   0.367   0.968  13.879 -1.6482  0.1547  0.1812
70841SOL     OW30514   5.040   2.570  12.646  0.2198  0.4021  0.3912
70841SOL    HW130515   5.006   2.487  12.615 -0.0594  1.0697 -1.1999
70841SOL    HW230516   5.123   2.548  12.689  0.3530 -0.6561 -0.3785
70842SOL     OW30517   1.693  11.040  13.705 -0.2022  0.1251  1.0261
70842SOL    HW130518   1.693  10.956  13.659 -2.4580 -0.4159  1.8632
70842SOL    HW230519   1.781  11.048  13.742  0.6148 -0.9732 -0.6033
70843SOL     OW30520   0.772  13.866   4.271  0.8140 -0.1492 -0.2728
70843SOL    HW130521   0.832  13.836   4.203  1.5762  0.3195  0.1899
70843SOL    HW230522   0.740  13.951   4.238  0.6221 -0.2566 -0.3730
70844SOL     OW30523   5.227  11.891   4.293 -0.6103 -0.0082 -0.5616
70844SOL    HW130524   5.189  11.811   4.258  0.4096 -0.5045 -0.5579
70844SOL    HW230525   5.187  11.961   4.242 -1.0289 -0.5595 -0.9989
70845SOL     OW30526  13.169   0.588  10.266 -0.0908 -0.0886 -0.3665
70845SOL    HW130527  13.258   0.608  10.237  1.0557 -2.7073  1.0607
70845SOL    HW230528  13.129   0.544  10.191  0.3085 -0.2170 -0.5091
70846SOL     OW30529   6.228  11.545  13.939  0.0928 -0.0288  0.2253
70846SOL    HW130530   6.193  11.507  13.859 -1.5778  0.4676  0.6753
70846SOL    HW230531   6.208  11.639  13.932 -0.0682  0.0223  1.2010
70847SOL     OW30532   8.089   0.484   9.231 -0.1171  0.0946  0.1289
70847SOL    HW130533   8.076   0.546   9.159 -2.7695  1.0178  1.2695
70847SOL    HW230534   8.176   0.447   9.216  1.5351  3.8636 -0.8121
70848SOL     OW30535   8.379   0.981   7.844 -0.1715 -0.2166 -0.3332
70848SOL    HW130536   8.311   0.924   7.808  0.0243  0.4115 -1.7846
70848SOL    HW230537   8.461   0.932   7.830 -0.1016 -0.0007 -0.6923
70849SOL     OW30538  12.489  13.381   1.815  0.7822 -0.7890 -0.3216
70849SOL    HW130539  12.411  13.333   1.787  0.0324  0.5059 -0.5297
70849SOL    HW230540  12.562  13.329   1.780  0.0935 -2.6376  0.8601
70850SOL     OW30541  12.561   2.161   5.189  0.0677 -0.3714  0.4249
70850SOL    HW130542  12.482   2.199   5.227 -0.2758  1.6673 -2.0850
70850SOL    HW230543  12.576   2.210   5.108  2.5172 -2.3437 -0.4779
70851SOL     OW30544  11.069  10.850   9.857  0.1960  0.1268  0.0961
70851SOL    HW130545  11.074  10.837   9.952 -0.0518  0.5642  0.1711
70851SOL    HW230546  11.001  10.917   9.846  0.0340 -0.1214 -0.4081
70852SOL     OW30547   6.189  12.320   2.639 -0.3261  0.3419 -0.0240
70852SOL    HW130548   6.218  12.229   2.633 -0.6375  0.3053 -1.0514
70852SOL    HW230549   6.267  12.371   2.618 -0.7496  0.2546 -1.9786
70853SOL     OW30550  13.638   0.280  12.830  0.2515 -0.0241  0.6204
70853SOL    HW130551  13.677   0.309  12.913 -0.6730  0.5243  0.8783
70853SOL    HW230552  13.651   0.185  12.830  0.3036 -0.0297  1.3799
70854SOL     OW30553   9.629  13.181   1.707  0.0349  0.2495 -0.5821
70854SOL    HW130554   9.595  13.229   1.632 -2.1395  2.2244  1.4965
70854SOL    HW230555   9.718  13.213   1.718  0.5594 -0.4230 -2.5206
70855SOL     OW30556  12.547  11.374   8.217 -0.2561 -0.1112 -0.4325
70855SOL    HW130557  12.565  11.389   8.309  0.4517 -1.4178 -0.3349
70855SOL    HW230558  12.469  11.319   8.216 -0.1946 -0.1960 -0.6069
70856SOL     OW30559   4.709   6.025   0.736 -0.4806  0.0921 -0.5560
70856SOL    HW130560   4.753   5.957   0.786 -0.0546  0.6094 -0.2222
70856SOL    HW230561   4.654   6.070   0.799 -1.2196 -0.3118 -0.8975
70857SOL     OW30562   3.896   9.524   5.047  0.1048 -0.3681 -0.0509
70857SOL    HW130563   3.878   9.554   5.136  0.8656  0.7673 -0.2616
70857SOL    HW230564   3.989   9.501   5.048  0.1945 -0.0516 -0.6234
70858SOL     OW30565  13.926   9.468   9.853 -0.3380 -0.1928  0.5798
70858SOL    HW130566  13.874   9.526   9.797 -0.8871 -0.7360  0.5250
70858SOL    HW230567  14.015   9.503   9.847 -0.8302  1.3002  1.3998
70859SOL     OW30568  12.804   8.758  12.455  0.1114 -0.0921 -0.2661
70859SOL    HW130569  12.864   8.787  12.524  2.4188  1.1230 -2.6018
70859SOL    HW230570  12.774   8.672  12.484  1.6180  0.0222  1.8607
70860SOL     OW30571   1.052  11.476   2.323 -0.4182  0.2522  0.3889
70860SOL    HW130572   1.008  11.449   2.242 -0.7771 -1.3543  1.0656
70860SOL    HW230573   1.132  11.520   2.294 -0.0274 -1.1812 -0.8717
70861SOL     OW30574   1.163   8.324   8.385  1.1670  0.0820 -0.1628
70861SOL    HW130575   1.123   8.314   8.472  1.2903 -2.0197 -0.3003
70861SOL    HW230576   1.104   8.277   8.326  0.6707  2.1572 -1.3926
70862SOL     OW30577   6.129  10.922   7.276 -0.1415  0.0015 -0.4325
70862SOL    HW130578   6.218  10.958   7.276  0.9456 -2.3687  1.7602
70862SOL    HW230579   6.097  10.937   7.365 -1.6333  0.0232 -0.9417
70863SOL     OW30580  13.463   2.481  10.256 -0.5334 -0.0741  0.1373
70863SOL    HW130581  13.372   2.453  10.255 -0.3909 -0.6287  1.3928
70863SOL    HW230582  13.460   2.571  10.289 -0.5742 -0.3467  0.8951
70864SOL     OW30583  13.883  13.913  13.620  0.6693 -0.4237 -0.2022
70864SOL    HW130584  13.929  13.988  13.582 -0.7665  1.2570  1.1864
70864SOL    HW230585  13.790  13.932  13.605  0.2946 -2.8895 -1.4549
70865SOL     OW30586   5.769  13.185  12.647  0.6393  0.2789 -0.0361
70865SOL    HW130587   5.796  13.137  12.569 -0.4438 -0.8882  0.2620
70865SOL    HW230588   5.676  13.202  12.634  0.6678  0.9519  0.5625
70866SOL     OW30589   9.257  10.763   6.967 -0.3850 -0.0068 -0.1086
70866SOL    HW130590   9.340  10.723   6.942 -0.0957 -1.1088  2.3890
70866SOL    HW230591   9.272  10.857   6.958  0.8021 -0.2223 -0.6054
70867SOL     OW30592   3.266   4.768   8.981  0.7425  0.0932 -0.0318
70867SOL    HW130593   3.297   4.783   9.070  2.0080  1.9991 -0.7079
70867SOL    HW230594   3.315   4.692   8.951 -0.1436 -0.9442  1.0599
70868SOL     OW30595  11.211  13.569   6.269 -0.4234  0.3728  0.4366
70868SOL    HW130596  11.265  13.589   6.193  1.1423 -0.0660  1.3801
70868SOL    HW230597  11.248  13.487   6.303 -1.8818 -0.0969  0.9657
70869SOL     OW30598  12.714  11.274   1.351 -0.1994 -0.3185  0.0221
70869SOL    HW130599  12.745  11.184   1.362  0.3791 -0.0057  1.1083
70869SOL    HW230600  12.626  11.265   1.315  0.0804 -1.3010 -0.4630
70870SOL     OW30601   3.536   7.983   6.475 -0.1172 -0.1942 -0.0396
70870SOL    HW130602   3.600   7.911   6.476 -1.5689 -1.5742 -1.4759
70870SOL    HW230603   3.545   8.021   6.388  0.9029  1.6982  0.8308
70871SOL     OW30604  10.363   5.059   0.386  0.4835  0.1202  0.3284
70871SOL    HW130605  10.453   5.066   0.417  0.0027  0.9128  1.6389
70871SOL    HW230606  10.363   4.984   0.326  2.2687  0.8903 -0.6938
70872SOL     OW30607   8.145   8.398  10.235  0.3896  0.2255 -0.0657
70872SOL    HW130608   8.164   8.330  10.300 -0.1882 -0.0728 -0.1970
70872SOL    HW230609   8.230   8.421  10.198  0.8122  0.8534  1.2360
70873SOL     OW30610   4.543   2.807   2.996 -0.3078  0.5023  0.2717
70873SOL    HW130611   4.612   2.842   3.053 -0.1529 -0.8830  1.0030
70873SOL    HW230612   4.589   2.783   2.916  0.4702 -1.8811  1.3188
70874SOL     OW30613   8.461   6.942  11.408 -0.1063  0.2141 -0.5276
70874SOL    HW130614   8.408   6.981  11.338 -1.1192 -2.2859 -1.2663
70874SOL    HW230615   8.465   6.849  11.386  0.6606 -0.4479  2.0514
70875SOL     OW30616   5.537  11.906   6.105  0.1510 -0.1068 -0.3021
70875SOL    HW130617   5.501  11.888   6.019 -0.0230  1.3672 -0.5679
70875SOL    HW230618   5.517  11.827   6.157  0.4198 -1.0759 -1.6356
70876SOL     OW30619  12.238  10.509   6.462  0.4877  0.2940  0.0947
70876SOL    HW130620  12.219  10.419   6.489  1.5260 -0.3500 -1.2042
70876SOL    HW230621  12.155  10.556   6.474  0.2427 -0.5254  1.9081
70877SOL     OW30622  11.433   7.904   1.590  0.1880  0.3881  0.2659
70877SOL    HW130623  11.476   7.820   1.570 -2.1259 -0.4852 -1.5590
70877SOL    HW230624  11.503   7.959   1.624  2.1445 -1.7691  0.0002
70878SOL     OW30625  12.356   7.264  14.004 -0.1999  0.1009 -0.4133
70878SOL    HW130626  12.266   7.234  13.987  0.1266 -0.8398 -0.5372
70878SOL    HW230627  12.397   7.191  14.050  1.3650 -0.7001 -2.9187
70879SOL     OW30628   5.784   7.199  10.450 -0.0338 -0.3324 -0.6230
70879SOL    HW130629   5.842   7.125  10.434  0.4566 -0.3234  0.9640
70879SOL    HW230630   5.709   7.161  10.496  0.0259  0.0716 -0.1772
70880SOL     OW30631   2.121   0.056   5.500  0.2722  0.0697  0.7666
70880SOL    HW130632   2.147  -0.015   5.442 -1.4321 -0.9145  1.1533
70880SOL    HW230633   2.026   0.063   5.490 -0.0641  0.0006  3.2531
70881SOL     OW30634  11.839   4.990   7.185  0.0443 -0.0521 -0.3507
70881SOL    HW130635  11.843   5.045   7.263 -2.1914  1.0540 -0.9201
70881SOL    HW230636  11.840   4.900   7.219 -2.4340  0.3955  1.1713
70882SOL     OW30637   2.649   1.759   4.364 -0.0406 -0.1494  0.2562
70882SOL    HW130638   2.660   1.852   4.381  0.0260 -0.3640  1.4591
70882SOL    HW230639   2.700   1.743   4.284  2.5167  0.2768  1.7014
70883SOL     OW30640   3.493   5.497   4.616  0.0876  0.2183  0.3405
70883SOL    HW130641   3.465   5.433   4.550 -0.2072 -2.0259  2.4987
70883SOL    HW230642   3.442   5.575   4.597  1.2908  0.3665 -3.1366
70884SOL     OW30643  10.365   9.289  13.997 -0.6021  0.6886  0.0815
70884SOL    HW130644  10.356   9.355  14.066  0.5533 -0.7892  1.7432
70884SOL    HW230645  10.307   9.218  14.025 -2.9696  1.4669 -2.4202
70885SOL     OW30646  10.273  12.934   3.371 -0.1872 -1.1499  0.6494
70885SOL    HW130647  10.213  12.894   3.308 -1.1676 -0.2085  0.9545
70885SOL    HW230648  10.216  12.971   3.439  0.7298 -0.2288  0.9456
70886SOL     OW30649  14.010   6.948   2.640 -0.0598  0.1709 -0.3991
70886SOL    HW130650  13.918   6.971   2.634 -0.1280 -0.3436 -1.7311
70886SOL    HW230651  14.035   6.969   2.730 -1.0975  1.6946 -0.4273
70887SOL     OW30652   3.420   9.794  10.951 -0.3141 -0.1960 -0.0524
70887SOL    HW130653   3.431   9.710  10.996 -1.8993 -0.1538  0.4840
70887SOL    HW230654   3.507   9.835  10.955 -0.0162 -0.8880  1.5766
70888SOL     OW30655   6.557   1.695  11.815 -0.2571 -0.6980 -0.2955
70888SOL    HW130656   6.515   1.705  11.900  0.7141  0.2973  0.0866
70888SOL    HW230657   6.602   1.611  11.820  0.0103 -0.5252  0.2760
70889SOL     OW30658   8.983  11.105   9.937 -0.4410 -0.2665 -0.1933
70889SOL    HW130659   8.944  11.051   9.868 -3.5187  0.8747  0.5017
70889SOL    HW230660   8.974  11.194   9.905  2.9455  0.0965 -0.5260
70890SOL     OW30661   4.206   0.632   1.388  0.0055  0.0034 -0.9319
70890SOL    HW130662   4.207   0.597   1.477 -0.5607  1.0809 -0.4791
70890SOL    HW230663   4.180   0.558   1.333 -0.5283 -0.4506 -0.0881
70891SOL     OW30664  11.327   4.669   2.256 -0.1372  0.6845 -0.0175
70891SOL    HW130665  11.419   4.682   2.279 -0.2680 -0.4659  1.2329
70891SOL    HW230666  11.289   4.756   2.262  0.1361  0.6877  2.9301
70892SOL     OW30667   7.067  11.220  12.623 -0.0932 -0.0033 -0.0048
70892SOL    HW130668   7.151  11.179  12.602 -0.8927 -0.9006 -1.6377
70892SOL    HW230669   7.001  11.157  12.595 -1.3379  0.6269  1.3755
70893SOL     OW30670  10.250   1.791   2.397 -0.2520 -0.4981 -0.1006
70893SOL    HW130671  10.345   1.781   2.390 -0.4713 -2.1233 -1.6775
70893SOL    HW230672  10.226   1.740   2.474  0.2305  0.6686  0.8351
70894SOL     OW30673   9.538   3.227   5.271  0.3580 -0.3173  0.5899
70894SOL    HW130674   9.572   3.249   5.184  0.6160  1.5160  1.0980
70894SOL    HW230675   9.581   3.290   5.329 -1.3234 -0.1961  1.7563
70895SOL     OW30676   4.693   0.703   4.790 -0.0703  0.3187  0.8042
70895SOL    HW130677   4.661   0.792   4.799  0.5046  0.5675  0.4331
70895SOL    HW230678   4.642   0.666   4.718 -0.6529  0.1856  1.2817
70896SOL     OW30679   8.559   8.153   9.036 -0.3201  0.1410  0.5888
70896SOL    HW130680   8.607   8.072   9.016  0.2840  0.5527  0.3494
70896SOL    HW230681   8.622   8.223   9.018 -0.9249  0.6753  0.5428
70897SOL     OW30682   0.598   6.406   7.091 -0.2188  0.0663  0.3061
70897SOL    HW130683   0.581   6.420   7.184  1.2406 -1.9031  0.9319
70897SOL    HW230684   0.545   6.472   7.046 -1.5796  0.5259  2.4826
70898SOL     OW30685  10.977   2.311  12.206  0.4892  0.0916  0.1143
70898SOL    HW130686  10.916   2.256  12.157  2.9364 -0.3826 -2.6038
70898SOL    HW230687  10.971   2.397  12.163 -0.1349  0.7948  1.5442
70899SOL     OW30688  12.239  11.830  10.444 -0.1944  0.1296  0.1956
70899SOL    HW130689  12.216  11.902  10.502 -2.1524 -0.5569  0.3473
70899SOL    HW230690  12.165  11.823  10.384 -0.6585 -2.4653  0.9233
70900SOL     OW30691   6.306  11.143  11.088  0.1224  0.4430 -0.3278
70900SOL    HW130692   6.243  11.199  11.134  1.6677  1.2583  0.9124
70900SOL    HW230693   6.266  11.126  11.003 -1.6739  1.0696  0.3523
70901SOL     OW30694   0.180  14.132   1.309 -0.2329 -0.2629  0.4888
70901SOL    HW130695   0.216  14.197   1.247 -2.1303  0.1179 -0.2952
70901SOL    HW230696   0.104  14.176   1.347 -0.8381 -1.5972  0.8594
70902SOL     OW30697  13.371   9.973   4.352  0.4798  0.0240 -0.0941
70902SOL    HW130698  13.403   9.914   4.285  0.3431  0.5490 -0.6363
70902SOL    HW230699  13.298   9.926   4.392 -0.3980  0.2739 -1.3182
70903SOL     OW30700  12.263  12.546   3.539  0.6227  0.4328 -0.3499
70903SOL    HW130701  12.257  12.499   3.621  2.1578  2.2818  0.9169
70903SOL    HW230702  12.346  12.518   3.501  0.9729  1.1773 -0.1633
70904SOL     OW30703  11.983   7.743   5.909 -0.4351 -0.4910 -0.1903
70904SOL    HW130704  11.962   7.680   5.979 -0.1504  0.2371  0.5684
70904SOL    HW230705  11.957   7.828   5.945 -2.1995 -0.3117 -1.7750
70905SOL     OW30706   8.854   7.312   3.560 -0.2727 -0.0185 -0.1360
70905SOL    HW130707   8.855   7.282   3.651  1.9226  0.0237 -0.0935
70905SOL    HW230708   8.771   7.360   3.551 -0.3454  0.3304  1.9506
70906SOL     OW30709  10.232  12.207   7.959 -0.1051 -0.1541  0.4354
70906SOL    HW130710  10.216  12.115   7.940 -1.1526  0.0541  0.2585
70906SOL    HW230711  10.200  12.220   8.048  1.1889 -0.2368  0.9221
70907SOL     OW30712  12.133   7.339   0.879 -0.5052  0.4036  0.2274
70907SOL    HW130713  12.127   7.427   0.918  1.7004  0.2349  1.0679
70907SOL    HW230714  12.223   7.332   0.849 -0.7019 -1.5118 -0.0210
70908SOL     OW30715   2.724  13.847   2.043  0.3590  0.0464  0.5705
70908SOL    HW130716   2.726  13.793   2.121 -0.6620 -1.9969 -0.7402
70908SOL    HW230717   2.812  13.840   2.007  1.1566  1.8391  1.9911
70909SOL     OW30718   7.557   6.457   5.497  0.0510 -0.6364 -0.1239
70909SOL    HW130719   7.605   6.411   5.429  0.4847  1.1603 -1.1025
70909SOL    HW230720   7.610   6.447   5.576  0.1125 -1.7930 -0.2954
70910SOL     OW30721   7.258   8.784   1.813  0.1244 -0.1950  0.2819
70910SOL    HW130722   7.348   8.815   1.809  1.1887 -3.1358 -2.2870
70910SOL    HW230723   7.250   8.744   1.900  1.0854  0.5543  0.7282
70911SOL     OW30724   3.246   3.939   1.124  0.2339 -0.7115 -0.5282
70911SOL    HW130725   3.153   3.935   1.103  0.6231 -1.9421 -2.2127
70911SOL    HW230726   3.261   3.868   1.186  0.1238 -0.7872 -0.5893
70912SOL     OW30727   0.509   4.724   7.710 -0.0944 -0.3614  0.3274
70912SOL    HW130728   0.441   4.687   7.766 -0.2271  0.1091  0.4832
70912SOL    HW230729   0.590   4.680   7.738 -0.4489 -1.5564 -0.4431
70913SOL     OW30730   2.143  13.070   2.843 -0.0895 -0.2823  0.0996
70913SOL    HW130731   2.069  13.074   2.782 -1.1152  0.5998  1.3635
70913SOL    HW230732   2.218  13.048   2.787 -1.5571 -2.9994 -0.9683
70914SOL     OW30733   2.824   8.718   8.994 -0.2681  0.3656  0.6062
70914SOL    HW130734   2.838   8.691   9.084 -1.6690  0.0807  0.7571
70914SOL    HW230735   2.734   8.750   8.992 -1.3036 -2.3195 -1.2995
70915SOL     OW30736   4.352   8.716   3.043  0.0010 -0.0283  0.1999
70915SOL    HW130737   4.402   8.637   3.064 -0.0146 -0.0800  0.0425
70915SOL    HW230738   4.404   8.761   2.976  0.1528  0.2437  0.4938
70916SOL     OW30739   3.730   5.513  11.055 -0.3858 -0.0513  0.0680
70916SOL    HW130740   3.700   5.570  10.985  0.8368  1.1096  0.4671
70916SOL    HW230741   3.658   5.514  11.119 -1.0709 -0.3128 -0.6800
70917SOL     OW30742  12.449  12.899   7.865 -0.5048  0.1303  0.0583
70917SOL    HW130743  12.483  12.860   7.785  1.9495  1.6409  0.2734
70917SOL    HW230744  12.422  12.987   7.840  2.5906  1.5562  1.2067
70918SOL     OW30745  11.222   9.131   2.826  0.1852  0.2554 -0.2125
70918SOL    HW130746  11.168   9.206   2.848 -2.1020 -1.6242  1.0679
70918SOL    HW230747  11.195   9.107   2.737 -0.0075  0.1992 -0.1390
70919SOL     OW30748   7.011  10.639   0.183 -0.4928 -0.2107 -0.2117
70919SOL    HW130749   6.958  10.715   0.159  0.5073  0.6615  0.2437
70919SOL    HW230750   6.990  10.624   0.276  2.2951  2.1555  0.9658
70920SOL     OW30751   3.121   5.696  13.256 -0.1816 -0.7313  0.3458
70920SOL    HW130752   3.163   5.777  13.227  0.0935 -0.8447  0.4285
70920SOL    HW230753   3.161   5.627  13.202 -0.3838 -0.8194  0.3068
70921SOL     OW30754  10.610   9.210   2.833 -0.3306  0.0827  0.1214
70921SOL    HW130755  10.626   9.175   2.745  1.3361  1.7569 -0.3278
70921SOL    HW230756  10.559   9.143   2.877 -0.5147 -1.1698 -1.8633
70922SOL     OW30757   3.817  12.145   3.901 -0.1694  0.2203  0.6505
70922SOL    HW130758   3.815  12.192   3.985 -0.2858  1.2666  0.0727
70922SOL    HW230759   3.847  12.210   3.838 -1.0246 -0.2845 -0.2944
70923SOL     OW30760  12.625  13.581   9.832  0.2069 -0.2410  0.2164
70923SOL    HW130761  12.712  13.619   9.819  0.6515 -1.1030  0.5939
70923SOL    HW230762  12.626  13.547   9.921 -1.1346  1.2717  0.8581
70924SOL     OW30763   7.356  12.014   5.966  0.0204  0.2208  0.4236
70924SOL    HW130764   7.428  12.072   5.992 -1.2472  2.0082  0.1630
70924SOL    HW230765   7.380  11.983   5.879 -0.3863  2.4574 -0.5709
70925SOL     OW30766  11.311   4.640  12.757  0.9329  0.1989  0.1789
70925SOL    HW130767  11.226   4.605  12.783  1.3104 -0.4443  0.5799
70925SOL    HW230768  11.298   4.671  12.667  0.2889  0.0580  0.2223
70926SOL     OW30769  13.610   0.955   3.219  0.2791 -0.3910 -0.1393
70926SOL    HW130770  13.539   1.018   3.226  0.5346  0.0347 -1.1794
70926SOL    HW230771  13.568   0.873   3.194 -0.0201 -0.5734  0.9205
70927SOL     OW30772  14.094  11.027   6.613 -0.1340  0.4757 -0.4084
70927SOL    HW130773  14.073  10.970   6.539  1.0579  2.1742 -2.1520
70927SOL    HW230774  14.172  10.988   6.652 -1.0148 -0.6698  0.2951
70928SOL     OW30775   7.653   0.603  12.344 -0.3057 -0.1729 -0.1733
70928SOL    HW130776   7.584   0.638  12.287  0.9809  2.6558 -0.1177
70928SOL    HW230777   7.625   0.626  12.432 -1.1963 -2.6232  0.2789
70929SOL     OW30778  10.252   6.482   5.039  0.2180 -0.1201  0.1372
70929SOL    HW130779  10.163   6.517   5.048  0.0981 -0.0841 -1.0483
70929SOL    HW230780  10.303   6.531   5.104 -0.1062  1.7928 -0.9451
70930SOL     OW30781  11.999  11.293   1.003 -0.4612  0.3070 -0.6357
70930SOL    HW130782  11.956  11.379   1.006 -0.1927  0.4795 -1.4284
70930SOL    HW230783  11.973  11.256   0.919  1.8579  0.9379 -1.7404
70931SOL     OW30784   7.900   3.110  12.193 -0.1769 -0.3988 -0.5315
70931SOL    HW130785   7.908   3.201  12.223 -0.2325 -0.8825  1.0137
70931SOL    HW230786   7.811   3.085  12.217 -0.1514 -0.8839 -0.9278
70932SOL     OW30787  11.588   1.515   2.314 -0.1376  0.7562 -0.0046
70932SOL    HW130788  11.506   1.486   2.354  0.3067 -0.5599 -0.0171
70932SOL    HW230789  11.646   1.439   2.319  1.0639  1.6407 -0.0694
70933SOL     OW30790  14.148   0.540   8.998  0.3677  0.6292 -0.4009
70933SOL    HW130791  14.138   0.458   9.047 -1.3261  0.3103 -1.1761
70933SOL    HW230792  14.242   0.548   8.982  0.9063  0.4400  2.3028
70934SOL     OW30793  13.211  11.309   8.681 -0.8896 -0.5354 -0.6796
70934SOL    HW130794  13.146  11.241   8.700 -1.7164  0.5321  0.4908
70934SOL    HW230795  13.165  11.370   8.624 -1.0704  0.4277  0.4697
70935SOL     OW30796   3.089  13.725   0.297  0.1830  0.5140 -0.0141
70935SOL    HW130797   3.109  13.708   0.389 -1.2538 -0.5556  0.1411
70935SOL    HW230798   3.165  13.773   0.264  0.5650  1.2616  1.8214
70936SOL     OW30799   0.563  12.512   0.807  0.6281  0.6638 -0.6650
70936SOL    HW130800   0.616  12.463   0.870  0.7229 -0.9919 -1.9463
70936SOL    HW230801   0.581  12.604   0.827  2.1871  0.1743  0.4174
70937SOL     OW30802   2.089   2.635   1.632 -0.0059  0.1340 -0.7189
70937SOL    HW130803   2.076   2.714   1.579 -0.9860 -0.5098 -1.4702
70937SOL    HW230804   2.101   2.668   1.721  0.8519  1.1885 -1.1971
70938SOL     OW30805  13.098   1.682   8.801 -0.5019  0.1249 -0.1868
70938SOL    HW130806  13.154   1.660   8.875  0.9545  1.1174 -0.9343
70938SOL    HW230807  13.140   1.640   8.726 -0.3559  1.4017 -0.8602
70939SOL     OW30808   6.632  13.982  10.285 -0.5772 -0.0659  0.4376
70939SOL    HW130809   6.699  13.981  10.217  0.2902 -0.1492  1.2738
70939SOL    HW230810   6.665  13.923  10.352 -0.8683  0.8758  1.4354
70940SOL     OW30811  10.386   4.312   4.711 -0.4453  0.0930  0.4756
70940SOL    HW130812  10.404   4.371   4.638 -1.1932  1.1139  1.0791
70940SOL    HW230813  10.429   4.354   4.786  0.5618 -1.0825  0.5870
70941SOL     OW30814  13.357   1.184   8.540  0.0123  0.1828  0.6405
70941SOL    HW130815  13.276   1.138   8.518  0.1939 -0.3669  1.1002
70941SOL    HW230816  13.328   1.262   8.589 -0.2046 -0.4201  1.4913
70942SOL     OW30817  12.115   0.646   0.970  0.2491 -0.8007 -0.0164
70942SOL    HW130818  12.024   0.668   0.988  0.1030  0.8991 -2.2746
70942SOL    HW230819  12.161   0.663   1.052 -0.9543  1.8877  0.2112
70943SOL     OW30820   1.082   9.100   4.884 -0.0839 -0.0515  0.4130
70943SOL    HW130821   1.161   9.085   4.936 -0.0436 -0.3025  0.2816
70943SOL    HW230822   1.016   9.042   4.923 -0.3844  0.6073  0.9145
70944SOL     OW30823  10.269   6.846  11.875 -0.3521 -0.5926 -0.5169
70944SOL    HW130824  10.242   6.936  11.858  0.0636  0.0905  2.0124
70944SOL    HW230825  10.195   6.808  11.924 -0.2199 -1.4009 -0.9276
70945SOL     OW30826   9.456  12.242  10.651  0.4096  0.0650  0.6089
70945SOL    HW130827   9.466  12.316  10.591  1.3031 -1.5239 -1.3403
70945SOL    HW230828   9.368  12.209  10.633  0.4002  0.0357  0.7085
70946SOL     OW30829   8.809   4.525   2.341  0.0206  0.3952 -0.3990
70946SOL    HW130830   8.818   4.515   2.246  1.1075 -0.1890 -0.2513
70946SOL    HW230831   8.823   4.619   2.356 -0.6666  0.5784 -0.8599
70947SOL     OW30832   5.559  12.936  10.963  0.0324 -0.0785 -0.3863
70947SOL    HW130833   5.619  13.009  10.979 -0.2512  0.0926 -0.0945
70947SOL    HW230834   5.560  12.885  11.045  1.0877 -1.0376 -0.9598
70948SOL     OW30835  12.245   4.758  11.430 -0.2050 -0.3195 -0.3573
70948SOL    HW130836  12.228   4.776  11.523  1.3095  0.7402 -0.2544
70948SOL    HW230837  12.314   4.691  11.431 -1.4793 -1.7186 -0.7660
70949SOL     OW30838   8.297  12.524  12.044  0.2785  0.4054 -0.3007
70949SOL    HW130839   8.322  12.432  12.034 -0.3964  0.2064 -0.1653
70949SOL    HW230840   8.378  12.568  12.070  0.2669 -0.4087  1.1805
70950SOL     OW30841   7.912   0.090   5.487  0.5844 -0.3243 -0.1357
70950SOL    HW130842   7.865   0.170   5.463 -1.7768 -2.5457 -4.0095
70950SOL    HW230843   7.859   0.050   5.556  2.5915  1.9069  2.9662
70951SOL     OW30844   4.862   4.817  11.682 -0.0492 -0.2753 -0.5525
70951SOL    HW130845   4.864   4.762  11.604 -2.0606 -1.4844  0.1816
70951SOL    HW230846   4.772   4.810  11.714 -0.0154  2.3469  0.3753
70952SOL     OW30847   9.786   3.137   8.118  0.4869  0.4362 -0.1917
70952SOL    HW130848   9.779   3.041   8.117  0.1437  0.4618 -0.4916
70952SOL    HW230849   9.705   3.166   8.160  0.8452  0.5769  0.4109
70953SOL     OW30850   5.181   9.345   9.189  0.3608  0.3885 -0.2793
70953SOL    HW130851   5.193   9.269   9.133 -1.2833 -0.6476  0.7012
70953SOL    HW230852   5.086   9.353   9.199  0.5733  1.0098  1.6972
70954SOL     OW30853   8.894  12.404  13.098  0.4697 -0.4411 -0.0006
70954SOL    HW130854   8.841  12.426  13.175  1.3874 -1.4108  0.9448
70954SOL    HW230855   8.924  12.489  13.065 -0.3973  0.0230  0.3515
70955SOL     OW30856  12.121   1.888   5.282  0.9285 -0.1441  0.0269
70955SOL    HW130857  12.206   1.877   5.326  2.0250 -0.5291 -2.0777
70955SOL    HW230858  12.059   1.843   5.339  2.2487 -0.5553  1.2119
70956SOL     OW30859  10.742   3.513  10.271 -0.2962 -0.5360 -0.3901
70956SOL    HW130860  10.736   3.608  10.282 -0.6480 -0.5422 -0.4956
70956SOL    HW230861  10.835   3.494  10.270 -0.2123 -0.1205 -0.9624
70957SOL     OW30862  10.108   6.555  10.885 -0.2900  0.7383 -0.3202
70957SOL    HW130863  10.158   6.600  10.817 -1.1934  0.7390 -0.9917
70957SOL    HW230864  10.050   6.496  10.838  0.1970 -0.4463  0.5167
70958SOL     OW30865   0.150  10.922  12.296  0.2699 -0.5311 -0.1526
70958SOL    HW130866   0.226  10.882  12.337  0.0605  0.3199  1.1413
70958SOL    HW230867   0.090  10.849  12.281  0.0794 -0.8226  1.7213
70959SOL     OW30868  11.652   7.107   9.609 -0.4717 -0.6254 -0.2401
70959SOL    HW130869  11.559   7.084   9.618 -0.3654 -1.6318 -1.5699
70959SOL    HW230870  11.662   7.135   9.519  0.4975 -0.3930 -0.0738
70960SOL     OW30871  10.267   0.513   2.655 -0.1127 -0.9960  0.2285
70960SOL    HW130872  10.265   0.557   2.740  0.4008  0.5960 -0.5434
70960SOL    HW230873  10.254   0.584   2.592 -1.0085 -2.2230 -1.0120
70961SOL     OW30874  11.807  13.762  12.880  0.3380  0.0374  0.3100
70961SOL    HW130875  11.831  13.733  12.968  0.0004 -0.7692  0.1462
70961SOL    HW230876  11.765  13.847  12.894  0.2372 -0.1076  0.9346
70962SOL     OW30877   7.278   5.803  11.467  0.2890 -0.3401  0.3747
70962SOL    HW130878   7.290   5.709  11.469  1.3693 -0.2139  0.1262
70962SOL    HW230879   7.360   5.838  11.431 -0.0509  0.6968  0.5599
70963SOL     OW30880   4.443   0.812  11.754 -0.7474  0.1490 -0.3357
70963SOL    HW130881   4.524   0.772  11.723 -0.5282  1.0311 -0.9571
70963SOL    HW230882   4.438   0.788  11.846 -0.2294 -0.6326 -0.4980
70964SOL     OW30883   6.277   1.414  10.417 -0.2820 -0.0919  0.6130
70964SOL    HW130884   6.355   1.433  10.469 -1.4083 -1.0294  2.7886
70964SOL    HW230885   6.208   1.398  10.482 -1.9155 -0.8301 -1.1967
70965SOL     OW30886   5.649   6.621  13.132  0.4274 -0.5630  0.1030
70965SOL    HW130887   5.673   6.683  13.063  0.1958 -1.5007 -0.8299
70965SOL    HW230888   5.730   6.573  13.151  0.6028 -0.0137  0.8165
70966SOL     OW30889   8.347   0.544   9.474 -0.0530 -0.1985 -0.1110
70966SOL    HW130890   8.368   0.512   9.561  0.1141  0.9912  0.3012
70966SOL    HW230891   8.368   0.472   9.415  2.0772 -0.1951  0.6005
70967SOL     OW30892   1.357   2.686   8.794 -0.1430 -0.3713 -0.3096
70967SOL    HW130893   1.321   2.714   8.710 -1.0350 -0.6749 -0.0366
70967SOL    HW230894   1.448   2.662   8.775  0.3250  1.5914 -0.7788
70968SOL     OW30895   7.206  12.248   0.658  0.6139  0.2839 -0.0553
70968SOL    HW130896   7.213  12.165   0.612  0.5983  0.1781  0.1314
70968SOL    HW230897   7.122  12.244   0.703  1.0037  0.0200  0.6825
70969SOL     OW30898   6.052  12.462   7.505  1.0106  0.8465 -0.3342
70969SOL    HW130899   5.984  12.435   7.567 -1.1535  0.0826 -2.8427
70969SOL    HW230900   6.116  12.390   7.507  1.4362  1.2115  1.5087
70970SOL     OW30901   4.797  14.100   7.001  0.0503  0.6633 -0.3390
70970SOL    HW130902   4.765  14.150   7.076  0.2203 -0.4118  0.4812
70970SOL    HW230903   4.876  14.057   7.034  0.6381  0.8982 -1.4243
70971SOL     OW30904   1.818   6.558  11.552  0.1294  0.0663  0.5088
70971SOL    HW130905   1.803   6.487  11.615 -2.6909 -0.4427 -0.5509
70971SOL    HW230906   1.851   6.514  11.473  1.3896  0.3835  0.8475
70972SOL     OW30907   3.795   3.990   0.442 -0.4736 -0.5092 -0.5920
70972SOL    HW130908   3.780   4.079   0.477  0.2053  0.0421 -1.6629
70972SOL    HW230909   3.871   3.999   0.385  0.2672 -2.0198  0.1121
70973SOL     OW30910   8.485   6.734   0.853 -0.0145  0.0039 -0.3306
70973SOL    HW130911   8.535   6.657   0.829 -2.0695 -1.6717  0.4919
70973SOL    HW230912   8.511   6.800   0.789  2.3301 -1.1010 -0.6155
70974SOL     OW30913   4.930   6.364  11.359  0.0269  0.1621  0.3843
70974SOL    HW130914   4.917   6.459  11.358 -0.5506  0.0892  0.2402
70974SOL    HW230915   5.024   6.352  11.349 -0.0739  0.6871 -1.5902
70975SOL     OW30916   2.639   3.842  13.235  0.0502 -0.2747  0.1044
70975SOL    HW130917   2.689   3.834  13.154  0.8849 -0.0400  0.5788
70975SOL    HW230918   2.619   3.935  13.243 -2.8677 -0.6710 -1.4519
70976SOL     OW30919   0.248   9.851   8.380 -0.5617  0.2214  0.6298
70976SOL    HW130920   0.177   9.858   8.315 -0.2351  0.9974  0.3449
70976SOL    HW230921   0.328   9.844   8.327 -0.4795 -1.4311  0.9403
70977SOL     OW30922   3.561  10.277  12.395 -0.2995  0.1144 -0.1459
70977SOL    HW130923   3.608  10.357  12.416  2.1026 -0.9465 -1.1125
70977SOL    HW230924   3.476  10.286  12.439  0.3547  2.6221  0.7420
70978SOL     OW30925   9.189   7.002  13.438 -0.3274 -0.5593 -0.2502
70978SOL    HW130926   9.282   7.021  13.439 -0.2968 -0.7060 -0.2497
70978SOL    HW230927   9.184   6.908  13.420 -0.5062 -0.3560 -1.3646
70979SOL     OW30928   1.854   7.718  10.734 -0.3359 -0.4346  0.9692
70979SOL    HW130929   1.899   7.726  10.818 -0.6191  1.7507  0.9544
70979SOL    HW230930   1.766   7.751  10.749 -0.7273 -0.9943  0.0398
70980SOL     OW30931   9.789   7.285   9.134 -0.4754 -0.0231 -0.1093
70980SOL    HW130932   9.832   7.251   9.212  0.2757 -1.1580 -0.9980
70980SOL    HW230933   9.831   7.239   9.061  0.0606  2.2471 -1.3255
70981SOL     OW30934   2.539  12.856  11.040 -0.1940 -0.2753  0.2084
70981SOL    HW130935   2.588  12.793  11.092 -1.0763 -1.2082 -0.0453
70981SOL    HW230936   2.542  12.821  10.950 -1.1134 -0.2432  0.1557
70982SOL     OW30937   2.908  13.530   6.612 -0.3333  0.4328 -0.4442
70982SOL    HW130938   2.965  13.470   6.661 -0.2584 -0.7469 -1.9036
70982SOL    HW230939   2.965  13.603   6.588 -0.6219  1.5683  2.0542
70983SOL     OW30940   1.210   6.237   0.360  0.7526  0.3016  0.2782
70983SOL    HW130941   1.292   6.190   0.342  0.6001  0.2974 -0.4231
70983SOL    HW230942   1.196   6.291   0.282  0.1641  0.4164  0.4609
70984SOL     OW30943   7.966   1.063   3.545  0.2913  0.3686  0.4048
70984SOL    HW130944   8.048   1.013   3.544  0.9716  1.4345  1.1680
70984SOL    HW230945   7.957   1.093   3.635 -0.6761  0.7212  0.2050
70985SOL     OW30946   9.565   1.142   2.304  0.0516  0.8014 -0.4906
70985SOL    HW130947   9.606   1.115   2.222 -1.3940  0.0862 -1.0266
70985SOL    HW230948   9.571   1.238   2.304  0.3845  0.7861 -1.2653
70986SOL     OW30949   8.096   2.300   9.785 -0.4795  0.3069 -0.1316
70986SOL    HW130950   8.065   2.352   9.711  0.2838  0.0804 -0.6307
70986SOL    HW230951   8.017   2.279   9.835 -0.8942  1.2697 -0.3500
70987SOL     OW30952  11.469   7.083   3.678 -0.0437 -0.4549 -0.5935
70987SOL    HW130953  11.544   7.029   3.700 -0.8978 -0.3957  3.0876
70987SOL    HW230954  11.507   7.166   3.648  1.3003 -1.0515 -0.6052
70988SOL     OW30955   4.803   9.527   8.497 -0.2793  0.5312 -0.6533
70988SOL    HW130956   4.828   9.579   8.573  0.2418  0.0333 -0.4722
70988SOL    HW230957   4.806   9.588   8.423 -1.2828  1.1364 -0.2061
70989SOL     OW30958   0.799   7.803   5.642 -0.3882  0.3057 -0.2543
70989SOL    HW130959   0.724   7.781   5.587  0.5808 -0.8502 -1.1905
70989SOL    HW230960   0.850   7.722   5.647  0.8696  1.0852  0.2469
70990SOL     OW30961  14.126   5.970   9.302 -0.0114 -0.3508 -0.7108
70990SOL    HW130962  14.053   5.934   9.252  0.4742  0.2515 -1.8860
70990SOL    HW230963  14.182   5.895   9.321 -1.1666 -0.9149  0.6743
70991SOL     OW30964   4.522   2.022  13.228  0.1068 -0.0992  0.3546
70991SOL    HW130965   4.481   2.010  13.313 -0.0082  0.3759  0.3693
70991SOL    HW230966   4.539   2.117  13.222  0.2251 -0.1446 -0.0939
70992SOL     OW30967   6.828   9.512   4.564  0.3317 -0.5291  0.0593
70992SOL    HW130968   6.857   9.424   4.540  0.7765 -0.3284 -0.1525
70992SOL    HW230969   6.748   9.498   4.614 -0.0190 -1.0196 -0.6191
70993SOL     OW30970   8.215  14.086   0.113  0.1871  0.2185 -0.4943
70993SOL    HW130971   8.191  14.131   0.193  0.8587 -0.9473  0.3946
70993SOL    HW230972   8.296  14.129   0.084  0.1845  0.3549 -0.2999
70994SOL     OW30973   1.220  10.750   7.490  0.2960 -0.1387  0.1500
70994SOL    HW130974   1.214  10.839   7.527  2.8552  0.7792 -1.3737
70994SOL    HW230975   1.139  10.740   7.440 -0.4068  1.0020  0.9835
70995SOL     OW30976   9.101  11.529   0.095  0.0653  0.6574  0.0607
70995SOL    HW130977   9.057  11.475   0.028  0.5086 -0.5618  0.7199
70995SOL    HW230978   9.178  11.563   0.050  0.1090  0.2385 -0.1915
70996SOL     OW30979   9.481  12.913   2.215  0.0526 -0.2768 -0.2158
70996SOL    HW130980   9.401  12.863   2.228  0.7548 -1.4126 -0.1142
70996SOL    HW230981   9.455  13.005   2.226 -1.3537 -0.5823 -0.9057
70997SOL     OW30982  12.452   3.639  11.022  0.4713  0.1217  0.2822
70997SOL    HW130983  12.499   3.716  11.055  1.0960 -0.0098 -0.2751
70997SOL    HW230984  12.395   3.613  11.094  0.4613  0.9426  0.5758
70998SOL     OW30985   1.154  13.282   0.615  0.5040  0.5654 -0.0240
70998SOL    HW130986   1.241  13.323   0.610  1.8230 -1.9005  0.9050
70998SOL    HW230987   1.158  13.226   0.693 -1.4194 -0.6958 -0.7491
70999SOL     OW30988  10.934   1.210  12.209  0.0815 -0.3502  0.4788
70999SOL    HW130989  10.970   1.123  12.194  2.8998  0.6070  1.0853
70999SOL    HW230990  10.901   1.238  12.123  1.7090 -0.9534 -0.3830
71000SOL     OW30991   0.966  10.727  11.634  0.0892  0.2466 -0.3747
71000SOL    HW130992   1.040  10.702  11.579  1.6576  1.6764  0.9583
71000SOL    HW230993   0.889  10.703  11.583  1.4516 -0.9542 -1.9875
71001SOL     OW30994   3.777   7.866   4.203  0.4394  0.3158 -0.0903
71001SOL    HW130995   3.838   7.925   4.158  0.6199  0.8343  0.8132
71001SOL    HW230996   3.828   7.786   4.219  0.9876  0.8584  0.9270
71002SOL     OW30997  14.011   6.064   5.540 -0.3431  0.0234  0.0699
71002SOL    HW130998  14.071   6.131   5.510 -0.0398  0.2150  1.0725
71002SOL    HW230999  14.061   6.014   5.605 -1.1809  0.0524  0.7580
71003SOL     OW31000   2.365  13.841   0.818 -0.6651 -0.1305 -0.2616
71003SOL    HW131001   2.429  13.905   0.850 -0.0981 -1.0992  0.5844
71003SOL    HW231002   2.401  13.812   0.735 -0.1608 -0.4329  0.0569
71004SOL     OW31003   9.757   8.368  12.656  0.1471 -0.0599  0.1978
71004SOL    HW131004   9.752   8.281  12.617 -0.0302 -0.8022  1.7912
71004SOL    HW231005   9.673   8.409  12.635  0.2858 -0.2160 -0.6754
71005SOL     OW31006   1.332   9.556  10.552 -0.0536 -0.5265  0.2353
71005SOL    HW131007   1.258   9.530  10.606  0.6879 -0.5798  1.2616
71005SOL    HW231008   1.331   9.651  10.552  0.0676 -0.5234  0.5366
71006SOL     OW31009   8.222   5.068   9.192  0.0204  0.2928  0.0192
71006SOL    HW131010   8.130   5.042   9.188  0.0721  0.2717 -3.3530
71006SOL    HW231011   8.269   4.988   9.215 -0.3424 -1.5953 -4.7270
71007SOL     OW31012   8.623  10.022   9.538 -0.0508 -1.0870  0.6621
71007SOL    HW131013   8.619  10.042   9.631  2.1980 -0.2113  0.6488
71007SOL    HW231014   8.700   9.965   9.529 -0.1720 -1.0752 -0.6684
71008SOL     OW31015   8.427  11.627   6.774 -0.4143  0.2003  0.1568
71008SOL    HW131016   8.354  11.676   6.813  0.2661  1.8241 -0.5109
71008SOL    HW231017   8.502  11.648   6.830 -0.1444 -0.2463 -0.0365
71009SOL     OW31018  12.301   3.849   2.786 -0.2759 -0.4511  0.4782
71009SOL    HW131019  12.264   3.926   2.831 -0.1359  0.7317 -1.3373
71009SOL    HW231020  12.241   3.778   2.808  0.1251 -0.0960  2.9975
71010SOL     OW31021   9.459   8.904   6.341 -1.1326 -0.6126 -0.1519
71010SOL    HW131022   9.466   8.812   6.366 -0.2678  0.1350  2.7840
71010SOL    HW231023   9.394   8.940   6.402 -1.2016  0.7948 -1.0123
71011SOL     OW31024  11.452   0.720  13.650 -0.0685  0.3517 -0.0207
71011SOL    HW131025  11.404   0.724  13.568  1.1234 -0.0467 -0.7628
71011SOL    HW231026  11.508   0.798  13.649 -0.9574  1.0282  1.0175
71012SOL     OW31027   5.121   5.993  11.041 -0.1029  0.7321  0.3357
71012SOL    HW131028   5.125   5.929  10.970 -1.6592  1.9166 -0.9027
71012SOL    HW231029   5.029   5.992  11.069  0.5378  0.0657  2.6092
71013SOL     OW31030  10.566  11.119  12.390 -0.1242 -0.1693  0.2761
71013SOL    HW131031  10.621  11.041  12.392 -2.0487 -1.6231  3.0879
71013SOL    HW231032  10.493  11.096  12.333 -0.5265 -0.3098  0.8416
71014SOL     OW31033  13.820  11.101   6.677  0.3558 -0.0465  0.0113
71014SOL    HW131034  13.901  11.089   6.627  0.5821 -0.3478  0.4390
71014SOL    HW231035  13.761  11.034   6.643 -0.1974  1.0371 -1.2453
71015SOL     OW31036   5.788  13.482   4.600 -0.8541  0.0998 -0.0378
71015SOL    HW131037   5.800  13.394   4.634  2.3237  0.4010 -0.0698
71015SOL    HW231038   5.754  13.532   4.674 -2.2231 -0.9994  0.1142
71016SOL     OW31039   2.141   5.012  11.856  0.4480 -0.6771 -0.0187
71016SOL    HW131040   2.080   5.031  11.927 -0.6084  0.5345 -1.2057
71016SOL    HW231041   2.088   5.015  11.777  1.8477 -0.6919 -0.9904
71017SOL     OW31042   7.630   8.287   8.739  0.1387 -0.4295 -0.8332
71017SOL    HW131043   7.599   8.374   8.714  2.9676  0.8977 -0.0951
71017SOL    HW231044   7.598   8.275   8.828  1.4234  0.8326 -0.1548
71018SOL     OW31045   5.577   8.013   7.500 -0.2197 -0.3290  0.1984
71018SOL    HW131046   5.482   8.006   7.489 -0.2118  1.5281 -1.7494
71018SOL    HW231047   5.601   7.940   7.557 -2.7331 -1.1494  0.2882
71019SOL     OW31048  11.820  10.458   7.223 -0.9175  0.0143 -0.0787
71019SOL    HW131049  11.864  10.481   7.142 -2.5777  0.4311 -0.9019
71019SOL    HW231050  11.732  10.495   7.214 -0.4406  2.3729  2.9497
71020SOL     OW31051   9.884   7.466  14.087  0.0326  0.4336  0.0460
71020SOL    HW131052   9.825   7.393  14.105 -1.2929  0.9472 -1.9560
71020SOL    HW231053   9.841   7.542  14.126 -0.5116  0.7501 -1.1215
71021SOL     OW31054   2.371   9.132  13.087  0.3215  0.1975  0.3905
71021SOL    HW131055   2.402   9.198  13.148  1.1257  0.8160 -0.6445
71021SOL    HW231056   2.451   9.094  13.050 -0.1037  0.8705 -1.3317
71022SOL     OW31057   4.675   8.651   6.774 -0.4719  0.6310  0.6763
71022SOL    HW131058   4.642   8.734   6.738 -0.2881  1.2304  1.8351
71022SOL    HW231059   4.669   8.589   6.701  1.2460  2.1304 -0.8583
71023SOL     OW31060  14.063  13.474   9.100  0.3949  0.1263 -0.4684
71023SOL    HW131061  14.028  13.478   9.189 -0.0058 -1.7570 -0.4957
71023SOL    HW231062  14.153  13.505   9.108  0.1765  0.5484  0.4679
71024SOL     OW31063   1.920  11.214   6.344 -0.1408  0.6599  0.2279
71024SOL    HW131064   1.894  11.158   6.416  0.4258 -1.3016 -1.0137
71024SOL    HW231065   1.867  11.185   6.270  1.8015  0.1029 -1.0366
71025SOL     OW31066   8.120   3.137   1.518 -0.5383 -0.0655  0.0877
71025SOL    HW131067   8.150   3.136   1.609  1.3203 -1.1868 -0.4906
71025SOL    HW231068   8.199   3.124   1.466 -1.5085  0.8635 -1.7316
71026SOL     OW31069   4.813   8.008   8.514 -0.2575  0.1165  0.4511
71026SOL    HW131070   4.842   8.004   8.606  1.6168  0.5827 -0.0698
71026SOL    HW231071   4.721   8.032   8.519 -1.1937 -3.3248  2.3072
71027SOL     OW31072   1.092  12.568   4.559 -0.5444 -0.0437  0.0645
71027SOL    HW131073   1.184  12.579   4.536 -0.4541 -1.3865 -0.3421
71027SOL    HW231074   1.068  12.484   4.520 -1.2622 -0.9470  2.2742
71028SOL     OW31075   9.151   6.367   0.693 -0.0716 -0.1393  0.1755
71028SOL    HW131076   9.204   6.289   0.710 -1.1921 -0.9642  0.0021
71028SOL    HW231077   9.213   6.440   0.699  0.8519 -0.9662  1.1063
71029SOL     OW31078   7.292   0.053   7.301 -0.1818  0.4455 -0.4703
71029SOL    HW131079   7.354   0.084   7.235  0.0796  0.5908 -0.1565
71029SOL    HW231080   7.257  -0.028   7.264  2.2759 -1.2015  0.5587
71030SOL     OW31081  12.138   5.622  11.626 -0.0724 -0.7298  0.4614
71030SOL    HW131082  12.081   5.592  11.698  1.4094  0.0419  2.0307
71030SOL    HW231083  12.145   5.546  11.568 -1.2693 -1.4050  1.1657
71031SOL     OW31084   4.945   9.595   0.179  0.0850  0.0090 -0.4903
71031SOL    HW131085   4.861   9.640   0.165  0.3392  0.3583 -0.9224
71031SOL    HW231086   4.921   9.510   0.217 -0.4805  0.0220 -0.8089
71032SOL     OW31087  12.392   8.265   7.832  0.1000 -0.3108  0.0922
71032SOL    HW131088  12.319   8.208   7.805  0.5798 -0.3599 -1.1952
71032SOL    HW231089  12.351   8.349   7.852 -0.2451 -0.0213 -1.6332
71033SOL     OW31090   1.269   2.787   9.063  0.3826  0.2761 -0.1548
71033SOL    HW131091   1.224   2.869   9.087 -1.6698 -1.0569  0.8934
71033SOL    HW231092   1.360   2.802   9.088 -0.3355  1.5337  2.0798
71034SOL     OW31093  10.512   2.303  10.315 -0.0682  0.8494  0.2740
71034SOL    HW131094  10.540   2.342  10.398 -0.6330  1.7625  0.0439
71034SOL    HW231095  10.557   2.218  10.313 -0.0071  0.8272  1.4843
71035SOL     OW31096   1.149  11.978   8.137  0.4465 -0.1033  0.0429
71035SOL    HW131097   1.053  11.976   8.132  0.3336 -0.0430  1.7478
71035SOL    HW231098   1.177  11.899   8.090 -0.3546  0.4582 -1.4654
71036SOL     OW31099  10.270   5.367   4.522  0.2322 -0.3925 -0.3949
71036SOL    HW131100  10.336   5.309   4.560 -2.3248 -3.2510  0.0214
71036SOL    HW231101  10.212   5.389   4.594 -0.7932 -0.1456 -1.2677
71037SOL     OW31102  13.065   9.336   9.817 -0.3162 -0.1602 -0.5143
71037SOL    HW131103  13.116   9.330   9.898 -0.2602  0.3506 -0.5112
71037SOL    HW231104  12.974   9.336   9.846 -0.3621 -1.7731 -0.5547
71038SOL     OW31105  11.362  13.272   4.295  0.7187 -0.0138 -0.0824
71038SOL    HW131106  11.451  13.237   4.291  0.5480 -0.3216 -2.1129
71038SOL    HW231107  11.372  13.358   4.336  2.4379  1.2759 -2.9349
71039SOL     OW31108   5.538   7.725   9.105  0.1431  0.1923  0.0310
71039SOL    HW131109   5.500   7.750   9.189 -2.2780 -0.2573 -0.8496
71039SOL    HW231110   5.490   7.647   9.079  2.0429 -0.7091 -1.0045
71040SOL     OW31111   8.877   5.429   0.869 -0.1922 -0.3750  0.3281
71040SOL    HW131112   8.950   5.446   0.928  0.5069 -0.2422 -0.5432
71040SOL    HW231113   8.810   5.389   0.924  0.5225 -0.4647  1.1541
71041SOL     OW31114  12.977   5.035  13.947  0.8826  0.5097  0.4262
71041SOL    HW131115  13.001   5.038  14.040  2.0114  0.6936  0.1445
71041SOL    HW231116  12.973   5.126  13.920  0.5625  0.4573  0.2921
71042SOL     OW31117   9.291   9.598   4.780  0.0672 -0.3387  0.5546
71042SOL    HW131118   9.213   9.554   4.813  0.9601 -1.8595  0.6966
71042SOL    HW231119   9.364   9.543   4.808  1.0584 -0.1267 -1.4501
71043SOL     OW31120   9.770  13.546   2.837 -0.3571 -0.2932 -0.3729
71043SOL    HW131121   9.825  13.611   2.880  0.3108  0.5283 -2.3787
71043SOL    HW231122   9.696  13.596   2.802 -1.2922 -1.0635  0.4237
71044SOL     OW31123   9.381   7.857   7.937  0.0081  0.1607  0.2484
71044SOL    HW131124   9.371   7.909   8.017 -0.8150 -2.5274  2.0488
71044SOL    HW231125   9.466   7.814   7.947 -0.2140 -0.3892 -0.1719
71045SOL     OW31126  11.316   1.778  11.760 -0.1740 -0.3691 -0.3659
71045SOL    HW131127  11.383   1.844  11.776  1.1303 -1.5744 -0.7153
71045SOL    HW231128  11.258   1.784  11.836  0.4731  0.5054  0.0804
71046SOL     OW31129   7.066  13.506   3.865  0.0621 -0.5853 -0.3572
71046SOL    HW131130   7.040  13.591   3.830  0.1070 -0.0941  0.7439
71046SOL    HW231131   7.024  13.502   3.951  0.2263 -1.5937 -0.3151
71047SOL     OW31132   8.219  13.651   9.454  0.4745 -0.7698 -0.2439
71047SOL    HW131133   8.245  13.651   9.546  0.6466  0.1911 -0.2829
71047SOL    HW231134   8.244  13.564   9.422 -0.8845 -1.6350  0.9612
71048SOL     OW31135   9.526   0.535   6.897  0.3809 -0.3871 -0.4463
71048SOL    HW131136   9.519   0.558   6.804  2.8161 -1.3389 -0.9464
71048SOL    HW231137   9.535   0.619   6.942  0.7616  0.0325 -1.2858
71049SOL     OW31138  10.810   8.788   0.891 -0.3773 -0.2107  0.9333
71049SOL    HW131139  10.901   8.813   0.874 -1.3566  2.5288 -0.9846
71049SOL    HW231140  10.777   8.758   0.807 -0.7671 -3.3836  2.0816
71050SOL     OW31141   3.313   2.764  13.691 -0.2292  0.1734 -0.1604
71050SOL    HW131142   3.393   2.740  13.645 -0.3287  1.6744 -1.2155
71050SOL    HW231143   3.335   2.846  13.735 -1.7900  2.0437 -2.5367
71051SOL     OW31144  12.509   6.283   6.937  0.0985  0.2840 -1.2210
71051SOL    HW131145  12.522   6.338   6.860 -0.2244  1.2847 -0.5737
71051SOL    HW231146  12.415   6.268   6.941 -0.1020  1.7086 -0.0435
71052SOL     OW31147   0.710   6.267   2.765  0.2653  0.0291 -0.0471
71052SOL    HW131148   0.632   6.318   2.744  1.7927  1.7569 -1.8778
71052SOL    HW231149   0.694   6.181   2.727 -1.1226  0.0471  0.4491
71053SOL     OW31150   5.845   9.455  10.068  0.1527  0.0653  0.1942
71053SOL    HW131151   5.919   9.451  10.128  0.3820 -2.2226 -0.1533
71053SOL    HW231152   5.798   9.534  10.092  2.0009  0.8789  1.2605
71054SOL     OW31153  11.826  12.065  10.615 -0.4732 -0.5689 -0.4518
71054SOL    HW131154  11.892  12.135  10.611 -0.9142 -0.0575  0.6405
71054SOL    HW231155  11.864  12.000  10.674 -1.4315  0.3178  1.2186
71055SOL     OW31156   9.040  14.142   7.235 -0.0724  0.2825  0.0333
71055SOL    HW131157   9.042  14.237   7.246 -1.7093  0.2128  1.2735
71055SOL    HW231158   9.080  14.108   7.315  0.3527 -0.0742 -0.3309
71056SOL     OW31159   8.365   8.837  12.479 -0.1123 -0.4554 -0.1596
71056SOL    HW131160   8.346   8.928  12.504  0.0737  0.1029 -1.9253
71056SOL    HW231161   8.279   8.795  12.478 -0.2321 -0.2466  0.4079
71057SOL     OW31162   7.962  12.465  11.892 -0.1593 -0.0113  0.3362
71057SOL    HW131163   8.010  12.528  11.945 -0.4962 -0.3447  1.0466
71057SOL    HW231164   7.977  12.494  11.802  1.6763 -0.3103  0.5026
71058SOL     OW31165   7.424   4.353   5.238  0.0922  0.7354 -0.4035
71058SOL    HW131166   7.350   4.326   5.293 -0.1855  0.7516 -0.7652
71058SOL    HW231167   7.479   4.275   5.234  0.2987  0.8457  0.1956
71059SOL     OW31168  10.369  13.630  10.661 -1.0751  0.0854 -0.6154
71059SOL    HW131169  10.440  13.691  10.681  0.7480 -2.3233  0.8223
71059SOL    HW231170  10.305  13.683  10.614  0.8991  2.7901 -0.5230
71060SOL     OW31171   7.386   5.166   3.042  0.5145 -0.1242 -0.0423
71060SOL    HW131172   7.408   5.116   2.964 -0.5989 -0.8247  0.0773
71060SOL    HW231173   7.318   5.227   3.014  1.6941  1.1948 -0.1327
71061SOL     OW31174   2.540   2.323   2.472 -0.4352 -0.0078  0.4293
71061SOL    HW131175   2.488   2.266   2.528 -0.8741  0.9599  1.0442
71061SOL    HW231176   2.544   2.278   2.388  0.7486 -1.8001  1.3832
71062SOL     OW31177  10.769   0.456   5.219 -0.0026 -0.0103  0.1048
71062SOL    HW131178  10.801   0.493   5.301  1.5333 -0.6290 -0.1846
71062SOL    HW231179  10.686   0.501   5.203 -0.4769 -0.0776  2.1313
71063SOL     OW31180  14.114  11.834   9.876  0.1744 -0.5874 -0.0916
71063SOL    HW131181  14.056  11.801   9.807  1.4852 -2.0950 -0.5209
71063SOL    HW231182  14.094  11.780   9.952 -0.0028 -0.1317  0.1871
71064SOL     OW31183  10.575  13.800   3.506  0.3253  0.2168  0.4485
71064SOL    HW131184  10.594  13.886   3.543 -1.1827  1.2095 -0.9546
71064SOL    HW231185  10.655  13.776   3.460  0.0991  1.8706 -0.9112
71065SOL     OW31186  13.235  11.897   4.314 -0.8619 -0.6069 -0.8914
71065SOL    HW131187  13.329  11.908   4.301 -1.1162  1.8047 -1.1236
71065SOL    HW231188  13.227  11.841   4.391  0.7960  1.4617  0.8708
71066SOL     OW31189  12.202   3.454   7.835 -0.2110 -0.0170  0.2504
71066SOL    HW131190  12.293   3.434   7.855 -0.1393  0.6559  0.6493
71066SOL    HW231191  12.188   3.542   7.871 -0.5587  0.5694 -1.2580
71067SOL     OW31192  12.728   7.769   9.277 -0.2679 -0.1087 -0.0606
71067SOL    HW131193  12.733   7.705   9.206 -0.2000 -0.9176  0.6657
71067SOL    HW231194  12.662   7.734   9.337 -0.2449  0.5087  0.3367
71068SOL     OW31195  11.878   0.960  12.649  0.1490  0.0342  0.2309
71068SOL    HW131196  11.858   0.872  12.681 -1.8169  0.0844 -0.7416
71068SOL    HW231197  11.961   0.950  12.602  0.1658 -1.1975  0.4881
71069SOL     OW31198   9.037   9.275   2.058 -0.1551 -0.2680  0.0159
71069SOL    HW131199   9.034   9.363   2.095  0.7898  0.0338 -0.6104
71069SOL    HW231200   9.129   9.261   2.035 -0.2819 -1.4386  0.1516
71070SOL     OW31201   9.411   2.860   5.004  0.1434 -0.3840  0.3321
71070SOL    HW131202   9.374   2.941   5.040 -0.3565 -0.1630 -0.6404
71070SOL    HW231203   9.340   2.823   4.950  0.4212 -1.3844  0.6297
71071SOL     OW31204   4.431   1.841   3.610 -0.4662 -0.5676  0.2503
71071SOL    HW131205   4.398   1.918   3.565 -0.2602 -0.9569 -0.5952
71071SOL    HW231206   4.418   1.859   3.703 -1.7887 -0.1457 -0.0010
71072SOL     OW31207  12.031   4.528  11.436 -0.1814  0.6974 -0.4997
71072SOL    HW131208  12.124   4.546  11.422  0.5920 -0.6504  2.2319
71072SOL    HW231209  12.005   4.589  11.505 -1.0778  0.3972 -0.5541
71073SOL     OW31210  13.415  10.219   1.821  0.4780 -0.1042  0.6283
71073SOL    HW131211  13.414  10.292   1.759 -2.5002 -1.4093 -1.0538
71073SOL    HW231212  13.481  10.159   1.787  0.6066  0.2942  0.1699
71074SOL     OW31213  10.383   4.679   9.134 -0.2538  0.9885  0.1764
71074SOL    HW131214  10.324   4.640   9.198 -0.0138  1.2379  0.5504
71074SOL    HW231215  10.390   4.771   9.160  0.0534  1.0313 -0.0471
71075SOL     OW31216   0.233   5.413  10.167 -0.3933 -0.2998 -0.0550
71075SOL    HW131217   0.240   5.469  10.244 -1.2982  0.2063 -0.3251
71075SOL    HW231218   0.143   5.425  10.136  0.4125  0.8759 -2.2012
71076SOL     OW31219   7.246   4.111  11.553 -0.4630 -0.0739 -0.5319
71076SOL    HW131220   7.257   4.099  11.459 -0.8053  0.4155 -0.6345
71076SOL    HW231221   7.199   4.194  11.562 -0.7899 -0.3163  0.0518
71077SOL     OW31222   5.082  12.482   9.071 -0.3633  0.2482  0.8893
71077SOL    HW131223   5.052  12.432   8.996  1.6292  0.5881 -0.1932
71077SOL    HW231224   5.017  12.552   9.081 -0.6710  0.1781 -0.4930
71078SOL     OW31225  11.357   8.831   9.252 -0.4692 -0.2480  0.4196
71078SOL    HW131226  11.404   8.853   9.333 -1.6911  1.2958  0.7636
71078SOL    HW231227  11.426   8.806   9.190  0.9424  2.4068  0.7460
71079SOL     OW31228   6.136  12.400   1.848 -0.5074  0.1637 -0.0000
71079SOL    HW131229   6.172  12.329   1.902  0.4661 -0.4352 -1.3822
71079SOL    HW231230   6.119  12.360   1.763  0.0699  1.5725 -0.8209
71080SOL     OW31231   5.739   7.464   7.307  0.3699 -0.1551  0.7560
71080SOL    HW131232   5.690   7.390   7.273 -0.1173  0.3298  0.3906
71080SOL    HW231233   5.767   7.513   7.229 -2.5403  2.1298  0.9774
71081SOL     OW31234   0.708   2.270   1.645  0.4934 -0.1367  0.2820
71081SOL    HW131235   0.798   2.273   1.613  0.5432 -0.8402  0.3551
71081SOL    HW231236   0.684   2.362   1.657  1.5639  0.0306  1.2858
71082SOL     OW31237   6.790   4.738   3.749 -0.1030  0.4547 -0.0988
71082SOL    HW131238   6.763   4.829   3.756 -0.2755  0.4157 -0.2619
71082SOL    HW231239   6.827   4.717   3.834  0.4985  0.8603 -0.2533
71083SOL     OW31240   3.422   9.084   4.077  0.5040 -0.5304  0.0694
71083SOL    HW131241   3.462   9.000   4.100 -0.8040 -0.7006  1.9656
71083SOL    HW231242   3.439   9.140   4.153 -1.2180 -0.0434  0.1289
71084SOL     OW31243   8.390  12.893  13.234 -0.3861 -0.3500  0.6174
71084SOL    HW131244   8.306  12.865  13.270 -0.8276  0.5826  0.3338
71084SOL    HW231245   8.379  12.986  13.215  0.1630 -0.5727 -0.9742
71085SOL     OW31246   1.938  11.124   6.039  0.0630 -1.0479  0.5360
71085SOL    HW131247   1.861  11.095   6.089 -0.5924 -0.1074  0.1159
71085SOL    HW231248   1.996  11.162   6.104 -0.5828 -0.2389  0.6514
71086SOL     OW31249   1.464   6.064   9.044  0.0851 -0.6810  0.1661
71086SOL    HW131250   1.403   6.137   9.048  0.0079 -0.7694  0.8998
71086SOL    HW231251   1.479   6.049   8.951  1.4787  1.4024 -0.0166
71087SOL     OW31252   5.541   8.496   1.059 -0.6923  0.1109  0.1841
71087SOL    HW131253   5.477   8.424   1.056 -0.1542 -0.4303  1.4100
71087SOL    HW231254   5.623   8.455   1.085  0.0688  0.8866 -0.8994
71088SOL     OW31255   4.820  12.702  10.364 -0.1407  0.6813  0.7276
71088SOL    HW131256   4.843  12.679  10.454  0.7609  0.8672  0.5520
71088SOL    HW231257   4.878  12.649  10.310  1.6364  2.8871  0.3196
71089SOL     OW31258   1.124  11.990  13.057 -0.0486  0.9238  0.6263
71089SOL    HW131259   1.148  11.942  13.136 -0.4125  1.8354  1.3170
71089SOL    HW231260   1.042  12.034  13.080 -1.1844 -0.3113 -0.9140
71090SOL     OW31261   6.167   7.394  12.097  0.4963  0.0516 -0.4841
71090SOL    HW131262   6.179   7.459  12.029 -4.8045 -0.9832 -2.9165
71090SOL    HW231263   6.132   7.442  12.172 -0.7071  0.4080 -1.2561
71091SOL     OW31264   1.951  10.424   9.043  0.6410 -0.6107 -0.9631
71091SOL    HW131265   1.865  10.399   9.074  0.6995 -1.6497 -1.5991
71091SOL    HW231266   2.011  10.364   9.087  1.1898  0.8407  0.3752
71092SOL     OW31267   1.141   3.776   1.566 -0.5468  0.8931 -0.0568
71092SOL    HW131268   1.205   3.749   1.500 -0.8193  2.4119 -0.9924
71092SOL    HW231269   1.187   3.842   1.618 -1.1622  1.6065 -0.3992
71093SOL     OW31270  13.870   3.719   5.692  0.4629  0.0736  0.0346
71093SOL    HW131271  13.814   3.775   5.639  0.5656  0.8806  0.7408
71093SOL    HW231272  13.908   3.657   5.630  3.5992  3.2969 -1.6951
71094SOL     OW31273  13.649  13.155   5.181 -0.2734 -0.3899  0.8005
71094SOL    HW131274  13.710  13.085   5.157  0.4295 -0.2448  2.1042
71094SOL    HW231275  13.692  13.236   5.152  0.5742 -0.2145  2.4631
71095SOL     OW31276   3.114  10.285  13.658 -0.4853  0.4830  0.4241
71095SOL    HW131277   3.178  10.341  13.702 -0.0158  0.1989  0.1123
71095SOL    HW231278   3.081  10.338  13.585 -0.4875  0.5751  0.4925
71096SOL     OW31279   8.013   4.229   8.636 -0.3346  0.2379  0.2461
71096SOL    HW131280   8.025   4.153   8.694 -2.4486 -1.1153 -0.9398
71096SOL    HW231281   8.102   4.256   8.614  0.5977 -2.9693 -0.5498
71097SOL     OW31282   7.079   9.457   2.210 -0.9956 -0.0204 -0.6323
71097SOL    HW131283   7.152   9.518   2.202 -0.4354 -0.7122 -1.0439
71097SOL    HW231284   7.009   9.507   2.252 -0.7966  1.1021 -1.5666
71098SOL     OW31285   3.860   8.540  13.701 -0.1378 -0.1959  0.5600
71098SOL    HW131286   3.955   8.525  13.706 -0.1656 -0.5958  0.0589
71098SOL    HW231287   3.851   8.635  13.690  0.3330 -0.3580 -1.6917
71099SOL     OW31288  13.427   2.172   8.359 -0.4507 -0.0341  0.2505
71099SOL    HW131289  13.390   2.193   8.444 -1.6369 -1.5633  0.1483
71099SOL    HW231290  13.492   2.104   8.378 -1.3707 -1.0522 -0.1291
71100SOL     OW31291   6.893   3.490   2.273  0.4735  0.0453  0.1892
71100SOL    HW131292   6.864   3.417   2.218 -0.1773  1.5322 -1.5480
71100SOL    HW231293   6.825   3.497   2.341 -1.0511  0.7891 -1.3253
71101SOL     OW31294   3.579  11.755   5.002 -0.3618 -0.1297 -0.4553
71101SOL    HW131295   3.578  11.850   5.018  1.1514 -0.1472 -0.0551
71101SOL    HW231296   3.643  11.721   5.064  0.5059 -1.1638 -1.8527
71102SOL     OW31297   8.911   7.744   1.282  0.2086 -0.1578  0.0239
71102SOL    HW131298   8.989   7.693   1.305  1.1017  1.1365 -0.0449
71102SOL    HW231299   8.924   7.766   1.189  0.3787  1.0812  0.3233
71103SOL     OW31300  12.090   6.359   6.143 -0.4036  0.3101  0.0173
71103SOL    HW131301  12.159   6.423   6.127  0.5409 -0.7873 -0.5141
71103SOL    HW231302  12.037   6.396   6.213  1.3078  0.7610  1.1113
71104SOL     OW31303   2.262   2.896   6.489  0.1871 -0.4188  0.2179
71104SOL    HW131304   2.330   2.865   6.548 -0.9430 -0.5937  1.4915
71104SOL    HW231305   2.216   2.817   6.460 -0.3655 -0.2129  0.5127
71105SOL     OW31306  12.525   3.032  11.613 -0.3566  0.0545 -0.4249
71105SOL    HW131307  12.620   3.016  11.608  0.1111  1.8469  1.3715
71105SOL    HW231308  12.489   2.988  11.536  1.6835 -2.3130 -0.1327
71106SOL     OW31309   2.109   5.465   0.702 -0.4903 -0.8098  0.0687
71106SOL    HW131310   2.145   5.551   0.726  0.1805 -0.7716 -1.0083
71106SOL    HW231311   2.016   5.473   0.721 -0.4179  0.1109  0.1168
71107SOL     OW31312   9.352   4.036   2.106  0.0467  0.0987  0.1714
71107SOL    HW131313   9.343   4.122   2.146 -0.5881  0.0783  0.0771
71107SOL    HW231314   9.271   3.991   2.126 -0.3403  0.1278 -1.2017
71108SOL     OW31315  14.156   5.033   5.765 -0.2869  0.2902 -0.1761
71108SOL    HW131316  14.064   5.054   5.782 -0.1580 -0.1466  1.2094
71108SOL    HW231317  14.190   5.111   5.722 -1.1980  0.6179 -0.3405
71109SOL     OW31318   4.709   0.673  12.574  0.0313  0.1033  0.3039
71109SOL    HW131319   4.618   0.644  12.564  0.7868 -2.4869  0.4403
71109SOL    HW231320   4.760   0.615  12.518  1.8525 -0.1238  2.0809
71110SOL     OW31321   2.919  10.159  13.813  0.8437  0.7329  0.4148
71110SOL    HW131322   2.988  10.202  13.763 -0.0994 -2.1783 -3.9126
71110SOL    HW231323   2.838  10.192  13.773 -0.1287  0.2448  1.9108
71111SOL     OW31324   6.906   3.024  13.569  0.2464 -0.2433  0.6275
71111SOL    HW131325   6.989   3.069  13.558 -0.3428  0.9153  0.7858
71111SOL    HW231326   6.887   2.986  13.483 -1.3342  3.5373 -0.9331
71112SOL     OW31327   0.780   4.900  11.287 -0.1375  0.0120  0.5625
71112SOL    HW131328   0.856   4.848  11.258 -0.1878  0.0969  0.2729
71112SOL    HW231329   0.725   4.908  11.208  0.0526  0.8215  0.5008
71113SOL     OW31330  12.943  10.728   6.914 -0.2684 -0.1711  0.7754
71113SOL    HW131331  12.955  10.815   6.951  1.7311 -0.1808  0.2521
71113SOL    HW231332  12.911  10.743   6.825 -0.8864 -0.0112  1.0222
71114SOL     OW31333   5.420   2.011   1.146  0.1531 -0.2878 -0.3897
71114SOL    HW131334   5.475   1.933   1.154 -1.0304 -1.3797 -2.1351
71114SOL    HW231335   5.401   2.018   1.052 -2.0108  0.4916  0.0363
71115SOL     OW31336  12.037   4.036   8.534  0.2788 -0.2344  0.1988
71115SOL    HW131337  11.969   3.974   8.562 -1.0184  0.0759 -2.0455
71115SOL    HW231338  12.119   3.987   8.541 -0.4546 -1.4356  0.6469
71116SOL     OW31339  10.633   7.723   9.467 -0.2305  0.4467 -0.3441
71116SOL    HW131340  10.562   7.730   9.404 -0.0284  1.3617 -0.4789
71116SOL    HW231341  10.615   7.791   9.531 -0.3749 -0.4035  0.5499
71117SOL     OW31342   0.417  10.079   1.172 -0.2504  0.4574 -0.2633
71117SOL    HW131343   0.503  10.118   1.186  0.3502 -1.6007  2.6446
71117SOL    HW231344   0.435   9.988   1.150 -1.6847 -0.0430  0.4941
71118SOL     OW31345   2.455   1.009   7.616 -0.0844  0.2374  0.0385
71118SOL    HW131346   2.455   1.000   7.712  1.5694  0.8716  0.1290
71118SOL    HW231347   2.546   1.000   7.591 -0.2844  1.5942 -1.3399
71119SOL     OW31348   5.006   2.490   5.341 -0.0112  0.0344  0.3370
71119SOL    HW131349   4.935   2.452   5.393  1.2837 -2.5862  0.3099
71119SOL    HW231350   5.009   2.437   5.261  2.0209  0.0072  0.3896
71120SOL     OW31351  10.245   1.633   0.285 -0.0071 -0.0840  0.1777
71120SOL    HW131352  10.271   1.606   0.373  1.1376 -0.3816 -0.2357
71120SOL    HW231353  10.260   1.728   0.283 -1.1751  0.1378  0.6613
71121SOL     OW31354   6.480   3.925   4.384 -0.0428 -0.4070  0.3616
71121SOL    HW131355   6.388   3.928   4.412  0.2257  2.3290  1.2153
71121SOL    HW231356   6.514   4.012   4.403  2.2761 -0.7730 -1.6426
71122SOL     OW31357   5.666   5.092   7.409  0.8251  0.2987  0.1487
71122SOL    HW131358   5.713   5.107   7.491  0.9472  0.1216  0.1116
71122SOL    HW231359   5.670   4.997   7.396 -0.9406  0.0756  0.9751
71123SOL     OW31360   6.501   5.503  11.923  0.2171 -0.3840  0.1796
71123SOL    HW131361   6.487   5.585  11.970  1.0673 -1.3906  2.3146
71123SOL    HW231362   6.569   5.459  11.972 -0.2181 -2.3933 -0.9198
71124SOL     OW31363   5.308   6.494   7.209  0.3457 -0.3088  0.0744
71124SOL    HW131364   5.301   6.567   7.147  3.0719  0.7861  0.8965
71124SOL    HW231365   5.312   6.416   7.154 -1.2686  0.2459 -0.8924
71125SOL     OW31366  13.205   1.712  10.248 -0.4907 -0.6578 -0.4289
71125SOL    HW131367  13.280   1.737  10.195 -0.5777 -0.4765 -0.4687
71125SOL    HW231368  13.200   1.617  10.240  1.2530 -1.0086  1.5773
71126SOL     OW31369   6.982  13.259   0.921  0.1477  0.1656  0.3159
71126SOL    HW131370   6.918  13.202   0.877  1.3131  0.0204 -1.2760
71126SOL    HW231371   7.061  13.206   0.929 -0.2166 -0.0917  3.4248
71127SOL     OW31372  12.337   3.115   6.104  0.1548  0.3081 -0.4560
71127SOL    HW131373  12.377   3.157   6.180 -1.0310 -0.0782  0.4223
71127SOL    HW231374  12.363   3.169   6.030  0.3969  1.3617  0.3705
71128SOL     OW31375   6.800   6.269   7.540  0.5617 -0.0236  0.0617
71128SOL    HW131376   6.871   6.262   7.604 -1.0176  3.0240  2.4030
71128SOL    HW231377   6.822   6.346   7.487  0.1081 -0.4413 -0.7584
71129SOL     OW31378   5.318   8.302  14.119  0.0315  0.3418  0.0255
71129SOL    HW131379   5.337   8.360  14.193  0.0121  0.1065  0.2183
71129SOL    HW231380   5.403   8.262  14.098 -0.0450  0.0688  0.2177
71130SOL     OW31381  12.513  11.734   7.817 -0.1380  0.0396  0.3952
71130SOL    HW131382  12.459  11.695   7.885 -0.8487 -1.3311 -0.8846
71130SOL    HW231383  12.463  11.720   7.736  0.0966  2.6448 -0.3084
71131SOL     OW31384   7.009   7.496  10.026  0.1125 -0.4162 -0.2418
71131SOL    HW131385   6.991   7.404  10.008  0.9273 -0.4785 -0.7856
71131SOL    HW231386   6.995   7.541   9.943  0.3426 -0.1459 -0.1395
71132SOL     OW31387   6.985  10.883   4.712  0.1792 -0.0902 -0.4883
71132SOL    HW131388   6.978  10.794   4.748  0.7522 -0.3925 -1.1061
71132SOL    HW231389   7.034  10.932   4.778 -0.4560 -0.1283  0.0231
71133SOL     OW31390  10.942   4.552  11.246 -0.4623  0.1254 -0.2710
71133SOL    HW131391  10.887   4.624  11.217  0.8963  1.3312  0.0532
71133SOL    HW231392  10.881   4.480  11.262 -1.6439  0.4638 -2.7281
71134SOL     OW31393   4.709  13.369   3.416 -0.2594  0.1599  0.7783
71134SOL    HW131394   4.782  13.334   3.364 -1.9400 -0.3973 -1.3378
71134SOL    HW231395   4.691  13.455   3.377 -0.9810  0.1258  1.0209
71135SOL     OW31396   0.198   5.928   8.380  0.6676  0.1446 -0.0132
71135SOL    HW131397   0.107   5.912   8.353  0.1531  0.5918  1.3840
71135SOL    HW231398   0.248   5.922   8.298 -0.3306 -2.0322 -0.5551
71136SOL     OW31399  13.377   6.631   2.423  0.2399 -0.2262 -0.4175
71136SOL    HW131400  13.371   6.683   2.344  1.2655  0.8294  0.1788
71136SOL    HW231401  13.348   6.543   2.397 -1.9242  0.6931 -1.3442
71137SOL     OW31402   0.450   3.329   7.068 -0.5405 -0.6804 -0.1040
71137SOL    HW131403   0.363   3.290   7.071 -0.0927 -1.6824  0.0329
71137SOL    HW231404   0.470   3.350   7.160 -0.8326  0.0113 -0.1911
71138SOL     OW31405   1.099   8.710   4.687  0.6229  0.1711  0.0339
71138SOL    HW131406   1.091   8.670   4.773  1.1035 -1.1548 -0.5098
71138SOL    HW231407   1.034   8.666   4.633 -0.8319  2.1406  0.0715
71139SOL     OW31408   8.606   9.602  10.833  0.3770  0.4580 -0.4820
71139SOL    HW131409   8.602   9.688  10.791  0.1080 -0.3769 -2.2509
71139SOL    HW231410   8.536   9.604  10.898 -0.4128  1.1853 -1.3235
71140SOL     OW31411   1.516   1.334   5.452  0.2501 -0.4087 -0.0960
71140SOL    HW131412   1.462   1.387   5.511  2.3763  2.4803 -0.4751
71140SOL    HW231413   1.472   1.340   5.367  1.1998  2.3662 -0.5302
71141SOL     OW31414  10.934  13.535   3.503 -0.3105 -0.1025  0.2121
71141SOL    HW131415  10.992  13.518   3.429 -1.2867 -0.9243 -0.3956
71141SOL    HW231416  10.992  13.569   3.572  0.5225  1.2501 -1.1004
71142SOL     OW31417   6.502   2.024   9.802  0.4015  0.1206  0.1217
71142SOL    HW131418   6.494   2.086   9.875  1.4429  0.6416 -0.1863
71142SOL    HW231419   6.411   2.005   9.777  0.0485  1.1277  0.5579
71143SOL     OW31420   5.040   8.814  14.083 -0.0033  0.3371  0.0031
71143SOL    HW131421   5.032   8.909  14.085  1.1237  0.4698 -0.6648
71143SOL    HW231422   5.085   8.792  14.165 -1.4269  0.2250  0.7826
71144SOL     OW31423  10.859   5.184   6.378 -0.3810 -0.0840  0.0050
71144SOL    HW131424  10.932   5.187   6.440 -0.6682 -0.0130  0.3400
71144SOL    HW231425  10.833   5.275   6.367  1.8138  0.3538 -2.8007
71145SOL     OW31426  13.149  12.872   6.743  0.4370 -0.0512 -0.4734
71145SOL    HW131427  13.142  12.869   6.648 -0.0521 -1.7985 -0.4092
71145SOL    HW231428  13.151  12.966   6.764 -1.1870  0.3920 -2.0787
71146SOL     OW31429   0.718   9.485   4.581 -0.7826  0.0028  0.6287
71146SOL    HW131430   0.669   9.422   4.529  0.0378  0.2700 -0.5125
71146SOL    HW231431   0.692   9.570   4.546  2.7029  0.1176 -2.2504
71147SOL     OW31432   7.056  10.384   9.147 -0.2681 -0.5061 -0.5599
71147SOL    HW131433   7.030  10.293   9.157 -0.3980 -0.5012 -0.8393
71147SOL    HW231434   7.017  10.411   9.063 -1.0669  0.0809 -0.0234
71148SOL     OW31435   3.124  13.987   7.531  0.2356 -0.2192  0.6032
71148SOL    HW131436   3.167  14.071   7.547 -0.6362  0.1246  1.2652
71148SOL    HW231437   3.043  14.010   7.485  0.4785 -0.7979 -0.1369
71149SOL     OW31438  12.818  11.545   1.006  0.2710 -0.4201  0.1851
71149SOL    HW131439  12.878  11.620   1.001 -0.2815 -0.0145 -0.4384
71149SOL    HW231440  12.845  11.500   1.086  1.2050 -0.0705  0.0896
71150SOL     OW31441   1.662  11.199   1.692 -0.3723  0.2902  0.3537
71150SOL    HW131442   1.651  11.256   1.768  2.4160 -0.3167  1.3381
71150SOL    HW231443   1.756  11.180   1.690 -0.9366 -3.0800 -0.7834
71151SOL     OW31444  12.062  12.488   9.003  0.3763 -0.0741  0.3680
71151SOL    HW131445  12.116  12.564   9.021  1.5903 -0.5419 -1.0627
71151SOL    HW231446  12.054  12.443   9.087  1.5648  0.4257  0.7681
71152SOL     OW31447   7.815   7.077  12.674  0.2611  0.2846 -0.2705
71152SOL    HW131448   7.894   7.125  12.649  2.6938 -2.5382  1.2175
71152SOL    HW231449   7.797   7.107  12.764 -0.6183  1.1418 -0.7125
71153SOL     OW31450   0.432   2.293  11.165 -0.2606  0.3487  0.1760
71153SOL    HW131451   0.446   2.211  11.213  0.7184  0.2741 -0.2175
71153SOL    HW231452   0.362   2.273  11.103  2.3135 -1.3389 -2.4422
71154SOL     OW31453   6.188  11.990  12.781 -0.4643 -0.0135  0.0255
71154SOL    HW131454   6.165  12.026  12.695 -3.8712  1.3547  1.3741
71154SOL    HW231455   6.143  11.906  12.784  2.7748 -1.9882 -0.8328
71155SOL     OW31456   9.710   1.078  12.723  0.0734  0.2300  0.0578
71155SOL    HW131457   9.671   1.140  12.784  2.2178  0.7315  0.9847
71155SOL    HW231458   9.790   1.120  12.692  0.6626 -1.3263 -0.6824
71156SOL     OW31459  12.293   4.561  12.501 -0.1800 -0.4582  0.4184
71156SOL    HW131460  12.285   4.468  12.477 -0.3251 -0.8425  1.8954
71156SOL    HW231461  12.210   4.600  12.472  0.2993 -0.5365 -1.1710
71157SOL     OW31462  13.123   2.800   3.565  0.0281 -0.2153  0.1147
71157SOL    HW131463  13.124   2.709   3.594  1.6338 -0.7893 -1.5230
71157SOL    HW231464  13.215   2.822   3.549 -0.0823  2.3645  2.2450
71158SOL     OW31465   0.824  12.594   3.062  0.6176 -0.2021  0.1159
71158SOL    HW131466   0.801  12.649   2.988 -1.4623 -1.9517 -0.6524
71158SOL    HW231467   0.913  12.621   3.087  0.5093  1.9064 -1.5900
71159SOL     OW31468  10.368   5.003   5.342 -0.1566  0.1992 -0.1597
71159SOL    HW131469  10.335   5.059   5.272  0.9470 -0.1328 -0.9761
71159SOL    HW231470  10.464   5.009   5.334  0.0393  1.1541  2.1180
71160SOL     OW31471   5.508   1.233  13.342  0.1629 -0.2584 -0.0889
71160SOL    HW131472   5.506   1.264  13.251  0.5024 -0.6207 -0.2273
71160SOL    HW231473   5.547   1.306  13.391  0.2662 -0.1761 -0.2879
71161SOL     OW31474  10.246   5.814  10.778 -0.1247 -0.3143  0.6494
71161SOL    HW131475  10.204   5.800  10.693  0.3351  1.9715 -0.0121
71161SOL    HW231476  10.262   5.725  10.811  0.7039 -1.3107 -2.1467
71162SOL     OW31477   2.098  13.856  11.100  0.2084 -0.1427 -0.0006
71162SOL    HW131478   2.192  13.854  11.081  1.0511 -1.3479  3.5821
71162SOL    HW231479   2.061  13.789  11.044  1.7210 -0.5930 -0.5207
71163SOL     OW31480   0.945  13.801  10.563  0.3515  0.1756 -0.2114
71163SOL    HW131481   0.979  13.853  10.490 -1.2075 -1.4983 -2.2408
71163SOL    HW231482   1.020  13.750  10.593  0.9599  0.7115 -0.7692
71164SOL     OW31483   1.773  12.653   0.117  0.3974 -0.1775  0.2203
71164SOL    HW131484   1.810  12.725   0.167  0.9174 -0.9797  1.0283
71164SOL    HW231485   1.785  12.576   0.173 -1.2092 -0.7086 -0.1128
71165SOL     OW31486   1.526   9.640  14.102  0.4418 -0.0761  0.0359
71165SOL    HW131487   1.500   9.711  14.043  0.0892 -1.1545 -1.1665
71165SOL    HW231488   1.588   9.680  14.162  0.5696  1.1540 -0.8649
71166SOL     OW31489   9.230   9.181   4.568  0.9694 -0.1184  0.0415
71166SOL    HW131490   9.221   9.216   4.479  1.4618  1.1663  0.4721
71166SOL    HW231491   9.142   9.150   4.591  1.0107 -1.2081 -1.1773
71167SOL     OW31492   1.820   1.693   2.303 -0.0277 -0.8493 -0.7684
71167SOL    HW131493   1.745   1.669   2.248 -1.1055 -1.2704  0.8099
71167SOL    HW231494   1.893   1.641   2.269 -0.0695  0.5538 -3.1878
71168SOL     OW31495  11.870   4.316  10.973  0.0207  0.2121 -0.0572
71168SOL    HW131496  11.925   4.365  10.911 -0.7117  0.6749 -0.3540
71168SOL    HW231497  11.905   4.340  11.059 -2.3977  4.0784  0.0803
71169SOL     OW31498   8.984  13.843   5.841  0.8622  0.2594 -0.1026
71169SOL    HW131499   8.981  13.804   5.929 -0.6912  1.2655  0.3226
71169SOL    HW231500   8.942  13.777   5.785  1.6801 -0.2990 -0.0777
71170SOL     OW31501  12.362   1.981   1.814 -0.1814 -0.1912 -0.2635
71170SOL    HW131502  12.329   1.907   1.866 -1.0107 -0.4164 -1.0958
71170SOL    HW231503  12.312   1.977   1.732 -1.8510  2.6263  0.5094
71171SOL     OW31504   7.938  11.826   8.317 -0.3451  0.0858 -0.9187
71171SOL    HW131505   7.925  11.818   8.223 -1.1405 -0.1186 -0.7901
71171SOL    HW231506   7.864  11.878   8.348 -0.4256 -0.3728 -0.3146
71172SOL     OW31507   8.672   5.458   4.186  0.5814 -0.8751 -0.6577
71172SOL    HW131508   8.704   5.517   4.117  0.7006 -1.4071 -1.0635
71172SOL    HW231509   8.740   5.460   4.253 -0.7291  1.7655  0.7555
71173SOL     OW31510   8.058   4.961  10.004 -0.3341 -0.1315  0.3471
71173SOL    HW131511   8.076   4.951  10.098 -0.8914  0.5120  0.5260
71173SOL    HW231512   8.059   5.056   9.989  1.4154 -0.2671 -0.6363
71174SOL     OW31513   3.486  10.604   7.692  0.3935  0.4280 -0.0420
71174SOL    HW131514   3.523  10.650   7.767  0.2228  0.7593 -0.1617
71174SOL    HW231515   3.436  10.532   7.731 -0.2431  0.9905  0.1948
71175SOL     OW31516   1.405  12.993   9.390  0.2110  0.2272 -0.5888
71175SOL    HW131517   1.410  12.898   9.391 -1.4195  0.1115  0.3326
71175SOL    HW231518   1.392  13.015   9.297 -2.2247 -0.7012 -0.5490
71176SOL     OW31519   5.835   9.701   5.073 -0.0121 -0.3374 -0.1804
71176SOL    HW131520   5.865   9.764   5.008 -1.1453  0.4331  0.0205
71176SOL    HW231521   5.916   9.663   5.108  0.8051  1.9924  0.6781
71177SOL     OW31522  10.166   6.487  13.066 -0.3139  0.0129 -0.3447
71177SOL    HW131523  10.222   6.421  13.106 -0.8942  0.6331  1.5699
71177SOL    HW231524  10.221   6.528  13.000  0.5287 -1.3542 -0.5274
71178SOL     OW31525   2.502   4.615   2.031  0.5912  0.3134 -0.1301
71178SOL    HW131526   2.575   4.659   1.987  1.3164 -0.5841  0.1565
71178SOL    HW231527   2.505   4.525   1.999  1.1217 -0.3623  1.6720
71179SOL     OW31528  13.204   4.580   9.530 -0.0509 -0.0599 -0.4940
71179SOL    HW131529  13.235   4.633   9.457 -0.2999 -1.1364 -1.4173
71179SOL    HW231530  13.274   4.586   9.595  0.0573  1.1334 -0.7016
71180SOL     OW31531   6.267   5.122   6.672 -0.5190 -0.1749  0.0970
71180SOL    HW131532   6.243   5.158   6.757  1.1405  1.1092  0.0797
71180SOL    HW231533   6.198   5.152   6.612 -1.9743 -1.5204  1.0235
71181SOL     OW31534  10.781  10.433  13.235  0.2007 -0.0011 -0.4005
71181SOL    HW131535  10.809  10.524  13.231  1.6960 -0.4810 -2.3064
71181SOL    HW231536  10.790  10.409  13.327 -2.8538  2.4806  0.6968
71182SOL     OW31537  11.808   3.633   1.393  0.0442  0.0778 -0.1595
71182SOL    HW131538  11.863   3.698   1.436  2.3995 -1.0124 -1.3151
71182SOL    HW231539  11.836   3.634   1.302 -2.2341 -0.2324 -0.9197
71183SOL     OW31540   9.953  13.115   7.042 -0.0523 -0.0599 -0.2963
71183SOL    HW131541   9.902  13.130   6.963 -0.4482  0.2442  0.0109
71183SOL    HW231542  10.015  13.188   7.045 -1.1845  0.9257  0.5692
71184SOL     OW31543   8.068   7.854   6.174  0.6555  0.4079 -0.4545
71184SOL    HW131544   8.105   7.934   6.212 -1.2080  1.1203 -0.0388
71184SOL    HW231545   8.018   7.883   6.098  1.6528 -0.6438 -1.5712
71185SOL     OW31546   7.178   2.059   4.196 -0.4398 -0.3889  0.2749
71185SOL    HW131547   7.129   1.977   4.204  0.2669 -0.8812 -0.3594
71185SOL    HW231548   7.112   2.124   4.171 -0.5869 -1.2859 -1.8203
71186SOL     OW31549   8.074  11.510  10.071 -0.3242  0.2123 -0.4412
71186SOL    HW131550   8.049  11.603  10.077 -0.3880  0.1723 -0.0756
71186SOL    HW231551   8.088  11.495   9.978  0.7562  0.8807 -0.4070
71187SOL     OW31552  12.978   5.451   0.019 -0.6622 -0.2363 -0.2719
71187SOL    HW131553  12.926   5.372   0.031  0.1919 -0.8078 -0.2538
71187SOL    HW231554  12.922   5.508  -0.034 -0.9248 -1.2303 -1.1038
71188SOL     OW31555  10.646  13.452   2.934  0.1348  0.3304  0.2465
71188SOL    HW131556  10.609  13.509   2.866  1.8954  1.2361  0.0022
71188SOL    HW231557  10.618  13.491   3.016 -1.3391 -0.3198  0.0948
71189SOL     OW31558   2.896  10.524  10.300 -0.2279  0.1962 -0.2262
71189SOL    HW131559   2.970  10.585  10.300  1.8175 -2.1101 -1.5985
71189SOL    HW231560   2.919  10.458  10.366 -0.4124 -1.2069 -1.5065
71190SOL     OW31561   0.227   2.813  12.542 -0.0507  0.3806  0.1518
71190SOL    HW131562   0.312   2.825  12.584 -0.3679 -0.1033  0.9478
71190SOL    HW231563   0.248   2.775  12.457  0.5441  0.5292  0.2239
71191SOL     OW31564  12.662  13.934   8.278 -0.2112 -0.0301  0.0332
71191SOL    HW131565  12.593  13.895   8.331  0.1522 -0.2025  0.3862
71191SOL    HW231566  12.674  13.874   8.204 -1.7618  0.9625 -1.0885
71192SOL     OW31567   7.171  10.248  12.369 -0.5285  0.3048 -0.1469
71192SOL    HW131568   7.237  10.270  12.434 -0.2853  2.1777 -0.9534
71192SOL    HW231569   7.121  10.177  12.408  0.0205  0.9243  1.7816
71193SOL     OW31570   7.496   2.262   5.847  0.1859  0.0544  0.2729
71193SOL    HW131571   7.437   2.201   5.803  1.3972 -0.2464 -1.0184
71193SOL    HW231572   7.489   2.240   5.940 -0.2329 -1.3185 -0.0633
71194SOL     OW31573   2.993   3.290   0.084 -0.0435 -0.0798 -0.0972
71194SOL    HW131574   2.920   3.267   0.026 -1.8984 -0.8900  2.3338
71194SOL    HW231575   3.021   3.377   0.056 -1.4937 -0.0472 -1.5726
71195SOL     OW31576   8.525   2.775  11.740 -0.2240 -0.3898  0.3278
71195SOL    HW131577   8.552   2.864  11.763  1.8254 -0.8840  0.0258
71195SOL    HW231578   8.517   2.731  11.824 -1.2255  0.0594  0.4774
71196SOL     OW31579   7.493  11.794  12.870  0.1571 -0.5594  0.5131
71196SOL    HW131580   7.571  11.826  12.825 -1.0043  0.1683 -1.0596
71196SOL    HW231581   7.420  11.821  12.815 -1.2513 -0.9690  2.0770
71197SOL     OW31582   1.189  13.398   4.530 -0.5188  0.3472  0.2051
71197SOL    HW131583   1.135  13.423   4.455 -1.0308  0.5858  0.6420
71197SOL    HW231584   1.162  13.308   4.550 -0.0061  0.0906 -0.2126
71198SOL     OW31585   0.501  11.193  11.249  0.0559  0.2247 -0.0353
71198SOL    HW131586   0.581  11.192  11.196 -0.1740 -0.4359 -0.3833
71198SOL    HW231587   0.441  11.249  11.200  0.2242  0.5363  0.1101
71199SOL     OW31588   3.484   5.585   8.142 -0.5322  0.0339 -0.1327
71199SOL    HW131589   3.399   5.626   8.160 -0.2295  0.6547 -0.0626
71199SOL    HW231590   3.463   5.500   8.104 -1.1850  0.1620 -0.0666
71200SOL     OW31591   5.097   0.603  11.691 -0.1801  0.3561  0.7565
71200SOL    HW131592   5.050   0.681  11.661 -0.2702 -0.2725 -0.8865
71200SOL    HW231593   5.029   0.537  11.703  0.0817 -0.0681  0.0149
71201SOL     OW31594   8.322   4.248   2.663  0.2834  0.2348 -0.5051
71201SOL    HW131595   8.326   4.176   2.600 -1.1533  0.2742 -0.6581
71201SOL    HW231596   8.364   4.213   2.742  1.0654 -0.2013 -1.0939
71202SOL     OW31597   5.853  12.756  11.805  0.2036  0.0260 -0.1510
71202SOL    HW131598   5.820  12.829  11.753 -1.4487 -0.7717 -0.2633
71202SOL    HW231599   5.818  12.678  11.762  1.7505 -0.8498  0.1020
71203SOL     OW31600  13.893  11.943   7.099 -0.2545  0.3237 -0.0640
71203SOL    HW131601  13.942  11.866   7.069 -0.0833  0.9104 -1.3954
71203SOL    HW231602  13.937  11.971   7.179 -0.0461 -0.6946  0.1880
71204SOL     OW31603  12.008   7.526  10.938 -0.0632  0.0052  0.3574
71204SOL    HW131604  11.930   7.558  10.982  0.4105  3.3897 -0.9626
71204SOL    HW231605  11.974   7.472  10.867 -1.2229  1.0512  0.0739
71205SOL     OW31606   3.536   2.666   2.620  0.2097  0.2345  0.2901
71205SOL    HW131607   3.600   2.726   2.659  0.8412 -1.2315  1.5932
71205SOL    HW231608   3.475   2.724   2.573  0.8933  1.8737  1.3190
71206SOL     OW31609   5.790   6.306   8.280 -0.5847 -0.4874 -0.0002
71206SOL    HW131610   5.698   6.313   8.308 -0.6038 -2.3415  0.5060
71206SOL    HW231611   5.839   6.353   8.348 -1.1378  0.5328 -0.2848
71207SOL     OW31612   0.906  11.798   8.433  0.3867 -0.1054  0.6266
71207SOL    HW131613   0.938  11.885   8.458 -2.4202  1.1051  0.4323
71207SOL    HW231614   0.866  11.763   8.512  0.2180 -0.5800  0.3349
71208SOL     OW31615   6.667   4.725   1.839 -0.2086  0.2364 -0.7115
71208SOL    HW131616   6.720   4.660   1.886 -0.6861  0.4561  0.1637
71208SOL    HW231617   6.731   4.789   1.807  0.2262 -0.4429 -1.2413
71209SOL     OW31618   0.116   2.771   1.849  0.6981 -0.3719 -0.7604
71209SOL    HW131619   0.124   2.693   1.904 -0.3547  0.3107  0.4297
71209SOL    HW231620   0.070   2.741   1.770 -0.4852 -0.8185  0.0680
71210SOL     OW31621  11.848  13.116   1.218  0.2784 -0.1817  0.2186
71210SOL    HW131622  11.777  13.179   1.219 -1.3108 -1.8449 -1.1258
71210SOL    HW231623  11.917  13.159   1.167 -0.2281  0.9619  0.4674
71211SOL     OW31624   6.116  13.262  10.899 -0.2340 -0.5367 -0.2376
71211SOL    HW131625   6.202  13.224  10.882 -0.5839 -1.3085 -0.3401
71211SOL    HW231626   6.062  13.188  10.928 -0.3362  0.2766  1.8480
71212SOL     OW31627   8.799   0.029   0.018 -0.2423  0.1425 -0.0471
71212SOL    HW131628   8.766   0.118   0.033  0.4548 -0.0331  3.3500
71212SOL    HW231629   8.721  -0.025   0.008 -0.7622  0.7417  0.7183
71213SOL     OW31630  13.340   3.969  10.217  0.5946 -0.2061 -0.0144
71213SOL    HW131631  13.347   3.990  10.124 -0.7929  0.2329 -0.0439
71213SOL    HW231632  13.302   4.048  10.256 -0.9845 -1.1933  0.5254
71214SOL     OW31633  12.641  10.471   9.143 -0.2026  0.2228 -0.4768
71214SOL    HW131634  12.663  10.520   9.222 -0.0558 -0.1014 -0.3122
71214SOL    HW231635  12.546  10.468   9.141 -0.2941 -2.6843  1.5596
71215SOL     OW31636   4.957   4.212   2.763  0.0882 -0.7388  0.0232
71215SOL    HW131637   4.898   4.149   2.721 -2.1493 -0.4042  2.3774
71215SOL    HW231638   4.898   4.278   2.799  2.1853  1.2591 -0.0333
71216SOL     OW31639   0.249  10.236   6.428 -0.2013 -0.4197  0.1773
71216SOL    HW131640   0.272  10.239   6.335  0.1666  2.6610  0.2797
71216SOL    HW231641   0.329  10.208   6.472 -0.1902 -1.2722 -0.3682
71217SOL     OW31642   8.568   0.766   7.833 -0.2281 -0.2866 -0.1598
71217SOL    HW131643   8.547   0.673   7.839 -1.0574 -0.2519 -1.9161
71217SOL    HW231644   8.621   0.773   7.754 -2.2823  1.0300 -1.5138
71218SOL     OW31645  10.264  11.640   0.880 -0.4900 -0.2362  0.1728
71218SOL    HW131646  10.281  11.667   0.790 -0.2133 -3.6871 -0.9545
71218SOL    HW231647  10.347  11.656   0.926 -0.4943  1.1339 -0.2638
71219SOL     OW31648   0.129   9.853  13.117 -0.6283 -0.3129 -0.5392
71219SOL    HW131649   0.134   9.818  13.028  0.7188 -2.5998  0.3331
71219SOL    HW231650   0.205   9.815  13.162  0.1261  2.6997  0.9799
71220SOL     OW31651   8.559   5.401  13.551 -0.0417  0.0618 -0.2947
71220SOL    HW131652   8.534   5.493  13.545  2.0592  0.6863 -0.2704
71220SOL    HW231653   8.541   5.366  13.463 -0.3609  0.6343 -0.4610
71221SOL     OW31654   0.676   0.527   3.134  0.0614 -0.0866  0.4710
71221SOL    HW131655   0.607   0.501   3.195 -0.5689  0.6419  0.0976
71221SOL    HW231656   0.667   0.623   3.129  0.4192 -0.0927 -0.3811
71222SOL     OW31657   4.015   0.565  12.855 -0.4258  0.1972  0.0703
71222SOL    HW131658   4.079   0.631  12.829  1.9317 -1.7887  0.4310
71222SOL    HW231659   4.035   0.548  12.947 -2.1342  0.1652  0.4602
71223SOL     OW31660  12.836  12.962   9.068  0.5820  0.7403  0.2601
71223SOL    HW131661  12.809  13.045   9.028  0.8737  1.4923  1.5803
71223SOL    HW231662  12.895  12.986   9.138  2.3246 -0.7290 -0.6194
71224SOL     OW31663  12.886   1.299   7.935 -0.6841 -0.2699 -0.2285
71224SOL    HW131664  12.952   1.309   7.867 -1.5696  0.6737 -0.9821
71224SOL    HW231665  12.936   1.283   8.015  0.6684  3.4601 -0.1616
71225SOL     OW31666   6.639  12.154  11.174 -0.1004  0.6868 -0.3184
71225SOL    HW131667   6.667  12.207  11.100 -3.9662  1.6807 -1.3103
71225SOL    HW231668   6.603  12.074  11.135 -1.9398  1.1034  0.3997
71226SOL     OW31669   3.338   7.467  12.714 -0.0513 -0.2985 -0.1667
71226SOL    HW131670   3.268   7.498  12.656  0.0745  0.8284  0.2531
71226SOL    HW231671   3.345   7.373  12.696 -0.4077 -0.0786 -1.5391
71227SOL     OW31672   2.319   2.959  13.986 -0.4010  0.3293  0.3215
71227SOL    HW131673   2.341   2.866  13.979  0.5276  0.4821  1.0729
71227SOL    HW231674   2.258   2.974  13.914 -0.5543 -0.8572  0.1808
71228SOL     OW31675  11.144  10.202   9.088  0.0933  0.0381  0.0692
71228SOL    HW131676  11.075  10.254   9.048  0.6598 -0.1153 -1.1625
71228SOL    HW231677  11.112  10.112   9.084  0.9888 -0.2399 -1.9824
71229SOL     OW31678   5.187   9.637   0.060 -0.0132  0.4464  0.6879
71229SOL    HW131679   5.238   9.558   0.078  0.1777  0.1619 -0.9010
71229SOL    HW231680   5.107   9.626   0.111 -0.9732 -1.8836 -1.0821
71230SOL     OW31681  13.865   1.779   7.311  0.2272 -0.1862 -0.4267
71230SOL    HW131682  13.863   1.715   7.382  1.4759  0.3427  0.1310
71230SOL    HW231683  13.894   1.860   7.353 -0.6346  0.5684 -1.2489
71231SOL     OW31684   6.738   9.841   5.361 -0.6984 -0.5058  0.3176
71231SOL    HW131685   6.728   9.870   5.270  2.9407 -2.8601 -1.0737
71231SOL    HW231686   6.669   9.776   5.373 -0.7147 -0.7815 -1.1017
71232SOL     OW31687  13.635   6.368  11.323  0.2491 -0.0747  0.2366
71232SOL    HW131688  13.660   6.389  11.233  1.3515 -0.1075  0.5205
71232SOL    HW231689  13.541   6.351  11.318  0.4516 -1.0126 -1.0792
71233SOL     OW31690   5.783   8.408  13.450  0.6335 -0.1327  0.3709
71233SOL    HW131691   5.759   8.495  13.480  1.5319 -0.0695  0.9460
71233SOL    HW231692   5.722   8.349  13.494  0.8058  0.1066  0.9362
71234SOL     OW31693   6.789   1.087  11.901 -0.0726 -0.3785 -0.1528
71234SOL    HW131694   6.703   1.091  11.859  0.3532 -0.5015 -1.0589
71234SOL    HW231695   6.770   1.068  11.993 -0.9985 -0.7151 -0.4021
71235SOL     OW31696   5.208   4.122  10.371  0.2703 -0.0164  0.2300
71235SOL    HW131697   5.272   4.053  10.352  1.0173  1.0075 -1.1808
71235SOL    HW231698   5.261   4.202  10.378 -0.7411  0.6748  0.1665
71236SOL     OW31699   1.302  10.432   7.509 -0.2863 -0.3055  0.2412
71236SOL    HW131700   1.272  10.394   7.426  1.0621  0.2594 -0.5309
71236SOL    HW231701   1.292  10.527   7.497  0.9644 -0.1532  0.2792
71237SOL     OW31702   6.534  10.021   3.034  0.0824  0.1115 -0.5031
71237SOL    HW131703   6.562  10.087   2.970  0.9657 -0.1022 -0.3549
71237SOL    HW231704   6.447   9.995   3.005 -1.2175  2.7960  0.5787
71238SOL     OW31705   7.183  12.372   6.620 -0.3427  0.2726  0.0893
71238SOL    HW131706   7.154  12.281   6.622  1.1517 -0.2725 -1.4107
71238SOL    HW231707   7.255  12.375   6.683 -1.1244  0.7386  1.0026
71239SOL     OW31708  13.755   6.850  13.618 -0.2789 -0.1648  0.8908
71239SOL    HW131709  13.834   6.872  13.669  0.4401  1.5494 -0.8286
71239SOL    HW231710  13.782   6.776  13.563 -0.6034 -1.0622  1.9168
71240SOL     OW31711   9.892  11.594   4.855  0.3287 -0.4928  0.4528
71240SOL    HW131712   9.899  11.688   4.843  1.4855 -0.6800 -0.5408
71240SOL    HW231713   9.799  11.578   4.872 -0.2760  0.5968 -1.5266
71241SOL     OW31714  12.234   8.925  14.109  0.1077  0.5092 -0.1610
71241SOL    HW131715  12.208   8.896  14.021  3.0156 -0.6865 -0.7324
71241SOL    HW231716  12.267   9.014  14.096  1.0504  0.1350 -0.4281
71242SOL     OW31717  10.492   7.746  11.790  0.1833  0.1456 -0.2702
71242SOL    HW131718  10.470   7.719  11.879 -0.9678 -0.9726 -0.8464
71242SOL    HW231719  10.522   7.665  11.747  0.0260  0.5077 -1.0827
71243SOL     OW31720   5.979  10.197   3.326 -0.3575  0.1323 -0.0482
71243SOL    HW131721   5.886  10.179   3.336 -0.2433 -0.2767  0.2942
71243SOL    HW231722   5.990  10.212   3.232 -1.1094  2.1938  0.1219
71244SOL     OW31723  10.882   6.437   3.883  0.7801  0.1023 -0.2013
71244SOL    HW131724  10.928   6.499   3.940  0.7737 -0.0245 -0.0602
71244SOL    HW231725  10.930   6.355   3.892 -0.1721 -0.3643  0.8755
71245SOL     OW31726   7.092   9.794  10.625  0.3370  0.5924  0.0705
71245SOL    HW131727   7.070   9.820  10.715 -0.6009 -1.5885  0.5370
71245SOL    HW231728   7.161   9.855  10.599  0.0706  1.7904  1.9741
71246SOL     OW31729  12.730   1.505   1.105 -0.6110 -0.0789  0.9459
71246SOL    HW131730  12.634   1.501   1.110 -0.6845  0.6762  0.4372
71246SOL    HW231731  12.760   1.449   1.176 -1.4389  0.4281  1.7266
71247SOL     OW31732  14.106   6.017   3.328  0.4774  0.5063  0.0414
71247SOL    HW131733  14.069   5.929   3.315  1.1650  0.1962  0.1702
71247SOL    HW231734  14.083   6.040   3.418  1.2300  0.0020  0.3727
71248SOL     OW31735   9.573   0.269  13.587  0.2795 -0.2236  0.3011
71248SOL    HW131736   9.541   0.303  13.503  2.4199  0.3660 -0.3551
71248SOL    HW231737   9.653   0.221  13.564 -0.7485 -2.7558  1.6615
71249SOL     OW31738   7.969   7.796   3.394 -0.2781 -0.4218  0.7287
71249SOL    HW131739   8.022   7.829   3.322 -0.0413 -1.9425  0.1667
71249SOL    HW231740   7.984   7.857   3.466  2.2574 -0.7958  0.5933
71250SOL     OW31741   4.931   6.023  10.661  0.2626 -0.1141  0.5966
71250SOL    HW131742   4.946   5.992  10.572  0.0920 -0.3537  0.6477
71250SOL    HW231743   4.993   5.973  10.715  0.8209  0.5009  0.5366
71251SOL     OW31744   6.390   6.197  11.125  0.4041 -0.2424 -0.4020
71251SOL    HW131745   6.464   6.219  11.181  0.5767 -0.9548 -0.3419
71251SOL    HW231746   6.416   6.226  11.038  0.5225  0.0182 -0.2801
71252SOL     OW31747   1.646   2.356   6.501 -0.0664  0.0825 -0.4841
71252SOL    HW131748   1.682   2.272   6.471  2.1679  0.8691 -0.2102
71252SOL    HW231749   1.635   2.345   6.596 -1.0102 -0.2903 -0.6230
71253SOL     OW31750  10.232   9.519   5.431 -0.4573 -0.7104 -0.5722
71253SOL    HW131751  10.300   9.539   5.367 -0.3413  1.5441  0.1491
71253SOL    HW231752  10.258   9.435   5.469  1.8348 -0.0394 -0.4797
71254SOL     OW31753  13.174   8.738   6.193 -0.1460  0.1070  0.8337
71254SOL    HW131754  13.160   8.655   6.148  1.8983  0.5299 -0.7298
71254SOL    HW231755  13.096   8.790   6.172  0.9490  0.5096 -2.9436
71255SOL     OW31756   2.075   8.858   9.329  0.5679  0.3370  0.2273
71255SOL    HW131757   1.986   8.824   9.340 -1.1498  3.9800 -0.9598
71255SOL    HW231758   2.104   8.878   9.417 -0.6977  1.1074  0.4957
71256SOL     OW31759   1.500  11.490   0.753 -0.4355  0.0909  0.0657
71256SOL    HW131760   1.540  11.413   0.793 -0.7283 -1.1832 -1.9524
71256SOL    HW231761   1.469  11.542   0.827 -1.2035 -2.2437  1.4992
71257SOL     OW31762   6.397   2.734  12.539 -0.0900 -0.2630 -0.3875
71257SOL    HW131763   6.358   2.736  12.626 -0.2657 -0.0439 -0.4702
71257SOL    HW231764   6.400   2.641  12.516 -0.2787 -0.3038 -0.2527
71258SOL     OW31765   4.619   7.142   8.136  0.2178  0.1320 -0.4466
71258SOL    HW131766   4.538   7.170   8.094 -0.6341  0.3713  1.2474
71258SOL    HW231767   4.656   7.222   8.173  1.2007  0.0086 -1.1241
71259SOL     OW31768   3.730  13.617   3.460 -0.2156  0.8336  0.0382
71259SOL    HW131769   3.792  13.645   3.527 -0.1151  1.1383 -0.1783
71259SOL    HW231770   3.751  13.526   3.443 -0.4346  0.6703  0.6346
71260SOL     OW31771   5.787  14.143   1.876  0.5549  0.5370  0.0181
71260SOL    HW131772   5.797  14.075   1.809  3.7199 -1.3185  2.1167
71260SOL    HW231773   5.727  14.104   1.940 -2.3387  2.2455 -1.4572
71261SOL     OW31774   4.597   7.230   7.396  0.4182  0.0219 -0.2189
71261SOL    HW131775   4.594   7.157   7.459 -0.2665 -0.2547 -0.5666
71261SOL    HW231776   4.601   7.308   7.451 -1.7416 -0.1263  0.2271
71262SOL     OW31777  11.360   5.423   6.543  0.0440  0.1938  0.3604
71262SOL    HW131778  11.441   5.378   6.567  0.1741  0.2765  0.0787
71262SOL    HW231779  11.373   5.449   6.452 -1.1431 -1.6455 -0.3722
71263SOL     OW31780   0.687   2.881   3.532 -0.1499 -0.3825 -0.1268
71263SOL    HW131781   0.719   2.914   3.615 -0.0466  1.0689 -0.7265
71263SOL    HW231782   0.759   2.897   3.470 -1.1946  1.0075 -1.0402
71264SOL     OW31783   7.592   9.955  10.513 -0.2938  0.4994 -0.5801
71264SOL    HW131784   7.564  10.023  10.574  0.7008  0.0353  0.4193
71264SOL    HW231785   7.687   9.951  10.523 -0.4311 -1.8378  0.2658
71265SOL     OW31786   3.042   8.442  13.030  0.4647  0.0543  0.7228
71265SOL    HW131787   2.990   8.397  12.964 -0.0489  0.9908  0.4624
71265SOL    HW231788   3.083   8.372  13.081 -0.5720 -0.6997  0.5547
71266SOL     OW31789   6.781   3.704   0.548 -0.3040  0.1164  0.4574
71266SOL    HW131790   6.687   3.709   0.567 -0.3459  1.1817  0.0471
71266SOL    HW231791   6.823   3.739   0.627 -0.2820  0.3224  0.3540
71267SOL     OW31792  12.632   2.704   5.859 -0.1338  0.1575  0.5715
71267SOL    HW131793  12.652   2.649   5.783 -0.2330 -1.0330  1.3822
71267SOL    HW231794  12.713   2.706   5.909  0.6927  2.9188 -0.7079
71268SOL     OW31795   1.177   3.623  10.109 -0.2204  0.4704  0.1351
71268SOL    HW131796   1.116   3.567  10.158  2.3996 -1.2289  1.6682
71268SOL    HW231797   1.161   3.601  10.017 -1.9986  0.2048  0.4730
71269SOL     OW31798  13.873   2.082   3.808  0.3423 -0.2003  0.3227
71269SOL    HW131799  13.816   2.102   3.734  1.7231 -0.6506 -0.9287
71269SOL    HW231800  13.916   2.000   3.784  1.8845  0.3698  0.9395
71270SOL     OW31801   0.044  11.791   1.034  0.0086 -0.3842  0.0035
71270SOL    HW131802   0.010  11.801   0.945 -0.7402  0.4961  0.3821
71270SOL    HW231803   0.110  11.860   1.043  0.5107 -0.8433 -0.0542
71271SOL     OW31804  10.653   7.256   9.077  0.4953 -0.9140  0.6312
71271SOL    HW131805  10.613   7.283   9.159  1.2738  0.0934  0.6978
71271SOL    HW231806  10.640   7.331   9.018  1.0060 -1.1473  0.2127
71272SOL     OW31807  13.959   8.796  11.364  0.0847 -0.2528  0.6966
71272SOL    HW131808  14.026   8.796  11.433 -0.3180  1.4122  1.1288
71272SOL    HW231809  13.995   8.852  11.296  0.7544 -2.3814 -0.7956
71273SOL     OW31810   9.328  13.924   1.979 -0.0059 -0.3387  0.3363
71273SOL    HW131811   9.369  13.912   1.893  0.2149  0.3535  0.3409
71273SOL    HW231812   9.383  13.988   2.023 -0.2153 -0.5649  0.9354
71274SOL     OW31813  11.391   8.443  11.643 -0.4568 -0.1644  0.0406
71274SOL    HW131814  11.452   8.516  11.656 -0.7201 -0.1438  1.3461
71274SOL    HW231815  11.418   8.402  11.561 -0.1407  1.2444 -0.5871
71275SOL     OW31816   2.359   1.605  13.685 -0.0198 -0.1560 -0.6905
71275SOL    HW131817   2.367   1.661  13.762  1.3857 -1.8266  0.4904
71275SOL    HW231818   2.382   1.517  13.718  2.0621 -0.7107 -3.2740
71276SOL     OW31819   6.211  13.928   8.690 -0.5077  0.4263  0.0957
71276SOL    HW131820   6.286  13.873   8.715 -0.3641  1.0504  1.0821
71276SOL    HW231821   6.211  13.999   8.754 -1.3998  0.9357 -0.4535
71277SOL     OW31822   7.722   7.877   5.575  0.4186  0.0926  0.0917
71277SOL    HW131823   7.671   7.807   5.533  1.5385 -0.3561 -0.5723
71277SOL    HW231824   7.699   7.872   5.667 -2.9873  1.8270 -0.5188
71278SOL     OW31825   4.709  11.207   6.633  0.4597 -0.4810 -0.4058
71278SOL    HW131826   4.688  11.118   6.606  1.1761 -0.0931 -2.4799
71278SOL    HW231827   4.623  11.249   6.644 -0.0039 -0.3849 -3.4089
71279SOL     OW31828  11.855   2.303   8.272 -0.3484 -0.3385 -0.3024
71279SOL    HW131829  11.906   2.383   8.261 -1.1477  0.1513 -0.4824
71279SOL    HW231830  11.860   2.285   8.366 -0.5566  0.1861 -0.1885
71280SOL     OW31831   9.273   6.671   0.901 -0.0976 -0.9133  0.5443
71280SOL    HW131832   9.305   6.693   0.989  0.1277 -0.3721  0.3336
71280SOL    HW231833   9.331   6.602   0.871 -0.6762 -1.6761  1.1336
71281SOL     OW31834   0.351   8.516   2.857 -0.0716  0.0033  0.0765
71281SOL    HW131835   0.443   8.530   2.834 -0.6635  1.9371 -1.3713
71281SOL    HW231836   0.323   8.444   2.801  0.4126 -0.2351  0.1375
71282SOL     OW31837  11.102   9.372   5.628 -0.3148  0.0521  0.0763
71282SOL    HW131838  11.014   9.381   5.590 -0.0151 -0.6318 -0.8194
71282SOL    HW231839  11.144   9.305   5.574  1.2945  1.4638 -0.4898
71283SOL     OW31840   5.408  11.840   1.230  1.0013 -0.0614 -0.8237
71283SOL    HW131841   5.441  11.784   1.160 -0.9079 -1.6288 -0.5546
71283SOL    HW231842   5.314  11.821   1.233  1.0189 -0.0783  2.1623
71284SOL     OW31843   5.937  12.061  13.017 -0.3819 -0.0922 -0.2422
71284SOL    HW131844   6.020  12.053  13.064 -0.7665  1.2544  0.6867
71284SOL    HW231845   5.931  11.979  12.966 -0.3695 -2.0680  2.6858
71285SOL     OW31846   1.865   4.070  13.743  0.3033  0.8342 -0.0810
71285SOL    HW131847   1.805   3.998  13.758  1.6823 -0.4608 -0.5009
71285SOL    HW231848   1.902   4.089  13.830 -0.7027  1.6500  0.1812
71286SOL     OW31849   3.534  12.361   1.145 -0.5171  0.5781  0.2576
71286SOL    HW131850   3.567  12.280   1.105 -1.0676 -1.2267  3.1665
71286SOL    HW231851   3.593  12.429   1.113  1.0817 -1.2485 -0.9291
71287SOL     OW31852  10.004   5.242   4.804  0.0176  0.3356 -0.4272
71287SOL    HW131853   9.981   5.228   4.896  1.0097  0.6044 -0.1252
71287SOL    HW231854  10.004   5.337   4.793  1.7731  0.3900 -0.1838
71288SOL     OW31855   3.338  10.193   1.581  0.0336 -0.0116 -0.0693
71288SOL    HW131856   3.316  10.122   1.641  1.0607 -0.8320 -0.6287
71288SOL    HW231857   3.377  10.261   1.636 -0.3502 -0.1457  0.3748
71289SOL     OW31858  12.532   3.246   6.950 -0.1639  0.0650 -0.1654
71289SOL    HW131859  12.591   3.320   6.962  0.1300 -0.0386 -0.8826
71289SOL    HW231860  12.576   3.190   6.885 -1.7261  0.7515 -1.9153
71290SOL     OW31861   3.881   6.016  13.380 -0.3372 -0.2984 -0.0876
71290SOL    HW131862   3.907   6.107  13.395 -1.7437  0.0282  0.5116
71290SOL    HW231863   3.806   6.002  13.439 -0.8485 -1.4963 -0.9789
71291SOL     OW31864   8.829   7.118  13.234  0.5753 -0.2077  0.2016
71291SOL    HW131865   8.802   7.167  13.156  1.3143  1.0029  0.6822
71291SOL    HW231866   8.892   7.054  13.201  0.0499 -0.4472 -0.3530
71292SOL     OW31867   9.870   6.961  10.006  0.2845  0.2318  0.0469
71292SOL    HW131868   9.897   6.870  10.003 -3.7069 -1.1429 -0.4256
71292SOL    HW231869   9.917   7.003   9.934  1.6371 -1.6141 -0.2053
71293SOL     OW31870   1.520  10.115   7.050 -0.1058 -0.2458 -0.1194
71293SOL    HW131871   1.485  10.085   6.966 -0.7319  0.4315 -0.1157
71293SOL    HW231872   1.484  10.054   7.114 -0.1656 -0.3690 -0.2676
71294SOL     OW31873  10.376   4.851   8.368  0.2200 -0.1178  0.2314
71294SOL    HW131874  10.284   4.872   8.348 -0.0804  0.0243  1.6911
71294SOL    HW231875  10.415   4.935   8.392 -0.0489 -0.5972  2.5104
71295SOL     OW31876   3.175   9.707   6.871 -0.1166 -0.4918  0.0176
71295SOL    HW131877   3.265   9.723   6.897 -0.1922  0.7762 -0.4108
71295SOL    HW231878   3.154   9.780   6.813 -1.5582 -0.5266  0.4567
71296SOL     OW31879  13.546  11.159  10.519  0.2578  0.5474  0.2330
71296SOL    HW131880  13.555  11.192  10.609 -1.6430 -0.9029  1.0207
71296SOL    HW231881  13.452  11.155  10.504  0.5213  2.1583 -2.4269
71297SOL     OW31882  12.894  12.236   8.011  0.4141  0.2980  0.1698
71297SOL    HW131883  12.907  12.331   8.002  0.2050  0.4807  1.6474
71297SOL    HW231884  12.828  12.215   7.945  1.1864  0.9931 -0.8678
71298SOL     OW31885  12.494  11.492  11.974 -0.4614  0.2713  0.2373
71298SOL    HW131886  12.520  11.493  12.066  0.1519 -0.7347  0.0971
71298SOL    HW231887  12.423  11.428  11.969  2.1993 -2.8776 -0.5851
71299SOL     OW31888   6.432   4.991   1.702  0.3753 -0.1517  0.1790
71299SOL    HW131889   6.427   5.043   1.781 -3.4091 -0.3745  0.2807
71299SOL    HW231890   6.427   4.900   1.732  0.5612 -0.3205 -0.2775
71300SOL     OW31891   8.529  12.238   0.376 -0.0878  0.7633 -0.3133
71300SOL    HW131892   8.622  12.216   0.368  0.0848  1.9178 -2.2622
71300SOL    HW231893   8.525  12.333   0.363 -1.2759  1.2984  2.9470
71301SOL     OW31894   0.936   9.346  12.698 -0.0565  0.0415  0.5764
71301SOL    HW131895   0.918   9.393  12.780 -0.0876  0.6165  0.2450
71301SOL    HW231896   0.869   9.278  12.696  0.8952 -0.9723  1.7827
71302SOL     OW31897  10.130  11.734   6.200  0.0635  0.0973 -0.0430
71302SOL    HW131898  10.206  11.761   6.252  0.6955  0.9996 -1.3927
71302SOL    HW231899  10.055  11.746   6.259  0.7922  0.7213  0.7777
71303SOL     OW31900   6.442   2.650   5.935  0.4487 -0.3922 -0.2937
71303SOL    HW131901   6.448   2.612   5.847  1.0183  0.3962 -0.6040
71303SOL    HW231902   6.442   2.745   5.920  0.1003 -0.2534  0.5345
71304SOL     OW31903   6.532   5.976   1.187 -0.2146 -0.0026  0.3001
71304SOL    HW131904   6.518   5.958   1.094 -1.8010 -1.4168  0.7537
71304SOL    HW231905   6.582   5.901   1.219  0.3573  0.4962  0.5903
71305SOL     OW31906  12.800   0.713   6.625 -0.0306 -0.0385 -0.6068
71305SOL    HW131907  12.769   0.725   6.715 -1.3315 -1.0099 -0.8988
71305SOL    HW231908  12.775   0.794   6.580 -2.1275 -0.7344 -0.7981
71306SOL     OW31909   9.777   2.308   1.005 -0.2527  0.0580 -0.2907
71306SOL    HW131910   9.689   2.310   1.042  0.1841 -3.2484  1.2774
71306SOL    HW231911   9.835   2.324   1.079  0.5399  0.5101 -0.9885
71307SOL     OW31912   3.367  11.645   1.835 -0.1617 -0.3688  0.2519
71307SOL    HW131913   3.367  11.600   1.919 -1.3421  0.9537  1.0185
71307SOL    HW231914   3.276  11.638   1.804 -0.4331  1.5458  0.4772
71308SOL     OW31915   8.193   2.876   2.811 -0.0142 -0.1293  0.1724
71308SOL    HW131916   8.286   2.861   2.797  0.1558  1.0721 -0.0992
71308SOL    HW231917   8.173   2.832   2.893  1.1546  0.9378  1.0541
71309SOL     OW31918   2.738  13.829   2.885 -0.2039  0.2923  0.4798
71309SOL    HW131919   2.723  13.880   2.964 -0.3589  0.9223  0.0452
71309SOL    HW231920   2.684  13.751   2.896 -0.8736  0.7716  0.6197
71310SOL     OW31921   5.492   6.990  12.668 -0.0274 -0.0112  0.3717
71310SOL    HW131922   5.442   6.937  12.731  2.3085  0.1775  2.5662
71310SOL    HW231923   5.431   7.006  12.597 -2.1378 -2.1877  1.5171
71311SOL     OW31924  12.032   9.088   5.495  1.2397  0.1547 -0.6008
71311SOL    HW131925  12.078   9.015   5.536  2.7653  1.4763  0.1675
71311SOL    HW231926  12.091   9.118   5.426  1.4253  1.6787  0.1805
71312SOL     OW31927   6.428  12.452   4.250 -0.1924 -0.4442 -0.5431
71312SOL    HW131928   6.369  12.377   4.257 -0.2840 -0.6135 -2.6635
71312SOL    HW231929   6.371  12.528   4.254 -0.1483 -0.4634  1.1064
71313SOL     OW31930   1.836   8.764  12.878 -0.3914 -0.3893  0.1473
71313SOL    HW131931   1.783   8.783  12.800 -0.5964  1.6104  0.7256
71313SOL    HW231932   1.772   8.746  12.947 -0.2293 -0.9456  0.1595
71314SOL     OW31933  11.515   6.118  12.221  0.0093  0.1653 -0.3952
71314SOL    HW131934  11.540   6.113  12.129  0.2954  0.6217 -0.3455
71314SOL    HW231935  11.583   6.173  12.261 -0.7640  0.9658 -0.1443
71315SOL     OW31936  11.731   7.033   6.989  0.0594  0.0957  0.0463
71315SOL    HW131937  11.826   7.030   6.982 -0.0178  0.2372 -1.3906
71315SOL    HW231938  11.713   7.109   7.045  0.8200 -1.1833  2.1155
71316SOL     OW31939   4.945   0.223  12.511  0.1727 -0.5735  0.1518
71316SOL    HW131940   4.971   0.145  12.461  4.1624 -0.2858  1.4695
71316SOL    HW231941   4.906   0.187  12.591 -0.3663 -1.1231 -0.3425
71317SOL     OW31942  11.250   6.356   4.769 -0.1809 -0.7494  0.1375
71317SOL    HW131943  11.217   6.439   4.735  2.9334  1.2395  1.4854
71317SOL    HW231944  11.239   6.362   4.864 -0.5966 -2.2434  0.2078
71318SOL     OW31945   9.502   8.346   2.732 -0.1931 -0.2312  0.2091
71318SOL    HW131946   9.484   8.362   2.639 -0.2123 -0.9819  0.0825
71318SOL    HW231947   9.588   8.386   2.746 -0.6852  0.8827  0.1499
71319SOL     OW31948   4.912   2.692   0.182 -0.5395 -0.5199 -0.7752
71319SOL    HW131949   4.843   2.734   0.131  0.0036 -0.5260 -1.5205
71319SOL    HW231950   4.897   2.723   0.272  0.2891  1.9033 -1.3982
71320SOL     OW31951   2.254  12.724  12.047  0.2000 -0.4820  0.0496
71320SOL    HW131952   2.277  12.806  12.091  1.8933 -0.6731 -0.4002
71320SOL    HW231953   2.163  12.709  12.070  0.2987  0.7461  1.3825
71321SOL     OW31954   2.470   7.249  12.860  0.8114  0.2102 -0.1582
71321SOL    HW131955   2.524   7.268  12.784 -0.7170  0.2781 -1.2594
71321SOL    HW231956   2.432   7.333  12.885  1.9568  0.3624  1.2611
71322SOL     OW31957   9.771  13.271   2.828 -0.4988 -0.0742 -0.0334
71322SOL    HW131958   9.702  13.256   2.764 -0.7679  0.1779  0.1916
71322SOL    HW231959   9.773  13.366   2.839 -0.0114 -0.0684 -0.1491
71323SOL     OW31960   4.721  11.327   1.080 -0.2716 -0.1350 -0.6775
71323SOL    HW131961   4.762  11.413   1.082  0.0198 -0.2798 -0.1857
71323SOL    HW231962   4.667  11.324   1.159 -1.7122  0.2757 -1.6270
71324SOL     OW31963  10.996   9.229   0.418  0.8400  0.4254  0.4840
71324SOL    HW131964  10.939   9.155   0.442 -0.6842  0.9037 -1.4066
71324SOL    HW231965  11.073   9.188   0.380 -0.0736 -0.2455 -0.7182
71325SOL     OW31966  12.991   6.808   1.097  0.1244  0.3442  0.5620
71325SOL    HW131967  13.017   6.803   1.005 -0.6341  0.5734  0.3323
71325SOL    HW231968  12.958   6.897   1.108  1.9228  0.9475  1.5320
71326SOL     OW31969  13.887  13.124   0.292 -0.2756 -0.0525  0.0528
71326SOL    HW131970  13.837  13.076   0.226 -1.0503 -1.8628  1.8575
71326SOL    HW231971  13.883  13.069   0.370 -0.1485  2.4102  1.9197
71327SOL     OW31972  12.774  12.903  12.748 -0.6772  0.3648 -0.0903
71327SOL    HW131973  12.845  12.966  12.734 -0.9326  0.6496 -0.1115
71327SOL    HW231974  12.738  12.888  12.661 -1.3130  1.0129  0.0549
71328SOL     OW31975   3.159  13.216  13.999  0.1875  0.7345 -0.3426
71328SOL    HW131976   3.131  13.258  14.080 -0.3196  2.5719 -1.3896
71328SOL    HW231977   3.093  13.243  13.934  1.3482  0.5232 -1.6681
71329SOL     OW31978   7.768   1.095  12.140  1.3277 -0.3285  0.0847
71329SOL    HW131979   7.683   1.075  12.099  0.8531  2.0678 -0.2538
71329SOL    HW231980   7.816   1.143  12.073  1.8707  0.6991  1.1661
71330SOL     OW31981   3.202   9.238  13.588 -0.3139  0.1850 -0.3576
71330SOL    HW131982   3.151   9.319  13.594 -0.5913 -0.0976  2.5125
71330SOL    HW231983   3.293   9.268  13.581 -0.3451  0.8322  1.4027
71331SOL     OW31984   8.753   9.326   4.752  0.0958 -0.3391  0.3515
71331SOL    HW131985   8.791   9.277   4.826  0.9762  0.6436  0.5678
71331SOL    HW231986   8.713   9.403   4.792 -1.7546 -1.0852  0.0656
71332SOL     OW31987   0.689  10.554   0.567 -0.1874  0.1487  0.0400
71332SOL    HW131988   0.657  10.637   0.531  0.6369 -0.0597 -1.2528
71332SOL    HW231989   0.672  10.490   0.497 -0.3915 -0.6870  0.8327
71333SOL     OW31990   2.254   0.482   1.548  0.1701 -0.1716 -0.4663
71333SOL    HW131991   2.277   0.525   1.630 -0.5843 -0.1912 -0.2395
71333SOL    HW231992   2.267   0.389   1.566 -0.6716 -0.2316 -0.1395
71334SOL     OW31993   8.292  13.799   1.957  0.0694 -0.1949 -0.0642
71334SOL    HW131994   8.311  13.893   1.963  1.0237 -0.4513  1.4598
71334SOL    HW231995   8.249  13.778   2.040 -0.5488 -1.0303 -0.5799
71335SOL     OW31996  10.102  11.321   4.662 -0.0329 -0.0926  0.4295
71335SOL    HW131997  10.116  11.410   4.695 -0.7177  0.0398  0.3903
71335SOL    HW231998  10.139  11.264   4.729 -0.6521  0.1994  1.0342
71336SOL     OW31999   6.051  13.380  12.049 -0.4752  0.2003  0.1699
71336SOL    HW132000   6.046  13.472  12.076 -0.7601  0.4494 -0.7051
71336SOL    HW232001   6.145  13.361  12.047 -0.4529 -0.0868  2.1380
71337SOL     OW32002  13.803   3.181  13.836 -1.0245  0.6850 -0.5533
71337SOL    HW132003  13.894   3.206  13.852 -1.3194  2.8800 -1.8943
71337SOL    HW232004  13.776   3.138  13.917  1.6700 -1.6813 -0.7419
71338SOL     OW32005  12.666   5.195   5.889  0.2851 -0.3811 -0.4667
71338SOL    HW132006  12.618   5.183   5.970 -1.5209  0.2586 -1.3918
71338SOL    HW232007  12.711   5.279   5.900  0.0855 -0.3190 -0.0997
71339SOL     OW32008   2.137   8.865  12.325 -0.5641  0.3503 -0.0430
71339SOL    HW132009   2.145   8.859  12.420 -2.3159  2.2123  0.3167
71339SOL    HW232010   2.086   8.788  12.300  0.4251 -0.4725  0.4191
71340SOL     OW32011   2.611   6.298  10.604 -0.0595 -0.1163  0.1660
71340SOL    HW132012   2.605   6.203  10.594 -0.7152  0.1508 -2.6168
71340SOL    HW232013   2.555   6.333  10.535  0.4185  2.3076  0.9385
71341SOL     OW32014   3.301   8.695  11.189 -0.0053 -0.0985  0.6109
71341SOL    HW132015   3.334   8.622  11.242  0.8963 -0.1971 -0.0600
71341SOL    HW232016   3.318   8.669  11.099 -1.7853 -0.0500  0.2334
71342SOL     OW32017   0.278   4.756   5.351 -0.3613  0.4397 -0.0241
71342SOL    HW132018   0.241   4.674   5.383 -0.9598  0.5612 -0.3870
71342SOL    HW232019   0.212   4.822   5.373  0.1729  0.8482  0.3835
71343SOL     OW32020   2.756  12.639   4.010 -0.0154  0.0832  0.3991
71343SOL    HW132021   2.810  12.718   4.016  0.0369  0.0567  0.2775
71343SOL    HW232022   2.747  12.623   3.916  1.4391 -1.0641  0.4212
71344SOL     OW32023   6.185  12.868   2.622  0.1448 -0.2504 -0.0425
71344SOL    HW132024   6.227  12.832   2.700  0.7082  2.7164  1.1884
71344SOL    HW232025   6.095  12.887   2.650 -0.2222 -0.9510 -0.7362
71345SOL     OW32026  10.473   0.049   8.028  0.3597 -0.4944  0.3661
71345SOL    HW132027  10.452  -0.015   7.960 -0.6433  0.2505 -0.0602
71345SOL    HW232028  10.460   0.002   8.110  0.0799 -0.9727  0.0560
71346SOL     OW32029   3.011   8.737   0.695 -0.3204  0.1994 -0.1101
71346SOL    HW132030   2.959   8.657   0.688  0.6043 -0.3640 -0.7375
71346SOL    HW232031   3.044   8.752   0.607  0.6797  0.4702  0.2996
71347SOL     OW32032   1.397  11.721   8.549 -0.1501  0.4359 -0.3420
71347SOL    HW132033   1.395  11.817   8.542  1.7393  0.6083  0.7065
71347SOL    HW232034   1.397  11.704   8.643  3.0276 -0.3709 -0.3764
71348SOL     OW32035  13.799   8.373   0.127  0.3110 -0.4743  0.7270
71348SOL    HW132036  13.760   8.287   0.111  0.3418 -0.1875 -1.1809
71348SOL    HW232037  13.770   8.426   0.052  2.7381  0.3231  0.2784
71349SOL     OW32038   6.917   9.583  13.815  0.3701 -0.6577 -0.4809
71349SOL    HW132039   6.848   9.603  13.752  0.9677  1.2525 -0.6003
71349SOL    HW232040   6.951   9.499  13.787 -1.8497 -1.6426 -0.4446
71350SOL     OW32041   9.940   4.054   3.055  0.3438 -0.5063 -0.0615
71350SOL    HW132042   9.906   4.003   3.128 -0.4461  0.3282  0.1746
71350SOL    HW232043   9.983   4.129   3.096 -1.8997  1.0830 -0.4341
71351SOL     OW32044   9.861   4.444   5.078  0.2519 -0.2561  0.5797
71351SOL    HW132045   9.807   4.412   5.006 -0.4275 -1.2253  1.4920
71351SOL    HW232046   9.878   4.536   5.055 -0.2793 -0.4312 -0.6092
71352SOL     OW32047   8.603   9.778   9.070 -0.1923 -0.2826 -0.7742
71352SOL    HW132048   8.595   9.796   9.164 -0.2566  1.0461 -1.0122
71352SOL    HW232049   8.552   9.847   9.028  2.2987  0.9975 -1.8986
71353SOL     OW32050   2.510  12.276  12.066  0.2033  0.6963 -0.0671
71353SOL    HW132051   2.548  12.266  12.153  3.2012  0.6599 -1.2689
71353SOL    HW232052   2.483  12.368  12.062  0.7664  0.9004  0.6402
71354SOL     OW32053   1.559   5.121   6.171  0.1386  0.2893 -0.0265
71354SOL    HW132054   1.646   5.115   6.209 -0.2464  1.4559  1.1309
71354SOL    HW232055   1.574   5.129   6.077  1.3540  1.7486  0.2630
71355SOL     OW32056   2.502   8.685  12.776 -0.3158  0.1040 -0.1396
71355SOL    HW132057   2.496   8.715  12.685 -1.1512 -0.8453 -0.4133
71355SOL    HW232058   2.596   8.678  12.792  0.1030  4.3352  0.4929
71356SOL     OW32059   9.914   1.235  12.690 -0.0515 -1.1189 -0.1550
71356SOL    HW132060   9.977   1.285  12.638 -0.2484 -0.4126  0.2728
71356SOL    HW232061   9.965   1.201  12.763 -0.0699 -0.9158 -0.0465
71357SOL     OW32062   1.152   4.599  10.123  0.5620  0.2241 -0.2247
71357SOL    HW132063   1.136   4.652  10.202  2.2052 -0.1994  0.4353
71357SOL    HW232064   1.148   4.661  10.051 -1.5855  0.5223  0.0832
71358SOL     OW32065   1.760   8.985  12.403 -0.2304  0.2905  0.3414
71358SOL    HW132066   1.665   8.995  12.396 -0.4532  0.2029  2.6817
71358SOL    HW232067   1.783   8.921  12.335 -1.7759  0.5599 -0.4664
71359SOL     OW32068  10.137   7.633   4.919 -0.3323  0.0269 -0.6484
71359SOL    HW132069  10.119   7.566   4.985 -0.0627 -0.9285 -1.5081
71359SOL    HW232070  10.222   7.670   4.944 -0.2759 -0.2652 -0.4103
71360SOL     OW32071   2.805   9.637  11.355  0.2820 -0.6577  0.2730
71360SOL    HW132072   2.731   9.654  11.297 -1.2624  0.8179  2.4976
71360SOL    HW232073   2.882   9.660  11.304 -1.0925  2.2584 -0.6989
71361SOL     OW32074   0.863  12.474   6.412  0.1165 -0.1177  0.8251
71361SOL    HW132075   0.899  12.407   6.354 -1.5606 -1.2099  0.9653
71361SOL    HW232076   0.796  12.428   6.462 -0.6140  1.5267  1.4182
71362SOL     OW32077   2.205   1.855   1.006 -0.4186  0.1874 -0.4927
71362SOL    HW132078   2.125   1.903   0.983  0.6041  1.8736 -0.7196
71362SOL    HW232079   2.204   1.850   1.101  0.5219  2.7572 -0.2605
71363SOL     OW32080  12.080   6.618  13.202  0.4736  0.3941 -0.0400
71363SOL    HW132081  12.123   6.677  13.141  1.9622 -1.6091 -1.0544
71363SOL    HW232082  11.992   6.655  13.214  1.4920  3.0525 -0.1444
71364SOL     OW32083   7.958   6.405   1.671  0.0103 -0.1998  0.0485
71364SOL    HW132084   7.873   6.421   1.630 -0.4150 -0.3960  0.8386
71364SOL    HW232085   8.016   6.384   1.597 -1.4686 -3.8796 -0.2811
71365SOL     OW32086   8.796   2.549   2.795 -0.0450 -0.4524 -0.2615
71365SOL    HW132087   8.882   2.532   2.833 -0.0158  2.2811  1.1926
71365SOL    HW232088   8.814   2.590   2.710  0.0838 -0.6557 -0.3302
71366SOL     OW32089  10.105   3.874   2.911  0.0233 -0.0734  0.1114
71366SOL    HW132090  10.093   3.917   2.826 -2.1842 -1.3603 -0.3058
71366SOL    HW232091  10.037   3.912   2.966 -0.0829 -0.9365  0.5866
71367SOL     OW32092   9.019   6.914  13.037 -0.4879  0.3694 -0.3920
71367SOL    HW132093   8.945   6.947  12.987 -1.4891 -0.4637  0.4871
71367SOL    HW232094   9.076   6.872  12.973 -0.2545  1.8842 -1.2204
71368SOL     OW32095  13.691   5.985   9.586  0.0039  0.4335 -0.3752
71368SOL    HW132096  13.741   6.038   9.649 -0.9630  1.2503 -0.2760
71368SOL    HW232097  13.733   6.001   9.502  0.4347  0.4349 -0.1623
71369SOL     OW32098   1.992   7.532   3.391 -0.3051 -0.3533 -0.0755
71369SOL    HW132099   2.083   7.558   3.383 -0.9396  1.8163 -1.0795
71369SOL    HW232100   1.968   7.501   3.304 -1.5736  3.2091 -1.1965
71370SOL     OW32101   8.911  10.907   9.681 -0.1629  0.2339 -0.0589
71370SOL    HW132102   8.824  10.867   9.677  0.2143 -0.4905 -1.5460
71370SOL    HW232103   8.966  10.842   9.723 -0.0705  0.1676 -0.2802
71371SOL     OW32104   2.752   8.572   5.652 -0.4177  1.1150  0.1008
71371SOL    HW132105   2.741   8.483   5.687 -1.1494  1.2195  0.1660
71371SOL    HW232106   2.774   8.559   5.560  3.1198  0.7890  0.8500
71372SOL     OW32107   5.136   3.246  10.475 -0.7478 -0.2500 -0.4887
71372SOL    HW132108   5.075   3.172  10.479 -0.0378 -1.0007 -2.6773
71372SOL    HW232109   5.131   3.285  10.563 -0.5035 -3.3764  1.0421
71373SOL     OW32110   5.778   0.684   8.552 -0.3460 -0.3169 -0.5409
71373SOL    HW132111   5.727   0.765   8.557 -0.7043 -0.5500 -0.3936
71373SOL    HW232112   5.802   0.677   8.460 -0.6454 -0.2418 -0.6273
71374SOL     OW32113  11.440   2.293  10.474  0.5337  0.2923  0.0174
71374SOL    HW132114  11.515   2.299  10.414  0.0278 -0.6136 -0.7337
71374SOL    HW232115  11.368   2.334  10.426  0.6118  1.4357  0.8607
71375SOL     OW32116  13.204   9.753  13.986  0.4302 -0.0905 -0.2365
71375SOL    HW132117  13.126   9.793  14.024  0.1348 -0.0013 -0.9135
71375SOL    HW232118  13.226   9.681  14.045 -0.9371 -0.9411 -0.7095
71376SOL     OW32119   6.689   8.788   0.257  0.3161 -0.0011  1.0476
71376SOL    HW132120   6.614   8.768   0.314 -0.1567 -0.8203  0.1633
71376SOL    HW232121   6.750   8.716   0.272  0.2690 -0.1235  0.6672
71377SOL     OW32122  13.864   3.122   2.156  0.5554 -0.6131 -0.2630
71377SOL    HW132123  13.773   3.134   2.130  0.6642  0.9698 -0.0509
71377SOL    HW232124  13.889   3.207   2.194  2.1889 -0.9183 -0.5857
71378SOL     OW32125   0.006   0.076  11.759  0.2402 -0.3077  0.0028
71378SOL    HW132126  -0.003   0.076  11.854  0.6607  2.3827  0.1095
71378SOL    HW232127  -0.077   0.040  11.728 -0.0697 -0.8386  1.3641
71379SOL     OW32128   3.944   8.009  12.249 -0.1478 -0.6254  0.0771
71379SOL    HW132129   3.986   7.997  12.334 -1.4642  0.8837  1.0093
71379SOL    HW232130   3.884   7.935  12.240 -1.9247  0.5140  1.7442
71380SOL     OW32131  10.855  11.868   4.536  0.5338  0.3641  0.0923
71380SOL    HW132132  10.783  11.835   4.482  1.6989 -2.3773  0.0026
71380SOL    HW232133  10.900  11.931   4.480  0.8200 -1.2891 -1.6643
71381SOL     OW32134   3.885  13.508   7.468 -0.5765  0.4338 -0.0479
71381SOL    HW132135   3.886  13.448   7.543  3.1439 -0.0184 -0.2849
71381SOL    HW232136   3.924  13.457   7.397 -2.0173  1.5811 -1.7421
71382SOL     OW32137  11.863  10.869   6.469 -0.2976  0.3349 -0.0790
71382SOL    HW132138  11.785  10.917   6.442 -2.4010 -1.6045  2.1370
71382SOL    HW232139  11.898  10.919   6.542 -0.6521  0.1526  0.2169
71383SOL     OW32140   5.483  14.043   9.579  0.3535 -0.2968  0.0539
71383SOL    HW132141   5.528  14.071   9.658  1.0518 -1.5306  0.1137
71383SOL    HW232142   5.525  14.092   9.508 -0.0878  0.5993  0.3911
71384SOL     OW32143  12.186   4.269   3.036 -0.1381  0.0646 -0.5274
71384SOL    HW132144  12.161   4.359   3.057  0.1621  0.4482 -1.7307
71384SOL    HW232145  12.254   4.247   3.099  0.5876  1.0882 -0.9347
71385SOL     OW32146   6.343   7.590  10.988  0.0932  0.2356  0.0249
71385SOL    HW132147   6.273   7.650  10.962 -0.1674  0.1685  0.5642
71385SOL    HW232148   6.354   7.605  11.082 -0.9159 -1.5003  0.4772
71386SOL     OW32149  13.443  11.497   4.855 -0.5194 -0.2565  0.1254
71386SOL    HW132150  13.515  11.440   4.828 -1.3103 -0.3991 -1.8872
71386SOL    HW232151  13.365  11.457   4.817 -1.4679  0.7278  0.9596
71387SOL     OW32152   5.537   1.931   0.639 -0.2419  0.0262 -0.2747
71387SOL    HW132153   5.589   1.865   0.594  1.0578  0.5075  0.4641
71387SOL    HW232154   5.463   1.947   0.580  0.0091 -1.2663 -0.9747
71388SOL     OW32155   1.838   5.612   1.939 -0.7291  0.3607 -0.4681
71388SOL    HW132156   1.786   5.627   2.018 -1.3085  1.5097 -1.0510
71388SOL    HW232157   1.844   5.698   1.897  1.4792  0.2213 -0.5348
71389SOL     OW32158   2.805   9.510   8.584 -0.2118 -0.0962  0.2105
71389SOL    HW132159   2.769   9.525   8.671  2.1795  0.1701  1.2340
71389SOL    HW232160   2.890   9.470   8.600 -0.1130 -0.9179 -2.0539
71390SOL     OW32161   4.896  12.280   2.884 -0.5319  0.1227  0.6766
71390SOL    HW132162   4.866  12.307   2.797  0.9616  0.3446  0.2070
71390SOL    HW232163   4.879  12.186   2.887 -0.8413  0.1610  0.2588
71391SOL     OW32164   4.270   9.177   7.012  0.0210 -0.4474 -0.6582
71391SOL    HW132165   4.254   9.226   7.093  1.3960 -0.8126 -0.1419
71391SOL    HW232166   4.269   9.244   6.944  0.1416  0.0512 -0.1808
71392SOL     OW32167  11.193   4.317   7.006  0.7542  0.3086 -0.0030
71392SOL    HW132168  11.257   4.257   7.045  1.3010  0.6018 -0.4307
71392SOL    HW232169  11.203   4.304   6.911  0.3453  0.5361 -0.0798
71393SOL     OW32170   6.330  11.925   4.560  0.1545  0.5898  0.3836
71393SOL    HW132171   6.408  11.913   4.613  0.9581  2.2798 -0.3250
71393SOL    HW232172   6.292  12.008   4.591 -2.2168 -0.8785  1.6953
71394SOL     OW32173   4.307   0.073   3.201  0.3413 -0.1119  0.0141
71394SOL    HW132174   4.383   0.126   3.221 -0.8991  1.2315  1.4719
71394SOL    HW232175   4.255   0.075   3.281 -0.8199 -1.7084 -0.6433
71395SOL     OW32176  14.067   6.424   3.111 -0.1157  0.2182  0.6246
71395SOL    HW132177  14.152   6.389   3.141 -0.1704  0.1919  0.7497
71395SOL    HW232178  14.032   6.356   3.054 -0.0963  0.1860  0.6509
71396SOL     OW32179   0.061  13.169   6.660 -0.0001 -0.7111  0.0657
71396SOL    HW132180   0.021  13.144   6.744  1.9623 -1.7641  0.7527
71396SOL    HW232181   0.081  13.262   6.670  0.4938 -0.8954  0.9079
71397SOL     OW32182  10.516   6.754   4.121 -0.1306 -0.5251 -0.2415
71397SOL    HW132183  10.436   6.777   4.169  0.1027  0.7779 -0.4300
71397SOL    HW232184  10.572   6.711   4.187 -0.1620  0.4538  0.4565
71398SOL     OW32185   1.639   1.583   9.264  0.3086 -0.3345 -0.1492
71398SOL    HW132186   1.728   1.618   9.273  0.5229 -1.1478  1.2911
71398SOL    HW232187   1.650   1.495   9.231  0.1700 -0.9298  1.2973
71399SOL     OW32188   7.512  10.111   8.313 -0.0715 -0.0922 -0.6127
71399SOL    HW132189   7.606  10.090   8.318 -0.5217 -2.0266  1.4939
71399SOL    HW232190   7.473  10.032   8.276 -1.1026 -0.3520  0.9446
71400SOL     OW32191   7.053   6.703  13.531 -0.0454  0.6523 -0.1408
71400SOL    HW132192   6.985   6.645  13.565 -0.6351  1.0068 -0.6827
71400SOL    HW232193   7.125   6.645  13.507  0.1122  0.3261  1.0311
71401SOL     OW32194   0.758  10.633   8.432 -0.4691 -0.8330  0.2675
71401SOL    HW132195   0.788  10.558   8.379  0.2356 -1.0282  0.9185
71401SOL    HW232196   0.746  10.703   8.368  2.2788 -0.4721 -0.0037
71402SOL     OW32197   3.940   8.518   0.098  0.2255  0.2443  0.1900
71402SOL    HW132198   3.942   8.495   0.191 -0.8756 -0.3386  0.0812
71402SOL    HW232199   4.000   8.456   0.057  1.6457  1.2645  0.6455
71403SOL     OW32200   7.471  10.687   2.527 -0.3440 -0.1891 -0.7555
71403SOL    HW132201   7.448  10.677   2.620  1.7878 -0.1081 -0.1643
71403SOL    HW232202   7.444  10.604   2.487  0.4029 -0.9987  0.3461
71404SOL     OW32203  12.162   8.702   3.704 -0.3350 -0.4987 -0.1259
71404SOL    HW132204  12.215   8.724   3.781 -0.4597  0.1365 -0.2193
71404SOL    HW232205  12.076   8.681   3.740 -0.5160  0.2215 -0.1189
71405SOL     OW32206  12.005  13.213   9.124 -0.0885 -0.0012  0.4051
71405SOL    HW132207  12.046  13.271   9.060 -2.0857  0.6602 -0.3558
71405SOL    HW232208  11.989  13.131   9.077 -1.5964  0.4989 -0.0133
71406SOL     OW32209   7.335   2.795  11.964  0.1345 -0.4771 -0.3590
71406SOL    HW132210   7.391   2.722  11.938 -0.2832 -0.1339 -2.3440
71406SOL    HW232211   7.363   2.868  11.909 -1.1771  0.1564 -0.2302
71407SOL     OW32212  11.813  13.919   8.270 -0.1694  0.4509 -0.1350
71407SOL    HW132213  11.789  13.836   8.312  1.5569 -0.3768 -0.6785
71407SOL    HW232214  11.732  13.970   8.269 -1.2241 -1.1394  0.4091
71408SOL     OW32215   4.024   7.452   0.143  0.1012  0.5510 -0.5225
71408SOL    HW132216   3.980   7.494   0.217  1.4501  3.0777 -1.0483
71408SOL    HW232217   4.087   7.393   0.183  0.6247  1.6794  0.3618
71409SOL     OW32218   3.131   9.170   4.960 -0.1021 -0.7701  0.3283
71409SOL    HW132219   3.177   9.173   4.876 -0.4703 -1.2028  0.1055
71409SOL    HW232220   3.167   9.093   5.004 -0.4116 -0.9447  0.2740
71410SOL     OW32221   2.407   7.396   4.355 -0.3571 -0.0843 -0.2705
71410SOL    HW132222   2.466   7.341   4.304  0.6266  0.3593  0.3771
71410SOL    HW232223   2.463   7.463   4.395 -1.1572 -0.1162  0.9868
71411SOL     OW32224   7.237  10.537   6.573 -0.6638 -0.1777 -0.4991
71411SOL    HW132225   7.223  10.593   6.497 -0.5144  0.6317  0.0649
71411SOL    HW232226   7.234  10.596   6.648  0.2780 -0.7916  0.0513
71412SOL     OW32227   0.755   8.967  12.212  0.3257 -0.1748 -0.2282
71412SOL    HW132228   0.769   8.975  12.306 -0.8550 -0.7672  0.0110
71412SOL    HW232229   0.659   8.968  12.201  0.4469  0.8764 -1.5095
71413SOL     OW32230   5.598   0.668  10.950 -0.2347  0.1193  0.2805
71413SOL    HW132231   5.576   0.653  11.042 -0.9294  1.1161  0.2901
71413SOL    HW232232   5.683   0.712  10.952  0.2704 -0.8344  0.3850
71414SOL     OW32233   8.510   0.951   9.603 -0.0548 -0.1098 -0.1885
71414SOL    HW132234   8.540   0.869   9.563 -2.1678 -0.8683 -0.3447
71414SOL    HW232235   8.547   0.950   9.691 -0.8315 -1.7254  0.1474
71415SOL     OW32236   9.827  11.656   4.077  0.0514 -0.2068 -0.3203
71415SOL    HW132237   9.781  11.606   4.010 -1.3189  0.5021  0.0457
71415SOL    HW232238   9.788  11.626   4.160  1.3472 -0.6886  0.1459
71416SOL     OW32239   1.838   7.943   5.290  0.5693  0.0672 -0.5102
71416SOL    HW132240   1.772   7.877   5.311  0.7090  0.1434  0.2152
71416SOL    HW232241   1.836   8.003   5.365 -0.1466  1.3782 -1.5364
71417SOL     OW32242   0.686  11.169   8.883 -0.2630  0.8375  0.8012
71417SOL    HW132243   0.665  11.252   8.841 -0.4431  0.6555  0.5187
71417SOL    HW232244   0.618  11.158   8.949  0.0959  1.1878  1.2295
71418SOL     OW32245   5.732   0.297   7.719 -0.3225 -0.2225  0.3088
71418SOL    HW132246   5.647   0.286   7.762 -0.5469 -0.1641 -0.1138
71418SOL    HW232247   5.786   0.228   7.756 -0.2623  0.3379  1.2976
71419SOL     OW32248  10.925  10.821  10.462 -0.1602 -0.0423 -1.5083
71419SOL    HW132249  11.008  10.868  10.459  0.3168 -0.8166 -0.7857
71419SOL    HW232250  10.874  10.866  10.529 -0.2887  0.3595 -1.8702
71420SOL     OW32251   4.340  10.021   5.124 -0.0763  0.6178 -0.5286
71420SOL    HW132252   4.329  10.112   5.097  1.9594  1.1245  0.1532
71420SOL    HW232253   4.417  10.022   5.182  0.2022 -1.5838 -0.7599
71421SOL     OW32254   4.655   2.242   1.023  0.4126 -0.4249 -0.2113
71421SOL    HW132255   4.652   2.191   0.942 -1.0130 -2.0967  0.7957
71421SOL    HW232256   4.606   2.322   1.002  1.5738 -0.0112 -1.4710
71422SOL     OW32257  12.342   2.156  12.937  0.3190 -0.1668 -0.1105
71422SOL    HW132258  12.329   2.098  13.012 -1.0378  0.7899  0.4303
71422SOL    HW232259  12.310   2.107  12.862 -0.5657 -0.2305  0.3043
71423SOL     OW32260   3.093   5.747   1.486 -0.1061  0.2655 -0.0024
71423SOL    HW132261   3.080   5.822   1.428 -1.5217 -0.0158 -0.0836
71423SOL    HW232262   3.141   5.782   1.561  0.4712  0.9372 -0.6754
71424SOL     OW32263  10.901   2.374   9.195  0.2117  0.3141 -0.0547
71424SOL    HW132264  10.919   2.466   9.179  2.0689 -0.0193 -0.1614
71424SOL    HW232265  10.904   2.333   9.109  1.5770 -0.1464  0.1824
71425SOL     OW32266   8.414   7.276   9.338 -0.8811 -0.0643 -0.3487
71425SOL    HW132267   8.380   7.187   9.335  0.8228 -0.7497 -1.4974
71425SOL    HW232268   8.404   7.308   9.248 -1.1265  0.7777 -0.0339
71426SOL     OW32269   2.598   6.190   3.615  0.4864  0.2231 -0.3679
71426SOL    HW132270   2.523   6.244   3.589  0.0810  0.2434  0.7730
71426SOL    HW232271   2.656   6.250   3.661  0.9151  0.0718 -0.7078
71427SOL     OW32272   4.780  13.906   8.236  0.6253  0.2087  0.5667
71427SOL    HW132273   4.694  13.869   8.217  0.4017  1.1000 -0.2444
71427SOL    HW232274   4.772  13.941   8.325 -0.3597  1.6865 -0.0762
71428SOL     OW32275  12.111   5.949   0.496  0.0112  0.3646  0.3300
71428SOL    HW132276  12.163   6.011   0.548 -0.5029 -0.6438  2.1273
71428SOL    HW232277  12.035   5.930   0.550 -0.3857 -1.0126 -0.6681
71429SOL     OW32278  11.808  11.562   7.617  0.0401  0.1045  0.0632
71429SOL    HW132279  11.730  11.595   7.572  0.9269  0.3088 -1.3760
71429SOL    HW232280  11.782  11.476   7.650 -1.1213  0.6305  0.5660
71430SOL     OW32281   2.097   8.701   5.963  0.1660  0.7391 -0.1908
71430SOL    HW132282   2.149   8.636   6.010  0.6881  2.3564  1.5895
71430SOL    HW232283   2.009   8.693   6.000  0.5115  1.8186  0.9291
71431SOL     OW32284   2.110  10.163  13.628  0.1209  0.0767  0.0086
71431SOL    HW132285   2.146  10.247  13.599  1.4193 -0.7023 -0.7432
71431SOL    HW232286   2.041  10.143  13.565  1.4437 -0.5513 -1.2893
71432SOL     OW32287   2.998  12.352  12.989  0.4229  0.1097 -0.2335
71432SOL    HW132288   3.040  12.280  12.942  0.1655 -1.5781  1.9426
71432SOL    HW232289   2.970  12.412  12.921  3.4587 -0.2649 -1.9589
71433SOL     OW32290  13.211  11.749   0.785  0.2875  0.4798 -0.2591
71433SOL    HW132291  13.236  11.783   0.699 -0.3146  0.9934 -0.2278
71433SOL    HW232292  13.120  11.775   0.797 -0.0567 -0.7661 -0.0499
71434SOL     OW32293   8.478  10.676   5.864 -0.0338 -0.2293 -0.3737
71434SOL    HW132294   8.485  10.717   5.777  0.9049 -1.1325 -0.7427
71434SOL    HW232295   8.384  10.666   5.878 -0.2100 -2.6740 -2.5744
71435SOL     OW32296   5.319   2.603   4.582  0.2600 -0.0559  0.3115
71435SOL    HW132297   5.358   2.622   4.668  0.2458  0.0889  0.2869
71435SOL    HW232298   5.385   2.633   4.519  1.0642 -1.8052  0.2622
71436SOL     OW32299   7.327   2.873   8.361 -0.3866  0.3368  0.0000
71436SOL    HW132300   7.312   2.874   8.266 -0.9141  0.0017  0.0741
71436SOL    HW232301   7.374   2.791   8.376  2.2907  1.7062 -0.3203
71437SOL     OW32302   4.106   7.557  11.296 -0.1771 -0.4133 -0.7226
71437SOL    HW132303   4.061   7.481  11.260 -3.4061  0.6537  0.6783
71437SOL    HW232304   4.098   7.547  11.391  1.8015  0.3468 -0.4298
71438SOL     OW32305  13.503   1.459  12.427 -0.0324 -0.0392  0.3102
71438SOL    HW132306  13.523   1.386  12.369 -1.0325 -0.3311  0.3161
71438SOL    HW232307  13.437   1.510  12.380 -0.8981 -0.3134  1.1934
71439SOL     OW32308   6.050   2.533  10.000 -0.2440 -0.2484 -0.0801
71439SOL    HW132309   6.096   2.554   9.919  1.1688  0.5959  0.9095
71439SOL    HW232310   6.111   2.478  10.049 -0.1963  0.9646  1.2931
71440SOL     OW32311   3.421  12.496   3.408 -0.3363 -0.4344 -0.1710
71440SOL    HW132312   3.358  12.560   3.441 -0.8352 -1.3309  0.6797
71440SOL    HW232313   3.406  12.418   3.462  1.7001 -0.5911  0.2606
71441SOL     OW32314  12.461  10.093   5.845 -0.3624 -0.0309 -0.4161
71441SOL    HW132315  12.387  10.142   5.808 -0.3137  0.6925  0.4409
71441SOL    HW232316  12.536  10.119   5.792 -0.1941  1.3998  0.4783
71442SOL     OW32317  13.647  12.478  10.477  0.3842 -0.0363 -0.0652
71442SOL    HW132318  13.681  12.464  10.388 -1.0085 -2.0322 -0.3660
71442SOL    HW232319  13.572  12.537  10.465  1.2228  1.0809  0.0497
71443SOL     OW32320   5.508   6.162   1.267  0.5294  0.0504  0.1272
71443SOL    HW132321   5.413   6.153   1.254  0.4730 -0.3500  0.7831
71443SOL    HW232322   5.532   6.087   1.320  1.0023  0.8002  1.0068
71444SOL     OW32323  14.080  11.820   7.664 -0.4139  0.1422 -0.3288
71444SOL    HW132324  14.171  11.845   7.680 -0.4597  0.4542 -0.5563
71444SOL    HW232325  14.076  11.803   7.570 -0.9220  1.5352 -0.5802
71445SOL     OW32326   9.965  10.403   0.437  0.5135  0.1791 -0.5129
71445SOL    HW132327   9.998  10.487   0.468  1.0641 -0.5702  1.0398
71445SOL    HW232328   9.893  10.382   0.497  0.0666 -0.2412 -1.1791
71446SOL     OW32329   9.801   6.938   2.446 -0.5161 -1.0894 -0.1401
71446SOL    HW132330   9.895   6.919   2.443 -0.4704 -0.9147  0.2279
71446SOL    HW232331   9.787   6.979   2.531 -0.5795  0.7282 -0.9688
71447SOL     OW32332   6.112   1.059   5.786  0.2233  0.6189 -0.0348
71447SOL    HW132333   6.157   1.143   5.776  1.1832  0.0171 -0.8996
71447SOL    HW232334   6.113   1.021   5.698 -4.1676  1.6336 -0.7653
71448SOL     OW32335   8.282  11.669   0.149 -0.3205  0.5473 -0.3911
71448SOL    HW132336   8.259  11.630   0.233  0.1881  0.5160 -0.2628
71448SOL    HW232337   8.370  11.635   0.130 -0.0171  1.3551 -0.4455
71449SOL     OW32338   7.241  13.906   5.417  0.1211 -0.1430 -0.2192
71449SOL    HW132339   7.302  13.844   5.457 -0.2084  0.5912  1.5133
71449SOL    HW232340   7.155  13.865   5.427  0.2222 -0.8322 -1.9720
71450SOL     OW32341   6.683  12.855   5.516  0.2051  0.0786  0.0775
71450SOL    HW132342   6.678  12.926   5.452 -0.2163 -0.8211 -0.9326
71450SOL    HW232343   6.605  12.864   5.570 -0.3922 -0.2180 -0.7189
71451SOL     OW32344   9.205  12.442   2.426 -0.6046 -0.2302  0.0893
71451SOL    HW132345   9.194  12.490   2.508 -0.2758  3.0430 -1.5882
71451SOL    HW232346   9.121  12.399   2.411 -1.3546  0.7926  1.1894
71452SOL     OW32347  12.567  10.183  12.127 -0.0702  0.3724 -0.5516
71452SOL    HW132348  12.636  10.234  12.084 -0.2006  2.1332  1.2197
71452SOL    HW232349  12.602  10.160  12.212 -1.0981 -0.0811 -0.2270
71453SOL     OW32350  10.083   2.962   4.704  0.0435 -0.6066 -0.1535
71453SOL    HW132351  10.022   2.890   4.720  0.2823 -0.6870  0.4130
71453SOL    HW232352  10.100   2.999   4.790 -3.5444  3.0632 -0.7100
71454SOL     OW32353   8.826   1.773  12.748 -0.2781  0.2466  0.1668
71454SOL    HW132354   8.770   1.712  12.701  0.7984  0.0183 -0.8592
71454SOL    HW232355   8.911   1.730  12.753  0.0266  0.9055  1.0264
71455SOL     OW32356   8.147   4.322  10.797 -0.2774 -0.0682  0.5956
71455SOL    HW132357   8.218   4.263  10.823  0.3283  0.0253 -0.7540
71455SOL    HW232358   8.191   4.403  10.774 -1.0334  0.6743  1.6607
71456SOL     OW32359   4.002  13.875  11.989  0.4663  0.3062 -0.4282
71456SOL    HW132360   4.003  13.803  11.926  2.3717  0.5613 -0.7382
71456SOL    HW232361   3.943  13.844  12.059  0.7474 -1.2896 -0.8487
71457SOL     OW32362   6.867   2.805   5.446 -0.5809  0.3418  0.2995
71457SOL    HW132363   6.895   2.866   5.514  0.0376  1.5204 -0.9547
71457SOL    HW232364   6.898   2.845   5.364 -1.8348 -0.7094 -0.7333
71458SOL     OW32365   6.974   0.134   9.835 -0.2308  0.5821  0.3343
71458SOL    HW132366   6.950   0.171   9.919  0.4019 -0.1070  0.8259
71458SOL    HW232367   7.037   0.065   9.855 -1.2735 -0.6758 -0.5633
71459SOL     OW32368   4.416   4.017   5.331 -0.2455  0.8760 -0.1980
71459SOL    HW132369   4.414   4.029   5.426 -2.0727  1.2734 -0.2448
71459SOL    HW232370   4.402   3.923   5.319 -3.3781  1.2007 -0.0470
71460SOL     OW32371   4.682  13.644   2.075 -0.2630  0.2931  0.2118
71460SOL    HW132372   4.776  13.660   2.067  0.4238 -2.7566  0.7850
71460SOL    HW232373   4.666  13.644   2.169 -0.4313 -0.7937  0.2041
71461SOL     OW32374   6.593  11.008  13.294 -0.4447 -0.1356 -0.1733
71461SOL    HW132375   6.541  11.087  13.281 -2.0817 -0.8959  1.3226
71461SOL    HW232376   6.583  10.959  13.213 -0.4158  0.6300 -0.6455
71462SOL     OW32377   2.163   8.413   7.784  0.5701 -0.1672  0.1251
71462SOL    HW132378   2.079   8.455   7.766  0.8365  0.3344  0.0252
71462SOL    HW232379   2.197   8.458   7.861  1.2759  0.4454 -0.5199
71463SOL     OW32380  10.272   8.721  11.384 -0.0049  0.5145 -0.2365
71463SOL    HW132381  10.208   8.750  11.318  0.3721  0.1045 -0.7927
71463SOL    HW232382  10.249   8.770  11.463  0.3012  1.9649 -1.0152
71464SOL     OW32383   2.018   1.134   9.362  0.3984  0.1196 -0.3343
71464SOL    HW132384   1.981   1.218   9.391 -0.6771 -0.1248 -0.9257
71464SOL    HW232385   1.995   1.128   9.269  1.5516 -0.2704 -0.6034
71465SOL     OW32386   0.810  10.684   5.647  0.3094  0.6892  0.4868
71465SOL    HW132387   0.722  10.670   5.680 -0.1562  0.5682 -0.7716
71465SOL    HW232388   0.855  10.730   5.719 -0.9062  1.2026  0.9476
71466SOL     OW32389  10.887   0.120   4.884  0.0524 -0.6540 -0.0910
71466SOL    HW132390  10.935   0.066   4.947 -0.4463 -2.0483 -0.8750
71466SOL    HW232391  10.838   0.182   4.939  1.5210 -0.2004  0.7824
71467SOL     OW32392   0.132   9.846   7.788  0.2021 -0.2745  0.4199
71467SOL    HW132393   0.068   9.782   7.755  0.8251 -0.7984  0.2178
71467SOL    HW232394   0.181   9.797   7.855  0.6733  0.0011  0.2749
71468SOL     OW32395   8.266   1.529   6.561  0.4502  0.1587 -0.2395
71468SOL    HW132396   8.352   1.495   6.584  0.3059 -0.9242 -1.2103
71468SOL    HW232397   8.283   1.618   6.530  1.4065 -0.5065 -1.7017
71469SOL     OW32398   5.140   9.892   9.407  0.2764  0.5241 -0.1803
71469SOL    HW132399   5.168   9.934   9.488  2.9499 -3.0205  0.9708
71469SOL    HW232400   5.199   9.926   9.340  0.6617  0.5586  0.1778
71470SOL     OW32401  11.451   6.349   6.685  0.2343  0.0046 -0.7773
71470SOL    HW132402  11.503   6.426   6.661 -0.0088  0.2897 -0.3911
71470SOL    HW232403  11.466   6.339   6.779 -0.6295  0.2564 -0.6072
71471SOL     OW32404  11.312  13.677   4.005 -0.3591  0.1984 -0.2652
71471SOL    HW132405  11.288  13.757   4.052 -0.4175  1.0637 -1.7095
71471SOL    HW232406  11.251  13.611   4.039 -0.9288  0.9833  0.2887
71472SOL     OW32407   8.324   3.107   1.348  0.0503 -0.1499 -0.3868
71472SOL    HW132408   8.374   3.025   1.346 -0.6000 -0.5246 -2.0351
71472SOL    HW232409   8.352   3.154   1.270  0.2696  1.1543  0.4366
71473SOL     OW32410   4.327   4.650  13.586  0.1068  0.2712  0.0621
71473SOL    HW132411   4.402   4.600  13.554  0.4423  1.3131 -0.8942
71473SOL    HW232412   4.349   4.673  13.676  0.5862 -0.0937  0.0386
71474SOL     OW32413   9.172  12.014  10.091 -0.0368 -0.3279 -0.1156
71474SOL    HW132414   9.091  12.053  10.059 -1.2537 -2.2157  0.5008
71474SOL    HW232415   9.239  12.081  10.076 -1.5530  0.9738 -1.3684
71475SOL     OW32416   5.829   1.528   2.435 -0.3866 -0.5477 -0.0544
71475SOL    HW132417   5.801   1.509   2.345  0.8343 -1.6648 -0.2378
71475SOL    HW232418   5.850   1.442   2.472 -0.1893 -0.0307  1.0563
71476SOL     OW32419   0.957  13.159   1.366  0.2045 -0.0744 -0.3298
71476SOL    HW132420   1.034  13.183   1.315  0.6658 -1.3791 -0.2932
71476SOL    HW232421   0.900  13.236   1.363  1.2685  0.7044 -0.8171
71477SOL     OW32422   8.256  11.841   5.977 -0.6901 -0.3935 -0.4119
71477SOL    HW132423   8.335  11.839   6.031 -0.1967  1.4446 -0.9899
71477SOL    HW232424   8.190  11.797   6.030  0.4487 -1.0279  0.5358
71478SOL     OW32425  10.103  12.550  10.007 -0.2907 -0.3788  0.4628
71478SOL    HW132426  10.011  12.524  10.014 -0.6469  0.2956 -1.1531
71478SOL    HW232427  10.153  12.472  10.031 -1.3044 -1.2445 -0.1428
71479SOL     OW32428  13.297  10.075   1.276  0.5857  0.2009 -0.2889
71479SOL    HW132429  13.277   9.993   1.232 -1.7438  0.7753 -0.4343
71479SOL    HW232430  13.226  10.134   1.250  0.1092  1.1369  2.7584
71480SOL     OW32431  10.274   3.043   1.128 -0.2681  0.1800  0.1100
71480SOL    HW132432  10.320   3.071   1.207  0.5477  1.0666 -0.6445
71480SOL    HW232433  10.272   3.122   1.073 -2.8456  0.2267  0.1596
71481SOL     OW32434   6.784  13.291  13.190 -0.1477  0.0141  0.1945
71481SOL    HW132435   6.766  13.197  13.196  1.3684 -0.3611 -0.5728
71481SOL    HW232436   6.848  13.308  13.260  1.5028 -0.0753 -1.2346
71482SOL     OW32437   2.967  10.417   1.832  0.1830  0.4141 -0.7738
71482SOL    HW132438   2.932  10.361   1.902 -1.2779  1.9586 -0.2151
71482SOL    HW232439   2.933  10.504   1.852  0.7331  1.1169 -2.7555
71483SOL     OW32440   3.779  11.959   7.525  0.2491  0.0269  0.2234
71483SOL    HW132441   3.718  11.894   7.490  0.0032  0.8805 -0.9789
71483SOL    HW232442   3.743  12.043   7.498 -0.2115  0.8065  2.9708
71484SOL     OW32443  13.069   3.388   8.370 -0.1705 -0.1026 -0.6585
71484SOL    HW132444  13.027   3.423   8.291 -1.4820  0.8782  0.4307
71484SOL    HW232445  13.056   3.456   8.436  0.6735 -1.0125  0.4914
71485SOL     OW32446   5.787   9.266   9.722 -0.1787 -0.0796 -0.3276
71485SOL    HW132447   5.775   9.227   9.635 -1.0934  2.2089 -1.3219
71485SOL    HW232448   5.701   9.303   9.743  0.3935  0.5948  0.9281
71486SOL     OW32449   0.255  13.807  13.767  0.4234 -0.3978 -0.4252
71486SOL    HW132450   0.346  13.788  13.742 -0.4422 -1.3862 -3.0942
71486SOL    HW232451   0.211  13.828  13.685 -1.6029  0.9643  0.9255
71487SOL     OW32452   8.555   9.219   7.315  0.1411  0.2005 -0.1315
71487SOL    HW132453   8.590   9.219   7.404 -1.8266  0.4096  0.7035
71487SOL    HW232454   8.595   9.142   7.273 -0.1578 -0.8717  1.4758
71488SOL     OW32455  10.019   6.693   4.909 -0.3789 -0.0960  0.0608
71488SOL    HW132456  10.073   6.630   4.861  0.0449  1.1142 -1.1263
71488SOL    HW232457   9.969   6.739   4.841  0.8694  2.2587  0.6057
71489SOL     OW32458   9.044   6.256   5.189  0.6902  0.7540  0.1774
71489SOL    HW132459   9.097   6.271   5.110  1.5012 -0.4089  0.4674
71489SOL    HW232460   8.992   6.179   5.168 -0.1960  1.3290  0.2461
71490SOL     OW32461   7.063   0.387  11.421  0.3857  0.5290  0.2750
71490SOL    HW132462   7.084   0.443  11.346  0.5920  0.6548  0.4257
71490SOL    HW232463   7.088   0.299  11.393  1.5791  0.7477  0.6327
71491SOL     OW32464   6.735  13.373   8.976 -0.3807  0.1031  0.2754
71491SOL    HW132465   6.698  13.461   8.984  1.7364  1.1339 -0.6138
71491SOL    HW232466   6.691  13.335   8.900 -1.1827  0.4372  0.5644
71492SOL     OW32467  11.856   0.621   4.085 -0.0922  0.0087  0.1613
71492SOL    HW132468  11.772   0.576   4.075 -1.0499  1.5784  0.7756
71492SOL    HW232469  11.869   0.627   4.180  1.6464 -1.8051  0.1036
71493SOL     OW32470   2.941  10.052  12.046 -0.6505  0.5316 -0.1688
71493SOL    HW132471   2.884  10.092  11.981 -0.0992  0.5781 -0.6288
71493SOL    HW232472   3.025  10.042  12.002 -1.0944 -2.3556 -0.5606
71494SOL     OW32473   6.245   9.567  10.430  0.2614 -0.5592  0.2892
71494SOL    HW132474   6.256   9.529  10.517  0.0158  0.3388  0.7228
71494SOL    HW232475   6.331   9.601  10.407 -0.5269  3.2048  2.1301
71495SOL     OW32476   5.714   5.484   6.005  0.3283 -0.2080 -0.7239
71495SOL    HW132477   5.738   5.577   5.999 -0.2978  0.1225  1.1275
71495SOL    HW232478   5.637   5.475   5.948 -0.1633  0.6467 -0.2200
71496SOL     OW32479   9.159  11.473   7.960 -0.4044  0.2336  0.9152
71496SOL    HW132480   9.184  11.469   7.868  2.7076  0.3003  1.6517
71496SOL    HW232481   9.182  11.561   7.988 -1.0908  0.1417  1.8142
71497SOL     OW32482   9.095   3.588   7.952  0.1416 -0.7964 -0.0639
71497SOL    HW132483   9.044   3.521   7.997 -4.1581  2.4378  0.5905
71497SOL    HW232484   9.140   3.636   8.022  0.3905 -0.8888 -0.1591
71498SOL     OW32485  10.452   8.178  11.540  0.7700 -0.0504 -0.1463
71498SOL    HW132486  10.530   8.125  11.561 -0.2586 -0.6375  2.7591
71498SOL    HW232487  10.468   8.261  11.584  0.9871  0.9445 -2.0321
71499SOL     OW32488   8.159   2.769   8.735  0.1289  0.6110 -0.0033
71499SOL    HW132489   8.137   2.862   8.740 -0.6313  0.4434 -0.0861
71499SOL    HW232490   8.218   2.754   8.809 -0.4518  0.9712  0.5332
71500SOL     OW32491  12.000   5.439   7.315  0.0931  0.1478 -0.0835
71500SOL    HW132492  11.996   5.454   7.221 -1.5383  2.2571  0.2370
71500SOL    HW232493  12.087   5.467   7.341  0.1769  0.5746 -0.8173
71501SOL     OW32494   9.844  14.013   3.234  0.0517  1.1001  0.4611
71501SOL    HW132495   9.768  13.975   3.279  1.2792 -0.9387  0.9670
71501SOL    HW232496   9.902  14.039   3.305 -0.2392  2.9006  0.0795
71502SOL     OW32497   6.242   8.687   9.129 -0.3375  0.0979 -0.4189
71502SOL    HW132498   6.232   8.754   9.062  0.0555  0.0736 -0.5063
71502SOL    HW232499   6.152   8.663   9.153 -0.4780  0.6240 -0.4129
71503SOL     OW32500   2.268   4.294  13.038 -0.4497 -0.0049  0.2385
71503SOL    HW132501   2.190   4.350  13.033 -0.7504 -0.3793  0.5913
71503SOL    HW232502   2.238   4.209  13.005 -0.6897 -0.6496  2.0268
71504SOL     OW32503   2.768   0.006   7.708  0.2978 -0.0068  0.5092
71504SOL    HW132504   2.863  -0.006   7.707  0.3476  0.4004  0.2254
71504SOL    HW232505   2.734  -0.077   7.741  0.7835  0.0506  1.1642
71505SOL     OW32506  11.481   9.524   2.362  0.2424  0.1454  0.3270
71505SOL    HW132507  11.520   9.438   2.352  0.8476  0.4685 -0.2064
71505SOL    HW232508  11.468   9.555   2.272  2.2589  1.5764  0.4601
71506SOL     OW32509   0.691   8.805   9.126 -0.1299  0.3004 -0.1981
71506SOL    HW132510   0.714   8.713   9.116 -0.3894  0.2039  0.0635
71506SOL    HW232511   0.595   8.807   9.117 -0.1557  0.5000  0.1014
71507SOL     OW32512   2.287  13.827   0.351 -0.0741  0.3437  0.0336
71507SOL    HW132513   2.348  13.758   0.374 -0.0024 -0.2198 -1.7582
71507SOL    HW232514   2.244  13.849   0.434  0.4097 -1.3351  0.7675
71508SOL     OW32515   9.573   5.867   3.017 -0.0547 -0.5068 -0.0816
71508SOL    HW132516   9.558   5.870   3.111  4.0238  0.5043  0.7185
71508SOL    HW232517   9.587   5.774   2.998  0.5509 -0.5616  0.6142
71509SOL     OW32518  10.390   2.510   4.840 -0.1701  0.3932  0.0562
71509SOL    HW132519  10.393   2.561   4.921 -0.0400  0.3579  0.0744
71509SOL    HW232520  10.345   2.429   4.864  0.8344 -0.0926  0.3647
71510SOL     OW32521  10.923   0.865   5.140 -0.2416  0.3992 -0.3165
71510SOL    HW132522  10.854   0.898   5.083 -1.1293 -0.8829 -0.0279
71510SOL    HW232523  10.925   0.927   5.213 -1.1200  0.4167 -0.3018
71511SOL     OW32524  11.989   2.190   2.401 -0.1313  0.2902  0.4242
71511SOL    HW132525  12.076   2.176   2.438  0.2525  0.7176 -0.3069
71511SOL    HW232526  11.942   2.109   2.420  0.2647  0.2465  1.2619
71512SOL     OW32527  11.804   9.792   6.790  0.1867  0.2056  0.4292
71512SOL    HW132528  11.831   9.754   6.874  0.6214 -1.0069 -0.2440
71512SOL    HW232529  11.887   9.809   6.744 -0.0632 -1.5747 -0.7895
71513SOL     OW32530   8.373  13.298   1.995 -0.1776 -0.1710 -0.1334
71513SOL    HW132531   8.441  13.256   2.046 -0.0609  0.4033  0.1910
71513SOL    HW232532   8.291  13.265   2.032 -0.1043  0.5841  0.7406
71514SOL     OW32533   8.811  10.124   1.959  0.7936 -0.3968  0.0453
71514SOL    HW132534   8.777  10.040   1.992  1.6615  0.1516  2.5326
71514SOL    HW232535   8.734  10.180   1.954  0.4949 -0.7757  0.2779
71515SOL     OW32536   2.635   3.843  11.114  0.0310  0.0295 -0.3407
71515SOL    HW132537   2.693   3.792  11.057 -0.3202  0.1776 -0.8452
71515SOL    HW232538   2.682   3.925  11.130  0.9084 -0.7092  1.0529
71516SOL     OW32539   2.587   5.882   6.838  0.1774 -0.3110  0.7822
71516SOL    HW132540   2.648   5.808   6.839  1.0169  0.2962 -0.7758
71516SOL    HW232541   2.605   5.930   6.919  1.0810 -0.6982  0.8193
71517SOL     OW32542  10.658   9.354  13.917  0.2606 -0.3037 -0.1197
71517SOL    HW132543  10.696   9.382  14.001 -0.0788 -0.8775  0.2340
71517SOL    HW232544  10.568   9.332  13.939  0.1852 -0.5035 -0.6323
71518SOL     OW32545   7.572   6.620   3.280 -0.1190  0.3447  0.2673
71518SOL    HW132546   7.631   6.580   3.343 -0.1390  0.2091  0.2002
71518SOL    HW232547   7.507   6.552   3.261 -0.5778  0.6464  0.7018
71519SOL     OW32548   8.841   1.095  13.778  0.2226  0.5820  0.3393
71519SOL    HW132549   8.767   1.152  13.756 -0.0006  0.2406  0.2117
71519SOL    HW232550   8.842   1.093  13.874  0.4925  1.1388  0.3581
71520SOL     OW32551   5.357   3.364   9.674  0.9759 -0.3172 -0.5273
71520SOL    HW132552   5.452   3.357   9.671  0.9376 -0.8144 -0.8091
71520SOL    HW232553   5.330   3.291   9.731  0.8429  0.6425  0.6724
71521SOL     OW32554   4.206  11.093   9.344  0.3668  0.1587  0.6425
71521SOL    HW132555   4.126  11.109   9.394 -0.0745  0.2440 -0.0781
71521SOL    HW232556   4.214  10.998   9.341 -0.2591  0.1205 -0.1287
71522SOL     OW32557   2.969   7.542   3.197 -0.0356 -0.5455  0.0129
71522SOL    HW132558   3.016   7.482   3.254  0.5552  1.9624  2.3238
71522SOL    HW232559   3.011   7.627   3.210 -2.9618  1.1208 -0.4819
71523SOL     OW32560   6.465   2.444   3.921 -0.6679 -0.2725  0.4906
71523SOL    HW132561   6.431   2.496   3.994 -0.2570  0.3100  0.2633
71523SOL    HW232562   6.560   2.449   3.930 -0.6128 -1.4847  0.8210
71524SOL     OW32563   6.460  12.427   2.673 -0.3322  0.6278 -0.3144
71524SOL    HW132564   6.524  12.393   2.736  0.0167 -1.3528 -1.6444
71524SOL    HW232565   6.409  12.491   2.723  1.2666  0.6719  1.3747
71525SOL     OW32566   0.952   3.506   0.865 -0.0194 -0.2964  0.0197
71525SOL    HW132567   1.012   3.469   0.800 -0.7417  0.2185 -0.9751
71525SOL    HW232568   0.865   3.478   0.836 -0.3366 -0.3524  0.9809
71526SOL     OW32569  10.409  10.195   0.225  0.1217  1.0681  0.0706
71526SOL    HW132570  10.315  10.208   0.224  0.2058  1.6672 -0.6593
71526SOL    HW232571  10.427  10.155   0.310 -0.8740  0.2511 -0.0878
71527SOL     OW32572   2.192   3.723  10.526 -0.0622 -0.0882  0.1486
71527SOL    HW132573   2.161   3.662  10.593 -0.1102  1.0504  1.2038
71527SOL    HW232574   2.144   3.804  10.544  0.4779  0.4620 -0.8054
71528SOL     OW32575  11.188  13.763   9.349 -0.0959  0.1730  0.0967
71528SOL    HW132576  11.172  13.840   9.295 -0.4653 -0.1360 -0.2373
71528SOL    HW232577  11.268  13.784   9.397 -1.0152  1.3732  1.1475
71529SOL     OW32578   0.981   9.472   8.345 -0.1370 -0.2308 -0.1409
71529SOL    HW132579   0.976   9.409   8.272  0.3325 -0.3948 -0.0384
71529SOL    HW232580   1.049   9.436   8.402  0.0612  0.3193 -0.0273
71530SOL     OW32581   7.744  10.010   5.554 -0.0935 -0.4140 -0.6060
71530SOL    HW132582   7.719  10.085   5.607  0.7312  0.4703 -1.4277
71530SOL    HW232583   7.808   9.963   5.607  1.1610  0.7821 -1.0151
71531SOL     OW32584   4.895   7.001  12.282  0.1869 -0.5543 -0.3583
71531SOL    HW132585   4.883   6.907  12.294 -0.7058 -0.5717 -1.2657
71531SOL    HW232586   4.954   7.008  12.208  1.4162 -0.3955  0.6065
71532SOL     OW32587   0.135  12.691   3.818  0.5056  0.3073  0.5922
71532SOL    HW132588   0.121  12.768   3.763  0.4299  0.7478  1.2195
71532SOL    HW232589   0.228  12.671   3.809  0.7645  1.1236  1.2472
71533SOL     OW32590  12.409   7.606   4.876  0.0918 -0.8241  0.0013
71533SOL    HW132591  12.467   7.531   4.892 -0.1310 -1.4612 -1.8654
71533SOL    HW232592  12.362   7.618   4.959  1.9017 -1.1421  1.1245
71534SOL     OW32593   8.931   5.869  13.542 -0.0144 -0.1669 -0.2519
71534SOL    HW132594   8.954   5.936  13.478 -0.3751 -0.4806 -0.7113
71534SOL    HW232595   9.005   5.867  13.602  0.2066  0.3162 -0.5051
71535SOL     OW32596   7.365  13.462  13.142  0.0570 -0.0105  0.4334
71535SOL    HW132597   7.414  13.523  13.087  1.0446 -2.7430 -1.9736
71535SOL    HW232598   7.276  13.463  13.106  0.2760 -0.5627 -0.1283
71536SOL     OW32599   4.063   2.934  13.332  0.0078  0.2045 -0.4943
71536SOL    HW132600   4.030   3.023  13.317 -0.7751  0.1245  0.6442
71536SOL    HW232601   4.146   2.947  13.378 -0.5965  0.3596  0.5979
71537SOL     OW32602   1.296   4.636   9.501 -0.0831  0.0515  0.5145
71537SOL    HW132603   1.234   4.690   9.551  0.2673  0.2153  0.7753
71537SOL    HW232604   1.288   4.549   9.538 -0.9849 -0.1850 -0.2100
71538SOL     OW32605   0.529   1.051  13.272  0.5950 -0.2712 -0.1938
71538SOL    HW132606   0.483   1.095  13.343 -0.1291 -0.5940 -0.4602
71538SOL    HW232607   0.472   1.060  13.196  1.0966 -0.4293 -0.5975
71539SOL     OW32608   7.283   3.382  12.990  0.5293  0.2399  0.2481
71539SOL    HW132609   7.192   3.362  12.969  1.0174  0.4083 -2.2392
71539SOL    HW232610   7.321   3.410  12.908  2.7391  0.6376  1.3452
71540SOL     OW32611  13.003   0.960  12.904 -0.1422 -0.1054  0.8557
71540SOL    HW132612  12.955   1.040  12.881  0.8244  0.3307  0.3368
71540SOL    HW232613  12.989   0.951  12.998 -1.9349 -0.4564  0.6090
71541SOL     OW32614   7.076   1.653   3.226  0.5531  0.3778 -0.4990
71541SOL    HW132615   6.985   1.668   3.201  0.4909  0.3109 -0.3117
71541SOL    HW232616   7.086   1.558   3.228  1.0723  0.3704 -2.1274
71542SOL     OW32617   1.096  11.043   0.942 -0.0575  0.1695 -0.1752
71542SOL    HW132618   1.070  11.047   0.850  0.6872  0.6216 -0.3813
71542SOL    HW232619   1.142  10.959   0.950  3.0109  1.5907 -1.1388
71543SOL     OW32620   3.830  14.106   8.851 -0.0436 -0.1343 -0.1780
71543SOL    HW132621   3.890  14.042   8.890  0.8274 -1.0189 -2.7680
71543SOL    HW232622   3.777  14.055   8.790  1.1617  1.6305 -2.8788
71544SOL     OW32623   0.782   5.780  13.748 -0.1855 -0.1529  0.1692
71544SOL    HW132624   0.777   5.686  13.733 -1.7023 -0.3588  1.6535
71544SOL    HW232625   0.857   5.791  13.807 -0.3382 -0.4962  0.4296
71545SOL     OW32626   9.908   0.843   7.084  0.2776 -0.0047  0.1963
71545SOL    HW132627   9.853   0.864   7.160  0.2879  1.4741 -0.1765
71545SOL    HW232628   9.960   0.768   7.113 -1.3537 -0.9625  0.8310
71546SOL     OW32629  13.748  13.464   8.030 -0.5285  0.1298 -0.0555
71546SOL    HW132630  13.656  13.476   8.008 -0.4227  1.2617  0.0612
71546SOL    HW232631  13.782  13.553   8.042  0.6686 -0.2512 -0.4509
71547SOL     OW32632  12.458   2.060   9.943  0.1667 -0.1215  0.1312
71547SOL    HW132633  12.399   2.110   9.886  1.9974  0.4888 -1.3428
71547SOL    HW232634  12.488   2.124  10.008  0.4584  0.0145 -0.1325
71548SOL     OW32635  10.022   3.128   0.021  0.6626  0.3584  0.0774
71548SOL    HW132636   9.967   3.050   0.018 -0.6540  1.1134  2.2014
71548SOL    HW232637  10.013   3.168  -0.065 -0.7634 -0.4487 -0.1621
71549SOL     OW32638   2.801  11.320  13.106 -0.4583  0.0475  0.4305
71549SOL    HW132639   2.891  11.294  13.089 -0.1079  1.5732 -0.1442
71549SOL    HW232640   2.798  11.336  13.201  0.0051  0.5021  0.3669
71550SOL     OW32641   5.583   6.449   1.869 -0.0355  0.7217 -0.0474
71550SOL    HW132642   5.608   6.541   1.859 -1.9610  1.1824 -1.1715
71550SOL    HW232643   5.504   6.451   1.923  0.4743 -0.3872  0.7821
71551SOL     OW32644   5.506  11.909  13.540 -0.3248  0.0499 -0.2289
71551SOL    HW132645   5.484  11.881  13.451  1.1000 -0.0945 -0.5489
71551SOL    HW232646   5.505  11.828  13.591  0.1963 -0.0674 -0.3998
71552SOL     OW32647   7.067   8.486   2.752 -0.7449  0.1911 -0.1007
71552SOL    HW132648   6.982   8.501   2.710 -1.1508  0.0378  0.6483
71552SOL    HW232649   7.062   8.535   2.834 -0.4109 -0.4502  0.3112
71553SOL     OW32650  13.298   4.785   3.517 -0.0842  0.1750 -0.0701
71553SOL    HW132651  13.392   4.780   3.532 -0.1829  0.4980  0.7413
71553SOL    HW232652  13.259   4.768   3.603 -0.6684  3.3016  0.3974
71554SOL     OW32653  13.263  13.618   9.822  0.0799  0.0697 -0.2848
71554SOL    HW132654  13.256  13.713   9.827 -1.9455 -0.0685  0.3592
71554SOL    HW232655  13.218  13.595   9.740  1.9040 -0.2743 -1.2556
71555SOL     OW32656   9.786  13.291  12.625 -0.5473  0.4272 -0.1898
71555SOL    HW132657   9.728  13.269  12.698  0.6508 -1.0614  0.3841
71555SOL    HW232658   9.731  13.339  12.563 -1.9905  0.3499  0.9904
71556SOL     OW32659  13.878   3.488   9.124  0.0299  0.4599  0.2491
71556SOL    HW132660  13.818   3.517   9.055  1.4226 -0.0760 -1.2440
71556SOL    HW232661  13.910   3.569   9.163 -1.3716  0.7620  0.8505
71557SOL     OW32662   5.765   8.136   3.941  0.3465  0.3787  0.2922
71557SOL    HW132663   5.814   8.218   3.941  2.0364 -0.5672  1.4052
71557SOL    HW232664   5.737   8.125   4.032 -0.2258 -0.0626  0.0652
71558SOL     OW32665   0.138  10.808  13.334 -0.2985 -0.4400 -0.2090
71558SOL    HW132666   0.097  10.827  13.419 -0.7383  2.0757 -0.9090
71558SOL    HW232667   0.098  10.869  13.273 -0.6557 -2.7860 -2.4995
71559SOL     OW32668   1.505   0.894   5.605  0.3669 -0.4347  0.6982
71559SOL    HW132669   1.564   0.921   5.535 -0.3755  1.0208  0.6035
71559SOL    HW232670   1.512   0.798   5.606  0.5569 -0.4888 -1.2267
71560SOL     OW32671   8.784   5.287  14.108  0.3524  0.0116 -0.1151
71560SOL    HW132672   8.771   5.346  14.182  2.1582  0.9086 -0.4326
71560SOL    HW232673   8.786   5.345  14.032  0.0802 -0.7102 -0.6831
71561SOL     OW32674   6.851  12.810  13.673 -0.2889  0.3642  0.0453
71561SOL    HW132675   6.913  12.801  13.745  0.8192 -1.2696 -1.0420
71561SOL    HW232676   6.782  12.866  13.708 -0.1320 -0.8967  2.5792
71562SOL     OW32677  10.809   9.530   6.146 -0.2867  0.1869  0.5052
71562SOL    HW132678  10.769   9.513   6.062 -0.1318  1.9891  0.0171
71562SOL    HW232679  10.804   9.447   6.193 -1.4528 -0.5249 -0.8191
71563SOL     OW32680  12.799   8.624   2.417  0.1875  0.3599 -0.0367
71563SOL    HW132681  12.705   8.622   2.397  0.3830 -0.1291 -0.9620
71563SOL    HW232682  12.818   8.538   2.453 -0.0168  1.0016  1.6796
71564SOL     OW32683   3.520   3.901   9.315 -0.0678 -0.4676 -0.9211
71564SOL    HW132684   3.447   3.905   9.377  0.1721  1.2439 -0.6861
71564SOL    HW232685   3.598   3.904   9.371  0.1500  1.0019 -1.2610
71565SOL     OW32686   9.617   5.291   7.147  0.3365 -0.0695  0.5208
71565SOL    HW132687   9.653   5.343   7.076 -1.7054 -0.1736 -0.6513
71565SOL    HW232688   9.687   5.230   7.170  1.0748  0.0399 -1.3283
71566SOL     OW32689   3.867  12.836  10.956  0.0020 -0.4596  0.5477
71566SOL    HW132690   3.959  12.843  10.929 -0.4894 -0.7180 -1.3740
71566SOL    HW232691   3.847  12.920  10.997  0.6280  0.3293 -0.6842
71567SOL     OW32692  13.532   6.066   8.087 -0.1904  0.1323 -0.3105
71567SOL    HW132693  13.467   6.135   8.104  0.1204  0.3474  0.0094
71567SOL    HW232694  13.562   6.039   8.174  0.9486  0.7999 -0.4773
71568SOL     OW32695   3.029   5.827   6.252  0.0208 -0.2901  0.5046
71568SOL    HW132696   2.955   5.837   6.311 -0.0884 -1.8408  0.6798
71568SOL    HW232697   2.991   5.827   6.164 -0.3787 -2.1885  0.6293
71569SOL     OW32698   2.664  13.803  11.046 -0.6212  0.7019 -0.4667
71569SOL    HW132699   2.629  13.725  11.087 -1.2200  0.8710 -0.6577
71569SOL    HW232700   2.659  13.786  10.952 -0.3213  0.7829 -0.4984
71570SOL     OW32701  11.777   3.214   2.705  0.5283  0.0948  0.3843
71570SOL    HW132702  11.728   3.133   2.691 -0.7781  0.7606  0.8880
71570SOL    HW232703  11.714   3.272   2.748  1.4546  1.3587  0.0791
71571SOL     OW32704  11.119   7.953  12.229 -0.5778  0.3314  0.1007
71571SOL    HW132705  11.057   8.007  12.278  1.1834  0.6831  2.0971
71571SOL    HW232706  11.182   7.924  12.295 -0.5350 -2.8948 -1.1770
71572SOL     OW32707  12.936  11.388   1.210  0.2557 -0.0542 -0.3014
71572SOL    HW132708  12.869  11.343   1.261  1.8744 -3.0531 -0.6038
71572SOL    HW232709  12.992  11.430   1.275 -1.1582  1.5002 -0.0041
71573SOL     OW32710   0.420   5.773   4.011 -0.0199  0.0994  0.7218
71573SOL    HW132711   0.369   5.831   3.955 -0.3191 -0.6561  0.1914
71573SOL    HW232712   0.454   5.830   4.080  0.8878  1.1644 -0.5654
71574SOL     OW32713  13.713  10.542   5.346 -0.2742 -0.7895 -0.2137
71574SOL    HW132714  13.739  10.462   5.301  0.1259 -1.5440  1.2943
71574SOL    HW232715  13.635  10.517   5.395  1.1499 -0.9609  2.1091
71575SOL     OW32716   8.844  10.164   0.195  0.0738  0.2074 -1.0580
71575SOL    HW132717   8.864  10.078   0.233 -2.1492  0.4312  0.8763
71575SOL    HW232718   8.922  10.217   0.213  0.9419 -1.0333 -1.0678
71576SOL     OW32719   3.165   0.932  12.782  0.2336 -0.2126  0.0657
71576SOL    HW132720   3.104   1.006  12.788 -0.7816 -1.1390  2.6671
71576SOL    HW232721   3.117   0.858  12.820  2.0851 -1.6196 -0.1906
71577SOL     OW32722  12.292   0.191   5.667  0.3809 -0.3329  0.4330
71577SOL    HW132723  12.269   0.235   5.750  1.5221 -0.3372  0.7613
71577SOL    HW232724  12.378   0.225   5.645  0.3397 -0.7844 -0.4536
71578SOL     OW32725   7.617  10.855   8.848  0.1861  0.3597 -0.1019
71578SOL    HW132726   7.701  10.834   8.888  1.1615  0.8671 -1.7960
71578SOL    HW232727   7.622  10.948   8.828  0.0596  0.0087 -2.0074
71579SOL     OW32728  13.820   6.485   0.029 -0.0397 -0.0691  0.5911
71579SOL    HW132729  13.842   6.474  -0.064  0.3285  3.3520  0.1382
71579SOL    HW232730  13.786   6.400   0.056  1.3156 -1.6488 -2.2435
71580SOL     OW32731   2.839   3.008   0.568  0.3748 -0.1466  0.1640
71580SOL    HW132732   2.825   2.998   0.662 -1.3114  0.6928  0.0294
71580SOL    HW232733   2.902   3.080   0.560  1.4049 -0.9655  0.6580
71581SOL     OW32734   8.392  12.413   4.351  0.0138  0.0342  0.2444
71581SOL    HW132735   8.455  12.353   4.311 -0.0749  0.2734 -0.2731
71581SOL    HW232736   8.314  12.360   4.364 -0.3304  0.2022 -0.9362
71582SOL     OW32737   8.219   5.516  14.099 -0.0749 -0.4631 -0.3897
71582SOL    HW132738   8.240   5.491  14.009 -0.5815 -0.0071 -0.6415
71582SOL    HW232739   8.303   5.545  14.136  0.4233 -1.9753 -0.2474
71583SOL     OW32740  13.950  12.115  11.197  0.3845  0.0669  0.1921
71583SOL    HW132741  13.945  12.194  11.143 -0.1632  1.5517  2.2722
71583SOL    HW232742  13.858  12.094  11.217  0.5910  0.2941  1.4978
71584SOL     OW32743   4.509   5.931  11.067 -0.4654 -0.1690  0.0473
71584SOL    HW132744   4.499   5.838  11.050  0.0149 -0.2357  0.1022
71584SOL    HW232745   4.592   5.937  11.115 -1.0828  0.1537  1.0996
71585SOL     OW32746   4.726   2.465  14.121 -0.4177  0.0305  0.3818
71585SOL    HW132747   4.671   2.433  14.049  0.0283  0.0653  0.0173
71585SOL    HW232748   4.665   2.482  14.193 -0.7651 -0.7964  0.2855
71586SOL     OW32749  13.744   6.145   0.066  0.0492  0.0507 -0.1005
71586SOL    HW132750  13.689   6.111  -0.005 -0.0781  0.2642 -0.1046
71586SOL    HW232751  13.807   6.075   0.083 -0.4485 -0.3399  0.1496
71587SOL     OW32752  10.859   5.295  13.803  0.5629  0.4575  0.0714
71587SOL    HW132753  10.803   5.362  13.843 -0.0106  1.2716 -1.9790
71587SOL    HW232754  10.934   5.289  13.862  0.1439  2.1711  0.8419
71588SOL     OW32755  11.766   6.529  11.575  0.0630  0.2012 -0.1385
71588SOL    HW132756  11.836   6.537  11.640  0.6046  2.2792 -0.9182
71588SOL    HW232757  11.688   6.563  11.619  0.0593  0.0702 -0.0418
71589SOL     OW32758  11.558   0.816   0.255  0.3168  1.0338  0.6350
71589SOL    HW132759  11.520   0.827   0.168 -0.2175 -0.3927  0.6502
71589SOL    HW232760  11.489   0.770   0.304  1.8815 -1.3360  0.7748
71590SOL     OW32761  10.292   6.669   3.453 -0.5126 -0.1647 -0.4586
71590SOL    HW132762  10.244   6.593   3.422 -3.0707  0.7965  0.8350
71590SOL    HW232763  10.231   6.743   3.440  0.9002  1.2599  0.5632
71591SOL     OW32764   9.215   5.332  12.091 -0.4393 -0.0005  0.1760
71591SOL    HW132765   9.226   5.253  12.039 -1.0631 -0.3841  0.6012
71591SOL    HW232766   9.248   5.308  12.178 -1.5853 -0.1591  0.5963
71592SOL     OW32767   5.143   7.282   6.050  0.4715  0.5357 -0.1521
71592SOL    HW132768   5.121   7.246   6.136 -3.1770  2.3025 -0.1704
71592SOL    HW232769   5.117   7.213   5.988  0.0765  0.4868  0.0653
71593SOL     OW32770   2.142  13.324  13.420 -0.1561 -0.3493  0.7194
71593SOL    HW132771   2.122  13.355  13.332  0.6921 -1.3097  0.1731
71593SOL    HW232772   2.100  13.238  13.425  0.6197 -0.7280  0.8939
71594SOL     OW32773   8.158   4.545   9.851  0.1170 -0.0690 -0.7169
71594SOL    HW132774   8.241   4.567   9.808 -0.0504  1.1572 -0.4432
71594SOL    HW232775   8.173   4.457   9.887  0.8983 -0.3401 -1.6495
71595SOL     OW32776   9.681   1.665   1.929 -0.3376 -0.2427  0.4343
71595SOL    HW132777   9.613   1.724   1.897 -1.6920 -2.2652 -0.6896
71595SOL    HW232778   9.758   1.720   1.940 -1.5179  1.7120 -0.4942
71596SOL     OW32779  10.591   4.836  13.619  0.1180  0.0451 -0.3016
71596SOL    HW132780  10.516   4.777  13.615 -0.6130  0.7727  1.4922
71596SOL    HW232781  10.632   4.818  13.703  0.1837  1.6989  0.0569
71597SOL     OW32782   4.693   7.970  12.059 -0.3212  0.5782 -0.2906
71597SOL    HW132783   4.712   8.057  12.093  0.0660  0.3558  0.0689
71597SOL    HW232784   4.666   7.985  11.968 -2.2910  1.2827  0.3493
71598SOL     OW32785   9.615  10.729   2.620 -0.0675  0.0010 -0.1260
71598SOL    HW132786   9.591  10.788   2.691 -0.2798  1.7729 -1.6126
71598SOL    HW232787   9.696  10.687   2.650  0.0692  1.0185  0.9878
71599SOL     OW32788   8.975   0.671   0.989  0.1783  0.2816  0.1772
71599SOL    HW132789   8.901   0.730   0.972 -0.5304  0.5092  3.4185
71599SOL    HW232790   9.045   0.727   1.021  0.4959 -0.3164  0.5633
71600SOL     OW32791   5.778   5.458   8.114  0.2621 -0.2331 -0.4024
71600SOL    HW132792   5.688   5.431   8.095 -0.5849  2.3892 -0.6027
71600SOL    HW232793   5.811   5.490   8.030  0.2289  1.6961  0.2704
71601SOL     OW32794   0.995   6.876  13.548 -0.4483  0.1926 -0.1873
71601SOL    HW132795   0.915   6.848  13.504  0.8074 -0.8439 -1.9818
71601SOL    HW232796   1.019   6.802  13.604 -0.6301  0.4245  0.2023
71602SOL     OW32797   9.357   0.111  13.216 -0.0431 -0.1908 -0.1054
71602SOL    HW132798   9.397   0.187  13.260 -0.5904  0.1111 -0.1222
71602SOL    HW232799   9.380   0.036  13.271 -3.4903  0.5259  2.6513
71603SOL     OW32800   2.252   7.686   3.478  0.2785  0.1969  0.1227
71603SOL    HW132801   2.267   7.678   3.383  1.1391 -0.3261  0.2900
71603SOL    HW232802   2.330   7.731   3.510  0.4099 -0.4481  0.7117
71604SOL     OW32803   4.535  12.161   8.900  0.3638  0.6495  0.4679
71604SOL    HW132804   4.523  12.168   8.995  0.7948  0.2516  0.5522
71604SOL    HW232805   4.447  12.143   8.866  0.2618  0.4800  0.8190
71605SOL     OW32806  11.911   4.710   9.021 -0.3879  0.1040 -0.3859
71605SOL    HW132807  11.839   4.745   9.072 -0.4207 -1.5049  0.7187
71605SOL    HW232808  11.963   4.787   8.996 -0.3860  0.9524  2.0543
71606SOL     OW32809   2.019   8.777   1.858 -0.6153  0.0692 -0.0865
71606SOL    HW132810   1.940   8.775   1.804 -0.1967 -0.4638 -0.6795
71606SOL    HW232811   2.001   8.845   1.923 -1.8051 -0.4570  0.1575
71607SOL     OW32812   9.626   4.366  12.293 -0.0192 -0.3920 -0.0427
71607SOL    HW132813   9.590   4.391  12.379 -2.0579  1.7178 -1.3623
71607SOL    HW232814   9.621   4.271  12.292  0.0130 -0.4832  2.1335
71608SOL     OW32815  11.331   7.818   6.664  0.8828 -0.1102  0.0718
71608SOL    HW132816  11.332   7.878   6.590  1.6997 -0.7559 -0.4566
71608SOL    HW232817  11.251   7.767   6.653  0.9499 -0.1325 -0.3043
71609SOL     OW32818  13.904  13.702  10.069  0.4484  0.3058 -0.1054
71609SOL    HW132819  13.910  13.768  10.138  1.7140  0.0934  0.0066
71609SOL    HW232820  13.965  13.733  10.002 -0.8466  0.5783 -1.2137
71610SOL     OW32821  10.300   3.637   8.128 -0.1467  0.3904 -0.3543
71610SOL    HW132822  10.389   3.608   8.108  0.1486  0.6667  0.5292
71610SOL    HW232823  10.261   3.564   8.174  1.4925  2.1580  4.4132
71611SOL     OW32824  11.013   3.321   6.070  0.3026  0.0554 -0.3774
71611SOL    HW132825  11.061   3.277   6.001  0.4285 -2.1331  1.0053
71611SOL    HW232826  11.055   3.407   6.078  1.2736 -0.2350 -1.9343
71612SOL     OW32827   9.244   6.612   5.022  0.4136 -0.0372  0.1619
71612SOL    HW132828   9.311   6.546   5.002  0.8732  0.5663 -0.3130
71612SOL    HW232829   9.284   6.695   4.997 -1.2872  0.1650 -2.3068
71613SOL     OW32830  13.778   2.235  13.346  0.5476 -0.2893 -0.3106
71613SOL    HW132831  13.725   2.192  13.279 -1.7298  1.3373  0.3350
71613SOL    HW232832  13.756   2.189  13.427  0.9190 -0.2522 -0.1872
71614SOL     OW32833   1.779   4.300  12.252  0.2357  0.6022  0.9228
71614SOL    HW132834   1.804   4.217  12.212  1.5434  0.5074  1.8870
71614SOL    HW232835   1.697   4.281  12.297  0.5094 -0.1750  1.1189
71615SOL     OW32836   3.163  10.201   7.656  0.1274  0.0201 -0.6000
71615SOL    HW132837   3.085  10.164   7.616  0.0690 -1.4937  0.8035
71615SOL    HW232838   3.234  10.180   7.595 -0.5475  1.7333 -2.0662
71616SOL     OW32839   8.562  10.380   6.760  0.5503  0.6104  0.5107
71616SOL    HW132840   8.530  10.304   6.710  1.8103  0.0334  0.5440
71616SOL    HW232841   8.628  10.419   6.704  0.5575  1.1475  0.8920
71617SOL     OW32842  10.764  13.139  10.283  0.2826  0.3776  0.8379
71617SOL    HW132843  10.751  13.152  10.189  0.2203 -0.5784  0.7001
71617SOL    HW232844  10.723  13.215  10.324 -0.3670  0.4259  0.1268
71618SOL     OW32845   2.144   4.368  13.350  0.2189 -0.2326  0.3183
71618SOL    HW132846   2.221   4.338  13.398 -0.5513 -3.8808 -0.4384
71618SOL    HW232847   2.075   4.373  13.416  0.3889  0.0366  0.4776
71619SOL     OW32848  10.698   2.181   9.598  0.1972 -0.1255 -0.1949
71619SOL    HW132849  10.771   2.167   9.659  0.4454 -0.1408 -0.4933
71619SOL    HW232850  10.655   2.096   9.593 -0.5627  0.1737  0.8999
71620SOL     OW32851   5.677  14.105   0.530  0.0508 -0.0020 -0.0064
71620SOL    HW132852   5.631  14.148   0.602 -1.0266 -0.1794 -0.5738
71620SOL    HW232853   5.638  14.018   0.525  0.6367 -0.2505 -0.3281
71621SOL     OW32854  13.655  13.451   3.732 -0.4289  0.3197  0.3625
71621SOL    HW132855  13.698  13.367   3.746 -0.4401  0.5217  1.8229
71621SOL    HW232856  13.713  13.499   3.673  0.3955 -0.1163  0.8039
71622SOL     OW32857   8.996   7.404  13.283  0.3178 -0.1372 -0.0784
71622SOL    HW132858   9.008   7.311  13.266 -1.8520 -0.3196 -0.8827
71622SOL    HW232859   9.036   7.419  13.368 -1.5602 -2.3732  1.3008
71623SOL     OW32860   7.702   4.344   6.348  0.4854  0.0389  0.0524
71623SOL    HW132861   7.683   4.283   6.419  0.3946 -0.3761 -0.3282
71623SOL    HW232862   7.692   4.431   6.388 -4.4605  0.0518 -0.5251
71624SOL     OW32863   8.884   8.346   5.262 -0.4342  0.1277  0.0776
71624SOL    HW132864   8.818   8.399   5.216 -0.2475  0.4650  0.1972
71624SOL    HW232865   8.833   8.291   5.322 -0.7024 -0.4865 -0.6855
71625SOL     OW32866   7.347   7.464   7.168 -0.2047  0.6944 -0.0304
71625SOL    HW132867   7.350   7.497   7.258  1.1819  0.4552  0.0279
71625SOL    HW232868   7.253   7.461   7.147 -0.6007  5.8617 -0.4688
71626SOL     OW32869  10.064   4.390   5.334  1.0580 -0.0560 -0.1140
71626SOL    HW132870  10.102   4.466   5.289 -0.4639 -0.2563 -1.8325
71626SOL    HW232871  10.105   4.391   5.420  2.0079  1.9964 -0.5254
71627SOL     OW32872  10.380   7.794   4.785 -0.1167  0.2297  0.4443
71627SOL    HW132873  10.444   7.865   4.790  0.4605 -0.3460  1.4943
71627SOL    HW232874  10.352   7.793   4.693  2.7779 -0.7204 -0.5495
71628SOL     OW32875  13.756   1.290   8.943  0.1216  0.0815 -0.3972
71628SOL    HW132876  13.761   1.279   8.848  2.2703 -0.0844 -0.3175
71628SOL    HW232877  13.716   1.376   8.955 -0.1946  0.0990 -1.4518
71629SOL     OW32878   4.046  13.053  10.647 -0.2156 -0.4103  0.8520
71629SOL    HW132879   3.972  13.106  10.677 -0.6628 -0.5895  0.0930
71629SOL    HW232880   4.108  13.056  10.720 -1.5732 -1.4180  2.1342
71630SOL     OW32881  12.103   7.202   6.712  0.0856 -0.3102 -0.2093
71630SOL    HW132882  12.127   7.287   6.677  0.9570 -0.9526 -1.2355
71630SOL    HW232883  12.007   7.205   6.719  0.2205  1.3743  1.5051
71631SOL     OW32884   0.335   4.666  13.252 -0.5671 -0.1590 -0.1922
71631SOL    HW132885   0.422   4.707  13.248  0.1676 -1.1020  3.1630
71631SOL    HW232886   0.352   4.573  13.235 -1.3671 -0.0340 -1.9365
71632SOL     OW32887   5.331  12.243   7.500 -0.2754 -0.3826 -0.0799
71632SOL    HW132888   5.387  12.185   7.447 -0.6157  0.2291 -1.1340
71632SOL    HW232889   5.272  12.183   7.546  0.2946 -0.9503 -0.0676
71633SOL     OW32890   8.013   4.384   7.860 -0.1329  0.5871 -0.5937
71633SOL    HW132891   8.080   4.319   7.878  0.6220  1.1665 -1.1876
71633SOL    HW232892   7.933   4.349   7.899  0.4844 -0.1867 -0.0014
71634SOL     OW32893   9.496  12.578   4.575 -0.1554 -0.6035  0.5562
71634SOL    HW132894   9.539  12.661   4.595 -3.0127  0.7838  1.5867
71634SOL    HW232895   9.476  12.583   4.482 -0.6047  0.0602  0.6769
71635SOL     OW32896  12.624  13.495   7.619  0.5014 -0.4568 -0.3568
71635SOL    HW132897  12.572  13.500   7.538 -0.9222 -2.0219  0.4121
71635SOL    HW232898  12.644  13.586   7.640 -2.3142  0.2837 -0.4926
71636SOL     OW32899   0.184   2.009   3.951  0.0041  0.4009  0.2104
71636SOL    HW132900   0.219   2.031   4.038  0.5380 -0.1362  0.1321
71636SOL    HW232901   0.117   2.076   3.936  0.9163  1.3915  0.4084
71637SOL     OW32902  12.561   4.185   9.628 -0.2182 -0.3281  0.0392
71637SOL    HW132903  12.574   4.223   9.541 -1.3318  3.1819  1.2521
71637SOL    HW232904  12.466   4.175   9.636 -0.0643 -1.4948  0.5438
71638SOL     OW32905   5.427   6.832   4.366  0.2148  0.2603 -0.1254
71638SOL    HW132906   5.457   6.767   4.429 -0.5845 -0.2074 -0.2064
71638SOL    HW232907   5.486   6.824   4.291  0.9947  0.6215  0.4418
71639SOL     OW32908   1.501   8.332  12.554 -0.5840  1.1221 -0.2181
71639SOL    HW132909   1.514   8.269  12.624  0.2184  0.5802 -0.8300
71639SOL    HW232910   1.440   8.396  12.590  0.8418  1.6172  1.4584
71640SOL     OW32911   0.742   9.968   3.116  0.3522  0.0833  0.2420
71640SOL    HW132912   0.835   9.944   3.120  0.1476 -0.6801  0.5376
71640SOL    HW232913   0.698   9.901   3.167 -0.2936  0.8494  0.7079
71641SOL     OW32914   3.932   3.881  12.068  0.8208  0.6169  0.0120
71641SOL    HW132915   3.976   3.965  12.083  0.1933  0.6301  2.0727
71641SOL    HW232916   3.970   3.849  11.986  1.8770  2.3843 -0.2535
71642SOL     OW32917   5.946   3.512   0.768  0.2693 -0.1594  0.2419
71642SOL    HW132918   5.853   3.506   0.745  0.3653 -0.7249 -0.0265
71642SOL    HW232919   5.964   3.432   0.818  0.7401 -0.3405 -0.2002
71643SOL     OW32920  12.453   9.453   4.155  0.0116 -0.2212  0.7786
71643SOL    HW132921  12.519   9.453   4.225  0.4205 -1.2279  0.4085
71643SOL    HW232922  12.399   9.530   4.173  0.6243  0.0033  1.7185
71644SOL     OW32923   0.689   8.085  13.498 -0.3038  0.0947 -0.8342
71644SOL    HW132924   0.764   8.115  13.447  0.1140  0.2225 -0.1532
71644SOL    HW232925   0.717   8.001  13.535 -0.1762  0.5414  0.1054
71645SOL     OW32926  10.462  13.534   7.279  0.4014 -0.4679  0.2780
71645SOL    HW132927  10.427  13.478   7.210  0.4684  1.1117 -1.1159
71645SOL    HW232928  10.388  13.586   7.308  0.6769 -0.1332  0.3907
71646SOL     OW32929   1.181  13.208   3.309  0.2269  0.3524 -0.0749
71646SOL    HW132930   1.139  13.281   3.355  0.6271 -1.2569  3.1544
71646SOL    HW232931   1.109  13.154   3.277 -0.0672  1.4429 -1.3117
71647SOL     OW32932   9.289   8.661   3.967 -0.5094 -0.0517  0.0621
71647SOL    HW132933   9.297   8.653   4.062  0.0807  0.9682  0.1149
71647SOL    HW232934   9.306   8.754   3.949 -0.4697 -0.2567 -1.0549
71648SOL     OW32935  10.147   6.255   1.638  0.0845 -0.0760 -0.5003
71648SOL    HW132936  10.239   6.237   1.659  0.3653  0.6669 -1.0642
71648SOL    HW232937  10.101   6.175   1.665  0.6979  0.0364  0.9972
71649SOL     OW32938  10.345   3.652   8.818 -0.3393  0.1149 -0.3637
71649SOL    HW132939  10.301   3.582   8.770 -0.7912 -1.1066  1.6832
71649SOL    HW232940  10.405   3.607   8.877  0.6810  1.5687 -0.2293
71650SOL     OW32941   1.087  13.888  10.349 -0.4872 -0.1066 -0.9964
71650SOL    HW132942   1.076  13.820  10.283 -0.0904 -0.6051 -0.5521
71650SOL    HW232943   1.066  13.969  10.303 -2.1128 -0.6205 -1.2230
71651SOL     OW32944   5.871   9.969   8.947 -0.8567  0.3520  0.1209
71651SOL    HW132945   5.817  10.015   9.012 -1.2756 -0.9130  0.6941
71651SOL    HW232946   5.918   9.903   8.998 -0.2799  0.1193 -0.6986
71652SOL     OW32947  11.488   4.324   1.651  0.5104 -0.2992  0.1547
71652SOL    HW132948  11.415   4.371   1.693  1.9816  0.0472  2.4973
71652SOL    HW232949  11.530   4.389   1.595  0.4850  0.2241  0.7306
71653SOL     OW32950   6.382   5.373   7.733 -0.0099 -0.3370  0.5364
71653SOL    HW132951   6.473   5.402   7.722 -0.3529  0.3588 -0.6137
71653SOL    HW232952   6.385   5.279   7.713  0.1643  0.0417 -1.4588
71654SOL     OW32953   1.178   1.253   1.502  0.3663 -0.1913 -0.0498
71654SOL    HW132954   1.108   1.305   1.462  1.0497  1.3581  0.7031
71654SOL    HW232955   1.132   1.186   1.552 -0.6323  1.3011  1.1093
71655SOL     OW32956   8.711   8.964   4.559 -0.2864  0.2475 -0.4499
71655SOL    HW132957   8.784   8.904   4.545 -1.3221 -0.9692 -0.7841
71655SOL    HW232958   8.640   8.930   4.504 -2.2462 -0.6656  2.4330
71656SOL     OW32959   4.591  13.489   2.642 -0.1801 -0.1645 -0.1060
71656SOL    HW132960   4.620  13.556   2.579  0.7255 -0.5472 -0.1131
71656SOL    HW232961   4.619  13.406   2.603 -1.6231 -0.5977 -0.2717
71657SOL     OW32962  13.318   8.848  12.371  0.1419  0.0732 -0.4222
71657SOL    HW132963  13.242   8.907  12.362 -0.3339 -0.6299 -1.2311
71657SOL    HW232964  13.295   8.791  12.444 -0.3718 -0.4989 -1.0188
71658SOL     OW32965   8.699   4.120   5.318  0.6357  0.7361 -0.0843
71658SOL    HW132966   8.723   4.090   5.230 -0.8043  0.7630 -0.5023
71658SOL    HW232967   8.688   4.215   5.308 -0.6512  0.5883 -0.1509
71659SOL     OW32968   4.497   5.554   5.066  0.5785 -0.2455 -0.4038
71659SOL    HW132969   4.460   5.574   4.980  0.2738  0.8634 -0.0295
71659SOL    HW232970   4.487   5.459   5.074 -0.7654 -0.1806 -0.9679
71660SOL     OW32971  13.321   3.138  11.624 -0.1670 -0.2108 -0.5070
71660SOL    HW132972  13.409   3.167  11.598 -0.3302  1.4981  0.6510
71660SOL    HW232973  13.300   3.067  11.564  2.1718 -0.9347 -0.5506
71661SOL     OW32974  11.577   9.275   1.376 -0.0708  0.5362 -0.9253
71661SOL    HW132975  11.538   9.343   1.321 -0.3534 -0.1789 -1.6276
71661SOL    HW232976  11.504   9.219   1.400  0.2761  0.0698 -0.9530
71662SOL     OW32977   6.779   6.741  10.908 -0.5544  0.2902  0.0910
71662SOL    HW132978   6.814   6.763  10.821 -3.2600 -0.8708 -1.4177
71662SOL    HW232979   6.785   6.823  10.958  0.7443  1.0821 -1.2723
71663SOL     OW32980  11.055   5.789   0.099  0.0187  0.1381  0.4004
71663SOL    HW132981  11.063   5.853   0.170  0.9625 -0.9603  1.3390
71663SOL    HW232982  10.973   5.811   0.055 -0.2358  1.2825  1.3951
71664SOL     OW32983  10.787   2.124   7.420 -0.6083  0.2358  0.3208
71664SOL    HW132984  10.745   2.200   7.461 -0.2641  1.4679 -1.4806
71664SOL    HW232985  10.868   2.159   7.383 -0.4018 -1.0409 -0.4874
71665SOL     OW32986   8.410   4.625   0.311 -0.1970 -0.1957 -0.5019
71665SOL    HW132987   8.394   4.555   0.248 -0.7028 -0.2255 -0.3450
71665SOL    HW232988   8.486   4.595   0.361 -0.1323 -0.4216 -0.7321
71666SOL     OW32989   5.183  13.156  13.923 -0.0142 -0.1518  0.6178
71666SOL    HW132990   5.176  13.089  13.855 -0.4765  0.7682 -0.2562
71666SOL    HW232991   5.094  13.167  13.955 -0.3140  1.4765 -0.6682
71667SOL     OW32992   8.332  13.613   9.877  0.2077  0.1190  0.2756
71667SOL    HW132993   8.265  13.588   9.941 -1.4921  1.7933 -0.7204
71667SOL    HW232994   8.390  13.537   9.872 -1.1540 -1.1047  1.7957
71668SOL     OW32995   4.175   4.192   5.334 -0.1055 -0.1354 -0.0546
71668SOL    HW132996   4.184   4.212   5.427  0.1404 -2.1277  0.3992
71668SOL    HW232997   4.223   4.110   5.323 -2.4985 -1.4756 -1.3294
71669SOL     OW32998   3.390   3.675   9.952 -0.4446  0.4134  0.3675
71669SOL    HW132999   3.377   3.640  10.040  0.6127  1.2492  0.8724
71669SOL    HW233000   3.407   3.598   9.897 -2.1903 -0.2160  0.6595
71670SOL     OW33001   6.540   9.763  10.761 -0.4075  0.4978  0.0389
71670SOL    HW133002   6.611   9.770  10.698 -0.3768  1.3581  0.1597
71670SOL    HW233003   6.463   9.738  10.709  0.0034 -0.6025 -0.0684
71671SOL     OW33004   0.019   3.735   2.257  0.1275 -0.1390  0.6228
71671SOL    HW133005  -0.057   3.685   2.226 -0.3288 -0.9049  2.7431
71671SOL    HW233006   0.087   3.718   2.192  0.0791 -3.8325  1.2863
71672SOL     OW33007   7.291   6.679  11.866 -0.1819  0.1006  0.1024
71672SOL    HW133008   7.254   6.739  11.801  0.2545 -1.1882 -1.4150
71672SOL    HW233009   7.380   6.664  11.836 -0.8079 -2.6691 -0.6441
71673SOL     OW33010   5.952  11.953   9.061 -0.4186 -0.6163 -0.1941
71673SOL    HW133011   6.043  11.982   9.065  0.1512 -2.3805  0.8849
71673SOL    HW233012   5.902  12.028   9.094  1.0069 -0.8589  2.8459
71674SOL     OW33013  13.859  10.209  13.888  0.3054  0.4003 -0.0977
71674SOL    HW133014  13.943  10.242  13.921  0.8745 -0.6970 -0.3750
71674SOL    HW233015  13.846  10.255  13.805  0.6184  0.6102 -0.0330
71675SOL     OW33016   4.247   8.305   4.767 -0.2806  0.0777 -0.2682
71675SOL    HW133017   4.200   8.374   4.720 -0.6576 -0.0732 -0.1128
71675SOL    HW233018   4.209   8.224   4.734  0.5628 -0.0822 -0.8804
71676SOL     OW33019   7.185   3.684   9.760 -0.0360 -0.1024  0.8733
71676SOL    HW133020   7.210   3.773   9.738  0.7004 -0.5696 -0.2625
71676SOL    HW233021   7.263   3.647   9.803  0.1774 -0.6181  0.0736
71677SOL     OW33022   6.716   0.433   8.684 -0.4328  0.4448 -0.1000
71677SOL    HW133023   6.698   0.478   8.601 -0.9900  2.3421  0.9868
71677SOL    HW233024   6.648   0.464   8.743  0.5739 -0.0277  1.3686
71678SOL     OW33025   4.358   9.755   6.648 -0.9273  0.0908 -0.3960
71678SOL    HW133026   4.425   9.752   6.717 -0.4539  0.6842 -0.8211
71678SOL    HW233027   4.348   9.848   6.628 -1.3915 -0.0444 -0.8067
71679SOL     OW33028   1.757  12.384   7.444 -0.0527  0.6545 -0.3755
71679SOL    HW133029   1.827  12.430   7.489  1.1631 -0.1411 -1.3741
71679SOL    HW233030   1.768  12.408   7.352 -0.4915 -0.2255 -0.6733
71680SOL     OW33031   3.995   7.435   0.712  0.3387  0.1415 -0.4283
71680SOL    HW133032   4.080   7.408   0.744  0.3592  0.9369  0.2198
71680SOL    HW233033   3.968   7.505   0.771 -0.9714 -0.4057 -0.3413
71681SOL     OW33034  10.002   9.704   5.147 -0.6920  0.0342  0.5716
71681SOL    HW133035   9.944   9.720   5.072  0.1690  0.1018 -0.0918
71681SOL    HW233036  10.079   9.661   5.109 -0.7933 -1.1040  1.6109
71682SOL     OW33037  11.405   3.542   6.272  0.3703 -0.4571  0.3010
71682SOL    HW133038  11.436   3.520   6.185  1.0441 -0.0444  0.4336
71682SOL    HW233039  11.341   3.612   6.259  0.2868 -0.5684  0.1185
71683SOL     OW33040   3.176   7.751  10.918  0.6192  0.7315 -0.0141
71683SOL    HW133041   3.242   7.820  10.915  1.1326  0.2277 -0.9721
71683SOL    HW233042   3.115   7.778  10.987  0.4112  2.4899 -0.8261
71684SOL     OW33043   8.577   4.111  11.779 -0.0548  0.2024 -0.0696
71684SOL    HW133044   8.648   4.174  11.793  0.4607 -0.4104  0.0902
71684SOL    HW233045   8.587   4.047  11.849  1.8279 -2.2555 -2.3739
71685SOL     OW33046   9.955   1.835  10.382  0.1865  0.5565  0.1613
71685SOL    HW133047   9.959   1.929  10.366 -1.0824  0.5083 -0.4898
71685SOL    HW233048   9.999   1.823  10.467 -0.9812  1.9263  0.9945
71686SOL     OW33049  11.099   0.151   7.678 -0.3679  0.3260  0.0566
71686SOL    HW133050  11.012   0.116   7.699 -0.7367 -0.3064 -2.2737
71686SOL    HW233051  11.088   0.196   7.595  1.4650  0.5818 -0.0925
71687SOL     OW33052   1.795  13.980  13.422  0.1907 -0.7397 -0.3980
71687SOL    HW133053   1.890  13.978  13.406  0.1255  0.0907 -0.9237
71687SOL    HW233054   1.785  14.038  13.497 -0.0862  1.1939 -1.8769
71688SOL     OW33055   8.627   5.727   7.676  0.3509  0.2856  0.0906
71688SOL    HW133056   8.573   5.694   7.748  1.6614 -3.1411 -0.3200
71688SOL    HW233057   8.695   5.779   7.719 -1.1631  1.7100  0.8874
71689SOL     OW33058   0.293  11.653   3.709  0.3620  0.0202 -0.3090
71689SOL    HW133059   0.305  11.563   3.738  0.7149 -0.7657 -2.7090
71689SOL    HW233060   0.335  11.657   3.623  0.1208  2.4124 -0.3899
71690SOL     OW33061   3.633   6.429  10.767  0.5144 -0.2435  0.2096
71690SOL    HW133062   3.688   6.478  10.706  0.7332  0.9720  1.3410
71690SOL    HW233063   3.694   6.382  10.823  0.4629  0.9868  1.3676
71691SOL     OW33064  11.374   3.183   9.600  0.1922 -0.2048  0.0274
71691SOL    HW133065  11.447   3.147   9.650 -0.4555 -0.1955  1.0093
71691SOL    HW233066  11.390   3.156   9.509  1.2843 -0.3917  0.2724
71692SOL     OW33067  11.590  10.556   2.014  0.0389  0.1391 -0.4238
71692SOL    HW133068  11.565  10.605   2.093 -0.2831 -0.0318 -0.4184
71692SOL    HW233069  11.685  10.564   2.011 -0.0414  1.2263 -0.7176
71693SOL     OW33070  12.704  13.741   8.921 -0.6548  0.1451 -0.1357
71693SOL    HW133071  12.742  13.822   8.957 -0.1002  0.0099 -0.4099
71693SOL    HW233072  12.779  13.687   8.898 -0.9986  0.0747 -1.1634
71694SOL     OW33073   0.524   4.793   9.572 -0.0616 -0.1529 -0.2925
71694SOL    HW133074   0.433   4.769   9.591 -0.7210  3.0214  1.1825
71694SOL    HW233075   0.562   4.811   9.657  1.3937  0.4551 -1.0423
71695SOL     OW33076   5.447   4.206   2.868  0.9040  0.1395  0.0144
71695SOL    HW133077   5.483   4.261   2.938  0.6096 -0.4628  0.6537
71695SOL    HW233078   5.367   4.251   2.841  0.3211 -0.2648  0.9746
71696SOL     OW33079  12.114  11.004  13.862 -0.1331  0.0619  0.1914
71696SOL    HW133080  12.054  11.059  13.811 -1.6300 -0.0488  1.7475
71696SOL    HW233081  12.075  10.917  13.859  0.1830 -0.1045  0.8495
71697SOL     OW33082   1.216  12.174   2.225  0.0001 -0.1559  0.0683
71697SOL    HW133083   1.198  12.234   2.153 -2.1768  0.7865  1.3064
71697SOL    HW233084   1.294  12.211   2.268 -0.7062  1.2388  0.2033
71698SOL     OW33085   0.749   7.350   7.727  0.2903 -0.8985 -0.4129
71698SOL    HW133086   0.685   7.378   7.661 -0.0498 -3.0769 -1.1126
71698SOL    HW233087   0.817   7.417   7.725 -1.9305  1.5834  0.4307
71699SOL     OW33088   0.102   4.238   3.283 -0.3125 -0.4321 -0.4872
71699SOL    HW133089   0.114   4.149   3.314  0.7500  0.0103  0.4258
71699SOL    HW233090   0.008   4.253   3.289 -0.3245 -0.9384  0.9620
71700SOL     OW33091  12.294  13.326  13.314  0.3055  0.4636  0.0643
71700SOL    HW133092  12.212  13.372  13.294 -1.3417 -2.3888 -0.3066
71700SOL    HW233093  12.332  13.308  13.228  0.5932  0.5629  0.1720
71701SOL     OW33094   6.183  12.667   3.848  0.5271  0.1751 -0.2320
71701SOL    HW133095   6.114  12.636   3.908 -0.3739 -0.9323 -1.7835
71701SOL    HW233096   6.263  12.626   3.881  0.4411  1.2576  1.4358
71702SOL     OW33097   5.329   4.232  11.072  0.3660 -0.1485 -0.5377
71702SOL    HW133098   5.302   4.228  10.980  2.2045 -1.2614 -1.0723
71702SOL    HW233099   5.387   4.156  11.084 -0.4762 -0.5218  1.7726
71703SOL     OW33100  12.079  12.998   2.546  0.2337  0.0616  0.2473
71703SOL    HW133101  12.016  13.049   2.597 -1.8818 -1.4264 -0.7352
71703SOL    HW233102  12.141  12.965   2.611  0.1018  1.6739  1.2416
71704SOL     OW33103   1.470  11.479   3.701 -0.1840  0.1577 -0.1475
71704SOL    HW133104   1.422  11.398   3.686 -1.4244  1.0473 -1.1965
71704SOL    HW233105   1.403  11.545   3.718  0.8480  0.7685  1.9645
71705SOL     OW33106  12.273   8.613  10.766 -0.1801 -0.4516  0.1429
71705SOL    HW133107  12.183   8.637  10.791 -0.1200 -1.2305  1.1896
71705SOL    HW233108  12.323   8.694  10.776 -0.9915  0.3370 -1.7567
71706SOL     OW33109   0.060   1.787   1.987 -0.8045  0.1238  0.4660
71706SOL    HW133110   0.143   1.794   1.940 -0.6470  0.3693  0.7775
71706SOL    HW233111   0.017   1.711   1.948 -0.2756 -0.2233  0.5545
71707SOL     OW33112  11.903   2.617   6.057  0.1300 -0.0707  0.3632
71707SOL    HW133113  11.980   2.582   6.013 -0.4923 -0.7928 -0.1895
71707SOL    HW233114  11.919   2.601   6.150  1.5832  1.7135  0.4817
71708SOL     OW33115  10.743  13.765  11.001  0.0662 -0.2246  0.4170
71708SOL    HW133116  10.665  13.733  10.955  0.6257  0.0880 -0.7889
71708SOL    HW233117  10.789  13.685  11.026 -0.3966 -0.4048  0.7149
71709SOL     OW33118   3.277   9.600   3.929 -0.2253 -0.3683  0.3151
71709SOL    HW133119   3.344   9.569   3.989 -0.0330  0.1328  0.3681
71709SOL    HW233120   3.326   9.633   3.854 -0.4424 -0.5640  0.0885
71710SOL     OW33121  10.688  11.051   7.461  0.0599  0.3490  0.0420
71710SOL    HW133122  10.682  10.960   7.492  1.8394 -1.0023 -3.0331
71710SOL    HW233123  10.612  11.061   7.403  0.0188  0.7445  0.1613
71711SOL     OW33124   8.366  13.636   6.874  0.2597  0.3624 -0.4216
71711SOL    HW133125   8.366  13.555   6.925  1.0149  1.4561  1.4297
71711SOL    HW233126   8.452  13.636   6.830  0.8570  0.7878  0.7031
71712SOL     OW33127   5.738  12.533  10.338 -0.2942 -0.3047 -0.1058
71712SOL    HW133128   5.759  12.502  10.250  1.4284  0.6863 -0.0825
71712SOL    HW233129   5.659  12.484  10.363 -0.0027 -1.6223 -1.6353
71713SOL     OW33130  11.558  11.154  11.341 -0.5862  0.2581  0.1235
71713SOL    HW133131  11.604  11.095  11.401 -1.7858 -0.6584  0.1744
71713SOL    HW233132  11.535  11.099  11.266  0.0398  1.1609 -0.7524
71714SOL     OW33133   9.061   8.757   4.715  0.2179 -0.9086 -0.1444
71714SOL    HW133134   9.067   8.839   4.763  0.1903 -0.8609 -0.2237
71714SOL    HW233135   9.132   8.703   4.751  1.8479  0.0336 -1.8157
71715SOL     OW33136  14.009   2.226  12.975 -0.1051  0.3841 -0.1683
71715SOL    HW133137  14.102   2.246  12.980 -0.3390  1.3662  0.3671
71715SOL    HW233138  13.967   2.288  13.034 -1.1001 -0.0808 -0.3591
71716SOL     OW33139   9.887  12.009   7.556 -0.1689  0.1070 -0.2700
71716SOL    HW133140   9.955  12.073   7.536 -1.9589  1.3482 -3.0875
71716SOL    HW233141   9.930  11.945   7.612  3.2078  1.0017 -1.5730
71717SOL     OW33142   9.963   7.190   0.990  0.5647 -0.0332  0.5315
71717SOL    HW133143   9.953   7.170   0.897 -0.2612  0.1017  0.5844
71717SOL    HW233144  10.057   7.207   1.001  0.6913 -0.2031 -0.2411
71718SOL     OW33145   2.877  12.305   5.907  0.0422  0.2675 -0.4887
71718SOL    HW133146   2.784  12.293   5.888  0.1814  0.2441 -1.2129
71718SOL    HW233147   2.921  12.264   5.832  0.6317  0.2212 -0.1177
71719SOL     OW33148   2.181  11.138   2.349  0.5533  0.0418 -0.7882
71719SOL    HW133149   2.259  11.175   2.307  0.0072  1.8342 -0.3026
71719SOL    HW233150   2.179  11.178   2.436 -0.9269  0.0843 -0.8076
71720SOL     OW33151   7.743  10.417  14.111 -0.7130  0.4666 -0.1707
71720SOL    HW133152   7.672  10.449  14.167 -0.6865 -0.0401  0.1592
71720SOL    HW233153   7.800  10.493  14.099 -1.2728  0.8604 -0.3842
71721SOL     OW33154   9.704  11.780   1.375 -0.1081 -0.3218  0.3339
71721SOL    HW133155   9.774  11.718   1.352  0.9770  0.9292  0.1400
71721SOL    HW233156   9.627  11.725   1.390  0.1192 -1.5290 -2.4069
71722SOL     OW33157  13.372   0.493  11.371  0.2351  0.9248  0.0533
71722SOL    HW133158  13.300   0.554  11.354 -1.4843 -1.6011 -2.7617
71722SOL    HW233159  13.445   0.526  11.318  0.3311  2.0697  0.8652
71723SOL     OW33160   9.221   4.285  13.567  0.2749  0.0171 -0.7874
71723SOL    HW133161   9.148   4.337  13.533 -3.3361 -3.3575  0.9175
71723SOL    HW233162   9.225   4.308  13.660  0.1632 -1.0014 -0.5144
71724SOL     OW33163   6.827  12.495   8.835  0.8295 -0.2164  0.0009
71724SOL    HW133164   6.742  12.535   8.853  0.8600 -0.7488  1.5074
71724SOL    HW233165   6.852  12.455   8.918  1.7421 -1.5903 -0.8991
71725SOL     OW33166   7.022  10.247  13.422 -0.2019 -0.3670 -0.1985
71725SOL    HW133167   7.109  10.236  13.460 -0.8442 -0.8365  1.2112
71725SOL    HW233168   6.991  10.158  13.405 -1.1016 -0.3201  1.0225
71726SOL     OW33169   9.454   9.357   6.098 -0.7206  0.1541  0.4615
71726SOL    HW133170   9.378   9.303   6.116  0.9876 -2.7431 -0.4125
71726SOL    HW233171   9.494   9.372   6.184 -0.8233 -0.6246  0.6520
71727SOL     OW33172   7.318   3.187   4.483 -0.3736  0.1707 -0.5791
71727SOL    HW133173   7.398   3.192   4.535  0.4402  1.5978 -1.9012
71727SOL    HW233174   7.248   3.171   4.547  0.7930  0.1934  0.7355
71728SOL     OW33175   9.010   5.024   0.515 -0.1380 -0.0862 -0.5437
71728SOL    HW133176   8.959   4.943   0.512  0.2945 -0.3643 -2.9781
71728SOL    HW233177   9.021   5.043   0.608 -1.9684 -1.7148  0.0688
71729SOL     OW33178   9.803  12.736  12.505  0.8001  0.0040 -0.1636
71729SOL    HW133179   9.896  12.741  12.485  0.5968  0.5157 -1.0204
71729SOL    HW233180   9.759  12.743  12.420 -0.0156 -0.4505  0.2049
71730SOL     OW33181   2.054  11.609   1.122  0.4049 -0.3643 -0.1509
71730SOL    HW133182   1.969  11.624   1.165  0.6256  1.0376 -0.1723
71730SOL    HW233183   2.032  11.565   1.040 -0.4439  1.1610 -0.7846
71731SOL     OW33184   4.791   5.323   4.086 -0.5724  0.9135  0.0462
71731SOL    HW133185   4.801   5.415   4.063 -0.9459  0.7539 -0.7894
71731SOL    HW233186   4.847   5.311   4.163  0.6692  1.4884 -0.7350
71732SOL     OW33187   4.245  11.905   9.317  0.8452  0.7040  0.0552
71732SOL    HW133188   4.253  11.917   9.222  2.4376 -0.2392  0.0336
71732SOL    HW233189   4.282  11.985   9.354  2.5823  0.0416 -0.1412
71733SOL     OW33190   5.961  13.458   4.872 -0.1103 -0.6896 -0.4956
71733SOL    HW133191   5.886  13.517   4.860 -0.6372 -1.1913  0.2724
71733SOL    HW233192   5.967  13.410   4.789 -0.4288 -0.4268 -0.6766
71734SOL     OW33193   2.053   8.409  13.864  0.3440  0.2752 -0.1999
71734SOL    HW133194   2.048   8.355  13.785 -1.0670  1.4947 -1.0021
71734SOL    HW233195   2.080   8.496  13.832 -0.4433  0.8345  0.6165
71735SOL     OW33196   7.944   6.296  12.743  0.3860 -0.0991  0.1977
71735SOL    HW133197   7.951   6.384  12.780 -1.2128 -0.3713  1.2679
71735SOL    HW233198   7.920   6.240  12.817  1.5170 -1.4884 -0.4235
71736SOL     OW33199  13.144   0.415  10.853 -0.0969  0.0064  0.3007
71736SOL    HW133200  13.222   0.463  10.882 -1.4391  1.5237  1.5704
71736SOL    HW233201  13.163   0.392  10.762  0.7488  2.7202 -0.2988
71737SOL     OW33202  10.067   8.328   6.485  1.4002  0.1154 -0.2138
71737SOL    HW133203  10.109   8.371   6.411 -0.8591  0.7925 -1.1783
71737SOL    HW233204   9.988   8.380   6.501  0.0547 -2.0083  0.4469
71738SOL     OW33205  11.309   7.671  13.864 -0.4928 -0.1854 -0.0164
71738SOL    HW133206  11.268   7.731  13.927  2.2361  0.7978  0.9519
71738SOL    HW233207  11.332   7.594  13.915 -2.0175 -1.2028 -0.7921
71739SOL     OW33208   0.835   0.206   9.443 -0.3797 -0.1051 -0.3475
71739SOL    HW133209   0.778   0.132   9.463  1.3956 -1.3117  0.5480
71739SOL    HW233210   0.858   0.194   9.350 -1.2713  0.1754 -0.6072
71740SOL     OW33211   0.394  11.215   2.972 -0.5402  0.2510  0.0131
71740SOL    HW133212   0.418  11.123   2.986  0.4117  0.7806  2.5640
71740SOL    HW233213   0.302  11.220   2.998  0.0150  0.3561  2.2128
71741SOL     OW33214   1.260   1.230   5.903  0.6918 -0.1836  0.1910
71741SOL    HW133215   1.193   1.297   5.890  1.5106  1.9255  4.8395
71741SOL    HW233216   1.220   1.169   5.965  1.7184 -1.2539 -0.1668
71742SOL     OW33217  11.877   6.370   0.973  0.6047 -0.3910  0.2670
71742SOL    HW133218  11.789   6.405   0.991  0.3478 -1.4572  1.1726
71742SOL    HW233219  11.887   6.297   1.034  1.6689 -1.0246 -0.6225
71743SOL     OW33220  10.665   3.125   2.898 -0.3647  0.3348  0.0097
71743SOL    HW133221  10.705   3.197   2.948 -0.9336  0.6268  0.0537
71743SOL    HW233222  10.595   3.167   2.849 -1.4464 -0.3764  0.8934
71744SOL     OW33223   0.214  13.867   7.828 -0.3345  0.2711  0.2327
71744SOL    HW133224   0.256  13.782   7.814 -1.0417 -0.0666  0.1159
71744SOL    HW233225   0.122  13.846   7.840 -0.4976  1.0189  0.3119
71745SOL     OW33226   8.069   9.722   9.657  0.0150  0.2202  0.0449
71745SOL    HW133227   7.993   9.779   9.647  0.3616  0.6052 -0.4802
71745SOL    HW233228   8.036   9.634   9.637 -0.2450  0.4115 -0.3684
71746SOL     OW33229   7.367  10.109   2.279 -0.6211  0.0748  0.0671
71746SOL    HW133230   7.334  10.019   2.285  1.3217 -0.8269 -1.5115
71746SOL    HW233231   7.352  10.133   2.187  1.6936  0.1313 -0.3592
71747SOL     OW33232   0.344   8.440   5.464 -0.1650 -0.4142  0.3061
71747SOL    HW133233   0.336   8.349   5.491 -0.6296 -0.2066  0.8805
71747SOL    HW233234   0.427   8.443   5.416 -0.9015 -1.4757 -1.1221
71748SOL     OW33235  10.009   7.193  12.094 -0.2569  0.0086 -0.3824
71748SOL    HW133236   9.923   7.233  12.104  0.1017  0.4396  1.1836
71748SOL    HW233237  10.068   7.248  12.146  0.7649 -0.9054 -0.5311
71749SOL     OW33238  11.633   9.435  11.133 -0.0886  0.0775  0.2214
71749SOL    HW133239  11.553   9.487  11.139 -0.0880  0.2647 -1.1656
71749SOL    HW233240  11.687   9.467  11.206 -1.0953  0.2260  0.9282
71750SOL     OW33241   3.382  10.090   8.495  0.1001  0.3682 -0.0378
71750SOL    HW133242   3.387  10.051   8.407  1.0788  0.7255 -0.1435
71750SOL    HW233243   3.440  10.166   8.491 -0.2604  0.6925  0.7689
71751SOL     OW33244   6.454   9.128   7.807 -0.1451 -0.8226  0.4396
71751SOL    HW133245   6.395   9.062   7.843 -0.6221 -0.5228  0.2192
71751SOL    HW233246   6.497   9.084   7.733  1.5275 -1.7476  1.8759
71752SOL     OW33247   3.383   6.676   8.728 -0.0950 -0.2133  0.3113
71752SOL    HW133248   3.307   6.663   8.785 -3.1735  2.8787 -2.6125
71752SOL    HW233249   3.433   6.746   8.771  0.1728 -1.0241  1.3702
71753SOL     OW33250   7.694   8.294   2.960 -0.0312 -0.0348 -0.0423
71753SOL    HW133251   7.697   8.355   2.886  0.0624 -0.4151 -0.3557
71753SOL    HW233252   7.622   8.326   3.015  0.5385  0.8309  0.2135
71754SOL     OW33253  12.279   3.824   4.381  0.0069 -0.0066  0.3533
71754SOL    HW133254  12.200   3.817   4.327  1.0425  0.6514 -1.2947
71754SOL    HW233255  12.352   3.817   4.320  1.3491 -2.8773  2.0568
71755SOL     OW33256   4.737   2.761  12.990  0.0092  0.1797  0.2587
71755SOL    HW133257   4.669   2.726  12.933  0.1935 -0.7377  0.5885
71755SOL    HW233258   4.810   2.782  12.931  0.4164 -1.2986  0.1929
71756SOL     OW33259  11.473  13.495  12.427 -0.2501  0.4399 -0.2579
71756SOL    HW133260  11.432  13.471  12.510 -0.6608 -1.0743 -0.8595
71756SOL    HW233261  11.565  13.509  12.449 -0.0169 -1.5255  0.2309
71757SOL     OW33262  12.278  13.453   4.697  0.1890 -0.4203  0.2124
71757SOL    HW133263  12.267  13.466   4.791 -0.6973  1.4196 -0.1008
71757SOL    HW233264  12.330  13.528   4.668 -1.8982  0.6057 -1.1545
71758SOL     OW33265   2.492  11.773   6.845 -0.3451 -0.0459 -0.3222
71758SOL    HW133266   2.410  11.809   6.878 -0.4074 -0.2569 -0.2418
71758SOL    HW233267   2.470  11.684   6.817 -0.6325  0.6046 -2.3309
71759SOL     OW33268   4.222   6.671  13.786 -0.2140  0.1886  0.3667
71759SOL    HW133269   4.266   6.670  13.871  0.1549  1.9548  0.2387
71759SOL    HW233270   4.271   6.609  13.732  0.8413  0.5791  0.8506
71760SOL     OW33271   5.596   6.718   7.070 -0.3966 -0.1630 -0.4917
71760SOL    HW133272   5.652   6.795   7.064 -1.2694  0.6578  1.1698
71760SOL    HW233273   5.609   6.686   7.159 -3.0061  0.4823  0.2353
71761SOL     OW33274   0.149  11.677   5.223 -0.2558  0.2547  0.1608
71761SOL    HW133275   0.101  11.681   5.306 -0.0901  0.0810  0.2653
71761SOL    HW233276   0.088  11.711   5.158 -0.7075 -0.4463  0.2086
71762SOL     OW33277  12.710  13.757   8.061  0.3687 -0.2218  0.2400
71762SOL    HW133278  12.647  13.688   8.040  1.2316 -1.1592  0.6716
71762SOL    HW233279  12.791  13.730   8.019 -0.1600  2.4768 -2.9772
71763SOL     OW33280   6.748  11.256  10.957  0.0288  0.4013  0.0931
71763SOL    HW133281   6.807  11.324  10.990 -0.4014  0.1473  1.4505
71763SOL    HW233282   6.694  11.232  11.032 -1.1283 -0.0954 -0.8602
71764SOL     OW33283  10.798   4.488   2.724 -0.2057 -0.3212 -0.6027
71764SOL    HW133284  10.775   4.449   2.808 -1.4330 -0.0543 -0.8014
71764SOL    HW233285  10.799   4.415   2.662 -1.7465 -0.1906 -0.8233
71765SOL     OW33286  13.026  12.533  11.341  0.6078  0.0601  0.5592
71765SOL    HW133287  12.963  12.605  11.345  0.6479  0.1921 -0.7356
71765SOL    HW233288  13.059  12.525  11.431 -0.3537  0.7882  0.9934
71766SOL     OW33289   4.523   7.586   3.326 -0.0023 -0.0141 -0.3905
71766SOL    HW133290   4.473   7.543   3.256  1.0826 -0.2853 -1.0213
71766SOL    HW233291   4.462   7.590   3.400 -1.3046  0.6078 -1.4544
71767SOL     OW33292   8.660   9.451   0.312  0.6541 -1.0876  0.1747
71767SOL    HW133293   8.609   9.406   0.379 -0.6898 -0.3712 -0.3270
71767SOL    HW233294   8.737   9.484   0.358  0.7205 -2.2466  0.9410
71768SOL     OW33295  13.369   9.926   5.669 -0.2999 -0.4702  0.6383
71768SOL    HW133296  13.364   9.956   5.760  0.6566 -0.9640  0.8695
71768SOL    HW233297  13.377   9.830   5.676  2.1709 -0.3633  0.1713
71769SOL     OW33298  13.483   1.813   3.521  0.7630 -0.0753 -0.3502
71769SOL    HW133299  13.473   1.742   3.457 -0.2562 -1.4087  1.2110
71769SOL    HW233300  13.551   1.783   3.581  0.2315  0.1983  0.4038
71770SOL     OW33301   5.886   0.795   7.584 -0.6409 -0.4900 -0.6860
71770SOL    HW133302   5.938   0.788   7.664  1.0267  0.2581 -1.6576
71770SOL    HW233303   5.810   0.739   7.600  0.4830 -1.6837  0.7734
71771SOL     OW33304   7.632   3.263   8.543 -0.1657 -0.4760  0.0830
71771SOL    HW133305   7.616   3.199   8.473  0.0776  0.5890 -0.9956
71771SOL    HW233306   7.556   3.256   8.600 -1.2162 -0.2196 -1.2215
71772SOL     OW33307   4.063  11.233   9.624  0.1067 -0.5620 -0.2986
71772SOL    HW133308   4.104  11.292   9.560  0.3261 -1.7464 -1.2874
71772SOL    HW233309   3.970  11.257   9.623 -0.2413 -1.7898 -2.4916
71773SOL     OW33310   5.047   9.159   3.013  0.1632  0.1655  0.2544
71773SOL    HW133311   5.094   9.094   2.961 -0.5255 -0.6029  0.5704
71773SOL    HW233312   5.077   9.243   2.978 -0.0719 -0.3236 -1.2050
71774SOL     OW33313   8.548   3.480   7.548 -0.0038  0.9540  0.1589
71774SOL    HW133314   8.545   3.559   7.494  1.4068  1.5203  0.8751
71774SOL    HW233315   8.609   3.501   7.619 -0.0977 -0.5583  0.7267
71775SOL     OW33316   4.166   0.481  10.938  0.2728 -0.4360  0.8250
71775SOL    HW133317   4.252   0.485  10.980  0.3824  0.1390  0.5549
71775SOL    HW233318   4.117   0.416  10.989  1.3247 -1.8338  0.1490
71776SOL     OW33319  13.722   8.317   2.103  0.0787 -0.2677  0.0414
71776SOL    HW133320  13.644   8.297   2.052 -0.2720  2.3473 -0.5786
71776SOL    HW233321  13.690   8.365   2.180  1.0791  2.7256 -1.2498
71777SOL     OW33322   2.253   4.914   9.445  0.3018  0.0389 -0.0933
71777SOL    HW133323   2.273   4.821   9.452 -0.5491 -0.1058  0.5354
71777SOL    HW233324   2.266   4.948   9.533  0.0271  0.3904 -0.1854
71778SOL     OW33325   6.854  10.776  12.551  0.4842  0.0466 -0.3494
71778SOL    HW133326   6.855  10.817  12.465  0.6556 -0.1969 -0.4632
71778SOL    HW233327   6.932  10.722  12.553 -0.3523 -1.2192 -0.6670
71779SOL     OW33328   3.596   0.086   9.677 -0.2278  0.1374 -0.3274
71779SOL    HW133329   3.607   0.105   9.584  0.0434  0.6798 -0.1841
71779SOL    HW233330   3.672   0.126   9.719  0.3675 -1.2517 -0.0124
71780SOL     OW33331   9.525   6.851   8.353 -0.9299 -0.0710 -0.3095
71780SOL    HW133332   9.552   6.897   8.432  1.1559 -1.5346 -0.0733
71780SOL    HW233333   9.476   6.775   8.385  0.7740 -1.2207 -0.2798
71781SOL     OW33334  11.316   7.352   4.780 -0.2583 -0.1134  0.4492
71781SOL    HW133335  11.354   7.400   4.854 -1.6778 -0.6107  1.5451
71781SOL    HW233336  11.333   7.408   4.704  0.9504  0.5668  1.1793
71782SOL     OW33337   1.847  10.778   7.927 -0.0495 -0.1664  0.2434
71782SOL    HW133338   1.792  10.760   8.003 -0.0853 -1.6922 -0.1083
71782SOL    HW233339   1.823  10.866   7.900  0.0092  0.4432  2.0187
71783SOL     OW33340   8.958   7.084   7.876  0.1378 -0.8461 -0.0564
71783SOL    HW133341   8.916   7.098   7.961 -1.6527  0.2492 -1.0535
71783SOL    HW233342   8.899   7.026   7.829  1.3587 -1.8350 -0.4117
71784SOL     OW33343  12.288   2.622  14.105 -0.0545  0.2030  0.4985
71784SOL    HW133344  12.270   2.716  14.112 -0.6847  0.1494 -0.1842
71784SOL    HW233345  12.257   2.585  14.187 -3.1394  0.1393 -0.5704
71785SOL     OW33346   0.404  13.322   1.240 -0.4574 -0.0725  0.2658
71785SOL    HW133347   0.322  13.372   1.239 -0.1505  0.5052 -1.5918
71785SOL    HW233348   0.462  13.373   1.297 -0.5537  1.0558 -0.5936
71786SOL     OW33349   8.157   7.197   2.040  0.5027 -0.5356  0.5132
71786SOL    HW133350   8.192   7.157   1.961  0.0439  0.0732 -0.0104
71786SOL    HW233351   8.085   7.140   2.067 -1.4481  0.8898 -1.3389
71787SOL     OW33352   2.433   4.553   5.177 -0.1282  0.0241  0.4663
71787SOL    HW133353   2.351   4.568   5.129  0.2520  1.0762  0.1389
71787SOL    HW233354   2.499   4.540   5.109 -0.2883 -2.7022  0.6921
71788SOL     OW33355  12.074  11.037   3.089 -0.2923  0.3322  0.1247
71788SOL    HW133356  12.004  11.076   3.142 -1.6704 -0.6024 -0.9427
71788SOL    HW233357  12.112  10.969   3.146  0.3945  1.4566  1.0440
71789SOL     OW33358   5.720   4.438   3.371  0.0797  0.5689 -0.2437
71789SOL    HW133359   5.676   4.423   3.288  0.5276  0.5844 -0.4815
71789SOL    HW233360   5.715   4.533   3.383  0.0175  0.5669 -0.2519
71790SOL     OW33361   7.064   7.253  10.845  0.1349 -0.8503  0.5287
71790SOL    HW133362   7.096   7.169  10.813  0.8005  0.2206 -1.8817
71790SOL    HW233363   7.094   7.257  10.936  1.1550 -2.6934  0.3230
71791SOL     OW33364   9.038  12.696   7.571  0.4204  0.0864 -0.0824
71791SOL    HW133365   9.020  12.674   7.662 -1.9658 -0.6508 -0.6700
71791SOL    HW233366   9.063  12.788   7.573 -2.4858  0.9468  1.0686
71792SOL     OW33367  13.852  14.090   7.431 -0.1007  0.3218 -0.4174
71792SOL    HW133368  13.781  14.094   7.367 -1.3126  0.4626  0.8876
71792SOL    HW233369  13.813  14.123   7.512  0.2009 -3.4189  1.4454
71793SOL     OW33370   0.205  13.564   2.388  0.1251 -0.6873  0.2222
71793SOL    HW133371   0.190  13.656   2.365 -1.9054 -0.7864  0.9749
71793SOL    HW233372   0.281  13.566   2.446  1.4692  0.2355 -1.4647
71794SOL     OW33373  13.069   0.324  11.100  0.0711  0.2016 -0.0900
71794SOL    HW133374  13.042   0.365  11.018  1.3058  1.4184  0.0738
71794SOL    HW233375  13.155   0.287  11.082 -0.2574 -0.7730  0.2763
71795SOL     OW33376  13.065   1.659   0.066 -0.0098 -0.9265 -1.2756
71795SOL    HW133377  13.113   1.581   0.039 -0.1082 -1.2213 -0.6184
71795SOL    HW233378  13.115   1.694   0.140 -1.2603 -1.7404  0.0029
71796SOL     OW33379   2.446   5.125   2.869  0.1021  0.3662 -0.5484
71796SOL    HW133380   2.490   5.054   2.916 -1.6443  0.4570  1.3496
71796SOL    HW233381   2.423   5.086   2.784  1.5746 -0.4251 -0.6312
71797SOL     OW33382  11.857   4.805   3.687  0.1158  0.1190 -0.1364
71797SOL    HW133383  11.821   4.717   3.678  0.3310 -0.0046  0.2249
71797SOL    HW233384  11.865   4.836   3.596  2.2351 -1.1084 -0.4358
71798SOL     OW33385   5.365   2.896   4.851  0.2805  0.1602  0.0760
71798SOL    HW133386   5.279   2.886   4.812  0.2797  1.5507 -0.3389
71798SOL    HW233387   5.349   2.899   4.945 -0.0076 -0.5511  0.0529
71799SOL     OW33388  14.077   8.582  11.675  0.1902 -0.4845  0.0159
71799SOL    HW133389  14.114   8.624  11.597  0.9405 -3.2268 -1.2308
71799SOL    HW233390  14.063   8.654  11.736 -2.5673  2.1958 -3.3448
71800SOL     OW33391   1.781   1.680   7.663 -0.4904 -0.1983  0.0966
71800SOL    HW133392   1.854   1.655   7.719  0.3583  0.6525 -0.5895
71800SOL    HW233393   1.757   1.598   7.619  1.1120 -0.2189 -0.8415
71801SOL     OW33394  13.109   6.372   1.031 -0.5598 -0.7051 -0.2041
71801SOL    HW133395  13.194   6.330   1.044 -0.7879 -1.2200 -0.3468
71801SOL    HW233396  13.062   6.358   1.113 -0.0785  0.6208  0.3205
71802SOL     OW33397   9.984  13.365   6.381  0.3785 -0.5098 -0.0719
71802SOL    HW133398  10.041  13.346   6.306 -0.6746 -1.2871 -0.7013
71802SOL    HW233399   9.933  13.441   6.354  0.6228 -0.2453  0.2098
71803SOL     OW33400  10.131   2.223   7.042  0.1149 -0.4749 -0.6028
71803SOL    HW133401  10.070   2.287   7.078  1.5508 -0.0335  1.1985
71803SOL    HW233402  10.180   2.272   6.976  0.2172 -0.1044 -0.2590
71804SOL     OW33403   0.741   8.389  13.803 -0.1836 -0.4291 -0.4464
71804SOL    HW133404   0.669   8.327  13.814 -0.1335 -0.7355 -1.6589
71804SOL    HW233405   0.743   8.439  13.884 -2.2513  0.0790 -0.6568
71805SOL     OW33406   7.151   2.184   0.016 -1.0793  0.0289  0.6729
71805SOL    HW133407   7.109   2.113  -0.032 -1.9382 -1.2067  3.0774
71805SOL    HW233408   7.092   2.202   0.088  1.4651 -0.3492  3.0257
71806SOL     OW33409   9.483   1.500  12.048  0.0662 -0.3382 -0.3609
71806SOL    HW133410   9.520   1.477  11.963 -0.2066 -2.0125 -0.0656
71806SOL    HW233411   9.534   1.450  12.112 -0.5402 -0.0809  0.3460
71807SOL     OW33412   0.744   1.395   9.716  0.0053  0.6000 -0.5596
71807SOL    HW133413   0.813   1.370   9.654  2.1388  1.4090  1.3187
71807SOL    HW233414   0.709   1.312   9.747  4.1302 -0.3504  2.5290
71808SOL     OW33415  10.795   3.950   7.366 -0.2052  0.0194 -0.7641
71808SOL    HW133416  10.789   4.015   7.297  0.5325 -0.4659 -1.3112
71808SOL    HW233417  10.871   3.977   7.418 -0.5569  0.1983 -0.3402
71809SOL     OW33418   3.526   4.847  10.044 -0.4344 -0.1093 -0.4088
71809SOL    HW133419   3.550   4.777  10.104  0.1937  0.5538  0.1337
71809SOL    HW233420   3.437   4.871  10.069 -0.1380  0.2294  0.3193
71810SOL     OW33421  11.594   1.938  10.283  0.0898  1.0308 -0.0211
71810SOL    HW133422  11.573   1.999  10.212 -0.0008  1.1200  0.0799
71810SOL    HW233423  11.677   1.969  10.318  0.2424  0.8560 -0.2289
71811SOL     OW33424   6.452   1.386   3.844 -0.2187  0.0653  0.1655
71811SOL    HW133425   6.467   1.299   3.883  3.6054  0.3892 -0.2009
71811SOL    HW233426   6.468   1.373   3.751  1.2025  1.2192  0.2085
71812SOL     OW33427  10.366   1.537   7.691  0.5610  0.1690 -0.0135
71812SOL    HW133428  10.389   1.624   7.724 -0.1040  0.0051  0.8960
71812SOL    HW233429  10.278   1.521   7.724  1.3064 -1.5582  1.2811
71813SOL     OW33430   6.991   8.330   4.100 -0.5070  0.2701 -0.3287
71813SOL    HW133431   6.987   8.423   4.079  1.5983  0.6812  0.8040
71813SOL    HW233432   7.030   8.290   4.022  1.9989  0.9525  0.4606
71814SOL     OW33433  11.247  10.891   5.113  0.1440  0.9070  0.1451
71814SOL    HW133434  11.280  10.977   5.087 -2.2846  1.9212  0.1635
71814SOL    HW233435  11.205  10.906   5.198 -1.0371 -0.0903 -0.2271
71815SOL     OW33436   7.642   4.159  11.765 -0.5872 -0.2354 -0.1999
71815SOL    HW133437   7.580   4.092  11.736  0.2435  0.2301 -3.5579
71815SOL    HW233438   7.723   4.137  11.719  0.7402  1.1116  1.3854
71816SOL     OW33439   0.191   0.649   6.484 -0.0461  0.6676  0.4591
71816SOL    HW133440   0.136   0.722   6.515 -2.1299 -1.4828  2.2176
71816SOL    HW233441   0.148   0.619   6.404  0.1739  0.6987  0.3301
71817SOL     OW33442  12.613   2.970   5.138  0.2727  0.4247 -0.4873
71817SOL    HW133443  12.664   2.927   5.069 -0.2747 -3.1835  1.1566
71817SOL    HW233444  12.665   2.959   5.217 -1.2215  0.2477  0.5061
71818SOL     OW33445   4.138   9.657   3.465  0.1216  0.5082  0.2086
71818SOL    HW133446   4.091   9.729   3.508  0.1377  0.7743 -0.2119
71818SOL    HW233447   4.095   9.648   3.379 -0.0416 -0.1505  0.3505
71819SOL     OW33448   1.441   2.470   1.025  0.5773 -0.0116  0.1126
71819SOL    HW133449   1.487   2.417   1.090  0.0938  0.8018  1.1535
71819SOL    HW233450   1.393   2.535   1.077 -1.5999 -0.6994 -0.8902
71820SOL     OW33451   8.017  11.153   5.721 -0.2330 -0.0634 -0.1965
71820SOL    HW133452   7.952  11.095   5.760  0.5954 -1.3150 -0.6073
71820SOL    HW233453   8.071  11.095   5.667  0.2666  1.1925 -1.0885
71821SOL     OW33454   7.882  10.954  13.185 -0.1282 -0.5059 -0.6751
71821SOL    HW133455   7.971  10.978  13.162 -0.1198 -0.1544 -0.2778
71821SOL    HW233456   7.878  10.859  13.170  0.4106 -0.5827 -0.3493
71822SOL     OW33457   9.376  13.616   6.077  0.1664  0.8923 -1.2028
71822SOL    HW133458   9.415  13.551   6.135 -0.9219  1.2007 -0.0715
71822SOL    HW233459   9.334  13.678   6.136 -1.6789  0.7955 -2.3409
71823SOL     OW33460   3.663   7.523   8.255 -0.3612 -0.0690  0.1215
71823SOL    HW133461   3.648   7.574   8.334  0.0030 -1.9769  1.4788
71823SOL    HW233462   3.749   7.483   8.268  0.8816  1.4874 -2.3641
71824SOL     OW33463   2.397   2.928  10.508  0.5855  0.6818  0.4115
71824SOL    HW133464   2.356   2.990  10.447  0.0421 -1.8805 -2.0305
71824SOL    HW233465   2.485   2.914  10.472  0.9074  0.4394  1.2632
71825SOL     OW33466   8.356  11.484   8.464 -0.0679  0.4905 -0.1424
71825SOL    HW133467   8.341  11.455   8.374 -1.8655  0.7294  0.0573
71825SOL    HW233468   8.369  11.404   8.514 -0.8399  0.2618 -0.3092
71826SOL     OW33469  12.217  10.084   0.698 -0.0054 -0.7964  0.4714
71826SOL    HW133470  12.124  10.102   0.713 -0.2648 -2.3833  0.8960
71826SOL    HW233471  12.224   9.989   0.700  1.4617 -0.7472 -0.6899
71827SOL     OW33472   4.569  10.638   6.301  0.4663 -0.4494 -0.1558
71827SOL    HW133473   4.657  10.659   6.334  0.8479 -0.7438 -0.9529
71827SOL    HW233474   4.511  10.698   6.347  1.2562  0.7492 -0.6703
71828SOL     OW33475  10.306  12.568   2.571  0.7700  0.1588 -0.1925
71828SOL    HW133476  10.255  12.532   2.498  1.4255  0.1250 -0.6382
71828SOL    HW233477  10.240  12.610   2.627  0.0026 -1.6037  0.2885
71829SOL     OW33478   1.012  10.165   6.892  0.0487 -0.0359 -0.4239
71829SOL    HW133479   1.082  10.126   6.945  1.1842  3.2918  0.7812
71829SOL    HW233480   0.931  10.135   6.933  0.8775  0.3753  1.6052
71830SOL     OW33481   8.852  12.643   8.184 -0.2271 -0.6829 -0.1665
71830SOL    HW133482   8.786  12.613   8.246 -0.0328  0.1297  0.4496
71830SOL    HW233483   8.908  12.567   8.169  0.4677 -0.5670  1.6169
71831SOL     OW33484   6.279   3.890  11.771  0.4726  0.4528  0.4621
71831SOL    HW133485   6.319   3.915  11.687  1.9651  0.8608  1.2530
71831SOL    HW233486   6.185   3.892  11.754  0.7511 -0.2793 -1.4184
71832SOL     OW33487   0.078  10.969   9.182 -0.2497  0.2384  0.5819
71832SOL    HW133488   0.024  10.911   9.236  0.3790  0.6628  1.6817
71832SOL    HW233489   0.017  11.038   9.154 -0.8315 -0.5389 -0.1686
71833SOL     OW33490   8.267  12.789   9.097 -0.4327  0.1377  0.5367
71833SOL    HW133491   8.279  12.875   9.136 -0.5584  0.3310  0.1478
71833SOL    HW233492   8.214  12.804   9.019 -0.6227 -0.3164  0.5739
71834SOL     OW33493  10.860   8.454   4.978 -0.5353  0.3039  0.1443
71834SOL    HW133494  10.930   8.487   5.035 -0.4979 -0.7988  0.7578
71834SOL    HW233495  10.857   8.517   4.906  1.2829  0.2348 -0.0514
71835SOL     OW33496  13.589   5.835   1.735 -0.3039 -0.0819 -0.2150
71835SOL    HW133497  13.667   5.861   1.784  0.1678  0.0964 -1.0379
71835SOL    HW233498  13.524   5.816   1.802  0.8380 -1.5266  0.5483
71836SOL     OW33499   0.189   0.214   8.391 -0.1742  0.4662  0.2563
71836SOL    HW133500   0.264   0.156   8.386 -2.3443 -2.5245 -0.2938
71836SOL    HW233501   0.221   0.298   8.356  1.9799 -1.7005 -3.7261
71837SOL     OW33502   9.486   1.046   6.135  0.5757  1.0612 -0.1711
71837SOL    HW133503   9.497   0.952   6.150  2.1023  1.1791 -0.3749
71837SOL    HW233504   9.562   1.086   6.176 -0.2852  2.2768  0.3121
71838SOL     OW33505   0.470   1.403   9.066 -0.5050 -0.0402  0.0919
71838SOL    HW133506   0.543   1.376   9.010  1.8727 -0.7446  3.2535
71838SOL    HW233507   0.506   1.473   9.120 -0.7878 -2.7152  4.2206
71839SOL     OW33508   2.307   0.430  10.181 -0.6616  0.1650 -0.1479
71839SOL    HW133509   2.257   0.494  10.232  0.0942  1.4847 -1.0042
71839SOL    HW233510   2.241   0.386  10.127 -1.3464 -0.6202  1.2655
71840SOL     OW33511   7.901  12.374   8.616  0.0309  0.2079  0.6001
71840SOL    HW133512   7.936  12.286   8.625 -0.5915 -0.0984  0.0861
71840SOL    HW233513   7.836  12.382   8.686 -0.5318 -0.0516  0.1102
71841SOL     OW33514  10.112   6.360   6.601 -0.2161 -0.7813 -0.5462
71841SOL    HW133515  10.190   6.408   6.627 -1.3627  1.4961 -1.0251
71841SOL    HW233516  10.125   6.272   6.636  1.8292 -0.0335  0.7525
71842SOL     OW33517   2.497  13.216   0.798  0.5087  0.1325 -0.3699
71842SOL    HW133518   2.422  13.270   0.822 -0.0510 -1.1350  0.8059
71842SOL    HW233519   2.460  13.146   0.744  0.9858 -0.0033 -0.5247
71843SOL     OW33520  13.329   1.137   8.978 -0.2219  0.5712  0.3960
71843SOL    HW133521  13.402   1.128   8.917 -0.7798  0.1277 -0.2128
71843SOL    HW233522  13.251   1.134   8.923 -0.6756  3.0477  0.7851
71844SOL     OW33523   0.225   7.175   7.295  0.2850 -0.3859  0.1929
71844SOL    HW133524   0.183   7.180   7.381  0.4954  2.5376  0.2527
71844SOL    HW233525   0.160   7.133   7.239 -0.9807  0.1230  1.2279
71845SOL     OW33526   4.820   7.285  11.824 -0.5617 -0.0249  0.2115
71845SOL    HW133527   4.793   7.377  11.827 -1.1843 -0.2075  0.3207
71845SOL    HW233528   4.746   7.237  11.862  0.6981 -0.3870  2.3709
71846SOL     OW33529  13.778   5.920  10.447  0.1748 -0.3470  0.7377
71846SOL    HW133530  13.770   5.973  10.369  1.1846 -0.7366  0.3485
71846SOL    HW233531  13.702   5.862  10.445 -0.3140  0.2880  0.5621
71847SOL     OW33532  10.821  11.942   6.917 -0.3771 -0.4615  0.1133
71847SOL    HW133533  10.843  11.849   6.913  2.0518 -0.1289  2.4170
71847SOL    HW233534  10.871  11.982   6.847 -1.6630 -0.8669 -1.0778
71848SOL     OW33535   8.666  10.078   3.647 -0.3006  0.0319  0.2448
71848SOL    HW133536   8.642   9.990   3.676  1.9444  0.0849  2.6587
71848SOL    HW233537   8.611  10.137   3.698 -0.6985  0.0790 -0.2261
71849SOL     OW33538   7.129   1.780  14.036  0.5558  0.0920  0.5901
71849SOL    HW133539   7.161   1.866  14.007 -0.5241 -0.8733 -4.5102
71849SOL    HW233540   7.044   1.798  14.076  0.2714  1.4852 -0.5469
71850SOL     OW33541   1.515  14.109   2.617  0.5944 -0.4474 -0.3938
71850SOL    HW133542   1.490  14.168   2.546  0.3727 -2.0727 -1.7384
71850SOL    HW233543   1.554  14.034   2.572  3.6177 -0.1089  1.3737
71851SOL     OW33544   6.284   6.333  13.967 -0.8103  0.3815  0.2185
71851SOL    HW133545   6.216   6.265  13.965 -1.0962  0.6343  0.8513
71851SOL    HW233546   6.330   6.318  14.050 -0.2180  0.3363 -0.1155
71852SOL     OW33547   0.569  12.819  13.671  0.2630  0.2069  0.4550
71852SOL    HW133548   0.501  12.886  13.665  1.5253  1.6168  1.4418
71852SOL    HW233549   0.650  12.867  13.686  1.0767 -1.5528  2.1411
71853SOL     OW33550   5.364   5.738   7.482 -0.0326 -0.1400 -0.3884
71853SOL    HW133551   5.382   5.816   7.533 -2.0180  0.7691 -0.9545
71853SOL    HW233552   5.447   5.690   7.479  1.3634  2.1561 -0.3903
71854SOL     OW33553   8.553  11.367  11.392 -0.0265 -0.1209 -0.2371
71854SOL    HW133554   8.584  11.304  11.326 -0.7319  0.9998 -1.7014
71854SOL    HW233555   8.465  11.391  11.363 -0.0983  0.9077  0.7569
71855SOL     OW33556  13.703   7.758  13.795 -0.2577 -0.1045 -0.2123
71855SOL    HW133557  13.779   7.815  13.803  0.6789 -1.2587 -0.6101
71855SOL    HW233558  13.689   7.723  13.883 -0.2374 -0.0037 -0.1695
71856SOL     OW33559   6.018  10.634  14.036 -0.5781 -0.5197 -0.2227
71856SOL    HW133560   5.998  10.544  14.012  2.9314 -1.1784 -1.3704
71856SOL    HW233561   5.988  10.686  13.961  2.5559 -1.5671 -2.4270
71857SOL     OW33562   4.182   2.814   7.416  0.2862  0.2587 -0.1043
71857SOL    HW133563   4.259   2.783   7.464 -0.1078  0.6553  0.7980
71857SOL    HW233564   4.143   2.880   7.473 -0.7156  0.0787 -0.5624
71858SOL     OW33565   0.082  12.647   8.755  0.1898  0.1013  0.0357
71858SOL    HW133566   0.131  12.727   8.736 -1.0042  0.5164 -1.5055
71858SOL    HW233567  -0.008  12.677   8.769 -0.0498 -0.8552  0.6390
71859SOL     OW33568  11.833  10.725  12.724  0.6229 -0.1735  0.4372
71859SOL    HW133569  11.788  10.644  12.749  1.2709 -0.0989  1.9618
71859SOL    HW233570  11.873  10.756  12.805 -0.0356  1.9641 -0.0003
71860SOL     OW33571  10.640   4.141   5.521  0.3485 -0.8055  0.0761
71860SOL    HW133572  10.708   4.176   5.579  0.5692 -2.0175  0.5797
71860SOL    HW233573  10.681   4.137   5.435  0.9639 -1.6155  0.3950
71861SOL     OW33574   4.077  10.253  12.686 -0.3060  0.0238  0.0973
71861SOL    HW133575   3.998  10.239  12.634 -2.0561  0.7123  2.3817
71861SOL    HW233576   4.059  10.207  12.768  0.1405  2.9910  2.0001
71862SOL     OW33577  10.000   7.786   7.182 -0.5208  0.4621 -0.3546
71862SOL    HW133578  10.087   7.759   7.152 -0.4084  0.3716  0.0445
71862SOL    HW233579  10.002   7.881   7.177 -0.4725  0.4514 -0.5510
71863SOL     OW33580   6.708   5.229   5.847 -0.4506  0.5028  0.2902
71863SOL    HW133581   6.627   5.271   5.874 -0.5239  1.6628 -1.6158
71863SOL    HW233582   6.681   5.145   5.810 -0.5826  0.0978  1.2649
71864SOL     OW33583  11.631  11.542   1.203  0.3191  0.0867 -0.0265
71864SOL    HW133584  11.546  11.584   1.193 -0.2955 -1.3989 -1.7243
71864SOL    HW233585  11.688  11.609   1.239 -1.4583  1.2601  0.6931
71865SOL     OW33586   2.483   3.563   1.825  0.4741  0.0776 -0.0183
71865SOL    HW133587   2.482   3.658   1.812 -1.4788  0.6710  3.3559
71865SOL    HW233588   2.439   3.528   1.748 -0.0112  2.0173 -0.6795
71866SOL     OW33589   8.185  11.857   1.431  0.5038 -0.2719 -0.7652
71866SOL    HW133590   8.202  11.782   1.374  0.5190 -1.1562  0.3675
71866SOL    HW233591   8.207  11.826   1.518 -0.2779  0.7935 -0.1673
71867SOL     OW33592   6.275   1.429  12.277 -0.1139  0.0315 -0.5838
71867SOL    HW133593   6.269   1.377  12.357 -0.7946 -0.6220 -1.0500
71867SOL    HW233594   6.267   1.519  12.307 -0.4767 -0.2131  0.0744
71868SOL     OW33595   0.032   5.616  12.394  0.1625  0.5236  0.5139
71868SOL    HW133596   0.098   5.605  12.462 -1.0300  0.4312  1.7089
71868SOL    HW233597   0.059   5.695  12.347  0.5854  1.0635  1.6249
71869SOL     OW33598   3.838  12.503  12.066  0.1500 -0.1771  0.3087
71869SOL    HW133599   3.896  12.578  12.059 -0.8033  0.6964  1.4397
71869SOL    HW233600   3.754  12.534  12.031 -0.2485 -0.7242  0.7534
71870SOL     OW33601  13.089   9.253   1.473  0.1297  0.2915 -0.0048
71870SOL    HW133602  13.169   9.210   1.503 -0.2245 -0.3992 -0.0341
71870SOL    HW233603  13.032   9.255   1.549 -0.8970 -1.7594 -0.6465
71871SOL     OW33604   7.908  12.813   3.322  0.1369 -0.2946 -1.0090
71871SOL    HW133605   7.955  12.838   3.242  1.7647 -0.4757 -0.1527
71871SOL    HW233606   7.954  12.734   3.353  0.3161  0.4409  0.7167
71872SOL     OW33607   3.937   9.738  10.729  0.0405  0.3256 -0.2439
71872SOL    HW133608   3.975   9.654  10.754 -1.4298  0.1014  1.3727
71872SOL    HW233609   3.985   9.802  10.781 -0.9457  0.1485  0.9333
71873SOL     OW33610   4.333   2.302  13.800 -0.1092 -0.0792  0.0486
71873SOL    HW133611   4.353   2.209  13.800 -1.6373 -0.4489  1.7621
71873SOL    HW233612   4.298   2.319  13.712 -1.1930 -1.4479  0.1843
71874SOL     OW33613  10.891   2.419   6.822  0.0347  0.0428  0.0904
71874SOL    HW133614  10.902   2.394   6.730 -2.7936  0.0391 -0.3305
71874SOL    HW233615  10.941   2.353   6.871  0.4269 -0.7814 -1.3757
71875SOL     OW33616  11.284   4.458   2.725  0.1687  0.4407 -0.3656
71875SOL    HW133617  11.346   4.500   2.666 -0.4506  1.1864 -0.5004
71875SOL    HW233618  11.225   4.410   2.667 -0.1072  0.7223 -0.3173
71876SOL     OW33619   8.423  12.687  10.839 -0.3977 -0.1565 -0.3057
71876SOL    HW133620   8.349  12.665  10.895  0.1751 -1.5126 -0.0205
71876SOL    HW233621   8.384  12.720  10.758 -1.3272 -1.1544 -0.2861
71877SOL     OW33622   7.336   8.865  10.853 -0.1810 -0.2046 -0.4273
71877SOL    HW133623   7.284   8.907  10.784 -0.4659  1.1449  0.5747
71877SOL    HW233624   7.349   8.775  10.822 -0.3507  0.3492 -2.2001
71878SOL     OW33625   1.714   6.357   8.827 -0.4556  0.2826 -0.1483
71878SOL    HW133626   1.775   6.283   8.831  0.5391  1.1382  1.1407
71878SOL    HW233627   1.627   6.316   8.821  0.0797 -0.9963  0.4291
71879SOL     OW33628   8.470  10.986   0.518 -0.5592 -0.0225 -0.4971
71879SOL    HW133629   8.448  10.893   0.521 -1.4758  0.1471 -1.3940
71879SOL    HW233630   8.537  10.996   0.585 -1.4749 -1.0549  0.6486
71880SOL     OW33631   7.592  11.100   2.680  0.3170 -0.5413  0.1725
71880SOL    HW133632   7.517  11.125   2.733  1.3300  0.0823  1.3565
71880SOL    HW233633   7.665  11.151   2.715  1.1434 -0.4980 -1.4921
71881SOL     OW33634   7.820   3.894   3.827 -0.1739 -0.4882  0.0544
71881SOL    HW133635   7.780   3.807   3.832 -0.8844 -0.2586 -1.2772
71881SOL    HW233636   7.899   3.880   3.775 -0.4282 -0.2850 -0.3830
71882SOL     OW33637   5.163  11.211   9.471 -0.1174  0.1362 -0.3383
71882SOL    HW133638   5.217  11.133   9.487  0.3185  0.4568 -0.2107
71882SOL    HW233639   5.217  11.266   9.414  0.0020  0.7797  0.3634
71883SOL     OW33640   6.660   2.756   6.859  0.0521 -0.1905 -0.2107
71883SOL    HW133641   6.595   2.818   6.827  0.2933  0.0791 -0.1819
71883SOL    HW233642   6.717   2.808   6.917 -0.9260 -0.8524  1.4219
71884SOL     OW33643   6.836   7.626   8.852 -0.7007  0.5218  0.2041
71884SOL    HW133644   6.841   7.622   8.756 -0.2074 -0.0203  0.2459
71884SOL    HW233645   6.884   7.706   8.874 -2.5478  1.7704 -0.1043
71885SOL     OW33646  11.532   8.957   4.599 -0.7129  0.6108 -0.1962
71885SOL    HW133647  11.500   8.945   4.688 -0.0430 -2.8133 -0.2680
71885SOL    HW233648  11.453   8.973   4.547 -1.7034 -1.5073  0.5089
71886SOL     OW33649  10.712   7.610  10.464  0.0655 -0.0467  0.1545
71886SOL    HW133650  10.752   7.646  10.543  0.9303  0.5917 -0.5499
71886SOL    HW233651  10.781   7.617  10.398 -0.2071 -1.7332 -0.3488
71887SOL     OW33652   1.831   8.699   9.271  0.6378 -0.0926  0.3434
71887SOL    HW133653   1.752   8.679   9.320 -1.8882 -0.0435 -3.3696
71887SOL    HW233654   1.854   8.617   9.227  1.9121  0.2485  0.3235
71888SOL     OW33655   3.640   1.821   8.423  0.2946  0.1959 -0.5648
71888SOL    HW133656   3.632   1.825   8.519 -0.4888 -1.5762 -0.5205
71888SOL    HW233657   3.732   1.838   8.406  0.1863  2.0138  0.3780
71889SOL     OW33658   1.046   7.815   8.963 -0.0948  0.0474  0.3995
71889SOL    HW133659   1.040   7.743   9.025 -2.1038  0.3889  0.6843
71889SOL    HW233660   1.069   7.773   8.880  1.1041 -0.6000  1.0419
71890SOL     OW33661   8.864  12.694  11.374 -0.0626  0.2542  0.3504
71890SOL    HW133662   8.859  12.688  11.470  2.0391 -0.3253  0.4615
71890SOL    HW233663   8.879  12.604  11.346  1.8477  0.7530 -0.3235
71891SOL     OW33664   8.550   2.258  13.823  0.3198 -0.2329 -0.0220
71891SOL    HW133665   8.532   2.345  13.786  1.2513 -0.3057 -0.6865
71891SOL    HW233666   8.588   2.276  13.909  2.3171  0.1154 -0.9293
71892SOL     OW33667   7.150   7.352  14.008 -0.4024  0.2203  0.0286
71892SOL    HW133668   7.152   7.403  14.089  2.8129  0.2186  0.0648
71892SOL    HW233669   7.138   7.417  13.939  2.8112  1.1102  0.1443
71893SOL     OW33670  13.926   6.803   7.719  0.4248 -0.2624  0.3291
71893SOL    HW133671  13.832   6.803   7.732  0.2302  1.2693 -0.7938
71893SOL    HW233672  13.944   6.719   7.675 -0.0016 -1.7147  2.7689
71894SOL     OW33673   7.968   8.618   7.590  0.0785 -0.4151 -0.1004
71894SOL    HW133674   7.985   8.527   7.568  0.6386 -0.8599  1.9560
71894SOL    HW233675   7.873   8.623   7.600  0.1325 -1.0819  0.9040
71895SOL     OW33676   1.860  10.997   8.813 -0.1333 -0.1751  0.0421
71895SOL    HW133677   1.842  10.956   8.729 -0.3929  2.0563 -1.0723
71895SOL    HW233678   1.881  11.088   8.791  0.2641  0.3529  2.3585
71896SOL     OW33679   8.557  11.503   5.138 -0.3373  0.8368  0.7229
71896SOL    HW133680   8.499  11.500   5.214  0.0393  1.0747  1.0226
71896SOL    HW233681   8.631  11.447   5.162 -0.5691  0.3138  0.2321
71897SOL     OW33682   7.294   9.695   0.063  0.1273 -0.6884  0.3274
71897SOL    HW133683   7.322   9.604   0.060 -1.1625 -1.1340  0.9228
71897SOL    HW233684   7.199   9.691   0.051 -0.2673  0.3570  2.5497
71898SOL     OW33685   6.154   7.348   9.055  0.1831 -0.1365  0.6145
71898SOL    HW133686   6.134   7.373   9.145 -0.2498  1.4595  0.0972
71898SOL    HW233687   6.240   7.385   9.039  0.1035 -0.1063  0.2588
71899SOL     OW33688  12.436   8.830   1.612  0.3521 -0.1187  0.0091
71899SOL    HW133689  12.453   8.923   1.596  0.9989 -0.2102  0.1093
71899SOL    HW233690  12.343   8.825   1.630  0.3772  0.5621  0.3621
71900SOL     OW33691  13.541   5.453   0.619  0.2816 -0.4438 -0.0668
71900SOL    HW133692  13.472   5.388   0.632  0.9816 -1.1987 -0.0329
71900SOL    HW233693  13.496   5.531   0.587 -0.9206 -0.0808  2.2954
71901SOL     OW33694  13.013   2.512  10.019  0.0786  0.2581  0.0464
71901SOL    HW133695  12.977   2.561  10.093 -0.2505  1.2850 -0.7702
71901SOL    HW233696  13.083   2.567   9.985 -1.9290  1.4835 -2.4556
71902SOL     OW33697   3.202  12.989  11.851  0.4310  0.3639 -0.2664
71902SOL    HW133698   3.235  12.899  11.844 -1.8501 -0.7104  1.5006
71902SOL    HW233699   3.120  12.988  11.802 -0.5372  0.9270  1.2804
71903SOL     OW33700   5.872   4.104   4.948 -0.1027  0.4061  0.0905
71903SOL    HW133701   5.941   4.074   5.007  1.1140  1.1270 -0.9290
71903SOL    HW233702   5.843   4.187   4.985  0.0548  0.4410  0.1341
71904SOL     OW33703  10.678   1.767  12.330  0.3382 -0.5104  0.0948
71904SOL    HW133704  10.743   1.814  12.383 -0.6399 -1.1881  1.9669
71904SOL    HW233705  10.698   1.675  12.344  0.3811 -0.7015 -1.1679
71905SOL     OW33706   4.663   6.526   8.203 -0.2090  0.8647 -0.5321
71905SOL    HW133707   4.697   6.583   8.271 -0.9813 -0.7839  1.3608
71905SOL    HW233708   4.686   6.437   8.232 -1.9468  0.0056 -1.5637
71906SOL     OW33709   2.508   1.825  11.455 -0.2563  0.3866  0.0169
71906SOL    HW133710   2.435   1.880  11.485  1.2264  1.2414  2.3934
71906SOL    HW233711   2.525   1.855  11.365 -1.6127  1.4965  0.0921
71907SOL     OW33712   6.243   3.889  10.969  0.6985 -0.0130  0.4701
71907SOL    HW133713   6.306   3.829  10.929  0.1549  0.0339 -0.4944
71907SOL    HW233714   6.296   3.962  11.000  0.9306  1.2102 -2.5183
71908SOL     OW33715   3.426   9.813   6.667 -0.4292  0.8113  0.1197
71908SOL    HW133716   3.351   9.844   6.617  0.2572  1.8136 -0.3379
71908SOL    HW233717   3.501   9.830   6.610  0.1397 -0.2167  0.5456
71909SOL     OW33718   8.835   8.250   6.686 -0.2100 -0.3981 -0.3620
71909SOL    HW133719   8.886   8.331   6.690 -3.3695  1.7202  0.5976
71909SOL    HW233720   8.779   8.261   6.609 -0.1039 -2.0952 -0.7151
71910SOL     OW33721  11.501   4.858   3.628 -0.1488  0.0637 -0.5970
71910SOL    HW133722  11.426   4.817   3.670  0.3023 -0.9090 -0.6989
71910SOL    HW233723  11.469   4.943   3.597 -1.2087 -0.3599 -0.6841
71911SOL     OW33724  12.263   6.435   0.627 -0.9928 -0.3071 -0.1199
71911SOL    HW133725  12.299   6.484   0.554 -0.0111  0.8711  1.0946
71911SOL    HW233726  12.168   6.450   0.622 -1.4215 -2.8457 -2.9167
71912SOL     OW33727   7.869   9.319   5.109  0.5324 -0.1883 -0.2483
71912SOL    HW133728   7.931   9.362   5.167 -0.0848  0.5062 -0.0947
71912SOL    HW233729   7.854   9.234   5.149  2.6775 -1.0892 -1.1811
71913SOL     OW33730  10.574   2.724  11.962 -0.1736  0.1667 -0.6336
71913SOL    HW133731  10.517   2.748  12.035 -0.3089  0.8304 -0.9462
71913SOL    HW233732  10.514   2.708  11.889 -0.1687 -2.1360 -0.2041
71914SOL     OW33733   7.485   4.568   8.813 -0.6979 -0.1332  0.2643
71914SOL    HW133734   7.463   4.528   8.728  0.8663  2.6663 -1.6005
71914SOL    HW233735   7.564   4.522   8.841 -0.5320 -0.2649 -0.4072
71915SOL     OW33736   8.213   0.139   8.354  0.0985 -0.1629 -0.5552
71915SOL    HW133737   8.308   0.138   8.364  0.2012 -0.3582 -1.4680
71915SOL    HW233738   8.189   0.047   8.341 -0.3614 -0.2627  0.8631
71916SOL     OW33739   0.348   8.235  11.967  0.1212  0.0207  0.4305
71916SOL    HW133740   0.318   8.326  11.967  0.3386  0.0920  0.6936
71916SOL    HW233741   0.411   8.230  12.039  0.3059 -0.2747  0.2512
71917SOL     OW33742   8.867  11.391   0.590 -0.1891 -0.0245 -0.8371
71917SOL    HW133743   8.819  11.473   0.604  0.3787  0.4649 -1.6514
71917SOL    HW233744   8.865  11.379   0.495  2.0448  0.4741 -0.9941
71918SOL     OW33745   9.732   9.767   9.940  0.1757 -0.1460  0.1130
71918SOL    HW133746   9.686   9.733  10.016  1.3222 -2.2695 -0.0776
71918SOL    HW233747   9.666   9.769   9.871 -0.5925  0.7477  0.8423
71919SOL     OW33748   9.599  13.873   3.326 -0.1122  0.6772 -0.4436
71919SOL    HW133749   9.569  13.875   3.235 -2.2905  1.2729  0.2299
71919SOL    HW233750   9.650  13.792   3.332 -2.2970 -0.9093 -1.5294
71920SOL     OW33751   4.259  14.032   9.903 -0.3333  0.4807 -0.1308
71920SOL    HW133752   4.306  13.951   9.922 -0.3824  0.2921 -0.7601
71920SOL    HW233753   4.207  14.048   9.981 -2.5889 -1.7078 -1.0286
71921SOL     OW33754   7.023   7.896  14.110 -0.1734  0.1066 -0.6500
71921SOL    HW133755   7.030   7.892  14.205  1.1162 -1.0393 -0.7677
71921SOL    HW233756   6.978   7.815  14.086 -2.2357  1.2485 -0.9301
71922SOL     OW33757   2.107  12.754   2.682  0.3113 -0.2219 -0.1031
71922SOL    HW133758   2.070  12.733   2.767  0.0301 -3.2912 -0.8791
71922SOL    HW233759   2.201  12.764   2.699  0.0732  0.7930  0.7654
71923SOL     OW33760  10.583  12.448  11.426  0.1708 -0.6263 -0.4283
71923SOL    HW133761  10.546  12.432  11.339 -1.9766 -0.4481  0.3896
71923SOL    HW233762  10.659  12.389  11.431  0.1225 -0.9100 -2.2538
71924SOL     OW33763  11.297   6.821   0.662 -0.1055  0.2387  0.2599
71924SOL    HW133764  11.354   6.818   0.585 -0.9334  1.3738 -0.4366
71924SOL    HW233765  11.224   6.878   0.636 -0.3150  0.8066  1.9384
71925SOL     OW33766   4.384  12.537  12.724 -0.0142  0.2933 -0.3908
71925SOL    HW133767   4.404  12.458  12.674  2.3344 -0.7843  1.9852
71925SOL    HW233768   4.457  12.597  12.704  1.5902 -0.5683  2.3202
71926SOL     OW33769   6.434  12.564  13.526  0.4724 -0.1011 -0.0253
71926SOL    HW133770   6.510  12.571  13.584  0.3803  3.0620 -0.1117
71926SOL    HW233771   6.454  12.623  13.453 -1.0416 -1.1183 -1.3403
71927SOL     OW33772   2.560   2.941   9.019  0.0343  0.0695  0.0412
71927SOL    HW133773   2.599   2.859   9.048 -0.8452 -1.4750 -2.7807
71927SOL    HW233774   2.621   2.975   8.954 -1.4597 -0.5101 -1.7561
71928SOL     OW33775  12.935   4.747   7.327  0.6232  0.0734  0.3623
71928SOL    HW133776  12.870   4.719   7.262  0.3651 -0.2354  0.7568
71928SOL    HW233777  12.908   4.705   7.408  0.2831  1.3789  0.9463
71929SOL     OW33778   0.985   2.217   5.287 -0.1975 -0.6063 -0.0303
71929SOL    HW133779   0.998   2.308   5.313 -0.9286 -0.4014 -0.3501
71929SOL    HW233780   0.978   2.169   5.370 -4.0940  0.2559  0.3461
71930SOL     OW33781   9.770   1.837   6.660  0.2072 -0.2498  0.3951
71930SOL    HW133782   9.741   1.797   6.742  0.0947  0.4455  0.7029
71930SOL    HW233783   9.695   1.826   6.600 -1.2859  2.6180  1.5497
71931SOL     OW33784   1.277   2.864   5.982  0.6481 -0.6735 -0.0667
71931SOL    HW133785   1.195   2.832   6.020  1.1875 -0.2621  1.5416
71931SOL    HW233786   1.276   2.833   5.892 -1.0593 -1.0651  0.0554
71932SOL     OW33787   7.963   0.673   3.758  0.0977  0.8192 -0.4005
71932SOL    HW133788   7.895   0.606   3.764  0.2531  0.7746  3.3337
71932SOL    HW233789   8.045   0.624   3.753  0.1123  0.6769  0.7751
71933SOL     OW33790   9.305   6.536   9.041  0.3815 -0.0833  0.4828
71933SOL    HW133791   9.213   6.539   9.069 -0.3572  2.1850 -1.7650
71933SOL    HW233792   9.308   6.466   8.976 -0.8440  2.2416 -2.3060
71934SOL     OW33793   4.458   7.287  11.123 -0.2398  0.0331 -0.3663
71934SOL    HW133794   4.531   7.285  11.185  1.0857  2.9230 -1.6451
71934SOL    HW233795   4.400   7.355  11.157  0.1415  1.1358 -1.8123
71935SOL     OW33796   7.268  10.407  11.129  0.2934  0.3823  0.0325
71935SOL    HW133797   7.271  10.314  11.105  1.4808  0.9386 -2.2744
71935SOL    HW233798   7.201  10.444  11.072 -0.0729  1.0033  0.8402
71936SOL     OW33799   1.513   9.961  10.342 -0.4872 -0.2292  0.0910
71936SOL    HW133800   1.597   9.975  10.298 -0.4248 -0.8250  0.0241
71936SOL    HW233801   1.463  10.041  10.322  1.0322  1.4691  2.4763
71937SOL     OW33802   0.534  11.517   2.360 -0.6173  0.3635  0.2725
71937SOL    HW133803   0.571  11.605   2.357 -0.6399  0.3775  0.4175
71937SOL    HW233804   0.497  11.503   2.273 -0.3845  0.3981  0.1672
71938SOL     OW33805   0.521   7.589  11.328  0.1019  0.1836 -0.5172
71938SOL    HW133806   0.591   7.551  11.274 -0.3406 -0.7630 -0.4363
71938SOL    HW233807   0.564   7.607  11.412 -0.0515 -1.7245  0.0207
71939SOL     OW33808  13.237   2.177   7.611  0.0247  0.0054 -0.2858
71939SOL    HW133809  13.191   2.206   7.690  1.1285 -0.1563  0.4350
71939SOL    HW233810  13.209   2.087   7.598  0.7681 -0.3769  0.6478
71940SOL     OW33811   5.871   5.498  12.295  0.3007  0.6279 -0.4281
71940SOL    HW133812   5.859   5.562  12.225 -0.2101  0.6186 -0.3505
71940SOL    HW233813   5.940   5.440  12.263 -1.2116 -0.5186 -1.7408
71941SOL     OW33814   4.280   1.245   7.460 -0.2257 -0.1885  0.0074
71941SOL    HW133815   4.339   1.199   7.520  0.5967 -0.8058 -1.2470
71941SOL    HW233816   4.256   1.325   7.507  2.6612  0.7429  0.0549
71942SOL     OW33817  12.366   9.915  12.924 -0.1013 -0.4327  0.3272
71942SOL    HW133818  12.300   9.897  12.991 -1.0616 -1.1309 -0.7686
71942SOL    HW233819  12.382  10.009  12.931 -0.6130 -0.3996  1.1615
71943SOL     OW33820   8.319   6.939  12.597  0.3957  0.4360  0.1392
71943SOL    HW133821   8.326   6.872  12.529 -1.3050  1.7022 -1.3836
71943SOL    HW233822   8.387   7.003  12.575 -0.8598  1.4064 -1.1272
71944SOL     OW33823  13.961   7.580  13.127  0.3716 -0.1301  0.3148
71944SOL    HW133824  13.889   7.630  13.088  0.6609  1.0722  1.3060
71944SOL    HW233825  13.919   7.528  13.196  0.3207 -0.0600  0.3370
71945SOL     OW33826   5.587   3.050  10.113  0.2959 -0.0328  0.2845
71945SOL    HW133827   5.585   3.065  10.019  0.1389  0.6890  0.3995
71945SOL    HW233828   5.499   3.021  10.135  0.1292  0.4902  0.3172
71946SOL     OW33829   5.913  12.890  12.717  0.3116  0.1711  0.0844
71946SOL    HW133830   5.901  12.841  12.799  0.1493 -0.3143 -0.2229
71946SOL    HW233831   5.856  12.967  12.726 -1.6178 -1.1014 -0.5462
71947SOL     OW33832   2.445   7.776  13.064 -0.3198  0.2166 -0.0644
71947SOL    HW133833   2.377   7.775  13.131 -0.4587  2.4126 -0.0768
71947SOL    HW233834   2.527   7.792  13.112  0.0586 -1.3341 -0.1523
71948SOL     OW33835  11.597   2.305   6.026  0.1406  0.0759 -0.5022
71948SOL    HW133836  11.552   2.384   6.058  1.7883  0.5890  0.6846
71948SOL    HW233837  11.661   2.338   5.964  0.3456 -0.4209 -0.5582
71949SOL     OW33838   4.108  10.966   2.344 -0.0857 -0.2955 -0.6146
71949SOL    HW133839   4.036  10.907   2.366  0.1612 -0.5485 -0.4883
71949SOL    HW233840   4.098  11.039   2.405  0.1619 -0.6498 -0.1405
71950SOL     OW33841   9.334   4.992   8.179  0.2183 -0.2855  0.5432
71950SOL    HW133842   9.387   4.927   8.225 -1.8981 -1.2845  1.7152
71950SOL    HW233843   9.312   5.057   8.246  0.7174  0.6454 -0.1644
71951SOL     OW33844  12.115  13.538  14.014  0.3201 -0.2833  0.2799
71951SOL    HW133845  12.169  13.470  14.054  1.7628  0.9215  0.4883
71951SOL    HW233846  12.121  13.612  14.074 -0.5946  0.2908 -0.3081
71952SOL     OW33847  10.879  12.444   5.630 -0.1789  0.1386 -0.6399
71952SOL    HW133848  10.879  12.357   5.590  0.4099  0.5140 -1.4841
71952SOL    HW233849  10.926  12.432   5.713 -0.2531 -0.3815 -0.6699
71953SOL     OW33850  10.787   1.291  12.016 -0.1698  0.2197  0.0659
71953SOL    HW133851  10.806   1.315  11.925 -0.0094 -0.0655  0.0218
71953SOL    HW233852  10.736   1.365  12.050  1.8619  1.5096  0.4883
71954SOL     OW33853  12.409   6.045   3.586 -0.1519 -0.6562  0.0892
71954SOL    HW133854  12.419   6.138   3.604  0.7667 -0.6199 -0.4825
71954SOL    HW233855  12.316   6.027   3.599 -0.3739  0.3786  0.0166
71955SOL     OW33856   5.131   0.354   2.552 -0.0673 -0.5513  0.2792
71955SOL    HW133857   5.057   0.350   2.614 -0.9465  0.1396 -0.7014
71955SOL    HW233858   5.091   0.378   2.469  1.5487  2.5078  0.2492
71956SOL     OW33859   0.605   1.798   1.655 -0.3008 -0.0674  0.2355
71956SOL    HW133860   0.635   1.874   1.704 -1.3690  0.3223  0.3024
71956SOL    HW233861   0.530   1.766   1.704  0.4527 -1.5028  0.5031
71957SOL     OW33862  13.360  13.102   7.075  0.7356 -0.2291  0.4357
71957SOL    HW133863  13.414  13.169   7.033  0.2738 -0.6432 -0.8660
71957SOL    HW233864  13.409  13.021   7.062 -0.4575 -0.7270 -1.3780
71958SOL     OW33865   9.103  10.567   5.105 -0.1294  0.0594 -0.4584
71958SOL    HW133866   9.133  10.658   5.114  0.3355 -0.3110  2.5298
71958SOL    HW233867   9.010  10.571   5.126 -0.6157  0.0756 -2.3820
71959SOL     OW33868   4.533  10.569  13.258 -0.0467  0.3159 -0.3960
71959SOL    HW133869   4.520  10.607  13.345 -0.7081 -0.0854 -0.3192
71959SOL    HW233870   4.624  10.537  13.260 -0.2163 -0.1474  0.3262
71960SOL     OW33871   4.152   1.440   9.935  0.4960 -0.0400  0.1222
71960SOL    HW133872   4.246   1.428   9.948  0.8286  1.2282 -0.8272
71960SOL    HW233873   4.122   1.483  10.015  0.5205 -1.2879  0.8213
71961SOL     OW33874   2.101   2.710   7.018  0.0048 -0.1430  0.3959
71961SOL    HW133875   2.114   2.718   7.113  3.2370  0.4481  0.0029
71961SOL    HW233876   2.138   2.791   6.982 -4.7421  1.6659 -1.2861
71962SOL     OW33877   7.474   3.490  11.768  0.3766  0.5045 -0.3073
71962SOL    HW133878   7.499   3.398  11.777  1.3025  0.7192 -0.6198
71962SOL    HW233879   7.551   3.539  11.796  0.5075  1.1847 -1.7956
71963SOL     OW33880   3.271   4.514  10.672 -0.3228 -0.2438  0.1776
71963SOL    HW133881   3.220   4.595  10.674 -1.3041 -0.8468 -0.1872
71963SOL    HW233882   3.361   4.543  10.655 -0.7395  0.7259 -0.4252
71964SOL     OW33883   1.850  12.151  13.118  0.1857  0.5682 -0.2305
71964SOL    HW133884   1.941  12.147  13.146  0.0052 -1.8469  0.2069
71964SOL    HW233885   1.809  12.211  13.180  1.0823  0.1335  0.8201
71965SOL     OW33886   4.021   6.840   6.474  0.0931 -0.6028  0.1531
71965SOL    HW133887   4.050   6.755   6.440  2.3427 -0.3778  1.3374
71965SOL    HW233888   3.989   6.887   6.397  2.7266 -0.9945 -1.2879
71966SOL     OW33889   4.649   4.430   0.289  0.7725  0.1601  0.0003
71966SOL    HW133890   4.720   4.493   0.277  1.0589 -0.1750 -0.0918
71966SOL    HW233891   4.569   4.479   0.270  0.9808  0.5388  0.1012
71967SOL     OW33892   3.421  10.714   8.297 -0.1277 -0.0143  0.3985
71967SOL    HW133893   3.435  10.674   8.211 -2.5710 -1.5498  0.6272
71967SOL    HW233894   3.454  10.803   8.287  0.4688 -0.4138 -1.8462
71968SOL     OW33895  12.095   2.659   3.639  0.3022  0.2809  0.5596
71968SOL    HW133896  12.086   2.743   3.593  2.0608  0.0452 -0.2881
71968SOL    HW233897  12.169   2.671   3.697  0.0439 -0.4434  1.0543
71969SOL     OW33898   5.598   6.366   0.142 -0.0771  0.7223  0.2499
71969SOL    HW133899   5.633   6.292   0.092  0.2136  1.0318 -0.0083
71969SOL    HW233900   5.676   6.409   0.177 -0.1795  1.5262 -0.4799
71970SOL     OW33901   7.468  11.996   0.532 -0.0242  0.0002 -0.5775
71970SOL    HW133902   7.532  11.933   0.500 -1.5686 -1.9917  0.0580
71970SOL    HW233903   7.410  12.011   0.457 -2.0663 -2.6229  0.2971
71971SOL     OW33904   0.506   0.240  11.917  0.1503  0.0063 -0.4443
71971SOL    HW133905   0.558   0.174  11.871  0.5767 -0.7712  1.1155
71971SOL    HW233906   0.554   0.322  11.903  2.4093 -0.8257  1.7399
71972SOL     OW33907   9.709  13.427   6.090  0.0841 -0.2326 -0.1270
71972SOL    HW133908   9.661  13.440   6.008  0.2977 -2.3652 -0.6593
71972SOL    HW233909   9.667  13.486   6.152 -2.6855 -1.3098 -0.7954
71973SOL     OW33910   5.595   9.427   7.946 -0.4321  0.1905 -0.2720
71973SOL    HW133911   5.514   9.457   7.987 -0.0188  0.3778  0.4275
71973SOL    HW233912   5.615   9.345   7.990  1.0619  1.3524  1.3450
71974SOL     OW33913   5.731   1.125   0.565  0.2562 -1.0480 -0.2250
71974SOL    HW133914   5.718   1.161   0.477 -0.0831  0.2006  0.3060
71974SOL    HW233915   5.823   1.141   0.585 -0.2707  1.2848  0.6996
71975SOL     OW33916  10.978  13.423   7.223  0.0269  0.1136  0.5492
71975SOL    HW133917  10.968  13.436   7.317 -1.6695 -0.4944  0.4973
71975SOL    HW233918  10.905  13.365   7.199 -1.7364  2.9662 -1.6779
71976SOL     OW33919   7.018  12.881   9.815  0.1231 -0.1129 -0.3215
71976SOL    HW133920   7.092  12.868   9.755  1.6335 -1.7523  1.7048
71976SOL    HW233921   7.060  12.897   9.900 -1.8358 -1.1217  0.8983
71977SOL     OW33922   9.218   8.064   0.490 -1.7101  0.3412  0.0433
71977SOL    HW133923   9.271   8.140   0.513  3.0620 -2.1587 -1.2383
71977SOL    HW233924   9.173   8.089   0.410  0.4262  1.6434 -0.8371
71978SOL     OW33925  10.592   2.808   5.976 -0.1219 -0.3009 -0.0761
71978SOL    HW133926  10.599   2.795   5.882  2.3048  1.4038 -0.2039
71978SOL    HW233927  10.651   2.881   5.996  0.2740 -1.2763  2.9121
71979SOL     OW33928   8.089  11.779   9.107 -0.2587  1.0797 -0.3692
71979SOL    HW133929   8.101  11.855   9.049 -0.5237  0.6545 -0.9864
71979SOL    HW233930   8.013  11.801   9.160 -1.3534  0.5771 -1.6704
71980SOL     OW33931   8.980   3.289  12.524 -0.4519  0.0179 -0.2238
71980SOL    HW133932   8.959   3.328  12.439 -0.5223  1.9566  0.6214
71980SOL    HW233933   8.989   3.196  12.506  1.7753  0.5907 -2.7971
71981SOL     OW33934   9.626   9.902   0.045  0.0421 -0.0973 -0.2002
71981SOL    HW133935   9.571   9.836   0.002  1.2980 -0.7844 -0.8055
71981SOL    HW233936   9.698   9.917  -0.017 -0.4959  2.2967 -0.3518
71982SOL     OW33937   6.146   3.507  11.077  0.4147 -0.3540 -0.0662
71982SOL    HW133938   6.090   3.553  11.014 -0.9194 -0.9999  0.5937
71982SOL    HW233939   6.107   3.528  11.162  0.3515 -1.9107  0.3091
71983SOL     OW33940   6.610  11.429  10.740  0.6812  0.2432  0.2920
71983SOL    HW133941   6.652  11.412  10.656  1.6248 -1.6317  1.0781
71983SOL    HW233942   6.683  11.437  10.802  0.0634  2.6291  0.8313
71984SOL     OW33943  10.164   7.346   6.463  0.0987 -0.1266 -0.5654
71984SOL    HW133944  10.145   7.394   6.543 -1.8429 -2.3107  0.4202
71984SOL    HW233945  10.257   7.326   6.468  0.3686  1.1877  0.2785
71985SOL     OW33946   6.737   3.438  12.959  0.4514  0.0041  0.4466
71985SOL    HW133947   6.790   3.389  12.896 -2.2914  0.1009 -2.1720
71985SOL    HW233948   6.661   3.382  12.975 -1.5605  2.2139 -0.7049
71986SOL     OW33949   7.953  13.541   9.440  0.4003 -0.0854  0.3536
71986SOL    HW133950   7.897  13.592   9.381  2.1553  0.9253 -0.5238
71986SOL    HW233951   8.026  13.599   9.461  1.7134 -1.7158  0.5270
71987SOL     OW33952   7.454   8.774  13.492 -0.1358  0.2178 -0.6294
71987SOL    HW133953   7.516   8.718  13.538 -0.3571  0.7599  0.3675
71987SOL    HW233954   7.453   8.740  13.402  1.2343 -0.0988 -0.5567
71988SOL     OW33955   7.757   4.301   7.910  0.0202  0.9957 -0.2948
71988SOL    HW133956   7.676   4.352   7.902  0.4105  1.5502 -0.7832
71988SOL    HW233957   7.764   4.281   8.003 -2.4412 -1.9695 -0.5613
71989SOL     OW33958   5.549   1.303  10.078  0.3399 -0.6935  0.1815
71989SOL    HW133959   5.607   1.380  10.081  1.9031 -1.5389 -2.9623
71989SOL    HW233960   5.470   1.335  10.034  0.2767 -0.5068  0.4303
71990SOL     OW33961   9.616   8.516   4.252 -0.1341 -0.1883 -0.1101
71990SOL    HW133962   9.590   8.435   4.296 -0.5129  1.3357  2.7466
71990SOL    HW233963   9.712   8.519   4.261 -0.0348 -0.6702 -0.9353
71991SOL     OW33964  13.070  10.830   7.422 -0.0551  0.0135 -0.9567
71991SOL    HW133965  12.983  10.858   7.450 -0.2791  1.2953 -2.7685
71991SOL    HW233966  13.124  10.908   7.431  0.7618 -0.5826 -0.5326
71992SOL     OW33967   9.218   4.680  12.480 -0.5724  0.1892  0.0397
71992SOL    HW133968   9.248   4.619  12.412 -0.9941 -0.1820  0.1797
71992SOL    HW233969   9.258   4.763  12.457 -0.3506 -0.0382 -0.4133
71993SOL     OW33970   1.220   0.650  10.162 -0.0319 -0.5510  0.2349
71993SOL    HW133971   1.138   0.638  10.210 -0.9288  1.2134 -0.7302
71993SOL    HW233972   1.234   0.745  10.162  1.6812 -0.7708 -0.1629
71994SOL     OW33973   0.629   9.696   2.807 -0.4324  0.1318  0.2585
71994SOL    HW133974   0.536   9.718   2.811 -0.9786 -1.4097 -1.9777
71994SOL    HW233975   0.674   9.780   2.814 -2.0713  1.1148 -0.4618
71995SOL     OW33976   5.198   9.477   5.530  0.1701  0.1370 -0.3051
71995SOL    HW133977   5.269   9.452   5.589  0.4626 -0.5903 -0.9553
71995SOL    HW233978   5.221   9.438   5.446 -2.2453 -2.3282  0.0430
71996SOL     OW33979   2.676   9.896   1.535 -0.5772  0.3984  0.0191
71996SOL    HW133980   2.694   9.829   1.469 -2.0877  0.8738 -0.9185
71996SOL    HW233981   2.656   9.975   1.484 -2.6883  0.5399  0.9652
71997SOL     OW33982   4.090   2.550   3.596 -0.4896 -0.2100  0.2722
71997SOL    HW133983   4.085   2.458   3.573  0.3301 -0.1655 -0.1096
71997SOL    HW233984   4.180   2.563   3.624 -1.3269 -0.2218  3.3721
71998SOL     OW33985   8.814   0.084   9.313  0.0683 -0.0183  0.1354
71998SOL    HW133986   8.864   0.048   9.386  1.3377  1.1948 -0.0911
71998SOL    HW233987   8.723   0.079   9.342  0.4351 -0.7554  1.2524
71999SOL     OW33988   7.748   1.811   3.222  0.1468  0.0574 -0.2011
71999SOL    HW133989   7.719   1.780   3.136  0.7465  0.2609 -0.4797
71999SOL    HW233990   7.819   1.752   3.247 -1.4222 -1.3608  1.1477
72000SOL     OW33991   5.266   1.394   5.181  0.2342 -0.7265 -0.1431
72000SOL    HW133992   5.233   1.483   5.180  0.4364 -0.5855  1.8254
72000SOL    HW233993   5.290   1.376   5.090 -2.0481  0.3359 -1.0358
72001SOL     OW33994  11.180   1.485   7.091 -0.0208  0.0177  0.9259
72001SOL    HW133995  11.206   1.558   7.035 -1.5368 -0.0615  0.0670
72001SOL    HW233996  11.181   1.521   7.180  0.1887  0.8110  0.6105
72002SOL     OW33997  12.997   0.610   2.737 -0.5835 -0.2961  0.2375
72002SOL    HW133998  13.056   0.548   2.694 -1.0482 -0.6352  0.0873
72002SOL    HW233999  12.955   0.558   2.806 -0.5756 -0.0104  0.4572
72003SOL     OW34000   1.608   1.538   3.625  0.1003  0.2680 -0.0327
72003SOL    HW134001   1.538   1.477   3.647  0.4278  0.4354  1.5388
72003SOL    HW234002   1.680   1.483   3.595  0.0053 -0.0350  0.2951
72004SOL     OW34003   2.073  11.047   4.181  0.2447  0.1942  0.6233
72004SOL    HW134004   2.015  11.000   4.122  1.1256  0.0656 -0.1599
72004SOL    HW234005   2.031  11.132   4.194  0.2294  0.3694 -0.5031
72005SOL     OW34006   7.375   6.656  13.264 -0.1729 -0.0697  0.0230
72005SOL    HW134007   7.364   6.621  13.352 -0.0012  1.3730  0.6335
72005SOL    HW234008   7.328   6.739  13.264 -0.0913  0.0038 -1.2214
72006SOL     OW34009   9.641   4.768   2.869  0.0709  0.1714 -0.4051
72006SOL    HW134010   9.695   4.820   2.809 -0.0896  0.4382 -0.3205
72006SOL    HW234011   9.634   4.683   2.826  0.5710  0.1296 -0.4072
72007SOL     OW34012   6.724   2.583  12.247 -0.5021 -0.0991  0.5403
72007SOL    HW134013   6.767   2.653  12.199 -1.0976 -0.0970  0.0081
72007SOL    HW234014   6.789   2.556  12.313 -0.5108  1.3933  1.2004
72008SOL     OW34015  12.712   5.581   0.546  0.2661 -0.4526  0.1257
72008SOL    HW134016  12.657   5.558   0.472  1.0455 -0.5094 -0.4453
72008SOL    HW234017  12.770   5.650   0.513  1.1316 -1.0017  0.4490
72009SOL     OW34018   2.522  10.060   8.084  0.2064 -0.0771  0.5711
72009SOL    HW134019   2.462  10.134   8.070  0.8011  0.0960 -1.4215
72009SOL    HW234020   2.604  10.088   8.045  1.1967 -0.8691  2.0066
72010SOL     OW34021   7.495   7.699   7.166 -0.3931  0.0229 -0.3567
72010SOL    HW134022   7.484   7.604   7.163  1.7822 -0.3040 -0.0541
72010SOL    HW234023   7.449   7.727   7.245 -0.8446 -0.8069 -0.3186
72011SOL     OW34024  11.794   3.366   3.968  0.2908  0.3353 -0.2696
72011SOL    HW134025  11.779   3.460   3.969  0.0685  0.2971  0.0989
72011SOL    HW234026  11.775   3.340   3.878 -0.5540  0.5030 -0.1564
72012SOL     OW34027  13.025  12.877   1.161 -0.1977  0.5815 -0.3318
72012SOL    HW134028  12.949  12.864   1.217 -0.3425  0.5552 -0.5310
72012SOL    HW234029  13.056  12.788   1.143 -0.2923  0.5795 -0.4846
72013SOL     OW34030  11.894  10.516  13.329 -0.4588  0.2970 -0.4693
72013SOL    HW134031  11.799  10.511  13.339 -0.5931 -0.0769 -1.7045
72013SOL    HW234032  11.907  10.522  13.234  0.8130 -1.7368 -0.4779
72014SOL     OW34033   1.554   6.070   9.603  0.2550 -0.0345 -0.3312
72014SOL    HW134034   1.466   6.089   9.571  0.8229  1.3263 -1.1617
72014SOL    HW234035   1.607   6.058   9.524  1.3323  1.7720  0.0474
72015SOL     OW34036  12.990   8.997   9.283 -0.1005  0.8100 -0.3534
72015SOL    HW134037  13.055   9.028   9.346  0.1312 -1.0360  0.3493
72015SOL    HW234038  12.973   8.907   9.308 -1.7121  0.7463 -1.5576
72016SOL     OW34039   4.765  13.128   4.552  0.4740 -0.4806  0.2150
72016SOL    HW134040   4.814  13.048   4.567  1.2469 -0.3224 -1.2748
72016SOL    HW234041   4.786  13.184   4.627  0.2016 -1.5205  1.0867
72017SOL     OW34042   8.625   8.446  12.119 -0.4651  0.6079 -0.3347
72017SOL    HW134043   8.650   8.384  12.051  0.9477  0.0010  0.6927
72017SOL    HW234044   8.645   8.401  12.201 -0.5632  1.9478  0.4524
72018SOL     OW34045  13.598  10.746  12.544  0.2843  0.1506  0.0468
72018SOL    HW134046  13.541  10.675  12.571  0.0106  0.1351 -0.5434
72018SOL    HW234047  13.658  10.760  12.618 -0.4036  0.0861  0.6225
72019SOL     OW34048   4.615   6.120   8.603  0.2642 -0.4716  0.0265
72019SOL    HW134049   4.561   6.108   8.681 -0.9416  0.2266 -0.6687
72019SOL    HW234050   4.555   6.157   8.538  1.5652  0.2252 -0.8172
72020SOL     OW34051  10.030  12.980   1.576  0.1973 -0.7568 -0.4972
72020SOL    HW134052  10.094  13.028   1.627 -0.5914  0.1325 -0.3122
72020SOL    HW234053   9.973  13.047   1.539 -1.6132 -1.5613  0.6729
72021SOL     OW34054  14.009   8.140   9.869  0.3108  0.0228 -0.2162
72021SOL    HW134055  13.917   8.118   9.858  0.8462 -1.7988 -1.5965
72021SOL    HW234056  14.018   8.161   9.962 -1.1348 -1.6240  0.3424
72022SOL     OW34057   9.890   6.547   9.696 -0.3208 -0.4340 -0.2326
72022SOL    HW134058   9.893   6.452   9.699 -0.1481 -0.4027  1.0540
72022SOL    HW234059   9.803   6.569   9.730 -0.8376 -0.1556 -1.6710
72023SOL     OW34060  10.560  13.907   1.920  0.1121 -0.4745  0.3574
72023SOL    HW134061  10.560  13.915   1.824 -0.6014 -2.4598  0.1452
72023SOL    HW234062  10.636  13.852   1.939 -0.4780 -1.1287  0.8243
72024SOL     OW34063  10.723   5.549   9.322 -0.1803 -0.1287  0.1318
72024SOL    HW134064  10.754   5.477   9.267 -1.1891 -2.1457  2.0263
72024SOL    HW234065  10.628   5.550   9.307 -0.3720 -0.2593  1.2836
72025SOL     OW34066  10.391   0.694   9.441  0.1841 -0.0891  0.5569
72025SOL    HW134067  10.449   0.725   9.510  0.0962  3.0158 -0.6169
72025SOL    HW234068  10.451   0.665   9.372  0.2771 -0.8125  0.9294
72026SOL     OW34069  11.613   9.789  12.398 -0.1433 -0.1773 -0.0028
72026SOL    HW134070  11.547   9.832  12.343 -0.5085 -0.3248  0.3181
72026SOL    HW234071  11.674   9.859  12.421  3.0433 -0.9051 -4.7695
72027SOL     OW34072  12.776  10.895   9.061  0.5623  0.1885  0.0119
72027SOL    HW134073  12.781  10.927   9.151  0.4138 -1.3759  0.6171
72027SOL    HW234074  12.856  10.843   9.050  0.3626 -0.0010 -0.5989
72028SOL     OW34075   9.665   6.804   0.172 -0.1723 -0.2730 -0.1661
72028SOL    HW134076   9.713   6.723   0.186 -1.9285 -1.3957 -0.3453
72028SOL    HW234077   9.584   6.794   0.222 -0.5129  1.2941 -0.3268
72029SOL     OW34078   2.797  10.951   4.707  0.3661 -0.3074  0.1656
72029SOL    HW134079   2.750  10.871   4.687 -1.1269  0.7709 -0.8416
72029SOL    HW234080   2.739  10.998   4.767  0.3430  0.8347 -0.7210
72030SOL     OW34081  10.619   5.016  13.040  0.3783  0.3230  0.2706
72030SOL    HW134082  10.531   5.048  13.020 -0.1263 -1.5548 -0.7184
72030SOL    HW234083  10.677   5.084  13.005 -0.6519  1.0726 -0.0515
72031SOL     OW34084  10.296   4.287   7.967 -0.0940 -0.2398  0.0726
72031SOL    HW134085  10.367   4.327   8.016  1.4095 -0.0876 -2.0943
72031SOL    HW234086  10.229   4.355   7.962 -1.1832 -0.8858  3.4290
72032SOL     OW34087   6.184   5.170   8.055 -0.3807  0.1435 -0.0554
72032SOL    HW134088   6.126   5.151   8.128 -0.6013 -0.2818 -0.3405
72032SOL    HW234089   6.134   5.232   8.001 -1.0294 -1.0308 -0.8601
72033SOL     OW34090   8.366   2.084   0.906 -0.0926  0.1160  0.1132
72033SOL    HW134091   8.377   2.013   0.843  1.9009 -0.1188  0.6819
72033SOL    HW234092   8.278   2.070   0.941  0.2560 -2.1440  0.2562
72034SOL     OW34093   5.886  11.994  12.354  0.2556 -0.0368  0.0323
72034SOL    HW134094   5.871  12.059  12.423 -0.8602 -1.2862  1.0264
72034SOL    HW234095   5.912  12.045  12.278 -4.2029  2.0623 -0.3793
72035SOL     OW34096  11.140   4.979   0.025  0.4467  0.4142 -0.4652
72035SOL    HW134097  11.064   4.959  -0.029  0.8516 -0.7876 -0.6326
72035SOL    HW234098  11.148   4.902   0.083  2.6160 -0.3749 -1.7153
72036SOL     OW34099  11.343   1.526   6.363  0.2477  0.2255 -0.6158
72036SOL    HW134100  11.407   1.596   6.350  1.4727 -0.4126  1.4519
72036SOL    HW234101  11.275   1.566   6.417  0.6691  0.0104  0.0947
72037SOL     OW34102  10.470   0.268   6.090 -0.1584  0.8538  0.3000
72037SOL    HW134103  10.394   0.252   6.147  0.8202  1.2199  1.7428
72037SOL    HW234104  10.523   0.189   6.097 -0.4203  0.5551 -0.7903
72038SOL     OW34105   9.401  10.386   8.691 -0.1576  0.1324 -0.1561
72038SOL    HW134106   9.460  10.413   8.762  0.7281 -3.6808  0.7464
72038SOL    HW234107   9.321  10.359   8.735 -0.1966 -0.7505 -0.7545
72039SOL     OW34108   0.394   8.059   2.156  0.1137  0.2361  0.5468
72039SOL    HW134109   0.485   8.053   2.185  0.0143 -0.9124  0.6700
72039SOL    HW234110   0.366   7.968   2.148 -1.6124  0.5633  2.3174
72040SOL     OW34111   3.938   7.402   4.564 -0.0732 -0.0398 -0.1814
72040SOL    HW134112   3.889   7.395   4.482  2.1199 -1.2969 -1.4827
72040SOL    HW234113   4.020   7.355   4.547  0.3579 -0.5751  2.8360
72041SOL     OW34114   8.739   9.429   9.659 -0.5088  0.0568 -0.1342
72041SOL    HW134115   8.765   9.498   9.720 -2.2601  1.3255 -0.7365
72041SOL    HW234116   8.660   9.392   9.698 -1.4415  0.6389 -1.3992
72042SOL     OW34117  12.809  11.064   0.796  0.1177  0.3390  0.2322
72042SOL    HW134118  12.818  10.972   0.821  0.0721 -0.3496 -2.0760
72042SOL    HW234119  12.810  11.111   0.880  1.1819 -1.6437  1.4237
72043SOL     OW34120  10.732  10.870   1.502  0.3875  0.5254 -0.0462
72043SOL    HW134121  10.805  10.924   1.533 -0.3316  1.3409  0.2590
72043SOL    HW234122  10.727  10.797   1.565  1.8413 -0.3503 -0.8863
72044SOL     OW34123   2.822   8.662   4.851  0.0590  0.4345 -0.1398
72044SOL    HW134124   2.762   8.590   4.833  0.5851  0.0181 -0.2632
72044SOL    HW234125   2.786   8.736   4.802 -0.2437  0.1407 -0.3682
72045SOL     OW34126  13.647   1.540   3.347  0.2976  0.0268  0.0123
72045SOL    HW134127  13.600   1.594   3.283  0.2712 -0.7475 -0.6419
72045SOL    HW234128  13.724   1.508   3.299  0.3595 -0.4383  0.4148
72046SOL     OW34129  11.372   7.485   9.433 -0.4733 -0.0253  0.3579
72046SOL    HW134130  11.394   7.445   9.349 -3.2805  2.5209 -1.7704
72046SOL    HW234131  11.405   7.422   9.498  5.0870 -0.4996 -2.3342
72047SOL     OW34132   6.059  13.313   0.987  0.3787  0.3283  0.0357
72047SOL    HW134133   5.967  13.291   0.998  0.7970 -0.4854  2.4544
72047SOL    HW234134   6.106  13.242   1.030  2.1275  0.9606 -0.7452
72048SOL     OW34135   0.094   9.041   1.298  0.2598 -0.4307  0.0276
72048SOL    HW134136   0.058   9.056   1.385 -0.9833 -0.0970 -0.5255
72048SOL    HW234137   0.168   9.102   1.292  0.1428 -0.2120  0.7033
72049SOL     OW34138   1.229   2.241   9.244  0.7437 -0.1187 -0.2724
72049SOL    HW134139   1.294   2.187   9.200  0.5712 -1.3966  0.9571
72049SOL    HW234140   1.260   2.247   9.334  0.4527  1.3828 -0.2526
72050SOL     OW34141   2.010   1.175   5.776 -0.6047 -0.5722 -0.3896
72050SOL    HW134142   1.929   1.168   5.827 -1.0584 -0.9204 -1.1340
72050SOL    HW234143   2.021   1.088   5.737  0.2111 -0.5710 -0.1938
72051SOL     OW34144   0.573   5.563  11.116  1.0065  0.2403  0.5839
72051SOL    HW134145   0.562   5.658  11.109 -0.9890  0.0518  0.8055
72051SOL    HW234146   0.551   5.543  11.207 -0.1271 -0.6190  0.1356
72052SOL     OW34147   3.863  12.315  13.827 -0.1283  0.0511  0.4649
72052SOL    HW134148   3.862  12.223  13.853 -0.3806  0.0541  0.4690
72052SOL    HW234149   3.938  12.353  13.874  1.3200 -0.6166 -1.1967
72053SOL     OW34150   4.156   1.784   1.001 -0.4476 -0.2210  0.5020
72053SOL    HW134151   4.158   1.689   1.007 -2.0491 -0.3092  0.1616
72053SOL    HW234152   4.234   1.813   1.048 -0.1697 -1.6769  0.9854
72054SOL     OW34153   7.917  14.085   8.199  0.1356  0.6204 -0.0853
72054SOL    HW134154   7.861  14.130   8.263  0.2692 -1.0580  1.2864
72054SOL    HW234155   7.856  14.032   8.147  0.3489 -1.0691  1.2925
72055SOL     OW34156  11.553   4.513   9.358  0.2209 -0.3689  0.0318
72055SOL    HW134157  11.636   4.468   9.372  0.2139 -0.8488 -1.3384
72055SOL    HW234158  11.507   4.460   9.292 -1.2189 -0.1588  0.8101
72056SOL     OW34159   9.802  12.500  10.865  0.4938 -0.6079  0.2506
72056SOL    HW134160   9.794  12.438  10.793 -0.9968 -0.3762  0.1827
72056SOL    HW234161   9.891  12.488  10.898  0.7862 -1.5695 -0.8454
72057SOL     OW34162   2.513   9.367   7.262 -0.0789  0.1298 -0.2813
72057SOL    HW134163   2.428   9.371   7.306 -0.7204  0.0030 -1.4649
72057SOL    HW234164   2.497   9.313   7.184  0.4512  2.1889 -1.8917
72058SOL     OW34165   1.952  10.188  13.394  0.2675 -0.1502 -0.2636
72058SOL    HW134166   1.897  10.263  13.416  0.6180 -0.1697  0.7340
72058SOL    HW234167   1.910  10.149  13.318 -1.1622 -0.2236  0.5320
72059SOL     OW34168  13.125   3.182  11.316 -0.2949 -0.3912  0.1453
72059SOL    HW134169  13.091   3.195  11.405 -2.0671 -0.0279 -0.5413
72059SOL    HW234170  13.181   3.258  11.300 -1.5767  0.5956  0.2419
72060SOL     OW34171   2.147   7.749  10.727  0.0735  0.4664 -0.5673
72060SOL    HW134172   2.055   7.727  10.710  0.0785 -1.8507  1.8071
72060SOL    HW234173   2.142   7.819  10.793 -0.0338 -0.1278  0.0718
72061SOL     OW34174   3.099  13.982  10.518  0.1293  0.5665  0.3911
72061SOL    HW134175   3.054  13.996  10.434  1.9006 -3.2724 -1.4627
72061SOL    HW234176   3.029  13.965  10.581 -1.1890 -1.0619 -1.4098
72062SOL     OW34177   9.774  13.201   0.417 -0.7173 -0.1568 -0.2416
72062SOL    HW134178   9.830  13.239   0.349 -2.3231  1.3585 -0.8066
72062SOL    HW234179   9.816  13.226   0.499  0.4602 -0.7417 -0.6423
72063SOL     OW34180  10.491   3.101  10.292 -0.3458  0.3627 -0.0610
72063SOL    HW134181  10.402   3.110  10.260 -0.3734  0.0010 -0.0826
72063SOL    HW234182  10.512   3.187  10.329  0.5258  1.6622 -3.1548
72064SOL     OW34183   8.616   8.089   3.912 -0.0151 -0.0530  0.1168
72064SOL    HW134184   8.549   8.058   3.973  1.3388 -1.4737  0.9753
72064SOL    HW234185   8.682   8.130   3.968 -0.0236  1.1039 -0.6852
72065SOL     OW34186   1.325   1.949   0.524 -1.3121 -0.0358 -0.1086
72065SOL    HW134187   1.342   2.033   0.567 -1.3289 -0.7057  1.2420
72065SOL    HW234188   1.270   1.972   0.448 -0.2980  1.2971 -0.4761
72066SOL     OW34189  13.086   3.896  12.144  0.7874  0.3610  0.4451
72066SOL    HW134190  13.157   3.831  12.136  0.9791  0.5967  0.1827
72066SOL    HW234191  13.083   3.938  12.058 -2.4501 -2.4512 -1.0550
72067SOL     OW34192  10.209   7.585   2.464  0.3845  0.1663 -0.6107
72067SOL    HW134193  10.296   7.566   2.498 -0.5714 -1.1612  1.2516
72067SOL    HW234194  10.178   7.658   2.516 -0.6520 -1.1500  0.6911
72068SOL     OW34195   0.931   5.918   1.821  0.1579 -0.1000 -0.2547
72068SOL    HW134196   0.956   5.926   1.729  1.3890 -0.4106  0.0455
72068SOL    HW234197   0.871   5.992   1.835  0.3098  0.2207 -1.1815
72069SOL     OW34198  10.129  11.359   5.351  0.3937  0.5370  0.3458
72069SOL    HW134199  10.086  11.435   5.311 -0.4182 -0.7647 -1.3446
72069SOL    HW234200  10.123  11.290   5.286  2.1007 -0.7011  1.3955
72070SOL     OW34201   7.221   6.865  14.131 -0.2119  0.6443  0.1410
72070SOL    HW134202   7.259   6.780  14.151 -1.6874  0.2804  1.6535
72070SOL    HW234203   7.233   6.916  14.211  1.4666  2.2203 -1.0487
72071SOL     OW34204   5.826  11.605  10.756  0.1373  0.1118  0.0834
72071SOL    HW134205   5.828  11.574  10.665  3.5050 -0.4395  0.1982
72071SOL    HW234206   5.760  11.551  10.798  1.0853 -2.2826 -1.2840
72072SOL     OW34207   9.583  10.246   1.544  0.0137  0.2965  0.1252
72072SOL    HW134208   9.586  10.178   1.611  1.4959  0.8546  0.6644
72072SOL    HW234209   9.673  10.276   1.536 -0.1129  0.2228 -2.1864
72073SOL     OW34210   3.382   8.370  11.334 -0.2485  0.1242  0.2493
72073SOL    HW134211   3.288   8.353  11.342 -0.0273 -0.7667  1.1054
72073SOL    HW234212   3.424   8.289  11.365  0.8418  1.4620  2.4739
72074SOL     OW34213   4.621   5.950  13.844 -0.0855 -0.4690  0.8171
72074SOL    HW134214   4.540   5.906  13.868 -0.2631  0.2990  1.7084
72074SOL    HW234215   4.628   6.022  13.907  0.6149  0.2602 -0.0661
72075SOL     OW34216   0.437  10.279   2.545 -0.4129  0.5452  0.5746
72075SOL    HW134217   0.442  10.355   2.487  0.5053  0.7572  0.9154
72075SOL    HW234218   0.404  10.314   2.627 -0.2510  0.5267  0.6478
72076SOL     OW34219   2.626   7.762  14.052 -0.1426  0.2587  0.2659
72076SOL    HW134220   2.695   7.772  14.118 -0.2499  1.5901  0.1963
72076SOL    HW234221   2.545   7.769  14.101 -0.2256  0.5074  0.0915
72077SOL     OW34222  10.736   3.654  11.414 -0.3716 -0.4264  0.7747
72077SOL    HW134223  10.642   3.669  11.417 -0.1824  1.2439 -0.2861
72077SOL    HW234224  10.747   3.566  11.449 -2.2573 -0.4294  1.4878
72078SOL     OW34225   8.564  10.677  13.445 -0.6090  0.4985 -0.0964
72078SOL    HW134226   8.546  10.586  13.421  0.3326  0.0925  0.6396
72078SOL    HW234227   8.485  10.725  13.420 -1.8344 -0.8087  1.0575
72079SOL     OW34228   5.333   1.574  11.423 -0.1496 -0.1830 -0.8581
72079SOL    HW134229   5.299   1.662  11.412 -0.6779 -0.4099 -1.0763
72079SOL    HW234230   5.270   1.531  11.481  0.6494 -0.1160  0.0927
72080SOL     OW34231  11.854   9.991   0.453 -1.0699 -0.1632 -0.6225
72080SOL    HW134232  11.854   9.908   0.405  0.6436 -0.2511 -0.5276
72080SOL    HW234233  11.873   9.967   0.543 -1.0131  0.3020 -0.5098
72081SOL     OW34234  10.391   2.663   5.050  0.3304  0.4768  0.0174
72081SOL    HW134235  10.426   2.741   5.006 -3.1092  1.1803 -1.8527
72081SOL    HW234236  10.326   2.698   5.112  0.0126 -0.8286  0.4550
72082SOL     OW34237   9.519  13.627  13.789  0.5045  0.2852  0.1219
72082SOL    HW134238   9.565  13.576  13.722 -1.0292  1.3535 -1.8640
72082SOL    HW234239   9.441  13.575  13.809 -0.1029  0.9247 -0.5151
72083SOL     OW34240   0.474   8.222  11.011  0.0722 -0.7711  0.2836
72083SOL    HW134241   0.392   8.256  11.045 -0.0666 -0.8974  0.0787
72083SOL    HW234242   0.460   8.127  11.004 -0.0259 -0.7124 -0.4378
72084SOL     OW34243   1.991  12.652  12.121 -0.0457  0.3905 -0.0218
72084SOL    HW134244   2.013  12.559  12.109  0.5270  0.4502  0.4767
72084SOL    HW234245   1.935  12.654  12.199  1.2784  0.6107  0.9640
72085SOL     OW34246   5.704   6.409   7.797  0.2301 -0.0239  0.0007
72085SOL    HW134247   5.718   6.315   7.786  0.6010  0.0564 -0.2639
72085SOL    HW234248   5.707   6.423   7.892 -0.9879 -0.4388  0.1173
72086SOL     OW34249   9.513  11.957  13.715 -0.5155 -0.3360 -0.0935
72086SOL    HW134250   9.568  12.036  13.716 -0.7473 -0.1631  1.3369
72086SOL    HW234251   9.463  11.963  13.634 -0.2647  0.8084 -0.1815
72087SOL     OW34252   3.830  13.725   9.309 -0.1844 -0.2808  0.0489
72087SOL    HW134253   3.758  13.710   9.247  0.9545 -0.6662 -1.2324
72087SOL    HW234254   3.810  13.810   9.348 -0.4271  0.4813 -1.6309
72088SOL     OW34255   8.346   4.134   8.046 -1.1929  0.1303 -0.3879
72088SOL    HW134256   8.333   4.045   8.015 -2.8871 -0.0064  0.6119
72088SOL    HW234257   8.352   4.126   8.141 -0.6856  1.0239 -0.3313
72089SOL     OW34258   0.427  12.476   2.224  0.0423 -0.2266  0.0056
72089SOL    HW134259   0.457  12.385   2.234  1.1538  0.1900  0.6674
72089SOL    HW234260   0.507  12.528   2.227 -0.7327  1.0283  2.9797
72090SOL     OW34261  10.644   7.045   8.872 -0.6761 -0.2132 -0.6711
72090SOL    HW134262  10.655   7.110   8.942 -0.3364 -1.2789  0.3024
72090SOL    HW234263  10.554   7.016   8.880 -0.6773 -0.2355 -0.7686
72091SOL     OW34264   3.750   7.537   6.037  0.1792 -0.1457 -0.0058
72091SOL    HW134265   3.690   7.466   6.015 -0.6156  0.9603 -1.7337
72091SOL    HW234266   3.769   7.525   6.130 -0.9444 -1.8408  0.0562
72092SOL     OW34267  10.405   9.005   7.265  0.6075 -0.1696 -0.4498
72092SOL    HW134268  10.500   9.016   7.269  0.2996  3.2368  0.3364
72092SOL    HW234269  10.378   9.061   7.192 -0.8717 -0.2539  0.0124
72093SOL     OW34270   7.437   9.012   6.145  0.3609 -0.3606  0.5688
72093SOL    HW134271   7.420   8.918   6.136  0.1056 -0.2331 -0.3745
72093SOL    HW234272   7.369   9.043   6.205  0.1008 -0.6774  0.4393
72094SOL     OW34273  12.738  12.595  13.761  0.8383 -0.3775  0.0696
72094SOL    HW134274  12.816  12.648  13.743  1.4953 -1.2083  0.4042
72094SOL    HW234275  12.697  12.637  13.837  1.3933 -0.3760  0.3771
72095SOL     OW34276   1.701  13.716   9.678 -0.7758  0.6974  0.3134
72095SOL    HW134277   1.686  13.809   9.663 -1.5553  0.7763  1.4977
72095SOL    HW234278   1.631  13.689   9.737  0.5525 -0.2008  1.5403
72096SOL     OW34279   9.626   9.171   6.498  0.6503 -0.2590  0.0342
72096SOL    HW134280   9.617   9.232   6.425 -0.2296 -0.1317  0.2378
72096SOL    HW234281   9.669   9.094   6.461 -1.5623 -1.0157 -1.1212
72097SOL     OW34282   0.843  11.178  10.459  0.2206  0.3424  0.5113
72097SOL    HW134283   0.812  11.263  10.491  0.9008  0.6329  0.4222
72097SOL    HW234284   0.909  11.200  10.393 -0.9802 -0.2493 -0.9178
72098SOL     OW34285   0.106   7.336   2.614  0.3832 -0.7642  0.0936
72098SOL    HW134286   0.151   7.362   2.534  0.0808 -1.0613 -0.1744
72098SOL    HW234287   0.019   7.310   2.585 -1.0220  2.4632  0.8702
72099SOL     OW34288   3.175  11.903   6.201 -0.1014  0.0963 -0.2427
72099SOL    HW134289   3.212  11.989   6.220 -0.9751  0.2362  0.9430
72099SOL    HW234290   3.212  11.879   6.116  1.4659  0.8917  0.1731
72100SOL     OW34291   2.951  11.209   5.401 -0.2429 -0.2387  0.1305
72100SOL    HW134292   2.915  11.298   5.390 -2.5840 -1.2986 -1.5936
72100SOL    HW234293   2.996  11.212   5.485 -1.7416  2.1384  0.9509
72101SOL     OW34294   2.595   9.249   0.099 -0.0453 -0.5874 -0.6809
72101SOL    HW134295   2.585   9.297   0.017 -1.6851 -0.3493 -0.3828
72101SOL    HW234296   2.606   9.317   0.166  0.1248 -0.7375 -0.5542
72102SOL     OW34297   8.753   9.848   2.495  0.0151  0.2529  0.1673
72102SOL    HW134298   8.779   9.755   2.496  1.5330  0.6207 -1.0706
72102SOL    HW234299   8.662   9.847   2.467  0.5833 -0.8150 -1.8942
72103SOL     OW34300  10.760   3.402   6.598 -0.1618 -0.4980 -0.1145
72103SOL    HW134301  10.720   3.322   6.563  0.3734 -1.0470  0.4981
72103SOL    HW234302  10.709   3.421   6.678  1.0776 -1.4976  0.9624
72104SOL     OW34303   5.317   1.494   7.027 -0.2943  0.0395 -0.5385
72104SOL    HW134304   5.328   1.436   7.103 -1.4229  0.9490  0.3659
72104SOL    HW234305   5.297   1.436   6.954  2.3869 -1.0053 -0.5484
72105SOL     OW34306  10.305   1.320  10.500  0.2947  0.1725  0.4811
72105SOL    HW134307  10.364   1.394  10.516  1.0180 -0.2263 -0.2714
72105SOL    HW234308  10.337   1.280  10.419 -0.3608 -0.7028  0.6325
72106SOL     OW34309   4.668   7.894  10.051  0.2712  0.3754  0.3360
72106SOL    HW134310   4.594   7.900   9.991  0.6638  0.1692 -0.1756
72106SOL    HW234311   4.630   7.857  10.131 -0.6876  2.5803  0.9952
72107SOL     OW34312  10.463  11.403   4.706 -0.8759 -0.0559 -0.0840
72107SOL    HW134313  10.510  11.386   4.624 -1.0266  0.5013 -0.2921
72107SOL    HW234314  10.465  11.498   4.715 -0.9640 -0.1079  0.5023
72108SOL     OW34315   0.035   3.039   5.462  0.0803 -0.1307 -0.2521
72108SOL    HW134316   0.109   2.998   5.505 -0.1281 -0.8077 -0.5060
72108SOL    HW234317   0.073   3.086   5.388  0.0720 -2.8512 -2.1511
72109SOL     OW34318   7.337  10.446   2.632  0.7313 -0.3933 -0.0068
72109SOL    HW134319   7.302  10.379   2.573 -1.2115  0.7147 -0.2071
72109SOL    HW234320   7.339  10.403   2.718 -1.1141 -0.5445 -0.0036
72110SOL     OW34321   9.275   9.822   6.552 -0.7353  0.3227 -0.3281
72110SOL    HW134322   9.203   9.830   6.489 -1.6789  1.7062  0.8588
72110SOL    HW234323   9.330   9.899   6.535  0.5619 -0.7642 -1.2780
72111SOL     OW34324  11.046  13.103  10.430 -0.3535 -0.2362  0.2393
72111SOL    HW134325  10.984  13.039  10.395  0.4437 -0.5849 -0.5920
72111SOL    HW234326  11.023  13.111  10.523 -0.8381 -1.3002  0.2247
72112SOL     OW34327   5.153   7.557   4.846  0.1543  0.2672 -0.3065
72112SOL    HW134328   5.101   7.634   4.865  1.4189  0.9856  0.4195
72112SOL    HW234329   5.243   7.583   4.868  0.5343 -1.5947  0.5442
72113SOL     OW34330   6.562  12.384   8.302  0.6838  0.0566  0.6105
72113SOL    HW134331   6.657  12.380   8.318  0.6644  1.7510  1.3423
72113SOL    HW234332   6.536  12.470   8.333 -0.5819  0.8757 -2.3866
72114SOL     OW34333  12.465   0.216   2.507  0.2203  0.2903  0.5304
72114SOL    HW134334  12.445   0.259   2.591  0.9370 -1.0959  1.4498
72114SOL    HW234335  12.411   0.137   2.507 -0.3284  0.6410 -0.6758
72115SOL     OW34336  10.681   3.727   7.254 -0.4308  0.1092  0.3636
72115SOL    HW134337  10.750   3.774   7.300  3.0463  0.1775 -4.2914
72115SOL    HW234338  10.646   3.790   7.191 -1.2341 -1.3404 -0.7059
72116SOL     OW34339   1.472   8.692   7.593  0.0731 -0.0257  0.1908
72116SOL    HW134340   1.535   8.753   7.632 -1.2939  0.9038  1.0439
72116SOL    HW234341   1.427   8.744   7.527 -0.9295 -0.1763  0.7421
72117SOL     OW34342   0.238   6.173   5.051 -0.3379  0.3970  0.2480
72117SOL    HW134343   0.176   6.240   5.021  0.0165  0.4941 -0.2908
72117SOL    HW234344   0.268   6.131   4.970  0.9074  0.8891  0.4298
72118SOL     OW34345   2.246   9.002   8.973  0.5761 -0.0935  0.4383
72118SOL    HW134346   2.231   8.908   8.981  2.6474 -0.5589 -0.3554
72118SOL    HW234347   2.273   9.014   8.882  1.3399  1.1131  0.7962
72119SOL     OW34348  13.232  14.079   1.645 -0.6347 -0.0924 -0.6002
72119SOL    HW134349  13.192  14.011   1.591 -0.2765 -0.5009 -0.3572
72119SOL    HW234350  13.323  14.083   1.616 -0.7538  0.5903 -0.9120
72120SOL     OW34351   5.503   2.670   6.099 -0.2970 -0.1839 -0.3730
72120SOL    HW134352   5.512   2.748   6.153 -0.2561 -0.4560  0.0165
72120SOL    HW234353   5.414   2.639   6.115  0.3535 -1.3990  1.0996
72121SOL     OW34354   6.600  10.205   8.844 -0.1090  0.1336  0.1461
72121SOL    HW134355   6.537  10.138   8.815 -1.1073  1.6936 -1.5073
72121SOL    HW234356   6.566  10.235   8.928 -1.4547  0.7259 -0.5754
72122SOL     OW34357   2.254   2.452   4.757 -0.2715  0.6923  0.0212
72122SOL    HW134358   2.280   2.459   4.665 -0.3983  2.9059  0.1068
72122SOL    HW234359   2.161   2.473   4.758 -0.2331  0.8625  0.6871
72123SOL     OW34360   0.854  11.250   5.391 -0.0711 -0.1314 -0.3934
72123SOL    HW134361   0.792  11.323   5.398 -0.3421 -0.0957 -2.5784
72123SOL    HW234362   0.929  11.279   5.444 -1.0739  0.7106  0.6334
72124SOL     OW34363   1.173   6.934   4.538 -0.2408  0.1618  0.0610
72124SOL    HW134364   1.151   6.961   4.628 -1.6248 -0.5078 -0.0573
72124SOL    HW234365   1.091   6.899   4.503  0.6960 -1.1532 -0.8946
72125SOL     OW34366   3.049   3.572   1.857 -0.6746  0.3036 -0.4024
72125SOL    HW134367   3.010   3.533   1.935  0.1146 -0.4300 -0.3584
72125SOL    HW234368   3.120   3.626   1.890 -0.0789 -0.3329 -0.6359
72126SOL     OW34369   9.082   7.585   4.999 -0.2259  0.0356 -0.0849
72126SOL    HW134370   9.118   7.512   5.048 -1.3662 -0.9170 -0.6158
72126SOL    HW234371   9.048   7.645   5.066  0.6624  0.0595  0.3483
72127SOL     OW34372  13.035   5.473   3.347  0.1643 -0.0522 -0.1230
72127SOL    HW134373  13.104   5.538   3.365  1.3645 -1.1973 -0.4662
72127SOL    HW234374  13.002   5.497   3.261  0.2862  0.3682 -0.0568
72128SOL     OW34375   9.445   4.977  11.062  0.5027  0.1290 -0.0296
72128SOL    HW134376   9.429   4.959  10.969 -0.0035  1.9665 -0.3333
72128SOL    HW234377   9.511   5.046  11.062 -1.4503  2.1190  0.8369
72129SOL     OW34378   3.549   7.565  12.869  0.2502 -0.9062 -0.3123
72129SOL    HW134379   3.523   7.622  12.941 -0.5530 -0.9386 -0.5600
72129SOL    HW234380   3.466   7.535  12.832  0.6527 -0.8658 -1.2669
72130SOL     OW34381   5.137  12.588   8.598 -0.0576  0.2000 -0.0852
72130SOL    HW134382   5.142  12.526   8.526 -1.6011 -1.3528  1.0593
72130SOL    HW234383   5.062  12.644   8.577 -0.4397 -0.1818  0.2463
72131SOL     OW34384   1.072   6.925   5.949 -0.0008  0.3333 -0.3048
72131SOL    HW134385   1.019   6.845   5.952  0.5305 -0.0999 -1.8256
72131SOL    HW234386   1.126   6.916   5.870  0.0103  2.2345 -0.5618
72132SOL     OW34387  10.910   3.856   2.383  0.1279 -0.0090  0.0399
72132SOL    HW134388  10.990   3.841   2.333  0.0759  3.3340 -1.2934
72132SOL    HW234389  10.839   3.850   2.319 -0.6124 -1.4994  0.9355
72133SOL     OW34390  12.246  11.176  12.974  0.5296 -0.2327  0.6882
72133SOL    HW134391  12.302  11.099  12.977 -0.1237 -0.6865  1.4921
72133SOL    HW234392  12.298  11.241  12.927  0.5177 -1.6208 -1.3799
72134SOL     OW34393   2.324   8.141  13.329 -0.0172 -0.5785  0.0508
72134SOL    HW134394   2.361   8.100  13.408  1.6136 -0.3653 -0.5578
72134SOL    HW234395   2.234   8.111  13.326  0.2029 -1.4685  1.4076
72135SOL     OW34396  10.366   1.754  11.439 -0.3550  0.3701 -0.2441
72135SOL    HW134397  10.371   1.849  11.451  0.1754  0.6965 -2.6018
72135SOL    HW234398  10.440   1.720  11.490  0.9442  1.4671 -1.3248
72136SOL     OW34399   0.830   9.012  10.083 -0.2625  0.0946  0.0742
72136SOL    HW134400   0.854   8.935  10.135  0.9403  1.3635  1.5200
72136SOL    HW234401   0.751   9.046  10.124  0.1305  0.5352  0.4842
72137SOL     OW34402  13.160   4.666   6.318 -0.5465 -0.2003 -0.2297
72137SOL    HW134403  13.187   4.603   6.385 -1.0189 -0.4950 -0.3150
72137SOL    HW234404  13.177   4.621   6.235 -1.5018 -0.4751 -0.2811
72138SOL     OW34405  14.122   4.062   0.307 -0.0066 -0.1564  0.4773
72138SOL    HW134406  14.068   4.124   0.258  0.9516 -0.3490 -0.8753
72138SOL    HW234407  14.151   3.998   0.241  1.4317 -0.3510  1.2594
72139SOL     OW34408  11.335   9.985   2.886 -0.2020  0.0729 -0.1856
72139SOL    HW134409  11.336   9.894   2.855 -1.8628  0.3580 -1.2504
72139SOL    HW234410  11.288   9.982   2.969  0.3458 -0.1245  0.1193
72140SOL     OW34411   8.334   5.575   2.293  0.3212  0.2346  0.0964
72140SOL    HW134412   8.326   5.543   2.204 -2.9757 -3.3418  1.3808
72140SOL    HW234413   8.428   5.585   2.307  1.1141 -1.6731 -2.9495
72141SOL     OW34414   0.495   9.911   9.419 -0.1977  0.0239 -0.1243
72141SOL    HW134415   0.506   9.878   9.330  0.2444  0.1940 -0.1317
72141SOL    HW234416   0.582   9.906   9.459 -0.1820  0.8663 -0.0230
72142SOL     OW34417   0.315   2.281   0.284  0.4000 -0.5545 -0.0897
72142SOL    HW134418   0.221   2.275   0.297  0.4781 -0.4890  0.5286
72142SOL    HW234419   0.345   2.190   0.284  0.1018 -0.7033 -2.2229
72143SOL     OW34420   5.150   3.858  12.865 -0.2084 -0.0093 -0.0371
72143SOL    HW134421   5.141   3.784  12.925  0.6278 -0.2546 -0.1991
72143SOL    HW234422   5.102   3.929  12.907 -0.7905 -0.5657  0.2521
72144SOL     OW34423   1.368   0.621   0.440 -0.0525  0.0931  0.0537
72144SOL    HW134424   1.279   0.656   0.452  0.4002  1.8016 -1.1420
72144SOL    HW234425   1.354   0.534   0.404 -1.2616  0.3137 -0.0745
72145SOL     OW34426   0.975   0.873  10.433  0.2198  0.0507  0.3173
72145SOL    HW134427   1.064   0.907  10.423  0.2134  0.4280  1.3963
72145SOL    HW234428   0.981   0.782  10.404  0.5196  0.5927 -1.4021
72146SOL     OW34429   3.103  13.307  13.698 -0.7266  0.2337  0.1713
72146SOL    HW134430   3.193  13.279  13.681 -0.6558  0.0043  0.8929
72146SOL    HW234431   3.107  13.403  13.700 -0.4357  0.2165  0.5046
72147SOL     OW34432   9.467   9.628   9.592  0.0118  0.0892  0.3308
72147SOL    HW134433   9.465   9.532   9.594  0.6139  0.0722  0.4685
72147SOL    HW234434   9.462   9.650   9.499 -1.3029 -0.0285  0.3558
72148SOL     OW34435   9.907   3.956  12.494 -0.3306 -0.1245  0.0635
72148SOL    HW134436   9.966   3.969  12.568 -1.0575  0.5380  0.5469
72148SOL    HW234437   9.841   3.894  12.525 -0.7778  0.3410  0.0649
72149SOL     OW34438  11.211   6.902  11.860  0.0943  0.1962  0.1436
72149SOL    HW134439  11.157   6.832  11.896  2.0200  0.2912  3.5744
72149SOL    HW234440  11.278   6.856  11.807  0.0117 -0.3661  0.5223
72150SOL     OW34441  11.987   4.766  13.931 -0.8093  0.3162 -0.2918
72150SOL    HW134442  11.959   4.710  14.004  0.4429  2.7459  2.2315
72150SOL    HW234443  12.067   4.808  13.962 -1.0928  2.6884 -2.4345
72151SOL     OW34444   5.221  11.805   7.996  0.0070  0.2662 -0.1939
72151SOL    HW134445   5.130  11.811   8.024  0.2930 -1.6675  1.3868
72151SOL    HW234446   5.228  11.718   7.957  1.2313  0.2674 -0.0114
72152SOL     OW34447   2.670  12.436  12.938  0.2015  0.0073 -0.3533
72152SOL    HW134448   2.640  12.358  12.891 -0.0144 -0.1909  0.1132
72152SOL    HW234449   2.748  12.464  12.889 -0.4435  0.2401 -1.2750
72153SOL     OW34450   3.926   2.962   2.485  0.6839  0.4255 -0.1206
72153SOL    HW134451   3.909   3.053   2.460 -1.6587  0.3850  1.0109
72153SOL    HW234452   3.993   2.967   2.552 -0.2533  1.4619  0.7701
72154SOL     OW34453   1.967   6.414  11.382  0.2830 -0.5549 -0.1161
72154SOL    HW134454   2.049   6.365  11.381 -0.0537 -1.1600  0.7197
72154SOL    HW234455   1.904   6.357  11.339  0.3463  0.0226 -0.9999
72155SOL     OW34456  11.872   1.223   1.495  0.4525 -0.5556  0.0134
72155SOL    HW134457  11.959   1.248   1.461 -0.4088 -1.1305 -2.8832
72155SOL    HW234458  11.866   1.268   1.580  2.7976  1.1116 -0.5888
72156SOL     OW34459   5.748   6.660  10.590 -0.4343 -0.3543 -0.0509
72156SOL    HW134460   5.761   6.719  10.516 -1.0835 -3.7349 -3.1647
72156SOL    HW234461   5.835   6.624  10.608 -0.7192 -1.8939 -1.4856
72157SOL     OW34462  11.389   7.428   3.326  0.7098 -0.4943  0.0896
72157SOL    HW134463  11.328   7.442   3.398 -1.2360 -1.9905 -1.1525
72157SOL    HW234464  11.339   7.448   3.247  1.8556 -1.5899 -0.9777
72158SOL     OW34465   6.889   7.455   3.378 -0.5596 -0.2822 -0.1663
72158SOL    HW134466   6.825   7.444   3.448 -1.1652 -1.2426 -0.8425
72158SOL    HW234467   6.900   7.550   3.369 -2.0173 -0.0967 -0.1484
72159SOL     OW34468  13.799   5.946   6.218  0.2337 -0.0752  0.0704
72159SOL    HW134469  13.709   5.945   6.250 -0.2424  1.3552 -1.0761
72159SOL    HW234470  13.829   6.036   6.235  0.3834  0.3646 -2.2094
72160SOL     OW34471   9.692   4.531   8.026  0.4614 -0.7063  0.3642
72160SOL    HW134472   9.702   4.622   8.000 -1.8569 -0.5736 -0.2938
72160SOL    HW234473   9.759   4.484   7.976  0.3215  0.3727 -0.8843
72161SOL     OW34474   7.639   2.879   7.089  0.5010 -0.8989  0.0348
72161SOL    HW134475   7.669   2.831   7.166 -0.7797 -0.7618  0.6483
72161SOL    HW234476   7.570   2.937   7.122  0.3784 -0.3646 -1.1061
72162SOL     OW34477  11.025   6.877  11.415 -0.2278 -0.1013  0.0789
72162SOL    HW134478  10.954   6.814  11.431  0.1996 -0.8949 -1.0575
72162SOL    HW234479  11.000   6.922  11.334  0.7441 -0.6726 -0.5596
72163SOL     OW34480  13.821   5.324   1.259  0.8063  0.1904  0.4180
72163SOL    HW134481  13.774   5.323   1.175  3.0344 -0.6401 -0.9373
72163SOL    HW234482  13.811   5.414   1.291  0.0659  0.5907 -0.8618
72164SOL     OW34483   5.751   1.309  10.402 -0.3175  0.8373 -0.0436
72164SOL    HW134484   5.668   1.352  10.386 -0.8105  0.6946  1.9202
72164SOL    HW234485   5.733   1.246  10.472  0.6743 -1.6336 -1.8520
72165SOL     OW34486  13.283   8.545   9.291  0.5714  0.0254  0.1007
72165SOL    HW134487  13.190   8.566   9.284  0.7678  1.2885  0.9047
72165SOL    HW234488  13.302   8.553   9.385  1.5132 -0.1086 -0.0679
72166SOL     OW34489   5.598   9.764   4.552  0.5555 -0.0223 -0.0973
72166SOL    HW134490   5.576   9.801   4.638 -0.2216 -0.9954  0.1391
72166SOL    HW234491   5.655   9.829   4.512 -1.9725  2.2317 -0.3294
72167SOL     OW34492   9.081   3.907   5.272 -0.5569  0.0010 -0.2046
72167SOL    HW134493   9.092   3.959   5.192  1.6360 -0.9465 -0.5855
72167SOL    HW234494   9.063   3.819   5.240 -0.8011 -0.1714  0.3956
72168SOL     OW34495   2.332  13.895   5.963 -0.5184 -0.0658 -0.1144
72168SOL    HW134496   2.348  13.812   6.008  1.5673  1.5561  2.4600
72168SOL    HW234497   2.250  13.927   6.000  0.6766  0.7807  1.9927
72169SOL     OW34498   0.860  12.929   7.288  0.0342 -0.5563  0.1424
72169SOL    HW134499   0.841  12.841   7.320  0.3591 -0.5452  0.3721
72169SOL    HW234500   0.951  12.945   7.313  0.0562 -0.2522 -0.1196
72170SOL     OW34501  11.599  11.233   2.749 -0.5107  0.1386 -0.3139
72170SOL    HW134502  11.605  11.254   2.655  1.9543  0.7466 -0.1028
72170SOL    HW234503  11.538  11.298   2.783  0.6366  1.7146 -1.1004
72171SOL     OW34504   7.502   1.175   3.595  0.6146  0.4118 -0.3349
72171SOL    HW134505   7.428   1.155   3.538  0.9379  0.0056 -0.6225
72171SOL    HW234506   7.497   1.269   3.608  0.2403  0.4367 -0.6248
72172SOL     OW34507   9.735   7.920   6.829  0.0712  0.2303 -0.0573
72172SOL    HW134508   9.745   7.986   6.898  2.8077 -0.7386  0.6405
72172SOL    HW234509   9.744   7.836   6.875  2.9733 -0.4400 -1.5900
72173SOL     OW34510   1.235   8.677   6.485 -0.5777 -0.1845 -0.0664
72173SOL    HW134511   1.172   8.671   6.413  0.6007 -0.6364 -1.0782
72173SOL    HW234512   1.199   8.620   6.553 -2.6269  1.6080  0.4595
72174SOL     OW34513   9.412  10.125   3.923  0.5998 -0.1554 -0.5167
72174SOL    HW134514   9.462  10.189   3.873  1.6760 -1.0551 -0.6418
72174SOL    HW234515   9.320  10.148   3.907  0.8620  3.0851  1.6710
72175SOL     OW34516   7.853   0.220   0.264  0.4006  0.0058 -0.2263
72175SOL    HW134517   7.796   0.198   0.190  1.9207  0.4506 -1.5995
72175SOL    HW234518   7.818   0.169   0.337 -0.9309 -0.7493 -1.3389
72176SOL     OW34519   4.620   1.713  12.313  0.0763 -0.1265 -0.2078
72176SOL    HW134520   4.571   1.636  12.284 -0.6009 -0.3928  1.5225
72176SOL    HW234521   4.585   1.785  12.260 -0.5593 -0.7067 -0.6016
72177SOL     OW34522   8.815  13.554  10.493  0.0732  0.0913  0.1875
72177SOL    HW134523   8.778  13.541  10.405 -0.5129 -2.2956  0.7017
72177SOL    HW234524   8.743  13.533  10.553  0.3143  2.1887  1.2974
72178SOL     OW34525   9.391  10.457   4.276 -0.0976 -0.0126 -0.1179
72178SOL    HW134526   9.299  10.462   4.301 -0.0645  0.5497 -0.1026
72178SOL    HW234527   9.412  10.364   4.280 -1.1311 -0.3625 -1.8034
72179SOL     OW34528   0.716   8.669   5.427 -0.1849  0.0943  0.1961
72179SOL    HW134529   0.628   8.706   5.433 -0.9103 -1.3992 -0.6240
72179SOL    HW234530   0.754   8.685   5.514 -0.6824  2.0890  0.0859
72180SOL     OW34531   8.883   7.844  11.584 -0.1766 -0.2663 -0.0021
72180SOL    HW134532   8.827   7.853  11.507  0.3173 -1.0390 -0.4691
72180SOL    HW234533   8.922   7.757  11.575  1.8865  0.6367 -0.2301
72181SOL     OW34534   0.350  10.991   4.562 -0.3577 -0.8438 -0.5634
72181SOL    HW134535   0.439  10.962   4.545 -0.0750  0.1142 -0.7943
72181SOL    HW234536   0.324  10.945   4.642  1.7237  1.6222  1.7425
72182SOL     OW34537   2.667   1.068   6.110 -0.1249 -0.5365  0.5745
72182SOL    HW134538   2.661   0.993   6.051  0.0367 -0.4008  0.3834
72182SOL    HW234539   2.605   1.048   6.181  0.0942 -0.9668  0.6544
72183SOL     OW34540   2.866  10.418   9.125  0.0772 -0.3352 -0.5292
72183SOL    HW134541   2.876  10.338   9.177 -1.1179  0.3077  0.7559
72183SOL    HW234542   2.879  10.390   9.035  0.8530 -1.7451 -0.0105
72184SOL     OW34543   6.254   7.109  11.603 -0.0785 -0.7956 -0.2649
72184SOL    HW134544   6.324   7.069  11.654  0.4949  1.3212  0.7408
72184SOL    HW234545   6.216   7.037  11.553  2.2458 -2.1580 -0.1923
72185SOL     OW34546  10.046  13.335   3.214  0.2265 -0.2491  0.3009
72185SOL    HW134547  10.114  13.280   3.176 -1.4294 -1.0495 -1.6731
72185SOL    HW234548  10.086  13.421   3.222  1.8379 -0.9764  0.3897
72186SOL     OW34549  12.591   4.434  12.056  0.0004  0.4419 -0.7380
72186SOL    HW134550  12.599   4.407  11.965 -1.8546  2.7292 -1.6839
72186SOL    HW234551  12.638   4.518  12.060 -1.5548  1.3217 -0.1206
72187SOL     OW34552  10.801   6.714   1.870 -0.0264  0.2916 -0.1147
72187SOL    HW134553  10.882   6.713   1.921  0.4063  3.1701 -0.5610
72187SOL    HW234554  10.829   6.740   1.782 -1.2239 -0.7945 -0.8493
72188SOL     OW34555   0.601  13.660   4.260 -0.4162  0.1592 -0.1765
72188SOL    HW134556   0.515  13.694   4.286  0.4397  0.6067  2.3782
72188SOL    HW234557   0.660  13.735   4.272  0.9385 -1.1536  2.1394
72189SOL     OW34558   5.799   1.695  11.064  0.2579 -0.1654  0.6221
72189SOL    HW134559   5.879   1.654  11.033 -0.4633 -1.3161  0.1998
72189SOL    HW234560   5.797   1.677  11.158 -0.6710 -2.3036  0.2491
72190SOL     OW34561  11.125  11.887   3.731 -0.5010  0.2145 -0.1462
72190SOL    HW134562  11.190  11.912   3.666  1.9923 -1.8999  1.3477
72190SOL    HW234563  11.151  11.934   3.810 -2.3256  1.2365 -0.0910
72191SOL     OW34564   5.026   9.074   3.657 -0.0682  0.3529  0.3136
72191SOL    HW134565   4.931   9.080   3.654 -0.1209 -0.4772 -2.0964
72191SOL    HW234566   5.053   9.146   3.715 -2.1333  0.5370  1.1307
72192SOL     OW34567   6.762   9.008   7.941  0.2729  0.0146 -0.3222
72192SOL    HW134568   6.705   8.933   7.925  0.0536  0.2835 -0.8329
72192SOL    HW234569   6.705   9.072   7.984  0.4124 -0.0456 -0.0488
72193SOL     OW34570  13.820   4.502   8.779  0.4029 -0.5599 -0.5070
72193SOL    HW134571  13.868   4.426   8.811  1.3708  0.2084 -0.0706
72193SOL    HW234572  13.846   4.573   8.837 -0.9963 -0.0274 -0.4930
72194SOL     OW34573   8.246   6.148   7.610 -0.0769 -0.1415 -0.2858
72194SOL    HW134574   8.205   6.087   7.671  2.2996 -3.4055 -1.6528
72194SOL    HW234575   8.339   6.148   7.634  0.1463  2.4438 -0.8428
72195SOL     OW34576   6.804   5.668   0.312 -0.8926 -0.1163 -0.1898
72195SOL    HW134577   6.716   5.696   0.336 -0.9514 -1.2367  0.9921
72195SOL    HW234578   6.854   5.749   0.306 -1.9628  0.5292 -0.7724
72196SOL     OW34579   7.536  11.634   6.739 -0.0783 -0.3194 -0.3933
72196SOL    HW134580   7.521  11.597   6.826 -2.7404  1.5028  0.0328
72196SOL    HW234581   7.540  11.558   6.681 -2.2801 -1.4432  0.8371
72197SOL     OW34582  11.456   4.346  11.615  0.5177 -0.2955 -0.3871
72197SOL    HW134583  11.390   4.317  11.551  2.4595 -0.5295 -2.3890
72197SOL    HW234584  11.478   4.266  11.663 -0.3669 -0.2848  0.0701
72198SOL     OW34585  11.302  13.690   2.379 -0.5690 -0.2074  0.5691
72198SOL    HW134586  11.287  13.613   2.434 -0.6772 -0.8341 -0.3082
72198SOL    HW234587  11.311  13.762   2.440  3.2852 -1.4160  1.6966
72199SOL     OW34588  11.207   9.645  14.057 -0.6217  0.1516  0.3513
72199SOL    HW134589  11.244   9.593  13.985 -1.0489  0.9528 -0.4609
72199SOL    HW234590  11.241   9.733  14.042 -0.9477  0.3824  0.9670
72200SOL     OW34591   0.229   5.965   3.947 -0.1689 -0.3286  0.1702
72200SOL    HW134592   0.298   6.024   3.915 -0.6474  1.1334  1.6907
72200SOL    HW234593   0.169   6.022   3.994 -1.0481 -1.9485  1.1050
72201SOL     OW34594  12.622   1.124   8.187  0.1832 -0.3322  0.4342
72201SOL    HW134595  12.534   1.126   8.150  0.3126  1.1059  0.1490
72201SOL    HW234596  12.668   1.057   8.135 -0.1465  0.4182 -0.8606
72202SOL     OW34597   0.847  12.605   2.290  0.5241  0.0533  0.8097
72202SOL    HW134598   0.923  12.610   2.232 -0.5165 -1.1066 -0.7332
72202SOL    HW234599   0.851  12.517   2.326 -1.4880 -1.0919 -1.4380
72203SOL     OW34600   1.693  12.918   4.001  0.6241 -0.0579 -0.2439
72203SOL    HW134601   1.657  12.943   3.916  0.2068 -1.0911 -0.3853
72203SOL    HW234602   1.778  12.880   3.981 -0.6911 -3.0899 -0.5836
72204SOL     OW34603   0.117  10.124   9.798 -0.1480 -0.4844 -0.2670
72204SOL    HW134604   0.138  10.033   9.775 -0.3914 -0.4869 -0.4757
72204SOL    HW234605   0.157  10.136   9.884  0.8671 -0.4401 -0.7275
72205SOL     OW34606   3.232  10.349   8.358 -0.0728  0.4231 -0.5369
72205SOL    HW134607   3.309  10.402   8.380  0.2169  0.0448 -0.6298
72205SOL    HW234608   3.235  10.341   8.263  0.8489 -1.1915 -0.3986
72206SOL     OW34609   3.807   8.319   6.105 -0.3070 -0.2670 -0.4626
72206SOL    HW134610   3.801   8.415   6.107 -0.0325 -0.2183 -1.4446
72206SOL    HW234611   3.901   8.302   6.094 -0.3432 -0.6542 -0.1658
72207SOL     OW34612  13.750  11.802   5.114 -0.1991 -0.1577  0.3582
72207SOL    HW134613  13.789  11.839   5.035  1.3864 -0.0226  1.1576
72207SOL    HW234614  13.665  11.770   5.086  0.3189 -0.1073 -1.3967
72208SOL     OW34615  13.136   0.105  11.780  0.1209  0.1784 -0.2781
72208SOL    HW134616  13.112   0.041  11.848 -0.5448 -0.6790 -1.2831
72208SOL    HW234617  13.232   0.109  11.784  0.0711  0.4350  0.9620
72209SOL     OW34618  13.536  14.047   1.262 -0.1059 -0.5507  0.3999
72209SOL    HW134619  13.486  14.059   1.182  0.7114  0.1464 -0.0291
72209SOL    HW234620  13.623  14.020   1.233  0.3120  0.0631  1.0102
72210SOL     OW34621   9.432   2.330   0.741  0.3502  0.6661 -0.5470
72210SOL    HW134622   9.372   2.405   0.754 -2.2148 -1.4649  1.0307
72210SOL    HW234623   9.391   2.279   0.671 -0.0288 -1.0458  0.8397
72211SOL     OW34624  10.851  13.318   1.032  0.2072 -0.3003  0.0886
72211SOL    HW134625  10.896  13.344   0.952 -1.3627  0.0396 -0.7188
72211SOL    HW234626  10.887  13.376   1.100  0.2598  0.6487 -0.7338
72212SOL     OW34627   5.813   9.900   3.988 -0.0716  0.2113  0.1176
72212SOL    HW134628   5.721   9.877   4.004  0.2398 -1.2856 -0.1119
72212SOL    HW234629   5.846   9.928   4.073 -0.1764 -1.3450  0.6930
72213SOL     OW34630   3.108   3.205   4.710 -0.0026 -0.1654  0.1396
72213SOL    HW134631   3.070   3.128   4.667 -0.4126  0.0678  0.0797
72213SOL    HW234632   3.125   3.175   4.799  0.2590 -0.4613 -0.0072
72214SOL     OW34633   1.412   6.413   2.586  0.0917 -0.8328 -0.4444
72214SOL    HW134634   1.399   6.435   2.494  1.5003  1.1918 -0.2230
72214SOL    HW234635   1.371   6.327   2.596 -0.7531 -0.7723 -2.7629
72215SOL     OW34636   3.461  10.000  11.868  0.1775  0.2219 -0.5994
72215SOL    HW134637   3.524   9.972  11.935 -0.3922 -3.3038 -1.3495
72215SOL    HW234638   3.515  10.031  11.796  0.9219  0.3079 -0.0217
72216SOL     OW34639  12.340  10.659   2.063 -0.1247 -0.1716 -0.3155
72216SOL    HW134640  12.419  10.652   2.009  0.5429  0.7118  0.5331
72216SOL    HW234641  12.325  10.753   2.072 -0.5735 -0.3199  0.5458
72217SOL     OW34642  13.723   4.394   3.377 -0.0685 -0.2077 -0.6055
72217SOL    HW134643  13.643   4.433   3.412  0.5336  0.1445  0.4262
72217SOL    HW234644  13.739   4.317   3.432 -1.1673 -1.9074 -2.5387
72218SOL     OW34645   9.200  10.225   4.440 -0.5554  0.0852 -0.0801
72218SOL    HW134646   9.191  10.263   4.352 -1.0339  2.7181  1.0434
72218SOL    HW234647   9.130  10.265   4.491  1.6192  1.0666  2.3117
72219SOL     OW34648  12.257   6.675   0.017  0.7127 -0.4110 -0.9159
72219SOL    HW134649  12.268   6.723  -0.065 -0.3660  0.8702 -0.3435
72219SOL    HW234650  12.271   6.740   0.085  0.1212 -1.1150 -0.0968
72220SOL     OW34651   9.494  13.309   0.409  0.0767 -0.0741 -0.7457
72220SOL    HW134652   9.571  13.262   0.380 -0.4003 -0.6123 -1.1595
72220SOL    HW234653   9.425  13.243   0.413 -0.5103  0.5135 -0.9544
72221SOL     OW34654  13.280   6.788  10.940  0.3901 -0.3153  0.2468
72221SOL    HW134655  13.258   6.869  10.894 -0.4005 -0.3403  0.5685
72221SOL    HW234656  13.277   6.812  11.033 -0.9810 -0.9779  0.3892
72222SOL     OW34657   9.707  13.852   7.725 -0.5713  0.9380  0.0021
72222SOL    HW134658   9.684  13.765   7.692  0.2999  1.1976 -1.3793
72222SOL    HW234659   9.758  13.836   7.804 -0.0068  0.1650 -0.5082
72223SOL     OW34660   2.431  13.372  14.038 -0.2779 -0.0789  0.2612
72223SOL    HW134661   2.391  13.454  14.009  0.8552 -0.1767 -1.7191
72223SOL    HW234662   2.523  13.394  14.055  0.2855 -1.0987 -1.2648
72224SOL     OW34663   0.155   6.808   4.768  0.1309 -0.1032  0.0771
72224SOL    HW134664   0.079   6.807   4.710 -0.4535  0.7253  0.7923
72224SOL    HW234665   0.164   6.900   4.794  1.5154 -0.1389 -0.1481
72225SOL     OW34666   1.121   8.120   9.768 -0.0363 -0.0498 -0.7002
72225SOL    HW134667   1.136   8.215   9.768 -0.7192  0.1081  1.1843
72225SOL    HW234668   1.131   8.094   9.677  1.4268  1.6317 -1.0798
72226SOL     OW34669   8.268   7.018   7.442 -0.1147  0.4885  0.8259
72226SOL    HW134670   8.208   6.996   7.371 -1.0782 -0.1898  1.8072
72226SOL    HW234671   8.305   7.103   7.417 -0.1973  0.1248 -0.6157
72227SOL     OW34672   2.788  10.274   1.078  0.0749 -0.0282 -0.8527
72227SOL    HW134673   2.712  10.232   1.117 -0.5744  2.1686  0.4827
72227SOL    HW234674   2.752  10.329   1.009  0.5159  0.4288 -0.7287
72228SOL     OW34675   7.069   4.046  13.846 -0.1680  0.0935  0.5549
72228SOL    HW134676   6.997   3.986  13.868 -2.2562  2.2897  0.1234
72228SOL    HW234677   7.074   4.043  13.750 -2.0079  2.3034  0.2916
72229SOL     OW34678   2.812  12.475   0.454 -0.5353  0.5040 -0.3327
72229SOL    HW134679   2.795  12.423   0.532  1.2612 -0.5197 -0.5593
72229SOL    HW234680   2.727  12.514   0.431 -1.9087 -2.0670  0.0437
72230SOL     OW34681   3.484  11.479   0.926 -0.1901 -0.5275  0.0250
72230SOL    HW134682   3.573  11.507   0.945 -0.6418  0.9042  0.1487
72230SOL    HW234683   3.470  11.402   0.981  0.7239 -0.3363  0.5305
72231SOL     OW34684   9.311   6.319  10.883 -0.4327  0.1443 -0.3157
72231SOL    HW134685   9.355   6.249  10.834 -1.1001 -2.3315  2.3554
72231SOL    HW234686   9.379   6.355  10.939 -0.4534  0.5640 -0.5558
72232SOL     OW34687  13.685  10.241   8.315  0.0657  0.1795  0.3634
72232SOL    HW134688  13.703  10.300   8.389  0.0858  0.9388 -0.2307
72232SOL    HW234689  13.610  10.189   8.345 -0.3419  0.9222  0.6905
72233SOL     OW34690  12.233  11.921   9.952  0.2280 -0.6849  0.1772
72233SOL    HW134691  12.300  11.872   9.905  0.6601  0.8288 -0.8299
72233SOL    HW234692  12.206  11.990   9.892  1.2965  1.7847  2.3366
72234SOL     OW34693  12.516  11.714  10.724 -0.9863  0.3662 -0.4290
72234SOL    HW134694  12.510  11.745  10.633 -1.8716  0.9353 -0.1941
72234SOL    HW234695  12.558  11.787  10.770 -2.7479  1.1450  0.0580
72235SOL     OW34696   4.556   8.452   0.892  0.0529  0.0819 -0.5008
72235SOL    HW134697   4.557   8.542   0.925  3.9220  0.0603 -0.1862
72235SOL    HW234698   4.568   8.461   0.797  2.0979 -0.0690 -0.2868
72236SOL     OW34699   7.648   8.150  12.640 -0.1332 -0.2707 -0.1496
72236SOL    HW134700   7.719   8.107  12.594  0.5570 -0.6996  1.2493
72236SOL    HW234701   7.570   8.098  12.619  0.2484 -0.7224 -0.4547
72237SOL     OW34702  13.740   9.138  11.401  0.4570 -0.5284  0.0516
72237SOL    HW134703  13.709   9.226  11.384 -0.7730 -0.8142  0.6772
72237SOL    HW234704  13.702   9.085  11.331 -0.8293 -0.9422  1.0246
72238SOL     OW34705   7.292  10.517   8.360 -0.0935  0.1242  0.2698
72238SOL    HW134706   7.227  10.456   8.327 -0.2217 -0.6881  1.9170
72238SOL    HW234707   7.252  10.603   8.350 -1.7710 -0.4004  1.8832
72239SOL     OW34708  10.539   7.488   3.016 -0.7676 -0.7481  0.2046
72239SOL    HW134709  10.602   7.486   2.944  2.5667  1.6384  2.7210
72239SOL    HW234710  10.571   7.421   3.077 -0.5936  0.4997  1.5332
72240SOL     OW34711   8.801  10.114  10.291 -0.0600 -0.6663 -0.6022
72240SOL    HW134712   8.866  10.169  10.335 -0.5628 -1.3448  1.0641
72240SOL    HW234713   8.751  10.175  10.237 -0.5475  0.5496  1.1150
72241SOL     OW34714   2.473   0.292  13.726 -0.2870  0.1821  0.2134
72241SOL    HW134715   2.516   0.377  13.732  0.0137  0.0785 -0.4474
72241SOL    HW234716   2.543   0.230  13.708 -0.4387 -0.2800  1.1263
72242SOL     OW34717   2.496   0.919   6.251 -0.4869 -0.0401 -0.2789
72242SOL    HW134718   2.435   0.861   6.298  1.7745 -2.4816 -0.1417
72242SOL    HW234719   2.555   0.859   6.205  0.4247  2.2464 -2.2616
72243SOL     OW34720   7.021  10.469  12.293 -0.4613 -0.1494  0.2069
72243SOL    HW134721   6.945  10.468  12.352  0.5206 -0.2628  1.5279
72243SOL    HW234722   7.079  10.401  12.327  0.1539 -0.2090 -0.9073
72244SOL     OW34723   2.014   0.291   4.437 -0.1427  0.3667  0.3963
72244SOL    HW134724   2.004   0.387   4.439 -0.1093  0.3607  0.8719
72244SOL    HW234725   1.924   0.258   4.433 -0.1839  0.4014  0.9762
72245SOL     OW34726   8.821  10.888   2.593  0.3188 -0.1037  0.1122
72245SOL    HW134727   8.803  10.807   2.544 -0.7240  0.4592 -0.4828
72245SOL    HW234728   8.857  10.948   2.527  1.8329 -0.3107  0.7172
72246SOL     OW34729   9.707  12.905   9.595  0.0237 -0.5062 -0.2945
72246SOL    HW134730   9.789  12.916   9.549  1.1366  0.4826  1.7836
72246SOL    HW234731   9.646  12.965   9.552  1.1278  0.6640 -0.2544
72247SOL     OW34732  10.749   3.105   7.745 -0.4323  0.0435 -0.2858
72247SOL    HW134733  10.785   3.146   7.666  0.0277 -0.1499 -0.1773
72247SOL    HW234734  10.825   3.089   7.801 -0.8633  1.0761  0.6303
72248SOL     OW34735  10.966   2.703   8.229 -0.0025  0.2070  0.1297
72248SOL    HW134736  11.014   2.784   8.247  1.2391 -0.3358 -0.5926
72248SOL    HW234737  11.029   2.633   8.246 -0.7172 -0.5603 -0.2797
72249SOL     OW34738  13.833   0.091   6.348 -0.6812  0.0102  0.5572
72249SOL    HW134739  13.840   0.075   6.443 -0.2654  0.6814  0.6451
72249SOL    HW234740  13.921   0.074   6.315 -0.3440  1.6263  0.5851
72250SOL     OW34741   5.624   9.137  14.155 -0.2799 -0.4314  0.2687
72250SOL    HW134742   5.592   9.047  14.160 -0.4279 -0.4328 -0.5363
72250SOL    HW234743   5.580   9.173  14.078  2.2548 -0.6833 -1.3990
72251SOL     OW34744   5.831   7.945   0.443  0.3726 -0.4628  0.1197
72251SOL    HW134745   5.796   7.964   0.530 -3.0861 -0.1328 -1.1852
72251SOL    HW234746   5.839   7.850   0.441  0.1430 -0.4991  0.6907
72252SOL     OW34747   9.272  13.600   4.490  0.0407  0.1712 -0.1329
72252SOL    HW134748   9.350  13.657   4.490  0.6132 -0.5046 -2.4399
72252SOL    HW234749   9.215  13.638   4.557  1.0680  2.5088 -0.4825
72253SOL     OW34750  12.861  11.265   7.037  0.1375 -0.5331 -0.5953
72253SOL    HW134751  12.867  11.259   6.941  1.8546 -1.3629 -0.4737
72253SOL    HW234752  12.918  11.196   7.069  0.0856  0.1393  1.0553
72254SOL     OW34753   9.753   7.613   8.503 -0.0637 -0.0718  0.4677
72254SOL    HW134754   9.757   7.666   8.582  0.8371 -3.3775  2.8468
72254SOL    HW234755   9.839   7.624   8.463  0.6233 -0.7907  1.7072
72255SOL     OW34756   8.945   4.827   8.696  0.2981  0.1429  0.5926
72255SOL    HW134757   8.927   4.763   8.765  0.5344 -1.7033 -0.9770
72255SOL    HW234758   9.036   4.855   8.712  0.5443 -0.7009  0.7163
72256SOL     OW34759   3.806  11.213   9.147 -0.1719  0.6486  0.1802
72256SOL    HW134760   3.809  11.151   9.221  0.5382  1.4721  0.8725
72256SOL    HW234761   3.852  11.290   9.180  1.6696  0.4289 -1.6893
72257SOL     OW34762   9.165  12.212  11.348 -0.9935  0.9983 -0.1014
72257SOL    HW134763   9.255  12.179  11.355 -1.0589  0.6437 -0.7973
72257SOL    HW234764   9.113  12.150  11.400 -1.4066 -1.2884 -2.9633
72258SOL     OW34765   2.769  11.293   8.189  0.1902 -0.3083 -0.1586
72258SOL    HW134766   2.697  11.332   8.139 -0.3855 -1.7626 -0.5323
72258SOL    HW234767   2.820  11.245   8.124  0.5584 -0.6148  0.3498
72259SOL     OW34768   4.537   2.473   5.136  0.0844  0.2982 -0.2847
72259SOL    HW134769   4.565   2.425   5.058 -1.0918  0.7912 -1.0393
72259SOL    HW234770   4.618   2.488   5.185  0.8361 -0.1221 -1.3563
72260SOL     OW34771  12.557   6.816   9.614  0.3694  0.4264  0.0157
72260SOL    HW134772  12.540   6.727   9.644  1.9440  0.3113  0.6044
72260SOL    HW234773  12.597   6.861   9.688 -0.8698  1.8064 -0.0920
72261SOL     OW34774   5.519   0.291   9.648  0.9055  0.3269 -0.4898
72261SOL    HW134775   5.502   0.385   9.644 -0.8263  0.0528 -0.0827
72261SOL    HW234776   5.451   0.252   9.593  0.9419 -0.7601  0.2187
72262SOL     OW34777   3.134  11.702  10.994  0.0924  1.1805  0.1653
72262SOL    HW134778   3.110  11.632  10.934  0.6075 -0.1706  1.4658
72262SOL    HW234779   3.110  11.782  10.948 -1.3867  0.1375 -1.0076
72263SOL     OW34780   6.427   9.341   8.776 -0.1104 -0.4872  0.1912
72263SOL    HW134781   6.406   9.267   8.719  0.7640  0.0184 -0.8217
72263SOL    HW234782   6.376   9.414   8.740  0.4020 -0.1781  0.0849
72264SOL     OW34783  10.227  11.209  12.921  0.1587 -0.2062 -0.0876
72264SOL    HW134784  10.185  11.123  12.919  1.9632 -1.1209 -0.8013
72264SOL    HW234785  10.249  11.227  12.830 -1.1905  1.5878 -0.1284
72265SOL     OW34786   0.808  12.365  13.707  0.2138 -0.1628 -0.6841
72265SOL    HW134787   0.739  12.381  13.644  0.3464  0.6033 -0.6444
72265SOL    HW234788   0.772  12.394  13.791 -0.0094 -1.2933 -0.3733
72266SOL     OW34789   2.077   7.371  13.672  0.3640 -0.0516 -0.0524
72266SOL    HW134790   2.156   7.327  13.642  0.6890  0.6681 -0.2676
72266SOL    HW234791   2.103   7.463  13.685 -0.2038  0.0158  0.7404
72267SOL     OW34792  12.211   6.551   8.811  0.2254  0.4341 -0.0821
72267SOL    HW134793  12.148   6.479   8.824  1.4342 -0.6384  0.0751
72267SOL    HW234794  12.180   6.596   8.732 -0.2473 -0.6315 -0.5274
72268SOL     OW34795   0.806   8.677   2.513 -0.4427 -0.1285  0.0418
72268SOL    HW134796   0.818   8.772   2.522 -0.5862 -0.0292 -0.7460
72268SOL    HW234797   0.740   8.668   2.444  1.8266 -0.8389 -2.2012
72269SOL     OW34798   4.259   3.525  10.779  0.3470  0.2336  0.0185
72269SOL    HW134799   4.189   3.588  10.792  0.4541  0.4582 -0.4818
72269SOL    HW234800   4.214   3.442  10.764  0.1694  0.4525 -0.7146
72270SOL     OW34801   7.106   2.988   1.427  0.6149  0.1726  0.4788
72270SOL    HW134802   7.171   2.918   1.436  0.1956 -0.2018  0.6472
72270SOL    HW234803   7.042   2.954   1.364  0.4001  0.3962  0.5723
72271SOL     OW34804  12.221   0.177  10.003 -0.3397 -0.5730  0.1162
72271SOL    HW134805  12.211   0.237   9.929 -1.9233 -0.5295  0.3286
72271SOL    HW234806  12.241   0.234  10.077 -1.6590 -0.2925  0.2815
72272SOL     OW34807  12.663   6.906  10.779 -0.3808 -0.1327  0.1843
72272SOL    HW134808  12.750   6.927  10.745 -0.5415  0.5241  0.1680
72272SOL    HW234809  12.604   6.966  10.732 -0.7607 -0.1303  0.6574
72273SOL     OW34810  12.626  10.114   0.488  0.1478  0.7063 -0.3731
72273SOL    HW134811  12.680  10.188   0.459 -2.0100  1.6719 -2.1976
72273SOL    HW234812  12.568  10.096   0.414 -1.1868 -1.0911  1.0289
72274SOL     OW34813   8.450   6.411   7.934  0.7649 -0.5617 -0.5843
72274SOL    HW134814   8.434   6.504   7.946  1.0883 -0.7761  2.0114
72274SOL    HW234815   8.383   6.368   7.987  1.8304 -1.7609 -0.1686
72275SOL     OW34816  11.334   7.224  10.438  0.0944 -0.2052  0.2850
72275SOL    HW134817  11.365   7.264  10.357  4.0356 -1.7502  0.8187
72275SOL    HW234818  11.343   7.130  10.424 -1.4006 -0.6226  1.7665
72276SOL     OW34819   8.563  11.211   4.528 -0.0504  0.0853  0.2634
72276SOL    HW134820   8.468  11.202   4.535 -0.3161  1.5248 -0.9320
72276SOL    HW234821   8.578  11.305   4.519  1.4147 -0.1829 -0.4848
72277SOL     OW34822   7.722   3.385   5.123 -0.0912  0.2284 -0.5709
72277SOL    HW134823   7.667   3.334   5.063 -0.5414  0.3766 -0.2932
72277SOL    HW234824   7.731   3.328   5.200 -1.1861  0.8427  0.0302
72278SOL     OW34825  10.477   3.999  11.014 -0.0089 -0.2666  0.6225
72278SOL    HW134826  10.459   3.907  10.996  1.7670 -0.3194 -1.2797
72278SOL    HW234827  10.484   4.040  10.928  0.9218  1.2855  1.3866
72279SOL     OW34828   1.119   9.533   5.550 -0.0809 -0.4686 -0.5872
72279SOL    HW134829   1.150   9.459   5.497 -1.7052 -1.3274 -0.4192
72279SOL    HW234830   1.032   9.553   5.514  0.1444  1.0846 -0.3367
72280SOL     OW34831  13.507  12.971  12.600 -0.3305  0.2210 -0.1041
72280SOL    HW134832  13.489  12.950  12.508 -1.5089 -0.7052  0.3069
72280SOL    HW234833  13.495  12.888  12.646  3.0514 -0.0387  0.5679
72281SOL     OW34834   3.444  14.118   0.019 -0.0976 -0.2474 -0.5861
72281SOL    HW134835   3.530  14.091  -0.014 -0.3930 -0.2371 -1.3748
72281SOL    HW234836   3.420  14.193  -0.035 -0.3134  0.1702  0.0717
72282SOL     OW34837  10.514   5.109  13.864 -0.0861 -0.1092  0.1551
72282SOL    HW134838  10.428   5.068  13.863 -0.1913  0.1205 -0.5424
72282SOL    HW234839  10.505   5.187  13.809  0.5613 -0.0757  0.0816
72283SOL     OW34840   8.237   6.955   7.948 -0.1887 -0.3736 -0.3781
72283SOL    HW134841   8.221   6.985   7.858 -0.5479  1.9731  0.3994
72283SOL    HW234842   8.157   6.976   7.995  0.1294 -1.2408  0.5839
72284SOL     OW34843   4.344   3.587   6.144 -0.4105  0.0646  0.3803
72284SOL    HW134844   4.402   3.635   6.203 -1.0977  1.1691  0.1863
72284SOL    HW234845   4.304   3.655   6.089 -0.8256 -0.8091 -0.4260
72285SOL     OW34846   8.916   8.984   1.088 -0.0101  0.4076 -0.4933
72285SOL    HW134847   8.934   9.017   1.176  1.7112 -1.2778 -0.1280
72285SOL    HW234848   8.932   9.058   1.031 -0.9618  1.4850  0.5787
72286SOL     OW34849   5.764  11.790   5.256  0.2760 -0.5318  0.3722
72286SOL    HW134850   5.813  11.708   5.259 -0.8203 -1.2987 -1.3612
72286SOL    HW234851   5.826  11.854   5.221  0.8531 -0.8361  0.8235
72287SOL     OW34852  10.592   1.294   2.905  0.0899  0.3246  0.4874
72287SOL    HW134853  10.618   1.232   2.973 -0.0210  1.0409  1.2048
72287SOL    HW234854  10.659   1.286   2.838  1.0451  0.6880  1.3794
72288SOL     OW34855  13.712   4.371   3.985 -0.0144 -0.2500 -0.5654
72288SOL    HW134856  13.723   4.450   4.038  1.4826  0.1736 -1.4568
72288SOL    HW234857  13.641   4.323   4.029 -0.7893  1.4426  0.1373
72289SOL     OW34858   8.413  12.784  11.309 -0.2975  0.2988 -0.4731
72289SOL    HW134859   8.497  12.786  11.264 -1.1049  0.0447 -2.0617
72289SOL    HW234860   8.350  12.813  11.243 -1.2145  2.6668  1.3052
72290SOL     OW34861   3.190   7.826   9.845 -0.9820 -0.2621 -0.2017
72290SOL    HW134862   3.213   7.885   9.773 -0.3025 -0.4463 -0.1370
72290SOL    HW234863   3.267   7.770   9.856 -1.4742 -0.9087 -0.0058
72291SOL     OW34864  13.624   4.408  10.261  0.4065 -0.6629  0.0766
72291SOL    HW134865  13.651   4.438  10.348 -1.5512 -0.0459  0.5287
72291SOL    HW234866  13.681   4.454  10.201  0.2613  0.7204  0.9562
72292SOL     OW34867  11.225  13.896  10.042  0.6180 -0.3249  0.0524
72292SOL    HW134868  11.150  13.843  10.067  1.4322 -1.4715  0.1113
72292SOL    HW234869  11.226  13.968  10.105 -0.3799 -0.3248  0.0840
72293SOL     OW34870   0.421   9.819   7.994 -0.9497 -0.5371  0.4649
72293SOL    HW134871   0.334   9.793   7.965 -0.8885 -0.0766 -0.1533
72293SOL    HW234872   0.414   9.821   8.090 -1.6177 -0.5233  0.4247
72294SOL     OW34873   6.969  13.154   2.925 -0.3667 -0.3669  0.7571
72294SOL    HW134874   6.910  13.079   2.929 -1.1320  0.2407  1.1440
72294SOL    HW234875   6.931  13.210   2.857  0.7632 -0.7879 -0.2478
72295SOL     OW34876   5.615   4.186   8.916  0.3733 -0.0638  0.1738
72295SOL    HW134877   5.633   4.162   9.007  0.3310 -0.0196  0.1939
72295SOL    HW234878   5.606   4.282   8.918 -0.1922 -0.1141  0.2221
72296SOL     OW34879  11.010   4.317   1.587  0.2271  0.0047 -0.3537
72296SOL    HW134880  10.974   4.298   1.500 -1.3447 -1.2987  0.5389
72296SOL    HW234881  10.933   4.333   1.642  1.0967 -0.7122  1.1318
72297SOL     OW34882  10.075   5.699   4.193 -0.2705  0.0733 -0.2417
72297SOL    HW134883  10.138   5.632   4.169 -0.3815  0.9399 -3.2708
72297SOL    HW234884  10.015   5.704   4.119 -0.2360  3.5364 -0.1994
72298SOL     OW34885   5.773   0.322  12.312  0.4163  0.0335 -0.6852
72298SOL    HW134886   5.777   0.356  12.402 -0.5744  0.3443 -0.7514
72298SOL    HW234887   5.695   0.362  12.275  0.3863 -0.7130 -1.4392
72299SOL     OW34888  13.495   6.244   9.803  0.1743  1.0833  0.1945
72299SOL    HW134889  13.490   6.164   9.856  2.5218  1.6689  1.4172
72299SOL    HW234890  13.586   6.246   9.772 -0.5912  1.8593 -2.1850
72300SOL     OW34891   5.648   8.362  10.557  0.2060  0.7577  0.7621
72300SOL    HW134892   5.588   8.404  10.495  0.9334 -0.5310 -0.9041
72300SOL    HW234893   5.591   8.318  10.619 -0.5976  0.2262 -0.3195
72301SOL     OW34894   7.009   6.725   6.046 -0.2528 -0.5025 -0.3876
72301SOL    HW134895   6.988   6.795   5.985 -3.3242 -0.9800 -0.0555
72301SOL    HW234896   7.017   6.769   6.131 -2.2111 -0.4661 -0.1733
72302SOL     OW34897   1.439   5.432  13.986 -0.1082  0.2168 -0.0914
72302SOL    HW134898   1.395   5.382  14.055 -2.0173 -1.0489 -2.0948
72302SOL    HW234899   1.523   5.387  13.975  0.8696  1.3048  2.2748
72303SOL     OW34900   8.470   1.123   0.387 -0.0814  0.0275  0.2486
72303SOL    HW134901   8.523   1.202   0.380 -0.2863  0.0623 -1.3947
72303SOL    HW234902   8.532   1.055   0.414  0.6790  0.2159 -0.9497
72304SOL     OW34903   8.924   6.335  12.846  0.2037 -0.1963  0.1794
72304SOL    HW134904   9.004   6.313  12.894  0.5176  1.1587  0.3243
72304SOL    HW234905   8.944   6.315  12.755  0.4485 -0.5558  0.3144
72305SOL     OW34906   5.873   6.746   9.927  0.1366  0.2395  0.0140
72305SOL    HW134907   5.815   6.738  10.003  1.7733  0.9765  1.4208
72305SOL    HW234908   5.818   6.723   9.852 -1.4260 -0.9516  1.4503
72306SOL     OW34909  12.857  12.275   6.324 -0.1578  0.1295  0.7510
72306SOL    HW134910  12.936  12.315   6.361 -0.9354  1.0135  1.5236
72306SOL    HW234911  12.843  12.196   6.376 -1.7394  1.8117  3.0753
72307SOL     OW34912   3.682   7.036  11.079  0.0166 -0.1836  0.4264
72307SOL    HW134913   3.767   7.060  11.043  0.1528  0.1342  0.9524
72307SOL    HW234914   3.627   7.019  11.002  0.5371 -0.3427  0.0850
72308SOL     OW34915   4.332   1.703  10.072 -0.0106 -0.4122 -0.1359
72308SOL    HW134916   4.418   1.674  10.102 -0.0713 -0.5947 -0.1345
72308SOL    HW234917   4.342   1.796  10.056 -0.4230  0.0824  2.1051
72309SOL     OW34918  13.713   1.696   6.089 -0.1880 -0.0167 -0.5064
72309SOL    HW134919  13.675   1.609   6.081 -0.3951  0.0069  0.2270
72309SOL    HW234920  13.639   1.754   6.106  0.1069  0.0973  0.4325
72310SOL     OW34921  13.143   3.221   2.681  0.3062 -0.3629 -0.5213
72310SOL    HW134922  13.139   3.302   2.629  0.1542 -0.5730 -0.8401
72310SOL    HW234923  13.237   3.207   2.695  0.3045  0.3449  0.2949
72311SOL     OW34924   1.803   8.292   5.199 -0.1664 -0.2277 -0.0163
72311SOL    HW134925   1.897   8.298   5.187 -0.1922  1.2307  0.3132
72311SOL    HW234926   1.789   8.206   5.239  0.7385 -1.5585 -2.3577
72312SOL     OW34927   6.542   8.574   3.746  0.3577 -0.3277  0.2609
72312SOL    HW134928   6.470   8.566   3.808 -0.7694  1.4079 -0.7206
72312SOL    HW234929   6.617   8.533   3.789 -0.8488 -0.8636  1.9284
72313SOL     OW34930   1.848  10.752  11.581  0.4178 -0.0363  0.3255
72313SOL    HW134931   1.870  10.776  11.491  0.0855 -2.4763 -0.4790
72313SOL    HW234932   1.752  10.749  11.582  0.4403 -1.2471  0.3668
72314SOL     OW34933  11.218  10.019   9.455  0.4968  0.5657 -0.7907
72314SOL    HW134934  11.170   9.957   9.399  1.0332  0.8752 -1.6189
72314SOL    HW234935  11.162  10.030   9.532 -0.3153  0.2084 -1.3152
72315SOL     OW34936  12.112   7.911  10.214 -0.1860 -0.1667 -0.6393
72315SOL    HW134937  12.149   7.990  10.253  0.2399 -1.0491  0.8372
72315SOL    HW234938  12.044   7.883  10.276 -1.1111 -0.3398 -1.7100
72316SOL     OW34939  11.058   9.622  11.288 -0.2335 -0.9610 -0.5555
72316SOL    HW134940  11.118   9.548  11.284 -1.3974 -2.0150  0.6090
72316SOL    HW234941  10.971   9.582  11.291 -0.8472  0.3770  1.4062
72317SOL     OW34942   2.050  11.396   2.898 -0.3019 -0.0657  0.4608
72317SOL    HW134943   2.120  11.337   2.924 -0.3896 -0.3251  0.1103
72317SOL    HW234944   2.073  11.480   2.939 -0.3038 -0.3944  1.1593
72318SOL     OW34945   0.768   9.880   2.017  0.3894  0.1155  0.0927
72318SOL    HW134946   0.834   9.948   1.999 -1.9836  2.5173 -0.2181
72318SOL    HW234947   0.734   9.857   1.931 -0.2702  0.0979  0.3562
72319SOL     OW34948   0.391   2.014   1.596 -0.7013  0.8963  0.4475
72319SOL    HW134949   0.467   2.005   1.653 -0.5090 -1.4186 -0.0718
72319SOL    HW234950   0.415   1.965   1.517 -1.5260  2.7873 -1.0454
72320SOL     OW34951   8.816  11.025  13.304 -0.0676 -0.3727 -0.3293
72320SOL    HW134952   8.879  11.056  13.368  0.4848 -0.3258 -0.8906
72320SOL    HW234953   8.731  11.055  13.337  0.2576  0.0335  0.1446
72321SOL     OW34954   8.274  13.928  14.025  0.8916  0.3268  0.4759
72321SOL    HW134955   8.264  13.836  14.050 -1.4241 -0.0514 -1.4348
72321SOL    HW234956   8.235  13.977  14.098  0.7123 -0.3206  0.8189
72322SOL     OW34957  12.335  12.505   6.115 -0.1001 -0.2197  0.3827
72322SOL    HW134958  12.309  12.429   6.167 -0.8749  0.9878  1.8462
72322SOL    HW234959  12.415  12.538   6.158 -1.2791  1.3541  1.4870
72323SOL     OW34960  10.219   7.844   4.159 -0.4988 -0.1999 -0.5960
72323SOL    HW134961  10.196   7.936   4.175 -0.2641 -0.3373  0.6818
72323SOL    HW234962  10.138   7.796   4.176 -0.1919 -0.3699  0.4627
72324SOL     OW34963   5.782   7.903  11.933 -0.1086  0.0285 -0.2709
72324SOL    HW134964   5.688   7.917  11.940 -0.2641 -1.3555  1.0681
72324SOL    HW234965   5.817   7.987  11.904 -1.2258  2.2162  3.9098
72325SOL     OW34966   9.874   8.862   0.963  0.3753  0.3475 -0.3791
72325SOL    HW134967   9.791   8.883   1.006 -0.3171 -0.9860 -0.9878
72325SOL    HW234968   9.939   8.913   1.010 -0.0567 -2.1534  3.3322
72326SOL     OW34969   6.957   1.996  13.519 -0.3222 -0.0770 -0.0050
72326SOL    HW134970   6.897   2.059  13.478 -0.6092 -1.0083 -1.0582
72326SOL    HW234971   7.013   1.967  13.447  1.3383  0.6779  0.9302
72327SOL     OW34972   6.177   9.602  12.421  0.7018 -0.1133  0.6935
72327SOL    HW134973   6.188   9.522  12.369  3.0405  0.5310  0.0784
72327SOL    HW234974   6.082   9.610  12.433  0.2151 -1.4238 -1.6910
72328SOL     OW34975   0.692   4.018  12.963  0.1820 -0.1513 -0.3512
72328SOL    HW134976   0.669   4.057  12.879  0.8498  2.1854  0.4831
72328SOL    HW234977   0.715   4.092  13.019 -2.5480 -1.3268  2.6614
72329SOL     OW34978   2.905  11.288   4.093  0.0337  0.4150 -0.5423
72329SOL    HW134979   2.883  11.275   4.185  0.2492 -0.6704 -0.6278
72329SOL    HW234980   2.823  11.314   4.052  0.3321  2.8720  0.2768
72330SOL     OW34981  11.188   9.101  13.113 -0.0299 -0.5949 -0.1486
72330SOL    HW134982  11.235   9.020  13.092 -0.6046 -1.3528  1.3146
72330SOL    HW234983  11.095   9.077  13.104 -0.2329 -0.3929  1.2068
72331SOL     OW34984  12.976  12.892   8.780  0.4162  0.2581 -0.8442
72331SOL    HW134985  12.967  12.939   8.863 -1.5041 -2.5093  0.6704
72331SOL    HW234986  12.921  12.941   8.719 -0.4231  0.7534  0.2779
72332SOL     OW34987  14.148   5.847   3.875  0.3473 -0.0670  0.0456
72332SOL    HW134988  14.232   5.879   3.908 -0.5180  0.3699  1.9813
72332SOL    HW234989  14.091   5.847   3.952 -1.7445  0.7033 -1.4284
72333SOL     OW34990   1.594   6.704  11.485  0.0403 -0.2690  0.5983
72333SOL    HW134991   1.577   6.658  11.403  0.3879 -0.2928  0.5373
72333SOL    HW234992   1.659   6.649  11.530  0.2081 -0.0093  0.6739
72334SOL     OW34993   9.842   6.802  12.039  0.0158 -0.0813 -0.0353
72334SOL    HW134994   9.770   6.852  12.000 -0.8494 -1.2565  0.0283
72334SOL    HW234995   9.836   6.821  12.132  1.4661  1.9234 -0.2651
72335SOL     OW34996   4.368   2.838   2.739 -0.4585 -0.0318  0.2807
72335SOL    HW134997   4.464   2.841   2.746 -0.4864  1.2158  0.3981
72335SOL    HW234998   4.342   2.769   2.800  0.2954  0.5181  1.2668
72336SOL     OW34999   9.004  10.537  14.124 -0.7042  0.1115 -0.1378
72336SOL    HW135000   8.931  10.583  14.084 -0.6770  0.2311 -0.0490
72336SOL    HW235001   9.046  10.602  14.181  0.5802  0.6089 -1.5812
72337SOL     OW35002   2.486   6.406   8.056 -0.7584 -0.2246  0.4443
72337SOL    HW135003   2.429   6.475   8.023 -1.3539 -1.9565 -2.5705
72337SOL    HW235004   2.467   6.331   8.000  3.5729 -1.3029  0.0720
72338SOL     OW35005   4.152   1.081   0.471 -0.5885  0.2698  0.1678
72338SOL    HW135006   4.183   0.994   0.447  0.0384  0.3590  0.6380
72338SOL    HW235007   4.143   1.128   0.388  0.6598  0.2780  0.0272
72339SOL     OW35008  11.835  11.110   2.811 -0.2454  0.5625 -0.2686
72339SOL    HW135009  11.813  11.103   2.904 -0.5970 -1.4911 -0.4467
72339SOL    HW235010  11.767  11.167   2.775 -1.3042 -0.2059  0.4095
72340SOL     OW35011   0.204   1.457   4.177  0.2357 -0.2159  0.3215
72340SOL    HW135012   0.166   1.426   4.095 -0.1514 -2.6231  1.3085
72340SOL    HW235013   0.128   1.482   4.230  0.0692 -2.7788  1.4359
72341SOL     OW35014   6.646   7.298   0.765 -0.2430  0.3486  0.4941
72341SOL    HW135015   6.587   7.226   0.745 -0.0157  0.1137  0.6708
72341SOL    HW235016   6.732   7.268   0.735 -0.2240  0.7177  0.1739
72342SOL     OW35017   9.789   4.810   2.472 -0.3297 -0.4973 -0.5738
72342SOL    HW135018   9.727   4.877   2.501 -0.2479 -0.9570  0.7609
72342SOL    HW235019   9.861   4.859   2.431 -0.6791  0.1692 -0.3960
72343SOL     OW35020   3.031   9.571   8.358  0.2203 -0.3025 -0.2626
72343SOL    HW135021   3.010   9.550   8.449  0.9613 -0.2671 -0.0732
72343SOL    HW235022   3.113   9.621   8.364 -0.9488  1.7797 -0.7676
72344SOL     OW35023   6.615  13.330   3.995 -0.0368 -0.1385  0.3182
72344SOL    HW135024   6.666  13.338   3.914 -1.1304 -2.6175 -0.7375
72344SOL    HW235025   6.668  13.272   4.050 -0.7953 -1.2117 -0.0413
72345SOL     OW35026   7.520  13.621  11.089  0.2452  0.0464 -0.0465
72345SOL    HW135027   7.562  13.704  11.110  1.3522 -0.7599  1.1005
72345SOL    HW235028   7.446  13.645  11.033  0.4095  1.8134  0.4196
72346SOL     OW35029   7.480   5.435  10.089  0.6705 -0.1384  0.7702
72346SOL    HW135030   7.492   5.340  10.088  0.8798 -0.1124 -0.3709
72346SOL    HW235031   7.563   5.471  10.058  0.3844  0.3874  0.5954
72347SOL     OW35032   4.091   4.922   0.839  0.0914 -0.1043  0.7329
72347SOL    HW135033   4.164   4.958   0.788 -0.9391  0.8472 -0.1169
72347SOL    HW235034   4.111   4.828   0.845  0.8141 -0.0592 -0.4702
72348SOL     OW35035   7.446   4.608   2.013  0.0132 -0.0100 -0.6372
72348SOL    HW135036   7.481   4.625   1.925 -0.6615 -0.3963 -0.9851
72348SOL    HW235037   7.366   4.660   2.017 -0.2167 -0.3798 -0.4267
72349SOL     OW35038  12.333   0.411   7.010  0.3744  0.0735 -0.0477
72349SOL    HW135039  12.397   0.387   7.076 -0.4716  0.9416  1.1309
72349SOL    HW235040  12.383   0.463   6.947  0.6168  1.9347  1.5811
72350SOL     OW35041   0.079   7.835   5.153 -0.0943  0.1790 -0.1297
72350SOL    HW135042   0.119   7.916   5.122  1.5859 -0.8114 -0.6550
72350SOL    HW235043  -0.004   7.863   5.193  0.4529  2.1376 -0.2764
72351SOL     OW35044   1.305  10.503   9.793 -0.0743 -0.4049 -0.1864
72351SOL    HW135045   1.387  10.537   9.828 -0.3238 -0.3390  0.3492
72351SOL    HW235046   1.325  10.482   9.702 -0.1570  2.0626 -0.8435
72352SOL     OW35047   0.581   2.041   1.782  0.5746 -0.2904 -0.8891
72352SOL    HW135048   0.634   2.111   1.746 -1.1730  0.4319 -2.2106
72352SOL    HW235049   0.541   2.079   1.860  2.5766 -1.1205  0.6346
72353SOL     OW35050  11.623  12.398   7.468  0.7564  0.3192  0.2195
72353SOL    HW135051  11.653  12.321   7.419  0.2514 -1.4975  2.5432
72353SOL    HW235052  11.644  12.472   7.412  1.9817 -1.4417 -1.8233
72354SOL     OW35053  11.807  11.318   8.446 -0.9860 -0.3457  0.6136
72354SOL    HW135054  11.833  11.253   8.380 -1.4039 -0.5609  0.6531
72354SOL    HW235055  11.784  11.396   8.395  2.2085  0.7692  0.7065
72355SOL     OW35056   0.937  10.524   9.949 -0.2567  0.0949  0.4054
72355SOL    HW135057   0.885  10.542   9.871  0.7733  0.9162 -0.1117
72355SOL    HW235058   0.931  10.430   9.961  0.5438 -0.2154 -1.3826
72356SOL     OW35059  13.034   1.321  11.827  0.4675  0.2191 -0.5734
72356SOL    HW135060  13.075   1.397  11.868  0.7315 -0.8502  1.2529
72356SOL    HW235061  13.043   1.251  11.892  0.7836 -1.5534 -2.4250
72357SOL     OW35062   4.436   8.591  10.255  0.2370  0.1735 -0.0139
72357SOL    HW135063   4.480   8.646  10.321 -0.9105  0.2121  0.7455
72357SOL    HW235064   4.373   8.539  10.305  0.1260 -0.6178 -0.9490
72358SOL     OW35065  10.420  11.908   5.901  0.2044 -0.0666  0.0778
72358SOL    HW135066  10.403  11.814   5.908 -0.1424 -0.0046  0.0628
72358SOL    HW235067  10.439  11.935   5.991 -0.2122 -0.0513  0.1618
72359SOL     OW35068   8.472   5.718  11.820  0.5779  0.7006 -0.1115
72359SOL    HW135069   8.475   5.649  11.886  0.3033  0.5212 -0.2833
72359SOL    HW235070   8.386   5.709  11.780  0.3012  1.5496  0.2880
72360SOL     OW35071  11.934  12.657   4.553  0.2212 -0.4466  0.1149
72360SOL    HW135072  11.996  12.707   4.607 -1.1224  2.3125 -0.7054
72360SOL    HW235073  11.973  12.657   4.466 -0.5053  0.6217 -0.2310
72361SOL     OW35074  10.096  12.430  10.891 -0.0228 -0.4004  0.3250
72361SOL    HW135075  10.092  12.343  10.851  2.0861 -0.2696 -0.3053
72361SOL    HW235076  10.158  12.478  10.837 -1.2967  1.5946  0.5513
72362SOL     OW35077   3.435   1.677   2.491 -0.4724 -0.8194 -0.1639
72362SOL    HW135078   3.461   1.602   2.438 -1.1666 -0.4396 -1.0683
72362SOL    HW235079   3.450   1.649   2.581  0.0534 -1.7400 -0.5238
72363SOL     OW35080  13.407  10.258   2.100 -0.6637 -0.4793  0.3610
72363SOL    HW135081  13.481  10.197   2.096  0.1017  0.4157  0.5073
72363SOL    HW235082  13.395  10.288   2.010 -1.7620 -1.6491  0.0823
72364SOL     OW35083  10.352   2.867   0.197  0.2614  0.2440  0.0765
72364SOL    HW135084  10.404   2.824   0.265  0.5525  0.5661  0.0603
72364SOL    HW235085  10.409   2.868   0.120 -0.3103 -0.7081 -0.3663
72365SOL     OW35086   9.369   0.914   7.809  0.1234 -0.3794 -0.3432
72365SOL    HW135087   9.287   0.944   7.846 -0.0667  0.3359 -1.3073
72365SOL    HW235088   9.375   0.957   7.724  0.6048 -1.8631 -1.1036
72366SOL     OW35089   5.997   3.363   6.758  0.4277 -0.0503  0.0367
72366SOL    HW135090   6.040   3.318   6.830 -0.5592 -0.9803  0.0637
72366SOL    HW235091   5.943   3.430   6.800  1.2372  0.6130  0.0437
72367SOL     OW35092   6.567   8.197  10.696 -0.5419  0.4567 -0.5304
72367SOL    HW135093   6.639   8.222  10.753 -1.8941 -0.6378  1.8110
72367SOL    HW235094   6.507   8.271  10.700 -0.8807  0.1621 -0.0815
72368SOL     OW35095   6.380   4.454   6.886  0.2140 -0.3434  0.5384
72368SOL    HW135096   6.314   4.427   6.949 -0.1617  1.7765  1.1514
72368SOL    HW235097   6.330   4.490   6.813  0.6604 -2.2743 -0.7856
72369SOL     OW35098  12.885  12.416   5.812 -0.2518 -0.2320 -0.2863
72369SOL    HW135099  12.818  12.375   5.758  0.7777 -0.4956 -1.4104
72369SOL    HW235100  12.854  12.405   5.901 -1.5964 -0.5279 -0.7689
72370SOL     OW35101   5.442   9.916   2.188  0.0368  0.2402 -0.1107
72370SOL    HW135102   5.405   9.842   2.139  1.8068 -0.9520  0.2529
72370SOL    HW235103   5.437   9.888   2.280 -1.7545  1.7686  0.3287
72371SOL     OW35104   3.865   0.545   2.466 -0.0848 -0.0076 -0.2147
72371SOL    HW135105   3.778   0.506   2.459  0.0524 -0.4922  0.5848
72371SOL    HW235106   3.919   0.492   2.407 -0.0665 -0.5365  0.2659
72372SOL     OW35107   3.324   9.142  12.325 -0.1774  0.4850 -0.2695
72372SOL    HW135108   3.284   9.171  12.243 -2.4484 -1.2204  0.1451
72372SOL    HW235109   3.291   9.204  12.391 -1.4001 -0.3417 -0.0846
72373SOL     OW35110   0.826   4.988   7.469 -0.4571  0.1555  0.3324
72373SOL    HW135111   0.776   4.906   7.469 -1.4978  0.7515  1.0803
72373SOL    HW235112   0.763   5.053   7.500  0.2661  1.2965 -0.5364
72374SOL     OW35113   5.725   0.441   3.483 -0.2122  0.4573  0.3652
72374SOL    HW135114   5.682   0.496   3.549  0.3938  1.8424 -0.3679
72374SOL    HW235115   5.817   0.463   3.490 -0.1758  0.8795 -1.1774
72375SOL     OW35116   4.384   9.586   7.074  0.2205  0.2420 -0.0713
72375SOL    HW135117   4.293   9.559   7.064  0.6803 -1.6898  0.4510
72375SOL    HW235118   4.391   9.613   7.166  0.3216 -0.2412  0.0638
72376SOL     OW35119   3.335   3.940  13.606 -0.7223 -0.6066 -0.1468
72376SOL    HW135120   3.243   3.912  13.605 -0.5535 -1.1666 -1.0714
72376SOL    HW235121   3.338   4.013  13.544 -0.3767 -1.1895 -0.8352
72377SOL     OW35122   7.845   5.650   6.378 -0.2035  0.2311  0.0599
72377SOL    HW135123   7.921   5.700   6.409  0.6106 -1.5950  1.2005
72377SOL    HW235124   7.772   5.712   6.382  0.5505  1.0766  2.3582
72378SOL     OW35125   7.523  11.144   3.882 -0.0810 -0.6078 -0.4494
72378SOL    HW135126   7.490  11.096   3.957  0.7442 -0.6291 -0.0916
72378SOL    HW235127   7.601  11.189   3.914  0.2848 -0.6264 -1.2925
72379SOL     OW35128   3.697   4.106   0.060 -0.2783 -0.0654 -0.1276
72379SOL    HW135129   3.732   4.195   0.060 -0.8324  0.1877  1.3386
72379SOL    HW235130   3.634   4.105   0.132 -1.0942 -1.3462 -0.8192
72380SOL     OW35131   6.220   7.197  10.987 -0.7730  0.1088 -0.2422
72380SOL    HW135132   6.235   7.251  10.910  0.6281 -0.9185 -0.7277
72380SOL    HW235133   6.275   7.120  10.974  0.1506  0.2603  2.1590
72381SOL     OW35134   5.363  11.159   7.052 -0.2693  0.8494 -1.2216
72381SOL    HW135135   5.340  11.067   7.067 -0.2814  0.9550 -0.5722
72381SOL    HW235136   5.343  11.173   6.959  1.4658 -0.2984 -1.8253
72382SOL     OW35137   4.890   7.327  13.771 -0.1343 -0.5615  0.3648
72382SOL    HW135138   4.808   7.289  13.803 -1.0747 -0.0075 -1.2164
72382SOL    HW235139   4.873   7.421  13.768  1.4360 -0.1689  2.2936
72383SOL     OW35140   1.421  10.955   7.348  0.5958  0.8263 -0.0576
72383SOL    HW135141   1.446  10.988   7.262  0.9649  0.8023  0.0352
72383SOL    HW235142   1.330  10.983   7.360  0.1505 -0.1947 -0.9521
72384SOL     OW35143   1.787   9.592   0.319  0.2410  0.2209  0.6598
72384SOL    HW135144   1.859   9.655   0.324  1.1468 -0.6605 -0.6574
72384SOL    HW235145   1.741   9.616   0.238 -0.5928  0.3949  1.1773
72385SOL     OW35146   8.949   5.880   1.719 -0.3597  0.7047 -0.2201
72385SOL    HW135147   8.955   5.948   1.786  2.6170 -0.0200  0.3952
72385SOL    HW235148   8.875   5.825   1.747  1.3146 -0.1321  3.1184
72386SOL     OW35149   4.267   5.963  11.191  0.3881  0.1851 -0.3794
72386SOL    HW135150   4.353   5.957  11.149 -0.9887 -0.1751 -3.4105
72386SOL    HW235151   4.220   6.028  11.139 -1.3819 -0.1106  0.8010
72387SOL     OW35152   4.183  12.605   0.053  0.3197  0.1899  0.0360
72387SOL    HW135153   4.143  12.692   0.051  1.5525  0.7978  0.9950
72387SOL    HW235154   4.233  12.603   0.134  0.1714 -1.4958  0.1204
72388SOL     OW35155   3.806   2.381   6.238  0.2293  0.1192  0.0341
72388SOL    HW135156   3.870   2.452   6.240 -3.3332  3.7204 -0.7479
72388SOL    HW235157   3.824   2.330   6.317  2.6137  2.3123  1.0481
72389SOL     OW35158  10.003   9.425   0.632  0.4665  0.2103 -0.2093
72389SOL    HW135159   9.929   9.370   0.659  1.9588 -1.7490  0.0658
72389SOL    HW235160  10.021   9.398   0.542  0.7673  0.7956 -0.3281
72390SOL     OW35161   3.944   5.581   7.399 -0.0434  0.0837  0.2060
72390SOL    HW135162   3.997   5.660   7.402 -1.9259  1.3928  0.3580
72390SOL    HW235163   3.853   5.612   7.402 -0.8471 -2.0611 -0.0085
72391SOL     OW35164   9.395   2.626   8.574  0.2193  0.1372  0.3821
72391SOL    HW135165   9.354   2.635   8.488  2.1673 -0.5442 -0.6708
72391SOL    HW235166   9.328   2.583   8.627 -0.4415 -0.9728 -1.2588
72392SOL     OW35167   2.816   0.585   3.565 -0.4446  0.1983  0.1207
72392SOL    HW135168   2.779   0.509   3.521 -0.5579 -0.7238  1.7161
72392SOL    HW235169   2.749   0.653   3.556  0.1248  0.5051 -2.2754
72393SOL     OW35170  13.693  13.013   3.582 -0.5361 -0.1908  0.1183
72393SOL    HW135171  13.753  12.940   3.592  0.7335  0.9001  0.6951
72393SOL    HW235172  13.723  13.059   3.504  0.7866  1.5863  1.5878
72394SOL     OW35173   7.944   7.279   0.740 -0.1706 -0.1860  0.2414
72394SOL    HW135174   7.880   7.214   0.713  0.9959 -1.5458  0.6153
72394SOL    HW235175   7.998   7.234   0.805  2.0756  0.3893 -1.1120
72395SOL     OW35176   8.952  13.225   8.419  0.8826 -0.3607 -0.5526
72395SOL    HW135177   8.871  13.247   8.372  0.1135 -1.2082  0.3382
72395SOL    HW235178   8.924  13.167   8.489  2.0944  0.4012  0.6048
72396SOL     OW35179   1.068   4.539  10.929  0.0504 -0.2381 -0.8289
72396SOL    HW135180   1.146   4.491  10.958  0.0143 -0.3519 -0.9224
72396SOL    HW235181   1.102   4.611  10.876  0.2271  0.9016  0.7610
72397SOL     OW35182   9.173  12.426   6.205  0.0689 -0.4037 -0.7566
72397SOL    HW135183   9.144  12.465   6.122 -0.7755 -1.4351 -0.9716
72397SOL    HW235184   9.222  12.496   6.248  0.6548  0.1189 -2.1804
72398SOL     OW35185   8.524   4.673   4.030 -0.2981  0.1325 -0.2269
72398SOL    HW135186   8.550   4.716   4.111 -0.8624 -0.5087  0.2997
72398SOL    HW235187   8.569   4.723   3.961  0.4785  0.4468  0.4943
72399SOL     OW35188   7.847   3.009   9.390  0.3105 -0.1799 -0.9055
72399SOL    HW135189   7.905   2.935   9.406 -0.8113 -0.7290  1.0399
72399SOL    HW235190   7.905   3.085   9.383  1.3841 -1.0264 -1.5029
72400SOL     OW35191   0.370   7.854   3.726  0.6925 -0.1246  0.6422
72400SOL    HW135192   0.289   7.840   3.677 -0.1937 -0.9017  2.2477
72400SOL    HW235193   0.378   7.949   3.733  1.0957  0.0270 -1.3489
72401SOL     OW35194   5.250  11.241   1.174 -0.0000 -0.1955  0.0707
72401SOL    HW135195   5.159  11.267   1.158  0.1667  0.8809  0.7876
72401SOL    HW235196   5.262  11.163   1.120 -0.9676  0.3720 -1.0146
72402SOL     OW35197   3.035   5.266  11.971  0.3576  0.0996 -0.2047
72402SOL    HW135198   2.969   5.196  11.965  0.2863 -0.0445  1.7043
72402SOL    HW235199   3.073   5.270  11.884 -1.2249 -0.7587 -0.9869
72403SOL     OW35200   6.847  13.742  13.927 -0.5185  0.1466  0.0302
72403SOL    HW135201   6.767  13.785  13.899  0.0544  1.0831 -0.2245
72403SOL    HW235202   6.876  13.792  14.004  1.3972  1.7954 -1.6240
72404SOL     OW35203  10.549  13.124   0.467  0.3983  0.1346  0.0745
72404SOL    HW135204  10.548  13.033   0.439  0.7310 -0.2910  1.3853
72404SOL    HW235205  10.517  13.122   0.557 -1.8862  1.5931 -0.6042
72405SOL     OW35206   6.306   3.701   9.886 -0.1545 -0.2269 -0.6606
72405SOL    HW135207   6.329   3.620   9.930 -0.3631 -0.1976 -0.4951
72405SOL    HW235208   6.375   3.714   9.821  0.1357 -0.2855 -0.3637
72406SOL     OW35209   3.360  13.979  12.699  0.1854 -0.0690  0.7090
72406SOL    HW135210   3.371  14.066  12.660 -1.7586  0.0357  0.2904
72406SOL    HW235211   3.266  13.971  12.713  0.4697 -1.5848  2.0078
72407SOL     OW35212   6.613  10.930  10.096 -0.0777  0.1978  0.3197
72407SOL    HW135213   6.575  10.994  10.156 -2.8385 -0.6661 -0.3746
72407SOL    HW235214   6.634  10.980  10.017 -2.3408  0.3286 -0.2693
72408SOL     OW35215   5.900   5.005   5.565 -1.0644  0.2793  0.0773
72408SOL    HW135216   5.979   5.055   5.544 -0.7820 -0.9101 -1.8917
72408SOL    HW235217   5.933   4.921   5.597 -1.5453  0.4272  0.9860
72409SOL     OW35218   8.533   5.099   2.855 -0.1688  0.0974 -0.1559
72409SOL    HW135219   8.602   5.063   2.800  0.5508  1.3320 -0.1018
72409SOL    HW235220   8.462   5.035   2.850  0.4088 -0.4778 -1.4063
72410SOL     OW35221   6.782  13.264  11.366  0.5366 -0.0905 -0.1651
72410SOL    HW135222   6.826  13.305  11.441 -1.7463  3.6351 -0.6568
72410SOL    HW235223   6.850  13.260  11.299  1.3968  0.9901  0.5968
72411SOL     OW35224   9.487  11.658  12.618  0.6360  0.1352  0.2145
72411SOL    HW135225   9.447  11.583  12.574 -0.7691  0.8092  0.2860
72411SOL    HW235226   9.488  11.727  12.552 -0.7013  0.8951  0.9440
72412SOL     OW35227  11.102   7.129   9.938  0.0235 -0.0534 -0.0909
72412SOL    HW135228  11.123   7.040   9.965  0.0654  0.6537  2.4459
72412SOL    HW235229  11.020   7.149   9.982  0.3134  1.3670 -0.1423
72413SOL     OW35230   9.203  10.288   9.586  0.1576  0.1266  0.6351
72413SOL    HW135231   9.272  10.318   9.527 -0.7822  1.1391  0.0048
72413SOL    HW235232   9.242  10.292   9.673  0.9343  0.5802  0.2784
72414SOL     OW35233  13.765   1.291   3.707 -0.8120 -0.2740 -0.0989
72414SOL    HW135234  13.743   1.248   3.790 -0.0222 -0.9378 -0.2284
72414SOL    HW235235  13.841   1.243   3.674 -0.6865  0.4330 -0.8645
72415SOL     OW35236   7.832  12.031   5.855 -0.0351 -0.3185  0.4079
72415SOL    HW135237   7.833  11.959   5.919  0.7128 -1.4081 -0.7904
72415SOL    HW235238   7.739  12.048   5.840 -0.2330 -1.3836  0.3347
72416SOL     OW35239   6.373   2.908  13.661  0.2468  0.4387 -0.1451
72416SOL    HW135240   6.438   2.844  13.632 -0.2913  0.6528 -1.9397
72416SOL    HW235241   6.333   2.940  13.580 -1.7578  0.6694  0.8687
72417SOL     OW35242   6.924   5.620   0.841 -0.0133 -0.3667 -0.4232
72417SOL    HW135243   6.999   5.680   0.834 -0.5618  0.4860  0.7078
72417SOL    HW235244   6.848   5.674   0.820 -0.4656 -0.8214  0.0284
72418SOL     OW35245  11.175   9.384  12.801  0.0853 -0.6975 -0.3340
72418SOL    HW135246  11.228   9.320  12.753  0.1903  1.5760 -3.6272
72418SOL    HW235247  11.087   9.345  12.802  0.7313 -2.2138  0.5436
72419SOL     OW35248   0.800  12.954  13.794  0.3518  0.2730 -0.1372
72419SOL    HW135249   0.892  12.972  13.817  0.3457  0.5414 -0.3231
72419SOL    HW235250   0.762  12.920  13.875  1.5421 -3.5150 -0.9691
72420SOL     OW35251   7.361  12.664  11.137 -0.9252  0.5604  0.4233
72420SOL    HW135252   7.385  12.597  11.072  0.0438 -0.6934  1.9965
72420SOL    HW235253   7.421  12.736  11.120 -1.2330  0.5905 -0.5913
72421SOL     OW35254  13.886  13.756  12.858  0.6621  0.0992  0.1233
72421SOL    HW135255  13.887  13.692  12.787 -1.2265  0.4722 -0.2914
72421SOL    HW235256  13.973  13.797  12.855  1.0281 -0.7233 -1.1807
72422SOL     OW35257   7.715   8.768   6.922  0.0430  0.2942  0.0419
72422SOL    HW135258   7.718   8.779   7.017  0.3853 -0.0404  0.0729
72422SOL    HW235259   7.661   8.840   6.890  2.4710  2.3022  0.1802
72423SOL     OW35260  12.297  11.156  11.381 -0.6566 -0.1250 -0.1989
72423SOL    HW135261  12.363  11.225  11.374 -2.5234  1.7835 -0.1523
72423SOL    HW235262  12.275  11.133  11.291  1.5805 -2.4404 -0.2726
72424SOL     OW35263   6.339   3.044  12.417  0.6800  0.2341  0.2587
72424SOL    HW135264   6.247   3.064  12.435  0.2648  0.2518 -1.6469
72424SOL    HW235265   6.386   3.074  12.495 -0.9018  0.2953  1.2402
72425SOL     OW35266   6.493  10.898  13.065  0.2994  0.5150 -0.3072
72425SOL    HW135267   6.398  10.904  13.063  0.0583  1.5880  4.1317
72425SOL    HW235268   6.522  10.945  12.987 -2.6762 -1.3802 -2.7977
72426SOL     OW35269  13.673   7.024   1.754  0.4368  0.1308 -1.0027
72426SOL    HW135270  13.580   7.004   1.742  0.4021 -1.4072  1.2089
72426SOL    HW235271  13.674   7.112   1.791 -0.2132 -0.0976 -0.4089
72427SOL     OW35272   2.364   9.791   0.917 -0.2649  0.6510  0.1706
72427SOL    HW135273   2.435   9.854   0.907 -0.4387  1.0635  1.3435
72427SOL    HW235274   2.284   9.845   0.915 -0.3980  0.5556  1.5926
72428SOL     OW35275   2.747   1.888   6.445  0.4281 -0.7568 -0.2031
72428SOL    HW135276   2.687   1.932   6.385 -0.2343 -0.5637  0.5724
72428SOL    HW235277   2.697   1.812   6.477  0.8154 -0.9244  0.0115
72429SOL     OW35278   7.099   2.169   8.628 -0.5604 -0.0367 -0.0085
72429SOL    HW135279   7.155   2.116   8.685 -0.3460 -2.1597 -2.0463
72429SOL    HW235280   7.010   2.142   8.652 -0.4624 -1.1235 -0.8108
72430SOL     OW35281   8.287   3.216   1.732  0.3894  0.1316  0.1836
72430SOL    HW135282   8.309   3.218   1.825 -2.2652  0.4253  0.9103
72430SOL    HW235283   8.328   3.294   1.695 -0.5952  1.4415  1.7025
72431SOL     OW35284   0.290   6.471  13.547  0.3408  0.1746  0.3823
72431SOL    HW135285   0.244   6.555  13.549 -1.6148 -0.8307  0.1474
72431SOL    HW235286   0.227   6.409  13.584  0.5976 -1.6874 -2.0726
72432SOL     OW35287   2.568   9.289  13.259  0.1827  0.3075 -0.4487
72432SOL    HW135288   2.636   9.230  13.226  1.5834 -0.5443  3.4386
72432SOL    HW235289   2.615   9.370  13.278 -0.1096  0.1171  1.1645
72433SOL     OW35290   2.512  10.099  10.981 -0.5686 -0.2371 -0.0108
72433SOL    HW135291   2.551  10.131  11.062 -0.0695  1.1015 -0.7495
72433SOL    HW235292   2.501  10.178  10.927 -0.5392 -1.1486 -1.3939
72434SOL     OW35293  12.006  10.346   8.964 -0.0745 -0.4752  0.0905
72434SOL    HW135294  11.952  10.350   9.043 -0.1255 -2.2714  0.1787
72434SOL    HW235295  11.944  10.338   8.892 -0.0200  0.9991 -0.1510
72435SOL     OW35296   6.208   0.165  12.724 -0.2648  0.8918 -0.8703
72435SOL    HW135297   6.281   0.113  12.688  0.2738  1.9815 -1.4036
72435SOL    HW235298   6.197   0.132  12.813  1.5932  1.3827 -0.4088
72436SOL     OW35299   4.942   4.536  13.860  0.3438  0.0910 -0.8368
72436SOL    HW135300   4.998   4.589  13.803 -0.2177  1.5788 -0.0555
72436SOL    HW235301   4.865   4.591  13.876 -0.8683 -1.5002 -1.0293
72437SOL     OW35302  10.003   7.333   1.532  0.5416 -0.6438 -0.2310
72437SOL    HW135303   9.917   7.367   1.556  0.7802  0.8310 -1.3516
72437SOL    HW235304   9.985   7.250   1.488 -0.1393 -1.3857  1.3755
72438SOL     OW35305   5.716   6.660   8.673  0.4399  0.4092  0.3723
72438SOL    HW135306   5.655   6.598   8.715 -1.1317  2.1598  0.8110
72438SOL    HW235307   5.721   6.733   8.734  0.5341  1.6648 -1.0809
72439SOL     OW35308   5.720   2.671  12.080 -0.2729 -0.1541  0.2387
72439SOL    HW135309   5.664   2.701  12.009  1.0163  0.0091 -0.7384
72439SOL    HW235310   5.664   2.676  12.158 -1.3448  0.8312 -0.5515
72440SOL     OW35311   1.617   2.678  11.243  0.3621  0.3773 -0.4542
72440SOL    HW135312   1.672   2.650  11.317  0.7007  0.7936 -0.5436
72440SOL    HW235313   1.528   2.678  11.278  0.4932  0.3269 -0.1176
72441SOL     OW35314   2.228   2.450  13.517  0.4313 -0.1744 -0.2817
72441SOL    HW135315   2.309   2.454  13.466  0.3306  0.8938 -0.3912
72441SOL    HW235316   2.158   2.452  13.452  0.2986 -1.8698 -0.2258
72442SOL     OW35317  10.454   4.205  12.843 -0.4373 -0.2568 -0.2279
72442SOL    HW135318  10.520   4.195  12.912  0.4464  0.6797 -0.9020
72442SOL    HW235319  10.413   4.119  12.836 -0.7532 -0.3155  1.6439
72443SOL     OW35320   2.193   4.369   5.900  0.3940  0.4125  0.0865
72443SOL    HW135321   2.244   4.450   5.904 -1.9428  1.9999 -0.1043
72443SOL    HW235322   2.233   4.318   5.830  1.5329  1.6840 -0.2190
72444SOL     OW35323  13.406  13.831   7.082  0.4097 -0.3117 -0.2201
72444SOL    HW135324  13.376  13.806   6.994  0.6594 -0.7191 -0.1944
72444SOL    HW235325  13.346  13.900   7.110 -0.1199 -0.6896 -0.4203
72445SOL     OW35326   7.942   4.482   6.083 -0.0860  0.0698 -0.1664
72445SOL    HW135327   7.985   4.548   6.137  2.0524 -2.9968  2.2470
72445SOL    HW235328   7.995   4.478   6.003  1.2287 -0.2516  0.6827
72446SOL     OW35329   1.263   2.722  10.736 -0.0444  0.0678  0.2147
72446SOL    HW135330   1.332   2.699  10.800 -0.1319  1.7535  0.9564
72446SOL    HW235331   1.239   2.812  10.758 -1.1389  0.1690 -1.2808
72447SOL     OW35332  13.374   3.418   7.584  0.0301  0.0057  0.6135
72447SOL    HW135333  13.450   3.436   7.529 -0.2055 -0.2785  0.1961
72447SOL    HW235334  13.324   3.351   7.537  0.4815 -1.2007  1.7653
72448SOL     OW35335   5.871   9.561   0.451 -0.2812 -0.2247 -0.4815
72448SOL    HW135336   5.891   9.478   0.494  0.1793 -0.3140 -0.8618
72448SOL    HW235337   5.844   9.619   0.523  2.1795  0.1582  0.2509
72449SOL     OW35338   2.444   8.520  10.830 -0.3163 -0.4043  0.4080
72449SOL    HW135339   2.445   8.587  10.898 -0.2846  0.6010 -0.5642
72449SOL    HW235340   2.466   8.566  10.749  0.1051 -1.6523 -0.2285
72450SOL     OW35341   2.759  10.107  10.725  0.2946  0.0739  0.5476
72450SOL    HW135342   2.713  10.109  10.809  1.3277 -1.3327  1.1884
72450SOL    HW235343   2.851  10.119  10.748  0.4414  1.3745 -0.5760
72451SOL     OW35344  12.764   2.763   0.042 -0.1101 -0.1739  0.2656
72451SOL    HW135345  12.841   2.716   0.011 -2.0591 -1.1842 -3.7985
72451SOL    HW235346  12.713   2.697   0.089  0.6015  0.0072  1.3208
72452SOL     OW35347  12.742  10.057   5.746  0.0326  0.6757 -0.1764
72452SOL    HW135348  12.831  10.027   5.727 -0.8018 -1.1224 -1.7040
72452SOL    HW235349  12.722  10.119   5.676 -0.7268 -0.8929 -1.4517
72453SOL     OW35350   6.751   7.946   7.416 -0.3752  1.0386  0.1049
72453SOL    HW135351   6.668   7.968   7.457 -0.8470 -1.0391  0.3653
72453SOL    HW235352   6.727   7.902   7.334  0.4899  1.2663 -0.2853
72454SOL     OW35353   0.189   5.117   7.822 -0.2768 -0.0008  0.0804
72454SOL    HW135354   0.176   5.022   7.820  0.2657 -0.0653 -1.0814
72454SOL    HW235355   0.264   5.130   7.880 -1.3526 -0.1354  1.5529
72455SOL     OW35356   7.149   9.944   3.273 -0.5526 -0.4391 -0.1234
72455SOL    HW135357   7.070   9.959   3.324 -1.2478 -0.2201 -1.2282
72455SOL    HW235358   7.139   9.856   3.238  0.6311 -1.1979  1.2985
72456SOL     OW35359   2.130   4.037   0.699 -0.3525 -0.5944  0.5781
72456SOL    HW135360   2.157   4.009   0.786  1.6845 -0.9559 -0.1154
72456SOL    HW235361   2.187   3.988   0.639  0.7004  2.1153 -0.8249
72457SOL     OW35362   3.280   4.610  13.129  0.2111 -0.3732  0.2338
72457SOL    HW135363   3.331   4.532  13.151  0.6415  0.0903  0.9524
72457SOL    HW235364   3.191   4.589  13.155  0.1381 -0.9795 -0.4885
72458SOL     OW35365  10.694   0.674  11.719 -0.1912 -0.2629 -0.1843
72458SOL    HW135366  10.601   0.651  11.721 -0.1898 -0.3821 -1.1919
72458SOL    HW235367  10.696   0.765  11.690  0.0180 -0.3703 -0.5149
72459SOL     OW35368   5.320   2.024   0.521 -0.2238  0.0990  0.1594
72459SOL    HW135369   5.359   2.105   0.489 -0.9829  0.2685 -0.3541
72459SOL    HW235370   5.229   2.048   0.542 -0.4336 -0.6015  0.0702
72460SOL     OW35371   7.896   7.385  10.060  0.1440  0.3645 -0.0323
72460SOL    HW135372   7.915   7.467  10.105 -1.2807  0.0164  1.2763
72460SOL    HW235373   7.886   7.320  10.129  1.7519 -1.0676 -1.0638
72461SOL     OW35374   5.326   0.192  13.030 -0.1581 -0.4767  0.2666
72461SOL    HW135375   5.391   0.125  13.050 -1.8344 -2.1854  0.1998
72461SOL    HW235376   5.331   0.204  12.935 -0.1728 -0.8534  0.2187
72462SOL     OW35377   2.448   6.419   4.724 -0.1063 -0.1632 -0.2603
72462SOL    HW135378   2.438   6.410   4.630  0.0574  0.0121 -0.2928
72462SOL    HW235379   2.538   6.393   4.742 -0.2437 -0.5516 -0.1082
72463SOL     OW35380   8.008   7.758   2.113 -0.0885 -0.1789 -0.2324
72463SOL    HW135381   7.968   7.743   2.199  0.5410  0.4656  0.1847
72463SOL    HW235382   8.009   7.672   2.072 -1.3965 -0.3097 -0.0446
72464SOL     OW35383   7.686  12.955   4.391 -0.2094  0.6265  0.0483
72464SOL    HW135384   7.708  13.046   4.410 -2.1273  0.9316  1.1245
72464SOL    HW235385   7.718  12.941   4.302 -0.6951  2.6613 -0.5174
72465SOL     OW35386  11.315   8.758   7.805  0.6625 -0.0615  0.2804
72465SOL    HW135387  11.264   8.816   7.862  0.8822 -1.9483  2.5702
72465SOL    HW235388  11.250   8.715   7.750  0.3462  1.0786 -0.2836
72466SOL     OW35389  10.752   7.681  11.520 -0.0130 -0.0609  0.0983
72466SOL    HW135390  10.748   7.678  11.615  1.7076  2.9458  0.3880
72466SOL    HW235391  10.712   7.599  11.491 -1.0961 -0.7955  3.3556
72467SOL     OW35392   7.526  13.900   5.735  0.0828  0.7599 -0.3769
72467SOL    HW135393   7.491  13.842   5.668 -0.1968 -0.3852  0.7238
72467SOL    HW235394   7.468  13.976   5.734 -0.3709  0.4101 -0.8879
72468SOL     OW35395  10.511   3.757  12.795  0.2061 -0.1334 -0.0532
72468SOL    HW135396  10.484   3.719  12.712 -0.0377  1.5639 -0.7988
72468SOL    HW235397  10.580   3.699  12.827  0.3614 -0.7788 -1.4816
72469SOL     OW35398  13.575  11.388  11.055  0.0616 -0.4075  0.2072
72469SOL    HW135399  13.508  11.440  11.100  1.4754  0.8686  0.9412
72469SOL    HW235400  13.656  11.437  11.069  1.2381 -2.1334 -0.2668
72470SOL     OW35401   1.218  12.426   1.052 -0.2366  0.0688  0.0436
72470SOL    HW135402   1.158  12.427   1.127  0.9734  2.1929  1.0939
72470SOL    HW235403   1.299  12.390   1.087 -0.0343 -0.1259 -0.6091
72471SOL     OW35404   6.349   0.701  10.669  0.0763  0.2191 -0.4282
72471SOL    HW135405   6.328   0.610  10.687  1.0424  0.3725  1.8470
72471SOL    HW235406   6.437   0.714  10.705  0.3015  1.8322 -1.4454
72472SOL     OW35407   0.827  10.236   4.338 -0.0942  0.2365 -0.2781
72472SOL    HW135408   0.875  10.167   4.384  0.8749  1.4635  0.6011
72472SOL    HW235409   0.830  10.210   4.246 -0.0911 -1.0800  0.0727
72473SOL     OW35410  13.770   9.146   4.785  0.7097  0.0304  0.1212
72473SOL    HW135411  13.703   9.096   4.831  0.6787 -0.7795 -0.7797
72473SOL    HW235412  13.837   9.163   4.851 -0.6131  1.3545  1.1985
72474SOL     OW35413   6.353   2.951   2.352 -0.0610  0.6545 -0.0657
72474SOL    HW135414   6.298   3.026   2.371 -0.5515  0.2774  0.0282
72474SOL    HW235415   6.436   2.988   2.323 -0.6964  1.2270 -1.1844
72475SOL     OW35416   0.473  11.632   7.237 -0.6662  0.3886  0.4329
72475SOL    HW135417   0.424  11.580   7.301 -0.8361 -1.2127 -0.9343
72475SOL    HW235418   0.428  11.617   7.154  0.1905  1.5562 -0.2799
72476SOL     OW35419   1.349   7.751  12.049 -0.6846  0.2054 -0.6109
72476SOL    HW135420   1.397   7.796  11.979 -2.3666  1.4304 -1.0589
72476SOL    HW235421   1.287   7.695  12.003 -0.8764 -0.0274 -0.0743
72477SOL     OW35422   3.342   9.566   4.409  0.0151 -0.3349 -0.0313
72477SOL    HW135423   3.287   9.613   4.346 -0.6644 -0.1746  0.6607
72477SOL    HW235424   3.420   9.620   4.418  0.8849 -1.1738 -1.9617
72478SOL     OW35425  10.644  10.645   1.681 -0.4157  0.2427  0.2955
72478SOL    HW135426  10.560  10.612   1.650  0.1412 -1.4849  0.5179
72478SOL    HW235427  10.639  10.638   1.776  0.5697 -1.5027  0.2535
72479SOL     OW35428   1.065   8.199  12.871  0.0638  0.3013  0.0853
72479SOL    HW135429   1.053   8.291  12.849 -1.9901 -0.0292 -0.3526
72479SOL    HW235430   1.031   8.191  12.960 -0.9412 -0.2573 -0.3391
72480SOL     OW35431   3.874   4.984  13.236 -0.2464  0.3018  0.0633
72480SOL    HW135432   3.835   4.897  13.238 -1.2902  0.6150 -2.5942
72480SOL    HW235433   3.968   4.968  13.235 -0.3899 -0.7068  0.6971
72481SOL     OW35434  13.051   6.277   9.661 -0.4800 -0.2520  0.0280
72481SOL    HW135435  13.070   6.184   9.648  1.7942  0.4094 -1.9788
72481SOL    HW235436  13.006   6.280   9.745  1.2809 -2.9703  1.2127
72482SOL     OW35437   8.654   5.926  10.947  0.0901  0.7119  0.3441
72482SOL    HW135438   8.586   5.865  10.920 -0.1465  0.4860  1.3985
72482SOL    HW235439   8.685   5.965  10.865 -1.8824  1.4507 -0.1068
72483SOL     OW35440   9.139  13.180   8.213  0.0070  0.2288 -0.0312
72483SOL    HW135441   9.085  13.159   8.136 -0.2544  1.3995 -0.1824
72483SOL    HW235442   9.076  13.206   8.280  0.2105 -1.1115  0.7116
72484SOL     OW35443   6.092  12.641   9.141 -0.4488 -0.3721  0.5348
72484SOL    HW135444   6.151  12.588   9.195  1.2159  2.0743  1.3061
72484SOL    HW235445   6.101  12.605   9.053  0.2433 -1.6538  1.1070
72485SOL     OW35446   6.031   8.349   5.124  0.7502 -0.0419 -0.4959
72485SOL    HW135447   6.042   8.359   5.218 -1.7153 -0.8369 -0.0461
72485SOL    HW235448   6.076   8.425   5.086  0.8084  0.9176  1.3724
72486SOL     OW35449   7.112   0.077   6.669 -0.4699 -0.1867  0.3644
72486SOL    HW135450   7.128   0.032   6.752 -0.6117 -1.6284 -0.3425
72486SOL    HW235451   7.132   0.011   6.602  0.4082  1.1715 -0.7844
72487SOL     OW35452   7.207   7.748   0.669 -0.4514 -0.0625  0.0533
72487SOL    HW135453   7.240   7.804   0.599 -1.2060  0.7113  0.2985
72487SOL    HW235454   7.285   7.713   0.711  0.0760  1.3927  0.3555
72488SOL     OW35455   5.379   9.427   4.745  0.2456 -0.0084 -0.0175
72488SOL    HW135456   5.473   9.414   4.758  0.0311 -1.5742  0.1266
72488SOL    HW235457   5.354   9.360   4.682 -0.9665 -0.2709  0.7206
72489SOL     OW35458   4.011  13.438   7.236 -0.5682  0.5705 -0.1071
72489SOL    HW135459   4.101  13.458   7.208 -0.8179  1.7568 -0.1353
72489SOL    HW235460   3.959  13.512   7.203 -1.4228  0.2956  0.5889
72490SOL     OW35461   1.272   9.052   7.398 -0.2577  0.1441 -0.3954
72490SOL    HW135462   1.360   9.019   7.377 -0.7447 -1.5501  0.0832
72490SOL    HW235463   1.251   9.112   7.326  0.7080 -0.5376 -1.2726
72491SOL     OW35464   6.022   8.090  13.269  0.2818 -0.2325  0.4741
72491SOL    HW135465   5.957   8.142  13.316 -1.0782 -1.0990 -0.3778
72491SOL    HW235466   6.014   8.002  13.305 -0.1110 -0.6917 -0.6946
72492SOL     OW35467   4.182   8.835  12.015  0.4662  0.2535  0.0099
72492SOL    HW135468   4.136   8.867  12.093  1.2035 -1.7528  1.3600
72492SOL    HW235469   4.233   8.760  12.047  0.6519 -0.7564 -2.4408
72493SOL     OW35470   0.525   2.667   0.511 -0.3371 -0.0802  0.7190
72493SOL    HW135471   0.581   2.744   0.523 -0.3563  0.0901 -0.1918
72493SOL    HW235472   0.523   2.654   0.416 -1.3089 -0.4834  0.7868
72494SOL     OW35473  10.580  10.631   8.296  0.6479 -0.4345  0.0291
72494SOL    HW135474  10.517  10.639   8.369  1.7228 -0.6504  1.0142
72494SOL    HW235475  10.628  10.713   8.297  0.1423 -0.1076 -0.9843
72495SOL     OW35476  10.901   9.637  13.340  0.6271  0.2830 -0.1992
72495SOL    HW135477  10.965   9.582  13.386  0.7090 -1.7231 -2.5244
72495SOL    HW235478  10.837   9.576  13.305 -1.7988  2.1109  0.7455
72496SOL     OW35479   9.271   7.518   3.856 -0.7731 -0.1557 -0.5623
72496SOL    HW135480   9.264   7.455   3.927 -2.5319 -1.0720 -1.4782
72496SOL    HW235481   9.302   7.467   3.781 -2.9329 -0.1909 -1.5140
72497SOL     OW35482   5.126   7.022   9.079  0.1305  0.5298  0.0951
72497SOL    HW135483   5.060   7.028   9.148 -0.2795 -0.3768 -0.1986
72497SOL    HW235484   5.194   6.965   9.117 -0.3686 -0.4509 -0.4357
72498SOL     OW35485   1.398  12.150  10.864  0.5790  0.2353 -0.1358
72498SOL    HW135486   1.371  12.223  10.919 -0.5696 -0.9735  0.9869
72498SOL    HW235487   1.405  12.076  10.924  1.3126 -0.6891 -1.3031
72499SOL     OW35488  11.114   9.540   7.696  0.0976 -0.3494 -0.0414
72499SOL    HW135489  11.027   9.499   7.692  0.2572 -0.6585 -0.4275
72499SOL    HW235490  11.167   9.479   7.746  0.1422 -0.2534  0.0280
72500SOL     OW35491  14.108   5.242   4.215 -0.3462  0.4494  0.5551
72500SOL    HW135492  14.065   5.326   4.230  1.7662  1.5480  0.7082
72500SOL    HW235493  14.117   5.204   4.303  0.4797  0.9974  0.7176
72501SOL     OW35494   6.818  10.690   1.614  0.3006 -0.3817 -0.5580
72501SOL    HW135495   6.896  10.743   1.629 -0.6317  0.5477  1.3140
72501SOL    HW235496   6.835  10.645   1.531  2.3081  0.6881 -0.7804
72502SOL     OW35497  12.451  10.413   8.004 -0.2387  0.0314  0.1854
72502SOL    HW135498  12.374  10.419   7.948  0.2187 -0.6092 -0.5367
72502SOL    HW235499  12.436  10.334   8.057 -0.2485  0.1155  0.3083
72503SOL     OW35500   5.341  11.008   5.417 -0.3724 -0.2181 -0.2193
72503SOL    HW135501   5.302  10.932   5.373  1.3123 -0.6360 -1.0448
72503SOL    HW235502   5.401  10.970   5.481  0.9089  0.3837 -1.0263
72504SOL     OW35503   9.768   1.193   7.279  0.4820 -0.6708  0.2903
72504SOL    HW135504   9.798   1.271   7.326 -1.3650  0.2509  0.0163
72504SOL    HW235505   9.823   1.191   7.200 -1.6349  2.4305 -1.4825
72505SOL     OW35506   6.659   3.097   5.257  0.4914 -0.3009  0.2719
72505SOL    HW135507   6.753   3.079   5.254  0.7084  0.8977 -1.1985
72505SOL    HW235508   6.618   3.010   5.259  1.6143 -0.8331  2.3884
72506SOL     OW35509   5.118  12.961   9.171 -0.2698 -0.1178 -0.0267
72506SOL    HW135510   5.163  12.907   9.107  0.2423  0.7761 -0.4429
72506SOL    HW235511   5.080  12.899   9.233  0.8561 -0.9274 -0.1143
72507SOL     OW35512  12.456  12.044  10.776  0.1786  0.1376  0.4061
72507SOL    HW135513  12.475  12.135  10.800  1.1683  0.6299 -1.9582
72507SOL    HW235514  12.523  11.993  10.821  1.0204  0.8520 -0.0032
72508SOL     OW35515   2.628  12.124  12.911 -0.5593 -0.3580  0.0858
72508SOL    HW135516   2.705  12.097  12.962  1.4189  0.2798 -2.3374
72508SOL    HW235517   2.582  12.043  12.892  1.2471 -1.1998 -0.9411
72509SOL     OW35518   1.100   2.794   6.981  0.3877  0.6317 -0.0676
72509SOL    HW135519   1.153   2.717   6.960  1.9541  1.5310  0.3491
72509SOL    HW235520   1.013   2.760   7.000  0.8719 -0.9488 -0.5790
72510SOL     OW35521  12.930  13.111   9.556  0.4425 -0.4921 -0.5257
72510SOL    HW135522  12.838  13.121   9.534  0.4163  0.8234  0.1049
72510SOL    HW235523  12.946  13.175   9.625  1.2556 -2.3626  1.1200
72511SOL     OW35524   2.354   1.985   4.266 -0.2095  0.0474  0.0317
72511SOL    HW135525   2.394   2.068   4.293 -0.3291 -0.1727  0.9235
72511SOL    HW235526   2.355   1.931   4.345 -0.5476 -0.6394 -0.4241
72512SOL     OW35527   4.601  11.515   5.777  0.2704  0.0867 -0.2353
72512SOL    HW135528   4.680  11.472   5.810 -0.6211  0.1015  2.0763
72512SOL    HW235529   4.592  11.594   5.831 -0.4762  0.9341 -1.5417
72513SOL     OW35530   9.289   5.139   8.677 -0.2875  0.2718  0.1212
72513SOL    HW135531   9.338   5.060   8.656 -0.7314 -0.6627  2.3138
72513SOL    HW235532   9.198   5.115   8.663 -0.4348  0.3265  0.9272
72514SOL     OW35533  10.305   6.568   2.894  0.2343 -0.1954 -0.5274
72514SOL    HW135534  10.222   6.525   2.913  0.8944 -1.4010 -0.2744
72514SOL    HW235535  10.284   6.661   2.890 -0.8170 -0.3129  1.3124
72515SOL     OW35536   6.495   0.043   8.178 -0.2121 -0.3626 -0.1850
72515SOL    HW135537   6.529   0.006   8.259 -0.4117 -0.7810 -0.2918
72515SOL    HW235538   6.402   0.020   8.177 -0.9766  2.2398  0.9542
72516SOL     OW35539  10.532   5.069   3.471 -0.3306  0.7882 -0.5947
72516SOL    HW135540  10.538   5.028   3.385  0.0100  0.1357 -0.2675
72516SOL    HW235541  10.618   5.054   3.510 -1.6401 -2.5020  1.4447
72517SOL     OW35542  12.136   3.482   5.251  0.6307  0.2855 -0.0447
72517SOL    HW135543  12.048   3.518   5.239  0.6161  0.2515 -0.0374
72517SOL    HW235544  12.145   3.470   5.346  1.0399  1.2773  0.0556
72518SOL     OW35545   1.571  12.489   9.386  0.2502 -0.2899  0.9040
72518SOL    HW135546   1.523  12.409   9.405  0.9704 -0.3733  2.4842
72518SOL    HW235547   1.662  12.469   9.408  0.7075  0.4917 -0.1559
72519SOL     OW35548  12.738   1.082  12.979  0.2061  0.1719  0.3145
72519SOL    HW135549  12.782   1.045  13.055  1.6927  0.7816 -0.2191
72519SOL    HW235550  12.689   1.156  13.014 -1.2059 -1.0579  1.0622
72520SOL     OW35551  11.010   1.641   6.346  0.2548 -0.5131  0.0949
72520SOL    HW135552  11.071   1.630   6.419 -0.6425 -2.3790  0.6328
72520SOL    HW235553  10.929   1.671   6.387  0.1725 -0.1224 -0.3439
72521SOL     OW35554   0.315   1.906  10.072  0.3536 -0.5839 -0.4037
72521SOL    HW135555   0.390   1.853  10.045 -0.6617 -0.6604 -3.3736
72521SOL    HW235556   0.242   1.845  10.074  0.3617 -0.7297  3.4085
72522SOL     OW35557   4.044   4.437   9.696  0.7053  0.1720  0.1100
72522SOL    HW135558   4.136   4.451   9.721  0.5771  1.3957 -0.0587
72522SOL    HW235559   4.040   4.465   9.605  0.3915 -0.9424 -0.2374
72523SOL     OW35560   8.959   0.020   1.023 -0.1184  0.3697 -0.1924
72523SOL    HW135561   8.907  -0.013   1.096  0.0869  0.9824  0.2395
72523SOL    HW235562   9.029  -0.045   1.013  0.2976  0.6601  0.6700
72524SOL     OW35563  11.203   2.363   7.526  0.1120 -0.2520  0.0172
72524SOL    HW135564  11.119   2.400   7.500 -0.5855 -0.2697  2.0891
72524SOL    HW235565  11.182   2.275   7.559  0.8142  0.0273  1.2626
72525SOL     OW35566   9.901   4.214  11.673  0.2720 -0.0816  0.3926
72525SOL    HW135567   9.911   4.267  11.594 -0.9514  0.6536  0.7162
72525SOL    HW235568   9.988   4.215  11.714  0.3190  1.5409  0.3005
72526SOL     OW35569  11.088  11.841   9.266  0.1369  0.2433 -0.1062
72526SOL    HW135570  11.029  11.915   9.258  1.1557  1.0189 -0.8133
72526SOL    HW235571  11.098  11.827   9.360  0.6559  1.6304  0.0722
72527SOL     OW35572   8.151   7.046   6.035 -0.0504 -0.5163 -0.1583
72527SOL    HW135573   8.142   6.973   5.975 -2.7496 -0.5845  0.1908
72527SOL    HW235574   8.136   7.008   6.122 -0.2181  0.2248  0.1472
72528SOL     OW35575  13.937   4.927   0.203 -0.0880 -0.5924  0.0916
72528SOL    HW135576  13.941   4.962   0.292  0.4510 -0.9247  0.2033
72528SOL    HW235577  13.859   4.872   0.202 -0.0994 -0.5789  0.3516
72529SOL     OW35578   2.288   5.964   4.163 -0.2541  0.7601  0.1562
72529SOL    HW135579   2.276   5.871   4.144  0.4727  0.6571  0.1560
72529SOL    HW235580   2.201   5.995   4.189 -0.5841  0.1745 -0.2302
72530SOL     OW35581   1.504  10.389   0.786  0.4152  0.1235 -0.8242
72530SOL    HW135582   1.538  10.477   0.770  0.9019 -0.1317 -1.2376
72530SOL    HW235583   1.430  10.381   0.727 -0.3444  0.6576  0.0298
72531SOL     OW35584  11.130   2.842   6.755 -0.6227 -0.1004 -0.1385
72531SOL    HW135585  11.139   2.934   6.783  1.6547 -0.4924  0.5819
72531SOL    HW235586  11.121   2.847   6.660  0.6727  0.8480 -0.2417
72532SOL     OW35587   1.678   1.033  12.267  0.6933 -0.0536 -0.0210
72532SOL    HW135588   1.682   1.101  12.200  2.0417 -0.4880 -0.4198
72532SOL    HW235589   1.679   1.080  12.350 -1.4956  0.5183 -0.2700
72533SOL     OW35590   0.040   4.022   9.528  0.6633  0.2001 -0.1516
72533SOL    HW135591   0.092   4.102   9.521  0.2752  0.4451 -0.2540
72533SOL    HW235592   0.029   4.009   9.622 -0.8301  1.2974 -0.1358
72534SOL     OW35593   9.629   5.221   1.597 -0.3963  0.1629  0.0252
72534SOL    HW135594   9.573   5.298   1.593  0.5758  0.9250  0.5215
72534SOL    HW235595   9.597   5.171   1.672 -1.8683 -0.6130 -1.0888
72535SOL     OW35596   0.816   5.587   0.659 -0.2763  0.0092  0.0952
72535SOL    HW135597   0.750   5.537   0.707  1.7021 -1.9361  0.9791
72535SOL    HW235598   0.861   5.638   0.726  0.5457 -0.4052 -0.1299
72536SOL     OW35599   2.112   1.690   0.786  0.0101 -0.3272  0.1070
72536SOL    HW135600   2.150   1.757   0.844  1.0577 -2.4193  2.0514
72536SOL    HW235601   2.188   1.640   0.756 -0.7507 -0.7479 -1.1654
72537SOL     OW35602   0.696  12.171   4.834  0.1127 -0.1094 -0.0374
72537SOL    HW135603   0.745  12.184   4.915  0.9477  0.0718 -0.5532
72537SOL    HW235604   0.606  12.195   4.855  0.1694 -0.7659  1.0287
72538SOL     OW35605   8.340   7.350   4.467  0.5837 -0.0857 -0.4474
72538SOL    HW135606   8.426   7.344   4.426  1.8264  0.9989  1.8473
72538SOL    HW235607   8.355   7.396   4.549 -2.1458 -0.1912  0.2131
72539SOL     OW35608   1.263  13.184  12.181 -0.3414 -0.2633  0.4213
72539SOL    HW135609   1.258  13.104  12.234  1.4346  0.2505  1.4367
72539SOL    HW235610   1.356  13.208  12.182 -0.6834  1.2626 -0.7194
72540SOL     OW35611   3.481   0.017   8.835  0.1253 -0.1409  0.6939
72540SOL    HW135612   3.572   0.032   8.860 -0.0142  3.1519 -0.2484
72540SOL    HW235613   3.446  -0.040   8.903  2.8459 -1.4857  1.0924
72541SOL     OW35614  13.297   4.095   7.506 -0.1570 -0.0363  0.6628
72541SOL    HW135615  13.296   4.084   7.410 -1.4517 -0.9280  0.7576
72541SOL    HW235616  13.205   4.096   7.531  0.1623 -1.9051  2.1169
72542SOL     OW35617   8.932  10.052   9.698 -0.1208  0.6699 -0.2685
72542SOL    HW135618   8.971   9.980   9.747 -0.6127  0.7094  0.1901
72542SOL    HW235619   8.866  10.088   9.757  0.0476  1.4277 -0.5347
72543SOL     OW35620  13.985   9.735   7.977 -0.1198  0.6385  0.0036
72543SOL    HW135621  13.995   9.704   8.067 -3.2588 -1.0611 -0.0919
72543SOL    HW235622  13.897   9.772   7.973 -0.5308 -0.3775 -2.6049
72544SOL     OW35623   6.794   9.356   3.316  0.4486 -0.5235 -0.7465
72544SOL    HW135624   6.803   9.284   3.378  0.9680 -1.1179 -1.4945
72544SOL    HW235625   6.768   9.431   3.369 -0.9104 -1.4503 -0.0583
72545SOL     OW35626  12.109   2.725   7.044 -0.0607  0.4725 -0.9207
72545SOL    HW135627  12.032   2.782   7.040 -1.5235 -1.3381 -0.0871
72545SOL    HW235628  12.080   2.643   7.004  0.3930 -1.3080  2.1068
72546SOL     OW35629   5.042   0.522   7.468 -0.0574 -0.2550  0.1594
72546SOL    HW135630   4.963   0.469   7.481 -0.6368  0.8946  1.6502
72546SOL    HW235631   5.111   0.473   7.513  0.5412 -2.0824 -2.4838
72547SOL     OW35632   3.851   1.672  11.168 -0.2373 -0.9285  0.2373
72547SOL    HW135633   3.908   1.702  11.239  0.8796 -1.2069 -0.5111
72547SOL    HW235634   3.763   1.699  11.194  0.2860 -0.1460  1.2477
72548SOL     OW35635  10.607   8.496   5.133  0.2121  0.0072 -0.2618
72548SOL    HW135636  10.673   8.437   5.097 -0.2752 -0.6826 -0.0403
72548SOL    HW235637  10.656   8.552   5.193  0.8635  0.5562 -1.2837
72549SOL     OW35638  10.687  12.799  12.297 -0.1939  0.2272 -0.1221
72549SOL    HW135639  10.776  12.783  12.327 -1.2036  0.2789  3.4260
72549SOL    HW235640  10.638  12.723  12.327 -1.1465 -0.7623 -3.7201
72550SOL     OW35641   3.546   4.362  12.570  0.3740  0.1416  0.3008
72550SOL    HW135642   3.557   4.445  12.523 -1.8153  0.1159 -0.3762
72550SOL    HW235643   3.469   4.377  12.626 -0.1108 -1.4382  0.0913
72551SOL     OW35644   3.989  14.142   7.474 -0.0415  0.1021 -0.2988
72551SOL    HW135645   3.915  14.183   7.429 -0.7697 -0.0342  0.7469
72551SOL    HW235646   3.961  14.134   7.565  1.5134  0.6665  0.2688
72552SOL     OW35647   7.130  12.452  11.720  0.0840  0.3624 -0.1281
72552SOL    HW135648   7.075  12.386  11.678  0.5796  1.0440 -1.9496
72552SOL    HW235649   7.080  12.533  11.714  1.5567  1.2033 -2.6974
72553SOL     OW35650   5.915  11.035   3.969  0.3222 -0.1123 -0.2764
72553SOL    HW135651   5.931  11.049   4.063 -1.0321  0.9712 -0.1760
72553SOL    HW235652   5.959  11.109   3.927 -0.7855  0.5379 -0.3197
72554SOL     OW35653   6.295   8.883   1.426 -0.8112 -0.2745  0.0045
72554SOL    HW135654   6.305   8.950   1.359 -1.6439 -0.9612 -0.8413
72554SOL    HW235655   6.224   8.827   1.393  0.1783 -1.8412  0.4354
72555SOL     OW35656   9.583  12.294   0.243  0.1716  0.2771 -0.7104
72555SOL    HW135657   9.609  12.241   0.319 -0.0813  0.4331 -0.5123
72555SOL    HW235658   9.603  12.239   0.168  0.7796  0.2691 -0.5498
72556SOL     OW35659  10.494   1.206   7.119 -0.2371  0.3355 -0.0390
72556SOL    HW135660  10.468   1.210   7.027  0.9470  1.0572 -0.3689
72556SOL    HW235661  10.490   1.113   7.141 -2.2907  0.3410 -0.2643
72557SOL     OW35662   5.687   3.872   6.089  0.2683  0.3271  0.1320
72557SOL    HW135663   5.615   3.933   6.102  1.1937  1.1240  1.9249
72557SOL    HW235664   5.682   3.812   6.163  0.3935 -0.7335 -0.6937
72558SOL     OW35665   1.241  12.167   7.166  0.0068  0.3807  0.5541
72558SOL    HW135666   1.270  12.092   7.217 -0.9166  0.4907  1.2855
72558SOL    HW235667   1.173  12.132   7.108 -0.1513  0.5645  0.6233
72559SOL     OW35668  13.341   8.472   4.002  0.1158 -0.1626 -0.4468
72559SOL    HW135669  13.384   8.458   4.086 -0.5634 -0.5241 -0.1415
72559SOL    HW235670  13.405   8.519   3.948  1.2884 -1.6007 -0.3759
72560SOL     OW35671   1.471  10.700   2.518 -0.0388  0.2014 -0.1129
72560SOL    HW135672   1.388  10.740   2.543 -0.3543  0.4144 -1.4672
72560SOL    HW235673   1.501  10.751   2.443  0.3944 -1.0342 -0.7980
72561SOL     OW35674   8.702  12.504   2.509  0.1949 -0.2567 -0.0888
72561SOL    HW135675   8.655  12.544   2.582  0.1011  1.5186 -1.0632
72561SOL    HW235676   8.641  12.507   2.435  0.0342 -2.6593 -0.1326
72562SOL     OW35677  12.482  13.130   6.721 -0.2589 -0.0830  0.1121
72562SOL    HW135678  12.500  13.040   6.693  0.6505  0.1377 -0.0401
72562SOL    HW235679  12.460  13.123   6.813  0.3010 -0.4069  0.2214
72563SOL     OW35680  11.447  13.394   2.916 -0.2137 -0.2714  0.2229
72563SOL    HW135681  11.352  13.403   2.902 -0.0855  0.5961 -0.1648
72563SOL    HW235682  11.483  13.379   2.829  0.4323  3.7659 -0.4055
72564SOL     OW35683  10.764   3.325   4.890 -0.5875 -0.3402  0.5091
72564SOL    HW135684  10.815   3.372   4.824 -0.5905 -2.6228 -1.2617
72564SOL    HW235685  10.799   3.356   4.973 -0.5386  2.6378 -0.4801
72565SOL     OW35686  12.233  10.646   3.814  0.0420  0.4078  0.6516
72565SOL    HW135687  12.233  10.741   3.806 -0.8372  0.5043  1.6772
72565SOL    HW235688  12.321  10.620   3.789  1.1484  1.7198  2.9368
72566SOL     OW35689  11.897  13.824   4.621  0.1275  0.2078 -0.2536
72566SOL    HW135690  11.815  13.820   4.669  0.1334  0.5193 -0.2181
72566SOL    HW235691  11.918  13.917   4.617  1.2825  0.0532  1.1282
72567SOL     OW35692  11.795   0.192   0.627  0.0557 -0.0462 -0.6874
72567SOL    HW135693  11.724   0.256   0.629 -0.3309 -0.4418 -1.3321
72567SOL    HW235694  11.825   0.186   0.717 -0.2029  0.7121 -0.5485
72568SOL     OW35695   0.634   1.007   2.047 -0.0278 -0.2301 -0.3104
72568SOL    HW135696   0.613   1.039   2.135 -0.9682 -1.1014 -0.2083
72568SOL    HW235697   0.688   1.076   2.009  2.5939 -0.8685  1.8509
72569SOL     OW35698   2.408   6.682   7.310  0.5619 -0.3504  0.1741
72569SOL    HW135699   2.445   6.594   7.318 -0.1446 -0.5816  1.0707
72569SOL    HW235700   2.399   6.713   7.400 -0.8879 -0.0863 -0.0347
72570SOL     OW35701  11.520   7.159   3.032 -0.2961  0.0690  0.1229
72570SOL    HW135702  11.615   7.153   3.046 -0.0705 -1.8649 -1.6573
72570SOL    HW235703  11.485   7.189   3.116  1.8871  1.0776  0.7552
72571SOL     OW35704   8.505  10.494   8.095 -0.1025 -0.4599  0.3428
72571SOL    HW135705   8.425  10.520   8.050 -0.0721 -0.0255  0.5295
72571SOL    HW235706   8.496  10.531   8.183  1.0865  1.1556 -0.1614
72572SOL     OW35707   7.398   0.961   9.877  0.4672  0.2022  0.3472
72572SOL    HW135708   7.390   1.012   9.796  1.4438  0.6947  0.5495
72572SOL    HW235709   7.415   1.026   9.945 -0.3672 -0.2060  0.9609
72573SOL     OW35710  10.711   1.205   0.038  0.2189 -0.8306 -0.3603
72573SOL    HW135711  10.699   1.111   0.030  0.4680 -0.9831  0.8759
72573SOL    HW235712  10.691   1.225   0.130 -0.0685  0.3577 -0.6596
72574SOL     OW35713  12.240   6.844  11.188  0.2273 -0.2163  0.0171
72574SOL    HW135714  12.156   6.821  11.146  0.6446 -0.5157 -0.6804
72574SOL    HW235715  12.292   6.883  11.118  0.0196  1.7257  0.8789
72575SOL     OW35716   1.279   3.433  12.675  0.2372 -0.2586  0.1776
72575SOL    HW135717   1.214   3.424  12.606 -0.3283 -0.3357  0.7161
72575SOL    HW235718   1.256   3.514  12.720  0.7278 -0.1002  0.1460
72576SOL     OW35719   1.980  11.964   0.035  0.2599 -0.2731 -0.3409
72576SOL    HW135720   2.012  12.054   0.036 -1.3209  0.4211  3.0414
72576SOL    HW235721   1.916  11.961  -0.035  2.4129  0.2946 -2.4518
72577SOL     OW35722   5.325   9.488   6.149  0.0934  0.0245  0.3020
72577SOL    HW135723   5.286   9.546   6.084  1.4023  1.0073  0.3441
72577SOL    HW235724   5.301   9.400   6.120 -0.6928  0.5197 -0.6058
72578SOL     OW35725   0.759   6.451   9.978  0.3124  0.2868 -0.0303
72578SOL    HW135726   0.821   6.479   9.910  0.1019 -0.5463 -0.5884
72578SOL    HW235727   0.757   6.355   9.969 -0.5238  0.2568  0.4506
72579SOL     OW35728   5.712  12.274  12.090  0.0659 -0.2247  0.1325
72579SOL    HW135729   5.673  12.241  12.009  0.6750  0.6604 -0.5389
72579SOL    HW235730   5.776  12.207  12.115  0.6453  0.0149 -0.7118
72580SOL     OW35731   3.461  12.233   4.534  0.0568  0.1104  0.1246
72580SOL    HW135732   3.549  12.266   4.550 -0.2727 -0.2942  3.2760
72580SOL    HW235733   3.459  12.148   4.576 -1.9136  0.2116  0.3182
72581SOL     OW35734   8.347   1.662   0.321  0.0315  0.2026 -0.1284
72581SOL    HW135735   8.333   1.571   0.349  1.3194 -0.5733 -1.8189
72581SOL    HW235736   8.327   1.714   0.399  0.3100 -1.5890  1.2180
72582SOL     OW35737   7.653   6.118   5.604 -0.5171  0.2123 -0.1605
72582SOL    HW135738   7.618   6.114   5.515 -1.8244 -0.5527  0.3455
72582SOL    HW235739   7.740   6.156   5.594 -0.5982  0.0674 -1.7698
72583SOL     OW35740  13.598   0.449   0.842  0.5596 -0.4027  0.4044
72583SOL    HW135741  13.505   0.427   0.844  1.2509 -3.8135  2.3284
72583SOL    HW235742  13.624   0.433   0.751 -0.3979 -0.9050  0.2064
72584SOL     OW35743  13.560   0.817  12.188  0.0973 -0.1172 -0.1052
72584SOL    HW135744  13.520   0.836  12.273 -1.9921 -2.7655 -0.3759
72584SOL    HW235745  13.629   0.753  12.208  0.7334  0.4968 -0.2702
72585SOL     OW35746   7.701   9.982   9.834 -0.6362 -0.2820 -0.3277
72585SOL    HW135747   7.608   9.969   9.816 -0.3148 -1.2357 -1.3558
72585SOL    HW235748   7.736   9.893   9.843  0.6400 -0.0503 -2.4383
72586SOL     OW35749   4.509  10.692   8.435  0.4670  0.5671 -0.1054
72586SOL    HW135750   4.559  10.617   8.402  1.7792  1.6124 -0.5631
72586SOL    HW235751   4.418  10.670   8.414  1.0172  0.0540 -2.1978
72587SOL     OW35752  11.236   3.030   4.878 -0.3314  0.1137  0.0485
72587SOL    HW135753  11.311   3.040   4.937  1.4058 -0.8489 -1.8214
72587SOL    HW235754  11.188   2.955   4.913  1.4712 -1.3698 -0.4471
72588SOL     OW35755  11.501   2.557   6.157  0.2348 -0.0280 -0.0560
72588SOL    HW135756  11.429   2.579   6.099  1.3668 -0.3295 -1.6440
72588SOL    HW235757  11.467   2.487   6.213 -0.3779 -0.9436 -1.5224
72589SOL     OW35758   7.839  13.923   7.247 -0.2966  0.0666 -0.6777
72589SOL    HW135759   7.917  13.958   7.205 -0.5675  0.1757 -1.1071
72589SOL    HW235760   7.823  13.839   7.202  0.6257 -0.8726  0.6687
72590SOL     OW35761   7.347   4.635   6.970 -0.1754  0.1662  0.4067
72590SOL    HW135762   7.348   4.639   6.874 -1.4025  1.7811  0.4244
72590SOL    HW235763   7.254   4.639   6.993  0.1334  0.3014  1.6799
72591SOL     OW35764   8.934   0.639  10.193  0.3562 -0.3190 -0.5587
72591SOL    HW135765   8.913   0.680  10.109  1.1795  0.5215 -0.3798
72591SOL    HW235766   8.866   0.669  10.253  1.2608  1.2991 -0.2925
72592SOL     OW35767   0.299   4.853  11.016 -0.4549 -0.1121 -0.5687
72592SOL    HW135768   0.296   4.938  11.059  0.0858 -0.4473  0.1409
72592SOL    HW235769   0.230   4.857  10.949  1.0271  1.7095 -2.1045
72593SOL     OW35770  11.083  10.349  13.511  0.4355  0.2629  0.5268
72593SOL    HW135771  11.049  10.346  13.600  1.0016 -0.5554  0.7235
72593SOL    HW235772  11.008  10.328  13.456  0.5192 -1.2019  0.9371
72594SOL     OW35773   7.171   0.843   8.414 -0.0126  0.0187 -0.2878
72594SOL    HW135774   7.097   0.783   8.422  0.2222 -0.0556  2.7428
72594SOL    HW235775   7.246   0.786   8.398 -0.2188 -0.2080 -0.4584
72595SOL     OW35776   5.230  12.686  10.626 -0.1620  0.4918  0.0390
72595SOL    HW135777   5.255  12.686  10.534 -0.5851  0.6973 -0.0785
72595SOL    HW235778   5.201  12.776  10.643  0.4150  0.5944  0.5129
72596SOL     OW35779  13.168   2.469  13.816 -0.0417  0.4312 -0.2365
72596SOL    HW135780  13.250   2.448  13.860 -0.0171 -2.2651 -1.3338
72596SOL    HW235781  13.101   2.454  13.882  0.2436  0.6220  0.0965
72597SOL     OW35782   8.334  12.527   1.660  0.1201  0.1832 -0.2983
72597SOL    HW135783   8.335  12.593   1.730 -0.2928 -0.4848  0.3607
72597SOL    HW235784   8.240  12.511   1.645  0.2151  0.0007 -0.6986
72598SOL     OW35785  14.043   1.465   8.587 -0.1264 -0.3207  0.7175
72598SOL    HW135786  14.097   1.501   8.516 -0.8880 -1.1329 -0.3040
72598SOL    HW235787  14.061   1.371   8.586 -1.0593 -0.5103  0.7981
72599SOL     OW35788   0.150  13.831   7.409 -0.0378 -0.1074 -0.1763
72599SOL    HW135789   0.099  13.767   7.359  1.1687  1.2793 -3.5140
72599SOL    HW235790   0.090  13.905   7.421 -0.5045 -0.6547  1.0386
72600SOL     OW35791   4.353  13.532   5.165 -0.1098 -0.1850  0.4196
72600SOL    HW135792   4.310  13.449   5.148 -0.4735  0.0772  0.0524
72600SOL    HW235793   4.419  13.539   5.097 -1.4395  0.7744 -0.8220
72601SOL     OW35794  10.066   1.442  10.535  0.1333 -0.0869 -0.0025
72601SOL    HW135795  10.116   1.361  10.544  1.4784  0.6791 -0.2656
72601SOL    HW235796  10.102   1.484  10.457 -0.8318  0.5770 -0.1095
72602SOL     OW35797   2.656   6.515  12.359 -0.7561 -0.4677 -0.5938
72602SOL    HW135798   2.707   6.561  12.293 -0.1168 -0.1448  0.1140
72602SOL    HW235799   2.579   6.483  12.312 -1.1147  1.1482 -1.1512
72603SOL     OW35800   2.638   5.049  13.875  0.3402 -0.0379  0.1562
72603SOL    HW135801   2.564   5.107  13.856 -0.2997 -1.2906 -1.3521
72603SOL    HW235802   2.603   4.984  13.935  0.5592  0.0683  0.4010
72604SOL     OW35803   2.811  12.807  14.123  0.2006  0.1060  0.0041
72604SOL    HW135804   2.840  12.827  14.211  1.4962 -1.0663 -0.1204
72604SOL    HW235805   2.884  12.758  14.084 -0.7704 -0.3294 -1.3502
72605SOL     OW35806  12.814   8.021   3.021  0.6121 -0.6529  0.3572
72605SOL    HW135807  12.892   8.071   2.996 -0.1013  0.7078  0.7658
72605SOL    HW235808  12.775   8.071   3.092 -0.0221 -1.9244  0.9280
72606SOL     OW35809  12.284  13.154  13.860  0.5568  0.4458 -0.3941
72606SOL    HW135810  12.208  13.192  13.903 -1.1140 -1.5905 -1.3655
72606SOL    HW235811  12.282  13.189  13.771  1.0535  0.7535 -0.2903
72607SOL     OW35812   8.620   0.261   0.092 -0.1279  0.3668  0.5542
72607SOL    HW135813   8.590   0.299   0.175  2.1093 -0.4848  1.8663
72607SOL    HW235814   8.680   0.326   0.056  0.5894 -0.1748  0.7443
72608SOL     OW35815  13.758   2.676  11.991  0.7360  0.1863 -0.1186
72608SOL    HW135816  13.704   2.644  12.063 -1.0107 -0.0162 -1.4444
72608SOL    HW235817  13.761   2.602  11.929 -1.2139  1.6128 -2.0582
72609SOL     OW35818  10.464   2.883  12.860 -0.4402  0.0458  0.4046
72609SOL    HW135819  10.388   2.929  12.823 -1.6919 -1.6728  0.7198
72609SOL    HW235820  10.432   2.795  12.880  1.8203 -0.9553 -0.0384
72610SOL     OW35821   3.023   1.047   0.767 -0.1342 -0.0057 -0.0574
72610SOL    HW135822   3.058   0.997   0.841  0.2945  0.1825 -0.1353
72610SOL    HW235823   3.098   1.062   0.710 -0.6092 -0.8504 -0.9332
72611SOL     OW35824   7.998   1.558  12.539  0.5847  0.0863  0.2967
72611SOL    HW135825   8.029   1.560  12.448 -1.9518  1.3444 -0.6293
72611SOL    HW235826   8.022   1.643  12.574  1.5622 -0.3991  0.8668
72612SOL     OW35827  13.990  13.264   8.135 -0.4042 -0.0736  0.1218
72612SOL    HW135828  13.962  13.328   8.069 -2.4832 -2.0830 -1.1094
72612SOL    HW235829  14.063  13.218   8.095  0.6105  0.9450  0.7144
72613SOL     OW35830   2.413  11.472   8.474 -0.2361  0.5719 -0.1059
72613SOL    HW135831   2.418  11.520   8.557 -0.2892 -0.8263  0.7386
72613SOL    HW235832   2.502  11.443   8.457 -0.3848  0.0671 -0.0473
72614SOL     OW35833   8.104   1.357   2.690  0.2221 -0.0578 -0.1173
72614SOL    HW135834   8.017   1.371   2.729  0.4687  1.2128 -0.0159
72614SOL    HW235835   8.118   1.262   2.700  0.2706  0.1564  2.8990
72615SOL     OW35836  14.017   4.864   2.847  0.3485 -0.5493 -0.6078
72615SOL    HW135837  13.956   4.799   2.882  0.3075  0.0481  0.4899
72615SOL    HW235838  14.099   4.847   2.893  0.4223 -0.0445 -0.5449
72616SOL     OW35839  12.675   4.366   7.624  0.7321 -0.2011  0.1142
72616SOL    HW135840  12.686   4.342   7.532 -0.1384  0.9645 -0.3331
72616SOL    HW235841  12.764   4.374   7.658  1.0893  0.1742 -0.8676
72617SOL     OW35842   9.823   4.295   8.828 -0.1630 -0.3314  0.4135
72617SOL    HW135843   9.752   4.231   8.816 -0.4231  0.1381 -0.6755
72617SOL    HW235844   9.780   4.380   8.823  0.6331  0.0009 -1.7430
72618SOL     OW35845  12.995  14.089  12.220  0.0169 -0.3758 -0.5558
72618SOL    HW135846  12.912  14.067  12.177 -1.3839  0.4328  1.5640
72618SOL    HW235847  13.061  14.045  12.167 -1.6748 -0.5293 -2.7103
72619SOL     OW35848   8.602  13.541   7.372  0.2241  0.3634 -0.0430
72619SOL    HW135849   8.647  13.616   7.333 -0.3617  0.7305 -0.0173
72619SOL    HW235850   8.662  13.510   7.441 -0.1779  1.7342  0.9674
72620SOL     OW35851   5.813   1.460   5.085  0.0861  0.1249 -0.1812
72620SOL    HW135852   5.746   1.505   5.137 -1.3192 -1.6145 -0.3677
72620SOL    HW235853   5.894   1.475   5.133 -0.0618  3.6284 -0.7849
72621SOL     OW35854   5.323   8.007   2.863 -0.2587  0.1343  0.5459
72621SOL    HW135855   5.303   7.952   2.939 -0.3892 -3.2628 -1.6808
72621SOL    HW235856   5.252   7.988   2.801  1.5428  0.0733 -1.6484
72622SOL     OW35857  10.239   0.369   7.178 -0.5155 -0.1129 -0.1470
72622SOL    HW135858  10.163   0.426   7.190 -0.1688 -0.0284  2.0117
72622SOL    HW235859  10.304   0.424   7.135 -0.7047  0.6859  0.5550
72623SOL     OW35860   4.938   3.583  11.214 -0.1596 -0.1561  0.5122
72623SOL    HW135861   4.934   3.650  11.146  0.0649  0.8034  1.4112
72623SOL    HW235862   4.877   3.516  11.186  0.4285 -0.1032 -0.9627
72624SOL     OW35863  11.634   6.530  11.853 -0.1300  0.1898 -0.0160
72624SOL    HW135864  11.585   6.475  11.915  0.3331 -0.0557  0.1337
72624SOL    HW235865  11.574   6.540  11.778 -0.8526  0.8303  0.6376
72625SOL     OW35866  10.178   1.385   6.809  0.2003  0.2341 -0.4908
72625SOL    HW135867  10.180   1.404   6.903  0.3845 -1.1268 -0.1968
72625SOL    HW235868  10.123   1.453   6.772 -1.4065 -0.2359  0.8752
72626SOL     OW35869   2.836   6.053   4.392  0.0374 -0.7009  0.0700
72626SOL    HW135870   2.836   5.964   4.427  1.8897 -0.1219  1.6991
72626SOL    HW235871   2.862   6.043   4.301 -0.3371 -1.8515  0.0670
72627SOL     OW35872   5.194   3.572  11.832 -0.1366 -0.0153 -0.0425
72627SOL    HW135873   5.280   3.594  11.798  1.0699 -0.4430  2.4834
72627SOL    HW235874   5.166   3.650  11.879 -0.3213 -0.4699  0.6199
72628SOL     OW35875   0.723   1.848   1.333  0.2070 -0.2968 -0.0528
72628SOL    HW135876   0.647   1.853   1.275  0.5050  0.2594 -0.4045
72628SOL    HW235877   0.755   1.938   1.339  0.0832 -0.3139  1.1141
72629SOL     OW35878  10.503   2.989  12.378 -0.5105 -0.0335  0.5428
72629SOL    HW135879  10.485   3.061  12.438 -0.5164  0.3014  0.1448
72629SOL    HW235880  10.521   2.914  12.435 -2.0709 -0.1163  0.9638
72630SOL     OW35881   3.585  13.756  12.025 -0.2671  0.3554 -0.2192
72630SOL    HW135882   3.596  13.847  12.052 -0.6164  0.4967 -0.5552
72630SOL    HW235883   3.611  13.755  11.933 -0.5061  0.1647 -0.2852
72631SOL     OW35884  13.299   8.445  10.838  0.1341 -0.2500 -0.2969
72631SOL    HW135885  13.239   8.480  10.772  0.1917 -0.3206 -0.3855
72631SOL    HW235886  13.351   8.520  10.866 -0.8506  0.0995  0.7004
72632SOL     OW35887   9.284  13.842   6.188  0.1946 -0.5928  0.3185
72632SOL    HW135888   9.331  13.922   6.166 -1.4518  0.0497 -1.1705
72632SOL    HW235889   9.250  13.857   6.276 -0.5780  0.6077 -0.1659
72633SOL     OW35890   3.856   1.846  11.876 -0.3481 -0.9162 -0.5613
72633SOL    HW135891   3.794   1.920  11.877 -0.0598 -0.6735 -0.4580
72633SOL    HW235892   3.935   1.882  11.836 -0.7839 -1.6566 -2.1318
72634SOL     OW35893   4.898   9.178   4.691 -0.5607  0.2921  0.3841
72634SOL    HW135894   4.947   9.113   4.641 -0.0172  1.4665 -0.6616
72634SOL    HW235895   4.950   9.190   4.771  0.0005  0.3191  0.0239
72635SOL     OW35896   2.660   4.782   2.873  0.8230  0.0448 -0.3913
72635SOL    HW135897   2.740   4.821   2.908  1.6880 -0.3909 -1.8195
72635SOL    HW235898   2.679   4.768   2.780 -1.3883  1.1700 -1.0810
72636SOL     OW35899  10.598   5.145   6.400 -0.0752 -0.0788  0.0453
72636SOL    HW135900  10.566   5.086   6.332  0.2754  2.9942 -3.0362
72636SOL    HW235901  10.693   5.138   6.396 -0.0045  1.0530 -0.7912
72637SOL     OW35902   2.484  10.969   4.639  0.3206  0.4087  0.6661
72637SOL    HW135903   2.523  10.987   4.724  2.1683  0.5025 -0.1591
72637SOL    HW235904   2.535  10.897   4.603 -1.4610 -0.7066  0.2834
72638SOL     OW35905   4.486  10.059  13.144  0.1304 -0.1939  0.3848
72638SOL    HW135906   4.508  10.051  13.237 -0.5005  0.5942  0.6078
72638SOL    HW235907   4.499   9.971  13.109 -0.6720 -0.7539  1.4439
72639SOL     OW35908  12.528   5.744   8.107 -0.0072  0.1018 -0.0146
72639SOL    HW135909  12.534   5.799   8.029 -0.1120 -2.0687 -1.6303
72639SOL    HW235910  12.436   5.716   8.110 -0.1573  0.6456  1.2735
72640SOL     OW35911   8.282   3.106   9.850  0.4296 -0.2645 -0.2675
72640SOL    HW135912   8.199   3.118   9.802 -0.9953  0.1707  2.1358
72640SOL    HW235913   8.297   3.012   9.849 -1.8562 -0.7553  1.8770
72641SOL     OW35914   3.799  11.317   2.539  0.7161 -0.1868 -0.1805
72641SOL    HW135915   3.706  11.295   2.530  0.9443 -1.1965 -0.2126
72641SOL    HW235916   3.822  11.290   2.628  1.2701 -1.1286 -0.5941
72642SOL     OW35917   2.192   0.941   4.766  0.0537 -0.3942  0.5401
72642SOL    HW135918   2.275   0.962   4.808 -0.6936  0.4344  1.6736
72642SOL    HW235919   2.135   0.913   4.837 -1.4570  1.7208  0.2817
72643SOL     OW35920  10.530   0.931   1.100 -0.5330 -0.1907  0.2185
72643SOL    HW135921  10.519   0.867   1.029  1.0871 -1.0093  0.6327
72643SOL    HW235922  10.524   0.879   1.180  2.5199 -0.2368  0.5394
72644SOL     OW35923  10.713  11.348  10.112  0.2787 -0.5675  0.7754
72644SOL    HW135924  10.692  11.310  10.027 -1.5679  2.7947 -0.4688
72644SOL    HW235925  10.803  11.380  10.103  0.3853 -0.9563  0.4143
72645SOL     OW35926   5.518   0.601  13.427 -0.0231  0.0447 -0.7637
72645SOL    HW135927   5.503   0.512  13.396 -2.7502  0.0923  0.1274
72645SOL    HW235928   5.557   0.590  13.514 -1.2895 -0.3387 -0.2245
72646SOL     OW35929   8.883  10.343   7.920 -0.1430 -0.8023 -0.0961
72646SOL    HW135930   8.821  10.329   7.992 -2.0108 -0.2980 -1.4976
72646SOL    HW235931   8.831  10.324   7.841  1.6916 -0.9005 -1.3260
72647SOL     OW35932   7.647   5.547   0.462 -0.5798 -0.2877  0.1480
72647SOL    HW135933   7.672   5.606   0.533 -0.7132 -0.0113 -0.0363
72647SOL    HW235934   7.661   5.459   0.499  1.7130 -0.1696 -0.3251
72648SOL     OW35935   3.413   6.107  10.741  0.0470  0.8021  0.2275
72648SOL    HW135936   3.411   6.189  10.692 -0.9608  0.9196  0.4489
72648SOL    HW235937   3.446   6.042  10.679 -0.4778  1.1020 -0.3691
72649SOL     OW35938   5.047  13.969   7.116  0.2522 -0.1462  0.0446
72649SOL    HW135939   5.111  14.001   7.053 -0.5359 -0.4293 -0.9348
72649SOL    HW235940   5.077  14.003   7.201  2.0627 -0.8436 -0.2705
72650SOL     OW35941   8.612  11.750   5.007  0.0047  0.6986  0.2706
72650SOL    HW135942   8.584  11.672   5.054 -3.6577 -0.2853 -2.9673
72650SOL    HW235943   8.579  11.823   5.059 -2.9812 -0.3043 -0.0404
72651SOL     OW35944   5.751   5.839  10.915  1.7118  0.2918  0.5216
72651SOL    HW135945   5.804   5.840  10.995 -0.6161  1.9141  2.1704
72651SOL    HW235946   5.709   5.925  10.912  0.4591 -0.3009 -1.6010
72652SOL     OW35947   9.489  12.127  12.634  0.2653  0.1254  0.1047
72652SOL    HW135948   9.399  12.094  12.630  0.3311  0.0463 -0.9821
72652SOL    HW235949   9.530  12.077  12.705 -0.0740 -1.0360 -0.4966
72653SOL     OW35950   4.713  13.363  12.792 -0.0963  0.3201 -0.2455
72653SOL    HW135951   4.760  13.408  12.722  0.5846 -1.5130 -1.0042
72653SOL    HW235952   4.781  13.335  12.853 -0.6276  1.3570  0.8848
72654SOL     OW35953  12.408   1.725   9.668 -0.0682 -0.6683 -0.1471
72654SOL    HW135954  12.314   1.742   9.674 -0.3342 -2.2287  0.6969
72654SOL    HW235955  12.439   1.733   9.759  0.6991  0.2279 -0.4779
72655SOL     OW35956  14.130   3.975   9.799  0.0009  0.2355 -0.7820
72655SOL    HW135957  14.115   3.892   9.843 -1.1843  0.6408 -0.3673
72655SOL    HW235958  14.206   4.012   9.843  1.5632 -1.3175 -2.0521
72656SOL     OW35959   2.407   1.070   1.373  0.1782  0.0085  0.2803
72656SOL    HW135960   2.388   1.162   1.354 -0.6590 -0.1927  0.0691
72656SOL    HW235961   2.457   1.039   1.297 -0.7666 -0.0654 -0.3435
72657SOL     OW35962   0.665   9.421   8.456  0.0005  0.4388  0.3380
72657SOL    HW135963   0.759   9.412   8.469 -0.1946 -2.9320  0.3951
72657SOL    HW235964   0.631   9.448   8.542  0.6947 -1.2060  1.1794
72658SOL     OW35965   8.126   5.407   7.431  0.0554 -0.2190  0.3412
72658SOL    HW135966   8.182   5.403   7.353 -0.2295 -0.2990  0.1407
72658SOL    HW235967   8.176   5.459   7.494  0.3496 -0.2789  0.1575
72659SOL     OW35968   5.297  10.043  10.889  0.3522  0.2947 -0.4922
72659SOL    HW135969   5.248   9.981  10.835  3.2989 -1.7491 -1.0416
72659SOL    HW235970   5.269  10.024  10.979 -1.3737  0.7136 -0.8996
72660SOL     OW35971   4.789  12.803   3.009 -0.1597  0.1254 -0.0930
72660SOL    HW135972   4.694  12.808   3.019 -0.0678  0.8410  0.4790
72660SOL    HW235973   4.804  12.816   2.916 -0.5563  1.1915 -0.0164
72661SOL     OW35974  13.178   9.967   6.272 -0.5569 -0.3220 -0.1055
72661SOL    HW135975  13.219   9.956   6.357 -2.2375  1.3160  1.0071
72661SOL    HW235976  13.211  10.052   6.240 -2.1778  0.5227  0.3443
72662SOL     OW35977   7.493   9.148   1.684  0.2496 -0.8679 -0.3199
72662SOL    HW135978   7.580   9.108   1.687  1.3624  1.4073 -0.5269
72662SOL    HW235979   7.499   9.214   1.615 -1.0775  0.5066  0.8101
72663SOL     OW35980  12.279   8.357   6.580 -0.2368  0.4669  0.7234
72663SOL    HW135981  12.249   8.443   6.548 -0.3656 -0.4645 -1.9050
72663SOL    HW235982  12.373   8.366   6.590 -0.3364  1.1046  1.1153
72664SOL     OW35983  12.661  14.127   5.810  0.0017 -0.6849 -0.5337
72664SOL    HW135984  12.646  14.221   5.822 -2.1243 -1.0570  0.1236
72664SOL    HW235985  12.740  14.110   5.860 -1.4775  0.2040  2.3530
72665SOL     OW35986   0.887   7.426   5.208 -0.3995 -0.1024 -0.4734
72665SOL    HW135987   0.846   7.503   5.247 -0.4757  0.3266 -1.3576
72665SOL    HW235988   0.814   7.375   5.174 -0.2600  1.0694 -2.7963
72666SOL     OW35989   2.804   8.592  12.395 -0.5865  0.3179 -0.2910
72666SOL    HW135990   2.863   8.658  12.430 -0.4611  0.2213 -0.3208
72666SOL    HW235991   2.736   8.643  12.350 -0.6788  0.4352 -0.0165
72667SOL     OW35992  11.043   5.559   3.584  0.3072 -0.4962  0.1826
72667SOL    HW135993  11.090   5.483   3.549  0.9942 -0.1557  0.3517
72667SOL    HW235994  11.043   5.545   3.678  0.2657 -0.3800  0.1995
72668SOL     OW35995   5.844   5.762   1.542  0.5409 -0.0602  0.3413
72668SOL    HW135996   5.874   5.838   1.593  0.6086  0.0323  0.1661
72668SOL    HW235997   5.889   5.771   1.458 -0.3980  0.3999 -0.1371
72669SOL     OW35998   1.918   4.470  10.486  0.2340  0.0977  0.0253
72669SOL    HW135999   1.879   4.556  10.474  0.3556 -0.0717 -2.0874
72669SOL    HW236000   2.012   4.486  10.494  0.5631  0.1208 -2.7767
72670SOL     OW36001   0.870  11.631   6.322 -0.0284 -0.3376  1.1462
72670SOL    HW136002   0.812  11.666   6.255  0.2956  1.1059  1.6020
72670SOL    HW236003   0.923  11.566   6.276 -0.5533 -0.1535  0.2599
72671SOL     OW36004  11.620  12.737   7.502  0.5429  0.7907 -0.6310
72671SOL    HW136005  11.627  12.832   7.494 -0.0565  0.9360  0.4272
72671SOL    HW236006  11.589  12.708   7.416  2.2663  1.3691 -1.4800
72672SOL     OW36007   7.231   5.925   4.794  0.2586  0.0902  1.1829
72672SOL    HW136008   7.213   5.949   4.704  1.4684 -1.5625  0.4499
72672SOL    HW236009   7.145   5.907   4.832 -0.2078  0.0882  0.1468
72673SOL     OW36010   6.265   8.861  10.542  0.0967 -0.1052 -0.2331
72673SOL    HW136011   6.199   8.794  10.524 -0.4913 -0.0189  1.4258
72673SOL    HW236012   6.283   8.853  10.636  0.6803  1.4588 -0.1739
72674SOL     OW36013   9.881   5.277  10.843 -0.0368 -0.0898  0.4133
72674SOL    HW136014   9.853   5.365  10.819 -1.3512 -0.3415  0.9850
72674SOL    HW236015   9.817   5.219  10.802 -1.0102 -0.6286  2.5573
72675SOL     OW36016   4.347   6.886   0.273 -0.5476 -0.0200 -0.3158
72675SOL    HW136017   4.261   6.901   0.313 -0.4119 -0.9621  0.3818
72675SOL    HW236018   4.334   6.810   0.217  0.2469 -1.4793  1.3595
72676SOL     OW36019  10.848  13.580   4.152  0.3605  0.2973 -0.1749
72676SOL    HW136020  10.815  13.510   4.095  0.7418 -1.0771  1.2257
72676SOL    HW236021  10.860  13.655   4.093  0.4304 -0.9577 -1.8422
72677SOL     OW36022   2.054   9.211  13.506  0.5540 -0.6026 -0.4306
72677SOL    HW136023   2.036   9.184  13.416  1.5067 -0.9895 -0.5142
72677SOL    HW236024   2.117   9.283  13.497  0.6590 -0.6506 -0.0803
72678SOL     OW36025  11.695  13.824  11.778 -0.3132  0.2643  0.1428
72678SOL    HW136026  11.742  13.880  11.716  0.9604 -0.7213  0.1748
72678SOL    HW236027  11.764  13.771  11.819 -1.4816 -1.5185 -0.0953
72679SOL     OW36028   0.612   4.695  13.730 -0.1242 -0.6736  0.1588
72679SOL    HW136029   0.649   4.608  13.715 -1.7678 -1.4294  0.3200
72679SOL    HW236030   0.521   4.687  13.704  0.2630  1.7314 -2.3942
72680SOL     OW36031   8.029  10.863   0.129 -0.0221  0.3719 -0.1082
72680SOL    HW136032   7.974  10.847   0.207  2.0466  1.9591  1.8028
72680SOL    HW236033   7.991  10.941   0.089 -0.4574  0.1830 -0.0702
72681SOL     OW36034   2.789   6.328   3.757  0.3104  0.2309 -0.3258
72681SOL    HW136035   2.843   6.376   3.820 -0.0352  0.0692  0.0999
72681SOL    HW236036   2.828   6.241   3.753 -0.2024 -0.0425  0.3597
72682SOL     OW36037   0.223   1.183   8.020  0.2293  0.5635  0.3878
72682SOL    HW136038   0.298   1.126   8.041  0.5102  0.9304  0.3936
72682SOL    HW236039   0.226   1.192   7.925  0.6084  1.1431  0.4546
72683SOL     OW36040  13.169   4.081   9.555 -0.4473  0.3437 -0.0213
72683SOL    HW136041  13.188   4.172   9.531 -0.8381  0.3394 -0.3661
72683SOL    HW236042  13.228   4.062   9.627 -0.1706  0.7869 -0.1284
72684SOL     OW36043  11.927   9.953   1.667 -0.5515  0.1296 -0.0165
72684SOL    HW136044  11.984  10.007   1.613  0.3759 -1.1288 -0.3271
72684SOL    HW236045  11.941   9.985   1.756 -0.4848  0.8003 -0.2585
72685SOL     OW36046  11.868  13.860   3.090 -0.2629  0.2431 -0.6681
72685SOL    HW136047  11.944  13.834   3.038  0.4849 -0.4854  0.7258
72685SOL    HW236048  11.886  13.950   3.115  0.3826 -0.0655  0.0224
72686SOL     OW36049   8.495  12.701  12.188  0.5903 -0.0120  0.0274
72686SOL    HW136050   8.430  12.772  12.195  1.7737  1.2874 -1.4716
72686SOL    HW236051   8.562  12.725  12.252  0.4127 -0.4657  0.3913
72687SOL     OW36052  13.801  10.369   6.330  0.1225 -0.2684 -0.5530
72687SOL    HW136053  13.779  10.278   6.309  0.7213 -0.5217 -0.1030
72687SOL    HW236054  13.854  10.363   6.409 -2.0123  0.6568  1.0446
72688SOL     OW36055   8.699   1.291  11.417  0.3778 -0.5185  0.7438
72688SOL    HW136056   8.622   1.322  11.465  1.6622  2.2509  1.2589
72688SOL    HW236057   8.773   1.326  11.466  1.8235  1.1778 -2.3010
72689SOL     OW36058   6.710   5.309   7.412 -0.4389  0.2963 -0.1271
72689SOL    HW136059   6.720   5.356   7.495  2.7456 -0.0884 -0.1928
72689SOL    HW236060   6.702   5.378   7.346  0.8943  0.7061  0.1203
72690SOL     OW36061  11.865   1.103   9.230  0.3547  0.0246  0.6288
72690SOL    HW136062  11.831   1.159   9.300  0.4840 -0.6885  1.2852
72690SOL    HW236063  11.893   1.023   9.275  1.5735  0.0293 -0.0886
72691SOL     OW36064   4.929   0.774   7.407 -0.2723 -0.2392  0.1062
72691SOL    HW136065   4.955   0.684   7.425 -0.5055 -0.3220  0.0225
72691SOL    HW236066   4.874   0.799   7.482 -1.4451 -0.6658 -0.5890
72692SOL     OW36067  12.117   9.326  10.743  0.1908 -0.2850  0.4454
72692SOL    HW136068  12.069   9.289  10.669 -0.4180  0.7901  0.2817
72692SOL    HW236069  12.081   9.414  10.754  1.2696  0.1024  1.1059
72693SOL     OW36070   4.305   9.804  12.472 -0.2251  0.1179  0.2669
72693SOL    HW136071   4.357   9.742  12.523  0.3885  0.2035 -0.2458
72693SOL    HW236072   4.364   9.878  12.457 -1.1584  1.1245  1.4367
72694SOL     OW36073   8.146   7.808   1.011  0.5009 -0.6662 -0.1395
72694SOL    HW136074   8.238   7.830   0.995  0.6340 -0.6107  0.6515
72694SOL    HW236075   8.105   7.891   1.035  0.4790 -0.8595  0.5232
72695SOL     OW36076   2.063   2.743  14.119  0.2603 -0.1577  0.7631
72695SOL    HW136077   2.075   2.746  14.024 -1.1535 -1.9973  0.4597
72695SOL    HW236078   2.113   2.817  14.152  2.7916 -0.8471 -1.1899
72696SOL     OW36079   5.220  12.863   9.796  0.1752  0.1539 -0.3353
72696SOL    HW136080   5.207  12.785   9.743 -3.4371  1.0454 -1.0185
72696SOL    HW236081   5.259  12.927   9.735  1.0923 -0.4131 -0.3639
72697SOL     OW36082   9.948   6.380   7.637 -0.4394 -0.3119 -0.3031
72697SOL    HW136083  10.043   6.380   7.624 -0.1570 -1.4443  1.5474
72697SOL    HW236084   9.925   6.473   7.642  0.7622 -0.0298  0.3973
72698SOL     OW36085   4.197   8.358   7.563 -0.4814  0.0871  0.1191
72698SOL    HW136086   4.287   8.384   7.580 -0.3140 -0.8619  0.7925
72698SOL    HW236087   4.200   8.314   7.478 -0.3648  0.3312 -0.0013
72699SOL     OW36088   6.123   6.641   2.784 -0.4023  0.1282  0.3626
72699SOL    HW136089   6.121   6.566   2.844 -0.7739 -0.7934 -0.7728
72699SOL    HW236090   6.031   6.660   2.766 -0.3523  1.3640  1.2034
72700SOL     OW36091   5.213  13.769   6.739  0.1817 -0.4151  0.1119
72700SOL    HW136092   5.146  13.768   6.807 -1.1304  0.5544 -1.1103
72700SOL    HW236093   5.289  13.726   6.779 -1.3676 -2.1500  1.3128
72701SOL     OW36094   3.762   6.478  12.247 -0.0733  0.5009  0.5778
72701SOL    HW136095   3.802   6.420  12.182 -0.5809 -0.9275  1.4769
72701SOL    HW236096   3.668   6.459  12.242 -0.4547  2.4094 -0.1792
72702SOL     OW36097   9.571  11.125   1.939  0.3102 -0.3530  0.4229
72702SOL    HW136098   9.665  11.138   1.955  0.3425 -0.5731  0.4215
72702SOL    HW236099   9.565  11.104   1.846  0.0697  1.3985  0.0210
72703SOL     OW36100  10.027  11.890  11.917  0.1527 -0.0374  0.5067
72703SOL    HW136101  10.104  11.938  11.946  0.8447 -1.3873  1.0428
72703SOL    HW236102  10.038  11.880  11.823  1.1473 -1.0239  0.7013
72704SOL     OW36103   0.275   3.344   2.472  0.0814 -0.3364  0.0106
72704SOL    HW136104   0.323   3.374   2.395  0.4319  0.5374  0.5498
72704SOL    HW236105   0.192   3.393   2.470  0.3621  0.1786  0.5213
72705SOL     OW36106   1.349   0.229   4.581  0.2561  0.3457  0.3184
72705SOL    HW136107   1.298   0.157   4.543  2.0308  0.0910 -1.7648
72705SOL    HW236108   1.390   0.271   4.505  1.7939  1.5716  1.7717
72706SOL     OW36109  11.224   1.489   7.370  0.1340 -0.1486 -0.2773
72706SOL    HW136110  11.213   1.534   7.454 -0.5247 -0.6340 -0.0990
72706SOL    HW236111  11.183   1.403   7.383  0.1417 -0.2779 -1.0580
72707SOL     OW36112  12.458   4.451   5.028  0.2926  0.3338 -0.2401
72707SOL    HW136113  12.366   4.471   5.042  0.2224 -0.9607  1.4658
72707SOL    HW236114  12.461   4.409   4.942 -0.7303  0.2420 -0.2405
72708SOL     OW36115   4.576   8.975  11.507 -0.7758  0.2344 -0.5731
72708SOL    HW136116   4.527   9.050  11.540 -1.1202 -0.4289  0.4716
72708SOL    HW236117   4.629   9.010  11.435 -1.5219  1.3033 -0.6136
72709SOL     OW36118  13.160   5.340   8.953  0.0768 -0.3764  0.0441
72709SOL    HW136119  13.102   5.371   8.883  1.2645  1.9689  0.0121
72709SOL    HW236120  13.235   5.301   8.907  0.0310 -0.4829  0.0583
72710SOL     OW36121   8.351   7.043   0.061  0.7663  0.0095 -0.0936
72710SOL    HW136122   8.396   7.055  -0.022  2.2841  0.7236  0.7989
72710SOL    HW236123   8.309   7.127   0.078  0.0578 -0.2819 -0.3382
72711SOL     OW36124  11.347   5.595   1.339  0.0581 -0.4773 -0.4718
72711SOL    HW136125  11.382   5.651   1.409  0.9872 -0.5360 -0.8664
72711SOL    HW236126  11.324   5.513   1.383  0.5298 -0.4728 -0.2035
72712SOL     OW36127  11.707   9.070   4.330 -0.1502  0.2312 -0.2688
72712SOL    HW136128  11.650   9.066   4.406 -2.2936  2.0465 -1.6514
72712SOL    HW236129  11.689   9.155   4.291  2.3440  0.1856 -1.7334
72713SOL     OW36130  13.758  12.198   8.573  0.1765 -0.3947 -0.3801
72713SOL    HW136131  13.711  12.133   8.519  0.3400 -2.6246  1.9653
72713SOL    HW236132  13.849  12.193   8.543  0.0853 -0.8099 -0.5948
72714SOL     OW36133   2.158   2.455   7.800 -0.1436 -0.2774 -0.0510
72714SOL    HW136134   2.230   2.468   7.739 -0.2675 -2.9375 -0.8547
72714SOL    HW236135   2.141   2.361   7.798 -2.1727 -0.0227  1.8085
72715SOL     OW36136   9.712   9.516   9.344  0.2850 -0.1132  0.4189
72715SOL    HW136137   9.675   9.442   9.297 -0.7345  0.9612 -0.5341
72715SOL    HW236138   9.801   9.525   9.309  0.1674 -0.4489  0.0380
72716SOL     OW36139   7.955   8.142   0.030 -0.2372  0.1542  0.0374
72716SOL    HW136140   7.893   8.139  -0.042  2.1458  0.3802 -2.1429
72716SOL    HW236141   7.937   8.062   0.080 -1.2106 -0.6107 -1.4615
72717SOL     OW36142  11.776  13.835   8.909  0.1627 -0.0335 -0.2070
72717SOL    HW136143  11.770  13.868   8.819  0.0837 -1.5307 -0.7887
72717SOL    HW236144  11.869  13.822   8.923  0.1722  0.1616 -0.0888
72718SOL     OW36145   3.755   9.621   5.710 -0.2703 -0.1650 -0.3449
72718SOL    HW136146   3.685   9.631   5.774 -2.6243  0.9495 -2.9189
72718SOL    HW236147   3.750   9.530   5.681 -1.2616  0.1187 -1.1112
72719SOL     OW36148   0.911   4.858   1.732  0.0976  0.7125 -0.2010
72719SOL    HW136149   0.840   4.796   1.716 -1.3545  1.7052  1.8468
72719SOL    HW236150   0.987   4.802   1.749  0.0536 -0.3726 -3.0057
72720SOL     OW36151   8.086   5.417   9.245  0.4416 -0.0384 -0.1800
72720SOL    HW136152   8.047   5.490   9.293  0.2103  0.2666 -0.8177
72720SOL    HW236153   8.180   5.424   9.263  0.2489 -0.6938  1.2479
72721SOL     OW36154   8.451   4.648   4.841  0.1048  0.0691 -0.5983
72721SOL    HW136155   8.478   4.724   4.892  3.1577 -0.9742 -0.4975
72721SOL    HW236156   8.355   4.651   4.843  0.0922  1.5813  2.8550
72722SOL     OW36157  12.638   6.706   6.526 -0.0310 -0.1217  0.0718
72722SOL    HW136158  12.678   6.790   6.549  1.0025 -0.9101  1.3081
72722SOL    HW236159  12.670   6.688   6.437 -1.9755  1.7412 -1.1050
72723SOL     OW36160   1.941   7.039   7.826 -0.6984  0.3072  0.1601
72723SOL    HW136161   1.988   7.033   7.909  0.4958  1.8967 -0.3385
72723SOL    HW236162   2.010   7.055   7.761 -1.6469 -0.4228 -1.0796
72724SOL     OW36163   3.139   2.940  10.543  0.0084 -0.4384  0.6769
72724SOL    HW136164   3.093   2.882  10.481  1.5467 -1.7061  0.6520
72724SOL    HW236165   3.071   2.998  10.576 -1.1028 -0.5309 -1.2803
72725SOL     OW36166   1.117   4.337   0.826 -0.1739  0.3282 -0.5545
72725SOL    HW136167   1.175   4.373   0.759  1.4679  0.0118  0.6467
72725SOL    HW236168   1.080   4.259   0.786 -0.4885  1.0138 -1.6562
72726SOL     OW36169   1.912   4.091   9.556  0.3597  0.7005 -0.3297
72726SOL    HW136170   1.823   4.056   9.554  0.4691  0.2788  1.1078
72726SOL    HW236171   1.965   4.023   9.515  0.1005  0.7049 -0.6760
72727SOL     OW36172   8.227  10.530   4.936  0.2776 -0.0778  0.0132
72727SOL    HW136173   8.320  10.546   4.956  0.3532 -0.2321 -0.2097
72727SOL    HW236174   8.196  10.613   4.900  0.2978  0.0145  0.2084
72728SOL     OW36175   8.695   5.921   4.562  0.5723  0.4766  0.1773
72728SOL    HW136176   8.625   5.921   4.497  2.1462  2.3311 -1.6577
72728SOL    HW236177   8.722   5.829   4.568 -0.5304  0.0690 -0.7491
72729SOL     OW36178   8.043   7.421   5.243  0.2283 -0.2093  0.0866
72729SOL    HW136179   8.119   7.470   5.275 -0.1208  0.1904  0.3086
72729SOL    HW236180   7.968   7.479   5.259 -0.0416 -0.3165 -0.7678
72730SOL     OW36181  11.194   6.643  12.016 -0.3134 -0.7420  0.0271
72730SOL    HW136182  11.100   6.644  12.032 -0.0183 -1.7081  2.1891
72730SOL    HW236183  11.231   6.703  12.080  0.6020 -0.9778 -0.2551
72731SOL     OW36184   1.085   6.113  10.326  0.2445  0.3661 -0.3989
72731SOL    HW136185   1.089   6.022  10.357  0.8170  0.6760  0.4788
72731SOL    HW236186   1.058   6.106  10.235 -0.7110 -0.6339 -0.0582
72732SOL     OW36187   8.575   5.864   5.909 -0.1283  0.4294  1.0424
72732SOL    HW136188   8.644   5.925   5.885  0.8729  0.2317  3.1710
72732SOL    HW236189   8.621   5.786   5.942 -1.2263  0.8067  3.8287
72733SOL     OW36190  10.749  11.902   3.358  0.0394  0.3864 -0.4219
72733SOL    HW136191  10.822  11.945   3.403  0.3259 -0.5729  0.0489
72733SOL    HW236192  10.785  11.817   3.330 -0.8212  0.0079 -0.4020
72734SOL     OW36193   9.070   9.966   5.172  0.1789 -0.1191  0.4163
72734SOL    HW136194   8.999   9.902   5.174  0.8766 -0.8883  0.9983
72734SOL    HW236195   9.148   9.914   5.150  0.7146  0.5608  0.6857
72735SOL     OW36196   9.427  11.410   4.904  0.3118  0.6437 -0.9662
72735SOL    HW136197   9.458  11.323   4.879 -0.8879  0.2362 -1.1181
72735SOL    HW236198   9.333  11.399   4.916  0.4467  1.3871  1.3172
72736SOL     OW36199   8.292   1.101   9.546  0.4992  0.0553 -0.1662
72736SOL    HW136200   8.291   1.135   9.456 -0.3481 -0.4885 -0.3752
72736SOL    HW236201   8.367   1.042   9.549  1.1594  0.8825 -0.2049
72737SOL     OW36202  10.710  13.317   5.452  0.5144 -0.5373  0.7914
72737SOL    HW136203  10.673  13.237   5.489 -0.3306  0.1296  1.4689
72737SOL    HW236204  10.737  13.368   5.529  1.1385 -0.2097  0.3674
72738SOL     OW36205  11.322   1.836  10.614 -0.2115  0.4883 -0.3399
72738SOL    HW136206  11.277   1.858  10.532  1.3830 -0.8884 -1.6419
72738SOL    HW236207  11.254   1.796  10.668 -1.2703  1.3191 -1.0065
72739SOL     OW36208   8.138  14.029   6.391  0.0846  0.6321  0.0859
72739SOL    HW136209   8.163  13.944   6.354 -1.5445 -0.6762  1.7849
72739SOL    HW236210   8.096  14.075   6.318  0.2337 -0.3538 -0.6528
72740SOL     OW36211   0.125  12.364  13.897  0.4746  0.4037  0.2815
72740SOL    HW136212   0.139  12.444  13.847  1.1212 -0.0588 -0.3006
72740SOL    HW236213   0.031  12.347  13.888  0.4686  0.6762 -0.2506
72741SOL     OW36214   2.892   3.472   0.411 -0.1980  0.0711  0.1401
72741SOL    HW136215   2.900   3.409   0.483  1.1859 -0.0541 -0.0987
72741SOL    HW236216   2.982   3.487   0.382 -0.7852 -1.6559 -3.0885
72742SOL     OW36217   9.627   8.866   0.281  0.5258 -0.0146 -0.1248
72742SOL    HW136218   9.537   8.887   0.256  0.0694  0.9752  2.0780
72742SOL    HW236219   9.637   8.773   0.262 -1.3627 -0.4120  0.6915
72743SOL     OW36220   3.642   4.303  12.022 -0.6834 -0.2981  0.0910
72743SOL    HW136221   3.655   4.359  11.946  0.7346  2.8140  2.3977
72743SOL    HW236222   3.548   4.289  12.026 -1.0245  1.4453 -0.9613
72744SOL     OW36223   1.853  11.674   8.297  0.0463  0.1931  0.5139
72744SOL    HW136224   1.811  11.758   8.318  0.3196  0.1887  1.0906
72744SOL    HW236225   1.798  11.608   8.339 -1.4039 -0.1251 -1.7097
72745SOL     OW36226  11.523   1.988   1.221 -0.2736 -0.2981 -0.2787
72745SOL    HW136227  11.601   1.954   1.264  0.1945  1.3774  0.2463
72745SOL    HW236228  11.456   1.921   1.238  0.7582 -1.2641  0.1464
72746SOL     OW36229   1.460  12.365   0.874  0.0434 -0.2692  0.2411
72746SOL    HW136230   1.460  12.362   0.969 -0.7279 -1.6317  0.2144
72746SOL    HW236231   1.487  12.455   0.853 -1.1608  0.4886  1.7440
72747SOL     OW36232   5.506   8.203  12.146 -0.0661  0.0944 -0.0387
72747SOL    HW136233   5.429   8.153  12.120  0.6238 -1.9498  1.6207
72747SOL    HW236234   5.484   8.240  12.231  1.0884 -1.4442  0.9993
72748SOL     OW36235   1.759  10.082   3.965 -0.1960 -0.1953  0.4370
72748SOL    HW136236   1.743  10.057   4.056  0.8879 -1.6924  0.2563
72748SOL    HW236237   1.756  10.178   3.965 -0.5047 -0.1846  1.9802
72749SOL     OW36238  10.792   1.833   5.669  0.3144 -0.1257  0.6076
72749SOL    HW136239  10.758   1.921   5.652 -0.7793 -0.5020  0.7222
72749SOL    HW236240  10.841   1.810   5.590 -1.0512 -0.1569 -0.2779
72750SOL     OW36241  12.640   4.174  12.817 -0.7448 -0.2411 -0.0055
72750SOL    HW136242  12.702   4.135  12.755  1.1187  0.8702  1.0780
72750SOL    HW236243  12.627   4.263  12.786 -0.8632 -0.1030  0.4277
72751SOL     OW36244   7.219   7.127   8.674 -0.2037 -0.4194  0.2282
72751SOL    HW136245   7.201   7.167   8.759 -0.1913 -0.3510  0.1983
72751SOL    HW236246   7.196   7.194   8.610  1.2333  0.0789  0.2101
72752SOL     OW36247   8.173   5.906   9.911  0.8371 -0.2708 -0.5129
72752SOL    HW136248   8.183   5.840   9.979  1.1543 -0.5247 -0.8004
72752SOL    HW236249   8.189   5.859   9.829 -0.5792 -0.1954 -0.8479
72753SOL     OW36250  10.124   2.776  13.849  0.6858  0.0345 -0.1281
72753SOL    HW136251  10.135   2.871  13.854  3.9924 -0.2743  1.1402
72753SOL    HW236252  10.123   2.756  13.756  0.8246  1.2473 -0.3981
72754SOL     OW36253   0.072  10.803  10.591 -0.5001 -0.7896  0.5556
72754SOL    HW136254   0.053  10.714  10.560  0.9777 -1.0508  0.3298
72754SOL    HW236255  -0.013  10.836  10.622 -1.2149 -2.0069 -0.0139
72755SOL     OW36256  10.892   5.646   1.736 -0.4516 -0.1594 -0.7603
72755SOL    HW136257  10.957   5.694   1.787 -0.8891 -0.1646 -0.1832
72755SOL    HW236258  10.899   5.683   1.648 -1.7205  1.9962 -0.0392
72756SOL     OW36259   6.809  12.220   2.235  0.5177 -0.4211  0.0355
72756SOL    HW136260   6.807  12.221   2.331  0.9224 -2.8863  0.1386
72756SOL    HW236261   6.718  12.209   2.208  0.3726  0.5473  0.1125
72757SOL     OW36262   4.013   2.813   0.180  0.7122 -0.0368  0.5198
72757SOL    HW136263   3.984   2.892   0.227  0.2398 -0.1323  0.3920
72757SOL    HW236264   4.011   2.839   0.087 -2.1739 -1.0153  0.2114
72758SOL     OW36265   5.203   4.830  10.907  0.4244 -0.3139  0.5379
72758SOL    HW136266   5.286   4.821  10.954  1.6763  0.4852 -1.4014
72758SOL    HW236267   5.180   4.740  10.881  1.3530 -0.4056  0.0067
72759SOL     OW36268  12.156   6.810   7.318  0.3301 -0.0411  0.2333
72759SOL    HW136269  12.184   6.743   7.381 -0.3592 -0.3472  0.2236
72759SOL    HW236270  12.060   6.804   7.318  0.3248 -0.2828 -1.0999
72760SOL     OW36271  12.187   9.756  13.156 -0.4416  0.1593 -0.0807
72760SOL    HW136272  12.146   9.776  13.240 -0.9972  0.9210 -0.5190
72760SOL    HW236273  12.240   9.678  13.173  0.4804  1.0435  1.2893
72761SOL     OW36274  14.137   9.646  11.445 -0.0291  0.1175  0.5914
72761SOL    HW136275  14.105   9.735  11.432 -1.7691 -0.6082 -0.4869
72761SOL    HW236276  14.225   9.657  11.482 -0.9207  2.2475  2.3099
72762SOL     OW36277   3.173  11.863   7.123  0.2000 -0.7448  0.3992
72762SOL    HW136278   3.165  11.813   7.042  0.2293  0.0479 -0.1072
72762SOL    HW236279   3.101  11.832   7.178 -0.2416 -0.7976 -0.2001
72763SOL     OW36280  11.349  13.986   2.830  0.0606  0.1436 -0.4034
72763SOL    HW136281  11.376  13.947   2.913 -0.2085  0.7944 -0.0022
72763SOL    HW236282  11.257  14.009   2.844  0.6639  2.5154 -0.0105
72764SOL     OW36283   1.180  14.034   5.032  0.7147 -0.1978  0.5150
72764SOL    HW136284   1.147  13.965   5.090 -0.8372  0.1292  0.0721
72764SOL    HW236285   1.112  14.101   5.033  0.5188 -0.2721 -1.8205
72765SOL     OW36286   3.383   9.046  13.000  0.0248 -0.5514 -0.5023
72765SOL    HW136287   3.380   8.950  13.003 -1.8835 -0.6004 -2.0607
72765SOL    HW236288   3.291   9.073  12.995  0.0798  1.6440  4.2175
72766SOL     OW36289   3.956   1.097   8.593  0.0127  0.2287 -0.1499
72766SOL    HW136290   4.026   1.110   8.657  0.1105  0.5979 -0.3280
72766SOL    HW236291   3.911   1.018   8.622  0.0789  0.3736  0.3514
72767SOL     OW36292   5.464   1.915  14.029 -0.2727 -0.2718 -0.5682
72767SOL    HW136293   5.446   1.826  14.059  1.7496 -0.6949 -0.4714
72767SOL    HW236294   5.410   1.970  14.085 -0.0530 -1.3251  0.7505
72768SOL     OW36295  12.365   1.232   5.063  0.1056  0.3704 -0.5190
72768SOL    HW136296  12.401   1.148   5.035  0.0283  0.2006 -0.1138
72768SOL    HW236297  12.425   1.263   5.131 -0.3463  0.2262 -0.0509
72769SOL     OW36298   8.187   3.249  12.272 -0.2203  0.2877  0.0087
72769SOL    HW136299   8.123   3.179  12.284 -0.2519  0.3439  0.1695
72769SOL    HW236300   8.268   3.214  12.306 -0.6278  0.9743  1.8044
72770SOL     OW36301  14.133   6.091   9.816  0.0145  0.5403  0.0339
72770SOL    HW136302  14.105   6.142   9.891 -2.4477  0.1814 -0.5689
72770SOL    HW236303  14.221   6.060   9.840 -1.0043 -0.2749  3.1386
72771SOL     OW36304   8.549  10.116  13.943  0.1997  0.3426 -0.1370
72771SOL    HW136305   8.587  10.077  13.864 -1.0761 -0.9909 -0.1450
72771SOL    HW236306   8.597  10.076  14.015 -0.0413 -0.0263 -0.1833
72772SOL     OW36307   7.826   1.308  13.427  0.2614 -0.4559 -0.3154
72772SOL    HW136308   7.783   1.261  13.356 -0.4120  0.5484 -0.6012
72772SOL    HW236309   7.754   1.356  13.470  0.8239 -0.2027  0.3596
72773SOL     OW36310  13.386  12.388   9.161  0.1017 -0.3581  0.0796
72773SOL    HW136311  13.301  12.373   9.120  0.0310 -0.3008  0.2053
72773SOL    HW236312  13.442  12.418   9.090 -1.0752  3.9391  0.7041
72774SOL     OW36313   0.980  12.985  11.598  0.6208 -0.0106 -0.2028
72774SOL    HW136314   1.053  12.973  11.537  1.7195 -1.5681  1.3453
72774SOL    HW236315   1.002  13.065  11.646  0.8213  0.0320 -0.3623
72775SOL     OW36316   7.466  13.071   9.793  0.2072  0.2138  0.6508
72775SOL    HW136317   7.400  13.088   9.726  1.2322  1.5928 -0.0677
72775SOL    HW236318   7.426  13.006   9.851 -0.5674 -1.3240 -1.4922
72776SOL     OW36319   5.709   3.647  11.171 -0.3450 -0.5326 -0.1447
72776SOL    HW136320   5.708   3.711  11.242  0.3946  3.1820 -3.1460
72776SOL    HW236321   5.801   3.644  11.143 -0.6355 -1.7877 -1.0494
72777SOL     OW36322  11.539   8.759   9.975  0.1495  0.5625 -0.3253
72777SOL    HW136323  11.593   8.682   9.959 -1.1139 -0.8218  1.5548
72777SOL    HW236324  11.449   8.726   9.972 -0.3893  1.6487  1.7224
72778SOL     OW36325   7.633   0.477   8.329  0.5194  0.6166 -0.4064
72778SOL    HW136326   7.701   0.413   8.311  1.1283  1.2248 -0.3126
72778SOL    HW236327   7.670   0.560   8.299  0.0330  1.0373  0.1405
72779SOL     OW36328   2.555   4.859   3.526  0.3067  0.6800  0.1088
72779SOL    HW136329   2.643   4.859   3.564  0.5306  0.1558 -0.3892
72779SOL    HW236330   2.561   4.919   3.451  0.1320  0.9424  0.3019
72780SOL     OW36331   8.310  13.440   7.943 -0.1657  0.3336 -0.9163
72780SOL    HW136332   8.328  13.441   7.849  0.7635  1.9553 -0.7547
72780SOL    HW236333   8.231  13.387   7.951 -0.4154  0.3679 -2.6308
72781SOL     OW36334  10.109   6.725  11.572  0.3940  0.2043 -0.2695
72781SOL    HW136335  10.111   6.725  11.477  0.0641  0.1327 -0.2787
72781SOL    HW236336  10.093   6.817  11.595  0.5858  0.2404 -0.2784
72782SOL     OW36337   1.229   0.045   5.697 -0.0641  0.3822  0.0678
72782SOL    HW136338   1.273   0.026   5.614 -1.4305 -4.0119  0.0678
72782SOL    HW236339   1.208   0.138   5.692  0.3751  0.4836 -4.2781
72783SOL     OW36340  11.991   2.632   2.486  0.2703 -0.2624 -0.4035
72783SOL    HW136341  12.063   2.695   2.487  0.1707 -0.0485 -2.5249
72783SOL    HW236342  11.996   2.592   2.399 -1.8412 -0.6406 -0.3905
72784SOL     OW36343  10.610   7.501   0.816 -0.1139  0.5678  0.3900
72784SOL    HW136344  10.699   7.519   0.787 -0.4974  1.3662 -0.3561
72784SOL    HW236345  10.613   7.513   0.911  0.9346 -1.0788  0.6064
72785SOL     OW36346   0.405   2.047   8.207  0.5347  0.4052 -0.3343
72785SOL    HW136347   0.340   2.086   8.266  1.2203 -0.7911  1.3257
72785SOL    HW236348   0.355   1.985   8.154 -0.4122  2.7970 -2.4068
72786SOL     OW36349   0.415   3.960   7.342  0.5498  0.0271  0.2797
72786SOL    HW136350   0.411   4.049   7.376  0.9029  0.3620 -0.5237
72786SOL    HW236351   0.345   3.914   7.388  0.7563  0.5608  1.1426
72787SOL     OW36352  10.519  11.476   8.526 -0.3906  0.2626  0.0859
72787SOL    HW136353  10.549  11.494   8.616  0.8855 -0.9042 -0.0764
72787SOL    HW236354  10.579  11.526   8.470 -0.7510  0.4328 -0.1538
72788SOL     OW36355   6.299  10.736   7.500  0.0444  0.0295  0.1065
72788SOL    HW136356   6.230  10.788   7.540  0.9639  1.5460 -0.1982
72788SOL    HW236357   6.365  10.800   7.474  0.4176 -1.1052 -1.9590
72789SOL     OW36358  13.422   3.031   0.725 -0.6154  0.5139  0.2093
72789SOL    HW136359  13.333   3.007   0.700 -0.1375 -2.9548  1.3424
72789SOL    HW236360  13.410   3.096   0.795 -2.1536  1.4251 -0.8374
72790SOL     OW36361   8.374  13.348   6.946  0.1966  0.3213  0.5735
72790SOL    HW136362   8.452  13.315   6.901  0.2901 -0.0934  1.0313
72790SOL    HW236363   8.407  13.415   7.005  0.2314  0.0582  0.8593
72791SOL     OW36364   5.189   7.251  13.528  0.8009 -0.4056  0.0650
72791SOL    HW136365   5.136   7.283  13.600 -2.8234 -0.7361 -2.1797
72791SOL    HW236366   5.175   7.314  13.457  0.3608 -2.4099 -1.7540
72792SOL     OW36367   5.430  12.996   7.382  0.0280 -0.4178 -0.0566
72792SOL    HW136368   5.470  12.967   7.464 -0.2335  1.7179  0.9101
72792SOL    HW236369   5.340  12.964   7.386 -0.0914 -0.0206  0.7011
72793SOL     OW36370   8.962   9.177  12.497  0.1835  0.1012 -0.2333
72793SOL    HW136371   9.021   9.110  12.530  0.4663  0.5629  0.2144
72793SOL    HW236372   8.900   9.130  12.442 -0.4857 -0.7252  1.1869
72794SOL     OW36373  10.645   4.472  13.618  0.1438  0.2691  0.0038
72794SOL    HW136374  10.559   4.511  13.602 -0.1285 -1.0092 -1.9213
72794SOL    HW236375  10.626   4.395  13.671  0.1629  0.2254 -0.0540
72795SOL     OW36376   1.700  10.541   6.301  0.2025 -0.2655  0.0979
72795SOL    HW136377   1.758  10.529   6.376  1.4510  0.0894 -0.7830
72795SOL    HW236378   1.676  10.452   6.275 -3.0591 -0.4384  2.9352
72796SOL     OW36379   4.140  12.757   0.847 -0.3538  0.0666 -0.1994
72796SOL    HW136380   4.205  12.758   0.917 -0.4256 -0.2144 -0.1297
72796SOL    HW236381   4.074  12.821   0.873 -1.1125 -1.0300  0.6779
72797SOL     OW36382   8.543   8.809   2.571  0.3591  0.3994  0.5378
72797SOL    HW136383   8.449   8.802   2.583  0.0740 -0.3189 -1.6736
72797SOL    HW236384   8.571   8.872   2.638 -1.7482  1.0117  0.9163
72798SOL     OW36385   5.859   5.114   5.930 -0.0208 -0.3231 -0.1863
72798SOL    HW136386   5.898   5.199   5.950  0.7356 -0.4357 -1.1446
72798SOL    HW236387   5.791   5.133   5.866  1.5722 -0.6519 -2.0659
72799SOL     OW36388   1.721   8.774   5.185 -0.7722  0.4301  0.1543
72799SOL    HW136389   1.778   8.737   5.117  0.9456 -0.2220  1.8804
72799SOL    HW236390   1.640   8.724   5.177  1.2442 -3.6632  2.0386
72800SOL     OW36391   6.533  11.759   2.219  0.2176  0.3992  0.5683
72800SOL    HW136392   6.610  11.815   2.225  1.1888 -0.7229 -0.7791
72800SOL    HW236393   6.493  11.782   2.135 -0.1971  0.0804  0.6750
72801SOL     OW36394  13.809   8.895   6.346 -0.5926 -0.1747 -0.1052
72801SOL    HW136395  13.763   8.967   6.388 -0.2811  1.3004 -2.1742
72801SOL    HW236396  13.744   8.855   6.289 -0.6339 -1.2839  0.6870
72802SOL     OW36397  11.903  11.275   9.770  0.9105  0.1726  0.5400
72802SOL    HW136398  11.974  11.217   9.798 -1.3878 -2.6808  0.8992
72802SOL    HW236399  11.884  11.249   9.681  1.8915  2.7194 -0.5181
72803SOL     OW36400  12.588   8.017   8.144  0.4177 -0.1520  0.4484
72803SOL    HW136401  12.609   7.954   8.075 -0.7858  1.0338 -1.0744
72803SOL    HW236402  12.497   7.998   8.168  0.0614  0.9170  0.0254
72804SOL     OW36403  13.513   5.940   2.013 -0.6826 -0.3405 -0.2907
72804SOL    HW136404  13.598   5.954   2.055 -0.8629  0.4945 -0.1880
72804SOL    HW236405  13.463   5.888   2.076  0.1440 -1.8683 -0.8509
72805SOL     OW36406  10.057   1.857  12.098  0.8009  0.3033  0.0751
72805SOL    HW136407  10.125   1.792  12.114 -0.1458 -1.0065 -0.9999
72805SOL    HW236408  10.093   1.938  12.135  0.8917 -1.3097  4.0760
72806SOL     OW36409   6.680   5.829   7.327 -0.2746 -0.3250  0.2794
72806SOL    HW136410   6.725   5.821   7.243  0.0559  1.9621  0.1691
72806SOL    HW236411   6.731   5.775   7.387  1.4575  0.5912 -0.3051
72807SOL     OW36412   8.089  10.194   2.927  0.2577  0.0766  0.5056
72807SOL    HW136413   8.002  10.220   2.956  0.2553  1.5584 -0.6848
72807SOL    HW236414   8.149  10.233   2.991  0.0778 -0.7888  1.2192
72808SOL     OW36415   9.146   5.007   3.362  0.5909  0.3284 -0.1523
72808SOL    HW136416   9.166   4.925   3.406  1.0767  0.0741 -0.8311
72808SOL    HW236417   9.227   5.058   3.370  0.3147  0.7177  0.2042
72809SOL     OW36418   9.140   9.436   9.157  0.4383  0.1518  0.4397
72809SOL    HW136419   9.057   9.431   9.203 -0.5438 -3.3154 -1.3334
72809SOL    HW236420   9.138   9.521   9.113 -2.0566  0.3134  0.7054
72810SOL     OW36421   1.349   2.223   2.585  0.7028  0.1528  0.3428
72810SOL    HW136422   1.409   2.150   2.571 -0.3226 -0.5691 -0.4529
72810SOL    HW236423   1.262   2.183   2.584  0.2322  0.7488  4.1601
72811SOL     OW36424   1.559   0.368   9.748 -0.0660  0.2928 -0.6173
72811SOL    HW136425   1.645   0.329   9.759 -0.7496 -1.4822 -1.2831
72811SOL    HW236426   1.577   0.461   9.733  1.6170  0.2436  0.8003
72812SOL     OW36427   7.821   4.282   0.251 -0.2048  0.3062 -0.1238
72812SOL    HW136428   7.903   4.262   0.297 -1.0571 -0.7250  1.0396
72812SOL    HW236429   7.849   4.316   0.166  1.4414  1.4437  0.7946
72813SOL     OW36430  13.411  10.895   9.113  0.3305 -0.3441  0.1615
72813SOL    HW136431  13.330  10.929   9.149 -0.0044 -0.9349 -0.0087
72813SOL    HW236432  13.461  10.865   9.189  0.5916  0.4253  0.3043
72814SOL     OW36433   2.711   1.815   3.318 -0.1118  0.3479  0.3184
72814SOL    HW136434   2.730   1.724   3.293  2.2095  0.7118  0.5475
72814SOL    HW236435   2.616   1.822   3.311 -0.6482 -2.7494  2.4274
72815SOL     OW36436   3.608   9.375   8.204  0.1299  0.0802 -0.1785
72815SOL    HW136437   3.627   9.456   8.157  1.2014  0.2925  0.5747
72815SOL    HW236438   3.546   9.400   8.272  1.9554  0.7490  1.3396
72816SOL     OW36439  14.107  13.752   7.865 -0.5406 -0.2606  0.1817
72816SOL    HW136440  14.013  13.766   7.853 -0.3544 -0.6255 -2.2935
72816SOL    HW236441  14.117  13.657   7.858  0.0086 -0.2364  0.5993
72817SOL     OW36442   7.962   7.125  11.158  0.8263  0.1321 -0.6440
72817SOL    HW136443   7.891   7.072  11.193 -0.2573  1.2363 -1.1004
72817SOL    HW236444   8.012   7.152  11.235 -1.6224  2.6859  0.2144
72818SOL     OW36445  10.547   1.872   0.838  0.1588  0.8679 -0.0997
72818SOL    HW136446  10.580   1.791   0.877 -0.0502  0.9125  0.1774
72818SOL    HW236447  10.590   1.878   0.753 -1.8494 -0.9082 -1.3157
72819SOL     OW36448   3.548   0.427   9.552 -0.4546 -0.8417 -0.2498
72819SOL    HW136449   3.558   0.332   9.544  0.1457 -0.9071  0.9853
72819SOL    HW236450   3.506   0.439   9.637 -0.7240 -0.0078 -0.4988
72820SOL     OW36451   5.329   7.673   9.575 -0.6455 -0.2629  0.5145
72820SOL    HW136452   5.283   7.740   9.626 -1.5233  0.0127 -0.6126
72820SOL    HW236453   5.383   7.627   9.640 -0.5042  1.1040  1.4235
72821SOL     OW36454  11.192   4.499  13.710  0.4162  0.1344 -0.7418
72821SOL    HW136455  11.105   4.527  13.679  0.5234 -0.2250 -1.3901
72821SOL    HW236456  11.198   4.407  13.685  1.0565  0.2040 -0.8715
72822SOL     OW36457   9.638   1.742   9.543 -0.1459  0.0215 -0.7706
72822SOL    HW136458   9.610   1.670   9.485 -0.4657 -0.0077 -0.5837
72822SOL    HW236459   9.637   1.819   9.487 -0.6819  0.0334 -0.7459
72823SOL     OW36460   9.355   7.018   6.248 -0.7437  0.2247 -0.6124
72823SOL    HW136461   9.278   7.063   6.215  0.6325  2.0031 -1.5481
72823SOL    HW236462   9.366   7.052   6.337 -0.1665  1.1919 -1.0368
72824SOL     OW36463   9.109   7.100   8.159 -0.0691 -0.3990  0.2505
72824SOL    HW136464   9.138   7.028   8.103  1.3379 -0.0542  0.4967
72824SOL    HW236465   9.159   7.088   8.240 -0.8299  0.0742  0.8001
72825SOL     OW36466   1.246   9.330  10.008  0.1487  0.1946 -0.4482
72825SOL    HW136467   1.192   9.402  10.042 -1.8848 -2.4957  2.6348
72825SOL    HW236468   1.327   9.335  10.059 -1.6392 -1.9220  2.9889
72826SOL     OW36469  11.090   1.981   6.801 -0.1294 -0.7487  0.5652
72826SOL    HW136470  11.170   2.013   6.760 -0.7554 -2.1720 -1.9896
72826SOL    HW236471  11.119   1.938   6.881  1.5497 -0.5849  0.0829
72827SOL     OW36472  10.022   9.956   9.307  0.2649  0.0194 -0.3143
72827SOL    HW136473   9.966  10.023   9.266 -0.8039 -0.9410 -0.4882
72827SOL    HW236474  10.070   9.918   9.234  0.1786 -0.0353 -0.3427
72828SOL     OW36475   5.189   6.995   7.078 -0.6143 -0.1170 -0.2628
72828SOL    HW136476   5.113   7.049   7.057 -1.3032 -1.0599 -0.2734
72828SOL    HW236477   5.186   6.923   7.014  0.8125  0.3005 -0.8618
72829SOL     OW36478   6.890   1.700   8.270 -0.2683  0.1320 -0.2694
72829SOL    HW136479   6.909   1.791   8.249  0.9804 -0.2081 -0.7357
72829SOL    HW236480   6.801   1.685   8.239  0.0902  0.7629 -1.6700
72830SOL     OW36481   0.303   4.129  10.589  0.2072  0.5270 -0.2075
72830SOL    HW136482   0.214   4.127  10.552  0.7484 -0.3514 -1.5366
72830SOL    HW236483   0.332   4.038  10.587  0.9888  0.7523  0.6055
72831SOL     OW36484   4.096   7.980   7.041  0.3700  0.0011  0.2467
72831SOL    HW136485   4.191   7.974   7.035  0.5180  0.6631  1.5218
72831SOL    HW236486   4.066   7.890   7.034  1.0401 -0.1529 -0.7798
72832SOL     OW36487   6.345  12.541   8.031  0.5158  0.1258 -0.0335
72832SOL    HW136488   6.268  12.497   8.065  0.4714  0.3783  0.1987
72832SOL    HW236489   6.413  12.473   8.029  0.3740 -0.0191  0.0596
72833SOL     OW36490   2.198   6.910   3.845  0.0006 -0.5206 -0.6551
72833SOL    HW136491   2.251   6.833   3.865 -1.6560 -1.7690 -0.7913
72833SOL    HW236492   2.226   6.976   3.909  2.1378 -0.8812 -1.1671
72834SOL     OW36493   8.567   9.695  10.393  0.9342 -0.3397  0.1383
72834SOL    HW136494   8.524   9.690  10.478  2.2489 -0.3429  0.8217
72834SOL    HW236495   8.635   9.628  10.397  0.1661 -1.2879 -1.4380
72835SOL     OW36496   9.495  11.561   4.530 -0.7252  0.8063  0.8647
72835SOL    HW136497   9.434  11.490   4.511 -1.4792  1.8462 -0.9283
72835SOL    HW236498   9.439  11.637   4.545  0.0714  1.0982  2.5510
72836SOL     OW36499   3.241   1.772   1.292  0.3624  0.3352 -0.4354
72836SOL    HW136500   3.302   1.821   1.237  1.4724 -1.0540 -0.4831
72836SOL    HW236501   3.249   1.811   1.379 -0.8849  2.0853 -1.0474
72837SOL     OW36502   7.076   7.962   4.090  0.5319  0.4926 -0.2799
72837SOL    HW136503   7.039   8.026   4.029  0.5065  1.7086  0.9622
72837SOL    HW236504   7.118   8.015   4.158 -0.2654 -0.7999  1.2786
72838SOL     OW36505   3.121   8.705  10.355  0.0952 -0.4584 -0.3637
72838SOL    HW136506   3.176   8.744  10.288  2.8744  1.6574  2.8386
72838SOL    HW236507   3.055   8.772  10.374  0.3807 -0.3431  0.2127
72839SOL     OW36508   4.092   6.834   3.545 -0.0625 -0.1935  0.3344
72839SOL    HW136509   4.060   6.917   3.509 -1.3891 -0.6946  0.2954
72839SOL    HW236510   4.182   6.827   3.513  0.3777  1.6179  1.0135
72840SOL     OW36511   4.950   6.917   8.018  0.5884 -0.4328 -1.0704
72840SOL    HW136512   4.924   6.842   7.964 -0.6375 -0.6774 -0.1806
72840SOL    HW236513   5.045   6.921   8.008  0.4755 -0.8304 -2.7574
72841SOL     OW36514   2.643  11.577   9.781 -0.3934 -0.1541  0.0494
72841SOL    HW136515   2.565  11.523   9.773 -0.5937  0.2352 -0.7563
72841SOL    HW236516   2.712  11.516   9.807 -1.1295 -0.3561  1.6429
72842SOL     OW36517   3.073   3.321   2.591  0.2757  0.0487 -0.1702
72842SOL    HW136518   3.153   3.362   2.560  1.0891 -1.4666 -0.2011
72842SOL    HW236519   3.044   3.266   2.519  0.4510 -1.0906  0.5864
72843SOL     OW36520   8.978  10.944  13.855 -0.1232  0.2934 -0.1186
72843SOL    HW136521   9.043  10.875  13.842 -0.3903  0.0301 -0.0570
72843SOL    HW236522   8.913  10.905  13.914  0.6108  1.1685  1.3095
72844SOL     OW36523  12.886   2.978   1.753 -0.7541  0.0910 -0.8257
72844SOL    HW136524  12.882   3.056   1.808 -0.5195 -0.1880 -0.4071
72844SOL    HW236525  12.966   2.934   1.779 -1.1895 -0.6060 -0.6270
72845SOL     OW36526   2.080   5.434   1.887 -0.2616 -1.1147 -0.1142
72845SOL    HW136527   2.085   5.347   1.847  0.2875 -1.0591 -0.1752
72845SOL    HW236528   1.990   5.462   1.871 -0.4618 -1.6929 -0.0432
72846SOL     OW36529  11.997   2.743   8.621 -0.3100  0.3393 -0.1450
72846SOL    HW136530  12.036   2.815   8.670 -1.0176  0.7053 -0.1064
72846SOL    HW236531  11.939   2.700   8.684 -0.5989  0.3098 -0.4277
72847SOL     OW36532  12.636   2.808   9.138 -0.5257  0.4381  0.3532
72847SOL    HW136533  12.624   2.747   9.065 -0.1514 -1.9550  2.1633
72847SOL    HW236534  12.547   2.825   9.170 -0.5935  0.3459  0.2107
72848SOL     OW36535   7.809   0.397   7.644  0.4357  0.5682 -0.3596
72848SOL    HW136536   7.821   0.313   7.688 -1.0082  0.5404  0.0574
72848SOL    HW236537   7.803   0.460   7.716  0.4582  0.8688 -0.6204
72849SOL     OW36538   2.086   6.024  13.181  0.0508  0.2813 -0.0995
72849SOL    HW136539   2.124   5.947  13.222 -2.1975 -1.7645 -1.5925
72849SOL    HW236540   2.113   6.097  13.237  0.4593 -1.8252  2.6336
72850SOL     OW36541   1.921   6.736  13.150  0.0326 -0.5764 -0.1376
72850SOL    HW136542   1.872   6.766  13.074  0.2116 -0.5256 -0.2348
72850SOL    HW236543   2.013   6.754  13.128 -0.0203  0.9500  0.7403
72851SOL     OW36544  13.967  11.721   9.678  0.3447  0.0104  0.2670
72851SOL    HW136545  13.888  11.724   9.625  0.7156  0.4819 -0.2746
72851SOL    HW236546  13.988  11.627   9.685  1.0479 -0.0158 -1.6035
72852SOL     OW36547   6.352   8.745  13.784  0.1019  0.1248  0.6255
72852SOL    HW136548   6.281   8.780  13.838  2.3865 -0.4470  4.3344
72852SOL    HW236549   6.359   8.653  13.808  1.4262 -0.1113 -0.5036
72853SOL     OW36550   0.129   6.843  13.917  0.6182  0.4911 -0.0967
72853SOL    HW136551   0.046   6.851  13.964  0.9488  1.6449  0.3219
72853SOL    HW236552   0.167   6.761  13.950 -0.2167  0.0971 -0.0871
72854SOL     OW36553   2.908  13.012   2.901  0.7874  0.3736 -0.0584
72854SOL    HW136554   2.984  12.994   2.847  1.8173 -4.2660  2.4506
72854SOL    HW236555   2.835  12.969   2.856  0.8343 -0.1322  0.3512
72855SOL     OW36556   3.737  13.937   5.632  0.0548 -0.1751  0.2499
72855SOL    HW136557   3.765  13.986   5.709  0.7500 -2.5161  1.5701
72855SOL    HW236558   3.754  13.996   5.558 -0.7888  2.1996  1.8454
72856SOL     OW36559   4.507   3.399   2.780 -0.3298  0.8015 -0.1731
72856SOL    HW136560   4.508   3.320   2.726  0.8622 -0.0682  1.0299
72856SOL    HW236561   4.452   3.375   2.855  2.5586 -0.1114  1.7981
72857SOL     OW36562   3.996   7.174  12.944  0.2396  0.3796  0.8285
72857SOL    HW136563   4.025   7.163  12.854  0.6717 -0.9888  1.1137
72857SOL    HW236564   3.901   7.160  12.940  0.4689 -1.3942  0.8122
72858SOL     OW36565   9.702  13.309   8.123 -0.1178  0.5976  0.0637
72858SOL    HW136566   9.779  13.351   8.163 -0.9735  2.4548 -0.1334
72858SOL    HW236567   9.657  13.380   8.078 -0.9046 -0.8398 -1.5234
72859SOL     OW36568   5.491   1.280   3.184  0.4888 -0.0597  0.3197
72859SOL    HW136569   5.439   1.309   3.259  0.3970  1.8470 -0.4225
72859SOL    HW236570   5.580   1.271   3.218  0.0530 -1.5684  1.1718
72860SOL     OW36571   6.326  10.268   3.881  0.5354  0.3495  0.4968
72860SOL    HW136572   6.288  10.190   3.840 -0.6744  0.7935  0.7418
72860SOL    HW236573   6.361  10.319   3.808  0.3813  0.0767  0.2309
72861SOL     OW36574   9.123   9.691   9.691  0.3784  0.0618  0.3135
72861SOL    HW136575   9.108   9.619   9.630 -1.9864 -0.8260  1.7871
72861SOL    HW236576   9.204   9.668   9.736  0.9974 -0.3463 -0.9696
72862SOL     OW36577   6.465  12.830  13.432  0.6713 -0.0579  0.0237
72862SOL    HW136578   6.448  12.842  13.338 -1.9307 -0.7633  0.3302
72862SOL    HW236579   6.560  12.825  13.438  0.9350  0.3389 -2.5389
72863SOL     OW36580  12.799  12.694   1.325  0.2495  0.3937  0.0193
72863SOL    HW136581  12.737  12.623   1.342 -0.3647  0.1641 -2.7115
72863SOL    HW236582  12.873  12.676   1.383 -0.4791 -1.6930  0.3843
72864SOL     OW36583  11.418   4.931   2.977  0.0174  0.0230 -0.1406
72864SOL    HW136584  11.502   4.978   2.969 -0.9558  1.6427 -1.3823
72864SOL    HW236585  11.405   4.892   2.891 -0.1889 -0.8025  0.2613
72865SOL     OW36586   7.213   1.184   0.191 -0.0933 -0.8319 -0.0353
72865SOL    HW136587   7.140   1.182   0.253  0.9561 -3.2848  1.2810
72865SOL    HW236588   7.212   1.097   0.151  2.3912 -1.1406  0.4263
72866SOL     OW36589   5.013   3.996   8.791  0.1567 -0.1179 -0.0612
72866SOL    HW136590   4.935   3.942   8.783  1.4846 -1.9075 -1.7753
72866SOL    HW236591   5.023   4.012   8.885 -1.9934 -0.2061  0.2142
72867SOL     OW36592   2.436   0.143   3.463 -0.2611 -0.3064  0.2354
72867SOL    HW136593   2.371   0.189   3.409  0.5882 -2.0245 -2.4168
72867SOL    HW236594   2.396   0.059   3.483  0.9754 -1.2985 -1.2425
72868SOL     OW36595  13.060  11.349  12.532  0.3557 -0.1249  0.1252
72868SOL    HW136596  13.130  11.374  12.471 -0.2632 -0.9691 -0.9659
72868SOL    HW236597  13.092  11.269  12.574 -1.0150 -2.2012 -2.4477
72869SOL     OW36598   7.254   3.179  11.663 -0.2053  0.3785  0.7777
72869SOL    HW136599   7.346   3.206  11.668  0.4658 -1.5178 -0.5800
72869SOL    HW236600   7.234   3.148  11.751  0.8406 -0.3363  0.7810
72870SOL     OW36601   5.511   2.099   8.298  0.1358  0.4452 -0.6578
72870SOL    HW136602   5.595   2.100   8.253  0.9546  1.2047  0.8092
72870SOL    HW236603   5.524   2.039   8.371 -0.2660  1.2975  0.1392
72871SOL     OW36604   8.308   5.708   0.638  0.4037 -0.4576  0.1610
72871SOL    HW136605   8.261   5.712   0.554 -1.8518 -2.7404  1.1720
72871SOL    HW236606   8.381   5.649   0.622  0.2564 -0.5155 -0.3264
72872SOL     OW36607   4.279   8.934  10.293 -0.2605 -0.0797 -0.0964
72872SOL    HW136608   4.308   8.849  10.261  0.1105  0.7359 -2.0613
72872SOL    HW236609   4.349   8.964  10.351  0.4860 -0.3053 -0.8665
72873SOL     OW36610   9.180   0.425   4.761 -0.2277  0.7338  0.1701
72873SOL    HW136611   9.156   0.333   4.751 -1.5742  1.2395 -1.8723
72873SOL    HW236612   9.271   0.429   4.729 -0.5430  0.2632 -0.8511
72874SOL     OW36613  11.865  13.318   5.480 -0.2317  0.1654  0.4847
72874SOL    HW136614  11.901  13.403   5.458  1.7440 -0.5096  0.9113
72874SOL    HW236615  11.817  13.333   5.562 -0.2767  0.9405  0.3253
72875SOL     OW36616  13.075   3.804  12.434  0.3014  0.0542 -0.0031
72875SOL    HW136617  13.135   3.783  12.362  0.8405  2.3061 -0.3042
72875SOL    HW236618  12.989   3.779  12.401  0.7362 -0.4634 -0.7744
72876SOL     OW36619   8.060   2.461  12.222  0.6673 -0.4665  0.2096
72876SOL    HW136620   8.007   2.539  12.239  2.4627  1.1376 -1.1223
72876SOL    HW236621   8.000   2.401  12.178 -0.3231  0.8869 -0.3609
72877SOL     OW36622   6.945  12.297   4.339  0.4266  0.6269  0.4035
72877SOL    HW136623   7.036  12.329   4.334  0.2246  1.3926  1.2580
72877SOL    HW236624   6.909  12.313   4.252  0.8498  1.1734  0.3221
72878SOL     OW36625   4.930  13.327   3.227  0.5458  0.3404 -0.7310
72878SOL    HW136626   4.907  13.391   3.160 -0.9842  0.7502  0.1267
72878SOL    HW236627   4.912  13.242   3.187 -0.2550  0.5767 -0.8900
72879SOL     OW36628  12.921   6.863   6.144 -0.2911 -0.0336 -0.0273
72879SOL    HW136629  12.990   6.915   6.104 -0.9487 -0.0176 -1.1786
72879SOL    HW236630  12.844   6.920   6.142 -1.1864 -1.2313 -1.9012
72880SOL     OW36631   6.947   7.990   8.008 -0.5785  0.0521 -0.5493
72880SOL    HW136632   6.864   8.020   8.046 -0.9257 -1.1353 -0.3192
72880SOL    HW236633   6.999   8.069   7.999 -1.8145  0.8602 -0.8910
72881SOL     OW36634   4.426   4.574   4.587  0.2610  0.0509  0.1004
72881SOL    HW136635   4.365   4.597   4.517 -0.1190  1.2912  0.7990
72881SOL    HW236636   4.464   4.490   4.560 -1.4492 -0.5485 -0.5302
72882SOL     OW36637  11.347   5.852   9.097 -0.4956  0.3643 -0.4664
72882SOL    HW136638  11.312   5.873   9.011  1.5770  1.1322 -1.1831
72882SOL    HW236639  11.416   5.788   9.079 -1.6331 -1.3571  0.9191
72883SOL     OW36640   3.318   0.385  10.393  0.2638 -0.2415  0.6646
72883SOL    HW136641   3.252   0.318  10.377  0.5954 -0.2250 -0.9940
72883SOL    HW236642   3.282   0.464  10.350  0.5369  0.2448  1.3198
72884SOL     OW36643   9.270   9.229  13.512  0.3168  0.5739 -0.0683
72884SOL    HW136644   9.322   9.241  13.591  1.6135  0.0825 -0.8190
72884SOL    HW236645   9.328   9.183  13.452 -1.0268 -0.0816 -0.9111
72885SOL     OW36646  13.802   8.680  11.148 -1.0339  0.1987  0.2701
72885SOL    HW136647  13.733   8.677  11.082  0.5013 -2.3776 -1.3733
72885SOL    HW236648  13.863   8.747  11.116 -0.1351 -1.2574 -1.1856
72886SOL     OW36649   8.506   5.078   5.248  0.3195 -0.2176 -0.0206
72886SOL    HW136650   8.481   5.053   5.337 -0.7480 -1.6835 -0.6996
72886SOL    HW236651   8.602   5.081   5.251  0.3516 -1.3627  0.9161
72887SOL     OW36652   2.664   9.919  12.730 -0.2722  0.1577 -0.5685
72887SOL    HW136653   2.750   9.958  12.715 -0.2582 -0.1344 -1.2785
72887SOL    HW236654   2.674   9.827  12.707 -0.1553 -0.4521  1.6375
72888SOL     OW36655   6.431   3.222  11.719  0.0494 -0.0766 -0.1140
72888SOL    HW136656   6.388   3.159  11.777  3.0918 -0.6624  1.7413
72888SOL    HW236657   6.434   3.303  11.770 -1.2940  0.7957 -1.3561
72889SOL     OW36658   3.596   2.221  10.927  0.1852  0.6578 -0.2101
72889SOL    HW136659   3.665   2.185  10.982  0.6561  1.0246 -0.5490
72889SOL    HW236660   3.579   2.308  10.964  0.3867  0.8381 -0.5396
72890SOL     OW36661   9.882  12.968  11.833 -0.2401 -0.5251  0.0705
72890SOL    HW136662   9.789  12.974  11.812 -0.6355 -0.4090  1.7174
72890SOL    HW236663   9.890  12.890  11.887  0.8520 -1.2143 -1.0200
72891SOL     OW36664   4.073  13.047   7.827 -0.2276 -0.0197 -0.0551
72891SOL    HW136665   4.027  13.035   7.744  0.5003 -1.1851 -0.3111
72891SOL    HW236666   4.065  12.963   7.871 -0.6992  0.6172  1.1244
72892SOL     OW36667   0.160  12.210  10.662  0.0592 -1.0827  0.6947
72892SOL    HW136668   0.228  12.273  10.639 -0.5852 -0.1977  1.1476
72892SOL    HW236669   0.080  12.262  10.668 -0.6496 -2.0874  0.2555
72893SOL     OW36670   9.865  11.844   7.316 -0.0858 -0.4767 -0.1759
72893SOL    HW136671   9.909  11.904   7.376 -0.7461 -0.3178  0.1525
72893SOL    HW236672   9.772  11.859   7.331 -0.2987 -2.4809  0.8507
72894SOL     OW36673  12.836   7.668   9.593 -0.3590  0.7544 -0.3057
72894SOL    HW136674  12.866   7.723   9.520 -1.1196  2.0780  0.3302
72894SOL    HW236675  12.742   7.685   9.597 -0.3901  0.3674  0.7039
72895SOL     OW36676   4.889   4.442   2.437 -0.1872  0.2349  0.4123
72895SOL    HW136677   4.962   4.495   2.471  0.3091  1.6038 -2.4784
72895SOL    HW236678   4.813   4.499   2.446 -0.0472  0.6210 -0.6519
72896SOL     OW36679   8.956   4.345   1.248 -0.1332 -0.5951  0.3242
72896SOL    HW136680   8.976   4.334   1.341 -0.3237 -1.0356  0.3140
72896SOL    HW236681   8.861   4.330   1.242 -1.2742  4.5496  0.9004
72897SOL     OW36682   3.241  10.579   6.525  0.1222  0.2238 -0.1523
72897SOL    HW136683   3.247  10.489   6.493  2.4420  0.8161 -1.5704
72897SOL    HW236684   3.252  10.571   6.620  3.0409 -0.8454 -0.4866
72898SOL     OW36685   4.077   0.824   4.773 -0.2997 -0.1313  0.2434
72898SOL    HW136686   4.140   0.755   4.792  0.4776  0.5920  0.3675
72898SOL    HW236687   4.111   0.901   4.819  0.3888  1.0569 -2.0880
72899SOL     OW36688   4.691  11.557   3.206 -0.2278 -0.3991  0.3297
72899SOL    HW136689   4.607  11.515   3.186 -1.3405  0.6081  2.5902
72899SOL    HW236690   4.754  11.485   3.209 -0.8577 -1.1311 -1.8239
72900SOL     OW36691  10.114   8.034  13.245 -0.4007  0.3544  0.2875
72900SOL    HW136692  10.203   8.067  13.239 -0.2879 -0.1449 -1.2647
72900SOL    HW236693  10.123   7.939  13.245 -0.9358  0.2966 -0.2167
72901SOL     OW36694   0.672   2.861  12.897 -0.7975 -0.1535 -0.4007
72901SOL    HW136695   0.588   2.884  12.937 -1.0985 -0.8664 -0.5948
72901SOL    HW236696   0.681   2.921  12.823 -2.4096 -1.7374 -1.9714
72902SOL     OW36697   2.419   4.826   1.634  1.0956  0.4144  0.4962
72902SOL    HW136698   2.505   4.787   1.619  1.0523  0.3685  0.3642
72902SOL    HW236699   2.357   4.760   1.602  1.0616  1.3307 -1.4657
72903SOL     OW36700  13.334  12.169  11.718 -0.0152 -0.0210 -0.0156
72903SOL    HW136701  13.423  12.202  11.704  0.2981 -0.2883  1.2337
72903SOL    HW236702  13.310  12.201  11.805  0.0051 -2.4037  0.9407
72904SOL     OW36703   7.205   2.494  11.779  0.3831  0.3133 -0.1860
72904SOL    HW136704   7.171   2.432  11.843 -1.9241  1.7850  0.1023
72904SOL    HW236705   7.278   2.536  11.824 -0.4851  0.5258  1.0750
72905SOL     OW36706   3.773   8.633  11.695  0.2878 -0.7172  0.1217
72905SOL    HW136707   3.869   8.631  11.696  0.2899 -0.2711  0.9393
72905SOL    HW236708   3.749   8.696  11.763 -0.5646  0.0740 -0.8714
72906SOL     OW36709   7.709  10.132   7.201 -0.2513  0.2808  0.1423
72906SOL    HW136710   7.755  10.211   7.172 -0.0034  0.3715  0.7676
72906SOL    HW236711   7.698  10.144   7.295  0.0201 -0.5478  0.2848
72907SOL     OW36712   7.671  12.114   5.094  0.3592 -0.4661  0.1236
72907SOL    HW136713   7.586  12.140   5.129  1.3055  0.6678  1.7032
72907SOL    HW236714   7.698  12.189   5.040  2.3621  1.3657  3.3723
72908SOL     OW36715   1.042   9.335   8.123  0.0409 -0.0781  0.6532
72908SOL    HW136716   1.046   9.304   8.032 -0.0681 -0.4120  0.7607
72908SOL    HW236717   1.120   9.297   8.164  0.4414  0.6025  0.5374
72909SOL     OW36718   4.844   2.519   2.821 -0.4973 -0.0459  0.1699
72909SOL    HW136719   4.756   2.504   2.786 -0.5067  1.5530 -0.5579
72909SOL    HW236720   4.860   2.612   2.808  0.3965  0.1806  2.4557
72910SOL     OW36721  10.932   9.644  12.491  0.5269 -0.1188  0.1622
72910SOL    HW136722  10.882   9.566  12.469 -0.5294  0.6346 -0.1611
72910SOL    HW236723  11.015   9.633  12.445 -0.5891  0.1316 -2.0489
72911SOL     OW36724   9.177   7.670   2.145 -0.3141  0.6148  0.0474
72911SOL    HW136725   9.100   7.681   2.088 -0.0802 -2.4863 -1.0553
72911SOL    HW236726   9.250   7.660   2.084  0.8126  2.1700  1.0663
72912SOL     OW36727  13.884   3.893   3.556  0.0477 -0.1703  0.3211
72912SOL    HW136728  13.872   3.810   3.511 -0.8656 -0.1404  0.4815
72912SOL    HW236729  13.969   3.925   3.527  0.9391 -1.7056  1.1502
72913SOL     OW36730   6.498  12.506   4.777  0.5733  0.0861 -0.1659
72913SOL    HW136731   6.560  12.558   4.827  0.5033 -0.3024  0.3306
72913SOL    HW236732   6.539  12.496   4.691  1.7611 -1.1513  0.5066
72914SOL     OW36733  12.295  12.919   1.256 -0.0217  0.0724  0.0090
72914SOL    HW136734  12.296  12.979   1.182 -0.0312 -1.9160 -1.6971
72914SOL    HW236735  12.205  12.921   1.289 -0.5038 -0.3851 -1.2423
72915SOL     OW36736   9.470  12.787  10.646  0.1815  0.2297 -0.3926
72915SOL    HW136737   9.525  12.865  10.647  1.3741 -0.5906  1.2971
72915SOL    HW236738   9.430  12.785  10.733  1.4485 -1.8811  0.2119
72916SOL     OW36739   0.653  10.450   8.014  0.0171 -0.2876  0.5486
72916SOL    HW136740   0.732  10.496   7.984  0.1504 -1.6278 -1.3257
72916SOL    HW236741   0.581  10.510   7.994  0.3790  0.0789  0.3362
72917SOL     OW36742  11.036   4.406   3.212 -0.9569 -0.8685  0.1985
72917SOL    HW136743  11.095   4.448   3.150 -1.1231 -0.7354  0.1314
72917SOL    HW236744  10.997   4.334   3.162 -1.6414 -0.3143 -0.0704
72918SOL     OW36745   2.202  11.512  10.177 -0.2672  0.3480  0.3206
72918SOL    HW136746   2.111  11.517  10.148 -0.5164  0.9949  1.2001
72918SOL    HW236747   2.219  11.597  10.218  0.4750 -0.0807  0.9100
72919SOL     OW36748   3.599  13.171   3.203  0.9283  0.1905  0.6064
72919SOL    HW136749   3.640  13.231   3.265  0.4363  0.0500  1.0782
72919SOL    HW236750   3.632  13.084   3.229 -0.3983 -0.0458  1.6270
72920SOL     OW36751  13.234  10.227   6.196 -0.2225 -0.5830 -0.2387
72920SOL    HW136752  13.215  10.310   6.239  0.2456 -0.5820 -0.0253
72920SOL    HW236753  13.321  10.239   6.159 -0.0824 -1.0364 -0.0653
72921SOL     OW36754   6.559  10.526   2.185 -0.2493  0.3367 -0.0062
72921SOL    HW136755   6.531  10.598   2.127  0.9740  1.9200  1.2829
72921SOL    HW236756   6.652  10.516   2.166 -0.1716 -0.1410  0.6377
72922SOL     OW36757  11.808   9.437   2.724  0.1368 -0.0209 -0.0371
72922SOL    HW136758  11.856   9.477   2.652  0.6665 -1.5658 -0.5853
72922SOL    HW236759  11.744   9.380   2.682  0.4164 -0.9042  0.6799
72923SOL     OW36760  13.398  13.361   8.013  0.2793 -0.2237 -0.2816
72923SOL    HW136761  13.440  13.447   8.003 -1.6657  1.0354  1.4310
72923SOL    HW236762  13.467  13.298   7.994  2.6828  1.7171  1.3991
72924SOL     OW36763   3.245   7.513   6.718 -0.6941 -0.1809 -0.1906
72924SOL    HW136764   3.332   7.525   6.758 -0.6133 -1.0487 -0.0952
72924SOL    HW236765   3.239   7.584   6.655 -0.2622  0.4031  0.4046
72925SOL     OW36766  11.298   3.924   3.811  0.5714 -0.0369 -0.3297
72925SOL    HW136767  11.343   3.882   3.738  0.4737  0.2993 -0.5874
72925SOL    HW236768  11.351   3.904   3.888  0.0905 -1.3151 -0.3167
72926SOL     OW36769   0.190   1.064   4.199  0.0225 -0.1611  0.2831
72926SOL    HW136770   0.277   1.063   4.238  0.2466  2.8388  0.0314
72926SOL    HW236771   0.199   1.114   4.118 -1.6110 -1.3727 -0.7350
72927SOL     OW36772  10.844   2.351  10.698 -0.0021  0.5497  0.0665
72927SOL    HW136773  10.895   2.423  10.660 -0.4423  1.6184  1.4012
72927SOL    HW236774  10.900   2.274  10.689  0.6991  1.1556 -0.9354
72928SOL     OW36775   1.445   7.082   8.737  0.1842 -0.2421  0.1053
72928SOL    HW136776   1.399   7.058   8.656 -0.8616  0.1536  0.5610
72928SOL    HW236777   1.534   7.050   8.725 -0.6171 -2.5691 -0.1522
72929SOL     OW36778   0.202   5.677   4.410  0.3401  0.4889 -0.2262
72929SOL    HW136779   0.108   5.664   4.399  0.1728  0.3667  1.1088
72929SOL    HW236780   0.242   5.625   4.340 -0.5673  0.1281 -0.4892
72930SOL     OW36781   5.068   4.267   8.747 -0.0807  0.3292 -0.8441
72930SOL    HW136782   5.163   4.264   8.742 -0.1091 -1.4275 -0.9096
72930SOL    HW236783   5.041   4.175   8.755 -1.7759  0.7765 -0.9695
72931SOL     OW36784  12.563   7.051  13.793 -0.7882 -0.1935 -0.3852
72931SOL    HW136785  12.539   7.037  13.885 -2.0335  0.4892 -0.5776
72931SOL    HW236786  12.483   7.029  13.744 -0.0280 -0.8882 -1.3361
72932SOL     OW36787   0.164   5.601   9.747 -0.2496 -0.0041 -0.0593
72932SOL    HW136788   0.223   5.587   9.821  1.0795 -1.0530 -1.2690
72932SOL    HW236789   0.173   5.694   9.727  1.0209 -0.1444 -0.2189
72933SOL     OW36790   0.640   4.232   7.367 -0.1375  0.2291  0.6636
72933SOL    HW136791   0.632   4.236   7.271  2.1482  1.7915  0.4605
72933SOL    HW236792   0.726   4.192   7.382  0.2826  1.5859  2.0179
72934SOL     OW36793  11.910   3.393   1.754  0.4069 -0.2795 -0.0577
72934SOL    HW136794  11.998   3.418   1.727  0.7820  0.7357  1.9257
72934SOL    HW236795  11.918   3.303   1.783  0.4618 -0.6548 -1.1961
72935SOL     OW36796   8.364   6.436   2.097 -0.0165  0.3917  0.1347
72935SOL    HW136797   8.357   6.422   2.191 -3.5169 -1.9771 -0.3032
72935SOL    HW236798   8.446   6.393   2.072  0.2573 -0.1895  1.9419
72936SOL     OW36799   9.027   6.481   4.882 -0.6890 -0.1194 -0.3485
72936SOL    HW136800   9.084   6.555   4.905 -0.9235  0.0331 -0.2589
72936SOL    HW236801   9.063   6.407   4.930 -0.7534  0.0452 -0.0445
72937SOL     OW36802   1.592  10.083  12.220 -0.0444  0.3758 -0.4621
72937SOL    HW136803   1.586  10.122  12.307  0.7126 -3.1917  1.3812
72937SOL    HW236804   1.657  10.135  12.175 -0.6877  2.5281  0.9339
72938SOL     OW36805  13.321  10.212   8.136  0.1350 -0.2524  0.5902
72938SOL    HW136806  13.242  10.225   8.188 -0.3915 -0.2982 -0.1743
72938SOL    HW236807  13.364  10.298   8.137 -2.1347  1.1262 -2.5009
72939SOL     OW36808   0.536   3.008   1.396 -0.7582 -0.0024  0.3457
72939SOL    HW136809   0.463   3.054   1.437 -0.6809  0.2537  0.1985
72939SOL    HW236810   0.536   2.921   1.436 -1.6990 -0.3132 -0.3128
72940SOL     OW36811   6.231  13.749   3.649 -0.9867 -0.0718 -0.0585
72940SOL    HW136812   6.270  13.816   3.592 -1.3146 -1.1937 -1.6801
72940SOL    HW236813   6.172  13.701   3.592 -2.4312 -0.3808  1.6080
72941SOL     OW36814   7.977  13.805  14.069 -0.1822 -0.0478 -0.9366
72941SOL    HW136815   8.054  13.767  14.111  1.1808  2.1934 -1.2244
72941SOL    HW236816   7.907  13.795  14.133  1.2318  0.9780  0.8678
72942SOL     OW36817   7.779   4.730   9.410  0.1376 -0.0908  0.0588
72942SOL    HW136818   7.753   4.755   9.321  0.8904 -0.3067 -0.2255
72942SOL    HW236819   7.832   4.652   9.398  0.2514 -0.1158  0.7035
72943SOL     OW36820  12.330   5.324   2.827  0.0500  0.3941  0.1981
72943SOL    HW136821  12.366   5.235   2.831 -0.7737  0.0740  0.9575
72943SOL    HW236822  12.243   5.316   2.866  0.4136  1.7555  1.3731
72944SOL     OW36823   6.300  11.156   2.524 -0.2969  0.9728  0.4557
72944SOL    HW136824   6.322  11.078   2.574  0.8270  0.0026 -1.4539
72944SOL    HW236825   6.357  11.224   2.561 -0.3760  0.6061  1.2938
72945SOL     OW36826   2.042  13.753  13.178  0.1334  0.7019  0.5941
72945SOL    HW136827   2.103  13.695  13.132  1.0983  1.2674  1.1233
72945SOL    HW236828   1.981  13.782  13.110  0.8976  0.6917 -0.1122
72946SOL     OW36829   5.518  10.208   0.121 -0.4568  0.0252 -0.3506
72946SOL    HW136830   5.608  10.204   0.153 -0.6205 -0.4769  0.0620
72946SOL    HW236831   5.488  10.117   0.123 -0.8404  0.1342 -0.8714
72947SOL     OW36832  11.197   8.195   5.083 -0.3018  0.2080 -0.3051
72947SOL    HW136833  11.171   8.277   5.126 -0.6840  1.6526 -3.0969
72947SOL    HW236834  11.291   8.205   5.069 -0.5398  0.7308 -1.6681
72948SOL     OW36835  11.943   2.235  12.815  0.3037 -0.3032  0.0497
72948SOL    HW136836  12.005   2.290  12.863 -0.2627 -0.0823  0.5425
72948SOL    HW236837  11.996   2.165  12.777  0.9249  0.1639  0.0443
72949SOL     OW36838   1.063   0.954  11.837  0.2959 -0.3983 -0.1782
72949SOL    HW136839   1.027   0.975  11.751 -0.4471 -0.4610  0.1165
72949SOL    HW236840   0.987   0.942  11.894  0.7111 -2.2085  0.0623
72950SOL     OW36841   8.624   9.930   2.874 -0.2255  0.3134 -0.2584
72950SOL    HW136842   8.636   9.958   2.965  2.1196  0.6483 -0.6147
72950SOL    HW236843   8.672   9.995   2.822  0.0852 -0.9354 -1.5972
72951SOL     OW36844  10.155   3.121   9.390  0.3100  0.3528 -0.1814
72951SOL    HW136845  10.091   3.186   9.419 -0.0768 -0.5072  0.9781
72951SOL    HW236846  10.212   3.108   9.466  0.0613 -1.0274 -0.2097
72952SOL     OW36847  14.110   0.125  10.622  0.1353  0.5697  0.2516
72952SOL    HW136848  14.132   0.214  10.649  0.4990  0.1967  1.2098
72952SOL    HW236849  14.015   0.123  10.624  0.1401  0.3474  2.2720
72953SOL     OW36850   3.172   9.218   7.863  0.1571 -0.2568 -0.1678
72953SOL    HW136851   3.234   9.240   7.793 -0.0203 -0.2157 -0.3138
72953SOL    HW236852   3.226   9.210   7.941  0.5104 -1.3509 -0.5078
72954SOL     OW36853   8.447   7.399   8.457  0.1627 -0.3493  0.2343
72954SOL    HW136854   8.519   7.337   8.444  0.2682  0.2006 -2.4250
72954SOL    HW236855   8.489   7.482   8.476  0.2850 -0.0621 -1.1673
72955SOL     OW36856   8.340  11.800   0.838  0.4006 -0.2583 -0.5493
72955SOL    HW136857   8.246  11.787   0.828  0.5684 -0.6305 -1.9248
72955SOL    HW236858   8.351  11.894   0.850 -0.4142 -0.5572  3.7743
72956SOL     OW36859   5.708   2.857   3.813 -0.3583 -0.8259  0.3752
72956SOL    HW136860   5.704   2.927   3.879 -0.0564 -0.3264 -0.1181
72956SOL    HW236861   5.790   2.812   3.832  1.6663  1.6082 -1.8388
72957SOL     OW36862   5.888  11.598   5.766 -0.2294 -0.2849  0.0611
72957SOL    HW136863   5.795  11.591   5.749 -0.1084 -2.3764 -0.0122
72957SOL    HW236864   5.926  11.626   5.682 -0.6563 -0.9137 -0.3528
72958SOL     OW36865  12.407   4.057   1.775 -0.1585  0.3854  0.2380
72958SOL    HW136866  12.356   4.116   1.718  0.7045  0.6990 -0.2170
72958SOL    HW236867  12.340   4.007   1.822 -0.9115 -0.3288 -1.4999
72959SOL     OW36868   2.809   8.737   3.163 -0.2128  0.2630  0.0109
72959SOL    HW136869   2.740   8.721   3.099  0.8332  0.7075 -1.2738
72959SOL    HW236870   2.800   8.666   3.226  0.3228 -1.7841 -2.0568
72960SOL     OW36871   7.136  10.459   7.710  0.1762 -0.2510  0.2715
72960SOL    HW136872   7.099  10.484   7.795 -0.9201  0.1479 -0.2982
72960SOL    HW236873   7.198  10.529   7.689 -1.3570  0.9869 -0.3612
72961SOL     OW36874   3.320   0.008   6.699 -0.2916 -0.9800 -0.6928
72961SOL    HW136875   3.291   0.047   6.781 -1.5663  0.2530 -1.6762
72961SOL    HW236876   3.289   0.069   6.631  0.1906 -2.2646 -2.1300
72962SOL     OW36877  12.264   9.621   3.934 -0.0685 -0.5466  0.1991
72962SOL    HW136878  12.263   9.710   3.901 -1.3353 -0.6959 -0.2084
72962SOL    HW236879  12.357   9.596   3.934  0.1766  0.3105 -0.8947
72963SOL     OW36880  12.321   7.212   5.597 -0.0840  0.4985  0.1766
72963SOL    HW136881  12.297   7.282   5.659  0.7938  1.3982 -0.4678
72963SOL    HW236882  12.416   7.215   5.594  0.0403 -1.4428  0.9150
72964SOL     OW36883  14.012   4.257   1.185 -0.2701 -0.3226  0.2830
72964SOL    HW136884  14.094   4.273   1.231 -0.6814 -1.3019  1.4253
72964SOL    HW236885  13.989   4.341   1.145  0.6598  0.2755  0.9790
72965SOL     OW36886   0.880   9.916   0.141 -0.0723 -0.2245 -0.1057
72965SOL    HW136887   0.795   9.877   0.162 -0.9250  0.0945 -2.5877
72965SOL    HW236888   0.932   9.843   0.106  0.0306 -0.0776 -0.2638
72966SOL     OW36889  10.566   4.578   8.678 -0.1216 -0.2673 -0.0524
72966SOL    HW136890  10.625   4.580   8.754  1.6097  0.8927 -1.3267
72966SOL    HW236891  10.596   4.502   8.627 -0.8311 -0.6472  0.0918
72967SOL     OW36892  13.838   2.097   9.305 -0.0988 -0.2249  0.1939
72967SOL    HW136893  13.791   2.097   9.388  0.2713  1.6929  0.4472
72967SOL    HW236894  13.910   2.035   9.318  0.3457  0.5367  1.5597
72968SOL     OW36895   3.282   2.198   7.472 -0.1817  0.1463  0.0007
72968SOL    HW136896   3.246   2.199   7.561 -0.2217 -0.0340 -0.0112
72968SOL    HW236897   3.245   2.118   7.433 -0.2948  0.3121 -0.2307
72969SOL     OW36898   2.635   7.584   0.362  0.1211 -0.6372 -0.0621
72969SOL    HW136899   2.727   7.597   0.339 -0.2959  0.3324 -1.2956
72969SOL    HW236900   2.635   7.503   0.414  1.4440 -1.7003 -1.6080
72970SOL     OW36901   0.013   5.482  13.746 -0.2702  0.1844 -0.2084
72970SOL    HW136902   0.106   5.476  13.725 -0.4960 -1.0419 -0.9273
72970SOL    HW236903  -0.024   5.398  13.717 -1.2684 -0.1250  1.7365
72971SOL     OW36904   9.041   9.690   7.286  0.4584 -0.4876 -0.8020
72971SOL    HW136905   9.052   9.740   7.205  1.2466 -0.6451 -0.8061
72971SOL    HW236906   9.095   9.612   7.272 -0.1461 -0.9679 -0.4915
72972SOL     OW36907   6.818   5.520  12.164 -0.4317 -0.0778  0.2074
72972SOL    HW136908   6.772   5.439  12.141 -0.3850 -0.0443 -0.0059
72972SOL    HW236909   6.878   5.534  12.091 -1.5795  1.0242 -0.5712
72973SOL     OW36910   5.961  11.737   3.288  0.4335  0.2765 -0.0337
72973SOL    HW136911   6.025  11.715   3.356  0.0649 -0.3384  0.1210
72973SOL    HW236912   5.920  11.818   3.319  1.1022  0.6457 -0.1127
72974SOL     OW36913   9.868   0.271   6.698 -0.1437 -0.2475 -0.4457
72974SOL    HW136914   9.807   0.216   6.748  0.1965 -0.7017 -0.5237
72974SOL    HW236915   9.855   0.245   6.607  0.9351 -1.1310 -0.3631
72975SOL     OW36916   1.408   2.946   8.856 -0.1494  0.1598  0.7807
72975SOL    HW136917   1.400   2.851   8.850 -1.7492  0.3258 -0.6144
72975SOL    HW236918   1.334   2.973   8.911 -1.6827  0.7883 -1.4608
72976SOL     OW36919   0.872   0.587   9.728 -0.2100 -0.2760  0.7001
72976SOL    HW136920   0.921   0.646   9.670 -1.2110  0.3587  0.4730
72976SOL    HW236921   0.901   0.612   9.816  1.0533 -1.0053  0.5181
72977SOL     OW36922   6.447   3.131  12.642 -0.2575  0.3915  0.2874
72977SOL    HW136923   6.379   3.108  12.705 -4.0289  3.3124 -2.2046
72977SOL    HW236924   6.462   3.225  12.656  1.6332  0.2846 -0.7288
72978SOL     OW36925  10.728   5.933  13.203  0.1970  0.1845 -0.0570
72978SOL    HW136926  10.711   5.973  13.288  0.8424 -0.4280  0.3743
72978SOL    HW236927  10.789   5.861  13.223  0.4420  0.1125 -1.0510
72979SOL     OW36928   6.178   2.776  12.278 -0.0772 -0.1969  0.1446
72979SOL    HW136929   6.112   2.795  12.345 -0.5559  0.8077 -0.5757
72979SOL    HW236930   6.127   2.762  12.198  0.5861  1.5813 -0.6470
72980SOL     OW36931   9.786   6.154   1.324 -0.1283 -0.7417 -0.0472
72980SOL    HW136932   9.723   6.173   1.255 -1.1566  0.2516  1.1198
72980SOL    HW236933   9.800   6.237   1.368  1.7293 -1.0223 -0.0166
72981SOL     OW36934   0.092   3.251   7.920  0.6162 -0.1799  0.3059
72981SOL    HW136935   0.048   3.278   8.001  0.2213  0.1220 -0.0011
72981SOL    HW236936   0.169   3.204   7.949  0.1840 -0.5603  0.8657
72982SOL     OW36937  14.028   8.867   0.757 -0.0906  0.2846 -0.5360
72982SOL    HW136938  13.942   8.902   0.781 -0.2267  1.2868 -2.2365
72982SOL    HW236939  14.014   8.830   0.670  1.0822 -0.0038 -0.6119
72983SOL     OW36940   2.002   5.331   8.496 -0.4904 -0.2010 -0.1559
72983SOL    HW136941   2.056   5.340   8.575 -0.7287  2.4093 -0.2078
72983SOL    HW236942   1.922   5.289   8.527  0.6804 -2.2367  0.3069
72984SOL     OW36943   8.861   3.459   8.968 -0.1752 -0.2557  0.0396
72984SOL    HW136944   8.941   3.439   8.918  1.5032  0.8278  2.1466
72984SOL    HW236945   8.834   3.545   8.937  0.4471  0.1033  0.4895
72985SOL     OW36946   7.600   4.306  10.357 -0.1780 -0.7068  0.4129
72985SOL    HW136947   7.693   4.286  10.342 -0.2147 -0.1093 -0.7585
72985SOL    HW236948   7.601   4.386  10.409 -0.0433 -0.8884  0.6936
72986SOL     OW36949   9.666   5.476   1.259 -0.1046 -0.1424 -0.7337
72986SOL    HW136950   9.600   5.544   1.243 -0.1568 -0.0357 -0.1217
72986SOL    HW236951   9.616   5.403   1.295  0.2694  0.4723  1.1496
72987SOL     OW36952   5.667   9.557  11.056  0.1320  0.0118  0.0213
72987SOL    HW136953   5.760   9.576  11.069 -0.1043  0.9521  0.4106
72987SOL    HW236954   5.623   9.641  11.070 -0.6902 -0.2043 -1.0897
72988SOL     OW36955   3.206   8.384  11.631 -0.0522 -0.3398 -0.5122
72988SOL    HW136956   3.271   8.447  11.662 -0.3795 -0.4860  0.5268
72988SOL    HW236957   3.183   8.414  11.543 -0.1196  0.9308 -0.0818
72989SOL     OW36958   6.947  12.737   0.393 -0.7620  0.2393 -0.1640
72989SOL    HW136959   6.906  12.652   0.380 -0.0647  0.0547 -1.2311
72989SOL    HW236960   7.021  12.720   0.450  0.3387 -0.1700 -1.6696
72990SOL     OW36961   9.146  12.124   6.765  0.5005  0.1958  0.6171
72990SOL    HW136962   9.063  12.086   6.736  0.5876 -0.1458  0.8178
72990SOL    HW236963   9.207  12.051   6.768  1.3389  0.7474 -1.4112
72991SOL     OW36964   5.909   2.681  12.702  0.5390 -0.2021 -0.4960
72991SOL    HW136965   5.860   2.604  12.671  2.7042 -2.0465  0.3446
72991SOL    HW236966   5.939   2.656  12.790 -0.0129  2.2830  0.4627
72992SOL     OW36967   2.079  13.259   5.916 -0.0548 -0.1423  0.2322
72992SOL    HW136968   2.124  13.211   5.846 -1.1501 -0.6023 -0.1783
72992SOL    HW236969   2.000  13.208   5.932  0.9694 -1.0468  3.0267
72993SOL     OW36970  11.426  11.215   3.905  0.1753  0.0010 -0.0269
72993SOL    HW136971  11.481  11.289   3.881  1.6680 -1.5310 -1.5549
72993SOL    HW236972  11.412  11.168   3.824  0.1891 -2.0005  1.0753
72994SOL     OW36973   1.562   0.501  13.529  0.4057 -0.1964 -0.5769
72994SOL    HW136974   1.654   0.506  13.557 -0.2376  0.3837  1.7139
72994SOL    HW236975   1.528   0.589  13.547 -1.0263 -0.9190  0.4333
72995SOL     OW36976   2.576   3.057  12.111  0.7256  1.0107  0.1877
72995SOL    HW136977   2.523   3.107  12.173  1.4353  0.7211  1.0387
72995SOL    HW236978   2.576   2.968  12.145  0.2197  0.6036 -0.8339
72996SOL     OW36979   7.595   1.712   5.920  1.1402 -0.5610  0.0598
72996SOL    HW136980   7.611   1.748   5.832  0.6050 -1.0408 -0.2445
72996SOL    HW236981   7.521   1.764   5.953  1.4295 -0.2908  0.2810
72997SOL     OW36982   4.213   5.534   9.772 -0.3761 -0.2067 -0.5115
72997SOL    HW136983   4.247   5.447   9.751  0.1515 -0.0940 -0.1688
72997SOL    HW236984   4.287   5.578   9.816 -0.3855  0.6662 -1.3340
72998SOL     OW36985   4.546   1.110  10.265  0.2274  0.4583 -0.0520
72998SOL    HW136986   4.607   1.036  10.263 -1.1808 -0.7311 -0.9259
72998SOL    HW236987   4.598   1.183  10.299  1.5392 -1.0290  1.3039
72999SOL     OW36988  11.104   7.483   8.728  0.0622 -0.2538  0.5518
72999SOL    HW136989  11.087   7.390   8.738  0.9070 -0.3961  0.7028
72999SOL    HW236990  11.150   7.491   8.645 -0.5487  0.1078  0.2385
73000SOL     OW36991   1.365   3.014  12.160  0.3399  0.6335 -0.1388
73000SOL    HW136992   1.346   2.948  12.095  0.3492 -0.4969  0.9703
73000SOL    HW236993   1.291   3.075  12.156 -0.7741 -0.6414  0.3013
73001SOL     OW36994   4.114   5.386  10.668 -0.6646  0.3918  0.2725
73001SOL    HW136995   4.062   5.358  10.743  0.4785  0.4081  1.0951
73001SOL    HW236996   4.130   5.479  10.683 -1.3917  0.6793 -0.6014
73002SOL     OW36997   8.991   8.036  12.785 -0.3555 -0.0601 -0.0545
73002SOL    HW136998   8.949   7.953  12.808 -0.1736 -0.1282  0.0342
73002SOL    HW236999   9.018   8.073  12.869  0.7068 -0.5191 -0.1718
73003SOL     OW37000  12.154  13.244   0.642 -0.2817 -0.1705 -0.6064
73003SOL    HW137001  12.167  13.198   0.724 -0.4834  0.2936 -0.3090
73003SOL    HW237002  12.225  13.214   0.586  1.9760  2.0073  0.8578
73004SOL     OW37003   3.372  12.684  12.128  0.4019 -0.2209  0.3258
73004SOL    HW137004   3.320  12.617  12.083 -0.2804 -1.0230  2.2394
73004SOL    HW237005   3.353  12.671  12.221  0.5766  2.3710  0.7810
73005SOL     OW37006   8.884   4.669  11.699  0.2598 -0.3323  0.1759
73005SOL    HW137007   8.798   4.645  11.663 -0.9500  0.4729  2.3395
73005SOL    HW237008   8.943   4.601  11.666 -1.5148 -1.8266 -0.1315
73006SOL     OW37009   4.070   9.743   2.138  0.2022 -0.1325  0.2688
73006SOL    HW137010   4.072   9.681   2.211  0.2550 -0.9967 -0.4462
73006SOL    HW237011   3.991   9.719   2.089  0.8847 -0.4504 -0.6995
73007SOL     OW37012   4.554   9.215   1.471 -0.9330  0.2734 -0.1071
73007SOL    HW137013   4.507   9.291   1.438 -0.4689  0.9214  0.6751
73007SOL    HW237014   4.515   9.198   1.557 -0.0258  0.5741  0.3790
73008SOL     OW37015   8.514   0.436   6.493 -0.0507  0.4312  0.3394
73008SOL    HW137016   8.505   0.531   6.497 -0.5916  0.3536  1.2601
73008SOL    HW237017   8.596   0.422   6.446  0.6277  1.3773  1.1740
73009SOL     OW37018  10.236   3.265  13.145  0.4673 -0.3556  0.2150
73009SOL    HW137019  10.174   3.264  13.072  0.3365 -0.6725  0.3273
73009SOL    HW237020  10.268   3.175  13.150 -2.4945 -1.4603  3.0301
73010SOL     OW37021   9.613   1.389   7.778  0.0511 -0.0375  0.2327
73010SOL    HW137022   9.531   1.438   7.788 -0.0859  0.1995 -1.7492
73010SOL    HW237023   9.630   1.389   7.684  2.5816  0.2856  0.6254
73011SOL     OW37024   5.093   1.170   3.187  0.2687 -0.4271  0.3329
73011SOL    HW137025   5.012   1.174   3.135 -0.1903 -0.4934  1.0220
73011SOL    HW237026   5.145   1.101   3.145  0.4407  0.3432 -0.7625
73012SOL     OW37027  12.532   5.547  11.946 -0.3254 -0.0384 -0.1823
73012SOL    HW137028  12.478   5.587  11.878 -1.5113 -0.6506  0.3659
73012SOL    HW237029  12.556   5.461  11.911  1.8933  0.9373 -1.1971
73013SOL     OW37030   4.306  12.685  10.589 -0.4005  0.1423  0.4923
73013SOL    HW137031   4.306  12.725  10.502 -2.0580 -0.4653  0.1886
73013SOL    HW237032   4.390  12.640  10.594  1.4954  3.4174  0.7724
73014SOL     OW37033   8.758   4.868  11.856  0.8484 -0.1896 -0.1952
73014SOL    HW137034   8.824   4.819  11.807  1.1177 -1.9149  1.7726
73014SOL    HW237035   8.680   4.811  11.855  0.8463 -0.2625  1.2696
73015SOL     OW37036  10.191   9.181   2.307  0.1324  0.2178 -0.4561
73015SOL    HW137037  10.095   9.178   2.307  0.1384 -0.1037 -0.3769
73015SOL    HW237038  10.213   9.253   2.366 -0.0579 -0.2782  0.2488
73016SOL     OW37039  12.406   2.898  12.479  0.0109  0.4915  0.2453
73016SOL    HW137040  12.432   2.948  12.556 -1.3877 -1.2465  1.9447
73016SOL    HW237041  12.334   2.948  12.440  1.0435  1.6228 -0.2603
73017SOL     OW37042   7.544   5.607  12.566  0.0711  0.0553  0.7900
73017SOL    HW137043   7.511   5.691  12.535 -0.7553 -0.8358 -0.8408
73017SOL    HW237044   7.468   5.549  12.564  1.3129 -1.6589 -1.6088
73018SOL     OW37045  10.879  12.162   2.389 -0.0668  0.3109 -0.2541
73018SOL    HW137046  10.905  12.206   2.308  1.5436 -0.8191 -0.3788
73018SOL    HW237047  10.809  12.218   2.425 -0.5286  1.0500 -2.1880
73019SOL     OW37048   2.861   8.074   9.876 -0.8325  0.1722  0.1822
73019SOL    HW137049   2.793   8.062   9.942 -0.7391  2.0963  0.7050
73019SOL    HW237050   2.822   8.133   9.812 -0.5410 -0.8211 -0.9393
73020SOL     OW37051  13.180   4.834  13.660  0.3364  0.0537  0.0201
73020SOL    HW137052  13.202   4.916  13.704  0.1724 -0.5454  1.2563
73020SOL    HW237053  13.251   4.774  13.683  0.7807  0.0054 -1.3829
73021SOL     OW37054   1.931   7.934  11.935  0.0993 -0.0297 -0.9437
73021SOL    HW137055   1.919   7.876  12.010 -0.4430 -0.7085 -1.5408
73021SOL    HW237056   2.017   7.974  11.948 -0.0036 -0.1105  0.0526
73022SOL     OW37057   7.754  13.191   7.574  0.1163  0.3135  0.0833
73022SOL    HW137058   7.670  13.175   7.617  2.1701 -1.4433  3.9989
73022SOL    HW237059   7.781  13.277   7.607 -0.0016  0.7918 -1.0255
73023SOL     OW37060  10.566   1.225   0.705  0.2045  0.2869 -0.4500
73023SOL    HW137061  10.563   1.236   0.800  1.6599 -0.0348 -0.3354
73023SOL    HW237062  10.519   1.144   0.689  1.9755 -0.9538  0.2922
73024SOL     OW37063  10.875   8.206  11.037 -0.2769 -0.4279  0.0533
73024SOL    HW137064  10.963   8.243  11.031 -0.1285 -0.9391 -1.1626
73024SOL    HW237065  10.817   8.282  11.038  0.1985 -0.0194  2.3271
73025SOL     OW37066   5.490   2.615  13.312  0.1268 -0.0341 -0.6084
73025SOL    HW137067   5.513   2.557  13.385 -1.2509 -0.7035 -0.6832
73025SOL    HW237068   5.430   2.564  13.258  0.3717  0.8011 -1.7147
73026SOL     OW37069   8.596  13.333   6.758 -0.1912  0.1832 -0.0596
73026SOL    HW137070   8.574  13.318   6.666 -0.2284 -0.2602  0.0183
73026SOL    HW237071   8.685  13.300   6.767 -0.3945 -0.3101  0.1928
73027SOL     OW37072   3.667   8.607  12.991 -0.5292 -0.5322 -0.6326
73027SOL    HW137073   3.579   8.630  12.961 -1.1974  0.7939  2.1132
73027SOL    HW237074   3.653   8.547  13.064  0.7411  0.9429  0.8897
73028SOL     OW37075   9.479   6.033   4.512 -0.5830  0.1822  0.2944
73028SOL    HW137076   9.415   6.087   4.465 -0.1413  0.1919 -0.2969
73028SOL    HW237077   9.508   5.969   4.448 -1.5405 -1.1635  1.1476
73029SOL     OW37078   8.390  13.854  12.645 -0.2991  0.3465 -0.2085
73029SOL    HW137079   8.311  13.899  12.673 -1.0080 -0.4462 -0.8973
73029SOL    HW237080   8.405  13.886  12.556 -1.3728 -1.4655 -1.0836
73030SOL     OW37081   2.840   0.304   8.046  0.1537 -0.1887  0.1974
73030SOL    HW137082   2.820   0.315   7.953 -0.0294  0.4684  0.3110
73030SOL    HW237083   2.763   0.339   8.092  0.9135  1.0099  0.6101
73031SOL     OW37084   4.095   4.010  12.570 -0.4611 -0.5594  0.0031
73031SOL    HW137085   4.024   4.046  12.623  0.0288  0.7921 -0.2232
73031SOL    HW237086   4.051   3.968  12.496 -1.0270  1.2870 -0.7565
73032SOL     OW37087   3.768   1.953   4.888 -0.5475  0.0008  0.2287
73032SOL    HW137088   3.799   1.969   4.977  2.0806  0.0297 -0.5846
73032SOL    HW237089   3.791   1.861   4.871 -2.8870 -0.6410  0.2123
73033SOL     OW37090   3.086   5.622   6.394 -0.2357 -0.1954 -0.3055
73033SOL    HW137091   3.077   5.700   6.339  2.9131  0.1900 -0.4403
73033SOL    HW237092   3.177   5.622   6.423 -0.2997 -3.4203  0.3630
73034SOL     OW37093   4.385   9.229   9.609 -0.0404  0.4096 -0.2828
73034SOL    HW137094   4.353   9.287   9.540  0.2663  0.9938  0.0562
73034SOL    HW237095   4.346   9.263   9.689  1.9465  1.6205  0.2616
73035SOL     OW37096  11.965   6.523   2.846  0.6242  0.1681 -0.0927
73035SOL    HW137097  11.884   6.495   2.803  0.6542  0.2827 -0.2250
73035SOL    HW237098  12.020   6.555   2.774  0.0767  1.8398  0.1912
73036SOL     OW37099   4.677   5.340   7.908  0.3404 -0.0085 -0.0331
73036SOL    HW137100   4.610   5.363   7.973  0.0861 -0.5635 -0.0991
73036SOL    HW237101   4.709   5.425   7.876  1.1915  0.2928  1.5442
73037SOL     OW37102   4.943  12.892  12.935 -0.2560 -0.6667 -0.0227
73037SOL    HW137103   5.021  12.945  12.925  0.0306 -0.9610  0.6068
73037SOL    HW237104   4.910  12.913  13.023 -2.1559  1.1380 -1.0619
73038SOL     OW37105   9.894   4.934   1.378 -0.2430  0.4479 -0.0278
73038SOL    HW137106   9.878   5.017   1.423  0.9947 -0.1986  1.7290
73038SOL    HW237107   9.942   4.958   1.299  0.4553  1.4076  0.6626
73039SOL     OW37108   3.541  10.090   4.055  0.1746 -0.1638 -0.1024
73039SOL    HW137109   3.571  10.125   3.971  0.2226 -0.6795 -0.3078
73039SOL    HW237110   3.614  10.035   4.085  0.2797  0.2621  0.4261
73040SOL     OW37111  11.025   6.948   4.122  0.2247 -0.5493 -0.2623
73040SOL    HW137112  11.030   7.035   4.082 -2.1628 -0.0541  0.3604
73040SOL    HW237113  10.947   6.952   4.177  0.3573 -2.9430  0.1788
73041SOL     OW37114   9.029   0.320   7.609 -1.1250  0.4657  0.2034
73041SOL    HW137115   8.950   0.326   7.663 -0.9489  0.3300  0.4809
73041SOL    HW237116   9.087   0.263   7.659 -0.4417  1.4087  0.5216
73042SOL     OW37117   5.044   4.038   9.318  0.3507 -0.2504 -0.1091
73042SOL    HW137118   4.971   4.083   9.360  0.1784 -0.3234 -0.3258
73042SOL    HW237119   5.059   3.960   9.372  2.0725  1.1445  1.5393
73043SOL     OW37120  11.718   9.706   0.249 -0.4274  0.2992  0.9096
73043SOL    HW137121  11.628   9.703   0.216  0.0544 -1.5277 -0.3939
73043SOL    HW237122  11.730   9.622   0.293  0.3781  0.9021  1.8959
73044SOL     OW37123   8.106   5.998   7.835  0.3741 -0.2238  0.4951
73044SOL    HW137124   8.089   5.912   7.873  0.3058 -0.0932  0.7626
73044SOL    HW237125   8.185   6.028   7.879  0.8430 -0.4827 -0.1623
73045SOL     OW37126  13.805   4.157  13.349 -0.6477  0.6582 -0.4509
73045SOL    HW137127  13.771   4.222  13.411  0.2931  0.3991  0.3817
73045SOL    HW237128  13.875   4.112  13.398 -0.7008 -0.3937 -1.2983
73046SOL     OW37129  10.449   6.087   1.431 -0.2912 -0.3483  0.2552
73046SOL    HW137130  10.450   6.170   1.382 -0.4619  0.4429  1.5609
73046SOL    HW237131  10.400   6.027   1.375 -0.1707  0.4233 -0.7119
73047SOL     OW37132  11.039   5.310   5.138 -0.1886 -0.1756  0.8044
73047SOL    HW137133  11.042   5.406   5.133  0.1994 -0.0680  2.5163
73047SOL    HW237134  10.968   5.285   5.078  0.5170  1.0620 -0.6190
73048SOL     OW37135   6.423  13.453   9.076 -0.2665  0.4517 -0.1294
73048SOL    HW137136   6.389  13.366   9.058  0.0486  0.6378 -1.8555
73048SOL    HW237137   6.440  13.490   8.989 -1.6906  2.7571  0.4830
73049SOL     OW37138   2.942  10.452   8.295 -0.0795 -0.1936  0.1406
73049SOL    HW137139   3.005  10.428   8.364 -0.8246 -0.1856  0.8337
73049SOL    HW237140   2.913  10.369   8.259 -2.0408 -0.3863  1.9858
73050SOL     OW37141   1.146   3.616   9.798 -0.6899  0.1904  0.4645
73050SOL    HW137142   1.174   3.568   9.720  0.0995 -0.9339  1.4263
73050SOL    HW237143   1.071   3.667   9.767  0.4236  0.8289 -1.3664
73051SOL     OW37144   1.646   5.740   0.700 -0.7027 -0.1982 -0.0660
73051SOL    HW137145   1.663   5.812   0.761  1.1133  0.3103 -1.1217
73051SOL    HW237146   1.550   5.736   0.695 -0.8649  1.0565  1.2659
73052SOL     OW37147  10.568   6.774   1.287  0.0763  0.3459 -0.2087
73052SOL    HW137148  10.586   6.700   1.229 -0.5461  0.8624 -1.0906
73052SOL    HW237149  10.488   6.749   1.334 -0.6890  0.8245 -1.2061
73053SOL     OW37150  12.162   3.813  13.871  0.1198 -0.1681 -0.2832
73053SOL    HW137151  12.067   3.820  13.876  0.2451  1.1964  0.6487
73053SOL    HW237152  12.180   3.719  13.880 -1.0946 -0.3742  0.1052
73054SOL     OW37153   0.365   1.315  11.602  0.2791 -0.3664  0.4291
73054SOL    HW137154   0.435   1.256  11.573  0.5509  0.4882 -0.6989
73054SOL    HW237155   0.407   1.400  11.612 -0.8690  0.5637 -1.9123
73055SOL     OW37156  12.731  10.956   7.146  0.0906 -0.8964 -0.3761
73055SOL    HW137157  12.694  11.039   7.176  0.2988 -0.4720 -1.2792
73055SOL    HW237158  12.815  10.979   7.108  0.8339 -1.7189  0.6862
73056SOL     OW37159  10.154  10.943   7.396  0.1835 -0.1868  0.4338
73056SOL    HW137160  10.166  10.848   7.393 -2.8950 -0.6714  0.0240
73056SOL    HW237161  10.225  10.975   7.451  2.1374 -2.5304 -0.5717
73057SOL     OW37162  12.470   6.006  11.720  0.0394  0.0084 -0.5896
73057SOL    HW137163  12.443   5.957  11.798  2.4962 -1.0981 -0.3563
73057SOL    HW237164  12.418   6.087  11.724 -0.7843 -0.5513  1.5083
73058SOL     OW37165  13.567   9.360   1.593  0.3155 -0.3364  0.2808
73058SOL    HW137166  13.617   9.420   1.539  1.3536 -1.2831  0.1585
73058SOL    HW237167  13.584   9.273   1.556 -2.9121 -0.5958 -0.9598
73059SOL     OW37168   0.398  13.171  10.364 -0.7397 -0.4437  0.3787
73059SOL    HW137169   0.460  13.240  10.386  0.8129 -1.8891  0.7280
73059SOL    HW237170   0.405  13.162  10.269  0.1752 -1.1039  0.4954
73060SOL     OW37171  10.702   1.588   4.624 -0.2920 -0.1356  0.2768
73060SOL    HW137172  10.779   1.584   4.568 -0.2227  0.0365  0.3588
73060SOL    HW237173  10.726   1.538   4.702 -1.1349 -2.1999 -0.7218
73061SOL     OW37174   9.878   2.580   8.703  0.4504  0.0020  0.0530
73061SOL    HW137175   9.956   2.576   8.648  0.7403  0.1084  0.4527
73061SOL    HW237176   9.852   2.672   8.701  0.0969 -0.1074 -0.4095
73062SOL     OW37177   0.670  10.206   6.828  0.4548  0.1894  0.0045
73062SOL    HW137178   0.644  10.262   6.901  0.6953  0.0260  0.2184
73062SOL    HW237179   0.607  10.226   6.759 -0.7155 -0.7468  0.7622
73063SOL     OW37180   8.141   6.186   2.269  0.0105  0.2818  0.0474
73063SOL    HW137181   8.087   6.242   2.213  0.7286  0.3794 -0.5637
73063SOL    HW237182   8.203   6.247   2.310  0.9846 -0.0957 -0.8437
73064SOL     OW37183  13.393  12.595  13.386  0.8532  0.5246  0.0492
73064SOL    HW137184  13.427  12.529  13.447  0.3956  0.8997  0.7341
73064SOL    HW237185  13.300  12.573  13.377  1.5975 -1.8909 -3.5988
73065SOL     OW37186   8.438   4.205   5.032  0.5284  0.0010 -0.1404
73065SOL    HW137187   8.436   4.242   4.943 -1.4806 -0.8604 -0.5119
73065SOL    HW237188   8.450   4.281   5.089  0.1334  0.7986 -1.0781
73066SOL     OW37189   4.811   3.067  12.754  0.2922  0.5004  0.2151
73066SOL    HW137190   4.854   2.993  12.797  1.0905  0.8520  0.0466
73066SOL    HW237191   4.877   3.101  12.694 -0.8657 -0.1286 -1.5024
73067SOL     OW37192   1.095  11.400   9.355 -0.6956 -0.3933  0.5129
73067SOL    HW137193   1.023  11.345   9.325 -0.8297  0.1228 -0.1433
73067SOL    HW237194   1.174  11.351   9.332 -0.7965 -0.0320 -0.6832
73068SOL     OW37195   7.503   1.547   4.987 -0.1368  0.3700  0.0637
73068SOL    HW137196   7.453   1.603   5.047  1.1233  0.0220  1.4747
73068SOL    HW237197   7.562   1.497   5.044 -0.1889 -1.3230 -1.3010
73069SOL     OW37198   3.878   2.885   7.382 -0.2096  0.2909  0.0765
73069SOL    HW137199   3.787   2.873   7.409  0.0629  0.2582  1.0247
73069SOL    HW237200   3.907   2.798   7.355 -1.7347  0.9593 -4.6235
73070SOL     OW37201   0.001   3.555   0.935  0.0679  0.4622 -0.1845
73070SOL    HW137202   0.054   3.629   0.907  1.3240 -1.1486 -2.4477
73070SOL    HW237203  -0.078   3.594   0.972  0.1568  2.9281 -2.3241
73071SOL     OW37204   1.369   4.107   5.681 -0.1960  0.9909 -0.0639
73071SOL    HW137205   1.325   4.183   5.720 -1.5209 -0.4129  1.3157
73071SOL    HW237206   1.326   4.094   5.597 -0.1117  1.6281 -0.2084
73072SOL     OW37207   0.516   4.431   3.512  0.3408  0.1728 -0.1846
73072SOL    HW137208   0.532   4.499   3.446 -0.4141  0.7534  0.2118
73072SOL    HW237209   0.421   4.418   3.511 -0.1581  2.4327  2.8774
73073SOL     OW37210   9.831   3.325  13.314 -0.3539 -0.2318  0.1820
73073SOL    HW137211   9.764   3.347  13.379 -0.5399  0.0378 -0.0970
73073SOL    HW237212   9.781   3.285  13.242 -0.2703  0.3775 -0.2183
73074SOL     OW37213   0.613  13.102   1.414  0.1341 -0.0956  0.4648
73074SOL    HW137214   0.618  13.126   1.322 -2.2921 -0.0380  0.2834
73074SOL    HW237215   0.657  13.174   1.460 -0.6865  1.0619 -0.5162
73075SOL     OW37216   1.906  12.651   5.252 -0.4022 -0.0671  0.9843
73075SOL    HW137217   1.987  12.660   5.303  0.3017  0.3541 -0.1774
73075SOL    HW237218   1.912  12.565   5.212 -0.5168 -0.0260  0.8780
73076SOL     OW37219   0.338   0.665  12.105  0.2072  0.1947  0.5127
73076SOL    HW137220   0.274   0.596  12.088  0.1905 -0.3585  2.5133
73076SOL    HW237221   0.408   0.620  12.153  0.9188  1.2701  0.5066
73077SOL     OW37222   0.958   1.813   6.320  0.2030  0.0150  0.1572
73077SOL    HW137223   0.954   1.743   6.386  0.1526 -1.2139 -1.0957
73077SOL    HW237224   0.953   1.894   6.371 -1.7569 -0.8812  1.5537
73078SOL     OW37225  12.097  14.008   3.672  0.4308 -0.2619  0.4476
73078SOL    HW137226  12.071  14.100   3.665  0.0390 -0.1378  2.8651
73078SOL    HW237227  12.015  13.961   3.691  1.1003 -0.5458  3.0346
73079SOL     OW37228   3.110   4.966  13.250 -0.1878  0.4329  0.1570
73079SOL    HW137229   3.183   4.916  13.213 -0.7392  0.8379 -1.5326
73079SOL    HW237230   3.145   5.054  13.263 -0.8361  1.1354 -2.4081
73080SOL     OW37231   3.451   5.567  11.622  0.2793  0.1083  0.1710
73080SOL    HW137232   3.490   5.544  11.538 -1.2699  0.7534 -0.7794
73080SOL    HW237233   3.413   5.485  11.654 -0.6257  0.2010 -0.6215
73081SOL     OW37234   9.282  10.323   3.272  0.0282 -0.1116 -0.4420
73081SOL    HW137235   9.211  10.271   3.234 -0.3007  0.1622 -0.2144
73081SOL    HW237236   9.348  10.259   3.298 -0.5064 -0.4485  0.1176
73082SOL     OW37237  10.824  12.808   2.766  0.6234 -0.0838  0.3785
73082SOL    HW137238  10.813  12.894   2.806  0.2174  0.2108 -0.3378
73082SOL    HW237239  10.890  12.765   2.819  0.7492  0.6280  0.8159
73083SOL     OW37240   0.427   8.713   6.589  0.2029  0.5954 -0.2814
73083SOL    HW137241   0.460   8.772   6.656  2.0783  0.5822 -1.1341
73083SOL    HW237242   0.334   8.732   6.584  0.0978  0.9489  1.9437
73084SOL     OW37243   7.369  11.939   0.257 -0.1222 -0.1511  0.4838
73084SOL    HW137244   7.448  11.900   0.219 -0.4048  0.8990 -1.2924
73084SOL    HW237245   7.353  12.016   0.204 -3.2598 -1.1927 -0.2560
73085SOL     OW37246   6.298  10.369   5.895  0.0558 -0.4585 -0.1937
73085SOL    HW137247   6.304  10.282   5.935  0.9645  0.2959  1.4123
73085SOL    HW237248   6.208  10.396   5.910  0.6895  0.4092  2.8808
73086SOL     OW37249   5.874   9.034   9.843  0.1786 -0.4381 -0.1837
73086SOL    HW137250   5.900   8.990   9.763 -2.1673 -1.8539 -0.2848
73086SOL    HW237251   5.840   9.118   9.814  1.2443 -0.0702 -0.4106
73087SOL     OW37252  10.899   3.940   6.520  0.0823  0.6856  0.1584
73087SOL    HW137253  10.892   3.890   6.439  0.7747 -1.0337  1.0882
73087SOL    HW237254  10.917   4.030   6.492 -0.7355  0.3482 -1.5869
73088SOL     OW37255   8.421  11.723  13.998 -0.0606 -0.2438 -0.4837
73088SOL    HW137256   8.462  11.713  13.912  0.6257  0.5775 -0.2718
73088SOL    HW237257   8.481  11.679  14.059 -0.5263 -0.7909 -0.4176
73089SOL     OW37258   7.947   9.005  12.760 -0.1454  0.0728 -0.3716
73089SOL    HW137259   8.041   9.016  12.748 -0.1680 -0.9865 -1.7812
73089SOL    HW237260   7.923   8.937  12.697 -2.0424  1.1640 -0.9066
73090SOL     OW37261  12.040   4.360   5.965 -0.0523  0.0744 -0.0118
73090SOL    HW137262  12.033   4.300   5.891  0.3461  0.4274 -0.3438
73090SOL    HW237263  12.120   4.410   5.948 -0.5441  0.9289  0.0820
73091SOL     OW37264   7.480  12.689   3.188 -0.7157 -0.0377 -0.1376
73091SOL    HW137265   7.392  12.655   3.204 -0.9898  0.1813 -1.1211
73091SOL    HW237266   7.520  12.626   3.128 -0.6218  0.4583 -0.6076
73092SOL     OW37267  13.440   5.817   6.527  0.1196  0.2322  0.0266
73092SOL    HW137268  13.462   5.879   6.596  1.6180 -0.6255  0.3499
73092SOL    HW237269  13.346   5.800   6.540  0.4266 -0.1822  2.1046
73093SOL     OW37270   7.168  13.424  11.924 -0.4588  0.3902  0.0901
73093SOL    HW137271   7.158  13.470  11.840 -2.5007 -2.7698 -1.6256
73093SOL    HW237272   7.241  13.364  11.910  1.4267  2.0956  1.8939
73094SOL     OW37273   9.887   7.121   5.430 -0.5416  0.2017  0.5108
73094SOL    HW137274   9.876   7.112   5.524  1.0535 -1.7565  0.5704
73094SOL    HW237275   9.977   7.093   5.413 -0.3711  1.7175 -1.4663
73095SOL     OW37276   0.358  12.564  12.980  0.2403 -0.5646 -0.2083
73095SOL    HW137277   0.415  12.517  13.041  2.0374 -0.4497 -1.7139
73095SOL    HW237278   0.317  12.495  12.927 -2.1037 -0.7364  1.6539
73096SOL     OW37279   4.548   0.904  13.985  0.0373  0.0658 -1.0948
73096SOL    HW137280   4.531   0.881  13.893 -1.3482  2.5872 -1.5961
73096SOL    HW237281   4.531   0.999  13.988  1.0632  0.2358  1.5641
73097SOL     OW37282   3.982   3.432  13.923  0.1879 -0.0070 -0.5286
73097SOL    HW137283   3.894   3.411  13.955  0.0266  0.0951 -0.8981
73097SOL    HW237284   4.022   3.347  13.905 -0.2060 -0.0253 -1.3375
73098SOL     OW37285   7.173   4.925   2.923  0.5264  0.2450 -0.1486
73098SOL    HW137286   7.111   4.892   2.857 -0.8576  0.5056  0.9878
73098SOL    HW237287   7.125   4.993   2.970  0.9367 -0.9089  2.0920
73099SOL     OW37288  13.010   5.458   5.707 -0.2574  0.3283  0.1778
73099SOL    HW137289  12.958   5.538   5.704 -1.1928 -0.2929 -0.4964
73099SOL    HW237290  13.090   5.480   5.659 -1.1421  0.4149 -1.2869
73100SOL     OW37291  11.026   6.440   2.140 -0.6699 -0.5429  0.5367
73100SOL    HW137292  10.971   6.501   2.091  0.4632  0.4666  0.4850
73100SOL    HW237293  10.974   6.417   2.217 -2.0757 -1.3984 -0.6098
73101SOL     OW37294   7.362   3.438   5.096  0.1752  0.2789 -0.0573
73101SOL    HW137295   7.422   3.377   5.053 -1.7844 -0.9207 -1.2091
73101SOL    HW237296   7.275   3.404   5.077 -0.8798  0.7576  3.3289
73102SOL     OW37297   2.744  13.679   2.238 -0.2060 -0.1002 -0.1118
73102SOL    HW137298   2.775  13.588   2.241  0.5100  0.1504  0.0577
73102SOL    HW237299   2.804  13.727   2.294 -0.9161  0.3866  0.2446
73103SOL     OW37300   1.701   6.577   3.104 -0.1790 -0.3497 -0.2562
73103SOL    HW137301   1.772   6.553   3.044  1.2976  1.3980  0.7108
73103SOL    HW237302   1.722   6.531   3.185  0.0575  0.4642  0.1482
73104SOL     OW37303   2.312   4.227  13.813 -0.5776 -0.5027 -0.2618
73104SOL    HW137304   2.233   4.280  13.812 -0.3217  0.0994  2.4244
73104SOL    HW237305   2.330   4.214  13.906  0.7160 -3.3123 -0.7956
73105SOL     OW37306  10.868  12.947   6.419 -0.0844  0.1240  0.1120
73105SOL    HW137307  10.949  12.997   6.410  0.8411 -1.5012 -1.0712
73105SOL    HW237308  10.889  12.879   6.482  0.4381 -2.0270 -2.2400
73106SOL     OW37309   4.967   3.772   9.956 -0.6432  0.0720  0.2799
73106SOL    HW137310   4.948   3.678   9.945 -0.4439  0.2851 -2.5693
73106SOL    HW237311   5.023   3.775  10.034 -1.5740 -2.0175  1.1356
73107SOL     OW37312  12.519   6.561   4.202 -0.0081  0.4118 -0.3148
73107SOL    HW137313  12.613   6.577   4.204 -0.2567  2.9883 -2.5732
73107SOL    HW237314  12.507   6.497   4.132  0.0808 -0.6699  0.6271
73108SOL     OW37315  10.804  12.908   3.697 -0.2485 -0.7495  0.5973
73108SOL    HW137316  10.726  12.873   3.655 -0.1779 -2.2793  1.6359
73108SOL    HW237317  10.862  12.932   3.625 -0.6652 -2.0288 -0.2069
73109SOL     OW37318   3.180   8.103   6.364  0.1073  0.4668 -0.3709
73109SOL    HW137319   3.213   8.146   6.443  1.6980 -0.0319 -0.7330
73109SOL    HW237320   3.139   8.023   6.396  0.5379  0.3780 -0.0296
73110SOL     OW37321  13.768  13.590   7.001 -0.5188 -0.3393  0.3304
73110SOL    HW137322  13.849  13.631   6.971 -1.3641  0.5485 -0.8257
73110SOL    HW237323  13.774  13.500   6.968 -0.1373 -0.1910 -0.0150
73111SOL     OW37324   2.092   2.259   0.894  0.3591  0.2154 -0.1199
73111SOL    HW137325   2.142   2.329   0.936  2.1180 -0.5467 -0.8729
73111SOL    HW237326   2.132   2.248   0.808 -0.1160 -1.4711 -0.1603
73112SOL     OW37327  11.038   0.591   5.719 -0.5283 -0.3621  0.0661
73112SOL    HW137328  11.108   0.533   5.751 -0.2685 -0.2033 -0.2060
73112SOL    HW237329  11.055   0.599   5.625 -1.4166 -1.0134 -0.1598
73113SOL     OW37330   6.263   9.886  13.771  0.0752 -0.1920 -0.5265
73113SOL    HW137331   6.270   9.804  13.723 -0.8594 -0.4445 -0.2599
73113SOL    HW237332   6.304   9.868  13.856  0.4147 -0.1899 -0.6871
73114SOL     OW37333  11.587   6.698  13.348 -0.3216  0.6634  0.1733
73114SOL    HW137334  11.674   6.703  13.388 -0.0612 -0.2429 -0.2501
73114SOL    HW237335  11.594   6.628  13.283 -1.6962 -0.3093  0.9958
73115SOL     OW37336   2.548   6.816   8.204 -0.0713 -0.3068  0.2256
73115SOL    HW137337   2.560   6.798   8.111 -0.3143  1.4939 -0.2007
73115SOL    HW237338   2.458   6.847   8.211  0.2624  0.5634  0.8647
73116SOL     OW37339  11.783  11.574  13.040  0.2633  0.2735  0.4822
73116SOL    HW137340  11.837  11.613  13.108 -0.3918 -1.2855  1.9632
73116SOL    HW237341  11.695  11.607  13.056  0.2850  0.7483 -0.3039
73117SOL     OW37342  11.162   6.718   4.110  0.2600  0.3682 -0.5408
73117SOL    HW137343  11.102   6.789   4.088 -1.5153 -0.7349  0.5791
73117SOL    HW237344  11.106   6.645   4.136  2.0641 -1.0192 -0.3084
73118SOL     OW37345  12.358   5.009  13.262 -0.0405  0.5476 -0.1650
73118SOL    HW137346  12.357   5.057  13.345  1.3416  2.7671 -1.3094
73118SOL    HW237347  12.277   5.036  13.219 -0.0856  0.5148 -0.1009
73119SOL     OW37348   0.833  13.041   2.216  0.0343 -0.2691 -0.6603
73119SOL    HW137349   0.786  13.049   2.299 -0.4983 -0.7557 -0.9103
73119SOL    HW237350   0.792  12.967   2.172  0.0064  0.2699 -1.5652
73120SOL     OW37351   5.074  14.114   4.094  0.3474  0.3902 -0.0177
73120SOL    HW137352   5.015  14.076   4.159 -1.0619  0.1511 -1.3537
73120SOL    HW237353   5.106  14.039   4.044 -0.3634  0.7097 -0.9893
73121SOL     OW37354   3.556  11.275  12.051 -0.1177 -0.3430  0.2258
73121SOL    HW137355   3.610  11.285  11.972  0.6340 -1.0908  0.6237
73121SOL    HW237356   3.478  11.328  12.034  0.6629  0.6399 -0.4406
73122SOL     OW37357  11.724   0.684   7.557  0.6310  0.2442 -0.1973
73122SOL    HW137358  11.793   0.741   7.524  0.2456  1.5088  1.0474
73122SOL    HW237359  11.764   0.639   7.632 -0.3906  2.5728  1.8941
73123SOL     OW37360   3.368   0.458   7.608  0.2109  0.1008 -0.1191
73123SOL    HW137361   3.312   0.480   7.533  0.4162 -1.1093 -0.6500
73123SOL    HW237362   3.441   0.520   7.603 -0.0086  0.3213 -0.6540
73124SOL     OW37363   5.530   6.432   1.226  0.1272  0.4715  0.2538
73124SOL    HW137364   5.541   6.491   1.301  1.3771  1.9790 -1.0541
73124SOL    HW237365   5.513   6.346   1.266  1.2840  1.1096  2.2731
73125SOL     OW37366   1.013  13.575  10.861  0.4810  0.5611  0.7947
73125SOL    HW137367   1.080  13.613  10.918  1.0289  0.0782  0.4878
73125SOL    HW237368   1.043  13.594  10.772  1.1111 -1.1102  0.6165
73126SOL     OW37369   0.746   5.448  10.674 -0.0116  0.1573 -0.5549
73126SOL    HW137370   0.673   5.505  10.651  0.0838  0.3940 -0.2756
73126SOL    HW237371   0.722   5.410  10.758 -0.0812 -0.2255 -0.7458
73127SOL     OW37372  10.416  14.145   2.383 -0.5428  0.3079 -0.4816
73127SOL    HW137373  10.441  14.204   2.312  1.2237  1.3799  0.9645
73127SOL    HW237374  10.369  14.201   2.445 -1.2700 -0.4239 -0.3591
73128SOL     OW37375   3.094   0.000  13.994 -0.2758  0.3449 -0.1265
73128SOL    HW137376   3.106  -0.011  13.899  0.0016 -1.4068  0.0854
73128SOL    HW237377   3.179   0.029  14.025  0.3108 -1.2641 -0.1389
73129SOL     OW37378   0.166  13.222   9.065  0.4588 -0.1196  0.3392
73129SOL    HW137379   0.218  13.142   9.068 -0.6964 -0.9122 -0.2980
73129SOL    HW237380   0.217  13.282   9.011  1.2365 -0.4805  0.6591
73130SOL     OW37381   8.403   1.119   3.536  0.4368 -0.7357  0.1135
73130SOL    HW137382   8.421   1.025   3.530  0.0858 -0.8401  0.5746
73130SOL    HW237383   8.359   1.129   3.620  0.3135 -0.1796 -0.0135
73131SOL     OW37384   3.901   3.531   0.111  0.2931  0.0868 -0.3101
73131SOL    HW137385   3.864   3.558   0.026 -0.6654 -0.9627 -0.2388
73131SOL    HW237386   3.995   3.540   0.099  0.1975 -0.3513 -1.6092
73132SOL     OW37387   0.623  12.662   7.697  0.6702  0.4470 -0.2070
73132SOL    HW137388   0.689  12.593   7.706 -0.0104 -0.1869  0.0129
73132SOL    HW237389   0.574  12.658   7.779  0.5559  1.1269 -0.2408
73133SOL     OW37390  13.193   2.202  12.585 -0.2623 -0.3155 -0.0458
73133SOL    HW137391  13.097   2.199  12.588 -0.3758  0.8858 -1.3486
73133SOL    HW237392  13.217   2.124  12.534 -0.5623 -0.4167 -0.0360
73134SOL     OW37393   6.758  10.654   6.617 -0.0520 -0.2030  0.0470
73134SOL    HW137394   6.737  10.670   6.525 -2.4779  3.5566  1.0135
73134SOL    HW237395   6.849  10.681   6.626 -0.0498  0.2643 -1.1377
73135SOL     OW37396   7.990  13.997   2.683  1.1252  0.3086  0.2761
73135SOL    HW137397   7.894  14.000   2.689  1.1611 -0.7497  1.8505
73135SOL    HW237398   8.007  13.945   2.604  0.3265 -2.3668  1.7286
73136SOL     OW37399  10.967   3.722   4.813 -0.2881  0.3184 -0.7288
73136SOL    HW137400  10.929   3.809   4.823  0.9238  1.0606 -2.2578
73136SOL    HW237401  11.017   3.709   4.894 -4.2012 -1.0352  1.7530
73137SOL     OW37402   4.919   3.875   6.869  0.2730  0.1535 -0.1541
73137SOL    HW137403   4.871   3.866   6.952  0.2988  3.9072  0.4481
73137SOL    HW237404   5.010   3.859   6.893  0.2478  0.9500  0.5392
73138SOL     OW37405  12.449   2.595  13.832 -0.1935 -0.1227  0.0358
73138SOL    HW137406  12.415   2.522  13.780 -2.2300  0.4219  0.5007
73138SOL    HW237407  12.376   2.619  13.890 -0.4196  3.6239 -1.5384
73139SOL     OW37408   8.557   0.523  11.117  0.9652  0.3642 -0.5778
73139SOL    HW137409   8.469   0.550  11.090  1.6230  2.0823 -1.1722
73139SOL    HW237410   8.547   0.432  11.145 -1.2780  0.9187  0.7077
73140SOL     OW37411   8.361   0.735  13.311 -0.1082  0.4098  0.2883
73140SOL    HW137412   8.292   0.699  13.254 -0.4962  0.3922  0.7537
73140SOL    HW237413   8.442   0.718  13.264 -0.3325 -0.5464  0.2135
73141SOL     OW37414   1.095  11.172   8.352  0.0960 -0.4830 -1.2311
73141SOL    HW137415   1.141  11.231   8.411 -0.1603 -0.0003 -1.5097
73141SOL    HW237416   1.018  11.143   8.403  0.1411 -0.4595 -1.1487
73142SOL     OW37417  13.474  10.167   3.970  0.1497 -0.3503 -0.3199
73142SOL    HW137418  13.487  10.172   4.065  1.3495 -0.9219 -0.4332
73142SOL    HW237419  13.385  10.199   3.956 -0.0271 -0.2165  0.9928
73143SOL     OW37420   2.910   5.573  11.696 -0.0879 -0.3285  0.7316
73143SOL    HW137421   2.996   5.533  11.679 -0.1585 -0.6591  1.1489
73143SOL    HW237422   2.852   5.531  11.632 -0.0532 -0.5161  0.8208
73144SOL     OW37423  10.271  13.953   8.450 -0.4468  0.0994 -0.1218
73144SOL    HW137424  10.326  14.010   8.396 -0.0090 -0.6227 -0.4502
73144SOL    HW237425  10.237  13.888   8.389 -1.1072  0.1212  0.2150
73145SOL     OW37426   7.805   7.241  10.335 -0.4898  0.1461 -0.5997
73145SOL    HW137427   7.783   7.205  10.421 -0.0843  0.4175 -0.3790
73145SOL    HW237428   7.758   7.324  10.331 -0.0685  0.3962 -0.4120
73146SOL     OW37429   5.054   8.551  11.558  0.6060  0.0502 -0.0836
73146SOL    HW137430   5.113   8.598  11.616  1.6154 -2.1734  0.8056
73146SOL    HW237431   5.107   8.533  11.480 -0.4453  2.1739 -1.3768
73147SOL     OW37432  11.842   7.055  13.066  0.3943 -0.4935  0.2848
73147SOL    HW137433  11.774   7.104  13.020  0.5357 -1.4059 -0.9313
73147SOL    HW237434  11.924   7.099  13.043  0.4043 -0.5772  0.1571
73148SOL     OW37435   7.744   7.058   1.121 -0.7816  0.5274 -0.0912
73148SOL    HW137436   7.698   7.087   1.042 -0.3042 -0.9049 -0.9270
73148SOL    HW237437   7.824   7.111   1.123  0.0069 -0.5321 -1.5117
73149SOL     OW37438   3.850   0.074   4.803  0.0200 -0.2000  0.4555
73149SOL    HW137439   3.798   0.062   4.723 -1.6270 -0.1205  1.4732
73149SOL    HW237440   3.910  -0.000   4.804  0.6806  0.2581 -1.2878
73150SOL     OW37441  10.350  13.065  10.492  0.2581 -0.3598 -0.7048
73150SOL    HW137442  10.380  13.000  10.429 -0.8057 -0.1106 -1.4834
73150SOL    HW237443  10.268  13.099  10.456  0.1441  0.5148  0.3079
73151SOL     OW37444   0.873   0.751   8.558  0.2992 -0.1451  0.2464
73151SOL    HW137445   0.811   0.780   8.624  0.3182 -0.1499  0.2660
73151SOL    HW237446   0.935   0.695   8.605  1.2420  1.0930  0.5553
73152SOL     OW37447   8.207   4.338  12.143 -0.4516  0.4711  0.3052
73152SOL    HW137448   8.193   4.354  12.236 -0.2412 -1.3251  0.6819
73152SOL    HW237449   8.302   4.341  12.131 -0.5387  4.1006 -0.5840
73153SOL     OW37450  12.654   5.506  13.488 -0.0017 -0.6339  0.6646
73153SOL    HW137451  12.645   5.476  13.579  2.8197  0.0490  1.2950
73153SOL    HW237452  12.687   5.429  13.441 -0.0487 -0.5973  0.5725
73154SOL     OW37453  12.305   6.343   8.015 -0.1852 -0.1145 -0.0922
73154SOL    HW137454  12.285   6.250   8.024  0.8531 -0.4513 -0.9828
73154SOL    HW237455  12.278   6.365   7.926 -0.9796  0.6014  0.3100
73155SOL     OW37456   6.822   8.744  12.281 -0.2593  0.3271 -0.0181
73155SOL    HW137457   6.794   8.732  12.191  0.5260 -1.9489 -0.0334
73155SOL    HW237458   6.815   8.838  12.297 -1.9860  0.5711 -1.9043
73156SOL     OW37459   6.882   7.597  10.253  0.2718 -0.8930  0.2149
73156SOL    HW137460   6.927   7.574  10.334  1.9396 -0.1769 -0.4581
73156SOL    HW237461   6.930   7.550  10.184 -1.6151 -2.1546 -0.3270
73157SOL     OW37462   0.535  10.930   7.267  0.1887  0.5070 -0.2942
73157SOL    HW137463   0.563  10.882   7.189  0.3590 -0.5747  0.4229
73157SOL    HW237464   0.440  10.923   7.267  0.2646 -0.8733  0.4346
73158SOL     OW37465  10.022   1.522   0.191 -0.1431  0.8567 -0.2439
73158SOL    HW137466  10.002   1.439   0.234 -2.2452  1.9323  1.0734
73158SOL    HW237467  10.104   1.551   0.230  0.9731 -0.8598 -1.2086
73159SOL     OW37468   8.882   0.855   3.574 -0.0756  0.0378  0.5276
73159SOL    HW137469   8.827   0.778   3.590  0.2679 -0.2799  0.2050
73159SOL    HW237470   8.972   0.822   3.578  0.1290  0.6681  1.6840
73160SOL     OW37471   8.478  10.685   1.404  0.2860 -0.0096  0.3064
73160SOL    HW137472   8.459  10.747   1.334  1.0787 -1.4205 -1.2401
73160SOL    HW237473   8.417  10.612   1.389  1.2128 -0.8219  0.3814
73161SOL     OW37474   2.415   8.814   0.065 -0.2673  0.1070 -0.0707
73161SOL    HW137475   2.419   8.806  -0.030  0.9170 -0.2880 -0.0054
73161SOL    HW237476   2.411   8.908   0.081 -0.3403  0.1806 -0.5092
73162SOL     OW37477   9.052   4.575  10.158 -0.2636  0.4927 -0.2832
73162SOL    HW137478   9.100   4.521  10.222  0.4643  0.6862 -0.6522
73162SOL    HW237479   9.104   4.567  10.078 -1.8038 -0.7303 -1.2165
73163SOL     OW37480  11.049   7.150   1.082 -0.1469  0.2578  0.3550
73163SOL    HW137481  11.143   7.140   1.073 -0.0738  1.5640 -0.6657
73163SOL    HW237482  11.016   7.144   0.992 -1.0516 -0.2929  0.7121
73164SOL     OW37483   0.123  12.826   0.883  0.2174  0.1022 -0.4772
73164SOL    HW137484   0.071  12.899   0.850  0.1876  0.8788  1.1710
73164SOL    HW237485   0.107  12.825   0.977 -0.2935 -2.4816 -0.5172
73165SOL     OW37486  12.846  11.875  10.480 -0.0096  0.0626  0.0904
73165SOL    HW137487  12.757  11.858  10.451  0.0948 -0.0576 -0.1617
73165SOL    HW237488  12.855  11.825  10.561 -0.8792  1.7716  1.2988
73166SOL     OW37489   1.497   6.791   1.797 -0.2373 -0.9887  1.0117
73166SOL    HW137490   1.579   6.744   1.786 -0.2196 -0.6842 -0.3102
73166SOL    HW237491   1.432   6.736   1.752 -0.2437  0.1124 -0.4033
73167SOL     OW37492   0.489   7.609   1.744 -0.1230 -0.0615 -0.1979
73167SOL    HW137493   0.496   7.637   1.653 -0.9600 -1.2941 -0.6724
73167SOL    HW237494   0.426   7.537   1.742  1.5463 -1.6533  1.0181
73168SOL     OW37495   1.201   8.786  10.044  0.0039  0.4324 -0.0073
73168SOL    HW137496   1.162   8.873  10.054 -2.1407 -0.7081  2.5598
73168SOL    HW237497   1.265   8.780  10.114  0.2005 -0.0486 -0.2240
73169SOL     OW37498   8.315  10.171  10.795  0.2736  0.4793 -0.4476
73169SOL    HW137499   8.251  10.242  10.795  1.0154  1.1683 -0.6075
73169SOL    HW237500   8.267  10.095  10.761 -0.2458  1.1793 -1.3239
73170SOL     OW37501   2.849   1.739  13.891 -0.0218  0.8379  0.7788
73170SOL    HW137502   2.820   1.711  13.804  0.7712  2.9498 -0.2259
73170SOL    HW237503   2.859   1.657  13.941 -2.4367 -0.3060 -0.4475
73171SOL     OW37504   1.824   0.517   0.466  0.4751  0.5901 -0.2523
73171SOL    HW137505   1.757   0.581   0.441 -2.1837 -2.0389 -0.4491
73171SOL    HW237506   1.849   0.475   0.384  0.3970 -0.2217  0.1284
73172SOL     OW37507   5.696   1.081   7.087  0.3273 -0.4489 -0.4707
73172SOL    HW137508   5.679   1.155   7.028  0.5944 -0.6558 -0.8104
73172SOL    HW237509   5.768   1.034   7.046 -0.1281 -1.1466 -0.4769
73173SOL     OW37510  12.100   1.215   0.994  0.0105  0.5112  0.3074
73173SOL    HW137511  12.104   1.131   0.949  0.1799  1.5603 -1.7478
73173SOL    HW237512  12.033   1.203   1.062  1.8018 -1.9977  1.8099
73174SOL     OW37513   7.117   5.992   1.848  0.0554  0.4163 -0.6116
73174SOL    HW137514   7.129   5.964   1.757 -0.1013 -1.1024 -0.1969
73174SOL    HW237515   7.054   6.063   1.844 -0.4057 -0.0434 -1.6419
73175SOL     OW37516   4.830   2.865   2.431 -0.4232 -0.2380 -0.1708
73175SOL    HW137517   4.856   2.951   2.464 -0.4403 -0.2572 -0.1067
73175SOL    HW237518   4.790   2.821   2.506  0.4169 -0.6486  0.0409
73176SOL     OW37519   6.365   4.093   2.236  0.0080  0.1511 -0.1389
73176SOL    HW137520   6.370   3.999   2.222  0.2687 -0.0146  0.9667
73176SOL    HW237521   6.323   4.127   2.157 -1.5609 -1.0701  0.1215
73177SOL     OW37522   6.693   8.566   9.291  0.1816 -0.4277  0.1751
73177SOL    HW137523   6.781   8.554   9.329  0.2777 -1.8119 -0.4374
73177SOL    HW237524   6.656   8.639   9.341  1.6404  0.1196  0.5139
73178SOL     OW37525  10.491   9.292   8.879  0.0219 -0.3669 -0.3224
73178SOL    HW137526  10.460   9.218   8.931  1.6090 -0.1883  0.9493
73178SOL    HW237527  10.438   9.289   8.799 -0.9934 -1.9461  0.3677
73179SOL     OW37528   4.478  11.133   1.411  1.0265 -0.1969  0.4337
73179SOL    HW137529   4.440  11.083   1.339  1.8396 -1.9319  1.1741
73179SOL    HW237530   4.425  11.110   1.487  1.5830 -0.1244  0.8434
73180SOL     OW37531   5.379   8.201  13.159 -0.2387 -0.6861  0.4839
73180SOL    HW137532   5.459   8.156  13.184 -0.0078 -0.5837 -0.0544
73180SOL    HW237533   5.343   8.235  13.241  1.6545  1.5566  0.4788
73181SOL     OW37534  11.361  11.809  10.747 -0.2701 -0.8114 -0.0499
73181SOL    HW137535  11.436  11.869  10.754  2.5298 -3.7862 -1.4906
73181SOL    HW237536  11.339  11.787  10.838  0.0881  0.7054  0.4225
73182SOL     OW37537   0.027  10.316  12.095  0.3626  0.1691  0.0408
73182SOL    HW137538   0.026  10.352  12.184 -0.1474 -1.1896  0.6082
73182SOL    HW237539  -0.051  10.354  12.053  1.1711  1.6386 -0.2033
73183SOL     OW37540   4.298  10.581   3.976  0.2484 -0.5214 -0.1357
73183SOL    HW137541   4.321  10.614   3.889 -0.2577  0.0242 -0.0680
73183SOL    HW237542   4.202  10.579   3.977  0.2434 -0.2933  0.4913
73184SOL     OW37543  10.504   4.819   5.057  0.2438  0.1773 -0.0470
73184SOL    HW137544  10.532   4.810   4.966  2.6713 -0.9325  0.7233
73184SOL    HW237545  10.410   4.838   5.052  0.3079  0.1048 -2.7498
73185SOL     OW37546  13.177  13.677  11.836 -0.3452 -0.3347  0.2350
73185SOL    HW137547  13.139  13.691  11.923  0.6351 -2.2717  1.0266
73185SOL    HW237548  13.150  13.754  11.785 -3.2675 -0.4680  1.4217
73186SOL     OW37549   4.048   4.194   1.575 -0.2603  0.1242 -0.0646
73186SOL    HW137550   3.983   4.124   1.571 -1.4171  1.1204  0.3990
73186SOL    HW237551   4.133   4.150   1.568 -0.9823 -1.2013 -0.8459
73187SOL     OW37552  12.039  11.120   7.378 -0.3390  0.5057  0.0149
73187SOL    HW137553  11.951  11.089   7.401 -0.4426  0.4709 -0.4058
73187SOL    HW237554  12.083  11.042   7.342 -0.9139  1.0261 -1.9279
73188SOL     OW37555  13.314   1.669  11.933  0.4401  0.1680  0.5549
73188SOL    HW137556  13.395   1.654  11.983 -0.3367 -1.7376  1.3517
73188SOL    HW237557  13.282   1.753  11.964  1.4301  0.3288  1.2132
73189SOL     OW37558  10.258   2.812   5.236  0.4973 -0.6839 -0.5796
73189SOL    HW137559  10.321   2.880   5.260 -1.3108  0.9679 -0.3057
73189SOL    HW237560  10.175   2.858   5.226 -0.6564 -2.7530 -1.1392
73190SOL     OW37561   1.062  13.923   7.245  0.4612  0.2051  0.6591
73190SOL    HW137562   1.068  13.849   7.305  0.3152 -1.5261 -1.3218
73190SOL    HW237563   1.150  13.930   7.208 -0.1363 -0.7105 -1.0381
73191SOL     OW37564   4.318   2.084   6.649  0.4898  0.4568  0.1016
73191SOL    HW137565   4.307   2.022   6.577 -0.2689  1.5175 -0.7388
73191SOL    HW237566   4.313   2.170   6.607 -2.8163  1.2180  1.6975
73192SOL     OW37567   7.179   0.307  11.959 -0.4718  0.1469 -0.3621
73192SOL    HW137568   7.222   0.329  11.876  0.3935  2.1908  0.5589
73192SOL    HW237569   7.178   0.211  11.961  0.6275  0.0569 -2.1440
73193SOL     OW37570  13.972   9.502   5.677 -0.4251  0.2508 -0.0963
73193SOL    HW137571  13.883   9.478   5.651 -0.3666  0.8377 -0.8548
73193SOL    HW237572  14.010   9.420   5.709 -1.0245 -0.1404 -0.3599
73194SOL     OW37573   6.349   0.940   7.662 -0.4065 -0.2984  0.3837
73194SOL    HW137574   6.315   0.899   7.742  0.4404 -0.1369  0.8413
73194SOL    HW237575   6.373   1.029   7.689 -1.2700  0.1611 -0.3556
73195SOL     OW37576  13.917   2.462   7.477  0.2498  0.1775  0.1889
73195SOL    HW137577  13.837   2.417   7.506 -1.5118  1.4722 -2.2830
73195SOL    HW237578  13.895   2.555   7.480  2.8081  0.8513  2.3746
73196SOL     OW37579   9.143  11.568   4.215  0.3548  0.0456  0.0687
73196SOL    HW137580   9.236  11.549   4.229  0.2050 -0.2037  0.7518
73196SOL    HW237581   9.141  11.661   4.190  1.0081 -0.5331 -2.4391
73197SOL     OW37582   2.858   6.036  11.570 -0.2470 -0.2348  0.1991
73197SOL    HW137583   2.872   6.004  11.481 -0.2328 -2.1900  0.8614
73197SOL    HW237584   2.882   5.962  11.626 -1.2376  0.5929  1.7833
73198SOL     OW37585   8.702  13.659   6.048 -0.1135  0.7162  0.2111
73198SOL    HW137586   8.729  13.598   5.980 -0.5739  0.7967 -0.0510
73198SOL    HW237587   8.782  13.706   6.072  0.0542  0.6875 -0.2756
73199SOL     OW37588   4.315  11.488   5.085 -0.0769 -0.0134 -0.4342
73199SOL    HW137589   4.334  11.430   5.159  0.5180  0.7506  0.0178
73199SOL    HW237590   4.228  11.460   5.055 -0.9270  0.5113  1.3812
73200SOL     OW37591  13.523   2.259  10.971  0.5774  0.2978 -0.1235
73200SOL    HW137592  13.543   2.320  10.900  2.4707  0.8473  0.8126
73200SOL    HW237593  13.540   2.309  11.051 -0.6300 -0.5863  0.7227
73201SOL     OW37594   9.738  10.273  10.138  0.1026 -0.2006  0.2108
73201SOL    HW137595   9.648  10.307  10.140  0.0420 -0.2117 -1.0699
73201SOL    HW237596   9.731  10.191  10.089  0.8240 -0.1402  0.0027
73202SOL     OW37597  12.275   7.962   4.513 -0.3315  0.4935  0.3732
73202SOL    HW137598  12.301   7.929   4.599 -1.7971 -0.4847  0.4699
73202SOL    HW237599  12.353   8.007   4.480  1.3099 -1.7770  0.8995
73203SOL     OW37600   8.617   5.817   6.397 -0.3525 -0.1918  0.1993
73203SOL    HW137601   8.675   5.762   6.451 -0.8236  0.2920  1.2349
73203SOL    HW237602   8.604   5.895   6.450 -0.3814  0.5556 -0.8918
73204SOL     OW37603  10.700   1.164  12.779 -0.0817 -0.3414  0.1705
73204SOL    HW137604  10.773   1.137  12.723 -0.6037  1.7529 -1.6664
73204SOL    HW237605  10.631   1.102  12.759  0.7016 -1.4463  0.8088
73205SOL     OW37606  12.487   1.733  13.623  0.1764 -1.0673  0.5224
73205SOL    HW137607  12.514   1.662  13.682  0.3241 -2.1202 -0.7583
73205SOL    HW237608  12.417   1.694  13.570 -0.0131 -0.1183  0.0522
73206SOL     OW37609   9.136  13.798   8.726  0.1154  0.2122 -0.0046
73206SOL    HW137610   9.051  13.815   8.685 -0.5603 -0.1795  1.1817
73206SOL    HW237611   9.121  13.816   8.819  1.3469  0.1544  0.2126
73207SOL     OW37612  12.981  12.942  12.070  0.2754  0.3499 -0.1976
73207SOL    HW137613  13.029  12.870  12.112 -0.0791 -0.0693 -0.5130
73207SOL    HW237614  12.994  13.016  12.129  0.8959  0.1081 -0.0222
73208SOL     OW37615  12.641   5.762   6.200  0.6803  0.6720  0.2761
73208SOL    HW137616  12.571   5.697   6.199  1.1760  0.1333 -0.1334
73208SOL    HW237617  12.712   5.722   6.250  1.0159  0.8581 -0.0343
73209SOL     OW37618  12.827   9.198  14.150  0.3100  0.6496  0.1122
73209SOL    HW137619  12.837   9.104  14.163  0.7615  0.6487 -0.1953
73209SOL    HW237620  12.794   9.231  14.233  0.9914  0.3397  0.5139
73210SOL     OW37621  13.579   1.578   1.598 -0.4892 -0.0927  0.2803
73210SOL    HW137622  13.549   1.660   1.559 -2.0434 -0.4852  0.5722
73210SOL    HW237623  13.609   1.602   1.685  2.6458  0.7286 -0.8783
73211SOL     OW37624   9.032   1.634  12.646  0.5420  0.2042  0.2020
73211SOL    HW137625   9.062   1.694  12.578 -0.7247  0.9518  0.2536
73211SOL    HW237626   9.042   1.547  12.608 -0.0717  0.6017 -0.9356
73212SOL     OW37627   9.591   2.000   2.410  0.1570  0.3213  0.0708
73212SOL    HW137628   9.595   2.074   2.349  1.9619 -0.3574 -0.6936
73212SOL    HW237629   9.608   2.039   2.496 -1.9209  1.2109  0.1433
73213SOL     OW37630   8.984   0.136   4.180  0.5917  0.1863  0.2896
73213SOL    HW137631   8.894   0.166   4.168  0.8007  0.1557 -1.7503
73213SOL    HW237632   8.975   0.046   4.213 -0.1261  0.1922  0.1278
73214SOL     OW37633  10.167  11.698  12.223  0.4668 -0.4915  0.1874
73214SOL    HW137634  10.074  11.692  12.245  0.2676  0.2378 -0.4278
73214SOL    HW237635  10.212  11.662  12.299 -0.2876 -0.0570  0.8537
73215SOL     OW37636   3.082  11.052   4.105  0.1845  0.4250 -0.7046
73215SOL    HW137637   3.050  11.142   4.099  2.6896  1.3686 -1.0238
73215SOL    HW237638   3.165  11.059   4.152  0.5843 -1.6980 -1.0035
73216SOL     OW37639   0.272  11.628   1.162 -0.3832  0.4955 -0.3027
73216SOL    HW137640   0.234  11.563   1.222  1.1384  1.1657  1.5053
73216SOL    HW237641   0.198  11.684   1.138 -0.8436  1.1053  2.1997
73217SOL     OW37642   7.002   4.670   8.877  0.2279 -0.0948 -0.0271
73217SOL    HW137643   6.958   4.705   8.954  0.7863 -0.0720  0.2892
73217SOL    HW237644   6.932   4.649   8.816 -0.2532 -0.5345  0.6599
73218SOL     OW37645   9.871  13.194   1.405 -0.0818 -0.2362 -0.4073
73218SOL    HW137646   9.811  13.187   1.331 -1.3191 -0.7328  0.6249
73218SOL    HW237647   9.926  13.270   1.383  0.3345 -1.0369 -2.3434
73219SOL     OW37648  12.259   7.666  11.606  0.0637 -0.2488 -0.4175
73219SOL    HW137649  12.258   7.692  11.698  1.6459  1.4874 -0.8102
73219SOL    HW237650  12.199   7.728  11.564 -0.5678 -0.9654 -0.5823
73220SOL     OW37651   7.425   7.599   9.111 -0.5218  0.5207 -0.5847
73220SOL    HW137652   7.504   7.637   9.072 -0.1149 -1.6280 -2.0426
73220SOL    HW237653   7.393   7.538   9.045  0.0578 -3.1831  2.2417
73221SOL     OW37654  12.646   4.442   3.480 -0.4925 -0.2317  0.3071
73221SOL    HW137655  12.727   4.484   3.454  0.1435 -0.8681  1.2160
73221SOL    HW237656  12.636   4.463   3.572 -0.1953 -1.9778  0.7666
73222SOL     OW37657  10.291   1.852   9.919  0.4894  0.1954  0.1405
73222SOL    HW137658  10.372   1.853   9.970  0.7218 -0.3624 -0.2024
73222SOL    HW237659  10.277   1.943   9.894  1.8435  0.1025 -1.0787
73223SOL     OW37660  13.676   8.780   6.123  0.4085  0.7848  0.2990
73223SOL    HW137661  13.765   8.787   6.088  0.2489  1.8682  0.0700
73223SOL    HW237662  13.627   8.850   6.079 -0.7713 -0.3226 -0.2039
73224SOL     OW37663   8.724   4.689   9.033 -0.4305  0.6884  0.4437
73224SOL    HW137664   8.814   4.674   9.063 -0.0753  0.7245 -0.5859
73224SOL    HW237665   8.673   4.621   9.077  0.4763 -0.8263 -0.7538
73225SOL     OW37666   4.133  12.197  11.505  0.3009  1.0236  0.1908
73225SOL    HW137667   4.059  12.149  11.542  1.6249 -1.7481 -0.4877
73225SOL    HW237668   4.192  12.210  11.579  0.3202  0.8401  0.2085
73226SOL     OW37669  12.432   5.475   7.668 -0.5624 -0.4007 -0.0059
73226SOL    HW137670  12.396   5.445   7.584  1.7409  1.8129 -1.9746
73226SOL    HW237671  12.432   5.570   7.660 -0.0483 -0.1473  2.4751
73227SOL     OW37672   7.874   2.099   5.386  0.2831  0.6165 -0.3703
73227SOL    HW137673   7.959   2.111   5.427  1.4768 -0.4089 -2.3684
73227SOL    HW237674   7.833   2.185   5.389  1.3956  1.1282  0.6227
73228SOL     OW37675  12.773  11.327   0.861 -0.2025  0.1063  1.1513
73228SOL    HW137676  12.836  11.284   0.919  2.1551 -0.0429 -1.2811
73228SOL    HW237677  12.795  11.420   0.868  0.4930  0.0363  0.1530
73229SOL     OW37678   7.824   9.964  11.802 -0.5314  0.0140 -0.3163
73229SOL    HW137679   7.780  10.034  11.850  0.9962 -0.1349  1.4241
73229SOL    HW237680   7.887  10.009  11.746 -0.7316  0.0874 -0.4857
73230SOL     OW37681   7.461   8.625   9.498  0.0016  0.1748 -0.3687
73230SOL    HW137682   7.366   8.614   9.505 -0.0100  0.4197 -0.1361
73230SOL    HW237683   7.497   8.555   9.553 -0.0402 -0.0122 -0.5761
73231SOL     OW37684   2.586   1.471  10.437 -0.6585 -0.4675 -0.1316
73231SOL    HW137685   2.535   1.535  10.387  0.2631  0.3891  0.0111
73231SOL    HW237686   2.636   1.523  10.499 -1.3595 -1.4882  1.3275
73232SOL     OW37687   6.031   2.204   4.340  0.2344  0.3469 -0.1987
73232SOL    HW137688   6.046   2.224   4.432 -0.6690 -1.6783  0.4302
73232SOL    HW237689   5.979   2.278   4.308  0.6291  1.1122  0.8640
73233SOL     OW37690  11.264   7.919   4.774 -0.1740 -0.0660 -0.0272
73233SOL    HW137691  11.226   7.833   4.752 -2.3290  0.8028  0.0381
73233SOL    HW237692  11.300   7.951   4.691  0.0904 -0.7615 -0.1892
73234SOL     OW37693   8.231   8.829   1.551  0.1378 -0.6705  0.2105
73234SOL    HW137694   8.221   8.923   1.567 -0.6445 -0.6547 -0.3493
73234SOL    HW237695   8.162   8.788   1.604 -0.2365 -0.8450 -0.3968
73235SOL     OW37696  13.512   6.179   5.662 -0.0558  0.4453  0.0172
73235SOL    HW137697  13.459   6.100   5.673 -0.5604  0.6579 -0.8608
73235SOL    HW237698  13.467   6.229   5.594  1.1487  0.7334 -0.5875
73236SOL     OW37699   8.124   0.897   9.641  0.1023  0.1699  0.4071
73236SOL    HW137700   8.185   0.966   9.616 -0.5178  0.1829 -1.1683
73236SOL    HW237701   8.038   0.930   9.615 -0.3592 -0.6091  0.9203
73237SOL     OW37702   1.154  10.585   2.061 -0.0347 -0.1668 -0.0391
73237SOL    HW137703   1.174  10.540   2.143  1.3263  0.2125 -0.1338
73237SOL    HW237704   1.188  10.673   2.073  1.2882 -0.4449 -1.4226
73238SOL     OW37705  11.579   0.491  10.820  0.1706  0.3824  0.2494
73238SOL    HW137706  11.485   0.506  10.831 -0.0799 -1.1916  0.5230
73238SOL    HW237707  11.613   0.485  10.909  0.2998 -0.3174  0.1588
73239SOL     OW37708  13.660  13.925   3.944  0.0308  0.0869 -0.1092
73239SOL    HW137709  13.731  13.961   3.998 -0.0429 -0.2086  0.1918
73239SOL    HW237710  13.609  13.871   4.005 -0.8466  0.8313 -0.1711
73240SOL     OW37711   7.318   9.323   0.226  0.2300 -0.7798  0.3869
73240SOL    HW137712   7.303   9.340   0.133 -2.0494 -1.5776  0.5329
73240SOL    HW237713   7.367   9.399   0.257  0.2402 -0.0665 -1.2773
73241SOL     OW37714   8.779   5.750   0.845  0.0332  0.0006 -0.1939
73241SOL    HW137715   8.822   5.664   0.843 -0.6726 -0.4135 -3.2818
73241SOL    HW237716   8.733   5.755   0.761  0.0967  3.4614 -0.1472
73242SOL     OW37717  11.772  11.904   9.913 -0.0307 -0.1305 -0.5212
73242SOL    HW137718  11.730  11.884   9.830  0.1259 -0.5368 -0.5047
73242SOL    HW237719  11.733  11.987   9.941 -3.1293 -1.9295  0.9899
73243SOL     OW37720  10.152  10.301   2.276  0.0042 -0.3085  0.2725
73243SOL    HW137721  10.086  10.233   2.289 -1.4442  1.3558  2.1247
73243SOL    HW237722  10.109  10.366   2.221  1.4275 -0.8415 -1.6065
73244SOL     OW37723  10.691   5.600   8.322 -0.0249 -0.4592  0.6868
73244SOL    HW137724  10.650   5.619   8.237  0.7560  0.1730  0.4427
73244SOL    HW237725  10.618   5.574   8.378 -0.6913  0.0810  0.0944
73245SOL     OW37726   1.704  10.636   5.190 -0.4495 -0.4325  0.1652
73245SOL    HW137727   1.756  10.597   5.260 -1.4211 -0.0547  1.1401
73245SOL    HW237728   1.641  10.692   5.236 -0.0684  1.1200 -1.0927
73246SOL     OW37729   1.883   3.735  10.923 -0.2168  0.4060 -0.6092
73246SOL    HW137730   1.806   3.781  10.888  0.0548  1.9638  0.6921
73246SOL    HW237731   1.846   3.660  10.971 -0.8756  0.6625 -0.7037
73247SOL     OW37732   4.012   8.304  10.614  0.1143  0.6520  1.0084
73247SOL    HW137733   3.932   8.289  10.564  0.2502  0.2445  0.9108
73247SOL    HW237734   3.998   8.256  10.696 -1.1827  3.3492  2.5119
73248SOL     OW37735   9.422   5.829  12.461 -0.0795 -0.1443 -0.0658
73248SOL    HW137736   9.514   5.840  12.434  0.0008 -3.0668 -1.3127
73248SOL    HW237737   9.395   5.747  12.420 -2.6712 -0.3798  1.9074
73249SOL     OW37738   1.928  11.869  10.916 -0.0604  0.4681  0.0343
73249SOL    HW137739   1.888  11.942  10.963 -1.0569  0.5595 -0.9074
73249SOL    HW237740   1.996  11.910  10.862 -0.1553  0.6082  0.0197
73250SOL     OW37741   3.370   3.711  12.115  0.4565 -0.6383 -0.1999
73250SOL    HW137742   3.423   3.718  12.035  2.5935  2.0696  1.2681
73250SOL    HW237743   3.427   3.667  12.178 -0.3423 -0.7061  0.4948
73251SOL     OW37744   1.973  12.836   9.740  0.1301 -0.3589  0.2923
73251SOL    HW137745   2.042  12.902   9.742  0.3885 -0.6105 -0.2173
73251SOL    HW237746   1.906  12.870   9.799 -0.5117  1.1896 -1.2528
73252SOL     OW37747   8.483   6.819   5.977  0.2154 -0.5528  1.0326
73252SOL    HW137748   8.428   6.881   5.930 -0.4723 -1.5699  0.4613
73252SOL    HW237749   8.553   6.872   6.015  0.9597  0.2612 -1.3591
73253SOL     OW37750   1.340   1.109  10.965 -0.1413 -0.4143 -0.5466
73253SOL    HW137751   1.336   1.170  10.891 -0.6570 -2.5075 -2.3623
73253SOL    HW237752   1.434   1.091  10.976 -0.1511 -1.5709 -2.0581
73254SOL     OW37753   9.482   4.384   2.020 -0.4293 -0.1245  0.9634
73254SOL    HW137754   9.411   4.357   2.078 -1.2468  2.3725  1.2222
73254SOL    HW237755   9.452   4.356   1.933 -1.9447  1.1672  1.0158
73255SOL     OW37756   0.222  11.815   1.391  0.4459 -0.0214  0.0866
73255SOL    HW137757   0.142  11.867   1.402 -0.0670 -0.7347 -0.1375
73255SOL    HW237758   0.225  11.758   1.468  0.2531 -0.6082 -0.3256
73256SOL     OW37759   5.422  14.100  11.704  0.0394  0.1093  0.0109
73256SOL    HW137760   5.377  14.156  11.767 -0.6315 -0.2733 -0.1256
73256SOL    HW237761   5.472  14.160  11.649  0.6601  0.4481  0.9248
73257SOL     OW37762  12.564   7.497  12.334  0.2022  0.1396  0.0908
73257SOL    HW137763  12.493   7.447  12.294  1.6444 -0.8959 -1.2902
73257SOL    HW237764  12.519   7.569  12.380 -1.6365  1.0859 -2.8779
73258SOL     OW37765   7.492  11.335  13.928 -0.2948 -0.1786  0.1120
73258SOL    HW137766   7.486  11.426  13.900  3.3396 -0.2722 -1.5222
73258SOL    HW237767   7.574  11.330  13.977  0.2779 -2.7816 -0.9667
73259SOL     OW37768   4.795   2.677  12.510  0.0652 -0.6138 -0.5215
73259SOL    HW137769   4.726   2.694  12.575 -0.0783 -2.5347 -0.1060
73259SOL    HW237770   4.872   2.654  12.562  1.3507  2.2648 -0.9517
73260SOL     OW37771   5.062   7.154   1.294 -0.4019 -0.0196 -0.0871
73260SOL    HW137772   5.111   7.233   1.316 -0.9398 -0.0176  1.2338
73260SOL    HW237773   5.096   7.087   1.354  0.1578 -0.8573 -1.2885
73261SOL     OW37774   0.060   4.252   6.664  0.0072 -0.2997 -0.1722
73261SOL    HW137775   0.146   4.217   6.686 -0.1642 -1.8500 -1.7922
73261SOL    HW237776   0.040   4.216   6.578 -1.9604  0.6227 -0.1651
73262SOL     OW37777   8.689   6.589   1.865 -0.2325  0.2239  0.0464
73262SOL    HW137778   8.691   6.681   1.839 -1.8441  0.0479 -0.7941
73262SOL    HW237779   8.615   6.552   1.818  1.4500 -1.9648 -1.0815
73263SOL     OW37780  13.237   7.726   9.581  0.2782 -0.1037  0.1901
73263SOL    HW137781  13.230   7.792   9.650  0.3943 -0.7763  0.8587
73263SOL    HW237782  13.249   7.644   9.628 -0.6409 -0.7096 -0.6215
73264SOL     OW37783   3.720  12.502   8.456 -0.4089 -0.2782  0.0633
73264SOL    HW137784   3.627  12.518   8.468 -0.7697 -1.6701 -0.6745
73264SOL    HW237785   3.728  12.470   8.366  0.4894 -2.0958  0.7457
73265SOL     OW37786   8.109   2.503   2.488  0.1650 -0.6522 -0.4707
73265SOL    HW137787   8.126   2.593   2.516 -1.2975 -0.1773 -1.0179
73265SOL    HW237788   8.158   2.493   2.406 -0.1571 -0.1450 -0.7275
73266SOL     OW37789   0.416   8.754   9.090 -0.3225 -0.2658  0.0095
73266SOL    HW137790   0.391   8.767   8.999  0.2798  0.1437 -0.1013
73266SOL    HW237791   0.352   8.691   9.124  0.1048 -1.2911 -1.0030
73267SOL     OW37792   2.436  10.120   1.603  0.0938 -0.4095 -0.5391
73267SOL    HW137793   2.385  10.039   1.614 -0.8811  0.2353 -0.1297
73267SOL    HW237794   2.395  10.164   1.529 -0.3644  0.4202  0.1955
73268SOL     OW37795   4.608  10.459   6.882  0.3572 -0.3600  0.4607
73268SOL    HW137796   4.642  10.540   6.920  1.7090 -0.9166  0.4732
73268SOL    HW237797   4.552  10.422   6.951  0.1812  0.2700  0.6614
73269SOL     OW37798   8.884   3.613  11.281 -0.7527  0.3573  0.0497
73269SOL    HW137799   8.900   3.623  11.375 -0.4880  0.3343  0.0096
73269SOL    HW237800   8.820   3.681  11.260 -2.6065 -1.1129  0.6871
73270SOL     OW37801  11.010   6.836   9.574  0.2508 -0.0225 -0.2242
73270SOL    HW137802  11.104   6.826   9.559  0.1438 -1.2318 -0.1742
73270SOL    HW237803  10.995   6.931   9.572  1.1807  0.1396 -2.0495
73271SOL     OW37804   0.943   4.246   5.200  0.2475  0.4258  0.2379
73271SOL    HW137805   0.971   4.160   5.228  0.3002  0.5662  0.6191
73271SOL    HW237806   0.856   4.257   5.239  0.4668  0.7620  0.6487
73272SOL     OW37807  13.184   6.908   7.984 -0.6264  0.4015  0.5008
73272SOL    HW137808  13.192   6.922   7.890 -2.4875 -1.1772  0.0193
73272SOL    HW237809  13.140   6.823   7.991  1.5307 -0.6544  2.8625
73273SOL     OW37810   8.178  12.415   5.650 -0.2746 -0.0866 -0.2987
73273SOL    HW137811   8.106  12.464   5.689  0.0750 -0.9657  1.5784
73273SOL    HW237812   8.142  12.379   5.569 -1.1860  1.4256 -0.5907
73274SOL     OW37813  11.130   9.466   1.347  0.0144  0.1180  0.2849
73274SOL    HW137814  11.051   9.480   1.295  2.0745  1.7462 -2.6953
73274SOL    HW237815  11.129   9.537   1.411  0.2103  1.6655 -1.3542
73275SOL     OW37816   2.614  11.086   4.875  0.2096 -0.1884 -0.3935
73275SOL    HW137817   2.545  11.149   4.896  0.5675 -0.0131  0.2623
73275SOL    HW237818   2.685  11.106   4.936  0.3384 -1.2136 -0.1905
73276SOL     OW37819   8.352  10.761  13.099 -0.0703  0.2638 -0.2939
73276SOL    HW137820   8.369  10.852  13.123 -0.0454  0.3416 -0.5955
73276SOL    HW237821   8.423  10.738  13.039  0.6798 -0.3881  0.8145
73277SOL     OW37822   0.521   8.196   2.914 -0.2125 -0.2875 -0.1166
73277SOL    HW137823   0.575   8.136   2.966  0.6956 -0.7194 -1.5025
73277SOL    HW237824   0.584   8.255   2.872 -1.0239  1.0122  0.3991
73278SOL     OW37825  11.195  13.930   5.753 -0.0220  0.3705  0.0422
73278SOL    HW137826  11.178  13.972   5.837  0.2182  1.9883 -0.6758
73278SOL    HW237827  11.227  14.001   5.697  0.2285 -0.7540 -1.2919
73279SOL     OW37828   0.409  10.916  12.974 -0.7926 -0.1796 -0.1210
73279SOL    HW137829   0.415  10.821  12.958 -0.2439 -0.2775  0.6316
73279SOL    HW237830   0.327  10.942  12.931 -0.6669 -0.8901 -0.8250
73280SOL     OW37831   0.013   4.719  11.702 -0.0457 -0.3463 -0.0531
73280SOL    HW137832   0.008   4.671  11.619  2.1144 -0.7332 -0.0110
73280SOL    HW237833   0.047   4.656  11.765  0.2169  0.4794  0.6562
73281SOL     OW37834   4.813   6.947  13.708 -0.9966 -0.2883  0.1032
73281SOL    HW137835   4.741   7.009  13.719 -0.0582  0.9605 -0.4933
73281SOL    HW237836   4.876   6.971  13.776  0.4118  0.9923 -1.5689
73282SOL     OW37837  11.104   6.205  12.723 -0.4897  0.6566 -0.1147
73282SOL    HW137838  11.043   6.243  12.786 -0.4354  1.3744 -0.4794
73282SOL    HW237839  11.169   6.159  12.777 -0.5884  1.0417  0.3386
73283SOL     OW37840   2.583  13.528   4.932  0.4453  0.0321 -0.2957
73283SOL    HW137841   2.638  13.602   4.905 -2.0977  1.6891 -1.3739
73283SOL    HW237842   2.506  13.569   4.972  0.1317 -2.1764  1.5972
73284SOL     OW37843   3.438   8.264   9.947  0.5073  0.2635 -0.1509
73284SOL    HW137844   3.380   8.306   9.884  1.3139 -0.1890 -1.2252
73284SOL    HW237845   3.425   8.314  10.028  0.3785  1.6923 -1.0078
73285SOL     OW37846   1.582   4.331   4.380 -0.2131  0.1975 -0.4438
73285SOL    HW137847   1.499   4.323   4.333 -0.8491 -0.2389  0.7192
73285SOL    HW237848   1.591   4.424   4.398 -0.2509  0.2934 -0.9140
73286SOL     OW37849  13.759   5.704  10.167  0.1975 -0.0796  0.6953
73286SOL    HW137850  13.695   5.716  10.097  0.5270 -1.2213  0.1797
73286SOL    HW237851  13.815   5.781  10.161  0.3966 -0.3002 -0.4937
73287SOL     OW37852  10.834   7.836   2.600 -0.3685  0.7979 -0.3358
73287SOL    HW137853  10.897   7.798   2.660 -0.9939  0.3562  0.0543
73287SOL    HW237854  10.846   7.787   2.518 -1.4465 -0.5527  0.2818
73288SOL     OW37855  13.267   5.841   3.984 -0.1525  0.0249  0.4218
73288SOL    HW137856  13.210   5.899   4.035 -0.2728  1.0992 -0.9091
73288SOL    HW237857  13.344   5.893   3.966 -0.5868  0.0695 -1.4578
73289SOL     OW37858   0.989   3.744   1.903 -0.3813  0.5514  0.3516
73289SOL    HW137859   1.040   3.694   1.839 -0.7721  0.1524  0.3471
73289SOL    HW237860   0.910   3.769   1.856  0.3769  2.3173 -0.0611
73290SOL     OW37861  13.467  11.198   0.895  0.0040  0.0408  0.1143
73290SOL    HW137862  13.522  11.119   0.899  0.3878  0.3465  2.1241
73290SOL    HW237863  13.381  11.169   0.924  0.4158  0.5160  1.9486
73291SOL     OW37864   0.254  10.170  12.329 -0.1863  0.6525 -0.3712
73291SOL    HW137865   0.181  10.232  12.330  0.4672  1.4422  1.1618
73291SOL    HW237866   0.289  10.171  12.418 -0.0753 -1.8667 -0.3103
73292SOL     OW37867   0.001   1.809   3.452  0.4748  0.7484  0.2237
73292SOL    HW137868   0.062   1.869   3.494  0.8957  1.0175 -0.7360
73292SOL    HW237869   0.045   1.724   3.453 -0.5105  0.1950  2.4282
73293SOL     OW37870   6.404   5.595   6.022  0.1841  0.1982  0.1396
73293SOL    HW137871   6.326   5.579   6.074 -1.6036 -0.0900 -2.4387
73293SOL    HW237872   6.430   5.509   5.989  2.0891  0.1853  1.5316
73294SOL     OW37873   4.697   8.328   3.226 -0.5336 -0.8494  0.0259
73294SOL    HW137874   4.618   8.339   3.279  0.5700  0.4794  1.4634
73294SOL    HW237875   4.761   8.388   3.264  1.4726 -2.5108 -0.5527
73295SOL     OW37876   3.168   2.605   4.653 -0.4362 -0.3125  0.2738
73295SOL    HW137877   3.074   2.605   4.637 -0.6141 -1.1585  1.2290
73295SOL    HW237878   3.186   2.689   4.695 -0.9275 -0.5547  0.9734
73296SOL     OW37879  10.346   0.582  10.841 -0.2905  0.6012 -0.1890
73296SOL    HW137880  10.274   0.638  10.811  0.3354  1.9583  0.7759
73296SOL    HW237881  10.309   0.493  10.840 -1.5177  1.0956 -1.0654
73297SOL     OW37882   6.299  12.792   4.398 -0.4898 -0.1363 -0.0271
73297SOL    HW137883   6.275  12.701   4.383 -1.3967  0.0992 -0.0573
73297SOL    HW237884   6.234  12.825   4.460  0.1858  0.3278  0.4545
73298SOL     OW37885   9.224  10.501  11.198  0.3217  0.7743  0.1684
73298SOL    HW137886   9.297  10.562  11.205  1.7208 -0.7890 -0.0554
73298SOL    HW237887   9.193  10.491  11.289  1.1056  0.6412  0.4301
73299SOL     OW37888   1.508   1.999   1.046 -0.1099  0.1493  0.4662
73299SOL    HW137889   1.489   2.050   0.967 -0.4450  0.6063  0.8348
73299SOL    HW237890   1.603   1.987   1.044 -0.1729 -0.3278 -0.2928
73300SOL     OW37891   4.067   6.391   7.127 -0.7050  0.2577 -1.2884
73300SOL    HW137892   4.141   6.331   7.119  1.1972  2.3063 -0.2664
73300SOL    HW237893   4.024   6.387   7.042 -0.0284 -1.7198 -1.5971
73301SOL     OW37894  11.559   7.973   8.394  1.0194  0.6432  0.0868
73301SOL    HW137895  11.470   7.964   8.362  0.1867 -0.1222  2.4086
73301SOL    HW237896  11.599   8.040   8.338 -0.9168  0.8181 -1.1476
73302SOL     OW37897  11.831  13.666  11.113  0.0993  0.1437 -0.2800
73302SOL    HW137898  11.758  13.649  11.173  0.1364  1.6010  0.2124
73302SOL    HW237899  11.820  13.758  11.088  2.2459  0.6716  0.4870
73303SOL     OW37900   8.333  10.998   6.297  0.0881  0.2467  0.2975
73303SOL    HW137901   8.369  10.972   6.382 -1.5336  1.6930  1.4879
73303SOL    HW237902   8.379  10.942   6.234  0.2202 -1.9874  2.2433
73304SOL     OW37903   3.680  11.631   3.928 -0.4551  0.7676  0.3441
73304SOL    HW137904   3.640  11.612   4.013 -0.4414  1.4662  0.5124
73304SOL    HW237905   3.771  11.650   3.948  0.1398 -1.3665 -0.0977
73305SOL     OW37906   0.279   0.760  12.395  0.5465 -0.7222  0.8776
73305SOL    HW137907   0.196   0.715  12.378 -0.0213  0.6761 -0.2818
73305SOL    HW237908   0.314   0.780  12.308  1.5247 -0.2720  1.3570
73306SOL     OW37909  10.429   1.450  11.588 -0.4396 -0.4213  0.2956
73306SOL    HW137910  10.482   1.389  11.639  0.0617 -0.3770 -0.1611
73306SOL    HW237911  10.490   1.488  11.524 -0.3724  1.6549  1.5081
73307SOL     OW37912   9.173  11.313   2.160  0.0804  0.3999 -0.7348
73307SOL    HW137913   9.085  11.293   2.192  0.4807  0.6246  0.5874
73307SOL    HW237914   9.175  11.278   2.071 -0.5089 -1.9893  0.0979
73308SOL     OW37915  12.516   5.531  10.247 -0.6033 -0.1473 -0.0340
73308SOL    HW137916  12.462   5.567  10.177  0.2003 -2.1630 -1.8130
73308SOL    HW237917  12.461   5.536  10.325 -1.7189  1.7380 -0.8786
73309SOL     OW37918  10.554   6.996   0.070  0.4786 -0.1269 -0.2591
73309SOL    HW137919  10.558   6.964  -0.020 -2.4100  1.3060 -1.0452
73309SOL    HW237920  10.499   7.075   0.064  0.2123  0.0174  2.7466
73310SOL     OW37921   5.719  12.515  12.668 -0.1210  0.0081  0.1160
73310SOL    HW137922   5.759  12.443  12.619 -0.0796  0.0238  0.1263
73310SOL    HW237923   5.630  12.486  12.687 -0.5313  0.4856 -0.9943
73311SOL     OW37924   8.032  10.192  12.649  0.1492  0.5242  0.4187
73311SOL    HW137925   8.106  10.135  12.627  0.1025  0.5220  0.2644
73311SOL    HW237926   7.968  10.176  12.580  0.4936  1.4245 -0.1344
73312SOL     OW37927  11.031   9.816   4.017 -0.1778 -0.0487  0.2742
73312SOL    HW137928  11.036   9.907   4.044 -1.5412  0.4455 -0.9939
73312SOL    HW237929  10.995   9.819   3.928  0.4200 -1.7868 -0.0742
73313SOL     OW37930  12.980  13.386   0.631 -0.0920  0.1350 -0.5080
73313SOL    HW137931  12.973  13.473   0.592  0.2219  0.8007  0.8492
73313SOL    HW237932  13.028  13.400   0.713 -0.5522 -1.2225  0.0302
73314SOL     OW37933   0.212   8.489  11.972  0.5666  0.6065 -0.1154
73314SOL    HW137934   0.204   8.564  11.913  0.0610  0.1927 -0.5798
73314SOL    HW237935   0.128   8.444  11.965  0.3497  0.7617  1.2200
73315SOL     OW37936   0.126   8.603  10.666 -0.4505  0.0252 -0.4553
73315SOL    HW137937   0.068   8.555  10.606  0.0119  0.5686 -1.3658
73315SOL    HW237938   0.171   8.535  10.715 -1.4997 -0.4140 -0.0749
73316SOL     OW37939  11.743   8.764   0.001 -0.7193  0.0179  0.1254
73316SOL    HW137940  11.795   8.839   0.026  1.8506 -1.0911 -1.4777
73316SOL    HW237941  11.776   8.692   0.055  0.5669 -1.0171 -1.9012
73317SOL     OW37942   1.998   7.481  12.258  0.6544 -0.1958 -0.3802
73317SOL    HW137943   1.995   7.478  12.354 -1.3787  0.7542 -0.3794
73317SOL    HW237944   1.925   7.426  12.230  0.7589  0.1605 -1.3723
73318SOL     OW37945   2.891  11.466  13.759 -0.2355 -0.3607  0.2022
73318SOL    HW137946   2.831  11.391  13.760  0.1786 -0.6943  1.3091
73318SOL    HW237947   2.899  11.492  13.850  0.4543  0.3716 -0.0549
73319SOL     OW37948   1.307  13.116  11.258  0.3485 -0.6420 -0.2307
73319SOL    HW137949   1.260  13.193  11.225  1.2666 -0.9174 -2.3573
73319SOL    HW237950   1.398  13.144  11.263  0.5339 -1.2891  0.0164
73320SOL     OW37951  11.858   9.721   0.006 -0.1336  0.0624  0.1612
73320SOL    HW137952  11.813   9.730   0.090 -1.0652  0.0662 -0.3336
73320SOL    HW237953  11.788   9.718  -0.059  0.5856  0.2282 -0.6363
73321SOL     OW37954   8.468   5.508  10.051  0.2390 -0.2191 -0.0833
73321SOL    HW137955   8.558   5.491  10.081  0.7053  1.7681 -0.1883
73321SOL    HW237956   8.477   5.527   9.958 -0.6785 -2.4817 -0.6862
73322SOL     OW37957   7.668  10.206   1.715  0.0761  0.2611 -0.1335
73322SOL    HW137958   7.634  10.272   1.776 -0.6657  0.3023 -0.5759
73322SOL    HW237959   7.685  10.129   1.770  1.6681  1.0331  0.5212
73323SOL     OW37960   2.237   0.031  10.012  0.3072  0.2485 -0.2047
73323SOL    HW137961   2.231  -0.053   9.966  0.3616 -0.5968  1.2618
73323SOL    HW237962   2.329   0.056  10.003  0.3234  0.0777 -0.5331
73324SOL     OW37963   8.329   0.062   6.069 -0.0876 -0.1874 -0.4920
73324SOL    HW137964   8.409   0.105   6.038 -0.8602  2.0319  0.3929
73324SOL    HW237965   8.309   0.106   6.151 -1.6998 -1.3948 -0.1984
73325SOL     OW37966   3.843   2.119  10.119 -0.2145  0.2471  0.5265
73325SOL    HW137967   3.778   2.056  10.089  0.5323 -0.6985  0.8313
73325SOL    HW237968   3.829   2.126  10.213 -1.9150  2.4687  0.1820
73326SOL     OW37969   7.806   3.416  13.319 -0.0272 -0.9494 -0.3775
73326SOL    HW137970   7.754   3.480  13.367 -1.6017 -1.4404 -1.3630
73326SOL    HW237971   7.887   3.463  13.297 -0.1667 -0.0581  0.8924
73327SOL     OW37972   0.678   4.451   0.110  0.1823 -0.7662  0.4931
73327SOL    HW137973   0.598   4.427   0.157  0.2257  1.2499  1.6917
73327SOL    HW237974   0.684   4.387   0.039 -1.6629 -1.8887  1.2802
73328SOL     OW37975   8.823  11.326   5.603 -0.5071 -0.0326  0.2465
73328SOL    HW137976   8.775  11.259   5.651 -2.4883  0.0827 -1.4914
73328SOL    HW237977   8.902  11.282   5.573 -0.5304 -0.8330  1.2982
73329SOL     OW37978   0.177   1.976  13.174  0.2698 -0.1365  0.0308
73329SOL    HW137979   0.199   1.885  13.155 -0.5870 -0.4130  0.2811
73329SOL    HW237980   0.261   2.021  13.181  0.7057 -0.9359  0.0200
73330SOL     OW37981   6.338   0.543   0.588  0.4859 -0.3120 -0.3062
73330SOL    HW137982   6.357   0.513   0.498 -0.0103 -3.7390  0.5746
73330SOL    HW237983   6.243   0.551   0.591  0.4529 -0.8184  0.0635
73331SOL     OW37984   2.668   0.376   3.489 -0.5584  0.3424 -0.6425
73331SOL    HW137985   2.655   0.403   3.398  2.3191 -0.1893 -1.2980
73331SOL    HW237986   2.579   0.365   3.523 -1.7697 -1.2057 -3.8938
73332SOL     OW37987   7.661  13.417   8.159  0.4163 -0.0086  0.2639
73332SOL    HW137988   7.573  13.381   8.169  0.5468 -0.0176  1.6658
73332SOL    HW237989   7.651  13.489   8.097 -0.6609  0.2361  0.6946
73333SOL     OW37990   2.422   9.987   7.342  0.3093  0.0578 -1.2268
73333SOL    HW137991   2.488  10.057   7.339  1.0795 -0.5390  0.3124
73333SOL    HW237992   2.462   9.914   7.294  1.3524 -0.6959  0.6504
73334SOL     OW37993  11.242   6.693   2.534  0.7543  0.9641  0.2353
73334SOL    HW137994  11.322   6.729   2.496  0.7397  0.2910 -0.4413
73334SOL    HW237995  11.179   6.691   2.462  0.1573  1.3759  0.7303
73335SOL     OW37996   5.144  12.955  13.723  0.0414 -0.6009  0.1575
73335SOL    HW137997   5.050  12.971  13.733 -0.2418 -2.5493  1.0111
73335SOL    HW237998   5.160  12.874  13.772  2.0513 -0.6479 -0.4960
73336SOL     OW37999   1.714  10.924   3.551 -0.4878  0.0035  0.2622
73336SOL    HW138000   1.630  10.895   3.515  0.0678 -0.4859 -0.6681
73336SOL    HW238001   1.690  10.973   3.630 -1.6896  0.3968 -0.3154
73337SOL     OW38002   1.799  11.750   2.648  0.3809  0.0551 -0.3894
73337SOL    HW138003   1.892  11.730   2.659  0.1705 -0.0121  1.6827
73337SOL    HW238004   1.757  11.713   2.726 -0.9662  2.6159  0.2058
73338SOL     OW38005   3.022   6.133   7.492 -0.6937  0.2039  0.7602
73338SOL    HW138006   3.076   6.092   7.559  1.1079 -1.1105 -1.3770
73338SOL    HW238007   2.996   6.062   7.434 -1.4918  1.4168 -0.4440
73339SOL     OW38008   1.908   4.266   2.042 -0.8330  0.3562 -0.1721
73339SOL    HW138009   1.977   4.252   1.977  1.0861  1.9458  1.3963
73339SOL    HW238010   1.857   4.339   2.007 -1.0761 -0.1238 -0.8363
73340SOL     OW38011   4.270   3.366   6.925 -0.5058  0.3459 -0.5601
73340SOL    HW138012   4.291   3.300   6.990 -2.0330  0.4224  0.0483
73340SOL    HW238013   4.232   3.317   6.852  3.5581 -0.0791 -2.6718
73341SOL     OW38014  11.800   8.360  11.453  0.1817  0.0141 -0.0688
73341SOL    HW138015  11.793   8.297  11.382  1.5856 -0.4157  0.1318
73341SOL    HW238016  11.782   8.445  11.412  1.9705 -0.0954 -1.2233
73342SOL     OW38017   2.765   0.830   1.432 -0.4461  0.1084  0.0279
73342SOL    HW138018   2.847   0.802   1.474  0.7541  0.6423 -1.8349
73342SOL    HW238019   2.740   0.910   1.479  0.9375  0.7647 -0.2801
73343SOL     OW38020  10.593   6.869   7.095  0.4825  0.0428  0.1613
73343SOL    HW138021  10.625   6.868   7.185  1.2169 -3.7075  0.0217
73343SOL    HW238022  10.584   6.777   7.072 -1.5593  0.8765 -2.9988
73344SOL     OW38023  12.155   4.027  13.393  0.0132  0.5356 -0.2734
73344SOL    HW138024  12.107   3.951  13.361  0.1500  0.5176 -0.4387
73344SOL    HW238025  12.132   4.033  13.486  1.6931 -1.0232  0.2988
73345SOL     OW38026  13.249  11.710  13.625 -0.4081 -0.0721  0.1898
73345SOL    HW138027  13.232  11.705  13.531  0.8448  1.5654 -0.1684
73345SOL    HW238028  13.343  11.691  13.634 -0.2626  0.9355  0.9631
73346SOL     OW38029   5.197   1.130  13.179 -0.3578 -1.0012 -0.0147
73346SOL    HW138030   5.272   1.081  13.148 -0.1232 -1.6113  1.4663
73346SOL    HW238031   5.223   1.222  13.171  0.3443 -1.1979 -0.0005
73347SOL     OW38032   2.777  13.904  12.712  0.2201  0.4935  0.2663
73347SOL    HW138033   2.697  13.948  12.740  0.3030  0.0586  1.2496
73347SOL    HW238034   2.784  13.828  12.771  1.2505  0.4261  0.0786
73348SOL     OW38035   7.855   7.205   9.848  0.0444  0.1802  0.1200
73348SOL    HW138036   7.886   7.245   9.767  0.2864 -0.3084 -0.0307
73348SOL    HW238037   7.878   7.269   9.916  0.1869  0.4169 -0.1481
73349SOL     OW38038   9.714   4.031  13.957 -0.2877  0.7139 -0.2930
73349SOL    HW138039   9.731   4.091  13.885 -0.2285 -0.4223 -1.2476
73349SOL    HW238040   9.790   4.041  14.015  0.3791  0.5732 -1.1257
73350SOL     OW38041  13.229   6.944   9.966  0.1782  0.0717  0.1916
73350SOL    HW138042  13.256   6.871  10.021 -2.2529 -0.5916  0.6442
73350SOL    HW238043  13.133   6.939   9.966  0.0258  1.8025 -1.7634
73351SOL     OW38044   3.485   0.322   4.260  0.2398  0.0062  0.2915
73351SOL    HW138045   3.528   0.360   4.336 -0.3432  1.2703  0.0148
73351SOL    HW238046   3.543   0.344   4.187 -0.8706  1.8322 -0.1026
73352SOL     OW38047   3.465  11.611   9.870 -0.2950 -0.4077  0.6537
73352SOL    HW138048   3.419  11.627   9.788  0.8645 -0.2269  0.0188
73352SOL    HW238049   3.466  11.696   9.914 -0.1844 -0.3121  0.4671
73353SOL     OW38050   4.889   7.128  10.401  0.5344  0.7446 -0.3322
73353SOL    HW138051   4.933   7.200  10.356  1.4003 -0.6533 -1.8138
73353SOL    HW238052   4.954   7.059  10.405 -1.3036 -1.2545 -2.2182
73354SOL     OW38053   0.778   7.072  11.953  0.0614  0.4050  0.0435
73354SOL    HW138054   0.742   7.076  12.042 -1.6800 -0.6808 -0.5666
73354SOL    HW238055   0.713   7.023  11.903  1.0535  0.9072 -1.8235
73355SOL     OW38056   6.066  12.183  10.121  0.3046  0.4195  0.6261
73355SOL    HW138057   6.114  12.266  10.115  1.1513 -0.0992  0.1753
73355SOL    HW238058   6.063  12.150  10.031  0.9347 -0.5822  0.9614
73356SOL     OW38059   3.631   0.337   8.894  0.3834 -0.0474 -0.3673
73356SOL    HW138060   3.726   0.331   8.883  0.5044 -0.7425  0.8173
73356SOL    HW238061   3.596   0.328   8.806  1.3935 -0.5427 -0.7369
73357SOL     OW38062   0.366  10.360   9.147  0.2090  0.0285  0.4993
73357SOL    HW138063   0.436  10.344   9.084  0.2486 -1.0894  0.7904
73357SOL    HW238064   0.294  10.304   9.117  0.0844 -0.2030  1.1986
73358SOL     OW38065   2.798   5.559   4.539 -0.2987  0.3027  0.5633
73358SOL    HW138066   2.730   5.596   4.482  0.2060  1.0228  0.4118
73358SOL    HW238067   2.857   5.632   4.556  0.7083 -0.4299  0.2937
73359SOL     OW38068   0.613  12.244   7.167  0.4206 -1.0837 -0.3722
73359SOL    HW138069   0.595  12.264   7.259 -1.1761  0.8421 -1.0061
73359SOL    HW238070   0.595  12.151   7.159 -1.3264 -0.9200  0.9150
73360SOL     OW38071   4.064  12.509   5.293  0.5717  0.4297  0.2363
73360SOL    HW138072   4.124  12.460   5.349  0.4262 -0.7101 -0.5628
73360SOL    HW238073   4.107  12.594   5.280  1.9257 -0.2782 -0.1281
73361SOL     OW38074   0.418  13.168   3.533  0.1401  0.4613  0.0944
73361SOL    HW138075   0.510  13.143   3.548 -0.6565 -2.4606  0.6976
73361SOL    HW238076   0.402  13.145   3.441 -0.9637 -2.9277  0.9936
73362SOL     OW38077   5.587   2.641   1.351 -1.1995  0.1778  0.5992
73362SOL    HW138078   5.646   2.565   1.355 -0.0097  1.1254  2.1436
73362SOL    HW238079   5.634   2.704   1.295 -0.8140  0.8554  1.6636
73363SOL     OW38080   3.485   2.575   6.476  0.3740  0.4475 -0.3548
73363SOL    HW138081   3.514   2.496   6.522 -0.5291  0.7812  0.8495
73363SOL    HW238082   3.397   2.590   6.509  0.4207  1.7913 -0.7987
73364SOL     OW38083   5.117   9.075  13.676 -0.1189 -0.0580  0.0566
73364SOL    HW138084   5.177   9.002  13.658 -1.4696 -1.5913  1.4463
73364SOL    HW238085   5.142   9.142  13.612  0.5492 -2.0773 -1.9527
73365SOL     OW38086  11.640  10.929  10.087  0.3873 -0.0802  0.4726
73365SOL    HW138087  11.686  10.911  10.005 -0.6350  1.8874 -0.5931
73365SOL    HW238088  11.554  10.888  10.076 -0.0937  0.9772  0.1303
73366SOL     OW38089   0.363   9.486   4.787  0.0359  0.3137  0.0207
73366SOL    HW138090   0.438   9.446   4.832 -0.2120 -0.6875 -0.4064
73366SOL    HW238091   0.380   9.580   4.789  0.4414  0.2333  1.4462
73367SOL     OW38092   6.299   7.421   8.571 -0.0013 -0.3175 -0.3385
73367SOL    HW138093   6.309   7.478   8.647  1.5877 -0.3564 -0.4893
73367SOL    HW238094   6.336   7.337   8.599 -1.6064 -1.0786 -0.3791
73368SOL     OW38095   1.058  11.003   3.829  0.3038 -0.4611  0.0862
73368SOL    HW138096   0.977  11.007   3.778  0.0241  2.8259  0.5631
73368SOL    HW238097   1.034  11.035   3.916  1.9168 -0.3421  0.5343
73369SOL     OW38098  13.132  12.681   0.149  0.1359  0.7016  0.2222
73369SOL    HW138099  13.209  12.709   0.199  0.1896 -0.3650  0.7660
73369SOL    HW238100  13.086  12.763   0.129  0.5044  1.2286  1.3898
73370SOL     OW38101  12.100  10.852   7.318 -0.0698 -0.2743  0.1861
73370SOL    HW138102  12.121  10.762   7.294 -0.3190 -0.2196 -0.2458
73370SOL    HW238103  12.027  10.845   7.379  1.7251 -0.5239  2.4422
73371SOL     OW38104  12.930   1.678   9.400 -0.3637 -0.1173  0.2588
73371SOL    HW138105  12.841   1.688   9.367 -0.4765 -0.6261  0.3924
73371SOL    HW238106  12.984   1.727   9.338 -0.8641  1.3280  0.9204
73372SOL     OW38107   2.819  11.584   4.945  0.2244 -0.1217  0.0980
73372SOL    HW138108   2.834  11.556   5.036  0.2258 -0.3932  0.0155
73372SOL    HW238109   2.872  11.524   4.893 -0.4516 -0.5245 -0.1380
73373SOL     OW38110   5.088   7.083   0.689  0.2133  0.0507 -0.5363
73373SOL    HW138111   5.026   7.068   0.617 -1.4057 -2.0579  1.1711
73373SOL    HW238112   5.045   7.150   0.743  0.0917 -0.3713 -0.1043
73374SOL     OW38113   1.400   7.235  11.188  0.4119 -0.3291 -0.0281
73374SOL    HW138114   1.317   7.251  11.233  1.2809 -2.1663  2.4578
73374SOL    HW238115   1.410   7.140  11.188  3.1254 -0.1275  1.0184
73375SOL     OW38116   3.837   8.690   9.516 -0.0631 -0.0924  0.1637
73375SOL    HW138117   3.787   8.760   9.472  1.6161  0.0958 -1.5634
73375SOL    HW238118   3.822   8.706   9.609 -0.9085  1.6852 -0.2207
73376SOL     OW38119   4.137  12.434   8.859  0.1092  0.1458 -0.1262
73376SOL    HW138120   4.206  12.394   8.912  1.2413  2.8518  0.5991
73376SOL    HW238121   4.082  12.480   8.923 -2.5771 -2.0254 -0.6634
73377SOL     OW38122   3.108   4.714   5.242 -0.0073 -0.3346  0.1553
73377SOL    HW138123   3.185   4.719   5.299 -0.6914  0.1531  1.0732
73377SOL    HW238124   3.069   4.629   5.262  0.2138 -0.5258 -0.2146
73378SOL     OW38125  13.930   3.952   2.702 -0.2742  0.1396  0.1907
73378SOL    HW138126  13.862   3.950   2.770  1.0403  2.3492  1.7094
73378SOL    HW238127  13.940   3.861   2.675 -1.5224 -0.7065  2.3074
73379SOL     OW38128   3.187  12.515   6.118  0.3105  0.5766  0.0593
73379SOL    HW138129   3.185  12.419   6.116 -0.0080  0.5789  0.1668
73379SOL    HW238130   3.102  12.541   6.083  0.3146  0.8188  0.2295
73380SOL     OW38131   3.251  11.123   2.626 -0.2838 -0.0747 -0.3029
73380SOL    HW138132   3.180  11.059   2.622 -0.5541  0.2448 -2.9866
73380SOL    HW238133   3.210  11.201   2.664 -0.5097 -0.8190  1.0332
73381SOL     OW38134   3.433  12.956   2.740 -0.0023 -0.1981 -0.0663
73381SOL    HW138135   3.511  12.902   2.731  0.3241  0.3832 -0.7791
73381SOL    HW238136   3.428  12.975   2.834  2.2474  1.9421 -0.2724
73382SOL     OW38137   9.774   9.409  12.947 -0.3776  0.7692  0.2748
73382SOL    HW138138   9.687   9.428  12.913 -2.4940 -0.4087  4.4060
73382SOL    HW238139   9.820   9.492  12.943 -1.1476  1.1765 -3.0507
73383SOL     OW38140   4.417   4.090   4.625  0.9111  0.6934  0.4606
73383SOL    HW138141   4.460   4.032   4.687 -0.6715  0.4248  1.3636
73383SOL    HW238142   4.401   4.036   4.548 -1.6329 -0.5528  1.7254
73384SOL     OW38143   8.906   3.821   9.480 -0.3186 -0.1100 -0.5299
73384SOL    HW138144   8.860   3.828   9.397 -0.5204 -2.2632 -0.6367
73384SOL    HW238145   8.899   3.729   9.505 -0.7351  0.5363  2.1521
73385SOL     OW38146  13.953   5.408   3.445  0.2854 -0.0378 -0.0353
73385SOL    HW138147  13.974   5.432   3.535 -1.6213 -3.4304  1.5147
73385SOL    HW238148  13.906   5.483   3.410 -0.2751  0.8062  2.3720
73386SOL     OW38149  13.577   2.630   0.240 -0.3607  0.0936 -0.0007
73386SOL    HW138150  13.585   2.649   0.334  1.4747 -0.3918 -0.0241
73386SOL    HW238151  13.572   2.534   0.236  1.1286  0.0141 -0.4574
73387SOL     OW38152   4.361  11.738   8.504 -0.2013 -0.5958 -0.4663
73387SOL    HW138153   4.331  11.829   8.503  1.2499 -0.0826 -0.1420
73387SOL    HW238154   4.326  11.702   8.585 -1.0480 -0.4286 -0.7475
73388SOL     OW38155   4.861   1.318   2.596 -0.6181  0.0809  0.2318
73388SOL    HW138156   4.789   1.370   2.631 -0.0369 -0.0424  1.6745
73388SOL    HW238157   4.874   1.249   2.661  1.6445  0.8520  0.6752
73389SOL     OW38158  10.533   8.023  12.225  0.0224  0.3628 -0.4111
73389SOL    HW138159  10.486   7.939  12.234  1.6478 -0.6032 -0.5140
73389SOL    HW238160  10.554   8.028  12.131  1.1406  0.1765 -0.1828
73390SOL     OW38161   3.240   1.529  13.697 -0.4868 -0.1015  0.2105
73390SOL    HW138162   3.207   1.562  13.781 -1.4332  0.8831 -0.5142
73390SOL    HW238163   3.273   1.607  13.653 -2.9521  0.0322 -1.6426
73391SOL     OW38164   5.028  10.744  10.646  0.2311  0.3852  0.2614
73391SOL    HW138165   5.078  10.691  10.708  0.0022  1.0354  1.0286
73391SOL    HW238166   4.940  10.705  10.646  0.4561 -0.1278 -0.3006
73392SOL     OW38167   8.051   4.239   2.594  0.0060 -0.0566  0.1794
73392SOL    HW138168   8.023   4.192   2.515  0.2745 -1.4554  0.8967
73392SOL    HW238169   8.140   4.209   2.610  0.2545  0.8460  0.5684
73393SOL     OW38170  13.512   0.230  13.717  0.4252  0.5102 -0.3539
73393SOL    HW138171  13.448   0.250  13.786  1.8634 -0.3991  1.3318
73393SOL    HW238172  13.507   0.136  13.706 -1.9192  0.8814 -3.7813
73394SOL     OW38173   1.662   1.221  12.099 -0.0042  0.1892  0.1125
73394SOL    HW138174   1.591   1.276  12.133  0.4804  1.0774 -0.2719
73394SOL    HW238175   1.732   1.283  12.080  1.7048 -0.8742  2.4770
73395SOL     OW38176   0.609  13.499   2.526 -0.1827  0.3127  0.2543
73395SOL    HW138177   0.524  13.510   2.568 -0.8328 -2.5000 -0.1070
73395SOL    HW238178   0.588  13.486   2.433  0.8471  1.5868 -0.1924
73396SOL     OW38179   2.560   5.641   4.393 -0.3342  0.2875 -0.1326
73396SOL    HW138180   2.472   5.609   4.411 -0.6222  1.3517  0.4403
73396SOL    HW238181   2.553   5.685   4.309 -0.7744  1.8353  0.6767
73397SOL     OW38182   6.482  13.119   5.864 -0.1723  0.6167 -0.1670
73397SOL    HW138183   6.476  13.148   5.955 -1.5963  1.4123 -0.4816
73397SOL    HW238184   6.546  13.048   5.865  0.1158  0.8786  1.3840
73398SOL     OW38185   1.730  11.947   8.745 -0.1832 -0.1563  0.3183
73398SOL    HW138186   1.770  11.961   8.830  0.1564 -0.5470  0.2269
73398SOL    HW238187   1.787  11.993   8.683 -1.1244  1.2126  0.4309
73399SOL     OW38188  10.087   2.707  13.596  0.1493  0.3640  0.0952
73399SOL    HW138189  10.171   2.676  13.565  0.6026  2.2585 -0.6932
73399SOL    HW238190  10.044   2.745  13.519 -0.4917  1.3576  0.8921
73400SOL     OW38191   4.132   1.022   9.301  0.0375 -0.1681 -0.3546
73400SOL    HW138192   4.047   1.039   9.341 -0.0978 -1.9830  0.2414
73400SOL    HW238193   4.115   1.022   9.207 -0.6355 -0.5181 -0.2406
73401SOL     OW38194   7.666  11.306   7.452  0.5041  0.4004 -0.4102
73401SOL    HW138195   7.661  11.244   7.525  0.1657 -1.8289 -2.2180
73401SOL    HW238196   7.758  11.304   7.426  0.4182  0.3375 -0.7173
73402SOL     OW38197   2.656   1.885   7.016  0.2873 -0.0707  0.1675
73402SOL    HW138198   2.655   1.968   6.967  0.2939 -0.5384 -0.6379
73402SOL    HW238199   2.715   1.902   7.090 -0.7232  1.0580  0.7679
73403SOL     OW38200   7.443   7.606   0.760  0.2179  0.0839  0.1482
73403SOL    HW138201   7.494   7.678   0.797  0.8515 -1.1881  1.8791
73403SOL    HW238202   7.466   7.530   0.814  0.4926 -1.7156 -2.2990
73404SOL     OW38203   0.553   7.416   3.687 -0.1030 -0.1571 -0.5447
73404SOL    HW138204   0.502   7.492   3.658 -2.4161 -1.7510 -0.9074
73404SOL    HW238205   0.582   7.374   3.606  0.0706 -0.3824 -0.3671
73405SOL     OW38206   7.932   3.152   8.111  0.0186 -0.3021  0.1000
73405SOL    HW138207   7.910   3.194   8.194  1.2645  0.1965  0.1980
73405SOL    HW238208   7.864   3.181   8.050  0.0749  0.7350  0.5131
73406SOL     OW38209   5.826  12.529   3.683 -0.1316  0.1887 -0.0179
73406SOL    HW138210   5.819  12.434   3.698 -0.9325  0.3692  0.8484
73406SOL    HW238211   5.791  12.568   3.763  0.8984  1.2234 -0.0538
73407SOL     OW38212  12.522   4.739   2.173 -0.2578 -0.0548  0.5614
73407SOL    HW138213  12.507   4.735   2.079 -1.1057 -0.9387  0.7244
73407SOL    HW238214  12.556   4.828   2.188  0.7478 -0.2119 -0.6782
73408SOL     OW38215  13.267  10.883  12.925  0.0534 -0.8572  0.2698
73408SOL    HW138216  13.249  10.913  12.836 -1.2082 -0.4189  0.6413
73408SOL    HW238217  13.298  10.794  12.915  2.6345  0.0724 -0.7813
73409SOL     OW38218   4.715   1.292   9.640 -0.6137  0.3315 -0.1123
73409SOL    HW138219   4.665   1.367   9.607  0.3511  1.0191 -0.0272
73409SOL    HW238220   4.731   1.238   9.562 -1.9559 -0.2095 -0.0600
73410SOL     OW38221  14.007  11.042  10.506  0.1223  0.6251  0.3769
73410SOL    HW138222  13.999  10.979  10.577  0.5061  0.6447  0.4384
73410SOL    HW238223  13.917  11.066  10.485 -0.0773 -0.5180 -0.1690
73411SOL     OW38224   5.570   2.792   4.543 -0.4819  0.0731  0.3303
73411SOL    HW138225   5.561   2.874   4.591  0.0378 -0.6953  1.8121
73411SOL    HW238226   5.639   2.744   4.589  0.4059 -0.5240 -1.5053
73412SOL     OW38227  14.109   2.577  10.851  0.0407  0.2180 -0.2467
73412SOL    HW138228  14.092   2.538  10.937  0.4153 -0.2138 -0.3613
73412SOL    HW238229  14.189   2.628  10.864 -0.4802  0.9973 -0.0834
73413SOL     OW38230   4.601  13.988   3.478  0.2416 -0.1756  0.7013
73413SOL    HW138231   4.645  14.021   3.400 -0.2858  1.0107  0.8725
73413SOL    HW238232   4.667  13.935   3.523  1.0899  0.5260  0.3104
73414SOL     OW38233   5.757   1.445   4.784 -0.1604  0.2398 -0.4747
73414SOL    HW138234   5.818   1.371   4.780  0.1707  0.4074  0.8955
73414SOL    HW238235   5.718   1.448   4.696  0.8512 -0.6707 -0.9935
73415SOL     OW38236   1.066  10.517   9.332  0.0270  0.7301 -0.5044
73415SOL    HW138237   1.077  10.611   9.313  1.2262  0.8964  0.8083
73415SOL    HW238238   1.079  10.474   9.247 -0.4028  1.7388 -1.1029
73416SOL     OW38239   1.262   6.402  11.121 -0.2241  0.1035  0.4054
73416SOL    HW138240   1.178   6.406  11.166 -0.4011 -0.4927  0.1337
73416SOL    HW238241   1.286   6.494  11.108 -0.1689  0.2797  1.6956
73417SOL     OW38242  11.733   1.369   5.117  0.4048 -0.5071  0.1155
73417SOL    HW138243  11.702   1.321   5.040 -1.2957 -0.0523  0.4710
73417SOL    HW238244  11.809   1.321   5.147 -1.0164 -2.8243  0.2413
73418SOL     OW38245  13.906  13.260   4.111  0.2590 -0.4617  0.8509
73418SOL    HW138246  13.982  13.225   4.064 -0.8240 -1.0557 -0.5074
73418SOL    HW238247  13.868  13.185   4.155 -0.9534 -0.6815 -0.5010
73419SOL     OW38248  12.745   8.281   6.795  0.1911 -0.0950 -0.4308
73419SOL    HW138249  12.825   8.293   6.745 -0.1921  0.7731 -0.8599
73419SOL    HW238250  12.773   8.285   6.887  0.5289  1.0722 -0.5704
73420SOL     OW38251  10.912   0.986   0.625 -0.2624  0.2495 -0.1783
73420SOL    HW138252  10.917   1.008   0.718  1.2604  0.0795 -0.1942
73420SOL    HW238253  10.964   1.053   0.582 -0.3954 -0.0721 -0.8422
73421SOL     OW38254   7.318   3.594   3.838  0.5382 -0.2798  0.7386
73421SOL    HW138255   7.250   3.535   3.804  0.5776 -0.0384  0.2266
73421SOL    HW238256   7.396   3.571   3.787 -0.0674  1.9721 -1.3551
73422SOL     OW38257   4.812   9.477   9.483 -0.1565 -0.4447  0.4264
73422SOL    HW138258   4.882   9.517   9.431 -2.4271  1.4421 -1.4332
73422SOL    HW238259   4.780   9.405   9.429 -1.3877  0.4281 -0.0514
73423SOL     OW38260   1.624   1.569   2.158 -0.4827 -0.0237  0.2626
73423SOL    HW138261   1.653   1.508   2.090 -0.0994 -1.1071  1.3548
73423SOL    HW238262   1.628   1.655   2.117  1.1477 -0.4878 -0.6375
73424SOL     OW38263  12.818   8.149   7.310 -0.0724  0.0570  0.1550
73424SOL    HW138264  12.792   8.066   7.351 -1.6197  0.4269 -0.0241
73424SOL    HW238265  12.825   8.210   7.383 -1.4112  0.3659  0.0402
73425SOL     OW38266   8.608   6.571   8.268  0.0328 -0.0735  0.5497
73425SOL    HW138267   8.649   6.657   8.275 -0.3230  0.2389 -0.7936
73425SOL    HW238268   8.514   6.588   8.276  0.0753 -0.6947  2.9155
73426SOL     OW38269  11.767  12.958  13.671 -0.5345  0.3944 -0.1016
73426SOL    HW138270  11.720  13.029  13.716 -0.4452  1.7635 -2.0198
73426SOL    HW238271  11.727  12.878  13.704 -1.2615  1.3635  1.4913
73427SOL     OW38272  12.075   1.416   2.750 -0.2674 -0.3529 -0.3106
73427SOL    HW138273  12.041   1.491   2.798 -1.4057 -0.5224 -0.8324
73427SOL    HW238274  12.003   1.354   2.747  0.6561 -1.4851  0.1030
73428SOL     OW38275  12.013   4.751   2.537  0.7258  0.3809  0.3851
73428SOL    HW138276  12.082   4.810   2.508 -0.0670  1.8452  1.3892
73428SOL    HW238277  11.977   4.715   2.456 -0.6855  3.4902 -0.5221
73429SOL     OW38278   3.369   0.103   3.169  0.0135 -0.1516  0.3226
73429SOL    HW138279   3.409   0.104   3.082 -1.1247  2.1185 -0.2655
73429SOL    HW238280   3.366   0.010   3.193 -1.5607 -1.1553 -3.0241
73430SOL     OW38281   8.680   4.115   9.020  0.3158 -0.0257 -0.5859
73430SOL    HW138282   8.738   4.070   9.082  0.0115 -0.5498 -0.6783
73430SOL    HW238283   8.737   4.176   8.973  1.2989 -2.1643 -2.3083
73431SOL     OW38284   9.537   5.129  11.819  0.2251 -0.1788 -0.3808
73431SOL    HW138285   9.490   5.193  11.766 -1.4707 -1.3577 -0.3733
73431SOL    HW238286   9.621   5.118  11.773  0.4022  1.7110 -0.5911
73432SOL     OW38287  11.403   0.882   2.385 -0.3724  0.3351  0.2262
73432SOL    HW138288  11.401   0.969   2.425 -2.8285  0.7462 -0.6143
73432SOL    HW238289  11.325   0.880   2.329 -0.3328 -2.3731  0.1501
73433SOL     OW38290  10.416   7.573   6.451  0.2197  0.3427  0.1597
73433SOL    HW138291  10.500   7.590   6.410 -0.3844  0.0748 -1.2467
73433SOL    HW238292  10.423   7.482   6.482 -0.4383 -0.6367 -2.3544
73434SOL     OW38293   7.248  11.539   1.510 -0.0835 -0.0280  0.0769
73434SOL    HW138294   7.253  11.443   1.507 -1.4495 -0.1565 -3.3017
73434SOL    HW238295   7.164  11.558   1.552  0.4179 -0.2461  1.2128
73435SOL     OW38296   2.648   4.905   4.817 -0.2552 -0.7992 -0.3704
73435SOL    HW138297   2.588   4.891   4.891 -0.8188  0.6866 -0.5253
73435SOL    HW238298   2.636   4.996   4.792  0.7802 -0.9566 -1.5736
73436SOL     OW38299   2.582   4.007   0.211 -0.3236 -0.6573  0.2276
73436SOL    HW138300   2.578   3.923   0.258  0.2440  0.0152  1.5426
73436SOL    HW238301   2.491   4.028   0.192 -0.4947 -1.4268  0.1576
73437SOL     OW38302   1.281   5.118   4.794 -0.4211 -0.1886  0.1723
73437SOL    HW138303   1.249   5.205   4.817 -1.2291  0.0015 -1.5103
73437SOL    HW238304   1.350   5.100   4.858 -1.7247  0.7425  1.9267
73438SOL     OW38305  11.671   4.408   3.267 -0.5126 -0.2631 -0.5156
73438SOL    HW138306  11.745   4.356   3.236 -2.0275 -1.4662 -2.3319
73438SOL    HW238307  11.674   4.399   3.362  1.2647 -0.8265 -0.5802
73439SOL     OW38308   9.051   5.444   1.074 -0.0405 -0.4932  0.0362
73439SOL    HW138309   9.043   5.463   1.167 -0.9340 -3.1527  0.5878
73439SOL    HW238310   9.046   5.529   1.031 -0.4225  0.7203  2.3530
73440SOL     OW38311   4.029   8.544   9.117  0.0265  0.0312  0.6042
73440SOL    HW138312   4.067   8.538   9.205  2.7551  2.1681 -0.2752
73440SOL    HW238313   4.095   8.504   9.060 -0.5530  0.8877 -0.7102
73441SOL     OW38314   0.077   8.618   5.856  0.0312 -0.1494  0.4298
73441SOL    HW138315   0.058   8.692   5.798  0.5542  0.0991  0.5620
73441SOL    HW238316   0.116   8.552   5.799 -0.8097 -0.4919  0.2363
73442SOL     OW38317   3.499   7.712   9.991 -0.1597 -0.4701  0.3525
73442SOL    HW138318   3.572   7.771  10.011  0.3849 -1.0400  0.0702
73442SOL    HW238319   3.500   7.648  10.062 -0.0865 -0.7567  0.0926
73443SOL     OW38320  12.363  13.258   9.913  0.4596  0.1087  0.6445
73443SOL    HW138321  12.292  13.247   9.850  0.7393 -2.7807  0.6694
73443SOL    HW238322  12.319  13.268   9.998  0.0837  0.6399  0.3879
73444SOL     OW38323  10.771   9.301   3.091  0.5377  0.1068 -0.7348
73444SOL    HW138324  10.791   9.223   3.142  2.3805 -1.1311 -3.1536
73444SOL    HW238325  10.703   9.273   3.029 -0.0547  0.9391 -0.4793
73445SOL     OW38326  10.901   6.331  10.373  0.5410  0.2855 -0.0985
73445SOL    HW138327  10.928   6.242  10.353 -0.6659 -0.5229  1.6511
73445SOL    HW238328  10.945   6.351  10.456 -2.7247 -0.4533  1.9594
73446SOL     OW38329   2.285   3.955   2.124 -0.3778 -0.4316 -0.0362
73446SOL    HW138330   2.308   3.870   2.161  1.8105  0.3627  0.5870
73446SOL    HW238331   2.250   3.934   2.037  0.3870 -1.9683 -0.0141
73447SOL     OW38332  14.054   0.893   3.666  0.7828  0.2218  0.0228
73447SOL    HW138333  14.012   0.832   3.726  0.3837 -0.2886 -0.7596
73447SOL    HW238334  14.147   0.870   3.668  0.8575  0.5656  0.8435
73448SOL     OW38335   6.518   5.853   5.301 -0.2886  0.1808 -0.8236
73448SOL    HW138336   6.553   5.775   5.256  0.1256  0.2543 -0.6317
73448SOL    HW238337   6.550   5.926   5.248 -1.4559  0.1906 -1.5433
73449SOL     OW38338   3.211   7.426   4.154  0.0786 -0.0688 -0.6250
73449SOL    HW138339   3.134   7.466   4.193  0.2179 -1.0699  0.7798
73449SOL    HW238340   3.285   7.472   4.195  0.2233  0.2004 -1.1900
73450SOL     OW38341   8.638   1.079   6.031  0.0534 -0.6325  0.0764
73450SOL    HW138342   8.712   1.132   6.062  0.6711 -0.9534 -0.8065
73450SOL    HW238343   8.582   1.142   5.985  0.1947 -0.5313  0.0400
73451SOL     OW38344  10.850   5.604   7.656 -0.8687 -0.1372  0.3614
73451SOL    HW138345  10.892   5.612   7.571  0.3315 -0.8726  0.8696
73451SOL    HW238346  10.854   5.693   7.693  0.0914 -0.1586  0.3264
73452SOL     OW38347   3.048   5.000   5.976  0.8612 -0.1959  0.5590
73452SOL    HW138348   3.119   4.955   6.022  1.3177 -0.4616 -0.3801
73452SOL    HW238349   3.058   4.974   5.885 -0.0683  0.2672  0.3125
73453SOL     OW38350   4.135  13.984   1.832 -0.0746 -0.4264 -0.3837
73453SOL    HW138351   4.223  14.020   1.845  0.2360 -1.6633  1.3223
73453SOL    HW238352   4.150  13.896   1.796 -0.7491  0.2339 -2.4678
73454SOL     OW38353   9.494   5.653   6.884 -0.6150  0.1514 -0.1077
73454SOL    HW138354   9.481   5.674   6.791 -0.5932 -0.5553 -0.2715
73454SOL    HW238355   9.532   5.733   6.921  0.6583 -0.0128 -0.9910
73455SOL     OW38356   5.627  12.083   1.148  0.4007  0.2851 -0.4857
73455SOL    HW138357   5.606  12.041   1.065 -1.4313 -0.3704  0.2335
73455SOL    HW238358   5.574  12.036   1.212 -1.1661  3.1475  0.5153
73456SOL     OW38359  13.002   6.791   0.302 -0.4761 -0.1063 -0.0926
73456SOL    HW138360  13.023   6.819   0.213  1.0645 -1.4265 -0.1958
73456SOL    HW238361  13.076   6.737   0.328 -2.1196 -2.0064  0.9714
73457SOL     OW38362  11.901   4.027   8.144  0.1219  0.0590  0.0245
73457SOL    HW138363  11.982   4.058   8.184  0.6631 -0.7812 -0.4044
73457SOL    HW238364  11.874   3.954   8.199  1.5621 -1.9552 -1.8063
73458SOL     OW38365  13.526  10.912   9.587  0.1591  0.4295 -0.3530
73458SOL    HW138366  13.551  10.830   9.543 -1.7692 -1.6135  2.0284
73458SOL    HW238367  13.432  10.920   9.572  0.0235  1.3017  0.8269
73459SOL     OW38368   5.521   8.347  13.602  0.0664 -0.6830 -0.2802
73459SOL    HW138369   5.557   8.403  13.671  1.3518 -2.0162  0.1802
73459SOL    HW238370   5.490   8.270  13.648  1.4462 -1.8475 -1.2022
73460SOL     OW38371   5.696  13.669  11.816  0.0721  0.0755 -0.2219
73460SOL    HW138372   5.673  13.599  11.877  0.5484  1.1432  1.2597
73460SOL    HW238373   5.633  13.739  11.835  0.9729  0.8737 -0.0807
73461SOL     OW38374   1.487   6.631  10.911 -0.0255 -0.4818 -0.2464
73461SOL    HW138375   1.428   6.573  10.863  0.0228 -0.4927 -0.2926
73461SOL    HW238376   1.568   6.629  10.861 -0.6430  1.2014 -1.3855
73462SOL     OW38377   3.496   8.449   9.027  0.0226  0.0238 -0.6297
73462SOL    HW138378   3.577   8.426   8.982  0.6851  1.9986 -0.5766
73462SOL    HW238379   3.516   8.437   9.120 -0.4066 -1.3524 -0.7073
73463SOL     OW38380  14.084   4.258  11.345 -0.0399  0.3969  0.1193
73463SOL    HW138381  14.109   4.337  11.296  1.8554 -0.6247 -0.6916
73463SOL    HW238382  14.067   4.192  11.277 -0.1615 -0.2807  0.7882
73464SOL     OW38383   4.135  11.619  11.533 -0.2182 -0.2226  0.7205
73464SOL    HW138384   4.172  11.544  11.579  1.8720 -0.9729 -1.9726
73464SOL    HW238385   4.084  11.581  11.461 -0.2988  0.9312  0.1353
73465SOL     OW38386  10.687  12.890   7.433 -0.1296  0.1456  0.8068
73465SOL    HW138387  10.754  12.829   7.463 -2.1326 -2.6659  0.0368
73465SOL    HW238388  10.728  12.937   7.361  1.3348 -0.7717  0.9989
73466SOL     OW38389   0.332   5.411  10.540 -0.2161  0.0139  0.0404
73466SOL    HW138390   0.300   5.474  10.476  1.5464 -0.8008 -1.7540
73466SOL    HW238391   0.391   5.462  10.596  3.3674 -0.2730 -3.0337
73467SOL     OW38392   0.323  13.103  11.613 -0.8122 -0.0270  0.3913
73467SOL    HW138393   0.298  13.137  11.699 -1.8318  0.5384 -0.1097
73467SOL    HW238394   0.240  13.088  11.568 -0.3000 -0.6767 -0.3623
73468SOL     OW38395   4.642  11.019   5.028 -0.2193  0.4078  0.2359
73468SOL    HW138396   4.583  10.966   5.081  0.2505 -0.6427 -0.2597
73468SOL    HW238397   4.701  11.059   5.092 -1.8599  2.0561  0.8083
73469SOL     OW38398  11.609   8.579   4.180 -0.3653 -0.2929 -0.1680
73469SOL    HW138399  11.689   8.577   4.127 -0.0390 -0.8366  0.3312
73469SOL    HW238400  11.617   8.504   4.239 -1.1524 -0.2356  0.0278
73470SOL     OW38401   7.874   7.565   6.317 -0.0230 -0.2473  0.1186
73470SOL    HW138402   7.938   7.529   6.378  0.6525 -0.9408 -0.9672
73470SOL    HW238403   7.872   7.659   6.339 -0.7300 -0.6555  1.9998
73471SOL     OW38404   2.864  12.928  13.479 -0.4231  0.4056  0.7065
73471SOL    HW138405   2.923  12.929  13.554  0.4706 -0.7110  0.0544
73471SOL    HW238406   2.870  12.839  13.445 -1.4319  0.6660 -0.2108
73472SOL     OW38407   3.234   4.423  11.988 -0.1461 -0.1666  0.4330
73472SOL    HW138408   3.268   4.373  12.062 -1.4164 -0.3028  0.9432
73472SOL    HW238409   3.180   4.361  11.939  1.6190 -0.4112 -1.3198
73473SOL     OW38410  10.502   8.481   2.114 -0.0635 -0.0702 -0.0457
73473SOL    HW138411  10.501   8.386   2.120  2.6077 -0.1605 -0.0700
73473SOL    HW238412  10.467   8.500   2.027  0.4579 -1.0963 -0.4923
73474SOL     OW38413  13.535   4.918   7.570  0.2045  0.2555 -0.4240
73474SOL    HW138414  13.529   5.013   7.566  1.9183  0.3756 -3.0597
73474SOL    HW238415  13.553   4.898   7.662  1.2450  2.6040 -0.0611
73475SOL     OW38416   9.839   4.464  10.335  0.1169  0.0426  0.2601
73475SOL    HW138417   9.932   4.484  10.349 -0.0778  1.5180 -0.3492
73475SOL    HW238418   9.837   4.418  10.251  0.2720  0.2352  0.1494
73476SOL     OW38419   4.128   5.882  10.836 -0.1331  0.4923  0.3418
73476SOL    HW138420   4.146   5.936  10.760 -2.0245  0.0213 -0.4992
73476SOL    HW238421   4.097   5.943  10.903  0.3428  0.7507  0.3309
73477SOL     OW38422  14.061  10.350  12.910  0.6553  0.1812  0.2903
73477SOL    HW138423  14.091  10.261  12.930  0.7692  0.3699  0.9940
73477SOL    HW238424  13.966  10.346  12.924  0.7906  0.4272  1.3565
73478SOL     OW38425  11.484  13.996   4.517  0.3767  0.3138 -0.6528
73478SOL    HW138426  11.429  14.023   4.444 -1.2885 -0.5272  0.2400
73478SOL    HW238427  11.530  13.918   4.485  0.0936  0.2861 -1.0007
73479SOL     OW38428   5.380   1.317  12.497 -0.1632 -0.7038  0.5959
73479SOL    HW138429   5.465   1.285  12.526  0.7285  1.1334  0.1403
73479SOL    HW238430   5.361   1.391  12.555 -1.5901 -1.2404  0.8551
73480SOL     OW38431  11.343   3.901   2.062  0.2729  0.1688  0.0122
73480SOL    HW138432  11.334   3.882   2.156 -0.0090 -0.4690 -0.1360
73480SOL    HW238433  11.407   3.838   2.031 -0.5619 -0.4682 -0.4631
73481SOL     OW38434  11.603   4.485  13.587 -0.6246 -0.2858  0.0215
73481SOL    HW138435  11.667   4.447  13.528  0.4795  0.6928  0.5589
73481SOL    HW238436  11.604   4.429  13.665 -0.4802 -0.3140 -0.0024
73482SOL     OW38437   0.585  12.477   4.802 -0.1055 -0.0869 -0.0369
73482SOL    HW138438   0.665  12.426   4.794 -0.7405 -1.1550  0.1468
73482SOL    HW238439   0.574  12.519   4.717  1.4443  1.3165  0.4266
73483SOL     OW38440  12.054   7.174   7.500 -0.2883 -0.1584 -0.1325
73483SOL    HW138441  11.991   7.220   7.446 -0.7955 -1.5949 -0.8080
73483SOL    HW238442  12.002   7.131   7.567  0.0168 -0.8850 -0.3503
73484SOL     OW38443   2.142   2.368  12.803 -0.2371 -0.0707 -0.1702
73484SOL    HW138444   2.226   2.412  12.792 -0.4679  0.3234 -0.3735
73484SOL    HW238445   2.119   2.382  12.895  1.5047 -3.0273  0.8523
73485SOL     OW38446  12.555   8.091  13.342 -0.4100 -0.1363 -0.0580
73485SOL    HW138447  12.550   8.155  13.412  0.4039 -0.6000  0.4354
73485SOL    HW238448  12.468   8.092  13.302 -0.2974  1.5611 -0.3218
73486SOL     OW38449   3.571   1.216   0.980 -0.2539 -0.4455 -0.3147
73486SOL    HW138450   3.616   1.301   0.988 -3.2944  1.4214 -1.1554
73486SOL    HW238451   3.619   1.170   0.911  1.9669  0.1956  0.7231
73487SOL     OW38452  10.357  13.748  13.290  0.5353 -0.4125  0.2852
73487SOL    HW138453  10.398  13.741  13.376  1.9200 -0.8261 -0.3738
73487SOL    HW238454  10.424  13.789  13.235 -0.1813 -0.5076 -0.6922
73488SOL     OW38455   8.593   2.241   3.480  0.2354 -0.2489  0.6847
73488SOL    HW138456   8.659   2.248   3.411 -0.2812  1.1271  0.3056
73488SOL    HW238457   8.539   2.319   3.470 -0.5640 -0.6142  1.9210
73489SOL     OW38458  10.153  10.325   9.997  0.5132 -0.1651 -0.1274
73489SOL    HW138459  10.079  10.265  10.010  2.0305 -1.5560  3.4710
73489SOL    HW238460  10.224  10.269   9.966  1.4081  0.0227  1.4336
73490SOL     OW38461   9.331   6.781   6.877  1.5725 -0.2284  0.2485
73490SOL    HW138462   9.319   6.862   6.828  0.0767 -1.1208 -0.9706
73490SOL    HW238463   9.258   6.778   6.939  1.3187 -0.8498 -0.0622
73491SOL     OW38464  13.212   6.503   4.304  0.1584 -0.4222 -0.0946
73491SOL    HW138465  13.272   6.469   4.238 -0.9617 -0.8202 -0.9329
73491SOL    HW238466  13.161   6.427   4.332 -1.3234  0.2500 -0.8719
73492SOL     OW38467   1.628  14.139   6.842  0.0992  0.2649  0.0758
73492SOL    HW138468   1.534  14.158   6.835  0.0115  0.0044  0.4983
73492SOL    HW238469   1.649  14.154   6.934 -0.5462 -3.9843  1.1283
73493SOL     OW38470  11.786   4.266   5.824 -0.5246  0.3710 -0.1993
73493SOL    HW138471  11.771   4.286   5.916 -0.8748 -0.2153 -0.1257
73493SOL    HW238472  11.784   4.352   5.780  0.1863  0.7075  0.4043
73494SOL     OW38473   0.825   7.885  10.961 -0.2715 -0.1106  0.5886
73494SOL    HW138474   0.790   7.863  11.047 -0.5591  1.0339  0.7784
73494SOL    HW238475   0.804   7.977  10.949 -1.5291 -0.5744 -1.3196
73495SOL     OW38476   6.404   8.376  11.975  0.8800 -0.1234 -0.0698
73495SOL    HW138477   6.468   8.358  11.906  1.2900 -0.0696  0.2975
73495SOL    HW238478   6.338   8.308  11.965  1.0235 -0.2161 -0.4085
73496SOL     OW38479   5.650   3.181   7.041 -0.1208  0.2031 -0.2535
73496SOL    HW138480   5.589   3.129   7.093  1.1531 -0.9055  0.1937
73496SOL    HW238481   5.596   3.219   6.971 -2.1028  2.5520  2.3168
73497SOL     OW38482   7.431   0.695   0.744  0.3337 -0.5997 -0.3024
73497SOL    HW138483   7.486   0.735   0.811  0.2888  0.1362 -0.6954
73497SOL    HW238484   7.351   0.748   0.745  0.5836 -0.1960 -1.3709
73498SOL     OW38485   9.834   7.989   3.257 -0.9206  0.0817 -0.2608
73498SOL    HW138486   9.900   8.002   3.189 -0.7309 -1.5580 -0.4295
73498SOL    HW238487   9.882   7.952   3.330 -1.2901  0.9661  0.4451
73499SOL     OW38488   7.859   7.727   9.310  0.4094  0.0057  0.4325
73499SOL    HW138489   7.790   7.695   9.252  1.6467 -1.3784 -0.3592
73499SOL    HW238490   7.868   7.819   9.289  0.0813 -0.2289 -0.8035
73500SOL     OW38491  10.468   9.406   1.040 -0.2667  0.2259 -0.0325
73500SOL    HW138492  10.475   9.363   0.955 -0.1701  0.5551 -0.1913
73500SOL    HW238493  10.388   9.459   1.035  0.4539  1.3045 -0.4003
73501SOL     OW38494   3.655   1.577   0.443 -1.1577 -0.4125 -0.2934
73501SOL    HW138495   3.675   1.485   0.422 -0.4039 -0.6180  1.1977
73501SOL    HW238496   3.705   1.595   0.522 -2.8247  0.6988  0.5673
73502SOL     OW38497   0.795   2.258   5.078  0.1359  0.1830 -0.4305
73502SOL    HW138498   0.808   2.351   5.060 -0.6612  0.1661 -1.1909
73502SOL    HW238499   0.833   2.244   5.164  0.9121  1.0593 -0.6216
73503SOL     OW38500   2.825   6.914   8.606 -0.2840  0.2963 -0.8671
73503SOL    HW138501   2.900   6.937   8.660 -0.8388  0.9320 -0.3400
73503SOL    HW238502   2.836   6.821   8.587  0.8656  0.4820 -1.1838
73504SOL     OW38503   2.259   3.711   0.771  0.2309 -0.5244  0.6505
73504SOL    HW138504   2.219   3.755   0.696 -0.2680 -0.6451  0.8349
73504SOL    HW238505   2.187   3.705   0.835  0.8342  0.2320  1.4209
73505SOL     OW38506   9.974  13.211   0.017 -0.0846  0.5172 -0.3822
73505SOL    HW138507  10.013  13.298   0.024  0.8255  0.2445 -1.6870
73505SOL    HW238508   9.889  13.220   0.061  0.0300  2.0369 -0.4014
73506SOL     OW38509   0.997  10.864  11.932 -0.5411  0.1916 -0.4649
73506SOL    HW138510   0.997  10.826  11.845  0.7106 -0.1538 -0.3353
73506SOL    HW238511   0.976  10.791  11.990  0.3332  0.0112 -0.3508
73507SOL     OW38512  10.245   8.389  13.643 -0.2482 -0.6239  0.1673
73507SOL    HW138513  10.181   8.445  13.598  0.8987 -1.5845 -2.8930
73507SOL    HW238514  10.289   8.447  13.704 -1.8083  0.8197  0.0019
73508SOL     OW38515   0.005   7.249   6.283  0.4720 -0.1532  0.0656
73508SOL    HW138516  -0.063   7.301   6.240  1.6233  1.6005  0.2509
73508SOL    HW238517  -0.021   7.158   6.268 -2.1481  0.4162  0.5112
73509SOL     OW38518   9.002   7.276  13.866 -0.0982 -0.1905  0.0354
73509SOL    HW138519   8.908   7.291  13.860  0.0406  0.2066 -2.4087
73509SOL    HW238520   9.028   7.251  13.777  2.0532 -0.6042  0.7153
73510SOL     OW38521   0.461   5.019   7.737  0.2132  0.4253  0.3232
73510SOL    HW138522   0.474   5.035   7.831 -0.4527  0.6900  0.3804
73510SOL    HW238523   0.409   4.939   7.734 -0.8911  1.1269  0.2404
73511SOL     OW38524  13.094  10.406   7.308  0.5289 -0.1175 -0.4167
73511SOL    HW138525  13.089  10.323   7.356  0.5552 -0.4292 -0.9481
73511SOL    HW238526  13.094  10.381   7.216  0.2513  0.4876 -0.5902
73512SOL     OW38527   5.552   5.223   2.557  0.2533  0.1300 -0.4842
73512SOL    HW138528   5.510   5.259   2.635  0.8746 -1.2609  0.5475
73512SOL    HW238529   5.588   5.298   2.511  1.4312  0.8510  1.5134
73513SOL     OW38530  10.081  11.585   1.106 -0.1888  0.2328 -0.2259
73513SOL    HW138531  10.129  11.592   1.023 -2.9605  1.3530 -1.8439
73513SOL    HW238532  10.145  11.612   1.173  2.6033 -2.1515 -1.7070
73514SOL     OW38533   1.643   8.679   7.915  0.2274  0.1206 -0.4386
73514SOL    HW138534   1.551   8.679   7.942  0.3324 -0.3380 -0.0891
73514SOL    HW238535   1.650   8.606   7.854  0.1513  0.7233 -1.1973
73515SOL     OW38536   7.265   4.428  13.567 -0.8311  0.3246 -0.2685
73515SOL    HW138537   7.217   4.372  13.506 -2.4111  1.1681  0.1475
73515SOL    HW238538   7.292   4.369  13.637  1.2641 -0.7198 -1.8470
73516SOL     OW38539   5.193   9.381   2.927  0.1418 -0.4993  0.1724
73516SOL    HW138540   5.152   9.362   2.843  1.6565 -0.8516 -0.5276
73516SOL    HW238541   5.272   9.430   2.905 -1.2233  2.6777  1.6396
73517SOL     OW38542   0.402   0.173   6.029 -0.0843 -0.2047  0.0315
73517SOL    HW138543   0.426   0.247   5.974 -1.6698 -0.5084 -1.1486
73517SOL    HW238544   0.329   0.132   5.983 -0.7200 -1.1670  1.8106
73518SOL     OW38545  13.243   3.174   6.141  0.0774 -0.4786  0.6693
73518SOL    HW138546  13.256   3.174   6.236 -2.0527  0.8677  1.0321
73518SOL    HW238547  13.178   3.242   6.126  0.9425 -0.1115 -1.8829
73519SOL     OW38548   8.508   2.865  13.839  0.1995  0.3896 -0.2773
73519SOL    HW138549   8.481   2.912  13.759  0.9662  0.1395 -0.6979
73519SOL    HW238550   8.443   2.796  13.849 -0.0030  0.5303 -0.5957
73520SOL     OW38551  10.747   1.354  13.586 -0.3255 -0.6322 -0.4021
73520SOL    HW138552  10.839   1.345  13.613  0.4589  3.5294 -1.1010
73520SOL    HW238553  10.737   1.289  13.516  1.9399 -1.4376 -0.0917
73521SOL     OW38554   1.286   2.427   3.058 -0.0121 -0.3243 -0.1819
73521SOL    HW138555   1.287   2.371   2.980 -0.0812 -0.7438  0.1095
73521SOL    HW238556   1.280   2.365   3.131 -1.4170  0.0928  0.0992
73522SOL     OW38557  10.034   5.946   6.420  0.0015 -0.1228  0.1664
73522SOL    HW138558  10.031   5.918   6.328  0.5967  0.5152 -0.0599
73522SOL    HW238559  10.102   5.892   6.459  0.4167  0.2695 -0.0091
73523SOL     OW38560  11.966   1.973  11.119 -0.1344  0.3235  0.1720
73523SOL    HW138561  11.982   1.895  11.067 -0.2773  0.6651 -0.3891
73523SOL    HW238562  12.019   1.960  11.198  1.9771  0.8404 -1.0615
73524SOL     OW38563   6.629  11.406   0.705 -0.0379  0.4608 -0.3740
73524SOL    HW138564   6.721  11.380   0.694 -0.0056  0.5598 -0.3408
73524SOL    HW238565   6.582  11.324   0.720 -0.1101  0.2942 -1.4566
73525SOL     OW38566   1.828   4.139   6.860  0.3319 -0.1752  0.1106
73525SOL    HW138567   1.898   4.154   6.923  0.2476 -2.1451  0.7463
73525SOL    HW238568   1.839   4.048   6.832 -1.6128 -0.3751 -0.1940
73526SOL     OW38569   9.541   6.261   0.583  0.0210  0.5193 -0.2849
73526SOL    HW138570   9.490   6.308   0.518  0.1705  1.4083  0.2229
73526SOL    HW238571   9.625   6.307   0.585 -0.1939  0.8913  0.9556
73527SOL     OW38572   5.767   1.898   5.077 -0.2642 -0.4657 -0.0864
73527SOL    HW138573   5.812   1.842   5.140 -0.4088 -0.8174 -0.2904
73527SOL    HW238574   5.674   1.887   5.097 -0.2761  0.0555  0.1635
73528SOL     OW38575  10.038  12.847  10.379 -0.1058 -0.1041  0.7135
73528SOL    HW138576   9.950  12.849  10.341  0.4993  0.2624 -0.6862
73528SOL    HW238577  10.059  12.938  10.397 -0.7037 -0.3076  2.7887
73529SOL     OW38578   5.912   4.088   1.302 -0.1810 -0.3375 -0.4927
73529SOL    HW138579   5.995   4.131   1.283 -0.2348 -0.8463 -2.0899
73529SOL    HW238580   5.937   3.999   1.328 -0.2106 -0.4481 -0.8364
73530SOL     OW38581   0.138  10.915   6.268 -0.5097  0.3798  0.1255
73530SOL    HW138582   0.175  10.928   6.355  1.5763  2.0005 -0.9041
73530SOL    HW238583   0.046  10.940   6.277 -0.4147  0.2107  1.9086
73531SOL     OW38584   8.982   2.761   1.876  0.6109 -0.0783  0.0910
73531SOL    HW138585   9.077   2.754   1.865  0.8378  0.9992  1.1476
73531SOL    HW238586   8.951   2.799   1.794  1.2332  0.5156  0.1215
73532SOL     OW38587  10.430   5.105  10.713  0.3768 -0.2279 -0.0381
73532SOL    HW138588  10.359   5.068  10.660  1.3449  1.1628 -2.4003
73532SOL    HW238589  10.399   5.095  10.803 -2.5697 -0.2028 -0.9461
73533SOL     OW38590   8.789  11.076  10.740  0.1606 -0.1288  0.0745
73533SOL    HW138591   8.779  11.110  10.651 -1.6560  1.8327  0.9490
73533SOL    HW238592   8.760  10.985  10.735  0.0423 -0.0342 -1.3117
73534SOL     OW38593  10.616   8.821   6.886  0.8306 -0.3400  0.3403
73534SOL    HW138594  10.622   8.768   6.806 -1.5003 -1.0178  0.5467
73534SOL    HW238595  10.665   8.771   6.951  0.0374 -1.4478  0.1193
73535SOL     OW38596   2.846   7.665   0.211  0.2601 -0.1209  0.0688
73535SOL    HW138597   2.834   7.742   0.267  0.0211  0.0408 -0.1988
73535SOL    HW238598   2.937   7.671   0.182  0.8013 -0.9389  1.5036
73536SOL     OW38599  11.976   1.716   1.621  0.1387  0.3736  0.2256
73536SOL    HW138600  11.889   1.676   1.614  0.6218 -0.8751  1.2053
73536SOL    HW238601  11.958   1.810   1.621 -1.0632  0.1895 -1.4144
73537SOL     OW38602   6.011  11.576   0.098 -0.2213  0.0797 -0.3789
73537SOL    HW138603   6.039  11.663   0.070  0.1036  0.2400  0.4220
73537SOL    HW238604   5.956  11.544   0.026 -0.8742  1.2075 -0.4060
73538SOL     OW38605   5.607   6.857   7.733 -0.0774 -0.1586  0.2118
73538SOL    HW138606   5.642   6.887   7.650  1.8059  0.4391  1.1567
73538SOL    HW238607   5.555   6.780   7.712 -0.0335  0.2676 -1.5495
73539SOL     OW38608   1.538  12.067  11.798  0.5200  0.0743  0.5490
73539SOL    HW138609   1.525  12.041  11.889  1.4431  0.7246  0.8774
73539SOL    HW238610   1.463  12.029  11.751 -0.7532  0.9355  1.7990
73540SOL     OW38611  10.162   0.447   3.257 -0.0016 -0.4688 -0.0401
73540SOL    HW138612  10.206   0.481   3.335 -2.4305 -0.1303  1.3090
73540SOL    HW238613  10.075   0.486   3.261 -0.9044 -2.1471 -1.7776
73541SOL     OW38614   3.430   6.595   4.274  0.2013 -0.4194 -0.8753
73541SOL    HW138615   3.499   6.642   4.321 -1.4042 -0.5794  1.8721
73541SOL    HW238616   3.461   6.504   4.271  0.5630 -0.3105 -0.5300
73542SOL     OW38617   3.269   8.899  11.776  0.2965  0.3553 -0.0042
73542SOL    HW138618   3.237   8.972  11.722  0.8973 -0.5688 -1.6695
73542SOL    HW238619   3.208   8.828  11.759  1.2251 -0.3441 -0.4689
73543SOL     OW38620  12.614   1.933  13.004 -0.1944 -0.1317 -0.2903
73543SOL    HW138621  12.585   1.842  12.998 -0.9970  0.0847  0.1177
73543SOL    HW238622  12.542   1.978  13.048  0.1450  0.7258 -0.5912
73544SOL     OW38623  10.038   0.103   6.428  0.0058  0.1552 -0.6498
73544SOL    HW138624   9.987   0.183   6.419 -1.5935 -0.5771  1.2216
73544SOL    HW238625  10.061   0.099   6.521 -0.1910 -1.6671 -0.6414
73545SOL     OW38626   3.178   4.467  12.890  0.1028 -0.0731 -0.1806
73545SOL    HW138627   3.196   4.561  12.894  0.7638 -0.2216  0.4619
73545SOL    HW238628   3.224   4.438  12.811  1.8465 -0.2493  0.8498
73546SOL     OW38629  11.404   1.751   8.376 -0.6050 -0.1518 -0.9051
73546SOL    HW138630  11.344   1.707   8.435 -1.7319  0.6902 -1.3956
73546SOL    HW238631  11.475   1.782   8.432 -1.8699  1.0251  0.1066
73547SOL     OW38632   8.901   8.118  12.014  0.0362 -0.3328  0.5072
73547SOL    HW138633   8.896   8.207  11.980 -0.4002 -0.6562 -0.3274
73547SOL    HW238634   8.818   8.105  12.061 -0.7645 -0.8872 -0.9611
73548SOL     OW38635   7.510   7.724  13.572 -0.1360 -0.2166  0.1102
73548SOL    HW138636   7.455   7.645  13.572  0.3539 -0.5897 -1.5079
73548SOL    HW238637   7.450   7.794  13.544 -0.0357 -0.4536 -0.7315
73549SOL     OW38638   0.129   7.065   3.048  0.1624  0.2176  0.4283
73549SOL    HW138639   0.068   7.008   3.094 -0.7913  0.8542 -0.0203
73549SOL    HW238640   0.210   7.014   3.043 -0.4180 -0.7620  0.7642
73550SOL     OW38641   3.703  13.875  13.609 -0.1552  0.3079  0.1852
73550SOL    HW138642   3.671  13.919  13.687 -0.4282  2.2439 -0.9454
73550SOL    HW238643   3.625  13.835  13.570 -0.0626 -0.4331  0.7377
73551SOL     OW38644   1.949  12.107   6.162  0.2615 -0.0551  0.0251
73551SOL    HW138645   1.866  12.077   6.126 -0.6746  1.6934  0.5738
73551SOL    HW238646   1.977  12.037   6.221 -0.2710 -1.1297 -0.9670
73552SOL     OW38647  13.687   4.589   2.339 -0.3118 -0.4774 -0.5236
73552SOL    HW138648  13.658   4.569   2.428 -0.8070  1.1798 -0.2828
73552SOL    HW238649  13.668   4.509   2.290 -1.1014 -1.0210  0.6001
73553SOL     OW38650  13.731   3.690   7.719 -0.3181 -0.0520 -0.5466
73553SOL    HW138651  13.743   3.782   7.744 -0.6876  0.3274 -1.7238
73553SOL    HW238652  13.640   3.684   7.690 -0.4595 -0.9270  0.0457
73554SOL     OW38653   8.022   3.446   0.198 -0.1526 -0.0827  0.2073
73554SOL    HW138654   7.985   3.456   0.110 -2.4520 -1.2541  0.9789
73554SOL    HW238655   7.997   3.526   0.244  1.8458  0.9634 -0.3813
73555SOL     OW38656   7.550  13.608  13.976  0.2279  0.4044  0.2433
73555SOL    HW138657   7.525  13.700  13.967 -2.1725 -0.0932  1.1094
73555SOL    HW238658   7.549  13.573  13.887 -0.9456  0.7390  0.1161
73556SOL     OW38659  11.331   3.634  12.658  0.3502  0.1711  0.1838
73556SOL    HW138660  11.276   3.709  12.679 -0.2257 -0.7380  2.2320
73556SOL    HW238661  11.270   3.568  12.624  0.7897  0.4478 -1.2082
73557SOL     OW38662   1.943  10.851   8.566  0.1584  0.3914  0.1189
73557SOL    HW138663   1.924  10.837   8.473 -0.9418  1.3896  0.1708
73557SOL    HW238664   2.037  10.872   8.567  0.3205 -0.2268 -0.6850
73558SOL     OW38665   5.242   1.797   0.935  0.1201 -0.1169  0.7563
73558SOL    HW138666   5.198   1.798   1.021  1.3728 -0.9934  1.4456
73558SOL    HW238667   5.177   1.760   0.876  0.8678 -4.8197  2.4141
73559SOL     OW38668   7.368   7.279   6.721 -0.5948  0.6378 -0.0777
73559SOL    HW138669   7.295   7.244   6.669 -0.7593  1.3197 -0.3129
73559SOL    HW238670   7.437   7.296   6.657 -1.1933  2.5454 -0.2742
73560SOL     OW38671   2.649  14.091  11.349  0.4075 -0.0655 -0.0585
73560SOL    HW138672   2.561  14.103  11.384 -0.0928 -0.4785 -1.1062
73560SOL    HW238673   2.707  14.095  11.425 -0.7596 -2.5450  1.0895
73561SOL     OW38674   0.548   4.873  12.098  0.5010 -0.2919  0.1638
73561SOL    HW138675   0.486   4.934  12.138 -1.5525 -2.0425 -0.1394
73561SOL    HW238676   0.603   4.928  12.041  0.8421  1.6579  2.2400
73562SOL     OW38677  10.334   7.516   9.767 -0.3045  0.0629 -0.8535
73562SOL    HW138678  10.366   7.579   9.832  1.1628 -1.4702  0.0175
73562SOL    HW238679  10.294   7.447   9.820 -0.1940 -0.6252 -1.6537
73563SOL     OW38680   4.428  11.623   1.206  0.1134 -0.2176 -0.2892
73563SOL    HW138681   4.394  11.632   1.117 -0.5320  1.5636  0.0895
73563SOL    HW238682   4.351  11.601   1.258 -0.1568  1.8441  0.2666
73564SOL     OW38683   7.119   0.003  13.534  0.1910  0.6303 -0.0978
73564SOL    HW138684   7.120   0.080  13.592 -0.3461  0.5418  0.0336
73564SOL    HW238685   7.152  -0.068  13.589  1.3550  0.8961 -0.4228
73565SOL     OW38686   0.387   7.505   0.359 -0.4230 -0.5496  0.3450
73565SOL    HW138687   0.364   7.528   0.269  1.1181  3.2954  0.7600
73565SOL    HW238688   0.482   7.495   0.358 -0.5094 -1.6652  1.3573
73566SOL     OW38689   3.895  13.183   5.055 -0.4854  0.0603 -1.0591
73566SOL    HW138690   3.876  13.162   4.963  0.4670 -1.0590 -1.0211
73566SOL    HW238691   3.875  13.103   5.103 -1.8919  0.9309 -0.1258
73567SOL     OW38692   8.466   8.585   4.986  0.1238  0.1450 -0.2817
73567SOL    HW138693   8.494   8.666   4.945 -3.1046  0.7984 -1.5147
73567SOL    HW238694   8.402   8.548   4.926 -1.0272 -1.5448  1.8165
73568SOL     OW38695   1.426   6.894   2.914  0.2347 -0.0255 -0.2296
73568SOL    HW138696   1.502   6.852   2.954  0.5617 -0.4743 -1.2902
73568SOL    HW238697   1.351   6.843   2.945  0.4769 -0.3360 -0.1532
73569SOL     OW38698   8.004   9.351   2.236 -0.0289 -0.3898 -0.2914
73569SOL    HW138699   8.086   9.396   2.258 -0.4926  0.2355  0.2181
73569SOL    HW238700   7.994   9.285   2.304 -0.3143  0.0216  0.0673
73570SOL     OW38701   2.589   4.866   9.495 -0.4014 -0.8189  0.3476
73570SOL    HW138702   2.553   4.892   9.580  2.6396 -0.2752  1.6026
73570SOL    HW238703   2.572   4.941   9.438 -0.5015 -0.2135  1.1539
73571SOL     OW38704  13.442  13.063   5.004  0.4870  0.1013 -0.0743
73571SOL    HW138705  13.499  13.121   5.054 -0.9777  1.1404  0.4387
73571SOL    HW238706  13.394  13.121   4.945 -1.0677 -0.5590  0.4984
73572SOL     OW38707   0.990  13.643  14.031  0.0675 -0.0299 -0.0652
73572SOL    HW138708   1.064  13.704  14.027  0.0850  0.0475  0.9868
73572SOL    HW238709   0.991  13.612  14.122  0.4497 -2.1114 -0.7425
73573SOL     OW38710   9.308   9.358  13.254  0.2442  0.0088  0.1693
73573SOL    HW138711   9.254   9.280  13.247 -1.6650  1.0483  2.1581
73573SOL    HW238712   9.310   9.378  13.347  0.8593  2.2189 -0.2560
73574SOL     OW38713   0.100   6.528   7.545  0.1862 -0.2816  0.6996
73574SOL    HW138714   0.065   6.606   7.587  0.7445  0.2551  0.1961
73574SOL    HW238715   0.163   6.562   7.480  0.7835 -1.1597  0.7991
73575SOL     OW38716  10.876   8.724   5.710  0.3021  0.1086  0.9482
73575SOL    HW138717  10.889   8.793   5.645 -0.4894 -0.1207  0.5332
73575SOL    HW238718  10.962   8.713   5.751  0.5980  0.8694  0.5572
73576SOL     OW38719   0.124  11.945   0.732 -0.1919 -0.5604 -0.5038
73576SOL    HW138720   0.183  11.982   0.798  0.6354  0.3632 -1.7024
73576SOL    HW238721   0.163  11.971   0.649 -0.1776 -3.2511 -1.4164
73577SOL     OW38722   0.547   9.151   2.910  0.1823  0.5511 -0.2210
73577SOL    HW138723   0.639   9.136   2.889  0.8138  2.7754  0.6446
73577SOL    HW238724   0.500   9.083   2.862  2.2101 -0.1931 -1.2783
73578SOL     OW38725   2.771   5.913  12.777  0.3278 -0.0496  0.3523
73578SOL    HW138726   2.810   5.839  12.729 -1.9954 -1.1676  0.0175
73578SOL    HW238727   2.797   5.990  12.727 -1.7785 -1.1443 -2.7345
73579SOL     OW38728   4.943   4.384  11.508  0.1432 -0.4486 -0.2994
73579SOL    HW138729   4.986   4.323  11.448  0.3959  0.4474 -1.0412
73579SOL    HW238730   4.875   4.331  11.551  0.8226 -1.4310 -0.3934
73580SOL     OW38731   3.689   1.571   8.249 -0.2355 -0.3317  0.4265
73580SOL    HW138732   3.655   1.600   8.165 -1.5033 -0.6995  0.7888
73580SOL    HW238733   3.626   1.506   8.280 -1.0357  1.3607  2.6615
73581SOL     OW38734   3.213   9.519   0.436  0.3076 -0.0681 -0.0029
73581SOL    HW138735   3.166   9.445   0.396  1.2495  0.1407 -1.5729
73581SOL    HW238736   3.190   9.594   0.382 -0.2985  0.7398  1.3293
73582SOL     OW38737   2.439   0.157   3.733  0.3265 -0.4858  0.0808
73582SOL    HW138738   2.436   0.147   3.638 -0.4701 -0.6242  0.1139
73582SOL    HW238739   2.485   0.079   3.764 -0.6335 -1.1532 -0.1043
73583SOL     OW38740   0.037  13.909   8.939  0.4834  0.0892 -0.1132
73583SOL    HW138741   0.027  13.866   8.854 -1.1186  0.2876 -0.0570
73583SOL    HW238742   0.087  13.988   8.920  1.5101 -0.6540 -0.5874
73584SOL     OW38743  12.541   5.362  11.581 -0.2226 -0.0559 -0.6135
73584SOL    HW138744  12.539   5.449  11.540 -1.5918 -0.4808 -1.4843
73584SOL    HW238745  12.590   5.376  11.663  0.3838  1.3316 -1.1803
73585SOL     OW38746  13.403   2.175  13.518 -0.0331 -0.8970  0.5210
73585SOL    HW138747  13.429   2.259  13.557  0.8953 -0.7641 -0.3516
73585SOL    HW238748  13.379   2.120  13.593  1.5312 -0.5876  1.2960
73586SOL     OW38749   2.535  13.498  11.839  0.2736 -0.1894 -0.0757
73586SOL    HW138750   2.516  13.433  11.907  1.0385  0.5204  0.8451
73586SOL    HW238751   2.630  13.510  11.843  0.0207  2.0072  0.7743
73587SOL     OW38752  10.398  13.004  14.140 -0.3847  0.2296 -0.2422
73587SOL    HW138753  10.322  12.946  14.141 -1.4387  1.4249 -2.6044
73587SOL    HW238754  10.360  13.092  14.143  1.0482  0.8484  0.7984
73588SOL     OW38755   6.075  13.345  10.312 -0.2002 -0.0128  0.6420
73588SOL    HW138756   6.088  13.410  10.243  0.6152 -0.5270  0.3002
73588SOL    HW238757   5.994  13.372  10.355 -0.5880  0.4621 -0.3498
73589SOL     OW38758   3.480   9.018   1.557 -0.7071  0.1196 -0.1677
73589SOL    HW138759   3.417   9.074   1.513 -1.3853 -0.0051  0.6326
73589SOL    HW238760   3.565   9.056   1.535 -1.1520  1.4151  0.3146
73590SOL     OW38761   4.088   9.449   0.251 -0.2206  0.4157  0.0070
73590SOL    HW138762   4.122   9.365   0.282 -0.8017  0.1586 -0.0460
73590SOL    HW238763   4.166   9.501   0.233  0.1381  0.1192  0.6746
73591SOL     OW38764  13.017   7.289  14.097  0.5190  0.2805  0.1186
73591SOL    HW138765  12.963   7.288  14.176  1.0185 -1.9359  0.4829
73591SOL    HW238766  13.104   7.314  14.129  0.7023 -0.5323  0.2578
73592SOL     OW38767  10.185   5.342   7.477  0.7592 -0.1175  0.1613
73592SOL    HW138768  10.140   5.266   7.440 -0.8488  0.6712  0.4234
73592SOL    HW238769  10.227   5.309   7.556 -1.2011 -0.4431  1.1183
73593SOL     OW38770  13.360   5.676   0.580 -0.2501  0.1347  0.0034
73593SOL    HW138771  13.359   5.757   0.632  0.4392 -1.0509  1.9658
73593SOL    HW238772  13.271   5.667   0.547 -0.1199  2.1597 -1.0979
73594SOL     OW38773  13.861   9.815  12.550  0.2536 -0.2632 -0.5005
73594SOL    HW138774  13.916   9.812  12.472  1.6972 -0.1125  0.4786
73594SOL    HW238775  13.812   9.897  12.541 -0.3889 -0.7401 -1.7211
73595SOL     OW38776   9.028   3.547   0.093  0.4153 -0.1321 -0.0200
73595SOL    HW138777   8.987   3.634   0.096 -0.4299 -0.5327  0.4568
73595SOL    HW238778   9.018   3.513   0.182 -0.7619 -1.3862 -0.6069
73596SOL     OW38779   5.564   4.398  11.089 -0.2208  0.3562  0.3590
73596SOL    HW138780   5.552   4.474  11.032 -0.9648 -1.2997 -1.8943
73596SOL    HW238781   5.475   4.363  11.101  0.3073 -1.5694 -0.8637
73597SOL     OW38782   3.896   6.809  12.989  0.4777  0.3470 -0.0847
73597SOL    HW138783   3.816   6.839  12.946  0.0414 -0.6923 -0.0369
73597SOL    HW238784   3.960   6.879  12.973 -0.5731  1.4407  0.3300
73598SOL     OW38785   8.316   9.951   2.798 -0.1901  0.0624  0.9230
73598SOL    HW138786   8.355   9.876   2.754 -0.1006  0.4225  0.3795
73598SOL    HW238787   8.387  10.016   2.803 -0.8426  0.9481 -0.5975
73599SOL     OW38788   8.389   6.795   0.214  0.4712 -0.5085 -0.2437
73599SOL    HW138789   8.318   6.773   0.273  0.2796 -0.8228 -0.5839
73599SOL    HW238790   8.361   6.877   0.172  0.3083 -0.6278 -0.3720
73600SOL     OW38791  10.921   1.390  12.713 -0.4443 -0.1284  0.0017
73600SOL    HW138792  10.997   1.360  12.763  0.7554  0.8057 -1.1761
73600SOL    HW238793  10.922   1.337  12.633 -1.1981 -0.2835  0.0846
73601SOL     OW38794   8.838   2.603  12.032 -0.8312  0.4999  0.2118
73601SOL    HW138795   8.751   2.594  11.993 -0.0922 -1.9693 -1.1164
73601SOL    HW238796   8.871   2.513  12.038  1.0144  1.2048  2.2200
73602SOL     OW38797   4.897   8.456  13.992  0.5808  1.0699 -0.5307
73602SOL    HW138798   4.879   8.433  14.084  1.2723  1.1541 -0.3701
73602SOL    HW238799   4.818   8.502  13.963  0.1100  0.5166 -0.1607
73603SOL     OW38800   4.626   3.702   2.654  0.1160 -0.3562 -0.1691
73603SOL    HW138801   4.664   3.768   2.595 -1.7157  1.2522  0.3116
73603SOL    HW238802   4.670   3.621   2.632  3.6545  1.2610  0.2454
73604SOL     OW38803  13.815   7.944  10.098  0.7857  1.0453 -0.6162
73604SOL    HW138804  13.871   8.018  10.123 -0.5746  1.9932 -0.2163
73604SOL    HW238805  13.760   7.978  10.028 -0.6118  0.7891  0.3036
73605SOL     OW38806   3.204  14.015   8.918  0.2707  0.1797 -0.1981
73605SOL    HW138807   3.249  13.933   8.939 -0.7547 -0.5844 -0.9022
73605SOL    HW238808   3.241  14.079   8.979  1.4614 -0.6793  0.0103
73606SOL     OW38809  10.683   1.820   1.118  0.1292 -0.5849 -0.3460
73606SOL    HW138810  10.676   1.750   1.053  0.6359 -1.2681  0.3073
73606SOL    HW238811  10.767   1.861   1.099 -1.3024  1.6558 -2.4296
73607SOL     OW38812  13.111   1.004  10.237  0.1874  0.1350  0.6823
73607SOL    HW138813  13.189   1.025  10.186  0.2296  1.2289  1.1475
73607SOL    HW238814  13.051   0.964  10.175 -0.5969  3.3285 -0.8406
73608SOL     OW38815   7.014   7.325   8.892 -0.1332 -0.1157  0.0817
73608SOL    HW138816   7.093   7.289   8.932  0.5189  0.5154 -0.5825
73608SOL    HW238817   6.943   7.271   8.925  0.8074 -2.1250 -0.9989
73609SOL     OW38818   5.209   5.981   3.612 -0.3570  0.4576 -0.3319
73609SOL    HW138819   5.212   5.886   3.605  2.3675  0.5583 -2.1750
73609SOL    HW238820   5.218   5.998   3.705  0.9668 -1.1256 -0.1206
73610SOL     OW38821   5.283  13.220   6.372 -0.3268 -0.0032  0.0247
73610SOL    HW138822   5.320  13.182   6.453  1.2783  1.9152  0.2654
73610SOL    HW238823   5.294  13.151   6.307 -1.4640 -1.5242  1.3533
73611SOL     OW38824   5.934   2.200   4.634 -0.3033  0.1829 -0.2259
73611SOL    HW138825   5.883   2.241   4.704  1.6957  0.1951  1.3151
73611SOL    HW238826   5.921   2.106   4.648 -0.1055  0.1902  0.0146
73612SOL     OW38827   7.484   6.172  11.962  0.0241  0.1765  0.3905
73612SOL    HW138828   7.433   6.253  11.963  0.7415  0.6281  1.0078
73612SOL    HW238829   7.573   6.199  11.981  0.8967 -0.3673 -2.5404
73613SOL     OW38830  12.419   8.730   3.344 -0.5581  0.5818 -0.2085
73613SOL    HW138831  12.486   8.759   3.406  0.8479 -1.3997 -0.6925
73613SOL    HW238832  12.448   8.762   3.259  1.2069 -2.2458 -0.8068
73614SOL     OW38833  11.610  12.238   9.708 -0.0987  0.2931 -0.5704
73614SOL    HW138834  11.518  12.254   9.685 -0.2683  0.7754  0.3824
73614SOL    HW238835  11.625  12.147   9.683  0.0140  0.9886 -3.3672
73615SOL     OW38836   9.244   8.930  11.733 -0.4653  0.0120 -0.4517
73615SOL    HW138837   9.253   8.835  11.737 -0.5676  0.0449  0.9747
73615SOL    HW238838   9.207   8.954  11.817 -0.6982  1.3007 -0.9020
73616SOL     OW38839   6.878   6.837   9.693 -0.6186 -0.0126 -0.0747
73616SOL    HW138840   6.853   6.788   9.615  0.0678 -1.3235  0.4933
73616SOL    HW238841   6.849   6.783   9.766  1.2766 -0.2241  0.5759
73617SOL     OW38842  13.506   7.451   1.923 -0.0695 -0.0232 -0.0079
73617SOL    HW138843  13.576   7.407   1.874  0.8109 -0.1753  1.3242
73617SOL    HW238844  13.513   7.543   1.897 -0.1276 -0.2218 -0.7476
73618SOL     OW38845   8.605  13.515   4.539 -0.7528 -0.2001  0.5352
73618SOL    HW138846   8.659  13.443   4.572  1.0426  0.3782 -0.9753
73618SOL    HW238847   8.607  13.580   4.609 -0.2039 -0.5391  0.8383
73619SOL     OW38848   8.380   9.799   3.163  0.3007 -0.0821  0.0857
73619SOL    HW138849   8.384   9.753   3.079 -3.6991  0.8095 -0.8098
73619SOL    HW238850   8.415   9.736   3.227  0.9543 -1.8221 -1.8765
73620SOL     OW38851   8.113   8.181   7.458  0.4171  0.6264  0.6860
73620SOL    HW138852   8.028   8.216   7.486 -0.4920  0.0632 -1.2344
73620SOL    HW238853   8.170   8.195   7.534 -1.1991  1.6302  1.7893
73621SOL     OW38854   6.684   2.623   3.497 -0.2972  0.0989  0.5627
73621SOL    HW138855   6.692   2.694   3.561 -0.6404 -1.2336  2.1800
73621SOL    HW238856   6.597   2.586   3.514 -0.3422 -0.3701 -0.6226
73622SOL     OW38857   4.701  10.902  13.759 -0.0370 -0.0175  0.0404
73622SOL    HW138858   4.656  10.916  13.842 -0.1913 -0.8363  0.0988
73622SOL    HW238859   4.739  10.987  13.738  0.1840  0.1418  1.0522
73623SOL     OW38860   8.588  11.831   7.314 -0.3911  0.3145  0.3334
73623SOL    HW138861   8.534  11.840   7.393 -0.0483  2.7283  0.3924
73623SOL    HW238862   8.538  11.876   7.246 -0.1457 -0.7187 -0.5393
73624SOL     OW38863   8.594   8.840  11.842  0.8804  0.3732  0.1290
73624SOL    HW138864   8.578   8.921  11.793  0.6848  0.7552  0.8170
73624SOL    HW238865   8.509   8.817  11.879  1.0091  0.0418  0.2226
73625SOL     OW38866   1.493  11.644  10.784  0.2963  0.1960  0.1236
73625SOL    HW138867   1.471  11.700  10.709  1.6146 -1.2941 -1.4569
73625SOL    HW238868   1.414  11.591  10.798  0.5943 -0.7401 -1.4219
73626SOL     OW38869   5.473   9.150  10.525  0.1851 -0.4327 -0.4361
73626SOL    HW138870   5.475   9.120  10.616  2.1638  0.4486 -0.1258
73626SOL    HW238871   5.559   9.190  10.511  0.4648 -1.6965 -3.0867
73627SOL     OW38872   2.086   7.134   9.204  0.1317 -0.1033 -0.3749
73627SOL    HW138873   2.119   7.221   9.182  0.1665 -0.0225 -0.0162
73627SOL    HW238874   2.092   7.130   9.299  0.4990 -0.6431 -0.4150
73628SOL     OW38875  13.680   6.943   8.074 -0.5387  0.3070  0.3285
73628SOL    HW138876  13.662   7.027   8.115 -2.3581 -0.1913  0.6314
73628SOL    HW238877  13.730   6.894   8.140 -1.3547  0.3829  1.0151
73629SOL     OW38878   6.093   9.671   4.904  0.6413 -0.5581  0.2994
73629SOL    HW138879   6.127   9.669   4.994  0.3336  1.3492  0.4979
73629SOL    HW238880   6.026   9.739   4.905 -0.1063 -1.2282 -1.1522
73630SOL     OW38881   5.983  10.233   2.802 -0.3193  0.4649  0.1551
73630SOL    HW138882   5.933  10.297   2.752 -1.2896 -0.0734  0.3897
73630SOL    HW238883   5.917  10.172   2.834  0.0890  1.2989  2.8913
73631SOL     OW38884   3.207   3.676   2.871  0.0081 -0.3382 -0.0721
73631SOL    HW138885   3.279   3.614   2.877  0.5864  0.1162 -1.7961
73631SOL    HW238886   3.209   3.723   2.954  0.0806 -2.0297  0.9266
73632SOL     OW38887   8.406  13.619   8.122  0.0131  0.1401  0.0610
73632SOL    HW138888   8.452  13.688   8.074  1.3205 -1.0905 -0.5280
73632SOL    HW238889   8.356  13.573   8.056  0.4540 -0.4927  0.1625
73633SOL     OW38890   9.865   0.002   1.006  0.0162  0.4196  0.0306
73633SOL    HW138891   9.951  -0.032   1.032  1.1708  1.7018 -1.8867
73633SOL    HW238892   9.870   0.096   1.021 -1.3901  0.4075  0.7142
73634SOL     OW38893  13.951  12.002  10.211 -0.0221 -0.4810  0.3276
73634SOL    HW138894  13.914  12.033  10.294 -1.4366  0.7741 -0.7047
73634SOL    HW238895  13.905  11.921  10.193  1.2507 -1.4849  1.3790
73635SOL     OW38896  12.241  11.789  12.518  0.2888  0.2601  0.3469
73635SOL    HW138897  12.278  11.876  12.528 -1.4121  1.4058 -2.3702
73635SOL    HW238898  12.214  11.784  12.426 -1.4927 -2.3953  0.8892
73636SOL     OW38899   0.637  10.591   6.078 -0.0243 -0.6320 -0.2177
73636SOL    HW138900   0.656  10.675   6.034 -1.5953  0.2400  0.6884
73636SOL    HW238901   0.722  10.563   6.113  0.4862  0.7314 -0.2980
73637SOL     OW38902  11.884  12.289  13.941  0.2345 -0.2003  0.0404
73637SOL    HW138903  11.875  12.320  14.031  0.9995  0.5615 -0.1322
73637SOL    HW238904  11.794  12.290  13.906  0.1088  0.9586  0.3370
73638SOL     OW38905   3.735   5.757   1.264  0.4147 -0.2815 -0.2046
73638SOL    HW138906   3.699   5.671   1.284  1.9586 -0.2864  3.3285
73638SOL    HW238907   3.777   5.746   1.179  0.2646 -2.9148 -0.0163
73639SOL     OW38908  12.098   8.612   8.849 -0.3173  0.2109  0.2416
73639SOL    HW138909  12.082   8.689   8.904  3.1612 -0.2565  2.2472
73639SOL    HW238910  12.038   8.545   8.884 -2.3044  1.4868 -0.5446
73640SOL     OW38911   2.848   5.985   2.857 -0.4678 -0.1512  0.4938
73640SOL    HW138912   2.822   5.896   2.833 -2.2615  0.1326  1.2179
73640SOL    HW238913   2.862   5.982   2.952 -2.0014  0.6287  0.7747
73641SOL     OW38914   0.029   9.096  10.068  0.7398 -0.2264 -0.3466
73641SOL    HW138915   0.039   9.033   9.997 -0.6891  0.1085 -0.8783
73641SOL    HW238916  -0.029   9.164  10.032  0.1094  0.0299  1.0853
73642SOL     OW38917   4.827   9.691  11.754  0.3079 -0.2913  0.0934
73642SOL    HW138918   4.804   9.606  11.718  3.0168 -0.8760 -0.4827
73642SOL    HW238919   4.904   9.675  11.808  1.8945  1.9719 -1.3009
73643SOL     OW38920  11.102  10.771   0.828  0.4085  0.4680  1.0048
73643SOL    HW138921  11.091  10.767   0.733 -1.5917  1.3802  1.1398
73643SOL    HW238922  11.114  10.680   0.855  0.5113  0.1468 -0.0723
73644SOL     OW38923   6.080   2.627  12.925 -0.6283  0.0364  0.2090
73644SOL    HW138924   6.080   2.540  12.965 -0.2914  1.0705  2.6747
73644SOL    HW238925   6.015   2.676  12.976 -0.1929  1.4577 -0.5499
73645SOL     OW38926   3.758   3.298  10.607 -0.2044  0.1286  0.0216
73645SOL    HW138927   3.804   3.365  10.556  1.0513 -0.5570  0.2006
73645SOL    HW238928   3.771   3.217  10.557 -1.0733 -0.1159  0.1831
73646SOL     OW38929   1.137  12.702   1.421 -0.0530  0.0471  0.1437
73646SOL    HW138930   1.116  12.625   1.367 -0.1710  0.1979 -0.0257
73646SOL    HW238931   1.177  12.764   1.361 -0.4271  0.3205  0.1751
73647SOL     OW38932   6.425  13.517   2.587  0.0592 -0.1113  0.1234
73647SOL    HW138933   6.391  13.429   2.604 -0.7948  0.1610 -0.1098
73647SOL    HW238934   6.520  13.505   2.581  0.1240 -0.7377  1.7890
73648SOL     OW38935   7.690   6.353   2.652  0.3962 -0.6580 -0.0093
73648SOL    HW138936   7.651   6.266   2.639 -1.6596  0.2786 -0.5162
73648SOL    HW238937   7.695   6.363   2.747 -3.5762  0.2995  0.2881
73649SOL     OW38938   3.758   6.907   9.910  0.4245 -0.3340  0.0098
73649SOL    HW138939   3.824   6.966   9.946 -0.7981  1.1304 -0.0267
73649SOL    HW238940   3.749   6.934   9.819 -0.2986 -0.4351  0.0472
73650SOL     OW38941   6.279  11.886  10.655  0.4444 -0.1296 -0.9258
73650SOL    HW138942   6.295  11.894  10.749  0.6123  0.5688 -1.0105
73650SOL    HW238943   6.184  11.893  10.646  0.0576 -3.2228 -0.5324
73651SOL     OW38944   8.651   5.911   9.492  0.6287 -0.0556 -0.7786
73651SOL    HW138945   8.590   5.839   9.508  0.4875  0.4074  1.0037
73651SOL    HW238946   8.598   5.977   9.448  0.3161 -0.3681 -0.8818
73652SOL     OW38947   1.051   8.086   8.533  0.0553  0.0760 -0.5730
73652SOL    HW138948   1.088   8.072   8.446  2.4188  0.1101  0.3377
73652SOL    HW238949   1.123   8.064   8.593 -1.4233  0.2683  1.3628
73653SOL     OW38950   0.470   6.231   6.122 -0.3223 -0.2252  0.3404
73653SOL    HW138951   0.450   6.324   6.117 -0.8889 -0.4109 -2.2903
73653SOL    HW238952   0.386   6.187   6.110  0.1250 -1.0781  0.2453
73654SOL     OW38953   8.294  11.703   2.272 -0.1046  0.3090 -0.0479
73654SOL    HW138954   8.361  11.637   2.256  1.0852  1.5790 -0.5404
73654SOL    HW238955   8.289  11.752   2.189  0.8433  2.3551  1.0320
73655SOL     OW38956  12.512  11.260   2.370 -0.3945 -0.6605  0.1514
73655SOL    HW138957  12.461  11.338   2.348  1.1018  0.8393  1.6899
73655SOL    HW238958  12.568  11.245   2.294 -0.9910 -0.5033 -0.3246
73656SOL     OW38959  12.191  11.314   7.263  0.8298 -0.0303  0.1293
73656SOL    HW138960  12.134  11.248   7.303 -0.0482 -0.1354 -1.2297
73656SOL    HW238961  12.261  11.263   7.223  1.3273  0.0287  0.9071
73657SOL     OW38962  11.093   4.497   7.211  0.2854  0.1379  0.6217
73657SOL    HW138963  11.109   4.437   7.139 -0.4427 -0.0604  0.6164
73657SOL    HW238964  11.126   4.452   7.289 -2.0179 -1.1462  0.9207
73658SOL     OW38965  10.225   5.444  13.360 -0.5638  0.1361  0.4403
73658SOL    HW138966  10.132   5.424  13.367 -0.3677 -0.6204  1.0725
73658SOL    HW238967  10.234   5.487  13.275 -1.2367 -1.3123 -0.4182
73659SOL     OW38968   2.401   1.597   1.054 -0.2377 -0.2115 -0.2004
73659SOL    HW138969   2.331   1.659   1.075  0.8329  1.8406 -2.1980
73659SOL    HW238970   2.366   1.545   0.982  0.4576  1.3789 -1.7778
73660SOL     OW38971  13.728   6.522   3.070 -0.2312 -0.0723 -0.1310
73660SOL    HW138972  13.684   6.475   3.141  1.3852  0.1120  1.0424
73660SOL    HW238973  13.784   6.585   3.115  1.7783 -0.7851 -1.5143
73661SOL     OW38974   2.130   5.649  10.028 -0.1065  0.0727 -0.1033
73661SOL    HW138975   2.168   5.669   9.942  1.6934  1.7380  0.9791
73661SOL    HW238976   2.159   5.560  10.047  1.8467  0.6653 -0.0984
73662SOL     OW38977   7.635  12.349   6.922  0.3858 -0.3302 -0.0473
73662SOL    HW138978   7.657  12.441   6.939  0.2140 -0.4295  0.7476
73662SOL    HW238979   7.591  12.320   7.002 -0.4905 -0.8127 -0.6971
73663SOL     OW38980  12.212   9.249   1.075 -0.5729 -0.1645 -0.5960
73663SOL    HW138981  12.305   9.250   1.099 -0.4725  1.5630 -0.8659
73663SOL    HW238982  12.167   9.213   1.151  0.2609 -0.3914 -0.2033
73664SOL     OW38983   5.007   8.255   0.343 -0.0909  0.3235 -0.4633
73664SOL    HW138984   4.987   8.181   0.401  3.3732 -1.0113 -0.7584
73664SOL    HW238985   5.017   8.330   0.402 -3.2464  0.6054 -0.1229
73665SOL     OW38986  12.149   7.409   9.772 -0.1533 -0.0327 -0.1674
73665SOL    HW138987  12.091   7.392   9.847 -0.0089 -0.6823 -0.1915
73665SOL    HW238988  12.149   7.504   9.763 -0.7748  0.0111  0.1817
73666SOL     OW38989  12.632   0.043   7.210  0.0440 -0.0862 -0.0488
73666SOL    HW138990  12.586   0.007   7.286 -1.4736 -0.4945 -1.0996
73666SOL    HW238991  12.618   0.137   7.215  0.7575 -0.0122  0.6705
73667SOL     OW38992  12.267  10.139  11.792 -0.3501 -0.7777 -0.2112
73667SOL    HW138993  12.287  10.124  11.700  0.2369 -1.4171  0.0106
73667SOL    HW238994  12.222  10.223  11.793  1.1478  0.0831 -0.9094
73668SOL     OW38995  10.537   7.806  11.373 -0.1939  0.0049 -0.0622
73668SOL    HW138996  10.614   7.784  11.425  0.1424 -2.2861 -1.4223
73668SOL    HW238997  10.528   7.901  11.383  1.6521  0.0625  1.6455
73669SOL     OW38998  12.088   4.935   8.940  0.6056 -0.1184 -0.1257
73669SOL    HW138999  12.178   4.905   8.954  0.6812 -0.1405 -0.6303
73669SOL    HW239000  12.092   5.029   8.958  1.0649  0.1571 -1.5600
73670SOL     OW39001  11.686   6.802   7.682  0.3043  0.2933  0.4382
73670SOL    HW139002  11.701   6.785   7.775 -0.8417  1.1292  0.7947
73670SOL    HW239003  11.592   6.786   7.670  0.3895  0.4864 -0.5065
73671SOL     OW39004   7.324   6.526   9.298 -0.2969 -0.0336  0.1430
73671SOL    HW139005   7.397   6.467   9.314  1.3008  1.7538 -0.1086
73671SOL    HW239006   7.315   6.576   9.379 -0.6564  0.3632 -0.1346
73672SOL     OW39007   8.578   7.590   8.747  0.2698 -0.9190  0.0513
73672SOL    HW139008   8.641   7.522   8.725  1.9391  0.0688  1.4676
73672SOL    HW239009   8.631   7.670   8.756 -1.5136  0.4599 -0.9486
73673SOL     OW39010  13.304  11.562   1.805 -0.0890 -0.6055 -0.1138
73673SOL    HW139011  13.399  11.551   1.813 -0.0186 -2.1524 -2.0909
73673SOL    HW239012  13.268  11.503   1.871  0.3319 -0.7209  0.0194
73674SOL     OW39013   4.469  12.336  13.581 -0.6064  0.0527 -0.5168
73674SOL    HW139014   4.463  12.258  13.526  0.4697  0.2308 -0.9145
73674SOL    HW239015   4.392  12.331  13.639  0.8199 -2.7856  1.3933
73675SOL     OW39016   6.923  10.006   2.534  0.3996  0.1789 -0.1043
73675SOL    HW139017   6.846   9.971   2.489  0.5364 -0.7934  0.4021
73675SOL    HW239018   6.982   9.931   2.544  0.4460  0.3926  1.5249
73676SOL     OW39019  14.104   8.099  12.921 -0.5878  0.1894 -0.0995
73676SOL    HW139020  14.038   8.082  12.854 -1.8880 -0.1292  1.2007
73676SOL    HW239021  14.170   8.151  12.877 -2.2623  1.4882 -1.1929
73677SOL     OW39022   1.078  12.444   0.803 -0.4041 -0.1144  0.0187
73677SOL    HW139023   1.097  12.360   0.762  0.9536  0.0379  0.2854
73677SOL    HW239024   1.138  12.448   0.878  0.9816  1.9221 -1.1109
73678SOL     OW39025  10.247   3.010   7.479 -0.0093  0.5147 -0.7455
73678SOL    HW139026  10.221   2.969   7.396  1.0650  0.4467 -1.0580
73678SOL    HW239027  10.313   2.950   7.515 -0.1076  0.8032 -0.0828
73679SOL     OW39028   1.876  13.124  12.492 -0.1419  0.0220  0.2486
73679SOL    HW139029   1.799  13.179  12.484  0.0293  0.3818  0.9874
73679SOL    HW239030   1.889  13.114  12.587  0.4542 -0.3951  0.1282
73680SOL     OW39031  14.032   4.417  11.825  0.3471 -0.4354 -0.1652
73680SOL    HW139032  13.993   4.452  11.744 -0.9218  0.3458  0.7491
73680SOL    HW239033  14.126   4.416  11.807  0.0621 -0.7751 -1.8388
73681SOL     OW39034   1.334  12.807  10.130  0.1125 -0.1832  0.5720
73681SOL    HW139035   1.412  12.848  10.094  0.4491 -0.1055  1.3649
73681SOL    HW239036   1.364  12.760  10.208 -0.6791  0.1728  1.1181
73682SOL     OW39037  10.468   9.853   8.531 -0.4817 -0.0830  0.2019
73682SOL    HW139038  10.503   9.781   8.583  1.4249 -0.7655 -1.8397
73682SOL    HW239039  10.545   9.904   8.506 -1.0236 -0.6904 -3.1544
73683SOL     OW39040   3.496  13.128  11.478  0.1239  0.2035 -0.3895
73683SOL    HW139041   3.574  13.073  11.477 -0.5812 -1.0163  1.9723
73683SOL    HW239042   3.524  13.209  11.521  0.1136 -0.2579  0.5113
73684SOL     OW39043   5.645   7.095   6.715 -0.5138  0.0647  0.3511
73684SOL    HW139044   5.676   7.016   6.671 -1.7301 -0.4942  0.4787
73684SOL    HW239045   5.653   7.076   6.808  0.1931  0.5150  0.3988
73685SOL     OW39046   2.642   4.529   7.755 -0.1764 -0.3260  0.6157
73685SOL    HW139047   2.576   4.463   7.736  0.6938 -0.7401 -1.1980
73685SOL    HW239048   2.604   4.582   7.825 -1.4350 -1.9381  1.2104
73686SOL     OW39049   4.828   4.628   7.646 -0.0004  0.1306  0.6477
73686SOL    HW139050   4.765   4.658   7.580  1.5205  0.8209 -0.5527
73686SOL    HW239051   4.808   4.681   7.723 -0.2473  1.0577 -0.0292
73687SOL     OW39052   1.390  12.189   0.249  0.2325 -0.4689 -0.3531
73687SOL    HW139053   1.481  12.221   0.254 -0.1298  0.4604  1.2097
73687SOL    HW239054   1.357  12.223   0.166  1.3841 -1.0376 -1.0675
73688SOL     OW39055   5.568   2.932   5.935 -0.1076  0.0160 -0.2679
73688SOL    HW139056   5.530   2.953   6.021  1.9049  0.7452  0.5046
73688SOL    HW239057   5.505   2.871   5.895 -0.8845 -0.7202  1.9154
73689SOL     OW39058   2.743   0.714   7.471  0.3056 -0.1289  0.4670
73689SOL    HW139059   2.723   0.629   7.431 -0.9313  0.8717 -1.1292
73689SOL    HW239060   2.787   0.764   7.402 -1.7375  1.5799  0.2877
73690SOL     OW39061  12.074   0.499   5.118 -0.4759  0.2366  0.3508
73690SOL    HW139062  12.150   0.507   5.176 -1.5750 -0.8180  2.0178
73690SOL    HW239063  12.045   0.409   5.128 -0.1961 -0.2923 -2.6039
73691SOL     OW39064   4.653  10.866   5.434  0.3023 -0.0832 -0.4567
73691SOL    HW139065   4.584  10.900   5.491  0.3461 -2.2388  0.9747
73691SOL    HW239066   4.613  10.864   5.347 -0.0622  2.4099 -0.4276
73692SOL     OW39067   5.450   2.084   5.642 -0.1958  0.0183  0.7846
73692SOL    HW139068   5.513   2.133   5.589 -0.6669  0.4655  0.6318
73692SOL    HW239069   5.433   2.140   5.718 -0.6757  0.0581  0.6507
73693SOL     OW39070   6.240  13.226   0.452 -0.1613  0.1453  0.4210
73693SOL    HW139071   6.217  13.277   0.530  0.6577  0.5354  0.4186
73693SOL    HW239072   6.175  13.157   0.449 -0.1592  0.0726  1.5119
73694SOL     OW39073  12.928   8.115  10.947  0.4391 -0.0954 -0.9391
73694SOL    HW139074  12.887   8.036  10.982 -2.8651  0.4966 -3.1287
73694SOL    HW239075  12.884   8.187  10.991  1.6111  0.5959 -0.8462
73695SOL     OW39076   3.741   8.260  13.480  0.1170  0.0807  0.4472
73695SOL    HW139077   3.804   8.269  13.552 -0.0691 -2.2232  0.9544
73695SOL    HW239078   3.752   8.170  13.449 -1.1440  0.4354 -1.1836
73696SOL     OW39079  12.507   3.860   8.265 -0.1894  0.5429  0.1310
73696SOL    HW139080  12.519   3.936   8.208 -0.7540  0.9799  0.5741
73696SOL    HW239081  12.587   3.856   8.318 -0.0982  0.7471  0.0071
73697SOL     OW39082   6.242   5.848  11.419 -0.6378  0.1927  0.2128
73697SOL    HW139083   6.250   5.867  11.326 -0.6292 -1.0910 -0.0647
73697SOL    HW239084   6.332   5.843  11.451 -0.6089 -0.4474  0.0474
73698SOL     OW39085   4.098   9.177   2.264 -0.3136  0.1118  0.4502
73698SOL    HW139086   4.142   9.110   2.212  1.5417  0.6902  1.1747
73698SOL    HW239087   4.081   9.135   2.348  1.3477  0.6407  1.0975
73699SOL     OW39088   8.646   3.954  12.199 -0.1614  0.3180 -0.2201
73699SOL    HW139089   8.627   4.024  12.262 -1.9673  0.7694 -1.1896
73699SOL    HW239090   8.736   3.971  12.171  0.0207  1.2204  0.8430
73700SOL     OW39091  12.445   4.672   8.753 -0.4552 -0.2756 -0.5606
73700SOL    HW139092  12.529   4.683   8.708 -1.0325  0.8475 -1.4056
73700SOL    HW239093  12.435   4.577   8.762  1.6237 -0.4208  1.0021
73701SOL     OW39094   6.140   3.019   9.817 -0.2875  0.0553  1.3149
73701SOL    HW139095   6.140   2.961   9.741  0.0542  0.8875  0.6589
73701SOL    HW239096   6.117   2.963   9.891 -1.4597 -0.5989  0.4794
73702SOL     OW39097   1.290   7.694   8.007  0.0454  0.1694 -0.7349
73702SOL    HW139098   1.368   7.670   7.958  0.8941 -0.0815  0.6705
73702SOL    HW239099   1.322   7.758   8.072 -0.8498 -0.1489  0.0409
73703SOL     OW39100   6.138   5.370  12.324  0.0096 -0.1780 -0.4625
73703SOL    HW139101   6.231   5.372  12.300  0.3541  1.5402  0.8298
73703SOL    HW239102   6.132   5.297  12.387  0.4037 -0.5348 -0.8309
73704SOL     OW39103   0.472   9.959  12.157 -0.2812  0.1511  0.2599
73704SOL    HW139104   0.547   9.985  12.104 -1.5476 -0.6850 -2.1416
73704SOL    HW239105   0.401  10.017  12.128 -1.4604 -1.5098 -0.3693
73705SOL     OW39106   3.199  11.627   3.848  0.1501  1.1471 -0.0132
73705SOL    HW139107   3.289  11.649   3.824  0.3351 -1.1137 -1.7147
73705SOL    HW239108   3.146  11.659   3.775 -0.2507  1.1525  0.2782
73706SOL     OW39109   4.838   8.842   2.497 -0.1534 -0.0550 -0.2993
73706SOL    HW139110   4.799   8.776   2.554  1.6155 -3.3065 -2.5500
73706SOL    HW239111   4.868   8.911   2.557 -0.9808 -1.8513  2.3467
73707SOL     OW39112   0.076  11.957   7.922  0.1198  0.2363 -0.5267
73707SOL    HW139113   0.099  12.034   7.870  1.6678  0.3900  0.3220
73707SOL    HW239114   0.125  11.967   8.004  0.3487 -1.6300 -0.3806
73708SOL     OW39115   2.719   9.259   1.099 -0.1086  0.2386 -0.5633
73708SOL    HW139116   2.698   9.166   1.099 -2.1274  0.6569 -0.9859
73708SOL    HW239117   2.708   9.286   1.008 -1.2163  1.2193 -0.1570
73709SOL     OW39118   4.165   5.762  13.013  0.2585 -0.0134 -0.7228
73709SOL    HW139119   4.189   5.669  13.008  0.4491  0.0511 -1.0580
73709SOL    HW239120   4.071   5.762  13.026  0.2794 -0.2564 -0.5598
73710SOL     OW39121   3.589   4.303   6.410 -0.3695 -0.5945  0.2632
73710SOL    HW139122   3.554   4.324   6.323 -2.2943 -0.9835  0.9071
73710SOL    HW239123   3.583   4.385   6.459 -2.5677 -1.1751  1.0528
73711SOL     OW39124   1.006   9.728   9.256 -0.0438 -0.0442 -0.2517
73711SOL    HW139125   0.996   9.746   9.350  2.3209  0.5238 -0.0557
73711SOL    HW239126   0.962   9.802   9.213  2.6621  2.2056  0.5180
73712SOL     OW39127   7.417  10.193   4.534  0.1540  1.0983 -0.1237
73712SOL    HW139128   7.334  10.149   4.517  0.6749 -0.1938  0.5337
73712SOL    HW239129   7.453  10.211   4.447 -1.6058  3.3489 -0.4712
73713SOL     OW39130   3.352   9.558   1.741 -0.1341 -0.1795  0.0040
73713SOL    HW139131   3.321   9.538   1.653  1.3628  0.1119 -0.6149
73713SOL    HW239132   3.347   9.654   1.747 -2.0583 -0.2866  0.9711
73714SOL     OW39133   2.933  13.698   4.080 -0.0070  0.4146  0.2268
73714SOL    HW139134   2.912  13.608   4.105 -1.3185  1.0398  1.4543
73714SOL    HW239135   2.961  13.740   4.161  0.8822  1.0489 -0.3924
73715SOL     OW39136  13.221   1.819   7.286  0.1633 -0.3200  0.4644
73715SOL    HW139137  13.133   1.805   7.250  0.1888  0.2928  0.1492
73715SOL    HW239138  13.208   1.816   7.381 -0.1403 -0.5492  0.4182
73716SOL     OW39139  11.790   2.439   3.817  0.4259  0.2780  0.0478
73716SOL    HW139140  11.878   2.459   3.849 -0.2168  0.8650  1.5365
73716SOL    HW239141  11.738   2.517   3.837 -0.3786  0.0687 -1.0975
73717SOL     OW39142   9.319   4.647  14.135 -0.5890 -0.0891  0.2817
73717SOL    HW139143   9.367   4.691  14.206  3.3189  0.3730 -2.3110
73717SOL    HW239144   9.334   4.553  14.151 -1.1347 -0.0871  0.8782
73718SOL     OW39145  11.508   7.440  10.924 -0.1718 -0.0376  0.6657
73718SOL    HW139146  11.419   7.475  10.926 -0.1399  0.3809 -1.7069
73718SOL    HW239147  11.504   7.367  10.863  1.4282  1.2159 -1.1050
73719SOL     OW39148   9.182  13.238  11.163  0.8824  0.4466 -0.4984
73719SOL    HW139149   9.114  13.294  11.200  2.3967  0.5407  2.4497
73719SOL    HW239150   9.251  13.298  11.135  1.3491  0.1954  0.0915
73720SOL     OW39151   1.072  14.132   5.911  0.0949  0.2550 -0.2247
73720SOL    HW139152   1.136  14.168   5.849 -0.4699 -3.1929 -3.1125
73720SOL    HW239153   0.994  14.185   5.898  0.7606  1.1849 -0.5604
73721SOL     OW39154  10.081   7.854   3.338 -0.4656 -0.2734 -0.0255
73721SOL    HW139155  10.115   7.913   3.406  0.0691 -0.7476  0.1315
73721SOL    HW239156  10.151   7.850   3.272  0.2182 -1.9497  0.7188
73722SOL     OW39157  12.309  13.601   2.119 -0.1716  0.0216 -0.3298
73722SOL    HW139158  12.357  13.629   2.196 -1.1211  0.0341  0.2701
73722SOL    HW239159  12.350  13.649   2.046  1.2293 -0.5725  0.0342
73723SOL     OW39160   5.081   7.250  11.333 -0.1023 -0.0764  1.0775
73723SOL    HW139161   5.071   7.294  11.248 -0.5642  0.4417  1.3988
73723SOL    HW239162   5.092   7.321  11.396 -1.0561 -0.4149  1.6335
73724SOL     OW39163   9.990   0.804   3.680  0.1442  0.3383 -0.4296
73724SOL    HW139164   9.999   0.791   3.775  0.7577  1.5548 -0.3057
73724SOL    HW239165  10.071   0.846   3.653 -1.9701  4.9329 -0.5296
73725SOL     OW39166  12.830   3.722  12.340 -0.5313 -0.3655 -0.2482
73725SOL    HW139167  12.781   3.695  12.263 -1.3613 -2.7619  1.0176
73725SOL    HW239168  12.817   3.651  12.403  1.3142  0.8028  1.5817
73726SOL     OW39169   1.963   8.811   5.696  0.5636 -0.2770 -0.3687
73726SOL    HW139170   1.933   8.899   5.673  0.2219 -0.1949  0.3678
73726SOL    HW239171   2.057   8.821   5.715  0.4336  0.0118  0.1285
73727SOL     OW39172   8.521   3.758  13.916 -0.3133 -0.2306 -0.4011
73727SOL    HW139173   8.473   3.689  13.962  1.4025 -1.3428 -0.1490
73727SOL    HW239174   8.579   3.710  13.856 -0.3170  1.0863 -1.4848
73728SOL     OW39175   6.260   9.130  10.562 -0.1457  0.1390  0.4779
73728SOL    HW139176   6.257   9.037  10.539  0.6468  0.4599 -1.0892
73728SOL    HW239177   6.170   9.160  10.553 -0.1670 -0.1727 -0.4622
73729SOL     OW39178   0.084   1.889   5.441 -0.4794  0.0335 -0.6235
73729SOL    HW139179   0.046   1.884   5.529 -2.7822  0.9051 -1.5109
73729SOL    HW239180   0.139   1.811   5.435  0.5293  0.4186  1.8921
73730SOL     OW39181   1.498  12.246  12.215  0.2254  0.1954  0.0739
73730SOL    HW139182   1.442  12.222  12.142  0.3619 -0.5537  0.2162
73730SOL    HW239183   1.495  12.171  12.274 -0.6006  1.1155  1.2743
73731SOL     OW39184  11.436   3.832   1.551  0.2288  0.4190 -0.1306
73731SOL    HW139185  11.448   3.927   1.556 -1.0519  0.6134 -0.4444
73731SOL    HW239186  11.384   3.810   1.628 -0.7301  0.2047 -0.8158
73732SOL     OW39187   4.259   4.824   8.404  0.1370 -0.2056  0.8419
73732SOL    HW139188   4.204   4.861   8.334  0.4765 -2.1371 -0.5640
73732SOL    HW239189   4.346   4.818   8.365 -0.2617 -4.2643  0.0463
73733SOL     OW39190   3.849   7.118   0.088  0.0169  0.2516 -0.3598
73733SOL    HW139191   3.907   7.059   0.137 -0.2141  0.2870 -0.0359
73733SOL    HW239192   3.786   7.148   0.154  0.4968  1.3464 -0.3833
73734SOL     OW39193  10.090   3.159  13.462 -0.3024 -0.1038  0.5861
73734SOL    HW139194  10.048   3.109  13.392  0.4339 -1.8483  1.3510
73734SOL    HW239195  10.172   3.190  13.424 -1.9671  3.0979 -0.8295
73735SOL     OW39196  13.945   4.164   4.568  0.1078 -0.5545  0.4033
73735SOL    HW139197  14.003   4.119   4.630 -0.9706 -0.5104  1.4847
73735SOL    HW239198  13.925   4.097   4.502  2.6093 -0.1305 -0.9375
73736SOL     OW39199   3.176   3.601  10.735  0.4900  0.2685 -0.1578
73736SOL    HW139200   3.149   3.517  10.772  0.1166  0.1362 -0.7280
73736SOL    HW239201   3.124   3.666  10.784  2.7714  0.4436  2.2821
73737SOL     OW39202  13.156   4.810   8.721  0.2051  0.0737 -0.6716
73737SOL    HW139203  13.251   4.794   8.726  0.3517  1.2316  0.8532
73737SOL    HW239204  13.145   4.898   8.756 -1.6418 -0.7446  0.9365
73738SOL     OW39205   2.469  12.144   6.152  0.4679 -0.0567  0.2992
73738SOL    HW139206   2.379  12.175   6.143 -0.0833 -1.7820 -0.5701
73738SOL    HW239207   2.511  12.208   6.210 -1.4869  0.4436  1.2351
73739SOL     OW39208   0.649   0.402   1.784 -0.0582  0.1794 -0.0630
73739SOL    HW139209   0.732   0.354   1.791 -0.3544 -0.6773 -1.9066
73739SOL    HW239210   0.654   0.446   1.699 -1.1928  0.7070  0.1308
73740SOL     OW39211   2.292   7.878  12.209 -0.3368 -0.2920  0.4912
73740SOL    HW139212   2.334   7.908  12.128  0.6326 -0.0220  1.0757
73740SOL    HW239213   2.314   7.785  12.214 -1.0069 -0.4795  0.0889
73741SOL     OW39214   6.024   8.199   6.857  0.2795 -0.0170  0.0733
73741SOL    HW139215   6.015   8.161   6.945 -1.3050  1.0351  0.4096
73741SOL    HW239216   6.000   8.291   6.868  0.2382  0.1773 -1.4304
73742SOL     OW39217  11.449   5.087   5.403 -0.3341 -0.1314  0.0639
73742SOL    HW139218  11.383   5.138   5.356 -0.3949  2.5167  2.7214
73742SOL    HW239219  11.500   5.044   5.334 -1.6252  1.8693 -2.3099
73743SOL     OW39220   5.219  11.604   0.963  0.2775 -0.2505  0.0040
73743SOL    HW139221   5.295  11.620   1.018  1.6453 -1.0048 -1.5735
73743SOL    HW239222   5.236  11.654   0.883 -1.5861  0.7157  0.1548
73744SOL     OW39223   4.837   6.691   1.113  0.3626 -0.5395  0.0398
73744SOL    HW139224   4.850   6.784   1.131 -2.4388  0.1462 -0.8940
73744SOL    HW239225   4.923   6.652   1.125  1.8128  2.2826 -0.2703
73745SOL     OW39226   3.694   8.652   7.456  0.0411 -0.8315  0.1031
73745SOL    HW139227   3.678   8.669   7.549  1.2229  0.1685  0.1618
73745SOL    HW239228   3.768   8.709   7.434 -2.0256  1.1828 -2.1733
73746SOL     OW39229   6.041   9.280   6.367 -0.8617  0.0390  0.0910
73746SOL    HW139230   5.992   9.231   6.434 -1.7385 -0.2508 -0.7413
73746SOL    HW239231   6.070   9.359   6.412 -2.2683  0.3131  0.5712
73747SOL     OW39232  13.407   4.631  11.997  0.8279  0.4091  0.0177
73747SOL    HW139233  13.437   4.665  12.081  0.0144 -0.4513  0.6851
73747SOL    HW239234  13.442   4.691  11.932  2.0331  0.7126  0.9268
73748SOL     OW39235  11.466   2.671   5.818  0.8263 -0.0914 -0.1554
73748SOL    HW139236  11.555   2.678   5.851  1.2440 -0.8629 -1.0583
73748SOL    HW239237  11.457   2.579   5.793 -0.4533 -0.1789  0.5455
73749SOL     OW39238   9.078  13.692   7.080 -0.1515 -0.1479 -0.1683
73749SOL    HW139239   8.988  13.698   7.049 -0.4412  0.4109  0.7339
73749SOL    HW239240   9.116  13.778   7.061 -0.8656  0.8603  2.5231
73750SOL     OW39241   5.775   3.022   4.409 -0.4352  0.0730 -0.1056
73750SOL    HW139242   5.763   2.932   4.379 -0.1594  0.0367 -0.1157
73750SOL    HW239243   5.849   3.017   4.470 -2.3820 -0.2385  2.3965
73751SOL     OW39244   5.680   8.351   2.813 -0.5873  0.0612  0.3336
73751SOL    HW139245   5.734   8.337   2.891 -0.3431 -0.8726  0.0105
73751SOL    HW239246   5.590   8.343   2.845 -0.4828 -0.6479  0.4708
73752SOL     OW39247   7.341  13.356  12.641 -0.5927 -0.3214  0.1451
73752SOL    HW139248   7.422  13.308  12.660  0.1168  1.1603  1.0764
73752SOL    HW239249   7.368  13.447  12.636 -2.0706  0.1050 -0.5194
73753SOL     OW39250   8.808   2.423   9.646  0.0396  0.4026 -0.7153
73753SOL    HW139251   8.820   2.362   9.719 -0.7669  1.1603  0.0840
73753SOL    HW239252   8.720   2.403   9.613 -1.3137  2.7104  1.1652
73754SOL     OW39253   0.368   4.211   1.086  0.4599 -0.7832  0.0993
73754SOL    HW139254   0.460   4.207   1.112  0.4084  0.1117  0.4564
73754SOL    HW239255   0.348   4.304   1.084 -0.3872 -0.9653 -0.1766
73755SOL     OW39256  10.885  11.411   3.439 -0.2708 -0.1771 -0.6319
73755SOL    HW139257  10.915  11.413   3.530 -0.4165  0.8119 -0.5863
73755SOL    HW239258  10.905  11.323   3.408  0.2197 -0.3698  0.2142
73756SOL     OW39259  11.522   0.136   6.770  0.3360 -0.3889  0.1257
73756SOL    HW139260  11.434   0.170   6.755 -0.1241 -0.9017  1.5224
73756SOL    HW239261  11.574   0.213   6.794  0.2967 -0.0732 -0.7851
73757SOL     OW39262  12.444  13.238   4.458  0.3718  0.1979  0.4932
73757SOL    HW139263  12.485  13.320   4.486 -0.0721  0.8365 -0.6596
73757SOL    HW239264  12.364  13.265   4.414 -0.6039 -0.9519  1.4806
73758SOL     OW39265  13.954   2.942   4.852  0.6499  0.2527  0.1146
73758SOL    HW139266  13.971   2.999   4.926 -0.2230  0.4674  0.1597
73758SOL    HW239267  13.970   2.996   4.775 -0.9308  0.8264  0.1526
73759SOL     OW39268   5.270   6.309  12.670 -0.1534 -0.0370  0.3018
73759SOL    HW139269   5.233   6.394  12.646 -1.2398 -0.4913  0.3317
73759SOL    HW239270   5.216   6.245  12.624  0.1926 -0.7478  0.8573
73760SOL     OW39271   3.756   0.195   0.295  0.0320 -0.1750 -0.1054
73760SOL    HW139272   3.742   0.289   0.304 -0.4067 -0.0625 -1.6459
73760SOL    HW239273   3.782   0.166   0.382  0.6170  1.4410  0.2860
73761SOL     OW39274   9.001  11.211  12.365  0.1231  0.6137  0.3425
73761SOL    HW139275   8.960  11.276  12.422  0.5325  0.3210  0.9813
73761SOL    HW239276   9.092  11.207  12.394  0.5280  0.9849 -0.8170
73762SOL     OW39277   2.202   8.765   9.090  0.6035 -0.2489 -0.0553
73762SOL    HW139278   2.163   8.774   9.177 -1.3908  1.6780 -1.0369
73762SOL    HW239279   2.155   8.692   9.050 -0.9348  0.9811 -0.6215
73763SOL     OW39280   9.909  13.007  10.988  0.2184  0.5671  0.2743
73763SOL    HW139281   9.821  12.980  11.014 -0.1062  0.3489 -0.9861
73763SOL    HW239282   9.923  12.966  10.903  1.6395  0.4144  0.5507
73764SOL     OW39283   0.372   9.521   0.574 -0.5945  0.0524  0.1054
73764SOL    HW139284   0.383   9.529   0.480 -1.2402 -0.1011  0.0160
73764SOL    HW239285   0.367   9.427   0.590  0.7542  0.0116  0.4450
73765SOL     OW39286  11.614   4.494   4.746  0.5630 -0.1359 -0.3594
73765SOL    HW139287  11.596   4.580   4.784 -0.7200 -0.8743  0.7810
73765SOL    HW239288  11.710   4.488   4.746  0.6364  0.4383  1.5582
73766SOL     OW39289   4.060   5.368  12.112  0.2847  0.4078  0.2471
73766SOL    HW139290   3.989   5.312  12.144  1.0444 -0.0423  1.2103
73766SOL    HW239291   4.084   5.422  12.187  0.2995  1.2527 -0.3608
73767SOL     OW39292   7.127  10.289   5.114  0.0840  0.3336 -0.5601
73767SOL    HW139293   7.048  10.330   5.078 -0.7207 -0.6661 -0.0201
73767SOL    HW239294   7.180  10.362   5.147 -0.8572  0.9973 -0.4715
73768SOL     OW39295   9.008   1.337  13.744  0.3611 -0.5829 -0.2126
73768SOL    HW139296   9.075   1.304  13.683  2.2863  1.4349  0.6628
73768SOL    HW239297   8.969   1.258  13.781  1.4870 -1.8497 -1.5612
73769SOL     OW39298   7.401   6.635   1.039 -0.5766 -0.2869  0.4085
73769SOL    HW139299   7.382   6.669   0.951 -2.8984 -2.1324  0.0994
73769SOL    HW239300   7.400   6.540   1.029  0.9872 -0.5486  2.1323
73770SOL     OW39301   0.862   0.353   7.857  0.1038  0.0864  0.2504
73770SOL    HW139302   0.908   0.423   7.811  0.8313  0.3145  1.2899
73770SOL    HW239303   0.813   0.398   7.926  0.8886 -0.4399  1.1786
73771SOL     OW39304  13.443   1.126   2.071 -0.5240  0.0825 -0.3108
73771SOL    HW139305  13.362   1.100   2.114 -0.0709 -2.1066 -0.6357
73771SOL    HW239306  13.479   1.044   2.037  1.7451  0.9954 -0.2976
73772SOL     OW39307   2.862   0.140   2.377  0.3972 -0.1473 -0.4206
73772SOL    HW139308   2.808   0.160   2.301 -0.0799  2.0962  0.4255
73772SOL    HW239309   2.937   0.199   2.370 -0.5623  1.4472  1.7242
73773SOL     OW39310   2.638  12.694  11.243  0.1202  0.0458  0.3059
73773SOL    HW139311   2.727  12.689  11.277  0.6521  0.7808 -0.9067
73773SOL    HW239312   2.631  12.621  11.183  0.4131  0.8169 -0.6911
73774SOL     OW39313  12.711   5.264   2.538 -0.5876 -0.5230  0.3318
73774SOL    HW139314  12.651   5.330   2.501  1.1559  0.5824 -0.6640
73774SOL    HW239315  12.758   5.311   2.606 -1.7867 -1.7832  2.1047
73775SOL     OW39316   2.665   2.078   4.331  0.6294 -0.0121  0.0858
73775SOL    HW139317   2.741   2.086   4.273  0.1023  0.2303 -0.5922
73775SOL    HW239318   2.611   2.153   4.310 -0.9080 -1.3816 -1.1260
73776SOL     OW39319  14.096   1.997  10.920 -0.2508 -0.2174  0.1266
73776SOL    HW139320  14.037   1.926  10.944 -1.3548  0.8161  0.5332
73776SOL    HW239321  14.122   1.977  10.829  1.1532 -2.2425  0.8895
73777SOL     OW39322  13.753  14.073  13.028 -0.1219 -0.2340  0.0915
73777SOL    HW139323  13.685  14.027  13.076 -0.0910 -0.0985  0.2667
73777SOL    HW239324  13.834  14.029  13.052 -0.2510 -1.0498 -0.8975
73778SOL     OW39325   7.223  11.688   2.114 -0.3879  0.6706  0.2531
73778SOL    HW139326   7.245  11.636   2.037 -1.8035  0.4962 -0.0604
73778SOL    HW239327   7.253  11.636   2.188  0.5625  0.6263 -0.1536
73779SOL     OW39328   8.901   4.319  11.026  0.4414 -0.1029 -0.0166
73779SOL    HW139329   8.852   4.368  10.960 -1.2863 -2.2566 -0.4429
73779SOL    HW239330   8.971   4.276  10.977 -1.2935 -2.3234 -0.7388
73780SOL     OW39331  13.463  10.636  12.211 -0.4092 -0.3555 -0.0958
73780SOL    HW139332  13.488  10.672  12.126  1.5058  2.4578  1.5069
73780SOL    HW239333  13.529  10.569  12.229 -2.1426 -2.6463 -1.6967
73781SOL     OW39334  12.024   5.683   0.965 -0.1305 -0.7426  0.2624
73781SOL    HW139335  11.950   5.635   0.928 -0.6196  0.9454 -1.1537
73781SOL    HW239336  12.064   5.727   0.889 -0.1548  1.5846  1.4896
73782SOL     OW39337  12.052   4.892   3.328  0.1837  0.3695 -0.5986
73782SOL    HW139338  11.998   4.937   3.263  1.7905  0.2991 -2.0748
73782SOL    HW239339  12.077   4.960   3.390  0.2394  0.8981 -1.1886
73783SOL     OW39340   1.378   5.061   1.037  0.8560  0.2541 -0.6625
73783SOL    HW139341   1.389   5.155   1.030 -1.0029  0.4437 -1.6619
73783SOL    HW239342   1.326   5.049   1.117  1.2249  0.0535 -0.4493
73784SOL     OW39343  13.886   2.252   7.959 -0.1306 -0.6092  0.0150
73784SOL    HW139344  13.793   2.231   7.968 -0.7279  0.6092 -2.5059
73784SOL    HW239345  13.931   2.184   8.009 -2.3603 -0.9091  1.7739
73785SOL     OW39346  11.270   4.848   6.911  0.0160  0.7652  0.0676
73785SOL    HW139347  11.277   4.943   6.902 -0.9228  0.8700  0.2581
73785SOL    HW239348  11.354   4.820   6.945  0.4190  1.4885 -0.3092
73786SOL     OW39349   5.454   7.185  11.946 -0.4233  0.1116 -0.5893
73786SOL    HW139350   5.457   7.259  11.886  1.3023  1.1793  0.7120
73786SOL    HW239351   5.525   7.201  12.007 -0.4399 -2.2928  0.1657
73787SOL     OW39352   6.469   0.472   2.592  0.1269  0.1771 -0.6442
73787SOL    HW139353   6.510   0.456   2.507  0.7210 -1.3912 -0.0987
73787SOL    HW239354   6.482   0.565   2.608  3.1228 -0.1302 -0.7176
73788SOL     OW39355   1.114   8.534   9.918 -0.7661 -0.5471  0.1674
73788SOL    HW139356   1.039   8.531   9.978 -0.1623 -2.1457  0.8877
73788SOL    HW239357   1.168   8.605   9.951  0.0281 -1.9912  2.1596
73789SOL     OW39358   5.806  12.591   8.459  0.0177  0.9528  0.7544
73789SOL    HW139359   5.837  12.670   8.414  0.5460  1.3802  1.8230
73789SOL    HW239360   5.727  12.619   8.506 -1.0970  0.2686 -0.6433
73790SOL     OW39361   7.977   2.024   7.223 -0.3603 -0.1781 -0.0771
73790SOL    HW139362   7.995   2.110   7.261 -1.8088  0.5280 -0.8709
73790SOL    HW239363   8.010   1.961   7.288  0.6017  0.9648  0.5795
73791SOL     OW39364   9.437   2.640  12.883 -0.4911 -0.1740  0.0838
73791SOL    HW139365   9.414   2.612  12.795 -0.6482  0.2636 -0.0193
73791SOL    HW239366   9.353   2.642  12.930 -0.4103 -0.3880  0.2341
73792SOL     OW39367   7.008   1.838   3.737  0.1073  0.1398 -0.5572
73792SOL    HW139368   7.082   1.778   3.748  0.8004  1.2468  1.5987
73792SOL    HW239369   6.935   1.795   3.779 -0.5033 -0.8924 -2.5635
73793SOL     OW39370  13.340  13.531   6.061 -0.1943  0.4281  0.1361
73793SOL    HW139371  13.370  13.570   6.143  1.8939 -2.3942  0.8856
73793SOL    HW239372  13.416  13.539   6.002 -0.6034 -0.2536 -0.4999
73794SOL     OW39373   5.101   4.685   2.831  0.1172  0.0450 -0.3832
73794SOL    HW139374   5.192   4.698   2.857  0.9078 -0.9458 -2.4801
73794SOL    HW239375   5.068   4.618   2.892  1.2970 -0.7972 -0.6386
73795SOL     OW39376   6.526   9.995   4.315  0.1798 -0.1547 -0.2075
73795SOL    HW139377   6.494  10.042   4.392  1.7712  0.9310 -0.1673
73795SOL    HW239378   6.479   9.912   4.317 -1.4205  0.7183  0.7005
73796SOL     OW39379   5.403   8.504   6.570  0.1220  0.1547  0.2605
73796SOL    HW139380   5.432   8.549   6.649 -1.7973 -1.0889  1.7442
73796SOL    HW239381   5.342   8.437   6.601  2.2608 -3.0650 -1.8443
73797SOL     OW39382  11.885  11.032   8.965 -0.1107  0.1510  0.0669
73797SOL    HW139383  11.848  11.032   8.877 -2.3032 -0.5599  0.9291
73797SOL    HW239384  11.970  10.989   8.955 -0.6638 -0.6511 -1.5696
73798SOL     OW39385   6.456   7.843   9.523 -0.3743 -0.1888 -0.8872
73798SOL    HW139386   6.380   7.877   9.476  1.4454  0.7734 -3.3927
73798SOL    HW239387   6.531   7.884   9.480  1.6669 -2.4791  0.2311
73799SOL     OW39388   7.114  10.380   2.267 -0.6015  0.1486  0.4007
73799SOL    HW139389   7.061  10.307   2.237  0.7488 -0.0776 -1.6261
73799SOL    HW239390   7.121  10.438   2.191  2.1245  0.0762  0.4709
73800SOL     OW39391   9.794  12.581   4.483  0.0232  0.5314 -0.2346
73800SOL    HW139392   9.872  12.547   4.440 -0.2980  1.2342 -1.4077
73800SOL    HW239393   9.820  12.669   4.513 -0.3216  0.7755 -0.6463
73801SOL     OW39394   1.086  14.145   7.409  0.0816  0.2308  0.0348
73801SOL    HW139395   1.104  14.075   7.346 -0.5060  1.2911 -1.3843
73801SOL    HW239396   1.011  14.113   7.460  0.2479 -0.4427 -0.1303
73802SOL     OW39397   3.405   0.040   7.175  0.0694  0.2873  0.3744
73802SOL    HW139398   3.433   0.112   7.232  1.7670  1.1911 -1.4838
73802SOL    HW239399   3.356   0.083   7.105 -2.0897 -0.8188  1.1010
73803SOL     OW39400   9.358   6.140  11.139  0.1706 -0.0986  0.1730
73803SOL    HW139401   9.350   6.066  11.200  0.7763 -0.4635 -0.1775
73803SOL    HW239402   9.355   6.100  11.052 -0.1035  0.3600 -0.0314
73804SOL     OW39403   8.158   7.026   0.568 -0.0291 -0.4769  0.9622
73804SOL    HW139404   8.214   6.992   0.638  0.8778 -0.2816  0.3608
73804SOL    HW239405   8.083   6.967   0.565  0.5594 -1.2453  1.2446
73805SOL     OW39406  13.848   4.989   5.269 -0.0579 -0.3995  0.1139
73805SOL    HW139407  13.862   4.966   5.361 -1.1988 -0.7931  0.2075
73805SOL    HW239408  13.804   5.074   5.272 -1.3743 -1.0484  0.0108
73806SOL     OW39409   8.873   1.446   9.670  0.0038 -0.2093 -0.1578
73806SOL    HW139410   8.905   1.494   9.746  1.8977  0.7550 -1.4971
73806SOL    HW239411   8.880   1.354   9.694  1.3694  0.0643  0.5546
73807SOL     OW39412  13.401  13.213   7.328  0.3131 -0.3159 -0.1574
73807SOL    HW139413  13.360  13.172   7.253 -0.1242 -1.5552  0.7280
73807SOL    HW239414  13.342  13.284   7.352  0.7271  0.4401 -1.2830
73808SOL     OW39415   5.698   0.073  10.162 -0.5219 -0.2426 -0.4503
73808SOL    HW139416   5.683   0.054  10.069  1.6060  1.1125 -1.1253
73808SOL    HW239417   5.761   0.006  10.190 -2.3977 -1.6993  0.5423
73809SOL     OW39418   8.045   5.750   7.949  0.2218  0.7021  0.2006
73809SOL    HW139419   8.074   5.676   8.003 -0.1685  0.1091 -0.3908
73809SOL    HW239420   7.950   5.751   7.960  0.3307  1.9173  1.2129
73810SOL     OW39421   3.359   0.213  10.763  0.2537 -0.1756  0.1183
73810SOL    HW139422   3.283   0.265  10.737  0.7012  0.6093  0.3680
73810SOL    HW239423   3.390   0.174  10.681  1.2725  1.7721 -0.4924
73811SOL     OW39424   8.280   3.787   5.609 -0.4752  0.1257 -0.6392
73811SOL    HW139425   8.265   3.878   5.582 -1.6408 -0.3455 -1.6717
73811SOL    HW239426   8.225   3.735   5.550  0.0150 -1.2424  0.0683
73812SOL     OW39427   3.019   5.739  13.721 -0.1413 -0.1994 -0.2401
73812SOL    HW139428   3.068   5.682  13.662  0.4642 -0.1834  0.2384
73812SOL    HW239429   2.985   5.808  13.664  0.8285  0.0741 -0.5128
73813SOL     OW39430   2.754   2.365  12.270  0.3785 -0.1757 -0.1374
73813SOL    HW139431   2.767   2.272  12.286  0.6727 -0.2360 -0.7223
73813SOL    HW239432   2.811   2.408  12.334  2.1163 -0.4223 -1.4510
73814SOL     OW39433  13.036  14.034   2.703 -0.0922 -0.0211 -0.3235
73814SOL    HW139434  13.081  14.095   2.761 -2.1383  1.5298 -0.2455
73814SOL    HW239435  13.054  14.066   2.615  0.6651 -0.6633 -0.4081
73815SOL     OW39436   1.093   2.963   0.143  0.2287  0.2015 -0.3467
73815SOL    HW139437   1.125   3.035   0.196  0.7486 -0.7153  0.6324
73815SOL    HW239438   1.155   2.956   0.070 -0.2293  1.1731 -0.8473
73816SOL     OW39439   3.003   6.721   9.784  0.6441  0.2334 -0.4316
73816SOL    HW139440   3.012   6.803   9.833  2.2757  0.7937 -1.6058
73816SOL    HW239441   2.940   6.741   9.715  1.3306  0.6171 -0.9490
73817SOL     OW39442   1.146  13.290  10.306  0.3949  0.0156  0.1694
73817SOL    HW139443   1.215  13.225  10.316  1.5107  0.5983 -2.6528
73817SOL    HW239444   1.086  13.253  10.242  0.0665  0.9982 -0.1179
73818SOL     OW39445  10.790   9.966  11.935 -0.3172  0.2607  0.3165
73818SOL    HW139446  10.834  10.037  11.982 -0.6527  0.1471  0.8046
73818SOL    HW239447  10.699   9.994  11.928 -0.4032 -0.0180  0.3092
73819SOL     OW39448  12.355   1.790   8.814 -0.4020 -0.0172 -0.4019
73819SOL    HW139449  12.346   1.752   8.902  0.0928  1.5126  0.3614
73819SOL    HW239450  12.440   1.761   8.783  0.1313  0.6991  0.3261
73820SOL     OW39451   1.243   8.096   8.811  0.3882  0.5038 -0.2215
73820SOL    HW139452   1.262   8.011   8.771 -1.5808 -0.5316  0.8566
73820SOL    HW239453   1.262   8.084   8.904 -0.5441  0.9868  0.0520
73821SOL     OW39454   3.363   2.306  12.798 -0.0760  0.0561 -0.1913
73821SOL    HW139455   3.420   2.364  12.748  0.7656  2.0560  2.8143
73821SOL    HW239456   3.422   2.242  12.838 -0.6724 -1.1664 -1.1631
73822SOL     OW39457   0.580   4.092   2.539  0.0006 -0.0206 -0.3410
73822SOL    HW139458   0.667   4.061   2.513  0.0902 -1.7989  1.8171
73822SOL    HW239459   0.525   4.015   2.538 -0.5842  0.2872  2.0237
73823SOL     OW39460   7.580   4.847  10.747 -0.6413 -0.4308 -0.3751
73823SOL    HW139461   7.492   4.826  10.716 -0.9867 -1.0534  0.9577
73823SOL    HW239462   7.636   4.837  10.670 -1.7658  0.3269 -1.3344
73824SOL     OW39463   8.515   0.916  11.883 -0.4759  0.0471  0.4729
73824SOL    HW139464   8.589   0.861  11.907  0.4368  2.0104  2.5795
73824SOL    HW239465   8.516   0.987  11.948 -1.0299  3.0289 -2.4572
73825SOL     OW39466  12.321  11.511   0.336  0.4123 -0.4269 -0.0337
73825SOL    HW139467  12.414  11.530   0.346  0.3329 -0.1626  0.2022
73825SOL    HW239468  12.313  11.479   0.246  0.7313 -0.4612 -0.0504
73826SOL     OW39469   1.985  13.054  13.088  0.3566  0.1836  0.4450
73826SOL    HW139470   1.892  13.033  13.099  0.3256  0.3568  0.5134
73826SOL    HW239471   2.012  13.089  13.173  0.3502  0.6452  0.2591
73827SOL     OW39472  12.703  11.333  10.314  0.4097 -0.0075  0.4934
73827SOL    HW139473  12.725  11.399  10.380 -0.0611  0.0928  0.5528
73827SOL    HW239474  12.756  11.357  10.238  0.1919  0.4824  0.4913
73828SOL     OW39475  12.726   9.568  12.776 -0.1449  0.4152 -0.1196
73828SOL    HW139476  12.655   9.613  12.822 -0.1581  0.3763 -0.1020
73828SOL    HW239477  12.702   9.476  12.778 -1.3253  0.6127 -2.1928
73829SOL     OW39478   0.904  12.423   4.796 -0.3626  0.4793 -0.7007
73829SOL    HW139479   0.965  12.349   4.788 -0.7265 -0.0194  0.7016
73829SOL    HW239480   0.960  12.499   4.808  0.0357 -0.0687  1.3072
73830SOL     OW39481   0.225   3.099  10.409  0.2739  0.3057  0.1495
73830SOL    HW139482   0.139   3.126  10.379 -0.1799  0.1471  1.2507
73830SOL    HW239483   0.228   3.005  10.395  0.4704  0.3876 -0.3670
73831SOL     OW39484  12.546  13.448   2.196 -0.1341  0.2198 -0.0448
73831SOL    HW139485  12.485  13.501   2.144 -0.3736  0.6335  0.6518
73831SOL    HW239486  12.577  13.507   2.264 -0.9293 -0.7105  1.1627
73832SOL     OW39487  13.018   8.603   2.233  0.4657  0.2371 -0.2377
73832SOL    HW139488  12.959   8.615   2.307  0.5804  0.5892 -0.2015
73832SOL    HW239489  13.034   8.509   2.230  1.3694  0.3360  0.8955
73833SOL     OW39490   1.040   0.511   5.172 -0.1183 -0.2387  0.8759
73833SOL    HW139491   1.050   0.602   5.145 -1.2116  0.7228  3.3503
73833SOL    HW239492   1.057   0.512   5.267 -0.0905 -2.6355  0.9782
73834SOL     OW39493   4.977   4.000  13.006  0.0904  0.0393  0.3427
73834SOL    HW139494   4.939   4.082  12.974 -0.9971  0.3594  2.3267
73834SOL    HW239495   4.930   3.982  13.087  2.1946 -1.1348  1.3605
73835SOL     OW39496  13.038  13.183   0.066 -0.6360 -0.1477  0.3354
73835SOL    HW139497  13.126  13.201   0.097 -0.4637 -1.3256  0.5585
73835SOL    HW239498  13.036  13.089   0.050 -1.1294  0.1793 -1.9352
73836SOL     OW39499   5.054   8.255   6.298  0.0731  0.3602  0.1272
73836SOL    HW139500   5.124   8.320   6.309  1.0431 -0.5090 -0.7874
73836SOL    HW239501   4.976   8.298   6.336  0.4640  2.4119 -1.2133
73837SOL     OW39502   9.029  10.497   7.270  0.3163 -0.2930 -0.5143
73837SOL    HW139503   8.934  10.490   7.278  0.0468  0.6130 -2.4288
73837SOL    HW239504   9.061  10.499   7.361 -1.4615 -0.6893  0.1548
73838SOL     OW39505  11.545  13.975   0.067 -0.2751  0.0974  0.3120
73838SOL    HW139506  11.451  13.968   0.082 -0.2691  0.5954  0.5949
73838SOL    HW239507  11.557  14.061   0.027  0.2300  0.7222  1.7482
73839SOL     OW39508  11.735   5.980  11.099  0.4134  0.2194  0.3752
73839SOL    HW139509  11.801   5.921  11.134 -0.7131 -1.2868  0.0575
73839SOL    HW239510  11.708   5.941  11.016 -0.6362  0.9717  0.3338
73840SOL     OW39511  12.689   0.978   1.863  0.1336 -0.7812 -0.2951
73840SOL    HW139512  12.672   1.055   1.810 -0.2878 -0.3343  0.4824
73840SOL    HW239513  12.603   0.950   1.894  0.2373 -1.7622 -0.8172
73841SOL     OW39514  12.716   9.595   5.408  0.1887 -0.3543  0.1581
73841SOL    HW139515  12.679   9.644   5.334 -1.1204 -0.6664  0.5779
73841SOL    HW239516  12.728   9.661   5.476 -0.4643 -0.3892  0.3197
73842SOL     OW39517   8.492   1.262   9.757 -0.2257 -0.1057 -0.0889
73842SOL    HW139518   8.516   1.170   9.774 -0.4049 -0.5010 -1.8025
73842SOL    HW239519   8.499   1.271   9.662  0.3731  1.8469  0.1026
73843SOL     OW39520   4.259   1.349  14.150  0.0655 -0.8666 -0.7323
73843SOL    HW139521   4.275   1.272  14.096 -0.5606 -2.4125  1.1776
73843SOL    HW239522   4.257   1.316  14.239  2.2006  1.7507  0.4353
73844SOL     OW39523  11.498   8.594   3.039  0.6602  0.1351  0.6407
73844SOL    HW139524  11.462   8.580   3.127  0.3458 -1.4638  0.2821
73844SOL    HW239525  11.511   8.689   3.034  2.7219  0.1164  3.1891
73845SOL     OW39526   0.005   5.310   3.289  0.4690  0.2657  0.0712
73845SOL    HW139527  -0.008   5.222   3.253 -3.6868  0.3315  0.9425
73845SOL    HW239528  -0.071   5.324   3.345  2.4892  3.3457  2.3522
73846SOL     OW39529   0.788   3.982   2.754 -0.3373 -0.2412  0.6891
73846SOL    HW139530   0.725   3.969   2.824 -2.3120 -1.6364 -1.2214
73846SOL    HW239531   0.793   3.898   2.709 -0.7860  1.0935 -2.1066
73847SOL     OW39532   4.514  13.645   9.868  0.8706  0.0571 -0.6645
73847SOL    HW139533   4.517  13.661   9.774  0.0862 -0.1577 -0.7303
73847SOL    HW239534   4.591  13.591   9.885  1.9446  1.4504 -0.9032
73848SOL     OW39535   9.420   6.743   3.400  0.1931 -0.0751 -0.4221
73848SOL    HW139536   9.513   6.719   3.406  0.3405  0.7459  1.2047
73848SOL    HW239537   9.376   6.677   3.455 -0.1850 -0.3911 -1.0944
73849SOL     OW39538  12.416   8.217  10.733  0.3179  0.0673 -0.3001
73849SOL    HW139539  12.423   8.164  10.653  1.3361  0.3871 -0.4320
73849SOL    HW239540  12.342   8.276  10.716 -0.2719 -0.7097 -0.5002
73850SOL     OW39541  13.307   3.601  12.931 -0.1342 -0.1911  0.2784
73850SOL    HW139542  13.215   3.615  12.908 -0.5812 -1.2468  1.3367
73850SOL    HW239543  13.329   3.677  12.985  0.0861  0.8341 -1.1865
73851SOL     OW39544   6.899   2.706  13.586 -0.1965 -0.0557 -0.8376
73851SOL    HW139545   6.921   2.745  13.501 -0.3310 -0.2215 -0.9480
73851SOL    HW239546   6.906   2.779  13.648 -2.5522  0.6833 -1.3432
73852SOL     OW39547  12.258  10.049   6.921  0.1442  0.2140 -0.5361
73852SOL    HW139548  12.172  10.090   6.932  0.5993  0.7905  1.0343
73852SOL    HW239549  12.264  10.032   6.826 -2.5503 -1.7834 -0.4740
73853SOL     OW39550  11.267   3.454   0.455 -0.1177 -0.1365  0.3610
73853SOL    HW139551  11.320   3.504   0.392 -1.4750  0.5292 -0.2845
73853SOL    HW239552  11.189   3.508   0.469 -0.7996 -1.2651  1.0268
73854SOL     OW39553   1.514  13.297  14.140 -0.3500  0.3277 -0.4329
73854SOL    HW139554   1.544  13.220  14.188 -0.2890  0.8054  0.3131
73854SOL    HW239555   1.479  13.263  14.057  0.6524 -0.3953 -0.5661
73855SOL     OW39556   3.869  11.972  12.319 -0.0292 -0.7091  0.6175
73855SOL    HW139557   3.915  11.897  12.358  0.4416 -0.7798 -0.0659
73855SOL    HW239558   3.895  11.971  12.227  0.0726  0.3708  0.6257
73856SOL     OW39559   4.078   6.181  12.504  0.1572 -0.1474  0.4434
73856SOL    HW139560   4.061   6.272  12.481 -0.5023  0.1152  1.8722
73856SOL    HW239561   3.992   6.141  12.509  0.2106 -0.0998  2.6738
73857SOL     OW39562   3.310   1.647   6.478 -0.3506  0.7073  0.4869
73857SOL    HW139563   3.392   1.640   6.429  0.8845  0.1869  2.5191
73857SOL    HW239564   3.265   1.564   6.462  1.4280 -0.7427  2.4951
73858SOL     OW39565  13.892  10.159   5.866 -0.1223  0.3471  0.1485
73858SOL    HW139566  13.827  10.153   5.797 -2.3273  2.3700  1.8866
73858SOL    HW239567  13.929  10.247   5.858  0.0047  0.4028  1.1615
73859SOL     OW39568  12.716   9.072  12.969 -0.3051 -0.1327  0.0019
73859SOL    HW139569  12.748   9.007  13.032  0.1121  0.9656  0.9581
73859SOL    HW239570  12.626   9.090  12.995  0.0743  0.8075  0.7237
73860SOL     OW39571   3.813  13.467   4.697  0.5189 -0.1654 -0.0950
73860SOL    HW139572   3.890  13.465   4.753  1.1985  0.2219 -1.0004
73860SOL    HW239573   3.843  13.431   4.614 -0.2369  0.1630 -0.5164
73861SOL     OW39574   9.799  13.975   1.612  0.1525  0.4106 -0.1413
73861SOL    HW139575   9.782  14.052   1.665  0.1702 -0.4029  1.0904
73861SOL    HW239576   9.737  13.909   1.644  1.7513 -0.8404  0.5470
73862SOL     OW39577   0.764   8.394  10.461 -0.3215  0.5728  0.0682
73862SOL    HW139578   0.686   8.428  10.506  1.8785  3.5666  1.9716
73862SOL    HW239579   0.831   8.388  10.529  1.0411 -2.6740 -1.3345
73863SOL     OW39580   4.970   7.481  12.163 -0.1266  0.4399 -0.3812
73863SOL    HW139581   4.891   7.511  12.119  0.1801 -0.2046 -1.4011
73863SOL    HW239582   5.010   7.419  12.102  1.1813  0.7725  0.0963
73864SOL     OW39583   2.978   2.074   3.604 -0.2755 -0.4213  0.2344
73864SOL    HW139584   3.069   2.055   3.626  0.0587  1.1542  0.2910
73864SOL    HW239585   2.934   2.084   3.688  0.0544  1.2373  0.2438
73865SOL     OW39586   2.867  12.580  11.595  0.2706  0.0174  0.1946
73865SOL    HW139587   2.943  12.635  11.613 -0.3981  1.2238 -0.4801
73865SOL    HW239588   2.792  12.640  11.603 -0.5439 -0.9663  0.1174
73866SOL     OW39589   0.222  13.476   3.011 -0.1148 -0.0505 -0.2537
73866SOL    HW139590   0.231  13.468   3.106 -1.1910 -0.3580 -0.1648
73866SOL    HW239591   0.256  13.393   2.977  0.1152 -0.0092 -0.1270
73867SOL     OW39592   1.990   6.409   1.253 -0.2660 -0.5464 -0.3374
73867SOL    HW139593   2.006   6.407   1.159  0.2255 -0.8083 -0.2532
73867SOL    HW239594   1.979   6.502   1.273 -3.5590 -0.6334 -1.1342
73868SOL     OW39595  11.312   6.384  12.029  0.2011  0.1886  0.3907
73868SOL    HW139596  11.288   6.472  12.000  1.3345 -0.1697 -1.7628
73868SOL    HW239597  11.309   6.390  12.125  0.5442  2.6526  0.3293
73869SOL     OW39598   9.380   9.325  11.480  0.1236  0.4280  0.1751
73869SOL    HW139599   9.429   9.256  11.435  0.4873  1.2185 -0.6560
73869SOL    HW239600   9.325   9.364  11.413 -1.5079 -0.2808  1.0443
73870SOL     OW39601  11.061   6.010   4.590  0.2102  0.4106  0.2029
73870SOL    HW139602  11.005   5.982   4.518  1.6390 -1.0974 -0.3645
73870SOL    HW239603  11.060   5.937   4.652  0.3372  0.9988  0.9182
73871SOL     OW39604  11.524   1.126   9.491 -0.7414  0.8751  0.3602
73871SOL    HW139605  11.595   1.183   9.460  0.1982 -0.2978  0.2855
73871SOL    HW239606  11.490   1.171   9.569  0.2441  1.3481  0.5415
73872SOL     OW39607  13.131   4.139   6.757  0.0107 -0.6159  0.0509
73872SOL    HW139608  13.105   4.201   6.825  2.5433 -0.9082  1.4382
73872SOL    HW239609  13.201   4.184   6.710 -0.6974 -1.0087 -1.4017
73873SOL     OW39610   6.770   8.827  11.495  0.5511  0.5373 -0.0540
73873SOL    HW139611   6.695   8.850  11.551 -0.6223  1.3644 -1.8881
73873SOL    HW239612   6.847   8.857  11.545 -0.2320 -0.7493  2.0874
73874SOL     OW39613  13.085   7.005  13.126 -0.0019 -0.3656 -0.2036
73874SOL    HW139614  13.092   6.941  13.197 -0.3526  0.4912  0.6286
73874SOL    HW239615  13.013   6.972  13.072  0.8211 -1.4797 -0.6750
73875SOL     OW39616  12.204  13.473  11.254  0.6175  0.1377 -0.1416
73875SOL    HW139617  12.118  13.464  11.295 -0.3135  5.3308 -0.3151
73875SOL    HW239618  12.261  13.506  11.323  1.2625  0.8989 -1.0091
73876SOL     OW39619   5.068   5.502  10.538  0.5235  0.1824 -0.4697
73876SOL    HW139620   5.138   5.440  10.561  0.6347  0.9301  1.3700
73876SOL    HW239621   5.013   5.455  10.476  1.6036 -1.1052 -0.4845
73877SOL     OW39622  13.288   2.956   8.100 -0.2722  0.1743  0.6130
73877SOL    HW139623  13.381   2.938   8.109 -0.3862 -0.4472  0.5990
73877SOL    HW239624  13.245   2.875   8.127 -0.8489  0.8050  1.6744
73878SOL     OW39625   2.064  11.096   9.546  0.3886  0.5450 -0.2481
73878SOL    HW139626   2.041  11.046   9.468  1.7265  0.4994 -0.6358
73878SOL    HW239627   2.021  11.049   9.618 -1.4608  1.0092 -1.0137
73879SOL     OW39628   0.511  13.381  11.105  0.5123 -0.3036 -0.5487
73879SOL    HW139629   0.526  13.445  11.175  1.2403 -0.8317 -0.2079
73879SOL    HW239630   0.497  13.434  11.027 -0.0965  0.2932 -0.0532
73880SOL     OW39631   1.439   7.418  11.784 -0.5341 -0.0478 -0.3364
73880SOL    HW139632   1.384   7.496  11.775  0.7770  1.0463  0.6786
73880SOL    HW239633   1.377   7.347  11.800 -1.7034  1.0033 -0.0232
73881SOL     OW39634   5.217   8.729   2.102  0.0706 -0.6302  0.2353
73881SOL    HW139635   5.174   8.814   2.113  0.4605 -0.4537  0.4055
73881SOL    HW239636   5.151   8.666   2.131  0.0951 -0.3310  0.9593
73882SOL     OW39637   3.116  13.841   3.354  0.3422  0.4655 -0.1989
73882SOL    HW139638   3.057  13.796   3.294  0.1053 -0.4621  0.7132
73882SOL    HW239639   3.189  13.870   3.298 -0.2382  0.3065 -1.0592
73883SOL     OW39640   0.121  13.936   0.519  0.4420 -0.2884  1.1038
73883SOL    HW139641   0.114  13.886   0.600  0.2025  0.5156  1.5887
73883SOL    HW239642   0.031  13.954   0.493  0.5224  0.0196  1.0214
73884SOL     OW39643   7.832   1.970  10.196  0.0468 -0.6728 -0.5245
73884SOL    HW139644   7.904   1.956  10.136 -0.2238  1.2472 -1.3894
73884SOL    HW239645   7.828   2.065  10.207 -0.7982 -0.8837  1.4413
73885SOL     OW39646   5.561   9.588   9.978 -0.2854  0.4727 -1.0000
73885SOL    HW139647   5.632   9.650   9.996  0.4433 -0.8356  0.7835
73885SOL    HW239648   5.482   9.643   9.977  0.5654  1.7594 -1.7764
73886SOL     OW39649   8.734  11.308  11.799  0.0004  0.0573 -0.8271
73886SOL    HW139650   8.655  11.322  11.746 -1.0137  0.9749  0.8541
73886SOL    HW239651   8.701  11.294  11.888  1.6313 -1.7397 -0.4341
73887SOL     OW39652   1.381   9.427   5.842 -0.6666 -0.3279 -0.3128
73887SOL    HW139653   1.377   9.359   5.775  2.1645 -1.9898  1.0164
73887SOL    HW239654   1.326   9.395   5.913 -2.2408  0.5882 -1.0687
73888SOL     OW39655   5.800   2.408   1.522 -0.3768 -0.1530 -0.2064
73888SOL    HW139656   5.842   2.493   1.534 -1.2116  0.2229  0.2004
73888SOL    HW239657   5.746   2.397   1.601  1.2382 -1.9831  0.7237
73889SOL     OW39658  12.979   6.476  12.284  0.1263  0.2290  0.9450
73889SOL    HW139659  12.884   6.477  12.295  0.2692 -0.4536  2.5605
73889SOL    HW239660  12.998   6.387  12.252  0.2332  0.3140  0.7724
73890SOL     OW39661  12.210  10.474  10.126  0.0752 -0.1920 -0.6364
73890SOL    HW139662  12.170  10.391  10.153 -0.5823  0.1692 -0.4965
73890SOL    HW239663  12.241  10.457  10.037  0.3978 -0.7441 -0.4286
73891SOL     OW39664   4.239  11.358  13.715  0.0256  0.2408 -0.1053
73891SOL    HW139665   4.328  11.341  13.683 -0.0734  0.9040 -0.7577
73891SOL    HW239666   4.182  11.319  13.649 -0.1719 -0.3028  0.3837
73892SOL     OW39667   8.086  13.264   4.149 -0.2969  0.2300 -0.6386
73892SOL    HW139668   8.031  13.321   4.094 -1.7483 -0.2349  0.2521
73892SOL    HW239669   8.043  13.179   4.144 -0.9263  0.3442  1.7550
73893SOL     OW39670   6.668   5.896  11.749  0.5559  0.0950  0.3371
73893SOL    HW139671   6.666   5.974  11.694  1.1045  0.1023  0.3226
73893SOL    HW239672   6.590   5.846  11.723  0.7849  0.1125 -0.4277
73894SOL     OW39673  11.264  11.241   7.004  0.3536 -0.3063  0.3461
73894SOL    HW139674  11.259  11.330   7.037 -0.2731 -1.1455  2.7537
73894SOL    HW239675  11.332  11.199   7.058 -0.3762 -1.6340  0.2879
73895SOL     OW39676   0.035   5.005   1.216 -0.9350 -0.2976 -0.4787
73895SOL    HW139677  -0.019   5.083   1.228 -0.3412 -0.0769  0.9878
73895SOL    HW239678   0.116   5.038   1.179 -1.1734 -0.4131 -1.1208
73896SOL     OW39679   3.218   2.568  10.564  0.0815  0.4033 -0.2307
73896SOL    HW139680   3.126   2.564  10.540 -0.6253  1.9564  1.8956
73896SOL    HW239681   3.255   2.486  10.533 -2.4581 -1.1221  0.5206
73897SOL     OW39682   5.417  11.179   2.693  0.5901  0.1579 -0.2990
73897SOL    HW139683   5.343  11.229   2.660  1.1597  0.4330 -1.2196
73897SOL    HW239684   5.448  11.229   2.769  1.2069  1.2993 -1.2553
73898SOL     OW39685   4.877  13.951   0.108  0.1696 -0.0725 -0.5359
73898SOL    HW139686   4.937  13.932   0.180  1.2842  0.5637 -1.2744
73898SOL    HW239687   4.819  13.875   0.105 -0.0504 -0.0192  1.1584
73899SOL     OW39688   6.171   5.609   4.587 -0.1332 -0.7164 -0.2940
73899SOL    HW139689   6.246   5.570   4.632 -0.7618 -2.8650 -0.9852
73899SOL    HW239690   6.202   5.624   4.498 -0.0973 -0.2261 -0.2013
73900SOL     OW39691   7.250   1.364  11.669  0.3094  0.3668  0.2143
73900SOL    HW139692   7.285   1.287  11.624  1.2841 -0.8663  2.8711
73900SOL    HW239693   7.179   1.394  11.613 -0.0636 -2.4334 -0.9713
73901SOL     OW39694   5.811   6.556  11.081 -0.0752  0.1855 -0.3378
73901SOL    HW139695   5.743   6.505  11.036  0.7720 -1.0140 -0.2994
73901SOL    HW239696   5.792   6.646  11.057 -1.5736 -0.1348 -0.4838
73902SOL     OW39697  10.759   6.397   6.633  0.0295  0.1783  0.1593
73902SOL    HW139698  10.768   6.325   6.571 -0.8749 -0.6126  0.9114
73902SOL    HW239699  10.826   6.381   6.700  0.5680  0.6674 -0.2513
73903SOL     OW39700   5.444   0.847  10.620  0.2789 -0.2544  0.4876
73903SOL    HW139701   5.512   0.817  10.559  0.3997 -0.5381  0.7559
73903SOL    HW239702   5.493   0.885  10.693  0.1198  1.1074 -0.0869
73904SOL     OW39703  10.990   2.851   0.634  0.4864 -0.1270 -0.1771
73904SOL    HW139704  11.053   2.861   0.562  0.2029 -0.3552 -0.4613
73904SOL    HW239705  10.977   2.940   0.668  1.4335 -0.1515  0.2959
73905SOL     OW39706  11.754   7.566   5.022 -0.3838 -0.5410  0.1909
73905SOL    HW139707  11.789   7.575   4.933 -1.0004  0.2892  0.0203
73905SOL    HW239708  11.772   7.475   5.046  0.6914 -0.4992 -0.3950
73906SOL     OW39709   3.205  10.418  13.896 -0.5564 -0.2360 -0.0341
73906SOL    HW139710   3.177  10.506  13.871  0.9501 -0.1974 -1.7670
73906SOL    HW239711   3.166  10.404  13.983 -0.4388  2.3036  0.4916
73907SOL     OW39712   4.107   9.660   2.437 -0.3768 -0.0435 -0.6265
73907SOL    HW139713   4.066   9.682   2.520  1.0722  2.5903 -0.5054
73907SOL    HW239714   4.133   9.568   2.446 -1.4364 -0.2026  1.2675
73908SOL     OW39715   0.333   3.927   9.609 -0.2733  0.0152 -0.6850
73908SOL    HW139716   0.409   3.905   9.555  0.7341 -0.2407  0.7862
73908SOL    HW239717   0.351   4.016   9.640  0.7246 -0.9436  1.7206
73909SOL     OW39718   6.022  10.085   6.783 -0.0628  0.3711 -0.3858
73909SOL    HW139719   6.056  10.009   6.830  0.2305 -0.9602 -2.6188
73909SOL    HW239720   5.942  10.108   6.831  0.7301 -0.2414  1.3377
73910SOL     OW39721   8.110   8.800   4.835  0.6740 -0.6115 -0.6134
73910SOL    HW139722   8.154   8.751   4.765  0.7130  0.5067 -1.3872
73910SOL    HW239723   8.070   8.874   4.791  0.2937 -0.1450  0.4930
73911SOL     OW39724   6.771   8.633   2.702  0.4954 -0.2111  0.5165
73911SOL    HW139725   6.723   8.712   2.729  0.1308 -0.7064  1.3398
73911SOL    HW239726   6.739   8.615   2.613 -1.1255 -0.7330  1.1720
73912SOL     OW39727   7.078   0.282   9.154  0.3466 -0.3446  0.4683
73912SOL    HW139728   7.013   0.213   9.141  0.0883 -0.0525  0.1759
73912SOL    HW239729   7.071   0.303   9.247  2.5214 -2.7532  1.2763
73913SOL     OW39730   4.049   2.539   9.990 -0.2616 -0.1315 -0.0738
73913SOL    HW139731   3.988   2.466   9.997  1.1210 -1.3686 -0.4643
73913SOL    HW239732   4.068   2.546   9.897  2.3202 -1.6576  0.2557
73914SOL     OW39733   1.779   3.849   1.783  0.0509  0.1966 -0.0796
73914SOL    HW139734   1.775   3.901   1.863  0.2697 -0.1986  0.1922
73914SOL    HW239735   1.865   3.867   1.746 -0.3813  1.0655 -0.7052
73915SOL     OW39736   4.240  13.187   8.662 -0.1985  0.5674  0.6510
73915SOL    HW139737   4.169  13.204   8.724  0.8116  1.3102  1.6671
73915SOL    HW239738   4.307  13.142   8.714 -0.1903 -0.7775 -0.4601
73916SOL     OW39739  13.536   6.969   4.605 -0.4598  0.0734 -0.0454
73916SOL    HW139740  13.471   6.990   4.537 -0.4377 -1.1458 -0.4730
73916SOL    HW239741  13.526   6.874   4.619  0.5163  0.0579  0.6294
73917SOL     OW39742  13.622   4.441   6.574 -0.2081 -0.2977  0.1734
73917SOL    HW139743  13.705   4.426   6.527 -0.3324  0.1461 -0.1909
73917SOL    HW239744  13.557   4.393   6.524 -0.4431  0.6436 -0.4579
73918SOL     OW39745  10.659   5.057   5.307 -0.4798 -0.1701 -0.5135
73918SOL    HW139746  10.662   5.076   5.213  0.0625  0.3312 -0.4044
73918SOL    HW239747  10.681   5.140   5.349  1.1518 -0.8162  0.0097
73919SOL     OW39748   9.589   6.857   7.818 -0.3105  0.6662  0.7884
73919SOL    HW139749   9.558   6.864   7.909  0.8368  1.7632  1.1286
73919SOL    HW239750   9.684   6.860   7.826 -0.1806  0.0035 -0.4137
73920SOL     OW39751   6.224   7.927  10.085  0.1027  0.3544 -0.7429
73920SOL    HW139752   6.202   7.978  10.164 -0.8109  0.0590 -0.8015
73920SOL    HW239753   6.227   7.836  10.116  0.3192  0.2955 -0.9356
73921SOL     OW39754   8.747  13.771  13.813  0.3535 -0.0912 -0.3368
73921SOL    HW139755   8.657  13.788  13.786  0.6596 -1.2423 -2.3032
73921SOL    HW239756   8.776  13.698  13.757  1.7370 -1.4009  1.8945
73922SOL     OW39757   1.502   0.880   7.217 -0.4493  0.3134 -0.1912
73922SOL    HW139758   1.467   0.832   7.292 -0.3253 -1.3457 -1.1440
73922SOL    HW239759   1.530   0.964   7.253  0.8932 -0.9409  1.9159
73923SOL     OW39760   9.454   0.317   2.371  0.0551  0.1314  0.1755
73923SOL    HW139761   9.450   0.244   2.310  0.8826  0.2709 -0.0594
73923SOL    HW239762   9.528   0.297   2.428 -0.4497  0.2085  0.8671
73924SOL     OW39763   2.878  10.431  13.230  0.0009  0.2307 -0.4708
73924SOL    HW139764   2.941  10.420  13.159 -0.6764 -0.8104 -0.9459
73924SOL    HW239765   2.826  10.351  13.228 -2.5497  1.7727 -1.3139
73925SOL     OW39766  10.467   1.113  12.322  0.0438  0.3781 -0.4005
73925SOL    HW139767  10.398   1.113  12.255 -1.7579 -0.6585  1.3257
73925SOL    HW239768  10.513   1.031  12.310  0.2282  0.5501 -0.8580
73926SOL     OW39769   0.078  13.305   4.081  0.0993  0.3674 -0.4239
73926SOL    HW139770   0.169  13.300   4.050 -0.5512 -1.0164 -2.3066
73926SOL    HW239771   0.057  13.216   4.110 -0.7112  0.6386 -0.1355
73927SOL     OW39772   8.751  11.676  12.823  0.3083 -0.1743  0.7408
73927SOL    HW139773   8.809  11.672  12.899 -0.4990 -1.1572  1.3358
73927SOL    HW239774   8.693  11.750  12.841  1.0105  0.4616  0.4094
73928SOL     OW39775   9.545   1.503   3.451  0.3788  0.7913  0.6525
73928SOL    HW139776   9.472   1.479   3.393 -1.6747  2.6048  2.2895
73928SOL    HW239777   9.591   1.572   3.405 -0.2678  1.1174  0.4744
73929SOL     OW39778  12.010   2.873   1.243 -0.2939 -0.4471 -0.2235
73929SOL    HW139779  11.984   2.954   1.286  0.8069 -0.1956 -0.0235
73929SOL    HW239780  12.025   2.811   1.314 -0.2627 -0.5677 -0.3346
73930SOL     OW39781  12.687   9.378   2.395  0.3032  0.5642  0.4737
73930SOL    HW139782  12.605   9.329   2.386  1.1822 -0.5454 -2.4547
73930SOL    HW239783  12.668   9.464   2.358  0.8961 -0.3644 -2.2251
73931SOL     OW39784  11.981   4.672   8.353  0.3832 -0.1118  0.3898
73931SOL    HW139785  12.021   4.587   8.332 -3.0562 -2.5524  2.5357
73931SOL    HW239786  11.961   4.666   8.447  0.0604  3.1766  0.6384
73932SOL     OW39787  10.580   5.006   4.448  0.2312 -0.6131 -0.5271
73932SOL    HW139788  10.672   5.028   4.434 -0.3519  1.0071 -2.3602
73932SOL    HW239789  10.562   4.936   4.385 -0.2641  0.5807 -1.7730
73933SOL     OW39790   5.357   8.129   2.051  0.3470  0.4918 -0.3212
73933SOL    HW139791   5.345   8.221   2.074  0.5428  0.3901  0.1902
73933SOL    HW239792   5.275   8.087   2.077 -0.4863  0.8245 -2.2139
73934SOL     OW39793   5.706  13.527   0.820 -0.5374 -0.0328 -0.2715
73934SOL    HW139794   5.727  13.554   0.910 -0.5767 -1.1323  0.0842
73934SOL    HW239795   5.675  13.607   0.778 -2.3474  0.1349  1.2448
73935SOL     OW39796   6.796   6.457   2.958 -0.4190  0.8714 -0.3104
73935SOL    HW139797   6.721   6.511   2.931 -0.9592 -0.0838 -0.7708
73935SOL    HW239798   6.871   6.498   2.916 -0.8418  1.2048 -0.7539
73936SOL     OW39799   1.826   3.488  11.096  0.5254  0.3977 -0.9304
73936SOL    HW139800   1.779   3.541  11.161 -0.9672 -0.4734 -1.2592
73936SOL    HW239801   1.908   3.464  11.140 -0.7753 -0.8539  0.9952
73937SOL     OW39802   5.908   5.473   7.610 -0.3553 -0.2557  0.2505
73937SOL    HW139803   5.922   5.482   7.516 -0.5191  1.0492  0.3401
73937SOL    HW239804   5.996   5.479   7.648 -0.1655 -1.8141  0.1351
73938SOL     OW39805  13.593   1.009   0.812 -0.0466  0.0462  0.0173
73938SOL    HW139806  13.532   1.022   0.739 -0.2815 -1.2154 -0.0352
73938SOL    HW239807  13.549   0.946   0.868  0.6486  0.1207  0.6551
73939SOL     OW39808  11.105   5.463   3.830 -0.6310  0.3599 -0.1933
73939SOL    HW139809  11.056   5.389   3.866 -2.5366  1.8077  0.3756
73939SOL    HW239810  11.195   5.448   3.859 -1.0648 -1.4316  0.3707
73940SOL     OW39811  14.084   3.570  11.491 -0.1736  0.1009 -0.6276
73940SOL    HW139812  14.061   3.481  11.465  2.1347 -0.5341 -0.6691
73940SOL    HW239813  14.086   3.567  11.587 -2.4809  0.8028 -0.4971
73941SOL     OW39814   8.317   1.549   0.054 -0.1971  0.6120 -0.3002
73941SOL    HW139815   8.328   1.595   0.137  0.9175  0.7721 -0.5152
73941SOL    HW239816   8.232   1.506   0.061 -0.4137  1.1668  0.6541
73942SOL     OW39817   6.899   7.665   5.428  0.8774 -0.2209  0.3706
73942SOL    HW139818   6.951   7.640   5.504  0.8364  1.6755  1.0833
73942SOL    HW239819   6.963   7.679   5.359  0.8287 -3.0310 -0.3225
73943SOL     OW39820   8.873   0.720   7.761 -0.1360  0.2035  0.7774
73943SOL    HW139821   8.948   0.767   7.724  0.3195 -0.7920  0.4123
73943SOL    HW239822   8.904   0.687   7.845 -1.0932  2.2480  2.0350
73944SOL     OW39823   3.728   9.643   6.090  0.5952 -0.0455 -0.4385
73944SOL    HW139824   3.808   9.596   6.069 -0.0087 -1.3167 -0.0205
73944SOL    HW239825   3.688   9.591   6.160  0.0387  1.2662  0.2374
73945SOL     OW39826   1.065   3.218  13.250  0.0426  0.0279 -0.3942
73945SOL    HW139827   1.139   3.231  13.191  0.8236 -1.9701  0.0543
73945SOL    HW239828   0.989   3.252  13.201  1.0632  1.0215 -1.3465
73946SOL     OW39829   7.899   0.226   5.188 -0.3415  0.0865 -0.6278
73946SOL    HW139830   7.848   0.195   5.113 -0.4532  1.8253 -1.3059
73946SOL    HW239831   7.933   0.146   5.228 -0.5979 -0.9085 -2.3012
73947SOL     OW39832   5.247   2.570   0.672  0.1161  0.2507  0.4740
73947SOL    HW139833   5.340   2.592   0.681  0.0264  0.1802  1.7333
73947SOL    HW239834   5.245   2.476   0.656  0.2575  0.2115  0.6834
73948SOL     OW39835   8.007   2.138  12.701 -0.7487  0.0419  0.5215
73948SOL    HW139836   7.923   2.182  12.691 -0.1354  1.0942 -0.1242
73948SOL    HW239837   8.072   2.206  12.686  0.2320 -1.1777 -1.0432
73949SOL     OW39838  12.552   9.068   3.386  0.4337  0.6880 -0.2433
73949SOL    HW139839  12.501   9.132   3.435  0.6342  0.6002  0.0840
73949SOL    HW239840  12.639   9.073   3.424  0.2423 -0.3999  0.3892
73950SOL     OW39841  12.927   3.312  12.323 -0.2565 -0.0931  0.1872
73950SOL    HW139842  12.998   3.376  12.317  0.1568 -0.6309 -0.8404
73950SOL    HW239843  12.878   3.323  12.242 -0.8417 -0.3175  0.5092
73951SOL     OW39844   7.070   8.419   2.414 -0.0702 -0.3107  0.2460
73951SOL    HW139845   7.067   8.343   2.355  4.5181 -1.1714  0.7151
73951SOL    HW239846   7.052   8.383   2.501  1.0554 -0.7082  0.3293
73952SOL     OW39847  12.842   3.608   8.683  0.3115  0.1455  0.0031
73952SOL    HW139848  12.871   3.621   8.592 -1.4036  1.6304 -0.3979
73952SOL    HW239849  12.760   3.560   8.674  0.7942 -0.8640  0.8777
73953SOL     OW39850   8.758   3.834   2.270  0.2671 -0.1773  0.2326
73953SOL    HW139851   8.767   3.751   2.317  1.7200  0.6875  1.5899
73953SOL    HW239852   8.819   3.827   2.196 -0.4601 -0.7367 -0.3232
73954SOL     OW39853   0.913   0.458   3.242  0.5720  0.4210 -0.3057
73954SOL    HW139854   0.906   0.520   3.315 -1.6907 -1.9749  1.7046
73954SOL    HW239855   0.828   0.465   3.197  0.2961 -1.1239 -0.0662
73955SOL     OW39856   8.524   7.121  10.613  0.3992 -0.6118 -0.4017
73955SOL    HW139857   8.549   7.093  10.701 -1.9190  0.9292  0.8792
73955SOL    HW239858   8.479   7.046  10.575 -1.7311 -0.2512  1.2050
73956SOL     OW39859   6.698   1.765   7.918 -0.4939  0.1621  0.1520
73956SOL    HW139860   6.684   1.707   7.993 -0.9826 -0.6238 -0.5342
73956SOL    HW239861   6.790   1.791   7.925  0.3643 -2.3767 -0.6651
73957SOL     OW39862   7.227   2.860   3.561  0.3723  0.4589  0.1569
73957SOL    HW139863   7.147   2.871   3.510  0.0473 -1.5231  0.1912
73957SOL    HW239864   7.297   2.862   3.496  0.1450  0.2318 -0.0964
73958SOL     OW39865   2.052   8.457   9.102 -0.2183  0.4246 -0.1117
73958SOL    HW139866   1.982   8.396   9.078 -0.7165  0.8680  0.1781
73958SOL    HW239867   2.131   8.404   9.106 -0.2775  0.1606 -1.7895
73959SOL     OW39868   7.038   0.104   4.530  0.6328  0.3203  0.7094
73959SOL    HW139869   7.088   0.029   4.497 -1.8798 -0.9406 -0.5235
73959SOL    HW239870   7.068   0.115   4.620  1.8005 -1.5358  0.6076
73960SOL     OW39871  12.767  11.018   1.446  0.3063 -0.0499  0.2767
73960SOL    HW139872  12.711  10.942   1.432 -0.1885  0.5484 -1.2378
73960SOL    HW239873  12.855  10.987   1.429  0.0984 -0.2879 -0.4127
73961SOL     OW39874  11.167  10.269   3.360  0.1103  0.1985 -0.4986
73961SOL    HW139875  11.198  10.355   3.388  0.6006 -0.1307 -0.0135
73961SOL    HW239876  11.245  10.214   3.362 -0.5539 -0.7703  1.2132
73962SOL     OW39877  12.018  10.719   7.765 -0.4457 -0.4401 -0.6582
73962SOL    HW139878  11.960  10.793   7.785 -1.3887 -1.1637 -0.6740
73962SOL    HW239879  12.003  10.701   7.672  0.0332 -0.4486 -0.7386
73963SOL     OW39880   1.822  11.845  12.178 -0.1757  0.0143  0.3753
73963SOL    HW139881   1.849  11.818  12.090 -0.4951  0.9756 -0.0225
73963SOL    HW239882   1.845  11.937  12.184 -0.5371  0.0661  1.1516
73964SOL     OW39883   7.121   4.597   5.971  0.0793  0.0026 -0.5828
73964SOL    HW139884   7.086   4.654   5.901  1.3606  0.3807 -0.9354
73964SOL    HW239885   7.095   4.641   6.052  0.4942  0.7691 -0.8478
73965SOL     OW39886   5.835   4.519   9.713 -0.0680 -0.2447  0.0729
73965SOL    HW139887   5.793   4.603   9.694 -0.0429  0.1344  1.5230
73965SOL    HW239888   5.924   4.543   9.742  1.1661 -1.0127 -2.7394
73966SOL     OW39889   1.769  11.288   8.108 -0.5866 -0.0057  0.2960
73966SOL    HW139890   1.836  11.220   8.099 -3.4193 -2.8396 -1.5972
73966SOL    HW239891   1.710  11.254   8.176 -1.1330  1.5096  0.6228
73967SOL     OW39892  12.488   7.738  13.360  0.4808  0.2271  0.4161
73967SOL    HW139893  12.532   7.786  13.430  2.6655  2.1209 -2.0599
73967SOL    HW239894  12.516   7.782  13.280 -0.1182 -3.1642 -1.8408
73968SOL     OW39895   0.605  12.317   7.447  0.1980  0.2820 -0.1812
73968SOL    HW139896   0.642  12.330   7.534 -1.5756  0.6286  0.5617
73968SOL    HW239897   0.616  12.402   7.404 -0.6551  0.7148  0.4196
73969SOL     OW39898   6.404   9.313   6.129  0.7414  0.0691  0.0900
73969SOL    HW139899   6.454   9.285   6.206 -0.2040 -2.0694 -0.0008
73969SOL    HW239900   6.374   9.401   6.150  1.1601 -0.1764  1.8347
73970SOL     OW39901  10.769   2.249   3.973  0.0583  0.3158  0.6727
73970SOL    HW139902  10.843   2.279   3.919 -0.7641  1.8007  0.3246
73970SOL    HW239903  10.697   2.240   3.911  0.2899 -2.7834  0.6938
73971SOL     OW39904   2.130   4.188   1.923 -0.0959  0.2496 -0.8588
73971SOL    HW139905   2.136   4.154   1.833 -1.4113 -0.6105 -0.6460
73971SOL    HW239906   2.159   4.115   1.978  0.5723  0.7286 -0.5674
73972SOL     OW39907   2.741  11.922   1.700  0.8849 -0.0449  0.2786
73972SOL    HW139908   2.705  12.010   1.693  1.1947  0.2697  2.0776
73972SOL    HW239909   2.673  11.871   1.743  0.9980 -0.4934 -0.0637
73973SOL     OW39910  12.979   0.857   7.044  0.0873 -0.0595  0.3561
73973SOL    HW139911  13.029   0.883   7.121 -1.3131  3.3893  0.3033
73973SOL    HW239912  13.029   0.891   6.970 -0.9247  1.0107  0.1325
73974SOL     OW39913   4.997  14.040   4.387  0.3417  0.5338 -0.1467
73974SOL    HW139914   4.960  13.992   4.461 -1.7129  0.7451 -0.9510
73974SOL    HW239915   5.088  14.055   4.411 -0.3319  0.9283  2.5116
73975SOL     OW39916   2.985   4.148   6.740  0.0174  0.0072  0.2613
73975SOL    HW139917   3.078   4.165   6.757  0.2235  0.3494 -1.0954
73975SOL    HW239918   2.939   4.223   6.777  0.3185  0.0957  0.4631
73976SOL     OW39919   5.393   1.146  10.643  0.2366  0.0210 -0.6289
73976SOL    HW139920   5.413   1.056  10.668 -1.0308  0.4666  2.6029
73976SOL    HW239921   5.306   1.141  10.604 -0.4220 -0.0911  0.7706
73977SOL     OW39922   7.030   1.181  11.537  0.5526  0.3264  0.3462
73977SOL    HW139923   7.062   1.130  11.612  0.8477  0.4065  0.2747
73977SOL    HW239924   7.072   1.141  11.461  0.6250  0.5469  0.2696
73978SOL     OW39925   6.957   0.615  13.665  0.0657  0.8012 -0.5797
73978SOL    HW139926   6.932   0.524  13.652  1.4965  0.3214 -0.1407
73978SOL    HW239927   7.003   0.639  13.585  0.4264  0.8657 -0.3562
73979SOL     OW39928  14.096  10.002  10.381  0.1655  0.6235 -0.1547
73979SOL    HW139929  14.079   9.922  10.431  0.6224  0.8891  0.4361
73979SOL    HW239930  14.015  10.017  10.331 -0.4628  0.5893  0.8324
73980SOL     OW39931   8.003  12.242  12.561  0.3567  0.3035  0.7111
73980SOL    HW139932   8.002  12.147  12.563  1.8042  0.2457  0.0401
73980SOL    HW239933   7.937  12.266  12.496 -0.3260 -0.2079  1.2078
73981SOL     OW39934  10.149  10.097   6.373 -0.4051 -0.4388 -0.2634
73981SOL    HW139935  10.235  10.061   6.395 -0.6464 -0.1184  1.2781
73981SOL    HW239936  10.147  10.183   6.415 -1.7395 -0.7246  0.3115
73982SOL     OW39937   6.300   7.913   1.059  0.4049 -0.5119 -0.6290
73982SOL    HW139938   6.286   8.004   1.031  1.9315  0.1108  0.4647
73982SOL    HW239939   6.386   7.890   1.022  1.3631 -0.4839  1.4298
73983SOL     OW39940   8.720  10.581  11.730 -0.3922  0.2415 -0.6813
73983SOL    HW139941   8.633  10.550  11.708 -0.2012 -0.4517 -0.5010
73983SOL    HW239942   8.730  10.560  11.823  0.4008 -0.7628 -0.9808
73984SOL     OW39943   4.154   0.808  11.759 -0.1361  0.4710  0.0418
73984SOL    HW139944   4.118   0.720  11.766  0.3771  0.3352  1.0121
73984SOL    HW239945   4.247   0.794  11.737 -0.2749  0.7982 -0.8210
73985SOL     OW39946   4.557  12.879  10.941  0.6705 -0.2546 -0.6394
73985SOL    HW139947   4.533  12.966  10.971 -1.0578  0.1643 -2.9640
73985SOL    HW239948   4.517  12.820  11.005  2.0123  0.5737  1.0615
73986SOL     OW39949  11.883  12.885   8.082 -0.1966 -0.1794 -0.4572
73986SOL    HW139950  11.788  12.876   8.073 -0.3664  0.0972  0.8797
73986SOL    HW239951  11.918  12.857   7.997 -1.4152 -1.0995 -0.6746
73987SOL     OW39952   9.079  12.153   0.434 -0.0165  1.1125  0.0381
73987SOL    HW139953   9.125  12.133   0.515 -0.0195 -1.2509 -0.4779
73987SOL    HW239954   9.129  12.225   0.395  0.9888  1.1209  1.3008
73988SOL     OW39955  11.842   7.825   3.464 -0.6044 -0.3506 -0.8201
73988SOL    HW139956  11.921   7.793   3.422 -0.5520 -0.3585 -0.7167
73988SOL    HW239957  11.772   7.804   3.403 -0.6018 -0.8737 -0.6495
73989SOL     OW39958  12.317  10.308   5.446 -0.2234 -0.0841 -0.0665
73989SOL    HW139959  12.247  10.333   5.386 -3.5551 -2.0134  2.5990
73989SOL    HW239960  12.373  10.248   5.396 -2.7601 -1.5223 -1.3800
73990SOL     OW39961  13.438   8.171  13.034 -0.5623 -0.0449 -0.0319
73990SOL    HW139962  13.528   8.205  13.033 -0.7302  0.4000  0.0960
73990SOL    HW239963  13.433   8.116  12.956 -0.3177  0.3057 -0.3000
73991SOL     OW39964  10.858   8.036   9.774  0.1898  0.3038  0.1625
73991SOL    HW139965  10.845   8.112   9.829  2.4453  1.3119 -0.5843
73991SOL    HW239966  10.777   7.985   9.783 -0.0579  1.0726  3.2877
73992SOL     OW39967   1.955   6.729  11.240 -0.0841  0.0127 -0.6376
73992SOL    HW139968   1.936   6.654  11.297 -0.3902 -0.2285 -1.0479
73992SOL    HW239969   2.020   6.696  11.179  1.3203  0.6929  0.4473
73993SOL     OW39970   5.365   4.347   2.176 -0.0753 -0.0472  0.1561
73993SOL    HW139971   5.424   4.407   2.221  0.6134 -1.2605  0.9187
73993SOL    HW239972   5.277   4.377   2.201  0.2785 -0.6550  2.3346
73994SOL     OW39973  12.426   1.457   4.021 -0.1603 -0.1079  0.4312
73994SOL    HW139974  12.432   1.372   4.065  1.5336 -1.7330 -2.6509
73994SOL    HW239975  12.342   1.454   3.975 -0.5024  0.3136  1.0019
73995SOL     OW39976  10.881   2.820   2.556  0.2747  0.1275  0.2739
73995SOL    HW139977  10.894   2.765   2.633  1.7172  0.7939  0.5466
73995SOL    HW239978  10.967   2.821   2.512  0.0531  1.4212 -0.1941
73996SOL     OW39979   9.404   1.567   7.808  0.2991 -0.0856 -0.2102
73996SOL    HW139980   9.335   1.600   7.865 -0.1945 -1.2274 -0.1104
73996SOL    HW239981   9.453   1.645   7.781 -0.8996  0.7251 -0.1246
73997SOL     OW39982  13.433   9.164   2.641  0.0052  0.4187 -0.2140
73997SOL    HW139983  13.519   9.160   2.599  1.7863 -0.5940  3.1388
73997SOL    HW239984  13.394   9.078   2.623  0.7553 -0.0171  0.1643
73998SOL     OW39985   5.259   9.212   0.828  0.4523 -0.2771  0.5189
73998SOL    HW139986   5.244   9.306   0.846  2.2659  1.1628 -4.1743
73998SOL    HW239987   5.181   9.185   0.781  1.6965  0.2252 -1.9666
73999SOL     OW39988  13.777   6.034  12.835  0.7163 -0.2503 -0.4720
73999SOL    HW139989  13.713   6.101  12.860 -0.9598 -2.0733  0.4125
73999SOL    HW239990  13.860   6.065  12.872 -0.2137  0.8078  0.8142
74000SOL     OW39991   4.583  12.367   9.483  0.5780  0.3320  0.0913
74000SOL    HW139992   4.599  12.375   9.577  0.0975  1.9504  0.0626
74000SOL    HW239993   4.494  12.399   9.471  0.1540 -1.0791 -0.7777
74001SOL     OW39994  13.513   5.715   7.471  0.2616  0.4756  0.4599
74001SOL    HW139995  13.557   5.798   7.488  0.8128 -0.2972  3.1623
74001SOL    HW239996  13.580   5.648   7.485 -0.3535 -0.4983 -0.9702
74002SOL     OW39997   1.523   6.160   5.673 -0.4314  0.5254 -0.1144
74002SOL    HW139998   1.512   6.188   5.583 -2.9648 -0.2051 -0.0927
74002SOL    HW239999   1.560   6.071   5.666 -1.8878 -0.0693 -0.5073
74003SOL     OW40000  13.010   3.890  12.695  0.0876  0.0600  0.5226
74003SOL    HW140001  13.040   3.852  12.612 -0.5824 -0.1802  0.3781
74003SOL    HW240002  13.086   3.887  12.752  0.1077 -1.3775  0.4606
74004SOL     OW40003  11.697   9.388  10.358 -0.6917 -0.3112 -0.8678
74004SOL    HW140004  11.782   9.392  10.314 -0.5699 -1.8675 -0.8286
74004SOL    HW240005  11.666   9.299  10.341 -0.5317 -1.0815  2.3727
74005SOL     OW40006   2.708   1.478  13.124 -0.0428  0.8301  0.9690
74005SOL    HW140007   2.756   1.397  13.141 -0.4049  0.4082  0.0526
74005SOL    HW240008   2.775   1.547  13.129  0.6802  0.2580 -0.2753
74006SOL     OW40009  13.982   7.614   6.667 -0.1888 -0.3068  0.6655
74006SOL    HW140010  13.999   7.701   6.632 -0.1208  0.0522  1.5599
74006SOL    HW240011  14.068   7.583   6.697 -0.0916 -0.9665 -0.2710
74007SOL     OW40012   7.496  12.814  10.785 -0.5403 -0.3792  0.6879
74007SOL    HW140013   7.531  12.833  10.872  0.7543 -1.0518  0.3470
74007SOL    HW240014   7.562  12.757  10.745 -1.6331 -0.9731 -0.3384
74008SOL     OW40015   1.915   8.946   8.776 -0.2659  0.2088  0.4572
74008SOL    HW140016   1.871   8.933   8.860  0.7317  1.4488  1.2059
74008SOL    HW240017   1.985   8.880   8.776 -1.6908 -1.3877 -0.4906
74009SOL     OW40018  12.856   4.928   5.698  0.0180  0.6303  0.5188
74009SOL    HW140019  12.802   4.979   5.638  2.0444  1.9732 -0.2384
74009SOL    HW240020  12.862   4.982   5.777  1.6119  1.3263 -0.0366
74010SOL     OW40021   9.692   5.173   8.925  0.2384  0.1095  0.8407
74010SOL    HW140022   9.625   5.201   8.987 -0.9910 -0.0725 -0.3612
74010SOL    HW240023   9.685   5.078   8.922 -0.3513  0.1739 -0.2432
74011SOL     OW40024   4.550   0.643   1.631 -0.2595 -0.2534  0.0753
74011SOL    HW140025   4.479   0.698   1.665  0.1700  0.2756  0.1451
74011SOL    HW240026   4.525   0.624   1.541  0.0414  0.8864 -0.2716
74012SOL     OW40027   0.629   6.087   5.457 -0.1126 -0.5379 -0.7364
74012SOL    HW140028   0.539   6.108   5.483  0.8618  0.2075  2.4813
74012SOL    HW240029   0.670   6.054   5.537  2.6334 -0.3721 -1.9665
74013SOL     OW40030  11.325   4.212   9.299 -0.1134 -0.0887  0.0664
74013SOL    HW140031  11.388   4.192   9.230  0.4039  0.9279  0.2210
74013SOL    HW240032  11.331   4.139   9.360  1.8349  0.5543  0.7184
74014SOL     OW40033   5.328   1.796   0.127 -0.4414 -0.0582  0.0955
74014SOL    HW140034   5.318   1.891   0.114 -2.6752 -0.2470  0.0107
74014SOL    HW240035   5.313   1.784   0.221 -0.3834 -0.3467  0.0665
74015SOL     OW40036   2.957   8.350  12.305  0.0634 -0.1457 -0.1329
74015SOL    HW140037   2.898   8.424  12.322 -0.6309 -1.0906  1.8373
74015SOL    HW240038   3.032   8.390  12.261 -0.7172  1.5608 -0.0314
74016SOL     OW40039  13.711   6.734  10.242  0.3210  0.5600  0.2131
74016SOL    HW140040  13.718   6.715  10.148 -0.6332 -0.0914  0.2580
74016SOL    HW240041  13.793   6.701  10.279 -0.1622 -1.1058 -0.1071
74017SOL     OW40042  10.282   0.582   8.526  0.2030  0.2337  0.7626
74017SOL    HW140043  10.208   0.542   8.480 -0.1948  1.1887  0.5567
74017SOL    HW240044  10.358   0.565   8.470 -0.5317  2.9065 -1.2411
74018SOL     OW40045   8.374   2.030   7.099  0.1449 -0.1453  0.8171
74018SOL    HW140046   8.281   2.017   7.081  0.4647  1.3657 -2.6906
74018SOL    HW240047   8.408   1.943   7.117 -1.6871 -0.9168  0.6795
74019SOL     OW40048   3.821  11.095  12.593  0.0744 -0.3736  0.6047
74019SOL    HW140049   3.758  11.052  12.650 -1.3550  2.0459  1.0084
74019SOL    HW240050   3.777  11.176  12.566  1.6752 -0.2341 -1.9427
74020SOL     OW40051   4.403   2.710   8.581 -0.0376 -0.3742  0.5483
74020SOL    HW140052   4.395   2.755   8.497 -0.3670 -0.7759  0.3547
74020SOL    HW240053   4.497   2.693   8.590  0.1725  0.9202  0.9440
74021SOL     OW40054   0.907   3.504  13.065 -0.1192 -0.3713  0.1023
74021SOL    HW140055   0.993   3.507  13.024  0.3518 -1.9070  0.8974
74021SOL    HW240056   0.849   3.472  12.995  0.1798 -0.4865 -0.0966
74022SOL     OW40057   2.931   7.255  10.245  0.0937 -0.5000  0.6540
74022SOL    HW140058   2.982   7.335  10.238 -0.2921 -0.3184 -0.3063
74022SOL    HW240059   2.993   7.189  10.277  0.8500 -0.2165 -0.2032
74023SOL     OW40060   2.230  12.711   8.894  0.7049  0.2596  0.4841
74023SOL    HW140061   2.289  12.777   8.857  0.9902 -0.8408 -1.1503
74023SOL    HW240062   2.270  12.628   8.871 -0.2568 -0.5087  1.4809
74024SOL     OW40063   4.652   7.279  11.297 -0.5629 -0.1752 -0.6262
74024SOL    HW140064   4.676   7.261  11.388  0.6751 -0.1785 -0.9450
74024SOL    HW240065   4.726   7.326  11.260 -2.3819  2.8671 -0.7390
74025SOL     OW40066   1.469  12.368  12.980  0.2615  0.2633  0.1245
74025SOL    HW140067   1.465  12.448  13.031  1.4176  0.5738 -0.2357
74025SOL    HW240068   1.406  12.309  13.022  1.2438  0.4657  1.9637
74026SOL     OW40069   4.537   9.328  11.920 -0.3528  0.0789  0.5296
74026SOL    HW140070   4.529   9.232  11.915  0.0217 -0.3556  4.5993
74026SOL    HW240071   4.601   9.350  11.852  0.0502 -2.6481 -0.1165
74027SOL     OW40072   4.371   9.781   4.304  0.5727  0.4450 -0.6897
74027SOL    HW140073   4.390   9.715   4.371 -1.2956  0.4017 -0.1373
74027SOL    HW240074   4.390   9.864   4.348  1.1277  0.3558 -0.7509
74028SOL     OW40075   4.101   4.123   9.566  0.2783 -0.0402 -0.1021
74028SOL    HW140076   4.193   4.133   9.544  0.3389 -0.4644 -0.0593
74028SOL    HW240077   4.101   4.097   9.658  0.4264 -4.5330 -1.1301
74029SOL     OW40078   7.753   7.384  12.735  0.3755 -0.0630  0.0767
74029SOL    HW140079   7.792   7.351  12.655  1.0675 -0.0211  0.3880
74029SOL    HW240080   7.733   7.305  12.786 -0.3043 -0.0999 -0.2443
74030SOL     OW40081   2.742  12.674   5.954 -0.3471 -0.3136 -1.0260
74030SOL    HW140082   2.729  12.630   5.870  0.9771 -0.0999 -1.3667
74030SOL    HW240083   2.656  12.673   5.995 -0.8109 -1.2663 -1.9714
74031SOL     OW40084   2.267   9.908   3.846 -0.2609 -0.4352 -0.1072
74031SOL    HW140085   2.352   9.871   3.872  0.5411  0.9972 -0.5855
74031SOL    HW240086   2.244   9.966   3.919 -0.4849 -0.3043 -0.2825
74032SOL     OW40087  10.637  13.375  10.350  0.6504  0.3198 -0.2251
74032SOL    HW140088  10.645  13.445  10.286  2.3036  0.4641  0.0916
74032SOL    HW240089  10.671  13.413  10.431  0.6040 -0.5352  0.2080
74033SOL     OW40090  13.919  13.181  13.556  0.3698  0.2351 -0.5598
74033SOL    HW140091  13.905  13.216  13.468  0.4127 -0.6674 -0.9276
74033SOL    HW240092  13.853  13.113  13.566  2.1070 -1.5718 -0.9384
74034SOL     OW40093   8.482   6.454   1.726 -0.2729  0.3246 -0.0817
74034SOL    HW140094   8.403   6.429   1.678  1.5072 -1.7210 -2.2194
74034SOL    HW240095   8.518   6.371   1.757  1.3548  1.1271  0.2623
74035SOL     OW40096  10.773   3.072   8.240  0.1018 -0.0449 -0.7610
74035SOL    HW140097  10.711   3.044   8.307 -0.7705 -0.3720 -1.6811
74035SOL    HW240098  10.761   3.167   8.235  1.7499  0.3170  1.0638
74036SOL     OW40099   1.815   8.154   5.807 -0.3685  0.9406 -0.2742
74036SOL    HW140100   1.819   8.170   5.901 -0.3110  0.8686 -0.2648
74036SOL    HW240101   1.772   8.232   5.772 -1.1230  0.6132 -0.0975
74037SOL     OW40102  10.024  13.483   4.365 -0.1427 -0.4925 -0.2011
74037SOL    HW140103  10.080  13.416   4.326 -0.7960 -0.7447 -0.7238
74037SOL    HW240104   9.995  13.445   4.448 -0.2929 -0.7459 -0.3690
74038SOL     OW40105   1.975   7.349   8.112 -0.0699 -0.4001  0.1773
74038SOL    HW140106   1.948   7.389   8.029 -0.4097 -0.7775  0.1014
74038SOL    HW240107   1.915   7.386   8.177 -1.8966 -2.4218 -0.2279
74039SOL     OW40108   8.958  12.676   7.871  0.4891 -0.3139  0.1393
74039SOL    HW140109   8.885  12.616   7.879  0.2003  0.3187  4.0378
74039SOL    HW240110   8.918  12.762   7.863  0.8141 -0.1428  0.3157
74040SOL     OW40111   7.114   1.504   6.623 -0.1217 -0.3464 -0.5484
74040SOL    HW140112   7.108   1.589   6.578 -0.2929 -0.0581  0.0082
74040SOL    HW240113   7.207   1.482   6.621 -0.0449 -0.0324 -0.4886
74041SOL     OW40114   0.436   9.853   4.355  0.9548  0.3253 -0.0810
74041SOL    HW140115   0.364   9.807   4.311  1.4545 -0.0363 -0.5290
74041SOL    HW240116   0.393   9.927   4.398  0.0734 -0.7632  1.0039
74042SOL     OW40117   4.091   4.676  11.708 -0.1570 -0.1469 -0.0788
74042SOL    HW140118   4.183   4.699  11.720 -0.5244  1.8803 -0.6910
74042SOL    HW240119   4.081   4.669  11.613 -0.2658 -2.1891  0.0526
74043SOL     OW40120   0.263   7.317   3.018 -0.1689 -0.2263  0.2450
74043SOL    HW140121   0.192   7.372   2.983  0.5968  0.4662 -0.2596
74043SOL    HW240122   0.224   7.230   3.026 -1.2570  0.2715  0.5679
74044SOL     OW40123   2.350   1.068   2.334  1.1065 -0.1895  0.3771
74044SOL    HW140124   2.371   1.046   2.425  1.6256 -0.4659  0.1924
74044SOL    HW240125   2.255   1.061   2.329  0.9466  0.9923  1.2019
74045SOL     OW40126   8.053  13.266   0.043  0.2342 -0.0143 -0.4869
74045SOL    HW140127   8.102  13.224  -0.028  3.4629  0.2767  1.3710
74045SOL    HW240128   8.104  13.247   0.121 -2.6564  0.5042  1.6806
74046SOL     OW40129   2.094   4.087   6.680  0.5023 -0.1409  0.7346
74046SOL    HW140130   2.102   4.177   6.711 -0.7579  1.0500 -2.0677
74046SOL    HW240131   2.183   4.062   6.655  0.5786  1.1375 -0.3910
74047SOL     OW40132   7.710   9.655   6.022  0.7079 -0.1342  0.1013
74047SOL    HW140133   7.780   9.660   6.087  0.2814  1.4374  0.4801
74047SOL    HW240134   7.649   9.725   6.047 -0.7784 -1.1835 -0.4706
74048SOL     OW40135   1.729   9.290   5.527 -0.0669 -0.2625 -0.0355
74048SOL    HW140136   1.643   9.291   5.485 -0.2381 -1.1096  0.2715
74048SOL    HW240137   1.791   9.299   5.455 -0.4112  0.8476 -0.2154
74049SOL     OW40138   4.730   0.768   9.831  0.1776 -0.6517 -0.1943
74049SOL    HW140139   4.798   0.715   9.790  1.0953 -1.0390  1.7637
74049SOL    HW240140   4.744   0.856   9.795  0.4628 -1.1124 -1.2612
74050SOL     OW40141   7.417   4.555  10.409  0.5681 -0.0872 -0.0742
74050SOL    HW140142   7.351   4.625  10.413  0.4459 -0.0614 -1.8215
74050SOL    HW240143   7.393   4.496  10.480  0.7555  1.6877  1.5591
74051SOL     OW40144   7.740  12.199   7.324 -0.3885 -0.1893 -0.0601
74051SOL    HW140145   7.769  12.133   7.387  0.3509  1.9728  2.0202
74051SOL    HW240146   7.646  12.205   7.338 -0.3555 -0.3085  0.2198
74052SOL     OW40147  10.749   6.682   9.391  0.5527 -0.4499  0.2193
74052SOL    HW140148  10.675   6.622   9.404 -0.5011  1.2630  3.0273
74052SOL    HW240149  10.716   6.748   9.330  0.6864 -1.0854 -0.5500
74053SOL     OW40150  10.598   8.198   4.086 -0.5135 -0.1495  0.1168
74053SOL    HW140151  10.571   8.137   4.017  1.4205 -1.0517  0.1037
74053SOL    HW240152  10.519   8.250   4.103 -1.8414 -1.7373 -0.8137
74054SOL     OW40153   6.548  12.324  12.190 -0.2299 -0.3347 -0.1237
74054SOL    HW140154   6.578  12.237  12.165  3.2543  0.8289 -0.6618
74054SOL    HW240155   6.528  12.366  12.106 -1.3431 -0.4167  0.0922
74055SOL     OW40156   1.013  12.738   5.969 -0.0278  0.3139  0.3754
74055SOL    HW140157   0.978  12.649   5.967  1.7284 -0.4320 -1.4412
74055SOL    HW240158   1.001  12.766   6.059 -1.8201 -1.2450  0.6929
74056SOL     OW40159  13.430   4.307   1.914  0.4542  0.3679 -0.0634
74056SOL    HW140160  13.523   4.286   1.923 -0.1389 -2.1841  0.9669
74056SOL    HW240161  13.405   4.271   1.830  0.0709 -0.3307  0.3466
74057SOL     OW40162   6.801   9.740   8.344 -0.2174 -0.2843 -0.1051
74057SOL    HW140163   6.835   9.704   8.426  1.2447  0.8726 -0.1760
74057SOL    HW240164   6.764   9.825   8.369 -1.7965 -0.8678 -0.2964
74058SOL     OW40165  13.135   6.228   5.459 -0.0460  0.0346 -0.0873
74058SOL    HW140166  13.145   6.323   5.447  0.4407  0.1263  0.9732
74058SOL    HW240167  13.113   6.196   5.372 -3.0863  1.4704 -0.0227
74059SOL     OW40168   6.055   8.281   8.451  0.2882 -0.7547 -0.2891
74059SOL    HW140169   6.139   8.324   8.435 -0.1389  1.1574  1.9730
74059SOL    HW240170   5.989   8.347   8.426 -0.4799 -1.4172 -0.0685
74060SOL     OW40171   6.828   7.130   9.013  0.4787 -0.3315 -0.0227
74060SOL    HW140172   6.808   7.199   9.076 -0.9235 -0.7803  0.0462
74060SOL    HW240173   6.800   7.049   9.057  0.7087 -0.7854 -0.7037
74061SOL     OW40174   1.809  11.436   1.356 -0.0957  0.3821 -0.2462
74061SOL    HW140175   1.864  11.513   1.370 -1.5107  1.2673  0.6511
74061SOL    HW240176   1.862  11.363   1.386 -0.3209  1.4649  3.1677
74062SOL     OW40177   1.750   0.116   2.710  0.0874  0.3267 -0.0954
74062SOL    HW140178   1.687   0.188   2.709  0.9999  1.1600 -1.3114
74062SOL    HW240179   1.696   0.037   2.711 -0.9383  1.0060  0.7247
74063SOL     OW40180  14.084  11.950   9.272  0.6045 -0.1139 -0.0855
74063SOL    HW140181  14.062  11.956   9.179  0.0169 -3.1971 -0.2853
74063SOL    HW240182  14.162  11.894   9.274 -0.1897 -1.2291  1.2881
74064SOL     OW40183  13.289   7.927  12.498 -0.1454  0.9929  0.2641
74064SOL    HW140184  13.344   7.853  12.522 -0.3914 -0.1014 -2.2509
74064SOL    HW240185  13.204   7.889  12.478 -0.4463  2.0247 -0.5159
74065SOL     OW40186  13.908  12.020   4.645  0.4723 -0.1407  0.8105
74065SOL    HW140187  13.940  11.945   4.595 -1.6188 -0.4023 -0.2315
74065SOL    HW240188  13.987  12.072   4.662  1.8668 -2.1488  0.9009
74066SOL     OW40189   5.092  11.713   1.490 -0.2476  1.1613 -0.4136
74066SOL    HW140190   5.142  11.775   1.544  0.4333 -0.7757  1.3259
74066SOL    HW240191   5.158  11.650   1.459 -1.3107 -0.5612  0.6470
74067SOL     OW40192   2.111   1.061   3.072  0.2338 -0.2759 -0.2090
74067SOL    HW140193   2.038   1.106   3.031  0.5754 -0.8834 -1.5331
74067SOL    HW240194   2.091   1.063   3.166 -2.6458 -2.3775 -0.6453
74068SOL     OW40195  10.638   6.547   6.063  0.1406 -0.5218 -0.6405
74068SOL    HW140196  10.662   6.575   6.152 -1.6343  0.6802 -0.4683
74068SOL    HW240197  10.597   6.462   6.075 -1.1954  0.1624 -0.0860
74069SOL     OW40198  11.008   2.572   4.510  0.4097  0.4341  0.2538
74069SOL    HW140199  10.915   2.590   4.515 -0.1459 -1.5324 -1.4207
74069SOL    HW240200  11.029   2.576   4.416  1.6083 -0.7380  0.4277
74070SOL     OW40201   1.338   3.369  10.688 -0.0388  0.6810  0.1905
74070SOL    HW140202   1.398   3.444  10.690  1.3261 -0.3811  1.0138
74070SOL    HW240203   1.394   3.293  10.707 -1.3933 -0.5472 -0.5243
74071SOL     OW40204   4.752   3.006  12.327 -0.7228  0.3682 -0.8046
74071SOL    HW140205   4.772   2.959  12.408 -1.1184 -1.6447 -1.8110
74071SOL    HW240206   4.824   3.068  12.316 -0.8066  0.8684  1.1954
74072SOL     OW40207  10.371   7.763   3.375 -0.3490  0.3985 -0.5764
74072SOL    HW140208  10.386   7.730   3.464 -1.7958  0.7091 -0.1912
74072SOL    HW240209  10.411   7.850   3.375  1.2315 -0.2797 -0.8153
74073SOL     OW40210   7.711  13.696   8.973 -0.7462 -0.1729 -0.4304
74073SOL    HW140211   7.672  13.705   8.886 -2.4131 -0.1464  0.2765
74073SOL    HW240212   7.731  13.786   9.000  0.1534 -0.2130 -0.9308
74074SOL     OW40213   0.092   7.277   4.098  0.0862 -0.2715 -0.6399
74074SOL    HW140214   0.103   7.231   4.181 -0.0991  0.0477 -0.4372
74074SOL    HW240215   0.094   7.370   4.122 -1.8853 -0.1772 -0.7400
74075SOL     OW40216   9.777   2.706   1.592  0.0382 -0.7412 -0.3909
74075SOL    HW140217   9.867   2.678   1.608  1.2781  1.7548 -2.2585
74075SOL    HW240218   9.767   2.702   1.497 -0.8925  1.4423 -0.4449
74076SOL     OW40219  13.426  11.663   8.699 -0.0067 -0.2865 -0.6895
74076SOL    HW140220  13.438  11.758   8.702 -0.3739 -0.2545  1.0153
74076SOL    HW240221  13.383  11.642   8.783  2.1844 -2.2233  0.0492
74077SOL     OW40222   6.389  10.806  11.402  0.2191 -0.0776 -0.3339
74077SOL    HW140223   6.398  10.710  11.397  1.1553  0.0628 -2.5833
74077SOL    HW240224   6.306  10.824  11.357  0.0977  0.1974 -0.0040
74078SOL     OW40225   0.165  11.492  12.218  0.1414  0.7070  0.1834
74078SOL    HW140226   0.198  11.554  12.283  2.7857 -0.2363 -0.1463
74078SOL    HW240227   0.237  11.481  12.156 -1.1499 -0.8550 -1.1330
74079SOL     OW40228   8.731   8.749   3.517 -0.4633 -0.6726  0.0041
74079SOL    HW140229   8.725   8.722   3.425 -0.2935 -0.7364  0.0122
74079SOL    HW240230   8.813   8.798   3.522 -0.6091 -0.4361  0.0617
74080SOL     OW40231  12.494  10.680  12.417  0.3359  0.1356 -0.3037
74080SOL    HW140232  12.579  10.676  12.372  0.5552 -0.5155  0.1536
74080SOL    HW240233  12.435  10.719  12.353  0.5828 -1.0057 -1.2638
74081SOL     OW40234   4.207  14.149   2.182  0.0153  0.0880 -0.5220
74081SOL    HW140235   4.246  14.232   2.155  3.0036 -1.3562 -1.0990
74081SOL    HW240236   4.256  14.124   2.261  0.1343 -1.7107 -1.1116
74082SOL     OW40237  12.268   5.279   9.885 -0.1644  0.2056 -0.0512
74082SOL    HW140238  12.358   5.303   9.908  0.3710 -0.5339 -1.2844
74082SOL    HW240239  12.221   5.280   9.968  0.9485  0.7379  0.5959
74083SOL     OW40240  13.949   8.020  11.812 -0.9538 -0.2071  0.7089
74083SOL    HW140241  13.979   7.939  11.854 -0.9195  0.2016  1.4858
74083SOL    HW240242  13.961   8.004  11.718 -0.1555 -0.7844  0.9013
74084SOL     OW40243   2.164   8.281  11.067 -0.2333 -0.6309 -0.0141
74084SOL    HW140244   2.190   8.340  11.138 -0.1716 -0.1972 -0.3967
74084SOL    HW240245   2.179   8.193  11.103 -0.3078 -0.4195  0.5507
74085SOL     OW40246  12.130   6.724  10.765  0.0033  0.0956 -0.2368
74085SOL    HW140247  12.063   6.704  10.700  0.6524 -0.0921 -0.8614
74085SOL    HW240248  12.166   6.808  10.738 -0.7935  0.7974  0.7928
74086SOL     OW40249   3.654   4.043   3.776 -0.2350 -0.3484  0.0511
74086SOL    HW140250   3.616   3.979   3.716 -1.9115  0.4805  0.1819
74086SOL    HW240251   3.581   4.099   3.801  1.2528  1.9042 -0.3769
74087SOL     OW40252   7.405   6.644  10.310  0.1793  0.1603  0.0020
74087SOL    HW140253   7.440   6.589  10.380 -1.7228  1.7508  2.4188
74087SOL    HW240254   7.481   6.670  10.259  2.1201  0.8791  2.9988
74088SOL     OW40255   7.435  13.700  11.857 -0.1272 -0.3563 -0.3619
74088SOL    HW140256   7.390  13.784  11.866 -0.7690 -0.7310 -0.0094
74088SOL    HW240257   7.452  13.673  11.947 -0.7698 -1.0480 -0.4379
74089SOL     OW40258  12.206   9.869   1.450  0.3573 -0.4524  0.2496
74089SOL    HW140259  12.286   9.888   1.400 -0.2409 -1.0854 -0.9979
74089SOL    HW240260  12.162   9.953   1.457 -0.2124 -0.5550 -1.5347
74090SOL     OW40261  10.825   4.615  13.400 -0.5891  0.3820 -0.2518
74090SOL    HW140262  10.829   4.703  13.438 -1.4102 -0.6587  2.5206
74090SOL    HW240263  10.876   4.561  13.461 -0.5933 -1.1748 -1.5705
74091SOL     OW40264   0.312  10.585   3.235 -0.5248 -0.3502 -0.2591
74091SOL    HW140265   0.227  10.624   3.218 -2.1508 -2.8391  1.3499
74091SOL    HW240266   0.333  10.536   3.155 -0.6030  0.2698 -0.6600
74092SOL     OW40267   1.178   7.712   3.907 -0.5690  0.7921 -0.0485
74092SOL    HW140268   1.104   7.718   3.968 -0.5558  2.0589 -0.1366
74092SOL    HW240269   1.254   7.739   3.958 -0.0955 -0.7473  0.1125
74093SOL     OW40270  10.524   1.933   3.731 -0.1898 -0.0536 -0.4423
74093SOL    HW140271  10.451   1.887   3.689 -0.9532  0.5776  0.1530
74093SOL    HW240272  10.578   1.966   3.659 -0.7309 -0.1567 -0.8981
74094SOL     OW40273  12.907   5.774   8.297 -0.5543 -0.0712 -0.8892
74094SOL    HW140274  12.886   5.821   8.216  1.2159  2.6006  0.0602
74094SOL    HW240275  12.846   5.808   8.362  0.8042  1.1126 -0.1662
74095SOL     OW40276  12.524  11.081   6.908  0.2694  0.6638 -0.0854
74095SOL    HW140277  12.440  11.119   6.933 -0.2426  1.3274 -2.5681
74095SOL    HW240278  12.585  11.154   6.912  0.2604  0.6885 -0.4426
74096SOL     OW40279   7.863   0.242   6.672  0.3775 -0.1012 -0.2066
74096SOL    HW140280   7.885   0.149   6.659  1.2014 -0.1279  1.1917
74096SOL    HW240281   7.936   0.289   6.631  0.7266 -0.1068  0.3996
74097SOL     OW40282   9.434   6.625  13.611 -0.0910 -0.2693 -0.1615
74097SOL    HW140283   9.489   6.547  13.601  1.0724  0.4534  0.3502
74097SOL    HW240284   9.357   6.595  13.660 -0.1432 -1.2940 -0.8599
74098SOL     OW40285   0.062  13.057   6.359  0.8892 -0.0859 -0.0941
74098SOL    HW140286   0.006  13.133   6.377  0.4795 -0.2671 -0.5886
74098SOL    HW240287   0.043  13.034   6.268  1.1150 -0.6983  0.0078
74099SOL     OW40288   5.743  12.132   4.671 -0.8485  0.3957 -0.4032
74099SOL    HW140289   5.783  12.193   4.610 -0.7834 -1.5969 -2.4553
74099SOL    HW240290   5.674  12.090   4.621 -1.4383 -0.6438  1.2104
74100SOL     OW40291   3.594   4.295  13.678  0.0329  0.1692 -0.1153
74100SOL    HW140292   3.624   4.303  13.588 -1.7161  2.5247 -0.5871
74100SOL    HW240293   3.630   4.372  13.722 -1.4555  0.6076  0.4114
74101SOL     OW40294  12.734   1.740   1.254  0.1738  0.2980  0.1842
74101SOL    HW140295  12.822   1.758   1.221  2.4291 -1.4046  4.6046
74101SOL    HW240296  12.716   1.650   1.228 -1.6744  1.3720 -2.9693
74102SOL     OW40297   9.758   6.448   3.742 -0.8059  0.7212  0.1454
74102SOL    HW140298   9.721   6.514   3.802 -1.8885 -1.4077  1.9688
74102SOL    HW240299   9.694   6.377   3.742  1.1324 -1.1369 -0.2909
74103SOL     OW40300   4.433   2.420  11.100 -0.0417  0.0554  0.0887
74103SOL    HW140301   4.437   2.494  11.160 -0.4016 -0.7363  1.1109
74103SOL    HW240302   4.347   2.380  11.116 -0.4767  0.2568 -1.4929
74104SOL     OW40303  10.014   7.662   4.192  0.2896  0.2766  0.3048
74104SOL    HW140304   9.925   7.676   4.161 -0.6022 -1.5164  1.8388
74104SOL    HW240305  10.043   7.582   4.150 -0.0363 -0.8509  2.1108
74105SOL     OW40306  12.402   7.737   1.169 -0.0551 -0.1457 -0.5288
74105SOL    HW140307  12.427   7.821   1.132 -1.0791 -0.1364 -1.2390
74105SOL    HW240308  12.484   7.688   1.175  0.4190  0.5845 -0.9280
74106SOL     OW40309   9.907   6.390   6.416 -0.1568  0.6839 -0.3027
74106SOL    HW140310   9.985   6.406   6.470  0.1362 -0.8932 -0.2176
74106SOL    HW240311   9.874   6.306   6.446 -0.5393  0.2195 -1.9404
74107SOL     OW40312   1.168  11.977   0.904 -0.0045 -0.0787  0.1748
74107SOL    HW140313   1.136  11.989   0.994 -2.2657  0.5709 -0.6478
74107SOL    HW240314   1.216  11.894   0.907 -0.3938 -0.2913  1.8916
74108SOL     OW40315   6.898  11.419  11.136 -0.7695 -0.3364  0.4232
74108SOL    HW140316   6.861  11.393  11.221 -3.1921 -1.1574 -0.7703
74108SOL    HW240317   6.876  11.512  11.128 -1.5314 -0.5190  0.2669
74109SOL     OW40318   3.811  12.168   6.639 -0.1658 -0.6335 -0.4371
74109SOL    HW140319   3.903  12.177   6.614 -0.1227  1.1051  0.2010
74109SOL    HW240320   3.767  12.136   6.560  0.5949  0.9206 -1.5363
74110SOL     OW40321  13.267   2.804  13.769 -0.2907 -0.0466  0.6049
74110SOL    HW140322  13.293   2.889  13.806  0.4616  0.4979 -1.0901
74110SOL    HW240323  13.287   2.741  13.838  0.2549  1.0171  1.4548
74111SOL     OW40324   2.864   6.937   5.579  0.1475 -0.0048 -0.1125
74111SOL    HW140325   2.943   6.903   5.536  0.2050 -0.6964  0.5067
74111SOL    HW240326   2.860   6.889   5.662  0.3548  1.6729  0.9203
74112SOL     OW40327   6.840   9.962   0.155  0.2355 -0.5790 -0.2323
74112SOL    HW140328   6.794  10.016   0.092  0.0438  0.2656  0.6085
74112SOL    HW240329   6.783   9.961   0.233  0.2547 -1.9521 -0.2013
74113SOL     OW40330   4.148   4.993   8.635 -0.4811 -0.3047  0.5089
74113SOL    HW140331   4.159   4.964   8.726 -0.7295 -0.5163  0.4714
74113SOL    HW240332   4.212   4.942   8.586  0.0214  0.1893  0.6378
74114SOL     OW40333   2.048  13.889   0.232 -0.1062  0.2647  0.0367
74114SOL    HW140334   2.070  13.921   0.144  0.2760  0.7300  0.3033
74114SOL    HW240335   2.132  13.885   0.278 -0.1757 -0.8515  0.1065
74115SOL     OW40336   6.159   4.056   6.735 -0.3717  0.1049 -0.3014
74115SOL    HW140337   6.185   4.076   6.645 -0.7618  0.8418 -0.2529
74115SOL    HW240338   6.137   4.140   6.773  0.8134 -0.0695  0.8258
74116SOL     OW40339  13.037   3.642   4.738 -0.3663  0.0430  0.5641
74116SOL    HW140340  13.000   3.726   4.710  0.3147  0.4191  0.7709
74116SOL    HW240341  13.126   3.663   4.765  0.1327 -0.9304 -0.2986
74117SOL     OW40342   9.712  13.648   4.368 -0.5481 -0.1538  0.3571
74117SOL    HW140343   9.736  13.705   4.295 -1.2928 -0.8453 -0.4456
74117SOL    HW240344   9.759  13.567   4.352 -2.3365 -1.0673 -0.5428
74118SOL     OW40345   6.848  12.052   0.804  0.0815 -0.0473 -0.0627
74118SOL    HW140346   6.835  11.963   0.773 -0.7924 -0.7045  2.0053
74118SOL    HW240347   6.768  12.072   0.852  1.2900  0.8844  1.6614
74119SOL     OW40348   3.473  11.894   4.182  0.4029 -0.1008 -0.5321
74119SOL    HW140349   3.453  11.979   4.144  3.0846  0.9852  0.2679
74119SOL    HW240350   3.501  11.913   4.271  1.0788 -1.8300 -0.3406
74120SOL     OW40351  11.002   5.997   7.028  0.1478 -0.7971 -0.5322
74120SOL    HW140352  10.937   5.960   6.968  1.6681 -4.1639 -0.3526
74120SOL    HW240353  10.953   6.016   7.107 -1.2526  0.3433 -1.6150
74121SOL     OW40354   7.937   8.584  11.535  0.0965  0.2870  0.0971
74121SOL    HW140355   8.023   8.590  11.492  0.1182  0.1354  0.1197
74121SOL    HW240356   7.917   8.675  11.560  0.7789  0.1830  1.1106
74122SOL     OW40357  12.821  12.863   0.849  0.7847 -0.3910 -0.0202
74122SOL    HW140358  12.876  12.824   0.781  0.4159 -0.6404 -0.1825
74122SOL    HW240359  12.814  12.795   0.916  0.9190 -0.2487  0.1368
74123SOL     OW40360   0.203   6.631   0.364  0.2306  0.6022  0.1229
74123SOL    HW140361   0.226   6.606   0.454 -0.6137 -0.0827  0.1539
74123SOL    HW240362   0.281   6.610   0.313 -0.0401 -1.0218  0.3522
74124SOL     OW40363   6.379   8.810   2.144  0.5714  0.0796 -0.0679
74124SOL    HW140364   6.376   8.744   2.213  0.2879  1.2336  1.0640
74124SOL    HW240365   6.306   8.788   2.086 -0.8062  0.5580  1.4168
74125SOL     OW40366   2.925  13.364   3.717 -0.2918  0.8715 -0.4790
74125SOL    HW140367   2.836  13.330   3.731 -0.1001  0.0932 -1.0817
74125SOL    HW240368   2.941  13.351   3.624  1.5728 -1.8654  0.0885
74126SOL     OW40369  12.836   5.678   6.396  0.0014  0.3517 -0.1733
74126SOL    HW140370  12.898   5.692   6.467 -0.8292  0.4359  0.5654
74126SOL    HW240371  12.808   5.587   6.406 -2.3537  1.1596  1.5299
74127SOL     OW40372  12.143   3.721   4.600 -0.0182  0.1355 -0.0902
74127SOL    HW140373  12.220   3.710   4.655 -0.3616 -2.1370  0.0189
74127SOL    HW240374  12.177   3.739   4.513  0.5350  2.9324  0.5975
74128SOL     OW40375   1.913   2.463   9.633  0.0438  0.5810 -0.2092
74128SOL    HW140376   1.972   2.487   9.562 -0.6424  2.0098 -0.3308
74128SOL    HW240377   1.895   2.546   9.678  1.8898 -0.4676  2.8016
74129SOL     OW40378  11.330   1.352   5.939 -0.5857 -0.1365  0.3234
74129SOL    HW140379  11.263   1.400   5.987 -0.7874  1.7046 -1.6352
74129SOL    HW240380  11.327   1.263   5.976 -3.6124  0.0348  0.7790
74130SOL     OW40381   3.136   8.736   2.068 -0.2827  0.1048 -0.3332
74130SOL    HW140382   3.131   8.812   2.125  0.7820 -0.2035  0.2007
74130SOL    HW240383   3.146   8.772   1.980  2.6403  0.6562  0.1264
74131SOL     OW40384   4.047   5.879   7.060  0.6022 -0.5018  0.0038
74131SOL    HW140385   4.040   5.893   7.155 -0.0762  2.0843 -0.3670
74131SOL    HW240386   3.959   5.898   7.026  1.1319 -0.2510 -1.2779
74132SOL     OW40387   5.587   3.352   7.713 -1.1174  0.3446  0.4434
74132SOL    HW140388   5.673   3.331   7.750 -1.1204  0.2767  0.4114
74132SOL    HW240389   5.599   3.439   7.673 -0.5908 -0.3915 -1.0611
74133SOL     OW40390   8.996   8.512   2.225  0.1540  0.2830  0.3121
74133SOL    HW140391   9.034   8.447   2.166  1.0970 -0.5457  1.7675
74133SOL    HW240392   9.004   8.473   2.312  2.2163  2.9568  1.4777
74134SOL     OW40393   1.871   8.937   9.080 -0.4153 -0.0722  0.3377
74134SOL    HW140394   1.883   8.861   9.137  1.7646  0.3373  0.5261
74134SOL    HW240395   1.942   8.997   9.105 -1.8753  1.9036 -0.0210
74135SOL     OW40396   6.834  11.482   5.958  0.3172 -0.0958 -0.4793
74135SOL    HW140397   6.921  11.506   5.927 -0.1061  1.9490 -0.2368
74135SOL    HW240398   6.775  11.544   5.915 -0.8409 -0.4664  0.5064
74136SOL     OW40399   0.222   6.388  12.404 -0.4164  0.3131 -0.5084
74136SOL    HW140400   0.222   6.400  12.499 -0.0710  1.0119 -0.5862
74136SOL    HW240401   0.314   6.400  12.379 -0.3474 -0.7970 -0.8313
74137SOL     OW40402   2.859   1.514  12.537 -0.0958 -0.5954 -0.1533
74137SOL    HW140403   2.900   1.483  12.618  0.0064 -1.1173 -0.4001
74137SOL    HW240404   2.798   1.582  12.566 -1.1245 -1.7612  0.5404
74138SOL     OW40405   8.738   6.911   4.106  0.4545  0.2602 -0.5807
74138SOL    HW140406   8.756   6.917   4.200  1.3705  0.5189 -0.7570
74138SOL    HW240407   8.695   6.827   4.095 -1.2009  0.9416  0.2905
74139SOL     OW40408   1.471  12.369   5.128  0.1142  0.3304  0.2210
74139SOL    HW140409   1.449  12.454   5.090 -0.3573  0.6187  1.1132
74139SOL    HW240410   1.550  12.386   5.180 -0.9704  0.6489  1.8337
74140SOL     OW40411  13.092   2.601   8.415  0.3195 -0.3787 -0.6204
74140SOL    HW140412  13.033   2.552   8.358  0.2162 -0.6532 -0.2844
74140SOL    HW240413  13.154   2.535   8.447 -0.9715 -0.7074  1.3631
74141SOL     OW40414   4.196  13.161   6.328 -0.5635 -0.0175 -0.7554
74141SOL    HW140415   4.107  13.182   6.301 -0.2404 -0.4587 -2.2656
74141SOL    HW240416   4.237  13.126   6.249  1.0083  0.3653 -0.1440
74142SOL     OW40417  13.385   9.666   5.744  0.4100  0.2425  0.2336
74142SOL    HW140418  13.475   9.635   5.734  0.4374  0.5905 -0.6512
74142SOL    HW240419  13.379   9.692   5.836  0.8449 -0.9119  0.6171
74143SOL     OW40420  12.644   2.168  11.885  0.4330 -0.0966 -0.7584
74143SOL    HW140421  12.595   2.091  11.916 -2.6698  1.9834 -0.0650
74143SOL    HW240422  12.714   2.179  11.949 -1.2727 -0.3316  1.2653
74144SOL     OW40423   1.129  14.018   9.447 -0.2562 -0.1729 -0.4399
74144SOL    HW140424   1.181  14.084   9.492  1.0720 -0.7528 -1.0864
74144SOL    HW240425   1.153  14.027   9.354 -0.5720 -1.1163 -0.6228
74145SOL     OW40426   2.752   3.389  11.968  0.4146 -0.0786  0.3246
74145SOL    HW140427   2.769   3.400  12.062  0.2122 -0.5018  0.4146
74145SOL    HW240428   2.775   3.298  11.950 -2.5282 -0.9672  0.6404
74146SOL     OW40429  11.027   8.546   1.139 -0.0405 -0.5398  0.5032
74146SOL    HW140430  10.967   8.620   1.146  1.6560  0.6997  3.1198
74146SOL    HW240431  11.024   8.504   1.225  2.1316 -0.9708  0.4141
74147SOL     OW40432   4.152   5.554   4.110  0.0451 -0.5128 -0.0014
74147SOL    HW140433   4.226   5.518   4.061  0.4559 -0.0058  0.2381
74147SOL    HW240434   4.171   5.648   4.117 -0.6771 -0.3603 -0.0379
74148SOL     OW40435  10.738  10.139  10.914 -0.6883 -0.5676  0.3291
74148SOL    HW140436  10.823  10.185  10.918 -1.1423  0.2911  0.3286
74148SOL    HW240437  10.746  10.082  10.838 -0.4353  0.1975 -0.2376
74149SOL     OW40438  10.664   1.752  14.085 -0.0190  0.5246 -0.4534
74149SOL    HW140439  10.655   1.784  14.174 -2.5309  0.6241 -0.6781
74149SOL    HW240440  10.576   1.760  14.047  0.7084 -0.5995 -2.5655
74150SOL     OW40441   9.761   6.802  11.704 -0.3817 -0.2237 -0.0907
74150SOL    HW140442   9.680   6.802  11.654  0.0562 -2.0737 -0.8682
74150SOL    HW240443   9.802   6.887  11.684 -1.6542  0.3308 -0.4154
74151SOL     OW40444   7.341   9.249  11.792  0.1369  0.1020 -0.5302
74151SOL    HW140445   7.401   9.323  11.788  0.6353 -0.2549  0.1888
74151SOL    HW240446   7.380   9.183  11.734  1.6118 -0.9449  1.5404
74152SOL     OW40447  13.041   5.090  11.702 -0.3099  0.5351  0.2874
74152SOL    HW140448  13.101   5.042  11.645 -0.0232  0.2104  0.8488
74152SOL    HW240449  12.998   5.153  11.644  0.2617  0.4829 -0.2025
74153SOL     OW40450   8.042  10.258  11.007  0.1846 -0.5267 -0.2408
74153SOL    HW140451   8.076  10.298  11.087 -1.2391 -2.0265  1.1949
74153SOL    HW240452   8.091  10.300  10.936  2.0459  0.3129  1.4444
74154SOL     OW40453   3.665   6.491  11.272 -0.5784  0.2188  0.3247
74154SOL    HW140454   3.627   6.503  11.184  0.8232  0.1554 -0.3080
74154SOL    HW240455   3.759   6.494  11.258 -0.2915 -1.4710  1.5995
74155SOL     OW40456  11.755   7.766   8.406  0.8557 -0.1504  0.6597
74155SOL    HW140457  11.692   7.838   8.404 -0.0025 -0.8742  1.2150
74155SOL    HW240458  11.822   7.791   8.342 -0.7059 -0.0248 -0.9986
74156SOL     OW40459  10.821  12.088  13.869  0.1112 -0.5531  0.4406
74156SOL    HW140460  10.835  12.090  13.964  2.6506  0.3454  0.1139
74156SOL    HW240461  10.827  11.995  13.846  1.9301 -0.5930  0.9073
74157SOL     OW40462   0.664   0.100   1.464 -0.2808 -0.6431  0.7191
74157SOL    HW140463   0.752   0.134   1.452 -0.1546 -1.5575 -1.4891
74157SOL    HW240464   0.609   0.178   1.475  0.5486  0.0326  0.1531
74158SOL     OW40465   0.354   8.275  10.585  0.3730 -0.4176  0.1390
74158SOL    HW140466   0.387   8.187  10.599  0.6609 -0.1525  1.2230
74158SOL    HW240467   0.319   8.302  10.670 -0.1071  0.3545 -0.2816
74159SOL     OW40468   1.931   1.485   1.260  0.0676 -0.0602 -0.4146
74159SOL    HW140469   1.954   1.445   1.176 -0.2990  0.7440 -0.9082
74159SOL    HW240470   1.837   1.501   1.254  0.1015  0.3120  0.0125
74160SOL     OW40471   1.647  10.911  11.089  0.5592 -0.5316  0.0083
74160SOL    HW140472   1.564  10.867  11.107 -0.1584  0.6344 -0.3242
74160SOL    HW240473   1.710  10.840  11.074 -0.2104 -1.4383  0.9638
74161SOL     OW40474  13.392   7.743  14.070  0.6536  0.2325  0.2801
74161SOL    HW140475  13.336   7.676  14.109 -0.1373  0.0966 -1.0323
74161SOL    HW240476  13.356   7.826  14.103 -0.1155  0.1276 -0.2544
74162SOL     OW40477   4.232  12.098  13.223  0.1180  0.1188  0.2175
74162SOL    HW140478   4.260  12.187  13.204 -0.7165  1.0668  3.0236
74162SOL    HW240479   4.198  12.065  13.140 -0.6412  2.8227 -0.6246
74163SOL     OW40480   4.454   3.486  10.531  0.0402 -0.3055 -0.1581
74163SOL    HW140481   4.540   3.527  10.526 -0.3790  0.4044 -3.0519
74163SOL    HW240482   4.394   3.556  10.555  0.1979 -0.8442  2.0846
74164SOL     OW40483   8.308  12.029   9.876 -0.0327  0.7291 -0.4785
74164SOL    HW140484   8.213  12.022   9.886  0.1884 -0.9330  0.8260
74164SOL    HW240485   8.326  12.122   9.893 -1.1505  0.5614  2.2931
74165SOL     OW40486   2.438   9.555  10.591  0.0657  0.0550  0.3292
74165SOL    HW140487   2.448   9.485  10.655 -0.4066 -0.3803 -0.0751
74165SOL    HW240488   2.387   9.622  10.636 -0.3765 -0.3055  0.3700
74166SOL     OW40489  12.988   4.130   7.314  0.4261 -0.2090  0.0471
74166SOL    HW140490  13.028   4.058   7.266 -0.0703  0.6665 -1.7714
74166SOL    HW240491  13.062   4.179   7.348  0.8423 -0.3228 -0.6624
74167SOL     OW40492   3.084   9.303   3.580  0.0813  0.1409  0.0241
74167SOL    HW140493   3.112   9.216   3.608  1.0683  0.5222  0.2905
74167SOL    HW240494   3.017   9.328   3.644 -0.1277 -0.3731  0.0099
74168SOL     OW40495   4.662   5.068   3.047 -0.2371  0.0348  0.4033
74168SOL    HW140496   4.756   5.046   3.043 -0.1221  0.6503 -2.3348
74168SOL    HW240497   4.659   5.156   3.084  0.2419 -0.0235  0.5921
74169SOL     OW40498   6.657   7.396  13.549  0.0452 -0.2823 -0.4417
74169SOL    HW140499   6.603   7.327  13.509  0.6094 -1.0160  0.0382
74169SOL    HW240500   6.598   7.437  13.614 -0.2437 -0.4246 -0.6098
74170SOL     OW40501   9.537   1.443   9.044  0.3997 -0.1368  0.3691
74170SOL    HW140502   9.540   1.348   9.040 -0.8779 -0.2429  1.1677
74170SOL    HW240503   9.626   1.470   9.066  0.5121 -1.2281  1.3254
74171SOL     OW40504   8.979   9.712   3.011  0.0113  0.0676 -0.5915
74171SOL    HW140505   8.963   9.700   2.917  2.3500  0.2206 -1.0669
74171SOL    HW240506   9.074   9.703   3.021 -0.1555  0.2267  1.7483
74172SOL     OW40507   4.139   4.087   9.852  0.1079 -0.4473  0.3562
74172SOL    HW140508   4.172   4.008   9.895 -0.9586 -0.9031  0.3723
74172SOL    HW240509   4.187   4.159   9.893  1.9137 -1.1373 -0.4464
74173SOL     OW40510   4.516  10.167   1.058  0.2985  0.5234  0.1889
74173SOL    HW140511   4.450  10.163   1.127  0.6319 -1.2764  0.4300
74173SOL    HW240512   4.597  10.138   1.100  0.6680  0.1325 -0.7730
74174SOL     OW40513  12.997  13.176   6.618  0.7035 -0.5493 -0.9603
74174SOL    HW140514  12.981  13.261   6.659  0.0334 -1.9047  1.8250
74174SOL    HW240515  13.084  13.151   6.647 -0.2338 -2.0471  0.7653
74175SOL     OW40516   1.248   4.048   5.440  0.5108  0.6571 -0.0775
74175SOL    HW140517   1.170   4.021   5.392  0.6814  2.0794 -1.2293
74175SOL    HW240518   1.306   3.972   5.437 -0.7044 -0.3444  0.6127
74176SOL     OW40519   4.642   0.123   2.331 -0.4770  0.4384  0.2838
74176SOL    HW140520   4.591   0.145   2.253 -1.1793 -0.7999  0.3773
74176SOL    HW240521   4.651   0.028   2.328  0.3009  0.4707  1.2189
74177SOL     OW40522   8.408   4.259   6.894  0.3556 -0.0450  0.0033
74177SOL    HW140523   8.332   4.254   6.837 -0.1910 -0.0606  0.7138
74177SOL    HW240524   8.373   4.243   6.982  0.8241  1.9608  0.6076
74178SOL     OW40525  12.789   5.583  11.364 -0.2805 -0.0406 -0.4772
74178SOL    HW140526  12.794   5.649  11.295 -0.5523  0.0858 -0.3763
74178SOL    HW240527  12.712   5.607  11.416  0.2566  0.2126  0.2292
74179SOL     OW40528   1.552   1.358   0.499 -0.2772  0.1870 -0.6786
74179SOL    HW140529   1.569   1.383   0.408 -0.9033 -1.6918 -1.3402
74179SOL    HW240530   1.457   1.345   0.504 -0.0951 -1.1389 -0.1647
74180SOL     OW40531  12.216   2.085   7.991 -0.1980 -0.0379 -1.2441
74180SOL    HW140532  12.275   2.051   8.058  0.3685 -0.6489 -2.0223
74180SOL    HW240533  12.275   2.123   7.925 -0.7529  0.8394 -1.2424
74181SOL     OW40534   7.861   6.771   7.073  0.4988 -0.0064 -0.1311
74181SOL    HW140535   7.787   6.769   7.135  0.6632 -0.3383  0.0543
74181SOL    HW240536   7.889   6.862   7.074  2.1393 -0.4304  2.2439
74182SOL     OW40537   4.455  13.484   4.900  0.3832 -0.0821  0.2093
74182SOL    HW140538   4.516  13.529   4.841  2.3887  0.7337  2.7075
74182SOL    HW240539   4.488  13.394   4.903  0.2923 -0.1198  0.0874
74183SOL     OW40540  11.497   9.916   5.874 -0.6604  0.0667  0.0961
74183SOL    HW140541  11.478   9.912   5.781 -0.4347 -0.0701  0.0537
74183SOL    HW240542  11.543   9.834   5.893 -1.5861 -0.3707  0.5367
74184SOL     OW40543   1.123   6.160   6.321  0.5929 -0.1364 -0.1165
74184SOL    HW140544   1.050   6.222   6.324  1.1234  0.4778  0.2447
74184SOL    HW240545   1.112   6.107   6.400 -0.4677 -1.2251 -0.9565
74185SOL     OW40546   9.262  11.197  12.546  0.1721 -0.4180  0.3715
74185SOL    HW140547   9.321  11.126  12.571 -1.4727 -1.2747  1.9629
74185SOL    HW240548   9.191  11.194  12.609  0.9303  3.8483  1.7671
74186SOL     OW40549   3.087   7.264   9.479 -0.3173  0.4637 -0.1805
74186SOL    HW140550   3.029   7.326   9.433  0.6978 -0.1124 -2.3397
74186SOL    HW240551   3.175   7.295   9.460  0.1503  0.2022  1.4545
74187SOL     OW40552   0.633  11.654  12.133  0.2436  0.0818 -0.1010
74187SOL    HW140553   0.594  11.739  12.113  1.6747  1.4433  2.4573
74187SOL    HW240554   0.711  11.650  12.079  0.8111  0.9774  0.6211
74188SOL     OW40555  12.348   2.133   7.274 -0.4443  0.0271 -0.1113
74188SOL    HW140556  12.365   2.092   7.358  1.5842  0.9672  0.0064
74188SOL    HW240557  12.319   2.062   7.217 -0.2910 -0.9108  0.9576
74189SOL     OW40558  13.912  10.025   4.860 -0.0643 -0.2884  0.0305
74189SOL    HW140559  13.958  10.094   4.908 -1.9320  1.0713 -0.0232
74189SOL    HW240560  13.917   9.949   4.918  0.9028  0.2643  0.6966
74190SOL     OW40561   1.858  13.752   6.699 -0.0615  0.0905 -0.0585
74190SOL    HW140562   1.780  13.793   6.662 -0.9611 -2.4826 -1.2802
74190SOL    HW240563   1.857  13.663   6.664  1.7622 -0.9956  2.3362
74191SOL     OW40564  13.341   4.414  11.504 -0.4249  0.0526  0.6912
74191SOL    HW140565  13.412   4.414  11.440 -0.6359 -0.1745  0.4547
74191SOL    HW240566  13.385   4.412  11.589 -0.1459  0.2362  0.5508
74192SOL     OW40567   4.356   0.835   1.694 -0.1558  0.1522  0.1958
74192SOL    HW140568   4.281   0.802   1.744 -0.2534  3.0449  2.1486
74192SOL    HW240569   4.319   0.898   1.633  0.4985  0.2937 -0.0674
74193SOL     OW40570   6.984  12.189   1.000  0.6930 -0.4580  0.1643
74193SOL    HW140571   6.968  12.112   0.946 -0.1473  0.3045 -0.7022
74193SOL    HW240572   6.911  12.247   0.982 -0.7031 -0.9231  3.5789
74194SOL     OW40573   8.490  10.664   7.420  0.1759  0.2396  0.2384
74194SOL    HW140574   8.580  10.632   7.431  0.1554 -0.2720 -0.9424
74194SOL    HW240575   8.439  10.612   7.481  0.5757  0.0713  0.4373
74195SOL     OW40576   9.036   6.715   1.772 -0.1126 -0.8767  0.1121
74195SOL    HW140577   8.997   6.750   1.853 -0.9159 -1.3583 -0.0569
74195SOL    HW240578   9.117   6.765   1.761 -0.0846 -0.6794  1.1182
74196SOL     OW40579   3.635   5.838  10.084  0.4609  0.1184  0.2491
74196SOL    HW140580   3.693   5.786  10.140  0.2224 -1.9632 -1.3212
74196SOL    HW240581   3.559   5.782  10.069  0.0616  1.0219 -1.3147
74197SOL     OW40582   3.942   6.871   7.338 -0.3765 -0.7175 -0.7506
74197SOL    HW140583   3.953   6.789   7.291 -3.2935 -0.3572 -2.3046
74197SOL    HW240584   3.912   6.845   7.426 -2.1443 -1.3610 -1.5061
74198SOL     OW40585   9.463  10.959   1.472  0.4067 -0.3085  0.1149
74198SOL    HW140586   9.437  10.973   1.381 -2.0147 -1.1424  0.6049
74198SOL    HW240587   9.468  10.864   1.482  0.3129 -0.2395  0.9201
74199SOL     OW40588  12.143   3.746  10.154 -0.4890 -0.1108  0.0963
74199SOL    HW140589  12.225   3.792  10.168  0.6459 -1.5469 -1.4334
74199SOL    HW240590  12.079   3.792  10.209  1.6079  0.1857  2.4520
74200SOL     OW40591  10.609  14.062   1.286 -0.0027 -0.0273 -0.2122
74200SOL    HW140592  10.571  14.018   1.363  1.0444 -0.4921  0.0570
74200SOL    HW240593  10.541  14.123   1.258 -0.8075 -0.5801  0.4664
74201SOL     OW40594   3.895   8.660   3.955  0.4261 -0.1000 -0.2204
74201SOL    HW140595   3.911   8.627   4.043  0.8238 -0.2961 -0.3616
74201SOL    HW240596   3.884   8.754   3.965 -1.0666 -0.3010  0.2346
74202SOL     OW40597   7.336   4.013   0.761  0.4591  0.0270 -0.6995
74202SOL    HW140598   7.377   3.979   0.840  0.4975  1.8290  0.1213
74202SOL    HW240599   7.273   3.946   0.735  1.3306 -1.1470  0.1390
74203SOL     OW40600   6.193  11.561  11.241  0.0560  0.0836 -0.2158
74203SOL    HW140601   6.253  11.517  11.302  0.7407 -0.6785 -1.3932
74203SOL    HW240602   6.106  11.544  11.277  0.4812  0.5308  1.0953
74204SOL     OW40603   0.392   1.375  12.605 -0.5035  0.5511  0.0871
74204SOL    HW140604   0.469   1.433  12.597 -0.0053  0.1031  1.4469
74204SOL    HW240605   0.420   1.293  12.564 -0.5071  0.6063 -0.0284
74205SOL     OW40606  13.143   5.232  11.903 -0.2312 -0.1476  0.4107
74205SOL    HW140607  13.062   5.266  11.943 -0.1764 -1.6669  1.9321
74205SOL    HW240608  13.112   5.178  11.830 -0.6438 -1.0177  1.2085
74206SOL     OW40609   1.990   6.655   1.370  0.5159  0.2066  0.5742
74206SOL    HW140610   1.917   6.696   1.324  1.2262  1.9431  0.8710
74206SOL    HW240611   1.966   6.660   1.462 -0.6289 -2.7000  0.5126
74207SOL     OW40612  11.641   7.536   6.237 -0.4824  0.4630  0.4662
74207SOL    HW140613  11.570   7.474   6.251  0.0886 -0.7045 -1.5179
74207SOL    HW240614  11.714   7.502   6.288 -0.3210 -0.2705 -0.2316
74208SOL     OW40615   0.500   0.057   3.053  0.0893  0.1575  0.3148
74208SOL    HW140616   0.466   0.053   2.964  0.9758 -1.2045  0.0176
74208SOL    HW240617   0.581   0.107   3.046 -0.3953  1.0148  0.5719
74209SOL     OW40618   7.814  11.133   9.538  0.4623 -0.1178 -0.2627
74209SOL    HW140619   7.884  11.189   9.504  0.3841  0.9476  1.2098
74209SOL    HW240620   7.837  11.045   9.508  0.8968  0.6015 -2.1660
74210SOL     OW40621   8.175  11.990   8.914 -0.2943  0.3660  0.5987
74210SOL    HW140622   8.217  12.067   8.952 -1.3305  1.0919  0.3026
74210SOL    HW240623   8.115  12.025   8.849 -0.0097 -0.7634 -0.2927
74211SOL     OW40624   9.407  11.859  10.714  0.4765  0.0425  0.2337
74211SOL    HW140625   9.426  11.800  10.641  0.5235  0.4215 -0.0630
74211SOL    HW240626   9.491  11.897  10.737  0.5898 -0.6424  0.9881
74212SOL     OW40627   4.229   0.625   9.633  0.1159  0.3239  0.5042
74212SOL    HW140628   4.304   0.654   9.686 -0.4711  1.3850  0.7841
74212SOL    HW240629   4.153   0.651   9.684 -0.4865  1.8769 -1.0908
74213SOL     OW40630   5.473   5.897   3.062  0.3845  0.4779 -0.2155
74213SOL    HW140631   5.523   5.816   3.051 -0.5268 -0.0918 -0.2342
74213SOL    HW240632   5.390   5.869   3.100 -0.7494  1.1569 -2.0850
74214SOL     OW40633   6.475   7.629   5.453  0.4446  0.1462  0.0588
74214SOL    HW140634   6.460   7.720   5.428  0.1630  0.1803  0.3310
74214SOL    HW240635   6.493   7.583   5.371 -0.1715  0.3058 -0.1703
74215SOL     OW40636   5.844   6.865   0.361 -0.8707 -0.1306 -0.1151
74215SOL    HW140637   5.907   6.793   0.367  1.1227  1.6559  2.2172
74215SOL    HW240638   5.759   6.821   0.356  0.2816 -2.6582  0.6158
74216SOL     OW40639   7.074   3.101   0.571 -0.3472 -0.0081  0.0026
74216SOL    HW140640   7.108   3.012   0.563  0.9546  0.4608  0.0357
74216SOL    HW240641   7.079   3.120   0.664 -2.0306 -0.3933  0.2159
74217SOL     OW40642   0.075   3.272   8.243  0.3756  0.2210 -0.3029
74217SOL    HW140643   0.024   3.199   8.209  2.6739 -1.2510 -0.8298
74217SOL    HW240644   0.082   3.255   8.337 -1.9292  1.6799  0.1990
74218SOL     OW40645   4.951   2.061   3.311 -0.2539  0.7650 -0.0518
74218SOL    HW140646   4.877   2.118   3.287  1.3156  2.5405 -0.9027
74218SOL    HW240647   5.010   2.117   3.360  1.4007 -0.0901 -0.9835
74219SOL     OW40648   9.349   1.325  13.731  0.2400  0.1405 -0.2338
74219SOL    HW140649   9.330   1.306  13.823 -1.9452  2.8276  0.0039
74219SOL    HW240650   9.330   1.418  13.721  2.1705  0.3758 -3.0429
74220SOL     OW40651  11.479   2.793  12.770 -0.3736 -0.6939 -0.1657
74220SOL    HW140652  11.421   2.764  12.840 -0.1327 -1.4249 -0.2603
74220SOL    HW240653  11.423   2.803  12.693 -1.7410  5.0237  1.1460
74221SOL     OW40654   3.547   9.614   0.901  0.4189 -0.1911  0.3811
74221SOL    HW140655   3.571   9.622   0.809 -1.7495 -1.3215 -0.3529
74221SOL    HW240656   3.453   9.632   0.903  0.2058 -1.2836  2.2016
74222SOL     OW40657  12.108   1.809   1.192  1.1334 -0.1120 -0.0386
74222SOL    HW140658  12.069   1.742   1.247  2.2443  0.1801  1.1626
74222SOL    HW240659  12.137   1.876   1.253  2.0197  0.4355 -1.0223
74223SOL     OW40660  13.005   0.569   5.196  0.1647  0.2061 -0.1482
74223SOL    HW140661  12.993   0.523   5.280  0.9497 -0.5187 -0.4216
74223SOL    HW240662  12.934   0.632   5.194 -0.6506 -0.6550  0.4738
74224SOL     OW40663   6.914   1.924   0.246  0.4935  0.2425 -0.0242
74224SOL    HW140664   6.972   1.848   0.243 -0.6072 -0.6163 -1.0361
74224SOL    HW240665   6.829   1.889   0.219 -0.2081  1.7007  0.2116
74225SOL     OW40666   1.102   9.297   8.830  1.1749 -0.0016  0.0577
74225SOL    HW140667   1.189   9.300   8.871  1.2930 -0.4524 -0.1461
74225SOL    HW240668   1.083   9.203   8.824  0.1318  0.1121  1.2164
74226SOL     OW40669   7.603  13.891   3.433  0.1514 -0.8240  0.7041
74226SOL    HW140670   7.561  13.882   3.348  1.2752 -0.0234  0.0473
74226SOL    HW240671   7.645  13.977   3.431  0.6717 -1.0228  1.8571
74227SOL     OW40672   9.312   6.165   6.849 -0.4942 -0.5301 -0.0595
74227SOL    HW140673   9.378   6.096   6.840  1.8818  1.3498  1.5960
74227SOL    HW240674   9.297   6.196   6.760 -0.4702 -2.1380 -0.6562
74228SOL     OW40675  11.995   7.624   6.783  0.0976 -0.7263 -0.1829
74228SOL    HW140676  12.000   7.713   6.750  0.1319 -1.2243 -1.5690
74228SOL    HW240677  12.083   7.605   6.816 -0.5208  0.6037  2.5549
74229SOL     OW40678   7.796  10.017   3.776 -0.0807  0.4152 -0.3246
74229SOL    HW140679   7.778  10.091   3.833  0.4455 -0.6196  1.2668
74229SOL    HW240680   7.888   9.995   3.793 -0.6007 -1.4755  0.3507
74230SOL     OW40681   7.085  13.210   0.386 -0.4881  0.0682  0.2127
74230SOL    HW140682   7.095  13.126   0.432 -1.6122  0.0745  0.4858
74230SOL    HW240683   7.166  13.219   0.336  0.1348 -0.6346  1.0667
74231SOL     OW40684  13.651  10.261   0.752 -0.0187  0.3849  0.4401
74231SOL    HW140685  13.709  10.337   0.756  0.3485  0.0948  0.7080
74231SOL    HW240686  13.694  10.202   0.689 -1.0792  1.0426 -0.9467
74232SOL     OW40687   6.057   7.583   9.945  0.2891 -0.1952 -0.3232
74232SOL    HW140688   6.089   7.571   9.855 -1.8247  0.5085 -1.2494
74232SOL    HW240689   6.088   7.671   9.969  1.1428 -0.5169 -0.2291
74233SOL     OW40690   6.524   6.306   7.520 -0.1792 -0.9547 -0.0512
74233SOL    HW140691   6.497   6.388   7.480 -0.7236  0.8702  3.5713
74233SOL    HW240692   6.620   6.307   7.515 -0.0751  0.8117  1.3398
74234SOL     OW40693  10.081   4.671  10.095 -0.1715 -0.1569 -0.0508
74234SOL    HW140694   9.987   4.659  10.098 -0.3466  1.2033  1.6066
74234SOL    HW240695  10.108   4.634  10.011 -2.5101  1.7054 -1.7584
74235SOL     OW40696   6.314   9.274  13.134  0.0292 -0.2552  0.2074
74235SOL    HW140697   6.224   9.305  13.129 -0.5584 -1.8672  0.0331
74235SOL    HW240698   6.309   9.194  13.187  1.7053  0.7709  2.0607
74236SOL     OW40699   7.758   8.959   1.547  0.0272 -0.7048  0.5260
74236SOL    HW140700   7.763   8.919   1.634  0.5082 -3.3964 -0.6258
74236SOL    HW240701   7.847   8.987   1.528  0.0224 -0.5666  0.7084
74237SOL     OW40702   8.017  11.761  12.655  0.1497 -0.1625 -0.2214
74237SOL    HW140703   7.923  11.778  12.659  0.3839  1.7618 -1.3879
74237SOL    HW240704   8.032  11.729  12.566  0.7826  1.2843 -0.6766
74238SOL     OW40705   0.558   6.519   0.238  0.4939 -0.2379  0.3732
74238SOL    HW140706   0.536   6.528   0.331  1.5076 -3.1330  1.0015
74238SOL    HW240707   0.649   6.488   0.237  0.9211  0.9071 -1.6619
74239SOL     OW40708   3.390   3.531  10.207 -0.8918  0.3907 -0.2631
74239SOL    HW140709   3.483   3.548  10.213  0.2295 -4.2781 -0.6542
74239SOL    HW240710   3.358   3.535  10.297  1.0850 -3.3472  0.8085
74240SOL     OW40711   5.656   9.821   5.430  0.0911 -0.0770  0.1986
74240SOL    HW140712   5.628   9.735   5.459 -1.1460  0.3134  0.2222
74240SOL    HW240713   5.636   9.822   5.336  2.5583 -0.7475 -0.4078
74241SOL     OW40714   1.113   0.028   3.750  0.4054  0.3672 -0.1888
74241SOL    HW140715   1.019   0.016   3.741  0.5463  0.2108 -1.7053
74241SOL    HW240716   1.136   0.093   3.683  1.4893 -0.1926 -0.3862
74242SOL     OW40717   0.208   9.591  13.093  0.5486  0.2306 -0.0269
74242SOL    HW140718   0.229   9.569  13.002 -0.0410  0.7448 -0.2952
74242SOL    HW240719   0.289   9.628  13.128  0.3301  1.5066 -0.8271
74243SOL     OW40720   1.804   7.803   6.330 -0.7370  0.2173 -0.3056
74243SOL    HW140721   1.870   7.838   6.270  0.7172 -1.8056 -0.0017
74243SOL    HW240722   1.769   7.880   6.375  0.7207  1.4533 -1.1891
74244SOL     OW40723   1.541   8.301  11.768  0.4313 -0.4633 -0.5775
74244SOL    HW140724   1.603   8.374  11.772  1.3106 -1.2679  1.6602
74244SOL    HW240725   1.595   8.224  11.753 -0.0834 -1.0799  0.6008
74245SOL     OW40726  10.012   2.618   2.409 -0.1425  0.7347  0.3496
74245SOL    HW140727  10.039   2.706   2.384 -1.1591  1.0508  0.2986
74245SOL    HW240728   9.939   2.598   2.350  1.3456 -0.9515 -1.0156
74246SOL     OW40729   1.312   0.387   7.923  0.4634 -0.5393 -0.2172
74246SOL    HW140730   1.228   0.412   7.961  1.2830  0.9556  0.6676
74246SOL    HW240731   1.361   0.469   7.915  2.1201 -1.4590 -0.0240
74247SOL     OW40732   0.450   3.264   4.766 -0.5254 -0.5143 -0.0282
74247SOL    HW140733   0.450   3.354   4.733  0.3833 -0.1423  0.9193
74247SOL    HW240734   0.432   3.210   4.689  2.9472  0.2058 -1.5815
74248SOL     OW40735   2.910   9.420  11.632 -0.2370  0.8142 -0.6186
74248SOL    HW140736   2.836   9.462  11.676 -0.5565 -0.2916 -0.0511
74248SOL    HW240737   2.984   9.480  11.647 -0.6815  1.1887  0.1416
74249SOL     OW40738   7.442   1.338   8.028 -0.0826  0.5947 -0.6333
74249SOL    HW140739   7.398   1.301   8.105  0.3338  1.9528  0.3051
74249SOL    HW240740   7.526   1.371   8.062  0.6771  0.0933 -1.9362
74250SOL     OW40741   4.888   6.278  11.968  0.5334  0.2484  0.1210
74250SOL    HW140742   4.909   6.254  11.878  1.7010  0.7045  0.2627
74250SOL    HW240743   4.909   6.200  12.020 -0.1342 -0.0125  0.0201
74251SOL     OW40744   6.677   6.372   2.689 -0.8160  0.7444 -0.2718
74251SOL    HW140745   6.596   6.352   2.736 -1.2229  0.6337 -1.0107
74251SOL    HW240746   6.729   6.292   2.695 -0.5585  0.9611  0.5889
74252SOL     OW40747   6.321   4.690   6.270 -0.5634  0.0615 -0.1244
74252SOL    HW140748   6.315   4.785   6.257  0.3143  0.3412  1.2746
74252SOL    HW240749   6.317   4.679   6.365 -3.0659 -1.5239 -0.3162
74253SOL     OW40750  12.585  11.226  11.702  0.1296 -0.3759  0.1170
74253SOL    HW140751  12.656  11.191  11.756  0.6059 -0.6592 -0.6930
74253SOL    HW240752  12.505  11.193  11.744  0.3397  1.3994  2.1140
74254SOL     OW40753   8.957   6.887   4.945 -0.6210  0.0785  0.0674
74254SOL    HW140754   9.014   6.917   4.874  1.1064 -1.7045  0.6356
74254SOL    HW240755   8.925   6.802   4.916 -0.7664 -0.1784  0.9598
74255SOL     OW40756   2.182   6.604   8.859  0.1558 -0.0413 -0.1441
74255SOL    HW140757   2.156   6.574   8.772 -0.0833  0.8809 -0.4023
74255SOL    HW240758   2.251   6.667   8.842  0.8498 -0.6377  0.4073
74256SOL     OW40759   1.689   6.598   1.890  0.3570 -0.3824  0.7437
74256SOL    HW140760   1.747   6.664   1.926  0.9072 -0.4305 -0.0253
74256SOL    HW240761   1.744   6.547   1.831  0.3695 -2.5676  2.5157
74257SOL     OW40762   5.047   4.636   2.564 -0.1228  0.0372  0.1590
74257SOL    HW140763   5.120   4.695   2.543  0.1793  0.3614  1.9309
74257SOL    HW240764   5.044   4.636   2.660 -2.1327 -0.3946  0.1266
74258SOL     OW40765   4.958   9.826  11.167  0.2778  0.0537  0.4922
74258SOL    HW140766   4.876   9.871  11.148 -0.2657 -0.5905  1.2571
74258SOL    HW240767   4.932   9.738  11.193  1.2771 -0.5089 -0.3157
74259SOL     OW40768   6.299  10.433   1.869 -0.2689  0.1870 -0.0125
74259SOL    HW140769   6.272  10.435   1.961 -0.9536  1.2407 -0.2118
74259SOL    HW240770   6.374  10.493   1.864 -0.7015  0.7233 -0.2594
74260SOL     OW40771   5.234  10.125   7.692  0.1357  0.4405 -0.2152
74260SOL    HW140772   5.222  10.047   7.637  0.2243 -0.4007  0.9252
74260SOL    HW240773   5.198  10.196   7.640 -1.1919 -0.5619 -0.7309
74261SOL     OW40774  11.377   2.753   0.018  0.0879  0.7744  0.1571
74261SOL    HW140775  11.430   2.828   0.046  0.1395  1.1467 -0.8961
74261SOL    HW240776  11.305   2.749   0.081 -1.9795  3.9447 -1.7150
74262SOL     OW40777   9.178   3.669   1.230 -0.1316  0.0221  0.6755
74262SOL    HW140778   9.099   3.662   1.284  0.6325 -0.5675  1.7506
74262SOL    HW240779   9.219   3.751   1.256  0.1283 -0.1573  0.8354
74263SOL     OW40780  11.207   3.467  12.449  0.3383  0.2300 -0.5275
74263SOL    HW140781  11.164   3.412  12.383 -0.5343 -0.0075  0.2080
74263SOL    HW240782  11.292   3.426  12.463  0.4859  0.2127 -1.4021
74264SOL     OW40783   5.977   0.418  10.972  0.0567 -0.4061 -0.4029
74264SOL    HW140784   6.068   0.439  10.992  0.4116  0.9203 -2.9696
74264SOL    HW240785   5.929   0.445  11.050  1.6567  0.7066  0.2620
74265SOL     OW40786   3.837   9.310   2.977 -0.0820 -0.5612  0.3981
74265SOL    HW140787   3.911   9.253   2.956  0.4493  0.7020 -1.5168
74265SOL    HW240788   3.761   9.253   2.976  0.7740 -1.7836  1.7800
74266SOL     OW40789   2.437   0.605   8.506 -0.1532 -0.4100 -0.2198
74266SOL    HW140790   2.435   0.631   8.598 -0.3627  0.8519 -0.5577
74266SOL    HW240791   2.349   0.571   8.488 -0.1082 -0.6654  0.0463
74267SOL     OW40792   9.286  10.864   4.807 -0.5304  0.3277 -0.6217
74267SOL    HW140793   9.349  10.821   4.750  0.9883  0.7392  0.6851
74267SOL    HW240794   9.210  10.879   4.751 -0.2121 -1.8612 -1.7483
74268SOL     OW40795   0.173   9.927  12.175  0.5481 -0.0150  0.3759
74268SOL    HW140796   0.198  10.011  12.211  0.8693  0.9801 -1.9889
74268SOL    HW240797   0.106   9.948  12.110  1.0710 -1.5079 -0.6957
74269SOL     OW40798  13.130   1.450   3.372 -0.3152  0.5373 -0.2449
74269SOL    HW140799  13.072   1.374   3.379  0.7005 -0.2234  0.1762
74269SOL    HW240800  13.162   1.447   3.281 -0.1616  0.3778 -0.1852
74270SOL     OW40801   8.802   2.485   0.603  0.0444 -0.0696 -0.0629
74270SOL    HW140802   8.729   2.425   0.608  0.1392 -0.2575 -0.8279
74270SOL    HW240803   8.764   2.571   0.625  0.2939 -0.6426  3.0014
74271SOL     OW40804   3.602   0.964  11.565  0.3366  0.3716 -0.0523
74271SOL    HW140805   3.607   1.040  11.623  1.7850 -0.8907  1.5678
74271SOL    HW240806   3.666   0.902  11.601 -0.5179 -1.4664 -1.5528
74272SOL     OW40807  11.477   2.149   5.207  0.1928 -0.2451  0.2883
74272SOL    HW140808  11.419   2.189   5.142  1.5689 -0.5260 -1.1816
74272SOL    HW240809  11.541   2.217   5.227  1.4742 -1.0654 -0.8627
74273SOL     OW40810   0.455   3.253   1.739  0.6124 -0.0805 -0.4963
74273SOL    HW140811   0.414   3.186   1.684  2.2188  0.3448 -2.3406
74273SOL    HW240812   0.414   3.242   1.825 -1.4104 -1.3411 -1.5401
74274SOL     OW40813  10.274   8.836   6.631  0.3936  0.3725 -0.0123
74274SOL    HW140814  10.302   8.915   6.585 -0.3862  0.8744  0.3400
74274SOL    HW240815  10.283   8.858   6.724 -1.2936  0.6380  0.1247
74275SOL     OW40816   0.774  12.403   4.488  0.4331  0.1764 -0.2258
74275SOL    HW140817   0.785  12.467   4.558  0.1035  0.0715 -0.0756
74275SOL    HW240818   0.718  12.446   4.424 -1.3964 -0.6305  0.7630
74276SOL     OW40819   9.393  10.175   7.520 -0.6063  0.4194 -0.7766
74276SOL    HW140820   9.315  10.128   7.551 -1.2360  0.4825 -2.1986
74276SOL    HW240821   9.395  10.159   7.426  1.5137 -0.1543 -0.6855
74277SOL     OW40822   9.051  10.777   3.633 -0.2403  0.0837  0.1928
74277SOL    HW140823   9.107  10.854   3.626 -0.8354  0.5030 -0.0850
74277SOL    HW240824   9.023  10.776   3.724 -0.2433  0.2063  0.1937
74278SOL     OW40825   0.949   3.528   4.092  0.1292 -0.2130  0.3726
74278SOL    HW140826   0.921   3.555   4.180 -2.6785  0.6633 -0.7102
74278SOL    HW240827   0.882   3.467   4.063  0.0781  0.8134 -1.8060
74279SOL     OW40828  12.608   0.690   8.191 -0.0882  0.4600 -0.1097
74279SOL    HW140829  12.622   0.727   8.104  1.3778  0.1641 -0.0231
74279SOL    HW240830  12.560   0.609   8.174 -0.9295  1.0201 -0.5185
74280SOL     OW40831   5.640   9.275   9.212 -0.0078 -0.2994 -0.1225
74280SOL    HW140832   5.631   9.370   9.201 -2.6033 -0.4661  0.0279
74280SOL    HW240833   5.686   9.246   9.134 -0.1487  0.9603 -0.6943
74281SOL     OW40834  13.145   4.034   8.229 -0.1158  0.2520  0.0293
74281SOL    HW140835  13.112   4.098   8.291  1.6063 -0.1455  1.4226
74281SOL    HW240836  13.229   4.005   8.265 -0.3155 -2.0035 -1.0865
74282SOL     OW40837  12.899   4.711   0.453  0.3153 -0.2755  0.4737
74282SOL    HW140838  12.961   4.764   0.504  1.0422  0.8076 -1.4367
74282SOL    HW240839  12.870   4.769   0.383 -0.6983 -1.6853 -0.3270
74283SOL     OW40840   0.957   1.792   6.754 -1.1494  0.3526  0.1845
74283SOL    HW140841   0.929   1.708   6.790 -0.3203 -0.2751 -0.6042
74283SOL    HW240842   1.025   1.823   6.814 -0.3083 -0.3240 -0.4154
74284SOL     OW40843  12.555   5.764   6.717  0.5182 -0.3861 -0.4372
74284SOL    HW140844  12.635   5.766   6.770  0.3305 -1.6177 -0.0814
74284SOL    HW240845  12.526   5.856   6.714  0.4764 -0.2746  1.6721
74285SOL     OW40846   0.575  12.863  12.296 -0.7205  0.2039  0.1707
74285SOL    HW140847   0.630  12.935  12.326  1.3042 -1.3909  0.4704
74285SOL    HW240848   0.548  12.818  12.376  0.3290 -0.9703 -0.1134
74286SOL     OW40849   2.162  13.125  13.715  0.4935  0.0947 -0.2977
74286SOL    HW140850   2.140  13.032  13.712  0.5715  0.0882 -0.6151
74286SOL    HW240851   2.078  13.170  13.703  0.4322  0.0669  0.0148
74287SOL     OW40852  13.263   8.834   3.056  0.1711 -0.0986 -0.2188
74287SOL    HW140853  13.300   8.819   2.969 -1.2772 -0.9488 -0.7379
74287SOL    HW240854  13.168   8.833   3.041 -0.1318 -1.3743  1.5445
74288SOL     OW40855   8.338   0.662   2.492 -0.2323  0.2139 -0.6010
74288SOL    HW140856   8.343   0.575   2.453  2.3261 -0.5647  1.2225
74288SOL    HW240857   8.423   0.675   2.533 -1.6697  2.2011  2.0854
74289SOL     OW40858   2.848   2.999   8.087  0.4312 -0.3939  0.4266
74289SOL    HW140859   2.883   2.910   8.083  1.2021 -0.0964  0.2396
74289SOL    HW240860   2.755   2.989   8.069  0.5518 -1.1386  0.1624
74290SOL     OW40861   5.059  12.632  11.536 -0.1881 -0.4097 -0.0552
74290SOL    HW140862   5.090  12.652  11.448 -0.0142  0.6588  0.2359
74290SOL    HW240863   5.133  12.652  11.593 -0.6398 -0.1080  0.4290
74291SOL     OW40864   4.928  13.786   6.465 -0.3229 -0.0297 -0.6329
74291SOL    HW140865   4.870  13.749   6.398 -1.4785  0.0344  0.3060
74291SOL    HW240866   4.877  13.856   6.506  1.6362  2.4406 -2.0781
74292SOL     OW40867   3.036   6.972  13.302 -0.6761  0.0557  0.0455
74292SOL    HW140868   3.086   7.024  13.365  0.0703 -0.0401 -0.4491
74292SOL    HW240869   3.102   6.941  13.239 -1.5089  0.8281 -1.2475
74293SOL     OW40870   0.368   4.518   5.191 -0.1402  0.2708 -0.0497
74293SOL    HW140871   0.348   4.434   5.152 -0.2234  0.3029 -0.0768
74293SOL    HW240872   0.333   4.512   5.280  1.3785 -0.3564  0.5389
74294SOL     OW40873  13.691   8.425   1.302  0.0869 -0.2821  0.1743
74294SOL    HW140874  13.748   8.484   1.351 -0.6545  0.7848 -0.2217
74294SOL    HW240875  13.750   8.378   1.243  0.6916  0.0009  0.5383
74295SOL     OW40876   1.293   1.187   2.685  0.1894 -0.2490  0.2213
74295SOL    HW140877   1.275   1.146   2.600  0.0389 -0.6362  0.4387
74295SOL    HW240878   1.287   1.115   2.748 -2.2211  0.4649  0.8873
74296SOL     OW40879  11.048   8.630   0.516 -0.0250 -0.0248 -0.4405
74296SOL    HW140880  11.064   8.681   0.436 -0.0711 -2.0837 -1.8367
74296SOL    HW240881  11.107   8.668   0.581  2.6368 -0.4657 -2.4278
74297SOL     OW40882   6.369  12.832   6.770 -0.1515  0.5201  0.0547
74297SOL    HW140883   6.372  12.818   6.865 -0.5824  2.7468  0.4466
74297SOL    HW240884   6.280  12.806   6.745 -0.7857  1.9985  0.6708
74298SOL     OW40885   5.238   3.720   6.121  0.3779 -0.9554 -0.0195
74298SOL    HW140886   5.143   3.729   6.111  0.5031  2.1797  0.6120
74298SOL    HW240887   5.260   3.643   6.069 -2.2524 -0.5904 -1.8811
74299SOL     OW40888   7.696   3.561   1.152 -0.4708 -0.0012 -0.1962
74299SOL    HW140889   7.605   3.554   1.181 -0.7562  1.6129 -0.5984
74299SOL    HW240890   7.690   3.561   1.057 -0.1427  0.8575 -0.2259
74300SOL     OW40891   9.901   9.361   5.957 -0.3359 -0.2209 -0.6470
74300SOL    HW140892   9.916   9.266   5.957  0.4334 -0.1128 -0.3690
74300SOL    HW240893   9.874   9.382   5.868 -1.2460 -0.8099 -0.5143
74301SOL     OW40894   1.669   2.696   7.486 -0.0052  0.0673 -0.0915
74301SOL    HW140895   1.598   2.748   7.448  0.4518  0.3745 -0.5294
74301SOL    HW240896   1.627   2.647   7.557 -0.3630  1.3993  0.6601
74302SOL     OW40897  11.812   7.282   3.048 -0.0884 -0.1335 -0.0931
74302SOL    HW140898  11.852   7.369   3.036  1.6885 -0.8817  0.1450
74302SOL    HW240899  11.862   7.224   2.991  0.2156 -1.4039  1.4035
74303SOL     OW40900   0.033   0.348  11.079  0.3111  0.5770 -0.0705
74303SOL    HW140901   0.117   0.388  11.099 -0.3256  2.3774 -0.8371
74303SOL    HW240902   0.014   0.293  11.156  1.9186  0.5349  0.3306
74304SOL     OW40903   8.131   9.639   6.560 -0.3119 -0.5877  0.4917
74304SOL    HW140904   8.200   9.703   6.539 -2.3384  2.5009  2.4588
74304SOL    HW240905   8.175   9.574   6.614  1.4879  0.1122 -0.0525
74305SOL     OW40906  10.310   1.145   1.103 -0.0392  0.1308  0.5124
74305SOL    HW140907  10.363   1.065   1.102  0.5848  0.4900  1.8009
74305SOL    HW240908  10.225   1.118   1.070  0.9957 -0.4000 -1.9699
74306SOL     OW40909   1.147  10.663   6.191  0.4704 -0.2085  0.0154
74306SOL    HW140910   1.088  10.589   6.205  1.3327 -0.5322  2.2081
74306SOL    HW240911   1.233  10.624   6.180  0.7546  0.4290 -0.0528
74307SOL     OW40912   7.275  13.701   1.389 -0.0001  0.3424  0.3947
74307SOL    HW140913   7.288  13.610   1.415 -0.0126  0.5013  0.9714
74307SOL    HW240914   7.272  13.699   1.293  0.9556 -0.1362  0.3674
74308SOL     OW40915  10.187   1.582   6.618  0.1180  0.4038 -0.2280
74308SOL    HW140916  10.228   1.668   6.613  0.4288  0.2526 -0.3143
74308SOL    HW240917  10.223   1.534   6.544 -0.8637  0.5400 -0.8130
74309SOL     OW40918   9.945   4.389   9.385  0.1275 -0.1126 -0.3961
74309SOL    HW140919   9.870   4.334   9.409  1.4125 -1.2652  1.2417
74309SOL    HW240920   9.955   4.450   9.458  1.7274 -1.0635  0.2390
74310SOL     OW40921   3.403  11.152  12.256 -0.0363 -0.2436  0.3553
74310SOL    HW140922   3.463  11.084  12.288  0.7767 -0.8722 -2.2695
74310SOL    HW240923   3.453  11.198  12.188 -1.2153  1.8277  0.8079
74311SOL     OW40924   2.846   9.731   8.254 -0.1851  0.1990 -0.0721
74311SOL    HW140925   2.902   9.662   8.288 -1.9163 -0.8488  0.8284
74311SOL    HW240926   2.900   9.778   8.191  1.6706 -0.7264  0.7633
74312SOL     OW40927  13.184   3.007  12.029  0.0538 -0.4450 -0.5021
74312SOL    HW140928  13.118   2.937  12.027  0.5072 -0.8736 -0.7692
74312SOL    HW240929  13.212   3.011  12.120 -2.1481  1.4814  0.1840
74313SOL     OW40930   1.987  10.539  12.605  0.4760 -0.0562 -0.2487
74313SOL    HW140931   1.917  10.553  12.541  0.5020  0.0128 -0.2621
74313SOL    HW240932   2.066  10.571  12.561  0.2384  1.5970  0.4519
74314SOL     OW40933   8.370   1.489   9.466  0.3746  0.3826  0.4575
74314SOL    HW140934   8.313   1.492   9.543 -2.5157  0.8833 -1.5777
74314SOL    HW240935   8.357   1.401   9.430 -0.1748  0.9356 -0.7497
74315SOL     OW40936   1.880   5.896  11.806  0.5275  0.4099  0.2471
74315SOL    HW140937   1.893   5.981  11.764 -0.5896  0.4473 -0.0598
74315SOL    HW240938   1.785   5.890  11.819  0.5340 -1.0143 -0.2083
74316SOL     OW40939  12.899  13.427   4.262 -0.0909  0.3904  0.7473
74316SOL    HW140940  12.863  13.385   4.341  0.1094 -0.9802  0.1351
74316SOL    HW240941  12.831  13.416   4.196 -0.5835  2.2291  0.9108
74317SOL     OW40942   5.593   4.004   1.210  0.1174  0.2303 -0.0944
74317SOL    HW140943   5.504   4.028   1.184 -0.6912  0.8031  2.7650
74317SOL    HW240944   5.650   4.049   1.147 -1.5667 -0.4644 -2.2312
74318SOL     OW40945   9.644   9.353   1.478 -0.0025 -0.3624 -0.1969
74318SOL    HW140946   9.642   9.285   1.410 -0.1275 -0.5227 -0.0334
74318SOL    HW240947   9.573   9.412   1.455 -0.5127 -0.8130  0.2005
74319SOL     OW40948   5.186   8.216   4.406  0.0050  0.0029 -0.1434
74319SOL    HW140949   5.159   8.302   4.375  0.7050 -0.1277 -1.1285
74319SOL    HW240950   5.139   8.206   4.489 -1.3999  0.6282 -0.8163
74320SOL     OW40951   9.234   3.544  13.356  0.2360  0.5895 -0.1550
74320SOL    HW140952   9.265   3.580  13.439 -0.3437 -0.0620  0.3658
74320SOL    HW240953   9.199   3.458  13.380 -1.5413  1.1073 -0.7756
74321SOL     OW40954   3.989   0.916   8.998 -0.2648 -0.2396 -0.1294
74321SOL    HW140955   3.928   0.905   9.071 -2.1944  0.0032 -1.6075
74321SOL    HW240956   3.949   0.866   8.926  0.4266  1.2305 -1.6057
74322SOL     OW40957   4.982  14.095  14.024 -0.5953 -0.1105  0.2406
74322SOL    HW140958   5.016  14.150  14.094 -1.4100  1.3191 -0.4420
74322SOL    HW240959   4.942  14.021  14.069  0.2415  0.0056  1.1979
74323SOL     OW40960   9.528   4.343  13.868  0.4006 -0.1334 -0.7278
74323SOL    HW140961   9.583   4.311  13.797  1.4900  0.7390 -0.3228
74323SOL    HW240962   9.568   4.427  13.892 -0.7053  0.1867  0.0587
74324SOL     OW40963  11.889   4.486  13.858  0.0425 -0.3215  0.5888
74324SOL    HW140964  11.943   4.440  13.923  1.2415  3.3170  2.4843
74324SOL    HW240965  11.950   4.548  13.817 -1.9489  1.6745  0.4417
74325SOL     OW40966  11.815   6.334   6.023 -0.2630  0.6073  0.1034
74325SOL    HW140967  11.744   6.373   6.074 -0.2787  0.0955  0.4800
74325SOL    HW240968  11.895   6.363   6.068 -0.3042 -1.3177  1.5650
74326SOL     OW40969   2.440   3.428   3.721 -0.2496 -0.4099  0.1138
74326SOL    HW140970   2.418   3.435   3.814 -0.4428  0.3385  0.0139
74326SOL    HW240971   2.384   3.359   3.688 -1.5525  0.6000  0.1447
74327SOL     OW40972   7.881   7.747   6.875  0.3028  0.3885  0.0880
74327SOL    HW140973   7.900   7.840   6.865  0.2421  0.6313  1.8321
74327SOL    HW240974   7.956   7.711   6.922  0.1266 -0.3570 -0.1752
74328SOL     OW40975   2.246   0.050  11.168 -0.3959 -0.1173 -0.0099
74328SOL    HW140976   2.337   0.062  11.142 -0.5618 -0.0539 -0.5590
74328SOL    HW240977   2.198   0.037  11.086 -0.7156 -1.2821  0.3419
74329SOL     OW40978   7.084   0.867   9.727 -0.4554  0.2760 -0.5249
74329SOL    HW140979   7.052   0.786   9.768  0.3721  0.7224  1.1010
74329SOL    HW240980   7.054   0.937   9.786 -0.5418  1.1016 -1.5199
74330SOL     OW40981   6.847  13.657  13.637 -0.1493 -0.1040 -0.3511
74330SOL    HW140982   6.759  13.619  13.641  0.2785 -0.9965  2.2961
74330SOL    HW240983   6.853  13.713  13.715  1.1350  1.1627 -1.3051
74331SOL     OW40984   4.669   6.035   7.218 -0.0759  0.4876 -0.0949
74331SOL    HW140985   4.659   6.003   7.308 -1.8113 -1.1348 -0.8044
74331SOL    HW240986   4.738   5.981   7.181 -1.0897 -0.5995 -0.4538
74332SOL     OW40987  13.698   6.610   1.596 -0.3440  0.0416  0.1948
74332SOL    HW140988  13.627   6.551   1.571 -0.7759  0.0115  1.4260
74332SOL    HW240989  13.720   6.656   1.515 -1.7690  0.0394 -0.2249
74333SOL     OW40990   9.824   9.016   3.197  0.2998 -0.0283 -0.2444
74333SOL    HW140991   9.852   9.077   3.266  1.1820 -2.4302  1.6905
74333SOL    HW240992   9.751   8.968   3.236 -0.8344  0.2025 -1.9851
74334SOL     OW40993   0.871  11.989  12.792 -0.1769 -0.2204 -0.3876
74334SOL    HW140994   0.905  12.069  12.754  0.8285 -0.4773 -0.0660
74334SOL    HW240995   0.946  11.929  12.794 -0.3173 -0.4137  1.4053
74335SOL     OW40996   6.700   4.130   6.558 -0.1225 -0.0323  0.4664
74335SOL    HW140997   6.694   4.049   6.509 -1.4680  0.4059 -0.1169
74335SOL    HW240998   6.636   4.121   6.629 -0.3021  0.5380  0.3805
74336SOL     OW40999  13.282   9.925   9.251  0.5344 -0.2079 -0.0268
74336SOL    HW141000  13.221   9.904   9.322  0.7617  0.9060  0.5254
74336SOL    HW241001  13.264   9.859   9.184 -1.7025  0.4169 -0.1489
74337SOL     OW41002   5.573  10.702  11.912 -0.2889 -0.0417 -0.1638
74337SOL    HW141003   5.625  10.692  11.832 -0.3850 -2.3747 -0.0034
74337SOL    HW241004   5.591  10.791  11.942  1.5910  0.0728 -1.4939
74338SOL     OW41005   6.402  10.978  13.538  0.1674 -0.1563  0.2595
74338SOL    HW141006   6.483  10.967  13.488  1.1015  2.9942  0.8924
74338SOL    HW241007   6.349  11.038  13.487 -1.5426 -1.5937  0.2223
74339SOL     OW41008   6.331   9.654   3.954  0.3019  0.3769 -0.0002
74339SOL    HW141009   6.388   9.628   4.027  0.0802  0.8247  0.3424
74339SOL    HW241010   6.244   9.625   3.981  0.0418  1.4865  0.4119
74340SOL     OW41011   2.452   4.330   1.037 -0.1940  0.3715 -0.1522
74340SOL    HW141012   2.474   4.422   1.053  0.7859  0.3553 -1.2699
74340SOL    HW241013   2.356   4.329   1.033 -0.2484  1.2081  0.5852
74341SOL     OW41014  11.992   3.483  10.457 -0.5532 -0.0586 -0.1048
74341SOL    HW141015  12.033   3.418  10.515 -1.2380 -0.6281 -0.2491
74341SOL    HW241016  12.004   3.567  10.502 -0.8350 -0.4581  0.7289
74342SOL     OW41017   4.552  12.830   4.124 -0.7303 -0.0231  0.0722
74342SOL    HW141018   4.645  12.842   4.143 -0.7978  1.3500 -0.3231
74342SOL    HW241019   4.508  12.844   4.208 -0.7306  1.8404 -0.1916
74343SOL     OW41020  11.296   2.746   2.176  0.4363  0.0466  0.7843
74343SOL    HW141021  11.286   2.837   2.204 -2.0745 -0.5087  1.9853
74343SOL    HW241022  11.223   2.732   2.115  1.4044 -0.9077 -0.2022
74344SOL     OW41023  11.213   2.607  12.046  0.9055  0.1065  0.0447
74344SOL    HW141024  11.263   2.527  12.032 -0.9253 -0.9516 -0.7314
74344SOL    HW241025  11.222   2.625  12.140 -2.3740 -3.6891  1.3263
74345SOL     OW41026   5.384  13.587   0.060 -0.4035 -0.4751 -0.2876
74345SOL    HW141027   5.318  13.552  -0.001 -0.2883 -0.6670 -0.3010
74345SOL    HW241028   5.467  13.553   0.027 -0.4259 -1.3273  0.5001
74346SOL     OW41029   6.191   4.776   4.199  0.1723  0.1582  0.6594
74346SOL    HW141030   6.240   4.770   4.117  1.8102 -1.0338  1.6612
74346SOL    HW241031   6.111   4.726   4.183  0.0588  0.6697 -0.4667
74347SOL     OW41032   3.101   0.902   4.808  0.4022 -0.4399  0.0061
74347SOL    HW141033   3.100   0.823   4.863  1.3645  0.8198  1.9531
74347SOL    HW241034   3.194   0.916   4.788  0.6592  1.7359  2.1829
74348SOL     OW41035   2.909  13.438  13.890  0.0641  0.0913 -0.0437
74348SOL    HW141036   2.978  13.430  13.824 -0.3420  0.7993 -0.5675
74348SOL    HW241037   2.936  13.512  13.944  0.5177 -0.6319  0.7584
74349SOL     OW41038   3.670   9.772  12.461  0.1997 -0.3116  0.2469
74349SOL    HW141039   3.646   9.777  12.369  0.2938  0.3545  0.2559
74349SOL    HW241040   3.702   9.682  12.472  1.7750  0.0758 -0.7719
74350SOL     OW41041   3.563  10.882   2.008 -0.4346 -0.3440 -0.3143
74350SOL    HW141042   3.543  10.796   1.971 -4.3374  0.6612 -1.0372
74350SOL    HW241043   3.566  10.941   1.933 -2.4241  0.7581  0.3757
74351SOL     OW41044  11.171  11.564   3.346  0.2110  0.2129  0.1200
74351SOL    HW141045  11.099  11.508   3.376  0.1537 -0.7401 -1.6651
74351SOL    HW241046  11.176  11.548   3.252  3.1126 -0.1769  0.2575
74352SOL     OW41047   3.890   0.592  10.807 -0.3090  0.1264 -0.3333
74352SOL    HW141048   3.808   0.542  10.801 -0.3871  0.0861  0.7803
74352SOL    HW241049   3.863   0.684  10.805 -0.5503  0.1319  1.4618
74353SOL     OW41050   7.933   5.966   9.810  0.1069  0.3200 -0.5250
74353SOL    HW141051   7.922   6.059   9.787  0.4955  0.4266 -0.2917
74353SOL    HW241052   8.018   5.962   9.853 -0.0618 -0.0923 -0.2258
74354SOL     OW41053   9.682  13.238   1.183 -0.1576  0.1365 -0.0119
74354SOL    HW141054   9.666  13.327   1.214  0.7828 -0.2415  1.6920
74354SOL    HW241055   9.603  13.190   1.207 -1.6376  0.8957 -2.8998
74355SOL     OW41056   0.043   1.667   7.212  0.7560 -0.4453  0.5932
74355SOL    HW141057   0.032   1.576   7.239  1.6866  0.0965  3.0227
74355SOL    HW241058   0.005   1.718   7.284 -2.9556  1.1693 -2.1812
74356SOL     OW41059   6.242   7.356   6.527 -0.6930  0.3445  0.3363
74356SOL    HW141060   6.273   7.299   6.456 -1.5973 -0.8294  0.8437
74356SOL    HW241061   6.305   7.428   6.529  0.7035 -0.8157 -0.0861
74357SOL     OW41062   6.277   3.238  12.840  0.1420 -0.2781 -0.3254
74357SOL    HW141063   6.254   3.228  12.932 -1.7214 -2.3822 -0.9224
74357SOL    HW241064   6.217   3.306  12.807 -1.0769 -1.4072 -0.5210
74358SOL     OW41065  13.649   6.034   5.095  0.9130  0.2503  0.4256
74358SOL    HW141066  13.572   6.085   5.070  0.4045 -0.6266  0.1847
74358SOL    HW241067  13.667   5.978   5.020  1.0641 -0.4058  0.9365
74359SOL     OW41068   0.032  13.412   0.572  0.5605  0.3375 -0.5193
74359SOL    HW141069  -0.021  13.333   0.572 -0.9931  1.2808  1.3714
74359SOL    HW241070   0.061  13.422   0.481 -1.5014 -0.8953 -1.3780
74360SOL     OW41071   9.133  11.254   6.744 -0.6225 -0.1267 -0.2605
74360SOL    HW141072   9.203  11.281   6.686  2.2055 -2.0130  2.0027
74360SOL    HW241073   9.115  11.331   6.798  2.0811 -0.4429  1.2455
74361SOL     OW41074   7.251   0.732  13.022 -0.2354 -0.1193 -0.0708
74361SOL    HW141075   7.336   0.760  13.057 -0.4157  0.9985 -0.5033
74361SOL    HW241076   7.203   0.702  13.099 -0.4338  1.8182  0.6165
74362SOL     OW41077  12.048   2.307   7.897  0.3517 -0.7665  0.2897
74362SOL    HW141078  11.975   2.261   7.856  0.7131  0.3204 -1.7154
74362SOL    HW241079  12.099   2.237   7.939 -0.4889 -1.8582 -0.4382
74363SOL     OW41080  12.333   3.645   5.739 -0.3021 -0.3441  0.5635
74363SOL    HW141081  12.367   3.561   5.707  3.0496  1.4945 -1.3000
74363SOL    HW241082  12.388   3.666   5.815 -0.6142  0.4902  0.5696
74364SOL     OW41083   0.448  10.893  11.944  0.1196 -0.2092 -0.3713
74364SOL    HW141084   0.359  10.860  11.933 -0.4705  1.4129 -0.6188
74364SOL    HW241085   0.440  10.988  11.939  1.7914 -0.0037  0.1714
74365SOL     OW41086  10.192  12.979   7.399  0.0609  0.2210  0.1485
74365SOL    HW141087  10.273  12.929   7.408  0.9340  1.7703  1.6446
74365SOL    HW241088  10.123  12.915   7.414  1.1447 -0.4856  2.6928
74366SOL     OW41089   2.810  10.715  11.874  0.5992 -0.2837 -0.7395
74366SOL    HW141090   2.728  10.694  11.831  0.4024 -3.7482  0.9540
74366SOL    HW241091   2.859  10.766  11.810 -1.7506 -0.5367 -2.8692
74367SOL     OW41092  12.414   4.269  10.580  0.1457  0.7443 -0.4827
74367SOL    HW141093  12.337   4.225  10.545  0.3718  0.6237 -0.8373
74367SOL    HW241094  12.457   4.203  10.635  1.1609  0.0768 -1.9977
74368SOL     OW41095   5.669  12.243   8.962 -0.3925 -0.1219 -0.0531
74368SOL    HW141096   5.603  12.255   8.893 -0.2821 -1.7386 -0.4936
74368SOL    HW241097   5.744  12.294   8.932 -0.7089  0.0293 -0.6121
74369SOL     OW41098  12.324  11.405   8.714 -0.4457  0.6382 -0.2485
74369SOL    HW141099  12.281  11.328   8.676 -0.5619  0.4091  0.3372
74369SOL    HW241100  12.256  11.446   8.767  0.3566 -0.4043  1.6834
74370SOL     OW41101   0.021   3.532   8.871  0.0202  0.3064  0.3582
74370SOL    HW141102   0.008   3.438   8.867  0.8626  0.1395  1.2151
74370SOL    HW241103   0.093   3.544   8.933  0.6508  1.4510 -0.5512
74371SOL     OW41104   0.557   2.869   7.379  0.0173  0.0347 -0.1162
74371SOL    HW141105   0.595   2.956   7.362 -1.1873  0.5820 -0.0821
74371SOL    HW241106   0.487   2.860   7.314 -0.5815 -0.4467  0.5799
74372SOL     OW41107   0.187  12.268   2.063  0.5190  0.0541 -0.6957
74372SOL    HW141108   0.219  12.354   2.035  0.0949  1.0593  1.6722
74372SOL    HW241109   0.262  12.228   2.106 -0.0864  0.5568  0.9041
74373SOL     OW41110   3.306   3.015   8.844  0.0851 -0.1264 -0.4761
74373SOL    HW141111   3.301   3.069   8.923  0.6367  1.6474 -1.6074
74373SOL    HW241112   3.324   2.927   8.877  1.0235  0.6902  1.3387
74374SOL     OW41113  13.926   5.377   8.476 -0.2780 -0.3989  0.2805
74374SOL    HW141114  13.891   5.386   8.565  0.3067  2.0898  0.3301
74374SOL    HW241115  13.849   5.387   8.419 -0.2676  0.8791  0.4718
74375SOL     OW41116  11.988   2.737  14.120  0.0625  0.2432 -0.4606
74375SOL    HW141117  11.921   2.781  14.067 -0.7773  0.6022  0.8499
74375SOL    HW241118  11.985   2.783  14.204  2.3526  0.6254 -0.5291
74376SOL     OW41119   1.872   2.216  12.468 -0.3375 -0.4004  0.0731
74376SOL    HW141120   1.851   2.250  12.555 -0.3161 -1.4176  0.4938
74376SOL    HW241121   1.797   2.240  12.414 -0.5649 -0.1646  0.4900
74377SOL     OW41122  12.944   4.399  11.399 -0.0561 -0.3675  0.2163
74377SOL    HW141123  12.906   4.387  11.312  0.8083 -1.6036 -0.0261
74377SOL    HW241124  12.902   4.332  11.452  0.6469 -0.7433  0.3155
74378SOL     OW41125   2.601  13.249   7.009 -0.4431  0.2237  0.4301
74378SOL    HW141126   2.590  13.183   7.077 -0.2841 -2.0987 -1.6550
74378SOL    HW241127   2.513  13.262   6.974 -0.5643  1.5851  1.1548
74379SOL     OW41128   3.791  10.162  13.382 -0.2039 -0.1425 -0.0315
74379SOL    HW141129   3.726  10.139  13.315  0.8185 -1.2530 -0.6869
74379SOL    HW241130   3.775  10.101  13.453 -1.1838  0.9306  0.6905
74380SOL     OW41131   2.691   2.532   6.755  0.1274 -0.1898  0.5871
74380SOL    HW141132   2.774   2.577   6.772 -1.3619  2.5232  1.2701
74380SOL    HW241133   2.655   2.576   6.678 -0.5511 -1.5880  0.0586
74381SOL     OW41134   4.064   1.628   6.286  0.0183 -0.3231 -0.8046
74381SOL    HW141135   4.133   1.600   6.346  0.8017  1.0956 -0.9960
74381SOL    HW241136   4.102   1.615   6.199  0.2227  0.7866 -0.9069
74382SOL     OW41137   1.782  10.132   7.088  0.5617  0.5764  0.6601
74382SOL    HW141138   1.786  10.115   7.182  1.5471  0.6785  0.6494
74382SOL    HW241139   1.689  10.144   7.069  0.4916  2.4443  1.9696
74383SOL     OW41140   8.664   9.821  10.688 -0.6270  0.1169 -0.1113
74383SOL    HW141141   8.737   9.875  10.719 -0.9445 -0.3237  1.4595
74383SOL    HW241142   8.608   9.883  10.639 -0.2951  0.9278  0.5075
74384SOL     OW41143   0.622   3.120   5.763  0.1386 -0.3966 -0.1135
74384SOL    HW141144   0.667   3.037   5.747  1.6720 -0.1506  2.4793
74384SOL    HW241145   0.609   3.123   5.857 -0.4570  2.0392 -0.2044
74385SOL     OW41146  10.060   3.534   6.075 -0.1366  0.1985  0.3296
74385SOL    HW141147  10.136   3.569   6.029 -0.1064 -1.0936 -0.6640
74385SOL    HW241148   9.985   3.578   6.034 -0.0235  0.1126  0.0268
74386SOL     OW41149  11.071  13.710   8.879 -0.3628  0.3858 -0.2962
74386SOL    HW141150  11.107  13.647   8.942 -0.9290  0.9217  0.5828
74386SOL    HW241151  11.090  13.671   8.793  0.0661 -0.5593  0.2086
74387SOL     OW41152   4.323   8.081  10.648 -0.3965  0.3323  0.3628
74387SOL    HW141153   4.299   8.030  10.726  2.2849 -0.2569  0.9074
74387SOL    HW241154   4.314   8.020  10.575 -2.0084  0.6171  0.2774
74388SOL     OW41155   8.008  13.063   9.434  0.2743  0.5128 -0.1757
74388SOL    HW141156   8.047  13.148   9.415 -1.1910  1.1693 -0.3601
74388SOL    HW241157   8.030  13.046   9.526  0.2727  1.2643 -0.0296
74389SOL     OW41158   0.145   8.668  12.539 -0.4639 -0.1780  0.4589
74389SOL    HW141159   0.126   8.632  12.625 -0.5720  0.4376  0.6899
74389SOL    HW241160   0.063   8.661  12.491 -0.5317 -0.0833  0.5605
74390SOL     OW41161   1.932  12.558   9.600 -0.4256 -0.0982 -0.3951
74390SOL    HW141162   1.917  12.651   9.618 -0.8688 -0.3486  0.6196
74390SOL    HW241163   2.027  12.549   9.599 -0.3631  0.5511 -1.5619
74391SOL     OW41164   4.328   0.624  10.725  0.1411  0.5112  0.0570
74391SOL    HW141165   4.335   0.683  10.650  0.0874  1.2705  0.6433
74391SOL    HW241166   4.418   0.595  10.741  0.2384  0.8332  0.0891
74392SOL     OW41167  11.042   1.658   1.821 -0.9444  0.1763  0.2867
74392SOL    HW141168  10.957   1.636   1.782  0.2641 -1.8680 -1.4224
74392SOL    HW241169  11.079   1.573   1.846  1.3662  0.7899 -0.8059
74393SOL     OW41170   9.521   8.477   6.651 -0.4858  0.4348  0.0733
74393SOL    HW141171   9.507   8.418   6.576  0.4115  1.9063 -1.2979
74393SOL    HW241172   9.518   8.419   6.727 -1.9677 -1.0424 -1.0219
74394SOL     OW41173   7.980   4.230  10.461 -0.2294 -0.0466  0.2954
74394SOL    HW141174   8.044   4.300  10.470  0.6090 -0.5862 -1.1252
74394SOL    HW241175   7.948   4.237  10.372 -1.1718 -0.6133  0.5744
74395SOL     OW41176  13.091   9.594   7.334  0.1159 -0.5098  0.2992
74395SOL    HW141177  13.040   9.514   7.344 -1.0064  0.0550 -0.7172
74395SOL    HW241178  13.083   9.617   7.242  1.3454  0.1844  0.3306
74396SOL     OW41179   4.901   8.280  12.301 -0.6189  0.5785 -0.0757
74396SOL    HW141180   4.875   8.367  12.332  0.4010  0.3029  1.7217
74396SOL    HW241181   4.878   8.221  12.374 -0.2651 -0.4895 -0.8007
74397SOL     OW41182  12.179   4.738  10.212  0.0187  0.3034  0.2060
74397SOL    HW141183  12.092   4.770  10.236 -0.4356  0.1963 -1.2152
74397SOL    HW241184  12.227   4.738  10.295 -1.2380  0.6242  0.9792
74398SOL     OW41185   1.786   3.511   1.378  0.4124 -0.1106  0.5264
74398SOL    HW141186   1.793   3.577   1.310 -0.7994 -0.1450  0.3484
74398SOL    HW241187   1.723   3.547   1.440 -0.7893 -1.3661  0.0882
74399SOL     OW41188   5.181   4.763  13.912 -0.5392 -0.1925  0.4579
74399SOL    HW141189   5.239   4.814  13.968 -0.2586 -0.0855  0.0783
74399SOL    HW241190   5.240   4.707  13.861 -0.6749  0.6053 -0.6329
74400SOL     OW41191   4.640   8.027  11.064 -0.3759 -0.6018 -0.5958
74400SOL    HW141192   4.578   7.954  11.071 -1.7503  0.6464  1.1193
74400SOL    HW241193   4.606   8.079  10.991 -2.0046  0.5674  0.9059
74401SOL     OW41194  14.033   3.160   3.108  0.1734 -0.7104 -0.0324
74401SOL    HW141195  14.039   3.189   3.017  1.2442  1.3161  0.6295
74401SOL    HW241196  14.108   3.102   3.120  0.8511  0.1548 -0.0638
74402SOL     OW41197   1.889   2.389  13.926 -0.8258  0.3282  0.1227
74402SOL    HW141198   1.880   2.294  13.922 -0.8057  0.3703 -1.5099
74402SOL    HW241199   1.978   2.402  13.960 -0.5598 -0.2514 -0.3237
74403SOL     OW41200  13.293  10.172   6.525  0.1590 -0.0778 -0.2509
74403SOL    HW141201  13.198  10.170   6.511  0.1638 -0.3741 -0.2270
74403SOL    HW241202  13.303  10.224   6.605 -0.0206 -0.5415  0.0789
74404SOL     OW41203  11.891   9.732  10.164  0.1604 -0.0921 -0.7749
74404SOL    HW141204  11.953   9.713  10.093  0.5026 -0.3516 -0.4132
74404SOL    HW241205  11.931   9.805  10.212 -1.5409  2.1922 -2.6384
74405SOL     OW41206  12.803   3.307   1.347 -0.2115 -0.1533  0.5352
74405SOL    HW141207  12.870   3.304   1.415  0.4032  1.4753  0.0297
74405SOL    HW241208  12.728   3.260   1.386  0.6553 -0.6339  1.7008
74406SOL     OW41209   5.179   4.023   8.153 -0.3321  0.7629  0.6101
74406SOL    HW141210   5.198   4.108   8.193 -2.8484  1.8051 -0.1982
74406SOL    HW241211   5.084   4.015   8.157 -0.1278 -2.7011  1.9085
74407SOL     OW41212  12.958  10.870  13.445 -0.0489 -0.3156  0.1663
74407SOL    HW141213  12.929  10.877  13.354  0.6848  1.7148  0.0341
74407SOL    HW241214  13.051  10.891  13.442  0.0168 -0.3562  1.3596
74408SOL     OW41215  13.915  10.195  11.144  0.0448  0.0754 -0.2241
74408SOL    HW141216  13.872  10.276  11.169  1.1139  0.8979 -0.9576
74408SOL    HW241217  13.844  10.134  11.127 -0.7698  0.2368  2.2135
74409SOL     OW41218  11.201   9.419  12.155 -0.7418  0.0118 -0.2326
74409SOL    HW141219  11.251   9.338  12.156  0.4353  0.6988  1.6836
74409SOL    HW241220  11.174   9.429  12.063  0.5885 -1.6070 -0.8601
74410SOL     OW41221   7.654   8.208   2.183  0.0844 -0.3225  0.0910
74410SOL    HW141222   7.572   8.222   2.231 -0.7868 -0.2425 -1.3650
74410SOL    HW241223   7.707   8.156   2.242 -0.2874  1.1313  1.8138
74411SOL     OW41224   9.713   7.230   6.247  0.0560 -0.0845 -0.2116
74411SOL    HW141225   9.756   7.153   6.283  0.7852 -0.0710 -1.0005
74411SOL    HW241226   9.752   7.304   6.295  0.7465 -0.0915 -0.7427
74412SOL     OW41227  13.828   4.927   0.785  0.0547  0.2779 -0.6258
74412SOL    HW141228  13.837   5.002   0.844 -3.4883 -0.0732  0.6197
74412SOL    HW241229  13.782   4.963   0.709 -0.2458 -0.3131 -0.7268
74413SOL     OW41230   2.054  13.471   4.625 -0.0287 -0.6098  0.4675
74413SOL    HW141231   2.148  13.476   4.640 -0.4334  0.0943  3.5167
74413SOL    HW241232   2.017  13.538   4.683 -2.4759 -1.9608  0.6021
74414SOL     OW41233   8.038   1.523  12.268 -0.2957  0.4422  0.2298
74414SOL    HW141234   7.996   1.441  12.239  0.7911 -0.7467  1.8244
74414SOL    HW241235   8.123   1.522  12.224  1.3875 -1.4008  3.1732
74415SOL     OW41236   2.681  11.999   8.886 -0.1806  0.0266 -0.0963
74415SOL    HW141237   2.666  12.072   8.947  2.1549 -0.2411  0.9284
74415SOL    HW241238   2.696  11.923   8.943 -0.7182 -0.8794 -1.1115
74416SOL     OW41239  13.043   3.587  11.707  0.2233  0.3885 -0.1198
74416SOL    HW141240  13.130   3.550  11.694  0.5002  0.9316  0.1172
74416SOL    HW241241  13.041   3.664  11.650 -1.5957 -1.7940 -3.3297
74417SOL     OW41242   0.426   1.236   5.565 -0.2647  0.1136  0.0907
74417SOL    HW141243   0.510   1.250   5.608  0.8687  2.3198 -2.4793
74417SOL    HW241244   0.420   1.142   5.554  1.2820 -0.1928  1.4362
74418SOL     OW41245  10.551  13.541   1.244 -0.4409  0.0830  0.4718
74418SOL    HW141246  10.628  13.593   1.265  0.0153  0.1323 -1.1873
74418SOL    HW241247  10.565  13.513   1.153 -1.8202 -0.8957  0.5331
74419SOL     OW41248  10.495   8.144   1.762 -0.0020  0.0957 -0.0898
74419SOL    HW141249  10.443   8.216   1.725 -0.3128 -0.6695 -1.2279
74419SOL    HW241250  10.475   8.145   1.855  0.0729  1.5305 -0.0671
74420SOL     OW41251   6.173   4.915  12.875 -0.5832  0.2945  0.1449
74420SOL    HW141252   6.176   4.991  12.817 -1.8003  0.7602  0.6531
74420SOL    HW241253   6.261   4.909  12.912  0.0180  0.4018 -1.2090
74421SOL     OW41254   1.580  12.321   9.795  0.1126  0.0416 -0.2147
74421SOL    HW141255   1.583  12.410   9.831 -0.8250  1.3607 -3.0828
74421SOL    HW241256   1.650  12.319   9.729 -3.3973  0.9140 -4.4612
74422SOL     OW41257   8.444   2.632  12.549  0.0999  0.0621 -0.3524
74422SOL    HW141258   8.465   2.642  12.456  0.8985 -0.6799 -0.2632
74422SOL    HW241259   8.511   2.573  12.582  1.0755  1.9286  1.1758
74423SOL     OW41260  10.189   6.440   5.983 -0.0519 -0.0468 -0.0409
74423SOL    HW141261  10.118   6.407   6.037  0.2368 -0.1964  0.2478
74423SOL    HW241262  10.178   6.395   5.899 -1.1193  0.9570 -0.4748
74424SOL     OW41263   8.903  12.252   1.208 -0.0141  0.2169  0.1289
74424SOL    HW141264   8.943  12.260   1.122  2.5215  0.4910  1.2466
74424SOL    HW241265   8.834  12.319   1.209  0.4596  0.7630 -1.3844
74425SOL     OW41266   8.905   2.467  11.488  0.1573 -0.2950 -0.5727
74425SOL    HW141267   8.931   2.386  11.531  0.8843  0.3065  0.1444
74425SOL    HW241268   8.933   2.455  11.397 -2.3739 -2.0105 -1.2098
74426SOL     OW41269   9.013   5.098   8.676 -0.5197 -0.1067  0.5147
74426SOL    HW141270   8.961   5.174   8.651 -0.3487  0.5438  2.0401
74426SOL    HW241271   8.949   5.027   8.687 -0.7810  0.0424 -0.0165
74427SOL     OW41272   0.075  12.929   2.501  0.1678  0.4583 -0.3697
74427SOL    HW141273   0.091  12.957   2.411 -0.4747  0.2990 -0.5363
74427SOL    HW241274  -0.017  12.906   2.503 -0.3788  2.4733  0.8468
74428SOL     OW41275  10.588   8.912   6.267 -0.3247 -0.1085 -0.2410
74428SOL    HW141276  10.642   8.976   6.314  0.0801 -0.8228  0.2869
74428SOL    HW241277  10.639   8.890   6.189 -0.0289 -0.4998  0.0636
74429SOL     OW41278   2.625   0.370   8.189  0.4654  0.4982 -0.3286
74429SOL    HW141279   2.628   0.466   8.183 -1.6370  0.7330  0.9666
74429SOL    HW241280   2.542   0.347   8.147  1.1183 -0.8046 -0.9332
74430SOL     OW41281   1.088  13.874   5.293  0.1962  0.1255 -0.2430
74430SOL    HW141282   1.004  13.878   5.247 -0.0818 -0.3695  0.2197
74430SOL    HW241283   1.069  13.905   5.381  0.1713 -1.4064  0.3204
74431SOL     OW41284   5.577  12.330   5.120 -0.3372 -0.1157  0.4015
74431SOL    HW141285   5.642  12.400   5.113  0.1583 -0.5537  0.5505
74431SOL    HW241286   5.628  12.252   5.140 -0.7306 -0.8231 -1.2037
74432SOL     OW41287  12.399   3.146   8.533  0.1701  0.7287  0.9030
74432SOL    HW141288  12.428   3.065   8.575 -2.2660 -1.0959 -0.6653
74432SOL    HW241289  12.461   3.159   8.461 -0.7418 -1.2614 -0.3750
74433SOL     OW41290   7.411   8.885   6.431 -0.1814  0.1452  0.4457
74433SOL    HW141291   7.483   8.857   6.375  0.6514 -1.1112  2.0498
74433SOL    HW241292   7.447   8.958   6.481 -1.1113  1.6587 -0.9901
74434SOL     OW41293   7.061  12.904   0.164 -0.8409  0.1922  0.4774
74434SOL    HW141294   7.090  12.813   0.166 -0.0665  0.4123 -0.2190
74434SOL    HW241295   6.997  12.910   0.236  0.3677 -0.4591  1.6581
74435SOL     OW41296  12.623   2.392  12.249  0.0098 -0.5288 -0.3645
74435SOL    HW141297  12.530   2.410  12.265 -0.2230  0.6964 -2.6638
74435SOL    HW241298  12.623   2.309  12.200  0.0405 -0.1256 -1.0602
74436SOL     OW41299  11.545   3.220   6.887 -0.2068 -0.4061  0.0280
74436SOL    HW141300  11.635   3.235   6.915 -0.6701 -0.5801  1.7013
74436SOL    HW241301  11.543   3.129   6.858 -0.1072 -0.7598  1.1118
74437SOL     OW41302  13.051   1.950  13.526  0.3218 -0.1408  0.5202
74437SOL    HW141303  13.067   1.951  13.432 -2.2401 -0.6303  0.0011
74437SOL    HW241304  13.024   1.860  13.545  2.0859 -0.4212  2.0306
74438SOL     OW41305   4.422  12.648   9.040  0.4202 -0.0025  0.9960
74438SOL    HW141306   4.458  12.710   8.977 -0.3666 -0.7623 -0.2423
74438SOL    HW241307   4.350  12.695   9.082 -1.6715 -0.7242 -1.5535
74439SOL     OW41308  10.243   9.401   0.798  0.1835  0.3949  0.3802
74439SOL    HW141309  10.235   9.319   0.846  0.7543  0.3646  0.4362
74439SOL    HW241310  10.154   9.423   0.771  0.0598 -0.3743  0.1427
74440SOL     OW41311  10.761   8.838   7.387 -0.0047  0.1902 -0.6403
74440SOL    HW141312  10.782   8.805   7.475 -3.8500  1.3239  0.9486
74440SOL    HW241313  10.716   8.765   7.345 -2.4351  1.0514  0.2860
74441SOL     OW41314   7.501   0.804   7.629 -0.1042 -0.6576  0.4067
74441SOL    HW141315   7.582   0.835   7.670 -0.4852  0.9413  0.0526
74441SOL    HW241316   7.479   0.724   7.676  2.1339 -1.6202 -0.0831
74442SOL     OW41317   5.376   1.256  13.651 -0.2300  0.0278 -0.2293
74442SOL    HW141318   5.317   1.307  13.706  0.4344 -0.7243  1.2625
74442SOL    HW241319   5.322   1.228  13.577 -0.9108  1.8381 -0.4708
74443SOL     OW41320  11.113   0.850  13.285  0.2997 -0.3067 -0.3052
74443SOL    HW141321  11.189   0.794  13.302 -0.8264 -1.3376  1.5902
74443SOL    HW241322  11.132   0.890  13.199  1.3439 -3.2713 -1.5846
74444SOL     OW41323   9.061   6.396  12.527 -0.7415 -0.5400 -0.0964
74444SOL    HW141324   8.978   6.428  12.564 -1.5118 -2.6557  0.1419
74444SOL    HW241325   9.121   6.470  12.536 -2.4284  0.8492  0.2937
74445SOL     OW41326   3.992  12.249   0.450  0.5286 -0.7708 -0.7359
74445SOL    HW141327   4.067  12.265   0.507  0.8386 -0.3022 -1.2677
74445SOL    HW241328   3.922  12.303   0.486  0.1907 -1.8096  0.2369
74446SOL     OW41329   4.692   9.164  10.574 -0.1834  0.0036  0.5646
74446SOL    HW141330   4.658   9.226  10.637  0.1179  0.6376  0.1136
74446SOL    HW241331   4.785   9.155  10.595  0.1230  0.8941 -0.3112
74447SOL     OW41332   1.010  13.844   2.507 -0.7522 -0.0188  0.1065
74447SOL    HW141333   0.952  13.898   2.561  0.4313  0.4121  1.0148
74447SOL    HW241334   1.084  13.901   2.488 -1.1620 -0.1390 -2.0948
74448SOL     OW41335   8.613   7.495   9.818  0.4261  0.0403  0.1018
74448SOL    HW141336   8.562   7.457   9.889  1.0770 -3.7931 -1.2446
74448SOL    HW241337   8.693   7.528   9.859 -0.4689  0.6309  1.4303
74449SOL     OW41338   2.276   7.927  12.892 -0.0219 -0.3940  0.5999
74449SOL    HW141339   2.188   7.956  12.917 -0.5527 -0.9729 -0.5346
74449SOL    HW241340   2.312   7.887  12.972 -0.8054 -0.2107  1.0536
74450SOL     OW41341  13.254   3.161   7.419  0.1266  0.4280 -0.3248
74450SOL    HW141342  13.306   3.087   7.450 -1.3025 -0.1072  0.9308
74450SOL    HW241343  13.257   3.154   7.323 -1.4857 -2.4583 -0.2935
74451SOL     OW41344   7.055   1.131   0.412  0.2125  0.0065 -0.0956
74451SOL    HW141345   7.013   1.080   0.481  1.1711  0.5017  0.8851
74451SOL    HW241346   7.083   1.212   0.455  0.8771  0.3025 -1.0456
74452SOL     OW41347   3.426   9.645   2.533  0.2935 -0.1346  0.1849
74452SOL    HW141348   3.409   9.687   2.449  2.7293  0.8521  0.0929
74452SOL    HW241349   3.392   9.706   2.599  0.0243 -0.0360 -0.0452
74453SOL     OW41350  11.770  12.586  13.082  0.3247 -0.0866  0.4661
74453SOL    HW141351  11.793  12.572  13.174 -1.1758 -2.0763  0.6208
74453SOL    HW241352  11.769  12.498  13.044 -1.0372  0.4846 -0.9370
74454SOL     OW41353  12.193   2.444  12.615  0.2196  0.0176 -0.1580
74454SOL    HW141354  12.203   2.414  12.705  0.5205 -0.9168 -0.4913
74454SOL    HW241355  12.237   2.377  12.562 -0.8989 -0.0225 -1.0829
74455SOL     OW41356   5.091   2.910   3.210  0.2965 -0.0272  0.4715
74455SOL    HW141357   5.094   2.846   3.138  0.7347  0.3043  0.1908
74455SOL    HW241358   5.002   2.902   3.245 -0.2879  0.5644 -0.8080
74456SOL     OW41359   6.100  12.211   9.267  0.5162  0.4179 -0.0228
74456SOL    HW141360   6.127  12.239   9.179 -0.3544  1.3450 -0.0174
74456SOL    HW241361   6.004  12.205   9.262  0.4477  0.5695  0.8839
74457SOL     OW41362   5.708   7.915   7.236 -0.4686  0.3257 -0.6389
74457SOL    HW141363   5.617   7.886   7.233 -0.4901  0.2830  0.0988
74457SOL    HW241364   5.727   7.921   7.330  0.8206 -1.3745 -0.7434
74458SOL     OW41365   8.355   3.620   0.405 -0.0419 -0.7202 -0.1408
74458SOL    HW141366   8.342   3.574   0.322 -0.0240 -1.3803  0.2163
74458SOL    HW241367   8.304   3.701   0.396  1.4633  0.1461 -1.5287
74459SOL     OW41368   4.724   7.462   6.922  0.3999  0.2944  0.1055
74459SOL    HW141369   4.757   7.397   6.861  1.7265  1.5294 -0.5539
74459SOL    HW241370   4.690   7.411   6.996  0.9778 -1.1352 -0.5910
74460SOL     OW41371  13.127  12.911  10.589 -0.0164 -0.6011  0.0671
74460SOL    HW141372  13.091  12.827  10.616 -0.5101  0.0219  1.4705
74460SOL    HW241373  13.173  12.893  10.508 -1.4096 -1.9153 -0.4737
74461SOL     OW41374  13.405   5.981   9.004 -0.0702  0.0442  0.2615
74461SOL    HW141375  13.362   5.897   8.987 -1.2242  0.4991  0.8290
74461SOL    HW241376  13.453   5.967   9.086 -1.9409  0.4963  1.4972
74462SOL     OW41377   4.712   1.262  12.531 -0.9031  0.7410  0.1478
74462SOL    HW141378   4.780   1.213  12.578 -2.0618 -0.1456  0.9632
74462SOL    HW241379   4.758   1.303  12.457  0.3281 -0.6147  0.1241
74463SOL     OW41380   1.522  11.611   7.628  0.5849 -0.6876 -0.1546
74463SOL    HW141381   1.535  11.701   7.659 -1.3088 -0.6026  0.5008
74463SOL    HW241382   1.458  11.574   7.688  0.0442 -1.9251 -1.4434
74464SOL     OW41383  14.019  10.533   4.560  0.0907  0.2509 -0.0315
74464SOL    HW141384  13.951  10.591   4.594  0.7914  0.5371  0.9403
74464SOL    HW241385  14.031  10.467   4.629 -0.0001 -0.4781 -0.6929
74465SOL     OW41386   0.279  12.757   7.728 -0.3408 -0.0429 -0.0692
74465SOL    HW141387   0.332  12.797   7.659  0.5065 -1.8319 -0.5098
74465SOL    HW241388   0.189  12.760   7.694 -0.1392  0.4382 -0.5788
74466SOL     OW41389   2.045  13.001  10.643 -0.4334 -0.0382  0.3431
74466SOL    HW141390   2.056  12.906  10.634 -0.5392 -0.1696  1.5212
74466SOL    HW241391   2.112  13.037  10.585  0.2302 -0.8328  0.5905
74467SOL     OW41392   5.249   6.219   3.150 -0.2492 -0.0916  0.5766
74467SOL    HW141393   5.309   6.204   3.223 -0.1479 -1.6370  0.2091
74467SOL    HW241394   5.299   6.273   3.089 -0.3807  1.3423  1.6694
74468SOL     OW41395   1.240   5.007  14.018  0.3465 -0.0777  0.3529
74468SOL    HW141396   1.266   4.995  13.926  1.8391 -1.9919  0.9609
74468SOL    HW241397   1.260   5.099  14.036 -0.3248  0.4426 -1.3161
74469SOL     OW41398   3.870   7.550  12.368 -0.1527  0.2299  0.0406
74469SOL    HW141399   3.822   7.564  12.450 -0.8850 -1.3370 -0.0924
74469SOL    HW241400   3.855   7.458  12.346  2.1348 -0.0615 -0.5384
74470SOL     OW41401  10.090   5.673  11.508  0.3389 -0.4830  0.4722
74470SOL    HW141402   9.998   5.691  11.526 -0.1933 -1.2807 -1.1834
74470SOL    HW241403  10.101   5.698  11.416  1.5125 -1.2900  0.3744
74471SOL     OW41404   1.729   6.285   9.750  0.0177 -0.0466  0.2866
74471SOL    HW141405   1.712   6.204   9.798 -0.5639  0.3932  0.8452
74471SOL    HW241406   1.683   6.275   9.667 -0.0481 -0.2855  0.3520
74472SOL     OW41407  12.467   9.419   1.124  0.0011  0.1411 -0.2602
74472SOL    HW141408  12.412   9.486   1.164  1.2383  1.1678 -0.2069
74472SOL    HW241409  12.472   9.444   1.032  0.0567 -0.1764 -0.3434
74473SOL     OW41410   9.383   5.060   5.020 -0.2843  0.4216 -0.7860
74473SOL    HW141411   9.343   4.973   5.016  1.0884 -0.3303  0.8760
74473SOL    HW241412   9.328   5.108   5.082 -0.9047  0.6828 -1.5259
74474SOL     OW41413   1.675   9.785   0.127  0.4507 -0.0598 -0.4678
74474SOL    HW141414   1.639   9.844   0.194  0.0795 -1.0416  0.2177
74474SOL    HW241415   1.748   9.834   0.089  2.1638 -0.3014  2.2268
74475SOL     OW41416   9.894   2.757  12.363 -0.3881 -0.9181 -0.0980
74475SOL    HW141417   9.848   2.692  12.415 -0.1007 -1.9379 -1.0785
74475SOL    HW241418   9.847   2.759  12.280  0.1843 -0.5787 -0.4221
74476SOL     OW41419   3.705   3.351  12.429 -0.6590 -0.3426 -0.3490
74476SOL    HW141420   3.768   3.294  12.386 -0.6797 -2.6430  2.3915
74476SOL    HW241421   3.757   3.401  12.492 -1.3681 -2.0049  1.6863
74477SOL     OW41422   1.281  12.215   3.213  0.0029  0.7286 -0.4152
74477SOL    HW141423   1.286  12.219   3.309  2.0071 -1.6355 -0.3487
74477SOL    HW241424   1.368  12.241   3.183 -0.2545  0.3464 -1.5435
74478SOL     OW41425   8.187   9.094  12.726 -0.0589 -0.2297  0.1578
74478SOL    HW141426   8.172   9.188  12.720  0.6124 -0.1717 -0.6969
74478SOL    HW241427   8.230   9.082  12.811  0.1608  0.2699  0.1195
74479SOL     OW41428  12.386   5.417   3.861 -0.0526 -0.5675 -0.4621
74479SOL    HW141429  12.370   5.432   3.954  1.3580 -1.5589 -0.0396
74479SOL    HW241430  12.450   5.484   3.836 -1.1923  0.3665 -1.0062
74480SOL     OW41431   4.772   3.705  12.770  0.4344 -0.5219 -0.0352
74480SOL    HW141432   4.739   3.713  12.859 -0.1779 -2.8493  0.0132
74480SOL    HW241433   4.867   3.702  12.780  0.3451 -1.4289  0.6123
74481SOL     OW41434   1.686  11.971  13.968 -0.0319 -0.3151 -0.0505
74481SOL    HW141435   1.720  12.058  13.988  0.2964  0.2894 -2.7753
74481SOL    HW241436   1.594  11.974  13.995  0.3679  0.2883  1.3406
74482SOL     OW41437   3.101   7.114   0.715  0.2955 -0.5200  0.3553
74482SOL    HW141438   3.106   7.067   0.632  0.9890  0.4035 -0.1372
74482SOL    HW241439   3.011   7.148   0.718 -0.4947 -2.5182  1.1034
74483SOL     OW41440   1.982  13.096  11.457  0.7040  0.2849 -0.4730
74483SOL    HW141441   1.914  13.091  11.390 -0.4950 -3.2737  0.7383
74483SOL    HW241442   2.052  13.039  11.425  0.0274 -1.6367  1.2244
74484SOL     OW41443   0.785   6.562  12.736 -0.3542  0.0316  0.0288
74484SOL    HW141444   0.817   6.472  12.729 -0.2526  0.0202  0.5885
74484SOL    HW241445   0.771   6.589  12.645  2.4442  0.4611 -0.3912
74485SOL     OW41446  13.048  12.033   6.992 -0.0260  0.5464  0.1944
74485SOL    HW141447  12.978  11.987   7.040 -0.4105  1.0913  0.1726
74485SOL    HW241448  13.028  12.126   7.006  0.1272  0.7094 -0.6324
74486SOL     OW41449   4.724   3.017   1.449 -0.3864  0.2676  0.4689
74486SOL    HW141450   4.659   2.949   1.470 -1.1232  1.0729  0.8779
74486SOL    HW241451   4.791   3.008   1.516 -0.0918 -0.5463  0.0704
74487SOL     OW41452   1.704   3.288  11.258  0.4522  0.1702  0.0379
74487SOL    HW141453   1.764   3.349  11.301  0.7271 -1.2742  1.8525
74487SOL    HW241454   1.760   3.236  11.200  0.6982 -0.0927  0.5008
74488SOL     OW41455   4.339  14.116   9.649  0.4352  0.1528  0.1045
74488SOL    HW141456   4.329  14.090   9.741 -1.6888  2.4198  0.6490
74488SOL    HW241457   4.396  14.193   9.652 -1.0194  1.2907 -0.1837
74489SOL     OW41458   7.570   8.184  10.826 -0.3636 -0.1632  0.2920
74489SOL    HW141459   7.538   8.252  10.767 -3.5504 -1.1373  0.7056
74489SOL    HW241460   7.554   8.219  10.914  0.3160 -0.4688  0.5451
74490SOL     OW41461  12.887   9.695   6.660 -0.1841 -0.3498 -0.5445
74490SOL    HW141462  12.979   9.721   6.651 -0.7317  1.7313 -0.4428
74490SOL    HW241463  12.837   9.773   6.637 -1.9729 -1.6983 -1.4783
74491SOL     OW41464   5.967   9.343   5.077 -0.4365  0.5524  0.5747
74491SOL    HW141465   5.979   9.312   5.167  1.1938  1.4956  0.7299
74491SOL    HW241466   5.876   9.323   5.056 -1.0459  0.8956  2.6662
74492SOL     OW41467  14.105  12.870   7.862  0.7967  0.1190  0.4987
74492SOL    HW141468  14.072  12.795   7.913  0.7128 -0.0859  0.1441
74492SOL    HW241469  14.141  12.831   7.783 -0.1195  0.5270 -0.1385
74493SOL     OW41470   6.415   2.764   6.462 -0.6205 -0.5205 -0.1116
74493SOL    HW141471   6.342   2.818   6.430  0.3861  0.8038 -0.2670
74493SOL    HW241472   6.461   2.737   6.383 -0.1812 -0.2300  0.0403
74494SOL     OW41473   7.415   3.962  12.333 -0.0871  0.4262  0.8009
74494SOL    HW141474   7.400   4.057  12.336  0.0459  0.4622  0.4434
74494SOL    HW241475   7.444   3.939  12.421  1.1109  0.9354  0.5532
74495SOL     OW41476   6.322   0.556   9.994 -0.4185 -0.1177  0.4428
74495SOL    HW141477   6.405   0.539  10.039 -0.1268  0.2242  0.0305
74495SOL    HW241478   6.282   0.628  10.045 -0.2332  0.0558  0.3441
74496SOL     OW41479   2.684   9.627   1.667 -0.2339  0.4040  0.5625
74496SOL    HW141480   2.733   9.709   1.655  1.2597 -0.6824 -1.3736
74496SOL    HW241481   2.708   9.598   1.755  1.2399  0.7947  0.3166
74497SOL     OW41482   4.206   5.068   2.788  0.5225 -0.3079 -0.6307
74497SOL    HW141483   4.274   5.113   2.838  0.4891  0.4609 -1.2627
74497SOL    HW241484   4.124   5.099   2.827  0.5118 -0.6056 -0.4087
74498SOL     OW41485  13.871   5.032   4.144  0.1323  0.0319 -0.2992
74498SOL    HW141486  13.857   5.093   4.216  2.1250 -1.3785  1.4020
74498SOL    HW241487  13.808   4.962   4.158 -1.1386  0.9107 -1.3947
74499SOL     OW41488  12.332   5.015   4.447  0.3616 -0.3940 -0.3303
74499SOL    HW141489  12.349   5.053   4.534 -1.9187  3.0084 -1.1639
74499SOL    HW241490  12.370   5.078   4.386 -1.1047 -0.8922 -1.8244
74500SOL     OW41491   6.451  11.156   7.795 -0.4146  0.2868  0.1767
74500SOL    HW141492   6.446  11.239   7.844  0.5499 -0.6189  1.9051
74500SOL    HW241493   6.544  11.148   7.772 -0.3968 -0.5576  0.5056
74501SOL     OW41494  10.269   6.992   6.434  0.1361 -0.2114  0.1475
74501SOL    HW141495  10.219   7.008   6.513 -0.1956 -4.4765  1.0365
74501SOL    HW241496  10.216   7.029   6.363 -1.9069 -0.4391  1.4983
74502SOL     OW41497   5.079  11.641   9.483  0.0499 -0.6932 -0.3675
74502SOL    HW141498   5.020  11.574   9.448 -0.3116 -0.6025  0.0589
74502SOL    HW241499   5.052  11.722   9.440  0.7547 -0.8856 -1.1900
74503SOL     OW41500  12.968   8.161   1.967  0.7287  0.4459 -0.1740
74503SOL    HW141501  12.927   8.176   2.051  0.8318 -0.4481  0.0521
74503SOL    HW241502  13.062   8.158   1.986  0.8509  1.5756 -0.5411
74504SOL     OW41503   9.643  13.808   8.802 -0.1000 -0.0158  0.0814
74504SOL    HW141504   9.651  13.776   8.713  0.3868 -1.2531  0.5499
74504SOL    HW241505   9.685  13.741   8.856  0.5751  1.2045  1.1538
74505SOL     OW41506  11.499   6.361  11.465  0.1538 -0.2103  0.2661
74505SOL    HW141507  11.464   6.272  11.458 -1.3859  0.4169 -0.4003
74505SOL    HW241508  11.428   6.417  11.436  1.2190  1.2386  0.3561
74506SOL     OW41509  11.537  13.886   8.165  0.2734  0.7009 -0.2119
74506SOL    HW141510  11.598  13.903   8.093  1.5307  0.4698  0.7545
74506SOL    HW241511  11.581  13.820   8.218 -0.4254  1.1744  0.9942
74507SOL     OW41512   1.360   0.824   2.598 -0.9395 -0.2948  0.4229
74507SOL    HW141513   1.407   0.816   2.515 -3.4623  0.6329 -1.2161
74507SOL    HW241514   1.381   0.744   2.646  0.0724 -1.1622 -1.3739
74508SOL     OW41515  10.775  10.829   8.334 -0.1778  0.1476 -0.3646
74508SOL    HW141516  10.870  10.829   8.337 -0.1271  2.2846  1.6636
74508SOL    HW241517  10.751  10.922   8.326 -2.0825 -0.3058 -0.5171
74509SOL     OW41518   0.874   3.695   9.422  0.5639 -0.3149 -0.1783
74509SOL    HW141519   0.934   3.758   9.382  1.2433 -0.4067  0.6530
74509SOL    HW241520   0.919   3.667   9.502 -0.2867 -0.9116  0.1078
74510SOL     OW41521   1.716   3.043   4.791  0.5561  0.0485  0.6354
74510SOL    HW141522   1.666   2.974   4.748  0.6562 -0.4078  1.2401
74510SOL    HW241523   1.682   3.045   4.880  1.1148  0.2256  0.8471
74511SOL     OW41524   3.476  12.988  13.721  0.3405 -0.3205 -0.4904
74511SOL    HW141525   3.567  12.993  13.751  0.1680 -1.0856  0.1796
74511SOL    HW241526   3.426  12.962  13.798 -0.5594  0.8044 -0.6748
74512SOL     OW41527   4.612  11.083   7.308 -0.2473  0.5573 -0.2470
74512SOL    HW141528   4.683  11.028   7.274 -1.1334 -0.5418 -0.3872
74512SOL    HW241529   4.650  11.171   7.312  0.4674  0.4146 -2.3821
74513SOL     OW41530   0.072   6.699  12.565  0.8567 -0.3127  0.4166
74513SOL    HW141531   0.085   6.791  12.541  2.5605 -0.8821 -1.0938
74513SOL    HW241532   0.039   6.658  12.485  0.3739 -1.0696  0.9941
74514SOL     OW41533   2.421   1.916  10.759  0.1183  0.1784  0.0176
74514SOL    HW141534   2.379   1.842  10.713 -1.5267  0.8335  0.4003
74514SOL    HW241535   2.513   1.911  10.732 -0.4845 -0.3539 -2.1734
74515SOL     OW41536   0.787   7.322   0.483  0.0055 -0.4041  0.3733
74515SOL    HW141537   0.727   7.298   0.555  0.0763  0.8552  0.8723
74515SOL    HW241538   0.807   7.239   0.441  0.2140 -1.2418  2.0195
74516SOL     OW41539   9.770   2.387   1.491  0.0501 -0.1148  0.2098
74516SOL    HW141540   9.700   2.414   1.550  1.7982  2.8227  1.1368
74516SOL    HW241541   9.843   2.364   1.549  0.7613 -0.4267 -0.7829
74517SOL     OW41542   9.607   1.571  13.647 -0.5498 -0.2411  0.2223
74517SOL    HW141543   9.541   1.634  13.617 -0.8591 -0.5365  0.2700
74517SOL    HW241544   9.673   1.624  13.691 -0.3916  0.1379 -0.4533
74518SOL     OW41545  11.444  11.405   2.917  0.0883  0.5696  0.3043
74518SOL    HW141546  11.460  11.499   2.927 -0.1948  0.5109  1.5254
74518SOL    HW241547  11.417  11.377   3.004  0.0274 -0.6215 -0.0884
74519SOL     OW41548   5.303   1.112   1.643  0.3668  0.6114  0.3187
74519SOL    HW141549   5.312   1.128   1.549  1.3100  1.7155  0.5743
74519SOL    HW241550   5.373   1.050   1.664 -1.3555 -1.6312 -0.0994
74520SOL     OW41551  10.616   3.543   9.888 -0.2163 -0.5874  0.2406
74520SOL    HW141552  10.625   3.471   9.950  0.3856 -0.8565 -0.1541
74520SOL    HW241553  10.530   3.529   9.848 -0.4052 -0.6799  0.6755
74521SOL     OW41554   5.139   7.931  10.374 -0.3662  0.1095 -0.0009
74521SOL    HW141555   5.189   7.991  10.318  1.0546  0.4010  1.5060
74521SOL    HW241556   5.203   7.866  10.403 -1.4418 -0.9952  0.0034
74522SOL     OW41557   5.266   9.895   6.225 -0.0549  0.4898 -0.8549
74522SOL    HW141558   5.220   9.939   6.296  0.6176 -0.3372  0.1128
74522SOL    HW241559   5.208   9.905   6.149 -2.0485 -0.8586  0.4035
74523SOL     OW41560   8.793   1.426   1.378 -0.2818  0.0205  0.0906
74523SOL    HW141561   8.889   1.431   1.382 -0.2801  0.7895 -0.7492
74523SOL    HW241562   8.767   1.498   1.320 -1.3827 -0.0829  0.4336
74524SOL     OW41563   9.150   0.098  13.653  0.3430  0.2577 -0.3101
74524SOL    HW141564   9.096   0.081  13.730 -0.5383 -0.0660 -0.9904
74524SOL    HW241565   9.128   0.188  13.628 -0.7717 -0.2704 -1.2780
74525SOL     OW41566   1.440  12.586   6.590 -0.1749  0.0496  0.4479
74525SOL    HW141567   1.355  12.622   6.562  0.1755 -0.0002 -0.7698
74525SOL    HW241568   1.498  12.662   6.594 -0.3178  0.1078  1.4615
74526SOL     OW41569   2.931   9.732   7.296 -0.8468  1.0939 -0.1563
74526SOL    HW141570   2.843   9.696   7.285 -1.2452  1.2563  1.9716
74526SOL    HW241571   2.934   9.761   7.388  1.7229  0.2394  0.1312
74527SOL     OW41572   2.688   5.228   5.837  0.3040 -0.0597  0.1550
74527SOL    HW141573   2.651   5.257   5.920  1.3503 -0.6367  0.8488
74527SOL    HW241574   2.725   5.141   5.856 -2.2025 -1.6780 -1.6992
74528SOL     OW41575   9.961  12.863   6.721  0.8233  0.1099 -0.4576
74528SOL    HW141576   9.991  12.777   6.689  1.3588  0.2055 -0.2206
74528SOL    HW241577  10.034  12.896   6.773  0.7337  0.8458 -0.7924
74529SOL     OW41578   3.107   1.572   8.644  0.1756  0.3459  0.1889
74529SOL    HW141579   3.027   1.580   8.696  1.2596 -0.8200  2.1595
74529SOL    HW241580   3.076   1.558   8.554 -1.8110  0.3898  0.8193
74530SOL     OW41581  11.779   0.057   4.141 -0.0797 -0.1007  0.0379
74530SOL    HW141582  11.847  -0.005   4.114  0.1793 -0.1054  0.7043
74530SOL    HW241583  11.790   0.065   4.235 -1.0716 -0.1789  0.1685
74531SOL     OW41584   6.945   6.702  11.128 -0.1621 -0.2604 -0.0656
74531SOL    HW141585   6.916   6.652  11.052 -0.4835 -0.1181 -0.0432
74531SOL    HW241586   7.039   6.688  11.133 -0.0760  0.0409 -0.7180
74532SOL     OW41587  13.688  13.821   1.775 -0.4614  0.3772 -0.4105
74532SOL    HW141588  13.633  13.888   1.816 -0.1915 -0.6948  1.9315
74532SOL    HW241589  13.702  13.757   1.845  0.7915 -1.1986 -2.0150
74533SOL     OW41590   6.227  14.131   0.698 -0.0993  0.1195 -0.0433
74533SOL    HW141591   6.132  14.135   0.705 -0.2858 -0.9379 -1.6122
74533SOL    HW241592   6.249  14.190   0.627  0.0970 -1.7539 -1.6207
74534SOL     OW41593   8.532   8.757  13.133 -0.0491 -0.0876 -0.9440
74534SOL    HW141594   8.500   8.742  13.044  0.4757  1.4356 -1.4144
74534SOL    HW241595   8.627   8.748  13.127  0.0601  0.8027 -0.7164
74535SOL     OW41596   3.927   1.867  13.756  0.2654 -0.3430 -0.2570
74535SOL    HW141597   3.989   1.873  13.683  0.0264  0.6273 -0.3960
74535SOL    HW241598   3.979   1.887  13.834  0.4634 -1.1079 -0.1937
74536SOL     OW41599   1.603  12.537   2.734  0.0903  0.2277  0.5951
74536SOL    HW141600   1.592  12.469   2.668 -1.8161  0.8211  0.2480
74536SOL    HW241601   1.545  12.510   2.805 -0.4682  1.3364  0.5722
74537SOL     OW41602   5.686  12.976  12.190 -0.8123  0.2424  0.2395
74537SOL    HW141603   5.662  13.067  12.176 -1.4189  0.0786  0.1655
74537SOL    HW241604   5.759  12.979  12.251 -0.7566  0.7798  0.1500
74538SOL     OW41605   1.802   0.508  13.651 -0.8277 -0.2183  0.0233
74538SOL    HW141606   1.878   0.463  13.614  0.2077  0.7266  0.8987
74538SOL    HW241607   1.836   0.593  13.678 -2.1162  0.0755  0.8124
74539SOL     OW41608   7.693   9.744   3.862 -0.7146 -0.3897  0.6986
74539SOL    HW141609   7.723   9.828   3.829 -1.2018 -0.1279  0.9040
74539SOL    HW241610   7.644   9.706   3.789  0.8524 -1.2331  0.0357
74540SOL     OW41611  13.299   8.120  13.975  0.1972  0.1323 -0.4429
74540SOL    HW141612  13.387   8.119  14.012 -0.1220 -1.1631  0.3283
74540SOL    HW241613  13.308   8.076  13.890  0.4380  0.7682 -0.7560
74541SOL     OW41614   7.571   0.239   5.751  0.6105 -0.0267  0.3733
74541SOL    HW141615   7.596   0.257   5.660  1.7587 -1.7504  0.2983
74541SOL    HW241616   7.652   0.208   5.792 -0.4289 -1.6391  1.3231
74542SOL     OW41617   8.635   4.807   9.331 -0.1282 -0.1783  0.3333
74542SOL    HW141618   8.721   4.848   9.329  0.7233 -1.8976 -0.3823
74542SOL    HW241619   8.648   4.721   9.290 -2.3037 -0.2610 -0.3244
74543SOL     OW41620   7.744  13.371  11.920  0.2659  0.1981 -0.0807
74543SOL    HW141621   7.756  13.354  12.014  0.8659  1.8495  0.1741
74543SOL    HW241622   7.746  13.284  11.880  1.9988 -0.4279  1.2235
74544SOL     OW41623   2.133   2.216   6.261 -0.1373  0.0540 -0.1686
74544SOL    HW141624   2.055   2.270   6.274  0.6388  1.4283 -0.9216
74544SOL    HW241625   2.186   2.230   6.339 -0.6599 -0.9406  0.3781
74545SOL     OW41626   6.676   2.109  11.426 -0.3836  0.4710  0.0208
74545SOL    HW141627   6.686   2.136  11.334 -1.4520  1.2614  0.1126
74545SOL    HW241628   6.627   2.180  11.466 -1.1262 -0.5062  0.8875
74546SOL     OW41629  11.061   5.411  12.543 -0.0001 -0.1498 -0.1950
74546SOL    HW141630  11.126   5.342  12.556 -1.1044 -1.4192 -1.0213
74546SOL    HW241631  10.987   5.366  12.502 -2.2703  0.7731  2.5642
74547SOL     OW41632   9.936  13.002   8.451  0.5714  0.6718 -0.4579
74547SOL    HW141633  10.026  13.019   8.423  1.4491  0.6188  2.0876
74547SOL    HW241634   9.938  12.912   8.484 -0.5238  0.5287 -0.7540
74548SOL     OW41635   0.057   9.122   2.442 -0.2225 -0.2632 -0.2452
74548SOL    HW141636  -0.003   9.096   2.372 -0.3740 -2.3715  0.6134
74548SOL    HW241637   0.142   9.086   2.416 -0.5332 -2.1643  1.1868
74549SOL     OW41638   7.645  13.111  11.836 -0.1168  1.1240  0.0231
74549SOL    HW141639   7.563  13.145  11.801 -0.9635 -1.7433 -1.0040
74549SOL    HW241640   7.620  13.065  11.917  0.6528  1.1761  0.3045
74550SOL     OW41641   8.708   5.195   3.438 -0.2504  0.1878  0.0888
74550SOL    HW141642   8.742   5.216   3.351  0.3049 -0.7371  0.0643
74550SOL    HW241643   8.667   5.276   3.469 -1.8319  0.1165 -1.6560
74551SOL     OW41644   0.938   5.808  13.951  0.2616  0.2449  0.1161
74551SOL    HW141645   0.894   5.854  14.023 -1.3176  1.2395 -1.4130
74551SOL    HW241646   1.023   5.782  13.988  0.5430  2.8730  1.5727
74552SOL     OW41647  10.274   5.827  11.308  0.2790  0.3017  0.0932
74552SOL    HW141648  10.264   5.903  11.366  0.3445 -0.4763  1.1684
74552SOL    HW241649  10.367   5.803  11.318  0.3751  0.3670 -0.6155
74553SOL     OW41650  12.835  10.055   4.694  0.3692  0.1734 -0.3654
74553SOL    HW141651  12.853  10.040   4.786 -0.9911  0.3287 -0.0555
74553SOL    HW241652  12.797   9.973   4.663 -0.9668  0.7235 -0.2820
74554SOL     OW41653   4.832  10.227   6.051 -0.3138 -0.0292  0.5892
74554SOL    HW141654   4.812  10.314   6.018 -0.0788 -0.4340 -0.6670
74554SOL    HW241655   4.881  10.242   6.132  2.5545  1.0862 -1.2195
74555SOL     OW41656   5.985  13.684   8.028  0.4888  0.5809 -0.3670
74555SOL    HW141657   6.037  13.606   8.010  0.4643  0.4405  0.1553
74555SOL    HW241658   5.907  13.673   7.973  0.2345 -0.0307  0.1038
74556SOL     OW41659   9.716  12.052  11.004 -0.5461  0.8896 -0.6685
74556SOL    HW141660   9.684  12.101  11.080  0.5139 -0.4139  0.6884
74556SOL    HW241661   9.699  11.960  11.026  1.7930  0.3257 -0.9900
74557SOL     OW41662   3.960   0.509   3.653 -0.1407 -0.4724 -0.1787
74557SOL    HW141663   3.917   0.593   3.633 -2.0860 -1.2336  0.6086
74557SOL    HW241664   4.008   0.526   3.734  2.8513  0.9302 -2.0357
74558SOL     OW41665   3.574   2.230   0.542  0.2801 -0.3464 -0.2553
74558SOL    HW141666   3.649   2.247   0.486  1.2921 -1.2187  0.7799
74558SOL    HW241667   3.582   2.295   0.612 -0.3645  0.0347 -0.5249
74559SOL     OW41668  10.966   5.401   8.037 -0.2831 -0.5366 -0.0188
74559SOL    HW141669  10.890   5.447   8.003  1.1689  0.1366 -2.6059
74559SOL    HW241670  11.013   5.467   8.089 -0.7170 -0.5405  0.3817
74560SOL     OW41671  11.566   7.016  11.167 -0.2399  0.3433 -0.4052
74560SOL    HW141672  11.623   6.946  11.133 -1.2560 -0.8095  0.1651
74560SOL    HW241673  11.519   7.047  11.090 -0.0876  0.1009 -0.5991
74561SOL     OW41674  13.618   2.773   8.482  0.8826  0.5014  0.0681
74561SOL    HW141675  13.686   2.788   8.547  0.1921  0.3324  0.8581
74561SOL    HW241676  13.659   2.791   8.398  1.8012  0.7075  0.5555
74562SOL     OW41677   3.620   3.706   0.962 -0.0753  0.3883  0.7523
74562SOL    HW141678   3.560   3.777   0.938 -0.9741 -0.5440  0.1691
74562SOL    HW241679   3.707   3.746   0.960 -0.6260  1.6294  1.0831
74563SOL     OW41680  10.388   2.828   3.471 -0.2987 -0.0850 -0.2883
74563SOL    HW141681  10.426   2.819   3.559  0.1661  1.2542 -0.3332
74563SOL    HW241682  10.411   2.917   3.444 -0.6125 -0.4121 -1.6936
74564SOL     OW41683   9.212   4.113   6.304  0.0251  0.5599  0.2715
74564SOL    HW141684   9.279   4.128   6.237 -1.2917  1.2809 -0.9168
74564SOL    HW241685   9.218   4.019   6.324 -0.8506 -0.1134 -2.3038
74565SOL     OW41686  10.933   5.995   1.994  0.0820  0.3006 -0.1801
74565SOL    HW141687  10.867   6.043   2.044  0.2543  0.7458 -0.3739
74565SOL    HW241688  10.983   6.063   1.949  0.7420 -0.0198  0.0487
74566SOL     OW41689   8.043   4.613   8.095  0.8307 -0.1490 -0.5057
74566SOL    HW141690   8.104   4.582   8.028  1.3948  1.5390 -0.8047
74566SOL    HW241691   8.090   4.682   8.141  0.2479 -0.8784  1.3047
74567SOL     OW41692  13.883  13.326   6.677 -0.4666  0.2611  0.3651
74567SOL    HW141693  13.941  13.276   6.735 -0.6154 -1.1578 -0.6529
74567SOL    HW241694  13.839  13.388   6.735  0.9220  0.3125  1.4127
74568SOL     OW41695   5.015   0.793   3.531 -0.1445  0.6068  0.3232
74568SOL    HW141696   4.994   0.861   3.595 -1.7304  0.7662 -0.3372
74568SOL    HW241697   5.086   0.831   3.479 -0.2900  1.3295  0.6393
74569SOL     OW41698   2.721   4.604   7.519 -0.7137  0.1597 -0.5984
74569SOL    HW141699   2.691   4.676   7.463  0.4373  0.4122 -0.9228
74569SOL    HW241700   2.656   4.599   7.589 -2.2773 -0.2744 -2.0349
74570SOL     OW41701   4.856  12.756   0.114 -0.4693  0.3041 -0.7653
74570SOL    HW141702   4.778  12.714   0.079 -0.5633 -0.7573  0.6317
74570SOL    HW241703   4.862  12.724   0.204  1.3526  0.6748 -0.7216
74571SOL     OW41704  13.843   9.624   9.309 -0.3622  0.4437  0.3879
74571SOL    HW141705  13.805   9.675   9.381 -1.4500  0.6088 -0.2741
74571SOL    HW241706  13.936   9.617   9.331 -0.4483  1.5077  1.2079
74572SOL     OW41707   0.619   8.475   3.191 -0.2662  0.9319 -0.1688
74572SOL    HW141708   0.685   8.437   3.133 -0.7399 -1.8774  0.9736
74572SOL    HW241709   0.536   8.464   3.145 -0.4534  0.1532  0.3341
74573SOL     OW41710   7.479  13.690  10.186 -0.0976 -0.0207  0.2811
74573SOL    HW141711   7.399  13.740  10.204  0.2181  0.3712  0.6382
74573SOL    HW241712   7.544  13.757  10.164 -0.0350 -0.3855 -0.6594
74574SOL     OW41713   4.207   5.366   6.091  0.1145  0.0621 -0.5848
74574SOL    HW141714   4.229   5.403   6.005  1.1183  0.1138 -0.3128
74574SOL    HW241715   4.288   5.373   6.141 -0.5382  0.2643  0.4546
74575SOL     OW41716  13.362  10.401   7.662 -0.1270  0.0305  0.1257
74575SOL    HW141717  13.410  10.401   7.580  0.6332 -2.7680  0.4557
74575SOL    HW241718  13.298  10.471   7.653  1.4413  1.2993 -1.8946
74576SOL     OW41719  12.950   7.171   2.032 -0.0262 -0.2341  0.2182
74576SOL    HW141720  12.946   7.179   2.127  0.7503 -1.3565  0.3626
74576SOL    HW241721  13.037   7.204   2.009  1.5117 -3.6965  0.3922
74577SOL     OW41722   9.201   5.189  13.144 -0.3219 -0.1513 -0.0519
74577SOL    HW141723   9.277   5.131  13.132  1.3768  2.1633 -1.0936
74577SOL    HW241724   9.153   5.184  13.062 -0.1762 -0.0585 -0.1420
74578SOL     OW41725   2.179   5.581   5.236  0.4245 -0.3377 -0.5499
74578SOL    HW141726   2.223   5.549   5.315  0.1761 -0.4448 -0.4560
74578SOL    HW241727   2.086   5.571   5.254  0.2515  1.8387  0.0911
74579SOL     OW41728   7.577  12.891  13.169  0.5630 -0.6266  0.2133
74579SOL    HW141729   7.641  12.956  13.197  0.8217 -0.9588  0.3972
74579SOL    HW241730   7.514  12.941  13.117 -0.5110  0.2199  2.1981
74580SOL     OW41731   7.877   5.745   9.123 -0.0861 -0.3923 -0.0994
74580SOL    HW141732   7.930   5.758   9.201  0.5338  0.4769 -0.6394
74580SOL    HW241733   7.787   5.740   9.155  0.1240  0.3646  0.6442
74581SOL     OW41734   6.217   5.911  12.916 -0.0243 -0.0614  0.2162
74581SOL    HW141735   6.293   5.905  12.858 -0.4961 -2.3912 -0.2437
74581SOL    HW241736   6.158   5.971  12.871 -0.5295 -2.0744 -1.9650
74582SOL     OW41737   5.819  11.571   7.557 -0.5403  0.0014  0.1506
74582SOL    HW141738   5.904  11.554   7.516  0.4470  1.0608  1.6320
74582SOL    HW241739   5.778  11.637   7.501  1.2959  2.3276  1.3204
74583SOL     OW41740   6.872  13.226  10.886  0.0024 -0.0847 -0.2457
74583SOL    HW141741   6.794  13.192  10.843 -0.1485 -0.1626  0.0830
74583SOL    HW241742   6.942  13.212  10.823 -0.4504  1.1162 -1.0582
74584SOL     OW41743   8.704   1.330   3.458 -0.1913  0.2484  0.0355
74584SOL    HW141744   8.623   1.347   3.410  0.5734  0.0683 -1.3813
74584SOL    HW241745   8.709   1.234   3.463  0.6774  0.1970 -1.2745
74585SOL     OW41746   5.873   1.163   7.324 -0.1939 -0.3511 -0.0449
74585SOL    HW141747   5.794   1.149   7.271 -2.0748  0.9763  2.1792
74585SOL    HW241748   5.879   1.085   7.379 -0.5805 -0.0215  0.4774
74586SOL     OW41749   4.591   1.693  13.027 -0.1910 -0.4128  0.5331
74586SOL    HW141750   4.549   1.677  12.942 -0.7952  1.1428  0.5190
74586SOL    HW241751   4.651   1.765  13.010 -0.8016  0.3499  1.5793
74587SOL     OW41752   9.026   3.082   5.438  0.4464 -0.4987  0.3054
74587SOL    HW141753   8.945   3.032   5.442  0.2092 -0.1644 -0.3198
74587SOL    HW241754   9.043   3.094   5.345  1.2011 -0.5401  0.4278
74588SOL     OW41755  13.312   6.773  13.063 -0.4008 -0.1131 -0.1625
74588SOL    HW141756  13.280   6.762  13.152  0.4738  0.4614  0.2374
74588SOL    HW241757  13.373   6.846  13.068 -0.7037  0.2500 -1.3327
74589SOL     OW41758   8.658   7.593   7.850 -0.4724 -0.0597 -0.0491
74589SOL    HW141759   8.638   7.504   7.877 -2.0653 -0.0294 -1.0094
74589SOL    HW241760   8.734   7.585   7.793 -1.9827 -1.1471 -2.0120
74590SOL     OW41761  10.511  11.828  13.789  0.3419 -0.1299 -0.1055
74590SOL    HW141762  10.570  11.755  13.766 -0.3158 -0.4578 -0.7886
74590SOL    HW241763  10.554  11.871  13.863  2.3392  0.6951 -1.6384
74591SOL     OW41764  11.366   1.886  12.392  0.1565 -0.1199  0.1757
74591SOL    HW141765  11.441   1.917  12.443  1.4329  0.5829 -1.9919
74591SOL    HW241766  11.386   1.794  12.374  0.5221  0.0683 -0.4055
74592SOL     OW41767  10.107  11.046   8.962 -0.5539 -0.0352 -0.0580
74592SOL    HW141768  10.040  11.048   9.030  0.0333 -0.8338  0.5703
74592SOL    HW241769  10.085  10.969   8.909 -1.2550  0.8235 -1.0540
74593SOL     OW41770   5.511  10.915  13.521  0.0811 -0.2127 -0.5072
74593SOL    HW141771   5.496  10.996  13.569  0.6891 -0.5617  0.2846
74593SOL    HW241772   5.447  10.853  13.557 -0.3095 -0.1252 -1.0341
74594SOL     OW41773   0.399   2.770  12.340  0.2207  0.2314  0.1197
74594SOL    HW141774   0.493   2.766  12.356  0.0879 -0.4706  0.7757
74594SOL    HW241775   0.391   2.809  12.253  1.1522 -0.4820 -0.3016
74595SOL     OW41776  11.433   8.472   8.456  0.3735  0.2664  0.7909
74595SOL    HW141777  11.409   8.397   8.402  0.8753  1.7768 -1.6715
74595SOL    HW241778  11.350   8.503   8.492  0.2480 -1.8948  2.5747
74596SOL     OW41779  11.220   3.887   7.211 -0.3676 -0.4326  0.2185
74596SOL    HW141780  11.314   3.907   7.211  0.0158 -2.1013  0.4880
74596SOL    HW241781  11.209   3.823   7.281 -1.4111 -1.5136 -0.8807
74597SOL     OW41782   7.630   0.510  12.808 -0.3535 -0.1772 -0.1337
74597SOL    HW141783   7.675   0.552  12.882 -2.0846 -1.1763  1.5691
74597SOL    HW241784   7.691   0.443  12.778  1.3863  1.7734 -1.2643
74598SOL     OW41785   4.748  10.486   7.519  0.2422 -0.3648  0.4626
74598SOL    HW141786   4.843  10.482   7.511  0.2442 -0.4317  0.5238
74598SOL    HW241787   4.718  10.399   7.496  0.0444  0.1917 -1.6091
74599SOL     OW41788   2.339   2.889   0.877 -0.1056 -0.5466 -0.1664
74599SOL    HW141789   2.335   2.807   0.926  2.5206 -0.3480  0.5376
74599SOL    HW241790   2.289   2.952   0.929  1.2348 -0.7565  1.4587
74600SOL     OW41791   0.034   5.453   9.960 -0.7623 -0.2031 -0.4497
74600SOL    HW141792  -0.025   5.527   9.971 -0.7447  0.2104 -2.6394
74600SOL    HW241793   0.041   5.442   9.865  1.8613 -0.8910 -0.2555
74601SOL     OW41794   4.645   8.404  10.178 -0.4317  0.2702 -0.6738
74601SOL    HW141795   4.597   8.337  10.129 -0.3478 -1.5790  1.6396
74601SOL    HW241796   4.584   8.478  10.184 -0.6116  0.3976 -3.0685
74602SOL     OW41797  12.446   0.581  13.418  0.3080 -0.2999 -1.4154
74602SOL    HW141798  12.484   0.537  13.342 -0.8368 -0.0777 -2.1411
74602SOL    HW241799  12.354   0.593  13.395 -0.3818 -1.3724  0.5179
74603SOL     OW41800  12.224   9.085  10.788  0.1002 -0.6331 -0.3148
74603SOL    HW141801  12.213   9.070  10.882 -1.7745  0.0295 -0.3805
74603SOL    HW241802  12.186   9.172  10.774 -0.7145 -1.2084 -1.8608
74604SOL     OW41803   6.450   9.799   0.822  0.1283 -0.5255  0.0082
74604SOL    HW141804   6.415   9.733   0.882  1.1765  0.2941  1.5804
74604SOL    HW241805   6.471   9.750   0.742  0.5273 -2.0106  0.9832
74605SOL     OW41806   5.085   3.336  11.776 -0.0724 -0.4719  0.6382
74605SOL    HW141807   5.137   3.301  11.704 -1.0707 -0.9254  0.1155
74605SOL    HW241808   5.128   3.418  11.800  0.1449 -0.2074 -0.6245
74606SOL     OW41809  13.090   9.875   8.853  0.1480 -0.1923  0.3413
74606SOL    HW141810  13.052   9.962   8.868 -0.6785  0.0295 -2.4091
74606SOL    HW241811  13.023   9.828   8.803  1.2949 -1.7750  0.2245
74607SOL     OW41812   7.497   9.161   4.113  0.2823 -0.1463  1.1421
74607SOL    HW141813   7.569   9.215   4.147  0.5387 -1.1971  2.3433
74607SOL    HW241814   7.517   9.152   4.019  0.4079  1.5394  0.9820
74608SOL     OW41815   9.346   8.929   7.714 -0.4768 -0.3073  0.6279
74608SOL    HW141816   9.367   8.962   7.626  1.5991 -2.0028  0.4213
74608SOL    HW241817   9.311   9.005   7.760  2.1805  1.6966 -0.4159
74609SOL     OW41818  13.631  12.277   9.773 -0.3403 -0.2308  0.0519
74609SOL    HW141819  13.674  12.224   9.840 -2.3501 -1.1020  0.7190
74609SOL    HW241820  13.681  12.261   9.694  1.9719  0.6606  1.2491
74610SOL     OW41821   7.051   2.663   8.361  0.4390  0.1820  0.3302
74610SOL    HW141822   7.124   2.601   8.362  1.1516  1.0075  0.7006
74610SOL    HW241823   7.052   2.699   8.272 -1.5409 -2.0886 -0.7357
74611SOL     OW41824   1.422   8.584   5.672 -0.3478 -0.1869 -0.5312
74611SOL    HW141825   1.376   8.659   5.710 -0.8883  0.1943 -1.8635
74611SOL    HW241826   1.514   8.610   5.670 -0.4614  0.2268 -0.4961
74612SOL     OW41827   5.896   9.259   3.424  0.3221 -0.5564  0.1794
74612SOL    HW141828   5.875   9.166   3.421 -0.1250 -0.4224 -1.7680
74612SOL    HW241829   5.990   9.262   3.446 -0.1282 -1.3401  2.5407
74613SOL     OW41830   6.032  13.873  10.769 -0.2242 -0.5887 -0.1242
74613SOL    HW141831   6.122  13.849  10.791  0.0483  1.5041  1.4123
74613SOL    HW241832   5.991  13.792  10.740  2.0282 -1.6756 -0.4521
74614SOL     OW41833  10.367  12.063   3.441  0.2920  0.7580 -0.1103
74614SOL    HW141834  10.298  12.127   3.423 -1.0310 -0.8642 -1.1154
74614SOL    HW241835  10.429  12.073   3.368  0.0236  0.7939 -0.3325
74615SOL     OW41836   8.651  10.265   7.227 -0.1300 -0.6211 -0.1972
74615SOL    HW141837   8.606  10.232   7.149 -1.1876 -0.2690  0.2493
74615SOL    HW241838   8.612  10.217   7.300  0.1929 -0.2891  0.2039
74616SOL     OW41839   6.160  10.692  10.784 -0.1765 -0.1373  0.1064
74616SOL    HW141840   6.190  10.708  10.874 -0.9567 -1.2204  0.5894
74616SOL    HW241841   6.086  10.751  10.773 -0.3352 -0.2903  0.3310
74617SOL     OW41842   5.792   0.109   6.902  0.3347 -0.1838  0.3823
74617SOL    HW141843   5.839   0.153   6.831 -0.2432  0.1879  0.2274
74617SOL    HW241844   5.774   0.178   6.966  2.5317 -0.8605  1.8195
74618SOL     OW41845   0.374   6.366   7.298  0.4773 -0.0688  0.1117
74618SOL    HW141846   0.288   6.329   7.319  0.1329  0.1473 -0.8883
74618SOL    HW241847   0.355   6.440   7.241  1.3718 -0.6095 -0.9358
74619SOL     OW41848   5.677   7.130  14.115  0.3416 -0.3051 -0.3919
74619SOL    HW141849   5.697   7.159  14.025 -3.0065  1.5516 -0.7101
74619SOL    HW241850   5.627   7.203  14.152 -0.6335 -2.1228  2.0876
74620SOL     OW41851   5.153   9.630   6.380  0.0590  0.5950 -1.1714
74620SOL    HW141852   5.140   9.724   6.368  0.6163  0.7256 -0.8252
74620SOL    HW241853   5.221   9.608   6.316 -0.5119  0.3029 -1.6793
74621SOL     OW41854  11.367   7.309   4.431 -0.4458  0.2228  0.3063
74621SOL    HW141855  11.402   7.238   4.486 -0.1239  0.3923  0.3263
74621SOL    HW241856  11.413   7.299   4.348  1.5106  1.9112  1.0874
74622SOL     OW41857   4.313   5.615   7.358  0.4067  0.5979 -0.3468
74622SOL    HW141858   4.248   5.685   7.368  1.2337  1.5161 -1.1351
74622SOL    HW241859   4.380   5.653   7.301  1.6133 -0.3314  0.4098
74623SOL     OW41860  10.152   4.776   5.594  0.3829 -0.7023  0.1370
74623SOL    HW141861  10.140   4.811   5.506  1.0399  1.0055  0.6878
74623SOL    HW241862  10.196   4.692   5.580 -1.2899 -1.4303 -1.2289
74624SOL     OW41863  11.550   0.839   1.101 -0.1804 -0.0094  0.0370
74624SOL    HW141864  11.624   0.887   1.065  1.4846 -0.8815  2.0846
74624SOL    HW241865  11.500   0.810   1.025  1.0948  1.3307 -1.3695
74625SOL     OW41866   5.995   7.323   7.420 -0.4087 -0.4186 -0.4575
74625SOL    HW141867   6.059   7.391   7.399  0.0770 -0.3641  1.0383
74625SOL    HW241868   5.912   7.356   7.386 -0.1221  0.7751 -0.0387
74626SOL     OW41869   9.862   5.140   2.857  0.1999 -0.5854 -0.2273
74626SOL    HW141870   9.940   5.134   2.912 -0.9254 -1.6932  1.3143
74626SOL    HW241871   9.862   5.060   2.805  0.8377  0.0960 -1.3281
74627SOL     OW41872   0.103   5.664   6.654 -0.0087 -0.5678  0.1953
74627SOL    HW141873   0.092   5.727   6.583 -0.7042 -0.4395  0.4111
74627SOL    HW241874   0.069   5.582   6.619 -1.1259 -0.3165  0.6466
74628SOL     OW41875  10.349   5.877   1.297 -0.1615 -0.3520  0.0104
74628SOL    HW141876  10.438   5.844   1.309 -0.6212 -1.1783  1.4068
74628SOL    HW241877  10.315   5.829   1.221  0.7619  0.4176 -0.9166
74629SOL     OW41878   8.357   5.271  11.876 -0.2359  0.5451 -0.1313
74629SOL    HW141879   8.426   5.216  11.838 -0.5381  0.2311 -0.2266
74629SOL    HW241880   8.346   5.236  11.965 -1.9668 -0.9984 -0.9054
74630SOL     OW41881  11.109  10.738  13.072 -0.4341 -0.6104 -0.0272
74630SOL    HW141882  11.052  10.785  13.011 -3.2095 -0.1182  2.6693
74630SOL    HW241883  11.163  10.806  13.111  0.1499 -0.6727 -0.7163
74631SOL     OW41884   5.804   7.842   4.170  0.0708 -0.1892 -0.7347
74631SOL    HW141885   5.834   7.863   4.081  0.1908  1.0658 -0.4192
74631SOL    HW241886   5.769   7.924   4.203 -1.0863 -0.9417 -0.0440
74632SOL     OW41887   3.252   2.262  14.095 -0.0076  0.1216 -0.1642
74632SOL    HW141888   3.159   2.248  14.083 -0.0056 -0.8946  0.8309
74632SOL    HW241889   3.276   2.206  14.170  1.6292 -0.6113 -1.1698
74633SOL     OW41890   4.776  11.690   9.153  0.8433  0.9726 -0.0016
74633SOL    HW141891   4.688  11.727   9.144  0.5883  0.3107 -0.2763
74633SOL    HW241892   4.815  11.698   9.066  0.9802  1.0724  0.0678
74634SOL     OW41893   2.115  14.053   3.227  0.4960 -0.0337 -0.0914
74634SOL    HW141894   2.061  13.991   3.276 -0.2047  0.7151  0.1137
74634SOL    HW241895   2.072  14.060   3.141 -1.6072  2.7971  1.0046
74635SOL     OW41896   0.345  12.699   9.763  0.3866 -0.3988 -0.1148
74635SOL    HW141897   0.375  12.608   9.774 -0.8123 -0.8415 -0.3420
74635SOL    HW241898   0.291  12.715   9.841  0.2225 -0.0359 -0.3044
74636SOL     OW41899   2.767   6.899  13.081  0.1950 -0.1955 -0.1719
74636SOL    HW141900   2.675   6.924  13.086  0.3038  0.0600  0.7661
74636SOL    HW241901   2.790   6.910  12.989 -0.3484  1.0429 -0.1763
74637SOL     OW41902  13.054   5.487   0.460  0.3715 -0.0644  0.7296
74637SOL    HW141903  13.011   5.573   0.462  1.1678  0.3524  0.4780
74637SOL    HW241904  13.100   5.482   0.544  1.3117  0.2880  0.2541
74638SOL     OW41905   1.683   9.365   1.360  0.2855 -0.2340 -0.1885
74638SOL    HW141906   1.599   9.410   1.347  1.4333  2.0444 -0.0886
74638SOL    HW241907   1.719   9.355   1.272 -0.5002 -2.1959 -0.3470
74639SOL     OW41908  11.850   6.761  13.459 -0.1653  0.6108  0.1822
74639SOL    HW141909  11.870   6.853  13.477  0.4003  0.5259  0.0213
74639SOL    HW241910  11.876   6.748  13.368  1.3037 -0.1059  0.6733
74640SOL     OW41911   6.022   6.777   7.037 -0.2915 -0.5552 -0.2439
74640SOL    HW141912   6.024   6.750   7.129 -1.1915  0.6844  0.1725
74640SOL    HW241913   6.007   6.872   7.041 -3.7415 -0.9084 -1.6912
74641SOL     OW41914   9.892  10.575   3.938 -0.3614  0.4683 -0.7893
74641SOL    HW141915   9.859  10.531   4.017 -0.6753  0.5411 -0.8792
74641SOL    HW241916   9.980  10.540   3.927 -0.9359 -0.8635 -1.3947
74642SOL     OW41917   7.839   7.352  11.500 -0.3593 -0.5343  0.2870
74642SOL    HW141918   7.750   7.353  11.465 -0.2147 -0.3595 -0.0868
74642SOL    HW241919   7.865   7.444  11.500 -0.6740 -0.4189  1.7015
74643SOL     OW41920   6.762   8.598  10.836 -0.1164  0.2016 -0.1796
74643SOL    HW141921   6.795   8.509  10.837 -0.4184  0.0177 -2.4804
74643SOL    HW241922   6.839   8.653  10.854  0.4923 -0.4273 -0.8488
74644SOL     OW41923  13.135   8.553   6.424 -0.5258  0.3806  0.2839
74644SOL    HW141924  13.176   8.612   6.361  1.6766  0.5506  1.7948
74644SOL    HW241925  13.185   8.472   6.418 -0.8879  0.0780  1.1710
74645SOL     OW41926   9.836   5.222   1.377 -0.2877  0.3358  0.2029
74645SOL    HW141927   9.773   5.196   1.444  0.7285  0.0829  1.1079
74645SOL    HW241928   9.798   5.299   1.336 -1.3464 -0.0336  0.4602
74646SOL     OW41929   0.357   7.341   8.207 -0.5761 -0.6021  0.1504
74646SOL    HW141930   0.432   7.373   8.157 -0.3850 -0.0425  0.7775
74646SOL    HW241931   0.318   7.274   8.152  0.4326 -0.9571 -0.1463
74647SOL     OW41932   6.197   2.427   3.545 -0.2770  0.0543 -0.1118
74647SOL    HW141933   6.135   2.369   3.501 -0.5960  1.4516 -1.6175
74647SOL    HW241934   6.152   2.511   3.550  0.8636  0.6724  0.2772
74648SOL     OW41935   0.462   1.000   2.655 -0.5262  0.4404  0.1280
74648SOL    HW141936   0.370   0.979   2.639 -0.7128  2.0158 -1.1503
74648SOL    HW241937   0.510   0.952   2.587 -0.5028  0.4593  0.1313
74649SOL     OW41938   5.997  13.812  13.868  0.0052  0.2842 -0.2688
74649SOL    HW141939   6.075  13.761  13.846 -0.9088 -0.9251 -0.8354
74649SOL    HW241940   5.943  13.810  13.789 -0.2874  1.7462 -0.1449
74650SOL     OW41941   0.872  14.073   7.547  0.4558  0.2033 -0.5119
74650SOL    HW141942   0.796  14.120   7.511 -0.8823 -0.4153  1.3695
74650SOL    HW241943   0.845  13.981   7.550  1.5764 -0.1454 -0.4822
74651SOL     OW41944  10.403  13.145   4.144 -0.2010 -0.3407 -0.1439
74651SOL    HW141945  10.418  13.139   4.049 -1.1375 -0.5147 -0.2949
74651SOL    HW241946  10.342  13.073   4.162 -0.0073 -0.3214  0.6001
74652SOL     OW41947   6.183   4.073   0.398  0.2759  0.1446  0.1880
74652SOL    HW141948   6.102   4.090   0.349  0.9961 -3.3284 -2.6276
74652SOL    HW241949   6.155   4.018   0.472  0.0144 -1.6344 -1.1632
74653SOL     OW41950   6.551   9.644   2.321  0.0218 -0.3381 -0.1612
74653SOL    HW141951   6.560   9.645   2.226  0.4734  0.0437 -0.1220
74653SOL    HW241952   6.532   9.553   2.343 -1.8005 -0.1265 -0.7478
74654SOL     OW41953  13.880   6.524   4.761 -0.2905 -0.2681 -0.4505
74654SOL    HW141954  13.830   6.523   4.843 -1.8413 -2.2891 -1.3019
74654SOL    HW241955  13.817   6.552   4.695  0.5941  0.1355 -1.1439
74655SOL     OW41956  10.979   5.963  10.446  0.3233 -0.1750  0.3228
74655SOL    HW141957  11.031   5.888  10.475 -0.5202 -0.9259 -0.0780
74655SOL    HW241958  10.970   6.017  10.525  2.4564  0.4444  0.1949
74656SOL     OW41959  12.558  11.950   3.094  0.0005 -0.4575  0.1374
74656SOL    HW141960  12.604  11.884   3.145  0.9115  0.2078  0.1830
74656SOL    HW241961  12.522  12.011   3.159  1.5093  0.6195 -0.0010
74657SOL     OW41962  12.766   6.656   1.776  0.1971  0.1509  0.0893
74657SOL    HW141963  12.860   6.661   1.758 -0.0460  1.3719 -0.9678
74657SOL    HW241964  12.731   6.599   1.708  0.3421 -1.5889  1.3870
74658SOL     OW41965   0.909   4.167   7.988 -0.0850 -0.2550 -0.0686
74658SOL    HW141966   0.833   4.127   8.031 -0.3365 -0.7997 -0.9882
74658SOL    HW241967   0.977   4.099   7.990  1.7393  1.4010  4.0314
74659SOL     OW41968  10.105   3.038   3.069  0.1244 -0.3628 -0.0524
74659SOL    HW141969  10.118   2.951   3.106 -0.8804  0.8172  3.5099
74659SOL    HW241970  10.010   3.049   3.067  0.2497  0.9989  0.5022
74660SOL     OW41971   0.823   0.941   6.488 -0.4819 -0.4907 -0.3503
74660SOL    HW141972   0.898   0.924   6.546 -1.2952  0.2933  0.9953
74660SOL    HW241973   0.786   0.854   6.472  1.3106 -1.0129 -1.9325
74661SOL     OW41974  13.783   1.411   8.376 -0.4154 -0.2871 -0.2066
74661SOL    HW141975  13.852   1.348   8.395 -1.6256 -1.1144  1.8050
74661SOL    HW241976  13.757   1.392   8.286  0.7572 -1.1541 -0.3822
74662SOL     OW41977   7.124   9.896  14.083  0.2067  0.8025  0.1255
74662SOL    HW141978   7.176   9.972  14.111 -1.0248  1.7821 -0.1896
74662SOL    HW241979   7.062   9.931  14.020 -3.5757  0.5538  3.3134
74663SOL     OW41980   7.356   6.650   0.048  0.4330  0.3720  0.1160
74663SOL    HW141981   7.441   6.613   0.025 -0.1416 -0.7699 -0.2349
74663SOL    HW241982   7.369   6.689   0.134  0.7589 -1.7826  1.1061
74664SOL     OW41983   9.570  12.205   2.641 -0.2780  0.0311 -0.2285
74664SOL    HW141984   9.620  12.205   2.559 -0.0732 -1.6992 -0.1301
74664SOL    HW241985   9.627  12.249   2.704  1.0536 -1.6491 -0.1928
74665SOL     OW41986  12.088  10.105  13.466  0.2005  0.0281 -0.1510
74665SOL    HW141987  12.109  10.195  13.490 -1.3140  1.0491 -2.2917
74665SOL    HW241988  12.173  10.061  13.458  1.0138  1.5362 -0.0025
74666SOL     OW41989  12.762   5.228   0.001 -0.5961  1.0647 -0.0424
74666SOL    HW141990  12.687   5.230  -0.058 -1.1378  0.1274  0.5865
74666SOL    HW241991  12.727   5.260   0.084 -0.1103  1.3290  0.0622
74667SOL     OW41992  13.834  11.840   2.093  0.1085 -0.0319  0.4774
74667SOL    HW141993  13.827  11.801   2.006 -2.3151  0.5459  0.3296
74667SOL    HW241994  13.796  11.774   2.151 -0.3557  0.4733  0.7609
74668SOL     OW41995  12.393   9.300   7.664  0.1915  0.3353 -0.0281
74668SOL    HW141996  12.374   9.317   7.572  0.0860 -0.6126 -0.1962
74668SOL    HW241997  12.307   9.295   7.706 -0.1803 -3.9720 -0.7925
74669SOL     OW41998  10.538   2.405   7.899 -0.0025  0.0608  0.0623
74669SOL    HW141999  10.574   2.317   7.886  0.0479 -0.0533  0.9341
74669SOL    HW242000  10.466   2.393   7.960  0.1514  0.6636  0.3681
74670SOL     OW42001   1.443  12.897   4.491 -0.1578 -0.1179  0.0856
74670SOL    HW142002   1.392  12.933   4.419 -2.2560 -1.6387  0.7085
74670SOL    HW242003   1.431  12.960   4.562 -0.8086 -0.2429  0.0899
74671SOL     OW42004  12.332  11.048   3.241 -0.2195 -0.0922 -0.6799
74671SOL    HW142005  12.404  11.111   3.249  0.1391 -0.6990  2.0026
74671SOL    HW242006  12.265  11.093   3.190  0.8393  1.6709 -0.5918
74672SOL     OW42007   5.180   4.696   9.540  0.5405 -0.0531  0.0706
74672SOL    HW142008   5.138   4.709   9.455 -0.1571  0.0616  0.4271
74672SOL    HW242009   5.236   4.619   9.527 -0.3685 -0.6934 -0.2086
74673SOL     OW42010  11.122  13.367  12.914  0.0321 -0.4441  0.0399
74673SOL    HW142011  11.169  13.327  12.841 -2.2679 -3.3170 -0.0625
74673SOL    HW242012  11.165  13.333  12.992 -0.4815 -1.3376 -0.0475
74674SOL     OW42013  10.525  11.241  13.429  0.4413  0.3871 -0.0825
74674SOL    HW142014  10.454  11.304  13.434  0.3821  0.2484  1.0233
74674SOL    HW242015  10.598  11.289  13.389  0.3460  1.1027  0.6019
74675SOL     OW42016   0.299   9.928   7.549 -0.5653  0.2089  0.7092
74675SOL    HW142017   0.298   9.833   7.559 -0.8924  0.2516  1.1169
74675SOL    HW242018   0.367   9.944   7.483 -0.3188 -0.2865  0.8350
74676SOL     OW42019   6.212   9.358   9.628 -0.3996  0.4391 -0.0132
74676SOL    HW142020   6.157   9.400   9.694 -0.5071 -0.5270  0.5255
74676SOL    HW242021   6.227   9.270   9.661  0.9881  0.4846 -0.4379
74677SOL     OW42022   7.081   0.629   1.848  0.0106 -0.4648 -0.0850
74677SOL    HW142023   7.063   0.705   1.793  1.3553 -0.0707 -0.0291
74677SOL    HW242024   7.153   0.584   1.804  0.0193 -1.0441  0.5056
74678SOL     OW42025   6.764   2.224   2.927 -0.3029 -0.1572  0.6981
74678SOL    HW142026   6.675   2.260   2.927 -0.7097 -1.0238  2.8157
74678SOL    HW242027   6.821   2.300   2.942 -0.5183  0.5753 -1.7148
74679SOL     OW42028   8.738   2.690   9.777  0.2990  0.4890 -0.3851
74679SOL    HW142029   8.712   2.728   9.693 -0.1091  1.4804  0.1737
74679SOL    HW242030   8.761   2.599   9.756 -2.3027 -0.0868 -1.1662
74680SOL     OW42031   9.572   0.998  13.043  0.0032  0.5832  0.0161
74680SOL    HW142032   9.555   1.001  13.137 -1.2219  0.1807 -0.1816
74680SOL    HW242033   9.579   1.090  13.017 -2.1967  0.8327  0.0896
74681SOL     OW42034  13.965   2.435   5.344 -0.2757 -0.1357  0.8985
74681SOL    HW142035  14.057   2.459   5.353 -0.6241  0.9122  1.8151
74681SOL    HW242036  13.957   2.402   5.254  0.6170  1.4973  0.1805
74682SOL     OW42037   6.534  12.305   9.880 -0.1506 -0.2308 -0.3574
74682SOL    HW142038   6.535  12.259   9.964  0.5091 -1.2691 -0.9047
74682SOL    HW242039   6.526  12.397   9.903 -0.7924 -0.5568  0.8095
74683SOL     OW42040   7.863   0.542  10.846 -0.1702  0.3360 -0.2051
74683SOL    HW142041   7.836   0.500  10.928  2.2968 -0.0028  0.5458
74683SOL    HW242042   7.826   0.487  10.777  0.0943 -1.0846  0.7321
74684SOL     OW42043  11.802   5.784  13.486 -0.1379  0.0196 -0.3288
74684SOL    HW142044  11.839   5.758  13.401 -2.0781  0.3883 -1.3627
74684SOL    HW242045  11.788   5.702  13.532  0.2927 -0.2397 -0.6478
74685SOL     OW42046   2.722  11.989  13.139  0.2925  0.2699 -0.0936
74685SOL    HW142047   2.715  11.893  13.145 -0.6672  0.3339  0.0267
74685SOL    HW242048   2.657  12.021  13.201 -0.3700  0.9928 -1.1345
74686SOL     OW42049   4.741  10.533   5.031 -0.1604  0.3504 -0.5350
74686SOL    HW142050   4.796  10.526   4.954 -0.5526  0.5317 -0.8367
74686SOL    HW242051   4.800  10.516   5.105  0.3484  0.7912 -0.8334
74687SOL     OW42052   9.441   5.076   7.858 -0.3147 -0.2467 -0.2253
74687SOL    HW142053   9.498   5.135   7.907  2.3246 -1.0861 -2.0027
74687SOL    HW242054   9.502   5.027   7.801 -2.7666 -1.9186 -1.5885
74688SOL     OW42055   0.024  10.949   4.684 -0.3102  0.3272 -1.1793
74688SOL    HW142056   0.064  11.026   4.644  1.8934  0.5412  1.2066
74688SOL    HW242057   0.089  10.918   4.746 -3.3004 -0.1994  1.9584
74689SOL     OW42058   8.774  13.840   2.559  1.0362  0.5633  0.2928
74689SOL    HW142059   8.797  13.846   2.652  3.0359 -0.6404 -0.0706
74689SOL    HW242060   8.680  13.823   2.559  0.2013  4.1722  1.9274
74690SOL     OW42061   3.680   1.172   2.756  0.3775 -0.0939 -0.0518
74690SOL    HW142062   3.687   1.262   2.724 -1.4085  0.1475  0.1471
74690SOL    HW242063   3.770   1.138   2.752  1.3238  2.1076  1.1555
74691SOL     OW42064   4.467   5.755  10.464  0.1560 -0.0059 -0.1792
74691SOL    HW142065   4.398   5.748  10.398 -0.5628  1.8702  0.3111
74691SOL    HW242066   4.478   5.666  10.497 -0.7791 -0.6451 -1.5033
74692SOL     OW42067  10.016   0.935   8.211 -0.3249 -0.1279  0.3635
74692SOL    HW142068  10.018   1.025   8.178  0.5046  0.0985  0.9848
74692SOL    HW242069  10.098   0.926   8.260 -0.7513 -0.9818  0.9424
74693SOL     OW42070  11.367   5.826   3.497 -0.0650  0.3756  0.1603
74693SOL    HW142071  11.442   5.866   3.541  0.0001  0.5546 -0.1134
74693SOL    HW242072  11.294   5.843   3.557 -0.1547  1.4509 -0.2375
74694SOL     OW42073  10.604   6.129   6.227 -0.0919 -0.3420  0.0453
74694SOL    HW142074  10.675   6.076   6.192 -0.5882  0.6874 -2.7823
74694SOL    HW242075  10.534   6.066   6.246  1.5324 -1.4310  3.2976
74695SOL     OW42076   0.244   5.955   9.575  0.6441 -0.0533  0.9810
74695SOL    HW142077   0.220   6.030   9.520 -1.8495 -2.6783 -1.8607
74695SOL    HW242078   0.333   5.932   9.546  0.7776  0.7726  0.6931
74696SOL     OW42079   8.008   8.263  13.530 -0.3983  0.0463 -0.6195
74696SOL    HW142080   7.998   8.344  13.480  1.3124 -0.6357 -2.1460
74696SOL    HW242081   7.929   8.213  13.511 -0.6514  0.6137 -1.0737
74697SOL     OW42082   1.577   2.490   1.598  0.0041  0.8376 -0.6984
74697SOL    HW142083   1.582   2.535   1.514  2.7715  4.0443  0.9285
74697SOL    HW242084   1.658   2.439   1.604 -0.8860 -0.6158 -0.5356
74698SOL     OW42085   9.485  10.847   6.486 -0.1680  0.5234 -0.1070
74698SOL    HW142086   9.497  10.786   6.559 -2.1878  0.0797 -0.0729
74698SOL    HW242087   9.493  10.793   6.408 -0.4654  0.4992 -0.1229
74699SOL     OW42088  10.893  13.231   6.847 -0.3090 -0.3265  0.4934
74699SOL    HW142089  10.819  13.186   6.889  0.0182  0.2593  1.7661
74699SOL    HW242090  10.916  13.300   6.909 -0.5772  1.3894 -1.2164
74700SOL     OW42091   6.289   7.056   6.954 -0.2216  0.4065  0.6683
74700SOL    HW142092   6.307   6.963   6.937 -0.8142  0.2714  0.7660
74700SOL    HW242093   6.260   7.091   6.870 -1.1704  0.2145  0.9040
74701SOL     OW42094   3.342   5.750  10.807  0.3381 -0.1145  0.1052
74701SOL    HW142095   3.353   5.834  10.763  0.5171  0.1342  0.6086
74701SOL    HW242096   3.291   5.697  10.746  0.1025  0.4067 -0.1583
74702SOL     OW42097   7.360  13.049   1.432  0.5913  0.6832  0.2013
74702SOL    HW142098   7.392  13.135   1.408  1.0097  0.1417 -1.2786
74702SOL    HW242099   7.432  12.989   1.412 -0.5817 -0.3112 -1.2879
74703SOL     OW42100   8.490   6.301   1.385  0.4328  0.4573 -0.2794
74703SOL    HW142101   8.470   6.314   1.478 -0.2311  0.9014 -0.4767
74703SOL    HW242102   8.584   6.318   1.378  0.7524 -0.7595  0.5139
74704SOL     OW42103   6.453   1.557   8.610  0.6882  0.2487  0.8788
74704SOL    HW142104   6.497   1.516   8.536  0.0403  0.5416  0.3152
74704SOL    HW242105   6.499   1.525   8.687  1.0288 -0.4831  0.3742
74705SOL     OW42106  11.780   4.514  11.993  0.7180 -0.7111 -0.0652
74705SOL    HW142107  11.847   4.581  11.976 -0.9896  0.7321 -1.5206
74705SOL    HW242108  11.729   4.510  11.912 -1.7346 -0.8126  1.3959
74706SOL     OW42109   6.456   9.568  11.541 -0.2448  0.0228  0.2506
74706SOL    HW142110   6.373   9.523  11.531 -0.7157  0.9512 -0.1020
74706SOL    HW242111   6.445   9.652  11.495  1.1423 -0.1656 -0.5078
74707SOL     OW42112   2.561   5.333   6.881 -0.4340  0.1096  0.0562
74707SOL    HW142113   2.468   5.355   6.879 -0.3478  0.4802 -0.8402
74707SOL    HW242114   2.605   5.417   6.866  0.0271 -0.1189  0.1175
74708SOL     OW42115   0.910  11.717   2.351  0.5167  0.1861  0.3972
74708SOL    HW142116   0.960  11.636   2.363  1.6407  0.9241  0.8022
74708SOL    HW242117   0.829  11.688   2.308  1.0965 -1.0849  0.1024
74709SOL     OW42118  11.881   2.154   7.747 -0.4600 -0.0394  0.3944
74709SOL    HW142119  11.820   2.100   7.797  0.5478 -1.9011 -0.3178
74709SOL    HW242120  11.857   2.139   7.655 -1.1996  2.0295  0.1873
74710SOL     OW42121   4.891   1.752   4.735  0.0661 -0.6248  0.2765
74710SOL    HW142122   4.856   1.768   4.823 -0.9431  0.6801 -0.3156
74710SOL    HW242123   4.985   1.769   4.743 -0.5018  3.4119  0.3536
74711SOL     OW42124  10.607   2.004  11.619 -0.3112  0.2561  0.4523
74711SOL    HW142125  10.620   2.065  11.547 -0.5633 -1.1388 -0.8217
74711SOL    HW242126  10.520   2.024  11.652 -0.5394  0.3503 -0.1925
74712SOL     OW42127   1.207   2.265   1.889  0.6409  0.3379  0.4377
74712SOL    HW142128   1.241   2.342   1.935 -1.9507  1.8063  0.1227
74712SOL    HW242129   1.190   2.295   1.800 -0.9325 -0.4081  0.4513
74713SOL     OW42130  13.405   5.350   5.602 -0.3959 -0.4331  0.3887
74713SOL    HW142131  13.354   5.412   5.550  1.9126  2.0260  0.8462
74713SOL    HW242132  13.395   5.380   5.692  2.0326  0.3729  0.4544
74714SOL     OW42133   8.847  12.392   4.371 -0.1189  0.0631 -0.0638
74714SOL    HW142134   8.862  12.328   4.440  2.4381 -0.4873 -1.0152
74714SOL    HW242135   8.913  12.460   4.387 -0.0086  0.3196 -1.5036
74715SOL     OW42136   4.195   8.793   8.330  0.3185 -0.4072 -0.3200
74715SOL    HW142137   4.115   8.790   8.277  0.4009  0.5351 -0.5088
74715SOL    HW242138   4.261   8.828   8.271  0.3072  1.0936  0.5236
74716SOL     OW42139   9.850   6.924   7.898  0.6496 -0.6494  0.8578
74716SOL    HW142140   9.943   6.931   7.917  0.7750  0.2432 -0.0421
74716SOL    HW242141   9.807   6.938   7.983  1.2310  2.4609  0.7461
74717SOL     OW42142   4.301  11.036   3.359 -0.0231 -0.0551  0.7146
74717SOL    HW142143   4.306  10.944   3.333 -0.6902 -0.3381  1.5044
74717SOL    HW242144   4.210  11.060   3.342  0.3745  0.7342 -0.3323
74718SOL     OW42145   3.673   6.798   9.442  0.3911 -0.0163 -0.4073
74718SOL    HW142146   3.691   6.706   9.428 -1.0760 -0.3717 -0.1319
74718SOL    HW242147   3.730   6.844   9.380  0.7678 -1.1166 -0.8928
74719SOL     OW42148   4.876   8.918  10.820  0.0221 -0.0926  0.5043
74719SOL    HW142149   4.892   8.823  10.821  0.2545 -0.0507  1.2140
74719SOL    HW242150   4.963   8.957  10.828 -0.1652  0.1643  1.3634
74720SOL     OW42151   7.692  12.775   2.106 -0.2436 -0.5252 -0.0247
74720SOL    HW142152   7.725  12.696   2.149 -3.1691 -0.5873  2.4622
74720SOL    HW242153   7.690  12.841   2.175 -0.0030  1.1027 -1.4986
74721SOL     OW42154   2.608  10.080   8.617  0.7743  0.7495  0.1409
74721SOL    HW142155   2.570  10.029   8.689  2.2870 -0.9115 -0.1828
74721SOL    HW242156   2.629  10.015   8.550  2.7735  1.7742 -0.2956
74722SOL     OW42157   1.427  14.052   3.230  0.2697 -0.5582  0.0042
74722SOL    HW142158   1.375  14.076   3.154  1.3855 -0.1079 -0.6464
74722SOL    HW242159   1.419  13.957   3.236  1.7114 -0.8445 -1.8739
74723SOL     OW42160  12.350   2.839   3.336 -0.0574 -0.1330 -0.7305
74723SOL    HW142161  12.369   2.747   3.354  1.5922  0.2839 -0.0720
74723SOL    HW242162  12.293   2.866   3.408  1.5724 -0.0384  0.6149
74724SOL     OW42163   3.324   1.613   4.319  0.0923  0.2017 -0.1268
74724SOL    HW142164   3.286   1.692   4.357  0.6388 -0.0178  0.9235
74724SOL    HW242165   3.281   1.603   4.234 -0.5961  1.1494  0.1030
74725SOL     OW42166   4.693   8.943   4.825 -0.3290  0.0044  0.0172
74725SOL    HW142167   4.702   8.977   4.914  0.2817  1.2631 -0.4884
74725SOL    HW242168   4.699   8.848   4.834  2.3883  0.2003  1.0600
74726SOL     OW42169  12.559   4.126  11.020  0.3501  0.1368 -0.3524
74726SOL    HW142170  12.652   4.139  11.001  0.3309 -0.6040 -1.0288
74726SOL    HW242171  12.519   4.211  11.002  1.0265  0.7469  0.8899
74727SOL     OW42172   5.256   3.142  11.419  0.1535 -0.0629 -0.6865
74727SOL    HW142173   5.220   3.059  11.449 -1.4540  1.3363  1.5359
74727SOL    HW242174   5.191   3.176  11.357 -0.2224  0.4764 -0.0025
74728SOL     OW42175   6.041   9.148   5.692 -0.2490  0.2565 -0.6955
74728SOL    HW142176   6.042   9.078   5.758 -0.6890  1.4640  0.6493
74728SOL    HW242177   6.013   9.105   5.612 -0.0815 -1.1927 -0.0129
74729SOL     OW42178  12.458   1.836   0.431  0.4173  0.1213 -0.2048
74729SOL    HW142179  12.529   1.776   0.456  0.0651 -0.5005 -0.6957
74729SOL    HW242180  12.472   1.913   0.487  0.7315 -0.5093  0.5991
74730SOL     OW42181   8.832   9.236   3.448 -0.2497  0.6729 -0.1064
74730SOL    HW142182   8.758   9.220   3.507 -1.1491  2.8736 -0.5397
74730SOL    HW242183   8.801   9.204   3.363  0.3854 -0.9188  0.2389
74731SOL     OW42184   2.478  12.552   3.608  0.1463  0.3291 -0.1044
74731SOL    HW142185   2.429  12.564   3.527 -1.5410  1.8154  1.0309
74731SOL    HW242186   2.449  12.468   3.642 -1.7638  1.1825  0.5443
74732SOL     OW42187   3.877   1.062   2.529 -0.0055  0.0850  0.0646
74732SOL    HW142188   3.844   0.973   2.517  2.3040 -0.5776 -2.5696
74732SOL    HW242189   3.900   1.068   2.621 -0.1376 -2.1095  0.2731
74733SOL     OW42190   1.961   3.517   6.558 -0.2586  0.1260 -0.1625
74733SOL    HW142191   1.990   3.505   6.467 -0.9848  1.3127 -0.5833
74733SOL    HW242192   1.865   3.511   6.553 -0.4569  2.1859  0.1384
74734SOL     OW42193  11.022   2.276   2.687  0.8136  0.2337 -0.1358
74734SOL    HW142194  11.096   2.243   2.739 -0.1136  1.1275  1.8558
74734SOL    HW242195  11.015   2.368   2.713 -0.3555  0.4209 -1.0801
74735SOL     OW42196   0.325   0.182  13.576  0.0466  0.1006 -0.0832
74735SOL    HW142197   0.289   0.153  13.492  2.7736 -0.6718 -1.1064
74735SOL    HW242198   0.342   0.101  13.624  0.4038  0.4241  0.3441
74736SOL     OW42199   3.559  12.630   3.213 -0.9205 -0.2950 -0.1855
74736SOL    HW142200   3.526  12.580   3.288  0.0328 -0.3715  0.2020
74736SOL    HW242201   3.500  12.705   3.206 -0.4516  0.2619  1.2976
74737SOL     OW42202   1.622   7.360   5.727 -0.3532  0.2601  0.0189
74737SOL    HW142203   1.695   7.320   5.681 -0.7276  0.6270 -0.9286
74737SOL    HW242204   1.663   7.423   5.786  0.0730  2.3851 -2.3578
74738SOL     OW42205  13.628   3.626   3.068  0.1443  0.3129  0.5134
74738SOL    HW142206  13.545   3.579   3.070 -0.1952  0.7359 -1.3594
74738SOL    HW242207  13.606   3.712   3.032  1.4526  0.2231 -0.5914
74739SOL     OW42208   0.697   4.070   6.214  0.0261 -0.1913  0.1288
74739SOL    HW142209   0.653   4.019   6.283 -1.5313  0.4044 -0.3647
74739SOL    HW242210   0.745   4.138   6.262 -0.0331 -0.5223  0.6732
74740SOL     OW42211   0.384   9.791   2.843  0.6181  0.2098  0.5180
74740SOL    HW142212   0.376   9.874   2.890  0.9488 -0.2257  1.3653
74740SOL    HW242213   0.293   9.763   2.829  0.4966  0.8930 -0.1158
74741SOL     OW42214   1.667   3.927  11.496 -0.0087  0.2137 -0.1162
74741SOL    HW142215   1.653   3.950  11.404  1.2557 -0.0687 -0.3968
74741SOL    HW242216   1.581   3.898  11.527 -0.7230  1.4259 -0.8687
74742SOL     OW42217   5.980   7.799   3.170  0.2088  0.1580 -0.1814
74742SOL    HW142218   5.915   7.847   3.220 -1.4379 -0.8410 -1.2656
74742SOL    HW242219   6.035   7.757   3.237  1.4419  3.0691  0.7843
74743SOL     OW42220  11.867   7.907   5.590 -0.0588 -0.1015 -0.3738
74743SOL    HW142221  11.891   7.983   5.644 -0.9864 -0.9302  1.2727
74743SOL    HW242222  11.944   7.850   5.594  0.2862  0.3207 -0.8457
74744SOL     OW42223   6.246  12.461  14.102 -0.5515 -0.2206  0.0894
74744SOL    HW142224   6.204  12.409  14.171 -0.6709 -0.1219  0.0903
74744SOL    HW242225   6.199  12.544  14.103 -0.0574  0.0640  0.4050
74745SOL     OW42226  11.388   0.159   8.965  0.0434 -0.0356  0.3807
74745SOL    HW142227  11.295   0.182   8.971  0.2704  0.9626  0.2860
74745SOL    HW242228  11.434   0.241   8.983  0.9009 -0.3982 -0.0977
74746SOL     OW42229   3.409  12.666  10.372  0.1469  0.1746 -0.4718
74746SOL    HW142230   3.352  12.743  10.359 -0.4903 -0.3214 -0.7059
74746SOL    HW242231   3.482  12.699  10.424  0.3119  1.1346 -1.2749
74747SOL     OW42232  13.723   7.162   2.027 -0.2723  0.1846  0.8423
74747SOL    HW142233  13.751   7.254   2.034 -1.1489  0.3560  2.5419
74747SOL    HW242234  13.805   7.112   2.032  0.0854  0.8174  1.4784
74748SOL     OW42235  10.754  10.981   3.578 -0.2728  0.8279  0.2223
74748SOL    HW142236  10.710  10.918   3.521  0.5850 -0.2389  0.7170
74748SOL    HW242237  10.684  11.042   3.604 -1.2854 -0.3567  0.3550
74749SOL     OW42238  13.183  11.061   9.631  0.5007 -0.1773  0.3399
74749SOL    HW142239  13.191  11.136   9.571  0.5421 -0.8504 -0.5156
74749SOL    HW242240  13.172  10.986   9.573  1.3455 -0.9517  1.1636
74750SOL     OW42241  12.145   4.901   7.021 -0.2661  0.4255 -0.4179
74750SOL    HW142242  12.163   4.818   7.065  1.3983 -0.2784 -2.2459
74750SOL    HW242243  12.057   4.891   6.986 -0.5689 -0.0493  0.4580
74751SOL     OW42244   5.164   2.859   1.738 -0.1388 -0.0192  0.4799
74751SOL    HW142245   5.236   2.836   1.798  0.7199 -0.0748 -0.5381
74751SOL    HW242246   5.201   2.929   1.683 -0.4216 -0.8918 -0.8693
74752SOL     OW42247   8.257   6.270   9.941 -0.5504 -0.1608 -0.2637
74752SOL    HW142248   8.240   6.306   9.854 -1.2418  0.1974  0.0133
74752SOL    HW242249   8.170   6.248   9.976 -0.3720  0.6173  0.7185
74753SOL     OW42250   6.569   4.760   6.509 -0.3715  0.2930  0.5128
74753SOL    HW142251   6.552   4.854   6.497  0.7760  0.7317  2.0451
74753SOL    HW242252   6.485   4.725   6.537 -1.1872  0.5562 -1.3999
74754SOL     OW42253   1.721   5.355  13.989  0.1149 -0.3726 -0.6876
74754SOL    HW142254   1.797   5.308  14.022  0.2121 -0.9889 -1.7478
74754SOL    HW242255   1.711   5.430  14.049  0.2025 -1.4916  0.7911
74755SOL     OW42256   0.985   5.764  13.062  0.3093 -0.1426 -0.1905
74755SOL    HW142257   1.041   5.840  13.043 -0.6183  0.3388 -1.0775
74755SOL    HW242258   1.046   5.698  13.095  1.5017  0.1998 -1.5822
74756SOL     OW42259  11.341  11.463  12.240  0.5085  0.1631 -0.0129
74756SOL    HW142260  11.303  11.502  12.160  0.7722 -1.7893 -1.1418
74756SOL    HW242261  11.313  11.522  12.310 -2.7050  0.1190 -1.0655
74757SOL     OW42262   2.967   7.409   2.102  0.0368 -0.3624 -0.1227
74757SOL    HW142263   2.906   7.425   2.174 -1.9194 -0.6199 -1.6388
74757SOL    HW242264   2.913   7.410   2.023  1.9516 -0.9912 -1.5446
74758SOL     OW42265   6.928   3.800  13.907 -0.0156  0.2960  0.0550
74758SOL    HW142266   6.998   3.742  13.880  1.1717  1.4252  0.5898
74758SOL    HW242267   6.915   3.781  14.000 -0.4982  0.0094 -0.0695
74759SOL     OW42268   3.192   5.163  11.460 -0.5462  0.8512  0.4134
74759SOL    HW142269   3.135   5.150  11.536 -0.8621 -1.7757 -0.1932
74759SOL    HW242270   3.234   5.079  11.446  2.5927  2.3328  0.0161
74760SOL     OW42271   2.580   7.077   8.377 -0.4939  0.1677  0.1837
74760SOL    HW142272   2.484   7.073   8.377 -0.5051 -0.1701  1.3892
74760SOL    HW242273   2.608   6.986   8.382 -0.2141  0.3133  3.0697
74761SOL     OW42274   0.360   8.732   4.341 -0.4516 -0.2508  0.2144
74761SOL    HW142275   0.345   8.656   4.286  0.5380 -0.4310  0.1777
74761SOL    HW242276   0.320   8.710   4.425  2.4971 -2.1833  1.2692
74762SOL     OW42277   6.992   0.240   0.741  0.3763 -0.5327 -0.7686
74762SOL    HW142278   6.930   0.278   0.803  0.9738 -0.9484  0.0911
74762SOL    HW242279   7.046   0.182   0.793  1.3495 -0.3569 -1.5575
74763SOL     OW42280   5.963   7.903   9.852  0.5589 -0.0363 -0.2560
74763SOL    HW142281   5.925   7.982   9.812  3.0159  1.2143 -0.3036
74763SOL    HW242282   5.907   7.885   9.927 -0.3702  1.4401 -0.5510
74764SOL     OW42283   7.014   9.960   9.930  0.5932 -0.6034  0.3258
74764SOL    HW142284   6.921   9.944   9.949 -0.2116  1.8245 -1.0909
74764SOL    HW242285   7.015   9.989   9.839  2.2891  2.2610  1.1256
74765SOL     OW42286   0.267  13.266   6.071  0.4032  0.0396  0.0967
74765SOL    HW142287   0.195  13.212   6.037 -0.9125 -0.5863  3.4535
74765SOL    HW242288   0.237  13.356   6.060 -0.3212 -0.1788  0.1973
74766SOL     OW42289   1.668   4.934   5.711  0.4241 -0.5088 -0.5856
74766SOL    HW142290   1.646   4.974   5.795 -0.0597 -2.4733  0.2732
74766SOL    HW242291   1.631   4.994   5.646 -2.6317 -0.7959  0.6990
74767SOL     OW42292   7.024   2.430   9.927 -0.1431  0.1409 -0.0578
74767SOL    HW142293   6.989   2.433  10.016  2.1624  0.8651  0.9101
74767SOL    HW242294   7.090   2.362   9.929 -0.5526 -0.3295 -1.4500
74768SOL     OW42295  12.694   8.552   6.845  0.4881 -0.3211 -0.1263
74768SOL    HW142296  12.706   8.460   6.864 -0.4293 -0.4615 -0.1797
74768SOL    HW242297  12.773   8.578   6.799  0.8226 -1.0377  0.0442
74769SOL     OW42298   9.478  12.368   0.928 -0.6365 -0.0545 -0.4165
74769SOL    HW142299   9.484  12.406   1.016  0.4977 -0.7952 -0.1562
74769SOL    HW242300   9.565  12.379   0.891 -0.5564 -1.4712 -0.7191
74770SOL     OW42301   7.647  14.084  11.577 -0.0948  0.0056  0.1260
74770SOL    HW142302   7.609  14.167  11.550 -0.6128 -0.2026  0.2003
74770SOL    HW242303   7.628  14.079  11.671 -2.6234 -1.4792 -0.3473
74771SOL     OW42304   7.395  13.407   6.353  0.3571 -0.3030 -0.1298
74771SOL    HW142305   7.428  13.444   6.434  1.9542  0.1381 -0.9440
74771SOL    HW242306   7.323  13.350   6.380  0.5007  0.2576  1.5247
74772SOL     OW42307   4.463   1.885  12.631 -0.0551  0.3361  0.0228
74772SOL    HW142308   4.429   1.801  12.662  1.9409 -0.5636 -0.0442
74772SOL    HW242309   4.495   1.929  12.710  0.5588  0.2198 -0.1582
74773SOL     OW42310  13.940   0.341   1.614 -0.8787 -0.6253 -0.1162
74773SOL    HW142311  13.965   0.285   1.688 -1.4959 -0.7919 -0.0333
74773SOL    HW242312  13.854   0.309   1.588  0.2545 -2.1105 -2.3734
74774SOL     OW42313  13.884   8.481   1.988 -0.4471  0.6264  0.4491
74774SOL    HW142314  13.863   8.471   1.895  0.7334  1.2269  0.0951
74774SOL    HW242315  13.846   8.404   2.030 -1.1135  0.4144 -0.5114
74775SOL     OW42316  11.825   6.652   9.620 -0.0225 -1.1099 -0.3222
74775SOL    HW142317  11.867   6.590   9.560 -2.3471 -2.2655 -0.8854
74775SOL    HW242318  11.858   6.737   9.592  2.2362 -1.9377 -0.4048
74776SOL     OW42319   1.751  13.932   0.013  0.0897  0.2072 -0.2122
74776SOL    HW142320   1.664  13.968  -0.001 -0.3833 -0.7869  0.0655
74776SOL    HW242321   1.788  13.984   0.084  0.2731  1.5355 -1.2468
74777SOL     OW42322   9.796   3.071  11.049 -0.2325 -0.0097 -0.0865
74777SOL    HW142323   9.754   2.991  11.079 -2.0969  0.9599  0.0645
74777SOL    HW242324   9.732   3.110  10.989  0.6262  1.3427 -0.1600
74778SOL     OW42325  10.790   5.072   7.394  0.1395  0.0451 -0.5791
74778SOL    HW142326  10.809   4.998   7.451 -0.4493  1.7397  2.0393
74778SOL    HW242327  10.696   5.087   7.404  0.1408  0.8088 -1.4839
74779SOL     OW42328   7.757   1.901   4.282 -0.0878  0.0434  0.1507
74779SOL    HW142329   7.833   1.931   4.332  0.0739 -0.2967  0.1121
74779SOL    HW242330   7.685   1.955   4.313 -0.9477 -2.7603  3.8055
74780SOL     OW42331  12.549   9.385  10.039 -0.0470 -0.0596 -0.2636
74780SOL    HW142332  12.484   9.416   9.976  0.5907  0.5332 -0.6455
74780SOL    HW242333  12.498   9.358  10.115 -0.8707 -1.1976 -1.1840
74781SOL     OW42334   4.261   4.814   9.400  0.0896  0.6693  0.1574
74781SOL    HW142335   4.189   4.852   9.350  0.1706 -1.2558 -1.5541
74781SOL    HW242336   4.244   4.840   9.491 -3.4157 -0.6138  0.0208
74782SOL     OW42337   1.606  10.137  13.874 -0.0572 -0.0178 -0.4293
74782SOL    HW142338   1.580  10.200  13.807  0.9326  1.3842  0.4538
74782SOL    HW242339   1.695  10.112  13.851  0.0511 -0.0325 -0.0027
74783SOL     OW42340  10.237  11.859  12.726 -0.0409 -0.0460  0.3000
74783SOL    HW142341  10.162  11.799  12.726 -1.5089  1.6375 -2.0882
74783SOL    HW242342  10.208  11.934  12.675  2.7481  1.4299  0.6918
74784SOL     OW42343   3.212  13.545  13.306  0.0243 -0.4340 -0.4944
74784SOL    HW142344   3.141  13.582  13.359  0.3344 -0.4301 -0.0803
74784SOL    HW242345   3.270  13.619  13.289  0.7487 -0.7571  0.5028
74785SOL     OW42346   9.085   1.679   5.567 -0.9210 -0.5503  0.2231
74785SOL    HW142347   9.064   1.588   5.543 -0.1213 -0.2773 -1.6239
74785SOL    HW242348   9.000   1.721   5.576 -1.2802 -1.2124  0.0243
74786SOL     OW42349   8.700   3.328   0.242  0.3531 -0.7048  0.3316
74786SOL    HW142350   8.657   3.243   0.259 -0.8046 -0.4143 -0.9285
74786SOL    HW242351   8.786   3.305   0.209  0.4005 -1.3677  0.8833
74787SOL     OW42352  10.852   5.345  11.859 -0.1794 -0.5328  0.2184
74787SOL    HW142353  10.853   5.255  11.826 -2.2356 -1.0799  1.4766
74787SOL    HW242354  10.928   5.386  11.818  1.4108 -3.1049  0.3747
74788SOL     OW42355   2.532   4.760  13.532  0.2684 -0.2172 -0.8959
74788SOL    HW142356   2.594   4.689  13.516  0.0439 -0.5180 -0.4403
74788SOL    HW242357   2.563   4.832  13.476  0.6045 -0.6076 -1.2195
74789SOL     OW42358   0.340   0.927   7.972 -0.0048 -0.2809 -0.4419
74789SOL    HW142359   0.270   0.904   7.911 -1.1778  1.1825  0.3267
74789SOL    HW242360   0.311   0.893   8.057 -0.0080  0.7462 -0.0264
74790SOL     OW42361   5.816   4.546   1.092 -0.1985 -0.0214 -0.1426
74790SOL    HW142362   5.811   4.505   1.006 -1.0211 -2.7384  1.1052
74790SOL    HW242363   5.908   4.574   1.100  1.1198 -3.8044 -0.2188
74791SOL     OW42364   2.829   0.475  13.269 -0.4052  0.5522  0.0316
74791SOL    HW142365   2.802   0.423  13.344 -0.2698 -0.5120 -0.6348
74791SOL    HW242366   2.775   0.443  13.197  0.5395  0.4556 -0.6588
74792SOL     OW42367   5.321   9.757   5.938  0.1754 -0.3630  0.6532
74792SOL    HW142368   5.382   9.814   5.985 -0.2200  0.1902  0.5025
74792SOL    HW242369   5.350   9.761   5.847  0.5722 -0.9570  0.7492
74793SOL     OW42370   3.915   7.280   6.077  0.6721 -0.3791  0.0598
74793SOL    HW142371   3.871   7.338   6.139 -1.1925 -0.7917 -0.8273
74793SOL    HW242372   3.900   7.192   6.110 -2.2780 -0.7974 -2.0063
74794SOL     OW42373   7.614  12.225   4.624  0.0936 -0.6213 -0.4310
74794SOL    HW142374   7.535  12.172   4.634 -1.2557  1.3459 -0.2166
74794SOL    HW242375   7.606  12.264   4.537  0.7134 -0.1998 -0.3092
74795SOL     OW42376   8.445   3.922   6.988 -0.1741  0.2399 -0.4694
74795SOL    HW142377   8.426   3.964   6.904  0.5218  0.8997 -0.3091
74795SOL    HW242378   8.412   3.833   6.979  0.9845 -0.0756 -1.8835
74796SOL     OW42379   8.665  11.457   4.422 -0.0324 -0.0289 -0.6688
74796SOL    HW142380   8.696  11.516   4.354 -2.0465 -0.1574 -1.7848
74796SOL    HW242381   8.628  11.514   4.490  0.6343  0.0603 -0.3791
74797SOL     OW42382  12.619   2.141   6.634  0.4609  0.0650  0.2133
74797SOL    HW142383  12.641   2.234   6.643  0.3798  0.0601  0.4911
74797SOL    HW242384  12.653   2.101   6.714 -0.4203  0.0401  0.5921
74798SOL     OW42385   3.412   0.826  12.661  0.0781 -0.7627  0.1382
74798SOL    HW142386   3.350   0.873  12.716  0.0082  0.9154 -1.2936
74798SOL    HW242387   3.380   0.838  12.572  3.0259  1.2433 -0.8099
74799SOL     OW42388   3.580   6.388   1.131  0.3025 -0.2302 -0.0093
74799SOL    HW142389   3.559   6.390   1.225  0.7832 -0.9354  0.1187
74799SOL    HW242390   3.559   6.477   1.100  1.0398  0.2968  0.9584
74800SOL     OW42391   3.479  12.706   0.339  0.2501 -0.3176  0.1381
74800SOL    HW142392   3.400  12.682   0.292  0.4604  2.8243 -2.1780
74800SOL    HW242393   3.461  12.794   0.373  2.5503  0.3180 -0.1019
74801SOL     OW42394  13.386   5.166   6.893  0.4215  0.6518  0.2975
74801SOL    HW142395  13.369   5.260   6.879  0.9417  0.6549 -0.3509
74801SOL    HW242396  13.393   5.157   6.988 -0.5613  1.1051  0.4328
74802SOL     OW42397   5.773   9.012  12.087  0.3150  0.2844 -0.1324
74802SOL    HW142398   5.759   8.955  12.163 -0.6493 -0.2940 -0.7271
74802SOL    HW242399   5.809   9.092  12.124 -0.0227 -0.0327  0.9206
74803SOL     OW42400   0.660  11.421  11.880 -0.8411  0.0631  0.0188
74803SOL    HW142401   0.608  11.481  11.827 -1.1002 -1.0493 -1.0066
74803SOL    HW242402   0.732  11.475  11.914 -1.7139  1.2161  0.0870
74804SOL     OW42403   2.837  10.904   1.931 -0.0977  0.0537  0.4182
74804SOL    HW142404   2.929  10.884   1.914 -0.3464 -0.8823  0.1376
74804SOL    HW242405   2.828  10.997   1.910  0.8949  0.2726  0.9379
74805SOL     OW42406  11.162   5.117  13.812 -0.2127  0.0393 -0.2571
74805SOL    HW142407  11.235   5.075  13.857  0.6203  0.1745 -1.4187
74805SOL    HW242408  11.133   5.185  13.872 -1.9690 -2.4521  1.9320
74806SOL     OW42409   3.729  10.051  12.429  0.8000 -0.1708 -0.3483
74806SOL    HW142410   3.655  10.106  12.403  1.7095  2.1862  1.6408
74806SOL    HW242411   3.706   9.963  12.397 -1.4894  1.0069 -2.2531
74807SOL     OW42412  11.078  10.805   3.353 -0.6769 -0.7556  0.0928
74807SOL    HW142413  11.144  10.800   3.423 -1.4234 -2.2478  0.7602
74807SOL    HW242414  11.034  10.720   3.357 -0.6840 -0.9305 -2.2887
74808SOL     OW42415  10.461  10.820   2.136  0.5356 -0.3862  0.1194
74808SOL    HW142416  10.366  10.830   2.131  0.4781 -0.9448  0.0006
74808SOL    HW242417  10.495  10.909   2.132  0.0142 -0.1787  0.2238
74809SOL     OW42418   7.290   5.769   1.856  0.1227 -0.4080  0.1706
74809SOL    HW142419   7.258   5.858   1.871  3.3647  0.6883  1.5567
74809SOL    HW242420   7.252   5.717   1.927 -0.0182  0.4179  0.7112
74810SOL     OW42421   8.976  12.779   3.437 -0.5359  0.1948 -0.0216
74810SOL    HW142422   9.070  12.765   3.421 -0.3650  1.7873 -0.5706
74810SOL    HW242423   8.943  12.692   3.460  1.2893 -0.1988  1.3552
74811SOL     OW42424   2.335   8.322   3.574 -0.1212  0.6155 -0.0025
74811SOL    HW142425   2.360   8.414   3.581 -0.8080  0.8452 -0.5582
74811SOL    HW242426   2.240   8.321   3.588 -0.4641  0.2493 -2.0867
74812SOL     OW42427  12.710   3.983   4.461  0.4145  0.1035 -0.6310
74812SOL    HW142428  12.625   4.021   4.436  0.7810  1.2237 -0.2354
74812SOL    HW242429  12.689   3.892   4.483 -0.4845  0.0300 -1.6587
74813SOL     OW42430   0.736   9.234  13.555 -0.5631  0.5304  0.2540
74813SOL    HW142431   0.641   9.247  13.560 -0.9031 -1.2922 -0.4507
74813SOL    HW242432   0.746   9.152  13.507  1.3778  0.4753  0.6715
74814SOL     OW42433   5.882   6.547  12.941  0.2240 -0.0653  0.2545
74814SOL    HW142434   5.939   6.481  12.981 -0.2058 -0.0538  0.9064
74814SOL    HW242435   5.835   6.499  12.873 -1.9043 -1.1075  2.3149
74815SOL     OW42436   4.619  11.224   8.690  0.1061 -0.5473  0.2273
74815SOL    HW142437   4.660  11.259   8.769 -0.6566  0.3141  0.2540
74815SOL    HW242438   4.689  11.225   8.624  0.3452  0.1289  0.4868
74816SOL     OW42439   5.897  10.375   3.823  0.2264  0.1924  0.7272
74816SOL    HW142440   5.941  10.427   3.890 -1.0440  0.5941  1.2667
74816SOL    HW242441   5.930  10.286   3.836  1.9085  0.6998  0.2258
74817SOL     OW42442   7.027  10.099   4.821  0.0102  0.1988 -0.0683
74817SOL    HW142443   7.000  10.041   4.749 -0.3584 -0.5579  0.6665
74817SOL    HW242444   6.963  10.084   4.890 -0.0580  1.4491  0.1722
74818SOL     OW42445   8.011   9.998   6.787 -0.3745  0.1194 -0.4210
74818SOL    HW142446   7.929  10.025   6.830 -0.5498 -0.8997 -0.0702
74818SOL    HW242447   8.078  10.011   6.854 -0.2982  0.6363 -0.5947
74819SOL     OW42448  13.538   7.358   8.470  0.4690  0.7546 -0.2187
74819SOL    HW142449  13.501   7.444   8.487 -1.1934  0.8137 -3.2958
74819SOL    HW242450  13.612   7.375   8.411 -0.5722  0.0758 -1.7799
74820SOL     OW42451   8.546   8.796   2.321  0.2961 -0.1947 -0.2605
74820SOL    HW142452   8.538   8.887   2.291  0.0826 -0.4367 -0.9671
74820SOL    HW242453   8.553   8.803   2.416  1.4513  0.6284 -0.3838
74821SOL     OW42454   9.607   9.091   6.142 -0.3986 -0.0019  0.3742
74821SOL    HW142455   9.590   9.165   6.200 -0.1720  0.3411  0.0093
74821SOL    HW242456   9.540   9.026   6.165  1.4833 -1.1254  3.0848
74822SOL     OW42457   0.831   9.474   2.386  0.2496  0.1209 -0.1465
74822SOL    HW142458   0.815   9.564   2.413 -0.9800  0.0621 -0.6190
74822SOL    HW242459   0.819   9.474   2.291  0.6236 -0.4651 -0.2021
74823SOL     OW42460   6.070   9.405  11.184  0.1085 -0.1647  0.4217
74823SOL    HW142461   6.049   9.312  11.196 -0.5033 -0.0022  0.6227
74823SOL    HW242462   6.001   9.437  11.125 -1.5431  0.8757  2.7678
74824SOL     OW42463   2.688   1.597   1.303  0.0446 -0.2340 -0.5254
74824SOL    HW142464   2.738   1.539   1.360  1.2876  0.4584 -0.8776
74824SOL    HW242465   2.704   1.685   1.337 -0.1619  0.0834 -1.2210
74825SOL     OW42466   7.941   4.663  10.543 -0.2410 -0.6096  0.0772
74825SOL    HW142467   8.000   4.590  10.524  0.1005 -0.5571  0.8928
74825SOL    HW242468   7.911   4.692  10.457 -1.0946 -2.2822 -0.2470
74826SOL     OW42469   2.278   4.238  12.087  0.4148 -0.7230  0.3668
74826SOL    HW142470   2.188   4.260  12.065  1.1404  1.3173 -0.7620
74826SOL    HW242471   2.296   4.158  12.038  0.0370  0.3436 -1.6195
74827SOL     OW42472  11.279   7.063   1.468  0.0978  0.1059 -0.1459
74827SOL    HW142473  11.362   7.054   1.514  1.5406  2.6715 -2.0149
74827SOL    HW242474  11.297   7.033   1.379 -1.5861 -1.1629 -0.1185
74828SOL     OW42475   9.181  13.492  12.049  0.5473 -0.2577  0.3036
74828SOL    HW142476   9.141  13.446  11.975 -0.0789 -2.7336  2.0886
74828SOL    HW242477   9.153  13.444  12.126 -0.1169  3.1404  2.3974
74829SOL     OW42478   1.370   0.558   9.075 -0.0250  0.2702  0.2229
74829SOL    HW142479   1.295   0.600   9.033  0.2558  1.0509  0.4948
74829SOL    HW242480   1.366   0.467   9.044 -0.3818  0.5909 -0.7139
74830SOL     OW42481  13.573   4.541   1.788  0.2359  0.1082 -0.1836
74830SOL    HW142482  13.485   4.559   1.755  0.4312  0.8972 -0.3173
74830SOL    HW242483  13.570   4.450   1.817 -0.2390 -0.3057 -1.4413
74831SOL     OW42484   4.330   1.127  10.448 -0.5494  0.1492 -0.0412
74831SOL    HW142485   4.395   1.121  10.377 -1.0075  1.7230 -0.6305
74831SOL    HW242486   4.246   1.111  10.405 -0.8980  1.7717 -0.0151
74832SOL     OW42487  12.175   8.096  12.836  0.4403 -0.2804  0.5115
74832SOL    HW142488  12.229   8.119  12.761  0.0898 -0.2099  0.2777
74832SOL    HW242489  12.107   8.163  12.839 -0.6185 -1.2632 -0.2104
74833SOL     OW42490   4.160  10.250  13.925 -0.1472  0.0615 -0.0363
74833SOL    HW142491   4.135  10.325  13.871  1.2917  0.6901  0.1229
74833SOL    HW242492   4.134  10.273  14.014  0.2892  0.3613  0.0113
74834SOL     OW42493  13.462   6.537   2.872  0.0933 -0.2453  0.8900
74834SOL    HW142494  13.508   6.541   2.789 -0.3040  0.0339  0.6770
74834SOL    HW242495  13.512   6.476   2.925  1.0755  0.5366  0.8919
74835SOL     OW42496   1.908   4.650   0.059 -0.0581 -0.2928 -0.6359
74835SOL    HW142497   1.837   4.711   0.042  0.9468  1.2013  0.3146
74835SOL    HW242498   1.986   4.692   0.022  1.1392  0.3735  2.3469
74836SOL     OW42499   3.708   9.458   4.790  0.3474  0.0751 -0.6885
74836SOL    HW142500   3.754   9.492   4.866 -0.8116 -0.5239  0.3088
74836SOL    HW242501   3.643   9.525   4.770  1.1810  0.6232 -1.7021
74837SOL     OW42502   8.902   1.217   0.107 -0.3673 -0.0189  0.2556
74837SOL    HW142503   8.907   1.284   0.039  1.7990  0.6107  0.9594
74837SOL    HW242504   8.873   1.264   0.185 -0.2914 -0.1950  0.3921
74838SOL     OW42505  10.749   0.563  11.018 -0.1870  0.2630 -0.1515
74838SOL    HW142506  10.800   0.512  10.956 -2.5594 -1.5340 -0.7559
74838SOL    HW242507  10.755   0.514  11.100  0.0190  0.6919  0.0929
74839SOL     OW42508  10.984  11.377   7.972  1.0246 -0.6138  0.4740
74839SOL    HW142509  11.058  11.340   8.020  1.0514 -1.8516 -0.4806
74839SOL    HW242510  10.912  11.377   8.034  1.8705  0.9405  1.5394
74840SOL     OW42511   7.183   1.918   9.856 -0.1019  0.5752 -0.0738
74840SOL    HW142512   7.247   1.963   9.912  0.2464  0.2111 -0.1705
74840SOL    HW242513   7.236   1.859   9.802 -0.3943  1.1490 -1.0154
74841SOL     OW42514  13.787  13.659  13.094  0.5487  0.3843  0.5577
74841SOL    HW142515  13.794  13.716  13.017 -1.6964  1.0603  0.7703
74841SOL    HW242516  13.852  13.590  13.079 -0.9770 -0.5218 -2.8701
74842SOL     OW42517  10.134   3.992  11.625 -0.0061 -0.0178 -0.2535
74842SOL    HW142518  10.226   4.006  11.647  0.1305  2.2454 -1.8246
74842SOL    HW242519  10.103   3.927  11.687  2.5424 -0.5257  0.5853
74843SOL     OW42520   8.446   3.186  10.057 -0.1074 -0.5580  0.0240
74843SOL    HW142521   8.373   3.209  10.115  0.0686  1.7638 -0.5792
74843SOL    HW242522   8.404   3.156   9.976 -0.4818  1.6017 -0.6435
74844SOL     OW42523   1.458   3.339  11.983 -0.4927  0.5281  0.3636
74844SOL    HW142524   1.540   3.338  12.032  0.1748  0.2061 -0.7482
74844SOL    HW242525   1.460   3.421  11.934 -0.0133 -0.2791 -1.0119
74845SOL     OW42526   9.337   6.809   1.459  0.1945 -0.0534 -0.0206
74845SOL    HW142527   9.266   6.803   1.395  0.6634  0.6852 -0.6306
74845SOL    HW242528   9.309   6.877   1.520 -0.4489 -1.0567  0.8361
74846SOL     OW42529   9.722  10.183   8.504  0.4634 -0.8656 -0.0203
74846SOL    HW142530   9.653  10.122   8.529 -0.9469  0.8440  0.5524
74846SOL    HW242531   9.756  10.150   8.421 -1.8697 -1.1705 -0.9241
74847SOL     OW42532   1.653   4.083   4.245 -0.4182  0.5414  0.1277
74847SOL    HW142533   1.630   4.163   4.291 -1.4160  0.7466 -0.7111
74847SOL    HW242534   1.609   4.014   4.295 -2.5204  0.8792 -1.1645
74848SOL     OW42535   2.587   8.783   5.114  0.3233  0.6377  0.1898
74848SOL    HW142536   2.589   8.757   5.206 -0.8047 -1.3822 -0.2741
74848SOL    HW242537   2.563   8.875   5.115 -2.1530  0.0871  1.9046
74849SOL     OW42538   3.416   3.486   6.342 -0.1777 -0.0288 -0.0536
74849SOL    HW142539   3.462   3.412   6.302 -1.9316 -0.5717 -1.1493
74849SOL    HW242540   3.331   3.450   6.368 -0.6249  1.3458  0.4413
74850SOL     OW42541   6.124  13.932  10.449 -0.2618 -0.3021 -0.0677
74850SOL    HW142542   6.131  13.971  10.536 -0.1237 -0.2814 -0.0882
74850SOL    HW242543   6.209  13.948  10.409 -0.6632  0.6326 -0.5985
74851SOL     OW42544  12.630   7.066   5.437  0.0637 -0.3431 -0.2972
74851SOL    HW142545  12.599   7.152   5.409 -0.1798 -0.8809 -1.8015
74851SOL    HW242546  12.693   7.085   5.507 -1.9235  0.8790  1.2411
74852SOL     OW42547  13.577  11.841  13.103  0.0563  0.0485  0.4868
74852SOL    HW142548  13.582  11.751  13.071 -0.7097  0.6270 -1.4068
74852SOL    HW242549  13.667  11.872  13.101  0.3385 -0.6729  1.2405
74853SOL     OW42550  13.198   0.746   4.637  0.2710 -0.1026 -0.4482
74853SOL    HW142551  13.168   0.760   4.548  0.7040 -0.8078 -0.7173
74853SOL    HW242552  13.192   0.652   4.650 -0.6558  0.0812  0.5924
74854SOL     OW42553  12.007   7.331  13.414  0.8643  0.2777 -0.0344
74854SOL    HW142554  12.016   7.404  13.353  1.5067 -0.0045 -0.2903
74854SOL    HW242555  11.927   7.287  13.387  0.8002  0.5296 -0.2625
74855SOL     OW42556   8.963  12.018   0.906  0.2222 -0.5724  0.4660
74855SOL    HW142557   8.995  12.099   0.945 -0.9695  0.1737 -0.0641
74855SOL    HW242558   8.906  12.046   0.835 -1.4912 -1.8299  1.2932
74856SOL     OW42559   6.854  13.810   6.374  0.3142 -0.3444 -0.6636
74856SOL    HW142560   6.852  13.904   6.389  1.0454  0.1119 -2.9221
74856SOL    HW242561   6.933  13.796   6.321  1.1421 -2.4805  0.9668
74857SOL     OW42562   4.494  11.956  13.112  0.0331  0.5235 -0.5106
74857SOL    HW142563   4.465  11.910  13.033  1.0312 -0.7302 -0.1847
74857SOL    HW242564   4.414  11.971  13.162 -0.5031  0.5712 -1.3613
74858SOL     OW42565  11.556   1.894  12.824  0.5146  0.2657 -0.2105
74858SOL    HW142566  11.609   1.851  12.891 -0.1074 -0.5265 -0.2049
74858SOL    HW242567  11.554   1.986  12.850  0.3863 -0.0053  0.7953
74859SOL     OW42568   8.209   0.293   4.338 -0.0493  0.0825  0.3130
74859SOL    HW142569   8.148   0.367   4.343 -0.5050 -0.3765  3.3141
74859SOL    HW242570   8.295   0.333   4.342 -0.2212  0.5552 -0.5003
74860SOL     OW42571  12.959   0.377   1.214 -0.2098 -0.2406 -0.3539
74860SOL    HW142572  13.034   0.412   1.166  0.8838 -3.3232 -1.0999
74860SOL    HW242573  12.888   0.374   1.150  0.3575 -1.4375 -0.9608
74861SOL     OW42574  12.317   5.350   4.131 -0.5108 -0.6853  0.2574
74861SOL    HW142575  12.231   5.392   4.135 -0.2841 -0.2244  0.3393
74861SOL    HW242576  12.346   5.346   4.222  0.7707  1.7247  0.0536
74862SOL     OW42577   6.744   7.890   5.519 -0.1275  0.1708 -0.1725
74862SOL    HW142578   6.766   7.908   5.610 -0.7158 -0.2148  0.0570
74862SOL    HW242579   6.788   7.808   5.499 -1.1348 -0.4926  0.2224
74863SOL     OW42580  12.877   7.747   8.772 -0.3246 -0.2663 -0.1411
74863SOL    HW142581  12.918   7.677   8.722 -1.4369 -0.8145 -0.3346
74863SOL    HW242582  12.783   7.727   8.767 -0.5441  0.3342  1.1555
74864SOL     OW42583   7.179   3.483   4.855  0.0511  0.2186 -0.1392
74864SOL    HW142584   7.211   3.525   4.775 -0.6774 -0.5101 -0.8272
74864SOL    HW242585   7.145   3.555   4.908  0.1055  0.6523 -0.6922
74865SOL     OW42586   8.363   0.497   9.747 -0.3652  0.3592  0.2446
74865SOL    HW142587   8.419   0.481   9.822 -0.8694  1.2480  0.8322
74865SOL    HW242588   8.277   0.464   9.773 -0.6402  1.0495  0.2228
74866SOL     OW42589   3.249  10.524   4.882  0.0005 -0.2570  0.2183
74866SOL    HW142590   3.286  10.500   4.967 -0.2480  1.0500  0.7208
74866SOL    HW242591   3.310  10.588   4.847 -0.3460 -0.1602 -0.2106
74867SOL     OW42592  11.505   1.341   6.270 -0.5196  0.1150  0.3814
74867SOL    HW142593  11.453   1.405   6.319  1.5290 -0.8317  4.1118
74867SOL    HW242594  11.462   1.257   6.287 -0.2826 -0.1367 -0.2388
74868SOL     OW42595   7.948   1.110  13.085 -0.0412  0.0390  0.2994
74868SOL    HW142596   7.945   1.204  13.068 -0.8404 -0.0058  0.1434
74868SOL    HW242597   7.857   1.081  13.075  0.2221 -0.7763  0.1947
74869SOL     OW42598   4.743  13.480   3.651 -0.5569 -0.2866 -0.4387
74869SOL    HW142599   4.719  13.440   3.568 -1.5049 -0.9085  0.1243
74869SOL    HW242600   4.701  13.426   3.718 -2.0949  1.7692  0.3557
74870SOL     OW42601   7.368   0.003  12.800  0.1464 -0.5205 -0.3417
74870SOL    HW142602   7.449  -0.001  12.750  0.9273  2.2850  0.5283
74870SOL    HW242603   7.305   0.043  12.740  0.9282  2.2982  0.5705
74871SOL     OW42604   9.585   7.716   6.368  0.2829 -0.3836  0.7616
74871SOL    HW142605   9.586   7.641   6.308 -0.3904 -1.1422  1.6750
74871SOL    HW242606   9.544   7.786   6.317 -1.2209 -1.3087  0.6440
74872SOL     OW42607   1.832  10.609   9.802  0.4951 -0.2842 -0.2439
74872SOL    HW142608   1.916  10.640   9.836  0.7938  1.0583 -2.0707
74872SOL    HW242609   1.853  10.572   9.716 -0.9437  1.5460 -1.4533
74873SOL     OW42610   1.179   4.464  13.485  0.4451  0.0168  0.1098
74873SOL    HW142611   1.088   4.465  13.515  0.3497 -1.3471 -0.0499
74873SOL    HW242612   1.174   4.487  13.392  0.2480 -0.0917  0.0921
74874SOL     OW42613   2.778   0.094   6.169  0.3606 -0.4091 -0.0384
74874SOL    HW142614   2.753   0.010   6.207 -2.3854  1.1619  2.0164
74874SOL    HW242615   2.725   0.102   6.090 -0.1645 -0.1841  0.3336
74875SOL     OW42616  11.376   8.490   3.889  0.5410  0.4178  0.5140
74875SOL    HW142617  11.388   8.562   3.950  0.1064  0.5704  0.4269
74875SOL    HW242618  11.452   8.494   3.830 -1.3684  3.3499 -2.0839
74876SOL     OW42619  10.247  12.425   5.224  0.1850 -0.1639  0.5497
74876SOL    HW142620  10.291  12.343   5.245 -0.0852 -0.1953  0.9927
74876SOL    HW242621  10.305  12.467   5.160 -0.2085 -1.1962 -0.5311
74877SOL     OW42622   9.770  13.368   7.308 -0.0554  0.6689 -0.1282
74877SOL    HW142623   9.828  13.296   7.334  1.2563  2.3265  1.8410
74877SOL    HW242624   9.682  13.339   7.332  0.3435 -0.6205 -0.1899
74878SOL     OW42625   1.684   9.448   8.613  0.3730 -0.6486 -0.1035
74878SOL    HW142626   1.709   9.540   8.599 -1.4255 -0.3934 -2.0904
74878SOL    HW242627   1.767   9.403   8.626  1.3515  1.1465  0.3307
74879SOL     OW42628   9.659   3.624  11.208 -0.1189  0.6949 -0.0695
74879SOL    HW142629   9.709   3.644  11.129 -1.7853  0.2989 -1.2762
74879SOL    HW242630   9.725   3.600  11.273  1.2159 -1.9551 -2.2147
74880SOL     OW42631  11.869   0.727   0.550  0.2031 -0.5437 -0.6373
74880SOL    HW142632  11.849   0.726   0.644 -0.5349 -0.9974 -0.7898
74880SOL    HW242633  11.931   0.655   0.538  0.5252 -0.3010 -0.4558
74881SOL     OW42634  10.319  10.034   6.812 -0.3463  0.2752 -0.1812
74881SOL    HW142635  10.298   9.943   6.791  0.8632 -0.4161  1.3793
74881SOL    HW242636  10.353  10.071   6.730 -1.7518 -0.3663 -1.0795
74882SOL     OW42637   2.460  13.920  10.574 -0.0028 -0.0255 -0.0270
74882SOL    HW142638   2.508  14.003  10.577 -0.3846  0.2236 -0.5837
74882SOL    HW242639   2.473  13.888  10.484  0.7653 -0.9530  0.3886
74883SOL     OW42640  11.519   4.383   3.025  0.6806 -0.6019 -0.2416
74883SOL    HW142641  11.572   4.399   3.103 -1.3769  0.9408  0.9276
74883SOL    HW242642  11.525   4.464   2.975  0.9006 -1.0994 -1.0404
74884SOL     OW42643   7.273   6.764  12.332 -0.3028 -0.4140 -0.6574
74884SOL    HW142644   7.236   6.786  12.247  0.7967  0.2316 -0.9775
74884SOL    HW242645   7.197   6.764  12.391 -0.8125  1.1436 -1.2522
74885SOL     OW42646  11.848   6.174  12.216 -0.1326  0.0555 -0.3286
74885SOL    HW142647  11.863   6.230  12.139  1.0574 -0.0854 -0.2174
74885SOL    HW242648  11.804   6.231  12.278 -1.3093  0.1096 -1.1890
74886SOL     OW42649   2.950   1.013   3.101  0.0035 -0.3031 -0.2753
74886SOL    HW142650   2.981   1.101   3.082 -0.4989 -0.0610  0.0301
74886SOL    HW242651   2.895   0.990   3.026  0.7673 -0.6674 -0.7354
74887SOL     OW42652   3.153   4.578  11.475  0.2765 -0.1334  0.0106
74887SOL    HW142653   3.138   4.671  11.456  0.1742 -0.2451 -0.4856
74887SOL    HW242654   3.131   4.534  11.393  1.4711 -0.4891 -0.1247
74888SOL     OW42655   7.551   2.155  13.648  0.1000  0.2382  0.2032
74888SOL    HW142656   7.516   2.107  13.723  0.0329  1.3992  0.9263
74888SOL    HW242657   7.493   2.230  13.638  1.4120  1.3023  0.3967
74889SOL     OW42658   8.185   8.889  11.730 -0.1957  0.4385 -0.1590
74889SOL    HW142659   8.137   8.853  11.655  0.1542 -0.3889  0.0038
74889SOL    HW242660   8.211   8.977  11.702 -1.8682  0.9553 -0.2179
74890SOL     OW42661   7.086  10.692   1.563 -0.2967 -0.2344 -0.0236
74890SOL    HW142662   7.152  10.625   1.550 -0.4266 -0.6179  1.1537
74890SOL    HW242663   7.133  10.765   1.604 -0.5689 -0.4802  0.7478
74891SOL     OW42664   5.361   2.464   3.813  0.0700  0.0441  0.1744
74891SOL    HW142665   5.427   2.516   3.766  0.7840 -1.3567 -0.4396
74891SOL    HW242666   5.407   2.428   3.888 -0.5381  0.6422  0.8436
74892SOL     OW42667   1.980  10.689  10.655 -0.6022 -0.1084  0.1937
74892SOL    HW142668   1.915  10.672  10.723 -0.7763  1.3181  0.4155
74892SOL    HW242669   1.989  10.784  10.653  1.9416 -0.2789  0.5758
74893SOL     OW42670   1.348  12.351  11.036 -0.1438 -0.3954  0.0562
74893SOL    HW142671   1.270  12.352  11.091  1.1118  1.6600  1.9723
74893SOL    HW242672   1.420  12.332  11.097  1.2053  1.1350 -0.9791
74894SOL     OW42673   6.724   1.517  12.714  0.5606 -0.5141 -0.5933
74894SOL    HW142674   6.736   1.442  12.656 -0.4863 -0.6976 -0.5898
74894SOL    HW242675   6.731   1.480  12.803 -1.9776 -1.0252 -0.5426
74895SOL     OW42676   0.311   8.218   7.016  0.3863 -0.2820  0.0334
74895SOL    HW142677   0.319   8.313   7.027 -0.0987 -0.0322 -1.5724
74895SOL    HW242678   0.329   8.183   7.103 -2.2444  1.4173  1.3989
74896SOL     OW42679   9.010   5.057  11.296 -0.0586  0.8615 -0.1667
74896SOL    HW142680   9.073   5.097  11.356 -1.1566  1.3250  0.7236
74896SOL    HW242681   9.062   5.031  11.220  1.4054  0.1242  1.0348
74897SOL     OW42682  11.487   4.890  12.087 -0.1702  0.2414  1.0260
74897SOL    HW142683  11.426   4.881  12.161 -1.4403  1.9003  0.2574
74897SOL    HW242684  11.442   4.948  12.026  1.2336 -0.3581 -0.6660
74898SOL     OW42685   9.606   8.152   3.988  0.1772  0.1327 -0.2951
74898SOL    HW142686   9.693   8.129   3.956  0.1624  0.7830 -0.8279
74898SOL    HW242687   9.583   8.231   3.940  0.1708  1.1763  1.3375
74899SOL     OW42688   3.212   0.092   9.406  0.7992 -0.0223  0.0726
74899SOL    HW142689   3.135   0.111   9.461 -0.0307  0.2447 -1.1568
74899SOL    HW242690   3.195   0.138   9.324  1.8146 -0.7809 -0.5823
74900SOL     OW42691   6.976   5.308   4.153  0.2200  0.4635 -0.2184
74900SOL    HW142692   7.030   5.378   4.117 -0.4655  0.5670 -1.0934
74900SOL    HW242693   7.038   5.241   4.180  0.9496  1.7551  1.4588
74901SOL     OW42694   2.368   6.593  14.094 -0.5974 -0.4392  0.1785
74901SOL    HW142695   2.323   6.659  14.147 -3.0362 -2.7800  1.2780
74901SOL    HW242696   2.391   6.524  14.157  0.6875 -1.2572 -1.1217
74902SOL     OW42697   8.650   5.382   3.796 -0.8890 -0.1506 -0.1493
74902SOL    HW142698   8.743   5.400   3.807 -0.6470 -0.1320 -1.8616
74902SOL    HW242699   8.639   5.293   3.828 -0.4522  0.1230  0.7988
74903SOL     OW42700   6.775  11.919  12.622 -0.1527 -0.2214  0.4820
74903SOL    HW142701   6.770  11.888  12.713  0.8742 -1.0387  0.2841
74903SOL    HW242702   6.847  11.868  12.584 -0.9088 -0.2707 -0.9415
74904SOL     OW42703   6.597  10.234   6.816  0.3421 -0.4167  0.1909
74904SOL    HW142704   6.631  10.323   6.807 -0.8970  0.2688  1.7560
74904SOL    HW242705   6.504  10.243   6.794  0.4926 -1.6360 -1.0505
74905SOL     OW42706  12.060   5.821   1.886 -0.3783 -0.5649  0.1253
74905SOL    HW142707  12.142   5.864   1.864  0.2941 -1.9016 -0.0631
74905SOL    HW242708  12.001   5.844   1.814 -0.2496  0.5475  0.3500
74906SOL     OW42709   5.633   0.080   7.899 -0.4551 -0.8861  0.0642
74906SOL    HW142710   5.626   0.137   7.976  1.3934 -0.6385  0.0885
74906SOL    HW242711   5.688   0.008   7.927  0.4739 -0.6600 -1.0877
74907SOL     OW42712   3.202   6.664   4.914  0.4044 -0.5208 -0.0255
74907SOL    HW142713   3.209   6.568   4.920  1.1257 -0.4291  0.8946
74907SOL    HW242714   3.252   6.696   4.990 -0.2587  0.5729 -0.0300
74908SOL     OW42715  12.187   3.414   1.359 -0.1897  0.6475  0.1678
74908SOL    HW142716  12.152   3.503   1.364 -1.2691  0.3383 -1.1665
74908SOL    HW242717  12.272   3.423   1.317  0.6913  1.2390  1.9690
74909SOL     OW42718   8.121   4.764  13.339  0.4607  0.7590  0.2131
74909SOL    HW142719   8.182   4.795  13.273  1.5858 -0.7051  0.5107
74909SOL    HW242720   8.038   4.753  13.292  1.4162 -0.9506 -1.1835
74910SOL     OW42721   3.636  12.750   1.912 -0.0710 -0.0650  0.1258
74910SOL    HW142722   3.562  12.713   1.961 -1.0027  0.8110 -0.5738
74910SOL    HW242723   3.614  12.843   1.903  1.4935  0.3693  0.5590
74911SOL     OW42724   4.977   7.507   5.986 -0.1900 -0.6085 -0.3807
74911SOL    HW142725   5.011   7.584   5.939 -0.3878  0.0416  0.5156
74911SOL    HW242726   5.039   7.437   5.964 -2.1850 -1.3874 -4.5648
74912SOL     OW42727   7.346  12.349   3.931  0.1034  0.2032 -0.3693
74912SOL    HW142728   7.312  12.414   3.870  0.6828  2.6692  1.7802
74912SOL    HW242729   7.329  12.385   4.018  0.9506 -2.2851  0.9439
74913SOL     OW42730   2.125  13.267  12.338 -0.2784  0.8173 -0.4238
74913SOL    HW142731   2.113  13.361  12.323  0.5535  0.9187 -0.5051
74913SOL    HW242732   2.038  13.229  12.325 -0.8051  1.6843  0.4682
74914SOL     OW42733   7.639   3.624  13.990  0.4430 -0.3555  0.3563
74914SOL    HW142734   7.654   3.627  14.084  1.5359  2.7658  0.2231
74914SOL    HW242735   7.727   3.629  13.952 -0.0685  0.4241 -0.7736
74915SOL     OW42736   3.102   8.002  12.688 -0.0396 -0.5916 -0.1095
74915SOL    HW142737   3.152   7.926  12.658  0.6457 -0.3365  0.3786
74915SOL    HW242738   3.104   8.063  12.614  0.7902 -0.3795  0.0819
74916SOL     OW42739  10.687   1.871  10.942  0.4400  0.1504 -0.5015
74916SOL    HW142740  10.780   1.857  10.922  1.8623  0.0447  4.8588
74916SOL    HW242741  10.669   1.960  10.911  2.3006  0.2164 -1.5606
74917SOL     OW42742   8.523   5.728   0.281 -0.3247  0.2226 -0.0320
74917SOL    HW142743   8.505   5.674   0.359 -0.3055  1.0833  0.5847
74917SOL    HW242744   8.618   5.738   0.280 -0.2726 -0.2609 -0.5061
74918SOL     OW42745   8.263   1.511  11.258 -0.3133 -0.2689  0.0987
74918SOL    HW142746   8.338   1.546  11.306  0.4758 -0.2897 -1.0978
74918SOL    HW242747   8.277   1.416  11.258 -0.7895 -0.3472  0.5907
74919SOL     OW42748   6.405   9.810   7.570  0.4633  0.8053 -0.3767
74919SOL    HW142749   6.397   9.730   7.518 -0.0657 -0.0380  0.9384
74919SOL    HW242750   6.316   9.830   7.598  0.3728  2.7017 -1.8285
74920SOL     OW42751   5.686   3.456   4.945 -0.2141  0.2716 -0.3757
74920SOL    HW142752   5.778   3.430   4.934 -0.4579 -0.5004 -0.7213
74920SOL    HW242753   5.686   3.516   5.019  0.2677 -1.5213  1.1547
74921SOL     OW42754   0.055   6.510   9.008 -0.2604  0.1731  0.6817
74921SOL    HW142755   0.146   6.498   8.983 -0.2794  0.7858  0.2732
74921SOL    HW242756   0.048   6.473   9.096  0.4683  0.4645  0.8645
74922SOL     OW42757  10.571   5.704  14.140  0.0120 -0.6337 -0.1278
74922SOL    HW142758  10.583   5.788  14.184 -0.0209 -0.8329  0.2729
74922SOL    HW242759  10.627   5.709  14.062  1.0974 -0.7516  0.6102
74923SOL     OW42760   1.056   5.179  10.190  0.5706  0.0909  0.2150
74923SOL    HW142761   1.142   5.189  10.230 -0.1073 -1.8521  2.4338
74923SOL    HW242762   1.019   5.267  10.187  1.3590  0.5348  2.3556
74924SOL     OW42763   4.322   3.430  12.643 -0.2654  0.1254  0.0941
74924SOL    HW142764   4.347   3.353  12.592  1.0015  0.6210 -0.0627
74924SOL    HW242765   4.308   3.396  12.732 -0.1910 -0.3626 -0.0771
74925SOL     OW42766   3.839   8.080   9.654 -0.3108  0.5720  0.1064
74925SOL    HW142767   3.804   7.994   9.678  0.4653  0.4036  0.6805
74925SOL    HW242768   3.877   8.113   9.735 -0.5904  1.4585 -0.1140
74926SOL     OW42769   9.710   1.978   2.669  0.6147  0.3056  0.0377
74926SOL    HW142770   9.769   1.942   2.603  1.2551 -0.8693  1.2160
74926SOL    HW242771   9.669   1.902   2.709  0.2922  0.9828  1.0489
74927SOL     OW42772   8.589   9.659   5.018  0.2126 -0.2699  0.1792
74927SOL    HW142773   8.550   9.690   5.100 -0.7994 -1.3848  0.1502
74927SOL    HW242774   8.560   9.722   4.952 -1.8555 -1.2126  0.1113
74928SOL     OW42775  12.845  11.112   3.013  0.2812 -0.1353  0.0920
74928SOL    HW142776  12.783  11.069   3.072 -0.3445  0.2628 -0.2648
74928SOL    HW242777  12.820  11.204   3.014  0.2823 -0.1163 -0.7606
74929SOL     OW42778   3.370  10.187   3.640  0.4899 -0.4499  0.3165
74929SOL    HW142779   3.377  10.280   3.617 -1.1125  0.2613  2.3321
74929SOL    HW242780   3.461  10.158   3.651  1.0150  1.4280  1.4317
74930SOL     OW42781   1.921   7.796   2.555 -0.0329  0.1589  0.7104
74930SOL    HW142782   1.886   7.706   2.551  2.1407 -0.6911 -1.2086
74930SOL    HW242783   1.865   7.845   2.495  0.2547 -0.5302 -0.1550
74931SOL     OW42784  11.183  10.271   4.634 -0.1052  0.2274  0.0909
74931SOL    HW142785  11.114  10.249   4.697  1.4467  0.8527  2.1034
74931SOL    HW242786  11.165  10.215   4.558 -2.8759  0.4678  0.4688
74932SOL     OW42787   8.148   4.490   0.042 -0.4163 -0.6728 -0.4109
74932SOL    HW142788   8.239   4.470   0.017  0.0470 -0.6097  1.1611
74932SOL    HW242789   8.108   4.404   0.055 -0.1456 -0.6907  0.3593
74933SOL     OW42790   0.984   3.585   3.784  0.0928  0.2008  0.0085
74933SOL    HW142791   0.906   3.537   3.757  0.4186  0.6853 -1.9333
74933SOL    HW242792   1.035   3.522   3.835  0.6303 -1.6650 -2.6532
74934SOL     OW42793   4.281   5.880   8.353 -0.4622  0.3073 -0.1940
74934SOL    HW142794   4.276   5.972   8.379  1.0523  0.5745 -0.7301
74934SOL    HW242795   4.212   5.837   8.403  0.8104  1.1792  2.4828
74935SOL     OW42796   9.302   1.281  13.996  0.1595  0.1345 -0.0913
74935SOL    HW142797   9.213   1.245  13.994 -0.5084  1.4980  1.7376
74935SOL    HW242798   9.350   1.225  14.056  0.1391  0.1796 -0.0320
74936SOL     OW42799  10.710   8.681   2.557  0.4343  0.1754 -0.2733
74936SOL    HW142800  10.722   8.768   2.519  1.7195 -0.4460 -1.4173
74936SOL    HW242801  10.647   8.638   2.499  0.8674 -0.1033 -0.5480
74937SOL     OW42802   8.325  11.533  12.570  0.1068  0.3489  0.3458
74937SOL    HW142803   8.417  11.523  12.594  0.5182 -1.2849 -1.7023
74937SOL    HW242804   8.278  11.471  12.627  0.7922 -1.7655 -1.2818
74938SOL     OW42805  10.294   5.926   0.771  0.0047  0.1207 -0.5122
74938SOL    HW142806  10.335   6.004   0.734  1.1613 -0.2333 -0.0171
74938SOL    HW242807  10.299   5.861   0.701  0.9257 -0.1246 -0.2321
74939SOL     OW42808   7.385   4.453   3.649 -0.1363  0.3207  0.0191
74939SOL    HW142809   7.463   4.459   3.704 -0.4841  1.2350  0.4209
74939SOL    HW242810   7.370   4.359   3.640  0.8786  0.1315  0.1177
74940SOL     OW42811   4.980   1.711   9.881 -0.1979 -0.2596  0.1147
74940SOL    HW142812   4.945   1.647   9.944  0.3600 -1.2313 -0.5386
74940SOL    HW242813   5.015   1.782   9.936  1.3382 -1.6176  0.9912
74941SOL     OW42814   6.748   2.404   1.170 -0.1509  0.4933  0.1882
74941SOL    HW142815   6.737   2.310   1.161  0.1979  0.5926 -1.9352
74941SOL    HW242816   6.685   2.442   1.108  0.5035  1.5915  0.1549
74942SOL     OW42817  10.382   9.892   3.918 -0.3540  0.7086 -0.4694
74942SOL    HW142818  10.473   9.903   3.890 -0.1795 -0.3439 -0.3661
74942SOL    HW242819  10.331   9.943   3.855  0.2113  0.2000 -1.3709
74943SOL     OW42820   2.116   7.931   7.163 -0.0424 -0.4104  0.1937
74943SOL    HW142821   2.049   7.926   7.096  1.8724  2.1381 -2.0911
74943SOL    HW242822   2.142   7.840   7.178  1.0341 -1.0508 -4.3222
74944SOL     OW42823  12.865   6.917  11.481 -0.1317 -0.2954  0.0809
74944SOL    HW142824  12.941   6.878  11.438 -0.3620  0.3384 -0.9297
74944SOL    HW242825  12.845   6.994  11.428 -0.7094  0.2487  1.0737
74945SOL     OW42826  11.159   8.753  12.802 -0.8322  0.5329  0.3886
74945SOL    HW142827  11.232   8.740  12.741 -2.0942 -3.5612 -0.5849
74945SOL    HW242828  11.200   8.750  12.889  0.3408 -0.4663 -0.1609
74946SOL     OW42829  11.633   4.415   8.959 -0.3152  0.1754  0.9002
74946SOL    HW142830  11.666   4.431   8.871 -1.3257 -2.1841  0.0036
74946SOL    HW242831  11.587   4.495   8.983  0.8317  1.2324 -0.2806
74947SOL     OW42832  14.150   3.705   6.522  0.1506 -0.1457  0.2402
74947SOL    HW142833  14.234   3.715   6.478  0.6768 -1.7288  0.8213
74947SOL    HW242834  14.153   3.617   6.560 -1.3517  0.1620  1.1516
74948SOL     OW42835  13.419   5.489   5.916 -0.0962  0.0098 -0.1329
74948SOL    HW142836  13.346   5.532   5.871 -1.6887 -2.0947  0.2880
74948SOL    HW242837  13.432   5.542   5.995 -2.5884 -0.6307  0.8130
74949SOL     OW42838  11.017   4.105   3.013 -0.1402  0.0607  0.3178
74949SOL    HW142839  11.092   4.162   2.995 -0.7718  1.2919  1.4248
74949SOL    HW242840  10.941   4.163   3.009 -0.9166 -0.9233  0.4058
74950SOL     OW42841   7.065  10.087   9.092  0.7756 -0.3298 -0.4952
74950SOL    HW142842   7.062  10.040   9.175  3.7775  0.4662  0.1930
74950SOL    HW242843   7.108  10.027   9.031  1.7188  0.3187 -0.4876
74951SOL     OW42844   8.113   0.430   6.807 -0.2654 -0.0106 -0.4802
74951SOL    HW142845   8.144   0.437   6.897  0.6096 -0.5263 -0.7299
74951SOL    HW242846   8.052   0.355   6.808 -0.9580  0.5516 -0.1376
74952SOL     OW42847   6.236   6.211   9.130  0.3125  0.3227 -0.3007
74952SOL    HW142848   6.258   6.147   9.063  1.7303  0.8661 -0.3990
74952SOL    HW242849   6.229   6.160   9.211  2.3998  0.0850 -0.1938
74953SOL     OW42850  13.608   7.134   8.622  0.1788 -0.2537  0.3850
74953SOL    HW142851  13.567   7.205   8.573 -0.1985 -0.0058  1.0419
74953SOL    HW242852  13.538   7.101   8.679  0.2978 -1.2755 -0.0323
74954SOL     OW42853  12.357   1.712  10.279 -0.1732  0.0167  0.7088
74954SOL    HW142854  12.302   1.776  10.323 -1.6937  0.1893 -1.3084
74954SOL    HW242855  12.377   1.751  10.194 -2.3954 -2.6152 -1.2357
74955SOL     OW42856   1.355   9.158  13.845  0.0656  0.0828  0.2407
74955SOL    HW142857   1.432   9.121  13.889  1.5574  1.4014 -1.1194
74955SOL    HW242858   1.372   9.144  13.752 -0.4839  1.9141 -0.1677
74956SOL     OW42859   8.542  11.251   4.859 -0.7877  0.5169 -0.0862
74956SOL    HW142860   8.560  11.343   4.842  0.3766  0.4813  0.8648
74956SOL    HW242861   8.452  11.250   4.891  0.0133  1.6720  2.3876
74957SOL     OW42862  13.672  13.577   2.279 -0.0374  0.0541  0.0025
74957SOL    HW142863  13.730  13.577   2.356  0.3846  0.3819 -0.3112
74957SOL    HW242864  13.675  13.668   2.247 -0.7474  0.0844 -0.0038
74958SOL     OW42865   0.196   6.843  11.397  0.1360  0.0730  0.1103
74958SOL    HW142866   0.240   6.884  11.323  0.9525  0.3023  0.7089
74958SOL    HW242867   0.163   6.760  11.363  1.7148 -0.4733 -0.1821
74959SOL     OW42868  11.714   5.150  13.131 -0.1822  0.3227  0.1823
74959SOL    HW142869  11.623   5.139  13.157 -0.1287 -0.3146  0.1222
74959SOL    HW242870  11.755   5.066  13.153  0.2289  0.3535 -0.4435
74960SOL     OW42871  12.301  13.804  12.166 -0.0110  0.3402 -0.3302
74960SOL    HW142872  12.207  13.813  12.185 -0.2432  0.2990 -1.3721
74960SOL    HW242873  12.340  13.886  12.195 -0.2448  0.0637  0.8034
74961SOL     OW42874  13.751   4.659  11.001  0.8849 -0.4583  0.0553
74961SOL    HW142875  13.838   4.699  10.996  0.8117 -0.3304 -0.2537
74961SOL    HW242876  13.764   4.569  10.973  0.6805 -0.0571 -1.3989
74962SOL     OW42877   8.044   4.541   9.071 -0.0445 -0.4572  0.0811
74962SOL    HW142878   8.137   4.564   9.064 -0.1389  0.2542  0.9617
74962SOL    HW242879   8.045   4.450   9.101  0.3564 -0.7582 -0.8119
74963SOL     OW42880   3.859  12.828  13.166  0.3296 -0.5811 -0.1079
74963SOL    HW142881   3.842  12.798  13.077 -1.6066  0.4983 -0.1591
74963SOL    HW242882   3.930  12.772  13.197  0.0188 -1.9997 -1.7863
74964SOL     OW42883  13.223  10.127  10.272  0.2351 -0.6437  0.3616
74964SOL    HW142884  13.206  10.088  10.357  2.0447 -1.1437  0.5422
74964SOL    HW242885  13.266  10.058  10.222  0.1515 -0.0268 -0.5970
74965SOL     OW42886   4.204  13.986   8.098  0.2480 -0.1315  0.1900
74965SOL    HW142887   4.271  13.963   8.034 -0.1148 -0.4396 -0.0799
74965SOL    HW242888   4.235  14.069   8.135 -0.0690  0.6167 -1.1548
74966SOL     OW42889   3.498   1.656   9.335 -0.4074  0.3091 -0.0292
74966SOL    HW142890   3.462   1.730   9.287 -1.9541 -0.3642  0.0430
74966SOL    HW242891   3.423   1.616   9.379  0.7131 -0.0572  1.6610
74967SOL     OW42892   3.587   0.501   3.708  0.1316  0.5777 -0.3414
74967SOL    HW142893   3.528   0.477   3.636  1.1049  0.4854 -1.1230
74967SOL    HW242894   3.608   0.418   3.751  0.5433  0.4751 -0.7354
74968SOL     OW42895  10.241   8.813   9.391  0.3704 -0.0751  0.2172
74968SOL    HW142896  10.311   8.749   9.383 -0.4090 -0.8522 -0.6451
74968SOL    HW242897  10.178   8.771   9.451  0.1367  0.1353  0.1190
74969SOL     OW42898   3.514  11.968   7.823 -0.3711 -0.7407  0.1533
74969SOL    HW142899   3.448  12.037   7.825 -0.1454 -0.5107 -0.1038
74969SOL    HW242900   3.515  11.938   7.732  0.1208 -0.4907  0.0656
74970SOL     OW42901   1.592   0.013   0.872  0.0488 -0.0660 -0.0363
74970SOL    HW142902   1.506  -0.000   0.833  1.1143  0.1081 -2.6251
74970SOL    HW242903   1.627   0.091   0.829  1.7744 -0.5275  0.4226
74971SOL     OW42904  13.433   8.648   8.881  0.5122  0.3771  0.0151
74971SOL    HW142905  13.339   8.648   8.898  0.1440 -0.4409 -1.7051
74971SOL    HW242906  13.473   8.672   8.964 -1.0983 -2.0711  1.6356
74972SOL     OW42907  14.048   6.614   4.116  0.1201  0.1633  0.3938
74972SOL    HW142908  14.019   6.526   4.138  0.8875 -0.2879 -0.3428
74972SOL    HW242909  13.976   6.671   4.143 -0.7901 -0.7743 -0.0050
74973SOL     OW42910   2.188   3.801   0.524  0.1690 -0.0817  0.0185
74973SOL    HW142911   2.195   3.853   0.444 -1.0471 -1.0046 -0.7237
74973SOL    HW242912   2.203   3.711   0.495 -1.0044 -0.5114  0.6762
74974SOL     OW42913   2.832   1.384   2.967  0.5165  0.2510 -0.3917
74974SOL    HW142914   2.900   1.343   3.021 -0.6977  0.0270  1.0328
74974SOL    HW242915   2.855   1.359   2.877  1.0967 -1.6841  0.2326
74975SOL     OW42916   2.388  10.950   8.930  0.4535 -0.4466 -0.0901
74975SOL    HW142917   2.447  10.896   8.982  1.2168 -1.4348 -1.8776
74975SOL    HW242918   2.307  10.900   8.926  0.7065 -0.8328 -0.5926
74976SOL     OW42919  11.024   7.949   2.384 -0.6080  0.1338 -0.0435
74976SOL    HW142920  10.985   8.035   2.367 -0.0724  0.6406  1.1348
74976SOL    HW242921  11.093   7.940   2.319 -1.4385  0.0662 -0.9275
74977SOL     OW42922   3.501   8.161   8.441  0.3249 -0.5489  0.1320
74977SOL    HW142923   3.545   8.205   8.367  0.4802 -0.2796  0.3812
74977SOL    HW242924   3.513   8.222   8.514 -1.1242 -0.1117  0.0233
74978SOL     OW42925   7.678   7.012   6.044 -0.0684  0.5054  0.1761
74978SOL    HW142926   7.668   6.959   5.965 -4.1812  1.0610  0.0704
74978SOL    HW242927   7.725   6.956   6.105 -1.9395 -2.3397 -0.7780
74979SOL     OW42928   7.299   9.570  13.676 -0.0334 -0.2522 -0.3661
74979SOL    HW142929   7.250   9.557  13.757 -0.4177 -0.5385 -0.6413
74979SOL    HW242930   7.242   9.623  13.621  0.0183 -0.4780 -0.6380
74980SOL     OW42931   3.571   1.981  13.648  0.0515 -0.5106  0.2866
74980SOL    HW142932   3.517   2.012  13.575 -0.0567  0.0622  0.6004
74980SOL    HW242933   3.576   2.056  13.707  0.7298 -0.7354  0.5304
74981SOL     OW42934   5.814   4.862   5.336  1.0329 -0.3706 -0.0477
74981SOL    HW142935   5.747   4.869   5.405 -0.6094  0.0015 -1.5941
74981SOL    HW242936   5.889   4.821   5.379 -0.4435 -1.5000  1.5937
74982SOL     OW42937   3.044   2.763  13.674 -0.5405  0.5383 -0.3630
74982SOL    HW142938   3.029   2.753  13.580  1.2250  1.9262 -0.8516
74982SOL    HW242939   3.140   2.767  13.682 -0.7000  1.8650  1.3170
74983SOL     OW42940   7.493   4.590   6.702  0.0780 -0.5767  0.4459
74983SOL    HW142941   7.523   4.503   6.677  0.8230 -0.4325  0.8230
74983SOL    HW242942   7.556   4.620   6.767 -1.6242 -0.7826  2.2679
74984SOL     OW42943   6.066  12.199   6.322  0.0605 -0.2028  0.2172
74984SOL    HW142944   6.080  12.152   6.240 -0.8397  0.3342 -0.2576
74984SOL    HW242945   6.154  12.227   6.349  0.1345  2.1972 -2.1287
74985SOL     OW42946   2.644   2.528  12.091 -0.5664  0.5738 -0.2241
74985SOL    HW142947   2.715   2.591  12.082 -0.7004  0.6980 -0.4276
74985SOL    HW242948   2.676   2.465  12.156  0.1218  0.0762 -1.0285
74986SOL     OW42949  13.378  11.187   9.758 -0.2676  0.5704  0.2890
74986SOL    HW142950  13.312  11.130   9.718 -1.4162  1.8291  0.2927
74986SOL    HW242951  13.446  11.196   9.691  0.0665 -0.9574  0.3845
74987SOL     OW42952  13.963   2.625   6.252 -0.6465 -0.6822  1.0038
74987SOL    HW142953  14.049   2.587   6.235 -0.0397  1.4474 -1.1838
74987SOL    HW242954  13.948   2.611   6.345  1.6149 -1.9627  1.2353
74988SOL     OW42955   4.097  13.971   1.484  0.1920  0.2457  0.1672
74988SOL    HW142956   4.136  13.927   1.560 -0.6956  1.2916  1.2771
74988SOL    HW242957   4.119  14.063   1.497  0.0126  0.4334 -0.8516
74989SOL     OW42958   1.604  12.824   5.955  0.2506  0.4382  0.3051
74989SOL    HW142959   1.549  12.900   5.939 -0.5050 -0.0964  0.2811
74989SOL    HW242960   1.693  12.857   5.953 -0.0478  1.2342 -0.1871
74990SOL     OW42961  10.084  12.131   7.274 -0.1937  0.2262 -0.5439
74990SOL    HW142962  10.104  12.133   7.181  0.5769 -0.2823 -0.3987
74990SOL    HW242963  10.035  12.212   7.290 -0.6451  0.1429 -1.4501
74991SOL     OW42964  10.108   3.164   2.565  0.0172  0.1650 -0.1965
74991SOL    HW142965  10.163   3.236   2.535  0.2489  0.2317  0.3750
74991SOL    HW242966  10.037   3.160   2.501  0.7614 -0.0252 -1.0392
74992SOL     OW42967  13.153  11.548   6.289 -0.0189  0.0813 -0.3132
74992SOL    HW142968  13.135  11.595   6.370 -0.7615 -0.5796 -0.0796
74992SOL    HW242969  13.078  11.567   6.233 -0.5902 -1.2094 -0.0248
74993SOL     OW42970   0.044   4.843  10.819  0.0603  0.5172 -0.6153
74993SOL    HW142971   0.064   4.933  10.790 -1.3659  0.8754 -0.5692
74993SOL    HW242972  -0.037   4.821  10.772 -0.3714 -0.2157  0.4446
74994SOL     OW42973   4.559  11.459   6.420  0.1544  0.1321  0.1308
74994SOL    HW142974   4.539  11.410   6.500  3.8833 -1.5659  0.2198
74994SOL    HW242975   4.528  11.402   6.349 -0.7570  0.4056  0.2975
74995SOL     OW42976   2.036  13.263   1.258  0.0949  0.1336 -0.3445
74995SOL    HW142977   1.952  13.239   1.220 -0.3933 -1.0373  1.3864
74995SOL    HW242978   2.101  13.225   1.199 -0.5858  0.3709 -1.2625
74996SOL     OW42979   1.329   5.109  12.139  0.3119  0.3085 -0.7461
74996SOL    HW142980   1.369   5.150  12.063  1.7017  0.6708  0.1414
74996SOL    HW242981   1.400   5.103  12.204 -1.2009  1.6247  1.1589
74997SOL     OW42982  10.744  13.852   8.684 -0.2862  0.2059 -0.3743
74997SOL    HW142983  10.822  13.875   8.633 -0.5566  2.3857  0.1044
74997SOL    HW242984  10.755  13.759   8.703  2.0405  0.3689 -0.6057
74998SOL     OW42985   4.718   4.250   1.361  0.2018 -0.3433  0.6099
74998SOL    HW142986   4.696   4.161   1.331 -1.3500 -0.6613  2.4910
74998SOL    HW242987   4.638   4.281   1.403  0.9567  1.6856  0.6324
74999SOL     OW42988   4.048   4.642  13.857 -0.0762 -0.6478  0.0639
74999SOL    HW142989   4.050   4.623  13.951 -1.6520 -0.2414  0.2108
74999SOL    HW242990   4.098   4.571  13.817  0.8966 -0.6505  1.2215
75000SOL     OW42991   0.947  11.125  12.428 -0.3279 -0.2243  0.0286
75000SOL    HW142992   0.890  11.101  12.355 -2.0378 -0.8152  1.4886
75000SOL    HW242993   0.981  11.041  12.459  0.4354  0.0320 -0.0895
75001SOL     OW42994   5.241   1.801   0.363 -0.4246 -0.0674 -0.1570
75001SOL    HW142995   5.254   1.875   0.423 -0.3652  0.9902 -1.4215
75001SOL    HW242996   5.152   1.771   0.380 -1.2887  1.7572 -1.1272
75002SOL     OW42997   0.218  12.821  12.070 -0.1851 -0.2321  0.0723
75002SOL    HW142998   0.220  12.911  12.100  1.9079 -0.4413  0.7290
75002SOL    HW242999   0.243  12.826  11.977 -0.6821 -0.0986 -0.0569
75003SOL     OW43000   0.255   7.811   0.734  0.3057  0.1618  0.1443
75003SOL    HW143001   0.169   7.848   0.753 -0.1973 -0.3899 -0.9446
75003SOL    HW243002   0.263   7.816   0.638  0.7051 -1.4381  0.0664
75004SOL     OW43003   9.951  10.037   8.734  0.4321  0.1955 -0.1296
75004SOL    HW143004  10.015   9.997   8.675  0.9565  0.2681  0.3715
75004SOL    HW243005   9.967  10.131   8.727 -0.8256  0.3410 -1.3378
75005SOL     OW43006  12.761   3.636  12.763 -0.2469 -0.1923  0.4114
75005SOL    HW143007  12.759   3.731  12.749  0.3218 -0.3618 -0.8941
75005SOL    HW243008  12.669   3.613  12.777 -0.9778  0.0746 -2.9904
75006SOL     OW43009   5.227  12.317   3.204  0.2872  0.2230 -0.2532
75006SOL    HW143010   5.270  12.344   3.286  0.5831  0.9564 -0.6440
75006SOL    HW243011   5.201  12.399   3.163 -0.3221 -0.1676 -0.6514
75007SOL     OW43012  12.623   4.129  14.048  0.3616 -0.0772 -0.1351
75007SOL    HW143013  12.630   4.034  14.055 -0.8389 -0.3950 -2.3149
75007SOL    HW243014  12.698   4.162  14.098  0.2228 -2.0974  1.5554
75008SOL     OW43015   3.666   3.312  10.313 -0.6006  0.4610  0.6162
75008SOL    HW143016   3.729   3.376  10.346 -1.3163  1.7990 -0.4895
75008SOL    HW243017   3.704   3.227  10.334  0.2102  1.2318  2.4756
75009SOL     OW43018   0.449   6.405   8.568 -0.4646  0.2010 -0.1056
75009SOL    HW143019   0.357   6.384   8.587 -0.9132  1.4277 -0.8287
75009SOL    HW243020   0.445   6.464   8.493  0.9565 -0.1258 -0.4579
75010SOL     OW43021   3.443  13.133   0.217 -0.1123 -0.2286  0.1542
75010SOL    HW143022   3.487  13.077   0.280  1.4870  1.4483  0.6201
75010SOL    HW243023   3.366  13.167   0.263 -1.1524 -2.0498 -0.1709
75011SOL     OW43024   8.239   6.511   4.156 -0.3674  0.0497 -0.5730
75011SOL    HW143025   8.164   6.570   4.148 -0.6576 -0.3951 -1.1551
75011SOL    HW243026   8.202   6.423   4.151  0.0802 -0.1910  0.1566
75012SOL     OW43027   1.287   9.168  11.440  0.8252 -0.0087 -0.2949
75012SOL    HW143028   1.340   9.174  11.361  0.7688  0.0575 -0.3274
75012SOL    HW243029   1.231   9.092  11.425 -0.1627  0.8212 -0.9097
75013SOL     OW43030   6.955   9.184   8.485 -0.5973  0.2722 -0.2478
75013SOL    HW143031   6.867   9.164   8.452 -0.2333  0.7073 -1.5266
75013SOL    HW243032   6.941   9.204   8.578 -1.8942  0.6639 -0.5034
75014SOL     OW43033  11.010   1.476   0.577 -0.4477  0.4010  0.5271
75014SOL    HW143034  10.981   1.425   0.653  0.0367  0.2414  0.6081
75014SOL    HW243035  10.930   1.513   0.541 -0.5207  2.0132  2.2132
75015SOL     OW43036   7.512  12.621   9.809 -0.1248 -0.8459 -0.2610
75015SOL    HW143037   7.484  12.545   9.758  2.3976 -1.3685 -1.0327
75015SOL    HW243038   7.497  12.696   9.752 -1.6284 -0.8560  0.0881
75016SOL     OW43039   3.414   1.865   1.096 -0.4494  0.4562 -0.7665
75016SOL    HW143040   3.487   1.849   1.037  0.3997 -0.6516  0.5522
75016SOL    HW243041   3.429   1.953   1.130  1.4367 -0.4933  1.0381
75017SOL     OW43042   2.484   1.921   6.338 -0.3656 -0.7771  0.0312
75017SOL    HW143043   2.415   1.946   6.400  1.4948 -1.4492  2.5544
75017SOL    HW243044   2.469   1.828   6.321  0.8236 -1.3865  1.9909
75018SOL     OW43045   5.272   8.814  12.930  0.4758  0.0952  0.0841
75018SOL    HW143046   5.193   8.777  12.892  0.0583  1.4985 -0.4656
75018SOL    HW243047   5.338   8.745  12.920 -0.3306 -0.5927 -0.6522
75019SOL     OW43048  10.677   1.722   9.059 -0.1765 -0.0604 -0.6030
75019SOL    HW143049  10.645   1.636   9.086 -1.2092  0.3897 -0.3430
75019SOL    HW243050  10.606   1.759   9.006 -0.6672  1.4728  1.0083
75020SOL     OW43051  11.691   5.871   6.171  0.1434  0.5107 -0.0926
75020SOL    HW143052  11.740   5.810   6.115  0.4128  1.6192 -1.1077
75020SOL    HW243053  11.749   5.889   6.244 -0.6444 -1.8383  1.2431
75021SOL     OW43054   1.259  12.543   1.878 -0.4446  0.1416 -0.6324
75021SOL    HW143055   1.176  12.591   1.878 -0.3416  0.3255 -0.7595
75021SOL    HW243056   1.238  12.457   1.914 -0.3891  0.7028  0.7827
75022SOL     OW43057  10.618   8.043   5.618 -0.5972  0.8483  0.0119
75022SOL    HW143058  10.528   8.052   5.649 -0.4676  1.2243  0.2884
75022SOL    HW243059  10.627   8.109   5.550 -1.2067 -0.6908 -1.6303
75023SOL     OW43060   2.265   2.426  10.621  0.5234 -0.0197  0.4123
75023SOL    HW143061   2.251   2.436  10.527  1.4526  0.5625  0.3247
75023SOL    HW243062   2.196   2.479  10.661  0.1531 -0.2328  0.0644
75024SOL     OW43063  10.314   2.238  12.496  0.3844  0.1880  0.0066
75024SOL    HW143064  10.349   2.253  12.408  0.7054  1.9193  0.4030
75024SOL    HW243065  10.223   2.213  12.481  0.4864  0.2747 -0.8278
75025SOL     OW43066   2.572   6.218   6.948 -0.4836  0.0175  0.3358
75025SOL    HW143067   2.644   6.188   7.003  1.5974  1.7483 -1.2845
75025SOL    HW243068   2.584   6.173   6.865 -0.9081  0.7686 -0.1467
75026SOL     OW43069  12.326  11.433  11.568  0.1351  0.7846  0.3355
75026SOL    HW143070  12.277  11.353  11.589  0.4845  1.0030  2.1429
75026SOL    HW243071  12.259  11.502  11.568  0.3628  1.1519  3.2186
75027SOL     OW43072   8.070  11.839   0.097 -0.7038  0.3117  0.3030
75027SOL    HW143073   8.146  11.781   0.106 -1.4076 -0.8712 -1.0318
75027SOL    HW243074   8.085  11.908   0.162  1.7829  0.4124 -0.2696
75028SOL     OW43075  13.711  12.410  11.809  0.0331 -0.5201 -0.4394
75028SOL    HW143076  13.794  12.378  11.845  0.7536 -0.2117 -1.7712
75028SOL    HW243077  13.732  12.497  11.775 -1.0281 -0.1296 -0.1217
75029SOL     OW43078   2.148   9.197   7.961  0.1436  0.2856 -0.0959
75029SOL    HW143079   2.217   9.258   7.990 -0.5283 -0.2360  3.0215
75029SOL    HW243080   2.070   9.250   7.954  0.1875  0.3121 -0.3856
75030SOL     OW43081   2.152  11.903   2.247  0.3343  0.5618 -0.2800
75030SOL    HW143082   2.114  11.817   2.268  1.6373 -0.2359 -1.0892
75030SOL    HW243083   2.172  11.941   2.332 -0.4678  0.1770  0.0966
75031SOL     OW43084  10.296   5.831   2.694  0.6147 -0.5072 -1.0134
75031SOL    HW143085  10.202   5.849   2.686  0.7313  0.4564 -0.4483
75031SOL    HW243086  10.321   5.874   2.776  1.7033 -0.0230 -1.5797
75032SOL     OW43087   1.449   4.615   3.775  0.3308 -0.1692 -0.1460
75032SOL    HW143088   1.422   4.574   3.857  1.2580 -0.4287  0.0425
75032SOL    HW243089   1.535   4.651   3.793 -0.7864  2.7355 -0.0317
75033SOL     OW43090   2.533  11.562   4.944 -0.4720  0.7093 -0.2764
75033SOL    HW143091   2.540  11.655   4.965  1.3926  0.4231  0.5441
75033SOL    HW243092   2.624  11.533   4.932 -0.9078 -1.2755  0.7896
75034SOL     OW43093   1.281  13.481   6.237  0.0550 -0.0236 -0.0863
75034SOL    HW143094   1.219  13.421   6.278  1.3484  0.2085  2.3946
75034SOL    HW243095   1.317  13.431   6.163 -0.8909 -1.2556  0.2507
75035SOL     OW43096   6.424  13.837   5.002  0.1152  0.3330 -0.1141
75035SOL    HW143097   6.471  13.810   5.081 -0.0011  1.1387  0.2313
75035SOL    HW243098   6.451  13.773   4.936 -1.2318 -1.5209  1.0181
75036SOL     OW43099   2.240  13.453   1.344  0.4196  0.7580 -0.3103
75036SOL    HW143100   2.309  13.388   1.329  0.7688  1.2390 -0.7951
75036SOL    HW243101   2.159  13.406   1.325  0.6764  0.5058 -0.7892
75037SOL     OW43102   1.696  10.885   5.067 -0.1611 -0.0232  0.0758
75037SOL    HW143103   1.617  10.855   5.022  0.1549 -0.1618 -0.3926
75037SOL    HW243104   1.737  10.805   5.099 -0.7023  0.1098  1.1740
75038SOL     OW43105   5.194  11.362   7.171  0.5781 -0.3466  0.3312
75038SOL    HW143106   5.220  11.430   7.108 -2.2762 -0.7042 -1.3833
75038SOL    HW243107   5.248  11.287   7.149  1.0405  0.1664 -0.3319
75039SOL     OW43108  12.955  11.723  11.200 -0.1590  0.3750  0.5375
75039SOL    HW143109  12.971  11.628  11.195 -0.5870  0.3538 -2.8943
75039SOL    HW243110  13.042  11.762  11.205  0.0111 -0.1640  2.2326
75040SOL     OW43111   8.226   4.896  10.933 -0.4300 -0.4216  0.2901
75040SOL    HW143112   8.260   4.876  11.020  0.5554 -0.2826 -0.0490
75040SOL    HW243113   8.167   4.824  10.912  0.0416 -0.9275  0.6943
75041SOL     OW43114   8.620   0.125  10.259  0.5051  0.1778 -0.5450
75041SOL    HW143115   8.632   0.213  10.223 -0.8918  0.3792 -0.5778
75041SOL    HW243116   8.618   0.139  10.354 -0.8650  0.3810 -0.5744
75042SOL     OW43117  12.220   8.836  12.880 -0.3580  0.3626  0.4136
75042SOL    HW143118  12.282   8.855  12.950  1.6059 -0.4979 -0.9919
75042SOL    HW243119  12.233   8.907  12.816 -0.3584 -0.1518 -0.1699
75043SOL     OW43120  12.599   0.187   3.318  0.0358  0.4098  1.1578
75043SOL    HW143121  12.612   0.116   3.255 -0.9226  0.9440  0.3400
75043SOL    HW243122  12.687   0.223   3.331 -0.0645  2.4733 -2.4825
75044SOL     OW43123   4.399   1.653   6.299  0.6964 -0.0013 -0.5746
75044SOL    HW143124   4.340   1.615   6.364 -0.3000 -0.0514 -1.4880
75044SOL    HW243125   4.486   1.620   6.324  0.4843  0.7139  1.2601
75045SOL     OW43126   4.046   6.111   3.003  0.5055 -0.4374 -0.7326
75045SOL    HW143127   3.977   6.128   3.067 -0.0332  1.4300 -1.7354
75045SOL    HW243128   4.061   6.196   2.961  2.8124 -1.0011 -1.1554
75046SOL     OW43129  10.010   5.116  13.861  0.3792  0.3004 -0.1045
75046SOL    HW143130   9.936   5.139  13.805 -0.2785 -0.1507  0.5425
75046SOL    HW243131  10.063   5.195  13.866  0.5488  0.2858 -1.4968
75047SOL     OW43132   5.541   9.489   0.046 -0.1220  0.6800 -0.5110
75047SOL    HW143133   5.591   9.532   0.115 -0.7932  1.7795 -0.6796
75047SOL    HW243134   5.457   9.468   0.087  0.0868 -0.2149 -0.5211
75048SOL     OW43135   0.662   7.666   9.935  0.4117  0.0643 -0.1574
75048SOL    HW143136   0.725   7.604   9.972  0.6479  1.3638  1.7380
75048SOL    HW243137   0.699   7.752   9.953 -1.4151  0.8451  0.1135
75049SOL     OW43138   4.815  11.446   4.333  0.3487  0.6529  0.5913
75049SOL    HW143139   4.852  11.534   4.338 -1.9436  1.6668  0.8314
75049SOL    HW243140   4.723  11.459   4.307  0.2606 -1.7515 -0.6833
75050SOL     OW43141   3.417  11.077  11.514 -0.4104  0.1501 -0.6070
75050SOL    HW143142   3.506  11.049  11.533  0.1313  0.0793 -3.0025
75050SOL    HW243143   3.362  11.009  11.555  0.6696 -0.7122 -0.5298
75051SOL     OW43144   4.245   6.625  11.879  0.2261 -0.1450  0.5589
75051SOL    HW143145   4.252   6.542  11.834  0.9484 -0.1216  0.6146
75051SOL    HW243146   4.326   6.632  11.930 -1.3826 -1.1309  3.5116
75052SOL     OW43147   4.024   1.454   3.791  0.5755  0.7167 -0.1152
75052SOL    HW143148   3.952   1.517   3.786  1.6473  1.9744 -0.1009
75052SOL    HW243149   4.000   1.397   3.865 -1.4223 -0.2556 -1.4241
75053SOL     OW43150   7.850   4.193   3.514 -0.0140 -0.4424 -0.0269
75053SOL    HW143151   7.915   4.228   3.574 -1.1880 -1.0100  1.6486
75053SOL    HW243152   7.823   4.268   3.461  0.1395  0.3641  1.0086
75054SOL     OW43153   0.731   9.738   4.305 -0.1085  0.0229 -0.0288
75054SOL    HW143154   0.651   9.786   4.327 -0.4405 -0.0612 -1.0054
75054SOL    HW243155   0.801   9.790   4.343 -0.4196  1.5084 -1.3310
75055SOL     OW43156   6.331   0.000   2.477  0.3734  0.3299 -0.6186
75055SOL    HW143157   6.308  -0.044   2.395  1.9424 -0.3595 -0.7344
75055SOL    HW243158   6.358  -0.070   2.535 -0.7895  0.8121  0.5397
75056SOL     OW43159   9.043   9.554   0.249 -0.1624 -0.6092 -0.2231
75056SOL    HW143160   8.957   9.511   0.250  0.0930 -1.1295 -0.2397
75056SOL    HW243161   9.052   9.589   0.160 -1.0910  0.9747  0.2625
75057SOL     OW43162  10.607   0.494   6.107  0.0729  0.6685  0.4184
75057SOL    HW143163  10.544   0.423   6.121 -1.5286  1.7470 -0.9003
75057SOL    HW243164  10.693   0.453   6.120 -0.7995 -1.4378 -0.0581
75058SOL     OW43165  10.242   4.663   9.487 -0.1148  0.4889 -0.5305
75058SOL    HW143166  10.233   4.591   9.425 -2.1767 -1.1912  1.5379
75058SOL    HW243167  10.333   4.659   9.517 -0.6573 -2.7379  1.0835
75059SOL     OW43168  13.073   1.962   8.045 -0.1309  0.2394 -0.1116
75059SOL    HW143169  12.995   1.934   8.092 -0.0707 -0.4037 -0.3960
75059SOL    HW243170  13.140   1.971   8.113 -0.2333  0.0038  0.0202
75060SOL     OW43171  13.011   4.863  13.448 -0.5021 -0.1882  0.8763
75060SOL    HW143172  13.035   4.949  13.415 -0.1680  0.3303  2.3907
75060SOL    HW243173  13.063   4.852  13.528 -0.2602 -1.9545  0.5277
75061SOL     OW43174   1.035   6.011  11.859 -0.0386  0.1048 -0.1791
75061SOL    HW143175   0.954   6.039  11.817  0.0469 -0.0489 -0.4482
75061SOL    HW243176   1.104   6.032  11.796  0.1898  0.7069  0.2531
75062SOL     OW43177   3.529  10.925  12.463  0.3179 -0.5624  0.0933
75062SOL    HW143178   3.523  10.947  12.555  1.1246 -0.6975  0.1859
75062SOL    HW243179   3.454  10.867  12.447 -1.0751  1.1275  0.1453
75063SOL     OW43180   6.037  11.400  10.784  0.0802 -0.5647  0.0601
75063SOL    HW143181   5.985  11.468  10.743  0.0263 -1.0661 -0.7180
75063SOL    HW243182   5.983  11.321  10.777  1.6184 -1.5007 -2.3534
75064SOL     OW43183   0.929   7.948  11.744 -0.3667  0.0770  0.4416
75064SOL    HW143184   0.998   7.893  11.706  0.4242  0.3620  1.4401
75064SOL    HW243185   0.956   8.038  11.723 -1.2711  0.1502 -0.5339
75065SOL     OW43186   6.796   3.842   9.679  0.2271 -0.3836 -0.1344
75065SOL    HW143187   6.849   3.914   9.712 -0.5564  0.1013  0.0798
75065SOL    HW243188   6.745   3.813   9.755 -1.6672  0.7978 -0.8815
75066SOL     OW43189  13.525  11.765   3.591 -0.3299  0.0359 -0.3102
75066SOL    HW143190  13.502  11.831   3.526  1.5469 -0.9220 -2.0439
75066SOL    HW243191  13.573  11.814   3.658  1.8728  0.4164 -2.0336
75067SOL     OW43192   6.111   4.288   5.932 -0.1642 -0.2065 -0.1097
75067SOL    HW143193   6.205   4.276   5.946 -0.2426  0.6478  1.3081
75067SOL    HW243194   6.071   4.210   5.970 -0.0793 -0.2482 -0.1058
75068SOL     OW43195  12.135  11.267   6.156 -0.3185  0.1656  0.2359
75068SOL    HW143196  12.170  11.264   6.066  0.9058 -0.6200  0.7140
75068SOL    HW243197  12.183  11.339   6.197  0.2846 -0.4969  0.7082
75069SOL     OW43198  12.198  13.014   7.676  0.1750 -0.2019  0.0060
75069SOL    HW143199  12.248  13.095   7.685  0.6458 -0.4760 -0.1192
75069SOL    HW243200  12.200  12.996   7.582  3.3764 -2.3928  0.3449
75070SOL     OW43201   3.848   7.765  14.053  0.7016  0.1743  0.1641
75070SOL    HW143202   3.905   7.774  13.976 -1.5564  2.1317 -1.4633
75070SOL    HW243203   3.783   7.699  14.027  0.1263  0.5953  0.4978
75071SOL     OW43204   1.016  11.155   5.067 -0.0633  0.2863  0.5184
75071SOL    HW143205   1.058  11.227   5.114  0.4249 -0.0204  0.5615
75071SOL    HW243206   1.061  11.076   5.098  0.4148  0.0986 -0.6017
75072SOL     OW43207   6.403   4.608   1.501  0.2675 -0.6342 -0.2371
75072SOL    HW143208   6.469   4.539   1.497  0.3133 -0.6925  1.0565
75072SOL    HW243209   6.405   4.638   1.592 -0.9363 -0.0946 -0.3636
75073SOL     OW43210   9.117   0.742   3.667 -0.2008  0.3529  0.5701
75073SOL    HW143211   9.171   0.787   3.732 -0.1303  0.6693  0.2966
75073SOL    HW243212   9.105   0.654   3.702 -0.6385  0.6910  1.2899
75074SOL     OW43213   5.546  12.498  13.788  0.2626  0.1841 -0.1047
75074SOL    HW143214   5.617  12.558  13.813 -0.3249  0.7656  0.1996
75074SOL    HW243215   5.555  12.489  13.693 -0.2945  1.6377 -0.3203
75075SOL     OW43216   5.913   3.206   3.091  0.1314  0.3141 -0.1936
75075SOL    HW143217   5.923   3.112   3.104  2.2259  0.6739  1.4877
75075SOL    HW243218   5.942   3.222   3.001  2.0109 -0.4425  0.2172
75076SOL     OW43219   7.588   3.495   5.413  0.1094  0.6675  0.5868
75076SOL    HW143220   7.671   3.452   5.435  0.2108  0.8984  0.6514
75076SOL    HW243221   7.530   3.423   5.387  0.4964  0.5558  0.0106
75077SOL     OW43222  12.060   8.163   9.598 -0.8685 -0.0543 -0.0070
75077SOL    HW143223  12.062   8.101   9.671  0.9200  0.4277  0.3980
75077SOL    HW243224  12.024   8.243   9.636  1.8314  0.8260  0.9685
75078SOL     OW43225  11.177   3.598   9.304 -0.4688  0.2949 -0.2000
75078SOL    HW143226  11.142   3.541   9.235 -1.9342  1.3718 -0.3891
75078SOL    HW243227  11.202   3.538   9.374 -1.9823 -0.6088 -0.3912
75079SOL     OW43228   3.174   7.824  13.717 -0.3822  0.0464  0.1998
75079SOL    HW143229   3.218   7.832  13.801 -0.0541 -0.1016  0.0437
75079SOL    HW243230   3.245   7.816  13.653 -0.6442 -1.1849  0.0427
75080SOL     OW43231   5.556  10.907   5.604  0.0443 -0.0648 -0.6477
75080SOL    HW143232   5.571  10.857   5.524  0.4545  0.3636 -0.8458
75080SOL    HW243233   5.634  10.962   5.613 -0.3655  0.4942 -0.4009
75081SOL     OW43234  12.643   5.801  13.603 -0.7710  0.6012 -0.6304
75081SOL    HW143235  12.550   5.780  13.601 -0.5364 -1.0407  1.4544
75081SOL    HW243236  12.648   5.881  13.656 -1.0626  1.5725 -2.0140
75082SOL     OW43237  12.489   8.267  12.142  0.7675 -0.0739 -0.0717
75082SOL    HW143238  12.404   8.282  12.183  0.6139 -0.5813 -0.1951
75082SOL    HW243239  12.540   8.222  12.209  0.9829  0.3428  0.0456
75083SOL     OW43240   3.602   7.413  12.067 -0.1734 -0.1216 -0.1465
75083SOL    HW143241   3.518   7.447  12.096 -0.3182 -0.5882 -0.0174
75083SOL    HW243242   3.586   7.376  11.981 -0.1521 -0.4044 -0.0320
75084SOL     OW43243   4.259   1.290   5.079 -0.4901 -0.3649 -0.0881
75084SOL    HW143244   4.354   1.302   5.070 -0.4767 -0.9470 -0.8326
75084SOL    HW243245   4.223   1.378   5.071 -0.1576 -0.3599 -1.9624
75085SOL     OW43246   7.936   1.646   4.343 -0.3024  0.4661  0.2445
75085SOL    HW143247   7.957   1.733   4.308  1.0218 -0.2073 -0.7324
75085SOL    HW243248   7.860   1.617   4.293  0.7805  0.0556 -1.2319
75086SOL     OW43249  12.242  13.048   8.221 -0.0218  0.6841 -0.6200
75086SOL    HW143250  12.160  13.097   8.226 -0.4541 -0.0656 -0.2092
75086SOL    HW243251  12.242  12.993   8.299  0.7466  0.4751 -0.7601
75087SOL     OW43252   2.415  11.831   9.637 -0.4658  0.1989 -0.5300
75087SOL    HW143253   2.467  11.783   9.573 -0.0742  0.8059 -0.6744
75087SOL    HW243254   2.339  11.774   9.654 -0.1710 -0.3227 -0.9257
75088SOL     OW43255   8.010   8.231  12.382 -0.4611  0.0457 -0.0787
75088SOL    HW143256   7.926   8.278  12.374 -0.4286  0.2600  0.7444
75088SOL    HW243257   8.035   8.243  12.473  0.3119 -0.2991 -0.2409
75089SOL     OW43258   6.717   5.747  14.079 -0.1392  0.1826 -0.3956
75089SOL    HW143259   6.666   5.671  14.052  0.6290 -0.1504 -0.9610
75089SOL    HW243260   6.716   5.805  14.003 -0.0929  0.3939 -0.2367
75090SOL     OW43261   0.454   7.854   3.348 -0.2666 -0.4945 -0.1850
75090SOL    HW143262   0.447   7.817   3.436 -2.2156 -1.0210 -0.5099
75090SOL    HW243263   0.482   7.944   3.362  0.6019 -0.9108  0.8874
75091SOL     OW43264   5.726   2.341   8.685 -0.0427  0.1938 -0.7437
75091SOL    HW143265   5.789   2.411   8.698 -0.7753  0.9198 -0.9990
75091SOL    HW243266   5.773   2.277   8.631  1.3026 -0.4936  1.1391
75092SOL     OW43267   4.112   1.720  10.254 -0.6151  0.0398  0.5020
75092SOL    HW143268   4.186   1.731  10.194 -0.4768  0.0528  0.6730
75092SOL    HW243269   4.036   1.711  10.197 -0.1204 -3.1610  0.1682
75093SOL     OW43270  11.619   4.274   6.987 -0.2855 -0.1123 -0.6797
75093SOL    HW143271  11.651   4.213   6.921 -1.1949  0.1358 -1.3536
75093SOL    HW243272  11.538   4.235   7.019  0.4611 -0.5603  0.7801
75094SOL     OW43273   5.883   1.630  13.649 -0.0733  0.7897  0.3439
75094SOL    HW143274   5.863   1.579  13.571 -2.4851  0.2670  1.2186
75094SOL    HW243275   5.964   1.590  13.683  0.9000  0.9072 -1.7061
75095SOL     OW43276   1.326   1.002   5.393  0.6247  0.3895  0.2522
75095SOL    HW143277   1.318   1.066   5.321 -1.6078  1.7916  1.6366
75095SOL    HW243278   1.386   1.044   5.455 -1.0743  1.3778  1.3011
75096SOL     OW43279  13.893   4.358   2.457 -0.0229 -0.6026  0.0906
75096SOL    HW143280  13.840   4.279   2.473 -0.6863 -0.3411 -0.7225
75096SOL    HW243281  13.981   4.334   2.486 -0.5285 -1.1360  1.2349
75097SOL     OW43282   1.984   2.098   6.533  0.4790  0.3406  0.3607
75097SOL    HW143283   1.891   2.077   6.542  0.3532 -0.2858 -1.7893
75097SOL    HW243284   2.003   2.085   6.440  2.8124  0.1002  0.7953
75098SOL     OW43285  10.653   2.429  12.820 -0.0393  0.6145  0.0339
75098SOL    HW143286  10.577   2.449  12.765  0.0938  1.8962  0.2623
75098SOL    HW243287  10.647   2.493  12.892  1.0229  0.4593  0.2806
75099SOL     OW43288   9.413  10.702   4.630 -0.8305  0.4394 -0.5275
75099SOL    HW143289   9.485  10.649   4.662 -0.9996  0.9657  0.7865
75099SOL    HW243290   9.350  10.639   4.596 -0.2619 -0.0823 -0.6236
75100SOL     OW43291   2.408   8.425  13.735  0.6949  0.1946  0.4754
75100SOL    HW143292   2.338   8.429  13.670  0.3730  0.2287  0.8227
75100SOL    HW243293   2.482   8.387  13.687  0.2163 -0.5452  0.3023
75101SOL     OW43294   5.526   2.039   0.167  0.1715  0.0990 -0.1649
75101SOL    HW143295   5.462   2.056   0.098 -0.1076 -0.3178 -0.0113
75101SOL    HW243296   5.536   2.123   0.212 -1.1364 -0.0865  0.5368
75102SOL     OW43297  13.080   7.818  11.003 -0.1501 -0.6009 -0.2294
75102SOL    HW143298  13.042   7.765  11.073  1.2713 -3.1315 -1.2774
75102SOL    HW243299  13.006   7.837  10.945 -1.2738  1.2247  1.6600
75103SOL     OW43300  13.253  11.785  12.773  0.6488 -0.2238  0.3175
75103SOL    HW143301  13.251  11.795  12.868 -3.3645 -1.5796  0.5623
75103SOL    HW243302  13.189  11.848  12.740 -0.5117 -2.0131 -1.0715
75104SOL     OW43303   7.471   9.001  12.074 -0.8473 -0.0233 -0.2273
75104SOL    HW143304   7.516   9.053  12.140 -2.2368 -0.1110  0.8419
75104SOL    HW243305   7.505   9.033  11.991  1.2932 -0.2279  0.4938
75105SOL     OW43306   1.085   9.012   5.620 -0.5617 -0.0535  0.5497
75105SOL    HW143307   1.013   8.991   5.561  0.5355 -0.8319 -0.5772
75105SOL    HW243308   1.121   9.094   5.587 -1.5559  0.9109  1.7590
75106SOL     OW43309  12.358   8.568   4.425 -0.3868  0.3823  0.2695
75106SOL    HW143310  12.301   8.589   4.499  0.8391  0.1011  1.3473
75106SOL    HW243311  12.346   8.474   4.411 -1.7866  0.7174 -0.9468
75107SOL     OW43312   6.997  12.784   8.771  0.1230 -0.5336 -0.5295
75107SOL    HW143313   6.934  12.846   8.807  2.7475  1.7208  0.5475
75107SOL    HW243314   7.067  12.781   8.835  1.2597 -2.7651 -1.7477
75108SOL     OW43315   0.142   7.009  13.722 -0.6069  0.2690 -0.5586
75108SOL    HW143316   0.131   6.952  13.798  0.1521 -0.7430 -1.1781
75108SOL    HW243317   0.237   7.014  13.709 -0.6958  1.0176 -1.0196
75109SOL     OW43318   2.699   8.461  10.699 -0.2407  0.9132 -0.3221
75109SOL    HW143319   2.634   8.410  10.651 -1.6509  1.8937  0.4991
75109SOL    HW243320   2.730   8.401  10.767 -0.8782  0.7044 -0.2109
75110SOL     OW43321   9.466   4.559   0.322 -0.0348 -0.2938  0.7203
75110SOL    HW143322   9.511   4.562   0.407 -1.3761 -0.1291  1.4580
75110SOL    HW243323   9.500   4.634   0.274  1.1055 -0.6666  0.9147
75111SOL     OW43324  10.253   1.909  10.762  0.1933 -0.5139 -0.2695
75111SOL    HW143325  10.297   1.954  10.690  0.1258 -0.3384 -0.2034
75111SOL    HW243326  10.318   1.848  10.796  0.0488 -0.9670 -0.8123
75112SOL     OW43327   5.737   2.254   9.070  0.6396 -0.7120  0.0523
75112SOL    HW143328   5.714   2.278   9.159  1.4699 -2.2620  0.7356
75112SOL    HW243329   5.831   2.274   9.063  0.8388 -1.6381 -0.0687
75113SOL     OW43330   6.258  12.148  10.812  0.2386  0.2213 -0.0367
75113SOL    HW143331   6.303  12.214  10.864  0.3654  0.1230 -0.0206
75113SOL    HW243332   6.308  12.068  10.826  0.7064  0.3533 -0.8870
75114SOL     OW43333   8.296  11.856   2.061  0.8182  0.5444  0.0182
75114SOL    HW143334   8.214  11.892   2.095  1.7296  0.0661  2.9363
75114SOL    HW243335   8.315  11.910   1.984 -1.3870  1.7071  0.2048
75115SOL     OW43336   2.765   9.891   5.003 -0.2426  0.1780  0.6087
75115SOL    HW143337   2.858   9.871   4.994 -0.0715  0.3307  1.8340
75115SOL    HW243338   2.762   9.975   5.048 -0.9566 -0.3451  1.5847
75116SOL     OW43339   6.122   4.490  12.265 -0.2205 -0.5139  0.6896
75116SOL    HW143340   6.109   4.556  12.198  0.8782  1.5530  2.3799
75116SOL    HW243341   6.036   4.476  12.304 -0.2335  1.1315  1.3213
75117SOL     OW43342  10.981  11.735   1.372  0.3474  0.6392  0.3069
75117SOL    HW143343  10.917  11.807   1.372  1.0176  1.2865 -1.4430
75117SOL    HW243344  10.931  11.658   1.397 -1.0442  1.2148 -0.5957
75118SOL     OW43345   7.676   0.236   9.723 -0.0612 -0.1817 -0.1192
75118SOL    HW143346   7.738   0.167   9.749 -0.2913  0.4912  2.4887
75118SOL    HW243347   7.603   0.189   9.684  0.3843 -1.3328  0.3870
75119SOL     OW43348   6.284   5.300   6.966 -0.4466 -0.0380 -0.0887
75119SOL    HW143349   6.277   5.395   6.953 -1.6652  0.0949  1.3263
75119SOL    HW243350   6.201   5.266   6.934 -0.1348 -0.6068 -0.2980
75120SOL     OW43351   0.979   4.554   1.205  0.3715 -0.9902 -0.4992
75120SOL    HW143352   1.018   4.559   1.118  0.9962 -1.1507 -0.2364
75120SOL    HW243353   1.034   4.492   1.253  1.6297  0.9972  0.8018
75121SOL     OW43354  11.325  11.766   9.717 -0.3970  0.1324  0.1271
75121SOL    HW143355  11.407  11.801   9.681 -1.4547  1.3977 -1.1324
75121SOL    HW243356  11.351  11.684   9.759  1.2443 -0.4752 -1.8945
75122SOL     OW43357  13.410   2.774   1.762 -0.1459 -0.9523 -0.3658
75122SOL    HW143358  13.408   2.800   1.669  0.0952 -1.7294 -0.5946
75122SOL    HW243359  13.495   2.732   1.773  0.0663 -0.3326  0.3606
75123SOL     OW43360   3.515   0.037   3.459 -0.6612 -0.0295 -0.0672
75123SOL    HW143361   3.469  -0.020   3.397  2.4163  0.4065 -3.0210
75123SOL    HW243362   3.468   0.120   3.454  0.5432  0.6086 -3.4794
75124SOL     OW43363   5.358   0.399   4.121  0.3547 -0.3087  0.2027
75124SOL    HW143364   5.339   0.310   4.093 -2.2398  0.7078 -1.6561
75124SOL    HW243365   5.341   0.399   4.216  1.4626 -1.9616  0.4495
75125SOL     OW43366   0.257  10.987   4.311  0.0153  0.3193  0.1384
75125SOL    HW143367   0.320  10.950   4.250 -0.4102 -0.5668  0.2228
75125SOL    HW243368   0.297  10.977   4.397  0.3357  0.9899  0.0776
75126SOL     OW43369  10.226   3.766   1.611  0.2748 -0.4000 -0.4699
75126SOL    HW143370  10.239   3.856   1.640 -0.9296 -0.4922  0.3965
75126SOL    HW243371  10.218   3.773   1.516  1.2634  0.2666 -0.5191
75127SOL     OW43372  13.055  13.830   7.584  0.5058  0.2487 -0.6162
75127SOL    HW143373  13.023  13.752   7.538  2.6219 -1.2239  0.2290
75127SOL    HW243374  13.150  13.821   7.582  0.7470  1.4458  1.7665
75128SOL     OW43375  13.272   6.600  13.934  0.2475  0.0933  0.0332
75128SOL    HW143376  13.308   6.682  13.900  0.5122  0.5357  1.3627
75128SOL    HW243377  13.177   6.612  13.928  0.2881  0.1026 -0.6824
75129SOL     OW43378   4.908   6.056   8.755  0.0674 -0.3160  0.0610
75129SOL    HW143379   4.983   6.111   8.733  0.1409 -0.3491  0.2292
75129SOL    HW243380   4.834   6.117   8.757  0.2234 -0.1455  0.6941
75130SOL     OW43381   4.688  11.373   8.390  0.0387 -0.7479 -0.0685
75130SOL    HW143382   4.618  11.309   8.397  0.3328 -0.9411  1.3232
75130SOL    HW243383   4.730  11.354   8.306 -1.4473 -0.7365 -0.8343
75131SOL     OW43384   2.984  12.166   5.305 -0.2627 -0.0724  0.6633
75131SOL    HW143385   3.019  12.172   5.394  1.2340  0.1536  0.0874
75131SOL    HW243386   2.997  12.075   5.279  0.9342  0.2302  0.0816
75132SOL     OW43387  13.405   4.333   0.176 -0.1323  0.1964 -0.1895
75132SOL    HW143388  13.377   4.264   0.116 -0.5980  0.7270 -0.5953
75132SOL    HW243389  13.398   4.294   0.263  0.9326 -0.7154 -0.4909
75133SOL     OW43390   1.573   0.874  13.171  0.3430 -0.4516 -0.4530
75133SOL    HW143391   1.519   0.797  13.155 -2.5769  1.7861 -2.3922
75133SOL    HW243392   1.642   0.870  13.105  0.9981 -1.9735  0.2821
75134SOL     OW43393  13.009   3.306   7.374  0.4260 -0.2531  0.3044
75134SOL    HW143394  12.975   3.238   7.317 -2.9254  0.3843  1.3413
75134SOL    HW243395  13.100   3.280   7.391  0.6259 -2.0460 -2.7787
75135SOL     OW43396   5.297  10.733  12.179  0.7988 -0.0799  0.5637
75135SOL    HW143397   5.312  10.809  12.122  2.8241 -0.9063 -0.0742
75135SOL    HW243398   5.383  10.692  12.188 -0.4237 -2.9680 -0.0439
75136SOL     OW43399   1.485   4.597  10.473  0.0686  0.7133 -0.3192
75136SOL    HW143400   1.440   4.513  10.484  0.3474  0.6472  0.3705
75136SOL    HW243401   1.422   4.662  10.504  0.2217  0.6700  0.0907
75137SOL     OW43402  11.036  10.370   0.540 -0.0321  0.1168 -0.0263
75137SOL    HW143403  11.061  10.298   0.597 -1.1000 -0.4771 -0.2822
75137SOL    HW243404  11.030  10.331   0.453 -2.7086 -0.0480  0.1434
75138SOL     OW43405  10.812   5.575   2.817  0.2283 -0.2066 -0.0143
75138SOL    HW143406  10.904   5.594   2.799  0.0922  2.2093  1.4373
75138SOL    HW243407  10.810   5.551   2.910 -0.3683 -2.4938 -0.5556
75139SOL     OW43408   7.301  11.099  12.538  0.2997 -0.0514 -0.1284
75139SOL    HW143409   7.361  11.087  12.611 -1.0000  1.9776  1.4023
75139SOL    HW243410   7.329  11.036  12.473  2.4404 -0.9437  1.5364
75140SOL     OW43411   0.636  12.881  10.725  0.2620  0.1117  0.0168
75140SOL    HW143412   0.667  12.811  10.668  1.1940  0.2089  0.3923
75140SOL    HW243413   0.712  12.906  10.776 -0.9361 -1.2656  2.6853
75141SOL     OW43414  13.531   5.491   7.731  0.3702  0.2688 -0.4013
75141SOL    HW143415  13.558   5.562   7.790 -0.0154  0.9384 -1.0091
75141SOL    HW243416  13.517   5.416   7.789  0.6186  0.7326  0.2799
75142SOL     OW43417  12.726  13.763   0.294  0.5712  0.4541 -0.6659
75142SOL    HW143418  12.717  13.678   0.250  1.4812  0.1176 -0.2197
75142SOL    HW243419  12.813  13.793   0.270  1.0830  0.2758  0.8631
75143SOL     OW43420   9.290   8.284  10.625  0.0675  0.1734 -0.2602
75143SOL    HW143421   9.290   8.210  10.686 -1.1984 -1.2614 -1.9077
75143SOL    HW243422   9.242   8.352  10.671 -0.6956 -0.8044  0.4407
75144SOL     OW43423  12.293   2.851   6.076 -0.0795 -0.5309 -0.5841
75144SOL    HW143424  12.318   2.940   6.100  0.0486  0.1089 -2.8476
75144SOL    HW243425  12.212   2.835   6.125  0.4644  0.4190  0.6646
75145SOL     OW43426   5.432   8.059   4.444 -0.4900  0.3136 -0.3190
75145SOL    HW143427   5.349   8.098   4.416 -0.3784  0.2614 -0.7175
75145SOL    HW243428   5.494   8.132   4.443 -0.6357  0.4635  0.4555
75146SOL     OW43429   0.524  13.839   8.651 -0.1161  0.6721  0.3463
75146SOL    HW143430   0.476  13.777   8.596 -1.4871  1.2878  0.7846
75146SOL    HW243431   0.504  13.925   8.614  0.2184  0.9851  0.8722
75147SOL     OW43432   9.134   4.739  11.888  0.7056 -0.4343  0.1072
75147SOL    HW143433   9.202   4.805  11.874  0.7582 -0.3859  0.5746
75147SOL    HW243434   9.087   4.735  11.804  1.3833 -0.5837 -0.2668
75148SOL     OW43435   2.830   8.097   9.365  0.0043 -0.0713  0.5779
75148SOL    HW143436   2.851   8.189   9.345 -0.0861  0.0793  1.1548
75148SOL    HW243437   2.785   8.101   9.449  0.8693 -0.7418  1.0789
75149SOL     OW43438   8.655   7.582   8.435  0.5151  0.1018 -0.5385
75149SOL    HW143439   8.741   7.544   8.418  0.3825 -0.5440  0.1535
75149SOL    HW243440   8.628   7.621   8.351  1.1660 -0.3180 -0.9482
75150SOL     OW43441   3.248   2.440  11.350 -0.1842 -0.1834  0.4684
75150SOL    HW143442   3.259   2.345  11.357  0.2891 -0.1515  0.2214
75150SOL    HW243443   3.332   2.476  11.378  0.4074  0.0790 -1.5038
75151SOL     OW43444   0.389  10.676   5.310 -0.3216 -0.8298  0.2193
75151SOL    HW143445   0.375  10.610   5.242  0.3396 -0.0842 -0.6639
75151SOL    HW243446   0.483  10.672   5.328  0.3327  1.8665 -1.9998
75152SOL     OW43447  13.373   5.985   0.920 -0.3499 -0.4407  0.6949
75152SOL    HW143448  13.452   5.953   0.877 -0.3124 -0.0393  0.4574
75152SOL    HW243449  13.380   5.953   1.010  1.2199  1.4661  1.3175
75153SOL     OW43450  12.674   5.380   4.460  0.3413 -0.1151 -0.0178
75153SOL    HW143451  12.758   5.391   4.414 -0.0980  1.2764 -0.5284
75153SOL    HW243452  12.699   5.365   4.551  1.1697 -0.6440 -0.3202
75154SOL     OW43453  13.112  11.782   9.968 -0.3184 -0.2298 -0.2898
75154SOL    HW143454  13.093  11.739  10.051 -3.0424  0.8606 -0.2195
75154SOL    HW243455  13.177  11.849   9.989 -0.7997 -0.1251  0.9442
75155SOL     OW43456  10.047   1.967  13.917  0.3280 -0.2166 -0.4839
75155SOL    HW143457  10.079   1.885  13.879 -0.2247 -0.6889  0.0478
75155SOL    HW243458  10.047   1.951  14.012 -1.9820 -0.4372 -0.4746
75156SOL     OW43459  13.591   2.923   4.364 -0.2790 -0.3612 -0.1422
75156SOL    HW143460  13.575   2.924   4.270  0.2849 -1.5894 -0.2750
75156SOL    HW243461  13.596   3.015   4.389 -0.6553 -0.0227 -1.2737
75157SOL     OW43462   1.486   2.398   1.850 -0.6415  0.1268 -0.0357
75157SOL    HW143463   1.509   2.430   1.762  0.4810  1.5076  0.7113
75157SOL    HW243464   1.394   2.374   1.843 -0.7540  0.8323 -1.4303
75158SOL     OW43465   2.475  11.656   9.204 -0.2566 -0.3233 -0.1979
75158SOL    HW143466   2.477  11.638   9.298  0.0792 -1.7015 -0.4449
75158SOL    HW243467   2.466  11.751   9.198  0.5245 -0.1269  1.2260
75159SOL     OW43468  10.849  13.170  12.920  0.3605  0.0182  0.6055
75159SOL    HW143469  10.838  13.263  12.898 -2.7656 -0.9261 -2.9705
75159SOL    HW243470  10.827  13.165  13.013 -4.0790  2.4488 -0.0125
75160SOL     OW43471   9.901   1.081   4.555  0.0077  0.2201 -0.8057
75160SOL    HW143472   9.984   1.095   4.600  0.5891 -1.8309 -1.1050
75160SOL    HW243473   9.864   1.003   4.596 -2.3879  1.7141  0.0870
75161SOL     OW43474  12.074  11.202   3.883 -0.1030 -0.0866  0.0752
75161SOL    HW143475  12.156  11.198   3.835  0.3509  0.0745  0.8237
75161SOL    HW243476  12.092  11.155   3.965 -0.4725  0.7245  0.6396
75162SOL     OW43477   8.070  10.935  12.257  0.2049  0.3187  0.0827
75162SOL    HW143478   8.152  10.895  12.286  0.6552  0.5413 -0.8486
75162SOL    HW243479   8.093  11.027  12.242 -0.5288  0.6805  1.0293
75163SOL     OW43480   7.538   2.949  11.079  0.1307 -0.6870 -0.4366
75163SOL    HW143481   7.504   3.038  11.081  0.5771 -0.5231  0.4634
75163SOL    HW243482   7.522   2.915  11.167 -0.5166 -1.6860 -0.9251
75164SOL     OW43483   4.389   5.325   9.423  0.0773  0.4611  0.0964
75164SOL    HW143484   4.443   5.395   9.387 -0.7911  0.8736 -0.4599
75164SOL    HW243485   4.372   5.268   9.348 -0.6082  0.5746  0.1580
75165SOL     OW43486   2.641   5.282   9.150  0.2830 -0.0346  0.1572
75165SOL    HW143487   2.688   5.315   9.073 -0.0357  0.2218  0.0700
75165SOL    HW243488   2.574   5.348   9.167 -0.1146 -0.4461  0.2170
75166SOL     OW43489   7.235  14.062  11.389 -0.3272  0.2092 -0.0823
75166SOL    HW143490   7.253  13.970  11.366 -0.6964 -0.0911  0.7572
75166SOL    HW243491   7.179  14.056  11.467 -0.9991  1.1470 -0.4777
75167SOL     OW43492  11.407  12.202   4.188 -0.7694 -0.3638  0.3731
75167SOL    HW143493  11.454  12.207   4.271  1.3739  1.2013 -0.8525
75167SOL    HW243494  11.463  12.248   4.126 -3.6724  1.1351 -1.3434
75168SOL     OW43495   3.009   2.335   8.252 -0.2537 -0.1707 -0.3532
75168SOL    HW143496   2.948   2.389   8.202  1.0594 -0.3241 -2.1787
75168SOL    HW243497   3.031   2.262   8.195  0.4102 -0.9954  0.8931
75169SOL     OW43498   9.108  10.204   9.932  0.0961  0.0130 -0.1270
75169SOL    HW143499   9.093  10.215  10.026 -0.2099 -1.9207  0.1026
75169SOL    HW243500   9.030  10.239   9.891 -0.4826 -0.5524  0.4595
75170SOL     OW43501  14.075   8.537   2.740 -0.0260  0.2486 -1.2970
75170SOL    HW143502  14.077   8.532   2.835  0.6691 -0.4785 -1.3447
75170SOL    HW243503  14.036   8.455   2.712  0.0604  0.3257 -1.6507
75171SOL     OW43504   5.720  13.806   6.417  0.8942  0.2511  0.0294
75171SOL    HW143505   5.630  13.777   6.409  1.5430 -1.3989 -2.0685
75171SOL    HW243506   5.768  13.729   6.448  1.8489  0.5712 -0.6059
75172SOL     OW43507   3.501  11.004  10.366  0.0995  0.3604 -0.8489
75172SOL    HW143508   3.556  11.037  10.295 -2.6671  1.6831 -2.5379
75172SOL    HW243509   3.522  10.911  10.370  2.1925  0.7246 -1.5860
75173SOL     OW43510  13.295   8.063  13.715 -0.4060  0.0383 -0.3498
75173SOL    HW143511  13.283   7.969  13.697  1.9182 -0.0476 -1.9679
75173SOL    HW243512  13.270   8.107  13.634 -0.0922  0.6813 -0.1055
75174SOL     OW43513   6.855   2.762   8.961 -0.2844  0.1137 -0.2844
75174SOL    HW143514   6.897   2.768   9.046 -0.9045  0.3947  0.0044
75174SOL    HW243515   6.922   2.723   8.904  0.6561  1.3236 -0.0334
75175SOL     OW43516   5.957   5.002   7.125 -0.0097 -0.4054 -0.6685
75175SOL    HW143517   5.968   4.925   7.070 -0.1755 -0.8444 -0.0964
75175SOL    HW243518   5.923   4.968   7.208  0.1830  0.2478 -0.3115
75176SOL     OW43519   2.709   8.142  12.612  0.2650  0.2123  0.0359
75176SOL    HW143520   2.667   8.149  12.698  0.6313  0.6609  0.1784
75176SOL    HW243521   2.753   8.226  12.600  0.9191 -0.1611 -0.2230
75177SOL     OW43522   4.571   0.528   4.354  0.2845 -0.3837 -0.4918
75177SOL    HW143523   4.554   0.449   4.304  0.2508  0.1825 -1.3909
75177SOL    HW243524   4.654   0.562   4.319  0.4769 -0.2023  0.1185
75178SOL     OW43525   1.957   8.629   8.545  0.1955 -0.1616  0.4276
75178SOL    HW143526   1.926   8.543   8.573 -0.6268  0.2756  0.8877
75178SOL    HW243527   1.962   8.622   8.449  0.7579 -0.9121  0.4994
75179SOL     OW43528  10.674  12.865   0.731  0.1168 -0.2923  0.1573
75179SOL    HW143529  10.703  12.796   0.790 -0.7008 -0.2910  0.5743
75179SOL    HW243530  10.650  12.820   0.650 -0.1453 -0.4727  0.3320
75180SOL     OW43531   8.094   1.747   5.546 -0.0626 -0.0800  0.4918
75180SOL    HW143532   8.041   1.677   5.584 -0.4442  0.1740  0.4422
75180SOL    HW243533   8.102   1.724   5.454  0.8645 -0.6971  0.7166
75181SOL     OW43534   2.064   7.851   1.086  0.4520  0.1216  0.6603
75181SOL    HW143535   2.057   7.826   1.179  0.8119 -1.9282  0.1960
75181SOL    HW243536   2.154   7.829   1.062 -0.4456 -2.2383 -0.8752
75182SOL     OW43537  13.820   7.759   9.716  0.0445  0.4722  0.2151
75182SOL    HW143538  13.831   7.676   9.762  1.6735  0.7721  0.4217
75182SOL    HW243539  13.742   7.798   9.756  0.4807 -0.0055  1.6038
75183SOL     OW43540   6.463   1.393   5.011  0.1022  0.2865  0.0645
75183SOL    HW143541   6.392   1.336   5.042  0.1080  0.1195 -0.2220
75183SOL    HW243542   6.452   1.474   5.060  0.3954 -0.1368  0.8541
75184SOL     OW43543   6.919  10.695   8.681  0.4648  0.0911 -0.0672
75184SOL    HW143544   6.827  10.718   8.695  0.1934 -0.5673 -0.7432
75184SOL    HW243545   6.923  10.600   8.691  0.9985  0.0697 -0.4282
75185SOL     OW43546  13.219   3.311  12.010  0.8497  0.3642 -0.5493
75185SOL    HW143547  13.313   3.306  11.990  0.9626  0.2550 -0.0024
75185SOL    HW243548  13.194   3.220  12.027  0.7562  0.4588 -0.1867
75186SOL     OW43549   6.956  11.597  11.619 -0.1723 -0.0360  0.4150
75186SOL    HW143550   6.924  11.576  11.531  1.4181 -0.6403 -0.0617
75186SOL    HW243551   6.879  11.629  11.666 -1.8132 -2.7884 -0.1593
75187SOL     OW43552   1.108   9.482   6.267  0.5278 -1.0689  0.1440
75187SOL    HW143553   1.159   9.482   6.185 -0.4760  0.6966 -0.5423
75187SOL    HW243554   1.017   9.485   6.238  0.1793  1.6069  1.2421
75188SOL     OW43555   9.775   0.827  13.053 -0.1505 -0.0322 -0.1357
75188SOL    HW143556   9.829   0.888  13.102 -0.2079  1.4218 -1.7489
75188SOL    HW243557   9.699   0.879  13.027 -1.9609 -1.7751  1.3410
75189SOL     OW43558   1.252   3.939   1.769 -0.2210  0.0036 -0.0462
75189SOL    HW143559   1.252   3.976   1.858 -1.1161 -0.1856  0.0423
75189SOL    HW243560   1.343   3.913   1.754  0.2895  1.5562  0.1669
75190SOL     OW43561   8.159  11.999   2.239 -0.4752 -0.0549 -0.2307
75190SOL    HW143562   8.074  11.969   2.269 -1.0847 -0.9448 -2.5680
75190SOL    HW243563   8.221  11.963   2.302 -1.7259 -0.5670  0.7469
75191SOL     OW43564   9.262   3.588   5.133 -0.0912 -0.2567  0.3410
75191SOL    HW143565   9.276   3.603   5.226 -1.6797  0.5345  0.4821
75191SOL    HW243566   9.317   3.512   5.112  0.3582 -0.3842  1.8809
75192SOL     OW43567   2.450   6.371   0.091  0.0778 -0.6336 -0.1981
75192SOL    HW143568   2.516   6.345   0.155  1.1171  1.3385 -0.3622
75192SOL    HW243569   2.367   6.365   0.138  0.8695  1.4807  1.6674
75193SOL     OW43570   9.382   3.997   6.038  0.3880  0.4941 -0.4187
75193SOL    HW143571   9.381   3.946   5.958 -1.1506  0.2109 -0.2555
75193SOL    HW243572   9.351   3.937   6.106 -0.3416  1.2895 -0.0170
75194SOL     OW43573  11.617   6.197   0.733 -0.0691 -0.2704  0.0904
75194SOL    HW143574  11.642   6.153   0.815 -0.8051 -1.3417 -0.2372
75194SOL    HW243575  11.585   6.126   0.677  1.8168  0.2122 -1.7015
75195SOL     OW43576  10.708   8.199  13.071 -0.0817 -0.6542 -0.2703
75195SOL    HW143577  10.651   8.146  13.126 -0.2852 -1.0817 -0.8769
75195SOL    HW243578  10.678   8.289  13.084  0.1346 -0.7026  0.6148
75196SOL     OW43579   3.364   2.884   0.577  0.7275 -0.1927 -0.2347
75196SOL    HW143580   3.289   2.827   0.558  2.0053 -1.7838 -0.7773
75196SOL    HW243581   3.402   2.901   0.491  1.1470  0.3590  0.0579
75197SOL     OW43582   4.691  13.040   1.108  0.5503 -0.1122  0.2395
75197SOL    HW143583   4.703  12.952   1.144  2.5523  0.2549  0.5844
75197SOL    HW243584   4.776  13.083   1.120 -0.4772  2.0040  0.4194
75198SOL     OW43585   1.490   3.778   8.948  0.3187 -0.2455 -0.1911
75198SOL    HW143586   1.490   3.683   8.938  0.6439 -0.4062  1.1603
75198SOL    HW243587   1.398   3.804   8.935  0.0423 -0.8700  0.4505
75199SOL     OW43588   3.932  11.873  11.017 -0.1705  0.2701  0.2029
75199SOL    HW143589   3.962  11.963  11.005  1.3849 -0.3345 -0.6526
75199SOL    HW243590   3.875  11.857  10.941 -0.2092  0.4264  0.1974
75200SOL     OW43591   2.310  10.030   3.201  0.2296 -0.5336  0.7183
75200SOL    HW143592   2.390  10.043   3.252  1.9575 -3.1213 -1.1133
75200SOL    HW243593   2.327  10.077   3.119  0.1817 -1.6191  0.0718
75201SOL     OW43594  13.772   7.145   1.474  0.2205  0.3088  0.3178
75201SOL    HW143595  13.688   7.126   1.431  0.0519  0.2538  0.6761
75201SOL    HW243596  13.750   7.158   1.566  0.3331  2.1777  0.1219
75202SOL     OW43597   9.032   2.036  10.168 -0.2652 -0.2443  0.2599
75202SOL    HW143598   9.085   2.083  10.103  2.0379 -2.7795  0.1117
75202SOL    HW243599   9.061   2.070  10.253  1.5347 -1.3967  0.1620
75203SOL     OW43600  11.896  10.281   2.022 -0.0427 -0.0412 -0.5198
75203SOL    HW143601  11.939  10.197   2.011  2.3597  0.9893  0.3253
75203SOL    HW243602  11.841  10.291   1.945  2.4703 -0.7689 -2.5231
75204SOL     OW43603   5.131  11.024  12.642  0.5287  0.2341 -0.9149
75204SOL    HW143604   5.174  10.949  12.684 -0.5155  0.9272  1.5262
75204SOL    HW243605   5.203  11.084  12.622  1.4671 -1.5676 -3.4924
75205SOL     OW43606   2.364   5.426   9.028 -0.1047  0.0642 -0.1908
75205SOL    HW143607   2.331   5.440   8.940  1.6220 -1.0211 -1.0513
75205SOL    HW243608   2.446   5.475   9.033 -0.8079  1.1813  1.2762
75206SOL     OW43609   2.604   0.276   9.544 -0.0647  0.1851 -0.1957
75206SOL    HW143610   2.661   0.211   9.504 -0.8669  0.7766 -2.4586
75206SOL    HW243611   2.663   0.337   9.587  0.7310 -1.6282  1.4649
75207SOL     OW43612  12.644   5.962   7.077  0.2217  0.0555 -0.1095
75207SOL    HW143613  12.726   5.938   7.035  1.0264  2.8244 -0.3188
75207SOL    HW243614  12.645   6.058   7.080 -2.5555  0.1636  0.7981
75208SOL     OW43615   8.630   7.793   1.986  0.2274  0.2962 -0.1046
75208SOL    HW143616   8.572   7.718   2.000 -0.2912  0.6350 -0.4205
75208SOL    HW243617   8.702   7.779   2.048  0.6353 -0.9634 -0.8276
75209SOL     OW43618   3.263   9.909   7.822 -0.6191  0.0592 -0.1294
75209SOL    HW143619   3.292   9.991   7.863 -1.5049  0.6932 -0.7219
75209SOL    HW243620   3.327   9.844   7.850 -0.0531  0.8964  0.5856
75210SOL     OW43621   3.082   7.372   4.518  0.4540  0.5889  0.5693
75210SOL    HW143622   3.101   7.452   4.468  0.5506 -0.5733 -1.3785
75210SOL    HW243623   3.165   7.324   4.518  0.2151  0.1687  1.0821
75211SOL     OW43624   3.284   9.819   6.412 -1.1871  0.0845  0.3755
75211SOL    HW143625   3.349   9.887   6.392  0.7482 -2.4554 -3.4616
75211SOL    HW243626   3.202   9.866   6.425  0.6587  3.2555  1.6247
75212SOL     OW43627  11.221   5.400   8.704 -0.3343 -0.6081 -0.2288
75212SOL    HW143628  11.166   5.477   8.688  0.8503  0.4257  0.4869
75212SOL    HW243629  11.240   5.366   8.617 -0.0431  0.5279 -0.6290
75213SOL     OW43630   9.113   4.929   1.158 -0.7151 -0.3180 -0.0206
75213SOL    HW143631   9.063   4.921   1.076 -1.7296 -0.5601  0.6050
75213SOL    HW243632   9.048   4.918   1.227  0.5063 -2.7783  0.8555
75214SOL     OW43633   0.394   1.659   6.808  0.3272  0.0070  0.0016
75214SOL    HW143634   0.366   1.690   6.722 -0.4675 -0.8525 -0.0700
75214SOL    HW243635   0.313   1.636   6.853  0.6414  1.4273  1.4036
75215SOL     OW43636   8.262   2.474   5.146 -0.3214  0.3438 -0.2594
75215SOL    HW143637   8.356   2.485   5.135 -0.1784  0.1160  0.7193
75215SOL    HW243638   8.248   2.380   5.147 -0.6410  0.3755 -1.0076
75216SOL     OW43639   1.831  12.861   0.295  0.3792 -0.4420 -0.0392
75216SOL    HW143640   1.813  12.955   0.295  0.0439 -0.4752 -1.4912
75216SOL    HW243641   1.922  12.854   0.267  0.6384 -0.5311  0.8038
75217SOL     OW43642  12.511   8.647   5.834  0.0077 -0.4863 -0.1117
75217SOL    HW143643  12.503   8.742   5.824 -0.4621 -0.2805  1.7990
75217SOL    HW243644  12.446   8.611   5.774  1.3423  0.2873 -2.1273
75218SOL     OW43645   5.854   3.448   6.109  0.2188 -0.1852  0.2520
75218SOL    HW143646   5.768   3.448   6.068  0.0536  0.1062  0.5950
75218SOL    HW243647   5.894   3.530   6.082  0.7152 -0.6757 -0.5662
75219SOL     OW43648  12.996   7.194  10.177  0.2130  0.1607  0.8594
75219SOL    HW143649  13.070   7.251  10.198  1.1017 -0.0612 -1.4212
75219SOL    HW243650  12.934   7.250  10.130 -0.1922 -0.1057  1.0653
75220SOL     OW43651   2.193   9.724  10.977  0.0418 -0.3484  0.3502
75220SOL    HW143652   2.238   9.798  11.017 -1.0839  0.0471  0.8958
75220SOL    HW243653   2.232   9.647  11.020  1.0976 -0.0928 -0.1063
75221SOL     OW43654   7.079   4.765   4.509  0.6144 -0.5044  0.1571
75221SOL    HW143655   7.135   4.690   4.523  0.1432 -0.6541  1.3775
75221SOL    HW243656   6.990   4.730   4.515  0.3862  0.2497  1.4609
75222SOL     OW43657   6.573  14.053   9.182  0.0881  0.1297 -0.0400
75222SOL    HW143658   6.590  14.140   9.147 -0.4124 -0.5410 -2.0742
75222SOL    HW243659   6.486  14.060   9.221 -0.0045  0.5103 -0.3036
75223SOL     OW43660   0.393   1.118  12.786 -0.1669 -0.0280 -0.2690
75223SOL    HW143661   0.392   1.102  12.880  0.1748 -0.5668 -0.3504
75223SOL    HW243662   0.333   1.191  12.773 -1.5566 -1.0441  0.1640
75224SOL     OW43663   2.197   9.998  11.988 -0.5551 -0.1007  0.4115
75224SOL    HW143664   2.206   9.999  11.893 -1.7439  0.0510  0.2856
75224SOL    HW243665   2.276   9.955  12.020  0.1250  0.3822 -0.6079
75225SOL     OW43666   9.489  13.204  12.260 -0.2956  0.1858 -0.2467
75225SOL    HW143667   9.528  13.274  12.208  0.3490 -1.4423 -2.0709
75225SOL    HW243668   9.564  13.162  12.303 -0.3798 -0.9119 -1.1438
75226SOL     OW43669   0.680   9.945   1.570  0.5134  0.4317 -0.0874
75226SOL    HW143670   0.737   9.868   1.572  1.3490  1.0189  2.5209
75226SOL    HW243671   0.738  10.017   1.543  0.8501  0.8542  1.6282
75227SOL     OW43672   6.949  12.324  10.005  0.0595 -0.0743  0.2764
75227SOL    HW143673   6.895  12.288   9.935 -2.0604  1.0428  1.2368
75227SOL    HW243674   6.990  12.402   9.966  1.2362 -1.0507 -0.5213
75228SOL     OW43675  12.562   5.613  10.632 -0.6401  0.0134  0.8817
75228SOL    HW143676  12.585   5.686  10.574 -0.5861  0.3921  1.3681
75228SOL    HW243677  12.486   5.572  10.592 -3.0079  2.5735  2.4229
75229SOL     OW43678  10.282  12.368   7.181  0.0351  0.2125 -0.0031
75229SOL    HW143679  10.235  12.298   7.137  1.5034 -0.6227 -0.3273
75229SOL    HW243680  10.367  12.329   7.205 -0.1853  0.9986  2.4203
75230SOL     OW43681  13.741   7.834   8.587 -0.0683 -0.0383  0.0996
75230SOL    HW143682  13.712   7.809   8.674  1.2362  1.5776  1.0532
75230SOL    HW243683  13.829   7.795   8.579 -0.2570 -0.3473 -0.5958
75231SOL     OW43684  11.860   0.499   1.619 -0.3171 -0.1971 -0.0969
75231SOL    HW143685  11.894   0.498   1.709  0.5981  0.4468 -0.4177
75231SOL    HW243686  11.816   0.415   1.609  3.4391 -2.3547 -0.4909
75232SOL     OW43687   3.655   1.262  10.499  0.2433  0.3292  0.2180
75232SOL    HW143688   3.624   1.198  10.435 -0.0334 -0.8344  1.4769
75232SOL    HW243689   3.745   1.280  10.473  0.4322 -0.8294  0.0345
75233SOL     OW43690   2.111   8.564   4.976 -0.3145  0.0495 -0.4536
75233SOL    HW143691   2.149   8.518   5.051 -0.5270  0.7619  0.1014
75233SOL    HW243692   2.082   8.648   5.011 -1.2389  0.0370 -1.1346
75234SOL     OW43693   9.772  10.546  13.114  0.3253 -0.3609  0.7115
75234SOL    HW143694   9.728  10.629  13.133  0.8156 -0.3684  1.9728
75234SOL    HW243695   9.859  10.570  13.083  0.1891 -0.3880  0.3083
75235SOL     OW43696   8.877   6.380   2.435  0.1540  0.3737  0.0586
75235SOL    HW143697   8.826   6.443   2.385  0.4727  0.4264 -0.2046
75235SOL    HW243698   8.949   6.356   2.377 -0.6057 -1.1366 -0.3074
75236SOL     OW43699   2.547   7.730  12.131  0.2183  0.1413 -0.3688
75236SOL    HW143700   2.612   7.702  12.066  0.0656  0.5143 -0.6887
75236SOL    HW243701   2.543   7.826  12.121 -2.0309 -0.0164 -1.9813
75237SOL     OW43702   2.527   3.370  11.541 -0.4424  0.4715 -0.2605
75237SOL    HW143703   2.491   3.383  11.453 -1.2345 -0.6779 -0.1288
75237SOL    HW243704   2.451   3.352  11.596  0.2277 -1.1498  0.1991
75238SOL     OW43705  10.318   0.814   3.495  0.0138 -0.3340 -1.2540
75238SOL    HW143706  10.391   0.786   3.550 -1.1030 -0.2314  0.3498
75238SOL    HW243707  10.342   0.902   3.466  0.5167 -0.2979 -0.7316
75239SOL     OW43708   5.119   7.465   3.393  0.1863 -0.0547  0.1521
75239SOL    HW143709   5.192   7.508   3.349 -0.5291  0.2628 -0.7512
75239SOL    HW243710   5.139   7.371   3.388  0.6303  0.0435  0.0945
75240SOL     OW43711   9.580   9.833   3.466  0.7538  0.0893  0.2819
75240SOL    HW143712   9.580   9.922   3.499  0.4347  0.3991 -0.5380
75240SOL    HW243713   9.660   9.827   3.414  0.5684  0.0238  0.0042
75241SOL     OW43714   8.760  10.510   8.472 -0.3094 -0.0559 -0.2456
75241SOL    HW143715   8.830  10.492   8.411  0.1601  0.0154  0.2635
75241SOL    HW243716   8.802  10.512   8.558 -1.1655 -1.5785  0.2588
75242SOL     OW43717   4.391  13.438  13.610  0.0709  0.3163  0.3301
75242SOL    HW143718   4.363  13.514  13.559 -0.2924  0.2099  0.3674
75242SOL    HW243719   4.486  13.441  13.608  0.0634  1.1914  0.9403
75243SOL     OW43720   4.907   9.591   3.272 -0.4230  0.0254 -0.1929
75243SOL    HW143721   4.890   9.525   3.339 -1.0544 -0.0487 -0.4148
75243SOL    HW243722   4.981   9.642   3.305 -1.6749  0.9570  1.2761
75244SOL     OW43723   7.407   3.279   5.924 -0.2860  0.9851 -0.1771
75244SOL    HW143724   7.333   3.322   5.883  0.1467  2.2754  0.3429
75244SOL    HW243725   7.478   3.287   5.860 -0.0135  1.6808  0.2076
75245SOL     OW43726   9.183   9.563   5.650  0.6157  0.5563  0.1527
75245SOL    HW143727   9.205   9.568   5.743  0.9998  0.2446  0.0828
75245SOL    HW243728   9.218   9.478   5.622 -1.8065 -0.5657  0.3173
75246SOL     OW43729  12.405   6.347   6.578 -0.4129 -0.6312 -0.1812
75246SOL    HW143730  12.397   6.263   6.534 -1.2257 -0.0858 -1.0926
75246SOL    HW243731  12.389   6.412   6.510 -0.3406  0.2600  0.6301
75247SOL     OW43732   5.857   8.221  12.783 -0.3189  0.8857 -0.5033
75247SOL    HW143733   5.880   8.247  12.872  0.7312  1.8302 -1.0222
75247SOL    HW243734   5.891   8.132  12.775 -0.8907  0.5918  0.2005
75248SOL     OW43735  11.032  12.681   5.685  0.6638  0.6531 -0.1841
75248SOL    HW143736  10.981  12.761   5.683 -2.0357 -0.7875  2.6213
75248SOL    HW243737  10.973  12.613   5.651  1.1380 -0.8327  1.7484
75249SOL     OW43738  12.558   7.160  12.651 -0.5294  0.1428 -0.2595
75249SOL    HW143739  12.653   7.163  12.659 -0.5293  0.0522 -0.2198
75249SOL    HW243740  12.542   7.156  12.557 -0.3827 -2.7487 -0.2672
75250SOL     OW43741   2.951   9.391   7.514  0.2018 -0.7670  0.1029
75250SOL    HW143742   2.945   9.470   7.460 -1.4140 -0.7131  0.3186
75250SOL    HW243743   3.036   9.353   7.492  0.1630 -0.0108 -1.4662
75251SOL     OW43744  12.427   6.633   5.254 -0.5910  0.2104 -0.6389
75251SOL    HW143745  12.420   6.727   5.236 -0.0974  0.1185 -1.3718
75251SOL    HW243746  12.444   6.628   5.348  0.1243  0.9021 -0.7148
75252SOL     OW43747  13.859   8.282   7.891 -0.5966  0.0544 -0.0545
75252SOL    HW143748  13.825   8.260   7.978 -1.0414  1.6324  0.2124
75252SOL    HW243749  13.920   8.354   7.907  0.3277 -0.5150 -0.9178
75253SOL     OW43750  13.090  12.943  13.015  0.2411  0.0525  0.0844
75253SOL    HW143751  13.121  12.971  13.101  1.2620  0.1371 -0.2901
75253SOL    HW243752  13.157  12.882  12.984 -0.8578 -1.1154 -0.0423
75254SOL     OW43753   8.390   8.569   9.710 -0.0929  0.2247 -0.5375
75254SOL    HW143754   8.417   8.604   9.794 -0.2393  1.6976 -1.0845
75254SOL    HW243755   8.302   8.605   9.696 -2.0770 -3.5601  0.6937
75255SOL     OW43756   7.580   5.785   1.025  0.0493  0.4932 -0.1344
75255SOL    HW143757   7.513   5.747   0.969 -0.2834 -1.7771  1.6415
75255SOL    HW243758   7.532   5.843   1.084 -0.4145 -1.0317  1.0525
75256SOL     OW43759   0.389  13.927   1.160 -0.1718  0.0090  0.0127
75256SOL    HW143760   0.341  13.933   1.243  3.4354  0.6855  2.2571
75256SOL    HW243761   0.394  13.833   1.143 -0.3593 -0.1883  0.9579
75257SOL     OW43762   8.111  13.814  12.396  0.2002  0.4617 -0.0996
75257SOL    HW143763   8.134  13.737  12.447 -0.8789  1.4117  1.9800
75257SOL    HW243764   8.195  13.854  12.373  0.7527  0.1485  1.2679
75258SOL     OW43765   9.213  12.602   4.641  0.8793  0.6487  0.5249
75258SOL    HW143766   9.168  12.654   4.574  1.1502 -0.5166 -0.6249
75258SOL    HW243767   9.305  12.606   4.616  0.7624 -1.5840 -0.5659
75259SOL     OW43768   7.525   4.495   7.589 -0.3660  0.5159 -0.0777
75259SOL    HW143769   7.535   4.407   7.624  1.7461  0.7958  0.1227
75259SOL    HW243770   7.516   4.482   7.494  0.6634  0.1071 -0.1287
75260SOL     OW43771   9.990   6.115   8.603 -0.3865  0.5931 -0.5366
75260SOL    HW143772  10.031   6.141   8.520  1.2297 -0.9788 -0.2990
75260SOL    HW243773   9.919   6.055   8.576  0.4584 -0.3187 -0.7945
75261SOL     OW43774   3.194   3.891  12.882 -0.1221  0.1780  0.2384
75261SOL    HW143775   3.132   3.821  12.861 -1.9185  1.5516  0.6662
75261SOL    HW243776   3.231   3.917  12.798  0.2788 -0.9936  0.0344
75262SOL     OW43777  13.601   3.752   4.688  0.3266 -0.1954  0.2277
75262SOL    HW143778  13.593   3.816   4.617 -1.0670 -1.5586 -0.9110
75262SOL    HW243779  13.668   3.691   4.657  0.2979 -0.3441  0.4621
75263SOL     OW43780   7.425   2.644  11.522  0.4878 -0.2174 -0.7884
75263SOL    HW143781   7.478   2.646  11.601  1.9465  1.2950 -1.7416
75263SOL    HW243782   7.437   2.555  11.487 -0.2772 -0.9376  0.7130
75264SOL     OW43783   9.560  13.481   9.924  0.2964  0.1084 -0.1158
75264SOL    HW143784   9.523  13.472   9.836 -1.3965  1.1881  0.4458
75264SOL    HW243785   9.493  13.443   9.981  0.2966  1.5601  0.8868
75265SOL     OW43786   5.009   7.313  12.990 -0.4591  0.0191 -0.3830
75265SOL    HW143787   4.966   7.277  12.912  1.2843  0.1214 -1.4268
75265SOL    HW243788   5.074   7.247  13.015 -0.8476  0.0752  0.8938
75266SOL     OW43789   6.129  13.908   6.561  0.5984 -0.6017  0.3824
75266SOL    HW143790   6.100  13.956   6.484  1.1154  0.3114  0.7441
75266SOL    HW243791   6.114  13.816   6.539  0.9758 -0.3758 -0.9099
75267SOL     OW43792   4.377   6.719   6.523 -0.8083 -0.2697  0.0962
75267SOL    HW143793   4.472   6.712   6.514 -0.5866 -0.2625  1.9226
75267SOL    HW243794   4.359   6.686   6.612 -2.4584  0.1611 -0.0407
75268SOL     OW43795  10.196   4.110   6.151  0.4249  0.0223  0.3411
75268SOL    HW143796  10.178   4.124   6.058 -5.0863  0.0729  1.0953
75268SOL    HW243797  10.216   4.017   6.158 -0.9637 -0.3962 -0.7905
75269SOL     OW43798   0.854   0.658  11.714 -0.5512  0.2585  0.5060
75269SOL    HW143799   0.779   0.707  11.680 -1.4570 -1.6209 -0.3449
75269SOL    HW243800   0.920   0.664  11.645 -1.3563 -1.2084 -0.4468
75270SOL     OW43801  10.998   4.862  11.820  0.0955  0.2955  0.3545
75270SOL    HW143802  11.070   4.815  11.776  0.2050  0.3943  0.4273
75270SOL    HW243803  10.982   4.811  11.899 -0.3804 -0.1172 -0.0031
75271SOL     OW43804   5.701  12.502  10.965 -0.0053  0.1197  0.0699
75271SOL    HW143805   5.606  12.511  10.958  0.0028 -0.1404 -0.4497
75271SOL    HW243806   5.713  12.414  11.003  0.0238  0.2857  0.4495
75272SOL     OW43807   7.809   2.214   3.275  0.2100  0.2084  0.1191
75272SOL    HW143808   7.846   2.148   3.334 -0.7417 -0.0734  0.4284
75272SOL    HW243809   7.727   2.240   3.317 -0.3614  0.1918 -0.9360
75273SOL     OW43810   7.394  11.076   3.190  0.0245  0.0965  0.7471
75273SOL    HW143811   7.365  11.167   3.200 -0.8766 -0.3167  2.3236
75273SOL    HW243812   7.489  11.082   3.181 -0.0333  1.2065  0.7062
75274SOL     OW43813   2.318   2.682   6.018  0.0363 -0.1188 -0.1501
75274SOL    HW143814   2.353   2.667   6.106 -0.7603 -0.9121  0.0553
75274SOL    HW243815   2.396   2.692   5.963  0.7343 -3.2452  0.0363
75275SOL     OW43816  13.302   3.143   2.121 -0.7303  0.0675  0.4363
75275SOL    HW143817  13.264   3.062   2.155 -1.9730  1.5632  2.8498
75275SOL    HW243818  13.289   3.207   2.191  1.5219  2.0199 -0.7888
75276SOL     OW43819   1.758   7.212  12.797  0.0123  0.0152  0.4331
75276SOL    HW143820   1.845   7.172  12.795  1.2760  2.5237  0.6331
75276SOL    HW243821   1.748   7.250  12.709  0.3934  2.1266  1.2485
75277SOL     OW43822  12.693  12.559   7.925 -0.3897 -0.2610  0.4841
75277SOL    HW143823  12.669  12.601   7.842  1.0030  0.5090  0.4519
75277SOL    HW243824  12.628  12.489   7.936 -0.8617 -0.0885 -1.0249
75278SOL     OW43825   1.913  12.046   0.300 -0.3201  0.3180 -0.0549
75278SOL    HW143826   1.956  12.026   0.217 -0.9598 -0.2456 -0.2619
75278SOL    HW243827   1.914  11.964   0.349  0.7136  0.8263  0.8247
75279SOL     OW43828  10.022  11.796  13.746 -0.4803  0.4499  0.0167
75279SOL    HW143829  10.107  11.805  13.789 -0.2093 -0.1493 -0.3798
75279SOL    HW243830  10.024  11.858  13.673  0.1124 -0.4643 -0.7536
75280SOL     OW43831   0.830  13.522   8.574 -0.0598  0.3693  0.4075
75280SOL    HW143832   0.745  13.527   8.530  0.2554  2.1941 -0.0927
75280SOL    HW243833   0.890  13.489   8.507  0.0391  1.2591  0.0416
75281SOL     OW43834  12.044   9.980   5.434  0.8312  0.0031  1.0320
75281SOL    HW143835  12.113   9.968   5.368  0.7871 -0.8559  1.1261
75281SOL    HW243836  11.970   9.931   5.400  0.0654  1.3678  0.6677
75282SOL     OW43837   0.392   0.850   8.391 -0.5782 -0.0462 -0.0674
75282SOL    HW143838   0.345   0.786   8.445 -0.6904  0.3209  0.2809
75282SOL    HW243839   0.352   0.934   8.415 -0.1156  0.2046 -0.1745
75283SOL     OW43840   6.058   7.091  11.807 -0.3443 -0.4169  0.3143
75283SOL    HW143841   5.973   7.089  11.763  0.3073  0.7723 -1.0355
75283SOL    HW243842   6.119   7.125  11.742  0.8972  0.1991  1.7420
75284SOL     OW43843  12.839   1.678   5.247 -0.4082 -0.2916  0.1097
75284SOL    HW143844  12.880   1.637   5.171  1.0820 -2.1663  1.7885
75284SOL    HW243845  12.802   1.760   5.214  1.7642 -0.1316 -2.2372
75285SOL     OW43846   4.136  12.293   6.976 -0.6089  0.0564  0.2440
75285SOL    HW143847   4.046  12.310   6.950 -0.7248  0.0090  0.5989
75285SOL    HW243848   4.160  12.369   7.029 -0.7461 -0.3366  0.8893
75286SOL     OW43849   5.795  12.652   7.398  0.1789  0.5406  0.1166
75286SOL    HW143850   5.798  12.607   7.482  2.3234 -0.6242 -0.5014
75286SOL    HW243851   5.886  12.671   7.377 -0.2878  0.8476 -1.9081
75287SOL     OW43852   7.176  13.179   6.153  0.0464 -0.3235 -0.1249
75287SOL    HW143853   7.112  13.133   6.208  0.6849  2.0172  2.8212
75287SOL    HW243854   7.128  13.254   6.119  0.4672 -0.1660 -0.3732
75288SOL     OW43855   8.693  10.310  12.457  0.6831 -0.1927 -0.2180
75288SOL    HW143856   8.788  10.315  12.460  0.7259 -1.0145  0.6009
75288SOL    HW243857   8.663  10.388  12.504  0.9836 -0.4626  0.4355
75289SOL     OW43858   5.307   7.810   5.129 -0.3996 -0.0412  0.2857
75289SOL    HW143859   5.261   7.863   5.064  0.7797  1.2256  0.4309
75289SOL    HW243860   5.351   7.874   5.185 -0.2398 -1.1509  1.4729
75290SOL     OW43861   0.439   0.353   7.337 -0.8632 -0.1154  0.0336
75290SOL    HW143862   0.376   0.325   7.403 -0.5145  2.0007  1.3417
75290SOL    HW243863   0.396   0.427   7.293 -0.5338 -0.6390 -1.2024
75291SOL     OW43864   2.300   2.078  13.545 -0.0005  0.2700  0.0602
75291SOL    HW143865   2.271   2.040  13.462 -0.0752 -1.7948  0.9805
75291SOL    HW243866   2.386   2.039  13.561 -0.1771  0.3027  1.1583
75292SOL     OW43867   1.482   2.623   3.847 -0.4023  0.4992 -0.2990
75292SOL    HW143868   1.452   2.572   3.772  1.4475  0.0236 -0.7743
75292SOL    HW243869   1.498   2.558   3.915 -2.8991  1.0042  0.8830
75293SOL     OW43870   9.872   5.694  14.154  0.0218 -0.2583  0.4296
75293SOL    HW143871   9.832   5.735  14.078 -1.3294  0.4333  1.4694
75293SOL    HW243872   9.907   5.766  14.206 -0.4159 -0.5798  1.1958
75294SOL     OW43873   7.231  12.265   6.899  0.8345  0.5269 -0.0590
75294SOL    HW143874   7.221  12.171   6.891  1.0218  0.3896  1.0556
75294SOL    HW243875   7.305  12.287   6.842  1.0021 -0.0485 -0.0658
75295SOL     OW43876   2.268   3.556   0.391  0.2363  0.5230  0.4446
75295SOL    HW143877   2.201   3.496   0.359 -1.0349  1.1630  1.7685
75295SOL    HW243878   2.350   3.520   0.358 -0.7754  0.0620 -1.7736
75296SOL     OW43879   3.657   1.753   4.412  0.0738  0.6715  0.1632
75296SOL    HW143880   3.699   1.830   4.374  0.7805  0.7081  1.0101
75296SOL    HW243881   3.585   1.733   4.351  1.3319  0.5780 -1.3514
75297SOL     OW43882  12.807   5.433   5.899  0.1379 -0.4902  0.2796
75297SOL    HW143883  12.876   5.464   5.957  0.5154  1.3258 -1.0469
75297SOL    HW243884  12.732   5.489   5.919  0.4331  0.5253 -1.2768
75298SOL     OW43885  11.022   5.969   3.266  0.6739 -0.1102 -0.5750
75298SOL    HW143886  11.102   5.919   3.251 -0.1464 -1.8335  0.4315
75298SOL    HW243887  11.032   6.004   3.355  0.2240 -0.5611 -0.3372
75299SOL     OW43888   1.716   2.948   1.444  0.7848  0.6196  0.0754
75299SOL    HW143889   1.732   2.910   1.531  1.1540  1.1569  0.2464
75299SOL    HW243890   1.759   2.888   1.384  0.4868  0.2171  0.2595
75300SOL     OW43891  12.791   7.985  11.618 -0.5623 -0.3003  0.1851
75300SOL    HW143892  12.712   7.948  11.656 -0.7773  0.0740  0.1074
75300SOL    HW243893  12.848   7.909  11.601 -1.6185 -0.7752 -1.4505
75301SOL     OW43894   5.385  10.209   9.197  0.7195  0.0143 -0.3760
75301SOL    HW143895   5.431  10.265   9.260  1.6509  0.2126 -1.1944
75301SOL    HW243896   5.400  10.120   9.227  0.6699  0.1326 -0.0021
75302SOL     OW43897  10.885   1.987  12.217 -0.0176 -0.0758  0.2279
75302SOL    HW143898  10.883   2.053  12.286 -3.2539 -0.1520  0.3247
75302SOL    HW243899  10.918   1.908  12.261 -2.2873 -0.1992  1.8566
75303SOL     OW43900   0.666  11.117  13.090 -0.0258 -0.1743  0.0158
75303SOL    HW143901   0.601  11.048  13.108  0.1959  0.1968  2.5251
75303SOL    HW243902   0.748  11.070  13.076 -0.4366 -0.5405 -1.3378
75304SOL     OW43903   0.619  13.354  10.302  0.5761 -0.0891 -0.2514
75304SOL    HW143904   0.551  13.417  10.328 -0.1148 -1.8743  2.7354
75304SOL    HW243905   0.695  13.408  10.281 -1.1040  1.8798 -1.7057
75305SOL     OW43906  10.020  11.101  10.812  0.1071  0.0021 -0.1577
75305SOL    HW143907   9.948  11.140  10.861  1.9682  4.5376 -0.5117
75305SOL    HW243908  10.080  11.067  10.878  0.2073  1.4035  0.5056
75306SOL     OW43909  13.721  13.768  11.888  0.3378  0.0967 -0.3215
75306SOL    HW143910  13.742  13.684  11.928 -1.1282 -0.3469 -0.4256
75306SOL    HW243911  13.643  13.798  11.935  0.6488  1.2493 -0.5028
75307SOL     OW43912  13.319   8.976   6.216 -0.2630 -0.3200 -0.2330
75307SOL    HW143913  13.236   9.018   6.194  0.3737  0.1119 -1.9735
75307SOL    HW243914  13.304   8.883   6.198  0.2875  0.0287 -3.0154
75308SOL     OW43915  10.700  11.603   9.039  0.6454  0.2033 -0.2538
75308SOL    HW143916  10.788  11.609   9.075  1.0808  1.9897 -1.4756
75308SOL    HW243917  10.642  11.608   9.115  1.5653  0.8300  0.4213
75309SOL     OW43918   2.010   8.460   9.401  0.3013 -0.7335 -0.1787
75309SOL    HW143919   1.968   8.450   9.315  0.0707  0.2073 -0.1942
75309SOL    HW243920   2.020   8.371   9.433  0.7447 -1.1240 -1.3475
75310SOL     OW43921   5.861  14.006   2.767  0.8527 -0.2093 -0.2407
75310SOL    HW143922   5.791  13.956   2.725 -0.3354 -0.3595  1.7754
75310SOL    HW243923   5.923  13.940   2.797  0.4987 -0.3056  0.2967
75311SOL     OW43924   0.200   5.628   0.973  0.4795  0.7980  0.1945
75311SOL    HW143925   0.134   5.691   0.944  0.6120  1.3564  1.0665
75311SOL    HW243926   0.157   5.543   0.965  0.6258  0.8573 -1.9506
75312SOL     OW43927  11.941  14.124   3.134  0.1289 -0.6748  0.2013
75312SOL    HW143928  12.028  14.117   3.173  0.2691 -0.8924 -0.1472
75312SOL    HW243929  11.948  14.196   3.072  0.2191 -1.0443 -0.2276
75313SOL     OW43930  12.485   7.097  10.658  0.0954  0.7484 -0.0976
75313SOL    HW143931  12.432   7.145  10.721  2.7866  2.5449  0.9681
75313SOL    HW243932  12.515   7.164  10.597  0.9475 -0.2517 -0.8078
75314SOL     OW43933  12.477  12.217   8.688 -0.2576 -0.0485  0.2683
75314SOL    HW143934  12.438  12.134   8.663 -1.1271  0.5888 -0.5608
75314SOL    HW243935  12.487  12.265   8.606  1.8277  0.0245  0.5003
75315SOL     OW43936   4.858  11.791  10.640 -0.1590 -0.4058  0.4293
75315SOL    HW143937   4.779  11.831  10.602 -1.1796 -1.8273  0.9652
75315SOL    HW243938   4.931  11.840  10.601 -1.2952  0.9422 -0.0868
75316SOL     OW43939  10.066  12.952  12.678  0.0389 -0.3282  0.3182
75316SOL    HW143940  10.074  12.888  12.748  0.5201 -0.3005  0.2932
75316SOL    HW243941  10.138  12.932  12.618 -0.0924 -0.0635  0.0650
75317SOL     OW43942   2.117   2.134   7.458 -0.0996 -0.2864 -0.6626
75317SOL    HW143943   2.024   2.145   7.479  0.4360  0.7897  1.3643
75317SOL    HW243944   2.163   2.148   7.540  1.9355 -0.1259 -1.7471
75318SOL     OW43945  10.282   3.858   6.774  0.2303  0.0627 -0.4226
75318SOL    HW143946  10.256   3.789   6.835 -0.2339  0.7255  0.1348
75318SOL    HW243947  10.358   3.821   6.728 -0.3367 -1.0332 -0.5254
75319SOL     OW43948   4.012   0.079  14.066 -0.1859 -0.2136 -0.3048
75319SOL    HW143949   3.986   0.066  13.974 -0.1526  3.4610 -0.9692
75319SOL    HW243950   3.929   0.081  14.114 -0.2243 -1.6789 -0.2439
75320SOL     OW43951  11.599  11.047   1.025 -0.0716 -0.1424 -0.1339
75320SOL    HW143952  11.615  10.992   1.102 -0.8312 -0.6384 -0.3221
75320SOL    HW243953  11.555  11.125   1.060 -0.1489 -0.2330 -0.0286
75321SOL     OW43954  13.299   1.674   5.137  0.3077 -0.3895  0.0122
75321SOL    HW143955  13.227   1.733   5.115 -0.4300 -1.7893 -1.5759
75321SOL    HW243956  13.367   1.696   5.074  1.1202  0.5775  1.1811
75322SOL     OW43957   3.153  13.366  11.444  0.1464 -0.5134  0.4147
75322SOL    HW143958   3.063  13.341  11.422 -0.1769 -0.9057  2.0020
75322SOL    HW243959   3.182  13.419  11.370 -1.8636  0.7376  0.4185
75323SOL     OW43960   2.484   1.374   9.300  0.3654 -0.2480  0.4601
75323SOL    HW143961   2.424   1.419   9.239 -1.4123 -0.3608  2.0488
75323SOL    HW243962   2.470   1.281   9.283 -0.7358 -0.2973  1.5626
75324SOL     OW43963   4.935   1.000   9.198 -0.4573 -0.0731  0.2589
75324SOL    HW143964   4.915   1.093   9.190 -1.9747 -0.0127  3.2988
75324SOL    HW243965   4.860   0.956   9.160 -0.1825 -0.0413 -0.3213
75325SOL     OW43966  11.550   4.381   0.336  0.7736  0.0844  0.5407
75325SOL    HW143967  11.527   4.434   0.412  0.1421  0.6684 -0.0519
75325SOL    HW243968  11.474   4.325   0.321  0.8994 -0.0364  0.3455
75326SOL     OW43969  11.645   4.093   8.074 -0.2821  0.2261  0.0143
75326SOL    HW143970  11.735   4.081   8.105 -0.7321 -0.7424  0.9906
75326SOL    HW243971  11.593   4.101   8.154 -0.8868  2.4843 -0.5338
75327SOL     OW43972   0.314   6.795  13.541 -0.2751  0.0961 -0.0591
75327SOL    HW143973   0.360   6.867  13.585  1.4185 -1.4610  0.8348
75327SOL    HW243974   0.228   6.792  13.582  0.2920  0.4605  1.1858
75328SOL     OW43975  12.814   0.582   2.989 -0.6037 -0.1798 -0.5346
75328SOL    HW143976  12.729   0.589   2.946  0.0390 -1.6249 -2.1985
75328SOL    HW243977  12.801   0.620   3.076 -3.3037 -1.5785 -0.2184
75329SOL     OW43978   1.578  13.319  10.065 -0.0432  0.1631 -0.3093
75329SOL    HW143979   1.499  13.374  10.068  0.1559  0.4976 -0.8925
75329SOL    HW243980   1.573  13.276   9.979  1.5111  1.8891 -1.3279
75330SOL     OW43981   9.421   4.749  12.125 -0.0757  0.4359  0.1903
75330SOL    HW143982   9.408   4.773  12.033  0.4705 -2.6377 -0.7937
75330SOL    HW243983   9.513   4.723  12.130 -0.4446 -0.7688  1.2406
75331SOL     OW43984  10.297   8.007   7.865 -0.1328  0.0849  0.8140
75331SOL    HW143985  10.325   8.082   7.918 -1.0280 -0.1924  1.7002
75331SOL    HW243986  10.343   7.932   7.903 -1.9429 -0.3699  2.2587
75332SOL     OW43987   5.624   7.221   2.697 -0.2351 -0.0953  0.2473
75332SOL    HW143988   5.679   7.260   2.765  0.7759 -0.9719 -0.0493
75332SOL    HW243989   5.679   7.221   2.619  0.0604 -2.6693  0.3770
75333SOL     OW43990   0.901  10.499   2.148  0.3390  0.4730 -0.0658
75333SOL    HW143991   0.972  10.544   2.103 -2.1906  2.4677 -2.4710
75333SOL    HW243992   0.852  10.570   2.191 -1.1948 -0.5775  0.0109
75334SOL     OW43993   0.360   2.281   4.490  0.1101 -0.1077  0.9332
75334SOL    HW143994   0.413   2.319   4.420 -1.4583  0.7211  0.1241
75334SOL    HW243995   0.394   2.193   4.501  1.8719  0.5075  0.7305
75335SOL     OW43996  13.837   4.335  11.187 -0.0523 -0.3939  0.7477
75335SOL    HW143997  13.772   4.303  11.250 -0.9592  0.3651  0.2202
75335SOL    HW243998  13.890   4.396  11.237 -1.2112  0.7436  0.6392
75336SOL     OW43999  11.850   2.875  12.534 -0.0828  0.4067  0.2834
75336SOL    HW144000  11.764   2.834  12.531  0.1486 -0.1427  0.8430
75336SOL    HW244001  11.832   2.969  12.542 -0.6383  0.2569  0.9424
75337SOL     OW44002   1.067  12.883  11.162 -0.4395  0.2957 -0.0357
75337SOL    HW144003   1.078  12.913  11.252  0.0112 -0.7491  0.2729
75337SOL    HW244004   1.008  12.947  11.122 -0.8408  0.6389  1.0731
75338SOL     OW44005   2.075  10.006   3.303  0.3875  0.3341 -0.0105
75338SOL    HW144006   2.074   9.921   3.346 -0.4533 -0.3527 -1.2974
75338SOL    HW244007   2.161  10.010   3.262 -0.2294 -0.8129 -1.5585
75339SOL     OW44008  11.229  11.242  10.493 -0.0711 -0.4740 -0.4511
75339SOL    HW144009  11.287  11.294  10.437  1.2218  0.5303  1.6662
75339SOL    HW244010  11.146  11.289  10.493  0.6862  0.9407  0.3975
75340SOL     OW44011  13.678   3.583   0.222  0.2610  0.5916 -0.0755
75340SOL    HW144012  13.676   3.524   0.147  3.6689  1.6409 -1.1736
75340SOL    HW244013  13.629   3.660   0.194 -0.6079 -0.0163 -0.2480
75341SOL     OW44014   9.973   8.444   7.883  0.0125 -0.5169 -0.2383
75341SOL    HW144015   9.922   8.364   7.895 -0.9550  0.0959 -0.2244
75341SOL    HW244016   9.982   8.481   7.971 -0.6821  0.0779 -0.4123
75342SOL     OW44017   3.965   8.061  14.100 -0.0750  0.3206  0.9401
75342SOL    HW144018   3.886   8.063  14.047  0.2528 -0.3199  0.3987
75342SOL    HW244019   3.965   8.144  14.148 -1.4886 -0.0433  1.5854
75343SOL     OW44020   6.504  10.185   9.109 -0.2090  0.6280  0.1374
75343SOL    HW144021   6.472  10.237   9.183 -2.4372 -0.6738  0.1567
75343SOL    HW244022   6.541  10.107   9.149 -0.5208  0.3736 -0.0710
75344SOL     OW44023   2.474   0.211   6.115 -0.4993  0.0657 -0.3461
75344SOL    HW144024   2.515   0.174   6.037  2.1767 -0.4471  1.1756
75344SOL    HW244025   2.443   0.135   6.164  0.0239  0.1755  0.1780
75345SOL     OW44026   1.324   9.993  11.561  0.0767  0.1307  0.3856
75345SOL    HW144027   1.322   9.971  11.654  1.6285  0.1072  0.4536
75345SOL    HW244028   1.367  10.079  11.557 -1.4503  0.9068 -0.2192
75346SOL     OW44029   8.190  10.104   1.294 -0.2697  0.4426 -0.3442
75346SOL    HW144030   8.218  10.021   1.331 -1.7397  0.0316 -0.0973
75346SOL    HW244031   8.246  10.117   1.218  0.5787 -0.3223  0.1390
75347SOL     OW44032   3.096  12.929   5.912  0.3936 -0.3402 -0.0778
75347SOL    HW144033   3.060  12.976   5.837  2.3431  2.5019  0.6108
75347SOL    HW244034   3.183  12.903   5.884 -0.2220 -2.6662 -0.0178
75348SOL     OW44035   1.925   2.016   8.313  0.0141 -0.0903 -0.3379
75348SOL    HW144036   1.969   1.939   8.350  0.8465 -1.1305 -3.2046
75348SOL    HW244037   1.873   1.981   8.241 -2.1785  1.7033  0.2563
75349SOL     OW44038   7.427   3.162   6.960 -0.7832  0.5335 -0.2289
75349SOL    HW144039   7.470   3.167   6.874 -0.4812  0.3994 -0.0879
75349SOL    HW244040   7.485   3.107   7.013 -2.7044 -2.4348 -0.9489
75350SOL     OW44041   8.601  10.756  12.997  0.2077  0.2163 -0.2502
75350SOL    HW144042   8.654  10.767  13.076 -0.3616 -2.1923  0.5490
75350SOL    HW244043   8.618  10.667  12.968 -2.1209 -0.1101 -0.8728
75351SOL     OW44044   3.473   3.048   1.997  0.5032 -0.7427 -0.0139
75351SOL    HW144045   3.505   3.056   1.907  0.8273  0.2114  0.1707
75351SOL    HW244046   3.381   3.025   1.988  0.7878 -1.7187 -0.5768
75352SOL     OW44047   6.156   6.158   0.326  0.0010  0.2506 -0.2643
75352SOL    HW144048   6.151   6.064   0.308 -1.6729  0.6108 -2.0820
75352SOL    HW244049   6.239   6.169   0.372  0.7739 -1.9567 -0.9770
75353SOL     OW44050   2.823   2.605   4.991 -0.6656 -0.0308 -0.2245
75353SOL    HW144051   2.812   2.576   4.901 -2.4670 -0.9767  0.2592
75353SOL    HW244052   2.908   2.649   4.992 -0.2506 -0.7110 -2.1820
75354SOL     OW44053   2.123   9.201  13.015 -0.0455  0.0219 -0.3576
75354SOL    HW144054   2.081   9.155  12.943 -1.0095  0.0073  0.1957
75354SOL    HW244055   2.212   9.166  13.017  0.5448  1.2756 -2.6092
75355SOL     OW44056   5.170   6.454   5.231 -0.2458 -0.2395  0.2317
75355SOL    HW144057   5.124   6.525   5.277 -0.8423 -0.3200 -0.2323
75355SOL    HW244058   5.247   6.437   5.285 -0.8001 -0.1587  1.0778
75356SOL     OW44059   2.286  12.258   8.605 -0.2079  0.0080 -0.4198
75356SOL    HW144060   2.342  12.183   8.623  0.0306  0.2899  0.0233
75356SOL    HW244061   2.205  12.239   8.653  0.3650  0.6792  0.8624
75357SOL     OW44062   7.353   3.660  14.090  0.2015  0.0145  0.0627
75357SOL    HW144063   7.288   3.725  14.116 -1.8979 -0.9703 -2.2908
75357SOL    HW244064   7.396   3.699  14.013  2.5305  0.6504  1.5729
75358SOL     OW44065   4.703   3.652   4.729  0.0583 -0.5843  0.1607
75358SOL    HW144066   4.714   3.560   4.705  1.7064 -0.4779  0.3946
75358SOL    HW244067   4.615   3.675   4.698 -0.9060 -2.5746  1.2478
75359SOL     OW44068   4.468   5.381  11.442 -0.4287 -0.2762  0.0179
75359SOL    HW144069   4.546   5.436  11.435 -0.7146  0.3489  1.3640
75359SOL    HW244070   4.396   5.439  11.413 -1.1973  1.3124  4.3763
75360SOL     OW44071   1.696  11.626   7.893  0.2751  0.3606  0.2249
75360SOL    HW144072   1.661  11.701   7.845 -0.9892 -0.0384  0.5017
75360SOL    HW244073   1.659  11.633   7.980 -1.3604 -1.5637 -0.2450
75361SOL     OW44074   7.394  10.257   6.847 -0.1968 -0.1074 -0.9795
75361SOL    HW144075   7.446  10.183   6.815 -0.0735 -0.9994  1.1272
75361SOL    HW244076   7.303  10.229   6.838 -0.2269  0.2590 -1.9116
75362SOL     OW44077  10.100  13.201   6.053  0.2281 -0.1849  0.2695
75362SOL    HW144078  10.031  13.260   6.023 -0.9745 -1.8831 -0.4479
75362SOL    HW244079  10.129  13.155   5.974  0.3402 -1.3572  0.9643
75363SOL     OW44080   9.370  14.052   7.806 -0.6494 -0.4880 -0.2189
75363SOL    HW144081   9.341  14.075   7.894 -0.3413 -0.0245 -0.2345
75363SOL    HW244082   9.325  13.970   7.787  0.2288 -1.2507  0.8551
75364SOL     OW44083   0.318   9.338   1.161  0.1370  0.3514  0.3008
75364SOL    HW144084   0.370   9.418   1.153 -1.1285  1.2043  0.2634
75364SOL    HW244085   0.354   9.294   1.238  1.1846  0.6867  0.0227
75365SOL     OW44086   0.501   9.018   3.154 -0.2716  0.0909  0.4477
75365SOL    HW144087   0.581   8.969   3.171  0.7103  1.3378 -0.3845
75365SOL    HW244088   0.527   9.086   3.092 -1.5997  1.5242  1.3608
75366SOL     OW44089   4.820  13.923  11.646  0.4822 -0.1507  0.0274
75366SOL    HW144090   4.889  13.952  11.587  1.9795 -1.9914  0.8066
75366SOL    HW244091   4.742  13.918  11.590  1.2015  0.8355 -1.1256
75367SOL     OW44092   8.533  10.580   6.951  0.5181 -0.2932  0.3252
75367SOL    HW144093   8.516  10.494   6.913  0.9539 -0.3644  0.2921
75367SOL    HW244094   8.628  10.584   6.962  0.5055  0.1897  0.3035
75368SOL     OW44095  11.392   6.779   3.489  0.0218 -0.5783 -0.2231
75368SOL    HW144096  11.429   6.735   3.412 -0.3812 -0.4236 -0.5052
75368SOL    HW244097  11.415   6.721   3.562 -1.7401 -2.0279 -0.7563
75369SOL     OW44098   3.544  11.380   0.345  0.3422  0.0709 -0.3957
75369SOL    HW144099   3.484  11.388   0.419  0.5571 -0.7685 -0.1163
75369SOL    HW244100   3.557  11.470   0.315  0.6075  0.4832  0.8864
75370SOL     OW44101  12.294   8.842   1.154  0.4624 -0.3476 -0.6777
75370SOL    HW144102  12.333   8.915   1.202  0.0181 -0.8395  0.4482
75370SOL    HW244103  12.354   8.827   1.081  0.0222  1.8342 -1.5745
75371SOL     OW44104   4.527  13.496   9.167  0.5335 -0.0198  0.3798
75371SOL    HW144105   4.565  13.477   9.253  1.8494  0.8015  0.0082
75371SOL    HW244106   4.600  13.485   9.106 -0.6275 -1.6681 -0.8002
75372SOL     OW44107   1.229   3.633   1.825 -0.2534 -0.1680  0.4270
75372SOL    HW144108   1.311   3.587   1.843  0.0418  0.8689  1.9018
75372SOL    HW244109   1.247   3.724   1.848 -0.6090  0.9080 -3.0959
75373SOL     OW44110   1.297  13.516   1.160  0.3437  0.0811 -0.2026
75373SOL    HW144111   1.388  13.527   1.187  0.5187  0.1616 -0.8044
75373SOL    HW244112   1.301  13.509   1.065 -0.3693  1.0857 -0.3310
75374SOL     OW44113   7.027  13.186   5.727  0.1843  0.0589 -0.5656
75374SOL    HW144114   6.943  13.141   5.725  0.2545 -0.1226  0.1262
75374SOL    HW244115   7.078  13.139   5.793  0.1226  1.3550  0.4777
75375SOL     OW44116   1.951   5.018  11.607 -0.1304 -0.3177  0.1213
75375SOL    HW144117   1.892   4.945  11.625  0.3014 -1.0770 -1.3534
75375SOL    HW244118   1.990   4.997  11.522 -0.6413  2.0536 -0.7664
75376SOL     OW44119  10.478  11.645   9.405  0.1650  0.3820 -0.0194
75376SOL    HW144120  10.462  11.730   9.364  0.6542 -0.5086 -2.2147
75376SOL    HW244121  10.573  11.632   9.397  0.0721 -0.4602  0.1213
75377SOL     OW44122   4.704   6.323  13.161  0.0863 -0.1778  0.0882
75377SOL    HW144123   4.634   6.382  13.136  0.6882  0.3845 -0.3149
75377SOL    HW244124   4.699   6.251  13.098  0.1865  0.1161 -0.2594
75378SOL     OW44125   9.277   0.364  12.458  0.6605  0.3849 -0.4799
75378SOL    HW144126   9.368   0.340  12.437  0.7088  0.1304  0.0089
75378SOL    HW244127   9.236   0.379  12.373 -0.0166 -3.7224 -1.0590
75379SOL     OW44128  12.420   6.540   9.936  0.3335 -0.1706  0.7012
75379SOL    HW144129  12.403   6.448   9.956  0.9963 -0.4258  0.1258
75379SOL    HW244130  12.425   6.583  10.022 -1.0784 -0.4537  0.9418
75380SOL     OW44131   5.276   7.704  10.462  0.2792 -0.1313 -0.1695
75380SOL    HW144132   5.337   7.631  10.448  0.1144 -0.2097 -0.4807
75380SOL    HW244133   5.190   7.662  10.467  0.2743 -0.0502  0.5329
75381SOL     OW44134   4.619   9.579  11.439 -0.6682  0.5266  0.0858
75381SOL    HW144135   4.660   9.581  11.353 -0.2565 -0.7739  0.2169
75381SOL    HW244136   4.528   9.604  11.423 -0.4918  0.7247 -0.6532
75382SOL     OW44137   8.645   1.078   6.485 -0.0917  0.3997  0.1310
75382SOL    HW144138   8.560   1.090   6.444  0.3960  0.1381 -1.0017
75382SOL    HW244139   8.679   0.997   6.447 -0.3750 -0.8848  2.4438
75383SOL     OW44140  10.118   3.708   7.774  0.4185 -0.0444 -0.2336
75383SOL    HW144141  10.149   3.659   7.850  0.3513  0.2064 -0.0464
75383SOL    HW244142  10.196   3.750   7.738  0.5542 -0.6345 -0.6508
75384SOL     OW44143   8.517   5.154  11.258 -0.1532 -0.2853 -0.1129
75384SOL    HW144144   8.491   5.246  11.251  2.2372  0.4571 -0.1630
75384SOL    HW244145   8.612   5.155  11.250  0.0554 -2.6575  1.0758
75385SOL     OW44146   6.183   2.234   0.176 -0.1133 -0.7327 -0.5441
75385SOL    HW144147   6.119   2.181   0.223 -1.3154  0.7676 -0.4117
75385SOL    HW244148   6.224   2.174   0.114 -1.0557 -1.9114 -0.0522
75386SOL     OW44149   9.442   5.867  12.966  0.1143 -0.4287  0.2841
75386SOL    HW144150   9.475   5.842  12.879  0.1905  0.7840 -0.0507
75386SOL    HW244151   9.519   5.898  13.013  0.0727 -1.0941  0.8034
75387SOL     OW44152  12.988   6.006   3.270 -0.1729 -0.0950 -0.4801
75387SOL    HW144153  13.065   5.969   3.227 -0.5112 -0.2086 -0.9928
75387SOL    HW244154  12.934   5.930   3.291  0.3941 -0.1283  0.9644
75388SOL     OW44155   1.577   1.378   8.057  0.0331 -0.1734  0.0238
75388SOL    HW144156   1.666   1.342   8.049 -0.3244 -1.3745  1.1737
75388SOL    HW244157   1.527   1.310   8.102 -1.1775  0.9937  0.5206
75389SOL     OW44158   3.812  10.152   2.916  0.7332  0.9635 -0.3008
75389SOL    HW144159   3.839  10.197   2.837  1.3789 -0.3488 -0.8489
75389SOL    HW244160   3.893  10.119   2.955  0.2279 -0.4933 -0.4041
75390SOL     OW44161   7.096   1.180   0.925 -0.2572 -0.0875  0.4771
75390SOL    HW144162   7.118   1.093   0.892 -1.3514 -0.5422  0.8661
75390SOL    HW244163   7.151   1.240   0.875  1.5248 -1.0879  1.1530
75391SOL     OW44164   2.353   3.843   4.483 -0.0818 -0.5123  0.1026
75391SOL    HW144165   2.423   3.807   4.430 -0.2505 -0.3862 -0.2073
75391SOL    HW244166   2.360   3.938   4.470 -1.3026 -0.5699 -1.2051
75392SOL     OW44167   4.045   3.864   0.875  0.5594  0.2433 -0.2362
75392SOL    HW144168   3.959   3.890   0.908  1.1935 -0.0985  1.8465
75392SOL    HW244169   4.030   3.843   0.783 -1.6409 -0.0491  0.1318
75393SOL     OW44170  13.013   3.862  10.482  0.6896  0.0877 -0.5798
75393SOL    HW144171  12.957   3.896  10.412  3.1877  1.1494 -2.2398
75393SOL    HW244172  13.074   3.803  10.437  1.1813 -0.7233  1.0626
75394SOL     OW44173  10.155   0.012  12.439  0.1807 -0.5373  0.0826
75394SOL    HW144174  10.120   0.095  12.472  0.9581 -0.5203  0.8953
75394SOL    HW244175  10.079  -0.031  12.399 -1.8514 -2.1735  4.9737
75395SOL     OW44176  12.702   6.170   8.413  0.4007 -0.4630  0.5434
75395SOL    HW144177  12.763   6.230   8.371 -0.8410  0.2025 -0.3657
75395SOL    HW244178  12.634   6.226   8.449 -0.7902 -1.2839 -0.3314
75396SOL     OW44179   4.978   4.243   7.580  0.2469  0.3042  0.1632
75396SOL    HW144180   4.937   4.208   7.659  0.5509 -1.5210 -0.4519
75396SOL    HW244181   4.940   4.193   7.508  1.7272  0.2727 -0.6407
75397SOL     OW44182   9.927  11.871  10.228 -0.1284 -0.1016  0.4594
75397SOL    HW144183   9.955  11.938  10.291 -1.4188 -0.1806  1.1523
75397SOL    HW244184   9.938  11.913  10.143  0.8974  0.2930  0.7677
75398SOL     OW44185  10.759  14.137   6.685  0.5397 -0.0539  0.9096
75398SOL    HW144186  10.763  14.090   6.768 -1.7655 -0.0355  1.0886
75398SOL    HW244187  10.681  14.192   6.691  0.6045  0.3504 -1.0637
75399SOL     OW44188   8.398   5.414  10.308 -0.6968  0.3396  0.5204
75399SOL    HW144189   8.436   5.455  10.230 -0.3431 -1.5072 -0.3308
75399SOL    HW244190   8.420   5.321  10.300 -0.7722  0.0655  2.7803
75400SOL     OW44191   5.967   8.480   0.846 -0.5051  0.0687  0.0742
75400SOL    HW144192   5.967   8.536   0.769 -1.4696  1.2766  0.8990
75400SOL    HW244193   6.035   8.517   0.903  1.5244 -1.9437 -0.9010
75401SOL     OW44194   6.579   9.287   8.315  0.1515 -0.0540 -0.1332
75401SOL    HW144195   6.557   9.367   8.363  1.2982  0.2091 -0.0349
75401SOL    HW244196   6.638   9.315   8.246  1.0803 -0.8820  0.2893
75402SOL     OW44197  13.523  13.338  14.026 -0.3370 -0.3538 -0.0665
75402SOL    HW144198  13.431  13.322  14.003 -0.5006  1.2656 -0.7030
75402SOL    HW244199  13.557  13.389  13.952  1.2182 -1.3214 -0.0445
75403SOL     OW44200   7.207   0.395   0.241 -0.3391  0.3396 -0.6339
75403SOL    HW144201   7.275   0.459   0.219  1.6390 -1.2838  0.4254
75403SOL    HW244202   7.185   0.416   0.332 -0.3090  0.0570 -0.5625
75404SOL     OW44203  12.818  12.551   4.337 -0.0235 -0.2782 -0.2134
75404SOL    HW144204  12.908  12.523   4.328  0.6987  1.3533  1.1876
75404SOL    HW244205  12.802  12.608   4.262 -0.4863 -1.9088 -1.3880
75405SOL     OW44206   1.582   7.833   9.618  0.0840 -0.4062  0.1978
75405SOL    HW144207   1.611   7.869   9.701  1.6783  3.6607 -1.8709
75405SOL    HW244208   1.506   7.886   9.594  0.1833 -0.9090 -1.3394
75406SOL     OW44209   0.269  12.766  11.529  0.2349 -0.3300 -0.0869
75406SOL    HW144210   0.333  12.700  11.503 -0.5959 -0.4869 -1.8393
75406SOL    HW244211   0.301  12.848  11.492  1.0231  0.2327  1.7019
75407SOL     OW44212   4.167  12.985  12.646 -0.2438 -0.1441 -0.0952
75407SOL    HW144213   4.173  12.942  12.732 -1.5195 -1.7495 -0.7710
75407SOL    HW244214   4.076  13.015  12.641 -0.0986  0.1888 -0.7902
75408SOL     OW44215   3.148  13.972   7.206  0.3147 -0.1573  0.2348
75408SOL    HW144216   3.095  14.050   7.187  0.6633  0.1489  0.5170
75408SOL    HW244217   3.239  14.002   7.199  0.4501 -0.4856  0.5579
75409SOL     OW44218   4.624   1.412   6.256 -0.1105  0.1576 -0.0447
75409SOL    HW144219   4.689   1.344   6.275 -0.0421  0.4381  0.7670
75409SOL    HW244220   4.669   1.472   6.197  0.4283  0.4277  0.6277
75410SOL     OW44221  14.074   8.400   3.690 -0.0109 -0.2542  0.9250
75410SOL    HW144222  13.986   8.377   3.661 -0.0483  0.5876  0.3352
75410SOL    HW244223  14.060   8.469   3.755  0.1394 -1.2498  2.0298
75411SOL     OW44224   2.644  12.434   7.962 -0.4498  0.3963  0.1805
75411SOL    HW144225   2.649  12.369   7.892 -0.5657  1.3974 -0.7944
75411SOL    HW244226   2.705  12.502   7.936  0.3768  0.2697  1.6594
75412SOL     OW44227  13.818   5.346  13.580  0.1120  0.9373  0.3402
75412SOL    HW144228  13.889   5.371  13.521 -0.0770  0.3445 -0.1474
75412SOL    HW244229  13.860   5.333  13.664  0.8967 -1.0674 -0.3027
75413SOL     OW44230  12.252   5.746   2.553 -0.4614 -1.1965  0.4162
75413SOL    HW144231  12.323   5.810   2.543 -2.0074  0.6490  0.5555
75413SOL    HW244232  12.245   5.704   2.468  1.2817 -1.9848  0.6285
75414SOL     OW44233   4.159   0.539  13.812 -0.3134 -0.4326 -0.0043
75414SOL    HW144234   4.174   0.499  13.727 -1.5967  0.9375 -0.9399
75414SOL    HW244235   4.075   0.585  13.803  0.4691  1.4399  1.3359
75415SOL     OW44236   1.329   7.571  13.117 -0.2370  0.3225  0.4182
75415SOL    HW144237   1.237   7.545  13.124 -0.4496  1.2091  1.1247
75415SOL    HW244238   1.343   7.587  13.023  0.4578 -4.1212 -0.4514
75416SOL     OW44239  10.778   0.071   4.162  0.4324  0.7440 -0.2648
75416SOL    HW144240  10.766   0.034   4.249 -0.5900  1.6914  0.0231
75416SOL    HW244241  10.864   0.113   4.166 -0.3090  2.2643  0.8849
75417SOL     OW44242  11.452   4.989   7.744  0.2915  0.4224  0.4191
75417SOL    HW144243  11.393   5.063   7.731 -1.7111 -0.9961  1.0512
75417SOL    HW244244  11.427   4.952   7.828 -0.3482 -2.3440 -0.8746
75418SOL     OW44245   1.555   5.973   0.490 -0.1375  0.1325 -0.1559
75418SOL    HW144246   1.561   5.882   0.460  0.3882  1.5269 -5.1459
75418SOL    HW244247   1.644   5.994   0.521 -0.4148 -1.0844  1.6494
75419SOL     OW44248   0.726   0.584  13.582 -0.2646  0.0522 -0.4062
75419SOL    HW144249   0.637   0.548  13.581 -0.8809  1.5142 -0.3267
75419SOL    HW244250   0.742   0.607  13.673  0.3693 -0.6002 -0.3477
75420SOL     OW44251  11.273   2.250   7.085 -0.4444  0.0067 -0.5440
75420SOL    HW144252  11.197   2.205   7.124  1.3502 -2.3573  0.4763
75420SOL    HW244253  11.348   2.217   7.134  1.3006  2.2813 -1.5005
75421SOL     OW44254  13.926   0.642   1.128 -0.3976 -0.5231  0.7390
75421SOL    HW144255  13.847   0.649   1.074 -0.5102 -1.2425  0.7937
75421SOL    HW244256  13.977   0.573   1.085  0.3533  0.1582  0.5196
75422SOL     OW44257   2.458   4.720   9.769 -0.6317 -0.1900  0.6112
75422SOL    HW144258   2.456   4.624   9.772  1.0130 -0.2305  1.8061
75422SOL    HW244259   2.548   4.742   9.793 -0.9717  1.6641  0.2755
75423SOL     OW44260   3.484  13.393  11.573 -0.2455 -0.2159 -0.2346
75423SOL    HW144261   3.435  13.430  11.646 -0.9122 -0.2739 -0.6537
75423SOL    HW244262   3.570  13.372  11.610  0.1338  1.6569  0.0406
75424SOL     OW44263   9.004   2.772   7.963 -0.2097 -0.5076  0.1412
75424SOL    HW144264   9.077   2.722   7.926 -0.5292 -0.6675 -0.2855
75424SOL    HW244265   9.046   2.841   8.013  0.2709  0.6154 -1.7038
75425SOL     OW44266   7.179   6.568   7.300 -0.3909  0.0741 -0.2280
75425SOL    HW144267   7.137   6.499   7.352 -1.2421 -0.6389 -1.7659
75425SOL    HW244268   7.113   6.637   7.293 -0.2097  0.2523 -0.1922
75426SOL     OW44269   7.257   9.813   9.611  0.5679 -0.0711 -0.2445
75426SOL    HW144270   7.166   9.792   9.629  1.0302 -0.7954  1.5018
75426SOL    HW244271   7.288   9.743   9.554 -0.6847  1.7575 -3.4424
75427SOL     OW44272   5.811  10.369   2.657 -0.2097  0.3950 -0.0037
75427SOL    HW144273   5.735  10.322   2.691  0.3161 -1.2533 -1.0065
75427SOL    HW244274   5.774  10.445   2.612 -1.0384  1.4508  2.2964
75428SOL     OW44275   7.292   5.028   5.015 -0.2432 -0.1912 -0.0353
75428SOL    HW144276   7.343   4.973   5.075  2.9573 -1.0796 -3.1810
75428SOL    HW244277   7.302   5.116   5.049  1.3840 -0.6744  0.8647
75429SOL     OW44278   8.440  11.848   4.609 -0.1298 -0.5697 -0.5498
75429SOL    HW144279   8.527  11.830   4.647 -0.7801 -0.8777  0.8707
75429SOL    HW244280   8.383  11.782   4.649 -1.6704  1.6408  1.1273
75430SOL     OW44281  10.187   8.420   0.607  0.2932  0.7573  0.0730
75430SOL    HW144282  10.218   8.348   0.662  2.5873  0.1683 -1.8041
75430SOL    HW244283  10.182   8.495   0.665  0.1811 -0.3837  1.5827
75431SOL     OW44284   9.080  13.300  10.829  0.2368 -0.1132  0.1609
75431SOL    HW144285   9.163  13.331  10.865  1.7721  0.0339 -3.1815
75431SOL    HW244286   9.077  13.207  10.853  1.0832  0.0053  0.7712
75432SOL     OW44287   4.669  10.144   3.185  0.4028  0.0154 -0.0397
75432SOL    HW144288   4.714  10.225   3.162 -1.3447  0.7078 -1.2059
75432SOL    HW244289   4.669  10.142   3.281  0.4251  1.4104  0.0038
75433SOL     OW44290   7.470   1.677   0.322  0.5213  0.2353 -0.2357
75433SOL    HW144291   7.502   1.598   0.278  0.4780 -0.2023  0.4991
75433SOL    HW244292   7.437   1.732   0.251  1.4964  0.0429 -0.8603
75434SOL     OW44293   7.420   8.633   2.967  0.3756 -0.4288  0.5787
75434SOL    HW144294   7.360   8.707   2.961 -0.2866 -1.0928 -2.1009
75434SOL    HW244295   7.507   8.673   2.973 -0.1001  0.5261  1.5068
75435SOL     OW44296  10.052  12.955   8.739 -0.3046 -0.1662  0.4183
75435SOL    HW144297  10.120  12.890   8.719  0.4690  0.0599  2.1079
75435SOL    HW244298  10.097  13.039   8.732 -0.9526  0.1122 -0.4440
75436SOL     OW44299  13.799   8.781   5.767 -0.6688 -0.4938  0.7166
75436SOL    HW144300  13.828   8.695   5.734  0.5104  0.7282 -1.7163
75436SOL    HW244301  13.707   8.787   5.741  0.0087  0.0823 -1.8553
75437SOL     OW44302   4.974  12.295   1.072 -0.6457 -0.0350 -0.4405
75437SOL    HW144303   5.049  12.344   1.107 -0.3617 -0.2617 -0.7190
75437SOL    HW244304   4.976  12.314   0.978 -1.2962  0.4310 -0.3619
75438SOL     OW44305   3.939  13.952   9.186  0.2486 -0.1085  0.0577
75438SOL    HW144306   3.986  13.999   9.255 -0.5811  0.0876  0.4903
75438SOL    HW244307   3.958  13.859   9.202  2.7572  0.0440 -1.4084
75439SOL     OW44308   2.639   5.013   9.272 -0.6493  0.5967  0.3233
75439SOL    HW144309   2.617   4.936   9.220  1.8463 -0.0217  0.0597
75439SOL    HW244310   2.674   5.076   9.209  1.7258  0.1147  1.0443
75440SOL     OW44311  10.721  11.742  11.385  0.0165 -0.5175  0.2445
75440SOL    HW144312  10.693  11.667  11.332 -1.0408  0.4094 -0.5658
75440SOL    HW244313  10.651  11.806  11.374  0.4029  0.2063  1.7542
75441SOL     OW44314   3.437   8.029   9.721  0.1628  0.1115  0.0991
75441SOL    HW144315   3.448   7.952   9.665 -3.3916  0.1447 -0.9059
75441SOL    HW244316   3.368   8.080   9.677  0.2104  2.2941  2.3623
75442SOL     OW44317   5.267   1.220   3.563 -0.4180  0.3223  0.3265
75442SOL    HW144318   5.252   1.182   3.477 -0.1511  2.3358 -0.6552
75442SOL    HW244319   5.179   1.235   3.599 -0.5371  0.0361  0.1535
75443SOL     OW44320  14.009   0.327   9.103  0.0667 -0.0067  0.1993
75443SOL    HW144321  13.915   0.339   9.095 -0.0301 -1.2315 -0.6945
75443SOL    HW244322  14.027   0.343   9.196 -0.7944  1.5219  0.1430
75444SOL     OW44323  10.793   4.183   4.269  0.3930 -0.5615 -0.3073
75444SOL    HW144324  10.729   4.252   4.253  0.7435 -0.0946  0.2636
75444SOL    HW244325  10.755   4.105   4.229 -0.7842 -0.4094  0.4817
75445SOL     OW44326   3.950   8.754   1.085 -0.0560 -0.3482  0.7923
75445SOL    HW144327   3.935   8.848   1.082  1.1562 -0.1085  1.4277
75445SOL    HW244328   3.874   8.715   1.040 -0.6624  0.9074  0.6997
75446SOL     OW44329  11.985   9.772   0.293  0.1241  0.4594  0.3921
75446SOL    HW144330  11.892   9.749   0.293  0.7187 -2.6987 -1.5566
75446SOL    HW244331  12.022   9.720   0.221  3.5234  1.0256  1.5444
75447SOL     OW44332   1.129  11.309   3.985  0.3937  0.3862 -0.0851
75447SOL    HW144333   1.220  11.283   3.992  0.3441  0.2813  0.1874
75447SOL    HW244334   1.092  11.292   4.072  0.3061  1.1455  0.0406
75448SOL     OW44335   7.654   4.927   9.771 -0.1284 -0.0922  0.0792
75448SOL    HW144336   7.656   4.958   9.861  1.3571  1.0575 -0.3052
75448SOL    HW244337   7.719   4.981   9.725 -1.1393 -0.3590 -1.7749
75449SOL     OW44338   4.158  10.476   3.365 -0.2584 -0.1478  0.8817
75449SOL    HW144339   4.128  10.526   3.441  0.6473 -0.4602  1.4607
75449SOL    HW244340   4.079  10.439   3.327 -0.7487  0.2484  1.5106
75450SOL     OW44341   3.405  10.259   6.739  0.6259  0.8020  0.4752
75450SOL    HW144342   3.332  10.230   6.793  1.2690 -0.2146  0.8162
75450SOL    HW244343   3.475  10.196   6.756  1.0260  0.7519 -1.1304
75451SOL     OW44344   1.272  11.383   8.122 -0.7148 -0.5694 -0.1556
75451SOL    HW144345   1.343  11.320   8.121  0.4521  0.7010 -0.7735
75451SOL    HW244346   1.306  11.458   8.172 -1.4871  0.1919 -0.7276
75452SOL     OW44347   0.921  13.208   9.458 -0.2309  0.3566  0.1838
75452SOL    HW144348   0.893  13.263   9.385  1.3216  0.8175 -0.1090
75452SOL    HW244349   0.878  13.245   9.535 -0.1331  1.2629 -0.1861
75453SOL     OW44350  10.392   5.131  12.326  0.6855 -0.4126 -0.4920
75453SOL    HW144351  10.463   5.194  12.320 -0.4330  1.2028  1.6784
75453SOL    HW244352  10.312   5.183  12.316 -0.2984 -1.3096  1.9260
75454SOL     OW44353   7.261   0.520   1.690  0.5516 -0.1115 -0.1186
75454SOL    HW144354   7.295   0.443   1.737  0.9509 -0.0246 -0.2572
75454SOL    HW244355   7.340   0.571   1.669  0.4233 -0.3264 -1.1947
75455SOL     OW44356  10.071   6.369   1.355 -0.6202 -0.2390 -0.5628
75455SOL    HW144357   9.978   6.370   1.374 -1.0028 -0.4059 -2.2981
75455SOL    HW244358  10.096   6.276   1.359 -0.3342 -0.1227  0.6910
75456SOL     OW44359   2.950   6.826   1.839  0.5052 -1.0539 -0.3232
75456SOL    HW144360   2.864   6.784   1.843  0.3812 -1.0148 -2.0588
75456SOL    HW244361   2.941   6.892   1.770  2.7102 -2.9249 -2.5634
75457SOL     OW44362   7.209   2.068   0.554 -0.0255 -0.4137 -0.3355
75457SOL    HW144363   7.120   2.091   0.527 -0.2737 -1.2671 -0.2617
75457SOL    HW244364   7.204   1.975   0.578  0.3814  0.0568  1.7884
75458SOL     OW44365   2.715  12.682  13.617  0.6199  0.1882 -0.3965
75458SOL    HW144366   2.654  12.612  13.594  0.7229  0.7068 -2.4327
75458SOL    HW244367   2.660  12.753  13.648  0.5857 -1.2639  3.4960
75459SOL     OW44368  11.859   1.041   4.033  0.0330 -0.1571  0.0413
75459SOL    HW144369  11.903   1.058   3.949 -0.6193  0.5430 -0.1694
75459SOL    HW244370  11.777   0.998   4.009  0.6532 -1.6247  0.4442
75460SOL     OW44371   4.923  12.018   6.453 -0.0155 -0.6291  0.1841
75460SOL    HW144372   4.863  12.048   6.385 -0.2125  1.2573  1.1312
75460SOL    HW244373   4.888  12.055   6.535  1.1421 -1.4256  1.0743
75461SOL     OW44374  12.667  13.007  11.542 -0.2464  0.2666  0.7678
75461SOL    HW144375  12.629  12.923  11.517  0.8434 -0.1560  0.4899
75461SOL    HW244376  12.761  12.993  11.540 -0.0303  1.6201  0.2841
75462SOL     OW44377  14.069   5.718   3.246  0.2462 -0.7123  0.2570
75462SOL    HW144378  13.997   5.665   3.282 -1.0363 -0.0203 -1.1870
75462SOL    HW244379  14.050   5.724   3.152  2.0730 -0.2910 -0.1165
75463SOL     OW44380   2.191   2.797  11.158  0.1946 -0.0108  0.4551
75463SOL    HW144381   2.222   2.707  11.164  1.5746  0.4035 -0.0530
75463SOL    HW244382   2.266   2.850  11.183 -0.4844  1.0105  0.3933
75464SOL     OW44383  13.812  11.025   0.657 -0.0517  1.3562 -0.0440
75464SOL    HW144384  13.733  11.055   0.613  0.0570  0.7514 -0.6601
75464SOL    HW244385  13.868  10.992   0.587  0.3173  0.8202  0.4874
75465SOL     OW44386   9.112   6.765  13.276  0.7599 -0.2559 -0.0523
75465SOL    HW144387   9.032   6.713  13.268  1.2325 -1.1117  0.6944
75465SOL    HW244388   9.116   6.816  13.195 -0.5145 -0.2341 -0.1138
75466SOL     OW44389   9.469   8.860   0.845  0.1705  0.1304 -0.1169
75466SOL    HW144390   9.459   8.823   0.757 -0.0876 -1.2974  0.4836
75466SOL    HW244391   9.545   8.814   0.881  0.3756  0.8327  0.3567
75467SOL     OW44392   1.340   1.784   1.096 -0.3829 -0.3456 -0.3004
75467SOL    HW144393   1.413   1.746   1.047 -0.9092 -1.7678 -0.0121
75467SOL    HW244394   1.371   1.871   1.122  0.2678  0.0792 -2.3194
75468SOL     OW44395  10.080   2.781   4.972  0.0091 -0.0033 -0.1265
75468SOL    HW144396  10.027   2.748   4.900  1.4371 -1.1625 -0.6903
75468SOL    HW244397  10.150   2.717   4.982  0.8383  1.0406  1.1527
75469SOL     OW44398  10.625   9.961   0.307 -0.8175 -0.6619  0.4911
75469SOL    HW144399  10.660   9.905   0.376 -2.1771 -1.4816  0.5516
75469SOL    HW244400  10.594   9.900   0.240  0.8388  0.1120 -1.0967
75470SOL     OW44401   2.359  13.892   2.440 -0.2458 -0.2211  0.2734
75470SOL    HW144402   2.405  13.905   2.523  0.3783  0.3134 -0.1400
75470SOL    HW244403   2.283  13.838   2.462 -1.2053  1.5517  1.5290
75471SOL     OW44404   0.851   6.150  10.738  0.2534 -0.2234 -0.2537
75471SOL    HW144405   0.864   6.144  10.644  0.0367 -0.7640 -0.2504
75471SOL    HW244406   0.803   6.232  10.751 -1.9834 -1.3715 -0.8602
75472SOL     OW44407   1.588  12.895   9.078  0.5026 -0.2704  0.4583
75472SOL    HW144408   1.657  12.878   9.013 -0.5272 -1.2406 -0.4390
75472SOL    HW244409   1.596  12.824   9.141 -0.6157 -1.3394 -0.5229
75473SOL     OW44410   6.266   2.665   2.652  0.5598 -0.1468 -0.3993
75473SOL    HW144411   6.302   2.711   2.728  0.6795 -0.0423 -0.5180
75473SOL    HW244412   6.342   2.630   2.606  0.4862 -0.2363 -0.4535
75474SOL     OW44413  12.297   1.168   9.682  0.6308  0.8110 -0.1018
75474SOL    HW144414  12.323   1.101   9.745 -0.0625 -0.5158 -1.1551
75474SOL    HW244415  12.252   1.235   9.734  0.2600 -0.1398  0.8427
75475SOL     OW44416   3.699   8.955  12.492 -0.7904  0.0934  0.6497
75475SOL    HW144417   3.704   9.049  12.508  1.4889 -0.0491  1.0972
75475SOL    HW244418   3.731   8.944  12.402 -1.3242 -0.2394  0.4953
75476SOL     OW44419   5.684   9.284   4.810  0.2649  0.1580 -0.0935
75476SOL    HW144420   5.740   9.240   4.747  1.2832  1.1113  0.1065
75476SOL    HW244421   5.681   9.375   4.781 -0.2246  0.3661  0.5663
75477SOL     OW44422  10.955   1.713   4.221  0.2427 -0.1710 -0.0363
75477SOL    HW144423  10.953   1.709   4.125  0.2083  0.6191 -0.0724
75477SOL    HW244424  10.886   1.774   4.244 -1.6758 -2.4260  0.6529
75478SOL     OW44425  11.420   7.051  11.374 -0.5501  0.0745 -0.1389
75478SOL    HW144426  11.480   7.030  11.303  0.3216  1.4079  0.1653
75478SOL    HW244427  11.390   6.967  11.407  3.0866 -0.7934  1.3456
75479SOL     OW44428   7.455   9.323   1.444  0.4553  0.2167  0.4152
75479SOL    HW144429   7.361   9.337   1.451  0.3092 -0.0360 -0.8624
75479SOL    HW244430   7.465   9.258   1.375  1.4903 -0.9430  1.6007
75480SOL     OW44431  13.058   8.395  10.967  0.1730  0.1214 -0.3361
75480SOL    HW144432  13.071   8.383  11.061 -0.4333  1.6056 -0.0263
75480SOL    HW244433  13.144   8.423  10.934  0.1528  0.5126 -0.0539
75481SOL     OW44434   3.186   9.937   1.199 -0.2551  0.6638 -0.1806
75481SOL    HW144435   3.142   9.884   1.133  0.3205 -0.3230  0.2172
75481SOL    HW244436   3.187   9.883   1.277  2.0218  0.4847 -0.2844
75482SOL     OW44437  10.714   5.610   4.066  0.2777 -0.1889  0.0362
75482SOL    HW144438  10.698   5.679   4.132 -1.1582 -0.3941 -0.0729
75482SOL    HW244439  10.649   5.627   3.998 -0.7353 -2.1870  0.4343
75483SOL     OW44440   2.020  13.510   5.783 -0.2197  0.1040 -0.2484
75483SOL    HW144441   2.112  13.533   5.780 -0.7375  2.8321  1.3352
75483SOL    HW244442   2.018  13.424   5.823  1.5942  0.4796  0.7416
75484SOL     OW44443   0.681  10.325   3.955 -0.2327 -0.2930 -0.1132
75484SOL    HW144444   0.619  10.261   3.990  0.0516  0.0902  1.1574
75484SOL    HW244445   0.722  10.363   4.033  0.3420  0.6970 -0.8790
75485SOL     OW44446  13.599  10.342  12.774 -0.1438  0.3240  0.0422
75485SOL    HW144447  13.537  10.268  12.778  1.1444 -0.7825  0.4256
75485SOL    HW244448  13.574  10.390  12.695 -2.3908  0.7717  0.9372
75486SOL     OW44449   5.943  10.319   1.979  0.5994  0.3844 -0.0027
75486SOL    HW144450   5.980  10.242   2.022 -0.7125 -0.0362  0.4565
75486SOL    HW244451   5.923  10.291   1.890 -2.9628 -0.9665  1.0595
75487SOL     OW44452   6.644   9.726   1.359  0.5212 -0.1176 -0.3687
75487SOL    HW144453   6.566   9.773   1.330  0.9708  1.4183  0.7832
75487SOL    HW244454   6.717   9.770   1.316  0.9477  0.2671  0.7000
75488SOL     OW44455   3.323   9.150   7.628 -0.1654  0.3134  0.2267
75488SOL    HW144456   3.267   9.180   7.556 -0.5049  0.2095  0.4479
75488SOL    HW244457   3.307   9.056   7.633 -0.8524  0.4652  1.0536
75489SOL     OW44458   7.161   8.323   8.835 -0.3443 -0.0504 -0.4984
75489SOL    HW144459   7.109   8.302   8.912  0.6908 -0.6483  0.0587
75489SOL    HW244460   7.200   8.409   8.855 -0.1927 -0.1383 -0.4125
75490SOL     OW44461   9.435   2.005  13.730 -0.2403  0.0290 -0.2988
75490SOL    HW144462   9.505   1.969  13.677  1.1854  2.3419 -0.1553
75490SOL    HW244463   9.471   2.007  13.819 -1.0994 -0.1944  0.0632
75491SOL     OW44464   9.148   0.678   4.860  0.1541 -0.0892 -0.2333
75491SOL    HW144465   9.152   0.583   4.850  0.5136 -0.1407  0.3596
75491SOL    HW244466   9.144   0.711   4.770  0.3074 -0.6529 -0.4524
75492SOL     OW44467   4.468   5.429   0.727  0.2032 -0.2897 -0.3108
75492SOL    HW144468   4.456   5.374   0.649  2.4152  0.6335 -1.4141
75492SOL    HW244469   4.513   5.373   0.789 -1.8448 -1.1274  0.4975
75493SOL     OW44470  10.950  13.493  10.448  0.3528  0.3437  0.0992
75493SOL    HW144471  10.999  13.550  10.506 -0.4293  1.3138 -0.1650
75493SOL    HW244472  10.871  13.470  10.497  1.2104 -1.5468  0.6890
75494SOL     OW44473   0.762  12.859   8.452 -0.2551  0.5146  0.1424
75494SOL    HW144474   0.846  12.903   8.465  0.9767 -1.8589  0.7023
75494SOL    HW244475   0.699  12.913   8.500  1.1794  1.5737  0.9142
75495SOL     OW44476   5.256  10.771   1.679 -0.0008 -0.3572 -0.0332
75495SOL    HW144477   5.215  10.857   1.671 -0.7133 -0.6347  0.5338
75495SOL    HW244478   5.321  10.769   1.609 -1.0209  0.0562 -1.0194
75496SOL     OW44479   7.151   6.121  13.387  0.0318  0.3155  0.4341
75496SOL    HW144480   7.199   6.156  13.312 -0.8231  1.6170  0.4641
75496SOL    HW244481   7.202   6.150  13.463  0.9151 -1.0300  0.3798
75497SOL     OW44482   9.432  11.414   9.992  0.1038 -0.0815 -0.1999
75497SOL    HW144483   9.412  11.351   9.923  1.2517  1.4261 -1.9937
75497SOL    HW244484   9.497  11.371  10.047 -0.9265 -1.3569  0.0573
75498SOL     OW44485   5.548   6.951   0.148  0.1429 -0.7233 -0.4187
75498SOL    HW144486   5.466   6.913   0.118 -0.6081  0.0085  0.6185
75498SOL    HW244487   5.535   7.046   0.142  1.7555 -0.5442 -2.3803
75499SOL     OW44488   8.145   0.768   7.717 -0.7981 -0.0477 -0.0880
75499SOL    HW144489   8.199   0.757   7.796  0.1754  2.1188 -0.3761
75499SOL    HW244490   8.183   0.709   7.653  0.3722  0.4197  0.1538
75500SOL     OW44491  12.198   0.040   2.998 -0.2663  0.1723 -0.6388
75500SOL    HW144492  12.197   0.077   3.087  1.9729  1.4653 -1.0778
75500SOL    HW244493  12.179   0.116   2.942 -1.2954 -0.5659 -1.3239
75501SOL     OW44494   1.957   5.327   0.163 -0.6201 -0.5641  0.3354
75501SOL    HW144495   1.935   5.244   0.206  0.1077  0.2051  2.3322
75501SOL    HW244496   1.974   5.304   0.072  0.7209 -2.8240  1.0852
75502SOL     OW44497  12.218   9.794  11.854 -0.0956 -0.0515 -0.3777
75502SOL    HW144498  12.135   9.840  11.865 -1.1508 -2.2392  1.8942
75502SOL    HW244499  12.284   9.863  11.855 -1.7080  1.5783  0.7327
75503SOL     OW44500   9.526   5.142   0.913 -0.4150 -0.0593  0.0428
75503SOL    HW144501   9.444   5.170   0.955 -1.3931 -2.7932  0.1917
75503SOL    HW244502   9.515   5.166   0.821 -0.5199  1.3477  0.4095
75504SOL     OW44503   3.353   6.538   0.860  0.6622  0.0816 -0.0276
75504SOL    HW144504   3.377   6.593   0.934  1.3917  0.7763 -0.7683
75504SOL    HW244505   3.261   6.559   0.843  1.0025  1.2850 -0.4719
75505SOL     OW44506   8.750   0.888   6.905  0.0737 -0.0627  0.4139
75505SOL    HW144507   8.728   0.838   6.826 -1.0201  1.4281 -0.2609
75505SOL    HW244508   8.811   0.831   6.953 -1.1858 -2.0857 -0.2523
75506SOL     OW44509   1.576  11.266  12.394  0.3520  0.8154 -0.3973
75506SOL    HW144510   1.562  11.281  12.301  0.1906 -0.6536 -0.6253
75506SOL    HW244511   1.609  11.350  12.427 -1.4188  1.9490 -1.3804
75507SOL     OW44512  11.454   2.402   5.743 -0.8002  0.9622 -0.1766
75507SOL    HW144513  11.501   2.341   5.686 -1.0527 -0.6364  1.2411
75507SOL    HW244514  11.400   2.346   5.799 -2.2597  2.6013  0.1329
75508SOL     OW44515   1.084   8.662   3.627  0.3743  0.5614  0.0017
75508SOL    HW144516   1.024   8.593   3.598  1.9317  0.0528 -2.2614
75508SOL    HW244517   1.070   8.666   3.722  0.1692 -2.8608  0.2682
75509SOL     OW44518   6.018  12.704   0.707 -0.2186  0.1779  0.7949
75509SOL    HW144519   5.935  12.722   0.751 -1.9460  3.5303 -3.1628
75509SOL    HW244520   6.080  12.766   0.746  0.4103 -1.7849  3.1930
75510SOL     OW44521   7.388  10.193   9.262 -0.2438  0.3077 -0.6112
75510SOL    HW144522   7.421  10.230   9.181  0.2424  0.9275 -0.1397
75510SOL    HW244523   7.372  10.269   9.318 -2.4957  0.0510 -0.8208
75511SOL     OW44524   0.961  10.001   1.818 -0.0327  0.4729  0.3504
75511SOL    HW144525   1.012   9.972   1.743 -0.6246 -1.0933  0.5210
75511SOL    HW244526   0.906  10.072   1.785  1.0211  1.0363 -0.2315
75512SOL     OW44527  10.589   0.733   3.330 -0.0427  0.2865 -0.2667
75512SOL    HW144528  10.583   0.683   3.412  1.6275  1.8241  0.8701
75512SOL    HW244529  10.670   0.703   3.290 -1.2763 -1.0953 -1.8994
75513SOL     OW44530  12.871   2.830   9.957  0.0516  0.0959  0.4029
75513SOL    HW144531  12.800   2.811  10.018 -1.0270 -0.2145 -0.9039
75513SOL    HW244532  12.869   2.758   9.895  2.4966 -0.7239  1.1492
75514SOL     OW44533   2.535   8.539   0.081  0.4597  0.1552 -0.3229
75514SOL    HW144534   2.490   8.615   0.043 -0.9417  0.2583  1.3829
75514SOL    HW244535   2.465   8.491   0.126  2.0677  0.5643  2.8677
75515SOL     OW44536   1.687  11.862   8.373  0.3832  0.3449  0.0062
75515SOL    HW144537   1.623  11.856   8.302  1.2835  0.1345 -0.8116
75515SOL    HW244538   1.646  11.919   8.437 -1.1226 -0.7147  0.0500
75516SOL     OW44539  11.259   3.503   8.836 -0.4789  0.4897  0.0709
75516SOL    HW144540  11.247   3.538   8.748  3.6443  2.1402 -0.0788
75516SOL    HW244541  11.255   3.408   8.825  0.0740  0.6522 -1.9444
75517SOL     OW44542   6.055   8.659  10.482  0.1337  0.1892  0.5382
75517SOL    HW144543   6.048   8.597  10.555 -1.5000  0.5231  0.6983
75517SOL    HW244544   5.975   8.645  10.431  1.2495 -0.0548 -1.2369
75518SOL     OW44545   5.369   1.999   4.782 -0.2222 -0.3051  0.4726
75518SOL    HW144546   5.308   2.054   4.733 -1.2148 -1.3214  0.5324
75518SOL    HW244547   5.451   2.048   4.782 -1.2644  1.5264  1.1870
75519SOL     OW44548   0.601  13.336   1.717 -0.4004  0.7114 -0.1607
75519SOL    HW144549   0.632  13.308   1.803 -2.3089 -1.0230  0.0292
75519SOL    HW244550   0.682  13.348   1.666  0.7158  0.4157  1.4488
75520SOL     OW44551   9.363   0.579   9.834  0.0671  0.4871  0.3488
75520SOL    HW144552   9.287   0.521   9.825  0.0626  0.0416  2.6507
75520SOL    HW244553   9.382   0.607   9.745 -3.1183  1.0374 -0.2806
75521SOL     OW44554  12.751   4.771  10.188 -0.2168  0.2751  0.2249
75521SOL    HW144555  12.809   4.813  10.251  0.4297 -0.2855  0.0168
75521SOL    HW244556  12.696   4.842  10.155  1.2484  1.0940 -0.5566
75522SOL     OW44557   3.200  13.344  12.115 -0.2605  0.7330  0.2157
75522SOL    HW144558   3.257  13.418  12.091 -0.6226  0.6414 -0.9551
75522SOL    HW244559   3.233  13.271  12.064 -0.9682  0.5015  0.0795
75523SOL     OW44560   6.576   7.216  13.362  0.4193  0.0856 -0.2335
75523SOL    HW144561   6.639   7.158  13.405 -1.1424 -2.0678 -0.6577
75523SOL    HW244562   6.568   7.181  13.274  0.5705  1.9717 -1.0480
75524SOL     OW44563  10.569  11.308   4.490 -0.5486 -0.3756 -0.5271
75524SOL    HW144564  10.647  11.346   4.450 -1.4613  1.4754 -0.6533
75524SOL    HW244565  10.516  11.278   4.416 -0.1581 -1.2643 -0.4584
75525SOL     OW44566   4.695   4.247  13.510 -0.1998  0.6129  0.1629
75525SOL    HW144567   4.713   4.264  13.602 -0.3315 -0.9181  0.5027
75525SOL    HW244568   4.781   4.238  13.469 -0.1440  1.1008  0.1690
75526SOL     OW44569   0.001   7.878  10.579 -0.2338 -0.4686 -0.2639
75526SOL    HW144570  -0.067   7.860  10.514  0.6433 -1.6715 -0.9059
75526SOL    HW244571  -0.046   7.882  10.663 -1.0157 -2.2205 -0.5657
75527SOL     OW44572  10.400   7.825   2.723  0.2174 -0.1622  0.4570
75527SOL    HW144573  10.408   7.821   2.628 -0.2774 -0.1730  0.4115
75527SOL    HW244574  10.315   7.868   2.738  0.5971  0.4457  0.8974
75528SOL     OW44575  12.380   7.232   2.300 -0.3329  0.0917  0.8032
75528SOL    HW144576  12.368   7.292   2.374  1.7035  0.8147  0.6221
75528SOL    HW244577  12.406   7.149   2.341  1.2118  0.6098  0.9204
75529SOL     OW44578   4.379   7.555   6.946 -0.5291  0.2961 -0.5302
75529SOL    HW144579   4.300   7.531   6.898  0.2895 -1.0647 -1.2603
75529SOL    HW244580   4.445   7.570   6.878  0.8287 -2.2723  0.0656
75530SOL     OW44581   2.515   5.848   3.737 -0.7085  0.1985 -0.4383
75530SOL    HW144582   2.522   5.871   3.645  0.9554  0.9452 -0.1673
75530SOL    HW244583   2.518   5.932   3.783 -1.7786 -0.1479  0.2876
75531SOL     OW44584  11.065   9.621   8.924  0.4949  0.3570 -0.0715
75531SOL    HW144585  11.070   9.529   8.952 -0.8640  0.4177  0.4262
75531SOL    HW244586  11.156   9.644   8.905  0.7394 -1.3996 -1.2779
75532SOL     OW44587   3.083   7.165  13.492  0.1872 -0.2969  0.4057
75532SOL    HW144588   3.059   7.257  13.505 -0.2308 -0.4318  0.5772
75532SOL    HW244589   3.039   7.118  13.563  0.1270 -0.6773  0.1168
75533SOL     OW44590   6.074   6.153   3.703  0.9006 -0.2720  0.1489
75533SOL    HW144591   6.057   6.064   3.734  2.2204 -0.8711 -0.7246
75533SOL    HW244592   6.152   6.180   3.752  0.1645  0.6420  0.8348
75534SOL     OW44593  12.131  12.398  10.103  0.2330 -0.2402 -0.4568
75534SOL    HW144594  12.128  12.486  10.141 -0.6051  0.1048 -1.2813
75534SOL    HW244595  12.045  12.360  10.122  0.2101 -0.4821 -1.0186
75535SOL     OW44596   8.225   1.719   9.342 -0.0694 -0.2504  0.4267
75535SOL    HW144597   8.140   1.677   9.328  0.6531 -1.6449  0.0245
75535SOL    HW244598   8.269   1.662   9.406  0.5083  0.5381  0.7464
75536SOL     OW44599   8.580   5.422  10.694 -0.1047 -0.0021  0.2003
75536SOL    HW144600   8.506   5.472  10.659 -1.0330 -0.9201  0.7812
75536SOL    HW244601   8.550   5.393  10.780  0.9114 -0.4752  0.4100
75537SOL     OW44602   0.128   2.986   6.236 -0.0994 -0.1463 -0.5627
75537SOL    HW144603   0.155   2.895   6.225 -0.8946 -0.4960  0.2244
75537SOL    HW244604   0.173   3.014   6.316  0.7819  0.4199 -1.2389
75538SOL     OW44605   9.929   2.386   1.724 -0.2344  0.1630  0.4316
75538SOL    HW144606   9.885   2.451   1.779 -0.6632  2.3029 -2.2237
75538SOL    HW244607  10.003   2.433   1.686  0.7301 -1.5829  0.0480
75539SOL     OW44608   4.615  12.752   5.066 -0.2471  0.3131 -0.0204
75539SOL    HW144609   4.709  12.769   5.073  0.1596 -2.0584  1.4658
75539SOL    HW244610   4.602  12.731   4.973  0.4894  1.4529 -0.4108
75540SOL     OW44611   7.141   2.501   9.160  0.2359 -0.2443 -0.2941
75540SOL    HW144612   7.205   2.563   9.196 -0.1981  0.5357 -0.8348
75540SOL    HW244613   7.193   2.422   9.142  1.0212  0.3056 -0.5395
75541SOL     OW44614   2.831   0.126   3.848 -0.3357 -0.0820 -0.0200
75541SOL    HW144615   2.747   0.081   3.848 -0.5960  0.3676  0.8143
75541SOL    HW244616   2.825   0.188   3.922  0.9212 -0.4332  0.4046
75542SOL     OW44617   0.611  10.555   6.865  0.4621  0.3722 -0.8608
75542SOL    HW144618   0.572  10.518   6.785  0.2849  1.6319 -1.3854
75542SOL    HW244619   0.580  10.498   6.935 -1.7789  0.8709 -1.3445
75543SOL     OW44620   3.944   2.129   8.497 -0.6502 -0.1172  0.2408
75543SOL    HW144621   3.884   2.110   8.568 -0.3385  0.3605  0.6355
75543SOL    HW244622   4.015   2.179   8.537 -0.0422 -0.5769 -0.2380
75544SOL     OW44623  12.421   7.613   8.471 -0.3246  0.0709 -0.0114
75544SOL    HW144624  12.429   7.519   8.488  0.7007 -0.0058 -0.8444
75544SOL    HW244625  12.442   7.623   8.379 -0.5251  1.1171  0.0398
75545SOL     OW44626   1.526   3.779  10.269  0.0894  0.1286  0.2093
75545SOL    HW144627   1.561   3.697  10.303 -1.3904  0.0221  1.5759
75545SOL    HW244628   1.604   3.830  10.245  1.1325 -0.6606  1.7283
75546SOL     OW44629   5.926  10.708   3.413 -0.2150  0.0791  0.3604
75546SOL    HW144630   5.885  10.673   3.492  0.5375 -1.8487 -0.0668
75546SOL    HW244631   6.001  10.758   3.445 -1.1510  1.1793  0.9531
75547SOL     OW44632   8.206   0.042   0.362  0.2221  0.2281 -0.6909
75547SOL    HW144633   8.262   0.119   0.352  2.1662 -1.0916 -0.5404
75547SOL    HW244634   8.267  -0.029   0.381 -1.7123 -0.8058  2.4758
75548SOL     OW44635   0.042   7.687   0.285  0.5685  0.1464 -0.4995
75548SOL    HW144636   0.002   7.606   0.317  0.1315  0.3083 -0.6283
75548SOL    HW244637   0.031   7.750   0.357  1.4468 -0.0695 -0.1587
75549SOL     OW44638   7.717   9.069   3.745 -0.2889 -0.2396 -0.0568
75549SOL    HW144639   7.746   9.155   3.776 -0.2298 -0.3137  0.0978
75549SOL    HW244640   7.740   9.067   3.652  0.4934 -0.4175  0.1321
75550SOL     OW44641  13.509   9.139  12.055 -0.1726 -0.1779  0.1447
75550SOL    HW144642  13.470   9.110  12.137 -0.9187  0.3655 -0.0087
75550SOL    HW244643  13.579   9.076  12.038 -1.7043 -1.8798 -0.1570
75551SOL     OW44644   4.624   7.604   4.589  0.0373  0.8124 -0.3422
75551SOL    HW144645   4.605   7.643   4.674  1.2743  1.5012 -0.3621
75551SOL    HW244646   4.550   7.632   4.534 -0.8733  0.1983  0.5255
75552SOL     OW44647   1.979   8.708   7.332  0.0777  0.1676 -0.1270
75552SOL    HW144648   1.964   8.796   7.299  1.1754  1.0722  1.6161
75552SOL    HW244649   2.074   8.703   7.345 -0.0697 -0.9051  0.7050
75553SOL     OW44650   0.285   8.201   0.527 -0.5570  0.0666 -0.1908
75553SOL    HW144651   0.336   8.127   0.560 -1.3241 -0.1967  0.4223
75553SOL    HW244652   0.306   8.272   0.588  0.0703  0.3264 -0.6972
75554SOL     OW44653   4.168   0.161  10.913  0.9254  0.1250  0.4112
75554SOL    HW144654   4.244   0.189  10.861  0.4685  1.1381  0.2489
75554SOL    HW244655   4.134   0.086  10.866  1.9630 -0.4978  0.6178
75555SOL     OW44656  11.154   9.849   7.809  0.1839 -0.3669 -0.2951
75555SOL    HW144657  11.166   9.814   7.898 -2.1371 -0.3236  0.0930
75555SOL    HW244658  11.176   9.942   7.817 -3.7090  0.6050  1.3059
75556SOL     OW44659   1.327  13.954  13.612 -0.0932  0.3643 -0.5963
75556SOL    HW144660   1.397  13.889  13.608 -0.1023  0.2725  0.3580
75556SOL    HW244661   1.340  14.008  13.535  0.2464 -0.4360 -1.1150
75557SOL     OW44662  11.435   1.287   1.939 -0.2659  0.0233  0.0576
75557SOL    HW144663  11.457   1.223   1.871 -2.1997  0.1378 -0.7378
75557SOL    HW244664  11.418   1.234   2.017  0.0356 -0.2776 -0.0790
75558SOL     OW44665   3.973  12.194   9.746 -0.5487 -0.1067  0.3617
75558SOL    HW144666   3.893  12.247   9.743 -1.1488 -0.7449  2.7575
75558SOL    HW244667   3.945  12.107   9.720 -0.6147 -0.2853  1.0093
75559SOL     OW44668   8.691   4.105   0.957  0.4702  0.0837  0.2361
75559SOL    HW144669   8.657   4.025   0.997  0.9127 -1.3445 -2.0013
75559SOL    HW244670   8.618   4.167   0.960 -0.0836 -0.6064  1.4918
75560SOL     OW44671   7.907   4.468   9.378  0.2228  0.9095 -0.2033
75560SOL    HW144672   7.910   4.475   9.474  0.5713 -0.4401 -0.0928
75560SOL    HW244673   7.847   4.395   9.362 -1.4356  2.4026 -1.1104
75561SOL     OW44674  12.076   9.302  12.149  0.2708  0.3124 -0.2690
75561SOL    HW144675  12.126   9.229  12.113 -1.3625 -1.2435  0.4783
75561SOL    HW244676  12.035   9.343  12.073  0.5912 -0.0047 -0.6189
75562SOL     OW44677   0.179   7.442  10.782 -0.2626 -0.2448 -0.4198
75562SOL    HW144678   0.222   7.466  10.700 -2.4288 -1.5808 -2.0744
75562SOL    HW244679   0.101   7.497  10.784 -0.2134 -0.2040  0.7970
75563SOL     OW44680  12.245   6.325   9.557  0.5608 -0.5847  0.1603
75563SOL    HW144681  12.330   6.360   9.531  1.6769 -1.7970  2.0155
75563SOL    HW244682  12.259   6.231   9.569 -0.8961 -0.7261  1.0348
75564SOL     OW44683   6.063   7.806  11.338  0.2770  0.1006 -0.7429
75564SOL    HW144684   5.996   7.872  11.355 -0.0917 -0.3857 -0.2697
75564SOL    HW244685   6.089   7.775  11.425  1.8978  1.0345 -0.8503
75565SOL     OW44686   7.121   8.558   1.099  0.2670  0.1176 -0.3138
75565SOL    HW144687   7.192   8.515   1.052 -0.9643 -0.6807 -1.5205
75565SOL    HW244688   7.106   8.502   1.176 -1.0617 -1.5010 -1.6673
75566SOL     OW44689   8.049  11.270  13.728 -0.3050  0.3023 -0.2458
75566SOL    HW144690   8.138  11.305  13.738 -1.4743  3.3631  0.4765
75566SOL    HW244691   8.053  11.216  13.649  2.7801 -1.9368  1.2277
75567SOL     OW44692   1.410  10.602   7.894 -0.6540 -0.0695 -0.2870
75567SOL    HW144693   1.342  10.659   7.858 -1.1818  0.2458  1.1480
75567SOL    HW244694   1.440  10.550   7.819 -0.6261  1.6013 -1.5203
75568SOL     OW44695   1.804  14.076   2.261 -0.4521  0.2592  0.7304
75568SOL    HW144696   1.884  14.054   2.213 -0.9193  2.3025 -1.1346
75568SOL    HW244697   1.748  14.120   2.197 -3.2106 -1.2325  1.8998
75569SOL     OW44698   6.648   0.936   8.222  0.6651  0.0433  0.0602
75569SOL    HW144699   6.664   0.843   8.211 -0.7420 -0.2545  0.3867
75569SOL    HW244700   6.625   0.967   8.134 -0.9700 -0.3627  0.3267
75570SOL     OW44701   2.205   8.157   8.624  0.2134 -0.1324  0.2090
75570SOL    HW144702   2.186   8.173   8.717  0.8326  1.1191  0.1493
75570SOL    HW244703   2.295   8.189   8.613  0.5621 -1.3348 -0.5767
75571SOL     OW44704   3.864   6.420   6.923  0.9690  0.1337  0.2062
75571SOL    HW144705   3.873   6.352   6.857  2.9381  0.2943  0.2507
75571SOL    HW244706   3.782   6.400   6.968  1.3428 -2.0252  0.0168
75572SOL     OW44707  13.108  11.943  11.030 -0.0995  0.6631  0.1413
75572SOL    HW144708  13.137  11.881  11.096  0.9187  0.9418 -0.0385
75572SOL    HW244709  13.183  12.000  11.015 -0.3404  0.6725 -1.1867
75573SOL     OW44710   7.937   4.724   2.253 -0.1201  0.2825 -0.0593
75573SOL    HW144711   7.903   4.754   2.337 -0.1343  2.0283 -0.6416
75573SOL    HW244712   7.963   4.633   2.268 -1.2683  0.1785  1.4831
75574SOL     OW44713  10.483   1.011  12.661  0.8108  0.2156  0.3566
75574SOL    HW144714  10.428   1.021  12.739 -0.8994  1.0167 -0.9058
75574SOL    HW244715  10.441   0.941  12.611  2.5815 -1.1444  0.6585
75575SOL     OW44716   3.779   0.502  11.585  0.2015 -0.6855 -0.3959
75575SOL    HW144717   3.713   0.564  11.556  1.1883 -0.4083 -2.2026
75575SOL    HW244718   3.842   0.498  11.513  2.0007 -1.1695  1.1157
75576SOL     OW44719  10.234   4.238   4.049  0.0884 -0.1022 -0.3693
75576SOL    HW144720  10.156   4.199   4.088 -0.4591 -1.0472 -2.2435
75576SOL    HW244721  10.205   4.324   4.018 -0.2846 -0.5099 -1.1911
75577SOL     OW44722   9.624   2.760   6.046  0.7676  0.0036  0.4224
75577SOL    HW144723   9.674   2.765   6.128  0.6073 -0.6714  0.5646
75577SOL    HW244724   9.557   2.694   6.063  1.1841 -0.6660 -0.4916
75578SOL     OW44725   9.676   8.168  14.086 -0.5627  0.7100 -0.1406
75578SOL    HW144726   9.604   8.196  14.029 -0.4188  1.1154 -0.1240
75578SOL    HW244727   9.646   8.084  14.122 -0.2870  0.0165 -1.4712
75579SOL     OW44728  10.401   2.806  11.175 -0.0572 -0.3886  0.3086
75579SOL    HW144729  10.406   2.869  11.248  0.8029 -0.3086  0.1806
75579SOL    HW244730  10.336   2.845  11.116  0.2969  0.2683  0.3423
75580SOL     OW44731  10.511   2.542   9.278 -0.0637 -0.5142 -0.7690
75580SOL    HW144732  10.482   2.581   9.360  2.4936 -0.8072  0.3885
75580SOL    HW244733  10.455   2.466   9.265 -0.5087 -0.4683  0.7361
75581SOL     OW44734   3.783   1.134   4.931  0.2102 -0.1637 -0.3302
75581SOL    HW144735   3.839   1.211   4.928 -0.1852  0.2301  1.2693
75581SOL    HW244736   3.746   1.127   4.843 -0.2712  1.8928 -0.3432
75582SOL     OW44737   9.758  12.450  10.521 -0.6079 -0.1602  0.2911
75582SOL    HW144738   9.827  12.384  10.534 -1.9949 -1.7658 -0.1333
75582SOL    HW244739   9.805  12.533  10.517  1.3757 -1.2467 -0.5504
75583SOL     OW44740  13.048  12.457  11.844 -0.4362  0.3769  0.2512
75583SOL    HW144741  13.126  12.510  11.860  0.4379 -0.9632  0.6056
75583SOL    HW244742  13.002  12.503  11.775  1.4025  0.4977 -0.9791
75584SOL     OW44743  11.232   0.124  13.980  0.3881 -0.3798 -0.5304
75584SOL    HW144744  11.183   0.164  14.052 -0.3643  1.7011 -2.1067
75584SOL    HW244745  11.238   0.032  14.004 -1.5485 -0.1223  1.2618
75585SOL     OW44746   1.732   5.682  10.866 -0.2322  0.2548  0.1987
75585SOL    HW144747   1.786   5.717  10.937  0.0407  1.4395 -0.5749
75585SOL    HW244748   1.722   5.589  10.888  0.8426  0.3406  1.1515
75586SOL     OW44749   7.254   8.090  11.635 -0.1289 -0.2105  0.2255
75586SOL    HW144750   7.303   8.104  11.554  2.2273 -3.5756  0.8663
75586SOL    HW244751   7.165   8.066  11.606  0.0944  0.6030 -1.2229
75587SOL     OW44752   9.412   8.604   2.916 -0.6511  0.5506  0.5269
75587SOL    HW144753   9.411   8.576   3.007 -0.8595 -0.9482  0.0904
75587SOL    HW244754   9.505   8.602   2.891 -0.7176 -0.4260  0.3203
75588SOL     OW44755   1.682   9.131   7.485  0.2291  0.2137  0.0809
75588SOL    HW144756   1.684   9.084   7.568  1.0377  1.9042  1.0523
75588SOL    HW244757   1.620   9.081   7.431 -0.6240 -0.6830  1.8174
75589SOL     OW44758   9.452   0.459  11.907 -0.3720  0.0387  0.0099
75589SOL    HW144759   9.413   0.545  11.894 -0.1526  0.0314 -0.7580
75589SOL    HW244760   9.536   0.464  11.861  0.1108 -0.2501  0.8443
75590SOL     OW44761   5.586  12.338   6.062 -0.4384  0.7160 -0.6099
75590SOL    HW144762   5.603  12.340   5.967  0.3657  0.1695 -0.4860
75590SOL    HW244763   5.666  12.373   6.101 -0.1883 -0.3927 -0.0780
75591SOL     OW44764  11.040   8.051  10.829 -0.6674 -0.1481 -0.9754
75591SOL    HW144765  10.952   8.088  10.836 -0.9409 -0.9361 -0.0291
75591SOL    HW244766  11.032   7.980  10.767 -1.2581 -1.7194  0.8060
75592SOL     OW44767   2.421   8.206   9.932 -0.1787 -0.1388 -0.4102
75592SOL    HW144768   2.441   8.116   9.959 -1.7867 -0.6874 -0.9155
75592SOL    HW244769   2.438   8.207   9.838 -0.1978  0.0605 -0.4112
75593SOL     OW44770  13.077   5.998   2.605  0.5825 -0.1588 -0.3617
75593SOL    HW144771  13.056   6.010   2.513  1.0453 -0.7135 -0.5457
75593SOL    HW244772  13.060   5.905   2.622  0.0080  0.0436  0.2477
75594SOL     OW44773   3.416  12.022   4.771  0.6350 -0.5876  0.1932
75594SOL    HW144774   3.413  11.935   4.811  0.8666 -0.8521 -0.3545
75594SOL    HW244775   3.483  12.069   4.821  0.4770 -0.7046  0.5214
75595SOL     OW44776  12.968   5.701   3.133  0.5088 -0.5572 -0.0220
75595SOL    HW144777  12.891   5.746   3.098  0.0962 -0.0876  1.4195
75595SOL    HW244778  12.992   5.638   3.065 -1.9124 -1.6035 -0.0271
75596SOL     OW44779  11.832  10.804  10.592  0.8155  0.2420 -0.8813
75596SOL    HW144780  11.900  10.764  10.647  0.4780  0.1907 -0.4968
75596SOL    HW244781  11.765  10.833  10.653 -0.1521 -0.9300 -1.3365
75597SOL     OW44782   1.494   7.016   9.327  0.2296  0.6647 -0.7253
75597SOL    HW144783   1.559   6.950   9.303 -0.9816 -0.5640 -0.7693
75597SOL    HW244784   1.428   7.010   9.258 -0.1162  1.6175 -0.4844
75598SOL     OW44785  12.541  12.912   3.918 -0.6309 -0.7640 -0.0386
75598SOL    HW144786  12.458  12.883   3.879 -0.1443 -0.9376 -0.9741
75598SOL    HW244787  12.604  12.844   3.895 -0.5399 -1.4431  2.0186
75599SOL     OW44788   8.466   0.671   7.089  0.5183  0.7587 -0.4070
75599SOL    HW144789   8.449   0.609   7.017  0.3012  1.1354 -0.6815
75599SOL    HW244790   8.547   0.639   7.130 -0.6595 -0.9330  0.7592
75600SOL     OW44791   5.908   9.819   1.138  0.0556  0.1580 -0.4633
75600SOL    HW144792   5.862   9.868   1.069 -0.5215 -0.6139 -0.6372
75600SOL    HW244793   5.847   9.821   1.213  0.4675  0.5685 -0.1328
75601SOL     OW44794   3.037   0.487   7.991  0.0283 -0.0307  0.0652
75601SOL    HW144795   2.955   0.440   8.005  0.6505 -0.7686  1.4072
75601SOL    HW244796   3.014   0.579   8.004 -1.3764  0.2369 -3.4024
75602SOL     OW44797   6.150  11.174  12.779 -0.1646 -0.4574 -0.7131
75602SOL    HW144798   6.226  11.199  12.727 -1.1537 -1.0772 -2.5438
75602SOL    HW244799   6.092  11.250  12.773  0.0862 -0.1673  0.2959
75603SOL     OW44800  12.578  11.598   5.817 -0.1341  0.2392 -0.4332
75603SOL    HW144801  12.612  11.674   5.863  0.4109 -0.1738 -0.1396
75603SOL    HW244802  12.654  11.541   5.804 -0.3331  0.1861 -1.5381
75604SOL     OW44803   7.910   9.685   6.196 -0.4470 -0.2769  0.9146
75604SOL    HW144804   7.895   9.686   6.290 -0.7691  1.7854  0.8812
75604SOL    HW244805   7.992   9.732   6.184 -1.3197  1.0681  0.0542
75605SOL     OW44806   3.408   7.349   9.624 -0.2871  0.6693  0.8082
75605SOL    HW144807   3.484   7.407   9.628 -0.9381  1.5773  0.2684
75605SOL    HW244808   3.366   7.369   9.541 -1.6112  0.8238  1.4860
75606SOL     OW44809  11.653   3.958   9.665 -0.0382  0.0224  0.0631
75606SOL    HW144810  11.650   4.018   9.591 -1.4597 -1.0203 -0.7754
75606SOL    HW244811  11.746   3.956   9.690  0.4990  0.3674 -1.7162
75607SOL     OW44812   3.872   5.373   1.315  0.4600  0.2235  0.1949
75607SOL    HW144813   3.913   5.432   1.379 -0.1266  1.8713 -0.8588
75607SOL    HW244814   3.836   5.432   1.249 -0.1631 -1.3602 -0.9392
75608SOL     OW44815  10.886  12.645   4.585 -0.7979  0.6614 -0.0969
75608SOL    HW144816  10.913  12.710   4.650 -1.6680  0.1999  0.7480
75608SOL    HW244817  10.911  12.684   4.501  2.6504  0.2167  0.5348
75609SOL     OW44818  13.232   8.811   3.358  0.1199 -0.2251 -0.3766
75609SOL    HW144819  13.238   8.823   3.263  4.1100 -2.4657 -0.6645
75609SOL    HW244820  13.269   8.891   3.394 -0.9457  0.4303 -0.6986
75610SOL     OW44821   2.378   8.443   8.371 -0.1804 -0.0541  0.4741
75610SOL    HW144822   2.391   8.387   8.294 -0.3352  0.9226 -0.2891
75610SOL    HW244823   2.453   8.503   8.370  0.2633 -0.5792  1.5800
75611SOL     OW44824  10.120   3.752   4.810  0.4814 -0.1423  0.0768
75611SOL    HW144825  10.185   3.772   4.743 -2.0393  0.0180 -2.5306
75611SOL    HW244826  10.091   3.663   4.790 -0.4150 -0.0467  0.8584
75612SOL     OW44827  11.216  10.280   8.484 -0.4790  0.7093  0.2110
75612SOL    HW144828  11.176  10.329   8.413  2.0665  0.3432 -1.6182
75612SOL    HW244829  11.267  10.345   8.533  0.4705  0.4430 -0.3911
75613SOL     OW44830  12.684   4.719   8.664 -0.6203 -0.5478  0.5161
75613SOL    HW144831  12.731   4.639   8.690 -0.1595 -0.0228  1.3201
75613SOL    HW244832  12.746   4.766   8.608 -0.8883 -0.7337  0.0508
75614SOL     OW44833  12.094  14.052   0.455 -0.2374  0.2474 -0.3080
75614SOL    HW144834  12.008  14.093   0.442  0.8453  2.9402  0.1996
75614SOL    HW244835  12.080  13.987   0.524 -2.3078 -1.1792 -1.9598
75615SOL     OW44836  11.086   0.901   7.589 -0.1660 -0.2628 -0.4545
75615SOL    HW144837  11.159   0.859   7.635 -1.3528 -0.1685  1.6252
75615SOL    HW244838  11.041   0.829   7.545 -1.2690 -1.0374  1.7942
75616SOL     OW44839  10.932   2.019  13.329 -0.0369 -0.1089 -0.7042
75616SOL    HW144840  10.935   2.018  13.425 -0.6599 -0.6701 -0.6859
75616SOL    HW244841  11.023   2.005  13.302  0.1664  0.2242 -0.1971
75617SOL     OW44842   7.147   9.544   7.985 -0.2813 -0.4666  0.2793
75617SOL    HW144843   7.131   9.609   8.054  0.7897  0.3074 -0.1653
75617SOL    HW244844   7.242   9.536   7.982 -0.3538 -1.1471 -0.5171
75618SOL     OW44845  12.470  11.794  11.206 -0.1678 -0.2878  0.8361
75618SOL    HW144846  12.467  11.889  11.196  0.8848 -0.3273  0.0455
75618SOL    HW244847  12.541  11.766  11.148  0.0095 -1.4847  1.6134
75619SOL     OW44848   3.539   8.588   1.633 -0.0356 -0.1795 -0.5031
75619SOL    HW144849   3.558   8.510   1.582 -1.3096 -0.8602  0.0240
75619SOL    HW244850   3.583   8.659   1.585 -1.0045 -0.8073 -2.4275
75620SOL     OW44851   8.027   5.425   5.857  0.5887  0.0789 -0.3470
75620SOL    HW144852   8.022   5.466   5.771  0.6919 -0.8044 -0.7805
75620SOL    HW244853   8.115   5.444   5.888  0.0725  1.6654  0.2198
75621SOL     OW44854   4.283   7.631   1.457 -1.0198  1.0336 -0.3890
75621SOL    HW144855   4.377   7.634   1.441 -0.9855  1.3973 -0.1201
75621SOL    HW244856   4.260   7.539   1.447 -0.2439  0.5482  1.7165
75622SOL     OW44857  10.723  12.469   3.100 -0.5788 -0.2077 -0.2053
75622SOL    HW144858  10.817  12.448   3.103 -0.5436 -0.1197 -0.6412
75622SOL    HW244859  10.718  12.559   3.131 -0.4770 -0.0891 -0.5279
75623SOL     OW44860   1.055  13.831   0.659 -0.6375  0.1359 -0.1781
75623SOL    HW144861   1.074  13.769   0.588  2.1669  0.2823  0.3345
75623SOL    HW244862   1.117  13.903   0.645 -0.2622  0.3455  2.1694
75624SOL     OW44863   2.606   9.361   0.859  0.3595 -0.2079  0.4635
75624SOL    HW144864   2.547   9.286   0.859  0.6260 -0.4280  1.2748
75624SOL    HW244865   2.555   9.431   0.818 -0.3924 -0.4509  0.9489
75625SOL     OW44866   7.959   7.881  10.085 -0.1333 -0.3719  0.1908
75625SOL    HW144867   8.052   7.864  10.071  0.5782  3.0553 -0.0409
75625SOL    HW244868   7.954   7.906  10.178 -0.3126  1.7000 -0.3164
75626SOL     OW44869  10.919  11.006  13.430  0.6905  0.0261  0.2528
75626SOL    HW144870  10.963  11.078  13.475  1.3106 -0.0925 -0.1488
75626SOL    HW244871  10.984  10.936  13.429  0.3808 -0.2579 -0.0819
75627SOL     OW44872   3.339  12.592  12.367 -0.2044 -0.3993  0.1735
75627SOL    HW144873   3.249  12.562  12.382  0.0941 -2.5194 -1.7397
75627SOL    HW244874   3.391  12.512  12.364  1.6513  0.7417  0.4728
75628SOL     OW44875   9.351  13.210  13.747  0.0305 -0.3813  0.0752
75628SOL    HW144876   9.428  13.212  13.691  1.1197 -1.0367  1.4736
75628SOL    HW244877   9.286  13.264  13.702  2.1388  2.3292  0.0404
75629SOL     OW44878   8.443   6.598  10.442 -0.1504  0.4466  0.6425
75629SOL    HW144879   8.495   6.673  10.412 -0.9475  1.3614  1.4679
75629SOL    HW244880   8.506   6.542  10.487  0.4932  0.5034 -0.1531
75630SOL     OW44881   4.854   4.370   7.917 -0.2859  0.2112  0.2883
75630SOL    HW144882   4.902   4.452   7.901  0.5810 -0.4748 -0.7661
75630SOL    HW244883   4.767   4.386   7.881 -0.0750  0.6169 -0.0630
75631SOL     OW44884   7.254  13.160   8.850  0.2287 -0.4130 -0.3464
75631SOL    HW144885   7.161  13.180   8.841  0.0341 -0.9407  0.3990
75631SOL    HW244886   7.279  13.123   8.765 -0.2782 -0.3854 -0.5095
75632SOL     OW44887   0.603   4.289   4.891  0.1955 -0.7270 -0.2826
75632SOL    HW144888   0.589   4.259   4.980  1.4241 -1.3036 -0.2657
75632SOL    HW244889   0.647   4.374   4.900 -3.3066  1.3048 -0.3282
75633SOL     OW44890   8.808   5.232   0.463 -0.2492  0.2966 -0.4246
75633SOL    HW144891   8.849   5.307   0.506 -2.4051  1.7030 -0.6670
75633SOL    HW244892   8.869   5.160   0.478  1.5364  1.8961  0.4955
75634SOL     OW44893   0.653  13.531   3.890 -0.4067 -0.1048  0.0509
75634SOL    HW144894   0.747  13.551   3.890 -0.0403 -1.6117  1.1532
75634SOL    HW244895   0.645  13.455   3.832 -1.3267  1.3334 -1.8031
75635SOL     OW44896  10.604   7.683  12.656 -0.4867 -0.5175 -0.1878
75635SOL    HW144897  10.577   7.768  12.692 -0.3651 -1.0522  1.2474
75635SOL    HW244898  10.566   7.681  12.569 -1.5213  0.5188  0.2058
75636SOL     OW44899   4.913  12.283   8.278  0.8229  0.8063  0.0988
75636SOL    HW144900   4.948  12.243   8.199  1.6141 -1.1847  1.3828
75636SOL    HW244901   4.850  12.347   8.247 -0.0451 -1.0084 -2.1175
75637SOL     OW44902   5.763   2.207  14.114 -0.1426  0.3398 -0.1235
75637SOL    HW144903   5.673   2.230  14.095 -0.5902 -1.6612 -0.6992
75637SOL    HW244904   5.795   2.277  14.170 -1.5219  1.9409 -1.2506
75638SOL     OW44905   3.550  10.823  13.839  0.1299 -0.3797 -0.3482
75638SOL    HW144906   3.562  10.741  13.791 -0.3718 -0.7958  0.2258
75638SOL    HW244907   3.639  10.857  13.852  0.2839 -0.4132 -1.3019
75639SOL     OW44908  10.424   4.859   0.203 -0.1199  0.2354  0.5863
75639SOL    HW144909  10.465   4.908   0.132  0.2773  2.4726  2.2337
75639SOL    HW244910  10.468   4.774   0.202  0.8007  0.6853 -0.9706
75640SOL     OW44911   2.052   4.577   5.619 -0.7277  0.0774  0.8468
75640SOL    HW144912   2.080   4.603   5.531  0.1524 -0.9262  0.8189
75640SOL    HW244913   2.063   4.656   5.672 -1.9099  0.8927 -0.0664
75641SOL     OW44914   1.934   2.401   6.233  0.1967  0.6231 -0.2516
75641SOL    HW144915   1.849   2.389   6.275  0.2402 -0.4252 -0.4474
75641SOL    HW244916   1.922   2.477   6.177 -0.1771  1.3879  0.8200
75642SOL     OW44917   3.431   8.673   7.959  0.0414 -0.3949  0.1568
75642SOL    HW144918   3.470   8.696   8.043 -0.6926  0.9770  0.1445
75642SOL    HW244919   3.416   8.757   7.916 -0.2041 -1.0484 -1.0680
75643SOL     OW44920   9.349  10.038  13.432 -0.3143  0.7491 -0.2448
75643SOL    HW144921   9.319  10.020  13.521 -1.6830  1.1696 -0.6001
75643SOL    HW244922   9.306  10.120  13.408 -0.5314  0.2747 -1.5548
75644SOL     OW44923  12.864   4.545   1.560  0.1589  0.3163  0.3004
75644SOL    HW144924  12.899   4.543   1.649  1.9448  1.1647 -0.3468
75644SOL    HW244925  12.816   4.463   1.551  0.0318  0.1654  1.9957
75645SOL     OW44926   6.020   1.149   1.701  0.0562 -0.2483  0.4055
75645SOL    HW144927   6.003   1.224   1.759 -2.2727 -1.0624  0.8758
75645SOL    HW244928   6.022   1.187   1.613 -0.3272  0.4725  0.6993
75646SOL     OW44929   3.202   1.021   2.454  0.0612 -0.3281 -0.6133
75646SOL    HW144930   3.183   0.929   2.473  0.9695 -0.6034 -0.9676
75646SOL    HW244931   3.297   1.024   2.442  0.1283  0.7859  0.0528
75647SOL     OW44932   5.369   8.146  12.827  0.1276 -0.2113  0.2329
75647SOL    HW144933   5.326   8.187  12.752  1.3731 -1.3997 -1.1796
75647SOL    HW244934   5.352   8.207  12.900 -2.3183  0.2812 -0.6300
75648SOL     OW44935   7.080   2.246  13.805 -0.0126  0.3303  0.6609
75648SOL    HW144936   6.987   2.255  13.783  0.3198  0.3243 -0.8089
75648SOL    HW244937   7.094   2.152  13.813 -0.0588  0.3151  0.5668
75649SOL     OW44938  11.168   2.502   8.199  0.1405 -0.5302  0.3396
75649SOL    HW144939  11.130   2.442   8.135 -1.2021  1.5536 -0.9427
75649SOL    HW244940  11.201   2.445   8.269  0.6387 -2.8200 -1.6400
75650SOL     OW44941   4.389  12.529   5.931 -0.1433 -0.3648  0.5463
75650SOL    HW144942   4.387  12.466   5.859  0.0106  1.1554 -0.8600
75650SOL    HW244943   4.413  12.478   6.008  1.0110 -1.8220 -0.7357
75651SOL     OW44944   9.209   9.639   3.819  1.0368  0.5642  0.5714
75651SOL    HW144945   9.131   9.692   3.834  0.8499  0.0527  1.4718
75651SOL    HW244946   9.282   9.699   3.833  0.8818  0.2294  3.3906
75652SOL     OW44947   2.000   4.628  13.701 -0.4836 -0.2301  0.4513
75652SOL    HW144948   2.037   4.710  13.670 -1.6891  0.0302 -0.3956
75652SOL    HW244949   2.003   4.570  13.625 -0.1727 -0.7815  0.8785
75653SOL     OW44950   9.392   1.583   5.977  0.0928  0.6080 -0.1320
75653SOL    HW144951   9.446   1.549   5.906 -0.5142  0.6638 -0.6236
75653SOL    HW244952   9.433   1.666   6.001 -0.9346  1.6879 -1.9078
75654SOL     OW44953   4.394   5.194   9.173 -0.0936  0.3816 -0.1561
75654SOL    HW144954   4.386   5.128   9.104  0.3798 -0.2788  0.3995
75654SOL    HW244955   4.454   5.259   9.136 -2.2185  1.6521 -1.5377
75655SOL     OW44956   5.662  10.821  10.675 -0.2467  0.1042  0.5541
75655SOL    HW144957   5.630  10.751  10.618  0.7722  0.0959 -0.0247
75655SOL    HW244958   5.602  10.894  10.659  0.4494  0.3707 -1.1485
75656SOL     OW44959   4.439  10.189  12.576  0.4713  0.2309  0.1049
75656SOL    HW144960   4.465  10.275  12.610  0.0282  0.0595  0.8753
75656SOL    HW244961   4.442  10.131  12.652 -1.1127 -0.0280 -0.0149
75657SOL     OW44962  14.153   3.569  13.044 -0.0505  0.5071  0.0513
75657SOL    HW144963  14.197   3.542  13.125 -0.4471  1.4221  0.5904
75657SOL    HW244964  14.157   3.665  13.046  0.1753  0.5397 -1.1567
75658SOL     OW44965  12.016   6.260   4.954  0.1290  0.3076 -0.3907
75658SOL    HW144966  11.983   6.301   4.874 -1.5853 -0.9571 -0.3957
75658SOL    HW244967  12.027   6.332   5.016  1.8564  1.3700 -1.8165
75659SOL     OW44968   9.947   7.073  10.265 -0.0529  0.9602  0.4256
75659SOL    HW144969   9.926   7.013  10.193 -0.5498 -0.3573  1.6221
75659SOL    HW244970   9.861   7.104  10.295  0.1956  2.2469 -0.1330
75660SOL     OW44971   5.091  10.284   4.436 -0.3966  0.2570 -0.4785
75660SOL    HW144972   5.023  10.293   4.503 -0.6418 -1.5510 -0.4516
75660SOL    HW244973   5.064  10.209   4.384 -0.1479  1.5489 -2.5871
75661SOL     OW44974   9.430   2.838  12.651  0.3760 -0.2576  0.5202
75661SOL    HW144975   9.419   2.744  12.640  3.5617 -0.5918 -0.9861
75661SOL    HW244976   9.517   2.848  12.691  0.6906  2.0134 -0.5272
75662SOL     OW44977   7.771  10.929  11.674 -0.6872 -0.6672 -0.5201
75662SOL    HW144978   7.746  10.943  11.583 -2.6238 -0.4880  0.0099
75662SOL    HW244979   7.834  10.998  11.692 -0.4403 -0.5716 -1.6463
75663SOL     OW44980   3.219  12.011   3.526 -0.1822 -0.1665  0.4545
75663SOL    HW144981   3.279  11.965   3.585 -1.6165 -0.4306  1.7642
75663SOL    HW244982   3.133  12.001   3.566 -1.0696  0.5368 -1.1688
75664SOL     OW44983   9.150  14.020  10.411  0.3291 -0.3351  0.3939
75664SOL    HW144984   9.063  14.058  10.401  0.5708  0.4217  0.9884
75664SOL    HW244985   9.148  13.977  10.497  0.2919 -1.0273  0.0511
75665SOL     OW44986   2.236   0.411   8.429 -0.1362  0.0471 -0.1690
75665SOL    HW144987   2.176   0.336   8.418 -1.4039  0.8619  0.8169
75665SOL    HW244988   2.318   0.372   8.458 -0.0620 -1.1358 -1.8136
75666SOL     OW44989   2.619   1.380   6.372  0.3119  0.3957  0.0132
75666SOL    HW144990   2.639   1.452   6.432  0.6682  0.4871 -0.2158
75666SOL    HW244991   2.524   1.371   6.377  0.5160 -1.8208  3.1890
75667SOL     OW44992  10.156  13.224   8.749  0.6138 -0.0258  0.2239
75667SOL    HW144993  10.115  13.296   8.702  0.4631 -0.0836  0.2672
75667SOL    HW244994  10.215  13.267   8.811 -1.8013  0.2308  2.5243
75668SOL     OW44995   6.272   8.158   0.948 -0.7240 -0.3586  0.1281
75668SOL    HW144996   6.307   8.220   0.884 -0.3602  0.2096  0.8710
75668SOL    HW244997   6.244   8.211   1.021  0.1119 -1.0915  1.0183
75669SOL     OW44998   0.858   8.865   9.518 -0.6701  0.5021  0.7711
75669SOL    HW144999   0.835   8.862   9.611  0.6903  1.1058  1.1600
75669SOL    HW245000   0.779   8.836   9.473 -1.3672  0.2082  2.1100
75670SOL     OW45001  12.262   8.530  11.608  0.0183  0.6409 -0.1562
75670SOL    HW145002  12.334   8.555  11.666 -0.3131 -0.5437  0.8161
75670SOL    HW245003  12.183   8.558  11.654 -0.2617 -0.5253  0.1128
75671SOL     OW45004   8.804   6.106   6.606 -0.0326  0.3085  0.1564
75671SOL    HW145005   8.774   6.152   6.684 -0.7737 -0.3021  0.2392
75671SOL    HW245006   8.898   6.125   6.602  0.2460 -0.5067  1.7958
75672SOL     OW45007   9.584   1.282   0.627 -0.1431  0.3127 -0.2149
75672SOL    HW145008   9.571   1.282   0.722  0.7219  0.7895 -0.0857
75672SOL    HW245009   9.555   1.196   0.598  2.0008 -0.8398  0.8295
75673SOL     OW45010   9.846   4.883   0.696  0.2712 -0.0294  0.0645
75673SOL    HW145011   9.939   4.887   0.720  0.1293  1.3074  0.4308
75673SOL    HW245012   9.843   4.921   0.608 -0.0240  0.5743  0.3354
75674SOL     OW45013   7.124   7.106   0.426  0.1533  0.2341  0.2668
75674SOL    HW145014   7.161   7.056   0.499 -1.3935 -1.9789 -0.3867
75674SOL    HW245015   7.198   7.117   0.365  0.3848 -1.9697  0.0856
75675SOL     OW45016   9.845   1.663   1.406 -0.8174  0.6204  0.0494
75675SOL    HW145017   9.756   1.631   1.422  0.0199 -1.8477  0.0361
75675SOL    HW245018   9.845   1.687   1.313 -1.7946  1.9268  0.3469
75676SOL     OW45019  11.598  11.399   9.920 -0.1515  0.0525 -0.1308
75676SOL    HW145020  11.686  11.385   9.955 -0.1842 -0.6819 -0.3193
75676SOL    HW245021  11.560  11.311   9.915 -0.9547  0.3720  0.0960
75677SOL     OW45022   6.223  13.323   2.081  0.1770  0.0763 -0.3199
75677SOL    HW145023   6.135  13.357   2.060 -0.0516 -0.3693 -0.0893
75677SOL    HW245024   6.280  13.366   2.018 -0.1129  0.8612 -0.0667
75678SOL     OW45025   0.265  12.094  12.826 -0.5142 -0.3335 -0.2923
75678SOL    HW145026   0.329  12.026  12.844 -1.1524 -0.9146 -0.1518
75678SOL    HW245027   0.274  12.112  12.732 -0.9351 -1.2464 -0.5156
75679SOL     OW45028  10.664   7.580  11.129  0.2285  0.4523  0.5086
75679SOL    HW145029  10.576   7.557  11.158 -0.2633  2.4459  0.7557
75679SOL    HW245030  10.661   7.674  11.115  1.3854  0.1030 -2.8612
75680SOL     OW45031   9.568  10.570   4.073 -0.3306 -0.3669 -0.5593
75680SOL    HW145032   9.500  10.537   4.132 -0.9525  1.4911 -0.1673
75680SOL    HW245033   9.649  10.561   4.123 -0.4753 -1.1979 -0.4496
75681SOL     OW45034  13.502   8.569   6.193  0.1288  0.2357 -0.9894
75681SOL    HW145035  13.523   8.494   6.137  2.2820  0.8107 -1.0119
75681SOL    HW245036  13.570   8.633   6.173  0.9466  0.5025  2.2313
75682SOL     OW45037   4.759   2.028   9.911  0.1073 -0.2097 -0.0678
75682SOL    HW145038   4.761   1.933   9.923  0.9559 -0.2024 -0.0970
75682SOL    HW245039   4.673   2.055   9.943 -0.1091 -0.9831  0.0007
75683SOL     OW45040   0.963  11.104   7.395 -0.2411  0.3206  0.5901
75683SOL    HW145041   1.034  11.100   7.331 -0.6296  0.5822  0.1407
75683SOL    HW245042   0.883  11.094   7.343 -0.4944 -1.4115  1.2363
75684SOL     OW45043   0.791   0.323   8.247 -0.8228 -0.3228 -0.1373
75684SOL    HW145044   0.780   0.384   8.320  0.2178 -0.0609 -0.1869
75684SOL    HW245045   0.786   0.377   8.169 -0.3017 -0.3575 -0.1969
75685SOL     OW45046  11.573   8.340   2.136 -0.0503 -0.5673 -0.1320
75685SOL    HW145047  11.554   8.429   2.166  1.0182  0.2817 -1.8116
75685SOL    HW245048  11.665   8.326   2.159 -0.0856 -1.0709 -0.2759
75686SOL     OW45049   1.856   6.190   5.773  0.5909  0.6123  0.3847
75686SOL    HW145050   1.779   6.189   5.829 -0.3824 -0.2314 -0.9056
75686SOL    HW245051   1.821   6.195   5.684  2.0818  1.8353 -0.1821
75687SOL     OW45052  11.262   3.197   8.122  0.3676  0.0389 -0.0500
75687SOL    HW145053  11.234   3.107   8.104  0.2758  0.6489 -3.5874
75687SOL    HW245054  11.233   3.213   8.212 -3.8049 -1.9121 -0.8139
75688SOL     OW45055   4.026   3.434  13.250  0.0316  0.1971 -0.2862
75688SOL    HW145056   4.041   3.477  13.166 -0.5649  0.7432 -0.1221
75688SOL    HW245057   4.031   3.505  13.314 -0.6689 -0.0251  0.0177
75689SOL     OW45058   4.811  10.844   4.133 -1.0099 -0.0276 -0.1471
75689SOL    HW145059   4.746  10.791   4.085 -0.2137 -1.8259  0.6891
75689SOL    HW245060   4.780  10.844   4.223  0.0809 -0.8475  0.2500
75690SOL     OW45061   4.145   9.431   5.105 -0.1777 -0.7405 -0.3861
75690SOL    HW145062   4.113   9.365   5.167 -0.8398 -0.0080  0.0763
75690SOL    HW245063   4.165   9.382   5.025 -0.9936 -1.4500 -0.1641
75691SOL     OW45064  11.880   5.366   0.343  0.0984  0.4801 -0.3019
75691SOL    HW145065  11.940   5.418   0.397  0.7934  1.3503 -1.8416
75691SOL    HW245066  11.822   5.431   0.303 -0.1159 -0.0945 -0.9451
75692SOL     OW45067   7.541  10.052   1.241  0.5361 -0.2092 -0.1881
75692SOL    HW145068   7.510  10.117   1.305 -0.6337 -0.1768 -0.7554
75692SOL    HW245069   7.546  10.100   1.158 -2.2764 -1.2129 -1.0558
75693SOL     OW45070   9.881   4.025   7.175  0.1066  0.0810  0.6211
75693SOL    HW145071   9.839   4.040   7.261  2.4670  2.5386  1.4995
75693SOL    HW245072   9.848   4.097   7.121  0.6889  0.1339  0.3347
75694SOL     OW45073   7.326   2.374   3.756 -0.3665  0.0170 -0.4753
75694SOL    HW145074   7.406   2.425   3.747  0.2872 -0.3219  2.3152
75694SOL    HW245075   7.323   2.319   3.679  0.9296  1.5490 -1.6920
75695SOL     OW45076  10.432   4.103   1.088  0.1320 -0.0236  0.4029
75695SOL    HW145077  10.408   4.179   1.140 -1.7679  0.0627 -0.5217
75695SOL    HW245078  10.457   4.139   1.003  0.1129 -0.3729  0.2486
75696SOL     OW45079   8.526   1.372   0.160 -0.1756 -0.6287  0.3951
75696SOL    HW145080   8.469   1.448   0.152 -0.5395 -0.7522  1.7425
75696SOL    HW245081   8.610   1.408   0.190 -0.0471 -0.6495  0.0660
75697SOL     OW45082   0.700  11.073  11.035  0.3659  0.2455  0.0650
75697SOL    HW145083   0.725  11.155  10.993  1.1051  0.3574  0.7105
75697SOL    HW245084   0.658  11.022  10.965  2.4850 -0.0014 -1.1118
75698SOL     OW45085   3.192   9.610   7.302 -0.5421 -0.2112  0.3213
75698SOL    HW145086   3.241   9.686   7.271  0.1006 -1.3043 -1.4439
75698SOL    HW245087   3.106   9.645   7.326  0.3243  1.3491  1.2918
75699SOL     OW45088   1.943  11.469   6.407 -0.0488  0.3575 -0.2493
75699SOL    HW145089   1.916  11.377   6.401  1.8316 -0.2376 -0.3001
75699SOL    HW245090   1.873  11.518   6.365 -0.2055 -1.2356 -1.9654
75700SOL     OW45091   2.405   5.446   9.589  0.2695 -0.1704 -0.7149
75700SOL    HW145092   2.336   5.430   9.654  0.1054 -2.1597 -1.3159
75700SOL    HW245093   2.359   5.443   9.505  1.2466 -3.2484 -1.2460
75701SOL     OW45094  12.274   3.902  11.459 -0.5777  0.5360 -0.2286
75701SOL    HW145095  12.256   3.994  11.477  1.7926  0.8892  0.6903
75701SOL    HW245096  12.216   3.854  11.519 -0.9467  1.4539  0.1632
75702SOL     OW45097  12.868   8.972   5.918  0.0439  0.1549  0.5242
75702SOL    HW145098  12.888   9.016   5.835  0.6420 -0.0792  0.5370
75702SOL    HW245099  12.781   9.004   5.942  0.7360  1.8846  0.8891
75703SOL     OW45100  12.378   2.354  14.119 -0.2857 -0.4570  0.0616
75703SOL    HW145101  12.379   2.450  14.123 -2.5381 -0.3985  1.7227
75703SOL    HW245102  12.332   2.334  14.038 -1.5495 -0.0481  0.6527
75704SOL     OW45103   2.234   7.451   2.245 -1.0549  0.3758  0.2055
75704SOL    HW145104   2.181   7.517   2.291 -1.2796  0.7392 -0.5690
75704SOL    HW245105   2.222   7.470   2.152 -0.0406  0.0894 -0.0002
75705SOL     OW45106   1.129   9.102   4.165  0.9236  0.5172  0.4277
75705SOL    HW145107   1.073   9.051   4.223  0.3160  1.3519  0.5853
75705SOL    HW245108   1.214   9.104   4.211  1.0816 -0.6692  0.2252
75706SOL     OW45109   3.888   3.986   2.328  0.0649  0.1626  0.2142
75706SOL    HW145110   3.861   4.030   2.249  2.3775  1.4982  0.0716
75706SOL    HW245111   3.835   3.906   2.331 -1.1809  0.8547 -1.8016
75707SOL     OW45112  12.948   7.516   8.613 -0.2909  0.2312  0.3384
75707SOL    HW145113  12.867   7.524   8.562 -0.9478  0.8097  1.4336
75707SOL    HW245114  12.945   7.427   8.649  0.0444 -0.0858 -0.4087
75708SOL     OW45115   7.290   5.104   5.473 -0.0163  0.9184  0.1271
75708SOL    HW145116   7.317   5.016   5.497 -2.0126  0.2855  0.1773
75708SOL    HW245117   7.240   5.136   5.548 -1.1862  1.2283 -0.7538
75709SOL     OW45118   8.881   7.220   3.870 -0.3001 -0.4564 -0.3430
75709SOL    HW145119   8.922   7.184   3.948  0.1976  1.4712  0.3390
75709SOL    HW245120   8.841   7.303   3.899 -0.6598 -0.0129 -1.9798
75710SOL     OW45121   7.712   8.501  10.119  0.4154  0.7857 -0.5013
75710SOL    HW145122   7.686   8.573  10.177 -0.8122  0.2333 -0.3433
75710SOL    HW245123   7.785   8.459  10.165  1.2108  1.9557 -0.6370
75711SOL     OW45124   3.992  10.410  12.921 -0.1170 -0.3541  0.5421
75711SOL    HW145125   4.049  10.469  12.971  0.0140 -0.5687  0.6459
75711SOL    HW245126   4.048  10.335  12.900  0.0633  0.0786 -0.5877
75712SOL     OW45127  10.329   1.257   6.126 -0.3589  0.1259 -0.1659
75712SOL    HW145128  10.354   1.169   6.099  2.8167  0.8807 -0.1246
75712SOL    HW245129  10.371   1.269   6.211 -0.3650  1.8035 -0.3651
75713SOL     OW45130   0.201   6.000   7.382 -0.4010 -0.0741 -1.1253
75713SOL    HW145131   0.198   5.945   7.460 -0.2361  1.0560 -0.2857
75713SOL    HW245132   0.127   5.970   7.328 -2.4838  1.1000  0.8861
75714SOL     OW45133  13.914   2.003   5.059  0.2959 -0.2410  0.4240
75714SOL    HW145134  13.910   1.915   5.097  0.3419  0.5654  2.4456
75714SOL    HW245135  13.895   1.990   4.966 -3.0487 -2.0448  1.1808
75715SOL     OW45136   8.438   1.697   1.056 -0.2109  0.5596  0.3108
75715SOL    HW145137   8.522   1.723   1.018 -0.5342  2.7990  0.9674
75715SOL    HW245138   8.452   1.607   1.087  2.0420  0.9708  0.6499
75716SOL     OW45139  12.538   1.411  10.031  0.2775  0.4662 -0.0006
75716SOL    HW145140  12.478   1.380  10.098  1.9393  1.3914  2.0180
75716SOL    HW245141  12.608   1.345  10.029  0.4197  0.6227 -0.6027
75717SOL     OW45142   2.376   5.396  13.726 -1.1566  0.6250  0.3882
75717SOL    HW145143   2.398   5.487  13.748  0.3390  0.0902  1.2331
75717SOL    HW245144   2.438   5.373  13.656 -0.8530 -0.0429  0.8671
75718SOL     OW45145   3.486   3.262   5.693  0.2027  0.2279 -0.1513
75718SOL    HW145146   3.431   3.277   5.616 -1.0144  0.0305  0.6468
75718SOL    HW245147   3.473   3.341   5.747  0.2440 -0.0740  0.3033
75719SOL     OW45148  12.839  12.415   5.364 -0.0017  0.1739 -0.8582
75719SOL    HW145149  12.807  12.383   5.449  0.2967 -0.4982 -0.9900
75719SOL    HW245150  12.760  12.430   5.313 -0.1534 -0.9853 -1.0059
75720SOL     OW45151   4.446  11.864   1.315 -0.5339  0.2611 -0.4980
75720SOL    HW145152   4.462  11.780   1.271  1.8323 -0.3826  1.3687
75720SOL    HW245153   4.527  11.913   1.304 -0.2408  0.4908  2.1563
75721SOL     OW45154   0.862   3.594  10.513 -0.1458  0.2770 -0.2028
75721SOL    HW145155   0.836   3.672  10.562  1.7166  1.2048 -0.5793
75721SOL    HW245156   0.860   3.524  10.578 -0.8777  0.8333  0.3991
75722SOL     OW45157   9.357  10.803   5.445  0.4267 -0.9524  0.3424
75722SOL    HW145158   9.267  10.794   5.415  1.3531 -0.0107 -3.1576
75722SOL    HW245159   9.390  10.714   5.449  0.0075 -1.1674 -0.7245
75723SOL     OW45160   3.607  12.660   2.211  0.1617  0.2313  0.4398
75723SOL    HW145161   3.638  12.601   2.280 -0.2839  0.3449  0.7392
75723SOL    HW245162   3.513  12.669   2.227  0.2761  1.2807  0.5911
75724SOL     OW45163   9.639   3.846  12.549 -0.6423 -0.2537 -0.1435
75724SOL    HW145164   9.561   3.843  12.604 -0.0805 -0.3439  0.6647
75724SOL    HW245165   9.608   3.881  12.466 -1.9370 -2.1549 -0.5273
75725SOL     OW45166   6.249   2.511   9.262  0.5224  0.3462 -0.3027
75725SOL    HW145167   6.335   2.476   9.237  0.3360 -0.2683 -0.0949
75725SOL    HW245168   6.234   2.477   9.350  0.0433  0.4073 -0.3573
75726SOL     OW45169  14.140   3.662  14.104  0.2892 -0.1003 -0.6102
75726SOL    HW145170  14.067   3.600  14.113  0.6504 -0.5707 -0.8663
75726SOL    HW245171  14.211   3.609  14.067  0.3372  0.6657 -1.6431
75727SOL     OW45172   4.630   6.638   1.317 -0.2234  0.0599 -0.1191
75727SOL    HW145173   4.566   6.709   1.312 -1.5407 -1.1171 -0.6838
75727SOL    HW245174   4.694   6.659   1.249 -1.5071 -0.1168 -1.4393
75728SOL     OW45175   4.567  11.772  12.609  0.6442  0.5403 -0.0240
75728SOL    HW145176   4.659  11.755  12.631  0.5441 -0.9689 -0.6304
75728SOL    HW245177   4.569  11.855  12.562  1.5921  0.9041  0.6305
75729SOL     OW45178   6.311   1.710   0.197  0.1984 -0.5242 -0.2505
75729SOL    HW145179   6.231   1.678   0.240  1.1618 -1.1743  1.1422
75729SOL    HW245180   6.320   1.654   0.119 -0.4656 -0.7270 -0.1929
75730SOL     OW45181   4.486  10.803   1.432  0.1585  0.2992  0.2297
75730SOL    HW145182   4.443  10.836   1.511  1.0119  0.6636  0.5459
75730SOL    HW245183   4.429  10.732   1.402 -0.3707  0.4083  0.9527
75731SOL     OW45184   1.462   5.281   9.197 -0.5278 -0.0193  0.2930
75731SOL    HW145185   1.458   5.186   9.197  0.3523 -0.0652  1.1416
75731SOL    HW245186   1.531   5.302   9.134  1.0989 -0.0619  1.9923
75732SOL     OW45187  13.298   8.995   5.753 -0.3312  0.2733  0.8480
75732SOL    HW145188  13.256   9.032   5.675 -0.1800  0.1198  0.6937
75732SOL    HW245189  13.244   8.920   5.775  1.9476 -2.3412 -1.6363
75733SOL     OW45190   1.893   5.229   2.124 -0.0507 -0.1444  0.2158
75733SOL    HW145191   1.811   5.251   2.080  0.3885  1.5126  0.1717
75733SOL    HW245192   1.873   5.148   2.172 -1.7665  0.3331  0.3759
75734SOL     OW45193  13.720  13.439   5.436  0.1769  0.1274  0.5334
75734SOL    HW145194  13.660  13.424   5.363  1.0835  0.6963 -0.3489
75734SOL    HW245195  13.728  13.535   5.441  1.2814  0.0518  0.3973
75735SOL     OW45196   0.946   4.587  12.961 -0.3596  0.4677 -0.2931
75735SOL    HW145197   1.017   4.647  12.939 -0.7931  0.8267 -0.7304
75735SOL    HW245198   0.892   4.635  13.023 -1.0804  0.8064 -1.1572
75736SOL     OW45199  12.599   9.881   3.337 -0.2315 -0.2515  0.6466
75736SOL    HW145200  12.555   9.817   3.281  0.2111 -0.8699  1.0035
75736SOL    HW245201  12.576   9.855   3.426 -1.7070  1.2787  0.7562
75737SOL     OW45202  10.098   8.939   3.168  0.0996 -0.2057 -0.3370
75737SOL    HW145203  10.007   8.968   3.166 -0.4468 -1.5809 -4.6721
75737SOL    HW245204  10.101   8.875   3.240 -2.1041  0.5144  0.4719
75738SOL     OW45205   8.018   4.830   1.659  0.6532 -0.3162  0.2138
75738SOL    HW145206   8.080   4.858   1.591 -0.1379 -0.6996 -0.6869
75738SOL    HW245207   8.058   4.752   1.697  0.4821 -0.9090 -0.7635
75739SOL     OW45208   5.736   0.747   6.858  0.0252  0.4374  0.2570
75739SOL    HW145209   5.640   0.746   6.863  0.0581  1.2200  1.3917
75739SOL    HW245210   5.758   0.669   6.808 -1.2116  0.2682 -0.0565
75740SOL     OW45211   5.040   7.313   1.643 -0.2370 -0.0320 -0.1636
75740SOL    HW145212   5.012   7.395   1.603 -0.5995 -0.7138 -1.3544
75740SOL    HW245213   5.128   7.297   1.607  1.4192  1.5766  2.7659
75741SOL     OW45214   2.882  11.598   4.456 -0.0306 -0.0894 -0.6900
75741SOL    HW145215   2.793  11.617   4.426  0.3410  0.1164 -1.7000
75741SOL    HW245216   2.874  11.513   4.500 -1.3045  1.3115  2.0281
75742SOL     OW45217   6.787  12.374   8.588 -0.3233 -0.0117 -0.4044
75742SOL    HW145218   6.735  12.294   8.591 -0.9201  0.3434 -0.9913
75742SOL    HW245219   6.790  12.405   8.678  0.0477 -0.7800 -0.1484
75743SOL     OW45220   4.508  11.152  10.871  0.0258 -0.5034  0.4842
75743SOL    HW145221   4.442  11.221  10.860  0.8176  0.0551 -1.0095
75743SOL    HW245222   4.585  11.185  10.825  0.8229 -1.8535  0.8064
75744SOL     OW45223  13.423  10.248   7.273 -0.2868  0.2269  0.2742
75744SOL    HW145224  13.459  10.191   7.341  0.4716  0.4850  0.0974
75744SOL    HW245225  13.396  10.327   7.320 -0.7663 -0.0238  0.4275
75745SOL     OW45226   4.044  10.460   6.105 -0.1481 -0.4505 -0.0204
75745SOL    HW145227   4.116  10.500   6.056 -0.6631  0.4610 -0.0523
75745SOL    HW245228   3.978  10.439   6.039 -0.0929 -0.8819  0.0615
75746SOL     OW45229  10.967  10.795   2.570 -0.1752 -0.1128  0.1200
75746SOL    HW145230  11.052  10.802   2.614 -0.0550 -1.5286  0.1611
75746SOL    HW245231  10.985  10.818   2.479 -0.1136  1.2863  0.4657
75747SOL     OW45232   2.660   0.574   8.713 -0.3886 -0.1315 -0.4169
75747SOL    HW145233   2.664   0.621   8.630  1.1177  1.5258  0.5240
75747SOL    HW245234   2.601   0.627   8.767  1.5907  0.9408  0.7732
75748SOL     OW45235   3.083   0.638   9.973  0.4713  0.1750 -0.2374
75748SOL    HW145236   3.007   0.695   9.962  0.2325 -0.3608 -1.5409
75748SOL    HW245237   3.054   0.553   9.942  2.2280  0.4701 -3.0233
75749SOL     OW45238   4.684   7.785   0.581 -0.5448  0.0730 -0.2575
75749SOL    HW145239   4.722   7.735   0.653 -0.0406 -0.7878 -1.0967
75749SOL    HW245240   4.607   7.828   0.620  0.0863  0.1650  0.9457
75750SOL     OW45241   5.590  10.471   8.516  0.5779  0.1503  0.5501
75750SOL    HW145242   5.515  10.413   8.531  0.6878  0.3396  2.0384
75750SOL    HW245243   5.662  10.413   8.492 -0.8752  0.1833 -5.3340
75751SOL     OW45244   0.603  11.276   5.155 -0.1938  0.6460 -0.1383
75751SOL    HW145245   0.652  11.196   5.172  1.0889  1.6106  0.9118
75751SOL    HW245246   0.524  11.246   5.110  0.5717 -1.1227 -0.4010
75752SOL     OW45247   5.419   4.844  11.425 -0.0526  0.5001 -0.3684
75752SOL    HW145248   5.460   4.846  11.511  0.4163 -0.5280 -0.5535
75752SOL    HW245249   5.489   4.869  11.365 -0.1850  0.5137 -0.5185
75753SOL     OW45250  11.713   3.881   6.542 -0.2872 -0.4342  0.4223
75753SOL    HW145251  11.783   3.932   6.502 -0.2902 -0.6004  0.2029
75753SOL    HW245252  11.695   3.810   6.479 -1.1364  0.0090  0.1447
75754SOL     OW45253   3.708   5.174   6.170  0.1185 -0.0078  0.5278
75754SOL    HW145254   3.739   5.241   6.230  1.8331  1.4900 -1.8568
75754SOL    HW245255   3.765   5.181   6.094 -1.0824 -2.6962 -0.7640
75755SOL     OW45256   2.023   8.360  11.560  0.1487  0.8435 -0.5807
75755SOL    HW145257   1.962   8.403  11.500 -0.3419  0.5799 -0.2755
75755SOL    HW245258   2.081   8.431  11.590  0.2406  1.0218 -1.1644
75756SOL     OW45259   2.274   4.823   8.673  0.0537  0.3012 -0.8260
75756SOL    HW145260   2.297   4.913   8.698 -2.0943  0.2769  1.6695
75756SOL    HW245261   2.191   4.806   8.718 -0.1751 -2.5841 -2.1106
75757SOL     OW45262   3.948   9.544   2.950  0.1984 -0.4167 -0.4023
75757SOL    HW145263   4.020   9.483   2.969  0.6616 -0.1191 -1.1273
75757SOL    HW245264   3.872   9.487   2.940  0.7881 -1.0153 -1.9385
75758SOL     OW45265  14.023   8.195   1.307  0.4875  0.1537 -0.1198
75758SOL    HW145266  14.105   8.234   1.336  0.2340  1.7445 -1.3749
75758SOL    HW245267  13.955   8.251   1.344  0.0816  0.4406 -1.2451
75759SOL     OW45268   1.616  13.414   0.812 -0.4021  0.0265  0.5186
75759SOL    HW145269   1.638  13.507   0.824 -0.7422 -0.0098  1.4432
75759SOL    HW245270   1.700  13.369   0.820  0.0879  0.3801 -1.7652
75760SOL     OW45271   2.746  13.602  12.724 -0.3393 -0.2672  0.4292
75760SOL    HW145272   2.781  13.596  12.635  0.3991 -0.0985  0.6974
75760SOL    HW245273   2.779  13.523  12.767 -1.1050 -0.6014  0.4228
75761SOL     OW45274   4.037  13.297   4.693  0.4013  0.0833  0.4733
75761SOL    HW145275   4.078  13.213   4.716  1.6381  0.3606 -0.5874
75761SOL    HW245276   4.110  13.360   4.694 -0.2582  0.8712 -0.0877
75762SOL     OW45277   8.661   9.346   0.889  0.1455 -0.5887 -0.4769
75762SOL    HW145278   8.620   9.429   0.914 -2.8831 -1.5894 -1.6957
75762SOL    HW245279   8.639   9.286   0.960  0.6263 -0.8562 -0.5491
75763SOL     OW45280   1.226  13.565   3.817 -0.3109 -0.0612 -0.3238
75763SOL    HW145281   1.299  13.625   3.832 -0.9660  0.7927 -0.4795
75763SOL    HW245282   1.250  13.518   3.737 -0.4207  1.0060 -1.0041
75764SOL     OW45283   9.867  10.451  11.482 -0.1217 -0.2417 -0.3098
75764SOL    HW145284   9.793  10.405  11.443 -1.1637 -2.0501  3.3667
75764SOL    HW245285   9.943  10.417  11.434 -1.1844 -3.1168 -0.1994
75765SOL     OW45286  10.483   2.951   8.051 -0.1505  0.4296  0.0583
75765SOL    HW145287  10.471   2.942   8.145 -1.9476  2.0313  0.0498
75765SOL    HW245288  10.492   2.862   8.019 -1.1670 -0.2462  1.5495
75766SOL     OW45289   8.472   4.222   0.816 -0.4897  0.5249  0.2165
75766SOL    HW145290   8.485   4.128   0.821 -0.0816  0.4701 -1.4106
75766SOL    HW245291   8.381   4.233   0.791 -0.5833  0.5771  0.5707
75767SOL     OW45292  10.804   4.378   2.223 -0.0947 -0.1605  0.4439
75767SOL    HW145293  10.860   4.381   2.146 -1.7634  0.3595 -0.8096
75767SOL    HW245294  10.795   4.470   2.249  0.1131 -0.2982  1.0125
75768SOL     OW45295   3.932  11.703  13.036  0.1170  0.1808  0.1497
75768SOL    HW145296   3.962  11.677  12.949  0.5936  2.9882 -0.6301
75768SOL    HW245297   3.980  11.646  13.096  0.1464 -1.4766 -1.3738
75769SOL     OW45298  10.371   1.331   8.521 -0.0037  0.1475 -0.1116
75769SOL    HW145299  10.349   1.299   8.609 -0.1590  0.8016  0.0985
75769SOL    HW245300  10.445   1.277   8.493 -0.0551 -0.1712  0.3587
75770SOL     OW45301   3.952   9.011  10.842  0.0021 -0.2777  0.4333
75770SOL    HW145302   3.988   8.985  10.926  1.3532  0.0322 -0.0351
75770SOL    HW245303   4.027   9.036  10.789 -0.8301 -0.3096 -0.8246
75771SOL     OW45304   9.862   2.033   9.530 -0.1389  0.6112 -0.1109
75771SOL    HW145305   9.793   1.986   9.484 -0.2245  1.5789 -1.0055
75771SOL    HW245306   9.835   2.125   9.527  1.2459  1.0311 -0.6420
75772SOL     OW45307  13.656   7.074   9.119  0.0321  0.0980 -0.5923
75772SOL    HW145308  13.668   7.162   9.082 -1.8479 -0.4223 -2.6824
75772SOL    HW245309  13.562   7.069   9.138  0.3853 -0.9301  1.0495
75773SOL     OW45310   9.699   6.058   8.111 -0.0647  0.1209 -0.4034
75773SOL    HW145311   9.725   6.150   8.112  1.7634 -0.3447  0.4912
75773SOL    HW245312   9.616   6.056   8.063 -2.5370  2.8389  3.2260
75774SOL     OW45313  13.586   1.901  12.795 -0.3142 -0.4178 -0.4683
75774SOL    HW145314  13.561   1.816  12.759  1.9002 -1.1418 -0.4406
75774SOL    HW245315  13.508   1.930  12.842 -1.2550 -2.2609 -0.7668
75775SOL     OW45316   5.078  10.944   4.417 -0.7551  0.1873 -0.4739
75775SOL    HW145317   5.095  10.920   4.326 -0.0096  1.3887 -0.6816
75775SOL    HW245318   5.003  11.003   4.414 -1.6520 -0.9026 -0.1313
75776SOL     OW45319  14.146   7.652  11.457  0.0654 -0.6036  0.2923
75776SOL    HW145320  14.084   7.597  11.409  0.2775 -1.1288  0.6150
75776SOL    HW245321  14.225   7.654  11.401  0.2933 -1.1711  0.5860
75777SOL     OW45322   6.236   4.559  12.507 -0.0379  0.5765  0.5200
75777SOL    HW145323   6.223   4.529  12.417  0.6773 -0.1255  0.6403
75777SOL    HW245324   6.170   4.628  12.519  0.7310  1.6105 -0.9580
75778SOL     OW45325   0.569  11.103  13.600 -0.9850  0.0471 -0.3594
75778SOL    HW145326   0.554  11.018  13.558 -1.6027 -0.9759  1.7984
75778SOL    HW245327   0.482  11.143  13.606 -0.9576  0.0116  0.2917
75779SOL     OW45328   6.713   2.952   3.437  0.1220  0.5052  0.2220
75779SOL    HW145329   6.625   2.982   3.459  0.0858 -0.7139  1.9323
75779SOL    HW245330   6.708   2.930   3.344 -0.4036  3.6152 -0.6032
75780SOL     OW45331  11.788   5.159  11.785  0.1527 -0.0980  0.0875
75780SOL    HW145332  11.856   5.160  11.852  0.3037 -0.2327 -0.0623
75780SOL    HW245333  11.791   5.070  11.750 -0.1337 -0.1193  0.1153
75781SOL     OW45334   7.400   6.015   7.896 -0.0763 -0.9272  0.8495
75781SOL    HW145335   7.471   6.050   7.842 -1.4658  2.2218  0.8032
75781SOL    HW245336   7.354   5.955   7.838  1.2391 -1.3181  0.1572
75782SOL     OW45337   8.248   5.965   1.136  0.2840  0.1964 -0.2281
75782SOL    HW145338   8.292   5.897   1.185  0.4707 -0.0420 -0.7227
75782SOL    HW245339   8.310   5.991   1.068 -1.0265 -1.5242 -2.1930
75783SOL     OW45340   4.641   0.489   3.866 -0.4282 -0.1329  0.2160
75783SOL    HW145341   4.653   0.583   3.854 -1.1534  0.1460  1.4862
75783SOL    HW245342   4.729   0.456   3.885 -0.2442  0.3599  0.2498
75784SOL     OW45343   2.430   9.616  12.973 -0.0400 -0.1361 -0.2956
75784SOL    HW145344   2.416   9.685  12.908 -0.1744  0.4614  0.3573
75784SOL    HW245345   2.394   9.537  12.933  2.0019 -0.3059 -1.9459
75785SOL     OW45346  13.316   3.141   7.148  0.1792  0.1195 -0.2804
75785SOL    HW145347  13.336   3.074   7.083  0.6978  0.6405 -0.6707
75785SOL    HW245348  13.278   3.214   7.098  1.4283  0.8920 -0.1645
75786SOL     OW45349   9.605   0.116   4.220 -0.2899 -0.3041 -0.3460
75786SOL    HW145350   9.603   0.203   4.180 -0.6929 -1.3718 -2.8128
75786SOL    HW245351   9.516   0.083   4.210 -0.1017 -1.0696  0.4282
75787SOL     OW45352   5.654   3.060   7.310  0.4677 -0.4173 -0.0158
75787SOL    HW145353   5.617   3.097   7.390 -1.0988  0.0135 -0.9087
75787SOL    HW245354   5.586   3.000   7.278  1.8249 -1.9936 -0.0635
75788SOL     OW45355   1.135   1.571  14.046  0.7258  0.3341 -0.4486
75788SOL    HW145356   1.152   1.523  13.965 -1.1569 -1.6792  0.2677
75788SOL    HW245357   1.044   1.600  14.038  0.7890  0.8538  0.5916
75789SOL     OW45358   2.772   8.300   1.935  0.1458 -0.3060 -0.2128
75789SOL    HW145359   2.783   8.206   1.948  0.8807 -0.0595  1.1405
75789SOL    HW245360   2.842   8.340   1.987  0.0351  0.9853 -1.0074
75790SOL     OW45361   4.666  12.790  13.198  0.2466 -0.0598 -0.2769
75790SOL    HW145362   4.761  12.801  13.204  0.3657 -1.1072  0.0583
75790SOL    HW245363   4.644  12.820  13.109  0.6969  1.3378  0.0600
75791SOL     OW45364   1.775   0.590  11.060 -0.0191 -0.2816  0.3505
75791SOL    HW145365   1.694   0.641  11.059  1.0541  1.5421  1.6100
75791SOL    HW245366   1.773   0.541  10.978 -2.1682  0.0705  0.1378
75792SOL     OW45367   2.436  10.744   1.953 -0.0431  0.1894 -0.2999
75792SOL    HW145368   2.493  10.675   1.918  0.3551 -0.0926  0.8742
75792SOL    HW245369   2.418  10.800   1.877  0.9319 -0.3112 -0.9281
75793SOL     OW45370  13.546   7.664   7.108 -0.1180 -0.2939  0.0736
75793SOL    HW145371  13.477   7.720   7.143 -0.8549 -1.2972  0.2679
75793SOL    HW245372  13.627   7.711   7.128 -0.7518  1.4277 -1.0641
75794SOL     OW45373   1.122  11.345   8.926 -1.2716 -0.8313 -0.1158
75794SOL    HW145374   1.093  11.266   8.974  1.3040 -1.8415 -0.0685
75794SOL    HW245375   1.041  11.390   8.904 -2.7802 -2.7184  1.1905
75795SOL     OW45376  11.752   7.818   4.224  0.1584  0.0495 -0.1744
75795SOL    HW145377  11.847   7.818   4.237  0.1692  0.7729 -0.2257
75795SOL    HW245378  11.717   7.855   4.304 -0.0547  0.2175 -0.3448
75796SOL     OW45379  10.140   7.487   4.390  0.0279 -0.5390  0.3451
75796SOL    HW145380  10.121   7.524   4.476 -0.8690 -0.2965  0.0515
75796SOL    HW245381  10.094   7.543   4.329  0.2512 -1.0021 -0.2612
75797SOL     OW45382  11.136   8.081   5.750  0.1362 -0.2241 -0.1267
75797SOL    HW145383  11.155   7.990   5.729 -0.5915 -0.0365 -1.7177
75797SOL    HW245384  11.113   8.121   5.666 -2.7310  0.6531  0.9606
75798SOL     OW45385  12.961   0.927   0.166 -0.4300  0.0203 -0.4477
75798SOL    HW145386  13.003   0.853   0.121 -0.5496  0.3052 -1.0346
75798SOL    HW245387  12.946   0.895   0.255 -2.2200 -1.3513 -1.1910
75799SOL     OW45388   9.538   4.141   1.409 -0.3732  0.2030 -0.5974
75799SOL    HW145389   9.514   4.228   1.441 -1.4922  0.8605 -3.0036
75799SOL    HW245390   9.625   4.153   1.370 -0.2804  0.0918 -0.4278
75800SOL     OW45391  12.319  10.199  13.107 -0.3922 -0.2259  0.0300
75800SOL    HW145392  12.294  10.191  13.015 -0.1577 -0.8316  0.0115
75800SOL    HW245393  12.412  10.175  13.108 -0.4994 -0.6147  0.4859
75801SOL     OW45394  11.174  11.275   7.687 -0.5231 -0.7675  0.2866
75801SOL    HW145395  11.079  11.264   7.676 -0.2845 -1.7482 -1.0566
75801SOL    HW245396  11.195  11.354   7.637 -0.6348 -0.4883  0.6733
75802SOL     OW45397  11.901   8.817   6.289  0.1693 -0.3301  0.1257
75802SOL    HW145398  11.910   8.835   6.196 -0.7909 -4.9375 -1.0607
75802SOL    HW245399  11.863   8.898   6.325  0.0617  1.4287 -3.4737
75803SOL     OW45400   9.253   9.445  11.276  0.0304 -0.0664 -0.0402
75803SOL    HW145401   9.232   9.378  11.210 -2.0763  0.4299  0.0746
75803SOL    HW245402   9.197   9.519  11.254  1.0548  1.0344  0.8975
75804SOL     OW45403   1.219  12.230   3.521  0.2866 -0.0909 -0.1998
75804SOL    HW145404   1.274  12.304   3.547 -0.8703  0.2693  1.4162
75804SOL    HW245405   1.227  12.168   3.593  0.0185 -0.8455 -0.8115
75805SOL     OW45406   5.560   0.295   0.931  0.1966  0.1932  0.2082
75805SOL    HW145407   5.496   0.348   0.979 -1.3894 -0.8729 -0.6712
75805SOL    HW245408   5.638   0.351   0.926 -1.1541  2.1499  0.0036
75806SOL     OW45409   8.649  10.529   2.983 -0.2795 -0.0242  0.0837
75806SOL    HW145410   8.648  10.434   2.996  0.1356  0.0238  0.4899
75806SOL    HW245411   8.696  10.541   2.901  1.4345 -0.0812  1.0054
75807SOL     OW45412   8.979   6.817   5.232 -0.4768 -0.0274 -0.1619
75807SOL    HW145413   8.998   6.834   5.140 -2.4122 -0.7188 -0.7328
75807SOL    HW245414   8.893   6.775   5.232 -1.8951  2.5221  2.1190
75808SOL     OW45415   7.423  12.638   1.503 -0.4761  0.1917 -0.1874
75808SOL    HW145416   7.334  12.633   1.468 -1.5158  1.5896  2.0276
75808SOL    HW245417   7.469  12.696   1.443 -1.9978  1.9977  0.2825
75809SOL     OW45418  14.133   9.509   9.658 -0.0419 -0.0173 -0.2566
75809SOL    HW145419  14.165   9.592   9.693  2.7894 -1.1498  0.0971
75809SOL    HW245420  14.168   9.506   9.569 -1.5317 -0.1688 -0.8763
75810SOL     OW45421   8.631  13.929  12.281  0.4826 -0.0671 -0.1063
75810SOL    HW145422   8.589  13.940  12.196  1.1988  0.6231 -0.3866
75810SOL    HW245423   8.722  13.907  12.260  0.5945 -0.1866  0.4845
75811SOL     OW45424  13.069  13.884  11.401  0.3917  0.4416 -0.0660
75811SOL    HW145425  13.148  13.916  11.444 -0.3329 -1.4044  3.0142
75811SOL    HW245426  13.038  13.813  11.458 -3.6080  1.1873 -0.9805
75812SOL     OW45427   4.570  11.660  11.913 -0.1222 -0.2160 -0.7856
75812SOL    HW145428   4.576  11.734  11.852 -2.0084  1.0287  0.4256
75812SOL    HW245429   4.661  11.634  11.928  0.6599  2.2500 -0.8346
75813SOL     OW45430   5.953  11.939   7.019  0.2313  0.3001  0.3828
75813SOL    HW145431   5.885  11.903   6.962 -0.8656  0.3913  1.5954
75813SOL    HW245432   6.009  11.989   6.959  0.5436 -1.5641 -0.9853
75814SOL     OW45433  11.592   7.401  13.655 -0.1471  0.5249  0.2605
75814SOL    HW145434  11.576   7.307  13.662  1.8189  0.1333 -0.2192
75814SOL    HW245435  11.544   7.428  13.577  0.9464 -0.4853 -0.7822
75815SOL     OW45436   6.225   9.248   5.235 -0.6047  0.9243 -0.1454
75815SOL    HW145437   6.208   9.285   5.322 -0.2772  0.8982 -0.0686
75815SOL    HW245438   6.268   9.164   5.253 -1.8513  0.2315 -0.3049
75816SOL     OW45439  12.677   5.682  13.014  0.3538  0.5862  0.1900
75816SOL    HW145440  12.725   5.695  13.096  1.9992 -2.0341 -0.2386
75816SOL    HW245441  12.729   5.728  12.948  0.1947  0.9064  0.2843
75817SOL     OW45442   8.612   6.364  11.467  0.5146  0.6142  0.1255
75817SOL    HW145443   8.552   6.295  11.441  1.7797 -0.7655  0.7016
75817SOL    HW245444   8.659   6.387  11.386  0.1774  0.7342 -0.0391
75818SOL     OW45445   0.966  13.765   7.007 -0.4199 -0.3797  0.1312
75818SOL    HW145446   0.966  13.811   7.090 -0.8867  0.3341 -0.2616
75818SOL    HW245447   1.047  13.712   7.009 -0.1038  0.1164  0.7590
75819SOL     OW45448  10.060  10.965  12.961 -0.4283 -0.3297 -0.2178
75819SOL    HW145449  10.033  10.965  13.053  0.3853  0.3700  0.0350
75819SOL    HW245450   9.997  10.908  12.917 -0.1230 -1.6377  0.9769
75820SOL     OW45451   1.783   0.443  10.841  0.0095 -0.0504  0.4887
75820SOL    HW145452   1.782   0.436  10.746  0.2597 -0.3164  0.5059
75820SOL    HW245453   1.855   0.387  10.869  2.2349  2.6366  0.6112
75821SOL     OW45454   1.281   5.678   6.469  0.1231  0.6661 -0.2012
75821SOL    HW145455   1.340   5.634   6.530 -1.1305 -1.9276 -0.7216
75821SOL    HW245456   1.290   5.630   6.387 -1.2396  1.4570 -0.8555
75822SOL     OW45457  11.722   8.959   7.875  0.4528 -0.2261 -0.0673
75822SOL    HW145458  11.671   8.878   7.871 -0.2959  0.2726 -1.1317
75822SOL    HW245459  11.792   8.947   7.810 -1.7779  1.3155 -2.9971
75823SOL     OW45460   3.260  13.478  10.491 -0.0538 -0.1863 -0.2867
75823SOL    HW145461   3.327  13.534  10.453  0.9583 -1.2245 -0.0778
75823SOL    HW245462   3.228  13.526  10.567  0.3438  0.3749 -0.4690
75824SOL     OW45463  11.362   3.121  13.020  0.2871  0.4774  0.0465
75824SOL    HW145464  11.410   3.203  13.031 -0.4444  0.6370  2.9167
75824SOL    HW245465  11.283   3.147  12.971  1.1844  0.9729 -1.1907
75825SOL     OW45466  12.115   7.654   8.069  0.4813 -0.0993 -0.2418
75825SOL    HW145467  12.129   7.560   8.078  1.8749 -0.0778 -1.7366
75825SOL    HW245468  12.163   7.678   7.990  1.7542  2.1956  1.1228
75826SOL     OW45469   5.760   9.947   4.458  0.4215 -0.0973  0.3384
75826SOL    HW145470   5.851   9.963   4.482  1.8921 -2.4529 -2.9113
75826SOL    HW245471   5.750   9.988   4.372 -1.4276 -0.3728  0.3775
75827SOL     OW45472   5.625   7.668   9.730 -0.2969 -0.9053 -0.1563
75827SOL    HW145473   5.559   7.679   9.799 -0.0988 -0.8042  0.0195
75827SOL    HW245474   5.686   7.741   9.744 -0.2107 -0.9327 -0.3880
75828SOL     OW45475  14.081  11.272  10.063  0.4394 -0.2229 -0.1172
75828SOL    HW145476  14.165  11.245  10.099  0.4152  0.3626  0.3838
75828SOL    HW245477  14.038  11.190  10.038  0.4700 -0.6492  1.1700
75829SOL     OW45478   6.421  13.637  11.872 -0.0836 -0.0995 -0.7716
75829SOL    HW145479   6.338  13.684  11.865  0.4096  0.9908  0.2675
75829SOL    HW245480   6.479  13.682  11.810  0.1551  0.1188 -0.3898
75830SOL     OW45481   9.539   0.171  10.256  0.8545  0.4814 -0.5580
75830SOL    HW145482   9.458   0.218  10.236  1.3576  1.1508 -1.0719
75830SOL    HW245483   9.523   0.131  10.342  0.0043  0.6403 -0.6317
75831SOL     OW45484   6.007   7.285  12.492 -0.1447 -0.0878 -0.4345
75831SOL    HW145485   6.046   7.259  12.409 -0.7911  0.5119 -0.9376
75831SOL    HW245486   6.045   7.371  12.510  0.1989 -0.3324  0.0364
75832SOL     OW45487  12.946   4.686  13.849 -0.2557 -0.2943 -0.3367
75832SOL    HW145488  12.938   4.685  13.754 -0.3280 -1.4524 -0.3312
75832SOL    HW245489  13.004   4.760  13.867  1.1867 -1.1046 -1.4057
75833SOL     OW45490  12.124   5.783   4.893  0.3110  0.8007 -0.3358
75833SOL    HW145491  12.096   5.775   4.802 -0.9645  0.4817  0.0746
75833SOL    HW245492  12.164   5.870   4.897  0.3406  0.8432 -1.1816
75834SOL     OW45493   5.917  11.012  12.766 -0.0699 -0.2059  0.6588
75834SOL    HW145494   5.897  11.001  12.674  0.8138 -1.8734  0.6374
75834SOL    HW245495   5.985  11.080  12.768 -0.4557  0.2013  0.1494
75835SOL     OW45496   2.212  13.547  13.556  0.3086 -0.5066  0.5081
75835SOL    HW145497   2.166  13.476  13.513 -1.2940  0.9370 -0.2693
75835SOL    HW245498   2.260  13.591  13.486  0.5943 -0.3011  0.8257
75836SOL     OW45499   5.284   9.447  10.804 -0.1020 -0.0987  0.0426
75836SOL    HW145500   5.202   9.436  10.755 -0.2959 -0.4524  0.4409
75836SOL    HW245501   5.292   9.367  10.856  0.1176  0.2602  0.5673
75837SOL     OW45502   3.294   8.166   8.704  0.5274  0.0608  0.4604
75837SOL    HW145503   3.361   8.113   8.661 -0.5486 -1.5334  0.7030
75837SOL    HW245504   3.216   8.155   8.651  0.1320  1.0237  0.8069
75838SOL     OW45505   1.867   8.999   4.809 -0.0901  0.4026 -0.5648
75838SOL    HW145506   1.955   9.034   4.824 -0.3123  1.1442 -0.9759
75838SOL    HW245507   1.875   8.947   4.729 -0.3455  1.6570 -1.4213
75839SOL     OW45508   8.747   1.214   9.110  0.3905  0.2455  0.3917
75839SOL    HW145509   8.759   1.148   9.042 -0.5649 -0.3231  0.7573
75839SOL    HW245510   8.713   1.166   9.185  0.7540  0.9783  1.0395
75840SOL     OW45511   2.340   4.683   2.646  0.1187 -0.6135 -1.0905
75840SOL    HW145512   2.422   4.731   2.657 -1.2670  1.4414  1.3378
75840SOL    HW245513   2.316   4.697   2.555  2.8310 -2.0641 -2.1577
75841SOL     OW45514   4.776  12.402   3.427  0.2095 -0.1369 -0.2731
75841SOL    HW145515   4.779  12.307   3.435 -1.6140 -0.4209 -2.1375
75841SOL    HW245516   4.801  12.420   3.336  0.9637  1.2121  0.1704
75842SOL     OW45517   0.420   0.720   3.405  0.2602 -0.1293  0.5726
75842SOL    HW145518   0.416   0.695   3.497  0.8713 -1.3855  0.2747
75842SOL    HW245519   0.388   0.811   3.404  2.9270  0.9575  2.4003
75843SOL     OW45520   5.840   6.870   0.839  0.2548 -0.2726 -1.1195
75843SOL    HW145521   5.850   6.934   0.768 -0.7038  0.1102 -0.9236
75843SOL    HW245522   5.745   6.862   0.850  0.3820 -1.0791 -0.5494
75844SOL     OW45523  11.947   4.614   3.421  0.6117 -0.0353  0.0591
75844SOL    HW145524  11.853   4.615   3.399  0.5142 -0.2497  0.4639
75844SOL    HW245525  11.977   4.703   3.402  0.5592 -0.2451 -1.0680
75845SOL     OW45526   0.129  10.202   3.678  0.1995 -0.8370 -0.1271
75845SOL    HW145527   0.111  10.119   3.722  2.1094 -1.6504 -0.7728
75845SOL    HW245528   0.211  10.187   3.632 -0.1358  0.9808 -1.4254
75846SOL     OW45529   3.468  12.737   5.135  0.8152  0.1379 -0.2662
75846SOL    HW145530   3.449  12.723   5.228  0.6969 -0.1248 -0.3272
75846SOL    HW245531   3.547  12.791   5.134  0.4001  0.7482 -0.0111
75847SOL     OW45532   9.394   5.065   2.218 -0.3233 -0.0920  0.1982
75847SOL    HW145533   9.382   4.971   2.210  1.5583 -0.3327 -0.1963
75847SOL    HW245534   9.397   5.097   2.128 -0.9502  0.3617  0.3293
75848SOL     OW45535   3.057   0.843   1.821  0.3947 -0.0585 -0.1342
75848SOL    HW145536   2.966   0.854   1.848  0.5602  0.6146  0.1893
75848SOL    HW245537   3.091   0.933   1.815  1.5743 -0.3180  1.6789
75849SOL     OW45538   2.765   1.667   7.892  0.3036  0.0266  0.3167
75849SOL    HW145539   2.722   1.635   7.972 -3.5055  0.5062 -1.3428
75849SOL    HW245540   2.782   1.588   7.841  1.4418 -0.1513  0.9221
75850SOL     OW45541   4.672   4.642  10.296 -0.3907  0.1512 -0.4883
75850SOL    HW145542   4.682   4.602  10.382 -0.1982 -0.5934 -0.8527
75850SOL    HW245543   4.580   4.668  10.291 -0.5369 -0.3308 -0.2885
75851SOL     OW45544  13.783  13.126   0.652 -0.1089  0.0385  0.9701
75851SOL    HW145545  13.723  13.158   0.584 -0.0621  1.9677  1.7685
75851SOL    HW245546  13.726  13.097   0.723 -0.1294 -0.7111  0.6557
75852SOL     OW45547  11.574   3.828  12.943 -0.0691 -0.0825 -0.1462
75852SOL    HW145548  11.490   3.870  12.962 -0.1225 -0.6449  0.9058
75852SOL    HW245549  11.626   3.897  12.902 -0.3720  0.8643  0.9898
75853SOL     OW45550   0.977   0.328  11.264 -0.1112 -0.6427 -0.1540
75853SOL    HW145551   1.025   0.369  11.193 -1.4174 -0.2980 -0.8536
75853SOL    HW245552   0.985   0.234  11.247  0.1686 -0.5814 -0.3611
75854SOL     OW45553   2.860   4.105   7.407  0.1279  0.8477  0.3521
75854SOL    HW145554   2.816   4.185   7.379 -0.5304  0.7417  1.0343
75854SOL    HW245555   2.800   4.066   7.471  0.6859  0.0875  0.4298
75855SOL     OW45556  13.467   7.101  11.877  0.5275  0.3505  0.0192
75855SOL    HW145557  13.378   7.096  11.912  0.6690 -0.7501  0.2716
75855SOL    HW245558  13.519   7.047  11.937  1.3521  0.8978 -0.1835
75856SOL     OW45559   2.045  11.681   2.395 -0.3915  0.2194  0.1538
75856SOL    HW145560   1.970  11.622   2.401 -1.9222  2.0109 -0.1872
75856SOL    HW245561   2.056  11.715   2.484 -0.8924  0.9751 -0.0609
75857SOL     OW45562   5.666   1.201   9.326  0.0112  0.1920  0.4679
75857SOL    HW145563   5.720   1.181   9.402  0.0141 -1.2222  0.1355
75857SOL    HW245564   5.596   1.135   9.328 -0.2751  0.4424 -0.4689
75858SOL     OW45565   4.678   2.119   0.767 -0.1364  0.2014  0.2067
75858SOL    HW145566   4.636   2.129   0.681 -1.3338 -1.5788  0.5333
75858SOL    HW245567   4.628   2.050   0.810  0.9457  0.5119  2.0455
75859SOL     OW45568  12.710   4.146  13.491  0.4679  0.2947 -0.3732
75859SOL    HW145569  12.738   4.099  13.413  1.7674 -0.3739  0.4592
75859SOL    HW245570  12.616   4.157  13.479  0.6266  0.1817 -2.0054
75860SOL     OW45571   8.494  11.898   5.185  0.3203 -0.0570  0.7069
75860SOL    HW145572   8.442  11.975   5.206 -0.9962 -0.7525  0.1240
75860SOL    HW245573   8.498  11.848   5.266 -0.6441 -0.3926  0.5598
75861SOL     OW45574  10.292   8.508   4.313 -0.0120 -0.1897 -0.0175
75861SOL    HW145575  10.238   8.523   4.391 -0.1566  1.6759 -0.4352
75861SOL    HW245576  10.349   8.584   4.309 -0.9358  0.4507 -2.4726
75862SOL     OW45577   3.443   1.008   9.262 -0.0086  0.1991  0.0507
75862SOL    HW145578   3.469   0.922   9.228  0.7935  0.5884 -0.3526
75862SOL    HW245579   3.414   1.057   9.184 -0.5803  0.2561  0.2946
75863SOL     OW45580   6.181   1.029   5.468  0.3165  1.0302 -0.5109
75863SOL    HW145581   6.192   1.124   5.459 -0.9306  1.2061 -0.3960
75863SOL    HW245582   6.095   1.011   5.429 -0.6106  0.3311  1.7065
75864SOL     OW45583   8.713   6.861   1.799  0.0311 -0.3106 -0.0407
75864SOL    HW145584   8.739   6.893   1.713  0.4834  1.0033  0.5489
75864SOL    HW245585   8.758   6.919   1.861  1.3103 -2.4335  1.1394
75865SOL     OW45586   6.458  10.874   3.832 -0.0729 -0.3961 -0.1186
75865SOL    HW145587   6.434  10.781   3.825  2.8561 -1.0854 -3.5246
75865SOL    HW245588   6.549  10.873   3.861 -0.6152  1.6410  2.0070
75866SOL     OW45589  12.471   5.497   0.780 -0.3806 -0.0347 -0.5545
75866SOL    HW145590  12.520   5.433   0.729  0.2023 -0.2625  0.2730
75866SOL    HW245591  12.434   5.557   0.714 -0.6565 -1.0074 -1.3086
75867SOL     OW45592   6.717   6.525   1.925  0.0382 -0.5320 -0.2770
75867SOL    HW145593   6.679   6.483   2.003 -0.5358  0.4118 -0.0314
75867SOL    HW245594   6.649   6.517   1.858 -0.1802  0.2177 -0.1521
75868SOL     OW45595   7.008   9.773   2.635 -0.0110 -0.5435  0.1684
75868SOL    HW145596   7.102   9.772   2.616 -0.3492  0.1120 -1.7661
75868SOL    HW245597   6.983   9.680   2.638  0.1750 -0.7298 -2.3752
75869SOL     OW45598   2.408  12.760  11.421  0.6985  0.1164 -0.0146
75869SOL    HW145599   2.454  12.705  11.357 -1.4853  0.9456 -2.4494
75869SOL    HW245600   2.457  12.842  11.421  0.3106  0.3595 -1.1934
75870SOL     OW45601  12.332   6.672   7.529 -0.6476  0.0852 -0.2411
75870SOL    HW145602  12.272   6.599   7.518  0.4889 -1.3459  2.0920
75870SOL    HW245603  12.388   6.670   7.452 -2.3874  0.3208 -1.5585
75871SOL     OW45604   2.649   4.980  10.093  0.2933 -0.2608  0.4797
75871SOL    HW145605   2.725   5.024  10.131  0.7917  0.3870 -1.1665
75871SOL    HW245606   2.583   4.981  10.162  0.9817  1.2859  1.1608
75872SOL     OW45607   4.526  13.879  10.753  0.1204 -0.7037  0.0834
75872SOL    HW145608   4.569  13.863  10.837  0.2239  3.2833  0.9718
75872SOL    HW245609   4.441  13.836  10.761 -0.8825  1.5175  3.2959
75873SOL     OW45610  13.822   6.745   6.749 -0.4283 -0.7810 -0.6703
75873SOL    HW145611  13.889   6.717   6.811 -0.5776  0.6203  0.1784
75873SOL    HW245612  13.739   6.726   6.794 -0.5727 -0.9891 -1.0194
75874SOL     OW45613   8.508  12.270   2.521 -0.3140  0.1856 -0.1741
75874SOL    HW145614   8.513  12.282   2.616  0.3914  1.1922 -0.3220
75874SOL    HW245615   8.584  12.215   2.500 -0.5854 -0.2097 -0.1444
75875SOL     OW45616   7.137   2.326   2.542  0.3042  0.0839  0.6987
75875SOL    HW145617   7.096   2.271   2.476 -0.7186  1.0167  0.5375
75875SOL    HW245618   7.220   2.353   2.503  2.0179 -3.2165  1.6929
75876SOL     OW45619  10.730   0.670   1.508  0.7300 -0.0024 -0.3783
75876SOL    HW145620  10.781   0.589   1.513  0.1254 -0.3860 -0.1442
75876SOL    HW245621  10.790   0.735   1.474  1.9128  0.0210  1.6254
75877SOL     OW45622  11.180   2.831   3.893 -0.5378  0.1268  0.2649
75877SOL    HW145623  11.251   2.860   3.950 -0.8161  0.1317  0.6151
75877SOL    HW245624  11.180   2.736   3.901 -0.1255  0.0742 -0.2785
75878SOL     OW45625   7.428   4.217  11.998 -0.6442 -0.2809 -0.4141
75878SOL    HW145626   7.498   4.184  11.943  0.6603 -0.3773  1.2375
75878SOL    HW245627   7.381   4.139  12.027  1.2065 -0.6708  1.8563
75879SOL     OW45628   7.266   0.922  11.145  0.4488  0.3669  0.3468
75879SOL    HW145629   7.361   0.923  11.135  0.2644 -0.7907 -3.3940
75879SOL    HW245630   7.242   1.014  11.158  2.0576  0.6431  1.6206
75880SOL     OW45631   3.467  12.160  10.077 -0.0872  0.1588 -0.5720
75880SOL    HW145632   3.383  12.159  10.032 -0.9328 -1.5871  0.8765
75880SOL    HW245633   3.446  12.141  10.169  1.9465 -1.8391 -0.3946
75881SOL     OW45634   0.332  10.334   7.982 -0.1637  0.0533  0.1918
75881SOL    HW145635   0.303  10.425   7.971  0.1788 -0.0309 -1.6821
75881SOL    HW245636   0.379  10.334   8.066  1.7555  2.1203 -0.7730
75882SOL     OW45637  10.926   4.122  13.490 -0.7866  0.1579 -0.9043
75882SOL    HW145638  10.858   4.180  13.456 -0.8818 -0.0908 -1.1432
75882SOL    HW245639  10.892   4.093  13.575 -0.3042  1.2109 -0.3278
75883SOL     OW45640  10.494   8.982  11.341 -0.0879  0.1074  0.3066
75883SOL    HW145641  10.419   9.015  11.292 -0.9815 -1.7010  0.3714
75883SOL    HW245642  10.484   9.019  11.429 -1.1932 -0.4501  0.4413
75884SOL     OW45643  12.792   4.681   5.619  0.3876 -0.2855  0.2968
75884SOL    HW145644  12.789   4.774   5.640 -0.6375 -0.4041  0.6833
75884SOL    HW245645  12.886   4.662   5.611  0.6108  0.7474  0.3256
75885SOL     OW45646  13.544  11.037   5.469  0.6294 -0.4882 -0.0453
75885SOL    HW145647  13.576  11.067   5.384  1.6204  0.4173  0.6172
75885SOL    HW245648  13.591  11.092   5.533 -1.1237 -0.1659  1.0304
75886SOL     OW45649  13.290  11.897   8.003 -0.2005 -0.0614 -0.5993
75886SOL    HW145650  13.259  11.846   7.927 -0.5540 -0.6594 -0.0662
75886SOL    HW245651  13.212  11.944   8.033 -0.0390  0.2443 -0.6536
75887SOL     OW45652   2.764  12.360  10.471 -0.1355  0.2267  0.5940
75887SOL    HW145653   2.729  12.417  10.540 -0.7915  3.2243 -1.9980
75887SOL    HW245654   2.699  12.364  10.402  1.2089 -1.4265 -0.8489
75888SOL     OW45655   6.515  11.249  11.459  0.2485  0.0411 -0.1482
75888SOL    HW145656   6.522  11.159  11.426 -1.1911 -0.2233  0.2056
75888SOL    HW245657   6.597  11.263  11.507  0.1645 -1.3683  0.4470
75889SOL     OW45658   2.446  13.678  10.147 -0.1865 -0.1579 -0.1874
75889SOL    HW145659   2.399  13.635  10.218  1.2455 -1.5778 -0.0585
75889SOL    HW245660   2.397  13.655  10.068 -1.3244  0.7712  0.2120
75890SOL     OW45661  10.720   8.847   3.830 -0.4439  0.1964  0.4515
75890SOL    HW145662  10.741   8.906   3.757 -0.0824  1.2100  1.3536
75890SOL    HW245663  10.668   8.778   3.790 -1.1815  1.3029 -0.5902
75891SOL     OW45664   6.226   0.746   5.467  0.1201  0.3695  0.4880
75891SOL    HW145665   6.187   0.831   5.485 -0.7508  0.5906 -2.0082
75891SOL    HW245666   6.160   0.699   5.415  0.5481 -1.8812  1.8180
75892SOL     OW45667   4.110   0.359  11.343  0.5027 -0.0552  0.0735
75892SOL    HW145668   4.085   0.451  11.341 -0.4477 -0.2943 -1.5896
75892SOL    HW245669   4.080   0.325  11.259  0.2050 -2.0498  0.9393
75893SOL     OW45670   4.059   9.588  12.734 -0.2056 -0.4075  0.0023
75893SOL    HW145671   4.027   9.555  12.818  2.1066  0.2045  1.2186
75893SOL    HW245672   4.095   9.512  12.689 -1.9199 -0.8328 -0.7355
75894SOL     OW45673   4.792   8.529   1.103 -0.3724 -0.2187 -0.2383
75894SOL    HW145674   4.755   8.542   1.016  1.7032  0.8023 -1.0573
75894SOL    HW245675   4.837   8.612   1.121 -1.2253 -0.2041  2.0753
75895SOL     OW45676   0.834   8.348   7.810  0.0404  0.1616 -0.3162
75895SOL    HW145677   0.897   8.370   7.741 -1.9736  0.7908 -2.0701
75895SOL    HW245678   0.793   8.432   7.833  0.1399 -0.1599  1.1392
75896SOL     OW45679  10.527   9.912  12.166  0.7292 -0.0808 -0.2332
75896SOL    HW145680  10.534   9.953  12.252  0.6948  1.0301 -0.7396
75896SOL    HW245681  10.588   9.838  12.170  2.1295  1.0447  0.1513
75897SOL     OW45682  12.989  10.977   6.998 -0.0333 -0.3199 -0.6876
75897SOL    HW145683  13.016  11.006   6.911  0.4594  1.7858  0.1060
75897SOL    HW245684  13.039  11.032   7.058 -0.3127 -1.7735  0.9422
75898SOL     OW45685   8.736   2.838   8.517  0.3242 -0.1179  0.3673
75898SOL    HW145686   8.689   2.921   8.509  3.0190  1.4875 -0.0971
75898SOL    HW245687   8.674   2.772   8.485 -1.5627  1.8238 -0.2203
75899SOL     OW45688   5.627   3.589   6.702  0.2820  0.4056 -0.0171
75899SOL    HW145689   5.568   3.651   6.659  1.1198  0.8621 -0.5418
75899SOL    HW245690   5.588   3.503   6.683 -0.0572  0.6796 -0.6167
75900SOL     OW45691   1.775   7.857   0.276  0.3955 -0.1234  0.0474
75900SOL    HW145692   1.712   7.850   0.348  1.1989 -0.6209  0.7173
75900SOL    HW245693   1.725   7.831   0.198 -1.0093  2.1562  0.0749
75901SOL     OW45694   8.479  10.354   7.752 -0.0621  0.2463 -0.2835
75901SOL    HW145695   8.485  10.441   7.791  0.5864  1.5289 -3.0041
75901SOL    HW245696   8.571  10.328   7.737 -0.2744 -0.3097 -0.6725
75902SOL     OW45697   0.381   6.740   7.653 -0.5204  0.0357 -0.4462
75902SOL    HW145698   0.397   6.648   7.675  0.2350  0.9667  3.5030
75902SOL    HW245699   0.297   6.738   7.607 -0.3108 -2.6322 -0.9024
75903SOL     OW45700  12.105   2.083   3.440 -0.6649  0.8730 -0.0574
75903SOL    HW145701  12.022   2.097   3.487 -0.8671 -1.7842  0.5556
75903SOL    HW245702  12.078   2.052   3.353 -0.3303  0.1631  0.0861
75904SOL     OW45703  10.037   6.640   5.838 -0.4830  0.5524 -0.3993
75904SOL    HW145704   9.996   6.578   5.899 -0.5195  0.5842 -0.3917
75904SOL    HW245705  10.122   6.601   5.818  0.4540  1.5880  1.3548
75905SOL     OW45706   6.224  11.150   9.176 -0.2651  0.4811  0.2991
75905SOL    HW145707   6.161  11.222   9.170 -3.4142 -2.1007 -0.2477
75905SOL    HW245708   6.195  11.098   9.250 -0.1670 -1.9740 -1.2628
75906SOL     OW45709  13.510  13.284  10.845  0.1010  0.1629 -0.1036
75906SOL    HW145710  13.554  13.321  10.769  2.6844 -0.0552  1.1845
75906SOL    HW245711  13.508  13.356  10.909  2.5801 -0.9545  1.3780
75907SOL     OW45712   5.533  11.498  13.298  0.5347  0.2185 -0.0084
75907SOL    HW145713   5.535  11.403  13.306  0.2976  0.1878 -0.3089
75907SOL    HW245714   5.467  11.527  13.361  0.9311  0.2232  0.4128
75908SOL     OW45715   0.393   2.854   2.350  0.1550 -0.6938  0.0088
75908SOL    HW145716   0.376   2.791   2.280 -1.0648 -0.9553  0.5341
75908SOL    HW245717   0.322   2.917   2.343  0.0467 -0.7010  1.0067
75909SOL     OW45718   5.814  12.316   6.594 -0.6582 -0.0374  0.5162
75909SOL    HW145719   5.905  12.297   6.570 -0.8942  0.9760 -1.4037
75909SOL    HW245720   5.804  12.279   6.681  0.9695 -2.0657 -0.0759
75910SOL     OW45721   8.672   0.907  12.663  0.5291  0.1386  0.0923
75910SOL    HW145722   8.627   0.845  12.606 -0.8433  0.5340  0.7101
75910SOL    HW245723   8.763   0.905  12.632  0.3197 -1.4017 -0.5618
75911SOL     OW45724  14.029  11.410   8.505 -0.1498 -0.5097  0.0700
75911SOL    HW145725  13.984  11.394   8.423 -2.8623 -2.8425  1.8278
75911SOL    HW245726  14.020  11.504   8.520 -0.6651 -0.2547 -1.6714
75912SOL     OW45727  13.142  13.215  10.166  0.0601 -0.5724 -0.4258
75912SOL    HW145728  13.233  13.243  10.156 -0.0719  0.0634  0.1075
75912SOL    HW245729  13.127  13.213  10.260 -1.0189  1.1614 -0.5063
75913SOL     OW45730   7.963   9.796   8.846 -0.1339 -0.2768 -0.1548
75913SOL    HW145731   7.983   9.740   8.922 -0.3175 -0.8509 -0.5251
75913SOL    HW245732   7.869   9.788   8.835 -0.3186  0.9316  0.4171
75914SOL     OW45733   9.115   0.402   3.495 -0.0626  0.1936  0.3480
75914SOL    HW145734   9.048   0.403   3.427 -0.0278  2.8003  0.2385
75914SOL    HW245735   9.177   0.471   3.469  1.3949 -0.5488  1.6533
75915SOL     OW45736   4.711   3.999  10.031 -0.1172 -0.9006  0.1743
75915SOL    HW145737   4.774   3.988  10.101  0.0041  1.1185  0.4619
75915SOL    HW245738   4.649   4.064  10.065 -0.7138 -0.7363 -1.1534
75916SOL     OW45739   5.282   5.571   8.434  0.5461  0.6532 -0.2251
75916SOL    HW145740   5.316   5.652   8.396  2.6073 -0.3139 -0.6199
75916SOL    HW245741   5.300   5.505   8.368  0.4085 -0.3902  0.7526
75917SOL     OW45742   1.218   5.372   6.561  0.0420 -0.0931 -0.0518
75917SOL    HW145743   1.223   5.378   6.465 -0.5867  1.9212 -0.0125
75917SOL    HW245744   1.294   5.420   6.592  0.8159 -1.6298  0.4870
75918SOL     OW45745  13.297   2.290   1.968  0.2695 -0.1040 -0.5207
75918SOL    HW145746  13.300   2.204   1.927 -2.0384  0.4042 -1.9920
75918SOL    HW245747  13.213   2.291   2.015 -0.7818  1.9645 -2.2454
75919SOL     OW45748   0.331  10.336   0.688  0.0728 -0.2297 -0.3141
75919SOL    HW145749   0.325  10.431   0.677  0.2085 -0.3401 -1.4791
75919SOL    HW245750   0.252  10.313   0.737  0.9592  0.6854  1.6241
75920SOL     OW45751   2.206  13.080   6.178  0.3880  0.2102  0.8575
75920SOL    HW145752   2.260  13.012   6.218 -1.0798 -1.2947  0.3985
75920SOL    HW245753   2.117  13.061   6.208 -0.6126 -0.2910 -2.1061
75921SOL     OW45754   2.560   3.465   1.515  0.0058 -0.2874 -0.2444
75921SOL    HW145755   2.603   3.548   1.535 -0.1771 -0.4837  1.1101
75921SOL    HW245756   2.587   3.444   1.426  0.9861  0.6554 -0.1893
75922SOL     OW45757   0.722   5.465  12.798 -0.5555  0.2422 -0.5790
75922SOL    HW145758   0.714   5.494  12.708 -0.7262  1.8732 -0.0677
75922SOL    HW245759   0.709   5.544  12.851  1.2151 -0.3311  0.8297
75923SOL     OW45760   1.452  14.132   2.223 -0.4988  0.2604 -0.0763
75923SOL    HW145761   1.542  14.102   2.233  0.0025  1.0016 -1.8801
75923SOL    HW245762   1.460  14.226   2.206 -1.8139  0.8890  2.2508
75924SOL     OW45763   1.770  11.853   5.035 -0.1930 -0.3770  0.1910
75924SOL    HW145764   1.767  11.901   5.117  1.9853 -1.3458  0.9005
75924SOL    HW245765   1.863  11.841   5.016 -0.6351 -1.4817 -1.6448
75925SOL     OW45766  13.366   8.407  12.927  0.2503 -0.0363 -0.1215
75925SOL    HW145767  13.305   8.454  12.984  0.1396  1.2204 -1.2368
75925SOL    HW245768  13.403   8.339  12.983 -1.5477 -0.3143  0.8253
75926SOL     OW45769   6.316  10.895   0.598 -0.0499 -0.8867 -0.1384
75926SOL    HW145770   6.368  10.828   0.554  2.3345  1.0887 -0.5150
75926SOL    HW245771   6.321  10.972   0.541 -3.5462 -0.5759 -0.2253
75927SOL     OW45772   7.654  12.924   0.216 -0.1488 -0.2112 -0.0451
75927SOL    HW145773   7.636  12.864   0.288  1.0453  1.8745  2.1421
75927SOL    HW245774   7.741  12.898   0.184 -1.8623 -3.0656 -2.9649
75928SOL     OW45775   4.040   1.632   8.620  0.1562  0.6199  0.4776
75928SOL    HW145776   3.977   1.576   8.575  2.8617 -1.6094 -0.9144
75928SOL    HW245777   4.105   1.653   8.553  2.5018  0.1511  2.4558
75929SOL     OW45778   1.788  13.289   5.749 -0.7520  0.5762 -0.3403
75929SOL    HW145779   1.721  13.352   5.777  0.9347  2.0636  0.5499
75929SOL    HW245780   1.780  13.217   5.812 -0.8882  1.1742  0.3368
75930SOL     OW45781   1.102   1.011   4.619  0.1962 -0.5757  0.0378
75930SOL    HW145782   1.123   1.018   4.712  1.4861  0.2793 -0.2939
75930SOL    HW245783   1.155   1.078   4.577 -0.4670 -0.8604 -1.3137
75931SOL     OW45784   5.495  13.962   2.866  0.3484  0.1424  0.0428
75931SOL    HW145785   5.529  13.904   2.934  2.0314  0.0840 -0.8062
75931SOL    HW245786   5.476  14.044   2.912  1.3525  0.0643  0.6117
75932SOL     OW45787   2.418   5.009   7.435 -0.2232 -0.0448 -0.7293
75932SOL    HW145788   2.500   4.987   7.479 -0.3634  1.4403  0.3761
75932SOL    HW245789   2.440   5.012   7.342  1.2266  1.2187 -0.3883
75933SOL     OW45790   8.411  13.126   6.284  0.8173 -0.3799  0.0717
75933SOL    HW145791   8.329  13.109   6.238 -0.0673  0.0334  1.4281
75933SOL    HW245792   8.476  13.073   6.238 -0.7461 -3.0398  0.7163
75934SOL     OW45793   7.825  12.598  12.791 -1.0006  0.0449  0.3975
75934SOL    HW145794   7.890  12.533  12.818 -0.3744  0.4125 -0.2053
75934SOL    HW245795   7.781  12.624  12.872 -2.9513 -2.8734  0.4534
75935SOL     OW45796  11.163   9.247   4.554  0.1198 -0.1084 -0.2713
75935SOL    HW145797  11.146   9.197   4.634  0.3924 -0.3538 -0.3689
75935SOL    HW245798  11.222   9.317   4.582 -1.5075  1.1512  0.2169
75936SOL     OW45799  13.719   4.901  11.916  0.1311  0.5500  0.1397
75936SOL    HW145800  13.809   4.908  11.884 -0.4492 -0.0947 -1.7683
75936SOL    HW245801  13.707   4.809  11.937  0.3010  0.8588  1.6931
75937SOL     OW45802   9.555   5.465  10.686 -0.3605 -0.2694  0.4247
75937SOL    HW145803   9.488   5.533  10.675  0.8508  0.6312 -2.2950
75937SOL    HW245804   9.628   5.510  10.729  0.3208  0.1257 -1.0893
75938SOL     OW45805   9.421   6.572  12.565  0.5920  0.1326  0.0474
75938SOL    HW145806   9.486   6.517  12.608 -0.2328 -0.9449 -0.0354
75938SOL    HW245807   9.452   6.580  12.475 -0.1993 -1.7814 -0.4470
75939SOL     OW45808   1.043   8.585   6.286  0.5451 -0.1629 -0.2172
75939SOL    HW145809   1.036   8.635   6.205  0.1142 -1.0002 -0.7115
75939SOL    HW245810   0.953   8.560   6.307  0.7738 -0.9464 -0.1299
75940SOL     OW45811   3.086   0.302  11.359  0.1558 -0.0681  0.0794
75940SOL    HW145812   3.068   0.281  11.450 -0.2210  3.3016  0.9147
75940SOL    HW245813   3.117   0.392  11.360  1.0294 -0.1938 -3.0630
75941SOL     OW45814  11.321   5.295  11.676  0.3750  0.1794 -0.5046
75941SOL    HW145815  11.264   5.307  11.752  2.4299  0.5389  1.0696
75941SOL    HW245816  11.261   5.277  11.604 -1.6645 -0.3471  1.2137
75942SOL     OW45817  12.433  12.985  12.071  0.0423 -0.5373  0.1389
75942SOL    HW145818  12.384  12.939  12.002 -1.8379  3.1836 -1.2661
75942SOL    HW245819  12.514  13.013  12.028  1.1808 -2.3379  0.9901
75943SOL     OW45820   0.261  13.129   1.408 -0.6395 -0.4207  0.2651
75943SOL    HW145821   0.309  13.182   1.343 -1.1193  0.1333  0.3595
75943SOL    HW245822   0.279  13.172   1.492 -0.4181 -0.8540  0.4435
75944SOL     OW45823   2.867   8.864   4.106  0.1961 -0.6317 -0.1504
75944SOL    HW145824   2.902   8.903   4.186 -1.2341  1.3627 -0.4338
75944SOL    HW245825   2.783   8.825   4.133  0.9910 -2.4619 -0.1511
75945SOL     OW45826   0.869   2.412   8.926  0.3406  0.3006 -0.3843
75945SOL    HW145827   0.898   2.334   8.974 -1.7704  0.2180  0.9021
75945SOL    HW245828   0.926   2.482   8.958  1.0980 -0.3694 -0.2241
75946SOL     OW45829   8.865   8.850   2.300  0.1878  0.0673  0.5009
75946SOL    HW145830   8.826   8.799   2.229  0.4460  1.8142 -0.9745
75946SOL    HW245831   8.827   8.814   2.380 -2.2623 -0.1798 -0.6854
75947SOL     OW45832   2.328   9.510   5.653  0.2490  0.7585  0.5020
75947SOL    HW145833   2.302   9.425   5.689  1.3817  1.5623  3.5415
75947SOL    HW245834   2.404   9.491   5.599 -0.0040 -0.2465  0.4770
75948SOL     OW45835  13.414  12.183  11.385 -0.1046  0.2420  0.3083
75948SOL    HW145836  13.350  12.113  11.399  1.4804 -1.1585  0.9666
75948SOL    HW245837  13.448  12.202  11.473  1.6751 -0.3771 -0.1983
75949SOL     OW45838   1.659   5.865  11.275 -0.1278 -0.0678 -0.1547
75949SOL    HW145839   1.714   5.807  11.223  0.2447  1.0739 -1.0851
75949SOL    HW245840   1.635   5.813  11.351  0.0702 -1.4778 -1.0178
75950SOL     OW45841  11.323   0.487  10.185 -0.0303  0.1416 -0.0078
75950SOL    HW145842  11.256   0.544  10.147 -0.6354 -0.1632  0.5722
75950SOL    HW245843  11.306   0.401  10.147  1.5223  0.5203 -1.6764
75951SOL     OW45844   1.090  12.084  12.132 -0.5335 -0.0202 -0.3293
75951SOL    HW145845   1.039  12.144  12.188  0.5438 -0.7195  1.5007
75951SOL    HW245846   1.053  12.096  12.045 -2.2338  1.2254  0.4910
75952SOL     OW45847   2.606   9.559  11.528  0.2205  0.2401  0.2847
75952SOL    HW145848   2.679   9.569  11.466 -0.6834  1.8075 -0.5979
75952SOL    HW245849   2.532   9.600  11.484 -0.5506  1.1145  2.2827
75953SOL     OW45850   0.775   1.581  12.246  0.2314  0.0325 -0.2028
75953SOL    HW145851   0.841   1.564  12.314  0.2922  0.4645 -0.1554
75953SOL    HW245852   0.742   1.494  12.224  0.1911 -0.1133  0.4009
75954SOL     OW45853   1.361   8.532   8.570 -0.0105 -0.0695 -0.5799
75954SOL    HW145854   1.348   8.438   8.558 -1.2774  0.2475 -2.1249
75954SOL    HW245855   1.453   8.546   8.551  0.2989 -1.0569  0.1208
75955SOL     OW45856   0.865   1.592   6.911  0.3811  0.2111 -0.9229
75955SOL    HW145857   0.824   1.611   6.996 -0.0442 -0.4004 -0.9815
75955SOL    HW245858   0.792   1.587   6.849  0.7923  1.8619 -1.5729
75956SOL     OW45859   2.308   7.749   2.491  0.2133 -0.2164 -0.0362
75956SOL    HW145860   2.397   7.716   2.503  0.4869  0.9356  1.4045
75956SOL    HW245861   2.308   7.790   2.405  0.7905 -1.0859 -0.4590
75957SOL     OW45862   5.350   8.700  10.309  0.0009 -0.3069  0.0181
75957SOL    HW145863   5.316   8.680  10.222  0.3922 -0.2224 -0.1560
75957SOL    HW245864   5.360   8.795  10.310  0.6329 -0.3680 -0.0825
75958SOL     OW45865   7.303  10.413   3.742 -0.1143 -0.2691 -0.3154
75958SOL    HW145866   7.226  10.425   3.686 -0.0868  2.0752  0.0424
75958SOL    HW245867   7.326  10.321   3.731 -1.8468 -0.5887 -1.8780
75959SOL     OW45868  11.224  11.951   8.765  0.4045 -0.0555 -0.4958
75959SOL    HW145869  11.218  11.981   8.674 -1.6773 -1.5195 -0.8999
75959SOL    HW245870  11.302  11.895   8.766  1.2407  1.0611 -1.0172
75960SOL     OW45871   3.478   6.101   5.367  0.2480  0.0878  0.4702
75960SOL    HW145872   3.400   6.115   5.314  0.9869  2.0387 -0.1708
75960SOL    HW245873   3.454   6.132   5.455 -0.0905 -0.5347  0.6032
75961SOL     OW45874   3.753   5.433   2.423  0.2627  0.0003 -0.0663
75961SOL    HW145875   3.765   5.428   2.328  1.3198 -0.1469  0.0661
75961SOL    HW245876   3.839   5.456   2.457 -0.2478  0.6436  0.8202
75962SOL     OW45877  12.422  13.013   4.595 -0.3348 -0.2528  0.2193
75962SOL    HW145878  12.336  13.023   4.635 -0.6292 -0.6188 -0.3164
75962SOL    HW245879  12.431  13.089   4.538  0.0698  0.2494  0.9427
75963SOL     OW45880   0.666  10.360  11.498  0.8734  0.1136 -0.0951
75963SOL    HW145881   0.572  10.355  11.511  0.4595 -1.0356 -2.8401
75963SOL    HW245882   0.699  10.275  11.527  1.1679  0.6581  1.2402
75964SOL     OW45883  11.907   4.191  13.802 -0.2153 -0.7566  0.4600
75964SOL    HW145884  11.947   4.202  13.888 -1.5573 -1.9194  1.2671
75964SOL    HW245885  11.888   4.280  13.772  2.6931 -0.1350  0.1212
75965SOL     OW45886   0.498   5.180   1.890 -0.7210 -0.2736  0.7307
75965SOL    HW145887   0.496   5.175   1.795 -1.5327  0.7856  0.6662
75965SOL    HW245888   0.407   5.162   1.917 -0.4737 -0.6795  1.3105
75966SOL     OW45889   3.960   1.023   0.663  0.2765  0.1133  0.3875
75966SOL    HW145890   4.038   1.053   0.617  0.7385  0.1116  1.1537
75966SOL    HW245891   3.941   0.937   0.625  2.2397 -1.1184  2.0346
75967SOL     OW45892   3.426   0.014   7.842  0.0554 -0.3589  0.1952
75967SOL    HW145893   3.358  -0.054   7.837 -0.5311  0.2970 -1.0933
75967SOL    HW245894   3.507  -0.035   7.859 -0.5895 -1.2323  0.8666
75968SOL     OW45895  11.171  13.589   2.142  0.2103 -0.0078  0.4212
75968SOL    HW145896  11.227  13.641   2.199  2.2498 -2.6180  1.0379
75968SOL    HW245897  11.183  13.499   2.173 -1.9879 -1.0490 -1.4369
75969SOL     OW45898  10.936   5.763   1.484  0.1118  0.0990  0.6105
75969SOL    HW145899  10.899   5.842   1.445 -0.6021  0.4844  2.0126
75969SOL    HW245900  10.876   5.693   1.458  1.0991 -0.1607 -1.1904
75970SOL     OW45901   7.881   4.011   0.525  0.7595  0.3684  0.9353
75970SOL    HW145902   7.963   4.029   0.478  0.3990  0.5459  0.3666
75970SOL    HW245903   7.827   4.088   0.509 -0.6952 -1.0111 -1.2572
75971SOL     OW45904   3.176  14.009   0.921 -0.0762 -0.2358  0.1274
75971SOL    HW145905   3.141  14.049   0.841  2.0510 -0.9471 -1.2551
75971SOL    HW245906   3.211  14.083   0.971  1.2435 -0.0136 -1.0545
75972SOL     OW45907  11.211   2.137  11.106 -0.1080 -0.2623 -0.0435
75972SOL    HW145908  11.291   2.136  11.053  0.1200 -1.6406  0.3019
75972SOL    HW245909  11.202   2.048  11.138  0.3993  0.7103  3.1908
75973SOL     OW45910   0.112   7.138  11.609  0.1027 -0.2835 -0.8328
75973SOL    HW145911   0.099   7.045  11.624 -2.6186  0.3819  2.2563
75973SOL    HW245912   0.041   7.163  11.549  0.0468 -0.0240 -0.6632
75974SOL     OW45913  10.632   7.114   3.958 -0.1326 -0.3740 -0.8315
75974SOL    HW145914  10.647   7.021   3.939 -0.9508 -0.7784  0.4114
75974SOL    HW245915  10.697   7.160   3.904  1.2938 -1.7351 -0.3467
75975SOL     OW45916   0.013   7.602   3.543  0.1259  0.0598 -0.2965
75975SOL    HW145917  -0.039   7.524   3.563  0.9579 -0.7953 -1.3998
75975SOL    HW245918  -0.030   7.641   3.467 -0.0138  0.4309 -0.0324
75976SOL     OW45919  11.367  10.364   6.961  0.7411  0.1309  0.4724
75976SOL    HW145920  11.433  10.340   6.896 -0.2123 -0.2505 -0.3899
75976SOL    HW245921  11.320  10.437   6.921  2.0789  1.9472  2.0629
75977SOL     OW45922  11.263   1.777   7.337  0.4430 -0.1018 -0.2681
75977SOL    HW145923  11.279   1.683   7.341 -0.0073 -0.2569 -1.5255
75977SOL    HW245924  11.344   1.817   7.369  0.3097 -0.9037  1.1358
75978SOL     OW45925  11.361  11.233  12.929 -0.4360  0.6267  0.4965
75978SOL    HW145926  11.380  11.141  12.946 -0.5534  0.7594  1.3740
75978SOL    HW245927  11.421  11.257  12.858  1.0377  0.4015  1.6054
75979SOL     OW45928   4.982  12.557   6.334  0.8755 -0.4592 -0.1413
75979SOL    HW145929   4.993  12.515   6.419 -4.3664 -0.3285  0.9249
75979SOL    HW245930   4.960  12.485   6.274  0.6013 -0.1359 -0.4332
75980SOL     OW45931  11.689   7.834   6.850  0.7030 -0.0785  0.5574
75980SOL    HW145932  11.609   7.886   6.852  0.4906 -0.4034  0.7350
75980SOL    HW245933  11.695   7.796   6.937  0.2141 -1.2825  0.1002
75981SOL     OW45934   8.935   4.152   2.803 -0.2390 -0.4916 -0.0818
75981SOL    HW145935   8.974   4.150   2.715 -0.1928 -0.4210 -0.0629
75981SOL    HW245936   8.853   4.199   2.792 -0.8896 -1.6453 -0.3505
75982SOL     OW45937   0.689   8.646  13.981  0.5960  1.0779 -0.7364
75982SOL    HW145938   0.608   8.602  13.956  0.2510  0.1815  1.7238
75982SOL    HW245939   0.666   8.739  13.985 -0.9417  0.6778  1.7915
75983SOL     OW45940   4.294   7.952  11.829 -0.0338 -0.1883  0.1660
75983SOL    HW145941   4.300   8.022  11.894 -0.6721 -0.1664  0.2027
75983SOL    HW245942   4.363   7.890  11.855  1.4310  1.0336 -0.6231
75984SOL     OW45943   1.172   8.697   0.790 -0.3537  0.4921 -0.6367
75984SOL    HW145944   1.147   8.786   0.767 -1.2920  0.0989 -1.1962
75984SOL    HW245945   1.212   8.662   0.710  2.1936  1.1200  0.2405
75985SOL     OW45946   9.393   9.366   0.135  0.0251  0.4654 -0.3576
75985SOL    HW145947   9.468   9.310   0.157 -0.7159 -1.4806 -2.4080
75985SOL    HW245948   9.337   9.362   0.213  1.3584  0.7808  0.6503
75986SOL     OW45949  13.336   7.363   2.121  0.0077  0.5110  0.7953
75986SOL    HW145950  13.392   7.321   2.186  1.0360  0.1092 -0.3039
75986SOL    HW245951  13.396   7.401   2.058 -0.9129  2.9908  1.3010
75987SOL     OW45952  11.745   3.696  11.024 -0.4085  0.2536  0.6466
75987SOL    HW145953  11.738   3.767  11.088  0.1986  3.0884 -2.1620
75987SOL    HW245954  11.654   3.668  11.010 -1.3635  3.5792 -1.1548
75988SOL     OW45955   2.146   0.054   6.946 -0.9141  0.6040  0.1511
75988SOL    HW145956   2.155   0.047   6.851  1.6587  1.0721  0.2834
75988SOL    HW245957   2.115  -0.032   6.974 -0.8650  0.1856 -1.0246
75989SOL     OW45958   8.982   3.101   7.028  0.3096 -0.2234  0.0838
75989SOL    HW145959   8.901   3.074   7.072  0.3660 -0.8010 -0.1638
75989SOL    HW245960   9.023   3.019   7.001 -0.3286  0.1290 -2.1638
75990SOL     OW45961   4.054  11.368   7.054  0.0824 -0.1958 -0.3208
75990SOL    HW145962   4.096  11.336   7.134 -0.6957 -0.1913  0.0967
75990SOL    HW245963   3.992  11.433   7.084 -1.4528 -1.4124 -0.7429
75991SOL     OW45964   4.969   8.154  10.442  0.1173 -0.1872 -0.3325
75991SOL    HW145965   5.039   8.094  10.418  0.1508 -0.3367  0.1356
75991SOL    HW245966   4.928   8.178  10.358 -0.3578 -1.4181 -0.4691
75992SOL     OW45967   5.897   9.345   1.303 -0.4317  0.2845  0.4683
75992SOL    HW145968   5.902   9.411   1.372 -0.6524 -0.2792  1.0357
75992SOL    HW245969   5.805   9.347   1.274 -0.9081 -1.0376  1.7766
75993SOL     OW45970   2.042   7.932   0.231 -0.9484 -0.6940  0.0931
75993SOL    HW145971   2.085   8.006   0.273  0.6106 -2.0658  1.0644
75993SOL    HW245972   1.949   7.949   0.240 -0.6386  0.2619  1.9676
75994SOL     OW45973  10.828  12.797   1.826  0.3165 -0.2119  0.0547
75994SOL    HW145974  10.764  12.805   1.755  0.8645 -0.3196 -0.4583
75994SOL    HW245975  10.809  12.871   1.883  2.4115  2.3436 -2.2536
75995SOL     OW45976   5.039   7.295  14.069  0.6333  0.0756  0.0095
75995SOL    HW145977   4.964   7.277  14.013  1.5138  1.0652 -1.5422
75995SOL    HW245978   5.067   7.383  14.045  1.6349  0.1521  1.3276
75996SOL     OW45979   4.073   2.303   5.770 -0.2699 -0.5001 -0.5230
75996SOL    HW145980   4.001   2.288   5.832 -0.9660  2.7429 -0.3328
75996SOL    HW245981   4.032   2.302   5.684 -0.5776  1.1113 -0.4303
75997SOL     OW45982   4.029   3.639   8.747  0.4808 -0.7056 -0.2073
75997SOL    HW145983   4.065   3.607   8.664  2.2478 -1.0715  0.6659
75997SOL    HW245984   3.994   3.561   8.790 -1.1021 -0.4146 -0.8618
75998SOL     OW45985   7.170   8.401   6.937 -0.7488 -0.4770  0.7063
75998SOL    HW145986   7.159   8.405   6.842 -0.0528 -0.9743  0.5974
75998SOL    HW245987   7.263   8.416   6.951 -0.7543 -0.9617  1.2766
75999SOL     OW45988   1.463   5.846   5.245 -0.3419  0.3073  0.3397
75999SOL    HW145989   1.504   5.854   5.332 -0.4700 -0.8728  0.5297
75999SOL    HW245990   1.405   5.921   5.239  0.1144  0.7268  1.0358
76000SOL     OW45991   0.414   3.989   3.278  0.6117  0.5338  0.4418
76000SOL    HW145992   0.449   4.007   3.365  1.3286  0.0499  0.2641
76000SOL    HW245993   0.491   3.974   3.224  0.1611  0.5329 -0.2094
76001SOL     OW45994  11.357   2.422   2.109  0.0828  0.3072 -0.4611
76001SOL    HW145995  11.363   2.492   2.174 -3.8724  1.8316 -1.4511
76001SOL    HW245996  11.335   2.344   2.160  0.6897  0.6293  0.3196
76002SOL     OW45997   1.023  14.105   7.773  0.0313  0.2437 -0.1840
76002SOL    HW145998   0.982  14.108   7.687  1.7240  1.3877 -1.0162
76002SOL    HW245999   1.094  14.041   7.763  0.8336  1.0721  0.0413
76003SOL     OW46000   5.450  13.864   8.782 -0.4714 -0.7721 -0.2070
76003SOL    HW146001   5.506  13.787   8.768  1.1689  0.4509 -0.7539
76003SOL    HW246002   5.511  13.938   8.781 -2.0106  0.5607  0.1895
76004SOL     OW46003   7.112  11.897  10.854 -0.1870 -0.4034  0.6394
76004SOL    HW146004   7.128  11.866  10.765  1.9434  0.4029  0.6808
76004SOL    HW246005   7.017  11.899  10.862 -0.4300 -0.7110 -1.5361
76005SOL     OW46006  11.190   2.380  10.751  0.1682 -0.5268  0.1392
76005SOL    HW146007  11.130   2.453  10.743  0.2449 -0.5969 -1.3528
76005SOL    HW246008  11.275   2.420  10.771 -0.1395 -0.3591  1.1824
76006SOL     OW46009   9.953   5.584   4.552  0.3027  0.7379  0.1305
76006SOL    HW146010   9.988   5.542   4.631  0.7395  2.0762  0.6877
76006SOL    HW246011   9.905   5.660   4.586 -0.9038  0.4171 -0.8025
76007SOL     OW46012  11.204  10.521   9.015  0.1033 -0.3319 -0.1771
76007SOL    HW146013  11.170  10.569   9.091  0.1876  1.2676 -1.1093
76007SOL    HW246014  11.139  10.452   9.001 -0.0202 -0.5417  1.2076
76008SOL     OW46015  12.013   0.146   5.082  0.5382 -0.2546 -0.4079
76008SOL    HW146016  11.957   0.109   5.150 -0.1599  1.1949 -0.1579
76008SOL    HW246017  12.050   0.070   5.037 -2.6433 -1.3246 -1.4601
76009SOL     OW46018   3.633  11.055   0.877  0.3326 -0.1317  0.0746
76009SOL    HW146019   3.704  11.054   0.941 -0.4205  0.8755  0.9724
76009SOL    HW246020   3.660  11.119   0.812  1.6174 -1.9690 -1.2860
76010SOL     OW46021   2.169   5.192   1.720 -0.1080  0.2152  0.1598
76010SOL    HW146022   2.130   5.152   1.798 -0.3870  0.5348  0.1855
76010SOL    HW246023   2.094   5.216   1.666  0.0342  1.1374  0.3566
76011SOL     OW46024  14.145   1.554  10.132  0.3681 -0.5262 -0.1020
76011SOL    HW146025  14.081   1.560  10.202  0.9286  1.7880  0.2812
76011SOL    HW246026  14.095   1.569  10.052  0.0573 -1.1760 -0.0371
76012SOL     OW46027  10.708   8.513   0.168 -0.5588 -0.2704  0.1532
76012SOL    HW146028  10.772   8.500   0.097 -1.3005  0.6551 -0.7158
76012SOL    HW246029  10.710   8.607   0.185  0.4924 -0.6303  2.2535
76013SOL     OW46030   6.603  12.974   3.684  0.4542 -0.2136  0.0877
76013SOL    HW146031   6.624  13.015   3.600  0.4093 -1.6589 -0.6671
76013SOL    HW246032   6.528  13.024   3.717  1.1069  1.0160 -0.2223
76014SOL     OW46033  10.252   0.279   0.824  0.1143 -0.1102 -0.0688
76014SOL    HW146034  10.247   0.369   0.857 -0.3052 -0.1518 -0.0167
76014SOL    HW246035  10.173   0.268   0.771 -0.2634 -0.7033  0.5854
76015SOL     OW46036  11.679  13.801   4.768 -0.3349 -0.2416  1.2192
76015SOL    HW146037  11.620  13.876   4.760 -2.6725 -1.9841  1.1532
76015SOL    HW246038  11.644  13.749   4.840  0.6184 -1.7999  0.6166
76016SOL     OW46039   0.674   5.718  10.053 -0.0482  0.3951  0.3175
76016SOL    HW146040   0.703   5.657   9.985 -0.6654  0.9104 -0.4361
76016SOL    HW246041   0.683   5.669  10.135  1.8160  0.1529  0.0138
76017SOL     OW46042   6.311  13.981   8.429 -0.4624  0.1466 -0.3695
76017SOL    HW146043   6.281  13.900   8.389 -1.1940  1.5378 -2.8031
76017SOL    HW246044   6.287  13.972   8.522  0.3258 -2.7450 -0.3443
76018SOL     OW46045   5.955  10.104   3.844 -0.2722  0.2137 -0.3706
76018SOL    HW146046   6.024  10.075   3.904  0.1617  0.5785 -0.6937
76018SOL    HW246047   5.876  10.059   3.876  0.0026  0.2068  0.3203
76019SOL     OW46048   5.031  11.157   0.456 -0.0130  0.2809  0.4213
76019SOL    HW146049   5.008  11.244   0.488  2.5456  0.7357  1.2243
76019SOL    HW246050   4.990  11.097   0.519 -2.0265  0.8022 -0.2910
76020SOL     OW46051   8.870   8.191  11.551 -0.1353  0.6258 -0.3917
76020SOL    HW146052   8.786   8.237  11.550  0.2636  1.3802 -0.4917
76020SOL    HW246053   8.860   8.121  11.487 -1.0381  0.0392  0.3676
76021SOL     OW46054  13.098   2.664   3.196 -0.5784  0.2375  0.4928
76021SOL    HW146055  13.008   2.690   3.176 -0.1967  0.9750 -0.3833
76021SOL    HW246056  13.121   2.602   3.126  0.0466  1.1468 -0.1352
76022SOL     OW46057  12.088   6.828   5.645 -0.3505 -0.2428 -0.1406
76022SOL    HW146058  12.099   6.778   5.726  2.6501  0.0581 -0.2455
76022SOL    HW246059  12.173   6.821   5.601 -1.2969  1.1659 -2.3828
76023SOL     OW46060   3.858  13.577  10.148  0.5963 -0.1478 -0.4779
76023SOL    HW146061   3.812  13.598  10.229 -1.5723 -0.8933 -1.4457
76023SOL    HW246062   3.802  13.613  10.078  1.9213 -0.3598 -1.6984
76024SOL     OW46063   7.059  10.839   3.177 -0.1905 -0.0045 -0.2160
76024SOL    HW146064   7.148  10.875   3.175  0.2373 -1.0256 -2.1107
76024SOL    HW246065   7.069  10.747   3.153 -1.7026 -0.3318  0.2542
76025SOL     OW46066  11.750  13.935  11.171 -0.1718  0.3651  0.3313
76025SOL    HW146067  11.734  13.963  11.261 -0.9762  2.8680 -0.4899
76025SOL    HW246068  11.670  13.959  11.124  0.8324  0.6239 -1.3350
76026SOL     OW46069  11.007   3.867   3.124 -0.3502 -0.2595  0.0524
76026SOL    HW146070  11.025   3.958   3.100 -0.7559 -0.3325 -0.5561
76026SOL    HW246071  11.087   3.838   3.168 -0.5714  0.6806  1.1374
76027SOL     OW46072   7.602  10.149   7.454 -0.3595 -0.2952  0.3808
76027SOL    HW146073   7.602  10.081   7.520  0.1003  0.0908  0.7852
76027SOL    HW246074   7.576  10.229   7.501  0.2505  0.0392  0.1617
76028SOL     OW46075   9.068  10.415   1.695 -0.6812 -0.6261 -0.0050
76028SOL    HW146076   9.153  10.371   1.686 -0.9861 -1.5550  1.3316
76028SOL    HW246077   9.048  10.410   1.788 -2.4287 -0.8559 -0.3543
76029SOL     OW46078  12.309   9.808   0.673 -0.0490  0.3162 -0.0741
76029SOL    HW146079  12.387   9.807   0.618 -0.7532  2.2030 -1.2350
76029SOL    HW246080  12.240   9.770   0.618  0.4461 -3.9850  1.8793
76030SOL     OW46081   8.978  11.494   8.695 -0.0409 -0.1227 -0.4651
76030SOL    HW146082   9.065  11.456   8.683  0.8304  1.6177 -0.0402
76030SOL    HW246083   8.959  11.537   8.612 -0.4590 -0.3901 -0.5120
76031SOL     OW46084  11.911   2.808   4.568  0.0983  0.1321 -0.3387
76031SOL    HW146085  11.994   2.760   4.572 -0.3067 -0.6714 -1.1975
76031SOL    HW246086  11.935   2.899   4.586  0.8815 -0.3634  1.3607
76032SOL     OW46087   8.714   0.735   2.496 -0.0416  0.2586  0.8746
76032SOL    HW146088   8.747   0.645   2.501 -0.8032 -0.0720  0.1156
76032SOL    HW246089   8.681   0.743   2.407 -1.4160  0.7943  1.4078
76033SOL     OW46090   7.187   2.190   7.384  0.2646  0.0513 -0.5026
76033SOL    HW146091   7.157   2.259   7.325  0.9104  0.8929  0.1210
76033SOL    HW246092   7.195   2.233   7.469  0.3292 -0.8895 -0.0204
76034SOL     OW46093  11.394   3.259  13.535 -0.8409  0.4554 -0.1753
76034SOL    HW146094  11.406   3.316  13.459 -1.0134 -1.3577 -1.6223
76034SOL    HW246095  11.470   3.201  13.532 -1.4975 -0.4316  0.3158
76035SOL     OW46096   3.155  11.828   4.032  0.4448  0.5045 -0.3045
76035SOL    HW146097   3.091  11.781   4.086  3.4171 -0.1914  2.9600
76035SOL    HW246098   3.179  11.765   3.964 -0.4009 -0.1777  0.0021
76036SOL     OW46099   7.768   4.551   9.079 -0.5598  0.2129 -0.8908
76036SOL    HW146100   7.860   4.577   9.076 -0.4610 -0.0839 -0.5944
76036SOL    HW246101   7.752   4.512   8.993  0.0957 -1.3410 -0.3586
76037SOL     OW46102  11.409   4.724  13.953 -0.1935  0.0290 -0.1377
76037SOL    HW146103  11.493   4.689  13.981 -0.1394  0.9398  0.8877
76037SOL    HW246104  11.397   4.690  13.864  0.2723 -1.7988  0.4641
76038SOL     OW46105   3.409   2.816   2.450 -0.3996 -0.2899 -0.0745
76038SOL    HW146106   3.415   2.911   2.466 -1.0955 -0.6480  2.8418
76038SOL    HW246107   3.362   2.809   2.367 -0.3713  1.9151 -0.3459
76039SOL     OW46108   7.438  10.356   6.515  0.3873  0.2026  0.1394
76039SOL    HW146109   7.382  10.418   6.563 -0.4247 -0.3163 -0.1315
76039SOL    HW246110   7.447  10.394   6.428  0.0166  0.0148  0.0202
76040SOL     OW46111   6.806   7.878  11.701 -0.2420 -0.2025 -0.3281
76040SOL    HW146112   6.753   7.799  11.704  1.0460 -1.1973 -1.7916
76040SOL    HW246113   6.745   7.950  11.718 -1.7839 -1.3725 -0.7378
76041SOL     OW46114   7.110   3.021   0.914 -0.2471 -0.5628  0.5619
76041SOL    HW146115   7.147   2.970   0.841  1.8846  1.0303  0.4466
76041SOL    HW246116   7.170   3.007   0.986  0.1612  1.4018  0.6508
76042SOL     OW46117   6.966   2.988   0.090 -0.5254  0.2567 -0.7284
76042SOL    HW146118   6.920   2.973   0.173  0.7845 -0.9257 -0.1728
76042SOL    HW246119   6.963   3.083   0.079 -1.6902  0.3430  0.0935
76043SOL     OW46120   2.352   9.939   5.814  0.6507 -0.3864  0.6094
76043SOL    HW146121   2.304   9.859   5.835 -0.8144  0.2000 -0.4024
76043SOL    HW246122   2.356   9.941   5.718 -0.4003  1.3330  0.5604
76044SOL     OW46123   6.811   2.757   6.248 -0.0652  0.2275  0.4758
76044SOL    HW146124   6.757   2.723   6.320 -0.4864  0.6890  0.3841
76044SOL    HW246125   6.894   2.782   6.290 -0.0751 -0.0880  0.6905
76045SOL     OW46126   7.295   8.572   9.844  0.9216 -0.0351 -0.3061
76045SOL    HW146127   7.382   8.564   9.804  1.3077 -1.2379  0.7101
76045SOL    HW246128   7.301   8.650   9.899  1.4471 -0.2179 -0.0899
76046SOL     OW46129  12.246   7.584   6.898  0.0479 -0.1445 -0.2341
76046SOL    HW146130  12.250   7.535   6.979 -1.7271 -0.3746 -0.2330
76046SOL    HW246131  12.257   7.676   6.924  0.2753 -0.2874  0.1640
76047SOL     OW46132   9.459  13.312   3.980 -0.4404 -0.2463  0.2940
76047SOL    HW146133   9.553  13.325   3.993 -0.3304 -0.8262  0.0903
76047SOL    HW246134   9.443  13.348   3.892 -0.9303  2.3758  1.3479
76048SOL     OW46135   9.266   8.679   8.521 -0.2942  0.0922  0.0083
76048SOL    HW146136   9.226   8.745   8.578 -2.4338 -1.0694 -0.0525
76048SOL    HW246137   9.222   8.598   8.544  0.7693 -0.9242 -1.4117
76049SOL     OW46138   9.626   1.352   6.082  0.1093 -0.1260  0.1358
76049SOL    HW146139   9.593   1.287   6.020  0.3790 -0.9984  0.8923
76049SOL    HW246140   9.708   1.316   6.114 -0.3314  0.0040  1.4743
76050SOL     OW46141   9.754   7.208   7.950 -0.4232  0.4217  0.3455
76050SOL    HW146142   9.680   7.170   7.904 -1.7178  0.0520  2.5952
76050SOL    HW246143   9.792   7.135   8.000  1.4200  0.6304 -0.6548
76051SOL     OW46144   1.540   3.032   1.668  0.1203 -0.3128  0.2473
76051SOL    HW146145   1.501   3.014   1.582 -0.8862 -1.0208  0.8221
76051SOL    HW246146   1.549   2.946   1.708  1.5304 -0.0724  0.4696
76052SOL     OW46147   0.163  11.413   4.287 -0.2786 -0.2641  0.2321
76052SOL    HW146148   0.125  11.389   4.202  0.1095 -0.1391  0.0233
76052SOL    HW246149   0.162  11.332   4.337  0.1948 -0.5144 -0.1575
76053SOL     OW46150  12.257  11.256   5.444  0.1702 -0.3085 -0.2114
76053SOL    HW146151  12.293  11.344   5.433 -1.3107  0.2521 -0.8928
76053SOL    HW246152  12.209  11.260   5.527 -1.1226 -0.0014 -0.9500
76054SOL     OW46153   2.788  12.492   7.588 -0.0875 -0.0185 -0.1385
76054SOL    HW146154   2.759  12.460   7.502  0.2215 -1.9729  0.4459
76054SOL    HW246155   2.842  12.569   7.568  2.5595 -2.1658 -2.0108
76055SOL     OW46156   9.770   0.862   7.314 -0.3316 -0.5613 -0.7452
76055SOL    HW146157   9.836   0.865   7.383  2.1937  0.2833 -3.0412
76055SOL    HW246158   9.712   0.935   7.333  2.1698  1.6721 -1.1347
76056SOL     OW46159   5.386   6.356  10.109 -0.1778  0.1866  0.0248
76056SOL    HW146160   5.360   6.291  10.043  2.1951 -1.3146  0.4645
76056SOL    HW246161   5.388   6.438  10.061  1.1360 -0.8028 -1.7457
76057SOL     OW46162   9.078   2.768   3.809  0.2592  0.1709  0.2835
76057SOL    HW146163   9.152   2.717   3.777  2.0673  2.4813  0.5169
76057SOL    HW246164   9.050   2.722   3.888  1.7185 -0.5310  0.4281
76058SOL     OW46165  13.127   9.556   2.451  0.1056  0.5403  0.6968
76058SOL    HW146166  13.171   9.562   2.366  0.5739  1.6904  1.0139
76058SOL    HW246167  13.154   9.471   2.485 -1.9698 -1.0827 -1.3135
76059SOL     OW46168   9.652   5.150   3.446  0.2363 -0.4736 -0.0410
76059SOL    HW146169   9.650   5.191   3.533 -1.7818  0.8326 -0.6390
76059SOL    HW246170   9.719   5.198   3.398 -0.0583  0.1801  0.1912
76060SOL     OW46171   3.033   7.053  11.868  0.1081 -0.6437  0.3967
76060SOL    HW146172   2.985   7.074  11.788 -0.5992  0.7539  1.1568
76060SOL    HW246173   3.029   6.958  11.874 -0.2126 -0.7378 -0.9860
76061SOL     OW46174  12.250  12.730  13.176 -0.2464  0.0830 -0.0821
76061SOL    HW146175  12.325  12.714  13.234 -0.8497 -1.1142  0.4167
76061SOL    HW246176  12.280  12.701  13.090 -0.0793 -0.2427  0.0836
76062SOL     OW46177   4.413   0.284  13.420 -0.5961  0.0786  0.0598
76062SOL    HW146178   4.473   0.325  13.358 -0.0602 -1.6225 -0.6155
76062SOL    HW246179   4.364   0.221  13.366  0.3767 -1.9693  1.4321
76063SOL     OW46180   6.080   7.644   5.678 -0.1996  0.0933  0.1261
76063SOL    HW146181   6.007   7.602   5.633  0.2393  0.1244 -0.6287
76063SOL    HW246182   6.113   7.707   5.614 -1.3177  2.1609  1.4727
76064SOL     OW46183   7.995  14.121  14.123  0.4548  0.1104 -0.1961
76064SOL    HW146184   8.039  14.150  14.043 -1.6709 -0.0536 -1.4848
76064SOL    HW246185   8.063  14.128  14.191  1.9739  1.4162 -1.7500
76065SOL     OW46186   8.152   0.605  12.014  0.0810 -0.2181  0.2217
76065SOL    HW146187   8.138   0.533  11.953 -0.3548  0.2257 -0.2115
76065SOL    HW246188   8.066   0.644  12.027  0.3688  0.4847  0.1146
76066SOL     OW46189   8.699   5.566   9.049  0.5203 -0.5732 -0.1080
76066SOL    HW146190   8.648   5.583   8.970 -0.5815  0.5712  0.7814
76066SOL    HW246191   8.729   5.653   9.077 -1.9866 -0.3808  2.5133
76067SOL     OW46192   3.998   8.821   8.817 -0.2911 -0.3990 -0.0079
76067SOL    HW146193   3.987   8.831   8.722  0.1972 -0.0419 -0.0286
76067SOL    HW246194   3.970   8.905   8.853  0.2072 -0.2806  0.1078
76068SOL     OW46195  11.945   7.812   8.190  0.0974 -0.4785  0.4348
76068SOL    HW146196  11.975   7.902   8.177 -1.3307  0.0381  0.5250
76068SOL    HW246197  12.005   7.759   8.138  0.1733  0.6536 -0.6798
76069SOL     OW46198   9.123   5.733   3.698 -0.3448 -0.5762 -0.0859
76069SOL    HW146199   9.132   5.761   3.607  0.3445  1.6200  0.6015
76069SOL    HW246200   9.207   5.690   3.717  0.3378  0.7541  0.0564
76070SOL     OW46201   2.094  11.684   5.463 -0.0532 -0.0272 -0.0935
76070SOL    HW146202   2.072  11.777   5.466  1.9275  0.4689  0.6859
76070SOL    HW246203   2.056  11.652   5.381 -3.8111  0.5779  1.2291
76071SOL     OW46204  11.895   9.121   2.790  0.1426 -0.5819 -1.0277
76071SOL    HW146205  11.971   9.129   2.733  0.2762 -1.9819 -1.0815
76071SOL    HW246206  11.828   9.174   2.748  1.5745  2.2064 -0.0203
76072SOL     OW46207  13.541   4.953  11.542  0.5031 -0.3560 -0.9347
76072SOL    HW146208  13.596   5.013  11.491  2.1232 -0.2431  0.8366
76072SOL    HW246209  13.492   5.010  11.601  2.1461 -0.6781  0.8513
76073SOL     OW46210   4.895   2.714   8.650  0.0894 -0.6734 -0.1964
76073SOL    HW146211   4.939   2.735   8.733  0.1430 -2.8053  0.3797
76073SOL    HW246212   4.966   2.694   8.589  0.0304  0.2253 -0.5628
76074SOL     OW46213   5.902   5.108   0.580  0.3347 -0.0625 -0.5937
76074SOL    HW146214   5.921   5.098   0.673 -0.0342 -0.5260 -0.5595
76074SOL    HW246215   5.809   5.130   0.577  0.8186  2.1631 -0.7505
76075SOL     OW46216   6.156   9.924   8.204  0.1315  0.2711 -0.2249
76075SOL    HW146217   6.203  10.003   8.174  0.9668  0.4030  1.3620
76075SOL    HW246218   6.064   9.950   8.201  0.3986  1.3692  0.4079
76076SOL     OW46219   5.533  12.123  11.360  0.3034  0.4017 -0.4423
76076SOL    HW146220   5.588  12.126  11.438 -0.0680  0.8585 -0.1955
76076SOL    HW246221   5.560  12.042  11.315 -0.0999 -0.3376  0.6082
76077SOL     OW46222   4.130  11.237  10.619  0.0771 -0.1305  0.7163
76077SOL    HW146223   4.105  11.319  10.575 -4.4267 -1.1019  0.9476
76077SOL    HW246224   4.209  11.208  10.573 -0.6108  2.2182 -2.2600
76078SOL     OW46225   6.112   0.254   3.364  0.2991  0.0881  0.4785
76078SOL    HW146226   6.190   0.200   3.377 -0.5215 -1.2486  0.0658
76078SOL    HW246227   6.140   0.324   3.306  0.6598 -1.7687 -1.7399
76079SOL     OW46228   5.153  13.457   6.368 -0.2188  0.5987  0.6210
76079SOL    HW146229   5.103  13.458   6.449 -0.6221  0.9156  0.3714
76079SOL    HW246230   5.198  13.372   6.368 -1.6902 -0.2162  0.2788
76080SOL     OW46231  11.493   8.900   3.059  0.0391 -0.4441  0.4152
76080SOL    HW146232  11.490   8.971   2.995  2.2585  0.8582  1.6057
76080SOL    HW246233  11.405   8.897   3.097 -0.0946  1.7783  0.3960
76081SOL     OW46234   5.598  10.856   8.275 -0.1385 -0.0694  0.2087
76081SOL    HW146235   5.530  10.880   8.338 -0.9013  1.5409 -1.1582
76081SOL    HW246236   5.678  10.897   8.308 -1.2188  4.0000 -1.5931
76082SOL     OW46237   0.615   1.676   2.224 -0.0640  0.7518 -0.1703
76082SOL    HW146238   0.666   1.755   2.206  2.4820 -0.3450  1.7145
76082SOL    HW246239   0.598   1.679   2.318 -0.2478 -0.7587 -0.1319
76083SOL     OW46240  13.856   9.198   0.887 -0.5187  0.1192  0.2569
76083SOL    HW146241  13.948   9.198   0.864 -0.2009  0.9868  1.4458
76083SOL    HW246242  13.826   9.109   0.867  0.3670  0.0451 -0.8474
76084SOL     OW46243   6.672   2.069   8.390  0.2484  0.3679 -0.3620
76084SOL    HW146244   6.602   2.031   8.336 -0.5304  0.1376  0.7609
76084SOL    HW246245   6.652   2.162   8.393 -0.9500  0.1034  1.2088
76085SOL     OW46246   2.328   1.011   2.897  0.7811 -0.2594  0.1569
76085SOL    HW146247   2.321   0.925   2.856 -1.9747  0.1592 -0.4349
76085SOL    HW246248   2.248   1.021   2.947  0.9093  2.0433  0.0258
76086SOL     OW46249   0.756  11.644   4.985 -0.1760  0.0716  0.0042
76086SOL    HW146250   0.688  11.662   5.050 -0.2790 -0.6411  0.1061
76086SOL    HW246251   0.709  11.611   4.909 -0.0822  1.1952 -0.5602
76087SOL     OW46252   2.256  10.291   4.622 -0.2709  0.4108 -0.0668
76087SOL    HW146253   2.168  10.307   4.656  0.1567 -0.1717  1.4185
76087SOL    HW246254   2.272  10.198   4.639  0.8841  0.6632  0.3691
76088SOL     OW46255  11.309   9.157   9.705 -0.5551 -0.3777 -0.2862
76088SOL    HW146256  11.219   9.178   9.682 -0.1254  0.2985 -1.4748
76088SOL    HW246257  11.316   9.062   9.693 -1.4077 -0.6175  0.9833
76089SOL     OW46258   5.700   1.023  13.206  0.1052  0.4738  0.3196
76089SOL    HW146259   5.700   1.080  13.283  3.7066  0.8160  0.2514
76089SOL    HW246260   5.667   0.939  13.238  0.8677  0.8029  2.1050
76090SOL     OW46261   3.792  13.844   3.305  0.1446  0.1840 -0.3697
76090SOL    HW146262   3.718  13.904   3.295 -1.4265 -1.8327 -1.9569
76090SOL    HW246263   3.758  13.775   3.363  1.7944  0.5979  1.1769
76091SOL     OW46264   5.110   0.070   9.074  0.0355  0.0258 -0.1947
76091SOL    HW146265   5.076   0.154   9.042 -0.1357 -0.3485 -1.0313
76091SOL    HW246266   5.171   0.042   9.005 -0.0587 -0.6251 -0.0189
76092SOL     OW46267   7.613   6.869   7.611  1.0243 -0.0475 -0.3413
76092SOL    HW146268   7.541   6.890   7.551  1.2405 -0.0565 -0.6036
76092SOL    HW246269   7.692   6.898   7.565  1.0715  1.3148  0.5431
76093SOL     OW46270   0.264   6.260   5.755  0.1258  0.3337 -0.3067
76093SOL    HW146271   0.206   6.289   5.826  0.4172  1.1435 -0.3915
76093SOL    HW246272   0.314   6.188   5.794 -0.4745  0.0529 -0.0315
76094SOL     OW46273   4.925   4.160  12.617  0.0449 -0.1198 -0.2944
76094SOL    HW146274   5.000   4.101  12.622  0.0770 -0.1428 -0.9285
76094SOL    HW246275   4.951   4.227  12.553 -0.6133 -0.3431 -0.8186
76095SOL     OW46276   4.140  11.112   8.546  0.4494  0.3366 -0.1045
76095SOL    HW146277   4.170  11.195   8.583 -0.3503  0.9244 -0.7212
76095SOL    HW246278   4.216  11.077   8.500  1.0108  0.3480  0.7988
76096SOL     OW46279   4.094   7.492  12.550  0.2713  0.3805 -0.0927
76096SOL    HW146280   4.060   7.564  12.604  0.3479  0.0282  0.4368
76096SOL    HW246281   4.045   7.498  12.468 -0.6377  0.2576  0.4256
76097SOL     OW46282   6.590   0.191   4.115 -0.1162 -0.2848 -0.1431
76097SOL    HW146283   6.546   0.108   4.101  0.1776 -0.6206  0.8335
76097SOL    HW246284   6.634   0.209   4.032 -1.2474 -0.4350 -0.8008
76098SOL     OW46285  11.821  11.362   6.646  0.0793  0.0961  0.1648
76098SOL    HW146286  11.790  11.272   6.642 -1.1498  0.4694  0.6840
76098SOL    HW246287  11.851  11.382   6.558 -0.7265 -0.4632 -0.2476
76099SOL     OW46288   6.761   8.115   0.155 -0.1639 -0.5319  0.2964
76099SOL    HW146289   6.841   8.123   0.104 -0.0954  0.2315  0.4987
76099SOL    HW246290   6.707   8.190   0.127 -0.8009 -1.0257  0.1719
76100SOL     OW46291   5.009   4.335  10.059 -0.4979 -0.6919 -0.3613
76100SOL    HW146292   5.102   4.353  10.068 -0.6058 -0.1368 -0.3173
76100SOL    HW246293   5.004   4.243  10.033  0.0789 -0.5946 -0.8296
76101SOL     OW46294  12.722   1.023  10.908 -0.0467  0.4769  0.4112
76101SOL    HW146295  12.704   1.088  10.840 -1.0761 -0.4793 -0.2466
76101SOL    HW246296  12.796   0.973  10.874 -0.2366  0.3211  0.2309
76102SOL     OW46297  13.406   9.323  10.801  0.2246 -0.1446  0.2688
76102SOL    HW146298  13.457   9.306  10.880  0.6454  0.2246  0.0843
76102SOL    HW246299  13.352   9.245  10.789 -1.9572  0.9195  2.4955
76103SOL     OW46300   8.319   5.618   1.787 -0.2305 -0.1972 -0.0976
76103SOL    HW146301   8.401   5.664   1.801 -1.4245  1.4547  2.0589
76103SOL    HW246302   8.345   5.533   1.749  2.4382  0.1986  0.6442
76104SOL     OW46303   9.024   4.936  13.882 -0.0755 -0.3806 -0.1929
76104SOL    HW146304   9.099   4.893  13.923 -0.0832  0.0019  0.2295
76104SOL    HW246305   8.975   4.865  13.842 -0.0061 -0.7487  0.3666
76105SOL     OW46306   2.914   5.499  10.517 -0.1172 -0.9360 -0.5925
76105SOL    HW146307   2.948   5.413  10.543  1.2881 -1.4778 -3.7667
76105SOL    HW246308   2.922   5.500  10.421 -1.8684  2.0354 -0.8282
76106SOL     OW46309   3.115   7.432   0.243 -0.7655  0.1045  0.1550
76106SOL    HW146310   3.024   7.404   0.255 -0.6002 -0.5160 -0.0025
76106SOL    HW246311   3.108   7.524   0.215 -1.3379  0.0937  0.2431
76107SOL     OW46312   6.785  11.681   8.404 -0.3864  0.0713 -0.3043
76107SOL    HW146313   6.843  11.632   8.346  2.1347  2.5369 -0.0800
76107SOL    HW246314   6.789  11.771   8.372 -1.0650  1.0297  2.0477
76108SOL     OW46315   9.253  11.034   6.892 -0.4951 -0.8146  0.1578
76108SOL    HW146316   9.251  11.020   6.797 -2.3457 -2.7924  0.3890
76108SOL    HW246317   9.196  11.110   6.906  0.4212 -0.0144 -0.3421
76109SOL     OW46318  14.023  10.584  13.612 -0.2683  0.1463 -0.3663
76109SOL    HW146319  14.006  10.624  13.526 -0.3926  2.5962  0.7106
76109SOL    HW246320  14.000  10.653  13.675  1.0293 -1.1322  1.6057
76110SOL     OW46321   2.049   6.598   9.343 -0.8317 -0.2816 -0.0199
76110SOL    HW146322   2.089   6.621   9.259 -2.1307 -2.3936 -1.3103
76110SOL    HW246323   2.123   6.579   9.401  0.0782 -0.3965 -1.1917
76111SOL     OW46324   8.203  13.166   0.275  0.7209  0.1327 -0.3842
76111SOL    HW146325   8.172  13.231   0.338 -2.1841  1.2114 -2.7158
76111SOL    HW246326   8.246  13.100   0.329 -0.6639  1.4849  2.6212
76112SOL     OW46327  10.601   9.598   2.598 -0.4168  1.1427 -0.2274
76112SOL    HW146328  10.646   9.682   2.587  2.2297  0.4478  3.5025
76112SOL    HW246329  10.641   9.541   2.533 -1.1911  2.3020 -1.7979
76113SOL     OW46330  14.108   9.274  10.409  0.2139 -0.2693  0.3124
76113SOL    HW146331  14.043   9.289  10.478  0.0974 -1.2326  0.4260
76113SOL    HW246332  14.116   9.359  10.365 -1.4518 -0.2374  0.0063
76114SOL     OW46333   7.130   6.880  12.992  0.1359 -0.1878  0.8316
76114SOL    HW146334   7.063   6.818  13.021 -0.1169 -0.5664 -0.5055
76114SOL    HW246335   7.145   6.936  13.068 -1.4559 -0.3163  1.2735
76115SOL     OW46336  10.214   9.728  11.185 -0.6917 -0.9438 -0.8374
76115SOL    HW146337  10.213   9.705  11.091  0.1373  1.5513 -1.5300
76115SOL    HW246338  10.306   9.723  11.209 -0.6836  0.1675 -0.6316
76116SOL     OW46339   0.880  11.389  13.512  0.0694 -0.5787  0.5604
76116SOL    HW146340   0.814  11.453  13.540  0.5551  0.4159 -0.4801
76116SOL    HW246341   0.851  11.363  13.425  0.9687 -0.2361  0.1518
76117SOL     OW46342   8.411   7.607   7.537 -0.1960 -0.2513 -0.2751
76117SOL    HW146343   8.356   7.677   7.502 -0.7641  0.3281  1.6723
76117SOL    HW246344   8.487   7.606   7.480 -0.9437  0.8103 -1.3493
76118SOL     OW46345   5.830   4.455   6.887 -0.1400  0.1140  1.0673
76118SOL    HW146346   5.817   4.538   6.932 -0.6645  0.9657 -0.5936
76118SOL    HW246347   5.890   4.476   6.815 -1.2845 -0.6443 -0.1424
76119SOL     OW46348   1.684   8.502   5.087  0.1947  0.3034 -0.0672
76119SOL    HW146349   1.718   8.426   5.134 -1.0115 -0.9909 -1.2061
76119SOL    HW246350   1.694   8.480   4.994 -2.8883  0.1759 -0.4691
76120SOL     OW46351  12.194   4.047   0.834  0.1244  0.0036  0.1650
76120SOL    HW146352  12.164   4.127   0.792 -1.0007 -0.3162  0.3170
76120SOL    HW246353  12.128   3.981   0.810  1.2055 -0.9603 -0.2314
76121SOL     OW46354  11.888   4.652  10.201  0.1931 -0.2499 -0.1807
76121SOL    HW146355  11.880   4.618  10.112 -1.7099  1.2400 -0.6588
76121SOL    HW246356  11.865   4.578  10.258  3.0172 -1.7059 -0.7356
76122SOL     OW46357  11.625   5.246  13.740  0.0885 -0.3496  0.6999
76122SOL    HW146358  11.636   5.163  13.694  1.4378  0.1471  0.0583
76122SOL    HW246359  11.713   5.265  13.775 -0.4204  0.3407  1.6416
76123SOL     OW46360   3.566  12.568   5.419  0.4045 -0.2467  0.2405
76123SOL    HW146361   3.487  12.538   5.373 -0.6593  0.7778  1.3286
76123SOL    HW246362   3.636  12.512   5.385 -0.9991 -2.0626  0.1655
76124SOL     OW46363   3.939   7.841   2.049 -0.5228 -0.7273  0.0957
76124SOL    HW146364   4.026   7.876   2.033 -1.3085  1.6141  0.4963
76124SOL    HW246365   3.940   7.754   2.010  2.3101 -1.2285  1.0828
76125SOL     OW46366   8.657   3.220   4.530  0.2538  0.0997  0.4550
76125SOL    HW146367   8.638   3.159   4.601 -0.4441 -0.0949  0.1134
76125SOL    HW246368   8.748   3.246   4.544  0.6903 -1.3276  0.3754
76126SOL     OW46369   6.622   0.028   1.835  0.1326 -0.2943  0.1598
76126SOL    HW146370   6.638  -0.055   1.878 -0.0490  0.2264  1.2565
76126SOL    HW246371   6.703   0.047   1.788  0.4818 -0.6691  0.6051
76127SOL     OW46372  12.428  12.969  14.094 -0.5309  0.0943  0.2520
76127SOL    HW146373  12.353  12.998  14.042 -0.3948  0.0422  0.0248
76127SOL    HW246374  12.455  13.047  14.142 -0.3661  0.2702 -0.1145
76128SOL     OW46375   2.833   7.257   4.520 -0.3226 -0.3931  0.1690
76128SOL    HW146376   2.844   7.229   4.429 -1.9706  1.8736 -0.8286
76128SOL    HW246377   2.919   7.292   4.545 -0.3876  0.9832 -1.3374
76129SOL     OW46378   6.964  10.749  13.985 -0.4754 -0.0230 -0.0968
76129SOL    HW146379   6.964  10.655  14.007 -1.0838  0.1559  0.7165
76129SOL    HW246380   6.927  10.752  13.897 -0.8948 -0.5209  0.0533
76130SOL     OW46381   1.162  12.027   9.495  0.0357 -0.0943  0.6838
76130SOL    HW146382   1.109  11.976   9.557 -1.3069  2.2023  1.5770
76130SOL    HW246383   1.160  12.116   9.530  2.4437  0.5737 -0.6681
76131SOL     OW46384   0.570   7.525   8.070 -0.2883 -0.5638  0.2372
76131SOL    HW146385   0.650   7.531   8.123  0.4362 -0.1361 -0.8834
76131SOL    HW246386   0.585   7.584   7.997 -0.6589 -2.2051 -1.2271
76132SOL     OW46387  13.714   1.184   4.971  0.4723 -0.1819  0.2986
76132SOL    HW146388  13.667   1.267   4.962 -2.1361 -1.6729 -1.3705
76132SOL    HW246389  13.754   1.170   4.885 -0.5621 -1.3782 -0.0224
76133SOL     OW46390   2.567   2.991  13.170 -0.1027 -0.1580 -0.1143
76133SOL    HW146391   2.657   3.010  13.197 -0.3827  2.0624 -0.5538
76133SOL    HW246392   2.521   2.970  13.252  0.5029  0.0464  0.2836
76134SOL     OW46393  12.529   4.131   0.396 -0.3614 -0.2341 -0.4216
76134SOL    HW146394  12.577   4.213   0.408  0.2591 -0.6801  0.2422
76134SOL    HW246395  12.484   4.142   0.313  3.5083 -1.0588 -2.8851
76135SOL     OW46396  13.689   5.027   9.813 -0.0371 -0.1700  0.6482
76135SOL    HW146397  13.641   4.962   9.763  2.5198 -2.6545  1.1504
76135SOL    HW246398  13.650   5.024   9.900 -0.5223 -0.3787  0.4250
76136SOL     OW46399  11.738   4.512   0.182  0.0524 -0.0108 -0.4001
76136SOL    HW146400  11.814   4.501   0.239 -0.7762  0.5696  0.8514
76136SOL    HW246401  11.665   4.476   0.231 -0.6770  0.4710 -1.1074
76137SOL     OW46402   8.012   8.609   5.614  0.5211  0.0316 -0.2905
76137SOL    HW146403   8.027   8.623   5.708  0.6000  1.1266 -0.4476
76137SOL    HW246404   7.951   8.679   5.590 -0.4481 -0.9668 -0.8197
76138SOL     OW46405   5.070   6.306   3.414 -0.1867  0.9985 -0.3215
76138SOL    HW146406   5.096   6.257   3.336 -0.4363  0.6259 -0.1740
76138SOL    HW246407   5.020   6.243   3.467  0.1272  1.1954  0.2208
76139SOL     OW46408   3.171  13.929   6.270 -0.1643  0.4182  0.2260
76139SOL    HW146409   3.158  14.015   6.231  0.2093  1.6249  2.5463
76139SOL    HW246410   3.093  13.915   6.324 -0.3558 -0.8476 -0.3565
76140SOL     OW46411   3.395   5.112  10.639  0.2815 -0.3574  0.6170
76140SOL    HW146412   3.473   5.062  10.616 -0.1498 -0.6012 -0.3768
76140SOL    HW246413   3.325   5.074  10.584 -0.6196 -0.4082  1.7616
76141SOL     OW46414   7.743  10.870   9.339  0.2352  0.4348  0.1095
76141SOL    HW146415   7.756  10.793   9.395 -0.6579 -1.3206 -1.9523
76141SOL    HW246416   7.699  10.836   9.262  0.6418  2.9030 -1.3095
76142SOL     OW46417   9.471   1.263   8.518  0.0051  0.6335  0.3046
76142SOL    HW146418   9.508   1.330   8.574  0.6706  0.9223 -0.4625
76142SOL    HW246419   9.385   1.297   8.493  0.7018  1.6351 -0.8054
76143SOL     OW46420  12.054  11.822   1.202 -0.4569 -0.0550 -0.1089
76143SOL    HW146421  12.137  11.848   1.163 -0.3483 -0.9920 -0.5406
76143SOL    HW246422  11.989  11.840   1.135 -0.3190 -1.3044 -0.6072
76144SOL     OW46423  13.270  13.682  10.368  0.4473  0.2360  0.2756
76144SOL    HW146424  13.224  13.608  10.407 -0.0364 -0.2052 -1.0586
76144SOL    HW246425  13.268  13.664  10.274 -0.5897  2.4440 -0.1858
76145SOL     OW46426   8.729   4.473   0.357  0.5775  0.4745 -0.4713
76145SOL    HW146427   8.754   4.451   0.267 -0.2309 -0.2460 -0.5370
76145SOL    HW246428   8.720   4.388   0.400  0.6911  0.8090  0.2148
76146SOL     OW46429  12.723   8.497  12.463  0.1604 -0.6117 -0.4170
76146SOL    HW146430  12.706   8.425  12.402  2.2103 -0.8902 -0.7424
76146SOL    HW246431  12.734   8.455  12.548  1.0325 -0.6602 -0.5477
76147SOL     OW46432  12.286   5.180   5.311  0.4137 -0.3585  0.0827
76147SOL    HW146433  12.315   5.112   5.371  2.8094  0.2374 -0.2844
76147SOL    HW246434  12.198   5.204   5.342  1.3724 -0.3517  3.1240
76148SOL     OW46435   1.725  11.023   6.223  0.1092  0.6586 -0.2526
76148SOL    HW146436   1.674  10.976   6.157 -0.6567  0.9785  0.0950
76148SOL    HW246437   1.743  10.958   6.291  0.9313  0.3198 -0.7831
76149SOL     OW46438   8.219   8.894   5.761  0.1383  0.0291  0.1676
76149SOL    HW146439   8.245   8.881   5.669  2.2078 -0.6978  0.8075
76149SOL    HW246440   8.254   8.980   5.783 -1.9353  1.0349 -0.1798
76150SOL     OW46441   1.439  10.495   4.806  0.3540 -0.3133 -0.4579
76150SOL    HW146442   1.498  10.506   4.880  1.1847  2.3285 -1.3973
76150SOL    HW246443   1.491  10.518   4.730 -1.0987 -0.7812 -1.6539
76151SOL     OW46444   4.520   1.485  12.264 -0.1554  0.5844  0.0842
76151SOL    HW146445   4.467   1.414  12.301 -0.8847  0.7292 -0.6482
76151SOL    HW246446   4.597   1.442  12.228  0.1902  0.3576  1.0628
76152SOL     OW46447  11.751  13.039   5.543  0.2438 -0.3792 -0.3401
76152SOL    HW146448  11.769  12.970   5.478 -1.5717 -1.6323  0.4247
76152SOL    HW246449  11.798  13.115   5.509  1.3582 -1.6526 -1.8418
76153SOL     OW46450   3.500  10.483   5.822 -0.3142 -0.3144 -0.8094
76153SOL    HW146451   3.501  10.572   5.787 -3.5345  0.2823  0.2830
76153SOL    HW246452   3.533  10.492   5.912 -1.1073 -0.0753 -0.5282
76154SOL     OW46453   9.075  11.889  10.954 -0.0987 -0.3331 -0.0999
76154SOL    HW146454   9.088  11.977  10.990 -2.2382 -0.5423  1.3697
76154SOL    HW246455   9.030  11.903  10.871 -1.4533 -0.0354  0.6603
76155SOL     OW46456  12.533   8.436   0.987  0.1053 -0.1696  0.0423
76155SOL    HW146457  12.459   8.388   1.025 -0.0556  1.1932  1.5257
76155SOL    HW246458  12.492   8.498   0.927 -0.0210  0.8160  1.1138
76156SOL     OW46459  13.219   2.642   5.580 -0.1348  0.5027  0.0441
76156SOL    HW146460  13.282   2.611   5.644 -0.3915 -1.3530 -0.5483
76156SOL    HW246461  13.272   2.668   5.504 -0.0188 -0.1111 -0.0849
76157SOL     OW46462   2.499  10.428   8.330 -0.1529  0.1915 -0.0577
76157SOL    HW146463   2.434  10.462   8.269  0.3310  1.4617  0.1015
76157SOL    HW246464   2.556  10.503   8.348  0.9864 -0.7309  0.2821
76158SOL     OW46465   0.910   1.776   8.695 -0.0964  0.2970  0.4406
76158SOL    HW146466   0.973   1.818   8.637 -0.9970  0.5816 -0.3597
76158SOL    HW246467   0.963   1.735   8.763  0.8569  2.3897  1.0418
76159SOL     OW46468   9.086  10.576   5.885 -0.3569 -0.2166 -0.0208
76159SOL    HW146469   9.123  10.521   5.954  0.8593  0.9297  0.3029
76159SOL    HW246470   9.138  10.555   5.807 -0.1329  0.1913  0.0150
76160SOL     OW46471   1.759   1.047   5.674  0.0950  0.3310 -0.1771
76160SOL    HW146472   1.841   1.009   5.644 -0.7441  0.1784 -2.5090
76160SOL    HW246473   1.713   0.975   5.716  0.6710  0.1326  0.1255
76161SOL     OW46474  10.195  14.064   9.809  0.2192  0.4761 -0.1527
76161SOL    HW146475  10.169  13.972   9.800 -0.3405  0.5811  0.2710
76161SOL    HW246476  10.123  14.113   9.770  0.6005  0.7346 -0.5399
76162SOL     OW46477   1.497  10.820   5.826 -0.0803  0.2231 -0.1484
76162SOL    HW146478   1.464  10.906   5.800 -0.8207 -0.3948 -1.3517
76162SOL    HW246479   1.531  10.782   5.745 -1.1086 -1.1889  0.0540
76163SOL     OW46480   4.535   2.880   4.663  0.0468  0.5966 -0.0231
76163SOL    HW146481   4.614   2.927   4.636  0.4571  0.7558  1.3547
76163SOL    HW246482   4.498   2.934   4.733  0.0255 -0.6405  0.9545
76164SOL     OW46483  12.155   8.858  13.618  0.1921  0.2189  0.5050
76164SOL    HW146484  12.155   8.953  13.607  0.2468  0.1303 -0.3340
76164SOL    HW246485  12.082   8.841  13.677 -0.7020  0.6678 -0.4405
76165SOL     OW46486   3.937  10.138  12.254  0.1141 -0.4865 -0.2207
76165SOL    HW146487   3.934  10.150  12.349 -2.0406  0.0103 -0.3005
76165SOL    HW246488   4.005  10.072  12.240  2.2156  1.1863  1.4329
76166SOL     OW46489  10.171  12.481   5.887 -0.3601  0.1593 -0.4516
76166SOL    HW146490  10.216  12.562   5.862 -0.3339 -0.2435 -1.8046
76166SOL    HW246491  10.241  12.426   5.922  0.1385 -0.2703 -2.0615
76167SOL     OW46492   8.609   3.228   7.959 -0.4553 -0.3575 -0.1582
76167SOL    HW146493   8.619   3.185   7.874 -0.3944 -0.5106 -0.0734
76167SOL    HW246494   8.516   3.216   7.981  0.2097 -3.7242  1.5939
76168SOL     OW46495   4.656   2.548   2.568  0.0737 -0.1122 -0.2141
76168SOL    HW146496   4.628   2.488   2.637  0.5812  0.9784  0.9678
76168SOL    HW246497   4.660   2.634   2.610 -0.4121  0.7411 -1.8059
76169SOL     OW46498   7.480   6.483  10.540 -0.8946 -0.2279 -0.4454
76169SOL    HW146499   7.427   6.413  10.578 -1.9366  1.4200  1.3106
76169SOL    HW246500   7.569   6.448  10.541 -1.0281 -0.7786  2.5578
76170SOL     OW46501   3.926   1.387  10.504 -0.0461  0.1342  0.2991
76170SOL    HW146502   3.984   1.411  10.432 -0.3021  1.2763  0.4619
76170SOL    HW246503   3.904   1.470  10.546 -1.2571 -0.3457  0.6539
76171SOL     OW46504   7.515   7.067   8.815 -0.3425  0.0016 -0.0629
76171SOL    HW146505   7.557   7.083   8.900 -0.1709  0.9818 -0.3134
76171SOL    HW246506   7.430   7.111   8.822  0.2788  1.4033 -0.8942
76172SOL     OW46507   7.844   7.608   5.257 -0.6128 -0.1820 -0.5604
76172SOL    HW146508   7.896   7.631   5.334  0.2249  1.7546 -1.6346
76172SOL    HW246509   7.754   7.624   5.283 -0.7851 -3.0886  1.1617
76173SOL     OW46510   7.943   4.387   5.778 -0.1755 -0.1620 -0.8283
76173SOL    HW146511   7.926   4.296   5.804 -0.9332  0.3063  0.3774
76173SOL    HW246512   7.858   4.421   5.750 -0.3042  0.7347  0.5667
76174SOL     OW46513   5.702  13.584   9.636 -0.6484  0.6019  0.5199
76174SOL    HW146514   5.790  13.617   9.621 -0.3847 -0.2458  0.1312
76174SOL    HW246515   5.648  13.662   9.645 -0.2433  1.1602 -1.4684
76175SOL     OW46516  11.676   3.443  13.616  0.4153 -0.3643  0.1009
76175SOL    HW146517  11.657   3.381  13.545  1.8173 -1.1513  0.3768
76175SOL    HW246518  11.679   3.389  13.695  2.9182 -0.2032  0.1747
76176SOL     OW46519   0.414  14.014  10.394  0.0445  0.2032  0.0538
76176SOL    HW146520   0.400  14.108  10.386 -2.0928 -0.1169 -0.6783
76176SOL    HW246521   0.418  13.983  10.303 -0.4987 -0.5541  0.2811
76177SOL     OW46522   5.430   9.366   3.679  0.2500 -0.1212  0.5371
76177SOL    HW146523   5.447   9.412   3.597 -0.0082 -2.5657 -0.9990
76177SOL    HW246524   5.508   9.311   3.692  0.2837  0.2127  1.9422
76178SOL     OW46525   0.118   7.190   7.585  0.1758  0.0862 -0.7102
76178SOL    HW146526   0.032   7.151   7.604  0.4730  0.6435  2.1489
76178SOL    HW246527   0.181   7.130   7.625  1.1637 -0.1836 -2.5598
76179SOL     OW46528   6.262  10.690   8.026 -0.1209 -0.0654  0.1405
76179SOL    HW146529   6.312  10.645   7.957  1.5991  0.3118  1.0769
76179SOL    HW246530   6.309  10.772   8.041  0.0400 -0.4707  2.2653
76180SOL     OW46531   0.497   4.798   8.721  0.2486 -0.1208 -0.3993
76180SOL    HW146532   0.415   4.747   8.722 -0.5082  0.9844  1.9938
76180SOL    HW246533   0.488   4.855   8.645 -2.0094  1.1070  0.6957
76181SOL     OW46534   3.648   5.390   3.327  0.3817  0.3560  0.0219
76181SOL    HW146535   3.662   5.329   3.255  1.4624  1.6923 -0.9447
76181SOL    HW246536   3.569   5.439   3.302 -0.7611 -0.8808  1.0165
76182SOL     OW46537   5.445  12.689   0.605 -0.4186 -0.3803 -0.2131
76182SOL    HW146538   5.518  12.702   0.545  1.4148 -3.3296  1.1063
76182SOL    HW246539   5.474  12.729   0.687 -1.2305  0.3020 -0.2557
76183SOL     OW46540   8.532  13.448   1.148 -0.1822  0.5856  0.0987
76183SOL    HW146541   8.558  13.422   1.059 -0.0623  0.2732  0.2273
76183SOL    HW246542   8.462  13.388   1.171  1.4953 -1.0325  1.2200
76184SOL     OW46543  13.108   6.844   0.859  0.0892 -0.2837  0.1918
76184SOL    HW146544  13.097   6.928   0.816 -0.6708 -0.4447  0.0503
76184SOL    HW246545  13.202   6.836   0.873  0.1210  0.8300  0.7102
76185SOL     OW46546  10.003   3.293  11.896 -0.0645 -0.7070  0.0255
76185SOL    HW146547   9.978   3.363  11.957  0.3962  0.0763 -0.6587
76185SOL    HW246548   9.929   3.232  11.897 -0.3051 -0.4154  0.9286
76186SOL     OW46549   9.866   1.727   6.026  0.9504  0.7154  0.7486
76186SOL    HW146550   9.925   1.684   5.965 -2.2014  0.6998 -2.6743
76186SOL    HW246551   9.809   1.656   6.058  0.6860  1.2054  1.3946
76187SOL     OW46552   9.879  12.495   8.468  0.9050  0.7544  0.3187
76187SOL    HW146553   9.806  12.492   8.530 -1.0776 -1.8295 -1.9185
76187SOL    HW246554   9.861  12.571   8.413  0.4286  0.7036  0.4009
76188SOL     OW46555   4.401   6.192   4.839 -0.4792 -0.1804 -0.0234
76188SOL    HW146556   4.402   6.096   4.829 -0.2699 -0.2721  0.7928
76188SOL    HW246557   4.374   6.206   4.930 -1.2361  0.5628 -0.3522
76189SOL     OW46558  10.227  10.147  11.866  0.1091 -0.5349  0.3728
76189SOL    HW146559  10.224  10.179  11.956 -1.6734  0.2610  0.0653
76189SOL    HW246560  10.136  10.126  11.845  0.2202  0.8198 -1.7777
76190SOL     OW46561   3.937  13.696  10.846 -0.5974  0.0487  0.2179
76190SOL    HW146562   4.012  13.723  10.900 -0.9316 -0.5157  0.9870
76190SOL    HW246563   3.959  13.607  10.818 -0.6518  0.1553 -0.1653
76191SOL     OW46564  11.077   2.038   2.365 -0.1526 -0.4793  0.2028
76191SOL    HW146565  11.027   1.982   2.423 -0.6328 -1.1368 -0.8194
76191SOL    HW246566  11.143   1.980   2.326  0.1187 -0.0669  0.0346
76192SOL     OW46567   4.730   7.268   7.142 -0.0188 -0.0603 -0.7121
76192SOL    HW146568   4.822   7.259   7.167 -0.0777  0.9920 -0.0699
76192SOL    HW246569   4.683   7.272   7.225 -0.6565 -0.5729 -1.0360
76193SOL     OW46570  13.721   3.203   3.787 -0.2960 -0.4245  0.4634
76193SOL    HW146571  13.732   3.124   3.734 -0.1126  0.3892 -0.7713
76193SOL    HW246572  13.810   3.234   3.803 -0.3823 -0.1919  0.5029
76194SOL     OW46573   1.527   2.783   2.207  0.2457  0.0271 -0.3440
76194SOL    HW146574   1.567   2.859   2.247  1.2843 -0.2021 -0.9230
76194SOL    HW246575   1.434   2.788   2.232  0.3524  1.3353 -0.1834
76195SOL     OW46576  13.154   2.559   1.284 -0.2960  0.1654  0.5775
76195SOL    HW146577  13.135   2.652   1.289 -0.9505  0.0907 -0.1868
76195SOL    HW246578  13.181   2.545   1.193 -0.7893 -0.4854  0.5193
76196SOL     OW46579   3.217  12.991  13.080 -0.2173 -0.0159 -0.3108
76196SOL    HW146580   3.302  12.954  13.055 -0.5669 -0.6331 -0.6289
76196SOL    HW246581   3.170  13.000  12.997 -1.0055 -1.0918 -0.0077
76197SOL     OW46582  10.170   7.024   7.549  0.2093  0.2580 -0.2961
76197SOL    HW146583  10.145   7.108   7.588  0.4880  0.5256 -0.6820
76197SOL    HW246584  10.092   6.969   7.557 -0.8365  1.3507 -2.2541
76198SOL     OW46585   1.455   8.571  12.162  0.0408  0.1340  0.4488
76198SOL    HW146586   1.529   8.602  12.110 -1.0750  0.1384 -1.2253
76198SOL    HW246587   1.379   8.616  12.124 -0.9810 -0.8088  1.3009
76199SOL     OW46588   2.637   8.444   4.891 -0.7151 -0.6557 -0.5316
76199SOL    HW146589   2.571   8.426   4.824 -0.7729 -0.8961 -0.4107
76199SOL    HW246590   2.699   8.371   4.883 -0.1629 -0.1502 -1.0109
76200SOL     OW46591  11.175   2.446   9.534 -0.1245  0.5356 -0.0876
76200SOL    HW146592  11.134   2.520   9.488 -1.2624  0.0876  0.1633
76200SOL    HW246593  11.101   2.391   9.560  0.7502 -1.0293 -0.8405
76201SOL     OW46594   9.356  10.769   8.191  0.2867  0.1996  0.0401
76201SOL    HW146595   9.322  10.679   8.197  0.3808  0.0138 -1.7513
76201SOL    HW246596   9.282  10.820   8.159 -0.0023  0.9588  1.7832
76202SOL     OW46597   1.374   2.881   4.038 -0.2947 -0.2540  0.3128
76202SOL    HW146598   1.356   2.791   4.064 -0.5183 -0.1052  0.6965
76202SOL    HW246599   1.426   2.874   3.958 -1.2864 -0.7143 -0.3055
76203SOL     OW46600   7.081  13.724   0.130 -0.5663 -0.8572  0.0552
76203SOL    HW146601   7.126  13.746   0.212 -0.7547  0.9295 -0.2917
76203SOL    HW246602   7.138  13.759   0.061 -1.4120 -0.5254 -0.4859
76204SOL     OW46603   9.007   3.088   1.113 -0.1927 -0.0859  0.2129
76204SOL    HW146604   9.060   3.109   1.036  1.0857 -1.2734  0.7177
76204SOL    HW246605   9.064   3.108   1.188 -1.1751  0.4307  0.8377
76205SOL     OW46606   3.732   3.122   5.703 -0.4311  0.7131 -0.0080
76205SOL    HW146607   3.640   3.108   5.725  0.4481  0.1695  4.1013
76205SOL    HW246608   3.751   3.212   5.730  0.4389  0.5806 -0.1222
76206SOL     OW46609  13.485   3.881   3.027  0.0950 -0.6091 -0.0850
76206SOL    HW146610  13.491   3.951   3.093 -0.4501 -0.0716 -0.5956
76206SOL    HW246611  13.392   3.859   3.023  0.0967 -0.5170 -0.7914
76207SOL     OW46612   8.337   4.808  13.175 -0.3671  0.2761 -0.2431
76207SOL    HW146613   8.322   4.900  13.194  0.7776  0.6571 -1.0413
76207SOL    HW246614   8.431   4.803  13.156 -0.7348 -0.7101 -2.0073
76208SOL     OW46615   2.434   2.818   8.562 -0.4314  0.2201  0.2853
76208SOL    HW146616   2.382   2.738   8.557 -0.0175 -0.1007  1.0820
76208SOL    HW246617   2.424   2.848   8.652 -0.0834  0.7353  0.1583
76209SOL     OW46618  11.243   5.461   5.727  0.3694 -0.2218  0.5915
76209SOL    HW146619  11.152   5.475   5.702  1.0723  0.6378 -1.7332
76209SOL    HW246620  11.262   5.372   5.698  0.9865  0.5368 -1.5052
76210SOL     OW46621   6.059  11.625   6.390 -0.3289 -0.1807 -0.6232
76210SOL    HW146622   6.099  11.674   6.318  0.0927 -0.4036 -0.5485
76210SOL    HW246623   6.006  11.689   6.437 -0.4023  0.0237 -0.9824
76211SOL     OW46624   4.581   3.148   2.287 -0.4771  0.6089 -0.4682
76211SOL    HW146625   4.537   3.143   2.371  0.5668  0.2020  0.0774
76211SOL    HW246626   4.607   3.058   2.267  1.5499  1.0125  0.0686
76212SOL     OW46627   7.261   7.703  10.907  0.3847 -0.4320 -0.4398
76212SOL    HW146628   7.273   7.614  10.875  0.5277 -0.6115  0.1132
76212SOL    HW246629   7.342   7.724  10.953 -0.3674 -0.7369  1.1094
76213SOL     OW46630   9.562   7.113   4.212 -0.0988 -0.2560 -0.3249
76213SOL    HW146631   9.580   7.175   4.283  0.6942  0.2621 -0.9637
76213SOL    HW246632   9.470   7.089   4.224 -0.0063 -0.1153  0.8189
76214SOL     OW46633  12.536   3.148   7.262  0.2338 -0.3322  0.2860
76214SOL    HW146634  12.495   3.158   7.176  0.1369  1.9199  0.5414
76214SOL    HW246635  12.606   3.084   7.248  1.8135  1.7193 -2.1056
76215SOL     OW46636  11.200   1.541   3.378  0.2020  0.3341  0.2093
76215SOL    HW146637  11.178   1.592   3.456  0.5884  2.0637 -0.7665
76215SOL    HW246638  11.157   1.457   3.391 -1.1982  1.2018  1.4799
76216SOL     OW46639   4.144  12.461  11.175 -0.0300 -0.1542  0.0571
76216SOL    HW146640   4.113  12.382  11.219  1.1593 -0.0467  1.1493
76216SOL    HW246641   4.079  12.477  11.106 -0.3396 -2.0306 -0.1499
76217SOL     OW46642   2.278   6.311   0.710  0.5034 -0.5362  0.1595
76217SOL    HW146643   2.293   6.397   0.750 -1.1200 -0.7730  1.4074
76217SOL    HW246644   2.305   6.249   0.778  2.7490 -1.1127 -1.1400
76218SOL     OW46645  12.068   3.298   3.826 -0.4285  0.7463 -0.0370
76218SOL    HW146646  11.986   3.292   3.777  0.4636  0.3650 -1.5541
76218SOL    HW246647  12.086   3.208   3.853 -1.3752  1.0725  1.8732
76219SOL     OW46648   3.628  12.942   2.357  0.0857 -0.4266  0.0231
76219SOL    HW146649   3.663  12.908   2.439 -0.5073 -1.1833 -0.0255
76219SOL    HW246650   3.595  12.865   2.311 -0.3927  0.0943 -0.5328
76220SOL     OW46651  11.097  11.477  14.007  0.5789  0.2039 -0.0572
76220SOL    HW146652  11.033  11.527  14.058 -0.5679 -0.1288 -1.1173
76220SOL    HW246653  11.105  11.523  13.924 -1.2869 -1.7990 -1.4747
76221SOL     OW46654   5.446   5.285   1.335 -0.1241  0.0198  0.1765
76221SOL    HW146655   5.422   5.355   1.274 -0.9729 -1.2067 -0.9523
76221SOL    HW246656   5.540   5.273   1.322 -0.4147 -0.7795 -1.5794
76222SOL     OW46657   2.780  14.040  13.430 -0.4789 -0.5503  0.0256
76222SOL    HW146658   2.745  13.953  13.412 -1.1478 -0.0919 -0.9917
76222SOL    HW246659   2.871  14.036  13.400 -0.1906 -1.2033  0.9677
76223SOL     OW46660  14.076   9.762   4.453 -0.6134  0.0175  0.0131
76223SOL    HW146661  14.170   9.759   4.470 -0.4476 -1.1548 -0.9782
76223SOL    HW246662  14.044   9.831   4.511  0.5598 -0.8039  1.7378
76224SOL     OW46663  10.474   9.706   0.920 -0.1288  0.1051  0.5143
76224SOL    HW146664  10.475   9.749   1.006 -0.1519 -1.7276  1.4954
76224SOL    HW246665  10.566   9.684   0.904 -0.3654 -1.5124  1.1644
76225SOL     OW46666   0.249   3.054   4.565  0.1068  0.0297  0.1542
76225SOL    HW146667   0.186   3.095   4.506 -1.4906  1.4000  2.6277
76225SOL    HW246668   0.199   2.985   4.610  1.5402 -1.6352 -0.6962
76226SOL     OW46669   7.590   2.224  10.955  0.6200 -0.4148  0.0676
76226SOL    HW146670   7.661   2.269  10.908  0.7508 -0.5690  0.1158
76226SOL    HW246671   7.572   2.146  10.902  1.0076 -0.7689  0.4594
76227SOL     OW46672  13.352  12.879  12.022  0.4351  0.4073 -0.2893
76227SOL    HW146673  13.346  12.967  11.985 -1.7026 -0.2253 -1.6337
76227SOL    HW246674  13.432  12.843  11.986  0.0108  0.9246 -1.8155
76228SOL     OW46675   6.076   3.048  10.904  0.5391 -0.1692 -0.3112
76228SOL    HW146676   6.124   2.997  10.969  0.3212  0.0386  0.0182
76228SOL    HW246677   6.142   3.107  10.867  0.7969 -0.7071 -0.7159
76229SOL     OW46678  11.386   8.768  10.722 -0.3708  0.5466 -0.1034
76229SOL    HW146679  11.451   8.801  10.784 -0.5586 -1.3965  1.2431
76229SOL    HW246680  11.424   8.686  10.690 -1.1490  0.5556 -1.0865
76230SOL     OW46681   8.518  10.039   8.888 -0.4693 -0.0293 -0.1519
76230SOL    HW146682   8.489  10.130   8.897 -0.8100 -0.1272 -0.2503
76230SOL    HW246683   8.437   9.988   8.884 -0.2759 -0.3560  0.0871
76231SOL     OW46684  13.224   7.489   9.712  0.2521  0.4441  0.6849
76231SOL    HW146685  13.222   7.411   9.657  3.3344 -1.6672  3.2335
76231SOL    HW246686  13.139   7.491   9.755 -0.7667 -0.0124 -1.1864
76232SOL     OW46687   6.245   4.887  11.205 -0.6634  0.2555 -0.1090
76232SOL    HW146688   6.246   4.838  11.288 -0.6448 -0.5415 -0.5748
76232SOL    HW246689   6.322   4.855  11.158 -1.1912  0.0251 -0.8264
76233SOL     OW46690   0.036  11.853   8.867 -0.1655  0.0157  0.0751
76233SOL    HW146691  -0.054  11.824   8.879 -0.0219 -0.6368 -0.3994
76233SOL    HW246692   0.081  11.828   8.948 -0.4199  0.3912  0.3327
76234SOL     OW46693   1.083   3.395   2.569 -0.2920  0.0245  0.1505
76234SOL    HW146694   1.130   3.328   2.520 -1.2577 -0.5195 -0.0451
76234SOL    HW246695   0.993   3.363   2.575 -0.6224  0.9877  0.6252
76235SOL     OW46696   6.803   2.675   9.639  0.1884 -0.6952 -0.3075
76235SOL    HW146697   6.808   2.580   9.638 -0.3473 -0.7352  0.1893
76235SOL    HW246698   6.886   2.704   9.601  2.2069 -1.3097  3.1878
76236SOL     OW46699  11.702   9.648   7.335  0.1404 -0.7146 -0.8185
76236SOL    HW146700  11.741   9.651   7.422  0.0554 -1.5674 -0.7479
76236SOL    HW246701  11.678   9.739   7.317 -1.0419 -0.7152  0.5920
76237SOL     OW46702   5.549  11.300  12.697 -0.5709 -1.1018  0.3821
76237SOL    HW146703   5.624  11.312  12.639 -1.9869  0.4868 -1.2108
76237SOL    HW246704   5.579  11.334  12.782  0.1223  0.8329 -0.5751
76238SOL     OW46705   1.146   8.314   1.721  0.5444 -0.2900 -0.3589
76238SOL    HW146706   1.208   8.385   1.739 -1.2590  1.2932 -0.0176
76238SOL    HW246707   1.185   8.265   1.649  1.9585  0.9352 -0.4669
76239SOL     OW46708  10.560  12.562   0.391 -0.0164 -0.5289 -0.2261
76239SOL    HW146709  10.613  12.484   0.411  1.9635  0.3964 -1.4697
76239SOL    HW246710  10.515  12.540   0.310 -0.1549 -0.6970 -0.1034
76240SOL     OW46711  13.398  11.841  11.463  0.5045 -0.2309  0.1441
76240SOL    HW146712  13.463  11.900  11.426 -1.5528  1.1015 -1.5534
76240SOL    HW246713  13.441  11.755  11.462  2.9215  0.8691  1.0162
76241SOL     OW46714  12.636  11.762   7.140  0.5261  0.4951  0.5914
76241SOL    HW146715  12.599  11.786   7.225  0.3978  0.4930  0.5360
76241SOL    HW246716  12.709  11.822   7.128  0.5631  0.4758  0.7165
76242SOL     OW46717  12.772   9.925   2.193 -0.2205 -0.2140 -0.1870
76242SOL    HW146718  12.707   9.979   2.147 -2.7764 -0.2614  3.0121
76242SOL    HW246719  12.812   9.872   2.124 -2.5996  0.8261 -2.5563
76243SOL     OW46720   6.803  11.414   1.908 -0.0253 -0.2601 -0.1668
76243SOL    HW146721   6.878  11.398   1.852  0.1255 -0.9701  0.2165
76243SOL    HW246722   6.820  11.361   1.986  0.6417  2.0420  1.3474
76244SOL     OW46723   1.409   9.326   6.228 -0.3136  0.1355  0.1201
76244SOL    HW146724   1.333   9.328   6.170 -0.0451  1.8684 -0.2397
76244SOL    HW246725   1.404   9.241   6.272 -0.8329 -1.0079 -2.0132
76245SOL     OW46726   9.141   6.547   9.446 -0.0263  0.2331 -0.3001
76245SOL    HW146727   9.088   6.540   9.367 -0.6451 -0.0298  0.1314
76245SOL    HW246728   9.088   6.599   9.506  0.3853  0.3273 -0.0151
76246SOL     OW46729  13.124  13.330   4.152 -0.5073  0.1673  0.7090
76246SOL    HW146730  13.054  13.367   4.206 -1.8471 -0.7585 -0.3109
76246SOL    HW246731  13.106  13.362   4.064 -0.6773 -1.4464  0.1187
76247SOL     OW46732   1.531   5.429  13.555 -0.1746  0.2998  0.5007
76247SOL    HW146733   1.437   5.416  13.538  0.0674 -0.9212  0.0076
76247SOL    HW246734   1.569   5.342  13.544  0.7829  0.4611  2.2907
76248SOL     OW46735   5.321   8.396   2.032  0.0091  0.2814  0.4556
76248SOL    HW146736   5.310   8.480   1.987 -0.6808 -0.4429 -0.7984
76248SOL    HW246737   5.240   8.348   2.014  1.6028 -1.8968 -1.6932
76249SOL     OW46738   8.090   3.221  11.300 -0.6076 -0.2297  0.2877
76249SOL    HW146739   8.120   3.167  11.373  0.8867 -0.4325 -0.4467
76249SOL    HW246740   8.087   3.162  11.226 -0.3926  0.3752 -0.2097
76250SOL     OW46741  13.861   1.989   5.502 -0.7977  0.0815  0.0407
76250SOL    HW146742  13.923   2.007   5.572  0.0261 -1.8012 -0.1439
76250SOL    HW246743  13.854   2.071   5.453  1.5944  0.3500  0.0374
76251SOL     OW46744   7.240   5.609   4.848 -0.0921 -0.2531 -0.1214
76251SOL    HW146745   7.254   5.583   4.939  0.9559 -0.5764 -0.3480
76251SOL    HW246746   7.153   5.648   4.846  0.0752  0.2187  1.1131
76252SOL     OW46747   6.227   7.105   9.190  0.4145  0.0362 -0.3354
76252SOL    HW146748   6.229   7.173   9.122  2.1760 -1.8033 -2.2687
76252SOL    HW246749   6.280   7.142   9.261 -0.6428  1.5961 -0.2949
76253SOL     OW46750   0.097   8.456   5.633  0.3331  0.3236  0.4486
76253SOL    HW146751   0.043   8.378   5.620  1.6482 -0.7653  1.2365
76253SOL    HW246752   0.184   8.430   5.603  1.3533  0.6491  2.9022
76254SOL     OW46753   6.624  10.360   5.561 -0.0680 -0.8524 -0.3055
76254SOL    HW146754   6.542  10.386   5.603  0.5588  1.2895 -0.2869
76254SOL    HW246755   6.598  10.298   5.493 -1.8201  0.4550 -0.8882
76255SOL     OW46756  10.847   4.553   7.818 -0.1474  0.3159  0.0404
76255SOL    HW146757  10.902   4.542   7.896 -0.2727  0.3069  0.1284
76255SOL    HW246758  10.767   4.595   7.851  0.1374  1.0741 -0.2154
76256SOL     OW46759  11.040  14.115  11.991 -0.0293 -0.1948  0.0013
76256SOL    HW146760  11.117  14.061  12.009  0.3996 -0.2669 -1.9051
76256SOL    HW246761  11.011  14.144  12.078  2.1558 -0.1359  0.7701
76257SOL     OW46762   9.087  13.757   7.893 -0.0136 -0.3010  0.0223
76257SOL    HW146763   9.019  13.739   7.959  0.0585  2.2455  0.9204
76257SOL    HW246764   9.041  13.804   7.824  0.6734  0.8391  0.3153
76258SOL     OW46765   1.648   2.321   4.324  0.3034  0.5657 -0.2378
76258SOL    HW146766   1.681   2.274   4.248 -1.2055 -0.1707 -0.4692
76258SOL    HW246767   1.703   2.292   4.397  0.6334 -0.0600 -0.7387
76259SOL     OW46768  10.639   2.609  13.045 -0.6422  0.2540  0.0519
76259SOL    HW146769  10.603   2.607  13.134 -1.8161 -0.8176 -0.4048
76259SOL    HW246770  10.664   2.700  13.030 -0.5631  0.4711  1.4183
76260SOL     OW46771   0.612   2.236  11.995  0.1585  0.1292 -0.5470
76260SOL    HW146772   0.593   2.164  12.055  1.9853 -0.8864 -1.0966
76260SOL    HW246773   0.686   2.205  11.943  1.1977  2.5032 -0.6335
76261SOL     OW46774   2.650   4.273  12.843  0.0926  0.2212 -0.2422
76261SOL    HW146775   2.654   4.305  12.933 -0.0307 -2.5966  0.8592
76261SOL    HW246776   2.693   4.188  12.845 -2.7413 -1.4516 -2.0693
76262SOL     OW46777   1.558  11.833   5.430 -0.3691 -1.2050 -0.1715
76262SOL    HW146778   1.495  11.828   5.358 -0.3330 -0.4023 -0.2689
76262SOL    HW246779   1.642  11.807   5.391 -0.1770  0.0753 -0.6523
76263SOL     OW46780   0.510  14.062   5.571 -0.0555 -0.5074  0.3830
76263SOL    HW146781   0.447  14.067   5.643 -0.8743  1.2290 -0.4058
76263SOL    HW246782   0.486  13.981   5.525 -2.3722  0.5528 -0.4376
76264SOL     OW46783   1.557   0.355  10.268  0.3861  0.5426  0.1453
76264SOL    HW146784   1.493   0.363  10.197  1.1158  1.1158 -0.4727
76264SOL    HW246785   1.642   0.371  10.226  1.0338 -0.9865  0.7941
76265SOL     OW46786   4.460   1.057   2.012 -0.1676 -0.2260 -0.5314
76265SOL    HW146787   4.450   1.009   2.094 -1.2680  0.5273 -0.2023
76265SOL    HW246788   4.510   0.998   1.955 -0.5026 -1.2804  0.2455
76266SOL     OW46789   9.685   3.215   6.977 -0.1781  0.1380  0.1397
76266SOL    HW146790   9.755   3.150   6.972  0.8189  1.0126  1.8772
76266SOL    HW246791   9.640   3.195   7.059 -1.5103  0.0593 -0.5886
76267SOL     OW46792  12.928  13.281   9.781 -0.2178  0.8240  0.1038
76267SOL    HW146793  13.020  13.301   9.798  0.1246 -1.1868  0.8615
76267SOL    HW246794  12.891  13.264   9.867 -0.5708 -1.1494 -0.4042
76268SOL     OW46795  13.239  11.325   5.280 -0.4131 -0.1717  0.1787
76268SOL    HW146796  13.319  11.276   5.262  0.6537  0.9631  1.6246
76268SOL    HW246797  13.239  11.396   5.216 -0.7882 -0.7239 -0.4472
76269SOL     OW46798  10.767   8.840   5.245  0.6337 -0.1281  0.3069
76269SOL    HW146799  10.774   8.901   5.318  1.2055 -0.5077  0.5762
76269SOL    HW246800  10.779   8.754   5.284 -1.6531 -0.5737  0.1712
76270SOL     OW46801   9.307   5.168   1.981  0.3274 -0.0279 -0.2485
76270SOL    HW146802   9.292   5.263   1.978 -0.4608 -0.1627 -1.6463
76270SOL    HW246803   9.229   5.131   1.939  0.3786 -1.3302  0.7801
76271SOL     OW46804  10.884   5.517  10.791  0.3068  0.1753 -0.2935
76271SOL    HW146805  10.851   5.433  10.759  0.8039 -1.0553  2.1701
76271SOL    HW246806  10.810   5.577  10.786 -0.3333 -0.6629 -1.1411
76272SOL     OW46807   9.039   5.320   5.092  0.4751  0.0529  0.3235
76272SOL    HW146808   8.976   5.264   5.139 -1.9965  1.7974 -0.7051
76272SOL    HW246809   9.032   5.405   5.136  0.1406  0.9663 -1.4190
76273SOL     OW46810   0.999   1.367   1.243 -0.3828  0.0600  0.3321
76273SOL    HW146811   0.938   1.343   1.312 -0.1017 -0.4507  0.4047
76273SOL    HW246812   0.972   1.456   1.217 -0.4321  0.2915  1.1514
76274SOL     OW46813   2.284  13.426  12.565  0.4187  0.6130 -0.1123
76274SOL    HW146814   2.215  13.436  12.500  1.9174  0.5261 -1.7985
76274SOL    HW246815   2.365  13.427  12.514  1.6599  0.4651  1.7631
76275SOL     OW46816   3.347   4.451   0.727  0.1238 -0.6707 -0.3038
76275SOL    HW146817   3.377   4.365   0.756 -0.3157 -0.1526  1.8911
76275SOL    HW246818   3.252   4.445   0.730  0.0660 -0.4037 -1.1974
76276SOL     OW46819   4.227   9.580   6.253 -0.0938 -0.5100 -0.0681
76276SOL    HW146820   4.166   9.653   6.245  1.3373  0.8071  0.5632
76276SOL    HW246821   4.298   9.601   6.194  0.2943 -1.4512  0.0489
76277SOL     OW46822   5.306   0.802   6.662  0.1520  0.3066 -0.3720
76277SOL    HW146823   5.220   0.764   6.646  0.4205 -0.1291 -0.7942
76277SOL    HW246824   5.357   0.781   6.584  0.9076 -0.2013  0.2399
76278SOL     OW46825   1.007   1.554   5.456  0.1910 -0.3260  0.1571
76278SOL    HW146826   1.099   1.578   5.455 -0.0405  0.6159  0.5143
76278SOL    HW246827   1.003   1.478   5.514  0.8575 -0.8993 -0.5304
76279SOL     OW46828   7.608  10.345  13.870  0.4224  0.4025 -0.0708
76279SOL    HW146829   7.679  10.397  13.908  1.2576  0.5385 -1.7394
76279SOL    HW246830   7.597  10.272  13.931  0.5531  1.4693  1.2939
76280SOL     OW46831   7.046   5.718  12.191  0.2045  0.0554 -0.1687
76280SOL    HW146832   6.962   5.678  12.212  0.7380 -1.1847 -0.3146
76280SOL    HW246833   7.065   5.774  12.266 -0.3611 -0.2971  0.2456
76281SOL     OW46834  13.124  10.164   5.075 -0.2918 -0.0769 -0.5327
76281SOL    HW146835  13.165  10.239   5.031  1.0907  1.3073  2.8171
76281SOL    HW246836  13.190  10.094   5.070 -0.0065  0.1804 -0.3504
76282SOL     OW46837  14.070   6.344   0.702 -0.2379 -0.3802  0.1074
76282SOL    HW146838  14.019   6.263   0.699 -0.2432 -0.3522 -1.6363
76282SOL    HW246839  14.154   6.320   0.663  1.0677 -0.3612  2.6871
76283SOL     OW46840  12.135   9.620  11.630 -0.7066  0.3760 -0.2218
76283SOL    HW146841  12.157   9.654  11.716 -1.5083 -0.1067  0.1914
76283SOL    HW246842  12.093   9.693  11.585 -2.1231  0.0786  0.5419
76284SOL     OW46843   1.962  13.874  11.334 -0.0834  0.1209 -0.7101
76284SOL    HW146844   1.982  13.965  11.356 -0.3577  0.3023 -1.1963
76284SOL    HW246845   2.004  13.860  11.250 -0.6169  0.0086 -0.9633
76285SOL     OW46846   9.144   5.690  10.410 -0.3924 -0.3902 -0.0225
76285SOL    HW146847   9.105   5.650  10.487 -1.1924 -0.4037 -0.4324
76285SOL    HW246848   9.231   5.650  10.403  0.2270  0.5733  1.6325
76286SOL     OW46849   0.830  11.098   8.209  0.5025 -0.2312 -0.4572
76286SOL    HW146850   0.825  11.174   8.266 -0.6930 -0.7108  0.1178
76286SOL    HW246851   0.741  11.064   8.206  1.1450 -2.1006 -0.0122
76287SOL     OW46852   6.550   9.053   3.776  0.3252  0.3152  0.1437
76287SOL    HW146853   6.596   8.992   3.717  1.9239  1.9182 -0.3743
76287SOL    HW246854   6.619   9.113   3.806 -1.0814  1.5176  1.0781
76288SOL     OW46855  12.544   7.001  12.104  0.1038 -0.2371 -0.6613
76288SOL    HW146856  12.583   6.914  12.113 -0.8848 -0.8445 -1.8743
76288SOL    HW246857  12.561   7.025  12.013 -1.0055  0.1309 -0.7907
76289SOL     OW46858  12.414   2.631   8.277  0.6202  0.0355 -0.5255
76289SOL    HW146859  12.358   2.702   8.245  0.8764  0.2619 -0.4723
76289SOL    HW246860  12.355   2.576   8.328 -0.4478 -1.7956 -3.4528
76290SOL     OW46861   3.353   7.419   0.722  0.3978 -0.2032  0.4127
76290SOL    HW146862   3.366   7.387   0.633 -1.8687  1.5480 -0.6615
76290SOL    HW246863   3.300   7.351   0.764  0.2273 -0.3576 -0.0472
76291SOL     OW46864   4.502   4.085  12.927  0.0850  0.1204  0.2506
76291SOL    HW146865   4.428   4.038  12.890 -0.6998  1.2372  0.3512
76291SOL    HW246866   4.543   4.129  12.852 -0.0682  0.4541  0.3601
76292SOL     OW46867   8.743   6.255   6.850 -0.0825  0.1572  0.3341
76292SOL    HW146868   8.675   6.310   6.811 -0.0476  0.1636  0.2816
76292SOL    HW246869   8.699   6.208   6.920 -0.5460 -1.0538 -0.7199
76293SOL     OW46870   7.684  13.187   3.914 -0.0617  0.1461 -0.0679
76293SOL    HW146871   7.718  13.157   3.830 -1.5296  0.2749 -0.7448
76293SOL    HW246872   7.696  13.113   3.973  1.4504  0.2281 -0.2348
76294SOL     OW46873  12.585   2.120   9.223  0.1535  0.0288 -0.1379
76294SOL    HW146874  12.623   2.076   9.147  1.5496 -0.3182  0.7092
76294SOL    HW246875  12.491   2.106   9.215  0.4325 -1.8615 -0.6841
76295SOL     OW46876   0.640   9.279  11.226  0.2880  0.0557 -0.5022
76295SOL    HW146877   0.725   9.322  11.229  1.2401 -1.7356 -0.0485
76295SOL    HW246878   0.608   9.294  11.138 -0.3238  3.2126  0.1408
76296SOL     OW46879   9.811  11.226  13.737 -0.2590 -0.0336  0.5373
76296SOL    HW146880   9.762  11.306  13.722 -0.4829 -0.0068  1.3751
76296SOL    HW246881   9.747  11.156  13.728 -0.4299 -0.0110  1.4132
76297SOL     OW46882   3.462   8.272   0.799 -0.0533 -0.1856  0.5191
76297SOL    HW146883   3.542   8.312   0.835  0.5962 -0.5442 -0.4893
76297SOL    HW246884   3.413   8.346   0.763 -1.0822  0.2926  2.7331
76298SOL     OW46885   5.249  10.539  11.974  0.1438 -0.8407  1.0506
76298SOL    HW146886   5.344  10.538  11.987  0.4878 -0.6222 -1.0654
76298SOL    HW246887   5.217  10.600  12.039  1.4319 -1.0481  1.9231
76299SOL     OW46888  10.145   1.120   7.765 -0.0341 -0.2730  0.8224
76299SOL    HW146889  10.094   1.143   7.687 -0.5937 -1.2624  0.8715
76299SOL    HW246890  10.160   1.203   7.809 -0.3240  0.2197  0.0239
76300SOL     OW46891   0.470   2.901   4.624  0.2501 -0.1111  0.4534
76300SOL    HW146892   0.468   2.849   4.544  2.1849 -0.5602  0.6366
76300SOL    HW246893   0.390   2.952   4.622  0.0326 -0.4589 -1.5413
76301SOL     OW46894   3.385  12.639   2.009  0.4747  0.6038  0.4674
76301SOL    HW146895   3.338  12.631   2.092  0.9230  1.6778  0.8476
76301SOL    HW246896   3.412  12.549   1.988 -2.1379 -0.1319 -0.0443
76302SOL     OW46897  11.868   3.426   4.527 -0.1026 -0.6449  0.8380
76302SOL    HW146898  11.799   3.438   4.593  0.2737  1.3129  0.9466
76302SOL    HW246899  11.949   3.424   4.579  0.0949 -0.5758  0.5305
76303SOL     OW46900  12.413  13.018   5.296 -0.0794  0.1818  0.1736
76303SOL    HW146901  12.374  12.933   5.276 -0.6366  0.3735  0.4377
76303SOL    HW246902  12.501  12.997   5.327 -0.2200 -0.3017  0.2596
76304SOL     OW46903   9.602  10.975   9.731 -0.1125  0.1231  0.2412
76304SOL    HW146904   9.642  10.891   9.754  2.3158  0.7208 -1.3851
76304SOL    HW246905   9.575  10.964   9.640  1.6574  1.4884 -0.5161
76305SOL     OW46906   2.579  11.946   2.141  0.1280 -0.0642 -0.2353
76305SOL    HW146907   2.615  11.863   2.109 -1.8833 -1.1560  0.1662
76305SOL    HW246908   2.531  11.921   2.221 -2.0824  1.1400 -1.1232
76306SOL     OW46909   1.295   6.201   2.123 -0.0930 -0.0243 -0.2358
76306SOL    HW146910   1.321   6.180   2.033 -1.0367 -2.8602  0.0492
76306SOL    HW246911   1.205   6.168   2.131 -0.0179  0.1094  1.7547
76307SOL     OW46912  13.132   6.601   2.572  0.7091  0.1212  0.1957
76307SOL    HW146913  13.149   6.518   2.527 -1.4592 -0.0845 -0.3563
76307SOL    HW246914  13.195   6.662   2.533 -0.9213 -0.0759 -3.1721
76308SOL     OW46915   3.215  13.965   9.694 -0.6128 -0.1216 -0.6239
76308SOL    HW146916   3.249  13.947   9.607 -1.3843 -0.4540 -0.8646
76308SOL    HW246917   3.175  13.882   9.722  0.1585 -0.2139  0.3058
76309SOL     OW46918   7.693   9.440   6.547  0.0773 -0.0300  0.0127
76309SOL    HW146919   7.641   9.388   6.608 -0.2112  0.3719  0.1235
76309SOL    HW246920   7.745   9.498   6.603 -0.1176  0.2733 -0.1125
76310SOL     OW46921   5.029   4.863   7.693  0.4882  0.1582  0.1323
76310SOL    HW146922   5.043   4.938   7.636  0.4045  1.2392  1.4868
76310SOL    HW246923   5.118   4.837   7.720  0.4266  1.8918  2.2635
76311SOL     OW46924   9.485   8.970  10.212 -0.1166 -0.0733  0.2016
76311SOL    HW146925   9.565   9.006  10.172 -0.5567 -1.2213 -1.8702
76311SOL    HW246926   9.516   8.926  10.291  1.3594 -0.5151 -0.5672
76312SOL     OW46927   2.535   9.012  10.440  0.1843 -0.2634  0.0068
76312SOL    HW146928   2.585   8.977  10.515 -0.4551  1.0751  1.1122
76312SOL    HW246929   2.596   9.008  10.367  0.6800 -2.0451  0.4745
76313SOL     OW46930   8.120   1.007   4.427  0.1938  0.4968  0.5950
76313SOL    HW146931   8.181   0.973   4.361  0.1495  1.4022  0.0772
76313SOL    HW246932   8.045   0.948   4.423  0.5044  0.1074  0.3687
76314SOL     OW46933   5.256  11.046  11.249 -0.5846  0.0536  0.1145
76314SOL    HW146934   5.343  11.076  11.273 -0.8919  1.1008 -0.0190
76314SOL    HW246935   5.238  11.089  11.165 -0.7297 -1.1605 -0.4921
76315SOL     OW46936   5.997   9.170  10.572  0.1567 -0.8500 -0.1530
76315SOL    HW146937   5.917   9.223  10.562  1.6740  1.1853 -2.7813
76315SOL    HW246938   5.972   9.101  10.634 -3.1519  0.5845  0.3464
76316SOL     OW46939   8.122   4.476   8.400 -0.2480  0.0510 -0.2833
76316SOL    HW146940   8.215   4.454   8.401  0.0118  1.0757 -0.5582
76316SOL    HW246941   8.080   4.403   8.354  0.4924 -0.1539 -0.6436
76317SOL     OW46942   3.406  11.681   8.322 -0.0516 -0.4137  0.1097
76317SOL    HW146943   3.316  11.701   8.296 -0.5911 -1.4887  1.0628
76317SOL    HW246944   3.455  11.681   8.240 -0.9406  0.0255 -0.4434
76318SOL     OW46945   6.659   2.691   0.594 -0.5006  0.2993  0.1161
76318SOL    HW146946   6.723   2.761   0.606  0.0895  0.0594 -1.4299
76318SOL    HW246947   6.575   2.737   0.587 -0.2070  0.8010 -0.2045
76319SOL     OW46948   2.612   1.632  10.682 -0.6852 -0.6149  0.1505
76319SOL    HW146949   2.518   1.623  10.669 -0.6638 -0.8083  0.1230
76319SOL    HW246950   2.625   1.607  10.774 -0.8062  0.5125  0.4867
76320SOL     OW46951   8.562   8.036   9.700 -0.3985 -0.4157  0.2172
76320SOL    HW146952   8.518   8.118   9.723  0.3766  0.4250 -1.1475
76320SOL    HW246953   8.499   7.990   9.645 -0.3249 -0.1061 -0.1301
76321SOL     OW46954   3.339   3.029  11.163  0.0879  0.7234 -0.2645
76321SOL    HW146955   3.328   2.947  11.114 -2.0221  0.4300  0.5816
76321SOL    HW246956   3.396   3.082  11.108 -2.8143  0.7647 -3.6081
76322SOL     OW46957   8.816   2.275   2.643 -0.4583 -0.2973  0.1320
76322SOL    HW146958   8.838   2.368   2.636  2.3116 -0.7895  0.9690
76322SOL    HW246959   8.830   2.240   2.555 -2.9422  0.2545 -0.5625
76323SOL     OW46960   1.801   0.551   6.272  0.1143 -0.1676 -0.8021
76323SOL    HW146961   1.755   0.635   6.276  0.8576  0.2526 -0.8869
76323SOL    HW246962   1.731   0.486   6.268 -0.4892  0.3492  0.7649
76324SOL     OW46963   0.781   1.511   2.022  0.3068  0.0270 -0.5301
76324SOL    HW146964   0.727   1.578   2.064 -0.3910 -1.0681  0.3770
76324SOL    HW246965   0.871   1.540   2.038  0.0527  0.0491  1.0869
76325SOL     OW46966   9.223   7.795   4.416  0.4012 -0.0914  0.2200
76325SOL    HW146967   9.276   7.740   4.359  0.9531 -0.1415  0.7780
76325SOL    HW246968   9.239   7.884   4.386  1.3173 -0.0530  0.8080
76326SOL     OW46969   6.411  12.163  11.325  0.3255  0.0366  0.0006
76326SOL    HW146970   6.407  12.220  11.401  0.7054 -1.0785  0.8941
76326SOL    HW246971   6.498  12.179  11.287  1.8501 -2.2477  2.1970
76327SOL     OW46972  11.919  12.665   2.540 -0.1356 -0.1414 -0.0847
76327SOL    HW146973  11.976  12.588   2.540  1.5254  1.0350  0.0031
76327SOL    HW246974  11.970  12.732   2.586 -1.4166  1.1068 -0.4244
76328SOL     OW46975  10.620   5.943  11.848 -0.2446 -0.2815  0.0971
76328SOL    HW146976  10.615   6.036  11.829  1.1894  0.2273  1.8205
76328SOL    HW246977  10.544   5.905  11.806 -0.2157  1.4728 -1.6678
76329SOL     OW46978  11.943   7.011  10.472  0.2666 -0.7772  0.5521
76329SOL    HW146979  11.915   7.050  10.555  0.3891  1.0892 -0.2347
76329SOL    HW246980  12.030   7.047  10.456  0.1328 -0.8814 -0.5159
76330SOL     OW46981  12.129   8.057   4.303 -0.4148 -0.7390  0.3284
76330SOL    HW146982  12.202   8.025   4.249  0.6186 -0.4755  1.5223
76330SOL    HW246983  12.158   8.042   4.393 -1.8942 -0.7064  0.8257
76331SOL     OW46984  12.107  10.565   4.489  0.0365 -0.1743 -0.2402
76331SOL    HW146985  12.149  10.494   4.440  0.8370 -1.0466  1.5918
76331SOL    HW246986  12.036  10.522   4.537 -1.4820  0.8666 -1.4653
76332SOL     OW46987   4.964   4.655   8.406  0.2414 -0.8214  0.2671
76332SOL    HW146988   4.902   4.660   8.333  0.1815  0.9121  0.3988
76332SOL    HW246989   4.960   4.564   8.434 -0.0122 -1.4420 -1.6461
76333SOL     OW46990   1.873   6.242   5.238  0.3793  0.1855  0.1659
76333SOL    HW146991   1.907   6.166   5.190 -0.2022  0.5160 -0.8081
76333SOL    HW246992   1.901   6.318   5.187 -1.1232  0.5028 -0.2499
76334SOL     OW46993  12.896   0.988  11.725 -0.0988  0.2128 -0.0843
76334SOL    HW146994  12.887   1.083  11.712 -0.8634  0.4193  1.6931
76334SOL    HW246995  12.811   0.961  11.760  0.0359 -1.1886 -0.7891
76335SOL     OW46996   3.472   8.224   1.725 -0.1677  0.0221  0.2723
76335SOL    HW146997   3.507   8.266   1.646 -1.5903  0.8040  0.0359
76335SOL    HW246998   3.394   8.177   1.696  0.0273 -0.7759  0.9859
76336SOL     OW46999   1.403   5.714  10.867 -0.4616  0.1579  0.1703
76336SOL    HW147000   1.476   5.743  10.923 -0.4338  0.5091 -0.0446
76336SOL    HW247001   1.328   5.763  10.899 -0.7118 -0.5545  0.7000
76337SOL     OW47002   5.023  12.134  11.382 -0.3201  0.2059  0.1882
76337SOL    HW147003   5.111  12.172  11.379 -0.9576  1.6950 -0.8539
76337SOL    HW247004   5.036  12.047  11.419  1.8863 -0.3403 -1.6341
76338SOL     OW47005   3.215   1.484  11.777 -0.7008  0.1092  0.1950
76338SOL    HW147006   3.175   1.422  11.716  1.7690 -2.8977  1.3822
76338SOL    HW247007   3.245   1.556  11.722  0.1214 -1.7790 -1.9823
76339SOL     OW47008   6.590   7.519   7.177 -0.5028  1.0080 -0.0402
76339SOL    HW147009   6.507   7.480   7.147 -1.5737  1.6094  1.9278
76339SOL    HW247010   6.641   7.445   7.208 -0.8654  0.7536 -0.0353
76340SOL     OW47011   3.126   3.303   8.039  0.0308  0.0019  0.4924
76340SOL    HW147012   3.104   3.324   8.129  1.8975  0.1461  0.9625
76340SOL    HW247013   3.042   3.282   7.998 -0.9216  0.4807  2.0967
76341SOL     OW47014   2.522  13.047   4.426  0.4828 -0.1371 -0.3345
76341SOL    HW147015   2.512  13.014   4.515  1.6226 -0.2813 -0.2549
76341SOL    HW247016   2.601  13.006   4.393  1.0250  1.2296 -0.8190
76342SOL     OW47017  11.047   6.442  11.350  0.2622  0.2824  0.2412
76342SOL    HW147018  11.024   6.352  11.375 -0.3087  0.3740  0.0579
76342SOL    HW247019  11.027   6.494  11.427 -0.8859  0.4720 -0.1757
76343SOL     OW47020   0.592   4.189   3.421 -0.2142  0.0644  0.3285
76343SOL    HW147021   0.575   4.283   3.432 -0.6230  0.1003 -0.5055
76343SOL    HW247022   0.622   4.160   3.506 -0.4340  0.8841  0.6979
76344SOL     OW47023   5.063   2.761  10.036 -0.3859  0.0167 -0.0276
76344SOL    HW147024   5.102   2.843  10.066 -0.6290  0.1423 -0.0493
76344SOL    HW247025   5.056   2.707  10.115  3.1691 -1.4429 -0.5296
76345SOL     OW47026   2.813   5.047  13.187 -0.1838  0.3384 -0.4425
76345SOL    HW147027   2.893   5.013  13.146 -0.5207  0.3882 -1.1635
76345SOL    HW247028   2.747   5.042  13.118 -0.9527 -0.2406  0.3191
76346SOL     OW47029   1.634  11.598   9.874 -0.2808  0.4274 -0.6689
76346SOL    HW147030   1.628  11.664   9.943  0.2238 -0.1316 -0.0658
76346SOL    HW247031   1.589  11.636   9.799 -0.9612  0.9976  0.0165
76347SOL     OW47032   2.074   9.763   4.573 -0.7474 -0.9241  0.2004
76347SOL    HW147033   1.997   9.812   4.599 -0.5996  0.0543 -1.1086
76347SOL    HW247034   2.112   9.732   4.655 -0.6149  1.5091  1.1377
76348SOL     OW47035   1.616   9.754   2.577 -0.2594 -0.0759  0.0828
76348SOL    HW147036   1.663   9.696   2.637  0.3433  0.1576 -0.1563
76348SOL    HW247037   1.659   9.838   2.587  0.4654 -0.2492 -1.3664
76349SOL     OW47038   6.685  13.574   2.034  0.0740  0.4601  0.4645
76349SOL    HW147039   6.736  13.522   2.097  1.4422  0.6995 -0.3965
76349SOL    HW247040   6.680  13.661   2.074  0.3578  0.4366  0.5555
76350SOL     OW47041  13.438   1.521   0.683  0.3131  0.3621 -0.4954
76350SOL    HW147042  13.532   1.509   0.676  0.1910 -0.1842 -1.3708
76350SOL    HW247043  13.401   1.437   0.656 -0.3993 -0.0687  1.5934
76351SOL     OW47044   9.169  11.600  11.385  0.5481 -0.2473  0.0244
76351SOL    HW147045   9.207  11.612  11.298 -0.2657 -0.1734 -0.3322
76351SOL    HW247046   9.209  11.668  11.439  0.3433  0.3238 -0.5328
76352SOL     OW47047  11.682  10.553  11.835  0.3024  0.1380  0.3736
76352SOL    HW147048  11.591  10.523  11.830  0.4399 -0.3276  0.5563
76352SOL    HW247049  11.681  10.623  11.900  0.0514  0.2152  0.2877
76353SOL     OW47050   7.178  12.741   3.210 -0.9143  0.0067 -0.3720
76353SOL    HW147051   7.157  12.822   3.164 -3.1234 -0.1537  0.2616
76353SOL    HW247052   7.118  12.739   3.285  0.3481 -1.3341  0.6759
76354SOL     OW47053   5.175   5.270  12.772 -0.3318  0.6355  0.0923
76354SOL    HW147054   5.202   5.298  12.684 -0.6508  1.5168  0.2597
76354SOL    HW247055   5.245   5.300  12.829 -1.0837  1.9346  0.3839
76355SOL     OW47056  13.904   3.264  12.510 -0.6125  0.0602 -0.1376
76355SOL    HW147057  13.868   3.185  12.549 -0.4851  0.1515  0.1668
76355SOL    HW247058  13.988   3.277  12.555 -1.1890  1.0592  0.7062
76356SOL     OW47059   7.944  11.765   0.457 -0.3323  0.1831 -0.5271
76356SOL    HW147060   8.000  11.699   0.496 -0.1920  0.5945 -0.0199
76356SOL    HW247061   8.004  11.834   0.428 -0.5547  0.5545 -0.1205
76357SOL     OW47062   9.391   0.605   6.406  0.0879 -0.2218 -0.1857
76357SOL    HW147063   9.389   0.541   6.335  1.9248 -0.9550  0.3609
76357SOL    HW247064   9.311   0.588   6.456 -0.3036 -0.9368 -1.0271
76358SOL     OW47065   3.378   1.729   2.850  0.2172 -0.3147  0.4477
76358SOL    HW147066   3.315   1.682   2.905  0.6793 -1.1695  0.2530
76358SOL    HW247067   3.463   1.695   2.877  0.5098 -0.0825 -0.1768
76359SOL     OW47068  10.099   0.687  10.089 -0.0629  0.1067  0.1305
76359SOL    HW147069  10.189   0.697  10.057  0.5933  2.5459  2.3011
76359SOL    HW247070  10.048   0.749  10.037 -0.1880 -0.2189 -0.1335
76360SOL     OW47071   8.170   3.762   0.102 -0.1527  0.2594  0.1455
76360SOL    HW147072   8.100   3.819   0.135 -1.3556 -0.5520 -0.9103
76360SOL    HW247073   8.128   3.710   0.034  1.3790 -0.6071 -0.1751
76361SOL     OW47074   5.421  13.220  14.055 -0.3009  0.2139  0.5153
76361SOL    HW147075   5.346  13.184  14.007  0.3895 -0.2879 -0.2134
76361SOL    HW247076   5.474  13.144  14.077 -0.2826  0.5115  1.5265
76362SOL     OW47077   2.404   4.809   0.316  0.1428  0.0803  0.2806
76362SOL    HW147078   2.313   4.785   0.302  0.4878 -0.6139 -0.9246
76362SOL    HW247079   2.416   4.805   0.411 -0.6718 -1.4186  0.3409
76363SOL     OW47080   6.830  14.127   8.872 -0.0958  0.2360 -0.2818
76363SOL    HW147081   6.736  14.118   8.854 -0.0137 -0.2390 -0.4922
76363SOL    HW247082   6.854  14.209   8.828 -0.1117 -0.3951 -1.5277
76364SOL     OW47083   9.793   1.062   5.757  1.0949  0.5321  0.1107
76364SOL    HW147084   9.793   1.154   5.730  2.9220  0.1094 -1.5322
76364SOL    HW247085   9.703   1.046   5.786  0.3148  2.4156 -1.0553
76365SOL     OW47086   1.979   5.753  12.103  0.2792 -0.3032 -0.1511
76365SOL    HW147087   2.042   5.796  12.161  0.1090 -0.8493  0.4437
76365SOL    HW247088   1.920   5.707  12.161 -0.0846 -0.6025 -0.7502
76366SOL     OW47089   6.092   3.195  12.490 -0.1986 -0.5337 -0.8683
76366SOL    HW147090   6.029   3.266  12.503 -1.9387 -1.4292 -3.6931
76366SOL    HW247091   6.144   3.223  12.414  1.3598 -0.8393  0.0426
76367SOL     OW47092   9.099   0.333  13.532 -0.4556 -0.7449  0.1227
76367SOL    HW147093   9.023   0.352  13.478 -0.5456  0.9838  0.7959
76367SOL    HW247094   9.109   0.410  13.588  3.0093  0.0677 -1.3570
76368SOL     OW47095   1.214   1.532  10.038  0.2640 -0.1807  0.3120
76368SOL    HW147096   1.173   1.614  10.064 -0.2198 -1.0676  2.6131
76368SOL    HW247097   1.146   1.485   9.991 -0.2977 -0.2497  1.1615
76369SOL     OW47098   8.743   8.394   3.143 -0.1366 -0.3505 -0.1684
76369SOL    HW147099   8.764   8.301   3.133  1.0477 -0.1650  0.4072
76369SOL    HW247100   8.754   8.411   3.237 -1.1339  0.2013 -0.1344
76370SOL     OW47101   1.415   5.849   7.341 -0.9980 -0.2040 -0.2614
76370SOL    HW147102   1.365   5.899   7.405 -2.2195 -1.0519 -0.5211
76370SOL    HW247103   1.356   5.778   7.314  0.4544 -1.4091 -0.3761
76371SOL     OW47104  11.647  11.583  12.578  0.4817  0.0902 -0.1456
76371SOL    HW147105  11.641  11.622  12.666  1.5464  1.9290 -0.8316
76371SOL    HW247106  11.736  11.602  12.550  0.4506 -1.3275 -1.2622
76372SOL     OW47107  10.560   6.238   8.961  0.2747 -0.2827 -0.4265
76372SOL    HW147108  10.491   6.214   8.900  0.1719 -0.1623 -0.3582
76372SOL    HW247109  10.629   6.276   8.906 -0.6474  1.7065 -0.2999
76373SOL     OW47110   8.458   1.503  14.007  0.1787 -0.3133  0.2218
76373SOL    HW147111   8.399   1.520  14.081 -0.7335 -0.3306 -0.4713
76373SOL    HW247112   8.462   1.587  13.961 -1.0088 -0.8489 -0.9045
76374SOL     OW47113   8.916   7.216   6.868  0.3186 -0.1082 -0.3116
76374SOL    HW147114   8.879   7.301   6.842  0.1849  0.2469  0.9965
76374SOL    HW247115   8.874   7.153   6.809 -0.7077  0.5602 -0.3224
76375SOL     OW47116  13.293   3.663   3.067  0.2388 -0.1154 -0.4420
76375SOL    HW147117  13.225   3.730   3.062 -0.0294 -0.3779 -0.3050
76375SOL    HW247118  13.284   3.613   2.986  0.1194 -0.2918 -0.3210
76376SOL     OW47119   1.864   2.533   7.431 -0.1185 -0.0714 -0.2650
76376SOL    HW147120   1.795   2.597   7.413  1.0430  1.0758 -0.8378
76376SOL    HW247121   1.922   2.577   7.493  1.7608  0.2722 -2.1611
76377SOL     OW47122   6.130  11.235  12.288  0.1091 -1.1457  0.5382
76377SOL    HW147123   6.189  11.299  12.325 -1.7122  0.3883  0.9536
76377SOL    HW247124   6.089  11.193  12.363 -1.7037  0.1633  0.3578
76378SOL     OW47125   7.355  14.057   4.634 -0.0273  0.1578  0.2196
76378SOL    HW147126   7.357  13.982   4.693  0.9466  1.4202  1.8811
76378SOL    HW247127   7.448  14.077   4.618 -0.2734  0.4488 -0.9809
76379SOL     OW47128   1.880  10.889   2.586 -0.5555 -0.5893 -0.1247
76379SOL    HW147129   1.973  10.886   2.566 -0.3645 -0.7845  0.7844
76379SOL    HW247130   1.840  10.832   2.520 -0.0922 -0.1477 -0.8015
76380SOL     OW47131  12.632  11.005  13.647  0.0158 -0.4233  0.2651
76380SOL    HW147132  12.700  11.056  13.692 -0.5106  0.4954  0.0616
76380SOL    HW247133  12.660  11.005  13.555 -1.2555  1.7257 -0.1845
76381SOL     OW47134   2.714  11.038   6.069 -0.3518  0.5908 -0.3114
76381SOL    HW147135   2.630  10.997   6.092 -0.3432  0.4837 -0.4681
76381SOL    HW247136   2.774  11.009   6.138  0.2508 -1.5991 -1.6326
76382SOL     OW47137   4.353   6.444   1.421 -0.1268  0.3442 -0.4080
76382SOL    HW147138   4.359   6.505   1.495  0.2582 -0.3929  0.1803
76382SOL    HW247139   4.340   6.501   1.345  1.5874  1.2798 -0.0656
76383SOL     OW47140   5.368   1.507   8.271  0.3367 -0.7214 -0.0602
76383SOL    HW147141   5.346   1.556   8.350  1.0271 -0.2487 -0.1592
76383SOL    HW247142   5.349   1.415   8.294  1.6769 -0.7350  1.0697
76384SOL     OW47143   3.418   6.537   9.648 -0.6024 -0.0342 -0.1742
76384SOL    HW147144   3.501   6.507   9.611  0.6909  1.6468  1.1684
76384SOL    HW247145   3.406   6.624   9.610 -2.5646 -0.8226 -1.4861
76385SOL     OW47146   6.597   8.915   3.288 -0.2179  0.4816 -0.0568
76385SOL    HW147147   6.669   8.877   3.339  0.4215  1.4149 -0.2271
76385SOL    HW247148   6.518   8.886   3.333  0.2959  0.2209  0.7026
76386SOL     OW47149  13.879   0.756   7.643  0.4617  0.7611  0.1143
76386SOL    HW147150  13.802   0.801   7.610  1.7477  3.6393  0.7603
76386SOL    HW247151  13.911   0.704   7.569 -0.2788  2.0513 -1.1423
76387SOL     OW47152  11.880   5.363   4.444  0.0629 -0.1234  0.5857
76387SOL    HW147153  11.840   5.377   4.358  0.0115  0.6903  0.7400
76387SOL    HW247154  11.890   5.268   4.450 -2.9360 -0.4917  1.0244
76388SOL     OW47155  12.716  13.849   7.036 -0.5000  0.2453  0.0683
76388SOL    HW147156  12.790  13.788   7.038 -1.0464 -0.4730 -0.7491
76388SOL    HW247157  12.755  13.935   7.049  0.5013 -0.1037 -0.5005
76389SOL     OW47158   2.445  12.846   3.673  0.1130 -0.5956  0.5404
76389SOL    HW147159   2.380  12.893   3.621 -1.3160 -2.1127  0.8670
76389SOL    HW247160   2.432  12.754   3.650  0.6429 -1.1319  2.2352
76390SOL     OW47161  13.643   8.346   4.492  0.0048  0.1331  0.1797
76390SOL    HW147162  13.717   8.349   4.553 -1.5163 -0.2243  2.1074
76390SOL    HW247163  13.591   8.423   4.513 -0.3338  0.2484 -1.0021
76391SOL     OW47164   4.439   7.035  11.686 -0.2897 -0.2516  0.4707
76391SOL    HW147165   4.410   6.985  11.761 -1.0682  0.2838  0.5370
76391SOL    HW247166   4.485   7.110  11.723  0.5033 -0.6843  0.3805
76392SOL     OW47167   1.814   5.104   1.230 -0.1290  0.2137  0.2236
76392SOL    HW147168   1.781   5.037   1.170  0.7908 -1.3444  1.3729
76392SOL    HW247169   1.861   5.165   1.174 -0.2835 -0.5654 -0.7870
76393SOL     OW47170   2.914  14.084   8.979 -0.1009  0.1928  0.0900
76393SOL    HW147171   2.930  14.176   8.999 -0.3224  0.4156 -0.7166
76393SOL    HW247172   3.002  14.045   8.973 -0.0236  0.2067  1.0538
76394SOL     OW47173  12.939   0.443   9.894  0.1691  1.0485 -0.4245
76394SOL    HW147174  13.003   0.423   9.826  1.9893  1.3130  1.1366
76394SOL    HW247175  12.985   0.500   9.955 -1.9525  2.2465  0.1611
76395SOL     OW47176  12.170   0.665  11.979  0.2841  0.1083  0.1813
76395SOL    HW147177  12.174   0.687  12.071  0.2292 -0.3519  0.2981
76395SOL    HW247178  12.257   0.630  11.959  0.2041 -0.0684  0.1351
76396SOL     OW47179   5.226   0.786  10.447 -0.1229 -0.0472 -1.0271
76396SOL    HW147180   5.301   0.776  10.506 -1.2654 -1.1018  0.2918
76396SOL    HW247181   5.190   0.872  10.469 -0.5450 -0.4340 -0.1258
76397SOL     OW47182   1.995   8.093   1.926 -0.3937 -0.1629  0.3429
76397SOL    HW147183   1.961   8.053   2.006 -0.3314 -0.2482  0.3277
76397SOL    HW247184   1.920   8.140   1.889 -0.5910 -0.6418  0.1244
76398SOL     OW47185  11.861   4.754   7.695  0.4189  0.0469  0.0049
76398SOL    HW147186  11.916   4.830   7.715  1.2866 -0.4238 -0.5514
76398SOL    HW247187  11.817   4.735   7.777  0.4331  0.9563  0.2383
76399SOL     OW47188   8.980   3.538   9.869 -0.0324  0.1273  0.4178
76399SOL    HW147189   9.045   3.489   9.818  0.3608  1.6407 -0.6035
76399SOL    HW247190   9.029   3.569   9.945 -0.3919 -1.3625  1.3040
76400SOL     OW47191   1.907   3.041   7.766 -0.2078 -0.0322 -0.6081
76400SOL    HW147192   1.846   2.980   7.723  0.2334 -1.2524  0.4186
76400SOL    HW247193   1.975   3.057   7.700 -0.4062 -0.5609 -0.9514
76401SOL     OW47194   8.581   7.668   9.598 -0.2992 -0.1118 -0.2284
76401SOL    HW147195   8.602   7.620   9.678  2.3787 -0.0019 -0.7870
76401SOL    HW247196   8.587   7.603   9.529 -1.7743 -0.0205 -0.4789
76402SOL     OW47197   7.183   6.082  12.648  0.2415  0.0350 -0.2799
76402SOL    HW147198   7.276   6.080  12.669 -0.0626 -1.4321  1.1509
76402SOL    HW247199   7.140   6.095  12.732 -0.8449  3.5061 -1.1860
76403SOL     OW47200   3.631  12.451  12.303  0.0745 -0.0628 -0.0761
76403SOL    HW147201   3.571  12.378  12.297  0.1813 -0.1357 -0.3026
76403SOL    HW247202   3.717  12.414  12.282  0.1976  0.0400  0.2415
76404SOL     OW47203   9.947   6.690  10.051  0.5939 -0.4644 -0.6195
76404SOL    HW147204   9.865   6.653  10.019  1.3646 -1.1409 -1.8819
76404SOL    HW247205   9.969   6.637  10.128 -1.3659  1.2942  1.2760
76405SOL     OW47206  14.118   4.963  13.727  0.3600  0.3211 -0.7352
76405SOL    HW147207  14.168   4.968  13.808  0.4956  3.1339 -0.8916
76405SOL    HW247208  14.028   4.949  13.755  0.6802 -0.8832 -0.2490
76406SOL     OW47209   4.967  14.128  11.175 -0.2433  0.8517  0.1116
76406SOL    HW147210   4.983  14.034  11.186  0.1970  0.8119 -0.7235
76406SOL    HW247211   5.022  14.170  11.242  1.7801  0.6035 -1.2758
76407SOL     OW47212  10.414   7.312   7.317 -0.3354 -0.3184 -1.2022
76407SOL    HW147213  10.383   7.221   7.315 -0.0854 -0.4425 -0.0646
76407SOL    HW247214  10.341   7.363   7.281 -0.5547 -0.9394 -1.6571
76408SOL     OW47215   8.321   7.812   7.318  0.4643 -0.1569 -0.4068
76408SOL    HW147216   8.411   7.827   7.287  0.6594 -0.1589  0.1368
76408SOL    HW247217   8.270   7.884   7.280  0.7090 -0.1244 -0.6765
76409SOL     OW47218   7.491   0.567  13.269  0.9392 -0.3289 -0.5409
76409SOL    HW147219   7.441   0.539  13.192  0.5789 -0.8169 -0.1317
76409SOL    HW247220   7.554   0.497  13.284  1.1760 -0.1160 -0.5421
76410SOL     OW47221   4.973   9.608  11.976 -0.2497  1.0313  0.2960
76410SOL    HW147222   4.886   9.588  12.011  0.0144 -0.3856  0.1688
76410SOL    HW247223   5.007   9.676  12.035 -0.7335  0.3257  1.4285
76411SOL     OW47224   9.654   8.984  11.036  0.1052  0.1771 -0.2914
76411SOL    HW147225   9.599   8.906  11.042  0.0489 -0.3605 -4.7298
76411SOL    HW247226   9.610   9.041  10.973  1.1522  3.0005  1.3383
76412SOL     OW47227  10.113   3.989   0.253 -0.0359  0.0099 -0.0517
76412SOL    HW147228  10.072   4.038   0.324 -0.2112  2.8598 -1.9654
76412SOL    HW247229  10.050   3.920   0.231 -0.6662  0.0650  1.4918
76413SOL     OW47230   8.307   3.185   5.499 -0.2991 -0.2732 -0.1629
76413SOL    HW147231   8.397   3.182   5.467 -0.4098  1.1028 -0.6689
76413SOL    HW247232   8.308   3.250   5.569 -1.1792  0.8909 -1.1863
76414SOL     OW47233   7.829  13.640   7.554  0.1855 -0.1867  0.3804
76414SOL    HW147234   7.921  13.621   7.535  0.0254 -0.6486  0.0179
76414SOL    HW247235   7.794  13.556   7.585 -0.4479 -0.4109 -0.8685
76415SOL     OW47236   1.572   2.499   6.050 -0.0142  0.2437  0.4501
76415SOL    HW147237   1.601   2.422   6.099 -2.8421 -0.3510  1.3426
76415SOL    HW247238   1.519   2.548   6.112 -0.4524  1.5256 -0.9024
76416SOL     OW47239   5.221   5.150  12.125 -0.0894 -0.4615  0.1636
76416SOL    HW147240   5.178   5.137  12.041 -0.2853 -0.1029  0.2070
76416SOL    HW247241   5.266   5.234  12.116  0.1344 -0.5639  0.3126
76417SOL     OW47242   3.275   7.013  12.070 -0.3365 -0.2836 -0.1902
76417SOL    HW147243   3.289   6.926  12.034 -1.0042 -0.5051  0.0816
76417SOL    HW247244   3.191   7.041  12.034 -0.4289 -0.0169  0.2237
76418SOL     OW47245  11.544   8.840   4.940 -0.9260 -0.1258 -0.2438
76418SOL    HW147246  11.490   8.895   4.997 -0.3522 -1.1632  1.3587
76418SOL    HW247247  11.625   8.889   4.928 -0.8767 -0.0908  0.2125
76419SOL     OW47248   9.152   0.673   1.478  0.6163  0.2522 -0.1786
76419SOL    HW147249   9.226   0.659   1.419  0.2766 -1.0993 -0.3139
76419SOL    HW247250   9.128   0.586   1.508  1.3114  0.9280  2.6805
76420SOL     OW47251   7.164   4.445  12.259 -0.2037 -0.4430  0.4583
76420SOL    HW147252   7.136   4.530  12.225  1.4422  0.3290  0.9035
76420SOL    HW247253   7.094   4.419  12.319  0.0630  1.4911  1.7050
76421SOL     OW47254   4.879   4.398  11.875 -0.0702  0.0014 -0.1272
76421SOL    HW147255   4.811   4.385  11.942 -0.7124 -2.9286 -1.1748
76421SOL    HW247256   4.840   4.365  11.794  1.2669  1.9494 -1.6593
76422SOL     OW47257  10.027  12.615   6.589 -0.5616 -0.1987 -0.0302
76422SOL    HW147258  10.019  12.579   6.677 -0.9996 -0.2340 -0.0798
76422SOL    HW247259   9.988  12.548   6.532 -0.8462  0.0987 -0.1846
76423SOL     OW47260   4.006   1.652  12.307  0.4601  0.1060 -0.3099
76423SOL    HW147261   4.085   1.600  12.287  1.1363  0.7430  0.6639
76423SOL    HW247262   3.944   1.588  12.342  0.1563 -0.5810 -1.9778
76424SOL     OW47263   3.130   9.070   0.877  0.0131 -0.0896 -0.2621
76424SOL    HW147264   3.203   9.066   0.939 -1.1603  0.3411  1.2056
76424SOL    HW247265   3.067   9.006   0.910  0.1987 -1.3689 -2.2184
76425SOL     OW47266   3.552   3.823   2.846  0.1172 -0.2366 -0.2155
76425SOL    HW147267   3.641   3.820   2.809 -0.0724 -2.0275 -0.6650
76425SOL    HW247268   3.510   3.897   2.803  0.9585 -0.2474 -1.0882
76426SOL     OW47269   8.657  13.960   1.094 -0.3949 -0.1452  0.1160
76426SOL    HW147270   8.631  13.891   1.034  0.0884 -0.8443  0.6935
76426SOL    HW247271   8.583  13.971   1.153 -0.0647 -0.9203  0.6832
76427SOL     OW47272   6.521  12.857  13.712  0.3890 -0.0044  0.3659
76427SOL    HW147273   6.510  12.950  13.728 -0.9803 -0.0606 -0.0346
76427SOL    HW247274   6.496  12.845  13.620  0.2720 -0.7977  0.4891
76428SOL     OW47275   1.773  13.298   5.315  0.0371 -0.3954 -0.2278
76428SOL    HW147276   1.723  13.288   5.396  0.4358  1.4338  0.2726
76428SOL    HW247277   1.748  13.221   5.263 -0.6837 -1.2940  1.3614
76429SOL     OW47278   2.874   5.454  13.891  0.3443  0.2764 -0.1212
76429SOL    HW147279   2.919   5.395  13.951 -2.4267 -1.6097  0.2959
76429SOL    HW247280   2.917   5.440  13.807  3.3811  1.9375  0.9983
76430SOL     OW47281   4.220   9.353   1.039 -0.2126 -0.6755 -0.1034
76430SOL    HW147282   4.224   9.387   0.950 -1.4206 -1.6637 -0.5788
76430SOL    HW247283   4.250   9.424   1.094  1.3384 -0.3230 -1.3577
76431SOL     OW47284  13.876   1.709  12.473  0.0672 -0.0884  0.3762
76431SOL    HW147285  13.961   1.694  12.432 -0.5086  0.9356 -1.2798
76431SOL    HW247286  13.862   1.631  12.527  2.0402 -0.2772  0.7063
76432SOL     OW47287   7.937  13.635  11.427 -0.0091 -0.1990  0.9733
76432SOL    HW147288   8.006  13.634  11.493 -0.3908 -0.6415  1.3689
76432SOL    HW247289   7.939  13.724  11.391  0.4040 -0.0507  1.3586
76433SOL     OW47290   3.845   9.901   6.962  0.2164 -0.3660 -0.0247
76433SOL    HW147291   3.799   9.862   7.037 -0.1578 -1.5726 -0.8613
76433SOL    HW247292   3.795   9.980   6.942 -0.2132 -0.5150  0.4366
76434SOL     OW47293  12.197  11.011   6.008  0.1374 -0.2242 -0.5345
76434SOL    HW147294  12.158  11.046   6.088 -0.1973  0.4979 -1.0038
76434SOL    HW247295  12.291  11.010   6.026 -0.0322 -1.3931  0.3737
76435SOL     OW47296   7.419   2.149   9.802  0.3262 -0.2565  0.3305
76435SOL    HW147297   7.496   2.205   9.812  0.8637 -0.5447 -1.7459
76435SOL    HW247298   7.427   2.084   9.872  2.2669 -0.6076 -0.1816
76436SOL     OW47299   4.588   3.359   9.688  0.3710  0.1548 -0.0823
76436SOL    HW147300   4.599   3.267   9.665  2.3742  0.3991 -0.2320
76436SOL    HW247301   4.612   3.364   9.781 -0.7072  0.3927  0.2067
76437SOL     OW47302   3.562  12.157  10.387  0.1578 -0.1949  0.0729
76437SOL    HW147303   3.495  12.161  10.456 -1.4105  3.8739 -1.4192
76437SOL    HW247304   3.619  12.232  10.404  1.9809 -1.2688 -1.0070
76438SOL     OW47305  10.583   2.764   9.711 -0.6185 -0.0727  0.5828
76438SOL    HW147306  10.651   2.703   9.741 -1.4721 -0.5740  1.5451
76438SOL    HW247307  10.607   2.847   9.751  1.3296  0.6614 -1.8200
76439SOL     OW47308   6.367  11.553   3.737 -0.1292 -0.8217  0.1096
76439SOL    HW147309   6.350  11.480   3.796  0.4799 -1.5375 -0.5838
76439SOL    HW247310   6.281  11.573   3.699 -0.0062 -2.4255 -1.1068
76440SOL     OW47311   8.405   7.448   5.851  0.0867 -0.0260 -0.1629
76440SOL    HW147312   8.431   7.530   5.810 -1.6759  1.1642  0.9867
76440SOL    HW247313   8.363   7.473   5.933  0.5285 -2.1540  0.8053
76441SOL     OW47314   8.845  10.317   2.861  0.0656  0.4903  0.1141
76441SOL    HW147315   8.796  10.344   2.783 -0.8999  0.1401  0.5776
76441SOL    HW247316   8.912  10.385   2.873 -0.8978  1.4946 -0.0131
76442SOL     OW47317   5.686  12.418  10.624 -0.2819 -0.1359  0.0703
76442SOL    HW147318   5.632  12.496  10.631 -0.8598 -0.4725 -0.5093
76442SOL    HW247319   5.740  12.418  10.703 -0.5860  0.6103  0.2787
76443SOL     OW47320   9.553  13.531   0.558 -0.0052 -0.1190  0.0264
76443SOL    HW147321   9.633  13.492   0.595 -1.3486 -1.9565  1.1500
76443SOL    HW247322   9.520  13.464   0.498 -1.2084  0.2354  0.2832
76444SOL     OW47323   7.506  10.740   4.766  0.6103 -0.0661 -0.1449
76444SOL    HW147324   7.579  10.681   4.778  0.5657 -0.1202 -0.1364
76444SOL    HW247325   7.434  10.684   4.736  0.6890  0.0475 -0.5599
76445SOL     OW47326   6.292   9.066   9.483 -0.0513 -0.3560 -0.5088
76445SOL    HW147327   6.309   9.083   9.575 -1.3655  0.3205 -0.3618
76445SOL    HW247328   6.270   8.973   9.479  0.7779 -0.5699 -0.2780
76446SOL     OW47329   0.385  12.161   9.675 -0.7753  0.0643 -0.0794
76446SOL    HW147330   0.348  12.145   9.588 -1.2594  1.4781 -0.1579
76446SOL    HW247331   0.344  12.095   9.731  0.5131 -1.7234 -1.1197
76447SOL     OW47332  10.460   0.122   8.950  0.0009  0.3181  0.0357
76447SOL    HW147333  10.389   0.065   8.980  0.6261  0.0056  0.9462
76447SOL    HW247334  10.524   0.063   8.911  0.7237  0.3576  1.1257
76448SOL     OW47335   9.582   8.063  10.987  0.2370  0.1534  0.1159
76448SOL    HW147336   9.600   8.062  11.081  1.0737 -1.0395 -0.0496
76448SOL    HW247337   9.508   8.124  10.978 -0.7240 -0.7327  1.7028
76449SOL     OW47338   8.792  11.311   4.961  0.1980 -0.2183 -0.1383
76449SOL    HW147339   8.842  11.232   4.937 -0.7729 -0.3873 -1.8334
76449SOL    HW247340   8.701  11.285   4.950 -0.3846 -0.0582  3.3247
76450SOL     OW47341   1.845   8.006  13.363  0.5591 -0.1903  0.2323
76450SOL    HW147342   1.813   7.928  13.409  1.6680  0.6916  2.7060
76450SOL    HW247343   1.805   8.079  13.410  2.7952  0.8025  0.7581
76451SOL     OW47344   9.477   1.258   4.216 -0.3943 -0.6134 -0.3906
76451SOL    HW147345   9.512   1.210   4.291 -1.2050 -0.4053  0.1464
76451SOL    HW247346   9.488   1.200   4.141  3.3404  0.3625 -0.7826
76452SOL     OW47347   4.769   5.022   7.495 -1.2247  0.2336 -0.6395
76452SOL    HW147348   4.806   5.052   7.412 -0.0299 -2.0922 -1.0316
76452SOL    HW247349   4.802   5.084   7.560  0.5368  0.2154 -1.4673
76453SOL     OW47350   7.801   3.376  12.969  0.0964 -0.2708 -0.1673
76453SOL    HW147351   7.890   3.400  12.946 -0.0388  0.0686 -0.3415
76453SOL    HW247352   7.770   3.445  13.027 -0.6097  0.4996 -1.4087
76454SOL     OW47353  13.440   8.551   4.611 -0.1564 -0.8420 -0.8205
76454SOL    HW147354  13.400   8.627   4.654 -0.3287 -2.3281  1.8943
76454SOL    HW247355  13.533   8.571   4.609 -0.2466 -0.3671 -0.5325
76455SOL     OW47356   0.982  11.474   1.619 -0.3268 -0.2780 -0.0568
76455SOL    HW147357   0.912  11.410   1.601 -0.4662  0.2623 -1.5869
76455SOL    HW247358   0.939  11.559   1.610 -0.0101  0.0576  1.4054
76456SOL     OW47359   8.585  12.051   5.552 -0.1836 -0.0823 -0.4819
76456SOL    HW147360   8.500  12.061   5.509 -0.4025 -1.9124 -0.5614
76456SOL    HW247361   8.648  12.044   5.481 -0.1092  0.1375 -0.4395
76457SOL     OW47362   8.962   5.671   2.535  0.4245  0.1093 -0.2822
76457SOL    HW147363   8.941   5.582   2.561  0.1237  0.2742  0.0524
76457SOL    HW247364   9.043   5.663   2.484  1.6467 -0.1142  1.5927
76458SOL     OW47365  13.239  11.502   8.991 -0.2827 -0.8730  0.1258
76458SOL    HW147366  13.281  11.587   8.979 -1.6839 -0.4128 -1.9088
76458SOL    HW247367  13.302  11.439   8.955 -0.7366 -0.3245 -1.6760
76459SOL     OW47368   7.852   9.140   3.531 -0.2999 -0.6824 -0.1878
76459SOL    HW147369   7.866   9.230   3.500  0.2369 -1.0230 -0.9478
76459SOL    HW247370   7.937   9.113   3.565 -0.1528 -1.3145 -1.0434
76460SOL     OW47371   0.195   0.154   1.858 -0.0239  0.3328 -0.3950
76460SOL    HW147372   0.245   0.113   1.928 -0.8259  0.7204  0.4334
76460SOL    HW247373   0.253   0.221   1.824  0.2314  0.4213  0.1897
76461SOL     OW47374  10.811   0.842   8.534 -0.5827  0.2609 -0.0079
76461SOL    HW147375  10.793   0.748   8.538 -0.0585  0.1693  0.2387
76461SOL    HW247376  10.784   0.876   8.620 -2.2549  0.6152 -0.6276
76462SOL     OW47377   0.414   9.537  10.705  0.4838 -0.2466 -0.6444
76462SOL    HW147378   0.382   9.612  10.654  2.7474 -0.0205 -1.8807
76462SOL    HW247379   0.439   9.574  10.789  1.6791  0.4715 -1.2789
76463SOL     OW47380   8.323  13.194   2.273  0.0004  0.5019 -0.1528
76463SOL    HW147381   8.386  13.127   2.298  1.0114  1.8199  0.9711
76463SOL    HW247382   8.349  13.272   2.322 -2.0086  1.3296 -0.2965
76464SOL     OW47383  10.093   7.272  13.213  0.4023  0.0775  0.6105
76464SOL    HW147384  10.001   7.296  13.227 -1.2334 -3.3838 -2.5420
76464SOL    HW247385  10.111   7.208  13.282 -0.0613 -0.3106  0.3778
76465SOL     OW47386   6.730  10.271   2.451  0.6045 -0.4419  0.0195
76465SOL    HW147387   6.723  10.202   2.517  2.2130 -0.2987  0.3821
76465SOL    HW247388   6.798  10.329   2.484  1.1091 -0.0960 -1.5237
76466SOL     OW47389   9.567  13.819   9.649  0.1838 -0.1000  0.4906
76466SOL    HW147390   9.637  13.780   9.700 -1.3830 -1.7897  1.4941
76466SOL    HW247391   9.530  13.887   9.705 -0.0106 -0.3370  0.6549
76467SOL     OW47392  10.536   3.395  14.065  0.0499  0.2277 -0.2826
76467SOL    HW147393  10.495   3.342  14.134 -0.1718  1.4102  0.5338
76467SOL    HW247394  10.535   3.339  13.988  1.3412 -1.5617  0.9352
76468SOL     OW47395   8.998  10.041   8.723 -0.0532  0.0016 -0.8293
76468SOL    HW147396   8.904  10.041   8.743 -0.2490  1.6883 -1.5540
76468SOL    HW247397   9.021   9.948   8.719 -1.0480 -0.4944  2.0786
76469SOL     OW47398   1.952   8.501   7.156  0.1619  0.0407 -0.0961
76469SOL    HW147399   1.952   8.573   7.219  0.1714  0.3820 -0.4831
76469SOL    HW247400   1.965   8.543   7.071 -2.3641 -0.1507 -0.6321
76470SOL     OW47401   4.795  13.338   0.680 -0.3148 -0.1931 -0.4133
76470SOL    HW147402   4.718  13.322   0.626 -0.5920  1.0215 -0.4018
76470SOL    HW247403   4.767  13.320   0.769 -0.2199 -0.9571 -0.5303
76471SOL     OW47404  11.837  11.290   1.423  0.3520 -0.0247  0.0180
76471SOL    HW147405  11.742  11.293   1.435 -0.1469 -2.0014 -2.5687
76471SOL    HW247406  11.852  11.332   1.338  1.8020  0.2461  0.3792
76472SOL     OW47407   8.197   0.429  12.396 -0.6455  0.1863  0.4058
76472SOL    HW147408   8.263   0.446  12.330  0.7498  0.2224  1.7542
76472SOL    HW247409   8.214   0.494  12.465 -1.6392 -0.2504  1.0921
76473SOL     OW47410   4.638   1.795   2.713 -0.0027 -0.2621 -0.4691
76473SOL    HW147411   4.577   1.763   2.779 -0.7511  0.7800 -0.6289
76473SOL    HW247412   4.633   1.891   2.719  1.6615 -0.1324 -0.4471
76474SOL     OW47413   2.782   9.663   1.406 -0.1901 -0.7138 -0.1809
76474SOL    HW147414   2.824   9.633   1.487 -1.5186 -0.7740  0.5173
76474SOL    HW247415   2.767   9.582   1.356  2.3527 -0.5199 -1.4147
76475SOL     OW47416  10.430   0.689   4.986  0.5357  0.0704 -0.8812
76475SOL    HW147417  10.514   0.681   4.941  0.4584  0.2793 -1.0665
76475SOL    HW247418  10.416   0.603   5.026  2.0578  0.8061  1.3748
76476SOL     OW47419   0.307   3.529   4.698 -0.1713  0.3938  0.2099
76476SOL    HW147420   0.341   3.608   4.657 -0.6635  0.5698  0.1299
76476SOL    HW247421   0.278   3.475   4.624 -0.5415  0.4714  0.2939
76477SOL     OW47422   1.261   7.209   2.615 -0.0243  0.2961  0.1248
76477SOL    HW147423   1.302   7.177   2.695  0.1611  0.3837  0.0647
76477SOL    HW247424   1.309   7.288   2.593 -0.9108  0.9845  0.6256
76478SOL     OW47425   5.415  11.804  13.018  0.1736 -0.2809  0.3141
76478SOL    HW147426   5.406  11.738  12.949  0.7704  1.0213 -1.0766
76478SOL    HW247427   5.356  11.874  12.992  1.6377  0.9531  0.2003
76479SOL     OW47428  13.635   3.703   2.712  0.0204 -0.9266  0.0609
76479SOL    HW147429  13.646   3.790   2.750 -0.9731 -0.8490  0.2146
76479SOL    HW247430  13.548   3.706   2.672 -0.9005 -2.4629  1.7730
76480SOL     OW47431  10.832   2.076   0.498  0.3231 -0.3121  0.2935
76480SOL    HW147432  10.884   2.155   0.486  3.7956 -2.4320  0.0783
76480SOL    HW247433  10.840   2.056   0.591 -2.1270  0.4926  0.7456
76481SOL     OW47434   7.862   6.479  11.319  0.1329 -0.2179 -0.0544
76481SOL    HW147435   7.894   6.401  11.364  0.5399  0.2777  0.5399
76481SOL    HW247436   7.857   6.546  11.387 -2.2367 -0.2691 -0.1115
76482SOL     OW47437  12.164   1.961   3.030  0.3343  0.3826  0.4514
76482SOL    HW147438  12.123   2.013   2.962  0.2157  1.0285  1.0069
76482SOL    HW247439  12.203   1.887   2.984  0.2787  0.8256 -0.3113
76483SOL     OW47440  11.379   3.972   0.801 -0.3338  0.4113 -0.3565
76483SOL    HW147441  11.420   4.058   0.789 -0.7240  0.5204 -0.9486
76483SOL    HW247442  11.288   3.985   0.774 -0.7228  0.1266  0.7787
76484SOL     OW47443   8.705   5.593   5.700  0.1072 -0.2088  0.4759
76484SOL    HW147444   8.768   5.619   5.633  1.2337 -0.1970  1.5022
76484SOL    HW247445   8.627   5.645   5.682 -0.0038 -0.9804 -1.4480
76485SOL     OW47446  11.564   2.939   4.462 -0.3271  0.0459  0.1206
76485SOL    HW147447  11.561   2.870   4.396 -1.6813  0.7394 -0.5840
76485SOL    HW247448  11.509   2.906   4.534 -1.2238  0.4880 -0.3440
76486SOL     OW47449   5.453   3.169   9.042 -0.3071  0.1481  0.5828
76486SOL    HW147450   5.439   3.263   9.033  0.3083  0.2749  0.8853
76486SOL    HW247451   5.525   3.162   9.105  0.0584 -0.5079  0.0937
76487SOL     OW47452   4.707  13.883  12.149  0.3048  0.0697  0.3333
76487SOL    HW147453   4.614  13.879  12.128  0.2165 -2.3818  0.8331
76487SOL    HW247454   4.750  13.895  12.065 -0.4344  1.6528  0.1399
76488SOL     OW47455   1.391   1.412   5.213  0.2473 -0.4588 -0.0410
76488SOL    HW147456   1.367   1.449   5.128 -0.2865 -1.0125 -0.1387
76488SOL    HW247457   1.414   1.322   5.194  1.2742 -0.2642  0.2351
76489SOL     OW47458   9.595   6.742  10.823 -0.3075  0.5325  0.0885
76489SOL    HW147459   9.683   6.718  10.795  0.2157  2.4588 -0.0710
76489SOL    HW247460   9.588   6.710  10.913 -0.2862 -1.5582 -0.6029
76490SOL     OW47461   2.273   7.389   6.727 -1.0386 -0.5434 -0.3930
76490SOL    HW147462   2.209   7.318   6.724 -2.4252  0.5344  1.7354
76490SOL    HW247463   2.221   7.469   6.721  0.0363  0.3713  1.6050
76491SOL     OW47464   8.098  13.913   2.389  0.0609 -0.2624 -0.3296
76491SOL    HW147465   8.029  13.847   2.397  0.1787 -0.2194  1.4653
76491SOL    HW247466   8.052  13.997   2.385 -0.0970 -0.3939 -2.7804
76492SOL     OW47467   0.216   5.865   5.504  0.5086 -0.0856  0.3201
76492SOL    HW147468   0.136   5.885   5.553  0.6879  0.2295  0.4870
76492SOL    HW247469   0.272   5.820   5.567  0.5144 -0.1888  0.2407
76493SOL     OW47470   4.175  11.708   5.245 -0.4717  0.4064 -0.2351
76493SOL    HW147471   4.094  11.667   5.275  0.5217 -0.7866  0.9621
76493SOL    HW247472   4.164  11.801   5.263 -0.7355 -0.0054  2.0738
76494SOL     OW47473   6.555  12.517   0.311  0.1152  0.2718  0.5253
76494SOL    HW147474   6.461  12.517   0.325  0.1344 -0.7549  0.7135
76494SOL    HW247475   6.578  12.425   0.300  0.8587  0.6050 -1.1435
76495SOL     OW47476   4.796   1.803   1.094 -1.1322  0.2583  0.3567
76495SOL    HW147477   4.870   1.793   1.153 -0.1737 -1.3466 -1.0271
76495SOL    HW247478   4.756   1.887   1.119  1.2271  1.2458  1.0239
76496SOL     OW47479  10.964  12.648   2.952  0.8358  0.3356  0.2342
76496SOL    HW147480  11.007  12.596   3.021 -1.7365 -0.1212  1.6028
76496SOL    HW247481  10.920  12.583   2.897 -0.2647  0.9098  0.4177
76497SOL     OW47482   8.453  10.791   6.148  0.3081 -0.2936 -0.5236
76497SOL    HW147483   8.491  10.864   6.100  0.7804  0.1239  0.4592
76497SOL    HW247484   8.463  10.716   6.090 -0.0956  0.3917 -1.5047
76498SOL     OW47485   3.002  12.964  11.549  0.6369 -1.0992 -0.1202
76498SOL    HW147486   3.070  13.027  11.525 -0.4165 -0.4936 -1.6579
76498SOL    HW247487   3.046  12.879  11.547  1.5879 -0.6192 -0.0429
76499SOL     OW47488   9.392   9.298  10.600 -0.1726 -0.1916  0.3817
76499SOL    HW147489   9.338   9.311  10.678 -2.2566 -0.4053 -0.9574
76499SOL    HW247490   9.334   9.319  10.527  0.6857 -3.0939 -1.2802
76500SOL     OW47491   7.593  13.065   7.805 -0.1363 -0.0811 -0.6223
76500SOL    HW147492   7.561  13.015   7.880 -1.5538 -0.1437 -1.2187
76500SOL    HW247493   7.661  13.122   7.840 -0.6792 -0.1955  0.6779
76501SOL     OW47494   2.689  14.115   0.638 -0.2172  0.8025 -0.3582
76501SOL    HW147495   2.756  14.054   0.608 -0.5612 -0.8957  2.0835
76501SOL    HW247496   2.729  14.202   0.628  1.8709 -0.0738 -0.1132
76502SOL     OW47497   7.772  10.873   2.680 -0.0676  0.1069 -0.9369
76502SOL    HW147498   7.849  10.929   2.670  0.9744 -1.0590  0.3409
76502SOL    HW247499   7.704  10.933   2.712  0.8096  0.7861 -0.3012
76503SOL     OW47500  13.177   5.835   9.644  0.4384  0.5190 -0.0436
76503SOL    HW147501  13.184   5.761   9.584  1.7233  0.8246 -0.2999
76503SOL    HW247502  13.114   5.894   9.603  2.1637  1.2944 -1.7736
76504SOL     OW47503   7.909   1.440   0.228  0.4495 -0.3944  0.6816
76504SOL    HW147504   7.882   1.494   0.302  2.9065  1.4281  0.3939
76504SOL    HW247505   7.964   1.372   0.267 -1.2132 -1.6795  0.8579
76505SOL     OW47506  10.492   2.500   4.413  0.9565  0.6144  0.5811
76505SOL    HW147507  10.471   2.431   4.477  0.9024  0.6520  0.6046
76505SOL    HW247508  10.537   2.454   4.342 -1.0304  0.1358 -0.4707
76506SOL     OW47509  11.737   9.429   0.395  0.2771  0.2885  0.5485
76506SOL    HW147510  11.719   9.338   0.373  0.5187  0.2341  0.5725
76506SOL    HW247511  11.654   9.461   0.431 -0.7030  0.8915 -2.0128
76507SOL     OW47512  11.967  13.107   3.513 -0.2210 -0.2060 -0.4379
76507SOL    HW147513  11.974  13.123   3.607 -1.4845  0.8000 -0.4769
76507SOL    HW247514  12.028  13.169   3.473  2.5701 -2.6325 -0.2330
76508SOL     OW47515   2.698  11.943   9.412 -0.2864 -0.5504  0.6370
76508SOL    HW147516   2.790  11.951   9.438  0.0068 -0.3415 -0.4191
76508SOL    HW247517   2.676  11.853   9.431 -0.3953 -0.1634  2.5380
76509SOL     OW47518   2.170   3.747  12.160  0.3159 -0.5097  0.1287
76509SOL    HW147519   2.141   3.656  12.167 -0.2951 -0.3521 -0.2679
76509SOL    HW247520   2.241   3.755  12.224  1.7313 -1.7891 -1.1956
76510SOL     OW47521   7.738  12.330  10.917  0.1230 -0.3993  0.2070
76510SOL    HW147522   7.807  12.320  10.984  0.7131 -0.7959 -0.4445
76510SOL    HW247523   7.713  12.240  10.896 -0.0417 -0.2732 -0.1355
76511SOL     OW47524  13.253   4.670  12.871 -0.0050  0.1058 -0.2266
76511SOL    HW147525  13.278   4.658  12.963  0.6108  0.4760 -0.3360
76511SOL    HW247526  13.326   4.720  12.834 -0.0191 -0.4732 -1.0355
76512SOL     OW47527   9.844  13.775   9.773 -0.8532 -0.4402 -0.2770
76512SOL    HW147528   9.860  13.841   9.706  1.1989  0.5708  1.0875
76512SOL    HW247529   9.918  13.784   9.833 -2.0521 -1.9953  1.5590
76513SOL     OW47530  12.510  12.352   8.447 -0.3759  0.0069 -0.5473
76513SOL    HW147531  12.437  12.405   8.415  0.0827  0.7380 -0.4102
76513SOL    HW247532  12.545  12.309   8.369 -0.8091 -0.1693 -0.6456
76514SOL     OW47533  12.106   9.572   9.196  0.0111  0.6365 -0.7520
76514SOL    HW147534  12.141   9.661   9.208  0.3634  0.3258  0.6688
76514SOL    HW247535  12.086   9.542   9.284 -3.1110  0.4459 -1.4126
76515SOL     OW47536   8.214   9.852   8.363  0.4811  0.1852  0.3209
76515SOL    HW147537   8.172   9.785   8.417  0.1137  1.0227  1.0981
76515SOL    HW247538   8.201   9.822   8.273  1.1402 -1.2626  0.6746
76516SOL     OW47539   1.997   5.089   0.647  0.0293 -0.1940  0.0967
76516SOL    HW147540   1.959   5.165   0.604 -0.9033 -0.3094  0.6868
76516SOL    HW247541   2.015   5.027   0.576 -0.6631 -0.0379 -0.2254
76517SOL     OW47542   6.193   9.722   3.668 -0.2602  0.1750  0.5265
76517SOL    HW147543   6.242   9.662   3.724  0.2205  0.0434 -0.0287
76517SOL    HW247544   6.183   9.675   3.585 -2.8273 -0.5261  1.1342
76518SOL     OW47545   0.751   5.014   8.481  0.0805  0.0595 -0.2775
76518SOL    HW147546   0.740   5.088   8.540 -0.2206  0.1103 -0.3979
76518SOL    HW247547   0.819   5.042   8.419 -1.0834  0.8279 -1.2600
76519SOL     OW47548  13.880   3.530   3.160  0.2873 -0.0087 -0.1791
76519SOL    HW147549  13.790   3.550   3.133  0.0893 -0.5289  0.0869
76519SOL    HW247550  13.883   3.435   3.163  0.6138  0.0244  0.6181
76520SOL     OW47551   7.858  11.787   9.870  0.4811 -0.2133  0.4813
76520SOL    HW147552   7.795  11.840   9.821 -1.2909 -1.4043  1.3609
76520SOL    HW247553   7.895  11.727   9.805  0.9848  0.7038 -0.1030
76521SOL     OW47554   8.393   8.079   5.728  0.1366 -0.6541 -0.2283
76521SOL    HW147555   8.308   8.048   5.759  0.2326  0.9881  1.8843
76521SOL    HW247556   8.383   8.173   5.717  1.2409 -0.6524 -1.6650
76522SOL     OW47557   3.853  13.261   1.578 -0.3642 -0.3702 -0.3010
76522SOL    HW147558   3.820  13.292   1.493  1.9485  1.3693 -0.6619
76522SOL    HW247559   3.774  13.240   1.628 -2.0372  2.6020 -1.4182
76523SOL     OW47560  10.645  13.924   9.164  0.5415  0.1585  0.2931
76523SOL    HW147561  10.565  13.976   9.156  0.1711 -0.3968  0.3413
76523SOL    HW247562  10.666  13.924   9.257 -0.3327 -1.0542  0.5156
76524SOL     OW47563   9.145   9.400   1.203  0.4478 -0.3833 -0.7294
76524SOL    HW147564   9.097   9.457   1.143 -1.3496 -2.2446 -1.1928
76524SOL    HW247565   9.204   9.350   1.146 -1.4127 -2.3061 -1.1240
76525SOL     OW47566   8.841   1.342  11.834 -0.1087  0.2599 -0.1820
76525SOL    HW147567   8.784   1.418  11.842  0.4907  0.7784 -0.7849
76525SOL    HW247568   8.806   1.294  11.759 -0.8068 -0.3580  0.5110
76526SOL     OW47569   8.721   3.692   2.997  0.6853 -0.4485  0.1882
76526SOL    HW147570   8.772   3.613   2.981  2.2327  0.5193  0.1476
76526SOL    HW247571   8.780   3.764   2.974 -0.8565  0.7166 -0.2759
76527SOL     OW47572   8.137  12.845   8.495  0.2465  0.0254 -0.3832
76527SOL    HW147573   8.221  12.870   8.532  0.2803 -0.2590 -0.2599
76527SOL    HW247574   8.155  12.762   8.450 -0.1139 -0.4166  0.2601
76528SOL     OW47575   1.242   3.076   9.064  0.1611  0.0318 -0.3348
76528SOL    HW147576   1.198   3.160   9.055 -2.3106 -0.9805  1.2601
76528SOL    HW247577   1.319   3.095   9.118 -0.5622  1.2315  0.3260
76529SOL     OW47578   4.500  12.429   5.379 -0.5453 -0.4951  0.3983
76529SOL    HW147579   4.465  12.412   5.291  0.7330 -1.2518  0.0053
76529SOL    HW247580   4.584  12.384   5.380  0.6029  1.5670  1.1728
76530SOL     OW47581  13.750  10.788   2.666 -0.5364  0.2353 -0.0177
76530SOL    HW147582  13.844  10.792   2.683 -0.3728 -1.5222 -0.2763
76530SOL    HW247583  13.710  10.826   2.744  0.3633 -0.8831  1.0309
76531SOL     OW47584   7.686  10.958   6.879  0.5555 -0.2584 -0.0625
76531SOL    HW147585   7.637  11.007   6.945 -0.0343 -1.8913  0.7840
76531SOL    HW247586   7.641  10.874   6.873  0.6366 -0.2078 -2.5301
76532SOL     OW47587   4.620  12.825   7.646  0.0452  0.0164  0.5483
76532SOL    HW147588   4.582  12.830   7.734  0.0203  0.7393  0.5046
76532SOL    HW247589   4.591  12.906   7.603  0.2477 -0.2240 -0.0449
76533SOL     OW47590   5.249   7.582   9.335 -0.3211  0.1418 -0.1203
76533SOL    HW147591   5.212   7.496   9.318 -0.4225 -0.2064  1.6752
76533SOL    HW247592   5.247   7.591   9.431 -0.9643  2.4208 -0.2847
76534SOL     OW47593   6.241   7.223   7.197  0.1144 -0.0172  0.0715
76534SOL    HW147594   6.167   7.176   7.234 -1.9008  1.6726 -1.5595
76534SOL    HW247595   6.246   7.192   7.106  0.5767  0.8263 -0.2037
76535SOL     OW47596  13.145   9.194   0.152 -0.4862  0.4865  0.0762
76535SOL    HW147597  13.095   9.265   0.193 -2.6978 -1.2732  0.6428
76535SOL    HW247598  13.176   9.141   0.225 -0.1604  0.0376 -0.3800
76536SOL     OW47599   3.182   8.611   5.596  0.2821  0.5494 -0.1754
76536SOL    HW147600   3.257   8.670   5.606  1.5413 -1.0782  0.6722
76536SOL    HW247601   3.129   8.649   5.526  1.7947  1.8705 -0.6507
76537SOL     OW47602   5.262  10.105  12.276  0.1114 -0.1846 -0.3314
76537SOL    HW147603   5.246  10.166  12.205  1.4130 -0.1813 -0.6623
76537SOL    HW247604   5.276  10.021  12.233  1.0809 -0.1504 -0.1230
76538SOL     OW47605  12.751  12.356   9.561  0.1907  0.4163 -0.4718
76538SOL    HW147606  12.697  12.365   9.482  0.7206  0.1889 -0.8628
76538SOL    HW247607  12.719  12.276   9.603  0.6049 -0.0279 -1.0007
76539SOL     OW47608   0.768   6.130   6.784 -0.5205  0.2036 -0.6751
76539SOL    HW147609   0.716   6.141   6.863  0.9082  1.0416  0.1876
76539SOL    HW247610   0.786   6.036   6.780  1.4922  0.4246  1.4272
76540SOL     OW47611  13.356   1.534   2.334 -0.0795  0.0227  0.1439
76540SOL    HW147612  13.292   1.598   2.304 -0.5575 -0.9556 -0.9881
76540SOL    HW247613  13.321   1.503   2.418  0.1733  1.2224  0.7230
76541SOL     OW47614   5.908   0.007   6.562 -0.4889  0.0700 -0.0569
76541SOL    HW147615   5.948   0.022   6.476 -2.5079 -1.3484 -1.3443
76541SOL    HW247616   5.978   0.028   6.624  1.6375 -0.5426 -2.0617
76542SOL     OW47617   0.263   4.771   8.472 -0.1499 -0.0691  0.0807
76542SOL    HW147618   0.352   4.765   8.436 -0.4991  2.5385 -1.4822
76542SOL    HW247619   0.263   4.711   8.546  2.2429 -1.7714 -1.1710
76543SOL     OW47620   6.197   2.283  11.058 -0.1949 -0.4127 -0.1944
76543SOL    HW147621   6.126   2.347  11.056 -0.4142 -0.6714 -1.0169
76543SOL    HW247622   6.157   2.203  11.092 -0.6249 -0.9181 -1.7978
76544SOL     OW47623   9.280   9.425  12.070 -0.1512  0.5719  0.4283
76544SOL    HW147624   9.314   9.488  12.006  2.4691  0.3045  1.4729
76544SOL    HW247625   9.357   9.394  12.117 -1.8562 -0.1858  2.8932
76545SOL     OW47626   2.995   8.079  14.065 -0.3979 -0.5878 -0.1199
76545SOL    HW147627   2.937   8.151  14.091  0.1394 -0.3845  0.5522
76545SOL    HW247628   3.082   8.108  14.091 -0.0817 -1.1803 -0.5031
76546SOL     OW47629   3.634  12.765  10.454  0.0486  0.7456 -0.5218
76546SOL    HW147630   3.700  12.696  10.458 -1.9093 -1.1774  1.5662
76546SOL    HW247631   3.665  12.830  10.517  1.0147  0.9199 -1.1632
76547SOL     OW47632   0.906  11.519  11.965  0.3568  0.3687 -0.1814
76547SOL    HW147633   0.914  11.601  11.915  2.1884 -0.1469 -0.7874
76547SOL    HW247634   0.945  11.539  12.050 -0.7385  0.5824  0.2982
76548SOL     OW47635  10.989  13.029   9.986  0.1774  0.0549  0.3201
76548SOL    HW147636  11.064  13.084  10.008  0.3726 -0.1710  0.2257
76548SOL    HW247637  11.025  12.941   9.981 -0.0282 -0.0058 -0.0888
76549SOL     OW47638  12.122   6.496   7.495  0.2795 -0.6652 -0.1692
76549SOL    HW147639  12.064   6.494   7.419  4.3324 -1.0498 -3.6213
76549SOL    HW247640  12.164   6.411   7.496  0.0443 -0.8880  3.0094
76550SOL     OW47641   2.540   5.640   3.347  0.0051 -0.4450 -0.1653
76550SOL    HW147642   2.535   5.672   3.256  0.6732  1.2301  0.3418
76550SOL    HW247643   2.592   5.560   3.341 -2.0429 -1.7701 -1.5547
76551SOL     OW47644   9.897   0.528   5.888 -0.4074  0.0419  0.6539
76551SOL    HW147645   9.945   0.575   5.820  0.4066 -1.2668  0.2990
76551SOL    HW247646   9.839   0.468   5.839 -0.0322 -0.6930  1.0987
76552SOL     OW47647   2.573   8.278   1.623  0.7135 -0.1187  0.5165
76552SOL    HW147648   2.656   8.321   1.605  1.2060 -1.3266 -0.1971
76552SOL    HW247649   2.512   8.316   1.560  1.3168 -0.9397 -0.6026
76553SOL     OW47650  12.669  11.040  10.151  0.1483 -0.1153  0.2731
76553SOL    HW147651  12.613  11.116  10.132  0.5246  0.5012  1.5043
76553SOL    HW247652  12.755  11.064  10.116  0.5271  0.4997  1.5328
76554SOL     OW47653   0.143  14.048   3.894 -0.0978 -0.3500 -0.5739
76554SOL    HW147654   0.083  13.973   3.897  0.2999 -0.6286  1.0220
76554SOL    HW247655   0.218  14.020   3.946  1.4175  0.0288 -2.4278
76555SOL     OW47656  11.467  10.967   4.173 -0.0669  0.4206  0.8288
76555SOL    HW147657  11.509  10.883   4.188 -1.2553  0.1094  2.8311
76555SOL    HW247658  11.523  11.011   4.109  1.3342 -1.3297  0.7764
76556SOL     OW47659  11.862   6.893   9.874  0.1178 -0.1023  0.4975
76556SOL    HW147660  11.815   6.858   9.798 -3.1319  1.4133  1.6279
76556SOL    HW247661  11.903   6.816   9.914 -0.0463 -1.2870 -1.4780
76557SOL     OW47662  13.114   7.612  10.245  0.0673  0.3607  0.0916
76557SOL    HW147663  13.196   7.655  10.270  0.1476  0.3479 -0.1426
76557SOL    HW247664  13.045   7.667  10.283  0.1721  0.6405 -0.1146
76558SOL     OW47665   0.771   6.741   5.963 -0.1702 -0.0441  0.0003
76558SOL    HW147666   0.856   6.723   6.002 -0.8458  0.8786  2.0259
76558SOL    HW247667   0.707   6.703   6.023 -1.2385  0.7783 -0.5632
76559SOL     OW47668   5.225   0.598   9.740 -0.2378  0.1514  0.1149
76559SOL    HW147669   5.211   0.678   9.689 -0.0713 -0.5950 -1.1500
76559SOL    HW247670   5.310   0.566   9.710 -0.1330 -0.3161  0.8882
76560SOL     OW47671   8.641   9.311   5.809  0.1349  0.0630 -0.4375
76560SOL    HW147672   8.617   9.379   5.872 -1.4317 -1.1482  0.3565
76560SOL    HW247673   8.598   9.338   5.727 -2.5457 -1.0725  0.4733
76561SOL     OW47674  13.582   1.560   2.547 -0.2716 -0.2329  0.2001
76561SOL    HW147675  13.674   1.536   2.561 -0.2842 -0.8551 -0.7308
76561SOL    HW247676  13.585   1.634   2.487 -0.0655  4.3298  5.0218
76562SOL     OW47677   4.669   8.863   8.911 -0.0571  0.4766  0.1266
76562SOL    HW147678   4.592   8.911   8.942  1.0510  1.2107  1.9308
76562SOL    HW247679   4.742   8.922   8.929  1.2679 -1.4494  1.5277
76563SOL     OW47680  14.060   7.819   1.516 -0.0068  0.2257 -0.1310
76563SOL    HW147681  14.053   7.819   1.420 -0.2500  0.1476 -0.1158
76563SOL    HW247682  14.152   7.837   1.534 -0.1408  1.1680 -0.3639
76564SOL     OW47683   7.082  13.042  14.008  0.4150  0.4913 -0.2104
76564SOL    HW147684   6.998  13.047  14.054  0.3445 -0.6094 -0.2032
76564SOL    HW247685   7.114  13.132  14.009 -0.9956  1.0262 -0.6508
76565SOL     OW47686  11.338   1.097  10.055 -0.2451  0.0112 -0.7864
76565SOL    HW147687  11.286   1.167  10.015 -0.4477 -0.0712 -0.6692
76565SOL    HW247688  11.273   1.038  10.094 -0.0074  0.7356  0.7600
76566SOL     OW47689  10.042   8.985   2.055 -0.1282 -0.0710 -0.5618
76566SOL    HW147690   9.954   9.014   2.079 -0.4199 -1.3028 -0.0197
76566SOL    HW247691  10.028   8.900   2.014  0.7587  0.0523 -1.1250
76567SOL     OW47692   3.137   1.525   0.167  0.1863 -0.0703  0.1248
76567SOL    HW147693   3.221   1.511   0.209  0.3294 -1.9164 -0.6942
76567SOL    HW247694   3.157   1.580   0.091  0.2851  1.2311  1.0402
76568SOL     OW47695   0.696   0.204   0.374 -0.1507 -0.0432 -0.5768
76568SOL    HW147696   0.683   0.203   0.279 -2.2259  0.4491 -0.3558
76568SOL    HW247697   0.656   0.122   0.404 -1.2905  0.7001  0.0140
76569SOL     OW47698   4.289  12.021   0.374  0.0623 -0.0377  0.1501
76569SOL    HW147699   4.203  12.005   0.336  0.9794 -2.7357 -0.9869
76569SOL    HW247700   4.317  12.104   0.336 -1.7152  0.5563  0.0312
76570SOL     OW47701   9.457  12.894   0.518  0.5236 -0.3399 -0.6864
76570SOL    HW147702   9.420  12.856   0.598 -1.1526  0.6620 -0.9278
76570SOL    HW247703   9.535  12.941   0.548 -1.5659  2.3945  0.9433
76571SOL     OW47704   0.220   8.939  13.312  0.5511 -0.4230  0.0067
76571SOL    HW147705   0.162   9.013  13.294  0.8398  0.3675  2.0121
76571SOL    HW247706   0.177   8.890  13.382  1.8716 -0.2781  0.9752
76572SOL     OW47707  13.413   5.203   0.588  0.0849  0.0187 -0.4590
76572SOL    HW147708  13.349   5.134   0.606  0.6950 -0.2226  0.9779
76572SOL    HW247709  13.405   5.220   0.495 -2.2451  0.1909 -0.2772
76573SOL     OW47710   0.199   5.977  11.839  0.0091 -0.2570  0.2201
76573SOL    HW147711   0.269   5.925  11.878 -0.2045  0.9941  2.4080
76573SOL    HW247712   0.244   6.036  11.778  0.2694 -2.7617 -2.1761
76574SOL     OW47713   3.692  11.662  12.205  0.4226 -0.4135 -0.3248
76574SOL    HW147714   3.716  11.711  12.127  1.6864 -0.0325  0.2751
76574SOL    HW247715   3.733  11.576  12.194 -1.4532 -1.2411 -1.1871
76575SOL     OW47716   1.992   4.691   7.473  0.1566  0.1540 -0.0153
76575SOL    HW147717   2.032   4.778   7.465  3.0461 -1.0648 -0.0328
76575SOL    HW247718   2.062   4.636   7.509 -1.2091 -2.4147 -1.0534
76576SOL     OW47719  13.975   8.576   6.111 -0.3377 -0.5525 -0.7856
76576SOL    HW147720  13.965   8.660   6.065 -0.7428 -0.0505  0.1966
76576SOL    HW247721  14.063   8.547   6.088 -0.0473  0.3304 -0.8299
76577SOL     OW47722   7.877   0.580  12.164 -0.0030 -0.2490 -0.2379
76577SOL    HW147723   7.847   0.508  12.109 -1.0788 -0.9119  1.1625
76577SOL    HW247724   7.808   0.590  12.230  1.9550 -0.5562  1.9752
76578SOL     OW47725   8.545  13.007  12.760 -0.0720  0.0792  0.0078
76578SOL    HW147726   8.485  12.938  12.733 -1.0578  0.4825  1.1007
76578SOL    HW247727   8.617  12.960  12.803 -0.3809 -0.3071  0.1136
76579SOL     OW47728   5.003   2.156  11.533  0.0252  0.1204  1.0086
76579SOL    HW147729   4.982   2.246  11.510  1.1972  0.3267  0.7113
76579SOL    HW247730   5.084   2.137  11.486 -1.0443 -1.6366 -0.2576
76580SOL     OW47731   6.567   7.861  12.679  0.2014 -0.4252  0.8033
76580SOL    HW147732   6.626   7.787  12.667 -2.7122 -2.3649 -4.2422
76580SOL    HW247733   6.501   7.830  12.740  0.0177 -1.2679  0.1762
76581SOL     OW47734  11.521  13.230   2.486  0.6768  0.2856 -0.0433
76581SOL    HW147735  11.458  13.179   2.536  0.7525  0.7752  0.5701
76581SOL    HW247736  11.593  13.170   2.468 -0.0605 -0.3408 -0.9463
76582SOL     OW47737  11.068   5.916  12.955 -0.2683 -0.4379 -0.3931
76582SOL    HW147738  11.134   5.885  13.017 -0.0683 -1.1071 -0.9276
76582SOL    HW247739  11.101   5.890  12.870 -1.5482 -1.4155 -0.6202
76583SOL     OW47740  10.897   0.797   0.100  0.5269  0.4976  0.7940
76583SOL    HW147741  10.915   0.703   0.098  3.2041  0.9166 -0.3871
76583SOL    HW247742  10.922   0.824   0.188  0.1931  0.1896  0.9875
76584SOL     OW47743   1.036   3.964   6.926 -0.1005 -0.1128  0.1949
76584SOL    HW147744   1.083   4.038   6.963  1.5527  0.0326 -1.9663
76584SOL    HW247745   0.945   3.994   6.919  0.1304  0.8991  1.2832
76585SOL     OW47746  10.136   8.320  11.956 -0.9686  0.0783 -0.0886
76585SOL    HW147747  10.071   8.264  11.999 -1.5696 -0.0045 -1.0726
76585SOL    HW247748  10.125   8.406  11.997  0.2809 -0.5869  1.7716
76586SOL     OW47749   1.488   5.301   0.779  0.0895  0.1346 -0.5729
76586SOL    HW147750   1.542   5.238   0.826 -0.6472 -2.0092 -2.4188
76586SOL    HW247751   1.513   5.290   0.687 -1.1157  1.4985 -1.1040
76587SOL     OW47752   9.152  12.339  13.650  0.7028  0.2802  0.2061
76587SOL    HW147753   9.166  12.328  13.744  1.1951  2.0167  0.3862
76587SOL    HW247754   9.185  12.427  13.632  3.2789 -1.0191 -2.1261
76588SOL     OW47755  11.682  12.526   0.302 -0.0804  0.0244 -0.7656
76588SOL    HW147756  11.619  12.507   0.372  0.6100  1.9315  0.4565
76588SOL    HW247757  11.767  12.501   0.339  0.3129  1.2082 -0.8120
76589SOL     OW47758   8.352  11.738   8.644  0.3842  0.0612 -0.6145
76589SOL    HW147759   8.362  11.672   8.575 -0.0163 -1.0372  0.3625
76589SOL    HW247760   8.258  11.757   8.645  0.0652 -1.3546  0.8797
76590SOL     OW47761  13.601  11.762  13.826  0.4902  0.2268 -0.3247
76590SOL    HW147762  13.630  11.694  13.887 -0.2313  0.7811  0.6726
76590SOL    HW247763  13.648  11.841  13.854  0.0088  0.5313 -0.3582
76591SOL     OW47764   8.126  12.791  10.116 -0.4958 -0.2171  0.1572
76591SOL    HW147765   8.114  12.699  10.092  0.2080 -0.2853  0.0350
76591SOL    HW247766   8.043  12.833  10.094 -0.3079 -0.5243 -1.2612
76592SOL     OW47767  10.665   4.889   1.994  1.1438  0.1985  0.2087
76592SOL    HW147768  10.617   4.827   1.938  3.2005 -1.1186 -0.2233
76592SOL    HW247769  10.669   4.969   1.942  0.0701  0.1144 -0.0356
76593SOL     OW47770  11.732   3.624   3.944  0.3713 -0.4099  0.0249
76593SOL    HW147771  11.652   3.597   3.990  0.9545 -0.1522  1.2048
76593SOL    HW247772  11.700   3.664   3.863 -0.7735  0.8298  1.0397
76594SOL     OW47773   9.495  10.730   7.890  0.2397  0.3554  0.3873
76594SOL    HW147774   9.521  10.767   7.806  1.8793  0.4174  0.8938
76594SOL    HW247775   9.403  10.705   7.878  0.4062  0.4878 -1.3653
76595SOL     OW47776   4.073   4.136   0.443  0.5817 -0.1677  0.3239
76595SOL    HW147777   4.160   4.097   0.438  0.3032 -0.7493 -0.1789
76595SOL    HW247778   4.061   4.180   0.359  0.5456  0.2572  0.5483
76596SOL     OW47779  13.619  13.419   6.781  0.6459 -0.1922 -0.3960
76596SOL    HW147780  13.580  13.336   6.753 -0.4281  0.2899 -0.3865
76596SOL    HW247781  13.561  13.486   6.743 -0.3518  0.5206  2.1768
76597SOL     OW47782   0.259   4.233   8.009 -0.1803  0.3984 -0.3649
76597SOL    HW147783   0.261   4.142   8.039 -0.7331  0.9048  1.3214
76597SOL    HW247784   0.335   4.274   8.050 -1.4132  1.3091  1.1356
76598SOL     OW47785   3.588   3.573  11.594 -0.0626  0.2848 -0.2955
76598SOL    HW147786   3.557   3.656  11.631 -1.3209 -0.3886  0.2106
76598SOL    HW247787   3.510   3.535  11.552  0.0587 -1.4129  0.9178
76599SOL     OW47788   2.978  11.678  13.611 -0.3767 -0.9347 -0.3248
76599SOL    HW147789   2.946  11.624  13.684  1.2584 -1.0829  0.3333
76599SOL    HW247790   3.014  11.614  13.549  1.1141 -0.6694  0.2282
76600SOL     OW47791   6.976  13.170  11.123  0.1848  0.1792 -0.2653
76600SOL    HW147792   6.917  13.212  11.060 -0.5769 -1.0646 -0.4074
76600SOL    HW247793   6.958  13.077  11.114  1.7224 -0.1807  0.1640
76601SOL     OW47794   3.469   7.234  10.916 -0.2501 -0.2172  0.7075
76601SOL    HW147795   3.448   7.247  11.008  0.5469 -0.2654  0.8976
76601SOL    HW247796   3.424   7.306  10.871 -1.3269 -0.6618  1.0295
76602SOL     OW47797  13.698   4.739   9.645 -0.5315 -0.1229  0.6724
76602SOL    HW147798  13.660   4.806   9.589 -1.0943  0.9125  2.2314
76602SOL    HW247799  13.774   4.706   9.596 -1.8186 -0.2939 -1.2924
76603SOL     OW47800  11.259   4.342  10.681 -0.3387  0.4122  0.1271
76603SOL    HW147801  11.329   4.401  10.709  1.0639 -0.3808 -1.4898
76603SOL    HW247802  11.204   4.395  10.624  0.3936  0.4334 -0.5858
76604SOL     OW47803   2.792   4.985   5.924 -0.0465  0.0737 -0.1326
76604SOL    HW147804   2.790   4.904   5.873 -1.2255 -0.8195  1.2443
76604SOL    HW247805   2.885   5.010   5.926  0.2722 -0.9564 -1.0050
76605SOL     OW47806   9.766  13.002  14.090  0.2403  0.4330  0.0393
76605SOL    HW147807   9.738  13.032  14.177  0.0020  0.7503 -0.1457
76605SOL    HW247808   9.852  13.041  14.077  2.1482 -2.7501  1.7862
76606SOL     OW47809   8.275   3.304  13.653 -0.9299  0.4033 -0.0015
76606SOL    HW147810   8.277   3.388  13.608 -1.6379 -0.0550 -0.9073
76606SOL    HW247811   8.199   3.309  13.711  0.2536  1.1768  1.5707
76607SOL     OW47812   5.803   6.444   2.080  0.1269  0.2732  0.3504
76607SOL    HW147813   5.758   6.432   2.164 -0.0779 -2.8977 -0.0720
76607SOL    HW247814   5.739   6.418   2.014  1.6055 -1.5911 -0.4551
76608SOL     OW47815   9.079  11.375  12.143  0.2022  0.1508  0.1405
76608SOL    HW147816   9.023  11.435  12.093  0.2899 -0.7477 -1.1013
76608SOL    HW247817   9.057  11.392  12.234 -1.5968  0.3245 -0.2817
76609SOL     OW47818  12.472   2.170   0.172 -0.2057  0.3444  0.1946
76609SOL    HW147819  12.453   2.249   0.122  3.3636  0.1395 -1.8261
76609SOL    HW247820  12.434   2.099   0.119  1.7591  0.3160 -1.3172
76610SOL     OW47821   2.155  13.731   1.130  0.1354 -0.2461 -0.3109
76610SOL    HW147822   2.094  13.708   1.200  1.1705 -1.3730  0.2516
76610SOL    HW247823   2.192  13.815   1.156 -2.1895  1.2408 -1.3819
76611SOL     OW47824   9.434  12.853   1.392  0.5269 -0.6357  0.3504
76611SOL    HW147825   9.351  12.823   1.428  0.1815  0.2218  0.3010
76611SOL    HW247826   9.500  12.803   1.440  0.0005 -0.9598  0.7502
76612SOL     OW47827   7.814   2.422   2.532 -0.0722 -0.3361  0.2394
76612SOL    HW147828   7.817   2.439   2.626 -2.0110  2.4004 -0.0894
76612SOL    HW247829   7.904   2.401   2.508  1.1667  2.3004  2.1640
76613SOL     OW47830   1.141   0.515   3.088  0.1471 -0.5982  0.0026
76613SOL    HW147831   1.073   0.511   3.154 -0.7594  0.2809 -0.8466
76613SOL    HW247832   1.136   0.432   3.042 -0.3548 -0.5367 -0.0540
76614SOL     OW47833   7.000   0.531  12.279 -0.3764  0.6423 -0.4914
76614SOL    HW147834   7.002   0.447  12.326 -2.2194  0.1128 -1.2332
76614SOL    HW247835   7.011   0.597  12.347 -3.5592 -0.0732  0.9020
76615SOL     OW47836   7.691   6.623   1.986 -0.2711  0.4369  0.1430
76615SOL    HW147837   7.733   6.689   2.041 -0.4013 -0.3581  1.2179
76615SOL    HW247838   7.648   6.564   2.048  0.3410 -1.0085 -0.7552
76616SOL     OW47839   1.444   0.825   9.412  0.4814 -0.4118 -0.3658
76616SOL    HW147840   1.533   0.844   9.383  0.4995 -0.1911 -0.1627
76616SOL    HW247841   1.388   0.855   9.340  0.6010 -1.0974 -0.7571
76617SOL     OW47842  11.409   9.966   4.655  0.1036 -0.1779 -0.0079
76617SOL    HW147843  11.458  10.048   4.657 -0.9629  0.5514 -1.9637
76617SOL    HW247844  11.465   9.906   4.605  0.1898 -0.1679  0.0766
76618SOL     OW47845  10.518  11.006  10.626  0.1996  0.0065  0.4817
76618SOL    HW147846  10.459  11.071  10.663  1.9617  2.6483 -1.0208
76618SOL    HW247847  10.487  10.993  10.536  0.1805 -0.8744  0.6031
76619SOL     OW47848   5.617   5.720   1.399 -0.2015 -0.4806  0.2127
76619SOL    HW147849   5.697   5.736   1.447  0.6055  2.9919 -1.9364
76619SOL    HW247850   5.645   5.672   1.321 -0.3812 -0.2718  0.0164
76620SOL     OW47851  13.917  12.083   1.009  0.2897 -0.4301 -0.1144
76620SOL    HW147852  13.944  12.047   0.925 -0.5435  0.2033 -0.6740
76620SOL    HW247853  13.832  12.042   1.027 -0.7988  1.3417 -0.8882
76621SOL     OW47854  10.682   2.887   3.268  0.6101  0.3581 -0.3056
76621SOL    HW147855  10.686   2.974   3.228  0.8696  0.9472  0.9411
76621SOL    HW247856  10.755   2.886   3.330  3.1559 -2.2366 -3.0343
76622SOL     OW47857   5.445  12.982   2.207 -0.1898 -0.2630  0.1865
76622SOL    HW147858   5.404  13.066   2.185 -2.1759 -1.3176 -0.3535
76622SOL    HW247859   5.442  12.978   2.303 -0.1246  0.2624  0.2102
76623SOL     OW47860   6.893   9.587   8.571 -0.0055  0.7019 -0.0232
76623SOL    HW147861   6.983   9.559   8.590 -0.3060  0.4300  1.0316
76623SOL    HW247862   6.839   9.533   8.628 -0.7428  1.9318  0.4687
76624SOL     OW47863   0.784   6.089   4.855 -0.1585 -0.2900  0.5201
76624SOL    HW147864   0.817   6.013   4.902 -0.2553  0.1297  1.2710
76624SOL    HW247865   0.766   6.154   4.923  0.7022  0.7111 -0.1787
76625SOL     OW47866   1.822   4.742  10.501  0.1237 -0.4234 -0.4066
76625SOL    HW147867   1.733   4.777  10.509 -0.0064 -0.2323 -2.2915
76625SOL    HW247868   1.879   4.818  10.510  0.0086 -0.2797 -0.8568
76626SOL     OW47869   4.121  12.059   5.968  0.4496  0.5520 -0.1886
76626SOL    HW147870   4.116  12.155   5.968 -0.0254  0.5347  0.9302
76626SOL    HW247871   4.095  12.034   5.879 -0.5376  1.4146 -0.1540
76627SOL     OW47872  11.338  12.505   8.359  0.0299 -0.5067 -0.0163
76627SOL    HW147873  11.345  12.570   8.429 -0.6399  1.6711 -1.8336
76627SOL    HW247874  11.336  12.421   8.404  0.2296  0.7497  2.5166
76628SOL     OW47875   1.342  12.204   1.773 -0.3690  0.5393 -0.1614
76628SOL    HW147876   1.422  12.256   1.759  0.4953 -0.4449  0.9165
76628SOL    HW247877   1.276  12.249   1.721  0.3919  2.5855  0.5164
76629SOL     OW47878   9.928   5.285   8.292 -0.4714 -0.3639  0.1960
76629SOL    HW147879   9.954   5.353   8.354  1.1691  1.2344 -2.1178
76629SOL    HW247880  10.006   5.232   8.279 -0.9342 -0.9803 -0.1482
76630SOL     OW47881   1.466  13.212   2.375  0.1712  0.8612 -0.3527
76630SOL    HW147882   1.402  13.179   2.438 -1.0554 -0.7541 -2.2807
76630SOL    HW247883   1.549  13.213   2.422 -0.3637 -1.9107  0.8459
76631SOL     OW47884   2.074   1.046   5.033 -0.2975  0.0763  0.2359
76631SOL    HW147885   1.996   1.084   5.073 -0.4360 -0.2740  0.3010
76631SOL    HW247886   2.081   0.958   5.071 -1.3943 -0.9362 -1.7050
76632SOL     OW47887   1.588   5.755  12.269 -0.0614  0.7935  0.2049
76632SOL    HW147888   1.552   5.841  12.287 -1.0806  0.6024 -0.7955
76632SOL    HW247889   1.512   5.696  12.272  0.4150  0.1330 -0.3435
76633SOL     OW47890   0.300  13.683   8.926  0.0361 -0.1061 -0.4074
76633SOL    HW147891   0.296  13.779   8.919  0.2454  0.0152  0.8748
76633SOL    HW247892   0.230  13.652   8.869  0.0399  0.8104 -0.9294
76634SOL     OW47893   2.027  12.730   7.008 -0.2314  0.1342  0.6639
76634SOL    HW147894   2.115  12.692   7.011 -0.0825  0.1767 -1.5436
76634SOL    HW247895   1.972  12.660   6.974 -0.4105  1.0820 -1.1034
76635SOL     OW47896  13.802   7.010   3.561 -0.2817 -0.1168  0.3666
76635SOL    HW147897  13.780   7.097   3.526 -1.2700 -0.0446  1.1036
76635SOL    HW247898  13.749   6.949   3.509  2.3732 -0.6163 -1.9726
76636SOL     OW47899   1.033   9.039  10.832  0.9705 -0.1076 -0.0678
76636SOL    HW147900   1.091   8.987  10.777  0.1041 -0.8051 -0.3544
76636SOL    HW247901   1.086   9.065  10.907  1.9698  0.2585 -0.8894
76637SOL     OW47902  12.891   5.584  13.664  0.6594  0.3183  0.4528
76637SOL    HW147903  12.876   5.586  13.758 -0.1900  2.7568  0.3324
76637SOL    HW247904  12.975   5.628  13.651  0.9143 -0.2579  0.0749
76638SOL     OW47905   5.985   7.423   6.398 -0.3012 -0.3343  0.2912
76638SOL    HW147906   5.923   7.391   6.463 -1.5934  0.2612 -0.6060
76638SOL    HW247907   6.071   7.402   6.434 -1.0218 -2.0713  1.1126
76639SOL     OW47908   5.428   5.373  12.803 -0.2436  0.1012  0.7377
76639SOL    HW147909   5.425   5.452  12.748 -0.8468  0.7328  1.6560
76639SOL    HW247910   5.521   5.362  12.823 -0.0869  0.2215  0.1005
76640SOL     OW47911  13.454   2.757   1.331 -0.0914  0.7555 -0.0188
76640SOL    HW147912  13.438   2.816   1.404 -1.1002  0.3405  0.1161
76640SOL    HW247913  13.387   2.780   1.266 -1.3038 -1.0372  0.5439
76641SOL     OW47914   4.961   9.188  10.644  0.0985  0.7533  0.0618
76641SOL    HW147915   4.982   9.187  10.738  0.3531  1.1442  0.0074
76641SOL    HW247916   5.001   9.268  10.611  2.0149 -0.5102 -0.8522
76642SOL     OW47917  10.772   2.858  13.298  0.0335 -0.1047  0.6610
76642SOL    HW147918  10.844   2.915  13.273 -1.1957  2.4667  2.4928
76642SOL    HW247919  10.720   2.848  13.218  0.5255  1.0427  0.1775
76643SOL     OW47920   9.957   3.701   0.883  0.0581  0.4635 -0.3657
76643SOL    HW147921   9.986   3.624   0.932  1.2770  0.7963 -0.5375
76643SOL    HW247922   9.919   3.665   0.803 -1.2619 -0.0429  0.4550
76644SOL     OW47923   1.942  12.485   0.795  0.6788 -0.6990 -0.4261
76644SOL    HW147924   1.873  12.548   0.816  0.6057 -1.1982  0.9801
76644SOL    HW247925   1.963  12.502   0.704  1.9548  2.6125  0.3402
76645SOL     OW47926  13.486   2.544   4.504 -0.1315 -0.2008 -0.0046
76645SOL    HW147927  13.500   2.473   4.442  0.7443 -0.4036  0.3990
76645SOL    HW247928  13.452   2.617   4.452 -0.3542 -0.6880 -0.5414
76646SOL     OW47929   3.034   3.302  13.910 -0.6441  0.0133 -0.1246
76646SOL    HW147930   3.008   3.305  13.818 -0.5796  0.3401 -0.1329
76646SOL    HW247931   3.033   3.208  13.933  0.9315 -0.2261 -0.9167
76647SOL     OW47932  10.814  12.850   7.128  0.0018 -0.3587 -0.6176
76647SOL    HW147933  10.857  12.917   7.181  0.7178  0.2288 -1.8924
76647SOL    HW247934  10.865  12.847   7.047 -1.2041 -1.0594 -1.3832
76648SOL     OW47935   6.275   8.386   8.318  0.1787 -0.7693  0.5997
76648SOL    HW147936   6.369   8.374   8.308  0.4805  1.5569  0.2759
76648SOL    HW247937   6.255   8.469   8.276 -2.1863 -1.5746 -0.0677
76649SOL     OW47938  10.392   6.220   3.189  0.5595  0.2968  0.0673
76649SOL    HW147939  10.468   6.263   3.231  1.9459 -0.7526 -1.2640
76649SOL    HW247940  10.414   6.127   3.191 -1.3415 -0.1769  0.8246
76650SOL     OW47941  10.512   6.401   2.870  0.3675 -0.5723  0.0236
76650SOL    HW147942  10.586   6.428   2.924  0.7749 -0.9194 -0.3506
76650SOL    HW247943  10.439   6.456   2.900  1.0962  0.7368 -0.5259
76651SOL     OW47944  13.597   1.271  10.159 -0.2121  0.9012  0.2644
76651SOL    HW147945  13.550   1.348  10.128 -2.2317 -0.3086  0.0412
76651SOL    HW247946  13.636   1.233  10.081  1.4792  2.0929  0.4981
76652SOL     OW47947   1.460   6.487  10.130  0.3036 -0.2021  0.5318
76652SOL    HW147948   1.433   6.568  10.174  0.5005 -0.7219  1.6424
76652SOL    HW247949   1.526   6.514  10.067  0.8148  0.4439  1.3215
76653SOL     OW47950   3.765   0.351   6.218 -0.4664  0.2940 -1.1962
76653SOL    HW147951   3.829   0.323   6.283 -1.9509 -1.0552 -0.2517
76653SOL    HW247952   3.756   0.277   6.159 -2.6446 -0.4123 -0.0920
76654SOL     OW47953   2.072  12.517   7.953  0.5161  0.5706 -0.1892
76654SOL    HW147954   2.078  12.575   8.029  0.0463  0.5673 -0.1450
76654SOL    HW247955   2.162  12.510   7.921  0.5066  1.8093 -0.5547
76655SOL     OW47956   1.399   3.673   6.649 -0.1304  0.4232 -0.8454
76655SOL    HW147957   1.332   3.667   6.718  1.9449  1.4370  1.4555
76655SOL    HW247958   1.448   3.591   6.655  0.2511  0.6437 -0.8699
76656SOL     OW47959   1.709   1.345   5.198  0.1329 -0.2440  0.1539
76656SOL    HW147960   1.641   1.333   5.265 -0.1182  0.9049  0.1308
76656SOL    HW247961   1.755   1.262   5.196  0.4901 -0.1511  2.1649
76657SOL     OW47962   1.701   2.848   8.855  0.4864  0.6665  0.1067
76657SOL    HW147963   1.615   2.889   8.848  0.3103  0.3977  0.6413
76657SOL    HW247964   1.706   2.788   8.780 -0.6171 -0.8113  1.1589
76658SOL     OW47965  13.790  13.859   1.461  0.4231  0.0497  0.4711
76658SOL    HW147966  13.713  13.865   1.516  0.9379 -0.3728  1.2568
76658SOL    HW247967  13.832  13.777   1.487  0.9404  0.0879 -0.2041
76659SOL     OW47968   2.792   0.098   9.440 -0.4256  0.1806 -0.2601
76659SOL    HW147969   2.797   0.102   9.345 -1.2866  0.5899 -0.2879
76659SOL    HW247970   2.782   0.005   9.460 -0.2680  0.0982 -0.5623
76660SOL     OW47971   5.904   7.417   3.188 -0.2911 -0.0066  0.2331
76660SOL    HW147972   5.892   7.325   3.214 -2.9312  0.1835 -0.0653
76660SOL    HW247973   5.927   7.462   3.269 -0.6087 -0.6853  0.7155
76661SOL     OW47974   4.698   5.266  11.960 -0.4529  0.2253  0.0929
76661SOL    HW147975   4.723   5.302  12.045  2.5976 -1.5197  0.0964
76661SOL    HW247976   4.617   5.219  11.976  0.4856 -0.7990  2.3112
76662SOL     OW47977  13.175   7.548   7.849  0.4469  0.1062 -0.2070
76662SOL    HW147978  13.253   7.592   7.881  0.0422  0.0405  0.9169
76662SOL    HW247979  13.144   7.497   7.924 -0.6220  0.0547 -0.6686
76663SOL     OW47980  10.485   9.117  11.589  0.1545  0.4484  0.1800
76663SOL    HW147981  10.396   9.117  11.623 -0.1462  0.9646 -0.5727
76663SOL    HW247982  10.541   9.105  11.666 -0.5138  1.3238  0.8208
76664SOL     OW47983  11.774  11.836   2.186  0.0200  0.4909 -0.2453
76664SOL    HW147984  11.861  11.808   2.159  0.0473 -1.8612  1.9503
76664SOL    HW247985  11.717  11.761   2.169 -0.9057  0.7773  1.3179
76665SOL     OW47986   7.616   7.978   3.705 -1.0001 -0.5112  0.1553
76665SOL    HW147987   7.585   8.035   3.635 -1.7318  0.1793  1.0180
76665SOL    HW247988   7.585   7.891   3.679 -0.5346 -0.4144 -0.7862
76666SOL     OW47989   5.611   2.254  13.709 -0.1616 -0.0106 -0.1278
76666SOL    HW147990   5.592   2.315  13.780 -0.5312  0.4260 -0.5936
76666SOL    HW247991   5.571   2.172  13.737 -0.1054  0.0944  0.2730
76667SOL     OW47992  10.184   4.546   4.945  0.6158 -0.2484  0.5057
76667SOL    HW147993  10.205   4.576   5.033  0.9647 -0.8901  0.6514
76667SOL    HW247994  10.253   4.581   4.890  2.0631 -2.1833  0.9501
76668SOL     OW47995   6.141   2.176   3.391 -0.0685  0.4215  0.0997
76668SOL    HW147996   6.057   2.220   3.390 -0.2329  0.2558 -3.0520
76668SOL    HW247997   6.127   2.096   3.341  1.6539 -0.3048  0.6881
76669SOL     OW47998  14.052  13.071  10.408 -0.0770 -0.0398 -0.0387
76669SOL    HW147999  14.085  12.993  10.363  0.7560  0.7263 -0.7953
76669SOL    HW248000  14.120  13.137  10.395 -0.1853  0.4496  1.6852
76670SOL     OW48001   3.526   4.166   2.981 -0.4909 -0.6729  0.0658
76670SOL    HW148002   3.452   4.190   3.038 -1.3904  0.2782 -1.4064
76670SOL    HW248003   3.484   4.128   2.904  0.5060  0.2581 -0.9763
76671SOL     OW48004  13.264  13.400  11.500  0.3074 -0.3723  0.3269
76671SOL    HW148005  13.245  13.318  11.546 -1.6367  0.3292  0.8704
76671SOL    HW248006  13.277  13.374  11.409  0.8651 -1.3920  0.6780
76672SOL     OW48007   9.996  10.344  12.868  0.4603 -0.1683 -0.4905
76672SOL    HW148008  10.041  10.413  12.818 -0.4316  1.4714  0.8647
76672SOL    HW248009  10.065  10.302  12.919  0.7919  0.9653  0.0294
76673SOL     OW48010   7.764   3.663   6.023 -0.0794  0.5116  0.2311
76673SOL    HW148011   7.747   3.737   6.081  2.1133  3.3936 -2.4760
76673SOL    HW248012   7.693   3.665   5.960 -0.5488 -0.3768  0.7152
76674SOL     OW48013   6.879   0.250   8.808 -0.0561  0.3458 -0.2659
76674SOL    HW148014   6.806   0.286   8.757 -0.0104  0.8279 -0.0058
76674SOL    HW248015   6.890   0.313   8.880  0.8288  0.4528 -0.4870
76675SOL     OW48016  10.954   6.734   1.623  0.0307  0.1451  0.0063
76675SOL    HW148017  11.035   6.771   1.588 -0.0794 -0.6431 -1.1284
76675SOL    HW248018  10.906   6.704   1.546 -1.8096  1.4793  0.5616
76676SOL     OW48019   8.456  11.190   7.362 -0.0641  0.3984  0.2754
76676SOL    HW148020   8.492  11.237   7.437 -0.9409  0.3955  0.7135
76676SOL    HW248021   8.391  11.131   7.400 -0.6734  0.5504 -0.5041
76677SOL     OW48022  10.330   5.859   2.142  0.1028 -0.1111  0.9968
76677SOL    HW148023  10.271   5.933   2.158 -0.8051 -0.8059  0.9466
76677SOL    HW248024  10.416   5.890   2.170 -0.0659  1.3175  0.0351
76678SOL     OW48025  12.630  10.612  14.097 -0.2703 -0.1932 -0.1108
76678SOL    HW148026  12.633  10.707  14.103 -2.1288 -0.1590  0.9684
76678SOL    HW248027  12.675  10.581  14.176  0.4218 -0.2170 -0.5120
76679SOL     OW48028   4.485   0.690  11.997  0.4468  0.0628  0.1048
76679SOL    HW148029   4.541   0.616  11.976 -0.1986 -0.5235  0.4218
76679SOL    HW248030   4.399   0.652  12.011  0.3165  0.7454  1.2733
76680SOL     OW48031   5.305  10.439   2.470  0.1338 -0.2191  0.5310
76680SOL    HW148032   5.292  10.510   2.533 -0.7185  0.4295 -0.3412
76680SOL    HW248033   5.308  10.360   2.524  2.3217  0.5322  1.6583
76681SOL     OW48034   9.989   7.518   5.139  0.1852 -0.1385 -0.1014
76681SOL    HW148035   9.915   7.461   5.158  0.5398 -1.0470 -1.3078
76681SOL    HW248036   9.949   7.600   5.109 -0.3243  0.3684  1.7975
76682SOL     OW48037   3.227   9.945  13.798  0.5679 -0.4819 -0.2960
76682SOL    HW148038   3.293   9.980  13.738  1.9660 -2.9380 -0.3041
76682SOL    HW248039   3.267   9.951  13.885 -0.1575  0.1032  0.0147
76683SOL     OW48040   7.265   9.704   2.842 -0.8505 -0.5717  0.1154
76683SOL    HW148041   7.313   9.656   2.910 -2.5945 -0.8828  1.2098
76683SOL    HW248042   7.312   9.787   2.834  0.2450 -1.1151  0.6548
76684SOL     OW48043   0.995  12.910   4.903 -0.1197 -0.2976 -0.8431
76684SOL    HW148044   0.935  12.980   4.878 -1.8888 -1.9215 -1.3897
76684SOL    HW248045   1.011  12.925   4.996 -0.4260  0.8199 -0.9484
76685SOL     OW48046  11.555   6.163   5.580 -0.1438  0.3209  0.5157
76685SOL    HW148047  11.643   6.136   5.554 -0.6546 -0.0366 -0.9133
76685SOL    HW248048  11.539   6.115   5.661  0.7604 -0.0344  0.5047
76686SOL     OW48049  13.083   5.527   2.484  0.0441 -0.7199 -0.1933
76686SOL    HW148050  13.063   5.584   2.558  0.1451  0.5331 -1.1031
76686SOL    HW248051  13.174   5.500   2.500 -0.2087 -1.1601  0.5703
76687SOL     OW48052   5.625   1.279   0.258  0.1357  0.2086  0.1748
76687SOL    HW148053   5.547   1.295   0.310  0.1842 -1.5109  0.8499
76687SOL    HW248054   5.600   1.209   0.198  0.8046  0.5003 -0.4688
76688SOL     OW48055   8.441  13.886   9.295  0.5478 -0.0380  0.2760
76688SOL    HW148056   8.352  13.905   9.265  0.7198  0.1197 -0.1417
76688SOL    HW248057   8.436  13.797   9.329  0.5113 -0.4990 -0.8970
76689SOL     OW48058   5.266  13.240   8.006 -0.4250 -0.2907  0.2936
76689SOL    HW148059   5.177  13.234   7.971  0.3417 -0.9764 -1.6786
76689SOL    HW248060   5.298  13.150   8.004  1.0754  0.2382 -1.1893
76690SOL     OW48061   2.062  12.452  12.418 -0.2631  0.0201 -0.7237
76690SOL    HW148062   2.032  12.364  12.441 -0.3517 -0.1262 -1.3773
76690SOL    HW248063   1.982  12.499  12.392 -0.4022  0.6838  0.7886
76691SOL     OW48064   7.688  13.113  13.389  0.2459 -0.6158  0.0202
76691SOL    HW148065   7.604  13.089  13.428 -0.2288  2.9197  1.5738
76691SOL    HW248066   7.745  13.131  13.463  0.8820  1.4529 -0.8897
76692SOL     OW48067   4.698   2.630  10.269 -0.4478  0.0602 -0.3963
76692SOL    HW148068   4.770   2.594  10.218 -0.9338  0.5191 -1.4408
76692SOL    HW248069   4.721   2.723  10.280  0.0186 -0.1927  0.8876
76693SOL     OW48070   8.224   0.394   7.782 -0.2992 -0.1926 -0.9740
76693SOL    HW148071   8.179   0.450   7.846  1.6458 -0.7044  0.9906
76693SOL    HW248072   8.298   0.447   7.752 -0.1827 -0.6071 -1.4174
76694SOL     OW48073  10.853  11.062   0.273  0.2298  0.5258 -0.0558
76694SOL    HW148074  10.779  11.094   0.222 -0.5982 -2.0495 -0.5869
76694SOL    HW248075  10.819  11.051   0.362 -0.0778 -0.7062 -0.3107
76695SOL     OW48076   4.809   8.463   5.165 -0.4616 -0.2119  0.0100
76695SOL    HW148077   4.754   8.394   5.201 -1.8221  0.6320 -0.3942
76695SOL    HW248078   4.766   8.488   5.084  0.9733 -0.0764 -0.7396
76696SOL     OW48079   1.243   4.431   7.273 -0.3900 -0.2528 -0.0880
76696SOL    HW148080   1.213   4.427   7.364 -0.9710 -0.1199 -0.2687
76696SOL    HW248081   1.325   4.382   7.273 -0.3474 -0.1885  0.5238
76697SOL     OW48082   8.893  10.925   7.231 -0.5706 -0.1195  0.6713
76697SOL    HW148083   8.957  10.860   7.205 -1.2913 -1.1497  1.4084
76697SOL    HW248084   8.883  10.981   7.153 -0.0938 -0.9980 -0.0374
76698SOL     OW48085   7.356   6.203  13.557 -0.1602 -0.0519 -0.4110
76698SOL    HW148086   7.381   6.118  13.592 -0.9122 -0.7211 -1.4454
76698SOL    HW248087   7.346   6.259  13.634 -0.6914 -1.1832  0.3598
76699SOL     OW48088   7.226  10.380   8.651  0.0556 -0.1006 -0.6179
76699SOL    HW148089   7.275  10.303   8.624 -0.1800 -0.7205  0.6659
76699SOL    HW248090   7.293  10.442   8.681  0.2876  0.4400 -2.1284
76700SOL     OW48091  11.278  13.834   4.271 -0.1366 -0.3593  0.0134
76700SOL    HW148092  11.223  13.889   4.327 -0.0933 -2.0113  1.7772
76700SOL    HW248093  11.361  13.881   4.265 -0.3546  0.1486  0.8395
76701SOL     OW48094  12.126   3.308  10.620  0.7284  0.6020  0.1737
76701SOL    HW148095  12.151   3.364  10.694  0.9985 -0.5842  0.9931
76701SOL    HW248096  12.206   3.262  10.596  0.8550  1.5732 -1.4321
76702SOL     OW48097  13.520   7.871  13.443 -0.5153 -0.6608  0.3937
76702SOL    HW148098  13.550   7.895  13.531  0.4406 -2.1029  0.4899
76702SOL    HW248099  13.430   7.904  13.439 -0.9944 -1.5426  2.3601
76703SOL     OW48100   4.676   7.726   7.424  0.5010 -0.0481  0.4293
76703SOL    HW148101   4.635   7.660   7.368  1.1765 -1.3799  1.4476
76703SOL    HW248102   4.671   7.807   7.373  0.5891 -1.0827 -1.3059
76704SOL     OW48103  12.838  14.109   3.992 -0.2541 -0.3889 -0.6221
76704SOL    HW148104  12.765  14.071   3.943 -0.6453  0.0770 -0.4055
76704SOL    HW248105  12.879  14.170   3.931 -1.7063  1.4002  0.0827
76705SOL     OW48106   6.346  11.104   5.469 -0.3314 -0.1841  0.8538
76705SOL    HW148107   6.319  11.027   5.419 -1.3768 -0.5497  1.9360
76705SOL    HW248108   6.417  11.073   5.525 -0.6103 -0.3119  1.1382
76706SOL     OW48109   2.781   5.195  11.678  0.6498  0.2880 -0.3169
76706SOL    HW148110   2.782   5.101  11.694 -1.0264  0.2198 -0.4883
76706SOL    HW248111   2.837   5.231  11.747 -2.3233 -0.4534  2.7226
76707SOL     OW48112  10.140   6.774   1.628 -0.1793 -0.1882 -0.6991
76707SOL    HW148113  10.120   6.689   1.589  1.2358 -1.2144  0.6637
76707SOL    HW248114  10.056   6.807   1.658 -0.7343 -1.1959 -1.0938
76708SOL     OW48115   0.724  10.560   7.650 -0.1979  0.5274 -0.1097
76708SOL    HW148116   0.687  10.575   7.563 -1.1972 -0.9208  0.0289
76708SOL    HW248117   0.661  10.600   7.710 -0.5626 -0.2643  0.0390
76709SOL     OW48118   3.956   5.772   3.086 -0.3181 -0.1210  0.3508
76709SOL    HW148119   3.955   5.692   3.032 -0.3472  1.0975 -1.5451
76709SOL    HW248120   3.864   5.785   3.110 -0.6388  0.3976 -1.0428
76710SOL     OW48121   7.493   2.565   1.539 -0.3134  0.3520 -0.5810
76710SOL    HW148122   7.525   2.500   1.477  0.7003  0.8418 -0.6047
76710SOL    HW248123   7.494   2.647   1.490  0.6778  0.7731  0.1111
76711SOL     OW48124   4.543  11.831  11.646 -0.0137 -0.6017 -0.1835
76711SOL    HW148125   4.478  11.788  11.590  0.7819 -0.7794 -0.9892
76711SOL    HW248126   4.613  11.856  11.587  0.4402  0.0353  0.5996
76712SOL     OW48127   0.956   7.929  12.995  0.1531 -0.2960 -0.1667
76712SOL    HW148128   1.044   7.954  13.022  0.6815 -1.2353 -0.9932
76712SOL    HW248129   0.967   7.890  12.909 -1.3771  1.7213 -1.3647
76713SOL     OW48130   2.408   1.666   0.725  0.5328  0.4089  0.1294
76713SOL    HW148131   2.388   1.676   0.632 -1.0001  0.4645  0.4387
76713SOL    HW248132   2.480   1.726   0.741  0.6686  0.5592 -0.9698
76714SOL     OW48133   3.638   1.444   7.382 -0.0212 -1.0466  0.3788
76714SOL    HW148134   3.547   1.475   7.379  0.3657  0.0780 -0.6538
76714SOL    HW248135   3.658   1.421   7.291  1.2157  0.2701  0.2874
76715SOL     OW48136  10.894   0.215   0.792  0.1557  0.1547  0.1682
76715SOL    HW148137  10.812   0.250   0.825  0.2341  0.8408 -0.3406
76715SOL    HW248138  10.913   0.267   0.714  1.9514  1.2021  1.2486
76716SOL     OW48139  11.360   0.646   0.365  0.3478  0.0425 -0.3395
76716SOL    HW148140  11.365   0.592   0.286  1.7059  0.0298 -0.2647
76716SOL    HW248141  11.365   0.583   0.437 -2.5392 -0.1173 -0.1574
76717SOL     OW48142   2.414  11.976   8.301  0.5203 -0.1172  0.1434
76717SOL    HW148143   2.472  11.918   8.350  1.1838 -0.4438 -0.9890
76717SOL    HW248144   2.332  11.977   8.351  1.3153 -0.0832  1.4743
76718SOL     OW48145  13.810  13.150  10.317  0.0534 -0.6348  0.1975
76718SOL    HW148146  13.887  13.110  10.356 -0.9963 -0.2306  2.8887
76718SOL    HW248147  13.739  13.089  10.335 -0.2788 -1.3560 -2.8560
76719SOL     OW48148   8.269  12.816   6.276  0.5031 -0.3895 -0.1171
76719SOL    HW148149   8.295  12.746   6.216  1.4558 -1.5166  1.5181
76719SOL    HW248150   8.263  12.773   6.361 -1.3344  1.0353  0.5499
76720SOL     OW48151   7.540   6.027   1.131 -0.3951 -0.1651  0.5514
76720SOL    HW148152   7.618   6.081   1.121 -0.0104 -0.8001  0.0378
76720SOL    HW248153   7.476   6.066   1.072 -0.3785  0.1987  0.7742
76721SOL     OW48154   5.711  10.098   5.543 -0.1447  0.3190  0.0575
76721SOL    HW148155   5.690  10.186   5.512 -2.8301 -0.9369 -2.0905
76721SOL    HW248156   5.721  10.045   5.464  0.8205 -1.4436  1.2744
76722SOL     OW48157   7.695   2.662   0.896  0.5747  0.0357 -0.2297
76722SOL    HW148158   7.755   2.713   0.951  1.2873 -0.9554 -0.0506
76722SOL    HW248159   7.608   2.683   0.930  0.9156  0.4331  0.4322
76723SOL     OW48160   6.627  11.208  12.005 -0.0693 -0.1862  0.4010
76723SOL    HW148161   6.539  11.233  11.978 -0.1152 -0.1115  0.6147
76723SOL    HW248162   6.650  11.134  11.949  0.4815  0.9885 -0.9834
76724SOL     OW48163  11.358   3.953  11.566 -0.2105  0.1357  0.2651
76724SOL    HW148164  11.286   3.891  11.550 -0.3063  0.5071 -0.8217
76724SOL    HW248165  11.321   4.038  11.542  0.7632  0.2603 -0.8212
76725SOL     OW48166   5.999   3.875  11.101  0.0486 -0.0036  0.1481
76725SOL    HW148167   6.081   3.859  11.056  0.2185  0.2026  0.3829
76725SOL    HW248168   5.939   3.810  11.065  0.5961 -0.8535  0.7490
76726SOL     OW48169  11.713   0.049   8.250 -0.9035  0.3216 -0.2225
76726SOL    HW148170  11.619   0.065   8.246 -0.8981  0.2462 -0.7597
76726SOL    HW248171  11.741   0.047   8.158 -0.3688  0.4012 -0.0688
76727SOL     OW48172  14.088  10.483   6.936 -0.3145 -0.3534 -0.7671
76727SOL    HW148173  14.143  10.475   7.013 -1.3449 -2.1926 -0.1820
76727SOL    HW248174  14.136  10.437   6.867 -0.4921 -0.7782 -0.6075
76728SOL     OW48175   0.171   8.103  11.768 -0.2283  0.5080 -0.0320
76728SOL    HW148176   0.114   8.168  11.727  1.4314  2.1809  0.1634
76728SOL    HW248177   0.215   8.151  11.838  0.5860 -1.0296  0.5604
76729SOL     OW48178   9.611   1.053   3.750  0.0959  0.1337  1.0343
76729SOL    HW148179   9.589   1.145   3.766 -0.7328  0.0146  0.6178
76729SOL    HW248180   9.706   1.052   3.742  0.0207  1.1789 -0.2791
76730SOL     OW48181   2.416   0.564   3.077  0.5220  0.3677  0.4598
76730SOL    HW148182   2.473   0.624   3.027 -1.6991  1.5047 -0.8889
76730SOL    HW248183   2.337   0.557   3.023 -1.3261  0.2534  3.0187
76731SOL     OW48184   8.274   4.025   3.464 -0.5894 -0.5102 -0.0514
76731SOL    HW148185   8.341   3.976   3.512 -0.1879 -0.1714 -0.2733
76731SOL    HW248186   8.192   3.998   3.506 -0.1179  1.2736  2.1954
76732SOL     OW48187  13.387   7.788   2.613 -0.8269 -0.0733  0.2904
76732SOL    HW148188  13.344   7.706   2.588 -1.6381 -0.4291  2.6362
76732SOL    HW248189  13.335   7.822   2.685  0.3063  1.8197  0.2910
76733SOL     OW48190   0.149   3.849   7.799 -0.4088 -0.4571 -0.4679
76733SOL    HW148191   0.121   3.770   7.846 -0.4560  0.7635  1.6676
76733SOL    HW248192   0.244   3.841   7.793 -0.5194 -1.3173 -1.5709
76734SOL     OW48193  12.652  13.091   8.221  0.1609 -0.2146  0.6567
76734SOL    HW148194  12.592  13.021   8.194  0.4029  0.5476 -2.1669
76734SOL    HW248195  12.718  13.094   8.152  0.9039  1.9310  1.3761
76735SOL     OW48196   0.051  12.996   7.026 -0.1115  0.0390 -0.0111
76735SOL    HW148197   0.038  12.923   6.965 -0.2236 -1.2706  1.5239
76735SOL    HW248198   0.026  12.961   7.111 -1.0016  2.1456  0.6584
76736SOL     OW48199  10.894   7.863   8.209  0.2509 -0.1435  0.3384
76736SOL    HW148200  10.980   7.832   8.236  0.7539 -0.5207 -1.5729
76736SOL    HW248201  10.898   7.867   8.114 -0.9619  2.4424  0.3023
76737SOL     OW48202  12.920  10.308   2.617  0.4295 -0.2358  0.3489
76737SOL    HW148203  12.937  10.238   2.553  1.4970 -0.6803  1.0856
76737SOL    HW248204  13.006  10.348   2.633 -0.1581  1.2287 -0.0164
76738SOL     OW48205   5.509  10.239   1.414 -0.0702  0.1890  0.3866
76738SOL    HW148206   5.439  10.298   1.443  0.8537  0.9133  1.2172
76738SOL    HW248207   5.537  10.194   1.493 -0.3185 -0.9094 -0.1314
76739SOL     OW48208   9.326   6.818   4.868 -0.1104  0.1873 -0.3568
76739SOL    HW148209   9.411   6.827   4.912 -1.4952  0.8695  2.3611
76739SOL    HW248210   9.296   6.908   4.855 -0.1387 -0.0271 -1.9986
76740SOL     OW48211   9.237   8.772   0.950  0.4506 -0.3263  0.0324
76740SOL    HW148212   9.254   8.710   1.021  1.2176 -0.3831 -0.1890
76740SOL    HW248213   9.323   8.786   0.910  0.0359 -0.2674 -0.8558
76741SOL     OW48214   7.732  11.267   4.865 -0.3694  0.6291  0.4904
76741SOL    HW148215   7.683  11.186   4.876  1.2976 -0.3089  1.4417
76741SOL    HW248216   7.808  11.241   4.813 -0.4704  1.8864 -0.3244
76742SOL     OW48217  11.122   6.473  13.862 -0.0538 -0.0921  0.2282
76742SOL    HW148218  11.187   6.451  13.794 -0.9849 -1.0856 -0.3747
76742SOL    HW248219  11.132   6.404  13.928  0.3650  0.4748  0.7683
76743SOL     OW48220   1.068   3.370   4.769  0.7518  0.0828 -0.1667
76743SOL    HW148221   1.016   3.292   4.789  1.4992  0.0315  1.7431
76743SOL    HW248222   1.004   3.441   4.764  0.4763  0.2311  3.2981
76744SOL     OW48223  12.600   9.640  10.200 -0.1915  0.1781 -0.0771
76744SOL    HW148224  12.638   9.562  10.159 -0.7734 -0.1701  0.0274
76744SOL    HW248225  12.529   9.665  10.141  0.3348  0.9560 -0.3922
76745SOL     OW48226   6.561   5.165   9.989  0.4220  0.7628  0.0150
76745SOL    HW148227   6.632   5.190  10.048  0.5393 -0.8167  0.5959
76745SOL    HW248228   6.481   5.181  10.040  0.4989  0.0035  0.4018
76746SOL     OW48229   7.119   0.343   1.320 -0.0353 -0.3961 -0.1742
76746SOL    HW148230   7.205   0.372   1.289 -0.4728  0.1534 -0.9020
76746SOL    HW248231   7.061   0.418   1.305 -0.1399  0.2576  2.7974
76747SOL     OW48232  12.485   5.999   6.264 -0.1092 -0.4449 -0.5135
76747SOL    HW148233  12.498   6.045   6.181 -1.3708 -0.3129 -0.6619
76747SOL    HW248234  12.540   5.921   6.257 -1.7445 -1.5148 -2.3749
76748SOL     OW48235  10.961   5.092   7.913  0.0419  0.0171  0.4442
76748SOL    HW148236  10.869   5.108   7.892  0.4893  0.8258 -1.0487
76748SOL    HW248237  10.988   5.170   7.962 -0.6962 -1.3626  3.2466
76749SOL     OW48238   9.986   4.117  13.172 -0.1839 -0.4185  0.4058
76749SOL    HW148239   9.956   4.030  13.147  0.7127 -0.7561  0.4446
76749SOL    HW248240  10.055   4.138  13.108  0.0968 -0.0407  0.8248
76750SOL     OW48241   2.572  11.189  10.882  0.5355 -0.3950  0.9121
76750SOL    HW148242   2.583  11.104  10.925 -1.4361 -1.1363  0.0720
76750SOL    HW248243   2.560  11.250  10.954 -1.2974 -1.3866  1.5210
76751SOL     OW48244   5.111  10.424   1.119  0.7495 -0.1586  0.3231
76751SOL    HW148245   5.196  10.459   1.144  0.7599  0.2422 -0.2665
76751SOL    HW248246   5.130  10.342   1.075  0.9867  0.7981 -1.4685
76752SOL     OW48247  10.943   1.156   9.856  0.7293 -0.2310  0.7729
76752SOL    HW148248  10.911   1.235   9.900 -1.6941 -0.5032 -0.3168
76752SOL    HW248249  10.985   1.188   9.776  0.0747 -0.0106  0.5118
76753SOL     OW48250   1.178  10.422  13.704  0.0010  0.1205  0.5845
76753SOL    HW148251   1.179  10.510  13.665  2.0309  1.4078  3.2527
76753SOL    HW248252   1.092  10.386  13.679 -0.4106  2.3277 -1.6135
76754SOL     OW48253   1.869   6.129  10.027 -0.1723  0.4946  1.0080
76754SOL    HW148254   1.777   6.134   9.999  0.6613 -1.1616 -2.5799
76754SOL    HW248255   1.873   6.051  10.082 -1.1502  1.6239  2.8071
76755SOL     OW48256   7.844   9.218  13.429  0.2167  0.2927  0.4851
76755SOL    HW148257   7.798   9.259  13.502 -0.0915 -0.5572  0.7718
76755SOL    HW248258   7.936   9.220  13.455  0.1287  0.1712  0.8079
76756SOL     OW48259   2.957   5.008   4.145  0.3361 -0.4992 -0.3676
76756SOL    HW148260   3.013   4.973   4.214 -0.9529 -1.1341  0.3936
76756SOL    HW248261   2.888   4.942   4.134 -0.6544  0.5707 -0.7779
76757SOL     OW48262  12.872   9.551  13.121  0.1280  0.7103 -0.3605
76757SOL    HW148263  12.880   9.457  13.105 -2.8167  0.5099 -1.2844
76757SOL    HW248264  12.892   9.592  13.037  0.5389  0.8644 -0.1917
76758SOL     OW48265   3.962  12.898   2.372  0.3193  0.1830  0.0025
76758SOL    HW148266   3.883  12.905   2.426 -0.6365  1.2479 -1.4337
76758SOL    HW248267   3.950  12.817   2.322 -0.1085  0.5687 -0.5371
76759SOL     OW48268   6.691   5.589  11.456 -0.3424 -0.0259  0.4340
76759SOL    HW148269   6.720   5.640  11.380 -0.3788 -1.3205 -0.4727
76759SOL    HW248270   6.665   5.504  11.420  0.5508 -1.0207  2.0049
76760SOL     OW48271   5.182   8.808   2.401 -0.2200 -0.7043 -0.0470
76760SOL    HW148272   5.108   8.825   2.458 -0.5986  1.6302 -1.1421
76760SOL    HW248273   5.150   8.828   2.313  1.4294 -0.5560 -0.6491
76761SOL     OW48274   0.562  12.349  12.869 -0.2707  0.8628 -0.5976
76761SOL    HW148275   0.611  12.333  12.788  3.3089 -2.5486  1.8585
76761SOL    HW248276   0.510  12.269  12.881 -1.0535  1.4931  0.3292
76762SOL     OW48277  12.678   4.564  13.916 -0.2349  0.0561 -0.1883
76762SOL    HW148278  12.622   4.610  13.853 -0.1452  1.1779  0.5244
76762SOL    HW248279  12.761   4.610  13.912  0.1704 -0.6487 -0.1287
76763SOL     OW48280   8.648  11.266   5.318  0.0800 -0.5143  0.3316
76763SOL    HW148281   8.715  11.225   5.372 -0.1465  0.7785  1.6728
76763SOL    HW248282   8.596  11.193   5.284  0.9533 -1.4273  0.8960
76764SOL     OW48283   4.667   6.218  12.546  0.1502  0.2799 -0.3141
76764SOL    HW148284   4.678   6.156  12.619  1.7062 -0.1752 -0.9027
76764SOL    HW248285   4.620   6.292  12.585 -1.4210 -1.0673  0.5066
76765SOL     OW48286  13.213  12.965  13.461 -0.6147  0.2642  0.2630
76765SOL    HW148287  13.140  13.018  13.428  0.6072  2.0736  0.3341
76765SOL    HW248288  13.241  12.914  13.385 -0.0470  1.8113 -0.5927
76766SOL     OW48289   5.421   2.336   4.386  0.2795 -0.1019  0.0339
76766SOL    HW148290   5.418   2.408   4.323 -1.4613  0.1475  0.3547
76766SOL    HW248291   5.336   2.292   4.377  0.1609 -0.3386  1.8890
76767SOL     OW48292  13.861   0.816   3.924 -0.3410  0.2880 -0.1217
76767SOL    HW148293  13.841   0.763   4.001  1.7233 -1.2784 -0.5585
76767SOL    HW248294  13.948   0.852   3.941 -0.5778  1.3460 -0.9959
76768SOL     OW48295  10.780   7.845  10.210 -0.1014 -0.3305  0.2878
76768SOL    HW148296  10.761   7.753  10.193  0.7025 -0.1783 -1.7251
76768SOL    HW248297  10.841   7.870  10.140  0.2136  1.5542  1.1824
76769SOL     OW48298   2.573   5.907  11.861 -0.3133  0.1370  0.2667
76769SOL    HW148299   2.571   5.973  11.792 -0.4547  0.2370  0.3627
76769SOL    HW248300   2.614   5.831  11.822 -1.0584 -0.0558 -0.1503
76770SOL     OW48301   5.266   5.348   5.622  0.1082  0.3238  0.0082
76770SOL    HW148302   5.332   5.378   5.685  0.1112 -1.2850  0.8157
76770SOL    HW248303   5.290   5.257   5.604 -0.6902  0.3460 -1.2929
76771SOL     OW48304   2.667   6.515   0.901 -0.0164 -0.6282 -0.3322
76771SOL    HW148305   2.633   6.477   0.820 -0.0199 -1.5539  0.0946
76771SOL    HW248306   2.755   6.545   0.878 -0.0224 -0.8698 -0.6848
76772SOL     OW48307   9.151  13.016   6.181 -0.4494  0.9466 -0.2388
76772SOL    HW148308   9.222  13.057   6.131 -0.2035  0.1190 -0.5747
76772SOL    HW248309   9.112  13.089   6.230  1.8825  1.1150  1.5342
76773SOL     OW48310  12.217   6.670   4.200  0.0350  0.3340  0.7511
76773SOL    HW148311  12.311   6.660   4.184 -0.1313 -0.6133  0.2823
76773SOL    HW248312  12.178   6.591   4.163 -1.1518  1.5414 -0.7052
76774SOL     OW48313   9.204   6.674   4.363  0.0950 -0.2396 -0.2159
76774SOL    HW148314   9.143   6.653   4.435 -1.0188  1.2026 -0.6903
76774SOL    HW248315   9.289   6.683   4.406 -0.4840  0.2421  0.8858
76775SOL     OW48316   8.046  14.107   9.197 -0.2404  0.0382 -0.1811
76775SOL    HW148317   8.106  14.163   9.149  0.4647 -1.0252 -0.5670
76775SOL    HW248318   8.073  14.018   9.175 -1.4544 -0.4603  0.2691
76776SOL     OW48319   8.355   4.226  11.486 -0.1489 -0.5212  0.0484
76776SOL    HW148320   8.338   4.235  11.393 -1.7116 -2.7854  0.0452
76776SOL    HW248321   8.447   4.200  11.491  0.1682  0.3758 -0.7728
76777SOL     OW48322   8.226   4.377  12.416  0.1709  0.6066 -0.3814
76777SOL    HW148323   8.157   4.428  12.460  0.3016  0.3874  0.0798
76777SOL    HW248324   8.261   4.321  12.484  1.3771  1.3021 -0.4100
76778SOL     OW48325  13.215  13.430   6.826  0.0663  0.4294 -0.1107
76778SOL    HW148326  13.145  13.372   6.797  0.9321 -0.7197  0.0013
76778SOL    HW248327  13.256  13.462   6.745  0.7905 -0.6551 -0.1923
76779SOL     OW48328  10.991  12.763   4.805 -0.0161 -0.0063  0.5196
76779SOL    HW148329  11.024  12.700   4.869  0.1734 -0.8840 -0.4284
76779SOL    HW248330  11.069  12.791   4.756 -0.6537 -2.7473 -2.3207
76780SOL     OW48331   6.778  12.862   9.103  0.5648 -0.0739 -0.2844
76780SOL    HW148332   6.683  12.857   9.112  0.4922  0.9115 -0.3073
76780SOL    HW248333   6.791  12.885   9.011  0.8303 -0.2676 -0.2936
76781SOL     OW48334   2.980  13.818   7.050 -0.2014 -0.3610 -0.1944
76781SOL    HW148335   3.016  13.899   7.087 -3.4649  2.0360 -1.7882
76781SOL    HW248336   2.917  13.787   7.115  0.7211 -1.4410  0.2155
76782SOL     OW48337   7.827   0.786  13.200 -0.2770  0.1459  0.2211
76782SOL    HW148338   7.896   0.822  13.256 -0.1247  1.5438 -0.8334
76782SOL    HW248339   7.776   0.862  13.172 -1.8032 -0.7861  0.3641
76783SOL     OW48340   3.961  11.463  13.470  0.0222  0.2371 -0.1177
76783SOL    HW148341   3.866  11.471  13.473 -0.1503 -1.5802  0.1804
76783SOL    HW248342   3.982  11.469  13.376 -0.4362  0.1108 -0.2317
76784SOL     OW48343  12.925   9.313   6.328  0.7795 -0.3302 -0.0906
76784SOL    HW148344  12.981   9.238   6.308  1.0487 -0.0352 -0.4734
76784SOL    HW248345  12.881   9.290   6.409 -1.8517 -2.4494 -1.9413
76785SOL     OW48346   9.067  10.971   5.239 -0.5556  0.6232  0.6662
76785SOL    HW148347   9.116  10.896   5.207 -1.2345  0.3953  0.1281
76785SOL    HW248348   9.132  11.040   5.250 -0.2047  0.5188 -0.6258
76786SOL     OW48349  11.179   6.370   0.681  0.0926  0.3929  0.2577
76786SOL    HW148350  11.131   6.384   0.599  1.6324 -1.0207 -0.9705
76786SOL    HW248351  11.267   6.403   0.662  0.3843  0.3287  1.4665
76787SOL     OW48352  14.072  10.212   4.996 -0.2737  0.1468 -0.5658
76787SOL    HW148353  14.110  10.196   5.083  2.6638  0.9548 -1.5807
76787SOL    HW248354  14.020  10.291   5.007  1.9109  1.5895  0.0516
76788SOL     OW48355   9.216   4.959   3.665 -0.0275  0.5454 -0.2910
76788SOL    HW148356   9.172   4.890   3.614 -0.5833 -0.0646  0.9756
76788SOL    HW248357   9.309   4.944   3.650 -0.0475 -1.5699  1.2721
76789SOL     OW48358   4.326  10.128   4.283  0.0549  0.0656 -0.3558
76789SOL    HW148359   4.371  10.163   4.206  0.0837  0.5449 -0.1237
76789SOL    HW248360   4.397  10.102   4.343  0.0270  0.2652 -0.2364
76790SOL     OW48361   1.897   7.088  12.577 -0.3207 -0.2538 -0.0884
76790SOL    HW148362   1.936   7.167  12.540 -0.0513 -0.0000  0.7168
76790SOL    HW248363   1.905   7.023  12.508  1.2302 -0.1096 -0.0762
76791SOL     OW48364  12.524  12.783   5.689  0.5167  0.3036 -0.0454
76791SOL    HW148365  12.587  12.742   5.749 -0.4770 -0.1038  0.7324
76791SOL    HW248366  12.533  12.877   5.707  0.5909  0.2194  0.3743
76792SOL     OW48367   5.094   9.019   4.573 -0.5453  0.7095  0.3181
76792SOL    HW148368   5.170   8.962   4.586 -0.2977  1.0401  0.3516
76792SOL    HW248369   5.075   9.012   4.479 -1.4986 -0.6384  0.5899
76793SOL     OW48370   4.118   6.999  11.600 -0.1801 -0.3248  0.2655
76793SOL    HW148371   4.191   7.060  11.588  0.7848 -1.0773  2.0300
76793SOL    HW248372   4.157   6.922  11.640 -2.3563  0.5059  4.5317
76794SOL     OW48373   0.612   7.286   0.702  0.2317  0.5071  0.0892
76794SOL    HW148374   0.624   7.380   0.693  0.8624  0.3662 -0.6370
76794SOL    HW248375   0.627   7.268   0.795  0.8519  1.0177  0.0920
76795SOL     OW48376   2.600   6.268  12.993  0.0137  0.4205  0.1147
76795SOL    HW148377   2.674   6.208  12.980  0.6899  0.6236  2.6252
76795SOL    HW248378   2.625   6.348  12.946  0.6571 -0.0584 -0.3660
76796SOL     OW48379   6.319   4.981   0.587 -0.4348 -0.4237 -0.1411
76796SOL    HW148380   6.291   5.072   0.585 -1.7521 -0.8054 -0.0791
76796SOL    HW248381   6.414   4.985   0.582 -0.5044  0.9277 -0.9171
76797SOL     OW48382   5.840   6.151  11.150  0.0459  0.4983 -0.5285
76797SOL    HW148383   5.832   6.217  11.218  1.6150  0.9878 -0.7680
76797SOL    HW248384   5.851   6.068  11.197 -0.0815  0.6688 -0.1986
76798SOL     OW48385   9.250   6.253   6.276  0.2991  0.4234  0.1100
76798SOL    HW148386   9.222   6.246   6.185  0.9989 -1.6501 -0.0037
76798SOL    HW248387   9.296   6.337   6.281  0.9567  0.2075 -1.6587
76799SOL     OW48388   3.629  10.505  11.540 -0.0789  0.5721  0.4579
76799SOL    HW148389   3.626  10.587  11.590 -1.3123 -1.3053  3.8277
76799SOL    HW248390   3.664  10.441  11.603  1.7469 -1.3853 -2.3218
76800SOL     OW48391   3.793   8.787   7.132 -0.1499  0.6780  0.5621
76800SOL    HW148392   3.829   8.794   7.044 -1.3277 -1.8209 -0.2320
76800SOL    HW248393   3.863   8.748   7.184 -0.0119  0.5890  0.3092
76801SOL     OW48394  10.163   6.058  10.904  0.2473  0.1044  0.7297
76801SOL    HW148395  10.204   5.990  10.850 -1.8391  0.0092 -0.8355
76801SOL    HW248396  10.077   6.023  10.926  0.1789  1.1345  2.2385
76802SOL     OW48397   1.714  12.302   9.068  0.0100  0.2416  0.2691
76802SOL    HW148398   1.755  12.220   9.093  1.5110  0.7702 -0.3561
76802SOL    HW248399   1.622  12.291   9.093  0.4271 -1.1275  1.3487
76803SOL     OW48400   4.200   3.026  14.047 -0.2006  0.0587  0.6329
76803SOL    HW148401   4.114   3.000  14.081 -0.5029  0.1031 -0.0843
76803SOL    HW248402   4.213   2.971  13.970 -0.5120  1.4567 -0.4616
76804SOL     OW48403   3.271  13.911  10.275 -0.0970 -0.5043  0.3755
76804SOL    HW148404   3.290  14.000  10.305 -0.2111 -0.1395 -0.6209
76804SOL    HW248405   3.231  13.869  10.351  1.6010 -0.2739  1.4589
76805SOL     OW48406   8.180   7.164   9.038 -0.6569 -0.8380 -0.5815
76805SOL    HW148407   8.199   7.252   9.070 -0.8803 -1.0614  0.1899
76805SOL    HW248408   8.256   7.112   9.066 -0.0174 -0.6879 -1.9555
76806SOL     OW48409   9.569   8.023   4.252  0.1217  0.2241  0.0878
76806SOL    HW148410   9.616   8.084   4.195  0.8711 -0.9267 -0.5766
76806SOL    HW248411   9.559   7.944   4.199 -0.3182 -0.4277  1.1172
76807SOL     OW48412   5.686   9.568  11.346 -0.2977  0.1551 -0.3779
76807SOL    HW148413   5.632   9.556  11.267 -0.3904 -0.3635 -0.2429
76807SOL    HW248414   5.625   9.556  11.419  0.1287 -1.2767 -0.2125
76808SOL     OW48415   7.966  10.509   1.437 -0.1084  0.0653 -0.1008
76808SOL    HW148416   8.012  10.462   1.368 -1.8548 -0.6884 -0.8129
76808SOL    HW248417   7.913  10.575   1.391  0.7312  1.3704  0.7380
76809SOL     OW48418  11.162  13.958   8.893 -0.4713 -0.4072 -0.4384
76809SOL    HW148419  11.084  14.010   8.912  0.7483  1.1811  0.5683
76809SOL    HW248420  11.129  13.870   8.876 -2.3670 -0.1867  1.5598
76810SOL     OW48421  12.227   3.596   0.658 -0.7944  0.4441  0.1623
76810SOL    HW148422  12.237   3.527   0.592 -0.1661  1.9975 -1.4292
76810SOL    HW248423  12.293   3.575   0.724  1.7017  1.2141 -1.9021
76811SOL     OW48424   8.803   0.056   7.124  0.2249 -0.3410  0.0478
76811SOL    HW148425   8.874  -0.006   7.143  0.0313 -0.0081  2.0936
76811SOL    HW248426   8.836   0.140   7.156  0.1704  0.4958 -1.9821
76812SOL     OW48427  11.986  10.664  11.138  0.0060  0.9778  0.1273
76812SOL    HW148428  12.078  10.687  11.150  0.2544 -0.6281  1.6097
76812SOL    HW248429  11.950  10.663  11.227 -0.3768 -2.4740  0.0627
76813SOL     OW48430   2.465   7.837  10.422  0.2026 -0.6361  0.1253
76813SOL    HW148431   2.447   7.743  10.414  0.9533 -0.7571 -0.3104
76813SOL    HW248432   2.515   7.844  10.504  0.8502 -0.7437 -0.2475
76814SOL     OW48433   8.239  13.622  12.524  0.6754  0.0936 -0.1537
76814SOL    HW148434   8.237  13.527  12.530  1.3050  0.0445 -0.6478
76814SOL    HW248435   8.294  13.650  12.597  2.3831 -0.0763 -1.3127
76815SOL     OW48436  10.220  10.772  13.725 -0.0702  0.3876  0.1055
76815SOL    HW148437  10.289  10.797  13.786  0.1469 -0.7716  0.3479
76815SOL    HW248438  10.260  10.778  13.639 -0.1159  1.1664  0.1330
76816SOL     OW48439   4.322  11.222   4.725  0.1795  0.2116  0.3419
76816SOL    HW148440   4.251  11.229   4.661 -0.8538 -2.3246  1.0777
76816SOL    HW248441   4.281  11.180   4.801  2.1782 -0.0560  1.3215
76817SOL     OW48442  10.115   8.795  11.169  0.4485  0.4213  0.6048
76817SOL    HW148443  10.172   8.832  11.101  0.6460 -0.2092  0.4196
76817SOL    HW248444  10.035   8.848  11.165  0.4093  0.3070 -0.2087
76818SOL     OW48445   2.644  12.705  11.712  0.0316 -0.1437  0.3247
76818SOL    HW148446   2.635  12.663  11.798 -3.2448  2.0703  1.2667
76818SOL    HW248447   2.568  12.673  11.663  0.6796  0.3007 -0.9959
76819SOL     OW48448  12.464  13.613   8.960  0.3231  0.4151 -0.7647
76819SOL    HW148449  12.547  13.659   8.948  1.3343 -1.2074 -0.3747
76819SOL    HW248450  12.480  13.555   9.035 -0.6993 -0.8902 -1.5163
76820SOL     OW48451   7.496  11.064   4.169  0.2961 -0.4052  0.2949
76820SOL    HW148452   7.439  10.989   4.159 -1.3386  0.7599  0.4837
76820SOL    HW248453   7.580  11.027   4.196 -0.6819 -2.0967  1.1831
76821SOL     OW48454   6.600   4.857   9.996  0.2731 -0.8027  0.3122
76821SOL    HW148455   6.612   4.798   9.921 -0.7483 -1.0331  0.3177
76821SOL    HW248456   6.599   4.945   9.957  0.0968 -0.8977  0.1029
76822SOL     OW48457  10.119  13.294   0.812  0.2123  0.6096 -0.2155
76822SOL    HW148458  10.154  13.360   0.753 -1.1509  1.0457 -0.5681
76822SOL    HW248459  10.086  13.343   0.887 -2.2211  0.5270 -1.1714
76823SOL     OW48460  12.297   2.904  14.119 -0.4202 -0.4785  0.5037
76823SOL    HW148461  12.378   2.908  14.169 -1.1358  0.5483  1.6244
76823SOL    HW248462  12.251   2.985  14.142 -1.8361 -1.1244  0.0141
76824SOL     OW48463   0.445   6.046   5.898 -0.2991  0.3055  0.0476
76824SOL    HW148464   0.528   6.091   5.912 -0.5412  0.8277 -0.1557
76824SOL    HW248465   0.387   6.080   5.966  0.0892 -1.2137  1.1641
76825SOL     OW48466   6.894   5.229   6.072 -0.0271 -0.3881  0.5661
76825SOL    HW148467   6.849   5.147   6.052  1.8949 -0.9140 -2.1722
76825SOL    HW248468   6.856   5.293   6.012  1.4662 -0.4078 -0.4712
76826SOL     OW48469   5.785   8.572  11.043  0.7760  0.8476 -0.0019
76826SOL    HW148470   5.719   8.504  11.054  0.2680  1.0571 -1.6177
76826SOL    HW248471   5.741   8.653  11.069 -0.1128  1.1974 -2.3829
76827SOL     OW48472  10.480  10.172   6.287 -0.5178  0.1908  0.1391
76827SOL    HW148473  10.495  10.088   6.243  0.5678  1.1226 -1.3973
76827SOL    HW248474  10.513  10.159   6.375  0.6629 -0.6819 -0.4019
76828SOL     OW48475   7.374   9.275   2.805  0.1556 -0.3247  0.5386
76828SOL    HW148476   7.281   9.290   2.823  0.1719  0.3572  0.0635
76828SOL    HW248477   7.379   9.263   2.710  0.4246 -1.3723  0.6686
76829SOL     OW48478   0.835   3.640  11.909 -0.1248  0.4349  0.1271
76829SOL    HW148479   0.860   3.723  11.948 -1.3941  0.9034  0.0086
76829SOL    HW248480   0.740   3.647  11.896 -0.0867 -0.5779 -0.9460
76830SOL     OW48481   6.566   5.906   4.091 -0.1260 -0.5048  0.2786
76830SOL    HW148482   6.619   5.886   4.014 -1.9581  0.8164 -1.4309
76830SOL    HW248483   6.584   5.998   4.110 -0.1387 -0.6592  1.0792
76831SOL     OW48484   0.995   8.058   0.961  0.2044  0.0037  0.1574
76831SOL    HW148485   0.958   8.146   0.954 -0.3153 -0.0098  2.0686
76831SOL    HW248486   1.089   8.071   0.958  0.1268  0.4964 -0.5792
76832SOL     OW48487   9.989   1.879  13.277  0.0023 -0.0779  0.0965
76832SOL    HW148488   9.946   1.940  13.217 -1.1489  0.0857  1.0312
76832SOL    HW248489  10.021   1.935  13.348 -1.7311 -0.5885  1.3424
76833SOL     OW48490   7.455   2.048   5.464 -0.1156 -0.0918  0.0395
76833SOL    HW148491   7.399   2.052   5.542 -2.0141  1.5789 -1.3073
76833SOL    HW248492   7.396   2.023   5.393  1.3277 -0.4245 -1.0887
76834SOL     OW48493   2.292   1.216   6.079  0.4351 -0.2074 -0.2661
76834SOL    HW148494   2.231   1.193   6.149  0.3275 -0.6644 -0.5082
76834SOL    HW248495   2.301   1.136   6.027 -0.4471  0.4518 -1.4881
76835SOL     OW48496   2.741  14.123   1.952 -0.0411 -0.4728  0.3164
76835SOL    HW148497   2.723  14.039   1.995 -2.7597 -0.3881 -0.4743
76835SOL    HW248498   2.749  14.100   1.859  1.0251 -0.0528  0.2928
76836SOL     OW48499   7.129   3.281   5.156 -0.3039  0.0280  0.0802
76836SOL    HW148500   7.075   3.203   5.139 -0.4226  0.2994 -0.8597
76836SOL    HW248501   7.066   3.346   5.189 -0.3019 -0.0932  0.3272
76837SOL     OW48502   7.080   7.921   5.308  0.3249  0.5084 -0.2119
76837SOL    HW148503   7.062   7.884   5.395  0.6782 -0.5993 -0.5906
76837SOL    HW248504   7.063   8.014   5.318  0.8684  0.4848  1.1893
76838SOL     OW48505   4.873   9.554   1.611  0.4029  0.0543  0.5395
76838SOL    HW148506   4.811   9.582   1.544 -0.7155 -1.7084  0.7703
76838SOL    HW248507   4.823   9.555   1.693  0.9365 -0.4779  0.8847
76839SOL     OW48508  10.622  11.858  11.787 -0.0454 -0.1150 -0.0730
76839SOL    HW148509  10.648  11.767  11.777 -1.0965 -0.6170  1.5531
76839SOL    HW248510  10.672  11.890  11.863 -1.5076 -0.0773  0.8997
76840SOL     OW48511   0.538   8.353   3.751 -0.0626  0.6694 -0.4193
76840SOL    HW148512   0.612   8.387   3.802  1.4334 -3.2715  0.3682
76840SOL    HW248513   0.577   8.323   3.670 -1.0587 -0.1142 -0.6259
76841SOL     OW48514   9.829   2.855   8.815 -0.8574 -0.3050 -0.0386
76841SOL    HW148515   9.768   2.785   8.837 -0.0352 -0.5317  1.6957
76841SOL    HW248516   9.810   2.925   8.877  0.8242 -0.5263  0.8073
76842SOL     OW48517   8.026   5.810  12.634  0.4413 -0.1197 -0.0377
76842SOL    HW148518   8.031   5.741  12.569 -0.0170  0.4318 -0.6671
76842SOL    HW248519   8.033   5.892  12.584  0.3739  0.3061  0.6300
76843SOL     OW48520   8.769   0.234   0.921  0.8097  0.5182  0.2295
76843SOL    HW148521   8.790   0.298   0.990  1.3627 -0.8427  1.3857
76843SOL    HW248522   8.818   0.156   0.946  1.0323 -0.0301 -1.7501
76844SOL     OW48523   1.775   0.835  10.120  0.0163  0.0321 -0.2165
76844SOL    HW148524   1.707   0.812  10.183  0.4510 -0.5595  0.0425
76844SOL    HW248525   1.727   0.853  10.039 -0.6617  1.9091  0.5366
76845SOL     OW48526   0.612  13.933   7.569  0.2626 -0.4797 -0.1100
76845SOL    HW148527   0.601  14.024   7.597  0.4483 -0.7209  0.7640
76845SOL    HW248528   0.559  13.926   7.490  0.1429  0.3544 -0.1129
76846SOL     OW48529   2.445  12.421   1.292 -0.0036 -0.2902  0.4481
76846SOL    HW148530   2.504  12.362   1.244 -1.7528 -2.2297  0.5806
76846SOL    HW248531   2.431  12.494   1.231  1.9172 -0.1117  0.1308
76847SOL     OW48532   2.647  12.193   4.597 -0.1847 -0.3380 -0.0648
76847SOL    HW148533   2.617  12.136   4.668  2.6389 -1.1410  0.6093
76847SOL    HW248534   2.693  12.265   4.642 -1.8512  1.3914 -0.9938
76848SOL     OW48535   7.218  10.191  11.444  0.8261 -0.1458  0.8517
76848SOL    HW148536   7.171  10.145  11.375  0.9693  0.6144  0.2367
76848SOL    HW248537   7.230  10.125  11.512 -1.1620 -0.3482  1.0655
76849SOL     OW48538   0.023   2.981   3.900 -0.1811 -0.1585  0.6986
76849SOL    HW148539   0.076   2.956   3.976  1.7068  0.7676 -0.2400
76849SOL    HW248540   0.079   2.963   3.825 -1.7556 -0.4223 -0.4500
76850SOL     OW48541   7.221   7.988  13.936 -0.7316  0.2297  0.4695
76850SOL    HW148542   7.153   7.963  13.999 -0.7057  0.0589  0.4306
76850SOL    HW248543   7.196   8.076  13.906  0.1467  1.0159  1.9479
76851SOL     OW48544   2.523   3.325   5.134 -0.0337 -0.1273  0.0881
76851SOL    HW148545   2.451   3.303   5.074  0.7578 -1.4016 -0.4357
76851SOL    HW248546   2.592   3.263   5.112  1.5760  1.6256 -0.0330
76852SOL     OW48547   3.713   0.125   6.073 -0.3501 -0.7047  0.6889
76852SOL    HW148548   3.630   0.078   6.062 -1.3437  1.3212 -1.1943
76852SOL    HW248549   3.767   0.095   6.000 -0.5785  0.2249  0.1291
76853SOL     OW48550   8.339  12.885   0.132 -0.2528  0.3164 -0.0344
76853SOL    HW148551   8.380  12.971   0.121  0.2758  0.0513 -0.1963
76853SOL    HW248552   8.294  12.870   0.049  1.8850 -0.7127 -1.0777
76854SOL     OW48553   5.956  12.134   9.862 -0.0218  0.0362  0.5917
76854SOL    HW148554   5.882  12.188   9.889 -0.5645 -0.0202 -0.7230
76854SOL    HW248555   5.954  12.135   9.766  0.3039 -1.8283  0.5278
76855SOL     OW48556   2.015  12.701  13.719 -0.3662 -0.2905  0.2475
76855SOL    HW148557   1.961  12.624  13.738 -0.0360  0.0276  2.7302
76855SOL    HW248558   2.003  12.759  13.794  2.0312  0.5816  0.0608
76856SOL     OW48559  11.943  14.134   4.712 -0.8469  0.0142  0.3359
76856SOL    HW148560  12.024  14.107   4.668 -0.4942  0.3246  0.7738
76856SOL    HW248561  11.921  14.218   4.672  0.7739  1.4875  2.2889
76857SOL     OW48562   1.670  12.370   2.503  0.0146 -0.2428 -0.5080
76857SOL    HW148563   1.729  12.301   2.535 -0.1609 -1.2099 -2.1761
76857SOL    HW248564   1.722  12.419   2.440 -0.6613 -0.4907 -1.2666
76858SOL     OW48565   2.932   3.914  12.603  0.2780  0.2634 -0.1333
76858SOL    HW148566   2.957   3.841  12.547 -0.6156  0.3606 -0.6696
76858SOL    HW248567   2.898   3.873  12.683  1.8429  0.1252  0.5168
76859SOL     OW48568  10.669  12.905   2.281  0.5705  0.3516  0.0432
76859SOL    HW148569  10.734  12.969   2.309 -0.1538  0.6938  0.9799
76859SOL    HW248570  10.642  12.861   2.362  0.3936 -0.5157 -0.4676
76860SOL     OW48571   5.763   5.051  12.798 -0.1660  0.0693 -1.0728
76860SOL    HW148572   5.824   4.983  12.771 -0.0058 -1.4921  2.6811
76860SOL    HW248573   5.676   5.013  12.781 -0.0923  0.0564 -1.4301
76861SOL     OW48574   9.424   6.256  12.493 -0.2256  0.0905  0.3879
76861SOL    HW148575   9.419   6.351  12.492 -1.0463  0.0888  1.6378
76861SOL    HW248576   9.438   6.231  12.402 -1.7514  1.3339 -0.2231
76862SOL     OW48577   1.175  12.810   5.427  0.0056 -0.0661  0.6284
76862SOL    HW148578   1.130  12.735   5.389 -0.2725 -0.6733  2.1350
76862SOL    HW248579   1.106  12.869   5.454  0.1146 -0.4789  1.8768
76863SOL     OW48580   9.720  10.096   5.786 -0.5333  0.0921 -0.4905
76863SOL    HW148581   9.768  10.085   5.704  0.0586  0.5727 -0.2180
76863SOL    HW248582   9.774  10.155   5.838 -1.7102  1.1323 -0.3980
76864SOL     OW48583   7.104   9.086   2.787  0.2027 -0.1747  0.0179
76864SOL    HW148584   7.107   9.178   2.760 -1.3740  0.0284  0.4086
76864SOL    HW248585   7.194   9.056   2.781  0.7245  1.3597 -0.2656
76865SOL     OW48586   5.153   6.260   8.735 -0.0277  0.3809  0.5014
76865SOL    HW148587   5.167   6.284   8.827 -1.5523  0.1620  0.8146
76865SOL    HW248588   5.157   6.343   8.688  0.4781  0.5307  0.7985
76866SOL     OW48589   4.149   0.872   5.230 -0.0937 -0.4505 -0.2255
76866SOL    HW148590   4.110   0.867   5.143  0.1550  1.2068 -0.4606
76866SOL    HW248591   4.077   0.901   5.287  0.1183 -0.0560 -0.1576
76867SOL     OW48592  13.647   9.380   0.768 -0.1095  0.6741  0.2421
76867SOL    HW148593  13.580   9.327   0.725 -0.2758  1.0359  0.0518
76867SOL    HW248594  13.701   9.317   0.815 -0.4055  0.3513  0.1525
76868SOL     OW48595   4.279   5.581   5.290 -0.2826  0.4429  0.3461
76868SOL    HW148596   4.369   5.584   5.323 -0.2141  1.2597  0.0928
76868SOL    HW248597   4.249   5.671   5.294 -1.4434  0.0384  1.3634
76869SOL     OW48598   7.759  13.135   9.690 -0.2266 -0.6434 -0.2041
76869SOL    HW148599   7.676  13.113   9.731 -0.5117  0.4637 -0.1557
76869SOL    HW248600   7.765  13.231   9.696  0.3153 -0.5558 -1.5838
76870SOL     OW48601   8.425   5.812   9.886 -0.2587 -0.3909 -0.0053
76870SOL    HW148602   8.481   5.752   9.837 -0.9375 -1.8486  0.9559
76870SOL    HW248603   8.347   5.760   9.909 -0.9464  0.8969  0.7009
76871SOL     OW48604   3.387   3.427  11.511  0.2424 -0.0111 -0.7227
76871SOL    HW148605   3.307   3.466  11.475  0.1592  0.8100  0.3203
76871SOL    HW248606   3.358   3.373  11.584  0.6874  0.9238  0.1736
76872SOL     OW48607   9.864   2.865   8.141  0.2083  0.0923  0.3499
76872SOL    HW148608   9.860   2.861   8.236 -0.7429  1.1438  0.3777
76872SOL    HW248609   9.953   2.896   8.122  0.1402  0.6660  0.9319
76873SOL     OW48610  13.858   2.712   5.287 -0.2157  0.3233  0.6934
76873SOL    HW148611  13.897   2.627   5.265 -1.3188 -0.2514  0.9250
76873SOL    HW248612  13.914   2.776   5.243 -0.1653 -0.5957 -0.6188
76874SOL     OW48613  12.715   5.767  12.351 -0.1431 -0.3592 -0.0103
76874SOL    HW148614  12.672   5.690  12.388  4.4493 -2.4908  1.5877
76874SOL    HW248615  12.745   5.739  12.265  0.5974  0.0345  0.1133
76875SOL     OW48616   9.969  14.024  12.999 -0.1118 -0.2256 -0.8048
76875SOL    HW148617   9.963  13.936  13.034 -0.9038  0.8504  1.9945
76875SOL    HW248618  10.063  14.044  12.998 -0.0607 -0.3198  0.7153
76876SOL     OW48619   0.243   1.001   0.058  0.2169 -0.1842 -0.2479
76876SOL    HW148620   0.155   0.992   0.094  0.1498 -0.9862 -0.5973
76876SOL    HW248621   0.239   1.078   0.002 -0.0294  0.2855  0.4074
76877SOL     OW48622   7.286  13.807   2.089 -0.0522 -0.4407 -0.7731
76877SOL    HW148623   7.344  13.740   2.054  3.4947  2.5931 -1.2581
76877SOL    HW248624   7.225  13.827   2.018 -0.5302 -2.3400 -0.9483
76878SOL     OW48625  10.368   8.788   4.356 -0.2944 -0.1920  0.2931
76878SOL    HW148626  10.442   8.792   4.296 -1.8407 -0.8916 -1.8102
76878SOL    HW248627  10.323   8.872   4.345 -2.3562 -1.4679 -2.1171
76879SOL     OW48628   1.238   0.077  12.443 -0.4881  0.2669  0.0732
76879SOL    HW148629   1.248   0.072  12.348  0.9291 -2.2628  0.2751
76879SOL    HW248630   1.274   0.163  12.466 -1.3497  1.1712 -1.6616
76880SOL     OW48631  13.870   5.382   2.377 -0.6085 -0.0976 -0.5477
76880SOL    HW148632  13.872   5.304   2.433 -0.5591  0.4853  0.2875
76880SOL    HW248633  13.777   5.391   2.353 -0.7998  0.2196  0.2800
76881SOL     OW48634   5.474   1.693   0.855 -0.8023  0.2193 -0.3570
76881SOL    HW148635   5.544   1.662   0.912  0.1145  2.1237 -0.3476
76881SOL    HW248636   5.405   1.723   0.915 -0.9333 -0.1555 -0.3204
76882SOL     OW48637  11.462   0.037   3.475  0.3074 -0.8371 -0.1778
76882SOL    HW148638  11.456  -0.046   3.523  1.1036 -0.5822  0.3778
76882SOL    HW248639  11.535   0.025   3.415 -1.3344 -1.5491 -2.1786
76883SOL     OW48640   1.036  12.055  10.984 -0.0327  0.3135  0.3587
76883SOL    HW148641   1.108  12.076  10.926 -1.3577 -0.8873 -1.8539
76883SOL    HW248642   1.076  12.049  11.071  2.9360 -2.1666 -0.9843
76884SOL     OW48643  13.904   2.084  11.835 -0.0481 -0.5880  0.3169
76884SOL    HW148644  13.909   2.012  11.898 -1.6288  0.8321  2.2418
76884SOL    HW248645  13.812   2.084  11.807  0.5294 -0.9139 -1.7498
76885SOL     OW48646  13.615   0.833   6.141  0.4110  0.1815 -0.3029
76885SOL    HW148647  13.705   0.807   6.160 -0.1244 -1.2230  0.4544
76885SOL    HW248648  13.584   0.874   6.222  0.5960  1.4087 -0.8247
76886SOL     OW48649   4.094   0.532  11.805  0.5248  0.3507 -0.5190
76886SOL    HW148650   4.093   0.438  11.789  1.6840  0.3277 -0.5703
76886SOL    HW248651   4.109   0.571  11.719  1.5489  0.4895 -0.2947
76887SOL     OW48652  10.536   3.343   7.470  0.1933 -0.6001  0.1166
76887SOL    HW148653  10.536   3.429   7.429 -0.1187 -0.8557 -0.4306
76887SOL    HW248654  10.445   3.314   7.464  0.2849 -0.9381  0.3594
76888SOL     OW48655  11.303   1.949   4.972  0.0906 -0.0154 -0.1584
76888SOL    HW148656  11.239   2.015   4.945  0.5573 -0.3810 -2.3613
76888SOL    HW248657  11.343   1.920   4.890 -0.7218 -3.6984  0.5753
76889SOL     OW48658  13.379   4.155  12.845 -0.0841 -0.2261 -0.1390
76889SOL    HW148659  13.391   4.125  12.755  0.7533 -1.3440  0.3188
76889SOL    HW248660  13.392   4.250  12.841  1.2798 -0.4270 -0.9935
76890SOL     OW48661  11.873   1.084  11.923  0.4367 -0.4336  0.1679
76890SOL    HW148662  11.811   1.012  11.908 -0.8532  0.1148  2.3852
76890SOL    HW248663  11.926   1.055  11.997  1.9631 -0.3037 -0.8275
76891SOL     OW48664  13.565  10.505   6.896  0.6994  0.6591  0.4303
76891SOL    HW148665  13.540  10.498   6.804  0.4715 -0.4154  0.5653
76891SOL    HW248666  13.556  10.599   6.916 -1.5295  0.5841  0.0018
76892SOL     OW48667   1.421  10.124   3.838 -0.0832  0.3370 -0.2806
76892SOL    HW148668   1.493  10.118   3.776  0.2988  0.0503  0.1832
76892SOL    HW248669   1.450  10.074   3.914 -1.8761 -2.2438 -1.1355
76893SOL     OW48670  10.885   9.005   0.490 -0.6139 -0.3151 -0.1073
76893SOL    HW148671  10.938   8.940   0.537 -0.4773 -0.4886 -0.4973
76893SOL    HW248672  10.808   8.956   0.462 -0.1942 -0.4834 -0.9902
76894SOL     OW48673  10.547  12.463   3.307 -0.1567  0.4086  1.0464
76894SOL    HW148674  10.617  12.460   3.241 -1.3834  2.1637 -0.4450
76894SOL    HW248675  10.532  12.556   3.321 -0.9768  0.0559  2.7227
76895SOL     OW48676   9.901  12.336  12.248 -0.0681 -0.1268 -0.0054
76895SOL    HW148677   9.953  12.295  12.317 -0.6368  0.7790  0.9881
76895SOL    HW248678   9.950  12.317  12.168  1.4980  0.1899  0.8276
76896SOL     OW48679   9.576   7.754  13.184  0.1483  0.2632 -0.0653
76896SOL    HW148680   9.546   7.692  13.250 -1.7905  0.7242 -0.4510
76896SOL    HW248681   9.629   7.817  13.232 -0.6032  0.1610  0.9336
76897SOL     OW48682  13.898  10.082  12.707  0.5198  0.7166  0.2491
76897SOL    HW148683  13.897  10.139  12.784 -1.3050 -0.7020  1.3623
76897SOL    HW248684  13.851  10.132  12.640  1.4669  1.6636  0.2720
76898SOL     OW48685  10.660  13.645   5.823 -0.5417 -0.3286 -0.1190
76898SOL    HW148686  10.615  13.670   5.904 -0.3318 -1.2138  0.2811
76898SOL    HW248687  10.592  13.650   5.756 -0.5984  0.8885  0.0175
76899SOL     OW48688   7.752   5.158   7.704  0.8752 -0.0948  0.2663
76899SOL    HW148689   7.831   5.206   7.728  0.5908 -0.3487  1.8498
76899SOL    HW248690   7.711   5.211   7.635  0.9067  1.6247  1.5004
76900SOL     OW48691   2.280   1.953  13.308  0.3195  0.0753  0.8695
76900SOL    HW148692   2.294   2.031  13.254  0.8969 -1.5628 -1.5154
76900SOL    HW248693   2.369   1.927  13.335  0.0599  0.7110  2.4649
76901SOL     OW48694   4.962   5.379   9.113 -0.3490  0.1260  0.0509
76901SOL    HW148695   5.044   5.334   9.132 -0.2570 -0.5635 -1.8244
76901SOL    HW248696   4.955   5.378   9.018 -1.6943  1.7066  0.0805
76902SOL     OW48697   9.208   7.166  12.427 -0.1207  0.3326  0.3496
76902SOL    HW148698   9.113   7.159  12.414 -0.2070  0.8313  0.7038
76902SOL    HW248699   9.243   7.174  12.338 -0.3786 -0.1792  0.1974
76903SOL     OW48700   8.930   8.758  10.075  0.3376  0.3043  0.2253
76903SOL    HW148701   8.961   8.753  10.166  0.4791 -0.1666  0.1546
76903SOL    HW248702   8.970   8.838  10.041  0.5516  0.3095  0.4798
76904SOL     OW48703   4.593   0.823   8.611 -0.2092  0.6509  0.1381
76904SOL    HW148704   4.595   0.815   8.516  0.1884  2.0908  0.0140
76904SOL    HW248705   4.627   0.910   8.629 -0.7164  0.5752  1.5826
76905SOL     OW48706   3.689   2.464   2.506 -0.1896  0.1935 -0.2676
76905SOL    HW148707   3.693   2.386   2.561  0.5403  0.5742  0.2321
76905SOL    HW248708   3.648   2.530   2.562 -0.9840  0.1273 -0.7531
76906SOL     OW48709  11.851  13.628  11.902 -0.3565 -0.2885  0.0378
76906SOL    HW148710  11.852  13.640  11.997 -0.3591 -0.1665  0.0226
76906SOL    HW248711  11.835  13.534  11.890 -1.8599 -0.0719  0.1470
76907SOL     OW48712   1.369   4.387   7.969 -0.0994 -0.4791  0.1206
76907SOL    HW148713   1.422   4.466   7.963 -0.4330 -0.2311  0.3977
76907SOL    HW248714   1.335   4.387   8.058  0.0599 -1.0395  0.1819
76908SOL     OW48715   0.685  10.664   9.355  0.2880 -0.0273 -0.3940
76908SOL    HW148716   0.677  10.672   9.260  0.2577  0.3379 -0.3600
76908SOL    HW248717   0.622  10.595   9.378 -3.7873  3.3643 -0.0362
76909SOL     OW48718   8.602   7.651   1.467 -0.1922 -0.4353  0.3837
76909SOL    HW148719   8.690   7.664   1.502  0.2108 -0.9121 -0.4217
76909SOL    HW248720   8.574   7.566   1.501 -0.3826 -0.2443  0.7109
76910SOL     OW48721  12.407   9.818   4.612  0.0325  0.3265 -0.1035
76910SOL    HW148722  12.391   9.898   4.663  1.2312  0.8258 -0.4841
76910SOL    HW248723  12.436   9.850   4.526  1.2627 -0.5040 -0.0184
76911SOL     OW48724   3.454   7.280   9.890 -0.4043  0.6378  0.1414
76911SOL    HW148725   3.492   7.194   9.879 -1.3489  0.1177  0.7824
76911SOL    HW248726   3.425   7.305   9.803  0.8071  0.7767 -0.2377
76912SOL     OW48727   3.958   7.268   9.993 -0.2105  0.4071 -0.3462
76912SOL    HW148728   3.904   7.281  10.071  2.2141  1.2975  1.2646
76912SOL    HW248729   4.020   7.199  10.017 -1.6576 -1.9715 -2.8013
76913SOL     OW48730  12.818   8.274   2.808  0.9446 -0.2589  0.2105
76913SOL    HW148731  12.802   8.316   2.893 -0.1799 -0.3840  0.0816
76913SOL    HW248732  12.913   8.272   2.800  1.0572  1.1448  0.7808
76914SOL     OW48733   1.348   8.958   5.406 -0.0741  0.6311 -0.1075
76914SOL    HW148734   1.416   8.964   5.339  0.1731  1.4997  0.2054
76914SOL    HW248735   1.394   8.976   5.488 -0.5529  0.5446  0.1808
76915SOL     OW48736   3.945  12.954   8.317  0.1402 -0.2259 -0.2490
76915SOL    HW148737   3.897  12.893   8.373 -0.4525  0.3791 -0.0878
76915SOL    HW248738   3.938  13.038   8.361  1.1688 -0.0795 -0.3403
76916SOL     OW48739   4.001  12.427  10.889  0.0954 -0.0358 -0.2168
76916SOL    HW148740   3.976  12.335  10.877 -0.4496  0.3550 -2.5357
76916SOL    HW248741   4.013  12.460  10.800  0.9139  1.9821  0.5989
76917SOL     OW48742   6.749   8.120  13.250 -0.0475  0.3130 -0.3803
76917SOL    HW148743   6.697   8.148  13.326 -0.6740 -0.3451 -0.5570
76917SOL    HW248744   6.688   8.067  13.198  0.8897 -0.7235 -0.4389
76918SOL     OW48745  11.463   7.954   2.095  0.0694 -0.3297  0.3614
76918SOL    HW148746  11.536   7.959   2.033 -0.3028  1.0439  0.0112
76918SOL    HW248747  11.505   7.942   2.181  0.6928  0.1983  0.1340
76919SOL     OW48748   2.407   6.670   3.360 -0.2774 -0.9742  0.3552
76919SOL    HW148749   2.401   6.598   3.423 -2.7561 -1.3458 -0.2048
76919SOL    HW248750   2.358   6.640   3.284  0.0693  0.6743 -0.5738
76920SOL     OW48751   9.586   5.228   4.954  0.2314  0.2792  0.2982
76920SOL    HW148752   9.505   5.194   4.991 -0.7294  1.0227 -1.0199
76920SOL    HW248753   9.605   5.170   4.880 -0.8450  1.8500 -1.3160
76921SOL     OW48754   0.510   5.616  10.653 -0.4448 -0.0784  0.2247
76921SOL    HW148755   0.530   5.704  10.619  0.2656  0.6960  2.4663
76921SOL    HW248756   0.464   5.632  10.735 -0.5120 -1.8150  0.5581
76922SOL     OW48757  12.478   0.450   9.764 -0.2411 -0.6309 -0.0238
76922SOL    HW148758  12.512   0.390   9.830 -0.1017 -0.4125  0.1036
76922SOL    HW248759  12.533   0.528   9.772 -0.5616 -0.4000 -0.0325
76923SOL     OW48760   3.832   9.435   3.254  0.3573  0.5071  0.6492
76923SOL    HW148761   3.797   9.417   3.167 -3.2073  0.9702  1.8269
76923SOL    HW248762   3.840   9.349   3.295  1.4562  0.3407  0.1329
76924SOL     OW48763  13.230   5.892   3.182 -0.3685 -0.5316  0.3742
76924SOL    HW148764  13.305   5.889   3.122 -0.6954  0.8347 -0.1544
76924SOL    HW248765  13.251   5.829   3.250  1.1179 -0.4188  0.0623
76925SOL     OW48766   2.880  10.012   5.849 -0.6722 -0.3916  0.9224
76925SOL    HW148767   2.895  10.084   5.789  1.6942 -0.3011  1.5006
76925SOL    HW248768   2.785  10.000   5.850 -1.1921  2.7901  0.9090
76926SOL     OW48769   0.770   3.913   4.983 -0.3793  0.2719 -0.0667
76926SOL    HW148770   0.731   3.878   4.903  0.2283  0.8062 -0.6010
76926SOL    HW248771   0.825   3.985   4.954  0.0465  0.3157  0.8094
76927SOL     OW48772  12.877  12.349  14.071 -0.0583 -0.5200  0.0819
76927SOL    HW148773  12.865  12.438  14.102 -0.9436 -0.2090 -1.0903
76927SOL    HW248774  12.836  12.294  14.138  1.4092 -0.1484  1.3273
76928SOL     OW48775  12.224   5.551   0.369  0.2645  0.1925  0.4874
76928SOL    HW148776  12.264   5.636   0.351 -1.4524  0.8995 -0.2315
76928SOL    HW248777  12.251   5.496   0.295 -0.5449  0.8482 -0.3267
76929SOL     OW48778  10.503   5.366   5.291 -0.6138 -0.5705 -0.2762
76929SOL    HW148779  10.585   5.369   5.241  0.1588 -1.5978  0.8777
76929SOL    HW248780  10.531   5.354   5.382 -2.0568 -0.9821  0.1342
76930SOL     OW48781  14.048   0.847  11.425  1.0137  0.0775  0.4002
76930SOL    HW148782  14.061   0.756  11.398  0.4886  0.0247  0.3123
76930SOL    HW248783  14.042   0.896  11.342  0.1436  0.0214  0.4179
76931SOL     OW48784   8.504   9.087   0.327  0.1268 -0.1025  0.6877
76931SOL    HW148785   8.534   9.066   0.415  2.5771  0.1828 -0.0086
76931SOL    HW248786   8.437   9.154   0.339  1.5572  1.1017  2.2648
76932SOL     OW48787  11.463   2.969  13.844 -0.0719  0.0600 -0.0990
76932SOL    HW148788  11.532   2.950  13.908  0.6058 -0.9758 -1.0841
76932SOL    HW248789  11.461   3.064  13.838  1.4410  0.1101 -0.2042
76933SOL     OW48790  11.795   0.306   0.259 -0.5211  0.3750 -0.0622
76933SOL    HW148791  11.713   0.261   0.279  0.4877 -1.7175 -0.3353
76933SOL    HW248792  11.860   0.265   0.317  0.5995  0.9944 -0.8359
76934SOL     OW48793   0.073  10.390   3.418 -0.4381  0.2726 -0.0799
76934SOL    HW148794   0.106  10.300   3.417  0.6990  0.6534  0.5851
76934SOL    HW248795   0.056  10.411   3.326 -1.6706 -0.9350 -0.1542
76935SOL     OW48796  13.575   2.716   6.121  0.4583 -0.0033 -0.0548
76935SOL    HW148797  13.523   2.666   6.184  0.7333  1.1760  1.1535
76935SOL    HW248798  13.524   2.796   6.106  0.7836  0.0885 -0.7256
76936SOL     OW48799  11.140   0.663   3.097 -0.1659 -0.1329 -0.0796
76936SOL    HW148800  11.193   0.591   3.131 -1.3538 -0.9201  0.1491
76936SOL    HW248801  11.172   0.741   3.143 -0.0215 -0.7875  0.9443
76937SOL     OW48802   5.426   0.386  13.200 -0.5566  0.2460 -0.5902
76937SOL    HW148803   5.389   0.412  13.115  0.4157 -1.8661 -1.7535
76937SOL    HW248804   5.430   0.290  13.195  2.7210  0.2317  0.4624
76938SOL     OW48805  13.322   8.609   5.475 -0.2093  0.1990 -0.3724
76938SOL    HW148806  13.331   8.522   5.514  0.7299  0.2394 -0.4710
76938SOL    HW248807  13.385   8.663   5.523 -1.7589  1.1941  0.6699
76939SOL     OW48808   8.560   6.203   1.841  0.2134  0.2142  0.2508
76939SOL    HW148809   8.617   6.208   1.918  3.0976 -0.9824 -1.6363
76939SOL    HW248810   8.573   6.114   1.808 -2.6722 -0.0387 -0.4519
76940SOL     OW48811   7.011   9.078   0.178  0.2340 -0.0278 -0.0123
76940SOL    HW148812   7.008   9.147   0.112 -0.1937 -1.4089 -1.4753
76940SOL    HW248813   6.927   9.086   0.224  0.8385  1.4084  0.9101
76941SOL     OW48814   8.292   0.574   2.904  0.1289  0.5662 -0.1801
76941SOL    HW148815   8.384   0.570   2.876 -0.0557 -0.5396 -0.6810
76941SOL    HW248816   8.246   0.517   2.842 -1.1159  2.1171 -0.7600
76942SOL     OW48817  13.999   5.774   0.865 -0.2530  0.2463 -0.0156
76942SOL    HW148818  13.906   5.753   0.873  0.0140 -0.9112  0.2246
76942SOL    HW248819  14.030   5.719   0.793  0.4448 -0.0931  0.5343
76943SOL     OW48820   8.289   8.344   5.606 -0.5273  0.8868 -1.0100
76943SOL    HW148821   8.272   8.384   5.691  2.1824  1.3224 -0.5933
76943SOL    HW248822   8.325   8.415   5.553  0.9587 -0.1111 -1.4152
76944SOL     OW48823  10.961   6.082   6.470 -0.6985 -0.0540 -0.4381
76944SOL    HW148824  10.881   6.078   6.522  0.0034 -1.1657  0.5831
76944SOL    HW248825  10.957   6.168   6.426 -2.4839 -0.1480 -0.5025
76945SOL     OW48826   9.330   7.051   6.840  0.2288 -0.9232 -0.3885
76945SOL    HW148827   9.263   7.118   6.825  1.3780  0.3692  0.0780
76945SOL    HW248828   9.410   7.088   6.803  1.2591 -1.3264  1.3258
76946SOL     OW48829   2.173  10.038   0.095 -0.1210  0.4023 -0.3504
76946SOL    HW148830   2.195   9.998   0.179  0.4918  0.0489 -0.6682
76946SOL    HW248831   2.116   9.975   0.052  0.2918  0.1752 -0.5684
76947SOL     OW48832  12.624  12.391  12.326 -0.0949  0.0438 -0.1025
76947SOL    HW148833  12.536  12.414  12.356  0.3493  0.1388  1.2056
76947SOL    HW248834  12.654  12.469  12.279  0.2975  1.1367  1.8103
76948SOL     OW48835  10.842  10.625   4.022  0.2723 -0.1521  0.3829
76948SOL    HW148836  10.888  10.700   4.062  1.7246 -0.5190 -0.5116
76948SOL    HW248837  10.833  10.562   4.094  1.4599 -0.1830  0.5390
76949SOL     OW48838  11.244   0.901   1.175  0.3416 -0.1921  0.4501
76949SOL    HW148839  11.237   0.829   1.238 -0.3332 -2.0711 -1.6423
76949SOL    HW248840  11.330   0.890   1.135  0.8876  1.1646  1.2195
76950SOL     OW48841   6.465   6.964   2.429  0.2447 -0.3949  0.6188
76950SOL    HW148842   6.426   6.879   2.410 -0.1348 -0.2877  0.9024
76950SOL    HW248843   6.510   6.989   2.348 -0.5915 -0.3490  0.1573
76951SOL     OW48844  10.074   3.898  12.869  0.4960 -0.3941  0.5435
76951SOL    HW148845   9.988   3.866  12.894  0.2297 -0.5055 -0.4846
76951SOL    HW248846  10.109   3.831  12.811  0.2952  0.7259 -0.9275
76952SOL     OW48847  12.381   2.757   3.794 -0.0375  0.4580 -0.0980
76952SOL    HW148848  12.369   2.851   3.804 -1.0357  0.2427  0.8715
76952SOL    HW248849  12.467   2.740   3.833 -0.6370  0.7267  1.4004
76953SOL     OW48850   6.663   9.583  13.132 -0.0756  0.6256 -0.6890
76953SOL    HW148851   6.653   9.491  13.157  0.3568  0.6813 -0.2764
76953SOL    HW248852   6.586   9.627  13.168  0.3009  0.6195  0.1464
76954SOL     OW48853   6.231   4.628   3.034 -0.1377  0.7833 -0.0489
76954SOL    HW148854   6.139   4.605   3.052 -0.1462  0.1916 -0.8095
76954SOL    HW248855   6.263   4.557   2.979  1.6548 -0.5661  2.5322
76955SOL     OW48856   0.283  11.284   4.565 -0.0444 -0.1388  0.6911
76955SOL    HW148857   0.311  11.194   4.577 -1.1437 -0.6568 -0.4910
76955SOL    HW248858   0.214  11.296   4.630  0.4730  0.0355  1.2173
76956SOL     OW48859   6.664   3.986   5.697 -0.5649  0.3934  0.4972
76956SOL    HW148860   6.753   3.958   5.717 -0.3090  1.5490  1.0736
76956SOL    HW248861   6.636   3.929   5.626  0.4482 -0.3171  0.6483
76957SOL     OW48862   0.490   7.003  10.154 -0.3105  0.8936 -0.2623
76957SOL    HW148863   0.540   6.922  10.163 -0.2789  0.9640  0.2590
76957SOL    HW248864   0.529   7.062  10.218 -0.7861  1.0897 -0.1467
76958SOL     OW48865   5.487  12.388  12.723 -0.6337  0.4711  0.5039
76958SOL    HW148866   5.401  12.410  12.758 -0.1884  0.8290  1.4164
76958SOL    HW248867   5.499  12.295  12.745 -0.2119  0.7783  1.6793
76959SOL     OW48868   4.477   4.695   9.816  0.3530 -0.8951  0.0693
76959SOL    HW148869   4.431   4.719   9.896  0.1969 -0.4469 -0.1475
76959SOL    HW248870   4.467   4.601   9.809  0.4057 -0.9410  0.6016
76960SOL     OW48871  13.457   6.753   3.656  0.8100  0.3925 -0.3638
76960SOL    HW148872  13.502   6.740   3.740  0.3969 -1.7715 -0.4196
76960SOL    HW248873  13.527   6.770   3.594  1.2472  0.5927  0.1741
76961SOL     OW48874   7.929   9.091   2.765 -0.0519 -0.2594 -0.2547
76961SOL    HW148875   8.022   9.114   2.760  0.0685  0.1914  2.3923
76961SOL    HW248876   7.923   9.032   2.840 -2.0717  0.8405  0.5370
76962SOL     OW48877  11.991  11.183   3.542 -0.2115 -0.4237 -0.0814
76962SOL    HW148878  12.053  11.255   3.553 -0.3773 -0.5258  1.7850
76962SOL    HW248879  11.931  11.213   3.473  1.4869 -0.0590 -1.4755
76963SOL     OW48880  11.262  12.056  13.760 -0.1363 -0.6314  0.3099
76963SOL    HW148881  11.195  11.988  13.764  1.0924 -1.9288 -0.4331
76963SOL    HW248882  11.345  12.009  13.766  0.7513  1.0400  2.3900
76964SOL     OW48883  10.786  13.267   9.638  0.0180  0.3302 -0.0380
76964SOL    HW148884  10.809  13.176   9.619 -1.2181 -0.2199  0.9141
76964SOL    HW248885  10.845  13.292   9.709 -0.7250 -0.3023  0.8278
76965SOL     OW48886   7.689  10.274   4.833  0.1464 -0.5500  0.3866
76965SOL    HW148887   7.623  10.210   4.809 -2.1932  1.3139  1.4609
76965SOL    HW248888   7.695  10.332   4.758  0.9929 -0.9967  0.0920
76966SOL     OW48889  12.077  11.541   7.413 -0.5352 -0.1516 -0.0288
76966SOL    HW148890  12.031  11.618   7.445 -1.9938 -1.3828  0.9800
76966SOL    HW248891  12.105  11.495   7.492 -1.0535 -1.4331 -0.5622
76967SOL     OW48892  10.853  13.068  12.636 -0.1015  0.2862  0.3306
76967SOL    HW148893  10.920  13.135  12.627  1.1863 -0.8466  1.0106
76967SOL    HW248894  10.816  13.084  12.723 -1.9052  1.8975 -0.6582
76968SOL     OW48895   8.915   5.055   3.543 -0.3326  0.0610 -0.2224
76968SOL    HW148896   8.838   5.107   3.518  0.0850  0.9381  0.2998
76968SOL    HW248897   8.989   5.104   3.508  0.2113  0.8932  1.9683
76969SOL     OW48898   7.450   8.111   6.923  0.3685 -0.3279 -0.9329
76969SOL    HW148899   7.419   8.112   6.832  0.4918  0.9997 -0.9883
76969SOL    HW248900   7.545   8.106   6.915  0.6895  3.1890 -1.0756
76970SOL     OW48901   1.261  11.664  11.936  0.0212  0.4075 -0.5311
76970SOL    HW148902   1.317  11.618  11.999  0.6452  0.4556 -1.0431
76970SOL    HW248903   1.244  11.599  11.868  0.6718  0.8333 -1.1150
76971SOL     OW48904  11.275   9.986   5.290  0.0286 -0.7418  0.1621
76971SOL    HW148905  11.212   9.916   5.271 -0.5261 -0.0532 -0.6066
76971SOL    HW248906  11.313  10.009   5.206  0.0459  0.0174  0.3609
76972SOL     OW48907   2.417  11.627  12.816 -0.2736  0.3773 -0.8271
76972SOL    HW148908   2.468  11.561  12.863 -1.9356  1.0814  2.2413
76972SOL    HW248909   2.339  11.580  12.786 -1.6135  0.8510  1.6386
76973SOL     OW48910   9.337   9.653   1.895 -0.0653  0.1504 -0.5990
76973SOL    HW148911   9.308   9.640   1.805 -0.4748  0.2839 -0.4909
76973SOL    HW248912   9.416   9.600   1.904 -1.0284 -1.3174 -0.5036
76974SOL     OW48913   2.908   3.710   1.459  0.3205  0.5197 -0.3362
76974SOL    HW148914   2.830   3.662   1.431  0.5651 -0.0147 -0.1131
76974SOL    HW248915   2.965   3.709   1.382  0.0601  1.0289 -0.5442
76975SOL     OW48916  11.794   5.814  10.590 -0.1522  0.1441 -0.2517
76975SOL    HW148917  11.790   5.869  10.512 -1.1559 -0.8855 -0.9613
76975SOL    HW248918  11.844   5.738  10.563  0.7122  0.4121  0.5467
76976SOL     OW48919   7.049   9.212  10.286 -1.1606 -0.3682 -0.4254
76976SOL    HW148920   7.053   9.253  10.200  0.7839  2.1460  0.7254
76976SOL    HW248921   7.011   9.279  10.343  0.3981 -0.7735  1.2057
76977SOL     OW48922   2.898  11.496   8.820  0.3140 -0.0124  0.6963
76977SOL    HW148923   2.842  11.549   8.763 -0.2714 -0.3373  0.9640
76977SOL    HW248924   2.846  11.419   8.841  1.3219 -0.9471 -0.0628
76978SOL     OW48925   8.155  12.053  11.611 -0.0074  0.2193 -0.4275
76978SOL    HW148926   8.247  12.049  11.588 -0.3293 -0.6695 -1.6603
76978SOL    HW248927   8.154  12.064  11.706  1.3679 -1.0998 -0.2322
76979SOL     OW48928  13.860   7.325   2.999  0.0665  0.0768  0.1477
76979SOL    HW148929  13.875   7.342   3.092  1.3935  0.3970 -0.1083
76979SOL    HW248930  13.905   7.396   2.954 -0.8716  0.1262 -0.7440
76980SOL     OW48931   1.559  10.735   8.106  0.4711  0.2540 -0.1873
76980SOL    HW148932   1.468  10.707   8.096  0.2272  1.2401 -0.9825
76980SOL    HW248933   1.595  10.679   8.174  0.1464 -2.2623 -1.9419
76981SOL     OW48934   0.967   3.133   5.268 -0.1940  0.2253 -0.2552
76981SOL    HW148935   0.901   3.107   5.203 -1.1910 -1.7297  1.4150
76981SOL    HW248936   0.936   3.217   5.301 -1.1192 -0.0122 -0.4758
76982SOL     OW48937   3.083   2.621  11.697 -0.2766 -1.0188  0.2400
76982SOL    HW148938   3.136   2.569  11.636  0.4550 -0.6786  0.5797
76982SOL    HW248939   3.101   2.712  11.672 -1.3370 -0.9037 -0.1705
76983SOL     OW48940   4.874   2.952   9.745  0.2406  0.3539 -0.2730
76983SOL    HW148941   4.812   2.899   9.795 -1.7937  1.7522 -1.1998
76983SOL    HW248942   4.939   2.889   9.713 -1.0456 -1.2783  0.2151
76984SOL     OW48943   8.297   4.038   1.499 -0.0822 -0.9158 -0.3755
76984SOL    HW148944   8.319   4.058   1.590  1.7621  0.1301 -1.0086
76984SOL    HW248945   8.207   4.006   1.503 -0.5247  0.3847  1.6593
76985SOL     OW48946  12.261   8.104  10.338  0.2105  0.2491 -0.9565
76985SOL    HW148947  12.297   8.070  10.420 -0.5491 -0.7507 -1.0161
76985SOL    HW248948  12.338   8.124  10.285  0.6972 -0.4531 -0.5306
76986SOL     OW48949   8.755  11.659  12.451 -0.0888 -0.2470 -0.6168
76986SOL    HW148950   8.808  11.694  12.523 -0.2851  1.0997 -1.1043
76986SOL    HW248951   8.665  11.680  12.474 -0.5705 -3.1061  0.5272
76987SOL     OW48952   5.109  12.185  10.948  0.2187  0.4339 -0.4008
76987SOL    HW148953   5.021  12.149  10.936  0.3403 -0.7525  1.8190
76987SOL    HW248954   5.160  12.145  10.877 -0.4732 -0.9197 -0.1800
76988SOL     OW48955   8.457   4.235   3.530  0.7566  0.3719 -0.8885
76988SOL    HW148956   8.389   4.170   3.514  0.3518  1.3701 -3.7026
76988SOL    HW248957   8.438   4.268   3.618 -0.2233 -1.8527 -0.2048
76989SOL     OW48958   7.646   9.071   4.960 -0.5648  0.0538  0.0333
76989SOL    HW148959   7.600   9.090   5.042  0.7579 -2.8133  1.5889
76989SOL    HW248960   7.592   9.006   4.916  0.8328 -1.8510  0.9381
76990SOL     OW48961   5.729   0.810  13.962 -0.1202  0.0638 -0.5686
76990SOL    HW148962   5.728   0.757  14.042 -0.8063 -0.0471 -0.6479
76990SOL    HW248963   5.731   0.746  13.891  0.8608  0.1638 -0.6460
76991SOL     OW48964   8.475   9.346   5.525  0.0549  0.5972  0.0598
76991SOL    HW148965   8.425   9.415   5.571  1.0337  1.3686 -0.0039
76991SOL    HW248966   8.409   9.301   5.473 -0.8436  0.6002  1.1513
76992SOL     OW48967  11.624  12.674   9.340 -0.4244 -0.5171 -0.1047
76992SOL    HW148968  11.599  12.762   9.369 -0.6036 -0.9211  1.0272
76992SOL    HW248969  11.639  12.683   9.246  1.1477  1.0878  0.2337
76993SOL     OW48970  12.970   3.752   6.574 -0.1766  0.0548 -0.0174
76993SOL    HW148971  13.021   3.792   6.504 -0.6156  1.3971  0.3935
76993SOL    HW248972  13.007   3.789   6.655 -1.7495  1.0867  0.2918
76994SOL     OW48973   2.736  12.662  10.906 -0.0590 -0.0418  0.2769
76994SOL    HW148974   2.676  12.646  10.832  1.2579 -0.8677 -0.6510
76994SOL    HW248975   2.811  12.606  10.888  0.7789  0.5881  1.6942
76995SOL     OW48976   6.996  10.954   5.870 -0.0346 -0.7240 -0.6134
76995SOL    HW148977   6.993  11.027   5.808 -3.0718 -1.7445 -1.8854
76995SOL    HW248978   6.970  10.993   5.954  0.5341  0.0420 -0.7821
76996SOL     OW48979  10.627   2.218   2.906  0.0335  0.4228  0.4073
76996SOL    HW148980  10.708   2.168   2.891 -1.1834 -1.7625  0.6955
76996SOL    HW248981  10.644   2.268   2.985  0.5704 -1.3219  1.4526
76997SOL     OW48982   8.365  11.410   2.930 -0.0720  0.2569 -0.5092
76997SOL    HW148983   8.316  11.485   2.962 -0.0128  0.7313 -1.5009
76997SOL    HW248984   8.457  11.432   2.948 -0.2168 -1.3981  2.9882
76998SOL     OW48985   7.950  12.681   1.906 -0.3147 -0.0481  0.0208
76998SOL    HW148986   7.867  12.726   1.894 -0.0516  0.5538  0.3973
76998SOL    HW248987   8.006  12.745   1.951  0.2017 -0.6014  0.1846
76999SOL     OW48988   8.617   8.349   2.848  0.3332  0.0046  0.3818
76999SOL    HW148989   8.553   8.317   2.784  2.5141 -1.8507 -1.0405
76999SOL    HW248990   8.607   8.444   2.846 -1.9559 -0.1910 -0.1656
77000SOL     OW48991  10.062  11.995   8.973  0.2411  0.4753 -0.5518
77000SOL    HW148992  10.070  12.065   9.038 -1.4842  1.2170 -1.0794
77000SOL    HW248993   9.972  12.003   8.940 -0.1258 -2.1865 -0.4174
77001SOL     OW48994   8.586   1.274   1.114 -0.0084  0.0891 -0.4277
77001SOL    HW148995   8.656   1.337   1.096 -0.5790  1.1010  0.8118
77001SOL    HW248996   8.506   1.326   1.116 -0.6170 -0.8280 -0.3466
77002SOL     OW48997   1.078   6.233   0.057  0.0869  0.5830  0.1321
77002SOL    HW148998   1.013   6.224  -0.012  0.5800 -0.4757 -0.2142
77002SOL    HW248999   1.094   6.143   0.087  1.2670  0.8392  0.3113
77003SOL     OW49000   0.343  13.023   9.061 -0.3241 -0.3937  0.1165
77003SOL    HW149001   0.418  13.056   9.110 -0.2652  0.6215 -0.6127
77003SOL    HW249002   0.381  12.961   8.999 -0.2057 -0.5497  0.3432
77004SOL     OW49003   8.895   0.353   7.128  0.5025  0.6923  0.1884
77004SOL    HW149004   8.939   0.314   7.203  0.8485 -1.4824 -1.0462
77004SOL    HW249005   8.834   0.417   7.166  1.2725  0.2907  2.2266
77005SOL     OW49006   6.518   0.312   2.086  0.5565 -0.0837  0.7183
77005SOL    HW149007   6.474   0.397   2.086  0.2458 -0.2265  1.6867
77005SOL    HW249008   6.606   0.330   2.053 -0.5175  0.0109 -2.4896
77006SOL     OW49009   9.245   3.900   4.249 -0.8750 -0.6322 -0.1346
77006SOL    HW149010   9.238   3.945   4.334 -1.1171  1.7679 -1.3294
77006SOL    HW249011   9.327   3.852   4.254  0.9074  2.2307  0.3188
77007SOL     OW49012  13.865  13.431   0.653  0.3623 -0.2750  0.1709
77007SOL    HW149013  13.921  13.414   0.577  0.0450 -0.1514 -0.0961
77007SOL    HW249014  13.839  13.345   0.684  0.5862 -0.3282  0.2061
77008SOL     OW49015   0.990   7.492   0.395 -0.1306  0.7085  0.1133
77008SOL    HW149016   1.058   7.433   0.364  0.2841  0.3289  1.6912
77008SOL    HW249017   0.931   7.437   0.446  0.7355  1.7123  2.3642
77009SOL     OW49018   1.117   0.379   6.120  0.3370  0.4322 -0.8552
77009SOL    HW149019   1.179   0.451   6.106  1.8046 -0.9805 -2.1419
77009SOL    HW249020   1.164   0.301   6.089 -2.0781 -0.7417 -1.8170
77010SOL     OW49021   7.955   9.802   8.210  0.0143  0.3558 -0.1607
77010SOL    HW149022   7.953   9.821   8.116 -1.8339 -0.2598 -0.2755
77010SOL    HW249023   7.895   9.728   8.221  0.9472 -0.2308  1.3835
77011SOL     OW49024   2.423   0.027   9.409 -0.5336  0.1005  0.3783
77011SOL    HW149025   2.402   0.117   9.384  0.8658 -0.1265 -1.8986
77011SOL    HW249026   2.459   0.035   9.497 -2.4328  1.4366  1.1239
77012SOL     OW49027  11.082  12.742   7.023  0.0509 -0.1361 -0.3676
77012SOL    HW149028  11.138  12.811   6.987  0.1359  0.0819  0.1701
77012SOL    HW249029  11.062  12.686   6.948  0.4599  0.1463 -0.6945
77013SOL     OW49030   2.783   1.576  13.529  0.5715  0.1959  0.6709
77013SOL    HW149031   2.815   1.657  13.490  0.5702 -0.1184  0.0094
77013SOL    HW249032   2.699   1.560  13.486  0.9053 -0.5333  0.2799
77014SOL     OW49033   7.170   0.929   0.069  0.4830 -0.2710  0.3331
77014SOL    HW149034   7.221   0.869   0.123  1.8854 -0.6632 -1.3590
77014SOL    HW249035   7.207   0.921  -0.019 -1.9493  0.0577 -0.8095
77015SOL     OW49036  12.249   0.688   9.139 -0.2801  0.0826 -0.1747
77015SOL    HW149037  12.219   0.750   9.073  0.5435  0.5449 -0.1333
77015SOL    HW249038  12.275   0.743   9.213 -1.7888 -0.4586  0.8039
77016SOL     OW49039   2.675  11.099   1.590 -0.1783 -0.3888  0.3509
77016SOL    HW149040   2.762  11.131   1.567  0.9172 -1.5514  2.5382
77016SOL    HW249041   2.636  11.170   1.641  0.2921 -0.6132  1.0350
77017SOL     OW49042   7.952  10.386   2.640 -0.3351  0.0886  0.2981
77017SOL    HW149043   7.878  10.428   2.684  0.2505  0.9440  0.4898
77017SOL    HW249044   8.028  10.434   2.671  0.2852 -0.6632 -0.0443
77018SOL     OW49045   5.903  13.102  11.864  0.3569  0.1915  0.0746
77018SOL    HW149046   5.980  13.076  11.813 -0.0894  1.1534 -1.1614
77018SOL    HW249047   5.931  13.098  11.955  1.3870 -0.9854 -0.2648
77019SOL     OW49048   8.938   3.659   5.868  0.4189 -0.0152  0.2422
77019SOL    HW149049   8.999   3.686   5.800 -0.4640 -0.2322 -0.6636
77019SOL    HW249050   8.908   3.572   5.841  0.3941 -0.3043  1.1479
77020SOL     OW49051   1.895  11.564   9.153 -0.2201  0.2368 -0.3121
77020SOL    HW149052   1.986  11.585   9.174 -0.4043  0.4727  0.2798
77020SOL    HW249053   1.843  11.621   9.211 -0.7576  0.8923 -1.4166
77021SOL     OW49054   4.653  12.561   7.202 -0.0382  0.0359 -0.3096
77021SOL    HW149055   4.685  12.573   7.292  0.2490  0.5441 -0.4753
77021SOL    HW249056   4.732  12.539   7.152 -0.4690 -2.3634 -0.0835
77022SOL     OW49057   2.089  12.962  11.919 -0.3302 -0.5238  0.2517
77022SOL    HW149058   2.133  12.930  11.998  0.5512 -0.4935 -0.2206
77022SOL    HW249059   2.055  13.048  11.944  1.7146  0.4020  0.0161
77023SOL     OW49060   9.915   7.002   4.248  0.2421  0.3980  0.2440
77023SOL    HW149061   9.887   6.920   4.208  1.7145 -0.0248  0.0129
77023SOL    HW249062   9.836   7.038   4.288 -0.4653 -1.0333  0.1889
77024SOL     OW49063   6.938   4.984   7.835  0.3776  0.6452 -0.3807
77024SOL    HW149064   6.866   5.042   7.809 -0.8389 -0.8070 -0.4143
77024SOL    HW249065   6.985   4.965   7.754 -0.1901  0.3371 -0.6444
77025SOL     OW49066   4.400   9.141  12.172  0.1632  0.2564  0.6907
77025SOL    HW149067   4.375   9.170  12.085  1.0803  0.0519  0.3537
77025SOL    HW249068   4.317   9.136  12.220 -0.3244  0.5599 -0.1024
77026SOL     OW49069   7.649   6.665  13.149  0.2563 -0.3116 -0.1864
77026SOL    HW149070   7.557   6.667  13.175  0.4530 -4.2516  1.5737
77026SOL    HW249071   7.649   6.615  13.067  0.8651 -1.3298  0.4143
77027SOL     OW49072   1.528   2.635   9.096 -0.5505 -0.4247  0.2619
77027SOL    HW149073   1.574   2.564   9.141 -1.4272 -0.8146  0.5620
77027SOL    HW249074   1.529   2.708   9.159  4.2024  1.4793 -1.5799
77028SOL     OW49075   2.701  12.863   2.751 -0.1725 -0.0095 -0.7778
77028SOL    HW149076   2.619  12.815   2.761  1.1685 -2.1596  0.6382
77028SOL    HW249077   2.749  12.814   2.684  0.5987  0.2950 -0.4566
77029SOL     OW49078   8.830   4.168   0.360 -0.2253  0.0300  0.1848
77029SOL    HW149079   8.904   4.227   0.352  2.1816 -2.5561  1.6883
77029SOL    HW249080   8.841   4.105   0.289 -1.4772  0.0759 -0.0753
77030SOL     OW49081  11.979   7.363   0.625 -0.4127 -0.2267 -0.5609
77030SOL    HW149082  11.976   7.458   0.633 -0.0264 -0.3187  1.0386
77030SOL    HW249083  12.005   7.333   0.712 -1.3287 -1.8415 -0.8184
77031SOL     OW49084   8.599   8.962   8.519 -0.7087  0.0447  0.9570
77031SOL    HW149085   8.536   8.945   8.450 -1.5119 -0.7825  1.8636
77031SOL    HW249086   8.627   9.053   8.505 -1.7053  0.2483  0.2317
77032SOL     OW49087   1.571   5.710   1.526  0.4499  0.2001 -0.3767
77032SOL    HW149088   1.531   5.797   1.528  0.7926  0.3768 -0.8804
77032SOL    HW249089   1.665   5.726   1.537  0.4925 -0.1242 -0.2392
77033SOL     OW49090   2.784   3.731  12.768 -0.6095 -0.2344 -0.2703
77033SOL    HW149091   2.730   3.682  12.706 -1.6394  0.3779  0.1182
77033SOL    HW249092   2.721   3.774  12.826  0.1384  3.2593 -1.8127
77034SOL     OW49093  13.929   1.791   2.606 -0.4999 -0.0840  0.3033
77034SOL    HW149094  13.852   1.810   2.553 -0.4279 -0.3896  0.0877
77034SOL    HW249095  13.894   1.774   2.694 -0.4785  2.1650  0.7948
77035SOL     OW49096   0.305   5.873   8.119 -0.1834 -0.6869  0.2784
77035SOL    HW149097   0.390   5.836   8.142  1.1117  0.7801 -1.7950
77035SOL    HW249098   0.259   5.802   8.075 -0.0561 -1.4687  1.3535
77036SOL     OW49099  11.298   3.195   0.556 -0.0875  0.0965 -0.1214
77036SOL    HW149100  11.286   3.285   0.526  0.6996 -0.0058 -0.7761
77036SOL    HW249101  11.385   3.170   0.524 -0.1132 -0.7483  0.4322
77037SOL     OW49102  12.895  12.527   5.000 -0.0104  0.3384  0.0736
77037SOL    HW149103  12.941  12.531   4.916  0.6420  1.9098  0.4620
77037SOL    HW249104  12.963  12.545   5.065 -0.6888  0.0751  0.8734
77038SOL     OW49105   9.946   4.147   0.399  0.7039 -0.2214 -0.2657
77038SOL    HW149106   9.933   4.242   0.392 -0.9339 -0.2045  1.9053
77038SOL    HW249107   9.865   4.109   0.366  1.5265 -0.9104 -1.5369
77039SOL     OW49108   5.877  13.047   8.851  0.3498  0.6449  0.6297
77039SOL    HW149109   5.965  13.037   8.887  0.3629 -0.9326  0.2402
77039SOL    HW249110   5.868  13.140   8.833  1.6464  0.9347  1.4052
77040SOL     OW49111   8.756   7.346   0.344 -0.2594 -0.5311 -0.5056
77040SOL    HW149112   8.808   7.269   0.320  2.7969  1.2886 -0.3542
77040SOL    HW249113   8.814   7.396   0.402 -1.8466  2.1583 -1.0858
77041SOL     OW49114   8.817   7.503  11.387  0.2372  0.5525 -0.3743
77041SOL    HW149115   8.762   7.464  11.454  0.4786  1.1507  0.1835
77041SOL    HW249116   8.856   7.429  11.341 -0.4829  0.1334 -0.3191
77042SOL     OW49117  13.082   5.887   4.963 -0.1425 -0.0165  0.3125
77042SOL    HW149118  13.074   5.981   4.981 -1.4271 -0.1764  0.7108
77042SOL    HW249119  12.993   5.860   4.940  0.2961 -1.0620 -0.1928
77043SOL     OW49120   4.021   9.166   2.008 -0.0126  0.2385 -0.6666
77043SOL    HW149121   4.028   9.192   2.100 -0.5272 -1.4720 -0.1027
77043SOL    HW249122   4.091   9.101   1.997  0.4305  0.8666 -1.6630
77044SOL     OW49123  10.525  11.845   2.389  0.0201 -0.5252 -0.0480
77044SOL    HW149124  10.559  11.887   2.310 -0.6406 -1.2404 -0.7359
77044SOL    HW249125  10.544  11.752   2.377 -0.3088 -0.6696  0.5192
77045SOL     OW49126   4.662   3.777  13.109  0.0335  1.0742  0.1560
77045SOL    HW149127   4.641   3.863  13.075 -2.5064  0.7927  0.8369
77045SOL    HW249128   4.704   3.794  13.194  0.5304  1.6254 -0.1916
77046SOL     OW49129  11.740   1.688  13.432  0.5995 -0.2171  0.5967
77046SOL    HW149130  11.768   1.778  13.413 -0.1462  0.1311  1.1053
77046SOL    HW249131  11.684   1.696  13.508 -1.2290 -0.8351 -0.6190
77047SOL     OW49132   0.537   4.614   8.059 -0.6302  0.0471  0.3879
77047SOL    HW149133   0.604   4.669   8.100  1.3946 -0.9918 -1.3449
77047SOL    HW249134   0.546   4.529   8.101 -1.1095 -0.0164  0.3689
77048SOL     OW49135  11.882  12.025   1.024  0.7636 -0.1273  0.1035
77048SOL    HW149136  11.821  11.971   0.975  0.7660  0.7538 -0.9189
77048SOL    HW249137  11.921  12.083   0.958  1.0351  0.8548  1.0877
77049SOL     OW49138  13.591   9.448   6.018  0.2226 -0.0431  0.3183
77049SOL    HW149139  13.535   9.390   5.967  2.7251 -1.4201 -1.0402
77049SOL    HW249140  13.634   9.391   6.081  0.8951  0.7606  0.6033
77050SOL     OW49141   0.226  12.495  10.573 -0.1113  0.1728 -0.1479
77050SOL    HW149142   0.309  12.532  10.603 -0.2760  0.2462  0.2200
77050SOL    HW249143   0.198  12.553  10.502  1.0608 -0.8927 -1.5344
77051SOL     OW49144   7.089  11.712   4.451  0.4380 -0.2874  0.6592
77051SOL    HW149145   7.175  11.752   4.461  1.7489 -1.9950 -2.4037
77051SOL    HW249146   7.094  11.631   4.503  1.1557 -0.9447 -0.3926
77052SOL     OW49147  13.964  10.633   6.220 -0.2927 -0.3228 -0.4978
77052SOL    HW149148  14.054  10.620   6.190  0.8442  3.4420  0.7553
77052SOL    HW249149  13.964  10.597   6.309 -0.4944 -1.5366 -0.9605
77053SOL     OW49150   5.150   3.708   1.748  0.8423 -0.5775  0.1288
77053SOL    HW149151   5.203   3.785   1.729  0.3804 -0.1541  0.5312
77053SOL    HW249152   5.212   3.644   1.784  1.0397  0.0112  0.8485
77054SOL     OW49153   5.704   1.407   8.507  0.0661  0.3871  0.4551
77054SOL    HW149154   5.623   1.357   8.510 -0.4896  1.2419  0.0356
77054SOL    HW249155   5.773   1.341   8.500 -0.5956 -0.3412  0.6663
77055SOL     OW49156   5.885  10.657   6.929  0.6256 -0.2400 -0.1233
77055SOL    HW149157   5.886  10.587   6.864 -0.4838 -0.7281  0.3597
77055SOL    HW249158   5.934  10.622   7.003  2.2033  0.4539 -0.8081
77056SOL     OW49159  12.562  12.874   0.420  0.2401 -0.0121  0.1891
77056SOL    HW149160  12.511  12.952   0.441  2.5326  1.9649 -1.0525
77056SOL    HW249161  12.517  12.837   0.344 -0.7500  0.2072  0.6458
77057SOL     OW49162   6.614   8.667   8.931 -0.5435  0.3702  0.7369
77057SOL    HW149163   6.700   8.665   8.888 -0.7923 -1.0145  0.2662
77057SOL    HW249164   6.609   8.755   8.970  1.5437  0.1235  1.7095
77058SOL     OW49165   7.005   1.554  13.405  1.0209 -0.2759 -0.1272
77058SOL    HW149166   6.939   1.609  13.448  0.1141 -0.9450 -0.6283
77058SOL    HW249167   7.088   1.594  13.429  0.4549  0.4085  0.7851
77059SOL     OW49168  13.473   7.034   4.348 -0.2751 -0.1144  0.0462
77059SOL    HW149169  13.534   6.983   4.294  0.0491 -0.3774  0.6501
77059SOL    HW249170  13.472   7.121   4.308 -0.8919 -0.5888 -1.0505
77060SOL     OW49171   0.178  12.535   1.726  0.0318 -0.1070  0.3946
77060SOL    HW149172   0.208  12.562   1.813 -0.8026  0.3727  0.5467
77060SOL    HW249173   0.247  12.478   1.693  0.8153  0.4878  0.9742
77061SOL     OW49174  11.708  13.037   2.464  0.0307  0.0034 -0.0769
77061SOL    HW149175  11.752  12.980   2.402 -0.4363  0.9057 -1.2814
77061SOL    HW249176  11.666  12.977   2.526 -1.2495 -1.0248 -1.8499
77062SOL     OW49177  11.621  13.485  12.032 -0.1124 -0.2804  0.0707
77062SOL    HW149178  11.646  13.562  12.083  0.5951 -1.3136  1.3783
77062SOL    HW249179  11.670  13.493  11.950  0.0616  0.5838  0.2471
77063SOL     OW49180   1.672   2.578  10.171  0.0090  0.2444  0.4606
77063SOL    HW149181   1.598   2.636  10.192  0.7433  1.4260 -0.0913
77063SOL    HW249182   1.650   2.495  10.214 -1.5794  0.5952  0.4024
77064SOL     OW49183   0.091   9.981   1.734  0.0862  0.1423  0.2860
77064SOL    HW149184   0.057   9.903   1.689 -0.3235  0.5217 -0.0839
77064SOL    HW249185   0.148   9.946   1.803  0.0558 -0.4771  0.0111
77065SOL     OW49186  10.098   9.038   1.554 -0.2468 -0.4204  0.4526
77065SOL    HW149187  10.139   9.100   1.616 -0.9801  1.9357 -1.2736
77065SOL    HW249188  10.123   8.952   1.587  0.7352  0.7487  3.0889
77066SOL     OW49189   5.582   4.083  12.542 -0.3254 -0.3069 -0.7691
77066SOL    HW149190   5.492   4.063  12.517 -0.2629 -1.2974 -0.2554
77066SOL    HW249191   5.577   4.168  12.585 -0.8444  0.1296 -1.6831
77067SOL     OW49192   6.980   3.896  11.487  0.1613  0.1098  0.6189
77067SOL    HW149193   7.038   3.942  11.548 -0.6308  0.3492  1.2099
77067SOL    HW249194   7.026   3.814  11.467  0.9537  0.5340  0.6305
77068SOL     OW49195   1.516  10.126   8.294  0.0362  0.1031  0.1565
77068SOL    HW149196   1.553  10.085   8.372  0.8079  0.7467  0.1496
77068SOL    HW249197   1.443  10.179   8.327  1.2726  1.5715  0.6988
77069SOL     OW49198   4.892   8.078  11.381  0.3832  0.7120 -0.7445
77069SOL    HW149199   4.820   8.064  11.443  0.2795  0.5010 -0.9101
77069SOL    HW249200   4.914   8.170  11.390 -0.2331  0.8949 -1.0345
77070SOL     OW49201   0.090   9.231   8.315  0.1220  0.5676 -0.2652
77070SOL    HW149202   0.137   9.224   8.398  0.1486 -1.0584 -0.3814
77070SOL    HW249203   0.066   9.140   8.294 -3.2387  1.2790 -0.0994
77071SOL     OW49204   3.271  13.259   2.367 -0.1312 -0.2718  0.6224
77071SOL    HW149205   3.335  13.199   2.406  1.7738  1.2991  0.1032
77071SOL    HW249206   3.289  13.343   2.409 -0.7449  0.5693 -0.7240
77072SOL     OW49207   2.559   9.701   0.570 -0.0177  0.0710  0.8696
77072SOL    HW149208   2.505   9.630   0.604 -1.2846  1.4485  1.8769
77072SOL    HW249209   2.645   9.662   0.558 -0.0453 -1.0966  3.6226
77073SOL     OW49210  12.245   8.230   2.795 -0.4669  0.0038  0.1232
77073SOL    HW149211  12.235   8.151   2.740 -0.6764  0.9599 -1.2820
77073SOL    HW249212  12.174   8.287   2.766 -1.4812  0.0242  2.4238
77074SOL     OW49213  13.342  10.970   8.508  0.0807 -0.1076  0.6278
77074SOL    HW149214  13.399  10.972   8.584  0.2841  1.4923  0.4660
77074SOL    HW249215  13.257  10.942   8.543 -0.8075  3.8907  2.2264
77075SOL     OW49216  11.366  12.211   6.602 -0.0397 -0.2594 -0.2325
77075SOL    HW149217  11.450  12.250   6.579 -0.2099  0.7008  0.6842
77075SOL    HW249218  11.371  12.198   6.697 -1.2657  0.6900 -0.0074
77076SOL     OW49219   0.196   9.835   1.362  0.6432 -0.3116  0.1466
77076SOL    HW149220   0.207   9.826   1.267  2.2052  0.1671  0.2512
77076SOL    HW249221   0.284   9.855   1.394  0.4101 -1.8918  1.8789
77077SOL     OW49222  12.830   9.474  12.518  0.3225 -0.3538  0.1066
77077SOL    HW149223  12.747   9.452  12.559  0.7545 -1.0537  0.6235
77077SOL    HW249224  12.890   9.487  12.591  1.0331 -1.3228 -0.2821
77078SOL     OW49225  10.526   5.271  14.133  0.0388 -0.1348 -0.0956
77078SOL    HW149226  10.581   5.317  14.197 -0.2099 -0.8029  0.6103
77078SOL    HW249227  10.586   5.251  14.061  0.8562 -1.2005  0.8300
77079SOL     OW49228   9.464  11.903   9.776 -0.2342  0.0307  0.3178
77079SOL    HW149229   9.465  11.815   9.739  1.9823  0.9104 -2.0410
77079SOL    HW249230   9.486  11.892   9.868 -1.6867 -1.9515  0.4914
77080SOL     OW49231   1.709  10.144   2.813 -0.2353  0.0428 -0.1455
77080SOL    HW149232   1.635  10.167   2.756 -0.9303 -0.4983  0.5086
77080SOL    HW249233   1.680  10.171   2.900 -0.4714 -1.8609  0.4219
77081SOL     OW49234   7.318   7.883   6.984  0.0866 -0.1510  0.1859
77081SOL    HW149235   7.295   7.851   7.071 -0.0315  0.3150  0.3260
77081SOL    HW249236   7.352   7.971   6.998  1.1130 -0.4834 -0.1199
77082SOL     OW49237   4.001  10.477   1.300 -0.0524  0.4669 -0.0765
77082SOL    HW149238   4.026  10.532   1.374 -0.3318  0.0183  0.3539
77082SOL    HW249239   3.956  10.537   1.240  2.1125  1.3447 -0.9539
77083SOL     OW49240   6.464   2.883   7.662 -0.0856  0.5365  0.0854
77083SOL    HW149241   6.369   2.884   7.655 -0.1587 -0.0733  0.7922
77083SOL    HW249242   6.481   2.908   7.753  0.3201 -1.2344  0.5471
77084SOL     OW49243   8.531  12.986   0.982  0.2094 -0.0737 -0.1314
77084SOL    HW149244   8.484  13.052   0.931  2.7894  0.5369 -1.9237
77084SOL    HW249245   8.573  12.930   0.917  1.6886 -0.7499  1.3164
77085SOL     OW49246   3.473  10.185  13.316  0.4741  0.3321 -0.1956
77085SOL    HW149247   3.390  10.179  13.363 -0.2469  0.4782 -1.4028
77085SOL    HW249248   3.496  10.095  13.296  0.9484  0.2466  0.6898
77086SOL     OW49249   9.871  13.696   6.028 -0.2885 -0.2286  0.3470
77086SOL    HW149250   9.799  13.704   5.965  0.1580  1.2665 -0.0299
77086SOL    HW249251   9.945  13.739   5.985  0.3927 -0.3483  1.3565
77087SOL     OW49252   5.402   3.300  10.028 -0.2533  0.2997  0.3378
77087SOL    HW149253   5.337   3.244   9.986 -0.7405  1.4646 -0.5017
77087SOL    HW249254   5.359   3.334  10.105  0.5606 -1.6453  1.7479
77088SOL     OW49255   4.274   5.303   2.304 -0.2075 -0.0782  0.7625
77088SOL    HW149256   4.346   5.338   2.252  0.3338 -0.5149  1.2125
77088SOL    HW249257   4.316   5.264   2.380 -1.0835  2.1219  2.4920
77089SOL     OW49258  10.666  11.259   7.865  0.4600  0.1248  0.1557
77089SOL    HW149259  10.583  11.213   7.855  1.2027 -1.0875 -0.6060
77089SOL    HW249260  10.645  11.350   7.846 -0.5092 -0.3185 -1.0079
77090SOL     OW49261   3.489   7.423   3.270 -0.0912  0.1731 -0.4866
77090SOL    HW149262   3.416   7.473   3.232 -0.4568 -0.5476 -0.7504
77090SOL    HW249263   3.495   7.455   3.360 -3.4131 -2.5422  0.8970
77091SOL     OW49264   6.618  13.673   9.522 -0.1349 -0.2366 -0.0211
77091SOL    HW149265   6.623  13.592   9.572  1.1050 -0.1821 -0.0295
77091SOL    HW249266   6.591  13.645   9.434  0.1905 -0.6324  0.0027
77092SOL     OW49267  13.400  11.789   3.975  0.2670 -0.5651  0.3222
77092SOL    HW149268  13.446  11.860   4.020 -1.5114  1.1347 -0.4124
77092SOL    HW249269  13.371  11.731   4.046  1.4409 -0.3955  0.9644
77093SOL     OW49270   4.402  13.109   1.390 -0.3326 -0.0418  0.1103
77093SOL    HW149271   4.333  13.057   1.432 -0.8669 -0.5281 -1.3147
77093SOL    HW249272   4.480  13.054   1.398 -0.6031 -0.4847 -0.2111
77094SOL     OW49273   2.156   1.269  13.667  0.0838  0.3594  0.0346
77094SOL    HW149274   2.108   1.316  13.735  1.7292  1.2303  0.6502
77094SOL    HW249275   2.142   1.319  13.587  1.5083  1.7307  0.6068
77095SOL     OW49276   7.830  12.277   9.257 -0.2179  0.0711 -0.3594
77095SOL    HW149277   7.884  12.356   9.254 -0.5038  0.2583 -0.6432
77095SOL    HW249278   7.750  12.301   9.210  0.1952 -0.7648 -1.5357
77096SOL     OW49279  11.663  10.608  14.021 -0.2577 -0.0654  0.0503
77096SOL    HW149280  11.637  10.640  13.935  2.1693 -1.3340 -1.2857
77096SOL    HW249281  11.582  10.604  14.071 -1.6778  1.2284 -1.9899
77097SOL     OW49282   1.443   8.682   9.014  0.3249 -0.9397  0.1199
77097SOL    HW149283   1.509   8.737   8.972 -0.3573 -1.4480 -1.7497
77097SOL    HW249284   1.371   8.742   9.034 -0.8100 -1.1731 -2.7632
77098SOL     OW49285  12.445   4.374  10.986 -0.3734 -0.0888  0.2709
77098SOL    HW149286  12.481   4.440  10.927 -0.2289 -2.0040 -1.9528
77098SOL    HW249287  12.359   4.354  10.949 -0.2585 -1.3734  0.6548
77099SOL     OW49288   2.998  11.902  11.388 -0.0401 -0.2418  0.5388
77099SOL    HW149289   2.984  11.860  11.303 -0.9419  0.2407  0.4410
77099SOL    HW249290   2.985  11.995  11.371 -1.6874 -0.2693  1.4845
77100SOL     OW49291  13.366   0.552  10.959 -0.4016 -0.3020  0.3032
77100SOL    HW149292  13.382   0.641  10.988 -0.9592  0.6886 -2.2306
77100SOL    HW249293  13.450   0.520  10.927 -0.3044 -0.5490  0.7860
77101SOL     OW49294  10.443   3.350   1.748 -0.0147  0.4688 -0.6497
77101SOL    HW149295  10.503   3.289   1.791 -1.4058 -0.5863 -0.1526
77101SOL    HW249296  10.468   3.436   1.782  0.0919 -0.1438  0.9031
77102SOL     OW49297   8.669   0.267   8.991 -0.0900 -0.7040 -0.0442
77102SOL    HW149298   8.742   0.205   8.982 -1.4908 -2.2621 -1.2257
77102SOL    HW249299   8.593   0.213   9.010 -1.5264  0.5539 -1.8280
77103SOL     OW49300   5.604   0.306   8.119  0.0897 -0.5058  0.0869
77103SOL    HW149301   5.520   0.271   8.090  0.3553 -1.0927  0.0151
77103SOL    HW249302   5.595   0.401   8.110 -0.0707 -0.6409 -1.2633
77104SOL     OW49303   5.063  13.070  11.761 -0.8371 -0.3633 -0.4178
77104SOL    HW149304   5.019  13.153  11.739 -0.8240 -0.5892 -1.3382
77104SOL    HW249305   4.992  13.012  11.787 -0.7204  0.3388  1.6474
77105SOL     OW49306   8.243   4.197   0.192  0.6398 -0.4118  0.6921
77105SOL    HW149307   8.227   4.184   0.099  1.7765  0.6353  0.3312
77105SOL    HW249308   8.277   4.112   0.223 -2.4629 -1.7235  0.8428
77106SOL     OW49309   0.448   9.505   3.612  0.4438 -0.3136 -0.4099
77106SOL    HW149310   0.540   9.482   3.596  0.4077 -0.1297 -0.8953
77106SOL    HW249311   0.405   9.488   3.529  0.2992  0.9490 -0.6058
77107SOL     OW49312  11.020   1.044   6.752  0.7225 -0.7019  0.4202
77107SOL    HW149313  11.017   0.952   6.778 -0.3074 -1.1817 -1.2589
77107SOL    HW249314  11.012   1.092   6.835  1.0337 -2.0997  1.3034
77108SOL     OW49315   3.833   2.295  12.747  0.0311  0.2591  0.1226
77108SOL    HW149316   3.754   2.244  12.728 -1.0707  1.3748  1.5454
77108SOL    HW249317   3.893   2.271  12.677 -1.6349 -0.4410 -1.1475
77109SOL     OW49318   6.023   3.853   4.717  0.1126 -0.1928 -0.1064
77109SOL    HW149319   5.938   3.841   4.758  0.7128  1.6473  1.9269
77109SOL    HW249320   6.008   3.916   4.647 -0.4566 -1.1184 -0.8200
77110SOL     OW49321  14.001   7.264  12.641  0.6666  0.1448  0.6486
77110SOL    HW149322  14.009   7.242  12.734  0.6493  1.0362  0.8618
77110SOL    HW249323  13.942   7.339  12.638  1.4953  0.7967  0.0137
77111SOL     OW49324  14.143   6.378   0.962  0.4161  0.1334  0.1084
77111SOL    HW149325  14.162   6.472   0.960  0.8886  0.0257 -0.8632
77111SOL    HW249326  14.108   6.359   0.875 -0.8356 -0.3685  0.6935
77112SOL     OW49327  13.640  11.940   3.777 -0.2254  0.2245  0.3673
77112SOL    HW149328  13.626  11.980   3.863 -0.1979 -0.7843  0.8648
77112SOL    HW249329  13.701  11.998   3.732  0.3546  0.3798  1.3256
77113SOL     OW49330   3.712  11.253   6.197  0.2864 -0.3294 -0.3533
77113SOL    HW149331   3.657  11.175   6.196  0.6396 -0.6480  1.7629
77113SOL    HW249332   3.689  11.299   6.115  0.1526 -2.6549 -1.7012
77114SOL     OW49333   5.061   3.616   8.673  0.0868  0.1988  0.0912
77114SOL    HW149334   5.063   3.667   8.754  0.6157 -1.2027  1.0009
77114SOL    HW249335   4.969   3.594   8.661 -0.2963  2.1153 -0.8421
77115SOL     OW49336   5.378  12.201  14.093  0.3464 -0.5644  0.4525
77115SOL    HW149337   5.343  12.114  14.074  0.9269 -0.7822  0.3487
77115SOL    HW249338   5.372  12.248  14.009  0.5926 -0.7067  0.3532
77116SOL     OW49339  13.428   9.993   8.276  0.0030 -0.1585  0.0040
77116SOL    HW149340  13.431   9.925   8.208  1.2416  1.0084 -1.1710
77116SOL    HW249341  13.383  10.066   8.234  1.5583  0.8929  0.1053
77117SOL     OW49342   8.033   7.245  12.322  0.1391 -0.2069 -0.2639
77117SOL    HW149343   8.055   7.223  12.412  0.6860  1.0696 -0.0630
77117SOL    HW249344   7.941   7.220  12.312 -0.0503  0.0380  0.7823
77118SOL     OW49345   1.183   5.607  13.184 -0.3716 -0.7008  0.2066
77118SOL    HW149346   1.136   5.527  13.207  0.0310 -1.8663 -2.6174
77118SOL    HW249347   1.269   5.577  13.156  0.4156  0.9417  0.7272
77119SOL     OW49348  10.278   0.080  12.035  0.1669  0.4669 -0.1894
77119SOL    HW149349  10.295   0.084  11.941  1.4407 -1.5962 -0.1151
77119SOL    HW249350  10.364   0.084  12.075 -0.3348  0.8536  0.8862
77120SOL     OW49351   0.168  11.180  13.172  0.4070  0.0706  0.0392
77120SOL    HW149352   0.172  11.208  13.080  2.5623  0.4267  0.1807
77120SOL    HW249353   0.108  11.105  13.171  0.3327  0.1008 -1.6521
77121SOL     OW49354   5.336  13.427   1.062  0.0547 -0.1690  0.4967
77121SOL    HW149355   5.326  13.509   1.111 -3.4486 -1.3278  2.0631
77121SOL    HW249356   5.388  13.371   1.119  0.1985  0.1152  0.6473
77122SOL     OW49357   3.527   5.185  12.090  0.1794  0.1176 -0.3744
77122SOL    HW149358   3.495   5.272  12.067 -1.2997 -0.6938 -1.5708
77122SOL    HW249359   3.574   5.197  12.173 -0.0619  2.0154 -0.4829
77123SOL     OW49360   3.963   1.996   6.572  0.0416  0.2753 -0.4776
77123SOL    HW149361   4.014   1.989   6.492  0.0075 -0.9722 -0.4023
77123SOL    HW249362   3.879   1.955   6.551  0.8356 -2.2600  0.8405
77124SOL     OW49363   9.757  12.186   8.116 -0.2397 -0.3555 -0.2801
77124SOL    HW149364   9.769  12.281   8.126 -1.5552 -0.2211  0.2165
77124SOL    HW249365   9.691  12.163   8.181 -0.5356 -1.4823 -0.9552
77125SOL     OW49366   2.060  13.803  12.766  0.8242  0.7405 -0.5545
77125SOL    HW149367   2.011  13.852  12.832  0.2218 -0.0417 -0.4050
77125SOL    HW249368   2.135  13.858  12.746  0.5211  1.4104  0.1045
77126SOL     OW49369   7.934  13.389   8.247 -0.2920  0.2113 -0.1849
77126SOL    HW149370   7.850  13.413   8.208 -0.6947 -1.4012 -0.3480
77126SOL    HW249371   7.911  13.355   8.334  0.1969 -0.1567 -0.1985
77127SOL     OW49372  14.005   5.469   3.724  0.5460  0.0326  0.0386
77127SOL    HW149373  14.016   5.379   3.753 -2.1521 -1.0872 -2.0034
77127SOL    HW249374  13.991   5.519   3.805  0.3009 -1.6714  1.0912
77128SOL     OW49375  11.321  11.252   8.182  0.0277  0.7535 -0.0325
77128SOL    HW149376  11.281  11.166   8.191  0.9345  0.4635  1.7293
77128SOL    HW249377  11.397  11.249   8.240  1.1944  2.1042 -1.4141
77129SOL     OW49378   5.051  11.785   2.335  0.4240 -0.1133 -0.5993
77129SOL    HW149379   5.013  11.846   2.398  0.5452 -0.6400 -0.0100
77129SOL    HW249380   5.083  11.841   2.264 -0.8151  0.4046 -0.7854
77130SOL     OW49381  12.676  11.770   9.698  0.3193 -0.4542  0.2499
77130SOL    HW149382  12.740  11.714   9.654  0.3272 -0.2611  0.0131
77130SOL    HW249383  12.727  11.844   9.730 -0.0987  0.8695 -1.9235
77131SOL     OW49384  13.924  12.815   6.365 -0.0453 -0.0043 -0.3152
77131SOL    HW149385  13.867  12.761   6.418  0.5825 -0.0680  0.3129
77131SOL    HW249386  13.942  12.762   6.287 -0.8347  0.0251 -0.5288
77132SOL     OW49387   2.711   4.583   7.179  0.0606 -0.4986 -0.5414
77132SOL    HW149388   2.620   4.612   7.169  0.2412 -0.1772 -1.2853
77132SOL    HW249389   2.723   4.515   7.114  0.9681  0.9632 -1.9781
77133SOL     OW49390   6.664   4.221   5.850  0.4781 -0.3342  0.4378
77133SOL    HW149391   6.678   4.294   5.789 -1.0094 -0.0762  0.3604
77133SOL    HW249392   6.660   4.144   5.794  2.5805 -0.5815  0.5678
77134SOL     OW49393   6.197   4.158   6.243  0.0115  0.0974 -0.1980
77134SOL    HW149394   6.186   4.250   6.221  1.0343 -0.0493 -1.4202
77134SOL    HW249395   6.194   4.112   6.159  2.6931 -0.6258  0.0005
77135SOL     OW49396  11.513  12.575   5.548 -0.2442 -0.4077  0.5101
77135SOL    HW149397  11.515  12.671   5.544 -2.8693 -0.2442  1.2788
77135SOL    HW249398  11.531  12.547   5.458 -0.6787  0.8547  0.0083
77136SOL     OW49399   3.406  12.315  12.252  0.4600  0.0693  0.2128
77136SOL    HW149400   3.387  12.304  12.159  1.7143  1.6123 -0.2685
77136SOL    HW249401   3.403  12.227  12.288 -1.8434 -0.3736 -0.9004
77137SOL     OW49402   0.375   5.730   5.671  0.3519  0.3074 -0.2981
77137SOL    HW149403   0.384   5.750   5.764 -0.3874  1.2785 -0.4201
77137SOL    HW249404   0.361   5.635   5.668  1.4361  0.0984  0.4887
77138SOL     OW49405   2.766   3.224  10.010 -0.0654 -0.5846 -0.1594
77138SOL    HW149406   2.861   3.214  10.009  0.0126 -0.4345  1.9712
77138SOL    HW249407   2.750   3.306  10.056 -1.1939  1.1861 -3.3765
77139SOL     OW49408  14.128   0.383   7.774 -0.3312 -0.1768 -0.0901
77139SOL    HW149409  14.093   0.424   7.853 -0.2618  1.4713 -0.8799
77139SOL    HW249410  14.075   0.304   7.763 -0.4655 -0.3376  1.4823
77140SOL     OW49411   9.022   9.812  12.922 -0.0971  0.0392 -0.0326
77140SOL    HW149412   9.022   9.907  12.909 -0.8109  0.1375  0.6316
77140SOL    HW249413   8.996   9.800  13.014 -3.3101 -0.8764 -0.9145
77141SOL     OW49414   2.771   4.145  13.955 -0.1918 -1.1508  0.5016
77141SOL    HW149415   2.838   4.161  13.889  1.1857 -0.4168  1.9986
77141SOL    HW249416   2.729   4.063  13.927  2.0915 -2.2766  0.0785
77142SOL     OW49417  11.060   8.493   9.257  0.2782  0.0100 -1.1245
77142SOL    HW149418  11.111   8.572   9.274  1.7421 -1.4421  1.9618
77142SOL    HW249419  11.017   8.474   9.340  1.3915 -3.3505 -1.1689
77143SOL     OW49420   7.908   2.960  13.032 -0.4562  0.1072 -0.0374
77143SOL    HW149421   7.843   2.911  12.982 -1.4354 -0.2923  1.5426
77143SOL    HW249422   7.878   3.051  13.028  0.0288  0.2322 -0.9849
77144SOL     OW49423   0.744   7.698   6.546  0.0339  0.0988  0.3397
77144SOL    HW149424   0.769   7.761   6.614  0.3675 -0.8144  1.0774
77144SOL    HW249425   0.827   7.671   6.506 -0.0834 -0.1437  0.2584
77145SOL     OW49426  12.210   0.971   0.879  0.3077 -0.1092 -0.1212
77145SOL    HW149427  12.205   0.876   0.869  1.3995 -0.1975  0.0025
77145SOL    HW249428  12.214   1.005   0.790 -2.9108  0.0657 -0.3097
77146SOL     OW49429   6.023   4.758   5.621 -0.0828  0.1634 -0.0092
77146SOL    HW149430   6.111   4.737   5.653 -0.0629  1.2320  0.7231
77146SOL    HW249431   5.965   4.698   5.669  0.2561 -0.7148 -0.6804
77147SOL     OW49432   2.175   0.020   2.985  0.2438  0.0998 -0.2823
77147SOL    HW149433   2.168  -0.052   2.921 -0.8708 -0.1544  0.1068
77147SOL    HW249434   2.265   0.012   3.019 -0.0388 -1.5153  0.2036
77148SOL     OW49435   8.818  11.226   3.956  0.4503  0.5799 -0.2814
77148SOL    HW149436   8.884  11.273   3.904  1.1962  0.0132  0.1227
77148SOL    HW249437   8.805  11.281   4.033  1.2223  0.2040  0.1271
77149SOL     OW49438   6.295   0.458  10.949 -0.5669  0.4863 -0.0532
77149SOL    HW149439   6.267   0.438  10.860  1.3335 -1.2797 -0.3400
77149SOL    HW249440   6.372   0.514  10.938 -0.1454  0.0262  0.4306
77150SOL     OW49441   1.295   5.320  11.105 -0.2734 -0.1504 -0.4230
77150SOL    HW149442   1.280   5.260  11.032  0.7622  0.6289 -1.3093
77150SOL    HW249443   1.210   5.328  11.147 -0.4282 -2.3368 -0.1728
77151SOL     OW49444   5.482  11.450  10.466  0.2989 -0.0635 -0.0603
77151SOL    HW149445   5.556  11.428  10.410  0.3310 -0.8520  0.2786
77151SOL    HW249446   5.441  11.366  10.486 -1.6930  0.4791 -1.5716
77152SOL     OW49447   9.855  11.755   5.999  0.3095 -0.5001  0.7398
77152SOL    HW149448   9.830  11.662   5.999 -0.6264 -0.3229 -1.6500
77152SOL    HW249449   9.940  11.757   5.956 -0.0308 -0.2251  0.0482
77153SOL     OW49450   9.334  12.297   6.888 -0.5979 -0.2682  0.2406
77153SOL    HW149451   9.266  12.246   6.843 -1.4221  1.3376 -0.3910
77153SOL    HW249452   9.399  12.315   6.820 -1.0382  0.7521  0.0667
77154SOL     OW49453   9.895   8.116   5.513  0.0193  0.0214 -0.3065
77154SOL    HW149454   9.804   8.094   5.530  0.2115 -0.6019 -0.0431
77154SOL    HW249455   9.940   8.031   5.513  1.1010  0.4935  2.5968
77155SOL     OW49456   5.953  12.354   0.049 -0.2400 -0.0865  0.1009
77155SOL    HW149457   5.973  12.409   0.125  1.2002  0.4947 -0.6590
77155SOL    HW249458   5.876  12.394   0.011 -0.7574 -0.1613  1.0348
77156SOL     OW49459   5.687   2.034  11.841 -0.1319 -0.7816  0.7549
77156SOL    HW149460   5.611   2.086  11.868  0.0710  1.0082 -1.7847
77156SOL    HW249461   5.760   2.072  11.889 -0.3149 -0.1106  0.5171
77157SOL     OW49462   8.485   7.215  14.011 -0.3767 -0.1424 -0.1136
77157SOL    HW149463   8.475   7.197  13.917  0.7361  1.8491 -0.6745
77157SOL    HW249464   8.421   7.283  14.029 -0.7064 -0.6451  0.6250
77158SOL     OW49465   8.013   9.641   2.165  0.7307 -0.0804 -0.2955
77158SOL    HW149466   7.988   9.714   2.108  0.7238  0.8777  0.8987
77158SOL    HW249467   8.009   9.564   2.108  0.4936  0.8079 -1.5224
77159SOL     OW49468   2.366   0.988   3.371 -0.0147 -0.2391 -0.0726
77159SOL    HW149469   2.393   1.078   3.351  0.6692 -0.7765 -1.7355
77159SOL    HW249470   2.275   0.996   3.400  0.5932  1.1650  1.6012
77160SOL     OW49471   1.389  13.301   6.062 -0.0921 -0.2317  0.8693
77160SOL    HW149472   1.329  13.228   6.049  1.2460 -1.0935 -0.8845
77160SOL    HW249473   1.470  13.261   6.094  0.0604  0.7287  1.7521
77161SOL     OW49474   3.514  12.655   6.124 -0.1429 -0.1676  0.0233
77161SOL    HW149475   3.450  12.657   6.195 -0.1399  1.6758  0.0166
77161SOL    HW249476   3.464  12.624   6.048 -0.8052  0.3138  0.2495
77162SOL     OW49477  13.458   3.810   1.089  0.0720 -0.1854  0.0836
77162SOL    HW149478  13.539   3.839   1.045  1.5286 -1.8908  1.4983
77162SOL    HW249479  13.438   3.879   1.152 -0.3520  0.8595 -1.1531
77163SOL     OW49480  14.144  10.962  13.168  0.7923  0.2279  0.2749
77163SOL    HW149481  14.053  10.932  13.178  1.8110 -2.5047  3.5404
77163SOL    HW249482  14.180  10.908  13.098  0.1383  0.7573 -0.4854
77164SOL     OW49483  10.448   3.330   8.190  0.2545 -1.0887 -0.3290
77164SOL    HW149484  10.365   3.345   8.236  0.2881 -0.6915 -0.3928
77164SOL    HW249485  10.422   3.292   8.106  0.0928 -0.4792 -0.5675
77165SOL     OW49486   5.421   6.044   6.442 -0.4747  0.0713 -0.0210
77165SOL    HW149487   5.475   6.111   6.400  0.7971 -0.6883  0.3432
77165SOL    HW249488   5.370   6.093   6.507  0.7186  0.6711  0.5170
77166SOL     OW49489   9.863   3.495  10.858  0.1566 -0.5956  0.6249
77166SOL    HW149490   9.786   3.469  10.807  1.3496 -3.4678  0.1184
77166SOL    HW249491   9.936   3.485  10.798  1.2138 -0.4718  1.8450
77167SOL     OW49492  11.948   2.221   5.908 -0.5732  0.3259 -0.5701
77167SOL    HW149493  11.898   2.291   5.866 -0.9662  0.5110  0.2085
77167SOL    HW249494  11.907   2.209   5.993 -0.0227 -0.3255 -0.3890
77168SOL     OW49495  13.196   0.600   7.069  0.1833 -0.6717  0.0840
77168SOL    HW149496  13.270   0.639   7.021 -1.3498  0.7274 -1.2418
77168SOL    HW249497  13.159   0.672   7.120  0.2502 -1.5753  1.4710
77169SOL     OW49498  10.121   4.080   7.381  0.2256 -0.4638  0.4960
77169SOL    HW149499  10.210   4.097   7.349 -0.7400  1.4671 -1.3966
77169SOL    HW249500  10.103   3.990   7.354  0.7751 -0.0743 -1.2856
77170SOL     OW49501  10.171   6.075  11.177 -0.3053  0.1623 -0.0083
77170SOL    HW149502  10.253   6.040  11.212 -0.2583 -0.2575 -0.5322
77170SOL    HW249503  10.188   6.086  11.083 -0.3392  1.5272  0.1205
77171SOL     OW49504  10.365   9.570   8.881 -0.0525 -0.2988 -0.5611
77171SOL    HW149505  10.379   9.482   8.847  0.4055  0.1340 -1.5510
77171SOL    HW249506  10.334   9.557   8.970  0.9708 -1.4466 -0.3368
77172SOL     OW49507   2.157   1.150  11.247 -0.0745 -1.0102 -0.0898
77172SOL    HW149508   2.129   1.152  11.156  0.7620 -0.2506 -0.3410
77172SOL    HW249509   2.252   1.138  11.243  0.0933 -0.0502  0.6607
77173SOL     OW49510  13.926   6.885   6.556 -0.4791 -0.3717 -0.3887
77173SOL    HW149511  13.903   6.841   6.637  1.1278 -0.9454 -0.2184
77173SOL    HW249512  13.994   6.948   6.581  1.1194 -1.5738 -1.4705
77174SOL     OW49513  12.236   4.341  12.737  0.5962 -0.0719 -0.6590
77174SOL    HW149514  12.164   4.298  12.691  0.8679 -0.5754 -0.6238
77174SOL    HW249515  12.196   4.415  12.782 -0.6610 -2.3785  2.4111
77175SOL     OW49516   1.762  11.597   6.269  0.0440  0.1629 -0.5983
77175SOL    HW149517   1.753  11.623   6.177 -0.0836  1.6113 -0.2146
77175SOL    HW249518   1.703  11.657   6.316  0.9631  0.2213  0.5324
77176SOL     OW49519   2.232   4.966  13.940  0.2370 -0.2907 -0.2300
77176SOL    HW149520   2.254   4.930  13.854  0.9381 -1.1204  0.2788
77176SOL    HW249521   2.283   5.046  13.946 -1.5536  1.0132 -1.4911
77177SOL     OW49522   3.696   2.968  10.102 -0.6919 -0.0563  0.2323
77177SOL    HW149523   3.692   2.872  10.104 -0.9712 -0.0443  0.4811
77177SOL    HW249524   3.610   2.996  10.136 -1.9828  0.2901 -2.9514
77178SOL     OW49525  10.313   2.376   8.322 -0.3405 -0.0428  0.4041
77178SOL    HW149526  10.387   2.333   8.365 -0.9617 -2.0090 -0.3706
77178SOL    HW249527  10.351   2.456   8.285  0.6558  0.6262  2.6791
77179SOL     OW49528   7.494   8.945   0.159  0.3905  0.3605 -0.1520
77179SOL    HW149529   7.511   8.965   0.067  2.3016 -2.0888 -0.4685
77179SOL    HW249530   7.411   8.988   0.179 -0.2173  0.7618 -3.0849
77180SOL     OW49531  10.096   5.035   3.524 -0.4907 -0.2424 -0.3295
77180SOL    HW149532  10.048   5.089   3.462 -0.5274 -0.4776 -0.5084
77180SOL    HW249533  10.094   5.084   3.606 -0.0019  0.3105 -0.6430
77181SOL     OW49534   6.297   6.376   2.138  0.0824  0.1187 -0.3420
77181SOL    HW149535   6.232   6.332   2.084  0.1959  1.8863 -2.0082
77181SOL    HW249536   6.249   6.446   2.182  0.3077 -0.3629  0.7222
77182SOL     OW49537   6.143   0.793  11.001 -0.3791  0.8847  0.4261
77182SOL    HW149538   6.093   0.775  11.081  2.6848  0.1629  2.3288
77182SOL    HW249539   6.076   0.799  10.933 -2.9316 -1.8623  2.3965
77183SOL     OW49540   4.346   1.112   8.463  0.6971 -0.6680  0.6300
77183SOL    HW149541   4.436   1.128   8.437  0.2483  3.5298  0.9718
77183SOL    HW249542   4.293   1.148   8.391 -0.5630  1.3536  2.4209
77184SOL     OW49543   0.756   6.927   4.686  0.2369  0.0101 -0.5836
77184SOL    HW149544   0.676   6.964   4.724 -0.1692  0.1040 -1.5162
77184SOL    HW249545   0.797   6.999   4.640  0.7248 -0.1070 -0.3393
77185SOL     OW49546   8.183   9.516   1.636 -0.2831  0.0830  0.0542
77185SOL    HW149547   8.128   9.589   1.609 -0.4841  0.4603  1.4222
77185SOL    HW249548   8.122   9.448   1.664 -0.0717  0.0730  0.5001
77186SOL     OW49549   6.752  12.705  12.965 -0.1668  0.1000 -0.5476
77186SOL    HW149550   6.803  12.743  12.893  1.2817  0.1494  0.4515
77186SOL    HW249551   6.698  12.638  12.923  1.8119 -0.9917 -1.4808
77187SOL     OW49552   1.365  12.432   3.671  0.8227  0.1979  0.0294
77187SOL    HW149553   1.406  12.507   3.627  0.6774  0.3698  0.1890
77187SOL    HW249554   1.431  12.402   3.733  1.4630 -0.7286 -1.0659
77188SOL     OW49555   3.159  14.109   5.907 -0.3721  0.2268  0.3133
77188SOL    HW149556   3.085  14.122   5.848 -0.9555  1.8001  1.3214
77188SOL    HW249557   3.121  14.111   5.994  0.7025 -0.2526  0.8146
77189SOL     OW49558  14.071   2.960   4.372 -0.2558 -0.1159  0.8625
77189SOL    HW149559  14.013   3.025   4.333  1.5117  0.9851 -0.0902
77189SOL    HW249560  14.042   2.876   4.336  0.4326  0.7030 -1.8121
77190SOL     OW49561   0.345   9.308   7.202 -0.3403  0.2030 -0.0198
77190SOL    HW149562   0.393   9.273   7.127 -0.6394  1.0206 -0.5994
77190SOL    HW249563   0.278   9.241   7.220  1.5121 -1.3890  1.3699
77191SOL     OW49564   7.524   5.355   9.266  0.1537  0.2094 -0.2210
77191SOL    HW149565   7.489   5.312   9.344  1.0605  0.8746  0.5588
77191SOL    HW249566   7.600   5.303   9.242  1.0541  1.1600  0.5270
77192SOL     OW49567   2.931  11.919  10.439 -0.3971  0.1913 -0.7353
77192SOL    HW149568   2.988  11.892  10.511 -0.7224 -0.1595 -0.6031
77192SOL    HW249569   2.963  12.006  10.414 -0.2614  0.3089 -0.1808
77193SOL     OW49570   7.879   6.094   2.321 -0.0337 -0.4683 -0.0872
77193SOL    HW149571   7.809   6.158   2.333  0.3888  0.1741 -0.9632
77193SOL    HW249572   7.940   6.136   2.261 -0.7468 -2.4333 -2.3920
77194SOL     OW49573   1.874   4.899   6.716 -0.4601  0.0163 -0.3568
77194SOL    HW149574   1.866   4.811   6.680 -1.4194 -0.6535  1.3272
77194SOL    HW249575   1.909   4.886   6.804  0.9350  1.4813 -0.6517
77195SOL     OW49576  12.528   5.174   4.966  0.2591  0.2270  0.7030
77195SOL    HW149577  12.582   5.199   4.891  1.4242 -1.9045  0.7367
77195SOL    HW249578  12.565   5.223   5.040 -0.7459  2.1516 -0.0217
77196SOL     OW49579   4.999   5.294   5.548  0.0848  0.6833 -0.0742
77196SOL    HW149580   5.079   5.343   5.570  0.2657  1.4137 -2.1138
77196SOL    HW249581   5.029   5.225   5.489 -0.7658  0.9077 -0.7885
77197SOL     OW49582  12.662   4.856  13.591  0.3650 -0.1078 -0.0228
77197SOL    HW149583  12.717   4.933  13.606  1.3555 -0.6651 -0.6050
77197SOL    HW249584  12.716   4.782  13.621 -1.6986 -0.4321  3.4103
77198SOL     OW49585   4.610   6.507   2.276  0.2883  0.0130 -0.0497
77198SOL    HW149586   4.610   6.484   2.369  0.1174  1.0958  0.2287
77198SOL    HW249587   4.694   6.475   2.244  0.2548 -0.5666  0.4250
77199SOL     OW49588   9.684   0.720  10.634  0.2760 -0.4971  0.0027
77199SOL    HW149589   9.714   0.737  10.724 -0.6765  0.7535  0.1089
77199SOL    HW249590   9.600   0.676  10.645 -0.0677  0.0876 -0.2756
77200SOL     OW49591  10.554   2.709   7.964 -0.2041  0.3548  0.2733
77200SOL    HW149592  10.631   2.754   7.998  0.0652  0.0791  0.0344
77200SOL    HW249593  10.585   2.621   7.942 -0.7331  0.0331  0.7811
77201SOL     OW49594  11.381   8.110   0.198  0.0368 -0.2794  0.1765
77201SOL    HW149595  11.418   8.120   0.286  0.8209 -1.5090  0.0067
77201SOL    HW249596  11.307   8.051   0.209 -0.1989 -0.0011  0.0916
77202SOL     OW49597   6.755   9.017   8.306 -0.0693  0.1245 -0.4478
77202SOL    HW149598   6.756   8.975   8.220  0.4897 -0.2510 -0.2738
77202SOL    HW249599   6.780   9.108   8.290  0.3490 -0.0230 -0.6549
77203SOL     OW49600   6.919   8.887   5.098 -0.2864 -0.2293  0.4696
77203SOL    HW149601   6.933   8.804   5.144 -1.4284 -1.1180 -0.7055
77203SOL    HW249602   6.899   8.950   5.167 -0.2231 -1.1141  1.3246
77204SOL     OW49603   7.698  13.024  10.233  0.2247 -0.0524  0.4976
77204SOL    HW149604   7.657  13.081  10.167 -0.0389 -0.7165  0.0792
77204SOL    HW249605   7.646  13.037  10.312  0.0894  0.1975  0.3692
77205SOL     OW49606  11.179  11.522   0.542  0.3636 -0.3936  0.1330
77205SOL    HW149607  11.125  11.567   0.607  0.7303 -0.2408  0.3321
77205SOL    HW249608  11.246  11.476   0.593  0.7788 -0.1058 -0.1468
77206SOL     OW49609   7.963   7.828   1.845  0.1928  0.1453  0.3470
77206SOL    HW149610   8.008   7.834   1.929 -1.4290 -1.5677  1.4150
77206SOL    HW249611   7.944   7.918   1.821 -1.2500  0.6444  2.9736
77207SOL     OW49612  10.463   0.851   3.106  0.5751 -0.1061  0.2205
77207SOL    HW149613  10.483   0.783   3.171 -1.3944 -2.1363 -1.1307
77207SOL    HW249614  10.372   0.877   3.126  0.9794  1.4869  0.1120
77208SOL     OW49615   7.214   0.351   8.166  0.0434 -0.1812  1.0597
77208SOL    HW149616   7.153   0.281   8.190 -0.2098  0.0957  1.2279
77208SOL    HW249617   7.261   0.316   8.091 -0.9715 -0.0333  0.3338
77209SOL     OW49618   3.779  10.860   1.540 -0.2544  0.5452 -0.1974
77209SOL    HW149619   3.712  10.795   1.519  1.8787 -2.4881  1.4429
77209SOL    HW249620   3.763  10.882   1.632  0.8920 -0.2248  0.2198
77210SOL     OW49621  12.945   2.875   4.365  0.0834 -0.2098 -0.0563
77210SOL    HW149622  12.927   2.968   4.380  1.0123 -0.3396  2.4449
77210SOL    HW249623  12.860   2.838   4.340 -0.6804  1.0328  0.5721
77211SOL     OW49624  10.306   7.492   9.119  0.3672 -0.1704 -0.4207
77211SOL    HW149625  10.221   7.450   9.111 -0.8157  1.7909  0.8947
77211SOL    HW249626  10.297   7.574   9.070  0.8636  0.8913  1.1675
77212SOL     OW49627   8.352  12.404   2.103 -0.1879  0.4847  0.0926
77212SOL    HW149628   8.268  12.440   2.073 -0.1824  0.2988 -0.1424
77212SOL    HW249629   8.353  12.422   2.197 -1.8927 -2.2693  0.7347
77213SOL     OW49630   8.131   6.214   8.576  0.0260  0.0667  0.4656
77213SOL    HW149631   8.171   6.272   8.511 -2.8938  0.3622 -1.2776
77213SOL    HW249632   8.060   6.267   8.613 -2.7152 -2.2028 -1.1478
77214SOL     OW49633   8.280  13.757   8.360 -0.0678  0.0124  0.0327
77214SOL    HW149634   8.184  13.760   8.355 -0.0407 -0.9547 -1.7113
77214SOL    HW249635   8.306  13.698   8.289  1.8520  0.5887  0.2080
77215SOL     OW49636   4.081   3.843   2.680 -0.1499  0.1817 -0.1835
77215SOL    HW149637   4.150   3.882   2.627 -0.6644  2.0852  0.4618
77215SOL    HW249638   4.125   3.816   2.761  0.2246 -0.7015 -0.6671
77216SOL     OW49639   2.043  11.868   3.785  0.4665  0.0102  0.5278
77216SOL    HW149640   2.114  11.930   3.773  0.2243 -0.0339 -1.3762
77216SOL    HW249641   1.992  11.873   3.705 -1.0614 -0.7585  1.4049
77217SOL     OW49642  12.777  10.636  12.445 -0.1964  0.0795  0.2379
77217SOL    HW149643  12.750  10.620  12.536 -0.0896  1.7612  0.6110
77217SOL    HW249644  12.797  10.550  12.410 -1.8450 -0.7807  1.2947
77218SOL     OW49645   0.763   9.422  12.182 -0.1897 -0.3948 -0.2577
77218SOL    HW149646   0.850   9.399  12.216 -0.0107  1.9309  1.1061
77218SOL    HW249647   0.766   9.518  12.173 -3.2495  0.0379  1.8491
77219SOL     OW49648   0.457   8.484   8.627  0.7945  0.0401  0.0713
77219SOL    HW149649   0.457   8.501   8.721 -1.7039 -1.2634  0.3836
77219SOL    HW249650   0.515   8.408   8.616  0.9724  0.1049  0.5551
77220SOL     OW49651  10.760  12.359  12.970  0.5473  0.3910 -0.3366
77220SOL    HW149652  10.735  12.451  12.977 -0.6491  0.0838 -0.3521
77220SOL    HW249653  10.741  12.322  13.056  0.8397  0.1193 -0.3859
77221SOL     OW49654   2.454   0.730   8.831  0.1625  0.0236 -0.3323
77221SOL    HW149655   2.390   0.748   8.899  0.2867 -0.4601 -0.0817
77221SOL    HW249656   2.455   0.809   8.777  0.9451  0.9019  0.9227
77222SOL     OW49657   5.199   4.275   7.383  0.1131  0.7946  0.4386
77222SOL    HW149658   5.167   4.302   7.297 -1.1620  2.9712  1.5104
77222SOL    HW249659   5.121   4.269   7.437  0.9666  0.2430  1.6636
77223SOL     OW49660  13.958  13.881  10.278  0.2309  0.1389  0.0013
77223SOL    HW149661  14.046  13.844  10.286  0.0217 -0.0323  1.8276
77223SOL    HW249662  13.936  13.912  10.366 -1.5431  0.1744 -0.4134
77224SOL     OW49663   3.478   9.371   5.259 -0.0345 -0.5276  0.5320
77224SOL    HW149664   3.474   9.282   5.222  0.0025 -0.5170  0.5020
77224SOL    HW249665   3.418   9.369   5.333 -1.1523 -0.1583 -0.3305
77225SOL     OW49666   5.229   1.532   6.517 -0.1514 -0.3394  0.5986
77225SOL    HW149667   5.183   1.492   6.443 -0.4784  0.9593  0.0654
77225SOL    HW249668   5.295   1.468   6.542  0.3653 -0.5632 -1.2171
77226SOL     OW49669   7.589   6.663  13.868 -0.0281  0.3874  0.4961
77226SOL    HW149670   7.664   6.720  13.859  0.0891 -0.0277 -1.6639
77226SOL    HW249671   7.589   6.637  13.960  2.2160  0.7252  0.6378
77227SOL     OW49672  14.104  11.752   6.006  0.3859  0.2097  0.1425
77227SOL    HW149673  14.029  11.697   5.984 -0.5847  2.1502 -1.7729
77227SOL    HW249674  14.120  11.734   6.098 -1.7997 -0.9991  0.3688
77228SOL     OW49675  10.567   8.537   0.779 -0.1316 -0.3570 -0.3809
77228SOL    HW149676  10.482   8.499   0.801 -1.0449  0.6131 -2.0138
77228SOL    HW249677  10.631   8.470   0.804 -1.4687 -1.7039 -0.4383
77229SOL     OW49678   3.962  11.656   7.406 -0.0147  0.9221  0.3119
77229SOL    HW149679   3.952  11.675   7.500  0.7225 -0.1307  0.6192
77229SOL    HW249680   3.987  11.740   7.368 -1.5471  1.6579  0.8389
77230SOL     OW49681  10.961  11.899   1.146 -0.1929  0.4100 -0.0311
77230SOL    HW149682  10.912  11.839   1.090  0.6292  1.5493 -2.0710
77230SOL    HW249683  10.996  11.844   1.216 -0.5111 -1.2265 -1.1152
77231SOL     OW49684   1.455   4.917   6.328 -0.3411  0.4849  0.1732
77231SOL    HW149685   1.534   4.918   6.382 -0.2302 -0.2299  0.0408
77231SOL    HW249686   1.464   4.991   6.269  2.2605 -1.8311 -2.6627
77232SOL     OW49687   0.411   7.306   6.710  0.5757  0.1134  0.0301
77232SOL    HW149688   0.443   7.240   6.648 -0.3194 -0.2334 -0.0866
77232SOL    HW249689   0.407   7.387   6.659  1.9320  0.3448  0.2440
77233SOL     OW49690  13.083  13.679   7.306  0.8727 -0.3116  0.1797
77233SOL    HW149691  13.093  13.671   7.211  0.1892  0.3690  0.0326
77233SOL    HW249692  13.132  13.759   7.328 -0.1737  0.3558  0.1639
77234SOL     OW49693   8.980   8.268   8.609  0.2453  0.2810  0.0257
77234SOL    HW149694   8.891   8.280   8.642  0.1846  0.8352 -0.3278
77234SOL    HW249695   8.969   8.255   8.515  0.3960 -1.5305  0.2360
77235SOL     OW49696   5.115   7.924   1.844  0.0446  0.5808  0.0703
77235SOL    HW149697   5.028   7.891   1.822  0.2054  1.0441 -1.4338
77235SOL    HW249698   5.104   7.970   1.927 -1.2401  0.9458 -0.2768
77236SOL     OW49699   6.414   9.683  13.624  0.6528  0.5198  0.3957
77236SOL    HW149700   6.441   9.593  13.642  2.3727  0.9452  0.0574
77236SOL    HW249701   6.468   9.737  13.681 -2.3038  1.2922  2.7374
77237SOL     OW49702   2.363   7.830   5.569  0.2432 -0.1737  0.2289
77237SOL    HW149703   2.321   7.908   5.607  1.0400  1.5927 -2.2375
77237SOL    HW249704   2.301   7.799   5.503  0.4402 -0.9306  0.3951
77238SOL     OW49705   9.215   9.677  13.916  0.2378  0.1510 -0.0893
77238SOL    HW149706   9.304   9.704  13.894  0.4168  1.1042  1.5694
77238SOL    HW249707   9.160   9.749  13.885  0.4733  1.4084  2.1481
77239SOL     OW49708  13.941  13.657   5.347  0.0149 -0.0423  0.1595
77239SOL    HW149709  13.965  13.567   5.326 -1.3416 -0.0639 -1.5351
77239SOL    HW249710  13.984  13.709   5.279  0.9030  0.6326  1.2099
77240SOL     OW49711   4.448   4.783  11.407  0.6024 -0.0113 -0.5907
77240SOL    HW149712   4.376   4.843  11.425  0.1733 -1.0957  1.6756
77240SOL    HW249713   4.518   4.838  11.371 -0.9109  1.2463 -1.7556
77241SOL     OW49714   0.071   2.980   3.152  0.1566  0.0106 -0.4133
77241SOL    HW149715   0.093   2.941   3.236  0.9945  0.6499 -0.3268
77241SOL    HW249716   0.154   3.013   3.118  0.1314 -1.5670 -2.1898
77242SOL     OW49717  11.713   8.617  11.336  0.2567 -0.5776  0.4525
77242SOL    HW149718  11.792   8.668  11.323  0.8231 -1.2532  1.1553
77242SOL    HW249719  11.681   8.599  11.248 -0.4389  1.6776  0.1828
77243SOL     OW49720   4.153   5.712  10.249  0.2041  0.2988  0.3604
77243SOL    HW149721   4.176   5.802  10.271 -2.0752  0.9231  0.3981
77243SOL    HW249722   4.092   5.685  10.318 -1.3646 -0.2562 -1.1787
77244SOL     OW49723  12.746   4.883   3.511  0.0843  0.5993 -0.0735
77244SOL    HW149724  12.825   4.849   3.553 -0.1554 -0.8916 -0.7617
77244SOL    HW249725  12.778   4.948   3.448  0.9557 -1.1629 -1.5246
77245SOL     OW49726   0.707   8.402   6.071 -0.2026 -0.1988 -0.0385
77245SOL    HW149727   0.744   8.426   6.156  0.4604  0.4490 -0.5015
77245SOL    HW249728   0.644   8.332   6.091  0.3791 -0.4656  0.9105
77246SOL     OW49729   5.468   9.105   0.987 -0.2768  0.5134 -0.4113
77246SOL    HW149730   5.415   9.125   0.909  1.0967 -0.7357 -1.7357
77246SOL    HW249731   5.442   9.172   1.051 -0.7845  2.2065 -2.2631
77247SOL     OW49732   8.327   4.478   0.667 -0.6237  0.3773  0.2662
77247SOL    HW149733   8.362   4.408   0.612  0.5720  1.0208  0.1721
77247SOL    HW249734   8.255   4.438   0.714 -1.7892 -0.1717 -1.8476
77248SOL     OW49735   6.723   5.088  12.200 -0.3098 -0.0544 -0.5827
77248SOL    HW149736   6.777   5.034  12.259 -0.1539 -0.8002 -1.3848
77248SOL    HW249737   6.779   5.101  12.123 -0.3774  1.2074 -0.4405
77249SOL     OW49738   3.189   7.623   4.413 -0.1117  0.3694  1.0747
77249SOL    HW149739   3.212   7.716   4.402 -0.2820  0.1301 -2.2349
77249SOL    HW249740   3.270   7.576   4.395 -0.7028 -0.1700 -0.3114
77250SOL     OW49741  13.272   1.177   0.244  0.6105 -0.0462  0.1929
77250SOL    HW149742  13.319   1.252   0.209  0.2477  0.0631 -0.0624
77250SOL    HW249743  13.190   1.213   0.277  0.2942 -0.3745 -0.2270
77251SOL     OW49744   6.180   6.243  10.823 -0.1411 -0.4446 -0.2797
77251SOL    HW149745   6.159   6.154  10.795 -0.0567 -1.6713  3.0703
77251SOL    HW249746   6.275   6.243  10.836 -0.2324 -0.1679  0.4844
77252SOL     OW49747   5.978  12.270   8.755 -0.0979  0.4052  0.3632
77252SOL    HW149748   5.996  12.207   8.686  1.5102 -1.4670  2.3395
77252SOL    HW249749   5.983  12.356   8.712 -2.5209 -0.6812 -2.4472
77253SOL     OW49750   3.368   9.632   7.578  0.1104 -0.3086 -0.6751
77253SOL    HW149751   3.323   9.708   7.540 -0.6818 -0.3042  0.2286
77253SOL    HW249752   3.330   9.557   7.534 -2.4010 -0.4660  1.4970
77254SOL     OW49753   1.572  13.106   7.020  0.0000 -0.1990 -0.0792
77254SOL    HW149754   1.620  13.027   6.995 -0.8988 -0.1892 -2.0408
77254SOL    HW249755   1.547  13.092   7.111  2.2464 -0.9207  0.4802
77255SOL     OW49756   1.930   2.158   9.692 -0.4230 -0.1665 -0.0015
77255SOL    HW149757   1.859   2.110   9.650  1.0083 -0.4622 -2.2621
77255SOL    HW249758   1.918   2.249   9.663 -0.2330 -0.1103  0.0976
77256SOL     OW49759  13.296   6.419   9.189  0.1654 -0.1277 -0.4951
77256SOL    HW149760  13.347   6.393   9.266  1.8636 -0.3575 -1.6486
77256SOL    HW249761  13.303   6.344   9.130 -1.1108  0.0530 -0.8935
77257SOL     OW49762  13.320   5.855   8.542 -0.2016 -0.3961  0.4022
77257SOL    HW149763  13.285   5.850   8.452  2.3173  0.2826 -0.7012
77257SOL    HW249764  13.291   5.941   8.573  0.1580  0.0143 -0.3571
77258SOL     OW49765  10.794   9.411  12.442  0.2430  0.4386  0.1524
77258SOL    HW149766  10.744   9.413  12.360 -0.1083  0.1904  0.3589
77258SOL    HW249767  10.804   9.318  12.461 -0.6630  0.4952  0.9823
77259SOL     OW49768  11.814  10.506   1.688  0.1076  0.5220  0.4961
77259SOL    HW149769  11.844  10.493   1.599 -0.3697  0.9440  0.2681
77259SOL    HW249770  11.856  10.587   1.717  0.4760  0.2415  0.7514
77260SOL     OW49771   1.643   5.419   5.074  0.1370 -0.1122  0.1487
77260SOL    HW149772   1.690   5.416   4.990  0.4982 -1.2244  0.3707
77260SOL    HW249773   1.585   5.494   5.066 -0.5851 -0.7810 -1.5164
77261SOL     OW49774  11.656   8.254   9.429 -0.1298  0.1419  0.2643
77261SOL    HW149775  11.707   8.185   9.386 -0.0621  0.5631 -0.3395
77261SOL    HW249776  11.698   8.264   9.514 -0.6614 -1.1428  0.7028
77262SOL     OW49777  11.895  14.073   0.793  0.0815  0.2628  0.5506
77262SOL    HW149778  11.909  14.017   0.717 -1.5668  1.3114 -0.5779
77262SOL    HW249779  11.958  14.144   0.783 -0.4870  0.6728 -0.1140
77263SOL     OW49780   0.024   9.988  12.659  0.2018  0.7851  0.3004
77263SOL    HW149781  -0.068  10.010  12.670  0.1787  1.3216 -0.7713
77263SOL    HW249782   0.033   9.971  12.565  0.7704 -1.3183  0.6859
77264SOL     OW49783   6.654  10.433   9.028  0.1841  0.5184 -0.1168
77264SOL    HW149784   6.710  10.358   9.008 -0.0340  0.2976  0.1065
77264SOL    HW249785   6.602  10.406   9.103 -0.2747  0.6973 -0.3644
77265SOL     OW49786   2.985   0.315  11.617 -0.2236 -0.5741 -0.5439
77265SOL    HW149787   2.944   0.398  11.641 -0.1519 -0.7420  0.1990
77265SOL    HW249788   3.077   0.325  11.640 -0.1695 -0.7772 -0.6652
77266SOL     OW49789  12.587   2.054   4.247 -0.5666  0.3401 -0.3534
77266SOL    HW149790  12.533   2.125   4.213 -0.1857  1.1339  0.6516
77266SOL    HW249791  12.612   2.083   4.335  0.0832 -0.7748 -0.1566
77267SOL     OW49792   7.178  11.480   9.325  0.5473  0.1482  0.3432
77267SOL    HW149793   7.243  11.477   9.395  1.4465  1.0567 -0.4367
77267SOL    HW249794   7.149  11.571   9.322 -2.1726 -0.5456  1.8912
77268SOL     OW49795   7.701  12.797   6.273 -0.1305  0.4222 -0.4924
77268SOL    HW149796   7.675  12.878   6.317 -2.1969 -0.5095  0.1052
77268SOL    HW249797   7.796  12.805   6.263 -0.0565  2.1733  1.0283
77269SOL     OW49798   9.807   9.247   9.271 -0.2347 -0.2160  0.2620
77269SOL    HW149799   9.877   9.269   9.210  0.8458  1.3453  1.9578
77269SOL    HW249800   9.852   9.221   9.352 -1.5993 -2.9154  0.2755
77270SOL     OW49801   1.228   6.800   9.381 -0.0605 -0.1292 -0.5134
77270SOL    HW149802   1.187   6.833   9.461  1.7258 -0.4202  0.5717
77270SOL    HW249803   1.211   6.706   9.382  0.1989 -0.1755 -0.3183
77271SOL     OW49804  13.931   4.961  13.041 -0.5895  0.7398  0.1867
77271SOL    HW149805  13.986   4.958  12.963  0.1533  0.5118  0.7057
77271SOL    HW249806  13.961   5.038  13.089 -2.4016  2.0736 -0.6996
77272SOL     OW49807   9.627   9.504   5.862  0.0312 -0.3000  0.7905
77272SOL    HW149808   9.699   9.468   5.914 -0.5256 -1.2863  0.9131
77272SOL    HW249809   9.552   9.448   5.884 -0.4611 -0.0805 -0.2896
77273SOL     OW49810  12.172  14.106   7.098 -0.0925 -0.4188 -0.1973
77273SOL    HW149811  12.173  14.026   7.046  0.8572 -1.4556  1.3666
77273SOL    HW249812  12.231  14.165   7.051 -0.8912 -0.5483 -1.4261
77274SOL     OW49813  10.608   2.141   0.909  0.2345  0.1225  0.6539
77274SOL    HW149814  10.556   2.061   0.912  0.7926 -0.2610  0.2151
77274SOL    HW249815  10.556   2.202   0.855  1.5946 -1.2715 -2.4486
77275SOL     OW49816  13.741   8.069   1.294 -0.1613 -0.1629  0.5438
77275SOL    HW149817  13.806   8.064   1.364  0.4367  1.1994  0.1181
77275SOL    HW249818  13.659   8.046   1.337  0.2243  0.4196  1.6526
77276SOL     OW49819   4.715   0.016   9.471  0.0011 -0.1449  0.1816
77276SOL    HW149820   4.762   0.041   9.391 -0.6923  0.4177 -0.0682
77276SOL    HW249821   4.784   0.001   9.535  0.5344  0.6203 -0.1839
77277SOL     OW49822  10.962   8.482  10.875  0.2542 -0.2550  0.4937
77277SOL    HW149823  11.012   8.540  10.818 -0.1411 -0.2849  0.1021
77277SOL    HW249824  10.899   8.440  10.816  0.0510 -0.5290  0.8995
77278SOL     OW49825   0.234   2.541   2.440 -0.1064 -0.3758  0.3947
77278SOL    HW149826   0.212   2.631   2.464 -0.8649 -0.7217  1.0622
77278SOL    HW249827   0.192   2.528   2.355  0.6749  0.1397 -0.0856
77279SOL     OW49828  11.270   5.371   0.216 -0.7189 -0.5750  0.2407
77279SOL    HW149829  11.193   5.359   0.271 -0.2679  1.5148  1.4522
77279SOL    HW249830  11.319   5.442   0.258  2.4562 -2.4742  0.1392
77280SOL     OW49831  12.812   1.502  11.454  0.1516 -0.3750 -0.0796
77280SOL    HW149832  12.871   1.529  11.382 -1.2219  1.0044 -0.7513
77280SOL    HW249833  12.730   1.480  11.410 -0.8393  0.8696  1.0699
77281SOL     OW49834   3.356  11.727   5.544 -0.1927 -0.2060 -0.0371
77281SOL    HW149835   3.328  11.639   5.570 -0.5430  0.1702  0.9206
77281SOL    HW249836   3.398  11.763   5.623 -2.4013  1.4367  0.4880
77282SOL     OW49837  10.450   8.473  12.903  0.4385  0.0211  0.1533
77282SOL    HW149838  10.488   8.534  12.966  1.8603 -2.7334  2.1679
77282SOL    HW249839  10.516   8.463  12.835  0.8478 -0.3422  0.5983
77283SOL     OW49840   8.428  11.851   8.975 -0.1958  1.0057  0.1613
77283SOL    HW149841   8.431  11.932   9.026 -2.2229  2.7159 -2.1648
77283SOL    HW249842   8.344  11.854   8.930  1.3935 -0.2206 -3.3110
77284SOL     OW49843   9.913   9.168   4.515 -0.9700 -0.0490 -0.1108
77284SOL    HW149844   9.858   9.232   4.470 -1.2903 -1.3421 -1.6529
77284SOL    HW249845   9.996   9.214   4.530 -1.7527  1.2510  0.3652
77285SOL     OW49846   6.366   2.353  14.061 -0.5712 -0.1866 -0.2676
77285SOL    HW149847   6.278   2.350  14.024  0.0868 -0.1137 -1.9269
77285SOL    HW249848   6.399   2.440  14.037  0.6936 -0.9784 -1.5455
77286SOL     OW49849  12.790   4.422  10.053 -0.7063 -0.0217  0.1314
77286SOL    HW149850  12.697   4.407  10.071 -1.4187  2.1558 -1.3097
77286SOL    HW249851  12.809   4.507  10.092  0.9189 -0.7566  1.0392
77287SOL     OW49852   3.285   5.568  11.334  0.7305  0.2378  0.0285
77287SOL    HW149853   3.379   5.577  11.342  0.8924  0.7317 -1.9212
77287SOL    HW249854   3.272   5.516  11.254 -0.6068 -3.0809  2.1891
77288SOL     OW49855   7.905   0.022  12.686  0.2283  0.0605 -0.8975
77288SOL    HW149856   7.957  -0.059  12.684 -1.6281 -1.2528  0.2078
77288SOL    HW249857   7.966   0.091  12.660  1.6675 -1.7955 -2.7516
77289SOL     OW49858   6.200   9.590   5.906  0.1525  0.2160  0.7262
77289SOL    HW149859   6.205   9.496   5.890 -0.0265  0.4746 -1.0822
77289SOL    HW249860   6.146   9.623   5.834  0.5258  1.7483  1.1236
77290SOL     OW49861   4.946   7.902   6.006  0.5615  0.5526 -0.4767
77290SOL    HW149862   4.976   7.823   5.961  1.2162  0.1231  0.6624
77290SOL    HW249863   5.022   7.960   6.004  0.5530  0.5796 -0.0573
77291SOL     OW49864   0.414   6.871  13.288 -0.1837 -0.2306 -0.0216
77291SOL    HW149865   0.412   6.965  13.271  0.0566 -0.2369 -0.0892
77291SOL    HW249866   0.355   6.858  13.362  1.8104  0.3359  1.7619
77292SOL     OW49867  13.325   1.187  10.133 -0.3430 -0.4556  0.2763
77292SOL    HW149868  13.357   1.186  10.223 -0.6559 -1.2428  0.3845
77292SOL    HW249869  13.390   1.137  10.083 -0.2378 -0.1317  0.0838
77293SOL     OW49870   2.041   9.503   9.768 -0.6791 -0.1015 -0.1270
77293SOL    HW149871   1.951   9.521   9.739 -0.2378  0.5389 -1.1668
77293SOL    HW249872   2.081   9.590   9.775  0.1776 -0.4379 -0.7733
77294SOL     OW49873   8.003   8.243  13.036 -0.2428  0.0003 -0.6555
77294SOL    HW149874   7.942   8.279  12.971 -0.8451  3.7005  1.6868
77294SOL    HW249875   8.090   8.263  13.000 -0.4072 -1.6452 -2.1061
77295SOL     OW49876   8.670   4.332   2.493  0.3572 -0.4321 -0.2226
77295SOL    HW149877   8.674   4.238   2.476  0.1136 -0.2137 -1.6419
77295SOL    HW249878   8.720   4.371   2.421  2.5343  0.4349  1.6340
77296SOL     OW49879   3.371   6.290  13.960  0.1675  0.0020 -0.3287
77296SOL    HW149880   3.393   6.238  13.883 -1.4241 -0.8651 -0.2370
77296SOL    HW249881   3.411   6.375  13.943  0.9601 -0.5788 -1.5029
77297SOL     OW49882  10.901   1.389   6.750 -0.9537  0.0906  0.0754
77297SOL    HW149883  10.912   1.329   6.676 -0.4970  0.8329 -0.4684
77297SOL    HW249884  10.808   1.382   6.773 -1.3008  0.4955 -1.1330
77298SOL     OW49885  13.404  10.216   9.477  0.6913  0.1118  0.5264
77298SOL    HW149886  13.486  10.168   9.489 -0.1518 -2.1235 -1.7675
77298SOL    HW249887  13.424  10.282   9.411  0.6125 -0.7019 -0.3401
77299SOL     OW49888   7.017   8.947   7.967 -0.4933  0.0318 -0.3403
77299SOL    HW149889   7.071   8.973   7.893 -0.5034 -1.8288 -1.0553
77299SOL    HW249890   6.930   8.979   7.946 -0.7819 -1.5804 -1.8089
77300SOL     OW49891  13.007  13.532   0.289  0.2513  0.1169  0.2376
77300SOL    HW149892  12.967  13.446   0.281  1.0514 -0.2215 -0.3859
77300SOL    HW249893  12.983  13.563   0.376 -0.0000 -0.7646  0.4904
77301SOL     OW49894  10.604   6.624   1.606 -0.1258 -0.0791  0.1150
77301SOL    HW149895  10.589   6.712   1.641 -1.3030 -0.0933 -0.2991
77301SOL    HW249896  10.692   6.626   1.571  0.1626  0.6843  0.8514
77302SOL     OW49897   5.049   9.868   1.051 -0.5855  0.0161  0.1123
77302SOL    HW149898   5.085   9.956   1.051 -0.0704 -0.1734 -1.1036
77302SOL    HW249899   4.990   9.866   0.975 -1.0733 -0.4944  0.4984
77303SOL     OW49900   6.340   5.226   1.052  0.7864 -0.3098 -0.0944
77303SOL    HW149901   6.263   5.268   1.012  0.9678 -0.4682 -0.6218
77303SOL    HW249902   6.306   5.146   1.091  0.8907 -1.1059 -1.5437
77304SOL     OW49903   4.846   8.711   0.863 -0.1350  0.4451 -0.0734
77304SOL    HW149904   4.931   8.738   0.897  0.3034  0.8215 -1.4217
77304SOL    HW249905   4.847   8.737   0.771 -1.9378  1.0101  0.0246
77305SOL     OW49906  11.500   3.256   4.062  0.4744  0.1724  0.7980
77305SOL    HW149907  11.487   3.221   4.150  0.7797  2.3869  1.7863
77305SOL    HW249908  11.517   3.349   4.075  0.6779  0.5435 -1.6091
77306SOL     OW49909   6.947   1.049   5.028  0.5261  0.1282 -0.0060
77306SOL    HW149910   6.984   1.079   5.110 -0.6186 -2.8956  1.7901
77306SOL    HW249911   6.982   0.960   5.017 -2.9022 -1.3682 -0.2430
77307SOL     OW49912  11.072   7.453   7.813 -0.0134  0.7560  0.2669
77307SOL    HW149913  11.060   7.534   7.762 -2.4577  1.5143  1.8693
77307SOL    HW249914  11.074   7.483   7.904  2.1102 -0.7739  0.8022
77308SOL     OW49915   9.022   0.755   7.292  0.6263 -0.1726 -0.2952
77308SOL    HW149916   9.023   0.790   7.203 -2.2181  1.7530  0.3137
77308SOL    HW249917   8.937   0.712   7.300  1.7094 -2.2804  0.8672
77309SOL     OW49918   6.786  12.145   1.506  0.0093 -0.3902  1.0828
77309SOL    HW149919   6.736  12.065   1.491  0.9692 -0.6644 -1.1332
77309SOL    HW249920   6.845  12.151   1.430  1.7482  1.0854  2.4521
77310SOL     OW49921  13.310   3.720   8.300  0.8648 -0.3715  0.4499
77310SOL    HW149922  13.361   3.800   8.291 -1.8883  1.6914  1.7117
77310SOL    HW249923  13.235   3.745   8.355 -2.7958 -2.4398 -3.0422
77311SOL     OW49924  12.823   1.301   7.571  0.0795  0.1546  0.7711
77311SOL    HW149925  12.886   1.236   7.539  0.2033  0.4499  0.3968
77311SOL    HW249926  12.829   1.297   7.666  0.3418 -0.1316  0.7425
77312SOL     OW49927   1.404  13.172   1.765  0.1529  0.3928  0.0104
77312SOL    HW149928   1.337  13.107   1.786  1.2969 -0.4067  1.3471
77312SOL    HW249929   1.478  13.149   1.821  1.4725  1.3870 -1.2569
77313SOL     OW49930   0.336   2.867   0.013  0.2864  0.4008 -0.2680
77313SOL    HW149931   0.379   2.940   0.059 -1.4546  0.8379  0.7684
77313SOL    HW249932   0.243   2.878   0.033  0.0447 -2.8458  1.0185
77314SOL     OW49933   9.122  10.158  11.410 -0.1442  0.1284 -0.2778
77314SOL    HW149934   9.073  10.192  11.485 -0.7325 -0.8967 -0.1707
77314SOL    HW249935   9.200  10.213  11.404  0.4296 -0.4019  1.7091
77315SOL     OW49936  12.825   6.495   2.050 -0.5806  0.5958  0.0957
77315SOL    HW149937  12.769   6.533   2.118 -0.6064  0.4844  0.1368
77315SOL    HW249938  12.789   6.528   1.968 -1.6126 -0.6425  0.0286
77316SOL     OW49939   4.922   0.153   5.116 -0.0599  0.1379 -0.1606
77316SOL    HW149940   4.868   0.202   5.054 -0.0395  0.6800  0.2467
77316SOL    HW249941   4.875   0.159   5.199  0.7771  0.8787  0.2678
77317SOL     OW49942   9.329   1.897   0.615  0.0379 -0.1243 -0.2566
77317SOL    HW149943   9.406   1.877   0.562  1.2780  1.6415  0.7602
77317SOL    HW249944   9.364   1.915   0.702 -1.6569 -0.2754  0.4953
77318SOL     OW49945   0.398  13.632   8.111 -0.1833  0.4560 -0.1667
77318SOL    HW149946   0.417  13.724   8.094  1.5194  0.2372  0.2867
77318SOL    HW249947   0.481  13.587   8.094 -0.7925 -0.8989  0.2890
77319SOL     OW49948   4.160  12.741  13.297 -0.0294  0.6460  0.2262
77319SOL    HW149949   4.131  12.688  13.371  1.2399  1.2613  1.2095
77319SOL    HW249950   4.144  12.686  13.220  0.0030 -0.6270  1.0919
77320SOL     OW49951  11.026   9.415   4.806  0.3808  0.0520 -0.5744
77320SOL    HW149952  10.954   9.475   4.826 -0.1680 -0.7068 -0.2157
77320SOL    HW249953  11.048   9.433   4.715 -2.2759 -1.7183 -1.6804
77321SOL     OW49954   3.349   4.237   9.517 -0.2350  0.2832  0.3159
77321SOL    HW149955   3.434   4.245   9.560  0.0835 -0.7543 -0.1062
77321SOL    HW249956   3.341   4.144   9.497 -0.4756  0.6969 -1.6656
77322SOL     OW49957   6.841   1.128   6.341  0.3894  0.4001 -0.0586
77322SOL    HW149958   6.905   1.170   6.398  1.3106 -0.7924 -0.1862
77322SOL    HW249959   6.850   1.174   6.257  1.0636  0.2718 -0.0629
77323SOL     OW49960   5.447   4.926   3.819 -0.4007  0.5255 -0.1758
77323SOL    HW149961   5.450   4.894   3.729 -3.0369  0.6600 -0.3859
77323SOL    HW249962   5.509   4.999   3.820  0.4646 -0.1382 -1.5669
77324SOL     OW49963   7.483  11.351  12.683 -0.3274 -0.1866  0.6543
77324SOL    HW149964   7.401  11.333  12.727  0.2813 -1.0313  1.4757
77324SOL    HW249965   7.502  11.443  12.703 -0.3459 -0.4009  1.6745
77325SOL     OW49966  10.598   8.227   0.101  0.2272  0.1245  0.3304
77325SOL    HW149967  10.517   8.210   0.148 -0.1688  1.9334  0.3926
77325SOL    HW249968  10.624   8.315   0.129  1.0461  0.4444 -1.2976
77326SOL     OW49969   9.498   4.958   6.129 -0.6275 -0.6418 -0.5471
77326SOL    HW149970   9.534   4.975   6.216 -0.9272  0.9664 -0.6965
77326SOL    HW249971   9.564   4.991   6.068 -1.1162 -0.2403 -0.8765
77327SOL     OW49972   5.690  12.885   8.960 -0.1209 -0.3425 -0.4358
77327SOL    HW149973   5.759  12.940   8.923  1.4140 -0.9341  1.4404
77327SOL    HW249974   5.609  12.930   8.935  0.9750  1.2508 -1.3136
77328SOL     OW49975  13.078   7.050   6.018 -0.6652 -0.0214  0.3032
77328SOL    HW149976  13.072   7.125   5.959 -1.0007 -1.2004 -1.2316
77328SOL    HW249977  13.164   7.058   6.060 -0.0243  0.3719 -1.0511
77329SOL     OW49978   7.319   0.768   3.128 -0.1402  0.4118  0.3533
77329SOL    HW149979   7.367   0.777   3.045 -1.4035 -0.7932 -0.5453
77329SOL    HW249980   7.360   0.693   3.171 -1.9188 -1.4254 -0.9893
77330SOL     OW49981   2.851   3.768   5.831 -0.0026 -0.2863 -0.1865
77330SOL    HW149982   2.759   3.742   5.838 -0.5367  2.0257  3.9325
77330SOL    HW249983   2.898   3.700   5.878  0.1955 -0.3878 -0.5236
77331SOL     OW49984   9.122  13.669   9.225 -0.3224  0.3903 -0.2478
77331SOL    HW149985   9.047  13.715   9.264  0.1823  0.8219  0.2386
77331SOL    HW249986   9.143  13.721   9.147 -0.8800 -0.0617 -0.7136
77332SOL     OW49987   6.476  13.106   8.831  0.2876  0.7072 -0.3358
77332SOL    HW149988   6.519  13.170   8.773 -1.4112  0.6508 -1.7191
77332SOL    HW249989   6.521  13.024   8.813  0.7280  0.9805 -0.5145
77333SOL     OW49990  12.338   1.918   6.067 -0.0029 -0.3585  0.2904
77333SOL    HW149991  12.284   1.987   6.106  1.3287  0.0004  1.5996
77333SOL    HW249992  12.351   1.946   5.977  0.7347  1.2845  0.8661
77334SOL     OW49993   1.140   0.075   1.099 -0.9354  0.4011  0.0577
77334SOL    HW149994   1.117   0.027   1.019  1.2426  0.8666 -0.9428
77334SOL    HW249995   1.134   0.168   1.073  1.2329  0.5503 -0.1000
77335SOL     OW49996   6.913   7.977   9.941 -0.5351  0.6763  0.0999
77335SOL    HW149997   6.954   7.906   9.990  0.4294  1.1016 -0.0710
77335SOL    HW249998   6.951   7.971   9.854  1.0986  2.5824  0.5959
77336SOL     OW49999   5.023  12.486  10.239 -0.1500  0.1552 -0.1157
77336SOL    HW150000   5.042  12.564  10.186  1.1469 -0.7851 -1.1015
77336SOL    HW250001   5.039  12.412  10.180 -3.2151 -0.9046  0.1756
77337SOL     OW50002   3.378   5.310  11.624  0.2424  0.1262 -0.1969
77337SOL    HW150003   3.329   5.266  11.555  0.5022 -0.2825 -0.1233
77337SOL    HW250004   3.429   5.241  11.666  1.6151  0.6791 -0.8757
77338SOL     OW50005   7.998  10.372  11.352  0.1803  0.6112  0.4866
77338SOL    HW150006   7.981  10.281  11.379  2.9859  0.6438  2.9746
77338SOL    HW250007   8.071  10.365  11.290 -0.8340  1.0961 -0.7902
77339SOL     OW50008   9.851  10.596  12.272  0.1325 -0.2917  0.3742
77339SOL    HW150009   9.941  10.581  12.299  1.3289  1.4304 -2.2064
77339SOL    HW250010   9.823  10.675  12.319  1.3594  1.3156 -1.4408
77340SOL     OW50011   6.232  11.915   8.747  0.2896 -0.0551 -0.3265
77340SOL    HW150012   6.246  12.008   8.733  1.4264  0.1665  1.7558
77340SOL    HW250013   6.318  11.881   8.772 -0.6052 -1.0454  1.7385
77341SOL     OW50014   3.053  10.917   9.311  0.5349 -0.3961 -0.3539
77341SOL    HW150015   2.960  10.899   9.298  0.3433  1.6721 -2.2388
77341SOL    HW250016   3.098  10.861   9.247  0.4380  0.0550 -0.8235
77342SOL     OW50017   9.160   9.413   5.968 -0.4227  0.0319 -0.0925
77342SOL    HW150018   9.190   9.491   6.014  3.4818 -0.8082 -0.8378
77342SOL    HW250019   9.140   9.350   6.037  1.6513  0.0125  0.5415
77343SOL     OW50020   9.292  13.691   0.596 -0.2955  0.3220 -0.4235
77343SOL    HW150021   9.311  13.784   0.606  0.9762 -0.1012  1.7432
77343SOL    HW250022   9.376  13.653   0.569 -0.6170 -0.2830 -0.5694
77344SOL     OW50023   8.286  13.126   8.896 -0.1234 -0.2093 -0.1437
77344SOL    HW150024   8.247  13.043   8.871  0.7322 -1.0137  1.1099
77344SOL    HW250025   8.377  13.120   8.866 -0.3696  0.8303 -1.2135
77345SOL     OW50026   9.908   4.683   1.701 -0.5186 -0.1919 -0.4620
77345SOL    HW150027   9.990   4.719   1.667  0.5336 -1.1099  0.9807
77345SOL    HW250028   9.865   4.645   1.625  0.1131  0.8231 -1.3482
77346SOL     OW50029   9.147   2.816   9.352 -0.5305  0.0098 -0.9634
77346SOL    HW150030   9.089   2.756   9.400 -3.1739  2.2570 -1.0614
77346SOL    HW250031   9.097   2.839   9.274 -0.2402  3.2175 -0.3165
77347SOL     OW50032   5.467   9.085   1.870 -0.4911  0.1894 -0.8584
77347SOL    HW150033   5.417   9.165   1.852 -1.1220 -0.1571 -0.6621
77347SOL    HW250034   5.459   9.033   1.790  0.1944  0.4531 -1.1111
77348SOL     OW50035   1.702   5.754   3.997  0.2516  0.3038 -0.3936
77348SOL    HW150036   1.620   5.793   3.968  0.1486  1.2844  1.0939
77348SOL    HW250037   1.737   5.817   4.060  2.0997 -0.1454 -0.9199
77349SOL     OW50038  13.631   3.549  11.901 -0.3883  0.2080 -0.0324
77349SOL    HW150039  13.692   3.603  11.850 -0.1626  0.5992  0.6408
77349SOL    HW250040  13.641   3.461  11.864 -0.2089  0.4780 -0.6415
77350SOL     OW50041   8.697  12.872  13.915 -0.4499  0.3970 -0.0205
77350SOL    HW150042   8.751  12.820  13.855 -0.2361  0.4479  0.1281
77350SOL    HW250043   8.613  12.882  13.869  0.4837  2.5307 -1.4170
77351SOL     OW50044   5.679   8.642   5.656 -0.4949  0.3476  0.1470
77351SOL    HW150045   5.719   8.656   5.742 -1.1017  1.5335  0.2606
77351SOL    HW250046   5.602   8.588   5.674 -0.5227  0.4452  0.3198
77352SOL     OW50047   1.746   8.147   9.622  0.3396 -0.8338 -0.0491
77352SOL    HW150048   1.696   8.122   9.699  1.1160 -2.2634  0.0257
77352SOL    HW250049   1.821   8.197   9.656 -0.6669  0.7990 -0.1171
77353SOL     OW50050  12.552   1.685   4.031  0.7100 -0.0282 -0.8407
77353SOL    HW150051  12.500   1.606   4.038  0.5682 -0.0118 -1.6045
77353SOL    HW250052  12.536   1.732   4.112 -0.4044 -0.0642 -1.0243
77354SOL     OW50053  10.200   2.290   3.307  0.1207  0.1072 -0.5549
77354SOL    HW150054  10.257   2.286   3.384 -0.1441  0.5537 -0.3371
77354SOL    HW250055  10.257   2.323   3.237 -0.3154  2.4352  0.1067
77355SOL     OW50056   4.853   8.557   3.328 -0.3681  0.0240  0.0591
77355SOL    HW150057   4.885   8.498   3.396 -1.9071  0.9659  1.7069
77355SOL    HW250058   4.931   8.606   3.301  0.1681  0.2013  1.7797
77356SOL     OW50059   5.737  12.930   9.376 -0.1688 -0.7036  0.1588
77356SOL    HW150060   5.721  13.012   9.330  0.3362 -0.6804  0.0131
77356SOL    HW250061   5.705  12.945   9.465 -0.7417 -0.5983 -0.0640
77357SOL     OW50062   3.353   0.967   0.228 -0.3386  0.3082  0.0024
77357SOL    HW150063   3.444   0.942   0.242  0.3466  1.0932 -2.5299
77357SOL    HW250064   3.303   0.904   0.281  1.6150 -0.6606  0.8151
77358SOL     OW50065   6.703  13.739  12.671 -0.1471  0.1576 -0.0973
77358SOL    HW150066   6.750  13.817  12.702 -1.4976  0.4920  1.2469
77358SOL    HW250067   6.610  13.760  12.685 -0.7044 -0.7168 -2.1012
77359SOL     OW50068  12.007  11.406   8.212  0.0261 -0.1408 -0.0017
77359SOL    HW150069  11.972  11.493   8.192  3.0323  0.8974 -1.2582
77359SOL    HW250070  12.033  11.371   8.127  1.1763 -1.1933  0.7583
77360SOL     OW50071  12.174  11.954   2.994 -0.0337  0.2026  0.6197
77360SOL    HW150072  12.206  12.037   3.029 -1.2982  1.3103 -0.6825
77360SOL    HW250073  12.080  11.967   2.985  0.0741 -0.2370 -2.3229
77361SOL     OW50074  11.332   0.829   6.120  0.0314 -0.4776 -0.5048
77361SOL    HW150075  11.347   0.923   6.107  2.1354 -0.6948  0.0275
77361SOL    HW250076  11.268   0.806   6.053 -0.5664  1.3433 -0.6075
77362SOL     OW50077   1.998  10.252   8.068 -0.1504  0.3184  0.1151
77362SOL    HW150078   1.971  10.261   8.160 -0.7928  1.5480 -0.1730
77362SOL    HW250079   2.003  10.342   8.036  1.2565 -0.0365 -0.7398
77363SOL     OW50080   1.480   8.178  12.321  1.0739  0.0953 -0.3682
77363SOL    HW150081   1.446   8.089  12.305 -0.5239  0.6693 -0.3073
77363SOL    HW250082   1.481   8.187  12.416  0.0262  0.5660 -0.3877
77364SOL     OW50083   2.047  11.332  13.930  0.5340  0.8186 -0.4410
77364SOL    HW150084   2.058  11.384  13.850  0.5061  0.3843 -0.7300
77364SOL    HW250085   2.136  11.311  13.957  0.5219  0.1959 -0.8700
77365SOL     OW50086   5.315   5.720  13.519  0.2183  0.2920  0.5592
77365SOL    HW150087   5.237   5.767  13.488 -0.2682  0.8840  2.5569
77365SOL    HW250088   5.354   5.684  13.439 -3.5501 -2.3427 -0.3681
77366SOL     OW50089   6.646   5.203  12.439  0.0556 -0.2705 -0.3086
77366SOL    HW150090   6.675   5.176  12.352 -2.3878  1.2257 -1.7175
77366SOL    HW250091   6.706   5.273  12.464  1.6881 -1.6983 -0.0470
77367SOL     OW50092  11.128  12.490   3.111 -0.6039  0.2227  0.0368
77367SOL    HW150093  11.128  12.398   3.082  1.5376  0.3808 -0.6665
77367SOL    HW250094  11.140  12.485   3.205 -2.8698 -0.2188  0.3562
77368SOL     OW50095   0.474   0.959   3.622 -0.1054 -0.1681 -0.3026
77368SOL    HW150096   0.417   1.008   3.681  2.4878  1.8104  0.7598
77368SOL    HW250097   0.538   0.916   3.679 -0.3764 -2.2327 -1.4407
77369SOL     OW50098  11.152   0.422   0.280  0.2672 -0.1836 -0.6046
77369SOL    HW150099  11.123   0.455   0.365 -0.9848 -0.5277 -0.8792
77369SOL    HW250100  11.206   0.345   0.301 -2.2150 -1.9182 -0.1450
77370SOL     OW50101   5.325   9.941   9.232 -0.5424  0.1376  0.1877
77370SOL    HW150102   5.339   9.897   9.148 -0.2962  0.8277 -0.1404
77370SOL    HW250103   5.389   9.901   9.291 -1.0324 -0.6830  0.1809
77371SOL     OW50104   0.186   1.964  11.354 -0.1680 -0.2070 -0.2659
77371SOL    HW150105   0.153   1.889  11.403  1.0913 -0.6266 -0.0024
77371SOL    HW250106   0.194   1.932  11.264 -1.2701  0.1639 -0.5044
77372SOL     OW50107   9.849  10.229  13.241  0.0145 -0.4360  0.0943
77372SOL    HW150108   9.802  10.291  13.185 -0.2183 -0.8906 -0.2209
77372SOL    HW250109   9.782  10.197  13.302 -0.0862 -1.0367 -0.3160
77373SOL     OW50110   0.789   1.249   2.015  0.1067 -0.1913 -0.3052
77373SOL    HW150111   0.788   1.344   2.027 -0.0429 -0.3053  0.6499
77373SOL    HW250112   0.864   1.219   2.066  0.2575 -0.5736 -0.7452
77374SOL     OW50113   4.310   7.488   7.425 -0.0415  0.0472  0.7275
77374SOL    HW150114   4.285   7.574   7.458  0.3794  0.9085 -1.0537
77374SOL    HW250115   4.229   7.451   7.390 -0.3140 -0.5030  1.8903
77375SOL     OW50116   2.716   5.388  10.986  0.0551 -0.0567  0.0720
77375SOL    HW150117   2.720   5.371  11.080 -0.0653  0.5337  0.1894
77375SOL    HW250118   2.808   5.386  10.958  0.1170  0.0564  0.2599
77376SOL     OW50119  11.536  12.253   5.997  0.1275 -0.2203  0.3581
77376SOL    HW150120  11.529  12.303   5.916 -0.6779 -0.6435  0.1496
77376SOL    HW250121  11.462  12.192   5.994  0.6803 -0.9489  0.9294
77377SOL     OW50122  11.704  12.477  11.895  0.5848 -0.2454  0.4533
77377SOL    HW150123  11.664  12.555  11.933 -0.5004 -0.4074 -0.3048
77377SOL    HW250124  11.725  12.502  11.805  0.1730 -0.8321  0.1854
77378SOL     OW50125   1.223   2.928  10.897 -0.3684 -0.6283 -0.4035
77378SOL    HW150126   1.219   3.021  10.920 -1.3729 -0.8593  0.4060
77378SOL    HW250127   1.309   2.899  10.929  0.6356  0.3451 -2.0469
77379SOL     OW50128   9.369  11.654   0.059 -0.5672 -0.1606 -0.0522
77379SOL    HW150129   9.457  11.617   0.072 -1.0710 -1.1266  0.7045
77379SOL    HW250130   9.362  11.665  -0.036 -0.6894 -2.8454 -0.4339
77380SOL     OW50131   6.819  11.052   4.581 -0.1609 -0.2553 -0.1413
77380SOL    HW150132   6.893  11.000   4.612  0.5380  0.7381 -0.1002
77380SOL    HW250133   6.848  11.086   4.496 -0.2844  0.6903  0.1804
77381SOL     OW50134  12.545  11.210   4.568  0.3137 -0.0032 -0.0016
77381SOL    HW150135  12.560  11.123   4.532 -0.2222 -0.1510  0.1195
77381SOL    HW250136  12.629  11.234   4.607  0.4016 -0.5578  0.1650
77382SOL     OW50137   9.366  11.035   6.270 -0.3813 -0.3802 -0.0817
77382SOL    HW150138   9.394  10.976   6.339  0.2741 -1.3042 -1.1131
77382SOL    HW250139   9.275  11.009   6.251 -0.3249 -0.5957 -0.0546
77383SOL     OW50140   7.428  11.707   0.541 -0.0373  0.1666 -0.2102
77383SOL    HW150141   7.343  11.699   0.585  0.7420 -1.8947  1.0612
77383SOL    HW250142   7.415  11.665   0.456 -0.6286  1.0626 -0.5773
77384SOL     OW50143   1.539   7.239  10.108 -0.5116  0.1651  0.0912
77384SOL    HW150144   1.621   7.277  10.140 -0.8774  1.1140 -0.0754
77384SOL    HW250145   1.499   7.199  10.185  0.0927 -0.2665  0.1794
77385SOL     OW50146   4.702   1.876   7.454 -0.2938  0.1005  0.6235
77385SOL    HW150147   4.620   1.911   7.487 -1.7231 -2.1110 -0.3565
77385SOL    HW250148   4.693   1.877   7.359  1.3790  1.0091  0.4345
77386SOL     OW50149   6.097  12.911  12.945  0.0747  0.6585  0.2078
77386SOL    HW150150   6.060  12.986  12.898  1.0450  2.6259  2.3856
77386SOL    HW250151   6.190  12.913  12.925 -0.0607 -0.8596 -0.7785
77387SOL     OW50152   2.515  11.400   3.236  0.4515 -0.5592  0.0286
77387SOL    HW150153   2.507  11.496   3.233  2.6900 -0.2781  1.0243
77387SOL    HW250154   2.431  11.370   3.269  0.4987  1.2817  2.0498
77388SOL     OW50155   0.922   9.043   9.173 -0.2412  0.1358 -0.2438
77388SOL    HW150156   0.827   9.036   9.187 -0.1170 -0.2499  0.4450
77388SOL    HW250157   0.933   9.039   9.078 -0.8093 -1.1602 -0.2720
77389SOL     OW50158   9.061  10.092   0.451 -0.0962  0.2172 -0.5311
77389SOL    HW150159   9.023  10.057   0.532 -0.2884 -1.9948 -1.5182
77389SOL    HW250160   9.134  10.146   0.481  0.2939 -1.1304  1.1341
77390SOL     OW50161  13.063   5.807  14.025 -0.4633  0.5522  0.5306
77390SOL    HW150162  13.009   5.886  14.026 -1.0338  0.2186  3.4972
77390SOL    HW250163  13.147   5.835  14.060 -0.1293  0.1620  0.0543
77391SOL     OW50164   4.957  12.241  12.407  0.1204 -0.3120 -0.2974
77391SOL    HW150165   5.041  12.252  12.453 -1.2846 -0.2657  2.4744
77391SOL    HW250166   4.917  12.328  12.409 -0.4290 -0.5529 -0.7263
77392SOL     OW50167   3.312   1.631   4.755 -0.3755 -0.0255  0.0038
77392SOL    HW150168   3.252   1.689   4.707 -1.6061  0.4828  2.0466
77392SOL    HW250169   3.393   1.682   4.763 -0.8387  0.6965  0.1983
77393SOL     OW50170   8.816   2.381   3.341  0.2850 -0.2546  0.3202
77393SOL    HW150171   8.786   2.300   3.299  1.7239 -0.4026 -0.4480
77393SOL    HW250172   8.903   2.397   3.305 -0.2373  2.0354 -0.0769
77394SOL     OW50173   5.313   6.712   7.044 -0.7195 -0.1263 -0.4523
77394SOL    HW150174   5.408   6.722   7.041 -0.6238 -1.0054 -2.8092
77394SOL    HW250175   5.286   6.713   6.952 -2.7625 -1.8321  0.0348
77395SOL     OW50176  11.702   2.267   3.629  0.4893  0.1172 -0.5989
77395SOL    HW150177  11.717   2.336   3.694  0.1571 -0.7556  0.4368
77395SOL    HW250178  11.686   2.314   3.547  2.2186  1.2199 -0.3526
77396SOL     OW50179   5.287  13.011  10.930 -0.1816  0.0440 -0.1938
77396SOL    HW150180   5.365  12.956  10.939 -0.4450 -0.1222  1.2812
77396SOL    HW250181   5.317  13.100  10.948  0.0045  0.2601 -1.4269
77397SOL     OW50182   3.745   0.053   6.359 -0.6038  0.4364 -0.0458
77397SOL    HW150183   3.726  -0.031   6.401  2.5362 -0.1366  0.4636
77397SOL    HW250184   3.711   0.043   6.270 -1.2121 -0.9572  0.3012
77398SOL     OW50185  12.890   6.031   8.100 -0.2510 -0.1115 -0.3968
77398SOL    HW150186  12.872   6.027   8.006  0.1211 -0.4878 -0.4587
77398SOL    HW250187  12.809   5.999   8.141 -0.3804 -0.0399 -0.5929
77399SOL     OW50188  12.205   1.159  11.015 -0.1406  0.1729  0.0078
77399SOL    HW150189  12.277   1.115  10.970  0.3461 -0.0811  1.0201
77399SOL    HW250190  12.133   1.095  11.011 -1.5815  1.6948 -4.0966
77400SOL     OW50191  11.710   1.656   7.569 -0.1582  0.1946 -0.7127
77400SOL    HW150192  11.788   1.692   7.527  0.6742  1.5984  1.8055
77400SOL    HW250193  11.644   1.724   7.559  0.2686  0.8756  0.7543
77401SOL     OW50194   7.530   4.619  10.168 -0.6072 -0.1784  0.3792
77401SOL    HW150195   7.498   4.590  10.253 -0.2814 -0.8683  0.2703
77401SOL    HW250196   7.489   4.561  10.105 -1.1237  0.5571  0.0268
77402SOL     OW50197   1.584   5.372   2.806  0.1674 -0.7319  0.0392
77402SOL    HW150198   1.675   5.359   2.779  0.5714 -1.4044  1.6037
77402SOL    HW250199   1.589   5.424   2.886 -0.6969 -1.9742  0.9544
77403SOL     OW50200   8.894  13.848  10.013 -1.0609  0.3067 -0.5828
77403SOL    HW150201   8.973  13.855  10.067 -1.6308  1.5083  0.1128
77403SOL    HW250202   8.879  13.937   9.980 -1.7674 -0.0455 -1.2450
77404SOL     OW50203  10.317   0.189  14.007  0.0339  0.1123  0.0075
77404SOL    HW150204  10.405   0.159  13.982  0.4532  1.2350  0.0935
77404SOL    HW250205  10.259   0.151  13.941  0.6423 -0.2238 -0.3437
77405SOL     OW50206   5.013  12.540   6.045 -0.1506 -0.3803  0.0709
77405SOL    HW150207   5.035  12.582   5.962 -0.3353 -2.3828 -1.0484
77405SOL    HW250208   4.996  12.613   6.105 -0.2978  1.1166 -1.7050
77406SOL     OW50209  12.878  13.027   7.367  0.4657 -0.9931 -0.3208
77406SOL    HW150210  12.892  13.025   7.272 -1.0596 -0.0492 -0.6006
77406SOL    HW250211  12.930  13.101   7.397  0.3314 -0.8140 -0.5316
77407SOL     OW50212   3.977  13.648  11.837  0.1807  0.1366  0.0288
77407SOL    HW150213   4.035  13.574  11.854  0.5361  0.3153 -0.3748
77407SOL    HW250214   3.932  13.624  11.756 -1.6102 -0.7781  1.2420
77408SOL     OW50215   7.112   3.255  12.445 -0.5386  0.6405 -0.5245
77408SOL    HW150216   7.056   3.330  12.425 -0.9180  0.4543 -0.1599
77408SOL    HW250217   7.141   3.271  12.535  1.7772  1.8768 -1.3964
77409SOL     OW50218  14.104  11.303   2.769 -0.6529 -0.2245  0.3546
77409SOL    HW150219  14.056  11.351   2.702 -0.3240  0.4804  0.6182
77409SOL    HW250220  14.185  11.353   2.782  0.5673 -1.8376 -0.6781
77410SOL     OW50221   5.511  10.323   8.091  0.3894  0.4861  0.0070
77410SOL    HW150222   5.562  10.392   8.133 -0.2418  2.1868 -1.8736
77410SOL    HW250223   5.422  10.335   8.124  0.2546  0.6610 -0.4161
77411SOL     OW50224   5.567   4.955  13.013 -0.3605  0.0330  0.1577
77411SOL    HW150225   5.630   5.024  13.036 -0.0200  1.1163 -3.4617
77411SOL    HW250226   5.485   4.983  13.052  0.1920  1.5093  0.3194
77412SOL     OW50227   5.052   8.895  13.293 -0.2056  0.1610 -0.4335
77412SOL    HW150228   5.138   8.888  13.251  0.0275 -2.5134  0.3235
77412SOL    HW250229   5.001   8.823  13.256 -0.7921 -0.7421  1.9741
77413SOL     OW50230  10.956   3.841   5.147 -0.5477  0.2056 -0.4775
77413SOL    HW150231  10.886   3.882   5.097 -0.3105  1.3378  0.0739
77413SOL    HW250232  11.011   3.914   5.176  0.8632 -0.6412 -0.8952
77414SOL     OW50233   6.674  11.786   6.460 -0.6926  0.1163 -0.0364
77414SOL    HW150234   6.683  11.881   6.455  1.3708 -0.0524 -0.3281
77414SOL    HW250235   6.699  11.765   6.550  1.3332 -0.3195 -0.6477
77415SOL     OW50236   0.057   7.231  10.680  0.0309  0.4386  0.3869
77415SOL    HW150237   0.060   7.262  10.589  1.9319  0.6198  0.4641
77415SOL    HW250238   0.096   7.302  10.731  2.2801 -1.0180  0.8621
77416SOL     OW50239   7.556  12.306  10.196 -0.3840 -0.3625 -0.2140
77416SOL    HW150240   7.555  12.282  10.103 -3.1001 -0.5897 -0.2207
77416SOL    HW250241   7.648  12.303  10.221  0.2596 -2.1349 -2.4390
77417SOL     OW50242   9.565   4.874   4.708 -0.0680 -0.2183 -0.1862
77417SOL    HW150243   9.563   4.968   4.691  0.9641  0.0594  1.0801
77417SOL    HW250244   9.492   4.839   4.657 -1.4561  1.4730  0.5363
77418SOL     OW50245  12.851   3.834   1.138 -0.3377 -0.1304  0.3549
77418SOL    HW150246  12.933   3.812   1.094 -0.7978  0.9555 -1.1332
77418SOL    HW250247  12.809   3.898   1.080 -1.4171  0.6747  1.9356
77419SOL     OW50248   8.810  11.601   8.167  0.0268  0.1707  0.1819
77419SOL    HW150249   8.745  11.602   8.237 -0.0641  1.0455  0.0939
77419SOL    HW250250   8.789  11.678   8.113  0.5284 -0.0893 -0.4050
77420SOL     OW50251   3.394   3.266  12.873 -0.5883 -0.4364 -0.0580
77420SOL    HW150252   3.458   3.299  12.810  0.3104  1.9967  1.9429
77420SOL    HW250253   3.333   3.339  12.885 -1.8886 -1.5629  0.4460
77421SOL     OW50254   8.806   9.993   9.994 -0.5714 -0.3266 -0.1772
77421SOL    HW150255   8.866   9.922  10.014 -0.6360 -0.7208 -1.2911
77421SOL    HW250256   8.822  10.059  10.062 -0.6828 -1.4893  1.0127
77422SOL     OW50257  11.395   7.392   7.752 -0.9522  0.1936  0.0250
77422SOL    HW150258  11.327   7.331   7.721 -0.4994 -0.5915  0.5403
77422SOL    HW250259  11.368   7.413   7.842 -1.3610  1.1385 -0.3124
77423SOL     OW50260  12.027  13.631   4.494  0.0375 -0.0200 -0.0039
77423SOL    HW150261  12.003  13.559   4.551 -0.6565  1.4254  1.6188
77423SOL    HW250262  11.987  13.708   4.534 -0.0127  1.1581 -2.1503
77424SOL     OW50263   5.203   0.566  13.880  0.3811  0.4612 -0.1357
77424SOL    HW150264   5.171   0.487  13.925 -0.9911  0.1255 -1.6240
77424SOL    HW250265   5.259   0.532  13.811 -1.2144  0.6679 -1.5907
77425SOL     OW50266   3.526   9.861   7.569 -0.5719 -0.3700 -0.4898
77425SOL    HW150267   3.461   9.792   7.575 -1.5689  0.6637  2.0965
77425SOL    HW250268   3.595   9.835   7.631 -0.6478  0.6123  0.0313
77426SOL     OW50269   5.358   0.261   8.037 -0.4210  0.3420 -0.8687
77426SOL    HW150270   5.286   0.214   8.079 -1.2389 -0.1568 -2.7603
77426SOL    HW250271   5.326   0.351   8.028  0.4026  0.8819  0.9859
77427SOL     OW50272   5.033   0.448  12.256 -0.0160 -0.0270 -0.2497
77427SOL    HW150273   4.988   0.400  12.325  0.3666  0.0496  0.0555
77427SOL    HW250274   5.000   0.537  12.262  1.5138  0.5016  1.1975
77428SOL     OW50275  12.589   7.738   6.342  0.1966 -0.3234  0.1714
77428SOL    HW150276  12.545   7.823   6.332  0.0308 -0.6343 -2.3140
77428SOL    HW250277  12.681   7.756   6.327  0.4492 -0.3138  1.5682
77429SOL     OW50278   6.875   0.210   1.723 -0.0656  0.2043  0.1724
77429SOL    HW150279   6.917   0.288   1.688 -0.8615  0.2350 -0.7609
77429SOL    HW250280   6.944   0.164   1.771  0.8152  0.6527 -0.6540
77430SOL     OW50281   8.794  11.603   2.363 -0.1110  0.4359 -0.2647
77430SOL    HW150282   8.735  11.605   2.438 -1.1631 -1.4279 -0.9958
77430SOL    HW250283   8.836  11.517   2.367  0.3204  0.5749 -1.4265
77431SOL     OW50284   4.633  13.512  10.449  0.0431 -0.6739  0.0223
77431SOL    HW150285   4.622  13.417  10.443  0.6896 -0.8080  0.8413
77431SOL    HW250286   4.716  13.529  10.405  0.5278 -0.6407  0.9344
77432SOL     OW50287  10.293   8.590   1.441  0.0184 -0.1032 -0.3046
77432SOL    HW150288  10.248   8.650   1.500  0.4134  0.3714 -0.4798
77432SOL    HW250289  10.364   8.553   1.493 -0.3240 -0.5542 -0.1467
77433SOL     OW50290   0.190   2.011  12.159 -0.1249 -0.1222  0.4153
77433SOL    HW150291   0.197   1.922  12.124 -0.1562 -1.2688  3.0516
77433SOL    HW250292   0.097   2.033  12.149  0.0137 -0.0329 -0.9195
77434SOL     OW50293  13.676  11.130  12.721 -0.6902 -0.0398  0.3378
77434SOL    HW150294  13.620  11.154  12.795 -0.8683  0.8411 -0.0666
77434SOL    HW250295  13.639  11.178  12.647 -0.7898 -1.2599 -0.4338
77435SOL     OW50296   7.724   7.366  11.881 -0.4621  0.5838 -0.2602
77435SOL    HW150297   7.665   7.384  11.955  1.1206  2.4572  0.6391
77435SOL    HW250298   7.665   7.342  11.810 -2.1646  0.2142  1.1818
77436SOL     OW50299   5.817  10.729   8.422  0.3081 -0.5119 -0.0801
77436SOL    HW150300   5.792  10.820   8.438  0.9135 -0.0191 -1.7043
77436SOL    HW250301   5.736  10.680   8.438  0.2057  0.1810  1.6937
77437SOL     OW50302   1.929   4.409  10.797  0.0228  0.4605 -0.2967
77437SOL    HW150303   1.991   4.455  10.741  0.5953 -1.9350 -1.7742
77437SOL    HW250304   1.849   4.402  10.744 -0.3764  0.5730  0.2782
77438SOL     OW50305   3.159   9.709  13.265 -0.3891 -0.4602  0.4868
77438SOL    HW150306   3.231   9.683  13.208 -0.5291  0.3438 -0.0748
77438SOL    HW250307   3.192   9.785  13.313 -0.2452 -1.1719  1.5520
77439SOL     OW50308   5.287   5.348   4.327 -0.1363  0.0128  0.0726
77439SOL    HW150309   5.338   5.427   4.311  1.2623 -0.8153  0.2814
77439SOL    HW250310   5.353   5.279   4.338 -1.3172 -1.1683 -0.0436
77440SOL     OW50311   7.801   9.969   0.124  0.2555  0.0625  0.0266
77440SOL    HW150312   7.861  10.043   0.119  0.4710 -0.1567 -0.9388
77440SOL    HW250313   7.788   9.943   0.032 -1.5448  0.2984  0.1775
77441SOL     OW50314   0.048   9.052  13.896 -0.6389 -0.0189 -0.2894
77441SOL    HW150315   0.113   9.112  13.932 -0.7774 -0.4763  0.7845
77441SOL    HW250316   0.045   9.072  13.803  0.9399  0.1082 -0.3423
77442SOL     OW50317   9.756   0.782  11.966  0.3181 -0.2715 -0.0751
77442SOL    HW150318   9.748   0.749  12.056  1.3963  0.0255  0.1433
77442SOL    HW250319   9.811   0.860  11.974 -1.0010  0.7596 -0.7788
77443SOL     OW50320  10.359   1.260   9.503  0.1833  0.4211 -0.8636
77443SOL    HW150321  10.357   1.165   9.494  0.9516  0.3032  0.0036
77443SOL    HW250322  10.285   1.291   9.451 -3.1109 -0.9494  2.5709
77444SOL     OW50323   2.090   0.109  12.310 -0.2419  0.4808 -0.0597
77444SOL    HW150324   2.173   0.089  12.353 -0.3687  0.2551  0.0823
77444SOL    HW250325   2.023   0.081  12.373 -0.4426 -0.5171 -0.6868
77445SOL     OW50326   5.237   5.034  11.638  0.9264  0.0183 -0.0856
77445SOL    HW150327   5.262   5.103  11.577  0.8706 -0.8920 -1.1623
77445SOL    HW250328   5.195   4.967  11.584  0.9823 -0.8713  0.9313
77446SOL     OW50329  12.929   3.486  13.949  0.0907  0.2459 -0.4995
77446SOL    HW150330  12.957   3.540  14.023 -0.6029 -0.3112  0.1971
77446SOL    HW250331  12.856   3.434  13.984  0.8911 -1.3292 -1.0540
77447SOL     OW50332  13.375  12.926   1.561 -0.2483 -0.0637 -0.0899
77447SOL    HW150333  13.344  12.934   1.470  0.4369  0.9846 -0.2476
77447SOL    HW250334  13.469  12.910   1.553 -0.2017 -0.0544  0.4279
77448SOL     OW50335   8.810   3.447   1.591 -0.4572 -0.0363  0.1354
77448SOL    HW150336   8.782   3.392   1.517  1.5674 -0.7244 -0.1937
77448SOL    HW250337   8.734   3.451   1.648 -1.4713 -1.0877 -1.0780
77449SOL     OW50338   9.667   3.771   4.445 -0.4485 -0.0776 -0.1203
77449SOL    HW150339   9.627   3.824   4.514  0.7653 -0.3215  0.8054
77449SOL    HW250340   9.761   3.776   4.462 -0.0064  0.7695 -2.4239
77450SOL     OW50341   5.605   4.565  10.077 -0.1807 -0.2556  0.3133
77450SOL    HW150342   5.599   4.634  10.143  1.7424 -1.8456  2.2865
77450SOL    HW250343   5.569   4.605   9.998  1.7380  3.3660  1.0318
77451SOL     OW50344  10.550  14.079   4.812  0.0641  0.4132  0.1459
77451SOL    HW150345  10.568  14.016   4.882  0.2966 -0.2589 -0.4958
77451SOL    HW250346  10.630  14.081   4.760 -0.6130 -0.2862 -0.9848
77452SOL     OW50347   8.968  11.229   6.035  0.3771 -0.1581 -0.4657
77452SOL    HW150348   9.061  11.214   6.017  0.7127  1.3446 -0.1206
77452SOL    HW250349   8.952  11.318   6.005 -0.8486 -0.2367 -0.0912
77453SOL     OW50350  12.750   5.933   7.383  0.6991  0.2374 -0.1454
77453SOL    HW150351  12.811   5.917   7.311  0.2187  0.0373 -0.5150
77453SOL    HW250352  12.666   5.903   7.350  0.0869  1.9555 -0.2223
77454SOL     OW50353   7.780   2.788  12.389  0.0446  0.0845  0.5568
77454SOL    HW150354   7.700   2.766  12.437 -1.7293  1.7906 -1.4622
77454SOL    HW250355   7.773   2.882  12.372  2.0764  0.1103 -0.4434
77455SOL     OW50356  10.996   3.103  10.470  0.0607 -0.1472  0.9437
77455SOL    HW150357  10.913   3.060  10.452 -0.7243  0.5335  2.6914
77455SOL    HW250358  11.024   3.067  10.555  0.7351  0.8019  1.1400
77456SOL     OW50359  11.704   8.589   8.823 -0.1649 -0.0138  0.3492
77456SOL    HW150360  11.670   8.559   8.739  0.1158  0.6243  0.0066
77456SOL    HW250361  11.647   8.662   8.848  0.0048  0.0646  0.5119
77457SOL     OW50362  14.135  13.990   2.927 -0.4223  0.5294 -0.6500
77457SOL    HW150363  14.146  13.912   2.982 -3.7242 -1.2133 -2.1802
77457SOL    HW250364  14.142  14.064   2.988 -0.4618 -1.1380  1.4759
77458SOL     OW50365   5.732  11.452   8.960 -0.4454 -0.0598 -0.1228
77458SOL    HW150366   5.826  11.467   8.944 -0.2754 -1.5304 -0.6064
77458SOL    HW250367   5.691  11.465   8.875 -0.7126  0.6502  0.1025
77459SOL     OW50368   8.094  13.262   2.671 -0.2215 -0.1324  0.0062
77459SOL    HW150369   8.135  13.246   2.587 -0.8475 -0.7371 -0.1929
77459SOL    HW250370   8.084  13.175   2.710 -1.1250  0.0182  0.1262
77460SOL     OW50371   8.752   3.510   7.737 -0.0339 -0.3743 -0.2303
77460SOL    HW150372   8.843   3.502   7.709  0.2858 -0.9473  0.9144
77460SOL    HW250373   8.756   3.513   7.832 -1.1991 -0.1208 -0.1736
77461SOL     OW50374  13.491   5.560  10.650 -0.2594 -0.3863  0.6452
77461SOL    HW150375  13.536   5.594  10.573 -1.2208 -0.1899  0.1652
77461SOL    HW250376  13.450   5.636  10.690 -2.4964 -0.9310 -0.4816
77462SOL     OW50377   9.246  14.122   8.028 -0.1498  0.4378  0.1994
77462SOL    HW150378   9.251  14.200   8.083 -0.6787  0.3976  0.3125
77462SOL    HW250379   9.212  14.054   8.086 -3.5152  1.0749 -0.8382
77463SOL     OW50380   1.047  11.643   2.647  0.1885  0.0770 -0.6711
77463SOL    HW150381   0.953  11.654   2.633  0.0855  1.1661  0.6282
77463SOL    HW250382   1.058  11.549   2.663 -0.6507 -0.0854 -1.0027
77464SOL     OW50383   7.597   6.086   2.642  0.8281  0.1382  0.1068
77464SOL    HW150384   7.576   6.042   2.725 -0.7658 -0.3035 -0.4806
77464SOL    HW250385   7.680   6.047   2.615 -0.9911 -3.4507 -0.9004
77465SOL     OW50386  12.106   4.213  12.088 -0.0700  0.2366  0.1396
77465SOL    HW150387  12.013   4.231  12.073 -0.5539  0.5701  2.9810
77465SOL    HW250388  12.122   4.247  12.176  2.3474 -1.3650  0.3806
77466SOL     OW50389  13.612   7.164   6.321 -0.0757  0.3537 -0.3612
77466SOL    HW150390  13.560   7.239   6.293 -0.2242  1.5260  2.6164
77466SOL    HW250391  13.570   7.088   6.281 -0.8216  1.6941 -2.2661
77467SOL     OW50392  11.577   0.071  14.135 -0.0905 -0.2757  0.2305
77467SOL    HW150393  11.604   0.147  14.188  1.2495  0.2595 -1.1207
77467SOL    HW250394  11.520   0.108  14.067  0.7107 -0.4159 -0.5417
77468SOL     OW50395   0.212  10.537  12.883  0.3766 -0.1788 -0.2003
77468SOL    HW150396   0.202  10.570  12.794 -2.2493  0.5171  0.2853
77468SOL    HW250397   0.199  10.443  12.875 -1.5546  0.0669 -0.3858
77469SOL     OW50398   0.770   7.818   2.424 -0.1455 -0.2213 -0.5202
77469SOL    HW150399   0.861   7.789   2.433  0.0802  0.3663 -0.8551
77469SOL    HW250400   0.755   7.872   2.502  0.3437  1.0864 -1.3138
77470SOL     OW50401  10.151   3.992   9.026 -0.2952 -0.3552 -0.0124
77470SOL    HW150402  10.150   4.066   9.087 -1.3722 -0.4691  0.1372
77470SOL    HW250403  10.072   4.005   8.972  1.8681  1.1547 -3.1411
77471SOL     OW50404   5.861   5.510  13.131  0.0934 -0.0454  0.5444
77471SOL    HW150405   5.946   5.473  13.157 -0.3584 -3.2269 -1.9485
77471SOL    HW250406   5.880   5.560  13.052 -0.3435 -1.0456 -0.2144
77472SOL     OW50407   5.711   6.119  11.416 -0.0212 -0.4686  0.3400
77472SOL    HW150408   5.646   6.049  11.425  1.8523 -2.0527  2.8014
77472SOL    HW250409   5.795   6.075  11.423  1.3103  1.8280 -0.2196
77473SOL     OW50410   2.681   8.090   5.226  0.3842  0.2727  0.1014
77473SOL    HW150411   2.699   8.001   5.256 -1.3476  0.3142  1.4934
77473SOL    HW250412   2.586   8.091   5.210  0.4762  1.6812 -0.5005
77474SOL     OW50413   9.396  13.726   7.884 -0.3338 -0.2203  0.1932
77474SOL    HW150414   9.307  13.689   7.887 -0.7604  0.5916 -1.5011
77474SOL    HW250415   9.408  13.754   7.794  0.7192  2.0079  0.9480
77475SOL     OW50416   4.347   0.898   8.789 -0.0647 -0.3972  0.4195
77475SOL    HW150417   4.416   0.854   8.738  0.0902  0.3629 -0.0683
77475SOL    HW250418   4.364   0.873   8.879  0.7759 -0.3415  0.2892
77476SOL     OW50419   0.624   1.188  11.565  0.3657 -0.2369 -0.0102
77476SOL    HW150420   0.582   1.118  11.513  1.1957 -0.2358 -0.7018
77476SOL    HW250421   0.701   1.212  11.514 -0.3586  1.8017 -0.2353
77477SOL     OW50422  10.555   5.561  11.747 -0.2612 -0.3978  0.1279
77477SOL    HW150423  10.586   5.534  11.660  0.5648  2.3772 -0.5451
77477SOL    HW250424  10.497   5.636  11.730 -0.8791 -0.4171  1.9222
77478SOL     OW50425   0.439   0.046  11.609  0.3993 -0.2384 -0.2997
77478SOL    HW150426   0.373  -0.014  11.575 -1.5399  0.6688  1.6428
77478SOL    HW250427   0.427   0.127  11.559  1.1598 -0.5615 -1.0320
77479SOL     OW50428   7.369   9.356   2.525 -0.1682 -0.4191 -0.2626
77479SOL    HW150429   7.297   9.313   2.480 -0.3327  1.2884 -1.7527
77479SOL    HW250430   7.448   9.319   2.484 -0.2912  0.1562 -1.0395
77480SOL     OW50431  11.916   4.683  11.124 -0.5588 -0.6314  0.0519
77480SOL    HW150432  11.832   4.662  11.165 -0.7811  0.4259  0.1744
77480SOL    HW250433  11.955   4.749  11.182 -0.6826  0.5702 -1.1769
77481SOL     OW50434  13.693   0.135  10.499 -0.4129  0.0385 -0.5478
77481SOL    HW150435  13.599   0.125  10.481 -0.7715  0.6613  0.8757
77481SOL    HW250436  13.735   0.074  10.439 -1.5927  1.1076 -2.5572
77482SOL     OW50437  10.814   9.940  11.487 -0.1482  0.3882 -0.5668
77482SOL    HW150438  10.746   9.965  11.550 -0.4388  1.3434 -1.2483
77482SOL    HW250439  10.831  10.019  11.437 -0.3723 -0.4976 -2.1095
77483SOL     OW50440  13.714  10.089  12.490 -0.4162  0.6581 -0.0269
77483SOL    HW150441  13.680  10.082  12.401 -0.9701  1.3385  0.1235
77483SOL    HW250442  13.637  10.078  12.546  0.0878 -0.9182  0.4193
77484SOL     OW50443   3.601   0.866   1.810  0.2630 -0.2134 -0.1326
77484SOL    HW150444   3.640   0.797   1.756  0.1213 -1.0501  0.8081
77484SOL    HW250445   3.628   0.948   1.768  1.0524 -0.8253 -0.8397
77485SOL     OW50446   2.344  13.684  11.033  0.0422 -0.7322 -0.5258
77485SOL    HW150447   2.325  13.606  10.981 -1.1642 -1.1380  0.4744
77485SOL    HW250448   2.393  13.651  11.108  0.5940 -0.3338 -0.6993
77486SOL     OW50449  10.279   3.727   3.057  0.0513 -0.4571 -0.3991
77486SOL    HW150450  10.222   3.781   3.002  1.9776 -0.9381 -3.1128
77486SOL    HW250451  10.283   3.643   3.012  2.4769 -0.5705 -0.1319
77487SOL     OW50452   2.680   0.359   7.097  0.4987  0.1074 -0.0402
77487SOL    HW150453   2.717   0.432   7.047 -0.6089  1.3790  0.9296
77487SOL    HW250454   2.751   0.295   7.101  1.2525  0.7891 -1.5678
77488SOL     OW50455  12.681  14.151   0.918  0.2572 -0.4208 -0.4971
77488SOL    HW150456  12.705  14.227   0.866 -0.0834 -0.6077 -0.9281
77488SOL    HW250457  12.586  14.154   0.924  0.3916  0.9974  2.2586
77489SOL     OW50458   7.521   4.379   4.197  0.1501  0.5901 -0.4184
77489SOL    HW150459   7.459   4.448   4.174  0.0320 -0.0232 -2.1344
77489SOL    HW250460   7.508   4.364   4.290 -1.5415  1.2193 -0.5218
77490SOL     OW50461  13.573   5.662   2.801  0.2430  0.0599 -0.4912
77490SOL    HW150462  13.620   5.689   2.722 -1.6016 -1.5043 -2.2431
77490SOL    HW250463  13.481   5.678   2.780 -0.2574  0.5728  1.8012
77491SOL     OW50464   2.570  10.355  12.631  0.1802  0.4319 -0.0611
77491SOL    HW150465   2.539  10.297  12.700 -0.9895  1.3689  0.2240
77491SOL    HW250466   2.659  10.379  12.658  0.4535 -0.7148  0.1208
77492SOL     OW50467   1.431   8.756   6.270 -0.2077 -0.4679 -0.4995
77492SOL    HW150468   1.383   8.703   6.334  0.1018  0.4195  0.5141
77492SOL    HW250469   1.370   8.768   6.198 -1.0641 -0.4018  0.2104
77493SOL     OW50470   1.362  13.687   7.700 -0.4810 -0.2948  0.2310
77493SOL    HW150471   1.377  13.651   7.613 -0.4450 -1.5088  0.7120
77493SOL    HW250472   1.434  13.652   7.753 -0.7999 -0.0150  0.8653
77494SOL     OW50473   2.800  11.137   6.494 -0.5394 -0.0505  0.8569
77494SOL    HW150474   2.832  11.142   6.584 -1.2884 -2.5382  1.3494
77494SOL    HW250475   2.872  11.099   6.444 -0.6252 -0.0229  0.7115
77495SOL     OW50476  13.881   4.172   5.127 -0.1503  0.1134  0.2349
77495SOL    HW150477  13.932   4.252   5.115  0.1258 -0.2487 -1.2234
77495SOL    HW250478  13.828   4.188   5.205  0.5007  1.3890  0.4337
77496SOL     OW50479   2.027   9.602   6.853  0.3002 -0.0988  0.1868
77496SOL    HW150480   1.943   9.635   6.884  0.2669 -2.8693  3.6407
77496SOL    HW250481   2.088   9.621   6.923  1.9780 -0.5443 -1.0854
77497SOL     OW50482  13.817   3.810  14.151 -0.1982  0.0119 -0.1328
77497SOL    HW150483  13.841   3.853  14.069 -1.9100  0.3325 -0.5090
77497SOL    HW250484  13.836   3.717  14.135  1.3646  0.3037 -0.1354
77498SOL     OW50485   7.947   4.628  14.067  0.1147  0.0182 -0.2726
77498SOL    HW150486   8.006   4.564  14.106  2.6179  1.4252 -1.4803
77498SOL    HW250487   7.991   4.712  14.080 -1.4676  1.1204 -1.5790
77499SOL     OW50488   6.958   8.545  11.159  0.3109  0.1986 -0.3707
77499SOL    HW150489   6.974   8.554  11.066 -0.3686 -0.6357 -0.5795
77499SOL    HW250490   6.919   8.458  11.169 -1.1347  0.9011  0.4809
77500SOL     OW50491   2.307  10.600   7.763  0.3339  0.4310 -0.5070
77500SOL    HW150492   2.235  10.656   7.734  0.0003  0.3226  0.0975
77500SOL    HW250493   2.340  10.641   7.842  0.2577 -0.0793 -0.2063
77501SOL     OW50494   2.338   4.138  10.649  0.0620 -0.1600  0.0393
77501SOL    HW150495   2.415   4.140  10.705 -0.3662 -0.5415  0.6440
77501SOL    HW250496   2.265   4.117  10.707 -0.3866 -0.5921 -0.6552
77502SOL     OW50497   0.396   4.380  14.046 -0.5754 -0.0234  0.1076
77502SOL    HW150498   0.305   4.351  14.035 -0.5166  0.6966 -3.0854
77502SOL    HW250499   0.400   4.465  14.004  1.6951 -0.2470 -0.2655
77503SOL     OW50500   7.518   2.873   5.108 -0.3264 -0.7579  0.3967
77503SOL    HW150501   7.549   2.957   5.074 -2.5775 -0.1549 -0.3347
77503SOL    HW250502   7.428   2.866   5.077 -2.3284 -0.6824  5.2614
77504SOL     OW50503  10.601   3.743   3.759  0.4647 -0.4696  0.5806
77504SOL    HW150504  10.614   3.713   3.669  0.4596  0.4613  0.2519
77504SOL    HW250505  10.602   3.664   3.812 -0.9732 -1.1866 -0.4052
77505SOL     OW50506   5.097   1.995   9.978 -0.2899 -0.5861 -0.3048
77505SOL    HW150507   5.097   2.025  10.069 -0.3249 -1.0539 -0.1444
77505SOL    HW250508   5.061   2.068   9.928  0.7774  0.1029 -0.0933
77506SOL     OW50509   7.322   3.092   9.136 -0.1325  0.1352 -0.3077
77506SOL    HW150510   7.253   3.051   9.187  0.2952 -1.0000 -0.6170
77506SOL    HW250511   7.391   3.026   9.130  0.2314  0.5885 -1.5267
77507SOL     OW50512   2.496   0.536  11.587  0.3271 -1.0369  0.0277
77507SOL    HW150513   2.432   0.556  11.518 -1.0309  0.0339  1.5236
77507SOL    HW250514   2.446   0.489  11.653  0.7419  0.8009  1.7520
77508SOL     OW50515   9.113  13.540   5.690  0.1711  0.1097 -0.6409
77508SOL    HW150516   9.187  13.591   5.657 -0.0161  1.4692  0.9026
77508SOL    HW250517   9.150  13.487   5.761 -0.5001  1.7657  1.0329
77509SOL     OW50518   4.400  11.659   7.661  0.0051  0.0637 -0.6222
77509SOL    HW150519   4.487  11.672   7.699 -0.8507  1.0870  1.0777
77509SOL    HW250520   4.380  11.741   7.617 -0.1682 -0.1092 -0.8659
77510SOL     OW50521   2.847   8.796   8.278 -0.1342 -0.6677  0.6099
77510SOL    HW150522   2.926   8.850   8.278  0.8088 -1.8195 -2.4352
77510SOL    HW250523   2.784   8.846   8.226 -1.0822 -0.2594  2.0977
77511SOL     OW50524  12.012   6.356   8.682  0.0924 -0.2833  0.3454
77511SOL    HW150525  11.946   6.424   8.697 -0.1461 -0.4379  0.0063
77511SOL    HW250526  11.969   6.274   8.707 -0.3485 -0.5636 -1.1925
77512SOL     OW50527  11.553   3.825   9.918  0.1127  0.5859  0.1311
77512SOL    HW150528  11.592   3.739   9.907 -0.6742  0.1401  0.7199
77512SOL    HW250529  11.593   3.879   9.850  1.0216 -0.0944  0.1097
77513SOL     OW50530   3.588   1.088   0.042  0.5303  0.5277  0.1938
77513SOL    HW150531   3.594   1.010   0.096 -0.4241  0.2310 -0.1030
77513SOL    HW250532   3.564   1.055  -0.045  1.0644  1.0743 -0.1685
77514SOL     OW50533   9.595   3.044  13.852 -0.2215 -0.0081 -0.1099
77514SOL    HW150534   9.672   2.986  13.853  1.7055  2.3675 -0.6588
77514SOL    HW250535   9.554   3.031  13.937  0.8381 -1.2986  0.2296
77515SOL     OW50536  10.827   4.273   5.670 -0.2593 -1.0803  0.3898
77515SOL    HW150537  10.839   4.367   5.679 -1.7711 -0.8467  0.2973
77515SOL    HW250538  10.866   4.236   5.750 -0.7964 -0.2659  1.0458
77516SOL     OW50539  12.684   6.298   2.967  0.2056  0.0795 -0.5739
77516SOL    HW150540  12.701   6.367   2.903  2.7385  0.3420  0.2561
77516SOL    HW250541  12.771   6.278   3.004 -0.7977 -1.8914  0.8886
77517SOL     OW50542   8.853  10.064   8.090  0.2525 -0.5138 -0.3531
77517SOL    HW150543   8.865  10.068   7.996 -1.3794  0.0598 -0.5722
77517SOL    HW250544   8.827  10.152   8.115  1.2576 -0.5032  0.7386
77518SOL     OW50545  10.189   3.847   9.794 -0.2025  0.5498  0.4672
77518SOL    HW150546  10.157   3.777   9.738 -1.4692  1.3282  0.1879
77518SOL    HW250547  10.237   3.802   9.864 -1.6311 -0.6470  0.7219
77519SOL     OW50548   1.448   8.506   9.946  0.2543 -0.8267 -0.5450
77519SOL    HW150549   1.518   8.526  10.009 -0.9002  2.5941 -0.1378
77519SOL    HW250550   1.375   8.476   9.999  0.1432 -0.4972 -0.5056
77520SOL     OW50551  10.462   3.118   3.428  0.2962  0.0019 -0.3011
77520SOL    HW150552  10.422   3.116   3.341 -0.8740  1.0602  0.1741
77520SOL    HW250553  10.554   3.137   3.411  0.3245 -0.9934 -1.3598
77521SOL     OW50554   8.778   0.098   3.454  0.5959 -0.3536  0.1140
77521SOL    HW150555   8.731   0.168   3.500 -1.8523 -0.9560 -1.3283
77521SOL    HW250556   8.816   0.045   3.524  0.5263  1.0792  1.2856
77522SOL     OW50557   8.895  13.822   8.586  0.5403 -0.2416  0.3874
77522SOL    HW150558   8.900  13.740   8.536  2.7522 -0.7707  1.3619
77522SOL    HW250559   8.830  13.803   8.655  1.1156 -1.2647  0.6831
77523SOL     OW50560   5.906  11.836   1.669  0.5509  0.3142 -0.0312
77523SOL    HW150561   5.947  11.776   1.606 -0.4377 -1.3555  0.8542
77523SOL    HW250562   5.980  11.883   1.708  1.1769  1.8073 -2.7566
77524SOL     OW50563  11.095   9.863   6.111 -0.3395 -0.2847 -0.2364
77524SOL    HW150564  11.105   9.957   6.097 -1.3780  0.3472  2.5890
77524SOL    HW250565  11.168   9.839   6.168 -1.4898 -0.5732  1.1944
77525SOL     OW50566  11.474   5.654  12.972 -0.1484 -0.1330 -0.0222
77525SOL    HW150567  11.538   5.690  12.911 -1.5645  1.0397 -0.8872
77525SOL    HW250568  11.491   5.700  13.054  0.2527  0.0187 -0.1862
77526SOL     OW50569  14.017   4.977  10.424  0.4703 -0.0747  0.2951
77526SOL    HW150570  14.112   4.977  10.428  0.5414  2.9282  0.3252
77526SOL    HW250571  13.991   5.065  10.450 -2.4030 -1.1048  1.3889
77527SOL     OW50572   2.419   8.837   5.584  0.2344 -0.0199 -0.7737
77527SOL    HW150573   2.500   8.865   5.627  0.0126  1.2793 -1.1724
77527SOL    HW250574   2.372   8.788   5.652  1.6799 -1.4986 -0.7603
77528SOL     OW50575   1.129   0.751   5.478  0.0481 -0.3531 -0.0486
77528SOL    HW150576   1.222   0.759   5.457 -0.1913  1.6220 -0.5308
77528SOL    HW250577   1.085   0.808   5.416 -1.5719 -1.6683 -0.1834
77529SOL     OW50578   8.513  10.134   6.611 -0.2267  0.1020  0.2044
77529SOL    HW150579   8.593  10.159   6.564  0.2528 -1.6914 -0.0054
77529SOL    HW250580   8.444  10.138   6.546  0.2752 -1.4651 -0.4653
77530SOL     OW50581   9.928   1.481   6.622 -0.4003  0.2257 -0.5209
77530SOL    HW150582  10.017   1.514   6.637 -0.9001  1.3781 -0.0090
77530SOL    HW250583   9.877   1.516   6.694 -1.2630 -0.5156 -0.7565
77531SOL     OW50584  10.481   8.969   2.894 -0.0170 -0.3679  0.0088
77531SOL    HW150585  10.394   8.929   2.900 -0.1258 -0.1829 -0.3104
77531SOL    HW250586  10.537   8.901   2.858 -0.0829 -0.4076 -0.0179
77532SOL     OW50587   9.249   8.413   3.542  0.2322 -0.1518 -0.2422
77532SOL    HW150588   9.158   8.385   3.531 -0.2221  0.3405  1.8281
77532SOL    HW250589   9.243   8.493   3.594  1.9379 -2.7332  4.5849
77533SOL     OW50590   5.090   0.031   7.952  0.2223  0.1408  0.2103
77533SOL    HW150591   5.145   0.042   8.030  1.6447  0.0718 -0.7437
77533SOL    HW250592   5.029  -0.039   7.975  0.5287  0.2198  1.3114
77534SOL     OW50593  10.177  11.659  11.907 -0.0459 -0.2632 -0.3036
77534SOL    HW150594  10.137  11.682  11.990 -2.4057  1.2026 -1.7551
77534SOL    HW250595  10.240  11.729  11.890  1.1382 -1.0563  0.6193
77535SOL     OW50596   0.651   7.753  14.095  0.0596 -0.0954 -0.2039
77535SOL    HW150597   0.558   7.765  14.113 -0.2474 -1.7513 -0.5452
77535SOL    HW250598   0.690   7.739  14.182  0.5156  3.3225  0.2783
77536SOL     OW50599  13.024  10.657   3.351 -0.5407 -0.2089 -0.3224
77536SOL    HW150600  12.986  10.646   3.264 -1.0045 -2.4089  0.0833
77536SOL    HW250601  12.998  10.578   3.399  1.3459 -0.0036  1.1898
77537SOL     OW50602  12.105   4.732   4.928  0.7912  0.4223 -0.2024
77537SOL    HW150603  12.124   4.782   4.849 -0.6092 -0.4495 -1.1430
77537SOL    HW250604  12.009   4.735   4.936  0.7987 -0.7824  0.5830
77538SOL     OW50605   1.694   8.159   9.333  0.0823  0.4663 -0.0209
77538SOL    HW150606   1.708   8.131   9.424 -0.9602 -0.5298 -0.1499
77538SOL    HW250607   1.599   8.152   9.321  0.3548 -0.8165 -1.6316
77539SOL     OW50608   0.376   7.080  13.981 -0.3129  0.0712 -0.1767
77539SOL    HW150609   0.366   7.020  14.055  0.0209 -0.3785 -0.4819
77539SOL    HW250610   0.463   7.117  13.992  0.9363 -2.1030 -1.7962
77540SOL     OW50611  11.807   7.111  14.063  0.0445  0.0843  0.0801
77540SOL    HW150612  11.892   7.074  14.089  0.3161  0.2434 -0.5655
77540SOL    HW250613  11.776   7.157  14.141  0.6944  0.2824  0.2297
77541SOL     OW50614   9.624   7.547   2.315 -0.0322  0.6198  0.6212
77541SOL    HW150615   9.652   7.464   2.354 -0.5680  0.0114 -0.2374
77541SOL    HW250616   9.541   7.567   2.358  0.3418  0.9827  1.1883
77542SOL     OW50617   0.082  11.894   6.260  0.2717 -0.2135  0.0457
77542SOL    HW150618   0.131  11.964   6.217  2.5139 -2.5047 -1.4160
77542SOL    HW250619   0.136  11.816   6.247 -1.7392 -2.1006  2.2300
77543SOL     OW50620   8.485   1.777   6.531 -0.1355  0.0458 -0.2778
77543SOL    HW150621   8.539   1.750   6.605  0.1593 -0.5858 -0.7056
77543SOL    HW250622   8.545   1.825   6.474 -0.0052 -0.6692 -0.7606
77544SOL     OW50623   2.577   0.497   9.291 -0.0054 -0.3378 -0.0510
77544SOL    HW150624   2.566   0.548   9.371 -1.3148 -2.1784  1.0389
77544SOL    HW250625   2.574   0.561   9.220 -0.3508  1.1871  1.2955
77545SOL     OW50626  11.640  14.067   0.913  0.7455  0.1747  0.4506
77545SOL    HW150627  11.715  14.076   0.854 -0.3302  1.0103 -0.8592
77545SOL    HW250628  11.642  14.147   0.966  3.2215 -1.6993  3.5227
77546SOL     OW50629  11.360   9.428   8.917 -0.5620  0.0535 -0.0192
77546SOL    HW150630  11.344   9.521   8.929 -2.9228 -0.3330  0.3741
77546SOL    HW250631  11.387   9.397   9.003 -1.3493  0.1202  0.2599
77547SOL     OW50632   9.713   6.697  12.855 -0.2382  0.0668  0.1852
77547SOL    HW150633   9.619   6.709  12.839 -0.5088 -1.0298  0.8282
77547SOL    HW250634   9.724   6.717  12.948  0.0197 -0.5767  0.2978
77548SOL     OW50635   7.597   2.779  10.231 -0.0542  0.3306 -0.2436
77548SOL    HW150636   7.558   2.695  10.258 -0.0322  0.7887  1.3009
77548SOL    HW250637   7.575   2.839  10.302 -0.4099  1.7593 -1.5094
77549SOL     OW50638   7.927   1.557  12.892 -0.4732  0.3088 -0.4224
77549SOL    HW150639   7.849   1.546  12.947  0.5528 -0.2694  0.9694
77549SOL    HW250640   7.920   1.486  12.827 -0.6077 -0.3720  0.3205
77550SOL     OW50641   3.397   3.367   0.626  0.1598 -0.5756  0.1016
77550SOL    HW150642   3.324   3.390   0.569 -0.2528 -2.0671 -0.0138
77550SOL    HW250643   3.469   3.346   0.566  0.5209  0.3075  0.2048
77551SOL     OW50644  11.431   3.270  12.342  0.4327  0.0629  0.2581
77551SOL    HW150645  11.474   3.266  12.428  0.2380  1.9804  0.5007
77551SOL    HW250646  11.477   3.342  12.297  0.6036 -0.9911 -1.3008
77552SOL     OW50647  10.279   9.910   7.706 -0.8410  0.2282  0.5250
77552SOL    HW150648  10.339   9.856   7.756 -1.3654  0.7212  1.7301
77552SOL    HW250649  10.334   9.955   7.642 -0.2605 -0.9322  0.1872
77553SOL     OW50650  13.176   0.664   4.124  0.3420  0.3503  0.0633
77553SOL    HW150651  13.121   0.638   4.050 -0.4850 -1.2767  1.1772
77553SOL    HW250652  13.246   0.599   4.126  0.0310  0.0268  1.0217
77554SOL     OW50653   0.910   9.007   5.832 -0.4343  0.1377  0.3352
77554SOL    HW150654   0.959   9.005   5.914 -1.2019  0.5353  0.8198
77554SOL    HW250655   0.976   9.001   5.764  0.2390  0.0997  0.9806
77555SOL     OW50656   4.966   6.220   1.528  0.2378  0.2186 -0.5690
77555SOL    HW150657   4.937   6.305   1.496  0.0864  0.2850 -0.2663
77555SOL    HW250658   5.034   6.241   1.592  1.9397  0.0190 -2.2347
77556SOL     OW50659   6.515   9.681   4.925 -0.0149  0.0643  0.3180
77556SOL    HW150660   6.584   9.622   4.896 -0.4692  0.3015 -1.3292
77556SOL    HW250661   6.469   9.633   4.993  0.6009 -0.8295  0.1191
77557SOL     OW50662   3.363   1.746  13.592  0.2834 -0.2424  0.5678
77557SOL    HW150663   3.435   1.754  13.529  0.0251 -2.7820 -0.1721
77557SOL    HW250664   3.287   1.780  13.545  0.3490 -0.8701 -0.0038
77558SOL     OW50665   6.709   6.172   1.453  0.1154  0.0882  0.2304
77558SOL    HW150666   6.636   6.182   1.391  1.0121  0.1487 -0.8415
77558SOL    HW250667   6.740   6.261   1.468  1.4521 -0.0928 -1.1794
77559SOL     OW50668   9.318   3.544   0.254  0.0481 -0.0084  0.1384
77559SOL    HW150669   9.318   3.629   0.297 -1.3455  0.2721 -0.3541
77559SOL    HW250670   9.233   3.506   0.276  0.2838 -0.8781 -0.3922
77560SOL     OW50671   0.012   9.131  13.622  0.2495  0.0258 -0.9839
77560SOL    HW150672  -0.009   9.051  13.574  0.0963  1.8966 -4.3803
77560SOL    HW250673   0.058   9.186  13.558 -0.2235  2.9064  0.9499
77561SOL     OW50674   2.796   3.474  11.469  0.5574  0.1229 -0.2266
77561SOL    HW150675   2.724   3.429  11.515  0.9594 -0.6647 -0.3548
77561SOL    HW250676   2.858   3.496  11.539  0.9840 -0.7216 -0.3334
77562SOL     OW50677   3.982   6.979   2.466  0.1332  0.3850  0.0783
77562SOL    HW150678   3.929   7.057   2.447  0.0096  0.1039 -0.7909
77562SOL    HW250679   3.953   6.951   2.553  0.3660  1.4488  0.5143
77563SOL     OW50680  11.979  10.275   3.369  0.1552 -0.3014 -0.1126
77563SOL    HW150681  11.932  10.273   3.452 -0.6206 -1.9274 -0.5448
77563SOL    HW250682  11.911  10.267   3.302  0.8765 -0.4435 -0.8536
77564SOL     OW50683  12.999   2.334   6.494 -0.3996 -0.2400 -0.3782
77564SOL    HW150684  13.041   2.363   6.413  2.4109 -1.2870  0.5377
77564SOL    HW250685  12.962   2.413   6.533  0.5730  0.7541 -1.4157
77565SOL     OW50686  13.934   6.304   4.484 -0.3164 -0.1526 -0.1690
77565SOL    HW150687  13.967   6.285   4.572  0.1384 -1.9591 -0.6828
77565SOL    HW250688  13.915   6.218   4.446 -2.1086  0.6503 -1.2560
77566SOL     OW50689  12.727  11.888   4.800  0.6375 -0.5599  0.2919
77566SOL    HW150690  12.794  11.830   4.839  1.2388  0.0163  0.1317
77566SOL    HW250691  12.662  11.828   4.763  0.7835 -1.1281  0.9287
77567SOL     OW50692   9.789   7.195  13.257 -0.0897  0.1886  0.4558
77567SOL    HW150693   9.846   7.203  13.333 -1.9049  1.9272  1.7482
77567SOL    HW250694   9.720   7.260  13.272 -1.6636 -0.8593 -1.6710
77568SOL     OW50695  11.802   0.162   6.361  0.0646 -0.3762  0.7338
77568SOL    HW150696  11.862   0.146   6.434  0.2543  0.5969  0.8014
77568SOL    HW250697  11.718   0.181   6.402 -0.7120 -3.1991  0.6171
77569SOL     OW50698   2.883   2.643   0.754 -0.1488 -0.1080  0.4005
77569SOL    HW150699   2.975   2.629   0.778  0.0052 -0.6309 -0.4436
77569SOL    HW250700   2.854   2.716   0.810 -0.0187 -1.6652  2.6394
77570SOL     OW50701  11.301   9.367   6.399  0.7786  1.0003 -0.6365
77570SOL    HW150702  11.271   9.368   6.490  2.0868  1.8995 -0.1886
77570SOL    HW250703  11.224   9.340   6.349 -0.2610  1.5251  0.6282
77571SOL     OW50704  10.342   5.554   3.511 -0.0608  0.1503 -0.0470
77571SOL    HW150705  10.256   5.563   3.469  0.4235  1.0211 -0.8754
77571SOL    HW250706  10.356   5.459   3.516 -2.0542 -0.1222  2.2102
77572SOL     OW50707   8.341  11.535   5.923 -0.8778  0.2297  0.4322
77572SOL    HW150708   8.335  11.605   5.858  2.5585  1.1172  0.8833
77572SOL    HW250709   8.302  11.458   5.880 -1.6549  1.5642 -1.3559
77573SOL     OW50710   4.158  13.594   0.136 -0.2145 -0.2935 -0.3650
77573SOL    HW150711   4.133  13.652   0.065  0.7487  0.3807 -0.1764
77573SOL    HW250712   4.118  13.510   0.114 -1.0991  0.2708 -0.9647
77574SOL     OW50713  12.841   5.725  12.785 -0.3968  0.0546 -0.1578
77574SOL    HW150714  12.919   5.728  12.840 -0.7679  0.8475  0.3429
77574SOL    HW250715  12.842   5.807  12.735 -0.5493 -0.2409 -0.6582
77575SOL     OW50716   7.095   8.786   8.581  0.4734  0.0169 -0.4073
77575SOL    HW150717   7.033   8.815   8.514 -0.3356 -0.7919 -0.0262
77575SOL    HW250718   7.065   8.698   8.605 -0.1327  0.8289  2.0775
77576SOL     OW50719  13.184  13.141   4.341 -0.3106 -0.1211 -0.7420
77576SOL    HW150720  13.267  13.165   4.382 -0.5158 -1.4416  0.5189
77576SOL    HW250721  13.171  13.208   4.273  0.2960  1.8872  1.0038
77577SOL     OW50722   4.001  13.761   5.802  0.3441 -0.0883  0.1094
77577SOL    HW150723   4.059  13.742   5.728  0.7814  0.4817  0.3052
77577SOL    HW250724   3.920  13.714   5.781 -1.1484  3.3205 -2.8321
77578SOL     OW50725   3.834   0.577   5.306  0.3563  0.1924  0.3110
77578SOL    HW150726   3.864   0.492   5.275  1.6409 -0.0106  1.9667
77578SOL    HW250727   3.855   0.578   5.399  1.5927  2.8250  0.0990
77579SOL     OW50728  12.972   6.330  10.908  0.2350 -0.8292  0.2085
77579SOL    HW150729  13.039   6.268  10.879  0.5177  0.2340 -1.6124
77579SOL    HW250730  13.021   6.407  10.937 -0.1163  0.2028 -1.7177
77580SOL     OW50731   4.482   2.547   6.983 -0.4211  0.1890 -0.1075
77580SOL    HW150732   4.458   2.596   7.062 -0.4151  2.5087 -1.4534
77580SOL    HW250733   4.522   2.613   6.926 -1.8493 -1.0553 -2.6706
77581SOL     OW50734   1.465   4.719  10.778 -0.2887  0.4034  0.4312
77581SOL    HW150735   1.503   4.780  10.715  1.0975 -0.8226  0.0206
77581SOL    HW250736   1.374   4.745  10.785  0.1847  2.3086  0.0391
77582SOL     OW50737   2.412   9.724  12.413 -0.8542  0.7411 -0.3015
77582SOL    HW150738   2.367   9.654  12.460 -0.0438 -0.3731 -1.1332
77582SOL    HW250739   2.342   9.780  12.381 -1.4665  0.9680  1.3404
77583SOL     OW50740   9.489   6.909  10.638  0.8085  0.3606  0.5559
77583SOL    HW150741   9.443   6.976  10.689 -0.4264 -0.2395  0.2810
77583SOL    HW250742   9.545   6.864  10.702  1.0210  1.1062  0.9037
77584SOL     OW50743   2.811   9.100   6.806  0.0092 -0.6185 -0.1273
77584SOL    HW150744   2.839   9.143   6.887  4.2056  0.4740 -1.8886
77584SOL    HW250745   2.808   9.171   6.742 -1.4246 -1.7412 -1.3549
77585SOL     OW50746   9.268   2.318   3.456  0.1442 -0.0101 -0.4458
77585SOL    HW150747   9.280   2.324   3.551 -2.3772  1.2842 -0.1418
77585SOL    HW250748   9.254   2.408   3.427  0.8154 -0.3848 -2.0815
77586SOL     OW50749   4.112   0.035  11.265  0.1938  0.0704  0.7906
77586SOL    HW150750   4.060   0.047  11.344 -0.3861 -1.5286  0.7055
77586SOL    HW250751   4.049   0.003  11.200  0.7010  1.1526 -0.2588
77587SOL     OW50752   0.913   4.247  14.141  0.3553 -0.5207 -0.3202
77587SOL    HW150753   0.839   4.239  14.081  0.5051 -2.1454 -0.3447
77587SOL    HW250754   0.990   4.232  14.087  0.6841  0.6255 -0.1940
77588SOL     OW50755   1.170   7.797   6.216 -0.8885 -0.3082  0.0261
77588SOL    HW150756   1.204   7.843   6.294 -0.1945  0.6667 -0.8107
77588SOL    HW250757   1.208   7.845   6.142 -1.5584 -1.1922 -0.9219
77589SOL     OW50758  12.676  13.376  11.252 -0.0070 -0.2523  0.5957
77589SOL    HW150759  12.674  13.281  11.264 -0.2372 -0.3196  0.0562
77589SOL    HW250760  12.740  13.390  11.182  1.4546  0.1430  1.9593
77590SOL     OW50761   6.346   0.436   3.513 -0.4064  0.0704  0.0948
77590SOL    HW150762   6.365   0.440   3.419 -0.5465  1.3691  0.1079
77590SOL    HW250763   6.421   0.388   3.549  0.5996  1.1389 -0.4593
77591SOL     OW50764  11.522   6.406   1.673 -0.0337  0.5639  0.6027
77591SOL    HW150765  11.517   6.374   1.583  1.7292  2.0511 -0.0856
77591SOL    HW250766  11.467   6.346   1.723  0.9647 -1.8515 -1.0356
77592SOL     OW50767  12.747   0.109   0.268  0.7432 -0.1120  0.6000
77592SOL    HW150768  12.715   0.195   0.295 -0.0696  0.1067 -1.0072
77592SOL    HW250769  12.813   0.127   0.202  0.2656 -0.7317 -0.0625
77593SOL     OW50770   0.129  11.714   4.667  0.5804  0.3157 -0.7585
77593SOL    HW150771   0.194  11.733   4.599  1.7178 -1.0469 -0.1051
77593SOL    HW250772   0.045  11.714   4.621  1.2309  0.3034 -1.9810
77594SOL     OW50773   0.863   8.026   1.874 -0.1235  0.1305  0.0917
77594SOL    HW150774   0.827   8.068   1.796  0.6232 -0.4221 -0.5662
77594SOL    HW250775   0.953   8.057   1.879 -0.2298  0.3332  0.8670
77595SOL     OW50776   1.079   1.783   0.248  0.0311 -0.4945  0.3783
77595SOL    HW150777   1.147   1.754   0.187 -2.3815 -2.1639 -1.7398
77595SOL    HW250778   1.074   1.712   0.312  2.0675  0.9272  2.2615
77596SOL     OW50779   4.486   7.684  13.161 -0.2442  0.0370 -0.4379
77596SOL    HW150780   4.454   7.709  13.074 -0.5616  1.0273 -0.0528
77596SOL    HW250781   4.454   7.595  13.174 -1.5277  0.4468 -0.6960
77597SOL     OW50782  10.948  14.091   2.423 -0.5239 -0.8096 -0.4180
77597SOL    HW150783  11.021  14.032   2.404  0.6511 -0.0436  1.4015
77597SOL    HW250784  10.872  14.034   2.429  0.6540 -2.2918  1.7211
77598SOL     OW50785  14.145   9.190   5.211  0.9165 -0.4205  0.6018
77598SOL    HW150786  14.114   9.251   5.278  1.2478 -1.7555  2.0101
77598SOL    HW250787  14.075   9.126   5.202  0.6077  0.0681 -0.8099
77599SOL     OW50788  12.611  11.825   1.183 -0.2923  0.2564 -0.0712
77599SOL    HW150789  12.575  11.760   1.242 -1.4665  0.3896 -0.6162
77599SOL    HW250790  12.569  11.807   1.099  0.4646  0.8046 -0.5791
77600SOL     OW50791   9.851   3.895   8.096  0.3095  0.3930 -0.4639
77600SOL    HW150792   9.797   3.924   8.170  0.0317 -0.3565 -0.3572
77600SOL    HW250793   9.941   3.909   8.126  0.1907  1.0454 -0.3882
77601SOL     OW50794   5.914   3.268  13.874  0.0818  0.4044  0.8766
77601SOL    HW150795   5.949   3.358  13.873  0.0121  0.4299  0.1955
77601SOL    HW250796   5.991   3.213  13.889 -0.1925  0.6852  3.8814
77602SOL     OW50797   6.239  13.039  10.469  0.0938 -0.3704 -0.3948
77602SOL    HW150798   6.284  13.123  10.465 -0.3227 -0.1087  0.2808
77602SOL    HW250799   6.298  12.978  10.425  1.2867 -0.1049  0.7604
77603SOL     OW50800  12.490   1.369   8.608  0.5851  0.1395 -0.1683
77603SOL    HW150801  12.396   1.365   8.625  1.0444  0.2245  2.9284
77603SOL    HW250802  12.510   1.286   8.565 -1.0467  0.7079 -2.2332
77604SOL     OW50803   6.728  11.943  13.977 -0.2336  0.2017  0.4598
77604SOL    HW150804   6.774  11.871  14.020 -1.6095  0.0225  1.6950
77604SOL    HW250805   6.797  11.994  13.936  0.7840 -1.8397 -0.5211
77605SOL     OW50806  13.063   2.251   2.577 -0.4374  0.1013 -0.5793
77605SOL    HW150807  12.978   2.244   2.531 -2.3677  0.0261  2.7023
77605SOL    HW250808  13.067   2.343   2.605  0.0390 -0.1464  0.1852
77606SOL     OW50809   6.009  13.189   8.172 -0.2333 -0.0903  0.5597
77606SOL    HW150810   5.972  13.172   8.259  1.1247 -0.0302  1.1619
77606SOL    HW250811   6.067  13.264   8.185 -0.3094  0.1686 -0.4929
77607SOL     OW50812   8.386  10.541  12.172 -0.5035  0.2360 -0.2140
77607SOL    HW150813   8.392  10.466  12.232 -0.2915 -0.3658 -0.9647
77607SOL    HW250814   8.326  10.512  12.104  0.6464  0.2054 -1.2594
77608SOL     OW50815  11.100   0.270  11.939  0.0532  0.0327  0.2472
77608SOL    HW150816  11.147   0.290  12.020  2.4562 -0.2395 -0.9853
77608SOL    HW250817  11.159   0.211  11.891 -0.9796  0.7129 -1.9879
77609SOL     OW50818   9.220   7.750  13.440 -0.0472  0.0385 -0.2400
77609SOL    HW150819   9.209   7.844  13.451  4.0396  0.6714  0.1305
77609SOL    HW250820   9.210   7.714  13.528  0.5649  0.4870  0.0252
77610SOL     OW50821   4.857  12.415   2.193 -0.0817 -0.1067 -0.0502
77610SOL    HW150822   4.861  12.496   2.245  0.2250 -0.3061  0.2427
77610SOL    HW250823   4.766  12.411   2.162 -0.0306  0.4855 -0.2847
77611SOL     OW50824   3.479   6.037   6.890  0.1555 -0.0465 -0.2666
77611SOL    HW150825   3.503   6.117   6.843  1.5241 -1.2332 -1.7231
77611SOL    HW250826   3.388   6.021   6.865 -0.2118  1.1726  0.2410
77612SOL     OW50827   7.566   9.544  13.826  0.8164  0.4379  0.2787
77612SOL    HW150828   7.551   9.575  13.736  1.6228  0.7882  0.2557
77612SOL    HW250829   7.483   9.503  13.851  0.6031  0.2664 -0.6551
77613SOL     OW50830   2.765  10.896   9.378 -0.2445  0.4119  0.1540
77613SOL    HW150831   2.743  10.888   9.471  0.6284  0.6272  0.3898
77613SOL    HW250832   2.744  10.811   9.340  0.0493  0.0914  0.6996
77614SOL     OW50833  11.124   8.944   1.181  0.7527  0.2669 -0.1160
77614SOL    HW150834  11.209   8.978   1.210  0.4152 -0.0194  1.2779
77614SOL    HW250835  11.137   8.849   1.176  1.1923  0.3845 -2.3147
77615SOL     OW50836  13.281   4.791   5.856 -0.2221 -0.1499 -0.0416
77615SOL    HW150837  13.363   4.772   5.901  1.2030  0.8650 -2.0718
77615SOL    HW250838  13.249   4.871   5.898 -0.3452 -0.6788  0.9184
77616SOL     OW50839  13.439  11.381   0.092  0.3113  0.2075  0.4171
77616SOL    HW150840  13.468  11.456   0.145 -0.7783  1.7215 -0.9957
77616SOL    HW250841  13.385  11.329   0.151  0.6824  0.8017  1.3097
77617SOL     OW50842   9.950  10.974   8.615 -0.2525  0.1324  0.0939
77617SOL    HW150843   9.989  10.893   8.583 -0.7011  0.1820 -0.6017
77617SOL    HW250844   9.908  11.012   8.538 -2.1745 -0.1900  0.9387
77618SOL     OW50845   7.933   3.997   8.447  0.4508  0.0832 -0.1974
77618SOL    HW150846   7.946   4.060   8.517  3.3541 -0.5295 -0.0729
77618SOL    HW250847   7.932   3.912   8.491 -0.2943 -0.1568 -0.6623
77619SOL     OW50848   9.575   0.713   1.255  0.0846 -0.0763  0.2387
77619SOL    HW150849   9.510   0.682   1.318  0.7971  1.6932  1.9588
77619SOL    HW250850   9.526   0.770   1.196 -0.1786  0.1438  0.6660
77620SOL     OW50851   0.655   6.165   0.988  0.5392 -0.2419  0.4347
77620SOL    HW150852   0.631   6.084   0.944 -2.5162  1.3879 -1.2484
77620SOL    HW250853   0.611   6.161   1.073 -1.8477  0.5930 -0.6616
77621SOL     OW50854   7.188   9.955  13.321  0.3841 -0.3464 -0.0792
77621SOL    HW150855   7.216   9.875  13.277 -0.4493  0.1451 -1.5718
77621SOL    HW250856   7.161  10.014  13.250  0.9299  1.2503  0.9799
77622SOL     OW50857   1.779  13.032   4.343 -0.0272 -0.2223 -0.2837
77622SOL    HW150858   1.804  13.026   4.435 -1.0471 -0.3531 -0.0035
77622SOL    HW250859   1.862  13.046   4.296  0.6189 -1.1235  0.5510
77623SOL     OW50860   8.583   0.536   2.964 -0.4461  0.4141 -0.2912
77623SOL    HW150861   8.569   0.445   2.988 -0.2038  0.7657  1.2746
77623SOL    HW250862   8.676   0.542   2.944 -0.6335  0.1359 -1.2783
77624SOL     OW50863  11.393   6.941  10.401  0.4551  0.7144 -0.0987
77624SOL    HW150864  11.462   6.895  10.450  2.0302  2.0500 -0.9364
77624SOL    HW250865  11.427   6.945  10.311 -1.4971 -0.0068 -0.9206
77625SOL     OW50866   8.410   2.705  12.255  0.0107  0.0775  0.0164
77625SOL    HW150867   8.389   2.620  12.217  0.4201  0.0863 -0.2284
77625SOL    HW250868   8.330   2.757  12.244  0.0228 -0.0188 -0.5502
77626SOL     OW50869   8.801  13.466  10.216  0.3984  0.1636 -0.2581
77626SOL    HW150870   8.713  13.459  10.254  0.0035 -0.6282 -1.2817
77626SOL    HW250871   8.786  13.479  10.122  1.3714  0.0575 -0.4412
77627SOL     OW50872  12.668  13.362  13.090  0.1126  0.0209 -0.1059
77627SOL    HW150873  12.629  13.449  13.083 -2.5751 -0.8004  2.6946
77627SOL    HW250874  12.594  13.302  13.089  1.7064 -2.0694  0.4340
77628SOL     OW50875   8.719  12.226   8.075 -1.0231 -0.2027  0.1782
77628SOL    HW150876   8.666  12.285   8.127  0.4075  0.4356  0.9750
77628SOL    HW250877   8.792  12.203   8.132 -0.3532 -0.9253 -0.9233
77629SOL     OW50878   5.856   1.460  10.615 -0.1643  0.0441 -0.1553
77629SOL    HW150879   5.815   1.428  10.534  0.6996  0.2909 -0.7055
77629SOL    HW250880   5.946   1.427  10.610  0.3437  1.3487 -0.0531
77630SOL     OW50881   0.110  11.255   3.012 -0.1901  0.2350  0.4628
77630SOL    HW150882   0.033  11.307   2.990  0.1230  0.0298 -1.2969
77630SOL    HW250883   0.106  11.245   3.107 -0.9169  2.4097  0.7162
77631SOL     OW50884  10.528   7.967  12.699  0.6413  0.1273 -0.0858
77631SOL    HW150885  10.440   7.961  12.737  0.3077 -1.9203 -1.0501
77631SOL    HW250886  10.563   8.049  12.734 -1.2690  0.5151  1.1045
77632SOL     OW50887   3.068   5.165  13.669  0.1368  0.3517  0.6884
77632SOL    HW150888   3.110   5.230  13.613 -0.8215 -1.1204 -1.9380
77632SOL    HW250889   3.141   5.122  13.715  1.2663 -0.0195 -1.3455
77633SOL     OW50890  11.366   6.878   8.875  0.2412  0.6460 -0.6678
77633SOL    HW150891  11.295   6.908   8.931  1.4590  1.1710  0.6699
77633SOL    HW250892  11.425   6.831   8.934 -1.3854 -4.3656 -2.5575
77634SOL     OW50893  11.942  13.193   4.814  0.3233 -0.1894  0.0328
77634SOL    HW150894  11.944  13.189   4.909  2.1160 -0.2540  0.0126
77634SOL    HW250895  11.849  13.189   4.792 -0.1489  0.3606  1.7882
77635SOL     OW50896   0.584   3.640   4.803  0.0050  0.5576  0.1994
77635SOL    HW150897   0.547   3.709   4.858  2.1504  1.6893  0.3291
77635SOL    HW250898   0.538   3.649   4.719 -1.7002  0.2806  1.0570
77636SOL     OW50899  12.062   8.869   8.988  0.1754  0.5087  0.2622
77636SOL    HW150900  11.993   8.911   9.039 -0.4091 -1.4691  1.1880
77636SOL    HW250901  12.138   8.928   8.998 -0.7376  1.5928  1.0465
77637SOL     OW50902   1.991   3.102   3.058  0.8282 -0.7507 -0.0279
77637SOL    HW150903   2.008   3.171   2.994  1.4717  1.3267  2.2515
77637SOL    HW250904   1.960   3.028   3.005 -1.1726  1.6419 -2.4661
77638SOL     OW50905   2.012  12.835  13.474 -0.0376  0.0276 -0.1918
77638SOL    HW150906   1.992  12.764  13.534 -0.3357 -0.8787 -1.3252
77638SOL    HW250907   2.099  12.814  13.440  0.1829  0.5944  0.0076
77639SOL     OW50908   8.473   2.240  11.371 -0.4900  0.1675  0.5040
77639SOL    HW150909   8.437   2.312  11.320 -1.1143 -0.4816  0.0005
77639SOL    HW250910   8.568   2.249  11.362 -0.5811  0.2671 -0.5061
77640SOL     OW50911   3.020   7.953  11.668  0.3175  0.4249 -0.2597
77640SOL    HW150912   3.005   7.953  11.762  0.9962 -0.9118 -0.1214
77640SOL    HW250913   3.115   7.939  11.658  0.2483  0.4862 -1.1279
77641SOL     OW50914   2.262   5.747   0.327  0.2309  0.4986  0.4478
77641SOL    HW150915   2.212   5.674   0.364  2.5883 -1.2566  0.4123
77641SOL    HW250916   2.268   5.727   0.233 -4.5311  4.2076 -1.1201
77642SOL     OW50917   5.779   3.508  12.234  0.0485 -0.0031  0.2375
77642SOL    HW150918   5.802   3.506  12.326  0.0036  1.4727  0.3136
77642SOL    HW250919   5.700   3.562  12.230  1.1928  1.7290 -0.8292
77643SOL     OW50920   9.939   4.312   1.860 -0.1785 -0.3297  0.2186
77643SOL    HW150921   9.859   4.355   1.892  0.8347  0.6409  1.5770
77643SOL    HW250922   9.916   4.219   1.858 -1.7348  0.0400 -0.6737
77644SOL     OW50923   0.910  10.945   3.573 -0.5544 -0.7511 -0.0065
77644SOL    HW150924   0.922  11.013   3.507 -1.6537  0.9068  1.3910
77644SOL    HW250925   0.817  10.925   3.570 -0.8227  0.0687  1.6208
77645SOL     OW50926  12.901   1.527  10.022 -0.5912 -0.1844 -0.2250
77645SOL    HW150927  12.867   1.486   9.942  0.8147 -0.6396 -0.6228
77645SOL    HW250928  12.996   1.521  10.013 -0.3987  0.5936  1.0648
77646SOL     OW50929   6.565   7.718  11.066 -0.0175  0.2391  0.0229
77646SOL    HW150930   6.637   7.656  11.070 -0.7385 -0.6452 -0.4455
77646SOL    HW250931   6.496   7.672  11.018 -0.8649  1.0935  0.3944
77647SOL     OW50932   5.338  11.867   0.125  0.1048  0.2664  0.4140
77647SOL    HW150933   5.302  11.786   0.160  1.0896  0.4016  1.8411
77647SOL    HW250934   5.262  11.922   0.108 -0.4907 -0.3410  1.0255
77648SOL     OW50935  13.600  11.560  13.080 -0.3949  0.3326 -0.3412
77648SOL    HW150936  13.515  11.521  13.060  0.4230 -2.1426  0.5887
77648SOL    HW250937  13.661  11.520  13.017  0.5749 -0.4277  1.0083
77649SOL     OW50938   1.113   8.006   0.349  0.2216 -0.3386 -0.3030
77649SOL    HW150939   1.178   7.981   0.414 -0.2583  0.8306  0.6681
77649SOL    HW250940   1.162   8.020   0.269  0.7160 -2.6939 -0.4813
77650SOL     OW50941   1.821   8.232  12.505  0.4772  0.2243  0.3799
77650SOL    HW150942   1.740   8.189  12.531  0.9898 -0.9576  0.1033
77650SOL    HW250943   1.889   8.166  12.521  0.9914 -0.1058 -2.6467
77651SOL     OW50944   6.106   1.598   9.967  0.0137  0.0817  0.0627
77651SOL    HW150945   6.173   1.630  10.026  0.1081  0.0833 -0.0444
77651SOL    HW250946   6.129   1.506   9.952 -1.0147 -0.4339  1.4311
77652SOL     OW50947  11.387   7.669   4.369  0.0560  0.3583  0.7143
77652SOL    HW150948  11.370   7.712   4.285 -0.1942  2.6949  1.8658
77652SOL    HW250949  11.474   7.629   4.358  0.1795  0.9133 -0.5450
77653SOL     OW50950  12.787   2.838   6.346  0.2758 -0.0907 -1.0019
77653SOL    HW150951  12.756   2.748   6.350 -0.4057  0.1732  1.8209
77653SOL    HW250952  12.874   2.832   6.306  1.1288 -2.3093  0.9500
77654SOL     OW50953   3.324   0.893  12.417 -0.2085  0.1805  0.2777
77654SOL    HW150954   3.280   0.856  12.341 -0.8588  1.4378  0.0197
77654SOL    HW250955   3.340   0.984  12.394 -1.1195  0.8027  1.9335
77655SOL     OW50956  13.954  11.334   1.745  0.2247  0.2526  0.0385
77655SOL    HW150957  13.917  11.321   1.658 -2.1443  0.7494  0.9109
77655SOL    HW250958  13.879  11.353   1.801  1.5379 -1.0814  2.4186
77656SOL     OW50959  14.012   8.833   2.885  0.4883  0.2067 -0.2117
77656SOL    HW150960  14.088   8.844   2.943  0.8325 -0.0027 -0.6200
77656SOL    HW250961  14.013   8.910   2.829  1.7097 -0.8134 -1.6994
77657SOL     OW50962   6.542   8.648  13.174  0.1422 -0.1281 -0.0152
77657SOL    HW150963   6.511   8.699  13.099  1.0880 -0.6742 -0.8051
77657SOL    HW250964   6.636   8.641  13.161  0.4571  0.5508  1.7385
77658SOL     OW50965   8.856  12.511  13.582 -0.2351  0.0465  0.7322
77658SOL    HW150966   8.832  12.553  13.664 -1.5744  0.7408  0.0171
77658SOL    HW250967   8.933  12.458  13.604  0.8324  1.9671  1.9146
77659SOL     OW50968  11.120  13.093   3.999 -0.8395 -0.9282  0.7696
77659SOL    HW150969  11.208  13.124   3.979 -2.3659  2.6473 -1.3799
77659SOL    HW250970  11.113  13.007   3.957  1.1943 -0.7209 -0.0657
77660SOL     OW50971   5.491   0.407  12.432  0.1759  0.2878 -0.0172
77660SOL    HW150972   5.438   0.436  12.357 -1.1884  0.7786  1.1010
77660SOL    HW250973   5.427   0.374  12.495  1.4568 -3.2681 -0.3253
77661SOL     OW50974   0.108  13.510   4.722 -0.7124 -0.5901 -0.8941
77661SOL    HW150975   0.191  13.461   4.729 -0.1623  0.2168 -1.5963
77661SOL    HW250976   0.106  13.565   4.800  0.5732  1.0988 -1.9913
77662SOL     OW50977  10.193   8.562   9.167 -0.1856  0.0087  0.1724
77662SOL    HW150978  10.191   8.542   9.261 -1.6596  1.5075  0.5030
77662SOL    HW250979  10.180   8.477   9.125  1.3904 -0.8267  1.2640
77663SOL     OW50980  13.382   5.783  11.324 -0.5418  0.4580  0.1708
77663SOL    HW150981  13.360   5.837  11.399 -0.7617 -1.1669  1.3365
77663SOL    HW250982  13.299   5.745  11.296 -0.0970 -1.2436  1.0025
77664SOL     OW50983  13.002   3.810   1.759 -0.0403  0.6037  0.3606
77664SOL    HW150984  12.942   3.759   1.814  0.2809 -0.6206 -0.3966
77664SOL    HW250985  12.948   3.881   1.724 -1.1520 -0.6427 -0.5556
77665SOL     OW50986   1.658   0.630   5.299  0.2264  1.0425  0.0455
77665SOL    HW150987   1.688   0.638   5.209 -0.1026  0.2775 -0.1401
77665SOL    HW250988   1.738   0.618   5.350  0.3009 -0.4498 -0.3800
77666SOL     OW50989   4.273  11.258   5.597 -0.2051  0.4827 -0.0268
77666SOL    HW150990   4.300  11.350   5.595 -0.8685  0.6780 -2.4118
77666SOL    HW250991   4.230  11.248   5.682  1.9786  1.7019  1.3304
77667SOL     OW50992   8.148   5.768   0.120  0.6033  0.2067 -0.2480
77667SOL    HW150993   8.142   5.686   0.072  2.2124 -0.8112  1.1803
77667SOL    HW250994   8.085   5.826   0.076  0.0813 -1.4730 -1.8532
77668SOL     OW50995   3.393  11.967   1.440 -0.3156  0.4244 -0.2786
77668SOL    HW150996   3.420  11.879   1.412 -1.0925  0.1096 -0.0528
77668SOL    HW250997   3.388  12.017   1.358 -2.8798 -0.5729 -0.8304
77669SOL     OW50998   6.945  10.461   2.462 -0.6197 -0.6521  0.0014
77669SOL    HW150999   6.887  10.529   2.429 -0.3532 -0.0823  0.6781
77669SOL    HW251000   7.007  10.446   2.390 -0.9266 -0.4799 -0.3056
77670SOL     OW51001  10.153   3.633  10.018 -0.0766  0.6639 -0.2578
77670SOL    HW151002  10.062   3.610   9.998 -0.0077  1.4690 -1.6154
77670SOL    HW251003  10.145   3.702  10.084 -0.3904 -0.2578  0.6968
77671SOL     OW51004   5.457  13.428   4.427  0.0047  0.3177  0.2571
77671SOL    HW151005   5.443  13.494   4.496 -0.8354 -0.3021  0.6993
77671SOL    HW251006   5.513  13.363   4.468  2.9303  1.8944 -0.9420
77672SOL     OW51007  12.518   0.331   7.532 -0.1920  0.7006  0.8877
77672SOL    HW151008  12.599   0.305   7.575 -0.4282 -2.6021 -0.3816
77672SOL    HW251009  12.457   0.348   7.603  0.8780  0.6708  1.8383
77673SOL     OW51010   0.798   0.945  11.963 -0.1893  0.4355  0.7300
77673SOL    HW151011   0.717   0.936  11.913  0.5860  0.4280 -0.5540
77673SOL    HW251012   0.770   0.934  12.054 -1.5649  0.0107  0.2919
77674SOL     OW51013   1.228   0.674   7.187 -0.0011  0.5218  0.3718
77674SOL    HW151014   1.198   0.759   7.154 -2.5196  0.2439  1.6855
77674SOL    HW251015   1.272   0.695   7.269 -1.7438  0.5144  1.3482
77675SOL     OW51016  13.339  10.494  10.934  0.2274  0.2057 -0.4067
77675SOL    HW151017  13.398  10.467  10.864  0.0809  1.7248 -1.1564
77675SOL    HW251018  13.351  10.589  10.940  1.1563 -0.0093  2.4942
77676SOL     OW51019  13.357   7.176   5.345  0.3886  0.9561 -0.4981
77676SOL    HW151020  13.379   7.119   5.271  1.7897 -1.0104  1.3299
77676SOL    HW251021  13.434   7.174   5.401 -1.6476 -0.1772  2.5387
77677SOL     OW51022   4.705  14.043   6.356 -0.3080 -0.8074 -0.0752
77677SOL    HW151023   4.714  14.023   6.449  1.5275  1.7366  0.3797
77677SOL    HW251024   4.611  14.055   6.343 -0.5750 -1.1198  1.4509
77678SOL     OW51025  12.276   3.236  13.850 -0.4506 -0.2523  0.1937
77678SOL    HW151026  12.268   3.142  13.834  2.2149 -0.6479  0.6603
77678SOL    HW251027  12.190   3.262  13.883 -1.9782 -2.0188 -2.0773
77679SOL     OW51028   5.128  12.101  10.303 -0.0376 -0.0865 -0.1649
77679SOL    HW151029   5.079  12.156  10.242 -1.4971 -1.2825 -0.1370
77679SOL    HW251030   5.126  12.013  10.264  0.0937 -0.6163  0.9617
77680SOL     OW51031   9.513   5.454   2.738 -0.1921  0.3090 -0.2258
77680SOL    HW151032   9.489   5.535   2.782  2.3899  1.4938 -0.8366
77680SOL    HW251033   9.494   5.470   2.645 -1.3434 -0.4733 -0.1373
77681SOL     OW51034   6.452  10.007   8.032  0.3526 -0.5357 -0.0810
77681SOL    HW151035   6.522   9.968   7.979  1.2677  1.4577 -0.4575
77681SOL    HW251036   6.492  10.022   8.117 -0.3473 -1.4504  0.4216
77682SOL     OW51037   3.010   1.176  10.410  0.0937  0.1701 -0.3127
77682SOL    HW151038   3.080   1.185  10.345 -1.7794  2.2640 -2.2224
77682SOL    HW251039   2.947   1.118  10.369 -0.1379 -0.2561  0.6179
77683SOL     OW51040   4.634   2.249  11.471 -0.3247 -0.1643  0.1075
77683SOL    HW151041   4.672   2.304  11.403 -1.6086 -1.7923 -2.0779
77683SOL    HW251042   4.667   2.161  11.452 -2.0482 -0.9432  0.4923
77684SOL     OW51043   4.102   2.839  10.914 -0.0636 -0.3597  0.8062
77684SOL    HW151044   4.183   2.825  10.961 -0.5889 -1.7066  1.3635
77684SOL    HW251045   4.054   2.757  10.923 -0.6840 -0.2637 -1.1029
77685SOL     OW51046   6.035  12.670   7.873  0.3767 -0.0180 -0.4835
77685SOL    HW151047   6.004  12.754   7.905 -1.8457 -0.4162 -1.4304
77685SOL    HW251048   6.121  12.690   7.835 -0.3594  1.9592 -1.2558
77686SOL     OW51049   6.482   7.388  10.626 -0.3995 -0.4069 -0.4560
77686SOL    HW151050   6.539   7.316  10.600 -1.0569 -1.1659  0.1409
77686SOL    HW251051   6.394   7.360  10.599 -0.9614 -0.7876  1.5991
77687SOL     OW51052  11.584   1.599   8.180 -0.4226 -0.2123 -0.0469
77687SOL    HW151053  11.533   1.635   8.252 -2.5382  1.3610 -2.1960
77687SOL    HW251054  11.520   1.553   8.125  0.9862 -0.7678 -1.3056
77688SOL     OW51055   4.968   7.838  11.911 -0.1465 -0.0010  0.2808
77688SOL    HW151056   4.892   7.882  11.873 -0.2045 -0.9279 -0.7319
77688SOL    HW251057   4.950   7.835  12.005 -0.1763  2.0139  0.3694
77689SOL     OW51058  10.967   1.601   2.414 -0.0430  0.7204 -0.0258
77689SOL    HW151059  11.056   1.630   2.395 -0.2690  1.1913 -0.3842
77689SOL    HW251060  10.914   1.641   2.346 -0.3589 -0.6287 -0.5986
77690SOL     OW51061   8.869   9.595  10.898  0.3390 -0.2861  0.0699
77690SOL    HW151062   8.785   9.556  10.872  0.9922 -2.1278  0.5401
77690SOL    HW251063   8.845   9.673  10.948 -1.0677 -0.3940 -0.3939
77691SOL     OW51064   0.795   4.845   2.104 -0.6047 -0.2810  0.5111
77691SOL    HW151065   0.734   4.917   2.124 -0.1466  0.0140  0.8616
77691SOL    HW251066   0.788   4.835   2.009 -0.5299  0.3639  0.4294
77692SOL     OW51067   3.223   3.281   0.269 -0.3672 -0.3443  0.4030
77692SOL    HW151068   3.148   3.234   0.231 -0.1293  0.0323 -0.5645
77692SOL    HW251069   3.298   3.225   0.250 -0.5724 -1.7360  3.1195
77693SOL     OW51070   7.150  11.277  13.053 -0.0889  0.2811  0.1198
77693SOL    HW151071   7.104  11.335  12.993 -1.4944 -1.1743 -0.2664
77693SOL    HW251072   7.081  11.235  13.104  0.8699 -1.1265  0.3151
77694SOL     OW51073  10.269   7.294   4.832  0.4082  0.1355  0.0448
77694SOL    HW151074  10.281   7.331   4.745  1.8197  0.3087  0.2839
77694SOL    HW251075  10.291   7.366   4.892  1.0918 -0.4500  0.5210
77695SOL     OW51076  12.497  13.971   1.655 -0.3734 -0.1744  0.2669
77695SOL    HW151077  12.533  13.886   1.629  0.8793 -0.3535  2.3886
77695SOL    HW251078  12.403  13.961   1.642 -0.1115 -1.2975 -1.0804
77696SOL     OW51079   6.352   7.124   1.137 -0.3533  0.3538  0.0754
77696SOL    HW151080   6.412   7.174   1.081 -0.8767 -0.7273 -1.5139
77696SOL    HW251081   6.406   7.052   1.171  0.0735  1.2385  1.3572
77697SOL     OW51082   8.535   0.185   2.733 -0.4008  0.3389 -0.3179
77697SOL    HW151083   8.447   0.157   2.707 -0.7599  1.5866 -0.5009
77697SOL    HW251084   8.590   0.166   2.656 -0.0161 -2.3983  0.5009
77698SOL     OW51085   3.818  10.785   7.558 -0.2540 -0.1030 -0.2612
77698SOL    HW151086   3.754  10.853   7.581  1.2411  1.6460 -0.9950
77698SOL    HW251087   3.817  10.784   7.462 -0.3702 -1.2789 -0.2601
77699SOL     OW51088   9.238  10.007   6.253  0.0874  0.1001 -0.1174
77699SOL    HW151089   9.153  10.016   6.295  0.3567  0.1099  0.4337
77699SOL    HW251090   9.229  10.054   6.170 -0.0671  1.1659  0.4937
77700SOL     OW51091   7.949   2.340   5.885 -0.0446  0.4595 -0.1159
77700SOL    HW151092   7.872   2.359   5.831 -0.9760 -0.7400  0.7281
77700SOL    HW251093   7.934   2.251   5.916  1.9573  0.0192 -0.3394
77701SOL     OW51094  11.274   3.161   5.780  0.2960 -0.1062  0.6517
77701SOL    HW151095  11.321   3.086   5.816 -1.5260 -1.3545  0.5213
77701SOL    HW251096  11.283   3.229   5.847  0.9413 -0.8327  1.3182
77702SOL     OW51097  10.130  13.526  10.855 -0.0493 -0.8408 -0.0772
77702SOL    HW151098  10.086  13.448  10.822 -0.2039 -0.3669 -1.0379
77702SOL    HW251099  10.141  13.581  10.778 -2.3715  1.2860  0.9548
77703SOL     OW51100   3.893   2.915  12.644  0.1857 -0.0516 -0.0676
77703SOL    HW151101   3.931   2.827  12.650  3.5737  1.2851  0.2365
77703SOL    HW251102   3.901   2.938  12.552 -0.8490 -0.1001 -0.1741
77704SOL     OW51103   0.560   4.278   7.056 -0.3066 -0.1525 -0.6013
77704SOL    HW151104   0.551   4.289   6.961 -2.0525 -1.3979 -0.6262
77704SOL    HW251105   0.488   4.220   7.080  0.2741 -0.0818  1.4615
77705SOL     OW51106  11.541  13.472   0.858 -0.0311 -0.8112  0.0941
77705SOL    HW151107  11.456  13.515   0.870 -0.7102 -1.9394 -0.4734
77705SOL    HW251108  11.589  13.492   0.938 -1.5607 -1.7736  1.3158
77706SOL     OW51109  10.195   3.339   1.852 -0.0540  0.3823 -0.6122
77706SOL    HW151110  10.270   3.308   1.801 -1.1312  0.5330 -2.3839
77706SOL    HW251111  10.214   3.431   1.869  0.3700  0.3045 -0.6555
77707SOL     OW51112   2.100   3.113   3.319  0.5315  0.3462 -0.2255
77707SOL    HW151113   2.024   3.112   3.376  1.1836  2.0175  0.7350
77707SOL    HW251114   2.065   3.102   3.231 -0.5601 -1.4930  0.3843
77708SOL     OW51115   0.690   9.955   6.306 -0.0073  0.1118  0.2798
77708SOL    HW151116   0.714   9.862   6.315  0.4927  0.1326 -0.7421
77708SOL    HW251117   0.760   9.993   6.254 -1.3616  0.5644 -1.2943
77709SOL     OW51118   4.841   3.365  13.567  0.1615 -0.2880 -0.0918
77709SOL    HW151119   4.908   3.425  13.533  0.9649 -1.0210  0.1434
77709SOL    HW251120   4.866   3.280  13.531 -0.2538 -0.6883  0.5623
77710SOL     OW51121   3.189  10.400  10.950  0.3554 -1.0950 -0.0682
77710SOL    HW151122   3.279  10.368  10.953  0.1569 -1.6135  0.4426
77710SOL    HW251123   3.136  10.329  10.986 -0.0022  0.0980  1.9243
77711SOL     OW51124  10.479   0.663   1.646  0.0054  0.6558  0.5506
77711SOL    HW151125  10.519   0.685   1.730  1.9397 -2.6652  0.6614
77711SOL    HW251126  10.546   0.686   1.581  1.3712 -2.6549  0.5594
77712SOL     OW51127  13.847   5.035   3.008  0.1509 -0.4652 -0.0858
77712SOL    HW151128  13.873   4.982   2.933 -1.6466 -0.5867 -0.6732
77712SOL    HW251129  13.825   4.971   3.076 -0.2116 -0.4252 -0.1627
77713SOL     OW51130   6.071   2.431  14.136 -0.1561 -0.3878 -0.7650
77713SOL    HW151131   6.100   2.370  14.205  0.6245 -1.1823 -1.7680
77713SOL    HW251132   6.086   2.518  14.173 -1.1019 -0.7781  0.6244
77714SOL     OW51133  11.170   0.478   3.312  0.3179  0.0881 -0.2100
77714SOL    HW151134  11.237   0.545   3.299  0.8183 -0.3317  0.1750
77714SOL    HW251135  11.165   0.467   3.407 -1.9255  1.7390 -0.0504
77715SOL     OW51136   1.262  14.033   4.228 -0.6786  0.1397  0.3977
77715SOL    HW151137   1.231  13.950   4.192  0.2704 -0.4358  0.8884
77715SOL    HW251138   1.221  14.100   4.172 -0.4857 -0.6820 -0.7495
77716SOL     OW51139  10.171   1.559   0.949  0.3557 -0.2008  0.3349
77716SOL    HW151140  10.250   1.603   0.917 -0.0271  0.9604  0.8999
77716SOL    HW251141  10.200   1.510   1.026  0.6246 -0.1846  0.2439
77717SOL     OW51142  12.202   0.573   7.980  0.2552  0.0784  0.1699
77717SOL    HW151143  12.240   0.542   8.063 -0.9358  0.3058  0.8292
77717SOL    HW251144  12.150   0.650   8.005 -0.5549 -0.1664 -0.6947
77718SOL     OW51145  14.078   6.958   8.357 -0.0709  0.0954  0.3294
77718SOL    HW151146  14.137   6.883   8.366  1.9135  1.3750 -1.1079
77718SOL    HW251147  13.992   6.919   8.343  1.1926 -2.0634 -2.5773
77719SOL     OW51148  14.020   0.348   0.709 -0.4254  0.2565 -0.7019
77719SOL    HW151149  14.021   0.265   0.758  0.2950  1.2421  1.0585
77719SOL    HW251150  13.955   0.334   0.640  0.5829 -2.2165 -1.2842
77720SOL     OW51151   4.455  14.092   6.237 -0.0758 -0.1774  0.4533
77720SOL    HW151152   4.387  14.159   6.242  0.0333  0.0421 -0.6870
77720SOL    HW251153   4.407  14.010   6.224 -0.1425  0.0748 -1.1751
77721SOL     OW51154   5.108   2.967   5.133  0.0611 -0.3239  0.0786
77721SOL    HW151155   5.025   3.009   5.152  0.1057  0.1186 -0.6599
77721SOL    HW251156   5.085   2.893   5.076  0.2785  0.4681 -1.0543
77722SOL     OW51157   0.734   9.893  11.781 -0.2638 -0.3595 -0.2922
77722SOL    HW151158   0.688   9.813  11.804  2.4819 -2.6955 -2.1711
77722SOL    HW251159   0.720   9.903  11.686  1.6390 -0.2711 -0.6199
77723SOL     OW51160   0.522  10.576   3.619  0.5011 -0.1393  1.0453
77723SOL    HW151161   0.553  10.624   3.542  0.6419  0.7270  1.6233
77723SOL    HW251162   0.552  10.486   3.605  0.3410 -0.0500 -0.0042
77724SOL     OW51163   9.110   8.848   9.100  0.2769 -0.7613  0.0613
77724SOL    HW151164   9.138   8.903   9.173 -1.3038 -2.4606  2.0954
77724SOL    HW251165   9.185   8.846   9.041  1.4236  1.1544  1.3431
77725SOL     OW51166   9.571   3.896  11.538  0.0308  0.0868 -0.0944
77725SOL    HW151167   9.664   3.901  11.519 -0.1013  1.4926 -0.4966
77725SOL    HW251168   9.544   3.987  11.551 -1.1902 -0.3335  0.5030
77726SOL     OW51169   0.708  12.879  13.141 -0.1684  0.0576 -0.3516
77726SOL    HW151170   0.630  12.928  13.117 -0.5453 -0.4269 -0.1310
77726SOL    HW251171   0.769  12.893  13.068  0.8941  3.2218  0.9538
77727SOL     OW51172   1.558   4.779   7.986  0.1977  0.3586 -0.4762
77727SOL    HW151173   1.556   4.815   7.898 -1.3522 -1.7510 -1.3675
77727SOL    HW251174   1.483   4.720   7.991  0.7703 -0.3031  1.9498
77728SOL     OW51175  11.163  11.239   9.435  0.1907 -0.1042  0.1149
77728SOL    HW151176  11.182  11.330   9.416  1.5524 -0.3248  0.3357
77728SOL    HW251177  11.094  11.215   9.373  0.8967  0.6409 -0.9756
77729SOL     OW51178   5.953   5.584   3.524  1.0580 -0.1154  0.3642
77729SOL    HW151179   5.900   5.505   3.519  1.8558 -0.7695  1.6531
77729SOL    HW251180   6.021   5.572   3.458  0.2308  0.2533 -0.5697
77730SOL     OW51181   5.345   0.678   7.734 -0.4700  0.1556 -0.0313
77730SOL    HW151182   5.257   0.694   7.768 -0.5618  1.9007 -0.9709
77730SOL    HW251183   5.337   0.690   7.640  0.9626  1.2998 -0.0336
77731SOL     OW51184   6.036   8.664   4.268 -0.5144 -0.4228 -0.0481
77731SOL    HW151185   6.110   8.720   4.246 -0.4000 -1.3888 -2.4599
77731SOL    HW251186   6.075   8.589   4.313  0.3609 -1.7813 -2.8087
77732SOL     OW51187   6.391   0.514  12.941 -0.1445 -0.0345 -0.4028
77732SOL    HW151188   6.384   0.427  12.903 -0.5440  0.0428 -0.5130
77732SOL    HW251189   6.315   0.561  12.908 -1.4050 -0.4416  1.7515
77733SOL     OW51190  11.541  11.735   5.646  0.3658  0.1807 -0.5581
77733SOL    HW151191  11.545  11.813   5.590  1.8073  1.8035  1.6225
77733SOL    HW251192  11.614  11.681   5.616  0.7993  0.7860 -0.6254
77734SOL     OW51193  12.167  13.942   9.407  0.1792 -0.7080  0.5206
77734SOL    HW151194  12.168  14.028   9.366  1.8964 -0.0918  1.7434
77734SOL    HW251195  12.129  13.957   9.494 -0.4607 -1.3900  0.3694
77735SOL     OW51196   9.707   8.554   9.656  0.0360  0.0254 -0.1652
77735SOL    HW151197   9.716   8.459   9.651  0.4111  0.1011 -1.1949
77735SOL    HW251198   9.789   8.584   9.694 -1.0050 -0.1989  2.5387
77736SOL     OW51199   8.188  12.041   3.104  0.0052 -0.1565  0.3045
77736SOL    HW151200   8.260  11.998   3.058  0.5999  1.7815 -0.6873
77736SOL    HW251201   8.118  12.046   3.039  0.2662  1.1144  0.0887
77737SOL     OW51202  10.972   7.979   2.873 -1.2460 -0.0422  0.3044
77737SOL    HW151203  10.986   8.030   2.793 -0.9339  0.2443  0.5377
77737SOL    HW251204  11.036   8.014   2.935 -1.8086  0.0638  0.8279
77738SOL     OW51205   7.928   9.496   1.118  0.0483  0.3784  0.3499
77738SOL    HW151206   7.933   9.518   1.025 -0.0079  1.3402  0.5672
77738SOL    HW251207   7.863   9.426   1.122 -0.1479  0.5130 -0.3057
77739SOL     OW51208   2.538   9.131   0.359 -0.1037  1.1142  0.0462
77739SOL    HW151209   2.448   9.141   0.390 -0.1548  1.1670 -0.1183
77739SOL    HW251210   2.530   9.124   0.264 -0.0923 -0.7320  0.1429
77740SOL     OW51211   4.468   8.759   2.793  0.0520  0.2890  0.1414
77740SOL    HW151212   4.478   8.851   2.817 -0.6617  0.3567  0.1819
77740SOL    HW251213   4.392   8.757   2.734 -1.3129 -0.5663  1.8508
77741SOL     OW51214   2.266  10.668   6.535 -0.8716 -0.2771  0.1666
77741SOL    HW151215   2.213  10.594   6.505 -2.6447  0.3312  1.6149
77741SOL    HW251216   2.209  10.716   6.595  0.1899  2.3063 -0.7336
77742SOL     OW51217   1.676   3.408   2.059 -0.8034  0.8807 -0.7279
77742SOL    HW151218   1.720   3.379   2.139  0.1420  2.7807 -0.4966
77742SOL    HW251219   1.608   3.342   2.044 -0.1047 -0.2694  0.8538
77743SOL     OW51220   1.059   3.792  13.225 -0.2048 -0.0723 -0.2418
77743SOL    HW151221   0.982   3.786  13.168 -0.2423  1.4104 -0.3854
77743SOL    HW251222   1.034   3.853  13.294  1.5486  2.3477 -1.5859
77744SOL     OW51223  12.306   0.570  13.012  0.0911  0.2157  0.5130
77744SOL    HW151224  12.377   0.633  13.026  1.4855 -1.2428  0.3633
77744SOL    HW251225  12.296   0.527  13.096 -0.4244  0.2106  0.4498
77745SOL     OW51226   6.228   7.281   0.490  0.2507  0.6157  0.3525
77745SOL    HW151227   6.280   7.243   0.419 -0.1509 -0.0386  0.4038
77745SOL    HW251228   6.151   7.317   0.447 -0.4455 -0.5964  0.5407
77746SOL     OW51229   0.114   7.407  12.691 -0.2656  0.5957  0.0323
77746SOL    HW151230   0.051   7.374  12.755 -0.6672  0.9332 -0.1849
77746SOL    HW251231   0.068   7.479  12.648  0.3289  0.9495 -0.0163
77747SOL     OW51232  13.092   5.256   0.706  0.1549  0.9004 -0.0632
77747SOL    HW151233  13.064   5.220   0.790 -1.4291  2.2713  0.0434
77747SOL    HW251234  13.153   5.190   0.671 -1.4868 -1.1566  0.7583
77748SOL     OW51235   0.497   5.833  11.061  0.8164  0.3698  0.5646
77748SOL    HW151236   0.491   5.872  10.974 -0.5664 -2.4612 -0.7109
77748SOL    HW251237   0.408   5.837  11.095  1.1043  0.3104  1.3444
77749SOL     OW51238   1.487   7.936  13.557  0.0269  0.1542  0.3566
77749SOL    HW151239   1.436   7.996  13.503  1.1322  0.5178 -0.3069
77749SOL    HW251240   1.467   7.961  13.647 -0.8219  0.3947  0.1129
77750SOL     OW51241  10.681   3.837   1.445  0.3200 -0.2124 -0.2544
77750SOL    HW151242  10.694   3.765   1.507  1.5176  1.9845  2.2383
77750SOL    HW251243  10.769   3.858   1.414  0.4978  2.0645  1.4921
77751SOL     OW51244   8.995   3.807   0.860 -0.3109 -0.0412  0.1385
77751SOL    HW151245   8.929   3.789   0.926  0.0702  0.1787  0.5893
77751SOL    HW251246   8.970   3.753   0.785 -0.6907 -0.3714  0.4982
77752SOL     OW51247   7.618   9.986   9.445 -0.1017 -0.5297  0.2861
77752SOL    HW151248   7.598   9.970   9.352  0.1094 -2.0540  0.4842
77752SOL    HW251249   7.625  10.081   9.451 -2.2738 -0.2291 -0.8099
77753SOL     OW51250   7.453  10.596   3.023 -0.0706 -0.0339 -0.0860
77753SOL    HW151251   7.436  10.563   3.111  1.3240 -0.1916  0.1614
77753SOL    HW251252   7.383  10.559   2.969 -0.9191  0.0362  0.9423
77754SOL     OW51253   4.093   3.813   8.976 -0.9928 -0.1724 -0.6896
77754SOL    HW151254   4.082   3.905   8.953 -2.3168  0.2432  1.3146
77754SOL    HW251255   4.070   3.766   8.896 -1.2149  1.2092 -1.4769
77755SOL     OW51256   2.586   9.945   0.859 -0.0750 -0.0190 -0.4484
77755SOL    HW151257   2.570  10.039   0.860 -1.2396 -0.2011  0.8310
77755SOL    HW251258   2.664   9.934   0.805 -0.1102  1.6397 -0.8824
77756SOL     OW51259  14.023   5.497   4.227 -0.1773 -0.2633  0.3848
77756SOL    HW151260  13.931   5.491   4.250 -1.6293  1.5928 -3.8558
77756SOL    HW251261  14.062   5.553   4.294 -2.8066  1.1282  0.8441
77757SOL     OW51262   2.439  13.149  13.826  0.3490 -0.3546 -0.0466
77757SOL    HW151263   2.465  13.206  13.755  0.3965  0.7183  0.8114
77757SOL    HW251264   2.344  13.142  13.818  0.1517  1.1090  0.7432
77758SOL     OW51265  13.958  13.409   7.841 -0.5385  0.1491  0.0888
77758SOL    HW151266  13.874  13.441   7.874 -0.6050  1.5196 -1.3189
77758SOL    HW251267  13.936  13.357   7.763 -0.2812 -2.0050  1.3616
77759SOL     OW51268   9.261   0.963   8.558  0.7765  0.3513  0.3863
77759SOL    HW151269   9.213   0.959   8.475 -0.0032  0.0336  0.8413
77759SOL    HW251270   9.352   0.976   8.532  0.6244 -0.3131 -0.5428
77760SOL     OW51271  12.868  12.397   1.488  0.2300 -0.1076  0.0495
77760SOL    HW151272  12.904  12.377   1.401 -0.1918 -1.2892  0.1282
77760SOL    HW251273  12.794  12.455   1.471 -0.2879 -0.8978 -0.4546
77761SOL     OW51274   4.753  13.297   5.239  0.4579 -0.1961 -0.1980
77761SOL    HW151275   4.754  13.210   5.278  2.3056 -0.6849 -1.2141
77761SOL    HW251276   4.671  13.336   5.269  0.2640 -1.7334  1.4572
77762SOL     OW51277  13.049   5.071   4.134 -0.3645  0.0330  0.1860
77762SOL    HW151278  13.067   5.106   4.047 -0.5856 -0.4728 -0.0642
77762SOL    HW251279  13.120   5.009   4.150  0.8718  1.6074  1.2317
77763SOL     OW51280   9.145  13.007   2.867  0.2420 -0.0265 -0.4159
77763SOL    HW151281   9.178  13.007   2.777  0.3744 -0.8504 -0.3755
77763SOL    HW251282   9.058  13.046   2.861  0.5590  0.6497 -0.7745
77764SOL     OW51283   3.190  10.112  11.838 -0.3299 -0.6158 -0.3816
77764SOL    HW151284   3.271  10.062  11.823 -1.1368 -1.7699 -1.0018
77764SOL    HW251285   3.185  10.172  11.764  0.6821  0.4916  0.4045
77765SOL     OW51286   6.627  12.596  10.953 -0.0769  0.3280  0.1145
77765SOL    HW151287   6.575  12.569  10.877  1.1896  0.7839 -0.9548
77765SOL    HW251288   6.566  12.592  11.027 -1.4447  0.2370 -0.9819
77766SOL     OW51289  11.396   1.003   4.988 -0.3757  0.7134  0.1015
77766SOL    HW151290  11.336   1.017   5.061  0.5865 -1.1440  1.3074
77766SOL    HW251291  11.377   0.914   4.958  3.1913 -0.8506  1.9817
77767SOL     OW51292   5.811   5.190   7.597  0.3470 -0.2076 -0.1734
77767SOL    HW151293   5.792   5.171   7.689 -0.3577 -1.7698 -0.6003
77767SOL    HW251294   5.783   5.281   7.585 -0.0368 -0.1485  1.0291
77768SOL     OW51295  13.474   3.670   0.698 -0.5356 -0.3932  0.6681
77768SOL    HW151296  13.566   3.676   0.723  0.0452 -1.7837 -0.9079
77768SOL    HW251297  13.469   3.590   0.645 -1.9983  1.2419 -1.8788
77769SOL     OW51298  10.651   3.996   3.996  0.1473  0.4208  0.4716
77769SOL    HW151299  10.583   3.974   3.934 -0.1369 -0.7260  1.1582
77769SOL    HW251300  10.733   3.988   3.947 -0.0747 -0.4923  0.2394
77770SOL     OW51301   4.456   3.867   4.809 -1.0302  0.2295 -0.2567
77770SOL    HW151302   4.391   3.804   4.777 -1.2936  1.2271 -1.7962
77770SOL    HW251303   4.406   3.924   4.868 -1.1443 -0.0286 -0.0973
77771SOL     OW51304   4.698  12.565   5.596 -0.5476 -0.0608  0.2174
77771SOL    HW151305   4.618  12.588   5.549  0.4376 -0.1443 -1.5479
77771SOL    HW251306   4.751  12.518   5.533 -0.4874 -3.1559  2.3447
77772SOL     OW51307   7.963  13.734  10.054 -0.2646  0.0756  0.5323
77772SOL    HW151308   8.025  13.661  10.044  1.4904  1.3928  1.2821
77772SOL    HW251309   7.939  13.733  10.146  0.3868  0.9082  0.7164
77773SOL     OW51310  12.752   8.715  12.836  0.2856 -0.2309  0.0600
77773SOL    HW151311  12.689   8.718  12.907 -0.4446  1.1413 -0.6030
77773SOL    HW251312  12.836   8.740  12.876 -0.0207  0.0274  0.5409
77774SOL     OW51313   5.179   3.587   1.164 -0.7519  0.4629  0.2272
77774SOL    HW151314   5.118   3.526   1.123 -0.3098  1.0928 -1.4473
77774SOL    HW251315   5.265   3.546   1.153 -0.1393  2.2297 -2.8988
77775SOL     OW51316   0.002  10.209   7.180  0.5259 -0.4796 -0.1801
77775SOL    HW151317   0.042  10.255   7.106  1.9726 -0.9251  0.2855
77775SOL    HW251318   0.046  10.124   7.182  0.0731 -0.7093  0.8242
77776SOL     OW51319  12.569  10.701   8.327  0.3681 -0.2750  0.7767
77776SOL    HW151320  12.570  10.797   8.330 -0.6966 -0.1255 -1.1798
77776SOL    HW251321  12.611  10.679   8.244 -1.2592 -1.3456  0.1652
77777SOL     OW51322   2.184   9.482  13.416  0.5416  0.1796  0.4070
77777SOL    HW151323   2.231   9.504  13.336 -0.4431 -0.1504 -0.2893
77777SOL    HW251324   2.251   9.476  13.484  1.4582 -0.1015 -0.5110
77778SOL     OW51325   2.474   4.473  11.651  0.0008 -0.1148  0.3412
77778SOL    HW151326   2.419   4.467  11.572  0.9649  1.3590 -0.4944
77778SOL    HW251327   2.489   4.567  11.662  1.6177 -0.4301  1.0639
77779SOL     OW51328   4.229  10.155  11.438  0.0303  0.3394  0.1509
77779SOL    HW151329   4.237  10.158  11.533  0.6069 -0.6875  0.1480
77779SOL    HW251330   4.144  10.195  11.419 -1.1908 -1.5996  1.2627
77780SOL     OW51331  10.549   2.820   1.282  0.4901  0.6710  1.3176
77780SOL    HW151332  10.611   2.793   1.349  1.4204  0.3012  0.3345
77780SOL    HW251333  10.533   2.741   1.231  0.5456  1.1653  0.5163
77781SOL     OW51334   8.943   2.125   9.311 -0.3672  0.1508  0.3115
77781SOL    HW151335   8.863   2.074   9.308 -0.4949  0.3514  0.3171
77781SOL    HW251336   9.009   2.068   9.272 -0.1995 -0.5755  1.5833
77782SOL     OW51337  10.935   3.454   5.106 -0.3769  0.1468  0.2973
77782SOL    HW151338  10.874   3.525   5.123 -1.2904 -0.8373  1.3081
77782SOL    HW251339  11.020   3.497   5.093 -0.9273  1.4109  0.7593
77783SOL     OW51340   9.387   0.982  12.339  0.7275  0.0764 -0.1043
77783SOL    HW151341   9.434   0.966  12.420 -1.6190 -1.8691  1.0120
77783SOL    HW251342   9.353   1.071  12.347  0.4226 -0.1367  1.1493
77784SOL     OW51343   6.236   1.907   5.739 -0.1402 -0.1084  0.0852
77784SOL    HW151344   6.171   1.860   5.790 -1.1903  0.7518 -0.4171
77784SOL    HW251345   6.294   1.839   5.704 -2.1050 -1.1584 -1.3301
77785SOL     OW51346   8.081   9.430  14.047 -0.3816 -0.0907 -0.3989
77785SOL    HW151347   8.057   9.339  14.063 -1.6947  0.1996 -0.5728
77785SOL    HW251348   7.997   9.473  14.029  0.2333  1.1281 -0.4020
77786SOL     OW51349   5.687  10.344  13.770  0.1309 -0.1342  0.1543
77786SOL    HW151350   5.606  10.361  13.722 -2.3811 -1.9443  3.3072
77786SOL    HW251351   5.733  10.280  13.716 -1.2256 -0.1145 -1.0993
77787SOL     OW51352   4.298  12.875   9.600 -0.4616  0.5265 -0.3990
77787SOL    HW151353   4.221  12.819   9.610 -0.6051  0.6268 -0.8730
77787SOL    HW251354   4.372  12.820   9.625 -0.6327  0.2249 -0.5487
77788SOL     OW51355  12.830  12.319   6.057 -0.4247 -0.5551  0.1182
77788SOL    HW151356  12.835  12.288   6.148 -2.0990 -0.4569  0.2717
77788SOL    HW251357  12.741  12.299   6.029 -0.1262 -0.0278 -1.3136
77789SOL     OW51358   9.948   9.065  12.286  1.0922 -0.9107  0.4623
77789SOL    HW151359   9.989   9.140  12.329  0.3708  0.0132 -0.4031
77789SOL    HW251360   9.984   8.989  12.330  0.5511 -0.0304  2.5393
77790SOL     OW51361  10.070   6.368   6.962  0.5730 -0.0625 -0.5118
77790SOL    HW151362  10.022   6.444   6.930  0.9882  0.4239 -0.0116
77790SOL    HW251363  10.013   6.329   7.028  1.2745  1.1097  0.8204
77791SOL     OW51364   1.165   9.347   0.595  0.1717 -0.0181  0.2295
77791SOL    HW151365   1.165   9.322   0.503 -0.3834 -1.7682  0.6695
77791SOL    HW251366   1.153   9.442   0.594  1.4176  0.1738 -1.5221
77792SOL     OW51367  13.638   1.787   4.459 -0.3662  0.2004  0.3167
77792SOL    HW151368  13.544   1.793   4.437 -0.4592  1.9013  0.9695
77792SOL    HW251369  13.641   1.804   4.553  0.4060 -2.5699  0.8617
77793SOL     OW51370   7.748  11.836   6.029  0.1986  0.6036  0.3251
77793SOL    HW151371   7.665  11.791   6.016  0.4130  0.6313 -1.3020
77793SOL    HW251372   7.730  11.902   6.096 -0.5820 -0.6454  1.4107
77794SOL     OW51373  10.429   9.495   5.194 -0.4644 -0.1524 -0.0768
77794SOL    HW151374  10.482   9.420   5.169  0.4732  1.2064 -2.4269
77794SOL    HW251375  10.482   9.541   5.260 -0.7162 -1.1015  0.8151
77795SOL     OW51376   9.629  11.743  11.211 -0.2126 -0.1557  0.5197
77795SOL    HW151377   9.629  11.721  11.305  1.0365  0.2703  0.6316
77795SOL    HW251378   9.571  11.819  11.205 -1.4575 -1.0648  0.7145
77796SOL     OW51379   9.866  13.944  11.414  0.5477 -0.3586  0.2247
77796SOL    HW151380   9.814  13.967  11.337 -0.2816 -0.4379  0.7550
77796SOL    HW251381   9.802  13.920  11.480  1.2937 -2.3952  0.2845
77797SOL     OW51382  11.504   9.046   8.095  0.0499 -0.3836  0.1741
77797SOL    HW151383  11.544   8.961   8.113  2.0832  0.5978  0.6404
77797SOL    HW251384  11.558   9.084   8.026 -0.5600  0.6953  0.2694
77798SOL     OW51385  13.461   3.113   7.809  0.5592  0.2616  0.2982
77798SOL    HW151386  13.523   3.159   7.752  0.8954 -1.8135 -1.1424
77798SOL    HW251387  13.389   3.175   7.821  1.2564  1.3916 -1.0154
77799SOL     OW51388   0.995   4.583   0.931 -0.0223 -0.7046 -0.2705
77799SOL    HW151389   0.900   4.579   0.939 -0.1494 -1.1901 -1.6927
77799SOL    HW251390   1.019   4.498   0.894  0.9192 -0.4069 -0.3664
77800SOL     OW51391   5.013  10.974  11.702  0.1494  0.1868  0.4105
77800SOL    HW151392   5.106  10.984  11.725  0.0750 -0.1222  0.8536
77800SOL    HW251393   4.968  10.967  11.786 -0.3850  1.2057  0.2360
77801SOL     OW51394   2.508  13.925   6.654  0.4988 -0.2511 -0.5642
77801SOL    HW151395   2.431  13.944   6.601  0.1254  0.8128  0.3255
77801SOL    HW251396   2.549  13.850   6.611 -2.5836 -2.7508  0.4773
77802SOL     OW51397  11.679   8.211   5.689 -0.2415  0.1136 -0.6526
77802SOL    HW151398  11.734   8.158   5.746  1.6024  1.2539 -1.2519
77802SOL    HW251399  11.595   8.216   5.733  0.3584 -1.0857  0.7028
77803SOL     OW51400   5.252   0.132  10.231 -0.2119  0.2363 -0.5733
77803SOL    HW151401   5.327   0.076  10.248 -1.5893 -1.6177 -0.3167
77803SOL    HW251402   5.276   0.216  10.270  1.7207 -0.2789 -0.5490
77804SOL     OW51403   8.422   4.295   4.743  0.3249  0.2350  0.1762
77804SOL    HW151404   8.369   4.306   4.664 -1.2943  1.3250  1.3503
77804SOL    HW251405   8.492   4.359   4.733 -0.5662  1.2377  0.1576
77805SOL     OW51406   3.326  10.253  12.056 -0.6961 -0.0737 -0.3474
77805SOL    HW151407   3.300  10.341  12.085  0.6463  0.5960 -1.0460
77805SOL    HW251408   3.291  10.246  11.967  0.7216  0.5181 -0.9885
77806SOL     OW51409  12.769   5.845   2.142 -0.1610 -0.4219 -0.1783
77806SOL    HW151410  12.834   5.791   2.098 -1.2653 -0.9013 -1.2917
77806SOL    HW251411  12.730   5.898   2.072 -1.9294 -1.1601  0.1964
77807SOL     OW51412  10.300   5.590   5.662 -0.4988  0.3889  0.4844
77807SOL    HW151413  10.369   5.613   5.601 -0.4115 -0.7772  0.1089
77807SOL    HW251414  10.344   5.579   5.747 -0.4345  0.8950  0.5157
77808SOL     OW51415  13.213   2.328   3.819  0.6136  0.2543 -0.0646
77808SOL    HW151416  13.127   2.300   3.852  0.8183  1.1960  1.3381
77808SOL    HW251417  13.265   2.343   3.898  1.6952  0.8661 -0.8712
77809SOL     OW51418  11.956  10.566   8.017  0.4025  0.2350 -0.6226
77809SOL    HW151419  12.026  10.628   8.034  0.7160  0.1976 -1.7011
77809SOL    HW251420  11.937  10.575   7.923 -0.5750 -0.2310 -0.4901
77810SOL     OW51421  12.034   5.893   8.226  0.2363 -0.2015 -0.7015
77810SOL    HW151422  11.960   5.934   8.182 -0.8604  1.7107  2.5576
77810SOL    HW251423  12.015   5.800   8.224 -2.1344  0.2166 -0.2877
77811SOL     OW51424   1.594   1.334  10.243 -0.0722  0.0225  0.2975
77811SOL    HW151425   1.612   1.414  10.292 -0.4967 -0.9287  2.0983
77811SOL    HW251426   1.510   1.351  10.199 -1.9647 -0.4955  3.3549
77812SOL     OW51427   5.495  14.153   8.241  0.3465 -0.2846 -0.2324
77812SOL    HW151428   5.411  14.198   8.241 -0.3605 -1.5239  0.8944
77812SOL    HW251429   5.475  14.065   8.211  0.9078 -1.0714  1.5567
77813SOL     OW51430   4.922  10.950   2.500  0.2370  0.2520  0.1736
77813SOL    HW151431   4.901  10.989   2.415  0.6331  1.8892  0.7833
77813SOL    HW251432   4.981  10.877   2.479  0.1663  0.5098 -0.9728
77814SOL     OW51433   8.280   2.768   7.993 -0.2015 -0.5878  0.0676
77814SOL    HW151434   8.226   2.794   8.069 -1.4246 -0.1504 -0.9143
77814SOL    HW251435   8.227   2.702   7.948  0.3038 -0.5014 -0.6665
77815SOL     OW51436   2.016  12.944  12.330 -0.2018  0.1541  0.0740
77815SOL    HW151437   2.099  12.939  12.375  0.7195  0.4365 -1.5081
77815SOL    HW251438   1.956  12.982  12.394  0.2746 -2.1012  1.9853
77816SOL     OW51439   1.072   5.894   1.509  0.3611  0.5713 -0.0143
77816SOL    HW151440   1.137   5.936   1.454  0.9788 -0.8019 -0.3763
77816SOL    HW251441   0.991   5.942   1.492  0.2407 -0.4556 -3.0248
77817SOL     OW51442   8.636   9.404   4.338  0.0304 -0.1076 -0.4027
77817SOL    HW151443   8.642   9.311   4.319  0.5970 -0.2319  0.3454
77817SOL    HW251444   8.550   9.415   4.380  0.4534 -0.5149  0.6169
77818SOL     OW51445   5.283   9.696   4.138 -0.1368  0.1489 -0.0707
77818SOL    HW151446   5.302   9.611   4.097 -1.0601 -0.3247  0.4543
77818SOL    HW251447   5.312   9.685   4.229  0.0609  0.5188 -0.0868
77819SOL     OW51448   4.485  12.107   9.169 -0.2714 -0.7630 -0.5911
77819SOL    HW151449   4.430  12.130   9.244  0.7054  2.8116 -0.8075
77819SOL    HW251450   4.559  12.060   9.208 -1.2577 -1.6781  0.2503
77820SOL     OW51451  13.444   5.455  11.115 -0.1224  0.0989 -0.1710
77820SOL    HW151452  13.394   5.534  11.134 -0.9749 -0.5446  0.2758
77820SOL    HW251453  13.497   5.440  11.194  0.5878  0.6181 -0.5342
77821SOL     OW51454   5.842   2.391  12.160 -0.0339 -0.2322 -0.1294
77821SOL    HW151455   5.821   2.472  12.115  0.1370  1.2864  2.3176
77821SOL    HW251456   5.756   2.354  12.184 -0.1122  0.6218  0.9893
77822SOL     OW51457   9.080   2.578   7.726 -0.0449  0.2594 -0.1583
77822SOL    HW151458   9.075   2.651   7.664 -0.9647 -0.4696 -0.9903
77822SOL    HW251459   9.152   2.524   7.692  0.0894  0.3532 -0.0249
77823SOL     OW51460  11.399   0.328   3.556  0.1507 -0.4313 -0.0613
77823SOL    HW151461  11.375   0.242   3.590 -0.8300 -0.2775 -0.3318
77823SOL    HW251462  11.443   0.310   3.473  3.4282 -0.8705  1.6167
77824SOL     OW51463   1.737   8.077   6.368  0.2106  0.3541 -0.2041
77824SOL    HW151464   1.801   8.080   6.297  0.0286 -0.6416 -0.4260
77824SOL    HW251465   1.684   8.157   6.356 -1.4087 -0.9619 -2.7303
77825SOL     OW51466   7.156   9.096  11.484 -0.5343 -0.4482 -0.1026
77825SOL    HW151467   7.107   9.019  11.514 -0.9916 -0.3923 -0.6942
77825SOL    HW251468   7.242   9.086  11.524 -1.1028 -0.3932  1.1927
77826SOL     OW51469  12.965   6.478  11.162 -0.6180 -0.0396  0.2390
77826SOL    HW151470  12.942   6.559  11.117 -1.6475 -0.8846 -0.8174
77826SOL    HW251471  12.881   6.435  11.180 -0.2351  0.1306  2.7863
77827SOL     OW51472   8.651   6.961   1.039 -0.0025  0.1155  0.2680
77827SOL    HW151473   8.717   7.004   0.985  1.0283  1.8536  2.7368
77827SOL    HW251474   8.696   6.885   1.076 -0.1124  0.0035  0.1733
77828SOL     OW51475   4.163   2.529   9.675  0.1218 -0.0475 -0.6911
77828SOL    HW151476   4.257   2.514   9.682 -0.0222 -0.6793  0.0721
77828SOL    HW251477   4.124   2.444   9.699 -0.7264  1.0939  2.4123
77829SOL     OW51478   7.820   9.814  13.585  0.4173 -0.3392 -0.6136
77829SOL    HW151479   7.838   9.902  13.618 -0.1462 -0.7830  0.9561
77829SOL    HW251480   7.897   9.763  13.611  0.4395 -0.4671 -0.9246
77830SOL     OW51481  12.017  12.824   1.805  0.1068  0.2648 -0.4125
77830SOL    HW151482  11.936  12.813   1.755 -0.6981  0.5925  0.7947
77830SOL    HW251483  12.061  12.897   1.763  0.4131 -0.6995 -1.8705
77831SOL     OW51484   2.637  12.789   8.738  0.3059 -0.4786  0.2853
77831SOL    HW151485   2.606  12.730   8.670 -0.0663 -0.1310  0.1534
77831SOL    HW251486   2.709  12.836   8.697  1.5168 -1.7928  0.8141
77832SOL     OW51487  12.895   2.215  11.601 -0.1325 -0.2077 -0.6051
77832SOL    HW151488  12.971   2.169  11.564  1.4601  2.0159 -0.2455
77832SOL    HW251489  12.897   2.194  11.694 -1.6719 -2.3791 -0.9778
77833SOL     OW51490   3.906   8.279  12.291  0.0505  0.3962  0.1287
77833SOL    HW151491   3.904   8.305  12.383 -1.4897  0.2273  0.1587
77833SOL    HW251492   3.904   8.183  12.293  1.9973  0.3141 -0.0652
77834SOL     OW51493  11.010   3.777  12.980 -0.0158  0.3557 -0.0423
77834SOL    HW151494  11.035   3.797  12.890 -1.5742 -0.9450 -0.8145
77834SOL    HW251495  11.078   3.717  13.011  0.2189  0.3531 -0.5504
77835SOL     OW51496   7.947  10.258  13.990 -0.2670  0.0653  0.1180
77835SOL    HW151497   7.972  10.210  14.069 -1.3476 -0.8431 -0.0720
77835SOL    HW251498   7.900  10.335  14.023  0.0958  0.1798  0.3754
77836SOL     OW51499   8.256   7.969   1.433  0.1765  0.5669 -0.5020
77836SOL    HW151500   8.335   8.016   1.408  0.5913  0.2894  0.2538
77836SOL    HW251501   8.286   7.880   1.452  0.0641  0.9559  1.8289
77837SOL     OW51502  13.453   8.596   2.513 -0.0886  0.7577 -0.1094
77837SOL    HW151503  13.484   8.679   2.550  1.0190  0.4324 -0.2661
77837SOL    HW251504  13.419   8.620   2.427  0.7805  0.9719 -0.4038
77838SOL     OW51505  10.758   1.607   3.271  0.4022 -0.1473  0.0843
77838SOL    HW151506  10.838   1.642   3.232  0.6872 -0.7035  0.1657
77838SOL    HW251507  10.778   1.515   3.289 -0.2918 -0.3139  0.0148
77839SOL     OW51508   8.582  10.474   9.381 -0.4377  0.6210  0.0415
77839SOL    HW151509   8.548  10.513   9.462  1.0256 -1.2897  1.6808
77839SOL    HW251510   8.557  10.382   9.387  0.9433  0.1578 -0.9819
77840SOL     OW51511  13.676   2.449  13.486 -0.4226 -0.0460  0.0237
77840SOL    HW151512  13.667   2.511  13.413  0.3514  0.0535  0.0045
77840SOL    HW251513  13.696   2.366  13.443  0.7121  0.1536  0.1416
77841SOL     OW51514   3.828   7.266  10.263 -0.0736  0.6882  0.0449
77841SOL    HW151515   3.743   7.253  10.304 -0.9770  1.9365 -1.3330
77841SOL    HW251516   3.868   7.337  10.314 -0.0942  0.4913  0.3383
77842SOL     OW51517   5.866   0.992  13.007  0.0934 -0.0801  0.1571
77842SOL    HW151518   5.816   1.022  12.931  0.9244  0.6134 -0.1276
77842SOL    HW251519   5.804   0.998  13.080  0.2350  2.5032  0.1493
77843SOL     OW51520  10.692   8.572   7.297 -0.3973  0.2520  0.0331
77843SOL    HW151521  10.613   8.559   7.243  0.3363  0.1565 -1.0564
77843SOL    HW251522  10.705   8.488   7.340 -0.3170 -0.0603 -0.5867
77844SOL     OW51523   8.811   6.948  12.428 -0.3352 -0.0503 -0.1321
77844SOL    HW151524   8.739   6.904  12.382  0.7802 -0.9785 -1.0445
77844SOL    HW251525   8.868   6.877  12.456 -0.0638  0.6391  1.1107
77845SOL     OW51526   3.779   3.680  11.412  0.0191 -0.1490  0.0507
77845SOL    HW151527   3.722   3.657  11.485  0.4073  0.2537  0.4791
77845SOL    HW251528   3.858   3.715  11.452 -0.1291  0.9358 -0.5641
77846SOL     OW51529  11.052   0.743  10.967  0.1898 -0.1050  0.2476
77846SOL    HW151530  10.977   0.713  11.019 -0.3861 -0.0146 -0.5065
77846SOL    HW251531  11.129   0.720  11.020 -0.2534 -2.1131  0.1081
77847SOL     OW51532   1.823  11.717   4.202 -0.2055 -0.3711 -0.4961
77847SOL    HW151533   1.895  11.759   4.155  0.2977 -0.8831 -0.1953
77847SOL    HW251534   1.860  11.635   4.236 -1.1441 -1.0232 -1.0010
77848SOL     OW51535   0.306   3.459   2.196  0.4052 -0.5012  0.1026
77848SOL    HW151536   0.381   3.517   2.189  2.2574 -2.7743  0.1665
77848SOL    HW251537   0.248   3.486   2.125  0.7789  1.8597  0.5777
77849SOL     OW51538   4.032   7.435   1.118 -0.0146  0.4478  0.1499
77849SOL    HW151539   4.094   7.408   1.185  1.3713  0.9171 -0.8908
77849SOL    HW251540   3.952   7.387   1.138  0.7822 -0.4333  1.3339
77850SOL     OW51541  10.644   1.532  10.000 -0.0493  0.2049  0.6485
77850SOL    HW151542  10.670   1.520  10.091 -0.6879 -0.3943  0.7677
77850SOL    HW251543  10.549   1.549  10.004 -0.2177 -0.5332  0.0670
77851SOL     OW51544  11.138   0.542  12.070 -0.3172  0.1408  0.0277
77851SOL    HW151545  11.155   0.579  11.984 -3.0675  0.3789 -0.5011
77851SOL    HW251546  11.216   0.490  12.090  0.4219  0.1643 -2.5286
77852SOL     OW51547  13.580  11.837   1.671  0.4493  0.0473 -0.0804
77852SOL    HW151548  13.588  11.921   1.627  0.3437  0.1910  0.1770
77852SOL    HW251549  13.487  11.815   1.665 -0.6848  2.3901  4.2999
77853SOL     OW51550  10.040   5.850   9.513 -0.0654  0.2624 -0.1437
77853SOL    HW151551  10.054   5.759   9.540  0.1870  0.4474  0.3443
77853SOL    HW251552  10.064   5.902   9.589 -0.6063  0.7233 -0.2795
77854SOL     OW51553  10.350  11.012   7.593 -0.8112  0.2891 -0.0454
77854SOL    HW151554  10.442  11.019   7.617 -0.1719 -1.1242 -1.8511
77854SOL    HW251555  10.308  11.085   7.638  0.9561  0.2384  1.8108
77855SOL     OW51556   7.901  10.318  12.069 -0.3311 -0.3232  0.4583
77855SOL    HW151557   7.871  10.247  12.012  0.2036 -0.3954  0.2544
77855SOL    HW251558   7.822  10.349  12.113 -0.9714  0.5027 -1.1786
77856SOL     OW51559  10.244   5.176   6.562  0.7391 -0.1222 -0.1558
77856SOL    HW151560  10.187   5.249   6.586  1.1165  1.0431 -2.4507
77856SOL    HW251561  10.248   5.180   6.466  1.6482 -2.5188 -0.2733
77857SOL     OW51562   0.864   8.960   5.401 -0.0122  0.5308 -0.4337
77857SOL    HW151563   0.784   9.011   5.404 -1.2951 -1.1220 -2.6913
77857SOL    HW251564   0.834   8.870   5.387  2.2128 -0.1152 -1.5044
77858SOL     OW51565   8.597   0.724  13.148 -0.0878 -0.3999 -0.6067
77858SOL    HW151566   8.561   0.768  13.071 -0.8066 -0.0708 -0.1046
77858SOL    HW251567   8.652   0.790  13.190  0.3540 -0.5995 -0.8746
77859SOL     OW51568   3.227   8.554  14.084  0.5063 -0.6632  0.3550
77859SOL    HW151569   3.268   8.531  14.167  0.3829 -0.8681  0.3590
77859SOL    HW251570   3.260   8.488  14.022  1.0817 -0.1561  0.1000
77860SOL     OW51571   9.833  10.457   4.184  0.1155  0.3959  0.1225
77860SOL    HW151572   9.870  10.493   4.265  0.9501 -1.4066  0.5887
77860SOL    HW251573   9.798  10.372   4.210 -1.1014  0.5061 -1.0900
77861SOL     OW51574  13.815   1.845   0.612 -0.1239 -0.0707 -0.5610
77861SOL    HW151575  13.872   1.769   0.600 -0.6154 -0.4605 -0.4448
77861SOL    HW251576  13.872   1.920   0.596  0.0727 -0.4878 -1.9948
77862SOL     OW51577  11.271  13.443   1.786 -0.2017  0.0889 -0.3467
77862SOL    HW151578  11.291  13.484   1.702 -1.9114  0.4860 -0.6016
77862SOL    HW251579  11.206  13.501   1.826  0.4679 -0.1753  1.1927
77863SOL     OW51580  12.226   3.963   7.396 -0.0326  0.2843 -0.4932
77863SOL    HW151581  12.234   3.991   7.305 -0.7691 -0.0149 -0.6568
77863SOL    HW251582  12.131   3.959   7.412  0.0850  0.6699  0.3896
77864SOL     OW51583   5.728   1.316   6.895  0.5024 -0.2830 -0.2267
77864SOL    HW151584   5.684   1.391   6.856  0.8939 -0.6167 -1.3319
77864SOL    HW251585   5.764   1.267   6.821 -0.4329 -2.0044  0.3926
77865SOL     OW51586  12.811   4.052   9.645 -0.1233 -0.2252  0.6484
77865SOL    HW151587  12.722   4.088   9.650 -0.3395 -0.3144 -1.6335
77865SOL    HW251588  12.801   3.961   9.673 -0.8217 -0.3140  0.1501
77866SOL     OW51589   8.898  10.873   2.183  0.3313 -0.2690  0.1095
77866SOL    HW151590   8.825  10.811   2.185 -1.0372  1.0913 -2.3303
77866SOL    HW251591   8.969  10.826   2.139 -0.3268 -0.4649 -0.7584
77867SOL     OW51592  13.227   4.352   1.029 -0.2505  0.5276  0.0183
77867SOL    HW151593  13.196   4.385   1.113  1.7059  1.9594  0.2512
77867SOL    HW251594  13.284   4.422   0.995 -0.6859 -0.1494 -2.3390
77868SOL     OW51595   5.081   6.246   3.761  0.3396 -0.3313 -0.0655
77868SOL    HW151596   5.019   6.192   3.808 -0.7753 -0.1513 -1.2604
77868SOL    HW251597   5.038   6.264   3.677  0.6527  2.3707  0.2572
77869SOL     OW51598   6.888   8.285   3.618  0.1231  0.2633  0.6462
77869SOL    HW151599   6.939   8.220   3.571 -0.5946 -0.5079  0.9138
77869SOL    HW251600   6.922   8.369   3.587  2.7807 -0.1495  2.0848
77870SOL     OW51601   6.251   2.970   1.872 -0.1788  0.4243  0.3739
77870SOL    HW151602   6.188   2.941   1.805  0.3511  1.3895 -0.5718
77870SOL    HW251603   6.198   3.019   1.934 -0.5133  0.4753  0.0553
77871SOL     OW51604   2.622   7.343   6.002 -0.1470 -0.4880 -0.4197
77871SOL    HW151605   2.637   7.342   5.908  2.8849 -0.7075 -0.0271
77871SOL    HW251606   2.700   7.385   6.039 -1.0466 -0.7833  2.0407
77872SOL     OW51607   8.366   0.103  11.054  0.0289 -0.3898 -0.2891
77872SOL    HW151608   8.280   0.061  11.065  0.1331 -0.6161 -0.3362
77872SOL    HW251609   8.429   0.035  11.077  0.2888 -1.1392 -2.8870
77873SOL     OW51610  11.720  11.590   5.166  0.1445 -0.4774  0.2166
77873SOL    HW151611  11.740  11.497   5.175 -1.0327 -0.6201  1.7505
77873SOL    HW251612  11.799  11.634   5.199  0.1750 -0.9477  0.7771
77874SOL     OW51613  10.077   9.170  10.086 -0.1001 -0.2272  0.1359
77874SOL    HW151614  10.038   9.246  10.130  0.0479 -0.7678  1.2454
77874SOL    HW251615  10.170   9.175  10.109  0.2042  0.1387 -1.1253
77875SOL     OW51616   8.535   3.050   7.050  0.1722 -0.0844  0.2862
77875SOL    HW151617   8.623   3.035   7.084  0.9769 -1.1211 -2.0655
77875SOL    HW251618   8.477   3.023   7.121  1.7424 -1.8227  0.9908
77876SOL     OW51619   5.021   0.718   6.648 -0.2518  0.2581 -0.2849
77876SOL    HW151620   5.029   0.736   6.742  0.0756 -0.8808 -0.0827
77876SOL    HW251621   4.934   0.752   6.625 -2.2337 -3.1872  1.3775
77877SOL     OW51622   4.004   9.963  10.264  0.3069  0.2011  0.3172
77877SOL    HW151623   3.984  10.040  10.317 -0.3502  0.4335 -0.2547
77877SOL    HW251624   3.979   9.889  10.319  1.4908  0.3600  1.1008
77878SOL     OW51625   5.988   5.596   2.517 -0.1602  0.1080 -0.2258
77878SOL    HW151626   5.978   5.613   2.423  1.2775 -0.1737 -0.4559
77878SOL    HW251627   5.910   5.545   2.540 -0.8581  0.7404 -1.1121
77879SOL     OW51628   1.721   0.759  13.371 -0.0555  0.4004 -0.4496
77879SOL    HW151629   1.682   0.808  13.299 -3.0933 -2.5673 -1.0317
77879SOL    HW251630   1.766   0.685  13.330  2.6941  1.3627  0.5326
77880SOL     OW51631   4.222  11.973   8.813  0.3156  0.0707 -0.2920
77880SOL    HW151632   4.131  11.945   8.801  0.4982  0.2226 -2.3236
77880SOL    HW251633   4.223  12.065   8.785  1.2460 -0.1856 -1.1625
77881SOL     OW51634   4.213  13.708   7.458 -0.3725 -0.0761  0.2834
77881SOL    HW151635   4.201  13.616   7.484 -1.5443 -0.1985 -0.6179
77881SOL    HW251636   4.126  13.747   7.467  0.2331  1.1239  1.2299
77882SOL     OW51637   4.113  11.292   2.025  0.0608  0.3009  0.5166
77882SOL    HW151638   4.146  11.304   1.936 -1.1943  0.8026  0.0867
77882SOL    HW251639   4.020  11.315   2.019 -0.3666 -0.9628  1.6724
77883SOL     OW51640  12.073  12.709   0.934 -0.0631  0.4777 -0.7265
77883SOL    HW151641  12.016  12.636   0.909  0.1865 -0.5764  1.5437
77883SOL    HW251642  12.147  12.668   0.978  0.5681  2.0532 -0.2435
77884SOL     OW51643   9.193  13.241   8.526  0.2389  0.4667 -0.2278
77884SOL    HW151644   9.106  13.264   8.492  0.6275  0.1174 -1.5169
77884SOL    HW251645   9.180  13.156   8.568 -0.0177  0.3211 -0.5860
77885SOL     OW51646  10.716   8.719   0.604  0.0665  0.6324 -0.5046
77885SOL    HW151647  10.775   8.652   0.568 -0.4246  0.3637 -0.8327
77885SOL    HW251648  10.660   8.671   0.665  0.2800  0.9121 -0.0907
77886SOL     OW51649  12.739   4.526   5.997  0.2914  0.4910  0.1827
77886SOL    HW151650  12.828   4.554   5.977  0.7491 -0.7761  0.3364
77886SOL    HW251651  12.712   4.582   6.071  1.1174  0.5942  0.4120
77887SOL     OW51652   9.204   8.347  14.131  0.5689 -0.7201  0.0367
77887SOL    HW151653   9.240   8.293  14.202  0.9264  1.0057  1.2290
77887SOL    HW251654   9.128   8.390  14.169  1.0954  0.6701 -0.4318
77888SOL     OW51655  12.203  12.527   1.341 -0.5150 -0.4981 -0.9294
77888SOL    HW151656  12.259  12.454   1.366 -0.1692  0.5060  1.6363
77888SOL    HW251657  12.250  12.605   1.372 -3.1826  0.4036  1.2862
77889SOL     OW51658   7.991  12.797  12.655  0.1598  0.2057 -0.3550
77889SOL    HW151659   8.057  12.729  12.647  0.1058  0.0896  0.1474
77889SOL    HW251660   7.926  12.762  12.716  0.4365  0.9298  0.3826
77890SOL     OW51661   0.801   6.508  13.280  0.2767  0.4879 -0.4699
77890SOL    HW151662   0.723   6.558  13.258 -0.0309  0.6384  0.8578
77890SOL    HW251663   0.823   6.460  13.200  0.2481  2.2819 -1.5969
77891SOL     OW51664   7.964   7.064   2.871  0.1595 -0.2525  0.0299
77891SOL    HW151665   8.011   7.117   2.808  0.2858 -0.7594 -0.3096
77891SOL    HW251666   7.885   7.035   2.824  0.4871 -1.0228 -0.0654
77892SOL     OW51667   4.004   2.473   4.336 -0.6021 -0.5051 -0.0071
77892SOL    HW151668   4.006   2.403   4.271 -0.0441 -0.7565  0.2794
77892SOL    HW251669   4.043   2.435   4.415  1.7705  0.7424 -0.4754
77893SOL     OW51670   6.014   5.070  13.628 -0.7293  0.0862  0.1028
77893SOL    HW151671   5.956   5.144  13.611 -2.2755 -0.9883  0.6092
77893SOL    HW251672   5.969   4.994  13.591  0.2828 -0.8089  0.6380
77894SOL     OW51673   9.874   3.442  12.089 -0.1814  0.4525 -0.3891
77894SOL    HW151674   9.835   3.529  12.102 -0.6901  0.0590  0.9270
77894SOL    HW251675   9.798   3.384  12.083  0.1774 -0.0167 -0.3560
77895SOL     OW51676   8.883   0.467  13.769 -0.3712 -0.2110 -0.1537
77895SOL    HW151677   8.958   0.474  13.827 -0.6931  1.0357  0.1530
77895SOL    HW251678   8.807   0.472  13.828 -0.6898 -0.5421 -0.5350
77896SOL     OW51679   9.936  13.130  12.886 -0.0131 -0.4774 -0.0780
77896SOL    HW151680   9.984  13.102  12.808  0.1293 -2.3763  0.6250
77896SOL    HW251681   9.903  13.217  12.865 -0.4314 -1.1488 -2.4604
77897SOL     OW51682   1.695   4.553  10.693  0.4443 -0.1914  0.0541
77897SOL    HW151683   1.601   4.573  10.700  0.6620  0.6405  0.6958
77897SOL    HW251684   1.718   4.581  10.605  0.2025  0.0829  0.0758
77898SOL     OW51685   4.580   5.155  12.378  0.3378  0.6548 -0.3238
77898SOL    HW151686   4.629   5.235  12.356 -0.4362  0.7038 -2.0760
77898SOL    HW251687   4.603   5.094  12.308  2.2860 -1.3340  1.9069
77899SOL     OW51688   8.585   2.638   1.145 -0.1633 -0.0223 -0.3226
77899SOL    HW151689   8.657   2.613   1.204 -0.4161  0.0911  0.0366
77899SOL    HW251690   8.523   2.566   1.151  0.2075 -0.4230 -1.1253
77900SOL     OW51691   3.481   9.105   5.109  0.4352  0.0978  0.8932
77900SOL    HW151692   3.505   9.152   5.029  1.9593 -1.6094  0.2765
77900SOL    HW251693   3.431   9.029   5.078 -0.2620  0.2160  1.6980
77901SOL     OW51694   6.681   4.759   5.991 -0.1554  0.0392 -0.1120
77901SOL    HW151695   6.710   4.689   5.932  1.5235 -0.0100  0.7203
77901SOL    HW251696   6.615   4.807   5.941 -0.1340 -1.1268 -1.3154
77902SOL     OW51697  13.452   1.613  11.305 -0.4149 -0.2314  0.1554
77902SOL    HW151698  13.456   1.689  11.248 -0.6396 -0.6021 -0.3591
77902SOL    HW251699  13.404   1.547  11.255  0.6949 -1.0799  0.1682
77903SOL     OW51700   7.850   7.019   0.075 -0.4331  0.4703 -0.0272
77903SOL    HW151701   7.887   7.023  -0.013  0.7451  3.0191  0.4770
77903SOL    HW251702   7.924   7.039   0.133 -1.6385  1.1017  1.3550
77904SOL     OW51703   1.524   1.134  11.841  0.3596 -0.1783 -0.1365
77904SOL    HW151704   1.568   1.172  11.917  1.1930 -0.4286 -0.4899
77904SOL    HW251705   1.443   1.097  11.877 -0.7870  2.3547  0.1576
77905SOL     OW51706   4.058  12.746   9.235  0.0494 -0.1735 -0.1435
77905SOL    HW151707   4.036  12.655   9.259  1.2287 -0.5699 -0.5234
77905SOL    HW251708   4.152  12.752   9.248 -0.0968  1.1885  0.4367
77906SOL     OW51709  13.850  11.918   2.421  0.0376 -0.0650  0.6106
77906SOL    HW151710  13.764  11.894   2.385 -0.1774  0.0820  1.0268
77906SOL    HW251711  13.863  12.009   2.394  0.0103 -0.0480  0.6536
77907SOL     OW51712   0.015   0.131   0.310 -1.0915 -0.2026  0.6531
77907SOL    HW151713  -0.021   0.046   0.331  0.1778 -0.6082  1.3204
77907SOL    HW251714   0.107   0.125   0.336 -0.6765  0.9581 -0.4354
77908SOL     OW51715  13.151  13.169   8.066  0.1219 -0.0066  0.2258
77908SOL    HW151716  13.152  13.102   7.997  1.7033 -0.4670  0.6365
77908SOL    HW251717  13.102  13.128   8.138  0.3436 -0.4042  0.1585
77909SOL     OW51718   4.750   5.971   6.052  0.2861 -0.2252 -0.3574
77909SOL    HW151719   4.664   6.004   6.079 -0.7301 -2.9807  0.1733
77909SOL    HW251720   4.733   5.926   5.969  1.5309  0.2874 -0.9191
77910SOL     OW51721   7.013  10.182  10.208 -0.2090  0.7418  0.6351
77910SOL    HW151722   7.053  10.099  10.183 -1.0626 -0.2084  2.2257
77910SOL    HW251723   7.043  10.197  10.298 -0.2959  2.0231  0.4716
77911SOL     OW51724   7.026   2.249   4.090  0.1084  0.4822 -0.1541
77911SOL    HW151725   6.997   2.215   4.005  0.9832  0.5881 -0.4967
77911SOL    HW251726   7.119   2.268   4.079  0.8533 -1.7096  1.5051
77912SOL     OW51727   5.712  13.615  12.339  0.0093  0.3761  0.1871
77912SOL    HW151728   5.783  13.564  12.378 -0.1085  0.3781  0.4077
77912SOL    HW251729   5.647  13.624  12.409  0.4360  1.6310  0.4382
77913SOL     OW51730   8.404   2.834   3.065  0.3175 -0.3874 -0.2085
77913SOL    HW151731   8.488   2.800   3.034  0.6572  1.6886 -1.6825
77913SOL    HW251732   8.427   2.906   3.124 -0.4377 -0.1992 -0.1312
77914SOL     OW51733   2.093  13.384  13.156 -0.4946  0.2001 -0.0015
77914SOL    HW151734   2.069  13.347  13.071 -2.4747 -0.3125  0.7065
77914SOL    HW251735   2.131  13.469  13.136 -1.0584  0.1477 -1.3995
77915SOL     OW51736   7.744   1.384   1.964  0.8876  0.4441 -0.3133
77915SOL    HW151737   7.657   1.376   1.924  0.9015  2.7497 -0.8913
77915SOL    HW251738   7.728   1.429   2.047  1.3811 -0.4870  0.3077
77916SOL     OW51739   4.504  10.084   8.878  0.1602 -0.2336  0.0973
77916SOL    HW151740   4.506  10.006   8.933  2.3959 -1.1608 -1.1661
77916SOL    HW251741   4.573  10.070   8.814  0.4198  2.6650 -0.3905
77917SOL     OW51742   1.349   6.399   9.434 -0.2353 -0.2192 -0.2841
77917SOL    HW151743   1.267   6.442   9.407 -0.8659 -1.7443 -0.9524
77917SOL    HW251744   1.390   6.372   9.352  1.6575  1.6786 -0.0358
77918SOL     OW51745   4.319   1.447  12.623  0.1310 -0.2207 -0.1139
77918SOL    HW151746   4.405   1.447  12.666 -1.0150 -3.2731  2.5895
77918SOL    HW251747   4.330   1.387  12.549  0.4103 -0.3524  0.0310
77919SOL     OW51748   9.633   9.081   4.659  0.4525 -0.3385  0.1722
77919SOL    HW151749   9.651   9.170   4.631 -0.6977 -0.5951 -1.5067
77919SOL    HW251750   9.693   9.027   4.608 -1.1673 -0.7506 -1.4106
77920SOL     OW51751  10.387   2.881  11.713 -0.2104 -0.0821 -0.1811
77920SOL    HW151752  10.467   2.907  11.667 -0.8968  0.9119 -0.8743
77920SOL    HW251753  10.364   2.958  11.764 -0.5892 -0.4499  0.2045
77921SOL     OW51754   6.793  11.565  11.397 -0.6534  0.2028  0.1259
77921SOL    HW151755   6.747  11.572  11.480  1.0657  1.3618  1.0463
77921SOL    HW251756   6.741  11.617  11.336 -0.4084  1.8019  1.2258
77922SOL     OW51757  13.541  11.029   8.906 -0.3452  0.1573 -0.1141
77922SOL    HW151758  13.506  10.976   8.977  1.4457  0.4812  1.0594
77922SOL    HW251759  13.526  10.976   8.827 -0.5795 -1.0917  0.7406
77923SOL     OW51760   7.576  14.011   3.750  0.0842 -0.5173 -0.3897
77923SOL    HW151761   7.530  14.079   3.701  0.2067 -1.1616 -1.4283
77923SOL    HW251762   7.528  13.931   3.730 -0.0058 -0.7667  0.7558
77924SOL     OW51763   1.903   8.907   2.144 -0.2331  0.1865  0.0131
77924SOL    HW151764   1.880   8.930   2.234 -0.7850 -1.0575  0.2023
77924SOL    HW251765   1.821   8.877   2.105 -0.0553  0.9785 -1.0024
77925SOL     OW51766   3.900  12.612  11.121 -0.2757 -0.0843 -0.5507
77925SOL    HW151767   3.881  12.689  11.068 -0.0875  0.0354 -0.4447
77925SOL    HW251768   3.845  12.543  11.084 -0.9043  0.2497 -0.2629
77926SOL     OW51769   7.075  12.263  13.170 -0.2834 -0.3031 -0.3705
77926SOL    HW151770   6.995  12.298  13.210 -0.3793 -0.3128 -0.5510
77926SOL    HW251771   7.110  12.203  13.236 -0.6935 -0.6723 -0.4834
77927SOL     OW51772   5.436   1.043   7.103  0.0773 -0.3478  0.1770
77927SOL    HW151773   5.529   1.063   7.096  0.0048  0.1968  0.6676
77927SOL    HW251774   5.433   0.954   7.139  0.4378  0.5758  2.6811
77928SOL     OW51775   9.094   5.634   8.650  0.1767 -0.2514 -0.2594
77928SOL    HW151776   9.148   5.689   8.593 -0.8106  0.8695 -0.1716
77928SOL    HW251777   9.155   5.596   8.713  1.0486 -0.1724 -1.0412
77929SOL     OW51778  13.479   8.115   8.739  0.3374  0.1662  0.2228
77929SOL    HW151779  13.562   8.119   8.786  0.6644  0.3473 -0.3620
77929SOL    HW251780  13.442   8.203   8.746  1.4341  0.8445 -1.7048
77930SOL     OW51781   8.017   3.680   1.949  0.0424  0.7220 -0.4642
77930SOL    HW151782   8.019   3.629   2.031  0.1996  0.7446 -0.4531
77930SOL    HW251783   8.077   3.753   1.965 -1.8929  2.2196  0.3597
77931SOL     OW51784   7.285   4.289  12.707 -0.5522 -0.1004 -0.3624
77931SOL    HW151785   7.279   4.381  12.732 -1.2138  0.5508 -2.7523
77931SOL    HW251786   7.362   4.284  12.651 -0.1997 -1.1506  0.1816
77932SOL     OW51787   2.275  10.175  12.983 -0.5352 -0.2732 -0.4354
77932SOL    HW151788   2.228  10.182  13.067 -2.5882 -1.4704 -1.4211
77932SOL    HW251789   2.307  10.264  12.967 -1.9959  0.4823  0.5744
77933SOL     OW51790   4.999   4.724   7.427 -0.0875 -0.3563  0.0232
77933SOL    HW151791   5.056   4.649   7.440  0.8425  0.2113 -0.6113
77933SOL    HW251792   5.001   4.771   7.510  1.3959  0.3215 -0.3625
77934SOL     OW51793  13.871   3.473   5.205 -0.2078 -0.0161 -0.3902
77934SOL    HW151794  13.851   3.471   5.111 -1.2231 -0.0148 -0.1926
77934SOL    HW251795  13.912   3.558   5.219 -1.7342  0.7751 -0.5398
77935SOL     OW51796  10.825   3.971   8.200 -0.3573 -0.2751 -0.5323
77935SOL    HW151797  10.811   4.061   8.230  2.5505  0.2761 -0.4841
77935SOL    HW251798  10.861   3.981   8.112  2.0185 -1.2057  0.2613
77936SOL     OW51799   9.859   1.734  13.479  0.0456 -0.7475 -0.6961
77936SOL    HW151800   9.864   1.640  13.490  1.0999 -0.8645 -1.8772
77936SOL    HW251801   9.919   1.753  13.406 -0.2603  0.8067 -0.5885
77937SOL     OW51802   6.690   7.954   9.377  0.4737  0.3736 -0.0268
77937SOL    HW151803   6.775   7.946   9.332  0.6999  1.7567  0.1155
77937SOL    HW251804   6.647   8.028   9.334 -1.7129 -1.7025 -1.6838
77938SOL     OW51805   5.753   1.267   2.217  0.6813  0.3530  0.2590
77938SOL    HW151806   5.721   1.200   2.157 -3.1541 -0.2490  2.6290
77938SOL    HW251807   5.724   1.350   2.177  2.4037  0.4085 -0.9764
77939SOL     OW51808   0.296   1.720  13.212  0.6547 -0.3990  0.0735
77939SOL    HW151809   0.372   1.755  13.260  2.0984 -1.2274 -1.5222
77939SOL    HW251810   0.256   1.658  13.273 -0.8258  2.4170  2.2352
77940SOL     OW51811   6.648  11.994   1.787 -0.3576  0.4110  0.0004
77940SOL    HW151812   6.691  11.928   1.734 -0.3679  0.4086 -0.0049
77940SOL    HW251813   6.653  11.961   1.877 -0.5875  0.2798 -0.0336
77941SOL     OW51814  12.760   9.626   7.756  0.3205 -0.9553  0.0538
77941SOL    HW151815  12.797   9.713   7.743 -0.0199 -1.1425 -2.8855
77941SOL    HW251816  12.835   9.567   7.753  0.3752 -0.8914  0.1688
77942SOL     OW51817  13.825   6.283   6.839 -0.5840 -0.0084  0.1858
77942SOL    HW151818  13.829   6.306   6.746  0.2570  1.5730  0.5810
77942SOL    HW251819  13.732   6.270   6.857 -0.8328  0.4736 -0.7030
77943SOL     OW51820   6.961   5.463   4.505 -0.0077 -0.2714 -0.8903
77943SOL    HW151821   6.894   5.515   4.550  0.1997  1.0444 -2.0266
77943SOL    HW251822   6.912   5.417   4.436 -0.1077 -1.1945 -0.2123
77944SOL     OW51823   2.229  11.165  13.368 -0.4703 -0.4501 -0.4683
77944SOL    HW151824   2.136  11.142  13.371 -0.1394 -2.8901 -3.5635
77944SOL    HW251825   2.275  11.083  13.386  1.2098  0.8820  1.8607
77945SOL     OW51826  12.816   7.742   2.255 -0.0052  0.0743  0.1422
77945SOL    HW151827  12.782   7.797   2.325 -0.7122 -0.0926 -0.0544
77945SOL    HW251828  12.773   7.657   2.268 -0.5208  0.1781 -0.7601
77946SOL     OW51829   3.381  11.711   7.649 -0.6504  0.0734  0.0352
77946SOL    HW151830   3.370  11.775   7.719 -1.4129  0.9740 -0.8656
77946SOL    HW251831   3.299  11.715   7.600 -0.0606 -0.3827 -1.0255
77947SOL     OW51832  12.217  10.712   6.742  0.2610 -0.3267  0.1085
77947SOL    HW151833  12.171  10.733   6.824 -1.3689 -1.3206 -0.4960
77947SOL    HW251834  12.146  10.699   6.678  1.4927  0.5508 -1.5136
77948SOL     OW51835   8.888   1.147   5.167 -0.1811 -0.2501  0.1875
77948SOL    HW151836   8.977   1.171   5.141  0.2077 -1.5819  0.2113
77948SOL    HW251837   8.887   1.160   5.262  0.4921 -1.6577  0.4186
77949SOL     OW51838  10.107  10.718   0.039 -0.1100  0.1244  0.3367
77949SOL    HW151839  10.190  10.755   0.069  0.1299 -0.7879  0.8331
77949SOL    HW251840  10.130  10.665  -0.038 -0.0154 -1.1274  1.1979
77950SOL     OW51841   4.655   3.610   4.152 -0.1870 -0.2180  0.2768
77950SOL    HW151842   4.575   3.561   4.135  0.8693 -2.5959  1.5906
77950SOL    HW251843   4.726   3.546   4.139  1.3492  1.2011  1.2237
77951SOL     OW51844  13.173  14.102  13.883 -0.4555 -0.5392  0.1081
77951SOL    HW151845  13.095  14.049  13.866  0.1499 -0.9148 -1.7453
77951SOL    HW251846  13.159  14.182  13.834  1.2767 -1.5563 -2.2024
77952SOL     OW51847  11.330   2.865  12.516  0.0102  0.4068  0.5625
77952SOL    HW151848  11.276   2.942  12.497 -0.5504 -0.0075  0.4505
77952SOL    HW251849  11.278   2.815  12.579 -0.2585 -0.5514 -0.3901
77953SOL     OW51850   4.358   1.236   7.213 -0.3898  0.2894 -0.1884
77953SOL    HW151851   4.346   1.214   7.306  1.0769 -1.0760 -0.2695
77953SOL    HW251852   4.350   1.331   7.209 -1.9562  0.2591  1.0784
77954SOL     OW51853   5.178   9.418   1.100 -0.3081  0.0870 -0.1807
77954SOL    HW151854   5.103   9.463   1.139  0.7287  1.1894  0.6524
77954SOL    HW251855   5.205   9.475   1.027 -0.0013 -0.0495 -0.1771
77955SOL     OW51856   4.624   7.249   3.955 -0.3826  0.6823 -0.5147
77955SOL    HW151857   4.529   7.248   3.969 -0.2709 -1.1413  0.5178
77955SOL    HW251858   4.657   7.315   4.016 -0.8784  0.2540  0.2351
77956SOL     OW51859   2.153   2.160   4.433  0.3643 -0.4146  0.0258
77956SOL    HW151860   2.173   2.087   4.491 -0.3642  0.1145  0.9719
77956SOL    HW251861   2.110   2.119   4.358  0.5354 -1.0236  0.2519
77957SOL     OW51862   9.062   0.355   4.062  0.0427  0.7595  0.7812
77957SOL    HW151863   9.052   0.276   4.116  0.8145  0.1267  0.0277
77957SOL    HW251864   9.048   0.326   3.972 -1.7795  1.9152  0.6269
77958SOL     OW51865   2.424   8.513   6.020  0.1823 -0.2984 -0.1226
77958SOL    HW151866   2.348   8.523   5.963  1.0073  0.2858 -1.1522
77958SOL    HW251867   2.387   8.514   6.109 -1.0193 -0.2005 -0.5989
77959SOL     OW51868   5.256   7.856   3.864 -0.1723  0.1803 -0.3312
77959SOL    HW151869   5.190   7.825   3.925 -0.3359  0.4591 -0.3676
77959SOL    HW251870   5.273   7.781   3.807 -1.0311  0.3453 -0.8210
77960SOL     OW51871  11.117  10.628   7.553  0.4106  0.5552  0.1329
77960SOL    HW151872  11.094  10.720   7.566 -1.0116  0.2233  0.1085
77960SOL    HW251873  11.064  10.600   7.479 -0.5218 -0.7272  1.2237
77961SOL     OW51874   0.501  13.303  11.727 -0.1368  0.0162  0.4510
77961SOL    HW151875   0.494  13.240  11.798  2.1760 -1.3768 -0.4572
77961SOL    HW251876   0.558  13.261  11.663  0.1582  2.3748 -0.9468
77962SOL     OW51877  11.254   2.943  13.509 -0.2662  0.2956  0.3332
77962SOL    HW151878  11.221   2.945  13.420 -0.4742  1.9342  0.4141
77962SOL    HW251879  11.346   2.917  13.500  0.1345  1.8696 -0.5345
77963SOL     OW51880  12.015   0.056  10.097 -0.4461  0.5627 -0.3244
77963SOL    HW151881  12.053   0.008  10.169 -1.7825  2.5214  1.8266
77963SOL    HW251882  12.090   0.092  10.049  0.4582 -0.7433  0.0884
77964SOL     OW51883   2.359  13.931   2.778  0.0367  0.2047  0.3199
77964SOL    HW151884   2.387  14.005   2.831  0.4962  0.8661 -0.8021
77964SOL    HW251885   2.440  13.898   2.738 -0.4037  0.3377 -0.7156
77965SOL     OW51886   5.224  13.071   1.695 -0.4153 -0.0903 -0.1297
77965SOL    HW151887   5.301  13.083   1.751  0.8861 -0.6532 -1.6861
77965SOL    HW251888   5.175  13.001   1.737  0.1618 -0.0232  0.6812
77966SOL     OW51889   1.199  13.427   9.189 -0.2306 -0.1105  0.4023
77966SOL    HW151890   1.188  13.344   9.236 -0.2650  0.6521  1.7941
77966SOL    HW251891   1.132  13.425   9.120  0.0038 -1.3801  0.1972
77967SOL     OW51892   3.063   5.559   7.542 -0.3448 -0.2519  0.4284
77967SOL    HW151893   3.059   5.584   7.634  1.8467  5.3127 -0.5668
77967SOL    HW251894   3.157   5.552   7.523 -0.6534  0.4847 -1.6655
77968SOL     OW51895   9.097   8.966   6.192 -0.1222 -1.0122 -0.0933
77968SOL    HW151896   9.022   8.948   6.136 -0.2358 -3.6856  0.7525
77968SOL    HW251897   9.060   8.977   6.279  0.2738  0.4165 -0.0845
77969SOL     OW51898  10.678   4.761   2.535 -0.4433 -0.5420 -0.5217
77969SOL    HW151899  10.699   4.690   2.596 -0.1704 -0.3800 -0.4251
77969SOL    HW251900  10.584   4.774   2.544 -0.0842  1.0674  1.5946
77970SOL     OW51901   4.270   4.549   7.976  0.3419  0.6597 -0.2377
77970SOL    HW151902   4.250   4.459   7.950 -1.1475  0.6656  0.7687
77970SOL    HW251903   4.349   4.571   7.927 -0.2202 -0.6030 -1.8148
77971SOL     OW51904   4.518   7.781   3.700  0.7010 -0.4940 -0.5530
77971SOL    HW151905   4.440   7.735   3.669 -0.7977  3.0607 -2.6778
77971SOL    HW251906   4.493   7.818   3.785 -0.4961  1.5752 -1.7262
77972SOL     OW51907   4.782  12.620   3.596  0.2278  0.0430  0.0022
77972SOL    HW151908   4.806  12.542   3.546  1.8737 -0.1201  0.9837
77972SOL    HW251909   4.693  12.604   3.625  0.6653 -1.6521  0.5003
77973SOL     OW51910   7.495  14.042   8.499  0.2235 -0.1121  0.1556
77973SOL    HW151911   7.474  13.952   8.476 -1.0641  0.3954 -0.7950
77973SOL    HW251912   7.435  14.063   8.572 -0.2628  0.2948 -0.3464
77974SOL     OW51913   4.395   6.549  13.406 -0.1081  0.0195  0.1936
77974SOL    HW151914   4.373   6.624  13.352  0.1904  0.7415  1.0519
77974SOL    HW251915   4.491   6.545  13.405 -0.0927  0.1075  0.7461
77975SOL     OW51916  11.599   3.681   2.635 -0.1823  0.0237 -0.0651
77975SOL    HW151917  11.687   3.667   2.669  0.6080  0.9385 -1.6293
77975SOL    HW251918  11.609   3.678   2.540 -1.7386  0.7861 -0.2866
77976SOL     OW51919   6.362  10.713   5.181 -0.2337 -0.0044 -0.0813
77976SOL    HW151920   6.406  10.689   5.099 -0.9616 -1.1451 -0.1668
77976SOL    HW251921   6.365  10.632   5.233 -0.7547  0.3925  0.5721
77977SOL     OW51922  14.084   5.283   9.359  0.0333  0.0687 -0.3709
77977SOL    HW151923  14.021   5.214   9.340 -1.7298  1.7680 -1.1911
77977SOL    HW251924  14.101   5.324   9.273 -0.6020  1.8944  0.3101
77978SOL     OW51925  10.963  10.616   6.870  0.0854 -0.0500  0.0201
77978SOL    HW151926  11.028  10.631   6.801  1.6384  0.2110  1.4624
77978SOL    HW251927  11.015  10.609   6.950 -0.9756 -6.0312  0.6528
77979SOL     OW51928   9.447   6.018   2.816  0.1569  0.0754  0.4541
77979SOL    HW151929   9.482   5.956   2.881 -0.2157  1.0122  1.5875
77979SOL    HW251930   9.355   6.028   2.841  0.2073  1.0502  0.2741
77980SOL     OW51931   1.235   6.569   5.037  0.1318  0.3796 -0.1487
77980SOL    HW151932   1.175   6.630   5.080  2.1020  1.3258  1.4320
77980SOL    HW251933   1.294   6.541   5.107  0.9024 -1.3290 -1.4243
77981SOL     OW51934   1.166   9.380   4.349 -0.0494  0.6971 -0.3616
77981SOL    HW151935   1.221   9.381   4.428 -2.0866  0.7450  1.1339
77981SOL    HW251936   1.085   9.339   4.377 -0.8468  0.7212 -2.4656
77982SOL     OW51937  12.448   4.469   3.698  0.0685  0.4570  0.7423
77982SOL    HW151938  12.513   4.536   3.676 -0.7759  1.7323  1.9715
77982SOL    HW251939  12.485   4.425   3.774  0.5224 -0.3695  0.0642
77983SOL     OW51940   7.449  10.668  13.941 -0.4144  0.2301  0.5230
77983SOL    HW151941   7.415  10.742  13.890 -0.4193  1.1335  1.7926
77983SOL    HW251942   7.386  10.597  13.924 -1.3159  0.9979  0.5349
77984SOL     OW51943   6.408   7.024   4.333  0.7443 -0.0231 -0.1757
77984SOL    HW151944   6.445   7.036   4.245  0.4391 -1.1631 -0.4696
77984SOL    HW251945   6.316   7.004   4.318  1.0989 -2.2724  0.2431
77985SOL     OW51946   7.647   7.785   2.144  0.1451  0.6771 -0.6800
77985SOL    HW151947   7.672   7.743   2.062  1.7987 -0.9649  0.5904
77985SOL    HW251948   7.703   7.863   2.149  0.8195  0.1957 -0.6174
77986SOL     OW51949  13.310  10.893  11.475 -0.2356  0.4246  0.1284
77986SOL    HW151950  13.267  10.894  11.390  1.3206  0.8006 -0.6982
77986SOL    HW251951  13.239  10.895  11.538 -1.4149  1.1192 -1.1664
77987SOL     OW51952  13.534  10.184   1.367  0.0096 -0.5131  0.0552
77987SOL    HW151953  13.587  10.142   1.299  0.5270 -0.1778  0.2473
77987SOL    HW251954  13.445  10.153   1.350 -0.3528  1.4964 -2.3572
77988SOL     OW51955  10.758  12.245   7.153 -0.7657  0.1990 -0.5209
77988SOL    HW151956  10.807  12.307   7.099 -1.4099 -0.7403 -2.2493
77988SOL    HW251957  10.825  12.195   7.200 -0.0514 -0.4809 -2.1846
77989SOL     OW51958   0.565  13.321  13.069 -0.3944 -0.6527 -0.2573
77989SOL    HW151959   0.639  13.277  13.112  0.6003  0.8687 -0.3376
77989SOL    HW251960   0.604  13.371  12.998 -1.7279 -1.1077 -1.3527
77990SOL     OW51961  12.526   0.581   3.305 -0.7022 -0.7538 -0.0937
77990SOL    HW151962  12.500   0.645   3.239  0.7909 -1.1035 -1.0886
77990SOL    HW251963  12.463   0.591   3.376 -1.6280  0.4779 -1.0582
77991SOL     OW51964   8.822   2.335   0.206 -0.4023 -0.2475  0.8892
77991SOL    HW151965   8.775   2.257   0.234  0.1229 -0.1254  2.2025
77991SOL    HW251966   8.892   2.345   0.271  0.6713  0.2732 -0.3007
77992SOL     OW51967   9.293  12.320   9.460  0.7206  0.1426 -0.0811
77992SOL    HW151968   9.294  12.231   9.497 -1.1714  0.5243  1.0314
77992SOL    HW251969   9.385  12.340   9.443  1.0985 -2.5977 -1.8208
77993SOL     OW51970   7.492   9.752   5.422 -0.7087  0.7506 -0.3690
77993SOL    HW151971   7.476   9.659   5.408 -1.6702  0.8547 -0.0861
77993SOL    HW251972   7.568   9.772   5.368  1.3179 -0.7949  1.7379
77994SOL     OW51973  12.370   8.898   6.990 -0.4289  0.0817  0.2756
77994SOL    HW151974  12.452   8.876   7.034 -0.7071  1.7024  1.7100
77994SOL    HW251975  12.395   8.914   6.899  0.3928 -1.9552  0.0865
77995SOL     OW51976   4.631  11.891   9.020 -0.6242  0.5466 -0.5107
77995SOL    HW151977   4.578  11.857   8.947 -2.4597 -2.6197  2.0209
77995SOL    HW251978   4.569  11.944   9.071 -0.4823 -0.4694  0.7510
77996SOL     OW51979   7.910   2.378   4.261  0.5620 -0.0050  0.3165
77996SOL    HW151980   7.832   2.342   4.303  2.0891 -0.3555  3.1350
77996SOL    HW251981   7.931   2.456   4.313  0.9657  1.2880 -1.6839
77997SOL     OW51982   3.403   4.023   5.449  0.4728  0.3343 -0.3297
77997SOL    HW151983   3.439   3.944   5.491 -1.3743  0.2013  1.1301
77997SOL    HW251984   3.467   4.091   5.466  0.6056 -0.1480  1.1874
77998SOL     OW51985   1.489   5.718  11.839  0.2488  0.4555  0.2072
77998SOL    HW151986   1.429   5.648  11.816  0.0784  0.8089 -0.4437
77998SOL    HW251987   1.485   5.779  11.766 -0.2136  1.5566  1.1146
77999SOL     OW51988  12.022   4.977   5.392 -0.7030  0.1138  0.4438
77999SOL    HW151989  12.036   4.979   5.298 -3.9214 -0.8509 -0.1829
77999SOL    HW251990  12.094   4.923   5.426  0.1869 -0.0107 -1.5174
78000SOL     OW51991   3.314   6.508   3.141  0.0410 -0.5687  0.0587
78000SOL    HW151992   3.285   6.440   3.080 -0.2817 -0.1966 -0.2130
78000SOL    HW251993   3.369   6.566   3.088  1.3847 -1.3110  0.5907
78001SOL     OW51994  13.980   6.750  13.065 -0.1212 -0.4028 -0.3719
78001SOL    HW151995  14.049   6.785  13.121 -1.4279  0.2462  0.8956
78001SOL    HW251996  13.938   6.827  13.028 -0.8259 -0.7443 -0.3009
78002SOL     OW51997  13.450   8.067   8.314  0.3958  0.1512  0.2296
78002SOL    HW151998  13.535   8.065   8.356  0.2059  1.6604  0.7601
78002SOL    HW251999  13.387   8.068   8.386 -0.0220  0.2323 -0.1273
78003SOL     OW52000   8.486  11.015  10.209 -0.1999  0.2415  0.2039
78003SOL    HW152001   8.513  11.086  10.150  1.0059 -1.0437 -0.8468
78003SOL    HW252002   8.452  10.947  10.151 -0.6224 -0.3681  1.1379
78004SOL     OW52003  11.699   5.375  12.164 -0.3083  0.7564  0.6572
78004SOL    HW152004  11.714   5.453  12.111  1.5095  0.5184  0.7471
78004SOL    HW252005  11.749   5.391  12.244 -0.5125 -0.2045  0.9919
78005SOL     OW52006   4.969   2.569   0.857 -0.6573 -0.3261 -0.3185
78005SOL    HW152007   4.952   2.476   0.873  0.3872 -0.6326 -0.8958
78005SOL    HW252008   5.030   2.594   0.927  2.5424 -1.2295 -2.5657
78006SOL     OW52009   0.661   6.993  13.725 -0.1883  0.4178  0.0083
78006SOL    HW152010   0.703   6.909  13.744  0.5951  1.2373  2.3402
78006SOL    HW252011   0.733   7.053  13.708 -0.6761  0.8718 -0.5070
78007SOL     OW52012   4.013   8.476  13.230  0.2208  0.7062  0.2341
78007SOL    HW152013   4.029   8.515  13.144  0.2259  0.3087  0.0567
78007SOL    HW252014   3.922   8.497  13.249  0.8754  2.9197  1.2235
78008SOL     OW52015   3.109   6.259   1.097  0.2020 -0.0757  0.0330
78008SOL    HW152016   3.115   6.231   1.189 -1.1954  0.7100  0.3909
78008SOL    HW252017   3.200   6.269   1.069  0.6508 -0.4295  1.3045
78009SOL     OW52018   6.497   1.697   8.995  0.4357 -0.1355 -0.0470
78009SOL    HW152019   6.464   1.751   9.067 -0.0887 -1.3743  0.6765
78009SOL    HW252020   6.583   1.668   9.025  0.6942  0.2377 -0.4119
78010SOL     OW52021   2.345   2.552   8.565 -0.1542  0.5344 -0.3631
78010SOL    HW152022   2.282   2.553   8.638 -1.4425 -0.2459 -1.4231
78010SOL    HW252023   2.290   2.543   8.487  1.3122 -0.6209 -1.2995
78011SOL     OW52024   7.187   2.247   6.028  0.1603  0.0548 -0.0218
78011SOL    HW152025   7.174   2.279   5.938  0.0023 -1.3063 -0.5009
78011SOL    HW252026   7.185   2.327   6.082  0.1076  0.8794 -1.2008
78012SOL     OW52027  11.087  10.916   5.333  0.1959  0.2867  0.0601
78012SOL    HW152028  11.013  10.945   5.280  0.2958 -0.6804 -0.6418
78012SOL    HW252029  11.117  10.995   5.379 -0.7004  0.8693 -0.3364
78013SOL     OW52030   1.448   1.089   9.602  0.1582  0.2358  0.0327
78013SOL    HW152031   1.524   1.083   9.660 -1.1345 -1.3202  1.6922
78013SOL    HW252032   1.393   1.157   9.641 -1.2893 -1.6509  1.4684
78014SOL     OW52033   0.929   3.192  12.255 -0.7626  0.2316  0.1708
78014SOL    HW152034   0.858   3.218  12.195  0.3109  1.6035 -0.5730
78014SOL    HW252035   0.994   3.151  12.199 -0.0106  0.9783  0.4838
78015SOL     OW52036  10.889   6.462   8.640  0.7222  0.1226  0.0169
78015SOL    HW152037  10.920   6.455   8.550  0.2225  0.0180 -0.1518
78015SOL    HW252038  10.967   6.486   8.691  1.7944 -3.0526  0.1058
78016SOL     OW52039   7.094   5.193   9.791  0.0061 -0.4943  0.1366
78016SOL    HW152040   7.130   5.154   9.871  0.7673  1.3253  0.7233
78016SOL    HW252041   7.133   5.140   9.721  0.5397 -1.1713  0.9090
78017SOL     OW52042   2.960  12.049  12.813  0.6105  0.1333  0.0256
78017SOL    HW152043   2.892  12.047  12.746 -0.4321 -0.4858  1.0600
78017SOL    HW252044   3.030  11.994  12.777  0.0578 -0.2146 -0.5410
78018SOL     OW52045  10.001   4.021   1.565  0.3266  0.0912  0.0975
78018SOL    HW152046   9.956   4.043   1.647  0.4646  0.7197  0.0119
78018SOL    HW252047   9.940   3.965   1.517  0.0837  0.0473  0.4553
78019SOL     OW52048   2.773  12.678   6.425  0.0259  0.5032 -0.2734
78019SOL    HW152049   2.758  12.772   6.429 -1.0430  0.3445 -0.1217
78019SOL    HW252050   2.808  12.656   6.511 -1.0081  0.5763  0.1877
78020SOL     OW52051   2.783  11.707   7.704 -0.0985 -0.9044 -0.3459
78020SOL    HW152052   2.745  11.666   7.626  0.0255 -0.3888 -0.6824
78020SOL    HW252053   2.844  11.642   7.738 -2.1377 -2.2889  0.9271
78021SOL     OW52054   4.066  10.258   5.335 -0.3187 -0.0117 -0.1963
78021SOL    HW152055   4.144  10.310   5.315 -0.3631  0.1259 -0.0104
78021SOL    HW252056   4.038  10.289   5.421  0.2667 -1.0822  0.3947
78022SOL     OW52057   8.492   7.054   9.792 -0.4902  0.3049 -0.3971
78022SOL    HW152058   8.489   7.118   9.721 -0.0171  0.6978 -0.0664
78022SOL    HW252059   8.425   7.082   9.854 -2.4202 -1.2312 -1.6600
78023SOL     OW52060  12.973   5.894  10.754  0.5492  0.2563 -0.2601
78023SOL    HW152061  12.918   5.815  10.744  1.7910 -0.7325  0.4275
78023SOL    HW252062  12.957   5.922  10.844  0.5628  0.4463 -0.3177
78024SOL     OW52063   9.885   0.125  13.730  0.0925  0.1224 -0.2955
78024SOL    HW152064   9.833   0.169  13.662  0.9039  0.6700 -0.5754
78024SOL    HW252065   9.963   0.180  13.740  1.8017 -1.9037 -1.6152
78025SOL     OW52066   3.529   4.091  11.546  0.0043  0.1503 -0.5395
78025SOL    HW152067   3.621   4.117  11.538 -0.0007  0.3549  0.0848
78025SOL    HW252068   3.495   4.145  11.617 -0.6920  0.3201 -0.9971
78026SOL     OW52069   3.021   4.168  11.733 -0.7281  0.3433  0.1191
78026SOL    HW152070   3.055   4.156  11.822  3.4134  3.6317 -0.7025
78026SOL    HW252071   2.981   4.254  11.734 -0.4951  0.4908 -1.2166
78027SOL     OW52072   3.540   4.352  14.097 -0.0946 -0.4581 -0.1803
78027SOL    HW152073   3.459   4.369  14.146  0.6077 -0.2882  0.9750
78027SOL    HW252074   3.523   4.271  14.050 -0.6978 -0.8052  0.6119
78028SOL     OW52075  12.481   4.639   1.100  0.0099  0.3169 -0.1023
78028SOL    HW152076  12.479   4.712   1.039 -0.1110  1.1968  0.9129
78028SOL    HW252077  12.395   4.638   1.141  0.0470 -0.3201 -0.0179
78029SOL     OW52078  11.120   6.175   3.107  0.2705  0.7031  0.3107
78029SOL    HW152079  11.049   6.120   3.141 -2.0392  2.4197 -1.3808
78029SOL    HW252080  11.161   6.212   3.185  1.8136 -3.0324  1.5329
78030SOL     OW52081   6.608   4.121   6.997  0.3094  0.3860 -0.1989
78030SOL    HW152082   6.573   4.125   6.908  1.9328 -0.2310 -0.9086
78030SOL    HW252083   6.550   4.060   7.043  0.3372 -0.4707 -1.2729
78031SOL     OW52084   0.062   2.658   7.719  0.0840  0.3177 -0.1293
78031SOL    HW152085   0.066   2.640   7.625  0.3863  0.4973 -0.1496
78031SOL    HW252086   0.005   2.589   7.753 -0.4400  0.5557 -0.5169
78032SOL     OW52087   7.360   6.162  10.505  0.2096  0.5511 -0.0529
78032SOL    HW152088   7.440   6.118  10.534 -1.5564 -2.1678  1.1741
78032SOL    HW252089   7.369   6.167  10.410  1.2488 -1.1021 -0.0945
78033SOL     OW52090   8.063  12.571   3.701 -0.3434  0.0723 -0.2052
78033SOL    HW152091   7.978  12.550   3.663  0.1769 -0.3279 -1.1943
78033SOL    HW252092   8.073  12.509   3.773  0.0299 -1.3917 -1.4486
78034SOL     OW52093   5.960  10.234  13.301  0.2414 -0.2595  0.1415
78034SOL    HW152094   5.870  10.229  13.335 -0.1527  1.3302 -0.5905
78034SOL    HW252095   5.954  10.290  13.224  1.7962 -0.5294 -0.2171
78035SOL     OW52096   3.002   4.567   6.573 -0.1314  0.2572 -0.6306
78035SOL    HW152097   3.036   4.492   6.524 -0.6920  0.0533 -0.7037
78035SOL    HW252098   2.935   4.531   6.631 -0.6013  0.7377 -0.8609
78036SOL     OW52099   7.489  10.828  11.338  0.2265  0.1334 -0.7030
78036SOL    HW152100   7.483  10.920  11.363 -1.5138 -0.5386  1.6818
78036SOL    HW252101   7.399  10.803  11.319  0.6860 -1.0950 -1.3397
78037SOL     OW52102   7.664  13.772   7.762  0.3085 -0.0288  0.0517
78037SOL    HW152103   7.726  13.805   7.826 -1.5162  0.3014  1.7491
78037SOL    HW252104   7.717  13.752   7.685  2.1999  2.1733  0.6697
78038SOL     OW52105   4.944   9.218  13.828  0.1153 -0.0586 -0.8117
78038SOL    HW152106   4.958   9.299  13.778  4.5062  1.1826  1.8511
78038SOL    HW252107   5.001   9.154  13.785  0.2567 -0.3578 -0.1811
78039SOL     OW52108   5.574   6.677  12.083  0.0899 -0.0148  0.1492
78039SOL    HW152109   5.541   6.767  12.078 -2.0007 -0.7996 -1.0911
78039SOL    HW252110   5.621   6.674  12.166 -0.2843  2.0617  0.4897
78040SOL     OW52111   5.625   0.587  11.442 -0.0171 -0.1213 -0.4028
78040SOL    HW152112   5.653   0.678  11.445 -1.0577  0.2607 -1.3319
78040SOL    HW252113   5.555   0.586  11.376 -0.8962 -1.3437  0.5015
78041SOL     OW52114  11.408   1.186  11.414 -0.1731 -0.0209  0.0783
78041SOL    HW152115  11.399   1.280  11.402 -1.0383 -0.2270 -1.0601
78041SOL    HW252116  11.329   1.149  11.374  1.0310 -1.3396 -1.2121
78042SOL     OW52117   3.803   9.430  11.119 -0.1174  0.1281 -0.3578
78042SOL    HW152118   3.744   9.421  11.044  0.9446  0.8997 -1.3344
78042SOL    HW252119   3.828   9.340  11.140 -1.7697 -0.2215  0.2091
78043SOL     OW52120  12.132   2.478   6.828 -0.3689  0.9960 -0.1952
78043SOL    HW152121  12.041   2.448   6.828  0.0551 -0.3956 -1.5500
78043SOL    HW252122  12.177   2.421   6.765  1.8135  0.5194  1.6516
78044SOL     OW52123   0.771   6.773  10.677  0.0155  0.4856 -0.3371
78044SOL    HW152124   0.748   6.738  10.591  0.1522  1.1773 -0.6611
78044SOL    HW252125   0.690   6.770  10.727 -0.7577  2.5789 -1.3574
78045SOL     OW52126   2.198   8.958   7.092 -0.3427  0.2477  0.0155
78045SOL    HW152127   2.130   8.956   7.025  0.5129  2.1552 -0.9707
78045SOL    HW252128   2.168   9.023   7.156 -0.3732 -0.3647  0.6411
78046SOL     OW52129  12.775   0.280   1.030  0.4890  1.1265 -0.1293
78046SOL    HW152130  12.701   0.274   1.090  1.1441 -0.7802  0.5943
78046SOL    HW252131  12.738   0.316   0.949 -1.0959  0.8162  0.4156
78047SOL     OW52132   7.841   9.919   9.592  0.5517  1.0474 -0.3096
78047SOL    HW152133   7.812   9.948   9.679 -0.4235 -1.5837  0.3362
78047SOL    HW252134   7.764   9.932   9.536  1.0272  2.2817 -0.7202
78048SOL     OW52135  10.184   1.650   1.646  0.3392  0.1391 -0.2398
78048SOL    HW152136  10.197   1.692   1.731  0.6486 -0.5282  0.0483
78048SOL    HW252137  10.224   1.709   1.583 -0.1563  0.7855  0.0422
78049SOL     OW52138   4.485   5.292   2.534 -0.5511  0.5631  0.0531
78049SOL    HW152139   4.517   5.218   2.586 -1.1890  1.3999  1.7221
78049SOL    HW252140   4.455   5.356   2.599 -1.2245  1.7549 -1.3605
78050SOL     OW52141   8.855   0.561   5.756  0.1327 -0.2527  0.3683
78050SOL    HW152142   8.869   0.488   5.816  0.3888 -1.5472 -1.1805
78050SOL    HW252143   8.762   0.580   5.763 -0.5353 -2.5726 -1.1151
78051SOL     OW52144   4.642   7.901   4.017  0.1770 -0.0055  0.1093
78051SOL    HW152145   4.632   7.884   4.111  0.0737 -1.1707 -0.1082
78051SOL    HW252146   4.714   7.845   3.990  2.0491  2.2802  0.0023
78052SOL     OW52147   5.929   0.649  11.195 -0.3684  0.1568  0.1481
78052SOL    HW152148   6.005   0.607  11.236  0.4984  0.9525 -0.5798
78052SOL    HW252149   5.855   0.592  11.216  0.1705  0.1068  2.1110
78053SOL     OW52150   7.051   8.182   9.431 -0.4841 -0.0223  0.1761
78053SOL    HW152151   7.032   8.136   9.349 -0.5284 -0.8061  0.6195
78053SOL    HW252152   7.144   8.166   9.446  0.0259  1.7704 -0.7202
78054SOL     OW52153   4.241   0.241   8.418 -0.0865  0.3873  0.0927
78054SOL    HW152154   4.301   0.306   8.382 -0.6700  1.1133  0.4245
78054SOL    HW252155   4.200   0.201   8.342  1.0429 -0.3517 -0.1566
78055SOL     OW52156   2.212  14.005   4.884  0.0555  0.4087 -0.0071
78055SOL    HW152157   2.285  13.944   4.888 -0.4552 -0.2775 -0.7407
78055SOL    HW252158   2.179  13.997   4.794 -2.8824 -1.6907  1.0723
78056SOL     OW52159   4.233   4.231  12.293  0.2412 -0.4451 -0.0001
78056SOL    HW152160   4.173   4.303  12.313 -1.2398 -1.4117 -0.7737
78056SOL    HW252161   4.268   4.205  12.378  0.8065  1.1499  0.2982
78057SOL     OW52162   5.576   5.846   5.174  1.1568 -0.4145 -0.1920
78057SOL    HW152163   5.538   5.929   5.204  0.3993 -1.2837  1.3651
78057SOL    HW252164   5.653   5.834   5.230  1.9284 -0.2142 -1.1966
78058SOL     OW52165   7.502   9.170   9.253 -0.5294 -0.5055  0.1459
78058SOL    HW152166   7.553   9.134   9.180 -1.4200  0.1592 -0.8213
78058SOL    HW252167   7.474   9.256   9.223 -3.1939 -1.2863  0.1829
78059SOL     OW52168   7.293  10.558   4.837  0.1025 -0.1719  0.0720
78059SOL    HW152169   7.333  10.477   4.806 -1.9299 -0.9716 -0.6726
78059SOL    HW252170   7.235  10.530   4.908 -1.2476  0.4798 -0.7358
78060SOL     OW52171   1.820  13.875   8.704  0.0362 -0.1784  0.5322
78060SOL    HW152172   1.745  13.843   8.753 -0.5150 -0.1286 -0.2627
78060SOL    HW252173   1.890  13.884   8.770 -0.0385 -2.1226  0.9544
78061SOL     OW52174   0.836   6.833   1.214 -0.6974 -0.0069  0.2425
78061SOL    HW152175   0.831   6.921   1.252 -2.0581 -0.0996  0.3221
78061SOL    HW252176   0.880   6.781   1.281 -0.4149  0.4756  0.4428
78062SOL     OW52177   7.558   7.290  10.819  0.0162 -0.6593 -0.0109
78062SOL    HW152178   7.618   7.298  10.893 -1.2962  0.7577  0.9785
78062SOL    HW252179   7.609   7.248  10.750  1.5761 -1.1288  1.3737
78063SOL     OW52180   2.671  14.086  11.095 -0.0766 -0.0260  0.7374
78063SOL    HW152181   2.656  14.081  11.189  0.4644  0.3554  0.8460
78063SOL    HW252182   2.700  13.998  11.070 -2.5505 -0.8370  0.4972
78064SOL     OW52183   4.637   1.231   8.928  0.0991  0.6248 -0.0257
78064SOL    HW152184   4.609   1.269   8.845  0.8081 -0.0538 -0.5950
78064SOL    HW252185   4.685   1.152   8.903  1.7484  1.2611  0.9406
78065SOL     OW52186  11.775   5.964   2.507 -0.2284 -0.2991 -0.0206
78065SOL    HW152187  11.831   5.894   2.542 -0.5001 -0.9213 -0.8120
78065SOL    HW252188  11.700   5.919   2.470  0.4725  0.2359 -2.2337
78066SOL     OW52189  13.879   8.098   5.073 -0.4638  0.0468  0.2661
78066SOL    HW152190  13.887   8.063   4.985 -0.7446  0.5254  0.0506
78066SOL    HW252191  13.796   8.062   5.106 -0.3432 -0.1578  0.3505
78067SOL     OW52192  10.006  10.550   7.472  0.3173  0.1074 -0.4628
78067SOL    HW152193  10.043  10.463   7.458  0.3068  0.1509 -0.7719
78067SOL    HW252194  10.081  10.609   7.465  0.4503  0.0618  0.4877
78068SOL     OW52195   8.503   2.056  12.440  0.0269  0.0506 -0.1534
78068SOL    HW152196   8.468   2.137  12.403  1.3099  1.6699  1.9727
78068SOL    HW252197   8.484   1.990  12.373 -3.7806  1.4273 -0.6898
78069SOL     OW52198   3.798   1.267   0.401 -0.0746  0.1473 -0.1367
78069SOL    HW152199   3.878   1.310   0.369 -2.2672  4.6963 -0.2938
78069SOL    HW252200   3.810   1.261   0.496  1.0887 -0.8514 -0.3258
78070SOL     OW52201   3.639   6.206  10.500 -0.0846  0.8683 -0.3224
78070SOL    HW152202   3.564   6.236  10.552  0.0768  0.5143  0.1135
78070SOL    HW252203   3.604   6.133  10.449 -0.0818  0.8233 -0.2594
78071SOL     OW52204   7.523  10.182   6.192 -0.9018 -0.1522 -0.0629
78071SOL    HW152205   7.536  10.109   6.252 -0.2840 -0.6979 -0.8380
78071SOL    HW252206   7.439  10.219   6.217 -1.1195 -0.9942  0.4855
78072SOL     OW52207  12.098   1.055   1.917 -0.6522  0.3086 -0.2127
78072SOL    HW152208  12.057   1.054   1.831  1.4717 -0.0332 -1.3055
78072SOL    HW252209  12.039   1.005   1.973 -1.2042 -1.0571 -1.9371
78073SOL     OW52210   1.906  13.162   7.205 -0.2222  0.5840 -0.1761
78073SOL    HW152211   1.990  13.204   7.219  0.0383  0.4727 -1.2919
78073SOL    HW252212   1.927  13.074   7.175 -0.7545  0.1732  0.6083
78074SOL     OW52213  10.579  12.443  10.344 -0.1900  0.3099  0.6339
78074SOL    HW152214  10.553  12.467  10.255 -0.2725  1.0328  0.8524
78074SOL    HW252215  10.542  12.511  10.399  1.2087  0.7415  1.0661
78075SOL     OW52216  13.838   6.447   1.035 -0.1424 -0.1473  0.2657
78075SOL    HW152217  13.780   6.410   1.102 -0.3244 -1.3402 -0.5351
78075SOL    HW252218  13.779   6.470   0.963  0.2711 -0.5746 -0.2125
78076SOL     OW52219   2.806   2.908   4.781 -0.2724  0.2973 -0.1449
78076SOL    HW152220   2.861   2.953   4.717 -1.2604  1.5868 -0.1144
78076SOL    HW252221   2.750   2.851   4.729 -1.2881  1.5710 -0.4933
78077SOL     OW52222   2.445  13.083   3.978  0.3201 -0.2059  0.2749
78077SOL    HW152223   2.396  13.097   3.897 -0.2546 -1.3205  0.4167
78077SOL    HW252224   2.429  13.163   4.029  0.6961  0.5056 -0.6949
78078SOL     OW52225  10.801   7.921   3.419  0.4790  0.0968 -0.0754
78078SOL    HW152226  10.789   7.829   3.443  1.7984  0.2240  1.1278
78078SOL    HW252227  10.773   7.925   3.327 -2.8115 -0.7885  0.7391
78079SOL     OW52228  10.237  12.690   4.895  0.1568  0.2384  0.2628
78079SOL    HW152229  10.280  12.716   4.814  0.4277  2.4859  1.0659
78079SOL    HW252230  10.305  12.644   4.945 -0.2163 -1.8584 -1.0078
78080SOL     OW52231  14.072   9.969  11.738  0.1797  0.6620  0.9032
78080SOL    HW152232  14.142   9.972  11.803  0.0151 -2.0533  1.3036
78080SOL    HW252233  14.007   9.908  11.774  0.3789 -1.5054 -2.0100
78081SOL     OW52234   3.746  10.485   8.607  0.7592 -0.6383  0.5966
78081SOL    HW152235   3.770  10.562   8.556  0.8844  0.3726  2.1117
78081SOL    HW252236   3.828  10.452   8.642  0.4674  0.1535  2.1172
78082SOL     OW52237   0.749   1.237   3.025  0.2090  0.0851 -0.1292
78082SOL    HW152238   0.691   1.161   3.025  0.8320 -0.4005  0.5097
78082SOL    HW252239   0.833   1.204   2.993  0.7132  0.3123  0.9155
78083SOL     OW52240  12.592   6.954   3.110  0.0876  0.3168 -0.1197
78083SOL    HW152241  12.575   6.918   3.197  1.6138  0.4120  0.2396
78083SOL    HW252242  12.613   6.878   3.056  2.5012  0.5256  0.4428
78084SOL     OW52243  11.383  12.685   7.240  0.3775 -0.3122  0.4534
78084SOL    HW152244  11.364  12.687   7.147 -0.9175  1.6764  0.7068
78084SOL    HW252245  11.376  12.776   7.268  0.8240 -0.8525  2.4768
78085SOL     OW52246   1.175  12.633  11.750  0.0004  0.1341  0.6282
78085SOL    HW152247   1.081  12.614  11.744 -0.2528  1.1793  1.0804
78085SOL    HW252248   1.211  12.560  11.800 -0.3423 -0.9448 -0.6555
78086SOL     OW52249   1.933  13.568   6.308  0.1363 -0.9311  0.5046
78086SOL    HW152250   1.935  13.486   6.259 -2.1154 -0.3873 -0.6013
78086SOL    HW252251   2.019  13.572   6.350  2.6281 -1.0898 -3.9705
78087SOL     OW52252   0.145   5.310   0.241  0.5938 -0.0463  0.4221
78087SOL    HW152253   0.167   5.249   0.312 -0.0815 -0.2633  0.4552
78087SOL    HW252254   0.106   5.254   0.174 -0.4659  0.4106  0.6451
78088SOL     OW52255   1.175   7.377  12.114 -0.0907  0.2590 -0.2072
78088SOL    HW152256   1.155   7.310  12.049  1.2972 -0.3386 -0.0283
78088SOL    HW252257   1.269   7.369  12.130 -0.1040  1.5145  0.6338
78089SOL     OW52258   7.510  10.539   0.517 -0.0003  0.0005  0.2723
78089SOL    HW152259   7.428  10.586   0.535 -0.7456 -1.5986  1.2668
78089SOL    HW252260   7.486  10.472   0.453  0.4434 -0.6746  0.7958
78090SOL     OW52261   7.431   0.153   8.273 -0.2835 -0.5005 -0.1749
78090SOL    HW152262   7.391   0.070   8.249 -1.1158  0.2781 -1.6854
78090SOL    HW252263   7.403   0.214   8.204  0.1941  1.0627  0.9432
78091SOL     OW52264  13.384   4.266   7.252 -0.2443 -0.1002  0.6378
78091SOL    HW152265  13.457   4.211   7.279 -0.0238 -1.2161 -2.0067
78091SOL    HW252266  13.346   4.221   7.177 -2.8993  1.0920  1.1339
78092SOL     OW52267   1.755   7.352  12.259  0.0274  0.1203 -0.5196
78092SOL    HW152268   1.767   7.257  12.245  0.7474 -0.0274  0.9904
78092SOL    HW252269   1.670   7.370  12.220  1.0049 -0.6013 -3.2727
78093SOL     OW52270  13.031   6.675   7.961 -0.0088 -0.0120 -0.1948
78093SOL    HW152271  12.956   6.688   8.019 -0.7559  1.8385 -1.4816
78093SOL    HW252272  12.992   6.652   7.876  0.9163  0.0245 -0.6497
78094SOL     OW52273   0.509   3.370   4.337  0.5273  0.2450 -0.2368
78094SOL    HW152274   0.513   3.340   4.246 -0.6311  0.0344 -0.2336
78094SOL    HW252275   0.472   3.458   4.332  0.7551  0.3586  0.0169
78095SOL     OW52276   6.541   6.874  13.084  0.2680 -0.5294 -0.7795
78095SOL    HW152277   6.607   6.941  13.073  0.2141 -0.3825 -0.2544
78095SOL    HW252278   6.581   6.811  13.144 -0.2128 -0.2320 -0.1361
78096SOL     OW52279   0.626   2.699  13.352 -0.3775 -0.1998 -0.1240
78096SOL    HW152280   0.624   2.794  13.358 -2.8429 -0.2627  1.4872
78096SOL    HW252281   0.578   2.679  13.271 -1.5334 -0.0520  0.4937
78097SOL     OW52282   1.273  12.673   3.815 -0.5738  0.1338 -0.2713
78097SOL    HW152283   1.292  12.749   3.760 -0.6856  0.6794  0.4188
78097SOL    HW252284   1.342  12.610   3.795  1.2295  1.5334  1.2069
78098SOL     OW52285   8.969   1.386  10.342  0.7463  0.4514  0.9427
78098SOL    HW152286   8.981   1.440  10.264  0.0725 -0.5689  0.1201
78098SOL    HW252287   9.024   1.309  10.327  1.0820  0.5243  1.7528
78099SOL     OW52288   1.584   2.623  13.725 -0.0086 -0.1261 -0.4107
78099SOL    HW152289   1.626   2.703  13.756 -0.2044 -0.2964  0.3179
78099SOL    HW252290   1.618   2.555  13.783  0.2934 -0.6048 -1.1368
78100SOL     OW52291   6.457  11.937  13.910  0.1797  0.7417  0.7098
78100SOL    HW152292   6.543  11.907  13.940  0.0536  1.4719  1.8796
78100SOL    HW252293   6.474  12.023  13.871  0.4842 -0.5409 -2.2826
78101SOL     OW52294   9.024  11.918   1.514  0.1736  0.1819 -0.1595
78101SOL    HW152295   8.953  11.861   1.543 -1.1106  2.7623  2.1913
78101SOL    HW252296   8.989  11.963   1.438 -1.0240  1.7943  1.2698
78102SOL     OW52297   9.632  11.707   6.310 -0.4365  0.1393  0.0412
78102SOL    HW152298   9.710  11.661   6.279 -1.1536 -1.1511  0.0664
78102SOL    HW252299   9.611  11.769   6.240 -0.2663 -0.5865 -0.6659
78103SOL     OW52300  13.551   5.886   3.355  0.0807 -0.2365 -0.2819
78103SOL    HW152301  13.497   5.920   3.426  0.9430 -0.5179  0.5241
78103SOL    HW252302  13.525   5.794   3.347 -0.8858  0.0946 -1.1738
78104SOL     OW52303   1.809   6.725   1.199  0.4049 -0.4831 -0.9357
78104SOL    HW152304   1.801   6.770   1.115  0.4848  0.6718 -0.3527
78104SOL    HW252305   1.733   6.667   1.202 -0.0361  0.0441 -1.4671
78105SOL     OW52306  13.667   6.867  10.894  0.2313  0.8870 -0.6500
78105SOL    HW152307  13.685   6.918  10.973 -0.5485 -0.8438  0.7217
78105SOL    HW252308  13.620   6.927  10.837 -1.7570  1.4105  1.4059
78106SOL     OW52309   6.719  10.310   3.935 -0.1979  0.1307 -0.1990
78106SOL    HW152310   6.682  10.240   3.882  0.6925  0.2414 -0.9962
78106SOL    HW252311   6.785  10.266   3.989  1.7620  0.5925 -2.0943
78107SOL     OW52312   0.827   3.784  10.033 -0.5903  0.6461 -0.1633
78107SOL    HW152313   0.817   3.693  10.006  2.8062 -0.3080  1.3375
78107SOL    HW252314   0.755   3.830   9.988 -2.0697 -2.5962 -1.4499
78108SOL     OW52315   0.442   3.732   1.726 -0.1120 -0.1320 -0.0351
78108SOL    HW152316   0.394   3.814   1.717  0.7446  0.2474 -1.7795
78108SOL    HW252317   0.420   3.683   1.647  2.9494  0.4527 -1.4215
78109SOL     OW52318   9.569   8.793  11.408  0.4486  0.4197 -0.0904
78109SOL    HW152319   9.604   8.746  11.484 -0.3681  1.3148  0.8551
78109SOL    HW252320   9.518   8.865  11.445  0.8945  1.5101 -1.4952
78110SOL     OW52321   0.417  10.044  11.559  0.0512 -0.1054  0.3519
78110SOL    HW152322   0.431  10.133  11.528  0.9764 -0.0964  0.7541
78110SOL    HW252323   0.386  10.054  11.649 -0.4388 -0.1789  0.1930
78111SOL     OW52324   8.685   6.243   0.489  1.0705 -0.0121 -0.2501
78111SOL    HW152325   8.748   6.309   0.517  1.7645 -0.8303  0.1833
78111SOL    HW252326   8.652   6.274   0.405 -0.1317  1.8933  0.8682
78112SOL     OW52327  12.027   8.690   0.565 -0.3048  0.1190  0.2710
78112SOL    HW152328  12.073   8.737   0.496 -0.2941  0.8296  0.7523
78112SOL    HW252329  11.975   8.624   0.519 -0.6741  0.8959 -0.4368
78113SOL     OW52330   0.012   0.598  12.368 -0.0397 -0.0074  0.2918
78113SOL    HW152331   0.009   0.554  12.283  0.6358  1.3177 -0.4476
78113SOL    HW252332  -0.024   0.685  12.352  1.4557  0.7886  1.0095
78114SOL     OW52333  10.355   7.241   7.752  0.1442 -0.0141  0.2336
78114SOL    HW152334  10.280   7.185   7.731 -0.0260  0.3478 -0.1381
78114SOL    HW252335  10.315   7.326   7.775  0.4993  0.7525 -1.7832
78115SOL     OW52336  11.406   0.367   4.440  0.0937  0.1770 -0.0070
78115SOL    HW152337  11.461   0.304   4.487 -0.1547  0.9613  1.3839
78115SOL    HW252338  11.344   0.398   4.506  0.8458  2.6029 -0.3588
78116SOL     OW52339   1.405  13.746   2.449 -0.4099 -0.3509 -0.1370
78116SOL    HW152340   1.385  13.802   2.375  2.6610 -0.1062 -0.8846
78116SOL    HW252341   1.413  13.806   2.524 -0.7578 -0.2647 -0.1677
78117SOL     OW52342   4.732  11.016   1.426 -0.6981 -0.2015  0.0854
78117SOL    HW152343   4.644  11.054   1.420  0.0870  1.6340 -0.5570
78117SOL    HW252344   4.734  10.973   1.511 -2.2554 -0.4359  0.0438
78118SOL     OW52345  13.323  13.971   0.630  0.4609  0.0767  0.0994
78118SOL    HW152346  13.361  13.933   0.551 -1.4766  1.6616 -1.6948
78118SOL    HW252347  13.281  14.051   0.601  1.8310  2.1500  3.2136
78119SOL     OW52348   9.882   4.593   2.023  0.2169 -0.8737  0.2658
78119SOL    HW152349   9.893   4.649   1.945  1.2812 -2.1776 -0.5609
78119SOL    HW252350   9.788   4.575   2.026 -0.4316  2.1391  1.4395
78120SOL     OW52351   6.143   0.965   2.179 -1.0367  0.0957 -0.2971
78120SOL    HW152352   6.060   1.002   2.210 -0.8163  0.8505 -0.5870
78120SOL    HW252353   6.186   1.037   2.133 -0.6938 -0.5892 -1.0758
78121SOL     OW52354  11.062   6.202   5.267  0.1301 -0.4309  0.3296
78121SOL    HW152355  11.148   6.203   5.309  1.0427  2.6102 -1.2714
78121SOL    HW252356  11.013   6.272   5.312  0.0989  0.8426 -1.5770
78122SOL     OW52357   0.820  11.606   9.372 -0.2998 -0.1120 -0.5327
78122SOL    HW152358   0.804  11.692   9.333  0.5375  0.1821 -0.2573
78122SOL    HW252359   0.911  11.610   9.402  0.1347 -1.4816 -1.5488
78123SOL     OW52360   6.496  10.296   6.541 -0.4470 -0.3120  0.2030
78123SOL    HW152361   6.495  10.386   6.575 -0.4334 -0.6760  1.1938
78123SOL    HW252362   6.404  10.277   6.521 -0.4303 -0.0307 -0.1648
78124SOL     OW52363   6.159   2.246   1.351  0.2214 -0.0618 -0.4438
78124SOL    HW152364   6.085   2.302   1.329  0.0964  0.2483  0.7106
78124SOL    HW252365   6.161   2.180   1.282 -0.2110  0.7998 -1.3007
78125SOL     OW52366   3.099  11.272   0.218  0.6019 -0.1767  0.1551
78125SOL    HW152367   3.193  11.255   0.225  0.6798 -2.1611 -3.3381
78125SOL    HW252368   3.058  11.202   0.269  0.8556  1.5813  3.0126
78126SOL     OW52369  10.939   0.784   6.357 -0.8630 -0.4034 -0.5525
78126SOL    HW152370  11.033   0.799   6.357 -0.7925 -0.7531 -1.3916
78126SOL    HW252371  10.907   0.833   6.281 -1.6720  1.4069  0.8705
78127SOL     OW52372  12.563   1.819   4.648  0.3853 -0.0382 -0.1587
78127SOL    HW152373  12.602   1.805   4.562 -1.6004 -0.1808 -1.1104
78127SOL    HW252374  12.499   1.748   4.657 -0.6774  0.9824  0.6317
78128SOL     OW52375   0.797   8.744   3.456 -0.1080 -0.0253  0.5967
78128SOL    HW152376   0.832   8.656   3.470  0.0269 -0.5437 -2.3338
78128SOL    HW252377   0.818   8.791   3.537  2.1284 -1.9438  1.2623
78129SOL     OW52378   2.335  13.687  12.415 -0.2906  0.4638 -0.0661
78129SOL    HW152379   2.242  13.682  12.438 -0.1920 -1.7247  0.1273
78129SOL    HW252380   2.381  13.666  12.497  0.2704 -0.7545 -0.6591
78130SOL     OW52381   1.422   6.695   0.315  0.1078  0.1428  0.4179
78130SOL    HW152382   1.343   6.643   0.303 -0.3477  0.8376  0.3975
78130SOL    HW252383   1.391   6.779   0.349  0.9487 -0.0793  1.8175
78131SOL     OW52384  10.843   2.364   8.207 -0.0237  0.3243  0.2106
78131SOL    HW152385  10.834   2.398   8.118  0.1413 -0.3287 -0.0663
78131SOL    HW252386  10.813   2.435   8.264 -1.5692  0.2026 -0.4189
78132SOL     OW52387   9.581   0.999   7.968  0.5913 -0.0628  0.1746
78132SOL    HW152388   9.505   0.966   7.921  0.3842  0.5147  0.0930
78132SOL    HW252389   9.645   0.928   7.964 -0.0771 -0.6977  0.5732
78133SOL     OW52390   3.863   7.064  10.844  0.0921 -0.2429  0.2675
78133SOL    HW152391   3.946   7.088  10.886  0.7506 -1.7561 -0.0725
78133SOL    HW252392   3.822   7.147  10.821  1.6431  0.5346  0.2103
78134SOL     OW52393  13.917  11.474  12.705 -0.5489  0.0263 -0.1865
78134SOL    HW152394  13.898  11.467  12.611  0.1530 -0.6893 -0.2870
78134SOL    HW252395  14.012  11.489  12.709 -0.5741  0.0385  0.4027
78135SOL     OW52396   9.757   3.302   7.864  0.4048  0.2166  0.0434
78135SOL    HW152397   9.766   3.352   7.945  1.2415 -1.0152  0.7313
78135SOL    HW252398   9.846   3.278   7.840 -0.0380 -2.2070  0.5669
78136SOL     OW52399   3.267  12.207   0.421  0.3894  0.0303 -0.4472
78136SOL    HW152400   3.209  12.143   0.462 -0.1841  0.7285 -0.1443
78136SOL    HW252401   3.268  12.182   0.329 -0.1344 -0.1887 -0.4008
78137SOL     OW52402   6.946   4.543   5.573 -0.2220  0.1182 -0.1138
78137SOL    HW152403   6.952   4.451   5.598  0.5201  0.0079 -0.6667
78137SOL    HW252404   6.939   4.542   5.478 -0.6711  0.6259 -0.0937
78138SOL     OW52405   0.808  11.337  11.608  0.4582  0.3242  0.0520
78138SOL    HW152406   0.829  11.347  11.701  1.6394  1.5314 -0.3161
78138SOL    HW252407   0.877  11.280  11.573 -1.3062 -2.1618  0.3324
78139SOL     OW52408   1.207   9.380  12.725  0.3598 -0.1302 -0.4661
78139SOL    HW152409   1.232   9.429  12.646  0.9654  1.0247  0.4075
78139SOL    HW252410   1.115   9.356  12.710  0.4466  0.1176 -1.4928
78140SOL     OW52411   9.154   1.375   9.537  0.3603  0.1468 -0.2577
78140SOL    HW152412   9.218   1.312   9.505  0.0073  0.7758 -2.3740
78140SOL    HW252413   9.073   1.325   9.548  0.2380  0.0607 -1.3609
78141SOL     OW52414   9.646   9.136   2.326  0.6072  0.1376 -0.1928
78141SOL    HW152415   9.735   9.169   2.322  0.5264  0.4975  0.7516
78141SOL    HW252416   9.616   9.157   2.415 -0.1257 -0.7211 -0.2177
78142SOL     OW52417   7.679   1.050  13.387  0.0904 -0.7025  0.1445
78142SOL    HW152418   7.745   1.047  13.455 -1.0711 -2.0555  1.2638
78142SOL    HW252419   7.599   1.019  13.429 -1.2857  0.8682 -1.1570
78143SOL     OW52420  10.607   6.571  10.310  0.0837  0.0389 -0.0152
78143SOL    HW152421  10.550   6.494  10.308  0.4197 -0.2091 -0.1710
78143SOL    HW252422  10.666   6.559  10.236 -0.3169  0.8008 -0.4685
78144SOL     OW52423  13.429  14.038   4.913  0.1323  0.0046 -0.4385
78144SOL    HW152424  13.396  14.024   4.824 -0.0254 -0.3824 -0.3187
78144SOL    HW252425  13.430  14.134   4.923 -0.8553  0.0266 -0.4867
78145SOL     OW52426   7.165   0.176  11.286  0.6900  0.2689 -0.0912
78145SOL    HW152427   7.127   0.174  11.199 -0.2158  0.1636  0.2951
78145SOL    HW252428   7.181   0.084  11.308 -0.0964  0.2142  0.2782
78146SOL     OW52429   1.428  11.854   0.160 -0.3185  0.2781 -0.5699
78146SOL    HW152430   1.343  11.836   0.121 -0.4150  0.4907 -0.4567
78146SOL    HW252431   1.412  11.854   0.254 -0.1319  0.0029 -0.5369
78147SOL     OW52432   5.472   7.666  14.077  0.0415 -0.1555 -0.0373
78147SOL    HW152433   5.515   7.584  14.102 -0.8276 -0.3299  0.9187
78147SOL    HW252434   5.519   7.734  14.125 -0.3347 -0.2828  0.5215
78148SOL     OW52435   2.802  10.900   4.360  0.1687 -0.1663 -0.6686
78148SOL    HW152436   2.810  10.819   4.310 -1.4136  1.0643 -3.1569
78148SOL    HW252437   2.707  10.912   4.371  0.4255  0.3871  1.4103
78149SOL     OW52438  10.686  10.098   1.243 -0.2310 -0.0437 -0.3321
78149SOL    HW152439  10.669  10.176   1.296 -2.0296  1.8658 -3.3858
78149SOL    HW252440  10.781  10.093   1.236  0.0722 -0.1717  2.5646
78150SOL     OW52441  12.705   4.950   2.156 -0.2617 -0.1537  0.0934
78150SOL    HW152442  12.760   4.878   2.128 -0.0727 -0.4133  1.0690
78150SOL    HW252443  12.765   5.012   2.197 -0.8099 -1.1633  2.6121
78151SOL     OW52444   5.736   3.999   4.182  0.4944 -0.1961 -0.0390
78151SOL    HW152445   5.711   4.084   4.219  2.3442  0.7726 -0.8751
78151SOL    HW252446   5.725   4.009   4.087  0.2220 -1.0790 -0.1123
78152SOL     OW52447   1.010   3.489  12.067 -0.3810 -0.1643 -0.0144
78152SOL    HW152448   0.948   3.532  12.007  0.3788  0.5489 -0.3103
78152SOL    HW252449   0.981   3.517  12.154  0.0247  0.8628 -0.1983
78153SOL     OW52450  12.626  11.387   2.715  0.5131  0.1978 -0.3842
78153SOL    HW152451  12.545  11.345   2.688 -0.0925  0.7926  0.4784
78153SOL    HW252452  12.617  11.478   2.686 -0.4490  1.0466  2.2938
78154SOL     OW52453   5.002   0.538  11.242  0.1096  0.2609  0.5601
78154SOL    HW152454   5.093   0.537  11.272  0.8301  1.2302 -1.4385
78154SOL    HW252455   5.003   0.486  11.162 -0.7391  1.5959 -0.3552
78155SOL     OW52456   5.665   9.009   5.701 -0.2086  0.0490  0.2309
78155SOL    HW152457   5.731   8.955   5.744  0.1656 -0.0857 -0.4901
78155SOL    HW252458   5.622   9.056   5.772 -0.4011 -1.0360  0.8552
78156SOL     OW52459   0.260   2.517   4.130  0.4652  0.4277 -0.3376
78156SOL    HW152460   0.314   2.527   4.052  1.4655  0.8594  0.3911
78156SOL    HW252461   0.170   2.519   4.097  0.8769  0.4082 -1.4952
78157SOL     OW52462   2.053   8.954   7.651  0.1287 -0.0266  0.0676
78157SOL    HW152463   2.082   9.041   7.623  0.1155  0.4299  1.4003
78157SOL    HW252464   1.958   8.963   7.660 -0.3299 -1.0508 -2.6568
78158SOL     OW52465   5.938  10.389   1.121  0.5435 -0.0711 -0.2420
78158SOL    HW152466   5.844  10.372   1.124  0.3420  1.0140 -0.1673
78158SOL    HW252467   5.976  10.324   1.180 -0.2317 -0.0179  0.3306
78159SOL     OW52468   1.737  10.492   4.955 -0.5960 -0.5011 -0.4810
78159SOL    HW152469   1.700  10.535   5.032 -2.0703  0.1387 -1.4929
78159SOL    HW252470   1.807  10.550   4.927  1.5769 -1.8947  1.6636
78160SOL     OW52471  13.061   4.632   1.402  0.1829 -0.0844  0.6712
78160SOL    HW152472  13.051   4.725   1.422 -1.7642 -0.6086  2.4569
78160SOL    HW252473  13.001   4.588   1.462  1.0275 -2.5089 -0.1572
78161SOL     OW52474   4.333   9.937   0.613 -0.1353 -0.3420 -0.6536
78161SOL    HW152475   4.396   9.984   0.668  0.1139 -1.4174 -0.0021
78161SOL    HW252476   4.281  10.007   0.573  0.3438  0.5062  0.1479
78162SOL     OW52477   9.337   4.800   5.957  0.4366 -0.0689 -0.6272
78162SOL    HW152478   9.385   4.716   5.957  0.4287 -0.1843  2.6675
78162SOL    HW252479   9.389   4.857   6.013 -1.7511  0.7366  0.6976
78163SOL     OW52480   1.280  11.879  12.381 -0.1480 -0.0873 -0.1612
78163SOL    HW152481   1.276  11.843  12.293 -0.5389 -1.2587  0.3164
78163SOL    HW252482   1.305  11.805  12.436 -2.1403  0.0462  1.0257
78164SOL     OW52483   2.881  10.885   3.409 -0.2994 -0.0996 -0.2688
78164SOL    HW152484   2.895  10.918   3.498  1.9782  2.2538 -1.3502
78164SOL    HW252485   2.837  10.957   3.363 -1.2442 -1.1937 -1.1300
78165SOL     OW52486   6.043   1.229  10.522 -0.6396  0.2142  0.2766
78165SOL    HW152487   6.014   1.255  10.434  0.3634  1.7484  0.3553
78165SOL    HW252488   6.098   1.152  10.507 -2.1039 -0.7666 -0.2023
78166SOL     OW52489  12.684   0.214   3.003  0.2832  0.4652  0.3893
78166SOL    HW152490  12.772   0.177   2.998  0.4695  1.0667 -1.5303
78166SOL    HW252491  12.627   0.138   3.011  0.9620  0.0907  2.3443
78167SOL     OW52492  11.024  10.489   0.022 -0.2131  0.1034 -0.0187
78167SOL    HW152493  11.049  10.417   0.079 -0.0523  0.7279  0.7179
78167SOL    HW252494  11.094  10.492  -0.044  0.4079  0.3155  0.6318
78168SOL     OW52495   4.603   2.399   9.907  0.2739 -0.5381 -0.4589
78168SOL    HW152496   4.578   2.308   9.921 -0.4624 -0.0904  1.3374
78168SOL    HW252497   4.543   2.449   9.962  2.1712  0.8803  0.4067
78169SOL     OW52498   1.675   8.524  11.703  0.0117 -0.3551 -0.0740
78169SOL    HW152499   1.680   8.554  11.794 -2.4451  1.0427 -0.3033
78169SOL    HW252500   1.741   8.575  11.657  0.8218 -0.5946  0.8047
78170SOL     OW52501   7.568  10.332  12.066  0.1458 -0.2200 -0.1903
78170SOL    HW152502   7.628  10.305  12.135 -0.4018 -2.5884 -0.5789
78170SOL    HW252503   7.482  10.333  12.108  0.0266  0.0020 -0.4349
78171SOL     OW52504   2.632   9.906   7.851 -0.8930 -0.6892 -0.2906
78171SOL    HW152505   2.580   9.881   7.775 -1.8263 -2.6122  0.9070
78171SOL    HW252506   2.568   9.919   7.921  0.0686 -0.8831  0.6533
78172SOL     OW52507   8.153   4.140   9.402  0.7943 -0.4698  0.0975
78172SOL    HW152508   8.232   4.192   9.386  0.5493 -0.1485 -0.0772
78172SOL    HW252509   8.108   4.186   9.472  0.3111 -0.1540 -0.4188
78173SOL     OW52510   7.928   0.190  11.373 -0.1780 -0.2015 -0.1188
78173SOL    HW152511   7.927   0.164  11.465  0.0779  0.9043  0.2069
78173SOL    HW252512   7.869   0.265  11.369  1.1607  0.8771 -0.4988
78174SOL     OW52513  13.722   5.834   0.509  0.0707  0.2073  0.1913
78174SOL    HW152514  13.740   5.926   0.492 -0.5092  0.9045  2.8690
78174SOL    HW252515  13.752   5.788   0.431 -1.1157  2.7997 -1.9245
78175SOL     OW52516   6.052   6.862  10.663 -0.0801 -0.2340  0.1184
78175SOL    HW152517   6.022   6.902  10.745  0.3619  0.3233  0.0169
78175SOL    HW252518   6.045   6.768  10.678 -0.4260 -0.1304  0.6366
78176SOL     OW52519  11.798   2.883   6.341  0.0068 -0.0421  0.3828
78176SOL    HW152520  11.744   2.886   6.420  0.4761  1.1722  0.6632
78176SOL    HW252521  11.784   2.794   6.307  0.3416 -0.8215  2.1910
78177SOL     OW52522   7.062   3.071   7.145 -0.1787  0.1490 -0.0746
78177SOL    HW152523   7.107   3.147   7.181  2.5465 -0.5892 -1.6115
78177SOL    HW252524   7.017   3.031   7.220  2.4487  0.5113  1.8058
78178SOL     OW52525   0.044   6.708   6.075 -0.3695  0.2475  0.5274
78178SOL    HW152526   0.065   6.694   6.167 -1.9563  1.5419  1.1387
78178SOL    HW252527   0.090   6.790   6.053 -1.2756  0.8047  0.6573
78179SOL     OW52528   1.894  13.847   9.915  0.1405  0.2474 -0.6925
78179SOL    HW152529   1.849  13.830   9.832 -0.8399  0.0687 -0.1265
78179SOL    HW252530   1.903  13.943   9.918 -1.7183  0.4334 -0.0425
78180SOL     OW52531  11.645   6.544   1.000  0.0411  0.6000 -0.3865
78180SOL    HW152532  11.616   6.589   0.921  0.9792  2.4061  0.2557
78180SOL    HW252533  11.615   6.599   1.072  0.4799 -0.2639  0.4845
78181SOL     OW52534   3.244   1.337   6.722  0.3508 -0.1289  0.1906
78181SOL    HW152535   3.150   1.347   6.707  0.8765  1.2149 -2.7935
78181SOL    HW252536   3.257   1.242   6.730 -1.0738 -0.4249 -0.7080
78182SOL     OW52537   1.732  10.094   1.125 -0.0777  0.3898 -0.0138
78182SOL    HW152538   1.658  10.045   1.163 -1.4948  2.1557 -0.3759
78182SOL    HW252539   1.691  10.162   1.072  1.8510  0.7077 -1.1848
78183SOL     OW52540  14.066   3.671   4.710  0.7998  0.3277 -0.6747
78183SOL    HW152541  14.093   3.580   4.715  0.3141  0.2068 -0.2537
78183SOL    HW252542  14.044   3.685   4.618  0.0238 -0.2168 -0.5741
78184SOL     OW52543  13.636  10.087   9.534  0.2635 -0.6151 -0.5811
78184SOL    HW152544  13.603  10.064   9.621  0.7589 -1.5365 -0.6335
78184SOL    HW252545  13.717  10.037   9.525  0.3318 -0.3561 -1.4920
78185SOL     OW52546   6.500   6.067   3.046  0.6991  0.2541  0.5522
78185SOL    HW152547   6.583   6.041   3.005  2.5336  1.8651  2.8987
78185SOL    HW252548   6.501   6.163   3.042 -0.9297  0.3031  0.9070
78186SOL     OW52549   1.454   0.042   9.045  0.1464  0.2238  0.6261
78186SOL    HW152550   1.480   0.085   9.126 -1.1344  0.4070  0.9514
78186SOL    HW252551   1.404   0.108   8.997  0.4753 -0.0385 -0.0992
78187SOL     OW52552   6.374   5.715   3.190 -0.3911 -0.4452  0.2413
78187SOL    HW152553   6.458   5.717   3.144  0.5231 -0.9173  1.7807
78187SOL    HW252554   6.317   5.773   3.141  0.6346 -0.6363 -1.2320
78188SOL     OW52555  10.900   9.769   7.603 -0.7985 -0.8834 -0.4876
78188SOL    HW152556  10.831   9.808   7.657 -0.9987 -1.5984 -0.2292
78188SOL    HW252557  10.854   9.743   7.523 -0.7412 -0.9709 -0.4905
78189SOL     OW52558   7.684   8.227   6.061 -0.5922 -0.1000 -0.8835
78189SOL    HW152559   7.760   8.279   6.087 -1.1316  1.6765 -2.6437
78189SOL    HW252560   7.699   8.141   6.101  1.8224  0.5030 -0.3522
78190SOL     OW52561   8.675   0.390   2.011 -0.2471 -0.2969 -0.6636
78190SOL    HW152562   8.754   0.339   1.998  0.6524  0.9864 -0.4580
78190SOL    HW252563   8.625   0.378   1.930  0.6702 -0.2684 -1.2491
78191SOL     OW52564   7.807  13.504  11.246 -0.1066 -0.5149 -0.9136
78191SOL    HW152565   7.849  13.527  11.329 -0.2089 -1.0712 -0.7040
78191SOL    HW252566   7.814  13.584  11.193  0.0246 -0.1766 -0.4003
78192SOL     OW52567   8.740  13.161   3.046 -0.1910  0.7312 -0.4020
78192SOL    HW152568   8.807  13.191   3.107  0.4294 -0.7128 -0.3190
78192SOL    HW252569   8.789  13.115   2.978 -1.1371 -1.8035  0.5035
78193SOL     OW52570  10.854   9.728   5.674  0.5581 -0.0621  0.1569
78193SOL    HW152571  10.931   9.741   5.729  1.2764 -0.9482 -0.6015
78193SOL    HW252572  10.865   9.640   5.638 -0.4591  0.0714 -0.5193
78194SOL     OW52573   1.218   6.432   8.778 -0.0424 -0.3522  0.6083
78194SOL    HW152574   1.282   6.491   8.818  0.6810 -0.6598 -0.0685
78194SOL    HW252575   1.138   6.485   8.771  0.5171  0.4737  0.2606
78195SOL     OW52576   7.722   7.655   8.629 -0.3345  0.0137 -0.4500
78195SOL    HW152577   7.673   7.576   8.607 -0.6881  0.6973 -2.2535
78195SOL    HW252578   7.804   7.623   8.667  1.0184 -1.3901 -4.1680
78196SOL     OW52579  12.312   3.471   8.417  0.2859 -0.1143  0.5187
78196SOL    HW152580  12.320   3.455   8.511 -0.1323  1.7840  0.9049
78196SOL    HW252581  12.399   3.499   8.390  0.1511  0.3268  0.5413
78197SOL     OW52582   9.949   4.689   4.990  0.0491  0.0802  0.4192
78197SOL    HW152583   9.900   4.723   4.916 -0.8416  0.7208  1.2748
78197SOL    HW252584  10.022   4.642   4.951 -0.8478 -0.2829 -0.8684
78198SOL     OW52585   9.994   4.614   9.566  0.2266 -0.1227 -0.0087
78198SOL    HW152586   9.962   4.655   9.646 -0.2775  0.0049 -0.2750
78198SOL    HW252587  10.080   4.655   9.552  0.8492 -0.9984  1.0947
78199SOL     OW52588   0.854  10.969   2.731 -0.0716  0.3418 -0.7418
78199SOL    HW152589   0.809  11.009   2.657  1.2526  0.3998 -1.5404
78199SOL    HW252590   0.835  11.028   2.804 -2.0898 -0.1660 -0.7962
78200SOL     OW52591   4.137   3.143  11.242 -0.3472 -0.0523  0.3951
78200SOL    HW152592   4.154   3.186  11.325  0.0202 -0.9425  0.7888
78200SOL    HW252593   4.179   3.058  11.249 -1.0085 -0.4666 -0.3914
78201SOL     OW52594   8.994   8.736   1.096 -0.1242 -0.3028 -0.3512
78201SOL    HW152595   8.939   8.814   1.094 -0.5391 -0.5230  1.3946
78201SOL    HW252596   9.078   8.765   1.059  0.1887  1.3680  1.5296
78202SOL     OW52597  10.744  13.789  13.614  0.3441 -0.0566  0.1458
78202SOL    HW152598  10.681  13.840  13.563  1.2095  1.1046  0.2059
78202SOL    HW252599  10.791  13.854  13.666  2.4320 -0.7432 -0.8122
78203SOL     OW52600   6.051   1.008   4.648 -0.0860 -0.4777 -0.0474
78203SOL    HW152601   6.044   0.968   4.734 -2.6088  3.0973  1.6558
78203SOL    HW252602   5.974   0.976   4.600 -0.0604 -0.5468 -0.0411
78204SOL     OW52603   2.555   1.812  13.827 -0.1592 -0.5942 -0.4185
78204SOL    HW152604   2.555   1.882  13.892 -0.8872 -1.9234  1.0946
78204SOL    HW252605   2.557   1.731  13.879 -3.5915 -1.8131 -1.8748
78205SOL     OW52606  13.109  10.416  12.653 -0.4575  0.7375  0.0266
78205SOL    HW152607  13.177  10.477  12.681  0.6207 -0.3981 -0.0334
78205SOL    HW252608  13.155  10.352  12.598 -1.4421 -0.4229  0.5130
78206SOL     OW52609   4.549   5.806   5.143 -0.4361  0.2646 -0.2317
78206SOL    HW152610   4.534   5.713   5.130  0.6140  0.0700 -0.1101
78206SOL    HW252611   4.476   5.849   5.098 -1.8242 -0.6427  1.0530
78207SOL     OW52612  13.723   1.573   7.599  0.4191  0.6824  0.3192
78207SOL    HW152613  13.701   1.664   7.616 -0.6402  0.4836  0.0688
78207SOL    HW252614  13.673   1.550   7.520 -0.7333 -0.6122  1.3722
78208SOL     OW52615   4.440   7.827   6.484 -0.1631  0.3459  0.5792
78208SOL    HW152616   4.448   7.813   6.390  0.3851 -1.1431  0.8193
78208SOL    HW252617   4.506   7.768   6.522 -0.5056  0.7908  1.8969
78209SOL     OW52618   6.176   0.432   2.803 -0.4155  0.4180 -0.0297
78209SOL    HW152619   6.173   0.377   2.724 -1.5704 -1.5318  1.2818
78209SOL    HW252620   6.259   0.478   2.797  1.1643 -2.3134 -0.7334
78210SOL     OW52621   7.177   9.741   0.734  0.7670  0.4083  0.7757
78210SOL    HW152622   7.223   9.657   0.733  0.6705  0.3474 -0.7599
78210SOL    HW252623   7.087   9.719   0.757  0.8929  0.1835  1.0609
78211SOL     OW52624   9.927  11.201   2.472  0.2230 -0.3117  0.1983
78211SOL    HW152625   9.843  11.220   2.431  0.7580 -0.0518 -0.8231
78211SOL    HW252626   9.985  11.179   2.399  0.8272 -1.3433  0.9552
78212SOL     OW52627   7.766   2.178  13.034  0.0924 -0.0584  0.0047
78212SOL    HW152628   7.851   2.174  12.991  0.3122 -2.0339  0.4976
78212SOL    HW252629   7.740   2.086  13.043 -2.5569  0.5036 -1.0148
78213SOL     OW52630   4.512  10.435  12.703 -0.4672  0.3031  0.9954
78213SOL    HW152631   4.535  10.500  12.637 -0.6488 -1.5220 -0.9723
78213SOL    HW252632   4.416  10.438  12.707 -0.4824  0.0873  0.8124
78214SOL     OW52633   2.357   8.353   6.328  0.3939  0.4606 -0.4612
78214SOL    HW152634   2.346   8.319   6.417 -3.0980  2.8609  0.2165
78214SOL    HW252635   2.422   8.422   6.337 -0.1279  0.8723  0.3328
78215SOL     OW52636   9.765   9.817   5.759  0.2558 -0.3415  0.8753
78215SOL    HW152637   9.746   9.903   5.795 -0.0438 -0.6249  1.4144
78215SOL    HW252638   9.851   9.794   5.795  0.3692 -0.2378  0.6730
78216SOL     OW52639   7.752   5.029   0.220 -0.4157  0.4351 -0.1606
78216SOL    HW152640   7.796   5.028   0.305  2.1951 -1.2484 -1.4130
78216SOL    HW252641   7.674   4.974   0.233  0.6386 -0.8956  0.8357
78217SOL     OW52642   2.408  11.318   9.200 -0.5924 -0.4109 -0.0339
78217SOL    HW152643   2.347  11.387   9.174 -3.1613 -1.6456  2.1260
78217SOL    HW252644   2.361  11.236   9.182  2.0495 -1.6871 -1.8172
78218SOL     OW52645  13.698   8.390  10.421  0.1744  0.0516 -0.3257
78218SOL    HW152646  13.776   8.419  10.372  0.4334 -0.3742 -0.1745
78218SOL    HW252647  13.636   8.364  10.353  1.3335 -2.6529 -0.4756
78219SOL     OW52648   8.466   7.323  11.884  0.7980 -0.3542  0.3282
78219SOL    HW152649   8.398   7.377  11.844  0.6124 -0.0841  0.9908
78219SOL    HW252650   8.467   7.243  11.831 -2.1716 -1.7008  2.0075
78220SOL     OW52651  13.421   4.216   2.331  0.1587  0.0778 -0.5400
78220SOL    HW152652  13.340   4.168   2.314  0.3557 -0.3263 -0.3484
78220SOL    HW252653  13.457   4.174   2.409 -0.5069  1.5840  0.6456
78221SOL     OW52654   1.049   6.231   1.421 -0.0251  0.1937 -0.8949
78221SOL    HW152655   1.005   6.174   1.358 -0.8326  0.0659 -0.2326
78221SOL    HW252656   0.990   6.306   1.430  0.2452  0.3667 -0.5488
78222SOL     OW52657   3.218   9.379   7.431  0.4082  0.8496  0.2421
78222SOL    HW152658   3.219   9.457   7.376  2.4854  1.3513  0.8755
78222SOL    HW252659   3.274   9.316   7.384  1.5381  0.9981  1.3388
78223SOL     OW52660   1.628   4.636   7.071  0.2258 -0.3873  0.0584
78223SOL    HW152661   1.614   4.729   7.087  0.7116 -0.3119  0.0590
78223SOL    HW252662   1.593   4.592   7.148 -0.9648 -0.2755 -0.4015
78224SOL     OW52663  10.398   2.603  11.689  0.4897  0.5134  0.0292
78224SOL    HW152664  10.344   2.682  11.687  0.7419  0.6813 -0.2485
78224SOL    HW252665  10.466   2.619  11.623  1.3914  0.6832  0.9762
78225SOL     OW52666   6.724   9.923  12.045 -0.0123  0.1808  0.0425
78225SOL    HW152667   6.656   9.989  12.050 -0.8607 -0.7021  0.4909
78225SOL    HW252668   6.699   9.868  11.970  0.4414  0.0959 -0.0526
78226SOL     OW52669   0.190   3.200  14.025 -0.2022  0.0743  0.0967
78226SOL    HW152670   0.165   3.163  14.109  0.0752  0.0473  0.1693
78226SOL    HW252671   0.282   3.177  14.015  0.2550  1.5712  0.5909
78227SOL     OW52672  13.056   2.176   3.048 -0.1483 -0.5457  0.1728
78227SOL    HW152673  13.108   2.203   3.123 -0.4095  0.5577 -0.0232
78227SOL    HW252674  13.061   2.081   3.048 -0.1882 -0.5647  1.6208
78228SOL     OW52675   0.405   4.834   3.385  0.2253 -0.1460  0.7840
78228SOL    HW152676   0.372   4.924   3.391  0.5517  0.0101  0.2996
78228SOL    HW252677   0.382   4.795   3.469  0.3821  0.4929  1.1342
78229SOL     OW52678   0.542   1.054   4.707 -0.1209 -0.2316  0.4493
78229SOL    HW152679   0.521   1.052   4.613  0.9341 -0.1124  0.1909
78229SOL    HW252680   0.637   1.038   4.710  0.1490  1.3079  1.3800
78230SOL     OW52681  10.518   7.083  13.304  0.1459  0.1238  0.2482
78230SOL    HW152682  10.452   7.112  13.241  1.5822  1.2924 -0.7863
78230SOL    HW252683  10.601   7.090  13.257  1.1441 -0.1371  1.8901
78231SOL     OW52684  11.854  10.744   5.014 -0.0547 -0.1737  0.0749
78231SOL    HW152685  11.929  10.778   4.965  0.7187  0.2224  1.4591
78231SOL    HW252686  11.779  10.793   4.982  0.4749  0.2747 -0.4979
78232SOL     OW52687   6.073   0.255   1.558 -0.6658 -0.0142  0.2477
78232SOL    HW152688   6.059   0.194   1.631 -0.2871  0.7429  0.9685
78232SOL    HW252689   5.990   0.302   1.549 -0.5171  0.3218  0.6034
78233SOL     OW52690  13.193   5.767   6.574 -0.5175  0.5890 -0.5681
78233SOL    HW152691  13.203   5.695   6.637  1.4652  1.3472  0.0808
78233SOL    HW252692  13.108   5.806   6.594 -0.7291 -0.3404  0.4056
78234SOL     OW52693   5.994   7.234  12.917 -0.3192 -0.0830 -0.2662
78234SOL    HW152694   5.991   7.181  12.838  0.5786 -1.4222  0.5625
78234SOL    HW252695   6.017   7.322  12.886  1.0133 -0.7931 -1.4083
78235SOL     OW52696   2.278  10.560  10.093 -0.1102 -0.1826 -0.0166
78235SOL    HW152697   2.357  10.605  10.064  2.4490 -2.2503  3.0735
78235SOL    HW252698   2.309  10.478  10.131 -3.6334 -0.6615  2.3729
78236SOL     OW52699   1.655  12.320   2.004  0.2441  0.2744 -0.0971
78236SOL    HW152700   1.626  12.230   2.016  2.4294 -0.3675  0.7630
78236SOL    HW252701   1.594  12.372   2.057 -0.9805 -0.6588 -0.5301
78237SOL     OW52702   9.855   8.264  13.838  0.1762 -0.3777  0.3827
78237SOL    HW152703   9.839   8.259  13.744  0.8785  3.6682 -0.1559
78237SOL    HW252704   9.822   8.182  13.873 -2.3158 -1.0714 -3.0871
78238SOL     OW52705  12.204   0.725   7.318 -0.1866 -0.0679 -0.1451
78238SOL    HW152706  12.285   0.706   7.365  0.3205  1.7921 -0.1702
78238SOL    HW252707  12.232   0.779   7.245 -1.4883  0.9640  0.0940
78239SOL     OW52708   5.470  12.548  10.712 -0.0108  0.0238 -0.8793
78239SOL    HW152709   5.468  12.562  10.807  1.9558  0.3761 -0.8505
78239SOL    HW252710   5.379  12.556  10.685 -0.8426 -1.5192  1.1646
78240SOL     OW52711   0.302  11.896   0.237  0.2507  0.7090 -0.0005
78240SOL    HW152712   0.323  11.879   0.145  2.2909 -0.2975  0.5920
78240SOL    HW252713   0.382  11.935   0.273  0.0531 -0.3452  1.6927
78241SOL     OW52714   8.393   5.837  12.539 -0.2126 -0.2352 -0.3891
78241SOL    HW152715   8.404   5.742  12.533 -2.4274 -0.5285 -0.5571
78241SOL    HW252716   8.307   5.854  12.500  0.8811  2.0678 -1.9992
78242SOL     OW52717   1.038  11.388   5.520  0.4901 -0.1145  0.1661
78242SOL    HW152718   0.991  11.404   5.602  0.3615 -1.5062  0.3863
78242SOL    HW252719   1.067  11.475   5.492  0.4499  0.4008  1.6299
78243SOL     OW52720   1.001   5.231   5.737  0.3059 -0.4445 -0.2708
78243SOL    HW152721   0.995   5.318   5.698 -0.5735 -0.3791 -0.0052
78243SOL    HW252722   1.047   5.246   5.820 -1.8383  0.1796  0.8950
78244SOL     OW52723   3.491   0.302   3.483 -0.4218  0.6969 -0.2021
78244SOL    HW152724   3.420   0.301   3.548  0.1285  1.1431  0.4295
78244SOL    HW252725   3.472   0.378   3.428  0.9931  2.5081  1.6595
78245SOL     OW52726   6.790   6.494  13.874 -0.2160 -0.3910 -0.5816
78245SOL    HW152727   6.793   6.404  13.907  2.4991  0.2714  1.3572
78245SOL    HW252728   6.713   6.532  13.917 -0.6726 -1.4432 -0.4340
78246SOL     OW52729   6.789   5.777  11.248 -0.6591  0.3031  0.4612
78246SOL    HW152730   6.878   5.745  11.233 -1.2341 -0.4018 -1.7713
78246SOL    HW252731   6.801   5.866  11.283  0.9066  0.3214 -0.0606
78247SOL     OW52732   3.134  11.733   8.306 -0.4661 -0.3620 -0.2748
78247SOL    HW152733   3.095  11.646   8.311 -0.4677 -0.3132  1.3687
78247SOL    HW252734   3.079  11.787   8.364 -0.1366  0.5936 -0.8254
78248SOL     OW52735   3.664  10.758   1.191  0.4423 -0.3171 -0.1289
78248SOL    HW152736   3.649  10.720   1.277 -0.1713 -1.9738 -0.9204
78248SOL    HW252737   3.609  10.836   1.189 -2.1172 -1.9878 -0.1032
78249SOL     OW52738   2.792  11.979  12.157 -0.1313 -0.9521  0.3685
78249SOL    HW152739   2.701  11.952  12.149  0.5741 -2.7821 -3.7787
78249SOL    HW252740   2.796  12.063  12.111  0.6480 -2.3242 -2.2866
78250SOL     OW52741   9.401  10.337   2.459  0.3440 -0.3148  0.0437
78250SOL    HW152742   9.388  10.428   2.485  3.0510  0.4714 -0.9858
78250SOL    HW252743   9.461  10.342   2.384 -1.0611 -2.8608 -1.3826
78251SOL     OW52744   1.752  11.272  13.908  0.3461  0.3458  0.1719
78251SOL    HW152745   1.776  11.182  13.889  0.6169  0.5835 -0.6451
78251SOL    HW252746   1.834  11.315  13.933  0.2266  0.3808  0.5123
78252SOL     OW52747   7.739   3.409  10.547 -0.1124  0.0970  0.0142
78252SOL    HW152748   7.813   3.367  10.503 -0.1021 -0.7706  0.8285
78252SOL    HW252749   7.760   3.403  10.640 -1.0091  0.2401  0.2309
78253SOL     OW52750   8.406   0.889   2.828 -0.1271 -0.2597  0.1053
78253SOL    HW152751   8.322   0.856   2.859 -0.0803  0.0418  0.5535
78253SOL    HW252752   8.448   0.813   2.787 -0.7631 -0.3271 -0.4384
78254SOL     OW52753   5.412   3.422  13.088  0.9219  0.0305  0.1249
78254SOL    HW152754   5.483   3.486  13.084  0.2094  0.9344  1.4240
78254SOL    HW252755   5.345   3.463  13.142 -0.2309 -1.1763 -0.3314
78255SOL     OW52756  11.161   8.159   3.070  0.4034  0.2430  0.4263
78255SOL    HW152757  11.111   8.172   3.151 -0.5181 -0.0557 -0.0838
78255SOL    HW252758  11.216   8.084   3.088  0.6988  0.5886  1.0053
78256SOL     OW52759  12.018   5.625  10.896 -0.3238 -0.2731 -0.3796
78256SOL    HW152760  12.104   5.585  10.908 -1.3997 -3.2395 -1.3939
78256SOL    HW252761  11.982   5.632  10.984  0.5898  0.0819 -0.0285
78257SOL     OW52762   7.395   6.121   6.339  0.3195  0.0539 -0.0730
78257SOL    HW152763   7.483   6.152   6.359  0.5080 -0.7673  0.4135
78257SOL    HW252764   7.351   6.117   6.425  0.0392 -0.2296 -0.2282
78258SOL     OW52765   4.807   4.868  14.052  0.0399 -0.5219 -0.3775
78258SOL    HW152766   4.803   4.806  13.979 -0.2660  0.0328 -0.8356
78258SOL    HW252767   4.733   4.845  14.108  0.4855 -1.1800 -0.0495
78259SOL     OW52768   8.214   6.731  11.681  0.1324  0.3991 -0.2954
78259SOL    HW152769   8.264   6.808  11.706 -1.2660  0.8722  1.1774
78259SOL    HW252770   8.280   6.666  11.658  1.3509  1.9762 -1.5458
78260SOL     OW52771   4.354  10.392   0.085 -0.0502  0.5848 -0.3821
78260SOL    HW152772   4.384  10.405   0.175 -1.2679  0.0525  0.1186
78260SOL    HW252773   4.400  10.313   0.055 -1.3196 -0.5510  0.5714
78261SOL     OW52774  13.709   1.795   7.786  0.6487  0.1911 -0.1728
78261SOL    HW152775  13.661   1.776   7.867 -0.8320  1.5973 -0.6652
78261SOL    HW252776  13.691   1.887   7.769  1.3326  0.0406 -1.8582
78262SOL     OW52777   3.586   1.394   9.535 -0.2711 -0.5438 -0.7036
78262SOL    HW152778   3.650   1.462   9.556 -1.0813 -0.2020  0.8092
78262SOL    HW252779   3.639   1.321   9.502  0.7495  0.2519 -0.8947
78263SOL     OW52780   6.196  11.410   5.727  0.5445 -0.2530  0.1769
78263SOL    HW152781   6.204  11.498   5.688 -0.4610 -0.3398 -0.2503
78263SOL    HW252782   6.148  11.360   5.661 -0.4082 -0.6486  1.1609
78264SOL     OW52783   8.281  11.119   0.662 -0.4843  0.5695 -0.5761
78264SOL    HW152784   8.354  11.077   0.617  0.2160  1.6610 -0.5091
78264SOL    HW252785   8.306  11.119   0.755 -1.6886 -1.2114 -0.1824
78265SOL     OW52786   9.827   6.427   4.102  0.4802 -0.5995  0.8413
78265SOL    HW152787   9.776   6.468   4.033 -0.6941 -3.0987  0.0894
78265SOL    HW252788   9.766   6.363   4.141  1.8071 -0.8082  2.6950
78266SOL     OW52789   7.664  10.481   9.941  0.0694 -0.1419 -0.1429
78266SOL    HW152790   7.741  10.518   9.898  0.0729  0.0971  0.0671
78266SOL    HW252791   7.692  10.466  10.032  0.4617 -1.8291 -0.5130
78267SOL     OW52792   4.252   2.809  13.843  0.5301 -0.4676  0.3918
78267SOL    HW152793   4.196   2.768  13.777  2.9648  0.0680 -2.1615
78267SOL    HW252794   4.291   2.735  13.890  0.2471 -0.9210 -0.0664
78268SOL     OW52795  12.109   4.956  10.761 -0.2965 -0.1795 -0.2485
78268SOL    HW152796  12.148   5.028  10.712 -0.1076  0.2607  0.5194
78268SOL    HW252797  12.030   4.934  10.714 -0.5533  0.7884 -0.2954
78269SOL     OW52798   1.149   5.812  10.849  0.1332 -0.7143 -0.0380
78269SOL    HW152799   1.088   5.739  10.857  0.9143 -1.2525  1.3210
78269SOL    HW252800   1.116   5.879  10.909  1.1201 -1.2077  1.0912
78270SOL     OW52801   7.372   9.934   3.808 -0.6205  0.0616  0.0222
78270SOL    HW152802   7.355  10.011   3.754 -2.0026 -0.0831  0.2096
78270SOL    HW252803   7.445   9.959   3.864  0.1948  0.5554 -1.2352
78271SOL     OW52804  12.198   6.196   7.431 -0.6893  0.6943 -0.2233
78271SOL    HW152805  12.126   6.156   7.383 -0.7071 -0.5400  0.7964
78271SOL    HW252806  12.215   6.137   7.504  0.9160  1.3005 -0.0509
78272SOL     OW52807   1.942  13.806  13.848  0.1344 -0.0992 -0.4684
78272SOL    HW152808   1.872  13.870  13.858 -0.2648 -0.8019  1.7156
78272SOL    HW252809   1.903  13.736  13.795 -0.4694  0.0047 -0.1717
78273SOL     OW52810  13.583   6.141   2.259  0.3707 -0.2483  0.2691
78273SOL    HW152811  13.574   6.196   2.181  2.1924 -0.3403 -0.0566
78273SOL    HW252812  13.623   6.199   2.324  0.9742 -0.7939  0.3858
78274SOL     OW52813   9.816  10.894   4.933  0.1641 -0.2261  0.0632
78274SOL    HW152814   9.900  10.855   4.908 -0.7980 -0.6363 -2.9875
78274SOL    HW252815   9.751  10.832   4.900 -1.3519  1.1775  0.3290
78275SOL     OW52816  11.088   3.280   2.960 -0.1709 -0.4057 -0.7034
78275SOL    HW152817  11.082   3.201   3.014 -0.4779 -0.4930 -0.8599
78275SOL    HW252818  11.182   3.295   2.951 -0.0836 -1.2011 -1.3041
78276SOL     OW52819   5.921   1.991   1.221 -0.3458 -0.0931  0.0298
78276SOL    HW152820   5.903   2.041   1.301 -4.2936  0.8895 -1.2500
78276SOL    HW252821   6.016   1.994   1.212  0.2759  0.1195  4.3830
78277SOL     OW52822   8.050   0.999   7.433  0.1319 -0.3888  0.2665
78277SOL    HW152823   8.102   0.946   7.493  1.2710 -0.1729 -0.4837
78277SOL    HW252824   7.997   0.936   7.384  0.2843 -0.6860  0.4800
78278SOL     OW52825  11.684   8.066   3.555 -0.0550 -0.1940  0.6929
78278SOL    HW152826  11.703   7.973   3.540 -1.7188 -0.5646  0.6625
78278SOL    HW252827  11.760   8.099   3.603 -0.3299 -2.0858  2.5766
78279SOL     OW52828   7.992   9.492   3.060  0.7058 -0.0813  0.0641
78279SOL    HW152829   8.040   9.461   3.137  0.8327 -0.6965 -0.2590
78279SOL    HW252830   7.930   9.423   3.040 -0.0136  0.5139  0.2022
78280SOL     OW52831   4.543  11.648   3.456  0.1510 -0.0260  0.8597
78280SOL    HW152832   4.593  11.613   3.382 -1.7479  0.8949 -0.9733
78280SOL    HW252833   4.507  11.572   3.499  1.0250 -0.5699  0.6624
78281SOL     OW52834  12.350  13.624   7.904  0.2109  0.2719 -0.0942
78281SOL    HW152835  12.437  13.584   7.912 -0.3049 -0.6746  1.0865
78281SOL    HW252836  12.367  13.716   7.887  1.4954  0.4379  1.7572
78282SOL     OW52837  13.172   5.324  13.637  0.2503  0.1496  0.4758
78282SOL    HW152838  13.262   5.293  13.634  0.2785  0.2431  0.3483
78282SOL    HW252839  13.176   5.412  13.600  0.1993  0.3757  0.9971
78283SOL     OW52840   9.339   1.319  11.647 -0.2585 -0.7631 -0.1688
78283SOL    HW152841   9.282   1.328  11.724  0.3838 -1.5018  0.4113
78283SOL    HW252842   9.425   1.299  11.683  0.3534  0.2233 -1.0480
78284SOL     OW52843   2.102   9.173  11.589  0.9371 -0.4757 -0.3053
78284SOL    HW152844   2.093   9.265  11.562  1.4788 -0.4089 -0.2584
78284SOL    HW252845   2.037   9.127  11.536 -0.1736  0.0971  0.5279
78285SOL     OW52846   2.089  11.962   7.264  0.2868  0.4144  0.7293
78285SOL    HW152847   2.070  11.928   7.177 -3.6230  2.8105  0.3772
78285SOL    HW252848   2.079  11.887   7.322  0.3467 -0.6951 -0.6441
78286SOL     OW52849   5.124   4.369   9.639 -0.0021 -0.3290 -0.1159
78286SOL    HW152850   5.190   4.399   9.701  0.4030  0.6244 -0.9710
78286SOL    HW252851   5.158   4.286   9.605 -0.0602 -0.6779  0.6638
78287SOL     OW52852   5.474   2.418   3.418  0.0525  0.5464  0.6030
78287SOL    HW152853   5.405   2.448   3.360  0.5162  0.3941 -0.0338
78287SOL    HW252854   5.550   2.472   3.396  0.9843 -1.2111 -0.7547
78288SOL     OW52855   2.098  13.517  12.014  0.0063  0.4549  0.5079
78288SOL    HW152856   2.016  13.566  12.025  1.0887  2.7323 -0.8077
78288SOL    HW252857   2.160  13.562  12.070  0.7967 -0.0829  0.0758
78289SOL     OW52858   6.137   4.874   8.015 -0.1172  0.5439  0.0472
78289SOL    HW152859   6.105   4.892   7.927 -0.4796 -0.1942  0.0249
78289SOL    HW252860   6.143   4.960   8.056  2.7746  1.2768 -1.5983
78290SOL     OW52861   5.685   0.623   6.314 -0.6720 -0.1511  0.5304
78290SOL    HW152862   5.592   0.603   6.325 -0.3515 -1.5128  0.9007
78290SOL    HW252863   5.727   0.538   6.302  0.3709  0.5360 -0.9332
78291SOL     OW52864   0.561   7.307   9.905  0.0647  0.4013 -0.1186
78291SOL    HW152865   0.611   7.333   9.982  0.6524 -0.5556 -0.1639
78291SOL    HW252866   0.482   7.266   9.941  0.8055 -0.9527  0.0019
78292SOL     OW52867   5.724  12.113   7.053  0.2375 -0.0298 -0.0994
78292SOL    HW152868   5.807  12.069   7.031  0.3104  0.2688 -0.4474
78292SOL    HW252869   5.664  12.042   7.073  0.5308 -0.2600 -0.0207
78293SOL     OW52870   9.746   4.327  13.086  0.3888 -0.2833  0.4486
78293SOL    HW152871   9.816   4.308  13.149  2.2899  0.6318 -1.2884
78293SOL    HW252872   9.729   4.421  13.096  1.7791  0.2120 -1.3506
78294SOL     OW52873   6.515  13.620   9.275  0.2498 -0.0538  0.4515
78294SOL    HW152874   6.478  13.561   9.209 -0.2424  1.7613 -0.9667
78294SOL    HW252875   6.445  13.683   9.293  1.2730  1.0379  0.7330
78295SOL     OW52876   1.496  10.203   1.744 -0.2817 -0.5160  0.4788
78295SOL    HW152877   1.470  10.157   1.824  0.2695  1.1514  1.6815
78295SOL    HW252878   1.478  10.295   1.763  0.1406 -0.0483 -1.2264
78296SOL     OW52879   8.205   4.325   9.972  0.4535  0.0627 -0.4594
78296SOL    HW152880   8.290   4.313   9.930  0.7408  0.2612  0.0510
78296SOL    HW252881   8.184   4.239  10.008  0.1097 -0.1598 -1.1691
78297SOL     OW52882   1.557   0.745  11.110  0.6228 -0.5022 -0.1521
78297SOL    HW152883   1.464   0.742  11.130  0.6608  1.0221  0.3420
78297SOL    HW252884   1.569   0.825  11.060  1.7894 -0.2082  0.5431
78298SOL     OW52885   8.085   2.247   7.626  0.6881 -0.7425 -0.3028
78298SOL    HW152886   8.135   2.297   7.691  1.1517  0.5626 -1.6061
78298SOL    HW252887   7.995   2.275   7.637  0.7443 -0.6358 -0.1192
78299SOL     OW52888   1.027  11.135  10.741 -0.3733 -0.2061 -0.0245
78299SOL    HW152889   1.110  11.134  10.787  0.3753  1.3787 -1.2490
78299SOL    HW252890   1.033  11.062  10.678 -0.2591 -0.6076  0.4495
78300SOL     OW52891  12.939  11.231   4.399 -0.0428 -0.3662 -0.0332
78300SOL    HW152892  13.022  11.199   4.435 -0.0720 -0.4365 -0.0274
78300SOL    HW252893  12.901  11.282   4.470  1.6859  2.7790 -1.2023
78301SOL     OW52894  12.432   3.981   2.493 -0.3686 -0.9888  0.3218
78301SOL    HW152895  12.524   3.982   2.466  0.0081  1.6318  1.3644
78301SOL    HW252896  12.391   4.050   2.440 -0.7520  0.6749  2.6222
78302SOL     OW52897   9.101   1.527  10.886 -0.0988 -0.0753  0.0156
78302SOL    HW152898   9.123   1.546  10.795 -0.8649  1.1583  0.0597
78302SOL    HW252899   9.055   1.605  10.916  0.0927 -0.4821  1.4514
78303SOL     OW52900   4.845   9.972   3.387 -0.5694 -0.1986  0.6823
78303SOL    HW152901   4.830   9.888   3.431  0.9856 -0.8759  0.0085
78303SOL    HW252902   4.793   9.967   3.307 -0.3328 -0.6081  0.5513
78304SOL     OW52903   5.734   7.120  13.177  0.0536 -0.5408 -0.1416
78304SOL    HW152904   5.669   7.166  13.125 -0.4764 -2.3047 -1.1100
78304SOL    HW252905   5.694   7.036  13.198  1.2681 -0.8964  0.9306
78305SOL     OW52906   1.236  13.520   2.011 -0.6056  0.2978  0.1830
78305SOL    HW152907   1.223  13.567   2.093  1.8828 -0.3128  1.0273
78305SOL    HW252908   1.207  13.431   2.030  0.9246 -0.1064  0.8075
78306SOL     OW52909   5.316   4.187   0.813  0.2170  0.2052  0.1370
78306SOL    HW152910   5.333   4.099   0.845 -0.0635  0.2312  0.3541
78306SOL    HW252911   5.222   4.188   0.794 -0.1192  0.9589  1.6861
78307SOL     OW52912  12.229   8.861  11.527 -0.2261  0.0490 -0.2308
78307SOL    HW152913  12.201   8.784  11.577 -0.8156  0.1455 -0.4011
78307SOL    HW252914  12.308   8.891  11.571 -0.4929 -0.1246  0.3845
78308SOL     OW52915   8.823   7.929   4.959  0.0026 -0.4190  0.8697
78308SOL    HW152916   8.881   7.988   5.008 -0.5548 -0.3733  1.4870
78308SOL    HW252917   8.876   7.899   4.886  0.6310  0.0467  1.1240
78309SOL     OW52918   6.541   9.861  10.150 -0.3335  0.9356 -0.6111
78309SOL    HW152919   6.539   9.952  10.181 -1.1200  0.7067  0.0290
78309SOL    HW252920   6.466   9.820  10.192  1.4629 -0.7082  1.1645
78310SOL     OW52921  12.184  12.929   8.460 -0.4391 -0.8320 -0.3255
78310SOL    HW152922  12.089  12.925   8.469 -0.3732  0.2566  1.0636
78310SOL    HW252923  12.216  12.850   8.504 -0.6721 -1.0341 -0.5149
78311SOL     OW52924   5.914   9.062  10.166 -0.1947  0.1223 -0.2642
78311SOL    HW152925   5.949   8.985  10.210 -0.3031 -0.3689 -1.0380
78311SOL    HW252926   5.885   9.119  10.238  3.1330  1.0523  0.4872
78312SOL     OW52927   0.708   6.392  10.742  0.0316 -0.1401  0.3520
78312SOL    HW152928   0.724   6.401  10.649  1.6402 -0.3552  0.5838
78312SOL    HW252929   0.625   6.437  10.757 -0.2684 -0.1475 -1.1763
78313SOL     OW52930   2.447  11.635  10.279  0.5695 -0.3113 -0.7988
78313SOL    HW152931   2.519  11.573  10.291  1.4033  0.3783 -2.0729
78313SOL    HW252932   2.446  11.686  10.360  0.7399 -1.1039 -0.2866
78314SOL     OW52933   8.382   1.933   7.988 -0.2611  0.1915  0.1578
78314SOL    HW152934   8.307   1.915   8.045 -0.6428 -1.2838 -0.7780
78314SOL    HW252935   8.372   1.873   7.915  1.6395  0.2405 -0.1825
78315SOL     OW52936   9.353   1.890   2.286 -0.1536 -0.0420  0.5578
78315SOL    HW152937   9.353   1.795   2.291  0.7146 -0.2095 -1.4932
78315SOL    HW252938   9.436   1.917   2.326  0.0616 -0.2364  0.2462
78316SOL     OW52939  10.542  13.324   8.740 -0.5417  0.1496 -0.4217
78316SOL    HW152940  10.539  13.258   8.809 -0.9596  0.9263  0.3153
78316SOL    HW252941  10.632  13.320   8.707  0.3052  1.1948  1.5845
78317SOL     OW52942   1.902   0.047   3.819  0.1726 -0.4828  0.1693
78317SOL    HW152943   1.936   0.056   3.908 -0.0170 -1.4385  0.3449
78317SOL    HW252944   1.819   0.095   3.820  0.9311  0.8860  0.0507
78318SOL     OW52945  11.513   8.318  10.986  0.1238 -0.4236  0.1712
78318SOL    HW152946  11.550   8.290  10.902 -1.2369 -2.2768  0.1310
78318SOL    HW252947  11.428   8.354  10.964  0.1742  0.0014  0.6639
78319SOL     OW52948   9.851   0.466  10.666  0.2464  0.0841  0.1160
78319SOL    HW152949   9.934   0.457  10.619 -0.0705 -0.8185 -0.2780
78319SOL    HW252950   9.799   0.525  10.611  0.2385 -0.1829 -0.1608
78320SOL     OW52951   8.446   0.066  14.152 -0.6224 -0.0048 -0.1082
78320SOL    HW152952   8.446   0.104  14.064 -0.1385 -1.9434 -0.9905
78320SOL    HW252953   8.512   0.117  14.199  0.8197 -0.4177 -1.5836
78321SOL     OW52954   1.975   2.790   0.272  0.4589  0.2044  0.0751
78321SOL    HW152955   1.985   2.851   0.345  1.8209 -0.3281  0.3710
78321SOL    HW252956   2.040   2.819   0.208  1.1372 -0.9166  0.2289
78322SOL     OW52957   8.780  11.623  11.338  0.3078  0.3806 -0.1220
78322SOL    HW152958   8.776  11.719  11.340  1.1217  0.4343  2.0651
78322SOL    HW252959   8.703  11.595  11.388 -0.5135 -0.1823 -1.6414
78323SOL     OW52960   0.427  13.970   6.437 -0.4676  0.0801  0.2461
78323SOL    HW152961   0.442  14.050   6.487 -0.1541  0.4684 -0.4598
78323SOL    HW252962   0.416  13.999   6.347  2.7623 -0.8663 -0.6018
78324SOL     OW52963   7.821   9.931   2.202 -0.2134  0.2676  0.1825
78324SOL    HW152964   7.744   9.890   2.240  0.7582 -1.4702  0.3573
78324SOL    HW252965   7.801  10.025   2.203 -1.9841 -0.0854  0.9377
78325SOL     OW52966  11.039   8.173   3.895 -0.0223  0.2597 -0.1707
78325SOL    HW152967  10.972   8.150   3.959 -1.0653 -0.3117 -1.4329
78325SOL    HW252968  11.090   8.093   3.883 -0.6809 -0.0391 -1.0448
78326SOL     OW52969  10.283   3.078  12.752 -0.2170  0.4021 -0.6852
78326SOL    HW152970  10.259   3.140  12.683  0.4596  0.4379 -0.8950
78326SOL    HW252971  10.233   3.108  12.828  0.2470  1.3517 -0.7265
78327SOL     OW52972   2.275  11.424   4.579 -0.5852 -0.3495 -0.1513
78327SOL    HW152973   2.292  11.435   4.485  2.0522 -1.5735  0.1045
78327SOL    HW252974   2.210  11.354   4.583  0.9137 -1.8595 -1.0598
78328SOL     OW52975   2.218   1.695  11.512  0.2283  0.4597  0.6398
78328SOL    HW152976   2.195   1.731  11.427 -1.5260  1.1476  1.3501
78328SOL    HW252977   2.274   1.761  11.553 -0.0060  0.7276  0.5264
78329SOL     OW52978   5.220   9.172   1.356  0.0381 -0.5219 -0.3435
78329SOL    HW152979   5.275   9.221   1.294  1.0450 -1.0443  0.1071
78329SOL    HW252980   5.230   9.219   1.439 -0.0409 -0.7355 -0.2122
78330SOL     OW52981   9.086   7.066   4.505 -0.2207  0.2273 -0.3984
78330SOL    HW152982   9.172   7.106   4.517 -0.9848  1.4321  1.4419
78330SOL    HW252983   9.041   7.122   4.443 -0.1214  0.3291 -0.3782
78331SOL     OW52984  13.868  11.783  13.001  0.1664  0.1282 -0.1465
78331SOL    HW152985  13.826  11.697  13.004  0.5869 -0.1633 -1.7101
78331SOL    HW252986  13.958  11.765  12.973  0.0539  1.1118 -1.2442
78332SOL     OW52987   3.802  12.809   2.584  0.3334  0.0570 -0.2737
78332SOL    HW152988   3.857  12.734   2.562  0.6788  0.3731 -0.5105
78332SOL    HW252989   3.764  12.786   2.669  1.8587  0.3660  0.5393
78333SOL     OW52990   1.443   7.353   6.158 -0.2978 -0.0397 -0.2157
78333SOL    HW152991   1.370   7.414   6.161 -0.8328 -0.6561 -0.5941
78333SOL    HW252992   1.519   7.406   6.184 -1.1837  0.0921  2.3704
78334SOL     OW52993   1.668  10.467   3.726 -0.1278  0.0246 -0.2089
78334SOL    HW152994   1.601  10.426   3.671 -1.0316  1.2492 -0.0773
78334SOL    HW252995   1.670  10.558   3.696  1.3346  0.0543 -0.0509
78335SOL     OW52996  14.065   0.593  11.330 -0.0616 -0.0906 -0.0453
78335SOL    HW152997  14.006   0.519  11.339 -0.2936 -0.0236 -0.8654
78335SOL    HW252998  14.152   0.558  11.346 -0.1048 -0.6856 -1.0441
78336SOL     OW52999   8.857   7.834   6.629  0.4162  0.0946 -0.4187
78336SOL    HW153000   8.783   7.875   6.673 -0.8592 -3.0062  0.6113
78336SOL    HW253001   8.925   7.828   6.697  0.1694 -0.4708 -0.2116
78337SOL     OW53002  10.717  13.578  12.222 -0.1438  0.3008 -0.1955
78337SOL    HW153003  10.780  13.649  12.216  1.4098 -1.0623 -0.9897
78337SOL    HW253004  10.635  13.614  12.189  0.4306  1.8760  0.0356
78338SOL     OW53005   0.599  10.929   4.475  0.1200  0.0020  0.5213
78338SOL    HW153006   0.617  10.962   4.387 -0.3056 -0.1391  0.3773
78338SOL    HW253007   0.670  10.964   4.529 -1.1317  2.4764  0.7058
78339SOL     OW53008   3.868   4.236   1.333 -0.1294  0.1994 -0.6938
78339SOL    HW153009   3.899   4.204   1.418  1.3667  1.4134 -0.7424
78339SOL    HW253010   3.805   4.304   1.355  2.1623  2.3902 -0.4135
78340SOL     OW53011   1.795  13.239   2.207 -0.1922  0.5644  0.1909
78340SOL    HW153012   1.792  13.146   2.182 -0.1246  0.6890 -0.2908
78340SOL    HW253013   1.774  13.239   2.301  0.5162 -0.0025  0.3567
78341SOL     OW53014  12.361   0.343   2.734 -0.8677  0.1690  0.2232
78341SOL    HW153015  12.282   0.334   2.787 -1.1145 -0.0228 -0.1765
78341SOL    HW253016  12.427   0.373   2.796 -0.7443 -1.5336  0.9857
78342SOL     OW53017  12.745  13.556  12.863 -0.5610  0.3724  0.1284
78342SOL    HW153018  12.733  13.591  12.775  0.6529 -0.7086 -0.5032
78342SOL    HW253019  12.840  13.558  12.877 -0.7099  0.2574  1.2976
78343SOL     OW53020   9.482   0.297  11.450 -0.0932  0.4953  0.3175
78343SOL    HW153021   9.517   0.310  11.361 -0.1609  0.7070  0.3197
78343SOL    HW253022   9.559   0.298  11.506 -0.1027  1.0618  0.3333
78344SOL     OW53023   7.179   3.419   3.661  0.2413  0.0842  0.5976
78344SOL    HW153024   7.259   3.375   3.633 -0.9442 -2.0815  0.4506
78344SOL    HW253025   7.148   3.465   3.583  1.2221  0.8339  0.6214
78345SOL     OW53026  10.213   4.688  11.384 -0.1099 -0.1877 -0.0601
78345SOL    HW153027  10.289   4.644  11.346  0.6502 -0.2865  1.5122
78345SOL    HW253028  10.247   4.773  11.414 -0.6782 -0.1205  0.4075
78346SOL     OW53029   7.446  13.157   8.097 -0.4286  0.4874 -0.6840
78346SOL    HW153030   7.382  13.095   8.131  1.1651 -2.1538 -2.1312
78346SOL    HW253031   7.408  13.189   8.015 -0.1195 -0.8000 -1.3586
78347SOL     OW53032   6.428   1.447   2.814 -0.3909  0.0704  0.3421
78347SOL    HW153033   6.493   1.508   2.780 -1.2493  0.6419 -0.3271
78347SOL    HW253034   6.346   1.496   2.814 -0.8803 -0.7136  0.9116
78348SOL     OW53035   0.478   2.206   8.013 -0.6916 -0.0490 -0.2756
78348SOL    HW153036   0.562   2.249   8.025 -2.3453  3.1806  0.8996
78348SOL    HW253037   0.469   2.148   8.089 -0.6361  1.6523  1.0757
78349SOL     OW53038   1.907   1.718   5.712  0.3297  0.0461 -0.2958
78349SOL    HW153039   1.879   1.634   5.749 -0.5802 -0.1010 -1.2878
78349SOL    HW253040   1.875   1.783   5.775  2.1253 -0.3667  1.1396
78350SOL     OW53041   6.895   1.222   7.291 -0.3842  0.6255 -0.2530
78350SOL    HW153042   6.948   1.282   7.343  0.3634  0.1579 -0.4602
78350SOL    HW253043   6.924   1.135   7.318 -0.5019  0.3715 -0.9276
78351SOL     OW53044  12.898   9.629  10.566  0.0149 -0.4831  0.3401
78351SOL    HW153045  12.955   9.684  10.513  0.7995  0.2461  1.8868
78351SOL    HW253046  12.846   9.580  10.502  1.0306  0.2317 -1.0882
78352SOL     OW53047   3.597   2.373  12.927 -0.3534 -0.1209  0.1146
78352SOL    HW153048   3.566   2.412  13.008  0.2071 -0.3832  0.4586
78352SOL    HW253049   3.688   2.347  12.945 -0.6713 -1.4814 -0.1302
78353SOL     OW53050  11.366  12.291  11.756 -0.3043  0.5069 -0.9754
78353SOL    HW153051  11.334  12.280  11.845  0.2603  2.0435 -0.5671
78353SOL    HW253052  11.321  12.369  11.723 -1.9655 -1.0712 -2.7534
78354SOL     OW53053   7.852   3.960   6.282  0.1023  0.5420  0.5124
78354SOL    HW153054   7.826   4.015   6.208  0.2574  0.0333  0.0747
78354SOL    HW253055   7.918   4.012   6.327  1.1853  0.2180 -0.6238
78355SOL     OW53056   1.534   4.496  10.045  0.1721 -0.0271  0.0204
78355SOL    HW153057   1.534   4.576  10.097 -1.6022 -0.3977  0.6468
78355SOL    HW253058   1.473   4.513   9.973  0.4558 -0.5164 -0.3507
78356SOL     OW53059   0.524   2.906  10.090 -0.3277 -0.2845  0.5505
78356SOL    HW153060   0.582   2.932  10.019 -0.9396 -1.9049 -0.6109
78356SOL    HW253061   0.539   2.971  10.159  2.2035 -0.1378 -0.0280
78357SOL     OW53062   4.533  10.576   1.091 -0.1545  0.2802  0.5861
78357SOL    HW153063   4.497  10.665   1.093  0.3694  0.4815  1.4398
78357SOL    HW253064   4.612  10.581   1.145  0.3787 -0.4949 -0.0958
78358SOL     OW53065   4.315   4.834   5.813 -0.0068 -0.2128 -0.1238
78358SOL    HW153066   4.262   4.792   5.746  0.4475  0.7887 -1.1316
78358SOL    HW253067   4.272   4.918   5.830 -0.4289 -0.6729  1.2560
78359SOL     OW53068  11.481  13.951   3.245 -0.2170 -0.3562  0.3198
78359SOL    HW153069  11.552  14.013   3.232 -0.4602  0.1306  1.1699
78359SOL    HW253070  11.509  13.871   3.202  1.2346 -0.4517  1.3852
78360SOL     OW53071   1.082   2.781   3.203 -0.4697 -0.6436 -0.3684
78360SOL    HW153072   1.134   2.742   3.133 -2.5968 -1.0259 -1.8127
78360SOL    HW253073   1.099   2.724   3.279  2.1121 -0.0277 -0.3677
78361SOL     OW53074   5.473  10.772   9.072 -0.3125  0.3628  0.7859
78361SOL    HW153075   5.441  10.821   8.996  0.7828  1.4998  1.0242
78361SOL    HW253076   5.567  10.792   9.076 -0.0087 -1.0754  1.4227
78362SOL     OW53077   5.965   9.526   2.062 -0.2158  0.1130 -0.1648
78362SOL    HW153078   6.016   9.488   2.134 -1.0868  0.1766  0.5066
78362SOL    HW253079   5.995   9.480   1.984 -1.2223 -1.9605  0.6188
78363SOL     OW53080   0.067   5.481  11.193 -0.3963  0.0898 -0.2207
78363SOL    HW153081   0.122   5.405  11.212 -0.8169 -0.0903  0.3394
78363SOL    HW253082   0.041   5.470  11.102  0.6021  0.2590 -0.5366
78364SOL     OW53083   2.153   6.686   5.149 -0.1027  0.0129 -0.1099
78364SOL    HW153084   2.196   6.735   5.220  0.3651 -0.8442  0.2249
78364SOL    HW253085   2.224   6.634   5.111 -0.8125 -1.3820  0.4063
78365SOL     OW53086   2.023   1.917   2.174 -0.8314  0.4205  0.0292
78365SOL    HW153087   2.028   1.900   2.268  1.8472  2.5514  0.3887
78365SOL    HW253088   1.994   2.008   2.168  1.0654  1.0088 -1.0578
78366SOL     OW53089  10.505   1.643   2.395  0.1722  0.0637  0.0563
78366SOL    HW153090  10.568   1.714   2.408  0.6145  0.1584 -2.1676
78366SOL    HW253091  10.545   1.567   2.439  0.4414  0.8001  1.1101
78367SOL     OW53092  10.263   0.569   5.944  0.3203  0.5236  0.2213
78367SOL    HW153093  10.287   0.488   5.899 -1.8363 -0.6244  0.9886
78367SOL    HW253094  10.211   0.618   5.880 -0.3951  0.1844  0.5401
78368SOL     OW53095  13.173   5.586  10.509  0.3428  0.4964 -0.1459
78368SOL    HW153096  13.106   5.654  10.511 -0.4765 -0.2887  1.6256
78368SOL    HW253097  13.253   5.631  10.481 -0.4274  1.9172 -0.1547
78369SOL     OW53098   2.317   3.549   3.511  0.5945 -0.1040 -0.4849
78369SOL    HW153099   2.329   3.483   3.444  3.2400  1.6276 -1.8955
78369SOL    HW253100   2.370   3.519   3.585  1.6547  0.3032 -1.0596
78370SOL     OW53101  14.118   3.229   6.774  0.0448 -0.1914  0.2405
78370SOL    HW153102  14.069   3.162   6.727  3.1204 -3.2640  1.0101
78370SOL    HW253103  14.055   3.265   6.836 -1.6554 -2.9280  0.2708
78371SOL     OW53104  12.195   6.955   8.753  0.2982 -0.3631 -0.2178
78371SOL    HW153105  12.150   6.931   8.672 -1.0639  2.3052 -0.3609
78371SOL    HW253106  12.269   7.009   8.724 -0.7437  1.4163  0.2587
78372SOL     OW53107  10.144   9.124   4.933  0.1640  0.0813 -0.1370
78372SOL    HW153108  10.226   9.161   4.900  0.3418  2.8915  2.9306
78372SOL    HW253109  10.161   9.106   5.025 -2.4407 -0.0243  0.4051
78373SOL     OW53110  10.388   6.481   0.538 -0.0068  0.5603  0.1403
78373SOL    HW153111  10.341   6.463   0.457 -0.5787 -0.2192  0.6310
78373SOL    HW253112  10.458   6.417   0.541 -0.0430  0.5254  0.2990
78374SOL     OW53113   7.112   8.987   4.945  0.1964  0.2368  0.0324
78374SOL    HW153114   7.038   8.963   5.000  0.4867  0.8272  0.6893
78374SOL    HW253115   7.178   8.920   4.961  0.1837  0.2686  0.2170
78375SOL     OW53116   0.032   4.252   1.584  0.0792 -0.0762  0.0858
78375SOL    HW153117   0.056   4.198   1.509  1.0945 -0.3519  0.5952
78375SOL    HW253118  -0.029   4.317   1.548 -0.9895 -1.4119 -0.5656
78376SOL     OW53119   7.717  12.290   4.874 -0.4708 -0.7963 -0.2008
78376SOL    HW153120   7.687  12.262   4.788 -0.6124 -2.3637  0.3269
78376SOL    HW253121   7.804  12.251   4.883 -0.5723 -0.8882  0.4670
78377SOL     OW53122   3.889   4.523   2.838  0.2940  0.0004 -0.6301
78377SOL    HW153123   3.826   4.457   2.866  1.8286 -0.8403  1.1082
78377SOL    HW253124   3.926   4.488   2.757 -0.5076 -0.1310 -0.9490
78378SOL     OW53125   6.141   1.428   4.840 -0.5168 -0.1574 -0.2063
78378SOL    HW153126   6.110   1.410   4.929 -0.7079 -1.6180 -0.5299
78378SOL    HW253127   6.201   1.502   4.849 -3.9234  2.7824  0.4726
78379SOL     OW53128   6.362  11.985  13.502 -0.1196  0.0911 -0.0240
78379SOL    HW153129   6.375  12.028  13.417  0.1834  1.3506  0.6285
78379SOL    HW253130   6.267  11.989  13.516 -0.2480 -0.7447 -0.6050
78380SOL     OW53131   3.220   7.622   1.393 -0.1362 -0.3805 -0.2027
78380SOL    HW153132   3.258   7.656   1.312 -0.4639  1.4355  0.3717
78380SOL    HW253133   3.197   7.532   1.373  0.5393 -0.2057 -1.8745
78381SOL     OW53134   0.700   4.195   9.031 -0.3512  0.0104  0.4103
78381SOL    HW153135   0.686   4.110   8.989  1.1289  0.1578 -0.4439
78381SOL    HW253136   0.786   4.187   9.073  0.4608  1.5299 -0.8739
78382SOL     OW53137   0.411  12.814   1.069 -0.4997 -0.1782  0.1739
78382SOL    HW153138   0.343  12.854   1.016 -0.7167 -0.2989  0.3590
78382SOL    HW253139   0.376  12.814   1.158 -0.5248 -0.8155  0.1696
78383SOL     OW53140   2.519  11.294  11.129 -0.1970  0.4044  0.3654
78383SOL    HW153141   2.503  11.258  11.216  0.4433 -0.9417 -0.0545
78383SOL    HW253142   2.432  11.306  11.091 -0.4248 -1.8100  0.0871
78384SOL     OW53143   9.780   0.171   0.644  0.1450 -0.1640 -0.4899
78384SOL    HW153144   9.834   0.243   0.675  0.9223 -0.7883 -0.3660
78384SOL    HW253145   9.694   0.186   0.684  0.8637 -0.4368  1.2471
78385SOL     OW53146   1.314   2.993   8.078 -0.7217 -0.1516  0.1836
78385SOL    HW153147   1.272   3.069   8.037  0.1862  0.1121 -0.2665
78385SOL    HW253148   1.400   2.989   8.038 -0.5358 -1.0539  0.6701
78386SOL     OW53149   1.032  11.533   8.486 -0.2800 -0.0942  0.0432
78386SOL    HW153150   1.025  11.613   8.434  3.5810  0.3030 -0.1711
78386SOL    HW253151   1.064  11.563   8.571  0.2688 -1.3111  0.2847
78387SOL     OW53152   2.520   8.182  12.851 -0.2669 -0.0795  0.4244
78387SOL    HW153153   2.453   8.124  12.815 -0.4925  0.2526  0.3061
78387SOL    HW253154   2.496   8.191  12.944 -0.6900  0.4512  0.2706
78388SOL     OW53155   3.313  13.387   4.207  0.5681 -0.1308  0.1244
78388SOL    HW153156   3.298  13.472   4.167 -0.7553 -1.1877 -1.7726
78388SOL    HW253157   3.400  13.395   4.247 -0.3401  2.7050  1.7876
78389SOL     OW53158   4.161  11.955  12.551  0.1276 -0.0819 -0.0018
78389SOL    HW153159   4.153  12.038  12.504  2.0120  0.5583  0.7214
78389SOL    HW253160   4.140  11.889  12.485 -0.6037  0.9101 -0.8063
78390SOL     OW53161  12.797   6.110   1.429  0.0174  0.6057  0.4178
78390SOL    HW153162  12.791   6.111   1.334 -1.8300  0.0135  0.5070
78390SOL    HW253163  12.837   6.025   1.450  0.0567  0.5680  0.1887
78391SOL     OW53164   7.846  11.303   3.616  0.0343  0.0708  0.2342
78391SOL    HW153165   7.880  11.285   3.703 -0.5425 -0.5299  0.3451
78391SOL    HW253166   7.921  11.292   3.557  0.1162 -0.9252  0.5030
78392SOL     OW53167  12.429   8.140  11.725 -0.3278 -0.2968 -0.3901
78392SOL    HW153168  12.401   8.144  11.816 -0.5364 -1.3679 -0.3913
78392SOL    HW253169  12.524   8.152  11.728 -0.6645  4.2420 -0.4545
78393SOL     OW53170   3.247   8.408   9.798 -0.3804 -0.6665  0.4431
78393SOL    HW153171   3.215   8.487   9.842 -1.1942  0.1960 -1.5484
78393SOL    HW253172   3.288   8.440   9.718 -1.2241 -2.2585 -0.7035
78394SOL     OW53173   3.899  11.483   5.226  0.2451 -0.1754  0.1373
78394SOL    HW153174   3.844  11.408   5.247 -0.9391  0.6070 -0.0925
78394SOL    HW253175   3.855  11.527   5.153  0.5498  1.1146  0.6856
78395SOL     OW53176   3.760  10.318  13.063  0.1208 -0.8187  0.2430
78395SOL    HW153177   3.682  10.274  13.032 -1.2974  1.0699  0.9021
78395SOL    HW253178   3.811  10.337  12.983 -0.6060 -1.1553 -0.3072
78396SOL     OW53179   8.631   6.040   2.202 -0.2373  0.0461 -0.2749
78396SOL    HW153180   8.708   6.020   2.149 -0.2616  3.7848 -2.0601
78396SOL    HW253181   8.570   5.968   2.186  0.4786  0.1028 -3.9814
78397SOL     OW53182   6.021  10.789   3.980 -0.0014 -0.0327 -0.1668
78397SOL    HW153183   5.966  10.865   3.963  1.0455  0.7985  0.0160
78397SOL    HW253184   6.088  10.821   4.041  0.9979 -0.8407 -0.7926
78398SOL     OW53185   1.532   8.347   1.613  0.6394 -0.7264  0.5990
78398SOL    HW153186   1.536   8.410   1.541  1.2875 -0.4606  0.8617
78398SOL    HW253187   1.534   8.400   1.693  1.1595 -1.0740  0.8222
78399SOL     OW53188   7.117  11.212   0.103 -0.1782 -0.1055 -0.2279
78399SOL    HW153189   7.132  11.293   0.152 -0.8087  0.2535 -0.5961
78399SOL    HW253190   7.179  11.149   0.139  0.0853  0.4472  0.3022
78400SOL     OW53191   9.049   7.005   2.885  0.0086 -0.4210 -0.1170
78400SOL    HW153192   9.109   7.046   2.947  0.7955 -0.3187 -0.9206
78400SOL    HW253193   8.961   7.030   2.914  0.4262  0.6798  0.2038
78401SOL     OW53194  10.181  10.967   7.833  0.2471 -0.2201  0.5339
78401SOL    HW153195  10.231  10.930   7.759  1.5326 -1.2227  1.8490
78401SOL    HW253196  10.093  10.933   7.821  0.0680  0.7475 -1.2826
78402SOL     OW53197  10.411   3.961  11.689  0.2378 -0.3929 -0.1910
78402SOL    HW153198  10.461   3.971  11.608 -0.3489  0.7835 -0.4243
78402SOL    HW253199  10.420   3.868  11.711 -1.4608 -1.3253 -2.8318
78403SOL     OW53200   3.924   8.461   9.783  0.6886  0.8458 -0.0096
78403SOL    HW153201   3.901   8.493   9.696 -0.3045  1.2762  0.4021
78403SOL    HW253202   3.961   8.537   9.828 -0.6265  1.1550  0.5913
78404SOL     OW53203   9.441   0.273   7.799  0.3793 -0.2923 -0.0973
78404SOL    HW153204   9.454   0.248   7.707 -0.3770 -2.1410  0.2579
78404SOL    HW253205   9.350   0.251   7.817  0.2104  1.0598  0.8221
78405SOL     OW53206   3.370   9.285   2.847 -0.2893 -0.2267 -0.3400
78405SOL    HW153207   3.356   9.283   2.752 -0.0270 -0.4028 -0.3744
78405SOL    HW253208   3.346   9.374   2.872 -1.5806 -0.5357 -0.3857
78406SOL     OW53209   7.596  13.160  12.688 -0.2876 -1.3664 -0.2854
78406SOL    HW153210   7.675  13.160  12.633 -0.3147  1.0106 -0.4272
78406SOL    HW253211   7.630  13.167  12.778 -0.1730  2.3942 -0.4304
78407SOL     OW53212   1.449   0.568   9.969 -0.0239 -0.0312 -0.2434
78407SOL    HW153213   1.469   0.475   9.964 -2.1475 -0.5156 -0.8004
78407SOL    HW253214   1.368   0.573  10.020  0.7262  1.6503  0.8976
78408SOL     OW53215  11.767   1.244  11.689 -0.0676  0.4999  0.1526
78408SOL    HW153216  11.843   1.249  11.748 -0.2624 -1.1939  0.5736
78408SOL    HW253217  11.692   1.241  11.748 -0.2320 -1.9194 -0.0863
78409SOL     OW53218   0.154   0.596   8.226 -0.3160 -0.4427 -0.2094
78409SOL    HW153219   0.116   0.680   8.200 -0.4192 -0.6911 -0.8795
78409SOL    HW253220   0.118   0.580   8.313 -2.0249 -0.8030 -0.9275
78410SOL     OW53221  11.833   1.189   5.733  0.6063  0.3595 -0.6622
78410SOL    HW153222  11.789   1.242   5.666 -0.7947 -0.4798 -0.4700
78410SOL    HW253223  11.921   1.224   5.738 -0.1256  2.3618 -0.8616
78411SOL     OW53224   4.918   9.247   4.082 -0.0334 -0.0368  0.7172
78411SOL    HW153225   4.969   9.255   4.001 -2.3049  0.6324 -0.7404
78411SOL    HW253226   4.903   9.337   4.110 -2.1985 -0.0796 -0.1351
78412SOL     OW53227   2.456   8.459  12.582  0.0839  0.5844 -0.2458
78412SOL    HW153228   2.437   8.536  12.529 -1.3144 -0.0614 -0.7285
78412SOL    HW253229   2.388   8.459  12.650  0.3114  0.0004 -0.0069
78413SOL     OW53230   8.838   3.996   5.755  0.1617  0.4591  0.0306
78413SOL    HW153231   8.764   3.995   5.815 -0.5695  1.4458 -0.8235
78413SOL    HW253232   8.805   4.039   5.676  0.9088 -1.3332 -1.3415
78414SOL     OW53233   7.139  12.628  13.619 -0.1462 -0.5828  0.1310
78414SOL    HW153234   7.195  12.557  13.588 -0.8021 -0.5051 -1.3108
78414SOL    HW253235   7.092  12.658  13.541  0.5407  1.8486  0.5529
78415SOL     OW53236   2.691  13.300   7.944  0.2915 -1.2425 -0.6834
78415SOL    HW153237   2.756  13.284   8.012  0.1740  2.8328  0.6793
78415SOL    HW253238   2.739  13.294   7.862  2.1234  0.3416  0.2141
78416SOL     OW53239   8.435  13.238   5.652  1.0300  0.4666 -0.0082
78416SOL    HW153240   8.393  13.302   5.595  0.2018 -1.4158 -1.6455
78416SOL    HW253241   8.509  13.205   5.601  1.4206  0.0859  0.7799
78417SOL     OW53242   2.092   4.674  10.399 -0.1515  0.0335  0.0539
78417SOL    HW153243   2.088   4.762  10.360  2.9072  0.0122 -0.5715
78417SOL    HW253244   2.108   4.616  10.324  0.9929 -0.6212  0.7746
78418SOL     OW53245   3.064   9.651  11.205 -0.7733  0.4112  0.0591
78418SOL    HW153246   3.108   9.580  11.252 -0.7028  0.7994  0.5885
78418SOL    HW253247   3.081   9.633  11.112 -0.4210 -0.0427  0.2098
78419SOL     OW53248   9.020  10.584   9.597  0.3987  0.0584  0.5210
78419SOL    HW153249   9.055  10.635   9.670 -0.8564  2.1340 -0.2428
78419SOL    HW253250   9.097  10.551   9.551  1.2218  0.1076  1.8346
78420SOL     OW53251  12.646   8.643   8.671  0.0201 -0.6289  0.2366
78420SOL    HW153252  12.647   8.684   8.584  1.7928  0.7342  0.8466
78420SOL    HW253253  12.564   8.673   8.710 -1.5038 -2.3850 -1.4175
78421SOL     OW53254   8.550   4.185   3.244 -0.4397  0.5203  0.3458
78421SOL    HW153255   8.510   4.216   3.326  0.6292 -2.0951  1.9757
78421SOL    HW253256   8.497   4.110   3.218  0.9220 -0.4332  0.2520
78422SOL     OW53257  13.462  12.738   4.289 -0.4504 -0.4209 -0.3016
78422SOL    HW153258  13.418  12.724   4.373  0.5260 -0.6410  0.1939
78422SOL    HW253259  13.546  12.776   4.313 -0.8045  1.0626 -1.2973
78423SOL     OW53260  13.181  11.320   6.425  1.1343 -0.4701 -0.3999
78423SOL    HW153261  13.178  11.401   6.374 -0.4668  0.8907  1.7371
78423SOL    HW253262  13.235  11.261   6.372  1.6571  1.6850 -2.4213
78424SOL     OW53263   2.570   7.131   0.078  0.4112 -0.0751 -0.1673
78424SOL    HW153264   2.664   7.128   0.061  0.7350 -1.6008  1.5652
78424SOL    HW253265   2.539   7.043   0.058 -0.2064 -0.2426  1.3747
78425SOL     OW53266  12.094  13.373   8.919  0.9481  0.0044 -0.6877
78425SOL    HW153267  12.152  13.331   8.856  2.2668  2.3242 -1.1254
78425SOL    HW253268  12.027  13.417   8.866  0.6489 -0.0117 -0.3360
78426SOL     OW53269   2.240   5.622   1.342 -0.6071 -0.4525  0.3333
78426SOL    HW153270   2.252   5.571   1.422  1.4254 -1.8060 -0.7524
78426SOL    HW253271   2.208   5.558   1.278  1.5078 -0.3212 -0.9248
78427SOL     OW53272   1.602   3.124   8.700  0.7112  0.3157 -0.0741
78427SOL    HW153273   1.544   3.089   8.767  0.8651  0.5700  0.1929
78427SOL    HW253274   1.544   3.170   8.639  0.4850 -0.5580 -0.5341
78428SOL     OW53275  13.179   3.305  12.826 -0.0116  0.0423 -0.2529
78428SOL    HW153276  13.255   3.350  12.789 -1.3238  1.7215 -1.0411
78428SOL    HW253277  13.119   3.375  12.852 -0.6849 -1.1829  1.8000
78429SOL     OW53278   7.614   7.459  10.261 -0.3476  0.1762  0.2997
78429SOL    HW153279   7.610   7.495  10.172  1.0086  1.2307  0.6409
78429SOL    HW253280   7.618   7.536  10.318 -0.3963 -0.4978  1.2436
78430SOL     OW53281   6.684  11.189  13.591 -0.2411 -0.0572 -0.2113
78430SOL    HW153282   6.691  11.111  13.647 -1.3242 -1.4016 -1.8436
78430SOL    HW253283   6.746  11.173  13.521  3.3697  2.9897  1.9219
78431SOL     OW53284  10.773  12.700  11.979 -0.0749  0.0761 -0.1054
78431SOL    HW153285  10.805  12.679  11.891 -0.4501  0.3616 -0.3103
78431SOL    HW253286  10.848  12.742  12.021  0.1202 -0.0965 -0.2756
78432SOL     OW53287   0.279  13.680   1.175 -0.8627  0.0753  0.1446
78432SOL    HW153288   0.193  13.721   1.159 -0.4737  0.5058 -0.9439
78432SOL    HW253289   0.258  13.601   1.224 -2.1687 -1.0974 -2.0963
78433SOL     OW53290   1.731   0.687   1.636  0.7432  0.4248 -0.0912
78433SOL    HW153291   1.788   0.761   1.614  0.7985  0.5139  0.3362
78433SOL    HW253292   1.644   0.726   1.643  0.8644  0.5725  0.7408
78434SOL     OW53293  11.547  13.296   8.741 -0.4055  0.0626  0.4237
78434SOL    HW153294  11.551  13.388   8.713  0.7954  0.8900  2.9807
78434SOL    HW253295  11.634  13.261   8.719 -1.3522 -0.9848 -1.9267
78435SOL     OW53296  10.259   2.522   3.080 -0.5912 -0.2943 -0.1807
78435SOL    HW153297  10.227   2.582   3.148 -1.3832 -0.1183 -0.6855
78435SOL    HW253298  10.316   2.576   3.025  1.5652 -0.8727  1.3597
78436SOL     OW53299   5.350   1.292   7.205  0.7695 -0.2458 -0.3607
78436SOL    HW153300   5.371   1.219   7.146  0.1343 -2.3067  1.7860
78436SOL    HW253301   5.430   1.305   7.257  0.2158 -0.9536  0.7194
78437SOL     OW53302   5.697  11.449   1.772 -0.6581 -0.5547  0.0004
78437SOL    HW153303   5.724  11.424   1.684 -1.5149 -0.2651 -0.3575
78437SOL    HW253304   5.777  11.448   1.823 -0.4948 -3.2187 -0.1606
78438SOL     OW53305  11.073   2.253   6.246 -0.3745  0.2756  0.4996
78438SOL    HW153306  11.146   2.262   6.185  0.4016  0.0783  1.3650
78438SOL    HW253307  11.085   2.166   6.285 -0.1560  0.8368  1.7622
78439SOL     OW53308  10.044   5.293  12.278  0.1571  0.3854 -0.1526
78439SOL    HW153309   9.966   5.252  12.241 -0.1072  0.5436  0.2237
78439SOL    HW253310  10.026   5.300  12.371  1.2844 -1.0748  0.2180
78440SOL     OW53311   0.193   9.815   8.638  1.0203  0.4850  0.3299
78440SOL    HW153312   0.135   9.882   8.673 -1.2206 -1.0941 -0.1134
78440SOL    HW253313   0.218   9.847   8.552 -0.7880  0.3928 -0.2690
78441SOL     OW53314   1.675   6.415  13.787 -0.1281 -0.3341  0.0439
78441SOL    HW153315   1.595   6.363  13.779 -0.8998  0.9750 -1.0848
78441SOL    HW253316   1.716   6.382  13.867 -1.4033 -1.5409  0.2545
78442SOL     OW53317   8.526  12.750  12.514 -0.3005 -0.3756 -0.0622
78442SOL    HW153318   8.495  12.722  12.600  1.2535 -0.4707  0.5109
78442SOL    HW253319   8.571  12.673  12.478  1.9304  0.5679  0.5021
78443SOL     OW53320   3.928   1.609   1.526 -0.1981 -0.0495 -0.4444
78443SOL    HW153321   3.911   1.602   1.432  0.0203  0.4362 -0.5228
78443SOL    HW253322   4.016   1.647   1.532  0.4305 -1.4804 -0.0450
78444SOL     OW53323   8.567   8.821   7.839  0.6180  0.0696 -0.1979
78444SOL    HW153324   8.504   8.885   7.873 -0.4202 -2.0052  2.1414
78444SOL    HW253325   8.627   8.806   7.912  0.4067 -2.0860 -0.4031
78445SOL     OW53326   0.210   3.992  12.307 -0.1426 -0.6976  0.4008
78445SOL    HW153327   0.139   3.932  12.284  0.2849 -0.7530 -0.8557
78445SOL    HW253328   0.213   4.055  12.235  2.2484 -1.7680 -0.5698
78446SOL     OW53329   7.510  10.096  11.542 -0.3129 -0.5243 -0.2078
78446SOL    HW153330   7.480  10.066  11.628 -1.4838 -0.0143 -0.4234
78446SOL    HW253331   7.500  10.019  11.485 -1.8050 -0.2120 -0.4051
78447SOL     OW53332  10.192   8.180   4.763 -0.1521 -0.3700  0.5443
78447SOL    HW153333  10.113   8.214   4.719 -1.4512 -0.0241  2.9921
78447SOL    HW253334  10.248   8.256   4.773  1.4851 -0.9158 -2.8442
78448SOL     OW53335   9.659  12.656   5.132 -0.2686 -0.4940  0.0714
78448SOL    HW153336   9.688  12.672   5.222 -0.5977  0.9659 -0.0563
78448SOL    HW253337   9.738  12.666   5.079  0.1969 -2.6180  0.2784
78449SOL     OW53338  11.957   2.780   0.263  0.9595 -0.4099 -0.3779
78449SOL    HW153339  11.937   2.832   0.341  1.6379  1.0171 -1.0962
78449SOL    HW253340  11.937   2.690   0.287 -2.8142  0.3892  0.1297
78450SOL     OW53341  14.026   3.823  13.248  0.0227 -0.5592  0.0181
78450SOL    HW153342  14.041   3.858  13.161 -1.6616  1.6299  0.5202
78450SOL    HW253343  13.964   3.751  13.235 -1.8410  1.0457 -0.4865
78451SOL     OW53344  10.523   9.420   9.513  0.0500 -0.4250  0.2438
78451SOL    HW153345  10.480   9.456   9.591 -0.2139 -0.1942 -0.0041
78451SOL    HW253346  10.596   9.479   9.495  0.3492 -0.7015  0.5461
78452SOL     OW53347  12.556  13.897   8.768 -0.1729 -0.2288  0.5145
78452SOL    HW153348  12.479  13.916   8.821 -1.1801 -3.5619  0.4884
78452SOL    HW253349  12.611  13.842   8.824  0.2707 -1.1642 -0.7734
78453SOL     OW53350   3.814   5.645  12.970 -0.5529  0.0695  0.0148
78453SOL    HW153351   3.844   5.558  12.945 -0.5455  0.7705 -2.7298
78453SOL    HW253352   3.727   5.653  12.929 -0.8871  1.0958  0.8734
78454SOL     OW53353   0.816   1.187  10.063  0.8996 -0.7146 -0.2679
78454SOL    HW153354   0.794   1.110  10.116  0.7225 -0.7237 -0.3550
78454SOL    HW253355   0.754   1.185   9.990 -1.7954  1.6597  1.7336
78455SOL     OW53356  13.283  10.611   3.660  0.0398  0.0379  0.1368
78455SOL    HW153357  13.315  10.696   3.691  0.2218 -0.4554  1.3280
78455SOL    HW253358  13.197  10.601   3.700 -0.1011 -0.2239 -0.2273
78456SOL     OW53359   8.708   5.764   5.247 -0.0938  0.1122 -0.1725
78456SOL    HW153360   8.753   5.750   5.164 -0.2560 -2.0432  0.0478
78456SOL    HW253361   8.767   5.728   5.313  0.4723  2.6634  0.8207
78457SOL     OW53362   5.529  12.103   3.687 -0.2906  0.1062 -0.1821
78457SOL    HW153363   5.436  12.112   3.667 -0.4628  0.0084  0.5459
78457SOL    HW253364   5.532  12.046   3.764  0.4697 -1.3238 -1.2211
78458SOL     OW53365  12.017  13.596   9.331 -0.2931  0.1598  0.0404
78458SOL    HW153366  12.049  13.670   9.383 -4.1638  3.3370 -1.5938
78458SOL    HW253367  12.064  13.603   9.248 -0.8387  0.9850 -0.2055
78459SOL     OW53368  13.319  12.188  12.418  0.2411 -0.0412  0.3617
78459SOL    HW153369  13.264  12.123  12.376  0.3035 -0.7657  1.3765
78459SOL    HW253370  13.258  12.258  12.444  0.1201  0.1393 -0.3724
78460SOL     OW53371   2.470   8.166   5.609  0.0344  0.4348  0.0668
78460SOL    HW153372   2.491   8.213   5.689  1.9261 -0.0283 -0.1204
78460SOL    HW253373   2.386   8.123   5.628 -0.0799  1.2082  1.3949
78461SOL     OW53374   2.560   4.573   1.084 -0.0037  0.5060  0.4992
78461SOL    HW153375   2.520   4.660   1.079  0.5844  0.7274 -1.9217
78461SOL    HW253376   2.633   4.576   1.021  0.2881 -1.6031  0.6467
78462SOL     OW53377   4.298  10.850   9.501  0.0936  0.2430  0.6411
78462SOL    HW153378   4.347  10.770   9.522 -0.0681  0.1514  0.6665
78462SOL    HW253379   4.254  10.831   9.419 -0.0270  0.2714  0.7001
78463SOL     OW53380   5.883   2.839   7.608 -0.1001 -0.4798  0.1826
78463SOL    HW153381   5.886   2.819   7.702  0.5247 -0.1431  0.2397
78463SOL    HW253382   5.969   2.876   7.589 -0.8811  1.3182 -0.0888
78464SOL     OW53383   9.241   2.735   6.671 -0.8055  0.0067 -1.3200
78464SOL    HW153384   9.306   2.754   6.604  1.0727 -0.3437  0.2972
78464SOL    HW253385   9.291   2.732   6.753 -3.0744  1.0716  0.2174
78465SOL     OW53386   1.374   7.984   7.729  0.2220 -0.2897 -0.1007
78465SOL    HW153387   1.447   7.931   7.762  0.0269 -0.0644  0.7071
78465SOL    HW253388   1.315   7.920   7.688 -0.6480 -0.9253  1.9977
78466SOL     OW53389   4.042   9.264   0.741 -0.1974  0.0182  0.7086
78466SOL    HW153390   3.996   9.317   0.676 -0.6971  0.2752  1.2626
78466SOL    HW253391   4.108   9.322   0.779  2.5612 -1.0608 -1.9737
78467SOL     OW53392   6.814   1.158   2.208 -0.2099 -0.0581  0.0758
78467SOL    HW153393   6.737   1.215   2.198  0.3959  0.5322 -1.4284
78467SOL    HW253394   6.869   1.178   2.133  1.8772  0.1830  1.5920
78468SOL     OW53395   9.807  10.097   1.121  0.4353 -0.1780 -0.4920
78468SOL    HW153396   9.845  10.160   1.060  2.8102  1.1988  2.1714
78468SOL    HW253397   9.877  10.033   1.136  0.3091  0.1090  1.5095
78469SOL     OW53398  10.872  13.130  14.147 -0.3735  0.4880  0.4996
78469SOL    HW153399  10.944  13.076  14.178 -0.5721  0.1032  0.2948
78469SOL    HW253400  10.914  13.210  14.114  0.4008 -1.2718 -3.2849
78470SOL     OW53401  14.071   4.244   9.189  0.1405  0.4015 -0.2337
78470SOL    HW153402  14.050   4.154   9.211  0.8519 -0.0401 -1.2967
78470SOL    HW253403  14.128   4.238   9.112  1.7995  1.6359  0.8153
78471SOL     OW53404  10.228   0.915  13.612  0.0998  0.9698  0.0149
78471SOL    HW153405  10.271   0.999  13.628  0.8438  0.5228  0.4296
78471SOL    HW253406  10.254   0.861  13.687 -0.3496  0.3606 -0.2659
78472SOL     OW53407   4.980   5.763  10.527 -0.0812 -0.3160 -0.3950
78472SOL    HW153408   5.025   5.682  10.552  0.0152  0.4659  2.2408
78472SOL    HW253409   5.046   5.814  10.480  2.1262  0.9596  3.6791
78473SOL     OW53410   9.872   1.656  12.068  0.2863 -0.5575  0.6901
78473SOL    HW153411   9.932   1.730  12.076 -0.9005  0.3754  1.2955
78473SOL    HW253412   9.880   1.630  11.976  0.4842  0.5437  0.3695
78474SOL     OW53413  10.071   9.257   3.421 -0.4916  0.3741 -0.5717
78474SOL    HW153414  10.047   9.173   3.460  1.0162  0.4611  0.6400
78474SOL    HW253415   9.990   9.288   3.380 -1.6372 -0.6815  0.7729
78475SOL     OW53416   0.370   3.570   3.123 -0.3387  0.1294  0.1975
78475SOL    HW153417   0.415   3.609   3.049  0.9903 -2.0498 -0.2362
78475SOL    HW253418   0.429   3.582   3.197  0.2068 -1.1544  0.0082
78476SOL     OW53419   6.041  11.848   6.194 -0.1396  0.4620  0.0400
78476SOL    HW153420   6.064  11.821   6.106 -0.9153 -1.6888  0.4323
78476SOL    HW253421   5.946  11.846   6.196 -0.1308 -1.4016  1.3986
78477SOL     OW53422   8.935   5.066   8.973  0.1560  0.2572 -0.5395
78477SOL    HW153423   8.952   5.132   8.906  0.4742  0.2116 -0.5028
78477SOL    HW253424   8.848   5.088   9.007  0.9002  1.5992  0.5699
78478SOL     OW53425  10.134  10.072   7.903  0.1914  0.3941  0.4900
78478SOL    HW153426  10.192  10.035   7.837  0.5294  0.2898  0.8413
78478SOL    HW253427  10.176  10.052   7.986 -0.5997 -0.1298  0.7822
78479SOL     OW53428   7.950   2.104   8.073  0.1684  0.0931 -0.3995
78479SOL    HW153429   8.039   2.087   8.102  0.1088 -0.3950 -0.4972
78479SOL    HW253430   7.945   2.063   7.986  0.6127  2.2557 -1.5227
78480SOL     OW53431   4.765   8.921  13.733  0.4579 -0.1735 -0.0151
78480SOL    HW153432   4.846   8.970  13.721  0.1181  0.2024 -0.9109
78480SOL    HW253433   4.761   8.863  13.657 -0.5429  0.4581 -0.4709
78481SOL     OW53434   6.622   3.862   6.506  0.1513  0.2105 -0.4333
78481SOL    HW153435   6.547   3.824   6.552  1.4344 -0.9991  0.7227
78481SOL    HW253436   6.595   3.862   6.414 -1.1945 -0.3828 -0.0697
78482SOL     OW53437   0.628   6.336   5.863 -0.3048  0.2739 -0.5357
78482SOL    HW153438   0.553   6.355   5.920 -1.8765 -0.1737 -2.3629
78482SOL    HW253439   0.610   6.386   5.783  1.2688 -0.0124 -1.0990
78483SOL     OW53440  12.628  11.033   8.719  0.3596  0.3747  0.1196
78483SOL    HW153441  12.629  10.980   8.799 -0.1337  0.1351 -0.0315
78483SOL    HW253442  12.588  11.116   8.745 -2.7527 -0.8024 -0.5443
78484SOL     OW53443  11.501  13.177  13.460 -0.5447 -0.1378 -0.0090
78484SOL    HW153444  11.507  13.084  13.438  1.9425 -0.1828  0.5368
78484SOL    HW253445  11.436  13.181  13.530 -0.7033 -1.4637 -0.0595
78485SOL     OW53446  10.941  12.191   5.641 -0.2902 -0.4637 -0.3787
78485SOL    HW153447  10.958  12.134   5.716  0.0375  1.2045  0.8470
78485SOL    HW253448  11.021  12.185   5.588  0.0058 -0.6152  0.0838
78486SOL     OW53449   1.555   3.144  12.530  0.1484  0.8307  0.0365
78486SOL    HW153450   1.630   3.187  12.571 -1.2111  2.0034  1.4290
78486SOL    HW253451   1.582   3.127  12.440  2.4784  0.1752  0.7948
78487SOL     OW53452   6.941   1.308  12.266  0.1822  0.0533  0.1791
78487SOL    HW153453   7.012   1.328  12.326  0.3346 -0.5647  0.2121
78487SOL    HW253454   6.962   1.221  12.232 -1.1861 -0.6906  1.1351
78488SOL     OW53455   5.081   3.637  12.726 -0.0795 -0.9896  0.1360
78488SOL    HW153456   5.116   3.721  12.754  0.4707 -1.2392  0.2085
78488SOL    HW253457   5.147   3.573  12.752 -0.5126 -1.4511  0.1224
78489SOL     OW53458   6.193  13.474   4.230 -0.1797  0.3938 -0.0888
78489SOL    HW153459   6.110  13.488   4.276  0.3678  2.0667  0.4565
78489SOL    HW253460   6.224  13.389   4.261 -0.6806  0.6943  1.2888
78490SOL     OW53461   9.618  11.478  12.803 -0.6433  0.1764  0.3689
78490SOL    HW153462   9.594  11.520  12.721 -1.0883 -1.7538 -0.5544
78490SOL    HW253463   9.709  11.503  12.817 -0.9832  1.6918  0.0752
78491SOL     OW53464   0.293  10.566   4.859  0.0005  0.3074  0.0477
78491SOL    HW153465   0.302  10.477   4.823  1.1239  0.1704  0.6144
78491SOL    HW253466   0.373  10.610   4.833 -0.6234  1.2220 -0.3632
78492SOL     OW53467   1.732   9.524  11.092  0.5122 -0.0212 -0.1315
78492SOL    HW153468   1.780   9.604  11.112 -0.1095  0.3489 -0.0710
78492SOL    HW253469   1.647   9.555  11.058  0.8305 -0.6367 -1.5845
78493SOL     OW53470   0.689   6.320  12.119  0.5324  0.3100 -0.5380
78493SOL    HW153471   0.712   6.395  12.064 -0.0171  1.2565  0.4920
78493SOL    HW253472   0.768   6.303  12.170  0.8909 -0.2859 -1.2531
78494SOL     OW53473  10.883  10.913   6.756 -0.1915 -0.5155  0.1890
78494SOL    HW153474  10.915  10.970   6.825 -2.9971 -0.0594  1.2457
78494SOL    HW253475  10.960  10.861   6.730  1.9107  2.1079  0.7402
78495SOL     OW53476   1.070  11.837  12.693  0.1633 -0.2777 -0.2043
78495SOL    HW153477   1.139  11.902  12.681  0.3228  0.7332  4.2922
78495SOL    HW253478   1.116  11.753  12.701  0.4970 -0.1443 -0.7324
78496SOL     OW53479   6.475  13.765   7.550 -0.2057 -0.1109  0.5519
78496SOL    HW153480   6.411  13.812   7.498  0.8204  0.9730  0.2358
78496SOL    HW253481   6.547  13.827   7.563  0.1635 -0.8026  2.1185
78497SOL     OW53482   3.850  13.566  11.620 -0.0057 -0.2222 -0.6263
78497SOL    HW153483   3.826  13.474  11.617  0.2201 -0.2717 -1.0689
78497SOL    HW253484   3.811  13.604  11.541 -0.7593  0.2324 -0.0480
78498SOL     OW53485   0.089   4.361   1.275  0.0271  0.0104 -0.0536
78498SOL    HW153486   0.095   4.449   1.313 -1.3248 -0.8403  2.3366
78498SOL    HW253487   0.137   4.368   1.193 -1.2353  3.3759 -0.6954
78499SOL     OW53488  10.225   2.840   9.556  0.2966  0.7343  0.6223
78499SOL    HW153489  10.160   2.816   9.490  1.1792  0.5157 -0.1790
78499SOL    HW253490  10.217   2.772   9.623 -0.1072  0.5637  0.4034
78500SOL     OW53491   6.243   6.799  12.082 -0.0503  0.4365  0.1733
78500SOL    HW153492   6.296   6.834  12.010 -0.9386  0.6454 -0.3973
78500SOL    HW253493   6.169   6.859  12.088 -1.0707 -0.7506 -0.1459
78501SOL     OW53494   2.867  11.721  10.094  0.0923  0.1908  0.3607
78501SOL    HW153495   2.903  11.792  10.041  0.1537  0.5627  0.8973
78501SOL    HW253496   2.924  11.646  10.074 -0.5874 -0.0016 -0.9912
78502SOL     OW53497  10.079   0.097  12.781 -0.1989  0.1712 -0.2930
78502SOL    HW153498  10.132   0.019  12.796  0.2230  0.3857 -0.6567
78502SOL    HW253499  10.142   0.168  12.777 -0.5029  0.4156 -0.8444
78503SOL     OW53500   4.394   5.176   5.791  0.5345 -0.4782 -0.0186
78503SOL    HW153501   4.334   5.102   5.792  2.3608 -2.0773 -1.6414
78503SOL    HW253502   4.337   5.253   5.798 -1.5769 -1.9436 -0.2393
78504SOL     OW53503   8.795   6.013  13.379  0.4346  0.2752  0.1042
78504SOL    HW153504   8.734   5.949  13.416 -0.0701 -0.0197 -1.1960
78504SOL    HW253505   8.739   6.086  13.351  0.4465 -0.5515 -2.3097
78505SOL     OW53506  10.027   6.081   6.954 -0.0252 -0.2187 -0.0201
78505SOL    HW153507   9.992   6.155   6.904  1.1126 -0.0947 -0.6776
78505SOL    HW253508  10.122   6.093   6.950  0.2475 -2.2878 -1.0458
78506SOL     OW53509   1.257   2.394   2.337  0.0578 -0.2459  0.5055
78506SOL    HW153510   1.200   2.364   2.267  1.4461 -1.0093 -0.3438
78506SOL    HW253511   1.236   2.338   2.412 -1.8597  0.9714  0.9382
78507SOL     OW53512  13.450  11.314   4.498  0.1496 -0.1477 -0.1038
78507SOL    HW153513  13.379  11.352   4.550 -1.2568 -0.7142 -1.5382
78507SOL    HW253514  13.483  11.388   4.446  0.7648  0.1511  0.6797
78508SOL     OW53515   1.035  12.164   2.404 -0.1158  0.2144 -0.2774
78508SOL    HW153516   1.094  12.115   2.463 -0.2733 -0.3541 -0.5792
78508SOL    HW253517   1.089  12.183   2.327 -0.1498  0.2321 -0.2967
78509SOL     OW53518  12.632  12.616   9.713 -0.2581  0.3892  0.1428
78509SOL    HW153519  12.683  12.646   9.788  1.4576  1.7019 -1.4613
78509SOL    HW253520  12.668  12.664   9.639 -2.0281 -0.7083 -1.5156
78510SOL     OW53521  13.560   6.959   2.471 -0.1099  0.5307 -0.4846
78510SOL    HW153522  13.568   6.991   2.382 -1.3238  0.5057 -0.6164
78510SOL    HW253523  13.474   6.918   2.475 -0.7864  1.9986  1.1557
78511SOL     OW53524   0.990   6.578  11.313  0.2950 -0.3857  0.0595
78511SOL    HW153525   0.980   6.498  11.262  1.4714 -1.3040  1.1957
78511SOL    HW253526   0.920   6.636  11.282 -0.2599 -1.6556 -1.1382
78512SOL     OW53527   6.580   8.306   5.410  0.1484  0.3388  0.0646
78512SOL    HW153528   6.576   8.402   5.419 -0.1748  0.3192  0.1187
78512SOL    HW253529   6.517   8.273   5.474 -1.1035  0.1419 -1.2188
78513SOL     OW53530   0.272  11.847  10.254  0.0485 -0.0351 -0.2277
78513SOL    HW153531   0.340  11.845  10.321  0.9478 -0.2863 -1.1273
78513SOL    HW253532   0.206  11.907  10.289  1.4732  1.4883 -0.0446
78514SOL     OW53533   6.399   9.461   8.051 -0.2535 -0.1150  0.1055
78514SOL    HW153534   6.492   9.448   8.069  0.2532  2.0369 -0.6670
78514SOL    HW253535   6.376   9.539   8.101 -0.9316  0.9991 -1.8576
78515SOL     OW53536   3.127   9.967   6.202  0.0964 -0.3622 -0.2120
78515SOL    HW153537   3.178  10.017   6.137 -1.1642  0.7800 -0.3676
78515SOL    HW253538   3.132   9.876   6.171  0.7900 -0.0530 -1.0558
78516SOL     OW53539   3.265   1.419   4.497  0.2137  0.8252 -0.1636
78516SOL    HW153540   3.338   1.365   4.464 -0.6149 -0.4094 -0.0074
78516SOL    HW253541   3.268   1.497   4.441 -0.6272 -0.8365 -2.7084
78517SOL     OW53542   8.643   7.877  10.367  0.0489 -0.1564 -0.1023
78517SOL    HW153543   8.686   7.887  10.452 -1.2947  1.2907  0.4557
78517SOL    HW253544   8.559   7.923  10.377 -0.3112 -0.3048 -2.0878
78518SOL     OW53545  11.028   5.832   5.845  0.0184 -0.1421  0.6969
78518SOL    HW153546  11.118   5.800   5.850  0.1569  0.1013 -0.0868
78518SOL    HW253547  11.004   5.822   5.753 -0.3583  0.8558  0.6768
78519SOL     OW53548   7.440   0.748  12.239  0.1853 -0.2171  0.3449
78519SOL    HW153549   7.361   0.715  12.196  0.0365  0.4727  0.0804
78519SOL    HW253550   7.418   0.837  12.266  1.0660  0.2172 -0.2798
78520SOL     OW53551   4.102   2.180   8.883  0.3269 -0.3658 -0.0027
78520SOL    HW153552   4.070   2.244   8.948  1.7788 -0.5256  0.9383
78520SOL    HW253553   4.083   2.095   8.922  0.4633 -0.4752 -0.1750
78521SOL     OW53554  13.771   6.582  11.524  0.5568 -0.2393 -0.0967
78521SOL    HW153555  13.697   6.626  11.565  0.3787 -1.3943  0.8672
78521SOL    HW253556  13.841   6.647  11.525 -0.5344  1.0586 -1.4833
78522SOL     OW53557   1.260   4.652  13.657  0.7498 -0.0251  0.1622
78522SOL    HW153558   1.352   4.644  13.682  0.2740 -3.3195  1.3376
78522SOL    HW253559   1.247   4.582  13.592 -1.1637 -0.3953  0.8808
78523SOL     OW53560   0.900  13.335   0.986 -0.4190  0.0140 -0.0288
78523SOL    HW153561   0.911  13.393   0.910  1.6320  0.4547  0.5507
78523SOL    HW253562   0.981  13.285   0.989 -0.8213 -0.5808  1.4023
78524SOL     OW53563   9.759  12.041   1.379 -0.0928 -0.4957 -0.1385
78524SOL    HW153564   9.836  12.031   1.434  0.8901  1.1273 -1.1377
78524SOL    HW253565   9.739  11.952   1.350  2.5244 -0.7984 -1.2942
78525SOL     OW53566  10.420   6.968  10.529 -0.3513  0.3799 -0.3051
78525SOL    HW153567  10.386   6.901  10.587  1.0472  1.0737  1.4084
78525SOL    HW253568  10.345   7.025  10.511 -1.0601 -0.4753 -0.1505
78526SOL     OW53569   0.951   6.445  11.654 -0.4090  0.6322  0.0238
78526SOL    HW153570   0.977   6.507  11.585 -1.7529  0.5686 -0.5558
78526SOL    HW253571   0.856   6.440  11.648 -0.5152  0.2489  1.5786
78527SOL     OW53572   5.726   8.934   8.374 -0.2818 -0.1964 -0.1724
78527SOL    HW153573   5.712   8.844   8.403  1.5046 -0.6168 -0.4979
78527SOL    HW253574   5.736   8.984   8.455  0.0125 -0.5360  0.0078
78528SOL     OW53575   0.331   9.627   3.839 -0.1181 -0.0953 -0.4127
78528SOL    HW153576   0.301   9.577   3.915 -0.8463 -0.8289 -1.1601
78528SOL    HW253577   0.358   9.561   3.776  2.0957  0.5250 -0.2035
78529SOL     OW53578   1.183  10.606   4.572  0.1370 -0.3633 -0.0722
78529SOL    HW153579   1.260  10.557   4.600 -0.6419 -0.8516  1.3227
78529SOL    HW253580   1.196  10.694   4.608 -0.2771 -0.6474  0.8022
78530SOL     OW53581  12.971   6.552   4.781 -0.6351  0.4082 -0.1568
78530SOL    HW153582  12.914   6.627   4.766  0.6384  1.6808  1.0223
78530SOL    HW253583  12.971   6.504   4.698 -1.5238  1.6699 -0.9154
78531SOL     OW53584  11.590   0.850   6.830  0.0476 -0.3416 -0.8479
78531SOL    HW153585  11.633   0.933   6.849  1.0980 -0.9671 -0.4054
78531SOL    HW253586  11.527   0.871   6.761  0.4794  0.7690 -0.9233
78532SOL     OW53587  13.029  13.797  12.297 -0.4898 -0.2629  0.1121
78532SOL    HW153588  13.121  13.778  12.319 -0.6105 -0.3609  0.5448
78532SOL    HW253589  12.983  13.789  12.381 -0.9291 -0.4264 -0.1459
78533SOL     OW53590   1.801   2.554   0.981 -0.1169  0.0758 -0.4029
78533SOL    HW153591   1.799   2.517   1.069  0.4157 -2.5841 -1.4104
78533SOL    HW253592   1.765   2.642   0.991  1.4822  0.4991  2.7142
78534SOL     OW53593   1.631   1.652   7.295 -0.5217 -0.2417  0.0380
78534SOL    HW153594   1.630   1.747   7.300  0.0751 -0.2229 -0.1134
78534SOL    HW253595   1.582   1.631   7.215 -1.6640 -0.1206  0.6906
78535SOL     OW53596   2.548   1.741  11.976  0.7302  0.2940 -0.3687
78535SOL    HW153597   2.550   1.809  11.909  0.1744  0.9855  0.3007
78535SOL    HW253598   2.477   1.683  11.948  2.1678 -0.9191 -1.7602
78536SOL     OW53599   7.883  10.255   5.028  0.1332 -0.5380 -0.1759
78536SOL    HW153600   7.852  10.176   5.073 -0.1800 -1.2108 -1.5224
78536SOL    HW253601   7.825  10.263   4.953  1.1508  0.0998 -0.9078
78537SOL     OW53602   8.736   0.143   0.460 -0.6780  0.2152  0.1433
78537SOL    HW153603   8.804   0.114   0.399 -0.6311 -2.0217  1.1587
78537SOL    HW253604   8.703   0.225   0.422  3.2831  2.0621  0.1716
78538SOL     OW53605   0.096  13.062  11.454  0.0042  0.8018 -0.7487
78538SOL    HW153606   0.122  13.018  11.373  2.0077  1.7836 -0.6967
78538SOL    HW253607   0.012  13.022  11.477  1.9177 -3.5374 -0.3411
78539SOL     OW53608   8.619   0.924   0.475 -0.0451 -0.0993  0.6018
78539SOL    HW153609   8.679   0.978   0.527 -0.1436  1.1974 -0.5433
78539SOL    HW253610   8.589   0.856   0.535  1.2098  0.2649  1.7033
78540SOL     OW53611   7.198   3.732   5.687 -0.0544  0.4214  0.1882
78540SOL    HW153612   7.242   3.656   5.724 -2.3825  0.1010  2.6297
78540SOL    HW253613   7.148   3.698   5.613 -2.2459 -0.8779  2.1365
78541SOL     OW53614  10.496   2.668   3.200  0.5412 -0.8001 -0.2228
78541SOL    HW153615  10.543   2.749   3.220 -0.0373 -1.0066  2.2809
78541SOL    HW253616  10.564   2.609   3.167  1.7097 -0.4294  1.3775
78542SOL     OW53617  13.791  10.109   4.144 -0.3739  0.5697  0.9986
78542SOL    HW153618  13.727  10.160   4.194 -1.9254  0.2476 -0.5777
78542SOL    HW253619  13.840  10.175   4.095 -2.4204  0.6510 -1.0893
78543SOL     OW53620   5.407  12.621  10.150 -0.2784  0.1164  0.6016
78543SOL    HW153621   5.376  12.708  10.123  2.5618  0.8598 -0.6770
78543SOL    HW253622   5.389  12.565  10.074 -1.6299 -0.3330  1.2271
78544SOL     OW53623   8.427   0.082   8.015 -0.2259 -0.1970  0.2995
78544SOL    HW153624   8.362   0.048   7.954 -0.3516 -1.6810  1.2053
78544SOL    HW253625   8.377   0.110   8.091 -0.1854  2.6570 -0.6027
78545SOL     OW53626   6.260   6.488   3.980 -0.3744  0.2011 -0.2701
78545SOL    HW153627   6.242   6.451   4.066 -1.1962  0.7108 -0.2041
78545SOL    HW253628   6.354   6.478   3.968 -0.0392  1.1741  1.2057
78546SOL     OW53629   5.323  13.840  12.895  0.4199  0.6772 -0.0270
78546SOL    HW153630   5.239  13.883  12.907 -0.2373 -0.8501  1.1555
78546SOL    HW253631   5.313  13.789  12.815  0.1715  0.4154  0.1689
78547SOL     OW53632  13.572  13.322  11.422  0.2593 -0.5202 -0.1679
78547SOL    HW153633  13.539  13.322  11.512 -2.3039 -0.8978 -1.0340
78547SOL    HW253634  13.665  13.300  11.431 -0.2345 -1.9674  2.2799
78548SOL     OW53635  14.094   1.068   6.510  0.0867 -0.6141 -0.4878
78548SOL    HW153636  14.004   1.099   6.513 -0.4704 -1.7527 -2.8619
78548SOL    HW253637  14.147   1.145   6.531 -1.3943 -0.0302  1.3854
78549SOL     OW53638   7.173   5.793  11.944 -0.1079 -0.5163  0.5946
78549SOL    HW153639   7.148   5.885  11.933  1.6357 -0.1456 -0.7791
78549SOL    HW253640   7.137   5.768  12.029 -0.8347  1.3668  0.8814
78550SOL     OW53641   5.030  12.240   2.299  0.0884 -0.0131  0.3996
78550SOL    HW153642   5.096  12.236   2.229  0.2755  0.7860  0.5131
78550SOL    HW253643   4.961  12.295   2.263 -0.0285  0.0171  0.6677
78551SOL     OW53644  13.662   0.094  13.973  0.4077 -0.4194  0.0508
78551SOL    HW153645  13.739   0.112  13.919  0.0682 -1.1502 -0.6897
78551SOL    HW253646  13.602   0.046  13.916  0.1643 -1.4934  1.1494
78552SOL     OW53647   2.841   0.167   7.197  0.6329 -0.4413 -0.0719
78552SOL    HW153648   2.884   0.093   7.154 -0.4572 -0.7796 -0.6179
78552SOL    HW253649   2.815   0.132   7.282  0.1834 -0.6696 -0.3006
78553SOL     OW53650   6.196   8.815   4.582  0.5303 -0.1518 -0.4654
78553SOL    HW153651   6.230   8.886   4.636  1.4997 -2.3808  2.0667
78553SOL    HW253652   6.253   8.815   4.505  0.5604  1.6967 -0.4936
78554SOL     OW53653  10.716   1.351   6.384 -0.7466 -0.3988  0.2303
78554SOL    HW153654  10.770   1.284   6.426  2.4628  1.1548 -1.1406
78554SOL    HW253655  10.697   1.414   6.454 -0.3466 -0.7110  0.6240
78555SOL     OW53656   1.850  11.446   9.580 -0.4038  0.3055 -0.0015
78555SOL    HW153657   1.921  11.418   9.522 -0.3826  0.4784 -0.0609
78555SOL    HW253658   1.836  11.372   9.640  0.2597  0.5139  0.4207
78556SOL     OW53659   5.538  11.889   8.838 -0.7516 -0.0247 -0.1298
78556SOL    HW153660   5.594  11.946   8.786 -1.7660 -0.8099 -2.1759
78556SOL    HW253661   5.597  11.822   8.873  0.0984  1.0697  0.5741
78557SOL     OW53662  12.398   7.506   2.610  0.3086  0.1186 -0.1943
78557SOL    HW153663  12.427   7.597   2.617 -0.0050  0.3698 -1.8148
78557SOL    HW253664  12.316   7.511   2.561 -0.4962 -0.9202  1.0098
78558SOL     OW53665  11.173   7.688   2.935  0.2367 -0.0021  0.6030
78558SOL    HW153666  11.079   7.681   2.950  0.2359 -1.2511  0.1095
78558SOL    HW253667  11.183   7.755   2.868 -0.3527 -0.3678  0.1487
78559SOL     OW53668   5.982  12.112  12.127  0.0526  0.9743 -0.4315
78559SOL    HW153669   6.052  12.176  12.141  0.8615 -0.0872  0.6284
78559SOL    HW253670   6.016  12.054  12.059 -0.0888  0.8573 -0.4028
78560SOL     OW53671  10.744   4.809   6.551  0.3137 -0.5236 -0.2018
78560SOL    HW153672  10.819   4.752   6.562  1.8820  0.9258 -2.4072
78560SOL    HW253673  10.718   4.833   6.640  1.5620 -2.1295  0.6519
78561SOL     OW53674  10.787   5.160   1.281 -0.4827 -0.2733  0.3832
78561SOL    HW153675  10.751   5.101   1.348 -0.1602 -1.7349 -0.6829
78561SOL    HW253676  10.864   5.113   1.248 -0.5071  0.5369 -0.8556
78562SOL     OW53677   5.844   7.395  13.125 -0.7613  0.7098  0.8961
78562SOL    HW153678   5.765   7.434  13.088  0.4506  1.4769 -0.9985
78562SOL    HW253679   5.882   7.465  13.179 -0.5606  0.8918  0.5246
78563SOL     OW53680   3.350  10.017  12.996  0.6777  0.5143  0.1402
78563SOL    HW153681   3.306   9.932  12.989  0.5820  0.6696 -1.3719
78563SOL    HW253682   3.443   9.996  12.987  0.6400  0.5898 -0.4299
78564SOL     OW53683   9.122  10.209  13.228 -0.1510  0.0508 -0.4199
78564SOL    HW153684   9.188  10.272  13.200  1.9978 -1.9529 -0.2093
78564SOL    HW253685   9.146  10.127  13.184 -1.1128 -1.3138  1.4274
78565SOL     OW53686  10.875   3.311   2.735 -0.2833  0.3876  0.0771
78565SOL    HW153687  10.952   3.276   2.780 -1.0699 -1.2055  0.2789
78565SOL    HW253688  10.813   3.331   2.805 -0.2484  1.1746 -0.1111
78566SOL     OW53689   3.711  12.991  13.889  0.4137 -0.1017  0.1665
78566SOL    HW153690   3.752  12.921  13.940 -0.7128  0.2506  1.6414
78566SOL    HW253691   3.703  13.064  13.951  0.8131  1.0474 -1.1025
78567SOL     OW53692   5.136  10.426   0.026  0.5190 -0.0539 -0.1417
78567SOL    HW153693   5.197  10.489   0.066 -0.2244  1.2528 -0.9871
78567SOL    HW253694   5.191  10.371  -0.029  1.1873 -0.1319  0.5858
78568SOL     OW53695   3.261  13.718  12.266 -0.0112  0.3501  0.4566
78568SOL    HW153696   3.192  13.708  12.332 -1.0873  1.0020 -0.5227
78568SOL    HW253697   3.316  13.789  12.299 -0.0426  0.0986  1.0553
78569SOL     OW53698   3.129  10.149   3.200  0.3358  0.0175 -0.4361
78569SOL    HW153699   3.050  10.202   3.204 -0.3991 -1.1041  2.1447
78569SOL    HW253700   3.201  10.212   3.211 -0.3142  0.8304 -0.7898
78570SOL     OW53701   3.605  12.593  11.971  0.1743 -0.5131  0.2548
78570SOL    HW153702   3.559  12.522  11.925 -1.0562 -0.5435  1.4586
78570SOL    HW253703   3.540  12.626  12.034 -0.0257  2.9881 -1.5463
78571SOL     OW53704   9.817   3.796  10.189  0.2122 -0.2568 -0.4469
78571SOL    HW153705   9.843   3.844  10.268  0.0507 -1.5229  0.4127
78571SOL    HW253706   9.894   3.743  10.167 -0.3154 -1.2094 -0.0891
78572SOL     OW53707   7.366   7.370   9.575  0.2355  0.2377  0.6189
78572SOL    HW153708   7.291   7.415   9.614 -0.3066 -0.1625  0.0584
78572SOL    HW253709   7.379   7.415   9.491 -0.6547 -0.9506 -0.2010
78573SOL     OW53710   0.268  13.755   5.771  0.0052  0.4764 -0.2817
78573SOL    HW153711   0.216  13.684   5.733  1.4942  0.1897 -1.9255
78573SOL    HW253712   0.318  13.791   5.697 -0.2273  2.8500  0.6105
78574SOL     OW53713   0.086   3.299   0.981  0.2000 -0.2045 -0.8922
78574SOL    HW153714   0.180   3.297   0.967  0.1928  0.9412 -1.1597
78574SOL    HW253715   0.059   3.387   0.956 -0.7603 -0.1018  0.4072
78575SOL     OW53716  11.374  11.739   5.862 -0.1955  0.3054  0.6635
78575SOL    HW153717  11.417  11.736   5.776 -0.5290  0.4735  0.4860
78575SOL    HW253718  11.288  11.699   5.847 -0.8328  1.6602  0.5603
78576SOL     OW53719   9.683   7.396   5.791 -0.1236 -0.5362 -0.3331
78576SOL    HW153720   9.689   7.424   5.699  0.1160  2.2344  0.4244
78576SOL    HW253721   9.770   7.362   5.812  0.3117  0.2763 -0.7512
78577SOL     OW53722   2.592  10.441   0.582  0.2966 -0.8439 -0.1316
78577SOL    HW153723   2.648  10.497   0.636  0.6634 -1.0582 -0.2854
78577SOL    HW253724   2.653  10.394   0.525 -0.1029 -0.4648 -0.8851
78578SOL     OW53725   0.801   6.923   9.538 -0.0445 -0.2967  0.7915
78578SOL    HW153726   0.836   6.978   9.467 -1.7388 -0.9394 -0.5972
78578SOL    HW253727   0.751   6.984   9.593 -1.6185 -0.3312 -0.5402
78579SOL     OW53728   2.342   4.343   2.182 -0.1853 -0.4889  0.3695
78579SOL    HW153729   2.248   4.340   2.202 -0.2838  0.9108  0.1639
78579SOL    HW253730   2.348   4.390   2.099  0.8443  1.4656  1.4931
78580SOL     OW53731  12.376   9.531   8.514  0.0355 -0.2343  0.8486
78580SOL    HW153732  12.415   9.479   8.585 -0.8022 -0.3183  1.2616
78580SOL    HW253733  12.451   9.568   8.467  0.6361 -1.2476  0.9752
78581SOL     OW53734   5.780  12.653  12.169  1.0345  0.1278  0.0101
78581SOL    HW153735   5.712  12.587  12.154  0.2402  0.4974  1.8159
78581SOL    HW253736   5.733  12.735  12.181  2.0173  1.1461 -2.3272
78582SOL     OW53737   0.642   6.733  12.492  0.1579  0.3270  0.0566
78582SOL    HW153738   0.708   6.707  12.428 -0.3983  1.3342 -0.9709
78582SOL    HW253739   0.675   6.815  12.529  0.3620 -0.1289  0.8946
78583SOL     OW53740  12.387   7.476   0.588  0.4396  0.5356 -0.1027
78583SOL    HW153741  12.423   7.434   0.666 -0.9583 -0.3199  0.1249
78583SOL    HW253742  12.364   7.403   0.530 -0.6372  1.0471 -0.3437
78584SOL     OW53743   9.488   8.685   7.521  0.0233  0.1784  0.6047
78584SOL    HW153744   9.509   8.752   7.456  0.0678 -1.0377 -0.6934
78584SOL    HW253745   9.521   8.720   7.603  0.7482  1.3998 -0.1695
78585SOL     OW53746   1.524   9.411   5.347  0.9475  0.4276 -0.0925
78585SOL    HW153747   1.538   9.387   5.255 -0.1315  0.1706 -0.2026
78585SOL    HW253748   1.598   9.467   5.369  1.8415 -0.4530 -0.7767
78586SOL     OW53749   3.398  12.956  12.104 -0.1298 -0.1543 -0.0008
78586SOL    HW153750   3.387  12.967  12.009  2.6902 -0.2674 -0.4398
78586SOL    HW253751   3.404  12.861  12.116 -0.2905 -0.1309  0.2582
78587SOL     OW53752   1.212   3.165   7.842  0.1392 -0.4872  0.4056
78587SOL    HW153753   1.206   3.253   7.880  0.9101 -0.8371  1.4050
78587SOL    HW253754   1.149   3.165   7.771 -0.4155  0.6362  0.8678
78588SOL     OW53755   7.245  11.361  13.315 -0.1493 -0.0524  0.6506
78588SOL    HW153756   7.286  11.404  13.240 -0.4948 -1.7357 -0.5664
78588SOL    HW253757   7.187  11.428  13.352 -0.5395  0.6029 -1.0438
78589SOL     OW53758   5.912   8.435   0.548  0.0446  0.0039 -0.1257
78589SOL    HW153759   5.900   8.355   0.599 -1.2269  0.7646  0.8634
78589SOL    HW253760   5.929   8.405   0.459 -1.9348 -1.3876 -0.1089
78590SOL     OW53761   9.915   4.257  12.721 -0.3708  0.5106 -0.4592
78590SOL    HW153762   9.858   4.208  12.780 -0.2332 -0.5912 -1.2090
78590SOL    HW253763   9.967   4.313  12.779 -0.3387 -0.4360  0.4594
78591SOL     OW53764   8.196   3.695  11.192  0.1447  0.3679 -0.6345
78591SOL    HW153765   8.178   3.635  11.119  3.3692 -0.8526 -0.5975
78591SOL    HW253766   8.159   3.651  11.269 -0.2723 -0.0224 -1.0502
78592SOL     OW53767   7.606  10.462   7.566 -0.2706  0.3763 -0.2888
78592SOL    HW153768   7.670  10.428   7.628 -0.8710  0.5239  0.4312
78592SOL    HW253769   7.654  10.526   7.514  0.3407 -0.0431 -0.2369
78593SOL     OW53770   8.067  10.113   9.840  0.2571 -0.0469  0.0238
78593SOL    HW153771   8.102  10.049   9.778 -0.1148  0.4807 -0.7498
78593SOL    HW253772   7.998  10.158   9.791  1.1734  1.6407  0.2110
78594SOL     OW53773  12.192  10.921   3.776  0.3730 -0.4211  0.2607
78594SOL    HW153774  12.229  11.000   3.814  0.1181 -0.0730 -0.2012
78594SOL    HW253775  12.219  10.924   3.684  0.9408 -1.2230  0.3839
78595SOL     OW53776   0.646   9.183   6.885 -0.2776  0.0330  0.0924
78595SOL    HW153777   0.671   9.271   6.855 -0.3123 -0.7855 -2.5325
78595SOL    HW253778   0.729   9.143   6.912 -0.2009  0.6852  0.8763
78596SOL     OW53779   2.929   1.652   4.811  0.3336  0.1244 -0.5228
78596SOL    HW153780   3.007   1.703   4.788 -0.9099  1.9277 -0.8912
78596SOL    HW253781   2.911   1.599   4.734  1.3771 -0.5853 -0.3027
78597SOL     OW53782   4.696  11.764   9.770 -0.1856  0.4764  0.1514
78597SOL    HW153783   4.730  11.684   9.729  1.0835  0.7883  0.5240
78597SOL    HW253784   4.683  11.825   9.698 -1.4934 -0.1601 -0.1755
78598SOL     OW53785   8.109   2.767  11.720 -0.1777  0.1412 -0.0309
78598SOL    HW153786   8.097   2.674  11.739  1.3223 -0.0552  0.0806
78598SOL    HW253787   8.112   2.771  11.624 -1.8244  0.3127 -0.0951
78599SOL     OW53788   3.964  13.203   1.961 -0.2244 -0.4615 -0.4701
78599SOL    HW153789   3.933  13.161   2.042 -0.4387 -0.3593 -0.4983
78599SOL    HW253790   3.890  13.258   1.933 -0.6770 -1.5421 -1.4839
78600SOL     OW53791   4.209   9.223   4.035 -0.1520 -0.1575  0.1743
78600SOL    HW153792   4.148   9.295   4.054  0.0692  0.5305 -1.5225
78600SOL    HW253793   4.279   9.233   4.099  0.3298  1.7193 -0.5965
78601SOL     OW53794   7.986   0.301   3.040 -0.5949 -0.2787 -0.0788
78601SOL    HW153795   8.077   0.319   3.062 -1.2077  0.9440  1.7848
78601SOL    HW253796   7.974   0.209   3.062  0.3895 -0.6861 -1.1817
78602SOL     OW53797  13.952   2.455   3.875  0.4577 -0.2441 -0.1478
78602SOL    HW153798  13.879   2.398   3.899  1.2081 -1.3816 -0.4665
78602SOL    HW253799  13.972   2.430   3.784 -0.1138  1.5447 -0.8040
78603SOL     OW53800   4.320   4.502  12.597  0.1158 -0.2759  0.1859
78603SOL    HW153801   4.388   4.537  12.655  0.4918  0.3286 -0.5942
78603SOL    HW253802   4.320   4.408  12.614 -0.3711 -0.0220  1.7654
78604SOL     OW53803   8.335   9.724   2.015 -0.7113 -0.2583 -0.3395
78604SOL    HW153804   8.364   9.796   1.960 -1.1794 -0.7352 -1.2435
78604SOL    HW253805   8.242   9.713   1.994 -0.3343 -2.0126 -1.2881
78605SOL     OW53806   7.345   5.613   7.281 -0.0849  0.1445  0.1327
78605SOL    HW153807   7.328   5.617   7.376 -1.9819  1.8668 -0.2227
78605SOL    HW253808   7.287   5.543   7.250 -0.5561  0.5564  0.0649
78606SOL     OW53809   7.165   6.208   0.926  0.2654  0.2110  0.5571
78606SOL    HW153810   7.115   6.214   0.844 -1.4453  0.2690  1.5577
78606SOL    HW253811   7.201   6.296   0.938  1.8845 -0.1884 -0.8934
78607SOL     OW53812   9.167   9.985   9.567  0.9443 -0.1267  0.2936
78607SOL    HW153813   9.147   9.896   9.540  0.4968  0.4098 -1.2276
78607SOL    HW253814   9.229   9.975   9.639  1.6336 -1.6366 -0.4809
78608SOL     OW53815   5.646  13.044  13.320  0.0581  0.2067  0.0811
78608SOL    HW153816   5.620  12.955  13.346  0.7519 -0.0691 -0.1550
78608SOL    HW253817   5.728  13.032  13.272  0.2225  0.9909  0.1547
78609SOL     OW53818  10.993   0.711   2.110  0.3195  0.3564  0.4266
78609SOL    HW153819  10.969   0.645   2.174  5.0427  0.3345  2.6051
78609SOL    HW253820  10.912   0.761   2.096 -2.1696 -2.6447  2.5774
78610SOL     OW53821   6.872   6.743  13.058  0.1269 -0.0376 -0.1106
78610SOL    HW153822   6.814   6.805  13.103  1.7317  0.9153  0.7399
78610SOL    HW253823   6.834   6.657  13.077 -1.9591  0.6034 -1.0386
78611SOL     OW53824   9.578  12.301  12.257  0.3230 -0.0633  0.1375
78611SOL    HW153825   9.578  12.242  12.332 -0.1570 -0.3731 -0.1028
78611SOL    HW253826   9.669  12.332  12.252  1.5010 -3.2829 -1.6671
78612SOL     OW53827   0.551   5.859   7.534  0.3445 -0.1635  0.0480
78612SOL    HW153828   0.544   5.953   7.520 -0.5732 -0.2904 -0.4730
78612SOL    HW253829   0.525   5.820   7.450  0.9350 -0.8770  0.1822
78613SOL     OW53830   9.857  12.432   2.400  0.1394 -0.3581  0.0212
78613SOL    HW153831   9.775  12.481   2.392  0.2729 -0.3100 -1.2714
78613SOL    HW253832   9.901  12.471   2.475 -0.4286  0.5029 -0.0769
78614SOL     OW53833  11.867   3.723  12.208  1.2412  0.2129  0.4122
78614SOL    HW153834  11.865   3.817  12.228  1.1508  0.0891  1.0223
78614SOL    HW253835  11.792   3.709  12.150 -0.2939  0.1026  2.3055
78615SOL     OW53836   6.452   0.997   0.067  0.2414  0.4802 -0.1595
78615SOL    HW153837   6.496   0.937   0.127 -0.2007  0.6334  0.3277
78615SOL    HW253838   6.363   1.005   0.102 -0.0598  0.4804 -0.9066
78616SOL     OW53839   9.528   9.790   3.133 -0.0739 -0.0507 -0.1736
78616SOL    HW153840   9.508   9.777   3.226 -0.7902  0.0528 -0.3054
78616SOL    HW253841   9.477   9.867   3.108  0.8835  0.5241 -0.4178
78617SOL     OW53842  11.757   5.366   9.493  0.0714  0.1733 -0.0513
78617SOL    HW153843  11.840   5.348   9.450 -0.5437  0.2058 -1.2827
78617SOL    HW253844  11.767   5.330   9.581  1.2705 -0.0963 -0.2913
78618SOL     OW53845   3.420   4.737   7.752  0.1924  1.0616  0.2067
78618SOL    HW153846   3.457   4.824   7.737 -0.3729  0.9052 -2.7425
78618SOL    HW253847   3.325   4.750   7.745  0.0534  0.3561  0.7187
78619SOL     OW53848   0.682  13.075   3.599  0.0159 -0.4831  0.5574
78619SOL    HW153849   0.656  12.987   3.570 -0.9608  0.0839 -0.3516
78619SOL    HW253850   0.771  13.063   3.634  0.4880 -1.5589 -0.9072
78620SOL     OW53851   6.736  14.080   8.124 -0.1723  0.0962 -0.0656
78620SOL    HW153852   6.678  14.016   8.166 -0.6933 -0.2921 -1.3361
78620SOL    HW253853   6.708  14.165   8.159 -0.5482 -0.2195  0.4113
78621SOL     OW53854   6.342   2.323   2.697  0.0411 -0.2442  0.1401
78621SOL    HW153855   6.414   2.330   2.759  0.2573  0.2005 -0.1524
78621SOL    HW253856   6.317   2.231   2.698  1.3858 -0.6505 -0.6167
78622SOL     OW53857  12.803   3.785  10.960 -0.5649 -0.3006  0.4045
78622SOL    HW153858  12.737   3.820  11.021 -2.0976 -2.1939 -0.0536
78622SOL    HW253859  12.810   3.852  10.892 -1.2665  0.3908  0.9865
78623SOL     OW53860  10.363  12.908   2.000 -0.1506  0.1111 -0.1221
78623SOL    HW153861  10.310  12.881   2.075  0.6057  1.1107  0.8002
78623SOL    HW253862  10.300  12.946   1.938 -0.7247 -0.3238  0.1820
78624SOL     OW53863  12.201   6.004   8.565 -0.6890 -0.0896  1.1178
78624SOL    HW153864  12.249   6.027   8.645 -0.7399 -0.3755  1.2308
78624SOL    HW253865  12.177   6.088   8.527  2.8942  0.2688 -0.7861
78625SOL     OW53866  10.167   5.711   7.250  0.5259 -0.2324 -0.1122
78625SOL    HW153867  10.164   5.722   7.155 -1.0842 -0.0860 -0.0798
78625SOL    HW253868  10.260   5.703   7.270  0.8919 -0.5691 -1.7278
78626SOL     OW53869   7.294   1.844   7.588  0.1424 -0.0392 -0.2467
78626SOL    HW153870   7.360   1.886   7.644 -0.6198  2.6941 -1.2184
78626SOL    HW253871   7.239   1.796   7.649  0.4575  1.2765  1.1534
78627SOL     OW53872   5.562   5.532   1.832 -0.2523  0.2177 -0.4063
78627SOL    HW153873   5.530   5.492   1.751  1.1138 -0.7388 -0.5247
78627SOL    HW253874   5.611   5.462   1.875 -0.8032  0.7622  1.1797
78628SOL     OW53875   3.826   9.104  12.000  0.5185 -0.3543 -0.3119
78628SOL    HW153876   3.747   9.098  12.055 -1.0946 -0.6495 -2.5001
78628SOL    HW253877   3.858   9.193  12.015  0.7862 -0.7478  1.8530
78629SOL     OW53878   9.388   8.199   9.038  0.1785 -0.5662 -0.1523
78629SOL    HW153879   9.414   8.264   9.104  0.3905 -1.5528  0.7679
78629SOL    HW253880   9.471   8.160   9.010  0.0322 -0.6265 -0.5022
78630SOL     OW53881  11.943   2.949   5.705 -0.2497  0.1479 -0.7560
78630SOL    HW153882  11.973   2.993   5.626  2.3833 -0.3948 -0.1448
78630SOL    HW253883  11.869   3.001   5.735 -0.1802  1.3781 -2.6045
78631SOL     OW53884  13.122   1.878   6.944  0.2792 -0.7228  0.2903
78631SOL    HW153885  13.204   1.832   6.925  0.7971  1.0497 -2.2512
78631SOL    HW253886  13.070   1.869   6.864 -1.8361 -1.3348  1.6605
78632SOL     OW53887   0.665   4.574  10.314 -0.2590  0.5525  0.2482
78632SOL    HW153888   0.725   4.503  10.338  0.7087  1.1625 -0.2966
78632SOL    HW253889   0.719   4.636  10.265 -1.8270 -0.0079 -2.4094
78633SOL     OW53890   8.293  12.068  10.709 -0.1961 -0.5471 -0.2769
78633SOL    HW153891   8.254  11.985  10.680 -2.1386  0.0702  0.4083
78633SOL    HW253892   8.373  12.042  10.754 -1.9922 -2.3839  2.2012
78634SOL     OW53893   5.834   2.755   7.335 -0.1789 -0.3980  0.2386
78634SOL    HW153894   5.923   2.721   7.342  0.1137 -0.7708 -3.1667
78634SOL    HW253895   5.831   2.829   7.395  2.2735 -0.6590  0.7910
78635SOL     OW53896  11.556   3.788   6.037  0.2248  0.4120 -0.1871
78635SOL    HW153897  11.511   3.818   5.958  0.0083  2.6336  0.7049
78635SOL    HW253898  11.520   3.842   6.107  2.3621  0.4150  0.9943
78636SOL     OW53899   7.522  13.316  11.089  0.7087 -0.0454  0.7087
78636SOL    HW153900   7.430  13.299  11.111  0.6661 -0.8009 -0.0074
78636SOL    HW253901   7.526  13.411  11.075  0.3417  0.1823  2.0692
78637SOL     OW53902   2.630   9.311  10.107  0.0003  0.3269  0.1087
78637SOL    HW153903   2.535   9.313  10.121 -0.2934  2.1337 -1.7265
78637SOL    HW253904   2.648   9.389  10.055  2.6331  0.4322  1.0498
78638SOL     OW53905  10.194   7.097   6.133  0.9992 -0.2536  0.7064
78638SOL    HW153906  10.175   7.191   6.141 -0.3296 -0.6057  2.3852
78638SOL    HW253907  10.128   7.065   6.072 -0.0682 -0.4352  1.8943
78639SOL     OW53908   9.208   4.514   2.734  0.1745 -0.2276  0.0441
78639SOL    HW153909   9.274   4.453   2.700  0.2936  0.1257 -0.3626
78639SOL    HW253910   9.178   4.563   2.658  1.5776  1.6905  0.6387
78640SOL     OW53911   9.456  10.652  14.126  0.2796  0.2861 -0.2385
78640SOL    HW153912   9.483  10.606  14.205 -0.7573 -0.6190 -0.3765
78640SOL    HW253913   9.402  10.588  14.078  0.3900  1.0107 -1.3791
78641SOL     OW53914   2.473  11.424  13.770  0.9218  0.2556 -0.2256
78641SOL    HW153915   2.438  11.432  13.681  0.1141 -2.8064 -0.2833
78641SOL    HW253916   2.564  11.397  13.757  0.9983  0.4464 -0.0939
78642SOL     OW53917   3.046   7.060   9.002 -0.3857  0.6257  0.2761
78642SOL    HW153918   3.129   7.019   9.025 -0.1745 -0.2423 -1.8166
78642SOL    HW253919   3.069   7.148   8.975 -0.1860  0.4902  0.0011
78643SOL     OW53920   1.554   7.448   0.670 -0.2108 -0.6216  0.4535
78643SOL    HW153921   1.516   7.521   0.719 -2.0890 -2.4114  1.8397
78643SOL    HW253922   1.638   7.432   0.713  0.5878  1.1516 -0.3610
78644SOL     OW53923  11.486  13.668  13.289  0.0620  0.0841 -0.1508
78644SOL    HW153924  11.482  13.573  13.274 -0.3045  0.2781 -1.3865
78644SOL    HW253925  11.406  13.687  13.338 -0.1840 -0.1569 -0.4518
78645SOL     OW53926  13.766   1.084   9.127 -0.4733 -0.3431 -0.1268
78645SOL    HW153927  13.683   1.069   9.172 -0.3795  1.3817  0.7186
78645SOL    HW253928  13.760   1.174   9.094  0.9127 -0.2951 -0.3350
78646SOL     OW53929  13.052   9.187   6.766  0.3119 -0.1252 -0.4158
78646SOL    HW153930  12.991   9.125   6.727 -1.0673  0.6488  0.4444
78646SOL    HW253931  13.138   9.146   6.756 -0.4559 -1.7240 -0.7242
78647SOL     OW53932   5.054   9.519  11.492  0.0784  0.1307 -0.5239
78647SOL    HW153933   5.024   9.565  11.571  0.1295  0.1480 -0.5145
78647SOL    HW253934   4.993   9.445  11.483 -0.9078  1.0085 -1.3669
78648SOL     OW53935  13.003   6.961   5.386  0.5097  0.2883  0.4409
78648SOL    HW153936  13.001   6.925   5.298  1.6641  1.4216 -0.0899
78648SOL    HW253937  13.087   6.931   5.422  1.4608  2.2461  0.0113
78649SOL     OW53938   1.298   4.156  13.313  0.1040 -0.5957 -0.6308
78649SOL    HW153939   1.204   4.143  13.305  0.5005 -4.3244 -0.9158
78649SOL    HW253940   1.314   4.158  13.408 -0.1680 -0.9493 -0.5761
78650SOL     OW53941  11.378   1.845  10.997 -0.2161 -0.3022 -0.0106
78650SOL    HW153942  11.289   1.857  11.031 -0.1590 -0.8087  0.3298
78650SOL    HW253943  11.368   1.781  10.927 -0.0100 -0.9909  0.5756
78651SOL     OW53944  12.311   9.513   5.853 -0.4202 -0.5032  0.4210
78651SOL    HW153945  12.321   9.435   5.799 -0.3767 -0.8706  0.9525
78651SOL    HW253946  12.219   9.538   5.843 -0.0112  0.5288 -1.2861
78652SOL     OW53947  11.837   7.544   3.540  0.4774 -0.1990 -0.7390
78652SOL    HW153948  11.918   7.527   3.492  0.5113 -0.1599 -0.6960
78652SOL    HW253949  11.773   7.484   3.502  0.3623  0.2116 -1.2023
78653SOL     OW53950  12.837   5.507   8.051 -0.4266  0.5572  0.2326
78653SOL    HW153951  12.761   5.539   8.002  0.2279  0.0318 -1.1968
78653SOL    HW253952  12.911   5.522   7.992  0.0817 -2.4871 -0.0799
78654SOL     OW53953  10.418   8.122   6.122  0.0342  0.0596 -0.7325
78654SOL    HW153954  10.358   8.195   6.106  0.1869 -0.0075 -1.6348
78654SOL    HW253955  10.363   8.055   6.163 -0.5133  0.0110 -1.5262
78655SOL     OW53956  10.201   4.418   2.913  0.3833  0.0577 -0.1449
78655SOL    HW153957  10.245   4.398   2.830  0.7325  1.1000 -0.2305
78655SOL    HW253958  10.121   4.366   2.911  1.0488 -0.9630 -0.5209
78656SOL     OW53959   8.092   0.190  10.070 -0.0932  0.0889 -0.0295
78656SOL    HW153960   8.136   0.106  10.081 -0.6901 -0.5406 -1.9624
78656SOL    HW253961   8.032   0.195  10.144 -1.1274 -1.9346 -0.6414
78657SOL     OW53962   0.281   7.026   5.612  0.1389 -0.0900  0.7248
78657SOL    HW153963   0.318   7.071   5.536  0.7650 -1.8044 -0.0435
78657SOL    HW253964   0.223   6.960   5.575 -0.2448 -0.3718  1.7821
78658SOL     OW53965   0.108  10.208   9.382  0.1399 -0.7235 -0.3738
78658SOL    HW153966   0.141  10.280   9.436 -1.6461  1.2324 -1.7262
78658SOL    HW253967   0.164  10.207   9.305  1.8329 -2.6247  0.7868
78659SOL     OW53968   8.157  11.620   3.725  0.5714  0.1124  0.0571
78659SOL    HW153969   8.103  11.556   3.771  1.1972 -0.3207  0.1966
78659SOL    HW253970   8.157  11.697   3.782  1.2050 -0.3612  0.7213
78660SOL     OW53971   6.680  10.108   2.681 -0.4424 -0.9989  0.6688
78660SOL    HW153972   6.766  10.071   2.701 -0.6997 -1.8417  0.2563
78660SOL    HW253973   6.620  10.033   2.683 -1.5018 -0.1730  2.7457
78661SOL     OW53974   8.219   8.422   9.056 -0.2053 -0.6253  0.6198
78661SOL    HW153975   8.274   8.352   9.089  0.3904 -1.2695 -1.5453
78661SOL    HW253976   8.196   8.394   8.967 -1.9190  0.8326  0.5519
78662SOL     OW53977   1.453  11.068  10.168 -0.2229  0.4343 -0.0775
78662SOL    HW153978   1.418  11.054  10.256  0.5185 -0.6725  0.0536
78662SOL    HW253979   1.390  11.025  10.110 -0.2571  0.4099 -0.0215
78663SOL     OW53980  12.938   8.854   6.148  0.2604  0.5587  0.1101
78663SOL    HW153981  12.863   8.795   6.156  0.1458  0.7197  0.2078
78663SOL    HW253982  12.935   8.885   6.058  2.2895 -2.2574 -1.0856
78664SOL     OW53983   0.652   5.637   1.902 -0.4907  0.0488  0.9029
78664SOL    HW153984   0.746   5.621   1.888  0.0253  2.2599  1.5677
78664SOL    HW253985   0.626   5.692   1.828 -1.1672 -0.1062  1.0163
78665SOL     OW53986  13.011   6.836  11.061  0.0050 -0.1430 -0.2251
78665SOL    HW153987  12.926   6.847  11.019 -0.0353  2.3398  0.3531
78665SOL    HW253988  13.073   6.873  10.998  0.4105 -0.0746  0.2124
78666SOL     OW53989   8.707   8.490   9.719  0.4322 -0.5787 -0.2844
78666SOL    HW153990   8.793   8.448   9.713  0.6233 -0.3534  0.7281
78666SOL    HW253991   8.656   8.432   9.775 -0.4509 -1.2736 -1.7263
78667SOL     OW53992  10.275   4.188  13.415 -0.6619  0.0761  0.5106
78667SOL    HW153993  10.268   4.097  13.388 -2.4487  0.2276  0.3816
78667SOL    HW253994  10.294   4.183  13.509 -0.0186 -0.4037  0.3697
78668SOL     OW53995  11.907  11.534  10.137  0.2621 -0.0859  0.0705
78668SOL    HW153996  11.928  11.625  10.116  2.1038 -0.1842  1.2878
78668SOL    HW253997  11.981  11.503  10.189  0.4688 -2.8029 -1.6591
78669SOL     OW53998   2.029  10.837   1.369  0.1056  0.3985 -0.1716
78669SOL    HW153999   1.938  10.835   1.341 -0.3437  1.1813  1.1442
78669SOL    HW254000   2.077  10.869   1.292 -1.0594  2.3581 -0.1587
78670SOL     OW54001   1.999   0.231   0.453  0.5064 -0.1977  0.0363
78670SOL    HW154002   1.928   0.237   0.389  0.2389  0.7446  0.4116
78670SOL    HW254003   1.961   0.262   0.535  1.1655 -0.3315  0.3997
78671SOL     OW54004   2.093   0.627   0.495 -0.0336  0.8623  0.0214
78671SOL    HW154005   2.004   0.592   0.490  0.3623 -0.3614  1.2281
78671SOL    HW254006   2.118   0.641   0.403 -0.4365 -1.4527 -0.4912
78672SOL     OW54007   7.437   9.930   9.795 -0.3577  0.9276  0.4411
78672SOL    HW154008   7.383   9.947   9.872 -0.2427 -3.0552  1.6188
78672SOL    HW254009   7.375   9.902   9.727 -0.2012  1.4172  0.0928
78673SOL     OW54010   8.864   0.414  13.409 -0.9098 -0.0345  0.3726
78673SOL    HW154011   8.867   0.423  13.314  0.7417 -1.6614  0.2095
78673SOL    HW254012   8.860   0.504  13.441 -2.3279  0.5339 -1.2028
78674SOL     OW54013  13.259   8.193   7.117  0.0804 -0.0157  0.1351
78674SOL    HW154014  13.323   8.210   7.047 -1.2603 -0.7710 -1.3403
78674SOL    HW254015  13.198   8.130   7.078 -0.9374 -0.1487  1.8784
78675SOL     OW54016   1.907   8.846   9.596  0.1087  0.2712 -0.1977
78675SOL    HW154017   1.975   8.879   9.654 -1.9503  0.4319  2.3007
78675SOL    HW254018   1.846   8.920   9.586  0.5101  0.3527 -2.9109
78676SOL     OW54019  10.129   2.238  13.855 -0.8064 -0.3470 -0.3648
78676SOL    HW154020  10.096   2.154  13.886 -1.2342 -0.3450 -0.7959
78676SOL    HW254021  10.153   2.285  13.935  3.7238 -2.4837 -0.1494
78677SOL     OW54022  12.120   6.495  11.340 -0.2906  0.3434 -0.3824
78677SOL    HW154023  12.056   6.476  11.271  0.9003  0.1213 -1.4704
78677SOL    HW254024  12.181   6.421  11.336 -0.3474  0.1849  1.1167
78678SOL     OW54025   2.213  13.054  10.865  0.0559 -0.1584 -0.0802
78678SOL    HW154026   2.170  13.036  10.948  0.9735  0.6098  0.5855
78678SOL    HW254027   2.143  13.049  10.800 -0.4724 -1.8384  0.5813
78679SOL     OW54028   9.295   7.537   0.605 -0.1071  0.6211 -0.4211
78679SOL    HW154029   9.249   7.575   0.530 -1.3271 -0.1850 -0.1062
78679SOL    HW254030   9.308   7.445   0.581  0.0859  0.5132  0.0802
78680SOL     OW54031   4.305   6.915   9.896 -0.3354  0.1251  0.9126
78680SOL    HW154032   4.381   6.868   9.862 -0.4378 -0.0619  0.9393
78680SOL    HW254033   4.247   6.846   9.929  0.2026  0.3490  2.4031
78681SOL     OW54034  10.165   1.078   0.707  0.7158  0.1696 -0.4390
78681SOL    HW154035  10.079   1.102   0.741  0.1688 -2.3973  0.2071
78681SOL    HW254036  10.226   1.139   0.749 -0.8178  2.5992 -1.5812
78682SOL     OW54037   5.250  12.130   2.774 -0.3766  0.6467 -0.3299
78682SOL    HW154038   5.334  12.175   2.757 -0.1926  0.6064  0.4612
78682SOL    HW254039   5.261  12.044   2.733  0.6997 -0.0698  1.3797
78683SOL     OW54040  10.186  11.700   9.498 -0.0901  0.2387 -0.1151
78683SOL    HW154041  10.141  11.737   9.422 -1.2456 -0.9792 -0.0536
78683SOL    HW254042  10.255  11.646   9.460 -1.7821 -1.8169 -0.4241
78684SOL     OW54043  13.897  12.254   1.621  0.5576  0.2918  0.0963
78684SOL    HW154044  13.964  12.316   1.594  1.0977  0.0397  0.8535
78684SOL    HW254045  13.933  12.210   1.697  0.5247 -1.5336 -0.8847
78685SOL     OW54046   2.093   5.790   7.898 -0.6793  0.1542 -0.5514
78685SOL    HW154047   2.118   5.881   7.881  0.8537 -0.5195 -2.2760
78685SOL    HW254048   2.039   5.766   7.822 -1.4324 -0.2560  0.1106
78686SOL     OW54049  10.712   9.028   8.983 -0.1450 -0.3340  0.4932
78686SOL    HW154050  10.721   9.092   9.053 -0.4653  0.2050  0.0456
78686SOL    HW254051  10.624   8.991   8.995 -0.5617  0.4200 -0.1704
78687SOL     OW54052  12.746  10.647  11.108 -0.2039 -0.4102 -0.2503
78687SOL    HW154053  12.769  10.586  11.037 -0.4046 -2.4363  1.3142
78687SOL    HW254054  12.754  10.594  11.187  0.4232  1.9002  1.3028
78688SOL     OW54055   5.288   6.800   9.111 -0.4598 -0.2775  0.1606
78688SOL    HW154056   5.358   6.826   9.171 -1.6468  1.3165  0.9599
78688SOL    HW254057   5.333   6.772   9.031  1.1029 -0.6942  1.1344
78689SOL     OW54058  14.138   4.361   0.434 -0.4911  0.1393  0.3606
78689SOL    HW154059  14.119   4.293   0.370  0.3381  0.7402 -0.5750
78689SOL    HW254060  14.228   4.344   0.461  0.0111  1.2865 -0.4831
78690SOL     OW54061   3.424   1.496   0.266  0.1971  0.5066  0.3538
78690SOL    HW154062   3.448   1.581   0.304 -0.7864  1.0934 -0.2930
78690SOL    HW254063   3.505   1.462   0.229  0.2194  2.1319 -1.1952
78691SOL     OW54064   4.636   7.038   5.453 -0.3639 -0.0645  0.5288
78691SOL    HW154065   4.587   6.965   5.491 -0.8421 -0.0717 -0.0952
78691SOL    HW254066   4.724   7.030   5.491 -0.4634 -0.8575  0.6026
78692SOL     OW54067  13.734   9.185  10.428 -0.4967  0.1294  0.6388
78692SOL    HW154068  13.775   9.101  10.405  0.5822  0.8030  0.0021
78692SOL    HW254069  13.790   9.219  10.498 -0.6948  0.4987  0.6143
78693SOL     OW54070   7.103   5.023   4.451  0.1904 -0.0888  0.0729
78693SOL    HW154071   7.101   4.934   4.486 -1.4283 -0.1012  0.0148
78693SOL    HW254072   7.107   5.079   4.528 -1.0350 -0.1794  0.2260
78694SOL     OW54073   0.516   9.407   6.046 -0.0608  0.0521 -0.5659
78694SOL    HW154074   0.531   9.497   6.017 -1.0051 -0.1013 -1.5724
78694SOL    HW254075   0.429   9.408   6.086  0.3318 -0.2185  0.3349
78695SOL     OW54076   7.995   2.473  10.018 -0.1180  0.1040  0.1795
78695SOL    HW154077   7.993   2.491   9.924 -0.4894 -1.2886 -0.1034
78695SOL    HW254078   8.029   2.553  10.058  1.3158  0.2435 -1.2571
78696SOL     OW54079   8.705   2.053   0.307  0.3086 -0.5530 -0.0671
78696SOL    HW154080   8.660   2.036   0.390  1.7174 -0.0647  0.8319
78696SOL    HW254081   8.798   2.046   0.328  0.6975 -0.4874 -1.6330
78697SOL     OW54082  11.267   4.509  13.249  0.3861  0.1278  0.2137
78697SOL    HW154083  11.198   4.574  13.256  0.4437  0.6182 -2.6372
78697SOL    HW254084  11.347   4.557  13.271  0.2365  0.5850 -0.2158
78698SOL     OW54085   1.367  11.777   4.717  0.2522  0.3581 -0.0147
78698SOL    HW154086   1.340  11.687   4.731  0.0321  0.0874 -1.8722
78698SOL    HW254087   1.371  11.816   4.804 -0.7486 -1.1257  0.7196
78699SOL     OW54088   1.483   8.929  13.881 -0.7202 -0.1795  0.4807
78699SOL    HW154089   1.535   8.852  13.903 -0.7450 -0.6911 -1.0972
78699SOL    HW254090   1.393   8.905  13.903 -0.8508 -0.9709 -0.8098
78700SOL     OW54091   9.121   4.865   3.112 -0.6149  0.4573  0.5174
78700SOL    HW154092   9.201   4.843   3.160 -1.2531 -0.5869  1.1295
78700SOL    HW254093   9.065   4.909   3.176 -1.6036 -1.2356  0.8607
78701SOL     OW54094  11.409   9.648   3.857  0.4265 -0.8108 -0.1210
78701SOL    HW154095  11.387   9.636   3.949 -0.6165 -2.0610 -0.5028
78701SOL    HW254096  11.450   9.565   3.831  0.4611 -0.5790 -0.8426
78702SOL     OW54097   6.014  14.058   9.918  0.4852  0.4637  0.0313
78702SOL    HW154098   5.994  14.101   9.835 -2.1598  0.9360  0.8254
78702SOL    HW254099   6.003  14.126   9.984 -1.6660 -0.8187  1.1075
78703SOL     OW54100   8.417  10.697   9.259 -0.0632 -0.1222  0.0959
78703SOL    HW154101   8.497  10.719   9.306  0.2835 -0.2366 -0.4312
78703SOL    HW254102   8.375  10.630   9.313 -0.7044  1.1830  1.2710
78704SOL     OW54103   6.521   8.163  11.028 -0.0955  0.3916  0.6917
78704SOL    HW154104   6.482   8.194  10.946 -1.4630 -0.6671  0.9114
78704SOL    HW254105   6.538   8.243  11.078 -0.6653  0.9577  0.0003
78705SOL     OW54106   0.463   3.098   3.718 -0.5631  0.1434 -0.1585
78705SOL    HW154107   0.495   3.149   3.644 -0.2853  0.5408  0.2342
78705SOL    HW254108   0.540   3.084   3.773 -0.5789 -0.9399 -0.4008
78706SOL     OW54109   6.732   1.855   8.594 -0.5803 -0.0061 -0.0216
78706SOL    HW154110   6.689   1.891   8.517 -1.1643 -1.2177 -0.2830
78706SOL    HW254111   6.661   1.818   8.647 -0.1266  0.2775  0.8111
78707SOL     OW54112   2.005   1.255  12.129  0.6276 -0.3440  0.1907
78707SOL    HW154113   2.028   1.234  12.038 -2.7668 -1.7101 -0.5172
78707SOL    HW254114   1.997   1.170  12.172  0.3534  0.2020  1.2617
78708SOL     OW54115   0.271   7.138  12.252 -0.3907  0.2721  0.3248
78708SOL    HW154116   0.299   7.125  12.342 -2.4781 -1.8045  0.7529
78708SOL    HW254117   0.232   7.054  12.226  0.7129  0.5718 -2.7507
78709SOL     OW54118   5.579   9.838   1.656  0.0882  0.6334 -0.4298
78709SOL    HW154119   5.513   9.876   1.715  1.7571  0.5455  1.5916
78709SOL    HW254120   5.647   9.905   1.651  0.7928 -0.1124 -0.8166
78710SOL     OW54121  10.287   2.076   1.122 -0.2585 -0.2058  0.1375
78710SOL    HW154122  10.272   2.125   1.041 -0.0445  0.7417  0.6721
78710SOL    HW254123  10.201   2.038   1.143 -0.9443  1.6213  0.8166
78711SOL     OW54124   5.082   6.956  10.443  0.1360 -0.0344  0.2402
78711SOL    HW154125   5.085   6.861  10.451 -1.3274 -0.6443 -3.9062
78711SOL    HW254126   5.170   6.979  10.414  0.7742  0.0959  2.1443
78712SOL     OW54127   2.587  13.658   7.685  0.4540  0.2630 -0.3316
78712SOL    HW154128   2.532  13.581   7.670  2.0552 -0.9797  0.0111
78712SOL    HW254129   2.606  13.655   7.779  1.1961  0.6233 -0.4719
78713SOL     OW54130  13.898   7.589   7.900 -0.3187  0.4283 -0.6225
78713SOL    HW154131  13.815   7.576   7.945 -0.2357  2.0362  0.0604
78713SOL    HW254132  13.874   7.616   7.811 -0.5337  0.6925 -0.4859
78714SOL     OW54133  12.404   2.176   3.439 -0.1106 -0.3466 -0.3990
78714SOL    HW154134  12.378   2.251   3.493 -0.6079 -1.4206  0.9159
78714SOL    HW254135  12.321   2.142   3.405  0.1694  0.0951 -1.5804
78715SOL     OW54136  12.399   3.556   9.218  0.2202  0.6641  0.6935
78715SOL    HW154137  12.379   3.526   9.130  0.2326  2.5738 -0.0088
78715SOL    HW254138  12.327   3.525   9.272 -0.1853  0.1449 -0.1354
78716SOL     OW54139  10.773  12.025   3.854  0.1094 -0.4834 -0.1511
78716SOL    HW154140  10.854  12.039   3.904 -0.8675 -0.2153  1.4253
78716SOL    HW254141  10.739  12.113   3.837 -0.4106 -0.6206  0.1570
78717SOL     OW54142   5.402  10.599  11.575 -0.2532 -0.7215  0.2414
78717SOL    HW154143   5.451  10.579  11.655  0.8409 -0.5316 -0.3726
78717SOL    HW254144   5.313  10.616  11.606  0.5857  1.3984  1.6873
78718SOL     OW54145   8.434   9.797  12.083  0.0057 -0.0257 -0.2382
78718SOL    HW154146   8.426   9.801  12.178 -0.3891  1.9004 -0.3008
78718SOL    HW254147   8.364   9.738  12.055  1.1029 -1.8841  0.7234
78719SOL     OW54148   8.455   8.116  10.404 -0.2830 -0.0505 -0.0658
78719SOL    HW154149   8.488   8.205  10.399  0.7784 -0.4749 -1.0197
78719SOL    HW254150   8.489   8.082  10.487  0.5039 -0.0054 -0.3562
78720SOL     OW54151   5.940  13.592   3.160  0.1123 -0.4079 -0.6779
78720SOL    HW154152   5.935  13.497   3.170 -1.2427 -0.4180 -1.3362
78720SOL    HW254153   6.026  13.615   3.196 -0.5781 -1.5478  1.9595
78721SOL     OW54154  12.838   7.590   1.005 -0.1353  0.1648  0.1568
78721SOL    HW154155  12.828   7.680   1.035  2.2030  0.7263 -0.5139
78721SOL    HW254156  12.851   7.598   0.910  1.0806 -0.7551  0.2258
78722SOL     OW54157   4.940  11.345  13.031  0.0549 -0.2180  0.1854
78722SOL    HW154158   4.949  11.291  12.952  1.2454  0.1287  0.0643
78722SOL    HW254159   4.987  11.296  13.099  1.0008  0.5661  0.1145
78723SOL     OW54160   6.302   0.759   7.180  0.7012  0.3594  0.5213
78723SOL    HW154161   6.380   0.799   7.141  0.8794 -0.7354 -0.3124
78723SOL    HW254162   6.231   0.819   7.158  1.2504  1.2198  1.0266
78724SOL     OW54163   0.619  11.563   7.830  0.0608  1.1744  0.6346
78724SOL    HW154164   0.528  11.580   7.855  0.3086  2.8087  0.5683
78724SOL    HW254165   0.622  11.583   7.736  0.3069  0.2550  0.4349
78725SOL     OW54166  10.131   8.880  10.018 -0.4164 -0.1860 -0.1259
78725SOL    HW154167  10.087   8.960  10.043 -1.5420 -0.7571 -0.2077
78725SOL    HW254168  10.076   8.810  10.054  0.1910 -0.9234 -0.5943
78726SOL     OW54169   0.833  12.519   0.053  0.6684 -0.6675 -0.2701
78726SOL    HW154170   0.858  12.481  -0.031 -0.4107 -0.2684 -0.7765
78726SOL    HW254171   0.914  12.559   0.086  1.4375 -1.9858 -0.4634
78727SOL     OW54172  12.919  12.755   5.567 -0.3405  0.0145  0.4136
78727SOL    HW154173  12.988  12.818   5.591 -0.6848  1.0735 -1.1827
78727SOL    HW254174  12.967  12.679   5.534  0.1008  0.6413 -0.4410
78728SOL     OW54175  13.659  11.289  11.765  0.2305 -0.1863  0.0702
78728SOL    HW154176  13.613  11.206  11.783  1.2445 -0.5237  1.3006
78728SOL    HW254177  13.750  11.263  11.751  0.6525  0.7594  0.9409
78729SOL     OW54178   3.156  10.194   0.172 -0.1003 -0.7150 -0.3832
78729SOL    HW154179   3.084  10.243   0.212  2.5418  2.8137  0.5189
78729SOL    HW254180   3.188  10.251   0.103  2.6519 -1.5027  0.1364
78730SOL     OW54181  12.028   0.432  11.179  0.2000  0.3623  0.2256
78730SOL    HW154182  12.118   0.413  11.205 -0.1487 -0.5316  0.8213
78730SOL    HW254183  11.985   0.458  11.260  0.3579  2.6774 -0.3605
78731SOL     OW54184   9.313  12.039   9.388  0.1720 -0.4546 -0.2435
78731SOL    HW154185   9.323  12.037   9.483 -0.7184  1.5000 -0.0616
78731SOL    HW254186   9.327  11.948   9.360 -1.2608 -1.4138  1.9173
78732SOL     OW54187   3.840   5.439  12.687 -0.0183  0.0826 -0.3857
78732SOL    HW154188   3.806   5.528  12.683  0.4154  0.4511  2.0971
78732SOL    HW254189   3.935   5.449  12.682 -0.0262 -0.5076 -2.5279
78733SOL     OW54190   5.868   1.793   0.469 -0.4661 -0.1822 -0.0758
78733SOL    HW154191   5.874   1.887   0.485 -0.5862 -0.3920  1.3360
78733SOL    HW254192   5.784   1.781   0.425 -0.3574  0.3800 -0.4463
78734SOL     OW54193   3.411   2.153  10.245 -0.2920 -0.4857 -0.5687
78734SOL    HW154194   3.478   2.126  10.183  0.1537  1.4660 -0.9918
78734SOL    HW254195   3.436   2.109  10.327  0.6147 -1.0133 -1.1095
78735SOL     OW54196   6.551  11.860   4.991 -0.4238 -0.4669 -0.3257
78735SOL    HW154197   6.620  11.858   5.057 -1.0984 -0.7377  0.3914
78735SOL    HW254198   6.527  11.768   4.978 -0.0935 -0.4405 -1.1752
78736SOL     OW54199  13.714  13.543  12.723 -0.0796 -0.3395 -0.3979
78736SOL    HW154200  13.635  13.593  12.744 -0.7351 -1.3875 -0.2631
78736SOL    HW254201  13.713  13.535  12.628 -0.2936 -0.5779 -0.3783
78737SOL     OW54202   4.747   2.640   7.661 -0.0657 -0.3486  0.0322
78737SOL    HW154203   4.781   2.729   7.653  0.5001 -0.6497 -1.1582
78737SOL    HW254204   4.661   2.643   7.617  0.8567 -0.8339 -1.9373
78738SOL     OW54205   0.387   2.049  13.871 -0.2369  0.2859  0.2197
78738SOL    HW154206   0.310   2.051  13.927  0.2075  2.4009  0.8163
78738SOL    HW254207   0.414   2.140  13.862  1.3504 -0.2567 -1.1747
78739SOL     OW54208  14.070  13.613  13.881 -0.1492  0.0241  0.4417
78739SOL    HW154209  14.018  13.579  13.954 -0.0945 -1.6595 -0.2492
78739SOL    HW254210  14.161  13.596  13.905 -0.1693 -1.7943 -0.5173
78740SOL     OW54211   8.002   3.251   4.606  0.0407 -0.3983 -0.1869
78740SOL    HW154212   8.037   3.335   4.575  1.7159 -0.4089  1.4631
78740SOL    HW254213   8.080   3.199   4.625 -0.9641 -1.8914 -0.0196
78741SOL     OW54214   7.609  13.822   5.274  0.2418  0.4875 -0.4282
78741SOL    HW154215   7.689  13.813   5.326 -1.5550 -1.8953  2.2184
78741SOL    HW254216   7.594  13.734   5.238 -1.7607  0.5660  0.1183
78742SOL     OW54217   9.848   2.850  10.817 -0.1510 -0.5039 -0.0351
78742SOL    HW154218   9.840   2.944  10.799 -0.4282 -1.0317 -3.4943
78742SOL    HW254219   9.911   2.820  10.752  1.4834 -2.4718  2.3023
78743SOL     OW54220   9.587   9.149  11.372 -0.1821 -0.2325 -0.3290
78743SOL    HW154221   9.552   9.113  11.453  1.2611 -0.1715  0.3557
78743SOL    HW254222   9.679   9.123  11.372  0.4965  1.9711 -0.6590
78744SOL     OW54223   0.731   2.912   0.497 -0.5230 -0.7730 -0.0997
78744SOL    HW154224   0.775   2.838   0.454 -1.2048 -1.9303  1.1182
78744SOL    HW254225   0.729   2.888   0.590  0.2035  1.2883  0.5080
78745SOL     OW54226   9.464   7.361  10.056  0.5403 -0.1387 -0.2661
78745SOL    HW154227   9.424   7.351  10.142 -0.1238  0.2349 -0.5259
78745SOL    HW254228   9.395   7.398  10.001  1.5743  1.6204 -0.4435
78746SOL     OW54229   5.141  10.677   9.682  0.0522  0.0338 -0.1113
78746SOL    HW154230   5.073  10.611   9.695  0.9622 -0.6788  1.3411
78746SOL    HW254231   5.099  10.760   9.703 -0.5100 -0.3467  0.2851
78747SOL     OW54232   8.620   5.172  12.969  0.0715 -0.1637 -0.0094
78747SOL    HW154233   8.700   5.209  12.932 -0.6276  1.4591  0.0155
78747SOL    HW254234   8.642   5.155  13.061  0.5733 -0.3041 -0.1525
78748SOL     OW54235   4.359  11.536   4.535 -0.1511  0.5684  0.1466
78748SOL    HW154236   4.346  11.492   4.619 -0.2324 -4.0407 -1.9630
78748SOL    HW254237   4.273  11.569   4.512  0.1090  2.9917  2.2559
78749SOL     OW54238   5.595   6.728   3.868  0.1723  0.4544  0.2889
78749SOL    HW154239   5.595   6.781   3.789  0.6604  0.0586  0.0235
78749SOL    HW254240   5.577   6.639   3.838 -2.4885  0.6879  0.8983
78750SOL     OW54241   6.863   4.079  10.052 -0.0324  0.0558  0.4299
78750SOL    HW154242   6.795   4.073  10.119 -1.3411 -0.0396 -0.8582
78750SOL    HW254243   6.945   4.068  10.100 -1.0178 -2.3333  1.7328
78751SOL     OW54244  13.791   8.536  12.976 -0.4439 -0.1379 -0.1216
78751SOL    HW154245  13.797   8.610  13.035  1.7044 -0.5575  0.2783
78751SOL    HW254246  13.829   8.567  12.894 -1.8532 -0.0690 -0.7738
78752SOL     OW54247  12.324   9.961  10.262 -0.0423 -0.1630 -0.6190
78752SOL    HW154248  12.401   9.951  10.318 -0.2087 -0.3279 -0.4186
78752SOL    HW254249  12.345   9.908  10.184 -0.3410 -0.9822 -0.1568
78753SOL     OW54250   5.261   1.315   9.958 -0.2697  0.3276  0.0274
78753SOL    HW154251   5.307   1.258   9.896 -0.4247  0.0744  0.1468
78753SOL    HW254252   5.168   1.291   9.949 -0.1809 -0.5008  1.1727
78754SOL     OW54253  11.835   1.357  13.488  0.1643  0.6022 -0.6228
78754SOL    HW154254  11.884   1.282  13.456 -0.6674 -0.0176 -0.4691
78754SOL    HW254255  11.743   1.336  13.471 -0.3353  0.3286  1.9079
78755SOL     OW54256  10.589   7.446   8.870  0.6083  0.3569  0.0160
78755SOL    HW154257  10.677   7.469   8.839  0.7940  0.6779  0.7494
78755SOL    HW254258  10.544   7.530   8.878  0.4412  0.2459  0.2366
78756SOL     OW54259  12.442   0.510  12.374 -0.2578  0.6040  0.2531
78756SOL    HW154260  12.472   0.588  12.422 -1.7696  1.5984 -0.3424
78756SOL    HW254261  12.370   0.476  12.428 -1.6076  1.4101 -0.9849
78757SOL     OW54262   9.850   4.701  13.383  0.4098  0.1296 -0.5105
78757SOL    HW154263   9.806   4.631  13.431 -0.2273  1.4493  0.9120
78757SOL    HW254264   9.872   4.767  13.449 -0.7667  2.1721 -2.0151
78758SOL     OW54265  11.009   7.547   9.167 -0.0746 -0.3172 -0.6086
78758SOL    HW154266  11.077   7.599   9.210 -0.6138 -0.3425  0.2930
78758SOL    HW254267  10.951   7.613   9.126 -0.5879 -0.2039  0.2759
78759SOL     OW54268   4.994  10.690   4.456 -0.2205 -0.5327 -0.6425
78759SOL    HW154269   5.027  10.777   4.435  0.8855 -0.8269 -0.1854
78759SOL    HW254270   5.050  10.630   4.407 -0.7766 -1.0039 -0.7130
78760SOL     OW54271  11.705  13.211   0.452 -0.3441 -0.6815 -0.3836
78760SOL    HW154272  11.611  13.194   0.442 -0.6629  0.3583  0.6758
78760SOL    HW254273  11.740  13.131   0.491 -0.5360 -1.5778 -1.9644
78761SOL     OW54274   3.527   7.454   8.694 -0.1846 -0.3887 -0.0814
78761SOL    HW154275   3.582   7.399   8.637  0.4908 -1.4926  1.5724
78761SOL    HW254276   3.590   7.507   8.743 -0.5924 -1.2309  1.4019
78762SOL     OW54277   6.779  12.703   6.824  0.3354  0.4035  0.3665
78762SOL    HW154278   6.721  12.779   6.812  3.0084  2.2718 -2.2410
78762SOL    HW254279   6.767  12.651   6.745  0.9398 -0.1468  0.6273
78763SOL     OW54280   6.548   1.274  12.277  0.5995  0.4083 -0.0456
78763SOL    HW154281   6.578   1.354  12.233 -1.4360  0.9023 -0.6227
78763SOL    HW254282   6.610   1.263  12.349  1.6362  1.8332 -0.6554
78764SOL     OW54283   2.474   7.943  11.624 -0.3570  0.1541  0.3134
78764SOL    HW154284   2.400   7.888  11.651 -0.4512  0.3346  0.4265
78764SOL    HW254285   2.434   8.019  11.582 -0.2167 -0.0158 -0.1334
78765SOL     OW54286   9.059   1.430   1.979 -0.3526  0.5334  0.1646
78765SOL    HW154287   9.057   1.435   1.883 -1.2292 -1.9732 -0.0293
78765SOL    HW254288   8.982   1.480   2.007  1.3199  3.5370 -0.1808
78766SOL     OW54289   0.400   2.546   3.903 -0.5768 -0.2145  0.0802
78766SOL    HW154290   0.366   2.614   3.846  1.6456  0.9747  0.0521
78766SOL    HW254291   0.494   2.546   3.886 -0.0510 -0.8952  2.6227
78767SOL     OW54292   2.558   5.975  13.336 -0.0685  0.5516 -0.2484
78767SOL    HW154293   2.579   6.067  13.317  0.7966  0.5251  0.5400
78767SOL    HW254294   2.549   5.972  13.431  1.8899 -0.5704 -0.0451
78768SOL     OW54295   2.730  12.068   0.045  0.4306  0.0336  0.5238
78768SOL    HW154296   2.775  12.075   0.129 -0.4245 -1.0041  1.1044
78768SOL    HW254297   2.792  12.025  -0.013  0.0074 -1.9747  1.4953
78769SOL     OW54298   7.063  11.389  11.730  0.1485  0.7201  0.0658
78769SOL    HW154299   7.130  11.381  11.662  0.0620  1.4167 -0.1091
78769SOL    HW254300   7.003  11.457  11.697 -0.6061  0.1609  0.2521
78770SOL     OW54301  11.108   6.350  10.050 -0.2017 -0.2724  0.3111
78770SOL    HW154302  11.073   6.315  10.131 -0.5353 -0.4567  0.0925
78770SOL    HW254303  11.038   6.335   9.985 -0.6216  1.3354  0.3350
78771SOL     OW54304   3.996   3.180  13.226  0.3468  0.6940  0.0554
78771SOL    HW154305   3.935   3.176  13.153  0.5334  0.8744 -0.1119
78771SOL    HW254306   4.006   3.274  13.243  0.3320  0.6542  0.2882
78772SOL     OW54307   1.539   0.586   5.580 -0.4648 -0.1782 -0.0663
78772SOL    HW154308   1.444   0.593   5.573 -0.3289  2.2704 -0.1906
78772SOL    HW254309   1.570   0.587   5.489 -0.2892 -0.4842 -0.0112
78773SOL     OW54310   5.565   6.424  12.484  0.1565  0.0070  0.0397
78773SOL    HW154311   5.496   6.488  12.505 -0.6984 -0.2165 -1.8437
78773SOL    HW254312   5.517   6.347  12.455  1.1595 -1.8306  2.8948
78774SOL     OW54313   4.900   0.594   3.085  0.5407 -0.3357 -0.1119
78774SOL    HW154314   4.886   0.687   3.070  2.4306 -0.2445 -1.6978
78774SOL    HW254315   4.827   0.551   3.041  0.1964  0.3630 -0.2323
78775SOL     OW54316  12.538   0.861   1.261  0.2803  0.4617 -0.4144
78775SOL    HW154317  12.475   0.897   1.200 -0.6426  0.7712  0.6917
78775SOL    HW254318  12.562   0.934   1.318  1.4752  0.2937 -0.6745
78776SOL     OW54319   0.231  10.056  13.832 -0.2479 -0.2539 -0.0660
78776SOL    HW154320   0.251  10.127  13.770 -1.5647  0.0024 -0.2114
78776SOL    HW254321   0.168  10.094  13.893  2.4664  0.1374  2.7233
78777SOL     OW54322  10.039   7.332   5.677  0.4314 -0.2815 -0.4048
78777SOL    HW154323  10.033   7.250   5.627  2.9252  0.3059 -1.8733
78777SOL    HW254324  10.105   7.315   5.744  0.3543  0.2854 -0.1758
78778SOL     OW54325  13.404   0.178   9.183  0.0050 -0.0767  0.4707
78778SOL    HW154326  13.321   0.162   9.139 -0.4958 -0.9837  1.6872
78778SOL    HW254327  13.457   0.100   9.167  1.1771  1.0200 -1.3953
78779SOL     OW54328  13.231   0.251   8.143 -0.1738 -0.0825  0.5558
78779SOL    HW154329  13.187   0.268   8.226  0.5832  1.9141  0.6182
78779SOL    HW254330  13.175   0.292   8.077 -0.4703 -1.1350  0.1478
78780SOL     OW54331  13.183   6.411   5.889  0.3197  0.0290  0.5439
78780SOL    HW154332  13.271   6.431   5.858  0.5354 -0.2274  0.9796
78780SOL    HW254333  13.126   6.442   5.819  0.7577  0.1323  0.2224
78781SOL     OW54334   2.102  10.264   8.530  0.4482  0.1960  0.0176
78781SOL    HW154335   2.162  10.328   8.492  1.8871 -1.0058  0.1385
78781SOL    HW254336   2.129  10.257   8.621  0.8007 -1.0856 -0.1650
78782SOL     OW54337   5.252  11.836   1.931  0.4654 -0.5848  0.1929
78782SOL    HW154338   5.186  11.867   1.992  0.6760 -0.8231  0.5488
78782SOL    HW254339   5.325  11.896   1.942 -0.2626  0.6424 -1.3403
78783SOL     OW54340   7.971  13.627   0.627 -0.1329  0.4089 -0.6224
78783SOL    HW154341   7.887  13.600   0.665 -0.2973 -1.5575 -2.2164
78783SOL    HW254342   7.952  13.711   0.585 -0.5380  1.4051  1.4250
78784SOL     OW54343   3.745   8.494   0.528 -0.3338  0.0584  0.0979
78784SOL    HW154344   3.666   8.541   0.554 -0.7503 -0.9754  0.7662
78784SOL    HW254345   3.738   8.409   0.571  1.2892  0.0393  0.3897
78785SOL     OW54346  12.934   6.100   9.254 -0.5823  0.7154  0.2452
78785SOL    HW154347  13.023   6.133   9.244 -0.2028  0.3171  2.0458
78785SOL    HW254348  12.878   6.177   9.244 -0.0997  0.8818 -1.4229
78786SOL     OW54349  10.229   0.956   3.823 -0.0418  0.3119  0.0325
78786SOL    HW154350  10.259   1.046   3.806  0.9024 -0.0771 -0.4008
78786SOL    HW254351  10.295   0.920   3.882 -0.5815 -0.0069  0.4512
78787SOL     OW54352   5.703  10.060   9.957 -0.7144  0.6408 -0.0627
78787SOL    HW154353   5.625  10.071   9.902 -0.8980 -0.7595 -0.1060
78787SOL    HW254354   5.680  10.103  10.040 -1.6074  0.1016 -0.0208
78788SOL     OW54355   4.618   9.739  12.384 -0.0292  0.7189 -0.5764
78788SOL    HW154356   4.562   9.676  12.338  0.7510  0.3636 -1.0508
78788SOL    HW254357   4.625   9.813  12.323 -0.7330  1.1690 -0.1276
78789SOL     OW54358   8.292  10.628  13.827 -0.3172  0.1206  0.1198
78789SOL    HW154359   8.361  10.619  13.761 -0.2732 -1.3261  0.3411
78789SOL    HW254360   8.337  10.664  13.903  0.4917 -1.9147  0.6669
78790SOL     OW54361   3.043   5.658   7.793  0.0056  0.1840  0.1313
78790SOL    HW154362   3.009   5.735   7.840 -1.3990 -0.6204  0.4869
78790SOL    HW254363   2.971   5.595   7.796 -0.2189  0.1176 -3.1769
78791SOL     OW54364   7.098  13.551   6.206  0.3412  0.1907 -0.0265
78791SOL    HW154365   7.066  13.640   6.218  0.2871  0.2246 -0.3862
78791SOL    HW254366   7.186  13.562   6.170  1.5715  0.1259  2.7099
78792SOL     OW54367   0.062   2.860   7.196  0.7758  0.1091 -0.3574
78792SOL    HW154368  -0.009   2.815   7.150 -1.1600  1.7602  0.8673
78792SOL    HW254369   0.020   2.901   7.271  3.2360  0.3504  0.9837
78793SOL     OW54370   7.613  12.636  12.078  0.5170  0.0464 -0.7163
78793SOL    HW154371   7.642  12.562  12.131  0.0435  0.9069  0.8236
78793SOL    HW254372   7.691  12.665  12.032  0.8940 -0.8793 -0.6810
78794SOL     OW54373   8.184   9.097   0.037 -0.2876  1.1697 -0.2293
78794SOL    HW154374   8.099   9.142   0.034 -0.0233  1.6986  0.1687
78794SOL    HW254375   8.174   9.023  -0.023 -1.4229  0.5532  0.6713
78795SOL     OW54376   6.110   8.790   1.646 -0.2520  0.4283  0.6159
78795SOL    HW154377   6.206   8.794   1.641 -0.0894 -2.4891 -2.6152
78795SOL    HW254378   6.081   8.868   1.597  0.5873 -0.0223 -0.6601
78796SOL     OW54379  10.762  12.841  13.427 -0.0205 -1.1812 -0.4616
78796SOL    HW154380  10.848  12.839  13.384  0.0626 -1.3457 -0.2894
78796SOL    HW254381  10.702  12.806  13.362 -0.2739  0.6515 -1.2833
78797SOL     OW54382  12.968   8.023   2.297 -0.6881  0.1455  0.2133
78797SOL    HW154383  12.886   7.992   2.257 -1.2285 -0.5462  1.7997
78797SOL    HW254384  13.029   7.950   2.286 -1.3753 -0.7725  2.1987
78798SOL     OW54385   2.218  12.087   3.785 -0.6767  0.2866  0.2486
78798SOL    HW154386   2.187  12.161   3.733  0.4557  0.0184 -0.8368
78798SOL    HW254387   2.274  12.127   3.852 -1.5491  0.5606  0.8339
78799SOL     OW54388   4.712  13.476  11.052 -0.2609 -0.3218 -0.4207
78799SOL    HW154389   4.746  13.540  11.115 -1.6371 -0.6297  0.6781
78799SOL    HW254390   4.657  13.418  11.104  2.2662 -3.5552 -0.9909
78800SOL     OW54391   5.415   7.894  13.899  0.0416  0.3252 -0.1813
78800SOL    HW154392   5.329   7.899  13.942  1.1010  0.8641  2.0328
78800SOL    HW254393   5.447   7.806  13.922  0.8482  0.8220  0.6470
78801SOL     OW54394   4.059   1.315  13.101 -0.6108  0.2489 -0.1046
78801SOL    HW154395   4.094   1.345  13.185  1.2715  0.2242 -0.8488
78801SOL    HW254396   4.059   1.219  13.108 -0.5509  0.2498 -0.0917
78802SOL     OW54397  13.898   8.956   9.767  0.2198  0.2888 -0.2113
78802SOL    HW154398  13.877   8.961   9.860 -0.2676 -1.2579 -0.2107
78802SOL    HW254399  13.836   9.015   9.724  0.0038  0.4858  0.3714
78803SOL     OW54400  12.278   8.998   5.762 -0.1364 -0.0178  0.1383
78803SOL    HW154401  12.212   8.949   5.713 -0.6676  0.3577  0.4613
78803SOL    HW254402  12.358   8.947   5.753 -0.2267  0.0391 -1.1059
78804SOL     OW54403   5.195   0.036  12.706  0.0021 -0.2143 -0.4790
78804SOL    HW154404   5.282   0.000  12.722 -0.4527 -0.6769  1.1589
78804SOL    HW254405   5.143  -0.039  12.677  0.1126  0.0390 -1.3481
78805SOL     OW54406  12.323   3.117  10.480 -0.3386  0.4747  0.0463
78805SOL    HW154407  12.305   3.120  10.386  1.1780 -2.2973 -0.4326
78805SOL    HW254408  12.407   3.161  10.490  0.8249 -1.5210 -0.3888
78806SOL     OW54409  11.830   8.784  13.478  0.6953  0.1391  0.3639
78806SOL    HW154410  11.871   8.726  13.543 -1.0338  0.2634  1.6299
78806SOL    HW254411  11.745   8.743  13.460  0.3195  1.1866 -0.2997
78807SOL     OW54412  10.116  12.927   4.978 -0.1602 -0.0186 -0.0791
78807SOL    HW154413  10.149  12.849   4.935  3.5140  0.6268  1.1963
78807SOL    HW254414  10.127  12.997   4.913  0.1246  0.0466  0.0383
78808SOL     OW54415  13.660   1.916   8.062  0.2583 -0.4275  0.1465
78808SOL    HW154416  13.635   1.878   8.147  1.2930 -0.4688  0.4539
78808SOL    HW254417  13.748   1.951   8.077  0.4863 -0.5000 -0.9334
78809SOL     OW54418  10.025   3.609   3.249 -0.8545  0.0759  0.0510
78809SOL    HW154419   9.980   3.559   3.317  1.1824  0.3122  1.6788
78809SOL    HW254420  10.065   3.543   3.193  0.5630 -0.1866  1.3096
78810SOL     OW54421   9.275   4.188  12.668  0.2688  0.2125  0.0791
78810SOL    HW154422   9.293   4.161  12.758 -1.3647  1.4016  0.8049
78810SOL    HW254423   9.252   4.281  12.674  1.7500  0.7801 -1.8098
78811SOL     OW54424   7.165  11.082   4.125 -0.1827 -0.0999 -0.6853
78811SOL    HW154425   7.174  10.993   4.090  0.1383  0.0126 -0.8927
78811SOL    HW254426   7.212  11.081   4.208 -1.1297 -0.4287 -0.1361
78812SOL     OW54427  11.265   6.253   2.709 -0.2673 -0.4340  0.0500
78812SOL    HW154428  11.228   6.260   2.621 -0.1927 -0.0463  0.0464
78812SOL    HW254429  11.209   6.310   2.763  1.4757  1.7928 -0.3361
78813SOL     OW54430   8.075   0.667  10.938  0.1055  0.4659  0.1372
78813SOL    HW154431   8.014   0.596  10.917  1.5378 -0.5530 -0.7210
78813SOL    HW254432   8.138   0.628  10.999 -0.0342  1.4889  0.9770
78814SOL     OW54433  11.788   9.727   9.346 -0.0701  0.3416  0.5178
78814SOL    HW154434  11.774   9.773   9.429  1.5040  2.5663 -0.3823
78814SOL    HW254435  11.730   9.772   9.284  0.3842  0.1260 -0.0646
78815SOL     OW54436  13.538   9.929  11.704 -0.0818 -0.2002 -0.5044
78815SOL    HW154437  13.503   9.969  11.784  1.1854  2.1855 -1.0478
78815SOL    HW254438  13.508   9.987  11.633  2.0294 -0.0187 -1.3142
78816SOL     OW54439  14.144   8.379   7.166 -0.3277 -0.0657  0.1120
78816SOL    HW154440  14.170   8.423   7.248 -0.4682  0.0612  0.0897
78816SOL    HW254441  14.159   8.286   7.182 -0.2353 -0.0286  0.2381
78817SOL     OW54442   1.554   9.565  13.485 -0.1007  0.2564 -0.4126
78817SOL    HW154443   1.495   9.613  13.543 -0.7111 -1.0750  0.1096
78817SOL    HW254444   1.590   9.632  13.427  0.5825  1.6562  1.5214
78818SOL     OW54445  12.516   3.647  13.702 -0.0427  0.3968 -0.3183
78818SOL    HW154446  12.556   3.733  13.709  0.5860  0.2449 -1.7533
78818SOL    HW254447  12.494   3.638  13.609 -0.5052 -0.8057 -0.1084
78819SOL     OW54448  14.094   8.690   1.162  0.1435 -0.6586  0.1962
78819SOL    HW154449  14.006   8.726   1.172  0.4225 -0.4588  2.3654
78819SOL    HW254450  14.096   8.657   1.072 -1.0982  2.0796 -0.9622
78820SOL     OW54451   0.196  13.080  13.208 -0.0327  0.0374  0.0448
78820SOL    HW154452   0.161  13.117  13.290  2.4890  0.1848  1.1522
78820SOL    HW254453   0.252  13.008  13.236  0.5696 -0.1702 -1.5879
78821SOL     OW54454   5.497   7.116  10.266  0.2275  0.2717  0.4305
78821SOL    HW154455   5.589   7.128  10.246 -0.0223 -0.8299 -1.6629
78821SOL    HW254456   5.456   7.099  10.181 -1.8480  0.3785  1.3494
78822SOL     OW54457  13.276   7.528   3.174  0.1909 -0.3428  0.3642
78822SOL    HW154458  13.335   7.522   3.099  0.2057 -2.1569  0.4582
78822SOL    HW254459  13.256   7.621   3.183  2.1085  0.1834 -0.3781
78823SOL     OW54460  10.894   3.986  10.880 -0.0162  0.1842  0.8923
78823SOL    HW154461  10.906   3.904  10.926  2.1585 -0.5934 -0.8913
78823SOL    HW254462  10.895   3.962  10.787 -1.5350  1.9902  0.3212
78824SOL     OW54463  10.359   8.188  11.879  0.2508  0.0771  0.0323
78824SOL    HW154464  10.298   8.114  11.874  1.9990 -1.4030 -0.3624
78824SOL    HW254465  10.313   8.254  11.930 -1.1201 -1.5443  0.9611
78825SOL     OW54466   9.683  13.682  13.043 -0.2104 -0.4517 -0.2238
78825SOL    HW154467   9.649  13.610  12.990 -1.3166 -0.0696 -0.0570
78825SOL    HW254468   9.613  13.748  13.041 -0.0486 -0.2066  1.2649
78826SOL     OW54469  13.231   7.131   8.134  0.3199 -0.1379  0.1579
78826SOL    HW154470  13.226   7.051   8.082  2.5746 -0.4000  0.2517
78826SOL    HW254471  13.324   7.155   8.132 -0.0842  1.7030  1.2957
78827SOL     OW54472   0.785  11.580  10.619  0.0707  0.3067 -0.2914
78827SOL    HW154473   0.873  11.543  10.610 -0.1997 -0.7830  1.1273
78827SOL    HW254474   0.727  11.515  10.579 -0.0101  1.7846 -2.7396
78828SOL     OW54475   1.299   0.281   8.982  0.1243 -0.3789  0.3977
78828SOL    HW154476   1.222   0.291   9.039  0.6240  0.4341  0.9428
78828SOL    HW254477   1.266   0.300   8.895 -0.6283 -1.5323  0.4044
78829SOL     OW54478   1.343   3.915   2.926  0.1622  0.1669 -0.1051
78829SOL    HW154479   1.422   3.934   2.875 -0.5540  0.0200 -1.3043
78829SOL    HW254480   1.285   3.989   2.908 -0.6856 -0.6380 -0.7131
78830SOL     OW54481  13.114   3.306   1.013 -0.5150 -0.4844 -0.5969
78830SOL    HW154482  13.048   3.366   0.979  0.2562  0.8715  0.2251
78830SOL    HW254483  13.186   3.362   1.041 -0.3501 -1.6465  1.5363
78831SOL     OW54484  10.788   7.833   4.603  0.3035  0.2510 -0.0202
78831SOL    HW154485  10.795   7.769   4.674  2.0502 -0.4081 -0.7256
78831SOL    HW254486  10.839   7.908   4.634 -1.6076  1.2848  0.7352
78832SOL     OW54487   8.796   6.818  12.147 -0.0551  0.0376 -0.1223
78832SOL    HW154488   8.707   6.809  12.182 -1.0284  0.1451 -2.4377
78832SOL    HW254489   8.838   6.734  12.166 -0.0811  0.4881  2.3232
78833SOL     OW54490  13.621   2.229   1.706  0.0701  0.3513  0.1038
78833SOL    HW154491  13.535   2.188   1.702 -0.1735  0.9270 -0.6424
78833SOL    HW254492  13.682   2.157   1.687 -0.3884  0.4103 -1.8238
78834SOL     OW54493  11.587   7.110   4.828  0.3362  0.0913 -0.1429
78834SOL    HW154494  11.617   7.086   4.740  0.2951 -2.8317  0.5453
78834SOL    HW254495  11.495   7.084   4.830  0.8604 -1.8609  1.3504
78835SOL     OW54496   2.432   7.878   9.943 -0.2771  0.4064  0.3127
78835SOL    HW154497   2.378   7.814   9.988  2.6387 -2.7365 -0.2934
78835SOL    HW254498   2.408   7.870   9.851  1.0442 -0.9610  0.0487
78836SOL     OW54499  13.204  12.906   3.773  0.0603 -0.4602 -0.3524
78836SOL    HW154500  13.136  12.896   3.707 -0.2564 -0.9131  0.0353
78836SOL    HW254501  13.286  12.898   3.725  0.1854  5.4819 -1.9054
78837SOL     OW54502   6.131   6.828   9.156  0.1908  0.3939 -0.7537
78837SOL    HW154503   6.090   6.741   9.159  3.3349 -1.2207 -0.1199
78837SOL    HW254504   6.106   6.869   9.238  1.8611 -1.6547  0.9121
78838SOL     OW54505  12.469   9.545   0.873 -0.2908  0.1998  0.0913
78838SOL    HW154506  12.421   9.624   0.848  0.8765  0.6617 -0.7669
78838SOL    HW254507  12.442   9.480   0.808  0.8147  0.6878 -0.8969
78839SOL     OW54508   3.405  13.820   8.791  0.0737 -0.3100  0.8208
78839SOL    HW154509   3.493  13.844   8.819  0.0924 -0.6631  1.0651
78839SOL    HW254510   3.378  13.892   8.734  1.5510 -1.4771 -1.4557
78840SOL     OW54511   6.570   5.643  13.571  0.4930  0.2552  0.2089
78840SOL    HW154512   6.616   5.725  13.553  1.6816 -0.5046 -0.3642
78840SOL    HW254513   6.639   5.577  13.573 -0.5950 -0.9950 -1.0648
78841SOL     OW54514   1.243   9.895  12.285 -0.1677  0.4897  0.7270
78841SOL    HW154515   1.306   9.824  12.293  0.7140  1.2638  0.9326
78841SOL    HW254516   1.295   9.975  12.297 -1.0743  1.1839  0.2383
78842SOL     OW54517   3.459   3.188  11.882 -0.5617 -0.4426  0.8678
78842SOL    HW154518   3.420   3.275  11.877 -2.1249 -0.9612  2.6172
78842SOL    HW254519   3.410   3.137  11.818 -0.4667 -0.3031  0.6843
78843SOL     OW54520   3.009   8.312   3.279 -0.1807 -0.8059  0.1371
78843SOL    HW154521   3.069   8.286   3.348 -0.0611 -1.2686 -0.1368
78843SOL    HW254522   3.062   8.311   3.199  0.0455  1.0719  0.2101
78844SOL     OW54523  11.053   6.201   1.088 -0.1199  0.0422  0.1212
78844SOL    HW154524  11.050   6.107   1.071 -0.1166 -0.0769  0.7765
78844SOL    HW254525  11.042   6.241   1.001  0.6351 -0.5607 -0.2666
78845SOL     OW54526   5.385   4.306   1.414  0.3462 -0.4526 -0.5372
78845SOL    HW154527   5.465   4.353   1.437 -0.0509 -0.2613  0.5207
78845SOL    HW254528   5.315   4.370   1.429 -0.0458 -0.7532 -1.0462
78846SOL     OW54529   2.618   0.491   3.256 -0.5017  0.2726 -0.2655
78846SOL    HW154530   2.629   0.585   3.241 -1.4926  0.5794  0.7926
78846SOL    HW254531   2.540   0.468   3.205 -0.1019 -0.0395 -0.7404
78847SOL     OW54532   2.252   9.530   0.081  0.0613 -0.0085 -0.0196
78847SOL    HW154533   2.264   9.613   0.036 -2.7325  0.4366 -0.0832
78847SOL    HW254534   2.236   9.467   0.011 -0.0603 -0.1645  0.1471
78848SOL     OW54535   0.486   0.856   0.519  0.1033 -0.3054  0.1092
78848SOL    HW154536   0.503   0.935   0.570 -0.8483 -0.9668  1.5140
78848SOL    HW254537   0.492   0.785   0.583 -2.2072 -1.0722 -0.4432
78849SOL     OW54538   7.476  12.879   7.030 -0.1070  0.0206 -0.1443
78849SOL    HW154539   7.455  12.957   6.979 -1.2777 -0.7893 -0.9366
78849SOL    HW254540   7.561  12.851   6.996  0.5514  1.1967  0.4763
78850SOL     OW54541   2.622   2.828   4.556 -0.6579 -0.3934 -0.3608
78850SOL    HW154542   2.634   2.818   4.462  0.8328 -0.4262 -0.1812
78850SOL    HW254543   2.572   2.750   4.582 -1.9080  0.0761 -1.2415
78851SOL     OW54544   5.339  11.191  12.953  0.2265  0.8812  0.2321
78851SOL    HW154545   5.305  11.106  12.980 -1.4497  1.4311 -0.0081
78851SOL    HW254546   5.434  11.183  12.962  0.1314 -1.0760 -0.0250
78852SOL     OW54547   8.726   6.765   4.598  0.0343  0.4118 -0.2929
78852SOL    HW154548   8.778   6.846   4.603  1.8398 -0.7039  0.0456
78852SOL    HW254549   8.706   6.743   4.689 -1.1226  0.8578 -0.4235
78853SOL     OW54550   0.018   2.182  10.191  0.3345 -0.1133 -0.2194
78853SOL    HW154551   0.065   2.259  10.224  1.6012 -0.7258 -0.5516
78853SOL    HW254552   0.063   2.159  10.110 -0.5127 -0.7582 -0.5232
78854SOL     OW54553   6.362   2.485   8.577 -1.0161 -0.0584  0.1955
78854SOL    HW154554   6.393   2.441   8.657 -0.3181 -2.8505 -1.4520
78854SOL    HW254555   6.428   2.552   8.559 -0.0822 -0.7645  0.8905
78855SOL     OW54556  13.437  13.388   1.846  0.0351 -0.0024  0.2121
78855SOL    HW154557  13.483  13.416   1.925 -0.7040 -0.0055  0.6508
78855SOL    HW254558  13.376  13.458   1.826  1.2313  0.6930 -1.2345
78856SOL     OW54559   2.101   6.603  12.299  0.1580 -0.1554 -0.9754
78856SOL    HW154560   2.084   6.648  12.382 -1.1371  0.5247 -1.5777
78856SOL    HW254561   2.096   6.510  12.321  3.4765 -0.1485  0.4152
78857SOL     OW54562   4.071  11.342   1.610 -0.4723 -0.1068  0.1512
78857SOL    HW154563   4.018  11.373   1.536  0.5265  0.7868 -0.2327
78857SOL    HW254564   4.091  11.251   1.589 -0.7871 -0.0643 -0.3422
78858SOL     OW54565   5.543   1.863  10.072  0.6426 -0.2651 -0.1922
78858SOL    HW154566   5.520   1.956  10.074 -0.3417 -0.2381 -4.0674
78858SOL    HW254567   5.459   1.818  10.058  1.3239 -1.5063 -0.5059
78859SOL     OW54568   6.223   2.046   9.816  0.0775  0.8605  0.4347
78859SOL    HW154569   6.219   2.089   9.901 -0.7015  1.6252  0.0282
78859SOL    HW254570   6.158   2.092   9.763  2.1264  1.9706 -1.2818
78860SOL     OW54571   9.825   5.590   1.870  0.0994 -0.0489  0.2838
78860SOL    HW154572   9.804   5.570   1.779  0.5167 -0.6462  0.3122
78860SOL    HW254573   9.901   5.648   1.864  0.7835 -0.9219  0.2630
78861SOL     OW54574  13.707   0.647   9.155 -0.2849  0.1678 -0.0227
78861SOL    HW154575  13.792   0.685   9.176 -0.8027  1.8095 -0.6781
78861SOL    HW254576  13.644   0.712   9.187 -1.1848  0.7775 -2.8189
78862SOL     OW54577   8.149   2.135   6.729 -0.0346 -0.0939 -0.1541
78862SOL    HW154578   8.099   2.182   6.795 -0.6019 -0.4707 -0.3064
78862SOL    HW254579   8.212   2.082   6.779 -1.6029 -1.7223  0.2223
78863SOL     OW54580  11.911   9.179   0.996  0.6178 -0.2222 -0.4859
78863SOL    HW154581  11.971   9.168   1.070 -0.7103 -0.4104  0.6059
78863SOL    HW254582  11.863   9.096   0.992  0.1955  0.0494 -1.1237
78864SOL     OW54583   8.206  14.067  13.220  0.0311  0.0571 -0.0303
78864SOL    HW154584   8.201  14.163  13.224  0.9038  0.1536 -0.9040
78864SOL    HW254585   8.219  14.041  13.311  0.3056  0.8141  0.1605
78865SOL     OW54586   3.397   9.434   4.643 -0.4355 -0.7100  0.0476
78865SOL    HW154587   3.377   9.468   4.556  1.6046 -1.5476 -0.8194
78865SOL    HW254588   3.397   9.512   4.699 -2.8734 -0.2909 -0.4078
78866SOL     OW54589   1.035   1.935   2.167 -0.2808  0.3025 -0.2288
78866SOL    HW154590   1.027   1.900   2.255 -0.4101 -1.0208 -0.7500
78866SOL    HW254591   1.130   1.941   2.153 -0.2135 -1.3789 -0.6980
78867SOL     OW54592   2.864   0.813   2.614 -0.3544  0.4277  0.4146
78867SOL    HW154593   2.837   0.870   2.686 -0.2975 -0.5445  1.2313
78867SOL    HW254594   2.956   0.792   2.634 -0.9559 -1.6132  1.3019
78868SOL     OW54595  10.284   5.253  10.193 -0.3316 -0.0436 -0.5084
78868SOL    HW154596  10.323   5.222  10.111  0.7513 -1.1928  0.3978
78868SOL    HW254597  10.199   5.210  10.197 -0.4341  0.0939 -1.0640
78869SOL     OW54598   2.795  10.335  12.133  0.4281 -0.5005 -0.5218
78869SOL    HW154599   2.869  10.384  12.097 -0.1265 -0.1973 -1.2826
78869SOL    HW254600   2.769  10.384  12.211  0.9076 -0.5040 -0.3589
78870SOL     OW54601   7.161   1.964   7.882  0.7996 -0.2800  0.1340
78870SOL    HW154602   7.252   1.950   7.909  0.8161 -1.4727 -0.4856
78870SOL    HW254603   7.165   1.974   7.787  0.3300  0.2099  0.1587
78871SOL     OW54604   4.010  11.109   0.423  0.5899  0.6862 -0.3450
78871SOL    HW154605   3.946  11.177   0.406  0.8270  0.6082 -1.6572
78871SOL    HW254606   3.978  11.033   0.374  1.8548  0.7623 -1.3428
78872SOL     OW54607   6.802  12.973   7.681  0.2044  0.3936  0.3406
78872SOL    HW154608   6.800  13.018   7.765  0.3505  0.8339  0.1155
78872SOL    HW254609   6.794  12.880   7.702  2.1520  0.3316  0.9777
78873SOL     OW54610  12.242   6.288  11.738 -0.2218  0.0819  0.3711
78873SOL    HW154611  12.156   6.314  11.771 -0.1124  0.2217  0.5462
78873SOL    HW254612  12.223   6.215  11.679 -0.5760  0.8916 -0.5325
78874SOL     OW54613   6.280   8.642   8.604  0.2715 -0.3183  0.1951
78874SOL    HW154614   6.226   8.678   8.534  1.0290  0.3656 -0.0632
78874SOL    HW254615   6.296   8.716   8.662  2.0786 -0.0984 -0.4839
78875SOL     OW54616   4.874  11.186   9.436  0.8244 -0.3460 -0.3716
78875SOL    HW154617   4.955  11.209   9.391  0.8465  0.1650 -0.0787
78875SOL    HW254618   4.895  11.196   9.529  1.0715 -2.2917 -0.1727
78876SOL     OW54619   8.632  11.519   8.352  0.1188 -0.0364 -0.0596
78876SOL    HW154620   8.650  11.457   8.422 -1.1374 -0.8122 -0.3785
78876SOL    HW254621   8.545  11.554   8.373  0.1060  0.3658 -0.7579
78877SOL     OW54622   9.254  10.935   0.403  0.0875 -0.0414  0.1972
78877SOL    HW154623   9.342  10.908   0.379  0.7289  0.3972  1.9709
78877SOL    HW254624   9.262  10.972   0.491 -2.2292 -2.2216  1.4905
78878SOL     OW54625  12.663   7.062   7.697 -0.4146 -0.1888 -0.4301
78878SOL    HW154626  12.676   7.118   7.621 -0.6643 -1.3718 -1.3847
78878SOL    HW254627  12.583   7.013   7.677  0.2114 -1.4362 -0.0094
78879SOL     OW54628   0.032   7.615   9.787 -0.0241 -0.0706  0.1895
78879SOL    HW154629  -0.035   7.662   9.835 -0.9169 -0.9776 -0.1476
78879SOL    HW254630   0.098   7.682   9.766 -0.2786  0.6021  1.4567
78880SOL     OW54631   8.035  10.216   5.265 -0.3420  0.2475 -0.8333
78880SOL    HW154632   8.003  10.255   5.184 -3.9464 -2.7115 -1.0872
78880SOL    HW254633   7.962  10.225   5.326  1.1890 -0.2641  1.1743
78881SOL     OW54634  12.939  11.125  11.537 -0.4727  0.0653  0.2506
78881SOL    HW154635  12.873  11.068  11.575 -0.7028  0.7175  0.8341
78881SOL    HW254636  12.897  11.210  11.529 -0.2679  0.0769 -1.0067
78882SOL     OW54637   3.948   0.220   6.774 -0.2910  0.2809  0.3194
78882SOL    HW154638   4.017   0.168   6.816  1.6933  0.7315 -2.1271
78882SOL    HW254639   3.884   0.156   6.744  0.5670 -0.4732  0.0519
78883SOL     OW54640   7.147  10.834   1.157 -0.0259 -0.2007 -0.0894
78883SOL    HW154641   7.234  10.812   1.191 -0.6914 -0.8991  1.2409
78883SOL    HW254642   7.114  10.752   1.120 -0.0190  0.1364 -0.8791
78884SOL     OW54643  10.998   1.747  12.300 -0.2013 -0.6412 -0.5879
78884SOL    HW154644  10.950   1.665  12.287 -0.5635 -0.3193 -1.3302
78884SOL    HW254645  11.090   1.721  12.297 -0.3024 -0.9362 -1.4779
78885SOL     OW54646   4.817   7.699  10.544 -0.0284 -0.4657  0.2463
78885SOL    HW154647   4.803   7.740  10.458 -1.3176 -1.9108 -0.2901
78885SOL    HW254648   4.853   7.769  10.598  0.2411  0.6605 -1.2990
78886SOL     OW54649   0.205   4.217   2.861 -0.4291 -0.2305 -0.0393
78886SOL    HW154650   0.273   4.187   2.801 -0.8951 -0.4823 -0.4444
78886SOL    HW254651   0.244   4.208   2.948 -0.2172 -1.0929 -0.2182
78887SOL     OW54652   8.813  11.933   6.163  0.3420  0.3072  0.3903
78887SOL    HW154653   8.752  11.917   6.234 -0.5368 -0.5462 -0.5270
78887SOL    HW254654   8.814  12.028   6.154 -0.4399  0.3612  0.7695
78888SOL     OW54655   1.544   2.105   1.671 -0.3213 -0.1155  0.0785
78888SOL    HW154656   1.481   2.080   1.604 -2.9082  1.3761  1.7859
78888SOL    HW254657   1.531   2.199   1.682  0.1440 -0.2760  2.5159
78889SOL     OW54658  11.863   5.488  10.720 -0.4584  0.1429  0.0487
78889SOL    HW154659  11.903   5.408  10.753  2.4135  1.0968 -0.8115
78889SOL    HW254660  11.922   5.558  10.749  0.7599  1.3121 -4.4616
78890SOL     OW54661   6.794   9.762   9.311 -0.5284  0.8869 -0.0635
78890SOL    HW154662   6.798   9.766   9.215  2.0850  2.4105 -0.0072
78890SOL    HW254663   6.875   9.716   9.336 -1.9497 -0.9558  1.4206
78891SOL     OW54664   5.067  13.926  10.130  0.2603 -0.2559  0.1136
78891SOL    HW154665   5.026  13.928  10.043 -0.1146  0.8749  0.2975
78891SOL    HW254666   4.993  13.933  10.191  0.6490  0.9468  0.4689
78892SOL     OW54667   4.010   7.676   7.094  0.2093  0.1224 -0.1545
78892SOL    HW154668   3.984   7.587   7.120 -1.6498  0.5792 -0.3405
78892SOL    HW254669   3.969   7.688   7.009  1.1246  0.8994 -0.5024
78893SOL     OW54670   0.679   8.426   0.443  0.1725 -0.1565 -0.0088
78893SOL    HW154671   0.652   8.506   0.488  1.0717 -0.1000  0.4577
78893SOL    HW254672   0.699   8.365   0.514  0.3549 -0.4949 -0.3519
78894SOL     OW54673   0.485   5.452   9.609  0.1938 -0.0409 -0.3484
78894SOL    HW154674   0.429   5.387   9.652 -0.5437 -1.2845 -3.0221
78894SOL    HW254675   0.572   5.411   9.608  0.4044  0.3524  0.6246
78895SOL     OW54676   1.233  10.808   7.805 -0.0797 -0.0307  0.3641
78895SOL    HW154677   1.292  10.864   7.754 -0.1180 -0.7985 -0.5582
78895SOL    HW254678   1.161  10.787   7.744  0.1208 -1.3711  0.5507
78896SOL     OW54679  10.124  13.121  10.320  0.2378 -0.0438 -0.2114
78896SOL    HW154680  10.161  13.095  10.235 -1.7589 -2.2265 -0.5213
78896SOL    HW254681  10.044  13.169  10.298  1.4449  2.4271  0.4717
78897SOL     OW54682  10.303  11.511  12.722  0.2966  0.2665  0.0379
78897SOL    HW154683  10.395  11.532  12.734  0.6036 -1.3143  0.7183
78897SOL    HW254684  10.257  11.565  12.787  0.8406  0.3074  0.3920
78898SOL     OW54685  11.877   7.967   4.738  0.6028 -0.1296  0.3910
78898SOL    HW154686  11.843   7.918   4.813 -0.3797  0.7450  0.5351
78898SOL    HW254687  11.828   8.049   4.738  0.1545 -0.3547 -1.5747
78899SOL     OW54688   2.375   6.454   7.756  0.2156 -0.4530 -0.3983
78899SOL    HW154689   2.370   6.536   7.806  1.4795 -1.5475  1.6585
78899SOL    HW254690   2.450   6.466   7.698  0.5348 -0.2087  0.0552
78900SOL     OW54691   6.028   7.916  14.098  0.5370  0.2755  0.4815
78900SOL    HW154692   6.058   7.942  14.011  0.6136 -0.0434  0.4132
78900SOL    HW254693   6.107   7.887  14.143  0.2947 -0.8886  0.1905
78901SOL     OW54694   3.826  14.051  11.318 -0.5447  0.2525  0.0599
78901SOL    HW154695   3.732  14.036  11.312 -0.8008  0.0373  3.1079
78901SOL    HW254696   3.865  13.978  11.271 -1.9066 -0.4722  0.0020
78902SOL     OW54697   9.200   1.083   6.190  0.3225 -0.1653  0.0781
78902SOL    HW154698   9.150   1.109   6.112  2.2134  3.2767 -0.1903
78902SOL    HW254699   9.283   1.049   6.155 -0.1924 -2.0730  0.5968
78903SOL     OW54700  13.097  14.111   2.442 -0.1481  0.3550 -0.8624
78903SOL    HW154701  13.046  14.116   2.361 -0.0825  2.1324 -0.8314
78903SOL    HW254702  13.126  14.020   2.446 -1.1691 -0.0696 -2.2015
78904SOL     OW54703   8.864   0.363  10.383 -0.4958  0.4794  0.0372
78904SOL    HW154704   8.880   0.378  10.289  2.9385  0.7628  0.5273
78904SOL    HW254705   8.777   0.399  10.398 -1.9528 -1.1450 -3.3310
78905SOL     OW54706  12.768   2.434  10.479 -1.4208 -0.0489 -0.0272
78905SOL    HW154707  12.784   2.423  10.385 -2.5189  3.1880 -0.7125
78905SOL    HW254708  12.674   2.422  10.489 -1.3925  0.1826  0.5616
78906SOL     OW54709   1.232   1.056  11.489  0.0183  0.3387 -0.4501
78906SOL    HW154710   1.234   1.046  11.394 -0.5435  2.4622 -0.7467
78906SOL    HW254711   1.296   1.125  11.507  0.3332 -0.2402  0.7708
78907SOL     OW54712  10.126  13.345   7.358 -0.1505  0.4278 -0.1675
78907SOL    HW154713  10.075  13.265   7.368 -1.1782  1.0317 -0.4541
78907SOL    HW254714  10.115  13.391   7.441 -1.1236  1.1449 -0.6769
78908SOL     OW54715   5.925  12.001   3.361  0.2694  0.0733 -0.1961
78908SOL    HW154716   5.907  12.078   3.308 -2.8522  1.0672  2.0158
78908SOL    HW254717   6.009  12.019   3.402 -0.2097  2.1520 -0.0446
78909SOL     OW54718   6.168   5.634  12.426  0.1044  0.2068 -0.1664
78909SOL    HW154719   6.162   5.546  12.389  2.5475  0.2370 -0.8047
78909SOL    HW254720   6.162   5.692  12.349 -1.4990  0.6410  0.2480
78910SOL     OW54721  11.806  11.091   3.723 -0.1565  0.1741 -0.0443
78910SOL    HW154722  11.735  11.122   3.666 -0.4953 -0.4820  0.0138
78910SOL    HW254723  11.885  11.101   3.670 -0.3126  0.6994 -0.1911
78911SOL     OW54724   2.938  10.027   4.553  0.6770  0.5875 -0.2996
78911SOL    HW154725   2.971  10.103   4.601  0.8335 -1.5721  3.3785
78911SOL    HW254726   3.012   9.998   4.500  1.8534  0.8907  1.1137
78912SOL     OW54727  11.891   2.020   3.860 -0.5278 -0.6687 -0.4482
78912SOL    HW154728  11.854   2.074   3.930  0.8224 -0.3373  0.0476
78912SOL    HW254729  11.869   2.067   3.780 -0.2754  0.0683 -0.0942
78913SOL     OW54730   2.147   0.876   7.249  0.4435  0.3266 -0.6439
78913SOL    HW154731   2.208   0.845   7.317 -0.3311  0.5970  0.2051
78913SOL    HW254732   2.091   0.800   7.231 -0.6023  0.7990  0.4689
78914SOL     OW54733   6.323   8.147   9.917  0.5996  0.8076 -0.0655
78914SOL    HW154734   6.259   8.088   9.957  0.3326  1.0520 -0.1347
78914SOL    HW254735   6.353   8.203   9.989  1.0010  0.4573  0.0428
78915SOL     OW54736   6.161   4.126  11.783 -0.7776 -0.5904  0.2008
78915SOL    HW154737   6.095   4.125  11.853  0.7300 -0.7738  1.6968
78915SOL    HW254738   6.217   4.051  11.802 -0.4971 -0.8244 -1.4122
78916SOL     OW54739  10.060   8.078   7.270  0.3537  0.0954 -0.2661
78916SOL    HW154740  10.037   8.132   7.195 -2.8320 -0.4189  0.2239
78916SOL    HW254741  10.100   8.139   7.333 -0.7540  1.3578 -0.7507
78917SOL     OW54742   3.382   8.032   0.690 -0.0308 -0.4897  0.0822
78917SOL    HW154743   3.424   8.116   0.707 -1.1043  0.1326 -0.2214
78917SOL    HW254744   3.451   7.967   0.700  1.0468  0.5143 -0.6527
78918SOL     OW54745   6.680   1.135   0.323 -0.0000 -0.5259 -0.2510
78918SOL    HW154746   6.709   1.046   0.304  0.1633 -0.9074  1.5990
78918SOL    HW254747   6.705   1.185   0.245 -0.6551 -2.1928 -1.5968
78919SOL     OW54748   8.039   3.509   1.702  0.6887  0.5364 -0.1767
78919SOL    HW154749   8.134   3.497   1.692  0.7257  0.2771  0.3935
78919SOL    HW254750   8.031   3.581   1.765  0.4840  1.7990 -1.6006
78920SOL     OW54751   6.098   7.024   0.194  0.2520  0.3847 -0.4412
78920SOL    HW154752   6.113   7.005   0.101 -1.7649 -1.5333 -0.4808
78920SOL    HW254753   6.015   7.071   0.196  0.7376  1.2352  0.3481
78921SOL     OW54754   1.186   0.896  10.245  0.4246 -0.6299 -0.6824
78921SOL    HW154755   1.198   0.981  10.286 -1.3396 -0.6074 -0.1356
78921SOL    HW254756   1.115   0.909  10.182  1.6563 -1.1763 -2.2463
78922SOL     OW54757  13.280  11.389   2.997 -0.3817  0.1028 -0.5400
78922SOL    HW154758  13.365  11.402   2.955 -0.3704 -0.9872 -0.8707
78922SOL    HW254759  13.225  11.351   2.928 -1.1605  0.8256 -0.3381
78923SOL     OW54760  11.221   1.628   3.866 -0.2430  0.8037 -0.1741
78923SOL    HW154761  11.202   1.625   3.960  0.8224 -1.6235  0.0532
78923SOL    HW254762  11.247   1.538   3.844 -0.8843  1.1943 -2.9024
78924SOL     OW54763   0.880   9.338   3.688  0.0676  0.2688  0.2812
78924SOL    HW154764   0.971   9.338   3.658  0.4398 -0.9298  1.3150
78924SOL    HW254765   0.880   9.393   3.766  0.1768 -0.6931  0.9756
78925SOL     OW54766   6.992   0.123   0.340 -0.1622  0.3383 -0.1631
78925SOL    HW154767   7.001   0.172   0.258 -0.5656  0.5119 -0.1037
78925SOL    HW254768   7.039   0.175   0.405 -1.1102  0.9716  0.0331
78926SOL     OW54769   9.934   9.251   8.321 -0.0899  0.4944  0.1458
78926SOL    HW154770  10.001   9.236   8.254 -0.9004  1.8041 -1.0039
78926SOL    HW254771   9.917   9.165   8.357  1.3324 -0.0514 -0.3925
78927SOL     OW54772   5.701   5.114  12.422 -0.8054  0.3244  0.0457
78927SOL    HW154773   5.637   5.044  12.410  0.0683 -0.6771  0.9603
78927SOL    HW254774   5.664   5.168  12.491  1.0152 -2.5452  3.6478
78928SOL     OW54775   6.806   8.564  13.022 -0.2119  0.3419  0.8088
78928SOL    HW154776   6.733   8.520  12.979 -1.2813  2.2278  0.5942
78928SOL    HW254777   6.884   8.530  12.977 -1.1114  0.0832 -0.6212
78929SOL     OW54778   0.833   6.215   3.418 -0.4634 -0.5437 -0.1522
78929SOL    HW154779   0.886   6.136   3.428  0.9869  0.5130  1.0393
78929SOL    HW254780   0.854   6.248   3.331 -0.1773 -0.8395 -0.1950
78930SOL     OW54781  14.067   1.864  11.521  0.4894 -0.1047  0.5601
78930SOL    HW154782  14.039   1.864  11.613  2.0253 -2.9319  1.1301
78930SOL    HW254783  14.145   1.810  11.520 -0.0070 -0.9201 -2.5743
78931SOL     OW54784   5.130   0.552  13.243  0.1585  0.2411  0.7110
78931SOL    HW154785   5.172   0.557  13.157 -1.2801  0.3838 -0.0143
78931SOL    HW254786   5.138   0.641  13.278 -1.0084  0.7397 -0.1838
78932SOL     OW54787   6.880   6.597   5.755  0.2253 -0.0083  0.4759
78932SOL    HW154788   6.809   6.654   5.726 -0.8169 -0.3386  2.2014
78932SOL    HW254789   6.910   6.636   5.837  2.0206  0.0767 -0.1746
78933SOL     OW54790   4.476   5.240   7.420  0.4236 -0.2754 -0.4365
78933SOL    HW154791   4.513   5.326   7.440  0.8260 -0.4586 -0.3841
78933SOL    HW254792   4.392   5.239   7.466  0.6144 -0.0752 -0.0756
78934SOL     OW54793   0.041   0.561   8.470  0.5325  0.0063  0.5622
78934SOL    HW154794  -0.035   0.618   8.483 -0.3522 -1.1715  0.6846
78934SOL    HW254795   0.020   0.481   8.518  1.0286 -1.0604 -0.9317
78935SOL     OW54796  12.584   4.836  13.327 -0.3546  0.2195 -0.5179
78935SOL    HW154797  12.506   4.887  13.305  0.4065  1.8495  0.3571
78935SOL    HW254798  12.603   4.859  13.418 -1.3269 -3.5273  0.7904
78936SOL     OW54799   1.289   4.397   8.219  0.2824  0.2272 -0.0012
78936SOL    HW154800   1.206   4.439   8.244  0.4762  1.5163 -1.4041
78936SOL    HW254801   1.355   4.465   8.235  0.7538  0.0604 -1.1648
78937SOL     OW54802   8.356  13.203   4.261 -0.7223  0.1542  0.3620
78937SOL    HW154803   8.262  13.207   4.246 -0.5527  1.7364 -0.4848
78937SOL    HW254804   8.394  13.191   4.174 -0.1236 -0.4304  0.6884
78938SOL     OW54805   1.101  10.112   9.124 -0.1552  0.3227  0.3038
78938SOL    HW154806   1.141  10.035   9.084 -0.7515  0.3677 -0.3971
78938SOL    HW254807   1.105  10.180   9.056  0.9756  1.1343  1.1392
78939SOL     OW54808   6.810   9.090   4.284  0.1513  0.5777  0.0135
78939SOL    HW154809   6.751   9.042   4.342 -0.4195  1.4491  0.1770
78939SOL    HW254810   6.822   9.032   4.209 -0.5935  0.2029  0.1725
78940SOL     OW54811   4.887   5.629   5.690  0.0546 -0.8248 -0.0457
78940SOL    HW154812   4.896   5.541   5.727 -1.2615 -1.5901 -1.4328
78940SOL    HW254813   4.793   5.637   5.671  0.1055  1.0107  0.3337
78941SOL     OW54814  10.010  12.260   1.706 -0.2821 -0.0889 -0.2810
78941SOL    HW154815  10.006  12.288   1.797 -1.4769 -0.1841 -0.2809
78941SOL    HW254816   9.988  12.166   1.709 -0.3149 -0.0956 -0.6671
78942SOL     OW54817  13.914   4.182  12.197 -0.0986  0.2670  0.1907
78942SOL    HW154818  13.927   4.087  12.191 -0.4445  0.2282  0.0108
78942SOL    HW254819  13.829   4.197  12.156 -0.8483  0.4404  1.7193
78943SOL     OW54820   8.400   9.510  11.017  0.7041 -0.2151 -0.6754
78943SOL    HW154821   8.430   9.593  11.055  1.5589 -0.2157 -1.3309
78943SOL    HW254822   8.312   9.497  11.054  0.6818  0.8329 -0.3403
78944SOL     OW54823   2.270   3.758   6.053  0.2267 -0.0542 -0.3475
78944SOL    HW154824   2.203   3.757   5.985  1.7926  1.8610 -2.0726
78944SOL    HW254825   2.347   3.718   6.012  1.3207  1.4766  0.1042
78945SOL     OW54826   1.624   4.592   4.434  0.3294  0.3951 -0.4123
78945SOL    HW154827   1.694   4.612   4.495  1.1495  1.3938 -1.6145
78945SOL    HW254828   1.551   4.648   4.462 -0.1457 -0.9208  1.0632
78946SOL     OW54829   6.295   8.687   6.982  0.8823  0.4885 -0.3254
78946SOL    HW154830   6.352   8.762   6.967  1.9491 -0.0151  0.9758
78946SOL    HW254831   6.338   8.614   6.936 -0.0855  0.6268 -1.4859
78947SOL     OW54832   4.525   4.310   4.538 -0.1313 -0.1646 -0.4261
78947SOL    HW154833   4.487   4.228   4.570  1.4440 -1.3763 -1.4840
78947SOL    HW254834   4.546   4.292   4.446  1.8538  0.8246 -0.2077
78948SOL     OW54835  11.990  14.110   2.165  0.5330 -0.0897  0.6046
78948SOL    HW154836  11.944  14.171   2.222  0.3788  0.0305  0.3543
78948SOL    HW254837  12.074  14.094   2.208  0.4710  0.1023  0.7946
78949SOL     OW54838   8.681  10.695   0.668 -0.0816 -0.3614 -0.3033
78949SOL    HW154839   8.707  10.785   0.691  1.1453 -0.4049 -1.3944
78949SOL    HW254840   8.713  10.683   0.579  0.9969 -2.3381  0.2849
78950SOL     OW54841   6.122  12.228   3.834  0.1938 -0.3595  0.2469
78950SOL    HW154842   6.089  12.313   3.864  1.2763 -0.2875  1.3132
78950SOL    HW254843   6.172  12.194   3.908  0.0166 -1.8067 -0.2666
78951SOL     OW54844  13.137   9.110   2.986 -0.0680  0.2145 -0.1261
78951SOL    HW154845  13.078   9.174   2.946  0.4321  0.2052 -0.8928
78951SOL    HW254846  13.091   9.027   2.978 -1.1954  0.5999  1.8254
78952SOL     OW54847   8.478   6.791   4.176  0.7753 -0.4638  0.1461
78952SOL    HW154848   8.511   6.726   4.238 -1.3764 -1.1294  0.6926
78952SOL    HW254849   8.490   6.875   4.221 -0.0493 -0.8706  1.1572
78953SOL     OW54850  11.443   9.605  11.472  0.1753  0.1022  0.2825
78953SOL    HW154851  11.530   9.565  11.476  0.1064 -0.0424  0.3537
78953SOL    HW254852  11.431   9.628  11.380  0.0477 -0.4196  0.1675
78954SOL     OW54853   0.868   0.775   1.835 -0.0270 -0.1769  0.0949
78954SOL    HW154854   0.819   0.831   1.775  1.3966 -0.6457 -1.6070
78954SOL    HW254855   0.943   0.827   1.862  0.7136 -0.8332 -0.6234
78955SOL     OW54856   3.957   4.705  11.942 -0.7564 -0.1293  0.3036
78955SOL    HW154857   4.045   4.734  11.969 -0.5239  0.5145 -1.0575
78955SOL    HW254858   3.961   4.702  11.847 -1.8280 -1.4131  0.2727
78956SOL     OW54859   6.738   3.425   6.663 -0.1009 -0.7380  0.5884
78956SOL    HW154860   6.815   3.479   6.675 -0.0153  0.4211 -3.5306
78956SOL    HW254861   6.669   3.469   6.713  0.7546  1.3281  0.0519
78957SOL     OW54862   5.246  10.679   6.883 -0.5994 -0.6617 -0.0273
78957SOL    HW154863   5.307  10.632   6.826 -1.0240 -1.8672  0.4673
78957SOL    HW254864   5.222  10.615   6.950 -1.4927  0.1613  0.4685
78958SOL     OW54865   9.142  12.169  11.034 -0.3740  0.2750  0.2062
78958SOL    HW154866   9.159  12.221  11.112  0.5427 -1.7296  1.4239
78958SOL    HW254867   9.218  12.184  10.978  0.3625 -0.4441  0.9773
78959SOL     OW54868   4.270   3.504  13.093  0.6528 -0.6296 -0.1965
78959SOL    HW154869   4.264   3.570  13.025 -1.4767  0.4873  0.9582
78959SOL    HW254870   4.337   3.536  13.153 -0.1462  0.3616  0.1933
78960SOL     OW54871   0.707   4.269   5.325  0.1707 -0.2726  0.1183
78960SOL    HW154872   0.653   4.236   5.253  0.4294 -0.4764  0.0139
78960SOL    HW254873   0.645   4.281   5.398  0.3140 -2.7506  0.7447
78961SOL     OW54874  10.483   6.790  12.057 -0.6131  0.6236  0.3960
78961SOL    HW154875  10.456   6.708  12.097  1.2810 -1.1958 -1.7912
78961SOL    HW254876  10.413   6.813  11.996 -1.5295  1.1381  1.6052
78962SOL     OW54877  11.371   5.401  11.011 -0.9385 -0.2809  0.5426
78962SOL    HW154878  11.371   5.492  10.981 -1.4077 -0.2300  0.6840
78962SOL    HW254879  11.372   5.349  10.930  1.1781 -0.1776  0.4554
78963SOL     OW54880   1.170   7.710  10.750 -0.2816  0.1880 -0.5505
78963SOL    HW154881   1.202   7.695  10.660  0.5567  0.0761 -0.2484
78963SOL    HW254882   1.229   7.658  10.805 -1.2102 -0.2810  0.0188
78964SOL     OW54883  13.078   8.129   0.601  0.1536 -0.3718  0.0709
78964SOL    HW154884  13.070   8.081   0.519  1.4820 -2.0731  0.8926
78964SOL    HW254885  13.106   8.217   0.574  0.5866 -0.8997 -1.2743
78965SOL     OW54886   5.544  10.368  11.111  0.0982 -0.2335  0.2953
78965SOL    HW154887   5.457  10.391  11.079 -0.5695 -1.1528  1.3811
78965SOL    HW254888   5.604  10.412  11.051 -1.1068 -0.2703 -0.9888
78966SOL     OW54889   0.963   5.967   5.634  0.0756  0.0126 -0.5775
78966SOL    HW154890   1.050   5.945   5.668 -0.0557  0.1449 -0.1400
78966SOL    HW254891   0.920   6.011   5.708  0.5212  2.2823 -1.5927
78967SOL     OW54892  13.288  10.441   9.633 -0.0822  0.3333 -0.2618
78967SOL    HW154893  13.293  10.349   9.606 -0.2548  0.0636  0.5851
78967SOL    HW254894  13.354  10.485   9.579  1.2244 -0.6000  0.5090
78968SOL     OW54895   7.720   3.881   9.785  0.8606 -0.2094 -0.0371
78968SOL    HW154896   7.672   3.817   9.733 -0.3876 -0.4419  1.3184
78968SOL    HW254897   7.807   3.844   9.795  0.3545 -1.3913  0.1814
78969SOL     OW54898   6.228   6.531   0.836 -0.1615  0.5504 -0.2967
78969SOL    HW154899   6.294   6.572   0.892  0.2268  0.3441 -0.6008
78969SOL    HW254900   6.243   6.568   0.750  0.4425 -0.4854 -0.6613
78970SOL     OW54901   3.385  11.234   0.688  1.0030  0.2965 -0.0462
78970SOL    HW154902   3.373  11.223   0.782  2.8757 -0.2102  0.1736
78970SOL    HW254903   3.479  11.242   0.677  0.8008  0.5316 -1.8780
78971SOL     OW54904  11.058   0.337   3.063  0.0227 -0.1513  0.3481
78971SOL    HW154905  11.055   0.387   3.144  0.7383  3.0363 -1.4144
78971SOL    HW254906  10.968   0.308   3.049 -0.1534 -0.5646  2.1273
78972SOL     OW54907   3.072  13.694  12.948  0.0087 -0.1241  0.2825
78972SOL    HW154908   3.098  13.742  13.027  1.8214  0.2813 -0.5289
78972SOL    HW254909   3.093  13.753  12.876 -0.8792 -0.8133 -0.5616
78973SOL     OW54910   8.504  11.385  13.596  0.7464 -0.5277 -0.3730
78973SOL    HW154911   8.454  11.309  13.625  1.5932 -1.5426 -1.4696
78973SOL    HW254912   8.455  11.460  13.628  0.0675 -1.5382  1.0380
78974SOL     OW54913   2.963  10.087   1.352  0.1989  0.0309 -0.0667
78974SOL    HW154914   2.872  10.096   1.324 -0.1598 -1.7981  0.3701
78974SOL    HW254915   3.008  10.046   1.278  0.5429  0.3977 -0.0656
78975SOL     OW54916  12.541  13.479   9.185 -0.0300  0.6804 -0.6392
78975SOL    HW154917  12.561  13.482   9.278  2.1950  1.1311 -1.0658
78975SOL    HW254918  12.500  13.394   9.171  0.3798  0.2679  0.6168
78976SOL     OW54919  11.251   6.984   4.288 -0.1476 -0.6165  0.2859
78976SOL    HW154920  11.334   7.016   4.251 -0.3260 -0.4078  0.0655
78976SOL    HW254921  11.185   7.006   4.222 -0.7859  1.5364  1.5676
78977SOL     OW54922   3.372  12.765  11.358 -0.2096 -0.1422 -0.3804
78977SOL    HW154923   3.353  12.721  11.275  0.2621  0.0641 -0.6080
78977SOL    HW254924   3.287  12.782  11.397 -0.4753  0.3391 -1.1373
78978SOL     OW54925   1.995   5.661   5.484  0.4309  0.1743 -0.1216
78978SOL    HW154926   1.904   5.634   5.467  0.6768 -0.4172 -0.5409
78978SOL    HW254927   2.027   5.598   5.549  0.9599 -0.4741 -0.9873
78979SOL     OW54928  10.414  13.886   2.467  0.4696 -0.6632  0.2612
78979SOL    HW154929  10.431  13.977   2.443  0.9677 -1.1393 -1.2903
78979SOL    HW254930  10.364  13.892   2.548 -0.1764  1.0135 -0.2178
78980SOL     OW54931  12.540   2.225   5.647  0.2006  0.0951 -0.3380
78980SOL    HW154932  12.495   2.294   5.598  1.4103  0.2449 -1.2580
78980SOL    HW254933  12.631   2.254   5.653  0.3176 -0.4693  1.0221
78981SOL     OW54934   9.989   9.402  11.217 -0.1032 -0.2610 -0.2036
78981SOL    HW154935   9.981   9.482  11.269 -0.3956  1.7278 -3.0915
78981SOL    HW254936  10.084   9.390  11.207 -0.0125 -1.1797  1.4275
78982SOL     OW54937   1.033  13.669   1.880  0.1284 -0.0916  0.0811
78982SOL    HW154938   0.978  13.652   1.956  0.6903 -0.4615  0.4127
78982SOL    HW254939   1.100  13.600   1.883  0.3173  0.0552 -0.5905
78983SOL     OW54940  12.011  12.297  10.573  0.0415  0.2060  0.0288
78983SOL    HW154941  12.091  12.298  10.625  0.0313  1.4561  0.0330
78983SOL    HW254942  12.000  12.386  10.542 -1.5353  0.1502  0.2917
78984SOL     OW54943   6.077   9.239   7.585 -0.6518 -0.0368  0.2165
78984SOL    HW154944   6.129   9.255   7.663  0.8209 -1.1478 -0.4956
78984SOL    HW254945   6.133   9.265   7.512 -1.6970  0.2292 -0.5256
78985SOL     OW54946   3.527  11.924   4.437 -0.2493  0.1956 -0.0143
78985SOL    HW154947   3.439  11.947   4.465 -0.4993  0.9583 -1.3210
78985SOL    HW254948   3.579  11.923   4.517 -0.9042  2.3612  0.5174
78986SOL     OW54949   3.857   4.776  14.039 -0.1434  0.1744 -0.3970
78986SOL    HW154950   3.883   4.755  13.950  1.0277  0.0751 -0.0495
78986SOL    HW254951   3.912   4.719  14.094 -0.3775  0.7044  0.4054
78987SOL     OW54952  11.873  12.950   0.880 -0.0521  0.7502  0.3950
78987SOL    HW154953  11.947  12.908   0.924 -2.3869 -1.4795  2.5626
78987SOL    HW254954  11.877  13.041   0.909  2.0378  0.7855  0.1199
78988SOL     OW54955   1.354  11.690  12.546  0.2618 -0.1400 -0.0894
78988SOL    HW154956   1.401  11.686  12.629 -2.3085 -0.1291  1.5103
78988SOL    HW254957   1.283  11.626  12.556 -0.4338  0.2597 -2.0665
78989SOL     OW54958   1.409  11.609  13.985 -0.3907  0.6905  0.1035
78989SOL    HW154959   1.452  11.690  13.957  0.2833  0.2498 -0.1637
78989SOL    HW254960   1.468  11.540  13.957 -1.7457  0.0030 -1.1434
78990SOL     OW54961   1.453  12.260   2.355 -0.1867  0.0057 -0.4775
78990SOL    HW154962   1.469  12.319   2.428  0.4223  2.0705 -2.1842
78990SOL    HW254963   1.516  12.189   2.368  0.3563  0.6721  0.6557
78991SOL     OW54964   2.632   5.000   9.795  0.0040  0.6453  0.6847
78991SOL    HW154965   2.639   4.984   9.889  0.2745 -0.0181  0.5551
78991SOL    HW254966   2.695   5.069   9.777  1.3179 -0.5045  0.6972
78992SOL     OW54967   8.922   6.405   0.851  0.0022 -0.1693  0.2879
78992SOL    HW154968   9.006   6.398   0.804 -0.9014  0.4388 -1.4970
78992SOL    HW254969   8.882   6.319   0.841 -0.5222  0.1852 -0.7390
78993SOL     OW54970  11.042   9.290   6.258 -0.3155  0.2277  0.4001
78993SOL    HW154971  10.967   9.293   6.199  0.5357 -1.1367 -0.8059
78993SOL    HW254972  11.018   9.224   6.324  0.7255 -2.0103 -1.3589
78994SOL     OW54973   6.038   0.274  12.033  0.1662  0.3303 -0.6848
78994SOL    HW154974   5.982   0.197  12.021 -0.9398  0.9344  0.3441
78994SOL    HW254975   6.023   0.327  11.954 -1.5122  0.9343 -0.0125
78995SOL     OW54976   7.711   8.602  13.826  0.2560  0.4551 -0.2403
78995SOL    HW154977   7.792   8.626  13.871 -0.6441  1.0905  1.1392
78995SOL    HW254978   7.724   8.510  13.801  0.5472 -0.2112  2.0743
78996SOL     OW54979   2.687  13.089   8.436 -0.5157  0.2678 -0.1070
78996SOL    HW154980   2.745  13.018   8.466  0.8359  1.5880  0.5542
78996SOL    HW254981   2.695  13.156   8.504 -1.5745  1.1682 -0.8409
78997SOL     OW54982   0.681   1.645   3.176 -0.1771  0.3268 -0.0230
78997SOL    HW154983   0.619   1.717   3.185  0.1770  0.6513 -0.1461
78997SOL    HW254984   0.766   1.688   3.163  0.2704 -0.0895  1.3332
78998SOL     OW54985  11.600  13.810  12.054 -0.0387 -0.7021  0.1259
78998SOL    HW154986  11.631  13.797  11.964 -0.2021 -0.8436  0.0880
78998SOL    HW254987  11.543  13.887  12.049  1.3862  0.4052  0.4612
78999SOL     OW54988   2.230  11.655   3.356 -0.1362 -0.3407  0.2957
78999SOL    HW154989   2.191  11.742   3.369 -0.9522 -1.0544  3.5593
78999SOL    HW254990   2.164  11.594   3.387  0.3291 -2.2413 -2.1387
79000SOL     OW54991  10.203   6.648  10.510  0.2459  0.0282  0.7340
79000SOL    HW154992  10.247   6.702  10.576  2.3171 -0.3287 -0.2940
79000SOL    HW254993  10.257   6.569  10.503  0.6695  0.4649 -2.0402
79001SOL     OW54994   2.724  12.004   1.364  0.4152  0.0909 -0.1464
79001SOL    HW154995   2.746  11.961   1.447 -1.0341 -0.7022 -0.1451
79001SOL    HW254996   2.801  11.991   1.309  1.0529 -0.1257  0.7803
79002SOL     OW54997   5.281   3.384  11.561 -0.2353 -0.2512 -0.0530
79002SOL    HW154998   5.216   3.433  11.510  0.6041 -0.1402 -1.0406
79002SOL    HW254999   5.285   3.299  11.518  0.7961 -0.0113 -0.4438
79003SOL     OW55000   9.649   2.474  10.898  0.2006  0.3404  0.7830
79003SOL    HW155001   9.666   2.538  10.967  0.8563 -0.4039  1.3332
79003SOL    HW255002   9.730   2.473  10.846  0.1105  0.1253  0.6435
79004SOL     OW55003  12.643  13.256   9.652  0.3290 -0.4385  0.0393
79004SOL    HW155004  12.616  13.164   9.652  1.8629 -0.9391  0.8403
79004SOL    HW255005  12.658  13.276   9.745  0.1755  0.5835 -0.1431
79005SOL     OW55006   7.942  14.034  12.121 -0.3023 -0.2885 -0.2957
79005SOL    HW155007   7.922  14.116  12.076 -0.5414 -0.3708 -0.3422
79005SOL    HW255008   7.875  14.027  12.189  0.0210 -0.1958  0.0368
79006SOL     OW55009   8.874   6.507   5.539 -0.3378 -0.3015  0.1370
79006SOL    HW155010   8.956   6.557   5.547 -0.5702  0.2577 -0.8168
79006SOL    HW255011   8.866   6.491   5.445 -0.7985 -1.2576  0.3348
79007SOL     OW55012   2.627   5.103  12.457 -0.3356  0.0239 -0.6130
79007SOL    HW155013   2.652   5.011  12.454 -2.2134 -0.5031 -1.4077
79007SOL    HW255014   2.543   5.104  12.504  0.1906  1.4831  0.3785
79008SOL     OW55015   0.104   5.774   1.935 -0.0213  0.5039 -0.2780
79008SOL    HW155016   0.097   5.767   2.031  1.0217  1.7437 -0.0763
79008SOL    HW255017   0.044   5.707   1.902  0.8698 -1.1399  1.2384
79009SOL     OW55018  11.713   5.047  13.525  0.0096  0.1697  0.1090
79009SOL    HW155019  11.669   4.994  13.458 -0.1990 -1.2294  1.3029
79009SOL    HW255020  11.726   4.986  13.598  2.0520  1.1093  0.5838
79010SOL     OW55021  12.401   0.096   6.107 -0.7608  0.1730 -0.2295
79010SOL    HW155022  12.412   0.191   6.112 -0.7044  0.1101  1.1574
79010SOL    HW255023  12.318   0.084   6.061 -1.5057  0.9399  0.8847
79011SOL     OW55024  10.551   3.198  13.889  0.1289  0.1084  0.1632
79011SOL    HW155025  10.502   3.124  13.853  0.6213  0.4118 -1.2090
79011SOL    HW255026  10.613   3.221  13.820 -1.2075  2.9415 -0.2356
79012SOL     OW55027  10.188   1.519   8.417  0.4561 -0.3336 -0.5186
79012SOL    HW155028  10.254   1.584   8.396 -0.5909  1.3558  1.0753
79012SOL    HW255029  10.237   1.443   8.449  1.6447  0.8728  0.6162
79013SOL     OW55030   1.776   2.469  13.528 -0.7056  0.3310  0.6803
79013SOL    HW155031   1.791   2.550  13.576  0.5160  0.1487  0.6392
79013SOL    HW255032   1.831   2.404  13.572  1.1531  0.3414 -1.4410
79014SOL     OW55033   9.106   0.839   1.842  0.5580 -0.2126 -0.2206
79014SOL    HW155034   9.054   0.888   1.905  1.0034 -1.0448  0.8256
79014SOL    HW255035   9.053   0.762   1.822  0.2520  0.2195 -1.1860
79015SOL     OW55036  11.915   4.011   4.060  0.0979 -0.1060  0.0954
79015SOL    HW155037  11.867   4.047   3.986 -0.9128 -2.0009 -0.2445
79015SOL    HW255038  11.996   4.061   4.063  0.0803  0.1711 -2.1762
79016SOL     OW55039  11.544   7.682   1.472 -0.7293  0.1739  0.7045
79016SOL    HW155040  11.474   7.634   1.428  0.3180  0.2006 -1.0967
79016SOL    HW255041  11.569   7.750   1.409  1.8848 -0.7274  0.6705
79017SOL     OW55042   4.678  13.646  13.322  0.3250 -0.1242  0.0340
79017SOL    HW155043   4.728  13.596  13.386  0.6964  0.2562  0.0496
79017SOL    HW255044   4.720  13.732  13.321 -0.4634  0.2732  0.2071
79018SOL     OW55045   8.314   8.501   4.789 -0.1768 -0.4269 -0.3453
79018SOL    HW155046   8.305   8.410   4.763 -1.1460 -0.5984  0.4859
79018SOL    HW255047   8.258   8.550   4.728 -1.2694 -0.6509  0.4413
79019SOL     OW55048   6.344  13.085  10.854 -0.1278 -0.0824  1.0797
79019SOL    HW155049   6.373  13.015  10.912 -0.2891 -0.6941  0.4294
79019SOL    HW255050   6.345  13.046  10.767 -0.5057  0.6368  0.7476
79020SOL     OW55051   0.806   5.390  13.192 -0.4433 -0.4818  0.8347
79020SOL    HW155052   0.764   5.330  13.254 -0.5281  0.0323  1.2839
79020SOL    HW255053   0.733   5.434  13.149 -0.3739  0.1902  1.3945
79021SOL     OW55054   0.878  10.183   0.178 -0.3351 -0.1747 -0.5439
79021SOL    HW155055   0.928  10.242   0.122  1.7062  0.5585  1.8295
79021SOL    HW255056   0.899  10.095   0.146  0.8493  0.2198 -0.9044
79022SOL     OW55057   6.758   5.423  13.965 -0.9984  0.2933 -0.1196
79022SOL    HW155058   6.732   5.336  13.936 -0.8021  0.9188 -2.3717
79022SOL    HW255059   6.683   5.454  14.016 -1.1289 -1.0931  0.5897
79023SOL     OW55060   4.115   1.693   7.676  0.4278  0.2167  0.2233
79023SOL    HW155061   4.153   1.781   7.679 -1.3414  1.0511 -0.6053
79023SOL    HW255062   4.163   1.648   7.606  0.7103  0.8305  0.0152
79024SOL     OW55063   8.126   5.034  12.895 -0.6206 -0.8265  0.5971
79024SOL    HW155064   8.077   5.047  12.813  0.4515 -3.0110 -0.4927
79024SOL    HW255065   8.207   5.084  12.882 -0.7816 -0.5472  0.6591
79025SOL     OW55066   0.428   3.873  10.623  0.7274  0.8803 -0.1151
79025SOL    HW155067   0.508   3.889  10.572  0.4478  1.7377 -0.3053
79025SOL    HW255068   0.457   3.820  10.697  1.6723  2.0427  0.3740
79026SOL     OW55069   7.177  10.078   4.499  0.4243 -0.5388  0.4384
79026SOL    HW155070   7.101  10.020   4.493  0.5012 -0.5994  0.0265
79026SOL    HW255071   7.171  10.134   4.422  1.6903 -1.6469 -0.5272
79027SOL     OW55072   0.425   6.562   8.328 -0.1123  0.1811  0.6110
79027SOL    HW155073   0.501   6.618   8.317  0.6844 -0.8155  0.8571
79027SOL    HW255074   0.432   6.498   8.258 -1.0100  0.3802  0.3284
79028SOL     OW55075   4.505  11.014  11.357 -0.4099 -0.4513 -0.3236
79028SOL    HW155076   4.490  11.006  11.263 -2.9926  0.6714 -0.0959
79028SOL    HW255077   4.425  10.980  11.397 -0.8917  2.3087  1.2937
79029SOL     OW55078   9.017  10.004   1.111  0.0146 -0.5004  0.0493
79029SOL    HW155079   9.085   9.937   1.112  0.4246 -0.0910  0.4764
79029SOL    HW255080   8.936   9.956   1.093  0.1875 -1.2223  1.0853
79030SOL     OW55081  10.101  13.755  12.310  0.0633 -0.0601  0.7619
79030SOL    HW155082  10.111  13.849  12.325 -0.5564  0.1843 -0.2807
79030SOL    HW255083  10.104  13.745  12.215  2.0678 -1.3435  0.9130
79031SOL     OW55084  13.691   3.152   9.296 -0.2259  0.3208  0.0032
79031SOL    HW155085  13.617   3.163   9.355  0.2324 -1.4589  0.9812
79031SOL    HW255086  13.679   3.064   9.259  0.8527  0.4079 -0.5819
79032SOL     OW55087   2.966  11.138  12.204 -0.0372  0.2432 -0.2542
79032SOL    HW155088   2.914  11.076  12.255  0.2801  0.3691  0.2277
79032SOL    HW255089   2.942  11.120  12.113 -1.8406  1.1337  0.0120
79033SOL     OW55090   8.224   5.651   0.376  0.7671 -0.0845 -0.4114
79033SOL    HW155091   8.200   5.689   0.291  2.5156 -0.3620 -1.0766
79033SOL    HW255092   8.143   5.612   0.409 -1.0171  3.4922 -0.0038
79034SOL     OW55093  13.122   9.364   4.089  0.8690  0.7813  0.2050
79034SOL    HW155094  13.041   9.358   4.039  0.4058  0.8029  0.9307
79034SOL    HW255095  13.122   9.453   4.124  1.3118  0.8467  0.0327
79035SOL     OW55096  10.179   3.861   9.380 -0.0382  0.4287  0.2512
79035SOL    HW155097  10.165   3.954   9.398  0.2611  0.2392  1.5320
79035SOL    HW255098  10.174   3.855   9.285 -2.9032  1.2839  0.2479
79036SOL     OW55099   1.742   6.902   0.073 -0.2530 -0.3021  0.0392
79036SOL    HW155100   1.795   6.882  -0.004 -0.5258 -1.2190  0.0818
79036SOL    HW255101   1.655   6.921   0.037 -0.2464 -0.1813  0.0846
79037SOL     OW55102  11.963   9.153  12.902 -0.1841 -0.0334  0.0054
79037SOL    HW155103  12.026   9.142  12.831 -1.0440  0.3800 -0.8419
79037SOL    HW255104  11.966   9.246  12.923 -2.3491  0.5474 -1.8486
79038SOL     OW55105   1.658   5.499   7.166  0.2134  0.5248  0.1735
79038SOL    HW155106   1.695   5.577   7.124 -1.3657  1.4318  0.3541
79038SOL    HW255107   1.601   5.461   7.099 -1.3120  1.2436  1.0050
79039SOL     OW55108   4.861   7.769   3.920 -0.3814  0.3379 -0.6745
79039SOL    HW155109   4.836   7.680   3.898  1.8037 -0.1369 -1.5428
79039SOL    HW255110   4.951   7.761   3.952 -1.0849  1.8983  2.0823
79040SOL     OW55111   1.511   9.463   9.685 -0.3195 -0.3124  0.1185
79040SOL    HW155112   1.443   9.514   9.728 -0.7543  0.0503 -0.9855
79040SOL    HW255113   1.523   9.504   9.600 -0.2939 -1.6946 -0.5842
79041SOL     OW55114   1.315   8.445   7.895 -0.4886  0.1383  0.3856
79041SOL    HW155115   1.301   8.538   7.879  0.2670  0.0321 -1.0298
79041SOL    HW255116   1.371   8.442   7.972 -0.8349  0.8282  0.6763
79042SOL     OW55117  10.048  10.999   9.921 -0.4284  0.0466 -0.0704
79042SOL    HW155118  10.012  10.961   9.841 -1.4320 -0.3567  0.5552
79042SOL    HW255119  10.006  10.951   9.992  0.1974  0.6210  0.7169
79043SOL     OW55120  10.710  12.720   6.593  0.2480  0.4117  0.1530
79043SOL    HW155121  10.715  12.638   6.642  0.1585 -0.7439 -1.6918
79043SOL    HW255122  10.758  12.703   6.512 -1.8277  1.3607 -1.3599
79044SOL     OW55123   8.740  10.530   0.303 -0.0212  0.2827  0.1307
79044SOL    HW155124   8.701  10.482   0.376  1.8119  0.7100  1.4465
79044SOL    HW255125   8.749  10.619   0.335 -2.8504  1.5216 -2.0752
79045SOL     OW55126   9.694  12.112   7.137  0.5493  0.5833 -0.2904
79045SOL    HW155127   9.740  12.097   7.054  3.3365 -2.0165  1.4799
79045SOL    HW255128   9.738  12.188   7.175 -0.2663  1.3535 -0.8563
79046SOL     OW55129  12.875   4.696  11.347 -0.6090  0.4465 -0.1563
79046SOL    HW155130  12.896   4.603  11.337 -0.8086  0.5176 -1.3078
79046SOL    HW255131  12.887   4.713  11.441  0.8448 -0.3955 -0.1569
79047SOL     OW55132   2.694   6.616   0.621 -0.6546 -0.2543 -0.0632
79047SOL    HW155133   2.717   6.677   0.551 -1.2800 -0.5392 -0.5343
79047SOL    HW255134   2.613   6.653   0.658  0.2699  0.5132  1.2838
79048SOL     OW55135   7.018  13.886   1.318 -0.3623  0.6256  0.2670
79048SOL    HW155136   7.008  13.960   1.378  0.1806 -0.0480  1.2211
79048SOL    HW255137   7.048  13.926   1.236 -0.9805  1.5517  0.4670
79049SOL     OW55138   0.948  13.613   9.258 -0.1233 -0.4408 -0.1930
79049SOL    HW155139   1.014  13.655   9.204 -1.0677 -0.0115 -1.0416
79049SOL    HW255140   0.867  13.661   9.239 -0.5920 -0.6510  1.1753
79050SOL     OW55141   0.471  11.315   4.329  0.1053  0.3080 -0.4922
79050SOL    HW155142   0.392  11.311   4.382  1.5362 -2.5258  1.6897
79050SOL    HW255143   0.515  11.396   4.356 -1.2746  1.1437 -0.6625
79051SOL     OW55144   2.110   5.583  11.846  0.5207 -0.7828  0.4234
79051SOL    HW155145   2.194   5.599  11.804  0.3814 -3.0946 -0.9066
79051SOL    HW255146   2.123   5.504  11.898 -0.8564 -1.3035  0.0337
79052SOL     OW55147  11.208  14.033  10.506 -0.2081 -0.5973 -0.3165
79052SOL    HW155148  11.273  13.968  10.535 -0.4652 -0.7995 -0.1915
79052SOL    HW255149  11.128  13.983  10.494 -0.9596  0.0184  1.7701
79053SOL     OW55150   1.783  10.737   2.321 -0.7248  0.0987  0.6410
79053SOL    HW155151   1.859  10.722   2.265 -1.5296  2.1607 -1.1798
79053SOL    HW255152   1.759  10.651   2.354  1.5934 -0.7701  0.2066
79054SOL     OW55153   8.343   9.958   1.801  0.2694 -0.5091 -0.7930
79054SOL    HW155154   8.271   9.918   1.753 -0.7982  3.6758 -3.2641
79054SOL    HW255155   8.410   9.976   1.735  1.4724  0.0304  0.4967
79055SOL     OW55156   4.807   2.129  10.780 -0.2094 -0.1410 -0.1280
79055SOL    HW155157   4.813   2.074  10.702 -0.8317  0.6007 -0.7132
79055SOL    HW255158   4.743   2.196  10.757  0.3006  0.6424  0.6817
79056SOL     OW55159   6.211  11.434   4.408 -0.0090  0.5861 -0.0169
79056SOL    HW155160   6.135  11.482   4.440 -0.0944  0.7662 -0.4937
79056SOL    HW255161   6.283  11.497   4.413  0.0817  0.4665  0.2685
79057SOL     OW55162   2.335   5.340  10.650 -0.3830 -0.3012  0.7017
79057SOL    HW155163   2.366   5.252  10.669  2.6771  0.3780 -0.5902
79057SOL    HW255164   2.389   5.397  10.704 -0.6650  0.9130 -0.2456
79058SOL     OW55165   7.874   5.250   3.574  0.1475 -0.8574 -0.2135
79058SOL    HW155166   7.796   5.221   3.526 -1.2711  0.3147  1.2338
79058SOL    HW255167   7.893   5.179   3.634 -1.0898 -0.3905  0.8008
79059SOL     OW55168   0.925   6.256   3.160 -0.7455 -0.2421 -0.8650
79059SOL    HW155169   0.925   6.333   3.103  3.5029 -0.3689 -1.3584
79059SOL    HW255170   0.949   6.184   3.102 -1.8936 -1.4880  0.1348
79060SOL     OW55171   1.186   7.301   3.273  0.5974  0.2570  0.4302
79060SOL    HW155172   1.232   7.345   3.344  0.2523  0.7364  0.3649
79060SOL    HW255173   1.209   7.350   3.194 -1.4133  1.6511  0.6308
79061SOL     OW55174   4.430   1.690   0.792  0.4048  0.5725 -0.0001
79061SOL    HW155175   4.387   1.607   0.812 -0.1876  0.9546  0.3244
79061SOL    HW255176   4.387   1.719   0.711  0.5907  0.5789 -0.0960
79062SOL     OW55177   8.533  11.322   9.405  0.3380  0.5019  0.1011
79062SOL    HW155178   8.550  11.394   9.345 -0.2951  0.6225  0.0555
79062SOL    HW255179   8.447  11.289   9.379  0.7127 -0.4162 -0.0207
79063SOL     OW55180   8.353  13.481  11.538  0.0896  0.2653  0.3911
79063SOL    HW155181   8.300  13.442  11.469  1.6126 -0.0272 -0.6673
79063SOL    HW255182   8.443  13.468  11.510  0.7761  0.0912  2.4863
79064SOL     OW55183   0.328  10.713   9.378  0.1032  0.4011 -0.6626
79064SOL    HW155184   0.340  10.740   9.287 -0.7203 -1.9132 -1.5262
79064SOL    HW255185   0.383  10.635   9.387  0.1914  0.6050  0.8568
79065SOL     OW55186   8.385   4.262   9.367 -0.3200  0.3867 -0.3756
79065SOL    HW155187   8.413   4.242   9.278 -1.4887  0.2765 -0.7242
79065SOL    HW255188   8.393   4.357   9.375  1.9370  0.2115  0.1647
79066SOL     OW55189  13.542   7.151   3.589  0.1864  0.1569 -0.2123
79066SOL    HW155190  13.574   7.230   3.633  0.0233  0.1204 -0.0314
79066SOL    HW255191  13.555   7.170   3.495 -0.6506  0.7418 -0.2161
79067SOL     OW55192  13.735   6.132   0.492  0.2530  0.4986 -0.0265
79067SOL    HW155193  13.671   6.161   0.427 -0.1671 -1.3337 -0.4802
79067SOL    HW255194  13.816   6.175   0.467 -0.8134  3.1387  0.7508
79068SOL     OW55195  13.558   1.165  12.703  0.0712  0.3105 -0.0503
79068SOL    HW155196  13.644   1.205  12.712 -0.2088  0.7824  0.6320
79068SOL    HW255197  13.506   1.229  12.655  0.3309 -0.3415 -1.2280
79069SOL     OW55198   7.183  12.411   5.251 -0.0416 -0.3170 -0.3807
79069SOL    HW155199   7.205  12.503   5.236 -2.3892  0.2632 -0.5908
79069SOL    HW255200   7.241  12.363   5.191  1.4898  0.9562 -0.0051
79070SOL     OW55201   5.914  10.230   1.642 -0.1308 -0.5094 -0.5902
79070SOL    HW155202   5.930  10.318   1.609 -0.2147 -0.0737  0.4993
79070SOL    HW255203   6.001  10.193   1.656 -0.0899 -0.2908 -0.2566
79071SOL     OW55204  12.088  12.473   2.219  0.0303 -0.1069  0.1733
79071SOL    HW155205  12.168  12.496   2.265  0.3038 -0.0477 -0.3229
79071SOL    HW255206  12.033  12.431   2.285  0.4440 -0.0872  0.5314
79072SOL     OW55207   7.343   2.366  13.681  0.1445 -0.3061  0.2967
79072SOL    HW155208   7.268   2.329  13.729  0.3207  0.3903  1.1338
79072SOL    HW255209   7.382   2.428  13.742  1.3901 -0.6257 -0.1552
79073SOL     OW55210   1.403   5.538   1.316 -0.3291 -0.0885 -0.4350
79073SOL    HW155211   1.467   5.605   1.338 -0.1299 -0.5997  0.5857
79073SOL    HW255212   1.334   5.548   1.381 -0.7550 -0.2639 -0.8512
79074SOL     OW55213  11.419   0.538   4.968 -0.1074 -0.0717  0.2392
79074SOL    HW155214  11.441   0.452   4.933 -1.3589  0.4182 -1.9442
79074SOL    HW255215  11.487   0.556   5.033  2.1392 -1.3051 -1.6228
79075SOL     OW55216  12.480   6.685  13.317 -0.2984 -0.4592 -0.0045
79075SOL    HW155217  12.416   6.755  13.329 -0.2238 -0.3595 -0.1707
79075SOL    HW255218  12.551   6.706  13.377 -1.5345 -1.9676  2.1460
79076SOL     OW55219   0.896   4.052   7.501 -0.0427  0.5808  0.0816
79076SOL    HW155220   0.814   4.007   7.485 -1.0533  2.1013  0.7658
79076SOL    HW255221   0.949   4.035   7.422  0.4483 -3.3161  1.0479
79077SOL     OW55222  12.736   0.306   6.233 -0.2770 -0.2661 -0.1441
79077SOL    HW155223  12.729   0.373   6.300  0.7777 -0.7792  0.5053
79077SOL    HW255224  12.674   0.333   6.165 -0.3314  1.0167  0.3900
79078SOL     OW55225   7.894   2.776   1.045 -0.2563  0.7260  0.2153
79078SOL    HW155226   7.904   2.681   1.051 -0.8313  0.6553  0.0846
79078SOL    HW255227   7.888   2.805   1.136 -1.0092  0.5299  0.2380
79079SOL     OW55228   5.200  11.356   7.714 -0.0116  0.2469 -0.3879
79079SOL    HW155229   5.260  11.282   7.728  0.8490  0.7580 -1.2325
79079SOL    HW255230   5.113  11.319   7.730  0.2766 -1.3238 -2.0285
79080SOL     OW55231   1.008   4.700  13.811  0.5637  0.6210  0.5555
79080SOL    HW155232   1.088   4.692  13.758 -0.0653  1.3147 -0.5369
79080SOL    HW255233   0.961   4.618  13.796  0.2796  0.9079 -0.1662
79081SOL     OW55234  13.314   1.758   4.668  0.1828  0.1269  0.1885
79081SOL    HW155235  13.331   1.789   4.579  2.2373 -1.3577 -0.0134
79081SOL    HW255236  13.322   1.663   4.663  1.3932  0.0632  2.1518
79082SOL     OW55237   9.507   4.182  10.101 -0.2070  0.4393 -0.4107
79082SOL    HW155238   9.518   4.091  10.127  0.7259  0.2229 -1.4807
79082SOL    HW255239   9.578   4.198  10.039  1.1079  2.5889  1.4969
79083SOL     OW55240   3.177   3.249   0.938 -0.2421  0.1526  0.1520
79083SOL    HW155241   3.232   3.327   0.939 -1.2709  0.9361 -0.9297
79083SOL    HW255242   3.217   3.192   0.872  0.8384 -0.5067  1.3505
79084SOL     OW55243   9.824   3.370   9.843 -0.3437 -0.0339  0.3438
79084SOL    HW155244   9.781   3.384   9.758  0.1215 -0.2250  0.0689
79084SOL    HW255245   9.856   3.279   9.838 -1.6261 -0.5616  1.3227
79085SOL     OW55246   3.711   0.442   0.308  0.0007  0.0057  0.5904
79085SOL    HW155247   3.783   0.467   0.367  0.7346 -1.4242  0.3478
79085SOL    HW255248   3.716   0.504   0.236 -0.7488  1.6268  1.8772
79086SOL     OW55249   4.806   2.372  11.267  0.4821 -0.1838 -1.2294
79086SOL    HW155250   4.877   2.380  11.331 -0.5823  0.2500 -0.0422
79086SOL    HW255251   4.795   2.461  11.233  0.6264 -0.2839 -1.5323
79087SOL     OW55252   5.311   8.636   8.541 -0.3534 -0.1174 -0.6870
79087SOL    HW155253   5.286   8.544   8.542 -1.2588  0.1178  0.2941
79087SOL    HW255254   5.317   8.660   8.634  0.0624  0.7598 -0.9333
79088SOL     OW55255  12.628   5.374   9.547 -0.7425 -0.3310  0.1523
79088SOL    HW155256  12.715   5.335   9.536 -0.4716  0.5704 -1.3146
79088SOL    HW255257  12.606   5.406   9.459 -1.6912  1.2134  0.9055
79089SOL     OW55258   2.137   7.874   2.665  0.1761  0.3815  0.2884
79089SOL    HW155259   2.205   7.828   2.616  0.0714  1.0284 -0.4891
79089SOL    HW255260   2.055   7.846   2.625  0.0112 -0.0001  0.8873
79090SOL     OW55261   0.878   1.647  13.981 -0.1221  0.3617 -0.3921
79090SOL    HW155262   0.821   1.573  14.002 -0.7223  0.8022 -0.4145
79090SOL    HW255263   0.829   1.696  13.915 -0.6236  1.8157  1.0057
79091SOL     OW55264  11.130   3.139   9.761  0.1757 -0.0067 -0.4159
79091SOL    HW155265  11.214   3.137   9.716 -0.8680 -0.7246 -2.4592
79091SOL    HW255266  11.118   3.231   9.784  2.0526 -0.0693  1.0664
79092SOL     OW55267   9.111  11.171   7.993  0.5340  0.3881 -0.2136
79092SOL    HW155268   9.033  11.223   8.013  1.0513  0.9904  0.2826
79092SOL    HW255269   9.150  11.213   7.917  0.9838  0.7816  0.2229
79093SOL     OW55270   3.038   1.828  13.121  0.5555  0.1207  0.5648
79093SOL    HW155271   3.127   1.862  13.127  1.1369 -0.9257 -1.2236
79093SOL    HW255272   3.015   1.837  13.028 -0.9538 -0.2650  0.8649
79094SOL     OW55273   2.046   3.267   7.983  0.1607 -0.2921 -0.7897
79094SOL    HW155274   2.074   3.240   8.071  0.5891  0.6614 -0.6199
79094SOL    HW255275   2.114   3.232   7.925  0.3701 -0.1439 -0.6386
79095SOL     OW55276   0.924   9.069   0.626 -0.1607  0.3340 -0.5020
79095SOL    HW155277   0.850   9.101   0.679 -1.8967 -1.9078 -1.3843
79095SOL    HW255278   0.917   9.118   0.544  0.2578  1.1618 -0.0578
79096SOL     OW55279  10.857   6.647   5.841  0.6766  0.1944  0.2396
79096SOL    HW155280  10.909   6.706   5.895  0.5771  0.5820 -0.0843
79096SOL    HW255281  10.782   6.624   5.895 -1.2501  3.3002 -0.8918
79097SOL     OW55282   8.928  12.965  12.428  0.0883  0.5703  0.1420
79097SOL    HW155283   8.964  12.922  12.505 -0.1460  1.3868  0.7174
79097SOL    HW255284   9.005  12.990  12.376  0.2968  1.0374  0.6689
79098SOL     OW55285   1.507   7.182  10.364 -0.9669  0.0953  0.3713
79098SOL    HW155286   1.517   7.257  10.421 -0.1450  0.9881 -0.8859
79098SOL    HW255287   1.503   7.106  10.423 -1.0005  1.0409  1.6135
79099SOL     OW55288  13.496  10.708   4.128  0.1387 -0.8945 -0.0192
79099SOL    HW155289  13.570  10.705   4.067  0.1436 -1.4870  0.0098
79099SOL    HW255290  13.421  10.683   4.074  0.0668 -0.9409  0.1035
79100SOL     OW55291   1.255   8.865  12.437 -0.0312  0.0169  0.1847
79100SOL    HW155292   1.195   8.914  12.492 -0.1358  0.4000 -0.2679
79100SOL    HW255293   1.199   8.806  12.387 -0.0556  0.5227 -0.3924
79101SOL     OW55294   9.616   1.518   4.355 -0.1404 -0.5530 -0.2604
79101SOL    HW155295   9.694   1.489   4.403 -0.2737 -1.7410 -0.7351
79101SOL    HW255296   9.598   1.448   4.293 -0.9081  0.2416 -0.9679
79102SOL     OW55297   4.575  13.056   7.509 -0.3657  0.3415 -0.0368
79102SOL    HW155298   4.601  13.123   7.572  0.0087 -0.4572  0.6877
79102SOL    HW255299   4.597  13.093   7.423 -0.2122  1.1543  0.3442
79103SOL     OW55300  13.801   9.945   1.423 -0.0665  0.0529  0.5258
79103SOL    HW155301  13.895   9.947   1.436 -0.2174 -0.0647  1.7009
79103SOL    HW255302  13.790   9.950   1.328  1.1742 -1.6505  0.2544
79104SOL     OW55303   1.211   8.370   6.239 -0.4139 -0.1732 -0.2179
79104SOL    HW155304   1.287   8.412   6.199  0.9196  1.2277  3.3176
79104SOL    HW255305   1.154   8.442   6.265 -1.3013 -0.9914  0.2020
79105SOL     OW55306  10.739   7.638  14.065 -0.2775  0.8324 -0.2976
79105SOL    HW155307  10.742   7.609  13.973  2.3976 -2.0769  0.5159
79105SOL    HW255308  10.654   7.608  14.097 -0.4767  0.1878 -1.3756
79106SOL     OW55309   4.365   2.945   0.317 -0.0152 -0.2294 -0.1163
79106SOL    HW155310   4.310   2.876   0.354 -0.6464  0.8470  1.0374
79106SOL    HW255311   4.409   2.904   0.243 -0.4533 -1.8337  0.4731
79107SOL     OW55312  12.893   2.318   3.348  0.0281 -0.0586  0.2949
79107SOL    HW155313  12.919   2.264   3.273  1.5250  0.6918  0.2366
79107SOL    HW255314  12.974   2.363   3.374 -0.8788  1.1065  1.1935
79108SOL     OW55315   4.422   3.498   5.913  0.5260  0.1015 -0.4025
79108SOL    HW155316   4.366   3.554   5.860  0.1545 -0.5216 -0.6792
79108SOL    HW255317   4.414   3.532   6.002 -0.9149 -0.4520 -0.2951
79109SOL     OW55318   6.762   8.366   6.976 -0.1670 -0.0410 -0.2799
79109SOL    HW155319   6.679   8.380   7.022  0.2381  1.7752 -0.0375
79109SOL    HW255320   6.828   8.365   7.046  0.1569 -0.1069 -0.5858
79110SOL     OW55321  12.737   2.291   5.960 -0.5556  0.2952 -0.0506
79110SOL    HW155322  12.742   2.369   6.014  0.1493 -0.2395  0.6777
79110SOL    HW255323  12.645   2.284   5.936 -0.9102  0.4710  1.1943
79111SOL     OW55324   7.628   7.046  11.768  0.4526  0.4718 -0.0754
79111SOL    HW155325   7.666   7.132  11.749 -1.8341  1.4211 -0.5771
79111SOL    HW255326   7.570   7.028  11.694  1.8155 -2.1316 -0.6298
79112SOL     OW55327   1.829  11.285   0.626 -0.4660 -0.1654 -0.2818
79112SOL    HW155328   1.865  11.220   0.566  0.4774  1.4287 -1.5183
79112SOL    HW255329   1.895  11.294   0.695 -1.1174 -1.3001  0.5268
79113SOL     OW55330  11.125   4.640   4.296  0.2502  0.2972  0.5327
79113SOL    HW155331  11.081   4.580   4.236  1.9226 -0.6753  0.2189
79113SOL    HW255332  11.140   4.720   4.245 -0.9286  0.5616  0.5854
79114SOL     OW55333   0.322  13.220   1.672  0.3245 -0.1690  0.1345
79114SOL    HW155334   0.415  13.236   1.687  0.1418  1.5276 -0.4208
79114SOL    HW255335   0.278  13.297   1.709 -0.9101 -1.1303  0.7673
79115SOL     OW55336  13.326   4.196  13.108 -0.1911 -0.2057 -0.5120
79115SOL    HW155337  13.275   4.121  13.139 -0.3270 -0.1914 -0.7026
79115SOL    HW255338  13.351   4.173  13.019 -2.0728  0.8908 -1.3706
79116SOL     OW55339   5.378  10.517   6.464  0.5861  0.7396 -0.3076
79116SOL    HW155340   5.391  10.585   6.530  1.6699  0.6085 -0.3701
79116SOL    HW255341   5.435  10.543   6.392  2.0730 -0.9261  0.2106
79117SOL     OW55342  11.097   9.612  10.522 -0.2139 -0.2766  0.2477
79117SOL    HW155343  11.067   9.703  10.516  0.2497 -0.0398  1.2281
79117SOL    HW255344  11.019   9.560  10.505  0.0190  0.2383 -2.9714
79118SOL     OW55345  11.267  10.969  13.864  0.1748  0.1314  0.1256
79118SOL    HW155346  11.348  10.934  13.900  0.6391  0.7307 -0.3038
79118SOL    HW255347  11.208  10.894  13.858  0.2572 -0.0845  1.6285
79119SOL     OW55348  14.102   6.766   4.564  0.0371  0.7732 -0.2493
79119SOL    HW155349  14.030   6.706   4.546  1.2169 -0.4202 -1.1385
79119SOL    HW255350  14.083   6.843   4.510  0.6843 -0.5399 -2.4460
79120SOL     OW55351  12.321   6.966  10.943  0.1857 -0.0736 -0.0518
79120SOL    HW155352  12.409   7.002  10.951  0.8961 -1.5729 -0.7071
79120SOL    HW255353  12.305   6.961  10.849  0.3595 -1.9462 -0.0128
79121SOL     OW55354   6.092   1.507  11.498 -0.0014 -0.4243  0.5245
79121SOL    HW155355   6.113   1.577  11.559 -1.8697  0.9669 -0.3403
79121SOL    HW255356   6.146   1.525  11.421  0.9502 -1.0953  1.0082
79122SOL     OW55357  12.473  11.086  12.186 -0.1993 -0.4805 -0.1451
79122SOL    HW155358  12.477  11.037  12.268  2.2499  0.0551  0.1460
79122SOL    HW255359  12.549  11.056  12.137  0.7661  2.1292 -0.4258
79123SOL     OW55360  11.195   1.176   3.152  0.0236 -0.1385 -0.2865
79123SOL    HW155361  11.221   1.188   3.060 -1.0504  1.4380 -0.4185
79123SOL    HW255362  11.276   1.191   3.201  0.2038  0.9779 -0.8881
79124SOL     OW55363  13.446   3.276   3.219 -0.1125 -0.0612  0.1546
79124SOL    HW155364  13.492   3.193   3.228 -0.6257 -0.2978  0.7164
79124SOL    HW255365  13.394   3.267   3.139 -1.6872 -1.0666  1.2223
79125SOL     OW55366   8.709   4.478   8.143  0.1487 -0.4403 -0.0686
79125SOL    HW155367   8.712   4.497   8.049  0.9583 -0.2364 -0.0024
79125SOL    HW255368   8.734   4.560   8.185 -1.0513 -0.2726  0.3647
79126SOL     OW55369   2.075  10.016   1.397 -0.5045  0.0318 -0.4048
79126SOL    HW155370   2.137   9.969   1.340  1.7120  1.1722  0.9487
79126SOL    HW255371   2.059  10.099   1.352  0.6093  0.5929  0.1973
79127SOL     OW55372   4.832   8.190   4.460  0.4581 -0.3288 -0.6153
79127SOL    HW155373   4.780   8.110   4.464 -2.3277  1.3108 -0.8449
79127SOL    HW255374   4.877   8.194   4.544 -0.0089 -1.7304 -0.2740
79128SOL     OW55375   5.264  12.957   5.294  0.0596  0.2695 -0.1723
79128SOL    HW155376   5.278  12.874   5.338 -2.9261  1.0160  2.6028
79128SOL    HW255377   5.350  12.997   5.289  1.0496 -1.4770  1.7526
79129SOL     OW55378  13.390   4.748   6.899 -0.9323 -0.5881  0.4839
79129SOL    HW155379  13.339   4.716   6.974 -0.0490 -1.2434  0.8262
79129SOL    HW255380  13.474   4.703   6.907 -0.1159  0.8210  0.2140
79130SOL     OW55381   9.465   5.305   1.347 -1.0099 -0.7804  0.4920
79130SOL    HW155382   9.525   5.230   1.342 -1.2756 -0.9217 -1.0919
79130SOL    HW255383   9.378   5.266   1.346 -1.1428 -0.4862  0.5813
79131SOL     OW55384   1.458  12.594  12.388  0.0197  0.4647 -0.3065
79131SOL    HW155385   1.481  12.654  12.459 -0.5083 -0.4916  0.7159
79131SOL    HW255386   1.540  12.577  12.343  1.0692 -1.4198  2.0908
79132SOL     OW55387   7.230   8.136   8.197  0.1541 -0.0257  0.4535
79132SOL    HW155388   7.310   8.134   8.249  1.8648 -0.6227 -2.0183
79132SOL    HW255389   7.222   8.047   8.162 -1.1895  0.2226  0.0575
79133SOL     OW55390   9.159   7.803   7.315  0.0719 -0.0802  0.0054
79133SOL    HW155391   9.202   7.867   7.371  1.8538 -0.9479 -0.3039
79133SOL    HW255392   9.166   7.720   7.362 -0.4538 -0.4151 -0.4822
79134SOL     OW55393  13.931   1.011  13.317  0.2554 -0.3253 -0.0929
79134SOL    HW155394  13.977   0.955  13.254  0.9278 -1.5107  1.3827
79134SOL    HW255395  13.980   1.000  13.399 -3.2929 -2.7453  1.9879
79135SOL     OW55396  12.614   9.086   5.964 -0.1508 -0.0331 -0.7255
79135SOL    HW155397  12.624   9.131   6.048  0.6209 -0.9113 -0.3201
79135SOL    HW255398  12.623   9.155   5.898 -0.6051  0.6406 -0.0939
79136SOL     OW55399  10.529   9.173   7.000 -0.1430  0.3446  0.2647
79136SOL    HW155400  10.439   9.192   7.028  0.1721  1.8367  0.3357
79136SOL    HW255401  10.576   9.255   7.014  1.2427 -0.4178  0.2234
79137SOL     OW55402  12.466   0.814   7.946  0.3644  0.8378 -0.3723
79137SOL    HW155403  12.435   0.875   8.013  1.5057  1.6584 -0.5583
79137SOL    HW255404  12.407   0.828   7.872  0.1829  1.1955 -0.1635
79138SOL     OW55405   3.458   5.712  12.084 -0.5532  0.2950  0.4365
79138SOL    HW155406   3.487   5.691  11.996 -2.9340  2.3685 -0.9873
79138SOL    HW255407   3.525   5.770  12.118  0.8232 -1.2048  0.3907
79139SOL     OW55408  13.265  13.396  10.798 -0.0723  0.4779 -0.1897
79139SOL    HW155409  13.351  13.355  10.802  0.3426  1.1535 -1.6670
79139SOL    HW255410  13.271  13.471  10.858  0.5526  0.8272 -0.6740
79140SOL     OW55411   2.512   6.267  11.805  0.1150  0.3103 -0.2178
79140SOL    HW155412   2.599   6.230  11.819 -0.2135 -0.1528  0.6591
79140SOL    HW255413   2.524   6.361  11.820  0.5453  0.3020 -0.4975
79141SOL     OW55414   0.574   8.674   3.936 -0.2169  0.5258  0.2279
79141SOL    HW155415   0.640   8.606   3.923  0.9767  1.5304  0.8070
79141SOL    HW255416   0.514   8.663   3.862  1.4199  0.4978 -1.1663
79142SOL     OW55417   0.395   1.722  12.968 -0.0682 -0.1429 -0.0305
79142SOL    HW155418   0.355   1.726  13.055 -1.2760  0.2319 -0.5780
79142SOL    HW255419   0.423   1.631  12.958 -1.4065 -0.5934  0.1226
79143SOL     OW55420   8.729  13.941   3.267 -0.1445  0.3429 -0.3001
79143SOL    HW155421   8.753  14.025   3.228  0.6973  0.6602  0.8434
79143SOL    HW255422   8.639  13.953   3.298  0.3798  1.2796  0.9770
79144SOL     OW55423   8.294   4.185  13.851  0.2450 -0.2804  0.3860
79144SOL    HW155424   8.387   4.204  13.859  0.3205 -1.3661  2.7562
79144SOL    HW255425   8.251   4.267  13.876  0.6070 -0.8476  3.1925
79145SOL     OW55426  11.064  12.987   3.603 -0.2620 -0.2290  0.3696
79145SOL    HW155427  11.159  12.973   3.606 -0.3145 -0.4439  1.3593
79145SOL    HW255428  11.051  13.051   3.533  0.7163  0.5971  0.9265
79146SOL     OW55429   2.731   8.315   0.374 -0.0180  0.0542 -0.7353
79146SOL    HW155430   2.718   8.320   0.469  1.5056 -0.8082 -0.4446
79146SOL    HW255431   2.719   8.223   0.352 -0.0481  0.1938 -1.3229
79147SOL     OW55432   1.436   1.876   1.846 -0.2626 -0.3729  0.1412
79147SOL    HW155433   1.516   1.848   1.803  0.3174 -0.1836  1.0600
79147SOL    HW255434   1.395   1.936   1.784  1.3266  1.1069  0.4080
79148SOL     OW55435   0.511   6.518   0.505  0.5658  0.5980 -0.8470
79148SOL    HW155436   0.534   6.435   0.546  2.1703  1.0121 -0.8648
79148SOL    HW255437   0.495   6.578   0.578  0.1155  0.4740 -0.8387
79149SOL     OW55438  13.638  10.287   3.472 -0.3946 -0.1974 -0.4616
79149SOL    HW155439  13.700  10.256   3.538 -1.9027 -0.4087  0.9139
79149SOL    HW255440  13.691  10.339   3.411  1.0531 -0.0852  0.8445
79150SOL     OW55441   3.990   4.514   3.116 -0.5572  0.3264  0.3274
79150SOL    HW155442   3.900   4.514   3.150 -0.0261  2.5969  1.9521
79150SOL    HW255443   3.980   4.533   3.023 -1.7547  2.8310  0.8658
79151SOL     OW55444   6.462  10.846   6.326 -0.0027  0.4426 -0.2155
79151SOL    HW155445   6.420  10.886   6.249 -0.8136 -1.2087 -0.6781
79151SOL    HW255446   6.394  10.848   6.393 -0.0231 -0.0784 -0.2191
79152SOL     OW55447   3.400   2.652   7.472  0.3095 -0.2420 -0.1175
79152SOL    HW155448   3.319   2.660   7.420  0.1597 -1.9431 -0.1881
79152SOL    HW255449   3.465   2.699   7.420 -0.3305 -0.0211 -0.7479
79153SOL     OW55450  14.148  13.266  10.711 -0.1419  0.1041  0.0630
79153SOL    HW155451  14.086  13.339  10.706 -1.0051 -0.4005  2.2510
79153SOL    HW255452  14.225  13.297  10.663 -1.0306  1.8720 -0.3120
79154SOL     OW55453   7.758   6.029   0.491  0.1378 -0.0909  0.3292
79154SOL    HW155454   7.695   5.984   0.434  1.6128 -1.4374 -0.3096
79154SOL    HW255455   7.815   6.076   0.430  1.5424 -1.2855  0.6602
79155SOL     OW55456   0.856   1.652   2.425  0.0410 -0.3663 -0.1039
79155SOL    HW155457   0.777   1.624   2.473 -0.2060  0.1324 -0.2135
79155SOL    HW255458   0.902   1.570   2.406 -0.5085 -0.6734 -0.1357
79156SOL     OW55459   9.103   6.489  10.780  0.1298  0.2499  0.1431
79156SOL    HW155460   9.144   6.407  10.806 -0.9362 -0.5491 -0.5980
79156SOL    HW255461   9.175   6.542  10.746  0.9438 -0.0863  1.2670
79157SOL     OW55462  11.888   8.254   6.860  0.1529  0.3638 -0.0035
79157SOL    HW155463  11.941   8.331   6.877 -0.1949  0.5617  0.2027
79157SOL    HW255464  11.821   8.284   6.798  0.6039 -0.0166 -0.6955
79158SOL     OW55465  12.975  11.941   2.441  0.0736  0.2406 -0.2054
79158SOL    HW155466  13.053  11.888   2.454 -1.2987 -1.6265  0.8634
79158SOL    HW255467  12.967  11.992   2.522 -0.6962 -0.8369  0.4277
79159SOL     OW55468   3.245   2.950  10.862 -0.5809  0.0246  0.2579
79159SOL    HW155469   3.243   3.025  10.804 -0.6403  0.5635  0.9495
79159SOL    HW255470   3.334   2.947  10.896 -0.5527 -0.2688  0.1634
79160SOL     OW55471   3.768  12.997   9.429  0.2509  0.2652  0.0187
79160SOL    HW155472   3.758  12.957   9.516  1.0825 -0.3456 -0.1592
79160SOL    HW255473   3.860  13.023   9.425  1.2299 -2.9752 -2.0234
79161SOL     OW55474   0.693   0.502   4.332 -0.3342  0.1072 -0.0372
79161SOL    HW155475   0.641   0.453   4.396  0.0640  0.8341  0.8763
79161SOL    HW255476   0.678   0.594   4.355  1.8761  0.3413  0.7227
79162SOL     OW55477   4.603  12.434   9.061  0.4523 -0.1518 -0.4996
79162SOL    HW155478   4.532  12.495   9.081  0.3957 -0.6031  0.7157
79162SOL    HW255479   4.623  12.450   8.968 -1.2201 -0.0204 -0.8563
79163SOL     OW55480   5.486   2.240   0.456  0.3126  0.6035  0.4119
79163SOL    HW155481   5.512   2.276   0.541 -0.2642  1.9431  0.0462
79163SOL    HW255482   5.478   2.316   0.399 -0.6703 -0.1345 -0.4785
79164SOL     OW55483   9.951   6.312  11.548 -1.0287  0.4342 -0.0983
79164SOL    HW155484   9.933   6.394  11.593 -0.2315  0.8654 -0.5500
79164SOL    HW255485   9.973   6.337  11.459  0.6135 -0.1312  0.1045
79165SOL     OW55486   7.391   9.390   7.076  0.2682  0.3373 -0.2537
79165SOL    HW155487   7.337   9.389   7.155 -1.1325 -0.2846 -1.1782
79165SOL    HW255488   7.332   9.421   7.007  1.9768  2.9028 -0.7447
79166SOL     OW55489   7.377   7.024   4.354 -0.5374 -0.0492  0.2525
79166SOL    HW155490   7.283   7.029   4.370 -0.9647 -0.6324 -1.7880
79166SOL    HW255491   7.385   7.021   4.259  1.6065  0.8651  0.3400
79167SOL     OW55492   8.909   9.202   4.147  0.3769 -0.1128  0.0516
79167SOL    HW155493   8.950   9.116   4.140 -0.7167 -0.8326  1.9448
79167SOL    HW255494   8.815   9.184   4.142  0.1557  1.2831 -2.1456
79168SOL     OW55495   9.602   2.270   1.292 -0.0804  0.3975 -0.2483
79168SOL    HW155496   9.570   2.325   1.221 -2.0106 -0.0287  0.2182
79168SOL    HW255497   9.647   2.331   1.351  0.2055  0.9983 -1.0701
79169SOL     OW55498   8.969   9.997   3.975  0.3313 -0.3155 -0.3919
79169SOL    HW155499   9.034   9.959   4.035  1.1429  1.7356  0.0954
79169SOL    HW255500   8.929  10.068   4.025 -0.0105  0.5161 -1.7949
79170SOL     OW55501   1.996   9.991  12.344  0.0188  0.2125 -0.2942
79170SOL    HW155502   1.945  10.009  12.265 -0.4345 -1.8185 -0.5003
79170SOL    HW255503   2.052   9.917  12.321 -0.4318 -0.7029  1.3966
79171SOL     OW55504  13.135   3.815   6.346 -0.5850 -0.0529 -0.3193
79171SOL    HW155505  13.082   3.815   6.267 -1.9069  1.3262  0.5001
79171SOL    HW255506  13.216   3.771   6.321 -1.7524 -1.4851 -1.8630
79172SOL     OW55507   0.491   8.678  13.026 -0.0726 -0.0688  0.1203
79172SOL    HW155508   0.418   8.667  13.087  0.0173  1.8841  0.6514
79172SOL    HW255509   0.569   8.662  13.079 -0.0603 -2.4240 -0.5095
79173SOL     OW55510   9.232   8.871   5.342 -0.7288  0.3844  0.0996
79173SOL    HW155511   9.238   8.845   5.250 -3.0220 -1.7553  0.4496
79173SOL    HW255512   9.315   8.842   5.380 -0.7141 -0.9349 -0.8381
79174SOL     OW55513   6.960   2.100  13.131  0.1091  0.6624  0.4318
79174SOL    HW155514   7.017   2.177  13.125 -0.3416  1.0056  0.4915
79174SOL    HW255515   7.014   2.034  13.174  1.0165  0.4433 -0.9629
79175SOL     OW55516   1.328   1.031  13.557 -0.1129  0.7240  0.2167
79175SOL    HW155517   1.318   0.987  13.642  1.3532  0.4011  0.2432
79175SOL    HW255518   1.366   1.116  13.579 -0.4003  0.9300 -0.0732
79176SOL     OW55519   1.593  12.081   5.538  0.0514  0.2070  0.4315
79176SOL    HW155520   1.562  11.997   5.504  0.2263  0.3610 -0.1107
79176SOL    HW255521   1.529  12.105   5.605 -0.8229  0.3520 -0.4247
79177SOL     OW55522  10.217   4.852  11.968  0.0139  0.2102  0.1247
79177SOL    HW155523  10.134   4.849  12.015 -1.2458  0.0614 -1.9780
79177SOL    HW255524  10.238   4.945  11.963 -1.8560  0.5985 -2.2221
79178SOL     OW55525   6.555   9.305  11.078  0.0255  0.4075 -0.4391
79178SOL    HW155526   6.550   9.333  11.169  0.1335  1.3786 -0.7192
79178SOL    HW255527   6.649   9.299  11.060  0.0046  0.2356 -0.4972
79179SOL     OW55528  11.450  10.719  10.119  0.0324 -0.2481  0.3691
79179SOL    HW155529  11.487  10.707  10.207 -0.0588 -1.0612  0.3012
79179SOL    HW255530  11.361  10.750  10.134  0.3796  0.6830  0.5477
79180SOL     OW55531   3.448   0.695   5.378  0.0131  0.2021  0.1120
79180SOL    HW155532   3.477   0.683   5.468 -0.2193 -0.4521  0.1027
79180SOL    HW255533   3.438   0.606   5.343 -3.1991  0.2756  0.5149
79181SOL     OW55534  12.806   5.756   4.923 -0.3059 -0.0319  0.0015
79181SOL    HW155535  12.716   5.777   4.947 -0.5756 -0.1739 -0.8445
79181SOL    HW255536  12.835   5.694   4.990 -0.7908  0.1115  0.3526
79182SOL     OW55537  13.599   0.695   8.861 -0.6419 -0.2087  0.3213
79182SOL    HW155538  13.607   0.717   8.954  0.2982  1.2873 -0.0782
79182SOL    HW255539  13.689   0.673   8.835 -0.4746  1.5380 -0.7118
79183SOL     OW55540   9.204   0.321  12.156 -0.2382  0.3264  0.0322
79183SOL    HW155541   9.184   0.255  12.089  0.1745 -1.4706  1.5901
79183SOL    HW255542   9.294   0.347  12.137 -0.1791 -0.0529 -0.2337
79184SOL     OW55543   4.077   0.444  12.199 -0.3100 -0.4534  0.1515
79184SOL    HW155544   4.046   0.382  12.265  3.0725 -1.2419  1.2291
79184SOL    HW255545   4.026   0.523  12.214 -0.9484 -1.2231  2.5131
79185SOL     OW55546  13.905  11.600  10.413  0.1824 -0.1116  0.4664
79185SOL    HW155547  13.932  11.519  10.370 -0.4265 -0.0788  0.0116
79185SOL    HW255548  13.975  11.619  10.475  1.0225 -0.2311 -0.4173
79186SOL     OW55549   0.545   3.526   8.705  0.0374  0.2954 -0.1374
79186SOL    HW155550   0.478   3.576   8.658  0.5755  0.4782 -0.7164
79186SOL    HW255551   0.625   3.579   8.696  0.5334 -0.4958 -0.4505
79187SOL     OW55552   5.258   7.281  10.280  0.0451  0.7346  0.6220
79187SOL    HW155553   5.247   7.322  10.366  0.7923  0.5016  0.8372
79187SOL    HW255554   5.349   7.251  10.279 -0.1261  0.2048 -0.0188
79188SOL     OW55555   1.693   7.945   6.921  0.0914  0.2030  0.3117
79188SOL    HW155556   1.652   7.932   6.835 -1.8501  1.6312  0.9704
79188SOL    HW255557   1.644   7.889   6.980  1.0812 -0.3610  0.6330
79189SOL     OW55558  11.295  11.089   5.492 -0.8891  0.1283  0.5516
79189SOL    HW155559  11.359  11.022   5.467 -0.5601 -0.2030  2.1704
79189SOL    HW255560  11.311  11.162   5.431  1.3238  0.2229  1.1732
79190SOL     OW55561   8.971   5.573  10.607 -0.3625  0.3776  0.4756
79190SOL    HW155562   8.928   5.539  10.686 -0.6616  0.8374  0.5158
79190SOL    HW255563   8.926   5.656  10.589 -0.7560 -0.0305 -0.5522
79191SOL     OW55564   8.076   3.050   0.845 -0.5538  0.2421 -0.1165
79191SOL    HW155565   8.090   3.145   0.840 -0.4647  0.3301  1.5215
79191SOL    HW255566   8.023   3.031   0.768 -0.5053  1.6040 -0.5281
79192SOL     OW55567  11.626  12.877   6.911  0.1299 -0.4107 -0.5910
79192SOL    HW155568  11.600  12.953   6.962 -0.5367 -0.2701 -1.1229
79192SOL    HW255569  11.624  12.804   6.973  0.2101 -0.0964 -0.2147
79193SOL     OW55570   5.442   3.244   4.960 -0.3664 -0.5008 -0.0090
79193SOL    HW155571   5.511   3.215   4.901 -2.0678 -0.1308 -2.3173
79193SOL    HW255572   5.488   3.289   5.031  1.7503 -0.7097 -1.1827
79194SOL     OW55573  13.630   9.257   3.303  0.0945  0.0808  0.3409
79194SOL    HW155574  13.587   9.295   3.227  0.6523 -0.8840 -0.4790
79194SOL    HW255575  13.588   9.171   3.315  0.2202  0.0953  0.9319
79195SOL     OW55576   5.130   6.805  13.614 -0.2988  0.0222 -0.3087
79195SOL    HW155577   5.131   6.733  13.550 -0.3674  0.7655 -1.1740
79195SOL    HW255578   5.083   6.770  13.689 -1.7132 -0.3421 -1.3330
79196SOL     OW55579   9.636  11.998   8.810  0.8601 -0.0072  0.1543
79196SOL    HW155580   9.590  11.924   8.770  1.0140 -0.6671  1.1528
79196SOL    HW255581   9.645  12.062   8.740  1.0679 -1.0950 -0.8369
79197SOL     OW55582   1.507   5.987   7.994  0.5294 -0.3348 -0.0857
79197SOL    HW155583   1.547   5.958   8.076  0.8453  0.7669  0.1631
79197SOL    HW255584   1.526   6.080   7.990 -0.4722 -0.1511 -0.8556
79198SOL     OW55585   1.123   8.291   6.894 -0.0835  0.4295  0.1130
79198SOL    HW155586   1.041   8.286   6.942 -0.8929  3.3571 -0.8114
79198SOL    HW255587   1.183   8.235   6.944 -2.2915 -0.9004  1.4300
79199SOL     OW55588   4.782   1.354  13.954 -0.6239 -0.1464  0.2214
79199SOL    HW155589   4.708   1.371  14.012 -0.8404  0.8345 -0.3099
79199SOL    HW255590   4.819   1.441  13.937  0.9063 -0.6543  0.7925
79200SOL     OW55591  12.334   1.947   0.694 -0.3912 -0.1826  0.1657
79200SOL    HW155592  12.242   1.943   0.670 -1.0768  0.0946  2.4854
79200SOL    HW255593  12.338   1.906   0.780  1.4211  1.0097  0.7066
79201SOL     OW55594   3.707   9.658  10.318 -0.2223 -0.0306 -0.4213
79201SOL    HW155595   3.723   9.727  10.382 -1.9073  0.4398 -0.4691
79201SOL    HW255596   3.694   9.703  10.235  1.5718 -0.6185 -1.0920
79202SOL     OW55597   8.687   5.772   3.689 -0.3421  0.0839 -0.1709
79202SOL    HW155598   8.659   5.780   3.598 -0.6462 -0.2111 -0.1051
79202SOL    HW255599   8.775   5.808   3.690 -0.0678 -0.5542 -0.7253
79203SOL     OW55600   0.532   9.336   9.192  0.0595 -0.2083  0.0386
79203SOL    HW155601   0.492   9.254   9.220 -1.0065  1.0884  2.6646
79203SOL    HW255602   0.602   9.309   9.133 -0.1499 -3.0090  0.9027
79204SOL     OW55603  12.836   2.257   9.075  0.0729  0.1015 -0.0726
79204SOL    HW155604  12.841   2.167   9.109 -1.3432 -0.5842 -1.5568
79204SOL    HW255605  12.927   2.286   9.074  0.4584 -0.8869  1.4801
79205SOL     OW55606   5.087   6.273  12.276  0.1069  0.0032 -0.5803
79205SOL    HW155607   5.009   6.326  12.258 -0.3473 -0.0160  1.1815
79205SOL    HW255608   5.075   6.194  12.223  0.0392  0.9480 -2.0405
79206SOL     OW55609  12.869   0.771   6.200  0.1187 -0.2642 -0.2745
79206SOL    HW155610  12.929   0.720   6.255 -0.8972 -1.1995 -0.0136
79206SOL    HW255611  12.881   0.735   6.112 -1.0528 -1.4261  0.0137
79207SOL     OW55612   9.371   8.552   3.335 -0.0772 -0.0843  0.7455
79207SOL    HW155613   9.397   8.503   3.257 -2.2770  1.1307 -0.8590
79207SOL    HW255614   9.315   8.491   3.384 -1.8701  0.3717 -0.6570
79208SOL     OW55615   6.144  13.473  12.561 -0.2545 -0.5022 -0.0533
79208SOL    HW155616   6.135  13.380  12.539 -0.3393 -0.0127 -2.2963
79208SOL    HW255617   6.238  13.487  12.572 -0.1392 -0.6339 -0.8318
79209SOL     OW55618   5.764  13.219  10.350 -0.3898  0.2266  0.3833
79209SOL    HW155619   5.741  13.156  10.418 -2.0056 -0.3783 -0.6553
79209SOL    HW255620   5.680  13.257  10.323  0.1578  0.2807 -1.4181
79210SOL     OW55621   5.563   4.295  10.176  0.1854 -0.1027  0.3635
79210SOL    HW155622   5.608   4.289  10.261 -0.1652 -0.8548  0.5084
79210SOL    HW255623   5.577   4.385  10.148  2.8882 -0.6188 -0.2083
79211SOL     OW55624   5.357  13.438   9.690 -0.1713 -0.1496 -0.3021
79211SOL    HW155625   5.326  13.528   9.702 -0.1453 -0.2562  0.5804
79211SOL    HW255626   5.349  13.423   9.595 -1.4560  0.3197 -0.2885
79212SOL     OW55627   3.014   5.654  14.051  0.3206  0.1703 -0.4322
79212SOL    HW155628   2.962   5.732  14.066  1.9847  1.7706 -2.3418
79212SOL    HW255629   3.000   5.632  13.958  1.9417 -0.1257 -0.6525
79213SOL     OW55630   5.671   4.552   7.357  0.5413 -0.3402  0.0960
79213SOL    HW155631   5.756   4.545   7.315  1.0082 -0.5778  1.0537
79213SOL    HW255632   5.609   4.563   7.285  1.4755  0.8564 -0.5638
79214SOL     OW55633   9.366   1.415  12.769  0.3112 -0.0970 -0.2991
79214SOL    HW155634   9.365   1.489  12.831 -1.1039  0.7337 -1.2425
79214SOL    HW255635   9.401   1.452  12.688  0.6101 -0.7459 -0.4700
79215SOL     OW55636  13.808   8.246   4.694  0.0735  0.2109  0.4367
79215SOL    HW155637  13.749   8.264   4.768  0.7349  1.3180  0.7151
79215SOL    HW255638  13.777   8.162   4.660 -0.5291 -0.1189  1.6966
79216SOL     OW55639   0.632   7.840  11.226 -0.7816 -0.2052  0.2354
79216SOL    HW155640   0.562   7.897  11.194 -0.8673  1.0951  2.5194
79216SOL    HW255641   0.590   7.754  11.235 -1.2907 -0.1236 -1.0216
79217SOL     OW55642   4.099   7.981   2.705  0.0864 -0.4707  0.0243
79217SOL    HW155643   4.093   8.074   2.725  1.0976 -0.3827 -0.0237
79217SOL    HW255644   4.180   7.973   2.654  0.9625 -1.6097  1.5135
79218SOL     OW55645   0.741  12.480  12.222  0.1709 -0.4521  0.8844
79218SOL    HW155646   0.799  12.540  12.175  0.7540 -1.5328  0.1795
79218SOL    HW255647   0.756  12.499  12.315 -0.7012  1.4410  0.6712
79219SOL     OW55648   9.422  13.119   8.848 -0.2848 -0.5368  0.3524
79219SOL    HW155649   9.366  13.047   8.879 -1.2828  0.1359  0.1535
79219SOL    HW255650   9.431  13.104   8.754  1.8493 -1.9657  0.7217
79220SOL     OW55651   8.317   1.890   6.734 -0.0542 -0.6018 -0.1396
79220SOL    HW155652   8.252   1.828   6.767  0.2974 -1.1841 -0.5206
79220SOL    HW255653   8.368   1.839   6.671  0.3239  0.0439 -0.3573
79221SOL     OW55654   8.445   0.179  12.246  0.1636 -0.0912 -0.8579
79221SOL    HW155655   8.382   0.125  12.294  0.0651  0.1177 -0.7494
79221SOL    HW255656   8.429   0.268  12.278  0.4867 -0.0312 -0.8567
79222SOL     OW55657   2.105   1.723  12.015 -0.3311 -0.2570 -0.4303
79222SOL    HW155658   2.090   1.744  12.108 -0.4618  1.2562 -0.7588
79222SOL    HW255659   2.113   1.809  11.973 -1.0437 -0.9015 -1.9471
79223SOL     OW55660   4.112  11.831   0.115 -0.2407 -0.0796 -0.3956
79223SOL    HW155661   4.057  11.848   0.039 -0.5875 -0.3385 -0.2003
79223SOL    HW255662   4.103  11.909   0.170 -0.3085 -0.0659 -0.4267
79224SOL     OW55663   2.937   5.504   9.770  0.2862  0.0823 -0.1848
79224SOL    HW155664   2.854   5.486   9.727  0.0508 -0.7521  0.5915
79224SOL    HW255665   3.002   5.456   9.717  0.3772  1.1918 -1.1220
79225SOL     OW55666  13.393  11.618   7.587  0.3644 -0.3451 -0.3443
79225SOL    HW155667  13.482  11.604   7.617  0.9225 -0.6788 -2.0515
79225SOL    HW255668  13.343  11.546   7.625  1.0465 -0.8068 -0.3126
79226SOL     OW55669   3.556  10.412   7.972  0.0736 -0.1885 -0.0896
79226SOL    HW155670   3.530  10.345   7.908  1.5253  0.3282 -1.2864
79226SOL    HW255671   3.498  10.486   7.953 -0.2101 -0.4142 -0.1070
79227SOL     OW55672   3.518   3.807  11.723  0.6717  0.3728 -0.8618
79227SOL    HW155673   3.533   3.900  11.741 -2.2955  0.5347  1.5694
79227SOL    HW255674   3.523   3.765  11.809 -0.2521 -1.3432 -1.5998
79228SOL     OW55675  11.199   2.230   0.054  0.3940  0.1658  0.1136
79228SOL    HW155676  11.287   2.240   0.018  0.0849 -1.3490 -1.1832
79228SOL    HW255677  11.151   2.182  -0.014 -1.3619  0.7253  0.9012
79229SOL     OW55678  11.775   6.672   6.008  0.2668  0.1717  0.7325
79229SOL    HW155679  11.699   6.643   6.058  0.6113  0.3864  1.3895
79229SOL    HW255680  11.772   6.767   6.014 -0.9225  0.3546 -1.4987
79230SOL     OW55681   4.126  14.001   9.532  0.0569  0.1374  0.5710
79230SOL    HW155682   4.073  13.988   9.610  0.2184 -0.9679  0.5173
79230SOL    HW255683   4.199  14.056   9.561 -1.2878  2.0031  0.5545
79231SOL     OW55684   9.097  11.459   7.391 -0.5742 -0.3460  0.2797
79231SOL    HW155685   9.097  11.504   7.307  0.7756 -2.1896 -0.7845
79231SOL    HW255686   9.025  11.395   7.385 -0.7705 -0.1738  0.7168
79232SOL     OW55687  10.008   0.689   2.811  0.3144  0.3912  0.4484
79232SOL    HW155688   9.921   0.727   2.799  0.7986  1.6948  0.8433
79232SOL    HW255689  10.068   0.759   2.783  1.2563  0.1665  1.8520
79233SOL     OW55690   5.134   0.529  12.813  0.1663  0.9238 -0.1764
79233SOL    HW155691   5.193   0.584  12.864 -0.9751  3.2101 -1.1681
79233SOL    HW255692   5.046   0.557  12.839 -0.4487  0.4564 -1.6142
79234SOL     OW55693   4.352   8.970   5.011 -0.4185 -0.2280  0.0023
79234SOL    HW155694   4.285   9.014   5.063 -0.5599 -0.5025  0.0514
79234SOL    HW255695   4.435   8.998   5.050 -0.5094 -0.0595  0.0756
79235SOL     OW55696  10.303  10.933   9.179 -0.3155  0.4563 -0.6404
79235SOL    HW155697  10.334  10.889   9.099  1.9897 -0.8321  0.8442
79235SOL    HW255698  10.339  11.022   9.171  0.0636  0.2817 -0.9532
79236SOL     OW55699  11.789   0.462   3.678 -0.5884  0.0529 -0.0463
79236SOL    HW155700  11.798   0.548   3.719  0.2461  0.4198 -0.9516
79236SOL    HW255701  11.817   0.475   3.587 -0.4169 -1.1730 -0.1940
79237SOL     OW55702  13.307   9.707   4.730  0.6549 -0.1157 -0.0744
79237SOL    HW155703  13.381   9.668   4.776  1.8788  2.5224  0.4294
79237SOL    HW255704  13.346   9.777   4.678 -1.4250  1.1713 -0.0321
79238SOL     OW55705   7.415  10.717   5.554 -0.4324 -0.3011 -0.5036
79238SOL    HW155706   7.488  10.657   5.537 -0.6510 -0.1161 -2.3713
79238SOL    HW255707   7.412  10.725   5.649  2.6627  0.5120 -0.3509
79239SOL     OW55708  12.267   1.153   4.484 -0.0551  0.2237 -0.0438
79239SOL    HW155709  12.273   1.220   4.552 -1.5322 -0.7406  1.0940
79239SOL    HW255710  12.176   1.153   4.457  0.8166  1.9423 -3.5579
79240SOL     OW55711  11.171   7.986  11.736  0.1376  0.6175  0.2477
79240SOL    HW155712  11.247   7.978  11.794  0.5019 -0.2711 -0.3361
79240SOL    HW255713  11.196   8.054  11.673 -0.2542  1.5765  1.0908
79241SOL     OW55714   3.560   6.412   5.445  0.1424  0.3748  0.0134
79241SOL    HW155715   3.487   6.367   5.487 -1.0771  0.8751 -1.4795
79241SOL    HW255716   3.519   6.477   5.388  1.7157  0.1321 -1.4878
79242SOL     OW55717   4.126  12.496   4.010  0.6892  0.3761  0.9689
79242SOL    HW155718   4.077  12.503   3.928  0.0600  1.8019  1.4435
79242SOL    HW255719   4.185  12.421   3.996  1.4447  1.2993 -1.2259
79243SOL     OW55720  12.425  13.031  12.881  0.1581  0.1892  0.0707
79243SOL    HW155721  12.426  12.935  12.888 -0.4786  0.2063  0.4733
79243SOL    HW255722  12.387  13.048  12.795 -0.0795  0.0835  0.1540
79244SOL     OW55723   8.277  10.593   8.021  0.5641 -0.1456  0.1241
79244SOL    HW155724   8.242  10.639   8.098 -0.1392  0.5869 -0.6174
79244SOL    HW255725   8.200  10.570   7.970  1.0868  0.8597 -1.1814
79245SOL     OW55726   4.075   9.774   6.202 -0.2627 -0.3643  0.1241
79245SOL    HW155727   3.994   9.779   6.151 -0.6604 -0.1900  0.7571
79245SOL    HW255728   4.123   9.854   6.180  0.6249 -1.3456 -1.6865
79246SOL     OW55729   9.577   4.624   5.054  0.5643  0.2125  0.7601
79246SOL    HW155730   9.655   4.582   5.090  2.0853  1.1748 -1.1914
79246SOL    HW255731   9.593   4.717   5.064 -0.2958  0.4223  0.2710
79247SOL     OW55732   5.830   0.583   0.006 -0.3221 -0.0625 -0.1424
79247SOL    HW155733   5.898   0.644   0.037 -0.2857  0.0509 -0.4492
79247SOL    HW255734   5.878   0.519  -0.046 -0.5862  0.5957 -1.2084
79248SOL     OW55735   3.820   9.406   1.900  0.5631 -0.1514 -0.6163
79248SOL    HW155736   3.775   9.393   1.816 -0.3599 -1.0345 -0.0063
79248SOL    HW255737   3.874   9.328   1.911 -0.1274 -0.5353  0.0941
79249SOL     OW55738  10.175   8.135  12.300 -0.4257  0.2869  0.5678
79249SOL    HW155739  10.164   8.041  12.308 -2.9044  0.6352  2.5942
79249SOL    HW255740  10.132   8.157  12.218 -1.1404 -0.1950  0.8079
79250SOL     OW55741   3.398  13.618   7.589 -0.2946  0.2747 -0.0955
79250SOL    HW155742   3.469  13.683   7.590 -0.5971  0.6073  1.1720
79250SOL    HW255743   3.342  13.644   7.516  0.8606  0.0119 -1.1224
79251SOL     OW55744   4.597   6.344  11.330  0.0893  0.1101 -0.4349
79251SOL    HW155745   4.638   6.392  11.259  0.5639 -1.5723 -1.3463
79251SOL    HW255746   4.655   6.357  11.405  1.1946 -0.5630 -1.1631
79252SOL     OW55747   7.782  10.102   6.890  0.0336  0.1926  0.7367
79252SOL    HW155748   7.757  10.166   6.823  0.9171  0.3952  0.6007
79252SOL    HW255749   7.701  10.090   6.941 -0.0602  1.7029  1.0057
79253SOL     OW55750   3.871  13.331   0.872  0.4123  0.3905 -0.0275
79253SOL    HW155751   3.892  13.271   0.800  0.9155  0.4726  0.0468
79253SOL    HW255752   3.804  13.285   0.923  0.6423 -0.0186 -0.0922
79254SOL     OW55753   6.739  10.154   2.209  0.0216  0.0614  0.2614
79254SOL    HW155754   6.831  10.167   2.186  0.6095  1.4122  2.9548
79254SOL    HW255755   6.728  10.201   2.292 -3.4140  0.9473 -0.5336
79255SOL     OW55756   1.338   9.735   6.943 -0.0864 -0.2018  0.0208
79255SOL    HW155757   1.300   9.710   7.028  1.6677 -0.8685  0.6654
79255SOL    HW255758   1.335   9.655   6.891 -0.4356 -0.0010 -0.2715
79256SOL     OW55759  12.750  10.421  10.006 -0.0178  0.2178 -0.0730
79256SOL    HW155760  12.678  10.367  10.039  1.5013 -1.1139  1.2649
79256SOL    HW255761  12.818  10.358   9.982  0.4244  1.3955 -2.1315
79257SOL     OW55762   7.693  12.898   1.599 -0.0260  0.0824  0.5471
79257SOL    HW155763   7.688  12.859   1.687 -0.1850  0.6039  0.7762
79257SOL    HW255764   7.632  12.972   1.603 -1.7143 -1.1883 -0.6909
79258SOL     OW55765  11.161   8.645   5.755  0.1310 -0.2546 -0.2847
79258SOL    HW155766  11.167   8.583   5.683  0.8409 -0.7292  0.1685
79258SOL    HW255767  11.231   8.619   5.816 -0.4882  0.0922  0.6022
79259SOL     OW55768  12.987  11.838   4.661 -0.1718  0.0108 -0.2227
79259SOL    HW155769  12.904  11.876   4.634 -0.4523  1.1802  2.0603
79259SOL    HW255770  13.049  11.911   4.658  0.3150 -0.3865  0.0421
79260SOL     OW55771   1.532   9.805   8.391  0.3554  0.0558 -0.0571
79260SOL    HW155772   1.594   9.855   8.445 -1.3772 -0.0167  2.1424
79260SOL    HW255773   1.586   9.769   8.320  2.3088  2.1527  0.2336
79261SOL     OW55774  12.775   5.122   9.155  0.2517  0.1676 -0.2120
79261SOL    HW155775  12.868   5.130   9.135  0.7303 -1.2881  1.2501
79261SOL    HW255776  12.770   5.131   9.250 -0.7814 -2.1321  0.0105
79262SOL     OW55777   4.089  11.894   6.172 -0.1053 -0.1405  0.2855
79262SOL    HW155778   4.021  11.837   6.136 -0.2037 -0.1231  0.4458
79262SOL    HW255779   4.115  11.949   6.098 -0.5702  0.1476  0.3314
79263SOL     OW55780   7.970   3.100  12.786 -0.6795  0.2622  0.3661
79263SOL    HW155781   7.886   3.066  12.816 -0.5585  0.6099  1.1140
79263SOL    HW255782   7.949   3.186  12.750 -0.2925  1.5149  2.9650
79264SOL     OW55783   9.771   3.734   5.793 -0.1290 -0.4106  0.1618
79264SOL    HW155784   9.703   3.783   5.748  0.5296 -0.2537 -0.6857
79264SOL    HW255785   9.837   3.717   5.726  1.2647  0.5419  1.2274
79265SOL     OW55786   3.306   3.101  11.687  0.0834 -0.0159 -0.5047
79265SOL    HW155787   3.333   3.092  11.596 -0.7138 -1.6583 -0.6213
79265SOL    HW255788   3.244   3.029  11.701  1.8593 -1.2268  1.9644
79266SOL     OW55789   2.086   2.255   2.717  0.3178 -0.4235 -0.1201
79266SOL    HW155790   2.052   2.337   2.681 -0.1029  0.7893  2.7427
79266SOL    HW255791   2.012   2.195   2.712 -0.4987  0.4620  0.8526
79267SOL     OW55792   8.988  12.199   1.477  0.1491 -0.2446 -0.2845
79267SOL    HW155793   9.079  12.195   1.505  0.2712 -3.2054 -0.7547
79267SOL    HW255794   8.992  12.220   1.384  0.2806  0.3716 -0.1449
79268SOL     OW55795   4.838   5.664   6.777  0.2458 -0.1104 -0.0262
79268SOL    HW155796   4.896   5.593   6.807  0.8853  0.6767  0.6570
79268SOL    HW255797   4.896   5.722   6.728 -0.5181 -0.6666 -1.6754
79269SOL     OW55798  12.884  11.112   5.999  0.2529  0.1346  0.2865
79269SOL    HW155799  12.921  11.030   6.031  0.6558  0.3472  0.3817
79269SOL    HW255800  12.925  11.125   5.913  1.9891  1.3783  1.2349
79270SOL     OW55801   2.970   9.380   2.938  0.4293 -0.0348 -0.2416
79270SOL    HW155802   3.032   9.434   2.986  0.1262 -0.0980  0.2224
79270SOL    HW255803   2.951   9.431   2.858 -1.4179  1.5596  1.1012
79271SOL     OW55804  10.264  11.287  10.463 -0.1229  0.4185  0.1687
79271SOL    HW155805  10.213  11.366  10.444 -0.2491  0.5061  0.8681
79271SOL    HW255806  10.306  11.266  10.380  1.2655  2.1875  0.3523
79272SOL     OW55807  12.426   1.053  10.874 -0.0801  0.3556 -0.4982
79272SOL    HW155808  12.513   1.038  10.911  0.8517  2.5223 -1.6893
79272SOL    HW255809  12.425   1.000  10.794 -0.4731 -0.8678  0.2810
79273SOL     OW55810   2.087   4.154  12.699 -0.3521  1.1954 -0.0590
79273SOL    HW155811   2.024   4.164  12.628 -0.2028 -1.7402 -0.6928
79273SOL    HW255812   2.045   4.196  12.775 -2.6632  0.1619 -0.6957
79274SOL     OW55813  13.416  12.426   8.870  0.0391 -0.1357 -0.8703
79274SOL    HW155814  13.331  12.419   8.913  0.4629 -0.0682  0.0093
79274SOL    HW255815  13.429  12.520   8.856 -0.0843 -0.1544 -1.1005
79275SOL     OW55816  11.643   7.113   2.371 -0.2302 -0.1390 -0.2998
79275SOL    HW155817  11.624   7.045   2.307  0.0490 -0.5294  0.0327
79275SOL    HW255818  11.580   7.097   2.442 -0.2912  0.0684 -0.3058
79276SOL     OW55819  11.244  12.410   6.214 -0.4255  0.1677 -0.1787
79276SOL    HW155820  11.211  12.325   6.185 -0.0650  0.2399 -0.8177
79276SOL    HW255821  11.239  12.406   6.310 -0.8462 -0.3951 -0.2168
79277SOL     OW55822   7.129   9.271   0.420 -0.0930  0.3054  0.1494
79277SOL    HW155823   7.081   9.220   0.354 -0.6202  1.1115 -0.1064
79277SOL    HW255824   7.188   9.326   0.369  0.1785  0.2481  0.4021
79278SOL     OW55825   8.338   1.169   6.816  0.2825  0.2872  0.0561
79278SOL    HW155826   8.351   1.187   6.909 -1.2716  0.8255  0.2043
79278SOL    HW255827   8.417   1.202   6.774  0.5532  0.9987  1.0879
79279SOL     OW55828   0.108   2.844  10.813 -0.1008  0.0935  0.1871
79279SOL    HW155829   0.154   2.811  10.890 -1.0258  1.0910  1.1853
79279SOL    HW255830   0.176   2.886  10.761  0.3703  0.2862  0.9413
79280SOL     OW55831  13.661   9.430   8.743 -0.1193  0.1558 -0.2423
79280SOL    HW155832  13.716   9.354   8.759 -1.5650 -1.2272 -1.4953
79280SOL    HW255833  13.615   9.409   8.662 -2.6019  1.1537  0.8284
79281SOL     OW55834   2.180   6.940  12.341 -0.5992 -0.5069  0.3828
79281SOL    HW155835   2.217   6.952  12.254 -0.9006 -1.8069  0.0582
79281SOL    HW255836   2.122   6.864  12.333 -1.4818  0.0144  1.4589
79282SOL     OW55837  10.033  14.080   2.953 -0.2076  0.2342  0.2519
79282SOL    HW155838  10.044  14.172   2.930  2.1684  0.2128  1.0355
79282SOL    HW255839  10.069  14.073   3.041  0.3096 -1.5452 -0.0653
79283SOL     OW55840   6.441  13.793  12.710  0.3388  0.0649 -0.0677
79283SOL    HW155841   6.435  13.870  12.766 -0.6354 -0.5283  0.6725
79283SOL    HW255842   6.353  13.754  12.713  1.1273 -1.7998  0.6479
79284SOL     OW55843  10.287   2.647   1.759  0.3515 -0.6282  0.0632
79284SOL    HW155844  10.326   2.731   1.736 -2.1699  0.5595 -0.2681
79284SOL    HW255845  10.348   2.582   1.726  1.9314  1.0750 -0.5121
79285SOL     OW55846   5.407  11.558  13.535 -0.0187  0.0714 -0.3168
79285SOL    HW155847   5.449  11.590  13.615  0.8349 -0.6179 -0.4830
79285SOL    HW255848   5.318  11.594  13.540 -0.6448 -1.5226  1.9423
79286SOL     OW55849   7.001   0.491  12.004  0.1403 -0.4926  0.0827
79286SOL    HW155850   7.024   0.487  12.097 -0.2885 -0.1835  0.2017
79286SOL    HW255851   7.054   0.422  11.964 -0.0429 -0.9625  0.6353
79287SOL     OW55852  12.453  13.479   8.426 -0.1749 -0.6521  0.0973
79287SOL    HW155853  12.378  13.476   8.485 -0.8410  1.5312 -0.5230
79287SOL    HW255854  12.522  13.522   8.477 -0.6282  0.8774 -0.4974
79288SOL     OW55855   8.432   8.983   5.274  0.2333  0.2221  0.1019
79288SOL    HW155856   8.375   8.982   5.197  0.5660  0.3432 -0.1455
79288SOL    HW255857   8.506   8.927   5.250 -0.0612 -0.4055  0.6391
79289SOL     OW55858   3.186  11.149   3.788  0.0616 -0.7505 -0.2444
79289SOL    HW155859   3.113  11.207   3.808 -0.0301 -0.7296 -0.6361
79289SOL    HW255860   3.262  11.191   3.829 -0.2685 -1.1513  0.7942
79290SOL     OW55861   7.049   7.288   0.929  0.3828  0.6716  0.6498
79290SOL    HW155862   7.030   7.367   0.980  0.0503  1.4282 -0.6015
79290SOL    HW255863   7.042   7.316   0.838 -1.0783 -1.1092  0.1429
79291SOL     OW55864   6.009  10.574  11.556  0.0041  0.5388 -0.0690
79291SOL    HW155865   6.031  10.619  11.474  1.2218  1.7278  0.8583
79291SOL    HW255866   5.950  10.504  11.530  1.4187  0.0316 -2.1348
79292SOL     OW55867  10.212   8.877  10.349 -0.0900  0.5647 -0.2247
79292SOL    HW155868  10.269   8.925  10.410  0.0882 -0.4379  0.4104
79292SOL    HW255869  10.127   8.921  10.357  0.4611  1.7982 -0.8654
79293SOL     OW55870  12.627  10.778   2.264  0.3895  0.4540  0.6360
79293SOL    HW155871  12.660  10.830   2.190 -0.8903  0.0835 -0.2230
79293SOL    HW255872  12.540  10.813   2.281  0.2602 -0.1665  1.2818
79294SOL     OW55873   6.709   1.457   2.721  0.0006 -0.1772  0.6312
79294SOL    HW155874   6.676   1.367   2.724  2.9403 -1.4849 -1.3882
79294SOL    HW255875   6.719   1.475   2.627  1.1280  1.6008  1.0628
79295SOL     OW55876  12.181  10.654   1.452  0.2986  0.4629  0.2747
79295SOL    HW155877  12.257  10.662   1.395  0.9018  1.6934  1.1933
79295SOL    HW255878  12.202  10.583   1.512  0.3405  0.2249 -0.0201
79296SOL     OW55879   1.469  12.146   7.589 -0.0443 -0.1431  0.1598
79296SOL    HW155880   1.444  12.082   7.523 -0.3350 -1.1603  1.2146
79296SOL    HW255881   1.386  12.178   7.624  0.1065  0.3973  0.0310
79297SOL     OW55882  12.507   3.508   3.899 -0.2401 -0.4199 -0.1813
79297SOL    HW155883  12.429   3.458   3.923 -0.2810 -0.0157  0.5745
79297SOL    HW255884  12.576   3.443   3.891 -0.7751 -0.8573 -1.4600
79298SOL     OW55885  10.263   7.476   3.160 -0.1897 -0.2129  0.2728
79298SOL    HW155886  10.202   7.510   3.225  0.5878  0.4647  0.6638
79298SOL    HW255887  10.332   7.542   3.154  1.5909 -1.8572  1.3763
79299SOL     OW55888   7.970   8.017   3.552  0.0294 -0.3081  0.0661
79299SOL    HW155889   8.049   8.063   3.582  0.8565 -1.2017 -0.6906
79299SOL    HW255890   7.906   8.087   3.537  0.9435  0.5133 -0.1031
79300SOL     OW55891  10.549  11.946  14.026 -0.8261 -0.6221  0.2922
79300SOL    HW155892  10.481  11.932  14.092  0.1256 -2.8185  0.9079
79300SOL    HW255893  10.627  11.969  14.078 -0.5562 -0.3276 -0.2385
79301SOL     OW55894   9.435  12.986  11.229  0.4984 -0.2246 -0.2479
79301SOL    HW155895   9.389  12.946  11.155 -0.0180  0.0432 -0.0810
79301SOL    HW255896   9.494  12.918  11.261 -0.1037 -0.7218 -0.1894
79302SOL     OW55897   1.792   7.082  12.280  0.6455  0.7088 -0.0278
79302SOL    HW155898   1.702   7.051  12.277  0.7460  0.4288 -0.2006
79302SOL    HW255899   1.841   7.018  12.229  1.0186  0.6024  0.4530
79303SOL     OW55900  10.636   5.888  11.479  0.2222  0.0554 -0.3315
79303SOL    HW155901  10.579   5.924  11.547  1.4995 -1.9149  1.9132
79303SOL    HW255902  10.581   5.826  11.431  0.0482 -0.7793  0.9055
79304SOL     OW55903  12.929  13.648   0.534  0.2768 -0.2406 -0.1302
79304SOL    HW155904  12.937  13.730   0.584 -0.5521 -0.3985  0.2779
79304SOL    HW255905  12.835  13.639   0.518  0.4895 -0.3735 -1.4351
79305SOL     OW55906  13.596   5.506   4.394  0.4012 -0.4060 -0.4270
79305SOL    HW155907  13.621   5.441   4.460 -0.9745 -0.9099 -0.3570
79305SOL    HW255908  13.500   5.504   4.394  0.2140  2.5512  0.5183
79306SOL     OW55909  13.580   2.556   9.985 -0.3879 -0.2783 -0.2999
79306SOL    HW155910  13.535   2.536  10.067  2.0103  0.6338  1.3669
79306SOL    HW255911  13.610   2.471   9.952  1.3769 -0.4643  1.5532
79307SOL     OW55912   9.643   8.688   1.403 -0.0712 -0.3237  0.2272
79307SOL    HW155913   9.729   8.696   1.445  0.4164 -0.4987 -0.7068
79307SOL    HW255914   9.586   8.653   1.471  1.2937 -3.1195  0.0626
79308SOL     OW55915  10.846   7.600  13.044 -0.0212 -0.5270  0.3285
79308SOL    HW155916  10.809   7.547  12.973  0.6104 -1.3416  0.5990
79308SOL    HW255917  10.772   7.654  13.074 -0.6632 -1.2050  0.0004
79309SOL     OW55918   6.344   2.330   9.498 -0.0873 -0.0703  0.1903
79309SOL    HW155919   6.414   2.385   9.533  0.1997 -1.5283  2.0336
79309SOL    HW255920   6.273   2.339   9.561 -1.1151  0.3732 -0.9907
79310SOL     OW55921   1.698  10.929   0.403 -0.0708 -0.0182  0.0125
79310SOL    HW155922   1.695  11.002   0.341 -0.1365  0.8555  1.0194
79310SOL    HW255923   1.763  10.869   0.365  2.4130  2.0393  0.6827
79311SOL     OW55924   5.472   3.040   0.728 -0.6599 -0.6390  0.0008
79311SOL    HW155925   5.439   3.118   0.772 -1.4423 -0.5567 -0.6941
79311SOL    HW255926   5.509   2.986   0.798  2.1912  1.4063  0.2497
79312SOL     OW55927   7.103   4.560  12.611 -0.1461 -0.0256  0.6732
79312SOL    HW155928   7.076   4.474  12.579 -0.8797  0.5999 -0.4545
79312SOL    HW255929   7.065   4.566  12.698 -1.3458 -0.2755  0.1818
79313SOL     OW55930   0.924   7.093  13.712  0.3612  0.0271 -0.6731
79313SOL    HW155931   0.976   7.022  13.673  1.2824  1.7480 -2.7574
79313SOL    HW255932   0.986   7.166  13.720 -0.7970  0.9191  0.5235
79314SOL     OW55933  12.076   7.220  13.035 -0.3968  0.3926 -0.0641
79314SOL    HW155934  12.158   7.210  13.084 -1.0358 -0.4523  0.8601
79314SOL    HW255935  12.041   7.304  13.063  0.3145  0.9456 -0.7515
79315SOL     OW55936  12.992  12.915   0.058  0.0830 -0.1855 -0.0755
79315SOL    HW155937  12.925  12.882   0.118 -0.7105  3.5148  1.3546
79315SOL    HW255938  12.962  12.888  -0.029 -1.4997 -1.3446  0.7667
79316SOL     OW55939   2.694   6.762  14.020  0.0714  0.4401  0.1013
79316SOL    HW155940   2.642   6.728  13.947 -1.0208 -0.4525  1.2527
79316SOL    HW255941   2.630   6.783  14.088  1.1194  0.3604  1.1577
79317SOL     OW55942   9.166  11.746   7.421  0.1877 -0.4072  0.2592
79317SOL    HW155943   9.163  11.784   7.333  1.3809  0.4509  0.5601
79317SOL    HW255944   9.081  11.765   7.459 -0.4852 -1.1160 -0.8219
79318SOL     OW55945  12.938   0.668   7.939 -0.8205 -0.1620  0.4209
79318SOL    HW155946  12.996   0.720   7.884  0.4435 -1.1789  0.7586
79318SOL    HW255947  12.851   0.681   7.901 -0.0644 -0.4420 -1.5069
79319SOL     OW55948  10.363  12.286  10.465  0.1135 -0.3072 -0.0890
79319SOL    HW155949  10.431  12.335  10.418 -1.6799 -0.5590 -3.2746
79319SOL    HW255950  10.322  12.349  10.523  0.5230  0.9167 -1.0923
79320SOL     OW55951   0.754   2.125   5.730  0.2742 -0.2806 -0.0666
79320SOL    HW155952   0.693   2.061   5.693  0.4416  0.1792 -1.1552
79320SOL    HW255953   0.750   2.109   5.824 -1.7931 -0.0410 -0.0610
79321SOL     OW55954   3.037  13.508  10.308 -0.7359 -0.4454 -0.2433
79321SOL    HW155955   3.103  13.501  10.377 -0.5139 -1.6411 -0.5566
79321SOL    HW255956   2.981  13.431  10.321 -1.0985 -0.3128 -0.9804
79322SOL     OW55957   4.496  10.396   3.785 -0.6311  0.5223  0.0032
79322SOL    HW155958   4.572  10.365   3.835 -1.6864 -1.7955  0.2881
79322SOL    HW255959   4.534  10.452   3.718  1.0692  1.6088  1.7417
79323SOL     OW55960  13.834  12.962  11.726 -0.1863 -0.2141  0.2393
79323SOL    HW155961  13.767  12.901  11.695 -0.9484  1.2511 -1.1300
79323SOL    HW255962  13.785  13.038  11.758  0.7494  1.3750 -1.8421
79324SOL     OW55963   0.187   7.703   4.491 -0.9287  0.0458 -0.1763
79324SOL    HW155964   0.144   7.618   4.504 -1.4013  0.4504  1.0216
79324SOL    HW255965   0.229   7.695   4.406 -1.8675 -1.0124 -0.5716
79325SOL     OW55966   0.157   7.140   9.378  0.0391 -0.5485  0.0687
79325SOL    HW155967   0.085   7.093   9.337  0.1660 -0.2586 -0.4963
79325SOL    HW255968   0.117   7.219   9.415  0.0082 -0.5617  0.0631
79326SOL     OW55969   3.785   8.831  11.295 -0.0191 -0.5982 -0.0830
79326SOL    HW155970   3.850   8.777  11.339 -1.0436 -0.5575  1.6061
79326SOL    HW255971   3.701   8.794  11.324 -0.7686 -0.7654 -2.3274
79327SOL     OW55972   5.160   6.700   2.703 -0.3474  0.0630  0.4129
79327SOL    HW155973   5.222   6.651   2.648 -0.8075  0.5362 -0.5502
79327SOL    HW255974   5.193   6.790   2.702  0.6601 -0.2190  2.4112
79328SOL     OW55975  10.039  13.569   6.892 -0.2405  0.1724 -0.1871
79328SOL    HW155976  10.000  13.526   6.816  0.8601 -1.2074 -0.0234
79328SOL    HW255977   9.985  13.542   6.966  0.1723 -0.5841 -0.1511
79329SOL     OW55978   9.569   7.807   7.462 -0.2724 -0.9386  0.2121
79329SOL    HW155979   9.483   7.770   7.484 -0.3311 -0.6802  0.4223
79329SOL    HW255980   9.568   7.895   7.500 -0.6526 -0.1804 -1.4484
79330SOL     OW55981   6.995   2.690   8.647 -0.1392 -0.1392  0.0518
79330SOL    HW155982   7.053   2.691   8.723  0.2770 -2.9813 -0.1336
79330SOL    HW255983   7.053   2.678   8.572 -0.5706  2.3385 -0.7810
79331SOL     OW55984  10.305   2.466  10.251 -0.1174  0.3982  0.2680
79331SOL    HW155985  10.238   2.449  10.317  0.3010  0.8606  0.8223
79331SOL    HW255986  10.381   2.416  10.280 -0.0296  0.3447 -0.0465
79332SOL     OW55987   2.341  13.629   5.047  0.0365 -0.1676 -0.0903
79332SOL    HW155988   2.281  13.569   5.004 -1.1716  1.2290 -0.4438
79332SOL    HW255989   2.299  13.648   5.131 -0.3344  1.2676 -0.5801
79333SOL     OW55990  12.026  11.021   5.786 -0.2333  0.1201  0.6706
79333SOL    HW155991  12.080  11.019   5.864  1.0752  0.2027 -0.2058
79333SOL    HW255992  12.040  10.937   5.744 -2.2190 -0.6094  1.3193
79334SOL     OW55993   1.252   4.256   9.866 -0.2147  0.1321 -0.3501
79334SOL    HW155994   1.178   4.196   9.879  0.6804 -1.1567 -0.9033
79334SOL    HW255995   1.267   4.295   9.952 -0.5769 -0.7633  0.1408
79335SOL     OW55996  10.161   3.229   4.287  0.7671 -0.3605  0.3174
79335SOL    HW155997  10.184   3.295   4.353  0.4410  0.0522  0.0183
79335SOL    HW255998  10.095   3.271   4.232  1.4902 -0.4804 -0.6647
79336SOL     OW55999   1.068   4.856   0.737  0.1648  0.1469 -0.1443
79336SOL    HW156000   0.994   4.810   0.697 -0.3869  1.8098 -1.1404
79336SOL    HW256001   1.036   4.879   0.825 -0.3315  0.4333 -0.3947
79337SOL     OW56002   6.871  12.455   3.768  0.0360  0.6457  0.1432
79337SOL    HW156003   6.839  12.407   3.692 -0.0531  0.3022  0.3935
79337SOL    HW256004   6.964  12.465   3.753  0.4494 -1.3578  1.0000
79338SOL     OW56005   7.418   1.891   9.029  0.8919  0.1364  0.4150
79338SOL    HW156006   7.348   1.859   8.972  0.8742  4.2395 -2.2758
79338SOL    HW256007   7.380   1.890   9.116 -2.0634  0.9106 -0.7433
79339SOL     OW56008   2.205   4.714   2.390 -0.2996 -0.1680  0.6979
79339SOL    HW156009   2.205   4.639   2.330 -0.2028  0.3532  0.0299
79339SOL    HW256010   2.167   4.785   2.339 -0.8061  0.1273  1.4759
79340SOL     OW56011   6.416   5.713   9.105  0.0972 -0.2932 -0.2101
79340SOL    HW156012   6.468   5.653   9.050 -1.6425 -2.8396  0.7370
79340SOL    HW256013   6.464   5.717   9.188  1.1394  1.1191 -0.8481
79341SOL     OW56014   3.569   8.623   0.126 -0.7632 -0.4598 -0.1534
79341SOL    HW156015   3.608   8.614   0.039  0.6877  0.3297  0.3838
79341SOL    HW256016   3.500   8.557   0.128 -2.6279  1.1865 -2.8378
79342SOL     OW56017  12.390   9.174   9.204 -0.3553  0.2205  0.2464
79342SOL    HW156018  12.435   9.102   9.159  1.2999  1.1809  0.2739
79342SOL    HW256019  12.416   9.165   9.295  0.4722  1.2702  0.1263
79343SOL     OW56020   8.062   9.726  10.058 -0.1070  0.3112 -0.7168
79343SOL    HW156021   8.143   9.714  10.009  0.2317  0.4512 -0.1945
79343SOL    HW256022   8.085   9.788  10.128 -0.6249  0.2396 -0.4787
79344SOL     OW56023   1.721   4.912   7.054  0.7798  0.3976  0.3913
79344SOL    HW156024   1.736   4.977   6.985  0.3525  0.7967  0.6739
79344SOL    HW256025   1.798   4.855   7.050  0.2296 -0.2979 -1.2003
79345SOL     OW56026   0.065   3.507  11.071 -0.2039  0.0392 -0.2796
79345SOL    HW156027  -0.012   3.455  11.097 -0.7043  0.7872 -0.2143
79345SOL    HW256028   0.138   3.445  11.074 -0.9091 -0.8487 -0.9998
79346SOL     OW56029   6.691  10.178  10.739  0.2403  0.1188  0.6386
79346SOL    HW156030   6.693  10.257  10.793 -1.7211  1.1132 -0.6148
79346SOL    HW256031   6.629  10.120  10.784  2.0204 -0.9548  1.8002
79347SOL     OW56032   2.507   7.016  12.740 -0.0967 -0.0638  0.2185
79347SOL    HW156033   2.511   7.102  12.783 -0.5706 -0.6165  1.3910
79347SOL    HW256034   2.421   7.016  12.698 -0.4009 -0.2462  0.8331
79348SOL     OW56035   6.173   5.783   2.616  0.2750 -0.2780 -0.4657
79348SOL    HW156036   6.097   5.730   2.591  0.6084  0.1924 -2.6610
79348SOL    HW256037   6.247   5.724   2.605  0.4249 -0.0799 -0.5051
79349SOL     OW56038   4.685   0.216   1.143  0.1149 -0.5347 -0.1059
79349SOL    HW156039   4.738   0.139   1.124  0.3023 -0.2225 -0.8662
79349SOL    HW256040   4.608   0.208   1.087  0.8225  0.5538 -1.2892
79350SOL     OW56041   8.490  13.465   4.275 -0.2890 -0.0091 -0.3665
79350SOL    HW156042   8.453  13.377   4.279 -0.0434 -0.1854 -1.5766
79350SOL    HW256043   8.540  13.473   4.356  0.0089 -1.1249 -0.4199
79351SOL     OW56044   4.430   8.574   4.473 -0.1304 -0.2293  0.1102
79351SOL    HW156045   4.457   8.664   4.458 -0.3397 -0.3592 -1.1151
79351SOL    HW256046   4.440   8.562   4.568 -0.6406  1.2436  0.3792
79352SOL     OW56047   4.249  13.964   4.165  0.1516 -0.4127  0.3789
79352SOL    HW156048   4.343  13.944   4.163 -0.1587 -1.9937  0.4667
79352SOL    HW256049   4.239  14.024   4.239  1.3272  1.2442 -0.7325
79353SOL     OW56050   8.478  12.485   1.416 -0.0603  0.3218  0.0486
79353SOL    HW156051   8.470  12.579   1.396 -0.4153  0.4757  0.8927
79353SOL    HW256052   8.422  12.472   1.492 -1.3726 -0.9189 -1.0786
79354SOL     OW56053  11.703   5.902  11.417  1.0214  0.7919 -0.1866
79354SOL    HW156054  11.732   5.811  11.426 -1.2361 -0.2217 -1.9602
79354SOL    HW256055  11.729   5.926  11.328  0.1101  1.2634 -0.3329
79355SOL     OW56056   5.547  14.110   5.070 -0.0325 -0.0275 -0.1697
79355SOL    HW156057   5.475  14.152   5.024 -0.1074  0.0997  0.0621
79355SOL    HW256058   5.625  14.135   5.020  0.0105  1.0027  0.3818
79356SOL     OW56059   6.891   9.413   5.195 -0.0664 -0.1991 -0.2434
79356SOL    HW156060   6.816   9.413   5.254 -0.9652 -1.9782 -1.3004
79356SOL    HW256061   6.861   9.366   5.117  2.6073 -2.5921 -0.0094
79357SOL     OW56062   6.855   8.532  11.583  0.3703 -0.1600  0.0054
79357SOL    HW156063   6.794   8.502  11.651  0.8653  0.8878  0.9516
79357SOL    HW256064   6.886   8.452  11.542  0.5236 -0.8832  1.4500
79358SOL     OW56065  11.256  13.434  13.670  0.0719 -0.4447 -0.5439
79358SOL    HW156066  11.337  13.483  13.658 -0.2656 -0.0327 -1.2010
79358SOL    HW256067  11.283  13.342  13.673  0.8833 -0.1986  2.1648
79359SOL     OW56068  10.037  11.432   5.881 -0.8247 -0.3486  0.1249
79359SOL    HW156069   9.954  11.435   5.929 -2.0449  1.0802 -1.8605
79359SOL    HW256070  10.091  11.500   5.921 -1.3260 -0.0654  0.3305
79360SOL     OW56071   9.932  10.570   4.389  0.1712  0.4861 -0.3166
79360SOL    HW156072   9.940  10.658   4.428  0.2491  0.5936 -0.5750
79360SOL    HW256073   9.915  10.513   4.464  0.4602  0.6712 -0.1081
79361SOL     OW56074   1.738   0.597  13.024  0.3777 -0.0583  0.7879
79361SOL    HW156075   1.792   0.588  13.102 -0.4647  1.0482  1.5209
79361SOL    HW256076   1.742   0.690  13.002  0.4492 -0.3185 -0.3864
79362SOL     OW56077   3.077   0.346  10.686  0.7789 -0.0398 -0.3428
79362SOL    HW156078   3.061   0.439  10.673  3.9426  0.5480 -0.6534
79362SOL    HW256079   3.079   0.335  10.782  0.8272  0.2886 -0.3063
79363SOL     OW56080   9.900   8.829   0.109  0.0900 -0.4317  0.3893
79363SOL    HW156081   9.871   8.758   0.167 -0.1705  0.2594  1.1169
79363SOL    HW256082   9.995   8.831   0.120  0.0675 -0.4721  0.5874
79364SOL     OW56083  11.882   5.877   9.972  0.0824  0.0964  0.5291
79364SOL    HW156084  11.914   5.875   9.882  0.0220 -1.4134  0.5011
79364SOL    HW256085  11.803   5.823   9.970  0.3586 -0.3814  1.5607
79365SOL     OW56086   2.250  13.980   8.122  0.2152 -0.2439  0.5815
79365SOL    HW156087   2.252  13.900   8.174  0.0712  0.3174  1.4719
79365SOL    HW256088   2.341  14.007   8.114  0.1288  0.5102  1.8989
79366SOL     OW56089   1.671  13.313   7.387 -0.0132  0.5667  0.5509
79366SOL    HW156090   1.736  13.381   7.407  0.7176 -0.3219  1.3120
79366SOL    HW256091   1.718  13.250   7.332 -0.5813  0.5162  0.1230
79367SOL     OW56092  13.879   7.514   9.106 -0.1679 -0.9047 -0.2571
79367SOL    HW156093  13.794   7.512   9.063  0.2012 -0.2393 -1.0270
79367SOL    HW256094  13.924   7.436   9.072  0.2759 -0.1645 -1.4221
79368SOL     OW56095  10.743   1.115   3.196  0.0460 -0.1571  0.1582
79368SOL    HW156096  10.659   1.094   3.236  0.2155 -0.3814  0.3993
79368SOL    HW256097  10.797   1.037   3.210  0.5171  0.2395  0.6265
79369SOL     OW56098   0.481   9.000   4.991  0.0258 -0.0027  0.0353
79369SOL    HW156099   0.394   9.007   5.031 -0.3600 -0.2367 -0.7446
79369SOL    HW256100   0.510   9.090   4.978 -0.6884  0.0953 -0.9472
79370SOL     OW56101   7.718  14.055   8.668  0.2624  0.3379 -0.1496
79370SOL    HW156102   7.643  14.044   8.609  1.2635 -1.2761 -1.1867
79370SOL    HW256103   7.679  14.081   8.751 -1.6912 -2.3342 -0.0935
79371SOL     OW56104   2.178   6.843   7.928 -0.8782  0.3759 -0.1579
79371SOL    HW156105   2.150   6.914   7.986 -0.7945  0.9693 -0.8366
79371SOL    HW256106   2.162   6.876   7.840  0.2004 -0.0152 -0.5101
79372SOL     OW56107   3.191   7.424  11.466  0.2327  0.5547  0.5347
79372SOL    HW156108   3.217   7.516  11.463 -0.0332  0.6080 -0.4857
79372SOL    HW256109   3.272   7.377  11.489  0.7930  0.9038 -0.6033
79373SOL     OW56110   9.142   3.197   4.440 -0.0180  0.1194  0.2666
79373SOL    HW156111   9.138   3.293   4.438 -1.1762  0.0796 -1.7960
79373SOL    HW256112   9.214   3.174   4.381  0.5959 -0.3073  1.1487
79374SOL     OW56113   4.104   4.148   2.118 -0.2409 -0.3277  0.9188
79374SOL    HW156114   4.025   4.097   2.133 -1.7298  1.6951  0.3747
79374SOL    HW256115   4.105   4.164   2.024 -0.3305  1.3610  1.1695
79375SOL     OW56116   4.039  12.367   0.194  0.0149 -0.9484  0.3533
79375SOL    HW156117   4.037  12.462   0.183  3.0102 -0.7796  0.6150
79375SOL    HW256118   4.007  12.353   0.284  1.6695  0.0803  1.1650
79376SOL     OW56119   2.685   1.771   9.057  0.0015 -0.3119 -0.6242
79376SOL    HW156120   2.774   1.772   9.022 -0.7556 -0.5739 -2.7549
79376SOL    HW256121   2.676   1.686   9.099  0.9849  0.0237  0.3013
79377SOL     OW56122   9.159   7.716   8.353  0.3459  0.2838  0.0991
79377SOL    HW156123   9.251   7.689   8.350  0.6788  1.4865 -1.8657
79377SOL    HW256124   9.113   7.637   8.381  1.8117 -0.7931 -0.3561
79378SOL     OW56125   9.552   1.694   8.140  0.4211 -0.1523 -0.5173
79378SOL    HW156126   9.555   1.757   8.212  0.2214 -0.2459 -0.4279
79378SOL    HW256127   9.491   1.732   8.077 -0.1959 -0.5624 -0.1746
79379SOL     OW56128  10.531   6.777   1.936  0.4173  0.1999  0.1431
79379SOL    HW156129  10.483   6.701   1.968  0.8539  0.5239  1.6696
79379SOL    HW256130  10.618   6.743   1.913 -0.2296 -0.2276 -1.7867
79380SOL     OW56131   2.461   2.447  11.253  0.0222  0.5555  0.6302
79380SOL    HW156132   2.513   2.387  11.308 -1.8408 -0.9489  0.8383
79380SOL    HW256133   2.466   2.531  11.298  0.5404 -0.0694  1.7878
79381SOL     OW56134   1.978  10.752  13.364 -1.0359  0.0085  0.1114
79381SOL    HW156135   1.895  10.725  13.402  0.1042 -0.7054  2.2928
79381SOL    HW256136   2.017  10.810  13.431  0.4023 -0.0393 -0.6447
79382SOL     OW56137   1.745  11.652  10.862 -0.1468 -0.0695 -0.0579
79382SOL    HW156138   1.657  11.666  10.828 -0.4371  1.7515  1.2887
79382SOL    HW256139   1.785  11.739  10.861  1.2301 -0.6705  0.4628
79383SOL     OW56140   1.679   7.357   5.351  0.0509  0.4488 -0.5612
79383SOL    HW156141   1.608   7.293   5.340  1.1713 -0.9434 -0.0674
79383SOL    HW256142   1.677   7.408   5.270  0.2004 -1.3710 -1.7975
79384SOL     OW56143  11.974   0.116   7.178 -0.1133 -0.3120 -0.5498
79384SOL    HW156144  11.949   0.166   7.099 -0.0512 -0.0568 -0.4106
79384SOL    HW256145  12.048   0.063   7.150  1.4689  1.5120 -0.0827
79385SOL     OW56146   5.586   1.532  11.517 -0.2143  0.3490 -0.3550
79385SOL    HW156147   5.621   1.459  11.465  0.9538  0.5615  0.1098
79385SOL    HW256148   5.496   1.541  11.487 -0.2233 -0.9496 -0.7976
79386SOL     OW56149   1.581   4.318   7.691  0.5688 -0.1155  0.1221
79386SOL    HW156150   1.486   4.327   7.678  0.9767  1.4690 -2.6155
79386SOL    HW256151   1.596   4.224   7.696 -1.0796 -0.4088 -0.0561
79387SOL     OW56152   1.950  12.208   2.903 -0.4425 -0.2088  0.4424
79387SOL    HW156153   1.886  12.156   2.855 -1.3106  0.1107  1.2180
79387SOL    HW256154   1.979  12.274   2.841 -0.9722 -0.2797  0.1133
79388SOL     OW56155   7.315  12.325   0.916 -0.3030  1.0372  0.2168
79388SOL    HW156156   7.328  12.419   0.903  0.3281  1.0880  1.1413
79388SOL    HW256157   7.281  12.294   0.832 -0.7220  2.1231 -0.0282
79389SOL     OW56158  12.211  11.509   3.960 -0.8752  0.1067 -0.1093
79389SOL    HW156159  12.301  11.476   3.963 -0.7704 -0.0069 -2.2554
79389SOL    HW256160  12.157  11.435   3.986 -0.3336  0.5795  2.5617
79390SOL     OW56161   2.305  12.840  12.401  0.1013  0.1101  0.5854
79390SOL    HW156162   2.267  12.778  12.463 -0.2988  1.5576  1.8412
79390SOL    HW256163   2.386  12.869  12.442 -0.3849  1.4197  0.6574
79391SOL     OW56164   8.320   6.630  11.977  0.1150 -0.1766 -0.3377
79391SOL    HW156165   8.396   6.629  11.919  0.3353 -1.1199 -0.0520
79391SOL    HW256166   8.328   6.713  12.025  0.8184 -0.1406 -0.4974
79392SOL     OW56167  10.583   5.106   8.619  0.6934  0.0279 -0.4069
79392SOL    HW156168  10.609   5.040   8.555  1.6621  0.3459 -0.3745
79392SOL    HW256169  10.491   5.122   8.602  0.6577 -0.7178 -0.9663
79393SOL     OW56170   3.355   7.176   7.007 -0.4686 -0.0012  0.4347
79393SOL    HW156171   3.322   7.198   6.920  0.3528 -0.4231 -0.0037
79393SOL    HW256172   3.300   7.104   7.037 -0.3469 -0.2910 -0.0258
79394SOL     OW56173  12.544   5.496   2.920  0.3207 -0.2414 -0.1544
79394SOL    HW156174  12.563   5.551   2.844 -0.9783  0.5273  0.0388
79394SOL    HW256175  12.470   5.442   2.893 -0.1534  0.0405  0.5542
79395SOL     OW56176   4.635   6.000   5.572 -0.0199 -0.0348 -0.0788
79395SOL    HW156177   4.656   5.935   5.505 -1.2451  0.2182 -0.7417
79395SOL    HW256178   4.561   6.049   5.536 -0.0423  0.7941  1.0232
79396SOL     OW56179   2.349   0.506  13.507 -0.6029  0.0751  0.4118
79396SOL    HW156180   2.314   0.439  13.566  0.8171 -1.7559 -0.6713
79396SOL    HW256181   2.425   0.541  13.552 -0.4359 -0.1882  0.3384
79397SOL     OW56182   6.667   4.727   7.865 -0.0482  0.0625  0.1825
79397SOL    HW156183   6.730   4.767   7.805  1.2905 -1.1046  0.7648
79397SOL    HW256184   6.598   4.693   7.808  0.8039 -0.3293 -0.6389
79398SOL     OW56185  10.809  12.202   3.125 -0.4140 -0.2056 -0.0126
79398SOL    HW156186  10.887  12.229   3.075 -0.6248 -0.0922 -0.2824
79398SOL    HW256187  10.736  12.221   3.067 -0.5038 -2.6262 -0.8360
79399SOL     OW56188   4.821  13.507   0.942 -0.5990  0.1320  0.3008
79399SOL    HW156189   4.879  13.466   1.007 -1.1665  2.4769  2.4452
79399SOL    HW256190   4.749  13.444   0.932  0.8167 -1.4961 -0.1829
79400SOL     OW56191   3.074  14.047  11.757  0.6021  0.1301  0.2156
79400SOL    HW156192   3.062  14.002  11.841  2.3264 -1.1522 -0.1669
79400SOL    HW256193   3.121  14.127  11.779 -2.2539  1.7487  0.8700
79401SOL     OW56194   7.375   1.981  10.040  0.1057 -1.0549 -0.0559
79401SOL    HW156195   7.386   1.894  10.078  0.7355 -0.9331  0.0506
79401SOL    HW256196   7.390   2.042  10.113  1.4884 -0.8154 -0.5180
79402SOL     OW56197  13.373   9.223   7.221 -0.2906 -0.3243  0.0874
79402SOL    HW156198  13.377   9.235   7.126  0.9033  1.9822  0.3505
79402SOL    HW256199  13.437   9.285   7.256 -1.7085 -0.0656  2.4700
79403SOL     OW56200  12.580  10.638   0.483  0.7808 -0.3450  0.0278
79403SOL    HW156201  12.623  10.723   0.484  1.6607 -0.7781  1.0115
79403SOL    HW256202  12.488  10.658   0.503  0.9271  0.3973  0.0061
79404SOL     OW56203   2.705   6.457   1.927 -0.1478  0.0671  0.2471
79404SOL    HW156204   2.717   6.538   1.877  1.3711 -0.7715 -0.8448
79404SOL    HW256205   2.727   6.481   2.017 -1.1182  1.1775  0.2094
79405SOL     OW56206   4.501   7.527   2.001  0.9415  0.0462  0.2473
79405SOL    HW156207   4.529   7.449   2.049  1.9101 -0.4888 -1.1553
79405SOL    HW256208   4.567   7.593   2.021  0.2720  0.4450  1.2104
79406SOL     OW56209   7.154   9.214   2.093 -0.2377 -0.0935  0.3509
79406SOL    HW156210   7.077   9.174   2.053 -0.3837  2.3709 -2.1628
79406SOL    HW256211   7.119   9.269   2.163 -0.6567  0.0887  0.0027
79407SOL     OW56212   3.409  11.831   2.343  0.1058 -0.0790 -0.1171
79407SOL    HW156213   3.340  11.893   2.322 -1.1236 -1.7396 -1.2183
79407SOL    HW256214   3.478  11.849   2.279 -0.2868  0.0793 -0.4975
79408SOL     OW56215   8.202   0.482   4.534 -0.0122 -0.5464  0.3246
79408SOL    HW156216   8.295   0.496   4.516 -0.0760 -0.2090  0.2613
79408SOL    HW256217   8.170   0.567   4.562 -0.1715 -0.7947  0.9152
79409SOL     OW56218   6.400   1.987   7.901  0.8361  0.3859 -0.7924
79409SOL    HW156219   6.387   1.898   7.868  0.4336  0.4749 -0.8801
79409SOL    HW256220   6.494   1.995   7.911  0.9439  0.2641 -1.6745
79410SOL     OW56221   9.525   6.415   2.192  0.1233  0.2652 -0.0372
79410SOL    HW156222   9.590   6.429   2.124 -0.8932 -1.3689 -1.4317
79410SOL    HW256223   9.506   6.503   2.226  1.9659  0.9123 -0.5654
79411SOL     OW56224  10.465  11.146   7.290 -0.0830  0.2520 -0.4710
79411SOL    HW156225  10.460  11.231   7.334 -0.8745 -0.3118  0.5847
79411SOL    HW256226  10.376  11.130   7.257 -0.0728 -0.3849 -0.2126
79412SOL     OW56227   6.430   7.456   8.033  0.6032  0.6710  0.0329
79412SOL    HW156228   6.392   7.522   7.975  1.5246  1.3281  0.1506
79412SOL    HW256229   6.504   7.501   8.075  0.1536  0.1087  1.4721
79413SOL     OW56230   5.575   4.070   6.787 -0.0193  0.0189  0.4711
79413SOL    HW156231   5.564   4.161   6.758  1.4709  0.3645  0.9222
79413SOL    HW256232   5.576   4.076   6.882 -0.2419 -0.5235  0.5089
79414SOL     OW56233   1.068   0.887   6.623  0.3675 -0.4352 -0.5378
79414SOL    HW156234   1.068   0.931   6.708 -3.5566 -0.6968 -0.2172
79414SOL    HW256235   1.054   0.795   6.644 -3.1692 -0.2112 -1.3633
79415SOL     OW56236   7.779   2.408  11.467 -0.6515 -0.0376  0.5980
79415SOL    HW156237   7.720   2.345  11.426 -0.6690  0.5051 -0.2356
79415SOL    HW256238   7.821   2.453  11.394  0.7042 -0.3220  1.1771
79416SOL     OW56239   1.713   3.139   9.923  0.2474  0.2313 -0.3712
79416SOL    HW156240   1.671   3.084   9.989  1.7380  0.3719  0.7532
79416SOL    HW256241   1.698   3.228   9.953  0.2028  0.3270 -0.6802
79417SOL     OW56242  11.135  10.817  13.403 -0.3335  0.2104  0.3715
79417SOL    HW156243  11.205  10.819  13.467 -0.1062  0.1417  0.1296
79417SOL    HW256244  11.102  10.727  13.406 -2.0505  0.8327  2.2115
79418SOL     OW56245   1.709   0.957   4.993  0.1837  0.0324 -0.6576
79418SOL    HW156246   1.634   0.908   4.959  0.0127 -0.0003 -0.2398
79418SOL    HW256247   1.782   0.895   4.987  0.0723 -0.1061 -0.6033
79419SOL     OW56248  10.236   9.542  10.946 -0.1607  0.4435  0.3800
79419SOL    HW156249  10.245   9.610  10.880  0.6483 -1.4918 -1.6121
79419SOL    HW256250  10.156   9.496  10.923  0.2919 -0.4467  0.5333
79420SOL     OW56251   8.153   2.050  13.688  0.6567  0.5153  0.0052
79420SOL    HW156252   8.193   2.076  13.605  1.6915  0.2356  0.3952
79420SOL    HW256253   8.153   1.955  13.686 -2.0504  0.4558 -0.9194
79421SOL     OW56254   5.763   1.059   7.566  0.3290 -0.3691 -0.0957
79421SOL    HW156255   5.807   1.112   7.631 -2.8623 -0.2996  2.2629
79421SOL    HW256256   5.797   0.971   7.579 -0.8370 -0.5300  2.4343
79422SOL     OW56257  12.420   2.119   7.806 -0.1646 -0.1725 -0.0610
79422SOL    HW156258  12.444   2.192   7.748  1.4373  0.3779  1.2313
79422SOL    HW256259  12.482   2.049   7.782  2.1113  0.8177  2.4068
79423SOL     OW56260  11.839   1.220   2.787  0.5485  0.6132 -0.1703
79423SOL    HW156261  11.839   1.150   2.852 -0.6817  1.1868  0.4628
79423SOL    HW256262  11.813   1.176   2.705  0.3448  0.2250  0.0995
79424SOL     OW56263   6.945   2.783   2.710 -0.1485 -0.1219 -0.4078
79424SOL    HW156264   6.855   2.751   2.703 -0.0055 -0.6918  0.2431
79424SOL    HW256265   6.979   2.742   2.790  0.6435  0.2054 -0.5663
79425SOL     OW56266  10.649   8.400   8.489 -0.5593 -0.7203 -0.0396
79425SOL    HW156267  10.657   8.336   8.560  0.3569 -0.9229 -0.3104
79425SOL    HW256268  10.633   8.483   8.534 -0.3236 -0.9021  0.3884
79426SOL     OW56269   4.014   9.004   2.515 -0.4429  0.2313 -0.1912
79426SOL    HW156270   4.088   8.944   2.510 -0.4640  0.2781 -1.1678
79426SOL    HW256271   3.969   8.980   2.597  0.9833  0.6186  0.7438
79427SOL     OW56272   2.380   1.428  11.371 -0.3049 -0.1658 -0.2048
79427SOL    HW156273   2.304   1.373  11.353 -0.7368  0.7092 -1.1806
79427SOL    HW256274   2.384   1.433  11.467 -1.4644 -0.2471 -0.1419
79428SOL     OW56275   1.864   4.779   5.884  0.1229  0.0996 -0.5139
79428SOL    HW156276   1.959   4.777   5.884  0.1325  0.4505  0.2668
79428SOL    HW256277   1.841   4.824   5.802  0.6171 -0.2084 -0.8248
79429SOL     OW56278  10.410   6.788   2.650 -0.3025 -0.5029 -0.2402
79429SOL    HW156279  10.334   6.844   2.638 -1.0678 -1.4798 -0.1031
79429SOL    HW256280  10.441   6.769   2.561 -0.4604 -0.4274 -0.3105
79430SOL     OW56281   3.001   1.829   9.313 -0.1856 -0.1751 -0.2455
79430SOL    HW156282   3.018   1.897   9.248 -0.5970 -0.5813 -0.7897
79430SOL    HW256283   3.040   1.750   9.275  3.5995  0.3867  1.9773
79431SOL     OW56284  13.650   7.622   8.822  0.2319 -0.3149 -0.0709
79431SOL    HW156285  13.573   7.606   8.767  0.5430  0.4897 -0.7509
79431SOL    HW256286  13.614   7.663   8.901  0.0415  0.9061 -0.7704
79432SOL     OW56287  12.216  13.018   1.728 -0.3479  0.5183  0.0812
79432SOL    HW156288  12.301  12.990   1.693 -0.2351  0.0633  0.6968
79432SOL    HW256289  12.233  13.034   1.821 -1.0543 -0.0968  0.3247
79433SOL     OW56290   7.338   8.688  12.408  0.3606  0.0644 -0.2325
79433SOL    HW156291   7.266   8.627  12.392 -0.1771  0.1309  1.6663
79433SOL    HW256292   7.374   8.706  12.322 -0.0965 -2.1696 -0.9676
79434SOL     OW56293   2.913   4.592   9.965  0.2928 -0.1247 -0.5487
79434SOL    HW156294   2.910   4.503   9.931 -0.1687 -0.6090  0.6880
79434SOL    HW256295   2.822   4.619   9.972  0.2316 -0.6857  1.8043
79435SOL     OW56296   8.073   4.264   9.081  0.5424  0.1886  0.2037
79435SOL    HW156297   8.091   4.216   9.000 -1.1012  0.9606 -0.6579
79435SOL    HW256298   8.158   4.266   9.126  1.1151 -1.7454 -0.6527
79436SOL     OW56299   5.386  13.968   4.115 -0.1773  0.0347  0.5050
79436SOL    HW156300   5.304  13.934   4.079 -0.1281 -0.3364  0.7403
79436SOL    HW256301   5.399  13.919   4.197  0.6946 -0.5101  0.0645
79437SOL     OW56302   2.343  12.363   5.539  0.5772 -0.4622  0.7921
79437SOL    HW156303   2.434  12.338   5.548  0.7844  0.6289  1.9810
79437SOL    HW256304   2.344  12.435   5.476  0.5920 -0.2410  1.0393
79438SOL     OW56305   3.216   9.719   4.212  0.3781  0.2565  0.0256
79438SOL    HW156306   3.216   9.689   4.121 -3.0129  0.8367 -0.3156
79438SOL    HW256307   3.246   9.810   4.208 -0.0421  0.3696 -0.5561
79439SOL     OW56308  11.331   5.100   0.179 -0.0806  0.0934 -0.3109
79439SOL    HW156309  11.259   5.074   0.122 -0.8219 -0.7069  0.9303
79439SOL    HW256310  11.304   5.184   0.214  0.2905  0.4986 -0.9834
79440SOL     OW56311   9.651   0.238  11.641  0.4246  0.1633  0.2262
79440SOL    HW156312   9.595   0.218  11.716 -0.0183 -0.3944 -0.2470
79440SOL    HW256313   9.685   0.153  11.613  2.4047  0.5832  1.1750
79441SOL     OW56314   9.963   4.222  12.021  0.7076 -0.4734  0.0928
79441SOL    HW156315   9.929   4.256  12.104 -0.1804  1.0121 -0.8320
79441SOL    HW256316   9.907   4.147  12.002 -0.4838  0.4505 -0.1788
79442SOL     OW56317  12.241   1.742   1.671 -0.3125  0.3325 -0.7439
79442SOL    HW156318  12.272   1.678   1.734 -0.3181  1.1282  0.0895
79442SOL    HW256319  12.149   1.720   1.657  0.0333 -0.6743 -1.5285
79443SOL     OW56320   7.052   0.091  10.665  0.2110  0.0596  0.7030
79443SOL    HW156321   7.072   0.167  10.720  1.4676 -1.2209  2.1154
79443SOL    HW256322   6.961   0.069  10.687  0.3801  0.1658  1.5504
79444SOL     OW56323   9.955   6.085  13.471  0.6527  0.1929  0.3106
79444SOL    HW156324   9.945   6.075  13.566  0.5528  2.1052  0.5400
79444SOL    HW256325   9.927   6.001  13.435 -1.0235  0.0278  1.8727
79445SOL     OW56326  11.028   3.061   3.133 -0.4136  0.0851 -0.1251
79445SOL    HW156327  11.095   2.999   3.160 -0.6176 -0.0171  0.1479
79445SOL    HW256328  10.980   3.081   3.213 -1.3152 -0.5733 -0.4754
79446SOL     OW56329   7.951  12.230   0.126 -0.5828 -0.1332 -0.5894
79446SOL    HW156330   8.031  12.178   0.131 -0.0876  0.7321  1.0399
79446SOL    HW256331   7.908  12.216   0.210 -0.2883  2.2435  0.0353
79447SOL     OW56332   2.752   7.130   2.454  0.9316  0.1609  0.1248
79447SOL    HW156333   2.835   7.174   2.475  0.9811  0.9799 -1.6126
79447SOL    HW256334   2.699   7.198   2.413 -0.1978 -0.6432  0.2190
79448SOL     OW56335   8.892   1.753   2.303  0.8183  0.5509 -0.0484
79448SOL    HW156336   8.983   1.732   2.283 -0.0547 -1.3090 -2.7726
79448SOL    HW256337   8.841   1.693   2.247 -2.1127  0.3012  2.5918
79449SOL     OW56338   6.078   2.353   7.281  0.1889  0.1940 -0.5931
79449SOL    HW156339   6.130   2.393   7.351  2.4639 -0.6903 -1.6604
79449SOL    HW256340   6.055   2.427   7.224 -0.5595  0.7303  0.3812
79450SOL     OW56341  14.113   9.513  11.219  0.3054  0.4495  0.0075
79450SOL    HW156342  14.086   9.429  11.255  2.3841 -0.4197 -0.2904
79450SOL    HW256343  14.127   9.569  11.295 -2.7628  1.1659  0.1512
79451SOL     OW56344   3.749  14.034   9.552 -0.2649 -0.3458  0.6094
79451SOL    HW156345   3.813  14.011   9.620  0.4711 -1.4526 -0.4267
79451SOL    HW256346   3.789  14.108   9.506 -1.2942  1.1988  2.0608
79452SOL     OW56347   4.967  11.327  12.728 -0.0658 -0.1446 -0.6631
79452SOL    HW156348   4.940  11.405  12.680 -2.1426 -0.0840  0.4818
79452SOL    HW256349   5.050  11.352  12.769 -0.8304  1.6111 -0.0657
79453SOL     OW56350   5.853   3.637   9.747  0.1638 -0.3096  0.0582
79453SOL    HW156351   5.776   3.608   9.796  0.3666  0.7566  1.0484
79453SOL    HW256352   5.921   3.573   9.768  0.0181 -0.3112  0.5290
79454SOL     OW56353   6.948  13.565   4.972 -0.2155  0.2672  0.2518
79454SOL    HW156354   6.895  13.644   4.962 -2.3135 -0.8832  1.5360
79454SOL    HW256355   6.979  13.546   4.884  1.3604  3.0944  0.0637
79455SOL     OW56356  13.250   5.811   8.098 -0.1796 -0.2780 -0.3294
79455SOL    HW156357  13.214   5.849   8.178  1.0059  0.0515  0.0614
79455SOL    HW256358  13.249   5.883   8.035 -0.3439 -0.3109 -0.3649
79456SOL     OW56359   8.701  11.168   5.783 -0.0952  0.6602 -0.5808
79456SOL    HW156360   8.635  11.236   5.787 -0.9621 -0.2094  1.0038
79456SOL    HW256361   8.753  11.180   5.862 -0.8973 -1.0787  0.2647
79457SOL     OW56362  13.343   8.447   8.338  0.2637  0.5617 -0.0466
79457SOL    HW156363  13.303   8.534   8.341  0.0777  0.4988 -0.7495
79457SOL    HW256364  13.436   8.465   8.321  0.1250  0.5982 -0.7756
79458SOL     OW56365  12.763   0.300   7.678 -0.0326  0.5790  0.1475
79458SOL    HW156366  12.805   0.355   7.613  0.5491  1.1047  0.9404
79458SOL    HW256367  12.810   0.217   7.674  1.2167  1.2005  1.1116
79459SOL     OW56368   7.663   4.029  12.677  0.2150  0.0858 -0.1159
79459SOL    HW156369   7.598   4.085  12.636  0.3148  0.4264  0.1914
79459SOL    HW256370   7.667   3.952  12.620  0.0936  0.3963 -0.5538
79460SOL     OW56371   9.817   6.134   9.010  0.2253  0.5799 -0.1740
79460SOL    HW156372   9.831   6.173   9.096  0.9218  0.6451 -0.3139
79460SOL    HW256373   9.775   6.050   9.027 -0.4090  0.9629  0.1824
79461SOL     OW56374   5.161   8.715   4.413  0.0517 -0.1616  0.2439
79461SOL    HW156375   5.094   8.781   4.397  1.1088  0.9422  0.2454
79461SOL    HW256376   5.221   8.756   4.475  0.5203 -1.2801  0.5582
79462SOL     OW56377   1.498   6.075   8.753 -0.0209 -0.3815  1.0230
79462SOL    HW156378   1.433   6.022   8.706  1.6791 -1.3751 -0.3327
79462SOL    HW256379   1.579   6.025   8.746  1.8107  2.5254 -0.6416
79463SOL     OW56380   5.908   4.740  11.621  0.1914  0.4047  0.4271
79463SOL    HW156381   5.829   4.701  11.658  0.5522 -0.6176  0.1853
79463SOL    HW256382   5.944   4.670  11.565  2.1146  0.2527  1.7644
79464SOL     OW56383   4.515   8.215   4.808  0.0015 -0.3202  0.4138
79464SOL    HW156384   4.523   8.216   4.713  1.1365 -0.0640  0.4914
79464SOL    HW256385   4.426   8.244   4.825 -0.1783 -0.2568 -0.5699
79465SOL     OW56386   2.192   4.549  10.749  1.1179  0.6170  0.1975
79465SOL    HW156387   2.236   4.489  10.809  0.7233 -1.1220 -1.1606
79465SOL    HW256388   2.263   4.601  10.710  1.5389  0.5810  0.9075
79466SOL     OW56389   2.837   9.853   9.301 -0.6170  0.1714  0.2842
79466SOL    HW156390   2.926   9.865   9.268 -0.5158 -0.7499  0.1994
79466SOL    HW256391   2.783   9.849   9.222 -0.9621  2.2193  0.3588
79467SOL     OW56392   8.048  10.535  10.072 -0.1207 -0.1731 -0.0437
79467SOL    HW156393   7.998  10.486  10.006 -0.6713 -0.8596  0.8659
79467SOL    HW256394   8.078  10.469  10.134 -0.7095  0.6003  1.1041
79468SOL     OW56395  10.528   6.216  12.027  0.0925 -0.1407 -0.0649
79468SOL    HW156396  10.457   6.201  11.963 -0.8869 -1.4923  1.2601
79468SOL    HW256397  10.578   6.288  11.990 -1.4861  0.3078 -1.4819
79469SOL     OW56398   4.732  12.869   3.808 -0.1394 -0.3166 -0.1151
79469SOL    HW156399   4.761  12.876   3.717 -0.0462  1.1090  0.0045
79469SOL    HW256400   4.674  12.793   3.809  0.5709 -0.9001 -1.1690
79470SOL     OW56401   0.517   4.264   9.979 -0.7195 -0.4453  1.0198
79470SOL    HW156402   0.480   4.316  10.050  0.3566  2.0390 -0.1385
79470SOL    HW256403   0.605   4.241  10.010  0.0139  1.2280  0.2967
79471SOL     OW56404  12.661   0.395   0.400  0.1838 -0.0019 -0.3699
79471SOL    HW156405  12.595   0.341   0.356 -1.0105 -1.2868  2.7599
79471SOL    HW256406  12.639   0.485   0.374 -1.8086 -0.5296 -0.6539
79472SOL     OW56407  10.667   8.195  12.784  0.1789 -0.2973 -0.1350
79472SOL    HW156408  10.715   8.240  12.714 -1.5388  1.8692 -0.0684
79472SOL    HW256409  10.721   8.206  12.862  0.9672 -0.5693 -0.6340
79473SOL     OW56410  13.468  13.155   7.608  0.1245 -1.2010 -0.2097
79473SOL    HW156411  13.415  13.141   7.529 -0.2820 -1.7039  0.1371
79473SOL    HW256412  13.548  13.196   7.577  0.1224 -1.7180 -0.9375
79474SOL     OW56413   6.176   0.990   8.374  0.4115 -0.5909 -0.7988
79474SOL    HW156414   6.271   0.982   8.375  0.4366 -0.4205  0.5956
79474SOL    HW256415   6.158   1.070   8.425 -0.4538 -0.2669 -1.5847
79475SOL     OW56416   1.238   0.248   9.371  0.1561 -1.1916 -0.2136
79475SOL    HW156417   1.261   0.334   9.406 -2.0731  0.0509 -1.5732
79475SOL    HW256418   1.318   0.197   9.379  1.4640  0.8952  0.9593
79476SOL     OW56419  13.225   4.666   3.734 -0.2030 -0.4989 -0.0808
79476SOL    HW156420  13.301   4.617   3.764 -0.1858  0.5250  1.6381
79476SOL    HW256421  13.174   4.684   3.813  0.0530  2.6444 -0.5150
79477SOL     OW56422   8.298  12.828   9.473  0.0656 -0.5158  0.2392
79477SOL    HW156423   8.267  12.916   9.492 -0.8815 -0.7646 -0.1037
79477SOL    HW256424   8.312  12.827   9.378 -0.9515 -1.0349  0.0789
79478SOL     OW56425   3.643   3.233   0.508 -0.0242  0.3011  0.9411
79478SOL    HW156426   3.661   3.326   0.491  0.5121  0.1273  0.5343
79478SOL    HW256427   3.707   3.208   0.575 -0.7958  0.4612  1.7556
79479SOL     OW56428   4.447   4.398  10.620  0.7183  0.2852  0.3169
79479SOL    HW156429   4.515   4.332  10.610  1.8932  1.3181  1.1066
79479SOL    HW256430   4.407   4.378  10.705 -0.0849 -0.4095 -0.2135
79480SOL     OW56431  13.008   3.641   8.946  0.3372  0.3115 -0.1191
79480SOL    HW156432  13.039   3.555   8.974  1.1712  1.0685  1.4691
79480SOL    HW256433  12.915   3.642   8.970  0.6815  0.3783  1.3136
79481SOL     OW56434   3.131   7.904  13.221 -0.2588  0.3010 -0.3704
79481SOL    HW156435   3.081   7.943  13.293  0.8679 -0.1187  0.6833
79481SOL    HW256436   3.098   7.815  13.215 -0.6110  0.4471 -0.6300
79482SOL     OW56437   7.171  12.694   0.596 -0.1951  0.3786  0.0276
79482SOL    HW156438   7.200  12.673   0.684 -1.5125 -0.0282  0.3872
79482SOL    HW256439   7.220  12.635   0.540  1.8724  1.7343  0.2825
79483SOL     OW56440   8.116   8.150  12.159 -0.5792 -0.7217 -0.1063
79483SOL    HW156441   8.152   8.218  12.102 -1.4090 -1.0557 -1.0591
79483SOL    HW256442   8.078   8.198  12.232 -0.1150 -0.2381 -0.1769
79484SOL     OW56443  14.082   1.499   0.975  0.1977  0.2021  0.2830
79484SOL    HW156444  14.022   1.426   0.957  0.6666  0.3555 -2.3693
79484SOL    HW256445  14.029   1.562   1.024 -1.4625 -0.2316 -0.8580
79485SOL     OW56446   7.045   5.488  13.039  0.3261  0.4565  0.5519
79485SOL    HW156447   7.083   5.401  13.051  0.2168  0.3754  0.3141
79485SOL    HW256448   7.051   5.529  13.125  0.9241  0.4334  0.5218
79486SOL     OW56449   6.351  12.846   1.222 -0.2592 -0.6111 -0.0166
79486SOL    HW156450   6.316  12.882   1.304 -1.2781 -0.3516 -0.5529
79486SOL    HW256451   6.335  12.751   1.229  0.2249 -0.6710  0.3465
79487SOL     OW56452   5.930   6.197   9.083 -0.4227 -0.3500  0.0775
79487SOL    HW156453   5.889   6.267   9.032 -0.1903 -0.6913 -0.5985
79487SOL    HW256454   6.013   6.234   9.112 -1.2921  0.4302  1.6635
79488SOL     OW56455   7.925   7.429   8.063  0.1457  0.2177 -0.1556
79488SOL    HW156456   7.857   7.497   8.065 -0.0189  0.0611  2.0458
79488SOL    HW256457   7.981   7.448   8.138  1.9262 -0.3164 -1.2793
79489SOL     OW56458   0.593  13.956  11.552  0.0668 -0.2888  0.6438
79489SOL    HW156459   0.604  14.051  11.556 -0.2574 -0.1971 -0.3541
79489SOL    HW256460   0.671  13.921  11.596  1.0073  0.4230 -0.4156
79490SOL     OW56461  10.291   3.933  13.288 -0.0774 -0.5400 -0.0334
79490SOL    HW156462  10.285   3.857  13.347  0.4628  0.3100  1.1522
79490SOL    HW256463  10.324   3.897  13.206  3.2087 -1.1709  1.4348
79491SOL     OW56464  13.146  11.748   1.460 -0.0176  0.1162  0.2328
79491SOL    HW156465  13.233  11.786   1.454  0.2574 -0.4525  0.5920
79491SOL    HW256466  13.114  11.772   1.546 -0.1238  0.1317  0.1898
79492SOL     OW56467   4.990   5.601   1.920 -0.0234  0.4535  0.0151
79492SOL    HW156468   5.001   5.508   1.938  0.0836  0.5335  0.3721
79492SOL    HW256469   4.981   5.642   2.006  2.1891  1.0636  0.0058
79493SOL     OW56470   4.313   9.110   3.041  0.0232  0.1752 -0.0129
79493SOL    HW156471   4.334   9.162   2.964  0.6417 -0.5849 -0.3744
79493SOL    HW256472   4.221   9.086   3.028 -0.5094  1.8009  0.5557
79494SOL     OW56473  10.494  12.778   9.015 -0.1336 -0.0693  0.0280
79494SOL    HW156474  10.509  12.811   9.103 -1.4119 -0.2800  0.3482
79494SOL    HW256475  10.581  12.779   8.974  0.2430  1.4811  0.7688
79495SOL     OW56476   1.524  10.614   1.429  0.6535 -0.0691 -0.6061
79495SOL    HW156477   1.436  10.649   1.414  0.3429 -0.5254  0.0934
79495SOL    HW256478   1.518  10.522   1.405  0.4494 -0.5336  1.1030
79496SOL     OW56479   9.897   2.471   3.664 -0.0598 -0.4123 -0.5221
79496SOL    HW156480   9.978   2.498   3.620  0.8215 -0.9288  0.7265
79496SOL    HW256481   9.846   2.552   3.672  0.4492 -0.0303 -1.0740
79497SOL     OW56482   5.432   3.366   0.295 -0.0476 -0.7993 -0.7914
79497SOL    HW156483   5.383   3.312   0.233 -1.4109 -0.1024 -0.3553
79497SOL    HW256484   5.434   3.453   0.254 -0.1446 -0.5615 -0.3008
79498SOL     OW56485   8.075   9.946   8.667 -0.4874  0.4818  0.2055
79498SOL    HW156486   8.033   9.893   8.735  1.0625 -2.6446 -1.0990
79498SOL    HW256487   8.036   9.916   8.586  2.3738 -0.7672 -0.8294
79499SOL     OW56488  13.627   7.253   0.305 -0.1522 -0.2320  0.4060
79499SOL    HW156489  13.569   7.233   0.232 -0.4614 -1.8966  1.0612
79499SOL    HW256490  13.619   7.178   0.364  0.3607  0.8892  1.9855
79500SOL     OW56491   7.007  12.541   9.462  0.0154 -0.0698  0.0241
79500SOL    HW156492   6.998  12.621   9.411  0.5507 -0.1774 -0.2379
79500SOL    HW256493   6.946  12.553   9.535 -1.1092 -0.1112 -0.8788
79501SOL     OW56494   7.238  12.687  10.785 -0.1213  0.7551  0.2949
79501SOL    HW156495   7.214  12.699  10.693 -1.4180 -2.5044  0.1114
79501SOL    HW256496   7.317  12.741  10.796 -0.6114  2.1704 -2.3644
79502SOL     OW56497   1.184   7.451   5.745  0.3836  0.3233  0.1018
79502SOL    HW156498   1.257   7.415   5.695  0.2726  0.7774 -0.3999
79502SOL    HW256499   1.221   7.525   5.792  0.3936  0.1518  0.3631
79503SOL     OW56500  12.185  13.659   9.684 -0.1758  0.0994 -0.1840
79503SOL    HW156501  12.245  13.638   9.611 -0.1844 -0.0669 -0.1435
79503SOL    HW256502  12.243  13.693   9.752 -0.3596  2.0279 -0.9267
79504SOL     OW56503   9.334   0.404   0.708 -0.3966  0.0006  0.0575
79504SOL    HW156504   9.311   0.434   0.797  0.7007 -0.2923  0.4514
79504SOL    HW256505   9.369   0.316   0.721  1.1058  0.4929 -0.4947
79505SOL     OW56506  10.932   3.310  11.099 -0.6925  0.6459 -0.5778
79505SOL    HW156507  10.926   3.264  11.183 -0.5047  0.8297 -0.4621
79505SOL    HW256508  10.892   3.395  11.116  0.8637  1.3304 -0.2061
79506SOL     OW56509   0.372   6.918   8.394 -0.2748  0.0250 -0.5944
79506SOL    HW156510   0.310   6.908   8.466  1.2047 -0.0190  0.7246
79506SOL    HW256511   0.393   7.012   8.393  1.6214 -0.3395  0.7433
79507SOL     OW56512   0.533   5.202  10.471  0.1189 -0.2921  0.6319
79507SOL    HW156513   0.614   5.246  10.445 -1.1990  1.7546 -0.3059
79507SOL    HW256514   0.481   5.271  10.514 -1.3884 -1.3494  0.5895
79508SOL     OW56515  10.548  10.704  11.142  0.4597 -0.3855  0.7858
79508SOL    HW156516  10.471  10.660  11.176 -1.8482  1.1402 -1.9882
79508SOL    HW256517  10.536  10.796  11.164  0.1143  0.2624 -1.7157
79509SOL     OW56518   6.659   5.918  12.053 -0.2081 -0.0714  0.0756
79509SOL    HW156519   6.607   5.850  12.097  0.9185 -0.4565  0.8663
79509SOL    HW256520   6.690   5.876  11.973 -0.4437 -0.1199  0.0106
79510SOL     OW56521   0.158   6.398   3.219  0.1603 -0.1837 -0.1681
79510SOL    HW156522   0.169   6.456   3.295 -0.2851  0.7669 -0.8112
79510SOL    HW256523   0.244   6.395   3.178  0.5161 -1.0555  0.6033
79511SOL     OW56524   2.292   8.521   7.568 -0.0412  0.5291 -0.1285
79511SOL    HW156525   2.260   8.476   7.490  2.1795 -0.7355 -0.3991
79511SOL    HW256526   2.278   8.459   7.639 -0.0515  0.7697  0.0782
79512SOL     OW56527   0.613  14.140  10.766 -0.0252 -0.2129 -0.0476
79512SOL    HW156528   0.673  14.095  10.825  0.3829  1.1726  0.6308
79512SOL    HW256529   0.640  14.113  10.679  0.7075 -0.6549  0.3089
79513SOL     OW56530  11.536   9.211  11.689  0.7780 -0.1962  0.5183
79513SOL    HW156531  11.552   9.250  11.602 -0.2904 -1.4321 -0.2676
79513SOL    HW256532  11.624   9.189  11.721  1.1106 -1.2375 -0.9923
79514SOL     OW56533   9.421   0.402   0.255 -0.4039  0.3068  0.1411
79514SOL    HW156534   9.392   0.331   0.313 -2.1417  0.9606  0.1341
79514SOL    HW256535   9.515   0.388   0.246 -0.7992 -2.5483 -0.5937
79515SOL     OW56536   4.721   8.501  11.003  0.3108  0.1525 -0.4780
79515SOL    HW156537   4.759   8.432  11.058  0.0874  0.2803 -0.1546
79515SOL    HW256538   4.796   8.552  10.973  0.3068  1.9876  2.2526
79516SOL     OW56539  10.761   9.998  12.978 -0.4270  0.0526  0.6371
79516SOL    HW156540  10.718   9.937  13.038  0.9579  0.3003  1.9539
79516SOL    HW256541  10.691  10.027  12.920 -0.9469 -3.5572 -0.7940
79517SOL     OW56542  12.930   8.788  13.415  0.2911 -0.6705  0.4881
79517SOL    HW156543  12.980   8.734  13.476 -1.2513 -0.7429  1.7425
79517SOL    HW256544  12.881   8.848  13.470  1.2592  1.4705 -0.8435
79518SOL     OW56545   3.593  13.469   5.417 -0.0058 -0.5346  0.4694
79518SOL    HW156546   3.532  13.542   5.429  1.7752  1.0343  0.4964
79518SOL    HW256547   3.620  13.476   5.325  0.8514 -0.5991  0.7078
79519SOL     OW56548   1.584   3.363   4.295  0.8939 -0.4294 -0.0033
79519SOL    HW156549   1.511   3.361   4.357  1.4567 -0.9193  0.6564
79519SOL    HW256550   1.599   3.272   4.272  1.1929 -0.3179 -0.2581
79520SOL     OW56551   6.218  13.160   5.715  0.2237  0.3874 -0.9675
79520SOL    HW156552   6.299  13.126   5.753  0.2523  0.0933 -1.2853
79520SOL    HW256553   6.239  13.250   5.690  0.9061 -0.1458 -2.4002
79521SOL     OW56554   2.847   7.136   0.044  0.2107 -0.2550  0.0689
79521SOL    HW156555   2.900   7.123  -0.035  0.9096  1.0614  0.2962
79521SOL    HW256556   2.884   7.075   0.108  0.1223 -0.7967 -0.3924
79522SOL     OW56557   9.633   9.663   3.899 -0.3434  0.0325  0.2554
79522SOL    HW156558   9.672   9.578   3.917  0.2711  0.4165  0.7834
79522SOL    HW256559   9.600   9.656   3.809 -0.6089 -0.8682  0.4123
79523SOL     OW56560   9.742  11.224   9.712 -0.3152  0.3123 -0.4272
79523SOL    HW156561   9.712  11.134   9.701  1.6237 -0.3898 -0.3606
79523SOL    HW256562   9.788  11.245   9.630 -1.2504  1.4759 -0.6850
79524SOL     OW56563  12.666   5.011  11.656  0.5564  0.4922  0.7326
79524SOL    HW156564  12.726   4.998  11.582 -1.4714 -0.8063 -0.7840
79524SOL    HW256565  12.581   4.980  11.624 -0.4834  0.1947  3.5174
79525SOL     OW56566  11.146  10.021  13.134  0.5867  0.1284  0.1005
79525SOL    HW156567  11.242  10.017  13.125  0.6413 -0.4414  0.8140
79525SOL    HW256568  11.120   9.931  13.154 -0.3702 -0.1958 -2.2705
79526SOL     OW56569   3.740   9.794   2.596 -0.1102  0.1390 -0.1333
79526SOL    HW156570   3.701   9.778   2.510 -0.0025 -0.7674 -0.0260
79526SOL    HW256571   3.778   9.881   2.590 -0.6822  0.3486 -0.7876
79527SOL     OW56572   8.291   1.156  11.494  0.0452 -0.6197  0.2061
79527SOL    HW156573   8.214   1.099  11.491 -0.0894 -0.6704  2.6483
79527SOL    HW256574   8.341   1.125  11.569  0.8145  1.4235  0.6080
79528SOL     OW56575   2.922   4.267  12.175 -0.0755 -0.4312 -0.3735
79528SOL    HW156576   2.901   4.221  12.257 -0.2417 -0.9908 -0.7280
79528SOL    HW256577   2.837   4.283  12.134 -0.0609  0.5967 -0.0509
79529SOL     OW56578   3.640   9.639   8.036 -0.2025 -0.0077  0.2839
79529SOL    HW156579   3.720   9.689   8.052 -0.0933 -0.8553  2.8686
79529SOL    HW256580   3.573   9.685   8.086 -1.0094 -0.1684 -0.6246
79530SOL     OW56581   2.711   2.887   5.097 -0.0359  0.0334  0.0055
79530SOL    HW156582   2.787   2.933   5.133 -0.9072  2.8817 -1.4313
79530SOL    HW256583   2.727   2.884   5.003 -0.8609 -1.0213 -0.1162
79531SOL     OW56584   0.409   6.379   8.150 -0.3863  0.0103 -0.3340
79531SOL    HW156585   0.479   6.377   8.084 -0.2642  0.3019 -0.2158
79531SOL    HW256586   0.329   6.395   8.099 -0.3081  0.1133 -0.4248
79532SOL     OW56587   7.712   9.153  10.813  0.0537 -0.4002 -0.4228
79532SOL    HW156588   7.784   9.209  10.786 -0.3328  0.0875 -0.4698
79532SOL    HW256589   7.752   9.068  10.829  0.8838  0.2180  0.9958
79533SOL     OW56590   8.410   3.445   5.486 -0.3119 -0.3588  0.1501
79533SOL    HW156591   8.371   3.523   5.446 -0.0970 -0.0094  0.6030
79533SOL    HW256592   8.503   3.468   5.495 -0.4975 -0.0609  1.6528
79534SOL     OW56593   1.853   1.056   3.265  0.5261 -0.1466 -0.0130
79534SOL    HW156594   1.889   1.100   3.341  1.6186  0.5754 -0.9118
79534SOL    HW256595   1.784   0.999   3.300  1.6409 -0.5618  1.6084
79535SOL     OW56596  11.514   8.529   3.608 -0.6802  0.3105  0.1181
79535SOL    HW156597  11.562   8.551   3.529 -1.4037  1.2237 -0.0954
79535SOL    HW256598  11.429   8.498   3.577 -0.3386 -1.0619  0.4958
79536SOL     OW56599   7.797  12.769  11.935  0.0984  0.2101 -0.5573
79536SOL    HW156600   7.881  12.784  11.891  0.5254  0.3207  0.2870
79536SOL    HW256601   7.743  12.726  11.868  0.6359  0.6406 -1.2865
79537SOL     OW56602   7.135   7.586  10.396 -0.5202  0.0934  0.0300
79537SOL    HW156603   7.163   7.588  10.304  1.2823  2.0335  0.5494
79537SOL    HW256604   7.215   7.599  10.446 -1.6907  0.7419  1.8240
79538SOL     OW56605   3.278   9.618   5.410  0.4494 -0.2792 -0.0724
79538SOL    HW156606   3.230   9.665   5.478  0.5684  2.9923 -2.0417
79538SOL    HW256607   3.250   9.527   5.419 -2.5640  0.6848  1.7784
79539SOL     OW56608  13.836   5.271   3.105  0.2306  0.3298 -0.3575
79539SOL    HW156609  13.832   5.233   3.193 -2.7145 -1.8373 -1.2794
79539SOL    HW256610  13.869   5.200   3.050  0.0186  0.9791 -1.3321
79540SOL     OW56611   3.519   4.375   1.851  0.2455  0.0351 -0.0632
79540SOL    HW156612   3.477   4.450   1.895  1.1269  0.8764 -0.5999
79540SOL    HW256613   3.448   4.313   1.836 -0.5787  0.9098  0.1041
79541SOL     OW56614  11.630   0.130   2.382 -0.6692 -0.3347  0.0003
79541SOL    HW156615  11.558   0.186   2.409  0.0953 -0.9173  3.7516
79541SOL    HW256616  11.690   0.189   2.336 -1.6429  1.0321  0.4177
79542SOL     OW56617   7.939  12.546  12.252 -0.2767  0.7261 -0.3351
79542SOL    HW156618   7.875  12.580  12.315 -0.6038 -2.1151  1.0128
79542SOL    HW256619   7.887  12.506  12.183  0.0189 -0.7993  0.3044
79543SOL     OW56620   2.857   2.028  12.062  0.2527 -0.2981 -0.0364
79543SOL    HW156621   2.824   2.060  11.978 -1.2101 -2.3305 -0.3283
79543SOL    HW256622   2.907   2.101  12.098 -1.2426  1.5435 -1.4853
79544SOL     OW56623   0.907  10.694   1.782 -0.1967 -0.4567  0.2207
79544SOL    HW156624   0.956  10.774   1.798 -1.9495  0.7800 -0.3701
79544SOL    HW256625   0.961  10.625   1.821  2.1458  0.7616 -0.6541
79545SOL     OW56626   0.951   0.267   3.856 -0.3876  0.2059 -0.1998
79545SOL    HW156627   1.042   0.279   3.881 -0.3700  0.5880 -0.4301
79545SOL    HW256628   0.954   0.240   3.764 -0.4781 -0.4954  0.0011
79546SOL     OW56629   6.303   2.959  11.957 -0.1804 -0.4611 -0.0953
79546SOL    HW156630   6.235   2.936  11.894  0.3121  0.2959 -0.9343
79546SOL    HW256631   6.266   3.033  12.007  0.0153 -0.0423 -0.5586
79547SOL     OW56632   0.560  11.841   8.974  0.1188 -0.5389  0.3995
79547SOL    HW156633   0.636  11.893   8.999 -0.1519 -0.1367  0.3897
79547SOL    HW256634   0.584  11.751   8.995 -0.4264 -0.1527  2.9623
79548SOL     OW56635  10.026   4.973   5.897 -0.2318 -0.7056 -1.2293
79548SOL    HW156636   9.956   4.940   5.841 -1.0713 -1.9393  0.4580
79548SOL    HW256637  10.106   4.939   5.857 -0.6618 -0.1886 -2.5791
79549SOL     OW56638   1.013   6.868  12.791  0.1690  0.8813 -0.6317
79549SOL    HW156639   1.017   6.837  12.701  0.0316  0.5293 -0.5185
79549SOL    HW256640   0.919   6.878  12.809  0.1846  0.6771 -0.4352
79550SOL     OW56641  13.586   5.338   2.267 -0.3338  0.3515  0.1317
79550SOL    HW156642  13.560   5.262   2.320  1.2695 -1.7102 -1.8087
79550SOL    HW256643  13.504   5.378   2.240 -1.2513 -0.9606  0.8664
79551SOL     OW56644   3.613   1.122   1.966 -0.2468 -0.3215  0.9535
79551SOL    HW156645   3.607   1.119   2.062  0.4711  0.2123  1.0242
79551SOL    HW256646   3.658   1.042   1.942 -2.3872 -1.5867  0.8565
79552SOL     OW56647   4.923  13.220  14.069  0.4093  0.1739  0.4138
79552SOL    HW156648   4.917  13.159  14.142  2.1320  2.2233  2.4371
79552SOL    HW256649   4.874  13.297  14.098 -1.0213  0.1315 -1.7078
79553SOL     OW56650   0.016  10.052  11.977 -0.2863  0.1403  0.1457
79553SOL    HW156651  -0.071  10.043  12.016  0.1796 -0.2667  1.1157
79553SOL    HW256652   0.036  10.145  11.985 -0.8248  0.3288 -0.5403
79554SOL     OW56653  13.554   9.028   1.972 -0.1623 -0.2756 -0.2676
79554SOL    HW156654  13.582   8.987   2.053 -1.3886  0.5858  0.6238
79554SOL    HW256655  13.636   9.056   1.930  0.4384  1.0811  1.6579
79555SOL     OW56656   8.062   4.251  11.536 -0.2847 -0.4211  0.2044
79555SOL    HW156657   8.153   4.262  11.563  0.2419 -0.2826 -1.4871
79555SOL    HW256658   8.053   4.308  11.460 -2.7049  1.9700  2.1284
79556SOL     OW56659   9.092   7.081   4.783 -0.1432  0.0485  0.1307
79556SOL    HW156660   9.138   7.163   4.803 -0.3013  0.2203 -0.1970
79556SOL    HW256661   9.087   7.080   4.688  0.0185 -0.4349  0.1282
79557SOL     OW56662   6.898  11.098   4.201  0.2882  0.1609  0.6653
79557SOL    HW156663   6.933  11.010   4.215  1.2772  0.3254 -0.6483
79557SOL    HW256664   6.919  11.119   4.110 -2.0068  0.8425  0.2238
79558SOL     OW56665   7.845   4.250  10.205  0.1207 -0.5919 -0.3103
79558SOL    HW156666   7.813   4.184  10.143 -0.0985 -0.0518 -0.7727
79558SOL    HW256667   7.863   4.327  10.151  0.6832 -0.3704  0.1815
79559SOL     OW56668   1.277   4.391  10.545  0.0525  0.5111 -0.0299
79559SOL    HW156669   1.215   4.321  10.562 -0.6794  1.2819  0.5252
79559SOL    HW256670   1.268   4.408  10.451  0.7956 -0.6382 -0.3361
79560SOL     OW56671   6.524   4.387   5.109  0.2064 -0.2463  0.1559
79560SOL    HW156672   6.565   4.311   5.067  0.0201 -0.2447 -0.0295
79560SOL    HW256673   6.473   4.428   5.039  0.3231  0.0626  0.2482
79561SOL     OW56674  11.528  12.746  11.816 -0.4163  0.0382  0.3409
79561SOL    HW156675  11.576  12.796  11.750  0.0564 -0.3946  0.3530
79561SOL    HW256676  11.498  12.812  11.879  1.2312  0.2019  1.0055
79562SOL     OW56677  11.259  11.870   4.879 -0.1527 -0.5108 -0.1937
79562SOL    HW156678  11.232  11.961   4.867  1.6488  0.0935 -0.0183
79562SOL    HW256679  11.298  11.846   4.794  0.1095 -0.8353  0.0169
79563SOL     OW56680   7.834   5.031   9.069 -0.1873 -0.2303  0.5294
79563SOL    HW156681   7.878   5.057   8.988 -0.1367 -2.0931 -0.0733
79563SOL    HW256682   7.903   4.996   9.124 -0.4261 -0.1368  0.8923
79564SOL     OW56683  13.956   1.745   7.682  0.2880  0.7041  0.2403
79564SOL    HW156684  13.864   1.744   7.706  0.2565  0.3389  0.1047
79564SOL    HW256685  13.983   1.654   7.685  0.8484  0.8801  1.0503
79565SOL     OW56686  10.609  13.696   6.470 -0.2251 -0.6919  0.2655
79565SOL    HW156687  10.647  13.640   6.537 -0.6684 -1.0816  0.1904
79565SOL    HW256688  10.518  13.667   6.462  0.0477 -1.2486 -1.1255
79566SOL     OW56689   6.021  13.413   0.143 -0.7031  0.2874 -0.0875
79566SOL    HW156690   6.047  13.501   0.171 -0.7984  0.0356  0.8290
79566SOL    HW256691   6.091  13.384   0.086  0.6626 -0.0616  1.6875
79567SOL     OW56692  10.539   7.450   9.471 -0.4537  0.2434 -0.3995
79567SOL    HW156693  10.552   7.538   9.506 -2.3654  0.8587 -1.0952
79567SOL    HW256694  10.517   7.396   9.547 -4.6009  1.5665 -0.3837
79568SOL     OW56695   5.943  12.925   2.721 -0.1367 -0.5692 -0.0281
79568SOL    HW156696   5.963  12.920   2.815 -0.3611  3.1070  0.3752
79568SOL    HW256697   5.847  12.935   2.718 -0.0784 -0.1449 -0.5979
79569SOL     OW56698   7.996   6.032   8.791 -0.2189 -0.0631  0.4978
79569SOL    HW156699   8.034   6.106   8.838  0.0214  0.0024  0.2039
79569SOL    HW256700   8.042   5.955   8.825  0.6077  0.0766 -0.2901
79570SOL     OW56701  13.581   7.098   7.713  0.0691  0.0670  0.0705
79570SOL    HW156702  13.622   7.182   7.693  0.8578 -0.7034 -1.7539
79570SOL    HW256703  13.635   7.061   7.783 -0.0529  0.8922  0.6078
79571SOL     OW56704   5.983   4.397  12.758  0.3095  0.1536 -0.5543
79571SOL    HW156705   5.970   4.468  12.821 -1.1516  0.3388 -1.0398
79571SOL    HW256706   5.919   4.414  12.689  2.0631  0.1145 -2.2653
79572SOL     OW56707   0.891  11.627  13.743  0.0975  0.5029 -0.3112
79572SOL    HW156708   0.917  11.646  13.834  2.4636 -3.6315  0.0917
79572SOL    HW256709   0.804  11.589  13.750  0.7482 -0.8973  0.4270
79573SOL     OW56710   4.130   4.112  13.936  0.2412  0.2573 -0.5730
79573SOL    HW156711   4.083   4.136  14.016  0.0469  0.1737 -0.6607
79573SOL    HW256712   4.062   4.107  13.869  0.5036  1.1001 -0.9235
79574SOL     OW56713   1.446   1.141   6.592 -0.8739 -0.2692  0.1310
79574SOL    HW156714   1.533   1.156   6.630  0.2479 -2.7696 -1.2327
79574SOL    HW256715   1.443   1.201   6.517 -1.0025  0.9354  1.0646
79575SOL     OW56716   7.388  11.752  11.180 -0.4200 -0.0655  0.7119
79575SOL    HW156717   7.336  11.671  11.182 -2.8253  1.3784  0.8066
79575SOL    HW256718   7.382  11.786  11.269 -1.4547  1.3616  0.1349
79576SOL     OW56719  12.350  13.653   6.736 -0.4896  0.8301  0.0824
79576SOL    HW156720  12.401  13.673   6.814  0.0103 -0.9551  0.2553
79576SOL    HW256721  12.259  13.655   6.765 -0.2666 -1.2935  1.1517
79577SOL     OW56722  10.946   0.257   2.729  0.8135  0.0796 -0.1906
79577SOL    HW156723  10.856   0.226   2.739  0.8141  0.2804  0.5182
79577SOL    HW256724  10.992   0.184   2.688  0.3968 -0.1396 -0.2737
79578SOL     OW56725  13.449   1.121   6.598  0.1791  0.2251  0.3850
79578SOL    HW156726  13.494   1.205   6.607  1.7504 -0.6798  1.4686
79578SOL    HW256727  13.400   1.111   6.680 -1.4404  0.8477 -0.4692
79579SOL     OW56728   2.591   4.809   9.089 -0.4652  0.0366 -0.4642
79579SOL    HW156729   2.645   4.742   9.130 -1.6508  0.1137  1.3208
79579SOL    HW256730   2.521   4.760   9.046 -0.6093  0.0670 -0.2656
79580SOL     OW56731   9.821   9.096  12.825  0.0324  0.1139  0.1482
79580SOL    HW156732   9.753   9.155  12.794 -0.0540 -0.0948 -0.0686
79580SOL    HW256733   9.848   9.048  12.747  0.5177  0.2848  0.2102
79581SOL     OW56734   0.125  12.521  10.829  0.1536  0.1076 -0.2159
79581SOL    HW156735   0.164  12.493  10.746  0.9180  1.1966 -0.2491
79581SOL    HW256736   0.103  12.614  10.814  2.0190  0.8590  1.3951
79582SOL     OW56737  13.572   1.769   0.753  0.5783  1.0370  0.3002
79582SOL    HW156738  13.585   1.860   0.781 -0.0117  2.1287 -2.6556
79582SOL    HW256739  13.642   1.754   0.689 -0.2295 -0.0991 -0.3405
79583SOL     OW56740   3.927   9.975   8.385 -0.3221 -0.4634  0.6884
79583SOL    HW156741   3.933  10.068   8.409  2.3264 -0.2282 -0.5270
79583SOL    HW256742   3.941   9.928   8.467 -1.2600  0.1978  1.2416
79584SOL     OW56743   0.057   0.010  12.484  0.0319  0.0594 -0.3321
79584SOL    HW156744   0.114   0.032  12.557 -0.7847 -1.3085  0.7799
79584SOL    HW256745   0.113  -0.035  12.422  0.5141  0.2393 -0.0319
79585SOL     OW56746   8.650   9.464  10.565 -0.2587  0.4333 -0.0576
79585SOL    HW156747   8.584   9.427  10.623 -0.0018 -1.3485 -0.8491
79585SOL    HW256748   8.707   9.515  10.622 -1.3545  0.6579  0.8718
79586SOL     OW56749  10.776  11.697   1.088 -0.2596  0.4321 -0.1715
79586SOL    HW156750  10.782  11.695   1.184  1.7827 -0.0170 -0.2606
79586SOL    HW256751  10.689  11.662   1.069 -0.4426 -0.1356  1.5073
79587SOL     OW56752   3.122  11.192  10.739  0.0178 -0.1086  0.4596
79587SOL    HW156753   3.048  11.135  10.761 -1.1893  0.7306 -1.1418
79587SOL    HW256754   3.169  11.144  10.671 -0.0017  0.0566  0.3290
79588SOL     OW56755   7.394   6.119  10.235 -0.0167 -0.1831  0.0613
79588SOL    HW156756   7.398   6.186  10.167 -2.0459 -0.5059 -0.4432
79588SOL    HW256757   7.451   6.049  10.203  0.4628  0.4126 -0.4156
79589SOL     OW56758   9.387   0.597  14.048  0.3633  0.5783  0.3267
79589SOL    HW156759   9.329   0.586  14.123  0.9200 -0.2286  0.6576
79589SOL    HW256760   9.437   0.515  14.044  0.2187  0.5355 -1.0368
79590SOL     OW56761   7.035  13.993  11.196 -0.3430 -0.1261  0.8028
79590SOL    HW156762   7.105  13.957  11.141 -0.4367  0.4684  0.2829
79590SOL    HW256763   7.066  14.080  11.220  0.0772 -0.6834  2.4072
79591SOL     OW56764   2.709   7.200   9.299  0.1817 -0.6504  0.2663
79591SOL    HW156765   2.703   7.295   9.312 -0.1201 -0.5734 -0.4190
79591SOL    HW256766   2.705   7.163   9.387 -1.9429 -0.1558  0.4224
79592SOL     OW56767   2.688  10.310   4.214 -0.0023  0.2266  0.1824
79592SOL    HW156768   2.599  10.300   4.182 -0.7780  2.6254  1.3884
79592SOL    HW256769   2.710  10.224   4.251 -0.8662 -1.1011 -2.1862
79593SOL     OW56770   4.219   8.350  11.118 -0.8105 -0.4363 -0.2595
79593SOL    HW156771   4.238   8.364  11.025  3.2799  0.9593  0.5517
79593SOL    HW256772   4.237   8.257  11.132  1.0255 -0.1740 -0.5365
79594SOL     OW56773  10.100  10.365   3.766  0.0266  0.2405  0.5546
79594SOL    HW156774  10.023  10.325   3.807  1.8926 -2.4604  1.7487
79594SOL    HW256775  10.134  10.425   3.832  0.4285 -0.6237  1.1547
79595SOL     OW56776   1.188   9.140  11.009 -0.2163 -0.1868 -0.2133
79595SOL    HW156777   1.251   9.209  10.990  0.1977 -1.2525 -3.4102
79595SOL    HW256778   1.228   9.087  11.077 -0.1084  2.0786  1.5903
79596SOL     OW56779   4.313   7.544   3.495  0.3288 -0.5286 -0.3067
79596SOL    HW156780   4.254   7.605   3.541  0.0021  0.6186 -2.1362
79596SOL    HW256781   4.357   7.497   3.565  0.7777  1.9870  1.2515
79597SOL     OW56782  13.690   3.430   2.703 -0.0416 -0.3446 -1.0505
79597SOL    HW156783  13.702   3.386   2.787 -0.6777  0.7033 -0.3878
79597SOL    HW256784  13.712   3.522   2.721 -0.8219  0.0145 -1.8560
79598SOL     OW56785   0.227   5.996   7.700 -0.6955 -0.1356 -0.1947
79598SOL    HW156786   0.221   6.086   7.667  1.1467 -0.2373 -0.9219
79598SOL    HW256787   0.264   6.005   7.788 -0.7214 -0.1756 -0.1797
79599SOL     OW56788   0.430   0.681  10.807  0.6614 -0.6968 -0.0743
79599SOL    HW156789   0.460   0.632  10.883  1.0187 -0.8213 -0.2898
79599SOL    HW256790   0.430   0.616  10.736 -1.9429 -1.2079  0.2867
79600SOL     OW56791   0.644   3.226  11.165  0.2648 -0.0867  0.1057
79600SOL    HW156792   0.550   3.219  11.184  0.2247  3.2590  1.8156
79600SOL    HW256793   0.686   3.174  11.234 -0.3238  2.2278  2.3924
79601SOL     OW56794   2.741  12.928   0.911  0.0686 -0.1867 -0.0619
79601SOL    HW156795   2.767  12.931   1.003 -0.5957 -0.1220  0.1262
79601SOL    HW256796   2.745  13.019   0.882  3.1513 -0.4872 -0.9356
79602SOL     OW56797   3.305  12.304   5.494  0.3889 -0.0808  0.2091
79602SOL    HW156798   3.302  12.208   5.488 -0.9938 -0.0969  0.7117
79602SOL    HW256799   3.248  12.325   5.569 -0.6218  1.2038 -0.8634
79603SOL     OW56800   6.207  12.127   4.868 -0.0742  0.1476  0.2815
79603SOL    HW156801   6.154  12.085   4.800  2.6442  0.5553 -2.3118
79603SOL    HW256802   6.297  12.101   4.848  1.2863  3.6266  1.1892
79604SOL     OW56803  11.393  12.680   6.950  0.2343  0.3803 -0.4153
79604SOL    HW156804  11.360  12.769   6.943 -0.3600  0.3935  1.7510
79604SOL    HW256805  11.373  12.640   6.866  0.2837  2.1937 -1.3349
79605SOL     OW56806  12.843  11.051   9.259  0.2047  0.1033  0.2067
79605SOL    HW156807  12.885  11.135   9.242 -0.6492  0.8834  1.6791
79605SOL    HW256808  12.756  11.075   9.291  0.3808 -1.2858  1.8420
79606SOL     OW56809  12.456   8.642   6.749 -0.7832  0.2415 -0.1643
79606SOL    HW156810  12.537   8.639   6.800 -0.8261 -1.5193 -0.1326
79606SOL    HW256811  12.470   8.579   6.679 -2.7690 -1.4829  0.8890
79607SOL     OW56812   0.574   5.853   0.255  0.1896 -0.4316  0.0728
79607SOL    HW156813   0.626   5.811   0.324 -0.5116 -1.5652 -0.0682
79607SOL    HW256814   0.486   5.857   0.291  0.4001  1.9647  0.5262
79608SOL     OW56815   5.872   6.096   9.925 -0.6724  0.3083  0.1376
79608SOL    HW156816   5.907   6.020   9.971  1.1177  0.4437 -0.9014
79608SOL    HW256817   5.928   6.169   9.952 -0.9687  0.8059 -0.5458
79609SOL     OW56818   5.839   1.545  11.665 -0.0000 -0.0575  0.1445
79609SOL    HW156819   5.780   1.496  11.608 -0.1971  2.6811 -2.2212
79609SOL    HW256820   5.924   1.501  11.655 -0.6161 -1.2185 -0.1060
79610SOL     OW56821  10.693  13.599  10.209 -0.5831  0.1804 -0.2362
79610SOL    HW156822  10.768  13.555  10.170  0.0472 -0.1178  1.2449
79610SOL    HW256823  10.731  13.661  10.272 -1.5377  1.0345 -0.4643
79611SOL     OW56824   1.466  12.597   1.722 -0.1548  0.8420  0.6617
79611SOL    HW156825   1.496  12.516   1.679  0.8966  1.0458  0.9767
79611SOL    HW256826   1.410  12.566   1.793  1.0054  0.3150  1.3849
79612SOL     OW56827   7.003   4.805   2.199  0.2058 -0.0620  0.5025
79612SOL    HW156828   6.951   4.885   2.195  2.3593  1.4832  1.4885
79612SOL    HW256829   7.008   4.784   2.292 -1.0415 -1.9103  0.2123
79613SOL     OW56830   7.449  13.777   5.492 -0.1101 -0.4131 -0.4640
79613SOL    HW156831   7.430  13.686   5.467 -0.0679 -0.1668 -1.4402
79613SOL    HW256832   7.508  13.808   5.424  0.6452  0.0552  0.3992
79614SOL     OW56833  11.807   2.080  10.316  0.2179  1.5240 -0.4053
79614SOL    HW156834  11.833   2.124  10.235  2.4273  1.2703  0.1200
79614SOL    HW256835  11.850   2.129  10.386  0.5594  0.1566  0.3967
79615SOL     OW56836   1.325   0.267  11.987  0.6070  0.5429  0.1632
79615SOL    HW156837   1.331   0.346  12.041 -2.4277 -0.6265  2.5032
79615SOL    HW256838   1.296   0.299  11.902 -0.9816  1.9707  1.1815
79616SOL     OW56839   4.404  12.936   4.629  0.1299 -0.1822 -0.1486
79616SOL    HW156840   4.466  12.881   4.581  1.3917 -0.7340  2.0275
79616SOL    HW256841   4.425  13.025   4.602  0.9912 -0.4614 -0.4333
79617SOL     OW56842   7.282   1.662   2.383  0.2153  0.2086 -0.0388
79617SOL    HW156843   7.317   1.653   2.294  0.9034 -1.1030  0.3363
79617SOL    HW256844   7.214   1.595   2.389  2.4010 -2.0790  1.4125
79618SOL     OW56845  11.670   6.432   2.421  0.2022  0.5299 -0.5202
79618SOL    HW156846  11.747   6.392   2.379  0.3306  0.1689  0.0405
79618SOL    HW256847  11.604   6.436   2.351  0.4271 -0.0100 -0.7716
79619SOL     OW56848  11.700   9.406  10.836  0.0189  0.6007 -0.3922
79619SOL    HW156849  11.666   9.405  10.925 -2.8896 -0.6979 -1.3740
79619SOL    HW256850  11.663   9.486  10.798 -1.2664 -0.3397 -1.2108
79620SOL     OW56851   2.159  12.187  13.474  0.3965  0.1609  0.2249
79620SOL    HW156852   2.142  12.134  13.396  1.9907 -0.7287  0.4546
79620SOL    HW256853   2.158  12.124  13.546  1.7517  0.5159  0.5730
79621SOL     OW56854   3.283  13.114   4.921 -0.1653  0.0205 -0.0375
79621SOL    HW156855   3.264  13.021   4.935 -0.9232 -0.0215 -1.1958
79621SOL    HW256856   3.236  13.159   4.991  1.0949 -0.5011  1.2039
79622SOL     OW56857   0.456   5.376   1.292 -0.3327 -0.0885  0.2787
79622SOL    HW156858   0.544   5.397   1.321  0.1245  0.8618 -1.6445
79622SOL    HW256859   0.468   5.322   1.214 -1.4440  0.0615 -0.0169
79623SOL     OW56860   9.464   9.291  12.217  0.1126  0.1148 -0.0140
79623SOL    HW156861   9.470   9.306  12.311  0.8471  0.5782 -0.1164
79623SOL    HW256862   9.520   9.215  12.201 -0.7910 -0.5740  0.0416
79624SOL     OW56863   1.376  12.345  12.722  0.2846  0.2547 -0.1518
79624SOL    HW156864   1.443  12.360  12.788  1.5083  0.1642 -1.3339
79624SOL    HW256865   1.323  12.274  12.757  2.7809 -1.9576 -0.5781
79625SOL     OW56866  12.178  10.386   7.898 -0.6375  0.5087 -0.7946
79625SOL    HW156867  12.093  10.350   7.923  0.1574  0.0979  1.5358
79625SOL    HW256868  12.205  10.332   7.823 -1.2422 -1.1780  0.1549
79626SOL     OW56869   1.203   8.167   7.258  0.1178 -0.0464  0.3922
79626SOL    HW156870   1.225   8.121   7.177 -1.4736 -1.3367  0.6333
79626SOL    HW256871   1.287   8.182   7.301  0.9551  0.3085 -1.2995
79627SOL     OW56872   1.926   0.907   9.642  0.3703  0.1195 -0.3856
79627SOL    HW156873   1.980   0.984   9.662  0.0052  0.6827 -1.4663
79627SOL    HW256874   1.836   0.935   9.661  0.4171 -0.8028  1.3778
79628SOL     OW56875  12.128   9.167   9.042 -0.3502 -0.1469  0.2199
79628SOL    HW156876  12.221   9.151   9.062  0.2979  1.5312 -1.2434
79628SOL    HW256877  12.088   9.184   9.127  1.3155  2.0076  0.6520
79629SOL     OW56878   1.704  13.161  11.916 -0.4838  0.6796  0.0453
79629SOL    HW156879   1.667  13.114  11.841 -1.2576  1.4407 -0.0604
79629SOL    HW256880   1.665  13.248  11.911  2.8060  2.2362 -1.2287
79630SOL     OW56881  10.412   9.551   6.760 -0.2238  0.3997 -0.5581
79630SOL    HW156882  10.379   9.462   6.775  3.6006 -1.3913 -1.5452
79630SOL    HW256883  10.384   9.571   6.671 -0.6723  0.0012 -0.5163
79631SOL     OW56884  10.155  11.797   2.742 -0.1755  0.0664 -0.0315
79631SOL    HW156885  10.132  11.746   2.664 -0.7578 -1.2856  0.9782
79631SOL    HW256886  10.161  11.732   2.812 -0.7742  1.3628  1.2879
79632SOL     OW56887   1.580  13.870  11.341 -0.6788 -0.2942  0.2410
79632SOL    HW156888   1.627  13.834  11.266  1.4480  1.7243  0.4931
79632SOL    HW256889   1.506  13.917  11.303  0.5461  0.9561 -0.6543
79633SOL     OW56890   8.972  12.176  10.625 -0.0075  0.6765 -0.3336
79633SOL    HW156891   8.922  12.109  10.672 -0.6427  1.6189  0.3459
79633SOL    HW256892   9.061  12.141  10.621  0.0487  0.5454  1.5168
79634SOL     OW56893  12.930   5.388   2.037 -0.0528  0.1476  0.5062
79634SOL    HW156894  13.002   5.331   2.009  0.1260  0.3961  0.4601
79634SOL    HW256895  12.924   5.374   2.132 -0.1823 -0.1456  0.4563
79635SOL     OW56896   0.879  10.108   7.680 -0.1227 -0.1769  0.1330
79635SOL    HW156897   0.944  10.095   7.748 -1.9140  0.6301  2.1116
79635SOL    HW256898   0.828  10.183   7.710 -1.5180 -0.3265 -1.6935
79636SOL     OW56899  13.785  13.939   2.842 -0.3259  0.5352 -0.2643
79636SOL    HW156900  13.697  13.966   2.868 -1.6888 -2.1807 -1.6118
79636SOL    HW256901  13.827  13.911   2.923  0.1248  3.6426  0.7099
79637SOL     OW56902   7.629  11.143   5.691  0.5080 -0.3518 -0.2159
79637SOL    HW156903   7.575  11.089   5.633  0.2781  1.0726 -1.3803
79637SOL    HW256904   7.697  11.083   5.723 -2.2975 -2.5700  2.2534
79638SOL     OW56905  11.532   7.753   7.297  0.4208 -0.4017 -0.1160
79638SOL    HW156906  11.560   7.838   7.330 -1.4309 -0.8600  3.0682
79638SOL    HW256907  11.438   7.763   7.283  0.2961 -1.7151 -0.3687
79639SOL     OW56908  13.751   2.707   0.782  0.1879  0.5895  0.0010
79639SOL    HW156909  13.791   2.622   0.800 -1.1688  0.2807  1.7701
79639SOL    HW256910  13.822   2.770   0.798  0.6783 -0.0849  0.5391
79640SOL     OW56911   9.478  12.410  13.768  0.0817 -0.7867  0.7684
79640SOL    HW156912   9.497  12.333  13.715 -1.3013 -0.8126  0.2602
79640SOL    HW256913   9.475  12.377  13.858 -0.7756 -1.4019  0.5299
79641SOL     OW56914   5.796  12.579   7.692 -0.0637  0.2953  0.3174
79641SOL    HW156915   5.846  12.641   7.745 -0.8715  0.2224  1.1773
79641SOL    HW256916   5.843  12.496   7.701 -0.8976 -0.0283  1.9833
79642SOL     OW56917   4.314  13.929  13.960  0.6729 -0.4052 -0.1999
79642SOL    HW156918   4.407  13.924  13.936  1.0400  0.7871  0.8680
79642SOL    HW256919   4.282  14.006  13.913  0.1556 -0.9240 -0.7143
79643SOL     OW56920   0.636   9.809   6.743 -0.2858 -0.1288 -0.1947
79643SOL    HW156921   0.690   9.731   6.727 -0.4625 -0.3568  0.2953
79643SOL    HW256922   0.680   9.854   6.815 -0.3880  0.0277 -0.2300
79644SOL     OW56923   0.925  11.296   8.666  0.1765 -0.3978  0.4621
79644SOL    HW156924   0.995  11.350   8.630  0.3530  0.4045  1.9453
79644SOL    HW256925   0.913  11.328   8.755 -0.9376 -1.6422  0.7937
79645SOL     OW56926   6.203   9.723   0.582 -0.0945  0.1673 -0.0689
79645SOL    HW156927   6.236   9.774   0.508  1.3738  1.8304  1.6471
79645SOL    HW256928   6.279   9.672   0.612 -0.0091  1.2091  1.6296
79646SOL     OW56929   7.300   9.900   7.921 -0.0364 -0.3329  0.4533
79646SOL    HW156930   7.214   9.864   7.901  0.0890 -1.0442  1.1702
79646SOL    HW256931   7.329   9.940   7.839 -0.6859 -0.8214 -0.0200
79647SOL     OW56932   5.136  10.142   7.972 -0.6602 -0.9693  0.4570
79647SOL    HW156933   5.096  10.225   7.947  2.3699  0.6090  0.3092
79647SOL    HW256934   5.144  10.093   7.890  0.2201 -0.0696 -0.0255
79648SOL     OW56935   6.611  13.216  11.872  0.4082  0.0035  0.0578
79648SOL    HW156936   6.556  13.160  11.927  0.2843 -1.6707 -1.7001
79648SOL    HW256937   6.699  13.177  11.879  0.2631 -0.6294 -1.4100
79649SOL     OW56938   3.878   2.105   9.769 -0.2413 -0.3272 -0.2962
79649SOL    HW156939   3.913   2.033   9.716 -2.1118 -3.8796  2.8436
79649SOL    HW256940   3.949   2.125   9.830 -0.5884 -1.3447  0.4560
79650SOL     OW56941   5.151  12.066   7.615  0.3269 -0.2782 -0.2372
79650SOL    HW156942   5.098  12.071   7.535  0.3981 -0.1213 -0.2751
79650SOL    HW256943   5.101  12.009   7.673  0.6654 -1.0383 -0.6832
79651SOL     OW56944   8.442   3.686   4.043 -0.1788  0.4496 -0.1560
79651SOL    HW156945   8.469   3.674   4.134  1.5154 -0.8961 -0.7684
79651SOL    HW256946   8.365   3.742   4.047  0.9445  1.9443  1.9690
79652SOL     OW56947   3.796   7.827   5.224  0.3743  0.1163  0.2256
79652SOL    HW156948   3.731   7.842   5.155 -0.2275 -1.1950  0.4828
79652SOL    HW256949   3.747   7.787   5.295  1.3475 -0.3182  0.6694
79653SOL     OW56950  11.887   7.262  11.255 -0.2519  0.1506  0.0037
79653SOL    HW156951  11.908   7.256  11.348  0.9580  0.1286 -0.2514
79653SOL    HW256952  11.972   7.265  11.211 -0.8005  0.2527 -1.0994
79654SOL     OW56953  13.307  11.460  11.575 -0.0020 -0.1856 -0.0777
79654SOL    HW156954  13.239  11.512  11.533 -0.7161 -0.2015  1.0308
79654SOL    HW256955  13.283  11.457  11.667  1.9484  0.5129  0.5177
79655SOL     OW56956   4.392   9.641   4.549  0.1743 -0.6317  0.3566
79655SOL    HW156957   4.468   9.582   4.545  0.6624  0.0365 -1.2688
79655SOL    HW256958   4.416   9.707   4.613  1.9461  0.7697 -1.6134
79656SOL     OW56959   9.760   8.785   5.138  1.0414  0.7698 -0.5951
79656SOL    HW156960   9.739   8.751   5.225  0.0771 -0.2683 -1.2025
79656SOL    HW256961   9.690   8.847   5.119  0.0241 -0.5643 -1.4499
79657SOL     OW56962   5.909   3.239   9.070  0.2005  0.5025 -0.0073
79657SOL    HW156963   5.949   3.160   9.034 -1.0544  0.0486 -0.4890
79657SOL    HW256964   5.914   3.303   8.999 -0.9633  0.0635 -0.5189
79658SOL     OW56965   9.349   5.719  10.651 -0.1557 -0.1590  0.3186
79658SOL    HW156966   9.306   5.777  10.588 -1.0647  0.4920  1.4840
79658SOL    HW256967   9.414   5.775  10.694 -0.3728 -0.2713  0.7909
79659SOL     OW56968  10.963   4.326   0.364 -0.2226 -0.3701 -0.2026
79659SOL    HW156969  11.017   4.396   0.402 -0.4469 -0.6393  0.6271
79659SOL    HW256970  10.978   4.334   0.269  0.0382  0.5653 -0.0985
79660SOL     OW56971  11.112   9.691   5.321 -0.0980 -0.2038 -0.3073
79660SOL    HW156972  11.116   9.734   5.235 -0.4167 -0.7173 -0.5808
79660SOL    HW256973  11.029   9.645   5.321  1.0036 -2.3142 -0.7269
79661SOL     OW56974  11.950   5.438  14.067  0.4005  1.2084 -0.7215
79661SOL    HW156975  11.865   5.398  14.086 -0.5429  2.9364 -1.0779
79661SOL    HW256976  12.012   5.388  14.120 -0.5738 -1.0863 -1.6004
79662SOL     OW56977   5.628   5.520  11.253 -0.3967 -0.2780 -0.7464
79662SOL    HW156978   5.539   5.533  11.219 -0.2033 -0.0187 -1.1595
79662SOL    HW256979   5.683   5.512  11.175  0.0622  0.3813 -0.5027
79663SOL     OW56980   9.110   2.407  11.266  0.1053  0.0301  0.3131
79663SOL    HW156981   9.117   2.328  11.212 -3.9976  0.5428 -1.3093
79663SOL    HW256982   9.122   2.479  11.205  0.0166  0.6548  1.0177
79664SOL     OW56983   6.387   8.357  10.854 -0.5285  0.2990 -0.1021
79664SOL    HW156984   6.412   8.449  10.864 -0.2063  0.4378 -1.9000
79664SOL    HW256985   6.301   8.351  10.896  0.8327  0.6210  3.0286
79665SOL     OW56986   0.426   8.720   3.693 -0.4234  0.5006  0.0859
79665SOL    HW156987   0.347   8.774   3.683  0.1300  1.0403 -1.6965
79665SOL    HW256988   0.474   8.732   3.612  0.1044 -2.0872 -0.0863
79666SOL     OW56989   0.565  12.456  10.713 -0.4046 -0.1102 -0.0425
79666SOL    HW156990   0.634  12.522  10.701 -1.2401  0.5256 -1.5539
79666SOL    HW256991   0.568  12.436  10.806  3.0718 -1.4934 -0.2998
79667SOL     OW56992   4.879   4.395   1.585  0.0515  0.4237 -0.3279
79667SOL    HW156993   4.972   4.400   1.563 -0.1970 -0.5575 -1.7667
79667SOL    HW256994   4.836   4.377   1.502 -1.5674  1.9477  0.1223
79668SOL     OW56995   0.984   1.477   9.903  0.4322 -0.1934 -0.2110
79668SOL    HW156996   0.897   1.452   9.871 -1.0635  1.8587  1.9624
79668SOL    HW256997   1.014   1.544   9.841 -0.5629  0.6941  0.2401
79669SOL     OW56998  10.268  13.944   2.222  0.2500 -0.2090 -0.1291
79669SOL    HW156999  10.329  13.945   2.297 -0.4713  0.3122  0.4644
79669SOL    HW257000  10.293  14.022   2.171  0.0136  0.0710  0.1766
79670SOL     OW57001  12.171  10.300   2.218  0.1076  0.5653  0.7383
79670SOL    HW157002  12.111  10.285   2.292 -1.5917 -0.2285 -0.7331
79670SOL    HW257003  12.121  10.274   2.141  2.2743  0.1654 -0.6090
79671SOL     OW57004   7.719   0.651   7.443  0.0780  0.3520 -0.8597
79671SOL    HW157005   7.649   0.643   7.508  1.0904  0.7377  0.3157
79671SOL    HW257006   7.724   0.565   7.403 -0.8279  0.2144 -0.7008
79672SOL     OW57007   9.386   2.116   5.903 -0.0588 -0.0501  0.2694
79672SOL    HW157008   9.365   2.042   5.961 -2.4784 -0.2081 -0.7176
79672SOL    HW257009   9.398   2.076   5.817 -3.5349  0.7827 -0.7433
79673SOL     OW57010   3.176  11.061  12.411 -0.0220  0.5567 -0.2268
79673SOL    HW157011   3.114  11.121  12.369 -2.1568 -1.3599 -0.0486
79673SOL    HW257012   3.182  10.986  12.352  3.1245  1.1117 -0.7831
79674SOL     OW57013   6.042   0.623   5.313 -0.7683  0.0418 -0.5081
79674SOL    HW157014   5.972   0.688   5.319 -0.5864  0.3363 -1.4099
79674SOL    HW257015   6.073   0.630   5.223  0.3942 -0.1079 -0.1362
79675SOL     OW57016   9.405   1.238   1.944 -1.1021  0.0478 -0.0097
79675SOL    HW157017   9.452   1.317   1.915 -1.9571  1.0298  1.1896
79675SOL    HW257018   9.475   1.176   1.965 -0.3711  0.8857  0.1220
79676SOL     OW57019  11.167   1.295   1.471 -0.0098 -0.6292  0.5934
79676SOL    HW157020  11.178   1.369   1.530  0.4087 -0.5995  0.4793
79676SOL    HW257021  11.072   1.289   1.457 -0.0602 -0.2488  0.7710
79677SOL     OW57022   4.677   1.315   0.350  0.0070  0.4163  0.9074
79677SOL    HW157023   4.633   1.229   0.351  0.6407 -0.0450 -1.6988
79677SOL    HW257024   4.607   1.378   0.364 -1.0554 -0.4247 -0.3845
79678SOL     OW57025   6.293  11.490   2.501  0.0614  0.0129 -0.2014
79678SOL    HW157026   6.338  11.436   2.566  2.6020 -0.9218 -2.5397
79678SOL    HW257027   6.200  11.476   2.518  0.6282 -1.7705  1.8981
79679SOL     OW57028   2.670  13.386  13.768 -0.2014 -0.9329 -0.0630
79679SOL    HW157029   2.736  13.419  13.830 -0.0359 -0.5606 -0.4352
79679SOL    HW257030   2.703  13.299  13.743  0.7075 -0.3288 -1.0477
79680SOL     OW57031   0.441   4.933  14.029  0.9340 -0.0695  0.0729
79680SOL    HW157032   0.493   4.996  13.979  0.2331  1.0787  0.7365
79680SOL    HW257033   0.459   4.954  14.121 -0.2551 -0.0179  0.3135
79681SOL     OW57034   7.557   1.824  13.569 -0.6185 -0.0910 -0.1112
79681SOL    HW157035   7.646   1.806  13.598  0.2681 -1.9552 -3.4708
79681SOL    HW257036   7.504   1.755  13.609 -0.5398  0.7681  1.5469
79682SOL     OW57037  13.566  10.523   6.264 -0.3816 -0.0782 -0.7374
79682SOL    HW157038  13.600  10.511   6.175  1.0266 -2.0959  0.0115
79682SOL    HW257039  13.624  10.472   6.319 -0.9816  1.4600  1.4385
79683SOL     OW57040   2.947   1.946  12.560  0.3213 -0.3326 -0.4065
79683SOL    HW157041   2.963   1.891  12.637 -0.9133  0.4780  0.4792
79683SOL    HW257042   2.910   2.026  12.596  1.2524  0.7461 -1.7329
79684SOL     OW57043   1.768   9.961  10.276 -0.3195 -0.0780 -0.0766
79684SOL    HW157044   1.794   9.870  10.259  0.9307  0.0310  1.1271
79684SOL    HW257045   1.795   9.978  10.366  1.4633  2.1524 -0.9340
79685SOL     OW57046   8.866   8.313   1.510 -0.2867  0.2138 -0.0039
79685SOL    HW157047   8.939   8.374   1.515 -0.7016  0.6517  1.0161
79685SOL    HW257048   8.880   8.265   1.428  0.2881  1.3583 -0.6051
79686SOL     OW57049   9.004   4.340   8.564 -0.0073 -0.2483  0.0288
79686SOL    HW157050   8.915   4.306   8.575 -0.3556  0.8058  0.5825
79686SOL    HW257051   8.994   4.414   8.505  0.4323  0.1695  0.4684
79687SOL     OW57052   9.523   9.608  10.374 -0.0768 -0.8791 -0.2912
79687SOL    HW157053   9.548   9.582  10.462 -2.2538  2.0352  1.3558
79687SOL    HW257054   9.433   9.576  10.364  0.1516 -1.1928 -1.4895
79688SOL     OW57055   9.406   9.933   1.269  0.1681  0.0432 -0.4178
79688SOL    HW157056   9.484   9.987   1.261 -1.1494  1.9709 -0.9497
79688SOL    HW257057   9.365   9.961   1.351 -0.2827 -0.4894 -0.4531
79689SOL     OW57058   6.912   1.142   9.508  0.4286  0.2757 -0.5282
79689SOL    HW157059   6.855   1.215   9.530 -0.4476 -0.6767  0.4923
79689SOL    HW257060   6.991   1.156   9.561 -0.7069 -0.7330  1.5982
79690SOL     OW57061  13.213  12.231   1.715  0.2461 -0.2999  0.0541
79690SOL    HW157062  13.172  12.167   1.657 -0.3918 -0.8183  1.0394
79690SOL    HW257063  13.206  12.192   1.802 -0.4404  1.2300  0.7294
79691SOL     OW57064  11.345   5.183   3.270  0.3900  0.3863 -0.4763
79691SOL    HW157065  11.291   5.257   3.298  0.0044  0.1135 -0.4940
79691SOL    HW257066  11.300   5.148   3.193 -0.5909 -1.1438  0.7137
79692SOL     OW57067   8.441   7.671   3.230  0.2594  0.7351  0.4757
79692SOL    HW157068   8.389   7.725   3.172  1.5045  1.6679  0.1821
79692SOL    HW257069   8.505   7.731   3.268  1.3453 -0.4205  0.5492
79693SOL     OW57070  11.509   0.696   0.634  0.5776 -0.3878 -0.3934
79693SOL    HW157071  11.541   0.764   0.574  0.4660 -0.4215 -0.4936
79693SOL    HW257072  11.542   0.721   0.720 -1.3134  1.0604 -0.0017
79694SOL     OW57073   7.796  10.295   7.745  0.2018  0.2724 -0.2083
79694SOL    HW157074   7.753  10.298   7.830 -2.7166  0.5945 -1.5641
79694SOL    HW257075   7.885  10.326   7.762  0.1699 -0.9822  2.9025
79695SOL     OW57076   2.112   5.488   0.346 -0.5351 -0.0912 -0.4058
79695SOL    HW157077   2.042   5.440   0.302 -0.2762  0.8339 -1.9069
79695SOL    HW257078   2.066   5.552   0.401 -0.8995  0.4773 -1.3404
79696SOL     OW57079   9.395  12.352   9.765  0.0836  0.0989 -0.0543
79696SOL    HW157080   9.463  12.418   9.749  0.6677 -0.9257 -2.1418
79696SOL    HW257081   9.415  12.317   9.852  2.2164 -0.1095 -0.5748
79697SOL     OW57082   7.240  11.159   9.627 -0.0634  0.1846 -0.2305
79697SOL    HW157083   7.226  11.243   9.585  0.5703  0.5262  0.2254
79697SOL    HW257084   7.199  11.095   9.568 -1.9542  0.9362  0.1704
79698SOL     OW57085   0.157   9.915   5.599  0.3159  0.5664  0.1045
79698SOL    HW157086   0.067   9.890   5.618  0.6597 -1.3373 -0.5526
79698SOL    HW257087   0.206   9.887   5.676  0.3040  2.0674  0.6857
79699SOL     OW57088   8.384   4.864   6.773  0.0786 -0.6415 -0.2754
79699SOL    HW157089   8.349   4.807   6.840 -0.5441 -0.5631 -0.5307
79699SOL    HW257090   8.418   4.940   6.821  0.4322 -0.9808  0.0155
79700SOL     OW57091   2.667   9.662   5.662 -0.2871  0.0705 -0.7877
79700SOL    HW157092   2.646   9.588   5.719  0.7369 -0.7559 -1.4512
79700SOL    HW257093   2.731   9.628   5.600 -1.5695  0.8490 -2.6569
79701SOL     OW57094   5.657  12.802   3.665  0.7204  0.5865 -0.8328
79701SOL    HW157095   5.699  12.852   3.736  1.4088  0.6720 -1.2889
79701SOL    HW257096   5.585  12.756   3.708  0.2828  1.6923 -0.3278
79702SOL     OW57097  12.489   4.562   1.712 -0.5266 -0.5570 -0.6363
79702SOL    HW157098  12.420   4.626   1.695 -1.1970 -1.2521 -0.6150
79702SOL    HW257099  12.502   4.517   1.628 -0.2263 -0.5537 -0.5947
79703SOL     OW57100   2.909  13.979  10.302  0.7108 -0.6473 -0.2332
79703SOL    HW157101   2.870  13.895  10.277 -0.4582 -0.0368 -0.5398
79703SOL    HW257102   2.834  14.034  10.324  1.5664 -0.4140  2.4256
79704SOL     OW57103   7.854  12.346   7.761 -0.2073  0.2014  0.2645
79704SOL    HW157104   7.920  12.378   7.699  0.7263  0.5622  1.4133
79704SOL    HW257105   7.792  12.418   7.770  0.4233  0.6837  0.8064
79705SOL     OW57106   7.143  10.953   9.440 -0.3296 -0.3375  0.5530
79705SOL    HW157107   7.135  10.878   9.381  2.0586 -1.2538  1.2720
79705SOL    HW257108   7.107  10.922   9.523 -1.0536 -0.0101  0.3744
79706SOL     OW57109  12.145   8.618   6.524  0.0600 -0.0725  0.3483
79706SOL    HW157110  12.202   8.620   6.448 -0.7351 -2.0742 -0.3634
79706SOL    HW257111  12.186   8.679   6.586  1.8160  0.0975 -0.8983
79707SOL     OW57112  10.920   5.633   7.384 -0.1287  0.0220  0.2822
79707SOL    HW157113  10.944   5.550   7.342  0.1275  0.8589 -1.3458
79707SOL    HW257114  10.996   5.689   7.369  0.7582 -0.1453  3.5622
79708SOL     OW57115   4.835  13.689  10.057 -0.3758  0.2295 -0.1390
79708SOL    HW157116   4.748  13.711  10.023 -1.1454 -1.4502  0.6279
79708SOL    HW257117   4.852  13.755  10.124 -2.8394 -1.5490  2.4740
79709SOL     OW57118   4.985  11.477   0.929 -0.1705  0.2400 -0.0894
79709SOL    HW157119   5.076  11.507   0.920  0.1747 -0.6049  0.4443
79709SOL    HW257120   4.984  11.429   1.012 -1.4192  1.3417  0.5561
79710SOL     OW57121   3.769  10.135   9.197  0.2011  0.2053  0.3788
79710SOL    HW157122   3.853  10.177   9.215 -0.0153  1.8120 -1.9287
79710SOL    HW257123   3.793  10.055   9.150  0.4860 -0.6877  1.9720
79711SOL     OW57124  12.487   0.242   9.336 -0.1540 -0.4025  0.5737
79711SOL    HW157125  12.431   0.247   9.413  0.2953 -0.0035  0.8823
79711SOL    HW257126  12.569   0.204   9.370  0.4170  0.7393  0.5122
79712SOL     OW57127  12.093  11.865   3.668 -0.4873 -0.1134  0.4237
79712SOL    HW157128  12.118  11.957   3.662  1.4717 -0.6593 -0.4848
79712SOL    HW257129  12.102  11.843   3.760 -2.0874  0.8484  0.8609
79713SOL     OW57130   5.049   4.875  11.184  0.2826  0.0689  0.2765
79713SOL    HW157131   5.073   4.813  11.253  3.9264  0.0897 -0.7795
79713SOL    HW257132   5.040   4.821  11.106  0.9468  0.5486 -0.1445
79714SOL     OW57133  10.471  10.480   0.199  0.0041 -0.0566 -0.1631
79714SOL    HW157134  10.443  10.531   0.275 -0.9394  0.9583 -1.1318
79714SOL    HW257135  10.470  10.389   0.228 -0.0594  0.3421  1.1118
79715SOL     OW57136   3.452  12.902   1.002 -0.1479  0.3857  0.1955
79715SOL    HW157137   3.513  12.877   1.072 -0.5726 -1.0150  0.1118
79715SOL    HW257138   3.365  12.884   1.038 -0.3760 -0.3491 -0.6620
79716SOL     OW57139   8.359  11.353   1.267  0.7298  0.1507  0.1865
79716SOL    HW157140   8.328  11.401   1.344  0.0443  1.2349 -0.7181
79716SOL    HW257141   8.392  11.270   1.301 -0.6343  0.1095  1.5269
79717SOL     OW57142   5.960  13.465   8.405 -0.1700 -0.0087 -0.0484
79717SOL    HW157143   5.917  13.540   8.364 -0.2306 -0.1071 -0.1662
79717SOL    HW257144   6.032  13.443   8.345  0.1800  0.2944  0.2616
79718SOL     OW57145   2.915   1.932  10.806  0.1011  0.1017 -0.3942
79718SOL    HW157146   2.900   1.844  10.841 -0.0541  0.4452  0.4040
79718SOL    HW257147   2.830   1.960  10.772 -0.5617  1.0585  1.9029
79719SOL     OW57148   6.839  13.556   8.703 -0.2726  0.0523 -0.2207
79719SOL    HW157149   6.773  13.596   8.759  0.8754  1.7985 -0.0427
79719SOL    HW257150   6.792  13.488   8.654 -2.8477  2.8340 -1.9361
79720SOL     OW57151   9.394  10.803   6.031  0.1822  0.5094 -0.1164
79720SOL    HW157152   9.300  10.811   6.015  0.5666  1.4930 -2.3697
79720SOL    HW257153   9.428  10.764   5.951  1.6873  0.0351  0.7207
79721SOL     OW57154  12.063  11.740  13.783 -0.2186 -0.1934  0.1467
79721SOL    HW157155  12.030  11.797  13.852 -1.3752  0.5326 -0.9680
79721SOL    HW257156  12.126  11.794  13.735  1.6250 -1.1241  1.3985
79722SOL     OW57157   6.898   2.383  11.188 -0.3557 -0.0392  0.2239
79722SOL    HW157158   6.825   2.326  11.165 -0.7216 -0.4806  2.2237
79722SOL    HW257159   6.936   2.342  11.266 -0.0183  1.9014  1.1474
79723SOL     OW57160  11.453   7.182   5.451  0.3242 -0.2948 -0.5030
79723SOL    HW157161  11.472   7.235   5.528 -3.2496  0.6459 -0.1275
79723SOL    HW257162  11.473   7.239   5.377  0.1670  0.1860 -0.1809
79724SOL     OW57163  10.770   7.243  13.476  0.4015 -0.3603  0.1455
79724SOL    HW157164  10.742   7.187  13.548  0.5743 -2.2545 -1.1864
79724SOL    HW257165  10.838   7.298  13.514 -0.8551  0.0658  1.8853
79725SOL     OW57166   2.443   9.447   8.721  0.0825  0.8019  0.4306
79725SOL    HW157167   2.505   9.473   8.789  0.6463 -0.8444  0.6140
79725SOL    HW257168   2.479   9.483   8.640  1.0866  0.2025  0.5929
79726SOL     OW57169   2.726   0.909   8.051 -0.1382 -0.4988 -0.4203
79726SOL    HW157170   2.753   0.901   8.143  0.0266  0.7547 -0.3535
79726SOL    HW257171   2.773   0.985   8.018 -0.3711 -0.8000 -1.4927
79727SOL     OW57172  12.130   1.652  14.123  0.2567 -0.1533  0.2583
79727SOL    HW157173  12.057   1.684  14.176 -0.5090 -0.6079 -0.5001
79727SOL    HW257174  12.189   1.611  14.187 -0.5489 -0.5010  0.7955
79728SOL     OW57175  12.966   6.008   1.817  0.1556 -1.2198  0.0972
79728SOL    HW157176  13.021   6.006   1.895 -0.2469 -0.8399  0.3943
79728SOL    HW257177  12.879   5.983   1.847  0.2828 -2.4412 -0.4856
79729SOL     OW57178  13.928   3.432   0.193 -0.0003  0.0935  0.7378
79729SOL    HW157179  13.854   3.489   0.212 -0.3032  0.3246 -0.9939
79729SOL    HW257180  13.891   3.359   0.143  0.6471 -0.7785  1.5005
79730SOL     OW57181   6.067   2.845   5.232 -0.1845 -0.3903 -0.0159
79730SOL    HW157182   5.993   2.823   5.288 -0.3289  0.9692  0.3628
79730SOL    HW257183   6.091   2.762   5.191  0.9370 -1.7874  3.1964
79731SOL     OW57184   5.195   8.270  12.565 -0.2356  0.0053  0.0739
79731SOL    HW157185   5.125   8.206  12.557  0.3812 -0.6459 -0.1271
79731SOL    HW257186   5.197   8.292  12.659  0.3516 -1.1791  0.3511
79732SOL     OW57187   2.690   8.068   9.602  0.7392 -0.8786 -0.0082
79732SOL    HW157188   2.608   8.114   9.618  2.5099  1.4342  3.7852
79732SOL    HW257189   2.681   7.986   9.649  0.4815 -0.7869  0.1055
79733SOL     OW57190   1.704   2.053  11.103  0.5844 -0.4404 -0.2377
79733SOL    HW157191   1.712   2.126  11.164  0.1474 -1.8694  1.6225
79733SOL    HW257192   1.718   1.975  11.157 -0.0918 -1.7923 -1.9223
79734SOL     OW57193  12.179  10.516   8.835  0.0570 -0.8403  0.3549
79734SOL    HW157194  12.124  10.460   8.890 -0.0487 -1.6963 -0.5917
79734SOL    HW257195  12.117  10.571   8.788  0.0566 -1.1566 -0.0189
79735SOL     OW57196   6.711  13.766   6.781  0.1410 -0.2913  0.1466
79735SOL    HW157197   6.756  13.791   6.700  1.8694 -1.2234  0.7693
79735SOL    HW257198   6.676  13.848   6.815 -1.1737  0.0425 -1.8170
79736SOL     OW57199   3.473  13.811   2.812 -0.1305  0.2785 -0.0628
79736SOL    HW157200   3.546  13.822   2.873 -0.9269  2.7771  0.5789
79736SOL    HW257201   3.423  13.738   2.849  0.4900  0.4305  1.1525
79737SOL     OW57202   5.542   8.007   2.285  0.1163  0.3856  0.1866
79737SOL    HW157203   5.600   8.074   2.250  1.4446  0.7014  2.7421
79737SOL    HW257204   5.501   8.048   2.362  1.2254 -1.7528  2.0372
79738SOL     OW57205   1.717  13.976   9.674  0.4896 -0.5773  0.1473
79738SOL    HW157206   1.644  14.030   9.705  0.3732 -1.4136  1.3985
79738SOL    HW257207   1.759  14.030   9.607 -2.4782 -0.8885 -2.1618
79739SOL     OW57208   8.426   5.795  11.164  0.7753  0.1066  0.1357
79739SOL    HW157209   8.359   5.835  11.108 -0.6635 -2.1235  0.0894
79739SOL    HW257210   8.491   5.863  11.178 -0.6345  1.8377 -1.3012
79740SOL     OW57211   4.354   2.019  13.764  0.1740 -0.2689  0.1698
79740SOL    HW157212   4.282   1.989  13.819  0.8869 -0.8955  0.7931
79740SOL    HW257213   4.431   1.974  13.799  1.0172  1.0208  0.0630
79741SOL     OW57214   1.397   2.420   6.425  0.3008  0.0627 -0.1859
79741SOL    HW157215   1.385   2.337   6.378 -0.2526 -0.0565  0.1600
79741SOL    HW257216   1.487   2.416   6.457  0.7875  0.2718 -1.4731
79742SOL     OW57217   3.412   4.171  10.826  0.2477 -0.4454  0.4746
79742SOL    HW157218   3.479   4.228  10.864 -0.1653  1.1094 -0.9823
79742SOL    HW257219   3.458   4.088  10.809  2.1783  0.8923 -1.4132
79743SOL     OW57220   6.162   5.668  13.046  0.1803 -0.8099  0.4687
79743SOL    HW157221   6.210   5.745  13.013  0.1819 -0.3070  1.5825
79743SOL    HW257222   6.223   5.595  13.033  0.6702 -0.4178  0.5182
79744SOL     OW57223   7.751   9.092   0.840  0.0140 -0.4540  0.4665
79744SOL    HW157224   7.737   9.029   0.769 -1.2424 -0.1874  0.4549
79744SOL    HW257225   7.813   9.049   0.898 -1.8454 -2.3474  1.1749
79745SOL     OW57226  11.282  10.514  12.346  0.5209  0.0165 -0.0875
79745SOL    HW157227  11.190  10.496  12.330 -0.0208  0.2471  2.3475
79745SOL    HW257228  11.327  10.432  12.324 -0.0942  0.1999 -2.1863
79746SOL     OW57229   1.865   9.518   7.099 -0.0010  0.3637 -0.2982
79746SOL    HW157230   1.771   9.532   7.110  0.0015  0.9068 -0.9274
79746SOL    HW257231   1.871   9.430   7.060 -0.2727  0.4887 -0.6300
79747SOL     OW57232  13.703   3.251   8.291  0.1310 -0.1793  0.1174
79747SOL    HW157233  13.736   3.318   8.231  4.1741 -1.1732  0.9349
79747SOL    HW257234  13.655   3.190   8.234  2.6370 -0.3685 -2.0000
79748SOL     OW57235   3.115   0.358  13.715  0.1255 -0.2603  0.4209
79748SOL    HW157236   3.049   0.377  13.781 -0.0007 -2.0226  0.8520
79748SOL    HW257237   3.103   0.425  13.648 -1.3429  0.1079  1.0262
79749SOL     OW57238  13.811  11.315   1.505  0.2158 -0.0697 -1.3875
79749SOL    HW157239  13.718  11.306   1.528  0.1466  1.2943 -1.0061
79749SOL    HW257240  13.811  11.365   1.424  0.5951  3.9492  0.8141
79750SOL     OW57241   2.946   4.883  10.215  0.0063  0.7318 -0.3378
79750SOL    HW157242   2.917   4.908  10.303  0.6086  2.7643 -0.6496
79750SOL    HW257243   2.930   4.789  10.210 -2.0501  0.9181  1.1769
79751SOL     OW57244   5.407   3.936  10.336 -0.2241 -0.1368 -0.6887
79751SOL    HW157245   5.453   3.979  10.408  0.9883 -0.5863 -1.1753
79751SOL    HW257246   5.429   3.843  10.347 -2.4600 -0.6347  0.1037
79752SOL     OW57247   0.902   0.003   0.306 -0.1864 -0.2102  0.0776
79752SOL    HW157248   0.886   0.003   0.211 -1.2340  1.4976  0.2222
79752SOL    HW257249   0.858   0.081   0.338  1.2301 -0.0592  1.8091
79753SOL     OW57250   6.643   2.749   4.146  0.1537 -0.2621 -0.5254
79753SOL    HW157251   6.587   2.673   4.133 -1.3278  0.4096  1.3254
79753SOL    HW257252   6.583   2.824   4.147  1.2278  0.6461  0.1864
79754SOL     OW57253  13.790   6.082   8.629  0.4365  0.2362 -0.5392
79754SOL    HW157254  13.739   6.152   8.589 -0.7503 -1.2140 -1.7053
79754SOL    HW257255  13.745   6.064   8.712  1.6527  1.8372  0.5061
79755SOL     OW57256   2.523   4.513   9.438 -0.4477  0.4578  0.3486
79755SOL    HW157257   2.577   4.508   9.517 -2.3701 -1.4644  1.6515
79755SOL    HW257258   2.453   4.574   9.461 -0.7070  0.3301 -0.0909
79756SOL     OW57259   5.998   2.427   6.443 -0.6272 -0.2803  0.4943
79756SOL    HW157260   5.956   2.366   6.382  1.5065  0.1766 -1.5957
79756SOL    HW257261   5.939   2.502   6.448 -0.7491 -0.2179 -1.2743
79757SOL     OW57262   2.269  12.216   1.663  0.1831  0.0847 -0.0271
79757SOL    HW157263   2.269  12.163   1.584 -2.6937 -0.7810  0.4370
79757SOL    HW257264   2.312  12.162   1.729  0.9672  0.0603 -0.5516
79758SOL     OW57265  11.410   8.137   1.153 -0.0693 -0.8734 -0.3104
79758SOL    HW157266  11.400   8.148   1.059  2.1178 -2.1678 -0.7674
79758SOL    HW257267  11.443   8.222   1.184  1.7290 -1.2002 -1.1983
79759SOL     OW57268   6.157  12.043   0.298  0.2952 -0.0967  0.2662
79759SOL    HW157269   6.193  12.117   0.249  0.3436 -0.7835 -0.7549
79759SOL    HW257270   6.232  11.990   0.323  0.1778 -0.3210  0.1459
79760SOL     OW57271   9.630   9.911   1.012 -0.3329  0.1089 -0.7380
79760SOL    HW157272   9.610   9.861   1.092  0.8063  0.3596 -0.2700
79760SOL    HW257273   9.699   9.971   1.039  1.3928 -1.0407 -2.3501
79761SOL     OW57274  14.087   5.261  13.580  0.6953  0.1127 -0.0217
79761SOL    HW157275  14.071   5.171  13.551 -0.3567  0.4462 -0.5342
79761SOL    HW257276  14.143   5.299  13.512  1.9105 -0.4096  0.6592
79762SOL     OW57277   9.975   2.263   9.315  0.3631  0.6213  0.0464
79762SOL    HW157278   9.909   2.298   9.376  0.8991  0.8510  0.5018
79762SOL    HW257279   9.930   2.260   9.231 -0.9307 -1.2649  0.7352
79763SOL     OW57280  10.272   6.096   6.147  0.2873 -0.1252 -0.4586
79763SOL    HW157281  10.208   6.066   6.083 -0.3706  1.1061 -0.4140
79763SOL    HW257282  10.306   6.016   6.187 -2.4019 -0.8218  0.6788
79764SOL     OW57283  13.425  12.673   6.971 -0.3810  0.3895  0.0664
79764SOL    HW157284  13.381  12.644   6.891  0.4140 -0.3676 -0.1130
79764SOL    HW257285  13.460  12.759   6.950  0.7813 -0.2641 -0.7957
79765SOL     OW57286   6.793   7.105   0.369 -0.1553  0.6160 -0.5785
79765SOL    HW157287   6.836   7.186   0.398 -0.6760  0.2663  1.3250
79765SOL    HW257288   6.855   7.036   0.390 -0.1866  0.4104 -1.1426
79766SOL     OW57289  11.487  12.218   4.842  0.1084 -0.5372 -0.6419
79766SOL    HW157290  11.533  12.180   4.916 -1.2922 -0.2078  0.4426
79766SOL    HW257291  11.409  12.164   4.831 -0.2570  0.0769 -1.1664
79767SOL     OW57292  11.165  12.103   2.068 -0.6145  0.2632  0.1737
79767SOL    HW157293  11.229  12.170   2.043 -0.6309  0.0756 -0.4005
79767SOL    HW257294  11.196  12.024   2.025 -0.9595  0.0586  0.3015
79768SOL     OW57295   8.747   5.843   3.246 -0.3106 -0.7972 -0.2920
79768SOL    HW157296   8.802   5.785   3.299  0.5395 -0.1977 -0.5189
79768SOL    HW257297   8.793   5.853   3.163  0.8837  2.1843  0.5950
79769SOL     OW57298   6.239   0.510   5.093  0.7646 -0.4465 -0.3061
79769SOL    HW157299   6.204   0.445   5.033  0.6270  0.0694 -0.7831
79769SOL    HW257300   6.213   0.595   5.057 -0.4428 -0.1488  1.1629
79770SOL     OW57301  12.785  13.608   6.378 -0.3146 -0.1383 -0.1931
79770SOL    HW157302  12.729  13.592   6.454  0.3785 -0.5991  0.2330
79770SOL    HW257303  12.772  13.701   6.358  0.5324  0.3539  1.3509
79771SOL     OW57304   6.981  11.420   6.263 -0.3486  0.6578  0.7306
79771SOL    HW157305   7.025  11.471   6.195 -1.4099  1.1762  0.4084
79771SOL    HW257306   6.914  11.370   6.216 -0.5150  0.3518  1.2849
79772SOL     OW57307   6.198  10.674   9.145  0.3382  0.1318 -0.4557
79772SOL    HW157308   6.262  10.707   9.208 -0.4878  0.3458  0.2959
79772SOL    HW257309   6.250  10.648   9.069  1.4041 -0.4295  0.4295
79773SOL     OW57310   3.903   5.765   4.999 -0.4186 -0.4685  0.3694
79773SOL    HW157311   3.824   5.819   4.995 -0.1519 -0.0803  0.2527
79773SOL    HW257312   3.932   5.773   5.090  0.2421  0.4961  0.0841
79774SOL     OW57313   4.936   1.846   2.757  0.1705 -0.0198 -0.3560
79774SOL    HW157314   4.855   1.842   2.707  0.0511  1.6185 -0.3605
79774SOL    HW257315   4.908   1.866   2.847  0.4793 -1.2717  0.0356
79775SOL     OW57316   8.140  11.959   0.621 -0.1889  0.1815 -0.0521
79775SOL    HW157317   8.189  11.914   0.553 -0.3844  1.3276 -0.9748
79775SOL    HW257318   8.132  11.894   0.691  1.4604 -0.4618 -0.4159
79776SOL     OW57319   8.265  12.153  12.324  0.1335  0.9086 -0.1002
79776SOL    HW157320   8.207  12.228  12.320 -0.3427  0.5457 -0.0321
79776SOL    HW257321   8.255  12.109  12.239 -1.8209 -0.7191  0.9058
79777SOL     OW57322  10.095   5.523   2.078 -0.5153 -0.4345  0.3759
79777SOL    HW157323  10.037   5.448   2.091  1.0089 -1.8974 -0.6967
79777SOL    HW257324  10.151   5.497   2.004 -0.0142  1.8373 -0.1246
79778SOL     OW57325   9.114   0.497   3.738  0.2770 -0.3817  0.3040
79778SOL    HW157326   9.207   0.519   3.746 -0.1105  1.1118  0.9581
79778SOL    HW257327   9.109   0.441   3.660  2.0293 -2.4593  1.5500
79779SOL     OW57328  12.548  12.188  12.646 -0.4906 -0.3263 -0.6035
79779SOL    HW157329  12.546  12.284  12.641 -1.7016 -0.3364 -0.7555
79779SOL    HW257330  12.456  12.163  12.641 -0.4461 -1.3654  2.2238
79780SOL     OW57331   9.728   8.489   1.669  0.4341 -0.4460 -0.1014
79780SOL    HW157332   9.805   8.496   1.613  0.0705  0.0909 -0.5442
79780SOL    HW257333   9.761   8.452   1.751  1.4210  1.0924  0.2299
79781SOL     OW57334  12.310  12.058  10.183  0.3873 -0.3258  0.1784
79781SOL    HW157335  12.222  12.083  10.209 -0.1988 -2.2324  0.1661
79781SOL    HW257336  12.298  11.991  10.116  1.8339 -0.7579  0.3035
79782SOL     OW57337  10.105   2.925  10.702  0.0581  0.3198  0.2335
79782SOL    HW157338  10.062   3.010  10.713  0.3617  0.5067 -0.0210
79782SOL    HW257339  10.133   2.923  10.611 -0.4030 -0.2695  0.0975
79783SOL     OW57340  12.186   9.900  13.922  0.2829 -0.1936 -0.4446
79783SOL    HW157341  12.256   9.898  13.988  1.5414  0.8438 -1.6927
79783SOL    HW257342  12.106   9.898  13.974  1.2104 -1.0616  1.0550
79784SOL     OW57343   4.315   4.114   0.598 -0.7894 -0.3319  0.7523
79784SOL    HW157344   4.315   4.072   0.684 -1.7385  0.0710  0.9619
79784SOL    HW257345   4.327   4.207   0.616  0.1126 -0.3662  0.3684
79785SOL     OW57346   6.236  10.866   0.187  0.1284 -0.0333 -0.0803
79785SOL    HW157347   6.330  10.876   0.201  0.2757 -1.7852  0.4672
79785SOL    HW257348   6.224  10.772   0.169 -1.4104  0.3033 -1.0505
79786SOL     OW57349  11.129   9.449   9.807 -0.0053  0.2663 -0.2197
79786SOL    HW157350  11.147   9.531   9.762 -0.5736  0.5675  0.0965
79786SOL    HW257351  11.215   9.407   9.815  0.2093  0.5571 -0.8966
79787SOL     OW57352   2.441   1.923  12.528 -0.5273 -0.0923  0.0527
79787SOL    HW157353   2.408   1.983  12.460 -0.7255  1.7595  1.6887
79787SOL    HW257354   2.383   1.847  12.522 -1.2839  0.5360 -1.0674
79788SOL     OW57355   0.721   4.750  10.910 -0.7681  0.2214  0.0698
79788SOL    HW157356   0.666   4.773  10.985  0.1407  2.8732  0.0170
79788SOL    HW257357   0.726   4.654  10.913 -4.2001 -0.0734  0.8533
79789SOL     OW57358   7.945   8.802   3.602 -0.3249 -0.7237  0.7686
79789SOL    HW157359   7.976   8.818   3.691  2.0290 -1.8414  0.2412
79789SOL    HW257360   7.857   8.765   3.613 -0.1164 -0.7444  2.6213
79790SOL     OW57361   5.889  10.303   8.126  0.2992  0.5601  0.8361
79790SOL    HW157362   5.876  10.222   8.175 -0.6516  1.0312  1.3871
79790SOL    HW257363   5.854  10.283   8.039  1.1379  0.0193  0.6089
79791SOL     OW57364  13.543   8.571   3.842 -0.7763  0.6102 -0.2379
79791SOL    HW157365  13.621   8.625   3.856 -0.8614  0.4093  1.2273
79791SOL    HW257366  13.571   8.503   3.782 -0.6221  2.1800 -2.0409
79792SOL     OW57367   5.555   6.154   9.766 -0.6814  0.4429 -0.5779
79792SOL    HW157368   5.589   6.116   9.685  1.5681 -0.4889  0.6950
79792SOL    HW257369   5.564   6.249   9.754  2.4376  0.2762 -0.4205
79793SOL     OW57370   3.751   7.526  11.476  0.4147  0.6818  0.5388
79793SOL    HW157371   3.766   7.433  11.460 -0.5195  0.5570  0.3437
79793SOL    HW257372   3.781   7.569  11.396  0.1593  0.4821  0.3365
79794SOL     OW57373  11.060   2.677   2.039 -0.3427  0.4306 -0.2797
79794SOL    HW157374  11.059   2.606   1.974 -0.4060  1.2438 -1.2020
79794SOL    HW257375  11.009   2.747   1.998  0.5430  1.3716  0.1813
79795SOL     OW57376   3.065  13.668   1.511  0.1187 -0.0442 -0.5670
79795SOL    HW157377   3.124  13.593   1.507 -0.5824 -0.5620 -1.6719
79795SOL    HW257378   3.107  13.729   1.572  1.0107 -1.0559 -0.1427
79796SOL     OW57379  13.145  12.691   1.884  0.0287 -0.1793  0.1083
79796SOL    HW157380  13.082  12.650   1.944 -0.7059  0.9142  0.1360
79796SOL    HW257381  13.168  12.623   1.822  0.2783 -1.1458  1.2298
79797SOL     OW57382  11.826   8.076   6.474  0.1326  0.2757  0.4045
79797SOL    HW157383  11.804   8.133   6.548  0.0023 -0.2228  0.7568
79797SOL    HW257384  11.741   8.059   6.432  0.0700 -0.2836  0.7587
79798SOL     OW57385   2.615  10.577   3.003  0.1032 -0.3941 -0.3961
79798SOL    HW157386   2.659  10.651   3.045  0.0947 -0.7276  0.2116
79798SOL    HW257387   2.522  10.597   3.011  0.1159 -0.1657 -0.8000
79799SOL     OW57388   8.266   1.146   0.570 -0.0794 -0.0152 -0.6427
79799SOL    HW157389   8.241   1.056   0.588 -1.1146  0.3002 -0.4345
79799SOL    HW257390   8.332   1.139   0.501 -1.8374 -0.8524 -2.3713
79800SOL     OW57391   7.849   4.491   4.154 -0.1263 -0.1454  0.1017
79800SOL    HW157392   7.918   4.425   4.153  1.0906  1.0755  0.9290
79800SOL    HW257393   7.780   4.452   4.207  0.0340 -1.2608 -0.4838
79801SOL     OW57394   5.805   1.138   6.677  0.2737 -0.2718  0.1151
79801SOL    HW157395   5.757   1.071   6.630 -0.6013 -0.6738  1.5319
79801SOL    HW257396   5.888   1.145   6.630 -0.2947 -1.1196 -1.0648
79802SOL     OW57397   1.733  10.681   1.262  0.1523  0.1246  0.0245
79802SOL    HW157398   1.668  10.668   1.330 -0.1219 -1.4081 -0.4846
79802SOL    HW257399   1.693  10.646   1.182  1.7761 -1.4519 -0.1842
79803SOL     OW57400   1.416   9.408  10.230  0.2405 -0.4643 -0.1363
79803SOL    HW157401   1.482   9.477  10.223  0.4134 -0.7025 -1.0124
79803SOL    HW257402   1.336   9.453  10.257  1.0440 -0.3376  2.3367
79804SOL     OW57403  13.067   2.242   2.080 -0.0972 -0.1669  0.0366
79804SOL    HW157404  13.033   2.168   2.130 -1.0660  0.4679  0.3237
79804SOL    HW257405  13.009   2.248   2.004 -0.0568  0.3385  0.0445
79805SOL     OW57406  10.447   7.272  13.512 -0.4091  0.1728  0.4202
79805SOL    HW157407  10.496   7.191  13.530  0.5587  0.6017 -0.2121
79805SOL    HW257408  10.481   7.302  13.427 -0.3085  1.5769  0.9411
79806SOL     OW57409   7.272   5.613   3.506  0.0724 -0.3875  0.1734
79806SOL    HW157410   7.349   5.576   3.550 -0.5551 -1.8941  0.0772
79806SOL    HW257411   7.268   5.703   3.537  1.0667 -0.6918  1.2770
79807SOL     OW57412   4.137   4.891   0.200 -0.5977  0.3533  0.8977
79807SOL    HW157413   4.172   4.950   0.133 -3.4905  1.3828  0.1475
79807SOL    HW257414   4.122   4.808   0.153 -1.4063  0.6762  0.5628
79808SOL     OW57415   6.190  12.839   0.324  0.5555  0.0434 -0.0820
79808SOL    HW157416   6.156  12.904   0.385 -1.0373 -0.6670 -0.1509
79808SOL    HW257417   6.167  12.755   0.364  1.0660 -0.4571 -0.8149
79809SOL     OW57418   5.621   6.866  13.799 -0.2966  0.5707 -0.5454
79809SOL    HW157419   5.533   6.834  13.785  0.1960 -0.3949 -1.5322
79809SOL    HW257420   5.611   6.934  13.866 -1.7274  0.2595 -0.4097
79810SOL     OW57421   1.217  12.250   4.661  0.6291 -0.8528 -0.6853
79810SOL    HW157422   1.270  12.171   4.648  0.1482 -1.0931 -1.2427
79810SOL    HW257423   1.187  12.273   4.573 -1.3151 -1.5089 -0.2392
79811SOL     OW57424  12.744   9.678   6.960 -0.2479  0.1220 -0.2266
79811SOL    HW157425  12.656   9.699   6.991 -0.7338 -2.2884  0.1890
79811SOL    HW257426  12.751   9.722   6.875 -0.9833  2.1488  0.6922
79812SOL     OW57427   1.699   2.734   4.703  1.0429 -0.5467  0.5036
79812SOL    HW157428   1.772   2.714   4.644  0.4475 -1.5927  0.0991
79812SOL    HW257429   1.648   2.653   4.707 -0.9107  0.5628 -0.3863
79813SOL     OW57430   1.086   2.521   7.682 -0.5407 -0.4475  0.3663
79813SOL    HW157431   1.150   2.470   7.631 -1.0356 -0.5525 -0.1567
79813SOL    HW257432   1.134   2.601   7.705 -0.4284 -0.1966 -0.6453
79814SOL     OW57433  10.591   1.570   8.545  0.3271  0.4244  0.2923
79814SOL    HW157434  10.506   1.592   8.585 -0.5859  1.0186 -1.8593
79814SOL    HW257435  10.594   1.474   8.547 -0.1149  0.4180  0.9296
79815SOL     OW57436   6.478   5.757  11.629 -0.2408  0.0953  0.5874
79815SOL    HW157437   6.412   5.719  11.688 -1.0994 -1.1581 -1.0767
79815SOL    HW257438   6.499   5.685  11.569  2.4033  0.5863  0.8263
79816SOL     OW57439   3.863   2.924  13.580  0.2202  0.3012 -0.2276
79816SOL    HW157440   3.788   2.901  13.634  0.2581 -0.7992 -0.5999
79816SOL    HW257441   3.825   2.962  13.500  0.0671  0.0054 -0.2963
79817SOL     OW57442   3.804   2.584  11.451 -0.0302  0.1090  0.4047
79817SOL    HW157443   3.777   2.563  11.361  1.5366 -1.5316  0.2668
79817SOL    HW257444   3.739   2.541  11.506  0.1454 -0.6446  0.0451
79818SOL     OW57445   6.570   7.105   5.059  0.6184  0.1003 -0.0199
79818SOL    HW157446   6.627   7.031   5.039  1.0359  0.8455 -1.7352
79818SOL    HW257447   6.631   7.177   5.077  0.2355 -0.0644  2.3038
79819SOL     OW57448   0.119   7.286   5.397 -0.5206  0.1601  0.2032
79819SOL    HW157449   0.180   7.280   5.325  1.0380 -1.3189  1.5587
79819SOL    HW257450   0.118   7.378   5.421 -1.0139  0.6632 -1.5861
79820SOL     OW57451  12.075  10.435   9.306 -0.1849  0.3228  0.6189
79820SOL    HW157452  12.047  10.357   9.353  0.7501 -0.1934  0.3519
79820SOL    HW257453  12.140  10.475   9.363  0.1574  0.2865  0.2595
79821SOL     OW57454   6.972  10.851   4.276  0.5794  0.1440 -0.1982
79821SOL    HW157455   6.972  10.799   4.196 -3.0573  0.1070 -0.3252
79821SOL    HW257456   7.054  10.827   4.320  0.7488 -2.9578 -1.9453
79822SOL     OW57457   9.294   9.477  10.327  0.2400 -0.0791  0.1704
79822SOL    HW157458   9.255   9.548  10.276 -0.9715 -1.0223 -0.2957
79822SOL    HW257459   9.255   9.398  10.290 -0.3540 -0.8378  2.2629
79823SOL     OW57460   1.714  12.732  11.672 -0.5612 -0.0998 -0.6430
79823SOL    HW157461   1.799  12.693  11.653 -1.0660 -2.3897  1.3875
79823SOL    HW257462   1.704  12.725  11.767 -1.6664  3.1306 -0.3669
79824SOL     OW57463   3.416   7.647  11.160  0.2090 -0.2833  0.3224
79824SOL    HW157464   3.406   7.703  11.237  0.7469  0.8446 -0.3914
79824SOL    HW257465   3.415   7.708  11.086 -0.5453 -1.3545 -0.5980
79825SOL     OW57466  12.558   8.249   3.598  0.1224 -0.0106 -0.1162
79825SOL    HW157467  12.527   8.174   3.547  0.9034 -0.6851  0.3852
79825SOL    HW257468  12.478   8.292   3.628 -0.3642 -1.5813  0.9558
79826SOL     OW57469   3.281   9.117  10.242  0.4496  0.0572 -0.0601
79826SOL    HW157470   3.348   9.086  10.302 -0.0361 -1.6891 -0.3593
79826SOL    HW257471   3.201   9.120  10.294  0.4548  0.6361 -0.0842
79827SOL     OW57472   4.738   6.357   9.544  0.2196  0.3377 -0.2958
79827SOL    HW157473   4.778   6.350   9.457  0.9353 -0.7459  0.1037
79827SOL    HW257474   4.813   6.362   9.604 -0.2714  0.7893  0.2863
79828SOL     OW57475   5.194   3.998   7.660  0.1939  0.2558  0.8087
79828SOL    HW157476   5.163   4.048   7.735 -1.8842  3.9211 -2.1067
79828SOL    HW257477   5.260   4.054   7.620  0.9039 -1.3494 -0.3865
79829SOL     OW57478  13.731   2.686  12.966  0.0483  0.0007  0.1295
79829SOL    HW157479  13.679   2.761  12.993 -0.0699  0.8557 -2.2079
79829SOL    HW257480  13.667   2.622  12.935  0.2137 -0.5939  0.9826
79830SOL     OW57481  13.151   6.697   8.965  0.2334 -0.2466 -0.3762
79830SOL    HW157482  13.165   6.765   8.899  0.8190 -0.8327 -0.8689
79830SOL    HW257483  13.239   6.669   8.989 -0.0147 -1.9541 -1.3579
79831SOL     OW57484   8.270   0.021  10.581 -0.0386  0.3192 -0.4723
79831SOL    HW157485   8.206  -0.046  10.606 -0.3453 -0.2445 -2.5787
79831SOL    HW257486   8.348  -0.002  10.630 -0.6392 -0.6075  0.0918
79832SOL     OW57487  12.441   0.299   4.183  0.5138 -0.0209 -0.0805
79832SOL    HW157488  12.465   0.213   4.218 -0.3183 -0.9859 -1.7692
79832SOL    HW257489  12.358   0.285   4.138  2.0339  0.7827 -3.4714
79833SOL     OW57490   7.542   5.061   6.042 -0.0837  0.1425  0.4998
79833SOL    HW157491   7.530   5.024   5.954 -0.4907  0.1833  0.5373
79833SOL    HW257492   7.604   5.133   6.029  2.7910 -2.0971  0.8185
79834SOL     OW57493  12.725   4.026   0.978 -0.5640  0.1283 -0.7232
79834SOL    HW157494  12.783   4.088   1.023 -1.5149 -0.1075  0.8900
79834SOL    HW257495  12.725   4.056   0.887  0.0330  1.7139 -0.2382
79835SOL     OW57496   9.554   4.138   5.366  0.1785  0.1457 -0.2411
79835SOL    HW157497   9.509   4.055   5.359  0.5835 -0.0774 -0.2419
79835SOL    HW257498   9.595   4.151   5.280  1.3397 -0.3736  0.2187
79836SOL     OW57499   7.897  12.683   6.770 -0.2053  0.1004  0.1560
79836SOL    HW157500   7.887  12.772   6.804 -2.1834 -0.0856  0.1432
79836SOL    HW257501   7.904  12.693   6.675  1.3219  0.3230  0.2563
79837SOL     OW57502   1.752  12.404  10.508  0.2280 -0.5883  0.0811
79837SOL    HW157503   1.694  12.480  10.509  0.3804 -0.4710  0.5889
79837SOL    HW257504   1.840  12.440  10.524  0.3634 -0.8199 -0.1348
79838SOL     OW57505   5.489   0.633   4.108 -0.5806  0.2133  0.0804
79838SOL    HW157506   5.529   0.644   4.194  0.0394 -2.1771  0.1797
79838SOL    HW257507   5.441   0.550   4.114  0.2265 -0.4909 -2.0803
79839SOL     OW57508  12.182   4.840   4.706  0.0531  0.0698 -0.4230
79839SOL    HW157509  12.155   4.862   4.617  0.7424  0.1133 -0.6275
79839SOL    HW257510  12.245   4.908   4.730  1.3481 -0.9991 -0.6429
79840SOL     OW57511   9.793   2.092   3.036 -0.0170  0.4091 -0.1268
79840SOL    HW157512   9.718   2.106   3.094  0.0384 -1.0671  0.3291
79840SOL    HW257513   9.828   2.180   3.021 -0.1751  0.8850  1.8957
79841SOL     OW57514   7.284   2.677   9.516 -0.0680 -0.2365  0.8527
79841SOL    HW157515   7.300   2.598   9.567 -0.6918 -1.1171 -0.2580
79841SOL    HW257516   7.322   2.748   9.568  1.5583 -1.4049  1.3384
79842SOL     OW57517   2.501   6.114   7.386  0.2656 -0.0683  0.5340
79842SOL    HW157518   2.527   6.111   7.478  0.4505 -2.9384  0.4931
79842SOL    HW257519   2.565   6.171   7.344  0.7331  0.5276  2.0044
79843SOL     OW57520   6.843   2.606   0.795 -0.0640 -0.5103  0.2425
79843SOL    HW157521   6.938   2.613   0.787  0.1411 -2.9642 -0.1859
79843SOL    HW257522   6.810   2.637   0.711  0.0885  2.9847  1.3293
79844SOL     OW57523  11.707   7.668   3.198 -0.4930 -0.1603 -0.1771
79844SOL    HW157524  11.622   7.669   3.153 -0.7502 -3.1046  0.0347
79844SOL    HW257525  11.765   7.718   3.142 -2.1294  1.1192 -0.8115
79845SOL     OW57526   0.271  11.083  13.929  0.1663 -0.6222 -0.0544
79845SOL    HW157527   0.251  11.035  13.849  1.4094 -3.0881  1.0053
79845SOL    HW257528   0.283  11.015  13.996 -1.7669  1.3330  2.5108
79846SOL     OW57529   4.033   8.220   3.624 -0.7603  0.0343  0.1139
79846SOL    HW157530   3.963   8.173   3.669 -0.0653 -0.9500  0.2111
79846SOL    HW257531   4.078   8.153   3.573  0.4689  0.5203  0.5182
79847SOL     OW57532  13.432   8.376   3.110  0.0971  0.2425 -0.7330
79847SOL    HW157533  13.525   8.358   3.121  0.0020 -0.0113 -0.3228
79847SOL    HW257534  13.418   8.460   3.154  0.4607  1.1643 -2.2870
79848SOL     OW57535   8.817   5.428  12.450  0.4294  0.3006  0.3162
79848SOL    HW157536   8.802   5.521  12.466 -1.2281 -0.0977  1.3484
79848SOL    HW257537   8.732   5.394  12.424  0.9013 -1.0309  0.4339
79849SOL     OW57538   2.568  12.974   5.654 -0.3924 -0.1187 -0.2827
79849SOL    HW157539   2.574  12.880   5.636  0.5208 -0.4039  1.2801
79849SOL    HW257540   2.475  12.994   5.645 -0.5672 -1.1208 -0.8612
79850SOL     OW57541   7.078  13.830   1.904 -0.2130 -0.0436  0.4700
79850SOL    HW157542   7.117  13.793   1.824  1.0593 -3.1108  2.3461
79850SOL    HW257543   6.986  13.844   1.880  0.3117  0.0219 -1.7970
79851SOL     OW57544  10.453   7.965   5.914  0.2880  0.5795 -0.4179
79851SOL    HW157545  10.437   8.009   5.997 -0.4761  3.1539 -1.8287
79851SOL    HW257546  10.538   7.921   5.926 -0.1740  0.1889  1.9291
79852SOL     OW57547   4.473  10.587  10.366  0.4594  0.2932 -0.1610
79852SOL    HW157548   4.560  10.572  10.404  0.8460 -1.8210 -1.6851
79852SOL    HW257549   4.485  10.658  10.303  1.7207 -1.5045 -2.0751
79853SOL     OW57550   4.580   9.340  13.240 -0.3874  0.4638  0.5072
79853SOL    HW157551   4.624   9.303  13.317  0.1182 -0.7788 -0.3456
79853SOL    HW257552   4.489   9.311  13.248 -0.5732  1.1998  1.1528
79854SOL     OW57553   2.020   7.173   0.150 -0.2125 -0.4858  0.4028
79854SOL    HW157554   2.031   7.122   0.070  0.9709 -1.1229  0.9436
79854SOL    HW257555   2.053   7.260   0.128  0.0383 -0.6386  0.1647
79855SOL     OW57556  11.603   8.171  10.770  0.1762  0.6314 -0.0513
79855SOL    HW157557  11.596   8.210  10.682  0.7047 -0.3409 -0.5476
79855SOL    HW257558  11.697   8.163  10.784  0.1117  1.2975  0.8622
79856SOL     OW57559   7.777  11.267   8.426  0.2227  0.1350 -0.0307
79856SOL    HW157560   7.722  11.309   8.493  1.8728  1.6636  0.4447
79856SOL    HW257561   7.718  11.256   8.351 -0.8617  1.3246  0.5905
79857SOL     OW57562   8.688  11.245   0.233  0.2473  0.6734  0.3881
79857SOL    HW157563   8.612  11.189   0.248 -1.2349  2.1973 -1.0255
79857SOL    HW257564   8.702  11.242   0.139  0.7368  1.9272  0.4016
79858SOL     OW57565   4.664   5.806   5.389  0.2663  0.2285 -0.5100
79858SOL    HW157566   4.645   5.819   5.296  0.7377 -1.6702 -0.9180
79858SOL    HW257567   4.628   5.720   5.409  0.7412  0.3349  0.9215
79859SOL     OW57568   4.951   7.663   9.124  0.3259  0.7806  0.1136
79859SOL    HW157569   4.900   7.582   9.124  0.7945  0.4832 -0.2749
79859SOL    HW257570   4.963   7.684   9.217 -0.6040  0.9232  0.2121
79860SOL     OW57571   4.337   5.663   5.786 -0.0690  0.3898  0.4273
79860SOL    HW157572   4.295   5.713   5.717  0.2289  0.6302  0.4202
79860SOL    HW257573   4.300   5.698   5.868 -0.4617  0.0682  0.3944
79861SOL     OW57574   9.142  13.458   7.426 -0.4683 -0.5332  0.0255
79861SOL    HW157575   9.073  13.469   7.492  0.2161 -0.2769  0.7247
79861SOL    HW257576   9.160  13.547   7.396 -0.9469 -0.6778 -0.6898
79862SOL     OW57577   1.133   3.341  11.891 -0.3271 -0.1923  0.8737
79862SOL    HW157578   1.084   3.399  11.949 -0.5286 -0.8594  1.3891
79862SOL    HW257579   1.206   3.395  11.859 -2.5019  1.5465 -1.6491
79863SOL     OW57580  10.038   5.741  12.532  0.0130  0.0748  0.8121
79863SOL    HW157581  10.082   5.712  12.612  1.1212  0.6079  0.4084
79863SOL    HW257582  10.105   5.788  12.483 -0.7021 -0.0771 -0.3490
79864SOL     OW57583   8.586  11.176   9.970 -0.7349  0.1212 -0.0212
79864SOL    HW157584   8.624  11.161   9.884 -0.2947  2.9866 -0.4275
79864SOL    HW257585   8.606  11.268   9.990 -0.6662 -0.4647  3.2302
79865SOL     OW57586   2.755   8.201   3.226  0.6138 -0.1405 -0.7319
79865SOL    HW157587   2.835   8.253   3.220  0.5143  0.3351  1.1454
79865SOL    HW257588   2.730   8.183   3.136  1.7448  1.4006 -1.3892
79866SOL     OW57589   5.151  12.306  13.250 -0.2332  0.4122 -0.4430
79866SOL    HW157590   5.077  12.340  13.300 -0.2645  0.5606 -0.5910
79866SOL    HW257591   5.164  12.217  13.283 -0.5295  0.3566 -0.4754
79867SOL     OW57592   1.360   2.576   8.026 -0.1019  0.3201 -0.6397
79867SOL    HW157593   1.404   2.575   7.942  2.3077  0.8260  0.5339
79867SOL    HW257594   1.279   2.527   8.011  0.7406 -0.4943 -2.9653
79868SOL     OW57595   0.299   7.497   0.759  0.0383 -0.0288  0.5225
79868SOL    HW157596   0.254   7.454   0.686 -0.9715  0.4571  0.8296
79868SOL    HW257597   0.283   7.591   0.745  0.3511  0.1038  1.0372
79869SOL     OW57598  10.726  11.748  13.385  0.1537 -0.3223  0.3109
79869SOL    HW157599  10.750  11.673  13.330 -1.0581  0.5531 -1.5130
79869SOL    HW257600  10.632  11.759  13.369  0.3024  1.5573  0.5459
79870SOL     OW57601  12.080   1.588  11.317 -0.0726  0.4700 -0.1073
79870SOL    HW157602  12.009   1.534  11.283  0.2821  0.1975 -0.4223
79870SOL    HW257603  12.151   1.527  11.334 -0.2897  0.5726  1.2987
79871SOL     OW57604   7.410   3.724   2.386 -0.1398 -0.2605  0.2479
79871SOL    HW157605   7.449   3.810   2.400 -1.3579  0.2620  0.5057
79871SOL    HW257606   7.360   3.732   2.305 -0.8707 -0.4944  0.6635
79872SOL     OW57607  14.021   3.984   9.313  0.8490  0.1854  0.7434
79872SOL    HW157608  14.073   4.003   9.391  1.5555 -2.5611  1.0457
79872SOL    HW257609  13.933   3.965   9.347  0.5720  1.1751  0.6102
79873SOL     OW57610   8.952   2.412   5.564 -0.1319  0.1193 -0.5451
79873SOL    HW157611   8.935   2.492   5.613  0.3654  1.5008 -2.4922
79873SOL    HW257612   8.868   2.366   5.563 -0.4593  0.6639  0.4996
79874SOL     OW57613  14.092   6.273  10.888 -0.3563 -0.5258  0.1940
79874SOL    HW157614  14.062   6.191  10.848 -0.8895 -0.2773  0.0762
79874SOL    HW257615  14.052   6.273  10.975 -2.1352  0.5952 -0.5623
79875SOL     OW57616   9.120   2.365   9.685 -0.4147  0.2142 -0.8020
79875SOL    HW157617   9.066   2.309   9.629 -0.0480 -1.3354  0.3195
79875SOL    HW257618   9.077   2.364   9.770 -0.0170  1.0939 -0.5746
79876SOL     OW57619   5.952   5.084   4.119 -0.4783  0.2061  0.2930
79876SOL    HW157620   5.959   5.173   4.084 -0.1337 -0.2997 -0.9791
79876SOL    HW257621   5.874   5.086   4.174 -0.7641  1.1616 -0.1245
79877SOL     OW57622   7.952   3.938   9.066 -0.3113  0.0856 -0.2271
79877SOL    HW157623   8.021   3.942   8.999 -1.0236 -0.8429 -1.0528
79877SOL    HW257624   7.945   3.844   9.086  0.0597  0.3632  1.3604
79878SOL     OW57625   0.721   2.619   2.194  0.3019  0.3259  0.1425
79878SOL    HW157626   0.674   2.559   2.251 -3.2702  0.4975 -2.2632
79878SOL    HW257627   0.714   2.705   2.237 -0.4591  0.1024  0.4815
79879SOL     OW57628   8.025   9.237   4.460 -0.3699  0.5253  0.0848
79879SOL    HW157629   8.036   9.192   4.544 -1.3853  0.5207  0.2248
79879SOL    HW257630   8.095   9.203   4.405  0.4574  0.7032  0.9987
79880SOL     OW57631   4.738  13.804   3.613  0.5101  0.2584 -0.3292
79880SOL    HW157632   4.744  13.709   3.623  0.8403  0.3055 -0.0543
79880SOL    HW257633   4.739  13.837   3.703  0.8825  0.5455 -0.4371
79881SOL     OW57634   2.254  12.058  13.090  0.1735 -0.2094 -0.3482
79881SOL    HW157635   2.240  12.020  13.177  0.0758  0.1644 -0.1941
79881SOL    HW257636   2.331  12.013  13.056  1.1896  0.7261  0.5895
79882SOL     OW57637   8.576   5.503   0.452 -0.2609 -0.3545  0.8942
79882SOL    HW157638   8.528   5.451   0.389  2.8276 -0.5336 -1.5466
79882SOL    HW257639   8.567   5.456   0.535  0.3408 -3.4482 -0.6717
79883SOL     OW57640  10.356   8.485   1.173  0.1583  0.0406  0.5353
79883SOL    HW157641  10.324   8.542   1.242  0.6121  0.7974  0.1272
79883SOL    HW257642  10.448   8.470   1.193 -0.3108 -1.9200  1.5552
79884SOL     OW57643   3.779   7.121   6.425 -0.2687 -0.3299 -0.4152
79884SOL    HW157644   3.789   7.215   6.409 -0.8198 -0.2472 -0.2730
79884SOL    HW257645   3.830   7.079   6.355  0.9744  0.0823  0.2019
79885SOL     OW57646  11.560  12.895   2.657  0.3838  0.1012 -0.5101
79885SOL    HW157647  11.556  12.853   2.743  0.2907 -0.0278 -0.5765
79885SOL    HW257648  11.468  12.916   2.636  0.3540 -0.2743 -0.7758
79886SOL     OW57649   5.488   2.132  10.113  0.1645 -0.1247 -0.0693
79886SOL    HW157650   5.422   2.191  10.078 -2.1589 -2.3631  0.1994
79886SOL    HW257651   5.482   2.143  10.208  1.2200  0.6757 -0.0850
79887SOL     OW57652  12.942  11.553   1.659  0.3200  0.1655 -0.5594
79887SOL    HW157653  12.851  11.534   1.680  0.2627  1.5169  0.4982
79887SOL    HW257654  12.959  11.639   1.698  1.9737  0.0519 -0.9523
79888SOL     OW57655   5.344  12.527   9.013 -0.1484 -0.2810 -0.7985
79888SOL    HW157656   5.390  12.463   9.068 -0.4162  0.6180  0.5117
79888SOL    HW257657   5.253  12.523   9.043 -0.5417 -0.5464 -1.9445
79889SOL     OW57658   9.071   7.961   4.067  0.7060  0.0555  0.5777
79889SOL    HW157659   9.121   7.988   4.144  0.4336  1.6145  0.2443
79889SOL    HW257660   9.056   8.042   4.019 -0.7024 -0.6230 -0.1836
79890SOL     OW57661   2.593   4.189   3.194 -0.0323 -0.0580  0.2060
79890SOL    HW157662   2.657   4.118   3.195  0.9229  0.7707 -0.0683
79890SOL    HW257663   2.580   4.210   3.287  1.0377  0.5700  0.2315
79891SOL     OW57664   9.605   4.570   0.538 -0.4737  0.4918  0.4935
79891SOL    HW157665   9.545   4.556   0.612  1.2471  1.8416  2.2391
79891SOL    HW257666   9.654   4.488   0.532 -0.9772  0.1848  0.4856
79892SOL     OW57667   0.312  14.089   7.458  0.1235  0.5694  0.2652
79892SOL    HW157668   0.340  13.998   7.462  1.0267  0.8161 -0.2629
79892SOL    HW257669   0.328  14.115   7.367 -2.6949  0.4513 -0.3718
79893SOL     OW57670   9.301   1.227  12.385  0.8290  0.1735  0.3133
79893SOL    HW157671   9.341   1.276  12.314  2.5287 -1.4581  0.0862
79893SOL    HW257672   9.208   1.224  12.362  1.0721  1.1825 -0.9032
79894SOL     OW57673   5.178   0.538   2.740  0.3486 -0.5119 -0.5167
79894SOL    HW157674   5.114   0.609   2.742  0.9812  0.0650  0.8192
79894SOL    HW257675   5.162   0.493   2.657 -0.3416  0.9259 -1.1949
79895SOL     OW57676   7.263   9.472   4.480 -0.5511 -0.2034 -0.6884
79895SOL    HW157677   7.327   9.402   4.468 -1.1549 -1.2156  1.5168
79895SOL    HW257678   7.263   9.489   4.574 -3.1902  0.0751 -0.6670
79896SOL     OW57679   8.116  10.629   4.083 -0.0699  0.1812  0.5888
79896SOL    HW157680   8.151  10.577   4.011 -0.6388 -0.1512  0.5456
79896SOL    HW257681   8.084  10.709   4.041 -0.2727  0.0494  0.4910
79897SOL     OW57682   8.608   3.242   3.479 -0.3284 -0.1981 -0.5435
79897SOL    HW157683   8.580   3.197   3.399 -1.0572  1.0028 -0.9931
79897SOL    HW257684   8.560   3.325   3.478  3.0605  1.9529 -1.2659
79898SOL     OW57685  10.755   8.487   3.089 -0.0682  0.0018  0.4444
79898SOL    HW157686  10.735   8.408   3.139 -0.2541  0.0305  0.4152
79898SOL    HW257687  10.838   8.467   3.046  0.1422  0.0127  0.8405
79899SOL     OW57688   5.917  12.447   0.717 -0.1712  0.0992 -0.0352
79899SOL    HW157689   5.970  12.523   0.740 -0.6783  0.2534  0.6601
79899SOL    HW257690   5.878  12.468   0.632 -0.7357  0.8470  0.4018
79900SOL     OW57691  13.269  11.132  10.569  0.4537  0.5227  0.3411
79900SOL    HW157692  13.211  11.125  10.644 -0.1817 -0.5515 -0.2173
79900SOL    HW257693  13.222  11.187  10.507 -0.9924 -1.9821 -0.9490
79901SOL     OW57694   8.797   4.451   7.582 -0.0395 -0.1618 -0.5194
79901SOL    HW157695   8.708   4.485   7.591 -0.5391 -1.4724 -0.2919
79901SOL    HW257696   8.793   4.396   7.503  0.4916 -0.4761 -0.3273
79902SOL     OW57697   9.617   1.000   8.250  0.2339  0.0589 -0.0708
79902SOL    HW157698   9.636   1.017   8.158  1.2047 -0.1489  0.0796
79902SOL    HW257699   9.570   1.078   8.280 -0.3290  0.0106 -0.8009
79903SOL     OW57700   5.354  12.723   5.650 -0.8805  0.2841  0.5140
79903SOL    HW157701   5.370  12.709   5.557  4.0225  0.1578  1.0890
79903SOL    HW257702   5.309  12.808   5.654 -0.2138  0.8376 -1.9850
79904SOL     OW57703   2.765   9.516   6.511 -0.2322 -0.3561 -1.2980
79904SOL    HW157704   2.757   9.606   6.543 -1.3328 -0.4818 -1.1632
79904SOL    HW257705   2.680   9.476   6.531 -0.2031 -1.0605 -2.4710
79905SOL     OW57706   7.861   4.078   3.234  0.1627 -0.0940  0.0583
79905SOL    HW157707   7.839   4.146   3.297 -0.4420  0.2585 -0.5204
79905SOL    HW257708   7.843   4.118   3.149 -0.9589 -1.2299 -0.2684
79906SOL     OW57709   1.348   4.554   4.105  0.0988  0.1612 -0.1060
79906SOL    HW157710   1.349   4.573   4.199  0.7950  0.9865 -0.2677
79906SOL    HW257711   1.329   4.460   4.100  0.2255  0.0680  0.8609
79907SOL     OW57712  11.993   0.916   6.608 -0.0311  0.0933 -0.4263
79907SOL    HW157713  11.943   0.891   6.530 -1.4502  1.6832 -0.0905
79907SOL    HW257714  11.993   1.012   6.606  2.4825  0.1640 -0.0347
79908SOL     OW57715   1.580  11.341  11.168 -0.3884  0.5602  0.3212
79908SOL    HW157716   1.618  11.278  11.230 -0.5449 -0.3853 -0.5214
79908SOL    HW257717   1.654  11.396  11.142 -0.6767  2.3562  2.8823
79909SOL     OW57718   5.542   1.114   8.922 -0.2041  0.2107  0.2541
79909SOL    HW157719   5.472   1.095   8.984  0.0977 -0.3089  0.4422
79909SOL    HW257720   5.517   1.065   8.843 -0.3234  0.4598  0.1343
79910SOL     OW57721  12.985  10.851   0.843 -0.2750  0.4153 -0.7847
79910SOL    HW157722  13.047  10.897   0.787 -0.8933  1.1778 -0.8628
79910SOL    HW257723  13.019  10.864   0.932 -0.8290  1.6752 -0.7347
79911SOL     OW57724   5.386   7.159   7.793  0.2313  0.2012 -0.0196
79911SOL    HW157725   5.451   7.228   7.785  1.5063 -0.5869  2.4961
79911SOL    HW257726   5.313   7.200   7.839  0.9786 -0.0684  1.4539
79912SOL     OW57727  13.903   0.603  10.067 -0.1235  0.4640 -0.1579
79912SOL    HW157728  13.808   0.612  10.067 -0.0361  1.9505  1.0969
79912SOL    HW257729  13.924   0.568   9.981 -1.8399 -0.4482 -0.2404
79913SOL     OW57730  11.061  10.803  10.786  0.4761 -0.7314  0.7480
79913SOL    HW157731  11.013  10.730  10.747  1.7109 -1.4309  0.4816
79913SOL    HW257732  11.119  10.834  10.717  0.5028  0.0230  1.0988
79914SOL     OW57733   2.352  11.894   4.673 -0.8050  0.2788 -1.0902
79914SOL    HW157734   2.399  11.858   4.598  0.7984 -0.4871  0.2226
79914SOL    HW257735   2.300  11.821   4.705  1.8425 -0.8061  1.0935
79915SOL     OW57736   1.588  11.150   0.244  0.0388  0.7623 -0.4520
79915SOL    HW157737   1.498  11.151   0.277  0.2138 -0.4698  0.1209
79915SOL    HW257738   1.578  11.138   0.149 -0.3993 -0.6493 -0.2511
79916SOL     OW57739   0.395   2.016   0.256 -0.0079  0.3109  0.0897
79916SOL    HW157740   0.330   1.979   0.315 -0.7980 -0.3627 -1.1701
79916SOL    HW257741   0.373   1.980   0.170  1.0617  1.3283 -0.6388
79917SOL     OW57742   1.229   6.151  12.834  0.8385  0.1281  0.1063
79917SOL    HW157743   1.257   6.228  12.884 -0.4999 -0.1165  1.2926
79917SOL    HW257744   1.181   6.187  12.760  1.5745  0.4572 -0.2250
79918SOL     OW57745   6.980  12.122   7.955  0.4313  0.2830  0.0922
79918SOL    HW157746   6.982  12.068   8.034  0.0298  0.2491  0.0816
79918SOL    HW257747   6.971  12.060   7.883 -1.9782  0.4065  0.1862
79919SOL     OW57748  12.820  13.075  10.586 -0.0789  0.3245 -0.5596
79919SOL    HW157749  12.789  13.148  10.532  0.2333  1.5530  0.8382
79919SOL    HW257750  12.868  13.117  10.657  1.7222 -1.3579 -0.7026
79920SOL     OW57751  12.520   8.636   9.740  0.0533  0.0373  0.8906
79920SOL    HW157752  12.499   8.627   9.647  2.9878 -0.1399  0.1594
79920SOL    HW257753  12.584   8.706   9.744  0.4832 -0.3992  2.7189
79921SOL     OW57754  14.124   1.745   5.653 -0.2468  0.4689 -0.7701
79921SOL    HW157755  14.213   1.729   5.686 -0.9595 -2.4930 -0.0687
79921SOL    HW257756  14.085   1.804   5.718 -0.2679 -1.9738  1.5759
79922SOL     OW57757   3.712   2.193   3.134 -0.3442  0.0784 -0.1079
79922SOL    HW157758   3.738   2.257   3.200 -0.3177  2.1445 -1.9879
79922SOL    HW257759   3.787   2.186   3.076 -0.9987 -0.2375 -0.9448
79923SOL     OW57760  13.512   5.302   9.692 -0.0843  0.0462 -0.4953
79923SOL    HW157761  13.537   5.256   9.611 -1.2631  1.2381 -1.5768
79923SOL    HW257762  13.568   5.262   9.760  1.4359 -0.5054 -1.9895
79924SOL     OW57763  13.818   7.208   8.177 -0.1796 -0.3959 -0.0383
79924SOL    HW157764  13.754   7.257   8.228 -0.5524 -0.0454 -0.8414
79924SOL    HW257765  13.889   7.191   8.239 -0.6587 -0.0412  0.6201
79925SOL     OW57766   6.701   0.602   3.782 -0.0804  0.6496  0.6615
79925SOL    HW157767   6.707   0.611   3.687  0.5535 -1.4941  0.4387
79925SOL    HW257768   6.790   0.620   3.813  0.0924 -0.1911  0.6698
79926SOL     OW57769   2.253  13.090   1.608 -0.2234 -0.0851 -0.3026
79926SOL    HW157770   2.341  13.071   1.638 -0.5417 -1.1841  0.0053
79926SOL    HW257771   2.263  13.157   1.541  0.9394 -0.8647 -0.9366
79927SOL     OW57772  12.899  10.500  10.933 -0.2350 -0.2847 -0.5079
79927SOL    HW157773  12.958  10.435  10.970 -0.2803 -0.7918 -1.3020
79927SOL    HW257774  12.957  10.572  10.906 -0.1742 -0.0349  0.2747
79928SOL     OW57775  13.693  13.414   9.606 -0.5372  0.5793 -0.0595
79928SOL    HW157776  13.684  13.508   9.592  1.7877  0.7504 -0.7789
79928SOL    HW257777  13.783  13.402   9.636 -1.1004 -1.3324  1.0659
79929SOL     OW57778  12.278   4.190   9.649 -0.2508  0.4576  0.4859
79929SOL    HW157779  12.295   4.218   9.739  1.6867  4.3955 -0.9028
79929SOL    HW257780  12.244   4.267   9.605  2.4913 -0.0694 -3.0197
79930SOL     OW57781  11.068   9.011   0.925 -0.5001  0.3330  0.2481
79930SOL    HW157782  11.091   9.104   0.921  1.4730 -0.0889  0.4426
79930SOL    HW257783  11.100   8.983   1.011 -0.3475 -0.6836 -0.1268
79931SOL     OW57784  11.138   3.961   4.673 -0.5103  0.0637 -0.4622
79931SOL    HW157785  11.161   3.882   4.625  1.8336  0.4683 -0.1364
79931SOL    HW257786  11.220   4.010   4.679 -1.5718  1.8315  0.6332
79932SOL     OW57787   7.100   2.517  11.534  0.8039 -0.0246  0.7228
79932SOL    HW157788   7.129   2.515  11.625  1.6653  0.2641  0.4645
79932SOL    HW257789   7.178   2.543  11.485 -0.1658  1.9720  0.1353
79933SOL     OW57790   5.665   6.487  11.914 -1.0906 -0.5492 -0.3257
79933SOL    HW157791   5.692   6.421  11.978  2.2072  0.1992 -0.7563
79933SOL    HW257792   5.642   6.564  11.966 -2.9034 -1.3315  0.0851
79934SOL     OW57793   5.418  10.914  13.220  0.3617  0.3989 -0.0734
79934SOL    HW157794   5.490  10.868  13.178 -1.0923 -1.0738 -1.0860
79934SOL    HW257795   5.401  10.864  13.300  0.6448  0.9164  0.3141
79935SOL     OW57796   9.711   5.031   7.984  0.0043 -0.1199  0.0075
79935SOL    HW157797   9.758   5.101   7.939  0.3128 -0.0993  0.3594
79935SOL    HW257798   9.687   5.068   8.069  1.9917 -1.0900  1.0610
79936SOL     OW57799  10.513   7.843   8.034  0.3209 -0.2187  0.2790
79936SOL    HW157800  10.577   7.914   8.033  1.4223 -1.1405 -1.9704
79936SOL    HW257801  10.563   7.765   8.012 -1.6117 -0.8757 -2.2835
79937SOL     OW57802   1.409  10.429   8.782  0.2795  0.3916  0.3082
79937SOL    HW157803   1.382  10.341   8.755  0.4063  0.6795 -0.8136
79937SOL    HW257804   1.434  10.473   8.700  0.9964  1.2080  0.9409
79938SOL     OW57805   6.247   6.148   9.824  0.4012  0.4637 -0.0941
79938SOL    HW157806   6.173   6.169   9.882  0.3848 -1.1771  0.5358
79938SOL    HW257807   6.245   6.053   9.817 -0.7482  0.6142 -4.3222
79939SOL     OW57808  14.156   1.524  13.655 -0.0599 -0.3762 -0.0191
79939SOL    HW157809  14.090   1.454  13.654 -0.0446 -0.3925 -0.6827
79939SOL    HW257810  14.136   1.576  13.577  1.0633 -0.7200 -0.5582
79940SOL     OW57811   2.500   3.898   1.426 -0.4034 -0.0615 -0.0643
79940SOL    HW157812   2.456   3.922   1.508 -1.2777 -0.6380 -0.3489
79940SOL    HW257813   2.441   3.835   1.384 -0.0549  0.3454 -1.2209
79941SOL     OW57814  11.251   3.542   2.158  0.7794 -0.2037  0.6012
79941SOL    HW157815  11.195   3.469   2.184  1.2274 -1.1323 -0.9435
79941SOL    HW257816  11.206   3.581   2.082  1.3444  0.1431  0.4383
79942SOL     OW57817  11.483  12.422   9.372  0.1679 -0.3249  0.3974
79942SOL    HW157818  11.530  12.504   9.357 -0.4505  0.2774  1.6212
79942SOL    HW257819  11.458  12.425   9.464 -2.3991 -0.5151 -0.1988
79943SOL     OW57820   9.970  12.522   5.217  0.0807 -0.1899 -0.2863
79943SOL    HW157821  10.063  12.497   5.218  0.0341 -0.3639 -0.4429
79943SOL    HW257822   9.927  12.453   5.267  0.0034 -0.2270 -0.4046
79944SOL     OW57823   6.964   1.413  11.128 -0.4252 -0.8415 -0.2505
79944SOL    HW157824   6.924   1.477  11.069 -0.9332  0.7343  1.7235
79944SOL    HW257825   6.899   1.344  11.138 -0.0302 -1.5427 -2.0737
79945SOL     OW57826   8.616  12.382  12.227  0.3165  0.0901  0.0133
79945SOL    HW157827   8.597  12.340  12.310  0.4230  2.2137  1.1747
79945SOL    HW257828   8.565  12.333  12.163  0.6280 -1.9029  1.2306
79946SOL     OW57829   8.903   4.959   4.747 -0.7089 -0.0349 -0.0668
79946SOL    HW157830   8.983   4.936   4.699 -0.8972  0.6131 -0.7058
79946SOL    HW257831   8.925   5.040   4.793 -0.4922 -0.7119  1.0567
79947SOL     OW57832  10.928   9.913   4.359 -0.3944  0.0765 -0.3467
79947SOL    HW157833  10.904   9.825   4.329  0.6689 -0.3391 -0.0293
79947SOL    HW257834  11.017   9.903   4.391 -0.3173  1.2537 -0.1747
79948SOL     OW57835   5.762   9.002   0.990  0.1609 -0.7794 -0.1394
79948SOL    HW157836   5.796   9.005   0.901  1.7440  2.2081  0.4398
79948SOL    HW257837   5.679   9.050   0.987  1.5262  1.7865  0.3663
79949SOL     OW57838   6.328   6.004   5.005  0.2712  0.8366 -0.3537
79949SOL    HW157839   6.294   5.993   4.916  1.4683 -0.3425 -0.7018
79949SOL    HW257840   6.354   5.915   5.031 -1.6749  0.8033  1.8748
79950SOL     OW57841  13.981  11.115   7.280 -0.4406 -0.1152 -0.3280
79950SOL    HW157842  13.890  11.142   7.271  0.0869  2.2624  0.7699
79950SOL    HW257843  14.000  11.122   7.373  2.1272  4.3856 -0.8990
79951SOL     OW57844   3.802   2.503   5.786 -0.4673  0.3657 -0.7591
79951SOL    HW157845   3.729   2.551   5.825  0.3209  0.1599  1.0679
79951SOL    HW257846   3.789   2.513   5.692 -2.7913  0.4029 -0.5047
79952SOL     OW57847   6.115   0.306   7.155 -0.0570  0.1715  0.7294
79952SOL    HW157848   6.170   0.254   7.213 -0.0375  0.7200  1.2090
79952SOL    HW257849   6.037   0.325   7.207 -0.7947 -0.7554 -0.0026
79953SOL     OW57850   4.669   8.569  13.915 -0.0787 -0.2115  0.2423
79953SOL    HW157851   4.615   8.544  13.840  0.2217 -1.1664  0.3278
79953SOL    HW257852   4.660   8.664  13.920  1.0166  0.0898 -1.8872
79954SOL     OW57853  11.808   9.816   2.637 -0.3635  0.0227  0.3543
79954SOL    HW157854  11.810   9.894   2.582  0.0760 -0.0291  0.2983
79954SOL    HW257855  11.732   9.767   2.606  1.1848 -1.1595 -1.7855
79955SOL     OW57856   8.009   7.642   2.639  0.4739 -0.1121 -0.4180
79955SOL    HW157857   8.105   7.642   2.637  0.5408  0.9423  1.1122
79955SOL    HW257858   7.986   7.550   2.655  1.1328 -0.6620 -2.3317
79956SOL     OW57859  11.394   3.090   9.062  0.9123 -0.3412  0.5083
79956SOL    HW157860  11.415   3.135   9.144  1.1836  0.0713  0.2232
79956SOL    HW257861  11.443   3.140   8.996 -0.4943  0.2597 -0.1046
79957SOL     OW57862  12.227  11.154  11.109 -0.0384  0.2594  0.1865
79957SOL    HW157863  12.142  11.193  11.130 -1.6092 -0.2182 -4.1296
79957SOL    HW257864  12.281  11.227  11.080  0.3675  0.3284  1.1028
79958SOL     OW57865   7.787   8.352   1.399  0.2988  0.0816  0.4700
79958SOL    HW157866   7.761   8.348   1.307  0.6047 -1.4379  0.4190
79958SOL    HW257867   7.877   8.386   1.398  0.6201 -0.7621  0.1244
79959SOL     OW57868  12.649   3.609   1.773 -0.3231 -0.0501  0.3852
79959SOL    HW157869  12.726   3.649   1.814 -1.1934  1.0019  1.0600
79959SOL    HW257870  12.639   3.656   1.690 -0.6302  0.2973  0.6153
79960SOL     OW57871   1.725  10.466  11.308  0.1473 -0.0095 -0.0597
79960SOL    HW157872   1.668  10.400  11.267  1.1722 -0.9706  0.0263
79960SOL    HW257873   1.666  10.539  11.328 -1.0586 -0.9827  0.0401
79961SOL     OW57874   9.555   8.007   7.657 -0.3645 -0.4862 -0.4475
79961SOL    HW157875   9.578   8.050   7.739 -1.5030 -0.2531 -0.2312
79961SOL    HW257876   9.497   7.935   7.683  0.0970 -1.0568 -0.9628
79962SOL     OW57877  10.767  10.463   8.181  0.1855 -0.3989  0.1415
79962SOL    HW157878  10.680  10.494   8.206 -0.2713 -0.5523 -1.1687
79962SOL    HW257879  10.751  10.388   8.124  1.1829 -0.5352  0.0117
79963SOL     OW57880  11.920  10.484  12.253  0.3510  0.1975 -0.3899
79963SOL    HW157881  11.994  10.490  12.313  1.0749 -3.1374 -0.7475
79963SOL    HW257882  11.848  10.451  12.307  0.2811 -0.3643 -0.8121
79964SOL     OW57883   9.474   8.803  10.890  0.1820 -0.1913  0.0307
79964SOL    HW157884   9.543   8.755  10.844  0.4340  0.2944 -0.1034
79964SOL    HW257885   9.475   8.767  10.979  0.6490 -0.1547  0.0443
79965SOL     OW57886   2.583   3.087   1.527 -0.0283  0.3916  0.3500
79965SOL    HW157887   2.604   3.012   1.582 -1.9185  0.5227  1.3697
79965SOL    HW257888   2.588   3.162   1.587 -0.1974  0.7936 -0.1382
79966SOL     OW57889   2.876   2.867  12.395 -0.5266 -0.1478  0.0020
79966SOL    HW157890   2.798   2.881  12.449 -0.7320  0.3773 -0.4098
79966SOL    HW257891   2.865   2.929  12.322  0.4702  0.2063  0.1392
79967SOL     OW57892   6.944  11.962   4.038 -0.9198 -0.2002  0.2993
79967SOL    HW157893   7.020  11.926   4.082 -0.9738 -1.2600 -0.4401
79967SOL    HW257894   6.966  12.054   4.022  1.4248 -1.0935 -2.3984
79968SOL     OW57895   0.111   6.293  13.619 -0.3347 -0.6885 -0.3913
79968SOL    HW157896   0.069   6.207  13.614 -0.3413 -0.8509  1.5971
79968SOL    HW257897   0.078   6.331  13.701  1.1649  0.3935 -0.2397
79969SOL     OW57898   2.991  11.686   8.967  0.6059 -0.0936 -0.2820
79969SOL    HW157899   2.968  11.605   8.920  1.4297  0.1532 -1.1376
79969SOL    HW257900   2.907  11.724   8.991  0.1077  0.1606 -2.2529
79970SOL     OW57901  13.957   9.578  12.669  0.2179  0.2348  0.0272
79970SOL    HW157902  13.969   9.603  12.761  0.0128  0.2497  0.0505
79970SOL    HW257903  13.916   9.653  12.628  0.9766  0.5104 -0.2481
79971SOL     OW57904  13.283   0.847  10.641  0.2016  0.0345 -0.3172
79971SOL    HW157905  13.204   0.810  10.601  0.3767 -0.1502 -0.4913
79971SOL    HW257906  13.300   0.926  10.590  0.3035 -0.0885 -0.4752
79972SOL     OW57907   8.781   4.683  12.266  0.6381  0.3580 -0.0768
79972SOL    HW157908   8.871   4.650  12.273  0.5181  0.2387  1.1985
79972SOL    HW257909   8.791   4.770  12.227  1.1760 -0.1575 -1.1495
79973SOL     OW57910  12.285  12.183   6.838  0.7438  0.1410 -0.0717
79973SOL    HW157911  12.197  12.208   6.811  0.8981 -2.0593 -3.0857
79973SOL    HW257912  12.272  12.126   6.914 -0.5946 -1.2676 -1.3001
79974SOL     OW57913  13.094   4.621   1.755  0.0545  0.2184  0.1973
79974SOL    HW157914  13.076   4.673   1.833 -3.2269 -0.6790  0.2169
79974SOL    HW257915  13.076   4.681   1.682  0.5049  0.3079  0.1582
79975SOL     OW57916   0.494   7.091  11.259 -0.1270 -0.2466 -0.0295
79975SOL    HW157917   0.430   7.112  11.326  0.4688  1.7775 -0.0125
79975SOL    HW257918   0.519   7.000  11.276 -1.1135 -0.2585  1.5086
79976SOL     OW57919   9.693  13.461   8.586  0.1126  0.6385  0.5342
79976SOL    HW157920   9.677  13.549   8.553 -0.1612  0.5243  0.3520
79976SOL    HW257921   9.605  13.425   8.600  0.2250  0.5092  0.9109
79977SOL     OW57922   3.717  14.033  12.010 -0.5564 -0.0221  0.3918
79977SOL    HW157923   3.726  14.002  11.920 -0.4505  1.5432 -0.1580
79977SOL    HW257924   3.794  14.088  12.025 -0.5015 -0.3659  1.4931
79978SOL     OW57925   7.289   5.978   0.932  0.0311  0.6116 -0.3917
79978SOL    HW157926   7.342   5.952   0.856 -0.4553 -0.7879 -0.2785
79978SOL    HW257927   7.260   6.067   0.911 -0.0713  0.2636 -1.8480
79979SOL     OW57928   4.202  13.610   2.855  0.1431 -0.0759  0.0422
79979SOL    HW157929   4.292  13.641   2.853 -0.4476  1.7734 -0.1750
79979SOL    HW257930   4.157  13.672   2.913 -1.1452 -0.4319 -0.5416
79980SOL     OW57931   4.199   1.682   4.323  0.0507  0.0395 -0.2445
79980SOL    HW157932   4.136   1.754   4.322 -1.1458 -0.9607 -0.3173
79980SOL    HW257933   4.242   1.687   4.238 -0.6233  0.1777 -0.5887
79981SOL     OW57934  12.501   4.785  12.387  0.8165  0.2531  0.3195
79981SOL    HW157935  12.437   4.719  12.361  2.0041 -1.0585  0.5763
79981SOL    HW257936  12.488   4.857  12.326 -1.5467  0.4615  0.9927
79982SOL     OW57937   6.342   4.522   8.847  0.0050 -0.0539  0.0138
79982SOL    HW157938   6.293   4.463   8.790 -0.1968 -1.3351  1.4393
79982SOL    HW257939   6.318   4.495   8.936  1.0789  1.2086  0.7337
79983SOL     OW57940  13.330   1.341   3.968 -0.4059  0.1871  0.1493
79983SOL    HW157941  13.267   1.292   3.914 -1.3435  0.4713  0.9711
79983SOL    HW257942  13.374   1.274   4.020 -0.7962  0.0903  0.3574
79984SOL     OW57943  14.072   6.210  13.275 -0.3362 -0.1441 -0.1677
79984SOL    HW157944  14.028   6.290  13.245 -0.9840 -0.2808  0.4012
79984SOL    HW257945  14.006   6.141  13.267 -0.8805 -0.0214  2.4610
79985SOL     OW57946   0.774  12.615  13.180 -0.4941 -0.1334 -0.3879
79985SOL    HW157947   0.758  12.710  13.181 -2.8907 -0.4662 -0.1841
79985SOL    HW257948   0.746  12.585  13.267  1.0106 -0.9492 -0.1596
79986SOL     OW57949  14.060   9.257   5.756 -0.3162 -0.6420 -0.0728
79986SOL    HW157950  14.100   9.171   5.742  2.0537  0.2434  0.6934
79986SOL    HW257951  13.967   9.239   5.765  0.0799 -3.0952 -0.1796
79987SOL     OW57952   4.218   4.789  11.116  0.1330  0.1129  0.1756
79987SOL    HW157953   4.237   4.701  11.150 -0.1847  0.3755  1.0659
79987SOL    HW257954   4.128   4.784  11.086  0.2733 -0.0013 -0.2244
79988SOL     OW57955  13.115   1.977  11.758 -0.0911 -0.3992  0.4250
79988SOL    HW157956  13.126   2.002  11.666 -1.1109 -0.8910  0.1503
79988SOL    HW257957  13.204   1.969  11.792  0.2890  0.6406 -0.2815
79989SOL     OW57958   9.972   4.412  13.643 -0.0041  0.0691 -0.3627
79989SOL    HW157959   9.978   4.484  13.705 -0.9036 -0.4869  0.4054
79989SOL    HW257960  10.015   4.444  13.564  2.0234  0.4515  0.8269
79990SOL     OW57961   1.225   0.784  11.648  0.3178 -0.6012 -0.2581
79990SOL    HW157962   1.145   0.752  11.606  1.0425 -1.2362 -1.1971
79990SOL    HW257963   1.231   0.876  11.622 -0.5687 -0.2917  0.5694
79991SOL     OW57964   5.555   6.810   8.155 -0.5567 -0.3802 -0.7194
79991SOL    HW157965   5.608   6.845   8.226  2.4505 -3.3086 -1.2774
79991SOL    HW257966   5.465   6.819   8.186  0.3112  2.7408  1.3232
79992SOL     OW57967   9.520   6.170   7.184 -0.1209 -0.3424 -0.0396
79992SOL    HW157968   9.492   6.078   7.185 -0.6810 -0.2085 -1.2859
79992SOL    HW257969   9.447   6.217   7.143  1.0334  0.3290 -1.4093
79993SOL     OW57970   3.228   6.887  10.809  0.0030 -0.0338  0.0623
79993SOL    HW157971   3.218   6.980  10.791 -1.1877 -0.6234 -2.7933
79993SOL    HW257972   3.158   6.866  10.870  0.1874  0.8988  0.6091
79994SOL     OW57973   6.385  11.039  12.244  0.0140  0.5367  0.4033
79994SOL    HW157974   6.470  11.080  12.262 -0.4917  1.2870  1.1357
79994SOL    HW257975   6.405  10.946  12.234  1.0400  0.8155 -0.2843
79995SOL     OW57976   1.927   0.112   0.125 -0.1764 -0.0356  0.0112
79995SOL    HW157977   2.020   0.100   0.104 -0.2717 -0.5611 -0.1191
79995SOL    HW257978   1.881   0.088   0.045 -0.4396 -0.0211  0.1564
79996SOL     OW57979   8.168  11.477   4.091 -0.0267 -0.0379  0.4162
79996SOL    HW157980   8.121  11.519   4.162  0.6578  0.5410  0.5361
79996SOL    HW257981   8.225  11.545   4.056  0.2005 -0.5285 -0.1906
79997SOL     OW57982  10.339  11.909   9.026 -0.0309 -0.2659  0.1786
79997SOL    HW157983  10.359  11.887   8.935  0.4588 -2.4901  0.7792
79997SOL    HW257984  10.249  11.880   9.038 -0.3156  0.6068  0.2729
79998SOL     OW57985   6.105   7.002   4.328 -0.1085  0.8489  0.6976
79998SOL    HW157986   6.080   6.956   4.248  0.1916  2.0779 -0.1308
79998SOL    HW257987   6.090   7.094   4.308  1.5663  1.3289  1.4417
79999SOL     OW57988   4.390   4.261   3.598  0.3976  0.3257  0.5011
79999SOL    HW157989   4.344   4.341   3.576  0.1375  0.0661  0.0808
79999SOL    HW257990   4.351   4.194   3.541  0.5863 -0.1044  0.8637
80000SOL     OW57991  10.591  10.041   5.606 -0.2225 -1.0868 -0.4237
80000SOL    HW157992  10.498  10.040   5.631  0.3379 -0.6627  1.9138
80000SOL    HW257993  10.638  10.019   5.686  1.7255 -1.0386 -1.4925
80001SOL     OW57994  12.973   4.150  14.056 -0.1005  0.3903  0.1085
80001SOL    HW157995  12.960   4.216  14.124 -0.4593 -0.2552  0.6796
80001SOL    HW257996  12.960   4.197  13.974  0.5438  1.2307  0.4691
80002SOL     OW57997   4.243  12.785  10.809  0.5576 -0.9980  0.2152
80002SOL    HW157998   4.267  12.744  10.726 -0.1635  1.2765 -1.1928
80002SOL    HW257999   4.239  12.712  10.871 -0.3557 -3.0103 -2.0440
80003SOL     OW58000   2.390  12.534   3.363  0.4137 -0.3097 -0.2070
80003SOL    HW158001   2.301  12.511   3.390 -0.4615  2.4536 -0.4690
80003SOL    HW258002   2.385  12.543   3.268  1.3126 -1.2939 -0.3715
80004SOL     OW58003   5.107   2.102  10.240  0.5341 -0.6096 -0.8052
80004SOL    HW158004   5.045   2.110  10.312 -0.5612 -1.7241 -1.5858
80004SOL    HW258005   5.160   2.182  10.245 -0.3378 -0.0819  0.4512
80005SOL     OW58006   2.779   0.322   8.474  0.4908 -0.3720 -0.1532
80005SOL    HW158007   2.831   0.396   8.504  0.8496 -1.0461  0.9511
80005SOL    HW258008   2.830   0.245   8.499 -1.3938 -1.1014  1.8076
80006SOL     OW58009   7.857   2.032   3.468 -0.5024  0.6512  0.3133
80006SOL    HW158010   7.861   1.941   3.440  1.9126  1.0188 -0.7769
80006SOL    HW258011   7.823   2.028   3.558  0.1710 -1.3764  0.5300
80007SOL     OW58012  13.405  12.199   2.146  0.1097 -0.3058 -0.5164
80007SOL    HW158013  13.490  12.163   2.172  1.1176 -0.3261 -3.3740
80007SOL    HW258014  13.355  12.123   2.116 -1.0045 -0.3076  1.2521
80008SOL     OW58015   5.359  11.006   9.617  0.2253  0.4291  0.3687
80008SOL    HW158016   5.386  10.957   9.695 -0.2098 -0.3838  0.0221
80008SOL    HW258017   5.440  11.041   9.581  0.8089 -1.5020 -0.3520
80009SOL     OW58018   7.593  12.591  14.041  0.1444 -0.0685  0.4053
80009SOL    HW158019   7.575  12.645  14.119 -0.2000 -1.4621  1.3162
80009SOL    HW258020   7.662  12.531  14.069 -0.3317 -0.9095 -0.1958
80010SOL     OW58021   6.289   5.740   5.827  0.2649  0.3824  0.3940
80010SOL    HW158022   6.341   5.721   5.748 -0.6158  0.8796 -0.3232
80010SOL    HW258023   6.322   5.678   5.892  0.4873 -0.5875 -0.5951
80011SOL     OW58024   0.734   8.836   3.201 -0.1579 -0.5029 -0.1034
80011SOL    HW158025   0.770   8.813   3.286  0.7660  1.5055  0.0974
80011SOL    HW258026   0.734   8.754   3.152  0.2357 -1.4850  1.4803
80012SOL     OW58027  10.985   0.548   0.081 -0.1867 -0.4995 -0.5181
80012SOL    HW158028  10.936   0.467   0.066  2.0360 -2.0391  0.0973
80012SOL    HW258029  11.056   0.523   0.140  0.1010  2.1115  0.3994
80013SOL     OW58030  10.106   7.257   0.036  0.0134  0.3328 -0.0117
80013SOL    HW158031  10.055   7.187  -0.006 -0.2752  1.3917 -1.5137
80013SOL    HW258032  10.139   7.309  -0.036 -0.0969  1.9833  1.0741
80014SOL     OW58033   6.475  10.159  13.483  0.2861 -0.4456 -0.3972
80014SOL    HW158034   6.435  10.100  13.418 -0.3338 -1.3042  0.7335
80014SOL    HW258035   6.410  10.165  13.553  0.6970  0.9493 -0.1191
80015SOL     OW58036   0.267   5.117  11.109  0.3439  0.3943 -0.1704
80015SOL    HW158037   0.304   5.205  11.099  3.0182 -0.4401  1.3068
80015SOL    HW258038   0.191   5.129  11.166 -1.3248  2.0808 -2.5758
80016SOL     OW58039   4.743   8.059   3.163 -0.0646 -0.4550 -0.0478
80016SOL    HW158040   4.776   8.058   3.074  0.1946 -0.1521  0.0430
80016SOL    HW258041   4.730   8.152   3.183  1.7164 -0.3519  0.8853
80017SOL     OW58042   3.338   5.291  12.364 -0.4457  0.1309 -0.0589
80017SOL    HW158043   3.414   5.232  12.372 -0.4332  0.2569  0.7670
80017SOL    HW258044   3.265   5.232  12.342 -0.1146  0.0125 -0.8866
80018SOL     OW58045   0.206   6.887   4.121  0.0026 -0.2349  0.2069
80018SOL    HW158046   0.181   6.813   4.177 -0.5692 -0.3883 -0.2441
80018SOL    HW258047   0.194   6.855   4.032  1.5074 -0.1999 -0.0408
80019SOL     OW58048   5.651   4.635   4.279 -0.4245 -0.0661  1.2661
80019SOL    HW158049   5.566   4.599   4.252 -0.8811  0.6243  1.7247
80019SOL    HW258050   5.699   4.648   4.197 -1.0688  0.2614  0.9264
80020SOL     OW58051   7.537   2.374   1.323  0.4216  0.2285 -0.0298
80020SOL    HW158052   7.537   2.280   1.339  3.2574  0.1428 -0.0560
80020SOL    HW258053   7.574   2.384   1.235 -1.7114  1.3341 -0.8717
80021SOL     OW58054   4.404   7.338   1.146  0.0490 -0.0619 -0.6656
80021SOL    HW158055   4.389   7.413   1.089  2.9267  0.3943 -0.9777
80021SOL    HW258056   4.340   7.348   1.216  0.1369  2.5325 -0.8529
80022SOL     OW58057   1.181   4.751  10.779  0.3965  0.4542  0.3247
80022SOL    HW158058   1.202   4.844  10.766 -0.2869  0.6057  0.2911
80022SOL    HW258059   1.112   4.733  10.715  1.0668 -0.2851 -0.2128
80023SOL     OW58060  12.282   5.213   1.641 -0.4525 -0.4094 -0.2382
80023SOL    HW158061  12.210   5.151   1.652 -0.6194 -0.3336 -0.8475
80023SOL    HW258062  12.358   5.158   1.623 -0.3011 -0.5019  0.6531
80024SOL     OW58063   3.010  13.613   4.781  0.4271  0.3422 -0.0611
80024SOL    HW158064   2.997  13.557   4.704  0.8964 -0.1809  0.2384
80024SOL    HW258065   2.931  13.667   4.784  0.0601 -0.1596 -0.4758
80025SOL     OW58066   0.438   3.366  13.116  0.9254  0.0285 -0.2761
80025SOL    HW158067   0.435   3.306  13.191  0.9357  0.0735 -0.2397
80025SOL    HW258068   0.496   3.436  13.143  0.6418  0.2316 -0.1892
80026SOL     OW58069   2.794   1.559   3.723 -0.2484  0.3569  0.1217
80026SOL    HW158070   2.739   1.563   3.644 -0.3469  1.1813  0.2174
80026SOL    HW258071   2.855   1.632   3.713  0.1547  0.0759  0.5105
80027SOL     OW58072   2.962   2.504  12.893  0.3445  0.1620 -0.2139
80027SOL    HW158073   2.932   2.444  12.961  0.0657 -1.6037 -1.7994
80027SOL    HW258074   2.913   2.585  12.909 -1.6488 -1.0551  0.1896
80028SOL     OW58075   0.310   5.372   0.679  0.0725 -0.7954  0.0194
80028SOL    HW158076   0.241   5.431   0.648 -0.2378 -0.1212  1.8834
80028SOL    HW258077   0.263   5.296   0.712  0.1507 -0.1763  1.6377
80029SOL     OW58078  10.271   9.790   7.399  0.1570  0.0374 -0.1451
80029SOL    HW158079  10.302   9.725   7.336  1.0277  0.3799 -0.0804
80029SOL    HW258080  10.349   9.814   7.449  0.0187  1.7565 -0.7160
80030SOL     OW58081  13.572   1.308   0.834 -0.6184 -0.2692  0.3666
80030SOL    HW158082  13.563   1.232   0.777 -0.3396  1.1093 -1.6233
80030SOL    HW258083  13.566   1.273   0.922  0.0767 -2.6685 -0.4660
80031SOL     OW58084   1.861   5.858   5.814  0.4478  0.3444  0.4576
80031SOL    HW158085   1.841   5.772   5.852 -0.0181 -0.3765 -1.2858
80031SOL    HW258086   1.817   5.921   5.871  0.7192 -0.5643  1.7129
80032SOL     OW58087   2.595   2.370  13.495  0.0718  0.2219 -0.1081
80032SOL    HW158088   2.598   2.445  13.437  0.8943  0.1627 -0.1457
80032SOL    HW258089   2.594   2.407  13.583 -2.9684  0.3855 -0.1063
80033SOL     OW58090  13.378   5.694   8.940 -0.2036  0.4917 -0.1098
80033SOL    HW158091  13.362   5.625   9.005 -0.2090 -0.0362 -0.6564
80033SOL    HW258092  13.305   5.687   8.879 -1.6300  2.6856  1.2042
80034SOL     OW58093  13.836   6.066   3.635  0.1353  0.0783  0.3057
80034SOL    HW158094  13.928   6.040   3.627 -0.9837 -3.9433 -2.2233
80034SOL    HW258095  13.809   6.029   3.720  0.3873 -0.5131  0.1357
80035SOL     OW58096   7.443   2.262   8.446  0.0604 -0.2759 -0.6942
80035SOL    HW158097   7.470   2.254   8.355 -1.6873  1.3571 -1.4253
80035SOL    HW258098   7.380   2.334   8.446 -0.3243 -0.5297  1.7379
80036SOL     OW58099   1.394   1.731  11.708  0.2873  0.2710 -0.0075
80036SOL    HW158100   1.458   1.738  11.778 -0.0336  0.1006  0.3071
80036SOL    HW258101   1.395   1.638  11.684 -1.3981 -0.1881  1.5004
80037SOL     OW58102   0.053   6.483  12.896  0.8263 -0.1154  0.0490
80037SOL    HW158103   0.137   6.510  12.858 -0.0969  2.3874 -0.4100
80037SOL    HW258104   0.026   6.409  12.844  1.7162  0.4409 -1.2606
80038SOL     OW58105   1.601   9.909  11.793  0.3030  0.1981  0.0974
80038SOL    HW158106   1.579  10.001  11.810 -2.8740 -0.0133 -2.0565
80038SOL    HW258107   1.556   9.861  11.863 -1.0178  0.1321 -0.7674
80039SOL     OW58108   4.995   9.473  10.329  0.2522 -0.1715  0.1773
80039SOL    HW158109   4.977   9.565  10.352  0.9326 -0.3892  1.6710
80039SOL    HW258110   4.978   9.469  10.235  3.0901  2.2220 -0.5810
80040SOL     OW58111  12.781   6.298   4.958 -0.4098  0.2818  0.0425
80040SOL    HW158112  12.736   6.339   5.031 -1.4206  1.4060 -1.1795
80040SOL    HW258113  12.715   6.290   4.889  0.6364 -0.2880 -0.9366
80041SOL     OW58114  10.595   5.903   7.063  0.2944  0.1110  0.1811
80041SOL    HW158115  10.549   5.925   7.144 -1.5699 -1.3914 -0.3942
80041SOL    HW258116  10.581   5.979   7.007 -0.9854 -0.0576  0.2468
80042SOL     OW58117   6.687   2.309  13.189  0.3072 -0.1420  0.8033
80042SOL    HW158118   6.599   2.284  13.218 -0.0510  0.8553  0.6281
80042SOL    HW258119   6.701   2.260  13.109 -0.6647  0.7146  0.0806
80043SOL     OW58120   2.452  12.136   3.913 -0.4823  0.4184 -0.2183
80043SOL    HW158121   2.511  12.064   3.937 -0.2784  0.6579  0.0113
80043SOL    HW258122   2.452  12.193   3.990  1.4818  2.0759 -1.3577
80044SOL     OW58123   8.693   3.341  10.141 -0.6711 -0.0309 -0.1196
80044SOL    HW158124   8.615   3.286  10.136 -0.0164 -1.0494  0.4613
80044SOL    HW258125   8.683   3.388  10.224 -1.4951  1.1731 -0.8736
80045SOL     OW58126  11.855   7.412  13.656  0.1328 -0.4276 -0.1379
80045SOL    HW158127  11.881   7.358  13.581 -1.1451 -0.4247 -0.6035
80045SOL    HW258128  11.760   7.417  13.650  0.0503 -0.0121  1.2130
80046SOL     OW58129   6.659   8.563   7.658  0.1763 -0.2094  0.5324
80046SOL    HW158130   6.667   8.480   7.612 -0.4768 -1.7283  2.9724
80046SOL    HW258131   6.745   8.576   7.699  1.0091  1.5165 -1.5341
80047SOL     OW58132   1.025  11.032   9.838 -0.2437  0.2423 -0.0626
80047SOL    HW158133   0.945  11.073   9.870  0.4918 -0.1803  2.5786
80047SOL    HW258134   0.997  10.945   9.809 -0.7310 -0.0278  1.1524
80048SOL     OW58135   2.799   3.762  12.106 -0.7374  0.3842  0.3553
80048SOL    HW158136   2.747   3.729  12.179 -1.8596 -0.4114 -0.7684
80048SOL    HW258137   2.736   3.805  12.049 -0.5753 -2.1892 -1.9651
80049SOL     OW58138   1.234   8.031   1.453  0.4432  0.1302  0.0631
80049SOL    HW158139   1.237   8.023   1.549 -1.5181  1.4613  0.2773
80049SOL    HW258140   1.169   8.099   1.436 -1.2714 -1.9280 -2.3010
80050SOL     OW58141   0.092   3.528   8.573 -0.4218  0.3690  0.2319
80050SOL    HW158142   0.061   3.490   8.655 -0.6992 -0.4029 -0.2196
80050SOL    HW258143   0.038   3.487   8.506 -0.0033  0.7744 -0.3612
80051SOL     OW58144   6.889   0.507   0.273 -0.2085  0.3520  0.0547
80051SOL    HW158145   6.947   0.581   0.254  0.7001 -0.2782  0.2649
80051SOL    HW258146   6.923   0.470   0.354 -1.0864  0.1219  0.3286
80052SOL     OW58147   0.773  11.906   0.667  0.1384 -0.3367  0.2234
80052SOL    HW158148   0.854  11.872   0.705 -0.1375 -0.9995  0.2348
80052SOL    HW258149   0.795  11.925   0.576  0.7656  1.1173  0.6610
80053SOL     OW58150   2.503   3.650   6.826  0.0120  0.3969  0.3903
80053SOL    HW158151   2.518   3.569   6.875  0.0506 -0.0420 -0.3295
80053SOL    HW258152   2.528   3.719   6.886 -2.7863  0.0538  2.0970
80054SOL     OW58153   7.675  10.973  10.711 -0.7174  0.2782  0.3545
80054SOL    HW158154   7.765  10.987  10.741  0.9894 -1.2650 -3.4398
80054SOL    HW258155   7.655  10.882  10.736 -1.8179  0.9617  2.2238
80055SOL     OW58156   6.309   9.476  10.754  0.5128  0.3196  0.1172
80055SOL    HW158157   6.362   9.402  10.725  1.1048  1.3019 -1.4316
80055SOL    HW258158   6.340   9.495  10.843  1.9071  0.1123 -0.3052
80056SOL     OW58159   0.999   8.657   6.020 -0.1522 -0.5170 -0.5414
80056SOL    HW158160   0.984   8.589   5.955 -1.0425  0.0990 -1.0072
80056SOL    HW258161   0.919   8.710   6.018  0.4113  0.3841 -0.0042
80057SOL     OW58162   1.138   6.854   0.603  0.0124  0.0686 -0.6357
80057SOL    HW158163   1.150   6.846   0.698 -0.7346 -1.4261 -0.6319
80057SOL    HW258164   1.044   6.871   0.592  0.1332  0.4431 -1.1051
80058SOL     OW58165  11.255   4.007  11.984  0.2424  0.2879  0.2708
80058SOL    HW158166  11.175   4.055  11.961 -0.6697 -1.0623  0.5440
80058SOL    HW258167  11.262   4.017  12.079  0.3096  0.2677  0.2679
80059SOL     OW58168   5.363  10.163   3.334  0.4671  0.2076  0.5063
80059SOL    HW158169   5.414  10.095   3.376  0.9328 -0.2985 -0.8273
80059SOL    HW258170   5.389  10.244   3.378  0.5003 -0.3547  1.5583
80060SOL     OW58171   1.363   9.877   4.723 -0.7620 -0.3794  0.3961
80060SOL    HW158172   1.408   9.906   4.643 -1.4673  1.5435  0.6469
80060SOL    HW258173   1.421   9.905   4.794 -1.8628  1.3033  0.6805
80061SOL     OW58174  11.017   8.116   7.568  0.0332  0.4462 -0.2840
80061SOL    HW158175  11.047   8.136   7.656  0.7503  0.3641 -0.5046
80061SOL    HW258176  10.927   8.086   7.580  1.0813 -2.6482  0.7995
80062SOL     OW58177   0.166   7.904  11.014 -0.1003  0.4391 -0.1093
80062SOL    HW158178   0.168   7.921  11.108 -0.8543 -0.4640  0.0909
80062SOL    HW258179   0.095   7.959  10.981  0.2867  0.8971 -0.1897
80063SOL     OW58180   1.932   2.836   1.002 -0.4315 -0.0002  0.2616
80063SOL    HW158181   1.871   2.848   0.929  1.3089  0.3790 -1.2142
80063SOL    HW258182   1.988   2.764   0.974  1.2461  1.1586  0.4665
80064SOL     OW58183  12.605   9.851   6.476 -0.4438  0.5662  0.6738
80064SOL    HW158184  12.532   9.803   6.515 -0.3081  0.0577  0.3080
80064SOL    HW258185  12.631   9.799   6.400 -0.9903  1.7689 -0.3689
80065SOL     OW58186   1.571   4.737  11.321 -0.3319  0.0735 -0.1378
80065SOL    HW158187   1.590   4.827  11.348  0.6305 -0.3131  0.4999
80065SOL    HW258188   1.533   4.696  11.398 -0.1346 -0.2639 -0.2209
80066SOL     OW58189  10.429  10.772   0.363 -0.1137 -0.3692  0.3747
80066SOL    HW158190  10.338  10.798   0.380 -0.1727  0.3551 -0.8930
80066SOL    HW258191  10.463  10.746   0.448 -0.5421  2.4189  1.4945
80067SOL     OW58192   7.403   5.652   2.507  0.1085 -0.2039 -0.0415
80067SOL    HW158193   7.415   5.558   2.523 -3.1482 -0.5398  1.3070
80067SOL    HW258194   7.336   5.678   2.570 -1.2798  2.3428 -2.3550
80068SOL     OW58195   3.305   5.618   1.309  1.0025 -0.2687 -0.1062
80068SOL    HW158196   3.277   5.663   1.229  1.5491 -0.4460 -0.4027
80068SOL    HW258197   3.260   5.664   1.380  0.9665  0.2588 -0.4690
80069SOL     OW58198   1.426   9.808   2.759  0.2934  0.5537 -0.5010
80069SOL    HW158199   1.431   9.795   2.664 -0.2666 -0.1512 -0.4396
80069SOL    HW258200   1.370   9.737   2.790  1.2569  0.1918  0.4728
80070SOL     OW58201   0.210  14.085   3.637 -0.5988 -0.4579 -0.0302
80070SOL    HW158202   0.184  14.043   3.718  0.4443  0.3777  0.7721
80070SOL    HW258203   0.283  14.142   3.662  0.3756 -0.8982 -1.7275
80071SOL     OW58204   5.239  10.059  11.360 -0.0322 -0.1527 -0.0748
80071SOL    HW158205   5.183  10.012  11.422 -0.0475  0.1850  0.1758
80071SOL    HW258206   5.287  10.122  11.414  1.6962 -1.4129 -0.0657
80072SOL     OW58207  12.049  13.459   1.859  0.5897 -0.3793 -0.1215
80072SOL    HW158208  12.046  13.441   1.953 -0.9483  0.1831 -0.0314
80072SOL    HW258209  11.967  13.424   1.825 -0.2138  1.9590 -0.7445
80073SOL     OW58210   9.671   6.256   9.245  0.1648  0.3963  0.2429
80073SOL    HW158211   9.615   6.233   9.319  1.1649  0.6520  1.1161
80073SOL    HW258212   9.636   6.207   9.171  0.4723 -1.6717  1.3899
80074SOL     OW58213   7.129   5.850   6.147  0.1142  0.3069 -0.4914
80074SOL    HW158214   7.147   5.770   6.098 -0.0189  0.2507 -0.4499
80074SOL    HW258215   7.180   5.841   6.227  0.2590  0.3565 -0.5780
80075SOL     OW58216   5.889   1.987  11.458  0.2194  0.0232  0.4308
80075SOL    HW158217   5.856   2.047  11.390 -2.0373 -0.2295  1.1958
80075SOL    HW258218   5.959   1.938  11.415  0.4364  1.4822 -0.9709
80076SOL     OW58219   6.144   6.687   5.748  0.5622 -0.2855 -0.0680
80076SOL    HW158220   6.057   6.662   5.716 -0.1281 -0.1399  1.6141
80076SOL    HW258221   6.204   6.650   5.684 -0.6542 -1.8952 -0.3486
80077SOL     OW58222   8.376   5.123  14.035  0.0718 -0.0862 -0.3264
80077SOL    HW158223   8.402   5.142  13.944  2.4661  1.8579  0.6677
80077SOL    HW258224   8.288   5.162  14.042  0.1156  0.3174 -1.6126
80078SOL     OW58225  11.337  13.066   9.909  0.1983  0.5182 -0.0246
80078SOL    HW158226  11.393  13.143   9.898 -1.0106  1.7881  2.1074
80078SOL    HW258227  11.254  13.091   9.868  0.8061 -1.0243 -2.3963
80079SOL     OW58228   0.423   2.504   9.664  0.1594 -0.3746  0.4503
80079SOL    HW158229   0.339   2.467   9.638 -1.1862  0.0568  3.7389
80079SOL    HW258230   0.433   2.581   9.608 -1.2026 -0.9083 -0.5793
80080SOL     OW58231   5.273  12.893   3.910 -0.2758 -0.0790 -0.2677
80080SOL    HW158232   5.191  12.850   3.934  0.0049  0.2113  1.2986
80080SOL    HW258233   5.325  12.824   3.869 -0.8445 -0.5634 -0.1913
80081SOL     OW58234   2.041   8.151   4.014 -0.0896 -0.0748  0.6284
80081SOL    HW158235   2.097   8.211   4.062  1.7524  0.9786 -2.5074
80081SOL    HW258236   1.952   8.183   4.030  0.3875  0.1855  3.1784
80082SOL     OW58237   7.967  12.966  10.781 -0.3110  0.6434 -0.1038
80082SOL    HW158238   7.920  12.973  10.698 -1.2958 -2.3652  0.0758
80082SOL    HW258239   7.967  13.055  10.816 -2.6653  1.4474 -1.8469
80083SOL     OW58240   4.455   5.781   7.944 -0.2742  0.1963  0.5716
80083SOL    HW158241   4.492   5.868   7.935  1.4157 -0.5441 -0.1014
80083SOL    HW258242   4.472   5.756   8.035 -0.4158  0.4179  0.6590
80084SOL     OW58243   8.470   8.344   2.048  0.3501 -0.0291  0.4183
80084SOL    HW158244   8.432   8.388   2.124  0.3537  0.0392  0.3806
80084SOL    HW258245   8.498   8.415   1.991  2.6700 -0.0207  1.4649
80085SOL     OW58246   8.645   2.382  14.061 -0.1912  0.1857 -0.3002
80085SOL    HW158247   8.594   2.346  14.134  0.0133  1.4130  0.4744
80085SOL    HW258248   8.736   2.367  14.087 -0.1239 -0.3166 -0.8069
80086SOL     OW58249   5.315   3.409   8.996 -0.7165  0.3297 -0.6340
80086SOL    HW158250   5.339   3.456   8.917  0.5199 -0.3280 -0.6879
80086SOL    HW258251   5.241   3.353   8.971 -1.6273  1.5724 -0.7845
80087SOL     OW58252  13.876   5.360  13.849 -0.6764 -0.0306 -0.2046
80087SOL    HW158253  13.807   5.345  13.914 -0.7084  0.5024 -0.1094
80087SOL    HW258254  13.955   5.325  13.890 -0.8149 -0.2685 -0.1421
80088SOL     OW58255   6.362   7.717  10.708 -1.1786  0.1408  0.3322
80088SOL    HW158256   6.399   7.743  10.623 -2.8588 -1.0238 -0.8150
80088SOL    HW258257   6.323   7.797  10.743  1.4192  1.1689  1.1182
80089SOL     OW58258   1.413   5.407  13.240  0.4247 -0.6796  0.7359
80089SOL    HW158259   1.461   5.489  13.241 -2.3314  1.0821  0.0796
80089SOL    HW258260   1.339   5.422  13.298 -1.2195 -1.9414 -0.9108
80090SOL     OW58261   2.228  10.437  14.093 -0.2671  0.1508 -0.1696
80090SOL    HW158262   2.135  10.415  14.103 -0.6778  1.5007 -0.8175
80090SOL    HW258263   2.270  10.353  14.071 -1.1801 -0.6222  0.8898
80091SOL     OW58264  11.867   9.096  14.007  0.3078 -0.5496 -0.0743
80091SOL    HW158265  11.797   9.142  14.053  1.0378  0.1864  0.3231
80091SOL    HW258266  11.822   9.029  13.956 -0.5708 -0.9612  1.2049
80092SOL     OW58267   0.221   1.384   5.713 -0.0207 -0.1514 -0.0284
80092SOL    HW158268   0.294   1.323   5.704  0.4789  0.5550 -0.8417
80092SOL    HW258269   0.261   1.471   5.712 -0.8120  0.2303  0.1832
80093SOL     OW58270   6.888   1.841  10.953  0.2788  0.2877 -0.8250
80093SOL    HW158271   6.979   1.870  10.944  0.3624  1.3813  2.1626
80093SOL    HW258272   6.836   1.916  10.925  0.4133  1.1239  1.0310
80094SOL     OW58273  13.621   4.247  11.344  0.7229  0.0769 -0.4951
80094SOL    HW158274  13.557   4.187  11.305  0.6652 -0.3964  0.3103
80094SOL    HW258275  13.581   4.334  11.335 -0.7513 -0.3415  1.2873
80095SOL     OW58276   2.942   5.697   0.712 -0.0640  0.5177  0.3236
80095SOL    HW158277   2.964   5.787   0.737 -0.5195  0.5227  0.7207
80095SOL    HW258278   2.871   5.707   0.649  1.1596  0.5101 -1.1149
80096SOL     OW58279  12.159   4.914  11.863  0.5787 -0.3913 -0.1760
80096SOL    HW158280  12.243   4.877  11.888  0.4136  0.0816  1.1255
80096SOL    HW258281  12.129   4.962  11.940 -0.4065  0.3085 -0.9585
80097SOL     OW58282   1.386   7.660  11.268 -0.0770 -0.7569 -0.1570
80097SOL    HW158283   1.393   7.713  11.188 -1.0900  1.0307  0.8898
80097SOL    HW258284   1.462   7.686  11.320 -0.0066 -1.1388 -0.0620
80098SOL     OW58285   2.194  13.316   6.396  0.3845  0.9093  0.1026
80098SOL    HW158286   2.193  13.410   6.411  0.8825  1.5433 -3.0617
80098SOL    HW258287   2.104  13.295   6.373  0.4960  0.8398 -0.2750
80099SOL     OW58288  13.413   9.707  11.304  0.2120 -0.2979 -0.3766
80099SOL    HW158289  13.437   9.698  11.212 -0.5243  2.3923 -0.9158
80099SOL    HW258290  13.431   9.798  11.325 -4.4601  0.6728  0.6174
80100SOL     OW58291   9.348   6.401   1.492  0.1538 -0.0416  0.6752
80100SOL    HW158292   9.383   6.311   1.494  0.4397  0.0502  0.0051
80100SOL    HW258293   9.283   6.403   1.563  1.2681 -0.3107  1.7381
80101SOL     OW58294   8.279  12.330   6.607  0.4450  0.3535 -0.3913
80101SOL    HW158295   8.292  12.302   6.698  0.7983 -0.6982 -0.7406
80101SOL    HW258296   8.213  12.398   6.612  1.7669  1.6262  0.8518
80102SOL     OW58297   4.709  12.529   4.326 -0.6172  0.2097 -0.0106
80102SOL    HW158298   4.627  12.481   4.336  0.2757 -1.4337 -0.2349
80102SOL    HW258299   4.774  12.461   4.309  0.2646  1.6981 -3.2569
80103SOL     OW58300   6.958  12.371   5.424 -0.0997 -0.3141  0.4091
80103SOL    HW158301   7.023  12.352   5.356 -0.0335  0.2903  0.3004
80103SOL    HW258302   6.978  12.309   5.494 -0.8615 -1.7132 -0.5514
80104SOL     OW58303   7.384   4.789   0.848 -0.1436 -0.8219 -0.2590
80104SOL    HW158304   7.441   4.714   0.864 -0.5503 -1.2278 -0.6732
80104SOL    HW258305   7.409   4.820   0.761 -1.0664 -1.4864 -0.7855
80105SOL     OW58306   6.003   3.356  11.558 -0.0335 -0.2230  0.2143
80105SOL    HW158307   6.016   3.262  11.567 -0.1710 -0.2506  0.1163
80105SOL    HW258308   5.939   3.366  11.488  0.1654 -0.0464  0.0540
80106SOL     OW58309  13.413   5.252   0.321 -0.3043 -0.0206  0.3804
80106SOL    HW158310  13.344   5.269   0.257  0.2440  0.4798 -0.0916
80106SOL    HW258311  13.479   5.202   0.273  1.2999  2.5075 -0.2438
80107SOL     OW58312   9.766   1.683  10.090  0.4065 -0.1556 -0.2659
80107SOL    HW158313   9.837   1.745  10.076  0.7323 -0.4886 -0.1208
80107SOL    HW258314   9.805   1.612  10.141 -0.4920  0.5654  1.5105
80108SOL     OW58315  13.520  11.187   8.412  0.1485  0.2843 -0.4382
80108SOL    HW158316  13.476  11.244   8.475  1.3460 -0.4211  1.1414
80108SOL    HW258317  13.460  11.114   8.399 -1.1727  1.5973 -2.0798
80109SOL     OW58318   9.332  12.808   8.819 -0.6042 -0.2442 -0.2678
80109SOL    HW158319   9.426  12.794   8.819 -0.5326 -0.0618  1.4789
80109SOL    HW258320   9.295  12.725   8.789  0.0435 -1.6858  2.5677
80110SOL     OW58321  13.868   9.401  11.637  0.1446 -0.0698  0.0907
80110SOL    HW158322  13.791   9.371  11.685  1.1364  0.4098  2.1083
80110SOL    HW258323  13.840   9.482  11.595 -0.0474  0.9984  2.1751
80111SOL     OW58324   4.662  12.219   0.332 -0.2212 -0.0704  0.1866
80111SOL    HW158325   4.741  12.252   0.375  1.3914 -1.0287 -1.8474
80111SOL    HW258326   4.678  12.126   0.321  0.2120  0.2593 -3.6413
80112SOL     OW58327  11.506   1.738  11.465  0.1698 -0.2256 -0.0979
80112SOL    HW158328  11.465   1.672  11.410  0.5135 -0.2451 -0.3364
80112SOL    HW258329  11.591   1.753  11.424  0.6213 -0.5777  0.6997
80113SOL     OW58330   1.007   1.210   0.838  0.5930  0.4472 -0.0975
80113SOL    HW158331   0.987   1.204   0.932 -0.4460 -0.8803 -0.3645
80113SOL    HW258332   0.938   1.267   0.803  1.1433  1.1682 -0.0232
80114SOL     OW58333  13.249   7.338  13.613 -0.2040 -0.7907 -0.3086
80114SOL    HW158334  13.258   7.398  13.539 -2.4679  2.0547  1.4670
80114SOL    HW258335  13.332   7.345  13.660  0.0279  0.0142 -0.8117
80115SOL     OW58336   6.467   7.612   0.593  0.4053  0.0588 -0.3549
80115SOL    HW158337   6.519   7.671   0.647 -2.4487  0.9336  1.7019
80115SOL    HW258338   6.449   7.661   0.513  0.6737  0.7391 -0.0057
80116SOL     OW58339  12.925   9.345  10.127  0.1683  0.7338  0.5365
80116SOL    HW158340  12.942   9.252  10.142 -0.3893  0.5664  0.1782
80116SOL    HW258341  12.866   9.346  10.052  0.1673  1.3794  0.5435
80117SOL     OW58342   6.124   9.681   4.353  0.2209  0.0777 -0.2161
80117SOL    HW158343   6.101   9.695   4.445 -0.1352  1.5672 -0.5169
80117SOL    HW258344   6.118   9.586   4.342  0.2376 -0.1208  1.2866
80118SOL     OW58345   5.258   4.438  13.112  0.0745  0.8349 -0.1535
80118SOL    HW158346   5.170   4.470  13.092  0.3816  2.1184  0.4906
80118SOL    HW258347   5.246   4.344  13.125 -1.1774  0.9669 -0.2143
80119SOL     OW58348   6.438  12.279  10.941 -0.5848  0.3739 -0.5401
80119SOL    HW158349   6.486  12.352  10.902  1.0708  1.3984  3.0110
80119SOL    HW258350   6.495  12.203  10.925  0.5337  0.9449  0.5050
80120SOL     OW58351  13.811   1.573  13.559  0.4591 -0.1378  0.3107
80120SOL    HW158352  13.850   1.486  13.559  0.5855 -0.0868  0.8364
80120SOL    HW258353  13.785   1.587  13.650 -2.4966 -0.9179 -0.3202
80121SOL     OW58354   3.560   4.949  12.597  0.1925 -0.1721 -0.0696
80121SOL    HW158355   3.654   4.946  12.577  0.1220 -0.0033 -0.4233
80121SOL    HW258356   3.556   5.001  12.678  0.2869  1.0879 -0.8445
80122SOL     OW58357   7.468   4.965   1.544  0.3802  0.0643  0.0377
80122SOL    HW158358   7.403   4.895   1.536  0.3712  0.1315 -0.5827
80122SOL    HW258359   7.421   5.036   1.588  0.0569  0.0722 -0.3054
80123SOL     OW58360   9.358   0.812  12.953 -0.5756 -0.0924  0.0846
80123SOL    HW158361   9.442   0.859  12.953 -1.3081  1.3844 -2.3428
80123SOL    HW258362   9.382   0.721  12.966  1.2294  0.4935  1.2923
80124SOL     OW58363   7.413   7.709  12.167 -0.2152  0.2648  0.3037
80124SOL    HW158364   7.455   7.793  12.152  0.1549  0.2352  1.1385
80124SOL    HW258365   7.404   7.702  12.262 -1.1852 -0.1832  0.1933
80125SOL     OW58366  10.667   7.017  10.906  0.1823 -0.1941  0.1137
80125SOL    HW158367  10.713   7.080  10.850 -0.6146  0.9817  0.7389
80125SOL    HW258368  10.704   7.032  10.994 -0.2465 -0.3657  0.3241
80126SOL     OW58369   7.255  13.169  10.291 -0.0254 -0.6657 -0.4341
80126SOL    HW158370   7.198  13.236  10.253 -0.4119 -0.2258  0.8555
80126SOL    HW258371   7.341  13.211  10.296  0.0861 -0.8119 -1.0204
80127SOL     OW58372   6.640   6.700  13.246 -0.5976  0.0929 -0.1688
80127SOL    HW158373   6.680   6.615  13.226  1.0201  1.0021 -1.0184
80127SOL    HW258374   6.646   6.708  13.341  3.2744  1.0354 -0.3282
80128SOL     OW58375   4.753  10.553  10.417 -0.4181 -0.5898 -0.0891
80128SOL    HW158376   4.791  10.473  10.381  1.3322 -0.7368  1.8971
80128SOL    HW258377   4.763  10.618  10.347  0.2374 -1.5380 -0.8975
80129SOL     OW58378  10.560   2.745   2.654  0.3008 -0.0455 -0.3656
80129SOL    HW158379  10.591   2.655   2.643  1.8997  0.2042  1.6107
80129SOL    HW258380  10.636   2.799   2.631 -0.2917  0.7805 -0.4180
80130SOL     OW58381   1.882   7.176   8.595  0.3424  0.0736 -0.0174
80130SOL    HW158382   1.885   7.265   8.631  0.3819 -0.0364  0.2489
80130SOL    HW258383   1.840   7.124   8.662  1.5238 -0.3786  0.4029
80131SOL     OW58384  11.396   6.537   9.010 -0.1332  0.2477  0.9154
80131SOL    HW158385  11.301   6.533   8.998 -0.3758  0.7279  2.4231
80131SOL    HW258386  11.407   6.565   9.101  1.4304  3.5430 -0.1526
80132SOL     OW58387  10.312  12.027   7.511 -0.3634  0.2768 -0.0894
80132SOL    HW158388  10.233  12.072   7.480 -1.2329  0.6484  2.3663
80132SOL    HW258389  10.331  12.069   7.595  2.2344 -0.1169 -0.4061
80133SOL     OW58390  11.770  13.517  12.394  0.2836  0.1409  0.6403
80133SOL    HW158391  11.743  13.427  12.378  1.5910  0.1255 -1.9953
80133SOL    HW258392  11.793  13.519  12.487 -0.4321 -2.0444  0.9135
80134SOL     OW58393   3.727   9.094   5.701 -0.0288 -0.1012 -0.7403
80134SOL    HW158394   3.792   9.155   5.736 -0.5782 -0.0554  0.2307
80134SOL    HW258395   3.658   9.092   5.767 -1.0410 -0.1164 -1.7712
80135SOL     OW58396  11.085  10.044  10.256  0.0313  0.3609 -0.3499
80135SOL    HW158397  11.145  10.114  10.283  1.4662 -1.1026  0.4201
80135SOL    HW258398  11.122  10.010  10.174 -1.5948  1.5538 -1.6400
80136SOL     OW58399   7.079   2.110   7.645 -0.1328  0.8656 -0.0948
80136SOL    HW158400   7.038   2.196   7.655  1.9410  1.7983  1.0063
80136SOL    HW258401   7.109   2.109   7.554  0.0779  1.4139 -0.0316
80137SOL     OW58402   1.044   0.658  13.015  0.5680 -0.4581 -0.2997
80137SOL    HW158403   0.967   0.713  13.002  0.4344 -0.5293  0.1698
80137SOL    HW258404   1.028   0.581  12.962  2.6378  1.6702 -4.5481
80138SOL     OW58405   5.460  13.364   4.862  0.3550 -0.0231  0.3512
80138SOL    HW158406   5.452  13.440   4.919 -1.5228 -1.2127  1.8075
80138SOL    HW258407   5.400  13.382   4.790  2.8790  1.5736 -1.5233
80139SOL     OW58408   2.428   8.834   7.943 -0.2003  0.0292  0.2151
80139SOL    HW158409   2.462   8.835   7.853 -0.4188  2.3779  0.1004
80139SOL    HW258410   2.336   8.861   7.934 -0.2729  0.1101  1.1124
80140SOL     OW58411   7.755  11.991   1.823 -0.6169  0.2617 -0.0737
80140SOL    HW158412   7.793  11.963   1.740 -1.3832 -2.9502  0.5236
80140SOL    HW258413   7.821  12.047   1.862  0.1652  1.0771 -2.3681
80141SOL     OW58414   0.226   0.457   5.257 -0.0606  0.3825  0.2284
80141SOL    HW158415   0.310   0.428   5.293  0.4194 -0.3737 -1.3970
80141SOL    HW258416   0.248   0.532   5.202 -0.5458  0.5551  0.2633
80142SOL     OW58417  10.191   2.377   4.619 -0.1322 -0.2134  0.0723
80142SOL    HW158418  10.109   2.358   4.573  1.1717 -1.6039 -1.8454
80142SOL    HW258419  10.164   2.421   4.700 -2.6381  1.0005 -1.3230
80143SOL     OW58420   6.660   1.218  12.857 -0.2838 -0.4660  0.4018
80143SOL    HW158421   6.698   1.296  12.898 -0.1259 -0.4735  0.2722
80143SOL    HW258422   6.683   1.146  12.915 -0.5162 -0.4011  0.5748
80144SOL     OW58423   2.491  10.718  11.987  0.6325  0.5630  0.2976
80144SOL    HW158424   2.518  10.631  11.956  0.3858  0.3300  0.7306
80144SOL    HW258425   2.432  10.750  11.919 -0.9988 -0.5227  1.1473
80145SOL     OW58426  12.136  13.976   9.953  0.1882  0.5357  0.0401
80145SOL    HW158427  12.135  13.881   9.939  1.2048  0.2379  1.7543
80145SOL    HW258428  12.044  14.003   9.942 -0.3411 -0.8518  0.7893
80146SOL     OW58429   2.139   3.974   2.392 -0.0944  0.6331  0.2972
80146SOL    HW158430   2.112   3.995   2.482 -0.8079 -0.6389  0.4035
80146SOL    HW258431   2.087   4.032   2.337  0.1055  1.1905  0.6876
80147SOL     OW58432   8.807   1.928  13.889  0.0611  0.0314  0.1803
80147SOL    HW158433   8.755   1.991  13.938 -0.1284  0.1813 -0.2019
80147SOL    HW258434   8.776   1.937  13.799  1.2734  0.6679 -0.2002
80148SOL     OW58435  13.261   6.461   4.766  0.2656  0.3024 -0.4587
80148SOL    HW158436  13.275   6.386   4.709 -0.4858 -0.0637 -0.1691
80148SOL    HW258437  13.167   6.464   4.780  0.5366 -0.4113  1.8436
80149SOL     OW58438  10.300   1.013   6.793 -0.4231  0.2053 -0.2292
80149SOL    HW158439  10.214   0.985   6.823 -0.7264  0.5329 -0.7773
80149SOL    HW258440  10.354   0.934   6.797 -0.9665 -0.1912 -0.6777
80150SOL     OW58441   9.917   0.644   9.554  0.0088 -0.2210  0.4316
80150SOL    HW158442   9.979   0.680   9.490  0.6038 -2.3382 -0.2455
80150SOL    HW258443   9.970   0.623   9.630 -0.3670  0.4330  0.8866
80151SOL     OW58444   3.592   9.995   9.010 -0.6239 -0.0814  0.3137
80151SOL    HW158445   3.676   9.955   9.034 -1.0301 -0.9061  0.3970
80151SOL    HW258446   3.562  10.037   9.090 -0.9177 -0.9368  0.6683
80152SOL     OW58447   4.390   7.854  13.587  0.0927  0.4302  0.6324
80152SOL    HW158448   4.297   7.831  13.588 -0.0923  0.7823 -1.7638
80152SOL    HW258449   4.392   7.943  13.551  1.3129  0.9828  1.9463
80153SOL     OW58450  12.031   0.324   7.338  0.7264 -0.2746  0.0541
80153SOL    HW158451  12.014   0.260   7.269  0.1129 -1.5230  1.2981
80153SOL    HW258452  11.961   0.308   7.402 -0.0252  2.2923 -0.0007
80154SOL     OW58453   8.276  13.802   9.672  0.4899  0.1582 -0.1273
80154SOL    HW158454   8.348  13.861   9.652  0.5329 -0.1769 -1.0004
80154SOL    HW258455   8.316  13.730   9.720  0.5923  0.3847  0.1272
80155SOL     OW58456   4.064  12.193   6.567  0.2712  0.3583  0.1887
80155SOL    HW158457   4.136  12.130   6.563  0.4988  0.6199  0.1679
80155SOL    HW258458   4.068  12.239   6.484 -0.2997 -0.0389 -0.0628
80156SOL     OW58459  10.658  13.770  10.460 -0.2167 -0.3092  0.2748
80156SOL    HW158460  10.665  13.831  10.533 -2.6843 -0.1191  0.4500
80156SOL    HW258461  10.584  13.803  10.409  0.9153 -0.8995 -1.9008
80157SOL     OW58462   4.275   6.296  12.173  0.2528  0.3225  0.2656
80157SOL    HW158463   4.181   6.312  12.169 -0.0977 -1.0802  1.5735
80157SOL    HW258464   4.284   6.226  12.238  2.2123  0.4922  0.2385
80158SOL     OW58465  11.250  12.462   4.036 -0.2313 -0.1268 -0.0010
80158SOL    HW158466  11.280  12.372   4.021  2.9682  0.9343 -0.5958
80158SOL    HW258467  11.194  12.481   3.961  2.0672 -0.4659 -1.9176
80159SOL     OW58468   9.337   2.980   7.010  0.1285 -0.0287 -0.2083
80159SOL    HW158469   9.378   3.023   7.085  1.9151 -2.0959  0.0993
80159SOL    HW258470   9.268   2.926   7.048 -0.2230  0.3640 -0.2811
80160SOL     OW58471   6.577   3.405  11.275 -0.6456 -0.4334  0.6305
80160SOL    HW158472   6.654   3.439  11.321  0.1353 -1.3236  0.0220
80160SOL    HW258473   6.574   3.312  11.297 -0.7383 -0.7009 -0.4391
80161SOL     OW58474   7.942   0.081   3.950  0.4994 -0.3237  0.1483
80161SOL    HW158475   7.983  -0.005   3.955 -0.6394 -0.8288  1.1206
80161SOL    HW258476   7.955   0.120   4.036  1.8192  0.9061 -0.5496
80162SOL     OW58477   4.665  12.398   0.743 -0.1264  0.2822 -0.1853
80162SOL    HW158478   4.645  12.340   0.816  1.2340  0.8807  0.7062
80162SOL    HW258479   4.738  12.452   0.775 -0.6094  1.7033 -1.3795
80163SOL     OW58480  13.017   8.550   9.216  0.2874 -0.2386 -0.5578
80163SOL    HW158481  13.048   8.466   9.183 -0.5807 -0.5665 -0.5588
80163SOL    HW258482  12.922   8.548   9.202 -0.1031 -0.3318  1.7896
80164SOL     OW58483   8.901   6.372   7.584  0.0751 -0.6227 -0.1205
80164SOL    HW158484   8.898   6.344   7.493 -1.1432 -1.1545  0.0700
80164SOL    HW258485   8.878   6.465   7.581  3.0947  0.2259 -0.6392
80165SOL     OW58486  12.279   6.604  11.636  0.1063  0.3327 -0.7627
80165SOL    HW158487  12.260   6.599  11.543 -1.0733  1.7359 -0.6323
80165SOL    HW258488  12.320   6.520  11.657 -1.0783 -0.6475 -2.2100
80166SOL     OW58489  14.138   1.730  12.819 -0.1759 -0.4548 -0.2942
80166SOL    HW158490  14.166   1.664  12.756 -1.5746 -0.0847 -1.3624
80166SOL    HW258491  14.048   1.706  12.841  0.4953 -0.9773  2.1546
80167SOL     OW58492   4.579   6.587   5.769 -0.1248 -0.2311  0.0559
80167SOL    HW158493   4.637   6.661   5.754  1.0900 -1.2705 -0.5766
80167SOL    HW258494   4.619   6.538   5.841  0.6244 -1.7324 -1.3197
80168SOL     OW58495   0.668  11.344   0.794  0.1638  0.2964  0.1426
80168SOL    HW158496   0.596  11.392   0.753  0.4262  0.3863 -0.2193
80168SOL    HW258497   0.631  11.310   0.876 -0.4176 -0.0153 -0.2387
80169SOL     OW58498  13.163  12.664   2.580 -0.3703 -1.0396  0.0652
80169SOL    HW158499  13.119  12.580   2.570  0.2909 -1.1991 -1.8426
80169SOL    HW258500  13.248  12.652   2.539  0.0377  0.3481  0.4309
80170SOL     OW58501   3.035   1.236   2.478  0.2504 -0.6083  0.0441
80170SOL    HW158502   3.064   1.268   2.392 -0.9573 -2.5484 -1.1765
80170SOL    HW258503   3.093   1.162   2.496 -0.4085 -1.0970  0.1978
80171SOL     OW58504   2.917   9.169   9.895 -0.5888  0.2578  0.0472
80171SOL    HW158505   2.829   9.132   9.890 -0.4434 -0.1343  0.3475
80171SOL    HW258506   2.943   9.182   9.804 -0.2631 -1.3094 -0.1015
80172SOL     OW58507  12.586   3.705  10.126  0.1532 -0.1581  0.7821
80172SOL    HW158508  12.561   3.614  10.111 -0.9838  0.2049  0.3828
80172SOL    HW258509  12.672   3.714  10.084  0.7930 -1.3116  1.7737
80173SOL     OW58510   1.281  13.664  12.383 -0.1889 -0.0769  0.0610
80173SOL    HW158511   1.348  13.596  12.382 -0.4295 -0.3184  0.0380
80173SOL    HW258512   1.321  13.737  12.429  0.5708  0.2804 -1.1116
80174SOL     OW58513   5.116  12.623   5.798  0.3221  0.3725  0.1254
80174SOL    HW158514   5.055  12.672   5.744 -0.5447 -0.6684  0.1139
80174SOL    HW258515   5.203  12.650   5.769 -0.1400  0.9855 -0.6929
80175SOL     OW58516  12.406   6.160   5.532  0.1914  0.8456  0.3850
80175SOL    HW158517  12.498   6.179   5.515  0.4308  0.1390  0.8267
80175SOL    HW258518  12.391   6.076   5.488  0.1563  0.2362  1.5326
80176SOL     OW58519   1.388   1.005   4.816  0.2800 -0.2490  0.2210
80176SOL    HW158520   1.415   1.089   4.854 -0.0288  0.2926 -0.7329
80176SOL    HW258521   1.416   0.940   4.880  0.0477  0.6169  1.2373
80177SOL     OW58522   8.404  10.563   3.862 -0.0078 -0.7741  0.3019
80177SOL    HW158523   8.330  10.617   3.834  0.0023  0.1980  2.0078
80177SOL    HW258524   8.442  10.611   3.936  1.0541 -2.2854  0.7847
80178SOL     OW58525  10.792  10.922  11.725  0.2380 -0.3949 -0.9761
80178SOL    HW158526  10.736  10.850  11.696 -2.6865  1.1142  0.4755
80178SOL    HW258527  10.814  10.901  11.816  0.9630 -0.3437 -1.1328
80179SOL     OW58528  13.055   0.801  11.581 -0.5040  0.5271 -0.3675
80179SOL    HW158529  12.975   0.835  11.621 -1.2264 -1.4461 -0.0309
80179SOL    HW258530  13.126   0.849  11.623 -1.3988  0.5527  1.1854
80180SOL     OW58531   7.682   8.000   0.936  0.1501  0.1476 -0.5478
80180SOL    HW158532   7.760   8.019   0.989  0.1959  1.2333 -0.9812
80180SOL    HW258533   7.661   7.909   0.956  1.7904 -0.3045 -0.7529
80181SOL     OW58534   8.077   7.217   3.070  0.2427  0.3987 -0.4889
80181SOL    HW158535   8.032   7.182   2.993  0.5686  2.2210 -1.5671
80181SOL    HW258536   8.111   7.302   3.041  0.0563  1.3090  1.7842
80182SOL     OW58537   4.008   3.976   4.117  0.6785  0.2270  0.1885
80182SOL    HW158538   4.000   3.884   4.140  0.0190  0.1163 -0.4269
80182SOL    HW258539   4.088   3.982   4.065 -0.3451 -0.3924 -1.5322
80183SOL     OW58540   0.659   4.839   8.171 -0.5298  0.3591  0.8130
80183SOL    HW158541   0.588   4.881   8.121 -0.2929  1.3219  1.2549
80183SOL    HW258542   0.725   4.907   8.181  0.4227 -0.4916  0.5223
80184SOL     OW58543   4.103   8.505   4.656  0.2726  0.5244  0.1451
80184SOL    HW158544   4.054   8.513   4.738 -0.0499 -1.5738  0.2002
80184SOL    HW258545   4.054   8.559   4.594 -0.6200  0.5546  0.8540
80185SOL     OW58546   9.349   4.859   7.633 -0.8232  0.4962 -0.1860
80185SOL    HW158547   9.444   4.875   7.637 -0.4998 -0.7831 -1.7378
80185SOL    HW258548   9.329   4.859   7.539 -1.5483 -3.2753 -0.1996
80186SOL     OW58549   8.339   2.460  12.163  0.0421  0.0402 -0.3275
80186SOL    HW158550   8.245   2.448  12.173  0.0897 -0.4828 -0.4522
80186SOL    HW258551   8.376   2.416  12.239  0.1924  0.0736 -0.3820
80187SOL     OW58552   5.392  10.841  13.887  0.6322  0.1137  0.3047
80187SOL    HW158553   5.407  10.796  13.804  1.6975  0.6783  0.1686
80187SOL    HW258554   5.304  10.814  13.914  0.6900 -0.9141 -0.4734
80188SOL     OW58555   5.923   2.277   9.947 -0.2265  0.1410 -0.3068
80188SOL    HW158556   5.996   2.268  10.008  0.1301  0.2090 -0.7241
80188SOL    HW258557   5.853   2.224   9.986 -0.1957  0.6486  0.4596
80189SOL     OW58558   1.659   9.255   9.587  0.1746 -0.0123 -0.1242
80189SOL    HW158559   1.599   9.326   9.607  1.0954  0.8148 -0.2016
80189SOL    HW258560   1.663   9.203   9.667 -0.1330  0.3131  0.1046
80190SOL     OW58561  11.066   6.866   8.483 -0.2948 -0.0025 -0.2892
80190SOL    HW158562  11.142   6.903   8.526  0.5403 -3.6534  1.8309
80190SOL    HW258563  11.102   6.816   8.410 -0.9430  0.1990 -0.7566
80191SOL     OW58564  11.719   9.426  13.600  0.1876 -0.3090 -0.5431
80191SOL    HW158565  11.657   9.365  13.639 -1.1370 -0.2187 -2.4068
80191SOL    HW258566  11.788   9.371  13.563 -0.2552 -0.5906 -0.9492
80192SOL     OW58567  11.236   2.795  13.861 -0.7472  0.1355  0.1102
80192SOL    HW158568  11.306   2.860  13.849  0.7140 -1.3647  0.0982
80192SOL    HW258569  11.202   2.779  13.773  0.5415 -0.8086 -0.2614
80193SOL     OW58570  10.109   5.398   9.374  0.0026  0.3038 -0.2938
80193SOL    HW158571  10.103   5.472   9.435 -1.0770 -0.0055 -0.0147
80193SOL    HW258572  10.095   5.438   9.288 -1.6835  0.2988 -0.0590
80194SOL     OW58573   6.455   7.985   1.830 -0.3865 -0.1829 -0.4362
80194SOL    HW158574   6.467   7.926   1.905 -0.1651 -0.8309 -0.9669
80194SOL    HW258575   6.529   8.045   1.835  0.4761 -1.1535 -0.9552
80195SOL     OW58576  10.118   7.065  13.418 -0.1412 -0.0897 -0.3193
80195SOL    HW158577  10.166   7.029  13.493 -0.3888  0.2718  0.0128
80195SOL    HW258578  10.075   6.988  13.379 -1.1968 -0.0819  0.7721
80196SOL     OW58579   8.433   2.049  11.027 -0.0995 -0.0566  0.0653
80196SOL    HW158580   8.376   2.124  11.010 -0.2447 -0.4702 -1.4597
80196SOL    HW258581   8.414   1.988  10.955  0.2411 -1.4212  1.0991
80197SOL     OW58582  12.762  13.247   5.348 -0.0612 -0.1151  0.0614
80197SOL    HW158583  12.704  13.171   5.340 -0.6885  0.2256  1.2258
80197SOL    HW258584  12.831  13.217   5.407 -0.8415  0.5177  1.3172
80198SOL     OW58585  10.247   7.863   7.338 -0.2632  0.4485 -0.0219
80198SOL    HW158586  10.159   7.893   7.364 -0.0537  0.3809  0.7785
80198SOL    HW258587  10.263   7.785   7.391 -0.6023 -0.8521 -1.7561
80199SOL     OW58588   2.175  13.400   0.103 -0.1035  0.1834  0.0058
80199SOL    HW158589   2.246  13.463   0.110  0.6026  0.0161 -3.7862
80199SOL    HW258590   2.115  13.438   0.040 -2.0437 -0.9324  1.0792
80200SOL     OW58591   0.371   8.585   4.103  0.1874  0.6618  0.2164
80200SOL    HW158592   0.451   8.592   4.051 -1.2478  2.3048 -1.9525
80200SOL    HW258593   0.337   8.497   4.084  0.6331  0.5682 -0.1563
80201SOL     OW58594   3.293   2.661   5.568  0.2578 -0.0399  0.2061
80201SOL    HW158595   3.304   2.714   5.490  0.7670 -0.2126  0.1593
80201SOL    HW258596   3.201   2.633   5.565  0.6026 -1.1605 -1.0536
80202SOL     OW58597   9.333  11.077   8.246 -0.3096  0.6630 -0.1302
80202SOL    HW158598   9.364  11.069   8.156 -1.6666 -0.9441 -0.5066
80202SOL    HW258599   9.401  11.035   8.298 -0.4340 -0.2129 -0.6424
80203SOL     OW58600  14.035   6.432   1.237  0.0117 -0.0757  0.3756
80203SOL    HW158601  13.944   6.404   1.228  0.1506 -0.8693  1.2015
80203SOL    HW258602  14.072   6.427   1.149 -1.0895  1.6017 -0.2316
80204SOL     OW58603  10.007  11.892   6.949 -0.2306 -0.2411  0.1971
80204SOL    HW158604   9.931  11.844   6.981  0.7560 -1.7020  0.4384
80204SOL    HW258605  10.081  11.856   6.998  0.8627 -0.1157 -1.2802
80205SOL     OW58606  12.688   6.567   8.474 -0.1978 -0.1309  0.1961
80205SOL    HW158607  12.628   6.610   8.413  0.7549  1.4685  0.3217
80205SOL    HW258608  12.713   6.635   8.536  0.8176 -1.0690  0.8659
80206SOL     OW58609  13.161   3.357  13.989 -0.5710 -0.2153 -0.3407
80206SOL    HW158610  13.134   3.266  13.998 -1.2231  0.0552  0.5242
80206SOL    HW258611  13.082   3.403  13.960 -0.1218  0.0078 -1.2599
80207SOL     OW58612   9.982   4.224  12.435 -0.3264  0.1384  0.4723
80207SOL    HW158613   9.940   4.138  12.438  1.9356 -1.0903 -0.5367
80207SOL    HW258614   9.981   4.254  12.526 -0.4025 -1.3670  0.9983
80208SOL     OW58615   1.447   9.565   8.463  0.5734  0.6437 -0.4362
80208SOL    HW158616   1.483   9.653   8.451  2.0354 -0.0875 -1.6172
80208SOL    HW258617   1.353   9.579   8.473  0.4098  2.1890 -3.1598
80209SOL     OW58618  11.750   3.199   8.087 -0.3273  0.2048  0.6340
80209SOL    HW158619  11.790   3.112   8.090 -2.0576 -0.6188  1.5037
80209SOL    HW258620  11.819   3.258   8.116  2.0757 -0.2905 -3.2709
80210SOL     OW58621   2.119  12.309   2.418  0.1772  0.2953 -0.3601
80210SOL    HW158622   2.154  12.385   2.373  0.7098  0.7514  0.7682
80210SOL    HW258623   2.197  12.258   2.444 -0.0980  0.1005  0.1125
80211SOL     OW58624  11.136   7.468   7.506  0.1025  0.1418 -0.6838
80211SOL    HW158625  11.107   7.513   7.427 -1.1406 -0.1634 -0.4198
80211SOL    HW258626  11.184   7.535   7.556  0.2143  0.5464 -1.3222
80212SOL     OW58627   4.528   5.421   2.270 -0.5821 -0.1686  0.0166
80212SOL    HW158628   4.518   5.358   2.341 -1.9051 -1.3105 -1.1208
80212SOL    HW258629   4.474   5.496   2.295 -1.0299 -0.5584  0.2179
80213SOL     OW58630  12.582   6.618   7.026  0.5775 -0.5536 -0.1301
80213SOL    HW158631  12.677   6.626   7.039  0.6519  0.4508 -1.0740
80213SOL    HW258632  12.573   6.577   6.940  0.1657 -0.3999 -0.1636
80214SOL     OW58633   4.282   0.672   7.955 -0.4080 -0.1378 -0.2553
80214SOL    HW158634   4.196   0.673   7.997 -0.3428 -1.3421 -0.0636
80214SOL    HW258635   4.272   0.612   7.881 -0.2504  1.2015 -1.4113
80215SOL     OW58636   4.485   7.667   9.038  0.4890 -0.6346 -0.4807
80215SOL    HW158637   4.516   7.699   9.123 -0.5800  0.1746 -0.3803
80215SOL    HW258638   4.400   7.709   9.026  0.2770 -1.3472 -1.6043
80216SOL     OW58639   0.101   5.048   4.117 -0.1122 -0.2581  0.2263
80216SOL    HW158640   0.033   5.114   4.132 -1.6069 -1.7509  0.3453
80216SOL    HW258641   0.181   5.099   4.106 -1.2641  1.5921 -0.1360
80217SOL     OW58642   2.307   0.963   8.986 -0.2552 -0.6171 -0.5692
80217SOL    HW158643   2.378   0.943   9.048  1.0087 -2.5268 -2.4821
80217SOL    HW258644   2.248   0.888   8.992 -0.5298 -0.4471 -1.1149
80218SOL     OW58645  11.421  10.574   7.602  0.1454 -0.4169 -1.0079
80218SOL    HW158646  11.420  10.480   7.619 -1.3048 -0.0262  1.4729
80218SOL    HW258647  11.330  10.601   7.607  0.5916  1.2366 -0.9780
80219SOL     OW58648  11.815   7.504   6.008  0.2665 -0.0640  0.0970
80219SOL    HW158649  11.762   7.518   5.929 -1.0884 -1.1572  0.7516
80219SOL    HW258650  11.751   7.479   6.075  1.6435 -1.7824  0.8447
80220SOL     OW58651   3.040   4.310  10.157  0.5413  0.3100 -0.7731
80220SOL    HW158652   3.043   4.402  10.182  1.6614  0.3950 -1.1730
80220SOL    HW258653   2.971   4.306  10.090 -1.6268  0.2855  1.2985
80221SOL     OW58654   4.303   2.225   4.035  0.0581 -0.2008 -0.0023
80221SOL    HW158655   4.301   2.196   3.944  0.6850 -1.1967  0.2794
80221SOL    HW258656   4.211   2.221   4.064 -0.1913  0.4800 -0.6884
80222SOL     OW58657  13.937   6.588   8.606 -0.6735  0.2799  0.0931
80222SOL    HW158658  13.894   6.527   8.666 -2.4693  1.4248  0.0551
80222SOL    HW258659  13.909   6.674   8.636 -0.5340  0.9377 -1.5902
80223SOL     OW58660   8.293   8.101   9.416 -0.3167 -0.0952 -0.5229
80223SOL    HW158661   8.355   8.044   9.461 -0.8771 -0.6650 -0.4635
80223SOL    HW258662   8.209   8.084   9.459 -0.2987  1.6089  0.2672
80224SOL     OW58663   5.888   8.505   2.668 -0.6947 -0.3341 -0.0151
80224SOL    HW158664   5.818   8.458   2.712 -0.3248  0.4774  1.5181
80224SOL    HW258665   5.940   8.543   2.739  0.1146  0.7754 -1.1493
80225SOL     OW58666   2.117   3.692   0.135 -0.0441 -0.2155 -0.6684
80225SOL    HW158667   2.211   3.691   0.154 -0.4213  0.2990  1.3988
80225SOL    HW258668   2.106   3.622   0.071  1.3803 -2.0727  0.9717
80226SOL     OW58669   7.967   3.536   8.269 -0.0121 -0.8078  0.1560
80226SOL    HW158670   7.981   3.588   8.348  0.8692 -0.4257 -0.2301
80226SOL    HW258671   7.910   3.464   8.297 -1.9819  0.8016  0.5156
80227SOL     OW58672  13.236  13.132   6.789 -0.0141 -0.6478 -0.5358
80227SOL    HW158673  13.325  13.123   6.755 -0.0807 -3.4138 -0.2116
80227SOL    HW258674  13.247  13.153   6.882  0.2817 -0.2803 -0.6533
80228SOL     OW58675   0.048   1.385   5.489 -0.0256 -0.2387 -0.3164
80228SOL    HW158676   0.121   1.367   5.549  0.5300 -0.8913 -1.1533
80228SOL    HW258677  -0.003   1.304   5.489 -0.0434 -0.2293 -0.6866
80229SOL     OW58678  11.277   0.336  12.793  0.0910 -0.5330  0.0318
80229SOL    HW158679  11.249   0.257  12.747 -0.2383 -0.5830  0.3148
80229SOL    HW258680  11.196   0.383  12.811  0.2263 -0.4676  0.4768
80230SOL     OW58681  10.721   0.195   7.439  0.5075 -0.4847 -0.1753
80230SOL    HW158682  10.679   0.181   7.355  1.4573  0.1876 -0.7829
80230SOL    HW258683  10.788   0.127   7.444  0.0663 -0.8958  0.3169
80231SOL     OW58684  10.652   2.397  10.885 -0.1608  0.4428  0.0717
80231SOL    HW158685  10.715   2.382  10.814 -2.3789 -1.5159 -1.6478
80231SOL    HW258686  10.706   2.406  10.963  2.3223  0.9630 -1.5907
80232SOL     OW58687   6.397   2.037   5.391  0.6353  0.1105 -0.1182
80232SOL    HW158688   6.480   2.031   5.438  0.7505 -1.2943 -0.4459
80232SOL    HW258689   6.339   2.086   5.449  0.9232 -1.1369  1.2816
80233SOL     OW58690   4.213   5.097   0.032 -0.0753  0.2414 -0.5032
80233SOL    HW158691   4.230   5.168   0.093 -1.3855  0.5105 -0.4073
80233SOL    HW258692   4.156   5.136  -0.035 -0.0166 -0.4685 -0.9795
80234SOL     OW58693   4.129  11.580  11.165  0.4006 -0.5112 -0.0468
80234SOL    HW158694   4.076  11.540  11.097  2.3136 -0.7661 -1.4430
80234SOL    HW258695   4.138  11.512  11.232 -0.9927 -0.4575  0.2255
80235SOL     OW58696   9.577  13.124   0.792  0.1069  0.5477  0.2733
80235SOL    HW158697   9.665  13.107   0.825 -0.1687 -1.0714  0.2331
80235SOL    HW258698   9.578  13.090   0.703 -0.7483 -0.1055  0.5041
80236SOL     OW58699   7.138   3.087  10.484  0.5739  0.2287 -0.3536
80236SOL    HW158700   7.060   3.112  10.533 -0.6206  0.3104 -2.1906
80236SOL    HW258701   7.208   3.087  10.549 -0.5426  2.1833  0.9591
80237SOL     OW58702   9.519   3.891   9.153 -0.6178 -0.3136 -0.1810
80237SOL    HW158703   9.534   3.985   9.141 -1.3793  0.3644  3.2249
80237SOL    HW258704   9.443   3.871   9.099 -0.3456  0.9704 -1.0710
80238SOL     OW58705   0.063   8.636  13.263  0.3628  0.5708  0.1188
80238SOL    HW158706  -0.015   8.584  13.243  0.9471 -0.1785 -0.2926
80238SOL    HW258707   0.039   8.687  13.341 -0.9083  1.2145 -0.6707
80239SOL     OW58708   5.336   0.333   5.562  0.1957  0.5232 -0.1577
80239SOL    HW158709   5.414   0.278   5.570  1.5423  2.0637 -1.6497
80239SOL    HW258710   5.371   0.422   5.559 -1.4474  1.2026 -2.3686
80240SOL     OW58711  10.892   6.227  12.422 -0.2788 -0.3923 -0.0010
80240SOL    HW158712  10.946   6.295  12.380  1.8736 -2.4514 -0.8038
80240SOL    HW258713  10.831   6.200  12.353 -0.5924  0.1529  0.0590
80241SOL     OW58714  11.227   4.926   7.524  0.0917 -0.0176 -0.0254
80241SOL    HW158715  11.300   4.897   7.579 -1.5077 -1.2620  1.5453
80241SOL    HW258716  11.161   4.958   7.586 -1.2565 -0.2259 -1.2947
80242SOL     OW58717   3.707  10.649  11.326 -0.5004  0.0281  0.2225
80242SOL    HW158718   3.715  10.617  11.236 -0.0378  0.0199  0.2672
80242SOL    HW258719   3.652  10.583  11.369  1.4490 -1.4253  0.6469
80243SOL     OW58720  11.292  14.004  14.052 -0.6445  0.1855  0.1486
80243SOL    HW158721  11.280  13.916  14.016 -0.3409 -0.0242  0.5464
80243SOL    HW258722  11.251  13.999  14.139 -0.5633  0.4160  0.1993
80244SOL     OW58723  10.559  11.849  10.412  0.0386 -0.2410 -0.0717
80244SOL    HW158724  10.506  11.776  10.382  0.6611 -0.5492 -0.4399
80244SOL    HW258725  10.647  11.813  10.422  0.5820  0.6856 -1.2591
80245SOL     OW58726  11.603   5.425   7.102  0.2289 -0.1268 -0.1798
80245SOL    HW158727  11.527   5.397   7.153 -0.4785  1.0201 -0.5461
80245SOL    HW258728  11.594   5.379   7.018 -0.3989  0.4360 -0.4326
80246SOL     OW58729  12.463   0.787   4.786 -0.5112 -0.3780 -0.0189
80246SOL    HW158730  12.425   0.722   4.728  1.6100 -1.2484 -0.5409
80246SOL    HW258731  12.530   0.740   4.836 -0.2706  0.9830  1.0279
80247SOL     OW58732   3.795   8.384   4.539  0.3225  0.5234  0.0855
80247SOL    HW158733   3.826   8.358   4.452 -1.1581  1.3845 -0.7584
80247SOL    HW258734   3.755   8.305   4.574  0.5749  0.2714 -0.1838
80248SOL     OW58735   1.896   7.740  12.157  0.0390  0.3047  0.6058
80248SOL    HW158736   1.809   7.726  12.118  0.7393  0.0102 -0.9115
80248SOL    HW258737   1.912   7.660  12.207 -0.3340  0.1400  0.4681
80249SOL     OW58738  11.241   2.223   1.462  0.3167 -0.3114 -0.2811
80249SOL    HW158739  11.201   2.162   1.400  0.3991  0.6159 -1.2784
80249SOL    HW258740  11.179   2.296   1.466  0.1290 -0.5179  1.0379
80250SOL     OW58741  11.492   8.333  11.394 -0.0709  0.1406  0.1730
80250SOL    HW158742  11.564   8.333  11.332 -0.5530 -1.6545 -0.4618
80250SOL    HW258743  11.416   8.307  11.343 -0.5968 -0.8230  1.3880
80251SOL     OW58744   6.883   6.988  10.660 -0.1869 -0.0096  0.3555
80251SOL    HW158745   6.952   6.981  10.594 -0.6872  1.2025 -0.3468
80251SOL    HW258746   6.927   7.022  10.738 -0.1303  1.9527 -0.4563
80252SOL     OW58747   8.218   3.896   9.516  0.1903 -0.0929  0.1466
80252SOL    HW158748   8.275   3.926   9.587 -1.1283 -0.3472  1.3535
80252SOL    HW258749   8.196   3.976   9.468 -0.3704  0.3761  1.1455
80253SOL     OW58750   8.748   0.702  11.172  0.0477  0.1711 -0.9618
80253SOL    HW158751   8.695   0.629  11.141 -0.2842 -0.7620  1.5586
80253SOL    HW258752   8.686   0.774  11.181 -0.9401 -0.8906  1.9026
80254SOL     OW58753  11.633   7.115  10.544  0.3442  0.1576 -0.0100
80254SOL    HW158754  11.714   7.148  10.582  0.4324  0.0523 -0.1058
80254SOL    HW258755  11.648   7.022  10.532  0.0653  0.0671  0.3319
80255SOL     OW58756  10.071  12.429   7.885  0.1129 -0.0881 -0.3383
80255SOL    HW158757  10.135  12.361   7.904 -0.7544 -1.1246 -1.0470
80255SOL    HW258758  10.097  12.465   7.800  0.4264  0.3014 -0.0798
80256SOL     OW58759   5.826   5.109   0.304  0.2911 -1.3238 -0.0905
80256SOL    HW158760   5.786   5.027   0.275  0.0590 -1.8585  1.6300
80256SOL    HW258761   5.839   5.097   0.398 -0.3451  0.8528  0.3307
80257SOL     OW58762  10.265   4.986  13.822  0.1626 -0.2329  0.0761
80257SOL    HW158763  10.175   4.994  13.854  0.0181  0.6794 -0.5284
80257SOL    HW258764  10.279   4.891  13.817 -0.7707 -0.3945  0.1711
80258SOL     OW58765  12.036   7.394  12.556  0.6575  0.5164 -0.3643
80258SOL    HW158766  12.073   7.329  12.616  1.4381 -0.9747 -2.3597
80258SOL    HW258767  12.110   7.449  12.530  0.7108 -0.0048 -1.3513
80259SOL     OW58768   7.116  13.560   5.183  0.6153 -0.7266  0.3043
80259SOL    HW158769   7.061  13.505   5.239 -0.5206  0.2852  0.2238
80259SOL    HW258770   7.059  13.584   5.110  1.5375 -0.5877 -0.3914
80260SOL     OW58771  12.221   2.554   5.190 -0.2790  0.3626 -0.2125
80260SOL    HW158772  12.295   2.498   5.215 -0.5087 -0.5651 -1.5210
80260SOL    HW258773  12.262   2.634   5.157  0.0545  0.9642  1.5524
80261SOL     OW58774   0.112  10.543   6.398  0.0944  0.1658 -0.1538
80261SOL    HW158775   0.094  10.449   6.386 -0.0861  0.1816  0.0040
80261SOL    HW258776   0.091  10.582   6.313  0.4318  0.0260 -0.3070
80262SOL     OW58777   3.222  13.767   1.707 -0.1362  0.6081 -0.3011
80262SOL    HW158778   3.308  13.734   1.734 -0.5252 -1.0074 -0.9341
80262SOL    HW258779   3.225  13.860   1.728  2.3595  0.9468 -1.7921
80263SOL     OW58780   7.449  13.284  13.941 -0.3930 -0.5068  0.1651
80263SOL    HW158781   7.473  13.372  13.970  0.1415 -0.6546  0.1808
80263SOL    HW258782   7.366  13.266  13.985  0.1908 -0.5639  1.2786
80264SOL     OW58783  11.826   1.907  12.623  0.1587  0.0893  0.0438
80264SOL    HW158784  11.756   1.900  12.558  0.2025 -0.2750  0.0316
80264SOL    HW258785  11.860   1.996  12.612  0.0741  0.0778 -0.3430
80265SOL     OW58786   5.558   2.743   2.059 -0.2571  0.0308 -0.0321
80265SOL    HW158787   5.600   2.786   2.134  1.3459  0.7033 -1.2615
80265SOL    HW258788   5.548   2.652   2.085 -1.6307  0.6203  1.7615
80266SOL     OW58789  14.144   7.184   5.755 -0.4638  0.1059  0.4804
80266SOL    HW158790  14.200   7.214   5.684 -0.9314  1.3633  0.6251
80266SOL    HW258791  14.171   7.235   5.831  1.3468 -2.5114  1.7704
80267SOL     OW58792   4.313   6.086   2.960 -0.0249 -0.0302 -0.5459
80267SOL    HW158793   4.348   6.173   2.979 -0.0189  0.1324 -1.2981
80267SOL    HW258794   4.225   6.087   2.997  0.8292 -0.5666  1.7007
80268SOL     OW58795   6.206   1.222   6.149  0.3210 -0.1242 -0.1340
80268SOL    HW158796   6.188   1.223   6.055 -1.1598 -0.3597  0.1216
80268SOL    HW258797   6.191   1.132   6.176 -0.5263  0.2020  0.5360
80269SOL     OW58798   7.676  10.503   2.853  0.2422 -0.2604  0.2788
80269SOL    HW158799   7.634  10.428   2.811  0.4973 -0.1627 -0.1557
80269SOL    HW258800   7.619  10.524   2.927 -1.8388  1.3717 -1.6504
80270SOL     OW58801   4.906   2.861   9.188 -0.1179  0.0571 -0.1157
80270SOL    HW158802   4.821   2.818   9.198  0.8345 -1.7673  0.5233
80270SOL    HW258803   4.904   2.896   9.100 -1.3297 -0.4239 -0.3094
80271SOL     OW58804   6.482   3.923   5.303  0.1861 -0.2239  0.6332
80271SOL    HW158805   6.514   3.992   5.245 -1.3723  1.7492  1.9697
80271SOL    HW258806   6.536   3.847   5.283  0.0625  0.4619 -3.0309
80272SOL     OW58807   2.700   4.603   9.232  0.1711 -0.0431 -0.2884
80272SOL    HW158808   2.762   4.663   9.275  1.4108 -1.1651 -0.4449
80272SOL    HW258809   2.629   4.593   9.295  0.6293  0.4818  0.3280
80273SOL     OW58810   9.879  11.332   3.236  0.3340 -0.2659  0.3513
80273SOL    HW158811   9.952  11.271   3.247  1.5969  1.1531  0.0577
80273SOL    HW258812   9.868  11.373   3.322  1.9271  1.7153 -0.3297
80274SOL     OW58813   4.908   2.977   0.416  0.3903 -0.0998 -0.3419
80274SOL    HW158814   4.853   2.953   0.490 -0.7838  0.5311 -0.9843
80274SOL    HW258815   4.856   3.041   0.367  1.2328 -0.3392 -1.5902
80275SOL     OW58816   3.682   7.619  12.578  0.2445 -0.6115 -0.8784
80275SOL    HW158817   3.610   7.589  12.633  0.7341 -0.7502 -0.2919
80275SOL    HW258818   3.672   7.714  12.574  0.7566 -0.4867  0.2821
80276SOL     OW58819  11.554   3.452  12.507  0.1496  0.3021  0.6951
80276SOL    HW158820  11.506   3.531  12.482 -2.3256 -1.2272  0.3191
80276SOL    HW258821  11.637   3.459  12.461  0.1751  2.8552  0.9927
80277SOL     OW58822  12.510  12.242   4.049  0.4744  0.5135  0.2611
80277SOL    HW158823  12.575  12.312   4.055  0.6632  0.2918  0.9313
80277SOL    HW258824  12.529  12.185   4.124 -0.4240  0.3837  0.4022
80278SOL     OW58825   7.792   3.038   6.606 -0.3855 -0.8665  0.4001
80278SOL    HW158826   7.858   2.982   6.565 -0.8986 -0.8433 -0.5082
80278SOL    HW258827   7.709   2.994   6.587 -0.9333  0.8657 -1.5610
80279SOL     OW58828  12.636   0.029   4.841 -0.0914  0.5980  0.5942
80279SOL    HW158829  12.631   0.011   4.935 -0.6792 -0.4004  0.3885
80279SOL    HW258830  12.730   0.037   4.823  0.3543 -2.8635  0.6702
80280SOL     OW58831   5.946   4.594  13.203  0.7403 -0.7445  0.1099
80280SOL    HW158832   5.958   4.669  13.261 -0.0690 -0.5904  0.0871
80280SOL    HW258833   6.012   4.531  13.232  0.3177 -0.6985  1.2430
80281SOL     OW58834   2.502   6.955   1.387  0.2104  0.4046 -0.8712
80281SOL    HW158835   2.570   7.010   1.348  2.4030 -1.8370 -0.4343
80281SOL    HW258836   2.479   7.001   1.468  0.9166  1.4021 -1.2080
80282SOL     OW58837  10.890   4.685  11.506 -0.5177  0.3212 -0.0443
80282SOL    HW158838  10.906   4.778  11.522 -1.9969  0.7379 -0.7995
80282SOL    HW258839  10.932   4.667  11.422 -0.9587  0.5258 -0.3104
80283SOL     OW58840   1.674  13.100   9.431  0.2488 -0.1990 -0.1048
80283SOL    HW158841   1.592  13.087   9.478 -0.6219  1.0188 -1.2171
80283SOL    HW258842   1.680  13.024   9.372  0.6301 -0.9864  0.9138
80284SOL     OW58843   7.881   0.596   0.941 -0.4952 -0.5352 -0.3527
80284SOL    HW158844   7.962   0.551   0.964 -1.4746 -2.6465 -0.7907
80284SOL    HW258845   7.811   0.543   0.980 -1.8880 -1.2179 -3.4378
80285SOL     OW58846   4.485   6.837  13.405  0.2703 -0.4734  0.3065
80285SOL    HW158847   4.574   6.840  13.370 -0.8753 -0.8754 -2.9494
80285SOL    HW258848   4.494   6.788  13.487  2.5682 -4.3784 -1.9343
80286SOL     OW58849  12.782  11.244   5.462  0.3342 -0.2781  0.0465
80286SOL    HW158850  12.788  11.159   5.419  0.4974 -0.5666  0.6404
80286SOL    HW258851  12.864  11.253   5.511  0.8428  0.7306 -0.9353
80287SOL     OW58852  11.514  11.544  14.009 -0.4493 -0.2847 -1.0415
80287SOL    HW158853  11.514  11.449  14.016 -0.9223 -0.3422 -1.6590
80287SOL    HW258854  11.459  11.562  13.933  0.7358  0.4158 -1.7765
80288SOL     OW58855  13.220   5.534  11.738 -0.3244 -0.2111  0.1901
80288SOL    HW158856  13.287   5.509  11.675 -0.3482  0.5054 -0.1296
80288SOL    HW258857  13.159   5.588  11.687 -0.2341  0.5490  0.8671
80289SOL     OW58858  11.235   6.293  13.555 -0.4338  0.5696 -0.1342
80289SOL    HW158859  11.294   6.239  13.609 -2.3062 -1.0085  0.4455
80289SOL    HW258860  11.218   6.239  13.478 -0.2441  1.5038 -0.8493
80290SOL     OW58861   1.763   5.347   4.344 -0.7342  0.1299 -0.1430
80290SOL    HW158862   1.776   5.438   4.373 -2.1478  0.0093  0.9675
80290SOL    HW258863   1.733   5.301   4.422 -0.7959 -1.1310 -0.8850
80291SOL     OW58864  12.571  13.884  12.819 -0.3181  0.2874 -0.2617
80291SOL    HW158865  12.534  13.878  12.907 -1.6932  1.1350 -0.7413
80291SOL    HW258866  12.631  13.959  12.823 -0.8946  0.7534 -0.2063
80292SOL     OW58867   2.342  11.779   2.642 -0.5097 -0.0605  0.5561
80292SOL    HW158868   2.417  11.801   2.587 -0.4759 -1.5129 -0.0418
80292SOL    HW258869   2.376  11.715   2.705 -1.1669 -0.5612  0.4212
80293SOL     OW58870   0.515  14.090  11.217  0.3456  0.3206 -0.1498
80293SOL    HW158871   0.564  14.031  11.160  1.3344  1.9283 -1.0366
80293SOL    HW258872   0.535  14.177  11.184 -0.7611  1.1902  1.3554
80294SOL     OW58873  12.222   0.123   3.294 -0.1043  0.3418  0.5324
80294SOL    HW158874  12.271   0.090   3.369 -1.5369  0.5344  1.5860
80294SOL    HW258875  12.241   0.217   3.292  0.4421  0.2317  0.2420
80295SOL     OW58876   8.156  10.383   6.176  0.0277 -0.1450 -0.5290
80295SOL    HW158877   8.229  10.322   6.166  0.9006  0.9232 -0.8644
80295SOL    HW258878   8.161  10.411   6.267  0.2627  0.1992 -0.6461
80296SOL     OW58879  13.422   0.162   4.338 -0.4121  0.1805 -0.3782
80296SOL    HW158880  13.413   0.255   4.359 -2.3655 -0.0298 -0.0847
80296SOL    HW258881  13.505   0.157   4.290 -0.3940  2.1089 -0.6641
80297SOL     OW58882   2.667  10.028   5.287  0.0041 -0.1946  0.0303
80297SOL    HW158883   2.661  10.023   5.382  1.3676  0.0822  0.1514
80297SOL    HW258884   2.584   9.990   5.256  0.2332 -1.8452  1.2736
80298SOL     OW58885   9.191   0.905   9.709  0.1369  0.0532 -0.0636
80298SOL    HW158886   9.283   0.883   9.703 -0.1044 -0.4819 -3.2795
80298SOL    HW258887   9.155   0.842   9.772  1.1636 -2.8782 -2.2117
80299SOL     OW58888  11.014   6.489  13.478  0.3240  1.1110 -0.0642
80299SOL    HW158889  11.086   6.426  13.484 -0.5151  0.1715  0.6560
80299SOL    HW258890  10.945   6.452  13.534 -0.9470  1.6504 -1.2011
80300SOL     OW58891   6.974   3.363  13.885 -0.0081 -0.4121  0.5179
80300SOL    HW158892   7.001   3.394  13.799  0.1282 -2.2912 -0.1705
80300SOL    HW258893   6.890   3.320  13.870 -1.0317  1.0569  1.7377
80301SOL     OW58894   0.726   8.790  10.601 -0.4484 -0.3099  0.1686
80301SOL    HW158895   0.722   8.885  10.592  0.3164 -0.1740  1.1488
80301SOL    HW258896   0.637   8.761  10.581 -0.5273  0.5307 -0.8467
80302SOL     OW58897  13.176   8.638   1.241 -0.3566  0.1544  0.4356
80302SOL    HW158898  13.212   8.549   1.248 -0.3325 -0.1658 -2.5863
80302SOL    HW258899  13.087   8.631   1.275 -0.5708 -1.2008 -0.3480
80303SOL     OW58900   2.845  14.093   4.890  0.1138  0.3442 -0.0799
80303SOL    HW158901   2.822  14.005   4.860 -0.0816 -0.6705  2.7501
80303SOL    HW258902   2.770  14.147   4.865 -0.1922 -0.4691 -1.0069
80304SOL     OW58903   3.744  11.585   4.849  0.0122 -0.0304 -0.4720
80304SOL    HW158904   3.781  11.664   4.889 -0.4539 -0.1100  0.1424
80304SOL    HW258905   3.705  11.538   4.923  1.4411 -1.5001 -0.6048
80305SOL     OW58906  10.550   4.055   4.672 -0.1283 -0.2623  0.0902
80305SOL    HW158907  10.528   4.147   4.690 -0.7388 -0.5736  1.0271
80305SOL    HW258908  10.566   4.052   4.578  0.0798  0.8407  0.0737
80306SOL     OW58909   1.370  12.795   3.201  0.9682  0.1895  0.7250
80306SOL    HW158910   1.330  12.865   3.253  1.6725  0.6608  0.6495
80306SOL    HW258911   1.347  12.816   3.110 -0.6108 -0.8587  0.8391
80307SOL     OW58912   5.823   1.557  13.134  0.0465 -0.4231  0.0658
80307SOL    HW158913   5.758   1.509  13.083 -0.9925 -0.3033  1.2109
80307SOL    HW258914   5.907   1.529  13.099 -0.5998 -0.0547 -1.9612
80308SOL     OW58915   9.961   5.290  10.240  0.2083  0.5301  0.0878
80308SOL    HW158916   9.869   5.267  10.255  0.8284 -2.0722  0.4590
80308SOL    HW258917  10.002   5.279  10.326  1.3096 -0.9651 -0.5934
80309SOL     OW58918  12.922   8.498  13.467 -0.1594  0.3909 -0.0772
80309SOL    HW158919  12.920   8.404  13.485 -0.1805  0.4726  0.3466
80309SOL    HW258920  12.833   8.519  13.440  0.1902  0.0093 -1.6263
80310SOL     OW58921   8.177   9.709  11.332 -0.5497 -0.2348  0.0940
80310SOL    HW158922   8.181   9.650  11.408  1.7658 -0.8261 -0.4012
80310SOL    HW258923   8.097   9.760  11.345 -0.5397 -0.7419  2.6165
80311SOL     OW58924   8.433   7.878   9.509  0.2764  0.1412 -0.4407
80311SOL    HW158925   8.490   7.808   9.541  0.5635 -0.3524 -1.9738
80311SOL    HW258926   8.416   7.856   9.418  0.1665  1.9365 -0.8889
80312SOL     OW58927   3.039  11.391   8.016  0.0640  0.2437  0.2628
80312SOL    HW158928   3.099  11.413   8.087 -1.1881  1.7580  0.9013
80312SOL    HW258929   3.085  11.324   7.966  1.1168 -0.6356  2.2989
80313SOL     OW58930   2.837   2.172   8.972 -0.2692 -0.1391  0.4695
80313SOL    HW158931   2.766   2.236   8.967 -0.4365 -0.3715 -0.2909
80313SOL    HW258932   2.795   2.087   8.964  0.1976 -0.2345 -1.9502
80314SOL     OW58933   8.109   6.405   6.172  0.0683 -0.3038 -0.1530
80314SOL    HW158934   8.158   6.323   6.185  0.1400 -0.5168 -1.5552
80314SOL    HW258935   8.059   6.390   6.092 -0.7911  0.6318  0.1882
80315SOL     OW58936   7.169   7.838  10.699  0.1122  0.5633  0.1747
80315SOL    HW158937   7.235   7.858  10.633  0.5960  0.8811  0.7483
80315SOL    HW258938   7.218   7.805  10.774 -0.5123 -0.9653 -0.0295
80316SOL     OW58939   4.421  13.376  10.769 -0.3534 -0.1040 -0.3809
80316SOL    HW158940   4.501  13.366  10.820  0.2890  0.7476 -1.1999
80316SOL    HW258941   4.437  13.451  10.712 -2.0404  0.6289  0.0209
80317SOL     OW58942  10.778   4.710  13.801 -0.3887  0.5013 -0.1055
80317SOL    HW158943  10.840   4.653  13.755 -0.3151  1.6809 -1.5881
80317SOL    HW258944  10.831   4.785  13.829 -0.4771 -0.1086  1.8190
80318SOL     OW58945   4.301   7.475   4.203  0.0634 -0.8310 -0.5874
80318SOL    HW158946   4.272   7.477   4.112 -0.6235  1.1842 -0.3704
80318SOL    HW258947   4.341   7.561   4.218 -1.2408 -0.5066  1.4231
80319SOL     OW58948   0.304  10.186   2.232  0.0818 -0.4186 -0.0305
80319SOL    HW158949   0.394  10.206   2.258 -0.3028 -1.2738  2.1413
80319SOL    HW258950   0.273  10.267   2.190  1.3949  0.3845  0.4765
80320SOL     OW58951  12.535   5.477   4.840 -0.8301  0.2713 -0.8742
80320SOL    HW158952  12.614   5.425   4.827 -0.9928  0.3379 -2.3795
80320SOL    HW258953  12.470   5.438   4.781 -1.9298  0.2247  0.3141
80321SOL     OW58954   0.380   4.830   0.547  0.0740 -0.4402 -0.3613
80321SOL    HW158955   0.303   4.785   0.581  0.4257 -0.3008  0.6403
80321SOL    HW258956   0.371   4.920   0.577  0.7257 -0.4652 -0.0706
80322SOL     OW58957   8.963   3.729  10.273  0.2053 -0.3142  0.1441
80322SOL    HW158958   8.926   3.673  10.341 -0.1518 -0.3730 -0.0947
80322SOL    HW258959   8.891   3.787  10.248  0.5245  0.1470  0.2800
80323SOL     OW58960   9.885  10.559   1.719 -0.1131 -0.1699  0.3312
80323SOL    HW158961   9.915  10.525   1.803 -0.3183 -0.5277  0.2623
80323SOL    HW258962   9.943  10.633   1.701  1.7799 -1.7608 -0.5163
80324SOL     OW58963   0.176  10.411   9.538  0.4662  0.2896  0.0120
80324SOL    HW158964   0.249  10.398   9.598  0.4529  1.1500  0.2275
80324SOL    HW258965   0.122  10.478   9.580 -0.7298 -0.7061  0.1048
80325SOL     OW58966   9.532   7.904  10.570  0.1064  0.5636  0.1952
80325SOL    HW158967   9.595   7.836  10.593 -1.3661 -0.1273  2.5602
80325SOL    HW258968   9.555   7.928  10.480  1.8959 -1.6601 -0.0508
80326SOL     OW58969   7.170   3.419  10.052  0.1407  0.0679  0.1067
80326SOL    HW158970   7.155   3.363  10.127  1.4581  1.5484  1.5704
80326SOL    HW258971   7.208   3.361   9.986 -1.8904 -1.4482  0.1759
80327SOL     OW58972   0.233   6.010   3.586 -0.1411  0.4254 -0.2006
80327SOL    HW158973   0.282   5.940   3.630 -1.1037  0.0891  0.3533
80327SOL    HW258974   0.245   5.992   3.492  1.4503  0.8189 -0.1053
80328SOL     OW58975   8.497   2.323  12.355  0.0034  0.0930 -0.4780
80328SOL    HW158976   8.426   2.313  12.419 -1.9627  2.8682 -2.0034
80328SOL    HW258977   8.565   2.370  12.403 -1.0666  1.3225 -0.0898
80329SOL     OW58978   9.257  11.421   6.521 -0.4703 -0.3174 -0.7506
80329SOL    HW158979   9.260  11.513   6.493 -0.9801 -1.0579 -3.6495
80329SOL    HW258980   9.289  11.372   6.445 -0.8578 -2.5858  0.4559
80330SOL     OW58981   9.541  13.530   0.964  0.2354  0.0673  0.0695
80330SOL    HW158982   9.548  13.558   0.872  1.1113 -1.0750 -0.2471
80330SOL    HW258983   9.626  13.489   0.982  0.5152  1.3044  1.7700
80331SOL     OW58984   0.770   4.249  13.101  0.1309  0.1917  0.0159
80331SOL    HW158985   0.750   4.336  13.067  0.8571  1.0415  1.6550
80331SOL    HW258986   0.702   4.231  13.165 -0.1078 -0.5459 -0.4217
80332SOL     OW58987   6.468  12.583  11.972 -0.1618 -0.4273  0.1728
80332SOL    HW158988   6.457  12.625  11.887 -0.0348 -0.2316  0.2521
80332SOL    HW258989   6.508  12.498  11.952  0.8708  0.0586  0.1178
80333SOL     OW58990  12.624   3.564   0.309 -0.0572  0.3162  0.0900
80333SOL    HW158991  12.633   3.566   0.404  0.7900 -2.0757  0.1376
80333SOL    HW258992  12.587   3.478   0.290  0.3445  0.5032 -1.7719
80334SOL     OW58993   1.866   9.424   2.576 -0.0061  0.2256  0.1579
80334SOL    HW158994   1.943   9.426   2.519  0.5674  0.1200  0.9091
80334SOL    HW258995   1.881   9.349   2.633 -1.2255 -0.4870 -0.4337
80335SOL     OW58996   3.300   4.925   4.618  0.0918  0.1257 -0.2395
80335SOL    HW158997   3.246   5.003   4.608  0.2027  0.2884  0.4122
80335SOL    HW258998   3.297   4.905   4.711  0.8254 -0.1034 -0.2560
80336SOL     OW58999   3.855  10.691   8.493 -0.1608 -0.0285 -0.3229
80336SOL    HW159000   3.875  10.681   8.400  0.9509  0.6462 -0.1683
80336SOL    HW259001   3.892  10.776   8.517 -0.2055 -0.3136  0.8018
80337SOL     OW59002   5.605   5.885   0.409  0.0751  0.2755  0.2017
80337SOL    HW159003   5.542   5.819   0.437 -0.6770  1.7346  2.2578
80337SOL    HW259004   5.566   5.925   0.332  1.2491 -2.5539 -2.0342
80338SOL     OW59005   3.532   2.054   7.451 -0.0676  0.0429  0.0501
80338SOL    HW159006   3.443   2.020   7.437  0.1257 -0.7029  0.5499
80338SOL    HW259007   3.523   2.116   7.523 -0.0799 -0.5094  0.5268
80339SOL     OW59008  13.115   6.622   6.300  0.1838 -0.4036 -0.2450
80339SOL    HW159009  13.186   6.559   6.311  1.1144  0.5209 -0.7577
80339SOL    HW259010  13.111   6.637   6.205  0.7631  1.1494 -0.0483
80340SOL     OW59011   9.820   8.326   1.873 -0.2445  0.2902  0.8132
80340SOL    HW159012   9.891   8.323   1.938 -0.3425 -0.4354  0.8975
80340SOL    HW259013   9.845   8.260   1.807 -0.5889  0.3865  0.5815
80341SOL     OW59014   3.897   1.069  11.272 -0.5484  0.2222 -0.0702
80341SOL    HW159015   3.977   1.110  11.305  0.6886  1.2029 -3.8754
80341SOL    HW259016   3.858   1.134  11.215 -1.4068 -1.9863 -2.1592
80342SOL     OW59017   1.737  10.685   0.909  0.3961 -0.2995 -0.0007
80342SOL    HW159018   1.719  10.760   0.853 -0.8322  0.3662  1.2345
80342SOL    HW259019   1.750  10.612   0.848  1.9486  0.9483 -1.2371
80343SOL     OW59020   2.778  10.129   8.074  0.0321  0.4393  0.2476
80343SOL    HW159021   2.830  10.130   8.155  1.0860 -0.9289 -0.3808
80343SOL    HW259022   2.829  10.077   8.013 -0.3134  2.2208 -1.6394
80344SOL     OW59023  12.118   1.554   8.141  0.2493  0.7244  0.0765
80344SOL    HW159024  12.031   1.545   8.180  0.0152  0.3229 -0.5163
80344SOL    HW259025  12.166   1.610   8.201  0.3197 -0.9063  1.6231
80345SOL     OW59026  11.114   3.836  12.746  0.0278  0.1753  0.2236
80345SOL    HW159027  11.095   3.860  12.656 -0.9015  1.3929  0.7178
80345SOL    HW259028  11.196   3.880  12.767  0.4109 -0.3690 -0.1174
80346SOL     OW59029   9.779   5.594   5.369  0.3025  0.3579 -0.6240
80346SOL    HW159030   9.866   5.606   5.332  0.2387  2.0323 -0.3129
80346SOL    HW259031   9.764   5.673   5.422 -0.5095 -0.9041  1.1314
80347SOL     OW59032  12.281   4.477   1.902  0.0771 -0.5463  0.0612
80347SOL    HW159033  12.352   4.525   1.861  1.3268 -1.1059  1.4599
80347SOL    HW259034  12.232   4.439   1.829  1.3753 -0.3659 -0.9429
80348SOL     OW59035   0.670  13.315   7.948 -0.5477  0.3537  0.0808
80348SOL    HW159036   0.663  13.289   7.856 -2.3720 -1.2849  0.6224
80348SOL    HW259037   0.662  13.410   7.947 -4.6679  0.1681 -1.2154
80349SOL     OW59038   5.445   5.467  11.803  0.4384 -0.1556  0.2036
80349SOL    HW159039   5.506   5.541  11.813 -0.2658  0.0902  4.2058
80349SOL    HW259040   5.359   5.508  11.794  0.2425 -0.5004  0.4992
80350SOL     OW59041   8.206   7.959   0.695 -0.9198  0.0628 -0.4627
80350SOL    HW159042   8.187   7.866   0.708 -1.7234  0.3168  0.2595
80350SOL    HW259043   8.163   7.981   0.612  2.2240 -1.0008 -2.5679
80351SOL     OW59044   7.350  12.104  11.506 -1.0110  0.8854  0.5180
80351SOL    HW159045   7.371  12.191  11.475  2.8548 -0.4570 -1.2285
80351SOL    HW259046   7.367  12.107  11.600  2.4649  1.3226 -0.0047
80352SOL     OW59047   8.713  12.830  12.879 -0.1468 -0.3460  0.1827
80352SOL    HW159048   8.647  12.790  12.936  0.1122 -0.1844  0.5963
80352SOL    HW259049   8.788  12.846  12.937 -0.2812  0.8456  0.0454
80353SOL     OW59050   8.706  11.919  14.021 -0.5058 -0.2380 -0.0452
80353SOL    HW159051   8.793  11.887  14.045 -0.7951  0.5277  2.3149
80353SOL    HW259052   8.649  11.887  14.091 -2.5696 -2.3238 -2.4815
80354SOL     OW59053   8.299  10.854   4.594  0.5860 -0.4315 -1.0925
80354SOL    HW159054   8.389  10.842   4.563  0.7377 -0.0338 -0.8135
80354SOL    HW259055   8.305  10.924   4.659  0.6294 -2.5154  1.3455
80355SOL     OW59056   1.761  10.839   9.545  0.0026  0.3600  0.5326
80355SOL    HW159057   1.837  10.829   9.601 -0.8644  0.5965  1.8086
80355SOL    HW259058   1.794  10.880   9.465  1.3279 -0.3218  0.7140
80356SOL     OW59059   5.438  12.563  12.370 -0.5723 -0.4529  0.0636
80356SOL    HW159060   5.386  12.638  12.397 -0.2707 -0.3997  0.5136
80356SOL    HW259061   5.457  12.516  12.451 -1.7436 -1.6779 -0.3313
80357SOL     OW59062   2.928   3.843   0.134  0.6102 -0.0355  0.3270
80357SOL    HW159063   2.980   3.779   0.084 -0.0915 -0.8501  0.6026
80357SOL    HW259064   2.950   3.825   0.225 -0.7188 -0.9365  0.4979
80358SOL     OW59065   9.026  12.594   3.196  0.5324 -0.4667 -0.2158
80358SOL    HW159066   8.934  12.585   3.220  0.3500 -0.2843 -0.8185
80358SOL    HW259067   9.029  12.676   3.146  0.8054 -1.0930 -1.2426
80359SOL     OW59068   9.821   8.168   0.356  0.0968 -0.6055 -0.2441
80359SOL    HW159069   9.736   8.193   0.392  1.1413 -0.9639  2.7205
80359SOL    HW259070   9.885   8.214   0.409  1.8250 -2.5757 -0.4837
80360SOL     OW59071   8.933   6.237  10.106  0.1869  0.1628  0.0591
80360SOL    HW159072   8.912   6.324  10.142 -1.6290 -0.1671 -0.1084
80360SOL    HW259073   8.859   6.182  10.132  0.7578 -1.0541 -0.8136
80361SOL     OW59074   4.588   2.366   7.684 -0.1912 -0.7845  0.2654
80361SOL    HW159075   4.636   2.409   7.754 -2.4892 -1.0978  2.1793
80361SOL    HW259076   4.534   2.436   7.646 -0.1235 -0.9361 -0.1105
80362SOL     OW59077  11.098   4.667   1.023  0.2400  0.4604  0.2833
80362SOL    HW159078  11.124   4.699   1.109 -0.4283  0.8667  0.3412
80362SOL    HW259079  11.034   4.598   1.041  0.4428  0.2288  0.1220
80363SOL     OW59080   5.226  12.892   9.520 -0.3094 -0.2220 -0.0107
80363SOL    HW159081   5.273  12.930   9.446 -0.2551 -0.8278 -0.2829
80363SOL    HW259082   5.138  12.928   9.513  0.0005  0.6336  0.2971
80364SOL     OW59083   6.864   3.830  12.228  0.7626 -0.3315  0.4592
80364SOL    HW159084   6.955   3.799  12.231  0.0551 -2.5149  1.2762
80364SOL    HW259085   6.832   3.799  12.143  0.6372  0.0576  0.3623
80365SOL     OW59086   2.319  10.296  11.927  0.8032 -0.1728  0.1098
80365SOL    HW159087   2.356  10.255  12.005  0.4998 -0.5172  0.0740
80365SOL    HW259088   2.323  10.229  11.860  1.1308  0.1497 -0.1935
80366SOL     OW59089   1.821  10.971  13.130  0.4690 -0.1037  0.5951
80366SOL    HW159090   1.739  10.938  13.095  1.0273  0.0796 -0.9567
80366SOL    HW259091   1.886  10.906  13.104  1.2447  1.1191 -0.6635
80367SOL     OW59092   1.003  12.867   4.270 -0.2685 -0.0883  0.3723
80367SOL    HW159093   0.954  12.913   4.201 -0.4990 -2.3018 -1.0284
80367SOL    HW259094   0.935  12.825   4.323 -0.0291 -2.4584 -1.0665
80368SOL     OW59095  12.148  10.962   4.616 -0.5058  0.7104 -0.1634
80368SOL    HW159096  12.168  11.042   4.567  0.8231 -0.1058 -1.0153
80368SOL    HW259097  12.115  10.901   4.550 -0.4018  0.1757  0.2720
80369SOL     OW59098  14.105  13.927  10.831  0.5536 -0.7760 -0.3220
80369SOL    HW159099  14.131  13.977  10.754  1.0369 -0.8570 -0.2161
80369SOL    HW259100  14.177  13.939  10.893 -0.2475  0.0266  0.4645
80370SOL     OW59101  11.806  11.222   9.510  0.0728 -0.2671 -0.1963
80370SOL    HW159102  11.714  11.241   9.493 -0.3627 -1.9947  0.0137
80370SOL    HW259103  11.832  11.166   9.437  0.9889  0.2588 -0.2893
80371SOL     OW59104   6.386  11.606   3.161 -0.4026 -0.1044  0.4670
80371SOL    HW159105   6.290  11.604   3.160 -0.5134  2.1997  0.0211
80371SOL    HW259106   6.408  11.660   3.237  0.5530 -0.7432  0.6529
80372SOL     OW59107   8.771  10.518   7.195 -0.2579 -0.4262 -0.5912
80372SOL    HW159108   8.765  10.423   7.196 -1.4801 -0.4199 -2.7499
80372SOL    HW259109   8.812  10.539   7.111  1.4702  0.9284  0.5197
80373SOL     OW59110   9.773   0.453   9.867  0.2903 -0.4843 -0.3920
80373SOL    HW159111   9.783   0.362   9.841  0.6276 -0.2824 -0.9748
80373SOL    HW259112   9.697   0.453   9.925  0.5370 -1.1976 -0.0592
80374SOL     OW59113   3.026   1.023   6.772 -0.1983  0.2012 -0.2906
80374SOL    HW159114   2.947   1.074   6.750  0.0219 -0.4363 -3.0166
80374SOL    HW259115   3.044   1.044   6.863 -2.3068  2.0134 -0.2002
80375SOL     OW59116  13.228   9.866   2.299  0.5249 -0.0736  0.1688
80375SOL    HW159117  13.291   9.914   2.353  1.9214 -0.1464 -1.3445
80375SOL    HW259118  13.255   9.883   2.209 -2.3646  0.8976 -0.6220
80376SOL     OW59119   9.632   0.540   2.076  0.3489 -0.1671 -0.1384
80376SOL    HW159120   9.547   0.539   2.031  0.3350 -1.7793 -0.1338
80376SOL    HW259121   9.688   0.483   2.023  1.5019  1.0029 -0.2334
80377SOL     OW59122  13.567   2.171  13.814 -0.4568 -0.1478  0.0547
80377SOL    HW159123  13.518   2.089  13.821 -0.0007 -0.4111  0.1697
80377SOL    HW259124  13.504   2.239  13.839 -0.1093 -0.6664  2.5470
80378SOL     OW59125   9.226   3.386   7.779 -0.4924 -0.0844  0.1789
80378SOL    HW159126   9.200   3.460   7.834 -0.9403  0.9383 -1.3187
80378SOL    HW259127   9.237   3.313   7.839 -3.0667  0.4116  1.3754
80379SOL     OW59128   7.111   4.897  10.798  0.2102 -0.3540  0.6543
80379SOL    HW159129   7.124   4.828  10.863  1.6664  0.1689  0.9674
80379SOL    HW259130   7.083   4.973  10.849 -1.3944 -0.6868  0.3095
80380SOL     OW59131  11.805  11.439   2.281  0.4056  0.1618 -0.1074
80380SOL    HW159132  11.724  11.461   2.327  0.4904  0.7610 -0.2428
80380SOL    HW259133  11.873  11.488   2.328  0.5649  0.3588 -0.5398
80381SOL     OW59134   4.548   6.583   0.039  0.0733  0.1395 -0.0956
80381SOL    HW159135   4.548   6.492   0.010  0.8969  0.4005 -0.9254
80381SOL    HW259136   4.518   6.578   0.130 -0.7432 -0.8655 -0.3994
80382SOL     OW59137  12.520   9.300  10.310  0.0364 -0.0884  0.4270
80382SOL    HW159138  12.611   9.303  10.339  0.7117 -3.7450 -0.7038
80382SOL    HW259139  12.474   9.255  10.381 -0.3615 -0.3172  0.0327
80383SOL     OW59140   1.686   0.096   5.191 -0.2750 -0.1196 -0.1675
80383SOL    HW159141   1.780   0.111   5.192 -0.3987  0.6647  0.1391
80383SOL    HW259142   1.651   0.158   5.255 -0.8113 -1.7671  1.2310
80384SOL     OW59143  10.840  11.293   3.093  0.1587 -0.1481  0.3685
80384SOL    HW159144  10.935  11.283   3.086 -0.0969 -2.0016 -2.0513
80384SOL    HW259145  10.814  11.227   3.158  0.3334 -1.7504 -1.1094
80385SOL     OW59146   3.365   2.021  11.432  0.5321 -0.2385 -0.4745
80385SOL    HW159147   3.270   2.037  11.436  0.8834  2.3465  2.6664
80385SOL    HW259148   3.374   1.927  11.448 -1.5464 -0.0649  2.7393
80386SOL     OW59149   5.596   7.828   7.677 -0.3084 -0.5931 -0.1392
80386SOL    HW159150   5.541   7.751   7.692  0.6183 -1.1269  0.6277
80386SOL    HW259151   5.614   7.862   7.764 -0.3577  0.2517 -0.4530
80387SOL     OW59152   6.527   9.486  11.259  0.7128  0.0339  0.2942
80387SOL    HW159153   6.574   9.556  11.215  1.1312 -0.1590  0.4294
80387SOL    HW259154   6.568   9.480  11.345  0.7447 -0.4430  0.2473
80388SOL     OW59155  12.242   7.985   5.761  0.0289 -0.4481 -0.3153
80388SOL    HW159156  12.234   8.080   5.766 -2.0680 -0.4809 -1.8859
80388SOL    HW259157  12.202   7.954   5.842  0.3660 -0.0158  0.0231
80389SOL     OW59158   3.006  12.339   9.066  0.3813 -0.1924  0.0268
80389SOL    HW159159   2.912  12.335   9.088  0.3792  0.3193  0.1428
80389SOL    HW259160   3.047  12.370   9.147  0.2639  2.6284 -0.8748
80390SOL     OW59161   1.427   9.328  11.596  0.5234 -0.6212 -0.4009
80390SOL    HW159162   1.380   9.266  11.540 -0.8125 -0.0945  0.0993
80390SOL    HW259163   1.396   9.310  11.684  2.3690 -1.2149  0.1724
80391SOL     OW59164  11.848   7.349   3.794 -0.8841  0.0172 -0.4191
80391SOL    HW159165  11.888   7.373   3.710  1.2875 -0.9707  0.2584
80391SOL    HW259166  11.859   7.427   3.849  1.2520 -0.6018  0.1077
80392SOL     OW59167   4.535   4.816   3.645 -0.4308  0.2217 -0.2000
80392SOL    HW159168   4.590   4.811   3.567 -0.0785  3.0230 -0.2200
80392SOL    HW259169   4.472   4.885   3.626 -0.1800  1.1515  2.0338
80393SOL     OW59170  11.085   8.996   3.679  0.2828 -0.3496  0.3902
80393SOL    HW159171  11.075   8.942   3.757  0.5380 -1.6019 -0.4223
80393SOL    HW259172  11.072   8.936   3.606 -0.3598  0.8829 -0.5424
80394SOL     OW59173   1.719   5.922   8.711  0.0323 -0.3102  0.0075
80394SOL    HW159174   1.798   5.896   8.663  1.3788  1.6288  1.0487
80394SOL    HW259175   1.689   5.842   8.753  0.1621 -1.5600 -2.0968
80395SOL     OW59176   9.943   6.043  11.589  0.1342  0.3734 -0.0417
80395SOL    HW159177   9.942   6.025  11.496  0.7885 -0.6780  0.1403
80395SOL    HW259178   9.972   6.134  11.596  0.7511  0.2420 -0.8348
80396SOL     OW59179   3.682   1.964   3.305 -0.1384 -0.0497  0.4862
80396SOL    HW159180   3.763   1.974   3.354  1.2942 -1.5723 -1.4052
80396SOL    HW259181   3.675   2.043   3.252  0.9814 -0.5739 -0.4808
80397SOL     OW59182   2.043   3.947  10.948 -0.6231 -0.0089 -0.1870
80397SOL    HW159183   1.985   3.875  10.924 -0.3090 -0.9776  1.7814
80397SOL    HW259184   2.098   3.912  11.018  2.0394  1.0179 -1.5969
80398SOL     OW59185  13.630   9.442  10.699 -0.4631  0.0850 -0.3862
80398SOL    HW159186  13.678   9.410  10.775 -1.2610 -1.3332 -0.4432
80398SOL    HW259187  13.545   9.398  10.703 -0.0273 -1.1685 -2.8355
80399SOL     OW59188   9.560   8.894   7.361  0.2538 -0.1203 -0.3344
80399SOL    HW159189   9.574   8.869   7.270 -1.2343 -1.3337 -0.2564
80399SOL    HW259190   9.487   8.956   7.358 -0.1915 -0.6287  0.0980
80400SOL     OW59191  12.605   6.579   0.284 -0.0503 -0.3822  0.3734
80400SOL    HW159192  12.664   6.504   0.285  1.7283  0.8974  2.9214
80400SOL    HW259193  12.645   6.641   0.223  1.2411  0.3871  1.9195
80401SOL     OW59194  11.327   2.011   5.751  0.0512  0.1345  0.0732
80401SOL    HW159195  11.251   2.015   5.693 -1.2278 -0.0637  1.6610
80401SOL    HW259196  11.319   1.926   5.795  1.0087  0.2518  0.5028
80402SOL     OW59197   2.530  11.013   2.586 -0.4707  0.2186  0.2177
80402SOL    HW159198   2.574  10.936   2.622  1.8639  1.7421  0.8296
80402SOL    HW259199   2.480  11.049   2.659 -0.6695 -0.0959  0.2370
80403SOL     OW59200  12.589  12.756  11.446 -0.0173 -0.3270 -0.2323
80403SOL    HW159201  12.639  12.700  11.505  0.4826  0.9003  0.5655
80403SOL    HW259202  12.539  12.696  11.392  0.3170 -1.5234  0.7407
80404SOL     OW59203   3.547  10.544   2.928  0.3443 -0.1855 -0.2450
80404SOL    HW159204   3.502  10.549   3.012 -0.0758 -1.2336 -0.4017
80404SOL    HW259205   3.624  10.490   2.945 -1.1312 -2.7210 -1.0861
80405SOL     OW59206   6.518   6.880  12.793  0.1051  0.3261  0.0836
80405SOL    HW159207   6.491   6.794  12.759  2.4869 -0.2094 -0.6304
80405SOL    HW259208   6.506   6.873  12.887 -0.4492 -0.5119 -0.0361
80406SOL     OW59209   3.700   8.420   8.832 -0.0503  0.0906 -0.5935
80406SOL    HW159210   3.745   8.504   8.829 -0.1156  0.1637  0.1777
80406SOL    HW259211   3.765   8.359   8.867 -0.7324  0.3540  1.2548
80407SOL     OW59212  10.785   0.628   0.438  0.4761 -0.0817  0.1837
80407SOL    HW159213  10.823   0.709   0.404 -0.1468  0.0395 -0.2369
80407SOL    HW259214  10.783   0.640   0.532  2.5471 -0.5604  0.3276
80408SOL     OW59215   4.422   5.760  13.874  0.4787  0.3708  0.0833
80408SOL    HW159216   4.359   5.796  13.812  1.9129  1.7481 -0.6468
80408SOL    HW259217   4.378   5.684  13.912 -0.7767  0.0072 -1.9676
80409SOL     OW59218   1.982   1.562   1.817 -0.5709  0.7302 -0.3888
80409SOL    HW159219   2.028   1.635   1.857  0.9739  0.8784 -2.3241
80409SOL    HW259220   2.009   1.486   1.868  0.4373  1.0721 -0.3960
80410SOL     OW59221   4.030   3.874   1.555 -0.0091 -0.6976 -0.1714
80410SOL    HW159222   4.123   3.876   1.577  0.2508 -2.5439 -0.8463
80410SOL    HW259223   4.023   3.928   1.476  0.7944 -1.6683 -0.9487
80411SOL     OW59224  12.302   4.300  12.434 -0.5969  0.1117  0.4174
80411SOL    HW159225  12.326   4.247  12.510 -1.8016 -0.8700  0.1288
80411SOL    HW259226  12.376   4.292  12.375  0.5244  1.1780  1.6059
80412SOL     OW59227   4.470   9.383   5.711  0.0142 -0.1739 -0.2014
80412SOL    HW159228   4.494   9.428   5.630 -0.5126 -2.3617 -1.6530
80412SOL    HW259229   4.413   9.445   5.757  1.2485  1.5615 -0.9099
80413SOL     OW59230   3.504   2.194  12.089 -0.1511 -0.2970 -0.3331
80413SOL    HW159231   3.467   2.212  12.175 -1.0415  0.2775 -0.8167
80413SOL    HW259232   3.481   2.103  12.071  1.1129 -0.8135  0.5402
80414SOL     OW59233   4.262   3.738   4.043  0.4094 -0.0490  0.3383
80414SOL    HW159234   4.313   3.680   3.987 -0.1201 -0.4079  0.2272
80414SOL    HW259235   4.227   3.681   4.112  1.4085  0.4539  1.2965
80415SOL     OW59236   4.150   2.769  10.136  0.2648 -0.1026 -0.4011
80415SOL    HW159237   4.164   2.733  10.223  1.0793 -0.3929 -0.6431
80415SOL    HW259238   4.107   2.698  10.088 -0.7758  0.2825 -0.0657
80416SOL     OW59239   6.811   6.559  10.670 -0.3048 -0.3721 -0.2116
80416SOL    HW159240   6.843   6.482  10.623  0.8743  1.1819 -2.1601
80416SOL    HW259241   6.889   6.613  10.683 -1.0826  0.4818  1.1568
80417SOL     OW59242  10.543  10.200   7.158  0.0179  0.7210 -0.0651
80417SOL    HW159243  10.503  10.226   7.075  1.5283  1.3376 -0.6515
80417SOL    HW259244  10.627  10.247   7.159 -0.2674  1.3041  2.1488
80418SOL     OW59245   2.240  10.111   7.494 -0.6348  0.8700 -0.0183
80418SOL    HW159246   2.308  10.174   7.521 -0.0677  0.6650 -0.9332
80418SOL    HW259247   2.288  10.043   7.447 -0.9846 -1.2289  2.4661
80419SOL     OW59248   0.244   4.281   8.811 -0.0915 -0.1305 -0.1792
80419SOL    HW159249   0.322   4.300   8.863  0.1301 -1.5287  0.0248
80419SOL    HW259250   0.181   4.246   8.873 -0.0284 -1.2595 -0.7143
80420SOL     OW59251   6.101  10.675   3.737  0.3413  0.0167 -0.7059
80420SOL    HW159252   6.178  10.629   3.770  2.0079  0.9834 -2.9802
80420SOL    HW259253   6.071  10.727   3.812  0.6548 -1.8491  0.7942
80421SOL     OW59254   5.560   6.515  13.612  0.1298 -0.4070 -0.2967
80421SOL    HW159255   5.548   6.421  13.624 -0.0304 -0.3997 -0.3896
80421SOL    HW259256   5.495   6.539  13.546  0.3421 -0.2780 -0.4632
80422SOL     OW59257   4.732   0.649  13.751  0.1077 -0.2657 -0.7077
80422SOL    HW159258   4.828   0.651  13.758  0.1652  2.4693 -1.1855
80422SOL    HW259259   4.704   0.604  13.831  1.7171  2.5230  1.6217
80423SOL     OW59260  10.714   9.464   3.289 -0.4015  0.2148 -0.3661
80423SOL    HW159261  10.739   9.396   3.225  2.4923  0.0017  0.8004
80423SOL    HW259262  10.706   9.544   3.237  1.6091 -0.0072 -1.1135
80424SOL     OW59263  12.169   6.616  10.272  0.5058  0.5140  0.2447
80424SOL    HW159264  12.121   6.676  10.216 -1.0918 -0.2666  0.7098
80424SOL    HW259265  12.102   6.571  10.323  1.7424 -0.5624  1.0150
80425SOL     OW59266   0.335  13.151   9.869 -0.3692  0.0525  0.2274
80425SOL    HW159267   0.344  13.173   9.777  0.2527  0.2180  0.3221
80425SOL    HW259268   0.273  13.215   9.904  0.2643  0.7088  0.1671
80426SOL     OW59269   7.288  10.835   0.827  0.1271  0.3852  0.2421
80426SOL    HW159270   7.274  10.797   0.740  1.3772  0.7359 -0.1219
80426SOL    HW259271   7.213  10.893   0.839 -0.3614 -0.1050 -0.3505
80427SOL     OW59272   8.248  10.303   4.530 -0.4054  0.6007 -0.0415
80427SOL    HW159273   8.251  10.263   4.616 -1.2834  0.2712 -0.1493
80427SOL    HW259274   8.204  10.387   4.544  1.0583  1.3655  0.1165
80428SOL     OW59275   3.736   8.104  12.708 -0.1130  0.2573  0.0102
80428SOL    HW159276   3.671   8.152  12.759 -0.2643  1.4601 -1.2357
80428SOL    HW259277   3.763   8.166  12.640  0.5566 -1.0413 -0.9564
80429SOL     OW59278   0.380  13.938   0.591 -0.7325  0.4327  0.0059
80429SOL    HW159279   0.404  13.853   0.553 -0.3104  1.2495 -1.6415
80429SOL    HW259280   0.295  13.959   0.552 -1.5238  0.1440  1.5042
80430SOL     OW59281   7.779   0.338  10.696 -0.0122  0.0429  0.4683
80430SOL    HW159282   7.858   0.285  10.684  0.9548  0.6770  3.3832
80430SOL    HW259283   7.709   0.273  10.706  0.6181 -0.6167  0.7372
80431SOL     OW59284   8.448  14.136  12.934 -0.2594 -0.0384  0.0451
80431SOL    HW159285   8.540  14.157  12.916 -0.2280 -0.6853 -0.5922
80431SOL    HW259286   8.406  14.221  12.947  0.4029  0.2678  0.2025
80432SOL     OW59287   1.425  13.773   3.293 -0.2522 -0.1576  0.0977
80432SOL    HW159288   1.438  13.694   3.345 -0.8881  0.2680  0.9291
80432SOL    HW259289   1.379  13.743   3.214  0.8664 -0.8315 -0.3235
80433SOL     OW59290  14.124   7.344   4.712  0.5225  0.1498 -0.4592
80433SOL    HW159291  14.082   7.410   4.768 -0.1033 -0.9282  0.3727
80433SOL    HW259292  14.203   7.318   4.760  0.9019  0.4636 -0.9054
80434SOL     OW59293  11.148  10.161   7.901 -0.2482 -0.3424 -0.2458
80434SOL    HW159294  11.240  10.136   7.897 -0.0475  0.1443  0.9473
80434SOL    HW259295  11.150  10.255   7.918 -0.9812 -0.0370 -1.6640
80435SOL     OW59296  12.714   4.643   1.253  0.1426  0.3103  0.5571
80435SOL    HW159297  12.695   4.645   1.347 -0.3699  0.8477  0.4452
80435SOL    HW259298  12.633   4.614   1.212  0.9429 -1.9621  0.4030
80436SOL     OW59299   5.757   0.851   0.981 -0.5833 -0.0937 -0.3627
80436SOL    HW159300   5.772   0.886   1.069 -0.5482  1.0228 -0.7978
80436SOL    HW259301   5.683   0.791   0.992 -1.2315  0.7921  0.2585
80437SOL     OW59302   2.425   9.654   2.497 -0.0983 -0.7230 -0.2511
80437SOL    HW159303   2.394   9.619   2.581 -0.7392  0.2526 -0.0610
80437SOL    HW259304   2.354   9.711   2.467  0.4075 -0.5335 -1.1297
80438SOL     OW59305  12.220   0.924   2.335  0.3546 -0.2767 -0.4057
80438SOL    HW159306  12.157   0.990   2.365  0.7126  1.4977 -3.1545
80438SOL    HW259307  12.283   0.917   2.407 -1.2820  0.2032  1.1352
80439SOL     OW59308   3.143  10.426  11.705  0.2723 -0.1112 -0.6768
80439SOL    HW159309   3.055  10.391  11.718  0.4376 -0.3182 -0.1163
80439SOL    HW259310   3.184  10.365  11.643  1.5574 -2.6836  2.4528
80440SOL     OW59311  10.059   8.575   0.313 -0.3009  0.3425  0.0274
80440SOL    HW159312  10.137   8.526   0.289 -0.4366 -0.2701  0.7940
80440SOL    HW259313  10.091   8.648   0.366 -0.1127  1.0141 -0.9885
80441SOL     OW59314   2.289   5.067  13.342 -0.0427 -0.3893 -0.3119
80441SOL    HW159315   2.368   5.121  13.352  0.8304 -1.7221  0.3800
80441SOL    HW259316   2.261   5.083  13.252  0.8856  0.2975 -0.5045
80442SOL     OW59317   6.352   7.769   4.406  0.0397 -0.5189  0.2219
80442SOL    HW159318   6.350   7.675   4.428 -1.5911 -0.8054 -0.9547
80442SOL    HW259319   6.330   7.772   4.313 -0.2171  1.0587  0.3120
80443SOL     OW59320  13.291  11.046   5.543 -0.2445 -0.3203  0.4851
80443SOL    HW159321  13.379  11.016   5.523 -1.2689 -3.7497  0.3678
80443SOL    HW259322  13.295  11.141   5.534  2.9271 -0.4802 -1.4358
80444SOL     OW59323   4.982   5.009  13.201  0.3686  0.4056  0.5767
80444SOL    HW159324   4.983   5.095  13.243  0.4342  0.5426  0.3030
80444SOL    HW259325   4.903   5.009  13.147 -1.3327 -0.8683  2.8968
80445SOL     OW59326   0.758   2.019  13.983 -0.7410  0.1292 -0.1758
80445SOL    HW159327   0.827   2.038  14.047 -0.3433 -0.0439 -0.5427
80445SOL    HW259328   0.767   2.088  13.918  1.1559 -1.5567 -1.8800
80446SOL     OW59329   8.369   4.349   3.822  0.4039  0.5543  0.0243
80446SOL    HW159330   8.316   4.270   3.834  0.7207  0.2517 -0.5062
80446SOL    HW259331   8.330   4.413   3.881 -0.0791  0.1094  0.2029
80447SOL     OW59332   7.560   4.505  11.147  0.1805 -0.5533 -0.0727
80447SOL    HW159333   7.541   4.568  11.079  1.5345 -0.9410 -0.8436
80447SOL    HW259334   7.526   4.545  11.227  1.9789  1.7012 -0.3257
80448SOL     OW59335   1.986   2.034   1.356 -0.0764  0.2263  0.5021
80448SOL    HW159336   1.962   2.057   1.267 -0.2472 -1.1490  0.1800
80448SOL    HW259337   1.965   1.941   1.364  0.2952  0.2373  1.8508
80449SOL     OW59338   9.680   4.400  12.037 -0.2802 -0.2715 -0.6432
80449SOL    HW159339   9.656   4.406  12.129 -0.2946 -1.1878 -0.5852
80449SOL    HW259340   9.773   4.378  12.037 -0.1400  0.2886 -0.8595
80450SOL     OW59341   4.525   9.595   0.904  0.2512  0.4144  0.1651
80450SOL    HW159342   4.467   9.525   0.873  1.9491  0.3326 -3.2858
80450SOL    HW259343   4.481   9.676   0.880  0.5029  0.4155 -0.2880
80451SOL     OW59344  11.541   5.810   2.463  0.1006  0.2093 -0.4284
80451SOL    HW159345  11.477   5.828   2.394  0.1000  1.7371 -0.0527
80451SOL    HW259346  11.492   5.757   2.527 -0.3365  0.0676 -0.8730
80452SOL     OW59347   2.842  11.851   4.912 -0.0776  0.2939  0.0175
80452SOL    HW159348   2.886  11.874   4.830 -0.5180  0.9454 -0.0402
80452SOL    HW259349   2.828  11.756   4.905 -0.0173  0.3226 -0.6148
80453SOL     OW59350   0.868   8.035   0.484  0.3482 -0.4864 -0.1282
80453SOL    HW159351   0.865   7.952   0.532 -0.0300  0.4538  1.5704
80453SOL    HW259352   0.930   8.020   0.413  0.9321 -1.9662  0.6521
80454SOL     OW59353   6.005   6.158   6.111 -0.3322 -0.0375 -0.5855
80454SOL    HW159354   6.049   6.108   6.042  1.7891 -0.8656  1.2515
80454SOL    HW259355   6.070   6.222   6.140 -1.6593  1.2103 -0.2445
80455SOL     OW59356   0.576  14.047   8.254  0.1928 -0.0204 -0.5593
80455SOL    HW159357   0.607  13.957   8.256  0.0992 -0.0805 -1.5216
80455SOL    HW259358   0.653  14.100   8.277 -0.2039 -0.4235  1.9278
80456SOL     OW59359   4.102   6.883   6.976 -0.0353 -0.8596 -0.7768
80456SOL    HW159360   4.042   6.810   6.990  1.8266 -2.2386  0.5151
80456SOL    HW259361   4.163   6.851   6.909 -0.4472  0.3566 -1.7719
80457SOL     OW59362   6.488  11.850  10.507  0.0797 -0.0553 -0.5185
80457SOL    HW159363   6.418  11.898  10.551  0.0350  0.6585 -1.3424
80457SOL    HW259364   6.487  11.763  10.547  0.7762  0.8785  1.6991
80458SOL     OW59365  10.147   5.796  12.086 -0.0466 -0.3899 -0.7146
80458SOL    HW159366  10.162   5.775  11.994 -0.2173 -0.6204 -0.6892
80458SOL    HW259367  10.234   5.815  12.120 -0.1229  1.1381 -1.2714
80459SOL     OW59368  14.005  14.140   2.008 -0.3634  0.8468 -0.4895
80459SOL    HW159369  14.039  14.059   1.971  0.6929  2.0132 -2.2744
80459SOL    HW259370  13.911  14.137   1.990 -0.6693 -0.7591  1.1385
80460SOL     OW59371  10.358  11.117   9.948 -0.3215  0.5541  0.0534
80460SOL    HW159372  10.308  11.086   9.872  0.2585  1.4312 -0.7003
80460SOL    HW259373  10.448  11.123   9.917 -0.1963  1.6652  0.5851
80461SOL     OW59374  13.126   4.681   6.749 -0.0343  0.1724  0.5761
80461SOL    HW159375  13.202   4.732   6.779  0.7528  0.1036 -1.1369
80461SOL    HW259376  13.127   4.602   6.803  2.1189 -0.5730 -0.4423
80462SOL     OW59377   2.844   4.773   9.410  0.4931  0.3667  0.4272
80462SOL    HW159378   2.756   4.803   9.432  0.5447  1.2906 -0.5779
80462SOL    HW259379   2.898   4.803   9.483  0.1683  0.7909  0.4976
80463SOL     OW59380   1.967   5.262  14.036 -0.2072  0.5506 -0.2426
80463SOL    HW159381   2.027   5.291  13.967  2.3785 -1.5693  0.9073
80463SOL    HW259382   1.983   5.168  14.044 -2.4726  0.2150  1.3848
80464SOL     OW59383  10.550  13.379  13.938  0.1562  0.4110  0.4015
80464SOL    HW159384  10.520  13.297  13.899  1.3685 -0.4453  1.1758
80464SOL    HW259385  10.539  13.366  14.032  1.7230  0.5219  0.6319
80465SOL     OW59386   0.971  11.287  11.838 -0.0142  0.7564  0.3901
80465SOL    HW159387   0.941  11.374  11.864  1.2204  1.1626  0.5223
80465SOL    HW259388   0.968  11.236  11.919  2.1391  1.5357  1.0312
80466SOL     OW59389   8.531   3.533   2.244  0.3161  0.1290  0.5652
80466SOL    HW159390   8.608   3.553   2.298 -0.1516  0.8552  0.9818
80466SOL    HW259391   8.553   3.569   2.158  1.0729 -1.0502  0.2305
80467SOL     OW59392   3.263   5.166  13.304 -0.2592  0.0345 -0.3160
80467SOL    HW159393   3.317   5.169  13.383 -0.6617  0.4091 -0.0495
80467SOL    HW259394   3.315   5.117  13.241  0.4118  0.4334 -0.0798
80468SOL     OW59395  12.911  13.243   5.664 -0.2437 -0.1604 -0.3216
80468SOL    HW159396  12.961  13.179   5.613  1.8175  1.0475  0.0636
80468SOL    HW259397  12.862  13.191   5.727  0.1604 -1.4434 -1.0298
80469SOL     OW59398   1.427   3.127   2.014 -0.0055  0.6677 -0.1872
80469SOL    HW159399   1.506   3.156   1.968 -1.3717  2.0389 -1.7882
80469SOL    HW259400   1.416   3.035   1.988  1.0004  0.4826  0.0029
80470SOL     OW59401   9.692   0.717   1.683  0.6184 -0.0600 -0.0469
80470SOL    HW159402   9.746   0.694   1.607 -1.1875 -0.8226 -1.1738
80470SOL    HW259403   9.704   0.811   1.693  1.5292 -0.0757 -0.7498
80471SOL     OW59404   0.123   8.923   0.834 -0.3304  0.6077  0.5165
80471SOL    HW159405   0.115   8.942   0.927 -0.2089  1.1419  0.4181
80471SOL    HW259406   0.035   8.897   0.807 -0.4483  0.8201  0.6977
80472SOL     OW59407  10.423   6.145  12.437 -0.0684  0.5203  0.0933
80472SOL    HW159408  10.492   6.088  12.404 -1.8660 -0.8163 -1.6114
80472SOL    HW259409  10.396   6.196  12.360 -1.1613  0.8056  0.6461
80473SOL     OW59410  10.825   9.785   6.033  0.0060 -0.1490  0.4940
80473SOL    HW159411  10.815   9.695   6.061  1.1885 -0.1663  0.9162
80473SOL    HW259412  10.919   9.801   6.034 -0.1055  0.7580 -0.6305
80474SOL     OW59413  13.009   6.168   4.842  0.6279 -0.0781 -0.3283
80474SOL    HW159414  12.931   6.135   4.798  0.8740  1.6032 -2.1511
80474SOL    HW259415  12.975   6.229   4.908  0.3729  0.6501 -1.1171
80475SOL     OW59416   9.199   7.998   1.518  0.0384 -0.1126  0.6116
80475SOL    HW159417   9.181   8.085   1.482 -0.0117 -0.3663  0.0143
80475SOL    HW259418   9.114   7.967   1.548  0.1673  0.3093  1.4269
80476SOL     OW59419   9.049  13.836  10.633 -0.1216  0.0739  0.6079
80476SOL    HW159420   8.956  13.834  10.613 -0.2225 -0.7028  1.0870
80476SOL    HW259421   9.069  13.747  10.661  0.2134  0.8069  2.8986
80477SOL     OW59422  11.068   6.213   7.703 -0.4075 -0.1759 -0.1208
80477SOL    HW159423  11.068   6.283   7.770  1.7225  1.3271 -1.5329
80477SOL    HW259424  10.997   6.236   7.644 -0.7643 -0.1612  0.3031
80478SOL     OW59425   5.331   5.783  11.155 -0.1971  0.4749  0.0453
80478SOL    HW159426   5.348   5.862  11.104  3.0819  0.5103  0.9876
80478SOL    HW259427   5.251   5.802  11.203  0.0401  2.8824 -0.4015
80479SOL     OW59428   2.640   9.479   6.966 -0.0306 -1.1000  0.2344
80479SOL    HW159429   2.570   9.534   6.931 -0.0294 -1.0918  0.2444
80479SOL    HW259430   2.603   9.391   6.970  0.5543 -1.4891 -1.5997
80480SOL     OW59431  11.053   5.297   3.543  0.0171  0.4759 -0.5884
80480SOL    HW159432  11.021   5.318   3.630 -0.6200 -1.5219 -0.2823
80480SOL    HW259433  11.042   5.202   3.536  0.7738  0.4878 -2.5577
80481SOL     OW59434   9.334   3.603   8.833 -0.0111  0.1107  0.5284
80481SOL    HW159435   9.337   3.593   8.738  0.3959  1.8911  0.3168
80481SOL    HW259436   9.414   3.560   8.864  0.0880 -0.0751  0.0231
80482SOL     OW59437   3.856   3.122   7.796  0.3074 -0.2104 -0.2556
80482SOL    HW159438   3.943   3.109   7.835  0.3340 -1.8598 -0.7877
80482SOL    HW259439   3.832   3.036   7.762 -0.7355  0.6364 -1.7879
80483SOL     OW59440   9.528   8.396   7.464 -0.2844  0.2406 -0.1274
80483SOL    HW159441   9.503   8.479   7.505  1.9178  1.3897 -0.9278
80483SOL    HW259442   9.491   8.401   7.376 -0.3207  0.2946 -0.1099
80484SOL     OW59443  11.625  12.120   2.525 -0.2463 -0.5749 -0.0055
80484SOL    HW159444  11.541  12.160   2.550 -0.4298  0.3388 -1.9281
80484SOL    HW259445  11.686  12.148   2.593 -1.2456 -0.3445  0.8334
80485SOL     OW59446   5.512   0.400   1.353 -0.4509 -0.1361 -0.1417
80485SOL    HW159447   5.437   0.381   1.296 -0.4064  1.8740 -0.9362
80485SOL    HW259448   5.572   0.327   1.337 -1.3192 -0.6778 -1.1124
80486SOL     OW59449  12.857   8.368   2.521  0.6633  0.0804  0.2084
80486SOL    HW159450  12.950   8.352   2.538  0.8343  1.3041  0.5021
80486SOL    HW259451  12.813   8.348   2.604  0.5418 -1.2941 -0.1640
80487SOL     OW59452   3.124   8.061   1.027  0.0824  0.0149 -0.0150
80487SOL    HW159453   3.093   8.115   0.954 -0.1694  0.9066  0.7353
80487SOL    HW259454   3.066   7.984   1.026 -0.4100  0.3844 -0.2846
80488SOL     OW59455   6.788  12.917   8.825 -0.6130 -0.6641  0.2512
80488SOL    HW159456   6.804  12.996   8.774 -0.6579  0.2138  1.5285
80488SOL    HW259457   6.707  12.881   8.790 -0.4780 -0.2596 -0.4933
80489SOL     OW59458  12.342   9.409   7.988 -0.8435 -0.2232 -0.1198
80489SOL    HW159459  12.388   9.466   7.926 -0.7019  0.9504  1.0249
80489SOL    HW259460  12.259   9.389   7.944 -0.1745 -0.5663 -1.2649
80490SOL     OW59461   7.818   8.437   0.674 -0.5275 -0.1031 -0.6756
80490SOL    HW159462   7.818   8.519   0.625  0.9878  0.3801  0.0686
80490SOL    HW259463   7.876   8.380   0.624 -0.2995 -0.1739 -0.3273
80491SOL     OW59464   8.092   9.698   4.662  0.5199  0.0477  0.1068
80491SOL    HW159465   8.088   9.658   4.748  1.5039 -3.7359 -1.4139
80491SOL    HW259466   8.038   9.641   4.607 -0.8754  2.8700 -1.6783
80492SOL     OW59467   0.625   1.668   3.754  0.5684 -0.3868 -0.2690
80492SOL    HW159468   0.691   1.665   3.684  1.1804  1.5894  0.1658
80492SOL    HW259469   0.542   1.654   3.710  0.7580  2.3986 -1.7521
80493SOL     OW59470  12.340  13.666   0.312  0.2776 -0.0685  0.4018
80493SOL    HW159471  12.374  13.745   0.269  1.7952 -1.2989 -0.7339
80493SOL    HW259472  12.380  13.594   0.265 -0.8373 -1.5443  1.6306
80494SOL     OW59473   8.485   4.294   9.105 -0.2543  0.1955  0.1152
80494SOL    HW159474   8.492   4.359   9.034 -1.2241  0.5509  0.3295
80494SOL    HW259475   8.570   4.250   9.105  0.6221  1.7805  0.2789
80495SOL     OW59476   7.376  13.451   1.422 -0.3960  0.0726  0.3604
80495SOL    HW159477   7.354  13.437   1.514 -2.5383  3.0176  0.4233
80495SOL    HW259478   7.469  13.470   1.422 -0.1558 -0.9411  1.7417
80496SOL     OW59479   4.535   4.144  12.632 -0.7004 -0.1475  0.2588
80496SOL    HW159480   4.574   4.057  12.636 -0.4814 -0.0008  1.9821
80496SOL    HW259481   4.442   4.128  12.615 -0.4788 -0.6545 -0.5096
80497SOL     OW59482   9.305  13.303   5.376  0.0150 -0.5635 -0.7590
80497SOL    HW159483   9.303  13.227   5.318 -0.0183  0.0711 -1.6241
80497SOL    HW259484   9.279  13.376   5.319  1.5154  0.3369 -0.3288
80498SOL     OW59485  10.814   0.569   2.323  0.4623 -0.3742 -0.2437
80498SOL    HW159486  10.759   0.498   2.290  0.4433 -1.0025  1.1000
80498SOL    HW259487  10.835   0.544   2.413  3.7587 -0.6500 -0.9609
80499SOL     OW59488  10.281   3.607  13.826 -0.0232 -0.3000  0.2947
80499SOL    HW159489  10.208   3.662  13.857 -0.0601  0.6831 -1.3985
80499SOL    HW259490  10.355   3.633  13.881 -0.3997  0.3990  0.4933
80500SOL     OW59491   0.948   8.951   8.352 -0.1723 -0.6285  0.0033
80500SOL    HW159492   1.016   8.989   8.296 -0.7097  0.4991  0.0914
80500SOL    HW259493   0.882   8.918   8.291 -1.5792  2.1006 -0.1136
80501SOL     OW59494   4.313  10.520   8.672  0.2087 -0.7446  0.5400
80501SOL    HW159495   4.259  10.594   8.644 -0.1482 -1.0534  0.4019
80501SOL    HW259496   4.403  10.551   8.662  0.0687  0.2454  2.0209
80502SOL     OW59497   4.862  11.971  11.816 -0.3724 -0.5103 -0.1432
80502SOL    HW159498   4.922  11.971  11.891 -0.3863  0.9833 -0.1144
80502SOL    HW259499   4.775  11.982  11.855 -0.2562  1.8984 -0.4110
80503SOL     OW59500   0.948   7.056   7.359 -0.2639  0.0186  0.4519
80503SOL    HW159501   0.891   6.983   7.384 -1.4406  0.7879  0.0798
80503SOL    HW259502   0.987   7.085   7.442 -0.5255 -0.4155  0.7353
80504SOL     OW59503  10.198  11.459   1.644 -0.6202 -0.1109 -0.4566
80504SOL    HW159504  10.281  11.413   1.657 -0.4048 -0.1585 -1.8452
80504SOL    HW259505  10.176  11.492   1.730  0.5986 -0.5140  0.0409
80505SOL     OW59506  11.135   1.169   5.755  0.0219 -0.1364  0.3300
80505SOL    HW159507  11.136   1.200   5.664 -2.0520  0.1075  0.3409
80505SOL    HW259508  11.093   1.240   5.804 -0.0826 -0.8163  1.2494
80506SOL     OW59509  10.738  14.050   5.577 -0.0132  0.1338  0.1080
80506SOL    HW159510  10.768  14.058   5.668 -1.1188  0.7768  0.4308
80506SOL    HW259511  10.645  14.028   5.584 -0.4408  1.4970 -0.8357
80507SOL     OW59512   6.048   5.854   5.059 -0.4686 -0.8717  0.2640
80507SOL    HW159513   6.097   5.863   5.141 -0.0715 -1.6067  0.1079
80507SOL    HW259514   6.111   5.876   4.991 -0.7531 -0.4360  0.1330
80508SOL     OW59515   7.029  10.737  10.307  0.0060 -0.2524  0.5284
80508SOL    HW159516   7.032  10.796  10.231  1.2974  0.9977  1.5029
80508SOL    HW259517   7.007  10.651  10.270  1.5182  0.1260 -1.3826
80509SOL     OW59518   1.194   0.026   9.710 -0.0233  0.0303  0.4356
80509SOL    HW159519   1.151   0.105   9.677 -1.7069 -0.9669  0.1673
80509SOL    HW259520   1.278   0.058   9.743 -0.2402  1.7852 -0.5428
80510SOL     OW59521   3.659   7.612  10.882  0.4423  0.5028  0.1539
80510SOL    HW159522   3.570   7.578  10.880  0.2238  0.8611  2.0141
80510SOL    HW259523   3.649   7.707  10.873  0.7753  0.4263 -1.2231
80511SOL     OW59524  13.448  10.761  10.837  0.4925  0.0701 -0.5650
80511SOL    HW159525  13.420  10.730  10.751 -0.0764  0.5805 -0.5755
80511SOL    HW259526  13.497  10.841  10.819 -1.3265  1.2989 -0.3161
80512SOL     OW59527   7.669  11.573  12.198  0.0138  0.1584  0.2733
80512SOL    HW159528   7.736  11.600  12.136  0.1117  1.4330  0.9090
80512SOL    HW259529   7.702  11.491  12.235  1.1667  0.6937  0.4766
80513SOL     OW59530   3.767   0.200  13.849 -0.0072 -0.5882  0.2154
80513SOL    HW159531   3.696   0.137  13.836 -0.5165  0.0577 -0.2051
80513SOL    HW259532   3.742   0.249  13.926  0.2004 -0.6427  0.3185
80514SOL     OW59533  12.869   5.544  11.754  0.7967  0.1179  0.1443
80514SOL    HW159534  12.788   5.592  11.737  0.8469 -0.4252 -1.8386
80514SOL    HW259535  12.937   5.595  11.710  1.3781 -0.0072  0.8759
80515SOL     OW59536   3.083  12.928   9.251  0.2820 -1.0825  0.3316
80515SOL    HW159537   3.033  13.009   9.260  4.2116  1.6062  0.2378
80515SOL    HW259538   3.098  12.920   9.156  1.0158 -1.1821  0.4534
80516SOL     OW59539   5.250   7.314  12.078 -0.4801 -0.0708 -0.5862
80516SOL    HW159540   5.313   7.248  12.048 -0.1057 -0.2896  0.5940
80516SOL    HW259541   5.232   7.368  12.001 -0.1896 -1.0769 -1.3792
80517SOL     OW59542   3.932   4.585   8.267  0.1880 -0.3592 -0.1423
80517SOL    HW159543   3.974   4.639   8.201 -1.2850  1.4862  0.3496
80517SOL    HW259544   3.965   4.618   8.351 -0.2374 -0.6520  0.1503
80518SOL     OW59545   9.887  12.829   7.906  0.0047 -0.1711 -0.3483
80518SOL    HW159546   9.844  12.906   7.942  0.2844  0.1887 -0.7712
80518SOL    HW259547   9.978  12.836   7.936  0.1410 -0.0868 -0.7737
80519SOL     OW59548   5.838   9.840   5.941  0.6566 -0.1797 -0.1845
80519SOL    HW159549   5.838   9.796   5.856  0.6486 -0.9492  0.2105
80519SOL    HW259550   5.931   9.848   5.964  0.6232 -0.9751  0.2450
80520SOL     OW59551  12.625  13.485  10.113  0.0327 -0.4202  0.2261
80520SOL    HW159552  12.558  13.478  10.180 -2.0822  0.9218 -1.6075
80520SOL    HW259553  12.692  13.542  10.152 -0.2310 -1.1353  1.7970
80521SOL     OW59554   8.341  12.110   4.945  0.2895 -0.5349  0.2505
80521SOL    HW159555   8.360  12.077   5.033 -3.1925  1.6465  2.0426
80521SOL    HW259556   8.257  12.072   4.922 -0.3038  1.2549 -0.7650
80522SOL     OW59557   9.029   9.868   5.642  0.7232 -0.0970  0.5952
80522SOL    HW159558   8.963   9.901   5.703  0.6023 -0.1523  0.4963
80522SOL    HW259559   8.988   9.791   5.602  1.4362 -1.0597  1.6613
80523SOL     OW59560   0.254   1.705   5.671  0.0947  0.6446  0.2470
80523SOL    HW159561   0.286   1.788   5.705 -0.1138  1.5639 -1.6631
80523SOL    HW259562   0.324   1.673   5.614 -0.8135  0.8301 -1.0322
80524SOL     OW59563   8.025   4.583  13.135 -0.1323  0.1404 -0.3869
80524SOL    HW159564   8.063   4.645  13.073  1.4262 -1.6809 -1.3413
80524SOL    HW259565   8.099   4.529  13.164 -1.3111 -0.8391  0.9364
80525SOL     OW59566   4.325  13.005   3.137 -0.3883 -0.5132 -0.1343
80525SOL    HW159567   4.295  13.007   3.228  1.5525  1.2027  0.5553
80525SOL    HW259568   4.253  13.044   3.088 -0.7555  0.2210  0.9428
80526SOL     OW59569   2.881   9.184   1.563  0.3441 -0.2785 -0.1055
80526SOL    HW159570   2.849   9.196   1.653  0.9056  2.0555 -0.1608
80526SOL    HW259571   2.943   9.256   1.550  1.1708 -1.2730 -1.9885
80527SOL     OW59572   0.941   6.852   8.572  0.1638  0.2273  0.0628
80527SOL    HW159573   1.024   6.811   8.596  0.4472  0.3538 -0.6708
80527SOL    HW259574   0.887   6.778   8.543 -0.0565  0.1187  0.7428
80528SOL     OW59575  10.668  13.941   9.736  0.0323 -0.2639  0.2317
80528SOL    HW159576  10.717  13.891   9.801 -0.2604 -0.1487  0.5482
80528SOL    HW259577  10.579  13.906   9.741 -0.2433  0.4639  0.6503
80529SOL     OW59578   9.065   8.557   6.237  0.3107 -0.3030  0.5542
80529SOL    HW159579   8.997   8.583   6.176 -0.5626 -3.0376  0.2150
80529SOL    HW259580   9.142   8.541   6.182  0.3726  0.0290  0.5467
80530SOL     OW59581   1.723   7.663   9.196 -0.3357  0.1734 -0.2325
80530SOL    HW159582   1.635   7.678   9.161 -0.5740  0.9056  0.6598
80530SOL    HW259583   1.729   7.720   9.272  1.2631  0.8742 -0.8351
80531SOL     OW59584   8.301  13.272  12.994 -0.1837 -0.0470 -0.6389
80531SOL    HW159585   8.346  13.245  13.074  0.5471 -0.4033 -1.1618
80531SOL    HW259586   8.245  13.197  12.972 -1.0097  0.3769 -0.0146
80532SOL     OW59587  12.729   7.927   2.483 -0.6313 -0.2837  0.2952
80532SOL    HW159588  12.768   7.989   2.545  1.8831 -0.4739 -0.9546
80532SOL    HW259589  12.692   7.983   2.415 -1.5849 -0.1132  0.9422
80533SOL     OW59590   7.284   9.143   6.332 -0.4130 -0.0539  0.0705
80533SOL    HW159591   7.283   9.221   6.277  0.6074 -1.1055 -1.5128
80533SOL    HW259592   7.368   9.148   6.378 -1.2104  0.7605  1.5086
80534SOL     OW59593   4.260   7.031   3.197 -0.0706  0.6870 -0.6550
80534SOL    HW159594   4.253   7.000   3.107 -0.2059 -0.4515 -0.2732
80534SOL    HW259595   4.334   6.982   3.233  0.2657  1.4606 -0.2714
80535SOL     OW59596   8.502  12.016  13.262 -0.2242  0.0782 -0.3390
80535SOL    HW159597   8.550  11.955  13.206 -2.2216 -1.1114 -0.8628
80535SOL    HW259598   8.478  11.964  13.339 -0.9930  0.5177 -0.2681
80536SOL     OW59599   6.765   7.220   1.654  0.0640 -0.5767  0.2946
80536SOL    HW159600   6.677   7.199   1.622 -0.4794 -1.2595  2.1436
80536SOL    HW259601   6.823   7.168   1.598 -0.9613 -2.9971  1.3360
80537SOL     OW59602   5.374  10.395   5.398 -0.0723 -0.0526 -0.3421
80537SOL    HW159603   5.347  10.359   5.483  0.3002 -2.8162 -1.3001
80537SOL    HW259604   5.307  10.364   5.337  0.2033  1.0686 -1.2375
80538SOL     OW59605   7.190   8.457  12.606  0.3545 -0.4274 -0.2231
80538SOL    HW159606   7.166   8.487  12.518  1.5862  1.3584 -0.0043
80538SOL    HW259607   7.278   8.422  12.596  0.1929 -0.9504  0.1549
80539SOL     OW59608   7.846   2.015   6.486 -0.0275  0.5506 -0.3181
80539SOL    HW159609   7.827   2.083   6.551 -1.0496  0.1573 -0.1834
80539SOL    HW259610   7.909   1.957   6.529 -2.0196 -0.7145  1.0743
80540SOL     OW59611  11.519   9.202   4.832  0.0416  0.3537  0.3034
80540SOL    HW159612  11.436   9.155   4.830  0.4121 -0.3134  0.5252
80540SOL    HW259613  11.534   9.220   4.925 -0.4557  1.5667  0.1748
80541SOL     OW59614   7.707  13.933   3.156 -0.2465  0.7716  0.0137
80541SOL    HW159615   7.769  13.891   3.215  1.2942  1.4679 -1.0302
80541SOL    HW259616   7.715  14.026   3.175 -1.7291  0.8235  0.5309
80542SOL     OW59617   2.233   9.260   6.860 -0.2521  0.4543 -0.1878
80542SOL    HW159618   2.223   9.298   6.947 -1.0664  4.0136 -1.6403
80542SOL    HW259619   2.162   9.196   6.852 -0.7425  0.7727  1.3949
80543SOL     OW59620  11.830   5.822   5.012 -0.0398 -0.5277  0.3543
80543SOL    HW159621  11.815   5.732   4.983 -0.3530 -0.4979  0.4203
80543SOL    HW259622  11.925   5.829   5.019  0.0289 -0.6312 -0.3511
80544SOL     OW59623   8.176   5.835   4.126 -0.0447  0.1311  0.2509
80544SOL    HW159624   8.267   5.863   4.125  0.5448 -1.6522  1.2360
80544SOL    HW259625   8.178   5.743   4.150 -1.9709 -0.5872 -1.9497
80545SOL     OW59626   9.513   8.461   3.940  0.0954  0.0166  0.0831
80545SOL    HW159627   9.543   8.462   4.031  2.6838  0.5795 -0.7159
80545SOL    HW259628   9.445   8.528   3.936  1.6068  1.6914  1.1141
80546SOL     OW59629  11.501   9.546  10.254  0.5099  0.4206  0.0957
80546SOL    HW159630  11.550   9.627  10.239  0.4454  0.6697  1.1190
80546SOL    HW259631  11.564   9.486  10.293  0.7568 -0.3163 -1.3661
80547SOL     OW59632  14.040   5.840   4.134  0.1038 -0.0369 -0.4917
80547SOL    HW159633  14.053   5.811   4.225 -1.1912  0.1163 -0.2320
80547SOL    HW259634  13.986   5.918   4.141 -0.6377 -0.4418 -1.4206
80548SOL     OW59635   6.604  11.832   1.006  0.1361 -0.4220  0.1698
80548SOL    HW159636   6.579  11.794   0.922  0.1360 -0.2863  0.1091
80548SOL    HW259637   6.593  11.760   1.069  0.7367 -0.7012 -0.0387
80549SOL     OW59638  13.205   7.633   4.466  0.5716  0.5572  0.0696
80549SOL    HW159639  13.286   7.676   4.438  1.1274 -0.7593 -0.4270
80549SOL    HW259640  13.137   7.669   4.410  1.2129 -0.0064 -1.0989
80550SOL     OW59641  13.679   1.222   2.815  0.3547  0.4445 -0.4418
80550SOL    HW159642  13.687   1.279   2.891 -0.7871 -1.0212  0.8643
80550SOL    HW259643  13.769   1.197   2.793  0.8896  2.8185 -1.1840
80551SOL     OW59644  11.868   2.035   7.228 -0.2290  0.0991  0.4016
80551SOL    HW159645  11.877   1.957   7.173  0.9655  1.9532 -2.2023
80551SOL    HW259646  11.789   2.078   7.196 -0.3157  0.5001  1.1362
80552SOL     OW59647   3.430  13.490   2.519 -0.7380 -0.2695 -0.5081
80552SOL    HW159648   3.524  13.472   2.518 -0.8340 -0.8074 -1.8534
80552SOL    HW259649   3.424  13.585   2.530 -0.0476 -0.2470 -0.2972
80553SOL     OW59650   8.763   4.247   3.953  0.3465 -0.0595 -0.1400
80553SOL    HW159651   8.841   4.289   3.990 -0.9547  0.3913  2.3028
80553SOL    HW259652   8.692   4.308   3.971 -1.2235 -2.1599  1.4362
80554SOL     OW59653   3.259   5.411  10.178  0.4092 -0.2287  0.2221
80554SOL    HW159654   3.270   5.478  10.246 -2.8428 -0.5385  1.2371
80554SOL    HW259655   3.260   5.461  10.096 -2.2792  1.2747  0.9646
80555SOL     OW59656   7.524   1.339   6.158  0.4728  0.6987  0.2795
80555SOL    HW159657   7.601   1.394   6.144  0.7158  0.9618  2.3370
80555SOL    HW259658   7.452   1.387   6.116  1.2745  0.8023 -1.0277
80556SOL     OW59659   4.824   5.092  12.672 -0.5064 -0.2593  0.0410
80556SOL    HW159660   4.888   5.064  12.737 -0.2682 -1.5879 -0.7122
80556SOL    HW259661   4.777   5.164  12.713  1.9849  1.3047  0.3222
80557SOL     OW59662   9.152   5.882   7.810  0.4151 -0.2366  0.0971
80557SOL    HW159663   9.103   5.936   7.871 -0.3224 -0.1828 -0.5437
80557SOL    HW259664   9.159   5.934   7.730 -0.4359 -1.1150 -0.5819
80558SOL     OW59665  12.154  10.127   8.600  0.0993 -0.3042 -0.7501
80558SOL    HW159666  12.069  10.172   8.600 -0.2086 -0.8361  0.5981
80558SOL    HW259667  12.218  10.195   8.620 -0.4231 -0.4903  1.8792
80559SOL     OW59668   9.227   8.703  10.862  0.0287  0.0906 -0.3067
80559SOL    HW159669   9.203   8.731  10.774  1.7407  0.9379 -0.5490
80559SOL    HW259670   9.299   8.762  10.887 -0.5868  0.0527  1.7626
80560SOL     OW59671   3.784   6.625  10.599 -0.0042  0.0660  0.1903
80560SOL    HW159672   3.766   6.696  10.661  2.5062 -1.4998  2.9972
80560SOL    HW259673   3.857   6.657  10.547 -1.1026  0.7794 -0.9693
80561SOL     OW59674   1.625   7.931   1.056 -0.0544  0.4931  0.1718
80561SOL    HW159675   1.677   7.902   1.131  2.6954 -0.6239 -1.9801
80561SOL    HW259676   1.672   8.007   1.023 -0.5227  0.2500 -1.0768
80562SOL     OW59677   5.612   7.260  11.629  0.1294  0.0633  0.7222
80562SOL    HW159678   5.544   7.324  11.609 -0.5145 -0.5681  0.8250
80562SOL    HW259679   5.661   7.299  11.702 -1.1047 -0.1350  1.7024
80563SOL     OW59680   6.490   8.684   1.276  0.5513 -0.3089 -0.1617
80563SOL    HW159681   6.416   8.623   1.269 -1.8376  1.9381  2.5143
80563SOL    HW259682   6.528   8.665   1.362  1.0793  0.5744 -0.1861
80564SOL     OW59683   0.395  11.620   4.953 -0.2248  0.3490  0.3771
80564SOL    HW159684   0.366  11.705   4.985 -0.3900 -0.2542  1.9054
80564SOL    HW259685   0.449  11.585   5.024 -0.8135 -1.1572  0.1091
80565SOL     OW59686   1.154   6.742   8.669 -0.5155  0.1648  0.2046
80565SOL    HW159687   1.236   6.761   8.715 -0.9795 -1.1149  1.6178
80565SOL    HW259688   1.182   6.715   8.582  0.6526 -1.1523  0.9495
80566SOL     OW59689   3.345   7.982  13.092  0.2106 -0.1983 -0.0002
80566SOL    HW159690   3.266   7.955  13.139  0.5908  0.5656  1.1277
80566SOL    HW259691   3.405   7.908  13.101  0.3340 -0.0003  0.8656
80567SOL     OW59692   5.775   3.355  11.396 -0.1792 -0.3168  0.9308
80567SOL    HW159693   5.734   3.396  11.472  0.5992  1.9011  0.2619
80567SOL    HW259694   5.706   3.355  11.329  0.3027  1.8344  0.3368
80568SOL     OW59695   3.245  11.783  10.142  0.3364  0.0670 -0.0401
80568SOL    HW159696   3.238  11.689  10.128 -1.0540  0.1935 -0.3134
80568SOL    HW259697   3.329  11.807  10.103  0.2463 -0.8958 -0.8515
80569SOL     OW59698   9.885   6.688   6.913 -0.1928  0.3782 -0.0944
80569SOL    HW159699   9.816   6.643   6.962  0.3159  0.3387  0.5975
80569SOL    HW259700   9.872   6.660   6.823  0.0755 -1.1036  0.3110
80570SOL     OW59701  13.173   4.306  12.003 -0.7291 -0.0499 -0.1298
80570SOL    HW159702  13.079   4.325  11.997 -0.3352  1.6410 -2.1772
80570SOL    HW259703  13.197   4.274  11.916  0.6424 -0.2233  0.2858
80571SOL     OW59704   9.178  13.553   2.512 -0.3027  0.4293  0.2153
80571SOL    HW159705   9.142  13.632   2.552 -1.5269 -0.9325  1.9784
80571SOL    HW259706   9.174  13.569   2.418  1.1232  3.1302  0.4977
80572SOL     OW59707   5.007  13.660  12.525  0.2320  0.2812  0.3763
80572SOL    HW159708   4.936  13.714  12.490 -2.1531 -2.1843  1.0110
80572SOL    HW259709   5.068  13.651  12.452 -1.6963 -0.0082 -1.2906
80573SOL     OW59710  10.450   6.820   4.920  0.1124  0.4710 -0.3160
80573SOL    HW159711  10.429   6.829   5.013  1.5333  0.3467  0.0383
80573SOL    HW259712  10.441   6.909   4.885  1.8105  0.9717  0.4539
80574SOL     OW59713  12.899   1.412   5.770  0.3706  0.2070  0.3628
80574SOL    HW159714  12.955   1.364   5.710 -1.7365  0.7208 -2.2130
80574SOL    HW259715  12.817   1.362   5.772 -0.1054  0.9719  1.7387
80575SOL     OW59716   7.071   7.855   0.223  1.1143  0.4171 -0.0152
80575SOL    HW159717   7.014   7.779   0.229  1.4511  0.1602 -0.0432
80575SOL    HW259718   7.060   7.900   0.307  0.8285  0.4017 -0.0435
80576SOL     OW59719   1.588  10.822   7.524  0.0317 -0.0080  0.0316
80576SOL    HW159720   1.540  10.883   7.469  0.0493  0.3454  0.4026
80576SOL    HW259721   1.571  10.736   7.486 -2.3507 -0.1332  1.1525
80577SOL     OW59722   3.685   0.044   2.350  0.1470 -0.4196  0.4624
80577SOL    HW159723   3.704   0.077   2.438  2.9711  0.0956 -0.2299
80577SOL    HW259724   3.771   0.028   2.311 -0.9998 -0.9415 -2.1119
80578SOL     OW59725   4.500  12.560  13.260 -0.1028 -0.1084  0.0750
80578SOL    HW159726   4.542  12.645  13.248 -1.4828  0.5163 -0.4586
80578SOL    HW259727   4.476  12.558  13.352 -0.6697  0.3696 -0.0592
80579SOL     OW59728  12.328   9.010   3.187  0.0394  0.2794 -0.1849
80579SOL    HW159729  12.388   9.020   3.260 -0.8253  0.0759  0.5657
80579SOL    HW259730  12.241   9.030   3.223 -0.3669  0.4841 -1.2185
80580SOL     OW59731  13.118   1.378  13.491 -0.2583  0.0086 -0.1432
80580SOL    HW159732  13.129   1.359  13.584 -1.1668  0.8881  0.1568
80580SOL    HW259733  13.205   1.402  13.460  0.2467 -1.2556  0.2413
80581SOL     OW59734   9.936  10.115   7.656  0.6559  0.1013  0.0973
80581SOL    HW159735   9.977  10.049   7.600  1.0980 -0.4157  1.0152
80581SOL    HW259736   9.846  10.120   7.625  0.6131 -0.9389  0.0234
80582SOL     OW59737   7.500  13.320   3.721 -0.9358 -0.4617  0.0541
80582SOL    HW159738   7.567  13.332   3.789 -0.9555  1.6154 -0.2489
80582SOL    HW259739   7.491  13.225   3.714  1.2102 -0.7818  0.8519
80583SOL     OW59740   9.117   5.913   5.264 -0.2310 -0.2642  0.1884
80583SOL    HW159741   9.190   5.850   5.266 -0.3728 -0.4234  1.1572
80583SOL    HW259742   9.059   5.880   5.195 -0.1455 -1.0290  0.4681
80584SOL     OW59743  13.106   9.872   4.266 -0.0398 -0.3567  0.4428
80584SOL    HW159744  13.089   9.908   4.353 -1.1318  0.3208 -0.0338
80584SOL    HW259745  13.045   9.799   4.257 -2.2672  1.5224 -0.9233
80585SOL     OW59746   7.263   3.927  10.320 -0.3307  0.3879 -0.7901
80585SOL    HW159747   7.324   3.867  10.277  0.0076 -0.5383  0.9116
80585SOL    HW259748   7.318   3.998  10.352 -0.5809  1.0648 -1.8083
80586SOL     OW59749   3.414   2.397   5.543  0.0095 -0.2032  0.0623
80586SOL    HW159750   3.354   2.450   5.595  0.3183  0.1224  0.0906
80586SOL    HW259751   3.491   2.453   5.530  0.3918 -0.6904  0.1981
80587SOL     OW59752   6.691   1.961   2.947  0.0706  0.6959  0.0021
80587SOL    HW159753   6.708   1.956   2.853  0.3694  1.4844  0.0086
80587SOL    HW259754   6.729   2.045   2.974 -2.9086  2.1338  0.1807
80588SOL     OW59755   4.015   6.442  12.389 -0.1216  0.6487  0.4099
80588SOL    HW159756   4.078   6.514  12.396 -0.8814  1.2601  1.0546
80588SOL    HW259757   4.021   6.415  12.297  1.6384  0.1725  0.6298
80589SOL     OW59758   2.323  12.964  12.163  0.2993  0.4251 -0.1700
80589SOL    HW159759   2.301  12.929  12.250  1.8859  2.7944  1.3192
80589SOL    HW259760   2.351  13.054  12.180 -1.5764  1.8027 -3.4847
80590SOL     OW59761   9.878  10.794  12.850 -0.1149  0.2173 -0.0322
80590SOL    HW159762   9.800  10.850  12.847 -1.2634 -1.3315 -2.7068
80590SOL    HW259763   9.848  10.710  12.815  2.4679 -0.8340  0.0991
80591SOL     OW59764   6.600   0.758  10.207 -0.3742  0.2206 -0.2555
80591SOL    HW159765   6.613   0.667  10.182 -0.2473  0.2036 -0.1344
80591SOL    HW259766   6.680   0.802  10.178  0.2211  0.0127  0.9807
80592SOL     OW59767   1.024  14.148  13.592 -0.3401  0.0190  0.7179
80592SOL    HW159768   1.046  14.068  13.640  3.3278 -0.5766 -1.5576
80592SOL    HW259769   1.070  14.218  13.639 -0.1367  0.0922  0.4155
80593SOL     OW59770   9.558  12.280   9.455 -0.3245 -0.5728 -0.0582
80593SOL    HW159771   9.620  12.352   9.440  0.8236 -1.5127  0.0139
80593SOL    HW259772   9.558  12.268   9.550 -0.3703 -0.7883 -0.0851
80594SOL     OW59773   6.011   9.611   5.686  0.2463  0.2984 -0.1223
80594SOL    HW159774   6.071   9.606   5.611 -1.9038 -1.1692 -1.8666
80594SOL    HW259775   5.949   9.679   5.662 -0.5006 -0.2325  0.2621
80595SOL     OW59776   5.650   1.436  10.799  0.0770 -0.6275  0.1857
80595SOL    HW159777   5.724   1.434  10.738  1.7871 -0.6484  2.1070
80595SOL    HW259778   5.676   1.502  10.864 -0.5603 -2.1922  2.1095
80596SOL     OW59779  12.635   0.655   0.105  0.1706  0.0141  0.8088
80596SOL    HW159780  12.626   0.741   0.064  0.3024 -0.9808 -1.4622
80596SOL    HW259781  12.663   0.673   0.194 -1.0595  2.3525  0.7888
80597SOL     OW59782  10.105   4.234  10.374  0.0597 -0.1722 -0.5383
80597SOL    HW159783  10.131   4.182  10.297  0.6421 -1.6755  0.6258
80597SOL    HW259784  10.117   4.325  10.346 -1.7143 -0.5677 -2.9155
80598SOL     OW59785   5.834   2.264  11.196  0.0439 -0.7049 -0.0835
80598SOL    HW159786   5.834   2.299  11.107 -1.2338 -0.7992 -0.1385
80598SOL    HW259787   5.913   2.299  11.236  0.0327  0.2784 -0.8972
80599SOL     OW59788  10.899   5.745   5.621  0.1786 -0.3196 -0.2604
80599SOL    HW159789  10.938   5.749   5.534  0.7003  1.2843 -0.0041
80599SOL    HW259790  10.899   5.652   5.644  1.7012 -0.5994 -1.2381
80600SOL     OW59791   8.543   6.861   3.810  0.8490 -0.2749  0.0705
80600SOL    HW159792   8.632   6.834   3.833  0.8256  0.9950  1.8758
80600SOL    HW259793   8.551   6.954   3.787  0.1532 -0.4431 -0.9352
80601SOL     OW59794   0.952   4.917  11.868  0.4212 -0.2779 -0.3198
80601SOL    HW159795   0.880   4.855  11.880  1.2466 -0.8961  1.7921
80601SOL    HW259796   0.997   4.886  11.789  1.4117 -3.0471  1.2240
80602SOL     OW59797  10.070  11.972   3.914 -0.1668 -0.1010  0.1094
80602SOL    HW159798  10.038  11.903   3.856  3.3712 -0.5725 -1.5731
80602SOL    HW259799  10.002  12.038   3.913 -2.1934 -2.0750 -0.9717
80603SOL     OW59800   8.592   5.641   1.503  0.8245  0.3788  0.6836
80603SOL    HW159801   8.572   5.645   1.597 -1.0063  1.0657  0.3178
80603SOL    HW259802   8.552   5.559   1.473 -0.7763  1.3163  0.1044
80604SOL     OW59803   3.871  11.875  10.757  0.1590 -0.5334 -0.7590
80604SOL    HW159804   3.778  11.887  10.741 -0.3747 -2.2071  0.7133
80604SOL    HW259805   3.913  11.894  10.674 -1.7916 -2.7573 -2.3942
80605SOL     OW59806   8.671   7.665   0.003  0.1023  0.2363 -0.0045
80605SOL    HW159807   8.664   7.578   0.042  1.1144  0.4521  0.7108
80605SOL    HW259808   8.582   7.686  -0.026 -0.2182 -0.8932  0.1039
80606SOL     OW59809   3.630   0.612  13.142 -0.0214  0.3113 -0.3562
80606SOL    HW159810   3.611   0.631  13.234  0.1951  0.2765 -0.3032
80606SOL    HW259811   3.576   0.674  13.093  0.3731  0.7897 -0.1924
80607SOL     OW59812   7.532   7.498  13.824 -0.2562 -0.6774  0.2443
80607SOL    HW159813   7.528   7.453  13.739  0.6980 -0.2429 -0.0524
80607SOL    HW259814   7.598   7.449  13.873  0.7655  0.3198 -0.0673
80608SOL     OW59815  12.348   5.217  11.715  0.5152 -0.3735  0.2104
80608SOL    HW159816  12.377   5.126  11.706  0.5959 -0.5745  2.0566
80608SOL    HW259817  12.412   5.267  11.666  0.1287 -1.3421 -1.3521
80609SOL     OW59818   8.032   1.725   4.987 -0.2627 -0.3404  0.3475
80609SOL    HW159819   7.992   1.657   5.042 -0.5092  0.1529  0.7944
80609SOL    HW259820   7.972   1.735   4.914 -0.9952  0.4304  1.0411
80610SOL     OW59821  12.217   7.395   7.456  0.7522  0.4868 -0.2960
80610SOL    HW159822  12.307   7.375   7.429  0.5812 -2.2407  0.7951
80610SOL    HW259823  12.171   7.312   7.447 -1.4389  1.6072  0.0577
80611SOL     OW59824  13.201  10.636   0.437 -0.3059 -0.6189  0.2540
80611SOL    HW159825  13.119  10.648   0.390 -0.5849 -0.9607  0.6451
80611SOL    HW259826  13.264  10.689   0.389 -0.1522 -2.3355 -1.5987
80612SOL     OW59827   8.980   0.740   2.110 -0.0725  0.3102 -0.5476
80612SOL    HW159828   8.905   0.712   2.161 -0.4469  0.1580 -1.1706
80612SOL    HW259829   8.971   0.694   2.026  1.0736 -0.2295 -0.3908
80613SOL     OW59830   2.954  12.883   3.612 -0.0451  0.1923  0.2981
80613SOL    HW159831   2.977  12.848   3.698 -0.8249 -0.9216  0.0699
80613SOL    HW259832   2.874  12.836   3.587 -0.8526  1.7730 -0.2536
80614SOL     OW59833  10.465   1.071   7.551  0.4538 -0.5191  0.1277
80614SOL    HW159834  10.496   1.161   7.546  1.1313 -0.7143  0.7942
80614SOL    HW259835  10.449   1.046   7.460  1.2843 -0.0822 -0.1397
80615SOL     OW59836  10.719   8.342   4.725  0.3426 -0.0713 -0.2391
80615SOL    HW159837  10.814   8.344   4.729  0.2917  1.3108  0.6326
80615SOL    HW259838  10.692   8.434   4.725 -1.0576 -0.4214  1.6710
80616SOL     OW59839  10.673   1.205   1.399  0.0903  0.2143 -0.0158
80616SOL    HW159840  10.617   1.172   1.328 -0.3044 -1.0592  0.8479
80616SOL    HW259841  10.653   1.298   1.404 -0.4524  0.1757 -1.0583
80617SOL     OW59842  10.995   7.393   1.541 -0.1457  0.2303  0.0779
80617SOL    HW159843  11.033   7.389   1.453 -0.9991  0.0166 -0.2855
80617SOL    HW259844  10.977   7.302   1.563 -1.2781  0.3995 -0.1215
80618SOL     OW59845   3.044   5.634   8.434  0.3623 -0.8420 -0.2873
80618SOL    HW159846   3.043   5.626   8.529 -3.9387 -1.8350 -0.1703
80618SOL    HW259847   3.013   5.723   8.416 -2.0434 -1.6563 -0.5659
80619SOL     OW59848   1.400  12.861   0.313  0.1659 -0.2881  0.0595
80619SOL    HW159849   1.484  12.836   0.351  1.1815  0.4169 -1.6095
80619SOL    HW259850   1.416  12.945   0.271 -0.7268 -1.1862 -2.2468
80620SOL     OW59851  10.845  13.085   1.203  0.0269  0.4262 -0.2325
80620SOL    HW159852  10.929  13.112   1.240  0.5083  0.8447 -1.6039
80620SOL    HW259853  10.831  13.143   1.129 -0.7909 -0.5733 -0.8885
80621SOL     OW59854   5.063   9.666   8.498 -0.1921  0.3069 -0.0599
80621SOL    HW159855   5.131   9.703   8.442  1.4130  0.5911  1.9570
80621SOL    HW259856   5.022   9.598   8.445  0.6741  1.1165 -1.8393
80622SOL     OW59857   1.239   8.839   9.109 -0.8973 -0.3022 -0.7736
80622SOL    HW159858   1.199   8.845   9.195 -0.4701 -0.6134 -0.5506
80622SOL    HW259859   1.237   8.929   9.075 -1.5332 -0.2719 -0.6577
80623SOL     OW59860   5.285  12.070   2.396 -0.5306 -0.7087  0.1749
80623SOL    HW159861   5.192  12.058   2.415 -0.8762  3.0745  1.5068
80623SOL    HW259862   5.289  12.077   2.300 -1.4386 -1.6864  0.0426
80624SOL     OW59863   6.364  13.607   6.905  0.2168 -0.0262  0.1331
80624SOL    HW159864   6.432  13.570   6.961  0.6993 -0.1964 -0.5458
80624SOL    HW259865   6.388  13.579   6.817 -0.2680  0.6242 -0.2180
80625SOL     OW59866  10.945  13.488   2.381  0.6795  0.7595 -0.3419
80625SOL    HW159867  10.986  13.534   2.455 -2.3063 -1.0360  2.7308
80625SOL    HW259868  11.010  13.423   2.355  1.1851  0.1654  2.0886
80626SOL     OW59869   0.715   9.019   3.609 -0.6783 -0.3173 -0.2965
80626SOL    HW159870   0.694   9.085   3.674  3.4562  1.5072 -0.4862
80626SOL    HW259871   0.708   8.936   3.655 -0.7652  0.6835  1.5684
80627SOL     OW59872   1.804  11.448   1.006 -0.5527  0.2813  0.0609
80627SOL    HW159873   1.854  11.405   1.076 -2.4528 -0.4717  1.0174
80627SOL    HW259874   1.747  11.380   0.972 -1.5113  1.3016 -0.4429
80628SOL     OW59875  13.548  11.383   7.665 -0.0545  0.2424  0.1990
80628SOL    HW159876  13.569  11.367   7.757 -1.2391 -0.5040  0.3571
80628SOL    HW259877  13.633  11.390   7.622  0.5177  0.6471  1.3516
80629SOL     OW59878   0.348   4.113   5.373  0.8718  0.3257  0.7142
80629SOL    HW159879   0.395   4.176   5.428  0.9348  0.4915  0.4730
80629SOL    HW259880   0.255   4.129   5.393  0.9313 -0.9138  2.1985
80630SOL     OW59881   5.472   0.225   0.536  0.2200 -0.0482 -0.1933
80630SOL    HW159882   5.431   0.171   0.469 -0.4497  1.2580 -0.8655
80630SOL    HW259883   5.481   0.312   0.495 -2.0105  1.3399  2.0127
80631SOL     OW59884   6.230   2.061  14.120  0.2403  0.0205  0.1192
80631SOL    HW159885   6.318   2.026  14.134  0.0464  0.4227  2.8546
80631SOL    HW259886   6.194   2.006  14.051  2.2827 -0.7615 -0.4121
80632SOL     OW59887  13.649   8.032   4.570 -0.1682  0.3866 -0.0106
80632SOL    HW159888  13.562   8.052   4.605 -0.5442 -0.9273 -0.1207
80632SOL    HW259889  13.668   8.105   4.510 -0.8517  1.0838  0.5939
80633SOL     OW59890  10.319  11.019   6.510 -0.0309 -0.1778 -0.0635
80633SOL    HW159891  10.374  11.069   6.450  0.3341 -1.6035 -0.9585
80633SOL    HW259892  10.240  10.999   6.460 -1.3368  1.6328  1.1267
80634SOL     OW59893   2.542  13.335   5.111 -0.3547 -0.0492  0.2266
80634SOL    HW159894   2.497  13.383   5.180  2.8718  2.2489  0.9746
80634SOL    HW259895   2.554  13.399   5.041  0.3624 -1.0154 -0.5635
80635SOL     OW59896   8.701   7.743   4.617 -0.4559  0.0608 -0.3835
80635SOL    HW159897   8.762   7.670   4.612 -1.2597 -0.7569  1.0509
80635SOL    HW259898   8.739   7.811   4.560  0.8780 -1.0414 -0.8541
80636SOL     OW59899   6.442   8.830   0.476 -0.6362 -0.4637 -0.5395
80636SOL    HW159900   6.403   8.761   0.528 -1.1337 -0.5770 -1.0504
80636SOL    HW259901   6.367   8.880   0.441 -0.3064 -0.1082 -0.7568
80637SOL     OW59902  13.108   2.964   6.004 -0.1924 -1.1744 -0.4566
80637SOL    HW159903  13.112   2.991   5.912  0.7629 -1.1035 -0.4098
80637SOL    HW259904  13.164   3.027   6.050 -2.4054  0.1602  0.5468
80638SOL     OW59905  10.480   9.970  11.435 -0.4852  0.1874  0.3256
80638SOL    HW159906  10.519   9.994  11.519 -0.8542  1.1716  0.2302
80638SOL    HW259907  10.501  10.044  11.377 -0.5482 -0.3153 -0.3456
80639SOL     OW59908  14.067   1.105  12.078 -0.0862 -0.1266  0.0103
80639SOL    HW159909  14.115   1.144  12.005  0.7648 -0.5031  0.3574
80639SOL    HW259910  14.132   1.096  12.147 -0.6894 -0.5514  0.5344
80640SOL     OW59911   2.265  11.180   6.125 -0.6161  0.3293 -0.3399
80640SOL    HW159912   2.328  11.108   6.125 -0.6223  0.2960  1.0762
80640SOL    HW259913   2.250  11.199   6.033  0.0283 -0.9194 -0.7181
80641SOL     OW59914  13.703   1.176   7.549  0.7204  0.5551 -0.2998
80641SOL    HW159915  13.780   1.226   7.522 -0.4225  2.5567 -0.0992
80641SOL    HW259916  13.686   1.117   7.476  1.6475  1.0392 -0.9289
80642SOL     OW59917   9.845   0.571  13.170 -0.0323  0.1724  0.2448
80642SOL    HW159918   9.877   0.583  13.259 -1.5612 -0.4644  0.9109
80642SOL    HW259919   9.809   0.657  13.146 -0.3120  0.1360  0.5319
80643SOL     OW59920   0.927   7.587  10.529  0.1030 -0.4729  0.5978
80643SOL    HW159921   0.906   7.658  10.590  0.3887  0.0186  0.1323
80643SOL    HW259922   0.916   7.507  10.581 -2.1766 -0.2191  0.5928
80644SOL     OW59923   4.542   8.539   1.241 -0.8347 -0.3634  0.6431
80644SOL    HW159924   4.541   8.458   1.293  0.1589 -1.6228 -1.1819
80644SOL    HW259925   4.629   8.541   1.202 -0.8901  1.5585  0.5435
80645SOL     OW59926   0.695   2.708   9.120 -0.7718  0.5700 -0.1727
80645SOL    HW159927   0.709   2.751   9.036 -0.1418  0.2984 -0.2123
80645SOL    HW259928   0.603   2.682   9.119 -0.2860 -1.2597 -1.6597
80646SOL     OW59929   3.937   5.859  13.773 -0.5771 -0.4232  0.5971
80646SOL    HW159930   3.942   5.953  13.758  0.8893 -0.4817  0.6380
80646SOL    HW259931   3.856   5.848  13.822 -1.0459  0.7447  0.1404
80647SOL     OW59932   4.520   8.178  10.814  0.1974  0.0371 -0.1939
80647SOL    HW159933   4.466   8.119  10.762 -1.1981  0.0841  1.1199
80647SOL    HW259934   4.594   8.199  10.758 -1.4984  0.5699 -2.3874
80648SOL     OW59935   3.264   5.701   8.297 -0.2916 -0.5877  0.1224
80648SOL    HW159936   3.335   5.691   8.361  0.5362  2.3948 -0.1933
80648SOL    HW259937   3.184   5.688   8.348  0.2280  3.4743  2.4098
80649SOL     OW59938   6.951  13.465   5.375 -0.0308  0.4274 -0.6873
80649SOL    HW159939   6.861  13.435   5.385 -0.0580  0.4216 -0.9575
80649SOL    HW259940   6.985  13.467   5.465 -0.3865  0.7028 -0.5579
80650SOL     OW59941   0.632   6.926   0.986  0.1919 -0.2762 -0.2759
80650SOL    HW159942   0.662   7.016   0.998  0.7091 -0.5228  0.3865
80650SOL    HW259943   0.711   6.873   0.996 -0.3507 -0.9066  0.9144
80651SOL     OW59944   6.732   5.275  11.956 -0.0149 -0.0269  0.3716
80651SOL    HW159945   6.722   5.241  11.867  1.0882  0.3509  0.0886
80651SOL    HW259946   6.825   5.264  11.975 -0.4086 -0.9590  1.8397
80652SOL     OW59947   8.966   2.068   6.287 -0.1327 -0.3701 -0.2743
80652SOL    HW159948   8.916   2.014   6.227 -1.5500 -0.2914  0.7987
80652SOL    HW259949   8.989   2.010   6.360 -0.3078  0.0669  0.1399
80653SOL     OW59950   7.052   1.098   5.267 -0.3119 -0.5613 -0.3437
80653SOL    HW159951   7.066   1.013   5.307 -1.9879  0.1849  2.0352
80653SOL    HW259952   7.140   1.136   5.257  0.3080 -1.7746  0.3817
80654SOL     OW59953   4.003  13.932   6.354  0.6079  0.1192  0.0779
80654SOL    HW159954   3.997  13.970   6.441 -1.2277 -0.2065  0.1204
80654SOL    HW259955   3.957  13.848   6.360 -0.5325  0.5892 -1.4612
80655SOL     OW59956   6.669  12.948  10.221 -0.5268  0.1723  0.0659
80655SOL    HW159957   6.700  12.918  10.135  1.5216 -1.4195  1.2774
80655SOL    HW259958   6.673  13.043  10.215  1.7085  0.0808 -0.9249
80656SOL     OW59959   0.397   3.605   4.276  0.6310  0.1443  0.6838
80656SOL    HW159960   0.321   3.644   4.234  0.5730  0.9427  1.4879
80656SOL    HW259961   0.469   3.619   4.214  0.8078  2.3883  1.3017
80657SOL     OW59962   4.003   3.762  11.214  0.9073  0.1160  0.0289
80657SOL    HW159963   4.054   3.772  11.295  0.1091  1.6529  0.3932
80657SOL    HW259964   4.060   3.797  11.146  1.2781 -0.4553  0.0381
80658SOL     OW59965   2.180   0.389   4.195  0.5028 -0.1323 -0.2699
80658SOL    HW159966   2.136   0.335   4.261  0.0828 -0.7335 -1.0322
80658SOL    HW259967   2.252   0.431   4.243  0.1096 -0.4290  0.6070
80659SOL     OW59968   9.944   3.638  13.343 -0.0656 -0.0162 -0.1252
80659SOL    HW159969   9.974   3.729  13.339  0.9627 -0.3433 -0.3100
80659SOL    HW259970   9.879   3.637  13.413  1.3716  0.4657  1.2923
80660SOL     OW59971   0.780   1.233   8.407 -0.2105 -0.4386  0.4281
80660SOL    HW159972   0.727   1.158   8.378 -4.0157  2.4056 -0.7862
80660SOL    HW259973   0.792   1.286   8.329  0.7899  1.1345  1.5885
80661SOL     OW59974   1.963  13.751  12.112 -0.2138 -0.4116  0.2325
80661SOL    HW159975   1.928  13.763  12.200 -0.0398  0.4567  0.1948
80661SOL    HW259976   2.024  13.824  12.101  1.2675 -1.6070  0.1243
80662SOL     OW59977   3.365   4.726   5.332 -0.4951  0.2025  0.1721
80662SOL    HW159978   3.401   4.638   5.318 -1.9289 -0.0802 -2.1866
80662SOL    HW259979   3.384   4.744   5.424 -0.5684 -2.7743  0.8861
80663SOL     OW59980   9.714  10.234  11.377 -0.1877 -0.2323  0.0713
80663SOL    HW159981   9.640  10.219  11.318 -0.4404  2.4835 -0.4344
80663SOL    HW259982   9.682  10.207  11.463 -0.7113 -1.8335 -0.5903
80664SOL     OW59983  10.421   3.903   5.854  0.2698 -0.3263 -0.3570
80664SOL    HW159984  10.443   3.992   5.879 -2.2065  0.0988  0.5455
80664SOL    HW259985  10.416   3.855   5.936 -0.7384 -0.7036 -0.6247
80665SOL     OW59986   7.599  12.144   3.196 -0.5680  0.1897 -0.4354
80665SOL    HW159987   7.532  12.139   3.128  0.9246  0.6812 -2.0122
80665SOL    HW259988   7.633  12.055   3.204 -0.9181  0.0807 -0.1390
80666SOL     OW59989   8.456   8.296   9.666  0.4256  0.4478 -0.4622
80666SOL    HW159990   8.438   8.389   9.668 -0.9855  0.1969  1.7891
80666SOL    HW259991   8.402   8.259   9.735 -0.0449 -2.2512 -2.1174
80667SOL     OW59992   8.137   6.961   1.543  0.3792 -0.5252  0.2683
80667SOL    HW159993   8.153   6.871   1.513  0.2603 -0.6381  0.5399
80667SOL    HW259994   8.067   6.993   1.486  1.1247 -0.2467 -0.5091
80668SOL     OW59995   6.088  12.357  13.539  0.1222 -0.1859  0.7098
80668SOL    HW159996   6.095  12.425  13.472 -0.7231 -0.1042  0.6997
80668SOL    HW259997   6.163  12.373  13.597  0.2710  0.3778  0.3687
80669SOL     OW59998   3.980  12.110   4.667  0.1031 -0.2775  0.3747
80669SOL    HW159999   3.921  12.135   4.596 -2.0204 -1.5520  1.6039
80669SOL    HW260000   4.036  12.187   4.680 -1.0299  0.8426 -1.0729
80670SOL     OW60001   3.685   9.830   4.165  0.1456 -0.0215  0.4469
80670SOL    HW160002   3.755   9.855   4.225  0.5189  2.1154 -0.7574
80670SOL    HW260003   3.627   9.776   4.218  2.0466 -0.8456  1.8264
80671SOL     OW60004   4.170  10.950   6.397  0.0683 -0.3590  0.4807
80671SOL    HW160005   4.082  10.975   6.426 -0.7410 -0.7068 -1.5403
80671SOL    HW260006   4.220  11.031   6.399 -0.9002  0.2770 -0.3563
80672SOL     OW60007   8.257   9.577  14.150 -0.1414  0.0158  0.1097
80672SOL    HW160008   8.196   9.519  14.104  0.1254 -0.7116  0.6526
80672SOL    HW260009   8.322   9.518  14.188  4.0585  0.8313 -4.6683
80673SOL     OW60010   9.316  11.225   7.122  0.1986  0.1984  0.0635
80673SOL    HW160011   9.262  11.185   7.191 -1.1911  1.9570  0.0883
80673SOL    HW260012   9.319  11.160   7.053 -0.2766 -0.7367  0.8950
80674SOL     OW60013  12.071   9.933   8.929 -0.4015 -0.1201  0.2507
80674SOL    HW160014  11.980   9.944   8.903  0.3535 -0.2309 -2.8198
80674SOL    HW260015  12.110   9.881   8.858  1.6291 -1.8454  2.4463
80675SOL     OW60016   8.625   0.405   3.314 -0.3313 -0.0497 -0.4531
80675SOL    HW160017   8.630   0.415   3.409 -1.9201 -0.9883 -0.2331
80675SOL    HW260018   8.571   0.326   3.301 -1.6135  1.0367 -2.1200
80676SOL     OW60019  11.488  13.177   0.105 -0.2130 -0.0728  0.1732
80676SOL    HW160020  11.466  13.085   0.116  1.4600 -0.5256  0.0461
80676SOL    HW260021  11.578  13.185   0.139  1.3901  0.5378 -3.6797
80677SOL     OW60022  14.117  12.845   8.263 -0.6623 -0.6307  0.6776
80677SOL    HW160023  14.092  12.929   8.301 -1.6779  0.2042 -1.6955
80677SOL    HW260024  14.034  12.800   8.246 -0.3441 -0.4962 -1.4953
80678SOL     OW60025   8.265   5.143   7.922  0.5342  0.0049 -0.3728
80678SOL    HW160026   8.252   5.237   7.909 -1.0779 -0.1613 -0.2320
80678SOL    HW260027   8.321   5.137   7.999  0.8755  0.8411 -0.5352
80679SOL     OW60028   0.923  13.630  12.763 -0.2322  0.2929 -0.4601
80679SOL    HW160029   0.991  13.631  12.831 -0.1577 -1.1888 -0.4654
80679SOL    HW260030   0.969  13.601  12.684 -1.1252 -2.5231 -0.0650
80680SOL     OW60031  13.696  11.621   9.619 -0.0444  0.1692 -0.0026
80680SOL    HW160032  13.704  11.526   9.607  2.0552 -0.0193  2.2331
80680SOL    HW260033  13.605  11.640   9.594  0.3494 -1.8250 -3.6425
80681SOL     OW60034   2.810  13.673   3.784 -0.1822 -0.1743 -0.2955
80681SOL    HW160035   2.818  13.672   3.879 -0.3948 -0.0801 -0.2754
80681SOL    HW260036   2.804  13.766   3.761  1.2036 -0.1207 -0.5187
80682SOL     OW60037  11.289  13.252   1.128  0.7918 -0.5267 -0.4039
80682SOL    HW160038  11.282  13.168   1.084 -3.2211 -0.8077  0.3730
80682SOL    HW260039  11.296  13.316   1.056  1.3372 -1.3774 -1.1181
80683SOL     OW60040   6.452   2.370  11.079 -0.4082 -0.1843  0.5329
80683SOL    HW160041   6.452   2.462  11.105  0.1419 -0.7186  2.5940
80683SOL    HW260042   6.361   2.342  11.091 -0.2251 -0.3398  1.6131
80684SOL     OW60043  12.942   3.879   4.653 -0.1440 -0.1155  0.3251
80684SOL    HW160044  12.974   3.948   4.595 -0.7160 -0.1685 -0.0592
80684SOL    HW260045  12.899   3.926   4.725  1.7536  0.0013  1.4655
80685SOL     OW60046   9.409   5.684   3.661 -0.2305 -0.1209  0.0039
80685SOL    HW160047   9.432   5.637   3.582 -1.5234 -0.4972 -0.1610
80685SOL    HW260048   9.474   5.655   3.726  0.5793 -0.1179 -0.7890
80686SOL     OW60049   7.601   4.086  13.481 -0.4273 -0.2708  0.4729
80686SOL    HW160050   7.613   4.030  13.405  0.9807  0.5845  0.0319
80686SOL    HW260051   7.602   4.175  13.446 -0.4535  0.1103  1.4154
80687SOL     OW60052   3.526  10.630  12.312 -0.5419  0.0241 -0.2386
80687SOL    HW160053   3.459  10.641  12.379  0.6747 -0.1604  1.0672
80687SOL    HW260054   3.488  10.668  12.233 -2.1979 -0.1667  0.4263
80688SOL     OW60055  10.535  12.142  12.578 -0.5155 -0.1331  0.2547
80688SOL    HW160056  10.565  12.057  12.612  1.2497  0.7275  0.9818
80688SOL    HW260057  10.537  12.200  12.654  0.0786  1.0049 -0.6071
80689SOL     OW60058   0.433   4.897   1.595  0.0559 -0.2007  0.8224
80689SOL    HW160059   0.401   4.833   1.531 -2.2260  0.3196  1.3350
80689SOL    HW260060   0.372   4.889   1.669  2.1495 -0.2538  2.6440
80690SOL     OW60061   4.865  13.095   5.851  0.2244 -0.5633  0.1005
80690SOL    HW160062   4.858  13.065   5.941  0.6281 -0.4424  0.1714
80690SOL    HW260063   4.881  13.189   5.858 -2.2576 -0.0577 -0.1272
80691SOL     OW60064  10.361   0.414   1.195  0.4839 -0.2418  0.4523
80691SOL    HW160065  10.305   0.337   1.181  1.7404 -0.9748 -0.9217
80691SOL    HW260066  10.414   0.391   1.272  0.3968 -0.4794  0.4422
80692SOL     OW60067   9.523   5.158   3.119 -0.4966  0.1820  0.3925
80692SOL    HW160068   9.540   5.064   3.121  1.8806  0.5700  0.6728
80692SOL    HW260069   9.458   5.169   3.049 -1.2218 -1.7037  0.7231
80693SOL     OW60070   7.445  10.822   4.520 -0.2268  0.3368 -0.1049
80693SOL    HW160071   7.437  10.825   4.616  1.5423  0.1165  0.0772
80693SOL    HW260072   7.537  10.804   4.504 -0.8958 -2.0849 -1.8459
80694SOL     OW60073   0.908   1.387  11.086 -0.0286 -0.8597 -0.4647
80694SOL    HW160074   0.992   1.357  11.051  0.3465 -0.0663 -0.2751
80694SOL    HW260075   0.930   1.467  11.133 -0.3390 -2.3138  2.3659
80695SOL     OW60076   9.439   8.366   1.143 -0.4754 -0.1900  0.6267
80695SOL    HW160077   9.389   8.288   1.167  0.4334 -0.9048  0.2455
80695SOL    HW260078   9.453   8.357   1.049 -1.0586  0.8481  0.4338
80696SOL     OW60079   5.417   2.831  11.220 -0.7561  0.5549  0.1194
80696SOL    HW160080   5.347   2.887  11.254 -0.9632  0.5002 -0.2153
80696SOL    HW260081   5.393   2.743  11.250 -1.4604  0.3541 -0.9702
80697SOL     OW60082  13.254   4.045   0.259 -0.3785  0.3201 -0.1998
80697SOL    HW160083  13.308   4.023   0.335 -1.6881 -3.3206 -0.1127
80697SOL    HW260084  13.316   4.058   0.188  0.8096  2.6319  1.1405
80698SOL     OW60085   4.459  14.090   1.619  0.1081  0.2278 -0.2807
80698SOL    HW160086   4.426  14.136   1.697 -0.5341  0.8756 -0.9277
80698SOL    HW260087   4.395  14.108   1.551  0.8905  0.0225 -1.0863
80699SOL     OW60088  13.869   1.203   3.156 -0.0869 -0.0455 -0.3865
80699SOL    HW160089  13.939   1.251   3.200 -0.1999  0.5665 -0.8505
80699SOL    HW260090  13.912   1.128   3.116  0.2205  0.0590 -0.2562
80700SOL     OW60091   8.748   6.447  11.682 -0.5026  0.4337  0.1961
80700SOL    HW160092   8.840   6.472  11.671 -0.3253 -0.0443  0.5455
80700SOL    HW260093   8.723   6.410  11.597 -0.0830 -0.3103  0.3839
80701SOL     OW60094   1.167   4.182   1.690 -0.6589  0.6867 -0.1626
80701SOL    HW160095   1.184   4.090   1.711 -0.0455  0.3378 -1.9783
80701SOL    HW260096   1.251   4.214   1.657 -0.9300  1.8377  0.2498
80702SOL     OW60097   8.334   9.166   4.606 -0.3009 -0.1576  0.7010
80702SOL    HW160098   8.307   9.126   4.523  1.5413 -2.5143  1.1024
80702SOL    HW260099   8.427   9.186   4.593 -0.7287  2.5096  1.1732
80703SOL     OW60100  10.135   5.624   6.246  0.2495 -0.0195 -0.5262
80703SOL    HW160101  10.070   5.693   6.234 -1.7839 -1.7836 -0.3147
80703SOL    HW260102  10.148   5.617   6.340  1.6044  1.0058 -0.5987
80704SOL     OW60103   6.396   4.410   6.536 -0.1725 -0.1312 -0.1622
80704SOL    HW160104   6.465   4.352   6.505  1.0391  1.3938 -0.4705
80704SOL    HW260105   6.336   4.353   6.583  0.9150 -1.6277 -0.5060
80705SOL     OW60106   0.215   3.363   7.442  0.1092 -0.2751 -0.5497
80705SOL    HW160107   0.159   3.286   7.454  0.6029 -0.6934 -0.9125
80705SOL    HW260108   0.181   3.427   7.506 -0.6035 -0.6171 -0.5721
80706SOL     OW60109   9.899   7.451   4.767  0.1821 -0.7292  0.8619
80706SOL    HW160110   9.911   7.448   4.862 -0.6678  0.7425  1.0465
80706SOL    HW260111   9.805   7.469   4.755 -0.5288 -4.4341 -0.3521
80707SOL     OW60112   1.062  11.474   0.429 -0.6628  0.2430 -0.3487
80707SOL    HW160113   1.081  11.529   0.505 -1.3661 -1.8792  1.4549
80707SOL    HW260114   0.966  11.476   0.421 -0.6836 -0.5512 -0.3692
80708SOL     OW60115   1.568   2.983  14.111  0.1410  0.2010 -0.1202
80708SOL    HW160116   1.663   2.994  14.108  0.1057  0.3911 -0.8183
80708SOL    HW260117   1.534   3.068  14.084 -0.2332  0.2647  0.5642
80709SOL     OW60118  11.931  11.350  12.258 -0.8459 -0.2500  0.2010
80709SOL    HW160119  11.909  11.268  12.303 -0.2012 -0.9190 -0.6829
80709SOL    HW260120  11.861  11.363  12.195 -1.9462  0.8796  1.5747
80710SOL     OW60121   1.919   4.949  12.706 -0.2125  0.4492 -0.0237
80710SOL    HW160122   1.903   5.042  12.686  0.9347  1.4843  3.2967
80710SOL    HW260123   1.850   4.926  12.768  1.7216  0.3115  2.1805
80711SOL     OW60124  14.060  12.219   0.408 -0.3780 -0.2855  0.4113
80711SOL    HW160125  14.065  12.196   0.316  0.5221 -1.6282  0.7600
80711SOL    HW260126  13.970  12.196   0.434 -0.8351  0.7053 -0.2621
80712SOL     OW60127  10.411  10.880   2.506  0.0302  0.0569 -0.0897
80712SOL    HW160128  10.460  10.944   2.558 -1.6405  2.0792 -0.8381
80712SOL    HW260129  10.332  10.927   2.479 -0.5367 -1.8530 -2.0275
80713SOL     OW60130   6.905   1.984   7.936  0.0296  0.3361 -0.3300
80713SOL    HW160131   6.996   1.970   7.912  0.3536 -1.2259  1.5704
80713SOL    HW260132   6.905   1.988   8.032 -1.9416 -0.0698 -0.2627
80714SOL     OW60133  13.745  12.892   1.549  0.5032  1.0745  0.3129
80714SOL    HW160134  13.751  12.850   1.634  0.3059  1.8304  0.7060
80714SOL    HW260135  13.811  12.961   1.551  0.9614  0.6668 -0.4011
80715SOL     OW60136  11.300   9.831  12.483 -0.0744  0.3680 -0.1868
80715SOL    HW160137  11.282   9.799  12.571 -0.0666 -0.2734 -0.4097
80715SOL    HW260138  11.238   9.785  12.427  0.9984 -0.4825 -0.7204
80716SOL     OW60139  10.223   2.319   6.814 -0.7208  1.0120  0.8196
80716SOL    HW160140  10.295   2.332   6.752  0.8430 -0.5079  2.1945
80716SOL    HW260141  10.157   2.272   6.765 -1.3742  3.4483 -0.8157
80717SOL     OW60142   0.080   2.248   1.051  0.0901  0.3077 -0.2205
80717SOL    HW160143   0.035   2.326   1.018 -0.2145  0.0708 -0.3755
80717SOL    HW260144   0.172   2.265   1.035  0.1495  1.1776  0.8908
80718SOL     OW60145   9.414  11.796  13.145 -0.1173 -0.7224 -0.5179
80718SOL    HW160146   9.378  11.882  13.164 -0.4794 -0.6614 -1.3862
80718SOL    HW260147   9.395  11.783  13.051  1.0768 -1.1981 -0.7070
80719SOL     OW60148   6.366   4.436   8.179 -0.3251 -0.0764 -0.1625
80719SOL    HW160149   6.310   4.359   8.173 -0.8822  0.2994  0.1102
80719SOL    HW260150   6.319   4.504   8.130 -0.4619  0.4370  0.6557
80720SOL     OW60151  13.165  11.606   1.113 -0.5109 -0.1705 -0.0270
80720SOL    HW160152  13.136  11.538   1.174  0.9411 -0.0722  0.8143
80720SOL    HW260153  13.245  11.571   1.075  0.6896  1.3699  0.9998
80721SOL     OW60154   6.062   2.167  13.181  0.2046  0.2830 -0.7577
80721SOL    HW160155   5.971   2.152  13.156 -0.2813  2.6924 -0.7132
80721SOL    HW260156   6.074   2.117  13.262 -1.1811  0.1892 -0.5978
80722SOL     OW60157   9.116   1.383   6.508  0.4787  0.2916  0.0046
80722SOL    HW160158   9.199   1.360   6.549  0.4107  0.5180  0.2691
80722SOL    HW260159   9.137   1.392   6.415  0.8040  0.5902  0.1062
80723SOL     OW60160   6.024   4.452   5.737  0.5139  0.5569 -0.3334
80723SOL    HW160161   6.072   4.422   5.660  0.2958 -1.1240  0.1562
80723SOL    HW260162   6.045   4.388   5.805 -0.2861  1.3164  0.6587
80724SOL     OW60163   9.774   8.600   0.301  0.1156 -0.2894  0.0333
80724SOL    HW160164   9.869   8.603   0.309  0.0931 -2.0169  1.8459
80724SOL    HW260165   9.757   8.521   0.249 -0.3298  1.5633 -2.8521
80725SOL     OW60166  12.519   1.666  10.761  0.8094  0.5375  0.1299
80725SOL    HW160167  12.526   1.711  10.845 -0.5522  1.8807 -0.4289
80725SOL    HW260168  12.558   1.727  10.698 -1.2989  1.1456 -0.6800
80726SOL     OW60169   0.350   9.046   5.750 -0.2430  0.4224  0.2457
80726SOL    HW160170   0.334   9.131   5.792  1.0666  1.3195 -0.9515
80726SOL    HW260171   0.440   9.025   5.775 -0.2217 -0.1183 -0.2839
80727SOL     OW60172   5.302   1.853  13.083  0.1894 -0.2633  0.0556
80727SOL    HW160173   5.389   1.851  13.125  0.0797  0.0481  0.3043
80727SOL    HW260174   5.267   1.766  13.096  1.1244 -0.9185 -1.4637
80728SOL     OW60175   9.802   8.136   4.458  0.2164  0.7970 -0.3368
80728SOL    HW160176   9.898   8.135   4.461  0.2021 -0.3756  2.2385
80728SOL    HW260177   9.780   8.074   4.388  1.3440  0.4943 -0.4424
80729SOL     OW60178   7.323   8.184  12.418 -0.2212  0.5445 -0.6191
80729SOL    HW160179   7.363   8.098  12.417 -0.4475  0.4347 -0.3118
80729SOL    HW260180   7.323   8.212  12.326  0.2162  0.3906 -0.6682
80730SOL     OW60181  11.077  11.468   4.946 -0.2402 -0.2672  0.7942
80730SOL    HW160182  11.099  11.395   5.004  0.5202 -0.3183  0.4468
80730SOL    HW260183  11.136  11.539   4.971 -1.1506  0.3335  1.3047
80731SOL     OW60184   9.635   8.799  10.375 -0.7232  0.2784 -0.2790
80731SOL    HW160185   9.703   8.835  10.319 -0.2345  0.4244  0.3953
80731SOL    HW260186   9.677   8.724  10.418 -0.5839  1.0655  1.0387
80732SOL     OW60187   1.481   0.600   2.206 -0.3171 -0.4881  0.6414
80732SOL    HW160188   1.416   0.636   2.145 -1.2448 -1.5570  0.9700
80732SOL    HW260189   1.508   0.518   2.166  0.8045 -0.0843  0.5445
80733SOL     OW60190   5.070   3.959   4.491 -0.2823  0.6813  0.5949
80733SOL    HW160191   5.120   3.968   4.572 -0.5142 -2.3086  1.1951
80733SOL    HW260192   5.004   3.893   4.511 -1.7714  1.4552 -1.4227
80734SOL     OW60193   7.200  14.023   7.513 -0.1731  0.7946  0.0854
80734SOL    HW160194   7.260  13.951   7.490 -1.2840 -0.6848  1.5606
80734SOL    HW260195   7.200  14.080   7.436 -0.4802 -1.6544 -1.8676
80735SOL     OW60196   1.260  13.325   7.939 -0.4755  0.2975 -0.6373
80735SOL    HW160197   1.236  13.251   7.993 -0.7354  0.9200  0.1139
80735SOL    HW260198   1.347  13.350   7.970 -0.8421  0.9829 -0.1295
80736SOL     OW60199   2.133   8.148   7.746  0.2703  0.0666  0.0964
80736SOL    HW160200   2.040   8.123   7.740  0.7829 -2.7575  1.9181
80736SOL    HW260201   2.131   8.236   7.783 -1.6763  0.7575 -1.4721
80737SOL     OW60202   5.787   3.875   4.837  0.1057  0.1422  0.3054
80737SOL    HW160203   5.824   3.948   4.888  0.3898 -0.0793  0.4177
80737SOL    HW260204   5.702   3.859   4.878 -1.5574  2.6581 -1.8275
80738SOL     OW60205   1.270  12.943   1.253  0.0153  0.1249 -0.2667
80738SOL    HW160206   1.250  13.031   1.286  1.2792  1.0771 -1.9332
80738SOL    HW260207   1.223  12.936   1.170 -0.4623 -0.9909  0.0677
80739SOL     OW60208  14.139   0.866   6.731 -0.1157 -0.4510  0.2189
80739SOL    HW160209  14.055   0.909   6.723 -0.1700 -0.5844  0.0601
80739SOL    HW260210  14.192   0.902   6.660 -0.1803 -0.6845  0.0483
80740SOL     OW60211   4.978   8.462   0.540 -0.0074  0.0695 -0.1422
80740SOL    HW160212   4.952   8.554   0.543 -0.9095 -0.1671 -0.3756
80740SOL    HW260213   4.961   8.428   0.628  1.8680  0.5146  0.4197
80741SOL     OW60214  10.634  12.645   7.101 -0.0232  0.0405 -0.4807
80741SOL    HW160215  10.549  12.676   7.133 -0.0619 -0.3913 -0.1558
80741SOL    HW260216  10.694  12.718   7.118 -0.1427  0.0056  0.1403
80742SOL     OW60217   6.621  10.352  12.191  0.6238  0.1563  1.8976
80742SOL    HW160218   6.560  10.423  12.173 -0.3004 -0.9856  0.3056
80742SOL    HW260219   6.707  10.391  12.174  0.0866  0.6792  0.1737
80743SOL     OW60220   3.776  13.401   6.176  0.0851 -0.7597 -0.6138
80743SOL    HW160221   3.803  13.419   6.086 -1.9598  0.1559 -1.1014
80743SOL    HW260222   3.837  13.333   6.206  1.4158 -0.4019 -2.3383
80744SOL     OW60223  12.690   4.811   1.522 -0.3993  0.1309 -0.4810
80744SOL    HW160224  12.775   4.854   1.512  0.0202 -0.6356 -0.2675
80744SOL    HW260225  12.695   4.768   1.607 -1.4871  1.1297  0.1185
80745SOL     OW60226   9.826  13.077   3.762  0.3198  0.2360 -0.0851
80745SOL    HW160227   9.903  13.024   3.741 -0.1539 -0.5539  0.1413
80745SOL    HW260228   9.754  13.033   3.717  0.0513  1.1732 -0.5959
80746SOL     OW60229   4.861   6.826  11.102  0.4977  0.1911 -0.2814
80746SOL    HW160230   4.875   6.736  11.071 -0.6083  0.3055 -1.1919
80746SOL    HW260231   4.936   6.844  11.157 -0.4710 -2.2585  2.1232
80747SOL     OW60232  11.147   0.735   8.860  0.0570 -0.0443 -0.1678
80747SOL    HW160233  11.133   0.654   8.809 -0.2314 -0.6460  0.8461
80747SOL    HW260234  11.133   0.709   8.951  0.3959  1.0625  0.2130
80748SOL     OW60235   5.603  10.822  10.955  0.2233  0.5719 -0.4904
80748SOL    HW160236   5.614  10.817  10.860 -0.1159 -0.0662 -0.5011
80748SOL    HW260237   5.606  10.916  10.974 -0.7870  0.7713 -1.2596
80749SOL     OW60238  12.888   5.028   3.304 -0.2903  0.2948  0.0256
80749SOL    HW160239  12.824   5.009   3.236 -0.7489  0.7712  0.3249
80749SOL    HW260240  12.892   5.123   3.308  1.1942  0.2935 -0.6998
80750SOL     OW60241  11.227   7.920   8.747 -0.8053 -0.1473  0.0906
80750SOL    HW160242  11.258   7.955   8.831 -0.4904 -0.4872  0.1207
80750SOL    HW260243  11.267   7.976   8.681  0.8827 -1.2767  0.0753
80751SOL     OW60244   8.924  11.842  11.471  0.3184  0.5591  0.1838
80751SOL    HW160245   8.968  11.758  11.480 -0.9801  0.0646  3.8537
80751SOL    HW260246   8.992  11.907  11.489  1.2754  0.3696 -2.4429
80752SOL     OW60247  10.172   7.691   6.450 -0.2622  0.1039 -0.0759
80752SOL    HW160248  10.204   7.781   6.445  0.5143 -0.1812 -0.4366
80752SOL    HW260249  10.246   7.637   6.421 -0.8732 -0.6185 -0.3481
80753SOL     OW60250   1.053  11.476   2.884 -0.1207 -0.1481  0.0791
80753SOL    HW160251   0.987  11.463   2.953 -0.1098  0.0751  0.1340
80753SOL    HW260252   1.088  11.563   2.901 -0.7150  0.2584 -0.7145
80754SOL     OW60253   7.481   9.969  10.285 -0.0101 -0.5601 -0.0360
80754SOL    HW160254   7.503   9.884  10.246 -0.1458 -1.0540  0.9239
80754SOL    HW260255   7.526   9.968  10.370 -0.5002  0.0831  0.2359
80755SOL     OW60256  10.246   1.298  13.202  0.7092  0.4973  0.0327
80755SOL    HW160257  10.270   1.376  13.252  0.0740 -0.1302  1.3665
80755SOL    HW260258  10.297   1.305  13.121  1.2605  1.8830  0.4657
80756SOL     OW60259   8.587  13.754   7.609 -0.2598 -0.2203 -0.2501
80756SOL    HW160260   8.583  13.711   7.523 -1.2403  0.4992 -0.5754
80756SOL    HW260261   8.505  13.803   7.616  0.0663  0.2007  0.8552
80757SOL     OW60262   9.684   1.810   7.585 -0.2981  0.7723 -0.1635
80757SOL    HW160263   9.745   1.740   7.607 -0.6690  0.2648 -0.7303
80757SOL    HW260264   9.741   1.883   7.557  0.1539  1.2362  1.8070
80758SOL     OW60265  10.539   4.594   5.724 -0.0635  0.6913  0.3386
80758SOL    HW160266  10.613   4.620   5.778 -1.1177  0.1999  2.1290
80758SOL    HW260267  10.562   4.621   5.635  0.8117  3.6459  1.3413
80759SOL     OW60268   7.532  10.114   0.229  0.0596 -0.2571 -0.7393
80759SOL    HW160269   7.469  10.042   0.220 -1.1483  0.8679 -1.5495
80759SOL    HW260270   7.614  10.070   0.252 -0.9505 -1.7828  0.1942
80760SOL     OW60271   4.680  11.286   3.467  0.1568  0.4932  1.1197
80760SOL    HW160272   4.673  11.191   3.476  2.3835  0.2991  1.1630
80760SOL    HW260273   4.589  11.317   3.473 -0.4775 -1.4790  2.6442
80761SOL     OW60274   3.857  12.254   7.619 -0.3354 -0.0866  0.0720
80761SOL    HW160275   3.892  12.310   7.689  1.7341 -0.4529 -0.5769
80761SOL    HW260276   3.871  12.164   7.651  0.3570 -0.2513 -0.6529
80762SOL     OW60277  11.334   0.072  11.044  0.0092  0.3128  0.0678
80762SOL    HW160278  11.281   0.109  11.114  1.4142  0.5820  1.0164
80762SOL    HW260279  11.321   0.132  10.970  0.3410  1.3656  0.8388
80763SOL     OW60280  13.836  13.756   6.439 -0.0541  0.1106 -0.3573
80763SOL    HW160281  13.893  13.748   6.363  0.8053  0.9760  0.1786
80763SOL    HW260282  13.770  13.820   6.414  0.6120  0.8883 -0.1621
80764SOL     OW60283   2.995   1.969   0.455 -0.1801 -0.4754 -0.1039
80764SOL    HW160284   2.981   2.046   0.510 -0.7248 -1.1162  0.6859
80764SOL    HW260285   3.031   1.904   0.515 -1.4403 -1.4144 -0.3219
80765SOL     OW60286   4.257   9.541   3.696 -0.2769 -0.2280 -0.1484
80765SOL    HW160287   4.221   9.609   3.753  2.3201  1.0747  0.0687
80765SOL    HW260288   4.212   9.554   3.613 -0.3742  1.2744  0.1147
80766SOL     OW60289   2.877   7.973   1.770 -0.5994 -0.3056 -0.0325
80766SOL    HW160290   2.917   8.054   1.738  0.6253 -0.8183  0.1344
80766SOL    HW260291   2.901   7.971   1.863 -0.0036 -1.2083 -0.1990
80767SOL     OW60292   0.244   7.588   4.892  0.3861 -0.1751  0.3303
80767SOL    HW160293   0.176   7.655   4.893  0.6821  0.1366 -0.0320
80767SOL    HW260294   0.325   7.636   4.909  0.4074 -0.6778  1.7014
80768SOL     OW60295   7.614   5.565  11.835 -0.5760 -0.0581  0.3342
80768SOL    HW160296   7.647   5.579  11.746 -0.4851 -0.0048  0.3766
80768SOL    HW260297   7.675   5.503  11.874 -0.1350  0.5657  0.6422
80769SOL     OW60298   9.928   5.028   6.906  0.7791 -0.1423 -1.0384
80769SOL    HW160299   9.982   4.950   6.908  1.1266  0.0967  0.5081
80769SOL    HW260300   9.987   5.099   6.932 -0.2267  0.1179  0.6992
80770SOL     OW60301   1.416   1.288   3.219  0.0273  0.0746  0.1653
80770SOL    HW160302   1.472   1.355   3.182  1.4983 -1.0286  0.3132
80770SOL    HW260303   1.396   1.230   3.145  0.2902 -0.3329  0.4106
80771SOL     OW60304   7.126  12.601   9.157  0.2466  0.1486  0.1397
80771SOL    HW160305   7.064  12.611   9.229  0.6700  0.3678  0.4789
80771SOL    HW260306   7.183  12.677   9.164  0.1757  0.2692 -0.5497
80772SOL     OW60307   7.337   3.571   9.513 -0.2324  0.4574 -0.3954
80772SOL    HW160308   7.335   3.622   9.594  0.2851 -0.4116  0.1854
80772SOL    HW260309   7.271   3.612   9.457 -0.5986  1.0720  0.4621
80773SOL     OW60310   8.319   6.372   0.105  0.2451 -0.2330  0.1640
80773SOL    HW160311   8.240   6.405   0.148 -0.0834 -2.0499  1.0210
80773SOL    HW260312   8.293   6.287   0.069  1.5757 -0.4550 -0.3216
80774SOL     OW60313   7.657   2.460  10.023  0.1694 -0.4176  0.1845
80774SOL    HW160314   7.668   2.418   9.937 -0.1609  0.2539 -0.1922
80774SOL    HW260315   7.746   2.470  10.056  0.2532 -1.4319  0.2913
80775SOL     OW60316  12.489   7.965   1.851  0.3493  0.3978 -0.0242
80775SOL    HW160317  12.414   7.978   1.909  0.6846  0.1954  0.4561
80775SOL    HW260318  12.509   8.053   1.819  0.1282  0.5011  0.1174
80776SOL     OW60319   2.898   3.045   1.547 -0.7381  0.7802 -0.3140
80776SOL    HW160320   2.849   2.967   1.575 -0.7115  1.1503  0.8010
80776SOL    HW260321   2.850   3.078   1.472 -0.7546 -0.3072 -0.7982
80777SOL     OW60322  10.235  12.730  10.220 -0.0305 -0.0363  0.0722
80777SOL    HW160323  10.222  12.635  10.212  0.3736 -0.2165  1.2598
80777SOL    HW260324  10.155  12.761  10.264 -0.1101  0.1559 -0.2107
80778SOL     OW60325   0.992  12.311  11.927 -1.1886 -0.0830 -0.1960
80778SOL    HW160326   0.957  12.395  11.954 -1.7542 -0.4093  0.0994
80778SOL    HW260327   1.086  12.326  11.915 -1.4870  0.9282 -1.5057
80779SOL     OW60328  13.824   9.094  12.430  0.0380 -0.2258 -0.6096
80779SOL    HW160329  13.828   9.185  12.403  2.1124 -0.2376 -0.4973
80779SOL    HW260330  13.734   9.067  12.410 -0.7124  1.8957 -0.3604
80780SOL     OW60331   2.929  13.185   1.356  0.0989  0.7254  0.1131
80780SOL    HW160332   2.981  13.254   1.397  0.3860  0.0681  0.8712
80780SOL    HW260333   2.870  13.232   1.297  0.5466  1.5890  0.3355
80781SOL     OW60334   3.354  12.119   6.557  0.1752  0.4645 -0.0331
80781SOL    HW160335   3.397  12.176   6.622 -1.9078  2.0217  0.0722
80781SOL    HW260336   3.277  12.085   6.602  0.1642 -0.6550 -0.8525
80782SOL     OW60337   7.158   6.067   4.185  0.1133 -0.0156  0.4033
80782SOL    HW160338   7.106   6.095   4.259 -1.4991 -1.4183 -0.1328
80782SOL    HW260339   7.185   6.148   4.142  0.7215  0.8134  2.2226
80783SOL     OW60340  13.226   3.270   4.686 -0.1872 -0.4610  0.5582
80783SOL    HW160341  13.133   3.293   4.695 -0.3037  0.5485 -2.2628
80783SOL    HW260342  13.227   3.199   4.623  1.0485  1.0194 -1.1845
80784SOL     OW60343   5.883   7.873   0.958  0.2465  0.6393  0.0128
80784SOL    HW160344   5.957   7.912   0.911  2.6291  0.0429  2.9623
80784SOL    HW260345   5.917   7.790   0.990 -1.6485  0.4535  1.6784
80785SOL     OW60346   7.903   7.982  13.121 -0.2370 -0.2591 -0.3460
80785SOL    HW160347   7.949   8.061  13.090 -0.9428 -0.0139 -0.7991
80785SOL    HW260348   7.972   7.917  13.131  0.0305 -0.4662 -2.8199
80786SOL     OW60349   6.787  12.221   7.094 -0.0476 -0.0562  0.2814
80786SOL    HW160350   6.845  12.287   7.055  0.4225 -0.3150  0.5356
80786SOL    HW260351   6.766  12.255   7.181  0.3980 -0.3577  0.5094
80787SOL     OW60352   6.096   5.812   7.866  0.1839  0.0025  0.2602
80787SOL    HW160353   6.084   5.905   7.883  0.5965  0.3541 -1.2623
80787SOL    HW260354   6.030   5.790   7.801  1.2961 -0.3178 -0.7880
80788SOL     OW60355   8.161   5.715   9.268 -0.2183 -0.1581 -0.0535
80788SOL    HW160356   8.250   5.712   9.303 -0.0781  0.6799 -0.3394
80788SOL    HW260357   8.168   5.679   9.179  0.0717  1.1186 -0.5579
80789SOL     OW60358   6.031   8.317   7.209  0.6725 -0.9837  0.6860
80789SOL    HW160359   6.058   8.228   7.186 -0.1612 -0.3291 -3.6573
80789SOL    HW260360   6.106   8.372   7.187 -0.2975 -0.2372 -0.8706
80790SOL     OW60361   2.152   8.930  12.797  0.5197  0.2057  0.5699
80790SOL    HW160362   2.173   9.018  12.765  0.8809 -0.0449  0.1051
80790SOL    HW260363   2.083   8.899  12.738  0.5194  0.1106  0.6200
80791SOL     OW60364   6.098   6.520  10.916  0.4348 -0.5790  0.3583
80791SOL    HW160365   6.049   6.506  10.997  0.4197 -1.2689  0.2335
80791SOL    HW260366   6.149   6.440  10.905  2.0811  0.3616  0.8226
80792SOL     OW60367  11.910   7.841  10.419  0.1554 -0.7476 -0.3892
80792SOL    HW160368  11.825   7.816  10.383  0.8761 -1.7845 -1.4731
80792SOL    HW260369  11.898   7.835  10.514 -1.1699 -0.1757 -0.5008
80793SOL     OW60370  12.196   6.728   9.010 -0.5191  0.9199 -0.2568
80793SOL    HW160371  12.215   6.659   8.946 -2.6268 -0.1105  0.1427
80793SOL    HW260372  12.280   6.746   9.052  0.0145 -1.8958  0.0769
80794SOL     OW60373  13.314  10.900   3.770  0.3870  0.3164 -0.0760
80794SOL    HW160374  13.347  10.909   3.859 -1.2097  1.6142  0.4319
80794SOL    HW260375  13.357  10.970   3.721 -0.3286  0.9711  0.2057
80795SOL     OW60376   1.476   5.088   7.631 -0.2105 -0.1744  0.0540
80795SOL    HW160377   1.552   5.143   7.653 -0.8641  0.7144  0.1447
80795SOL    HW260378   1.404   5.150   7.620 -0.3822 -0.7480 -2.6373
80796SOL     OW60379   4.281   6.578   4.707  0.5514  0.1206 -0.0094
80796SOL    HW160380   4.249   6.668   4.704 -0.0933 -0.1193 -0.3891
80796SOL    HW260381   4.271   6.553   4.799 -1.5268 -0.3610 -0.3299
80797SOL     OW60382   9.895   6.448  12.405  0.0915  0.6028 -0.4784
80797SOL    HW160383   9.986   6.433  12.433  0.7983  2.5564 -1.5248
80797SOL    HW260384   9.866   6.522  12.458 -2.0911 -1.8947  2.1479
80798SOL     OW60385  13.284   7.558  12.241 -0.0463  0.3580  0.5718
80798SOL    HW160386  13.321   7.588  12.324  1.8307 -0.2174  0.0004
80798SOL    HW260387  13.263   7.466  12.257  2.1802 -0.3390 -0.0844
80799SOL     OW60388  10.085   9.120   6.767 -0.6546  0.2781 -0.4865
80799SOL    HW160389  10.052   9.040   6.727 -0.0718  0.1891 -0.7877
80799SOL    HW260390  10.010   9.180   6.765 -1.8349 -0.9729  1.8401
80800SOL     OW60391   1.293   3.849   7.464 -0.7479 -0.7202 -0.3708
80800SOL    HW160392   1.381   3.825   7.493 -0.4012  0.4463 -0.4096
80800SOL    HW260393   1.299   3.942   7.443 -1.9866 -0.6309 -0.4163
80801SOL     OW60394  14.130   2.880  10.447  0.7617 -0.1527 -0.1023
80801SOL    HW160395  14.211   2.888  10.396  1.2977 -0.7363  0.6394
80801SOL    HW260396  14.062   2.910  10.388  1.3574 -0.8709 -1.1894
80802SOL     OW60397   2.200  12.457  10.748 -0.2165  0.1548  0.3287
80802SOL    HW160398   2.191  12.540  10.795  1.5205  0.3978  0.2954
80802SOL    HW260399   2.254  12.478  10.671  1.5453 -1.2612  1.1079
80803SOL     OW60400   6.547   7.218   0.353 -0.2809 -0.3511  0.3211
80803SOL    HW160401   6.511   7.212   0.264  0.5562 -0.5891 -0.0080
80803SOL    HW260402   6.628   7.168   0.349 -0.7572 -1.2615  1.5000
80804SOL     OW60403   2.483  11.052  13.773  0.5857 -0.0093  0.5002
80804SOL    HW160404   2.472  11.068  13.680 -0.9283 -0.7767  0.5057
80804SOL    HW260405   2.565  11.003  13.780 -0.0758 -1.3351 -0.6316
80805SOL     OW60406   3.498  11.675  11.072 -0.1252 -0.0882  0.5273
80805SOL    HW160407   3.407  11.657  11.095  0.1857 -0.6252  1.3980
80805SOL    HW260408   3.546  11.666  11.155  0.3399  3.0774  0.7350
80806SOL     OW60409  12.367   3.677   4.760 -0.2206  0.5017  0.3351
80806SOL    HW160410  12.421   3.662   4.683  0.3523 -0.5198  0.9029
80806SOL    HW260411  12.404   3.755   4.802 -1.7238  2.2474 -1.3891
80807SOL     OW60412  11.765   2.954   0.913  0.2155  0.2653  0.1128
80807SOL    HW160413  11.791   3.009   0.987  1.1669  0.0139 -0.0247
80807SOL    HW260414  11.781   2.864   0.943  2.2709  0.2055 -0.9603
80808SOL     OW60415   2.933   0.198   3.006 -0.3055 -0.1095 -0.5226
80808SOL    HW160416   3.009   0.148   3.037  0.1132  0.6769 -0.2535
80808SOL    HW260417   2.925   0.270   3.069  0.3697  1.3584 -2.0619
80809SOL     OW60418   6.634   7.641  11.433 -0.3702 -0.0177 -0.4644
80809SOL    HW160419   6.659   7.605  11.518 -0.2122  0.4670 -0.3042
80809SOL    HW260420   6.621   7.564  11.377 -1.8338 -0.4101  0.3569
80810SOL     OW60421   2.413   4.460   2.796  0.1392 -0.0853 -0.3910
80810SOL    HW160422   2.379   4.528   2.737 -3.0185 -0.2053  1.0860
80810SOL    HW260423   2.466   4.404   2.739  1.2615  2.4587 -2.0585
80811SOL     OW60424  12.001   2.556   0.925 -0.0649  0.6287 -0.1340
80811SOL    HW160425  11.996   2.652   0.921 -2.9011  0.6248  1.1479
80811SOL    HW260426  11.992   2.536   1.018  1.6198 -0.9077 -0.2416
80812SOL     OW60427   3.521   2.485   3.334  0.2628  0.6321 -0.2327
80812SOL    HW160428   3.485   2.397   3.342  0.1455  0.8281  1.7931
80812SOL    HW260429   3.555   2.488   3.244  0.4859 -1.5370 -0.2854
80813SOL     OW60430   3.066  14.079  13.396 -0.0284 -0.5779  0.6348
80813SOL    HW160431   3.151  14.088  13.354 -0.1102 -1.7775  0.1665
80813SOL    HW260432   3.041  14.169  13.420  1.1141 -0.1573  0.3035
80814SOL     OW60433  11.869   0.366  12.615  0.2332  0.4735 -0.0508
80814SOL    HW160434  11.870   0.296  12.549  1.0171  1.4802 -1.1426
80814SOL    HW260435  11.923   0.332  12.686 -0.3421 -0.4937 -0.0489
80815SOL     OW60436   8.465   0.534  10.005  0.0870  0.7878 -0.0674
80815SOL    HW160437   8.429   0.467  10.063 -0.1122  0.6531 -0.3408
80815SOL    HW260438   8.420   0.614  10.031 -1.4289  0.3870 -1.2713
80816SOL     OW60439   4.020  13.518   6.561  0.2478 -0.1932  0.3674
80816SOL    HW160440   4.100  13.484   6.521  0.1100  0.5671 -0.6057
80816SOL    HW260441   3.987  13.446   6.614  0.9608 -0.9091 -0.1338
80817SOL     OW60442   4.246   1.883   8.646  0.1008  0.2710 -0.0851
80817SOL    HW160443   4.173   1.910   8.701  0.2342  0.2894  0.0816
80817SOL    HW260444   4.263   1.792   8.671 -0.2155  0.0909 -0.5031
80818SOL     OW60445   4.420   6.335   4.639  0.0227  0.3799  0.3787
80818SOL    HW160446   4.403   6.425   4.666  1.0483  0.3293  1.2439
80818SOL    HW260447   4.399   6.282   4.716 -1.4043 -0.2268 -0.3897
80819SOL     OW60448   2.692  13.754   5.966  0.7005  0.2830 -0.3800
80819SOL    HW160449   2.782  13.724   5.972  0.6877  0.3715  0.3357
80819SOL    HW260450   2.646  13.683   5.920  1.1843  0.3767 -1.0248
80820SOL     OW60451   2.709  12.953  10.738 -0.0760  0.3783 -0.2865
80820SOL    HW160452   2.733  12.895  10.665  1.5264  0.2512  0.3100
80820SOL    HW260453   2.783  12.947  10.798 -0.9352  1.2610  0.8878
80821SOL     OW60454  11.022  11.177  11.762 -1.2021 -0.1326  0.6372
80821SOL    HW160455  11.048  11.122  11.689 -0.5468 -1.0720  1.5390
80821SOL    HW260456  10.982  11.254  11.722  0.7350  0.2102 -0.7498
80822SOL     OW60457  11.070   4.062   3.947  0.8162 -0.4563 -0.7398
80822SOL    HW160458  10.985   4.034   3.913 -0.1029  0.8485  0.3888
80822SOL    HW260459  11.131   3.995   3.916 -0.4663 -0.9925 -2.2671
80823SOL     OW60460   3.110   3.622  12.091 -0.2751 -0.2547  0.3310
80823SOL    HW160461   3.199   3.656  12.095 -0.2729 -0.3346  1.1658
80823SOL    HW260462   3.099   3.593  12.001  0.0778  0.9867 -0.1288
80824SOL     OW60463   3.767   3.300  12.863 -0.6020  0.7084  0.2972
80824SOL    HW160464   3.808   3.347  12.791  1.1030 -2.0556 -0.7036
80824SOL    HW260465   3.726   3.224  12.822 -2.0927  0.5567  1.9478
80825SOL     OW60466  13.360   8.817   3.866 -0.2292 -0.5271  0.0703
80825SOL    HW160467  13.418   8.882   3.827 -1.7858  0.3709 -0.8726
80825SOL    HW260468  13.409   8.735   3.862  1.1652  0.2885 -0.1816
80826SOL     OW60469   6.517  13.636   3.407  0.5772  0.2214  0.8363
80826SOL    HW160470   6.462  13.591   3.343  3.6099 -1.6936 -0.6737
80826SOL    HW260471   6.505  13.729   3.388 -0.9704 -0.1881 -0.3904
80827SOL     OW60472   1.137   4.074  12.529  0.0762 -0.3711 -0.0382
80827SOL    HW160473   1.196   4.124  12.586 -0.5922  0.5738 -0.1589
80827SOL    HW260474   1.093   4.140  12.476 -0.3153 -1.1438 -0.6974
80828SOL     OW60475   7.915   5.770   2.806  0.2692  0.5383 -0.2297
80828SOL    HW160476   7.912   5.808   2.719  0.1707  0.5356 -0.2281
80828SOL    HW260477   7.844   5.705   2.806 -0.3779  1.2224  0.1671
80829SOL     OW60478   1.400   7.539   6.584  0.1919 -0.1618  0.1692
80829SOL    HW160479   1.320   7.590   6.591 -0.7644 -1.7077  1.2236
80829SOL    HW260480   1.399   7.504   6.495  1.1936  2.0564 -0.8065
80830SOL     OW60481   6.047   2.064  13.481 -0.1407  0.0915 -0.4923
80830SOL    HW160482   5.992   2.071  13.559  2.5444 -0.1063  1.5151
80830SOL    HW260483   6.080   1.974  13.483  1.9614  0.8312 -0.3982
80831SOL     OW60484   4.280   8.830   0.902  0.4319  0.0458  0.4162
80831SOL    HW160485   4.231   8.805   0.980 -2.4395 -0.4402 -1.4278
80831SOL    HW260486   4.246   8.917   0.880 -0.2731 -0.6573 -1.3776
80832SOL     OW60487   3.331   1.647   9.016 -0.2686  0.0023  0.3023
80832SOL    HW160488   3.341   1.705   8.941  2.0227 -0.7739 -0.0901
80832SOL    HW260489   3.385   1.570   8.994 -1.5493 -1.3633  1.6677
80833SOL     OW60490   7.280   3.631  10.200  0.5502  0.3887 -0.1713
80833SOL    HW160491   7.216   3.648  10.269  0.5568 -1.1842  0.2560
80833SOL    HW260492   7.239   3.564  10.146  0.8459  1.0964 -1.3147
80834SOL     OW60493   4.461   9.915   3.781 -0.1214  0.2814 -0.6404
80834SOL    HW160494   4.371   9.892   3.806  0.4212 -0.0170  1.1972
80834SOL    HW260495   4.484   9.851   3.714 -1.2467  0.3014 -1.0611
80835SOL     OW60496   0.316   4.612   8.697  0.1342  0.2557  0.2571
80835SOL    HW160497   0.384   4.545   8.688 -1.1564 -0.8848 -1.5901
80835SOL    HW260498   0.288   4.605   8.788 -0.8809 -2.7326 -0.1705
80836SOL     OW60499  10.873  14.092   8.021  0.5033  0.1374  0.1536
80836SOL    HW160500  10.797  14.132   7.977 -1.0397 -0.9632  1.6672
80836SOL    HW260501  10.905  14.160   8.080  1.1622  0.8438 -0.9800
80837SOL     OW60502  12.471   5.025   1.577 -0.2181 -0.3403 -0.2135
80837SOL    HW160503  12.506   4.939   1.556 -0.2656 -0.1436 -1.1411
80837SOL    HW260504  12.439   5.059   1.494 -2.7833 -0.5823  0.5720
80838SOL     OW60505   5.650  13.842   7.294 -0.0609  0.1027 -0.0935
80838SOL    HW160506   5.682  13.777   7.357  0.4345 -0.5442 -0.9784
80838SOL    HW260507   5.727  13.863   7.240 -0.9967 -1.2598 -2.0893
80839SOL     OW60508  12.132  12.673   7.988 -0.1936 -0.0061  0.6155
80839SOL    HW160509  12.214  12.701   8.030  1.6174 -2.3090 -1.1728
80839SOL    HW260510  12.098  12.605   8.046  1.0458 -1.4886 -0.3282
80840SOL     OW60511   7.610   0.748   8.629  0.3419  0.1267  0.1195
80840SOL    HW160512   7.697   0.760   8.590  0.6962 -1.7070  0.2421
80840SOL    HW260513   7.609   0.808   8.703  0.5795  1.8902 -1.2231
80841SOL     OW60514  12.409   9.611   8.834 -0.0483 -0.5523  0.3359
80841SOL    HW160515  12.346   9.680   8.815 -0.2803  0.3772  3.8426
80841SOL    HW260516  12.362   9.530   8.812 -1.4138  0.2266  0.2612
80842SOL     OW60517   7.586   0.889  11.130  0.3950 -0.0599  0.1204
80842SOL    HW160518   7.610   0.855  11.044 -0.1433  1.4289 -0.6615
80842SOL    HW260519   7.636   0.970  11.138 -0.3801  0.3753  0.7363
80843SOL     OW60520  13.212   8.023   1.744 -0.0504  0.4707  0.6321
80843SOL    HW160521  13.177   7.940   1.776 -0.6537  0.7596  0.7525
80843SOL    HW260522  13.245   8.004   1.657 -0.2319  0.1126  0.6404
80844SOL     OW60523  13.288   3.308  12.440 -0.5435  0.3653  0.3218
80844SOL    HW160524  13.253   3.379  12.494  0.4904  0.9680  0.2462
80844SOL    HW260525  13.281   3.230  12.495 -0.3704  0.8027  0.9813
80845SOL     OW60526  10.902   4.114   7.051  0.3732 -0.3487 -0.5512
80845SOL    HW160527  10.961   4.113   7.127 -0.1805  0.5880 -0.0948
80845SOL    HW260528  10.955   4.081   6.979  1.3966  0.2725 -0.1048
80846SOL     OW60529  11.169   2.086  12.084  0.4865  0.2373 -0.4718
80846SOL    HW160530  11.120   2.023  12.029  1.3912 -1.7803  0.9118
80846SOL    HW260531  11.119   2.167  12.077 -3.4407 -1.7681  1.1861
80847SOL     OW60532  11.911  13.186   8.484 -0.1647 -0.5471  0.0297
80847SOL    HW160533  11.977  13.245   8.448 -1.0794 -0.0323 -0.8176
80847SOL    HW260534  11.882  13.229   8.564  0.1096 -0.5125  0.1148
80848SOL     OW60535   7.050  11.845   2.224  0.3255  0.4343 -0.6770
80848SOL    HW160536   7.117  11.806   2.169 -0.3593  0.0763 -1.2802
80848SOL    HW260537   7.001  11.770   2.260 -0.0531  0.6973 -0.6321
80849SOL     OW60538  10.885   7.315   9.195 -0.1058 -0.6773 -0.5110
80849SOL    HW160539  10.913   7.403   9.170 -2.0174 -0.5758 -2.6205
80849SOL    HW260540  10.824   7.288   9.126 -1.5350 -2.6674  1.3636
80850SOL     OW60541  12.504   4.146   4.356 -0.1652 -0.1521 -0.9146
80850SOL    HW160542  12.476   4.237   4.344  0.3153  0.0083 -0.8264
80850SOL    HW260543  12.537   4.120   4.270  1.1008  0.2462 -0.5599
80851SOL     OW60544  12.006   9.873   8.108 -0.2949 -0.1489 -0.3576
80851SOL    HW160545  12.036   9.923   8.032 -0.5187  0.4801 -0.0403
80851SOL    HW260546  11.959   9.798   8.070 -2.5354  1.4014 -0.8990
80852SOL     OW60547   7.073   9.340  11.772  0.2392 -0.5229 -0.1995
80852SOL    HW160548   7.145   9.291  11.811  0.9825  1.1374  0.6146
80852SOL    HW260549   7.090   9.338  11.678  0.9870 -0.6837 -0.0667
80853SOL     OW60550  12.559   4.068   1.561 -0.0041  0.4896  0.7720
80853SOL    HW160551  12.527   4.027   1.641 -0.2365 -1.4187 -0.2249
80853SOL    HW260552  12.485   4.065   1.501  0.4530  0.9917  0.1701
80854SOL     OW60553  11.813   4.297  12.102 -0.2241  0.1300  0.0718
80854SOL    HW160554  11.800   4.379  12.053  1.7091 -0.6577 -1.9168
80854SOL    HW260555  11.725   4.270  12.127 -1.1322  1.6161 -1.3018
80855SOL     OW60556   5.493   5.497   1.527 -0.1288 -0.1838  0.0271
80855SOL    HW160557   5.438   5.431   1.485 -1.0147 -0.2672  1.2552
80855SOL    HW260558   5.523   5.553   1.455 -2.3750  0.2578 -0.6543
80856SOL     OW60559   3.324   7.356   7.211  0.2858  0.6720  0.6595
80856SOL    HW160560   3.345   7.298   7.137 -0.1470  1.6072 -0.2076
80856SOL    HW260561   3.307   7.295   7.283 -1.7373 -0.3961 -0.6141
80857SOL     OW60562  11.320  11.123  12.173  0.1877 -0.2790  0.0551
80857SOL    HW160563  11.367  11.133  12.090 -1.4186  0.4844 -0.8021
80857SOL    HW260564  11.324  11.210  12.213 -1.9625  0.2938 -0.8714
80858SOL     OW60565  13.861   9.618  12.182 -0.0098  0.3771 -0.4402
80858SOL    HW160566  13.768   9.601  12.193  0.8284 -4.8110  1.6342
80858SOL    HW260567  13.880   9.594  12.092 -0.3679 -0.7301 -0.2270
80859SOL     OW60568   9.185   5.473  10.161  0.5936  0.0055 -0.3400
80859SOL    HW160569   9.109   5.476  10.220 -0.0746 -1.3531 -1.0776
80859SOL    HW260570   9.247   5.535  10.199 -1.6893  2.8397 -0.9027
80860SOL     OW60571   5.838   3.283   7.797 -0.6698  0.0506  0.4268
80860SOL    HW160572   5.820   3.201   7.843 -2.1730  0.6065  0.9105
80860SOL    HW260573   5.905   3.260   7.733 -0.1629 -1.2627  1.3628
80861SOL     OW60574   8.314   6.983  11.158 -0.0440 -0.3834  0.0047
80861SOL    HW160575   8.304   7.034  11.078 -1.0580 -0.0585  0.3205
80861SOL    HW260576   8.230   6.937  11.168  0.0345 -0.3538  0.9137
80862SOL     OW60577   8.020  12.507  10.754  0.0547 -0.3319  0.7998
80862SOL    HW160578   8.035  12.548  10.669  1.0843  0.9000  1.5437
80862SOL    HW260579   8.099  12.457  10.770  1.0930  1.6443  2.2204
80863SOL     OW60580  13.427   2.588  13.943 -0.0898  0.0890  0.3475
80863SOL    HW160581  13.418   2.618  14.034 -0.2768 -0.2245  0.4322
80863SOL    HW260582  13.512   2.545  13.941 -1.0017 -1.8299  0.9251
80864SOL     OW60583   4.827   1.444  11.087  0.1675 -0.4662  0.6501
80864SOL    HW160584   4.764   1.512  11.064  0.7924 -0.8173 -2.5660
80864SOL    HW260585   4.777   1.362  11.079 -0.0690 -0.5629  2.5963
80865SOL     OW60586  10.368  12.887   4.437  0.2048 -0.3809  0.4728
80865SOL    HW160587  10.395  12.872   4.347 -1.3129  1.1819 -0.3067
80865SOL    HW260588  10.418  12.963   4.466 -2.0022  1.5421 -0.4464
80866SOL     OW60589   6.142   3.388   9.201  0.7234  0.0230 -0.0053
80866SOL    HW160590   6.072   3.326   9.182  1.2780 -1.6980  2.9869
80866SOL    HW260591   6.221   3.348   9.164  0.4787  1.1780 -1.9315
80867SOL     OW60592   7.343   5.301   2.275  0.1990 -0.0475 -0.1101
80867SOL    HW160593   7.396   5.304   2.196 -2.2103  1.8576 -1.7809
80867SOL    HW260594   7.268   5.246   2.252  0.0902 -0.5256  1.2967
80868SOL     OW60595   3.057  11.053   5.969  0.0888 -0.2129  0.3587
80868SOL    HW160596   3.049  11.117   5.898  1.9926 -0.1521  0.1252
80868SOL    HW260597   2.988  10.989   5.953  0.3012 -0.0523 -1.4158
80869SOL     OW60598  13.580  13.364  10.591 -0.1029 -0.4650  0.2083
80869SOL    HW160599  13.660  13.372  10.539 -0.5937  0.7144 -0.4129
80869SOL    HW260600  13.528  13.298  10.546  1.4240 -3.0135  1.9057
80870SOL     OW60601  11.358  13.617   6.011  0.3759 -0.0245 -0.3302
80870SOL    HW160602  11.320  13.677   5.947  0.0384 -0.4744 -0.5572
80870SOL    HW260603  11.352  13.531   5.970  2.0912 -0.0517 -0.5747
80871SOL     OW60604   1.004   8.564   9.188  0.4274  0.0105  0.2543
80871SOL    HW160605   0.997   8.651   9.227 -1.4914  0.0622 -0.1161
80871SOL    HW260606   1.074   8.573   9.122 -1.8067  2.2429 -2.0364
80872SOL     OW60607   1.538   4.584  12.379  0.1118  0.4763 -0.6116
80872SOL    HW160608   1.476   4.512  12.390  1.4259 -0.6461 -0.1903
80872SOL    HW260609   1.591   4.558  12.304  0.9686  0.7175 -0.1068
80873SOL     OW60610   5.750  13.342   6.613  0.4013  0.1568 -0.1583
80873SOL    HW160611   5.836  13.308   6.635  0.0396 -0.4271  0.3637
80873SOL    HW260612   5.693  13.265   6.610  0.1292  0.3722 -1.7052
80874SOL     OW60613   9.027  12.280   0.970 -0.2209 -0.7048  0.1099
80874SOL    HW160614   8.941  12.307   0.936 -1.4699  0.0758  3.4727
80874SOL    HW260615   9.087  12.349   0.942 -1.5171  0.7613  0.7606
80875SOL     OW60616   2.593   8.617   8.269 -0.4209  1.0179  0.4110
80875SOL    HW160617   2.621   8.570   8.190 -1.7406  1.7889 -0.5756
80875SOL    HW260618   2.628   8.705   8.257 -0.6683  1.1490  0.6549
80876SOL     OW60619   6.856  12.093   0.148  0.1693  0.1715  0.3613
80876SOL    HW160620   6.931  12.130   0.196 -0.5237  0.7716  1.0124
80876SOL    HW260621   6.815  12.034   0.211 -1.2972  1.6688  0.8948
80877SOL     OW60622  11.402  13.024   0.981 -0.6668 -0.3760  0.3968
80877SOL    HW160623  11.445  13.069   0.908 -1.1232 -0.4237  0.0932
80877SOL    HW260624  11.470  13.017   1.048  0.0796 -1.2709 -0.4169
80878SOL     OW60625   2.533   6.830   5.688  0.2026  0.0252 -0.4680
80878SOL    HW160626   2.602   6.766   5.673  1.1535  0.9094 -0.0830
80878SOL    HW260627   2.529   6.881   5.607  0.8048  0.6763 -0.1079
80879SOL     OW60628  12.617  11.526   1.475 -0.1978  0.4071  0.7961
80879SOL    HW160629  12.623  11.443   1.429 -0.2530  1.1562 -0.6409
80879SOL    HW260630  12.607  11.503   1.567 -0.2175 -1.1600  0.4196
80880SOL     OW60631  12.709  10.242   9.757  0.1862 -0.0922  0.0411
80880SOL    HW160632  12.687  10.153   9.730  0.0809 -0.4845  1.3530
80880SOL    HW260633  12.784  10.232   9.815  1.7127  0.9185 -1.6587
80881SOL     OW60634   8.669   7.656  10.199 -0.0078  0.3557 -0.1269
80881SOL    HW160635   8.688   7.731  10.255 -0.0556 -0.1842  0.6306
80881SOL    HW260636   8.659   7.693  10.111 -0.6674  1.3190  0.3344
80882SOL     OW60637   3.118   4.389   3.717  0.0361 -0.1971  0.1533
80882SOL    HW160638   3.044   4.441   3.685  0.5035  1.6117  1.8176
80882SOL    HW260639   3.087   4.350   3.799 -0.3074 -2.6723 -1.0621
80883SOL     OW60640   7.811   1.163   2.814  0.1529 -0.4316 -0.3564
80883SOL    HW160641   7.804   1.225   2.886 -1.1238 -1.4688  0.4619
80883SOL    HW260642   7.870   1.095   2.846  0.7597 -0.1578 -0.8716
80884SOL     OW60643  10.434   9.147   4.106  0.1576  0.1481  0.0441
80884SOL    HW160644  10.343   9.119   4.094  0.0996  0.4483 -0.2124
80884SOL    HW260645  10.468   9.156   4.017  0.0186  1.3986  0.0990
80885SOL     OW60646  12.701  11.401  12.896 -0.1745  0.1555  0.0502
80885SOL    HW160647  12.797  11.395  12.902 -0.0369  0.5226 -1.4944
80885SOL    HW260648  12.671  11.313  12.920  0.5383  0.0366  0.5724
80886SOL     OW60649   0.115   1.592   8.400 -0.2253  0.5977  0.0117
80886SOL    HW160650   0.185   1.627   8.345  1.1644  0.8273  1.8090
80886SOL    HW260651   0.136   1.624   8.488 -3.0987  1.4382  0.5084
80887SOL     OW60652   7.539   3.310  12.172  0.4521  0.4966  0.0213
80887SOL    HW160653   7.454   3.293  12.133 -0.3562 -0.5572  2.0949
80887SOL    HW260654   7.576   3.381  12.118 -1.9598  1.4078 -0.5908
80888SOL     OW60655   5.537  12.521   2.204  0.6018  0.1558  1.0387
80888SOL    HW160656   5.477  12.472   2.261  0.1052 -0.6172 -0.1194
80888SOL    HW260657   5.624  12.489   2.228  0.4130 -0.0561  1.4560
80889SOL     OW60658   4.727  12.540   2.934  0.0911  0.1632 -0.4454
80889SOL    HW160659   4.756  12.469   2.992  1.1041 -0.1590 -1.3195
80889SOL    HW260660   4.798  12.604   2.939  1.0015 -0.5802 -2.5187
80890SOL     OW60661   0.282  12.504  13.511  0.4325 -0.1470  0.1277
80890SOL    HW160662   0.209  12.564  13.501 -0.7607 -1.5804 -0.1781
80890SOL    HW260663   0.341  12.525  13.439  1.1654  2.0603  1.2622
80891SOL     OW60664  10.812   6.351   0.373 -0.1324 -0.2241 -0.0071
80891SOL    HW160665  10.744   6.389   0.428  1.2507 -0.0533  1.6568
80891SOL    HW260666  10.859   6.291   0.431  0.0679 -1.6741 -1.5892
80892SOL     OW60667  12.645   2.379   1.824 -0.3109 -0.1062 -0.1417
80892SOL    HW160668  12.650   2.461   1.873 -1.0452  0.8650 -1.6293
80892SOL    HW260669  12.577   2.329   1.869  0.5695 -0.1957  1.1539
80893SOL     OW60670   0.401   7.962   9.469 -0.4810  0.2845 -0.1820
80893SOL    HW160671   0.412   7.884   9.523 -2.3192  0.1933  0.1276
80893SOL    HW260672   0.363   7.930   9.387  2.4230  0.4033 -1.7104
80894SOL     OW60673  11.224   8.680   1.672 -0.2660 -0.2178 -0.4705
80894SOL    HW160674  11.287   8.732   1.622  0.1106 -1.5877 -1.4765
80894SOL    HW260675  11.275   8.610   1.711 -1.0704 -1.0623 -0.8962
80895SOL     OW60676   5.384   2.217   2.690  0.2118 -0.2978  0.1101
80895SOL    HW160677   5.322   2.260   2.748 -2.0344 -2.4542 -0.5140
80895SOL    HW260678   5.421   2.145   2.742  1.8389  0.6287  0.2964
80896SOL     OW60679   0.842   1.210   5.952 -0.1043 -0.6998 -0.1346
80896SOL    HW160680   0.774   1.196   6.017 -0.3075  1.1989  0.1324
80896SOL    HW260681   0.912   1.150   5.977 -1.0872 -1.6311  0.4583
80897SOL     OW60682  10.433   1.161   2.034 -0.4644 -0.2442  0.4516
80897SOL    HW160683  10.375   1.134   2.105 -1.0285  0.1508  0.1474
80897SOL    HW260684  10.507   1.101   2.039  0.2843  0.7590  2.3839
80898SOL     OW60685   2.610   6.223  13.277 -0.4143  0.4628 -0.2922
80898SOL    HW160686   2.615   6.244  13.184  2.5743 -0.9381 -0.5796
80898SOL    HW260687   2.665   6.289  13.319 -0.3433  0.0696  0.2414
80899SOL     OW60688   9.171   3.997  11.012  0.2228 -0.0262  0.2675
80899SOL    HW160689   9.104   4.013  11.078 -0.4360  0.5792 -0.5240
80899SOL    HW260690   9.201   3.907  11.028  0.6696  0.3808  1.8863
80900SOL     OW60691   4.373   4.659   2.816  0.1056  0.4733 -0.1951
80900SOL    HW160692   4.310   4.719   2.855 -0.2756 -0.2793  0.3700
80900SOL    HW260693   4.367   4.579   2.868  0.8881  0.0719 -0.6839
80901SOL     OW60694   2.951  12.033   8.477  0.7166 -0.3821 -0.0694
80901SOL    HW160695   3.041  12.038   8.510  0.8609  1.0711 -0.6188
80901SOL    HW260696   2.913  12.118   8.497 -0.0948 -0.4850 -1.0701
80902SOL     OW60697   7.088   4.085  10.201 -0.0162  0.3493  0.4160
80902SOL    HW160698   7.147   4.019  10.238  1.9782  1.1559 -1.1194
80902SOL    HW260699   7.090   4.157  10.264  1.7985  0.9089 -0.1949
80903SOL     OW60700   3.523   6.742  12.054  0.5627 -0.1442 -0.1571
80903SOL    HW160701   3.434   6.736  12.089 -0.1260  1.9550 -1.3487
80903SOL    HW260702   3.542   6.655  12.019 -0.9841 -0.6483  0.1979
80904SOL     OW60703   5.487   9.232  13.930  0.3682 -0.0141 -0.1765
80904SOL    HW160704   5.490   9.327  13.942 -2.2590  0.1944 -0.7206
80904SOL    HW260705   5.485   9.220  13.835 -2.0792 -0.4001 -0.1360
80905SOL     OW60706   0.551   1.774   9.980  0.7647  0.1452 -0.2487
80905SOL    HW160707   0.634   1.798  10.022  0.0988  1.2386  0.5074
80905SOL    HW260708   0.543   1.836   9.907  0.7928 -0.2039 -0.5486
80906SOL     OW60709  13.211   4.613  12.276  0.0135 -0.4013 -0.4099
80906SOL    HW160710  13.276   4.598  12.207 -0.2685 -0.2769 -0.7085
80906SOL    HW260711  13.246   4.568  12.353  1.1264  0.8079 -0.1720
80907SOL     OW60712   8.927   8.661  12.103  0.8725 -0.1175  0.2377
80907SOL    HW160713   8.890   8.733  12.052  0.2248 -1.2673 -0.9915
80907SOL    HW260714   9.019   8.686  12.117  0.7143  0.8359 -0.3420
80908SOL     OW60715  10.439  10.509   7.114  0.3653  0.4086 -0.2827
80908SOL    HW160716  10.391  10.445   7.061  0.4812  0.2084 -0.1454
80908SOL    HW260717  10.480  10.566   7.049 -0.0482  0.5775 -0.4031
80909SOL     OW60718   1.633   3.563   0.829  0.1890  0.5865  0.3325
80909SOL    HW160719   1.687   3.489   0.858 -0.7986  0.0293  0.8396
80909SOL    HW260720   1.597   3.599   0.910  0.2906  1.3400  0.0488
80910SOL     OW60721  13.537   5.614   3.361  0.3716 -0.1274  0.7465
80910SOL    HW160722  13.522   5.553   3.433  0.6365 -0.6408  0.3787
80910SOL    HW260723  13.599   5.568   3.304  0.8773  0.6483  0.6583
80911SOL     OW60724  13.378  10.670  14.086  0.5106  0.4348 -0.2011
80911SOL    HW160725  13.412  10.586  14.116  3.2545  1.0261 -1.3146
80911SOL    HW260726  13.305  10.648  14.028 -0.1675 -1.0368  1.1675
80912SOL     OW60727   7.508   9.127   8.045  0.1163 -0.1328  0.3406
80912SOL    HW160728   7.449   9.201   8.063 -2.2975 -1.9144  0.2767
80912SOL    HW260729   7.565   9.159   7.975 -0.7899  1.6911  0.3603
80913SOL     OW60730   7.691   1.935   8.440  0.2657 -0.0637  0.0833
80913SOL    HW160731   7.784   1.939   8.418  0.0326  2.4428 -0.7100
80913SOL    HW260732   7.675   1.842   8.459  2.9523 -0.5183  0.4778
80914SOL     OW60733  13.861   2.730   7.469 -0.6601 -0.2631  0.5236
80914SOL    HW160734  13.881   2.757   7.380  0.1216 -1.1151  0.4296
80914SOL    HW260735  13.800   2.797   7.501 -2.2341 -0.8073 -1.1789
80915SOL     OW60736   0.713   6.570   4.877  0.4112 -0.0949 -0.5619
80915SOL    HW160737   0.648   6.509   4.913  1.1927 -1.5151 -1.4318
80915SOL    HW260738   0.672   6.656   4.882 -1.0816 -0.8127 -0.0767
80916SOL     OW60739   7.970  14.062  10.429 -0.6723  0.1440  0.7088
80916SOL    HW160740   7.918  14.099  10.358 -0.0728  0.1395  0.2510
80916SOL    HW260741   8.016  13.988  10.389  1.3105  1.4069  0.5069
80917SOL     OW60742   6.334  11.231  10.455 -0.2106  0.0718 -0.0431
80917SOL    HW160743   6.356  11.243  10.547  0.9420 -2.1528  0.0461
80917SOL    HW260744   6.238  11.224  10.454 -0.1661 -0.9975  1.1649
80918SOL     OW60745   2.206   2.543   2.569  0.1975 -0.0580  0.2855
80918SOL    HW160746   2.271   2.500   2.514 -1.1604  0.1201 -1.5788
80918SOL    HW260747   2.228   2.517   2.658  1.8650 -1.2458 -0.4291
80919SOL     OW60748   4.732  11.755   0.966 -0.5117  0.1540  0.2062
80919SOL    HW160749   4.727  11.692   1.037  1.0950  1.1588  1.2877
80919SOL    HW260750   4.737  11.840   1.010  0.1352  0.8255 -1.1128
80920SOL     OW60751   2.419   2.190  13.296 -0.8137  0.0060  0.3461
80920SOL    HW160752   2.433   2.276  13.257  0.6700 -0.6987 -0.7958
80920SOL    HW260753   2.456   2.197  13.384 -1.1484  0.6624  0.4411
80921SOL     OW60754   8.016   5.960   3.933  0.1410 -0.6941 -0.0751
80921SOL    HW160755   8.091   5.946   3.876 -0.3788 -3.2505 -0.2505
80921SOL    HW260756   8.045   5.929   4.019 -0.0765  0.2044  0.3292
80922SOL     OW60757  10.621   5.143  10.457 -0.1695  0.0224 -0.1511
80922SOL    HW160758  10.632   5.049  10.468  0.3290  0.0834 -0.0916
80922SOL    HW260759  10.637   5.158  10.363  2.0995  0.3330  0.2194
80923SOL     OW60760   5.689   2.683   7.052 -0.2154 -0.2402 -0.2519
80923SOL    HW160761   5.630   2.758   7.064 -0.9826 -0.9610  0.6591
80923SOL    HW260762   5.762   2.700   7.111  0.2209  0.3724 -0.9521
80924SOL     OW60763   4.151   9.682  11.124  0.1536 -0.4233  0.5329
80924SOL    HW160764   4.056   9.692  11.116  0.1822  1.4381  1.9063
80924SOL    HW260765   4.188   9.757  11.078  1.0857 -1.8852 -1.2590
80925SOL     OW60766   1.613  11.668   0.070  0.3186  0.0073 -0.2740
80925SOL    HW160767   1.557  11.734   0.111  0.6924  0.1316  0.0325
80925SOL    HW260768   1.552  11.597   0.047 -0.2108  0.7437 -1.2514
80926SOL     OW60769   7.430  10.903  12.404 -0.2271  0.4517 -0.4912
80926SOL    HW160770   7.475  10.851  12.471  1.2603  1.2362 -0.8381
80926SOL    HW260771   7.397  10.838  12.342 -0.4378 -0.2083  0.2977
80927SOL     OW60772   1.545   1.423   4.654  0.0222  0.1388 -0.0359
80927SOL    HW160773   1.583   1.411   4.567 -0.1797  2.7960 -0.5696
80927SOL    HW260774   1.581   1.506   4.685 -1.6543  0.3719  1.4395
80928SOL     OW60775   6.828  11.248   2.117  0.1728  0.3797  0.5374
80928SOL    HW160776   6.881  11.210   2.187 -1.9538 -0.0811  2.0115
80928SOL    HW260777   6.743  11.204   2.125 -0.8120  1.8816 -0.9533
80929SOL     OW60778  11.937   4.728   3.091 -0.2602 -0.2164  0.4037
80929SOL    HW160779  12.013   4.775   3.127  0.0442 -0.2715 -0.1510
80929SOL    HW260780  11.862   4.780   3.119  0.0242  0.1720  0.4598
80930SOL     OW60781  10.668   7.079  11.652  0.0574 -0.2745 -0.0126
80930SOL    HW160782  10.608   7.104  11.723  1.1174 -0.4903  0.9883
80930SOL    HW260783  10.667   7.154  11.593 -0.5860  0.0520  0.3941
80931SOL     OW60784   2.841   9.586   0.788 -0.0597 -0.5685  0.7556
80931SOL    HW160785   2.851   9.560   0.697  1.1067  0.9408  0.4019
80931SOL    HW260786   2.891   9.521   0.837  0.2769 -0.7363  0.1990
80932SOL     OW60787   2.147  13.805  13.611 -0.3229 -0.1255  0.1045
80932SOL    HW160788   2.179  13.715  13.602 -1.9965 -0.6762 -0.7331
80932SOL    HW260789   2.066  13.796  13.660 -0.3124  0.9851  0.3339
80933SOL     OW60790   6.921  10.321   1.550 -0.8847 -0.5534 -0.1807
80933SOL    HW160791   6.951  10.365   1.470 -1.8058 -1.9834 -1.3696
80933SOL    HW260792   6.957  10.374   1.621  0.4510  0.4451 -1.5310
80934SOL     OW60793   6.905   0.436   9.002 -0.6076 -0.3154 -0.3876
80934SOL    HW160794   6.829   0.472   9.048 -0.4529 -0.6412  0.1394
80934SOL    HW260795   6.971   0.424   9.071 -0.1216 -0.1514 -0.8159
80935SOL     OW60796   4.359  13.107   7.775  0.2755 -0.0818  0.1406
80935SOL    HW160797   4.391  13.033   7.827  0.5944  1.4429  2.2038
80935SOL    HW260798   4.263  13.103   7.784  0.2151 -0.8443 -0.6680
80936SOL     OW60799   1.530   9.488  13.875 -0.1329  0.1080  0.0461
80936SOL    HW160800   1.439   9.516  13.879 -0.0026  0.6904 -0.7666
80936SOL    HW260801   1.569   9.521  13.956  0.0981  2.7235 -1.0116
80937SOL     OW60802   6.934   8.980  10.588 -0.5027  0.0464  0.0120
80937SOL    HW160803   6.919   8.893  10.624 -3.5036  0.4741  0.0132
80937SOL    HW260804   6.916   8.972  10.494  1.2624  0.2795 -0.3975
80938SOL     OW60805   7.551  13.603  10.466  0.6892  0.1264 -0.0882
80938SOL    HW160806   7.490  13.619  10.394 -0.0355  1.8417  0.8585
80938SOL    HW260807   7.555  13.508  10.473 -2.2590 -0.0800  0.1171
80939SOL     OW60808  14.136   5.505   4.798 -0.7913  0.3570 -0.1266
80939SOL    HW160809  14.170   5.582   4.843 -0.3745 -0.5384  1.1278
80939SOL    HW260810  14.043   5.525   4.783 -1.0469  0.5178  1.5099
80940SOL     OW60811  11.673   8.249   6.655  0.5201  0.0963  0.2916
80940SOL    HW160812  11.588   8.220   6.687  0.3874  1.1808  0.9846
80940SOL    HW260813  11.653   8.300   6.576  0.6289 -0.5203 -0.1414
80941SOL     OW60814  11.576   8.892  12.328 -0.3550 -0.9611  0.4271
80941SOL    HW160815  11.645   8.848  12.379  0.0490  0.5663  1.2503
80941SOL    HW260816  11.501   8.832  12.334 -0.1886 -1.0428  2.5194
80942SOL     OW60817  12.558   0.792   0.784  0.3304 -0.3534 -0.1003
80942SOL    HW160818  12.593   0.774   0.871 -1.2240 -1.2030  0.3862
80942SOL    HW260819  12.473   0.747   0.782 -0.5312  1.2213 -1.3781
80943SOL     OW60820   8.127   2.841   8.229  0.0646  0.4418  0.0553
80943SOL    HW160821   8.149   2.788   8.306  2.4336  0.7982 -0.2934
80943SOL    HW260822   8.112   2.929   8.265 -0.8128  0.1898  0.3123
80944SOL     OW60823   7.070  10.163   6.917 -0.0368 -0.3223 -0.6993
80944SOL    HW160824   7.042  10.238   6.970  0.4382 -0.9659  0.4926
80944SOL    HW260825   7.043  10.086   6.968  0.7985 -0.9651 -1.2043
80945SOL     OW60826   5.881   9.946  12.871 -0.0312  0.3745 -0.0791
80945SOL    HW160827   5.951   9.916  12.928  0.4199  1.7919  0.1419
80945SOL    HW260828   5.919   9.944  12.783 -0.1889 -0.2186 -0.1382
80946SOL     OW60829   6.326   5.525  13.597 -0.0800 -0.3742 -0.3115
80946SOL    HW160830   6.407   5.574  13.601 -0.0573 -0.2666 -1.7613
80946SOL    HW260831   6.272   5.562  13.667  0.1499  1.3187 -0.9926
80947SOL     OW60832   8.475   5.323  10.970 -0.4107  0.1926 -0.2070
80947SOL    HW160833   8.406   5.374  10.929 -0.4563  0.1183 -0.2236
80947SOL    HW260834   8.502   5.375  11.046 -0.1696  0.4332 -0.4588
80948SOL     OW60835  11.136  12.374  13.500  0.0127 -0.4025 -0.2891
80948SOL    HW160836  11.120  12.383  13.406 -2.3993 -3.7499 -0.3653
80948SOL    HW260837  11.056  12.406  13.541 -0.6835 -2.7615  0.3141
80949SOL     OW60838   6.293  13.765   4.134 -0.4500 -0.2432 -0.0538
80949SOL    HW160839   6.305  13.808   4.219  0.2876 -1.0285  0.2494
80949SOL    HW260840   6.327  13.827   4.070  1.5336 -0.7595  0.4568
80950SOL     OW60841   5.590   2.451  12.816 -0.5180 -0.2900  0.2466
80950SOL    HW160842   5.549   2.537  12.819  0.3960  0.1359  1.2621
80950SOL    HW260843   5.669   2.463  12.763 -1.7746 -1.1712 -1.9452
80951SOL     OW60844   8.778   3.016   9.959 -0.4390  0.4646  0.0483
80951SOL    HW160845   8.777   3.111   9.966  2.4821  0.5130  5.7633
80951SOL    HW260846   8.702   2.987  10.011 -0.6877 -0.3662 -0.7463
80952SOL     OW60847   1.487  10.692   0.721  0.2881 -0.0939  0.0082
80952SOL    HW160848   1.504  10.756   0.652  0.1034 -1.2965 -1.1943
80952SOL    HW260849   1.491  10.743   0.802 -0.2017  1.5007 -0.9175
80953SOL     OW60850   7.734  12.228   2.286  0.3170 -0.9280 -0.1602
80953SOL    HW160851   7.669  12.212   2.218 -0.2324  0.2637  0.0735
80953SOL    HW260852   7.685  12.224   2.368  0.7393 -1.0888  0.0873
80954SOL     OW60853  11.128  11.821  13.849  0.0087 -0.0900  0.3047
80954SOL    HW160854  11.040  11.784  13.852 -0.2302  0.5045  0.8793
80954SOL    HW260855  11.149  11.842  13.940  0.1506  1.1375  0.0178
80955SOL     OW60856   0.549   5.085   1.080 -0.1043  0.6392  0.0084
80955SOL    HW160857   0.522   4.999   1.113  0.6782  0.1339 -0.6335
80955SOL    HW260858   0.474   5.117   1.031  0.0039 -0.2197 -0.7591
80956SOL     OW60859  12.944   4.574  13.084 -0.8618 -0.4070 -0.3487
80956SOL    HW160860  12.879   4.508  13.110 -0.6027 -1.1223 -1.4434
80956SOL    HW260861  13.015   4.523  13.044 -0.3713  0.4922 -0.6424
80957SOL     OW60862  11.263   0.732   9.892 -0.1722  0.6055 -0.4831
80957SOL    HW160863  11.220   0.652   9.864  1.0642 -0.4842  0.5797
80957SOL    HW260864  11.228   0.749   9.980  2.3595 -1.0385  0.9694
80958SOL     OW60865   5.942   8.753   8.609 -0.3206 -0.3431  0.2315
80958SOL    HW160866   5.994   8.747   8.690 -0.4314  0.7805  0.4018
80958SOL    HW260867   5.857   8.717   8.632 -0.1208 -0.7003  0.4141
80959SOL     OW60868  13.529   7.365   3.829 -0.0202  0.0895 -0.1134
80959SOL    HW160869  13.622   7.343   3.821  0.2052 -0.8236  3.2554
80959SOL    HW260870  13.487   7.281   3.851 -1.3204  0.7972  0.2000
80960SOL     OW60871   5.465   2.621  12.271  0.2040  0.0564  0.2780
80960SOL    HW160872   5.435   2.680  12.340  0.0341 -0.4427  0.6305
80960SOL    HW260873   5.437   2.663  12.190  0.2944  0.5811  0.5157
80961SOL     OW60874   6.406  12.266   5.793 -0.1227 -0.2520  0.6006
80961SOL    HW160875   6.414  12.359   5.769  1.5225 -0.6447 -0.5956
80961SOL    HW260876   6.314  12.245   5.777 -0.0128  0.5913 -1.5549
80962SOL     OW60877   4.461  11.909   1.586 -0.1738 -0.3120  0.1679
80962SOL    HW160878   4.472  11.888   1.493  2.0014 -0.0206  0.3109
80962SOL    HW260879   4.520  11.983   1.601  0.1150 -0.8555  1.9381
80963SOL     OW60880  13.753   1.517   6.422  0.1498 -0.8447 -0.1236
80963SOL    HW160881  13.699   1.527   6.501 -0.4526  2.0568 -0.8027
80963SOL    HW260882  13.830   1.470   6.452  0.0122  0.2935  2.2669
80964SOL     OW60883   2.546   5.033   3.319 -0.5771 -0.1044 -0.6561
80964SOL    HW160884   2.537   5.018   3.225 -0.3844  1.8080 -1.0196
80964SOL    HW260885   2.600   5.112   3.326  0.0999 -0.6693  1.0866
80965SOL     OW60886  12.074   5.966  11.915  0.2540 -0.0057  0.2442
80965SOL    HW160887  12.036   5.879  11.929 -1.4269  0.8997  1.7036
80965SOL    HW260888  12.003   6.017  11.874  0.6905  1.0766  0.7964
80966SOL     OW60889  13.563   4.441   8.834  0.2345  0.0756 -0.1974
80966SOL    HW160890  13.585   4.456   8.927  0.0428 -1.8907  0.1973
80966SOL    HW260891  13.612   4.510   8.788  0.2862  1.1456  1.3452
80967SOL     OW60892   9.447  10.375   1.137  0.6863 -0.3450  0.0729
80967SOL    HW160893   9.482  10.299   1.183 -0.5606 -0.2228  1.3126
80967SOL    HW260894   9.481  10.450   1.186 -0.6581 -0.2118  0.8557
80968SOL     OW60895   2.105  10.216  11.187 -0.3239 -0.7512  0.6474
80968SOL    HW160896   2.084  10.231  11.095  1.2426 -1.3898  0.1552
80968SOL    HW260897   2.089  10.300  11.230 -1.9861 -0.6921  0.0093
80969SOL     OW60898  11.216   9.651   4.129 -0.0972  0.2327  0.1100
80969SOL    HW160899  11.281   9.699   4.179 -1.2157  0.6491  1.2328
80969SOL    HW260900  11.179   9.715   4.069  1.3879 -0.3162 -1.4660
80970SOL     OW60901   1.706   2.060  10.394 -0.1175 -0.1277 -0.0638
80970SOL    HW160902   1.622   2.017  10.407 -1.2210  2.1394  0.8754
80970SOL    HW260903   1.731   2.037  10.304 -0.4298 -2.8772  0.4751
80971SOL     OW60904   0.306   6.244   2.457  0.6222 -0.6328  0.1408
80971SOL    HW160905   0.341   6.155   2.467  1.5119 -0.5884 -1.9926
80971SOL    HW260906   0.303   6.257   2.363 -0.4921  1.2408  0.4052
80972SOL     OW60907   2.420   8.597  11.882  0.3099 -0.6952  0.1793
80972SOL    HW160908   2.465   8.676  11.910 -2.6097  1.7567 -1.3923
80972SOL    HW260909   2.447   8.584  11.791 -1.8197  0.7523 -0.7527
80973SOL     OW60910  11.327   4.081   4.380  0.4240 -0.2938  0.5193
80973SOL    HW160911  11.285   3.999   4.404 -0.1500 -0.0277  0.4532
80973SOL    HW260912  11.264   4.124   4.322 -0.0977  1.0052  1.9626
80974SOL     OW60913   4.178   4.425  11.433 -0.3624 -0.5486 -0.4025
80974SOL    HW160914   4.106   4.488  11.427 -1.2167 -1.4788 -0.3092
80974SOL    HW260915   4.254   4.472  11.398 -0.7288  0.8510  0.5908
80975SOL     OW60916  11.183   5.356  13.965 -0.4200  0.3351 -0.4533
80975SOL    HW160917  11.276   5.347  13.986 -1.1198 -2.8564  2.1761
80975SOL    HW260918  11.154   5.430  14.017  0.0316 -0.9062  1.6947
80976SOL     OW60919   2.898   6.747  11.399 -0.0185  0.3827  0.4595
80976SOL    HW160920   2.946   6.741  11.481  0.8849 -0.1216 -0.0818
80976SOL    HW260921   2.951   6.803  11.343 -1.7856  2.7041  0.9579
80977SOL     OW60922   0.767   5.274   2.248  0.3252  0.0899  0.2553
80977SOL    HW160923   0.722   5.290   2.165 -1.7810 -1.1590  1.0705
80977SOL    HW260924   0.842   5.333   2.247  0.8456 -0.4675 -2.8702
80978SOL     OW60925   0.564   5.796   3.302  1.0647  0.6308  0.4317
80978SOL    HW160926   0.527   5.881   3.277  0.6866  0.0433 -1.1929
80978SOL    HW260927   0.616   5.769   3.226 -1.3627 -1.9683 -0.5308
80979SOL     OW60928  10.927   1.701   8.930 -0.0194  0.1586  0.2838
80979SOL    HW160929  10.967   1.646   8.997 -1.9100 -1.7122 -0.0112
80979SOL    HW260930  10.839   1.720   8.964 -0.6897 -0.0849 -1.2104
80980SOL     OW60931  12.495  10.635   6.714 -0.0741 -0.0022 -0.0767
80980SOL    HW160932  12.408  10.673   6.718  0.5446  1.4631  0.4870
80980SOL    HW260933  12.515  10.611   6.804  1.7070  3.7011  0.7025
80981SOL     OW60934   4.506   0.687   6.149 -0.2116  0.3296  0.2851
80981SOL    HW160935   4.475   0.777   6.159 -1.0056 -0.0890  1.9149
80981SOL    HW260936   4.459   0.654   6.073  0.2136  1.3191 -0.4334
80982SOL     OW60937  12.595   8.015   0.021  0.6808 -0.0843  0.0211
80982SOL    HW160938  12.601   7.927  -0.015  1.4075 -0.9359  2.0669
80982SOL    HW260939  12.643   8.011   0.103  0.0781  2.0271  0.5487
80983SOL     OW60940   3.893   8.911  10.495  0.3747 -0.1647  0.1634
80983SOL    HW160941   3.978   8.943  10.525 -0.7022  2.1050  1.0047
80983SOL    HW260942   3.873   8.837  10.553  0.7386  0.7691  1.5201
80984SOL     OW60943   5.654  11.727   2.706 -0.1764 -0.3051 -0.1794
80984SOL    HW160944   5.694  11.684   2.630 -3.1958  0.0071 -2.0862
80984SOL    HW260945   5.665  11.821   2.688 -0.0520 -0.2231  0.3004
80985SOL     OW60946   1.055  11.172   1.370  0.4097 -0.3530  0.2670
80985SOL    HW160947   1.085  11.255   1.409 -2.9851  0.2551  1.9439
80985SOL    HW260948   1.012  11.198   1.289  1.0222 -0.7470 -0.1927
80986SOL     OW60949  13.816   3.948  12.469 -0.3557 -0.0765  0.0760
80986SOL    HW160950  13.770   3.957  12.386  0.0612  0.4686 -0.1043
80986SOL    HW260951  13.900   3.992  12.455 -0.0401 -0.4934  0.5999
80987SOL     OW60952  14.118   7.743   8.885 -1.1185 -0.0245 -0.4329
80987SOL    HW160953  14.100   7.652   8.865  2.7622 -0.8637 -0.8023
80987SOL    HW260954  14.080   7.792   8.812  0.0512 -1.7325 -2.2736
80988SOL     OW60955  12.401  13.720   9.855 -0.8794  0.1316 -0.0434
80988SOL    HW160956  12.464  13.653   9.827  0.2654  1.4833 -0.8260
80988SOL    HW260957  12.455  13.795   9.880 -2.1362  0.8522  0.5904
80989SOL     OW60958   6.895   7.472  12.352 -0.0366 -0.0759  0.1509
80989SOL    HW160959   6.962   7.518  12.301 -0.4429 -0.1681 -0.4758
80989SOL    HW260960   6.936   7.456  12.437  0.1112  1.4548  0.3988
80990SOL     OW60961  12.923   3.690  13.644  0.2807 -0.1221  0.3793
80990SOL    HW160962  12.949   3.750  13.714  0.9120 -0.7510  0.7006
80990SOL    HW260963  12.832   3.669  13.662 -0.5870  2.2368 -0.8380
80991SOL     OW60964   1.283  10.207  10.501 -0.3671  0.3328  0.4880
80991SOL    HW160965   1.289  10.301  10.516  0.3418  0.0828  1.9186
80991SOL    HW260966   1.347  10.189  10.433  0.1160  0.7682  0.8202
80992SOL     OW60967   2.756  13.985   9.306  0.0833  0.3709 -0.0483
80992SOL    HW160968   2.661  13.985   9.297  0.1117  1.0467 -0.4615
80992SOL    HW260969   2.788  13.989   9.216  0.5261 -1.1106  0.0316
80993SOL     OW60970   6.124   9.629   4.623 -0.0304  0.3340  0.4241
80993SOL    HW160971   6.118   9.639   4.718  0.7051  0.3746  0.4744
80993SOL    HW260972   6.099   9.538   4.607 -1.8234  0.7794  0.4704
80994SOL     OW60973   1.474   4.151   8.498 -0.5272  0.3592  0.1002
80994SOL    HW160974   1.505   4.106   8.576  0.8444  1.5771  0.3104
80994SOL    HW260975   1.399   4.202   8.527 -0.8106 -0.1874  0.3277
80995SOL     OW60976   6.657   4.656  11.632 -0.5728 -0.5000 -0.3293
80995SOL    HW160977   6.720   4.721  11.662 -1.2868  0.1413 -0.1818
80995SOL    HW260978   6.619   4.619  11.712 -0.7929 -0.4695 -0.4172
80996SOL     OW60979   3.281   8.308   6.637 -0.5524 -0.3893 -0.6417
80996SOL    HW160980   3.375   8.295   6.623  0.0241  1.9078  0.4481
80996SOL    HW260981   3.275   8.398   6.669 -3.0111 -0.9004  0.5603
80997SOL     OW60982  12.176   6.009  13.348  0.3663  0.4486 -0.4122
80997SOL    HW160983  12.215   6.057  13.421  1.7176 -1.0728 -0.0688
80997SOL    HW260984  12.249   5.991  13.289  0.1205 -1.9109 -0.0915
80998SOL     OW60985  11.945  13.856   0.622  0.1742 -0.3342 -0.4182
80998SOL    HW160986  11.878  13.801   0.662 -1.1640  0.6015 -1.3037
80998SOL    HW260987  12.002  13.794   0.576 -1.0148 -1.0472 -0.9848
80999SOL     OW60988   3.226   8.116   1.901  0.2664  0.6186  0.4354
80999SOL    HW160989   3.234   8.126   1.806  1.3149 -2.1610  0.1276
80999SOL    HW260990   3.288   8.179   1.937 -0.3140  1.8778 -0.6989
81000SOL     OW60991   7.753   5.631   1.348 -0.0632 -0.1491  0.6040
81000SOL    HW160992   7.835   5.649   1.303 -0.6113 -0.8651 -0.7130
81000SOL    HW260993   7.717   5.718   1.368  1.2831  0.1789  1.7667
81001SOL     OW60994  13.690   0.703   9.757  0.1246  0.2416 -0.1680
81001SOL    HW160995  13.673   0.664   9.843  0.5923 -0.6053 -0.4406
81001SOL    HW260996  13.623   0.667   9.700 -1.8816  2.8746  0.3555
81002SOL     OW60997  12.354  13.200   7.346 -0.1340  0.1437  0.4125
81002SOL    HW160998  12.310  13.221   7.264 -0.0669  2.1084  0.8156
81002SOL    HW260999  12.329  13.110   7.365 -3.1699  0.8064  0.1146
81003SOL     OW61000  10.029  14.121   5.163 -0.0340 -0.3502 -0.9808
81003SOL    HW161001  10.056  14.097   5.074 -1.0400  0.0197 -1.4011
81003SOL    HW261002   9.947  14.073   5.176  0.5674 -1.1167  0.1010
81004SOL     OW61003   0.815   4.491  11.546  0.3414  0.1729 -0.3755
81004SOL    HW161004   0.799   4.398  11.566 -0.3974  0.5466  0.9169
81004SOL    HW261005   0.855   4.525  11.626  2.2912  0.5882 -1.4885
81005SOL     OW61006   6.653   9.842  10.509  0.2100  0.0831  0.1395
81005SOL    HW161007   6.709   9.874  10.438 -1.0768 -0.5105 -1.2073
81005SOL    HW261008   6.586   9.910  10.518  0.3254  0.1164  0.7433
81006SOL     OW61009   9.150  10.065   2.630 -0.4147  0.3361  0.0395
81006SOL    HW161010   9.114   9.985   2.592 -1.2705  0.7215  0.0349
81006SOL    HW261011   9.082  10.098   2.688  0.0066  0.9649  0.1928
81007SOL     OW61012   5.663   3.870  12.369  0.1727 -0.1965 -0.0503
81007SOL    HW161013   5.651   3.944  12.428  0.0959 -1.1633  1.1749
81007SOL    HW261014   5.728   3.815  12.412  1.1864 -0.2443 -1.5483
81008SOL     OW61015   8.775   8.359  12.578 -0.4174  0.5545  0.2102
81008SOL    HW161016   8.733   8.290  12.629  0.4293  1.7032  2.5888
81008SOL    HW261017   8.783   8.432  12.639  1.8679  1.5458 -1.1729
81009SOL     OW61018   8.200   2.834   7.021  0.1626  1.3155 -0.0632
81009SOL    HW161019   8.114   2.831   7.063  0.6875  1.5247  1.0567
81009SOL    HW261020   8.260   2.860   7.090  1.3806 -0.3294 -0.4371
81010SOL     OW61021  12.450   7.594   7.492 -0.2247 -0.2985  0.0801
81010SOL    HW161022  12.379   7.655   7.511  1.1270  0.7602  2.0363
81010SOL    HW261023  12.490   7.628   7.412  0.5670  1.5350  1.1873
81011SOL     OW61024   9.241   3.925   8.549 -0.3520  0.1531  0.0568
81011SOL    HW161025   9.241   4.019   8.529 -2.5361  0.5267  1.5261
81011SOL    HW261026   9.232   3.921   8.644  1.4328 -1.5891  0.2119
81012SOL     OW61027   5.615   3.822   7.710  0.3729 -0.3842 -0.1106
81012SOL    HW161028   5.580   3.850   7.795  1.4444 -0.9736  0.5465
81012SOL    HW261029   5.636   3.904   7.666  2.2277 -0.0402  1.2646
81013SOL     OW61030   5.428   5.036   7.557 -0.1089  0.1322 -0.0279
81013SOL    HW161031   5.501   5.082   7.515  0.4733  0.0998  0.9253
81013SOL    HW261032   5.372   5.008   7.484  0.5369  0.6511 -0.7349
81014SOL     OW61033   0.648   6.746   3.231  0.2815 -0.2657 -0.3848
81014SOL    HW161034   0.650   6.836   3.201  1.1198 -0.0798  0.1960
81014SOL    HW261035   0.559   6.734   3.264  0.2995  0.4968 -0.0366
81015SOL     OW61036   1.379   5.989  12.583  0.2327 -0.0150 -0.0799
81015SOL    HW161037   1.297   6.002  12.631  1.5465 -0.5022  2.4887
81015SOL    HW261038   1.424   5.919  12.632  2.6964  1.0647 -0.6695
81016SOL     OW61039   5.501   7.509  10.504  0.3852  0.2381  0.0078
81016SOL    HW161040   5.451   7.524  10.584  2.4986  1.6730  1.1624
81016SOL    HW261041   5.579   7.462  10.533  1.9106  2.0647 -0.8988
81017SOL     OW61042   7.124   0.925   1.104 -0.3093  0.6114 -0.1726
81017SOL    HW161043   7.172   0.900   1.025 -1.0678 -0.0800 -0.4283
81017SOL    HW261044   7.032   0.913   1.080 -0.5740  1.1036  0.5837
81018SOL     OW61045   1.712  10.115   5.151 -0.1494 -0.0492 -0.2236
81018SOL    HW161046   1.715  10.019   5.158  0.5780 -0.0839 -0.9118
81018SOL    HW261047   1.741  10.133   5.062 -0.3334  0.8164 -0.1111
81019SOL     OW61048   7.195  10.344  11.690 -0.2730  0.3443 -0.2829
81019SOL    HW161049   7.227  10.256  11.675 -0.2193  0.1359  0.9180
81019SOL    HW261050   7.245  10.399  11.630  0.6043 -0.2760 -0.1337
81020SOL     OW61051   0.590  10.699  11.243  0.0001 -0.5964  0.3036
81020SOL    HW161052   0.508  10.673  11.286 -1.1077  0.2292 -1.2106
81020SOL    HW261053   0.582  10.793  11.231  0.6634 -0.6717 -0.8848
81021SOL     OW61054   5.898  12.885   3.237 -0.5488 -0.2652 -0.1150
81021SOL    HW161055   5.986  12.920   3.232 -0.1688 -1.3506 -1.7680
81021SOL    HW261056   5.879  12.881   3.330  1.1343  0.0193  0.2693
81022SOL     OW61057   2.919   6.806   6.504  0.1667  0.5207  0.6878
81022SOL    HW161058   2.983   6.866   6.466  0.2261  0.1566  0.2035
81022SOL    HW261059   2.850   6.863   6.540  0.1170  0.8658  0.0474
81023SOL     OW61060   9.200   8.168   2.787 -0.3395  0.3206 -0.3897
81023SOL    HW161061   9.222   8.238   2.726 -0.0990  0.6823  0.1089
81023SOL    HW261062   9.146   8.107   2.736  0.9903 -0.0780 -1.3597
81024SOL     OW61063   5.298   7.529  10.715 -0.2562 -0.0198  0.1402
81024SOL    HW161064   5.216   7.548  10.761 -0.8017  1.2066 -1.2428
81024SOL    HW261065   5.363   7.584  10.758 -0.7501  1.0785 -0.4884
81025SOL     OW61066  10.821   2.476   9.497 -0.0228 -0.6447 -0.3674
81025SOL    HW161067  10.730   2.449   9.488  0.4032 -2.7790  1.0630
81025SOL    HW261068  10.856   2.472   9.408 -1.1018 -0.6167 -0.8098
81026SOL     OW61069   7.747   1.312   5.510  0.0701 -1.1203 -0.3427
81026SOL    HW161070   7.725   1.360   5.429 -0.7847  0.6370  0.8668
81026SOL    HW261071   7.840   1.331   5.524  0.2856 -1.6241 -1.0162
81027SOL     OW61072  12.805  11.540   8.308 -0.4986 -0.1805  0.2170
81027SOL    HW161073  12.820  11.634   8.314  3.2281 -0.6650  1.0467
81027SOL    HW261074  12.766  11.517   8.392  0.3747  0.4307  0.8161
81028SOL     OW61075   4.885  13.154   2.509  0.2434 -0.7103 -0.3228
81028SOL    HW161076   4.972  13.115   2.499  1.0484  0.9484 -0.1618
81028SOL    HW261077   4.902  13.247   2.522 -1.6131 -0.1848 -1.3034
81029SOL     OW61078   7.317   9.737  13.124  0.3027 -0.1840  0.0864
81029SOL    HW161079   7.292   9.647  13.140  0.1065 -0.0160  0.7718
81029SOL    HW261080   7.407   9.732  13.090  0.3721 -0.6193  0.3367
81030SOL     OW61081   5.172   7.534  13.493 -0.1925  0.7089  0.0867
81030SOL    HW161082   5.166   7.629  13.496 -0.9096  0.7111 -0.9222
81030SOL    HW261083   5.082   7.504  13.506 -0.3658  0.2601 -1.9043
81031SOL     OW61084   3.956   3.376   3.196  0.2203 -0.4611 -0.1844
81031SOL    HW161085   4.032   3.334   3.156  1.2054 -0.0912  1.2022
81031SOL    HW261086   3.952   3.339   3.284 -1.1709 -0.4093 -0.2049
81032SOL     OW61087  11.142   1.027   0.829 -0.1505 -0.4422  0.1573
81032SOL    HW161088  11.146   1.038   0.924 -0.6205 -1.8608  0.3614
81032SOL    HW261089  11.197   1.097   0.795 -1.0172  0.9261  1.4068
81033SOL     OW61090   6.363   2.119   1.940 -0.5720 -0.3171 -0.2553
81033SOL    HW161091   6.303   2.108   1.866 -1.8480  3.0750  0.1170
81033SOL    HW261092   6.426   2.184   1.909  0.3362 -0.6369  0.8666
81034SOL     OW61093   4.433   2.940   0.676 -0.3105  0.0121  0.1396
81034SOL    HW161094   4.429   2.956   0.771 -1.3513 -0.2612  0.1570
81034SOL    HW261095   4.387   3.015   0.637 -0.7497 -0.3673 -0.0813
81035SOL     OW61096  12.205   5.738   1.203  0.0948  0.1800 -0.1814
81035SOL    HW161097  12.275   5.754   1.139  0.6980  0.7246  0.5870
81035SOL    HW261098  12.227   5.652   1.241  0.6566  0.5786  0.4232
81036SOL     OW61099   1.987  12.208   9.180  0.0799  0.2726 -0.1446
81036SOL    HW161100   2.077  12.188   9.154 -0.3922 -2.1217 -0.1843
81036SOL    HW261101   1.996  12.263   9.257  1.5873 -0.1394  0.0113
81037SOL     OW61102  10.664   6.902   5.677 -0.4943  0.1005  0.3006
81037SOL    HW161103  10.572   6.875   5.674 -0.9495  0.6460  4.3898
81037SOL    HW261104  10.713   6.821   5.693 -0.1127 -0.2313 -2.1344
81038SOL     OW61105   3.940  10.142   7.815 -0.0040 -0.6934  0.1239
81038SOL    HW161106   3.965  10.211   7.753 -0.8989  0.2464  0.7609
81038SOL    HW261107   3.885  10.187   7.879 -1.2077 -2.1524  0.1741
81039SOL     OW61108   6.136  10.672   2.457  0.2044  0.3834  0.0836
81039SOL    HW161109   6.049  10.671   2.419  0.4799  0.2936 -0.5464
81039SOL    HW261110   6.184  10.738   2.406  0.0751  1.5452  1.3905
81040SOL     OW61111   2.507   4.102   4.191  0.8267  0.0238 -0.0167
81040SOL    HW161112   2.569   4.173   4.170  0.7532  0.6811  1.7579
81040SOL    HW261113   2.497   4.107   4.287  0.1468 -1.8494  0.0541
81041SOL     OW61114   9.433  10.850   8.545  0.1811 -0.4461  0.0611
81041SOL    HW161115   9.448  10.757   8.530 -0.6585 -0.3141 -1.8894
81041SOL    HW261116   9.513  10.893   8.516 -0.1674 -0.4359 -0.9056
81042SOL     OW61117   0.518   3.142  13.601  0.6385  0.0306  0.0614
81042SOL    HW161118   0.596   3.088  13.614  0.2845 -0.4985  0.0364
81042SOL    HW261119   0.540   3.226  13.641  1.4902  0.1323 -0.5841
81043SOL     OW61120   0.034   4.864   3.762  0.4311  0.0781 -0.6571
81043SOL    HW161121  -0.040   4.916   3.732  1.5530  2.4343  0.3597
81043SOL    HW261122   0.104   4.883   3.699  0.7882 -0.4331 -0.4251
81044SOL     OW61123   0.087   4.957   0.390  0.1312  0.1833 -0.2677
81044SOL    HW161124   0.101   4.867   0.418  3.2994  0.7222  0.2616
81044SOL    HW261125   0.022   4.991   0.452 -0.8124 -1.5509 -0.2248
81045SOL     OW61126   2.589   6.541  11.917  0.1609  0.4252  0.1953
81045SOL    HW161127   2.628   6.581  11.839  1.8402  1.2982  1.4145
81045SOL    HW261128   2.661   6.491  11.956 -0.3712  0.7792  1.6832
81046SOL     OW61129  12.576   3.488   9.477  0.1478  0.4278  0.0075
81046SOL    HW161130  12.664   3.454   9.459 -0.2255 -0.6166  0.0879
81046SOL    HW261131  12.540   3.508   9.390 -1.0139 -2.9854 -0.4333
81047SOL     OW61132   7.419   8.378   8.324 -0.5301  0.1277  0.2842
81047SOL    HW161133   7.514   8.384   8.324 -0.5948  1.6169 -0.0801
81047SOL    HW261134   7.397   8.350   8.413  0.2021  1.0538  0.7746
81048SOL     OW61135  12.268  13.855   4.487  0.4236  0.1180 -0.5194
81048SOL    HW161136  12.232  13.804   4.415  1.6800 -0.5583 -0.6994
81048SOL    HW261137  12.357  13.876   4.460  0.9861 -0.3070  0.8998
81049SOL     OW61138   5.931   4.080  11.912  0.1971 -0.2041 -0.2448
81049SOL    HW161139   5.880   4.057  11.990  0.3399  1.2728  0.3207
81049SOL    HW261140   5.893   4.027  11.842  0.3569 -1.9104  0.8991
81050SOL     OW61141  11.040   7.598  13.312  0.0015  0.3097  0.0771
81050SOL    HW161142  11.127   7.596  13.350  0.0130 -0.5563  0.0272
81050SOL    HW261143  11.037   7.521  13.254 -1.5595 -1.0483  1.8159
81051SOL     OW61144   2.786   5.409  11.250  0.6896 -0.7306  0.1397
81051SOL    HW161145   2.744   5.411  11.337  0.0935 -0.6201 -0.1435
81051SOL    HW261146   2.878   5.426  11.267  0.5449 -0.5292  0.7367
81052SOL     OW61147  13.520   3.439   0.568  0.5356 -0.1401 -0.4810
81052SOL    HW161148  13.611   3.415   0.585  0.1869  0.0175  1.8873
81052SOL    HW261149  13.474   3.355   0.562  0.4641 -0.2199  0.8322
81053SOL     OW61150   8.395   1.577   8.002  0.1851  0.5840 -0.6805
81053SOL    HW161151   8.348   1.597   8.083  0.6567 -0.2738 -0.1783
81053SOL    HW261152   8.378   1.483   7.988  0.6661  0.5738 -1.2017
81054SOL     OW61153   0.390  11.202   2.271 -0.1845 -0.3881  0.3329
81054SOL    HW161154   0.431  11.116   2.266  0.1626 -0.1919 -0.2963
81054SOL    HW261155   0.390  11.234   2.181 -0.9580 -0.0293  0.4508
81055SOL     OW61156  13.823   1.460   5.282 -0.6719 -0.1664 -1.2347
81055SOL    HW161157  13.805   1.382   5.335 -0.3722 -0.2469 -1.2524
81055SOL    HW261158  13.889   1.508   5.331 -1.2621  0.3638 -0.9484
81056SOL     OW61159   7.779  11.609   1.413  0.3127 -0.1220  0.3756
81056SOL    HW161160   7.725  11.603   1.335 -0.4235 -0.6476  0.9191
81056SOL    HW261161   7.722  11.647   1.480  0.1561 -1.9496  1.3501
81057SOL     OW61162   9.799   4.493  12.636  0.3770 -0.1276  0.1571
81057SOL    HW161163   9.878   4.544  12.652  0.6248  0.1966 -1.9020
81057SOL    HW261164   9.821   4.404  12.665 -0.0056  0.7496  3.6318
81058SOL     OW61165   2.862   1.164   8.019 -0.4240 -0.6141  0.1781
81058SOL    HW161166   2.905   1.224   7.959  2.0274 -1.9585  0.4665
81058SOL    HW261167   2.897   1.188   8.105 -0.2090 -1.7452  0.4210
81059SOL     OW61168  11.619   2.010   2.883  0.3647 -0.6251 -0.3869
81059SOL    HW161169  11.678   2.032   2.955 -0.3489  0.1761 -0.0302
81059SOL    HW261170  11.559   1.945   2.920  0.8551 -1.2435 -0.6714
81060SOL     OW61171   5.309   1.083   3.803  0.5813  0.0942 -0.4680
81060SOL    HW161172   5.282   1.129   3.723 -0.9930  0.4596  0.2423
81060SOL    HW261173   5.227   1.056   3.844  1.2141  1.7277  2.1042
81061SOL     OW61174   0.182   4.235   9.445 -0.0443  0.0489  0.2264
81061SOL    HW161175   0.275   4.257   9.435 -0.3677  0.9644 -1.0683
81061SOL    HW261176   0.140   4.318   9.469 -0.5093 -0.3829  0.9137
81062SOL     OW61177   1.009   3.091   0.705  0.5031  0.4207 -0.0508
81062SOL    HW161178   0.924   3.114   0.743  0.1450 -1.6692  0.5985
81062SOL    HW261179   1.073   3.139   0.757 -0.2407  1.7855 -0.3477
81063SOL     OW61180   9.445   8.237  10.260  0.5570  0.0624 -0.0325
81063SOL    HW161181   9.445   8.302  10.330 -1.8739  0.6510 -0.5037
81063SOL    HW261182   9.455   8.288  10.180  2.7056 -0.5584 -0.2259
81064SOL     OW61183   6.205  12.734   5.411  1.4291 -0.0508 -1.0269
81064SOL    HW161184   6.223  12.822   5.378  1.2319 -0.3476 -1.9579
81064SOL    HW261185   6.289  12.688   5.401  1.8381  0.3308  0.4860
81065SOL     OW61186   4.456   5.402   3.467 -0.2782  0.0992  0.0253
81065SOL    HW161187   4.384   5.373   3.412 -1.3749  0.3961  1.2525
81065SOL    HW261188   4.422   5.399   3.556  1.4141 -0.2872  0.7083
81066SOL     OW61189  10.959  13.015   7.330  0.1545  0.3091  0.3109
81066SOL    HW161190  11.017  13.021   7.405 -0.8589  2.1285  1.0197
81066SOL    HW261191  10.969  13.099   7.285 -1.3717  0.3998  0.0743
81067SOL     OW61192   9.164   2.647   9.689  0.1926 -0.7461  0.5200
81067SOL    HW161193   9.104   2.633   9.616 -0.2240 -0.7052  0.8508
81067SOL    HW261194   9.158   2.567   9.741 -0.0038 -0.5163  0.8544
81068SOL     OW61195   8.175   4.528   6.961  0.0366 -0.3204 -0.3387
81068SOL    HW161196   8.155   4.443   6.921  0.9310 -0.1432 -1.2148
81068SOL    HW261197   8.142   4.592   6.898  0.9463 -0.0342 -0.5366
81069SOL     OW61198   0.300   8.171   6.060  0.3255  0.3121  0.3030
81069SOL    HW161199   0.369   8.208   6.115 -1.5455  2.4092  1.3976
81069SOL    HW261200   0.320   8.203   5.972  0.4419  1.4200  0.7159
81070SOL     OW61201   8.631  11.978   6.433  0.1062 -0.2965 -0.2540
81070SOL    HW161202   8.654  11.906   6.491  0.3008 -0.1192 -0.1100
81070SOL    HW261203   8.571  12.032   6.483  1.6242  0.8154  0.4654
81071SOL     OW61204   0.997  12.676  10.117 -0.1300 -0.1405  0.0905
81071SOL    HW161205   0.916  12.707  10.078  0.5123  1.3316 -0.1332
81071SOL    HW261206   0.971  12.600  10.169 -1.3962 -0.6176 -1.1656
81072SOL     OW61207   3.088   8.348  10.947  0.6224  0.0518  0.4267
81072SOL    HW161208   3.032   8.409  10.996  0.9140  0.9112 -0.3021
81072SOL    HW261209   3.102   8.275  11.008 -0.4331  0.3067  0.9947
81073SOL     OW61210   6.062  12.915   2.264  0.3081 -0.2816 -0.2317
81073SOL    HW161211   5.997  12.957   2.320  1.4409 -0.3133  1.1414
81073SOL    HW261212   6.111  12.987   2.225  1.6726 -0.2350  1.4396
81074SOL     OW61213  14.113   1.035   5.928  0.5570  0.1278  0.1801
81074SOL    HW161214  14.139   0.948   5.898  0.9798 -0.4792  2.1508
81074SOL    HW261215  14.058   1.069   5.858  0.5429 -1.6421 -0.7324
81075SOL     OW61216   3.711  13.581   9.920  0.1517 -0.4355  0.5217
81075SOL    HW161217   3.700  13.674   9.940 -0.2082  0.0638 -1.7151
81075SOL    HW261218   3.794  13.576   9.873 -0.4892 -1.0140 -0.5832
81076SOL     OW61219   9.873  11.070   2.995 -0.3016  0.2780 -0.7103
81076SOL    HW161220   9.782  11.091   3.014 -0.8758 -0.8206 -2.0880
81076SOL    HW261221   9.907  11.033   3.076 -0.6346  1.9708  0.2629
81077SOL     OW61222   6.722  11.446   4.739  0.1393 -0.0692  0.0043
81077SOL    HW161223   6.710  11.496   4.658 -0.3785 -1.6013 -0.9199
81077SOL    HW261224   6.682  11.361   4.720  1.5044 -1.0419  1.3002
81078SOL     OW61225   9.834  12.493   9.968  0.4673  0.5994  0.5473
81078SOL    HW161226   9.779  12.473  10.043  0.0112 -0.4690 -0.0451
81078SOL    HW261227   9.803  12.578   9.936  0.7864  1.1505  1.6489
81079SOL     OW61228   4.411   2.780  12.102  0.4525 -0.1690 -0.0976
81079SOL    HW161229   4.450   2.866  12.087 -0.6906  0.5806  1.0075
81079SOL    HW261230   4.402   2.774  12.197 -0.4265 -1.0629 -0.2204
81080SOL     OW61231  12.544  10.649  11.608  0.4388 -0.2859 -0.6581
81080SOL    HW161232  12.537  10.557  11.581 -2.4431 -0.0055 -1.2370
81080SOL    HW261233  12.531  10.698  11.527 -0.5885  0.5906  0.0115
81081SOL     OW61234  10.503   1.026  13.635 -0.4850 -0.5834  0.7335
81081SOL    HW161235  10.566   1.005  13.566 -0.4884 -0.3353  0.6516
81081SOL    HW261236  10.500   1.122  13.636 -2.1969 -0.5739 -0.4907
81082SOL     OW61237  13.450   2.028   5.150  0.5961  0.2081 -0.1893
81082SOL    HW161238  13.499   1.984   5.219  0.5995  0.4232 -0.0533
81082SOL    HW261239  13.448   1.966   5.078 -0.5503 -0.5546  0.4693
81083SOL     OW61240   4.753   1.340   2.968  0.3185  0.3819  0.7867
81083SOL    HW161241   4.817   1.284   2.925 -0.2653  0.0358  0.3534
81083SOL    HW261242   4.720   1.398   2.899 -0.4467 -0.0177  0.8027
81084SOL     OW61243   5.074   9.479  12.899  0.1907  0.3793  0.0623
81084SOL    HW161244   5.104   9.514  12.983 -0.9768 -0.7131  0.9826
81084SOL    HW261245   5.024   9.400  12.923 -0.5141  0.2777 -1.6316
81085SOL     OW61246   5.230   0.484   0.618 -0.0763 -0.3122 -0.1762
81085SOL    HW161247   5.151   0.537   0.606  0.0228 -0.3350 -0.9845
81085SOL    HW261248   5.202   0.411   0.674 -0.7535 -0.6039 -0.8858
81086SOL     OW61249   8.025   1.714   2.891  0.4741  0.7894 -0.2276
81086SOL    HW161250   8.041   1.763   2.972  3.9957 -0.8197  0.2542
81086SOL    HW261251   8.059   1.771   2.822  0.0480  1.0121 -0.2560
81087SOL     OW61252  12.422   6.049   1.198  0.1382 -0.4726  0.7404
81087SOL    HW161253  12.473   6.124   1.169  0.0718 -0.6139  0.2576
81087SOL    HW261254  12.353   6.039   1.132  0.1564 -0.9635  0.7919
81088SOL     OW61255   4.768  10.255  10.683 -0.1956  0.2214 -0.1229
81088SOL    HW161256   4.847  10.202  10.672  0.1365  0.7116 -0.1433
81088SOL    HW261257   4.801  10.341  10.710 -0.8272 -0.1224  1.8906
81089SOL     OW61258   8.683   2.252   7.620 -0.2007  0.7440 -0.1142
81089SOL    HW161259   8.590   2.276   7.624 -0.8062 -1.4275  0.2666
81089SOL    HW261260   8.696   2.227   7.529 -0.2969 -0.0040  0.0717
81090SOL     OW61261   9.913   2.361   4.595 -0.0660 -0.2475 -0.1604
81090SOL    HW161262   9.858   2.307   4.539  0.2724 -0.5825 -0.1770
81090SOL    HW261263   9.907   2.321   4.681 -0.1745 -0.0405 -0.0711
81091SOL     OW61264   7.655   2.422  13.068 -0.1520  0.3459  0.3946
81091SOL    HW161265   7.684   2.463  13.149  1.5127  1.8910 -0.8780
81091SOL    HW261266   7.712   2.346  13.058 -0.0511  0.4124  0.4628
81092SOL     OW61267  10.144   7.677  12.704 -0.7337  0.0971  0.0543
81092SOL    HW161268  10.147   7.761  12.658  0.3323 -0.6416 -1.2642
81092SOL    HW261269  10.190   7.693  12.786 -1.2872  1.0159  0.2012
81093SOL     OW61270   6.668   1.266   6.716  0.4107  0.0841  0.3003
81093SOL    HW161271   6.677   1.254   6.621  1.4034 -0.6169  0.4696
81093SOL    HW261272   6.739   1.326   6.739  1.2186 -1.0296  0.8243
81094SOL     OW61273   4.874  11.199  10.372  0.3276  0.4571 -0.1243
81094SOL    HW161274   4.949  11.238  10.417  0.2704 -0.8333  1.1590
81094SOL    HW261275   4.905  11.112  10.345 -0.0332  0.7387 -1.5523
81095SOL     OW61276   9.455   3.842   7.600  0.5041  0.3208 -0.5100
81095SOL    HW161277   9.473   3.814   7.690  0.8194 -0.2463 -0.7407
81095SOL    HW261278   9.467   3.937   7.601  0.8917  0.2721 -0.0389
81096SOL     OW61279   2.340  13.914   4.513  0.4309 -0.2521 -0.2040
81096SOL    HW161280   2.249  13.922   4.485  0.5767 -0.6075 -0.8060
81096SOL    HW261281   2.337  13.849   4.584  0.3244 -0.9443 -0.8266
81097SOL     OW61282   5.789  10.254  14.138  0.4877 -0.3855  0.4687
81097SOL    HW161283   5.834  10.299  14.067  0.2260 -0.1176  0.4745
81097SOL    HW261284   5.702  10.293  14.141 -0.0303 -1.4326 -0.0550
81098SOL     OW61285   2.600  11.092   1.326  0.0242  0.0176  0.0446
81098SOL    HW161286   2.626  11.064   1.413  1.8187  0.3907 -0.3230
81098SOL    HW261287   2.525  11.038   1.304 -1.3370  0.8687  2.3322
81099SOL     OW61288   8.038   1.010   7.790  0.7250  0.0962  0.3534
81099SOL    HW161289   8.006   0.997   7.879 -1.3571  1.9711 -0.0287
81099SOL    HW261290   8.054   0.921   7.757  1.1562 -0.6452  2.4091
81100SOL     OW61291   4.897   8.112   2.066 -0.0537  0.0793 -0.2632
81100SOL    HW161292   4.844   8.044   2.023  0.7877 -0.4223 -0.5341
81100SOL    HW261293   4.833   8.175   2.099 -0.9145 -1.3093  0.7961
81101SOL     OW61294  10.765   6.965   4.208  0.0750  0.5874 -0.2496
81101SOL    HW161295  10.737   6.879   4.177  0.7248  0.1871  0.2601
81101SOL    HW261296  10.688   7.020   4.196 -0.4235 -0.1164 -0.3706
81102SOL     OW61297   1.972   3.522   7.529  0.0883  0.8005  0.1510
81102SOL    HW161298   1.981   3.569   7.446  0.8438  0.3497 -0.0296
81102SOL    HW261299   2.034   3.566   7.588 -0.0094  0.7367  0.3015
81103SOL     OW61300  12.615   3.858   9.709 -0.2783 -0.2320  0.1486
81103SOL    HW161301  12.534   3.887   9.666 -1.1463  0.7254  2.2608
81103SOL    HW261302  12.600   3.766   9.729 -0.3323 -0.3742 -0.5063
81104SOL     OW61303   9.115   8.531  12.902 -0.0568  0.8778  0.8019
81104SOL    HW161304   9.108   8.626  12.892 -1.3605  0.5857 -1.8513
81104SOL    HW261305   9.209   8.515  12.908  0.2612  2.2480 -0.0736
81105SOL     OW61306   7.786   8.308  11.580  0.0954 -0.2678 -0.1193
81105SOL    HW161307   7.841   8.232  11.557  0.8995  1.0480 -2.9847
81105SOL    HW261308   7.843   8.364  11.632  0.7366 -0.0202 -1.0577
81106SOL     OW61309   7.833   2.982  11.022 -0.4830 -0.2753  0.2090
81106SOL    HW161310   7.738   2.987  11.013 -0.3821  2.1735 -0.1315
81106SOL    HW261311   7.860   3.070  11.048  1.6853 -0.9655  0.5369
81107SOL     OW61312   1.531  13.513   1.997 -0.2029 -0.3088 -0.3834
81107SOL    HW161313   1.531  13.419   2.012 -1.7384 -0.3389 -0.4200
81107SOL    HW261314   1.537  13.552   2.084 -1.4257 -0.4560 -0.2257
81108SOL     OW61315   2.944   7.477   4.246  0.2624  0.3516  0.0404
81108SOL    HW161316   2.964   7.384   4.254  1.2737  0.1750 -3.2095
81108SOL    HW261317   2.865   7.480   4.192 -0.7589  1.3995  1.5181
81109SOL     OW61318  12.467   5.465   3.323 -0.5649  0.7078  0.2513
81109SOL    HW161319  12.525   5.440   3.395 -0.9790  2.5847  1.2912
81109SOL    HW261320  12.516   5.533   3.276 -0.9395  0.5954 -0.3117
81110SOL     OW61321   5.838  12.423   1.010 -0.8973 -0.1143  0.6031
81110SOL    HW161322   5.746  12.401   1.026 -1.2160  0.7314  0.0604
81110SOL    HW261323   5.849  12.411   0.916 -1.0448  1.7507  0.3102
81111SOL     OW61324   1.550   8.327   9.097 -0.3032 -0.0493  0.0680
81111SOL    HW161325   1.514   8.354   9.012  1.8741  1.4392 -0.4616
81111SOL    HW261326   1.588   8.241   9.080  0.3339  0.3463 -0.5394
81112SOL     OW61327   9.405   6.375  13.004 -0.7167  0.3064 -0.0707
81112SOL    HW161328   9.370   6.312  13.067 -0.4169  0.9278  0.7412
81112SOL    HW261329   9.474   6.422  13.053 -2.0360  2.3991 -0.0893
81113SOL     OW61330  14.145   9.758  10.073  0.4164 -0.7297  0.3789
81113SOL    HW161331  14.175   9.756   9.982 -0.8057  1.4456 -0.1569
81113SOL    HW261332  14.204   9.698  10.119  3.1459  0.4888 -1.2597
81114SOL     OW61333  12.016   4.136  10.248  0.1012  0.6766 -0.1218
81114SOL    HW161334  12.060   4.093  10.175 -0.9312 -1.1069  0.2531
81114SOL    HW261335  11.938   4.177  10.209  0.8907  1.9435 -0.4170
81115SOL     OW61336   7.512   5.320   2.036 -0.1334 -0.2206 -0.0664
81115SOL    HW161337   7.494   5.230   2.009 -0.3304 -0.5418  1.0642
81115SOL    HW261338   7.484   5.373   1.962  0.1685 -1.0897 -0.8386
81116SOL     OW61339   4.630  13.190   9.016  0.0988  0.0663  0.6083
81116SOL    HW161340   4.640  13.124   9.085 -0.4098  0.7844  1.4012
81116SOL    HW261341   4.713  13.237   9.015  0.2498 -0.2057  0.4555
81117SOL     OW61342   8.900   5.528   4.312 -0.0261 -0.2962  0.2504
81117SOL    HW161343   8.953   5.604   4.287 -0.0929 -0.6036 -0.8386
81117SOL    HW261344   8.962   5.455   4.313 -0.3155 -0.5588 -0.5107
81118SOL     OW61345   0.863   3.334   3.816  0.0834 -0.0511 -0.2988
81118SOL    HW161346   0.803   3.281   3.868  1.7228 -2.4064 -0.6633
81118SOL    HW261347   0.948   3.292   3.827  1.1022  1.3333 -2.2678
81119SOL     OW61348   7.767   0.149   1.057  0.3557  0.1628  0.5030
81119SOL    HW161349   7.807   0.148   0.970 -0.9021 -1.8367 -0.1278
81119SOL    HW261350   7.732   0.061   1.068 -0.3479  0.6521  2.6732
81120SOL     OW61351  10.938   0.214   5.438 -0.1787 -0.3609  0.2340
81120SOL    HW161352  10.893   0.155   5.378  1.0323  0.5958 -1.7309
81120SOL    HW261353  11.008   0.253   5.386 -0.0543  1.7658  1.8308
81121SOL     OW61354   4.525   1.653  10.941 -0.6210 -0.0254  0.3696
81121SOL    HW161355   4.449   1.698  10.979 -0.7725  0.4865 -0.5005
81121SOL    HW261356   4.509   1.560  10.958 -0.6813  0.1743  1.5299
81122SOL     OW61357   1.919   3.308   7.385  0.0147 -0.0098  0.4938
81122SOL    HW161358   1.937   3.391   7.429  0.2396 -0.0001  0.3860
81122SOL    HW261359   1.957   3.241   7.441  1.6359  0.1072 -0.4017
81123SOL     OW61360   9.866   5.444   8.050  0.1142  0.1608  0.2279
81123SOL    HW161361   9.954   5.480   8.038  0.6206 -1.0130  0.2147
81123SOL    HW261362   9.880   5.362   8.099 -1.0492  0.3598  0.9398
81124SOL     OW61363   2.746   1.720   1.645 -0.5479 -0.1297  0.3734
81124SOL    HW161364   2.824   1.775   1.657 -1.0666  0.4940  1.0169
81124SOL    HW261365   2.777   1.645   1.595 -0.0737  1.3756 -1.7538
81125SOL     OW61366   7.799   8.274  10.704 -0.3005  0.0420  0.2325
81125SOL    HW161367   7.881   8.315  10.733 -1.2868  0.6515  2.3560
81125SOL    HW261368   7.755   8.248  10.785 -2.6323  0.5513 -0.7860
81126SOL     OW61369   0.596   7.908  13.255 -0.3198 -0.0633  0.3889
81126SOL    HW161370   0.564   7.986  13.210  0.5606  0.2332  0.2515
81126SOL    HW261371   0.531   7.890  13.323 -0.9730  0.2714 -0.1401
81127SOL     OW61372   7.020   6.663   9.965 -0.2969 -0.2490 -0.0198
81127SOL    HW161373   7.078   6.603  10.013 -0.6836 -0.1571  0.5686
81127SOL    HW261374   7.071   6.744   9.957  0.3752 -0.7466 -1.1395
81128SOL     OW61375   9.949   6.441   8.467 -0.3526 -0.6312 -0.1858
81128SOL    HW161376   9.869   6.493   8.479  0.1263  0.0579  0.0843
81128SOL    HW261377   9.968   6.407   8.555 -0.4432 -0.9413 -0.2848
81129SOL     OW61378   8.562   4.500   3.663  0.4231  0.8534  0.3818
81129SOL    HW161379   8.545   4.588   3.629  0.1052  0.1934 -1.2379
81129SOL    HW261380   8.485   4.478   3.715 -0.0396  1.0580 -0.2155
81130SOL     OW61381   7.821  10.871  12.608  0.1708 -0.4287  0.7388
81130SOL    HW161382   7.857  10.927  12.540 -0.4025 -1.2089 -0.2386
81130SOL    HW261383   7.833  10.921  12.689 -0.9210  1.4014 -0.1575
81131SOL     OW61384  12.428   3.096   0.501 -0.2415  0.3912 -0.1134
81131SOL    HW161385  12.475   3.055   0.428 -1.3576  0.5477 -0.9467
81131SOL    HW261386  12.360   3.032   0.523 -2.4022  1.9464 -1.8283
81132SOL     OW61387   1.609   4.995  11.414  0.2189 -0.6134  1.1628
81132SOL    HW161388   1.667   5.021  11.486 -0.7265  2.8194  0.8485
81132SOL    HW261389   1.523   5.030  11.438 -0.3778 -0.3464 -1.1025
81133SOL     OW61390   6.902   2.434  12.738  0.1726  0.5444 -0.1735
81133SOL    HW161391   6.898   2.492  12.813 -0.0781  0.2627  0.0354
81133SOL    HW261392   6.866   2.351  12.770  0.0038  0.4417 -0.6164
81134SOL     OW61393   0.955   5.330   7.416  0.1836  0.0776 -0.4172
81134SOL    HW161394   1.026   5.277   7.380 -1.7531 -1.0072 -3.0299
81134SOL    HW261395   0.999   5.396   7.469  3.1138 -0.5593 -1.8270
81135SOL     OW61396   4.373  13.050  11.079 -0.5560 -0.3059  0.2914
81135SOL    HW161397   4.298  13.004  11.116 -0.3889 -0.8168  0.0107
81135SOL    HW261398   4.378  13.131  11.128 -0.3371 -0.9649  1.3936
81136SOL     OW61399   3.000   0.606  10.417  0.3424  0.2552 -0.2531
81136SOL    HW161400   3.076   0.630  10.365 -1.1143  0.8516 -2.2549
81136SOL    HW261401   2.930   0.662  10.384 -1.0071 -0.3817  1.3929
81137SOL     OW61402  12.518   6.417   9.485 -0.2885 -0.3212  0.3330
81137SOL    HW161403  12.568   6.460   9.415  0.5684  1.0873  1.7307
81137SOL    HW261404  12.555   6.329   9.490  1.4056  0.3552  0.6423
81138SOL     OW61405  13.406   3.670   1.479  0.1296 -0.3278  0.2118
81138SOL    HW161406  13.493   3.653   1.443  0.4516 -0.0513  0.8476
81138SOL    HW261407  13.356   3.703   1.405  0.3428 -1.2105 -0.3383
81139SOL     OW61408   0.389  11.070   3.758  0.1603  0.2573 -0.1873
81139SOL    HW161409   0.303  11.112   3.765 -0.5166 -0.8112 -1.4876
81139SOL    HW261410   0.369  10.981   3.729  1.7926  0.5191 -2.3897
81140SOL     OW61411   0.382  10.617   3.854  0.1859 -0.2864 -0.0430
81140SOL    HW161412   0.426  10.610   3.770 -0.6189  0.2159 -0.5183
81140SOL    HW261413   0.290  10.600   3.835  0.0509 -0.5929  0.8089
81141SOL     OW61414  10.085   2.338   2.063 -0.0661 -0.2452 -0.2183
81141SOL    HW161415  10.092   2.428   2.034 -1.0127 -0.3867 -0.9164
81141SOL    HW261416  10.151   2.330   2.131 -0.5939  1.2275  0.5091
81142SOL     OW61417   3.050  11.331   7.341  0.5337 -0.1907  0.1707
81142SOL    HW161418   3.062  11.328   7.246  0.4281 -1.0286  0.1762
81142SOL    HW261419   3.130  11.374   7.373  0.8148 -0.3837 -0.2555
81143SOL     OW61420   2.557   5.392   2.321 -0.2104 -0.1944  0.7215
81143SOL    HW161421   2.538   5.329   2.251 -0.1093 -0.4123  0.8850
81143SOL    HW261422   2.643   5.365   2.354  0.8571  1.3505 -0.6440
81144SOL     OW61423   4.921  13.628   8.455  0.4999 -0.4536 -0.0675
81144SOL    HW161424   4.940  13.567   8.527  2.6443  0.0773 -0.1320
81144SOL    HW261425   4.827  13.618   8.440  0.6411 -3.2729  0.3442
81145SOL     OW61426  11.545   1.494   8.984 -0.0001 -0.0176 -0.0941
81145SOL    HW161427  11.513   1.570   9.032 -0.4234 -0.3074  0.0912
81145SOL    HW261428  11.473   1.431   8.987  0.5409 -0.6397  0.2278
81146SOL     OW61429   9.809   3.470   7.480  0.6719  0.1225 -0.1400
81146SOL    HW161430   9.898   3.505   7.491  0.7843  0.1529 -1.0773
81146SOL    HW261431   9.797   3.465   7.386 -0.7434  1.1860 -0.0418
81147SOL     OW61432   8.297   8.799   0.552 -0.2998 -0.6002 -0.2550
81147SOL    HW161433   8.297   8.732   0.620 -1.0069 -1.3452 -0.9683
81147SOL    HW261434   8.333   8.877   0.595 -3.5953 -0.0898  1.9531
81148SOL     OW61435  12.792   3.575   4.858  0.0317 -0.3391  0.5843
81148SOL    HW161436  12.786   3.559   4.952  1.2890 -1.6274  0.4814
81148SOL    HW261437  12.883   3.603   4.844 -0.0893 -0.3420 -0.2656
81149SOL     OW61438   5.882  13.475  10.466 -0.0445 -0.2638  0.0807
81149SOL    HW161439   5.841  13.404  10.516  1.1690 -0.6922  0.5052
81149SOL    HW261440   5.958  13.500  10.519  0.8575 -0.2183 -1.1960
81150SOL     OW61441   7.829   4.885   7.382 -0.5814  0.0074 -0.4330
81150SOL    HW161442   7.747   4.885   7.334 -2.4711  0.3297  2.5331
81150SOL    HW261443   7.855   4.977   7.386 -0.7844  0.0566 -0.2609
81151SOL     OW61444   2.719  14.004   7.091  0.4995  0.3932  0.3858
81151SOL    HW161445   2.763  14.014   7.176  0.8913 -0.9493  0.3480
81151SOL    HW261446   2.644  13.948   7.109 -0.0520  0.9980  0.0384
81152SOL     OW61447   2.640   3.142   8.568  0.0612  0.5182  0.4520
81152SOL    HW161448   2.704   3.156   8.498 -0.1800  1.9621  0.4922
81152SOL    HW261449   2.691   3.104   8.639  0.0138 -2.5298 -1.0053
81153SOL     OW61450   8.219   5.822   7.328 -0.1924  0.7426  0.8166
81153SOL    HW161451   8.303   5.820   7.373  0.0207 -1.1923  0.4411
81153SOL    HW261452   8.221   5.746   7.269 -1.7319  1.3371 -0.0755
81154SOL     OW61453   7.455  10.586   2.172 -0.0790  0.4879  0.6232
81154SOL    HW161454   7.449  10.638   2.091 -0.5018 -0.5338 -0.0134
81154SOL    HW261455   7.549  10.585   2.192  0.0039  0.9578  0.2916
81155SOL     OW61456  10.835  13.440  13.194  0.1362 -0.4334  0.0277
81155SOL    HW161457  10.809  13.506  13.258  2.7504  0.3096  0.4463
81155SOL    HW261458  10.817  13.480  13.109 -0.8167 -0.3269  0.2671
81156SOL     OW61459   3.293   4.006   0.035  0.2720 -0.6163 -0.2927
81156SOL    HW161460   3.224   4.021   0.100  1.3976  2.5681  0.3834
81156SOL    HW261461   3.298   3.911   0.026 -3.7703 -1.0362  0.0093
81157SOL     OW61462   6.375   6.811   0.004 -0.1864  0.1530 -0.8622
81157SOL    HW161463   6.448   6.814   0.066  0.0716 -0.0727 -1.1578
81157SOL    HW261464   6.389   6.887  -0.052 -0.2964  0.2291 -0.7876
81158SOL     OW61465   6.610   0.507  10.095  0.2878  0.7460  0.5022
81158SOL    HW161466   6.580   0.445  10.028 -0.2841  1.4357  0.0968
81158SOL    HW261467   6.675   0.459  10.145 -1.2414 -0.7127  1.1842
81159SOL     OW61468  12.877   9.398  13.945 -0.2494 -0.1268 -0.0179
81159SOL    HW161469  12.854   9.333  14.010 -1.2477  0.9727  0.7710
81159SOL    HW261470  12.858   9.482  13.987 -1.9898  0.5976 -2.0791
81160SOL     OW61471   1.149  10.862   4.078  0.2766 -0.4631  0.0780
81160SOL    HW161472   1.199  10.892   4.002  1.9925  0.9276  1.6484
81160SOL    HW261473   1.126  10.771   4.057 -0.6985  0.3271 -2.7302
81161SOL     OW61474   4.482   3.693   0.944  0.2007 -0.0146 -0.6641
81161SOL    HW161475   4.514   3.762   0.885  1.0673 -0.1128 -0.3199
81161SOL    HW261476   4.397   3.668   0.907 -0.0013  1.0437 -0.9483
81162SOL     OW61477  12.243  12.732  11.131  0.0568 -1.1716 -0.2202
81162SOL    HW161478  12.314  12.698  11.185 -1.1832 -1.7625  1.0976
81162SOL    HW261479  12.169  12.675  11.150 -1.4540  0.8424  0.2482
81163SOL     OW61480   1.235   8.799   5.744  0.8103  0.0320 -0.1276
81163SOL    HW161481   1.182   8.724   5.717 -0.1697  0.0748  1.5208
81163SOL    HW261482   1.204   8.871   5.689  0.8801 -0.4902 -0.8600
81164SOL     OW61483   0.908   1.587   6.140  0.1016  0.1645 -0.4085
81164SOL    HW161484   0.855   1.544   6.206 -0.2519  1.1940 -0.0072
81164SOL    HW261485   0.922   1.676   6.174  1.1117  0.2632 -1.0418
81165SOL     OW61486   4.081   5.462   4.356  0.9623  0.1428 -0.4329
81165SOL    HW161487   4.083   5.507   4.271  1.5051  1.1468  0.1034
81165SOL    HW261488   4.160   5.491   4.401  0.7438 -0.4791  0.3760
81166SOL     OW61489  13.059  14.105  10.259  0.0757  0.0442 -0.6888
81166SOL    HW161490  13.152  14.116  10.238 -0.1891  0.5355 -1.6927
81166SOL    HW261491  13.043  14.162  10.334  0.6916 -0.4384 -0.1848
81167SOL     OW61492   1.527   9.216  10.975 -0.2126  0.1895  1.0111
81167SOL    HW161493   1.551   9.263  10.896  0.4065  1.1962  1.7842
81167SOL    HW261494   1.589   9.143  10.980  0.9520  1.1891  1.5349
81168SOL     OW61495   7.769   3.430   3.711 -0.1139 -0.0102 -0.2255
81168SOL    HW161496   7.791   3.455   3.622 -2.0042  0.0144 -0.7335
81168SOL    HW261497   7.825   3.356   3.731  0.7858  0.4023 -1.1882
81169SOL     OW61498   9.739   7.968  12.307 -0.3997  0.5457  0.3784
81169SOL    HW161499   9.791   7.911  12.250 -0.7819  1.2862 -0.7435
81169SOL    HW261500   9.659   7.918  12.325 -0.4597  0.4710 -0.0817
81170SOL     OW61501   1.119   7.954   3.349  0.1266 -0.5061  0.5186
81170SOL    HW161502   1.169   7.912   3.279  1.0513 -2.1986  2.0902
81170SOL    HW261503   1.034   7.911   3.347  0.2171 -0.6885  0.5317
81171SOL     OW61504  10.639   5.931  12.308 -0.5333 -0.3384  0.1182
81171SOL    HW161505  10.594   5.855  12.346 -0.4243 -0.3681  0.1862
81171SOL    HW261506  10.703   5.956  12.374  0.2987 -0.9592 -0.4350
81172SOL     OW61507  10.883   7.093  11.908 -0.1427 -0.2915 -0.9174
81172SOL    HW161508  10.791   7.068  11.898 -0.5154 -0.3414  1.7206
81172SOL    HW261509  10.932   7.015  11.883 -1.0197 -1.4816  0.7851
81173SOL     OW61510   0.808   3.719   2.695  0.7050 -0.4541  0.2311
81173SOL    HW161511   0.752   3.641   2.700  0.7442 -0.5903 -1.1178
81173SOL    HW261512   0.870   3.699   2.625  0.8323  0.7244 -0.0017
81174SOL     OW61513  12.504   4.634   2.570 -0.2957  0.0773 -0.1533
81174SOL    HW161514  12.580   4.624   2.513 -0.3861  1.9126 -0.6731
81174SOL    HW261515  12.541   4.639   2.658  0.1538  0.4236 -0.3531
81175SOL     OW61516  10.913   0.378  10.703  0.2707  0.1979  0.3355
81175SOL    HW161517  10.976   0.309  10.723  0.2480  0.5447  1.6959
81175SOL    HW261518  10.837   0.359  10.758  0.6440  1.8212  1.4832
81176SOL     OW61519   0.444   2.048  10.579 -0.4909 -0.3766  0.7664
81176SOL    HW161520   0.411   2.066  10.491  2.1348 -1.2926 -0.5064
81176SOL    HW261521   0.378   1.991  10.618 -0.9877 -1.2224 -1.1979
81177SOL     OW61522   1.472  10.050  13.294  0.5782  0.0597 -0.5696
81177SOL    HW161523   1.383  10.045  13.330  1.2456  2.3800  1.7422
81177SOL    HW261524   1.508   9.963  13.307 -0.7468 -0.4062  0.2415
81178SOL     OW61525   3.744   3.940   1.412 -0.2778 -0.1333  0.0593
81178SOL    HW161526   3.738   3.987   1.495 -1.5041 -0.3387  0.1030
81178SOL    HW261527   3.704   3.855   1.430  1.8341 -1.2137 -0.0409
81179SOL     OW61528   6.690   2.952   4.974  0.1741  0.0835  0.4487
81179SOL    HW161529   6.691   3.027   4.914  0.8832  1.4717  2.1044
81179SOL    HW261530   6.776   2.955   5.017  0.8769 -2.6644 -0.5469
81180SOL     OW61531  12.225   6.273   5.881  0.4664  0.2620  0.3903
81180SOL    HW161532  12.148   6.297   5.932 -0.2477  2.3949 -1.5668
81180SOL    HW261533  12.203   6.188   5.843  0.1815 -0.3709  1.8936
81181SOL     OW61534   7.748   2.697   3.139 -0.1369  0.3401 -0.2725
81181SOL    HW161535   7.732   2.749   3.218  0.1577  1.1794 -0.7544
81181SOL    HW261536   7.774   2.612   3.171 -0.7065  0.4622  0.5391
81182SOL     OW61537   9.083   0.629  12.363 -0.2154  0.3899  1.1030
81182SOL    HW161538   9.002   0.626  12.312  0.3391 -0.5360  0.2409
81182SOL    HW261539   9.123   0.713  12.339  0.2411 -0.2020 -0.3746
81183SOL     OW61540   8.363   7.374  11.152  0.1206 -0.1108 -0.1849
81183SOL    HW161541   8.362   7.469  11.138  0.9594  0.1956  1.5995
81183SOL    HW261542   8.272   7.346  11.135  0.1280  0.7727 -1.9359
81184SOL     OW61543   5.831  10.602  11.251  0.2784  0.2426  0.2806
81184SOL    HW161544   5.793  10.580  11.166 -0.0814 -0.7138  0.6781
81184SOL    HW261545   5.774  10.671  11.286 -1.0057 -1.0425  0.7889
81185SOL     OW61546   8.236   9.655   2.965 -0.4725 -0.1882  0.0677
81185SOL    HW161547   8.215   9.747   2.981 -2.4631 -0.4619 -0.6584
81185SOL    HW261548   8.152   9.609   2.977  0.4578 -1.9051  0.3237
81186SOL     OW61549   2.235  12.815  13.667 -0.2901 -0.0794 -0.3517
81186SOL    HW161550   2.151  12.775  13.689 -0.3125 -0.7568 -1.5798
81186SOL    HW261551   2.261  12.773  13.585  0.5728  1.1312 -0.7266
81187SOL     OW61552   4.127   9.743  13.156 -0.0993 -0.5448 -0.1768
81187SOL    HW161553   4.142   9.667  13.099  2.1362 -0.1451 -0.2421
81187SOL    HW261554   4.192   9.734  13.226  0.0153  1.1345 -0.0137
81188SOL     OW61555   0.647   4.341   2.219 -0.2110  0.2828  0.1983
81188SOL    HW161556   0.598   4.342   2.301 -0.7062  1.3743 -0.0856
81188SOL    HW261557   0.700   4.421   2.222  1.1424 -0.5863  0.2371
81189SOL     OW61558   4.781  13.363   8.483 -0.2363 -0.0307 -0.1910
81189SOL    HW161559   4.729  13.409   8.417 -1.7269 -0.8982  0.3142
81189SOL    HW261560   4.716  13.314   8.534  0.8665  0.5889  1.9181
81190SOL     OW61561   1.418   9.962   2.411 -0.4041 -0.1725  0.3146
81190SOL    HW161562   1.347  10.001   2.460 -0.4603 -1.7491  1.5623
81190SOL    HW261563   1.378   9.934   2.329 -1.2873 -1.1871  1.0648
81191SOL     OW61564  10.166   0.542   0.028 -0.6639  0.0829 -0.4504
81191SOL    HW161565  10.192   0.471   0.087 -1.0806 -0.0613 -0.4357
81191SOL    HW261566  10.118   0.603   0.084 -0.6268  0.1958 -0.5410
81192SOL     OW61567   3.119   5.173  10.266 -0.1719 -0.4564  0.7723
81192SOL    HW161568   3.130   5.268  10.259  1.9024 -0.4987  2.4317
81192SOL    HW261569   3.158   5.139  10.186 -0.9721  0.0834  0.1435
81193SOL     OW61570   4.660   0.129   7.193 -0.0330  0.1427  0.0963
81193SOL    HW161571   4.649   0.142   7.287  0.1259 -0.4209  0.1944
81193SOL    HW261572   4.575   0.154   7.155 -0.1653  0.1619  0.4051
81194SOL     OW61573   0.067   0.182   7.456 -0.2321  0.7327 -0.9643
81194SOL    HW161574   0.103   0.093   7.447 -1.7021  0.2229 -2.2113
81194SOL    HW261575   0.137   0.231   7.498  1.1989 -0.6657 -1.5758
81195SOL     OW61576   9.599   6.942  11.155 -0.1456  0.0251  0.1395
81195SOL    HW161577   9.638   6.993  11.084  0.5080 -1.5836 -0.7061
81195SOL    HW261578   9.659   6.954  11.229 -0.0028  0.4705 -0.0432
81196SOL     OW61579   8.892   4.759  12.900 -0.2222 -0.4539 -0.2377
81196SOL    HW161580   8.977   4.788  12.867  0.1559 -0.1993  0.9049
81196SOL    HW261581   8.879   4.809  12.981 -0.4507 -2.0160  0.7441
81197SOL     OW61582  10.802   3.203   1.188 -0.3216  0.4178  0.2522
81197SOL    HW161583  10.733   3.260   1.223 -0.2494  0.9427 -0.4373
81197SOL    HW261584  10.828   3.245   1.106 -0.9547 -1.1199 -0.7840
81198SOL     OW61585   7.239  12.585  11.360 -0.2237  0.2649  0.3817
81198SOL    HW161586   7.263  12.587  11.267  0.8608 -0.1088  0.6398
81198SOL    HW261587   7.290  12.655  11.399  0.2173 -0.3352  0.8920
81199SOL     OW61588   6.692   8.445   3.949  0.0279 -0.1355 -0.2909
81199SOL    HW161589   6.741   8.368   3.978 -2.7762 -1.5233  1.0727
81199SOL    HW261590   6.729   8.517   4.001  0.3355 -1.2184  1.0551
81200SOL     OW61591  10.072   3.230   0.717  0.2746 -0.2091  0.1830
81200SOL    HW161592  10.117   3.191   0.642 -0.1562  0.5082 -0.4593
81200SOL    HW261593  10.037   3.312   0.684 -1.4720 -0.7064  0.6640
81201SOL     OW61594  14.064  12.702   3.467  0.5335  0.5593  0.2070
81201SOL    HW161595  14.127  12.691   3.395  2.0559 -1.3414  1.7209
81201SOL    HW261596  14.109  12.760   3.528  1.4839 -1.8279  1.9058
81202SOL     OW61597  13.707   2.144   4.665  0.1244 -0.1223 -0.5399
81202SOL    HW161598  13.619   2.127   4.633  0.9092 -1.9346 -1.8744
81202SOL    HW261599  13.746   2.203   4.601 -0.1504  0.8169  0.1402
81203SOL     OW61600  12.494  10.216   8.328  0.0708 -0.2737 -0.1451
81203SOL    HW161601  12.531  10.140   8.282 -1.9721 -0.7072 -1.2441
81203SOL    HW261602  12.431  10.177   8.390 -0.5461  0.4960 -0.2785
81204SOL     OW61603   2.730   0.129  10.085  0.4082 -0.1952  0.0795
81204SOL    HW161604   2.711   0.089  10.170 -1.9811  2.2945  0.8689
81204SOL    HW261605   2.812   0.088  10.057  1.4891 -0.8770  3.7228
81205SOL     OW61606   2.018   0.186   8.450  0.4232  0.2091  0.3156
81205SOL    HW161607   1.953   0.230   8.395  1.1240  1.3389  0.3549
81205SOL    HW261608   1.976   0.104   8.475 -1.2764  1.2028  0.9128
81206SOL     OW61609   3.517   5.093  12.836 -0.2049 -0.0069  0.3950
81206SOL    HW161610   3.458   5.168  12.830 -0.2805 -0.1646 -2.2103
81206SOL    HW261611   3.600   5.129  12.866 -1.0905  0.5050  2.4106
81207SOL     OW61612   8.948   4.305   9.922 -0.4474 -0.4523 -0.2484
81207SOL    HW161613   9.010   4.239   9.891  0.1468  0.7706 -1.7936
81207SOL    HW261614   8.996   4.387   9.918 -2.1233  0.5434 -1.5328
81208SOL     OW61615  12.812   8.697  11.127 -0.1995  0.3880 -0.1302
81208SOL    HW161616  12.803   8.603  11.142  1.3960  0.0655 -1.0081
81208SOL    HW261617  12.763   8.737  11.198  1.7537 -1.0844  2.1852
81209SOL     OW61618   7.909   6.792  12.745 -0.4955 -0.0561 -0.3392
81209SOL    HW161619   7.994   6.822  12.777  0.1296 -1.9997 -0.0702
81209SOL    HW261620   7.865   6.872  12.714  1.2546  1.0318 -0.1163
81210SOL     OW61621  13.691   1.377   0.076 -0.0571 -0.0801  0.1058
81210SOL    HW161622  13.771   1.426   0.058 -0.5824  0.6010 -0.4114
81210SOL    HW261623  13.630   1.442   0.112 -0.4706 -0.5405  0.2546
81211SOL     OW61624  12.032   2.736   6.729  0.0718  0.1255 -0.0786
81211SOL    HW161625  12.025   2.723   6.635 -0.9977 -1.1998  0.1439
81211SOL    HW261626  12.065   2.653   6.763  0.0065  0.4217  0.7516
81212SOL     OW61627  10.534   3.592   1.972 -0.3720 -0.2307 -0.2113
81212SOL    HW161628  10.551   3.535   2.047 -0.0957  1.4605  1.0749
81212SOL    HW261629  10.605   3.573   1.911 -1.4738 -2.7966 -0.8516
81213SOL     OW61630  13.357  11.267   8.947  0.1292  0.4592  0.0908
81213SOL    HW161631  13.417  11.192   8.939  0.7021  0.7437  1.4511
81213SOL    HW261632  13.282  11.244   8.892 -0.8490 -2.2468  2.3592
81214SOL     OW61633  14.128  12.700   2.261 -0.3529 -0.4218 -0.2384
81214SOL    HW161634  14.143  12.772   2.321 -0.9932 -0.8576  0.4667
81214SOL    HW261635  14.189  12.631   2.290 -0.4439 -0.5219 -0.2820
81215SOL     OW61636   9.947   1.794   7.181 -0.3122 -0.4829  0.7648
81215SOL    HW161637   9.870   1.827   7.227  0.4804  1.6960  0.6637
81215SOL    HW261638   9.990   1.873   7.147  0.1366 -1.8352 -2.1672
81216SOL     OW61639  11.223  12.319   5.753  0.2397 -0.0569 -0.3377
81216SOL    HW161640  11.206  12.373   5.676  1.6277 -0.4025 -0.9146
81216SOL    HW261641  11.240  12.231   5.718 -0.7261 -0.6029  0.4960
81217SOL     OW61642   5.785  12.100   1.550  0.8745  0.5230 -0.3304
81217SOL    HW161643   5.839  12.022   1.560  0.0095 -0.2336 -1.3751
81217SOL    HW261644   5.733  12.104   1.630  1.8731  0.8142  0.3324
81218SOL     OW61645  11.939   5.853   9.385 -0.2730 -0.3201  0.0181
81218SOL    HW161646  11.939   5.947   9.404  0.0009 -0.5462  1.1866
81218SOL    HW261647  11.906   5.812   9.465  1.1568 -1.3322  0.1230
81219SOL     OW61648   2.365   5.970  13.879  0.5090 -0.2387  0.7564
81219SOL    HW161649   2.373   6.036  13.810 -1.3307 -0.1345  0.5674
81219SOL    HW261650   2.454   5.953  13.908  1.1467  1.2127 -0.2515
81220SOL     OW61651   8.483   8.448   1.394 -1.1279  0.5031  0.5472
81220SOL    HW161652   8.454   8.486   1.311  0.6880  0.7088 -0.0318
81220SOL    HW261653   8.442   8.503   1.461 -1.2460  1.4060 -0.2408
81221SOL     OW61654   3.483   4.677   3.080  0.5587  0.7385  0.0507
81221SOL    HW161655   3.553   4.613   3.096  0.7034  0.1606 -2.4899
81221SOL    HW261656   3.527   4.751   3.039  0.3111  2.4051  2.5465
81222SOL     OW61657   5.151   5.918   1.467 -0.1602 -0.4746 -0.1680
81222SOL    HW161658   5.142   5.973   1.545  0.8258 -0.1277 -0.2865
81222SOL    HW261659   5.189   5.836   1.499 -1.8184 -1.1973  0.0401
81223SOL     OW61660  10.501  11.707  12.463  0.4267 -0.0230  0.5158
81223SOL    HW161661  10.589  11.712  12.425  0.6474  2.1345  1.1909
81223SOL    HW261662  10.455  11.784  12.428 -1.0485 -0.8305  0.5793
81224SOL     OW61663   4.343   2.149  12.559 -0.6618  0.5468 -0.3521
81224SOL    HW161664   4.353   2.092  12.636 -1.6231 -0.5352 -1.0028
81224SOL    HW261665   4.398   2.225  12.579  0.6916 -0.6083  0.5353
81225SOL     OW61666   7.021   6.386  13.132 -0.0344 -0.5621 -0.4737
81225SOL    HW161667   7.036   6.357  13.042 -1.7691 -0.4229 -0.8543
81225SOL    HW261668   7.106   6.380  13.174  1.5182  2.2251 -2.8843
81226SOL     OW61669   3.868  13.562   2.870 -0.5591 -0.3953  0.0981
81226SOL    HW161670   3.779  13.536   2.895 -0.7777 -0.2440 -0.4974
81226SOL    HW261671   3.887  13.639   2.923 -1.2518  0.2887 -0.6051
81227SOL     OW61672   6.611   6.061   5.130 -0.4046 -0.3782 -0.0188
81227SOL    HW161673   6.634   6.143   5.172  1.2684 -0.5270 -0.5839
81227SOL    HW261674   6.541   6.084   5.069 -0.7211  0.4003  0.6174
81228SOL     OW61675   4.113   6.613   0.931 -0.2085  0.1205  0.5099
81228SOL    HW161676   4.019   6.608   0.943 -0.2040 -1.3404  0.0864
81228SOL    HW261677   4.136   6.533   0.884  1.4568 -0.3740  2.0503
81229SOL     OW61678   5.982   9.545   3.444 -0.3413  0.2952  0.4787
81229SOL    HW161679   5.936   9.628   3.459  0.3474  0.6028  0.9648
81229SOL    HW261680   5.938   9.483   3.502 -2.2688 -0.2484 -1.4169
81230SOL     OW61681   2.981   9.786   8.935 -0.4652  0.0380 -0.8741
81230SOL    HW161682   3.073   9.765   8.919 -0.5831 -1.2663  0.0231
81230SOL    HW261683   2.948   9.813   8.849  0.4145 -0.8355 -1.5143
81231SOL     OW61684   5.600   6.183  13.426  0.3503 -0.0787 -0.6795
81231SOL    HW161685   5.643   6.191  13.341 -0.4514 -0.8526 -1.1693
81231SOL    HW261686   5.519   6.136  13.408  1.3410 -2.6165  0.8585
81232SOL     OW61687  10.837   4.799   7.600 -0.2452 -0.5240  0.2706
81232SOL    HW161688  10.862   4.718   7.644 -1.0247 -0.0661  1.6296
81232SOL    HW261689  10.741   4.799   7.602 -0.2968 -0.2748 -1.0759
81233SOL     OW61690   0.206   6.418  11.945  0.2141 -0.2923  0.1182
81233SOL    HW161691   0.131   6.468  11.915  0.1982 -0.0128  0.5975
81233SOL    HW261692   0.169   6.337  11.980  0.2133 -0.5156 -0.3945
81234SOL     OW61693  13.884   5.828   1.615 -0.2085  0.7092  0.0635
81234SOL    HW161694  13.851   5.857   1.700 -0.3028 -0.9365  0.6237
81234SOL    HW261695  13.887   5.732   1.622  1.3021  0.6210 -1.2160
81235SOL     OW61696   8.112   4.585  11.874  0.0144 -0.1721 -0.0202
81235SOL    HW161697   8.174   4.553  11.809 -0.4658 -0.4575 -0.3457
81235SOL    HW261698   8.094   4.509  11.930  0.3525  0.0465  0.3924
81236SOL     OW61699   2.116  11.384   7.089  0.0435  0.2186 -0.1078
81236SOL    HW161700   2.186  11.418   7.145  0.0712 -0.4854  0.2965
81236SOL    HW261701   2.131  11.427   7.005  1.3408 -0.3710 -0.2105
81237SOL     OW61702  12.573   2.410   9.163  0.0247  0.3303  0.2248
81237SOL    HW161703  12.636   2.337   9.162  0.2731  0.5365  0.3922
81237SOL    HW261704  12.621   2.483   9.124  0.7581  1.1639  2.5247
81238SOL     OW61705   3.659   7.660   5.409 -0.0118 -0.0762 -0.1101
81238SOL    HW161706   3.570   7.670   5.444 -0.2134 -0.8904 -0.3624
81238SOL    HW261707   3.700   7.597   5.468  0.6116  0.7538  0.3651
81239SOL     OW61708   2.654  11.090   3.732  0.2751  0.3191 -0.3456
81239SOL    HW161709   2.694  11.164   3.778  2.2210 -1.0761  0.3358
81239SOL    HW261710   2.701  11.083   3.649  0.8799 -0.7991  0.0687
81240SOL     OW61711  11.787   3.366   9.981 -0.3659 -0.5991  0.0185
81240SOL    HW161712  11.831   3.418  10.049  2.5188 -0.9302 -1.4033
81240SOL    HW261713  11.725   3.311  10.028  0.8779 -0.1702  2.2856
81241SOL     OW61714   1.204   3.253   3.211  0.0360 -0.6704 -0.1832
81241SOL    HW161715   1.221   3.162   3.234 -0.2524 -0.7674 -0.3504
81241SOL    HW261716   1.115   3.253   3.176  0.0759 -0.3428 -0.2897
81242SOL     OW61717   6.005   1.968   7.621 -0.0307 -0.2431 -0.0299
81242SOL    HW161718   5.968   1.944   7.536  0.8017 -1.3212 -0.0979
81242SOL    HW261719   5.955   2.046   7.647  1.0339  1.3774 -2.4405
81243SOL     OW61720   6.075   0.837   1.242 -0.4641 -0.4433  0.5330
81243SOL    HW161721   5.981   0.831   1.258 -0.7104  0.7577 -0.3569
81243SOL    HW261722   6.088   0.925   1.207  1.4131  0.6471  3.5559
81244SOL     OW61723   8.268  13.353   6.669  0.1649 -0.0299 -0.4379
81244SOL    HW161724   8.343  13.372   6.611  0.4584  0.1614  0.0021
81244SOL    HW261725   8.308  13.323   6.750 -0.2295  0.3478 -0.1019
81245SOL     OW61726   7.893   9.081   2.025 -0.0811 -0.0543  0.1131
81245SOL    HW161727   7.958   9.103   2.092  1.2426  0.7342 -1.3848
81245SOL    HW261728   7.823   9.146   2.038  1.3177  1.7373 -0.8098
81246SOL     OW61729   6.142  13.698  11.720 -0.3934  0.4668  0.3214
81246SOL    HW161730   6.124  13.713  11.627 -0.6828 -0.1332  0.2773
81246SOL    HW261731   6.108  13.611  11.737  0.9569 -0.0294  0.6404
81247SOL     OW61732  13.431  12.391   3.485 -0.2154  0.4155  0.5318
81247SOL    HW161733  13.424  12.317   3.424 -1.5602 -1.8567  3.2176
81247SOL    HW261734  13.349  12.439   3.474 -1.0782 -0.7942  1.4488
81248SOL     OW61735   7.428   8.919   0.626 -0.2752  0.3448  0.3835
81248SOL    HW161736   7.389   8.873   0.701 -1.0635  0.6928  0.1967
81248SOL    HW261737   7.362   8.985   0.601 -0.6804 -0.7171 -1.5391
81249SOL     OW61738  13.035  12.003  10.319 -0.0456  0.5698  0.2095
81249SOL    HW161739  13.114  11.951  10.307  1.6868  3.1738 -0.6180
81249SOL    HW261740  12.977  11.948  10.372  2.2031 -1.5461  0.6366
81250SOL     OW61741   5.602  10.236   1.717  0.0161 -0.9140 -0.1640
81250SOL    HW161742   5.693  10.208   1.712  0.1492 -0.4913 -0.2024
81250SOL    HW261743   5.567  10.188   1.792  0.7154  0.0979  0.8545
81251SOL     OW61744   2.484   7.973   2.010  0.0659 -0.1503  0.2362
81251SOL    HW161745   2.523   7.931   1.933  1.9915  1.8174  0.0383
81251SOL    HW261746   2.402   8.010   1.978  0.4851  0.0016 -0.7021
81252SOL     OW61747   8.307   9.229  10.949  0.0438 -0.1852 -0.2936
81252SOL    HW161748   8.364   9.305  10.956  3.8121 -2.3214 -3.5843
81252SOL    HW261749   8.250   9.248  10.874 -0.5614  0.2138  0.2586
81253SOL     OW61750  12.886   7.643   0.736 -0.0980 -0.0986  0.5038
81253SOL    HW161751  12.869   7.736   0.751 -2.0316  0.0497 -1.9459
81253SOL    HW261752  12.976   7.640   0.705  0.0985  0.8911  0.9278
81254SOL     OW61753   2.573   9.670   1.066 -0.1446  0.0666  0.4747
81254SOL    HW161754   2.637   9.610   1.027  0.6587  0.9302  0.4119
81254SOL    HW261755   2.524   9.704   0.991  1.5698  1.9228  0.1018
81255SOL     OW61756  12.496   4.377   6.010  1.0605  0.5557 -0.1338
81255SOL    HW161757  12.439   4.310   6.046  2.4801 -0.1768  0.8099
81255SOL    HW261758  12.475   4.456   6.060  0.9044  0.2820  0.2369
81256SOL     OW61759   0.715   2.749  12.089  1.0240  0.1733  0.0232
81256SOL    HW161760   0.684   2.659  12.083  0.6119  0.3945 -1.8457
81256SOL    HW261761   0.636   2.801  12.107  0.6461  0.4621 -2.1733
81257SOL     OW61762   1.503   1.552   9.615 -0.1754 -0.0648 -0.0752
81257SOL    HW161763   1.538   1.470   9.578  1.2376 -0.4862  2.0112
81257SOL    HW261764   1.444   1.585   9.547  1.8602 -0.9981 -2.4797
81258SOL     OW61765   2.522  12.375   2.489  0.1151  0.4520 -0.1491
81258SOL    HW161766   2.450  12.435   2.468  0.7110  0.6015 -1.9460
81258SOL    HW261767   2.481  12.289   2.494 -0.8391  0.9562  2.9459
81259SOL     OW61768   4.212   7.975   3.808  0.0114  0.2991  0.5299
81259SOL    HW161769   4.133   7.980   3.862  0.0024  2.4448  0.3966
81259SOL    HW261770   4.280   8.015   3.862  0.8635 -0.8616  0.3535
81260SOL     OW61771   3.332  12.904   7.300  0.1828  0.2005 -0.8693
81260SOL    HW161772   3.398  12.966   7.268  0.9899  0.5642  1.3016
81260SOL    HW261773   3.382  12.839   7.350 -0.9613 -0.3959 -0.4592
81261SOL     OW61774   3.650   5.639   7.368 -0.1888  0.2140 -0.1738
81261SOL    HW161775   3.665   5.733   7.357  1.2094 -0.0815 -0.9799
81261SOL    HW261776   3.554   5.631   7.374 -0.4423  1.5331 -1.7604
81262SOL     OW61777  10.138   0.785   5.784 -0.3092  0.3765 -0.0571
81262SOL    HW161778  10.125   0.862   5.730  1.1142 -0.0034 -0.9776
81262SOL    HW261779  10.217   0.803   5.834 -1.5090  0.6575  1.8596
81263SOL     OW61780  13.055   7.042   0.435 -0.2337 -0.5481 -0.0856
81263SOL    HW161781  13.041   6.960   0.387  0.2850 -0.2633 -0.7492
81263SOL    HW261782  13.138   7.076   0.400 -3.0444  3.2298 -4.2025
81264SOL     OW61783  10.932   9.037   2.931  0.5193 -0.4293 -0.5811
81264SOL    HW161784  10.886   9.033   3.015 -1.5014 -0.9425 -1.6401
81264SOL    HW261785  11.008   9.092   2.949 -0.4446  0.4111  1.3234
81265SOL     OW61786   0.182   2.786   8.340 -0.1466  0.4467 -0.1303
81265SOL    HW161787   0.205   2.790   8.247  0.6978  0.3378  0.0692
81265SOL    HW261788   0.263   2.761   8.384 -0.5837  0.3259  0.6225
81266SOL     OW61789  12.807   1.501  13.626 -0.0684 -0.1108  0.3896
81266SOL    HW161790  12.801   1.439  13.553 -0.0753  0.2969  0.0409
81266SOL    HW261791  12.838   1.448  13.699 -3.0781 -1.2675  0.9826
81267SOL     OW61792   3.323   4.147   0.475  0.3603 -0.2832  0.1656
81267SOL    HW161793   3.360   4.175   0.558 -1.1670 -1.4077  1.2957
81267SOL    HW261794   3.398   4.116   0.424  1.4271  1.2450  0.7414
81268SOL     OW61795  14.143   6.098   7.868 -0.3210  0.2206  0.2904
81268SOL    HW161796  14.231   6.098   7.905  0.3112  0.3558 -1.1614
81268SOL    HW261797  14.098   6.171   7.911  0.1571 -0.0487  1.2702
81269SOL     OW61798   3.814   0.789   3.351 -0.1995  0.1991  0.2069
81269SOL    HW161799   3.893   0.843   3.349 -0.9350  1.3140  0.1457
81269SOL    HW261800   3.845   0.702   3.373  0.9498  0.7955  1.0593
81270SOL     OW61801   3.008   5.550   9.473  0.3529  0.3718 -0.0902
81270SOL    HW161802   3.040   5.630   9.514 -1.3021  1.2557 -0.4366
81270SOL    HW261803   3.039   5.554   9.382  1.7681 -0.2902  0.3297
81271SOL     OW61804   5.220   7.078  10.680  0.2916  0.1710  0.5763
81271SOL    HW161805   5.212   7.167  10.646  0.8464 -0.3902 -1.1737
81271SOL    HW261806   5.251   7.027  10.604 -0.8189 -1.6620  1.3053
81272SOL     OW61807  12.261  10.209   1.662  0.0821  0.2891  0.2857
81272SOL    HW161808  12.262  10.175   1.751 -0.9745  1.4984  0.8083
81272SOL    HW261809  12.190  10.160   1.619  1.3868 -1.1564 -0.2943
81273SOL     OW61810   6.342   3.857  12.807  0.2778 -0.0836 -0.3371
81273SOL    HW161811   6.322   3.895  12.893  0.8612 -0.2624 -0.1163
81273SOL    HW261812   6.374   3.931  12.755  2.1263 -0.3698  0.3220
81274SOL     OW61813   1.308   2.582  13.715 -0.4594  0.3482 -0.3048
81274SOL    HW161814   1.305   2.583  13.811  0.2813  1.6671 -0.2709
81274SOL    HW261815   1.402   2.586  13.695 -0.6329  0.5885 -1.0850
81275SOL     OW61816   2.842  13.193  13.691  0.2880 -0.0815  0.3271
81275SOL    HW161817   2.852  13.137  13.614  0.4450 -0.5689  0.6958
81275SOL    HW261818   2.918  13.250  13.689 -0.3864  0.8307 -0.6153
81276SOL     OW61819   0.633   3.385   3.272 -0.6697  0.2525 -0.0418
81276SOL    HW161820   0.613   3.458   3.213  0.8112 -0.3328 -1.3526
81276SOL    HW261821   0.716   3.409   3.313 -1.4978  0.4766  1.5733
81277SOL     OW61822   7.043   1.977  12.866  0.4893 -0.5361 -0.3911
81277SOL    HW161823   7.132   2.012  12.864  0.1149  0.6136  0.9684
81277SOL    HW261824   7.018   1.979  12.958 -0.8049 -1.2256 -0.6930
81278SOL     OW61825   9.956   8.070  11.488 -0.0059 -0.4252  0.0290
81278SOL    HW161826  10.050   8.061  11.500  0.0098  0.5033  0.6800
81278SOL    HW261827   9.918   8.033  11.567 -0.0383  2.2074  1.3404
81279SOL     OW61828   5.552  12.557   8.562  0.2081  0.0353 -0.1903
81279SOL    HW161829   5.487  12.601   8.616 -0.2536 -1.5641  0.6132
81279SOL    HW261830   5.608  12.511   8.624  0.7759 -0.3878 -0.9913
81280SOL     OW61831   0.747   3.456  13.587 -0.7965 -0.5504  0.0298
81280SOL    HW161832   0.826   3.449  13.534 -0.4353 -0.3260  0.5287
81280SOL    HW261833   0.679   3.482  13.525 -0.2535  0.3268 -0.2229
81281SOL     OW61834   6.486   2.317   2.369 -0.1946 -0.1698  0.6758
81281SOL    HW161835   6.523   2.241   2.413  0.4516 -0.2203  0.0612
81281SOL    HW261836   6.552   2.341   2.304 -1.1271 -0.1029 -0.2665
81282SOL     OW61837   8.536   8.281   3.699  0.1067 -0.2870 -0.3735
81282SOL    HW161838   8.561   8.373   3.692 -0.1518 -0.2563 -0.9039
81282SOL    HW261839   8.572   8.253   3.784 -1.5765  0.8298  0.7683
81283SOL     OW61840  10.097   9.673  11.769 -0.0681  0.6999 -0.0983
81283SOL    HW161841  10.019   9.719  11.739 -1.0105 -0.2275  0.8158
81283SOL    HW261842  10.169   9.735  11.755 -0.9629  1.6061 -0.8833
81284SOL     OW61843   6.221  10.137   6.573 -0.2581  0.0362  0.5556
81284SOL    HW161844   6.130  10.123   6.548  0.0435  0.4214 -0.8501
81284SOL    HW261845   6.217  10.159   6.666 -1.9492  3.0347 -0.0680
81285SOL     OW61846   3.000   3.811  13.178 -0.1620 -0.1266 -0.2466
81285SOL    HW161847   2.908   3.800  13.203 -0.6986  1.8706 -1.1251
81285SOL    HW261848   3.047   3.812  13.262 -1.1847  0.5826  0.3508
81286SOL     OW61849   7.719   6.374   0.452  0.0947 -0.6448  0.5128
81286SOL    HW161850   7.655   6.385   0.381  0.9427  2.6388  0.0963
81286SOL    HW261851   7.801   6.352   0.407  0.7690  2.0026  0.2781
81287SOL     OW61852   2.860  10.887   5.860 -0.2830  0.0368 -0.0771
81287SOL    HW161853   2.812  10.948   5.916 -0.3024  1.5841 -1.7339
81287SOL    HW261854   2.797  10.861   5.793  0.1255 -0.8074 -0.1476
81288SOL     OW61855   3.528   7.776   4.587 -0.2027  0.0982  0.0967
81288SOL    HW161856   3.555   7.685   4.601 -2.1458 -0.4602  0.5844
81288SOL    HW261857   3.474   7.796   4.663  0.3232  1.7473  0.0725
81289SOL     OW61858   4.684  11.981   1.315  0.1392  0.2069  0.2654
81289SOL    HW161859   4.764  11.928   1.318 -0.0962 -0.1511  0.1462
81289SOL    HW261860   4.712  12.068   1.346  1.0857  0.7074 -1.8025
81290SOL     OW61861   8.017  10.525   7.906 -0.2146 -0.1267  0.2354
81290SOL    HW161862   7.960  10.464   7.953  1.6351 -1.1936  1.1879
81290SOL    HW261863   8.047  10.475   7.830 -0.4433  0.3963 -0.2048
81291SOL     OW61864  10.460   5.789   9.690 -0.4970  0.5747  0.3186
81291SOL    HW161865  10.534   5.850   9.681  1.2962 -1.4562  0.3504
81291SOL    HW261866  10.424   5.808   9.777  1.0863  0.5049  1.0308
81292SOL     OW61867   4.333   6.590  12.864  0.6819  0.1747  0.4504
81292SOL    HW161868   4.386   6.662  12.831 -1.1022  2.3888  2.0627
81292SOL    HW261869   4.256   6.588  12.807  1.6510 -1.9770 -0.9113
81293SOL     OW61870   3.563  11.767   8.549 -0.5184  0.2710  0.0611
81293SOL    HW161871   3.640  11.710   8.558  0.6574  1.4874 -1.7066
81293SOL    HW261872   3.509  11.724   8.484 -0.5488  0.2506  0.1002
81294SOL     OW61873   9.028  12.726   9.583 -0.1977 -0.5526  0.7221
81294SOL    HW161874   9.082  12.651   9.606 -0.8278 -0.7048  1.8099
81294SOL    HW261875   9.089  12.791   9.549  0.3111 -1.6765 -0.6208
81295SOL     OW61876   0.263   3.943   4.018 -0.7036 -0.7506  0.4097
81295SOL    HW161877   0.189   4.002   4.033 -0.2992  0.3349 -1.5615
81295SOL    HW261878   0.307   3.978   3.940  0.0741 -3.1523 -0.3341
81296SOL     OW61879  10.672   1.095   9.616  0.3119 -0.0471 -0.0627
81296SOL    HW161880  10.625   1.162   9.665  0.3694  0.8476 -1.1851
81296SOL    HW261881  10.760   1.131   9.605  1.1630 -1.4906  1.5941
81297SOL     OW61882   8.395   1.814  12.300 -0.0913  0.9520 -0.2846
81297SOL    HW161883   8.468   1.797  12.240  0.3519  0.0075  0.5074
81297SOL    HW261884   8.391   1.737  12.356 -1.2328  1.3230  0.1711
81298SOL     OW61885   0.222   9.437   4.047 -0.5904  0.1100 -0.6255
81298SOL    HW161886   0.144   9.491   4.036 -0.4362  0.4605 -0.0386
81298SOL    HW261887   0.193   9.349   4.022 -1.9073 -0.2817  1.8595
81299SOL     OW61888   1.792  11.104   2.713  0.0166  0.2780  0.3081
81299SOL    HW161889   1.846  11.046   2.658  0.7811  0.7076  0.5976
81299SOL    HW261890   1.703  11.094   2.678  0.2193 -0.6883  0.0329
81300SOL     OW61891   3.543  10.421   7.085 -0.5983 -0.5563 -0.4138
81300SOL    HW161892   3.536  10.350   7.021  1.4663 -0.8558 -0.3900
81300SOL    HW261893   3.625  10.403   7.131 -0.3543  1.5131  0.0391
81301SOL     OW61894   9.875  10.498   1.278  0.1484 -0.3605  0.2093
81301SOL    HW161895   9.835  10.504   1.191  0.7224  1.4414  0.0173
81301SOL    HW261896   9.969  10.489   1.260  0.5034  1.9751  0.5683
81302SOL     OW61897  12.528   1.763   2.098 -0.0494 -0.6726 -0.0621
81302SOL    HW161898  12.613   1.769   2.054  0.7763 -0.6655  1.4571
81302SOL    HW261899  12.465   1.796   2.034  1.1832  0.0709 -0.9317
81303SOL     OW61900   7.060   4.293   5.827  0.1883  0.1525 -0.1065
81303SOL    HW161901   7.004   4.340   5.887  1.0299  0.8218  0.1728
81303SOL    HW261902   7.149   4.314   5.855  0.6359 -2.5892  0.8369
81304SOL     OW61903   9.600  11.934   3.697  0.1872  0.1196  1.0539
81304SOL    HW161904   9.531  11.998   3.713  0.2315  0.5758 -0.3712
81304SOL    HW261905   9.554  11.852   3.680 -0.0848  0.5343 -0.4078
81305SOL     OW61906   6.342   9.876  11.734  0.5086 -0.6182 -0.2329
81305SOL    HW161907   6.290   9.956  11.735  1.2774 -0.1146  0.2106
81305SOL    HW261908   6.402   9.888  11.660  1.4784 -0.2143  0.5994
81306SOL     OW61909   8.019   7.951   0.249  0.3597 -0.2970  0.1354
81306SOL    HW161910   8.038   7.913   0.163  2.0809 -0.8224  0.6997
81306SOL    HW261911   8.041   7.881   0.311 -2.8175 -0.6811  0.9838
81307SOL     OW61912  10.335  10.448   7.573  0.5377 -0.4574  0.3322
81307SOL    HW161913  10.325  10.542   7.558  0.3061 -0.5219  0.0762
81307SOL    HW261914  10.256  10.409   7.537  0.1803 -0.6656  1.3122
81308SOL     OW61915   0.905   4.502   8.525 -0.8766 -0.0058 -0.5034
81308SOL    HW161916   0.904   4.451   8.607  0.3831 -0.4155 -0.7285
81308SOL    HW261917   0.873   4.589   8.551  1.1789  0.4193  0.8330
81309SOL     OW61918   3.398   8.520   8.758  0.3264 -0.0877  0.5063
81309SOL    HW161919   3.344   8.442   8.749 -1.2887  0.9491  0.7491
81309SOL    HW261920   3.464   8.497   8.825 -0.0853 -1.2361  0.5298
81310SOL     OW61921   7.289   8.930   3.907 -0.0721  0.2235 -0.1262
81310SOL    HW161922   7.225   8.868   3.873 -0.8986  0.1554  1.4763
81310SOL    HW261923   7.319   8.891   3.989  2.5812 -0.0959 -1.1472
81311SOL     OW61924   1.559   2.000  11.736  0.3542  0.4048 -0.3217
81311SOL    HW161925   1.557   2.046  11.820 -0.1762 -0.6087  0.2337
81311SOL    HW261926   1.577   1.909  11.758 -0.1332  0.0576 -1.2769
81312SOL     OW61927   4.094  13.416   9.292 -0.2534 -0.1542  0.2072
81312SOL    HW161928   4.131  13.331   9.319  1.8295  0.8553  0.7853
81312SOL    HW261929   4.169  13.462   9.254 -1.5847  1.0644 -1.0046
81313SOL     OW61930   0.747  12.410   5.454 -0.2255 -0.3773 -0.1448
81313SOL    HW161931   0.673  12.442   5.402 -0.3096 -1.9481 -1.0720
81313SOL    HW261932   0.824  12.443   5.408 -0.2740  2.2510  1.4737
81314SOL     OW61933  13.432   5.850   5.241 -0.1347  0.1062  0.2324
81314SOL    HW161934  13.464   5.827   5.328  1.5510  1.2402 -0.0486
81314SOL    HW261935  13.475   5.932   5.220 -0.4793 -0.1528 -1.6991
81315SOL     OW61936  12.033  11.262  10.623 -0.3693 -0.2418  0.0407
81315SOL    HW161937  12.024  11.177  10.581  0.1853 -0.4225  0.2732
81315SOL    HW261938  11.953  11.309  10.600 -2.2100 -1.9267  2.4554
81316SOL     OW61939  10.887   9.077   7.378 -0.1791 -0.4157  0.0157
81316SOL    HW161940  10.821   9.008   7.378  0.2234 -0.8108  0.0821
81316SOL    HW261941  10.838   9.159   7.385 -0.6458 -0.7135  0.2264
81317SOL     OW61942   7.532   9.540   1.232  0.3722  0.5554 -0.3199
81317SOL    HW161943   7.577   9.553   1.149 -0.5050 -0.8271 -1.0635
81317SOL    HW261944   7.485   9.457   1.221 -0.9392  1.0588  1.0268
81318SOL     OW61945  10.249  11.949   0.616 -0.7410  0.0101 -0.1028
81318SOL    HW161946  10.155  11.955   0.636 -0.8519 -1.0228 -0.2800
81318SOL    HW261947  10.255  11.881   0.549  0.2638 -0.7973  0.7812
81319SOL     OW61948   0.989   9.378   7.017  0.0973 -0.1809  0.1775
81319SOL    HW161949   0.957   9.457   6.973 -1.3210 -0.7588  0.1321
81319SOL    HW261950   0.956   9.386   7.107 -0.1408 -0.7673  0.1416
81320SOL     OW61951  13.145  12.057   4.632  0.2791  0.1187  0.2102
81320SOL    HW161952  13.137  12.097   4.546 -0.3082  0.5801  0.4695
81320SOL    HW261953  13.137  12.130   4.694  3.3585  0.2128  0.6396
81321SOL     OW61954   0.289   5.541   2.215 -1.2239 -0.2298  0.1203
81321SOL    HW161955   0.220   5.598   2.250 -0.8803  1.1680 -1.4030
81321SOL    HW261956   0.344   5.599   2.163  0.4275 -1.5610  0.3059
81322SOL     OW61957   1.463   2.736   1.691 -0.4042 -0.1778 -0.5876
81322SOL    HW161958   1.508   2.651   1.689  2.0771  0.9972  0.7880
81322SOL    HW261959   1.416   2.740   1.608  0.9156 -2.1356 -1.5091
81323SOL     OW61960   6.798  13.705   4.088 -0.4294 -0.0011 -0.3459
81323SOL    HW161961   6.743  13.644   4.136 -0.1492  0.2029  0.2452
81323SOL    HW261962   6.791  13.787   4.136 -1.5984  0.7413 -1.6934
81324SOL     OW61963   1.612  12.993   4.725  0.0864 -0.2257  0.2272
81324SOL    HW161964   1.685  12.943   4.763  0.3836  1.9928  2.8110
81324SOL    HW261965   1.543  12.989   4.791 -0.6260  1.0757 -0.4114
81325SOL     OW61966   2.726  13.272  10.276  0.9148 -0.0159 -0.1121
81325SOL    HW161967   2.669  13.198  10.256  0.5608 -0.0395  0.9162
81325SOL    HW261968   2.703  13.339  10.212 -0.6720  0.1824  0.6394
81326SOL     OW61969   9.812  11.592  12.616  0.1195  0.0276 -0.0935
81326SOL    HW161970   9.873  11.526  12.650 -0.6096 -1.8139 -2.1108
81326SOL    HW261971   9.786  11.558  12.530 -3.2847  1.0106  0.4087
81327SOL     OW61972   4.037   0.268  12.410 -0.5179  0.6907  0.8417
81327SOL    HW161973   4.035   0.173  12.409 -1.4447  0.6790 -0.9632
81327SOL    HW261974   3.945   0.294  12.405 -0.2306  1.6402  0.0152
81328SOL     OW61975   7.407  12.161  10.721  0.2254 -0.5596 -0.1181
81328SOL    HW161976   7.375  12.191  10.806  0.5473  0.4293 -0.3409
81328SOL    HW261977   7.385  12.232  10.660  0.8692 -0.8358 -0.6848
81329SOL     OW61978   7.569   3.237   5.670 -0.3338  0.3722  0.0230
81329SOL    HW161979   7.640   3.301   5.667  0.4026 -0.4724 -2.2442
81329SOL    HW261980   7.507   3.266   5.603 -0.6131 -0.5696 -0.1400
81330SOL     OW61981  10.392  10.753   5.023  0.3433 -0.0733 -0.2283
81330SOL    HW161982  10.365  10.824   5.081 -0.7166  0.4104 -1.2732
81330SOL    HW261983  10.456  10.793   4.964 -2.0118  0.7585 -2.3981
81331SOL     OW61984   4.999   0.239   6.418  0.0969  0.4660  0.3839
81331SOL    HW161985   4.975   0.290   6.496  0.6726  2.1997 -0.5094
81331SOL    HW261986   5.066   0.178   6.450 -0.8229  0.0251  1.5555
81332SOL     OW61987   0.267   5.267   3.042 -0.0122  0.3367 -0.0860
81332SOL    HW161988   0.314   5.278   3.124  1.0030 -0.4681 -0.5411
81332SOL    HW261989   0.204   5.339   3.040  1.6671  1.8496  0.2104
81333SOL     OW61990   8.928  12.628  10.034 -0.0784  0.0829  0.0564
81333SOL    HW161991   8.920  12.723  10.044 -0.5306  0.4795 -3.0564
81333SOL    HW261992   8.965  12.599  10.117 -0.3431  2.8987  1.3018
81334SOL     OW61993   9.961   9.629   8.258 -0.2350  0.0629  0.1223
81334SOL    HW161994   9.975   9.701   8.196  0.9314 -0.0377  0.2422
81334SOL    HW261995   9.905   9.567   8.212 -0.5549  0.6623 -0.2961
81335SOL     OW61996   5.855  13.643   2.682  0.1437 -0.8066 -0.1023
81335SOL    HW161997   5.905  13.710   2.634  1.1632 -1.7362 -0.3818
81335SOL    HW261998   5.900  13.561   2.662  0.7268 -1.2194  2.5986
81336SOL     OW61999  10.661   7.108  12.695  0.3998  0.7296  0.0388
81336SOL    HW162000  10.571   7.078  12.682  1.3483 -3.0198  0.8497
81336SOL    HW262001  10.703   7.095  12.610  0.8970 -0.8319  0.4782
81337SOL     OW62002  13.288   9.515   1.041  0.2782 -0.6977 -0.0079
81337SOL    HW162003  13.358   9.523   1.106  1.0035 -0.8850 -0.7327
81337SOL    HW262004  13.310   9.581   0.975 -0.2541 -0.7360 -0.2269
81338SOL     OW62005   2.455  10.331  13.784 -1.0181  0.1338 -0.0556
81338SOL    HW162006   2.421  10.257  13.835 -0.2727  0.0464  0.3317
81338SOL    HW262007   2.505  10.382  13.847 -2.0404  1.3302 -0.1790
81339SOL     OW62008   2.142   8.969   9.646  1.0898 -0.4424 -0.0700
81339SOL    HW162009   2.237   8.961   9.658  0.9399 -0.3683  1.3911
81339SOL    HW262010   2.120   9.053   9.685  0.1511 -1.4206  1.6564
81340SOL     OW62011   4.402   0.008   4.623 -0.3859 -0.3616  0.0129
81340SOL    HW162012   4.464  -0.020   4.556 -0.0275 -2.6709  1.1718
81340SOL    HW262013   4.448  -0.008   4.706 -1.7459 -0.1295  0.8504
81341SOL     OW62014  13.454   7.016  11.592  0.1031 -0.2777 -0.7415
81341SOL    HW162015  13.360   6.997  11.595  0.5082 -2.4879 -0.3793
81341SOL    HW262016  13.474   7.055  11.676  0.1465 -3.5903  0.9568
81342SOL     OW62017  12.385   3.023   9.740 -0.2854 -0.7955  0.0864
81342SOL    HW162018  12.442   3.100   9.730 -0.0088 -0.6888  2.1526
81342SOL    HW262019  12.424   2.957   9.684 -1.3097  0.9140 -2.8974
81343SOL     OW62020  13.149   7.588   6.909  0.0756 -0.6890  0.2561
81343SOL    HW162021  13.145   7.601   7.003 -1.0884 -2.5358  0.5223
81343SOL    HW262022  13.125   7.496   6.896 -1.6769 -0.0322 -1.9374
81344SOL     OW62023   0.219   6.290   7.603 -0.3277  0.1066 -0.6261
81344SOL    HW162024   0.169   6.363   7.566 -0.7578  0.4866  0.6395
81344SOL    HW262025   0.290   6.331   7.651 -0.9641 -0.2465  0.6722
81345SOL     OW62026  13.032   1.600  11.875  1.1575  0.5716 -0.3177
81345SOL    HW162027  13.016   1.620  11.783 -0.5495  2.9593  0.3979
81345SOL    HW262028  13.120   1.635  11.892  1.7030 -0.3608 -1.1208
81346SOL     OW62029   7.780   4.482  13.669 -0.0356  0.3780  0.2692
81346SOL    HW162030   7.838   4.410  13.643  0.0411  0.6092 -0.2016
81346SOL    HW262031   7.834   4.560  13.662  0.0185  0.4409  1.2357
81347SOL     OW62032   1.067   7.612  13.018  0.5489  0.2959  0.2189
81347SOL    HW162033   0.988   7.569  13.051  0.7437  0.4006  0.8321
81347SOL    HW262034   1.034   7.691  12.974 -0.0257 -1.4882 -2.8826
81348SOL     OW62035   6.582   2.599   8.967  0.2786  0.1411 -0.1027
81348SOL    HW162036   6.668   2.641   8.959  0.9550 -1.2017 -0.1610
81348SOL    HW262037   6.593   2.535   9.037 -0.7567  0.1307  0.0637
81349SOL     OW62038   3.139  10.572  12.841  0.1027 -0.1470 -0.2974
81349SOL    HW162039   3.072  10.574  12.772  0.2438  1.3043 -0.4142
81349SOL    HW262040   3.221  10.592  12.796  1.0282 -3.6347 -0.4984
81350SOL     OW62041   2.637   2.114   6.860  0.1938  0.0491 -0.4314
81350SOL    HW162042   2.550   2.110   6.820  0.7485 -0.2189 -1.6464
81350SOL    HW262043   2.634   2.192   6.915 -1.0331 -0.3382  0.0849
81351SOL     OW62044  10.362   1.655   7.160 -0.1534  0.0479 -0.8961
81351SOL    HW162045  10.352   1.706   7.241  0.2154 -0.6915 -0.3729
81351SOL    HW262046  10.456   1.653   7.144 -0.2738  0.7158 -1.6917
81352SOL     OW62047   0.891  12.504   3.511  0.1298 -0.0643  0.3687
81352SOL    HW162048   0.832  12.577   3.497 -0.7200 -0.7302  0.4344
81352SOL    HW262049   0.943  12.530   3.588 -1.0139 -0.0400  1.1623
81353SOL     OW62050   1.804   0.406   1.290  0.3138  0.3247 -0.1834
81353SOL    HW162051   1.863   0.350   1.341 -1.9544 -1.8558  0.2963
81353SOL    HW262052   1.814   0.377   1.200 -1.2759 -1.4651  0.1314
81354SOL     OW62053   0.801   4.110   4.770  0.0073  0.3183 -0.0537
81354SOL    HW162054   0.750   4.162   4.832  0.6508  2.1230 -0.9630
81354SOL    HW262055   0.766   4.134   4.684  1.2783  0.3496 -0.5906
81355SOL     OW62056   6.906   6.089  12.086  0.1462  0.5749 -0.1045
81355SOL    HW162057   6.894   6.166  12.031  0.9471  0.9845  0.2856
81355SOL    HW262058   6.820   6.046  12.086 -0.2292  1.3102 -0.5459
81356SOL     OW62059  11.321   4.342   3.788 -0.1602  0.0335 -0.2074
81356SOL    HW162060  11.228   4.345   3.812 -0.5662  1.8896 -1.7183
81356SOL    HW262061  11.357   4.424   3.823  0.1027  0.9060 -2.3672
81357SOL     OW62062   1.557   9.345   5.077 -0.4273 -0.0397 -0.0824
81357SOL    HW162063   1.514   9.307   5.001  0.8151  0.6861 -1.2008
81357SOL    HW262064   1.633   9.289   5.093 -0.8187 -0.3430  0.8187
81358SOL     OW62065   0.613   8.237   1.964 -0.5089 -0.1720  0.0782
81358SOL    HW162066   0.572   8.181   1.898 -1.6879 -0.7632  1.2607
81358SOL    HW262067   0.549   8.241   2.035  0.4435  0.9875  0.9116
81359SOL     OW62068  10.209   4.187   8.259  0.5636 -0.2484  0.3070
81359SOL    HW162069  10.216   4.140   8.176 -0.3269 -0.7865  0.5231
81359SOL    HW262070  10.123   4.231   8.254  0.6699  0.0203  0.7910
81360SOL     OW62071   5.212   6.650  12.179  0.4532  0.3817 -0.2045
81360SOL    HW162072   5.291   6.597  12.185 -0.1646 -0.5569 -0.2224
81360SOL    HW262073   5.140   6.589  12.194 -0.1995  1.5511  1.8175
81361SOL     OW62074   1.105   7.270   7.917 -0.3285  0.2061  0.2757
81361SOL    HW162075   1.059   7.212   7.857  0.8572 -0.0645 -0.4034
81361SOL    HW262076   1.127   7.213   7.992  0.1959 -0.0545 -0.0670
81362SOL     OW62077  11.546   4.118   4.949 -0.0736 -0.1893  0.1467
81362SOL    HW162078  11.563   4.024   4.945 -0.7345 -0.2668 -1.0895
81362SOL    HW262079  11.517   4.142   4.861 -3.6060  0.4336  1.3186
81363SOL     OW62080   8.530   1.404  11.612 -0.0269 -0.4720 -0.2411
81363SOL    HW162081   8.588   1.452  11.671 -0.3851 -1.0202  0.5706
81363SOL    HW262082   8.467   1.361  11.670 -0.1582 -1.3202 -0.9970
81364SOL     OW62083  12.881   1.389  10.269  0.0286 -0.4143 -0.3355
81364SOL    HW162084  12.840   1.307  10.242  0.2061  0.1266 -2.4485
81364SOL    HW262085  12.905   1.432  10.187  1.1699  1.1388  0.7429
81365SOL     OW62086   8.886   1.011   8.954  1.0975  0.1049 -0.3051
81365SOL    HW162087   8.958   1.060   8.996  1.0571  0.1011 -0.2327
81365SOL    HW262088   8.862   1.066   8.879  0.5017  0.6047  0.2405
81366SOL     OW62089   9.628   4.872  13.328 -0.1741 -0.0128 -0.2259
81366SOL    HW162090   9.705   4.828  13.292  1.2964  1.1728  1.2942
81366SOL    HW262091   9.656   4.900  13.415 -2.3929  0.3585  0.4241
81367SOL     OW62092   7.710   2.836   1.352 -0.0416  0.4863 -0.0209
81367SOL    HW162093   7.740   2.752   1.317 -0.3471  0.1835  0.4338
81367SOL    HW262094   7.790   2.884   1.371  0.1947 -0.5605  1.7805
81368SOL     OW62095   8.325  10.559   2.280 -0.4143 -0.5211 -0.5586
81368SOL    HW162096   8.261  10.500   2.321 -1.4714  0.3394 -0.9264
81368SOL    HW262097   8.359  10.509   2.206  1.8917 -2.3040  1.5236
81369SOL     OW62098  12.393   6.928   7.626 -0.0436 -0.4197  0.2008
81369SOL    HW162099  12.342   6.969   7.556 -0.5232 -1.3850 -0.0295
81369SOL    HW262100  12.416   6.842   7.591  0.0127 -0.7781  1.1071
81370SOL     OW62101   3.123  12.963   7.481  0.0996 -0.0301 -0.1773
81370SOL    HW162102   3.161  13.040   7.524 -0.7191  0.2469  0.0696
81370SOL    HW262103   3.192  12.933   7.421  1.2396 -0.4040  1.2754
81371SOL     OW62104   1.895  10.622  13.806  0.1616  0.7517 -0.2718
81371SOL    HW162105   1.831  10.639  13.875  0.1670  0.6306 -0.2376
81371SOL    HW262106   1.979  10.626  13.850  0.0811 -3.1717  0.5947
81372SOL     OW62107   1.493   8.798  13.605 -0.3741 -0.0637 -0.4041
81372SOL    HW162108   1.552   8.829  13.674 -0.6282  0.9704 -0.6337
81372SOL    HW262109   1.405   8.806  13.643 -0.4985  0.2814 -0.7543
81373SOL     OW62110   6.749   7.174   4.436 -0.2072  0.2702 -0.2708
81373SOL    HW162111   6.690   7.237   4.396 -2.7152 -1.6000  0.2422
81373SOL    HW262112   6.786   7.125   4.362 -1.1535 -0.0818 -0.5225
81374SOL     OW62113  12.695   5.577   9.868  0.7480 -0.2361  0.4687
81374SOL    HW162114  12.610   5.550   9.834 -0.4501  2.6203  0.9467
81374SOL    HW262115  12.737   5.495   9.895 -1.6295 -1.7839 -0.2328
81375SOL     OW62116   5.551   1.781  12.776  0.3802 -0.1293  0.1452
81375SOL    HW162117   5.637   1.784  12.735  0.3903 -0.3406  0.1529
81375SOL    HW262118   5.543   1.692  12.810 -0.3109 -0.4710 -0.8746
81376SOL     OW62119   0.686   3.540   9.015  0.5959  0.2572 -0.4847
81376SOL    HW162120   0.720   3.514   9.101  0.9477 -0.7949 -0.9252
81376SOL    HW262121   0.738   3.490   8.952 -1.2304 -0.8289 -1.2165
81377SOL     OW62122   0.850  12.702  12.700  0.7574  0.1569  0.4101
81377SOL    HW162123   0.761  12.685  12.732  0.4268  0.5801 -0.2399
81377SOL    HW262124   0.901  12.625  12.726  0.1759 -0.1368  0.6995
81378SOL     OW62125  12.034  13.681   3.691 -0.5986 -0.1660 -0.0260
81378SOL    HW162126  12.030  13.705   3.784 -0.9331 -0.1225 -0.0518
81378SOL    HW262127  11.955  13.718   3.653 -1.4384 -1.7848  0.0429
81379SOL     OW62128   0.103   5.432   4.560  0.6665 -0.0458 -0.6164
81379SOL    HW162129   0.051   5.447   4.639  1.7976  0.2735  0.0859
81379SOL    HW262130   0.143   5.516   4.541  1.0182 -0.3170 -1.0924
81380SOL     OW62131  12.435   4.962   1.844  0.0263  0.2032 -0.1743
81380SOL    HW162132  12.424   4.985   1.752 -0.9577  1.3369  0.1986
81380SOL    HW262133  12.361   5.003   1.888  1.0965  0.6726  1.2791
81381SOL     OW62134  11.810  12.733   6.503 -0.1405 -0.4302  0.0389
81381SOL    HW162135  11.753  12.683   6.562 -1.3614  0.4636 -0.3301
81381SOL    HW262136  11.787  12.702   6.415  0.7432 -0.8373 -0.0594
81382SOL     OW62137   9.900  13.516   9.353  0.7993  0.0436 -0.1459
81382SOL    HW162138   9.913  13.426   9.321 -0.9210 -0.2492 -0.1253
81382SOL    HW262139   9.822  13.511   9.407 -0.4291  1.8873 -1.6186
81383SOL     OW62140   5.110   2.406   6.143  0.1443 -0.5581  0.4146
81383SOL    HW162141   5.033   2.389   6.197  0.6607 -2.1677  0.7037
81383SOL    HW262142   5.127   2.323   6.098  2.4232 -0.6380  1.2945
81384SOL     OW62143  10.543   2.749   7.209  0.1306  0.0685  0.0463
81384SOL    HW162144  10.473   2.777   7.150 -0.4808 -0.8981  0.2908
81384SOL    HW262145  10.624   2.778   7.166 -0.4483  3.8117  1.1259
81385SOL     OW62146   0.591   7.690   5.156  0.4647  0.3373 -0.3780
81385SOL    HW162147   0.517   7.745   5.179  1.5558  1.2891  1.0702
81385SOL    HW262148   0.627   7.729   5.076 -0.2517  0.2007 -0.7699
81386SOL     OW62149   7.653   8.774   7.845 -0.1613 -0.1157  0.1165
81386SOL    HW162150   7.735   8.787   7.892  0.6033  0.8609 -1.4135
81386SOL    HW262151   7.585   8.793   7.910  0.7779 -1.2541  1.5028
81387SOL     OW62152   3.190   2.804   1.954  0.1555  0.5268  0.2751
81387SOL    HW162153   3.160   2.873   2.015 -0.7453  0.1116  0.3231
81387SOL    HW262154   3.131   2.731   1.971  0.9914 -0.1947  0.0854
81388SOL     OW62155   1.456  13.943   8.998 -0.1752 -0.5376 -0.3346
81388SOL    HW162156   1.386  13.938   8.933  0.8123 -0.0792 -1.4648
81388SOL    HW262157   1.464  14.036   9.018 -0.4690 -0.6765  0.4544
81389SOL     OW62158   6.261   8.563   8.023  0.1380  0.6050  0.8144
81389SOL    HW162159   6.348   8.548   7.986 -0.2913 -0.6203  0.2396
81389SOL    HW262160   6.206   8.584   7.947 -0.5276 -0.8820  0.8469
81390SOL     OW62161   8.515   2.057   6.520 -0.2415  0.2682 -0.4350
81390SOL    HW162162   8.590   2.008   6.486 -0.0844  1.4359 -1.8596
81390SOL    HW262163   8.547   2.093   6.603 -0.2377 -1.6541  0.4409
81391SOL     OW62164   1.671   1.899   7.797  0.1942  0.1586 -0.0563
81391SOL    HW162165   1.712   1.876   7.880 -0.0097 -0.6538 -0.1651
81391SOL    HW262166   1.708   1.836   7.734 -1.3085 -0.7124 -0.1244
81392SOL     OW62167  11.762   5.445   6.423  0.0293 -0.3563 -0.3586
81392SOL    HW162168  11.733   5.534   6.445 -0.5735 -0.8724  1.0927
81392SOL    HW262169  11.710   5.421   6.346 -0.3652  0.2724 -0.2964
81393SOL     OW62170   8.760   2.289  13.308  0.2318  0.2349 -0.2915
81393SOL    HW162171   8.669   2.259  13.299  0.3315 -0.5217  0.9728
81393SOL    HW262172   8.763   2.328  13.395  0.9025  1.1145 -0.6976
81394SOL     OW62173  10.405  11.830   1.648 -0.0177 -1.1586 -0.0800
81394SOL    HW162174  10.405  11.918   1.684 -1.1045 -1.1809 -0.0125
81394SOL    HW262175  10.428  11.774   1.722  0.2809 -0.9731 -0.0314
81395SOL     OW62176   8.400  11.419   2.659  0.3590 -0.3539  0.1677
81395SOL    HW162177   8.408  11.507   2.696  1.0219 -0.6926  0.8601
81395SOL    HW262178   8.369  11.365   2.732  0.2723 -0.7578 -0.1602
81396SOL     OW62179   4.641   3.928   9.589  0.1394  0.0202 -0.6387
81396SOL    HW162180   4.626   3.903   9.680  1.7096  0.3102 -0.2670
81396SOL    HW262181   4.649   3.845   9.542  1.7146 -0.1927 -0.0555
81397SOL     OW62182   5.002   2.713  11.511 -0.2659  0.4810 -0.0787
81397SOL    HW162183   5.053   2.735  11.433 -2.0740  1.9887 -0.9034
81397SOL    HW262184   5.024   2.781  11.575 -0.8450  0.8656 -0.2756
81398SOL     OW62185  11.674   7.762  10.059 -0.3941  0.2285 -0.3181
81398SOL    HW162186  11.668   7.706   9.982 -1.6501 -1.2980  0.8209
81398SOL    HW262187  11.594   7.815  10.057 -1.4818 -1.2502  0.9180
81399SOL     OW62188   0.404   3.378   5.103 -0.0032  0.3237 -0.0393
81399SOL    HW162189   0.383   3.334   5.185  0.0441  1.3228  0.5201
81399SOL    HW262190   0.322   3.378   5.054 -0.1337  0.0847  0.1736
81400SOL     OW62191   6.131   1.431   1.128 -0.5021 -0.4461  1.0363
81400SOL    HW162192   6.039   1.418   1.151 -1.4529  2.8410 -0.2281
81400SOL    HW262193   6.128   1.464   1.038  1.9152 -0.1069  1.0151
81401SOL     OW62194   6.970   5.175   3.423  0.2680 -0.5432 -0.1282
81401SOL    HW162195   7.019   5.100   3.457  1.3378 -0.7376 -1.9192
81401SOL    HW262196   7.038   5.237   3.395 -0.5812  0.4784  0.0236
81402SOL     OW62197   0.794   2.184   4.695  0.7177  0.2788  0.3953
81402SOL    HW162198   0.888   2.201   4.687  0.8020  0.9069  2.1593
81402SOL    HW262199   0.753   2.270   4.681  0.4404  0.0694 -0.0580
81403SOL     OW62200   0.566  13.468   1.033  0.0264 -0.1888 -0.3016
81403SOL    HW162201   0.477  13.464   1.066  0.3906  0.0627  0.7499
81403SOL    HW262202   0.602  13.549   1.069  0.6967 -0.3081 -0.6751
81404SOL     OW62203   5.936   8.489  12.647 -0.7445 -0.1957  0.2281
81404SOL    HW162204   5.930   8.408  12.697  1.4413  0.7056  2.1363
81404SOL    HW262205   5.960   8.556  12.711 -0.6540  1.6167 -1.5683
81405SOL     OW62206   9.531   3.469  12.199 -0.1937 -0.0863  0.0119
81405SOL    HW162207   9.572   3.405  12.141  0.2506 -1.2991  1.5847
81405SOL    HW262208   9.443   3.436  12.212 -0.4549  0.4524 -0.3292
81406SOL     OW62209   3.950  10.329   0.243 -0.1155 -0.5146 -0.0302
81406SOL    HW162210   3.861  10.311   0.211  0.5764 -1.5408 -1.4746
81406SOL    HW262211   4.002  10.342   0.164  0.5866  2.6223  0.7964
81407SOL     OW62212   3.546  12.211  13.813  0.2066 -0.4309 -0.5974
81407SOL    HW162213   3.500  12.288  13.847  0.2011  0.1331 -1.8256
81407SOL    HW262214   3.639  12.229  13.830  0.2214 -0.0532 -1.0707
81408SOL     OW62215   5.608  10.186  12.617  0.0779  0.1631  0.5755
81408SOL    HW162216   5.516  10.177  12.593  0.2147 -0.3890  0.2353
81408SOL    HW262217   5.622  10.117  12.682  0.1518  0.5103  0.9311
81409SOL     OW62218   6.187  11.636   1.725  0.1224 -0.3545 -0.4921
81409SOL    HW162219   6.185  11.730   1.737 -1.3280 -0.5679  1.4336
81409SOL    HW262220   6.279  11.616   1.706  0.1515  1.5715 -2.8800
81410SOL     OW62221   7.419   2.733  14.082  0.2573 -0.2297  0.0260
81410SOL    HW162222   7.453   2.822  14.093 -0.5931  0.5963 -3.1074
81410SOL    HW262223   7.325   2.741  14.099  0.3162 -0.7787  0.6698
81411SOL     OW62224   4.886   4.889  12.458 -1.0041  0.0914 -0.0638
81411SOL    HW162225   4.923   4.963  12.410 -0.7277  0.0314  0.0565
81411SOL    HW262226   4.833   4.929  12.527  1.0513  0.2182  1.5293
81412SOL     OW62227   6.233  12.483   9.293 -0.4981 -0.1073  0.2639
81412SOL    HW162228   6.186  12.421   9.349 -1.5117  0.9089  0.5552
81412SOL    HW262229   6.314  12.436   9.269 -0.1864 -0.7057  2.2857
81413SOL     OW62230   8.534   9.018   7.631 -0.5437 -1.0721  0.0148
81413SOL    HW162231   8.578   8.950   7.579 -0.8805 -0.4825 -1.0767
81413SOL    HW262232   8.541   8.987   7.721 -0.1321 -2.2416 -0.3917
81414SOL     OW62233  10.245   6.818   3.183  0.4665 -1.0827 -0.1089
81414SOL    HW162234  10.200   6.789   3.104 -2.9699 -1.4914  1.8090
81414SOL    HW262235  10.242   6.914   3.178  0.7170 -1.0998 -0.6848
81415SOL     OW62236   0.468  12.379   4.120 -0.2510  0.4417  0.1228
81415SOL    HW162237   0.434  12.315   4.183 -0.0878 -1.2519 -1.4349
81415SOL    HW262238   0.394  12.396   4.062  0.0925  0.6333 -0.2616
81416SOL     OW62239   7.194   0.658  10.138 -0.5926  0.2686 -0.3806
81416SOL    HW162240   7.167   0.566  10.129  0.8542 -0.3480  1.1191
81416SOL    HW262241   7.132   0.695  10.202 -0.0484 -0.1912  0.4274
81417SOL     OW62242   8.155  10.377   3.946 -0.5058  0.1017 -0.0578
81417SOL    HW162243   8.215  10.327   4.002  0.7641  0.4988 -0.9947
81417SOL    HW262244   8.132  10.316   3.876 -1.5674 -0.1871  0.5279
81418SOL     OW62245   8.549  11.841   4.356 -1.2055  0.1514  0.2299
81418SOL    HW162246   8.557  11.937   4.352  0.7708 -0.0160 -0.8558
81418SOL    HW262247   8.476  11.826   4.416 -3.0254  2.3696 -1.2528
81419SOL     OW62248  12.167   7.877  11.466 -0.1133  0.0468  0.0346
81419SOL    HW162249  12.131   7.965  11.480  0.1007  0.2837 -0.8206
81419SOL    HW262250  12.198   7.879  11.375  1.9441 -0.1777  0.6889
81420SOL     OW62251  11.562  10.920  13.536 -0.0792 -0.5285 -0.1682
81420SOL    HW162252  11.632  10.944  13.476  1.2365 -2.5327  0.4610
81420SOL    HW262253  11.525  10.840  13.499 -1.1114 -0.2627  0.2561
81421SOL     OW62254  10.463   7.101   4.873  0.0354 -0.2595  0.7805
81421SOL    HW162255  10.465   7.126   4.966 -1.4465  0.2884  0.7004
81421SOL    HW262256  10.404   7.165   4.833  2.7447  1.2122 -1.1299
81422SOL     OW62257   4.717  12.606   4.809 -0.6021  0.1283  0.4248
81422SOL    HW162258   4.776  12.637   4.740 -1.2701 -1.7174 -1.0459
81422SOL    HW262259   4.776  12.579   4.880  0.4827 -2.1878 -1.2090
81423SOL     OW62260   8.058   4.311   1.021 -0.5719  0.1673 -0.3355
81423SOL    HW162261   7.989   4.244   1.019  0.3979 -0.8458 -1.7537
81423SOL    HW262262   8.113   4.291   0.945  1.3585  0.8693  0.8069
81424SOL     OW62263  11.532  12.244  13.462 -0.4398  0.5495 -0.0476
81424SOL    HW162264  11.515  12.310  13.395 -2.4209 -1.9890 -2.3067
81424SOL    HW262265  11.460  12.254  13.524 -1.3832 -0.1273 -0.9965
81425SOL     OW62266   5.208   5.120  14.070  0.2641 -0.0369 -0.0934
81425SOL    HW162267   5.216   5.111  14.165 -0.2276  0.5522  0.0134
81425SOL    HW262268   5.235   5.035  14.036 -1.5830 -0.9979  0.6884
81426SOL     OW62269   2.761   8.872  12.367  0.2674  0.0478 -0.1358
81426SOL    HW162270   2.821   8.873  12.441  0.5013  0.0600 -0.3242
81426SOL    HW262271   2.801   8.930  12.303 -0.7590  1.3541  0.3689
81427SOL     OW62272   9.427   1.541   8.424 -0.0860 -0.1345 -0.1663
81427SOL    HW162273   9.508   1.491   8.434 -0.6477 -1.1651 -0.5810
81427SOL    HW262274   9.361   1.475   8.403 -0.5770  0.9273 -2.1847
81428SOL     OW62275  11.599  10.729   4.201 -0.2575  0.2582 -0.2871
81428SOL    HW162276  11.689  10.718   4.231 -0.7503 -0.1890  1.0905
81428SOL    HW262277  11.546  10.685   4.268 -1.6513  2.5341  0.2124
81429SOL     OW62278   3.096  11.560   1.528 -0.4949  0.3438  0.1155
81429SOL    HW162279   3.137  11.643   1.552  0.5937  0.2568 -1.2787
81429SOL    HW262280   3.101  11.558   1.432 -0.3234 -1.4040  0.1336
81430SOL     OW62281   6.006  11.328   5.559 -0.0114 -0.3152  0.1807
81430SOL    HW162282   6.018  11.289   5.472 -1.5787 -1.3015  0.3519
81430SOL    HW262283   5.924  11.290   5.591 -0.4524  1.4399  1.3264
81431SOL     OW62284   0.692   7.104   5.653 -0.1285  0.1874 -0.0283
81431SOL    HW162285   0.712   7.106   5.559  0.8870 -0.7034  0.1451
81431SOL    HW262286   0.670   7.194   5.675  0.8183  0.6483 -0.8839
81432SOL     OW62287   1.239   8.410   2.183 -0.7509  0.0471  0.1711
81432SOL    HW162288   1.186   8.429   2.106  0.6967  0.5775 -0.7396
81432SOL    HW262289   1.239   8.492   2.232 -1.3666 -0.1783  0.5530
81433SOL     OW62290   3.174  11.854   9.193 -0.1003  0.3345  0.0112
81433SOL    HW162291   3.189  11.766   9.159 -1.6239 -0.2025  0.6274
81433SOL    HW262292   3.244  11.907   9.155  0.2664 -0.9337 -1.1616
81434SOL     OW62293   7.796   1.943   3.745 -0.1871 -0.2412 -0.1617
81434SOL    HW162294   7.703   1.932   3.727 -0.3130 -0.9202  0.8119
81434SOL    HW262295   7.802   1.940   3.841  0.6809  1.0974 -0.1487
81435SOL     OW62296   3.148  11.852   0.935  0.3512 -0.0272  0.1908
81435SOL    HW162297   3.195  11.933   0.915  0.5882 -0.2175 -0.0320
81435SOL    HW262298   3.193  11.817   1.012 -0.8439  0.9333  1.3729
81436SOL     OW62299   2.723   4.458   0.459 -0.2428  0.7194  0.1518
81436SOL    HW162300   2.628   4.467   0.467 -0.3763 -0.9152  0.9438
81436SOL    HW262301   2.735   4.381   0.402  0.4788 -1.5864  3.1620
81437SOL     OW62302   6.543  12.445  10.727 -0.0281  0.4164  0.1695
81437SOL    HW162303   6.608  12.410  10.665  0.6524  1.5899  0.1822
81437SOL    HW262304   6.467  12.467  10.673  0.4607  1.1783 -0.2380
81438SOL     OW62305   3.556   0.671  11.513  0.8171 -0.0268 -0.0528
81438SOL    HW162306   3.555   0.700  11.422 -1.0441 -1.0812 -0.4261
81438SOL    HW262307   3.549   0.752  11.564  1.4819  0.5464 -0.8373
81439SOL     OW62308   3.603   1.553   5.770 -0.2295 -0.0935  0.2813
81439SOL    HW162309   3.634   1.563   5.680 -1.5844  0.0131 -0.1934
81439SOL    HW262310   3.638   1.630   5.817  0.6987 -0.2899 -0.0809
81440SOL     OW62311   6.257   1.959   0.290  0.2251 -0.0652  0.0927
81440SOL    HW162312   6.163   1.944   0.285  0.2075  0.4551 -2.8757
81440SOL    HW262313   6.297   1.882   0.250  0.8496  1.0352 -1.5242
81441SOL     OW62314   8.568   2.605   6.994 -0.0954  0.1574  0.0736
81441SOL    HW162315   8.539   2.518   6.966  0.3271  0.2399 -0.6631
81441SOL    HW262316   8.524   2.665   6.933 -0.7640  0.4960  0.8810
81442SOL     OW62317   1.030  12.060   3.253  0.8478 -0.2427  0.2561
81442SOL    HW162318   0.969  12.124   3.290  1.4956  0.0125  0.9093
81442SOL    HW262319   1.115  12.105   3.252  0.9088 -0.3217 -1.3381
81443SOL     OW62320   8.658   9.364  12.476 -0.0126 -0.3637 -0.0375
81443SOL    HW162321   8.668   9.270  12.487 -0.4454 -0.4617 -0.5062
81443SOL    HW262322   8.722   9.388  12.409 -0.4842 -0.4542 -0.5223
81444SOL     OW62323   6.907  13.988   1.776 -0.2073 -0.2305  0.3025
81444SOL    HW162324   6.840  14.017   1.714  0.1412  1.4230  0.6675
81444SOL    HW262325   6.962  14.064   1.790 -0.3228 -0.5097  2.7156
81445SOL     OW62326  14.124  11.709  12.442 -0.5314  0.1761  0.4929
81445SOL    HW162327  14.150  11.714  12.350 -0.4228  2.6909  0.5993
81445SOL    HW262328  14.050  11.770  12.450 -0.4108  0.1695  2.0980
81446SOL     OW62329   0.286   5.602   0.362 -0.2562 -0.7024  0.3945
81446SOL    HW162330   0.381   5.599   0.371 -0.1862  1.8043  1.4535
81446SOL    HW262331   0.253   5.576   0.448 -0.4037  0.7219  0.7964
81447SOL     OW62332   1.319  11.178   9.354  0.0504  0.0819 -0.0621
81447SOL    HW162333   1.288  11.095   9.390  1.2642  0.0206  0.9373
81447SOL    HW262334   1.361  11.155   9.271  0.5495 -0.3489  0.3033
81448SOL     OW62335   0.777   7.857  13.589 -0.3242 -0.4626 -0.0012
81448SOL    HW162336   0.793   7.785  13.650  0.3305 -0.6934 -0.4309
81448SOL    HW262337   0.811   7.826  13.505 -1.0604 -0.0848 -0.4494
81449SOL     OW62338  12.475  12.683   4.214  0.7991 -0.4761  0.6781
81449SOL    HW162339  12.486  12.769   4.255  0.9906  0.2572 -0.8732
81449SOL    HW262340  12.559  12.664   4.173 -0.0562 -0.1106 -1.3590
81450SOL     OW62341  11.232  10.929   3.015  0.4597  0.0384 -0.4169
81450SOL    HW162342  11.304  10.992   3.015  1.1939 -0.5292  3.5067
81450SOL    HW262343  11.272  10.847   3.044 -1.4702 -0.6850  0.3833
81451SOL     OW62344   7.252  12.326   0.208 -0.1375  0.7179  0.1375
81451SOL    HW162345   7.256  12.247   0.154  1.3131  0.7633  0.1505
81451SOL    HW262346   7.160  12.333   0.232 -0.7334  0.3501 -1.8067
81452SOL     OW62347   9.081   4.391   2.007  0.2092  0.8317  0.0112
81452SOL    HW162348   9.134   4.363   2.081  0.2649 -0.7523 -0.5892
81452SOL    HW262349   9.066   4.311   1.956 -0.3928  1.7502 -1.3279
81453SOL     OW62350  12.658  13.406   4.032  0.5150  0.1998  0.5671
81453SOL    HW162351  12.577  13.355   4.019 -0.1109  1.2667  0.1894
81453SOL    HW262352  12.723  13.359   3.981 -0.4374  0.6701 -1.1571
81454SOL     OW62353  12.659  12.367   0.733  0.0681  0.7859 -0.5700
81454SOL    HW162354  12.703  12.322   0.805  0.4191  0.6113 -0.8892
81454SOL    HW262355  12.590  12.417   0.775 -0.4042 -0.1436 -0.2226
81455SOL     OW62356  12.282   5.290  14.105  0.3273 -0.1014  0.0278
81455SOL    HW162357  12.197   5.255  14.080  0.3229 -1.7266  1.9974
81455SOL    HW262358  12.336   5.281  14.027 -0.9189 -0.3664 -0.8282
81456SOL     OW62359  11.586  11.349   1.448 -0.2122  0.2127  0.2707
81456SOL    HW162360  11.610  11.432   1.490 -0.2736 -0.0489  0.8341
81456SOL    HW262361  11.556  11.374   1.361  1.5694  0.6095 -0.2677
81457SOL     OW62362   6.473  12.257  11.650  0.6178  0.6711  0.5699
81457SOL    HW162363   6.480  12.169  11.615  0.0706  0.4383  1.0332
81457SOL    HW262364   6.441  12.246  11.739  0.4706  1.3344  0.6109
81458SOL     OW62365   0.899   6.425   7.023  0.6521 -0.3689 -0.5933
81458SOL    HW162366   0.928   6.401   6.935 -0.0842 -1.8871 -0.4460
81458SOL    HW262367   0.805   6.412   7.022  0.3397  1.5608 -0.1459
81459SOL     OW62368   1.059   6.983   4.782  0.0649  0.3206  0.2601
81459SOL    HW162369   1.015   6.977   4.866  0.6517  0.2818  0.5690
81459SOL    HW262370   0.988   7.001   4.719 -1.0640 -3.7956  0.0780
81460SOL     OW62371   4.230   9.475  10.960  0.2046 -0.2203  0.3355
81460SOL    HW162372   4.322   9.459  10.978  1.0145  1.5205 -1.7772
81460SOL    HW262373   4.202   9.536  11.028  0.8266 -0.1509  0.5315
81461SOL     OW62374  13.190   3.833  11.509  0.3093 -0.5650  0.1425
81461SOL    HW162375  13.201   3.861  11.418 -0.3411  1.1327  0.5514
81461SOL    HW262376  13.266   3.871  11.554 -0.5976  0.6457  0.7118
81462SOL     OW62377   3.103   5.143  12.270 -0.1778 -0.0070  0.6954
81462SOL    HW162378   3.024   5.153  12.323 -0.4654  0.4265  0.1931
81462SOL    HW262379   3.071   5.143  12.179  0.2381 -1.3378  0.5269
81463SOL     OW62380   1.399  12.914  11.071 -0.0265  0.2715 -0.2637
81463SOL    HW162381   1.368  12.926  10.981 -0.1024  0.8026 -0.1706
81463SOL    HW262382   1.346  12.975  11.122 -0.0871 -0.1372  0.1671
81464SOL     OW62383  11.388   7.770   7.012  0.0155  0.8076  0.2760
81464SOL    HW162384  11.422   7.826   6.942  0.8460 -1.6553 -1.4221
81464SOL    HW262385  11.300   7.805   7.029 -0.0526  1.7513 -1.7062
81465SOL     OW62386  11.093   8.758   9.313 -0.1781  0.3180  0.3408
81465SOL    HW162387  11.007   8.761   9.271 -0.3153 -0.7352  0.5355
81465SOL    HW262388  11.152   8.798   9.249 -0.5799 -0.2112 -0.3774
81466SOL     OW62389   1.619   7.481  13.525 -0.1123  0.1715  0.7557
81466SOL    HW162390   1.549   7.502  13.463  1.0273 -0.7805 -0.8957
81466SOL    HW262391   1.577   7.488  13.611 -2.3142 -0.6524 -0.1874
81467SOL     OW62392   7.047   9.385  12.787  0.5340 -0.0429 -0.6097
81467SOL    HW162393   7.090   9.468  12.766  1.4604 -0.7165 -1.4796
81467SOL    HW262394   6.972   9.382  12.726  0.1908  0.3765 -0.2198
81468SOL     OW62395   7.896   8.412   8.739  0.1192 -0.8018  0.0754
81468SOL    HW162396   7.953   8.346   8.778 -0.0953 -1.8543 -1.2690
81468SOL    HW262397   7.807   8.381   8.757  0.0011 -0.2809  0.3965
81469SOL     OW62398  11.891  13.620  12.175 -0.7819 -0.2315 -0.0848
81469SOL    HW162399  11.830  13.588  12.242 -1.0531 -0.1011 -0.2688
81469SOL    HW262400  11.960  13.663  12.224  0.7210 -2.8785  0.3378
81470SOL     OW62401   9.604   5.619   1.007 -0.7703  0.0556  0.4934
81470SOL    HW162402   9.576   5.651   1.093  0.8141  1.8184  0.4352
81470SOL    HW262403   9.681   5.566   1.026 -1.4036 -0.9530  0.2841
81471SOL     OW62404  12.432   6.161   0.321  0.1409  0.3546  0.1977
81471SOL    HW162405  12.348   6.183   0.282  0.7433  2.7625  0.0933
81471SOL    HW262406  12.420   6.177   0.415  0.2164 -0.2364  0.3118
81472SOL     OW62407   0.243   8.365  11.088  0.0530 -0.2288 -0.3351
81472SOL    HW162408   0.174   8.304  11.113  0.8638 -0.7130  0.8552
81472SOL    HW262409   0.245   8.429  11.160  0.4032  0.1460 -0.6756
81473SOL     OW62410  13.262   8.103  10.595  0.2473  0.3725 -0.1451
81473SOL    HW162411  13.247   8.090  10.689  1.0781 -1.9719 -0.2655
81473SOL    HW262412  13.354   8.129  10.589  0.7445 -1.3449 -0.3876
81474SOL     OW62413   7.821  10.255  10.371 -0.0290 -0.2538  0.5539
81474SOL    HW162414   7.815  10.347  10.346 -0.5465 -0.5201 -0.3222
81474SOL    HW262415   7.754  10.211  10.320  1.3945 -1.4094 -0.4093
81475SOL     OW62416   0.069   8.342   6.707 -0.3224  0.3166  0.4184
81475SOL    HW162417   0.042   8.385   6.788 -0.7955 -1.6927  1.3881
81475SOL    HW262418   0.097   8.414   6.650 -1.3900  1.9164  1.8063
81476SOL     OW62419   2.162   0.921   1.385 -0.4644 -0.2269 -0.0491
81476SOL    HW162420   2.130   0.993   1.439 -1.2127 -1.9860  1.9951
81476SOL    HW262421   2.255   0.912   1.409 -0.7003 -0.7563  0.7047
81477SOL     OW62422   7.925   8.179   3.039  0.0770 -0.1418 -0.1848
81477SOL    HW162423   7.929   8.094   2.994  0.1579  0.8427 -2.1440
81477SOL    HW262424   7.839   8.213   3.017 -0.0411  0.2241  0.7805
81478SOL     OW62425  10.334   3.937  12.535 -0.2640  0.1152 -0.1097
81478SOL    HW162426  10.338   4.022  12.490 -1.2332  0.7071  0.8758
81478SOL    HW262427  10.325   3.959  12.627  1.8699 -1.0782  0.4671
81479SOL     OW62428   8.963  11.595   8.445  0.6234 -0.2667 -0.0138
81479SOL    HW162429   8.940  11.524   8.384  1.7115 -0.4010 -0.2881
81479SOL    HW262430   8.923  11.673   8.406  1.1387 -0.3876 -0.8159
81480SOL     OW62431   7.280  13.716   4.484 -0.1043 -1.0627  0.4118
81480SOL    HW162432   7.311  13.630   4.456 -0.1487 -1.2012  0.7851
81480SOL    HW262433   7.250  13.758   4.403  0.9217 -0.9712  0.0617
81481SOL     OW62434   0.595  11.722   7.597  0.1502 -0.4847  0.0733
81481SOL    HW162435   0.664  11.686   7.542 -1.2683 -2.6643 -0.4227
81481SOL    HW262436   0.641  11.777   7.660  1.9282  1.4217 -2.6828
81482SOL     OW62437   4.661   9.568   1.170  0.4592  0.0843 -0.0024
81482SOL    HW162438   4.622   9.480   1.163  1.0784 -0.1338 -0.8716
81482SOL    HW262439   4.703   9.582   1.085  1.3946  0.7271  0.5496
81483SOL     OW62440  10.981   3.485  10.073  1.0527  0.1413  0.3225
81483SOL    HW162441  10.996   3.436  10.153  1.3694 -0.3679 -0.0377
81483SOL    HW262442  11.048   3.453  10.012  0.9466  0.6621 -0.0805
81484SOL     OW62443   5.811   1.647  11.313 -0.0485 -0.1266 -0.2282
81484SOL    HW162444   5.823   1.552  11.314  1.4306  0.0193  1.0818
81484SOL    HW262445   5.757   1.665  11.391 -0.8529  0.0745 -0.8182
81485SOL     OW62446  13.390   6.114   0.514  0.1883  0.1270  0.1864
81485SOL    HW162447  13.320   6.049   0.518 -0.0704  0.3993  0.0818
81485SOL    HW262448  13.447   6.084   0.443  0.8462 -0.7611  1.0629
81486SOL     OW62449   1.586   9.094  13.394  0.3324  0.1944 -0.1602
81486SOL    HW162450   1.592   9.075  13.488 -0.3653 -0.2844 -0.2039
81486SOL    HW262451   1.558   9.185  13.389 -0.7137 -0.0938  0.1214
81487SOL     OW62452  14.032  12.655  13.982 -0.0790 -0.2334 -0.3022
81487SOL    HW162453  14.081  12.618  14.056 -1.2510 -0.6630  0.2911
81487SOL    HW262454  14.015  12.746  14.008  0.6460 -0.0035 -0.6342
81488SOL     OW62455  11.984   0.760  13.175 -0.9708  0.2844  0.2105
81488SOL    HW162456  12.024   0.719  13.252 -0.6263  0.0041 -0.1176
81488SOL    HW262457  11.917   0.697  13.147  1.7634 -1.7861 -2.3324
81489SOL     OW62458   6.195   8.271   0.264  0.5152  0.4837  1.0165
81489SOL    HW162459   6.224   8.360   0.284 -0.8523  2.2373 -3.5620
81489SOL    HW262460   6.102   8.280   0.245  0.8378 -1.3526 -1.9904
81490SOL     OW62461   2.783  10.811   0.070 -0.2930  0.6133  0.2336
81490SOL    HW162462   2.789  10.749   0.143 -1.3507  0.8163  0.5013
81490SOL    HW262463   2.847  10.879   0.091  1.1308 -0.5236 -0.2272
81491SOL     OW62464  10.518   2.242   3.828  0.2587  0.1012 -0.4509
81491SOL    HW162465  10.455   2.195   3.774  0.6850 -0.9977 -0.0150
81491SOL    HW262466  10.480   2.329   3.839  0.4742  0.5961 -3.0613
81492SOL     OW62467  12.136  12.072   1.423 -0.3267  0.2790  0.9377
81492SOL    HW162468  12.201  12.002   1.419 -0.0584  0.5444  0.5820
81492SOL    HW262469  12.059  12.031   1.464 -1.3288 -1.1368 -2.0990
81493SOL     OW62470   5.684   4.645  12.278  0.2588 -0.3238 -0.9998
81493SOL    HW162471   5.733   4.688  12.207 -1.2173  2.6112 -0.3950
81493SOL    HW262472   5.670   4.714  12.343 -2.3031 -1.7307  0.0968
81494SOL     OW62473   2.869   4.008   5.968  0.8434  0.1138 -0.0235
81494SOL    HW162474   2.882   3.933   5.910  0.2060  0.3791 -0.5270
81494SOL    HW262475   2.776   4.029   5.958  0.8555  0.5127  0.6737
81495SOL     OW62476  14.128   7.471   3.243 -0.4574 -0.6309  0.2282
81495SOL    HW162477  14.088   7.556   3.260  1.1121 -0.2071  2.2538
81495SOL    HW262478  14.206   7.490   3.191 -1.7081 -1.2408 -2.0124
81496SOL     OW62479  10.819  10.599  13.594  0.6028 -0.4943 -0.0854
81496SOL    HW162480  10.773  10.672  13.553  1.2051 -0.9513 -1.6408
81496SOL    HW262481  10.757  10.526  13.590  0.8104 -0.6440 -0.5401
81497SOL     OW62482   5.942   0.933   6.415  0.0248 -0.5565  0.5229
81497SOL    HW162483   5.908   0.858   6.464  1.1044 -0.8880  0.7730
81497SOL    HW262484   5.969   0.995   6.483 -0.6229 -0.0438  0.3174
81498SOL     OW62485   6.032   4.653   4.896  0.0229 -0.0898  0.3607
81498SOL    HW162486   6.106   4.708   4.869 -0.3580  0.1496 -0.2199
81498SOL    HW262487   5.961   4.676   4.836  0.2505 -2.2286 -0.8241
81499SOL     OW62488  10.903   1.553   4.455 -0.2787 -0.9317 -0.0416
81499SOL    HW162489  10.914   1.553   4.360 -1.1991  0.9431 -0.2029
81499SOL    HW262490  10.991   1.539   4.490  0.3270 -0.1625 -1.1864
81500SOL     OW62491   8.054  11.561   5.595  0.1133 -0.4997 -0.6142
81500SOL    HW162492   8.135  11.572   5.546  0.2056 -0.0473 -0.3740
81500SOL    HW262493   8.059  11.627   5.665 -0.5165 -0.3772 -0.6744
81501SOL     OW62494   1.067   8.229   1.391  0.0225 -0.4286 -0.8945
81501SOL    HW162495   0.996   8.180   1.349 -1.5362  2.3325 -1.7608
81501SOL    HW262496   1.101   8.286   1.322  2.2936 -0.7996 -0.1560
81502SOL     OW62497  13.751   8.074   0.121  0.1210 -0.0885 -0.4425
81502SOL    HW162498  13.797   7.991   0.112 -0.8834 -0.6970 -0.0987
81502SOL    HW262499  13.730   8.100   0.032 -0.1336 -0.5371 -0.5163
81503SOL     OW62500  10.979   1.923   2.797 -0.0255 -0.0696  0.3435
81503SOL    HW162501  11.064   1.898   2.760 -0.8245 -1.7681 -0.4522
81503SOL    HW262502  10.932   1.841   2.806 -1.7521  0.8827  0.3634
81504SOL     OW62503   3.570  11.228  14.105 -0.2131 -0.4887 -0.2076
81504SOL    HW162504   3.493  11.197  14.058 -1.3900  1.3005  0.4357
81504SOL    HW262505   3.635  11.246  14.037 -0.4154 -1.8056 -0.7748
81505SOL     OW62506   6.355  10.313   0.159 -0.3685  0.5175  0.7158
81505SOL    HW162507   6.353  10.406   0.181 -1.3968  0.9929 -1.1319
81505SOL    HW262508   6.270  10.297   0.118  0.0744 -1.0812  0.3611
81506SOL     OW62509   8.374  13.818  10.738 -0.7497 -0.7948 -0.2897
81506SOL    HW162510   8.325  13.762  10.799 -0.3917 -0.8557 -0.0498
81506SOL    HW262511   8.316  13.892  10.721 -0.5826 -0.4251  0.6842
81507SOL     OW62512   6.649   7.735   4.401 -0.4435 -0.0067  0.0252
81507SOL    HW162513   6.675   7.794   4.472  1.3515  0.4558 -0.9580
81507SOL    HW262514   6.554   7.747   4.394 -0.4230  1.1511  1.2648
81508SOL     OW62515   1.352   8.252   0.883 -0.3738  0.0233  0.6307
81508SOL    HW162516   1.405   8.289   0.953 -0.1251 -0.3174  0.6261
81508SOL    HW262517   1.411   8.243   0.809 -1.1009  2.2157 -0.2785
81509SOL     OW62518   2.928   0.440   7.558  0.4956  0.0724  0.1417
81509SOL    HW162519   2.966   0.451   7.471 -1.8628  0.3533 -0.9226
81509SOL    HW262520   2.882   0.523   7.575  1.3876  0.2380  1.9186
81510SOL     OW62521   7.238   2.768  10.712 -0.1542 -0.7909 -0.1992
81510SOL    HW162522   7.157   2.801  10.673 -1.0738 -2.3079  0.3739
81510SOL    HW262523   7.212   2.692  10.764  1.3108 -0.0391  1.7870
81511SOL     OW62524  10.708   3.209  11.599 -0.1777 -0.1239  0.1493
81511SOL    HW162525  10.637   3.234  11.659 -0.4145 -0.1771 -0.1053
81511SOL    HW262526  10.722   3.116  11.616 -0.8058 -0.3369 -0.4444
81512SOL     OW62527  12.981   2.437   8.241 -0.1338 -0.1156  0.1804
81512SOL    HW162528  12.974   2.386   8.161  0.6845 -0.1119  0.0954
81512SOL    HW262529  12.977   2.372   8.311  0.5751 -0.2727  0.0831
81513SOL     OW62530   3.912   3.398  11.342  0.4165 -0.3420  0.8494
81513SOL    HW162531   3.928   3.375  11.434  1.9095  0.4729  0.8300
81513SOL    HW262532   3.869   3.483  11.346  0.9222 -0.0814  0.7898
81514SOL     OW62533   5.394  11.996   7.920  0.1193 -0.9706 -0.3163
81514SOL    HW162534   5.482  11.960   7.913  1.0969  1.3207 -0.8235
81514SOL    HW262535   5.339  11.921   7.944  1.9941 -2.6936 -1.0860
81515SOL     OW62536   7.102   9.374   8.311  0.0326 -0.1895  0.0935
81515SOL    HW162537   7.108   9.337   8.400  0.4619  1.2596  0.6930
81515SOL    HW262538   7.068   9.462   8.324  4.4459  1.8800 -0.5968
81516SOL     OW62539  13.487   6.037  12.837  0.4270  0.4802 -0.0376
81516SOL    HW162540  13.520   6.079  12.916 -0.1554  0.9501 -0.0323
81516SOL    HW262541  13.562   5.991  12.800  1.4239  2.5776 -0.7390
81517SOL     OW62542   4.941   1.228  13.495  0.2137 -0.3031 -0.4543
81517SOL    HW162543   4.918   1.250  13.585 -0.4599  0.3426 -0.7638
81517SOL    HW262544   4.858   1.202  13.455  0.7156 -1.8165 -0.5695
81518SOL     OW62545  13.202   4.365  13.284 -0.2390  0.1944 -0.8537
81518SOL    HW162546  13.249   4.305  13.227 -0.3168 -0.9007  0.1879
81518SOL    HW262547  13.197   4.447  13.235  2.0692  0.1187 -1.2978
81519SOL     OW62548  13.061   4.435   7.165 -0.2066 -0.1277 -0.3735
81519SOL    HW162549  13.048   4.527   7.186 -2.8661 -0.2717 -0.9710
81519SOL    HW262550  13.062   4.391   7.250  0.6832  0.4046 -0.1017
81520SOL     OW62551   3.456   3.565   2.960  0.1099 -0.2284  0.0685
81520SOL    HW162552   3.480   3.657   2.960 -0.2455 -0.0741  2.2033
81520SOL    HW262553   3.536   3.519   2.933  1.1381  0.5917  1.5610
81521SOL     OW62554  13.536   0.400   2.571 -0.2402  0.4189 -0.9590
81521SOL    HW162555  13.441   0.411   2.577 -0.2829 -0.2048 -0.3871
81521SOL    HW262556  13.563   0.376   2.660  0.5532  1.3241 -0.9387
81522SOL     OW62557   4.071   6.719   2.946  0.3567 -0.0928 -0.0977
81522SOL    HW162558   4.129   6.656   2.903 -0.5519 -0.6190 -0.5753
81522SOL    HW262559   3.997   6.666   2.975  0.6580  0.3557  1.5833
81523SOL     OW62560   4.236  13.310   6.819 -0.1717 -0.0220 -0.2994
81523SOL    HW162561   4.270  13.239   6.764 -0.2101  0.0866 -0.4652
81523SOL    HW262562   4.154  13.335   6.777  0.0349  0.3866 -0.4681
81524SOL     OW62563   8.955   6.656   7.984  0.1300  0.0396 -0.6612
81524SOL    HW162564   8.906   6.622   8.059  0.4754 -2.2072 -1.3734
81524SOL    HW262565   8.890   6.700   7.930 -0.2313  1.1369  0.6339
81525SOL     OW62566  11.123   3.353   7.931  0.0426 -0.0500 -0.3895
81525SOL    HW162567  11.189   3.321   7.992 -1.0926  1.2631  1.6477
81525SOL    HW262568  11.050   3.381   7.987 -1.5234  0.2276 -2.4313
81526SOL     OW62569   2.235   6.397   4.878 -0.2203  0.8537 -0.4828
81526SOL    HW162570   2.239   6.305   4.902 -0.8869  1.0398  0.3912
81526SOL    HW262571   2.310   6.410   4.820 -0.3075 -0.3052 -0.8804
81527SOL     OW62572   1.257   0.600   9.739 -0.5783  0.1973  0.0341
81527SOL    HW162573   1.296   0.626   9.822 -1.0522 -0.7502  0.5638
81527SOL    HW262574   1.205   0.676   9.712  1.8824  1.6789 -0.9115
81528SOL     OW62575  12.926  12.958  11.566  0.5150 -0.5214  0.3779
81528SOL    HW162576  12.991  13.017  11.528  1.5292 -1.7428  0.1505
81528SOL    HW262577  12.950  12.953  11.659 -1.4522  1.7997  1.1000
81529SOL     OW62578   1.901  12.346   1.506  0.0252 -0.3513  0.5031
81529SOL    HW162579   1.860  12.326   1.422  2.1757  1.7859 -1.2044
81529SOL    HW262580   1.936  12.262   1.536  1.6458 -0.7695 -2.2189
81530SOL     OW62581   8.035   8.580  10.589  0.3143 -0.6766  0.1160
81530SOL    HW162582   7.984   8.540  10.660  2.2957 -0.1142  1.9584
81530SOL    HW262583   8.034   8.674  10.609  1.3844 -0.5727 -0.2624
81531SOL     OW62584   8.837   9.745   6.955 -0.1335  0.6843 -0.3210
81531SOL    HW162585   8.861   9.735   6.863 -1.3614 -0.6650 -0.5311
81531SOL    HW262586   8.779   9.822   6.956  0.7645  1.3858 -0.4625
81532SOL     OW62587  13.207   2.194  13.948  0.7270  0.1139  0.2980
81532SOL    HW162588  13.142   2.220  14.014 -0.1316 -2.1736  0.4407
81532SOL    HW262589  13.156   2.188  13.867  1.2368  0.3950 -0.0440
81533SOL     OW62590   9.942  11.822   3.711  0.3091 -0.0167 -0.1851
81533SOL    HW162591  10.035  11.808   3.690  0.1594 -2.2329  0.3802
81533SOL    HW262592   9.900  11.739   3.689 -2.0709  1.6986 -2.8469
81534SOL     OW62593  13.689   5.062  13.628 -0.2484 -0.4896 -0.3788
81534SOL    HW162594  13.700   5.154  13.653 -0.4467 -0.7417  0.6739
81534SOL    HW262595  13.770   5.020  13.654 -0.2900 -0.6828 -0.5540
81535SOL     OW62596  11.526  12.524  10.787  0.4340 -0.0431  0.5644
81535SOL    HW162597  11.596  12.577  10.749  1.7682 -0.1301  2.7061
81535SOL    HW262598  11.569  12.444  10.816  0.0691  0.8166  3.9954
81536SOL     OW62599  12.528   6.985   0.399 -0.6690  0.1939 -0.0241
81536SOL    HW162600  12.485   6.928   0.463 -1.0419 -1.4386 -1.6435
81536SOL    HW262601  12.622   6.970   0.413 -0.7598 -0.6327 -0.2590
81537SOL     OW62602   2.480  10.469   4.608  0.9291 -0.3174 -0.1897
81537SOL    HW162603   2.398  10.427   4.583 -0.0380  1.5219 -0.2761
81537SOL    HW262604   2.543  10.397   4.616 -0.1290 -1.5454 -2.2666
81538SOL     OW62605   0.591  11.407  13.404  0.0532 -0.6736  0.6322
81538SOL    HW162606   0.518  11.348  13.382 -1.9096  2.0094 -0.7228
81538SOL    HW262607   0.644  11.410  13.324 -1.1295  0.9833 -0.1616
81539SOL     OW62608   8.283   3.826   2.042  0.2154  0.0015 -1.1611
81539SOL    HW162609   8.371   3.849   2.074  0.4517 -2.1324 -0.0879
81539SOL    HW262610   8.297   3.791   1.955  0.3694  0.1164 -1.1828
81540SOL     OW62611   8.777   7.698   2.220  0.2521 -0.0927 -0.3555
81540SOL    HW162612   8.811   7.616   2.186  1.5947  0.1439  0.3493
81540SOL    HW262613   8.757   7.680   2.312  1.7168  0.6633  0.1389
81541SOL     OW62614   4.842  13.688  10.372 -0.2333 -0.1726  0.6905
81541SOL    HW162615   4.771  13.667  10.433 -0.4434  1.7153  1.1488
81541SOL    HW262616   4.821  13.775  10.339  1.0776 -0.2130 -0.3575
81542SOL     OW62617  11.414  10.772  12.720 -0.0747  0.0397 -0.9985
81542SOL    HW162618  11.438  10.820  12.799  0.4649  0.7153 -1.5487
81542SOL    HW262619  11.353  10.704  12.749 -1.3236  1.4166 -0.2610
81543SOL     OW62620  13.069  11.843   4.109 -0.5326  0.1796 -0.2378
81543SOL    HW162621  13.123  11.878   4.181 -0.9261  1.6316 -0.6053
81543SOL    HW262622  12.989  11.813   4.152 -0.9918  1.5258 -0.0781
81544SOL     OW62623   8.452   6.298   1.093  0.6211 -0.9160  0.2435
81544SOL    HW162624   8.448   6.214   1.048 -2.0008 -0.7981  0.1133
81544SOL    HW262625   8.493   6.279   1.178 -0.6973 -2.5092  0.5515
81545SOL     OW62626   6.180  13.068   6.995  0.2168  0.6516  0.4889
81545SOL    HW162627   6.195  13.112   6.911  0.1300  1.4339  0.8789
81545SOL    HW262628   6.243  13.107   7.055  2.0971 -1.7261  0.2113
81546SOL     OW62629  11.744   6.076  10.106  0.2958 -0.6117  0.2188
81546SOL    HW162630  11.791   6.010  10.054 -0.0298 -0.1339 -0.6974
81546SOL    HW262631  11.688   6.024  10.164  0.1957 -1.1599 -0.3485
81547SOL     OW62632   7.998   2.433   4.884  0.6173 -0.2234  0.0137
81547SOL    HW162633   7.910   2.433   4.846  1.1545  1.2118 -1.3396
81547SOL    HW262634   8.005   2.348   4.926 -1.4375 -0.3573  0.2222
81548SOL     OW62635   0.485  13.032  13.066 -0.0319  0.7310  1.0010
81548SOL    HW162636   0.459  13.055  13.156  0.7396  1.6784  1.0054
81548SOL    HW262637   0.439  13.096  13.011  0.6592  1.1084  0.8510
81549SOL     OW62638  12.544   4.949  10.017  0.0954 -0.2372 -0.1130
81549SOL    HW162639  12.573   4.952   9.926  0.3038  0.5970 -0.0254
81549SOL    HW262640  12.454   4.915  10.012 -0.0383  0.1866 -0.6622
81550SOL     OW62641   3.902   1.895   8.396  0.2018  0.0848  0.3834
81550SOL    HW162642   3.928   1.981   8.430  1.4518 -0.0723 -0.1060
81550SOL    HW262643   3.947   1.833   8.452  1.3806 -0.1920 -0.8075
81551SOL     OW62644   3.523  13.008  10.804  0.3009  0.1974 -0.2498
81551SOL    HW162645   3.602  12.985  10.853 -0.2329  2.5298  1.9044
81551SOL    HW262646   3.472  12.927  10.803  1.0947 -0.4043  1.6513
81552SOL     OW62647  12.109  11.472  12.427  0.2267 -0.5410 -0.4357
81552SOL    HW162648  12.059  11.550  12.454 -0.7429 -1.7343  1.4380
81552SOL    HW262649  12.051  11.427  12.366 -0.1158 -0.8542  0.1139
81553SOL     OW62650   2.402   5.052   2.617 -0.0123  0.0814  0.1850
81553SOL    HW162651   2.409   4.962   2.584  0.7301 -0.3038  1.3130
81553SOL    HW262652   2.346   5.097   2.554 -1.5247 -1.5364  0.2884
81554SOL     OW62653  10.566   5.360   7.361 -0.0305 -0.4125  0.8284
81554SOL    HW162654  10.614   5.382   7.282 -1.2077  0.8925  0.4269
81554SOL    HW262655  10.625   5.384   7.433 -0.1130  1.3298  0.3541
81555SOL     OW62656   6.056  13.589   4.001  0.7897 -0.3853 -0.3308
81555SOL    HW162657   6.039  13.550   3.916 -0.8286 -0.1732 -0.1332
81555SOL    HW262658   5.975  13.577   4.050  1.2891  0.5372  0.7757
81556SOL     OW62659   8.463   1.895   5.210  0.0010 -0.6848 -0.2684
81556SOL    HW162660   8.543   1.855   5.245  0.2057  1.2428  1.6658
81556SOL    HW262661   8.396   1.827   5.222  0.8682 -1.4792  0.2878
81557SOL     OW62662   5.898   8.824   8.195 -0.3063 -0.2353 -0.0139
81557SOL    HW162663   5.874   8.769   8.120  0.5428 -0.3411 -0.2256
81557SOL    HW262664   5.815   8.853   8.232 -0.7658  1.2585 -2.0587
81558SOL     OW62665   4.290  12.758   6.008  0.2643  0.0877 -0.4645
81558SOL    HW162666   4.362  12.786   6.064 -0.1195 -3.4326  2.1193
81558SOL    HW262667   4.322  12.680   5.963 -1.3712 -0.6011 -0.5337
81559SOL     OW62668   7.158   9.858  12.596 -0.4877  0.2966 -0.0566
81559SOL    HW162669   7.228   9.916  12.627 -1.4892  1.7471 -0.4160
81559SOL    HW262670   7.137   9.804  12.672 -0.6510  1.5310  0.8037
81560SOL     OW62671   1.770   0.615   2.807  0.2747 -0.1210 -0.4307
81560SOL    HW162672   1.797   0.677   2.874 -0.6538 -0.0412 -0.1100
81560SOL    HW262673   1.770   0.530   2.851 -0.5332 -0.0409 -0.2567
81561SOL     OW62674   6.559  14.129  12.834 -0.3974 -0.4403  0.2708
81561SOL    HW162675   6.481  14.082  12.864 -1.3298  1.7084  1.4283
81561SOL    HW262676   6.536  14.161  12.747 -1.6382  1.7814  1.3338
81562SOL     OW62677   9.457   7.004  12.639 -0.0711 -0.2073 -0.1778
81562SOL    HW162678   9.510   7.013  12.717 -0.5192 -2.0784  0.3742
81562SOL    HW262679   9.425   7.093  12.622  1.7242  0.6185  0.5035
81563SOL     OW62680  14.014   6.945  10.354 -0.0542 -0.2792 -0.1547
81563SOL    HW162681  13.994   6.852  10.343 -1.2194  0.0488 -0.9453
81563SOL    HW262682  14.012   6.959  10.448  0.1470 -1.0509 -0.0293
81564SOL     OW62683   3.894   4.095   8.534  0.5594 -0.1830 -0.1292
81564SOL    HW162684   3.974   4.148   8.534  0.4394  0.0248 -1.0376
81564SOL    HW262685   3.827   4.153   8.497  0.1755 -0.6155 -0.1209
81565SOL     OW62686  13.145   4.535   5.518  0.1765  0.4512  0.1453
81565SOL    HW162687  13.122   4.614   5.568 -0.9129  0.1239  0.1772
81565SOL    HW262688  13.233   4.513   5.547 -0.2098  0.6153  1.4839
81566SOL     OW62689   9.924  13.660   3.068  0.2123  0.3000  0.0994
81566SOL    HW162690   9.851  13.696   3.120  0.2699  0.2046  0.2471
81566SOL    HW262691   9.897  13.570   3.049 -0.3001  0.6592 -0.9602
81567SOL     OW62692   4.111  13.015   4.700  0.0702  0.4655  0.2035
81567SOL    HW162693   4.126  12.997   4.608 -1.0532  0.9050 -0.0770
81567SOL    HW262694   4.164  12.950   4.746  0.8740  0.4389 -0.7369
81568SOL     OW62695   3.632   6.632   6.131  0.3316  0.0907 -0.2766
81568SOL    HW162696   3.674   6.581   6.061 -1.5069  0.0119 -1.4107
81568SOL    HW262697   3.683   6.613   6.209  0.5166 -2.4868 -0.9185
81569SOL     OW62698  10.848  13.049   1.978 -0.1896 -0.5288 -0.3480
81569SOL    HW162699  10.893  13.110   2.036  1.3850 -2.8491  1.0932
81569SOL    HW262700  10.869  13.078   1.890 -0.9660  1.9495  0.2276
81570SOL     OW62701   0.618   0.288   2.672  0.3573  0.2919  0.4224
81570SOL    HW162702   0.632   0.333   2.755 -0.5042 -0.5171  1.0170
81570SOL    HW262703   0.705   0.287   2.631  0.6459  1.3323  0.9707
81571SOL     OW62704   4.941   9.429   2.237 -0.0415  0.6204 -0.3222
81571SOL    HW162705   5.026   9.439   2.282  0.5906 -0.3111 -1.2616
81571SOL    HW262706   4.902   9.351   2.278  0.9467 -0.7906 -1.9404
81572SOL     OW62707  13.720  13.184   3.786  0.2100  0.4679  0.0942
81572SOL    HW162708  13.708  13.155   3.696  0.0215  0.9348 -0.0357
81572SOL    HW262709  13.701  13.107   3.839 -1.4005  0.6289 -0.1884
81573SOL     OW62710   4.585   3.261  12.764 -0.1512 -0.2519  0.9101
81573SOL    HW162711   4.513   3.250  12.827 -1.0101 -1.8309 -0.2775
81573SOL    HW262712   4.640   3.183  12.777  0.2839 -0.0181  0.4894
81574SOL     OW62713   0.477  13.863   2.435 -0.0640 -0.3439 -0.1769
81574SOL    HW162714   0.390  13.844   2.402 -0.1237 -0.8608  0.2566
81574SOL    HW262715   0.486  13.808   2.513  0.3963  0.1916  0.1674
81575SOL     OW62716  13.836   8.880  13.850 -0.2108 -0.0607 -0.5679
81575SOL    HW162717  13.931   8.865  13.843 -0.4157 -0.9604 -1.7908
81575SOL    HW262718  13.798   8.819  13.788 -1.6782 -0.3676  0.5940
81576SOL     OW62719   8.460   8.293  13.617  0.6640  0.2765  0.7402
81576SOL    HW162720   8.477   8.248  13.534 -0.1679  2.7391 -0.9059
81576SOL    HW262721   8.365   8.283  13.631  0.5677  0.9826  0.6502
81577SOL     OW62722   3.294   2.219  10.925 -0.2385  0.6744 -0.0587
81577SOL    HW162723   3.251   2.135  10.940  0.3483  0.0789 -1.4364
81577SOL    HW262724   3.224   2.277  10.896 -1.0152  1.2941  2.7893
81578SOL     OW62725   3.991   9.893   1.027  0.3881 -0.1205  0.1498
81578SOL    HW162726   3.944   9.955   1.082  2.3114  2.0955 -0.5121
81578SOL    HW262727   4.073   9.878   1.072  0.2734 -1.6300 -0.0968
81579SOL     OW62728  12.353  12.070   4.255 -0.0137 -0.2177 -0.2505
81579SOL    HW162729  12.262  12.087   4.279 -0.1658 -1.0752 -0.1882
81579SOL    HW262730  12.353  12.066   4.159 -0.2551 -1.3048 -0.2153
81580SOL     OW62731  12.666   2.090   7.614 -0.1812 -0.0959 -0.0028
81580SOL    HW162732  12.695   2.014   7.563  0.3978  0.7106 -0.9013
81580SOL    HW262733  12.720   2.088   7.693  1.0715  0.3500 -0.8235
81581SOL     OW62734   9.647   9.092   8.577  0.1962 -0.4818  0.1555
81581SOL    HW162735   9.570   9.039   8.598 -0.2561  0.4725  1.0369
81581SOL    HW262736   9.674   9.062   8.490 -1.9566  0.0151 -0.7681
81582SOL     OW62737   1.036  13.837   4.161 -0.0796  0.3813  0.0945
81582SOL    HW162738   1.043  13.884   4.078  0.8398  1.1817  0.5919
81582SOL    HW262739   1.086  13.756   4.147  2.5780  1.8041  0.6952
81583SOL     OW62740  11.077  10.243   5.267 -0.0907  0.4735  0.0575
81583SOL    HW162741  11.138  10.297   5.317  1.3503 -2.1580  1.3717
81583SOL    HW262742  10.992  10.285   5.279  0.4868  0.9685  3.3019
81584SOL     OW62743  13.918   6.572   0.644 -0.3606 -0.0689  0.3080
81584SOL    HW162744  13.873   6.544   0.724 -0.9587  0.1076  0.0407
81584SOL    HW262745  13.987   6.507   0.631 -0.7267 -0.5147  0.5627
81585SOL     OW62746   0.297   8.103   8.972  0.1821  0.4736  0.3726
81585SOL    HW162747   0.246   8.036   9.017  1.6855  0.8727  2.8684
81585SOL    HW262748   0.240   8.180   8.971 -1.2458 -0.5206 -1.8020
81586SOL     OW62749  11.419   7.338   9.184 -0.2432  0.1322  0.0980
81586SOL    HW162750  11.341   7.319   9.236 -0.1675 -2.4871 -0.5853
81586SOL    HW262751  11.390   7.403   9.120 -1.6534 -0.1644  0.4101
81587SOL     OW62752  11.736   3.317   0.915  0.0234 -0.4525 -0.2367
81587SOL    HW162753  11.746   3.354   0.827  0.9789  0.8106  0.3750
81587SOL    HW262754  11.823   3.284   0.938  0.5611  1.8250  1.3212
81588SOL     OW62755  13.997  13.453   1.768  0.2580  0.0279  0.1167
81588SOL    HW162756  13.935  13.507   1.719 -1.1451 -0.5406  1.1617
81588SOL    HW262757  14.050  13.515   1.818 -1.4401  0.5095  1.4342
81589SOL     OW62758  13.613   7.022   0.803 -0.8485 -0.0187  0.2456
81589SOL    HW162759  13.652   6.962   0.740  0.8297 -0.2760  1.4534
81589SOL    HW262760  13.662   7.103   0.793 -0.2913 -0.1796  1.4272
81590SOL     OW62761   4.608   5.529   6.785 -0.1079  0.6418 -0.2379
81590SOL    HW162762   4.690   5.580   6.783 -0.0504  0.5695  0.2560
81590SOL    HW262763   4.569   5.551   6.869 -0.5008  0.5153 -0.3879
81591SOL     OW62764  10.535   5.817  10.526  0.5353 -0.1127  0.0935
81591SOL    HW162765  10.537   5.723  10.507  0.1240 -0.1773  0.3675
81591SOL    HW262766  10.530   5.822  10.621  0.3020  0.1840  0.0656
81592SOL     OW62767   2.941   3.521   7.343  0.3142  0.1921  0.0599
81592SOL    HW162768   3.006   3.453   7.362  0.8507  0.4903 -0.6433
81592SOL    HW262769   2.942   3.528   7.247 -2.5347 -1.5351 -0.2077
81593SOL     OW62770   4.198   1.584   7.407 -0.9843 -0.3350  0.0376
81593SOL    HW162771   4.251   1.549   7.336 -0.0233 -0.6514  0.8816
81593SOL    HW262772   4.160   1.664   7.372 -0.3721 -0.3892 -0.7719
81594SOL     OW62773   1.563  10.417   8.037  0.2937 -0.0505  0.0472
81594SOL    HW162774   1.631  10.417   7.970  0.8572 -0.9855  0.5823
81594SOL    HW262775   1.522  10.503   8.031  1.9294  0.7767  0.1002
81595SOL     OW62776  12.215  14.074  13.084 -0.2599  0.4567 -0.0575
81595SOL    HW162777  12.164  14.129  13.024 -1.5419  0.7317  1.2325
81595SOL    HW262778  12.202  14.114  13.170 -1.0600 -1.7271  0.8914
81596SOL     OW62779  10.046  13.469  13.516 -0.0131  0.1036 -1.1038
81596SOL    HW162780  10.052  13.374  13.511 -0.6381 -0.1148  1.1783
81596SOL    HW262781   9.954  13.489  13.498 -0.5219 -0.0253  1.0998
81597SOL     OW62782   5.764   9.532   8.710  0.5176  0.2133 -0.1238
81597SOL    HW162783   5.685   9.549   8.762  2.0892  0.6593  2.3145
81597SOL    HW262784   5.765   9.601   8.644 -0.1226  1.4212  1.0827
81598SOL     OW62785   7.669   0.339  13.286  0.3087 -0.0285 -0.1094
81598SOL    HW162786   7.736   0.342  13.219 -0.4068 -0.3000 -0.8481
81598SOL    HW262787   7.603   0.279  13.252 -0.0384 -0.2243  0.8638
81599SOL     OW62788   7.726   4.073   4.248  0.6083 -0.4177 -0.3125
81599SOL    HW162789   7.636   4.105   4.248  0.7019 -0.1015  0.7970
81599SOL    HW262790   7.722   3.991   4.298  0.8955 -0.5452 -0.4944
81600SOL     OW62791   9.241   0.852   8.810  0.0873 -0.0256  0.4737
81600SOL    HW162792   9.261   0.882   8.721 -1.7380 -2.3466 -0.8154
81600SOL    HW262793   9.281   0.918   8.866  0.3598  2.1507 -2.0578
81601SOL     OW62794  13.425   3.353   4.875 -0.0740  0.4443 -0.2408
81601SOL    HW162795  13.391   3.322   4.958 -0.8601 -0.7230 -0.9684
81601SOL    HW262796  13.351   3.348   4.815  1.0699 -1.2467 -1.6345
81602SOL     OW62797  11.646   7.969  11.921 -0.0805 -0.4129  0.2713
81602SOL    HW162798  11.663   8.060  11.896  0.0378 -0.2575  0.9177
81602SOL    HW262799  11.571   7.943  11.868  0.2311 -0.1183 -0.3254
81603SOL     OW62800  13.669  12.843   0.500 -0.2886  0.0985  0.2565
81603SOL    HW162801  13.646  12.750   0.510 -1.3002  0.2828 -0.2642
81603SOL    HW262802  13.761  12.842   0.473 -0.6686 -0.8201 -1.0736
81604SOL     OW62803   0.832  12.058  11.961 -0.7044 -0.3259  0.0464
81604SOL    HW162804   0.756  12.030  11.911 -0.1853  0.6256 -1.3167
81604SOL    HW262805   0.842  12.151  11.941  1.1955 -0.5596 -0.3395
81605SOL     OW62806   0.331   8.853   4.070  0.1176  0.1302 -0.2457
81605SOL    HW162807   0.342   8.758   4.079 -0.2791  0.1894  1.0574
81605SOL    HW262808   0.403   8.880   4.013  0.8358 -0.8213  0.1837
81606SOL     OW62809  10.978   8.578   2.614  0.3581 -0.1872 -0.2656
81606SOL    HW162810  10.893   8.611   2.587  0.4976  0.6213  0.2550
81606SOL    HW262811  10.997   8.623   2.697  0.5699 -1.5593  0.4592
81607SOL     OW62812  13.855  11.405  13.453 -0.2966 -0.1885  0.4243
81607SOL    HW162813  13.885  11.366  13.371 -0.5098 -1.3083  0.8609
81607SOL    HW262814  13.810  11.485  13.426  0.7019  0.1077 -0.4437
81608SOL     OW62815   4.905   6.262   8.515 -0.2757 -0.5084 -0.9060
81608SOL    HW162816   4.997   6.271   8.490 -0.3076 -0.6925 -1.0992
81608SOL    HW262817   4.873   6.192   8.458 -0.4917 -0.5585 -0.7196
81609SOL     OW62818  13.617   9.615   5.150  0.1173  0.2230  0.1323
81609SOL    HW162819  13.567   9.628   5.231  0.6620 -0.0812  0.5277
81609SOL    HW262820  13.551   9.615   5.081 -0.5168 -0.8114  0.7048
81610SOL     OW62821   0.605   1.541  12.584  0.0686 -0.6457 -0.2019
81610SOL    HW162822   0.591   1.627  12.622  1.7906 -0.3839 -0.0788
81610SOL    HW262823   0.693   1.545  12.546 -0.2497 -1.9995 -1.1750
81611SOL     OW62824   2.773   1.743   8.595 -0.0389 -0.6708  0.0333
81611SOL    HW162825   2.713   1.705   8.660  0.6940 -0.5614  0.7869
81611SOL    HW262826   2.807   1.667   8.547 -0.5383 -0.7573 -0.1922
81612SOL     OW62827   8.838   6.030   6.000  0.3196 -0.4615 -0.5193
81612SOL    HW162828   8.813   6.119   6.024  0.7052 -0.4430 -0.1798
81612SOL    HW262829   8.816   6.024   5.907 -2.1242 -0.8647  0.0256
81613SOL     OW62830  11.869   7.751  11.769 -0.1848  0.0023 -0.0908
81613SOL    HW162831  11.804   7.812  11.736 -0.5245 -1.2066 -1.7681
81613SOL    HW262832  11.820   7.688  11.822 -0.0944  0.1768  0.2020
81614SOL     OW62833   3.792   6.949   9.207 -0.4200 -0.3036 -0.0060
81614SOL    HW162834   3.849   6.942   9.131 -0.9384 -0.3942 -0.3888
81614SOL    HW262835   3.782   7.043   9.222  0.3190 -0.2857  0.4407
81615SOL     OW62836  11.540   5.584   8.231 -0.3142  0.0800 -0.0946
81615SOL    HW162837  11.483   5.626   8.168 -1.2395 -0.3828  0.4116
81615SOL    HW262838  11.481   5.545   8.295  0.5758 -0.1877  0.5930
81616SOL     OW62839   7.864  10.943   5.815  0.0535 -0.0945  0.4329
81616SOL    HW162840   7.804  10.926   5.888 -0.6809 -0.2586 -0.1962
81616SOL    HW262841   7.898  10.857   5.791 -0.9317 -0.2628 -0.4384
81617SOL     OW62842   8.686   9.536   0.629  0.5810 -0.6420 -0.0785
81617SOL    HW162843   8.645   9.449   0.628  0.8777 -0.7815 -0.6330
81617SOL    HW262844   8.627   9.589   0.682 -0.7256 -0.6555 -1.4551
81618SOL     OW62845   7.955   3.816  11.679 -0.0087  0.5934  0.2903
81618SOL    HW162846   8.047   3.833  11.699 -0.5311  2.4011  1.3349
81618SOL    HW262847   7.952   3.722  11.661  2.3221  0.7421 -1.4357
81619SOL     OW62848   4.964   5.477   3.244  0.0256  0.7847  0.3357
81619SOL    HW162849   4.899   5.407   3.254  0.0110  0.6688 -0.4890
81619SOL    HW262850   4.926   5.552   3.289 -1.5177  1.2544 -1.6237
81620SOL     OW62851   6.731   2.626  13.954 -0.4385 -0.3768  0.1288
81620SOL    HW162852   6.716   2.537  13.923 -2.8992 -0.6274  1.6960
81620SOL    HW262853   6.662   2.677  13.913  1.3828  1.0304 -1.3214
81621SOL     OW62854   9.251   1.977  13.380  0.5676 -0.0475  0.1462
81621SOL    HW162855   9.282   2.066  13.364 -0.1061  0.3147  0.8094
81621SOL    HW262856   9.175   1.988  13.437 -0.1054 -0.9853 -0.5445
81622SOL     OW62857   4.293   5.826  11.813  0.0842  0.4383  0.3920
81622SOL    HW162858   4.237   5.889  11.767  0.2320 -0.2013 -0.7091
81622SOL    HW262859   4.351   5.880  11.866  0.3843  1.2622 -0.7334
81623SOL     OW62860   9.342   8.306   4.759  0.5622 -0.2778 -0.2009
81623SOL    HW162861   9.386   8.282   4.678  1.1309  0.5784 -0.1623
81623SOL    HW262862   9.379   8.391   4.782  1.5479 -1.1584  1.7605
81624SOL     OW62863  10.427   1.040  10.349  0.0740 -0.3708  1.3263
81624SOL    HW162864  10.499   1.088  10.390  2.3017 -2.2898 -0.1462
81624SOL    HW262865  10.433   0.951  10.384 -1.6292 -0.5910  1.1787
81625SOL     OW62866  11.092   9.495  13.484 -0.1098  0.2050  0.6817
81625SOL    HW162867  11.187   9.488  13.489 -0.2109 -3.2162  0.2637
81625SOL    HW262868  11.063   9.499  13.575  0.3817 -1.3915  0.9410
81626SOL     OW62869   7.814   5.734   8.864  0.1238  1.0337 -0.3727
81626SOL    HW162870   7.840   5.713   8.954  0.2676  1.0842 -0.4024
81626SOL    HW262871   7.896   5.749   8.817  0.1195 -0.5305 -0.9116
81627SOL     OW62872   5.432   5.606   2.507 -0.1997  0.0119 -0.5905
81627SOL    HW162873   5.359   5.622   2.447  1.0213  0.7505 -1.9476
81627SOL    HW262874   5.403   5.641   2.591 -1.7798 -0.6396 -0.8381
81628SOL     OW62875   8.913   4.193   6.785  0.0870  0.3086  0.0505
81628SOL    HW162876   8.940   4.285   6.787  1.1994  0.0018 -0.1984
81628SOL    HW262877   8.912   4.166   6.876 -0.3548  0.5956  0.1326
81629SOL     OW62878  12.244  11.541  10.515  0.1928 -0.4777  0.3522
81629SOL    HW162879  12.335  11.528  10.538  0.0127 -1.8611  0.3246
81629SOL    HW262880  12.230  11.636  10.526  1.7442 -0.1726 -0.1401
81630SOL     OW62881  13.248  10.554   5.984  0.7757  0.3205  0.0347
81630SOL    HW162882  13.290  10.534   5.901  0.7453  0.1413  0.0610
81630SOL    HW262883  13.173  10.494   5.988  1.1106 -0.0779  0.4514
81631SOL     OW62884   7.297   3.604   8.762 -0.2138 -0.2211  0.1809
81631SOL    HW162885   7.250   3.685   8.741  0.6165  0.2722  0.1714
81631SOL    HW262886   7.389   3.626   8.750 -0.0389 -1.7094 -1.7235
81632SOL     OW62887   9.392   3.518   9.318  1.0427 -0.3308  0.2937
81632SOL    HW162888   9.371   3.432   9.354 -1.7966 -0.1556 -0.6864
81632SOL    HW262889   9.479   3.508   9.280  1.6264 -2.1583  1.9799
81633SOL     OW62890   8.412   6.646   3.954 -0.4459  0.2578 -0.5470
81633SOL    HW162891   8.462   6.719   3.918 -1.7129  1.1092 -0.6446
81633SOL    HW262892   8.409   6.662   4.048 -0.8201  0.4052 -0.5812
81634SOL     OW62893   7.137  12.886  11.685 -0.5416 -0.1662 -0.1254
81634SOL    HW162894   7.175  12.970  11.709 -1.9508  1.0593 -1.9277
81634SOL    HW262895   7.160  12.828  11.758  0.1501  1.8512  1.3643
81635SOL     OW62896   5.551   9.793  13.720  0.0329 -0.6010  0.2268
81635SOL    HW162897   5.581   9.707  13.692  1.4692 -0.4272  1.1647
81635SOL    HW262898   5.602   9.812  13.799  0.7988  1.7184 -0.7556
81636SOL     OW62899   6.292  13.260   5.412  0.1428 -0.2304 -0.5382
81636SOL    HW162900   6.302  13.309   5.494  0.0109 -0.9143 -0.1044
81636SOL    HW262901   6.375  13.272   5.367  0.3715 -0.1886 -0.1140
81637SOL     OW62902  11.970  11.158  13.478 -0.3630  0.1805  0.1606
81637SOL    HW162903  11.990  11.065  13.485  0.8451  0.4502  0.6035
81637SOL    HW262904  11.958  11.173  13.385  1.2183 -0.1094 -0.1318
81638SOL     OW62905  13.153   7.764   3.090  0.0252  0.7197 -0.4036
81638SOL    HW162906  13.130   7.782   3.181 -0.9026 -0.0542 -0.4724
81638SOL    HW262907  13.075   7.723   3.053  1.3449 -1.6495 -0.7609
81639SOL     OW62908   8.934  12.822   1.324  0.2725  0.2077  0.0842
81639SOL    HW162909   8.843  12.838   1.350 -0.0553 -0.3956 -0.6615
81639SOL    HW262910   8.930  12.742   1.272  1.1566  0.5034 -0.4478
81640SOL     OW62911  12.891   8.273   8.482 -0.4910 -0.3675  0.4815
81640SOL    HW162912  12.857   8.213   8.415  0.2364 -1.2045  0.8381
81640SOL    HW262913  12.813   8.318   8.515 -1.0447 -1.0301  0.1151
81641SOL     OW62914  10.377   9.989   8.051 -0.6403  0.5093  0.3107
81641SOL    HW162915  10.454   9.933   8.059 -0.6342  0.0539 -2.0506
81641SOL    HW262916  10.407  10.062   7.997 -1.2833  1.5626  1.3347
81642SOL     OW62917   1.466   2.502   8.307  0.1818 -0.0022  0.5184
81642SOL    HW162918   1.383   2.538   8.337 -0.0117  0.2168 -0.2640
81642SOL    HW262919   1.450   2.478   8.216  1.3465  1.2497 -0.0529
81643SOL     OW62920   4.251   8.627  10.576  0.0937  0.1217  0.3485
81643SOL    HW162921   4.288   8.705  10.618  0.3980 -1.2646  2.8362
81643SOL    HW262922   4.179   8.601  10.632  0.3300 -1.7020 -0.1319
81644SOL     OW62923   3.968   6.645  13.579  0.0892 -0.7031 -0.3689
81644SOL    HW162924   3.902   6.584  13.610  0.8220 -1.8196 -0.9562
81644SOL    HW262925   4.029   6.654  13.653  0.5077 -1.4543 -0.6174
81645SOL     OW62926   7.352   1.175   0.594 -0.3260  0.2421  1.0152
81645SOL    HW162927   7.421   1.173   0.527 -0.3059 -0.7030  1.0413
81645SOL    HW262928   7.293   1.245   0.566 -2.3159 -2.3716 -2.0853
81646SOL     OW62929   6.686   2.998  12.678 -0.1843 -0.0594  0.0263
81646SOL    HW162930   6.595   3.027  12.683  0.2037  1.4378 -0.8842
81646SOL    HW262931   6.691   2.944  12.600 -0.3892 -0.5118  0.3280
81647SOL     OW62932   2.100   2.846   9.968  0.5514 -0.0408 -0.1688
81647SOL    HW162933   2.174   2.854   9.908 -0.7691 -0.9658 -2.0564
81647SOL    HW262934   2.108   2.759  10.006 -0.7317 -1.1489 -2.2080
81648SOL     OW62935   6.609  13.406  11.194  0.2328  0.0581  0.1156
81648SOL    HW162936   6.673  13.469  11.161  0.6168 -0.6790 -0.5698
81648SOL    HW262937   6.646  13.373  11.275  0.0347  0.6894  0.4753
81649SOL     OW62938   1.038   6.721   5.182 -0.2247 -0.4616 -0.2577
81649SOL    HW162939   0.998   6.804   5.160  1.0515 -0.0369 -1.0832
81649SOL    HW262940   1.008   6.703   5.271 -1.0636  0.5266 -0.3214
81650SOL     OW62941  13.994   1.670   3.885 -0.0726  0.7262  0.3743
81650SOL    HW162942  13.970   1.698   3.796  1.1051 -1.8747 -0.8522
81650SOL    HW262943  13.959   1.739   3.941 -3.3892  1.1059 -1.8419
81651SOL     OW62944   9.423   1.367   1.547  0.4008 -0.5062 -0.8899
81651SOL    HW162945   9.489   1.313   1.591  0.4645 -1.0029 -1.5783
81651SOL    HW262946   9.474   1.426   1.492  0.3678  0.7723  0.3900
81652SOL     OW62947  10.822   7.876   9.258 -0.1251  0.5879 -0.1257
81652SOL    HW162948  10.734   7.840   9.272  0.6244 -0.9183  0.9809
81652SOL    HW262949  10.856   7.828   9.183 -0.3682  1.4849 -0.8403
81653SOL     OW62950   5.076   3.242   4.334 -0.0682 -0.4037  0.6200
81653SOL    HW162951   5.139   3.284   4.274  0.6754 -0.1079  1.5811
81653SOL    HW262952   5.130   3.187   4.391 -0.6896 -0.2126  1.4123
81654SOL     OW62953  11.204   2.841   0.426 -0.0958  0.0504  0.0602
81654SOL    HW162954  11.185   2.757   0.384 -2.9520 -0.6064  2.3513
81654SOL    HW262955  11.287   2.826   0.471 -1.0432 -1.9848  1.2767
81655SOL     OW62956   0.113   5.649   9.023  0.0553  0.0729  0.1602
81655SOL    HW162957   0.083   5.560   9.046  0.1348  0.3498  1.4204
81655SOL    HW262958   0.079   5.664   8.935  0.9203 -1.6097 -0.5069
81656SOL     OW62959  13.373   5.164   7.165 -0.1175 -0.4934  0.5453
81656SOL    HW162960  13.303   5.222   7.195  0.9201  0.0061  2.1399
81656SOL    HW262961  13.371   5.090   7.226  0.6588 -0.5144  0.5627
81657SOL     OW62962   7.944  10.111  12.914  0.3157  0.2994  0.2692
81657SOL    HW162963   7.983  10.117  12.827 -0.9751 -0.8632 -0.4371
81657SOL    HW262964   7.863  10.161  12.908  0.5921  0.8666  1.0525
81658SOL     OW62965   5.735  12.453  10.077 -0.2283 -0.1342  0.3557
81658SOL    HW162966   5.821  12.470  10.037 -0.3551 -0.9625 -0.3192
81658SOL    HW262967   5.673  12.503  10.023 -0.1560  0.6631  0.9932
81659SOL     OW62968  12.520  13.496   4.485  0.2304  0.2673  0.1543
81659SOL    HW162969  12.606  13.536   4.475  0.8250 -1.1032 -0.3798
81659SOL    HW262970  12.477  13.511   4.401 -0.1326  1.1147  0.4853
81660SOL     OW62971   1.007   4.877   7.964  0.7131 -0.5211 -0.2549
81660SOL    HW162972   1.039   4.847   7.879  0.7417  1.3709 -0.9608
81660SOL    HW262973   0.920   4.913   7.945  1.1838  0.9723  0.2601
81661SOL     OW62974  10.060   5.509   4.783  0.2872 -0.5605  0.1591
81661SOL    HW162975  10.116   5.585   4.770 -3.2155  2.1627 -0.5764
81661SOL    HW262976  10.032   5.514   4.874  0.0737 -1.0146  0.1239
81662SOL     OW62977   4.639  11.061   9.012 -0.0591 -0.1031  0.1593
81662SOL    HW162978   4.672  11.124   9.076 -1.7023  0.7668  0.1995
81662SOL    HW262979   4.673  10.977   9.042 -2.5379 -0.1278  3.5721
81663SOL     OW62980   6.985   2.407  10.804  0.0107 -0.0041  0.3751
81663SOL    HW162981   7.030   2.327  10.832  0.9613  0.4796  0.2859
81663SOL    HW262982   7.050   2.454  10.752 -1.3197 -0.3193 -1.6706
81664SOL     OW62983  14.070   0.972   8.365  0.0060 -0.1722  0.0414
81664SOL    HW162984  14.068   0.883   8.398 -0.4850 -0.4518 -0.7157
81664SOL    HW262985  14.146   1.012   8.408  0.7277 -1.1990 -0.2463
81665SOL     OW62986   8.626   3.275   0.755  0.7688  0.4407 -0.5300
81665SOL    HW162987   8.556   3.320   0.802 -0.3418 -0.0270 -1.6857
81665SOL    HW262988   8.647   3.200   0.810  0.7144  0.8576  0.0689
81666SOL     OW62989   8.771   5.301   8.404  0.5688 -0.2085  0.1300
81666SOL    HW162990   8.809   5.310   8.491  0.3175 -0.7577  0.3050
81666SOL    HW262991   8.825   5.356   8.348  0.8694 -0.0254  0.5948
81667SOL     OW62992  13.309   5.303   6.550  0.0437 -0.1212  0.0281
81667SOL    HW162993  13.382   5.333   6.605 -0.2238  3.1388 -1.1858
81667SOL    HW262994  13.233   5.309   6.607  0.3985 -1.7339  0.7373
81668SOL     OW62995   9.454  10.600   1.628  0.0661 -0.1924 -0.5073
81668SOL    HW162996   9.524  10.660   1.653  1.0666 -0.5101 -2.3939
81668SOL    HW262997   9.381  10.658   1.605  0.4323  0.2301 -0.6328
81669SOL     OW62998   6.542  10.133  11.202 -0.0674 -0.6510  0.1697
81669SOL    HW162999   6.557  10.212  11.149  1.6924 -0.2760  1.1296
81669SOL    HW263000   6.450  10.139  11.227 -0.1804  0.6875 -0.4321
81670SOL     OW63001   4.160  13.253   8.925 -0.0081  0.5321 -0.0831
81670SOL    HW163002   4.227  13.279   8.988 -0.0703  3.7438 -1.1626
81670SOL    HW263003   4.131  13.336   8.886 -1.9084 -1.0909 -2.3580
81671SOL     OW63004  10.201   0.640   6.800  0.0825 -0.2933 -0.7755
81671SOL    HW163005  10.293   0.657   6.818 -0.0454 -0.6719  0.3209
81671SOL    HW263006  10.180   0.563   6.852 -0.8001 -0.3604 -1.2013
81672SOL     OW63007  12.067   5.051   9.566 -0.1043 -0.2867 -0.1939
81672SOL    HW163008  12.149   5.076   9.607  1.3463 -3.5294 -0.7536
81672SOL    HW263009  12.041   4.971   9.612 -2.2844 -0.0335 -0.8750
81673SOL     OW63010   0.612   4.844  13.421  0.1648  0.2706 -0.2134
81673SOL    HW163011   0.526   4.870  13.453  0.2095 -0.3908  0.4879
81673SOL    HW263012   0.673   4.884  13.483  0.2567 -0.9472  0.5143
81674SOL     OW63013  12.907  13.829  12.845 -0.4243  0.1784  0.4592
81674SOL    HW163014  12.944  13.742  12.847 -1.8397 -0.5776 -1.7984
81674SOL    HW263015  12.881  13.847  12.935 -0.9257 -2.1384  0.8363
81675SOL     OW63016   9.112   2.383  11.907  0.0192  0.4252  0.1404
81675SOL    HW163017   9.082   2.369  11.817  0.8969  0.8118 -0.2255
81675SOL    HW263018   9.036   2.362  11.961 -0.5045  0.1289 -0.6849
81676SOL     OW63019   8.828   4.285  12.989 -0.4998 -0.1277 -0.6440
81676SOL    HW163020   8.878   4.206  12.972 -0.5313 -0.0172 -1.2848
81676SOL    HW263021   8.802   4.316  12.903 -1.1569  0.1495 -0.3551
81677SOL     OW63022   2.459   1.087   9.322 -0.6171  0.2048  0.4574
81677SOL    HW163023   2.506   1.011   9.354 -1.2163 -1.4618 -2.2713
81677SOL    HW263024   2.367   1.061   9.325 -1.0594  1.7689  1.6700
81678SOL     OW63025  13.975   7.717   3.306 -0.3322  0.1539  0.1299
81678SOL    HW163026  14.013   7.753   3.225  0.9326 -1.4942 -0.0601
81678SOL    HW263027  13.926   7.790   3.344 -0.9753  0.9562 -2.1229
81679SOL     OW63028  11.516  11.537   9.470 -0.3947 -0.3482 -0.7748
81679SOL    HW163029  11.515  11.442   9.479 -0.7636 -0.5424 -2.4492
81679SOL    HW263030  11.575  11.567   9.539 -1.1105 -1.6881  0.4708
81680SOL     OW63031  12.823   5.873   7.644 -1.0942 -0.4466 -0.3315
81680SOL    HW163032  12.879   5.796   7.629 -0.1596  0.4457 -1.6744
81680SOL    HW263033  12.771   5.880   7.564  0.7136  1.7935 -1.4302
81681SOL     OW63034   5.492   7.340  11.002 -0.1385  0.0002 -0.1971
81681SOL    HW163035   5.540   7.271  11.048  0.8555  0.2217 -0.8690
81681SOL    HW263036   5.465   7.400  11.070  2.1805  0.8499  0.0530
81682SOL     OW63037   4.566  11.897   3.149 -0.2125 -0.0703  0.1240
81682SOL    HW163038   4.528  11.969   3.198 -0.2585 -0.6931  1.0229
81682SOL    HW263039   4.658  11.920   3.138 -0.2590  0.1887  0.2800
81683SOL     OW63040  12.666  14.109   3.194 -0.4232  0.0912  0.0517
81683SOL    HW163041  12.607  14.117   3.119  0.3760  2.2933 -0.4068
81683SOL    HW263042  12.727  14.039   3.170 -2.6548 -2.1521  0.4831
81684SOL     OW63043  10.117   1.930   9.555 -0.6537 -0.1160  0.0269
81684SOL    HW163044  10.114   1.857   9.618 -2.2695 -1.2394 -1.2531
81684SOL    HW263045  10.028   1.965   9.555 -0.4415  0.4612 -0.9581
81685SOL     OW63046   6.827   1.011   8.455  0.1231  0.4066  0.2792
81685SOL    HW163047   6.815   0.924   8.492  0.0235  0.6151  0.7400
81685SOL    HW263048   6.804   1.001   8.362 -0.8852  0.1767  0.5518
81686SOL     OW63049   6.295   9.596   2.942 -0.6402  0.4036  0.1383
81686SOL    HW163050   6.262   9.538   2.873  0.1400  1.0730 -0.8359
81686SOL    HW263051   6.259   9.682   2.918 -1.9336  0.3426  1.6537
81687SOL     OW63052   7.582   8.109  10.557 -0.0160 -0.4353 -0.1522
81687SOL    HW163053   7.582   8.157  10.640  0.0901  1.3900 -1.1595
81687SOL    HW263054   7.587   8.177  10.490  0.0929 -1.8743 -1.6655
81688SOL     OW63055  12.413   4.980   2.546 -0.0599  0.3597  0.6059
81688SOL    HW163056  12.389   4.923   2.472 -1.4558  1.7528 -0.0550
81688SOL    HW263057  12.337   5.036   2.559  0.8730  1.3707  1.9355
81689SOL     OW63058  11.630   4.247   6.070  0.3065 -0.3706  0.2339
81689SOL    HW163059  11.672   4.325   6.108  0.1868  0.4254 -1.1871
81689SOL    HW263060  11.536   4.263   6.080  0.2019  0.6329 -1.7389
81690SOL     OW63061   2.813   9.503  11.076  0.0841  0.4413  0.0835
81690SOL    HW163062   2.748   9.570  11.097  0.4331  0.6497  0.5435
81690SOL    HW263063   2.858   9.487  11.160 -0.2265 -0.6219  0.0518
81691SOL     OW63064   8.330  11.633   4.383  0.0828 -0.2183  0.1857
81691SOL    HW163065   8.361  11.575   4.314 -1.4005 -1.2399  0.3119
81691SOL    HW263066   8.304  11.574   4.454 -1.2266  0.5933  0.4308
81692SOL     OW63067   9.979   1.051   5.020 -0.2748  0.7398  0.6689
81692SOL    HW163068  10.004   1.143   5.034 -0.9557  0.8099  1.5234
81692SOL    HW263069   9.960   1.018   5.108 -1.0069  0.0582  0.2646
81693SOL     OW63070  10.921  11.174  12.401 -0.5725 -0.3070  0.4976
81693SOL    HW163071  10.983  11.204  12.468  0.0234  0.6151 -0.4506
81693SOL    HW263072  10.968  11.104  12.355 -0.2411  0.3561 -0.1865
81694SOL     OW63073   0.444   7.864   1.836 -0.0219 -0.2448  0.0793
81694SOL    HW163074   0.408   7.850   1.924 -0.4757  0.6689  0.0439
81694SOL    HW263075   0.423   7.783   1.789  0.1739 -0.7158  0.7898
81695SOL     OW63076  12.582   0.246   1.383 -0.7115 -0.2578  0.6057
81695SOL    HW163077  12.578   0.268   1.476  0.4209  1.3907  0.3019
81695SOL    HW263078  12.657   0.187   1.376 -0.5903 -0.1150  0.6945
81696SOL     OW63079  12.232  11.924   9.311 -0.6792 -0.2582 -0.5084
81696SOL    HW163080  12.322  11.954   9.298 -0.1766 -1.7141 -0.6097
81696SOL    HW263081  12.223  11.913   9.405 -1.1498  0.9799 -0.3878
81697SOL     OW63082   8.004   8.699   6.253  0.1198 -0.2607 -0.2212
81697SOL    HW163083   8.030   8.611   6.279  1.6513 -0.3062 -1.7641
81697SOL    HW263084   8.012   8.750   6.334  0.8053 -1.1977  0.3303
81698SOL     OW63085   2.660   4.869  10.708  0.4674  0.3734  0.1863
81698SOL    HW163086   2.642   4.867  10.614 -0.7728  0.3588  0.4086
81698SOL    HW263087   2.755   4.855  10.715  0.3264 -1.4669 -0.9782
81699SOL     OW63088   9.103   8.491   5.338  0.3844 -0.1539 -0.2854
81699SOL    HW163089   9.023   8.445   5.314 -0.1826  0.6145  0.0796
81699SOL    HW263090   9.097   8.501   5.433  0.5174  0.6207 -0.3506
81700SOL     OW63091   6.316   8.306   4.978 -0.3094 -0.0506 -0.1543
81700SOL    HW163092   6.248   8.239   4.971 -0.8718  0.3186  1.4608
81700SOL    HW263093   6.276   8.384   4.940 -0.3776 -0.1133 -0.2153
81701SOL     OW63094  11.272   5.577   7.532 -0.0935  0.3346  0.4191
81701SOL    HW163095  11.208   5.544   7.468 -0.1777  1.9217 -0.3628
81701SOL    HW263096  11.349   5.599   7.480  0.6960 -0.4622  1.2026
81702SOL     OW63097   2.513  13.485   8.269 -0.0769  0.0953  0.3658
81702SOL    HW163098   2.443  13.442   8.319 -2.1144  2.5339 -0.2124
81702SOL    HW263099   2.522  13.571   8.309  0.7710  0.7975 -1.2423
81703SOL     OW63100  11.700  10.298   1.829  0.2277  0.2244 -0.3664
81703SOL    HW163101  11.750  10.342   1.760  1.8389  1.4674  1.4831
81703SOL    HW263102  11.666  10.369   1.883 -0.1150 -0.7363  0.7144
81704SOL     OW63103   9.893   7.476  12.194  0.3897  0.0762  0.9174
81704SOL    HW163104   9.883   7.567  12.167  3.3575  0.5000  0.9563
81704SOL    HW263105   9.913   7.481  12.288 -0.3533 -0.6972  1.1268
81705SOL     OW63106   1.136  13.373   2.986  0.8759  0.6801  0.2381
81705SOL    HW163107   1.082  13.406   3.058 -1.2385  0.4547 -1.1559
81705SOL    HW263108   1.191  13.447   2.961  1.4171  0.8545  1.8320
81706SOL     OW63109  11.789   2.257   5.203  0.6888  0.2607  0.0007
81706SOL    HW163110  11.853   2.197   5.241 -0.4914 -0.0081  1.6856
81706SOL    HW263111  11.732   2.280   5.276 -1.1210  0.4960 -1.4149
81707SOL     OW63112   4.564   8.140   8.782  0.0176  0.2280  0.0777
81707SOL    HW163113   4.571   8.047   8.759  0.0768  0.4161 -0.6928
81707SOL    HW263114   4.645   8.179   8.748  0.2524  0.4630  0.8965
81708SOL     OW63115   1.118   1.767   1.891  0.3151 -0.1544 -0.3209
81708SOL    HW163116   1.061   1.697   1.923 -1.0247  1.0684  0.0791
81708SOL    HW263117   1.206   1.729   1.893 -0.3182 -1.6651  0.3215
81709SOL     OW63118   3.201  12.428   3.073 -0.4553  0.0873  0.0024
81709SOL    HW163119   3.201  12.401   3.165 -0.1987  1.6121  0.4779
81709SOL    HW263120   3.109  12.446   3.054 -0.4598  0.1390  0.0726
81710SOL     OW63121   0.515  13.133   6.848 -0.4333  0.5668  0.4867
81710SOL    HW163122   0.437  13.107   6.798 -0.7372 -0.2676  1.3548
81710SOL    HW263123   0.487  13.129   6.939  1.6976 -4.2657  1.2740
81711SOL     OW63124  12.026   9.666   9.939 -0.2663  0.6385  0.0841
81711SOL    HW163125  12.111   9.680   9.896 -0.8047  1.2652 -0.8099
81711SOL    HW263126  12.018   9.571   9.945  0.8043  0.5688  0.8262
81712SOL     OW63127   5.716   0.805  11.586 -0.6703 -0.0305 -0.0567
81712SOL    HW163128   5.802   0.792  11.547 -0.9096  1.2348 -1.0850
81712SOL    HW263129   5.701   0.900  11.580 -1.9861 -0.1878  0.4128
81713SOL     OW63130   7.321   1.670   5.405  0.1672 -0.2209  0.7506
81713SOL    HW163131   7.276   1.722   5.471  0.2013  1.6391 -0.6244
81713SOL    HW263132   7.334   1.585   5.447 -1.1408  0.4093  2.5730
81714SOL     OW63133  13.291   6.859   7.286 -0.1980 -0.4165  0.6790
81714SOL    HW163134  13.311   6.900   7.371 -0.1341  1.3440 -0.1344
81714SOL    HW263135  13.195   6.860   7.282 -0.2027 -0.5629  0.7630
81715SOL     OW63136   0.580   8.461   5.722  0.3023  0.2873  0.8816
81715SOL    HW163137   0.626   8.521   5.781  0.3098  1.7129 -0.5102
81715SOL    HW263138   0.501   8.509   5.696 -1.2204 -1.4812  1.9707
81716SOL     OW63139  14.050  13.927   6.845 -0.4068 -0.1013 -0.6879
81716SOL    HW163140  14.012  13.855   6.795 -1.4076 -0.8074  0.9969
81716SOL    HW263141  14.144  13.923   6.825 -0.2256 -2.7016  0.3254
81717SOL     OW63142   1.547  13.136   7.543  0.0371  0.4287 -0.9555
81717SOL    HW163143   1.465  13.174   7.574  0.6703  0.1106  1.2730
81717SOL    HW263144   1.593  13.209   7.501 -1.4332  0.5617 -2.4178
81718SOL     OW63145   5.577   2.647   6.441 -0.5797 -0.3015 -0.4773
81718SOL    HW163146   5.614   2.722   6.395 -0.4601 -1.3120 -2.1176
81718SOL    HW263147   5.526   2.685   6.512  0.2041  1.2810 -0.7163
81719SOL     OW63148  12.820   4.587  12.052 -0.2229  0.2393 -0.1422
81719SOL    HW163149  12.852   4.538  12.127 -1.4773  1.4235  1.2339
81719SOL    HW263150  12.871   4.669  12.053  1.0060 -0.4339 -1.6991
81720SOL     OW63151   9.124   8.798   2.150 -0.0404 -0.0096  0.1071
81720SOL    HW163152   9.059   8.735   2.181 -1.1432  1.1369  0.1718
81720SOL    HW263153   9.090   8.883   2.176  1.7432  0.6008  0.6024
81721SOL     OW63154   8.458   7.633  11.172  0.0450  0.2878 -0.4470
81721SOL    HW163155   8.544   7.621  11.132  0.7528 -0.0707  1.1169
81721SOL    HW263156   8.403   7.667  11.101  1.4290  0.3966 -1.5062
81722SOL     OW63157   1.919  13.047   8.704 -0.1173  0.0478  0.8323
81722SOL    HW163158   1.891  13.052   8.613  2.0119  0.8615  0.1585
81722SOL    HW263159   1.951  13.135   8.725  1.6140 -0.6970  1.5590
81723SOL     OW63160   9.310   8.610   9.882  0.2716  0.2587 -0.5464
81723SOL    HW163161   9.294   8.688   9.935  0.3334  0.0181 -0.1700
81723SOL    HW263162   9.390   8.629   9.834  0.8864  0.0094  0.3529
81724SOL     OW63163  11.006   8.233  12.639 -0.1612 -0.2835 -0.0780
81724SOL    HW163164  11.094   8.267  12.653  0.1369 -1.2059  0.4214
81724SOL    HW263165  10.998   8.161  12.702 -0.9336 -0.8060 -0.7416
81725SOL     OW63166   1.865  13.322  10.165 -0.0649 -0.2729  0.3363
81725SOL    HW163167   1.861  13.280  10.251 -0.2266  1.4413  1.1916
81725SOL    HW263168   1.774  13.329  10.138  0.0223 -1.5596 -0.3913
81726SOL     OW63169   4.493  12.142   9.977  0.3014 -0.2549  0.1915
81726SOL    HW163170   4.567  12.081   9.975 -0.3698 -1.1196  0.7270
81726SOL    HW263171   4.420  12.092   9.941 -0.0247  0.5998 -0.3681
81727SOL     OW63172   9.270   5.785   6.570 -0.0071  0.3828 -0.3060
81727SOL    HW163173   9.280   5.835   6.488 -0.2726  0.2915 -0.3969
81727SOL    HW263174   9.220   5.844   6.626  2.1010  1.3905  0.6309
81728SOL     OW63175  12.503   2.597  10.405 -0.0754 -0.3975 -0.0429
81728SOL    HW163176  12.414   2.577  10.377 -0.2084  0.3836 -0.1901
81728SOL    HW263177  12.524   2.680  10.363  0.5614 -0.3542  0.3424
81729SOL     OW63178  10.258   8.619   3.081 -0.1974 -0.2323 -0.1879
81729SOL    HW163179  10.244   8.557   3.153  0.3860  0.1573  0.2642
81729SOL    HW263180  10.352   8.615   3.064 -0.1193  0.6777 -0.0190
81730SOL     OW63181   7.640  12.807   4.942 -0.4312 -0.3122 -0.6411
81730SOL    HW163182   7.557  12.767   4.914 -1.1665  1.0448 -0.5000
81730SOL    HW263183   7.695  12.733   4.966 -1.8135 -1.2333 -0.1571
81731SOL     OW63184   3.920   6.926   8.725 -0.5006 -0.2699  0.1422
81731SOL    HW163185   3.893   6.889   8.642  0.4576 -0.7705  0.0327
81731SOL    HW263186   3.961   7.010   8.702 -1.3127  0.1566  0.2362
81732SOL     OW63187   3.933  13.765   5.487 -0.1181 -0.0594  0.1674
81732SOL    HW163188   3.996  13.836   5.503 -0.0768  0.4173 -1.8684
81732SOL    HW263189   3.850  13.800   5.519  0.1666  0.3335  0.4981
81733SOL     OW63190  13.095   0.908   5.305 -0.1944 -0.3413 -0.2062
81733SOL    HW163191  13.120   1.000   5.291  0.5718 -0.7168 -1.5656
81733SOL    HW263192  13.039   0.887   5.230 -0.7794 -0.8507  0.3621
81734SOL     OW63193  12.136   2.909   2.186  0.1856  0.5895  0.2357
81734SOL    HW163194  12.063   2.944   2.134  1.8032  1.8100 -1.3065
81734SOL    HW263195  12.146   2.819   2.154 -0.4682  0.4908  0.2875
81735SOL     OW63196  10.007   0.520  12.235 -0.2916  0.1688  0.5308
81735SOL    HW163197  10.090   0.496  12.275  0.5236  1.7314 -0.1735
81735SOL    HW263198   9.943   0.462  12.277  0.8867  0.0770  2.3022
81736SOL     OW63199   0.606   3.761   9.334  0.3316 -0.1824 -0.0202
81736SOL    HW163200   0.682   3.743   9.388 -1.3776  0.6287  2.9096
81736SOL    HW263201   0.551   3.683   9.341  0.3932 -0.3592 -1.2450
81737SOL     OW63202  13.956   5.510  12.456  1.0422  0.3207 -0.2094
81737SOL    HW163203  13.941   5.458  12.377  2.3102  0.7680 -0.7755
81737SOL    HW263204  14.046   5.543  12.446  0.0575  3.2665 -0.2810
81738SOL     OW63205   5.745   4.081   9.476 -0.1273  0.3414  0.2026
81738SOL    HW163206   5.821   4.066   9.419 -1.4586  0.4886 -1.7243
81738SOL    HW263207   5.755   4.172   9.505  0.5919  0.2567  0.2479
81739SOL     OW63208   6.006   5.069   2.141  0.3781  0.2481 -0.0805
81739SOL    HW163209   6.030   5.147   2.191  0.8200  0.8564 -1.2068
81739SOL    HW263210   5.933   5.030   2.190  1.2556  0.4094  1.4084
81740SOL     OW63211   8.441   1.410   1.733  0.5094  0.3494 -0.8700
81740SOL    HW163212   8.403   1.359   1.804 -0.7537  0.2221 -1.6031
81740SOL    HW263213   8.536   1.403   1.745  0.3208 -0.5045  0.1962
81741SOL     OW63214   9.135  12.953   7.568 -0.1697 -0.1752 -0.3929
81741SOL    HW163215   9.148  12.977   7.659 -0.0952 -0.4588 -0.3279
81741SOL    HW263216   9.144  13.035   7.520  0.0804 -0.0739 -0.1753
81742SOL     OW63217   0.748   8.363  11.782 -0.5473  0.2895 -0.7597
81742SOL    HW163218   0.699   8.290  11.744  1.3648 -1.6827  0.3760
81742SOL    HW263219   0.816   8.383  11.718  1.9442 -2.2601  0.8782
81743SOL     OW63220   2.868  11.666  10.385 -0.4746  0.1226 -0.1349
81743SOL    HW163221   2.900  11.755  10.399 -1.3500  0.1911  1.6278
81743SOL    HW263222   2.865  11.656  10.289 -1.3767  2.3577 -0.3841
81744SOL     OW63223  14.128  11.072   5.534  0.1572 -0.6427  0.1624
81744SOL    HW163224  14.154  11.042   5.621  0.8847 -0.7070 -0.0647
81744SOL    HW263225  14.139  11.168   5.538  0.3845 -0.6631  0.0894
81745SOL     OW63226   7.432   3.213   1.606 -0.1864  0.2617 -0.0765
81745SOL    HW163227   7.408   3.232   1.515 -1.7319 -0.9410  0.0448
81745SOL    HW263228   7.463   3.123   1.604  2.9062  1.2046  0.0899
81746SOL     OW63229   2.267   7.239  11.852 -0.3068  0.2553  0.2336
81746SOL    HW163230   2.266   7.241  11.948  0.6624 -1.1898  0.3110
81746SOL    HW263231   2.359   7.223  11.829 -0.8201 -1.4441 -0.8467
81747SOL     OW63232  13.662   5.961   7.454 -0.3600  0.3585 -0.1095
81747SOL    HW163233  13.745   5.965   7.502 -0.1109  0.3163 -0.5331
81747SOL    HW263234  13.625   6.049   7.462 -0.1042  0.4759 -0.2197
81748SOL     OW63235   5.669   8.654   8.711  0.2079 -0.2521 -0.2159
81748SOL    HW163236   5.652   8.575   8.763 -0.8215 -1.1743 -1.8691
81748SOL    HW263237   5.623   8.724   8.757  2.0828 -0.3038  1.9208
81749SOL     OW63238   8.609  12.616   4.308 -0.1864  0.1417 -0.3809
81749SOL    HW163239   8.632  12.708   4.306  0.1568  0.1603  1.7855
81749SOL    HW263240   8.564  12.604   4.392 -1.1693 -1.4554 -1.0733
81750SOL     OW63241  11.081   5.715   7.094 -0.1126  0.3426  0.1469
81750SOL    HW163242  11.086   5.748   7.183 -0.1392  1.1820 -0.1521
81750SOL    HW263243  10.988   5.718   7.072 -0.1610 -0.2871  0.2363
81751SOL     OW63244   0.081   2.655  13.104 -0.1493 -0.3231 -0.3894
81751SOL    HW163245   0.127   2.637  13.186 -0.9962  0.7038  0.3470
81751SOL    HW263246   0.108   2.745  13.082 -1.3293  0.0857 -0.2363
81752SOL     OW63247  13.407   3.589   0.332 -0.8395 -0.3133  0.5190
81752SOL    HW163248  13.433   3.674   0.298 -0.5068 -0.1029  1.2677
81752SOL    HW263249  13.485   3.556   0.377 -1.3170 -0.4950  1.2301
81753SOL     OW63250   9.523   8.753   7.820 -0.4592  0.4512 -0.4477
81753SOL    HW163251   9.596   8.804   7.783  1.5536 -2.5618 -0.9610
81753SOL    HW263252   9.445   8.803   7.796  1.3269  3.5259 -0.4060
81754SOL     OW63253  11.626  12.057   5.767 -0.1698 -0.3548 -0.3146
81754SOL    HW163254  11.598  12.067   5.676 -0.6889  1.3670  0.0008
81754SOL    HW263255  11.549  12.080   5.819  1.0129  2.0382  0.5490
81755SOL     OW63256   6.937   2.804  11.058 -0.3001  0.3078  0.2239
81755SOL    HW163257   6.997   2.735  11.083  0.0749  0.1564 -1.0390
81755SOL    HW263258   6.945   2.870  11.128  0.6352 -0.1228  0.5309
81756SOL     OW63259   0.305   6.427   8.914 -0.1992 -0.6799 -0.0570
81756SOL    HW163260   0.394   6.395   8.927 -0.6114 -1.3521  1.3283
81756SOL    HW263261   0.264   6.362   8.857  0.2431 -0.2519 -0.8799
81757SOL     OW63262   4.334  11.541  12.006 -0.3773  0.2680 -0.1817
81757SOL    HW163263   4.416  11.587  11.989  0.2651 -0.7028  0.1925
81757SOL    HW263264   4.284  11.551  11.926  1.2623 -1.4947 -1.5350
81758SOL     OW63265   7.321  12.986   4.917  0.1309  0.0299  0.1340
81758SOL    HW163266   7.346  12.894   4.917 -1.7521 -0.5187 -0.0609
81758SOL    HW263267   7.363  13.022   4.839  1.1605 -0.5463  0.3930
81759SOL     OW63268   1.454   5.894  11.608 -0.3434 -0.0272  0.0913
81759SOL    HW163269   1.508   5.967  11.640 -0.9758  0.1816  0.6965
81759SOL    HW263270   1.509   5.851  11.543  0.2413  0.6788  0.1040
81760SOL     OW63271  11.323   9.698   8.906 -0.2325  0.2783 -0.1847
81760SOL    HW163272  11.400   9.709   8.850 -0.5610 -0.1925 -0.7317
81760SOL    HW263273  11.338   9.759   8.978  0.9280 -0.2001  0.0130
81761SOL     OW63274   9.704  11.432  13.168 -0.4872 -0.2178 -0.1921
81761SOL    HW163275   9.768  11.374  13.210 -0.8771 -0.5637 -0.0720
81761SOL    HW263276   9.620  11.403  13.202 -0.7938 -0.3715 -1.0745
81762SOL     OW63277   4.930  10.879   9.102  0.4480  0.2161 -0.3286
81762SOL    HW163278   4.943  10.915   9.190  0.9896 -1.0073  0.1034
81762SOL    HW263279   4.842  10.840   9.105  0.8871 -0.7747  0.0204
81763SOL     OW63280   2.314  12.099   0.340 -0.0155  0.1771 -0.0001
81763SOL    HW163281   2.328  12.051   0.258  0.6179  0.1920  0.0926
81763SOL    HW263282   2.256  12.043   0.391  1.0795 -0.7392  0.2910
81764SOL     OW63283   1.263  12.225  13.571  0.1189  0.4026  0.5983
81764SOL    HW163284   1.355  12.200  13.586 -0.1560 -3.0742 -2.2260
81764SOL    HW263285   1.213  12.170  13.632 -0.2074 -0.5062 -0.4717
81765SOL     OW63286   8.303   6.981  11.688 -0.5871  0.1835  0.0478
81765SOL    HW163287   8.278   7.064  11.727  1.1391  0.6541  0.2326
81765SOL    HW263288   8.359   7.005  11.614  3.7538 -0.7435  2.7115
81766SOL     OW63289  10.058   6.890   5.112 -0.0786 -0.0649 -0.7644
81766SOL    HW163290  10.076   6.973   5.068 -0.2871  0.5947  0.3321
81766SOL    HW263291  10.055   6.825   5.042  1.5330  0.6007 -1.5098
81767SOL     OW63292  12.915  11.866   9.346 -0.0101  0.7343 -0.1562
81767SOL    HW163293  12.826  11.851   9.313  0.3570 -0.5268 -0.6093
81767SOL    HW263294  12.937  11.954   9.314 -1.1745  1.1668  0.1737
81768SOL     OW63295   0.671   6.280  13.892 -0.2279  0.3062  0.2520
81768SOL    HW163296   0.703   6.312  13.808  0.2707 -0.2532  0.2148
81768SOL    HW263297   0.622   6.200  13.870  0.9650 -0.5491  0.5870
81769SOL     OW63298   9.908  10.155   4.745 -0.5153 -0.6600 -0.2471
81769SOL    HW163299   9.920  10.205   4.825 -0.2408 -2.1970  0.7105
81769SOL    HW263300   9.910  10.063   4.773  1.7805 -1.3314 -2.2721
81770SOL     OW63301   7.914   5.525   8.534  0.0669  0.3288 -0.1782
81770SOL    HW163302   8.002   5.535   8.498  0.0021 -0.0691 -0.4450
81770SOL    HW263303   7.860   5.497   8.461 -0.1315 -0.1622  0.1487
81771SOL     OW63304  12.015   3.126   2.440  0.0152  0.4161  0.2666
81771SOL    HW163305  12.071   3.164   2.372  1.6180 -1.5669  0.3869
81771SOL    HW263306  11.953   3.196   2.462  1.9776  2.4847 -0.3980
81772SOL     OW63307   9.413   7.662   1.993 -0.0054  0.6986 -0.4835
81772SOL    HW163308   9.459   7.687   2.073  0.7073  2.1707 -1.3008
81772SOL    HW263309   9.481   7.628   1.935 -0.3651  0.4703 -0.7788
81773SOL     OW63310  10.798   5.341  13.224 -0.3866 -0.1601 -0.5375
81773SOL    HW163311  10.722   5.304  13.270 -0.3911  2.0485  1.4576
81773SOL    HW263312  10.773   5.432  13.208  1.7018  0.5554 -0.0633
81774SOL     OW63313   9.158   6.782   6.380  0.0781  0.2948  0.0703
81774SOL    HW163314   9.122   6.854   6.328  0.8508  0.7390  0.1350
81774SOL    HW263315   9.173   6.820   6.467  0.7940  0.1525  0.0156
81775SOL     OW63316  12.504   6.741   1.384  0.2802 -0.4907  0.5230
81775SOL    HW163317  12.468   6.807   1.444 -0.5140 -1.7543  1.4742
81775SOL    HW263318  12.533   6.792   1.308 -1.0567  0.8668  0.8704
81776SOL     OW63319   2.304   3.179   3.686  0.2134 -0.2151 -0.7369
81776SOL    HW163320   2.273   3.146   3.771  0.3141 -1.7518 -1.2741
81776SOL    HW263321   2.277   3.112   3.623 -0.7915  1.3767 -2.0985
81777SOL     OW63322  10.429   6.056  11.261  0.1057  0.1411  0.2201
81777SOL    HW163323  10.514   6.012  11.253 -0.3433 -0.7621  0.2197
81777SOL    HW263324  10.450   6.149  11.257  1.0415 -0.0746 -0.3205
81778SOL     OW63325   8.846   3.044  12.088 -0.4398  0.0271 -0.3837
81778SOL    HW163326   8.852   3.095  12.169 -0.5240  0.6243 -0.7469
81778SOL    HW263327   8.885   3.101  12.021 -1.5232  0.0601 -0.9961
81779SOL     OW63328   7.798   6.217   0.684 -0.5746 -0.8758 -0.1721
81779SOL    HW163329   7.773   6.302   0.648  0.6863 -0.2386  0.3961
81779SOL    HW263330   7.788   6.156   0.611  1.4449  0.2847 -1.5068
81780SOL     OW63331  11.704   1.011   1.852 -0.3755 -0.6219 -0.0322
81780SOL    HW163332  11.775   1.014   1.788 -0.7549 -0.2942 -0.4388
81780SOL    HW263333  11.720   0.930   1.901  1.1954  0.2155  0.9470
81781SOL     OW63334   1.105   0.268   7.310 -0.2561 -0.4745  0.1156
81781SOL    HW163335   1.124   0.186   7.355  2.5859 -0.8912 -1.6039
81781SOL    HW263336   1.091   0.331   7.381 -2.7710 -2.3835  1.4724
81782SOL     OW63337   4.814   0.306   8.063  0.5079  0.0005  0.1483
81782SOL    HW163338   4.846   0.263   7.983  0.3896 -0.6299  0.4278
81782SOL    HW263339   4.741   0.361   8.033 -0.0679 -0.8612 -0.0743
81783SOL     OW63340   7.295   7.916  10.096  0.1518 -0.1057  0.4051
81783SOL    HW163341   7.276   8.007  10.074 -1.9139 -0.3876  0.8520
81783SOL    HW263342   7.213   7.870  10.082  1.1282 -1.9061  0.3056
81784SOL     OW63343   6.693  10.547  10.474  1.0068 -0.3665 -0.1389
81784SOL    HW163344   6.698  10.596  10.392 -0.7228 -0.7762 -0.5277
81784SOL    HW263345   6.648  10.605  10.535 -0.6622 -1.2438 -0.4747
81785SOL     OW63346  11.192  11.260  10.799  0.4075  0.4256 -0.4812
81785SOL    HW163347  11.102  11.241  10.773  0.8593 -1.4154 -0.8858
81785SOL    HW263348  11.237  11.275  10.716  0.7894 -0.3209 -0.4231
81786SOL     OW63349   3.638   5.247   9.976 -0.3805  0.3472 -0.1253
81786SOL    HW163350   3.692   5.170   9.960 -0.8275 -0.0009  0.0478
81786SOL    HW263351   3.644   5.298   9.895  0.7394  0.6391  0.1239
81787SOL     OW63352   8.691  12.097  12.584 -0.0958 -0.0792 -0.0875
81787SOL    HW163353   8.676  12.184  12.622  0.3369  0.0326 -0.1669
81787SOL    HW263354   8.640  12.097  12.504  1.1822  0.7120 -0.9362
81788SOL     OW63355   7.173   1.124   7.914 -0.4050  0.1772  0.0038
81788SOL    HW163356   7.128   1.137   7.997  0.2106 -0.1966  0.3964
81788SOL    HW263357   7.257   1.085   7.937  1.0603  2.7859 -0.5020
81789SOL     OW63358   2.437  12.972  12.610 -0.1994 -0.1198 -0.8330
81789SOL    HW163359   2.367  13.009  12.556 -1.4707  1.4581  1.6940
81789SOL    HW263360   2.506  13.039  12.609  0.3672 -0.6929 -1.5337
81790SOL     OW63361   8.860   3.208  12.783  0.3809 -0.2535 -0.1383
81790SOL    HW163362   8.813   3.140  12.734  0.3668 -0.3253 -0.0264
81790SOL    HW263363   8.879   3.275  12.718 -1.2011  0.4738  0.1132
81791SOL     OW63364   8.552   7.140   0.355 -0.3055 -0.6332  0.2788
81791SOL    HW163365   8.626   7.201   0.355 -0.9118  0.1235 -0.2753
81791SOL    HW263366   8.548   7.107   0.266 -2.1254  1.2470 -0.4388
81792SOL     OW63367   2.860   5.308   2.333 -0.0732 -0.3789 -0.1947
81792SOL    HW163368   2.890   5.263   2.412  2.4017 -0.1560 -0.9529
81792SOL    HW263369   2.910   5.390   2.331 -2.0014  0.8758 -0.6646
81793SOL     OW63370   3.435   8.574  11.730  0.6956 -0.1762  0.3581
81793SOL    HW163371   3.404   8.576  11.821 -1.3744  1.8291 -0.3063
81793SOL    HW263372   3.395   8.650  11.689 -0.3680 -2.2558 -2.8649
81794SOL     OW63373   3.620  12.510  14.149  0.2755  0.3586  0.1691
81794SOL    HW163374   3.532  12.510  14.110  0.4258  2.2915 -0.2862
81794SOL    HW263375   3.623  12.592  14.198  1.9797  0.5410 -0.2016
81795SOL     OW63376   9.067   7.770   6.811 -0.0911  0.1756  0.0111
81795SOL    HW163377   9.010   7.756   6.886 -0.8347 -0.3656 -0.6383
81795SOL    HW263378   9.145   7.813   6.847 -0.1027 -0.7651  1.2150
81796SOL     OW63379  10.210   2.418   1.337  0.2064  0.1287 -0.5498
81796SOL    HW163380  10.273   2.359   1.296 -0.0505  1.3131 -2.7582
81796SOL    HW263381  10.241   2.506   1.315 -1.7333  0.7420 -0.9661
81797SOL     OW63382   7.065  12.312  11.975 -0.1166 -0.5297 -0.5411
81797SOL    HW163383   7.120  12.235  11.966 -1.3282 -1.3952 -0.8691
81797SOL    HW263384   7.066  12.354  11.889  1.2539  0.3500 -0.1235
81798SOL     OW63385   7.040  10.125   2.965  0.2142  0.0248  0.1006
81798SOL    HW163386   7.046  10.134   2.870  0.3497 -1.2206 -0.0227
81798SOL    HW263387   7.099  10.193   2.999  2.8968 -1.7027 -0.7886
81799SOL     OW63388   4.305   4.881   7.897 -0.3770 -0.1816 -0.3320
81799SOL    HW163389   4.271   4.924   7.975 -0.0580  0.5614 -0.5920
81799SOL    HW263390   4.367   4.816   7.930  0.4784  0.7773  0.0189
81800SOL     OW63391   0.604   1.568   7.725 -0.2914 -0.3547  0.7221
81800SOL    HW163392   0.585   1.653   7.765 -1.5540 -0.7664  1.0325
81800SOL    HW263393   0.689   1.580   7.683  0.2090  0.6302  1.9647
81801SOL     OW63394   8.046   0.098   3.286 -0.0663  0.3124  0.2698
81801SOL    HW163395   8.060   0.003   3.296  0.1687  0.2465 -0.5797
81801SOL    HW263396   8.122   0.137   3.329  0.6468  0.0605 -0.7266
81802SOL     OW63397   4.251   3.145  10.709 -0.2262  0.0547  0.4896
81802SOL    HW163398   4.248   3.184  10.797  1.2644  1.0322  0.1497
81802SOL    HW263399   4.215   3.057  10.720 -0.0041  0.1334  2.0960
81803SOL     OW63400   4.850   2.983   3.380  0.9292  0.1205  0.4553
81803SOL    HW163401   4.901   2.930   3.441  2.4942  0.2181 -0.6924
81803SOL    HW263402   4.793   2.920   3.336  1.0117 -0.2206  0.8307
81804SOL     OW63403  12.781   6.788   3.966 -0.0872  0.1950 -0.5101
81804SOL    HW163404  12.723   6.812   4.039  1.7841 -0.2990  1.2272
81804SOL    HW263405  12.744   6.706   3.932  1.1962 -1.8540  2.6121
81805SOL     OW63406   7.808   3.514   7.384 -0.0406 -0.3253  0.6774
81805SOL    HW163407   7.809   3.461   7.304 -1.0379  0.1765  0.3081
81805SOL    HW263408   7.782   3.453   7.453 -0.5529 -0.4742  0.3655
81806SOL     OW63409   0.871  11.364   8.323  0.1826 -0.0467 -0.0748
81806SOL    HW163410   0.934  11.407   8.380  1.6130 -1.6873 -0.3228
81806SOL    HW263411   0.798  11.425   8.316  1.8674  2.0629 -0.0215
81807SOL     OW63412   8.711  12.608  10.403 -0.7517  0.1161  0.1324
81807SOL    HW163413   8.762  12.527  10.400 -0.9595 -0.0073 -0.1459
81807SOL    HW263414   8.623  12.581  10.428 -0.6867  0.3261  0.5934
81808SOL     OW63415  13.391   8.249   1.088  0.5931  0.0115 -0.4306
81808SOL    HW163416  13.306   8.278   1.056 -0.5278 -0.6471  1.7566
81808SOL    HW263417  13.453   8.278   1.020 -1.2664  1.0133 -1.8102
81809SOL     OW63418  13.837   2.476   3.378  0.1565  0.4221  0.0352
81809SOL    HW163419  13.924   2.485   3.338  0.7356 -0.9287  0.9122
81809SOL    HW263420  13.788   2.551   3.345  1.9311  1.7423  0.2302
81810SOL     OW63421  11.138   3.926  12.476 -0.4106  0.0820  0.3684
81810SOL    HW163422  11.213   3.891  12.428 -0.7178  0.6337 -0.5499
81810SOL    HW263423  11.062   3.890  12.430 -0.7235  1.3245 -0.1420
81811SOL     OW63424  11.408   0.154  11.974 -0.5063  0.6722 -0.4406
81811SOL    HW163425  11.498   0.185  11.983 -0.1377 -0.8463  1.8147
81811SOL    HW263426  11.361   0.194  12.047 -0.0244 -3.6554  2.5674
81812SOL     OW63427   2.040   5.012  12.347  0.2612 -0.5671 -0.3428
81812SOL    HW163428   2.033   5.054  12.433  0.7181  0.0177 -0.5853
81812SOL    HW263429   1.955   4.971  12.334 -1.0292  2.0433 -0.9888
81813SOL     OW63430  12.648  13.508  12.142 -0.2219  0.0202 -0.8268
81813SOL    HW163431  12.679  13.423  12.173 -1.9535  0.4536  2.5277
81813SOL    HW263432  12.572  13.488  12.087 -1.4026 -0.6601  0.9640
81814SOL     OW63433   1.254  12.484  12.521  0.5637  0.5245 -0.2750
81814SOL    HW163434   1.322  12.532  12.475  0.5854  0.9138  0.1587
81814SOL    HW263435   1.301  12.432  12.586  0.6247 -0.7736 -1.3053
81815SOL     OW63436   1.846   3.280   2.747  0.1392  0.0463 -0.3099
81815SOL    HW163437   1.825   3.363   2.705  0.9808  0.6794  0.4964
81815SOL    HW263438   1.923   3.248   2.700 -0.0979 -0.2132 -0.5257
81816SOL     OW63439   5.541  12.649   7.624 -0.0167  0.4244 -0.4291
81816SOL    HW163440   5.485  12.573   7.608 -0.3362  0.8050 -1.1608
81816SOL    HW263441   5.630  12.614   7.624 -0.1278  0.1215 -1.2759
81817SOL     OW63442   9.646   0.696  13.894  0.5109 -0.3821  0.2045
81817SOL    HW163443   9.563   0.706  13.941  0.7570  0.0135  0.5652
81817SOL    HW263444   9.621   0.688  13.802  0.1353  0.9799  0.1707
81818SOL     OW63445   2.052   0.702  13.595 -0.1900  0.2021 -0.7702
81818SOL    HW163446   1.996   0.705  13.673 -1.4260  2.4019 -1.6352
81818SOL    HW263447   2.052   0.610  13.569 -0.6462 -0.3977  1.1775
81819SOL     OW63448  10.107   7.084   4.910 -0.0390  0.0523 -0.0299
81819SOL    HW163449  10.037   7.058   4.851 -1.3517  0.7460  1.1669
81819SOL    HW263450  10.152   7.156   4.864 -1.3433  0.9140 -0.0023
81820SOL     OW63451  11.779  11.968   7.981  0.3658  0.5187 -0.0538
81820SOL    HW163452  11.827  12.050   7.989  0.5514  0.5122 -1.0247
81820SOL    HW263453  11.812  11.914   8.053  1.5482  0.6493 -0.4722
81821SOL     OW63454   5.284   7.101  13.715 -0.3928  0.0212 -0.1732
81821SOL    HW163455   5.360   7.053  13.683 -0.8328 -0.4317 -0.5612
81821SOL    HW263456   5.255   7.154  13.641  0.3709  1.2734  0.3909
81822SOL     OW63457   9.824  13.157   4.083 -0.1954 -0.5163 -0.0997
81822SOL    HW163458   9.912  13.192   4.096  0.4211 -2.0822  0.1162
81822SOL    HW263459   9.828  13.112   3.999 -0.3610 -1.7941  0.5494
81823SOL     OW63460   9.641   5.141   8.480  0.5021  0.4651 -0.3551
81823SOL    HW163461   9.723   5.092   8.475 -0.7522 -1.7416 -0.6799
81823SOL    HW263462   9.582   5.084   8.529 -0.6095  2.3870  0.6457
81824SOL     OW63463   3.899  12.151   8.124 -0.0332  0.0836 -0.0063
81824SOL    HW163464   3.990  12.163   8.097 -0.1189 -0.1100 -0.3921
81824SOL    HW263465   3.852  12.223   8.082 -0.2104 -0.3748 -0.6043
81825SOL     OW63466   6.732   1.025   1.541 -0.5011 -0.1274  0.4442
81825SOL    HW163467   6.692   0.945   1.576 -1.2129 -0.6270 -1.3841
81825SOL    HW263468   6.826   1.010   1.548 -0.6230 -0.6706  1.0709
81826SOL     OW63469   0.207   7.895   7.003  0.3447 -0.2432  0.6900
81826SOL    HW163470   0.159   7.945   6.937 -0.1367 -0.2426  1.0354
81826SOL    HW263471   0.291   7.874   6.961 -0.4110 -1.2648 -0.3654
81827SOL     OW63472  11.713   0.896  11.364 -0.3519  0.4047  0.0370
81827SOL    HW163473  11.717   0.887  11.269  0.0316 -0.5942  0.1267
81827SOL    HW263474  11.805   0.897  11.392 -0.4541 -0.5971  0.4785
81828SOL     OW63475   5.045  12.771   4.873  0.1015 -0.1995  0.3077
81828SOL    HW163476   5.122  12.756   4.818  0.5696  1.5882  0.4027
81828SOL    HW263477   5.061  12.856   4.914 -2.2161  0.5529 -0.1842
81829SOL     OW63478  14.011   8.271   2.678 -0.1579  0.2204  0.8918
81829SOL    HW163479  14.030   8.216   2.754 -1.2347 -0.1967  0.8811
81829SOL    HW263480  13.932   8.231   2.639  1.1408 -0.4074 -1.2500
81830SOL     OW63481   1.399   2.285  10.652 -0.1594 -0.2171  0.0380
81830SOL    HW163482   1.417   2.255  10.741 -1.1806 -0.6471  0.1179
81830SOL    HW263483   1.305   2.302  10.652 -0.0675  0.3238 -0.8059
81831SOL     OW63484   6.326  13.979   6.724 -0.8770  0.6656 -0.5886
81831SOL    HW163485   6.256  13.969   6.660 -1.6586 -2.1977  0.5737
81831SOL    HW263486   6.298  13.927   6.799  2.0651  0.1882  0.3114
81832SOL     OW63487   6.685   2.309  12.174 -0.2946 -0.1423 -0.8261
81832SOL    HW163488   6.631   2.271  12.243 -1.2623  0.8938 -0.9881
81832SOL    HW263489   6.699   2.400  12.202  1.1950 -0.3242 -0.8950
81833SOL     OW63490   7.871  10.282  10.675 -0.2454  0.1813  0.1196
81833SOL    HW163491   7.882  10.286  10.580  2.4004  1.5315  0.3801
81833SOL    HW263492   7.785  10.320  10.691 -1.3446 -1.3692 -1.7789
81834SOL     OW63493  13.758   3.648   6.292 -0.4697 -0.0340 -0.0033
81834SOL    HW163494  13.712   3.605   6.364 -1.1856  0.5607 -0.0923
81834SOL    HW263495  13.735   3.597   6.215  0.0147 -0.4624  0.1296
81835SOL     OW63496   0.760   8.160   9.492 -0.1345  0.0442  0.1674
81835SOL    HW163497   0.785   8.076   9.454 -0.3209  0.0857 -0.0452
81835SOL    HW263498   0.705   8.138   9.567 -0.7546 -0.0078 -0.2990
81836SOL     OW63499   7.666   4.794  11.333 -0.6506  0.4718  0.0899
81836SOL    HW163500   7.624   4.871  11.294 -1.3305 -0.1608 -0.4444
81836SOL    HW263501   7.624   4.785  11.418 -0.0827  1.0900  0.4428
81837SOL     OW63502   0.914  10.804   1.518  0.4159  0.2135  0.5629
81837SOL    HW163503   0.897  10.755   1.598  1.2720  0.9806  1.2229
81837SOL    HW263504   0.988  10.758   1.477 -2.2952 -2.5222 -1.8084
81838SOL     OW63505   8.148   1.918   7.422  0.0821 -0.2003  0.1483
81838SOL    HW163506   8.211   1.860   7.379  1.1896  0.6651  0.5567
81838SOL    HW263507   8.202   1.975   7.477 -0.9033  1.6315 -0.6967
81839SOL     OW63508   8.023   3.128   9.610  0.2965  0.5971 -0.4014
81839SOL    HW163509   7.970   3.113   9.688  2.2554  1.7663  1.2526
81839SOL    HW263510   8.086   3.056   9.609 -0.4926 -0.1157 -1.6670
81840SOL     OW63511   4.028   1.515   0.983  0.9748 -0.0614  0.4932
81840SOL    HW163512   4.105   1.526   0.927  2.0937  1.5864  2.2254
81840SOL    HW263513   3.955   1.547   0.929  2.0918  1.9779  0.0944
81841SOL     OW63514   2.087  11.421   3.223  0.0793  1.1892 -0.1290
81841SOL    HW163515   2.119  11.412   3.133 -0.5859  1.5637 -0.4126
81841SOL    HW263516   2.161  11.394   3.278  0.4046  0.6981 -0.7906
81842SOL     OW63517   9.511   7.303   0.622  0.5989 -0.2163  0.3365
81842SOL    HW163518   9.538   7.346   0.541 -0.9572  0.5424  0.1791
81842SOL    HW263519   9.587   7.311   0.680  1.3958  0.0818 -0.7123
81843SOL     OW63520   4.888  11.974  13.689 -0.2438  0.5586  0.1962
81843SOL    HW163521   4.945  12.017  13.752 -0.8646 -0.3383  1.4156
81843SOL    HW263522   4.938  11.973  13.607  0.6338  1.6189  0.7092
81844SOL     OW63523   8.082   5.581   7.735  0.0406  0.2999 -0.1289
81844SOL    HW163524   8.068   5.653   7.796  0.2844  0.2854 -0.0530
81844SOL    HW263525   8.070   5.619   7.648  0.1972  0.4375 -0.0896
81845SOL     OW63526   2.197   9.662   4.791 -0.1046  0.0859 -0.1004
81845SOL    HW163527   2.262   9.696   4.852 -0.3806  0.3087  0.0725
81845SOL    HW263528   2.248   9.627   4.718  0.2464 -0.6972  0.5135
81846SOL     OW63529  11.383  10.282   2.684 -0.2171 -0.6268 -0.0844
81846SOL    HW163530  11.296  10.308   2.652  1.2187  1.2821 -2.7780
81846SOL    HW263531  11.391  10.324   2.769 -2.2106 -1.5897  0.6546
81847SOL     OW63532   0.455   3.016  11.768  0.2864 -0.1889 -0.4334
81847SOL    HW163533   0.540   3.060  11.758  0.9730 -1.1008  1.1122
81847SOL    HW263534   0.477   2.926  11.792 -1.0897 -0.0127  1.7020
81848SOL     OW63535  11.214   5.015   1.595 -0.0558  0.3579 -0.0144
81848SOL    HW163536  11.223   5.086   1.659  0.2235 -0.9674  1.4621
81848SOL    HW263537  11.178   5.058   1.518 -0.5803  1.9856  1.0729
81849SOL     OW63538   9.720   4.367  14.142 -0.3267 -0.2575  0.0816
81849SOL    HW163539   9.712   4.326  14.056 -2.4502  0.7455 -0.2891
81849SOL    HW263540   9.636   4.413  14.154  0.7968  1.5369  1.6898
81850SOL     OW63541   4.591   0.187   7.896  0.2764 -0.0796 -0.1451
81850SOL    HW163542   4.682   0.191   7.864  1.5962  0.7343  3.2792
81850SOL    HW263543   4.563   0.279   7.897 -0.5470 -0.3068 -0.9396
81851SOL     OW63544  10.011  12.231  13.198  0.2087 -0.0953 -0.0780
81851SOL    HW163545   9.950  12.304  13.206  0.5915  0.6210 -2.8333
81851SOL    HW263546   9.966  12.168  13.143  0.2909 -1.5629  1.4357
81852SOL     OW63547   0.649  11.445   7.168  0.1913  0.3536  0.1039
81852SOL    HW163548   0.709  11.509   7.131  1.0744  0.0543  0.9787
81852SOL    HW263549   0.573  11.497   7.195 -0.6423  0.5464 -2.3312
81853SOL     OW63550   6.345  13.264   2.660 -0.4809 -0.1239  0.6508
81853SOL    HW163551   6.257  13.250   2.694 -1.7766  1.0696 -1.9165
81853SOL    HW263552   6.348  13.214   2.579  1.3831 -0.4613  0.8810
81854SOL     OW63553  10.002  12.115  10.354 -1.0231  0.0585 -0.0148
81854SOL    HW163554   9.966  12.144  10.438 -3.1880 -0.8727 -0.5465
81854SOL    HW263555   9.953  12.164  10.288  1.0914  1.2607 -0.8011
81855SOL     OW63556   8.873   8.027   1.970  0.0113 -0.2906  0.5852
81855SOL    HW163557   8.852   8.108   2.018  1.3030  1.9078 -2.2669
81855SOL    HW263558   8.792   8.005   1.924 -0.8179 -1.6436  2.5276
81856SOL     OW63559   8.269   8.781  11.969  0.2231  0.4703  0.4602
81856SOL    HW163560   8.214   8.796  11.892  1.8411  1.2713 -0.6065
81856SOL    HW263561   8.268   8.864  12.016  0.7709  0.6022  0.2481
81857SOL     OW63562  10.274  12.311  11.479 -0.1923 -0.1192  0.6599
81857SOL    HW163563  10.213  12.244  11.449 -1.4687  1.1063  0.4039
81857SOL    HW263564  10.223  12.392  11.477  1.8367  1.1913 -0.8101
81858SOL     OW63565  10.329   4.266  13.689 -0.0501 -0.5111 -0.3132
81858SOL    HW163566  10.332   4.292  13.781  0.7562 -1.1584 -0.1443
81858SOL    HW263567  10.406   4.210  13.677 -0.0347 -0.2754 -1.4345
81859SOL     OW63568  13.489   5.092  12.688 -0.3535  0.4297  0.0703
81859SOL    HW163569  13.422   5.138  12.738 -1.9451 -0.3973 -1.2017
81859SOL    HW263570  13.571   5.130  12.718 -1.3076  0.9516  2.2617
81860SOL     OW63571   0.363   4.210   7.430  0.0891  0.4933 -0.3825
81860SOL    HW163572   0.457   4.229   7.425  0.6456 -0.9072  2.4875
81860SOL    HW263573   0.332   4.264   7.502 -0.7644 -0.7951  0.2547
81861SOL     OW63574  11.680   2.160  12.678  0.2047 -0.0921 -0.2484
81861SOL    HW163575  11.763   2.183  12.720 -0.6530  2.0553  0.4031
81861SOL    HW263576  11.614   2.177  12.746 -0.9624  0.5612 -1.5128
81862SOL     OW63577   4.225  12.621   7.027 -0.3685 -0.5011 -0.1502
81862SOL    HW163578   4.143  12.650   6.987 -0.3764 -0.2901  0.0174
81862SOL    HW263579   4.282  12.698   7.023  0.0207 -0.8100 -0.7836
81863SOL     OW63580  13.172  12.912   2.704 -0.1036 -0.6857  0.0954
81863SOL    HW163581  13.182  12.825   2.666  0.7898 -0.3031 -0.5879
81863SOL    HW263582  13.252  12.925   2.756  0.2820  0.1316 -0.6749
81864SOL     OW63583   3.574  14.102   0.267  0.1003  0.3438  0.1650
81864SOL    HW163584   3.516  14.114   0.192 -0.3455 -1.1552  0.2347
81864SOL    HW263585   3.627  14.182   0.270 -1.5514  1.4971 -0.2420
81865SOL     OW63586   1.236   2.237   6.757 -0.3739 -0.3024 -0.0893
81865SOL    HW163587   1.276   2.317   6.723 -0.9754  0.8983  1.8624
81865SOL    HW263588   1.213   2.187   6.679  1.9038  0.4396 -1.3354
81866SOL     OW63589   2.545   1.851   1.539  0.3118 -0.2948  0.2871
81866SOL    HW163590   2.538   1.756   1.544  0.2187 -0.4252 -1.4867
81866SOL    HW263591   2.637   1.870   1.558  0.5422 -0.8335 -0.2663
81867SOL     OW63592  10.084  11.153  11.251 -0.2531 -0.3522 -0.0761
81867SOL    HW163593  10.142  11.152  11.327 -1.9122 -2.3121  1.2541
81867SOL    HW263594  10.000  11.123  11.284 -0.9910 -1.5311 -2.7437
81868SOL     OW63595   2.253   2.043   0.526 -0.4974 -0.3185  0.5666
81868SOL    HW163596   2.337   2.039   0.572  0.8089 -1.0233 -1.7476
81868SOL    HW263597   2.224   1.952   0.521 -1.1811 -0.1269  0.9259
81869SOL     OW63598  11.270   1.313  10.578 -0.6396  0.1603 -0.2718
81869SOL    HW163599  11.177   1.304  10.597 -0.8114  0.3765 -0.9798
81869SOL    HW263600  11.287   1.407  10.584 -0.4119  0.1035  0.0659
81870SOL     OW63601   0.085   6.165  12.002  0.9879 -0.8002 -0.2504
81870SOL    HW163602   0.131   6.098  11.952  0.2104 -0.4136 -1.5303
81870SOL    HW263603  -0.002   6.168  11.964  0.7734  0.4163  0.2835
81871SOL     OW63604   9.048  13.392   1.673 -0.0400  0.3601  0.2575
81871SOL    HW163605   8.959  13.410   1.642  0.0580 -0.3772 -0.5210
81871SOL    HW263606   9.072  13.468   1.725 -1.6770 -0.0560  1.7333
81872SOL     OW63607  10.868   7.436   4.882 -0.4631 -0.6280  0.1337
81872SOL    HW163608  10.901   7.516   4.923 -2.0963  0.2110 -0.1051
81872SOL    HW263609  10.884   7.448   4.789 -0.8648 -0.4978  0.0800
81873SOL     OW63610  14.132  13.578   2.651  0.0018  0.3394 -0.1425
81873SOL    HW163611  14.159  13.669   2.643  0.3586  0.2205 -0.2854
81873SOL    HW263612  14.208  13.527   2.622  0.5007 -0.0444  1.6668
81874SOL     OW63613   1.410   2.555   0.769  0.2541  0.4653  0.0293
81874SOL    HW163614   1.470   2.531   0.839 -0.4517  1.5454  1.0323
81874SOL    HW263615   1.323   2.530   0.802 -0.3038  2.6769  0.3834
81875SOL     OW63616   3.793  13.578   3.729 -0.1300  0.6667 -0.3525
81875SOL    HW163617   3.819  13.548   3.815 -0.3027  0.6342 -0.3098
81875SOL    HW263618   3.870  13.567   3.674  0.0178  0.8064 -0.1716
81876SOL     OW63619  11.368   3.119   7.764  0.2612  0.2108  0.7521
81876SOL    HW163620  11.457   3.116   7.730 -1.1044 -0.3301 -3.3945
81876SOL    HW263621  11.351   3.032   7.798  0.6319 -0.4528 -0.6883
81877SOL     OW63622   1.276   6.258   9.001 -0.0386 -0.2598 -0.3741
81877SOL    HW163623   1.233   6.249   8.916  2.0368  0.2796 -1.5459
81877SOL    HW263624   1.264   6.350   9.025  0.8643  0.0167 -0.9499
81878SOL     OW63625   1.016   1.239  12.027  0.2737 -0.3306  0.1814
81878SOL    HW163626   1.053   1.272  11.945 -0.8652 -0.2198 -0.2936
81878SOL    HW263627   1.002   1.317  12.080 -0.1747 -0.2776 -0.0123
81879SOL     OW63628   8.800  12.600   5.227  0.3709 -0.1994  0.0534
81879SOL    HW163629   8.754  12.544   5.166 -1.2334  1.3389 -0.2386
81879SOL    HW263630   8.893  12.581   5.212 -0.0718 -1.7316 -0.9720
81880SOL     OW63631   0.576   0.247   7.962  0.4621 -0.2299  0.0386
81880SOL    HW163632   0.489   0.223   7.929 -0.5726  0.7216  1.9314
81880SOL    HW263633   0.635   0.186   7.918 -1.1810 -1.1156 -1.0731
81881SOL     OW63634   4.506   1.156  12.100  0.4839  0.2244 -0.1534
81881SOL    HW163635   4.495   1.139  12.007  0.6712  0.2192 -0.1745
81881SOL    HW263636   4.428   1.117  12.141  0.3207  0.3705 -0.3224
81882SOL     OW63637  13.183   4.958   6.885  0.4244 -0.1229 -0.4155
81882SOL    HW163638  13.244   5.031   6.876  1.1127 -0.7473 -0.9194
81882SOL    HW263639  13.225   4.899   6.947 -0.1913 -0.0300  0.0929
81883SOL     OW63640  11.224  13.705  13.091  0.6172  0.1135  0.6533
81883SOL    HW163641  11.236  13.687  13.184 -0.4664 -1.2274  0.5687
81883SOL    HW263642  11.130  13.692  13.076  0.8351 -0.0826 -0.7025
81884SOL     OW63643   4.552   9.763   6.944 -0.1980  0.0076 -0.3800
81884SOL    HW163644   4.496   9.698   6.986  1.4019 -1.5739 -0.5480
81884SOL    HW263645   4.582   9.720   6.864 -0.0773  1.4475 -1.1265
81885SOL     OW63646   0.871  11.614  13.276 -0.0188  0.5347 -0.2034
81885SOL    HW163647   0.866  11.651  13.364  1.8689 -0.8793  0.5735
81885SOL    HW263648   0.797  11.553  13.271 -1.2196  1.9481 -0.3190
81886SOL     OW63649   7.541  12.372  13.691 -0.0472 -0.0223 -0.3545
81886SOL    HW163650   7.604  12.333  13.752 -0.0909 -0.8594 -0.8305
81886SOL    HW263651   7.473  12.409  13.747 -0.8275 -2.0330  0.0869
81887SOL     OW63652   1.401   9.970   7.274  0.4160  0.0859  0.9338
81887SOL    HW163653   1.311   9.994   7.251  0.3763  0.8982  1.8434
81887SOL    HW263654   1.424  10.029   7.346  0.6079 -2.1359  2.8188
81888SOL     OW63655   6.095  12.019  11.857  0.9780 -0.0752  0.1869
81888SOL    HW163656   6.166  12.006  11.794  2.1711  1.3090  1.1856
81888SOL    HW263657   6.039  12.086  11.817  1.1811  0.0736  0.1503
81889SOL     OW63658   9.309  13.415  10.953 -0.0269 -0.0622 -0.4279
81889SOL    HW163659   9.394  13.434  10.992 -0.2355 -0.7198  0.3975
81889SOL    HW263660   9.290  13.490  10.896  2.2922 -1.1109 -2.7567
81890SOL     OW63661   3.811   1.280   8.068  0.1302  0.1273  0.0439
81890SOL    HW163662   3.721   1.293   8.040  0.1129 -0.9069 -0.4554
81890SOL    HW263663   3.852   1.233   7.995  0.6365 -0.8336  0.9158
81891SOL     OW63664   6.435   9.642  13.339  0.0863  0.1356 -0.2469
81891SOL    HW163665   6.459   9.666  13.429 -1.1536  0.9256 -0.0935
81891SOL    HW263666   6.340   9.656  13.335  0.3705  2.1199 -2.2423
81892SOL     OW63667  10.394   1.549  13.198  0.0960 -0.1885 -0.0222
81892SOL    HW163668  10.423   1.545  13.289  0.6166  0.6634 -0.1481
81892SOL    HW263669  10.345   1.631  13.192 -1.1129 -0.8952 -0.1778
81893SOL     OW63670   4.950   4.560  12.101 -0.2558  0.2640 -0.1041
81893SOL    HW163671   4.928   4.501  12.029 -0.4484 -1.6446  1.4291
81893SOL    HW263672   5.043   4.544  12.117 -0.6131 -0.6595  1.1750
81894SOL     OW63673   6.896   6.611   3.373 -0.3773  0.2330  0.2538
81894SOL    HW163674   6.968   6.584   3.316  0.0286 -0.6229  1.1466
81894SOL    HW263675   6.936   6.622   3.459 -0.7370  2.7179  0.1671
81895SOL     OW63676   3.788   9.976   4.373  0.1265  0.4139  0.4523
81895SOL    HW163677   3.828   9.962   4.458  0.3543  0.0837  0.2937
81895SOL    HW263678   3.780  10.071   4.365 -0.1518  0.4383  0.9542
81896SOL     OW63679  12.388   7.708  13.794  0.2400 -0.0919 -0.0942
81896SOL    HW163680  12.465   7.760  13.817 -0.2944  0.2060  1.1247
81896SOL    HW263681  12.408   7.620  13.828 -0.0011  0.0191  0.3442
81897SOL     OW63682  12.942   4.708   7.043  0.0442  0.1664 -0.0290
81897SOL    HW163683  12.873   4.641   7.050 -0.5190  0.6394 -0.9601
81897SOL    HW263684  12.932   4.744   6.955 -0.3099  2.1851  0.7880
81898SOL     OW63685   3.828  12.933   6.487 -0.4377 -0.3584  0.3597
81898SOL    HW163686   3.744  12.979   6.483  0.2746  1.0428  1.0017
81898SOL    HW263687   3.809  12.847   6.450 -1.5645  0.7942 -1.9687
81899SOL     OW63688   4.277  13.583   9.082  0.2812  0.3761  0.4783
81899SOL    HW163689   4.298  13.676   9.094  1.0812  0.2023  0.4924
81899SOL    HW263690   4.360  13.538   9.095 -0.2725 -0.4274  1.3198
81900SOL     OW63691   0.076   1.607  12.602  0.3971  0.7082  0.2826
81900SOL    HW163692   0.067   1.512  12.602 -0.4625  0.7526  2.3415
81900SOL    HW263693   0.015   1.637  12.534 -0.7769 -0.1103  0.9538
81901SOL     OW63694   0.602   1.705   0.805  0.3190  0.4153 -0.2872
81901SOL    HW163695   0.526   1.759   0.829  1.1472  1.1620  0.7711
81901SOL    HW263696   0.676   1.765   0.811  0.9211 -0.1004 -2.0930
81902SOL     OW63697   2.284   0.744  10.802  0.0009 -0.0741  0.1547
81902SOL    HW163698   2.240   0.658  10.802 -0.8345  0.3397  0.0691
81902SOL    HW263699   2.319   0.752  10.891  2.8416 -1.8300 -0.6676
81903SOL     OW63700   9.524  12.190   5.236 -0.3015 -0.1291  0.2907
81903SOL    HW163701   9.545  12.264   5.179  0.2790 -0.4579  0.0726
81903SOL    HW263702   9.461  12.226   5.299 -0.5999  0.3509 -0.2744
81904SOL     OW63703   5.847   8.210  13.986 -0.2039  0.3578  0.1505
81904SOL    HW163704   5.849   8.176  13.897  1.6518 -0.4428  0.4407
81904SOL    HW263705   5.755   8.213  14.009 -0.7609  0.9853 -1.9261
81905SOL     OW63706   2.659   1.432   8.957  0.0622  0.5873  0.1309
81905SOL    HW163707   2.633   1.340   8.967  1.3271  0.1237 -0.5153
81905SOL    HW263708   2.641   1.472   9.042  1.2630 -0.7367  1.0560
81906SOL     OW63709   6.133   0.289   4.983  0.0854 -0.7285  0.5214
81906SOL    HW163710   6.061   0.238   5.019  0.7945 -2.4124 -0.3280
81906SOL    HW263711   6.133   0.267   4.890  1.0011  0.1411  0.2978
81907SOL     OW63712  13.371  11.338  12.950 -0.0082 -0.4420  0.0819
81907SOL    HW163713  13.315  11.416  12.957 -0.1847 -0.3467 -1.7898
81907SOL    HW263714  13.432  11.359  12.879  0.0923 -1.9374 -0.3036
81908SOL     OW63715  11.618   5.204  12.521  0.2487  0.0676 -0.4890
81908SOL    HW163716  11.649   5.119  12.552  0.2549 -0.3085 -1.4934
81908SOL    HW263717  11.673   5.268  12.566 -0.9902 -0.3311  1.7640
81909SOL     OW63718   5.108  10.114  13.797  0.4134 -0.0543 -0.3891
81909SOL    HW163719   5.012  10.109  13.804  0.3642 -0.6405 -1.4198
81909SOL    HW263720   5.137  10.023  13.790  0.8861  0.1858 -1.9168
81910SOL     OW63721   3.007  12.709   2.145 -0.0601  0.2425 -0.1686
81910SOL    HW163722   2.968  12.736   2.061 -0.3227  1.1569  0.2316
81910SOL    HW263723   2.948  12.745   2.211  0.5883  0.2286  0.4245
81911SOL     OW63724   0.047   1.508   1.994  0.3652  0.3783 -0.2354
81911SOL    HW163725   0.010   1.473   2.075 -0.1855 -0.6586 -0.9053
81911SOL    HW263726   0.100   1.436   1.959  2.4260  1.5446  0.2802
81912SOL     OW63727   4.497  13.543   8.055 -0.7686  0.4818  0.3877
81912SOL    HW163728   4.456  13.544   7.968  0.0629  1.1053 -0.0021
81912SOL    HW263729   4.515  13.635   8.074  0.4604  0.2167  0.5440
81913SOL     OW63730   2.595   6.722   7.693 -0.2593  0.0413  0.6935
81913SOL    HW163731   2.640   6.766   7.621 -1.1137 -0.3999 -0.1438
81913SOL    HW263732   2.665   6.684   7.746  0.3986  0.6679  0.2888
81914SOL     OW63733  12.858   1.649  10.889  0.2938  0.5734 -0.5350
81914SOL    HW163734  12.880   1.739  10.865 -1.1390  1.2806  0.6031
81914SOL    HW263735  12.872   1.646  10.983 -0.8987  0.0018 -0.3614
81915SOL     OW63736   6.810  13.190   9.969  0.3050  1.0955 -0.2061
81915SOL    HW163737   6.871  13.189  10.043  1.1616  1.8796 -0.8695
81915SOL    HW263738   6.757  13.268   9.984 -2.3398 -0.8675  1.7026
81916SOL     OW63739  12.298   1.014  11.535  0.4909 -0.1196 -0.3512
81916SOL    HW163740  12.332   1.003  11.624  1.1229  1.5624 -0.3488
81916SOL    HW263741  12.253   1.098  11.537 -0.1152 -0.3991 -1.4567
81917SOL     OW63742  11.078  11.737   9.995  0.0692  0.0183 -0.3138
81917SOL    HW163743  11.133  11.814   9.989  2.4378 -1.5988 -0.8056
81917SOL    HW263744  11.078  11.715  10.089  2.2488 -1.2207 -0.5300
81918SOL     OW63745   0.791   8.997   6.307  0.2034 -0.2426 -0.6345
81918SOL    HW163746   0.733   9.068   6.281 -0.2559 -0.1708  0.5652
81918SOL    HW263747   0.756   8.965   6.390  0.4931 -1.7645 -1.0647
81919SOL     OW63748   1.801  13.858   4.029 -0.1105  0.0856  0.0059
81919SOL    HW163749   1.788  13.850   3.934  0.8517  1.0286 -0.2203
81919SOL    HW263750   1.783  13.771   4.063  1.9287 -0.9438 -1.3468
81920SOL     OW63751   4.040  12.883   7.578  0.4514  1.0400  0.0502
81920SOL    HW163752   4.035  12.794   7.613 -0.4688  0.7291 -0.8191
81920SOL    HW263753   4.124  12.886   7.531 -0.7331 -0.3392 -2.3354
81921SOL     OW63754  10.939  12.310   1.411  0.5752  0.3142 -0.3407
81921SOL    HW163755  10.886  12.288   1.487  0.4895 -0.9534 -0.7255
81921SOL    HW263756  10.903  12.392   1.379  0.6681  0.9106  1.0197
81922SOL     OW63757  12.277   5.457  13.048 -0.2807  0.3329 -0.1398
81922SOL    HW163758  12.319   5.543  13.042 -0.1739  0.1851 -2.2704
81922SOL    HW263759  12.344   5.400  13.087 -0.6317  1.3281  2.0850
81923SOL     OW63760   2.437   8.482   1.477 -0.5361  0.2441 -0.5339
81923SOL    HW163761   2.362   8.434   1.443  1.0249 -2.1388 -0.8491
81923SOL    HW263762   2.473   8.528   1.401  0.0941 -1.1319 -1.0991
81924SOL     OW63763   3.186   9.467   2.001 -0.2721 -0.0537 -0.1328
81924SOL    HW163764   3.122   9.489   1.933  0.5507  1.5529 -0.4262
81924SOL    HW263765   3.231   9.549   2.020  0.0581 -0.6280  1.8265
81925SOL     OW63766   3.642   0.990   3.410  0.3378 -0.1576 -0.2081
81925SOL    HW163767   3.692   0.909   3.399 -0.3301 -0.5397 -0.5384
81925SOL    HW263768   3.600   1.003   3.325  0.3108  0.4496 -0.1027
81926SOL     OW63769   9.534   0.930  12.548  0.5150 -0.1469 -0.1823
81926SOL    HW163770   9.478   0.864  12.588  1.0805 -0.2738  0.4235
81926SOL    HW263771   9.572   0.978  12.622  1.6692 -0.4615 -0.5407
81927SOL     OW63772  11.858  10.527   2.118 -0.8669 -0.2711  0.1443
81927SOL    HW163773  11.905  10.444   2.123  1.9854  1.2447  0.5352
81927SOL    HW263774  11.826  10.542   2.207  1.9718  0.7598  1.0962
81928SOL     OW63775  12.518   8.640   2.399  0.3017  0.7135 -0.0596
81928SOL    HW163776  12.437   8.667   2.444 -1.0850 -2.8555 -0.0965
81928SOL    HW263777  12.498   8.651   2.306 -0.3358 -0.5159 -0.0846
81929SOL     OW63778   0.896   5.552   7.211 -0.0651 -0.2598  0.1047
81929SOL    HW163779   0.876   5.637   7.249 -0.5870 -0.0115 -0.7041
81929SOL    HW263780   0.832   5.492   7.250 -0.7363  0.0340 -0.5128
81930SOL     OW63781  12.173   2.115   1.324 -0.3804 -0.3634 -0.3494
81930SOL    HW163782  12.266   2.137   1.327 -0.5521  0.3883 -0.0766
81930SOL    HW263783  12.142   2.153   1.241 -0.3204 -1.1386 -0.7279
81931SOL     OW63784   9.437   3.076   1.066 -0.3116 -0.1877  0.2240
81931SOL    HW163785   9.526   3.108   1.082 -0.6325 -0.4643  3.1702
81931SOL    HW263786   9.435   2.991   1.109 -1.6682 -0.7643 -0.9193
81932SOL     OW63787   8.945   0.230   6.302  0.5237  0.3539 -0.0260
81932SOL    HW163788   8.915   0.195   6.387  0.9332  0.1064  0.0187
81932SOL    HW263789   9.038   0.249   6.315  0.7816 -0.4279 -0.6539
81933SOL     OW63790  14.061   1.001   1.001  0.0429 -0.3831  0.1533
81933SOL    HW163791  13.976   1.007   1.043 -0.3261  1.3109 -0.7135
81933SOL    HW263792  14.045   0.954   0.919 -0.6063  1.8676 -1.1101
81934SOL     OW63793   6.556   2.398   2.927 -0.0704  0.1642  0.4069
81934SOL    HW163794   6.562   2.494   2.921  0.8197  0.0151 -1.7465
81934SOL    HW263795   6.503   2.383   3.005 -1.4191  2.4366  0.0263
81935SOL     OW63796   2.264  13.220   9.667  0.5617 -0.6159 -0.7534
81935SOL    HW163797   2.288  13.226   9.760 -3.2675  1.3237  0.3182
81935SOL    HW263798   2.319  13.286   9.624 -0.6033  1.6607  1.0217
81936SOL     OW63799  10.194  12.265   8.261  0.4015  0.1084  0.0915
81936SOL    HW163800  10.171  12.289   8.350  1.4645  1.1810  0.0992
81936SOL    HW263801  10.264  12.200   8.270  1.1798  0.9194  0.0597
81937SOL     OW63802  12.259  12.204   2.216  0.3739 -0.6133 -0.5884
81937SOL    HW163803  12.247  12.182   2.308 -0.9865  1.8059 -0.0990
81937SOL    HW263804  12.207  12.139   2.169  0.3596 -1.3414  0.4007
81938SOL     OW63805   2.623   9.804   3.206 -0.1147 -0.0025 -0.7407
81938SOL    HW163806   2.601   9.804   3.113  0.6849  1.2881 -0.9604
81938SOL    HW263807   2.577   9.880   3.242 -0.1419 -0.2913 -0.1513
81939SOL     OW63808  13.180   0.518  13.739  0.4814  0.1651  0.3310
81939SOL    HW163809  13.232   0.590  13.774 -0.5060  0.5614  1.0347
81939SOL    HW263810  13.200   0.516  13.646  0.5700  1.3041  0.3210
81940SOL     OW63811   9.897   3.030  13.279 -0.0560 -0.0320  0.6550
81940SOL    HW163812   9.915   3.075  13.196 -1.4038 -1.0280 -0.2210
81940SOL    HW263813   9.816   3.070  13.311  0.4009  0.2767  1.4679
81941SOL     OW63814   3.064   0.181  13.104  0.5954  0.2820  0.3508
81941SOL    HW163815   3.064   0.141  13.191  0.3363 -2.3092 -0.7556
81941SOL    HW263816   3.130   0.250  13.110  1.1837 -0.3717  2.3522
81942SOL     OW63817   3.755   3.590   8.381  0.2739 -0.3882 -0.0615
81942SOL    HW163818   3.690   3.579   8.311 -1.0310 -0.2924  1.0904
81942SOL    HW263819   3.703   3.605   8.460  1.7025  2.8955  0.4286
81943SOL     OW63820   6.415   9.080   1.585 -0.0487  0.1310 -0.0453
81943SOL    HW163821   6.411   9.021   1.510  0.5804  0.9833 -0.7750
81943SOL    HW263822   6.472   9.151   1.556  0.7166  0.1705  1.4709
81944SOL     OW63823  12.382   6.897   0.169 -0.2415  0.0181 -0.1326
81944SOL    HW163824  12.459   6.918   0.222 -1.0627  0.0868  1.0661
81944SOL    HW263825  12.308   6.930   0.220 -0.9966  1.1509 -1.8589
81945SOL     OW63826  14.010   5.332  13.012 -0.5631  0.4168 -0.5114
81945SOL    HW163827  14.050   5.272  12.948  1.7460  0.3294  0.9144
81945SOL    HW263828  13.990   5.276  13.087 -2.2337  0.7273 -0.6950
81946SOL     OW63829   8.241   9.881   6.489  0.7571 -0.1058 -0.7994
81946SOL    HW163830   8.297   9.938   6.542  0.7114  1.5313 -2.3985
81946SOL    HW263831   8.170   9.938   6.460  0.5283 -1.0513 -2.2106
81947SOL     OW63832   4.275  10.943   6.864 -0.0180  0.3029 -0.0154
81947SOL    HW163833   4.369  10.923   6.868 -0.4323 -1.7672  0.4270
81947SOL    HW263834   4.261  11.005   6.936  1.2613  1.9888 -1.1403
81948SOL     OW63835   9.144   7.208   6.293 -0.3256 -0.2906  0.4767
81948SOL    HW163836   9.168   7.264   6.368 -0.5996  0.6379 -0.1178
81948SOL    HW263837   9.125   7.270   6.223 -1.1892 -1.1289 -0.0358
81949SOL     OW63838  10.691   0.152   2.715 -0.4094  0.6314  0.4270
81949SOL    HW163839  10.609   0.202   2.720 -0.7939  0.1657 -0.7783
81949SOL    HW263840  10.665   0.068   2.679  0.4907  0.1800  0.8062
81950SOL     OW63841   3.760  10.795  11.023  0.3099  0.1449 -0.1900
81950SOL    HW163842   3.794  10.878  11.055  1.7759 -0.4135 -0.2062
81950SOL    HW263843   3.721  10.815  10.938  0.6330  0.8147 -0.1839
81951SOL     OW63844   7.428   9.596   2.624 -0.9943  0.6456 -0.6793
81951SOL    HW163845   7.418   9.509   2.585  1.5912  0.0134 -0.0977
81951SOL    HW263846   7.401   9.584   2.715  0.5285  0.0862 -0.2709
81952SOL     OW63847   7.971   9.672   1.483  0.6210  0.3805 -0.5410
81952SOL    HW163848   7.946   9.728   1.410 -1.8869 -0.4629 -0.4104
81952SOL    HW263849   7.996   9.589   1.442  1.7626  0.7244 -0.5692
81953SOL     OW63850   1.602   0.307   6.815 -0.6711 -0.3901  0.4208
81953SOL    HW163851   1.595   0.301   6.720 -0.6715  1.0325  0.3120
81953SOL    HW263852   1.683   0.261   6.836 -1.4273 -2.0509 -0.0858
81954SOL     OW63853   0.943   7.010   8.805  0.0182  0.2062 -0.2118
81954SOL    HW163854   0.946   7.087   8.747  1.4211  0.2763 -0.0841
81954SOL    HW263855   0.963   6.937   8.747 -0.1472  0.0750 -0.1029
81955SOL     OW63856   5.642   3.100   4.761 -0.3792 -0.1453  0.0453
81955SOL    HW163857   5.666   3.035   4.827  0.4773  2.7302  2.8081
81955SOL    HW263858   5.715   3.100   4.699 -0.3487 -1.6440  0.0422
81956SOL     OW63859   2.190  13.760   2.899 -0.2504  0.0571 -0.4416
81956SOL    HW163860   2.263  13.808   2.860 -0.4250  0.6424 -0.0776
81956SOL    HW263861   2.196  13.672   2.863  0.3268  0.2432 -0.8124
81957SOL     OW63862  11.644   5.929   2.111 -0.2506  0.2948  0.1763
81957SOL    HW163863  11.709   5.913   2.180  0.0931 -0.4521 -0.3055
81957SOL    HW263864  11.587   5.996   2.148  1.2947  1.6233  0.3016
81958SOL     OW63865   3.010  10.112   5.029  0.0308 -0.0897 -0.1576
81958SOL    HW163866   3.043  10.140   4.944  0.4808  0.3229  0.1494
81958SOL    HW263867   2.920  10.147   5.032 -0.1759 -0.5566 -0.6725
81959SOL     OW63868   2.167   3.776   3.524  0.2703 -0.0929 -0.1924
81959SOL    HW163869   2.209   3.690   3.514 -1.0450 -1.3969  3.5576
81959SOL    HW263870   2.213   3.816   3.598 -1.1721  1.0045  0.1624
81960SOL     OW63871  11.064   8.962   3.332  0.1773 -0.4287  0.2502
81960SOL    HW163872  11.082   9.044   3.378  2.2829 -0.2379 -0.7543
81960SOL    HW263873  11.076   8.894   3.398  4.2856 -0.2518 -0.0070
81961SOL     OW63874  10.288  14.081   4.768 -0.2958 -0.0059 -0.1700
81961SOL    HW163875  10.276  14.051   4.678 -1.1929  1.9835 -0.7668
81961SOL    HW263876  10.381  14.102   4.775 -0.6301  2.0690 -1.4182
81962SOL     OW63877   6.423  11.681  12.993  0.4699  0.5863 -0.6590
81962SOL    HW163878   6.341  11.729  12.983  0.2177 -0.1347 -2.2959
81962SOL    HW263879   6.402  11.611  13.054  0.2103  1.1144 -0.1242
81963SOL     OW63880   8.293   6.987   9.314  0.1705  0.4319 -0.0545
81963SOL    HW163881   8.294   6.924   9.242  1.0169  0.6519 -0.2433
81963SOL    HW263882   8.205   6.980   9.350  0.0159 -0.3157 -0.5501
81964SOL     OW63883  12.095   9.483  11.158  0.3027  0.5420 -0.4919
81964SOL    HW163884  12.176   9.431  11.156 -0.6641 -1.1834  1.2085
81964SOL    HW263885  12.043   9.450  11.085  0.1237 -0.1678 -0.0524
81965SOL     OW63886   7.470   9.040  12.884 -0.0657  0.4374  0.2555
81965SOL    HW163887   7.462   9.107  12.817 -0.3288  0.6307  0.4804
81965SOL    HW263888   7.387   8.993  12.881  0.2316 -0.0776 -0.1109
81966SOL     OW63889   2.421   0.769   1.152 -0.1386  0.4642 -0.3815
81966SOL    HW163890   2.512   0.793   1.173  0.5195 -1.8360 -0.2943
81966SOL    HW263891   2.408   0.685   1.196 -1.6648 -0.2109 -2.0091
81967SOL     OW63892   2.608  14.109   3.874 -0.6424 -0.3513  0.1983
81967SOL    HW163893   2.564  14.036   3.831 -2.1847  0.5332  0.1922
81967SOL    HW263894   2.574  14.107   3.964  1.3727 -1.2467  1.0145
81968SOL     OW63895  10.491   1.503   4.464 -0.3802  0.1872 -0.1181
81968SOL    HW163896  10.549   1.519   4.538 -2.3300 -0.4663  1.6605
81968SOL    HW263897  10.513   1.571   4.401  2.3467 -0.1132  0.3927
81969SOL     OW63898  12.643   6.623  11.632  0.2433 -0.6050 -0.3733
81969SOL    HW163899  12.589   6.546  11.644  1.2706 -1.2793  0.0165
81969SOL    HW263900  12.616   6.658  11.547 -2.4398  0.4462  0.7845
81970SOL     OW63901   1.410   5.780  13.556  0.2173  0.4605  0.2054
81970SOL    HW163902   1.469   5.855  13.564  0.6893  0.1492 -0.3056
81970SOL    HW263903   1.387   5.758  13.646 -0.1785  1.4077  0.3531
81971SOL     OW63904   7.195   9.947  12.202 -0.0150  0.6290 -0.0979
81971SOL    HW163905   7.125  10.006  12.174 -0.6125  0.0201  0.0863
81971SOL    HW263906   7.150   9.880  12.254  0.5834 -0.2432 -0.6800
81972SOL     OW63907  13.266  10.819   0.758 -0.6816  0.0576 -0.5287
81972SOL    HW163908  13.312  10.835   0.840 -1.1932 -1.4871  0.1084
81972SOL    HW263909  13.331  10.833   0.690  0.0935  0.1440  0.2165
81973SOL     OW63910   4.448   4.855   7.098 -0.3624  0.3620 -0.1570
81973SOL    HW163911   4.426   4.928   7.155 -0.7951 -0.0534  0.2191
81973SOL    HW263912   4.540   4.867   7.076 -0.2544  0.6415  0.4497
81974SOL     OW63913  11.918   8.425   8.892 -0.3026  0.7110 -0.5288
81974SOL    HW163914  11.848   8.479   8.855 -0.0360  0.3799 -1.5503
81974SOL    HW263915  11.897   8.336   8.862 -0.3337  0.3594  0.5185
81975SOL     OW63916   3.232   5.959   6.774  0.1479 -0.6142  0.3069
81975SOL    HW163917   3.187   6.023   6.719  2.4059  2.9761  2.2466
81975SOL    HW263918   3.170   5.940   6.844 -0.0879  0.5270  0.4196
81976SOL     OW63919   1.459  12.564  13.243 -0.1096 -0.4366 -0.0752
81976SOL    HW163920   1.385  12.594  13.296 -0.6874 -0.3349 -0.9091
81976SOL    HW263921   1.534  12.567  13.302 -1.0974 -2.5023  1.4178
81977SOL     OW63922   9.553  10.997   2.471 -0.6536  0.2356 -0.0683
81977SOL    HW163923   9.559  10.901   2.470  1.9804  0.3249 -1.2420
81977SOL    HW263924   9.505  11.017   2.551 -0.0914 -2.0338  0.9321
81978SOL     OW63925   5.910  10.427   5.428 -0.2396  0.3946 -0.7361
81978SOL    HW163926   5.978  10.414   5.494 -1.2430 -1.5591  0.0014
81978SOL    HW263927   5.861  10.503   5.458 -0.2631 -0.0653  0.4296
81979SOL     OW63928  11.044  10.864   8.356  0.6071  0.0259  0.2864
81979SOL    HW163929  11.122  10.811   8.342  0.9779  0.5124  0.4833
81979SOL    HW263930  11.055  10.900   8.444 -1.6581 -2.9483  1.9640
81980SOL     OW63931   7.056  11.023  11.384 -0.1531 -0.1904  0.2611
81980SOL    HW163932   6.985  11.055  11.439 -0.6253 -0.5702 -0.1192
81980SOL    HW263933   7.012  10.978  11.312  0.4778 -2.0721  0.9913
81981SOL     OW63934   4.923  10.326  14.001 -0.4665  0.1248 -0.1133
81981SOL    HW163935   4.864  10.399  13.979  0.4062  0.8172 -0.2345
81981SOL    HW263936   4.986  10.365  14.062 -0.0884 -0.5891 -0.0448
81982SOL     OW63937   1.972   7.939   5.779  0.2337 -0.3303  0.2966
81982SOL    HW163938   2.020   7.934   5.862 -0.1488 -1.5570  0.4808
81982SOL    HW263939   1.915   8.016   5.789  1.0537  0.2351  0.6818
81983SOL     OW63940   6.954   1.349   9.313 -0.0568 -0.5180 -0.0516
81983SOL    HW163941   6.930   1.328   9.222 -1.7498 -1.4645  0.5653
81983SOL    HW263942   6.961   1.263   9.356  0.8440 -0.0829  0.6957
81984SOL     OW63943   1.971   5.644   2.728 -0.9699  0.1199 -0.2103
81984SOL    HW163944   2.061   5.637   2.759 -1.8030  0.2900  2.4959
81984SOL    HW263945   1.939   5.727   2.765 -1.9004  0.6917 -2.1619
81985SOL     OW63946   9.773   2.600   0.656 -0.3450 -0.5515 -0.2943
81985SOL    HW163947   9.840   2.536   0.680 -1.1736 -1.2870  0.1015
81985SOL    HW263948   9.812   2.685   0.678 -0.0799 -1.0467  1.2479
81986SOL     OW63949   3.074   2.906   0.440  0.5684 -0.7569  0.1276
81986SOL    HW163950   2.990   2.952   0.441  1.3766  0.7891  0.2753
81986SOL    HW263951   3.055   2.821   0.479 -1.0339 -0.6532 -0.3472
81987SOL     OW63952  12.245  10.822  12.696  0.6530 -0.0996  0.2070
81987SOL    HW163953  12.230  10.793  12.606  0.6739 -1.7601  0.7069
81987SOL    HW263954  12.285  10.909  12.686 -0.8475  0.4719 -1.3254
81988SOL     OW63955   0.032   6.804  13.294  0.6235  0.3666 -0.1797
81988SOL    HW163956   0.105   6.821  13.234  1.6151 -0.7701  0.6520
81988SOL    HW263957   0.066   6.740  13.356 -1.5158 -1.2068 -0.5247
81989SOL     OW63958  11.325  12.297  13.653 -0.0066 -0.4931 -0.0482
81989SOL    HW163959  11.283  12.219  13.692 -0.8965  0.3093  0.6385
81989SOL    HW263960  11.261  12.330  13.590  0.8283 -0.9311 -1.1477
81990SOL     OW63961   8.512  12.140   0.705 -0.3809 -0.5443  0.0048
81990SOL    HW163962   8.498  12.234   0.698 -0.6713 -0.6158 -0.4048
81990SOL    HW263963   8.476  12.116   0.790 -0.4468 -0.3146  0.0417
81991SOL     OW63964  12.807   8.114   1.741 -0.1043 -0.0585 -0.1658
81991SOL    HW163965  12.734   8.173   1.763  1.0024  2.1386 -1.9737
81991SOL    HW263966  12.874   8.134   1.806  0.3220  0.8524 -0.8590
81992SOL     OW63967   2.869   3.218  12.338  0.0552  0.0634  0.0186
81992SOL    HW163968   2.847   3.291  12.281  2.2505  0.0120 -0.9863
81992SOL    HW263969   2.793   3.209  12.396 -0.9736  2.0240 -0.9372
81993SOL     OW63970   5.627   1.027   8.324 -0.1871  0.1493 -0.0451
81993SOL    HW163971   5.681   0.979   8.261 -1.2288  1.1525 -1.7631
81993SOL    HW263972   5.556   0.966   8.346  0.3411 -0.3127  0.4437
81994SOL     OW63973  13.490   4.877   2.008 -0.1974  0.2221 -0.2483
81994SOL    HW163974  13.569   4.838   1.970 -1.8289 -1.3401 -2.2947
81994SOL    HW263975  13.445   4.804   2.049 -0.5007  1.1446  1.1009
81995SOL     OW63976   3.205   8.122   2.749 -0.4070 -0.4559 -0.1767
81995SOL    HW163977   3.233   8.129   2.658 -1.5141 -2.3701 -0.7163
81995SOL    HW263978   3.135   8.187   2.758  1.4889  1.6819  0.1484
81996SOL     OW63979  12.719   5.980  11.850 -0.1271 -0.7923  0.4831
81996SOL    HW163980  12.726   6.067  11.812  1.0546 -1.8612 -1.9680
81996SOL    HW263981  12.625   5.959  11.845 -0.5330  0.5434  1.7586
81997SOL     OW63982   8.347   9.376   6.444  0.1322  0.2053 -0.1416
81997SOL    HW163983   8.298   9.444   6.489  0.0227 -0.2778  0.4774
81997SOL    HW263984   8.364   9.310   6.511  0.5538 -0.2064 -0.6467
81998SOL     OW63985  11.494   3.411  12.793  0.6099 -0.6150  0.0188
81998SOL    HW163986  11.453   3.325  12.784 -1.4795  0.3147  0.2226
81998SOL    HW263987  11.468   3.459  12.715  1.2679  0.0521  0.1985
81999SOL     OW63988   3.123   7.594   7.970  0.1032 -0.0182  0.1603
81999SOL    HW163989   3.121   7.536   7.894  1.9876 -0.3287  0.3049
81999SOL    HW263990   3.202   7.648   7.958  1.1251 -0.8800  2.4400
82000SOL     OW63991   2.353   9.381   8.042 -0.1963  0.4595 -0.2732
82000SOL    HW163992   2.350   9.467   8.000  0.7503  0.7159  0.1584
82000SOL    HW263993   2.446   9.358   8.045 -0.5188 -1.4170 -2.0307
82001SOL     OW63994   6.370   8.554  10.261  0.0793 -0.6828 -0.3667
82001SOL    HW163995   6.392   8.637  10.302  1.4569 -0.6404 -1.1378
82001SOL    HW263996   6.285   8.570  10.219  0.5108  0.4678 -0.8447
82002SOL     OW63997  12.557   8.494   4.653  0.2900  0.3483  0.0827
82002SOL    HW163998  12.522   8.541   4.729 -1.7925 -0.7771 -0.0902
82002SOL    HW263999  12.528   8.545   4.577 -2.5220 -1.3625 -0.1366
82003SOL     OW64000   6.618   0.625   8.473  0.0638 -0.2441 -0.1676
82003SOL    HW164001   6.533   0.582   8.484  0.3673 -1.1718 -1.2994
82003SOL    HW264002   6.626   0.638   8.379  1.2394 -0.3036 -0.0837
82004SOL     OW64003   1.857   6.821   1.942 -0.4318  0.2677  0.2460
82004SOL    HW164004   1.791   6.886   1.917 -0.3465 -0.1247 -1.1234
82004SOL    HW264005   1.938   6.853   1.903 -0.6385 -1.2724 -1.6542
82005SOL     OW64006   6.582   9.868   3.766  0.0937 -0.2360 -0.2019
82005SOL    HW164007   6.579   9.955   3.806 -1.0912 -0.1690 -0.4065
82005SOL    HW264008   6.622   9.813   3.834 -1.5190 -0.0427  0.9732
82006SOL     OW64009   9.361  12.314   0.003  0.1149  0.4219  0.2060
82006SOL    HW164010   9.355  12.242   0.066  0.8202 -0.3973 -0.6278
82006SOL    HW264011   9.388  12.389   0.056 -0.1906 -0.0256  1.0246
82007SOL     OW64012   2.127   7.547   6.316  0.4995 -0.3078  0.4797
82007SOL    HW164013   2.154   7.456   6.333 -0.2931 -0.5105  0.6814
82007SOL    HW264014   2.066   7.567   6.386  0.2824  0.2107  0.1456
82008SOL     OW64015   7.386   2.906   9.996 -0.0951  0.2082  0.2703
82008SOL    HW164016   7.396   2.887   9.902 -0.3371 -0.6207  0.4128
82008SOL    HW264017   7.308   2.859  10.022 -0.5733  1.2025  0.6931
82009SOL     OW64018   4.445   3.711  11.088  0.6188 -0.2989  0.4151
82009SOL    HW164019   4.457   3.646  11.019  0.9539  2.2691 -2.1553
82009SOL    HW264020   4.532   3.748  11.103  0.1827  0.7391  0.5263
82010SOL     OW64021   9.103   2.040   6.515  0.1903  0.0823  0.0380
82010SOL    HW164022   9.097   2.106   6.445  1.7463 -0.9360 -1.1139
82010SOL    HW264023   9.190   2.051   6.551  0.2876 -1.0090  0.1673
82011SOL     OW64024  13.590  10.311   0.268 -0.3525  0.1106  0.0323
82011SOL    HW164025  13.666  10.254   0.254 -1.6506 -1.6726 -0.1294
82011SOL    HW264026  13.585  10.363   0.188  2.2243  2.2688  1.1147
82012SOL     OW64027   8.167   5.382  12.210  0.5442 -0.0063 -0.7042
82012SOL    HW164028   8.114   5.362  12.288 -0.1239 -0.0740 -1.1651
82012SOL    HW264029   8.208   5.299  12.186  2.2929  0.4029  0.6801
82013SOL     OW64030   8.091   8.212   3.241 -0.2501 -0.1855 -0.1936
82013SOL    HW164031   8.137   8.129   3.251 -0.7886 -0.5443 -0.6561
82013SOL    HW264032   8.030   8.198   3.169 -1.1777  0.2425  0.4837
82014SOL     OW64033   7.307   4.171   3.322 -0.0863 -0.0412  0.1042
82014SOL    HW164034   7.353   4.139   3.400  0.9532  0.2615 -0.3687
82014SOL    HW264035   7.226   4.210   3.356  0.3184  0.0174  1.0286
82015SOL     OW64036   2.401   1.453   8.476 -0.3715  0.1184 -0.1976
82015SOL    HW164037   2.377   1.530   8.527 -1.1792  0.4206 -1.0213
82015SOL    HW264038   2.484   1.424   8.516  0.4716  1.9630 -0.4793
82016SOL     OW64039   7.891   9.401   3.496  0.0433 -0.5864  0.1749
82016SOL    HW164040   7.938   9.476   3.460 -0.3306  0.0873  1.0370
82016SOL    HW264041   7.801   9.432   3.507 -0.0235 -1.0179  0.9261
82017SOL     OW64042  10.376   3.329   4.456 -0.3343 -0.1010  0.0309
82017SOL    HW164043  10.448   3.312   4.395 -0.2018  1.5545 -0.3382
82017SOL    HW264044  10.418   3.335   4.542 -0.4670 -2.0493  0.2658
82018SOL     OW64045   2.024   1.715  12.294  0.5956 -0.7466 -0.1315
82018SOL    HW164046   1.941   1.711  12.342 -1.0759 -2.4251 -2.9116
82018SOL    HW264047   2.069   1.633  12.317  0.8232 -0.5274  0.2205
82019SOL     OW64048   3.977   8.012   8.077 -0.8380 -0.5542  0.2707
82019SOL    HW164049   3.958   8.098   8.039  2.2117 -0.4106 -1.1611
82019SOL    HW264050   3.898   7.960   8.058 -1.5188  1.0398 -1.5761
82020SOL     OW64051  12.708   2.163   8.846  0.2225 -0.2606 -0.4623
82020SOL    HW164052  12.678   2.080   8.884  0.9134 -1.2324 -1.9320
82020SOL    HW264053  12.758   2.204   8.916  1.6940 -2.1169 -0.3249
82021SOL     OW64054  12.857   7.574   4.277  0.5590  0.0994  0.5096
82021SOL    HW164055  12.843   7.532   4.362  0.2633 -0.3123  0.2603
82021SOL    HW264056  12.922   7.643   4.294  1.6770 -0.9822  0.7742
82022SOL     OW64057   6.588  12.909  11.942  0.2075 -0.1539 -0.7124
82022SOL    HW164058   6.624  12.829  11.904  1.1438  0.1883 -0.5804
82022SOL    HW264059   6.519  12.936  11.881 -1.6249 -2.2046  0.3325
82023SOL     OW64060   0.378   9.666   7.605 -0.3480  0.2093  0.2134
82023SOL    HW164061   0.393   9.611   7.682  1.6106 -0.7847 -0.7793
82023SOL    HW264062   0.401   9.609   7.531  0.8509  2.0751 -0.9290
82024SOL     OW64063  12.012  12.844  13.208 -0.2995 -0.3598  0.1529
82024SOL    HW164064  11.996  12.842  13.303 -0.2572  1.3323  0.2234
82024SOL    HW264065  12.093  12.795  13.196 -0.6815 -1.1994  0.9025
82025SOL     OW64066  13.762   8.220  12.757  0.1732 -0.0312 -0.0098
82025SOL    HW164067  13.757   8.281  12.684  0.4095 -0.8724 -0.7438
82025SOL    HW264068  13.831   8.158  12.732  0.3835 -0.2319  1.0035
82026SOL     OW64069   1.434   5.330   1.084  0.5838 -0.5758 -0.7563
82026SOL    HW164070   1.464   5.417   1.056  1.3511 -0.6471 -0.1997
82026SOL    HW264071   1.406   5.342   1.175  0.2475 -0.8157 -0.8263
82027SOL     OW64072   1.284   9.317   2.848  0.4354 -0.2067 -0.0104
82027SOL    HW164073   1.367   9.284   2.882  0.7994 -0.5881 -1.2315
82027SOL    HW264074   1.219   9.290   2.913  1.2386 -0.0454  0.8730
82028SOL     OW64075   3.720   0.355   7.437 -0.0837 -0.0908 -0.0981
82028SOL    HW164076   3.798   0.332   7.488  0.3309 -1.6339 -1.3363
82028SOL    HW264077   3.665   0.276   7.440 -0.7484  0.3358 -0.7391
82029SOL     OW64078  11.082   0.924   3.447 -0.2606 -0.0730 -1.1166
82029SOL    HW164079  11.030   0.845   3.465 -1.9113  1.0146 -0.9330
82029SOL    HW264080  11.066   0.941   3.354  1.1480 -0.6588 -1.4938
82030SOL     OW64081   8.493  12.475  11.115 -0.0063 -0.6570 -0.1274
82030SOL    HW164082   8.507  12.471  11.210 -0.9183 -1.2078 -0.0013
82030SOL    HW264083   8.442  12.554  11.101  1.4936  0.2956 -0.3595
82031SOL     OW64084   1.244   8.114  10.101  0.0072 -0.0629 -1.0798
82031SOL    HW164085   1.309   8.184  10.106  0.3183 -0.4085 -0.1238
82031SOL    HW264086   1.279   8.053  10.035  0.1817  0.2194 -1.2514
82032SOL     OW64087   4.570   7.377  13.836  0.1076  0.5231  0.0717
82032SOL    HW164088   4.543   7.420  13.755 -1.0292 -0.7317 -0.2384
82032SOL    HW264089   4.553   7.442  13.904 -0.4369  1.0031 -0.5099
82033SOL     OW64090  11.389   5.964   9.491 -0.2280 -0.0964 -0.7568
82033SOL    HW164091  11.365   5.943   9.401  0.1678  0.4354 -0.9916
82033SOL    HW264092  11.321   6.027   9.519 -1.5724 -1.8152  0.0353
82034SOL     OW64093   7.962  10.605   1.698  0.2042  0.4177 -0.1868
82034SOL    HW164094   8.055  10.616   1.718  0.5149  0.1734 -1.4224
82034SOL    HW264095   7.961  10.547   1.621 -0.9108  1.2814 -0.8431
82035SOL     OW64096  10.351   5.864   4.038  0.1621  0.0993  0.5200
82035SOL    HW164097  10.285   5.929   4.063 -0.1161  1.0739 -2.3547
82035SOL    HW264098  10.352   5.866   3.942  2.2607 -2.0664  0.3888
82036SOL     OW64099   3.415   0.556  14.155  0.6485 -0.0244 -0.4660
82036SOL    HW164100   3.360   0.616  14.105  1.2387  0.1613 -0.8982
82036SOL    HW264101   3.378   0.469  14.138  0.1119  0.1608 -0.2558
82037SOL     OW64102   4.846   6.796  12.666 -0.8382 -0.1275  0.7993
82037SOL    HW164103   4.938   6.775  12.679 -1.2131 -0.8077  2.7661
82037SOL    HW264104   4.832   6.786  12.572  1.2333  0.6644  0.3550
82038SOL     OW64105   9.953   3.510   4.417 -0.1251 -0.6489 -0.3718
82038SOL    HW164106  10.044   3.530   4.395 -0.0393 -0.1952  0.3488
82038SOL    HW264107   9.918   3.469   4.339  0.5470 -0.3259 -0.8548
82039SOL     OW64108   4.367   3.793   1.198  0.1025  0.3919  1.3845
82039SOL    HW164109   4.319   3.875   1.187 -2.0822 -0.8938  0.6990
82039SOL    HW264110   4.396   3.771   1.109  1.4696  0.8163  1.6960
82040SOL     OW64111  11.922   2.446   4.301 -0.2219 -0.5963 -0.2417
82040SOL    HW164112  11.923   2.528   4.251 -1.2963 -0.1166  0.4837
82040SOL    HW264113  11.989   2.392   4.260  2.1862  1.4800  0.7389
82041SOL     OW64114   2.206   8.817   1.203  0.1778 -0.2438 -0.4550
82041SOL    HW164115   2.150   8.780   1.135 -0.1049 -1.6917  0.5123
82041SOL    HW264116   2.147   8.842   1.273  0.5248  0.6204 -0.4588
82042SOL     OW64117   0.975   8.341   7.247  0.1433 -0.4190  0.6898
82042SOL    HW164118   0.896   8.303   7.209  0.7752  0.6636 -1.8881
82042SOL    HW264119   1.047   8.291   7.207  0.8623  1.1756 -0.0693
82043SOL     OW64120   6.219   1.023   7.447  0.3817 -0.8078  0.2020
82043SOL    HW164121   6.254   1.013   7.535 -0.8412  1.5931  1.0135
82043SOL    HW264122   6.280   1.082   7.403 -0.1839 -0.2594  0.1464
82044SOL     OW64123  12.499   4.596   2.835  0.5747 -0.4285 -0.2280
82044SOL    HW164124  12.510   4.507   2.802  3.4765 -0.0919 -0.5061
82044SOL    HW264125  12.490   4.585   2.930  1.2998 -1.0369 -0.2167
82045SOL     OW64126   5.479   7.039   4.523 -0.3646  0.4439 -0.3650
82045SOL    HW164127   5.439   6.961   4.483 -0.4798  0.2911  0.0458
82045SOL    HW264128   5.565   7.046   4.481  0.2105 -0.6988  0.5870
82046SOL     OW64129   9.422   1.601   2.647 -0.3883 -0.2681 -0.3418
82046SOL    HW164130   9.515   1.612   2.666  0.3190 -1.9977 -2.4116
82046SOL    HW264131   9.415   1.512   2.613 -3.1798 -0.9620  1.6710
82047SOL     OW64132   4.439   8.673   5.650 -0.2449  0.0044  0.5687
82047SOL    HW164133   4.515   8.633   5.608 -0.4141  2.6134 -2.6494
82047SOL    HW264134   4.373   8.604   5.652  0.4060 -0.8123 -1.9752
82048SOL     OW64135   3.740  10.310   7.577 -0.7061 -0.0920  0.7008
82048SOL    HW164136   3.701  10.365   7.509  1.3758  1.0447  0.3618
82048SOL    HW264137   3.774  10.234   7.530 -0.7309 -0.1149  0.7192
82049SOL     OW64138  11.066   6.681   9.341 -0.2000  0.1041 -1.0613
82049SOL    HW164139  11.014   6.601   9.347 -1.8958  0.9442 -2.9955
82049SOL    HW264140  11.019   6.744   9.395  0.7807 -0.0139 -0.0466
82050SOL     OW64141  10.938   2.821  12.510  0.7805  0.1079 -0.1110
82050SOL    HW164142  10.916   2.901  12.461  0.8338 -0.5547 -1.2535
82050SOL    HW264143  10.859   2.767  12.504  0.6312  0.1858  0.9335
82051SOL     OW64144   4.491   8.849   4.467  0.0931 -0.2128  0.0474
82051SOL    HW164145   4.546   8.851   4.389  0.9460  0.8309  0.6660
82051SOL    HW264146   4.515   8.927   4.516 -2.4367  0.6675  0.0116
82052SOL     OW64147   9.130   5.763   2.944 -0.0813 -0.2384  0.1925
82052SOL    HW164148   9.061   5.697   2.935 -1.9459  1.8008 -1.6212
82052SOL    HW264149   9.150   5.789   2.854  4.3361 -1.8309  0.4493
82053SOL     OW64150   4.477   8.342   9.373  0.2088 -0.1400  0.0488
82053SOL    HW164151   4.540   8.274   9.397 -0.2528  0.0955  2.0371
82053SOL    HW264152   4.495   8.415   9.432 -0.6907  0.6765 -0.6318
82054SOL     OW64153   3.710   1.335   7.111  0.1292 -0.0568  0.0280
82054SOL    HW164154   3.802   1.311   7.101  0.2570  0.1338  0.7027
82054SOL    HW264155   3.661   1.257   7.083  0.4722  0.1163 -1.0949
82055SOL     OW64156  12.993   5.299  13.847  0.1715 -0.1967  0.1686
82055SOL    HW164157  12.958   5.386  13.864  1.9095  0.3580  1.0829
82055SOL    HW264158  13.062   5.313  13.783 -0.9907 -1.2291 -1.3674
82056SOL     OW64159   0.670   5.976  10.157 -0.2609  0.6377 -1.1531
82056SOL    HW164160   0.698   5.897  10.111 -1.4513  0.2947 -1.3304
82056SOL    HW264161   0.585   5.952  10.196  0.0347  1.3774 -0.0040
82057SOL     OW64162  12.642  12.573   2.103 -0.3623 -0.0253 -0.4655
82057SOL    HW164163  12.559  12.525   2.096  0.9198 -2.1932 -2.2336
82057SOL    HW264164  12.682  12.538   2.183 -0.7424  0.4078 -0.0730
82058SOL     OW64165   0.937   5.055   6.049 -0.0892 -0.3419  0.1217
82058SOL    HW164166   0.963   5.019   6.134 -1.6422 -0.1722  0.7117
82058SOL    HW264167   1.007   5.116   6.025  1.1314 -1.5440  0.5205
82059SOL     OW64168   8.596  11.726   6.979  0.3461  0.2872 -0.4222
82059SOL    HW164169   8.535  11.706   7.049  1.7535 -0.8547  0.5531
82059SOL    HW264170   8.648  11.646   6.969  2.0523  1.3894 -0.7975
82060SOL     OW64171   3.447  13.103   2.482 -0.1726 -0.3805  0.4780
82060SOL    HW164172   3.499  13.041   2.431 -0.4286  1.1262 -1.7834
82060SOL    HW264173   3.458  13.075   2.572  0.4135 -3.1445 -0.3529
82061SOL     OW64174   1.211  12.819  12.546  0.1963 -0.3873  0.3410
82061SOL    HW164175   1.225  12.876  12.622 -1.3773 -0.8843  1.0490
82061SOL    HW264176   1.245  12.734  12.575  2.4340  0.0848 -0.6718
82062SOL     OW64177   3.507   7.356  13.213  0.4044 -0.1858  0.4545
82062SOL    HW164178   3.454   7.434  13.229 -0.2357  0.2850 -3.1061
82062SOL    HW264179   3.480   7.326  13.126  1.5837 -3.6527  1.1068
82063SOL     OW64180  13.687   9.145   5.202  0.7416  0.3336  0.3206
82063SOL    HW164181  13.682   9.049   5.193 -2.5844  0.3641  0.4167
82063SOL    HW264182  13.683   9.177   5.113  2.8330  0.4531  0.2208
82064SOL     OW64183   6.693   6.916  10.483 -0.5599  0.1606  0.2573
82064SOL    HW164184   6.763   6.900  10.420 -1.4384 -1.1563 -0.4241
82064SOL    HW264185   6.738   6.952  10.560  0.6949  0.5030 -0.6126
82065SOL     OW64186   0.386   7.761  14.154 -0.2537 -0.0874 -0.3150
82065SOL    HW164187   0.363   7.831  14.217  0.6908 -0.9088  1.0025
82065SOL    HW264188   0.324   7.691  14.173 -0.0766 -0.2717 -0.4141
82066SOL     OW64189   4.789  13.465   9.060  0.0311 -0.5321  0.3686
82066SOL    HW164190   4.855  13.397   9.069  0.5029 -0.0925  0.2495
82066SOL    HW264191   4.834  13.538   9.018 -0.9375 -0.8318 -1.2987
82067SOL     OW64192   5.156   0.210  11.327 -0.3740 -0.2648  0.2971
82067SOL    HW164193   5.210   0.258  11.389  0.7652  0.7527 -1.4082
82067SOL    HW264194   5.177   0.118  11.343  0.4211  0.0222  0.9465
82068SOL     OW64195  10.386   2.041   5.273 -0.0707  0.1670 -0.1052
82068SOL    HW164196  10.396   2.054   5.367 -0.6972 -0.2602  0.0308
82068SOL    HW264197  10.434   2.113   5.232  0.8998 -0.0996  0.5253
82069SOL     OW64198   7.698  10.397   0.629  0.4695 -0.2125  0.3258
82069SOL    HW164199   7.641  10.444   0.568  1.5888  0.5721 -0.1619
82069SOL    HW264200   7.655  10.405   0.714 -0.4162 -0.1104 -0.1271
82070SOL     OW64201  11.685   1.386  10.556 -0.8260  0.1143 -0.3477
82070SOL    HW164202  11.611   1.325  10.562 -0.7872 -0.2324 -2.6954
82070SOL    HW264203  11.761   1.330  10.544 -0.1746  0.4980  1.5861
82071SOL     OW64204   1.083   0.110   2.287 -0.3138 -0.2354  0.1266
82071SOL    HW164205   1.145   0.126   2.215 -0.5922 -0.7983 -0.2438
82071SOL    HW264206   0.997   0.124   2.247 -0.4941 -1.1298  0.2013
82072SOL     OW64207  11.638  10.127  13.755 -0.7544 -0.3921 -0.0085
82072SOL    HW164208  11.725  10.131  13.794 -1.3222 -2.7894  1.6992
82072SOL    HW264209  11.652  10.090  13.668 -0.1645 -2.0600  0.7673
82073SOL     OW64210   2.824  11.510  11.336 -0.0137 -0.3970 -0.4893
82073SOL    HW164211   2.914  11.486  11.316  0.3053  0.1578  0.2280
82073SOL    HW264212   2.771  11.449  11.285  0.7621 -0.8212 -0.8083
82074SOL     OW64213   3.432  10.685   4.757  0.1534 -0.8128  0.0614
82074SOL    HW164214   3.498  10.615   4.746  0.8044 -0.3697  0.9381
82074SOL    HW264215   3.440  10.738   4.679 -0.9328 -2.1707 -1.0201
82075SOL     OW64216   2.697   7.854   4.071  0.1440 -0.2573  0.2358
82075SOL    HW164217   2.717   7.763   4.092 -3.8011 -0.7566  3.0895
82075SOL    HW264218   2.607   7.852   4.039  0.2175  2.5672 -0.4145
82076SOL     OW64219   7.909   7.600  12.453  0.3216  0.1718  0.4916
82076SOL    HW164220   7.884   7.561  12.369  0.3922  0.1868  0.4638
82076SOL    HW264221   7.956   7.530  12.499 -0.3226 -0.0649  0.8045
82077SOL     OW64222   9.115   9.679  10.223 -0.2139 -0.0434  0.1907
82077SOL    HW164223   9.136   9.742  10.154 -0.3483  0.0881  0.2681
82077SOL    HW264224   9.027   9.702  10.251 -0.3828 -0.4690  0.0073
82078SOL     OW64225   7.526   1.239  13.239  0.5651 -0.6218 -0.0309
82078SOL    HW164226   7.567   1.166  13.285 -2.7174 -0.7231  3.1967
82078SOL    HW264227   7.466   1.198  13.176 -0.6441 -0.7859  1.1801
82079SOL     OW64228   9.080   9.819   7.527  0.1660 -0.5942 -0.1876
82079SOL    HW164229   9.063   9.798   7.435 -0.8427  1.4454 -0.5123
82079SOL    HW264230   9.042   9.746   7.576  1.4405 -2.1265 -1.3709
82080SOL     OW64231   3.526  10.148  11.026  0.3711  0.4251  0.3297
82080SOL    HW164232   3.447  10.093  11.029  0.3865  0.4061  0.3972
82080SOL    HW264233   3.507  10.214  10.959  0.5574  0.0300 -0.1138
82081SOL     OW64234   4.048   1.256   3.047  0.2882 -0.4899 -0.2535
82081SOL    HW164235   4.022   1.246   3.139  2.0678 -1.1865  0.2235
82081SOL    HW264236   4.128   1.204   3.039  1.0563  0.8277 -1.8030
82082SOL     OW64237   2.806  12.408   4.707 -0.4801  0.0435  0.3210
82082SOL    HW164238   2.806  12.437   4.615 -2.6121  0.7856  0.5096
82082SOL    HW264239   2.870  12.465   4.750  1.5314 -1.1648 -0.8779
82083SOL     OW64240  12.418  10.417  12.478 -0.4824  0.3105  0.8886
82083SOL    HW164241  12.480  10.380  12.541 -0.4814 -0.8499  0.2449
82083SOL    HW264242  12.451  10.505  12.460  1.1761 -0.3945  0.2965
82084SOL     OW64243   8.913  13.916   2.850  0.0324  0.0843  0.0710
82084SOL    HW164244   8.998  13.905   2.807 -0.9411 -0.4680 -1.8396
82084SOL    HW264245   8.914  14.006   2.883  0.6707  0.7124 -1.5568
82085SOL     OW64246   9.897  11.043   2.709  0.7571  0.4276 -0.5043
82085SOL    HW164247   9.908  11.041   2.804  1.2970 -0.8555 -0.5729
82085SOL    HW264248   9.808  11.012   2.694  0.8007  0.2724 -0.4380
82086SOL     OW64249   0.696   1.719  11.497  0.1692  0.0281  0.2459
82086SOL    HW164250   0.774   1.730  11.550 -0.3577  0.9030  0.8688
82086SOL    HW264251   0.678   1.806  11.461 -1.0456  0.0858  0.9075
82087SOL     OW64252   7.650  11.553   9.685  0.7145 -0.2602  0.6288
82087SOL    HW164253   7.571  11.601   9.707  0.4409 -1.1323  1.6132
82087SOL    HW264254   7.654  11.556   9.590 -1.1339 -1.1987  0.4948
82088SOL     OW64255   8.718   0.337  12.993 -0.0240  0.8899  0.6259
82088SOL    HW164256   8.703   0.264  13.053 -1.4279  0.7284  0.1050
82088SOL    HW264257   8.770   0.300  12.922 -0.9585  0.3124  0.2308
82089SOL     OW64258   7.797  13.785  11.194 -0.7166  0.4610 -0.1323
82089SOL    HW164259   7.860  13.835  11.141 -2.0596  0.1151 -2.1549
82089SOL    HW264260   7.737  13.851  11.229  1.4170  0.9800  2.9912
82090SOL     OW64261  13.049   4.220   8.404  0.4815 -0.3744 -0.1530
82090SOL    HW164262  12.960   4.255   8.402  0.6468  0.0496 -0.6112
82090SOL    HW264263  13.051   4.161   8.478  0.7231  2.0551  1.9102
82091SOL     OW64264   1.480   1.001   9.952 -0.5997  0.2283  0.0761
82091SOL    HW164265   1.446   1.087   9.975  0.1993  0.0755  2.0766
82091SOL    HW264266   1.517   0.968  10.034  1.6295 -0.8515 -1.2801
82092SOL     OW64267   2.412  13.096   2.729  0.3017  0.0025 -0.4777
82092SOL    HW164268   2.435  13.132   2.814 -0.3571 -0.2500 -0.1841
82092SOL    HW264269   2.419  13.001   2.740 -4.5087 -0.4962  0.8681
82093SOL     OW64270   5.855  13.365   0.390  0.0640 -0.2528  0.3419
82093SOL    HW164271   5.896  13.370   0.303 -2.7068  0.1915 -1.0372
82093SOL    HW264272   5.860  13.455   0.423 -2.2235  0.5068 -1.1127
82094SOL     OW64273  12.787   3.436   9.886  0.3297 -0.2998  0.3675
82094SOL    HW164274  12.692   3.436   9.903  0.1971 -0.4492 -0.3235
82094SOL    HW264275  12.795   3.396   9.799  1.0271 -0.2595  0.4116
82095SOL     OW64276  13.970   8.411   9.075 -0.4133 -1.2862 -0.5981
82095SOL    HW164277  13.878   8.435   9.087 -0.6247 -2.8527  1.9489
82095SOL    HW264278  14.008   8.420   9.163  1.5991 -1.6890 -1.3776
82096SOL     OW64279   7.816   2.871   3.384 -0.0312 -0.0985  0.0659
82096SOL    HW164280   7.887   2.808   3.401  1.1354  1.3900  0.9056
82096SOL    HW264281   7.860   2.955   3.378 -1.6793  0.7803 -0.1278
82097SOL     OW64282   5.793   6.454   9.823  0.2122  0.5652 -0.3657
82097SOL    HW164283   5.739   6.394   9.875 -0.8985  1.0610 -0.9106
82097SOL    HW264284   5.883   6.423   9.836 -0.1335  0.0551  1.0115
82098SOL     OW64285   9.968  10.218   4.434 -0.0922  0.0824  0.2739
82098SOL    HW164286   9.882  10.226   4.392  0.7741 -1.2795 -1.9199
82098SOL    HW264287   9.950  10.172   4.516 -1.3568 -1.2170 -0.6811
82099SOL     OW64288   9.896   5.315   3.934 -0.4304 -0.4805 -0.0674
82099SOL    HW164289   9.923   5.296   4.024  0.6947  0.3456 -0.2130
82099SOL    HW264290   9.820   5.372   3.944  1.5195  2.2303  0.4491
82100SOL     OW64291   4.194  11.584  12.936  0.6928  0.4002  0.1150
82100SOL    HW164292   4.251  11.661  12.943  1.2449 -0.1156  2.1616
82100SOL    HW264293   4.229  11.523  13.001 -3.1057  0.6590  2.7703
82101SOL     OW64294   5.007  11.544   1.695 -0.0782  0.0983  0.1361
82101SOL    HW164295   5.024  11.567   1.603 -0.2795  0.5235  0.2070
82101SOL    HW264296   5.091  11.559   1.739 -0.1016  0.3144  0.1068
82102SOL     OW64297   3.929   3.562  12.954  0.1220  0.4411 -0.0366
82102SOL    HW164298   3.992   3.493  12.933 -1.3290 -0.3264 -2.3126
82102SOL    HW264299   3.877   3.525  13.025  1.3805  0.5679  0.9897
82103SOL     OW64300   1.315   4.987   9.531 -0.1028  0.0243  0.4288
82103SOL    HW164301   1.281   4.901   9.554 -3.1220  1.1948  0.8502
82103SOL    HW264302   1.323   5.033   9.614 -2.5366  1.4113 -0.0119
82104SOL     OW64303   1.769  13.888   8.201 -0.1740 -0.7639 -0.4677
82104SOL    HW164304   1.800  13.890   8.292 -0.5108  1.9887 -0.3182
82104SOL    HW264305   1.849  13.894   8.148 -0.0618  2.3400 -0.1593
82105SOL     OW64306   5.412   7.463   9.752 -0.4619 -0.0236  0.2381
82105SOL    HW164307   5.352   7.443   9.824 -2.6677  1.9107 -0.9002
82105SOL    HW264308   5.378   7.411   9.679 -0.5487  0.7941 -0.3188
82106SOL     OW64309   3.280  12.614   1.340  0.4466 -0.1300 -0.1658
82106SOL    HW164310   3.314  12.539   1.388  1.1174 -0.7380 -1.5155
82106SOL    HW264311   3.251  12.577   1.256 -1.4524  0.7499  0.0478
82107SOL     OW64312  13.255   0.600   1.342  0.0833  0.5173 -0.1537
82107SOL    HW164313  13.201   0.594   1.420  0.5821  2.0382  0.3457
82107SOL    HW264314  13.343   0.578   1.372  0.3854  1.6893 -0.1363
82108SOL     OW64315   4.281  12.307   3.914  0.4459 -0.4969 -0.0867
82108SOL    HW164316   4.285  12.244   3.842  2.0262 -0.2243 -0.2788
82108SOL    HW264317   4.355  12.284   3.969 -0.3904 -0.3132  1.1461
82109SOL     OW64318   7.141   1.303   1.536 -0.5424  0.1333  0.3566
82109SOL    HW164319   7.055   1.341   1.521  0.5404  2.3066 -0.8642
82109SOL    HW264320   7.148   1.234   1.469 -1.3905 -0.2073  0.6063
82110SOL     OW64321  11.846   1.877   9.092  0.5928  0.1846  0.5810
82110SOL    HW164322  11.902   1.854   9.018  0.9845  2.1891  0.1970
82110SOL    HW264323  11.906   1.899   9.162  0.3164  1.8981  0.3113
82111SOL     OW64324   8.612   9.121   5.419  0.0172 -0.2861  0.4627
82111SOL    HW164325   8.542   9.111   5.355  0.1594 -0.1276  0.2769
82111SOL    HW264326   8.593   9.203   5.464  0.7363  0.3893 -0.4291
82112SOL     OW64327  12.125  10.069   2.509 -0.3374  0.6252  0.0842
82112SOL    HW164328  12.176  10.060   2.589  0.2380 -1.1672 -0.4260
82112SOL    HW264329  12.110  10.163   2.500 -0.8026  0.8271  2.5017
82113SOL     OW64330   2.686   8.105   1.013 -0.0768 -0.4076  0.0308
82113SOL    HW164331   2.631   8.174   0.975 -1.2276 -1.9641 -1.2832
82113SOL    HW264332   2.756   8.094   0.949  0.4879 -0.0256  0.5705
82114SOL     OW64333   0.984   1.126   2.192  1.1455  0.1039 -0.3111
82114SOL    HW164334   1.051   1.194   2.186  1.0681  0.3445  1.2415
82114SOL    HW264335   0.946   1.137   2.279 -1.0102  0.0492 -1.1834
82115SOL     OW64336   2.439   1.810   4.735  0.7361 -0.3865  0.6154
82115SOL    HW164337   2.514   1.783   4.788 -1.1447 -2.3741  2.4669
82115SOL    HW264338   2.364   1.765   4.774 -1.8578  3.1232  0.2391
82116SOL     OW64339  11.943   0.724   5.032 -0.0835  0.2868 -0.2940
82116SOL    HW164340  11.976   0.636   5.016 -3.1831 -1.1413  0.4943
82116SOL    HW264341  11.884   0.715   5.107  0.8909  3.4303  1.0180
82117SOL     OW64342  13.969   7.866  11.279 -0.0037 -0.1561  0.3282
82117SOL    HW164343  13.936   7.807  11.347 -0.4079 -1.0205 -0.5855
82117SOL    HW264344  13.962   7.953  11.317 -1.2232 -0.5307  1.0109
82118SOL     OW64345   4.242   5.578  13.986 -0.8793 -0.2400  0.0221
82118SOL    HW164346   4.148   5.565  13.979 -0.9777  0.2617  0.3687
82118SOL    HW264347   4.256   5.610  14.076 -0.6712  2.1072 -0.7656
82119SOL     OW64348  10.904   4.204   6.478  0.1617 -0.3022 -0.8593
82119SOL    HW164349  10.869   4.204   6.567 -0.3307  0.7549 -1.0439
82119SOL    HW264350  10.854   4.271   6.432  1.0116 -0.2243 -1.6979
82120SOL     OW64351   2.953  13.728  11.794 -0.4601 -0.5169  0.3593
82120SOL    HW164352   3.031  13.776  11.822 -0.7063  0.1583 -0.0593
82120SOL    HW264353   2.987  13.656  11.741 -0.1385  0.7953 -1.3378
82121SOL     OW64354   2.106   9.766   2.072  0.1590 -0.1868 -0.6929
82121SOL    HW164355   2.129   9.853   2.107 -0.0524 -0.4840  0.1980
82121SOL    HW264356   2.053   9.785   1.994 -3.2769  0.5758  1.6065
82122SOL     OW64357  12.224   3.239   8.156  0.3365  0.0627  0.0258
82122SOL    HW164358  12.160   3.189   8.207  0.8913 -0.2038  0.4671
82122SOL    HW264359  12.281   3.279   8.222  0.6222  0.2977 -0.3624
82123SOL     OW64360  13.335   1.425   2.588  0.4796  0.2567 -0.0907
82123SOL    HW164361  13.420   1.414   2.546  1.4909 -1.5528  2.1872
82123SOL    HW264362  13.311   1.337   2.616 -0.5646  1.1926  2.1918
82124SOL     OW64363   5.220  12.072  10.728  0.1339  0.4717 -0.2124
82124SOL    HW164364   5.295  12.012  10.734 -0.8755 -0.9701 -1.4397
82124SOL    HW264365   5.254  12.148  10.680  1.6123  1.2801  1.9193
82125SOL     OW64366   8.324   9.877  12.824 -0.4547  0.4923  0.7020
82125SOL    HW164367   8.306   9.783  12.831  2.8236 -0.2298  1.3976
82125SOL    HW264368   8.411   9.880  12.783 -1.1030  3.3250 -0.6760
82126SOL     OW64369   2.274   5.187  11.203 -0.1285 -0.5435 -0.3778
82126SOL    HW164370   2.370   5.192  11.203  0.0094 -1.3504  2.3999
82126SOL    HW264371   2.255   5.093  11.204 -0.9590 -0.3895 -1.1385
82127SOL     OW64372   9.249   5.834   4.480  0.1295  0.0450 -0.1200
82127SOL    HW164373   9.259   5.881   4.396  0.5453 -1.2172 -0.7953
82127SOL    HW264374   9.157   5.845   4.502  0.1842  1.0758 -0.3186
82128SOL     OW64375  13.687  10.908   2.972  0.2955 -0.1323 -0.0669
82128SOL    HW164376  13.619  10.963   2.933  0.0507  2.3536  3.3923
82128SOL    HW264377  13.644  10.825   2.989 -0.6267 -0.0061 -1.5631
82129SOL     OW64378   3.855   5.489   4.508 -0.2848 -0.4271  0.5015
82129SOL    HW164379   3.931   5.471   4.453  0.6639  0.7409  1.3696
82129SOL    HW264380   3.837   5.406   4.552 -0.8805 -1.3049 -1.2891
82130SOL     OW64381  13.148   6.951   1.362 -0.4449  0.3884  0.1051
82130SOL    HW164382  13.128   6.863   1.329 -0.0358  0.3645 -0.0833
82130SOL    HW264383  13.062   6.993   1.373 -0.6056  0.2604 -0.6294
82131SOL     OW64384   3.056   5.030  10.002 -0.0528  0.2090 -0.2560
82131SOL    HW164385   3.007   4.985  10.071 -1.5105  1.0508 -0.7018
82131SOL    HW264386   3.078   4.961   9.939  0.8507 -0.4783  0.7796
82132SOL     OW64387   6.672  10.910   1.649 -0.0945 -0.8727  0.6756
82132SOL    HW164388   6.585  10.884   1.619 -0.0875 -1.1991  0.9302
82132SOL    HW264389   6.726  10.832   1.637  0.2987 -0.5001 -0.0027
82133SOL     OW64390   3.531   5.692  10.376  0.1536 -0.1186  0.3050
82133SOL    HW164391   3.612   5.645  10.357  0.9806  1.0370  0.8385
82133SOL    HW264392   3.506   5.662  10.464 -0.1962 -0.7215  0.0082
82134SOL     OW64393   4.410   5.396  10.992 -0.2260  0.0706 -0.3129
82134SOL    HW164394   4.440   5.337  11.062 -1.7370  0.1824  0.4610
82134SOL    HW264395   4.324   5.363  10.968  0.9131 -1.0392 -3.3953
82135SOL     OW64396   6.952   8.142   4.898 -0.1527  0.3566  0.0199
82135SOL    HW164397   6.899   8.121   4.975  1.3334 -0.8094  0.7564
82135SOL    HW264398   6.984   8.231   4.915  2.9658 -1.0625  2.4961
82136SOL     OW64399  11.432   2.313   0.929  0.5029  0.7586 -0.4582
82136SOL    HW164400  11.440   2.406   0.906 -1.1737  0.8433 -0.7792
82136SOL    HW264401  11.479   2.306   1.012  2.7030  1.3713 -1.5580
82137SOL     OW64402  10.879   7.384   3.355 -0.3977 -0.1382  0.6257
82137SOL    HW164403  10.858   7.476   3.335  1.1900 -0.0409 -0.8339
82137SOL    HW264404  10.916   7.387   3.443  1.4739  0.9725 -0.1402
82138SOL     OW64405   1.426   1.973   7.359 -0.1749  0.4231  0.1287
82138SOL    HW164406   1.476   2.036   7.308  1.0880  0.5878  1.4920
82138SOL    HW264407   1.448   1.992   7.450 -2.1847  0.0182  0.7701
82139SOL     OW64408  10.646   1.413   5.562  0.2950  0.1075 -0.1752
82139SOL    HW164409  10.666   1.321   5.581  0.2445  0.0088 -0.5904
82139SOL    HW264410  10.551   1.419   5.570  0.2119 -0.0600 -0.8916
82140SOL     OW64411   2.440  11.028   9.269 -0.5314  0.0762 -0.3411
82140SOL    HW164412   2.430  10.935   9.250 -3.8657  0.5588 -1.6491
82140SOL    HW264413   2.420  11.037   9.362  5.1042 -0.9704  1.3236
82141SOL     OW64414   1.951   7.338   4.954  0.3115 -0.3755  0.3215
82141SOL    HW164415   1.939   7.300   5.041  0.1113  1.6354  1.2350
82141SOL    HW264416   1.992   7.423   4.971 -0.4546  0.3999 -1.4749
82142SOL     OW64417  10.934   1.062   5.357 -0.1684  0.3192 -0.4659
82142SOL    HW164418  10.969   1.068   5.446  0.8837  2.4658 -0.9565
82142SOL    HW264419  10.888   1.145   5.344  0.8859  0.6356 -2.3965
82143SOL     OW64420   9.098   1.462  12.874 -0.3136  0.4562  0.6310
82143SOL    HW164421   9.170   1.503  12.921  0.1729 -0.0379  0.3374
82143SOL    HW264422   9.133   1.444  12.786 -0.4640 -0.6666  0.7835
82144SOL     OW64423   8.022   6.866   9.097 -0.0270 -0.0719  0.1018
82144SOL    HW164424   7.990   6.808   9.167  0.6590  0.3744  0.7991
82144SOL    HW264425   8.117   6.866   9.108  0.0089  0.8257 -0.1789
82145SOL     OW64426   5.512   2.534  11.063  0.3255 -0.2547  0.0365
82145SOL    HW164427   5.465   2.543  11.146  0.7319 -2.0529  0.4992
82145SOL    HW264428   5.445   2.548  10.996  0.3367  3.1304  0.5483
82146SOL     OW64429   8.986   9.378   9.807  0.0600 -0.1743  0.2080
82146SOL    HW164430   9.033   9.297   9.788  0.9079  0.1759  0.8035
82146SOL    HW264431   8.931   9.392   9.729 -0.3341 -1.4687  0.2220
82147SOL     OW64432   2.441   6.048   0.135  0.2141  0.2734 -0.0702
82147SOL    HW164433   2.521   6.088   0.169  0.3164 -1.0123  1.2897
82147SOL    HW264434   2.427   6.090   0.050  0.0707  3.4447  1.4123
82148SOL     OW64435  10.649   8.762   2.805 -0.2717 -1.1287  0.0155
82148SOL    HW164436  10.739   8.792   2.823 -0.7818  0.6565 -0.1764
82148SOL    HW264437  10.654   8.723   2.718 -0.3716  2.7977 -1.9793
82149SOL     OW64438   6.921  10.118   0.483 -0.8089 -0.5819 -0.7214
82149SOL    HW164439   6.943  10.107   0.575  1.3570  2.3702 -0.7352
82149SOL    HW264440   6.970  10.048   0.439 -0.6177 -1.0599  0.2187
82150SOL     OW64441   7.138   2.563  13.560  0.4415 -0.1283  0.3686
82150SOL    HW164442   7.184   2.549  13.642 -0.0333  0.8780  0.8275
82150SOL    HW264443   7.062   2.616  13.584 -0.6105 -1.1802 -0.4594
82151SOL     OW64444   3.009   5.582  11.353 -0.7164  0.2934 -0.2440
82151SOL    HW164445   2.999   5.551  11.443 -0.6498  1.8135  0.3177
82151SOL    HW264446   3.103   5.597  11.343 -0.2984 -2.5944 -1.5618
82152SOL     OW64447  13.820  12.424   4.096 -0.0560 -0.0484  0.3118
82152SOL    HW164448  13.877  12.467   4.160  0.9712 -1.0997  0.1355
82152SOL    HW264449  13.742  12.479   4.093  0.5999  0.9735  1.1800
82153SOL     OW64450   5.002   8.659   8.495 -0.4522  0.1708  0.4067
82153SOL    HW164451   5.084   8.610   8.486  0.6763  2.1609 -0.9423
82153SOL    HW264452   5.025   8.749   8.470 -2.3760  1.4705  2.8638
82154SOL     OW64453   2.131  10.005  10.342  0.1916 -0.2159  0.0667
82154SOL    HW164454   2.212  10.043  10.311 -0.5464 -0.1049 -1.8499
82154SOL    HW264455   2.067  10.075  10.334 -0.5224 -0.9082 -0.5186
82155SOL     OW64456   6.816  12.253   7.387 -0.3439 -0.1328 -0.0715
82155SOL    HW164457   6.771  12.326   7.430  0.1234  0.4694 -0.5839
82155SOL    HW264458   6.762  12.177   7.407 -0.7514  0.3209  0.6143
82156SOL     OW64459   5.227  10.678   2.589  0.2704  0.9435 -0.7212
82156SOL    HW164460   5.238  10.767   2.621  1.5991  0.1847  1.0681
82156SOL    HW264461   5.169  10.636   2.653 -0.9931  0.7002 -1.9711
82157SOL     OW64462   9.342  12.989   0.901  0.3520 -0.0273  0.3770
82157SOL    HW164463   9.414  13.052   0.894  1.1868 -0.6614  2.6351
82157SOL    HW264464   9.263  13.043   0.903  0.9737  0.8748  1.1019
82158SOL     OW64465   7.600  13.320   0.035  0.0954 -0.0809  0.3285
82158SOL    HW164466   7.650  13.298   0.113  2.3881  1.1307 -0.7093
82158SOL    HW264467   7.550  13.398   0.059 -0.7284 -0.8348  1.1292
82159SOL     OW64468   8.840   9.763  12.199 -0.0474  0.1828  0.2505
82159SOL    HW164469   8.845   9.733  12.290  1.5739  0.3444  0.2564
82159SOL    HW264470   8.923   9.809  12.185 -0.1405 -0.0915 -1.4016
82160SOL     OW64471   0.707   5.882  10.563  0.9827  0.3335  0.0567
82160SOL    HW164472   0.691   5.973  10.538  3.3469  0.7184 -0.2892
82160SOL    HW264473   0.794   5.863  10.528  0.6364 -2.0004  0.3382
82161SOL     OW64474   8.371   9.245   3.933  0.0441  0.3338  0.6686
82161SOL    HW164475   8.385   9.316   3.997  0.4160  0.2537  0.6768
82161SOL    HW264476   8.451   9.194   3.936 -0.0786  0.1232  0.3891
82162SOL     OW64477   0.210   9.308   8.577 -0.2374  0.0865 -0.1851
82162SOL    HW164478   0.297   9.270   8.568 -0.4026 -0.1040 -1.0012
82162SOL    HW264479   0.226   9.394   8.615  0.2123 -0.3962  0.7728
82163SOL     OW64480  13.333   1.730  10.801 -0.2105  0.3322  0.4967
82163SOL    HW164481  13.338   1.796  10.731 -0.6416 -0.4049 -0.2522
82163SOL    HW264482  13.293   1.654  10.758  1.0808 -0.7209  1.1154
82164SOL     OW64483   7.139   6.967  12.684 -0.3269  0.5040 -0.3166
82164SOL    HW164484   7.230   6.996  12.684  0.8467 -2.5660 -2.9090
82164SOL    HW264485   7.125   6.932  12.772  1.0873  0.6790  0.0078
82165SOL     OW64486  14.031   7.529   7.461 -0.6000  0.8538 -0.2623
82165SOL    HW164487  14.088   7.487   7.525  0.1121  1.2193 -0.6365
82165SOL    HW264488  14.020   7.464   7.392  1.1792  1.5211 -1.2418
82166SOL     OW64489   2.224   8.512   5.232  0.3535  0.3154  0.4314
82166SOL    HW164490   2.312   8.507   5.269  1.3162 -0.6640 -1.7999
82166SOL    HW264491   2.208   8.605   5.221  1.0725  0.5107  0.9543
82167SOL     OW64492   4.836   0.577   7.176 -0.4010 -0.3739 -0.1577
82167SOL    HW164493   4.855   0.666   7.206 -1.0745 -0.9182  2.0782
82167SOL    HW264494   4.916   0.528   7.192  0.0894 -0.1626 -1.7113
82168SOL     OW64495   4.518  11.778  13.813 -0.3602  0.2905  0.7365
82168SOL    HW164496   4.428  11.781  13.844 -0.9188  0.3134 -0.7872
82168SOL    HW264497   4.510  11.777  13.717  1.2879  2.3508  0.4963
82169SOL     OW64498   2.006   9.087   6.886 -0.0905  0.0573 -0.0116
82169SOL    HW164499   1.942   9.018   6.869 -0.4147  0.3809 -0.1073
82169SOL    HW264500   1.954   9.166   6.902  0.2656  0.2057  0.4573
82170SOL     OW64501   8.454   8.568   5.741 -0.1894  0.2038  0.4705
82170SOL    HW164502   8.414   8.589   5.657 -2.1596 -0.3182  1.2122
82170SOL    HW264503   8.493   8.650   5.771 -2.2297  1.2482  0.4515
82171SOL     OW64504   0.209  10.162   9.075  0.2724  0.6769 -0.0953
82171SOL    HW164505   0.116  10.177   9.058  0.1971 -0.2041 -0.5301
82171SOL    HW264506   0.217  10.067   9.082  1.0773  0.7651  0.3500
82172SOL     OW64507  10.036   6.236  13.049 -0.1337  0.5088  0.0470
82172SOL    HW164508   9.948   6.232  13.012 -0.9436  1.6664  1.7439
82172SOL    HW264509  10.076   6.312  13.005 -0.0603  0.1469 -0.5253
82173SOL     OW64510  13.373   0.866  12.013 -0.2062 -0.2681 -0.3785
82173SOL    HW164511  13.416   0.861  11.928 -0.8516 -1.8066 -0.6478
82173SOL    HW264512  13.441   0.842  12.076  0.1863  0.5527 -0.4864
82174SOL     OW64513   2.288  13.437  11.306  0.3952  0.3357 -0.1323
82174SOL    HW164514   2.367  13.383  11.307  1.5621  1.8991 -1.3639
82174SOL    HW264515   2.259  13.436  11.214 -0.6709  0.2754  0.1904
82175SOL     OW64516   7.875   6.509  11.047 -0.4850 -0.0137  0.9341
82175SOL    HW164517   7.871   6.509  11.142  0.9537  1.0817  1.0291
82175SOL    HW264518   7.827   6.588  11.021 -2.9401 -1.5353  0.5741
82176SOL     OW64519   8.485   3.004   0.090  0.1973 -0.0783 -0.1155
82176SOL    HW164520   8.456   3.065   0.158 -0.3145 -0.6222  0.1608
82176SOL    HW264521   8.554   2.952   0.132 -0.2344 -0.5275  0.0502
82177SOL     OW64522   8.443   3.803  10.298 -0.3679 -0.1121 -0.0048
82177SOL    HW164523   8.421   3.714  10.271  2.1168 -0.9054  0.3197
82177SOL    HW264524   8.514   3.829  10.240 -0.5841  1.3894  0.3663
82178SOL     OW64525   4.413   8.525   3.240 -0.6407 -0.2050  0.0955
82178SOL    HW164526   4.423   8.480   3.324  0.1043 -0.4885 -0.1313
82178SOL    HW264527   4.356   8.467   3.189  1.5273 -1.7806 -0.7498
82179SOL     OW64528   7.522   2.525  10.403 -0.2438 -0.4303  0.2703
82179SOL    HW164529   7.446   2.576  10.432 -0.0738  0.6299 -1.0224
82179SOL    HW264530   7.491   2.435  10.396 -1.9412  0.2491 -1.9904
82180SOL     OW64531   2.382  10.257  10.636 -0.2547 -0.3073  0.2288
82180SOL    HW164532   2.418  10.180  10.680  1.2601 -0.2128 -0.7727
82180SOL    HW264533   2.368  10.321  10.706  0.3553 -0.8079  0.8170
82181SOL     OW64534   8.268   1.632   8.246  0.2614 -0.2422  0.2477
82181SOL    HW164535   8.226   1.558   8.292 -1.3737 -0.6746 -1.7941
82181SOL    HW264536   8.195   1.678   8.204  1.6465  0.1689 -1.8207
82182SOL     OW64537   6.221   8.542   0.378  0.6706  0.1641 -0.0555
82182SOL    HW164538   6.282   8.547   0.305 -0.0741 -1.0352 -0.8023
82182SOL    HW264539   6.170   8.622   0.373  1.9059  1.0101  0.3595
82183SOL     OW64540   7.338   5.266  14.074 -0.1254 -0.1869 -0.1474
82183SOL    HW164541   7.418   5.216  14.062 -0.0667  0.1547 -1.3068
82183SOL    HW264542   7.294   5.224  14.148 -0.1307 -2.0187 -1.1414
82184SOL     OW64543   2.536  10.877   4.333 -0.0748 -0.4602 -0.0137
82184SOL    HW164544   2.513  10.784   4.340  0.7363 -0.6163  0.7989
82184SOL    HW264545   2.460  10.923   4.368 -0.1137 -0.8656  0.4538
82185SOL     OW64546   1.713   0.099   2.077 -0.6518  0.1163 -0.5698
82185SOL    HW164547   1.720   0.114   1.982 -1.9536 -0.3438 -0.7630
82185SOL    HW264548   1.644   0.160   2.105 -1.3976 -0.8659 -0.2134
82186SOL     OW64549   9.507   2.021  11.900 -0.8575 -0.1829  0.0597
82186SOL    HW164550   9.534   2.019  11.808  0.1973  1.1706  0.3093
82186SOL    HW264551   9.554   1.948  11.941 -0.9895 -0.5198 -0.3850
82187SOL     OW64552  10.483   8.232   4.671 -0.5239 -0.1385  0.2342
82187SOL    HW164553  10.569   8.273   4.662 -0.6070 -0.0114 -0.0136
82187SOL    HW264554  10.427   8.301   4.706 -0.5269 -0.2154  0.3790
82188SOL     OW64555   8.069  10.642  12.125 -0.0317  0.1317  0.3515
82188SOL    HW164556   8.112  10.688  12.053 -0.3607  1.2665  0.8444
82188SOL    HW264557   8.020  10.711  12.170 -0.6573 -0.7518  1.0416
82189SOL     OW64558  11.833   5.594   6.062  0.8305 -0.2083  0.0418
82189SOL    HW164559  11.793   5.536   6.127  0.0613  0.0311 -0.1973
82189SOL    HW264560  11.763   5.607   5.997  1.0961  0.7390 -0.0588
82190SOL     OW64561  13.297   3.299  13.701 -0.4503 -0.0487 -0.1607
82190SOL    HW164562  13.227   3.354  13.737  0.0799  0.6756 -0.2092
82190SOL    HW264563  13.372   3.358  13.692  0.5163 -1.0598  0.9423
82191SOL     OW64564   1.848   1.665  10.789 -0.5486 -0.1062 -0.3191
82191SOL    HW164565   1.810   1.752  10.782 -0.8647 -0.2589 -0.5077
82191SOL    HW264566   1.890   1.650  10.704 -1.7114 -0.7054 -0.8029
82192SOL     OW64567  13.950   0.602   4.529 -0.3657 -0.0720 -0.3454
82192SOL    HW164568  13.882   0.603   4.597  0.2618  0.5417  0.2931
82192SOL    HW264569  14.017   0.662   4.562  1.0688 -1.5899 -0.3746
82193SOL     OW64570  11.095   2.397   5.936 -0.5203  0.5334  0.1518
82193SOL    HW164571  11.164   2.338   5.966  0.1162  1.5632  0.7525
82193SOL    HW264572  11.067   2.360   5.853  0.0590 -0.4594  0.3816
82194SOL     OW64573   0.871   4.361   8.783 -0.2901  0.2695  0.7945
82194SOL    HW164574   0.886   4.376   8.876 -0.2754 -0.0594  0.8486
82194SOL    HW264575   0.790   4.311   8.780  0.7264 -1.4772  0.7770
82195SOL     OW64576   9.926   1.219  13.494  0.2889 -0.0456  0.1268
82195SOL    HW164577   9.861   1.217  13.424 -0.4058 -0.5328  0.7731
82195SOL    HW264578   9.946   1.127  13.511  2.5729  0.1137 -1.3408
82196SOL     OW64579   1.730   3.307  12.689  0.4337  0.4672  0.1137
82196SOL    HW164580   1.800   3.327  12.750  0.4041 -0.1810  0.3767
82196SOL    HW264581   1.677   3.386  12.685  1.1394  0.9389 -0.0379
82197SOL     OW64582   2.611   8.793   1.531  0.2526  0.2117  0.6659
82197SOL    HW164583   2.649   8.875   1.500 -0.0084  0.1830  0.2572
82197SOL    HW264584   2.528   8.786   1.483  0.0370 -0.0360  1.0757
82198SOL     OW64585   4.831   4.716   0.488 -0.5949  0.3756 -0.2017
82198SOL    HW164586   4.854   4.805   0.512 -1.5878  0.4043  0.7358
82198SOL    HW264587   4.907   4.664   0.516  0.1874  0.9598 -1.1792
82199SOL     OW64588  10.227   9.973  11.327 -0.6480 -0.2570 -0.4970
82199SOL    HW164589  10.316   9.959  11.357 -1.0394  0.2903  1.0106
82199SOL    HW264590  10.206   9.894  11.277 -0.3746 -1.8587  1.7718
82200SOL     OW64591  10.395  14.028   9.136 -0.6495  0.8531 -0.3317
82200SOL    HW164592  10.332  13.981   9.080 -1.1145 -0.4197  1.1626
82200SOL    HW264593  10.341  14.071   9.201 -0.0435  0.9405  0.1212
82201SOL     OW64594  10.886   9.536  11.955  0.7388  0.1605 -0.8086
82201SOL    HW164595  10.858   9.449  11.984 -0.6094  1.1735  1.1897
82201SOL    HW264596  10.981   9.537  11.970  0.8916 -1.1694 -1.5362
82202SOL     OW64597   1.420   5.149   1.940  0.5218 -0.8280 -0.4706
82202SOL    HW164598   1.398   5.196   1.859 -2.0187 -0.5544  0.3281
82202SOL    HW264599   1.352   5.083   1.949 -0.2874  0.2670  2.3318
82203SOL     OW64600   9.653   9.374   4.582 -0.2253 -0.0489 -0.1231
82203SOL    HW164601   9.603   9.381   4.501 -0.8793  0.6814  0.3221
82203SOL    HW264602   9.623   9.449   4.635 -0.3478 -0.9113  1.0769
82204SOL     OW64603   7.120   4.829  12.378 -0.3387 -0.0794 -0.2762
82204SOL    HW164604   7.153   4.888  12.310 -0.4906 -0.2721 -0.5210
82204SOL    HW264605   7.197   4.803  12.428  0.1651 -1.7775 -1.8126
82205SOL     OW64606  13.113  12.118   9.891  0.6632 -0.3674  0.0998
82205SOL    HW164607  13.185  12.124   9.954 -0.7035  0.4767  1.6553
82205SOL    HW264608  13.039  12.159   9.935 -0.5384 -0.3358 -1.8284
82206SOL     OW64609  10.128  11.079   9.296  0.1644  0.0658 -0.1442
82206SOL    HW164610  10.043  11.034   9.295  0.2853 -0.1724 -1.5435
82206SOL    HW264611  10.189  11.016   9.256  1.8513 -1.2370  3.9378
82207SOL     OW64612   3.570   1.500   4.228 -0.3099 -0.3010  0.0087
82207SOL    HW164613   3.563   1.425   4.287 -1.3690 -0.8368 -0.7727
82207SOL    HW264614   3.491   1.551   4.245 -0.2575 -0.0751 -0.4179
82208SOL     OW64615   8.005   4.690   7.136  0.0740 -0.2510  0.4006
82208SOL    HW164616   8.009   4.622   7.069  2.1910 -0.1117  0.3034
82208SOL    HW264617   7.944   4.755   7.102 -0.0069 -0.8880 -0.7059
82209SOL     OW64618   0.946   1.137  14.136 -0.3061 -0.0167 -0.0622
82209SOL    HW164619   0.967   1.108  14.047 -1.3132 -0.8467 -0.0590
82209SOL    HW264620   0.850   1.142  14.137 -0.2425  1.6463  0.4892
82210SOL     OW64621   6.858   3.344   0.574 -0.2179  0.0885 -0.3716
82210SOL    HW164622   6.900   3.270   0.530 -1.2108 -0.3584 -0.5948
82210SOL    HW264623   6.870   3.417   0.514  1.0747  0.2061  0.0086
82211SOL     OW64624   5.307   0.791  13.658  0.1041 -0.1336  0.4684
82211SOL    HW164625   5.254   0.847  13.715 -1.2021  2.2017 -2.7359
82211SOL    HW264626   5.364   0.851  13.611  1.1310 -1.9228 -0.7064
82212SOL     OW64627   7.010  13.433   0.709 -0.0144  0.1763  0.6744
82212SOL    HW164628   7.076  13.405   0.645  0.9124  0.5174  1.4751
82212SOL    HW264629   7.012  13.365   0.777 -0.9991 -0.1851  0.3669
82213SOL     OW64630   7.055  13.587   8.858 -0.0396 -0.1054 -0.1975
82213SOL    HW164631   6.964  13.589   8.829 -0.4993 -1.4979  1.0534
82213SOL    HW264632   7.051  13.559   8.950  1.6511 -0.3904 -0.1736
82214SOL     OW64633   6.543   0.514   2.334  0.0273 -0.7812 -0.2478
82214SOL    HW164634   6.487   0.543   2.263  0.2156 -0.6971 -0.3626
82214SOL    HW264635   6.614   0.465   2.291  0.6461  0.0513 -0.2018
82215SOL     OW64636  11.148   7.101  11.507  0.5847 -0.0722 -0.1213
82215SOL    HW164637  11.118   7.010  11.499  0.5883  0.0023 -1.0599
82215SOL    HW264638  11.220   7.109  11.444  0.8081  0.4942  0.1928
82216SOL     OW64639  10.172   7.914  12.553  0.3014 -0.4064 -0.2364
82216SOL    HW164640  10.119   7.937  12.477  1.5064  0.3606 -0.8667
82216SOL    HW264641  10.146   7.976  12.621  1.1413  0.6820 -0.8836
82217SOL     OW64642   8.254   3.063   7.199 -0.1888  0.0117  0.3450
82217SOL    HW164643   8.288   3.017   7.276  1.4158  0.2333 -0.1993
82217SOL    HW264644   8.163   3.035   7.193  0.3075 -1.8838  0.9380
82218SOL     OW64645   5.989  11.426   0.872  0.3728  0.7165  0.4204
82218SOL    HW164646   5.947  11.340   0.867  1.5505  0.1755 -1.4061
82218SOL    HW264647   6.073  11.408   0.914  1.2485  0.6539 -1.2790
82219SOL     OW64648  13.825   5.527  11.003  0.6394  0.4329  0.3382
82219SOL    HW164649  13.765   5.475  10.950  1.7308 -0.7481  0.2156
82219SOL    HW264650  13.905   5.475  11.007  1.6785  1.9665  0.4754
82220SOL     OW64651   3.531  12.372   9.654 -0.0172 -0.1825  0.3196
82220SOL    HW164652   3.508  12.397   9.564 -1.5065 -0.6137  0.5503
82220SOL    HW264653   3.462  12.411   9.708 -0.0333 -1.2619  1.1111
82221SOL     OW64654   7.150   5.971   6.414  0.2104  0.4685 -0.1970
82221SOL    HW164655   7.065   5.998   6.380 -0.7615 -0.2461  1.5276
82221SOL    HW264656   7.213   6.029   6.372 -1.3095  2.1871 -0.1823
82222SOL     OW64657   7.899   6.510   8.322 -0.1767  0.3680  0.9384
82222SOL    HW164658   7.888   6.582   8.383 -0.3672  1.4364 -0.3083
82222SOL    HW264659   7.875   6.432   8.372  0.1836  1.1399  2.3547
82223SOL     OW64660   5.132  13.170   0.996 -0.1712  0.4050  0.2226
82223SOL    HW164661   5.225  13.151   0.990 -0.4752 -0.7497 -1.2650
82223SOL    HW264662   5.103  13.181   0.906 -1.4884  0.7239  0.6492
82224SOL     OW64663   7.392   1.081   6.246 -0.5522  0.4466  0.2441
82224SOL    HW164664   7.474   1.129   6.246 -0.3524  0.1636  1.9230
82224SOL    HW264665   7.391   1.034   6.162  1.4260 -0.2678  0.5807
82225SOL     OW64666   6.723  11.018   5.491 -0.2767  0.2115 -0.3941
82225SOL    HW164667   6.784  10.972   5.548 -2.4596  0.2180  2.0909
82225SOL    HW264668   6.692  11.093   5.542 -0.5446  1.6536 -2.5109
82226SOL     OW64669   7.052   5.773   5.606  0.4294 -0.0986 -0.1240
82226SOL    HW164670   7.121   5.709   5.626 -0.3834 -0.7314  0.7996
82226SOL    HW264671   7.018   5.799   5.692  0.2002  0.9658 -0.5258
82227SOL     OW64672   5.339   0.006   0.362  0.0888 -0.1050 -0.7766
82227SOL    HW164673   5.258   0.015   0.411  0.0011  3.2497 -1.3294
82227SOL    HW264674   5.392  -0.056   0.414 -2.1930 -1.2125  0.3531
82228SOL     OW64675   9.343  13.587   6.526  0.5127 -0.0677  0.2448
82228SOL    HW164676   9.270  13.554   6.475 -1.1972  0.6795  2.0830
82228SOL    HW264677   9.402  13.511   6.535 -1.1562 -1.3765  0.6475
82229SOL     OW64678   7.545   6.362   9.280  0.8222 -0.1521 -0.0825
82229SOL    HW164679   7.534   6.283   9.227  0.7938 -0.1207 -0.1235
82229SOL    HW264680   7.584   6.331   9.362 -0.1886 -0.3559  0.3320
82230SOL     OW64681  13.682   4.015   4.251 -0.4638  0.3368  0.3219
82230SOL    HW164682  13.623   3.984   4.319  0.3641  0.9515  1.3464
82230SOL    HW264683  13.665   4.109   4.245  0.7633  0.6291  1.0205
82231SOL     OW64684   8.908   7.369   7.799 -0.3576 -0.1576 -0.0871
82231SOL    HW164685   8.820   7.340   7.823 -1.1351  0.7821 -1.6505
82231SOL    HW264686   8.952   7.289   7.771 -1.3747 -0.3782 -1.1494
82232SOL     OW64687  10.980   5.789   8.845  0.1152  0.8202  0.3153
82232SOL    HW164688  10.967   5.803   8.939  0.4742 -0.2552  0.5363
82232SOL    HW264689  10.968   5.695   8.832  0.8324  0.8368 -0.5859
82233SOL     OW64690  11.380   6.846   0.981  0.1160 -0.0156  0.1870
82233SOL    HW164691  11.398   6.767   1.032 -1.4997 -0.3740  0.2415
82233SOL    HW264692  11.286   6.843   0.964  0.0061  1.9210  0.2299
82234SOL     OW64693   7.548   6.186   0.851  0.1254 -0.1289  0.7121
82234SOL    HW164694   7.570   6.106   0.803 -0.4717 -1.6465  2.8265
82234SOL    HW264695   7.519   6.247   0.784 -0.1942 -1.9705 -0.9125
82235SOL     OW64696   2.238   1.733  12.559 -0.2421  0.3042 -0.0677
82235SOL    HW164697   2.180   1.776  12.496 -0.5038 -1.4871 -1.1262
82235SOL    HW264698   2.207   1.643  12.562  1.2242 -0.1980  0.9066
82236SOL     OW64699  12.346   4.950   0.760 -0.5622 -0.6808 -0.0659
82236SOL    HW164700  12.277   4.903   0.807 -0.0677 -2.8747 -1.3725
82236SOL    HW264701  12.426   4.928   0.808 -0.6591  1.5203  1.2026
82237SOL     OW64702  12.363   5.752  13.531 -0.2330  0.0232  0.8853
82237SOL    HW164703  12.295   5.817  13.545 -0.8243 -0.4946  0.4415
82237SOL    HW264704  12.358   5.731  13.438 -0.4929 -1.1401  1.1434
82238SOL     OW64705   8.012   0.845   1.069  0.4838 -0.2246  0.1081
82238SOL    HW164706   8.069   0.919   1.090  2.2137 -1.2451 -0.7809
82238SOL    HW264707   7.948   0.882   1.008  1.5862  0.4875 -0.6636
82239SOL     OW64708   7.009  12.871  11.014  0.0294  0.1807 -0.2698
82239SOL    HW164709   7.096  12.911  11.003  1.4221 -2.4461  0.4527
82239SOL    HW264710   7.017  12.784  10.976 -2.5607  0.1081 -0.8372
82240SOL     OW64711   0.336   0.937  10.743 -0.2496 -0.2598 -0.2422
82240SOL    HW164712   0.388   0.970  10.816 -0.5091  0.8209 -0.5255
82240SOL    HW264713   0.335   0.842  10.754 -1.1867 -0.0624  1.7954
82241SOL     OW64714  12.234   2.170   9.044  0.2380 -0.5324 -0.3651
82241SOL    HW164715  12.215   2.203   8.956 -0.8248  0.0595  0.0619
82241SOL    HW264716  12.251   2.249   9.096 -1.5592 -0.6387  0.4942
82242SOL     OW64717   8.682   8.844   7.471 -0.4360 -0.6597  0.0685
82242SOL    HW164718   8.633   8.837   7.388  0.0946  2.1018 -0.5893
82242SOL    HW264719   8.767   8.804   7.452 -0.6689 -0.9502 -0.3915
82243SOL     OW64720   8.842   9.765   5.393  0.0999 -0.7305 -0.3836
82243SOL    HW164721   8.820   9.776   5.300 -0.3951  0.4031 -0.1500
82243SOL    HW264722   8.759   9.779   5.439  0.6211  0.2409  0.3067
82244SOL     OW64723  12.342   5.512   1.258 -0.0207  0.0686 -0.3758
82244SOL    HW164724  12.406   5.517   1.187  0.2201 -2.0376 -0.3624
82244SOL    HW264725  12.308   5.423   1.254 -0.8509  0.2538  1.4375
82245SOL     OW64726  10.358  13.184   7.327 -0.1684 -0.1082  0.4484
82245SOL    HW164727  10.291  13.124   7.357 -0.9670  0.6527  0.2230
82245SOL    HW264728  10.311  13.265   7.305  1.0219  1.1053  2.0983
82246SOL     OW64729   4.654   9.701   3.727 -0.1937 -0.2348 -0.3478
82246SOL    HW164730   4.620   9.636   3.788 -1.6752  0.4890 -0.3601
82246SOL    HW264731   4.685   9.772   3.784 -0.2944 -0.1619 -0.3823
82247SOL     OW64732   9.242  13.375   2.862 -0.1524 -0.7637 -0.2917
82247SOL    HW164733   9.198  13.314   2.922 -1.7487 -1.5672 -2.1585
82247SOL    HW264734   9.229  13.336   2.776  3.3216 -0.4192 -1.1156
82248SOL     OW64735  13.640  12.696   9.197 -0.0887 -0.4582 -0.5935
82248SOL    HW164736  13.550  12.722   9.177 -0.2224  0.1135  0.6735
82248SOL    HW264737  13.690  12.778   9.194  0.4617 -0.8132 -1.5788
82249SOL     OW64738  10.953  12.742  12.341 -0.6561 -0.2617  0.1684
82249SOL    HW164739  10.980  12.756  12.432  0.3441 -0.7174 -0.0351
82249SOL    HW264740  10.965  12.648  12.327 -0.2800 -0.1112 -0.5797
82250SOL     OW64741   1.031   9.546  12.929 -0.4488  0.0896  0.1055
82250SOL    HW164742   0.962   9.600  12.890 -2.0824 -1.4402  0.7215
82250SOL    HW264743   1.028   9.567  13.023  1.3009  1.4174 -0.0766
82251SOL     OW64744  12.560   9.733   1.524  0.0481  0.0725 -0.2113
82251SOL    HW164745  12.540   9.656   1.470 -0.9128  0.2411 -0.1088
82251SOL    HW264746  12.646   9.713   1.563 -0.3751 -1.1354  0.1492
82252SOL     OW64747   0.485   0.375   5.858 -0.0457  0.1228  0.3941
82252SOL    HW164748   0.547   0.378   5.785 -0.5590  0.6488 -0.0315
82252SOL    HW264749   0.467   0.467   5.879 -0.6910 -0.0190  0.4973
82253SOL     OW64750   3.429   3.470   4.125  0.4570 -0.5062  0.2881
82253SOL    HW164751   3.367   3.443   4.193  2.3539 -0.1942  2.2434
82253SOL    HW264752   3.377   3.524   4.065 -1.0371  0.2700  2.1713
82254SOL     OW64753   7.802  12.039   1.433 -0.2276 -0.5946  0.2953
82254SOL    HW164754   7.806  11.970   1.500  0.3820 -0.1340  0.7455
82254SOL    HW264755   7.838  12.116   1.476 -0.6786 -0.0515 -0.2866
82255SOL     OW64756   1.727  11.116   7.081  0.2765  0.1673 -0.2611
82255SOL    HW164757   1.774  11.167   7.147 -3.5602 -0.6196  3.5401
82255SOL    HW264758   1.756  11.026   7.095 -1.7339 -0.2597  1.8119
82256SOL     OW64759   9.026   1.453  10.079 -0.0816 -0.2806  0.1324
82256SOL    HW164760   9.044   1.390  10.009 -0.3094  0.0100 -0.1890
82256SOL    HW264761   9.103   1.510  10.081 -1.2094  1.4691 -1.7853
82257SOL     OW64762  12.956   6.518   8.824 -0.1880 -0.5847  1.0562
82257SOL    HW164763  13.017   6.566   8.881  0.1358  0.5773 -0.1999
82257SOL    HW264764  12.872   6.563   8.836  0.3343  1.0681 -0.8818
82258SOL     OW64765   4.147   6.697   5.132  0.4366  0.4613 -0.2161
82258SOL    HW164766   4.193   6.635   5.075 -0.0540 -1.8761  1.7413
82258SOL    HW264767   4.149   6.655   5.218 -1.7144  2.2565  0.7882
82259SOL     OW64768   7.714  10.588   5.513 -0.1839  0.1478  0.4641
82259SOL    HW164769   7.795  10.560   5.470  0.1577  3.3066 -1.2118
82259SOL    HW264770   7.742  10.622   5.598  0.1867  0.7278  0.1137
82260SOL     OW64771   7.558   0.479   1.499 -0.6321  0.0860  0.2521
82260SOL    HW164772   7.507   0.502   1.576  0.2243  1.8355  0.3428
82260SOL    HW264773   7.647   0.509   1.519 -0.7671  2.5041 -2.1441
82261SOL     OW64774   2.500   5.296   0.038  0.6992 -0.5151 -0.3201
82261SOL    HW164775   2.548   5.345  -0.028 -0.0094  0.8383  0.1339
82261SOL    HW264776   2.420   5.346   0.052  1.1402 -0.3629  2.0526
82262SOL     OW64777   6.384   6.498   9.518  0.5687  0.2000  0.4087
82262SOL    HW164778   6.444   6.569   9.543  0.6842  0.2029  0.1313
82262SOL    HW264779   6.358   6.519   9.428 -1.6839  1.4751  1.2621
82263SOL     OW64780   6.294   6.115   1.810 -0.1411 -0.0600 -0.4431
82263SOL    HW164781   6.365   6.147   1.865 -0.0782  0.3581 -0.7594
82263SOL    HW264782   6.280   6.025   1.838  0.9228 -0.3397 -0.7962
82264SOL     OW64783   4.671  12.159  12.338 -0.4259 -0.0151  0.5020
82264SOL    HW164784   4.761  12.141  12.309 -0.4090 -0.1798  0.6600
82264SOL    HW264785   4.635  12.214  12.269 -0.7787 -1.3828 -0.4238
82265SOL     OW64786  11.571   2.782   2.572 -0.2630 -0.3121  0.1736
82265SOL    HW164787  11.614   2.853   2.524  1.8086 -0.3165  1.8613
82265SOL    HW264788  11.500   2.755   2.515 -0.7209  2.6335 -0.8483
82266SOL     OW64789  13.849   8.585  10.005 -0.0605 -0.1136 -0.1730
82266SOL    HW164790  13.800   8.585   9.923 -0.3505 -1.6695 -0.0346
82266SOL    HW264791  13.941   8.581   9.978 -0.0777  0.9522 -0.4189
82267SOL     OW64792   3.617  13.427   4.027  0.0101  0.4972 -0.5431
82267SOL    HW164793   3.589  13.434   3.936  0.1204 -0.8960 -0.7011
82267SOL    HW264794   3.712  13.430   4.024  0.0064  0.8196 -0.4273
82268SOL     OW64795   5.348   6.281  12.350 -0.3457 -0.0756 -0.2173
82268SOL    HW164796   5.356   6.364  12.302  1.1191 -2.0195 -3.6935
82268SOL    HW264797   5.259   6.252  12.334  0.0181 -0.5228 -1.5695
82269SOL     OW64798   9.732   4.394   0.736  0.0823 -0.1465  0.4383
82269SOL    HW164799   9.819   4.428   0.718  0.2593 -1.2545 -0.9104
82269SOL    HW264800   9.722   4.404   0.831  0.6106  2.4082  0.2827
82270SOL     OW64801  13.149   7.704  12.752 -0.5281  0.0569 -0.0985
82270SOL    HW164802  13.241   7.711  12.728 -0.5977  1.0352 -0.1097
82270SOL    HW264803  13.140   7.615  12.788  0.5485  0.1626  0.4692
82271SOL     OW64804  10.296   0.502   5.643 -0.3028  0.4577 -0.1597
82271SOL    HW164805  10.216   0.461   5.676  0.6304 -1.7332 -0.4577
82271SOL    HW264806  10.365   0.468   5.700  0.5092  1.8410 -0.2842
82272SOL     OW64807   8.325   3.768  10.004 -0.0359  0.0051  0.0173
82272SOL    HW164808   8.362   3.712   9.935  0.4485  0.6520 -0.2597
82272SOL    HW264809   8.314   3.709  10.079  0.5136 -0.4585 -0.2529
82273SOL     OW64810   7.810  10.578   1.048  0.2661  0.3866 -0.1146
82273SOL    HW164811   7.902  10.568   1.069 -0.3198 -1.5268  1.9397
82273SOL    HW264812   7.774  10.628   1.121 -0.3577  1.1487 -0.9126
82274SOL     OW64813   5.874   6.032   1.255 -0.2858 -0.1823 -0.0462
82274SOL    HW164814   5.901   5.941   1.253  0.9655  0.1668  0.1008
82274SOL    HW264815   5.839   6.045   1.343 -0.1857 -0.4390  0.0319
82275SOL     OW64816   2.617  13.834   7.453 -0.6252  0.2609  0.4723
82275SOL    HW164817   2.608  13.786   7.536  1.5314 -0.0322  0.6010
82275SOL    HW264818   2.553  13.792   7.395 -0.7675 -0.8845  1.4055
82276SOL     OW64819  10.064  11.499  11.675 -0.3482  0.0331 -0.2730
82276SOL    HW164820  10.000  11.468  11.739  0.4322 -0.8489  0.1018
82276SOL    HW264821  10.130  11.543  11.728 -0.3985  0.5301 -0.6183
82277SOL     OW64822  12.381  10.522  14.006  0.5962  0.2817  0.0982
82277SOL    HW164823  12.467  10.550  14.037  1.5151 -1.3519 -0.8142
82277SOL    HW264824  12.319  10.581  14.049  2.0334  0.3837  2.1668
82278SOL     OW64825   3.870  12.952   5.235  0.0433 -0.3534 -0.1309
82278SOL    HW164826   3.911  12.993   5.311  0.1994 -0.6803 -0.0367
82278SOL    HW264827   3.853  12.861   5.262  0.7147 -0.6622 -0.7052
82279SOL     OW64828   9.438   4.514   9.486  0.0597  0.0784  0.1446
82279SOL    HW164829   9.468   4.468   9.565  2.4299  0.6024 -0.3546
82279SOL    HW264830   9.406   4.444   9.429  1.2081 -0.7004  0.3984
82280SOL     OW64831   3.868  13.934   8.412  0.1387  0.0080  0.0024
82280SOL    HW164832   3.862  13.841   8.391  0.5139 -0.0084 -0.0305
82280SOL    HW264833   3.779  13.966   8.400  0.1241 -0.2239 -0.5468
82281SOL     OW64834   0.757   1.593   8.566 -0.0130  0.3957 -0.2132
82281SOL    HW164835   0.820   1.647   8.615  1.7044  0.2626 -2.1509
82281SOL    HW264836   0.690   1.655   8.538  0.3769  0.9715  0.0884
82282SOL     OW64837   3.116  11.210   5.719 -0.2115  0.0316  0.0369
82282SOL    HW164838   3.025  11.242   5.721  0.0321  0.8818 -1.5484
82282SOL    HW264839   3.164  11.276   5.671  0.8863 -1.3450 -0.8303
82283SOL     OW64840  12.491  11.821   0.925  0.1725 -0.2908  0.2053
82283SOL    HW164841  12.487  11.740   0.874 -0.8949 -0.9426  1.2661
82283SOL    HW264842  12.506  11.890   0.860 -1.3249 -1.0594 -1.0332
82284SOL     OW64843   9.965  13.150   8.180  0.2337 -0.1360  0.0848
82284SOL    HW164844   9.933  13.240   8.182 -1.0884 -0.5487 -0.8685
82284SOL    HW264845   9.897  13.100   8.226  0.2005 -0.8494 -0.7295
82285SOL     OW64846   5.461  12.299   4.179  0.4543  0.0783 -0.0741
82285SOL    HW164847   5.379  12.299   4.129  0.7879  0.5242 -0.6422
82285SOL    HW264848   5.501  12.384   4.158  0.4994  0.3635  1.1271
82286SOL     OW64849   2.413   0.808  11.337 -0.1420 -0.0612  0.2548
82286SOL    HW164850   2.378   0.728  11.376  0.5888 -0.0003  1.0576
82286SOL    HW264851   2.393   0.877  11.401 -1.1722  0.4932 -0.6340
82287SOL     OW64852   3.763  11.853  13.295 -0.1445  0.4052 -0.1484
82287SOL    HW164853   3.847  11.880  13.333 -0.1520  0.4927 -0.1925
82287SOL    HW264854   3.736  11.928  13.242  0.3156 -0.0499 -1.0636
82288SOL     OW64855   5.140  13.963   8.956 -0.3345 -0.7788 -0.5958
82288SOL    HW164856   5.199  13.960   9.032 -0.0366 -0.1084 -0.8027
82288SOL    HW264857   5.052  13.958   8.994 -0.1540 -2.7575 -0.3345
82289SOL     OW64858  13.683  13.248   6.023  0.3498 -0.1382  0.7391
82289SOL    HW164859  13.722  13.266   6.108 -0.7739  0.7617  1.0757
82289SOL    HW264860  13.694  13.329   5.973  1.1613 -0.7153 -0.0464
82290SOL     OW64861   0.246   1.517   5.254  0.0224 -0.1219 -0.2262
82290SOL    HW164862   0.268   1.589   5.195  0.5967 -1.6797 -2.0011
82290SOL    HW264863   0.156   1.536   5.282 -0.2650  0.6970 -1.5835
82291SOL     OW64864  11.581   1.259  13.548 -0.4038 -0.2865 -0.8592
82291SOL    HW164865  11.534   1.310  13.614 -0.7315 -1.9896  0.2969
82291SOL    HW264866  11.529   1.267  13.468 -1.0461  0.2501 -0.3891
82292SOL     OW64867   4.979   1.334   3.681 -0.3176  0.2099 -0.0141
82292SOL    HW164868   4.975   1.330   3.585 -3.1736  2.0634 -0.0870
82292SOL    HW264869   4.969   1.243   3.709  0.5578 -0.3588 -1.4540
82293SOL     OW64870   9.373  13.468   4.209  0.7070 -0.7288  0.2344
82293SOL    HW164871   9.380  13.423   4.124 -1.0150 -0.1975 -0.2272
82293SOL    HW264872   9.385  13.398   4.274  0.3716 -1.4395 -0.4492
82294SOL     OW64873   9.280  13.660   2.087 -0.2998  0.1881 -0.4228
82294SOL    HW164874   9.264  13.742   2.041 -0.3555 -0.3586 -1.4191
82294SOL    HW264875   9.371  13.665   2.115 -0.8376  1.3888  1.2338
82295SOL     OW64876   5.530  10.424   7.469 -0.3098  0.3187 -0.0342
82295SOL    HW164877   5.447  10.460   7.439 -0.0264  1.4651  0.5251
82295SOL    HW264878   5.525  10.428   7.564 -0.4456 -1.5602  0.0703
82296SOL     OW64879   7.173  12.150  10.476 -0.1393 -0.0365 -0.3966
82296SOL    HW164880   7.124  12.132  10.557  0.7979  1.3157  0.5173
82296SOL    HW264881   7.135  12.231  10.442  0.7864  0.4901 -0.2087
82297SOL     OW64882   6.151   3.011  12.706  0.1572 -0.1538 -0.3480
82297SOL    HW164883   6.159   3.092  12.655 -2.4041 -0.4716 -1.4708
82297SOL    HW264884   6.093   3.035  12.778  0.0701 -0.7905 -0.2091
82298SOL     OW64885   6.666   7.820  12.135 -0.0309 -1.2353 -0.0961
82298SOL    HW164886   6.724   7.885  12.175  0.2653 -1.2556 -0.4881
82298SOL    HW264887   6.656   7.752  12.201  0.6830 -1.4060 -0.1652
82299SOL     OW64888   9.733   2.711   3.728  0.5294  0.1408 -0.6037
82299SOL    HW164889   9.660   2.760   3.764 -0.0675 -0.1401 -1.4040
82299SOL    HW264890   9.808   2.771   3.732 -0.6940  2.1576 -3.9349
82300SOL     OW64891  10.217  12.534  10.558  0.3994  0.7142  0.2698
82300SOL    HW164892  10.132  12.577  10.553 -0.6666 -1.3174 -0.2691
82300SOL    HW264893  10.240  12.539  10.651 -0.9767  0.1562  0.6792
82301SOL     OW64894   8.470   6.346   8.533  0.4889  0.0171  0.2525
82301SOL    HW164895   8.545   6.401   8.555 -0.2722  1.4099 -0.4812
82301SOL    HW264896   8.431   6.324   8.618  1.9308 -1.0799  0.6687
82302SOL     OW64897  12.055  10.613   4.787 -0.7873 -0.3007  0.0082
82302SOL    HW164898  12.073  10.636   4.695 -0.5922  0.2648  0.1824
82302SOL    HW264899  12.063  10.696   4.834 -2.7694 -0.2235  0.2686
82303SOL     OW64900  11.857   4.340   1.868  0.3235  0.4610 -0.1167
82303SOL    HW164901  11.895   4.423   1.898 -2.1849  0.6065  3.1162
82303SOL    HW264902  11.785   4.366   1.811 -0.2974  0.4943  0.6839
82304SOL     OW64903  13.849  12.539  10.677 -0.0791 -0.1173 -0.2059
82304SOL    HW164904  13.876  12.631  10.674  1.2403 -0.5103 -0.8557
82304SOL    HW264905  13.789  12.530  10.603  0.3288  0.0609 -0.5609
82305SOL     OW64906   3.465  13.775   6.060  0.4828 -0.6085 -0.2077
82305SOL    HW164907   3.383  13.808   6.023  0.0512  0.4293  1.5631
82305SOL    HW264908   3.457  13.680   6.055 -0.9052 -0.5267  0.0712
82306SOL     OW64909   8.710  13.542   5.603  1.0607 -0.1976 -0.5203
82306SOL    HW164910   8.623  13.550   5.644  1.7638 -1.6088  1.4052
82306SOL    HW264911   8.766  13.509   5.673  2.9027 -0.4471 -2.0488
82307SOL     OW64912   2.561   5.754   4.128 -0.5910 -0.0575 -0.0327
82307SOL    HW164913   2.628   5.785   4.067 -1.2628 -0.1727 -0.8583
82307SOL    HW264914   2.484   5.737   4.072 -0.7881 -1.5095  0.6335
82308SOL     OW64915  11.772   2.458   2.862  0.7476 -0.0188 -0.2324
82308SOL    HW164916  11.708   2.390   2.886 -1.3190  2.1368  0.8654
82308SOL    HW264917  11.741   2.491   2.778  0.4001  0.9916  0.2714
82309SOL     OW64918   0.050   0.284   3.047 -0.0217  0.4730 -1.1214
82309SOL    HW164919  -0.041   0.311   3.038 -0.7276 -0.9992  0.8088
82309SOL    HW264920   0.046   0.190   3.065  1.8692  0.4068 -0.8243
82310SOL     OW64921   5.451   7.507   2.497  0.5555  0.4512  0.7071
82310SOL    HW164922   5.459   7.587   2.445  0.4905 -0.0832 -0.1644
82310SOL    HW264923   5.492   7.440   2.442 -1.5532 -0.5868  0.2969
82311SOL     OW64924  11.929   0.243   6.629 -0.0194  0.7090  0.5277
82311SOL    HW164925  11.946   0.323   6.679 -0.3274  0.6571  0.7181
82311SOL    HW264926  11.910   0.177   6.696  0.1941  0.4870  0.3692
82312SOL     OW64927  11.703   4.397   5.562  0.1361  0.2103 -0.6305
82312SOL    HW164928  11.658   4.321   5.525  0.0310  0.0341 -0.1391
82312SOL    HW264929  11.651   4.422   5.638  0.4615  0.4548 -0.4861
82313SOL     OW64930   9.082   1.149   9.178 -0.4436  0.5876  0.4947
82313SOL    HW164931   9.113   1.227   9.225  1.8073  0.1881 -0.1985
82313SOL    HW264932   9.144   1.080   9.204 -0.1348 -0.0420 -1.7466
82314SOL     OW64933   0.798   7.826   1.164 -0.3196  0.3359  0.3297
82314SOL    HW164934   0.827   7.735   1.171 -0.1754  0.0348 -2.8927
82314SOL    HW264935   0.705   7.823   1.183 -0.4126 -0.5909 -0.2191
82315SOL     OW64936   5.772   9.497   3.926 -0.3963  0.5768  0.3095
82315SOL    HW164937   5.796   9.581   3.886 -1.2349  1.4325  1.5550
82315SOL    HW264938   5.799   9.432   3.861 -1.5629  1.8879 -1.6026
82316SOL     OW64939   9.095   6.260   6.036 -0.1868  0.4298 -0.7183
82316SOL    HW164940   9.028   6.217   6.090  0.4992 -0.8856 -0.8690
82316SOL    HW264941   9.062   6.254   5.947 -0.1378  0.3108 -0.7283
82317SOL     OW64942   5.807   6.629   2.533  0.1082 -0.3108 -0.9816
82317SOL    HW164943   5.748   6.576   2.479 -0.8583  1.9497 -2.3039
82317SOL    HW264944   5.820   6.709   2.482  6.4779 -1.5310 -2.1570
82318SOL     OW64945   4.601   4.025  14.027 -0.0439  0.0580  0.1432
82318SOL    HW164946   4.544   4.049  13.954  1.2700  0.3676 -0.8124
82318SOL    HW264947   4.591   4.098  14.089 -0.2885  0.3592 -0.2423
82319SOL     OW64948   9.739   5.290   9.317  0.4182  0.4743 -0.1073
82319SOL    HW164949   9.695   5.211   9.349  0.6040  0.5866  0.4431
82319SOL    HW264950   9.831   5.266   9.314  0.7384  1.2511  1.9537
82320SOL     OW64951   6.723  12.953  12.516  0.5178 -0.2560  0.2900
82320SOL    HW164952   6.699  13.018  12.451 -0.2272 -0.8483 -0.0354
82320SOL    HW264953   6.641  12.930  12.560  0.9851  0.0339  1.3441
82321SOL     OW64954   4.264   9.586   8.048 -0.7931  0.4506 -0.0281
82321SOL    HW164955   4.322   9.515   8.074 -0.1031  0.5507 -1.2667
82321SOL    HW264956   4.305   9.665   8.084 -0.4929  0.4549 -0.3873
82322SOL     OW64957  12.846  13.814   3.813  0.3163  0.3595 -0.1712
82322SOL    HW164958  12.863  13.766   3.894 -1.4320  0.0040  0.0167
82322SOL    HW264959  12.839  13.747   3.746  0.6011  0.5698 -0.4159
82323SOL     OW64960   6.735   1.796   1.424 -0.0412 -0.0558 -0.0567
82323SOL    HW164961   6.678   1.737   1.376  1.2566 -1.5521  0.1718
82323SOL    HW264962   6.823   1.759   1.412  0.8475  1.9040 -0.0289
82324SOL     OW64963  12.716   2.878   8.698  0.1485 -0.6481 -0.4537
82324SOL    HW164964  12.778   2.921   8.757  0.1187  0.3719 -1.1326
82324SOL    HW264965  12.737   2.913   8.611 -0.5789 -1.2236 -0.8751
82325SOL     OW64966   2.270   7.205  13.635 -0.1938 -0.3094 -0.1004
82325SOL    HW164967   2.340   7.247  13.685 -1.0924  0.5540  0.4623
82325SOL    HW264968   2.280   7.111  13.654 -0.3959 -0.0217  1.5901
82326SOL     OW64969  12.178   6.069  11.577  0.0361 -0.3604  0.2837
82326SOL    HW164970  12.225   5.985  11.577  1.2122  0.2515  1.8323
82326SOL    HW264971  12.086   6.044  11.575  0.3272 -1.7572  1.8202
82327SOL     OW64972  10.056   6.718   2.594  0.0388 -0.4397 -0.0782
82327SOL    HW164973  10.038   6.677   2.510 -1.0197  1.2425 -0.7242
82327SOL    HW264974   9.999   6.672   2.656 -1.1137 -0.0028 -0.7822
82328SOL     OW64975   2.385   8.931   6.488 -0.3735  0.0568  0.0249
82328SOL    HW164976   2.324   8.975   6.547 -0.9733  2.0190 -1.9114
82328SOL    HW264977   2.462   8.988   6.488 -0.5568  0.3272 -1.3763
82329SOL     OW64978   7.551   9.503   5.309 -0.2550  0.1753 -0.3896
82329SOL    HW164979   7.612   9.457   5.367  0.1400  2.3914  1.0695
82329SOL    HW264980   7.602   9.576   5.274 -1.2133  0.2803 -1.6300
82330SOL     OW64981  10.248  14.115   1.615  0.7584  0.2329  0.2233
82330SOL    HW164982  10.217  14.054   1.681 -0.0059  0.6638  0.2672
82330SOL    HW264983  10.228  14.073   1.531 -1.4019  1.1554  0.2043
82331SOL     OW64984   3.024  12.755   3.849  0.0592  0.0341 -0.0919
82331SOL    HW164985   3.114  12.768   3.881  0.2229 -1.1832 -0.0044
82331SOL    HW264986   3.027  12.671   3.803 -0.8668  0.3539 -0.7652
82332SOL     OW64987   0.987   3.157  10.734  0.9568  0.1863 -0.6275
82332SOL    HW164988   1.001   3.062  10.732  0.8111  0.1752 -1.5912
82332SOL    HW264989   0.936   3.172  10.814 -2.4047 -1.0744 -2.3145
82333SOL     OW64990   7.688   9.403  10.049 -0.1763 -0.3565  0.7434
82333SOL    HW164991   7.676   9.436  10.138 -1.1460  1.2559  0.0545
82333SOL    HW264992   7.781   9.379  10.044 -0.2542 -1.1232  2.3633
82334SOL     OW64993   4.724   0.482  11.949 -0.0333 -0.5287  0.3006
82334SOL    HW164994   4.655   0.419  11.930  1.0735 -1.5991 -0.3526
82334SOL    HW264995   4.798   0.451  11.896  0.5842  1.2430  0.0848
82335SOL     OW64996   8.726   0.763   6.656  0.3133 -1.2157 -0.1836
82335SOL    HW164997   8.640   0.800   6.678  0.6321 -0.1914 -0.5876
82335SOL    HW264998   8.730   0.766   6.561  0.9972 -0.7500 -0.1493
82336SOL     OW64999   1.440   5.069   0.458 -0.2457  0.8430  0.3012
82336SOL    HW165000   1.387   5.015   0.516 -0.4343  0.7125  0.0139
82336SOL    HW265001   1.453   5.015   0.380  1.7332  0.2118  1.0117
82337SOL     OW65002   8.659  10.295   1.643  0.2610 -0.5605  0.2459
82337SOL    HW165003   8.662  10.234   1.569  2.1540 -1.0271  0.6486
82337SOL    HW265004   8.575  10.340   1.634  0.7914  0.0332 -2.6930
82338SOL     OW65005   1.286   1.904  10.855 -0.1516 -0.2289  0.0755
82338SOL    HW165006   1.353   1.944  10.800  1.8027 -1.3725  1.5390
82338SOL    HW265007   1.266   1.971  10.921  0.1893 -0.1850  0.1369
82339SOL     OW65008   7.505   2.067   0.708  0.6213 -0.2692  0.0917
82339SOL    HW165009   7.411   2.052   0.717  0.5118  0.8769  0.9586
82339SOL    HW265010   7.537   1.987   0.664 -0.4536 -1.4820  1.4106
82340SOL     OW65011  12.098   1.905   8.947 -0.1945 -0.3877  0.2615
82340SOL    HW165012  12.130   1.815   8.951  0.4497 -0.4306 -2.9391
82340SOL    HW265013  12.174   1.959   8.966  0.2389 -0.5353 -0.9831
82341SOL     OW65014   1.247  10.505  10.521 -0.9943  0.5666  0.1150
82341SOL    HW165015   1.327  10.542  10.484 -1.0208 -0.5414 -1.0947
82341SOL    HW265016   1.187  10.497  10.448 -1.2774 -1.0695  0.4713
82342SOL     OW65017  13.128   3.143   4.131  0.0432 -0.1657  0.3960
82342SOL    HW165018  13.072   3.218   4.110 -0.5251 -0.2957  1.3971
82342SOL    HW265019  13.136   3.096   4.048 -1.5980 -0.3133  0.2820
82343SOL     OW65020   3.270  10.284  12.996  0.8003  0.8774 -0.2899
82343SOL    HW165021   3.314  10.363  13.028  2.8881 -0.3552  0.0499
82343SOL    HW265022   3.340  10.229  12.962 -0.7990 -0.1150 -2.1764
82344SOL     OW65023   3.897   3.534   2.989  0.0987 -0.2596  0.0849
82344SOL    HW165024   3.972   3.514   2.933 -0.9875 -0.7779 -1.2297
82344SOL    HW265025   3.893   3.460   3.049  0.4480 -0.3869 -0.0404
82345SOL     OW65026  11.537   0.722   8.890  0.2972  0.3591  0.3815
82345SOL    HW165027  11.580   0.661   8.829 -0.1249 -0.2223  0.6509
82345SOL    HW265028  11.561   0.689   8.977 -1.8516 -0.8985  0.5872
82346SOL     OW65029   9.922   9.809  13.256 -0.1663 -0.0480  0.0365
82346SOL    HW165030   9.896   9.823  13.347  0.7515 -0.3983  0.3665
82346SOL    HW265031   9.929   9.898  13.220 -0.7109  0.0867  0.2472
82347SOL     OW65032  11.320   5.695   0.659 -0.5855  0.3993  1.0286
82347SOL    HW165033  11.397   5.713   0.713 -0.3655 -1.2082  1.3185
82347SOL    HW265034  11.290   5.609   0.689 -1.4212  0.1942 -0.3227
82348SOL     OW65035   5.750   4.449  10.784 -0.3233 -0.5923 -0.1799
82348SOL    HW165036   5.773   4.517  10.848  0.4161 -0.4444 -0.5912
82348SOL    HW265037   5.657   4.433  10.798 -0.1675 -0.6007  0.9789
82349SOL     OW65038  10.685   4.776   6.024 -0.7159 -0.0674  0.1332
82349SOL    HW165039  10.742   4.769   5.947 -0.1010  1.9859  0.3508
82349SOL    HW265040  10.745   4.769   6.099 -1.0781 -0.2617  0.4120
82350SOL     OW65041  10.804  12.512  10.760 -0.8439 -0.9045  0.4394
82350SOL    HW165042  10.770  12.569  10.691 -2.3145  1.5581  2.9673
82350SOL    HW265043  10.773  12.424  10.736 -2.3158  0.0509 -1.4249
82351SOL     OW65044  13.666   6.318   0.260  0.3989 -0.2093 -0.0557
82351SOL    HW165045  13.588   6.362   0.225 -2.3662 -2.3835  2.8442
82351SOL    HW265046  13.685   6.250   0.195 -2.1749 -1.6584  0.5654
82352SOL     OW65047  12.542   0.455  10.641 -0.5386  0.7815  0.4257
82352SOL    HW165048  12.499   0.410  10.713 -1.1069  1.0057  0.2313
82352SOL    HW265049  12.622   0.405  10.625 -1.5623 -0.6499 -0.3450
82353SOL     OW65050   9.229   7.631   8.856 -0.0046 -0.4744  0.5828
82353SOL    HW165051   9.196   7.686   8.785 -1.7888  0.5291  2.1220
82353SOL    HW265052   9.314   7.668   8.877  0.2822 -0.4078 -0.5839
82354SOL     OW65053  10.238   7.234   0.933 -0.0684 -0.0176  0.9623
82354SOL    HW165054  10.321   7.226   0.980 -0.4092  0.5142  1.6668
82354SOL    HW265055  10.245   7.169   0.862  0.9775  0.0821  0.9521
82355SOL     OW65056  13.215   9.957   9.527 -0.0015 -0.1862  0.0403
82355SOL    HW165057  13.267  10.037   9.524 -1.2520  0.6705  0.1096
82355SOL    HW265058  13.128   9.987   9.554 -0.7783 -1.4270 -0.9666
82356SOL     OW65059   6.642  13.501   2.810 -0.0531  0.1555  0.3033
82356SOL    HW165060   6.717  13.535   2.858 -0.6313  0.7723  0.7802
82356SOL    HW265061   6.571  13.497   2.874 -0.7637  0.7493 -0.4175
82357SOL     OW65062   7.275   1.218  11.300 -0.0195 -0.5175 -0.1471
82357SOL    HW165063   7.360   1.246  11.264 -0.1436  1.3726  0.8923
82357SOL    HW265064   7.226   1.188  11.224  1.0451 -0.1823 -1.0034
82358SOL     OW65065  11.834  11.813   4.864  1.0184 -0.5000 -0.5227
82358SOL    HW165066  11.887  11.862   4.801  1.4867  1.0162  0.9853
82358SOL    HW265067  11.859  11.722   4.850  3.2030  0.0598 -0.6655
82359SOL     OW65068  12.287   8.051  13.349 -0.4007  0.4372 -0.0317
82359SOL    HW165069  12.200   8.015  13.328  0.5286 -0.5936 -2.5877
82359SOL    HW265070  12.313   8.005  13.428 -0.9829 -1.5444 -0.9138
82360SOL     OW65071   4.848   2.016  12.395 -0.1839  0.0758  0.0628
82360SOL    HW165072   4.808   2.099  12.369  1.3872  0.5102 -1.1292
82360SOL    HW265073   4.828   2.008  12.488 -0.3837  1.7962  0.2033
82361SOL     OW65074   1.970   9.557  10.864  0.1426  0.2681  0.0724
82361SOL    HW165075   1.989   9.578  10.955  0.9292  0.3293 -0.1053
82361SOL    HW265076   1.959   9.641  10.821 -0.0704  0.2405  0.0682
82362SOL     OW65077  10.908  11.292   2.558  0.6191 -0.6188 -0.3785
82362SOL    HW165078  10.994  11.250   2.562  0.7804 -0.3798 -1.2119
82362SOL    HW265079  10.910  11.356   2.629  0.2086 -2.2707  1.1915
82363SOL     OW65080  11.622   8.082   1.699 -0.2539  0.3539  0.0471
82363SOL    HW165081  11.670   8.033   1.766 -0.9452 -0.4866 -0.0395
82363SOL    HW265082  11.582   8.155   1.747 -4.0055 -2.3466  1.5284
82364SOL     OW65083   5.349  11.502   0.579 -0.4533  0.5400  0.0846
82364SOL    HW165084   5.390  11.445   0.643 -0.4986 -0.1857 -0.5149
82364SOL    HW265085   5.291  11.559   0.630  1.2538  1.5602  0.9359
82365SOL     OW65086  14.047  11.791   6.428 -0.3383 -0.2366 -0.3958
82365SOL    HW165087  14.102  11.834   6.362  0.4616  0.0174  0.4181
82365SOL    HW265088  14.010  11.715   6.383  0.0288  0.0449 -1.1885
82366SOL     OW65089   9.667   8.633   9.151  0.0316 -0.2476  0.1635
82366SOL    HW165090   9.649   8.638   9.245 -2.0330 -1.4199 -0.1285
82366SOL    HW265091   9.755   8.595   9.146  1.1862  1.9849  1.5964
82367SOL     OW65092   6.677   1.405   2.090 -0.0306 -0.2489 -0.2989
82367SOL    HW165093   6.649   1.474   2.031 -0.1811 -1.4536 -1.6874
82367SOL    HW265094   6.684   1.327   2.035 -0.2748 -1.4500  1.2898
82368SOL     OW65095  10.980   2.141  13.060  0.1391 -0.1935  0.1497
82368SOL    HW165096  10.942   2.219  13.019 -1.6752 -1.1009  0.0285
82368SOL    HW265097  10.976   2.160  13.154 -2.5179 -1.0198  0.2842
82369SOL     OW65098   9.998  11.368   8.071  0.5169 -0.0554 -0.1947
82369SOL    HW165099   9.950  11.285   8.072 -0.0177  0.2523  0.2459
82369SOL    HW265100   9.930  11.435   8.079  0.9447  0.4312 -0.5499
82370SOL     OW65101   9.204   6.977   2.339 -0.4961  0.4915 -0.5019
82370SOL    HW165102   9.150   7.021   2.404 -0.4642 -0.9031  0.5218
82370SOL    HW265103   9.161   6.892   2.325  2.3247 -1.5424  1.8440
82371SOL     OW65104   7.539   1.753   0.815 -0.1405  1.1124  0.0546
82371SOL    HW165105   7.593   1.831   0.825  2.7060 -0.7093  0.2992
82371SOL    HW265106   7.518   1.750   0.722 -1.3888  2.7655  0.2433
82372SOL     OW65107  13.625   0.582  10.021 -0.5335  0.3843  0.2846
82372SOL    HW165108  13.650   0.491  10.009  0.3103  0.7996 -1.3473
82372SOL    HW265109  13.584   0.584  10.108 -1.7254 -1.7568 -0.1729
82373SOL     OW65110  12.800   2.999   1.492 -1.0250 -0.0763 -0.0839
82373SOL    HW165111  12.813   2.998   1.587 -0.4923 -1.5227 -0.1447
82373SOL    HW265112  12.725   3.057   1.478 -1.6449 -0.5086  1.2956
82374SOL     OW65113  10.777   7.122  13.979  0.4147  0.2469 -0.4148
82374SOL    HW165114  10.712   7.191  13.989  1.2562  1.3460 -2.1930
82374SOL    HW265115  10.726   7.043  13.959 -0.4562  0.6262  0.2276
82375SOL     OW65116   3.752   6.306  10.291  0.4158  0.0400  0.6137
82375SOL    HW165117   3.695   6.259  10.351 -1.6954  1.5204 -0.1072
82375SOL    HW265118   3.749   6.397  10.320  0.9353  0.4536 -0.5345
82376SOL     OW65119  13.936  11.337  13.197 -0.8240  0.3054  0.0529
82376SOL    HW165120  13.873  11.296  13.138  0.0034 -1.6534  0.4649
82376SOL    HW265121  14.007  11.366  13.141 -0.0822 -1.4710 -0.0051
82377SOL     OW65122  10.816   5.631   9.051 -0.1863 -0.1794  0.2483
82377SOL    HW165123  10.751   5.588   8.995  0.2505  0.1671 -0.5343
82377SOL    HW265124  10.859   5.560   9.098 -0.8581 -0.4405  0.4778
82378SOL     OW65125   7.311   6.038   3.459 -0.1677 -0.2319 -0.5918
82378SOL    HW165126   7.393   6.047   3.509 -0.0517 -1.3028 -0.5602
82378SOL    HW265127   7.340   6.027   3.368 -0.2478 -1.2026 -0.5025
82379SOL     OW65128   7.802   3.550   4.920  0.1195 -0.1385 -0.4580
82379SOL    HW165129   7.773   3.508   5.001 -2.9574  1.2053 -0.6968
82379SOL    HW265130   7.819   3.478   4.860 -1.3162 -1.1239  0.2627
82380SOL     OW65131   2.680   1.839   7.724 -0.4215  0.6983  0.2562
82380SOL    HW165132   2.633   1.915   7.757  0.9525  2.4266 -1.5516
82380SOL    HW265133   2.691   1.782   7.800 -3.7492  1.0221  1.1160
82381SOL     OW65134   3.704   1.490   9.925 -0.2466 -0.4639 -0.2108
82381SOL    HW165135   3.663   1.423   9.870 -1.9352 -0.6969  1.2460
82381SOL    HW265136   3.771   1.442   9.974  1.6706 -0.1480 -2.3419
82382SOL     OW65137  12.407   7.384  11.587  0.4266 -0.3774  0.2301
82382SOL    HW165138  12.365   7.339  11.661 -1.1064 -1.9200 -1.4552
82382SOL    HW265139  12.441   7.313  11.533  1.0894  0.6870 -0.7916
82383SOL     OW65140   7.797   3.312   8.308  0.0395 -0.4692  0.6652
82383SOL    HW165141   7.716   3.309   8.257  0.1893  0.2677  0.3597
82383SOL    HW265142   7.770   3.290   8.397 -0.2260 -1.7555  0.2778
82384SOL     OW65143   1.532   0.642   4.476 -0.7526  0.1158  0.1436
82384SOL    HW165144   1.590   0.642   4.400 -1.4919  1.7417 -0.4515
82384SOL    HW265145   1.444   0.630   4.440 -1.3478  2.9235  0.4555
82385SOL     OW65146   1.993   2.513   4.215 -0.2026  0.2517  0.3287
82385SOL    HW165147   2.062   2.446   4.208 -0.0648  0.2415  1.5355
82385SOL    HW265148   2.001   2.546   4.305 -0.1046  2.0836 -0.3079
82386SOL     OW65149   6.753   9.828   4.776 -0.0225 -0.4835  0.0452
82386SOL    HW165150   6.822   9.771   4.811 -1.6935 -2.1008  0.8987
82386SOL    HW265151   6.716   9.870   4.854 -0.0497  0.3363 -0.4055
82387SOL     OW65152   8.442  13.264   5.918 -0.5695 -1.1305 -0.1876
82387SOL    HW165153   8.426  13.255   5.824 -1.0719 -0.7187 -0.1488
82387SOL    HW265154   8.530  13.228   5.931  0.8683  1.7177 -1.3122
82388SOL     OW65155  12.036   1.907   5.652  0.7762 -0.2392  0.4237
82388SOL    HW165156  11.948   1.888   5.621  1.3440 -1.4542 -0.5139
82388SOL    HW265157  12.032   1.892   5.747 -0.0000 -0.3938  0.3677
82389SOL     OW65158   6.940  12.423   4.960 -0.1467  0.2007  0.2556
82389SOL    HW165159   6.973  12.341   4.997  2.0365  0.7772 -0.2962
82389SOL    HW265160   6.938  12.484   5.034 -1.2745 -0.1830  0.5577
82390SOL     OW65161   7.783  10.633  11.820 -0.1823 -0.1429  0.5601
82390SOL    HW165162   7.736  10.657  11.741 -0.0773  0.9141  0.8061
82390SOL    HW265163   7.813  10.716  11.857  0.3584 -0.6676  1.3458
82391SOL     OW65164   8.157   4.204   2.138 -0.3968  0.2172  0.0594
82391SOL    HW165165   8.136   4.274   2.200  0.3738 -0.3202  0.9646
82391SOL    HW265166   8.252   4.191   2.148 -0.4159 -0.4827 -0.5883
82392SOL     OW65167   4.889   5.150  13.956 -0.7550  0.3376 -0.4964
82392SOL    HW165168   4.974   5.169  13.914 -0.9170  1.8043 -0.2178
82392SOL    HW265169   4.894   5.057  13.979  1.1215  0.5705  0.2571
82393SOL     OW65170   4.844   4.439   7.141  0.5348 -0.1761 -0.2268
82393SOL    HW165171   4.800   4.484   7.213  0.2660 -1.7094  0.6039
82393SOL    HW265172   4.793   4.359   7.128  1.8437 -0.9706 -0.6736
82394SOL     OW65173   0.492   6.900   6.132  0.1960  0.0615 -0.4338
82394SOL    HW165174   0.507   6.932   6.043 -0.3997  1.9109  0.0938
82394SOL    HW265175   0.514   6.807   6.127  0.9738  0.2853 -2.3094
82395SOL     OW65176   8.057  12.711   7.792 -0.3733 -0.1206  0.3898
82395SOL    HW165177   8.140  12.752   7.766 -0.9178 -0.2150 -1.6692
82395SOL    HW265178   8.077  12.618   7.799 -0.7914 -0.6076 -2.9364
82396SOL     OW65179   6.899   8.739   2.133 -0.1731 -0.2824 -0.1220
82396SOL    HW165180   6.853   8.811   2.177  0.4508  0.3568 -0.4933
82396SOL    HW265181   6.873   8.661   2.182  0.0802  0.3416  1.0483
82397SOL     OW65182   1.332   9.365   4.573 -0.3317  0.4383  0.0368
82397SOL    HW165183   1.416   9.351   4.529 -0.0250 -1.4913  1.1147
82397SOL    HW265184   1.347   9.439   4.631  0.0106  1.3845 -1.2273
82398SOL     OW65185   3.303  10.969   7.545  0.1970  0.1933  0.5371
82398SOL    HW165186   3.332  10.900   7.605  1.2838  2.0072  2.2097
82398SOL    HW265187   3.379  10.984   7.488 -0.4512 -0.7676 -0.6101
82399SOL     OW65188  10.540  10.884   7.756 -0.2735  0.7970  0.7447
82399SOL    HW165189  10.560  10.896   7.849  0.0522  0.3364  0.7335
82399SOL    HW265190  10.624  10.866   7.715 -0.4039  1.0935  0.3387
82400SOL     OW65191   9.398  11.958   8.164  0.0171  0.6264 -1.0714
82400SOL    HW165192   9.304  11.946   8.147 -0.2554 -1.0106  1.0550
82400SOL    HW265193   9.441  11.895   8.106 -0.3934 -0.1011 -0.6163
82401SOL     OW65194   1.572   5.433   1.556 -0.1082  0.3585 -0.0172
82401SOL    HW165195   1.553   5.526   1.549 -0.9526  0.2103  0.1081
82401SOL    HW265196   1.617   5.423   1.640  2.0511  0.9431 -1.0518
82402SOL     OW65197   3.997  10.658  13.114 -0.5383 -0.3124 -0.0526
82402SOL    HW165198   3.926  10.641  13.177  0.0845 -0.6347  0.5726
82402SOL    HW265199   4.054  10.582  13.121 -0.5188 -0.4170 -1.1163
82403SOL     OW65200   1.525   7.389   8.146 -0.1370  0.6277  0.2261
82403SOL    HW165201   1.512   7.299   8.117  0.5132  0.2255  1.1462
82403SOL    HW265202   1.492   7.443   8.073  2.0715 -0.3208 -1.5789
82404SOL     OW65203   8.930  13.895   4.931  1.1841  0.4610  0.1653
82404SOL    HW165204   8.985  13.901   4.852 -2.0033 -0.3565 -2.3352
82404SOL    HW265205   8.869  13.968   4.923  0.1767 -0.2131  1.3239
82405SOL     OW65206   0.702   4.804  10.591 -0.0945  0.1422  0.2721
82405SOL    HW165207   0.621   4.836  10.632  1.0318  2.6831  0.6626
82405SOL    HW265208   0.676   4.720  10.552 -2.7598  0.5600  0.8976
82406SOL     OW65209   6.539  13.107   3.013 -0.7467 -0.1203  0.4609
82406SOL    HW165210   6.629  13.074   3.008 -0.7878 -0.3344  1.0882
82406SOL    HW265211   6.544  13.180   3.076 -0.9075  0.2345  0.0693
82407SOL     OW65212   6.883   1.584   1.786  0.2316 -0.1213  0.0597
82407SOL    HW165213   6.832   1.551   1.712 -0.6502 -0.2860  0.7109
82407SOL    HW265214   6.816   1.613   1.849  0.9182 -1.0997  1.2870
82408SOL     OW65215  12.592   1.066   9.440  0.1135 -0.1528  0.0551
82408SOL    HW165216  12.564   0.981   9.474 -1.7217  0.3398 -0.1145
82408SOL    HW265217  12.616   1.115   9.519 -2.0566  0.2554  0.5374
82409SOL     OW65218   4.637   5.363   9.083 -0.0333  0.6626  0.0834
82409SOL    HW165219   4.604   5.436   9.136  2.1604  1.5773  0.2857
82409SOL    HW265220   4.718   5.396   9.045 -0.1558 -0.9260 -1.6744
82410SOL     OW65221  10.734  13.044   3.393 -0.0322  0.5633 -0.3657
82410SOL    HW165222  10.654  13.057   3.341 -0.6675  0.3704  0.5303
82410SOL    HW265223  10.773  13.131   3.399  1.6068  0.1873 -3.5138
82411SOL     OW65224   8.575   0.178   7.091  0.7190  0.5471  0.4630
82411SOL    HW165225   8.499   0.135   7.130  0.1388 -0.2755 -1.4422
82411SOL    HW265226   8.644   0.113   7.096 -0.0300 -0.5622 -1.9859
82412SOL     OW65227   3.393  13.279  13.709 -0.2087  0.2771  0.2441
82412SOL    HW165228   3.441  13.323  13.639 -3.5011  1.3984 -1.5266
82412SOL    HW265229   3.404  13.186  13.692  1.3902  0.4821  0.0118
82413SOL     OW65230   8.713   3.995   1.379  0.9002 -0.0293  0.5480
82413SOL    HW165231   8.669   3.911   1.390  2.7476 -0.9269  1.5923
82413SOL    HW265232   8.677   4.051   1.447  1.8061 -0.9705  1.8493
82414SOL     OW65233  12.456  12.973   9.283 -0.0089  0.0239 -0.1234
82414SOL    HW165234  12.513  12.898   9.267 -0.2221  0.0980 -1.2418
82414SOL    HW265235  12.372  12.949   9.244 -0.0879  0.8271 -0.4680
82415SOL     OW65236   9.819   8.087   2.969  0.5883  0.0659 -0.0923
82415SOL    HW165237   9.761   8.034   2.915  0.7886 -2.5258  2.0404
82415SOL    HW265238   9.887   8.118   2.910  0.4855 -2.1302 -1.4566
82416SOL     OW65239   7.877   7.533   0.836  0.1410  0.0234 -0.1572
82416SOL    HW165240   7.908   7.535   0.926  1.4125  0.3721 -0.5767
82416SOL    HW265241   7.877   7.440   0.813  1.3771  0.0258 -0.2783
82417SOL     OW65242  12.742   2.548   9.021 -0.6337  0.4993  0.1040
82417SOL    HW165243  12.714   2.563   8.931 -1.2158 -1.2639 -0.0512
82417SOL    HW265244  12.816   2.487   9.012  0.2158  1.4082  0.7619
82418SOL     OW65245   0.424  12.415   3.600  0.2466  0.1992  0.1538
82418SOL    HW165246   0.348  12.402   3.543 -1.7890  1.7456  2.3115
82418SOL    HW265247   0.412  12.502   3.638  1.9693 -0.3555  2.1895
82419SOL     OW65248   6.006   1.194   0.613  0.2409  0.2083  0.2141
82419SOL    HW165249   6.040   1.214   0.700 -1.5647  0.6187  0.8666
82419SOL    HW265250   6.037   1.266   0.558  2.8141 -0.9086  0.0588
82420SOL     OW65251  10.865   0.150  10.333 -0.1782 -0.7437  0.5212
82420SOL    HW165252  10.837   0.101  10.410  0.0759 -0.7083  0.6389
82420SOL    HW265253  10.849   0.242  10.355 -1.6714 -0.8335 -0.1220
82421SOL     OW65254   7.943   9.525   4.493 -0.0896 -0.0150  0.3223
82421SOL    HW165255   7.972   9.439   4.463  0.1664 -0.1650  0.9793
82421SOL    HW265256   7.865   9.508   4.545 -2.3346  0.5211 -2.6158
82422SOL     OW65257   5.295   6.368   5.914 -0.3011  0.7757 -0.1275
82422SOL    HW165258   5.274   6.275   5.905 -0.6812  0.8570 -0.1092
82422SOL    HW265259   5.367   6.371   5.977 -0.6299  0.5356  0.2608
82423SOL     OW65260  13.223   5.573  13.555 -0.5221 -0.1340  0.0393
82423SOL    HW165261  13.208   5.621  13.637 -3.0340  0.9656 -0.9567
82423SOL    HW265262  13.239   5.642  13.490 -1.2631 -0.8175 -0.8873
82424SOL     OW65263   2.430   4.588  10.097 -0.1448  0.2066 -0.9167
82424SOL    HW165264   2.349   4.633  10.072 -0.1425  0.2027 -0.9315
82424SOL    HW265265   2.404   4.532  10.171 -0.8521 -2.0263 -2.7288
82425SOL     OW65266   5.110  13.058   2.422  0.2024 -0.0351 -0.0418
82425SOL    HW165267   5.183  13.113   2.452  0.9432 -1.3086  0.5425
82425SOL    HW265268   5.142  13.017   2.342 -0.1383 -0.0837 -0.1553
82426SOL     OW65269   1.697  10.869   0.070 -0.1405  0.4241 -0.6655
82426SOL    HW165270   1.660  10.815   0.140  1.5570 -0.1350 -0.1526
82426SOL    HW265271   1.621  10.910   0.029 -1.2839 -0.3602  0.5768
82427SOL     OW65272   8.772   7.089  11.654  0.1498  0.0891  0.3908
82427SOL    HW165273   8.758   7.171  11.606  2.1515  0.3107  0.1096
82427SOL    HW265274   8.847   7.107  11.711  2.7394 -2.3895 -1.9191
82428SOL     OW65275  11.981   1.977   3.238 -0.4733  0.1809 -0.3888
82428SOL    HW165276  12.023   1.940   3.160  0.9711 -0.9732  0.8948
82428SOL    HW265277  11.962   1.902   3.294 -0.2245  1.1054  0.9774
82429SOL     OW65278  11.517   3.686   1.337 -0.0367 -0.0008  0.1787
82429SOL    HW165279  11.605   3.653   1.355 -0.9177 -2.1769  0.7615
82429SOL    HW265280  11.490   3.728   1.419  0.4157  0.6432  0.0087
82430SOL     OW65281   6.081   9.749   6.440 -0.4258 -0.1263 -0.2108
82430SOL    HW165282   6.147   9.813   6.414 -0.0608  0.1233  1.2511
82430SOL    HW265283   6.002   9.775   6.393  0.1414  0.4047 -0.8936
82431SOL     OW65284  10.409   6.941   4.521  0.6002 -0.1614  0.7416
82431SOL    HW165285  10.436   7.031   4.542  3.4078 -0.7992  0.2949
82431SOL    HW265286  10.365   6.949   4.436 -1.1529  1.0149  1.7033
82432SOL     OW65287   1.330   8.049  14.035  0.2540  0.7395  0.3913
82432SOL    HW165288   1.355   7.957  14.048  1.0234  0.6825 -1.2089
82432SOL    HW265289   1.326   8.085  14.124  1.7195 -0.4024  0.9804
82433SOL     OW65290   6.054   8.362  13.516 -0.5540  0.3089  0.3592
82433SOL    HW165291   6.144   8.363  13.482 -0.3156  2.6975  0.8239
82433SOL    HW265292   5.999   8.350  13.439  0.1411 -1.5949  0.1152
82434SOL     OW65293  11.168  13.563   4.376 -0.0005 -0.6581  0.0385
82434SOL    HW165294  11.249  13.606   4.350  0.1932 -0.7958  0.4140
82434SOL    HW265295  11.132  13.528   4.294  1.5707 -2.7361  0.1604
82435SOL     OW65296   6.376  10.164   4.516 -0.3095  0.2042 -0.4215
82435SOL    HW165297   6.318  10.091   4.537 -0.5787  0.7988  1.0251
82435SOL    HW265298   6.322  10.242   4.529 -0.0784  0.6859 -2.1129
82436SOL     OW65299  10.553   5.906  13.686 -0.0889  0.3553 -0.4901
82436SOL    HW165300  10.602   5.838  13.641 -0.0997  0.4489 -0.6440
82436SOL    HW265301  10.462   5.887  13.668 -0.2101 -0.6828  1.0006
82437SOL     OW65302  13.612  10.693  12.913 -0.2689  0.1356 -0.3201
82437SOL    HW165303  13.644  10.653  12.994  1.0204  0.7401 -0.5134
82437SOL    HW265304  13.517  10.683  12.918 -0.1892 -0.1453  1.1025
82438SOL     OW65305   7.989  13.563   7.860 -0.4299  0.1485 -0.0559
82438SOL    HW165306   8.030  13.646   7.835  2.7250 -1.6693 -1.6474
82438SOL    HW265307   8.007  13.555   7.953  0.7590  0.5470 -0.2313
82439SOL     OW65308  10.827  11.856   6.360  0.3788  0.3372 -0.1979
82439SOL    HW165309  10.856  11.838   6.449 -0.7905 -1.0353 -0.0563
82439SOL    HW265310  10.735  11.830   6.359  0.4668 -0.0340 -1.9001
82440SOL     OW65311   2.446   9.172   9.148 -0.4671  0.2078  0.0170
82440SOL    HW165312   2.514   9.115   9.113 -2.1910 -3.0536  1.4991
82440SOL    HW265313   2.475   9.192   9.237 -1.2106 -0.9410  0.5466
82441SOL     OW65314   6.808   8.201   9.711  0.2648  0.2464 -0.2117
82441SOL    HW165315   6.769   8.114   9.721  1.1424 -0.3569 -1.7460
82441SOL    HW265316   6.866   8.193   9.636  0.0099  2.2912 -0.6853
82442SOL     OW65317  11.825  10.051   5.932  0.2253  0.0390  0.2850
82442SOL    HW165318  11.749  10.107   5.916 -1.6268 -2.0539  1.2029
82442SOL    HW265319  11.858  10.030   5.845 -0.3642  0.8127 -0.1444
82443SOL     OW65320   0.399  11.609   3.085  0.1443 -0.1790 -0.6989
82443SOL    HW165321   0.335  11.661   3.134  1.7941  1.2317  0.0670
82443SOL    HW265322   0.356  11.591   3.001 -1.1353  0.9866 -0.3332
82444SOL     OW65323   5.919  11.092  13.051  0.3505  0.1825  0.0762
82444SOL    HW165324   5.901  11.014  13.103 -1.8721  0.3926 -0.2636
82444SOL    HW265325   5.914  11.062  12.960  0.4498  0.5202 -0.0424
82445SOL     OW65326   9.424  12.493   5.432 -0.2187 -0.3090 -0.0991
82445SOL    HW165327   9.405  12.573   5.480 -0.2344 -0.7742  0.6922
82445SOL    HW265328   9.438  12.427   5.500 -0.3365 -1.0077 -0.7363
82446SOL     OW65329   2.295  12.846   1.963 -0.0932 -0.4984  0.0845
82446SOL    HW165330   2.242  12.875   2.038 -0.6391 -2.9844  0.7267
82446SOL    HW265331   2.280  12.913   1.896 -0.3927  1.2666  1.8198
82447SOL     OW65332   8.219   4.709  11.553 -0.8697 -0.3298  0.0946
82447SOL    HW165333   8.129   4.677  11.548 -0.7390 -0.6739 -0.0983
82447SOL    HW265334   8.268   4.639  11.595 -0.4330 -0.7220 -1.0205
82448SOL     OW65335   0.052  11.960   4.243  0.3116 -0.4366 -0.4909
82448SOL    HW165336   0.057  11.868   4.270  1.1724 -1.4489 -3.5701
82448SOL    HW265337   0.089  11.960   4.154 -0.7979  2.7003 -1.0728
82449SOL     OW65338   7.476  11.081  10.971  0.0025 -0.0917 -0.0919
82449SOL    HW165339   7.551  11.027  10.997 -1.6225 -0.5197  4.7445
82449SOL    HW265340   7.491  11.165  11.014 -2.0072 -0.0556  0.6599
82450SOL     OW65341  13.667   8.372   2.779  0.1628 -0.1980  0.0560
82450SOL    HW165342  13.652   8.336   2.692 -0.6773 -1.7264  0.7896
82450SOL    HW265343  13.671   8.295   2.836  0.1969  0.7989  1.4447
82451SOL     OW65344   6.302   9.582   8.731  0.4723 -0.5505 -0.0784
82451SOL    HW165345   6.304   9.662   8.783 -1.2719 -0.5742  0.0935
82451SOL    HW265346   6.278   9.610   8.643  0.1252 -0.8507 -0.0825
82452SOL     OW65347   5.123   3.646  11.405 -0.3932  0.0038  0.0167
82452SOL    HW165348   5.089   3.697  11.478 -0.6285 -1.6176  1.0885
82452SOL    HW265349   5.045   3.622  11.354 -0.7035 -1.8512  1.2546
82453SOL     OW65350   1.925   0.722  13.824 -0.2334 -0.1478 -0.0183
82453SOL    HW165351   1.997   0.693  13.880 -1.2107  1.1618  1.9871
82453SOL    HW265352   1.870   0.777  13.880 -1.8386  0.3764 -1.9802
82454SOL     OW65353   1.421   9.133   8.843 -0.2561  0.0174 -0.4145
82454SOL    HW165354   1.396   9.144   8.935  0.3553 -0.6864 -0.1578
82454SOL    HW265355   1.398   9.042   8.823 -2.2165  0.6924 -1.5471
82455SOL     OW65356   7.541  12.860   1.363 -0.5016 -0.4991 -0.3537
82455SOL    HW165357   7.627  12.863   1.407 -0.6108 -2.5097  0.0946
82455SOL    HW265358   7.562  12.853   1.270 -0.2275  0.5431 -0.3870
82456SOL     OW65359  10.701   8.426   1.232 -0.4887 -0.4556 -0.6311
82456SOL    HW165360  10.678   8.513   1.200 -0.6796  0.5662  2.0418
82456SOL    HW265361  10.741   8.442   1.318  0.8996 -2.9153 -0.7190
82457SOL     OW65362   6.945   8.662   5.362  0.7704  0.2451 -0.6073
82457SOL    HW165363   6.886   8.636   5.434  2.4533 -0.7072  0.4922
82457SOL    HW265364   6.964   8.754   5.379  2.1219 -0.2696  0.9618
82458SOL     OW65365  12.152   5.068   4.013 -0.1798 -0.2912 -0.1518
82458SOL    HW165366  12.144   5.113   4.097 -0.4296 -0.1790 -0.2366
82458SOL    HW265367  12.231   5.014   4.022 -1.1207 -1.5590  0.7350
82459SOL     OW65368  11.671  11.787   8.453 -0.4282 -0.5195  0.2878
82459SOL    HW165369  11.608  11.804   8.523 -0.1703  0.1113  0.3679
82459SOL    HW265370  11.755  11.780   8.497 -0.1736  0.4851 -0.0173
82460SOL     OW65371  10.606   3.755  10.225  0.0556  0.0598  0.5289
82460SOL    HW165372  10.527   3.710  10.195  0.1997  0.3301 -0.2719
82460SOL    HW265373  10.636   3.805  10.149  0.0459  1.3122  1.3248
82461SOL     OW65374  11.983   0.598   8.705 -0.3491 -0.2382 -0.1117
82461SOL    HW165375  11.952   0.590   8.796 -0.8721  0.9950 -0.1720
82461SOL    HW265376  11.971   0.510   8.669  0.0010 -0.7885  1.0460
82462SOL     OW65377   4.880   1.370   1.486 -0.5831 -0.4005 -0.8346
82462SOL    HW165378   4.877   1.311   1.411 -0.9071 -2.0539  0.4105
82462SOL    HW265379   4.789   1.392   1.503 -0.5401 -0.3228 -0.7050
82463SOL     OW65380   6.628   8.442   0.327 -0.3191 -0.0907 -0.2805
82463SOL    HW165381   6.579   8.453   0.408 -0.7108 -2.5883 -0.1181
82463SOL    HW265382   6.710   8.490   0.341 -1.9413  2.8143  0.0387
82464SOL     OW65383   2.167   1.251  14.016 -0.5236  0.4312 -0.0332
82464SOL    HW165384   2.153   1.219  14.105  0.5637 -0.7164 -0.2426
82464SOL    HW265385   2.180   1.172  13.964 -1.2225  1.0804 -1.2438
82465SOL     OW65386   4.067   5.174   9.210  0.0074 -0.6055 -0.8700
82465SOL    HW165387   4.161   5.177   9.191  0.4010  1.1828  1.0182
82465SOL    HW265388   4.056   5.228   9.288 -2.6504 -0.5255 -1.1978
82466SOL     OW65389  13.847  11.038  10.096  0.4562 -0.2731 -0.3061
82466SOL    HW165390  13.889  11.041  10.010 -0.3982 -0.2184 -0.7323
82466SOL    HW265391  13.820  10.946  10.107  0.4736 -0.2592 -0.1453
82467SOL     OW65392  11.125   7.198   3.061  0.6576  0.3288  0.4938
82467SOL    HW165393  11.171   7.116   3.043 -0.3501 -0.0234 -0.6285
82467SOL    HW265394  11.081   7.183   3.144 -1.8961 -1.4113 -1.0570
82468SOL     OW65395  14.006   6.279   2.440 -0.1209  0.5048  0.0333
82468SOL    HW165396  13.991   6.281   2.346  1.0120  0.0304 -0.1718
82468SOL    HW265397  14.045   6.193   2.456 -1.4015  0.0817  1.1207
82469SOL     OW65398   3.465   8.113  13.610 -0.5673 -0.2683 -0.5266
82469SOL    HW165399   3.518   8.192  13.618 -1.1021  0.0620 -0.1692
82469SOL    HW265400   3.375   8.144  13.618 -0.7386 -1.0487  0.7836
82470SOL     OW65401   1.889   3.898   2.263  0.4487  0.0123 -0.4597
82470SOL    HW165402   1.944   3.869   2.335 -0.3660  0.4214  0.3583
82470SOL    HW265403   1.880   3.993   2.276 -0.2777 -0.0175 -0.6836
82471SOL     OW65404   3.549  11.878  12.291  0.2215 -0.1076 -0.2373
82471SOL    HW165405   3.627  11.905  12.340 -0.2655  0.0969  0.4382
82471SOL    HW265406   3.576  11.798  12.245  0.8868  0.0729 -0.1678
82472SOL     OW65407   3.240   0.053   7.560  0.2917 -0.3644 -0.5976
82472SOL    HW165408   3.324   0.094   7.539 -0.1588  0.1913 -1.3864
82472SOL    HW265409   3.208   0.101   7.636  1.5991 -1.9054  0.9905
82473SOL     OW65410   2.132  10.524   6.344  0.1487  0.5268  0.3018
82473SOL    HW165411   2.072  10.502   6.273  0.2421  0.4021  0.2614
82473SOL    HW265412   2.095  10.603   6.383  0.8821  1.4485 -0.8153
82474SOL     OW65413  12.197   4.478   9.543 -0.1354 -0.5975  0.2384
82474SOL    HW165414  12.257   4.527   9.599 -0.6428  1.6763 -1.0777
82474SOL    HW265415  12.111   4.488   9.584 -0.3123  0.0101 -0.2755
82475SOL     OW65416   6.244   4.433   2.668 -0.8319 -0.1073 -0.2247
82475SOL    HW165417   6.307   4.409   2.601 -0.1164 -0.7443  0.6470
82475SOL    HW265418   6.248   4.529   2.673  1.2477 -0.2022  0.8912
82476SOL     OW65419   3.271   3.557   3.916  0.0559 -0.7763 -0.3485
82476SOL    HW165420   3.188   3.510   3.920  0.4971 -1.5027  0.4766
82476SOL    HW265421   3.317   3.519   3.841 -0.0821 -0.8187 -0.4117
82477SOL     OW65422  11.348   5.168  13.424 -0.6296 -0.6031  0.2994
82477SOL    HW165423  11.351   5.116  13.344 -0.9274 -0.4216  0.1702
82477SOL    HW265424  11.379   5.108  13.493 -1.5072 -1.1369  0.2493
82478SOL     OW65425   4.799   9.575   8.983 -0.1139 -0.2326  0.1303
82478SOL    HW165426   4.862   9.642   9.009  0.9852 -1.5937  1.1746
82478SOL    HW265427   4.825   9.497   9.033 -2.9802 -0.7332  1.0340
82479SOL     OW65428  12.256   9.439  10.115 -0.2899 -0.3271 -0.1179
82479SOL    HW165429  12.177   9.456  10.065  0.1858  1.3735 -0.3582
82479SOL    HW265430  12.244   9.488  10.197  0.9960  1.0091 -0.6742
82480SOL     OW65431  11.904   4.780   0.744 -0.6549  0.0534 -0.4254
82480SOL    HW165432  11.894   4.758   0.652 -0.6448  0.3226 -0.4926
82480SOL    HW265433  11.959   4.858   0.744 -1.5005  0.6691 -0.2480
82481SOL     OW65434  11.871   7.593   1.800 -0.0319  0.4683 -0.1298
82481SOL    HW165435  11.921   7.521   1.840 -0.5650  1.0830  1.7340
82481SOL    HW265436  11.846   7.559   1.714  1.4572 -0.7925 -0.1197
82482SOL     OW65437  10.901  11.178   6.018 -0.4030 -0.0650 -0.2341
82482SOL    HW165438  10.932  11.114   5.954  0.2697  0.0986 -0.0800
82482SOL    HW265439  10.860  11.125   6.086  0.6172 -0.3891  0.1544
82483SOL     OW65440   2.690   9.346   0.427  0.5804  0.6243 -0.4296
82483SOL    HW165441   2.674   9.411   0.359  0.1544  1.3202  0.3153
82483SOL    HW265442   2.649   9.266   0.395  2.0641  0.3953 -1.8607
82484SOL     OW65443   4.673   8.330   1.527  0.3538  0.3045 -0.1580
82484SOL    HW165444   4.695   8.423   1.529  1.6900  0.0077  1.2726
82484SOL    HW265445   4.595   8.322   1.581  1.9762  0.2765  2.3768
82485SOL     OW65446   7.843  11.085   7.179 -0.5302 -0.0176 -0.5274
82485SOL    HW165447   7.847  11.134   7.097 -0.0890 -0.0220 -0.5144
82485SOL    HW265448   7.861  11.151   7.246  2.1791 -0.5183 -0.6374
82486SOL     OW65449   3.757   6.679   2.312 -0.1394 -0.1587 -0.1831
82486SOL    HW165450   3.838   6.691   2.263 -1.1984 -0.3974 -2.0616
82486SOL    HW265451   3.714   6.604   2.271 -1.5863  0.3139  0.3871
82487SOL     OW65452  13.915   4.530   7.986 -0.2894  0.2388  0.4212
82487SOL    HW165453  13.935   4.609   7.936  1.7588 -1.1959 -1.2315
82487SOL    HW265454  13.881   4.469   7.921 -1.2538 -0.4736  1.5556
82488SOL     OW65455  13.613  14.043   3.039 -0.7215 -0.1650 -0.3159
82488SOL    HW165456  13.548  13.985   3.077  0.4932  0.0412  2.2684
82488SOL    HW265457  13.564  14.099   2.979 -3.3141  1.1126  2.7587
82489SOL     OW65458  10.573   3.457   8.906  0.1683  0.2857  0.0508
82489SOL    HW165459  10.521   3.405   8.844  2.3127  0.1855 -1.7981
82489SOL    HW265460  10.641   3.498   8.852  0.5794  2.3565  1.9724
82490SOL     OW65461   0.387  10.042   8.508  0.0426  0.2868 -0.4605
82490SOL    HW165462   0.349   9.970   8.458 -0.3872 -0.2712  0.6301
82490SOL    HW265463   0.394  10.114   8.445  1.0933 -0.8753 -1.7382
82491SOL     OW65464   9.362  14.125  10.069 -0.9926 -0.1055 -0.4904
82491SOL    HW165465   9.293  14.157  10.011  0.1984  1.0977 -1.2902
82491SOL    HW265466   9.408  14.204  10.098 -2.3567 -0.4673  3.2478
82492SOL     OW65467  11.213   1.669   0.543 -0.8880 -0.0214 -0.0906
82492SOL    HW165468  11.163   1.722   0.604 -2.8907 -0.3686 -1.3533
82492SOL    HW265469  11.180   1.580   0.553  1.7786 -0.9764  1.3245
82493SOL     OW65470   1.107  13.068   9.127  0.4365 -0.4678  0.0745
82493SOL    HW165471   1.151  13.121   9.194  1.7016 -0.5436 -0.6810
82493SOL    HW265472   1.173  13.054   9.060 -0.0757 -2.4877 -0.0530
82494SOL     OW65473   8.068   2.843   5.325  0.3848  0.1431  0.2635
82494SOL    HW165474   8.116   2.919   5.293  0.9066  0.2696  1.3122
82494SOL    HW265475   7.978   2.874   5.334  0.6408  0.7359  0.9381
82495SOL     OW65476   6.418   7.596   4.070 -0.9203  0.0813 -0.5603
82495SOL    HW165477   6.412   7.522   4.010  2.4152 -0.5425 -0.3069
82495SOL    HW265478   6.394   7.561   4.155 -0.7649 -0.3438 -0.6903
82496SOL     OW65479   9.735   0.757   5.715 -0.0664  0.2541 -0.3118
82496SOL    HW165480   9.693   0.797   5.791 -0.8744 -0.5866 -0.3064
82496SOL    HW265481   9.668   0.757   5.647 -0.4391 -1.9737 -0.0141
82497SOL     OW65482  14.066  11.912  13.329 -0.5212 -0.6427  0.3765
82497SOL    HW165483  13.997  11.977  13.314 -2.0687 -2.4401 -0.6658
82497SOL    HW265484  14.145  11.953  13.294 -1.4237  0.7070 -0.1616
82498SOL     OW65485   7.556   8.695  14.079  0.7923 -0.2633  0.5271
82498SOL    HW165486   7.606   8.771  14.107 -0.1241  0.9264 -0.8852
82498SOL    HW265487   7.611   8.654  14.012 -0.3264  1.5127 -1.6311
82499SOL     OW65488   4.160   3.471   6.343 -0.0656 -0.0073 -0.3997
82499SOL    HW165489   4.217   3.486   6.268 -1.5507  1.0227 -1.3655
82499SOL    HW265490   4.171   3.550   6.397  0.1379 -0.2463 -0.0822
82500SOL     OW65491   9.467   9.374   2.407  0.0567  1.2342  1.2114
82500SOL    HW165492   9.525   9.318   2.459 -1.2067 -4.2819 -2.5042
82500SOL    HW265493   9.524   9.414   2.342  0.4233 -0.0304  0.7261
82501SOL     OW65494   2.113  12.866   1.560  0.0505 -0.1073  0.5027
82501SOL    HW165495   2.169  12.933   1.599 -0.2009  0.3998  0.0121
82501SOL    HW265496   2.164  12.831   1.487  0.4303 -0.8980  1.1320
82502SOL     OW65497   5.147   7.015  13.400 -0.2608  0.0649  0.5330
82502SOL    HW165498   5.164   7.089  13.459  1.7645 -0.1421  0.2566
82502SOL    HW265499   5.147   6.938  13.458  0.5004 -0.0067  0.4478
82503SOL     OW65500   1.667   9.540  10.165  0.1204 -0.0252  0.2049
82503SOL    HW165501   1.669   9.491  10.083 -1.4707  1.7666 -0.9859
82503SOL    HW265502   1.738   9.604  10.157 -0.9164  1.0911 -0.4636
82504SOL     OW65503   0.525   0.472   8.836  0.5326  0.1373  0.1036
82504SOL    HW165504   0.562   0.555   8.807  1.5242 -0.4051 -0.2382
82504SOL    HW265505   0.464   0.447   8.767  0.1544  0.6189  0.2564
82505SOL     OW65506   8.203   4.970  10.527 -0.0843 -0.4591  0.6576
82505SOL    HW165507   8.182   5.014  10.609  2.5010  1.2638  0.5222
82505SOL    HW265508   8.222   4.879  10.553 -1.1398 -0.4207  1.6467
82506SOL     OW65509   0.053  11.661   4.297 -0.3171  0.3598  0.1814
82506SOL    HW165510   0.052  11.566   4.308 -0.4586  0.5052  1.5531
82506SOL    HW265511   0.089  11.674   4.209  0.3533 -0.9406  0.2361
82507SOL     OW65512   2.532  14.123   8.166 -0.3785  0.0896  0.0125
82507SOL    HW165513   2.558  14.180   8.238  0.5848 -0.9545  0.5174
82507SOL    HW265514   2.606  14.063   8.155 -1.3329 -1.0101 -0.5586
82508SOL     OW65515  10.538   3.342  10.406 -0.1251  0.2825  0.6863
82508SOL    HW165516  10.606   3.405  10.382 -0.6460  0.3114 -0.8424
82508SOL    HW265517  10.492   3.384  10.478 -0.8989  2.0324 -0.7275
82509SOL     OW65518   5.198   6.590  13.817  0.1630  0.1941  0.2160
82509SOL    HW165519   5.143   6.644  13.873  0.8920  0.5173  0.6356
82509SOL    HW265520   5.252   6.652  13.768 -0.0264 -0.1089 -0.3866
82510SOL     OW65521   9.477   7.076   3.075  0.1675  0.3049  0.0598
82510SOL    HW165522   9.550   7.022   3.046 -1.0141 -0.3509 -1.8651
82510SOL    HW265523   9.517   7.157   3.105  1.6926 -0.1546 -0.6619
82511SOL     OW65524   7.272   3.346  12.070 -0.1955  0.0804  0.1271
82511SOL    HW165525   7.206   3.282  12.095 -0.8722  0.0754 -1.5060
82511SOL    HW265526   7.222   3.426  12.050  0.4099  0.4524  0.0531
82512SOL     OW65527  10.816   8.759   8.155 -0.0534  0.4238 -0.0941
82512SOL    HW165528  10.815   8.665   8.140 -0.9959  0.5660 -1.0731
82512SOL    HW265529  10.861   8.770   8.239  0.2814 -0.8714 -0.0858
82513SOL     OW65530   3.295  10.926  11.725  0.3539 -0.4279 -0.0368
82513SOL    HW165531   3.236  10.850  11.726  1.0090 -1.0082  2.4965
82513SOL    HW265532   3.265  10.981  11.797  2.7296 -0.6839  1.2639
82514SOL     OW65533   4.907   0.834  13.311 -0.0826 -0.2890  0.3071
82514SOL    HW165534   4.875   0.782  13.237  0.3999 -0.4851  0.2346
82514SOL    HW265535   4.858   0.800  13.386 -1.2023  0.4949 -0.0493
82515SOL     OW65536   7.011  11.687   6.155 -0.2860 -0.3332 -0.0075
82515SOL    HW165537   7.055  11.670   6.072  2.5002  1.5969  0.9096
82515SOL    HW265538   6.970  11.773   6.143 -0.8585 -0.5658  0.2583
82516SOL     OW65539   5.930   6.461  11.686  0.4583  0.0466  0.0063
82516SOL    HW165540   5.950   6.403  11.759  1.2504 -0.1321 -0.3414
82516SOL    HW265541   5.917   6.547  11.726 -2.6219 -0.6446  0.7607
82517SOL     OW65542   6.333   7.382   9.929 -0.2579 -0.1666 -0.0979
82517SOL    HW165543   6.368   7.456   9.880 -2.8646  0.5150 -1.1066
82517SOL    HW265544   6.391   7.309   9.907  0.7124  0.9456 -1.3770
82518SOL     OW65545   9.572  12.888   8.212 -0.3893  0.4932  0.3973
82518SOL    HW165546   9.482  12.884   8.243  0.0120 -1.9492  1.4861
82518SOL    HW265547   9.573  12.828   8.136  0.2354  0.7821  0.1736
82519SOL     OW65548   1.602  13.720   9.326 -0.3025 -0.0133  0.2781
82519SOL    HW165549   1.688  13.737   9.366 -1.0515  1.1357  1.5174
82519SOL    HW265550   1.561  13.655   9.384 -0.5384 -0.0191  0.1059
82520SOL     OW65551  13.574  10.121   5.831  0.1075  0.6438  0.6620
82520SOL    HW165552  13.623  10.169   5.764  1.6914  0.4572  1.6401
82520SOL    HW265553  13.595  10.029   5.815 -0.7482  0.4751  0.4704
82521SOL     OW65554  13.178   6.610   9.871 -0.0622 -0.1732 -0.3830
82521SOL    HW165555  13.154   6.686   9.819  1.6257  1.7195  1.4457
82521SOL    HW265556  13.206   6.545   9.806 -0.5188  1.1371 -1.9490
82522SOL     OW65557   0.311   1.311   3.280 -0.0776 -0.0543  0.3624
82522SOL    HW165558   0.377   1.354   3.335 -1.6859  1.3329  1.3312
82522SOL    HW265559   0.351   1.228   3.254  1.2199 -0.2461  2.6849
82523SOL     OW65560   6.829   3.183   2.368 -0.1649  0.1621  0.2720
82523SOL    HW165561   6.841   3.254   2.431 -1.0245 -0.2177  0.8965
82523SOL    HW265562   6.787   3.224   2.293  2.9731  1.0996 -1.1076
82524SOL     OW65563   9.584   1.876   0.538 -0.0351  0.2453  0.0486
82524SOL    HW165564   9.623   1.924   0.465  0.6634  3.0507  2.0624
82524SOL    HW265565   9.639   1.898   0.613 -1.1602 -1.8634  1.5881
82525SOL     OW65566   7.848  13.596  13.648  0.3933  0.3711  0.6811
82525SOL    HW165567   7.790  13.543  13.704 -1.3714  0.5249 -0.9149
82525SOL    HW265568   7.864  13.675  13.699 -2.4029  1.1776  0.4611
82526SOL     OW65569  13.991  11.779  11.030  0.7708 -0.3002 -0.0581
82526SOL    HW165570  13.985  11.687  11.007 -0.8690 -0.4838  1.0410
82526SOL    HW265571  13.928  11.792  11.101  1.6841  1.4525  0.5056
82527SOL     OW65572   0.944  14.031   8.328 -0.1036 -0.5420 -0.2326
82527SOL    HW165573   0.866  13.990   8.363 -1.6356 -0.0323 -2.7754
82527SOL    HW265574   0.917  14.119   8.304  1.0427 -0.5512 -1.7591
82528SOL     OW65575   7.167  11.408   4.284 -0.3983 -0.1064  0.3980
82528SOL    HW165576   7.105  11.439   4.217  0.9913  1.2386 -0.3310
82528SOL    HW265577   7.234  11.362   4.234 -1.4950 -2.9128  1.3123
82529SOL     OW65578   7.193   2.850   0.023  0.2069 -0.0918  0.0839
82529SOL    HW165579   7.120   2.910   0.038  0.4945  0.2869 -0.0098
82529SOL    HW265580   7.229   2.833   0.110  0.1272 -0.1192  0.1107
82530SOL     OW65581   6.799   2.574  13.303 -0.2692 -0.4887 -0.2745
82530SOL    HW165582   6.807   2.518  13.381  2.4085  1.0466  0.7016
82530SOL    HW265583   6.850   2.528  13.236  3.0000  1.1071  0.8780
82531SOL     OW65584  11.144   0.798   5.903  0.4412 -0.2670 -0.3838
82531SOL    HW165585  11.081   0.850   5.854 -0.9213 -1.3865  0.1381
82531SOL    HW265586  11.157   0.719   5.850  1.1215 -0.2133 -0.3079
82532SOL     OW65587   5.438  11.086   9.186  0.3243  0.5328  0.4060
82532SOL    HW165588   5.454  11.101   9.093 -0.2243  2.3802  0.5536
82532SOL    HW265589   5.517  11.042   9.217  0.0295 -1.1847 -1.1297
82533SOL     OW65590   9.230   2.059  13.107 -0.5307 -0.6498  0.1594
82533SOL    HW165591   9.293   1.990  13.129  0.5921  0.1355 -0.4430
82533SOL    HW265592   9.285   2.131  13.075 -1.8299 -0.4353 -1.7376
82534SOL     OW65593   5.685   2.908   0.073 -0.4194 -0.3404 -0.4732
82534SOL    HW165594   5.773   2.871   0.070 -0.6180 -0.7708 -1.5271
82534SOL    HW265595   5.631   2.845   0.025 -1.7364 -1.1716  1.9137
82535SOL     OW65596   7.292   4.867   3.856 -0.8844 -0.1459 -0.1014
82535SOL    HW165597   7.342   4.791   3.826 -0.9527  0.1646 -1.0269
82535SOL    HW265598   7.285   4.855   3.951  1.6667  0.2190  0.2078
82536SOL     OW65599   3.452  13.835   8.192  0.3400 -0.1973 -0.5185
82536SOL    HW165600   3.465  13.791   8.276  1.6450  0.0118 -0.5929
82536SOL    HW265601   3.368  13.802   8.160 -0.1053 -0.3818  0.7972
82537SOL     OW65602   7.779   3.648   3.950 -0.2043  0.3513 -0.8277
82537SOL    HW165603   7.785   3.591   3.874 -0.5403  0.4350 -0.9230
82537SOL    HW265604   7.867   3.651   3.986  0.4247  1.8875 -2.3730
82538SOL     OW65605  12.339   6.856   7.874 -0.2194  0.6394 -0.2794
82538SOL    HW165606  12.358   6.764   7.852  0.3237  0.4964  0.7454
82538SOL    HW265607  12.368   6.905   7.797 -0.1834 -0.0186 -0.6943
82539SOL     OW65608  10.021  13.603  13.897 -0.3738  0.0602  0.0437
82539SOL    HW165609  10.080  13.531  13.876 -0.6118  0.0248 -0.5225
82539SOL    HW265610  10.029  13.663  13.823 -0.1079  0.6640  0.5548
82540SOL     OW65611  13.987   4.382   1.947 -0.3660 -0.0532  0.1007
82540SOL    HW165612  13.893   4.370   1.937 -0.6659  1.6474  0.5367
82540SOL    HW265613  13.997   4.420   2.035  0.4233  2.4178 -0.9674
82541SOL     OW65614  10.576   8.951   8.359  0.1142  0.5738 -0.0237
82541SOL    HW165615  10.524   8.878   8.325  0.9611  0.9571 -2.3103
82541SOL    HW265616  10.511   9.016   8.386 -0.6173 -0.2990  0.3882
82542SOL     OW65617   1.025  12.481   6.166  0.1678  0.1561  0.7763
82542SOL    HW165618   0.968  12.495   6.091  1.6411  1.1876 -0.2060
82542SOL    HW265619   1.094  12.546   6.156  1.4427 -0.9422  1.9940
82543SOL     OW65620   0.096   4.719   1.549 -0.9753 -0.2265 -0.6609
82543SOL    HW165621   0.027   4.667   1.591 -1.1040  0.1040 -0.4556
82543SOL    HW265622   0.060   4.807   1.545 -0.7958 -0.1722 -1.0928
82544SOL     OW65623  11.168  10.322   8.170 -0.4699 -0.0706 -0.3123
82544SOL    HW165624  11.174  10.227   8.182 -1.7912 -0.4074 -1.8956
82544SOL    HW265625  11.078  10.343   8.192  0.0941  1.0361  1.0764
82545SOL     OW65626   6.788   7.586  11.939  0.1902 -0.0871 -0.2819
82545SOL    HW165627   6.820   7.675  11.957 -1.5533  0.6204 -0.4683
82545SOL    HW265628   6.853   7.529  11.980  0.4972  1.3098  1.3139
82546SOL     OW65629   5.422   7.445  13.356 -0.3762  0.2575 -0.3906
82546SOL    HW165630   5.346   7.430  13.412  0.1028 -1.8504 -0.2402
82546SOL    HW265631   5.430   7.540  13.352 -1.7392  0.4953  1.3273
82547SOL     OW65632   7.315   4.681  12.487 -0.3929 -0.2773  0.1244
82547SOL    HW165633   7.396   4.646  12.449 -0.0053  2.9228 -2.4322
82547SOL    HW265634   7.265   4.603  12.512  2.7139 -2.4205  0.3081
82548SOL     OW65635   5.452   1.647   0.411 -0.4456 -0.3265 -0.6336
82548SOL    HW165636   5.453   1.577   0.475  2.2953 -0.5241 -0.7614
82548SOL    HW265637   5.361   1.675   0.406 -1.1434 -2.0370  1.4061
82549SOL     OW65638   0.560  11.068   3.959 -0.0517 -0.7683  0.0407
82549SOL    HW165639   0.513  11.055   3.877  0.4803 -0.1913 -0.3620
82549SOL    HW265640   0.526  10.999   4.017 -0.0594 -1.5148 -0.8245
82550SOL     OW65641   3.220   7.809  12.475  0.1830  0.5616  0.4706
82550SOL    HW165642   3.194   7.863  12.399  0.4574 -0.1367 -0.1293
82550SOL    HW265643   3.233   7.722  12.438  1.9292  0.5630  1.0325
82551SOL     OW65644   8.268   0.010  11.490 -0.4817 -0.0700  0.1768
82551SOL    HW165645   8.273   0.056  11.573 -0.3545  0.1288  0.0613
82551SOL    HW265646   8.354   0.023  11.450 -0.0952 -1.2255  0.5672
82552SOL     OW65647   4.121  12.601   1.788  0.3575  0.0699  0.3493
82552SOL    HW165648   4.060  12.530   1.768 -1.2134  1.0254  1.5921
82552SOL    HW265649   4.170  12.614   1.706 -1.6270 -0.2151 -0.9493
82553SOL     OW65650   6.547   5.171  11.751  0.5813 -0.4101  0.2721
82553SOL    HW165651   6.536   5.076  11.741  0.1470 -0.4693  1.1917
82553SOL    HW265652   6.463   5.200  11.787  0.1524  0.5584 -1.3987
82554SOL     OW65653   0.235   5.489   2.788  0.0893 -0.3076  0.7330
82554SOL    HW165654   0.210   5.478   2.880 -0.1526 -0.7189  0.6225
82554SOL    HW265655   0.208   5.578   2.766 -1.6286 -0.8458  0.5104
82555SOL     OW65656   0.445   0.646  13.954 -0.4241  0.2803  0.2103
82555SOL    HW165657   0.442   0.653  14.049 -2.9434  1.4195  0.1333
82555SOL    HW265658   0.510   0.578  13.937 -1.5102 -1.5763  2.8459
82556SOL     OW65659  12.898   4.553   3.346  0.5906  0.2374  0.2894
82556SOL    HW165660  12.854   4.591   3.270 -1.7954 -2.0596  0.3819
82556SOL    HW265661  12.913   4.462   3.322  0.4158 -0.3650  2.2871
82557SOL     OW65662   1.642  11.620   4.918  0.1909  0.0165  0.0026
82557SOL    HW165663   1.631  11.686   4.851 -2.2093  0.8725  1.1210
82557SOL    HW265664   1.672  11.668   4.995  0.4101 -0.5295  0.2696
82558SOL     OW65665  10.581  13.155  10.619 -0.0583 -0.1560 -0.0159
82558SOL    HW165666  10.509  13.105  10.583 -1.8161  0.9621  1.7071
82558SOL    HW265667  10.549  13.246  10.621  1.1252  0.2803  1.3734
82559SOL     OW65668   9.663  12.557   9.207  0.3138  0.2233  0.0382
82559SOL    HW165669   9.619  12.489   9.156 -2.7155  1.2855  1.0281
82559SOL    HW265670   9.672  12.630   9.146 -0.4313  0.4124  0.1458
82560SOL     OW65671   4.731   2.559   6.290  0.2302  0.4135 -0.1221
82560SOL    HW165672   4.726   2.654   6.301  1.2018  0.6961 -1.8432
82560SOL    HW265673   4.640   2.531   6.274  0.2030  1.3887 -1.8660
82561SOL     OW65674   3.136   4.110   3.584  0.0123 -0.0265  0.3449
82561SOL    HW165675   3.227   4.098   3.558 -0.4961 -0.3685 -1.3736
82561SOL    HW265676   3.133   4.199   3.620  0.7724  0.4810 -0.8018
82562SOL     OW65677  12.205  13.060   2.314 -0.1972 -0.0393 -0.4661
82562SOL    HW165678  12.202  12.984   2.256 -0.7196  0.1254 -0.6653
82562SOL    HW265679  12.178  13.026   2.400 -0.4413 -0.0772 -0.5576
82563SOL     OW65680   6.280   8.382   6.706 -0.2707  0.9270  0.0867
82563SOL    HW165681   6.241   8.337   6.781  0.2340  0.8743  0.3199
82563SOL    HW265682   6.348   8.438   6.743  1.4194 -0.6401 -0.4743
82564SOL     OW65683   8.927  11.639   7.118 -0.2559 -0.3844 -0.0364
82564SOL    HW165684   8.863  11.572   7.095 -0.9235  0.6724 -1.3661
82564SOL    HW265685   8.910  11.711   7.057  2.6431 -0.3253 -0.9159
82565SOL     OW65686   3.785   0.243   9.808 -0.2798  0.3127 -0.5359
82565SOL    HW165687   3.844   0.295   9.754  2.4654  0.0552  1.9495
82565SOL    HW265688   3.755   0.303   9.876  1.8076 -0.8116  1.5350
82566SOL     OW65689   8.169   1.593   8.732  0.1815  0.0136 -0.1740
82566SOL    HW165690   8.075   1.577   8.741  0.1173  0.5312  0.1388
82566SOL    HW265691   8.187   1.579   8.639  0.0451 -1.3375 -0.0110
82567SOL     OW65692   8.413   9.629  11.689 -0.3354  0.4453 -0.3527
82567SOL    HW165693   8.457   9.545  11.679 -0.2250  0.5172 -0.4694
82567SOL    HW265694   8.365   9.622  11.771 -2.1330 -0.5614 -1.4237
82568SOL     OW65695   1.918   0.180   9.089 -0.3418  0.1184  0.2017
82568SOL    HW165696   1.934   0.270   9.062 -1.0389  0.3707  0.6300
82568SOL    HW265697   1.995   0.155   9.139  0.1750  0.2300 -0.5171
82569SOL     OW65698   7.283   8.270   8.546 -0.5210  0.1296  0.1478
82569SOL    HW165699   7.197   8.229   8.536 -0.1899 -0.2224 -1.5846
82569SOL    HW265700   7.299   8.271   8.640 -2.2307 -0.1910  0.4637
82570SOL     OW65701   2.405   8.680   3.190  0.1037 -0.4200  0.3172
82570SOL    HW165702   2.401   8.768   3.230  0.0858 -1.2448  2.2630
82570SOL    HW265703   2.486   8.680   3.140  1.7424 -0.2085  2.7627
82571SOL     OW65704  10.090   8.551   7.412 -0.5888 -0.4017  0.0367
82571SOL    HW165705  10.113   8.473   7.462  4.8940  0.3659 -0.6919
82571SOL    HW265706  10.091   8.622   7.477  0.0691 -0.2557 -0.1236
82572SOL     OW65707   2.875  12.099  11.899 -0.4313  0.5866  0.1986
82572SOL    HW165708   2.934  12.030  11.929 -1.9031 -0.1180  1.6463
82572SOL    HW265709   2.825  12.060  11.828 -0.4984  0.5192  0.2824
82573SOL     OW65710  13.697  10.615   3.716 -0.3125 -0.2585  0.4431
82573SOL    HW165711  13.678  10.678   3.785  1.3499 -0.4212  1.1034
82573SOL    HW265712  13.635  10.635   3.646 -1.5038  0.4305  1.6554
82574SOL     OW65713   7.546  12.303   1.096 -0.0650 -0.4221 -0.5861
82574SOL    HW165714   7.507  12.290   1.010  0.8783  0.7490 -1.2252
82574SOL    HW265715   7.633  12.262   1.089  0.1010 -0.1252 -0.2741
82575SOL     OW65716  10.703  12.693   8.232 -0.5623  0.3482 -0.4122
82575SOL    HW165717  10.625  12.737   8.197  0.5367  2.2684 -0.5537
82575SOL    HW265718  10.738  12.643   8.158 -1.3151 -0.0611 -0.5030
82576SOL     OW65719   2.040   4.081  13.959  0.3053  0.0870  0.0573
82576SOL    HW165720   1.997   4.122  14.034  0.6825  1.3555 -0.3889
82576SOL    HW265721   2.094   4.012  13.997 -1.0897 -0.6759  0.7429
82577SOL     OW65722   1.870   0.553   8.259  0.2292 -0.3556  0.4006
82577SOL    HW165723   1.908   0.489   8.200  0.8875 -0.2186  0.6745
82577SOL    HW265724   1.779   0.561   8.230 -0.1467 -2.1513  0.9912
82578SOL     OW65725   9.892   2.181  11.904  0.3397  0.5952  0.2960
82578SOL    HW165726   9.893   2.178  12.000  2.2604 -1.3991  0.2887
82578SOL    HW265727   9.942   2.260  11.882  0.9047  0.4356  0.9644
82579SOL     OW65728   1.714   8.157  13.854 -0.1738 -0.0729  0.2427
82579SOL    HW165729   1.757   8.094  13.911 -0.9760 -1.8931 -1.0770
82579SOL    HW265730   1.707   8.236  13.908  2.1970 -0.5932  1.4381
82580SOL     OW65731   4.422  10.110   8.282  1.0525 -0.3724  0.1725
82580SOL    HW165732   4.413  10.165   8.205  1.6139 -0.5007  0.0089
82580SOL    HW265733   4.335  10.070   8.294  0.5586  0.7608  0.4755
82581SOL     OW65734   2.802   0.918   1.888  0.1534  0.6910 -0.4162
82581SOL    HW165735   2.722   0.868   1.871  1.4271 -1.4431 -0.5161
82581SOL    HW265736   2.797   0.943   1.980 -0.9889  1.3067 -0.6341
82582SOL     OW65737  11.064   9.361   8.991  0.6879  0.6438  1.0665
82582SOL    HW165738  11.159   9.355   8.984  0.5475 -4.5833 -1.1726
82582SOL    HW265739  11.043   9.311   9.070 -0.2410  2.0977  1.7674
82583SOL     OW65740  13.251  11.443   4.608  0.1148  0.1107  0.6775
82583SOL    HW165741  13.223  11.529   4.575 -0.3290 -0.6206 -0.9604
82583SOL    HW265742  13.179  11.415   4.665  0.4736  1.0071  1.6030
82584SOL     OW65743  13.141   2.512   3.400  0.2396  0.3315  0.3363
82584SOL    HW165744  13.142   2.587   3.340  0.3017  0.6685  0.7492
82584SOL    HW265745  13.141   2.552   3.488  1.5054 -0.1593  0.5716
82585SOL     OW65746   9.511   4.436   7.817  0.8660 -0.4221 -0.4286
82585SOL    HW165747   9.543   4.495   7.884 -0.1974 -0.0792 -0.2083
82585SOL    HW265748   9.423   4.467   7.797 -0.1436 -2.5067  0.4283
82586SOL     OW65749  10.507   2.454   8.644  0.1757 -0.2558 -0.0599
82586SOL    HW165750  10.562   2.517   8.596  1.6476  0.9201  2.9342
82586SOL    HW265751  10.438   2.507   8.684 -0.0731 -0.9448  0.4432
82587SOL     OW65752   5.969   4.060   3.424  0.3186 -0.2390  0.8322
82587SOL    HW165753   5.987   4.131   3.486 -1.4634  0.7907  0.2316
82587SOL    HW265754   6.028   3.989   3.451  0.2330  0.4989  3.1180
82588SOL     OW65755  10.412   2.565   6.843 -0.0548  0.3583  0.4083
82588SOL    HW165756  10.440   2.551   6.753  1.6605  0.9147  0.8003
82588SOL    HW265757  10.414   2.478   6.883 -0.1199  0.2073  0.0783
82589SOL     OW65758   5.229  13.450   8.352 -0.3490  0.0437  0.2470
82589SOL    HW165759   5.159  13.389   8.329 -1.3303  0.8445  1.0527
82589SOL    HW265760   5.227  13.516   8.282  0.4034 -0.5523 -0.3675
82590SOL     OW65761  13.651   3.541   1.395 -0.2959  0.0242  0.1431
82590SOL    HW165762  13.634   3.462   1.343 -2.7763  0.5921 -0.0356
82590SOL    HW265763  13.640   3.513   1.486  0.9570 -0.2709  0.2250
82591SOL     OW65764   7.064   8.628   3.977 -0.2461  0.3398 -0.0518
82591SOL    HW165765   7.149   8.592   4.002 -0.1829  0.4306 -0.1334
82591SOL    HW265766   7.084   8.695   3.912 -0.4080  0.1171 -0.3325
82592SOL     OW65767  12.601   5.705   1.908 -0.3342  0.6493  0.2495
82592SOL    HW165768  12.519   5.695   1.860 -0.9467  1.3667  1.1188
82592SOL    HW265769  12.632   5.615   1.923 -0.7423  0.3920 -0.4430
82593SOL     OW65770   6.174   7.342  13.824 -0.1294 -0.3779 -0.1203
82593SOL    HW165771   6.181   7.375  13.735 -0.8547 -0.1121 -0.0822
82593SOL    HW265772   6.253   7.375  13.868  0.9100 -1.6170 -0.9961
82594SOL     OW65773   0.518  11.974   0.387  0.1893 -0.3324  0.1196
82594SOL    HW165774   0.608  12.003   0.377 -0.5833  2.5327  0.5410
82594SOL    HW265775   0.508  11.958   0.481 -0.2197  1.4407  0.4258
82595SOL     OW65776   9.182   8.993   1.423 -0.0367  0.1821  0.1986
82595SOL    HW165777   9.212   8.951   1.503  0.4931  0.8817  0.3734
82595SOL    HW265778   9.225   8.945   1.352 -1.1515 -0.9703  0.2756
82596SOL     OW65779  13.873   1.517   3.199 -0.6847  0.0083  0.2241
82596SOL    HW165780  13.901   1.499   3.289 -0.4503 -0.3847  0.0792
82596SOL    HW265781  13.943   1.478   3.145 -1.3023 -0.6131 -0.1401
82597SOL     OW65782  13.896  12.984   4.703  0.5932 -0.2865  0.0033
82597SOL    HW165783  13.964  12.970   4.769 -1.2346  0.6339  2.2063
82597SOL    HW265784  13.944  12.996   4.621  3.0197 -0.4163  1.3174
82598SOL     OW65785   7.516  11.458   5.004  0.5731  0.0288  0.4219
82598SOL    HW165786   7.458  11.415   4.942 -0.6076  1.7285  0.2832
82598SOL    HW265787   7.464  11.467   5.084  2.7774 -4.2291  2.6898
82599SOL     OW65788   2.246  10.008   4.645 -0.7256  0.1141  0.2349
82599SOL    HW165789   2.338   9.991   4.662 -0.6177 -0.9502 -1.2393
82599SOL    HW265790   2.222   9.947   4.575 -3.4059 -1.9884  2.7140
82600SOL     OW65791  10.674   4.957   7.038 -0.0460  0.4113  0.2499
82600SOL    HW165792  10.648   4.880   7.089  2.2001  1.2058  2.8192
82600SOL    HW265793  10.749   4.928   6.987  1.1693  0.9698  1.6610
82601SOL     OW65794   3.597   4.527  13.873 -0.1983  0.1455 -0.5020
82601SOL    HW165795   3.561   4.478  13.947 -0.0438 -0.5021 -0.8441
82601SOL    HW265796   3.546   4.608  13.871  0.4539  0.6150  0.8996
82602SOL     OW65797  12.551   7.823  11.707 -0.5581  0.2677  0.2743
82602SOL    HW165798  12.458   7.820  11.727 -0.6067 -0.7595 -0.0705
82602SOL    HW265799  12.567   7.745  11.654 -0.1231  1.9811 -2.3075
82603SOL     OW65800   3.018   5.615  12.795  0.6474  0.3864  0.9527
82603SOL    HW165801   3.003   5.670  12.718  1.1918  1.2156  1.4246
82603SOL    HW265802   3.055   5.675  12.860 -0.3160 -0.1753  2.0554
82604SOL     OW65803   5.769   5.522   0.723 -0.2266  0.5380  0.0581
82604SOL    HW165804   5.834   5.589   0.700 -1.4731  0.7960 -3.1888
82604SOL    HW265805   5.747   5.480   0.640 -3.2212 -0.4645  1.2299
82605SOL     OW65806  12.792   8.456   1.538 -0.0997  0.2016  0.5480
82605SOL    HW165807  12.793   8.489   1.628 -2.5942  0.7876  0.4207
82605SOL    HW265808  12.868   8.398   1.533  0.7594  1.0485  2.6688
82606SOL     OW65809   7.710   9.418   8.119 -0.2983 -0.1174 -1.1296
82606SOL    HW165810   7.686   9.398   8.028 -1.9966  0.7234 -0.9112
82606SOL    HW265811   7.738   9.334   8.155 -0.5275 -0.6592 -2.1769
82607SOL     OW65812   4.449  12.446   7.050 -0.0157 -0.3894  0.2308
82607SOL    HW165813   4.512  12.490   7.107  2.1604 -0.8748 -1.6662
82607SOL    HW265814   4.380  12.511   7.035  0.4204  0.4579  1.6768
82608SOL     OW65815  12.997   7.335   6.845 -0.8287 -0.4931 -0.5898
82608SOL    HW165816  12.984   7.279   6.769 -2.4213  1.5481 -1.9529
82608SOL    HW265817  12.912   7.377   6.858 -0.0009  0.8136  0.9681
82609SOL     OW65818   1.266   4.458   1.056  0.1567 -0.1891  0.8188
82609SOL    HW165819   1.246   4.519   0.985  0.5486  1.7817  2.3039
82609SOL    HW265820   1.236   4.373   1.024  0.8482  0.5084 -1.9039
82610SOL     OW65821   4.018   3.552   8.478  0.5354 -1.3347 -0.6070
82610SOL    HW165822   4.050   3.573   8.391 -0.0977  0.4450 -0.4406
82610SOL    HW265823   3.928   3.582   8.479  1.3755  1.6049  1.5828
82611SOL     OW65824   7.983   5.052  11.563  0.3340 -0.5392 -0.0171
82611SOL    HW165825   8.048   5.046  11.493 -0.5798 -2.3232 -0.7728
82611SOL    HW265826   8.030   5.090  11.637  1.9747 -0.9056 -0.8328
82612SOL     OW65827  11.608   5.295   6.595  0.0833  0.0178  0.7255
82612SOL    HW165828  11.675   5.336   6.540 -1.6087  0.5458 -1.0214
82612SOL    HW265829  11.605   5.204   6.566 -1.1282  0.4037 -0.4363
82613SOL     OW65830  13.953   4.357   6.725  0.0533 -0.5100  0.3896
82613SOL    HW165831  13.900   4.338   6.648  1.0116  2.1365 -1.0284
82613SOL    HW265832  14.041   4.373   6.691  0.5802  0.4121  2.0634
82614SOL     OW65833   6.439   3.808   2.248 -0.4939  0.4008  0.0917
82614SOL    HW165834   6.490   3.802   2.328 -0.6303 -0.2624  0.1364
82614SOL    HW265835   6.438   3.719   2.213 -2.1651  0.2289  0.4520
82615SOL     OW65836   3.023   8.186  11.482 -0.0117  1.1706  0.7998
82615SOL    HW165837   3.009   8.113  11.542 -0.1341  1.0631  0.6406
82615SOL    HW265838   3.103   8.162  11.434 -0.8464  0.4518 -0.2708
82616SOL     OW65839   1.671   8.579  13.592  0.2619  0.1739 -0.0629
82616SOL    HW165840   1.595   8.632  13.569  0.0537  0.0080  0.2427
82616SOL    HW265841   1.658   8.496  13.547  0.8824  0.5829 -1.0279
82617SOL     OW65842  11.416   7.289   2.817  0.5901  0.1943  0.3040
82617SOL    HW165843  11.434   7.375   2.854  2.1464 -0.1788  0.4876
82617SOL    HW265844  11.442   7.228   2.885 -0.0173 -0.4412 -0.0206
82618SOL     OW65845   1.740  14.009   3.072 -0.0382  0.7483 -0.1510
82618SOL    HW165846   1.687  13.942   3.114  1.1445  0.0201  0.2281
82618SOL    HW265847   1.824  13.967   3.055 -0.0702  1.3765 -2.2039
82619SOL     OW65848  13.293  10.643  12.701 -0.0951  0.2560 -0.4459
82619SOL    HW165849  13.296  10.616  12.610  2.1373 -1.4929  0.0595
82619SOL    HW265850  13.281  10.738  12.698  1.8979  0.5156 -2.6353
82620SOL     OW65851  10.920  13.762   3.124  0.5209 -0.4794 -0.1447
82620SOL    HW165852  10.973  13.788   3.198  0.0475 -0.4054  0.1745
82620SOL    HW265853  10.881  13.844   3.092 -0.1053 -0.6478  0.1798
82621SOL     OW65854  10.190   8.791   4.636  0.4120 -0.1326  0.0452
82621SOL    HW165855  10.135   8.862   4.668 -0.2528 -1.0032  0.9185
82621SOL    HW265856  10.182   8.794   4.541 -0.3968  0.3331  0.1252
82622SOL     OW65857   0.710   1.840   6.251  0.0790 -0.3738 -0.8937
82622SOL    HW165858   0.663   1.776   6.305 -1.1151  3.6219  3.5857
82622SOL    HW265859   0.802   1.832   6.278 -0.2725  0.4881  0.7476
82623SOL     OW65860   0.667   7.654   7.525  0.5643  0.1989 -0.0411
82623SOL    HW165861   0.612   7.585   7.562 -0.6772  1.5498  0.7519
82623SOL    HW265862   0.698   7.618   7.442  2.1094 -2.2922  1.4792
82624SOL     OW65863   9.079   4.088   8.014  0.5119  0.0243  0.2809
82624SOL    HW165864   8.985   4.100   8.005  0.4937  0.2258  0.7116
82624SOL    HW265865   9.107   4.160   8.070  0.4261 -1.7435  2.7610
82625SOL     OW65866  13.632   8.305   4.074 -0.0623  0.1236  0.3045
82625SOL    HW165867  13.582   8.380   4.106 -0.8434  0.1717 -0.9647
82625SOL    HW265868  13.701   8.343   4.019  1.9022  0.1068  2.6124
82626SOL     OW65869   1.236   0.407   4.734 -0.0120 -0.0061 -0.1179
82626SOL    HW165870   1.284   0.330   4.704  0.0915  0.1398 -0.3256
82626SOL    HW265871   1.272   0.425   4.821 -1.5189 -1.4710  0.8685
82627SOL     OW65872  13.988   0.277   5.420  0.0525 -0.2124 -0.0096
82627SOL    HW165873  14.044   0.347   5.388 -1.0690 -0.1100 -1.8633
82627SOL    HW265874  13.900   0.301   5.392 -0.8191 -0.8470  2.0109
82628SOL     OW65875   6.847   5.402   0.706  0.1652 -0.0971 -0.0182
82628SOL    HW165876   6.865   5.335   0.771  0.5758  0.2340  0.2073
82628SOL    HW265877   6.863   5.484   0.750  1.4902  0.1109 -0.8457
82629SOL     OW65878  11.122   2.782   4.938 -0.2027 -0.0974  0.6029
82629SOL    HW165879  11.168   2.699   4.939  0.3978  0.2091  2.0877
82629SOL    HW265880  11.060   2.775   4.866 -0.1572 -1.8168  0.6995
82630SOL     OW65881   2.667  13.023   7.180  0.1552 -0.4349  0.4274
82630SOL    HW165882   2.750  13.013   7.227  0.5664 -0.6862 -0.3304
82630SOL    HW265883   2.655  12.939   7.135 -0.0296 -0.0739 -0.2218
82631SOL     OW65884   5.947   9.756   7.942  0.1183  0.3153  0.4936
82631SOL    HW165885   5.881   9.767   7.874  2.6278  2.4225 -1.8268
82631SOL    HW265886   5.948   9.839   7.989  1.4201  0.5226  0.1469
82632SOL     OW65887   3.397   7.549  10.744  0.0826  0.5032  0.3964
82632SOL    HW165888   3.408   7.483  10.675 -0.5514  0.0048  0.7641
82632SOL    HW265889   3.338   7.613  10.706 -0.3674  0.1640  0.5168
82633SOL     OW65890   1.146  10.133  11.895  0.4120  0.4832  0.4039
82633SOL    HW165891   1.164  10.182  11.975  0.9884  5.8890 -2.5569
82633SOL    HW265892   1.050  10.124  11.894  0.3509  0.8932  1.4114
82634SOL     OW65893  12.640   8.061   2.251  0.2224 -0.8584 -0.4948
82634SOL    HW165894  12.621   8.155   2.242  0.9268 -0.4516  1.6860
82634SOL    HW265895  12.695   8.041   2.175  0.9436  0.7648 -0.4529
82635SOL     OW65896   1.123   6.834   7.833 -0.1772 -0.4506 -0.3806
82635SOL    HW165897   1.069   6.794   7.902  2.2116  0.6953  2.3254
82635SOL    HW265898   1.172   6.760   7.797 -2.0851 -1.2097 -1.6209
82636SOL     OW65899   7.263   1.652   7.828 -0.1396  0.1726  0.6487
82636SOL    HW165900   7.294   1.562   7.813 -1.7142 -0.1524 -0.9260
82636SOL    HW265901   7.295   1.673   7.916  1.6828 -1.2987  0.4156
82637SOL     OW65902   8.500   9.025   6.242  0.4152  0.1501 -0.2948
82637SOL    HW165903   8.418   8.978   6.229  0.2465  0.2773  0.3013
82637SOL    HW265904   8.530   9.045   6.153 -0.0403 -0.1615 -0.5229
82638SOL     OW65905  10.593   4.219   9.640  0.0843  0.1322 -0.1001
82638SOL    HW165906  10.685   4.221   9.663  0.1819 -1.7811 -0.1534
82638SOL    HW265907  10.563   4.132   9.668 -1.3708  0.2183 -1.2475
82639SOL     OW65908   3.073   6.802  12.984 -0.1353  0.9365 -0.0727
82639SOL    HW165909   2.991   6.783  12.937  0.8358  1.2225 -1.9658
82639SOL    HW265910   3.070   6.896  13.001 -0.8687  0.7025  1.2804
82640SOL     OW65911  13.515  12.340   7.605 -0.3146  0.0620  0.8926
82640SOL    HW165912  13.489  12.294   7.525  0.4343  0.6867  0.2719
82640SOL    HW265913  13.435  12.344   7.658 -1.1197  0.6377 -0.3246
82641SOL     OW65914  11.264   2.288  11.382  0.3987  0.0943 -0.2847
82641SOL    HW165915  11.248   2.226  11.312  2.3031  0.7440 -1.3704
82641SOL    HW265916  11.318   2.240  11.445 -3.2240 -1.2764  2.0951
82642SOL     OW65917   5.540   5.087   5.850  0.0424 -0.3683 -0.2182
82642SOL    HW165918   5.549   5.042   5.766  3.0008 -0.8832  0.2727
82642SOL    HW265919   5.542   5.018   5.915 -0.5430  0.1477  0.3623
82643SOL     OW65920  11.196  12.179   9.840  0.0887 -0.2392 -0.4030
82643SOL    HW165921  11.220  12.094   9.879  0.8671 -1.4831 -3.2911
82643SOL    HW265922  11.147  12.155   9.761  0.6011  1.9751 -1.4605
82644SOL     OW65923   6.650   3.279   9.302  0.0818  0.5165  0.4448
82644SOL    HW165924   6.644   3.184   9.291 -1.9035  0.6954 -0.3040
82644SOL    HW265925   6.725   3.291   9.360 -0.2578 -1.5781  1.4124
82645SOL     OW65926   8.249   8.820   8.003 -0.6476  0.1228 -0.2720
82645SOL    HW165927   8.321   8.883   7.996 -1.3879  0.8667 -1.7188
82645SOL    HW265928   8.212   8.816   7.915 -0.2581 -2.8424 -0.4034
82646SOL     OW65929   2.349   2.390   6.937 -0.5405  0.3487 -0.5893
82646SOL    HW165930   2.293   2.447   6.990 -0.1444 -0.3585  0.6266
82646SOL    HW265931   2.318   2.301   6.956  1.3958 -0.1240  0.6623
82647SOL     OW65932   7.355   8.264   7.367  0.0946  0.2054 -0.2657
82647SOL    HW165933   7.437   8.230   7.333  0.3843 -1.0686  1.5182
82647SOL    HW265934   7.292   8.193   7.352 -0.8242  1.3070 -1.9478
82648SOL     OW65935   2.684   0.969   0.475 -0.6481 -0.3841  0.7085
82648SOL    HW165936   2.688   1.064   0.459  1.2254 -0.4736  0.4396
82648SOL    HW265937   2.710   0.959   0.566 -0.6190 -0.6517  0.6719
82649SOL     OW65938   5.480   0.252   7.058  0.0157 -0.1996  0.3036
82649SOL    HW165939   5.573   0.237   7.071  0.1759  0.3563 -0.1570
82649SOL    HW265940   5.440   0.165   7.070  0.6821 -0.6030 -0.3182
82650SOL     OW65941  13.230   2.009  13.190 -0.3944 -0.3498  0.3693
82650SOL    HW165942  13.204   2.095  13.221  1.2626  0.4347 -0.2828
82650SOL    HW265943  13.156   1.980  13.136 -0.0783  1.7282 -1.3443
82651SOL     OW65944   9.771   7.813   4.859 -0.1262  0.0380 -0.2561
82651SOL    HW165945   9.763   7.746   4.927 -1.0391  0.3749 -0.0258
82651SOL    HW265946   9.696   7.870   4.871  1.3894  1.9984  0.4891
82652SOL     OW65947  13.784   2.223   8.809 -0.2311 -0.0923 -0.2562
82652SOL    HW165948  13.867   2.176   8.807 -0.8797 -1.4077  1.0777
82652SOL    HW265949  13.758   2.221   8.901 -2.1772 -0.5704 -0.7589
82653SOL     OW65950   3.112  13.961   6.699  0.7153 -0.6065  0.2292
82653SOL    HW165951   3.201  13.998   6.703  0.4658 -0.0715  2.4782
82653SOL    HW265952   3.054  14.036   6.711 -0.1105 -0.8631 -1.8716
82654SOL     OW65953  13.697   1.682   8.680  0.5500 -0.0130 -0.1631
82654SOL    HW165954  13.753   1.667   8.604  0.0798  1.7248 -0.9102
82654SOL    HW265955  13.666   1.772   8.669  0.5557  0.3255  2.1513
82655SOL     OW65956  12.695   9.341   2.085 -0.0573 -0.1763  0.1861
82655SOL    HW165957  12.680   9.261   2.136 -0.7075 -0.9663 -1.1819
82655SOL    HW265958  12.788   9.361   2.099  0.1871 -1.3247  0.3480
82656SOL     OW65959  11.080   4.844  10.234  0.8137  0.5169  0.3784
82656SOL    HW165960  10.992   4.807  10.241  1.2178 -1.5466 -3.0625
82656SOL    HW265961  11.070   4.934  10.263 -2.1797  0.0755  1.1210
82657SOL     OW65962   4.977   2.871  12.170  0.1452  0.4892 -0.3022
82657SOL    HW165963   4.950   2.801  12.229  0.5669  0.4536 -0.1485
82657SOL    HW265964   5.070   2.882  12.187  0.3539  0.2282 -1.2287
82658SOL     OW65965  12.857  11.985   0.256  0.7188  0.3709  0.0204
82658SOL    HW165966  12.944  11.949   0.241  1.3396  1.5602  0.5448
82658SOL    HW265967  12.850  12.059   0.195 -0.0989  0.0217 -0.3229
82659SOL     OW65968  12.290  13.540   1.482  0.0965  0.3201  0.4789
82659SOL    HW165969  12.268  13.522   1.573 -1.0860 -1.9035 -0.1739
82659SOL    HW265970  12.371  13.591   1.487  1.1664 -1.3945  2.7419
82660SOL     OW65971   4.577   4.659   8.573  0.8704 -0.1218 -0.0979
82660SOL    HW165972   4.499   4.639   8.624  2.5105 -2.2115  1.7836
82660SOL    HW265973   4.547   4.662   8.482 -1.9241  2.4067  0.7340
82661SOL     OW65974   8.013   6.464  10.112  0.0278  0.3635 -0.3839
82661SOL    HW165975   8.008   6.380  10.066 -1.2096  0.8404 -1.1869
82661SOL    HW265976   7.934   6.510  10.085  0.9231  1.9933 -0.3492
82662SOL     OW65977   6.533   8.932   4.299 -0.2155  0.5497 -0.2343
82662SOL    HW165978   6.496   8.866   4.358  0.7112  0.6019  0.4207
82662SOL    HW265979   6.550   9.007   4.355  0.9097  0.5139 -0.5109
82663SOL     OW65980  12.144  13.468  13.104  0.6127 -0.1794 -0.2359
82663SOL    HW165981  12.055  13.500  13.090  0.9578  1.0950  0.3139
82663SOL    HW265982  12.169  13.430  13.020 -0.7035 -1.2293 -0.1756
82664SOL     OW65983   6.421   9.381   4.874  0.1139 -0.5663 -0.1078
82664SOL    HW165984   6.374   9.298   4.876 -0.5400 -0.4712 -4.1689
82664SOL    HW265985   6.384   9.429   4.800  2.8951  1.8608 -0.1456
82665SOL     OW65986   4.808  14.155  10.699  0.1701  0.0463  0.3007
82665SOL    HW165987   4.823  14.063  10.720 -0.5444 -0.1555 -0.0274
82665SOL    HW265988   4.723  14.156  10.653  0.7163  0.7092 -0.7356
82666SOL     OW65989  13.708  10.402   9.534  0.2463 -0.2474  0.3082
82666SOL    HW165990  13.803  10.410   9.531  0.6771 -3.9073 -2.4808
82666SOL    HW265991  13.691  10.312   9.560 -2.4173 -0.0822 -0.5311
82667SOL     OW65992   1.674   9.459   2.266 -0.0840  0.1740 -0.1752
82667SOL    HW165993   1.604   9.522   2.282  0.5269  0.9307 -0.4369
82667SOL    HW265994   1.752   9.512   2.254  0.0310 -0.4433 -2.7985
82668SOL     OW65995   8.657   3.598   5.542 -0.0249  0.2673  0.2446
82668SOL    HW165996   8.612   3.668   5.590  1.9236  1.1068  0.9232
82668SOL    HW265997   8.708   3.644   5.475  0.3734 -0.6072 -0.0567
82669SOL     OW65998   5.602  10.029   6.263 -0.6743  0.4667  0.1169
82669SOL    HW165999   5.555   9.948   6.245 -1.4187  0.5011  1.7729
82669SOL    HW266000   5.558  10.094   6.207  0.7574 -0.4326 -2.2173
82670SOL     OW66001   5.928  10.086   5.284  0.0285  0.1929  0.5525
82670SOL    HW166002   5.868  10.105   5.212 -0.7560 -1.9532  0.5701
82670SOL    HW266003   5.961  10.172   5.311 -1.4812  1.2549 -0.7893
82671SOL     OW66004  11.928   2.192   8.522 -0.1300 -0.2423 -0.6700
82671SOL    HW166005  12.013   2.151   8.536  0.7146  1.9651  1.1421
82671SOL    HW266006  11.887   2.194   8.609 -0.5493  1.7900 -0.8681
82672SOL     OW66007   3.340   3.020   9.411  0.1078  0.0067  0.1251
82672SOL    HW166008   3.355   2.953   9.479 -0.3168 -1.3865 -1.1061
82672SOL    HW266009   3.252   3.000   9.378  0.9040 -0.3279 -1.8896
82673SOL     OW66010   8.314  13.260  10.705 -0.7830  0.3890 -0.8243
82673SOL    HW166011   8.381  13.202  10.668  1.0852  2.0674 -0.2832
82673SOL    HW266012   8.297  13.223  10.792  0.2852  0.5186 -0.5382
82674SOL     OW66013   6.957   1.986   5.870  0.7002 -0.2345 -0.4321
82674SOL    HW166014   7.037   2.026   5.905  1.0487 -1.0663 -0.2488
82674SOL    HW266015   6.985   1.900   5.839  0.0543 -0.1703 -1.2236
82675SOL     OW66016   7.189   5.035  12.230 -0.2560  0.4913  0.1303
82675SOL    HW166017   7.259   5.042  12.166 -0.2255 -0.3778  0.0507
82675SOL    HW266018   7.113   5.075  12.188  0.4695  2.5207  0.6804
82676SOL     OW66019   9.423  11.498   4.152  0.1825 -0.3755  0.0228
82676SOL    HW166020   9.413  11.405   4.169  0.5210 -0.3998  0.0962
82676SOL    HW266021   9.510  11.519   4.185 -0.7776  0.4652  2.2615
82677SOL     OW66022  11.312   9.055  11.461 -0.2352  0.0838  0.1088
82677SOL    HW166023  11.309   8.988  11.529 -1.0730 -1.4842 -1.4052
82677SOL    HW266024  11.234   9.109  11.477  0.3326  0.6174  1.2097
82678SOL     OW66025  12.014   5.816   9.034  0.5279 -0.1747  0.3413
82678SOL    HW166026  11.992   5.867   8.956  0.9463 -1.1942 -0.4764
82678SOL    HW266027  12.029   5.727   9.000 -0.3524 -0.8848  1.7327
82679SOL     OW66028   8.612   2.118   9.317  0.1162 -0.0783 -0.2427
82679SOL    HW166029   8.622   2.087   9.407 -2.2160  0.8178  0.3894
82679SOL    HW266030   8.546   2.061   9.278 -0.8365  1.1725 -0.5215
82680SOL     OW66031  12.467   3.638   4.523 -0.7820  0.4423  0.2142
82680SOL    HW166032  12.436   3.704   4.461 -2.6057 -0.6403 -0.1154
82680SOL    HW266033  12.536   3.592   4.476 -2.9804 -1.1987 -1.6721
82681SOL     OW66034  10.583   0.067  10.933 -0.0779 -0.5386  0.1100
82681SOL    HW166035  10.539   0.036  11.012  1.1681 -1.7651  0.3545
82681SOL    HW266036  10.648  -0.000  10.913  1.3981  0.9939 -0.5007
82682SOL     OW66037  13.516  12.870  11.337  0.5091 -0.0261 -0.3845
82682SOL    HW166038  13.473  12.848  11.254  0.8657 -2.7956  0.0721
82682SOL    HW266039  13.609  12.855  11.320  0.8680  1.6549 -0.0956
82683SOL     OW66040   6.099   8.325   6.459  0.3843 -0.0377  0.1761
82683SOL    HW166041   6.166   8.309   6.526 -0.4060 -1.3715  0.6967
82683SOL    HW266042   6.109   8.252   6.397  1.2450  1.2878 -1.3194
82684SOL     OW66043   2.873   1.629  10.879 -0.1377  0.1543 -0.7667
82684SOL    HW166044   2.929   1.583  10.817  0.4818  1.3556 -1.1367
82684SOL    HW266045   2.804   1.566  10.900  0.7113 -0.9471 -1.1840
82685SOL     OW66046  12.203   9.433   0.618 -0.0754  0.2169  0.0941
82685SOL    HW166047  12.273   9.375   0.646 -0.9656 -0.5391  0.8047
82685SOL    HW266048  12.130   9.413   0.676 -0.7112  1.3782 -0.2666
82686SOL     OW66049  10.393   8.048  12.961  0.2441 -0.2205  0.3670
82686SOL    HW166050  10.364   8.114  13.024  1.6794  0.2434  0.5851
82686SOL    HW266051  10.475   8.083  12.926 -0.5411 -0.4276 -1.8215
82687SOL     OW66052   9.026  11.783   1.063  0.4958 -0.6694 -0.2418
82687SOL    HW166053   9.002  11.843   1.133 -0.3054 -1.9524  0.6115
82687SOL    HW266054   9.044  11.840   0.988 -1.1391  0.6012  0.2783
82688SOL     OW66055   7.617  13.187  12.974  0.3430  0.3760  0.1579
82688SOL    HW166056   7.535  13.162  13.015 -0.6086  0.7465 -1.4487
82688SOL    HW266057   7.680  13.122  13.004  0.2693  1.7950  3.8678
82689SOL     OW66058  10.020   5.041   7.604  0.1168  0.2238 -0.3094
82689SOL    HW166059   9.951   5.084   7.552  0.1244  0.8389  0.1810
82689SOL    HW266060  10.042   4.963   7.553 -0.8995  0.0474 -0.5121
82690SOL     OW66061   3.472   2.632  11.468 -0.0187  0.5160 -0.2195
82690SOL    HW166062   3.521   2.550  11.468 -0.3717  0.2982 -0.1027
82690SOL    HW266063   3.498   2.675  11.550 -0.0115  0.4038 -0.1618
82691SOL     OW66064   1.675   6.442   2.183 -0.4015 -0.1044  0.0275
82691SOL    HW166065   1.768   6.459   2.165 -0.2716 -0.4969  0.3224
82691SOL    HW266066   1.638   6.528   2.203  0.0658 -0.0419  0.6569
82692SOL     OW66067   8.773  13.966   2.293  0.4506 -0.4412 -0.2882
82692SOL    HW166068   8.725  13.891   2.258 -0.9637  0.6033 -0.6499
82692SOL    HW266069   8.797  13.940   2.382  1.8491 -2.1240 -1.0988
82693SOL     OW66070   3.873  10.632   2.028  0.6981 -0.1024  0.3434
82693SOL    HW166071   3.790  10.586   2.040  0.4502  0.2955  0.1556
82693SOL    HW266072   3.867  10.670   1.941  1.2862 -0.4890  0.1268
82694SOL     OW66073   9.572   2.421  13.016 -0.1406  0.2121  0.1255
82694SOL    HW166074   9.627   2.458  13.085 -0.5975  0.2948  0.4494
82694SOL    HW266075   9.535   2.496  12.971 -0.2109  0.1535  0.0850
82695SOL     OW66076   9.041  12.917  11.370  0.3405 -0.2429  0.1334
82695SOL    HW166077   8.977  12.846  11.361 -1.7851  1.5119  0.3746
82695SOL    HW266078   9.051  12.952  11.282  2.8621 -1.9015 -0.3609
82696SOL     OW66079   5.770   1.702   6.327  0.2275  0.5380  0.6303
82696SOL    HW166080   5.693   1.760   6.327 -0.1906 -0.0000 -0.1134
82696SOL    HW266081   5.834   1.747   6.272  0.3566  0.8616  1.0377
82697SOL     OW66082   1.812   7.364  10.050  0.2694  0.0099 -0.0878
82697SOL    HW166083   1.836   7.419  10.125 -0.3194  0.1420  0.0031
82697SOL    HW266084   1.824   7.275  10.082 -1.2435  0.0322  0.5968
82698SOL     OW66085   7.494   8.077   3.452  0.1466  0.4366  0.0044
82698SOL    HW166086   7.570   8.036   3.410 -1.1756 -1.3353 -0.8048
82698SOL    HW266087   7.421   8.055   3.395 -1.0573  1.6786  1.0256
82699SOL     OW66088   5.805   8.393   3.395 -0.8067  0.4107  0.2677
82699SOL    HW166089   5.835   8.351   3.314 -0.8690  0.0263  0.4393
82699SOL    HW266090   5.811   8.487   3.378  0.9513  0.3668  0.4362
82700SOL     OW66091  11.327   2.724   8.779 -0.3298  0.1133  0.0496
82700SOL    HW166092  11.401   2.692   8.831 -0.3305 -0.5910 -0.3797
82700SOL    HW266093  11.251   2.678   8.815 -0.3834 -0.0909 -0.3258
82701SOL     OW66094  12.053   9.286  14.097 -0.2939 -0.3879 -0.0955
82701SOL    HW166095  12.000   9.207  14.083 -1.1636 -0.1518  1.5931
82701SOL    HW266096  12.129   9.255  14.146  1.1384 -0.6971 -2.3739
82702SOL     OW66097   7.268   7.285   1.602 -0.0342 -0.0917  0.4563
82702SOL    HW166098   7.265   7.190   1.611  1.4302 -0.0624  1.7698
82702SOL    HW266099   7.242   7.318   1.688  2.7795  0.5558  1.1617
82703SOL     OW66100  10.004   5.340   1.633  0.0713  0.0396  0.6844
82703SOL    HW166101  10.063   5.377   1.567  0.4029 -0.1113  0.8968
82703SOL    HW266102  10.021   5.246   1.630  0.2476  0.0554  1.1418
82704SOL     OW66103  11.012  13.903   4.736  0.5485 -0.0678  0.9066
82704SOL    HW166104  11.037  13.872   4.649 -0.8059  0.3661  0.3489
82704SOL    HW266105  11.085  13.877   4.792  1.3507 -0.5259 -0.3145
82705SOL     OW66106  13.965  11.823  13.775 -0.9882 -0.1253  0.3974
82705SOL    HW166107  14.032  11.880  13.737 -2.4921  1.5458  0.1196
82705SOL    HW266108  13.970  11.742  13.723 -0.1367  0.4915 -0.5192
82706SOL     OW66109   6.206   1.544   2.620 -0.0337  0.2776 -0.1877
82706SOL    HW166110   6.212   1.636   2.645 -0.7067 -0.2462  2.1702
82706SOL    HW266111   6.139   1.508   2.678  0.4742 -1.7812 -0.7939
82707SOL     OW66112   5.219  13.111  11.470 -0.0912  0.1339  0.2143
82707SOL    HW166113   5.170  13.043  11.516 -1.1405  0.3356 -0.5685
82707SOL    HW266114   5.172  13.192  11.491 -0.0316  0.3456 -0.4515
82708SOL     OW66115   0.690  12.572   7.282 -0.3673 -0.1386 -0.2859
82708SOL    HW166116   0.725  12.607   7.364  3.3660 -1.1930 -1.2461
82708SOL    HW266117   0.639  12.645   7.245  0.2324  1.3366  1.6411
82709SOL     OW66118   0.896   3.174  11.369  0.1445  0.3136  0.3900
82709SOL    HW166119   0.952   3.112  11.322 -1.4400 -1.7023  1.0132
82709SOL    HW266120   0.956   3.242  11.399  1.6636  0.0975 -1.9284
82710SOL     OW66121   5.447  13.915   3.734 -0.2751 -0.2777  0.0624
82710SOL    HW166122   5.518  13.957   3.784 -0.7699  0.2503  0.3268
82710SOL    HW266123   5.457  13.822   3.754 -0.6578 -0.0508  1.4185
82711SOL     OW66124  11.798   7.622   7.377  0.2857 -0.0213 -0.0525
82711SOL    HW166125  11.702   7.627   7.376  0.2467 -0.5628  0.2598
82711SOL    HW266126  11.824   7.674   7.454  0.2546  0.2430 -0.2186
82712SOL     OW66127   4.985   3.763  14.111 -0.0560 -0.2435 -0.1306
82712SOL    HW166128   4.895   3.769  14.143 -0.3777  0.3910 -1.0927
82712SOL    HW266129   5.016   3.853  14.109  0.0363 -0.2880 -1.3342
82713SOL     OW66130  11.648   2.310  11.156  0.8310 -0.6427  0.1823
82713SOL    HW166131  11.723   2.257  11.182  0.2198 -1.5478  0.1664
82713SOL    HW266132  11.578   2.246  11.141  0.2630  0.1196 -0.5207
82714SOL     OW66133   0.017   0.463  12.810 -0.0659 -0.7137  0.0107
82714SOL    HW166134   0.030   0.411  12.889  2.0470 -0.6637 -0.2540
82714SOL    HW266135  -0.060   0.516  12.829  0.1267 -1.0318  1.8565
82715SOL     OW66136  12.422   1.677   4.303  0.8284 -0.1584  0.3563
82715SOL    HW166137  12.402   1.585   4.323  1.5066 -0.2701  0.5498
82715SOL    HW266138  12.508   1.691   4.342  0.8691  0.4702  0.0398
82716SOL     OW66139   1.816   0.145   2.442  0.2923  0.2548  0.3435
82716SOL    HW166140   1.783   0.096   2.366  2.9286  0.7330 -1.2665
82716SOL    HW266141   1.777   0.102   2.517  1.3288 -3.5109 -1.0314
82717SOL     OW66142   1.737   2.473  11.442  0.8108 -0.3967 -0.7605
82717SOL    HW166143   1.725   2.479  11.537  0.1470  0.4734 -0.8821
82717SOL    HW266144   1.815   2.525  11.424 -0.6157  1.8558 -0.9570
82718SOL     OW66145   6.794   8.955   1.097  0.0704  0.2473 -0.5388
82718SOL    HW166146   6.808   9.040   1.055  1.0890 -0.0720 -0.8604
82718SOL    HW266147   6.776   8.976   1.188 -0.6096  0.8562 -0.7962
82719SOL     OW66148   8.478   3.065   5.175 -0.4367 -0.3359 -0.0473
82719SOL    HW166149   8.518   3.098   5.095  0.7158 -0.0832  0.6050
82719SOL    HW266150   8.533   3.100   5.245  1.0044 -3.6950  0.7293
82720SOL     OW66151   4.403   5.380   6.329 -0.5498 -0.4893 -0.6349
82720SOL    HW166152   4.401   5.286   6.309  1.7902 -0.5547 -0.7872
82720SOL    HW266153   4.459   5.387   6.406 -1.8457  0.6909  0.2582
82721SOL     OW66154   4.610  13.237  10.579 -0.3612  0.2127  0.2735
82721SOL    HW166155   4.649  13.297  10.642  1.1238 -0.5942  0.1786
82721SOL    HW266156   4.593  13.157  10.629  0.9956 -0.4946 -0.3468
82722SOL     OW66157   3.584   0.456   5.984  0.4645  0.1124  0.2954
82722SOL    HW166158   3.622   0.451   5.896  2.1478 -1.2702  1.0191
82722SOL    HW266159   3.650   0.414   6.040 -0.9104  0.2483  2.0971
82723SOL     OW66160  10.491   7.080   2.749  0.4349  0.2640 -0.2258
82723SOL    HW166161  10.445   7.018   2.805  2.8333 -1.5816 -0.1726
82723SOL    HW266162  10.570   7.103   2.798  0.3297  2.2424 -0.9014
82724SOL     OW66163   5.952  11.911   5.443 -0.3543 -0.5040  0.8091
82724SOL    HW166164   5.936  11.818   5.454 -0.2179 -0.4883  1.1636
82724SOL    HW266165   5.943  11.927   5.349  0.3066 -1.0044  0.6540
82725SOL     OW66166   1.107   1.321   6.604 -0.3487  0.2819 -0.0825
82725SOL    HW166167   1.173   1.385   6.631 -0.4927  0.6702 -0.6239
82725SOL    HW266168   1.079   1.279   6.685  0.5066  0.1633  0.1578
82726SOL     OW66169  10.118  12.236   9.632 -0.6949 -0.1726  0.8139
82726SOL    HW166170  10.088  12.235   9.723 -1.1272 -0.8665  0.6699
82726SOL    HW266171  10.119  12.144   9.605 -1.8104  0.1086 -0.2832
82727SOL     OW66172   7.458   4.467   8.555  0.7385 -0.4046  0.2008
82727SOL    HW166173   7.516   4.391   8.543  0.6108 -0.6512  1.0882
82727SOL    HW266174   7.402   4.466   8.478  1.6776 -0.3758 -0.4994
82728SOL     OW66175  12.734   0.357   3.944 -0.4904 -0.3761 -0.0135
82728SOL    HW166176  12.691   0.275   3.922  0.2234 -0.3871 -1.5437
82728SOL    HW266177  12.803   0.366   3.878 -0.9818  1.7793 -0.3100
82729SOL     OW66178   0.443   2.740   4.359 -0.1605 -0.1902  0.0648
82729SOL    HW166179   0.358   2.696   4.357 -0.3453  0.0590  1.3778
82729SOL    HW266180   0.497   2.686   4.417  1.0227 -1.0611 -1.7655
82730SOL     OW66181   9.908   5.191   9.093 -0.2573 -0.1430  0.8899
82730SOL    HW166182   9.847   5.232   9.032  0.9210  1.2662  0.6147
82730SOL    HW266183   9.919   5.102   9.059 -0.5769  0.2288 -0.2273
82731SOL     OW66184  13.046  13.370   1.601 -0.0982 -0.1191 -0.0987
82731SOL    HW166185  13.113  13.310   1.569 -0.1419  0.6640 -1.7379
82731SOL    HW266186  13.021  13.334   1.686  1.4268 -1.1792 -0.0540
82732SOL     OW66187   0.600   5.165   9.458 -0.7796 -0.3003 -0.1438
82732SOL    HW166188   0.650   5.111   9.397 -0.0161  0.9996 -0.7117
82732SOL    HW266189   0.576   5.243   9.408 -2.7436 -0.5436  0.3577
82733SOL     OW66190   2.142   0.437  11.563 -0.0157  0.1556 -0.3382
82733SOL    HW166191   2.162   0.344  11.566 -2.7635 -0.6059 -1.7024
82733SOL    HW266192   2.132   0.463  11.654  2.4464 -0.3962  0.1568
82734SOL     OW66193   8.312  12.961  11.120 -0.3520  0.5711  0.8163
82734SOL    HW166194   8.286  13.036  11.066  1.5651  0.9753  0.4022
82734SOL    HW266195   8.387  12.992  11.170  1.0886 -1.3042 -0.0492
82735SOL     OW66196   2.159   0.502  10.779  0.5746  0.3828  0.0317
82735SOL    HW166197   2.107   0.460  10.710  1.7946  2.0803 -2.0293
82735SOL    HW266198   2.238   0.449  10.785  0.2685 -0.0392  0.5264
82736SOL     OW66199  11.040   2.384   3.497  0.2229  0.0886  0.1290
82736SOL    HW166200  10.954   2.414   3.527 -0.2237 -0.1358 -0.8887
82736SOL    HW266201  11.021   2.325   3.424  1.2554  0.5429 -0.5342
82737SOL     OW66202  11.365   6.165   7.659  0.0884 -0.3068 -0.3413
82737SOL    HW166203  11.406   6.238   7.706 -0.6159 -1.0536  1.5391
82737SOL    HW266204  11.410   6.162   7.574  2.2087  0.4121  0.6959
82738SOL     OW66205   1.682   5.723  11.503  0.3114 -0.3313  0.1647
82738SOL    HW166206   1.708   5.682  11.585 -1.3837 -1.5799  0.1263
82738SOL    HW266207   1.672   5.651  11.441 -0.7967  0.3351 -0.4686
82739SOL     OW66208   2.008   4.209  11.993 -0.0052 -0.6355  0.6111
82739SOL    HW166209   2.062   4.133  11.968  1.5444  1.2450 -2.3565
82739SOL    HW266210   1.918   4.182  11.972  0.6906 -1.1642 -2.0575
82740SOL     OW66211  14.141   1.019   2.203 -0.4013 -0.6779 -0.0017
82740SOL    HW166212  14.199   1.092   2.223 -1.5109 -0.0541  1.0543
82740SOL    HW266213  14.194   0.941   2.218  1.1655 -0.1339 -2.2543
82741SOL     OW66214  13.756  11.588   3.357  0.0845  0.6318 -0.6368
82741SOL    HW166215  13.797  11.555   3.277  0.5643 -0.5773  0.0865
82741SOL    HW266216  13.745  11.682   3.341  2.9678  1.0189 -0.9534
82742SOL     OW66217   4.403   5.032  11.541 -0.2812 -0.0924  0.2641
82742SOL    HW166218   4.433   5.058  11.454  1.1818 -1.9991  0.1089
82742SOL    HW266219   4.471   5.063  11.600 -0.5493 -0.0417  0.5474
82743SOL     OW66220  12.326   7.022   6.714 -0.3304  0.1158 -0.3380
82743SOL    HW166221  12.257   7.087   6.703 -0.5438 -0.0876 -0.2080
82743SOL    HW266222  12.351   6.998   6.624  0.4544  1.1121 -0.4050
82744SOL     OW66223  13.950   3.304   0.475 -0.0533 -0.1124 -0.3453
82744SOL    HW166224  14.009   3.353   0.531  0.4152 -0.8332 -0.1994
82744SOL    HW266225  13.946   3.355   0.394  0.6140  0.0390 -0.2829
82745SOL     OW66226   2.185   7.853   9.223  0.2120  0.1546 -0.2223
82745SOL    HW166227   2.112   7.858   9.285  0.8491  0.1526  0.5390
82745SOL    HW266228   2.245   7.790   9.262  0.9596  0.6912 -0.4929
82746SOL     OW66229   6.174  13.983  11.868  0.2005  0.1479 -0.1191
82746SOL    HW166230   6.236  13.981  11.941 -0.8985 -0.6527  0.8271
82746SOL    HW266231   6.225  13.953  11.792  0.7876 -1.1724  0.7774
82747SOL     OW66232   8.138   5.159  11.764  0.1746 -0.1183 -0.4139
82747SOL    HW166233   8.111   5.168  11.855  0.9027 -0.8011 -0.1125
82747SOL    HW266234   8.191   5.237  11.747 -0.5405  0.3575 -0.4747
82748SOL     OW66235  11.048   0.671  12.793 -0.2390 -0.2963  0.3386
82748SOL    HW166236  11.108   0.721  12.738 -2.8420  0.7493 -1.7401
82748SOL    HW266237  10.999   0.737  12.841 -1.8789 -0.9327 -0.4038
82749SOL     OW66238   6.329   4.539   3.282  0.1355  0.2149 -0.1213
82749SOL    HW166239   6.300   4.527   3.192  0.7336 -2.5867 -0.0141
82749SOL    HW266240   6.414   4.583   3.274 -0.6667  1.7350 -0.7722
82750SOL     OW66241   3.850   5.467   9.387 -0.3375  0.1890 -0.3771
82750SOL    HW166242   3.814   5.553   9.369  1.2515  1.3372  1.5624
82750SOL    HW266243   3.941   5.472   9.358 -0.6591 -1.4675 -1.8782
82751SOL     OW66244   7.679   3.417   9.784 -0.3425 -0.7845 -0.7016
82751SOL    HW166245   7.646   3.487   9.727 -0.6127 -0.6774 -0.4196
82751SOL    HW266246   7.616   3.346   9.773 -1.0160 -0.3670  0.2826
82752SOL     OW66247  11.552   1.485   5.934  0.3223 -0.5132  0.7434
82752SOL    HW166248  11.617   1.420   5.907  0.2570 -0.8371  1.3436
82752SOL    HW266249  11.473   1.433   5.950 -0.8313  0.1152 -2.2466
82753SOL     OW66250   5.358   3.353   7.293  0.1785  0.1151  0.0139
82753SOL    HW166251   5.323   3.320   7.376 -0.2827  0.4172 -0.0570
82753SOL    HW266252   5.453   3.343   7.301  0.0330 -1.7734 -0.2394
82754SOL     OW66253   0.183   0.389   8.030  0.2437 -0.1474 -0.8987
82754SOL    HW166254   0.162   0.466   8.084  0.5069 -0.7339  0.0820
82754SOL    HW266255   0.273   0.368   8.055  0.2025 -0.7201 -1.2340
82755SOL     OW66256   5.183  13.730  11.330 -0.1793 -0.2241  0.3448
82755SOL    HW166257   5.156  13.767  11.246  0.8992 -2.2240 -0.9594
82755SOL    HW266258   5.247  13.792  11.363  0.3339 -0.0086 -0.9641
82756SOL     OW66259   0.371   5.076   2.363  0.2037  0.9105  0.4047
82756SOL    HW166260   0.388   5.142   2.296  0.0986  1.8599  1.2738
82756SOL    HW266261   0.368   4.993   2.316  2.5777  1.2322 -0.4470
82757SOL     OW66262   2.489  10.894   1.684  0.7669 -0.0020 -0.7796
82757SOL    HW166263   2.545  10.953   1.633  0.3487 -2.3747 -4.2804
82757SOL    HW266264   2.535  10.810   1.681 -1.1123 -1.0862 -0.3802
82758SOL     OW66265  12.265   5.720   4.572 -0.0729  0.2105  0.2012
82758SOL    HW166266  12.310   5.802   4.594 -0.1621  0.4616 -0.5178
82758SOL    HW266267  12.186   5.748   4.526 -0.0386 -0.2801 -0.1695
82759SOL     OW66268  10.723   4.441   3.978 -0.4407  0.5409  0.1142
82759SOL    HW166269  10.748   4.417   3.889 -2.4854  0.0672 -0.3904
82759SOL    HW266270  10.646   4.387   3.997  0.1165  0.4035  2.3035
82760SOL     OW66271   0.240   6.947  11.908 -0.0211  0.1076 -0.1542
82760SOL    HW166272   0.311   7.012  11.912 -0.7566  0.8852  1.9416
82760SOL    HW266273   0.162   6.998  11.888 -0.4659 -0.2257  0.6663
82761SOL     OW66274   0.227  12.955   1.748 -0.0817 -0.1229  0.0106
82761SOL    HW166275   0.268  13.035   1.715  1.2308 -0.6272  0.3602
82761SOL    HW266276   0.266  12.941   1.834 -1.9142  0.0299  0.9254
82762SOL     OW66277  13.818  12.632   7.380 -0.1551 -0.5819 -0.0731
82762SOL    HW166278  13.738  12.604   7.425 -1.2360 -0.5097 -1.8375
82762SOL    HW266279  13.867  12.551   7.365 -0.6764 -0.8375 -0.4076
82763SOL     OW66280   1.251  11.895   6.118  0.2888  0.6466 -0.1210
82763SOL    HW166281   1.186  11.942   6.171  0.5545  1.8263 -0.8095
82763SOL    HW266282   1.336  11.923   6.154  0.4387 -0.1567  0.1620
82764SOL     OW66283   6.710   4.544   9.491  0.3901 -0.1576 -0.4473
82764SOL    HW166284   6.712   4.591   9.575  1.6822 -2.7329  1.0805
82764SOL    HW266285   6.660   4.464   9.510  0.9496 -0.9342 -2.0738
82765SOL     OW66286   5.841   9.800   5.647  0.4918 -0.0068  0.1767
82765SOL    HW166287   5.787   9.806   5.568 -0.2259  1.1037  0.7143
82765SOL    HW266288   5.900   9.876   5.642  0.1815  0.2934  0.8703
82766SOL     OW66289   5.280  10.740   4.700 -0.3365  0.1398 -0.1313
82766SOL    HW166290   5.246  10.815   4.749 -0.5032  0.6202 -0.9566
82766SOL    HW266291   5.310  10.679   4.767 -1.2462  0.4494  0.5832
82767SOL     OW66292   1.241   7.945  11.450 -0.4897  0.6645  0.3270
82767SOL    HW166293   1.240   7.904  11.364 -1.3701  0.2769  0.5069
82767SOL    HW266294   1.223   8.037  11.434 -2.0176  0.3625  0.1912
82768SOL     OW66295   8.045   2.638   5.053  0.0843 -0.1538  0.0394
82768SOL    HW166296   8.131   2.609   5.084  1.2703  1.6110 -1.4119
82768SOL    HW266297   8.020   2.573   4.986  1.3502  0.4978 -1.1086
82769SOL     OW66298   8.345   5.250   4.007  0.1607  0.4127 -0.2443
82769SOL    HW166299   8.361   5.341   4.033 -0.5565  0.6480 -0.5920
82769SOL    HW266300   8.432   5.210   4.002  0.4752  1.0589 -0.0102
82770SOL     OW66301   9.589   1.097  11.850 -0.4884  0.4046  0.2036
82770SOL    HW166302   9.582   1.186  11.816  2.1468  0.5235 -0.2221
82770SOL    HW266303   9.648   1.052  11.790 -0.3132 -1.0907  1.4200
82771SOL     OW66304   2.117   7.906  10.410 -0.4634 -0.2756  0.0870
82771SOL    HW166305   2.181   7.940  10.348 -1.2085  1.6773  0.3156
82771SOL    HW266306   2.165   7.898  10.493 -0.4515  0.9750  0.2062
82772SOL     OW66307   7.229   8.665  13.710 -0.0444  0.4008 -0.0974
82772SOL    HW166308   7.157   8.728  13.718  0.8788  1.4368  0.3433
82772SOL    HW266309   7.294   8.709  13.654  0.7286 -0.0455  0.4205
82773SOL     OW66310   9.848  14.138   7.707  0.1563 -0.0680 -0.3096
82773SOL    HW166311   9.847  14.055   7.661 -1.0047 -0.8048  0.9653
82773SOL    HW266312   9.933  14.177   7.685 -0.3630 -0.3134 -3.0701
82774SOL     OW66313  11.293   7.411  11.695 -0.2096 -0.1214  0.0403
82774SOL    HW166314  11.287   7.428  11.789  0.7906 -2.1400  0.5039
82774SOL    HW266315  11.250   7.326  11.683  1.9377 -1.1368 -0.8940
82775SOL     OW66316   9.446   1.194  11.430  0.4800 -0.7768  0.2640
82775SOL    HW166317   9.499   1.138  11.487  0.6535 -1.0276 -0.1457
82775SOL    HW266318   9.373   1.222  11.486 -0.7443 -3.0629 -0.0933
82776SOL     OW66319  13.925   6.986   0.541  0.3229  0.1230 -0.1721
82776SOL    HW166320  13.996   6.945   0.592  0.9457 -0.1167 -1.1952
82776SOL    HW266321  13.956   7.075   0.525 -0.0673  0.3322  0.2341
82777SOL     OW66322   2.205   9.996  10.639  0.2669 -0.2551 -0.4805
82777SOL    HW166323   2.300   9.984  10.638  0.1119 -1.9254  0.5854
82777SOL    HW266324   2.178   9.987  10.548  1.0938 -0.0207 -0.7579
82778SOL     OW66325   0.974   7.493   9.990  0.2558  0.2169 -0.3612
82778SOL    HW166326   0.976   7.525  10.080  0.9322 -0.6358 -0.0608
82778SOL    HW266327   1.029   7.554   9.941 -2.2738  2.3365 -0.8061
82779SOL     OW66328   1.657   6.869   3.133 -0.0067 -0.4824 -0.3347
82779SOL    HW166329   1.662   6.791   3.188  0.5663  0.7662  1.4707
82779SOL    HW266330   1.607   6.932   3.185 -0.1902  0.4663 -1.6162
82780SOL     OW66331   4.617   7.131  13.786  0.1002 -0.3107 -0.1912
82780SOL    HW166332   4.610   7.147  13.692 -0.6256  1.4973  0.1322
82780SOL    HW266333   4.612   7.218  13.826  1.0582 -0.9723  1.4991
82781SOL     OW66334  14.032   2.723   4.578 -0.0971  0.3898  0.1054
82781SOL    HW166335  13.979   2.650   4.608 -1.4726  1.8689  1.4637
82781SOL    HW266336  13.977   2.770   4.515  0.3693  0.8061 -0.0047
82782SOL     OW66337  13.741   0.722   7.104  0.2459 -0.4121  0.5406
82782SOL    HW166338  13.752   0.629   7.084 -1.3446 -1.0094  2.1689
82782SOL    HW266339  13.708   0.723   7.194 -2.5919  1.5378 -0.3921
82783SOL     OW66340   4.377   3.296   5.418 -0.2189  0.0728 -0.1054
82783SOL    HW166341   4.308   3.309   5.481  0.8647  2.0277  0.7561
82783SOL    HW266342   4.369   3.369   5.356  0.7799  0.0858 -0.2510
82784SOL     OW66343   6.166   7.986   6.729 -0.2701  0.0180 -0.3149
82784SOL    HW166344   6.136   8.067   6.770  0.9364 -0.1085  0.8608
82784SOL    HW266345   6.164   8.005   6.635 -2.3290  0.5776 -0.2074
82785SOL     OW66346   8.574   7.904   7.532 -0.5406  0.2708 -0.0820
82785SOL    HW166347   8.545   7.901   7.623 -0.2859 -2.2402 -0.0117
82785SOL    HW266348   8.569   7.996   7.508 -2.5563  0.7372  1.8327
82786SOL     OW66349  13.851   3.132   8.038 -0.2218  0.5800 -0.0688
82786SOL    HW166350  13.833   3.061   7.977  1.6494 -0.4367  0.4499
82786SOL    HW266351  13.932   3.104   8.083 -0.7721  1.9090  1.8800
82787SOL     OW66352   3.386  11.193   8.711  0.5179 -0.0178 -0.2548
82787SOL    HW166353   3.414  11.119   8.765 -1.5114 -0.8949 -0.2921
82787SOL    HW266354   3.311  11.230   8.759  0.9222  1.4451 -0.7085
82788SOL     OW66355   0.703   0.882  12.216 -0.4762  0.4088  0.2919
82788SOL    HW166356   0.637   0.947  12.241 -1.2877  0.2570 -1.3192
82788SOL    HW266357   0.774   0.894  12.280  1.1020  5.4026 -1.8737
82789SOL     OW66358   1.611   3.755  12.933  0.7228 -0.2023  0.6708
82789SOL    HW166359   1.642   3.834  12.977 -0.3838  1.2256 -1.0174
82789SOL    HW266360   1.517   3.769  12.921  0.7459 -1.1303 -0.9001
82790SOL     OW66361   8.117  10.043   0.693  0.0682 -0.3095 -0.0810
82790SOL    HW166362   8.062  10.094   0.634  0.9792  0.6830 -0.0971
82790SOL    HW266363   8.079   9.955   0.691  0.7032 -0.6169 -3.0107
82791SOL     OW66364  13.149  10.421   4.811  0.6373  0.6441 -0.2313
82791SOL    HW166365  13.176  10.417   4.903  1.1005  0.2666 -0.3847
82791SOL    HW266366  13.172  10.336   4.775  0.5335  0.8213 -0.7232
82792SOL     OW66367   0.048   0.865   2.815  0.4439 -0.4547 -0.6085
82792SOL    HW166368   0.009   0.830   2.735 -2.5720 -0.1578  0.5891
82792SOL    HW266369  -0.013   0.839   2.885  0.2477  3.4087  0.9123
82793SOL     OW66370   7.223  11.009   5.599  0.6379 -0.8074 -0.5661
82793SOL    HW166371   7.155  10.984   5.536  1.4132 -0.6604 -1.4911
82793SOL    HW266372   7.207  11.102   5.615  0.4654 -0.8345 -0.5803
82794SOL     OW66373   8.770   0.833   6.078  0.0354  0.4463 -0.5300
82794SOL    HW166374   8.700   0.894   6.054 -2.0407 -1.4547  0.3220
82794SOL    HW266375   8.840   0.852   6.015 -1.0236  2.7516 -1.1428
82795SOL     OW66376   0.902  13.140   2.554 -0.1271 -0.1749 -0.0013
82795SOL    HW166377   0.882  13.049   2.533  1.5708 -0.4165 -0.7031
82795SOL    HW266378   0.994  13.151   2.530 -0.1522  1.5882  0.5592
82796SOL     OW66379  13.225  10.195   5.754  0.2141 -0.0816  0.3963
82796SOL    HW166380  13.201  10.197   5.847 -0.8372  0.8028  0.1187
82796SOL    HW266381  13.268  10.279   5.738 -1.2153  0.5329 -0.3171
82797SOL     OW66382  10.431   7.467  13.765  0.4134  0.3636 -0.1930
82797SOL    HW166383  10.340   7.442  13.783  0.4041  0.1906 -0.4849
82797SOL    HW266384  10.453   7.422  13.684  0.9555 -0.0798  0.1887
82798SOL     OW66385  13.946   8.353  12.218  0.3829  0.1788  0.5357
82798SOL    HW166386  13.916   8.291  12.152 -0.2582 -0.6106  1.5508
82798SOL    HW266387  13.997   8.301  12.279  1.9288  1.1050  0.0886
82799SOL     OW66388  12.461   2.030  12.569  0.3408  0.1942 -0.1719
82799SOL    HW166389  12.491   2.121  12.578  0.9325 -0.0954  0.9801
82799SOL    HW266390  12.532   1.978  12.606  1.3099 -0.9788 -3.3400
82800SOL     OW66391  11.079  14.003   7.858 -0.1297 -0.1780 -0.2804
82800SOL    HW166392  11.009  14.008   7.923 -0.0677 -1.8313 -0.0584
82800SOL    HW266393  11.052  14.064   7.790 -0.2378  1.5530  1.2102
82801SOL     OW66394   6.592  13.236  10.232  0.2348 -0.2356 -0.6552
82801SOL    HW166395   6.510  13.276  10.262  0.9293  0.4314  0.4137
82801SOL    HW266396   6.619  13.289  10.157 -0.3315 -0.4996 -1.0550
82802SOL     OW66397   4.135   3.311   4.768  0.0912  0.3799 -0.6063
82802SOL    HW166398   4.111   3.253   4.840  1.8288  0.6475  0.2313
82802SOL    HW266399   4.198   3.261   4.716 -1.3035  0.1049 -2.1089
82803SOL     OW66400   0.381   3.489  11.103 -0.1334  0.1949  0.2592
82803SOL    HW166401   0.370   3.566  11.047 -1.2990 -0.6738 -0.7672
82803SOL    HW266402   0.417   3.523  11.184 -1.8206  2.0265  0.3184
82804SOL     OW66403   0.632   4.502   3.754 -0.0784 -0.0786  0.6517
82804SOL    HW166404   0.603   4.481   3.665 -2.1345 -1.1082  1.5010
82804SOL    HW266405   0.685   4.581   3.743 -1.5610  0.7529 -1.3133
82805SOL     OW66406   7.404   1.742  10.171  0.0916 -0.1284  0.1579
82805SOL    HW166407   7.486   1.708  10.206 -0.0867 -1.7761 -0.9339
82805SOL    HW266408   7.338   1.678  10.197 -0.5847  0.3460 -0.3411
82806SOL     OW66409  11.752   9.825   9.575 -0.0192  0.0101 -0.8309
82806SOL    HW166410  11.688   9.872   9.628 -0.3477  0.3761 -1.5385
82806SOL    HW266411  11.783   9.754   9.631  0.6747  1.2105  0.3600
82807SOL     OW66412  10.081   5.688  13.058  0.0807  0.4777  0.0917
82807SOL    HW166413  10.068   5.782  13.053  0.4307  0.4818 -1.6557
82807SOL    HW266414   9.996   5.650  13.035  0.2025  0.3857 -0.2141
82808SOL     OW66415  10.142  11.703   5.948 -0.2990 -0.0750  0.0606
82808SOL    HW166416  10.145  11.717   6.043  0.7385  2.9450 -0.3070
82808SOL    HW266417  10.229  11.670   5.927 -0.0646  0.5667  0.0112
82809SOL     OW66418   3.009   6.713   0.390  0.0469 -0.3303 -0.1870
82809SOL    HW166419   3.049   6.638   0.346  1.8776  0.3696  0.2072
82809SOL    HW266420   2.917   6.708   0.366  0.1700 -2.5325 -0.3954
82810SOL     OW66421   6.400  10.217  10.440  0.0825  0.0170 -0.4339
82810SOL    HW166422   6.328  10.275  10.465 -1.3229 -1.2612 -1.2780
82810SOL    HW266423   6.437  10.188  10.523 -0.9989 -0.0122  0.0603
82811SOL     OW66424   5.336   9.481  13.830  0.2306  0.2342  0.7592
82811SOL    HW166425   5.260   9.530  13.860 -0.4618  0.5626 -1.3595
82811SOL    HW266426   5.400   9.548  13.808  0.4132  0.0486  0.7222
82812SOL     OW66427   4.734   6.154  12.941 -0.1119  0.6227  0.1591
82812SOL    HW166428   4.640   6.162  12.957 -0.6667 -0.1585 -2.2912
82812SOL    HW266429   4.750   6.060  12.938  0.7031  0.7490  0.3302
82813SOL     OW66430   9.325   2.744  11.716 -0.0011  0.4748  0.5701
82813SOL    HW166431   9.303   2.712  11.628  1.3389 -1.3827  0.8634
82813SOL    HW266432   9.301   2.837  11.714 -0.7640  0.2854 -1.4834
82814SOL     OW66433   5.395  10.910   4.524  0.1039  0.0285  0.2867
82814SOL    HW166434   5.335  10.984   4.514  0.5878  0.3642 -0.2604
82814SOL    HW266435   5.350  10.849   4.582  0.8194  1.9581  3.0597
82815SOL     OW66436   8.349   4.871   0.833  0.0543 -0.0674 -0.9370
82815SOL    HW166437   8.350   4.963   0.809 -3.3434  0.3448 -0.0269
82815SOL    HW266438   8.293   4.830   0.768 -1.6599 -0.6751  0.8241
82816SOL     OW66439   7.652   5.099   3.767 -0.7330 -0.6611  0.2644
82816SOL    HW166440   7.621   5.033   3.830 -0.4603 -0.7581  0.2967
82816SOL    HW266441   7.620   5.068   3.682 -1.3580 -0.3739  0.3901
82817SOL     OW66442   7.799   6.785   2.148  0.2073 -0.2092 -0.9896
82817SOL    HW166443   7.724   6.843   2.163 -0.5180 -1.1545 -0.8208
82817SOL    HW266444   7.864   6.840   2.105  0.2480  1.1901  0.7668
82818SOL     OW66445  11.195  12.139   8.996 -1.0119 -0.2248 -0.3732
82818SOL    HW166446  11.185  12.084   8.918  0.5355  0.4146 -1.0623
82818SOL    HW266447  11.246  12.086   9.056 -2.7890 -0.9885  0.5385
82819SOL     OW66448   2.944  11.458   3.252  0.0904  0.2367 -0.0897
82819SOL    HW166449   3.019  11.513   3.228  0.6640 -0.9057 -0.9890
82819SOL    HW266450   2.984  11.378   3.288 -0.7129  1.2277  3.3770
82820SOL     OW66451   1.278  13.662   8.797 -0.2896 -0.3212 -0.1243
82820SOL    HW166452   1.241  13.750   8.798 -0.0731 -0.2363  0.4054
82820SOL    HW266453   1.270  13.634   8.706  0.7334  0.7005 -0.5463
82821SOL     OW66454   3.733   6.470   5.946 -0.6487  0.3683 -0.2986
82821SOL    HW166455   3.668   6.409   5.911 -0.2572 -0.5933  0.6046
82821SOL    HW266456   3.816   6.422   5.943 -0.4288  0.6479  0.9407
82822SOL     OW66457  10.400   3.665   2.727  0.3781  0.5166  0.0202
82822SOL    HW166458  10.463   3.627   2.789 -0.6735 -1.2660  0.0538
82822SOL    HW266459  10.390   3.756   2.756  0.8461  0.0642  1.7147
82823SOL     OW66460   4.392   2.307   5.561 -0.0905  0.1722 -0.4255
82823SOL    HW166461   4.464   2.363   5.533  1.0453 -1.2871 -0.5551
82823SOL    HW266462   4.385   2.241   5.492 -2.5142  1.0624 -1.1332
82824SOL     OW66463  13.565   2.408   0.771  0.4791 -0.4093 -0.4441
82824SOL    HW166464  13.660   2.404   0.776  0.5022  0.7353  0.2408
82824SOL    HW266465  13.545   2.393   0.679  1.3862  0.4611 -0.7894
82825SOL     OW66466  12.246   3.501  10.764  0.2256  0.5377 -0.3722
82825SOL    HW166467  12.338   3.528  10.766  0.3580  0.0868  0.8478
82825SOL    HW266468  12.203   3.558  10.828 -0.2929  0.5632 -0.7393
82826SOL     OW66469   6.746   7.014   7.297  0.5929 -0.4666 -0.2548
82826SOL    HW166470   6.688   6.977   7.230  0.1113  0.5836 -0.4409
82826SOL    HW266471   6.808   6.944   7.317  0.4256 -0.9639 -1.4258
82827SOL     OW66472   3.742  11.030  12.308  0.5292 -0.2313  0.5263
82827SOL    HW166473   3.782  11.055  12.392 -3.8724  1.9764  2.3380
82827SOL    HW266474   3.674  10.967  12.332  0.0765 -0.6476 -1.6328
82828SOL     OW66475   1.047   8.722   4.178  0.4701 -0.5927 -0.4255
82828SOL    HW166476   0.992   8.689   4.249  0.4667  0.1147 -0.0869
82828SOL    HW266477   1.107   8.783   4.221  0.4500 -0.1357 -1.0308
82829SOL     OW66478  11.813   3.463   0.163  0.2445  0.0043  0.4319
82829SOL    HW166479  11.815   3.393   0.228  2.4582  1.6629  2.3130
82829SOL    HW266480  11.722   3.492   0.164 -0.1616 -1.1644  1.5104
82830SOL     OW66481   7.029   1.051   9.910  0.0738  0.2654 -0.1977
82830SOL    HW166482   7.000   1.110   9.839 -0.2913 -0.6374 -0.8265
82830SOL    HW266483   6.986   1.086   9.988 -1.6877 -0.2336 -0.8809
82831SOL     OW66484   5.628   7.661  12.323 -0.3257 -0.0064  0.1338
82831SOL    HW166485   5.678   7.710  12.389 -1.2966  0.6332  0.4325
82831SOL    HW266486   5.558   7.721  12.297  0.2213 -0.1227 -1.7432
82832SOL     OW66487   5.745  13.036   5.257 -0.2650  0.1933  1.1028
82832SOL    HW166488   5.728  13.128   5.237  0.1557  0.4705  1.9653
82832SOL    HW266489   5.823  13.038   5.312  1.1484 -0.8578 -0.7464
82833SOL     OW66490  11.012  13.181  13.828  0.0301 -0.3179  0.8962
82833SOL    HW166491  11.047  13.258  13.874  0.4361  0.3175 -0.4290
82833SOL    HW266492  11.089  13.139  13.790 -0.3477 -0.5354  0.3679
82834SOL     OW66493  14.002   0.589  11.051  0.0968 -0.0375  0.3346
82834SOL    HW166494  13.986   0.495  11.060  0.5170 -0.0468  1.1403
82834SOL    HW266495  13.987   0.624  11.139 -1.4118  0.8771 -0.2441
82835SOL     OW66496  11.233  12.332  10.913 -0.1736  0.2786  0.1438
82835SOL    HW166497  11.277  12.312  10.830 -1.1233 -2.4360  0.2002
82835SOL    HW266498  11.304  12.354  10.973  0.5622  1.8564 -1.2208
82836SOL     OW66499   6.780   4.117  12.433 -0.3890 -1.1884 -0.1517
82836SOL    HW166500   6.732   4.057  12.489 -0.5338  0.0274  1.0745
82836SOL    HW266501   6.866   4.077  12.422 -0.4695 -1.6005  0.6723
82837SOL     OW66502   8.414   9.847   3.477  0.2420  0.2444  0.9923
82837SOL    HW166503   8.468   9.824   3.553  0.6902  0.0354  0.6132
82837SOL    HW266504   8.453   9.799   3.405 -0.9104 -0.5166  0.8550
82838SOL     OW66505   2.238   3.913   7.076 -0.2407 -0.2591  0.7870
82838SOL    HW166506   2.282   3.897   7.159  2.4025 -1.8259 -0.7886
82838SOL    HW266507   2.250   4.006   7.059 -1.6847  0.2980  2.5479
82839SOL     OW66508   6.558   5.438   5.005 -1.1585  0.1443 -0.0978
82839SOL    HW166509   6.497   5.398   5.068  0.8843 -0.8108  1.3763
82839SOL    HW266510   6.513   5.429   4.920 -2.7091 -1.2691  0.7977
82840SOL     OW66511  12.667   7.248   8.809  0.0419 -0.2785  0.2303
82840SOL    HW166512  12.728   7.264   8.736 -0.7237  2.8765  0.1683
82840SOL    HW266513  12.722   7.257   8.887 -0.0182  1.0661  0.1353
82841SOL     OW66514   9.241   1.299   3.567 -1.0117  0.2399 -0.2602
82841SOL    HW166515   9.305   1.312   3.637  0.4205  1.4965 -1.7375
82841SOL    HW266516   9.188   1.224   3.597 -0.1394  0.4065  1.9020
82842SOL     OW66517  14.057   6.086  11.228 -0.1061  0.5205 -0.1561
82842SOL    HW166518  14.094   6.020  11.286 -0.4288  0.2311 -0.2743
82842SOL    HW266519  13.962   6.076  11.237 -0.2504  2.5529  1.6587
82843SOL     OW66520   7.359   6.663   5.499  0.0239  0.1729  0.3140
82843SOL    HW166521   7.287   6.650   5.562  0.0046  0.0390  0.2657
82843SOL    HW266522   7.415   6.586   5.513  1.3768  1.3727  1.9673
82844SOL     OW66523   7.400   8.776   1.058 -0.5194  0.1371  0.3009
82844SOL    HW166524   7.387   8.751   0.967  0.0569 -2.6887  0.9150
82844SOL    HW266525   7.328   8.735   1.105 -0.1370  0.5478  1.2683
82845SOL     OW66526  11.854   1.926  10.647 -0.0427 -0.1963  0.3556
82845SOL    HW166527  11.850   2.007  10.597 -0.3986 -0.9607 -0.8875
82845SOL    HW266528  11.764   1.908  10.673 -0.2725 -1.1815 -1.0306
82846SOL     OW66529   4.426  13.696   3.245  0.3009 -0.2258 -0.1344
82846SOL    HW166530   4.371  13.627   3.208 -1.1163 -0.1544  1.6891
82846SOL    HW266531   4.516  13.663   3.233 -0.1766 -0.9964 -1.9154
82847SOL     OW66532  12.790  12.297  10.848 -0.0859  0.1176  0.6222
82847SOL    HW166533  12.747  12.357  10.909 -0.8267  1.2782 -0.9438
82847SOL    HW266534  12.868  12.267  10.894 -0.7555  0.7076  2.2219
82848SOL     OW66535   6.770   3.557  10.776  0.0830  0.4768 -0.5148
82848SOL    HW166536   6.848   3.521  10.817 -0.3363  0.3502  0.1983
82848SOL    HW266537   6.799   3.639  10.735  0.2016  1.4613  1.4319
82849SOL     OW66538  14.067   6.252   6.522 -0.0146 -0.1413 -0.4247
82849SOL    HW166539  14.092   6.274   6.611 -0.9927  0.3620 -0.2654
82849SOL    HW266540  14.024   6.166   6.530  1.0084 -0.6774 -0.5974
82850SOL     OW66541   9.259   6.229  13.735 -0.7443  0.1446 -0.2144
82850SOL    HW166542   9.175   6.196  13.768  0.1368 -0.9242  1.0567
82850SOL    HW266543   9.241   6.321  13.713 -2.4252 -0.2564 -0.7110
82851SOL     OW66544   6.824   7.932   0.955  0.7083 -0.0865  0.0815
82851SOL    HW166545   6.877   7.986   0.897 -0.2029 -0.8163 -1.5114
82851SOL    HW266546   6.867   7.846   0.952 -0.2696 -0.5710 -0.8960
82852SOL     OW66547   8.456   8.974  10.784  0.3090  0.4147 -0.8816
82852SOL    HW166548   8.506   8.899  10.752  1.0640  0.9955 -1.0786
82852SOL    HW266549   8.504   9.051  10.753  0.3250  0.9898  0.4947
82853SOL     OW66550   7.601  13.218   0.545 -0.8070 -0.2907  0.3687
82853SOL    HW166551   7.540  13.240   0.615 -0.7420  1.5682 -0.0825
82853SOL    HW266552   7.558  13.149   0.495 -2.5757  0.9374  0.0801
82854SOL     OW66553   0.630   6.896   6.380  0.1987  0.0310  0.3129
82854SOL    HW166554   0.619   6.801   6.386  0.9729 -0.1422 -0.7971
82854SOL    HW266555   0.579   6.920   6.302 -1.2814  0.7649  1.4596
82855SOL     OW66556   3.971  12.358   4.890 -0.0853 -0.0497  0.2545
82855SOL    HW166557   4.008  12.419   4.826  0.4750  1.3069  1.7866
82855SOL    HW266558   4.041  12.346   4.954 -1.3873  0.5659  1.8769
82856SOL     OW66559   8.834  11.819  12.036 -0.0934  0.2481  0.0770
82856SOL    HW166560   8.750  11.864  12.024  0.0613  0.5700  0.1968
82856SOL    HW266561   8.814  11.747  12.096 -0.2454  0.4374  0.2561
82857SOL     OW66562   5.019   9.025   8.616  0.3740  0.1371 -0.4405
82857SOL    HW166563   5.114   9.038   8.608  0.6881 -0.9591  1.1209
82857SOL    HW266564   4.987   9.107   8.653  0.8835  0.0946  0.1095
82858SOL     OW66565   7.670  13.397   9.639 -0.4971 -0.4825  0.1142
82858SOL    HW166566   7.669  13.362   9.550 -0.7323  0.3239 -0.2181
82858SOL    HW266567   7.577  13.406   9.662 -0.5126  1.7140 -0.5733
82859SOL     OW66568  12.224   5.014   8.550  0.2314 -0.4611  0.4166
82859SOL    HW166569  12.184   5.070   8.617  0.0687  0.3660 -0.3573
82859SOL    HW266570  12.318   5.027   8.560  0.1761  1.3028 -0.8409
82860SOL     OW66571   6.786   6.949   0.662 -0.8638 -0.9913  0.2685
82860SOL    HW166572   6.845   6.879   0.690 -0.2099 -1.0399 -1.1145
82860SOL    HW266573   6.733   6.910   0.593  1.6835  0.5850 -2.8412
82861SOL     OW66574   3.266   6.528  13.819  0.5445  0.9306  0.2627
82861SOL    HW166575   3.293   6.618  13.838 -2.0309  1.9552 -0.5540
82861SOL    HW266576   3.171   6.533  13.809  0.4425 -1.7195 -0.7796
82862SOL     OW66577   9.013  13.896  13.781  0.1268  0.0114 -0.2926
82862SOL    HW166578   9.051  13.817  13.743 -1.3591 -0.6373 -0.4706
82862SOL    HW266579   9.089  13.953  13.797  1.4475 -2.0805  1.4237
82863SOL     OW66580   9.864   2.906  14.122 -0.4299 -0.1503  0.0680
82863SOL    HW166581   9.890   2.814  14.131 -0.7250 -0.0552  2.7642
82863SOL    HW266582   9.836   2.914  14.031  1.0475 -2.3271 -0.6757
82864SOL     OW66583   1.219   1.007   0.920  0.8372 -0.9533 -0.0426
82864SOL    HW166584   1.138   1.031   0.875  1.2935 -1.4243 -1.1555
82864SOL    HW266585   1.219   1.061   0.999  0.0121 -0.0944 -0.6033
82865SOL     OW66586   2.215  10.823  13.160 -0.6467  0.0703  0.9158
82865SOL    HW166587   2.219  10.912  13.125 -0.5482 -0.1017  0.4777
82865SOL    HW266588   2.121  10.808  13.176 -0.7748 -0.0819  0.0821
82866SOL     OW66589  10.712   6.048   7.916 -0.0883 -0.3337  0.2717
82866SOL    HW166590  10.692   6.007   8.000 -0.7821  0.8843  0.7396
82866SOL    HW266591  10.706   6.142   7.933  1.5271 -0.0088 -0.7286
82867SOL     OW66592   6.543  12.773   7.406  0.0807 -0.2197  0.2272
82867SOL    HW166593   6.452  12.768   7.436 -0.1962 -0.8578 -0.6899
82867SOL    HW266594   6.544  12.727   7.322  1.1160  0.3675 -0.1083
82868SOL     OW66595   9.192   1.362   6.239 -0.1178 -0.1779  0.4301
82868SOL    HW166596   9.287   1.361   6.225 -0.1436 -0.6846  0.2535
82868SOL    HW266597   9.168   1.269   6.244 -0.8892 -0.1510 -1.5610
82869SOL     OW66598   0.287  13.100   1.082 -0.2846 -0.0471 -0.2614
82869SOL    HW166599   0.342  13.168   1.122  0.8675 -1.5097  0.7211
82869SOL    HW266600   0.322  13.091   0.993 -1.3425  1.5638 -0.8994
82870SOL     OW66601   0.010   1.331   5.174  0.0131  0.3236  0.1324
82870SOL    HW166602  -0.008   1.322   5.268  0.5164 -0.0318  0.1972
82870SOL    HW266603   0.105   1.332   5.168 -0.0194  0.3425 -0.3787
82871SOL     OW66604   6.926   9.065   2.009 -0.0339  0.7350 -0.5339
82871SOL    HW166605   6.836   9.035   2.010 -0.1910  1.1348 -1.6778
82871SOL    HW266606   6.971   9.009   1.946  0.0487  1.7671 -1.4338
82872SOL     OW66607   3.754   5.881   7.350 -0.2105  0.3212  0.1809
82872SOL    HW166608   3.841   5.919   7.360 -0.0134 -0.1886  0.4493
82872SOL    HW266609   3.725   5.910   7.264  0.3038  0.3356  0.0074
82873SOL     OW66610   3.306   9.908  12.093  0.1090 -0.1462 -0.1357
82873SOL    HW166611   3.356   9.850  12.036 -0.5496 -1.5661  0.6738
82873SOL    HW266612   3.285   9.983  12.038  0.8009 -0.7588 -1.2857
82874SOL     OW66613   2.201   7.512  11.784  0.4982  0.3285  0.5267
82874SOL    HW166614   2.223   7.427  11.822 -0.3207 -0.5137 -0.8250
82874SOL    HW266615   2.234   7.509  11.695  0.6683  1.5312  0.5279
82875SOL     OW66616   6.591   9.751   3.118  0.9049 -0.6462  0.2804
82875SOL    HW166617   6.599   9.846   3.124  0.1155 -0.4259 -1.3690
82875SOL    HW266618   6.570   9.735   3.026 -1.5312 -2.1959  1.0119
82876SOL     OW66619  10.620   5.773   5.970 -1.0829 -0.2589 -0.1448
82876SOL    HW166620  10.629   5.832   6.045 -0.4193 -1.7904  1.0380
82876SOL    HW266621  10.674   5.812   5.902  0.1625 -0.0094  0.9514
82877SOL     OW66622  13.497   6.892   7.105 -0.1471 -0.4511 -0.5483
82877SOL    HW166623  13.476   6.969   7.052  1.1668  0.8670  0.7472
82877SOL    HW266624  13.419   6.878   7.158 -0.3062  0.1619 -0.6059
82878SOL     OW66625  13.167  12.904   8.545  0.3956  0.3043 -0.8069
82878SOL    HW166626  13.156  12.810   8.555  0.0300 -0.0412 -3.7062
82878SOL    HW266627  13.078  12.939   8.557  0.4054  0.2119 -0.4473
82879SOL     OW66628   2.411   4.161   7.325 -0.0137 -0.0194 -0.7341
82879SOL    HW166629   2.399   4.082   7.377  3.5067 -1.2811 -1.5857
82879SOL    HW266630   2.441   4.227   7.388  1.4392 -0.7229 -0.6468
82880SOL     OW66631   5.875  12.200   3.642  0.0556 -0.2002  0.2160
82880SOL    HW166632   5.906  12.170   3.727  0.8072  0.8285  0.3064
82880SOL    HW266633   5.794  12.150   3.628  0.4020 -1.0477  1.1062
82881SOL     OW66634   1.907  10.841  13.647  0.2234  0.0217 -1.0731
82881SOL    HW166635   2.001  10.825  13.648  0.4629  1.2160  0.0926
82881SOL    HW266636   1.869  10.765  13.691  0.9161  0.6645  0.7342
82882SOL     OW66637  12.332  12.529   9.640 -0.5666 -0.6890  0.0020
82882SOL    HW166638  12.318  12.455   9.698 -0.1691 -0.1752  0.7737
82882SOL    HW266639  12.418  12.564   9.665 -0.5633 -0.2254 -0.6265
82883SOL     OW66640   2.684   6.341  12.566  0.3814  0.9537 -0.2787
82883SOL    HW166641   2.689   6.392  12.486 -0.6049  2.2824  0.4803
82883SOL    HW266642   2.591   6.341  12.590  0.3728 -0.9766 -0.0878
82884SOL     OW66643   1.272  10.862   4.327 -0.4052 -0.3589 -0.4608
82884SOL    HW166644   1.198  10.871   4.268 -1.5278 -1.7803  0.6781
82884SOL    HW266645   1.261  10.934   4.390 -1.0515 -0.7906 -0.0702
82885SOL     OW66646   5.831  13.957   4.151 -0.1733 -0.2763 -0.5055
82885SOL    HW166647   5.770  14.000   4.091  0.5435 -0.3607 -1.3174
82885SOL    HW266648   5.897  13.917   4.094 -0.2068 -1.5140  0.2766
82886SOL     OW66649  13.445  12.408  11.917 -0.2671 -0.0544 -0.4477
82886SOL    HW166650  13.467  12.347  11.988 -1.9056 -0.7880 -0.5213
82886SOL    HW266651  13.520  12.402  11.857 -0.0295 -1.4071 -0.0564
82887SOL     OW66652   9.145   4.541  10.616 -0.2515 -1.0166 -0.7466
82887SOL    HW166653   9.211   4.496  10.669  0.1203  0.1975 -0.1488
82887SOL    HW266654   9.062   4.501  10.642  0.1091 -1.6566 -0.5534
82888SOL     OW66655   5.705   7.041   8.285  0.1501 -0.1312  0.0076
82888SOL    HW166656   5.682   7.058   8.376  0.1187 -1.3563  0.2448
82888SOL    HW266657   5.679   7.121   8.239  0.6288  0.7094  1.1341
82889SOL     OW66658  12.638   0.583   7.846  0.5307  0.1711 -0.0505
82889SOL    HW166659  12.623   0.576   7.751 -0.6072 -1.4583  0.2105
82889SOL    HW266660  12.576   0.650   7.876  1.8529  1.7232 -0.6078
82890SOL     OW66661   5.425   7.136   9.146  0.1102  0.1803 -0.2187
82890SOL    HW166662   5.478   7.206   9.185  1.8247 -0.8761 -0.5445
82890SOL    HW266663   5.438   7.062   9.205 -2.6682  0.3916  0.8094
82891SOL     OW66664   7.870   4.336   7.631  0.0514 -0.0481  0.1475
82891SOL    HW166665   7.842   4.418   7.590  0.1324 -0.1076 -0.0298
82891SOL    HW266666   7.926   4.362   7.703  1.2679  0.0234 -0.8008
82892SOL     OW66667   5.830   4.763   4.720 -0.2647 -0.3428 -0.3029
82892SOL    HW166668   5.739   4.733   4.729  0.3178 -2.0770  0.1342
82892SOL    HW266669   5.854   4.741   4.631  0.0096 -0.7519 -0.1321
82893SOL     OW66670   7.113   8.046   0.443  0.7074 -0.2549 -0.2337
82893SOL    HW166671   7.206   8.024   0.442  0.6376 -0.7227  1.0747
82893SOL    HW266672   7.111   8.142   0.447  1.1330 -0.2483 -0.1751
82894SOL     OW66673   5.901  10.787   2.671 -0.2623 -1.2883  0.4818
82894SOL    HW166674   5.961  10.848   2.627 -0.8352  1.7391  3.5403
82894SOL    HW266675   5.957  10.738   2.731  0.0356 -3.3415 -1.3102
82895SOL     OW66676   6.695   9.059   3.059  0.1947 -0.0722 -0.0794
82895SOL    HW166677   6.604   9.076   3.036  0.0928  0.3745  0.6485
82895SOL    HW266678   6.691   8.992   3.127  0.4257 -0.2514 -0.2382
82896SOL     OW66679   0.872   2.650  10.705  0.4713  0.1479  0.1951
82896SOL    HW166680   0.916   2.695  10.777 -1.0429  1.4759  0.3545
82896SOL    HW266681   0.789   2.621  10.742  1.1359 -2.3364 -0.0859
82897SOL     OW66682   3.359   9.058   9.901 -0.1579 -0.4314  0.4278
82897SOL    HW166683   3.435   9.021   9.945  0.3852 -0.2577 -0.3517
82897SOL    HW266684   3.390   9.139   9.861 -1.0995  0.3820  1.2873
82898SOL     OW66685   0.353   5.030  12.232  0.3021  0.5722  0.2215
82898SOL    HW166686   0.328   5.029  12.324  0.1893 -0.0930  0.1891
82898SOL    HW266687   0.280   4.987  12.187  0.7103  0.1839 -0.0824
82899SOL     OW66688   7.603   9.241   7.185  0.2910 -0.3635  0.4730
82899SOL    HW166689   7.621   9.199   7.101 -0.5219 -0.0589  0.1403
82899SOL    HW266690   7.533   9.303   7.166 -0.8167 -1.2133  1.6305
82900SOL     OW66691   8.590  14.001  13.595  0.4470 -0.1070 -0.7657
82900SOL    HW166692   8.617  14.001  13.687  1.8588  1.7363 -1.1270
82900SOL    HW266693   8.645  13.934  13.554  0.2450 -0.5097 -0.3801
82901SOL     OW66694   1.773  12.516  13.806  0.2956  0.4199 -0.2666
82901SOL    HW166695   1.796  12.495  13.896 -1.4743  0.5374  0.2310
82901SOL    HW266696   1.689  12.561  13.811 -1.1278 -1.7757 -2.1319
82902SOL     OW66697   0.177  12.995   2.257  0.3223  0.1364 -0.2899
82902SOL    HW166698   0.185  13.062   2.189 -0.2222  1.1834  0.6346
82902SOL    HW266699   0.265  12.958   2.265  0.2215 -0.5572 -2.0800
82903SOL     OW66700   1.397   1.953  11.131  0.8955 -0.1941  0.0627
82903SOL    HW166701   1.409   2.043  11.163  1.0303 -0.2583  0.1943
82903SOL    HW266702   1.302   1.943  11.122  0.7827 -0.4610  1.2964
82904SOL     OW66703  12.154   7.178   6.075  0.0720  0.3422  0.1305
82904SOL    HW166704  12.185   7.098   6.119 -1.7722  0.7403  2.3758
82904SOL    HW266705  12.094   7.146   6.008 -0.2940 -0.2161  0.7030
82905SOL     OW66706   0.681   3.231   6.063 -0.2412  0.1807  0.8686
82905SOL    HW166707   0.740   3.300   6.094  1.5396 -0.1693 -1.4218
82905SOL    HW266708   0.635   3.270   5.989 -0.1661 -0.6884  0.3511
82906SOL     OW66709   0.993   4.929   5.800  0.0768  0.4929  0.0906
82906SOL    HW166710   0.948   4.977   5.869 -0.6182  0.5768 -0.4149
82906SOL    HW266711   0.961   4.968   5.718 -1.5993 -1.7358 -0.4140
82907SOL     OW66712  11.842  11.780   1.690 -0.5863  0.0963  0.1684
82907SOL    HW166713  11.902  11.849   1.663 -0.5807  0.1952  0.4345
82907SOL    HW266714  11.897  11.718   1.738 -0.3795 -0.6241 -0.9499
82908SOL     OW66715   1.395   5.724  13.884  0.5851  0.3733 -0.1547
82908SOL    HW166716   1.390   5.640  13.931 -0.4912 -0.1094 -1.1006
82908SOL    HW266717   1.489   5.740  13.875  0.8388  0.3943  1.9913
82909SOL     OW66718   2.471   2.436  13.203  0.0966 -0.3882  0.3500
82909SOL    HW166719   2.515   2.423  13.119  0.4921 -0.6533  0.5956
82909SOL    HW266720   2.516   2.511  13.242  0.4007 -0.7156  0.6413
82910SOL     OW66721  11.958   3.511  10.167 -1.1826  0.2205 -0.2503
82910SOL    HW166722  11.976   3.539  10.257 -0.2807 -0.4672 -0.2056
82910SOL    HW266723  12.008   3.572  10.112  0.4939 -1.0167 -0.1649
82911SOL     OW66724   2.375   6.390   9.209  0.2007  0.2407  0.1846
82911SOL    HW166725   2.296   6.335   9.202 -0.3010  0.9817 -0.1379
82911SOL    HW266726   2.404   6.378   9.299 -0.3632  0.0528  0.3469
82912SOL     OW66727   8.090   8.458   6.336 -0.5809 -0.0650 -0.0160
82912SOL    HW166728   8.106   8.470   6.429 -0.7688 -0.3921  0.0608
82912SOL    HW266729   8.173   8.479   6.294 -1.8023  6.0363 -0.3440
82913SOL     OW66730  10.236  10.679   6.173  0.5020  0.1981  0.1776
82913SOL    HW166731  10.273  10.592   6.162  0.1998 -0.1022  1.4500
82913SOL    HW266732  10.311  10.738   6.169  0.5850  0.0419 -2.0085
82914SOL     OW66733  10.904   9.529  12.761  0.1067 -0.0940 -0.4330
82914SOL    HW166734  10.943   9.582  12.692 -0.6518  0.7526 -0.2473
82914SOL    HW266735  10.827   9.490  12.720 -1.3351  1.7658  0.3065
82915SOL     OW66736   4.144   4.424   9.162  0.4926  0.0020 -0.4435
82915SOL    HW166737   4.159   4.398   9.071 -1.0818  0.7547 -0.9595
82915SOL    HW266738   4.232   4.439   9.197  1.1264 -0.0230 -1.9259
82916SOL     OW66739   6.198  12.543   8.918  0.0323  0.0612 -0.0315
82916SOL    HW166740   6.213  12.540   8.823  1.3393 -2.3211  0.1521
82916SOL    HW266741   6.273  12.591   8.953  1.7341 -2.4338  0.0151
82917SOL     OW66742   7.611   7.986   2.455  0.1630  0.0145 -0.4462
82917SOL    HW166743   7.603   7.894   2.431 -2.9468 -0.0271  0.4246
82917SOL    HW266744   7.698   8.011   2.422  2.2667 -3.8075  1.5147
82918SOL     OW66745   6.982   0.599   3.865  0.9129 -0.4538 -0.0088
82918SOL    HW166746   6.964   0.506   3.849  1.5096 -0.7425  0.9112
82918SOL    HW266747   7.077   0.604   3.875  0.8243  0.1367  0.6329
82919SOL     OW66748  11.022   4.841  12.390 -0.3496 -0.1156  0.0605
82919SOL    HW166749  10.978   4.864  12.472 -3.0001 -0.3387 -1.2107
82919SOL    HW266750  10.952   4.812  12.333  1.6530 -1.6034 -1.7616
82920SOL     OW66751  10.579  11.337   2.751  0.3436 -0.0686 -0.2767
82920SOL    HW166752  10.508  11.393   2.783 -0.4303 -1.5547  0.7744
82920SOL    HW266753  10.645  11.341   2.820  1.0923  0.9200 -1.0254
82921SOL     OW66754  10.545  11.188   3.644  0.2677 -0.5301 -0.3709
82921SOL    HW166755  10.597  11.208   3.722  1.9763  0.8420 -1.7817
82921SOL    HW266756  10.454  11.199   3.673  0.7838 -1.2160  1.7054
82922SOL     OW66757   4.264  12.103   5.593  0.3426  0.1392 -0.1754
82922SOL    HW166758   4.306  12.166   5.651 -1.4636  1.8243 -0.5863
82922SOL    HW266759   4.334  12.071   5.536  1.5077  0.8953  0.7923
82923SOL     OW66760   0.645   6.786  13.458 -0.0975  0.8286  0.1847
82923SOL    HW166761   0.585   6.840  13.405 -0.2290  2.3363  1.7839
82923SOL    HW266762   0.722   6.774  13.402  0.5376  3.9034  0.1938
82924SOL     OW66763   9.989   8.381   9.920  0.0294  0.1228 -0.4315
82924SOL    HW166764   9.994   8.338  10.005  1.2514  1.2647  0.1009
82924SOL    HW266765   9.909   8.433   9.924 -0.4209 -0.5562 -0.3588
82925SOL     OW66766   8.899   1.929  11.380 -0.3597  0.4460 -0.8310
82925SOL    HW166767   8.917   1.843  11.342  2.0815  0.1102  0.8616
82925SOL    HW266768   8.811   1.921  11.417 -0.2087 -1.2957 -0.7723
82926SOL     OW66769   0.462   5.107   5.461  0.1676  0.1044  0.2322
82926SOL    HW166770   0.490   5.017   5.450 -3.9717 -1.5270  1.2586
82926SOL    HW266771   0.432   5.134   5.375 -2.2891 -1.0415  0.6618
82927SOL     OW66772   7.536  13.768   9.736  0.2244  0.3950  0.0155
82927SOL    HW166773   7.566  13.848   9.780  0.8430  0.7094 -0.9275
82927SOL    HW266774   7.616  13.715   9.727 -0.3637 -0.8365  1.5966
82928SOL     OW66775   1.971   2.799   4.363  0.2162  0.3236  0.3304
82928SOL    HW166776   2.049   2.835   4.405 -0.2778 -0.3773  1.9240
82928SOL    HW266777   1.959   2.714   4.404 -1.4018  0.4267  0.1340
82929SOL     OW66778   5.783   5.594   3.049  0.3095 -0.6372  0.5197
82929SOL    HW166779   5.755   5.595   2.958  0.5598  1.3337  0.4073
82929SOL    HW266780   5.706   5.622   3.098  0.9039  1.0322  0.5876
82930SOL     OW66781   6.378   1.635   1.736 -0.7509 -0.4247  0.2630
82930SOL    HW166782   6.288   1.607   1.721 -1.4074  1.1439  1.0490
82930SOL    HW266783   6.372   1.701   1.805  1.1622 -1.1922  1.2419
82931SOL     OW66784  10.270  12.656  10.811  0.0734 -0.2580  0.7816
82931SOL    HW166785  10.322  12.673  10.890 -1.2387  0.2352  1.5762
82931SOL    HW266786  10.278  12.736  10.759  0.6068 -0.4278  0.5952
82932SOL     OW66787   2.928   6.105  13.251  0.0464  0.3549  0.2862
82932SOL    HW166788   2.850   6.086  13.200  0.2721 -1.5711  0.6144
82932SOL    HW266789   2.911   6.067  13.337  1.7229 -1.0378  0.0638
82933SOL     OW66790   5.590   7.845   3.680  0.0203 -0.0390 -0.2777
82933SOL    HW166791   5.633   7.930   3.683  1.7327 -0.8836  0.2951
82933SOL    HW266792   5.623   7.803   3.601  0.5197 -0.8168  0.3219
82934SOL     OW66793  10.530   5.766   8.775  0.0142 -0.5505 -0.6890
82934SOL    HW166794  10.600   5.821   8.810  0.3626 -1.2442 -0.2772
82934SOL    HW266795  10.532   5.782   8.681  0.4789 -0.2796 -0.6391
82935SOL     OW66796   9.264   3.402  12.220 -0.2580 -0.1063  0.2326
82935SOL    HW166797   9.194   3.337  12.229 -0.4577  0.3405  2.7672
82935SOL    HW266798   9.227   3.470  12.163 -1.2199 -0.7052  0.1210
82936SOL     OW66799   8.038  11.457   0.564  0.3559  0.4808 -0.4060
82936SOL    HW166800   8.090  11.447   0.643  1.6943 -0.2953 -1.3352
82936SOL    HW266801   7.948  11.441   0.592  0.6798  1.1820  1.1206
82937SOL     OW66802  12.457   9.245  11.842  0.0016  0.8317 -0.5191
82937SOL    HW166803  12.496   9.332  11.841  0.0339  0.9664  2.4821
82937SOL    HW266804  12.531   9.185  11.849 -0.1104  0.7584  0.1052
82938SOL     OW66805   1.831  13.015  14.150  0.0150  0.9773  0.3366
82938SOL    HW166806   1.918  12.986  14.178  0.0629  0.0406 -0.6917
82938SOL    HW266807   1.844  13.104  14.118  0.8446  0.4609 -0.8410
82939SOL     OW66808  13.232   4.754   9.311  0.6934  0.4887 -0.5665
82939SOL    HW166809  13.307   4.765   9.252  1.8106 -1.0598  0.4743
82939SOL    HW266810  13.243   4.824   9.376 -0.1300  1.7369 -1.7097
82940SOL     OW66811   8.897   8.340   2.826  0.0352 -0.1694  0.0240
82940SOL    HW166812   8.902   8.244   2.825 -0.2499 -0.2487  1.9941
82940SOL    HW266813   8.808   8.359   2.857  0.8189  0.6586  1.9346
82941SOL     OW66814   5.310  10.332   2.064  0.4402 -0.1935 -0.3065
82941SOL    HW166815   5.259  10.356   2.141 -0.1169  0.8370 -0.9751
82941SOL    HW266816   5.381  10.279   2.098  0.5787  0.7892  1.0126
82942SOL     OW66817   2.642   8.889  14.024  0.1323 -0.2122 -0.2355
82942SOL    HW166818   2.705   8.872  13.954 -0.0999 -0.5202 -0.3754
82942SOL    HW266819   2.694   8.926  14.095  0.3028  0.5134 -0.7251
82943SOL     OW66820  13.546  11.795   8.214 -0.2594 -0.5025  0.0078
82943SOL    HW166821  13.522  11.705   8.231  0.5593 -0.3148  2.6412
82943SOL    HW266822  13.629  11.789   8.166 -0.2115 -1.1586  0.1656
82944SOL     OW66823   5.300  11.390  11.042 -0.3198  0.2527  0.7146
82944SOL    HW166824   5.224  11.440  11.074 -0.9913 -0.5193  0.3451
82944SOL    HW266825   5.266  11.302  11.026  0.9096 -0.4155  1.6099
82945SOL     OW66826   8.283   2.842   3.911 -0.2126  0.0412 -0.6631
82945SOL    HW166827   8.368   2.844   3.867 -0.5567  0.1096 -1.3513
82945SOL    HW266828   8.240   2.922   3.882 -1.3721 -1.0442 -2.1224
82946SOL     OW66829   2.527   9.895   3.516 -0.7810  0.6351  0.5455
82946SOL    HW166830   2.595   9.952   3.550 -1.1790  1.9446 -0.7481
82946SOL    HW266831   2.445   9.940   3.537 -1.1298  0.2102  0.1195
82947SOL     OW66832   6.294  13.310   1.350  0.4977  0.3337  0.0853
82947SOL    HW166833   6.352  13.234   1.350  0.9704  0.6756 -0.8951
82947SOL    HW266834   6.249  13.306   1.266  0.7530  1.3084 -0.1021
82948SOL     OW66835   3.493   9.103   9.600  0.0629  0.3221  0.0441
82948SOL    HW166836   3.431   9.148   9.542  0.3957 -2.1718 -2.4837
82948SOL    HW266837   3.567   9.164   9.607  0.5071  0.3385 -3.2345
82949SOL     OW66838   2.354  11.511   2.488 -0.1649  0.0137 -0.3778
82949SOL    HW166839   2.410  11.583   2.519  0.4923 -0.6777  0.0555
82949SOL    HW266840   2.317  11.544   2.406  1.0146  0.4269 -0.7757
82950SOL     OW66841   6.255   3.154   0.837 -0.2900  0.8053 -0.0166
82950SOL    HW166842   6.165   3.158   0.806 -0.7970 -0.7550  1.0772
82950SOL    HW266843   6.261   3.068   0.879  3.0509 -1.2890 -4.0619
82951SOL     OW66844  11.827  13.471   1.000 -0.1122  0.2914 -0.2461
82951SOL    HW166845  11.860  13.391   0.958 -0.3627  0.3646 -0.5857
82951SOL    HW266846  11.888  13.487   1.072 -1.6870 -1.8861  1.7510
82952SOL     OW66847   3.150  10.920   6.595 -0.3585 -0.0335  0.2389
82952SOL    HW166848   3.070  10.896   6.643  0.2406 -0.2078  1.1751
82952SOL    HW266849   3.152  10.860   6.520 -0.8745 -0.3276  0.4547
82953SOL     OW66850  10.126  13.949   0.961  0.7331  0.0076 -0.1197
82953SOL    HW166851  10.190  14.016   0.986  1.6123 -0.1147 -1.8633
82953SOL    HW266852  10.178  13.869   0.955 -0.7235 -1.5307  4.3890
82954SOL     OW66853   5.668   5.882   6.512 -0.1308 -0.0632 -0.1575
82954SOL    HW166854   5.597   5.935   6.476  0.7721  1.4042  0.1139
82954SOL    HW266855   5.628   5.833   6.584 -0.4305  2.4903  1.5198
82955SOL     OW66856   8.750   7.052  11.356  0.5138  0.1375 -0.2742
82955SOL    HW166857   8.756   7.077  11.448  0.0988 -0.2423 -0.1385
82955SOL    HW266858   8.666   7.006  11.349  1.0059 -0.7368 -0.6130
82956SOL     OW66859   2.130   7.685  13.672 -0.0766  0.3295 -0.0892
82956SOL    HW166860   2.036   7.696  13.660 -0.0653  1.4381  0.7655
82956SOL    HW266861   2.141   7.674  13.766  0.8303  2.4320  0.1083
82957SOL     OW66862   1.073   2.247   5.875 -0.1312  0.1212  0.2611
82957SOL    HW166863   1.026   2.216   5.797  0.9909 -1.5525  0.1933
82957SOL    HW266864   1.006   2.252   5.943 -0.9875  0.9046 -0.6007
82958SOL     OW66865  12.284   3.527   6.758 -0.3947 -0.0116  0.1616
82958SOL    HW166866  12.354   3.551   6.698 -0.9912 -2.0500 -1.4625
82958SOL    HW266867  12.233   3.607   6.769 -0.8149  0.2626 -2.8930
82959SOL     OW66868   3.200   3.960   5.789  0.1854 -0.3596 -0.0926
82959SOL    HW166869   3.182   4.049   5.760 -0.3455 -0.9005 -1.5382
82959SOL    HW266870   3.120   3.911   5.769  0.3062 -1.0827  1.0823
82960SOL     OW66871   9.984   5.889   6.151  0.3770  0.8675  0.3721
82960SOL    HW166872   9.916   5.836   6.109  0.4021  0.6981  0.5438
82960SOL    HW266873   9.986   5.970   6.100  0.1869  0.7913  0.2415
82961SOL     OW66874   7.127   8.198   2.237  0.0292  0.3969  0.3895
82961SOL    HW166875   7.036   8.217   2.215 -0.9034 -1.6149  2.1565
82961SOL    HW266876   7.126   8.107   2.266  3.1904 -0.7685 -2.5061
82962SOL     OW66877   7.333   7.870   8.126  0.6148 -0.2423  0.5983
82962SOL    HW166878   7.404   7.927   8.157 -0.1129 -0.5723  3.0594
82962SOL    HW266879   7.356   7.783   8.158 -0.3419 -0.5574  0.4570
82963SOL     OW66880  11.997   9.950  11.820 -0.0737 -0.1738  0.4882
82963SOL    HW166881  11.954  10.018  11.872 -0.3597 -0.1860  0.2652
82963SOL    HW266882  11.926   9.897  11.785 -0.0060  0.8136 -1.2967
82964SOL     OW66883   1.897   8.365   6.883  0.3101 -0.0888  0.0915
82964SOL    HW166884   1.975   8.321   6.917 -0.7487 -1.7562  0.4463
82964SOL    HW266885   1.903   8.454   6.919  2.9760  0.4513 -1.3977
82965SOL     OW66886   8.184  10.426   8.912  0.3524  0.5131 -0.2481
82965SOL    HW166887   8.155  10.458   8.998  2.1054  2.0656 -0.1738
82965SOL    HW266888   8.175  10.502   8.855  0.9376  0.0175 -1.0141
82966SOL     OW66889   8.771   3.597   2.407 -0.2763  0.2687 -0.5121
82966SOL    HW166890   8.848   3.539   2.405 -1.3624 -1.1862 -1.8905
82966SOL    HW266891   8.738   3.588   2.496 -0.9454 -2.0164 -0.9244
82967SOL     OW66892   3.348   3.785  13.241 -0.1142 -0.0965  0.3829
82967SOL    HW166893   3.272   3.734  13.269 -0.7734  1.6231  1.9565
82967SOL    HW266894   3.419   3.755  13.298  0.8292 -2.5703 -1.8828
82968SOL     OW66895   9.171  12.903  12.916 -0.6410  0.2324  0.3162
82968SOL    HW166896   9.219  12.919  12.835 -1.8831  1.0921 -0.2821
82968SOL    HW266897   9.230  12.933  12.985  0.5009 -0.6726 -0.2327
82969SOL     OW66898   6.974  13.307   7.775  0.4763 -0.3486  0.2404
82969SOL    HW166899   6.889  13.264   7.786  0.5836 -0.7135 -0.3131
82969SOL    HW266900   7.038  13.239   7.797  0.6310 -0.1900  0.2858
82970SOL     OW66901  13.281   4.810   8.102  0.4171  0.3348 -0.3897
82970SOL    HW166902  13.218   4.881   8.109 -0.4490 -0.3686 -0.8988
82970SOL    HW266903  13.233   4.739   8.059  1.0119 -0.8486  0.8356
82971SOL     OW66904  11.239  13.856  12.828  0.1262  0.1722 -0.3573
82971SOL    HW166905  11.217  13.780  12.775 -0.2867  1.0768 -1.5463
82971SOL    HW266906  11.222  13.830  12.918 -1.9067 -0.5010 -0.8984
82972SOL     OW66907  12.749   0.191  13.407 -0.6386 -0.2179 -1.1511
82972SOL    HW166908  12.840   0.166  13.417 -1.0764 -1.1929  0.6414
82972SOL    HW266909  12.738   0.268  13.463 -0.6532  0.7171 -2.3641
82973SOL     OW66910  13.465  12.027   4.688 -0.0738 -0.1290 -0.4777
82973SOL    HW166911  13.424  11.941   4.697 -0.4503  0.0187 -0.7659
82973SOL    HW266912  13.393  12.087   4.668  0.2246  0.2026 -0.5854
82974SOL     OW66913   8.659   8.024   5.816  0.3965  0.4504 -0.1750
82974SOL    HW166914   8.565   8.030   5.798  0.0114 -0.6298  1.3614
82974SOL    HW266915   8.687   8.115   5.824 -0.4012  0.8033 -1.1121
82975SOL     OW66916  13.675   3.521   6.058  0.2119  0.3142  0.0386
82975SOL    HW166917  13.715   3.435   6.041 -1.2946 -0.2435 -0.9109
82975SOL    HW266918  13.581   3.506   6.047 -0.0753  2.1061 -0.2261
82976SOL     OW66919   4.897   5.124  10.130 -0.6552 -0.3876  0.1767
82976SOL    HW166920   4.960   5.073  10.080 -1.8269 -0.5221 -1.2361
82976SOL    HW266921   4.897   5.085  10.217 -0.2442 -1.6588 -0.3833
82977SOL     OW66922  10.468   6.815   3.589  0.0335 -0.5830  0.2524
82977SOL    HW166923  10.410   6.768   3.528  1.3835 -0.8042 -0.9273
82977SOL    HW266924  10.470   6.760   3.667  0.7073 -1.9581 -0.6880
82978SOL     OW66925   8.451   8.240  12.386  0.1298 -0.6219  0.0640
82978SOL    HW166926   8.476   8.148  12.396 -0.1994 -0.6274  0.9497
82978SOL    HW266927   8.394   8.241  12.309  1.9581 -0.7689 -1.3582
82979SOL     OW66928  11.385   7.365   9.731 -0.3194  0.0078  0.5081
82979SOL    HW166929  11.353   7.412   9.808 -0.2538  1.0114 -0.0558
82979SOL    HW266930  11.479   7.357   9.746 -0.0579  1.4895 -0.0866
82980SOL     OW66931  13.858   9.515   4.772 -0.3393  0.6353 -0.0351
82980SOL    HW166932  13.911   9.436   4.761  0.5967  1.0211  1.3938
82980SOL    HW266933  13.825   9.534   4.684  0.5157 -0.5722 -0.6560
82981SOL     OW66934   8.643   1.981   5.488  0.1596 -0.3257 -0.5583
82981SOL    HW166935   8.715   1.919   5.474  0.8594  0.1591  0.7073
82981SOL    HW266936   8.593   1.943   5.559  0.8960  0.7851  0.5875
82982SOL     OW66937   6.048   8.363  14.083 -0.3149  0.7579 -0.2191
82982SOL    HW166938   5.972   8.314  14.052 -0.6995  0.2796  1.4068
82982SOL    HW266939   6.011   8.445  14.117  0.0600  1.1137 -0.6541
82983SOL     OW66940   9.343   6.036   8.617  0.3057 -0.3139 -0.2420
82983SOL    HW166941   9.282   6.107   8.637 -0.7753 -0.7170 -1.9111
82983SOL    HW266942   9.406   6.037   8.689 -1.0166  0.8444  0.9458
82984SOL     OW66943   2.715  11.834  10.635  0.0589  0.2084 -0.3715
82984SOL    HW166944   2.764  11.853  10.555  1.9250  0.9818  0.8620
82984SOL    HW266945   2.783  11.806  10.697 -1.3974 -0.8833  0.7856
82985SOL     OW66946   4.310  11.263   7.481 -0.2946 -0.0321  0.1144
82985SOL    HW166947   4.300  11.324   7.554  2.5513  0.6902  0.0235
82985SOL    HW266948   4.285  11.314   7.403 -0.7144  0.0830  0.3255
82986SOL     OW66949  12.876  10.645   4.970 -0.2118  0.0783 -0.0936
82986SOL    HW166950  12.813  10.581   5.001  0.4965 -0.9757 -0.7564
82986SOL    HW266951  12.872  10.640   4.875  1.8941 -1.1188 -0.1830
82987SOL     OW66952   7.170  11.134   1.311  0.1294 -1.1281 -0.0128
82987SOL    HW166953   7.105  11.141   1.241 -0.0721  1.3425  0.3481
82987SOL    HW266954   7.250  11.105   1.266 -0.7192 -2.4552 -0.7444
82988SOL     OW66955   1.823  14.031   0.276  0.2484  0.0077 -0.0269
82988SOL    HW166956   1.849  14.119   0.303  1.1327 -0.6644  1.4241
82988SOL    HW266957   1.906  13.982   0.272 -0.3213 -0.9884  0.0828
82989SOL     OW66958   3.065   1.784  12.847 -0.1827 -0.3800  0.1515
82989SOL    HW166959   3.130   1.854  12.843 -2.2188  1.5929 -1.0406
82989SOL    HW266960   3.087   1.727  12.773  0.3960  0.0437 -0.0102
82990SOL     OW66961  11.818   3.589   6.901  0.0330 -0.1739 -0.5765
82990SOL    HW166962  11.730   3.568   6.870 -0.3817  0.3587  0.2237
82990SOL    HW266963  11.807   3.616   6.992  0.6103  2.5989 -1.2173
82991SOL     OW66964   3.944   5.478  13.233 -0.5210 -1.0750  0.1714
82991SOL    HW166965   4.007   5.406  13.238  0.5170 -0.2216 -0.2347
82991SOL    HW266966   3.861   5.435  13.212  0.1380 -2.1361 -0.3818
82992SOL     OW66967   1.485   7.393   9.890  0.4293 -0.3505  0.2186
82992SOL    HW166968   1.508   7.329   9.957 -0.6592  1.2332  2.2521
82992SOL    HW266969   1.397   7.368   9.862  0.2003 -0.0552  0.6567
82993SOL     OW66970   5.265   6.977   8.300 -0.6878 -0.2481  0.1716
82993SOL    HW166971   5.298   6.888   8.286 -0.8142 -0.1200 -1.0464
82993SOL    HW266972   5.279   6.993   8.393  0.6824 -0.9988  0.1260
82994SOL     OW66973  10.947   5.834  10.158 -0.2595  0.0315 -0.5082
82994SOL    HW166974  10.979   5.783  10.232  0.5502 -0.1175 -0.9494
82994SOL    HW266975  10.856   5.807  10.148 -0.1967 -0.4009  0.0483
82995SOL     OW66976   9.324   6.694   1.722  0.0312  0.3530 -0.7201
82995SOL    HW166977   9.296   6.783   1.699 -0.6747 -0.0296 -1.3590
82995SOL    HW266978   9.328   6.648   1.639  0.4901 -0.1943 -0.3997
82996SOL     OW66979   9.089   4.881   7.733 -0.4483 -0.3663 -0.1095
82996SOL    HW166980   9.178   4.864   7.701 -0.6333 -3.3050  0.6370
82996SOL    HW266981   9.101   4.943   7.805  0.6462  1.3869 -1.7180
82997SOL     OW66982   3.764   5.058   3.804 -0.4500  0.1005  0.1254
82997SOL    HW166983   3.806   5.045   3.889  0.7430  2.5310 -0.0068
82997SOL    HW266984   3.747   5.152   3.799 -0.8429 -0.0156 -2.1602
82998SOL     OW66985  13.420  12.683   8.778  0.3802 -0.5057  0.4040
82998SOL    HW166986  13.393  12.761   8.827  2.0562 -0.5347  1.4619
82998SOL    HW266987  13.497  12.711   8.729 -0.3017 -0.9416 -0.9689
82999SOL     OW66988   4.943   4.217   1.869 -0.2312  0.5236 -0.0936
82999SOL    HW166989   4.976   4.189   1.954 -0.9564  0.8182  0.2886
82999SOL    HW266990   5.008   4.184   1.806  0.1280  0.0126  0.5371
83000SOL     OW66991   4.942   8.342   6.606  0.1768 -0.4153  0.0606
83000SOL    HW166992   4.882   8.311   6.674 -2.1167  0.3740 -1.4840
83000SOL    HW266993   5.026   8.354   6.651  0.3242 -5.0897  1.5652
83001SOL     OW66994  14.046   1.246   0.022 -0.3230  0.3610 -0.3657
83001SOL    HW166995  14.003   1.199   0.094 -0.8759  2.3161  0.6392
83001SOL    HW266996  13.984   1.240  -0.051  0.3684 -1.8855 -0.8419
83002SOL     OW66997   4.026   8.326  11.500 -0.6458  0.1985  0.5923
83002SOL    HW166998   4.078   8.358  11.574 -0.3429  1.5230 -0.1763
83002SOL    HW266999   3.942   8.371  11.508 -0.9772 -0.4251  0.6918
83003SOL     OW67000  11.592  10.767   6.127 -0.0281 -0.3973 -0.1964
83003SOL    HW167001  11.542  10.708   6.072 -0.4160  0.2618 -0.5618
83003SOL    HW267002  11.682  10.734   6.123 -0.4316 -1.6268  0.5196
83004SOL     OW67003  11.495   5.918   1.790 -0.2905  0.1409  0.5958
83004SOL    HW167004  11.520   5.862   1.863  0.0969 -1.6523 -0.8313
83004SOL    HW267005  11.402   5.935   1.803  0.2177  1.7569  2.6658
83005SOL     OW67006   8.642  10.301  10.061  0.5875  0.6311 -0.1993
83005SOL    HW167007   8.561  10.262  10.096  0.8009 -0.5000 -0.9254
83005SOL    HW267008   8.646  10.387  10.103  0.4478 -0.3640  1.9996
83006SOL     OW67009   3.678   6.223  11.031 -0.4926  0.6266  0.2662
83006SOL    HW167010   3.588   6.241  11.058 -0.5449  0.3446  0.2742
83006SOL    HW267011   3.715   6.310  11.014 -0.3708  0.8450  1.5166
83007SOL     OW67012   3.143   3.546   7.014  0.0461  0.0390 -0.5539
83007SOL    HW167013   3.223   3.494   7.017 -0.5159 -0.7864  1.5556
83007SOL    HW267014   3.115   3.541   6.922  2.8590  1.1590 -1.5830
83008SOL     OW67015   5.736   1.355   1.905 -0.6143  0.4346 -0.3378
83008SOL    HW167016   5.679   1.400   1.967 -1.8823 -0.4163 -0.8450
83008SOL    HW267017   5.676   1.304   1.850  0.6463 -0.6040 -0.7981
83009SOL     OW67018  10.965   1.754   3.961 -0.0007  0.2869 -0.6374
83009SOL    HW167019  10.886   1.753   3.906  0.1178 -1.8044 -0.8483
83009SOL    HW267020  11.023   1.815   3.916 -1.6052  2.2470 -0.2310
83010SOL     OW67021   1.844   5.694   0.984  0.5199 -0.2366 -0.2932
83010SOL    HW167022   1.777   5.699   1.052 -0.1705 -2.8392 -0.6553
83010SOL    HW267023   1.927   5.701   1.030  0.0505  0.5480  0.4693
83011SOL     OW67024   5.736   5.722  10.410 -0.1043 -0.1181 -0.0084
83011SOL    HW167025   5.816   5.773  10.396  0.6372 -0.2562  3.0019
83011SOL    HW267026   5.675   5.783  10.451  0.0233 -1.0204  1.6241
83012SOL     OW67027  13.666   6.319   2.442  0.3126 -0.4422  0.1985
83012SOL    HW167028  13.619   6.387   2.491 -0.1288  0.2661 -1.1577
83012SOL    HW267029  13.758   6.333   2.464  0.4251  1.7973 -1.4347
83013SOL     OW67030  12.959   1.359   5.263 -0.4078  0.0539 -0.0300
83013SOL    HW167031  13.000   1.440   5.294 -0.3542  0.2397 -0.5789
83013SOL    HW267032  12.892   1.340   5.329  2.4032 -1.8672  2.5557
83014SOL     OW67033   8.939  11.508   1.668  0.1535  0.4574 -0.8172
83014SOL    HW167034   8.992  11.573   1.714  0.2886  1.6161 -2.4793
83014SOL    HW267035   8.947  11.534   1.575 -0.9205 -1.1232 -1.3801
83015SOL     OW67036   8.941   2.228  10.391  0.2953 -0.0756 -0.3870
83015SOL    HW167037   8.923   2.293  10.459 -0.4580 -0.5491 -0.1240
83015SOL    HW267038   9.023   2.187  10.418 -0.1438 -0.4576  0.3985
83016SOL     OW67039   3.649  11.554   2.110  0.2792  0.5068  0.0854
83016SOL    HW167040   3.628  11.464   2.134 -0.0935  0.5119 -0.2132
83016SOL    HW267041   3.656  11.553   2.014  4.6706 -0.1457  0.2148
83017SOL     OW67042  13.072  11.919   6.255 -0.1249  0.1523  0.5033
83017SOL    HW167043  13.053  11.889   6.166 -0.3158 -1.8195  1.1496
83017SOL    HW267044  13.168  11.925   6.257 -0.0847 -0.3269  0.3090
83018SOL     OW67045   7.951   8.265   0.297 -0.5038  0.3108  0.2011
83018SOL    HW167046   7.947   8.265   0.201  0.3011 -1.0869  0.1462
83018SOL    HW267047   7.860   8.254   0.325 -0.7117  0.4597 -0.4016
83019SOL     OW67048   3.307  12.865   8.498 -0.1269 -0.4422 -0.1031
83019SOL    HW167049   3.256  12.922   8.441 -0.1959 -0.7414 -0.3456
83019SOL    HW267050   3.245  12.836   8.564 -0.4478 -1.3048 -0.7574
83020SOL     OW67051   2.652   1.341   5.788 -0.6840 -0.2224  0.1882
83020SOL    HW167052   2.743   1.364   5.764 -0.8965 -0.0270 -0.4665
83020SOL    HW267053   2.603   1.355   5.707 -1.2099 -0.8453  0.3950
83021SOL     OW67054   5.418   4.379   6.196  0.0065  0.0769 -0.4317
83021SOL    HW167055   5.393   4.343   6.280 -0.5535  1.1004 -0.1409
83021SOL    HW267056   5.341   4.368   6.140 -1.2450  3.1758  0.4503
83022SOL     OW67057   3.571   8.057   3.652 -0.1452 -0.2539  0.3326
83022SOL    HW167058   3.487   8.062   3.606  0.2457  1.3753 -0.2650
83022SOL    HW267059   3.568   7.973   3.698 -1.3065 -1.1001 -1.1887
83023SOL     OW67060  10.724   9.893   7.753 -0.0240 -0.3713  0.5517
83023SOL    HW167061  10.640   9.848   7.749 -0.4406  0.1737  2.1246
83023SOL    HW267062  10.702   9.980   7.786  1.0882  0.0210  0.2999
83024SOL     OW67063   7.077   3.056   5.831 -0.4334 -0.0082  0.0137
83024SOL    HW167064   7.116   3.143   5.835 -2.2811  0.8631 -0.0498
83024SOL    HW267065   7.091   3.019   5.918 -0.1097  0.5619  0.2063
83025SOL     OW67066  10.117   2.673   0.533  0.1032 -0.2419  0.0907
83025SOL    HW167067  10.072   2.734   0.591  0.8252 -0.3157  0.7459
83025SOL    HW267068  10.209   2.700   0.536  0.4701 -1.4417  0.5311
83026SOL     OW67069   1.931   2.067   1.718  0.1975 -0.0032 -0.5410
83026SOL    HW167070   1.924   1.990   1.660 -1.5262  0.1902 -0.6439
83026SOL    HW267071   2.025   2.080   1.729  0.6051 -0.2397 -3.0638
83027SOL     OW67072   4.749   5.922   6.874 -0.5543  0.2868  0.2868
83027SOL    HW167073   4.811   5.888   6.938  0.9320  0.1871 -1.1349
83027SOL    HW267074   4.721   5.846   6.824 -0.9262  0.4910  0.1831
83028SOL     OW67075   5.058   9.736  10.680 -0.2089 -0.2741  0.2344
83028SOL    HW167076   5.105   9.813  10.647 -1.8275 -0.0398 -1.6420
83028SOL    HW267077   5.078   9.735  10.774  1.3432  1.3468 -0.0324
83029SOL     OW67078   2.577  10.553   1.824 -0.3743  0.5233 -0.1570
83029SOL    HW167079   2.598  10.459   1.829  0.1648  0.6339 -0.2575
83029SOL    HW267080   2.565  10.570   1.730 -1.8630  0.2688 -0.0367
83030SOL     OW67081   8.685   9.850  11.235  0.1446  0.4898  0.7658
83030SOL    HW167082   8.708   9.884  11.321 -0.0310 -1.1993  1.5200
83030SOL    HW267083   8.596   9.816  11.245  0.7666 -1.3319  0.4322
83031SOL     OW67084   6.445   6.174  10.838  0.2550  1.2963 -0.4829
83031SOL    HW167085   6.425   6.081  10.840  3.1230  0.5138 -2.0769
83031SOL    HW267086   6.470   6.192  10.748  0.3377  3.4868 -0.0959
83032SOL     OW67087   2.675   0.696  11.040 -0.7479  0.7517  0.7465
83032SOL    HW167088   2.609   0.628  11.048 -1.7187  1.6395  0.4694
83032SOL    HW267089   2.712   0.683  10.953  0.6443 -0.7726  1.5116
83033SOL     OW67090  11.893   7.691   9.299  0.0187  0.6259  0.4638
83033SOL    HW167091  11.843   7.760   9.255  0.3363  1.2492  1.0534
83033SOL    HW267092  11.977   7.689   9.253 -0.3397 -0.0433 -0.1757
83034SOL     OW67093  10.092   4.745  11.714  0.3051 -0.1205 -0.9504
83034SOL    HW167094  10.121   4.669  11.664  0.7786 -0.2375 -0.5033
83034SOL    HW267095  10.095   4.717  11.805  1.1520  0.6364 -0.7249
83035SOL     OW67096   4.265   4.193   4.274  0.5555  0.1367  0.0448
83035SOL    HW167097   4.322   4.159   4.206  0.9591  0.0822  0.4083
83035SOL    HW267098   4.303   4.162   4.356 -0.3010 -0.3554  0.2674
83036SOL     OW67099   7.327   6.247   2.651  0.2510 -0.2919  0.5023
83036SOL    HW167100   7.284   6.211   2.729 -1.2492 -1.8357 -0.9384
83036SOL    HW267101   7.404   6.192   2.639  0.6436  0.1302  1.0295
83037SOL     OW67102   9.491   1.248   9.922  0.5239 -0.1787 -0.1752
83037SOL    HW167103   9.437   1.181   9.963  0.1534 -0.0808 -0.4965
83037SOL    HW267104   9.551   1.277   9.991  0.4441 -0.5841  0.0639
83038SOL     OW67105   5.653  14.080   9.781  0.0778 -0.5079  0.0855
83038SOL    HW167106   5.610  14.085   9.866  0.3433 -0.0235  0.1937
83038SOL    HW267107   5.724  14.016   9.794  1.0057  0.5905  0.6342
83039SOL     OW67108   9.112  10.877   8.099 -0.3471  0.0453 -0.4892
83039SOL    HW167109   9.136  10.967   8.078 -0.9606  0.0687 -1.1201
83039SOL    HW267110   9.027  10.884   8.143 -0.6631 -0.2627 -1.0423
83040SOL     OW67111   6.218  12.592   5.929 -0.4518  0.3247  0.0497
83040SOL    HW167112   6.178  12.582   5.842  1.1045 -1.3182 -0.5320
83040SOL    HW267113   6.166  12.535   5.986 -2.6016  2.7274  0.6998
83041SOL     OW67114   8.766   8.703   6.947  0.3818 -0.3106 -0.1496
83041SOL    HW167115   8.679   8.663   6.951  0.4097 -0.2717  1.1797
83041SOL    HW267116   8.756   8.776   6.885 -0.3894 -0.6377 -0.4195
83042SOL     OW67117   9.023   8.954  12.266 -0.1041  0.3939  0.3466
83042SOL    HW167118   8.996   8.876  12.216  0.2964  1.1694 -1.1559
83042SOL    HW267119   8.971   9.025  12.229 -1.7642  0.6083  2.9113
83043SOL     OW67120   5.003   3.676  12.451  0.5005 -0.0784 -0.1094
83043SOL    HW167121   5.043   3.661  12.537  2.1243  1.5516 -0.5145
83043SOL    HW267122   4.959   3.760  12.459 -4.4485 -2.3966  0.7605
83044SOL     OW67123  12.027  11.048   8.340 -0.3178 -0.3689 -0.2197
83044SOL    HW167124  12.043  10.971   8.394 -0.0838  0.4929  0.9709
83044SOL    HW267125  12.114  11.075   8.310 -0.4008 -0.5557 -0.6470
83045SOL     OW67126   9.163  13.939  12.452 -0.0032  0.2550 -0.0113
83045SOL    HW167127   9.236  13.886  12.483 -0.4428 -1.4394 -1.7209
83045SOL    HW267128   9.104  13.946  12.528  1.2234  0.4275  0.9557
83046SOL     OW67129   5.964  11.952   3.927  0.8369 -0.5219 -0.2911
83046SOL    HW167130   6.041  11.987   3.971  1.4084 -0.4090 -1.3554
83046SOL    HW267131   5.998  11.909   3.849 -0.0972 -1.2836 -0.2990
83047SOL     OW67132  10.175  14.130   3.229  0.5782 -0.8919  1.0101
83047SOL    HW167133  10.204  14.218   3.253 -0.3313  0.3227 -1.8962
83047SOL    HW267134  10.098  14.114   3.285 -0.8221  1.3150 -0.1602
83048SOL     OW67135   9.942   2.194  11.080  0.1007  1.1456 -0.1278
83048SOL    HW167136   9.976   2.140  11.152 -0.7696  3.3574  2.0576
83048SOL    HW267137  10.014   2.198  11.017  1.0463 -0.5085  0.7723
83049SOL     OW67138   0.725   6.752   7.357  0.1353 -0.2194  0.5378
83049SOL    HW167139   0.814   6.732   7.327  0.4099  1.5372  0.1009
83049SOL    HW267140   0.680   6.667   7.356  1.4570 -0.9413 -0.3946
83050SOL     OW67141   4.505  12.598  10.028  0.1051  0.1156  0.1349
83050SOL    HW167142   4.580  12.540  10.023 -0.3241 -0.3509 -1.2835
83050SOL    HW267143   4.429  12.540  10.018 -0.4008  0.7161  0.4108
83051SOL     OW67144  12.330  10.602   8.551  0.3260 -0.3408  0.3740
83051SOL    HW167145  12.353  10.670   8.615 -0.1873  0.1905  0.0077
83051SOL    HW267146  12.414  10.570   8.519  0.6609  1.7433 -1.1211
83052SOL     OW67147  11.678  14.107   6.870 -0.8511  0.2882 -0.5882
83052SOL    HW167148  11.636  14.130   6.953 -0.7026 -2.4962  0.3497
83052SOL    HW267149  11.621  14.146   6.803 -0.4292  3.4968  0.7169
83053SOL     OW67150  10.592   5.943   9.159  0.1617  0.2103  0.5342
83053SOL    HW167151  10.519   5.953   9.098 -0.1743 -0.0723  0.8867
83053SOL    HW267152  10.559   5.884   9.226  1.5520 -2.0405 -0.6543
83054SOL     OW67153   7.315  13.912  10.558 -0.1614  0.2371  0.0314
83054SOL    HW167154   7.365  13.952  10.487 -0.2022  0.3530  0.0669
83054SOL    HW267155   7.228  13.898  10.521 -0.8789  2.4004  0.7153
83055SOL     OW67156   5.526   1.012   6.009 -0.7857 -0.2419 -0.0224
83055SOL    HW167157   5.466   0.948   6.049 -1.2700 -0.2455 -0.7327
83055SOL    HW267158   5.506   1.094   6.054  0.2211 -0.6728  1.2806
83056SOL     OW67159   3.127   0.186   4.106  0.3314 -0.1016 -0.0608
83056SOL    HW167160   3.200   0.133   4.138  0.8445 -0.2677 -1.4213
83056SOL    HW267161   3.049   0.135   4.126  0.7074 -0.6454  0.0425
83057SOL     OW67162  12.824   5.661   5.558 -0.3006  0.0724 -0.3093
83057SOL    HW167163  12.781   5.579   5.535 -0.2741  0.3550 -1.4011
83057SOL    HW267164  12.868   5.689   5.478 -2.0667  2.2229 -0.6083
83058SOL     OW67165  11.642   8.156  12.135  0.4418 -0.0008  0.6323
83058SOL    HW167166  11.607   8.119  12.053  1.4459 -0.1108  0.2391
83058SOL    HW267167  11.674   8.080  12.184  2.0775  0.2602  0.0312
83059SOL     OW67168   9.045   7.874   0.533 -0.0745 -0.2190  0.5780
83059SOL    HW167169   9.132   7.911   0.515  0.6506 -2.6076 -1.3383
83059SOL    HW267170   8.991   7.900   0.459  0.7336 -3.5553 -1.3819
83060SOL     OW67171  11.568   3.830  13.875 -0.1161  0.1485  0.0047
83060SOL    HW167172  11.649   3.844  13.826 -0.3816  0.1506 -0.4443
83060SOL    HW267173  11.588   3.758  13.935 -0.1366 -0.6695 -0.9503
83061SOL     OW67174  12.690   4.818   9.395 -0.3575 -0.0949  0.0874
83061SOL    HW167175  12.711   4.741   9.447 -0.4528  0.3357  0.7864
83061SOL    HW267176  12.763   4.878   9.412 -1.5595  1.0143  1.7219
83062SOL     OW67177  13.133  11.557   9.534  0.0538  0.1596 -0.4288
83062SOL    HW167178  13.123  11.592   9.445 -0.8054 -1.0397 -0.8373
83062SOL    HW267179  13.130  11.462   9.523  2.2616 -0.0919  0.6488
83063SOL     OW67180   0.651  13.854  12.386 -0.3639 -0.2720  0.3521
83063SOL    HW167181   0.636  13.820  12.474 -1.5977 -0.3313  0.1336
83063SOL    HW267182   0.634  13.948  12.392 -0.4263 -0.2705  0.1856
83064SOL     OW67183   6.725   8.669  12.030  0.2608  0.0160 -0.2934
83064SOL    HW167184   6.634   8.663  12.002  0.2089  0.7863 -0.3064
83064SOL    HW267185   6.761   8.744  11.982  0.0944  1.5371  1.8190
83065SOL     OW67186  11.577   8.796   8.199  0.1579  0.2284 -0.6436
83065SOL    HW167187  11.488   8.795   8.234 -0.4543 -0.0597 -2.1746
83065SOL    HW267188  11.625   8.734   8.254 -1.2699 -1.7431 -1.5181
83066SOL     OW67189  12.824   4.339   0.802  0.0419  1.3336  0.6329
83066SOL    HW167190  12.761   4.375   0.866 -1.9260 -0.5753 -0.1055
83066SOL    HW267191  12.786   4.255   0.777  1.9032  1.0387 -1.4212
83067SOL     OW67192  10.353   5.817   8.084  0.1245  0.3289  0.0216
83067SOL    HW167193  10.308   5.871   8.019 -1.0123  1.5718  1.7874
83067SOL    HW267194  10.389   5.879   8.147  2.6789 -0.7461 -0.2344
83068SOL     OW67195  11.748   1.671  12.059 -0.1815  0.1355  0.3374
83068SOL    HW167196  11.682   1.724  12.016 -0.3204  0.3621  0.8270
83068SOL    HW267197  11.831   1.707  12.030 -0.2573  1.5603  1.7776
83069SOL     OW67198  10.860   7.004   1.963  0.3871 -0.0176  0.1494
83069SOL    HW167199  10.836   6.922   1.920  1.2287  0.4391 -1.2610
83069SOL    HW267200  10.789   7.064   1.942  0.3391 -0.0541  0.2062
83070SOL     OW67201   4.951   8.976   5.782  0.2332 -0.5300 -1.3743
83070SOL    HW167202   4.888   8.964   5.711 -1.3337 -2.5800  0.2169
83070SOL    HW267203   4.971   8.887   5.811 -0.0780  0.2177  1.4589
83071SOL     OW67204  10.534  11.079   2.656  0.0372 -0.0237 -0.7185
83071SOL    HW167205  10.550  11.160   2.705  2.4037 -2.1735  2.5015
83071SOL    HW267206  10.612  11.069   2.602 -0.5571  0.1497 -1.6206
83072SOL     OW67207  12.910  13.629   0.024  0.1054 -0.7246 -0.2314
83072SOL    HW167208  12.914  13.712   0.072  1.8959 -0.0835 -1.4111
83072SOL    HW267209  12.949  13.565   0.084 -1.3761 -0.7969  0.7246
83073SOL     OW67210   2.408   7.982  11.987  0.1816  0.2904 -0.2492
83073SOL    HW167211   2.450   8.029  11.914  0.6103  1.0617  0.4762
83073SOL    HW267212   2.354   7.916  11.945 -0.2957  1.3218 -1.3083
83074SOL     OW67213   9.428   0.754  13.655 -0.0212  0.0586 -0.2832
83074SOL    HW167214   9.418   0.781  13.564 -0.9688 -0.9038 -0.4944
83074SOL    HW267215   9.451   0.834  13.701  2.8651  0.1526 -1.6915
83075SOL     OW67216  12.407   3.888   3.165 -0.5197 -0.4685 -0.2503
83075SOL    HW167217  12.438   3.954   3.103 -1.6792  0.8237  0.4800
83075SOL    HW267218  12.460   3.811   3.147 -0.3630  0.0794 -2.3908
83076SOL     OW67219   9.236  14.157   3.074 -0.4368 -0.1006 -0.2398
83076SOL    HW167220   9.276  14.217   3.011 -1.6620  0.0129 -0.9524
83076SOL    HW267221   9.175  14.212   3.124 -0.8170 -0.5447 -0.2066
83077SOL     OW67222  10.829   3.464   4.212  0.0298  0.1571 -0.2197
83077SOL    HW167223  10.907   3.408   4.204  0.7477  1.3640 -2.5844
83077SOL    HW267224  10.863   3.546   4.250 -0.3211  0.2673 -0.1447
83078SOL     OW67225   6.569  10.237   6.146  0.1946 -0.5375  0.2602
83078SOL    HW167226   6.627  10.161   6.144  0.9076 -0.0023 -2.6351
83078SOL    HW267227   6.484  10.201   6.170  1.2991 -1.5403  3.2161
83079SOL     OW67228  12.493   2.576   6.176  0.3159  0.1383  0.2538
83079SOL    HW167229  12.543   2.580   6.094  0.5551  0.8104  0.4312
83079SOL    HW267230  12.491   2.483   6.197 -0.7470 -0.1862 -1.1294
83080SOL     OW67231  13.653   8.941  11.176  0.1464 -0.2396 -0.5174
83080SOL    HW167232  13.697   8.951  11.092 -1.8268 -0.1475 -1.6047
83080SOL    HW267233  13.584   8.876  11.160 -1.1551  0.7847  0.6364
83081SOL     OW67234   1.514  13.860   2.795  0.0723  0.3874 -0.1047
83081SOL    HW167235   1.451  13.789   2.802  0.7446 -0.1779  0.4425
83081SOL    HW267236   1.568  13.837   2.719  0.5687  0.0735  0.3366
83082SOL     OW67237   3.056   2.172   0.941 -0.0042 -0.0617 -0.0176
83082SOL    HW167238   2.999   2.249   0.941 -1.4466 -1.0500 -1.8948
83082SOL    HW267239   3.106   2.179   1.022 -0.6310  2.4350  0.2289
83083SOL     OW67240  12.942   9.305   5.860  0.2055  0.2915 -0.5619
83083SOL    HW167241  12.940   9.364   5.935 -0.4807  0.1015 -0.4189
83083SOL    HW267242  13.015   9.246   5.877  0.5411  0.7385 -0.4294
83084SOL     OW67243   3.257  13.130   6.118  0.2518 -0.2678 -0.2410
83084SOL    HW167244   3.169  13.142   6.153 -0.0995 -0.3157 -1.0953
83084SOL    HW267245   3.307  13.204   6.152 -0.3782  0.3264 -0.5919
83085SOL     OW67246   5.722   8.963   2.697  0.3922 -0.5046  0.2301
83085SOL    HW167247   5.810   8.994   2.719  0.8800 -2.1081  0.7245
83085SOL    HW267248   5.711   8.884   2.750 -0.5737 -1.4188 -1.2612
83086SOL     OW67249   7.616   7.574   5.676 -0.2543  0.2018  0.3341
83086SOL    HW167250   7.671   7.496   5.676  1.8327  1.5389 -1.8691
83086SOL    HW267251   7.534   7.546   5.637  0.8258 -0.7479 -1.3939
83087SOL     OW67252  13.493  13.451   0.349  0.1607  0.0792 -0.2783
83087SOL    HW167253  13.523  13.525   0.401 -1.7401  2.1652 -1.9264
83087SOL    HW267254  13.544  13.457   0.268  1.1330 -1.4712  0.1628
83088SOL     OW67255   2.040  11.495  10.451 -0.1913  0.0090 -0.0053
83088SOL    HW167256   2.007  11.508  10.362  0.6263  0.5280 -0.2401
83088SOL    HW267257   2.004  11.411  10.478  0.7036 -0.8350 -1.3588
83089SOL     OW67258   4.393   2.685   0.582  0.9321 -0.3014 -0.0206
83089SOL    HW167259   4.301   2.699   0.562  1.1359  0.5620 -0.3775
83089SOL    HW267260   4.421   2.766   0.625  0.9624 -1.4011  2.2047
83090SOL     OW67261   9.360  13.176   5.647 -0.0233 -0.4187 -0.1976
83090SOL    HW167262   9.337  13.197   5.556 -0.7527 -1.5308 -0.2986
83090SOL    HW267263   9.323  13.247   5.699 -0.3372 -0.2028 -0.7100
83091SOL     OW67264   3.108  13.571  13.724  0.1905 -0.2443 -0.2614
83091SOL    HW167265   3.073  13.644  13.673 -2.3747 -0.5956  0.8326
83091SOL    HW267266   3.169  13.611  13.786 -0.5793  0.8758 -0.2137
83092SOL     OW67267   5.782   8.345  13.176  0.0662 -0.0842  0.0099
83092SOL    HW167268   5.728   8.270  13.150 -0.5797  0.2177  0.4462
83092SOL    HW267269   5.797   8.332  13.270 -0.8807  0.8249  0.3052
83093SOL     OW67270   6.094  12.631   5.667  0.5074 -0.0823 -0.2564
83093SOL    HW167271   6.137  12.638   5.582  1.4883  0.0107  0.2406
83093SOL    HW267272   6.001  12.615   5.646  0.8649 -0.8382 -1.3413
83094SOL     OW67273   3.932   9.394   0.523 -0.6209 -0.1182  0.2983
83094SOL    HW167274   3.975   9.316   0.487 -1.5716 -0.3552 -0.3637
83094SOL    HW267275   3.838   9.375   0.514 -0.9145 -0.1356  2.8259
83095SOL     OW67276  12.100   3.042  10.818  0.0079 -0.1562  0.0516
83095SOL    HW167277  12.012   3.016  10.788 -0.7007  2.7596 -0.7170
83095SOL    HW267278  12.092   3.051  10.913 -0.2124 -0.9705  0.1115
83096SOL     OW67279   8.962   2.255  10.682 -0.4036  0.2223  0.3845
83096SOL    HW167280   8.967   2.164  10.711 -0.4353  0.6605  1.8900
83096SOL    HW267281   9.053   2.282  10.672 -0.3899  0.0667  0.0925
83097SOL     OW67282  13.450   7.727   1.884 -0.1004  0.1113  0.2563
83097SOL    HW167283  13.399   7.803   1.856 -0.5138 -0.4278 -0.4717
83097SOL    HW267284  13.438   7.725   1.979 -0.7714  0.4651  0.1893
83098SOL     OW67285   5.128  10.497  10.797 -0.3729  0.4443 -0.1679
83098SOL    HW167286   5.204  10.463  10.845 -1.0262  0.8672  1.2130
83098SOL    HW267287   5.056  10.438  10.820 -0.6621  0.5175 -0.8411
83099SOL     OW67288   7.240   1.380   0.802 -0.7164 -0.1019  0.3984
83099SOL    HW167289   7.328   1.392   0.836 -0.1604  0.3646 -1.1166
83099SOL    HW267290   7.198   1.466   0.812 -0.9461 -0.2672  0.9205
83100SOL     OW67291  13.289   2.480   9.551  0.6103  0.2769 -0.0712
83100SOL    HW167292  13.267   2.440   9.635  1.1240 -1.8917 -0.9040
83100SOL    HW267293  13.354   2.547   9.573 -1.0420  1.4744  1.4991
83101SOL     OW67294  11.266  11.748   6.231  0.7524  0.1040 -0.0578
83101SOL    HW167295  11.352  11.735   6.193  0.9676 -1.2914  0.8255
83101SOL    HW267296  11.282  11.764   6.324  0.0555 -0.7057  0.2197
83102SOL     OW67297   9.230   1.262   0.686  0.8591  0.1884  0.1093
83102SOL    HW167298   9.185   1.300   0.610  0.1224 -3.0004 -1.2137
83102SOL    HW267299   9.283   1.334   0.720  0.4397  2.0668 -2.7731
83103SOL     OW67300   0.304  13.181  13.713 -0.3861  0.2170 -0.0260
83103SOL    HW167301   0.325  13.090  13.690  0.0589  0.0288  1.0610
83103SOL    HW267302   0.310  13.183  13.809 -2.4620  0.8815  0.1474
83104SOL     OW67303   3.611   1.279  10.208 -0.0896  0.7326 -0.0701
83104SOL    HW167304   3.555   1.356  10.214 -2.0724 -0.6079 -0.3829
83104SOL    HW267305   3.560   1.216  10.158  0.3260 -1.7259  2.3323
83105SOL     OW67306   9.948   8.613   0.910  0.1111 -0.2220  0.5621
83105SOL    HW167307   9.933   8.548   0.980 -1.8763 -0.7894 -0.3116
83105SOL    HW267308   9.908   8.693   0.944 -1.0248 -0.5470  0.0424
83106SOL     OW67309  11.698   1.343   1.138 -0.3851 -0.0830  0.2228
83106SOL    HW167310  11.631   1.283   1.105  0.6098  0.3861 -2.9398
83106SOL    HW267311  11.671   1.429   1.105 -0.2444  0.7956  2.2486
83107SOL     OW67312   6.764   1.835  10.660  0.8746  0.2749  0.2080
83107SOL    HW167313   6.822   1.912  10.661  0.8857  0.2699 -0.0975
83107SOL    HW267314   6.795   1.781  10.733  1.5746  0.0408 -0.2522
83108SOL     OW67315   3.683   0.076  12.899 -0.0470 -0.4638 -0.5601
83108SOL    HW167316   3.764   0.095  12.946  1.8082  0.3547 -3.8116
83108SOL    HW267317   3.636   0.160  12.897  0.5957 -0.1183 -1.4311
83109SOL     OW67318   0.970   9.524   8.788  0.1846 -0.5796  0.1481
83109SOL    HW167319   0.881   9.491   8.789  0.7415 -2.2634  2.4479
83109SOL    HW267320   1.025   9.446   8.783  1.5597  0.4105 -1.1408
83110SOL     OW67321   5.198  11.596   6.683  0.4761  0.0329  0.5328
83110SOL    HW167322   5.263  11.647   6.634 -0.1101  1.4130  1.1345
83110SOL    HW267323   5.180  11.520   6.627 -0.5402  1.7792 -1.6790
83111SOL     OW67324  10.103   4.371   5.898 -0.2480 -0.4962  0.0902
83111SOL    HW167325  10.016   4.332   5.910 -1.1649  0.5538 -2.3832
83111SOL    HW267326  10.095   4.459   5.937 -1.5230  0.9098 -2.9876
83112SOL     OW67327   6.300   2.355   7.495 -0.5916  0.7670 -0.4371
83112SOL    HW167328   6.389   2.331   7.522 -0.2010  0.9369 -1.5200
83112SOL    HW267329   6.243   2.306   7.554  0.2208  0.1593 -0.1392
83113SOL     OW67330   4.828  10.998   3.298  0.2850  0.2966 -0.0612
83113SOL    HW167331   4.856  11.044   3.220 -0.0188  1.8401  0.6964
83113SOL    HW267332   4.898  10.935   3.316  0.0141 -0.6045 -1.9512
83114SOL     OW67333  10.536   6.444   2.044  0.0596  0.7621  0.0930
83114SOL    HW167334  10.597   6.452   1.970  0.1059  0.5471  0.1083
83114SOL    HW267335  10.593   6.441   2.121  0.0695 -0.2637  0.0507
83115SOL     OW67336   7.345  11.164   6.269  0.8500 -0.4892  0.1490
83115SOL    HW167337   7.411  11.114   6.317  1.0481  1.4267  2.0463
83115SOL    HW267338   7.362  11.255   6.294 -2.1674  0.1252  0.3096
83116SOL     OW67339   5.108  11.396   5.275 -0.1090  0.2259 -0.3085
83116SOL    HW167340   5.146  11.334   5.337 -0.0051 -0.0987 -0.6889
83116SOL    HW267341   5.016  11.371   5.268 -0.0514  0.0704 -0.5142
83117SOL     OW67342   9.372   1.067   5.356 -0.0172 -0.0194  0.1655
83117SOL    HW167343   9.456   1.065   5.401  1.7519 -2.7508 -2.7973
83117SOL    HW267344   9.315   1.011   5.409  0.9372 -0.4160  0.7922
83118SOL     OW67345  14.085   4.065   5.932  0.1403  0.2026 -1.2594
83118SOL    HW167346  13.994   4.094   5.931  0.1776  0.5319 -4.1504
83118SOL    HW267347  14.133   4.137   5.974 -0.8878  0.0541  0.2195
83119SOL     OW67348  11.450  13.757   7.707 -0.1599  0.2812  0.2308
83119SOL    HW167349  11.457  13.850   7.727 -0.0183  0.1963  0.6013
83119SOL    HW267350  11.380  13.750   7.643 -1.7710  0.4070  1.9116
83120SOL     OW67351   3.919  13.964  10.163 -0.7572  0.4095 -0.2252
83120SOL    HW167352   3.935  14.037  10.104  0.3927  1.0705  0.8581
83120SOL    HW267353   3.825  13.948  10.157 -0.5382 -0.3115 -3.0739
83121SOL     OW67354   6.008  11.852  10.734  0.1114  0.4037 -0.4734
83121SOL    HW167355   5.957  11.796  10.791  0.1862 -1.1659 -1.8690
83121SOL    HW267356   5.950  11.926  10.714 -1.7693 -1.3967 -2.1441
83122SOL     OW67357   4.956   3.606  13.392  0.0821 -0.0085 -0.5687
83122SOL    HW167358   5.023   3.673  13.378 -0.9704  0.9648 -1.1149
83122SOL    HW267359   4.947   3.563  13.307 -2.4459  2.2554 -1.5880
83123SOL     OW67360  12.003   4.828   9.727 -0.2962 -0.2166  0.6011
83123SOL    HW167361  11.939   4.769   9.686  0.4403 -0.3986 -0.2952
83123SOL    HW267362  11.957   4.861   9.805 -1.8436  0.3810 -0.5005
83124SOL     OW67363   5.546   7.320   0.864  0.5712  0.4635  0.4407
83124SOL    HW167364   5.451   7.330   0.863  0.6401  1.3905 -1.6822
83124SOL    HW267365   5.562   7.255   0.933 -1.5639  0.4116  0.9681
83125SOL     OW67366   3.059   0.619   6.781 -0.0162  0.2002 -0.5574
83125SOL    HW167367   3.029   0.599   6.870 -1.4237  2.1868 -0.5264
83125SOL    HW267368   2.988   0.671   6.744 -0.6279 -2.5747 -3.7354
83126SOL     OW67369   8.371  11.092   1.361  0.2752  0.0960  0.1635
83126SOL    HW167370   8.279  11.070   1.378  0.7068 -0.3080  2.1427
83126SOL    HW267371   8.402  11.021   1.305 -0.3533 -0.2965  0.2969
83127SOL     OW67372   8.363  11.210  14.066  0.1111  0.4105 -0.4657
83127SOL    HW167373   8.276  11.237  14.040 -0.4238  0.0473  0.8695
83127SOL    HW267374   8.358  11.114  14.071  0.6264  0.3762 -0.5117
83128SOL     OW67375   8.948   9.582  10.624 -0.2904  0.0839 -0.0865
83128SOL    HW167376   8.893   9.616  10.694  1.2190  0.4240  1.0000
83128SOL    HW267377   8.998   9.658  10.593  1.4232 -0.6276  0.7631
83129SOL     OW67378  10.470   5.634   4.577 -0.1968  0.1407  0.1234
83129SOL    HW167379  10.445   5.657   4.667 -0.0984  1.0858 -0.0749
83129SOL    HW267380  10.391   5.652   4.526 -0.0157  0.3553 -0.0847
83130SOL     OW67381  11.431   3.062   5.057  0.0277 -0.0317  0.0413
83130SOL    HW167382  11.514   3.096   5.091 -0.7752  0.5448  1.5467
83130SOL    HW267383  11.440   2.967   5.062  0.8447  0.0124 -0.4619
83131SOL     OW67384   1.220   7.433   4.032 -0.0560 -0.1690  0.9321
83131SOL    HW167385   1.241   7.509   3.976  1.0586 -0.7450  0.5335
83131SOL    HW267386   1.195   7.364   3.970 -1.8014  0.0666  1.3314
83132SOL     OW67387  13.719   3.406   0.940 -0.5477 -0.4231  0.2221
83132SOL    HW167388  13.789   3.407   0.875  0.9663 -1.7976  1.7354
83132SOL    HW267389  13.685   3.496   0.942  0.8726  0.1610 -0.8541
83133SOL     OW67390   2.881   4.096   4.268  0.4520 -0.1378 -0.2337
83133SOL    HW167391   2.863   4.078   4.360 -1.7667 -0.9256 -0.7500
83133SOL    HW267392   2.867   4.012   4.224  2.0447  0.0906 -1.2436
83134SOL     OW67393   8.793   1.093   0.603 -0.0118  0.3785 -0.0411
83134SOL    HW167394   8.849   1.057   0.672  0.9606  1.3597 -0.2924
83134SOL    HW267395   8.799   1.188   0.614 -0.5638  0.5289 -0.9245
83135SOL     OW67396   5.566  10.007   1.932 -0.6478  0.1193  0.7465
83135SOL    HW167397   5.494  10.029   1.873 -1.2457 -0.5733  1.2131
83135SOL    HW267398   5.527   9.951   1.999  0.8569 -2.5722 -0.4964
83136SOL     OW67399  14.046   2.944   6.396  0.2408 -0.5555  0.2267
83136SOL    HW167400  13.987   2.891   6.342  0.9010  0.6278 -1.7352
83136SOL    HW267401  14.121   2.961   6.340 -0.2340  3.0604  0.4570
83137SOL     OW67402   7.528   5.578   4.889 -0.0028  0.1405  0.6033
83137SOL    HW167403   7.453   5.520   4.904 -0.1808  0.8177  2.7094
83137SOL    HW267404   7.491   5.660   4.859 -0.1324  0.4376  1.5335
83138SOL     OW67405  11.392   7.266   3.966  0.0379 -0.0908  0.2844
83138SOL    HW167406  11.459   7.301   4.024  1.1487 -2.6792  0.6894
83138SOL    HW267407  11.441   7.220   3.897 -1.2543 -1.8487  0.4626
83139SOL     OW67408  13.169   5.417   0.229  0.3071  0.2532 -0.0099
83139SOL    HW167409  13.126   5.456   0.305  0.4211 -1.9654  1.2831
83139SOL    HW267410  13.106   5.425   0.158 -1.0291 -0.2388  1.0868
83140SOL     OW67411   6.987  12.191   2.554  0.1020  0.0588 -0.0821
83140SOL    HW167412   7.007  12.194   2.647 -3.0346  1.8066  0.6696
83140SOL    HW267413   6.956  12.102   2.538 -0.5909  0.1135  0.8938
83141SOL     OW67414   5.800  11.578   2.191  0.0649  0.0845 -0.6626
83141SOL    HW167415   5.721  11.584   2.137 -1.5344 -0.1633  1.5345
83141SOL    HW267416   5.851  11.509   2.149 -0.7402  0.3932 -2.2676
83142SOL     OW67417   5.547   1.075   0.093  0.3604  0.0505  0.2183
83142SOL    HW167418   5.563   1.110   0.005 -1.0490 -2.1983 -1.0233
83142SOL    HW267419   5.465   1.027   0.085  1.4220 -2.2989  2.1081
83143SOL     OW67420   6.115  10.650  13.180 -0.3696  0.1788 -0.0716
83143SOL    HW167421   6.180  10.680  13.117 -1.8652  1.9821 -0.8591
83143SOL    HW267422   6.164  10.600  13.244  1.6101  0.5737 -1.2138
83144SOL     OW67423  13.973   4.651   4.634 -1.1511 -0.0061  0.1377
83144SOL    HW167424  13.942   4.644   4.544  2.1234  1.5033 -1.2659
83144SOL    HW267425  13.993   4.744   4.646  1.6974 -0.6349  1.1409
83145SOL     OW67426   4.726  13.648   1.614 -0.2236  0.1492 -0.4873
83145SOL    HW167427   4.686  13.646   1.701  1.6618  0.8537  0.4546
83145SOL    HW267428   4.762  13.560   1.603 -0.1784  0.1581 -0.4128
83146SOL     OW67429  10.931  10.482   4.242  0.1675  0.6754  0.5918
83146SOL    HW167430  11.003  10.448   4.296  0.9469  2.8862  1.0165
83146SOL    HW267431  10.879  10.534   4.303 -0.6657  0.7457 -0.1636
83147SOL     OW67432  10.024   2.192   2.759 -0.3574 -0.1576 -0.1426
83147SOL    HW167433  10.017   2.256   2.688 -0.0069 -0.4050 -0.4036
83147SOL    HW267434  10.017   2.244   2.839 -0.7847  0.1207 -0.3550
83148SOL     OW67435   9.455   5.578   2.493 -0.5016 -0.4442  0.2437
83148SOL    HW167436   9.470   5.571   2.399  0.2956 -1.1853  0.4051
83148SOL    HW267437   9.503   5.657   2.519 -2.0093  0.6617 -0.1898
83149SOL     OW67438   6.209  13.352   9.825  0.3486 -0.0749 -0.4204
83149SOL    HW167439   6.151  13.427   9.836 -0.4973 -0.8755  0.7772
83149SOL    HW267440   6.154  13.283   9.789  0.8257 -0.5010 -0.3512
83150SOL     OW67441   7.724   5.027  11.478  0.2517  0.0445 -0.7830
83150SOL    HW167442   7.750   4.995  11.391  0.9795  0.0101 -0.5633
83150SOL    HW267443   7.806   5.058  11.517  0.3666 -1.9593  0.7576
83151SOL     OW67444   8.816   9.936   4.683  0.5319 -0.2867  0.2335
83151SOL    HW167445   8.727   9.900   4.684 -0.1183  1.0889 -1.5679
83151SOL    HW267446   8.853   9.907   4.600  1.0676  0.6849  0.1091
83152SOL     OW67447  11.588   2.238   0.660  0.0643  0.0383 -0.5200
83152SOL    HW167448  11.615   2.217   0.750  1.0803  0.7803 -0.6304
83152SOL    HW267449  11.583   2.153   0.616  1.9328 -0.1779 -0.3828
83153SOL     OW67450   3.244  10.216   2.071  0.3900 -0.1169  0.6481
83153SOL    HW167451   3.207  10.171   1.995 -2.0849  0.0198  1.7106
83153SOL    HW267452   3.196  10.298   2.077  1.3433  0.3979  1.7138
83154SOL     OW67453  13.526  12.727   7.783  0.2532 -0.3244 -0.1153
83154SOL    HW167454  13.496  12.816   7.800 -0.7227 -0.5086 -0.7962
83154SOL    HW267455  13.541  12.690   7.870  3.0248  1.2257  0.1946
83155SOL     OW67456  12.129   0.441   9.087  0.4210  0.1823 -0.0385
83155SOL    HW167457  12.167   0.528   9.097 -0.9006  1.0699 -2.2036
83155SOL    HW267458  12.163   0.408   9.004 -1.3203 -0.1451 -0.6676
83156SOL     OW67459   2.176   0.693  13.978 -0.1518  0.2182  0.6273
83156SOL    HW167460   2.244   0.694  14.046 -0.1858 -1.0108  0.6870
83156SOL    HW267461   2.225   0.704  13.896  0.3385 -2.2347  0.5262
83157SOL     OW67462   1.048  13.382   3.965 -0.6390 -0.3620  0.2888
83157SOL    HW167463   0.962  13.399   3.925 -0.6064  0.4516  0.5423
83157SOL    HW267464   1.106  13.446   3.923 -0.2881 -0.4944  0.5729
83158SOL     OW67465   2.460   9.604   7.439  0.1157 -0.2797  0.5777
83158SOL    HW167466   2.434   9.675   7.498 -1.7662 -0.0990 -0.3985
83158SOL    HW267467   2.473   9.647   7.354 -0.0548 -0.9515  0.2067
83159SOL     OW67468   8.340   6.588   0.635  0.1422  0.0547  0.3610
83159SOL    HW167469   8.432   6.573   0.613 -0.3447 -1.7642 -0.5935
83159SOL    HW267470   8.341   6.608   0.729  1.5942  1.2536  0.1398
83160SOL     OW67471  11.261   4.738   3.114 -0.0549 -0.4339 -0.5987
83160SOL    HW167472  11.326   4.794   3.072  0.0715  0.4984  0.7801
83160SOL    HW267473  11.310   4.687   3.178 -0.4295 -0.9515 -0.7113
83161SOL     OW67474   3.730   2.840   5.802 -0.0514 -0.1403  0.0611
83161SOL    HW167475   3.716   2.915   5.745 -0.5831  1.1944  1.8515
83161SOL    HW267476   3.658   2.780   5.781  0.5203 -0.3136 -1.5602
83162SOL     OW67477  11.864   4.991   5.866 -0.2397  0.0232  0.2564
83162SOL    HW167478  11.811   4.911   5.868  1.0420 -0.8500  2.1539
83162SOL    HW267479  11.887   5.003   5.774 -1.0287 -1.3964 -0.1525
83163SOL     OW67480   2.926   4.558   3.584 -0.3351  0.1514  0.6055
83163SOL    HW167481   2.897   4.642   3.619 -2.8881 -0.2031 -0.3826
83163SOL    HW267482   2.984   4.581   3.512  0.2611  1.0090  1.3430
83164SOL     OW67483   7.930  14.095   1.311  0.0533 -0.0175  0.2641
83164SOL    HW167484   7.875  14.091   1.388 -1.7174 -1.1883 -0.9900
83164SOL    HW267485   8.000  14.032   1.327 -0.3239 -0.2808  0.8747
83165SOL     OW67486  10.416   6.637  14.120  0.7221  0.0376 -0.0564
83165SOL    HW167487  10.349   6.703  14.101  0.1140  0.0349  1.8187
83165SOL    HW267488  10.458   6.668  14.200  2.7618 -0.1516 -0.9937
83166SOL     OW67489   8.669   1.700  14.144  0.1144 -0.0895 -0.1347
83166SOL    HW167490   8.707   1.753  14.074  1.7361 -1.5318 -0.4164
83166SOL    HW267491   8.744   1.676  14.199 -0.5071 -2.1470 -0.0830
83167SOL     OW67492  12.290   6.761   2.693 -0.1738  0.4996  0.2932
83167SOL    HW167493  12.214   6.818   2.683  0.3154  0.8250 -2.3391
83167SOL    HW267494  12.266   6.681   2.646 -0.1286 -0.7700  2.3353
83168SOL     OW67495  10.778   4.004   0.805  0.3297  0.3418 -0.0602
83168SOL    HW167496  10.746   3.995   0.716 -0.2366  1.5414  0.0029
83168SOL    HW267497  10.852   3.944   0.810  0.4735  0.3860 -1.3819
83169SOL     OW67498   3.814  12.407  12.909 -0.4107  0.3617  0.5356
83169SOL    HW167499   3.872  12.393  12.834 -2.3302 -1.8388 -0.6752
83169SOL    HW267500   3.800  12.502  12.911  1.5936  0.7246 -0.3383
83170SOL     OW67501   8.868   0.072   1.402  0.0689 -0.5782  0.2012
83170SOL    HW167502   8.872  -0.022   1.383 -0.2176 -1.0077  2.0967
83170SOL    HW267503   8.957   0.103   1.383  0.8495 -1.7163  1.7609
83171SOL     OW67504   2.723  10.059  12.221 -0.1706 -0.7365 -0.7409
83171SOL    HW167505   2.680   9.995  12.164 -2.2438  0.6980 -0.8751
83171SOL    HW267506   2.747  10.131  12.163 -1.0723  0.1389 -0.0553
83172SOL     OW67507  12.470   3.643   7.444 -0.2325  0.4812 -0.1453
83172SOL    HW167508  12.416   3.566   7.425 -1.8591  1.7443 -0.9693
83172SOL    HW267509  12.530   3.649   7.370  0.0246 -0.0839  0.0136
83173SOL     OW67510   2.210  10.883   8.581  0.0517 -0.6098 -0.4311
83173SOL    HW167511   2.248  10.964   8.615 -0.7312 -0.4370  0.0784
83173SOL    HW267512   2.283  10.822   8.575  0.2535 -0.6256  1.5478
83174SOL     OW67513  12.057   3.273   5.054  0.3267 -0.1686  0.1238
83174SOL    HW167514  12.108   3.319   5.120  0.2901 -1.1989  0.8922
83174SOL    HW267515  11.967   3.305   5.067  0.5005  0.4745 -0.1963
83175SOL     OW67516   4.504   0.167   5.443 -0.5441 -0.1989  0.0992
83175SOL    HW167517   4.441   0.130   5.380 -0.5397  1.0820 -0.6742
83175SOL    HW267518   4.451   0.224   5.499 -0.6193 -1.6083  1.5465
83176SOL     OW67519   0.538   7.906  13.854  0.5771  0.0328  0.2928
83176SOL    HW167520   0.604   7.839  13.838 -0.1623 -1.0415  1.5532
83176SOL    HW267521   0.455   7.857  13.856 -0.0768  1.1202  0.2894
83177SOL     OW67522   6.211  11.985  11.337 -0.2629  0.5714  0.0202
83177SOL    HW167523   6.298  12.012  11.308 -0.3532  1.3439  0.4335
83177SOL    HW267524   6.173  11.941  11.261  0.2083  0.9080 -0.4145
83178SOL     OW67525   1.455   8.072   2.975 -0.3009  0.5685 -0.3948
83178SOL    HW167526   1.517   8.006   3.006 -0.8311  1.0648  1.9535
83178SOL    HW267527   1.422   8.038   2.892  1.0025 -1.0644 -0.2878
83179SOL     OW67528   9.635   7.448   4.716  0.3292 -0.1705 -0.0313
83179SOL    HW167529   9.585   7.367   4.713 -1.3364  0.8184 -1.9735
83179SOL    HW267530   9.569   7.517   4.706  1.8006  1.3804  0.3540
83180SOL     OW67531   6.683  11.982   9.382  0.1371  0.5076  0.7067
83180SOL    HW167532   6.688  12.053   9.446  0.0848  0.6925  0.5046
83180SOL    HW267533   6.751  11.920   9.411  1.4721  1.5063 -0.1645
83181SOL     OW67534  12.720   2.279   4.665  0.1162  0.2453 -0.3047
83181SOL    HW167535  12.671   2.264   4.584 -1.3214  0.5538  0.4707
83181SOL    HW267536  12.674   2.351   4.707  0.5220 -0.2561  1.0379
83182SOL     OW67537   6.435  11.701  12.270  0.1425  0.0631  0.1480
83182SOL    HW167538   6.522  11.694  12.230  0.2663  0.8733  0.2658
83182SOL    HW267539   6.454  11.720  12.362 -0.1365 -1.7604  0.6110
83183SOL     OW67540   0.971  12.129  11.297  0.1281  0.4790 -0.0390
83183SOL    HW167541   1.014  12.048  11.270 -1.0427 -0.3445  0.4674
83183SOL    HW267542   1.032  12.198  11.273 -1.0539  0.0268 -5.8764
83184SOL     OW67543  12.247   5.082   5.658  0.0277 -0.6005 -0.1437
83184SOL    HW167544  12.234   5.165   5.612 -2.0711 -1.4917 -1.3185
83184SOL    HW267545  12.228   5.102   5.750 -0.0788  0.2987 -0.3532
83185SOL     OW67546   5.472   5.788   9.432 -0.7223 -0.4054  0.4581
83185SOL    HW167547   5.513   5.865   9.393 -0.6772 -1.2588 -1.2785
83185SOL    HW267548   5.496   5.792   9.525  1.4145  0.3136 -0.0723
83186SOL     OW67549   8.346  11.540  11.681  0.2013  0.4998 -0.0279
83186SOL    HW167550   8.428  11.491  11.689 -0.2119 -0.3665 -0.9220
83186SOL    HW267551   8.374  11.630  11.665  0.9957  0.1084 -0.9423
83187SOL     OW67552   0.936   3.476   3.436 -0.4206 -0.2987  0.0965
83187SOL    HW167553   1.000   3.498   3.369  0.3281  1.1414  1.2046
83187SOL    HW267554   0.967   3.393   3.473  0.7239  0.2632  0.4611
83188SOL     OW67555  11.354   9.704   3.118  0.5973  0.3126  0.0990
83188SOL    HW167556  11.354   9.609   3.133  1.5169  0.3881  0.6564
83188SOL    HW267557  11.311   9.714   3.033 -2.2665 -0.3513  1.3343
83189SOL     OW67558   2.756  12.929   4.358 -0.5322  0.4161 -0.2146
83189SOL    HW167559   2.849  12.952   4.360 -0.3876  0.1021 -1.7999
83189SOL    HW267560   2.734  12.926   4.265 -1.7332 -1.0883  0.0724
83190SOL     OW67561   3.914   0.268  11.736  0.7226 -0.5276  0.1091
83190SOL    HW167562   3.876   0.336  11.681 -0.7287  0.2744  1.9881
83190SOL    HW267563   3.908   0.188  11.683  0.6203  0.4236 -1.3653
83191SOL     OW67564   8.613  11.227  11.160  0.0544  0.2582 -0.2168
83191SOL    HW167565   8.546  11.183  11.107  0.8701 -2.5529  0.8837
83191SOL    HW267566   8.678  11.257  11.097 -0.5350 -0.1410 -1.0295
83192SOL     OW67567  10.228   2.788  12.684 -0.1423  0.3562 -0.0012
83192SOL    HW167568  10.216   2.882  12.668 -0.1189  0.3551 -0.0251
83192SOL    HW267569  10.146   2.748  12.654  0.3952  0.2123 -1.3318
83193SOL     OW67570   1.309   9.110   5.927  0.0360 -0.0312  0.4962
83193SOL    HW167571   1.309   9.056   5.848  0.1314 -1.7403  1.5979
83193SOL    HW267572   1.388   9.085   5.974 -0.6943 -0.0734  1.7673
83194SOL     OW67573   0.844   0.069   9.180 -0.6018  0.7369  0.1412
83194SOL    HW167574   0.912   0.076   9.113  1.7766  0.5057  2.3461
83194SOL    HW267575   0.827  -0.025   9.188  1.5203  0.4007  1.9168
83195SOL     OW67576  13.475  13.144   8.914 -0.1289  0.5861 -0.5171
83195SOL    HW167577  13.409  13.213   8.916 -1.4411 -0.6023  2.5782
83195SOL    HW267578  13.475  13.107   9.002  3.6601 -0.4954 -0.7748
83196SOL     OW67579  12.638   8.823   4.387 -0.3709 -0.1629  0.1374
83196SOL    HW167580  12.727   8.855   4.402  0.1501 -1.7137  0.5543
83196SOL    HW267581  12.649   8.732   4.358 -1.8374 -0.8136  1.4398
83197SOL     OW67582   7.203   3.788   0.710  0.2909 -0.2919  0.3412
83197SOL    HW167583   7.201   3.743   0.795 -0.2972  1.5714  1.3603
83197SOL    HW267584   7.178   3.720   0.647 -0.5635 -1.3992  1.8034
83198SOL     OW67585   0.110   6.673  13.648  0.2875 -0.1633  0.5450
83198SOL    HW167586   0.112   6.729  13.725  1.0881  0.3035  0.1935
83198SOL    HW267587   0.049   6.603  13.671 -1.0561  1.0549  0.8345
83199SOL     OW67588   8.150  10.546   5.232 -0.2007 -0.5002 -0.0183
83199SOL    HW167589   8.188  10.494   5.162 -0.9738 -1.0844 -0.0240
83199SOL    HW267590   8.146  10.635   5.198 -4.0776 -1.3261 -2.3037
83200SOL     OW67591   0.415   6.663  14.143 -0.8826 -0.0726  0.5366
83200SOL    HW167592   0.381   6.752  14.150 -0.0540  0.3277 -0.2988
83200SOL    HW267593   0.468   6.664  14.063 -1.3993 -1.4969  0.1409
83201SOL     OW67594   2.082   5.025  13.072  0.2834  0.1389 -0.3495
83201SOL    HW167595   2.032   5.102  13.099  0.8294  0.0020  1.1525
83201SOL    HW267596   2.031   4.951  13.105 -0.2455 -0.1724 -1.7968
83202SOL     OW67597   2.829  14.006   7.397  0.1510  0.1464 -0.6778
83202SOL    HW167598   2.763  14.071   7.419  0.1081  0.4611 -1.6641
83202SOL    HW267599   2.784  13.922   7.403  0.3168  0.1364  1.0281
83203SOL     OW67600   9.437  11.803   1.457 -0.3067  0.3116  0.3073
83203SOL    HW167601   9.358  11.766   1.419 -0.6144  1.1937  0.0742
83203SOL    HW267602   9.432  11.896   1.438  0.9950  0.3213 -0.0665
83204SOL     OW67603   7.542  10.385   8.708 -0.1350  0.2634 -0.0084
83204SOL    HW167604   7.564  10.471   8.673  1.2766 -0.3362 -0.6820
83204SOL    HW267605   7.616  10.361   8.764 -1.4330  0.3237  1.8049
83205SOL     OW67606   6.533   0.919   7.118  0.0432  0.1581 -0.7793
83205SOL    HW167607   6.580   0.950   7.196  0.1371 -0.1645 -0.7030
83205SOL    HW267608   6.603   0.891   7.059 -0.0537 -0.7446 -0.4882
83206SOL     OW67609   2.015  12.995  10.290 -0.3099  0.0382  0.7302
83206SOL    HW167610   1.966  13.009  10.209  1.1622  0.3716 -0.1546
83206SOL    HW267611   1.979  12.914  10.326 -0.2452 -0.7434 -0.8614
83207SOL     OW67612   7.237  13.038   8.599 -0.3784 -0.7724 -0.5752
83207SOL    HW167613   7.227  13.122   8.556  0.2071  0.5575  1.7473
83207SOL    HW267614   7.192  12.976   8.541 -0.5613  1.0466 -2.4854
83208SOL     OW67615   7.715   6.033   5.319 -0.2397 -0.0291  0.5313
83208SOL    HW167616   7.666   5.953   5.339  0.2004 -0.8265 -1.3942
83208SOL    HW267617   7.802   6.003   5.294 -0.4389  0.8917 -1.4933
83209SOL     OW67618   0.500   8.945  12.161  0.4212  0.2306 -0.3097
83209SOL    HW167619   0.459   8.861  12.140  1.8930 -0.4528 -0.5512
83209SOL    HW267620   0.426   9.005  12.171 -0.6414 -0.9616 -0.6574
83210SOL     OW67621  10.885  11.703   6.581 -0.2732 -0.1806  0.1101
83210SOL    HW167622  10.967  11.742   6.611  0.1061 -0.4607 -0.5461
83210SOL    HW267623  10.911  11.638   6.516 -1.0481  0.1959 -0.6091
83211SOL     OW67624  12.586   5.995  12.323 -0.4902  0.1887  0.2302
83211SOL    HW167625  12.637   6.034  12.253 -0.8422 -1.3286 -0.9257
83211SOL    HW267626  12.629   5.911  12.341 -1.4241 -0.2393  0.5805
83212SOL     OW67627   0.094   9.898   3.316  0.2669  0.4917  0.3384
83212SOL    HW167628   0.159   9.881   3.383  0.6027 -0.7569 -0.2701
83212SOL    HW267629   0.010   9.887   3.360  0.4602 -2.1429  0.2054
83213SOL     OW67630   5.314  11.243   1.950  0.6691 -0.6031 -0.5371
83213SOL    HW167631   5.401  11.281   1.941  0.0742  0.6266 -1.2303
83213SOL    HW267632   5.327  11.168   2.009  2.2833 -0.7945 -1.0930
83214SOL     OW67633   4.007   2.215  12.944 -0.6917 -0.5009 -0.1875
83214SOL    HW167634   3.968   2.153  13.005 -2.2348  1.8128  1.3024
83214SOL    HW267635   3.943   2.223  12.874 -0.1130 -1.1535 -0.8143
83215SOL     OW67636  14.040   3.915   2.023  0.2743  0.4098  0.1648
83215SOL    HW167637  14.123   3.924   2.070 -0.1480  0.6524  0.8824
83215SOL    HW267638  13.973   3.941   2.087 -0.3905 -0.2357 -0.2500
83216SOL     OW67639   8.302   6.520   1.297  0.0407 -0.9254  0.3844
83216SOL    HW167640   8.345   6.437   1.316  0.8512 -0.4208  0.8026
83216SOL    HW267641   8.284   6.517   1.203 -0.8977 -2.0056  0.5768
83217SOL     OW67642   0.207   0.298  13.811 -0.2029  0.0118  0.3600
83217SOL    HW167643   0.258   0.278  13.733  0.5908  3.0217  0.0027
83217SOL    HW267644   0.129   0.343  13.778  0.0592  1.1714  1.2705
83218SOL     OW67645   3.457   9.911   6.040 -0.5451  0.0927 -0.2359
83218SOL    HW167646   3.543   9.916   5.999  0.5422 -0.3383  1.8290
83218SOL    HW267647   3.414   9.994   6.017  0.3535  0.2482 -1.4205
83219SOL     OW67648  11.807   0.509   7.141 -0.1888 -0.3041 -0.0795
83219SOL    HW167649  11.814   0.435   7.081 -0.5372 -0.2703 -0.1659
83219SOL    HW267650  11.895   0.547   7.143 -0.0675 -0.5755 -0.2208
83220SOL     OW67651   7.471   0.805  13.125  0.1864  0.2799 -0.4172
83220SOL    HW167652   7.464   0.728  13.181 -0.4271  0.5780 -0.0659
83220SOL    HW267653   7.529   0.864  13.172 -0.0527  0.3883 -0.2524
83221SOL     OW67654   8.700   0.040  10.834  0.2518  0.0520 -0.5197
83221SOL    HW167655   8.788   0.044  10.795  0.4397  1.0286 -0.0279
83221SOL    HW267656   8.711   0.080  10.921 -0.3608 -1.2085  0.1557
83222SOL     OW67657   5.529  11.708   5.173 -0.2192 -0.3494 -0.1744
83222SOL    HW167658   5.558  11.675   5.087 -0.8921 -1.0485 -0.1465
83222SOL    HW267659   5.607  11.751   5.209 -0.2438  1.0214 -1.6369
83223SOL     OW67660  14.055   1.355  11.418 -0.2849 -0.2678  0.3265
83223SOL    HW167661  14.056   1.383  11.326 -1.1466 -1.3662 -0.0349
83223SOL    HW267662  13.965   1.371  11.447  0.1468  0.6913  1.1952
83224SOL     OW67663   0.337   6.480  13.240  0.0423  0.1279  0.4395
83224SOL    HW167664   0.389   6.558  13.223  2.4902 -1.3311  0.7662
83224SOL    HW267665   0.346   6.466  13.334  0.5496 -1.1480  0.2118
83225SOL     OW67666  10.947   7.317   4.263  0.5477  0.1004  0.4435
83225SOL    HW167667  10.937   7.259   4.338  0.9463  0.2768  0.6338
83225SOL    HW267668  11.021   7.374   4.285  0.8708 -0.0479 -0.2033
83226SOL     OW67669  12.785  12.580   0.592  0.6598 -0.1163 -0.0158
83226SOL    HW167670  12.873  12.616   0.607  0.7964 -0.1453 -0.7085
83226SOL    HW267671  12.789  12.491   0.627  0.2418  0.5989  1.9557
83227SOL     OW67672   2.304   3.810   5.560 -0.3930  0.2581 -0.4691
83227SOL    HW167673   2.299   3.874   5.488  0.4228  0.0775 -0.6946
83227SOL    HW267674   2.375   3.843   5.616 -1.3164  0.6458  0.5143
83228SOL     OW67675   1.998  13.850   3.373 -0.2771 -0.2510  0.8117
83228SOL    HW167676   2.013  13.843   3.467  1.4999 -0.3094  0.5467
83228SOL    HW267677   1.903  13.863   3.365 -0.3873  0.3457  2.6301
83229SOL     OW67678   3.430   8.163   2.262 -0.6669  0.3814 -0.7439
83229SOL    HW167679   3.523   8.182   2.274 -0.9369  1.6234 -0.4977
83229SOL    HW267680   3.413   8.180   2.169 -0.7175  0.4820 -0.7164
83230SOL     OW67681  10.942   4.893   2.086  0.2436  0.1468  0.4544
83230SOL    HW167682  11.012   4.940   2.041 -0.4553  0.2820 -0.5189
83230SOL    HW267683  10.924   4.818   2.030  0.1262 -0.3099  1.0931
83231SOL     OW67684   9.141  10.317   4.963 -0.2474 -0.4953  0.1100
83231SOL    HW167685   9.172  10.399   5.001  0.7366 -0.2198 -1.2201
83231SOL    HW267686   9.064  10.294   5.015  0.9963 -0.1459  2.2352
83232SOL     OW67687   4.697  13.889   5.468  0.1551 -0.5056 -0.2078
83232SOL    HW167688   4.739  13.954   5.412 -1.0892  0.3851 -0.1474
83232SOL    HW267689   4.607  13.883   5.435 -0.4830 -0.2653  1.4248
83233SOL     OW67690   5.827   9.432   5.982 -0.6973 -0.3171  0.1663
83233SOL    HW167691   5.872   9.388   5.910 -1.4331 -1.3899  0.3449
83233SOL    HW267692   5.893   9.494   6.017 -0.0450 -0.4271 -0.8339
83234SOL     OW67693   2.644  11.307   2.033  0.4795  0.1334  0.4159
83234SOL    HW167694   2.647  11.355   2.116 -2.0042  2.4062 -0.6742
83234SOL    HW267695   2.666  11.373   1.967 -0.0174 -0.9992 -0.9190
83235SOL     OW67696   6.977   5.844  10.673  0.3007 -0.4477 -0.3527
83235SOL    HW167697   6.989   5.815  10.764  0.4313  0.3784 -0.0996
83235SOL    HW267698   7.009   5.934  10.673 -2.3597  0.5633 -0.5540
83236SOL     OW67699   8.003   8.439  10.813 -0.8189 -0.0812  0.0195
83236SOL    HW167700   7.988   8.429  10.907 -0.4024 -1.5555 -0.0583
83236SOL    HW267701   8.087   8.397  10.797 -0.9865 -0.0351 -1.0503
83237SOL     OW67702   4.455   9.850   4.695 -0.0733  0.6347 -0.2319
83237SOL    HW167703   4.531   9.873   4.749 -0.9482  0.6063  1.0616
83237SOL    HW267704   4.380   9.876   4.748 -0.9754  0.4368 -1.3847
83238SOL     OW67705  11.057   7.885  13.285 -0.0141  0.1556 -0.5760
83238SOL    HW167706  11.032   7.792  13.284 -0.3998  0.1927  1.3486
83238SOL    HW267707  11.060   7.910  13.193  0.6618 -1.9102 -1.1722
83239SOL     OW67708   2.606   0.942  10.948  0.1446  0.5557  0.1368
83239SOL    HW167709   2.604   0.846  10.954  0.3499  0.4321 -1.3946
83239SOL    HW267710   2.698   0.965  10.960  0.7684  0.2135 -3.1115
83240SOL     OW67711   4.470  10.876   0.451 -0.2299  0.0674 -0.2522
83240SOL    HW167712   4.422  10.811   0.501  1.5109 -1.4983 -0.4966
83240SOL    HW267713   4.560  10.869   0.482  0.6954 -0.1334 -2.7030
83241SOL     OW67714  10.159  11.014  14.039  0.0084  0.3916  0.1922
83241SOL    HW167715  10.207  10.945  13.993 -0.5146 -0.1803  0.4771
83241SOL    HW267716  10.127  11.071  13.970  0.2201  0.1968 -0.0715
83242SOL     OW67717   6.427  13.891   9.724  0.2299  0.8014  0.1939
83242SOL    HW167718   6.516  13.905   9.691  0.0616 -1.3445 -1.3484
83242SOL    HW267719   6.379  13.970   9.697  1.4461  1.6324  0.3628
83243SOL     OW67720   2.775   9.331   1.978 -0.2597 -0.3197  0.3722
83243SOL    HW167721   2.835   9.282   2.035 -0.6290 -0.1875  0.8871
83243SOL    HW267722   2.691   9.284   1.987  0.1288 -1.5180 -1.6281
83244SOL     OW67723   8.094   3.402   9.625 -0.3906 -0.4365 -0.0578
83244SOL    HW167724   8.022   3.437   9.678  0.6979  0.4445  0.9152
83244SOL    HW267725   8.085   3.307   9.633 -0.5196 -0.3328  1.3955
83245SOL     OW67726   1.996   4.610   9.336  0.0092  0.1619  0.0751
83245SOL    HW167727   1.963   4.575   9.254  0.4775 -0.3569  0.0974
83245SOL    HW267728   1.963   4.550   9.403  1.5973 -0.8253  0.0248
83246SOL     OW67729   7.226   3.110  11.341  0.0201  0.4318 -0.1474
83246SOL    HW167730   7.277   3.190  11.340  1.3133 -0.3581 -1.6998
83246SOL    HW267731   7.238   3.075  11.429  2.9578 -0.1726 -0.6814
83247SOL     OW67732  13.860   6.119   7.090  0.0478 -0.1384 -0.0675
83247SOL    HW167733  13.771   6.084   7.085 -1.4103  2.7424  2.1696
83247SOL    HW267734  13.876   6.156   7.003 -1.3926  0.1474 -0.2423
83248SOL     OW67735  13.751   2.102  10.553  0.2214  0.0807  0.3382
83248SOL    HW167736  13.701   2.161  10.497  0.1501 -1.5914 -1.4422
83248SOL    HW267737  13.837   2.144  10.561  0.7378 -0.2833 -2.2993
83249SOL     OW67738   9.152   7.196  12.847  0.0746 -0.3063 -0.1602
83249SOL    HW167739   9.222   7.243  12.802  0.5205 -0.8973 -0.1088
83249SOL    HW267740   9.147   7.112  12.801 -0.5770 -0.2819 -0.1374
83250SOL     OW67741   3.531   8.513  10.804  0.2496 -0.2655  0.2257
83250SOL    HW167742   3.530   8.575  10.731 -0.5066 -1.2104 -0.5910
83250SOL    HW267743   3.542   8.427  10.763  1.2275 -0.7008  1.3288
83251SOL     OW67744   5.214  14.093   8.686 -0.0382  0.2030 -0.5133
83251SOL    HW167745   5.293  14.121   8.639 -0.1882 -0.4872 -1.1949
83251SOL    HW267746   5.169  14.175   8.707  1.0031  0.6190  0.1542
83252SOL     OW67747   8.078   1.795   8.144  0.0134  0.7933 -0.1450
83252SOL    HW167748   8.106   1.873   8.192  2.7137 -0.3118  0.2488
83252SOL    HW267749   7.999   1.767   8.189  0.7262  1.5643  1.7123
83253SOL     OW67750  14.060  10.120   3.065 -0.3261  0.1750 -0.3177
83253SOL    HW167751  13.988  10.178   3.039 -0.3482  0.7082  0.8503
83253SOL    HW267752  14.065  10.130   3.161  1.1085 -0.0760 -0.3433
83254SOL     OW67753   0.499   9.893   8.292  0.4256  0.1140  0.1218
83254SOL    HW167754   0.495   9.987   8.277 -1.2069 -0.2483 -2.4174
83254SOL    HW267755   0.592   9.871   8.282  0.3441  0.9033 -4.2853
83255SOL     OW67756   0.733   5.691  12.972  0.1916 -0.1329  0.1295
83255SOL    HW167757   0.681   5.678  13.051  0.1902  0.3667  0.2170
83255SOL    HW267758   0.817   5.723  13.003  1.2910 -2.7819  0.1295
83256SOL     OW67759   9.196   5.416  12.845 -0.2116 -0.1972 -0.4342
83256SOL    HW167760   9.224   5.506  12.858 -2.4985  0.6135 -0.5717
83256SOL    HW267761   9.144   5.396  12.924 -0.2881 -1.1521 -0.7149
83257SOL     OW67762  12.732   0.233  11.359  0.3441  0.3393  0.1532
83257SOL    HW167763  12.781   0.156  11.329  0.1708  0.5936 -0.8322
83257SOL    HW267764  12.800   0.295  11.386  0.5342  0.2640 -0.1350
83258SOL     OW67765   8.496   9.342   0.526  0.7603 -0.1393  0.5447
83258SOL    HW167766   8.428   9.280   0.500  0.5191  1.1522 -2.2430
83258SOL    HW267767   8.451   9.404   0.583  0.0145 -0.2860  0.1298
83259SOL     OW67768   4.429   9.273   2.847  0.3155  0.3086  0.4121
83259SOL    HW167769   4.513   9.306   2.880  0.8712  0.6954 -1.2786
83259SOL    HW267770   4.402   9.337   2.782  0.1340 -1.2187 -1.1046
83260SOL     OW67771   2.228   3.517   8.379 -0.1351  0.7318  0.8738
83260SOL    HW167772   2.211   3.426   8.400  0.8572 -0.4517 -2.8466
83260SOL    HW267773   2.318   3.532   8.409  1.0242 -0.7169 -1.5972
83261SOL     OW67774  13.886  11.508   4.180 -0.3481  0.4197  0.8646
83261SOL    HW167775  13.869  11.602   4.177  0.6796  0.6374  1.3085
83261SOL    HW267776  13.828  11.475   4.248 -0.3437  0.8313  1.0725
83262SOL     OW67777  12.745   4.895   4.854 -0.2643 -0.4695  0.1496
83262SOL    HW167778  12.658   4.868   4.881 -0.2221  0.2759  1.0672
83262SOL    HW267779  12.743   4.887   4.758 -1.2586 -0.6638  0.1702
83263SOL     OW67780  10.760  13.421   8.991  0.6053  0.3602  0.4403
83263SOL    HW167781  10.710  13.498   9.019  0.6561  0.7928 -0.6359
83263SOL    HW267782  10.703  13.376   8.929  0.5579 -0.5166  1.0929
83264SOL     OW67783   2.337  12.132   6.701 -0.2104 -0.3482  0.1255
83264SOL    HW167784   2.430  12.125   6.681 -0.1834 -0.7858  0.3786
83264SOL    HW267785   2.293  12.115   6.618 -0.0464  3.0097 -0.7833
83265SOL     OW67786   9.262  11.218   3.150 -0.1783  0.2355 -0.1895
83265SOL    HW167787   9.228  11.133   3.174  1.4750 -0.3279  0.3070
83265SOL    HW267788   9.312  11.247   3.226 -1.6380  2.2071  0.1043
83266SOL     OW67789   9.035   1.112  10.063 -0.0843 -0.0107 -0.5123
83266SOL    HW167790   9.079   1.167   9.998  0.1748 -1.7930 -1.9462
83266SOL    HW267791   9.084   1.126  10.144  1.4371  0.1047 -1.4214
83267SOL     OW67792   0.663  13.071   7.422  0.0579 -0.9229 -0.1317
83267SOL    HW167793   0.719  13.000   7.391 -0.5752 -1.2819 -0.4941
83267SOL    HW267794   0.703  13.151   7.388  0.4889 -1.1541 -0.1660
83268SOL     OW67795   1.910   5.773   5.104 -0.0281  0.4875  0.2997
83268SOL    HW167796   1.920   5.678   5.109 -1.2498  0.3922  1.5350
83268SOL    HW267797   1.945   5.806   5.187 -0.7987  0.9827  0.4388
83269SOL     OW67798   0.112   6.487   2.251 -0.5463  0.1735 -0.4555
83269SOL    HW167799   0.046   6.555   2.241 -0.8805 -0.1487 -0.4589
83269SOL    HW267800   0.113   6.468   2.345 -0.4087  0.2268 -0.4454
83270SOL     OW67801   0.480   4.329  12.749 -0.1905  0.0678 -0.0941
83270SOL    HW167802   0.448   4.294  12.833 -0.1385  2.5633  1.0349
83270SOL    HW267803   0.457   4.421  12.751  2.2711  0.7991 -1.6238
83271SOL     OW67804  10.774   2.377   0.435  0.1014 -0.5326 -0.4005
83271SOL    HW167805  10.687   2.384   0.396 -0.0352  1.1385  0.1351
83271SOL    HW267806  10.824   2.446   0.393  0.9389 -0.9324 -0.0851
83272SOL     OW67807   5.912   1.394   9.370 -0.5447  0.0645  0.3412
83272SOL    HW167808   5.894   1.396   9.464  0.5429  2.1013  0.5559
83272SOL    HW267809   5.856   1.324   9.337 -2.9005  0.9707  2.0991
83273SOL     OW67810   7.080   0.095   5.873 -0.1127  0.0043 -0.1505
83273SOL    HW167811   7.026   0.075   5.950 -0.5489 -0.8987 -0.6754
83273SOL    HW267812   7.170   0.083   5.904 -0.1686  1.6440  0.7698
83274SOL     OW67813   9.317  13.727  12.122  0.1882  0.3088  0.5082
83274SOL    HW167814   9.264  13.652  12.094  1.6799 -1.3784  1.9923
83274SOL    HW267815   9.253  13.789  12.158 -0.8999 -1.4473  1.7657
83275SOL     OW67816  11.910  10.510   1.413  0.0890 -0.2846 -0.5130
83275SOL    HW167817  11.830  10.509   1.360 -0.8339  0.9533  0.7750
83275SOL    HW267818  11.967  10.572   1.368  0.8665 -2.0450 -2.0981
83276SOL     OW67819   8.618   6.212   2.424 -0.2565  0.1168 -0.3281
83276SOL    HW167820   8.662   6.154   2.362  0.7181  1.3404 -0.8210
83276SOL    HW267821   8.684   6.277   2.448 -0.6762 -0.1879  1.8439
83277SOL     OW67822  10.844   1.550   0.075 -0.1060  0.0344  0.0090
83277SOL    HW167823  10.909   1.550   0.005  0.7558 -0.2166  0.7897
83277SOL    HW267824  10.791   1.629   0.059  0.8904  0.6800 -0.1882
83278SOL     OW67825   7.828   4.974   6.018  0.7517  0.0747 -0.1333
83278SOL    HW167826   7.754   5.016   6.062 -0.6792 -1.5324 -0.8364
83278SOL    HW267827   7.883   5.046   5.988 -0.9592  1.3879 -0.2749
83279SOL     OW67828   9.596  14.014   3.726  0.6293  0.4806  0.3746
83279SOL    HW167829   9.602  13.936   3.670 -0.8375 -0.6320  1.6589
83279SOL    HW267830   9.572  13.979   3.812  0.4807  2.3281  1.1158
83280SOL     OW67831  11.416  13.642   3.632  0.2626  0.3798  0.2556
83280SOL    HW167832  11.468  13.630   3.552  1.2195  1.7585  0.6363
83280SOL    HW267833  11.448  13.576   3.692 -0.4084 -0.6193 -0.4439
83281SOL     OW67834   8.745   6.156   3.973  0.7668  0.4633  0.0627
83281SOL    HW167835   8.677   6.150   4.041 -0.7116  2.4591 -1.1210
83281SOL    HW267836   8.821   6.192   4.018  0.1314  0.8267  0.8801
83282SOL     OW67837   2.467   8.603  12.223  0.2161  0.0392 -0.2778
83282SOL    HW167838   2.450   8.517  12.262 -1.1050 -0.2301 -1.3654
83282SOL    HW267839   2.554   8.595  12.183  0.0149 -0.8647 -0.5487
83283SOL     OW67840   5.172  11.687   8.943  0.1450  0.6603  0.4897
83283SOL    HW167841   5.192  11.659   9.033 -0.4252  0.1393  0.4557
83283SOL    HW267842   5.237  11.641   8.889 -0.2101  0.1157  0.5267
83284SOL     OW67843   2.685  11.127   4.203 -0.5287  0.6757  0.2779
83284SOL    HW167844   2.752  11.146   4.269  1.7636 -1.3709 -1.2532
83284SOL    HW267845   2.642  11.048   4.234 -0.0639  0.2291 -0.1774
83285SOL     OW67846   7.075  11.105   6.393  0.1015 -0.3409  0.1303
83285SOL    HW167847   7.109  11.179   6.343 -2.9385  2.0995  1.3832
83285SOL    HW267848   7.152  11.048   6.406  2.1329  1.4983 -2.6348
83286SOL     OW67849   9.663   3.818   2.649  0.5294 -0.5681  0.6363
83286SOL    HW167850   9.745   3.861   2.675  0.0739  0.2569  0.7525
83286SOL    HW267851   9.666   3.733   2.692  1.1543 -0.3983  0.9494
83287SOL     OW67852  11.818  10.307  13.012  0.0700  0.3105  0.1449
83287SOL    HW167853  11.860  10.392  13.000 -1.9579  1.4782  0.7989
83287SOL    HW267854  11.880  10.256  13.063  1.1090  1.5929  0.2045
83288SOL     OW67855   6.100   0.803   0.963 -0.6494  0.3574 -0.1071
83288SOL    HW167856   6.090   0.784   1.056 -0.5396 -0.2499 -0.2136
83288SOL    HW267857   6.063   0.726   0.919  1.8315 -0.6695 -0.5304
83289SOL     OW67858   0.323   9.086   8.926  0.6802 -0.3941 -0.3536
83289SOL    HW167859   0.287   9.159   8.977 -0.4701 -0.2224 -1.3439
83289SOL    HW267860   0.408   9.118   8.895  0.6276  0.1414  0.0347
83290SOL     OW67861   7.901   8.464   9.636 -0.1561  0.0363 -0.5514
83290SOL    HW167862   7.863   8.510   9.711  3.2250  0.7352  0.8962
83290SOL    HW267863   7.825   8.424   9.593 -2.5500  1.7204  1.7270
83291SOL     OW67864   9.476   7.760   9.551 -0.3729  0.0222 -0.0387
83291SOL    HW167865   9.481   7.667   9.572  0.3697 -0.3604 -1.7233
83291SOL    HW267866   9.387   7.785   9.576 -0.4634 -1.0457  0.7656
83292SOL     OW67867   7.324   7.939   1.760 -0.7523 -0.1047 -0.6658
83292SOL    HW167868   7.243   7.895   1.732  0.4326 -1.8321 -1.5552
83292SOL    HW267869   7.344   7.900   1.845 -0.4110 -0.2936 -0.8317
83293SOL     OW67870   2.623   0.544  14.001  0.1087 -0.4580 -0.3254
83293SOL    HW167871   2.700   0.489  13.993 -1.1545 -2.4951  0.7705
83293SOL    HW267872   2.590   0.552  13.911  0.6126 -1.0484 -0.5657
83294SOL     OW67873   9.113   5.394   9.603 -0.0825 -0.1057  0.1676
83294SOL    HW167874   9.053   5.436   9.664 -0.1009 -0.5176  0.4365
83294SOL    HW267875   9.062   5.381   9.523 -0.1135  0.2600  0.1254
83295SOL     OW67876   0.617   1.588   9.547 -0.6802 -0.7708 -0.1778
83295SOL    HW167877   0.672   1.526   9.595  1.6248  1.0377 -0.3062
83295SOL    HW267878   0.641   1.673   9.583 -1.7823  0.2856 -1.8512
83296SOL     OW67879   0.697   6.027   2.634 -0.1268 -0.2104  0.3005
83296SOL    HW167880   0.655   6.037   2.548 -1.1127  2.0189  0.9826
83296SOL    HW267881   0.636   5.973   2.684  0.4127 -1.4520 -0.3183
83297SOL     OW67882   0.309   9.789   5.790  0.3295  0.5090 -0.5545
83297SOL    HW167883   0.394   9.830   5.799  0.0878  0.9555 -0.2876
83297SOL    HW267884   0.325   9.696   5.809  1.1144  0.2213 -2.3912
83298SOL     OW67885  12.886   1.540   7.442  0.2661 -0.3041  0.4789
83298SOL    HW167886  12.961   1.524   7.384  0.7977  0.8721  0.8014
83298SOL    HW267887  12.883   1.463   7.499  1.8698  0.0678  1.1238
83299SOL     OW67888  13.840   1.751   1.365 -0.6711 -0.2251 -0.6766
83299SOL    HW167889  13.755   1.772   1.403 -0.5204 -0.8114  0.0256
83299SOL    HW267890  13.898   1.820   1.397  0.4622 -2.8272  3.9186
83300SOL     OW67891  14.157   8.582   3.437 -0.1765  0.4497 -0.5705
83300SOL    HW167892  14.168   8.672   3.408 -0.5443  0.8791  0.5850
83300SOL    HW267893  14.227   8.568   3.500 -0.5246  0.1360 -0.2506
83301SOL     OW67894  13.409  13.291   4.379  0.2164  0.8421 -0.4324
83301SOL    HW167895  13.437  13.312   4.468  1.5858  1.3941 -0.9610
83301SOL    HW267896  13.482  13.241   4.342 -0.4412  0.4036 -1.1697
83302SOL     OW67897   4.200   7.827   0.410 -0.7357 -0.5772 -0.4447
83302SOL    HW167898   4.112   7.807   0.378 -2.2323  0.0293  2.8738
83302SOL    HW267899   4.201   7.792   0.499  2.0808  0.2746 -0.0582
83303SOL     OW67900   1.409   7.540   2.166 -0.6407 -0.3047  0.4098
83303SOL    HW167901   1.390   7.588   2.247 -2.8161 -1.1030  0.4346
83303SOL    HW267902   1.417   7.607   2.099 -1.2234  0.2339  0.8700
83304SOL     OW67903  13.096   7.717   8.480  0.1417 -0.1598  0.5590
83304SOL    HW167904  13.062   7.806   8.485 -0.3389 -0.2274 -0.8197
83304SOL    HW267905  13.053   7.670   8.551 -4.2253 -0.6748 -2.0744
83305SOL     OW67906   2.016   9.120  13.256  0.1684 -0.3167 -0.2513
83305SOL    HW167907   2.061   9.151  13.177 -0.0186 -1.9180 -1.0140
83305SOL    HW267908   1.927   9.104  13.227  0.1689 -1.1854  0.2191
83306SOL     OW67909   1.635   4.003  12.678  0.1476  0.7402  0.4683
83306SOL    HW167910   1.586   4.085  12.680  0.9250  1.2541 -0.7203
83306SOL    HW267911   1.681   4.004  12.595  0.8293 -0.5310  0.7976
83307SOL     OW67912   5.779  10.898  13.435  0.0375 -0.1571  0.6547
83307SOL    HW167913   5.690  10.922  13.461 -0.6844  0.8873 -2.4282
83307SOL    HW267914   5.830  10.905  13.516 -2.6893 -1.1653  2.6001
83308SOL     OW67915   5.819   6.731  11.812 -0.5407 -0.3353  0.1445
83308SOL    HW167916   5.768   6.810  11.826 -1.3809 -0.0774 -3.4623
83308SOL    HW267917   5.758   6.668  11.774  0.9380 -1.3604 -0.6891
83309SOL     OW67918  10.134  13.423   6.609  0.0755  0.3221 -0.5427
83309SOL    HW167919  10.072  13.494   6.590 -0.7460 -0.5256 -1.1416
83309SOL    HW267920  10.098  13.347   6.562  2.6642  0.2703 -2.6411
83310SOL     OW67921   9.471   5.278  10.459  0.2649  0.1544 -0.1591
83310SOL    HW167922   9.377   5.295  10.456 -0.2520 -1.4272  3.0819
83310SOL    HW267923   9.506   5.346  10.517  1.0403  0.4015 -0.9010
83311SOL     OW67924   4.498  11.435  10.957 -0.1728  0.6812 -0.1511
83311SOL    HW167925   4.466  11.443  11.046 -0.5725  0.2718 -0.2513
83311SOL    HW267926   4.587  11.470  10.959 -0.2688  0.8892  0.3534
83312SOL     OW67927   9.997  11.998   1.579  0.2633 -0.5983 -0.4402
83312SOL    HW167928  10.036  11.956   1.502  1.3033  0.7183 -0.6816
83312SOL    HW267929  10.024  11.943   1.653 -0.0534 -1.4231 -0.9341
83313SOL     OW67930   6.941   8.881  13.191 -0.2544  0.3772 -0.0374
83313SOL    HW167931   6.955   8.879  13.097  0.4520 -0.2231  0.0695
83313SOL    HW267932   7.027   8.858  13.228 -0.7893 -0.4445  0.7307
83314SOL     OW67933   7.566   9.455  11.788 -0.0198 -0.1858 -0.0581
83314SOL    HW167934   7.614   9.383  11.747  2.7122 -0.3473  3.0431
83314SOL    HW267935   7.608   9.534  11.753  0.0884 -0.2199 -0.0058
83315SOL     OW67936  13.134   3.781   8.496  0.1468 -0.2034 -0.8030
83315SOL    HW167937  13.118   3.875   8.499 -0.6548 -0.2419 -2.4533
83315SOL    HW267938  13.193   3.764   8.569  2.2727  1.9710 -1.8656
83316SOL     OW67939   4.997   5.002   8.916  0.6282 -0.0324 -0.3075
83316SOL    HW167940   4.938   5.071   8.887 -1.0141 -1.8038 -1.4515
83316SOL    HW267941   4.982   4.996   9.011 -0.3389  0.2080 -0.4320
83317SOL     OW67942  13.652   0.947   5.896  0.5598 -0.0321 -0.5095
83317SOL    HW167943  13.655   0.881   5.826  0.3749 -1.0296  0.4031
83317SOL    HW267944  13.632   0.898   5.975  0.7348  1.0872  0.2586
83318SOL     OW67945   4.767   1.231   7.039  0.3305  0.3558 -0.4289
83318SOL    HW167946   4.807   1.151   7.073  1.1364  0.8476 -0.1926
83318SOL    HW267947   4.678   1.205   7.015  0.7325 -0.7170 -0.8037
83319SOL     OW67948   8.449   0.905   5.547 -0.0823 -0.2143 -1.0060
83319SOL    HW167949   8.471   0.821   5.506  1.5113 -0.3363  0.0093
83319SOL    HW267950   8.363   0.891   5.586  1.4645 -2.5848  2.0434
83320SOL     OW67951   9.131   1.407   5.874 -0.1436  0.1410  0.4219
83320SOL    HW167952   9.194   1.459   5.824 -0.1132  0.1539  0.4733
83320SOL    HW267953   9.126   1.451   5.959 -1.6380  1.2639 -0.2017
83321SOL     OW67954  13.261  12.914   8.860 -0.0561 -0.0678 -0.3147
83321SOL    HW167955  13.212  12.994   8.878 -0.5544  0.0111 -1.8346
83321SOL    HW267956  13.209  12.868   8.794  1.5934 -0.2749 -1.5391
83322SOL     OW67957  10.091   8.991   7.039 -0.1863  0.4778  0.6031
83322SOL    HW167958  10.100   9.022   6.948 -2.6846 -0.4070 -0.0347
83322SOL    HW267959  10.097   9.071   7.091 -1.5844  1.4278 -0.6002
83323SOL     OW67960   3.440   7.602  13.558 -0.1241 -0.1025 -0.1332
83323SOL    HW167961   3.526   7.573  13.588 -1.1009 -1.2887  1.7394
83323SOL    HW267962   3.446   7.697  13.557  1.0659 -0.1494  0.4736
83324SOL     OW67963   5.692  11.647  11.059 -0.5833 -0.8179 -0.0535
83324SOL    HW167964   5.700  11.596  11.139 -0.4356 -0.8957 -0.1186
83324SOL    HW267965   5.601  11.677  11.059 -0.0656  0.9189  1.2015
83325SOL     OW67966  13.907   4.814  11.494 -0.0920  0.4820 -0.2472
83325SOL    HW167967  13.898   4.802  11.589 -1.3201 -0.3036 -0.4373
83325SOL    HW267968  13.834   4.872  11.471  1.6313  2.7182 -0.3882
83326SOL     OW67969   2.780   6.931   2.264  0.0563 -0.0550 -0.0785
83326SOL    HW167970   2.750   6.988   2.335  1.8949  0.6066  0.2167
83326SOL    HW267971   2.844   6.983   2.217 -1.4173 -0.3249 -2.5422
83327SOL     OW67972  12.063   2.784   1.501 -0.0657  0.1097  0.3063
83327SOL    HW167973  12.044   2.691   1.513  1.1692 -0.2696 -0.4546
83327SOL    HW267974  12.127   2.804   1.569 -3.0200  1.4037  2.9319
83328SOL     OW67975   5.622   2.740   9.040  0.1030  0.3172  0.5326
83328SOL    HW167976   5.611   2.772   9.129 -1.4041  1.2282  0.0635
83328SOL    HW267977   5.585   2.652   9.040  1.0474 -0.0908  1.0236
83329SOL     OW67978   9.360   9.362   8.525  0.2445 -0.2105 -0.1298
83329SOL    HW167979   9.438   9.382   8.576  0.4953 -1.1003 -0.1484
83329SOL    HW267980   9.358   9.429   8.457 -0.1829  1.0974  1.1216
83330SOL     OW67981   5.884   1.059  11.362  0.4261 -0.0893  0.1789
83330SOL    HW167982   5.895   1.115  11.285  0.8482  1.0689  1.0550
83330SOL    HW267983   5.959   1.001  11.360 -0.4362 -1.2154 -1.1866
83331SOL     OW67984   1.365   9.703  13.609  0.2407 -0.0088  0.0889
83331SOL    HW167985   1.273   9.707  13.634  0.3173 -0.3529  0.4225
83331SOL    HW267986   1.391   9.795  13.599 -0.1329  0.0897 -0.0004
83332SOL     OW67987   3.210  10.862   3.362 -0.1199 -0.8159 -0.6920
83332SOL    HW167988   3.121  10.871   3.328 -0.0183  1.0321 -0.5611
83332SOL    HW267989   3.225  10.942   3.412  1.6850 -1.0169 -0.8441
83333SOL     OW67990   3.409   7.736   0.131 -0.1717 -0.1692 -0.4897
83333SOL    HW167991   3.398   7.820   0.087 -1.1817 -0.9440 -1.7736
83333SOL    HW267992   3.390   7.755   0.223 -1.4401  0.8102 -0.9235
83334SOL     OW67993   0.016  11.659  12.939 -0.4553  0.1055 -0.0409
83334SOL    HW167994   0.004  11.752  12.920 -2.9330 -0.0714  0.3151
83334SOL    HW267995   0.036  11.620  12.854 -1.0811  0.7467 -0.4986
83335SOL     OW67996   4.891  10.448   7.051  0.7219  0.2196 -0.0627
83335SOL    HW167997   4.871  10.385   7.120  1.4295 -0.0886 -0.1343
83335SOL    HW267998   4.816  10.441   6.991 -1.2503  2.3914  1.9432
83336SOL     OW67999   0.310  11.944  10.003 -0.2118 -0.3231 -0.2328
83336SOL    HW168000   0.300  11.894  10.083  0.8310  0.2279  0.2603
83336SOL    HW268001   0.295  11.881   9.933  0.9063 -1.2899  0.3712
83337SOL     OW68002  11.893  13.177   2.650 -0.1461  0.1624  0.3028
83337SOL    HW168003  11.923  13.268   2.649  0.9462 -0.1772 -0.9468
83337SOL    HW268004  11.816  13.177   2.593  1.1698 -0.0528 -1.5856
83338SOL     OW68005   3.703   8.264  10.167 -0.0837 -0.3284  0.2960
83338SOL    HW168006   3.672   8.348  10.133 -0.2592  0.2318  1.7947
83338SOL    HW268007   3.644   8.200  10.128 -1.3304  0.4587  0.8261
83339SOL     OW68008  12.916   1.758  12.824  0.0314 -0.1376 -0.0248
83339SOL    HW168009  12.827   1.728  12.807 -0.3262  0.4150  0.7849
83339SOL    HW268010  12.911   1.853  12.816  0.1062  0.0595  1.8144
83340SOL     OW68011   4.421  10.279   8.072 -0.3427 -0.1994 -0.2638
83340SOL    HW168012   4.356  10.229   8.021 -2.0774  0.0295  1.5861
83340SOL    HW268013   4.399  10.371   8.056 -3.3646 -0.0022  3.4570
83341SOL     OW68014   5.785  11.791  11.967  0.0892 -0.1799  0.2353
83341SOL    HW168015   5.840  11.805  12.044  0.9920 -0.4672 -0.3417
83341SOL    HW268016   5.763  11.698  11.970 -0.5787 -0.0129  0.6005
83342SOL     OW68017   3.522  14.038   9.857  0.5754  0.4906  0.2210
83342SOL    HW168018   3.519  14.127   9.893 -0.8274 -0.2263  2.0579
83342SOL    HW268019   3.447  13.994   9.897  1.7112 -1.7555  0.0166
83343SOL     OW68020   4.740   8.254  12.079 -0.3280  0.6285  0.2394
83343SOL    HW168021   4.650   8.247  12.111 -0.8187  2.4364 -0.6252
83343SOL    HW268022   4.793   8.253  12.159 -1.2932  1.6458  0.9311
83344SOL     OW68023   6.589   9.960   1.022 -0.1769  0.4448  0.9211
83344SOL    HW168024   6.517   9.900   1.003  0.6848 -1.7083  3.6280
83344SOL    HW268025   6.651   9.949   0.950 -1.3906  0.3662 -0.1204
83345SOL     OW68026   8.188   0.144   3.519  0.4156 -0.5592 -0.2117
83345SOL    HW168027   8.250   0.216   3.509  2.0857 -1.9120  0.0634
83345SOL    HW268028   8.159   0.150   3.610  0.3363 -0.0825 -0.2652
83346SOL     OW68029   6.150   0.012  10.913 -0.7031 -0.6504  0.0092
83346SOL    HW168030   6.097  -0.063  10.883  0.2822 -1.3097 -0.1478
83346SOL    HW268031   6.096   0.088  10.895 -1.1796 -1.2317 -1.1300
83347SOL     OW68032   5.923  12.180   0.387  0.2569  0.1009  0.1892
83347SOL    HW168033   5.996  12.128   0.353 -0.0801  0.9748 -2.0724
83347SOL    HW268034   5.951  12.206   0.474  1.2330 -2.2498  0.6630
83348SOL     OW68035   1.256   1.942  12.480  0.1589  0.5116  0.2691
83348SOL    HW168036   1.337   1.892  12.490  0.5041  0.8783 -0.5534
83348SOL    HW268037   1.280   2.031  12.508 -0.2081  0.4183  0.8848
83349SOL     OW68038   6.258   9.801   5.518  0.0766  0.1836 -0.1993
83349SOL    HW168039   6.168   9.797   5.486 -0.2438 -1.7304  0.7999
83349SOL    HW268040   6.293   9.714   5.501  1.9322  1.0231 -0.9790
83350SOL     OW68041   2.350  10.730   2.507 -0.9179  0.2300 -0.5858
83350SOL    HW168042   2.385  10.782   2.579 -0.2702 -2.0085  0.8278
83350SOL    HW268043   2.270  10.776   2.480 -0.0941  2.2019  0.1890
83351SOL     OW68044   4.208   9.920   7.772 -0.2644  0.6452 -0.4049
83351SOL    HW168045   4.250   9.999   7.738  0.0055  1.0046  0.7387
83351SOL    HW268046   4.212   9.858   7.699  0.3953  1.3605 -0.9940
83352SOL     OW68047   4.589   4.503  13.566 -0.2493 -0.5280  0.3169
83352SOL    HW168048   4.623   4.558  13.495 -0.9777  0.2018  0.5141
83352SOL    HW268049   4.610   4.414  13.540  0.4720 -0.1949 -0.2811
83353SOL     OW68050   7.862   5.946  10.998 -0.5915  0.1580 -0.0536
83353SOL    HW168051   7.811   5.866  11.010  0.8352 -0.8258 -0.2244
83353SOL    HW268052   7.926   5.944  11.070  0.7260  0.0868 -1.1731
83354SOL     OW68053  13.805   1.074   6.392 -0.8856  0.1486 -0.4853
83354SOL    HW168054  13.714   1.074   6.362 -1.3806 -1.2645  0.9280
83354SOL    HW268055  13.856   1.067   6.312 -2.1598 -3.6483 -1.1489
83355SOL     OW68056   0.740  13.428  14.074 -0.0021 -1.3174 -0.1895
83355SOL    HW168057   0.752  13.506  14.128 -0.0815 -0.9524 -0.6888
83355SOL    HW268058   0.828  13.391  14.066  0.3791 -0.2014 -1.5333
83356SOL     OW68059  10.458  12.035   2.130  0.4159 -0.3197 -0.5000
83356SOL    HW168060  10.546  12.029   2.095  1.0163  0.4706  0.7859
83356SOL    HW268061  10.419  12.110   2.085 -0.1091 -1.4690 -2.0460
83357SOL     OW68062   1.029   4.533   0.062  0.6843 -0.1587  0.0144
83357SOL    HW168063   0.954   4.593   0.066  0.1771 -0.7721 -0.0988
83357SOL    HW268064   0.992   4.447   0.082  1.8022 -0.1243  2.6751
83358SOL     OW68065  12.385   3.707  13.126  0.2260  0.2832  0.5911
83358SOL    HW168066  12.315   3.665  13.077 -0.2668  1.2072  0.4713
83358SOL    HW268067  12.363   3.800  13.124  0.3787  0.3873  2.2760
83359SOL     OW68068  11.474   4.099   0.465  0.0503 -0.2687  0.8507
83359SOL    HW168069  11.525   4.021   0.442  0.5396  0.0790  0.7393
83359SOL    HW268070  11.384   4.078   0.436  0.1357 -0.8656  1.0097
83360SOL     OW68071   8.584   1.489  12.909  0.4425  0.2765  0.4544
83360SOL    HW168072   8.673   1.474  12.940 -0.1140 -3.9989  0.4916
83360SOL    HW268073   8.531   1.422  12.952 -2.0587  0.0744 -2.5188
83361SOL     OW68074   8.369  12.883   7.277 -0.0052 -0.7703 -0.1477
83361SOL    HW168075   8.420  12.823   7.223 -1.8561 -0.2643 -2.6153
83361SOL    HW268076   8.281  12.880   7.240 -0.4785  2.4603  0.4329
83362SOL     OW68077  13.991   3.808   1.438 -0.0724  0.2094  0.1808
83362SOL    HW168078  14.075   3.846   1.416  0.0574  0.6185  1.2893
83362SOL    HW268079  14.001   3.781   1.530 -1.3254  0.8107  0.5172
83363SOL     OW68080   3.938   7.994  10.380 -0.0840  0.0593  0.0230
83363SOL    HW168081   3.906   7.946  10.457 -1.0190  0.3740 -0.1587
83363SOL    HW268082   3.995   8.062  10.417 -0.1237 -0.1088  0.4022
83364SOL     OW68083   9.360   0.775   6.881  0.3034  0.0382  0.1196
83364SOL    HW168084   9.424   0.764   6.811  0.3503  1.9062 -0.1996
83364SOL    HW268085   9.362   0.869   6.901 -0.5278 -0.2603  1.8517
83365SOL     OW68086   9.566  10.070   3.589  0.3219 -0.3245  0.2848
83365SOL    HW168087   9.630  10.064   3.660  0.5652  0.4018  0.1345
83365SOL    HW268088   9.592  10.148   3.539  0.3692 -1.0154 -0.8181
83366SOL     OW68089  13.042   2.828   6.236  0.0076  0.2595  0.0131
83366SOL    HW168090  13.063   2.845   6.144 -0.0944  0.5199  0.0355
83366SOL    HW268091  13.078   2.742   6.254 -0.0428  0.1735 -0.2952
83367SOL     OW68092   6.037   5.263  10.727  0.7332  0.0690 -0.4027
83367SOL    HW168093   6.113   5.215  10.758  1.2584  0.9613 -0.2844
83367SOL    HW268094   6.071   5.321  10.658  0.2563  0.8175 -0.0175
83368SOL     OW68095   0.283   9.381  11.460  0.2933 -0.0072  0.4365
83368SOL    HW168096   0.261   9.400  11.369  0.4329  0.9733  0.5937
83368SOL    HW268097   0.199   9.385  11.506  0.3392  0.4279  0.4931
83369SOL     OW68098  12.867   3.373  11.060 -0.3960 -0.3292 -0.1198
83369SOL    HW168099  12.828   3.302  11.112 -2.6405  0.6316 -0.3735
83369SOL    HW268100  12.794   3.410  11.010  0.6019  2.3182  0.1837
83370SOL     OW68101   8.775   9.580  11.218  0.2720 -0.2064  0.0384
83370SOL    HW168102   8.811   9.563  11.131  2.2962 -0.9723  0.9695
83370SOL    HW268103   8.743   9.670  11.213  0.8674 -0.0400 -1.3276
83371SOL     OW68104   3.424   8.363   5.433 -0.4644 -0.6069  0.2496
83371SOL    HW168105   3.388   8.280   5.464 -1.1661 -0.7843 -0.9856
83371SOL    HW268106   3.358   8.397   5.373  0.6504 -0.0570 -0.7060
83372SOL     OW68107   3.944   9.747   5.555  0.4049 -0.1953  0.1483
83372SOL    HW168108   4.032   9.726   5.587  0.5063 -1.5549 -0.9141
83372SOL    HW268109   3.885   9.708   5.619  0.4631  2.4822  2.0130
83373SOL     OW68110   3.461  11.848  11.931 -0.3982 -0.0107 -0.0885
83373SOL    HW168111   3.547  11.824  11.966 -0.3996  0.5934  0.3532
83373SOL    HW268112   3.399  11.817  11.997 -0.2920  3.1492  1.7117
83374SOL     OW68113   3.532   5.367   8.460  0.2601  0.6022  0.3387
83374SOL    HW168114   3.456   5.315   8.488 -0.1864  0.7887 -0.5151
83374SOL    HW268115   3.565   5.322   8.382 -0.9562  2.3160 -1.2329
83375SOL     OW68116   0.586   8.076  10.131  0.4575 -0.2076 -0.5380
83375SOL    HW168117   0.628   8.161  10.121 -0.2032  0.1515 -0.2867
83375SOL    HW268118   0.654   8.013  10.106 -0.3531  0.4501 -5.4571
83376SOL     OW68119   3.314  13.021   5.313 -0.2504  0.6722 -0.5084
83376SOL    HW168120   3.369  13.099   5.308 -0.4671  0.9577  1.1074
83376SOL    HW268121   3.371  12.955   5.352 -0.8345  0.7694  0.5220
83377SOL     OW68122  12.164   5.185   2.580 -0.5238 -0.6805  0.8628
83377SOL    HW168123  12.131   5.136   2.656 -1.7896  0.4291  1.0607
83377SOL    HW268124  12.087   5.231   2.546  0.8297  2.3104  1.5343
83378SOL     OW68125   4.209   1.540   2.105  0.1079 -0.1121  0.0285
83378SOL    HW168126   4.193   1.518   2.013  3.7754 -0.1317 -0.7597
83378SOL    HW268127   4.255   1.464   2.140  1.4157  1.0617  0.9755
83379SOL     OW68128   9.681   6.386   8.912  0.4572 -0.4303  0.1758
83379SOL    HW168129   9.675   6.323   8.984 -0.2955  0.8893  1.3313
83379SOL    HW268130   9.775   6.396   8.896  0.7051  0.0969  1.7884
83380SOL     OW68131   8.644  10.521  12.662 -0.4694 -0.5364  0.1177
83380SOL    HW168132   8.551  10.535  12.679 -0.0294  1.3260  1.2921
83380SOL    HW268133   8.684  10.511  12.748  0.5196 -0.4917 -0.3132
83381SOL     OW68134  10.648   9.011   9.434  0.3852 -0.3900  0.1887
83381SOL    HW168135  10.609   8.996   9.520 -0.4571 -0.0491 -0.1300
83381SOL    HW268136  10.732   8.964   9.438  1.4548  1.5231  2.0210
83382SOL     OW68137   7.624  10.662   8.658 -0.1070 -0.2004 -0.3400
83382SOL    HW168138   7.652  10.712   8.581 -0.9472 -0.2030 -0.6597
83382SOL    HW268139   7.606  10.728   8.724 -3.3586  0.2334 -1.4208
83383SOL     OW68140   3.390   9.911  14.011 -0.3409 -1.0045 -0.4321
83383SOL    HW168141   3.457   9.844  14.025  1.1851  0.3639 -0.9102
83383SOL    HW268142   3.396   9.967  14.089  1.3891  0.9687 -1.8529
83384SOL     OW68143  11.011   4.388   8.538  0.6341  0.1109  0.2842
83384SOL    HW168144  11.051   4.323   8.479  2.0820 -0.2445  1.5865
83384SOL    HW268145  11.059   4.469   8.519 -0.7519  0.6854 -0.9021
83385SOL     OW68146   5.162  12.098   8.122  0.4421 -0.0165 -0.1418
83385SOL    HW168147   5.096  12.029   8.113  0.2465  0.2616 -0.9597
83385SOL    HW268148   5.204  12.103   8.036  1.0580  0.2901  0.1651
83386SOL     OW68149  11.700   2.439   3.413 -0.5160 -0.2372 -0.0693
83386SOL    HW168150  11.685   2.473   3.325  0.3816 -1.9963 -0.9390
83386SOL    HW268151  11.787   2.471   3.437 -0.1830 -0.8962 -0.3902
83387SOL     OW68152   3.062   4.197   1.875  0.0201  0.3400 -0.1186
83387SOL    HW168153   3.029   4.228   1.959  2.1253 -0.6450  1.1675
83387SOL    HW268154   3.056   4.101   1.881  1.4017  0.1976 -0.4902
83388SOL     OW68155   0.454  11.862   1.222  1.0189  0.0412 -0.2444
83388SOL    HW168156   0.509  11.784   1.217  0.8708 -0.0932  0.1515
83388SOL    HW268157   0.375  11.833   1.268  0.5999  0.2215 -0.8378
83389SOL     OW68158   5.375   8.964  10.059 -0.5521  0.2176  0.4913
83389SOL    HW168159   5.373   8.978  10.154 -0.7672  1.0629  0.3720
83389SOL    HW268160   5.285   8.982  10.031  0.1185  2.8395 -0.2386
83390SOL     OW68161   9.961   0.621   5.632  0.2269  0.2967 -0.2190
83390SOL    HW168162  10.018   0.670   5.691 -0.3386 -1.5472  2.0168
83390SOL    HW268163   9.880   0.671   5.629  0.4467  0.6795  0.1583
83391SOL     OW68164   9.243   9.639   3.071  0.1375 -0.4720 -0.2494
83391SOL    HW168165   9.277   9.679   3.152 -0.2262 -0.3637 -0.1488
83391SOL    HW268166   9.278   9.550   3.072 -0.2959 -0.6407  0.2953
83392SOL     OW68167   9.119   9.500   2.297 -0.3597 -0.7973  0.5616
83392SOL    HW168168   9.208   9.531   2.315  0.1564 -2.6538  1.5029
83392SOL    HW268169   9.065   9.578   2.303  1.3676  0.6754 -1.6157
83393SOL     OW68170  12.955   6.759  10.444  0.0381 -0.3926  0.4002
83393SOL    HW168171  13.009   6.832  10.415 -0.2167 -0.4957 -0.3632
83393SOL    HW268172  12.995   6.729  10.525  0.1734  0.5631  0.6946
83394SOL     OW68173   2.881   0.809   6.711 -0.2499 -0.3266  0.2757
83394SOL    HW168174   2.937   0.884   6.730 -1.7194  0.4868  1.5889
83394SOL    HW268175   2.850   0.824   6.621 -0.1359  0.3815  0.3509
83395SOL     OW68176   7.913   9.561   4.201 -0.1906 -0.2714 -0.1541
83395SOL    HW168177   7.961   9.485   4.234 -0.1339  0.2610  1.0264
83395SOL    HW268178   7.856   9.586   4.273 -0.8517  0.2723 -0.8587
83396SOL     OW68179  10.151   6.924   2.248 -0.1024 -0.0541  0.1476
83396SOL    HW168180  10.225   6.928   2.188  0.6707 -0.6361  1.0302
83396SOL    HW268181  10.074   6.919   2.192  0.6172 -0.8598 -0.7972
83397SOL     OW68182   4.341  12.812  10.337 -0.2900 -0.7387  0.4969
83397SOL    HW168183   4.298  12.774  10.260  0.5843 -0.0186 -0.3766
83397SOL    HW268184   4.402  12.876  10.300  0.5989 -0.8308  1.7667
83398SOL     OW68185  14.082   6.802  12.790 -0.1592  0.5023 -0.4396
83398SOL    HW168186  14.133   6.779  12.868 -0.5629 -0.5303 -0.4749
83398SOL    HW268187  14.121   6.752  12.719 -0.2041  0.9493 -0.7828
83399SOL     OW68188   9.290  11.923  12.334  0.4688 -0.0878 -0.4032
83399SOL    HW168189   9.375  11.890  12.306  0.0107 -0.7752 -1.0426
83399SOL    HW268190   9.284  12.011  12.296  1.1424  0.2238  0.1833
83400SOL     OW68191   0.192   3.459   4.938  0.0556  0.1950 -0.1408
83400SOL    HW168192   0.240   3.503   4.868  0.0837  0.8998  0.2999
83400SOL    HW268193   0.172   3.372   4.904  0.3192  0.4278 -0.9049
83401SOL     OW68194   8.802  11.751   1.559 -0.8857 -0.3675 -0.3322
83401SOL    HW168195   8.769  11.693   1.628  2.3133  0.0244  1.7213
83401SOL    HW268196   8.729  11.810   1.540 -1.9273 -0.5516  2.6775
83402SOL     OW68197   9.431   5.789  11.740 -0.3053 -0.5966  0.3160
83402SOL    HW168198   9.488   5.864  11.756 -0.9976 -0.2724  1.3565
83402SOL    HW268199   9.485   5.713  11.757  1.0049 -0.4541 -2.6176
83403SOL     OW68200   4.108  13.533   6.196  0.2193 -0.5120 -0.5221
83403SOL    HW168201   4.084  13.470   6.128  0.0870  0.9683 -1.8821
83403SOL    HW268202   4.089  13.618   6.158 -0.9553  0.3474  1.8063
83404SOL     OW68203   8.211   3.659  10.778 -0.2717 -1.0502  0.4411
83404SOL    HW168204   8.266   3.680  10.702  2.6823 -0.8648  2.4615
83404SOL    HW268205   8.162   3.739  10.796  1.3319 -0.0454  0.5223
83405SOL     OW68206   5.644  12.041   7.473 -0.3812  0.2516  0.2423
83405SOL    HW168207   5.629  11.960   7.521 -1.1807  0.7390  0.8436
83405SOL    HW268208   5.587  12.035   7.397  1.9153 -1.1601 -1.5281
83406SOL     OW68209   7.988   8.987   0.965  0.6429 -0.2388  0.6260
83406SOL    HW168210   8.081   9.010   0.960  0.4790  0.3333 -0.1408
83406SOL    HW268211   7.987   8.892   0.973  1.2917 -0.4560 -1.2404
83407SOL     OW68212   1.539  12.751  12.607  1.2126  0.2157  0.4599
83407SOL    HW168213   1.619  12.728  12.654  0.6760 -1.7168  0.5306
83407SOL    HW268214   1.472  12.756  12.675  0.9726  0.2138  0.2232
83408SOL     OW68215   5.379   1.234   8.053  0.0652  0.8368 -0.2002
83408SOL    HW168216   5.469   1.248   8.083  0.5272  0.5628 -1.4309
83408SOL    HW268217   5.378   1.144   8.020 -1.1454  0.1872  1.4529
83409SOL     OW68218  12.984   7.017  13.590 -0.0825  0.5576  0.5381
83409SOL    HW168219  12.980   7.082  13.661  0.5082  1.2719 -0.0658
83409SOL    HW268220  13.077   6.997  13.580 -0.2669 -0.4541  0.7662
83410SOL     OW68221   0.151   9.119   7.206  0.0584  0.3283  0.5199
83410SOL    HW168222   0.067   9.117   7.251  0.0868  1.7527  0.6894
83410SOL    HW268223   0.149   9.044   7.147 -0.8536 -0.3190  1.3489
83411SOL     OW68224  12.642   8.855  11.994  0.0141 -0.4229  0.1320
83411SOL    HW168225  12.729   8.894  12.000  0.1165 -0.1174 -2.4108
83411SOL    HW268226  12.640   8.812  11.909 -2.4276 -0.1353 -0.0343
83412SOL     OW68227  10.681   7.096   0.293 -0.3065 -0.5928  0.2972
83412SOL    HW168228  10.619   7.090   0.221  0.5795 -0.6187 -0.4793
83412SOL    HW268229  10.643   7.042   0.362 -2.1509  1.0343  0.6114
83413SOL     OW68230   3.320   9.246   7.099 -0.1495 -0.1233  0.2081
83413SOL    HW168231   3.371   9.317   7.062  0.0749 -0.2760  0.2204
83413SOL    HW268232   3.243   9.239   7.042 -0.2076  0.1719  0.2479
83414SOL     OW68233   1.516   5.349   2.301 -0.2451 -0.6041 -0.4961
83414SOL    HW168234   1.451   5.354   2.371 -1.1738  0.8903 -1.4229
83414SOL    HW268235   1.572   5.275   2.326  0.0025  0.3833  2.2655
83415SOL     OW68236   3.936  11.429  12.523  0.9808  0.5943 -0.2277
83415SOL    HW168237   3.942  11.344  12.481 -2.2119  0.3083 -0.3811
83415SOL    HW268238   3.948  11.411  12.616 -1.0026 -0.3397 -0.0935
83416SOL     OW68239  11.106   2.593   8.850  0.2779 -0.2816  0.4374
83416SOL    HW168240  11.085   2.503   8.826  0.8247  0.6763 -4.8217
83416SOL    HW268241  11.051   2.647   8.792  0.5598  2.8079  2.7847
83417SOL     OW68242  10.492   4.499   7.125  0.5275 -0.4175  0.0796
83417SOL    HW168243  10.525   4.464   7.042  1.2936 -1.3551  0.7586
83417SOL    HW268244  10.429   4.434   7.155 -0.3012  0.2747 -0.0931
83418SOL     OW68245   9.017  10.512   0.604 -0.9780 -0.0729 -0.4379
83418SOL    HW168246   9.088  10.575   0.586  0.6152 -1.2613  1.2841
83418SOL    HW268247   8.992  10.479   0.518  2.5181 -1.5860 -1.0605
83419SOL     OW68248   1.322   5.571   7.392  0.1217 -0.0353  0.1487
83419SOL    HW168249   1.271   5.571   7.311  1.2353  0.1110 -0.5803
83419SOL    HW268250   1.399   5.518   7.372  0.9899  0.9499  0.7197
83420SOL     OW68251  10.447   0.896   1.366 -0.3328 -0.5024  0.1173
83420SOL    HW168252  10.395   0.824   1.404 -0.4738  0.4074  1.7531
83420SOL    HW268253  10.520   0.907   1.427  0.8781 -0.6320 -1.2528
83421SOL     OW68254  12.026  10.829   4.094 -0.4656  0.0954 -0.4316
83421SOL    HW168255  12.032  10.737   4.068  1.3944  0.1623 -0.3543
83421SOL    HW268256  12.026  10.878   4.012  1.0160  0.1137 -0.4405
83422SOL     OW68257   3.621  13.643   7.887 -0.0340  0.1623  0.3884
83422SOL    HW168258   3.606  13.717   7.829  0.7558  0.1006  0.1022
83422SOL    HW268259   3.685  13.674   7.950 -0.4564  0.0411  0.8799
83423SOL     OW68260  13.313  13.351   0.773 -0.7950 -0.4230 -0.4473
83423SOL    HW168261  13.269  13.271   0.745  1.4125 -2.1002  0.6171
83423SOL    HW268262  13.275  13.369   0.859 -1.0070 -0.5367 -0.5145
83424SOL     OW68263  13.743  12.041  13.682  0.0611 -0.5632 -0.2755
83424SOL    HW168264  13.737  12.114  13.743 -3.0066 -1.3494  0.5853
83424SOL    HW268265  13.807  11.982  13.722 -0.0666  0.0570  0.9115
83425SOL     OW68266   9.055   9.394   3.475 -0.6972  0.2689 -0.0896
83425SOL    HW168267   8.998   9.317   3.470  1.3308 -1.2949 -0.5845
83425SOL    HW268268   8.999   9.463   3.510 -2.3082 -1.7454  1.6282
83426SOL     OW68269   5.092   6.244   1.990 -0.4329  0.4006  0.1135
83426SOL    HW168270   5.079   6.153   1.964 -0.3004  0.4004  0.0513
83426SOL    HW268271   5.166   6.242   2.051 -1.6583  0.1824  1.6658
83427SOL     OW68272   6.191   9.784   9.430 -0.2158  0.2250 -0.3086
83427SOL    HW168273   6.209   9.847   9.360 -0.4880 -0.7882 -1.3260
83427SOL    HW268274   6.135   9.718   9.389 -0.4972 -0.3353  0.9115
83428SOL     OW68275   3.413  10.923   1.355  0.7676  0.6385  0.5140
83428SOL    HW168276   3.341  10.985   1.337 -0.0929 -0.3676  0.4129
83428SOL    HW268277   3.370  10.848   1.395  1.7466 -0.0720  0.2544
83429SOL     OW68278   6.637   8.827  10.597  0.6500  0.2460  0.3748
83429SOL    HW168279   6.653   8.733  10.594  0.0269  0.1446  0.0727
83429SOL    HW268280   6.615   8.851  10.507  0.6214  0.6460  0.4849
83430SOL     OW68281   0.049   6.040   8.745 -0.6071  0.4825 -0.1067
83430SOL    HW168282   0.034   6.050   8.651 -0.2931 -1.7870 -0.4513
83430SOL    HW268283   0.093   6.122   8.771  1.0190  0.4078 -2.3206
83431SOL     OW68284   6.385  10.477  14.084  0.1523 -0.0524  0.3302
83431SOL    HW168285   6.474  10.506  14.105  0.3021  0.1481 -0.5581
83431SOL    HW268286   6.391  10.381  14.083  0.3474 -0.0404  0.3351
83432SOL     OW68287   7.734   4.594   6.482  0.3748  0.4748 -0.3555
83432SOL    HW168288   7.760   4.599   6.574  1.4768  0.0512 -0.6227
83432SOL    HW268289   7.722   4.685   6.455 -1.5004  0.5571  0.5921
83433SOL     OW68290  12.400  12.150  11.570  0.0579  0.0580 -0.4572
83433SOL    HW168291  12.413  12.058  11.548 -1.9205 -0.6959  1.1916
83433SOL    HW268292  12.307  12.166  11.550  0.0842  1.3514  0.3584
83434SOL     OW68293  10.495   8.207   7.577  0.0283  0.2787 -0.5874
83434SOL    HW168294  10.548   8.204   7.498 -0.5451  2.4119 -1.1060
83434SOL    HW268295  10.509   8.295   7.613  0.8256 -0.8401  2.1189
83435SOL     OW68296  13.261  10.166   2.339  0.4428 -0.0266 -0.2884
83435SOL    HW168297  13.329  10.189   2.402 -0.1634  0.4995  0.1871
83435SOL    HW268298  13.285  10.214   2.260 -0.1855  1.3812  0.3460
83436SOL     OW68299  10.564   8.660   1.079 -0.5816 -0.4999 -0.5688
83436SOL    HW168300  10.486   8.661   1.023 -0.8252  0.3151 -0.2251
83436SOL    HW268301  10.637   8.667   1.017 -0.8145 -0.4825 -0.8447
83437SOL     OW68302   9.131   0.625   9.370  0.3345 -0.3082  0.0354
83437SOL    HW168303   9.177   0.702   9.338  1.7402 -0.1755  2.1478
83437SOL    HW268304   9.070   0.602   9.300 -0.5147  2.9852 -0.4804
83438SOL     OW68305  11.840   4.977   1.168  0.0899  0.3015 -0.1360
83438SOL    HW168306  11.793   4.968   1.250 -2.0291 -0.7969 -1.3938
83438SOL    HW268307  11.805   4.907   1.112  1.9597  0.5682 -1.7606
83439SOL     OW68308  10.882  11.875  12.819 -0.5324  0.4039  0.0094
83439SOL    HW168309  10.865  11.880  12.913  0.5732 -0.9693  0.3367
83439SOL    HW268310  10.926  11.957  12.798 -2.7171  1.6860  0.1977
83440SOL     OW68311  11.823  11.414   0.177  0.6631  0.7615 -0.5493
83440SOL    HW168312  11.833  11.422   0.082 -0.5879 -0.1733 -0.7740
83440SOL    HW268313  11.779  11.495   0.203 -2.6785 -0.6143 -1.3890
83441SOL     OW68314  12.044   3.081   1.818 -0.2939 -0.7794  0.0385
83441SOL    HW168315  11.970   3.080   1.757 -0.3414 -2.0691  0.0839
83441SOL    HW268316  12.004   3.060   1.903  0.1512 -1.7516  0.0161
83442SOL     OW68317   1.056  13.653   7.304  0.5104 -0.3485  0.4864
83442SOL    HW168318   1.041  13.572   7.354  0.3147  0.5277  1.8844
83442SOL    HW268319   1.116  13.626   7.234  1.2688 -1.5037  1.5323
83443SOL     OW68320   3.488  13.937   5.538 -0.0118 -0.0809  0.3922
83443SOL    HW168321   3.421  13.923   5.605  0.2928  0.7298  0.8854
83443SOL    HW268322   3.570  13.919   5.582  0.1890  0.4227  0.2302
83444SOL     OW68323   9.240   3.733  11.455  0.2332  0.4157 -0.1170
83444SOL    HW168324   9.265   3.765  11.541 -0.9226  0.8056  0.0941
83444SOL    HW268325   9.313   3.756  11.398  1.1958 -0.2137  0.8212
83445SOL     OW68326   5.837  11.282   7.911 -0.3342  0.1875  0.1397
83445SOL    HW168327   5.743  11.265   7.910 -0.1674 -1.0552  1.3675
83445SOL    HW268328   5.871  11.219   7.974  1.3526  0.4844 -0.4306
83446SOL     OW68329   7.638   9.548   0.984  0.1541 -0.8409  0.5464
83446SOL    HW168330   7.692   9.482   0.941 -0.9430 -1.9815  0.8394
83446SOL    HW268331   7.617   9.611   0.915  0.0486 -1.5805 -0.1145
83447SOL     OW68332   9.773   7.386   8.653  0.8097 -0.4654  0.2028
83447SOL    HW168333   9.764   7.460   8.592  2.5110 -0.6011 -0.2716
83447SOL    HW268334   9.865   7.388   8.678  0.4588 -1.3355  1.6183
83448SOL     OW68335   8.993   2.184   8.592  0.3331  0.2524  0.0559
83448SOL    HW168336   8.940   2.227   8.658  1.3859  1.9195 -0.1257
83448SOL    HW268337   9.074   2.161   8.638  0.7218  0.6357 -0.4235
83449SOL     OW68338   5.385  12.120  10.040  0.0105 -0.2828  0.1957
83449SOL    HW168339   5.326  12.169   9.982 -0.1630 -0.2873  0.3669
83449SOL    HW268340   5.361  12.029  10.028  0.2773 -0.3193 -0.0610
83450SOL     OW68341  13.221   0.427   0.304 -0.1712  0.0760  0.0977
83450SOL    HW168342  13.277   0.500   0.281  0.8096 -0.6370  0.1584
83450SOL    HW268343  13.144   0.467   0.344  1.2729  1.0055  2.1379
83451SOL     OW68344  13.428   2.340  12.663  0.0876 -0.9624  0.2943
83451SOL    HW168345  13.419   2.427  12.623 -0.7280 -0.6667  1.0795
83451SOL    HW268346  13.352   2.291  12.631  0.0720 -1.0992  0.5372
83452SOL     OW68347  12.416   0.167  12.336 -0.0089 -0.1534 -0.0565
83452SOL    HW168348  12.501   0.125  12.328  0.1838  0.1905  0.1692
83452SOL    HW268349  12.418   0.238  12.271 -0.2752 -0.3941 -0.3314
83453SOL     OW68350   0.843   4.455   8.045 -0.1189 -0.2955 -0.0726
83453SOL    HW168351   0.770   4.411   8.089 -0.4027 -1.4914 -1.6533
83453SOL    HW268352   0.901   4.384   8.018 -0.2137  0.3048 -2.0293
83454SOL     OW68353  12.823   4.436   2.258 -0.3577  0.0005 -1.0431
83454SOL    HW168354  12.786   4.371   2.198  0.1179  0.9763 -2.4425
83454SOL    HW268355  12.912   4.405   2.274 -0.5134 -0.3081 -0.7673
83455SOL     OW68356   7.866   7.903   2.629 -0.0817 -0.1769 -0.4099
83455SOL    HW168357   7.777   7.868   2.634 -0.0689 -0.1732 -0.1216
83455SOL    HW268358   7.922   7.825   2.621 -0.1947 -0.1314 -2.0084
83456SOL     OW68359   2.117  11.270   1.096 -0.0282  0.2344  0.5007
83456SOL    HW168360   2.176  11.257   1.022 -0.9265  3.6956 -1.0226
83456SOL    HW268361   2.163  11.332   1.153 -0.9243  0.6380  0.8140
83457SOL     OW68362   7.713   7.424   8.310 -0.1577 -0.7233  0.1391
83457SOL    HW168363   7.715   7.487   8.238 -0.5074  0.0391  0.7872
83457SOL    HW268364   7.800   7.430   8.349 -0.3459 -0.3066  0.4903
83458SOL     OW68365  12.732  12.377   4.132  0.4754  0.0195  0.1438
83458SOL    HW168366  12.791  12.393   4.205  0.7428 -0.3604  0.0074
83458SOL    HW268367  12.789  12.370   4.055  0.2866 -0.7028  0.0648
83459SOL     OW68368   7.144   3.067  11.887 -0.4461  0.0186 -0.3376
83459SOL    HW168369   7.137   3.036  11.977 -1.0396  1.4325  0.1329
83459SOL    HW268370   7.131   2.989  11.833  0.5520 -0.9685  0.7881
83460SOL     OW68371   6.574   0.336   3.650  0.5642 -0.3090 -0.0460
83460SOL    HW168372   6.612   0.414   3.690  0.1243 -0.3331  0.4251
83460SOL    HW268373   6.582   0.268   3.716  0.6201 -0.5743 -0.3228
83461SOL     OW68374   1.402   6.702  10.360 -0.6233  0.0213  0.6944
83461SOL    HW168375   1.373   6.687  10.450  0.7920  0.8988  1.3341
83461SOL    HW268376   1.496   6.684  10.361 -0.5291  0.3107 -0.5503
83462SOL     OW68377   1.560   6.938   3.741 -0.2031 -0.7061 -0.5219
83462SOL    HW168378   1.593   6.860   3.696  0.8236 -0.5911  0.0013
83462SOL    HW268379   1.580   6.923   3.834 -0.6911 -0.1516 -0.3159
83463SOL     OW68380   4.610   7.549  10.636 -0.0358 -0.6827  0.2693
83463SOL    HW168381   4.694   7.583  10.604 -0.2764  0.0392  0.3840
83463SOL    HW268382   4.611   7.457  10.611  0.6430 -0.6007 -0.0445
83464SOL     OW68383  12.796  12.889  12.374  0.0933 -0.0839  0.5652
83464SOL    HW168384  12.742  12.824  12.418  2.4020 -0.9755  2.2853
83464SOL    HW268385  12.733  12.951  12.338 -2.1872 -2.6683 -0.2959
83465SOL     OW68386   6.122   4.037  10.105 -0.0706  0.2730 -0.2852
83465SOL    HW168387   6.121   3.967  10.039 -0.4573 -0.3506  0.3586
83465SOL    HW268388   6.214   4.051  10.124 -0.0060 -0.5858  0.1024
83466SOL     OW68389   6.785  11.870   1.262  0.0871 -0.2446 -0.0618
83466SOL    HW168390   6.759  11.797   1.206 -0.2973 -0.2437  0.1161
83466SOL    HW268391   6.760  11.843   1.350  0.1152  0.0228  0.0288
83467SOL     OW68392   0.660   9.105   9.407  0.8213  0.0418  0.1700
83467SOL    HW168393   0.741   9.096   9.357  1.3143  0.3332  0.9004
83467SOL    HW268394   0.599   9.044   9.365  1.1900  0.3405 -0.8299
83468SOL     OW68395   8.743   9.202   6.971 -0.4797 -0.5681 -0.7657
83468SOL    HW168396   8.705   9.184   6.885 -1.4319 -1.9387 -0.0972
83468SOL    HW268397   8.700   9.140   7.029 -0.0696  0.5270  0.7682
83469SOL     OW68398  10.306   1.588  13.989 -0.1737  0.1200  0.1579
83469SOL    HW168399  10.341   1.652  14.051 -1.2446  1.1670 -0.2905
83469SOL    HW268400  10.256   1.527  14.043  1.0392 -0.5103  0.6159
83470SOL     OW68401   8.111   9.905   1.645  0.5587 -0.4771 -0.5049
83470SOL    HW168402   8.114   9.846   1.570  0.5223 -1.1515  0.0183
83470SOL    HW268403   8.064   9.982   1.613  0.6426 -0.7134 -1.2031
83471SOL     OW68404  11.263  10.478   2.418 -0.1105  0.0700 -0.0551
83471SOL    HW168405  11.239  10.429   2.339  0.1642 -0.7774  0.3715
83471SOL    HW268406  11.238  10.420   2.490  0.9031  0.2502  0.4474
83472SOL     OW68407   5.178   2.419  10.039 -0.1509 -0.3245 -0.0219
83472SOL    HW168408   5.223   2.394   9.959 -2.0341 -0.8541 -0.9726
83472SOL    HW268409   5.224   2.371  10.109  0.2844 -1.4003 -1.0222
83473SOL     OW68410   5.128   2.196   5.691 -0.2555 -0.3065 -0.1323
83473SOL    HW168411   5.204   2.204   5.749 -1.0305 -0.2079  0.8904
83473SOL    HW268412   5.084   2.116   5.720 -0.9357  0.0247 -0.2437
83474SOL     OW68413  10.852  12.794   5.093  0.3694  0.2143  0.0835
83474SOL    HW168414  10.846  12.856   5.165 -0.2529 -0.1922  0.3902
83474SOL    HW268415  10.937  12.812   5.052  0.1883  1.2617  0.1616
83475SOL     OW68416   5.536   3.692  10.974  0.2599 -0.0076  0.1209
83475SOL    HW168417   5.604   3.674  11.038 -0.1882 -1.0934  0.3096
83475SOL    HW268418   5.476   3.617  10.979 -0.6990  0.6900 -0.3676
83476SOL     OW68419  11.742  12.320  12.982  0.1793  0.1518  0.7364
83476SOL    HW168420  11.780  12.305  13.068 -1.6850 -1.9560  1.2822
83476SOL    HW268421  11.736  12.233  12.942 -2.7167  0.5096  0.1740
83477SOL     OW68422  12.477   6.743   8.918  0.0232  0.1889  0.0067
83477SOL    HW168423  12.399   6.781   8.877 -1.0244 -0.6709  1.1093
83477SOL    HW268424  12.492   6.797   8.996  1.2598  1.0672 -0.8148
83478SOL     OW68425  12.535   6.872   5.902  0.2928  0.3188  0.3844
83478SOL    HW168426  12.492   6.887   5.987 -0.3913  1.2848 -0.1196
83478SOL    HW268427  12.537   6.777   5.894  1.3907  0.1518  1.9909
83479SOL     OW68428   8.411   1.221   7.105 -0.2271 -0.4269  0.1438
83479SOL    HW168429   8.414   1.311   7.137  0.9661 -0.2196 -0.4651
83479SOL    HW268430   8.492   1.182   7.138  1.0287 -0.2276 -2.3983
83480SOL     OW68431  10.010   9.559   8.917  0.0494  0.0993 -0.4065
83480SOL    HW168432   9.946   9.623   8.946 -0.9601 -0.5597 -1.0758
83480SOL    HW268433  10.055   9.601   8.843  0.0911  0.4080 -0.2050
83481SOL     OW68434   2.327   9.967  10.144 -0.0682 -0.3850  0.2895
83481SOL    HW168435   2.321   9.881  10.102  0.7785 -0.8065  1.0075
83481SOL    HW268436   2.421   9.981  10.156 -0.2409  0.2896  0.8986
83482SOL     OW68437   3.157  11.862   7.721  0.7279 -0.1859  0.0196
83482SOL    HW168438   3.184  11.953   7.732 -2.1783  0.6872  0.8489
83482SOL    HW268439   3.112  11.840   7.803 -0.8382 -1.5018 -1.1182
83483SOL     OW68440   8.190   0.744   5.682 -0.0396 -0.5952 -0.1937
83483SOL    HW168441   8.187   0.826   5.731 -1.3336  0.0030 -1.1963
83483SOL    HW268442   8.176   0.770   5.591 -0.6929 -1.9403 -0.5097
83484SOL     OW68443   8.757   3.082   4.785  0.1582  0.0846  0.0307
83484SOL    HW168444   8.803   3.053   4.864  2.7256  2.0264 -0.6284
83484SOL    HW268445   8.692   3.144   4.816 -0.6283 -1.0785  0.7932
83485SOL     OW68446  10.779   3.475   7.667  0.1592  0.0567 -0.2075
83485SOL    HW168447  10.748   3.397   7.620 -1.3230  1.0697 -0.9598
83485SOL    HW268448  10.700   3.525   7.686  1.0107  1.0043  0.9864
83486SOL     OW68449   9.507  11.197   0.398 -0.2211  0.3957  0.1681
83486SOL    HW168450   9.551  11.261   0.455 -1.0769 -0.4083  1.8117
83486SOL    HW268451   9.513  11.115   0.447  0.4781 -0.7102 -1.7035
83487SOL     OW68452   7.859   0.414  12.677  0.0247  0.2482 -0.1101
83487SOL    HW168453   7.918   0.339  12.676 -0.4989 -0.1668 -0.4186
83487SOL    HW268454   7.909   0.484  12.720  0.1735 -0.5532  1.0687
83488SOL     OW68455   2.076   9.165   0.635 -0.0337 -0.0694 -0.9043
83488SOL    HW168456   2.002   9.118   0.597 -0.0225 -0.3076 -0.6349
83488SOL    HW268457   2.049   9.257   0.633  0.1122 -0.0417 -1.8096
83489SOL     OW68458   0.112  11.702  13.549 -0.1330 -0.1531 -0.3273
83489SOL    HW168459   0.162  11.637  13.598 -0.9142 -1.8237 -1.6257
83489SOL    HW268460   0.085  11.656  13.469  0.8601  2.3564 -2.2314
83490SOL     OW68461   3.276   2.733  11.101  0.0539  0.3163 -0.2323
83490SOL    HW168462   3.274   2.643  11.067 -1.3750 -0.3381  1.4184
83490SOL    HW268463   3.368   2.756  11.104  0.4578 -1.1802 -0.4855
83491SOL     OW68464  10.443   1.211   4.844  0.4138  0.4003  0.2346
83491SOL    HW168465  10.423   1.215   4.937 -0.0770  2.0347  0.0788
83491SOL    HW268466  10.436   1.117   4.823 -1.4344  0.2143  1.4246
83492SOL     OW68467   3.582   7.093  10.347 -0.6316 -0.1269 -0.0424
83492SOL    HW168468   3.561   7.010  10.304 -2.0752 -0.2066  0.7421
83492SOL    HW268469   3.594   7.070  10.439 -0.6888  0.4865  0.1238
83493SOL     OW68470   1.577   3.559  10.658 -0.2322 -0.2022  0.0422
83493SOL    HW168471   1.648   3.529  10.715 -0.4071  0.2624  0.5176
83493SOL    HW268472   1.615   3.560  10.570  0.7364  1.2126  0.4424
83494SOL     OW68473   9.438  13.362   8.540  0.4339  0.0390 -0.4142
83494SOL    HW168474   9.456  13.403   8.456 -0.1975 -0.9379 -1.0456
83494SOL    HW268475   9.345  13.340   8.537 -0.3932  2.6543  1.7451
83495SOL     OW68476   9.187   1.343  11.112  0.0940  0.0874  0.6665
83495SOL    HW168477   9.201   1.404  11.040 -0.8245 -0.7177 -0.2290
83495SOL    HW268478   9.245   1.269  11.093 -0.5565 -0.3748  0.4421
83496SOL     OW68479  11.869  10.468   8.250 -0.4082 -0.1605  0.1322
83496SOL    HW168480  11.943  10.476   8.310 -1.2671  2.2179  1.0208
83496SOL    HW268481  11.901  10.507   8.168  0.3130 -2.1425 -0.5904
83497SOL     OW68482   9.975  12.423   2.964  0.1302 -0.1844  0.1385
83497SOL    HW168483  10.033  12.464   3.028 -1.1037  1.3328  0.3622
83497SOL    HW268484   9.927  12.357   3.014 -0.8014  0.9651  0.8306
83498SOL     OW68485   5.004  12.299  14.154 -0.0714  0.1913  0.1760
83498SOL    HW168486   5.030  12.245  14.080  1.2410  0.5975  0.3110
83498SOL    HW268487   4.933  12.354  14.120  1.1614  1.0723 -1.1184
83499SOL     OW68488   9.783  11.203   9.444 -0.2042 -0.3654  0.1866
83499SOL    HW168489   9.711  11.212   9.381  0.9840 -0.6269 -1.2547
83499SOL    HW268490   9.811  11.112   9.436 -0.8641 -0.7941  2.0887
83500SOL     OW68491   2.097   7.094   8.084  0.1618 -0.6952  0.4276
83500SOL    HW168492   2.190   7.092   8.108  0.4639 -0.4125 -0.6748
83500SOL    HW268493   2.075   7.188   8.083  0.1291 -0.7076 -0.2754
83501SOL     OW68494  11.648  13.036  11.640 -0.0388 -0.1377 -0.4582
83501SOL    HW168495  11.654  13.130  11.621  0.9716  0.3042  1.7093
83501SOL    HW268496  11.729  13.000  11.603 -0.1088 -0.0489 -0.7050
83502SOL     OW68497   8.995   4.015   1.281 -0.0359  0.6985  0.1595
83502SOL    HW168498   8.906   3.996   1.311 -0.1141 -0.3528 -0.7126
83502SOL    HW268499   8.984   4.044   1.191  0.4386  1.4650  0.3376
83503SOL     OW68500   3.491   5.985  13.840  0.3859  0.5908  0.0706
83503SOL    HW168501   3.396   5.979  13.842  0.4543 -1.1687 -0.1432
83503SOL    HW268502   3.513   6.049  13.908 -0.9307  0.9708  0.1575
83504SOL     OW68503   1.109   6.924   1.363  0.2768  0.2332  0.4936
83504SOL    HW168504   1.124   6.980   1.287  2.0265  0.3327  0.8779
83504SOL    HW268505   1.019   6.944   1.389  0.1751  1.3491 -0.5990
83505SOL     OW68506   2.338  12.959   1.219 -0.0061  0.8495  0.5051
83505SOL    HW168507   2.307  12.979   1.131 -0.0047  1.0183  0.5422
83505SOL    HW268508   2.315  12.868   1.233  1.7173  0.2295 -0.4115
83506SOL     OW68509   3.289   2.193   9.997 -0.2612 -0.6128 -0.1457
83506SOL    HW168510   3.211   2.247  10.012 -0.3512 -0.6934 -0.3210
83506SOL    HW268511   3.334   2.191  10.082 -0.5774 -0.7682  0.0195
83507SOL     OW68512  12.461  10.284   6.762  0.2889  0.3461  0.1676
83507SOL    HW168513  12.466  10.301   6.856  1.0144  2.5225 -0.2002
83507SOL    HW268514  12.374  10.315   6.737 -0.3088 -1.1972  0.2606
83508SOL     OW68515  12.958  11.520   7.753 -0.0161  0.4210 -0.0590
83508SOL    HW168516  12.932  11.431   7.779 -1.8492  1.1413  0.7842
83508SOL    HW268517  12.898  11.577   7.801  1.3069  2.1458 -0.3558
83509SOL     OW68518   5.594   1.879   3.828 -0.1877  0.2311 -0.5318
83509SOL    HW168519   5.663   1.922   3.879  0.6243 -1.2290 -0.3128
83509SOL    HW268520   5.594   1.924   3.744 -0.4169  1.6099  0.1907
83510SOL     OW68521   8.276   8.298  12.950 -0.5687  0.3904 -0.7807
83510SOL    HW168522   8.293   8.211  12.912 -0.6980 -0.4713  1.0338
83510SOL    HW268523   8.342   8.354  12.910  1.1927 -1.1101 -0.1492
83511SOL     OW68524  10.782   9.181   9.222 -0.6155  0.0697 -0.2184
83511SOL    HW168525  10.791   9.159   9.314  1.8215 -0.2038 -0.4579
83511SOL    HW268526  10.709   9.243   9.219 -1.0123 -0.2411  1.8174
83512SOL     OW68527   1.640  12.670   7.342  0.0731 -0.5215 -0.5101
83512SOL    HW168528   1.668  12.758   7.369 -0.3121 -0.5802  0.0897
83512SOL    HW268529   1.709  12.640   7.283 -0.1465  0.4818 -1.3171
83513SOL     OW68530   2.313   0.193   6.475  0.0399  0.4239 -0.3386
83513SOL    HW168531   2.315   0.286   6.455 -2.9236  0.6868  0.1331
83513SOL    HW268532   2.243   0.158   6.419  0.3236 -1.2960  0.3186
83514SOL     OW68533  12.131   9.246   8.647  0.2414  0.1773  0.7982
83514SOL    HW168534  12.199   9.179   8.650  1.0904  0.9121 -0.8851
83514SOL    HW268535  12.084   9.228   8.565 -1.6449 -0.3250  1.9156
83515SOL     OW68536   7.811   2.565   1.733  0.0912  0.3103  0.6179
83515SOL    HW168537   7.779   2.650   1.702 -0.7576  0.0611  0.8133
83515SOL    HW268538   7.740   2.504   1.717  1.8295 -1.1075 -2.5994
83516SOL     OW68539  10.820   2.713  12.786 -0.7489 -0.4142 -0.0773
83516SOL    HW168540  10.803   2.623  12.816  3.0063 -1.4817 -0.7100
83516SOL    HW268541  10.780   2.717  12.699  0.5338 -2.1113 -0.7819
83517SOL     OW68542   0.351   0.013   8.252 -0.2965  0.1908 -0.0488
83517SOL    HW168543   0.307  -0.041   8.187  1.5332 -1.0092 -0.3641
83517SOL    HW268544   0.439  -0.023   8.258  0.8874  2.8440  0.0931
83518SOL     OW68545   9.229  11.055   4.139 -0.2875  0.3403 -0.6331
83518SOL    HW168546   9.181  11.077   4.219  0.7098 -0.3390  0.1785
83518SOL    HW268547   9.251  10.963   4.150  1.1346  0.6248 -1.0123
83519SOL     OW68548   7.044   0.906   3.722 -0.4240  0.4107 -0.8286
83519SOL    HW168549   7.033   0.821   3.765  1.1570  0.9796  0.8006
83519SOL    HW268550   7.089   0.885   3.640  0.0495 -0.3350 -0.3909
83520SOL     OW68551  11.729   8.673   0.400  0.3209 -0.0314 -0.3936
83520SOL    HW168552  11.666   8.652   0.469  1.8456 -0.0338  1.0681
83520SOL    HW268553  11.762   8.588   0.370  0.5652  0.0057 -0.2342
83521SOL     OW68554   1.715   9.210   4.497 -0.0731 -0.0153 -0.1020
83521SOL    HW168555   1.646   9.275   4.484  1.5323  1.7036 -0.6101
83521SOL    HW268556   1.789   9.244   4.446  0.7919 -2.3801 -0.5513
83522SOL     OW68557   5.720   6.363  11.312 -0.6779 -0.3853 -0.1207
83522SOL    HW168558   5.685   6.283  11.353 -0.0378 -0.1622  0.8946
83522SOL    HW268559   5.810   6.368  11.343 -1.0078  1.2659  0.6348
83523SOL     OW68560   7.505   7.545  12.423 -0.1134 -0.1864 -0.0319
83523SOL    HW168561   7.546   7.568  12.506 -0.5528  0.0632  0.1210
83523SOL    HW268562   7.418   7.514  12.447 -0.5817  0.7565 -0.4542
83524SOL     OW68563   9.770   0.031   0.092 -0.4345  0.5620  0.0250
83524SOL    HW168564   9.794  -0.058   0.066  0.3684  0.8011 -0.0962
83524SOL    HW268565   9.775   0.082   0.010  0.5676  1.0065  0.3505
83525SOL     OW68566   3.030  13.441  13.021  0.2404  0.0138  0.0227
83525SOL    HW168567   3.030  13.528  12.980 -0.5493  0.0377  0.0640
83525SOL    HW268568   3.013  13.380  12.949 -0.4984  0.0050  0.1947
83526SOL     OW68569   6.639  12.520   6.547 -0.2072 -0.3680  0.3540
83526SOL    HW168570   6.697  12.444   6.539  0.8121  0.4397 -0.1831
83526SOL    HW268571   6.564  12.488   6.597  1.3973 -1.0814  2.4410
83527SOL     OW68572   0.852   1.000   6.141  0.0140 -0.2974 -0.2983
83527SOL    HW168573   0.758   1.002   6.123  0.1024 -1.2748 -0.9272
83527SOL    HW268574   0.860   0.951   6.223  0.1431 -3.0108 -1.8092
83528SOL     OW68575   1.950   3.357   4.809  0.8900  0.2354  0.1873
83528SOL    HW168576   1.989   3.290   4.866 -0.3914 -0.0800  0.7357
83528SOL    HW268577   1.974   3.440   4.850  0.3754  0.0219  0.9407
83529SOL     OW68578   3.137   0.024   8.670  0.1406  0.4347 -0.1872
83529SOL    HW168579   3.197  -0.024   8.727  1.1474  0.4963 -1.1582
83529SOL    HW268580   3.132   0.112   8.708 -0.4095  0.0498  0.6587
83530SOL     OW68581   4.101  10.482  13.761  0.6718  0.3850  0.1605
83530SOL    HW168582   4.024  10.507  13.709  0.4929  0.7438  0.5905
83530SOL    HW268583   4.175  10.512  13.709  0.4804  1.2043  0.3463
83531SOL     OW68584  13.378  13.735   1.594 -0.1320  0.0462  0.0677
83531SOL    HW168585  13.400  13.678   1.521  0.7167 -0.8421  0.9917
83531SOL    HW268586  13.324  13.681   1.651 -0.1520  0.4853  0.4682
83532SOL     OW68587  12.088   0.180   6.389 -0.1543 -0.2746  0.0714
83532SOL    HW168588  12.166   0.129   6.414 -1.2266 -1.8875  0.2410
83532SOL    HW268589  12.058   0.219   6.471 -1.0825 -1.9158  0.5598
83533SOL     OW68590   3.453   6.398  13.075 -0.2168  0.0800 -0.0270
83533SOL    HW168591   3.525   6.454  13.046  0.3179 -1.6166 -2.2561
83533SOL    HW268592   3.374   6.452  13.061  0.4335  1.2046  0.4735
83534SOL     OW68593   1.932   5.202  10.378 -0.3449  0.0140  0.1165
83534SOL    HW168594   1.847   5.239  10.353  0.3924  0.7552 -1.4577
83534SOL    HW268595   1.976   5.274  10.424  0.3421  0.4804 -1.2272
83535SOL     OW68596   9.206   5.827  13.298  0.4839  0.1074 -0.4261
83535SOL    HW168597   9.234   5.910  13.336 -0.8357 -0.1760  1.2548
83535SOL    HW268598   9.126   5.849  13.250 -0.5837 -0.3494  1.0636
83536SOL     OW68599  14.131   3.873   5.708  0.1365  0.0167  0.4681
83536SOL    HW168600  14.053   3.817   5.708 -1.5777  2.2637  0.0316
83536SOL    HW268601  14.115   3.936   5.778  1.3298  0.8320  0.0300
83537SOL     OW68602   2.871  10.659  12.249 -0.8248  0.1008 -0.6920
83537SOL    HW168603   2.848  10.575  12.288 -0.9451 -0.3177 -1.6419
83537SOL    HW268604   2.788  10.698  12.224 -0.8695  1.0563  0.7939
83538SOL     OW68605  12.390  13.126   6.331  0.1367  0.4271 -0.1407
83538SOL    HW168606  12.392  13.048   6.275  3.2948  0.2864 -0.0058
83538SOL    HW268607  12.381  13.199   6.270 -0.5654  0.0925 -0.4531
83539SOL     OW68608  13.859   0.076   3.061 -0.1965 -0.3720 -0.3826
83539SOL    HW168609  13.826  -0.013   3.069  0.2791 -0.4555  0.7126
83539SOL    HW268610  13.789   0.131   3.097  0.1207 -0.4158  0.3038
83540SOL     OW68611  12.865   5.585   9.252  0.6262 -0.0074  0.2779
83540SOL    HW168612  12.778   5.545   9.249  0.6689 -0.1801  1.0775
83540SOL    HW268613  12.849   5.678   9.240  0.2398  0.0647  1.2519
83541SOL     OW68614  10.567   2.954   8.934  0.2086  0.5030 -0.0631
83541SOL    HW168615  10.658   2.980   8.916 -0.2570  2.9926  0.8547
83541SOL    HW268616  10.569   2.923   9.025  0.2501 -0.2327 -0.3023
83542SOL     OW68617   2.705  12.751   0.231  0.0100  0.1213  0.0260
83542SOL    HW168618   2.652  12.757   0.151  1.1835 -0.5579 -0.8354
83542SOL    HW268619   2.643  12.725   0.299 -0.5548 -1.9936 -1.2165
83543SOL     OW68620   7.008  13.970   4.633  0.2943  0.0816  0.0068
83543SOL    HW168621   7.070  13.918   4.684 -0.1376 -0.1430  0.3096
83543SOL    HW268622   7.024  13.944   4.542  0.2604 -0.3883  0.1320
83544SOL     OW68623  11.403   5.970   0.388 -0.2309 -0.0700  0.5934
83544SOL    HW168624  11.396   6.050   0.335 -0.5959  0.6434  1.6766
83544SOL    HW268625  11.447   5.907   0.330 -2.2266  0.0650 -1.1849
83545SOL     OW68626   1.680   8.707   6.392 -0.1233 -0.0256  0.3327
83545SOL    HW168627   1.626   8.705   6.313  0.9502 -2.4693 -0.4359
83545SOL    HW268628   1.765   8.740   6.362  0.1216 -0.4194  0.5915
83546SOL     OW68629   8.822   9.506   7.121  0.0973  0.0819 -0.1723
83546SOL    HW168630   8.838   9.583   7.068  0.4771 -0.1356 -0.3751
83546SOL    HW268631   8.803   9.540   7.208  2.3718  0.3375  0.2834
83547SOL     OW68632  11.482   7.608   5.160  0.3579 -0.0960 -0.2465
83547SOL    HW168633  11.569   7.642   5.140 -0.0816  0.9008 -0.5116
83547SOL    HW268634  11.439   7.601   5.075  0.4377 -1.3283 -0.1967
83548SOL     OW68635   6.762   6.772   2.975 -0.0346  0.5920  0.3970
83548SOL    HW168636   6.728   6.730   3.054 -2.2248 -0.0501 -0.7932
83548SOL    HW268637   6.697   6.839   2.953  1.6050  2.2065  0.2688
83549SOL     OW68638   6.499   6.483   1.119 -0.1277  0.1568 -0.1600
83549SOL    HW168639   6.451   6.441   1.190 -0.1301  1.2672  0.5214
83549SOL    HW268640   6.434   6.539   1.077  0.2484  0.6708 -0.0620
83550SOL     OW68641   1.234  10.516   2.355 -0.4497  0.4261  0.4972
83550SOL    HW168642   1.198  10.449   2.413 -0.5116  1.3046  1.5159
83550SOL    HW268643   1.281  10.575   2.414  0.1805  0.8975 -0.4654
83551SOL     OW68644  12.629   4.060  11.836 -0.2845  0.0791 -0.1479
83551SOL    HW168645  12.659   4.021  11.918  0.7218  0.7876 -0.1669
83551SOL    HW268646  12.671   4.008  11.768 -0.9324 -0.3598 -0.2232
83552SOL     OW68647   9.125  10.604  10.421 -0.3647  0.2957  0.1410
83552SOL    HW168648   9.116  10.690  10.460  0.5529  0.6086 -0.2960
83552SOL    HW268649   9.083  10.611  10.336 -3.5771 -0.7677  1.4835
83553SOL     OW68650  10.613  11.536   8.777 -1.0562 -0.2163 -0.2486
83553SOL    HW168651  10.596  11.621   8.736 -0.6695  0.1827  0.4144
83553SOL    HW268652  10.673  11.555   8.848  1.4151 -1.4225 -1.8736
83554SOL     OW68653   5.855   9.130   8.247  0.2019 -0.1814  0.3773
83554SOL    HW168654   5.802   9.062   8.290  0.4834  0.3055  1.5393
83554SOL    HW268655   5.943   9.118   8.283  0.6000 -0.1592 -0.5630
83555SOL     OW68656  11.359  13.465  10.025  0.4715 -0.6167  1.0294
83555SOL    HW168657  11.416  13.452  10.101  1.6481  1.1628  0.5408
83555SOL    HW268658  11.374  13.557  10.000 -0.0974 -1.0594 -1.1570
83556SOL     OW68659   1.206   8.475   0.970  0.3322  0.6064 -0.4427
83556SOL    HW168660   1.228   8.532   0.897  1.0353 -0.8176 -1.3831
83556SOL    HW268661   1.239   8.389   0.945 -1.7231 -0.5117  0.3868
83557SOL     OW68662  14.041   3.668   2.607 -0.5945 -0.7376  0.0713
83557SOL    HW168663  14.102   3.739   2.586  0.1770 -1.4231 -0.0795
83557SOL    HW268664  14.076   3.630   2.687 -0.2934 -1.6997 -0.4937
83558SOL     OW68665   0.574   8.153  11.727 -0.4272 -1.0856 -0.7383
83558SOL    HW168666   0.567   8.200  11.643 -1.0230 -0.7378 -0.5014
83558SOL    HW268667   0.524   8.073  11.713  1.0243 -1.9276 -1.3151
83559SOL     OW68668   6.429   3.155  14.072 -0.1691 -0.7770 -0.6620
83559SOL    HW168669   6.520   3.182  14.062 -0.3159  0.6573  1.3436
83559SOL    HW268670   6.424   3.119  14.161 -1.8265  0.4693 -0.2040
83560SOL     OW68671   1.694  11.123   3.743 -0.4821  0.5164 -0.1234
83560SOL    HW168672   1.752  11.196   3.722 -1.2016  0.7559 -1.4083
83560SOL    HW268673   1.691  11.121   3.839  1.2329  0.8047 -0.0340
83561SOL     OW68674   7.700   2.161   3.999 -0.1660 -0.3507  0.2591
83561SOL    HW168675   7.606   2.146   3.988 -1.2471  2.8688  3.3495
83561SOL    HW268676   7.738   2.073   3.997 -3.3548 -1.8906 -0.0306
83562SOL     OW68677  13.734   3.023   9.916  0.4469  0.5224  0.1020
83562SOL    HW168678  13.671   2.992   9.851  1.3649  0.6680 -0.8908
83562SOL    HW268679  13.687   3.091   9.964 -0.6587 -0.4632  0.4426
83563SOL     OW68680  13.849  12.831   7.654 -0.1082  0.0622  0.6729
83563SOL    HW168681  13.806  12.746   7.641 -1.1313  0.8133 -1.4283
83563SOL    HW268682  13.942  12.814   7.640 -0.3891 -0.6181 -0.4989
83564SOL     OW68683  12.907  12.569  12.701 -0.2256  0.3210 -0.3562
83564SOL    HW168684  12.983  12.514  12.720 -0.2156  0.0856 -1.0271
83564SOL    HW268685  12.910  12.581  12.606 -0.7167  0.7670 -0.3170
83565SOL     OW68686   1.737  12.599   1.835 -0.0288  0.3577 -0.6507
83565SOL    HW168687   1.773  12.650   1.763  1.5252 -0.8753 -0.8266
83565SOL    HW268688   1.644  12.619   1.836  0.2879  2.0182 -1.6322
83566SOL     OW68689   7.482   4.521  12.108  0.3568  0.4354  0.5935
83566SOL    HW168690   7.466   4.427  12.119  0.8543 -0.1236 -2.6378
83566SOL    HW268691   7.394   4.559  12.099  0.1337 -0.6229 -3.4351
83567SOL     OW68692   9.812   5.254   7.839  0.1656 -0.0846 -0.0765
83567SOL    HW168693   9.798   5.326   7.901 -0.6137  0.2910 -0.6675
83567SOL    HW268694   9.804   5.295   7.753 -0.3889 -0.8843 -0.4205
83568SOL     OW68695  12.586   8.303   0.006  0.4338 -0.3147  0.3233
83568SOL    HW168696  12.676   8.328   0.029 -0.0325 -0.2311  2.2184
83568SOL    HW268697  12.583   8.209   0.022  0.7571 -0.7450 -1.8681
83569SOL     OW68698   1.467   0.964  12.634 -0.0618  0.0179 -0.0786
83569SOL    HW168699   1.406   1.012  12.578 -0.6256 -2.3028 -1.5952
83569SOL    HW268700   1.491   0.886  12.583  2.0993 -0.4955  1.5634
83570SOL     OW68701   4.142   8.178  13.711  0.0285  0.6329 -0.0070
83570SOL    HW168702   4.161   8.126  13.788 -1.3709  1.4222  0.9063
83570SOL    HW268703   4.213   8.158  13.650  1.0820 -0.1062  1.4223
83571SOL     OW68704   8.841   6.533   3.759 -0.4923  0.3772  0.7912
83571SOL    HW168705   8.854   6.598   3.690  0.1876  0.9892  1.4765
83571SOL    HW268706   8.865   6.450   3.718  0.4535  0.8049  0.4535
83572SOL     OW68707  12.273   0.778  13.709  0.6030  0.0005  0.0198
83572SOL    HW168708  12.225   0.760  13.790 -0.6190 -2.5446 -1.1736
83572SOL    HW268709  12.361   0.746  13.725  0.1485 -1.2558  0.1145
83573SOL     OW68710  13.536   4.349   5.803  0.0790 -0.6471 -0.1201
83573SOL    HW168711  13.604   4.416   5.798  0.7862 -1.3213  0.3667
83573SOL    HW268712  13.480   4.377   5.875  1.0493 -1.1794  0.8715
83574SOL     OW68713  12.309   4.268   2.774 -0.6814 -0.2527  0.2416
83574SOL    HW168714  12.272   4.356   2.773  0.2530  0.1623 -0.7735
83574SOL    HW268715  12.280   4.229   2.691  1.3948  0.2338 -0.7938
83575SOL     OW68716   0.106   1.758   6.350 -0.0028  0.3042 -0.4358
83575SOL    HW168717   0.024   1.747   6.399  0.1557 -0.0756 -0.2516
83575SOL    HW268718   0.173   1.767   6.418  0.2298 -0.2965 -0.5798
83576SOL     OW68719  12.203  10.417   8.190 -0.1395  0.0341  0.4226
83576SOL    HW168720  12.209  10.322   8.190 -0.2312  0.0184  1.5313
83576SOL    HW268721  12.201  10.441   8.097  0.5244 -0.9983  0.1285
83577SOL     OW68722  10.042   8.506   5.767 -0.1196  0.6032  0.5048
83577SOL    HW168723   9.953   8.496   5.802 -0.6330  0.5485 -0.7552
83577SOL    HW268724  10.041   8.455   5.687  0.6272  1.7620 -0.2645
83578SOL     OW68725  13.598  12.230   7.848 -0.1669  0.1408 -0.0067
83578SOL    HW168726  13.529  12.285   7.811  0.3331 -0.1490 -1.4076
83578SOL    HW268727  13.624  12.276   7.928 -1.3293  0.7423  0.0489
83579SOL     OW68728   6.394   4.370   0.060 -0.0371  0.2157  0.2150
83579SOL    HW168729   6.466   4.423   0.025 -1.7873  2.6926  0.0845
83579SOL    HW268730   6.413   4.363   0.154  0.5178  0.5933  0.1362
83580SOL     OW68731   3.497   2.701   9.973 -0.3802 -0.1016  0.0193
83580SOL    HW168732   3.539   2.636  10.030 -0.1738 -0.1964 -0.2406
83580SOL    HW268733   3.429   2.652   9.927 -0.0287 -0.2042 -0.3981
83581SOL     OW68734  11.760   3.003   3.486  0.0576  0.4719 -0.7249
83581SOL    HW168735  11.748   3.096   3.506  1.6964  0.3906  0.9265
83581SOL    HW268736  11.745   2.996   3.392 -0.7957  2.2742 -0.7585
83582SOL     OW68737   7.159  10.759  12.332 -0.1482 -0.0318  0.1784
83582SOL    HW168738   7.135  10.674  12.297  1.2192  0.2470 -1.5560
83582SOL    HW268739   7.206  10.740  12.413  0.6297 -0.9621 -0.4845
83583SOL     OW68740   9.101  12.911   1.121 -0.8299 -0.7907  0.2318
83583SOL    HW168741   9.099  12.880   1.212  1.5880 -0.8694  0.3039
83583SOL    HW268742   9.102  13.006   1.128  0.4794 -0.7977  0.3658
83584SOL     OW68743   1.631   7.274  13.241  0.1771  0.5839 -0.1364
83584SOL    HW168744   1.638   7.315  13.155  1.0770 -1.2931 -1.0146
83584SOL    HW268745   1.545   7.302  13.274 -0.7832  0.2885 -2.2212
83585SOL     OW68746  12.251   6.403   3.014 -0.6767  0.2674  0.0329
83585SOL    HW168747  12.191   6.468   3.052  0.8268  0.7219  1.7432
83585SOL    HW268748  12.314   6.455   2.965  0.2389  0.0972  0.9921
83586SOL     OW68749   3.106  13.008   4.339  0.4006  0.2793  0.1057
83586SOL    HW168750   3.119  12.925   4.294  0.0799  0.5507 -0.4906
83586SOL    HW268751   3.129  13.074   4.274  0.2593  0.6699  0.4497
83587SOL     OW68752  10.385  13.495   6.534  0.0058  0.0817  0.1717
83587SOL    HW168753  10.302  13.446   6.538  0.5350 -0.7744  2.4957
83587SOL    HW268754  10.453  13.428   6.535  0.7445  0.8089 -0.0432
83588SOL     OW68755   2.525   3.088   6.835 -0.1394 -0.7150 -0.5226
83588SOL    HW168756   2.557   3.003   6.864 -0.9899 -0.5329  1.0470
83588SOL    HW268757   2.555   3.149   6.902  1.3479  0.4360 -2.1437
83589SOL     OW68758  12.745   5.396  13.166  0.1638  0.1612  0.0294
83589SOL    HW168759  12.785   5.312  13.190  0.9337  0.4287 -0.2845
83589SOL    HW268760  12.802   5.431  13.097  0.4521  1.4129  0.8566
83590SOL     OW68761   9.973   6.582  13.246 -0.4055  0.0623  0.0512
83590SOL    HW168762   9.945   6.493  13.269 -1.2854  0.8597  2.3259
83590SOL    HW268763  10.054   6.569  13.197 -1.2106 -2.0284 -0.8682
83591SOL     OW68764  14.004   0.513   6.984  0.0123  0.1923  0.1341
83591SOL    HW168765  13.935   0.499   6.920  0.1481 -0.1253  0.0542
83591SOL    HW268766  14.058   0.582   6.946  0.8194 -0.8705 -0.6991
83592SOL     OW68767  10.207   9.785   8.843  0.0646 -0.1585 -0.1547
83592SOL    HW168768  10.207   9.817   8.753 -0.7455 -0.3077 -0.2180
83592SOL    HW268769  10.290   9.740   8.853  0.3114  0.1606 -0.7208
83593SOL     OW68770   0.474   1.143  10.311 -0.7401 -0.1513  0.4686
83593SOL    HW168771   0.436   1.153  10.398 -1.6245 -2.0604  0.3561
83593SOL    HW268772   0.537   1.215  10.304 -2.2284  1.3799  1.7976
83594SOL     OW68773  12.108   2.045   0.116 -0.1531  0.6844 -0.1033
83594SOL    HW168774  12.012   2.036   0.120 -0.1071  0.7720  2.3837
83594SOL    HW268775  12.140   1.984   0.182  1.4271  1.9552  0.3332
83595SOL     OW68776  12.332   6.318  13.120  0.3475 -0.2543 -0.0665
83595SOL    HW168777  12.360   6.252  13.057  1.0656  0.2853 -0.3180
83595SOL    HW268778  12.409   6.334  13.174  0.8045  1.7835 -1.2358
83596SOL     OW68779   8.654   5.540  12.936 -0.0212 -0.4622  0.6227
83596SOL    HW168780   8.718   5.525  12.867 -1.2769 -1.5631 -0.3731
83596SOL    HW268781   8.694   5.503  13.015  1.3705  0.6772  0.4886
83597SOL     OW68782   2.250  12.993   3.175  0.4470  0.1867 -0.5391
83597SOL    HW168783   2.184  12.949   3.121 -1.2055 -0.4192  1.8111
83597SOL    HW268784   2.309  12.923   3.203 -1.9419 -0.7609  2.8542
83598SOL     OW68785   1.045   6.014   7.114 -0.9647  0.7797  0.0032
83598SOL    HW168786   1.091   5.933   7.093 -0.3778  0.4595  2.2936
83598SOL    HW268787   0.953   5.994   7.098 -0.8471 -0.4309  0.7672
83599SOL     OW68788  11.153  10.495   4.443 -0.5797 -0.1562  0.0988
83599SOL    HW168789  11.183  10.440   4.515  2.1666 -0.4141 -1.1004
83599SOL    HW268790  11.219  10.564   4.436 -1.3738  0.5048 -1.4447
83600SOL     OW68791  14.129  10.903   1.451 -0.3886  0.6770 -0.5805
83600SOL    HW168792  14.102  10.873   1.537 -2.4984 -2.3794 -2.1186
83600SOL    HW268793  14.096  10.993   1.445 -1.7541  0.3339  1.1537
83601SOL     OW68794   8.710   6.655  11.266  0.1151  0.4449  0.2087
83601SOL    HW168795   8.796   6.655  11.308  0.1557  2.3067  0.2040
83601SOL    HW268796   8.648   6.657  11.339  0.0232 -1.0304  0.2157
83602SOL     OW68797  13.142   3.354   9.645  0.4641  0.2026 -0.0933
83602SOL    HW168798  13.056   3.339   9.684  1.6844  1.8548  3.5916
83602SOL    HW268799  13.127   3.421   9.578 -0.9768  1.4037  1.3663
83603SOL     OW68800  13.174   4.243   8.774  0.0380  0.1181  0.5463
83603SOL    HW168801  13.156   4.337   8.765  0.5871  0.2896  1.0922
83603SOL    HW268802  13.160   4.226   8.867 -0.8443 -0.5262  0.3044
83604SOL     OW68803  11.817   2.474  12.148 -0.4213 -0.0784  0.4798
83604SOL    HW168804  11.871   2.471  12.228 -0.3804 -0.9182  0.4329
83604SOL    HW268805  11.829   2.562  12.114  1.1723 -0.3330  0.3091
83605SOL     OW68806   6.029  10.219   3.065 -0.3510  0.2594  0.6822
83605SOL    HW168807   6.094  10.284   3.089  0.6664 -0.7151  0.6582
83605SOL    HW268808   6.017  10.230   2.971  0.4206 -0.1101  0.5338
83606SOL     OW68809   5.155   0.234   3.179  0.2377 -0.4449 -0.1575
83606SOL    HW168810   5.110   0.263   3.100  1.3166 -0.6211 -0.8560
83606SOL    HW268811   5.093   0.173   3.219 -0.8902  0.6757 -0.1211
83607SOL     OW68812   7.979   5.100   8.173 -0.1648 -0.2072 -0.0793
83607SOL    HW168813   7.944   5.038   8.237  1.4165 -0.6482  0.3828
83607SOL    HW268814   7.919   5.093   8.098 -0.4592 -1.7085  0.2765
83608SOL     OW68815   7.512   3.941   5.751 -0.0273  0.0716 -0.0595
83608SOL    HW168816   7.488   3.931   5.659 -1.0584  0.7728  0.1116
83608SOL    HW268817   7.573   4.015   5.752  1.0826 -0.8234 -0.3314
83609SOL     OW68818   1.253   8.785  11.262 -0.4979  0.5003  0.3977
83609SOL    HW168819   1.213   8.784  11.175 -1.0452 -2.4779  0.5715
83609SOL    HW268820   1.189   8.741  11.318  1.7763 -2.0380  1.2380
83610SOL     OW68821   0.745   1.493   2.929  0.0733 -0.2312  0.5294
83610SOL    HW168822   0.727   1.533   3.014 -0.6834 -0.2376  0.3837
83610SOL    HW268823   0.760   1.400   2.948  1.8365  0.0843  0.8684
83611SOL     OW68824   3.714   4.024   7.333 -0.2066 -0.3066  0.4857
83611SOL    HW168825   3.669   3.977   7.404 -0.3552 -0.7109  0.1281
83611SOL    HW268826   3.792   3.972   7.316 -0.5901 -0.6647 -0.2036
83612SOL     OW68827   2.424   9.914   8.759  0.1868  0.1353  0.1792
83612SOL    HW168828   2.415   9.832   8.807  2.1752  0.2166  0.8148
83612SOL    HW268829   2.394   9.981   8.821 -0.9123 -0.0513 -0.1378
83613SOL     OW68830   9.883   4.344  10.065  0.0096 -0.5699  0.2198
83613SOL    HW168831   9.884   4.357   9.970  0.7013 -1.0319  0.1583
83613SOL    HW268832   9.963   4.295  10.083 -2.5345 -5.2542  0.3668
83614SOL     OW68833  14.063   1.059   5.644 -0.2289  0.0578  0.6049
83614SOL    HW168834  14.158   1.071   5.631 -0.5636  2.5461  0.0155
83614SOL    HW268835  14.025   1.082   5.560 -1.3885 -1.3111  0.7191
83615SOL     OW68836  12.866   4.663  13.331 -0.4959  0.0458 -0.1357
83615SOL    HW168837  12.902   4.653  13.243 -3.3215  0.5268 -1.4585
83615SOL    HW268838  12.914   4.737  13.368  0.2977  0.2684 -1.5332
83616SOL     OW68839   5.841  10.139   0.253  0.2535  0.3274  0.1732
83616SOL    HW168840   5.829  10.189   0.172 -0.4197  0.3755  0.3037
83616SOL    HW268841   5.830  10.203   0.323 -0.2130  0.0751  0.3314
83617SOL     OW68842  12.555  13.523  14.035 -0.1045 -0.1850 -0.3626
83617SOL    HW168843  12.538  13.430  14.052 -0.4057 -0.0438  0.1345
83617SOL    HW268844  12.618  13.523  13.963 -0.4815 -0.7647 -0.7031
83618SOL     OW68845   2.160  12.553   9.139  0.2446 -0.5822 -0.1228
83618SOL    HW168846   2.222  12.594   9.078  1.5053 -2.1700  0.0171
83618SOL    HW268847   2.098  12.507   9.082  1.1698 -1.7142 -0.2404
83619SOL     OW68848  10.885   1.488   1.470  0.0248 -0.2247 -0.7496
83619SOL    HW168849  10.891   1.465   1.563 -0.5578 -1.1427 -0.9274
83619SOL    HW268850  10.835   1.570   1.469  1.3116  0.6128 -0.1715
83620SOL     OW68851   8.335  13.189   5.096 -0.1838 -0.3325 -0.0600
83620SOL    HW168852   8.411  13.229   5.138  0.3667  0.2016 -1.4941
83620SOL    HW268853   8.286  13.262   5.058 -2.4241 -0.4698  2.3109
83621SOL     OW68854  10.660   5.568   4.399 -0.3354  0.5088 -0.0663
83621SOL    HW168855  10.744   5.609   4.417 -0.5732  0.5989  0.9061
83621SOL    HW268856  10.600   5.607   4.463 -0.6569 -1.0748  0.6466
83622SOL     OW68857   7.170  12.926  12.029 -0.5261  0.5179 -0.6934
83622SOL    HW168858   7.229  12.891  11.963 -1.3372  0.3254 -1.3406
83622SOL    HW268859   7.227  12.951  12.102  0.3570  0.4790 -1.3521
83623SOL     OW68860  10.463   0.102  12.296 -0.4961  0.2506  0.2116
83623SOL    HW168861  10.448   0.196  12.301  0.7698  0.4251  1.4156
83623SOL    HW268862  10.557   0.094  12.277  0.1845 -0.7075  3.3593
83624SOL     OW68863  12.768  11.797   8.636  0.0309 -1.0358 -0.1590
83624SOL    HW168864  12.818  11.863   8.683 -0.9687  0.2864 -0.8707
83624SOL    HW268865  12.803  11.800   8.547 -1.6984  0.4420 -0.8667
83625SOL     OW68866   7.285   6.649  12.699  0.0998 -0.1181  0.6423
83625SOL    HW168867   7.290   6.665  12.793  0.6675  1.5884  0.3566
83625SOL    HW268868   7.234   6.722  12.664 -0.1565 -0.7522 -0.3892
83626SOL     OW68869   6.810  12.269  12.958  0.1304 -0.4537 -0.2686
83626SOL    HW168870   6.889  12.256  12.906 -0.1326  1.0981 -1.1231
83626SOL    HW268871   6.842  12.289  13.046  0.6930  0.2067 -0.6166
83627SOL     OW68872   9.082   4.620   2.525  0.0340 -0.1746 -0.2269
83627SOL    HW168873   9.145   4.609   2.454  1.7949  0.4173  1.1872
83627SOL    HW268874   9.021   4.687   2.492  1.5851  1.0780 -0.7130
83628SOL     OW68875   8.398   4.030   0.467  0.2328  0.2070  0.3846
83628SOL    HW168876   8.391   4.003   0.375 -0.5503  1.5039  0.0332
83628SOL    HW268877   8.491   4.029   0.485  0.4087  0.0360 -0.4734
83629SOL     OW68878   9.624   8.097   9.003 -0.0484  0.4611  0.4914
83629SOL    HW168879   9.598   8.041   8.930 -1.0446  0.7153  0.6299
83629SOL    HW268880   9.671   8.170   8.962  0.0490  0.2262  0.1799
83630SOL     OW68881   8.498   0.466   6.021 -0.5332  0.1688  0.2769
83630SOL    HW168882   8.514   0.395   6.083  2.7470  0.4804 -0.0080
83630SOL    HW268883   8.454   0.425   5.947  1.8610 -1.8464 -0.1668
83631SOL     OW68884   4.792   2.060   8.190 -0.6504  0.1680 -0.2140
83631SOL    HW168885   4.886   2.041   8.191 -0.4574  1.0358  0.8375
83631SOL    HW268886   4.780   2.119   8.116 -0.4869 -0.4908 -0.7700
83632SOL     OW68887   2.454   0.256   1.315  0.4461 -0.1412  0.5127
83632SOL    HW168888   2.524   0.190   1.321  0.4596 -0.2705 -0.8533
83632SOL    HW268889   2.433   0.277   1.406  2.9402  0.6330  0.9729
83633SOL     OW68890  11.658   9.573   1.954  0.6770 -0.3549 -0.1615
83633SOL    HW168891  11.647   9.668   1.947  1.0030 -0.4119 -1.8352
83633SOL    HW268892  11.708   9.549   1.876 -0.6608 -2.0852 -0.5436
83634SOL     OW68893   0.142   9.948   3.803 -0.0896 -0.2168 -0.1244
83634SOL    HW168894   0.131   9.854   3.818 -0.6405 -0.3203 -1.0864
83634SOL    HW268895   0.156   9.985   3.890 -0.4854 -1.1079  0.3266
83635SOL     OW68896   6.485   9.518  12.131 -0.0704  0.0440 -0.8274
83635SOL    HW168897   6.559   9.473  12.170 -0.4463  1.8525  2.3489
83635SOL    HW268898   6.523   9.570  12.060  1.3534 -0.5432 -0.5199
83636SOL     OW68899   9.535   6.157   5.944  0.1728 -0.0112 -0.0041
83636SOL    HW168900   9.518   6.215   6.018 -0.9932 -1.7752  1.1773
83636SOL    HW268901   9.626   6.176   5.919  0.1180  1.6398  0.9029
83637SOL     OW68902  12.788   2.226   1.132 -0.2619  0.3697  0.4292
83637SOL    HW168903  12.806   2.133   1.145 -0.1785  0.1276 -1.1326
83637SOL    HW268904  12.757   2.231   1.041 -1.0213  1.7675  0.7409
83638SOL     OW68905   4.343  13.192  13.987 -0.1940  0.4370 -0.1857
83638SOL    HW168906   4.392  13.113  13.964  3.0285  2.4220 -0.8169
83638SOL    HW268907   4.381  13.221  14.070 -2.2326  0.6836  0.7236
83639SOL     OW68908   8.222  10.872   7.706  0.1840 -0.0450  0.3189
83639SOL    HW168909   8.220  10.795   7.648  2.7135 -0.7298  1.0029
83639SOL    HW268910   8.246  10.945   7.649 -1.3354  0.0858 -0.1759
83640SOL     OW68911   1.827   4.673   0.307  0.6907  0.3089 -0.1092
83640SOL    HW168912   1.870   4.606   0.360  0.9121 -0.0676 -0.7552
83640SOL    HW268913   1.851   4.652   0.217 -1.4969 -0.4124 -0.5951
83641SOL     OW68914  12.802   9.835  13.026 -1.1514  0.0466  0.0459
83641SOL    HW168915  12.717   9.840  13.069  0.1302  1.8007  2.6338
83641SOL    HW268916  12.833   9.926  13.023  0.1306 -0.3861 -2.0042
83642SOL     OW68917   8.535  12.735  13.058  0.4929 -0.2811 -0.2694
83642SOL    HW168918   8.497  12.661  13.106  1.5539 -0.9481 -0.4264
83642SOL    HW268919   8.489  12.812  13.092  0.1457 -0.9022  0.7046
83643SOL     OW68920  13.895   4.205  10.054 -0.0277 -0.0453 -0.2301
83643SOL    HW168921  13.953   4.218  10.130 -0.1911  0.4449 -0.1814
83643SOL    HW268922  13.812   4.176  10.092 -0.0714  0.0801 -0.2260
83644SOL     OW68923  11.392   5.426   6.001  0.3003 -0.2810  0.5898
83644SOL    HW168924  11.459   5.376   5.955 -1.5262 -1.2720 -1.1741
83644SOL    HW268925  11.323   5.440   5.936 -0.8361  1.4547  2.0617
83645SOL     OW68926   0.397   5.660   1.978 -0.5488  0.0879  0.0026
83645SOL    HW168927   0.345   5.646   1.899  0.7791  1.0555 -1.0952
83645SOL    HW268928   0.486   5.634   1.953 -0.1432  0.2178  1.2511
83646SOL     OW68929   6.204   5.907   9.068 -0.2505  0.7233 -0.1222
83646SOL    HW168930   6.283   5.852   9.071 -1.4172 -1.0258 -0.0124
83646SOL    HW268931   6.183   5.923   9.160  1.1706  3.0854 -0.1331
83647SOL     OW68932   6.604   0.715  12.746  0.0050 -0.1850  0.0787
83647SOL    HW168933   6.559   0.632  12.734  0.4535 -0.6537  1.4970
83647SOL    HW268934   6.597   0.759  12.661 -0.2187 -1.6731 -0.6944
83648SOL     OW68935   9.954  10.046  11.753  0.0299  0.5630 -0.6638
83648SOL    HW168936   9.981  10.025  11.664 -1.0957  1.6244 -1.2824
83648SOL    HW268937   9.875  10.099  11.743 -1.1629 -0.7637  1.0190
83649SOL     OW68938   7.715   4.134   9.688 -0.0006  0.2166  0.4079
83649SOL    HW168939   7.717   4.041   9.711 -0.9436 -0.6945 -2.6405
83649SOL    HW268940   7.631   4.165   9.722  0.8285  0.3404  2.4827
83650SOL     OW68941   7.997  10.583   6.037  0.7787 -0.0436  0.0919
83650SOL    HW168942   7.905  10.558   6.039  0.3537  1.4356 -0.0763
83650SOL    HW268943   8.042  10.513   6.085 -0.1404 -1.8434 -1.5075
83651SOL     OW68944  12.891  11.204   2.717  0.3208 -0.0054  0.3794
83651SOL    HW168945  12.869  11.297   2.710  3.3959  0.8379  0.4660
83651SOL    HW268946  12.868  11.181   2.807 -0.3626  0.6953  0.3974
83652SOL     OW68947   5.190   7.685   9.034 -0.1896 -0.0121 -0.2912
83652SOL    HW168948   5.212   7.661   9.124 -1.4007 -0.9028 -0.2073
83652SOL    HW268949   5.095   7.677   9.030 -0.0464 -1.4936 -2.0657
83653SOL     OW68950  14.031   1.621   6.176  0.5561 -0.0673  0.1736
83653SOL    HW168951  14.019   1.527   6.192  0.5823  0.0310  0.7795
83653SOL    HW268952  13.963   1.663   6.229  1.4060  0.3244  0.9547
83654SOL     OW68953   3.689  10.842   9.109 -0.1753 -0.4697  0.2359
83654SOL    HW168954   3.608  10.848   9.160 -0.4344 -1.4815 -0.0261
83654SOL    HW268955   3.758  10.831   9.174  0.0149  2.1260  0.5763
83655SOL     OW68956   2.542   0.276  11.456  0.1289 -1.0202 -0.0019
83655SOL    HW168957   2.539   0.328  11.536  0.5921 -1.6107  0.3995
83655SOL    HW268958   2.617   0.218  11.467 -0.0730 -1.4206 -0.6713
83656SOL     OW68959  11.668   2.232  13.522 -0.2089 -0.2819  0.6699
83656SOL    HW168960  11.746   2.254  13.471 -0.4603 -0.1575  0.3333
83656SOL    HW268961  11.654   2.139  13.505 -0.2250 -0.2676  0.6059
83657SOL     OW68962   2.143  13.149   8.207 -0.1814 -0.3813  0.4363
83657SOL    HW168963   2.167  13.208   8.136  0.2146  0.7562  1.4815
83657SOL    HW268964   2.209  13.080   8.206 -0.3238 -0.5069 -0.4453
83658SOL     OW68965  12.651  10.146   9.395  0.5756 -0.3318 -0.4936
83658SOL    HW168966  12.650  10.063   9.441 -2.4263  0.5935  1.3696
83658SOL    HW268967  12.589  10.136   9.323  0.4984  0.1515 -0.5020
83659SOL     OW68968  13.995   1.591   6.833  0.4161  0.2174  0.1287
83659SOL    HW168969  14.041   1.511   6.857  0.6805 -0.1549 -1.4559
83659SOL    HW268970  14.057   1.661   6.851  1.4196 -0.2317 -1.4216
83660SOL     OW68971   5.596  13.110  12.937  0.1296 -0.0427  0.2291
83660SOL    HW168972   5.652  13.186  12.925  1.5141 -1.1144 -0.4179
83660SOL    HW268973   5.584  13.075  12.848  2.0608 -2.2685  0.7416
83661SOL     OW68974   8.314   1.261  11.258  0.1686  0.5936 -0.3724
83661SOL    HW168975   8.291   1.215  11.339  0.3433 -1.3799 -1.3900
83661SOL    HW268976   8.407   1.240  11.244 -0.5426 -1.6161 -2.5536
83662SOL     OW68977  13.177   6.791  11.867  0.0647 -0.3208 -0.0997
83662SOL    HW168978  13.219   6.716  11.908  2.7634  1.1496  0.0899
83662SOL    HW268979  13.106   6.815  11.926  0.0636 -1.8513  0.5560
83663SOL     OW68980  12.437  10.185   8.886  0.1306  0.1999  0.1660
83663SOL    HW168981  12.404  10.235   8.812  2.2190 -0.2410 -1.1424
83663SOL    HW268982  12.361  10.175   8.944 -1.8436 -0.2733 -2.3328
83664SOL     OW68983   5.326   4.483   9.820  0.2042 -0.5465  0.0436
83664SOL    HW168984   5.298   4.572   9.841 -1.8697 -1.2049  0.3249
83664SOL    HW268985   5.296   4.431   9.894 -0.3996 -1.7564 -1.0121
83665SOL     OW68986   1.057   7.763   8.664  0.2466  0.2855 -0.4476
83665SOL    HW168987   1.071   7.715   8.583 -0.2402 -0.6001 -0.0158
83665SOL    HW268988   0.967   7.744   8.689 -0.4503  2.5401 -0.9744
83666SOL     OW68989   6.288   1.120   0.511 -0.3572  0.5884 -0.2434
83666SOL    HW168990   6.194   1.129   0.493 -0.6154  1.5014  1.3145
83666SOL    HW268991   6.292   1.058   0.584  0.3034  0.1233 -0.6706
83667SOL     OW68992  12.593   6.395   5.633 -0.4403 -0.0381  0.1223
83667SOL    HW168993  12.647   6.473   5.626  1.5889 -1.3350  0.2653
83667SOL    HW268994  12.610   6.347   5.551 -1.0637 -0.6622  0.3462
83668SOL     OW68995  12.096  10.570   1.957  0.4687 -0.0336 -0.1397
83668SOL    HW168996  12.019  10.578   2.014  1.0293  1.4721  0.4446
83668SOL    HW268997  12.170  10.591   2.013  1.3065 -1.1477 -0.7817
83669SOL     OW68998   9.377   3.895  12.143 -0.2826  0.1350 -0.1652
83669SOL    HW168999   9.350   3.974  12.191  0.6543  0.0179  0.5978
83669SOL    HW269000   9.391   3.830  12.212 -1.8317 -0.9647 -0.8392
83670SOL     OW69001  10.540   4.000  13.584 -0.5689 -0.0835 -0.2116
83670SOL    HW169002  10.451   3.965  13.590 -1.4222  1.9522  0.0136
83670SOL    HW269003  10.597   3.926  13.602 -2.2557 -1.2366  0.5869
83671SOL     OW69004   2.426   5.442  11.731  0.5840 -0.3234  0.1348
83671SOL    HW169005   2.370   5.382  11.780 -2.1556  4.0689  2.9781
83671SOL    HW269006   2.485   5.480  11.796  1.5515  0.8624 -1.3432
83672SOL     OW69007  14.116   2.221   5.700 -0.2180  0.4290  0.8427
83672SOL    HW169008  14.034   2.260   5.671 -0.7345 -1.7805 -0.9317
83672SOL    HW269009  14.094   2.178   5.783 -1.4307 -1.6471 -0.4547
83673SOL     OW69010  12.798  10.403   0.995 -0.4018 -0.7411 -0.0467
83673SOL    HW169011  12.866  10.457   1.033 -2.4925  2.4368 -0.4335
83673SOL    HW269012  12.795  10.428   0.903 -1.1833 -1.8590 -0.3580
83674SOL     OW69013   1.564   8.929  10.472  0.0605  0.2000  0.6189
83674SOL    HW169014   1.553   9.023  10.480 -1.5082  0.1611 -0.6351
83674SOL    HW269015   1.477   8.896  10.451  0.3797 -1.6551  1.9876
83675SOL     OW69016   9.891  13.858   2.886  0.3379 -0.0018  0.1756
83675SOL    HW169017   9.907  13.794   2.955 -0.3722 -0.4656 -0.0769
83675SOL    HW269018   9.924  13.941   2.922  1.6420 -0.5789  0.3388
83676SOL     OW69019   3.803  11.832   0.336 -0.3803  0.3406  0.2623
83676SOL    HW169020   3.710  11.853   0.343 -0.4750  0.2249 -0.4927
83676SOL    HW269021   3.847  11.917   0.347 -0.6753  0.6943 -1.0374
83677SOL     OW69022  10.885   2.510  11.005  0.1668 -0.0244  0.2924
83677SOL    HW169023  10.940   2.437  11.032  0.4200 -0.1639 -0.5816
83677SOL    HW269024  10.908   2.581  11.066  0.6623 -0.3507  0.4928
83678SOL     OW69025  10.290   5.966   8.722  0.5900  0.0986 -0.0021
83678SOL    HW169026  10.250   6.015   8.793 -0.1162 -0.0034 -0.3132
83678SOL    HW269027  10.381   5.994   8.720  0.3530  0.8958  0.2508
83679SOL     OW69028   1.911   3.132  11.617  0.5310  0.5289  0.2996
83679SOL    HW169029   1.970   3.127  11.542 -1.8472  2.5696 -1.9352
83679SOL    HW269030   1.950   3.199  11.674  1.6924 -0.0737  0.2369
83680SOL     OW69031   0.095   4.111  13.616  0.1524 -0.1927 -0.2171
83680SOL    HW169032   0.040   4.190  13.613  0.7334  0.1973 -1.4347
83680SOL    HW269033   0.176   4.140  13.657  0.7579  0.1226 -1.5954
83681SOL     OW69034   9.369   2.669   5.291  0.0376 -0.2983  0.5642
83681SOL    HW169035   9.438   2.700   5.349  0.2749 -1.7188  1.0860
83681SOL    HW269036   9.367   2.734   5.220  2.4486 -0.5905  0.1114
83682SOL     OW69037  10.619  10.104   5.343  0.1496 -0.3215 -0.0600
83682SOL    HW169038  10.713  10.118   5.351 -0.0928  1.3825  0.1872
83682SOL    HW269039  10.587  10.104   5.433 -0.1396 -0.4163 -0.1612
83683SOL     OW69040   3.991  13.902   0.410  0.0489  0.1332 -0.3930
83683SOL    HW169041   3.950  13.915   0.496  1.8463 -0.1321  0.5638
83683SOL    HW269042   4.052  13.829   0.423  0.9262  0.5972 -1.6751
83684SOL     OW69043   7.227  11.672  10.193 -0.1389  0.7955 -0.1080
83684SOL    HW169044   7.221  11.587  10.237 -0.9851  1.1604  0.5085
83684SOL    HW269045   7.311  11.669  10.147  0.2152 -0.0699  0.5593
83685SOL     OW69046   6.420   4.982  11.504 -0.0642  0.3358 -0.2379
83685SOL    HW169047   6.456   4.924  11.571  2.5613  3.5374  1.4218
83685SOL    HW269048   6.480   4.973  11.429  0.7010  1.2334  0.2429
83686SOL     OW69049   7.370  12.074   4.671 -0.3671 -0.0379  0.0803
83686SOL    HW169050   7.331  12.000   4.626  0.8849 -1.7452  1.6298
83686SOL    HW269051   7.354  12.056   4.764  0.6226  1.2511  0.5290
83687SOL     OW69052   0.991   4.682   5.680  0.1096  0.1065 -0.3632
83687SOL    HW169053   0.980   4.764   5.728  2.2140  0.4189 -0.2973
83687SOL    HW269054   0.916   4.678   5.621  0.6462  2.8230 -1.4013
83688SOL     OW69055  12.940   1.986   9.977 -0.7524  0.0176 -0.4805
83688SOL    HW169056  12.879   1.983   9.904 -1.9378 -0.3698  0.4861
83688SOL    HW269057  12.911   1.916  10.035  1.0819 -0.6825 -0.3271
83689SOL     OW69058   8.268   9.925   0.239 -0.2414 -0.2414  0.0081
83689SOL    HW169059   8.310   9.956   0.320  0.4990 -1.4523  0.1219
83689SOL    HW269060   8.300   9.835   0.229  1.4286  0.5302 -2.7962
83690SOL     OW69061   4.184   5.136   7.154 -0.3692  0.1502 -0.3414
83690SOL    HW169062   4.225   5.082   7.221 -0.6070  0.1288 -0.2135
83690SOL    HW269063   4.196   5.226   7.184  0.1202  0.1770 -0.6071
83691SOL     OW69064   4.828   2.907   3.719  0.3468  0.0618  0.5355
83691SOL    HW169065   4.795   2.848   3.787 -2.2156 -0.5780 -1.1086
83691SOL    HW269066   4.884   2.852   3.664  0.8485  0.0770  1.0369
83692SOL     OW69067   7.419   6.930  10.774  0.3821 -0.1355  0.4175
83692SOL    HW169068   7.489   6.934  10.838  2.2314  0.8707 -1.5281
83692SOL    HW269069   7.444   6.859  10.715 -0.4494 -0.0446 -0.0568
83693SOL     OW69070   7.755  12.504   8.413 -0.3258 -0.2109  0.1569
83693SOL    HW169071   7.678  12.448   8.417 -0.5129  0.0940  3.4163
83693SOL    HW269072   7.822  12.456   8.462  1.0872  0.2236 -1.2915
83694SOL     OW69073  10.198  10.991   8.382 -0.0020 -0.4199 -0.3749
83694SOL    HW169074  10.112  10.990   8.425 -0.5865 -0.8027 -1.4907
83694SOL    HW269075  10.257  11.030   8.446 -0.9412 -0.4735  0.5521
83695SOL     OW69076   9.123   0.774  13.701 -0.5792  0.1211 -0.4319
83695SOL    HW169077   9.052   0.812  13.650 -1.6648  0.4045  1.2247
83695SOL    HW269078   9.190   0.753  13.636 -1.9937  0.2084 -1.9932
83696SOL     OW69079   6.344  12.243  11.875  0.0121  0.1528  0.3173
83696SOL    HW169080   6.344  12.197  11.960 -0.2420 -0.3044  0.0762
83696SOL    HW269081   6.287  12.318  11.888  1.5977  1.2543  1.1613
83697SOL     OW69082   9.260   9.752  13.535  0.1025  0.3729 -0.3590
83697SOL    HW169083   9.277   9.821  13.599 -2.1059 -0.1783  0.9023
83697SOL    HW269084   9.333   9.691  13.546  1.0375  1.5022 -0.1162
83698SOL     OW69085   6.601   2.660   2.943  0.2277 -0.0305  0.0984
83698SOL    HW169086   6.518   2.706   2.931  0.9236  1.2638  0.0212
83698SOL    HW269087   6.649   2.713   3.007  0.2608 -1.7916  1.5983
83699SOL     OW69088   3.936  10.668   4.911  0.5310  0.0220  0.1403
83699SOL    HW169089   3.860  10.613   4.926  0.6582 -0.0600  0.4977
83699SOL    HW269090   3.901  10.749   4.875  0.2964 -0.1016  0.0908
83700SOL     OW69091   4.447   9.668   7.342  0.3035  0.9560 -0.3184
83700SOL    HW169092   4.513   9.598   7.333 -1.1842 -0.2436 -3.0430
83700SOL    HW269093   4.438   9.679   7.436  2.7654 -0.3988  0.1879
83701SOL     OW69094   1.725  11.581   1.688  0.6444  0.9063 -0.2871
83701SOL    HW169095   1.659  11.541   1.631 -1.4122 -0.1308  2.5812
83701SOL    HW269096   1.802  11.525   1.678 -0.1620 -0.1210 -0.9406
83702SOL     OW69097   1.967  12.041   6.891 -0.0792 -0.4413 -0.0139
83702SOL    HW169098   1.983  12.111   6.828  0.2856  0.3656  0.9463
83702SOL    HW269099   1.994  11.961   6.845  5.3305  0.5540  0.7921
83703SOL     OW69100   7.060  12.191   1.832 -0.4445 -0.2340  0.1439
83703SOL    HW169101   7.036  12.133   1.905 -0.9925 -0.9305 -0.5679
83703SOL    HW269102   7.065  12.133   1.756  0.9670  0.3423 -0.2331
83704SOL     OW69103   8.239  11.510   6.563  0.1532 -0.2502  0.0017
83704SOL    HW169104   8.315  11.459   6.537  0.7476  0.7109 -0.1693
83704SOL    HW269105   8.251  11.526   6.657  1.8940  2.6749 -0.6072
83705SOL     OW69106  13.020  10.085   6.610 -0.8505 -0.1235  0.7295
83705SOL    HW169107  13.043  10.177   6.624  0.3217 -0.4594  1.1520
83705SOL    HW269108  12.938  10.087   6.562 -0.4103  1.1601  0.0001
83706SOL     OW69109   4.113   0.913   9.684  0.1702 -0.2662  0.2297
83706SOL    HW169110   4.097   0.848   9.752  0.7384  0.4399  1.0604
83706SOL    HW269111   4.077   0.874   9.604 -0.6835 -1.0279  0.9625
83707SOL     OW69112  13.187  10.901   4.368 -0.1363  0.5148  0.4223
83707SOL    HW169113  13.139  10.840   4.313 -0.6870  0.7802  0.5950
83707SOL    HW269114  13.275  10.904   4.331 -0.6397  1.1089 -0.7920
83708SOL     OW69115  13.798  13.658   7.275 -0.3570  0.1493  0.3588
83708SOL    HW169116  13.798  13.620   7.187  1.3101  2.1463 -0.5978
83708SOL    HW269117  13.741  13.734   7.268 -0.5673  0.0744  1.1618
83709SOL     OW69118   1.294  11.597   1.248  0.2926 -0.5524  0.4164
83709SOL    HW169119   1.365  11.620   1.307  0.5645 -1.9941  0.6973
83709SOL    HW269120   1.334  11.537   1.185 -0.0401  0.7530 -1.1278
83710SOL     OW69121   8.172   3.583  12.588  0.2262  0.8592  0.0281
83710SOL    HW169122   8.124   3.642  12.529 -2.1647 -1.3891 -0.4935
83710SOL    HW269123   8.147   3.612  12.676  0.2388  1.5060 -0.1735
83711SOL     OW69124   0.731   3.490   4.457  0.3672  0.0626 -0.6717
83711SOL    HW169125   0.648   3.449   4.432  0.2917  0.7774 -1.6340
83711SOL    HW269126   0.796   3.420   4.446 -0.0300 -0.3590 -0.3812
83712SOL     OW69127  12.253   4.641   2.158  0.8529 -0.1745 -0.3420
83712SOL    HW169128  12.324   4.681   2.208  0.2887  0.8238 -0.3102
83712SOL    HW269129  12.297   4.595   2.086  1.5506  0.1097 -0.1065
83713SOL     OW69130   0.246   8.945   4.584 -0.4130 -0.1977  0.3007
83713SOL    HW169131   0.212   8.875   4.528  2.6910 -1.8506  0.2577
83713SOL    HW269132   0.264   9.017   4.524  1.3721 -1.3631 -0.6364
83714SOL     OW69133  12.729   1.225   9.959 -0.5642  0.2711 -0.3281
83714SOL    HW169134  12.800   1.210   9.896 -0.9656 -1.1000 -0.4881
83714SOL    HW269135  12.761   1.187  10.041 -1.4827 -1.3584 -0.6627
83715SOL     OW69136  13.097   3.415   9.105 -0.3928 -0.1377  0.0006
83715SOL    HW169137  13.038   3.418   9.180 -1.5454  1.4913 -0.8954
83715SOL    HW269138  13.087   3.327   9.069  0.5414 -1.1017  1.9808
83716SOL     OW69139   1.354  11.552   0.173  0.0753 -0.4885  0.3734
83716SOL    HW169140   1.293  11.481   0.156  2.8703 -2.6872 -1.3356
83716SOL    HW269141   1.397  11.529   0.255  0.2461 -0.1845  0.3728
83717SOL     OW69142   3.708  10.013   9.460  0.1022  0.9032  0.1468
83717SOL    HW169143   3.740  10.064   9.386  2.0741 -0.6220 -0.1442
83717SOL    HW269144   3.625  10.054   9.484  0.3012  2.5422 -1.7406
83718SOL     OW69145   9.809  12.203  10.202 -0.4323 -0.5045  0.2863
83718SOL    HW169146   9.741  12.138  10.219  0.3253 -1.0618  1.2559
83718SOL    HW269147   9.764  12.287  10.209 -0.7461 -0.8063  2.4331
83719SOL     OW69148  11.922   6.496   3.629 -0.1452  0.2380 -0.3027
83719SOL    HW169149  11.830   6.513   3.645 -0.2944 -1.4503  1.0006
83719SOL    HW269150  11.945   6.551   3.555 -2.6774 -0.6548 -1.8684
83720SOL     OW69151   2.804   8.322   9.752 -0.1053 -1.1342  0.2311
83720SOL    HW169152   2.837   8.292   9.668  0.8019 -0.1884  0.2314
83720SOL    HW269153   2.723   8.368   9.730  1.7299  1.9798 -0.6250
83721SOL     OW69154   0.559   8.813   8.674  0.3020 -0.0176 -0.0574
83721SOL    HW169155   0.607   8.786   8.596  1.5712 -0.6558  0.9196
83721SOL    HW269156   0.593   8.758   8.744 -1.3739 -0.0147  0.8180
83722SOL     OW69157   8.485  13.818  10.476 -0.6035  0.3160  0.0429
83722SOL    HW169158   8.468  13.808  10.570  1.2015 -0.3755  0.3419
83722SOL    HW269159   8.413  13.873  10.444 -0.2754  2.1393  2.1852
83723SOL     OW69160   9.512   1.655   6.255  0.1805 -0.2698  0.6457
83723SOL    HW169161   9.502   1.574   6.305  0.4183 -1.4969 -1.2312
83723SOL    HW269162   9.495   1.631   6.164  3.0808  1.1197 -0.4079
83724SOL     OW69163   9.669   9.890   8.075  0.4137 -0.3519  0.4181
83724SOL    HW169164   9.646   9.858   7.988 -1.0470  0.4059  0.4835
83724SOL    HW269165   9.633   9.826   8.135 -1.8319  0.9274  0.5270
83725SOL     OW69166   7.819  11.853   5.519 -0.0757  0.1152  0.7283
83725SOL    HW169167   7.868  11.869   5.599 -1.5802  0.2385  1.6716
83725SOL    HW269168   7.748  11.794   5.545 -0.5486  0.0878 -0.5236
83726SOL     OW69169   3.295   1.872   3.096  0.2865  0.3141 -0.3791
83726SOL    HW169170   3.375   1.839   3.137 -0.3726  0.7225  1.3121
83726SOL    HW269171   3.317   1.961   3.069  0.7860 -0.0255 -1.1342
83727SOL     OW69172   1.069   7.883  13.337 -0.1404  0.4750 -0.0418
83727SOL    HW169173   1.102   7.931  13.413 -2.7019  1.1733  0.6995
83727SOL    HW269174   1.012   7.815  13.373 -0.2236 -0.1524 -1.2937
83728SOL     OW69175   1.855   8.331   0.454  0.2510  0.5408 -0.4661
83728SOL    HW169176   1.884   8.420   0.475  0.1035  1.1117 -2.4850
83728SOL    HW269177   1.794   8.342   0.382  0.9658 -1.2659 -1.4154
83729SOL     OW69178  10.270   0.445   2.253  0.1405  0.7562  0.0071
83729SOL    HW169179  10.186   0.486   2.236 -0.0222  0.6394  0.5148
83729SOL    HW269180  10.263   0.412   2.343 -0.4067 -1.9928 -0.9469
83730SOL     OW69181   6.440   8.353   9.632 -0.4296  0.2458  0.6407
83730SOL    HW169182   6.352   8.362   9.668 -0.3457  0.1590  0.8662
83730SOL    HW269183   6.464   8.262   9.648 -0.5773  0.0795 -0.0552
83731SOL     OW69184   2.851  10.145  13.228 -0.4034 -0.2418 -0.6612
83731SOL    HW169185   2.790  10.134  13.155  0.3867 -0.8082 -1.2556
83731SOL    HW269186   2.924  10.087  13.207 -0.6564 -1.2854  1.1373
83732SOL     OW69187   1.011   1.074   4.247  0.1353 -0.0888  0.1854
83732SOL    HW169188   1.040   1.047   4.334  2.4981  1.4815 -0.0335
83732SOL    HW269189   0.992   1.168   4.256 -0.5433 -0.1197 -0.7807
83733SOL     OW69190   4.756  13.826  12.837  0.2940 -0.0204 -0.1392
83733SOL    HW169191   4.745  13.920  12.826 -0.2739 -0.2364 -1.7118
83733SOL    HW269192   4.667  13.792  12.840  0.4837 -0.6715 -1.3880
83734SOL     OW69193  10.381   2.252   6.037  0.4643  0.4956  0.0050
83734SOL    HW169194  10.304   2.291   5.995 -0.9040 -1.0385  0.9999
83734SOL    HW269195  10.447   2.251   5.968 -0.8312  0.6213 -1.2868
83735SOL     OW69196  10.184   5.135   9.121  0.5025 -0.3007 -0.2570
83735SOL    HW169197  10.177   5.127   9.026  0.7444  2.1878 -0.5593
83735SOL    HW269198  10.094   5.146   9.152  0.5427  0.6091 -0.4314
83736SOL     OW69199   5.905   9.140  13.698 -0.1133 -0.0926 -0.3326
83736SOL    HW169200   5.974   9.114  13.759 -1.2800 -1.8561  0.3005
83736SOL    HW269201   5.853   9.061  13.685 -1.9738  1.1500 -0.8724
83737SOL     OW69202  11.442  13.033  13.137  0.2873 -0.2583  0.3770
83737SOL    HW169203  11.362  13.071  13.172  0.2482 -1.0580  1.1900
83737SOL    HW269204  11.488  13.106  13.095 -0.7266  0.2582  0.1525
83738SOL     OW69205  11.373   5.494   3.919 -0.0272  0.2678 -0.4614
83738SOL    HW169206  11.397   5.407   3.950  1.4078  0.5327 -0.7457
83738SOL    HW269207  11.367   5.547   3.999 -2.3351 -0.3819 -0.1560
83739SOL     OW69208   1.469  10.507   8.482  0.0435 -0.1339  0.2938
83739SOL    HW169209   1.418  10.431   8.455 -0.7769  0.1461  0.9731
83739SOL    HW269210   1.535  10.519   8.414 -1.0379 -0.2949 -0.8062
83740SOL     OW69211  12.910   7.448   3.467 -0.2817  0.6498 -0.0338
83740SOL    HW169212  12.846   7.410   3.527 -0.0183 -3.5707 -2.0141
83740SOL    HW269213  12.861   7.508   3.412 -1.8343 -0.0324  0.5694
83741SOL     OW69214   3.296   1.782   0.850 -0.5040  0.2178 -0.1696
83741SOL    HW169215   3.337   1.869   0.846 -0.3513  0.1263 -0.6365
83741SOL    HW269216   3.267   1.774   0.941 -0.6175  0.8037 -0.1472
83742SOL     OW69217   8.784   3.500   6.051  0.1981  0.0820 -0.5842
83742SOL    HW169218   8.811   3.449   5.974  1.5658  0.1694 -0.1743
83742SOL    HW269219   8.773   3.436   6.120  0.1319  0.1453 -0.5352
83743SOL     OW69220  12.385  13.573  12.390  0.3852  0.1274 -0.4915
83743SOL    HW169221  12.300  13.549  12.352  0.6374  0.1355 -1.0716
83743SOL    HW269222  12.420  13.639  12.330 -0.3953  2.1583  1.1515
83744SOL     OW69223   7.825   3.608  13.545  0.1577 -0.5687 -0.6368
83744SOL    HW169224   7.735   3.589  13.568  0.0142 -2.2560 -2.3465
83744SOL    HW269225   7.818   3.670  13.472  0.5009  1.5340  1.0314
83745SOL     OW69226  10.871   0.162   8.181  0.3236 -0.4387  0.2998
83745SOL    HW169227  10.875   0.235   8.119 -0.6354 -1.0006 -0.4505
83745SOL    HW269228  10.815   0.193   8.251 -1.2310 -0.8981 -0.6858
83746SOL     OW69229   4.842   9.336   6.092 -0.0848 -0.7168 -0.0254
83746SOL    HW169230   4.807   9.302   6.174  0.4698 -1.3602 -0.0538
83746SOL    HW269231   4.854   9.259   6.037 -0.2554 -0.3134 -0.6408
83747SOL     OW69232  12.588   8.544   0.236  0.5654  0.0974  0.2349
83747SOL    HW169233  12.594   8.621   0.179 -0.8600 -0.8127 -1.2300
83747SOL    HW269234  12.644   8.479   0.194 -0.2538 -0.4803  0.0195
83748SOL     OW69235  11.930   6.129   9.480 -0.0762  0.2175  0.2925
83748SOL    HW169236  11.965   6.205   9.527 -1.5627 -0.4398  2.6278
83748SOL    HW269237  11.845   6.159   9.446 -0.9184 -0.4868  1.6871
83749SOL     OW69238  12.448  13.930   8.019 -0.1603 -0.1964 -0.0269
83749SOL    HW169239  12.434  13.865   8.088 -0.6235 -0.5725 -0.4615
83749SOL    HW269240  12.543  13.933   8.007 -0.0354  0.2772  0.9966
83750SOL     OW69241   6.642  13.579  12.003  0.4798 -0.2433  0.0656
83750SOL    HW169242   6.559  13.604  11.963 -0.0716 -0.4297  1.0479
83750SOL    HW269243   6.681  13.518  11.940  0.1043  0.2114 -0.6231
83751SOL     OW69244   6.646  12.391  11.902 -0.7184 -0.0018  0.1916
83751SOL    HW169245   6.617  12.352  11.820 -1.0119 -0.7006  0.6215
83751SOL    HW269246   6.714  12.333  11.935 -0.4034  0.4237  0.3131
83752SOL     OW69247  10.092  12.958   0.001 -0.7636 -0.5097 -0.2039
83752SOL    HW169248  10.104  12.936   0.094 -1.4838  0.6323  0.1780
83752SOL    HW269249  10.058  13.047   0.002 -1.1381 -0.6227 -1.5579
83753SOL     OW69250   1.529   2.259   1.240  0.0706 -0.2595  0.4628
83753SOL    HW169251   1.534   2.191   1.172 -0.1037 -2.1310  2.2030
83753SOL    HW269252   1.610   2.248   1.290  0.6300  1.7033  0.0545
83754SOL     OW69253  11.428   2.388   0.285  0.4114 -0.3264  0.1979
83754SOL    HW169254  11.372   2.332   0.339 -0.0040  0.4568  0.5939
83754SOL    HW269255  11.468   2.448   0.347  1.6614 -0.8345 -0.0899
83755SOL     OW69256  13.589   1.961  14.042 -0.2157  0.1450 -0.8284
83755SOL    HW169257  13.500   1.996  14.038 -0.7691 -1.1554 -0.6086
83755SOL    HW269258  13.609   1.939  13.951 -0.7712 -1.0360 -0.6894
83756SOL     OW69259   6.817   3.577  13.665  0.5829  0.6094 -1.2828
83756SOL    HW169260   6.768   3.564  13.583 -0.6337 -0.3422 -0.4377
83756SOL    HW269261   6.903   3.540  13.648  0.1956  0.0065 -1.9942
83757SOL     OW69262   5.203   1.161   7.578  0.0422 -0.2855 -0.4407
83757SOL    HW169263   5.297   1.144   7.582  0.3263  1.2559  0.4206
83757SOL    HW269264   5.172   1.148   7.667 -0.6975 -1.3520 -0.8342
83758SOL     OW69265   0.770   1.874   2.826  0.8162  0.2009  0.4709
83758SOL    HW169266   0.765   1.891   2.920  0.4122  1.2976  0.2608
83758SOL    HW269267   0.750   1.957   2.785 -0.2298 -0.5480 -0.6043
83759SOL     OW69268   1.155  12.906   3.539  0.4311 -0.2809  0.6345
83759SOL    HW169269   1.209  12.844   3.588  0.4912 -1.1043 -0.4337
83759SOL    HW269270   1.215  12.977   3.516  1.6917 -2.1545 -2.3199
83760SOL     OW69271   7.629  10.451   7.952  0.3580  0.1332 -0.3966
83760SOL    HW169272   7.678  10.485   8.027  2.4044 -1.4767 -0.9304
83760SOL    HW269273   7.554  10.407   7.992 -1.0202  2.9550  0.4087
83761SOL     OW69274   0.109   4.492   3.766 -0.2791  0.5672  0.0052
83761SOL    HW169275   0.014   4.498   3.755 -0.2503  0.5498 -0.2542
83761SOL    HW269276   0.132   4.408   3.727 -0.2442  0.2568  0.6711
83762SOL     OW69277   1.870   2.150   0.033  0.1766 -0.4131 -0.1335
83762SOL    HW169278   1.821   2.202   0.097  1.0427 -1.5901  1.5564
83762SOL    HW269279   1.960   2.180   0.042  0.2168 -0.0781 -1.3833
83763SOL     OW69280   7.800   5.288   1.170 -0.0807 -0.3270  0.0033
83763SOL    HW169281   7.793   5.243   1.255 -2.6123  1.3908  0.8150
83763SOL    HW269282   7.743   5.238   1.112  0.0125 -0.2851 -0.1254
83764SOL     OW69283  10.039   2.916  12.539 -0.2529 -0.5848  0.5923
83764SOL    HW169284  10.034   3.009  12.516  1.0677 -0.5617  0.3041
83764SOL    HW269285   9.992   2.872  12.468  0.2394 -0.2138  0.0220
83765SOL     OW69286   6.880  13.816   8.119 -0.1877  0.1484 -0.4889
83765SOL    HW169287   6.934  13.737   8.122  0.9467  0.9142  1.2096
83765SOL    HW269288   6.800  13.790   8.074  0.1866 -1.9260 -0.0278
83766SOL     OW69289   0.593  10.580   2.624  0.1041  0.2606  0.5002
83766SOL    HW169290   0.610  10.665   2.584  0.6561  0.6939  1.6373
83766SOL    HW269291   0.502  10.585   2.653  0.2445  0.6111  0.8949
83767SOL     OW69292   4.049   8.530   9.520 -0.6365  0.6840  0.4184
83767SOL    HW169293   4.091   8.490   9.444  0.2667  1.0681  0.7058
83767SOL    HW269294   3.974   8.577   9.483  0.7392  2.2628 -0.4863
83768SOL     OW69295   9.040  12.212   5.283  0.4663 -0.2062  0.0674
83768SOL    HW169296   9.105  12.145   5.302 -0.1072 -1.2190 -1.3794
83768SOL    HW269297   9.060  12.283   5.345  2.1282 -0.9991  0.4995
83769SOL     OW69298  13.891  14.032   5.486 -0.5171 -0.1872  0.4327
83769SOL    HW169299  13.847  14.005   5.406  0.1495  0.7073 -0.2512
83769SOL    HW269300  13.828  14.011   5.556 -0.7246 -1.8644 -0.1982
83770SOL     OW69301   8.309   3.034   8.720 -0.0593 -0.2176  0.2508
83770SOL    HW169302   8.284   3.075   8.803 -0.1101  0.1413  0.0601
83770SOL    HW269303   8.243   3.065   8.657  2.2241  2.9063 -0.8898
83771SOL     OW69304  12.674   4.791   4.274 -0.5288  0.3540  0.0936
83771SOL    HW169305  12.656   4.757   4.187 -2.0123 -0.5396  0.7207
83771SOL    HW269306  12.588   4.800   4.315  0.1701  0.2402  1.6514
83772SOL     OW69307   7.703   2.658   4.998  0.0685  0.1691  0.9581
83772SOL    HW169308   7.795   2.684   4.991  0.3800 -0.7144  1.5602
83772SOL    HW269309   7.659   2.733   5.037  0.9098 -0.0985  2.4843
83773SOL     OW69310   9.077  13.492   4.115 -0.2505 -0.6650 -0.2766
83773SOL    HW169311   9.152  13.518   4.169 -1.3744 -3.2341  2.8358
83773SOL    HW269312   9.023  13.571   4.110  1.2421  0.4077 -0.0627
83774SOL     OW69313   1.444   0.486   7.169  0.3803  0.3598  0.2258
83774SOL    HW169314   1.504   0.519   7.102  0.5328 -1.0897 -0.3939
83774SOL    HW269315   1.368   0.544   7.163  0.7585  0.7882 -0.5910
83775SOL     OW69316   4.866  10.481   5.870 -0.3736 -0.1451 -0.5031
83775SOL    HW169317   4.791  10.519   5.914  0.3300 -0.6217  1.1859
83775SOL    HW269318   4.935  10.547   5.878 -0.2418 -0.2338 -0.8893
83776SOL     OW69319  10.023   2.070  12.500  0.4756  0.8787 -0.3463
83776SOL    HW169320  10.062   2.004  12.442  1.5427  1.0143  0.1968
83776SOL    HW269321   9.999   2.021  12.578 -2.2431  0.4177 -1.3671
83777SOL     OW69322   4.477   5.916   4.799  0.2870 -0.7231 -0.1981
83777SOL    HW169323   4.457   5.830   4.835  1.5261 -0.4445  1.2622
83777SOL    HW269324   4.447   5.912   4.708 -1.3200 -2.0702  0.3446
83778SOL     OW69325  11.612   3.150   7.653 -0.9446  0.1580 -0.1149
83778SOL    HW169326  11.595   3.062   7.618 -3.4023  0.5586 -0.1292
83778SOL    HW269327  11.665   3.193   7.586 -0.7308 -0.9346 -0.6720
83779SOL     OW69328  12.736   2.295   3.032 -0.4655 -0.1750  0.3952
83779SOL    HW169329  12.822   2.309   2.991 -0.1339  1.2255  1.4995
83779SOL    HW269330  12.754   2.236   3.106 -0.6468 -0.7183  0.0134
83780SOL     OW69331   7.645   7.875  12.720  0.2669 -0.1551  0.3568
83780SOL    HW169332   7.721   7.846  12.669  0.4095  1.0949 -0.1753
83780SOL    HW269333   7.679   7.946  12.775 -0.7028  1.1056 -0.6092
83781SOL     OW69334  13.461   7.983   0.883 -0.1314  0.2786 -0.4678
83781SOL    HW169335  13.545   7.936   0.884 -0.0235  0.4714  0.4555
83781SOL    HW269336  13.404   7.930   0.939 -0.2692  0.7738 -0.1331
83782SOL     OW69337   9.107   5.916  12.009  0.4460 -0.2890 -0.3199
83782SOL    HW169338   9.037   5.873  11.959 -1.2132  0.7171  1.0006
83782SOL    HW269339   9.178   5.853  12.012 -0.8252 -1.7917 -0.8410
83783SOL     OW69340   4.924   5.364   0.000 -0.0698  0.1157  0.8270
83783SOL    HW169341   4.888   5.306  -0.066 -0.9421  0.9205  0.5772
83783SOL    HW269342   4.860   5.435   0.007 -0.2208 -0.1660  2.8463
83784SOL     OW69343   7.977  12.493   9.346  0.0426  0.4157 -0.0013
83784SOL    HW169344   7.988  12.561   9.279  0.5021  0.3580  0.0087
83784SOL    HW269345   8.034  12.522   9.418 -1.5188  1.2148  0.9646
83785SOL     OW69346   2.245   0.688   9.860 -0.0016 -0.4792 -0.6855
83785SOL    HW169347   2.153   0.681   9.837 -0.4459  1.7048  0.2169
83785SOL    HW269348   2.247   0.682   9.955  1.2605 -4.1611 -0.7909
83786SOL     OW69349  13.588  10.568  11.123  0.3257  0.2884  0.0736
83786SOL    HW169350  13.554  10.485  11.155 -0.0436  0.7718  0.9902
83786SOL    HW269351  13.549  10.578  11.036  0.9331 -0.8112 -0.3465
83787SOL     OW69352   9.961   8.725   7.057  0.3576 -0.3659  0.3413
83787SOL    HW169353   9.867   8.743   7.054  0.5134  0.3565 -1.3835
83787SOL    HW269354  10.003   8.810   7.039  1.3593 -0.6530  1.1720
83788SOL     OW69355  12.695   4.420   5.143 -0.6385  0.3817 -0.4182
83788SOL    HW169356  12.713   4.342   5.090  0.9649  0.2310  0.2739
83788SOL    HW269357  12.608   4.448   5.116 -0.0355  0.1343 -2.9061
83789SOL     OW69358   7.924   1.305   4.470  0.1284 -0.0898  0.4397
83789SOL    HW169359   7.984   1.337   4.538 -0.2327  1.0356  0.2427
83789SOL    HW269360   7.974   1.313   4.389  0.2587 -0.6463  0.4567
83790SOL     OW69361  12.526   0.246  12.573 -0.1825 -0.2193 -0.2321
83790SOL    HW169362  12.438   0.240  12.609 -0.7205  1.2904 -1.2252
83790SOL    HW269363  12.514   0.241  12.478  0.8075 -0.0892 -0.3785
83791SOL     OW69364   7.368   2.666  12.286 -0.3405  0.6635 -0.1183
83791SOL    HW169365   7.429   2.710  12.346 -0.6901 -0.8076  1.4132
83791SOL    HW269366   7.335   2.592  12.337 -1.9564  0.3194 -1.5910
83792SOL     OW69367   0.961   0.356  11.998 -0.1308 -0.1425  0.1119
83792SOL    HW169368   0.961   0.324  11.907  0.0550  0.0225  0.0541
83792SOL    HW269369   0.911   0.438  11.994 -1.4921 -0.9287  0.4396
83793SOL     OW69370   6.295   3.944   5.760 -0.2408  0.1756  0.4194
83793SOL    HW169371   6.271   4.015   5.700  0.3908  0.5124  0.5462
83793SOL    HW269372   6.384   3.920   5.734 -1.2586 -2.2103 -1.1560
83794SOL     OW69373  12.332  13.122  12.615 -0.0800 -0.2551  0.0091
83794SOL    HW169374  12.248  13.147  12.577  0.8053  2.6500 -0.3001
83794SOL    HW269375  12.393  13.190  12.585  1.7973 -0.7479  2.3703
83795SOL     OW69376   6.097   4.586   8.633 -0.5793  0.2805  0.2487
83795SOL    HW169377   6.124   4.495   8.647 -1.5056 -0.2068 -0.9597
83795SOL    HW269378   6.053   4.611   8.714 -0.5489 -0.4296  0.4890
83796SOL     OW69379   9.038   3.307   3.640  0.5734  0.3475 -0.1493
83796SOL    HW169380   9.003   3.226   3.603  0.1870  1.1459 -1.6387
83796SOL    HW269381   8.964   3.367   3.640  0.9728  0.8479  0.4748
83797SOL     OW69382  10.211   9.241   1.391 -0.1379  0.4142 -0.3075
83797SOL    HW169383  10.285   9.232   1.331 -0.3599 -0.6830 -0.4431
83797SOL    HW269384  10.190   9.151   1.417 -1.4291  0.7043 -0.2822
83798SOL     OW69385  13.917   6.680   6.384 -0.7002  0.2968  0.0737
83798SOL    HW169386  13.898   6.747   6.449 -2.1061 -1.9211  2.0952
83798SOL    HW269387  14.006   6.650   6.406  1.1142  3.1333 -2.5216
83799SOL     OW69388  12.912  12.524   9.046 -0.8278 -0.0827 -0.3936
83799SOL    HW169389  12.853  12.450   9.031 -0.6773 -0.6100  1.3820
83799SOL    HW269390  12.929  12.559   8.958 -1.7972 -1.4471 -1.1731
83800SOL     OW69391   1.605   5.715   5.061  0.0438 -0.0902  0.1312
83800SOL    HW169392   1.700   5.724   5.067  0.1260  1.0131 -1.9832
83800SOL    HW269393   1.571   5.784   5.118  0.5288  0.5323 -0.3195
83801SOL     OW69394   3.302  12.297   4.297  0.2938  0.4071 -0.6475
83801SOL    HW169395   3.220  12.315   4.343 -0.1111 -1.8993 -0.3394
83801SOL    HW269396   3.365  12.277   4.367  0.8183  0.9821 -0.9434
83802SOL     OW69397   2.931   8.136   0.497  0.3124  0.1119  0.6837
83802SOL    HW169398   3.009   8.082   0.508  1.4477  1.3360 -0.7705
83802SOL    HW269399   2.905   8.159   0.586  0.1583 -2.2374  1.3068
83803SOL     OW69400   3.487   7.704  12.269 -0.0180  0.0607 -0.2916
83803SOL    HW169401   3.474   7.795  12.297  0.0030  0.7574 -2.3687
83803SOL    HW269402   3.506   7.710  12.176 -0.9894 -2.1620 -0.7053
83804SOL     OW69403  10.206   2.631   4.392 -0.1483 -0.1703 -0.0871
83804SOL    HW169404  10.288   2.593   4.424 -0.3188 -1.0266 -0.6308
83804SOL    HW269405  10.232   2.687   4.320 -0.1537 -1.7226 -1.3563
83805SOL     OW69406  10.617   1.562   8.148 -0.2247  0.9576 -0.5236
83805SOL    HW169407  10.541   1.566   8.089 -0.0062  0.6435 -0.8368
83805SOL    HW269408  10.580   1.539   8.233 -0.3176 -1.2270 -1.0750
83806SOL     OW69409   7.248  12.359   2.644 -0.9565 -0.3694  0.4918
83806SOL    HW169410   7.242  12.322   2.732 -0.0703  1.4933  1.3979
83806SOL    HW269411   7.168  12.330   2.600 -0.3200 -3.3313  1.0563
83807SOL     OW69412  12.063   2.056   4.239 -0.2014 -0.0027  0.3955
83807SOL    HW169413  12.032   1.967   4.219 -1.7624  0.7986 -0.9754
83807SOL    HW269414  12.057   2.062   4.335 -0.5347 -1.2186  0.4733
83808SOL     OW69415   8.156  13.638  12.947  0.3384  0.1468 -0.2425
83808SOL    HW169416   8.078  13.584  12.936  0.0322  0.7185 -0.8937
83808SOL    HW269417   8.133  13.722  12.909  0.4024  1.1407  1.8000
83809SOL     OW69418   9.307  11.216   7.487  0.1506 -0.1574  0.2253
83809SOL    HW169419   9.381  11.175   7.442 -0.5410 -0.9934 -0.1940
83809SOL    HW269420   9.230  11.167   7.456 -0.5826  0.7068  0.6259
83810SOL     OW69421  12.254   9.437   9.671  0.8166  0.1354  0.6215
83810SOL    HW169422  12.238   9.344   9.684 -1.5152  0.5056  0.7730
83810SOL    HW269423  12.340   9.441   9.628  0.1133 -2.1742 -1.1823
83811SOL     OW69424   0.126   3.545  13.281 -0.0271  0.5339  0.5530
83811SOL    HW169425   0.132   3.464  13.333 -1.0181 -0.9381 -1.4892
83811SOL    HW269426   0.135   3.615  13.345  0.2186 -1.1787  2.5083
83812SOL     OW69427  10.719   3.141   4.460  0.3239 -0.0078  0.0405
83812SOL    HW169428  10.667   3.160   4.538 -0.0407  0.4773 -0.3147
83812SOL    HW269429  10.791   3.205   4.463  0.9903 -0.7572  0.5971
83813SOL     OW69430   4.039  10.278   6.644  0.2001 -0.3541 -0.3294
83813SOL    HW169431   4.104  10.231   6.591  0.1999  1.4699 -2.0768
83813SOL    HW269432   4.015  10.354   6.591 -1.3469  0.5007  1.4622
83814SOL     OW69433  10.170   5.069   2.138 -0.0540  0.0503  0.6963
83814SOL    HW169434  10.173   4.978   2.109 -0.1903  0.4188 -0.5229
83814SOL    HW269435  10.262   5.097   2.138 -0.1836  0.8131 -2.0413
83815SOL     OW69436   4.635  10.315   0.547  0.2378  0.2410 -0.5820
83815SOL    HW169437   4.650  10.278   0.460 -0.1006  0.2307 -0.6392
83815SOL    HW269438   4.539  10.312   0.557  0.2127  1.0665 -0.5732
83816SOL     OW69439   9.287   9.514   3.556  0.8081 -0.3397  0.6508
83816SOL    HW169440   9.259   9.546   3.642  0.0970 -0.0886  0.3300
83816SOL    HW269441   9.206   9.495   3.509  1.0598  1.9071 -0.8602
83817SOL     OW69442  13.633  12.704  12.657  0.5526 -0.3943  0.2216
83817SOL    HW169443  13.691  12.676  12.587  0.7352  0.2822  0.0962
83817SOL    HW269444  13.597  12.623  12.693  2.4012 -0.9108  1.0177
83818SOL     OW69445   0.314  12.795   4.562  0.2080 -0.1003  0.5125
83818SOL    HW169446   0.284  12.856   4.629  0.6053  0.7916 -0.1048
83818SOL    HW269447   0.248  12.725   4.563 -1.4436  1.3567 -0.1887
83819SOL     OW69448  10.262  12.214  13.072  0.0430  0.0234 -0.0300
83819SOL    HW169449  10.180  12.233  13.116 -0.9630  0.0958 -1.8346
83819SOL    HW269450  10.255  12.123  13.044  0.4743  0.1019 -0.4152
83820SOL     OW69451  12.462   3.564   3.617  0.3884  0.4746 -0.5781
83820SOL    HW169452  12.371   3.592   3.609 -1.3592 -4.2367 -0.2978
83820SOL    HW269453  12.478   3.560   3.711  0.9080  1.2108 -0.6251
83821SOL     OW69454   0.406   7.989   5.424  0.6610 -0.1872  0.0288
83821SOL    HW169455   0.481   8.020   5.372 -0.3658  0.9782 -0.8031
83821SOL    HW269456   0.370   7.917   5.373 -0.6258  1.2531 -1.1790
83822SOL     OW69457   9.825   7.403  13.694 -0.4054  0.4292  0.0728
83822SOL    HW169458   9.844   7.336  13.629  0.1685  0.1430  0.5195
83822SOL    HW269459   9.829   7.485  13.645 -0.9240  0.1595 -0.4376
83823SOL     OW69460   9.664  11.244   3.105  0.1246 -0.2845  0.0397
83823SOL    HW169461   9.747  11.274   3.142  0.0410 -1.3101  1.0902
83823SOL    HW269462   9.608  11.226   3.180 -2.1115  3.0579 -0.6153
83824SOL     OW69463   6.548   3.139  11.330  0.0301 -0.2205  0.2376
83824SOL    HW169464   6.571   3.124  11.422  0.1518  0.8786  0.4021
83824SOL    HW269465   6.452   3.145  11.331  0.1083  2.0573  0.7106
83825SOL     OW69466   9.332   8.886   6.113  0.3745  0.0993  0.3535
83825SOL    HW169467   9.249   8.924   6.143  0.4913  0.6408  0.0035
83825SOL    HW269468   9.388   8.887   6.191 -0.3995 -1.6269  0.9932
83826SOL     OW69469   1.361   0.752   5.927  0.2320  0.5756  0.3827
83826SOL    HW169470   1.350   0.795   6.012 -1.1824  0.8418  0.0908
83826SOL    HW269471   1.399   0.667   5.949  2.8807  1.7979  0.9851
83827SOL     OW69472  10.520   3.823   4.169 -0.5748  0.2174  0.0415
83827SOL    HW169473  10.554   3.737   4.145  1.3448  0.5210  1.4216
83827SOL    HW269474  10.566   3.884   4.112  0.9424  0.5933  1.5969
83828SOL     OW69475  11.467   9.100  13.979 -0.0752  0.2872 -0.4999
83828SOL    HW169476  11.448   9.162  13.909  0.9515  0.6876 -0.4455
83828SOL    HW269477  11.537   9.045  13.944 -0.3946 -0.2978 -0.2326
83829SOL     OW69478   8.785   5.173   1.174  0.1810 -0.1337  0.1581
83829SOL    HW169479   8.863   5.185   1.228  0.6502 -1.5096 -0.1786
83829SOL    HW269480   8.712   5.168   1.237  0.3098  1.3756  0.4600
83830SOL     OW69481   7.944   1.668  10.667 -0.2336  0.7059  0.2146
83830SOL    HW169482   7.855   1.632  10.663 -0.1098  0.4271 -0.0980
83830SOL    HW269483   7.941   1.745  10.611  0.0633 -0.0666 -0.8979
83831SOL     OW69484   4.966  12.310  12.894  0.3057  0.0782  0.1710
83831SOL    HW169485   4.911  12.311  12.816 -0.9832  0.2985  1.0564
83831SOL    HW269486   4.954  12.222  12.931 -0.1248  0.4192  0.8382
83832SOL     OW69487   8.492  13.550   7.113  0.3437 -0.5695  0.0966
83832SOL    HW169488   8.502  13.541   7.208  1.2711 -0.7910 -0.0046
83832SOL    HW269489   8.469  13.642   7.100  0.2430 -0.5288  0.5382
83833SOL     OW69490   8.337  11.608  11.052  0.0360 -0.1850  0.2476
83833SOL    HW169491   8.309  11.688  11.007  2.3910 -0.2569 -1.5665
83833SOL    HW269492   8.322  11.626  11.145 -0.3816  1.9776 -0.1829
83834SOL     OW69493   9.687   3.954   7.894  0.2670  0.2502  0.0005
83834SOL    HW169494   9.758   3.944   7.958  1.2480 -0.7957 -1.1820
83834SOL    HW269495   9.628   4.018   7.933  0.8944 -0.2419  1.8706
83835SOL     OW69496  10.763   1.112  12.399  0.7621 -0.4230 -0.1763
83835SOL    HW169497  10.676   1.150  12.390  0.6698 -0.2880  1.1194
83835SOL    HW269498  10.815   1.155  12.332 -0.0209 -0.0741 -0.5742
83836SOL     OW69499   2.100   7.847   6.306 -0.0416  0.4164  0.8773
83836SOL    HW169500   2.183   7.812   6.339 -0.7840 -0.1870  2.1464
83836SOL    HW269501   2.066   7.901   6.378  0.3143  2.5307 -0.4538
83837SOL     OW69502   0.129   9.080  11.941  0.4597  0.9041  0.2803
83837SOL    HW169503   0.088   9.163  11.914 -0.1798  1.0232  1.5469
83837SOL    HW269504   0.186   9.104  12.014  0.9168  0.3514  0.1064
83838SOL     OW69505   5.441   6.889   6.895 -0.4211  0.0639  0.4785
83838SOL    HW169506   5.399   6.972   6.917  0.2538  0.1666  1.4548
83838SOL    HW269507   5.532   6.912   6.874  0.1222 -0.5425  2.0199
83839SOL     OW69508  12.236  11.867   9.592  0.0462 -0.1916  0.2194
83839SOL    HW169509  12.303  11.847   9.658 -0.1579 -1.7334 -0.0097
83839SOL    HW269510  12.165  11.805   9.611  0.3950 -1.3696 -2.0300
83840SOL     OW69511  10.218   9.604   8.356 -0.5031 -0.0933  0.1978
83840SOL    HW169512  10.245   9.688   8.319 -0.4240  0.2884  1.0874
83840SOL    HW269513  10.122   9.606   8.353 -0.5024  0.0501  0.2696
83841SOL     OW69514  11.614  10.734   1.459 -0.3505  0.4430  0.2552
83841SOL    HW169515  11.691  10.779   1.495  0.1089  0.9160 -1.2467
83841SOL    HW269516  11.575  10.689   1.535  1.6694 -0.2256  0.9635
83842SOL     OW69517   2.774  10.357   6.110  0.2310  0.5170  0.1008
83842SOL    HW169518   2.804  10.432   6.058 -0.0543 -0.4391 -1.5187
83842SOL    HW269519   2.679  10.358   6.101  0.3031 -1.0526 -1.5191
83843SOL     OW69520   6.918   3.173   5.451  0.1994 -0.1469  0.4107
83843SOL    HW169521   6.992   3.227   5.476  0.8139  0.1030 -1.7764
83843SOL    HW269522   6.941   3.137   5.366 -1.7042 -0.9993  0.1891
83844SOL     OW69523  10.774   7.795   6.819  0.6136  0.3217 -0.4650
83844SOL    HW169524  10.757   7.882   6.855  0.5953  0.4122 -0.6936
83844SOL    HW269525  10.689   7.765   6.787  0.3329 -0.3456  0.8411
83845SOL     OW69526   5.124   2.485  11.771  0.3829 -0.4159  0.0444
83845SOL    HW169527   5.103   2.543  11.844 -0.2046  0.4303 -0.7632
83845SOL    HW269528   5.219   2.493  11.760  0.1421  1.6781 -1.0481
83846SOL     OW69529   4.017   9.247   7.720 -0.3194 -0.0443  0.9799
83846SOL    HW169530   4.039   9.304   7.794 -0.8758  0.5833  0.6677
83846SOL    HW269531   4.071   9.279   7.648 -0.5250 -0.0039  0.8430
83847SOL     OW69532   2.869   3.898   6.705  0.1397  0.1597 -0.3331
83847SOL    HW169533   2.811   3.902   6.781 -0.3478  0.0914 -0.6880
83847SOL    HW269534   2.923   3.976   6.711 -0.4379  0.5688 -0.3346
83848SOL     OW69535   6.827   3.023  12.289  0.3213  0.6013  0.1638
83848SOL    HW169536   6.861   3.053  12.373 -1.1071 -0.3119  1.1111
83848SOL    HW269537   6.734   3.047  12.290  0.0967 -0.1437 -0.8056
83849SOL     OW69538   3.616   6.614  12.947 -0.0420 -0.1050 -0.3977
83849SOL    HW169539   3.651   6.677  12.884  1.1475 -1.0704 -0.7171
83849SOL    HW269540   3.691   6.561  12.974 -0.4259  0.4601  2.1030
83850SOL     OW69541   2.946  12.148   3.144  0.0558  0.5119  0.2777
83850SOL    HW169542   2.960  12.064   3.187 -0.1357  0.4097  0.1439
83850SOL    HW269543   2.999  12.210   3.193  1.4238  0.0337 -0.5427
83851SOL     OW69544  11.167   8.309   6.149  0.1739  1.0161  0.0842
83851SOL    HW169545  11.146   8.345   6.063 -2.4410  3.5412  1.5782
83851SOL    HW269546  11.082   8.293   6.189  1.2955  0.4673  2.4124
83852SOL     OW69547   0.425  13.338   3.796 -0.1593  0.0469  0.2563
83852SOL    HW169548   0.471  13.276   3.740 -0.6949 -0.0378 -0.0996
83852SOL    HW269549   0.340  13.296   3.812  0.2365 -0.2595  1.6995
83853SOL     OW69550   5.919  10.658   2.243 -0.2385 -0.0809  0.1479
83853SOL    HW169551   5.902  10.739   2.196  0.0662  0.7459  1.4285
83853SOL    HW269552   5.832  10.619   2.256 -0.6524  1.2088  1.5381
83854SOL     OW69553   8.124   0.627   1.596  0.0488  0.1708  0.0089
83854SOL    HW169554   8.117   0.720   1.572 -1.1105 -0.2138 -1.2825
83854SOL    HW269555   8.184   0.590   1.531 -0.7475 -0.2860 -0.4821
83855SOL     OW69556   2.493   1.580   1.525 -0.5407 -0.4330 -0.1738
83855SOL    HW169557   2.438   1.507   1.551  0.6785 -1.4379 -0.3436
83855SOL    HW269558   2.533   1.553   1.442  1.0226 -0.1939  0.4615
83856SOL     OW69559   9.992   2.121   7.905 -0.1872  0.1684  0.0340
83856SOL    HW169560   9.904   2.136   7.871 -0.6787  0.1327  1.2474
83856SOL    HW269561   9.997   2.175   7.983  0.8382  0.0923  0.0271
83857SOL     OW69562   3.052  11.899   2.468 -0.0007  0.1522  0.1423
83857SOL    HW169563   3.053  11.811   2.505  3.6212 -0.6669 -1.4419
83857SOL    HW269564   3.098  11.952   2.532 -1.9280  0.9164  0.9595
83858SOL     OW69565   6.996   3.110   7.469  0.2547 -0.5148  0.6010
83858SOL    HW169566   7.030   3.177   7.409  1.3727 -0.9607  0.7032
83858SOL    HW269567   6.952   3.159   7.538  1.2049  0.1426  0.7687
83859SOL     OW69568   9.343  11.481   9.479  0.4881 -0.3320 -0.2494
83859SOL    HW169569   9.290  11.473   9.399  0.6533  0.3404 -0.4341
83859SOL    HW269570   9.368  11.392   9.501 -1.2492 -0.7559  0.1939
83860SOL     OW69571   6.329   7.951   5.742  0.0836  0.0365 -0.3341
83860SOL    HW169572   6.241   7.928   5.771  1.0531 -2.1045  1.1277
83860SOL    HW269573   6.340   8.042   5.771 -2.2604  1.0627 -2.2747
83861SOL     OW69574   9.384  12.453   0.527  0.4851  0.4002  0.3967
83861SOL    HW169575   9.400  12.361   0.549  2.7394  0.3604 -1.0403
83861SOL    HW269576   9.448  12.501   0.579 -0.0177  1.0567  0.4091
83862SOL     OW69577   6.277   8.279  11.470  0.0003 -0.1516  0.3193
83862SOL    HW169578   6.251   8.318  11.553 -0.4320  1.4317 -0.5119
83862SOL    HW269579   6.196   8.275  11.419  0.6986  1.6185 -1.0459
83863SOL     OW69580  11.645  10.463   0.173 -0.6014 -0.1267 -0.0986
83863SOL    HW169581  11.616  10.425   0.257  1.3999 -1.1264  0.1922
83863SOL    HW269582  11.635  10.557   0.185  1.0302 -0.1276  1.8730
83864SOL     OW69583   2.533  12.723  14.114  0.2951  0.4532  0.4111
83864SOL    HW169584   2.625  12.731  14.088 -0.2729  1.9767 -1.3633
83864SOL    HW269585   2.492  12.803  14.082 -1.5153  0.2188  1.9313
83865SOL     OW69586  12.710   2.557   5.613 -0.1392  0.2925 -0.3124
83865SOL    HW169587  12.729   2.474   5.568 -0.9025 -0.1728  0.1924
83865SOL    HW269588  12.766   2.621   5.569 -1.0751 -0.0626 -2.1610
83866SOL     OW69589   1.389  13.158   8.502 -0.1898 -0.3347 -0.5531
83866SOL    HW169590   1.329  13.084   8.490 -1.5426  0.6699 -0.3048
83866SOL    HW269591   1.471  13.130   8.463 -0.9974 -1.5558 -1.4350
83867SOL     OW69592  14.003   2.455   5.851 -0.2627  0.0297  0.2497
83867SOL    HW169593  13.924   2.496   5.885  0.5201  0.5665  1.5089
83867SOL    HW269594  14.043   2.522   5.795  0.0269  0.2906  0.7625
83868SOL     OW69595   1.758   3.054   2.085 -0.1452 -0.7560  0.6955
83868SOL    HW169596   1.738   3.111   2.010 -0.1445  0.3654  1.5263
83868SOL    HW269597   1.782   2.970   2.045 -0.3735 -0.2571 -0.5520
83869SOL     OW69598   9.755   7.266  12.601  0.5706 -0.7709  0.5898
83869SOL    HW169599   9.787   7.199  12.540 -0.6223 -0.3637 -0.5391
83869SOL    HW269600   9.721   7.216  12.676  0.0358 -1.4336 -0.0715
83870SOL     OW69601   5.035  13.671   4.189  0.2090  0.4309  0.2286
83870SOL    HW169602   5.041  13.674   4.285 -3.2388 -3.4758  0.8592
83870SOL    HW269603   4.943  13.690   4.170  0.8844  1.4965 -2.4221
83871SOL     OW69604   2.714   1.009   0.073  0.2118 -0.4577  0.7334
83871SOL    HW169605   2.695   0.976   0.161 -1.6239 -0.9964  0.1813
83871SOL    HW269606   2.713   0.931   0.017 -1.8654  0.1710 -0.2256
83872SOL     OW69607  12.345   1.177   4.024  0.0703  0.0321  0.4136
83872SOL    HW169608  12.311   1.127   4.098 -1.6665  1.4903  0.6951
83872SOL    HW269609  12.266   1.213   3.982  1.1576  1.5955 -0.4013
83873SOL     OW69610  12.914   3.453   6.869 -0.0691 -0.4780  0.1052
83873SOL    HW169611  12.957   3.519   6.924 -0.0608 -0.8406  0.5493
83873SOL    HW269612  12.848   3.501   6.820  0.4039 -0.0246 -0.0922
83874SOL     OW69613   3.778  13.715   8.597 -0.1842  0.7624  0.0431
83874SOL    HW169614   3.771  13.632   8.644 -1.6674  1.4231  1.0688
83874SOL    HW269615   3.693  13.725   8.554 -0.1619  1.8873  0.2257
83875SOL     OW69616   7.541  11.752  13.317  0.1589  0.1848 -0.6519
83875SOL    HW169617   7.490  11.698  13.377 -0.8008  0.9000 -0.7960
83875SOL    HW269618   7.535  11.705  13.233 -1.5535  0.9981 -1.0294
83876SOL     OW69619   4.338  11.970   2.590  0.2685  0.5881  0.1744
83876SOL    HW169620   4.302  12.037   2.532  4.3379  3.0958  0.1580
83876SOL    HW269621   4.392  11.916   2.534 -0.4411 -0.7612  0.7438
83877SOL     OW69622   8.550   4.934   8.719  0.2507 -0.1352  0.2447
83877SOL    HW169623   8.497   4.955   8.642 -0.5440 -0.1991  0.7602
83877SOL    HW269624   8.640   4.952   8.692  0.1540 -1.6621 -1.2061
83878SOL     OW69625  12.759   3.062   9.637  0.5433 -0.1537  0.5671
83878SOL    HW169626  12.679   3.018   9.607  0.5964  0.3446 -0.3426
83878SOL    HW269627  12.829   3.003   9.611  0.6925  0.8691 -1.5634
83879SOL     OW69628  10.880  12.898   5.378 -0.1857 -0.1719 -0.9501
83879SOL    HW169629  10.861  12.815   5.421  0.5543  0.3198  0.4118
83879SOL    HW269630  10.970  12.888   5.346  0.3621  0.4967  0.3018
83880SOL     OW69631   3.750  14.138  10.878  0.3053  0.2874  0.7519
83880SOL    HW169632   3.658  14.119  10.860  0.5087 -1.1327  1.0840
83880SOL    HW269633   3.789  14.053  10.894  2.2544  0.5669 -1.8656
83881SOL     OW69634   2.393   8.505   6.724  0.1875  0.6007 -0.5821
83881SOL    HW169635   2.300   8.504   6.745  0.1481  0.8051 -0.7502
83881SOL    HW269636   2.421   8.595   6.739  0.1962  0.7138 -1.2354
83882SOL     OW69637   0.193   0.915   2.545  0.5239 -0.2068 -1.0931
83882SOL    HW169638   0.101   0.897   2.526 -1.1009  3.0615  2.3722
83882SOL    HW269639   0.217   0.848   2.609 -0.2164  0.2166 -0.3490
83883SOL     OW69640   8.166  11.942   5.557  0.2177  0.4306  0.1336
83883SOL    HW169641   8.114  11.931   5.478 -1.8260  0.8244  1.3629
83883SOL    HW269642   8.204  12.030   5.548  0.9575  0.0386 -0.8864
83884SOL     OW69643   7.068   9.874   0.445  0.2900  0.3920 -0.6786
83884SOL    HW169644   7.157   9.862   0.478  1.2277  3.0668 -1.9316
83884SOL    HW269645   7.069   9.833   0.359  0.9566  2.0075 -1.4849
83885SOL     OW69646   8.911   0.909  11.375 -0.3804 -0.0810 -0.2287
83885SOL    HW169647   8.825   0.948  11.359 -1.1018 -2.0316 -1.4421
83885SOL    HW269648   8.944   0.888  11.288  0.6212 -0.8120  0.3189
83886SOL     OW69649   7.866   6.958  10.462 -0.1561  0.9474 -0.0470
83886SOL    HW169650   7.860   6.924  10.551  1.4206 -0.2567 -0.3424
83886SOL    HW269651   7.946   6.918  10.427 -1.3625  0.3917 -2.4088
83887SOL     OW69652  10.080  13.838   6.606  0.2580  0.4757 -0.3090
83887SOL    HW169653  10.075  13.818   6.700 -2.6630 -0.0547 -0.4867
83887SOL    HW269654  10.076  13.934   6.602  3.0223  0.6791  0.1297
83888SOL     OW69655   4.216  10.039   4.803 -0.1597 -0.0737  0.8516
83888SOL    HW169656   4.150  10.103   4.778  0.2172  0.3861  1.0088
83888SOL    HW269657   4.190  10.011   4.891  0.3761  0.8322  1.3206
83889SOL     OW69658  12.705   2.323   0.365  1.0096  0.2532  0.2187
83889SOL    HW169659  12.708   2.267   0.288  1.5644 -1.8660  1.6879
83889SOL    HW269660  12.711   2.412   0.331 -0.5641 -0.5050 -2.2786
83890SOL     OW69661   3.675   0.305   1.355 -0.0219 -0.0998 -0.0653
83890SOL    HW169662   3.732   0.355   1.413 -2.8385  0.2839  2.5867
83890SOL    HW269663   3.712   0.216   1.356  1.6725  0.5610 -0.1489
83891SOL     OW69664   7.530  11.378   5.438 -0.3819 -0.0884  0.3480
83891SOL    HW169665   7.560  11.306   5.382 -1.0734  0.7318 -1.1514
83891SOL    HW269666   7.611  11.422   5.465 -0.0569  0.0984 -0.8598
83892SOL     OW69667   0.852   7.461   7.011 -0.1153  0.9742 -0.0989
83892SOL    HW169668   0.835   7.551   6.982  0.4628  0.7465 -1.1733
83892SOL    HW269669   0.786   7.408   6.966  1.0390  0.5654 -1.3740
83893SOL     OW69670  11.906   1.615  12.620 -0.1488  0.0018  0.1801
83893SOL    HW169671  11.841   1.564  12.668  0.1900 -0.5637  0.0429
83893SOL    HW269672  11.877   1.706  12.631 -0.7770 -0.2159  0.3926
83894SOL     OW69673   3.484   0.412  12.551 -0.3815  0.1156 -0.6850
83894SOL    HW169674   3.478   0.339  12.489  0.5528 -0.2915 -0.3221
83894SOL    HW269675   3.419   0.475  12.520 -1.0652 -0.7758 -1.1291
83895SOL     OW69676   4.187  10.014   6.067 -0.9312 -0.1272 -0.3640
83895SOL    HW169677   4.247  10.049   6.001 -0.1932  1.0822  0.8966
83895SOL    HW269678   4.101  10.044   6.038 -0.9898 -1.7909 -2.1347
83896SOL     OW69679   2.440   1.066   4.466 -0.3970 -0.5856  0.3192
83896SOL    HW169680   2.520   1.039   4.510 -0.2832 -0.6347  0.0840
83896SOL    HW269681   2.407   0.985   4.425 -0.2800 -0.4548 -0.0325
83897SOL     OW69682   6.579   4.787   2.349 -0.7293  0.7292 -0.2055
83897SOL    HW169683   6.562   4.833   2.267 -2.2801 -0.1315 -0.4015
83897SOL    HW269684   6.532   4.838   2.415  1.4379  2.0701  0.3917
83898SOL     OW69685  12.876   8.943   0.105  0.3014 -0.3060  0.5751
83898SOL    HW169686  12.967   8.943   0.133  0.5173 -1.0675 -0.0831
83898SOL    HW269687  12.837   8.868   0.151  0.5814 -1.3704 -0.8642
83899SOL     OW69688   5.893  12.417   9.326 -0.0992  0.0052 -0.7124
83899SOL    HW169689   5.959  12.441   9.391 -0.2086  1.2672 -1.0295
83899SOL    HW269690   5.909  12.477   9.253 -0.6753 -0.6556 -1.3931
83900SOL     OW69691   5.792   0.300   9.550  0.5169 -0.6069 -0.1195
83900SOL    HW169692   5.703   0.299   9.586  0.6331  0.7403  0.2744
83900SOL    HW269693   5.847   0.322   9.625  1.0233 -0.1056 -0.6295
83901SOL     OW69694  10.826   6.706   9.701  0.3766  0.0352 -0.1768
83901SOL    HW169695  10.889   6.759   9.653  1.5420 -0.2029  1.0160
83901SOL    HW269696  10.740   6.733   9.668  0.9379  2.3620  0.0999
83902SOL     OW69697   0.793   0.514   8.432 -0.4545  0.3345  0.0215
83902SOL    HW169698   0.806   0.580   8.500 -0.4783  0.4723 -0.1061
83902SOL    HW269699   0.789   0.564   8.350  0.8644  0.0599 -0.2247
83903SOL     OW69700   4.652  10.165   1.651  0.0654  0.0591 -0.5589
83903SOL    HW169701   4.695  10.190   1.570 -0.0550 -0.1356 -0.6832
83903SOL    HW269702   4.668  10.071   1.659  1.9836  0.4352  0.7678
83904SOL     OW69703  11.070  13.321  14.096 -0.0040  0.1516 -0.1726
83904SOL    HW169704  11.102  13.327  14.186 -0.3350 -1.0794  0.0492
83904SOL    HW269705  11.138  13.271  14.050  0.5570  1.4608 -0.8241
83905SOL     OW69706  13.210  11.710   8.496  0.2676 -0.5746  0.2165
83905SOL    HW169707  13.233  11.795   8.460  1.4433 -0.7514  0.5249
83905SOL    HW269708  13.276  11.692   8.562  0.3720 -1.9725 -0.2233
83906SOL     OW69709   5.019  11.882   2.734 -0.5573  0.2548  0.3838
83906SOL    HW169710   4.967  11.801   2.727  0.5078 -0.6402  2.2918
83906SOL    HW269711   4.982  11.939   2.667 -0.2736 -2.3781 -2.2181
83907SOL     OW69712  12.720   4.321  10.557  0.2440 -0.5402  0.0726
83907SOL    HW169713  12.754   4.368  10.633  0.2496 -1.4557  0.6535
83907SOL    HW269714  12.692   4.236  10.592 -1.3483 -0.3379 -0.6463
83908SOL     OW69715   2.935   4.308  12.988  0.0298  0.0289  0.4764
83908SOL    HW169716   3.015   4.361  12.981 -0.7266  0.9752 -3.5560
83908SOL    HW269717   2.965   4.222  13.017  2.2762  0.7827  0.5558
83909SOL     OW69718   1.308  11.072   6.105  0.2263  0.6105  0.0123
83909SOL    HW169719   1.346  11.104   6.186  1.4390  1.1827 -0.7607
83909SOL    HW269720   1.338  11.133   6.038  0.7847 -0.8815 -1.1574
83910SOL     OW69721  14.022   0.646   1.716  0.2242  0.5376 -0.0074
83910SOL    HW169722  14.011   0.573   1.655 -0.2474  0.7173 -0.1501
83910SOL    HW269723  14.098   0.624   1.768 -0.2433 -0.3211  0.3266
83911SOL     OW69724   6.327   5.788   3.937  0.0203  0.4164  0.6204
83911SOL    HW169725   6.251   5.837   3.969  0.4882  1.3176  0.3908
83911SOL    HW269726   6.397   5.807   4.000  0.0568 -0.4444  0.8563
83912SOL     OW69727  12.406   6.729   1.667  0.0453  0.1284  0.2301
83912SOL    HW169728  12.377   6.675   1.740 -0.6068 -0.1140 -0.2036
83912SOL    HW269729  12.450   6.668   1.608  1.9808  0.5691  1.1308
83913SOL     OW69730  12.220   4.713   6.053  0.5015  0.0146 -0.1917
83913SOL    HW169731  12.294   4.670   6.011 -1.1837 -1.0212 -2.3064
83913SOL    HW269732  12.244   4.806   6.056  1.8899 -0.3050 -0.7326
83914SOL     OW69733   8.948  13.650  11.779 -0.2030  0.5393 -0.2681
83914SOL    HW169734   8.901  13.720  11.734 -0.5942 -0.3818 -1.3478
83914SOL    HW269735   8.947  13.577  11.717  1.2970 -0.0192  0.3197
83915SOL     OW69736   4.366   9.266   7.831 -0.1513  0.2111  0.3438
83915SOL    HW169737   4.367   9.230   7.742  1.8338 -1.0586  0.8149
83915SOL    HW269738   4.302   9.212   7.878  0.5568 -0.7136  0.2690
83916SOL     OW69739  11.007   1.317  12.443 -0.3178 -0.4925 -0.4723
83916SOL    HW169740  10.993   1.314  12.348  2.1083  1.4479 -1.0112
83916SOL    HW269741  11.067   1.245  12.460 -0.3153 -0.4993 -0.5094
83917SOL     OW69742  13.863   6.043   7.604 -0.1895  0.1580  0.2188
83917SOL    HW169743  13.901   6.130   7.615 -1.7106  0.7135  1.4207
83917SOL    HW269744  13.855   6.009   7.693  0.1102 -1.1080 -0.2208
83918SOL     OW69745  11.011   8.280   1.270 -0.1778 -0.0905  0.3304
83918SOL    HW169746  11.090   8.264   1.320  0.5013  0.8304 -0.4054
83918SOL    HW269747  10.939   8.256   1.329  0.5628  1.6448  2.0368
83919SOL     OW69748   0.345  13.483  13.115  0.1378  0.1591 -0.4634
83919SOL    HW169749   0.405  13.409  13.129  3.1684  2.4605 -0.2728
83919SOL    HW269750   0.395  13.543  13.060 -0.9728  3.4080  1.8277
83920SOL     OW69751   5.627  11.037  12.618 -0.3238  0.1154 -0.1319
83920SOL    HW169752   5.684  11.109  12.644 -0.2464  0.1609 -0.4295
83920SOL    HW269753   5.538  11.071  12.630 -0.2911  0.4385 -0.7550
83921SOL     OW69754   0.645  12.690  11.787  0.5361 -0.2493  0.6631
83921SOL    HW169755   0.572  12.630  11.773 -1.0537  1.7203  0.1500
83921SOL    HW269756   0.623  12.738  11.867  1.5459  0.0073  0.8061
83922SOL     OW69757   5.527   1.533   9.068  0.1294  0.4057 -0.1268
83922SOL    HW169758   5.447   1.549   9.118 -0.6962 -0.8627 -0.9746
83922SOL    HW269759   5.596   1.573   9.120 -1.0438  1.4746  0.6664
83923SOL     OW69760   0.023  12.472   7.387 -0.2112  0.0875 -0.4564
83923SOL    HW169761   0.071  12.423   7.455  0.6411 -0.0688 -1.1479
83923SOL    HW269762  -0.002  12.554   7.430  0.7487  0.2076 -0.0828
83924SOL     OW69763   7.553  10.398   4.396  0.0363 -0.3790 -0.3540
83924SOL    HW169764   7.504  10.423   4.318 -0.5341  1.3426  0.5090
83924SOL    HW269765   7.615  10.332   4.365 -1.4234 -1.0928 -1.8697
83925SOL     OW69766   8.373   7.123   1.332  0.0483  0.2680  0.3391
83925SOL    HW169767   8.288   7.139   1.373  0.5813  0.2282  1.5026
83925SOL    HW269768   8.361   7.040   1.284 -0.1114 -0.6618  1.9041
83926SOL     OW69769   3.090  14.053   4.018 -0.2793 -0.2355 -0.1748
83926SOL    HW169770   2.998  14.073   4.039  0.2087  1.3768  0.6353
83926SOL    HW269771   3.105  13.968   4.057 -1.6042 -0.8337 -0.8932
83927SOL     OW69772  13.125   4.646  11.903 -0.0512 -1.0334 -0.3435
83927SOL    HW169773  13.210   4.624  11.939  1.6298  2.0538 -1.9645
83927SOL    HW269774  13.121   4.599  11.819  2.2692  2.0831 -2.4523
83928SOL     OW69775   8.526   9.205   1.454 -1.0909 -0.1377  0.4977
83928SOL    HW169776   8.521   9.112   1.474 -2.6783  0.1327  1.4963
83928SOL    HW269777   8.567   9.244   1.531  0.6391 -0.1008 -0.3804
83929SOL     OW69778   0.782  12.649  13.826 -0.2606 -0.1357  0.1463
83929SOL    HW169779   0.808  12.691  13.744 -1.6645  0.4015 -0.0412
83929SOL    HW269780   0.707  12.700  13.857 -0.8570 -1.4051  0.8661
83930SOL     OW69781   9.544   6.030   6.845 -0.2065 -0.3402 -0.3181
83930SOL    HW169782   9.534   5.973   6.921 -0.3118 -0.1934 -0.2217
83930SOL    HW269783   9.629   6.006   6.808 -1.3402 -2.3962 -1.7947
83931SOL     OW69784  11.678   4.952   0.357  0.5344  0.7817  0.6793
83931SOL    HW169785  11.662   4.986   0.446  0.7962 -0.8361  1.3820
83931SOL    HW269786  11.671   4.857   0.367 -3.3665  0.5783 -1.7834
83932SOL     OW69787   5.106   5.288   1.981  0.9979 -0.1078  0.0727
83932SOL    HW169788   5.052   5.271   2.058 -0.8767 -3.4203 -1.7434
83932SOL    HW269789   5.164   5.212   1.975  0.9794 -0.0291 -1.8060
83933SOL     OW69790  11.565  10.235   8.616 -0.1377  0.8906  0.9945
83933SOL    HW169791  11.591  10.246   8.525 -0.7220  0.5109  0.7789
83933SOL    HW269792  11.502  10.162   8.615  1.6381 -0.7527  2.0203
83934SOL     OW69793   8.361  11.155  12.849  0.1246  0.0581 -0.1147
83934SOL    HW169794   8.410  11.116  12.922 -0.5478  0.2796  0.4618
83934SOL    HW269795   8.272  11.120  12.858  0.0906 -0.0950 -0.9678
83935SOL     OW69796  12.583   0.131  11.876  0.1155  0.6959 -0.3482
83935SOL    HW169797  12.494   0.143  11.909  0.2078  0.3478  0.0355
83935SOL    HW269798  12.639   0.175  11.940  0.3076 -0.1044  0.0481
83936SOL     OW69799  13.633   3.125  13.616 -0.3819  0.3673  0.1418
83936SOL    HW169800  13.655   3.131  13.709  0.1490  1.7965 -0.0498
83936SOL    HW269801  13.681   3.049  13.585 -2.6193 -1.7851  1.5482
83937SOL     OW69802  12.192   7.398  10.589 -0.3006 -0.6431  0.2996
83937SOL    HW169803  12.260   7.383  10.524 -1.1556 -1.1929 -0.4926
83937SOL    HW269804  12.129   7.455  10.545 -0.3684 -0.1460  1.0182
83938SOL     OW69805   6.593   2.114   2.516  0.1914 -0.3557  0.2531
83938SOL    HW169806   6.547   2.117   2.600  1.9454 -0.2406  1.2452
83938SOL    HW269807   6.681   2.085   2.538  1.3439  1.7424 -1.2570
83939SOL     OW69808   5.647   7.418   9.954  0.1417 -0.4546 -0.1208
83939SOL    HW169809   5.628   7.447  10.043 -0.9048  0.2292 -0.5532
83939SOL    HW269810   5.725   7.362   9.963 -0.1656 -0.6927  1.2587
83940SOL     OW69811   4.713  12.567   1.392 -0.1889 -0.0473 -0.2012
83940SOL    HW169812   4.664  12.582   1.473 -0.5815 -0.7630 -0.2915
83940SOL    HW269813   4.796  12.528   1.421  0.5665  1.6389 -0.0126
83941SOL     OW69814  12.156   8.342  12.610  0.1008  0.1047 -0.1629
83941SOL    HW169815  12.134   8.368  12.699  2.8497  0.7064  0.4122
83941SOL    HW269816  12.130   8.417  12.556  0.2206  0.5358  0.3742
83942SOL     OW69817   9.297   1.804  11.692  0.2299 -0.0721  0.0678
83942SOL    HW169818   9.253   1.751  11.758 -1.2548  0.6854 -0.2635
83942SOL    HW269819   9.346   1.740  11.639 -1.8664 -1.2497 -0.6138
83943SOL     OW69820   1.071   9.728   0.010 -0.2514 -0.1876  0.2265
83943SOL    HW169821   1.050   9.654   0.067 -0.8455 -2.5092 -2.6920
83943SOL    HW269822   1.156   9.705  -0.027  0.0869  1.1976  0.1285
83944SOL     OW69823   4.711   9.753   2.510  0.0040 -0.0467 -0.5275
83944SOL    HW169824   4.736   9.669   2.549 -0.9905 -0.3879 -0.6010
83944SOL    HW269825   4.667   9.730   2.429  0.6708  0.6003 -1.0894
83945SOL     OW69826   9.997   5.413  11.708 -0.0074 -0.5745 -0.2157
83945SOL    HW169827   9.928   5.452  11.762  0.6964 -1.2629  1.2615
83945SOL    HW269828   9.951   5.371  11.636 -1.1766 -1.1275  0.8071
83946SOL     OW69829   8.015  10.434   5.729  0.2622 -0.6212 -0.1189
83946SOL    HW169830   8.100  10.471   5.707  0.4469 -1.5419 -1.0295
83946SOL    HW269831   7.978  10.407   5.644 -0.5790 -0.9785  0.3479
83947SOL     OW69832   9.249  13.533  11.449  0.2491  0.0468  0.3163
83947SOL    HW169833   9.313  13.577  11.392  1.0938  0.7952  1.7688
83947SOL    HW269834   9.282  13.443  11.457  0.5671  0.1552  0.2507
83948SOL     OW69835   6.726   8.232   0.684  0.6958 -0.3403 -0.2726
83948SOL    HW169836   6.709   8.290   0.758  0.1221  0.5658 -1.0924
83948SOL    HW269837   6.640   8.205   0.653  0.9198 -0.5485 -0.7357
83949SOL     OW69838   4.615  10.231   2.060 -0.4949  0.5001  0.2500
83949SOL    HW169839   4.618  10.298   1.992  0.6757  0.3199  0.1084
83949SOL    HW269840   4.558  10.269   2.128 -0.9889  1.0296 -0.4423
83950SOL     OW69841   4.880  11.111   8.293  0.0024  0.1341  0.4228
83950SOL    HW169842   4.816  11.042   8.281 -0.3130  0.0127  2.3872
83950SOL    HW269843   4.892  11.149   8.206  0.8954 -2.9451 -0.9341
83951SOL     OW69844   0.979   5.246   0.687  0.4189  0.1166  0.4224
83951SOL    HW169845   1.008   5.333   0.715  2.8530 -0.2729 -0.6213
83951SOL    HW269846   1.013   5.186   0.753 -1.2638 -0.1079  1.1446
83952SOL     OW69847  10.497  13.787  12.450 -0.5061 -0.0014  0.6501
83952SOL    HW169848  10.591  13.806  12.454 -0.5277  0.5738 -0.8349
83952SOL    HW269849  10.458  13.866  12.413 -1.0422 -1.5528 -2.4043
83953SOL     OW69850   0.894   5.147   9.568  0.2426  0.3022 -0.2124
83953SOL    HW169851   0.931   5.066   9.533  0.5012  0.4178 -0.2121
83953SOL    HW269852   0.887   5.205   9.492 -0.2144  0.1810 -0.2640
83954SOL     OW69853   5.763   8.175  12.533  0.0764  0.0876  0.1998
83954SOL    HW169854   5.668   8.163  12.534  0.0799 -0.0116  1.4273
83954SOL    HW269855   5.785   8.193  12.625  1.2423  0.1339 -0.0784
83955SOL     OW69856   0.807   5.134   8.828  0.7885  1.0605 -0.6370
83955SOL    HW169857   0.770   5.166   8.746  0.4862 -0.5721 -1.1656
83955SOL    HW269858   0.899   5.118   8.808  0.5098 -0.2508 -0.9657
83956SOL     OW69859   9.402   6.910   5.859  0.2605 -0.1765  0.3155
83956SOL    HW169860   9.321   6.918   5.809 -0.2882 -1.8093  0.8736
83956SOL    HW269861   9.374   6.881   5.945  1.3924  0.0805  0.7874
83957SOL     OW69862   5.905   7.267  11.605 -0.5530 -0.1553 -0.3897
83957SOL    HW169863   5.871   7.295  11.690 -0.2499 -0.0893 -0.2912
83957SOL    HW269864   5.892   7.342  11.548  0.1709  0.1625 -0.1490
83958SOL     OW69865  11.608  10.984  12.635 -0.4006  0.4057  0.0208
83958SOL    HW169866  11.654  11.013  12.714  0.6313  2.4235 -1.2491
83958SOL    HW269867  11.554  10.911  12.665  2.7692 -1.4207  1.8665
83959SOL     OW69868   5.977  13.301  12.796 -0.7960  0.8807 -0.4736
83959SOL    HW169869   5.916  13.233  12.768 -0.3591  0.9584 -1.6821
83959SOL    HW269870   6.057  13.285  12.745 -0.4873  1.9478 -0.3666
83960SOL     OW69871  13.338   4.412   2.143 -0.2115  0.2276 -0.5049
83960SOL    HW169872  13.356   4.365   2.061  1.1587 -0.1150 -0.0440
83960SOL    HW269873  13.366   4.351   2.212  1.8522  1.7525  0.1018
83961SOL     OW69874  13.882   3.959   2.225  0.3765 -0.1748  0.2671
83961SOL    HW169875  13.895   4.034   2.283  0.5841 -0.3329  0.4244
83961SOL    HW269876  13.829   3.899   2.276 -1.0643  0.4890 -0.3838
83962SOL     OW69877  13.723   1.513   0.590  0.8638  0.0358 -0.4892
83962SOL    HW169878  13.728   1.448   0.519  0.2245  0.0374 -0.5425
83962SOL    HW269879  13.701   1.462   0.667 -0.1143  0.2361 -0.6218
83963SOL     OW69880   4.326  14.029  11.062 -0.4041 -0.0077 -0.1821
83963SOL    HW169881   4.328  13.979  11.144 -0.6001  0.6052  0.2087
83963SOL    HW269882   4.252  14.089  11.073 -1.2104 -0.7625 -1.3303
83964SOL     OW69883   1.661   7.565   5.167  0.1654 -0.6227  0.5169
83964SOL    HW169884   1.659   7.575   5.072 -1.6029 -1.8021  0.3733
83964SOL    HW269885   1.587   7.617   5.198  0.0711 -1.1217  1.1360
83965SOL     OW69886   1.285   4.072  12.826  0.7341  0.1311  0.3760
83965SOL    HW169887   1.276   4.160  12.861  1.4408 -0.3160  1.7688
83965SOL    HW269888   1.361   4.077  12.768 -0.1341  0.7630 -0.7353
83966SOL     OW69889   6.443   7.895   5.475 -0.2951 -0.4663  0.0692
83966SOL    HW169890   6.431   7.929   5.564 -3.3265 -0.2070 -0.3168
83966SOL    HW269891   6.534   7.866   5.472 -0.0946 -0.5198  3.2533
83967SOL     OW69892  10.597   1.448   5.930  0.2080  0.0544 -0.1527
83967SOL    HW169893  10.593   1.521   5.869 -0.6019 -0.8611 -1.2392
83967SOL    HW269894  10.507   1.414   5.934  0.5209 -0.7483  0.4945
83968SOL     OW69895   5.465   3.322   6.577 -0.4401 -0.3765 -0.0093
83968SOL    HW169896   5.515   3.376   6.515 -1.4082  0.0436 -0.4548
83968SOL    HW269897   5.474   3.233   6.543 -0.0927 -0.2906 -0.1497
83969SOL     OW69898   5.683   4.212   5.765 -0.4117 -0.1657  0.4294
83969SOL    HW169899   5.623   4.272   5.811 -1.1739 -0.2469 -0.4446
83969SOL    HW269900   5.691   4.248   5.677 -1.1807 -1.5501 -0.2304
83970SOL     OW69901   9.194   7.709   9.908  0.1164 -0.4202 -0.3138
83970SOL    HW169902   9.214   7.773   9.976 -2.2902 -1.6381  1.7024
83970SOL    HW269903   9.130   7.753   9.852  0.1429 -0.3012 -0.2526
83971SOL     OW69904   5.443  10.002   2.660  0.4528 -0.2260  0.1571
83971SOL    HW169905   5.463   9.956   2.579 -0.7332 -0.0042 -0.2737
83971SOL    HW269906   5.427  10.092   2.634 -0.2900 -0.2266  0.5785
83972SOL     OW69907  13.299  12.500  12.321 -0.0291 -0.0956  0.1212
83972SOL    HW169908  13.246  12.420  12.321  0.3077 -0.3207 -0.2895
83972SOL    HW269909  13.255  12.557  12.385  0.0048 -0.7884  0.7792
83973SOL     OW69910   1.027   5.633   6.182  0.4596  0.3737 -0.1197
83973SOL    HW169911   1.044   5.714   6.134  0.2406 -0.4544 -1.6690
83973SOL    HW269912   1.112   5.589   6.186  0.4037  0.2671 -0.0926
83974SOL     OW69913   2.496  11.812   1.799  0.9979  0.8031 -0.0838
83974SOL    HW169914   2.455  11.773   1.722  0.7951  1.6737 -0.4384
83974SOL    HW269915   2.440  11.786   1.872  2.2967 -1.7416  0.1292
83975SOL     OW69916  11.201   1.346   3.810  0.2885 -0.2185 -0.2393
83975SOL    HW169917  11.230   1.298   3.733 -2.2576 -1.2199 -0.6780
83975SOL    HW269918  11.110   1.318   3.823  1.0070 -1.3284  4.0425
83976SOL     OW69919   2.210   3.660   9.384 -0.1595  0.3777 -0.1556
83976SOL    HW169920   2.238   3.639   9.473 -1.7946 -0.3723  0.2216
83976SOL    HW269921   2.252   3.593   9.329  0.8560  0.8461  0.0397
83977SOL     OW69922   9.257   7.436   5.752 -0.5303  0.0973  0.0487
83977SOL    HW169923   9.205   7.515   5.736  1.3363  1.5557  0.8243
83977SOL    HW269924   9.293   7.414   5.666  1.0523  1.7008  0.2483
83978SOL     OW69925   4.654   3.634  12.318 -0.6049 -0.6751 -0.7692
83978SOL    HW169926   4.592   3.561  12.316  0.4376 -1.5686 -0.7101
83978SOL    HW269927   4.690   3.634  12.407 -1.4133  0.6329 -0.4040
83979SOL     OW69928   7.428   2.665  13.359 -0.3533  0.2076 -0.1430
83979SOL    HW169929   7.467   2.664  13.447  1.0529  0.7209 -0.7449
83979SOL    HW269930   7.384   2.580  13.352 -0.8004  0.2927  1.1800
83980SOL     OW69931   1.622  11.312   7.855 -0.6251 -0.5756  0.1152
83980SOL    HW169932   1.661  11.322   7.942  0.3618 -0.7314 -0.2907
83980SOL    HW269933   1.645  11.393   7.809 -1.4793 -0.3242  0.1208
83981SOL     OW69934   4.293   0.301  10.441  0.0199  0.0698 -0.3756
83981SOL    HW169935   4.374   0.263  10.474 -0.5499 -0.1965  0.7546
83981SOL    HW269936   4.322   0.367  10.377  1.1323  0.1994  0.2371
83982SOL     OW69937   9.353  11.476  11.802 -0.0955  0.1609  0.1820
83982SOL    HW169938   9.345  11.549  11.863 -0.0515  0.4178 -0.1144
83982SOL    HW269939   9.264  11.464  11.768  0.0044  0.4426 -0.1833
83983SOL     OW69940   3.956   0.783   4.524  0.1228 -0.2280  0.4534
83983SOL    HW169941   4.007   0.711   4.488 -1.3878 -2.7474  2.8689
83983SOL    HW269942   3.986   0.791   4.615 -2.1196 -0.2981  1.2785
83984SOL     OW69943   3.165   6.211   9.383  0.2309  0.3588  0.5357
83984SOL    HW169944   3.245   6.242   9.426  0.6691  0.5756 -0.4177
83984SOL    HW269945   3.128   6.289   9.342  0.7825 -0.1464 -0.9915
83985SOL     OW69946  13.867  14.001   8.799  0.3572  0.0959  0.0317
83985SOL    HW169947  13.922  13.972   8.726  0.4864  1.4465 -0.4419
83985SOL    HW269948  13.862  14.096   8.789 -0.0902  0.2538  1.4684
83986SOL     OW69949  10.018   0.383  13.439 -0.6274 -0.2506 -0.3625
83986SOL    HW169950  10.100   0.336  13.454  0.3747  1.4401 -0.2944
83986SOL    HW269951   9.950   0.317  13.454  0.6204 -1.1003  2.1759
83987SOL     OW69952   3.988  11.979   7.318  0.4946 -0.6924  0.0611
83987SOL    HW169953   4.062  12.029   7.352 -0.3303  0.7042 -0.1287
83987SOL    HW269954   3.927  11.974   7.391 -0.6106  0.9786 -0.6939
83988SOL     OW69955   6.501   2.120   0.683 -0.4549 -0.0695 -0.2314
83988SOL    HW169956   6.507   2.206   0.642 -2.2390 -0.3497 -1.1953
83988SOL    HW269957   6.438   2.132   0.755  0.6681 -0.1796  0.8057
83989SOL     OW69958  10.980   4.466   4.110 -0.0245  0.0241  0.8688
83989SOL    HW169959  11.052   4.417   4.070  0.0200  0.0386  0.9309
83989SOL    HW269960  10.908   4.458   4.047  0.0520  0.0640  0.7772
83990SOL     OW69961   7.930   0.528   1.801 -0.1359 -0.5119 -0.5733
83990SOL    HW169962   8.006   0.488   1.843  0.4346  0.1535 -0.9402
83990SOL    HW269963   7.960   0.547   1.711 -0.1127  1.3777 -0.2122
83991SOL     OW69964  12.563   2.780  12.076 -0.5882  0.6261 -0.2961
83991SOL    HW169965  12.475   2.788  12.113 -1.2155  1.4928 -1.8795
83991SOL    HW269966  12.578   2.863  12.030  1.0529  0.4773 -0.0919
83992SOL     OW69967   8.531   4.083   4.173  0.3057  0.7510 -0.7650
83992SOL    HW169968   8.552   4.028   4.098 -0.4052  2.5516 -2.3514
83992SOL    HW269969   8.565   4.170   4.150  1.4456  1.0325  1.6732
83993SOL     OW69970  11.989   9.130   2.521  0.2049 -0.1947  0.2123
83993SOL    HW169971  11.920   9.116   2.457  2.0135 -0.9633 -1.6771
83993SOL    HW269972  12.033   9.210   2.492  0.5395 -0.0677  1.0253
83994SOL     OW69973   9.016   5.267  10.681  0.2608 -0.5265 -0.2745
83994SOL    HW169974   8.920   5.267  10.690  0.2435 -2.0451 -0.2819
83994SOL    HW269975   9.048   5.261  10.771  0.4575  2.5466 -0.0170
83995SOL     OW69976   7.882  11.493   9.833 -0.5527  0.2999  0.1923
83995SOL    HW169977   7.824  11.469   9.906  1.2497  2.1744  2.4232
83995SOL    HW269978   7.823  11.510   9.760 -2.4004 -2.4538  0.8902
83996SOL     OW69979  12.446   7.674  12.814 -0.2294  0.0667 -0.2297
83996SOL    HW169980  12.405   7.752  12.852 -0.0575  0.1989 -0.3182
83996SOL    HW269981  12.377   7.607  12.818 -0.3085  0.1645  0.0367
83997SOL     OW69982   7.751   2.594  10.534  0.6484 -0.2129 -0.6009
83997SOL    HW169983   7.766   2.526  10.600 -0.6459  0.4095  0.3658
83997SOL    HW269984   7.669   2.570  10.493 -0.7694  1.6451  0.9649
83998SOL     OW69985  10.269   5.284   7.751 -0.3053 -0.5090 -0.0935
83998SOL    HW169986  10.222   5.366   7.741 -0.1623 -0.4050  0.0915
83998SOL    HW269987  10.220   5.235   7.816  0.8333  0.3349  1.4650
83999SOL     OW69988   2.011   5.322   5.335  0.8707 -0.3250  0.4523
83999SOL    HW169989   2.099   5.299   5.363  0.3352 -2.7657  0.3402
83999SOL    HW269990   1.953   5.268   5.388 -0.4376 -0.4320 -0.9894
84000SOL     OW69991  10.981  11.988  13.658  0.5041  0.4006  0.5285
84000SOL    HW169992  10.937  12.048  13.718  0.5263  0.9229  0.0270
84000SOL    HW269993  10.980  12.033  13.573  0.9107 -0.1136  0.2441
84001SOL     OW69994   2.105  11.643   6.545  0.0410 -0.7248  0.3970
84001SOL    HW169995   2.192  11.606   6.533  0.9808  0.6992  2.3949
84001SOL    HW269996   2.047  11.581   6.500  1.9540 -2.1726 -0.2304
84002SOL     OW69997   5.555   8.169   0.918  0.4616 -0.0486  0.3688
84002SOL    HW169998   5.462   8.157   0.899  0.2721 -0.2513  1.3973
84002SOL    HW269999   5.579   8.094   0.972  1.7783 -1.2099 -1.6872
84003SOL     OW70000   3.227  10.743   2.439 -0.6755  0.1120 -0.7294
84003SOL    HW170001   3.266  10.805   2.377  0.9269  0.2453  0.3558
84003SOL    HW270002   3.245  10.657   2.400 -0.5636  0.2276 -0.9368
84004SOL     OW70003  12.823  12.370   8.341  0.0562 -0.1648  0.3399
84004SOL    HW170004  12.832  12.416   8.257 -0.3366 -1.1648 -0.2736
84004SOL    HW270005  12.899  12.312   8.345 -0.3742 -0.7474  0.2563
84005SOL     OW70006   2.529   6.348   3.297 -0.2172 -0.3056 -0.2730
84005SOL    HW170007   2.482   6.340   3.380  0.1459 -0.5239 -0.0851
84005SOL    HW270008   2.463   6.380   3.235 -0.0717  1.6354  0.5071
84006SOL     OW70009   9.322  11.364  13.896 -0.2718  0.0499  0.4806
84006SOL    HW170010   9.257  11.342  13.963 -1.1862  0.1159 -0.3698
84006SOL    HW270011   9.355  11.450  13.922 -2.9145  1.5499 -0.8113
84007SOL     OW70012   0.053   6.148   4.021  0.2453  0.1472  0.4123
84007SOL    HW170013  -0.025   6.119   4.069  0.7446 -2.4192 -0.1461
84007SOL    HW270014   0.019   6.198   3.947 -0.8936 -0.7293  0.3174
84008SOL     OW70015   8.974   9.236  10.261 -0.4447 -0.1312  0.1212
84008SOL    HW170016   8.913   9.185  10.209 -1.1555 -0.8375  1.5865
84008SOL    HW270017   9.057   9.189  10.254  0.0708  0.9977 -2.1190
84009SOL     OW70018  12.504   5.406   9.782 -0.7741  0.4998 -0.7139
84009SOL    HW170019  12.551   5.343   9.836 -1.0521  1.7314  1.0142
84009SOL    HW270020  12.522   5.378   9.692 -0.3999 -1.6621 -0.0180
84010SOL     OW70021  13.871  13.962   8.206 -0.1319 -0.1463  0.5471
84010SOL    HW170022  13.818  14.041   8.192 -0.5947  0.5407  4.9534
84010SOL    HW270023  13.951  13.979   8.156 -1.7394  1.2527 -1.8052
84011SOL     OW70024  11.729   9.811  11.501 -0.4663 -0.3175  0.6162
84011SOL    HW170025  11.759   9.902  11.503  0.6257 -0.6502  0.5140
84011SOL    HW270026  11.778   9.769  11.572  1.1905 -1.4222 -1.0856
84012SOL     OW70027  14.083   5.711  11.545  0.1599 -0.7317  0.1436
84012SOL    HW170028  14.150   5.648  11.572  0.1654 -0.1927  1.4447
84012SOL    HW270029  14.067   5.764  11.623 -0.5060  0.2934 -0.6630
84013SOL     OW70030  11.456  13.435   2.033 -0.2707 -0.1591  0.3297
84013SOL    HW170031  11.493  13.349   2.012 -0.6341 -0.1598 -0.3479
84013SOL    HW270032  11.376  13.439   1.981 -1.7573 -0.5496  2.5067
84014SOL     OW70033   8.445  10.822  12.583  0.2660  0.1810 -0.1903
84014SOL    HW170034   8.451  10.739  12.630  0.4199  0.3387  0.0694
84014SOL    HW270035   8.352  10.831  12.563  0.0198  0.6622  1.0883
84015SOL     OW70036   5.163   3.783  13.439 -0.2738  0.3966  1.2190
84015SOL    HW170037   5.121   3.852  13.389 -0.1511  0.2717  0.9423
84015SOL    HW270038   5.229   3.828  13.491 -0.1704  0.4838  1.0119
84016SOL     OW70039   6.295   6.362  13.475 -0.0344 -0.2890  0.6403
84016SOL    HW170040   6.301   6.267  13.471 -1.1958 -0.3404 -0.8417
84016SOL    HW270041   6.211   6.379  13.517 -0.7636  0.0118 -0.8445
84017SOL     OW70042   2.985  13.780   6.565 -0.2400  0.4360 -0.1817
84017SOL    HW170043   3.031  13.847   6.616  0.2064  0.9554 -1.2342
84017SOL    HW270044   2.944  13.829   6.493 -0.9089 -0.2715 -0.2911
84018SOL     OW70045   7.717   9.880  12.821  0.1228  0.4123  0.1474
84018SOL    HW170046   7.793   9.858  12.766 -0.4188  0.3329 -0.5775
84018SOL    HW270047   7.683   9.795  12.850  0.8829  0.4723  1.2867
84019SOL     OW70048  10.908  13.381   1.579 -0.1002  0.3200  0.0111
84019SOL    HW170049  10.975  13.447   1.591 -0.7241  1.0435 -0.4089
84019SOL    HW270050  10.922  13.347   1.491 -0.4637  0.6772 -0.1849
84020SOL     OW70051  11.460   8.430  12.892  0.5348  0.1206 -0.1600
84020SOL    HW170052  11.416   8.435  12.977  0.5350 -0.7326 -0.1012
84020SOL    HW270053  11.395   8.393  12.833  0.5149  0.7694 -0.5561
84021SOL     OW70054   7.879   5.881   7.246 -0.2192  0.4612  0.3417
84021SOL    HW170055   7.911   5.951   7.188  1.1444  0.8570  1.5222
84021SOL    HW270056   7.840   5.817   7.186  1.5494  0.6355 -1.0951
84022SOL     OW70057   3.120   9.874   3.839 -0.2729  0.6813  0.8213
84022SOL    HW170058   3.154   9.805   3.782 -2.4137  0.6678 -0.5636
84022SOL    HW270059   3.050   9.832   3.888 -1.5734  1.8001  0.0020
84023SOL     OW70060   5.806   3.640   4.104 -0.7048 -0.0235 -0.7588
84023SOL    HW170061   5.838   3.720   4.145 -0.4158 -0.3126 -0.4100
84023SOL    HW270062   5.878   3.612   4.047 -0.4698 -0.4685 -0.2608
84024SOL     OW70063  11.682   2.562   9.269 -0.0993 -0.3370 -0.1067
84024SOL    HW170064  11.700   2.653   9.291  4.6290 -0.9683 -0.2974
84024SOL    HW270065  11.687   2.515   9.352  2.4791 -0.8788 -0.4758
84025SOL     OW70066  12.269   5.130  11.178  1.0626  0.0173 -0.4608
84025SOL    HW170067  12.342   5.159  11.123  0.2679 -1.1818 -2.2402
84025SOL    HW270068  12.238   5.050  11.137 -1.1721  0.4124  0.2988
84026SOL     OW70069  13.242   4.976   2.758  0.2489  0.1908  0.0806
84026SOL    HW170070  13.228   4.921   2.835 -1.5856  0.4316 -0.0305
84026SOL    HW270071  13.201   4.928   2.687 -1.5355  1.7159  0.0084
84027SOL     OW70072   4.693   0.519   2.926  0.7056  0.1560 -0.1297
84027SOL    HW170073   4.729   0.492   2.841 -1.1416 -1.9779 -0.3177
84027SOL    HW270074   4.613   0.567   2.905  0.7043  0.3949  0.3926
84028SOL     OW70075   0.252   1.279  13.075 -0.1495  0.1645 -0.5580
84028SOL    HW170076   0.266   1.286  13.169 -2.3217  0.5201 -0.2047
84028SOL    HW270077   0.236   1.186  13.060  0.4299  0.0731 -0.6219
84029SOL     OW70078  14.117   5.172  12.837 -0.0643 -0.0169 -0.5623
84029SOL    HW170079  14.188   5.222  12.795 -0.3903  0.1988 -0.8594
84029SOL    HW270080  14.138   5.081  12.818  1.4238 -0.1366  1.3434
84030SOL     OW70081   0.337   2.510   6.259 -0.0499 -0.2005  0.1526
84030SOL    HW170082   0.319   2.445   6.327 -2.2164 -0.7232 -0.8299
84030SOL    HW270083   0.402   2.468   6.202  0.1776 -0.6135  0.7057
84031SOL     OW70084   8.125  12.616   2.917  0.2108 -0.9512  0.4545
84031SOL    HW170085   8.203  12.667   2.899 -1.1388  1.8594  1.9092
84031SOL    HW270086   8.144  12.571   2.999  0.8286 -1.5794 -0.0171
84032SOL     OW70087   9.860   3.728   1.176 -0.1320  0.7442 -0.7607
84032SOL    HW170088   9.877   3.818   1.149 -0.2429  0.7235 -0.8977
84032SOL    HW270089   9.910   3.674   1.115 -0.2914  0.7025 -0.8548
84033SOL     OW70090   2.081   7.957  14.114  0.2472 -0.0811  0.7602
84033SOL    HW170091   2.166   8.000  14.109  0.5597 -0.6852  0.8391
84033SOL    HW270092   2.065   7.947  14.208 -0.2459  0.6742  0.7682
84034SOL     OW70093   1.433   1.393   4.331  0.1508 -0.3896  0.5475
84034SOL    HW170094   1.514   1.383   4.380  1.3677  1.7339 -0.8446
84034SOL    HW270095   1.454   1.363   4.242 -0.3234  0.8385 -0.0103
84035SOL     OW70096   3.101  11.635   1.838 -0.2533 -0.8655 -0.5922
84035SOL    HW170097   3.052  11.717   1.827  0.6653 -0.4511 -1.9069
84035SOL    HW270098   3.034  11.567   1.836 -0.9619 -0.1938 -0.3334
84036SOL     OW70099   5.403   2.362  11.708 -0.0133 -0.2424  0.8027
84036SOL    HW170100   5.340   2.346  11.639  0.4311  1.5617 -0.0755
84036SOL    HW270101   5.382   2.297  11.776  0.0576 -2.6521 -1.3055
84037SOL     OW70102   5.567   3.264   6.301  0.2770  0.2909  0.5465
84037SOL    HW170103   5.530   3.175   6.294 -0.0012  0.5241 -1.2441
84037SOL    HW270104   5.512   3.317   6.244 -0.1671  1.8550  2.3527
84038SOL     OW70105   8.596   9.245   8.861 -0.0023  0.1033  0.4415
84038SOL    HW170106   8.531   9.293   8.809 -0.2723 -1.5303 -0.8188
84038SOL    HW270107   8.671   9.235   8.803 -0.2411 -1.6077  0.3727
84039SOL     OW70108  13.122  12.094   1.177  0.2049  0.1313 -0.1625
84039SOL    HW170109  13.160  12.131   1.098 -0.9780 -0.6555 -1.1309
84039SOL    HW270110  13.097  12.005   1.153 -1.3939  0.3165  0.6835
84040SOL     OW70111   9.107  10.339   8.315 -0.4527 -0.0854  0.3407
84040SOL    HW170112   9.052  10.303   8.385 -0.3048 -0.6710  0.1600
84040SOL    HW270113   9.114  10.432   8.336 -1.4956 -0.0037  0.3817
84041SOL     OW70114   4.536   8.799   1.186 -0.7215 -0.2950 -0.2389
84041SOL    HW170115   4.513   8.708   1.207 -0.1957 -0.1628  0.9937
84041SOL    HW270116   4.554   8.798   1.092  1.7476 -2.0400  0.1601
84042SOL     OW70117   6.660  13.348   7.244  0.4993 -0.0534  0.2735
84042SOL    HW170118   6.610  13.337   7.326  0.8854 -2.1113  0.2799
84042SOL    HW270119   6.676  13.259   7.214  0.5674  0.6693 -1.9549
84043SOL     OW70120  13.773  11.485  11.238  0.6636  0.1052  0.1971
84043SOL    HW170121  13.770  11.460  11.331  2.4133  0.4357  0.3716
84043SOL    HW270122  13.857  11.451  11.207  0.9826  1.6847 -0.7525
84044SOL     OW70123   7.077   0.769   7.953 -0.6391 -0.5519 -0.3929
84044SOL    HW170124   7.049   0.859   7.970 -1.1341 -0.5851 -1.0180
84044SOL    HW270125   7.056   0.754   7.860 -3.2876 -2.2855  0.3747
84045SOL     OW70126  10.953   3.444   8.423  0.2605 -0.0590  0.0275
84045SOL    HW170127  10.884   3.426   8.359  2.2033 -0.3547 -2.1271
84045SOL    HW270128  10.922   3.521   8.471 -1.5104 -0.1378 -0.8963
84046SOL     OW70129  13.658  11.680   0.418  0.3142 -0.2965 -0.3223
84046SOL    HW170130  13.720  11.607   0.421  1.5876  0.7530 -0.1731
84046SOL    HW270131  13.702  11.746   0.366 -0.0918  1.0182  0.9501
84047SOL     OW70132   2.678  13.244   5.776 -0.1605 -0.1164 -0.1561
84047SOL    HW170133   2.639  13.284   5.699  0.8039  2.0362  0.4025
84047SOL    HW270134   2.673  13.150   5.759 -0.7112  0.2642 -2.4509
84048SOL     OW70135   4.753  11.150   2.605  0.2685  0.3843 -0.2544
84048SOL    HW170136   4.783  11.067   2.569 -0.2022  0.6073 -1.1948
84048SOL    HW270137   4.774  11.215   2.537  0.9019  1.0944  0.5860
84049SOL     OW70138   6.963  11.670  12.133  0.2404  0.1550  0.3739
84049SOL    HW170139   7.038  11.728  12.147  0.1039  0.4286 -0.0234
84049SOL    HW270140   6.998  11.599  12.079  0.2739  0.1568  0.3928
84050SOL     OW70141   3.309  11.218  12.901 -0.1746 -0.5534 -0.3834
84050SOL    HW170142   3.280  11.306  12.875 -1.7086 -1.2087 -1.0252
84050SOL    HW270143   3.304  11.219  12.996 -0.9545 -0.1786 -0.4189
84051SOL     OW70144   4.245   6.242   0.283  0.3248  0.2169  0.2704
84051SOL    HW170145   4.308   6.170   0.283  1.6946  1.3719  0.7796
84051SOL    HW270146   4.245   6.275   0.193 -0.4884 -0.5441 -0.0237
84052SOL     OW70147   6.015   0.870   7.372 -0.2721  0.2318 -0.1244
84052SOL    HW170148   6.085   0.927   7.404 -0.7093  0.2705  0.7853
84052SOL    HW270149   5.977   0.832   7.450 -0.5711 -0.6298 -0.6773
84053SOL     OW70150  11.877  13.463   6.000 -0.6303 -0.1271 -0.1627
84053SOL    HW170151  11.918  13.442   6.084 -3.2580 -0.0516  1.2574
84053SOL    HW270152  11.851  13.378   5.964 -0.2136 -0.1022 -0.5326
84054SOL     OW70153   3.662   3.972  13.452  0.1885  0.0027  0.4685
84054SOL    HW170154   3.724   4.035  13.487  0.5994 -0.4982  0.6611
84054SOL    HW270155   3.689   3.960  13.361 -0.0455  0.2970  0.3618
84055SOL     OW70156   4.441   7.374  10.369 -0.0730  0.5756 -0.3686
84055SOL    HW170157   4.445   7.368  10.465  0.2325  0.1141 -0.4034
84055SOL    HW270158   4.518   7.325  10.339 -1.5703 -1.5952 -0.9058
84056SOL     OW70159   5.393   4.604   9.248  0.2541 -0.4117 -0.3419
84056SOL    HW170160   5.375   4.510   9.252  0.5499 -0.4477  0.3069
84056SOL    HW270161   5.487   4.610   9.262  0.3834 -0.0737 -1.3146
84057SOL     OW70162   1.407   3.082   4.275  0.4073 -0.3379  0.4687
84057SOL    HW170163   1.443   3.051   4.358  1.9305 -0.5350 -0.2298
84057SOL    HW270164   1.399   3.003   4.222  0.6554 -0.0481 -0.0034
84058SOL     OW70165   7.354   1.836   5.963  0.0080  0.4608  0.3057
84058SOL    HW170166   7.325   1.905   5.903 -2.0011  1.5503  2.3101
84058SOL    HW270167   7.326   1.868   6.050  2.4003 -1.1708  1.7917
84059SOL     OW70168   3.430   8.507   2.058  0.1801  0.6412  0.0574
84059SOL    HW170169   3.447   8.568   2.130 -0.7190  0.1933  0.6605
84059SOL    HW270170   3.388   8.560   1.990  2.1372  1.3500 -0.6962
84060SOL     OW70171   8.000   6.354   7.099 -0.4297  0.3342 -0.3559
84060SOL    HW170172   7.917   6.400   7.112  0.7527  2.4033  0.1917
84060SOL    HW270173   8.067   6.422   7.104  1.4288 -1.4536  0.6549
84061SOL     OW70174   8.090   7.806  12.699 -0.2533  0.0124 -0.1489
84061SOL    HW170175   7.997   7.804  12.675  0.3246 -0.5045 -2.5798
84061SOL    HW270176   8.136   7.787  12.617  1.9702 -0.9663  1.2503
84062SOL     OW70177   1.646   7.771   7.136 -0.3137  0.4572 -0.0458
84062SOL    HW170178   1.652   7.693   7.191 -0.0812 -1.1692 -2.2423
84062SOL    HW270179   1.717   7.828   7.167 -0.4900 -0.1698  1.5964
84063SOL     OW70180   3.786   5.439  11.812  0.7360 -0.5391 -0.3033
84063SOL    HW170181   3.795   5.353  11.855 -0.5587 -0.4639  0.1442
84063SOL    HW270182   3.805   5.421  11.720  2.0365 -0.9951  0.0276
84064SOL     OW70183  10.177  11.164   0.106  0.3753 -0.5380  0.0218
84064SOL    HW170184  10.178  11.091   0.045 -0.1618 -1.9545  1.6282
84064SOL    HW270185  10.084  11.175   0.129  0.5053  0.3493  0.1573
84065SOL     OW70186   9.744   1.596   5.432 -0.3848  0.4829  0.0612
84065SOL    HW170187   9.687   1.530   5.474 -0.3407  1.0202  1.0016
84065SOL    HW270188   9.690   1.634   5.363 -0.8630  0.3555  0.3555
84066SOL     OW70189   5.413  10.448   3.948 -0.5707 -0.2176 -0.1268
84066SOL    HW170190   5.436  10.364   3.908 -1.1578 -1.0341  1.1584
84066SOL    HW270191   5.335  10.428   4.000 -0.9752  1.2402 -0.1490
84067SOL     OW70192   6.680   9.481   3.982 -0.1481  0.0931  0.0005
84067SOL    HW170193   6.722   9.395   3.979  0.0948  0.1887  0.5012
84067SOL    HW270194   6.597   9.468   3.936  0.3380 -0.1431 -0.8375
84068SOL     OW70195  11.514  11.041  11.043  0.1312 -0.5124 -0.3278
84068SOL    HW170196  11.486  10.950  11.046 -0.7133 -0.2503  0.9997
84068SOL    HW270197  11.434  11.089  11.019  0.1478 -0.0032  0.5803
84069SOL     OW70198   6.405  10.078  10.687  0.3111 -0.0544  0.1103
84069SOL    HW170199   6.362   9.995  10.665 -2.4861  1.5906 -1.1344
84069SOL    HW270200   6.350  10.117  10.754 -0.1897  2.0800 -1.4347
84070SOL     OW70201   9.036   5.629  12.355 -0.4107  0.1621  0.6338
84070SOL    HW170202   8.977   5.687  12.307  0.3772 -0.2137 -0.8461
84070SOL    HW270203   9.012   5.541  12.326 -0.0345 -0.0933  1.0844
84071SOL     OW70204   7.122   6.978  13.520  0.8509 -0.2664 -0.0967
84071SOL    HW170205   7.054   7.007  13.459 -1.2501  1.3018  2.7430
84071SOL    HW270206   7.107   6.884  13.531 -0.6545 -0.0185  0.1672
84072SOL     OW70207   1.445   9.286   3.966 -0.3271 -0.2189 -0.2392
84072SOL    HW170208   1.462   9.309   3.874 -2.0355  0.6838 -0.3602
84072SOL    HW270209   1.386   9.211   3.962 -0.3479 -0.2250  0.1350
84073SOL     OW70210   7.664  12.090   2.558 -0.3431  0.2208  0.3834
84073SOL    HW170211   7.697  12.130   2.639 -0.5546  0.8778  0.1575
84073SOL    HW270212   7.724  12.018   2.540 -0.2488  0.1216  1.0832
84074SOL     OW70213   1.943   4.237  12.915 -0.2170  0.3482 -0.0208
84074SOL    HW170214   1.898   4.202  12.992 -1.5151  1.1695 -0.3658
84074SOL    HW270215   1.935   4.332  12.924  0.1779  0.4722 -0.8460
84075SOL     OW70216   9.067  12.544   3.975  0.0489  0.1402 -0.7641
84075SOL    HW170217   8.975  12.558   3.996  0.5127  0.5557  1.1169
84075SOL    HW270218   9.075  12.450   3.961 -1.1467  0.3604 -3.7039
84076SOL     OW70219   7.946   9.015   0.212 -0.0107 -0.0991 -0.0634
84076SOL    HW170220   8.007   8.944   0.191 -0.4314 -0.1575 -1.1848
84076SOL    HW270221   7.874   8.973   0.258 -0.2018 -0.3922 -0.6196
84077SOL     OW70222  13.045  10.979   9.852 -0.1778  0.3188 -0.0599
84077SOL    HW170223  13.098  10.900   9.859 -0.2524  0.1996 -0.7798
84077SOL    HW270224  13.078  11.023   9.774  0.2567  1.3030  0.6618
84078SOL     OW70225   7.761   1.993  11.376 -0.1548  0.2731 -0.0302
84078SOL    HW170226   7.684   1.961  11.424 -0.6003  1.0583 -0.2105
84078SOL    HW270227   7.826   2.009  11.445  0.4469 -1.9154 -0.0055
84079SOL     OW70228   4.820   7.756   5.047 -0.0159 -0.0887 -0.0786
84079SOL    HW170229   4.902   7.797   5.018  0.7314 -1.0862  0.5679
84079SOL    HW270230   4.823   7.667   5.011 -1.3267  0.1860 -0.9416
84080SOL     OW70231  10.880   2.627   7.722 -0.0798  0.3851 -0.5800
84080SOL    HW170232  10.807   2.677   7.685 -3.8443 -2.9224  1.5435
84080SOL    HW270233  10.913   2.574   7.649  0.9039  2.5187 -1.7665
84081SOL     OW70234   9.777   6.467   1.375 -0.0637  0.3494 -0.1418
84081SOL    HW170235   9.690   6.454   1.338  0.1829  0.9366 -0.9397
84081SOL    HW270236   9.818   6.533   1.320  0.6015  0.6726  0.7041
84082SOL     OW70237  12.146   0.037   6.023  0.0387  0.2709  0.2833
84082SOL    HW170238  12.064   0.044   6.073  0.7517 -0.4106  1.5962
84082SOL    HW270239  12.140  -0.048   5.979  0.0807  0.1861  0.4428
84083SOL     OW70240  11.420  11.022   9.486 -0.1344 -0.1089 -0.1833
84083SOL    HW170241  11.326  11.007   9.491 -0.5521  2.3496  0.5241
84083SOL    HW270242  11.459  10.945   9.528 -1.8020 -1.1446 -0.4563
84084SOL     OW70243   3.748   9.856   5.426 -0.8016 -0.0612 -0.0775
84084SOL    HW170244   3.831   9.833   5.469 -0.2515  0.3273 -0.9124
84084SOL    HW270245   3.691   9.781   5.443  0.1731 -0.9665 -0.6509
84085SOL     OW70246   1.381   7.332   5.603  0.3681  0.2370 -0.1252
84085SOL    HW170247   1.385   7.236   5.607 -0.4217  0.2195  0.5881
84085SOL    HW270248   1.471   7.361   5.616  0.5279 -0.3948  0.2049
84086SOL     OW70249   6.520  12.316   7.980  0.4630 -0.3940  0.0881
84086SOL    HW170250   6.599  12.305   8.033  0.1942 -0.9681  0.3868
84086SOL    HW270251   6.473  12.232   7.990 -0.4654  0.1425  0.3902
84087SOL     OW70252  12.495   4.701   5.535 -0.3134  0.7433  0.2355
84087SOL    HW170253  12.532   4.626   5.488  0.1746  1.9492 -1.3808
84087SOL    HW270254  12.528   4.691   5.625 -1.0624 -1.4801  0.3454
84088SOL     OW70255   8.448  10.776   7.836  0.0996  0.8458  0.5297
84088SOL    HW170256   8.396  10.720   7.893 -0.7271  0.4620 -0.5702
84088SOL    HW270257   8.383  10.826   7.785  0.7956  3.1386  1.7547
84089SOL     OW70258   9.600   8.789  12.759  0.5277  0.0187  0.0371
84089SOL    HW170259   9.687   8.758  12.784  0.3365 -0.1321  0.5188
84089SOL    HW270260   9.600   8.882  12.782 -0.4313 -0.5670  2.8622
84090SOL     OW70261   4.809   7.727  12.450 -0.3768 -0.0990  0.1132
84090SOL    HW170262   4.831   7.809  12.406 -1.2514 -0.6893 -1.5204
84090SOL    HW270263   4.878   7.716  12.516 -0.4509  2.0994  0.6281
84091SOL     OW70264   1.792  10.997   2.117  0.3678  0.3035 -0.8656
84091SOL    HW170265   1.761  10.911   2.147 -0.0679  0.9882  0.7695
84091SOL    HW270266   1.734  11.020   2.045 -1.7859  0.6919  0.8835
84092SOL     OW70267   3.252  13.961   7.847 -0.4728  0.2082  0.3925
84092SOL    HW170268   3.174  13.966   7.792 -0.8611 -0.6718  0.8492
84092SOL    HW270269   3.218  13.957   7.937  0.1472  1.5017  0.7121
84093SOL     OW70270   9.668   4.567  13.883 -0.2993 -0.4396 -0.0120
84093SOL    HW170271   9.685   4.584  13.975 -0.1643 -0.0487 -0.1082
84093SOL    HW270272   9.737   4.613  13.836 -0.5722 -0.3355 -0.3228
84094SOL     OW70273   2.907  13.953   6.373  0.2076  0.6770  0.2596
84094SOL    HW170274   2.900  14.020   6.442  0.1924  0.1506  0.7784
84094SOL    HW270275   2.829  13.966   6.319  1.2058  2.3934 -0.8605
84095SOL     OW70276   9.493   7.866   3.233 -0.1016  0.2023 -0.8338
84095SOL    HW170277   9.562   7.857   3.167  0.9379  0.5411  0.1767
84095SOL    HW270278   9.540   7.879   3.316 -1.3398 -0.9306  0.1088
84096SOL     OW70279   7.341  10.894   8.117  0.6197  0.7956 -0.1207
84096SOL    HW170280   7.393  10.833   8.064 -0.9887 -1.6647  0.9844
84096SOL    HW270281   7.365  10.873   8.207 -1.1196  0.6911  0.3402
84097SOL     OW70282   8.889   8.648   2.812  0.3369 -0.1111 -0.2819
84097SOL    HW170283   8.834   8.661   2.889 -1.4200  0.1127 -1.5248
84097SOL    HW270284   8.965   8.600   2.845 -0.8610 -0.9621  1.4093
84098SOL     OW70285   2.607   3.432   9.167 -0.0309  0.6475  0.0448
84098SOL    HW170286   2.677   3.425   9.231  0.1219  0.5396 -0.1341
84098SOL    HW270287   2.636   3.379   9.093  0.2875  1.6365 -0.5598
84099SOL     OW70288   7.538   4.374   1.911  0.2013  0.0375 -0.8906
84099SOL    HW170289   7.518   4.451   1.964  3.2810 -0.7800  1.7609
84099SOL    HW270290   7.604   4.404   1.849 -0.3621  0.0534 -1.4887
84100SOL     OW70291  14.118  11.825   0.237 -0.4698 -0.3707 -0.2020
84100SOL    HW170292  14.114  11.889   0.165 -0.6796 -1.5622 -1.2916
84100SOL    HW270293  14.211  11.820   0.260 -0.3861 -0.0367 -0.4618
84101SOL     OW70294   2.065   6.013  12.903 -0.3505  0.1933  0.1426
84101SOL    HW170295   2.010   6.089  12.883 -0.0172  0.7753  1.3594
84101SOL    HW270296   2.063   6.005  12.998 -0.9180 -1.7689  0.0105
84102SOL     OW70297   7.701   0.481   2.219 -0.5673  0.1308  0.2607
84102SOL    HW170298   7.629   0.435   2.262 -0.9233  0.3548 -0.0873
84102SOL    HW270299   7.671   0.494   2.129  0.0759 -0.1208  0.0072
84103SOL     OW70300   5.173  13.119  10.448  0.1476 -0.4882  0.0752
84103SOL    HW170301   5.231  13.190  10.475 -0.9314  0.4140  0.0719
84103SOL    HW270302   5.180  13.054  10.518  0.6931 -0.1240  0.3660
84104SOL     OW70303   8.215   0.023  12.331  0.2784 -0.0345  0.0931
84104SOL    HW170304   8.168   0.092  12.286  0.2126  0.8557  1.4877
84104SOL    HW270305   8.147  -0.034  12.366  0.3334 -0.9016 -1.1395
84105SOL     OW70306  12.805   0.679   1.473  0.1841  0.4018  0.0291
84105SOL    HW170307  12.861   0.756   1.466 -1.3171  1.7541  1.8833
84105SOL    HW270308  12.715   0.713   1.467 -0.6221 -0.7576  3.1154
84106SOL     OW70309   6.905  10.110   4.090  0.0253  0.7773  0.4351
84106SOL    HW170310   6.851  10.119   4.168  0.2105 -0.1188  0.6702
84106SOL    HW270311   6.919  10.016   4.080 -1.4868  0.6964 -1.6866
84107SOL     OW70312   4.799   0.280   8.987 -0.0225  0.2587 -0.2123
84107SOL    HW170313   4.704   0.272   8.990  0.0569 -0.4766  0.5410
84107SOL    HW270314   4.814   0.371   8.961 -0.9243  0.2389 -0.8546
84108SOL     OW70315   4.369   2.311   5.833 -0.5630 -0.1287  0.2672
84108SOL    HW170316   4.280   2.336   5.854 -1.0506 -0.0767 -1.6997
84108SOL    HW270317   4.375   2.318   5.738  2.1816  1.9759  0.4691
84109SOL     OW70318  12.831  11.569   6.472 -0.1980 -0.9031  0.2541
84109SOL    HW170319  12.760  11.561   6.536 -0.1370  0.4862  0.5286
84109SOL    HW270320  12.909  11.584   6.525  0.0274 -0.7706 -0.1132
84110SOL     OW70321   0.782  12.302   0.520 -0.5336  0.0988  0.4692
84110SOL    HW170322   0.870  12.338   0.527  0.0884 -1.1078 -0.6883
84110SOL    HW270323   0.737  12.360   0.458 -0.1766  0.0526  0.1626
84111SOL     OW70324   8.232   4.065   2.943 -0.1557 -0.4434  0.3798
84111SOL    HW170325   8.178   3.985   2.941 -2.0439  0.7225  1.3586
84111SOL    HW270326   8.289   4.052   3.019  1.2396 -1.8042 -0.8147
84112SOL     OW70327  11.093   2.604  12.625 -0.3531  0.2848 -0.0046
84112SOL    HW170328  11.041   2.684  12.612 -2.2655 -0.2664  3.2149
84112SOL    HW270329  11.057   2.543  12.560 -2.2697  0.6167  0.6716
84113SOL     OW70330   0.966   1.374  13.699 -0.0188 -0.5012  0.5831
84113SOL    HW170331   0.929   1.461  13.690 -1.2785 -1.1479 -0.9680
84113SOL    HW270332   0.931   1.325  13.625 -0.8142 -2.8201  2.3550
84114SOL     OW70333   0.614   3.876   2.251  0.0655  0.1454  0.5074
84114SOL    HW170334   0.656   3.802   2.206  0.9705  0.5677  0.6437
84114SOL    HW270335   0.548   3.906   2.189  0.0922 -0.4006  0.2015
84115SOL     OW70336  11.862   9.732   5.978  0.3944 -0.1430  0.1098
84115SOL    HW170337  11.863   9.827   5.967  1.2544 -0.2168 -0.5847
84115SOL    HW270338  11.772   9.706   5.957  0.4316  0.4070 -0.7818
84116SOL     OW70339   7.760   1.535   4.132  0.6766  0.1433 -0.3251
84116SOL    HW170340   7.720   1.612   4.092  0.3131  0.1519  0.0453
84116SOL    HW270341   7.849   1.532   4.096  0.8395  0.9796 -0.0127
84117SOL     OW70342   3.268   2.747   0.827  0.0096  0.4063  0.6138
84117SOL    HW170343   3.233   2.777   0.911 -1.0991  0.4930  0.1374
84117SOL    HW270344   3.247   2.818   0.766 -0.4096 -0.2510 -0.0167
84118SOL     OW70345   4.871  13.167   1.829  0.3746  0.0784  0.1863
84118SOL    HW170346   4.942  13.144   1.888  1.1424 -0.2433 -0.8504
84118SOL    HW270347   4.803  13.201   1.887  1.0395 -0.3781  1.2743
84119SOL     OW70348   6.887   7.360  10.624 -0.5242  0.6705  0.2108
84119SOL    HW170349   6.950   7.330  10.690 -0.6163  0.7998  0.3581
84119SOL    HW270350   6.907   7.453  10.612  0.5630  0.3041 -1.1337
84120SOL     OW70351  11.742   9.599  11.362 -0.0055  0.3730 -0.6524
84120SOL    HW170352  11.796   9.615  11.285  2.2622 -1.0091  0.5405
84120SOL    HW270353  11.724   9.685  11.398  0.0749  0.9462 -1.9412
84121SOL     OW70354   0.977  12.362   1.224  0.1205 -0.1853  0.1702
84121SOL    HW170355   0.892  12.403   1.242  0.5835  1.2422 -0.7137
84121SOL    HW270356   0.956  12.273   1.197 -1.1278  0.2280 -0.2858
84122SOL     OW70357   5.536   9.013   4.581  0.6152  0.1961 -0.2667
84122SOL    HW170358   5.598   8.947   4.549  2.1549  1.9281 -1.0186
84122SOL    HW270359   5.586   9.065   4.643 -0.4682  0.8634  0.0657
84123SOL     OW70360   4.661   9.062   5.066  0.4708  0.5275  0.3156
84123SOL    HW170361   4.735   9.111   5.103  0.7878 -1.5875  2.7781
84123SOL    HW270362   4.587   9.122   5.074  1.3300  1.5893  0.6279
84124SOL     OW70363  13.366   0.896   7.539  0.0043  1.0587  0.0730
84124SOL    HW170364  13.295   0.910   7.477 -0.7695  0.5786  0.8328
84124SOL    HW270365  13.330   0.922   7.624  0.4658  0.1014  0.5838
84125SOL     OW70366   7.501  12.816  12.306  0.4218  0.0037  0.3650
84125SOL    HW170367   7.527  12.829  12.398  2.0492 -0.7845  0.0501
84125SOL    HW270368   7.521  12.725  12.288  0.9482  0.3744 -1.0370
84126SOL     OW70369   2.157   6.097   1.007  0.1366 -0.0042  0.2935
84126SOL    HW170370   2.083   6.041   0.982 -2.5096  3.5682 -0.5813
84126SOL    HW270371   2.155   6.096   1.103 -0.9649 -0.0797  0.2820
84127SOL     OW70372   2.119  13.943   6.114 -0.1728 -0.0822 -0.0814
84127SOL    HW170373   2.142  13.860   6.156 -0.4272 -1.4535 -2.4568
84127SOL    HW270374   2.024  13.940   6.105 -0.0370 -0.4080 -1.7670
84128SOL     OW70375   8.795   4.374   0.092 -0.0353  0.4045 -0.2824
84128SOL    HW170376   8.726   4.311   0.071  0.2610  0.0077 -0.0829
84128SOL    HW270377   8.874   4.321   0.100  0.4418  0.9491 -1.2660
84129SOL     OW70378   3.579  12.772   9.504  0.1415 -0.8009 -0.7772
84129SOL    HW170379   3.570  12.770   9.599 -3.1636  0.5117 -0.9548
84129SOL    HW270380   3.502  12.725   9.471  0.3555  0.1699 -2.8143
84130SOL     OW70381   6.991   0.055   5.621 -0.1608 -0.2470  0.2220
84130SOL    HW170382   7.021   0.084   5.707  0.6346  3.5277 -1.1442
84130SOL    HW270383   7.006  -0.039   5.621 -0.6450 -0.4962  4.3284
84131SOL     OW70384   5.804   1.528   0.228  1.1813  0.2036  0.2432
84131SOL    HW170385   5.748   1.584   0.174  0.2745 -1.6290 -0.8380
84131SOL    HW270386   5.745   1.459   0.260  2.6021 -1.2408 -0.1046
84132SOL     OW70387  12.521   7.112  13.324  0.2748  0.3446  0.2227
84132SOL    HW170388  12.611   7.078  13.320  0.4216  0.6890  0.5882
84132SOL    HW270389  12.530   7.202  13.354 -0.2828 -0.0025  1.4877
84133SOL     OW70390   2.859  10.280  10.450 -0.0439 -0.2703 -0.1697
84133SOL    HW170391   2.847  10.186  10.464 -0.5854 -0.4508 -1.6974
84133SOL    HW270392   2.841  10.320  10.535  0.9805 -1.6002  0.7052
84134SOL     OW70393   9.356   8.008   3.873 -0.6116  0.0542  0.0758
84134SOL    HW170394   9.394   8.050   3.949 -1.2554  0.5445  0.1380
84134SOL    HW270395   9.336   7.919   3.902  0.1407 -0.0932  0.1473
84135SOL     OW70396  11.391   9.349   7.716  0.4179  0.3999  0.2335
84135SOL    HW170397  11.349   9.275   7.672  0.2711  0.6341 -0.0298
84135SOL    HW270398  11.454   9.310   7.775 -0.7350  0.0040  1.2488
84136SOL     OW70399   2.182   2.234  11.845 -0.3241 -0.3227  0.2417
84136SOL    HW170400   2.159   2.324  11.867 -0.7890 -0.5225  0.5908
84136SOL    HW270401   2.278   2.231  11.854 -0.1593  0.4688 -1.0517
84137SOL     OW70402  13.014   6.008   9.528  0.1841 -0.4107 -0.0479
84137SOL    HW170403  12.926   5.974   9.542  0.6601 -1.4323  0.5339
84137SOL    HW270404  13.022   6.017   9.433 -1.2956  1.7879 -0.0467
84138SOL     OW70405   7.010  10.645   6.851 -0.7152  0.4222 -0.4719
84138SOL    HW170406   7.061  10.633   6.932 -0.1801  0.7321 -0.7552
84138SOL    HW270407   6.965  10.562   6.839 -0.6240  0.2934  0.0291
84139SOL     OW70408   5.832  12.505   4.212 -0.0906 -0.1726  0.1189
84139SOL    HW170409   5.801  12.481   4.300 -0.1090  0.5406  0.3142
84139SOL    HW270410   5.752  12.519   4.162 -0.1311 -2.4506 -0.5817
84140SOL     OW70411   5.168   5.669   2.452 -0.1044 -0.3594 -0.0605
84140SOL    HW170412   5.106   5.635   2.387  1.6087 -0.5525 -1.6818
84140SOL    HW270413   5.182   5.760   2.426  1.1201 -0.6330 -0.4131
84141SOL     OW70414   3.568   8.290  10.668 -0.5592 -0.4591 -0.1420
84141SOL    HW170415   3.563   8.294  10.572  1.1021 -0.9310 -0.2916
84141SOL    HW270416   3.584   8.197  10.687 -0.3796 -0.2935  0.5527
84142SOL     OW70417   3.611   9.611   5.170  0.3868 -0.1912  0.7404
84142SOL    HW170418   3.594   9.517   5.178 -0.1712 -0.1658  0.0191
84142SOL    HW270419   3.583   9.648   5.253 -0.0335 -0.5846  0.7801
84143SOL     OW70420   8.031  12.826   0.422 -0.9828  0.1822 -0.1909
84143SOL    HW170421   8.009  12.907   0.375 -0.4997  0.3980 -0.0607
84143SOL    HW270422   7.977  12.759   0.382 -0.5975  0.3698 -1.0331
84144SOL     OW70423   6.112   7.649   8.786  0.2088 -0.5427  0.4261
84144SOL    HW170424   6.100   7.695   8.869  0.4973 -3.1096  1.9947
84144SOL    HW270425   6.189   7.595   8.800 -0.9770 -2.6441 -0.7249
84145SOL     OW70426  10.973   9.927   4.731  0.1666 -0.2982  0.0290
84145SOL    HW170427  10.927   9.925   4.815  2.1399  0.7159  1.2083
84145SOL    HW270428  10.965  10.018   4.701 -0.2676 -0.5819 -0.7605
84146SOL     OW70429  12.900   6.923   5.659 -0.6879  0.2727 -0.5413
84146SOL    HW170430  12.909   6.991   5.592  2.0973  2.1147  1.5050
84146SOL    HW270431  12.989   6.891   5.673 -1.6041 -2.1529  0.2886
84147SOL     OW70432   8.328   1.523   0.705 -0.1977 -0.3109 -0.1086
84147SOL    HW170433   8.412   1.568   0.721 -1.0651  0.9445  1.1111
84147SOL    HW270434   8.278   1.585   0.652  0.1389 -1.6684 -2.1273
84148SOL     OW70435   6.648   7.702  13.402  0.1222  0.0409 -0.1719
84148SOL    HW170436   6.641   7.683  13.495 -0.0205  0.9785  0.0192
84148SOL    HW270437   6.736   7.674  13.378  0.7605  1.2789  0.6262
84149SOL     OW70438  12.411  12.531   8.728 -0.6634  0.2962  0.1727
84149SOL    HW170439  12.443  12.541   8.818  1.9610 -0.4504 -0.5867
84149SOL    HW270440  12.488  12.507   8.678 -2.6266 -2.7246 -1.7102
84150SOL     OW70441   7.119   7.053   6.909 -0.5224  0.7100 -0.5274
84150SOL    HW170442   7.091   7.000   6.984 -0.9757  0.8587 -0.5873
84150SOL    HW270443   7.207   7.022   6.890 -1.5143 -1.5148 -1.8610
84151SOL     OW70444  12.812  14.150   9.971 -0.5950 -0.0525 -0.3170
84151SOL    HW170445  12.751  14.082   9.943 -1.3357  0.0557  0.9644
84151SOL    HW270446  12.780  14.230   9.929 -0.7644 -0.1778 -0.4292
84152SOL     OW70447   6.035   7.411   0.841 -0.0635  0.0560  0.0739
84152SOL    HW170448   6.023   7.316   0.835  0.0968 -0.1948  2.6590
84152SOL    HW270449   6.118   7.427   0.796  0.4716 -1.2078  0.5521
84153SOL     OW70450  13.658  11.339  12.482 -0.4850 -0.3999  0.3346
84153SOL    HW170451  13.633  11.368  12.394  0.0557 -0.2282  0.2391
84153SOL    HW270452  13.748  11.308  12.473 -1.1809 -2.5715  0.3283
84154SOL     OW70453   2.193  10.070   5.407  0.8310 -0.1999 -0.0761
84154SOL    HW170454   2.261  10.037   5.348 -0.9494 -1.0489 -1.7342
84154SOL    HW270455   2.121  10.008   5.398  0.7384 -0.8886  3.6992
84155SOL     OW70456  13.650   3.191   4.412 -0.0732 -0.5956  0.1395
84155SOL    HW170457  13.563   3.210   4.375 -1.0066 -3.2774  0.7029
84155SOL    HW270458  13.660   3.254   4.482 -1.9635 -0.7043  0.5834
84156SOL     OW70459   8.809   3.508   1.167 -0.0619 -0.2605 -0.0850
84156SOL    HW170460   8.773   3.420   1.178  0.2672 -0.2947  0.8135
84156SOL    HW270461   8.872   3.500   1.096 -0.0884 -0.7407 -0.0564
84157SOL     OW70462   8.428   3.564   6.009  0.4059 -0.4679 -0.7163
84157SOL    HW170463   8.353   3.597   5.959 -1.4342 -1.0134  1.5255
84157SOL    HW270464   8.503   3.611   5.973 -0.8631 -0.3550 -3.4910
84158SOL     OW70465   0.470   5.751  11.907 -0.5492 -0.6153 -0.1390
84158SOL    HW170466   0.384   5.709  11.910 -0.7582 -0.1228  0.9634
84158SOL    HW270467   0.489   5.774  11.998  0.4063 -0.0302 -0.4751
84159SOL     OW70468   8.930  12.027   5.580  0.3506 -0.2224  0.1988
84159SOL    HW170469   8.940  11.933   5.595  1.9218 -0.5827 -2.3807
84159SOL    HW270470   8.857  12.034   5.518 -0.0439  0.3015  0.7179
84160SOL     OW70471   7.250   9.126   2.427  0.4081  0.2756  0.3064
84160SOL    HW170472   7.187   9.064   2.463 -0.3937  0.5484 -0.5778
84160SOL    HW270473   7.322   9.072   2.393 -0.7220 -0.2707 -1.3174
84161SOL     OW70474   9.999   8.602   5.336  0.2202 -0.2351 -0.2459
84161SOL    HW170475   9.987   8.531   5.273 -0.2371 -0.6423  0.2851
84161SOL    HW270476  10.031   8.559   5.415  0.4827  0.2240 -0.0995
84162SOL     OW70477   5.856  13.266   6.972 -0.3199  0.4024  0.2896
84162SOL    HW170478   5.928  13.276   7.034 -1.4792  3.5231  1.3202
84162SOL    HW270479   5.899  13.258   6.887  1.2729  0.8818  1.0072
84163SOL     OW70480   8.872   5.138   8.028  0.3881 -0.5381 -0.1389
84163SOL    HW170481   8.868   5.042   8.030  1.1314 -0.5722  0.2839
84163SOL    HW270482   8.950   5.159   8.079 -0.3535  0.3461  0.6728
84164SOL     OW70483   0.473   8.576   8.367  0.8630  0.0777 -0.7452
84164SOL    HW170484   0.463   8.669   8.390  0.1077 -0.7419  3.0196
84164SOL    HW270485   0.478   8.532   8.452  2.5191 -3.2409 -2.4065
84165SOL     OW70486   3.960   6.257  14.011 -0.2238  0.6395  0.2789
84165SOL    HW170487   3.870   6.286  14.028 -0.3539  0.2141  0.3070
84165SOL    HW270488   3.967   6.258  13.916  0.4273  2.7797  0.3004
84166SOL     OW70489  11.524   7.788   0.649  0.6241 -0.3635  0.0708
84166SOL    HW170490  11.615   7.809   0.670  1.0228 -1.6224 -0.3535
84166SOL    HW270491  11.509   7.702   0.688 -1.2213  0.8934  2.4582
84167SOL     OW70492   6.047   3.852   1.354 -0.5532  0.6640 -0.5745
84167SOL    HW170493   6.143   3.849   1.353 -0.5504  0.7978 -1.3567
84167SOL    HW270494   6.021   3.790   1.422  0.1299  1.9312  0.8914
84168SOL     OW70495  12.970  11.331  12.929  0.3438  0.3147  0.8147
84168SOL    HW170496  13.007  11.248  12.900 -0.0233  0.8860 -1.4776
84168SOL    HW270497  13.011  11.397  12.873 -2.1191  1.2646  0.0110
84169SOL     OW70498   0.142   0.053   4.235 -0.1057  0.5057  0.1754
84169SOL    HW170499   0.100   0.112   4.172  0.5120  0.5481 -0.2074
84169SOL    HW270500   0.114   0.085   4.320  0.4851  1.5676 -0.0152
84170SOL     OW70501   1.790  13.724   4.826  0.8321  0.1774  0.1318
84170SOL    HW170502   1.864  13.717   4.885  0.4783  0.1609  0.5788
84170SOL    HW270503   1.782  13.818   4.809 -0.0594  0.3595  1.4102
84171SOL     OW70504  13.523   7.413  13.676 -0.1772  0.0329  0.2610
84171SOL    HW170505  13.591   7.391  13.739 -0.7591 -0.9725  0.5596
84171SOL    HW270506  13.566   7.406  13.590 -0.1897 -1.8708  0.3620
84172SOL     OW70507   7.286   5.300  10.793  0.0617  0.5653  0.3548
84172SOL    HW170508   7.380   5.288  10.805  0.2495 -0.0576 -1.4040
84172SOL    HW270509   7.247   5.218  10.824  0.3734 -0.2697 -1.3122
84173SOL     OW70510  12.438   9.918   7.354 -0.2848  0.6593  0.3548
84173SOL    HW170511  12.443   9.919   7.258 -2.5131 -0.9724  0.1505
84173SOL    HW270512  12.454   9.827   7.378  2.9041  1.4755  1.8269
84174SOL     OW70513   0.830   9.551   9.665  0.2401 -0.1429  0.0051
84174SOL    HW170514   0.738   9.566   9.645  0.0534 -0.8778  0.2920
84174SOL    HW270515   0.833   9.462   9.699  0.9077  0.2159  0.9465
84175SOL     OW70516   5.396  13.821  10.068  1.0299  0.0430 -0.0805
84175SOL    HW170517   5.336  13.851  10.136  2.9525 -0.3067  1.8725
84175SOL    HW270518   5.442  13.901  10.040  1.1642 -0.0204 -0.0383
84176SOL     OW70519  12.284   7.235  10.781  0.4140  0.4384  0.7734
84176SOL    HW170520  12.340   7.306  10.810 -0.1820  1.1861  0.1692
84176SOL    HW270521  12.234   7.273  10.708 -0.0899 -0.5249  0.5999
84177SOL     OW70522  14.155   9.026   6.334 -1.0158  0.3530  0.0319
84177SOL    HW170523  14.109   8.954   6.378 -0.3713  0.4685  0.9117
84177SOL    HW270524  14.244   9.022   6.368 -0.2798 -0.0070 -1.8139
84178SOL     OW70525   3.828   3.126  13.903 -0.3303 -0.4905 -0.8627
84178SOL    HW170526   3.773   3.204  13.908  0.5831  0.2509 -2.0372
84178SOL    HW270527   3.894   3.147  13.837 -0.1856 -2.3281 -1.3588
84179SOL     OW70528  13.420  13.539   7.163  0.2181 -0.3366  0.3436
84179SOL    HW170529  13.428  13.628   7.130  2.9122 -1.2473 -1.8264
84179SOL    HW270530  13.412  13.549   7.258 -1.7127  2.2166 -0.0015
84180SOL     OW70531   2.863  13.110   0.698  0.0542  0.2308  0.1285
84180SOL    HW170532   2.843  13.190   0.650  0.2477  0.1053 -0.1631
84180SOL    HW270533   2.807  13.043   0.658  0.4331  0.0621 -0.1222
84181SOL     OW70534   2.086   4.869   5.741  0.3574 -0.6826  0.1728
84181SOL    HW170535   2.110   4.892   5.651  1.0840 -0.8498  0.3198
84181SOL    HW270536   2.122   4.940   5.794  1.1329 -1.2783  0.4597
84182SOL     OW70537   3.021   6.970   5.253 -0.6220  0.3498  0.1595
84182SOL    HW170538   2.956   6.900   5.243 -0.2512 -0.0659  0.6033
84182SOL    HW270539   3.061   6.954   5.339  0.1181  0.5553 -0.1374
84183SOL     OW70540   3.527   4.255   1.454 -0.3443 -0.0159  0.0076
84183SOL    HW170541   3.507   4.210   1.371  1.3720 -0.0282 -0.4425
84183SOL    HW270542   3.535   4.184   1.518  1.2420 -0.3044 -0.4665
84184SOL     OW70543   3.804   6.054   3.378  0.1819 -0.3573 -0.0295
84184SOL    HW170544   3.867   6.055   3.450 -0.6945  3.5203  0.9087
84184SOL    HW270545   3.838   6.119   3.316 -0.9858 -0.9823 -1.3905
84185SOL     OW70546   5.256  13.930   0.032 -0.0944 -0.2468 -0.7936
84185SOL    HW170547   5.161  13.940   0.035 -0.2473 -1.5420 -0.9442
84185SOL    HW270548   5.279  13.888   0.115  0.2338 -0.7639 -1.1380
84186SOL     OW70549   9.995  11.895   5.407  0.6803 -0.0775 -0.2769
84186SOL    HW170550   9.962  11.853   5.328  0.4531 -1.2868  0.4303
84186SOL    HW270551   9.937  11.969   5.421 -1.8467 -2.1255  0.9171
84187SOL     OW70552   7.120  11.434   3.854 -0.6879 -0.1468  0.5663
84187SOL    HW170553   7.038  11.451   3.808  0.2043 -0.3497 -1.2229
84187SOL    HW270554   7.149  11.521   3.883 -0.8790  0.1141  0.0012
84188SOL     OW70555   3.839  10.551  10.867  0.1472  0.7867  0.1746
84188SOL    HW170556   3.789  10.587  10.795 -1.4613 -0.1380  0.7597
84188SOL    HW270557   3.840  10.620  10.933 -0.0127  0.9644 -0.0093
84189SOL     OW70558  12.501  10.585  13.089  0.3383  0.4674 -0.0747
84189SOL    HW170559  12.557  10.577  13.011 -0.6766  1.2580 -0.9127
84189SOL    HW270560  12.547  10.647  13.145  1.1659 -0.2432  0.0568
84190SOL     OW70561   5.967   0.796  11.834 -0.1951 -0.2457  0.4852
84190SOL    HW170562   6.029   0.763  11.899  0.4371 -2.7368 -1.2527
84190SOL    HW270563   5.900   0.728  11.827 -1.1171  0.7128 -0.3167
84191SOL     OW70564  10.533  12.915   4.936 -0.2598 -0.3775 -0.7203
84191SOL    HW170565  10.620  12.939   4.906 -0.1328  1.3657  0.8741
84191SOL    HW270566  10.547  12.837   4.990  0.2564 -0.3161 -0.7623
84192SOL     OW70567  12.988   4.108   1.066  0.2504  0.1174 -0.3025
84192SOL    HW170568  13.017   4.058   0.991 -1.0905  1.4104 -1.7611
84192SOL    HW270569  13.018   4.198   1.049 -1.7777  0.8521 -0.3728
84193SOL     OW70570  12.964   1.651   7.950 -0.1981 -0.1616  0.0432
84193SOL    HW170571  12.869   1.642   7.963 -0.0377 -1.4737  0.3498
84193SOL    HW270572  12.971   1.698   7.867 -1.1211  0.9697  0.5725
84194SOL     OW70573   1.928   5.955   3.350  0.1673 -0.0250  0.1243
84194SOL    HW170574   1.870   5.940   3.275 -1.7907  2.7666  0.9026
84194SOL    HW270575   2.012   5.981   3.311  0.3978 -2.3176 -1.0336
84195SOL     OW70576  12.892   0.773   5.467  0.2891  0.3610 -0.2074
84195SOL    HW170577  12.974   0.806   5.430  0.4347  1.4478  0.9972
84195SOL    HW270578  12.847   0.732   5.394  2.2798 -1.0305 -0.7317
84196SOL     OW70579   6.234   3.288   9.958 -0.3101  0.6266 -0.2656
84196SOL    HW170580   6.208   3.306  10.049  0.7295 -0.5931  0.2987
84196SOL    HW270581   6.208   3.198   9.942 -0.1965  0.7291 -1.0856
84197SOL     OW70582   4.243   7.382   8.816 -0.1040 -0.2646  0.0345
84197SOL    HW170583   4.273   7.425   8.897 -0.4868 -0.5142  0.3118
84197SOL    HW270584   4.217   7.454   8.759 -0.8555 -0.1210  0.5403
84198SOL     OW70585   8.585   3.704   3.275 -0.0636  0.2227  0.5758
84198SOL    HW170586   8.630   3.713   3.191 -1.0902  0.3231  0.0228
84198SOL    HW270587   8.631   3.764   3.333  0.8829 -0.1063  0.1909
84199SOL     OW70588  13.773   2.542   9.295 -0.2956 -0.2131  0.2942
84199SOL    HW170589  13.686   2.530   9.257  0.4064  1.8586 -2.2429
84199SOL    HW270590  13.765   2.621   9.348  0.1723  0.2756 -0.3675
84200SOL     OW70591  12.456   4.581   4.616  0.3331  0.4553  0.9842
84200SOL    HW170592  12.468   4.603   4.708  1.5839  1.1829  0.6755
84200SOL    HW270593  12.539   4.606   4.574 -0.1056 -0.1138 -0.2897
84201SOL     OW70594   6.476   3.295  12.010 -0.3926  0.0955 -0.7155
84201SOL    HW170595   6.381   3.299  12.004 -0.5042 -0.5115  0.3688
84201SOL    HW270596   6.507   3.369  11.957 -1.4848  0.7594 -0.4552
84202SOL     OW70597   4.039  12.520  12.417 -0.8727  0.1899  0.5562
84202SOL    HW170598   3.952  12.549  12.445 -0.8145  0.1230  0.8084
84202SOL    HW270599   4.093  12.599  12.421 -0.8256  0.1469  0.7930
84203SOL     OW70600   5.087  11.983  12.005  0.0929  0.5518 -0.4998
84203SOL    HW170601   5.131  11.925  12.066 -0.5878  0.2988 -0.2380
84203SOL    HW270602   5.083  12.067  12.050  2.1210  1.1637 -1.3373
84204SOL     OW70603   6.489   1.552  14.149  0.6570 -0.6371  0.0153
84204SOL    HW170604   6.404   1.574  14.109  1.4679  1.4954 -0.6454
84204SOL    HW270605   6.490   1.456  14.148  0.2617 -0.8498 -4.5113
84205SOL     OW70606   1.950   1.404   9.443  0.7924  0.1634  0.4287
84205SOL    HW170607   1.981   1.445   9.524 -3.3696  1.3106  1.6993
84205SOL    HW270608   1.948   1.476   9.379  1.5714 -0.1234  0.0733
84206SOL     OW70609  10.999   6.435  12.080 -0.4522  0.0048  0.3632
84206SOL    HW170610  10.998   6.465  12.171  1.5146  0.8478  0.1785
84206SOL    HW270611  11.010   6.340  12.086 -2.6195 -0.2532  0.9652
84207SOL     OW70612   9.310   7.048  11.088  0.0207 -0.0632  0.2826
84207SOL    HW170613   9.381   7.049  11.153  0.5171  1.8579 -0.2201
84207SOL    HW270614   9.232   7.072  11.138  0.7412  3.5120 -0.0565
84208SOL     OW70615   1.265   6.879  13.193 -0.1933  0.0711 -0.3242
84208SOL    HW170616   1.237   6.795  13.229 -0.7097  1.3402  2.4508
84208SOL    HW270617   1.356   6.888  13.222  0.0458  0.2552 -1.0980
84209SOL     OW70618   5.934   5.858   6.423 -0.1479  0.2086  0.5301
84209SOL    HW170619   5.842   5.854   6.450 -0.4096 -0.9490 -0.4434
84209SOL    HW270620   5.946   5.947   6.389 -1.9932 -0.7132 -2.8865
84210SOL     OW70621   9.069   6.279   2.966  0.1894  0.1993 -0.2234
84210SOL    HW170622   9.073   6.346   2.898 -0.1691  0.9744  0.5045
84210SOL    HW270623   8.985   6.235   2.951  1.3209 -1.5466 -2.0083
84211SOL     OW70624  12.857   8.527   8.824 -0.2801 -0.0422 -1.1214
84211SOL    HW170625  12.779   8.545   8.773 -2.7524 -1.8158  1.7268
84211SOL    HW270626  12.896   8.613   8.840 -0.0110  0.6841 -4.7179
84212SOL     OW70627   2.478  13.940   3.049  0.5658 -0.0850  0.1077
84212SOL    HW170628   2.486  13.964   3.142 -0.1113  0.5718 -0.0010
84212SOL    HW270629   2.518  14.013   3.002 -2.0824  1.2304 -0.2488
84213SOL     OW70630   1.527  14.043  12.014  0.4902 -0.0706 -0.1631
84213SOL    HW170631   1.615  14.069  12.044  0.2209 -0.5240  1.0958
84213SOL    HW270632   1.502  13.974  12.074 -1.0855  0.6310  0.0215
84214SOL     OW70633  10.865  10.070   9.992  0.0024 -0.2676 -0.2390
84214SOL    HW170634  10.786  10.019  10.009 -0.6596  1.1249  1.0837
84214SOL    HW270635  10.937  10.011  10.018 -0.7439 -0.5824  1.2322
84215SOL     OW70636   1.099   7.546   7.855 -0.4812 -0.3373  0.1837
84215SOL    HW170637   1.159   7.595   7.912  2.2717  0.1757 -2.8720
84215SOL    HW270638   1.115   7.454   7.877  0.9265 -0.1695 -0.0683
84216SOL     OW70639   1.715  12.579  10.977 -0.4157  0.2853 -0.0271
84216SOL    HW170640   1.713  12.484  10.963  0.3767  0.4313 -1.3527
84216SOL    HW270641   1.623  12.606  10.976 -0.6785 -0.5269  0.9224
84217SOL     OW70642  13.532  10.382   5.496  0.6340  0.3445  0.7510
84217SOL    HW170643  13.500  10.293   5.480  1.1907  0.1155  0.9021
84217SOL    HW270644  13.461  10.424   5.545  0.0274  0.2389 -0.0042
84218SOL     OW70645   6.788   7.882  10.276 -0.0867 -0.0023 -0.0976
84218SOL    HW170646   6.829   7.846  10.355  0.4822  2.6563  0.9458
84218SOL    HW270647   6.748   7.807  10.233  1.3839 -1.8883  1.6209
84219SOL     OW70648   2.716   3.490   2.028 -0.0519 -0.1063 -0.2214
84219SOL    HW170649   2.772   3.424   1.988 -1.7426 -1.8075  0.0570
84219SOL    HW270650   2.638   3.492   1.972 -1.0705 -0.1550  1.1378
84220SOL     OW70651   8.665  11.194   6.390  0.5205 -0.0711  0.1279
84220SOL    HW170652   8.649  11.225   6.301 -0.2823 -1.7137 -0.3372
84220SOL    HW270653   8.754  11.158   6.387  0.9784  1.0049  0.3457
84221SOL     OW70654   4.859   6.273   3.608  0.2116 -0.0253  0.1035
84221SOL    HW170655   4.802   6.230   3.545  1.5019  0.4299 -1.4228
84221SOL    HW270656   4.822   6.361   3.618 -0.7825 -0.5257  1.0679
84222SOL     OW70657   3.004   9.984   2.799  0.3049 -0.2247  0.4935
84222SOL    HW170658   2.937   9.923   2.830 -0.4784  0.8945  1.0455
84222SOL    HW270659   3.051  10.010   2.878  1.1546 -0.6901  0.1611
84223SOL     OW70660   8.221  14.023  13.484  0.0886 -0.7898  0.2305
84223SOL    HW170661   8.277  14.086  13.529  2.4800  0.3890 -3.8845
84223SOL    HW270662   8.265  13.939  13.496 -0.6188 -0.9624  1.9108
84224SOL     OW70663   7.800  11.006   7.776 -0.1677  0.4961  0.6290
84224SOL    HW170664   7.864  10.938   7.798 -0.5268  0.4604  1.6311
84224SOL    HW270665   7.730  10.994   7.840  0.8110  3.2578  2.4101
84225SOL     OW70666   3.648   2.242  13.214 -0.0786 -0.3004 -0.0710
84225SOL    HW170667   3.743   2.256  13.217 -0.0261 -0.4296 -0.9253
84225SOL    HW270668   3.611   2.328  13.236  0.2355 -0.1177 -0.2447
84226SOL     OW70669   4.121   9.116  13.621 -0.2173 -0.8275  0.4211
84226SOL    HW170670   4.033   9.114  13.656 -0.0423  1.3554  1.1463
84226SOL    HW270671   4.139   9.209  13.607  2.5135 -1.0558  1.7579
84227SOL     OW70672   8.918   9.505   8.894 -0.1490  0.2774 -0.0853
84227SOL    HW170673   8.971   9.564   8.947 -0.4231  0.4109  0.0458
84227SOL    HW270674   8.853   9.562   8.852  0.5935  0.3022 -1.2607
84228SOL     OW70675   2.787   4.624   0.673 -0.0991  0.2215 -0.2913
84228SOL    HW170676   2.759   4.562   0.606  1.1069 -0.6831  0.0114
84228SOL    HW270677   2.763   4.710   0.637  0.5501 -0.2264 -1.9114
84229SOL     OW70678   2.424   0.941   2.104  0.1511 -0.1710 -0.2736
84229SOL    HW170679   2.379   0.857   2.113 -3.3029  1.5719  0.3762
84229SOL    HW270680   2.417   0.982   2.190  0.3566  1.4292 -0.9715
84230SOL     OW70681  10.344   4.772   7.465  0.0839 -1.1608 -0.2781
84230SOL    HW170682  10.332   4.833   7.393  0.5682  0.1731  0.7371
84230SOL    HW270683  10.296   4.694   7.438 -2.2028  0.3345 -0.7632
84231SOL     OW70684   5.046  13.428   2.106 -0.4239 -0.7593  0.3868
84231SOL    HW170685   5.016  13.433   2.015 -1.2922  0.8556  0.7121
84231SOL    HW270686   4.968  13.400   2.155 -0.3327 -0.3388  0.7792
84232SOL     OW70687   8.226   8.379   4.278  0.3864 -0.1590 -0.1593
84232SOL    HW170688   8.199   8.315   4.343 -0.9919  0.0167 -0.5342
84232SOL    HW270689   8.201   8.341   4.194  0.8432  0.2503 -0.4864
84233SOL     OW70690   7.631  10.784   0.617 -0.3018  0.3743 -0.2285
84233SOL    HW170691   7.606  10.701   0.576 -0.6331  0.6343 -0.5524
84233SOL    HW270692   7.575  10.850   0.576 -0.4527  0.6785  0.4425
84234SOL     OW70693   1.043  12.617   4.906  0.5468  0.1348  0.6315
84234SOL    HW170694   1.134  12.595   4.926  1.4829  1.1657 -2.0613
84234SOL    HW270695   1.031  12.705   4.941  0.4869 -0.0922  1.1936
84235SOL     OW70696   5.476   6.031   8.360 -0.6243 -0.2172  0.3026
84235SOL    HW170697   5.526   6.001   8.284 -0.6571 -1.0026  0.5742
84235SOL    HW270698   5.486   6.126   8.360  1.0445 -0.3532  0.4471
84236SOL     OW70699   7.585  10.062  10.928 -0.4332 -0.2068  0.1591
84236SOL    HW170700   7.536  10.082  11.008  1.5047  1.0921  1.1128
84236SOL    HW270701   7.671  10.102  10.942  0.2708 -0.7047 -2.2265
84237SOL     OW70702   6.537   0.384  12.249  0.0413 -0.0826 -0.1044
84237SOL    HW170703   6.475   0.367  12.177  0.9444  0.9135 -1.1723
84237SOL    HW270704   6.623   0.366  12.211  0.4435 -1.3589  1.3276
84238SOL     OW70705  13.916   9.306  10.634 -0.2031  0.2352  0.0209
84238SOL    HW170706  13.875   9.304  10.721 -0.5665 -0.8895 -0.1669
84238SOL    HW270707  13.896   9.393  10.600 -1.8748 -0.0501  0.2108
84239SOL     OW70708   0.012  10.217  13.936  0.0385 -0.3003 -0.5227
84239SOL    HW170709   0.041  10.307  13.946  0.2162 -0.1286 -2.3819
84239SOL    HW270710   0.011  10.182  14.026 -0.9602  1.8057  0.3595
84240SOL     OW70711  13.304   0.216   9.895  0.4873 -0.3771  0.1075
84240SOL    HW170712  13.239   0.166   9.845 -0.8766 -0.2880  1.6738
84240SOL    HW270713  13.378   0.226   9.836 -1.3673  0.5649 -2.2256
84241SOL     OW70714   4.405   7.738   4.192  0.3952 -0.2441 -0.4117
84241SOL    HW170715   4.347   7.805   4.156 -1.8050 -0.4847  2.3220
84241SOL    HW270716   4.475   7.788   4.234 -0.2940  0.2847  0.1326
84242SOL     OW70717  13.347   8.176  12.524 -0.1545 -0.3950 -0.0562
84242SOL    HW170718  13.271   8.201  12.577  0.3946  0.0876  0.5247
84242SOL    HW270719  13.329   8.086  12.496  0.5903 -1.6146  2.9584
84243SOL     OW70720   6.435   8.295   4.592 -0.1389  0.3832 -0.7854
84243SOL    HW170721   6.457   8.351   4.667 -0.9017  0.6073 -0.7255
84243SOL    HW270722   6.355   8.250   4.618  1.2024 -1.8749 -0.2247
84244SOL     OW70723  12.212  13.159   8.805 -0.4609  0.2119  0.0064
84244SOL    HW170724  12.151  13.088   8.790 -0.9343  0.5574  0.2861
84244SOL    HW270725  12.281  13.145   8.740 -1.6280  0.7264 -1.3906
84245SOL     OW70726   3.568  11.660  13.390 -0.1424 -0.0178 -0.5469
84245SOL    HW170727   3.643  11.710  13.357 -0.3679  0.8030  0.1300
84245SOL    HW270728   3.549  11.700  13.475 -0.9114 -0.6805 -0.3980
84246SOL     OW70729   6.021   9.452  10.712 -0.5830  0.6415 -0.4306
84246SOL    HW170730   6.112   9.465  10.738 -0.5544 -0.7416  0.2912
84246SOL    HW270731   5.989   9.539  10.690  0.2943  1.4789  1.3950
84247SOL     OW70732   8.359   2.901   4.164  0.2336 -0.2510 -0.3598
84247SOL    HW170733   8.342   2.877   4.073 -2.1985  0.7043 -0.2278
84247SOL    HW270734   8.324   2.828   4.215 -2.5128  1.1121 -0.1263
84248SOL     OW70735  10.369   4.779  13.185  0.7172 -0.3172  0.5723
84248SOL    HW170736  10.449   4.830  13.186  0.6306 -0.1728  0.2218
84248SOL    HW270737  10.321   4.811  13.108  0.0674  0.0008  1.0980
84249SOL     OW70738   6.223   2.830  10.435 -0.0434  0.0942 -0.2003
84249SOL    HW170739   6.224   2.862  10.344 -0.1226 -1.2121 -0.6757
84249SOL    HW270740   6.141   2.781  10.442  0.4895 -0.7363  0.2473
84250SOL     OW70741  12.447  11.731   3.880  0.0417  0.7699 -0.0267
84250SOL    HW170742  12.367  11.689   3.911  0.5611  0.0733  0.4054
84250SOL    HW270743  12.482  11.671   3.815  2.1768 -0.8948  2.4467
84251SOL     OW70744   4.111   3.429   3.866 -0.3323 -0.4923  0.1516
84251SOL    HW170745   4.045   3.367   3.834 -0.3307 -0.2100 -0.4144
84251SOL    HW270746   4.131   3.399   3.954 -2.2110  0.2054  0.8646
84252SOL     OW70747   6.903   4.642   2.003 -0.1000  0.0023 -0.4278
84252SOL    HW170748   6.925   4.720   2.054 -1.4108  0.6518 -0.8112
84252SOL    HW270749   6.896   4.572   2.068  0.3902  0.3457  0.0058
84253SOL     OW70750   5.535   2.007  13.793  0.0988 -0.0937  0.2877
84253SOL    HW170751   5.610   1.953  13.767  0.4827  0.4536  0.2404
84253SOL    HW270752   5.521   1.985  13.885 -0.2571 -0.8625  0.0571
84254SOL     OW70753  13.821  13.268   2.586  0.0987 -0.1203  0.4198
84254SOL    HW170754  13.873  13.221   2.521 -0.4866  0.0954 -0.2206
84254SOL    HW270755  13.791  13.347   2.541  0.3607  0.4471  1.2173
84255SOL     OW70756   6.981  11.613   2.386 -0.2327 -0.2530 -0.4024
84255SOL    HW170757   6.901  11.572   2.420  0.7878  0.5761  3.4194
84255SOL    HW270758   7.031  11.540   2.349 -0.9841 -1.4820  0.9043
84256SOL     OW70759  12.293   4.387   6.573 -0.0180 -0.6394 -0.2173
84256SOL    HW170760  12.264   4.298   6.593 -0.8503 -0.6730 -1.4811
84256SOL    HW270761  12.362   4.376   6.507 -0.6839 -0.3339 -0.9852
84257SOL     OW70762   3.112  12.289   1.602  0.4276 -0.0935  1.3368
84257SOL    HW170763   3.063  12.293   1.685  0.5145  0.0447  1.3816
84257SOL    HW270764   3.200  12.319   1.625  0.1086  1.2377  0.9237
84258SOL     OW70765   1.221   9.330   6.028 -0.5019  0.5121  0.2771
84258SOL    HW170766   1.260   9.254   5.984 -2.0451 -0.0137 -0.2323
84258SOL    HW270767   1.145   9.352   5.976 -0.9675  1.4502  1.3073
84259SOL     OW70768   3.116   2.163  12.134 -0.1870 -0.2584 -0.2537
84259SOL    HW170769   3.134   2.075  12.167 -0.7287 -0.1592  0.3156
84259SOL    HW270770   3.172   2.220  12.187 -1.0421 -0.1011  0.4996
84260SOL     OW70771  14.016   8.446   9.331  0.0443  0.3029 -0.2523
84260SOL    HW170772  14.059   8.445   9.417  1.7107 -0.6680 -1.0501
84260SOL    HW270773  14.042   8.530   9.292  0.4748  0.1279 -0.3540
84261SOL     OW70774  12.649   6.299  13.484  0.4203  0.1865  0.7218
84261SOL    HW170775  12.613   6.360  13.419  2.1249 -0.6595 -1.1194
84261SOL    HW270776  12.602   6.320  13.565 -1.3875  1.6789 -0.6213
84262SOL     OW70777  10.095   3.633   2.173  0.0969 -0.1374  0.0020
84262SOL    HW170778  10.103   3.714   2.123 -0.3196 -0.0132  0.1291
84262SOL    HW270779  10.185   3.610   2.196  0.1091  1.5106  1.9087
84263SOL     OW70780   1.267   9.324   5.395  0.1353 -0.4990 -0.2980
84263SOL    HW170781   1.357   9.353   5.385  0.5670 -1.5620  0.4111
84263SOL    HW270782   1.248   9.275   5.315 -0.5000  1.3886 -1.3661
84264SOL     OW70783   8.855   8.808   5.007  0.1950  0.2466 -0.9172
84264SOL    HW170784   8.919   8.867   4.968 -0.2299  0.5717 -1.1221
84264SOL    HW270785   8.836   8.846   5.093 -0.4422  0.6821 -1.2429
84265SOL     OW70786  12.542   3.321   0.264 -0.0485  0.1083  0.7385
84265SOL    HW170787  12.601   3.294   0.193 -0.2143  1.9666 -0.1700
84265SOL    HW270788  12.500   3.240   0.291  1.6385 -1.0086  0.2323
84266SOL     OW70789  11.186   8.998   9.465  0.5301 -0.0290 -0.2204
84266SOL    HW170790  11.183   8.924   9.403  0.8222 -0.1038 -0.1445
84266SOL    HW270791  11.151   9.072   9.415 -2.7583 -0.8501  0.6115
84267SOL     OW70792   6.654   0.119  13.597  0.4121  0.5277 -0.3747
84267SOL    HW170793   6.735   0.116  13.546  1.0932  2.3449  0.5322
84267SOL    HW270794   6.632   0.212  13.602  0.0899  0.3839  2.1605
84268SOL     OW70795   0.940   2.041   0.065  0.4962 -0.3012  0.5515
84268SOL    HW170796   1.027   2.039   0.024  0.1321 -1.0644 -0.2028
84268SOL    HW270797   0.945   1.977   0.136  0.2141 -1.1898 -0.2120
84269SOL     OW70798  11.396   6.319   8.373  0.4348 -0.8921 -0.3166
84269SOL    HW170799  11.461   6.359   8.315 -0.5869 -0.4602 -1.1942
84269SOL    HW270800  11.384   6.382   8.443  1.3303 -1.2063  0.1357
84270SOL     OW70801   2.367  10.337   1.449  0.6627 -0.1457  0.1133
84270SOL    HW170802   2.276  10.367   1.452  0.9399  0.6778  0.7384
84270SOL    HW270803   2.375  10.294   1.364 -0.5862 -1.1860  0.4820
84271SOL     OW70804   6.184   9.838   3.273 -0.2778 -0.8172 -0.1016
84271SOL    HW170805   6.233   9.766   3.231 -0.2782 -1.2158  0.5765
84271SOL    HW270806   6.203   9.914   3.218  0.2590 -1.1917 -0.4480
84272SOL     OW70807   3.114   5.881   0.220  0.1745 -0.4064  0.0138
84272SOL    HW170808   3.073   5.807   0.267 -0.7722 -0.0771 -0.2660
84272SOL    HW270809   3.138   5.942   0.290 -0.5057 -0.2707  0.1367
84273SOL     OW70810  11.320  10.422  13.356 -0.5304 -0.3059  0.7696
84273SOL    HW170811  11.251  10.424  13.422 -0.5134 -1.0799  0.8195
84273SOL    HW270812  11.350  10.331  13.356  0.0329 -0.1230  0.2784
84274SOL     OW70813   8.432  13.140  13.451 -0.0280 -0.8916  0.1009
84274SOL    HW170814   8.341  13.127  13.423  0.0058  2.4755 -2.0829
84274SOL    HW270815   8.425  13.161  13.544 -1.5486 -0.2338 -0.1270
84275SOL     OW70816   3.974   1.705   3.635 -0.4920 -0.3102  0.1879
84275SOL    HW170817   3.903   1.705   3.699 -2.2139  0.8361 -1.6092
84275SOL    HW270818   3.999   1.797   3.628  0.2057 -0.5280 -0.2417
84276SOL     OW70819   6.720   1.063   8.792  0.2383 -0.1661  0.0493
84276SOL    HW170820   6.810   1.090   8.809 -0.2028  1.9661 -0.6049
84276SOL    HW270821   6.669   1.106   8.861 -0.5806  1.3440 -1.4080
84277SOL     OW70822  13.448  10.104   5.470  0.5292  0.6274  0.3332
84277SOL    HW170823  13.543  10.087   5.471  0.5572  0.7729  0.2461
84277SOL    HW270824  13.414  10.052   5.543  0.7608  1.0447  0.7457
84278SOL     OW70825   6.402   0.146   2.711  0.0017  0.1903 -0.0530
84278SOL    HW170826   6.416   0.061   2.669 -0.6427  0.6295 -1.2382
84278SOL    HW270827   6.319   0.177   2.673  0.1900  1.3084  0.4167
84279SOL     OW70828   4.638   7.933  10.622  0.4291  0.0342 -0.4635
84279SOL    HW170829   4.626   7.969  10.534 -0.5418  0.3816 -0.2081
84279SOL    HW270830   4.559   7.881  10.638  0.0663  0.8693  0.6128
84280SOL     OW70831   3.722  12.266  11.741 -0.3210 -0.4832 -0.2235
84280SOL    HW170832   3.801  12.240  11.789 -0.1505  0.5007  0.0552
84280SOL    HW270833   3.679  12.183  11.719 -0.1320 -0.9871  1.1750
84281SOL     OW70834   7.516   0.976  14.128 -0.3172  0.5087 -0.1341
84281SOL    HW170835   7.501   0.993  14.221 -0.8697 -1.4962  0.1945
84281SOL    HW270836   7.558   0.890  14.126 -0.2845  0.5374 -1.7412
84282SOL     OW70837   6.718   3.753   4.657 -0.1891 -0.0827  0.3254
84282SOL    HW170838   6.726   3.828   4.598 -0.2846 -0.1184  0.2671
84282SOL    HW270839   6.806   3.713   4.656  0.3381  0.9813  1.6431
84283SOL     OW70840  12.514  13.541   2.820 -0.5130  0.2557 -0.4290
84283SOL    HW170841  12.504  13.580   2.906  2.9268  0.0219  0.2522
84283SOL    HW270842  12.460  13.462   2.823 -2.2246  1.4178  0.6423
84284SOL     OW70843   8.270   6.258   5.553  0.4973  0.7701 -0.2870
84284SOL    HW170844   8.177   6.241   5.571  1.2453 -2.5099  1.1908
84284SOL    HW270845   8.310   6.269   5.639  2.1231 -2.4754 -0.4696
84285SOL     OW70846   1.358   3.397   0.286  0.9738 -0.6783  0.1110
84285SOL    HW170847   1.428   3.424   0.344  0.2107 -0.2881  0.8608
84285SOL    HW270848   1.397   3.326   0.233  1.4834 -1.4947  1.5331
84286SOL     OW70849   4.218   2.685   6.498 -0.3030  0.0499 -0.4095
84286SOL    HW170850   4.232   2.623   6.569  0.1133 -0.4828 -0.9397
84286SOL    HW270851   4.136   2.728   6.519  0.6608  1.1626  1.2977
84287SOL     OW70852   8.858   9.594  12.416  0.5423 -0.4522 -0.3584
84287SOL    HW170853   8.928   9.590  12.482  0.3941  0.4534 -0.1277
84287SOL    HW270854   8.891   9.543  12.342  0.7714 -1.3709  0.3603
84288SOL     OW70855   2.871  12.376   8.185 -0.2197 -0.4816  0.0187
84288SOL    HW170856   2.804  12.322   8.143 -0.1503 -0.3476 -0.2627
84288SOL    HW270857   2.897  12.439   8.118 -0.0192 -0.3477  0.2218
84289SOL     OW70858   9.895   6.946   9.276  0.2179  0.1385  0.2133
84289SOL    HW170859   9.986   6.922   9.291  0.0596 -0.4186  0.3162
84289SOL    HW270860   9.885   7.032   9.316  0.3259 -0.4225  1.4938
84290SOL     OW70861   6.698   8.574  10.182  0.1858  0.1805 -0.8565
84290SOL    HW170862   6.609   8.582  10.216  0.9631  0.8478  1.1654
84290SOL    HW270863   6.730   8.491  10.216  1.4627  1.5081  1.4062
84291SOL     OW70864   7.188   4.735  11.579 -0.5770 -0.4497  0.2903
84291SOL    HW170865   7.281   4.724  11.598 -0.6819 -2.4319 -0.0999
84291SOL    HW270866   7.143   4.679  11.642 -1.5646  0.8073  0.7535
84292SOL     OW70867  13.276   0.711   6.303 -0.3823 -0.4654  0.4069
84292SOL    HW170868  13.331   0.752   6.236  0.0634 -0.2281  0.9109
84292SOL    HW270869  13.337   0.658   6.354 -0.4506  0.4739  1.5058
84293SOL     OW70870   1.612  13.100  11.424  0.1111 -0.1654 -0.6973
84293SOL    HW170871   1.676  13.171  11.416  1.6566 -1.2809  0.9994
84293SOL    HW270872   1.580  13.087  11.334  3.2502 -0.4075 -1.9314
84294SOL     OW70873   6.103  10.070   8.782  0.2076 -0.4345 -0.2341
84294SOL    HW170874   6.046  10.015   8.836 -0.2311 -0.3596 -0.6125
84294SOL    HW270875   6.150  10.124   8.845 -0.2579 -0.3848  0.0784
84295SOL     OW70876  13.907   7.245   1.032  0.2214  0.1352 -0.3314
84295SOL    HW170877  13.936   7.228   0.942  0.2048 -0.1108 -0.2907
84295SOL    HW270878  13.984   7.227   1.086  0.2636  0.3922 -0.3058
84296SOL     OW70879   4.812   1.278   6.081  0.2157  0.1188 -0.0145
84296SOL    HW170880   4.767   1.278   5.996  1.5902  0.4876 -0.7704
84296SOL    HW270881   4.887   1.336   6.068  1.7462 -1.6085  0.7441
84297SOL     OW70882   1.200   9.575   8.024  0.4816  0.5445 -0.1742
84297SOL    HW170883   1.122   9.519   8.018  0.9056 -0.0448 -0.2479
84297SOL    HW270884   1.189   9.638   7.952 -0.1833  0.8015  0.1436
84298SOL     OW70885   3.886  12.813   6.050 -0.0787  0.1602  0.4357
84298SOL    HW170886   3.814  12.869   6.078 -0.8591 -0.6171  0.0430
84298SOL    HW270887   3.943  12.870   5.998  0.0127  0.9692  1.3885
84299SOL     OW70888   3.311  13.816   9.403 -0.2278  0.3084  0.2575
84299SOL    HW170889   3.229  13.862   9.387  1.0901  2.9159  0.4435
84299SOL    HW270890   3.367  13.840   9.329  1.1003  0.5206  1.2801
84300SOL     OW70891  12.344   4.673   5.244  0.2404  0.4402 -0.1694
84300SOL    HW170892  12.427   4.704   5.206 -0.2307  1.2078 -0.6214
84300SOL    HW270893  12.332   4.729   5.321  1.3024 -1.2616  1.2975
84301SOL     OW70894   6.519   8.968  11.240  0.3920 -0.0459  0.3625
84301SOL    HW170895   6.442   9.017  11.211  0.5224  0.0094  0.1103
84301SOL    HW270896   6.486   8.879  11.256  0.2161  0.0498  0.5394
84302SOL     OW70897   7.789   6.598   0.583 -0.1798  0.1463 -0.0274
84302SOL    HW170898   7.741   6.602   0.666 -0.0639 -0.2993  0.0637
84302SOL    HW270899   7.757   6.518   0.541 -0.5161  0.5702 -0.5857
84303SOL     OW70900  13.731  10.528   7.607  0.1695 -0.5343  0.1912
84303SOL    HW170901  13.679  10.574   7.540  1.8863 -0.8160 -1.4157
84303SOL    HW270902  13.754  10.596   7.670 -0.2907  0.0531 -0.2539
84304SOL     OW70903   3.366   2.700  12.599 -0.2365 -0.4670 -0.4181
84304SOL    HW170904   3.278   2.733  12.580  0.2617  0.1065 -1.8681
84304SOL    HW270905   3.366   2.684  12.694 -1.7144  0.0671 -0.3090
84305SOL     OW70906   8.949  11.384   2.406  1.3131 -0.3796 -0.1260
84305SOL    HW170907   9.041  11.412   2.410  1.2691  0.3594 -2.5178
84305SOL    HW270908   8.953  11.289   2.404  2.2463 -0.3622 -2.3028
84306SOL     OW70909   0.613  11.787   3.308  0.0478  0.2868 -0.0503
84306SOL    HW170910   0.568  11.817   3.229  0.6953  0.2576 -0.4333
84306SOL    HW270911   0.593  11.853   3.374 -2.9841 -1.1469  0.6462
84307SOL     OW70912   5.563   9.858  10.714 -0.2056 -0.0460  0.0562
84307SOL    HW170913   5.521   9.780  10.750  0.8441 -0.7644 -0.2207
84307SOL    HW270914   5.622   9.888  10.783  0.5004 -0.3894 -0.3838
84308SOL     OW70915   9.032   6.539   8.939  0.1362 -0.0095  0.6572
84308SOL    HW170916   9.080   6.458   8.923  1.9925  0.4267  3.4395
84308SOL    HW270917   9.085   6.607   8.898  0.4123  0.1776  1.3267
84309SOL     OW70918   7.772   1.364   9.184  0.2628  0.6070 -0.3824
84309SOL    HW170919   7.705   1.397   9.124 -0.4414 -0.7453 -0.3732
84309SOL    HW270920   7.854   1.374   9.135 -0.2018  0.2782 -1.2487
84310SOL     OW70921   2.598   6.876   7.925 -0.6257  0.0345  0.1900
84310SOL    HW170922   2.628   6.955   7.881  1.4072  1.0762  3.2010
84310SOL    HW270923   2.668   6.812   7.911 -1.0583 -0.4077 -0.0154
84311SOL     OW70924   4.108   0.496   6.417  0.0732 -0.5490 -0.1632
84311SOL    HW170925   4.053   0.486   6.495 -0.3691  0.5127 -0.3227
84311SOL    HW270926   4.198   0.495   6.451 -0.0784 -1.0946  0.2364
84312SOL     OW70927   9.601   1.638   0.630 -0.4760  0.2945  0.2595
84312SOL    HW170928   9.606   1.583   0.552  3.1648  2.8111 -1.5942
84312SOL    HW270929   9.588   1.726   0.596 -1.4904  1.2080  2.7811
84313SOL     OW70930   1.677   3.979   9.296 -0.0910 -0.0078  0.2032
84313SOL    HW170931   1.693   3.885   9.292 -1.8453 -0.3265 -0.2528
84313SOL    HW270932   1.672   4.000   9.389 -2.0138 -0.8420  0.3281
84314SOL     OW70933   8.423   2.203  11.665 -0.0330 -0.1262 -0.1031
84314SOL    HW170934   8.449   2.223  11.575  0.0150  2.8633  0.4763
84314SOL    HW270935   8.505   2.183  11.710 -0.0721 -1.7577 -0.6974
84315SOL     OW70936   9.713   6.587  11.394  0.2934  0.3699 -0.0773
84315SOL    HW170937   9.652   6.655  11.367 -1.5055 -1.3762 -0.6220
84315SOL    HW270938   9.668   6.540  11.464  0.8913 -1.0829 -0.6263
84316SOL     OW70939   4.335   7.252  12.726  0.0815  0.2655  0.4811
84316SOL    HW170940   4.242   7.230  12.716  1.0508 -3.5698 -2.4362
84316SOL    HW270941   4.366   7.193  12.795  0.8788 -0.7598 -0.7162
84317SOL     OW70942   8.548   8.377  10.418  0.4024  0.2074  0.3005
84317SOL    HW170943   8.477   8.441  10.416 -0.2890 -0.5483 -1.2098
84317SOL    HW270944   8.622   8.424  10.455  0.1068  2.1155 -1.3578
84318SOL     OW70945   3.816  11.025   2.109  0.0979 -0.1167  0.2249
84318SOL    HW170946   3.754  10.978   2.053  0.1484  0.4207 -0.2841
84318SOL    HW270947   3.895  11.033   2.056 -0.2604  1.4870 -0.0916
84319SOL     OW70948  13.794   9.583   1.071 -0.2264 -0.1830  0.4464
84319SOL    HW170949  13.770   9.493   1.089 -0.8656  0.1766  1.5097
84319SOL    HW270950  13.781   9.594   0.977  1.1010 -1.5417  0.0706
84320SOL     OW70951   8.402   8.623   1.605  0.1944 -0.2047 -0.0089
84320SOL    HW170952   8.491   8.656   1.620  0.2433 -0.6077  0.6342
84320SOL    HW270953   8.347   8.701   1.609  0.4283 -0.0581  0.4309
84321SOL     OW70954   5.625   6.605  10.854 -0.4022 -0.0185  0.5052
84321SOL    HW170955   5.649   6.652  10.775 -1.9890  0.4828  0.2735
84321SOL    HW270956   5.598   6.674  10.916 -1.0465 -0.5093  0.7836
84322SOL     OW70957  12.580  12.158   7.547 -0.3537 -0.4978  0.2551
84322SOL    HW170958  12.596  12.064   7.560  0.1161 -0.2775  1.4502
84322SOL    HW270959  12.500  12.175   7.597 -0.8991 -0.4141 -0.6409
84323SOL     OW70960  11.264   6.128   6.397  0.1487 -0.0651 -0.3726
84323SOL    HW170961  11.201   6.172   6.454 -1.8900 -2.8640 -0.2204
84323SOL    HW270962  11.217   6.119   6.313  0.8815 -0.9897 -0.7033
84324SOL     OW70963   7.407   8.164   0.194 -0.0542  0.4860  0.2058
84324SOL    HW170964   7.371   8.076   0.183 -0.0240  0.4911  0.0599
84324SOL    HW270965   7.349   8.206   0.256  1.2795 -0.4117  2.1710
84325SOL     OW70966   6.084  12.191   7.998  0.3335 -0.4022  0.1882
84325SOL    HW170967   6.067  12.285   7.996  1.8338 -0.1109  0.2332
84325SOL    HW270968   6.179  12.183   7.994  0.2609 -1.9062  0.6735
84326SOL     OW70969  12.474   9.073   1.213  0.3512 -0.1875 -0.1567
84326SOL    HW170970  12.421   9.119   1.278  0.3426 -1.1884  0.5652
84326SOL    HW270971  12.544   9.134   1.191 -1.2167  1.2906 -1.3389
84327SOL     OW70972   8.992   5.223  12.517 -0.8571  0.1317 -0.5253
84327SOL    HW170973   8.950   5.148  12.474  0.2199 -0.7460 -0.0687
84327SOL    HW270974   8.954   5.299  12.472 -0.5177 -0.7191 -2.3692
84328SOL     OW70975   3.330   7.855   9.521  0.5694 -0.2251 -0.6254
84328SOL    HW170976   3.258   7.806   9.482 -0.8982 -0.1011  1.7706
84328SOL    HW270977   3.394   7.788   9.545  0.3412 -0.5435 -0.8908
84329SOL     OW70978  13.968   6.190   2.974 -0.0127  0.4589 -0.4076
84329SOL    HW170979  13.906   6.207   2.903  0.0854 -0.3462 -0.6973
84329SOL    HW270980  14.006   6.105   2.953 -0.6169 -0.2048  1.0721
84330SOL     OW70981   3.744   3.309   0.748 -0.1794  0.1108 -0.8099
84330SOL    HW170982   3.746   3.405   0.743  2.0902  0.1358 -0.2598
84330SOL    HW270983   3.703   3.290   0.832  0.1606  0.6126 -0.5294
84331SOL     OW70984   1.335   5.864   2.877 -0.3045 -1.1281  0.1609
84331SOL    HW170985   1.284   5.805   2.932 -0.3160 -1.5725 -0.3164
84331SOL    HW270986   1.341   5.819   2.792 -1.6590  0.2500 -0.7090
84332SOL     OW70987  11.690  12.369   3.955 -0.2012  0.3728 -0.6352
84332SOL    HW170988  11.664  12.300   3.894 -1.6358  1.0740 -0.8459
84332SOL    HW270989  11.632  12.442   3.936 -1.0938  0.4264  1.9315
84333SOL     OW70990   3.450  11.000   8.514 -0.3133 -0.5012  0.4389
84333SOL    HW170991   3.513  10.939   8.552  0.8993 -1.7264 -3.1294
84333SOL    HW270992   3.373  10.946   8.496 -0.0676 -0.5066 -0.6880
84334SOL     OW70993   6.144   5.234   3.448  0.5475  0.7441 -0.4190
84334SOL    HW170994   6.168   5.202   3.361  0.8614  0.6944 -0.3151
84334SOL    HW270995   6.048   5.228   3.451  0.5686  0.3155 -0.5955
84335SOL     OW70996   9.024  10.825   2.888  0.2600 -0.3555 -0.1418
84335SOL    HW170997   8.931  10.845   2.879  0.4695  0.6152 -0.1953
84335SOL    HW270998   9.035  10.802   2.980 -0.0369 -0.5112 -0.1441
84336SOL     OW70999   9.276   3.245   3.707  0.2550 -0.3011  0.0171
84336SOL    HW171000   9.183   3.268   3.700  0.2444 -0.1368  0.6137
84336SOL    HW271001   9.279   3.152   3.686  0.2629  0.1561 -2.1523
84337SOL     OW71002   1.770   1.629   8.704  0.2818 -0.1022  0.1897
84337SOL    HW171003   1.841   1.693   8.702  0.6613 -0.4322  1.5870
84337SOL    HW271004   1.788   1.569   8.633  0.1400  1.0956 -0.8942
84338SOL     OW71005  13.799   9.597   6.207  0.4620 -0.0241  0.3518
84338SOL    HW171006  13.847   9.648   6.142 -1.3078 -0.1562 -1.1244
84338SOL    HW271007  13.716   9.575   6.165 -1.2813  0.8705  3.0566
84339SOL     OW71008   1.248   1.757   0.051 -0.1109  0.5847  0.4940
84339SOL    HW171009   1.281   1.825  -0.008  2.1023 -1.0225 -0.2395
84339SOL    HW271010   1.226   1.684  -0.006 -0.3069 -0.1309  1.4628
84340SOL     OW71011   3.681  13.029  12.486  0.2423  0.7232 -0.1429
84340SOL    HW171012   3.592  13.012  12.454  0.3013  0.7502 -0.3231
84340SOL    HW271013   3.692  13.124  12.475 -0.5403  1.1172  2.0002
84341SOL     OW71014   6.779   7.332   9.552  0.2094 -0.5899 -0.3040
84341SOL    HW171015   6.812   7.411   9.511  0.2707 -0.1180  0.6440
84341SOL    HW271016   6.691   7.355   9.583  0.8181 -0.3962  1.3561
84342SOL     OW71017   8.940  13.469   8.202  0.4728  0.2759  0.1448
84342SOL    HW171018   8.957  13.538   8.138 -0.6940  1.0101  0.6012
84342SOL    HW271019   8.983  13.392   8.166  1.9127  1.2537 -0.3168
84343SOL     OW71020   4.069  10.576   5.536 -0.2508 -0.1447  0.4404
84343SOL    HW171021   4.115  10.584   5.620 -1.0521  2.0100  0.7381
84343SOL    HW271022   4.017  10.655   5.530  1.0048  0.5946 -2.8665
84344SOL     OW71023   9.588   4.888   7.434  0.0409 -0.4585 -0.2731
84344SOL    HW171024   9.505   4.915   7.394  0.8467  2.1537 -0.3866
84344SOL    HW271025   9.578   4.794   7.449 -2.2699 -0.5453 -1.8229
84345SOL     OW71026  12.310  11.862   8.953 -0.0112 -0.4083 -0.1859
84345SOL    HW171027  12.322  11.901   9.040 -0.9579 -0.6064  0.0520
84345SOL    HW271028  12.391  11.814   8.937 -0.0562 -0.8809  0.8747
84346SOL     OW71029   3.383  10.747  12.062 -0.0892 -0.2609 -0.4404
84346SOL    HW171030   3.468  10.786  12.041 -0.9658  1.7311 -0.4655
84346SOL    HW271031   3.372  10.678  11.996  0.9742  0.2284 -1.1611
84347SOL     OW71032   2.679   0.824  11.272  0.3341  0.0294  0.1751
84347SOL    HW171033   2.703   0.777  11.192  2.2744 -0.8737  1.2241
84347SOL    HW271034   2.585   0.808  11.281  0.3711 -1.1095 -1.1271
84348SOL     OW71035   1.909   7.178  10.928 -0.1185  0.2771  0.0346
84348SOL    HW171036   1.843   7.246  10.919  1.1082  1.2801 -1.9554
84348SOL    HW271037   1.861   7.102  10.961 -1.9574  1.3955  0.0422
84349SOL     OW71038  10.593   7.060  11.976  0.3548  0.1591 -0.0398
84349SOL    HW171039  10.503   7.076  12.005 -0.2911  0.0613 -1.8218
84349SOL    HW271040  10.605   6.966  11.989  0.1505  0.1492  0.0958
84350SOL     OW71041   8.495   5.828   8.197 -0.0848  0.0604 -0.2048
84350SOL    HW171042   8.478   5.740   8.232 -2.7086  0.1705 -0.9645
84350SOL    HW271043   8.507   5.883   8.274 -0.8974 -0.5400  0.3622
84351SOL     OW71044   2.109   7.023  14.079  0.2574 -0.3737 -0.2670
84351SOL    HW171045   2.096   6.948  14.022  1.8665 -0.5183 -0.4953
84351SOL    HW271046   2.100   7.099  14.021  1.6788 -0.5130 -0.7079
84352SOL     OW71047  12.110   5.510   9.624 -0.8863 -0.6214 -0.2805
84352SOL    HW171048  12.082   5.427   9.585 -2.7945 -0.6842  1.0796
84352SOL    HW271049  12.178   5.485   9.686 -0.6421 -1.0150 -0.6995
84353SOL     OW71050   5.247   4.762   9.804 -0.8106  0.0569  0.4486
84353SOL    HW171051   5.204   4.757   9.718  0.0678  0.0501 -0.0032
84353SOL    HW271052   5.175   4.766   9.866 -1.5035 -1.5661 -0.1720
84354SOL     OW71053  13.941   7.261  13.823  0.0096  0.1075  0.3913
84354SOL    HW171054  13.980   7.186  13.778  1.5153  1.3735 -0.5084
84354SOL    HW271055  13.994   7.336  13.796 -0.1012  1.2038  2.9360
84355SOL     OW71056   4.541   0.648   8.985  0.0529  0.0702 -0.0461
84355SOL    HW171057   4.526   0.721   9.044  1.4095 -0.0447  0.4699
84355SOL    HW271058   4.496   0.574   9.025 -2.2968  0.8238 -1.1432
84356SOL     OW71059   0.305  10.041  10.381  0.2200  0.0493 -0.5342
84356SOL    HW171060   0.301  10.086  10.297  1.1826 -0.6262 -0.9602
84356SOL    HW271061   0.263   9.956  10.365  0.0275  0.0819 -0.2146
84357SOL     OW71062   1.230   4.244   0.310  0.8273  0.2382  0.0467
84357SOL    HW171063   1.193   4.330   0.288  1.4771  0.4499 -0.2401
84357SOL    HW271064   1.315   4.263   0.349  0.7940 -0.2610  0.3733
84358SOL     OW71065   2.775  12.642  10.292 -0.6690  0.7601  0.3055
84358SOL    HW171066   2.849  12.598  10.335 -0.7518  0.4552  0.1359
84358SOL    HW271067   2.805  12.657  10.202 -1.7789 -1.8206 -0.5885
84359SOL     OW71068   3.724   7.598   1.333 -0.1253  0.1715  0.0181
84359SOL    HW171069   3.639   7.555   1.320  0.0799 -1.1386  2.4545
84359SOL    HW271070   3.777   7.532   1.377  1.4297  1.7285  0.5818
84360SOL     OW71071   3.282   7.440   5.763 -0.0224  0.5580 -0.0688
84360SOL    HW171072   3.353   7.502   5.747  0.0908  0.7452  1.0640
84360SOL    HW271073   3.220   7.488   5.816 -0.4842  0.0516 -0.1385
84361SOL     OW71074   0.034   6.638   0.947 -0.1776 -0.3740  0.0338
84361SOL    HW171075   0.035   6.668   0.856 -1.1798  0.4668  0.2779
84361SOL    HW271076  -0.027   6.697   0.991  0.1125 -0.9162  1.2090
84362SOL     OW71077  11.034  10.271   7.451 -0.3767 -0.7212 -0.0704
84362SOL    HW171078  11.111  10.288   7.505 -0.0308 -2.0099 -0.1430
84362SOL    HW271079  10.989  10.198   7.493 -0.6996 -1.0223 -0.9060
84363SOL     OW71080   9.316   6.532   3.088  0.1023 -0.1598  0.0539
84363SOL    HW171081   9.364   6.506   3.167 -0.2938  0.1717  0.4045
84363SOL    HW271082   9.358   6.615   3.062  0.3853 -0.3865 -0.2180
84364SOL     OW71083   3.616  12.892  13.322 -0.9000 -0.2253  0.2002
84364SOL    HW171084   3.667  12.822  13.282 -2.0166 -0.1672 -1.4465
84364SOL    HW271085   3.681  12.943  13.371  0.5109 -0.5883 -1.1703
84365SOL     OW71086   8.287   2.147   9.382 -0.3601 -0.5017  0.0399
84365SOL    HW171087   8.198   2.181   9.388 -0.2803 -0.4100  0.9941
84365SOL    HW271088   8.318   2.175   9.296 -0.7161  0.8347  0.3142
84366SOL     OW71089  12.157  10.512  12.430  0.2994  0.0107 -0.0438
84366SOL    HW171090  12.120  10.471  12.508  1.3384 -0.6473  0.1155
84366SOL    HW271091  12.239  10.467  12.415  0.8208  1.1196 -0.6753
84367SOL     OW71092  11.425  11.709   2.882 -0.8527  0.6526  0.4012
84367SOL    HW171093  11.450  11.669   2.798  1.0031  1.8334  0.3453
84367SOL    HW271094  11.430  11.803   2.866 -1.8075  0.9023  1.4808
84368SOL     OW71095   7.714  12.037   6.203  0.3617  0.2216 -0.4132
84368SOL    HW171096   7.735  12.129   6.218  0.2331 -0.1337  2.6244
84368SOL    HW271097   7.621  12.029   6.224  0.2203 -0.5320 -1.2275
84369SOL     OW71098   4.897   2.963   1.663  0.1712 -0.0332  0.1639
84369SOL    HW171099   4.874   2.883   1.709  2.7763  0.3110  2.2744
84369SOL    HW271100   4.974   2.941   1.612 -0.0732  0.7323 -0.5730
84370SOL     OW71101   8.867   4.440   0.920  0.4811 -0.1630  0.0019
84370SOL    HW171102   8.851   4.397   0.836  2.0482 -1.2118  0.1940
84370SOL    HW271103   8.890   4.530   0.897 -0.7652  0.0359 -0.5545
84371SOL     OW71104  12.430  10.659   5.664  0.1492  0.5491 -0.0566
84371SOL    HW171105  12.340  10.634   5.645 -0.1768  1.1049  0.7496
84371SOL    HW271106  12.433  10.670   5.759  1.3218 -0.4649  0.0505
84372SOL     OW71107   2.882  11.601   1.304 -0.3655  0.3145  0.2626
84372SOL    HW171108   2.842  11.626   1.220  1.3281 -0.2827 -0.7848
84372SOL    HW271109   2.884  11.682   1.354  0.5630  1.2249 -1.1558
84373SOL     OW71110   0.529   7.761   6.345 -0.4639  0.2243  0.3310
84373SOL    HW171111   0.438   7.745   6.319 -0.5414  0.2177  0.5994
84373SOL    HW271112   0.523   7.832   6.409 -0.2107  0.7022 -0.1703
84374SOL     OW71113   3.396   7.874   4.940  0.5547 -0.1379  0.0713
84374SOL    HW171114   3.339   7.799   4.960  2.0643 -1.6661 -1.0545
84374SOL    HW271115   3.336   7.948   4.930 -1.2094 -1.5791 -0.5757
84375SOL     OW71116   3.018  12.155   7.057 -0.1136 -0.1726  0.0394
84375SOL    HW171117   3.111  12.170   7.071 -0.3858  0.9639  0.7886
84375SOL    HW271118   2.986  12.125   7.142 -0.9161  2.1537  0.6404
84376SOL     OW71119  13.402   4.008   9.161  0.1951 -0.4848  0.1994
84376SOL    HW171120  13.411   3.937   9.225 -1.9045 -0.3546  0.6873
84376SOL    HW271121  13.461   4.076   9.193  0.7063 -1.2064  0.8392
84377SOL     OW71122   8.564   8.416   8.573  0.2811  0.0471 -0.1552
84377SOL    HW171123   8.626   8.363   8.623  0.5353 -0.2283 -0.7518
84377SOL    HW271124   8.509   8.458   8.639 -0.7969 -1.9769  0.3085
84378SOL     OW71125   2.454   4.877  12.192  0.4289 -0.3136 -0.3805
84378SOL    HW171126   2.452   4.825  12.273  2.1833 -1.6982 -1.1398
84378SOL    HW271127   2.369   4.861  12.150  1.0668 -3.0863 -0.8223
84379SOL     OW71128  12.129  11.236   1.245  0.3513  0.4191  0.0136
84379SOL    HW171129  12.152  11.325   1.274 -1.3346  1.1916 -0.8611
84379SOL    HW271130  12.078  11.250   1.165 -0.3518 -1.3235  0.1220
84380SOL     OW71131   8.232   8.772   9.338 -0.0583 -0.0832  0.0980
84380SOL    HW171132   8.255   8.861   9.363  0.3736 -0.4862  1.2053
84380SOL    HW271133   8.163   8.747   9.399  2.5541 -1.8875  2.6107
84381SOL     OW71134   1.905  11.220   8.657 -0.2825  0.5287  0.4304
84381SOL    HW171135   1.888  11.223   8.562  0.1790 -1.1133  0.2801
84381SOL    HW271136   1.858  11.297   8.691  0.3121  1.6972 -1.2250
84382SOL     OW71137  11.678   3.560  12.928 -0.0272 -0.4340 -0.3920
84382SOL    HW171138  11.634   3.644  12.938 -2.0703 -1.5498  0.6415
84382SOL    HW271139  11.610   3.500  12.898  1.3304 -1.7823 -0.9103
84383SOL     OW71140   0.540   6.353  10.238 -0.1468  0.0047 -0.1841
84383SOL    HW171141   0.513   6.431  10.286 -1.1360 -0.1082 -0.5395
84383SOL    HW271142   0.497   6.281  10.283 -0.3709 -0.1891 -0.6988
84384SOL     OW71143   8.206  13.179   7.977 -0.1743  0.7162  0.2072
84384SOL    HW171144   8.152  13.125   7.920 -1.5378  1.4030  0.7742
84384SOL    HW271145   8.160  13.177   8.062  0.5484  1.5340  0.6383
84385SOL     OW71146  10.961   9.459  13.081  0.7180  0.0066  0.0738
84385SOL    HW171147  10.881   9.492  13.122  0.6594  1.4474 -1.1391
84385SOL    HW271148  10.932   9.382  13.032  1.0516 -2.8085  3.8171
84386SOL     OW71149   5.541  13.987  13.107  0.9063 -0.0263  0.8272
84386SOL    HW171150   5.626  13.971  13.067  0.0370  0.2988 -1.2516
84386SOL    HW271151   5.480  13.933  13.057 -0.3452  0.9751  1.2138
84387SOL     OW71152  11.561   0.563  10.145  0.2203 -0.0293 -0.0127
84387SOL    HW171153  11.467   0.551  10.155  0.2279  0.6922  0.9630
84387SOL    HW271154  11.598   0.543  10.231  0.7535  1.6030  0.1684
84388SOL     OW71155   4.157   4.484   6.495  0.2528 -0.6270  0.6397
84388SOL    HW171156   4.098   4.551   6.462 -0.6086 -1.7897 -0.2590
84388SOL    HW271157   4.104   4.433   6.556  0.2659 -1.7072 -0.2075
84389SOL     OW71158   0.805  11.593   7.560 -0.0071  0.3124 -0.2012
84389SOL    HW171159   0.836  11.551   7.480 -0.7758 -0.1623 -0.2582
84389SOL    HW271160   0.883  11.635   7.596  0.8429 -1.2644 -0.0855
84390SOL     OW71161  11.108   6.989   9.061 -1.0686 -0.2979  0.2556
84390SOL    HW171162  11.013   6.978   9.059 -1.5019  2.5151 -1.8996
84390SOL    HW271163  11.125   7.033   9.145 -1.7182 -0.4391  0.4704
84391SOL     OW71164  10.164  10.298   1.188 -0.5041  0.0748 -0.1053
84391SOL    HW171165  10.172  10.393   1.195  1.5352  0.0191 -0.8872
84391SOL    HW271166  10.242  10.264   1.232 -0.2210 -1.1421 -1.4711
84392SOL     OW71167   5.454  11.729   6.587 -0.3759 -0.4640 -0.4497
84392SOL    HW171168   5.468  11.822   6.573 -1.3348 -0.1744  0.4396
84392SOL    HW271169   5.443  11.693   6.499 -1.7577  0.5592 -0.7150
84393SOL     OW71170  12.385   1.422   9.135 -0.0773 -0.1636 -0.3892
84393SOL    HW171171  12.443   1.347   9.150 -0.0281 -0.0003  0.3006
84393SOL    HW271172  12.298   1.383   9.129 -0.1413 -0.2247  0.7040
84394SOL     OW71173   2.730  12.695   4.514 -0.0298  0.4166  0.0265
84394SOL    HW171174   2.788  12.625   4.485 -2.0780 -1.3254 -0.1067
84394SOL    HW271175   2.717  12.749   4.437 -0.8818 -0.8696 -0.7586
84395SOL     OW71176   8.590   3.665  11.432  0.0002  0.3998  0.3880
84395SOL    HW171177   8.609   3.572  11.431 -3.2626 -0.3719  0.1491
84395SOL    HW271178   8.531   3.679  11.359  1.1705  2.9161 -0.2141
84396SOL     OW71179  12.052  10.607   2.545 -0.4621 -0.6972 -0.0082
84396SOL    HW171180  12.062  10.566   2.631  2.2550  0.8174  0.5080
84396SOL    HW271181  12.120  10.674   2.542 -1.2625  0.1380 -2.8918
84397SOL     OW71182  11.865   5.057   3.155  0.5489  0.2715 -0.0872
84397SOL    HW171183  11.935   5.120   3.171 -0.1697  1.0679 -0.0041
84397SOL    HW271184  11.786   5.110   3.147 -0.4498 -0.7437  2.1394
84398SOL     OW71185   2.514   8.559   7.319  0.0700  0.3751 -0.2832
84398SOL    HW171186   2.548   8.471   7.301  0.0527  0.1833  0.5572
84398SOL    HW271187   2.550   8.581   7.405 -0.6416  0.8163 -0.0850
84399SOL     OW71188  13.967   0.565   9.800 -0.3381 -0.1952  0.9150
84399SOL    HW171189  14.035   0.498   9.796  0.7779  0.7631  2.5322
84399SOL    HW271190  13.887   0.520   9.771  0.7048 -1.7328  0.3087
84400SOL     OW71191   5.636   5.100  11.544  0.0645 -0.6128 -0.3926
84400SOL    HW171192   5.716   5.062  11.507  2.4923  0.0026  3.5997
84400SOL    HW271193   5.586   5.025  11.574  0.1619 -0.9373 -1.0237
84401SOL     OW71194   2.719   8.315   1.253 -0.1381 -0.0159  0.1962
84401SOL    HW171195   2.729   8.338   1.161 -0.0089 -0.7014  0.0302
84401SOL    HW271196   2.658   8.241   1.252  0.0171 -0.1496  0.6441
84402SOL     OW71197   2.615   1.131   0.859 -0.2427 -0.2897  0.5018
84402SOL    HW171198   2.647   1.203   0.914  0.3833 -1.2550  1.4532
84402SOL    HW271199   2.532   1.162   0.824  0.7660  1.5020 -0.3956
84403SOL     OW71200  10.505  10.290   9.592 -0.6844  0.4459  0.0581
84403SOL    HW171201  10.503  10.382   9.619  1.0880  0.3615  0.6086
84403SOL    HW271202  10.583  10.254   9.634 -1.9646 -1.6504  0.8537
84404SOL     OW71203   7.176   3.214   4.028 -0.7587 -0.0308 -0.6453
84404SOL    HW171204   7.257   3.189   3.984  1.2797  4.6704 -0.1008
84404SOL    HW271205   7.112   3.224   3.958  0.4004  0.4538 -1.6560
84405SOL     OW71206   6.357   5.798  14.075  0.4041 -0.0100 -0.3854
84405SOL    HW171207   6.371   5.752  14.158 -0.0074 -0.4982 -0.5839
84405SOL    HW271208   6.270   5.837  14.084  0.4317  0.0838 -0.5269
84406SOL     OW71209   2.829   7.499  12.465  0.0666  0.0505 -0.3884
84406SOL    HW171210   2.762   7.539  12.520  0.4452  0.5511 -0.2942
84406SOL    HW271211   2.779   7.443  12.405 -0.4488  0.5481 -0.4293
84407SOL     OW71212   1.440   0.965   0.290  0.2963 -0.1536 -0.8458
84407SOL    HW171213   1.484   0.995   0.369  1.5620  0.0155 -1.5817
84407SOL    HW271214   1.350   0.995   0.299  0.7465  1.0357 -0.0876
84408SOL     OW71215   9.601   6.725   2.827 -0.0423 -0.4313  0.3286
84408SOL    HW171216   9.544   6.725   2.904 -1.6465  0.4626 -0.8091
84408SOL    HW271217   9.590   6.811   2.788 -0.0440 -1.1835 -1.4519
84409SOL     OW71218   2.928   5.671   9.974  0.1893  0.1211  0.3377
84409SOL    HW171219   2.850   5.653  10.027  0.2326 -0.9621  0.0662
84409SOL    HW271220   2.925   5.603   9.906 -0.0824  1.6797 -1.2797
84410SOL     OW71221   4.579   0.760   0.490 -1.0834  0.2941 -0.2177
84410SOL    HW171222   4.609   0.689   0.545  0.7685  2.5874  1.9427
84410SOL    HW271223   4.627   0.749   0.408 -0.0282 -0.3789  0.4682
84411SOL     OW71224   0.025  12.358  13.540 -0.7202 -0.0449  0.0853
84411SOL    HW171225   0.104  12.353  13.593 -0.5580  2.3948  0.1657
84411SOL    HW271226  -0.043  12.388  13.601 -1.3310 -0.4732 -0.3653
84412SOL     OW71227  13.223   6.358   7.173 -0.0793 -0.0532  0.1883
84412SOL    HW171228  13.205   6.395   7.087  2.4726 -0.9967 -0.8333
84412SOL    HW271229  13.263   6.430   7.223  0.4748 -0.1116 -0.1699
84413SOL     OW71230   6.250  10.411   2.764  0.4156 -0.2763  0.2993
84413SOL    HW171231   6.325  10.353   2.768  0.5574 -0.6218 -3.7045
84413SOL    HW271232   6.175  10.353   2.748 -0.2824  0.2754  1.4573
84414SOL     OW71233   7.142  12.951   3.030  0.3626  0.4150  0.0490
84414SOL    HW171234   7.080  13.020   3.054 -0.4644 -0.9809  2.2452
84414SOL    HW271235   7.118  12.926   2.941  1.2258  3.4495 -1.1703
84415SOL     OW71236   8.588  11.831   7.804  0.4725 -0.2497  0.0411
84415SOL    HW171237   8.658  11.789   7.754  0.6008 -0.3459  0.2977
84415SOL    HW271238   8.613  11.923   7.809 -0.6827  0.2346 -2.0237
84416SOL     OW71239  10.689   3.531   0.366 -0.0387  0.3264 -1.2084
84416SOL    HW171240  10.677   3.519   0.272  3.5063 -1.4433 -1.5990
84416SOL    HW271241  10.764   3.591   0.374  0.2733 -0.2092  0.4392
84417SOL     OW71242  12.058  13.501   1.162  0.0715 -0.0966  0.3513
84417SOL    HW171243  12.023  13.547   1.238  0.9481  1.3804 -0.0828
84417SOL    HW271244  12.069  13.411   1.191 -2.3604 -0.2403  1.0234
84418SOL     OW71245   2.502   0.917   7.894 -0.0056  0.1154 -0.6621
84418SOL    HW171246   2.517   0.827   7.865  0.4248  1.3339 -5.0525
84418SOL    HW271247   2.579   0.938   7.948  1.2853 -1.3825 -1.8031
84419SOL     OW71248  12.628   7.877   4.717 -0.6744  0.0806  0.5151
84419SOL    HW171249  12.669   7.890   4.803  1.1690 -3.5976  0.4001
84419SOL    HW271250  12.536   7.899   4.731  0.1094  2.6740  2.4963
84420SOL     OW71251   0.815  12.687   8.802  0.1864  0.1927  0.4245
84420SOL    HW171252   0.735  12.634   8.797  1.0453 -1.4496  2.4372
84420SOL    HW271253   0.828  12.719   8.713 -2.5458  0.3174 -0.0331
84421SOL     OW71254   7.132  11.655  13.202 -0.3849  0.2299 -0.5547
84421SOL    HW171255   7.052  11.659  13.150 -2.0330 -1.0278  1.6882
84421SOL    HW271256   7.116  11.712  13.276  0.8548  0.0277 -0.1034
84422SOL     OW71257   4.372  10.760   4.174  0.4688  0.1102 -0.2684
84422SOL    HW171258   4.337  10.696   4.111 -1.3081 -0.0621  0.8192
84422SOL    HW271259   4.297  10.814   4.198  1.3618  0.9213  0.8289
84423SOL     OW71260   8.039   1.349   9.048 -0.2860 -0.0599  0.2759
84423SOL    HW171261   8.095   1.283   9.089  0.1180  0.9064  1.3551
84423SOL    HW271262   8.097   1.424   9.035 -1.2697  0.9325  1.3251
84424SOL     OW71263  12.372  12.020   7.698  0.0386 -0.0609  0.7394
84424SOL    HW171264  12.385  12.040   7.791 -1.5594  2.4146  0.5359
84424SOL    HW271265  12.314  11.944   7.698 -0.6897  0.4648  1.8224
84425SOL     OW71266   7.192   3.702   9.348  0.1148  0.0839  0.0811
84425SOL    HW171267   7.222   3.659   9.268  2.1230 -2.7966  2.1706
84425SOL    HW271268   7.241   3.785   9.350 -1.2233  1.0660 -2.3406
84426SOL     OW71269   4.821   9.090   2.678  0.8940 -0.0252 -0.3733
84426SOL    HW171270   4.748   9.036   2.706  1.1066 -0.5371 -0.8005
84426SOL    HW271271   4.812   9.170   2.730  0.8260 -0.6317  0.5865
84427SOL     OW71272   3.623   0.637  12.367 -0.9749  0.3026  1.0484
84427SOL    HW171273   3.546   0.638  12.424 -0.2766  0.3324  2.0023
84427SOL    HW271274   3.618   0.720  12.319 -1.1135  0.6772  1.6957
84428SOL     OW71275  11.822  13.536   2.917 -0.1609 -0.0054  0.5204
84428SOL    HW171276  11.832  13.537   2.822  1.0608 -2.5427  0.5278
84428SOL    HW271277  11.901  13.580   2.950  0.0238 -0.2163  0.3609
84429SOL     OW71278   0.184   9.942   6.701  0.4923 -0.0935 -0.5672
84429SOL    HW171279   0.277   9.962   6.697  0.8291 -1.1911  0.8866
84429SOL    HW271280   0.171   9.902   6.787 -1.4832  0.7583 -0.4069
84430SOL     OW71281  14.015   7.835  11.601  0.4327  0.1667  0.2628
84430SOL    HW171282  13.955   7.791  11.660 -1.7189  0.9130 -1.2445
84430SOL    HW271283  14.067   7.764  11.562  1.4538 -0.3822  2.4456
84431SOL     OW71284   2.464   5.381  13.474  0.1761  0.3172 -0.3281
84431SOL    HW171285   2.498   5.452  13.420  1.3925 -0.2862 -0.4164
84431SOL    HW271286   2.369   5.385  13.464  0.1931  2.1571  0.0023
84432SOL     OW71287   5.571   4.381   2.523 -0.4240 -0.5439 -0.1628
84432SOL    HW171288   5.568   4.300   2.472  2.0888  0.2369 -1.7205
84432SOL    HW271289   5.567   4.451   2.459 -1.2692  0.5814  1.0646
84433SOL     OW71290   0.556   2.454   5.768  0.1986 -0.3149  0.0851
84433SOL    HW171291   0.504   2.405   5.704  0.0311 -1.4309  1.0283
84433SOL    HW271292   0.493   2.511   5.812  0.1187 -0.3330 -0.0061
84434SOL     OW71293   8.735  13.858   0.212  0.2659  0.0147  0.2395
84434SOL    HW171294   8.828  13.867   0.230  0.3601  0.2189 -0.3233
84434SOL    HW271295   8.729  13.859   0.116 -0.4318  1.2368  0.2827
84435SOL     OW71296   3.112   1.373   7.655  0.2503 -0.0147  0.0024
84435SOL    HW171297   3.161   1.364   7.573  1.4525  1.9576  0.4299
84435SOL    HW271298   3.094   1.283   7.682  0.6816 -0.7299 -1.9161
84436SOL     OW71299   2.989   1.160   9.723  0.2157 -0.0003 -0.5907
84436SOL    HW171300   2.948   1.160   9.810  2.0697  0.5401  0.3459
84436SOL    HW271301   3.007   1.252   9.705  1.4509 -0.2406 -0.7128
84437SOL     OW71302   8.724   4.062   0.615 -0.3367 -0.0735 -0.2808
84437SOL    HW171303   8.723   4.138   0.672  0.3313 -1.1632  1.2713
84437SOL    HW271304   8.751   4.096   0.529 -0.6285  1.4945  0.2267
84438SOL     OW71305   2.999   4.627   9.202 -0.2083  0.0035 -0.3689
84438SOL    HW171306   2.990   4.539   9.241  2.0924  0.5211  1.6056
84438SOL    HW271307   2.967   4.686   9.270 -2.4985  0.7508 -1.9912
84439SOL     OW71308   7.184   4.937   3.309  0.3339  0.1366  0.4213
84439SOL    HW171309   7.133   4.958   3.231 -0.5087 -0.2403  0.8504
84439SOL    HW271310   7.271   4.973   3.292 -0.7151  3.1334  0.6785
84440SOL     OW71311   6.022   8.738   2.506 -0.0604  0.2864  0.2471
84440SOL    HW171312   5.966   8.698   2.572 -1.2814  0.6929 -0.5035
84440SOL    HW271313   5.976   8.818   2.480  0.4561  0.2220 -0.9684
84441SOL     OW71314  10.847   9.555   9.151  0.2592 -0.1504 -0.1034
84441SOL    HW171315  10.888   9.585   9.070 -1.4068 -1.5548 -1.5464
84441SOL    HW271316  10.754   9.548   9.129  0.0218 -2.4580  1.3123
84442SOL     OW71317   5.542   1.627  13.745  0.3187  0.0062  0.0694
84442SOL    HW171318   5.613   1.682  13.777  1.4956 -1.5152  0.1921
84442SOL    HW271319   5.581   1.578  13.672 -1.0709  0.2624 -0.9009
84443SOL     OW71320   5.659   5.526   8.970  0.4270  0.0356 -0.5795
84443SOL    HW171321   5.667   5.551   8.877 -0.7982  0.4869 -0.5736
84443SOL    HW271322   5.675   5.608   9.017  1.2858 -0.2422 -0.3622
84444SOL     OW71323  10.571   0.472   9.806  0.4088 -0.3838 -0.2365
84444SOL    HW171324  10.603   0.423   9.882 -0.5936  0.5866  0.8440
84444SOL    HW271325  10.599   0.420   9.731  2.3187 -0.8595  0.7331
84445SOL     OW71326   9.193   1.520   8.636 -0.3903  0.3457  0.0565
84445SOL    HW171327   9.243   1.471   8.702 -1.1090  0.9764  1.1042
84445SOL    HW271328   9.259   1.548   8.573 -0.0708 -2.8720 -1.2486
84446SOL     OW71329   8.084   0.153   7.301  0.1613  0.1453  0.1992
84446SOL    HW171330   8.010   0.121   7.353  0.2428  0.8198  0.7392
84446SOL    HW271331   8.119   0.226   7.352  0.9876  0.0475 -0.2230
84447SOL     OW71332  13.192   4.454   6.906 -0.2078  0.2990  0.1185
84447SOL    HW171333  13.147   4.445   6.990 -1.0458 -0.2167 -0.3699
84447SOL    HW271334  13.283   4.428   6.925 -0.3984  0.1399  0.8536
84448SOL     OW71335   7.831  11.736   0.143 -0.5801  0.2378  0.3716
84448SOL    HW171336   7.913  11.766   0.104 -1.1661 -0.7780 -1.7401
84448SOL    HW271337   7.842  11.642   0.154 -1.9954 -0.1881 -1.4285
84449SOL     OW71338   7.625   1.128  10.656  0.4545  0.1754 -0.5558
84449SOL    HW171339   7.539   1.119  10.698 -0.0533  0.9018 -1.3862
84449SOL    HW271340   7.608   1.105  10.564  1.4002 -0.7596 -0.5172
84450SOL     OW71341  12.501  13.110  10.697 -0.1328  0.1342 -0.2648
84450SOL    HW171342  12.558  13.121  10.773 -0.1416 -0.3328 -0.1862
84450SOL    HW271343  12.457  13.026  10.712  0.8195 -0.6215 -1.3778
84451SOL     OW71344   5.784  12.725   0.439 -0.2086 -0.1736  0.1558
84451SOL    HW171345   5.797  12.780   0.361  2.7506 -1.5082 -0.4591
84451SOL    HW271346   5.818  12.778   0.511  0.6374 -0.3250 -0.1106
84452SOL     OW71347   4.160   4.421   3.523  0.1092  0.1789  0.2880
84452SOL    HW171348   4.086   4.468   3.484  0.1166 -1.9506 -2.6751
84452SOL    HW271349   4.121   4.348   3.571  0.1386 -1.3019 -1.7764
84453SOL     OW71350   3.069   6.663   4.039  0.6424  0.1357  0.6564
84453SOL    HW171351   3.091   6.636   4.128  0.3892  0.4864  0.8265
84453SOL    HW271352   3.005   6.598   4.009  0.2058  0.4148  0.9816
84454SOL     OW71353   5.726   9.757   7.740  0.3213  0.2226 -0.2627
84454SOL    HW171354   5.697   9.845   7.717 -0.4310  0.1616  0.4140
84454SOL    HW271355   5.725   9.708   7.657 -0.7720  0.4321 -0.3770
84455SOL     OW71356   6.492  12.201   9.098  0.3219  0.2856 -0.0178
84455SOL    HW171357   6.484  12.119   9.146 -0.0519  0.0632 -0.4448
84455SOL    HW271358   6.532  12.175   9.014 -0.8010  0.3555 -0.5969
84456SOL     OW71359   5.382   3.927  13.549  0.2892 -0.0646 -0.2716
84456SOL    HW171360   5.434   3.854  13.516  0.9338 -0.1403  0.8483
84456SOL    HW271361   5.413   4.003  13.501 -0.4858 -0.5149 -1.5533
84457SOL     OW71362   9.985   6.884  10.956  0.5483  0.1227  0.0926
84457SOL    HW171363   9.893   6.908  10.942  0.5203 -0.5454 -1.0624
84457SOL    HW271364   9.981   6.794  10.989  0.7666  0.4207  0.9500
84458SOL     OW71365  11.686   6.616   7.489 -0.1792  0.2325  0.2426
84458SOL    HW171366  11.650   6.669   7.418 -1.1128  0.5035  0.9013
84458SOL    HW271367  11.713   6.680   7.555 -0.6858 -0.0738  0.7536
84459SOL     OW71368   4.946   0.601   3.999 -0.3009 -0.1961  0.0812
84459SOL    HW171369   4.936   0.548   3.919  2.0166 -0.5303 -0.0585
84459SOL    HW271370   4.934   0.539   4.070  0.6834 -0.5749 -0.0672
84460SOL     OW71371  10.803  12.516   7.391 -0.0169  0.2795  0.3578
84460SOL    HW171372  10.731  12.452   7.394  1.3807 -1.3145  1.7752
84460SOL    HW271373  10.881  12.463   7.377  0.8077  2.1263 -3.1613
84461SOL     OW71374   2.141   4.922   2.212 -0.7831  0.0762 -0.1427
84461SOL    HW171375   2.213   4.873   2.172 -0.8456 -0.5541  0.4969
84461SOL    HW271376   2.173   5.012   2.217 -0.8485  0.2279 -1.7810
84462SOL     OW71377   2.182   8.547  12.032 -0.3095 -0.0145  0.2161
84462SOL    HW171378   2.182   8.477  12.098  0.3828  0.2946  0.5528
84462SOL    HW271379   2.267   8.539  11.990 -0.4786  0.2357 -0.1709
84463SOL     OW71380   5.870   8.861   8.993 -0.6482  0.2311  0.5259
84463SOL    HW171381   5.914   8.943   9.012 -0.8115  0.2758  0.7217
84463SOL    HW271382   5.897   8.838   8.904 -0.6087  0.4990  0.4699
84464SOL     OW71383   6.359  10.547  11.877 -0.2437  0.0053  0.0465
84464SOL    HW171384   6.427  10.546  11.944  0.6296  3.1609 -0.6120
84464SOL    HW271385   6.406  10.540  11.794 -0.6336  1.8807 -0.4019
84465SOL     OW71386   9.013   7.486  12.388 -0.5890 -0.0278  0.1634
84465SOL    HW171387   9.058   7.570  12.376  0.3650 -0.6487 -0.7609
84465SOL    HW271388   8.976   7.491  12.476 -0.4070  1.2899  0.1865
84466SOL     OW71389   2.637  11.660   3.461  0.0059 -0.0556  0.3847
84466SOL    HW171390   2.639  11.736   3.519  0.0171  1.1383 -1.1121
84466SOL    HW271391   2.692  11.685   3.387 -0.9090 -1.0723 -0.6788
84467SOL     OW71392   8.186   6.413  10.319  0.2875  0.0764 -0.4313
84467SOL    HW171393   8.161   6.323  10.338 -0.4224  0.2021 -0.7607
84467SOL    HW271394   8.128   6.441  10.249  0.2305  0.9275 -0.0668
84468SOL     OW71395   6.712   5.991   4.778 -0.5528 -0.8424  0.7553
84468SOL    HW171396   6.761   5.911   4.759 -0.9960 -0.3130 -3.5045
84468SOL    HW271397   6.702   6.034   4.693 -3.1930  2.1134  2.3569
84469SOL     OW71398   0.450   4.865   6.046 -0.3190 -0.3356  0.2706
84469SOL    HW171399   0.424   4.932   5.984  3.0644  0.4092 -0.4960
84469SOL    HW271400   0.416   4.783   6.009 -0.7605  0.4312 -1.0718
84470SOL     OW71401   9.953  10.917   2.244 -0.4233 -0.3151  0.5271
84470SOL    HW171402  10.018  10.916   2.314  0.9320 -1.1061 -0.6950
84470SOL    HW271403   9.951  11.008   2.215 -0.2414 -0.1862  0.9134
84471SOL     OW71404   5.641   7.859   0.027  0.2341 -0.3269 -0.5070
84471SOL    HW171405   5.591   7.924   0.076 -0.0346  0.3634 -1.6456
84471SOL    HW271406   5.699   7.819   0.091 -0.6348  0.0079  0.5109
84472SOL     OW71407  14.003  10.842  13.450 -0.3441 -0.3578 -0.1299
84472SOL    HW171408  14.015  10.926  13.492  2.6523  0.4413 -2.2515
84472SOL    HW271409  13.977  10.864  13.360  1.4664 -1.5816 -1.0094
84473SOL     OW71410  12.845   8.154   6.430 -0.0219 -0.2444 -0.2783
84473SOL    HW171411  12.873   8.070   6.466  1.2550  0.6963  1.0175
84473SOL    HW271412  12.905   8.170   6.357  0.0243 -0.2428 -0.2396
84474SOL     OW71413  12.399   6.565  10.543  0.1465  0.0242 -0.6037
84474SOL    HW171414  12.373   6.637  10.600  0.3121 -0.6197  0.2945
84474SOL    HW271415  12.320   6.545  10.493 -0.0546  0.4681 -0.4656
84475SOL     OW71416   8.092   8.960  10.935  0.2851  0.0793 -0.5396
84475SOL    HW171417   8.075   9.042  10.888  1.3269  0.6418  0.0410
84475SOL    HW271418   8.187   8.953  10.938  0.2331 -0.3310  0.8121
84476SOL     OW71419  11.941   1.540   5.710 -0.3079  0.3572  0.7157
84476SOL    HW171420  11.891   1.481   5.653  0.1388 -1.0087  1.6931
84476SOL    HW271421  11.892   1.622   5.708 -1.3342 -0.2473 -0.1385
84477SOL     OW71422   0.757   8.149   6.762 -1.1985 -0.5660 -0.2907
84477SOL    HW171423   0.664   8.127   6.761 -0.9799 -1.5930  0.1786
84477SOL    HW271424   0.801   8.070   6.730 -0.5374  0.3019 -1.6070
84478SOL     OW71425   7.516  14.089   2.099  0.5566  0.1964  0.7231
84478SOL    HW171426   7.481  14.045   2.021  0.1501  0.8297  0.5384
84478SOL    HW271427   7.440  14.129   2.140  1.1964  2.8552 -0.4787
84479SOL     OW71428   8.710   4.273   9.368  0.1670  0.4086 -0.0851
84479SOL    HW171429   8.770   4.332   9.414  0.4213 -0.5861  0.9037
84479SOL    HW271430   8.737   4.186   9.395 -0.3946 -0.1613 -1.2900
84480SOL     OW71431   0.725   5.067  12.021  0.1443  0.4137  0.4326
84480SOL    HW171432   0.783   5.125  11.971  0.7047 -0.2298  0.3122
84480SOL    HW271433   0.648   5.120  12.041  1.1504  1.5769  1.3580
84481SOL     OW71434   8.414  11.964  11.365 -0.2525  0.2705 -0.1457
84481SOL    HW171435   8.508  11.949  11.361 -0.2167 -0.6664  2.2591
84481SOL    HW271436   8.405  12.057  11.387  0.1857  0.0253  1.1168
84482SOL     OW71437   9.411   9.336   5.815  0.2783  0.2314 -0.1722
84482SOL    HW171438   9.380   9.283   5.741 -0.3111 -0.3285  0.4481
84482SOL    HW271439   9.331   9.355   5.865  0.8881 -1.4646  1.6156
84483SOL     OW71440   8.413   0.783  11.628  0.5867  1.3390  0.4400
84483SOL    HW171441   8.506   0.771  11.609  0.3070  2.5053 -2.0985
84483SOL    HW271442   8.410   0.809  11.720  2.4032 -2.1316  1.6454
84484SOL     OW71443  12.748   9.565   0.836 -0.5177  0.4117 -0.3728
84484SOL    HW171444  12.656   9.557   0.859 -0.6017  0.1842 -0.7735
84484SOL    HW271445  12.783   9.477   0.850  0.2295  1.0241  2.2216
84485SOL     OW71446   8.464  13.819   7.117 -0.5095 -0.4169  0.4184
84485SOL    HW171447   8.418  13.848   7.039 -1.9157 -1.3293  0.8827
84485SOL    HW271448   8.426  13.871   7.188  2.2908  2.0687  0.3221
84486SOL     OW71449  10.637  11.027  12.690 -0.4534  0.1909  0.6977
84486SOL    HW171450  10.731  11.037  12.702 -0.5847  2.5353  0.1448
84486SOL    HW271451  10.620  11.054  12.600 -1.3518 -3.1715 -0.3065
84487SOL     OW71452   0.632   9.349   7.195 -0.2832  0.4749  0.0942
84487SOL    HW171453   0.660   9.259   7.176 -0.5763 -0.1265  2.2546
84487SOL    HW271454   0.542   9.341   7.225 -0.0220  1.3564  1.1944
84488SOL     OW71455  11.689   6.044  13.263  0.2284  0.7355 -0.0594
84488SOL    HW171456  11.701   6.014  13.354 -1.5311 -0.5666 -0.2132
84488SOL    HW271457  11.774   6.081  13.239  1.4928 -1.0799  1.3205
84489SOL     OW71458  12.662  12.374  11.098 -0.2328 -0.2973  0.7204
84489SOL    HW171459  12.622  12.322  11.167  1.4674 -1.9063  0.5714
84489SOL    HW271460  12.710  12.443  11.145  0.9285 -1.3933  1.1939
84490SOL     OW71461  10.308  12.576   6.584 -0.1413 -0.2017 -0.4844
84490SOL    HW171462  10.223  12.617   6.568  0.0127  0.2052 -0.2662
84490SOL    HW271463  10.292  12.483   6.573 -1.1176 -0.3347  1.6368
84491SOL     OW71464   7.861   8.873   4.942  0.6694  0.2086  0.7982
84491SOL    HW171465   7.947   8.843   4.914  0.6913  0.2170  0.8561
84491SOL    HW271466   7.825   8.918   4.865 -0.4099 -2.1196 -0.1334
84492SOL     OW71467  11.810   1.928  11.846 -0.3264  0.4255  0.1540
84492SOL    HW171468  11.872   1.866  11.882  1.3701  0.6389 -2.1359
84492SOL    HW271469  11.856   2.012  11.846 -1.5719  1.1408  0.7290
84493SOL     OW71470   5.653  11.526   8.665  0.8164  0.8691  0.4546
84493SOL    HW171471   5.706  11.472   8.607 -1.2443 -1.2634  0.3947
84493SOL    HW271472   5.633  11.605   8.614  0.8444  0.0191 -0.9138
84494SOL     OW71473   2.162   3.173  13.215  0.0981  0.4864 -0.4301
84494SOL    HW171474   2.194   3.196  13.128  0.7007  0.0568 -0.3277
84494SOL    HW271475   2.068   3.191  13.212 -0.0673 -0.5035 -1.4910
84495SOL     OW71476  12.439  11.252   9.539 -0.8974 -0.4119  0.3711
84495SOL    HW171477  12.349  11.280   9.524 -1.3873 -0.7942  2.2454
84495SOL    HW271478  12.459  11.285   9.627  0.6295 -0.7301  0.1654
84496SOL     OW71479   4.699  10.671   3.354  0.3480 -0.4642 -0.3007
84496SOL    HW171480   4.774  10.706   3.404  2.4553  0.2794 -3.6584
84496SOL    HW271481   4.732  10.589   3.317 -1.4959 -1.5058  0.2720
84497SOL     OW71482   8.224   1.304   3.425  0.8264 -0.1534 -0.2356
84497SOL    HW171483   8.282   1.380   3.424  0.3474  0.2195 -1.3746
84497SOL    HW271484   8.276   1.236   3.468  0.8398  1.0932  1.8633
84498SOL     OW71485  11.561   3.180  10.658 -0.4080  0.9462  0.3548
84498SOL    HW171486  11.624   3.249  10.681  0.8992  1.2088 -3.3987
84498SOL    HW271487  11.573   3.114  10.726  1.5772  2.4169  1.5581
84499SOL     OW71488  12.097   0.475   3.253  0.2261  0.6429 -0.4156
84499SOL    HW171489  12.179   0.427   3.253  0.5588  1.1469 -2.1155
84499SOL    HW271490  12.111   0.547   3.191 -0.6350  2.2730  1.1815
84500SOL     OW71491   5.250   6.781   7.299 -0.6998  0.4742 -0.3913
84500SOL    HW171492   5.212   6.864   7.328  0.7021  1.0241 -0.0826
84500SOL    HW271493   5.264   6.793   7.205  0.4008  0.9560 -0.1718
84501SOL     OW71494   0.555  11.558   5.147  0.4385  0.1703 -0.6400
84501SOL    HW171495   0.573  11.464   5.142 -1.7521 -0.3092 -0.5482
84501SOL    HW271496   0.531  11.572   5.239 -0.0678  0.6285 -0.8373
84502SOL     OW71497   6.242  14.142  10.629  0.8094 -0.1265 -0.0518
84502SOL    HW171498   6.331  14.111  10.643  0.3831 -0.4285  2.4098
84502SOL    HW271499   6.214  14.175  10.714 -1.4329 -0.0363 -0.7504
84503SOL     OW71500  13.302   8.150   6.123  0.0308 -0.5091 -0.0871
84503SOL    HW171501  13.334   8.233   6.159  2.4235 -0.1581 -2.5889
84503SOL    HW271502  13.277   8.172   6.033  1.4761 -2.5439 -1.0745
84504SOL     OW71503   4.616   0.900  10.752  0.4301 -0.1126 -0.1911
84504SOL    HW171504   4.675   0.923  10.824 -0.1908 -0.6345  0.5003
84504SOL    HW271505   4.540   0.957  10.763 -0.7042 -1.7426  0.9883
84505SOL     OW71506   6.449   7.961   3.606  0.0176 -0.1629 -0.1407
84505SOL    HW171507   6.494   8.031   3.654  1.3854 -1.1118  0.0354
84505SOL    HW271508   6.400   7.913   3.673 -2.5671  1.7212 -0.5225
84506SOL     OW71509   3.357   5.328  12.858  0.4114 -0.0634 -0.4391
84506SOL    HW171510   3.372   5.408  12.808  0.8903 -0.2658 -0.6212
84506SOL    HW271511   3.263   5.330  12.878  0.4732  0.7015 -0.1706
84507SOL     OW71512   4.157   4.167   2.730 -0.3613  0.1903  0.1906
84507SOL    HW171513   4.079   4.134   2.774 -2.5870  2.3420 -1.8169
84507SOL    HW271514   4.142   4.147   2.637  0.9606  1.5696 -0.3643
84508SOL     OW71515  13.490   8.423  12.498 -0.1012 -0.1325 -0.0488
84508SOL    HW171516  13.480   8.471  12.580  0.3749 -0.1755  0.0375
84508SOL    HW271517  13.442   8.341  12.512 -0.7048  0.2011 -0.1072
84509SOL     OW71518   7.005  12.980  12.251  0.2396  0.0497 -0.3191
84509SOL    HW171519   7.062  12.981  12.174 -0.6845  0.4757 -1.0211
84509SOL    HW271520   6.917  12.994  12.215 -0.2626 -0.2627  0.7698
84510SOL     OW71521  11.010   6.720  13.966  0.0143  0.5548 -0.6351
84510SOL    HW171522  11.033   6.656  13.898  0.3678 -1.2141  1.0548
84510SOL    HW271523  11.088   6.726  14.021 -1.3350 -0.7080  1.5672
84511SOL     OW71524   8.506   7.005   0.717 -0.3527  0.3669 -0.5488
84511SOL    HW171525   8.593   7.022   0.755  0.2181 -2.9629 -0.0841
84511SOL    HW271526   8.480   7.089   0.680  2.1021  2.0552  1.1827
84512SOL     OW71527   5.107  10.891  11.447 -0.1327  0.2083 -0.0950
84512SOL    HW171528   5.167  10.951  11.402  0.3210  0.4845  0.8490
84512SOL    HW271529   5.078  10.939  11.524 -0.5286 -0.4277  0.1645
84513SOL     OW71530   8.949   4.675   3.348 -0.1312  0.2241 -0.4320
84513SOL    HW171531   8.957   4.769   3.331 -0.0876  0.6770  1.8695
84513SOL    HW271532   8.857   4.656   3.333 -0.1424  0.6309 -0.9110
84514SOL     OW71533   0.386  12.889  14.048 -0.2504 -0.2101 -0.0666
84514SOL    HW171534   0.408  12.949  14.119  0.0400  0.1460 -0.4484
84514SOL    HW271535   0.313  12.931  14.003  1.8768  1.5062 -2.2418
84515SOL     OW71536   0.406   2.123   3.816 -0.0765  0.0609  0.4344
84515SOL    HW171537   0.399   2.189   3.746  0.2882 -0.6574 -0.2964
84515SOL    HW271538   0.316   2.095   3.832 -0.2727  0.9795  0.9980
84516SOL     OW71539  10.096   0.061   5.898  0.0492  0.2511 -0.1764
84516SOL    HW171540  10.091   0.057   5.993  2.2403  0.7641  0.0114
84516SOL    HW271541  10.012   0.024   5.868 -1.5019  1.8082  1.9333
84517SOL     OW71542  11.309  13.412  11.540  0.1094  0.1341  0.5809
84517SOL    HW171543  11.220  13.438  11.515  0.7730  2.1474  0.1266
84517SOL    HW271544  11.309  13.317  11.533 -2.2206  0.0007  1.3180
84518SOL     OW71545   5.369  10.435   5.093  0.1267 -0.0585 -0.0643
84518SOL    HW171546   5.292  10.409   5.144 -0.8482 -0.2617 -1.5836
84518SOL    HW271547   5.412  10.353   5.068 -0.9024 -0.1307 -1.7666
84519SOL     OW71548  13.771   9.276  10.887  0.1468 -0.3800  0.4294
84519SOL    HW171549  13.729   9.205  10.937  0.7874 -0.1138  1.3837
84519SOL    HW271550  13.858   9.284  10.926  0.5882 -0.0066 -0.6136
84520SOL     OW71551   1.951   5.836  10.522  0.1601 -0.4794  0.0228
84520SOL    HW171552   1.874   5.864  10.571  0.0339  0.8652 -0.9078
84520SOL    HW271553   2.024   5.845  10.585  0.1609  2.1787 -0.2491
84521SOL     OW71554   3.382   1.198   8.867  0.2869 -0.8233 -0.1239
84521SOL    HW171555   3.313   1.180   8.930  0.1602 -0.7808 -0.2502
84521SOL    HW271556   3.344   1.261   8.806  0.1786 -1.3835 -0.6464
84522SOL     OW71557   4.634  10.982  12.418  0.6474  0.6268 -0.3133
84522SOL    HW171558   4.564  11.035  12.455  0.0158  0.7956 -1.6693
84522SOL    HW271559   4.692  10.964  12.491 -0.5728  0.8692  0.7445
84523SOL     OW71560  10.049   1.464  13.530  0.1122  0.0553  0.0737
84523SOL    HW171561  10.096   1.437  13.609 -0.3382 -0.1564  0.2684
84523SOL    HW271562  10.011   1.382  13.496  0.4875  0.1044 -0.4847
84524SOL     OW71563  12.040   5.812   3.894  0.0024  0.1105  0.1352
84524SOL    HW171564  12.074   5.843   3.810 -0.3894  1.2308  0.3684
84524SOL    HW271565  12.057   5.718   3.894  1.8519  0.4086 -0.3319
84525SOL     OW71566   8.847  11.222   9.455  0.7810  0.1432  0.3618
84525SOL    HW171567   8.857  11.315   9.478 -0.0409  0.1277  0.8202
84525SOL    HW271568   8.752  11.210   9.445  0.7672 -0.9435  1.5899
84526SOL     OW71569  13.323   0.044   8.377  0.2374  0.3006  0.0090
84526SOL    HW171570  13.291   0.134   8.376  1.7891  0.8895 -1.2556
84526SOL    HW271571  13.391   0.044   8.445 -0.5056 -0.2241  0.7719
84527SOL     OW71572   5.840   1.796   9.998 -0.4783  0.4457  0.2816
84527SOL    HW171573   5.834   1.705   9.970 -1.8269  0.6930 -0.2883
84527SOL    HW271574   5.750   1.822  10.019 -0.3146  1.9611 -0.6591
84528SOL     OW71575   7.193   1.708  12.468 -0.2118  0.3721 -0.2607
84528SOL    HW171576   7.254   1.780  12.453 -0.9283  0.8398 -1.0116
84528SOL    HW271577   7.244   1.629  12.448  0.9276  0.5483  1.6477
84529SOL     OW71578  12.898  11.400  10.612  0.0537  0.0723 -0.0783
84529SOL    HW171579  12.852  11.477  10.579 -0.0682 -0.9325 -2.4283
84529SOL    HW271580  12.844  11.369  10.685 -1.1414  0.8963 -0.5856
84530SOL     OW71581   9.216   2.651  13.051 -0.3899 -0.2021  0.3679
84530SOL    HW171582   9.120   2.647  13.056 -0.4171 -0.7703 -0.3933
84530SOL    HW271583   9.245   2.565  13.082 -0.1206 -0.0212  0.6223
84531SOL     OW71584   8.342   1.556   3.470  0.0394  0.1866 -0.1951
84531SOL    HW171585   8.311   1.523   3.555 -1.6171  2.7668  0.3074
84531SOL    HW271586   8.386   1.638   3.490 -0.0132  0.6378 -1.8015
84532SOL     OW71587  11.313   4.918  13.129  0.1029  0.4284 -0.1086
84532SOL    HW171588  11.254   4.864  13.183  0.7338  1.8803  2.1784
84532SOL    HW271589  11.265   5.000  13.118  1.6527  1.7260  1.9936
84533SOL     OW71590   5.944  14.148   0.717 -0.0663  0.0862 -0.2478
84533SOL    HW171591   5.865  14.159   0.663 -0.3330  1.0869  0.3081
84533SOL    HW271592   5.948  14.055   0.736 -2.1396  0.2164  1.1853
84534SOL     OW71593   8.544   8.335  10.916  0.0969 -0.3822  0.1873
84534SOL    HW171594   8.562   8.349  11.009 -1.3332 -4.2536  1.2463
84534SOL    HW271595   8.614   8.381  10.870  0.7665  1.8001  3.1059
84535SOL     OW71596   8.994  12.043   4.317  0.1102  0.2966  0.1359
84535SOL    HW171597   8.908  12.085   4.305  0.5835  1.5941  1.0863
84535SOL    HW271598   9.057  12.110   4.292  0.9131  0.4080  2.2892
84536SOL     OW71599  13.032   0.428   6.919 -0.2685 -0.0252 -0.3588
84536SOL    HW171600  13.083   0.429   6.837 -0.3012 -1.5955 -0.4252
84536SOL    HW271601  13.091   0.465   6.984  0.6589 -0.9708 -0.6249
84537SOL     OW71602   9.623   2.378   3.487 -0.2856  0.1073  0.3001
84537SOL    HW171603   9.626   2.305   3.550 -0.3928  0.1823  0.3937
84537SOL    HW271604   9.703   2.369   3.436 -0.8925 -0.8136 -0.5198
84538SOL     OW71605  11.478   0.686  12.618  0.2702 -0.1212  0.1649
84538SOL    HW171606  11.501   0.691  12.710  1.9888 -1.5624 -0.1514
84538SOL    HW271607  11.551   0.640  12.577 -0.1735  0.9976 -2.0252
84539SOL     OW71608   8.338   9.651   9.332 -0.1594  0.6270  0.1912
84539SOL    HW171609   8.341   9.728   9.388  0.6329  0.7351  0.0099
84539SOL    HW271610   8.427   9.616   9.333 -0.2846  0.2626 -0.4846
84540SOL     OW71611  10.238   7.764   8.073 -0.0323 -0.0787  0.5191
84540SOL    HW171612  10.326   7.799   8.062  0.6318 -2.0356 -1.2225
84540SOL    HW271613  10.185   7.839   8.098  1.5863  1.7709 -1.2308
84541SOL     OW71614   7.801  11.757   3.586  0.2438  0.9683 -0.2027
84541SOL    HW171615   7.875  11.731   3.531  2.4301  1.7765  2.1535
84541SOL    HW271616   7.761  11.675   3.613  1.1956  0.4425 -0.3646
84542SOL     OW71617   4.703   7.095   7.861  0.3791 -0.2301  0.0742
84542SOL    HW171618   4.666   7.065   7.944  1.4867 -2.0912 -0.0549
84542SOL    HW271619   4.794   7.114   7.881  0.0588  1.7177 -0.2016
84543SOL     OW71620  11.359   6.236   3.296  0.0262 -0.6142  0.0699
84543SOL    HW171621  11.330   6.325   3.310 -2.9238 -1.2260 -1.3385
84543SOL    HW271622  11.359   6.195   3.382  1.2086  0.6451  0.6900
84544SOL     OW71623   3.389  12.014   9.061 -0.5670 -0.5233  0.1680
84544SOL    HW171624   3.329  12.068   9.009 -1.5745 -1.1627  0.6366
84544SOL    HW271625   3.428  12.075   9.124 -0.7891 -0.1172 -0.0842
84545SOL     OW71626   6.479   4.681  10.905 -0.2991 -0.5760  0.5097
84545SOL    HW171627   6.543   4.723  10.964  1.0041 -1.5966 -0.1310
84545SOL    HW271628   6.458   4.749  10.841  1.7536 -0.8223 -0.4926
84546SOL     OW71629   8.423  10.331  11.315 -0.0474 -0.7949  0.0015
84546SOL    HW171630   8.469  10.408  11.349  1.3634 -1.2188 -0.8152
84546SOL    HW271631   8.493  10.279  11.274 -1.2005 -1.7587 -0.7939
84547SOL     OW71632   7.362  13.104   6.909 -0.0731  0.1141  0.6592
84547SOL    HW171633   7.304  13.128   6.981  1.1350  0.3449  1.5870
84547SOL    HW271634   7.411  13.184   6.889  0.0867 -0.1296  0.0459
84548SOL     OW71635   1.582  10.667   6.659  0.4773  0.1192  0.4866
84548SOL    HW171636   1.511  10.603   6.662 -0.5816  1.1832 -0.9586
84548SOL    HW271637   1.657  10.618   6.625  0.1316 -0.7422  0.9485
84549SOL     OW71638   4.376  10.554   9.760 -0.4018  0.0729  1.2031
84549SOL    HW171639   4.367  10.589   9.849 -1.8223  0.0788  1.0835
84549SOL    HW271640   4.410  10.465   9.772 -1.4932 -0.2756  1.8294
84550SOL     OW71641   6.964   7.821  13.310 -0.2161 -0.4321 -0.2718
84550SOL    HW171642   7.041   7.839  13.256 -0.0209  1.2612  0.5064
84550SOL    HW271643   6.893   7.868  13.266 -0.4916 -0.7202 -0.1429
84551SOL     OW71644   1.017  12.097   6.582  0.3817 -0.1957  0.4602
84551SOL    HW171645   0.991  12.022   6.528 -0.9156 -1.1475  2.2582
84551SOL    HW271646   0.993  12.174   6.531 -2.8194 -1.0326  0.4524
84552SOL     OW71647   5.454  10.429   0.255 -0.3715 -0.1302  0.1994
84552SOL    HW171648   5.480  10.348   0.211  1.4104  0.4919  0.0289
84552SOL    HW271649   5.453  10.407   0.348 -0.2728 -0.4383  0.1281
84553SOL     OW71650  13.009   8.996  10.473  0.1159 -0.1803 -0.9036
84553SOL    HW171651  13.097   9.033  10.463  0.1699  0.1299  0.4901
84553SOL    HW271652  12.953   9.072  10.485 -0.2212 -0.4183 -0.9675
84554SOL     OW71653  12.472   7.627   5.442 -0.1712  0.0095 -0.5826
84554SOL    HW171654  12.380   7.638   5.420 -0.2719 -2.3103 -1.6599
84554SOL    HW271655  12.516   7.700   5.397 -1.3496  0.4776 -1.0315
84555SOL     OW71656   0.729  11.454   1.517  0.2744  0.3051  0.2375
84555SOL    HW171657   0.687  11.381   1.562  1.1817 -0.5520 -0.2765
84555SOL    HW271658   0.714  11.437   1.424  0.6524  0.6705  0.1028
84556SOL     OW71659   0.450   8.210  13.450 -0.1086 -0.5694 -0.3153
84556SOL    HW171660   0.385   8.167  13.506 -0.3868  0.9988  0.6323
84556SOL    HW271661   0.533   8.170  13.476 -0.3492 -0.5130  0.5907
84557SOL     OW71662  10.325   1.457   5.325  0.1366 -0.6267  0.1135
84557SOL    HW171663  10.271   1.391   5.282  1.2469 -0.2297 -2.0272
84557SOL    HW271664  10.331   1.427   5.416  0.0804 -3.1275 -0.6277
84558SOL     OW71665   3.492   9.638   1.370 -0.1431  0.2446  0.3222
84558SOL    HW171666   3.553   9.657   1.442  0.2354 -2.0092  0.6787
84558SOL    HW271667   3.548   9.603   1.300 -0.8299 -0.2964  0.0324
84559SOL     OW71668   8.008   3.688   7.666  0.4947  0.0782 -0.3538
84559SOL    HW171669   7.999   3.780   7.692 -2.2309 -0.5447  1.3427
84559SOL    HW271670   8.048   3.646   7.741  0.5010 -0.3493 -0.5950
84560SOL     OW71671  13.327   1.433   0.170 -0.2021  0.2107 -0.1134
84560SOL    HW171672  13.400   1.481   0.131  0.2038 -0.8561 -0.7089
84560SOL    HW271673  13.288   1.495   0.232  1.2642  0.7704  0.2977
84561SOL     OW71674   7.046   9.058   3.863 -0.3232  0.3214  0.0653
84561SOL    HW171675   6.975   9.018   3.913  0.0124 -0.5080 -0.0986
84561SOL    HW271676   7.120   9.061   3.924  0.2010 -1.0441 -0.4607
84562SOL     OW71677   4.381   6.078   5.405 -0.2770 -0.4101 -0.1343
84562SOL    HW171678   4.318   6.009   5.424 -1.6653  1.0466  0.7995
84562SOL    HW271679   4.327   6.156   5.390  1.2896  0.9185  0.8026
84563SOL     OW71680   6.995  11.780   9.533  0.0706  0.1918  0.5160
84563SOL    HW171681   7.018  11.791   9.441  0.0953 -1.2694  0.3146
84563SOL    HW271682   7.034  11.696   9.557  0.5535  0.8179  2.0332
84564SOL     OW71683  13.031   0.182  10.411  0.0883  0.3412  0.2251
84564SOL    HW171684  13.123   0.207  10.425  1.4565 -2.3838 -2.6347
84564SOL    HW271685  13.003   0.235  10.336  0.2566 -0.6019 -0.5358
84565SOL     OW71686  12.468   0.820   6.355 -0.5094  0.6882  0.9727
84565SOL    HW171687  12.391   0.778   6.392 -1.0733  0.3303 -0.5143
84565SOL    HW271688  12.444   0.839   6.264  1.6014 -0.7088  0.0277
84566SOL     OW71689   0.022  10.570   1.939  0.0164 -0.0610 -0.4964
84566SOL    HW171690  -0.016  10.502   1.883  0.3813  0.5484 -1.5081
84566SOL    HW271691  -0.052  10.623   1.967 -0.0113  0.5462 -1.6683
84567SOL     OW71692   6.720   1.441   9.979  0.1766  0.0771  0.1677
84567SOL    HW171693   6.647   1.402  10.028  0.4071 -0.8515 -0.2103
84567SOL    HW271694   6.782   1.369   9.968  0.1123  0.2609 -1.5447
84568SOL     OW71695   9.356   5.876   1.707  0.1323  0.0830 -0.5752
84568SOL    HW171696   9.438   5.883   1.658 -0.1282  1.0408 -0.8966
84568SOL    HW271697   9.326   5.967   1.716 -0.1341 -0.1236  0.8391
84569SOL     OW71698   9.831   0.785   9.105 -0.2099  0.5438 -0.2352
84569SOL    HW171699   9.739   0.769   9.128 -0.5852  2.3161 -0.3535
84569SOL    HW271700   9.858   0.856   9.164  0.5428  1.2362 -1.3779
84570SOL     OW71701   3.637   5.898  11.095 -0.3104  0.2249  0.5653
84570SOL    HW171702   3.660   5.950  11.018  0.4680  1.2312  1.4565
84570SOL    HW271703   3.546   5.872  11.079 -0.2233  0.5687 -0.6066
84571SOL     OW71704   0.722   0.898   1.573 -0.0917  0.5398 -0.3447
84571SOL    HW171705   0.680   0.879   1.489  0.9854 -2.8066 -0.2667
84571SOL    HW271706   0.815   0.884   1.558  0.1521  0.1231  1.3374
84572SOL     OW71707   6.414   5.815   2.324  0.2272 -0.0680  0.0638
84572SOL    HW171708   6.449   5.903   2.314  0.4651 -0.3033 -1.2876
84572SOL    HW271709   6.449   5.784   2.408  3.0475 -0.1746 -1.0677
84573SOL     OW71710  11.070  13.176   7.963 -0.0570  0.3679  0.5331
84573SOL    HW171711  11.125  13.128   7.901 -0.8799  0.7661 -0.5238
84573SOL    HW271712  11.107  13.264   7.964 -1.0171  0.8082 -0.6523
84574SOL     OW71713   7.819   3.834   1.846 -0.2834 -0.4800  0.1525
84574SOL    HW171714   7.885   3.775   1.881 -1.5487 -1.1540  1.4954
84574SOL    HW271715   7.741   3.781   1.837 -0.9955  0.5912 -0.2135
84575SOL     OW71716   5.834   1.232   9.817  0.2023 -0.0475 -0.4766
84575SOL    HW171717   5.762   1.178   9.850  0.1588 -0.9117 -1.9242
84575SOL    HW271718   5.907   1.215   9.877 -0.2430 -0.5931 -0.0817
84576SOL     OW71719   0.297   0.583   6.855 -0.4176  0.1693 -0.1988
84576SOL    HW171720   0.203   0.567   6.843 -0.5773  1.1942 -0.4087
84576SOL    HW271721   0.318   0.652   6.792 -0.4633  3.0694  2.6802
84577SOL     OW71722   0.272   4.209  11.097  0.0560 -0.1900 -0.0607
84577SOL    HW171723   0.321   4.128  11.113  0.7448  0.3661  0.7447
84577SOL    HW271724   0.296   4.235  11.009 -1.1362 -1.5059 -0.8273
84578SOL     OW71725  10.986   5.116   8.565 -0.3699 -0.0990  0.5893
84578SOL    HW171726  11.044   5.149   8.633  1.3644 -0.8732 -0.4347
84578SOL    HW271727  10.995   5.020   8.570 -0.4388 -0.1773 -0.5324
84579SOL     OW71728   0.192  12.326   4.907 -0.5878 -0.1148  0.0606
84579SOL    HW171729   0.202  12.310   5.000 -2.1920  1.9795  0.6846
84579SOL    HW271730   0.152  12.246   4.872  1.5331 -1.5610  0.7915
84580SOL     OW71731   1.586  13.035   1.945  1.0007  0.6046 -0.2411
84580SOL    HW171732   1.582  12.943   1.969 -0.4325  1.3000  2.7692
84580SOL    HW271733   1.672  13.047   1.906  1.5865 -1.8179  0.1846
84581SOL     OW71734  12.986   5.403   4.994  0.0415 -0.4763 -0.3675
84581SOL    HW171735  12.945   5.473   5.044  1.6484 -0.8650  1.6386
84581SOL    HW271736  12.914   5.358   4.951 -1.4387 -0.0426  1.5333
84582SOL     OW71737  13.179  13.604   9.564 -0.0679 -1.0189 -0.0697
84582SOL    HW171738  13.088  13.600   9.535 -0.3082  0.3742  0.4254
84582SOL    HW271739  13.225  13.541   9.507 -0.9861 -0.3228 -1.6423
84583SOL     OW71740   4.079  14.096   8.437 -0.1313  0.5272  0.3478
84583SOL    HW171741   3.999  14.044   8.436  0.6920 -1.0008  3.1712
84583SOL    HW271742   4.062  14.165   8.501  0.6343  0.4839  0.6032
84584SOL     OW71743   6.552   9.829   8.856  0.2416  0.1728 -0.6214
84584SOL    HW171744   6.481   9.867   8.804  0.2386 -0.3402 -1.0017
84584SOL    HW271745   6.508   9.770   8.917  0.4093 -1.2060 -1.7709
84585SOL     OW71746  10.196  13.068   5.827 -0.3983 -0.1355 -0.3530
84585SOL    HW171747  10.140  12.992   5.808 -2.0434  1.0561 -0.4619
84585SOL    HW271748  10.189  13.123   5.749  1.6450 -0.3276 -0.7223
84586SOL     OW71749  11.528  12.866  10.641  0.1987 -0.2276  0.4056
84586SOL    HW171750  11.452  12.829  10.687 -0.4032  0.9686  0.4026
84586SOL    HW271751  11.496  12.879  10.551  0.7338 -0.6576  0.1477
84587SOL     OW71752   8.179   8.507   6.844 -0.2272 -0.0303  0.4610
84587SOL    HW171753   8.180   8.427   6.898  1.5653 -0.9534 -0.8259
84587SOL    HW271754   8.109   8.560   6.881 -1.0030 -1.8900  1.8273
84588SOL     OW71755   6.525   3.158   3.096 -0.2959 -0.4175 -0.6275
84588SOL    HW171756   6.536   3.187   3.186 -0.0697 -0.2441 -0.7100
84588SOL    HW271757   6.595   3.094   3.083  1.7700  1.8589 -1.6533
84589SOL     OW71758  10.763   9.991   7.225 -0.3243  0.4387  0.2166
84589SOL    HW171759  10.807  10.054   7.169  1.1771 -1.1115 -0.4364
84589SOL    HW271760  10.742  10.040   7.305 -0.6806  2.1496 -0.8753
84590SOL     OW71761   9.910  11.396  11.960  0.8879  0.0191  0.4746
84590SOL    HW171762   9.924  11.364  12.049 -2.8431 -0.6973  0.9934
84590SOL    HW271763   9.898  11.491  11.970 -1.5966 -0.2870  1.2167
84591SOL     OW71764   2.921   5.866  10.753  0.4031  0.4430 -0.1139
84591SOL    HW171765   2.993   5.838  10.697 -0.3268  0.7118 -1.2093
84591SOL    HW271766   2.931   5.960  10.760  0.5430  0.3999  0.2892
84592SOL     OW71767   9.480   6.964   8.600  0.3838 -0.1287 -0.1929
84592SOL    HW171768   9.480   7.059   8.603  0.6516 -0.1199  2.6151
84592SOL    HW271769   9.387   6.940   8.589  0.1879  0.4604  0.1730
84593SOL     OW71770   1.730   3.591  10.434  0.4392 -0.0422 -0.2028
84593SOL    HW171771   1.764   3.663  10.380 -0.1442 -0.6414 -1.4033
84593SOL    HW271772   1.797   3.523  10.426 -1.3895 -1.6943 -3.5519
84594SOL     OW71773   2.141  10.938   0.314  0.3209  0.4543  0.2119
84594SOL    HW171774   2.050  10.922   0.290  0.4588  0.7905 -0.5902
84594SOL    HW271775   2.186  10.946   0.230  0.8490  1.6588  0.5934
84595SOL     OW71776   5.894   0.403   0.656  0.6252 -0.3451  0.1479
84595SOL    HW171777   5.839   0.435   0.728 -0.5515  1.2611 -1.3974
84595SOL    HW271778   5.840   0.412   0.578  2.6148  0.0806 -1.2710
84596SOL     OW71779   7.258   2.361   7.560 -0.5926 -0.2010  0.4809
84596SOL    HW171780   7.182   2.419   7.566 -1.2633 -0.9592 -0.3143
84596SOL    HW271781   7.332   2.420   7.546 -1.0814  0.5324  0.9320
84597SOL     OW71782   4.230  11.907  13.632  0.6052  0.2240  0.0925
84597SOL    HW171783   4.223  11.942  13.721 -1.0935  0.9181 -0.2720
84597SOL    HW271784   4.234  11.812  13.643 -1.1491  0.2186  0.8665
84598SOL     OW71785   9.731   1.865   7.937  0.0653  0.2322 -0.4092
84598SOL    HW171786   9.711   1.931   7.870 -0.9022 -0.2072 -0.5705
84598SOL    HW271787   9.649   1.854   7.985  0.6146  0.1701  0.5386
84599SOL     OW71788   5.045  10.028   7.333  0.3421 -0.2568  0.3672
84599SOL    HW171789   5.031  10.065   7.246  1.3091  1.1170  0.7711
84599SOL    HW271790   4.979  10.069   7.388 -0.2553 -1.1102  0.3162
84600SOL     OW71791  10.406  11.241  10.716  0.1386  0.8789 -0.3072
84600SOL    HW171792  10.366  11.298  10.650  0.5137  1.6472  0.1262
84600SOL    HW271793  10.363  11.265  10.798  0.3327  0.5652 -0.1112
84601SOL     OW71794   2.519  13.614   3.721 -0.0137  0.0818 -0.0154
84601SOL    HW171795   2.610  13.586   3.726  0.2455  0.5565 -1.5973
84601SOL    HW271796   2.515  13.693   3.775  0.5140  0.0708  0.0418
84602SOL     OW71797   1.479  11.043  13.868 -0.3905 -0.3239 -0.4292
84602SOL    HW171798   1.561  11.046  13.818 -0.2079 -1.4762 -0.2251
84602SOL    HW271799   1.411  11.061  13.803  0.0835  2.0183 -0.3458
84603SOL     OW71800   8.554   6.353   9.654 -0.8280  0.5401 -0.1173
84603SOL    HW171801   8.603   6.353   9.571 -0.1708 -1.5192  0.2104
84603SOL    HW271802   8.478   6.297   9.637  0.7377 -2.2453  1.3590
84604SOL     OW71803  14.150  11.355   2.385 -0.5887  0.2404 -0.3378
84604SOL    HW171804  14.245  11.365   2.378 -0.7530  1.3122 -1.3993
84604SOL    HW271805  14.116  11.398   2.306 -1.8636 -1.8270 -0.9975
84605SOL     OW71806   2.288  13.187   7.394  0.2022  0.4543 -0.7590
84605SOL    HW171807   2.212  13.234   7.361 -0.7670 -0.3459  0.2570
84605SOL    HW271808   2.267  13.169   7.486  0.3510 -2.2505 -1.1709
84606SOL     OW71809   3.377  11.907   0.645  0.8751 -0.0992 -0.5617
84606SOL    HW171810   3.431  11.919   0.567  0.4347  0.2426 -0.8194
84606SOL    HW271811   3.287  11.921   0.614  0.7351  0.5400  0.1139
84607SOL     OW71812   8.354   6.850  13.991  0.4725  0.1715 -0.1608
84607SOL    HW171813   8.304   6.880  13.915 -1.0519 -1.4841  0.1150
84607SOL    HW271814   8.322   6.904  14.063  0.2470  0.2037 -0.2835
84608SOL     OW71815   9.775   5.827   0.711  0.1476  0.0085 -0.0553
84608SOL    HW171816   9.771   5.814   0.617  1.2445  0.5166 -0.1857
84608SOL    HW271817   9.829   5.754   0.743  0.9857  0.6332 -0.0123
84609SOL     OW71818   7.294  12.105   0.046 -0.6285 -0.6545  0.3118
84609SOL    HW171819   7.242  12.025   0.039  0.8156 -1.6567  0.6332
84609SOL    HW271820   7.342  12.110  -0.037 -1.6711  0.6147 -0.2590
84610SOL     OW71821   9.336   6.519  10.164  0.2501 -0.5304 -0.6834
84610SOL    HW171822   9.409   6.581  10.164  0.9037 -1.1769 -2.9784
84610SOL    HW271823   9.272   6.557  10.104 -0.3097 -1.0145 -0.4020
84611SOL     OW71824   6.890  10.777   7.609 -0.7212  0.7837 -0.0706
84611SOL    HW171825   6.874  10.711   7.675 -1.4262 -0.2344 -1.2094
84611SOL    HW271826   6.806  10.789   7.565  0.2333 -0.5287 -2.4886
84612SOL     OW71827   0.158  11.010   2.054  0.5483 -0.6685 -0.0836
84612SOL    HW171828   0.088  11.027   2.118 -0.3130 -0.3003 -1.1044
84612SOL    HW271829   0.116  10.960   1.985  1.5922 -1.4893 -0.1525
84613SOL     OW71830   1.166  14.144   8.474 -0.1164 -0.2111  0.7329
84613SOL    HW171831   1.106  14.114   8.405 -0.5344  0.9444  0.5758
84613SOL    HW271832   1.234  14.192   8.427 -0.6018  0.9089  1.1286
84614SOL     OW71833   5.948   2.637   1.920  0.3760 -0.4705 -0.6097
84614SOL    HW171834   6.008   2.583   1.869  0.9408  1.2568 -1.9013
84614SOL    HW271835   6.002   2.671   1.991  0.1632 -1.1593 -0.1136
84615SOL     OW71836   9.297  12.981   4.540 -0.3511  0.4265 -0.5872
84615SOL    HW171837   9.383  12.992   4.579 -1.0881  0.9251  0.9582
84615SOL    HW271838   9.315  12.950   4.451  1.4126  0.7831 -0.3863
84616SOL     OW71839   1.382   9.083   3.638  0.2379 -0.1209 -0.1331
84616SOL    HW171840   1.363   9.060   3.729 -2.1934  0.2691 -0.4710
84616SOL    HW271841   1.394   8.999   3.593 -1.4029 -0.4859  0.0359
84617SOL     OW71842   4.213   9.589   3.130  0.6316  0.5190 -0.0108
84617SOL    HW171843   4.268   9.584   3.053 -0.0198  1.3744 -0.5579
84617SOL    HW271844   4.269   9.562   3.202  1.4297  0.3142 -0.6993
84618SOL     OW71845  11.965  12.224   7.897 -0.2152  0.3047  0.4735
84618SOL    HW171846  11.945  12.164   7.826  0.0808  0.4907  0.2302
84618SOL    HW271847  11.909  12.300   7.880 -0.7640  0.0065  0.9133
84619SOL     OW71848  12.651   5.106   6.313 -0.0687 -0.1744 -0.1554
84619SOL    HW171849  12.725   5.108   6.253 -0.6698  0.0068 -0.9139
84619SOL    HW271850  12.665   5.182   6.371  1.0578 -0.9523  0.6364
84620SOL     OW71851   4.085   5.495  12.354  0.2873  0.4492  0.7208
84620SOL    HW171852   4.092   5.416  12.408  1.6211  0.3798  0.4958
84620SOL    HW271853   4.158   5.550  12.382  1.5814  0.0375 -1.5314
84621SOL     OW71854   4.311   1.598  13.792  0.5827  0.4310 -0.3036
84621SOL    HW171855   4.358   1.657  13.733 -1.2921  1.7692 -0.5472
84621SOL    HW271856   4.249   1.552  13.735  1.4517 -1.2158  0.0216
84622SOL     OW71857  12.567   9.973  10.430  0.4068 -0.3070  0.1546
84622SOL    HW171858  12.605   9.906  10.486 -0.3415 -0.2973  0.6913
84622SOL    HW271859  12.531  10.038  10.491  0.7190  0.3537 -0.3490
84623SOL     OW71860  14.074   4.260  10.256 -0.1602  0.1026  0.0724
84623SOL    HW171861  14.022   4.274  10.336  1.0191  0.1330  0.8494
84623SOL    HW271862  14.157   4.224  10.287 -0.1324 -1.0624 -1.2539
84624SOL     OW71863  11.533  10.005   8.359  0.1965 -0.3177  0.5983
84624SOL    HW171864  11.465  10.043   8.414  0.0401  1.1628 -0.5655
84624SOL    HW271865  11.591  10.078   8.339 -0.0892 -0.6590 -1.6899
84625SOL     OW71866   2.870  13.919   8.356  0.0607 -0.2276 -0.0560
84625SOL    HW171867   2.867  14.001   8.307 -2.4116 -0.2864 -0.0947
84625SOL    HW271868   2.858  13.851   8.289  0.1644 -0.5173  0.2167
84626SOL     OW71869   8.192   5.286   0.107  0.4061 -0.1362  0.3483
84626SOL    HW171870   8.189   5.364   0.051  0.7708 -0.1216  0.3435
84626SOL    HW271871   8.115   5.235   0.082  0.1398  0.2452  0.3831
84627SOL     OW71872   4.729   2.021   5.985  0.0007 -0.0182  0.4483
84627SOL    HW171873   4.799   1.980   5.933 -0.6299  0.7938 -1.1061
84627SOL    HW271874   4.651   1.969   5.965 -0.3801  0.6941  0.0639
84628SOL     OW71875   5.004   7.717   7.732  0.1371 -0.0064 -0.0118
84628SOL    HW171876   4.909   7.712   7.737  0.2071 -0.3403  1.1338
84628SOL    HW271877   5.026   7.666   7.654 -0.4646 -2.1001  1.1331
84629SOL     OW71878   7.009   1.325   9.050 -0.4351 -0.2904  0.0352
84629SOL    HW171879   7.052   1.240   9.057 -1.3496 -0.8770 -1.1426
84629SOL    HW271880   7.059   1.372   8.984  0.0651  0.0914  0.6806
84630SOL     OW71881   9.641   6.472   7.334  0.3864 -0.1559  0.5490
84630SOL    HW171882   9.621   6.403   7.397 -0.3972 -2.0313 -1.6189
84630SOL    HW271883   9.734   6.461   7.315  0.2568 -0.6512  0.1876
84631SOL     OW71884  11.273  12.066   0.439 -0.4058 -0.0057  0.8726
84631SOL    HW171885  11.232  12.089   0.356  1.1071 -0.6484 -0.1125
84631SOL    HW271886  11.353  12.019   0.414  0.0722 -0.2609  2.6964
84632SOL     OW71887   8.794   9.808   7.423 -0.5916  0.3237 -0.4908
84632SOL    HW171888   8.842   9.726   7.412 -0.2479  0.5695 -0.8702
84632SOL    HW271889   8.703   9.786   7.403 -0.4279  0.1289 -1.0371
84633SOL     OW71890   4.928  12.436  11.690 -0.2801  0.2474 -0.2162
84633SOL    HW171891   4.982  12.358  11.675 -0.5432  0.1529 -0.6970
84633SOL    HW271892   4.982  12.509  11.662 -0.6350  0.1006 -1.3092
84634SOL     OW71893   9.343   1.587   3.908  0.0860  0.1082 -0.0552
84634SOL    HW171894   9.313   1.510   3.957  0.5575 -0.1132 -0.1057
84634SOL    HW271895   9.362   1.553   3.820 -2.1301  0.7678 -0.8448
84635SOL     OW71896  13.469   0.617   6.736 -0.5693 -0.1669  0.9684
84635SOL    HW171897  13.486   0.544   6.676 -0.5671  1.4922 -1.1441
84635SOL    HW271898  13.375   0.613   6.753 -0.7616 -0.0354 -0.0165
84636SOL     OW71899   7.733  10.492   6.410  0.0652  0.1738  0.4130
84636SOL    HW171900   7.776  10.564   6.365  0.6990 -0.6441 -0.3132
84636SOL    HW271901   7.669  10.458   6.347 -2.4782  2.0126  1.8139
84637SOL     OW71902   8.550  14.051   1.663 -0.0788  0.1942 -0.0253
84637SOL    HW171903   8.556  14.049   1.759 -0.2731 -1.8479 -0.0036
84637SOL    HW271904   8.639  14.035   1.633  0.4780  3.2453 -0.2907
84638SOL     OW71905   1.869   7.380   7.135 -0.0902 -0.2066 -0.1250
84638SOL    HW171906   1.858   7.453   7.195 -0.6731 -0.5088  0.1414
84638SOL    HW271907   1.805   7.315   7.163  0.9427 -1.1490  0.1258
84639SOL     OW71908   8.781  11.035   1.477 -0.2529 -0.8448  0.1372
84639SOL    HW171909   8.752  10.944   1.476  0.4141 -1.0643  0.0746
84639SOL    HW271910   8.707  11.083   1.512 -1.0523 -1.2484 -0.9479
84640SOL     OW71911   2.001  11.618   8.598  0.6870 -0.4921 -0.4597
84640SOL    HW171912   1.907  11.627   8.610  1.0111  0.3299  1.8554
84640SOL    HW271913   2.032  11.706   8.577  0.9735 -0.7523 -1.1761
84641SOL     OW71914  12.149   2.397   9.690  0.3762  0.3117 -0.0359
84641SOL    HW171915  12.210   2.333   9.727 -0.3805 -1.5367 -1.7820
84641SOL    HW271916  12.068   2.383   9.738  0.8467  1.7273  1.2515
84642SOL     OW71917   1.017   1.367   8.141  0.6777  0.2398  0.2342
84642SOL    HW171918   0.963   1.411   8.206  1.8023 -0.4222  1.6673
84642SOL    HW271919   0.960   1.358   8.065 -0.6490  1.1091  1.0777
84643SOL     OW71920   6.356   6.334   6.539 -0.0819  0.1738  0.4024
84643SOL    HW171921   6.308   6.251   6.540  1.8083 -0.9766 -0.0578
84643SOL    HW271922   6.347   6.368   6.628  0.9029 -1.6271  1.2348
84644SOL     OW71923  12.122   4.244   0.652 -0.5890 -0.5025 -0.2666
84644SOL    HW171924  12.140   4.192   0.574 -0.6414 -0.8194 -0.0682
84644SOL    HW271925  12.193   4.307   0.656 -0.3939 -0.7146 -0.3761
84645SOL     OW71926   3.805   7.542   8.781 -0.4162 -0.3041 -0.0280
84645SOL    HW171927   3.794   7.471   8.845 -1.5190 -1.1875 -1.1509
84645SOL    HW271928   3.834   7.497   8.702  2.9779  0.9871  0.3341
84646SOL     OW71929   8.458   9.249  10.671 -0.0805  0.1459  0.7980
84646SOL    HW171930   8.364   9.244  10.655 -0.0939  1.4380  0.3529
84646SOL    HW271931   8.467   9.247  10.766 -0.5150 -0.4430  0.8324
84647SOL     OW71932   9.683   8.150   7.475  0.5134 -0.2421 -0.5702
84647SOL    HW171933   9.629   8.092   7.528 -0.8992  0.5802 -1.0393
84647SOL    HW271934   9.637   8.234   7.477  2.1799  0.7197 -0.4034
84648SOL     OW71935  10.597   9.662   1.843 -0.1039  0.0400 -0.2017
84648SOL    HW171936  10.509   9.635   1.870 -0.3169  1.2590  0.4106
84648SOL    HW271937  10.594   9.661   1.747 -1.4153  1.8561 -0.2337
84649SOL     OW71938  11.435  11.803   8.862  0.4012 -1.0301 -0.0816
84649SOL    HW171939  11.421  11.883   8.913 -2.7393 -1.8995  0.5807
84649SOL    HW271940  11.471  11.741   8.925 -1.5935 -1.4930  0.6749
84650SOL     OW71941   1.655   3.365  13.851 -0.2192  0.3005 -0.0746
84650SOL    HW171942   1.712   3.424  13.801  0.5680  0.6794  1.2461
84650SOL    HW271943   1.596   3.328  13.785  0.6848  0.9118 -1.2637
84651SOL     OW71944  10.716   8.140   7.356 -0.6015 -0.6984  0.1195
84651SOL    HW171945  10.777   8.071   7.382  0.0506 -0.5874 -1.0261
84651SOL    HW271946  10.756   8.179   7.279 -2.8471 -1.6048 -1.6227
84652SOL     OW71947   7.792   8.915   2.225  0.0847  0.2711  0.6584
84652SOL    HW171948   7.823   8.925   2.135  0.5388 -1.0466  0.6432
84652SOL    HW271949   7.714   8.860   2.217 -0.0750  0.4477  1.0277
84653SOL     OW71950   9.796   9.738   4.977 -0.5478  0.7358  0.1718
84653SOL    HW171951   9.711   9.766   4.942 -1.1628 -0.1728  0.8782
84653SOL    HW271952   9.778   9.652   5.015  0.5383  0.8528  0.9767
84654SOL     OW71953  13.292   6.731   4.752  0.4639  0.0544  0.3109
84654SOL    HW171954  13.263   6.747   4.662  0.6950  0.3990  0.2966
84654SOL    HW271955  13.284   6.636   4.763 -0.5998  0.1341  0.2861
84655SOL     OW71956   2.886   9.017  11.068 -0.4190  0.4435  0.1377
84655SOL    HW171957   2.881   8.927  11.037 -0.7662  0.3508  0.4552
84655SOL    HW271958   2.823   9.021  11.140 -0.5722  0.9999 -0.0233
84656SOL     OW71959   1.786   1.761   8.379  0.3978 -0.0680  1.1335
84656SOL    HW171960   1.729   1.832   8.350  0.7919 -0.3782 -0.5053
84656SOL    HW271961   1.728   1.685   8.385  0.3535 -0.0484  0.9541
84657SOL     OW71962   6.673   4.402   5.654  0.5194 -0.0473 -0.4810
84657SOL    HW171963   6.592   4.452   5.641  0.6077  0.1926 -0.1303
84657SOL    HW271964   6.698   4.374   5.566  0.3466  0.3419 -0.6598
84658SOL     OW71965  10.262  11.521   6.627  0.3128  0.0953 -0.4590
84658SOL    HW171966  10.336  11.565   6.669  1.0908 -2.8323  1.5700
84658SOL    HW271967  10.184  11.561   6.666  0.8456  1.5209 -0.7887
84659SOL     OW71968   8.752   3.637  12.669  0.1568 -0.4078 -0.4017
84659SOL    HW171969   8.768   3.544  12.652  1.3405 -0.2112 -0.4256
84659SOL    HW271970   8.835   3.680  12.647 -0.5033  0.7106 -0.7999
84660SOL     OW71971   1.201  12.470   7.622 -0.0461  0.0613  0.5381
84660SOL    HW171972   1.241  12.554   7.643 -3.5370  2.0957 -0.3449
84660SOL    HW271973   1.241  12.445   7.538  1.1813  0.7013  0.9131
84661SOL     OW71974  12.127  12.130  11.416  0.4605 -0.0024 -0.8468
84661SOL    HW171975  12.099  12.039  11.423  2.5232 -0.7001 -1.0882
84661SOL    HW271976  12.082  12.163  11.339 -1.4441 -0.3425  0.0677
84662SOL     OW71977   0.266   1.335  10.964  0.0324  0.2909  0.5738
84662SOL    HW171978   0.185   1.356  10.917 -0.0499 -0.0352  0.5692
84662SOL    HW271979   0.320   1.413  10.954 -0.5422  0.7784  1.1510
84663SOL     OW71980  11.124   2.704  11.085 -0.0252 -0.2624  0.4680
84663SOL    HW171981  11.092   2.623  11.126  0.9123 -1.6013 -1.3141
84663SOL    HW271982  11.219   2.698  11.091  0.0724  0.3671 -0.3257
84664SOL     OW71983   6.781   8.572  13.494  0.8069  0.6435 -0.2142
84664SOL    HW171984   6.746   8.661  13.496  0.7938  0.6407  1.6349
84664SOL    HW271985   6.843   8.569  13.567 -1.4427 -1.7178  1.8081
84665SOL     OW71986  12.905   1.233  10.536  0.3477  0.2440  0.0604
84665SOL    HW171987  12.873   1.306  10.484 -0.2530  1.0280  1.4797
84665SOL    HW271988  12.909   1.266  10.626 -0.1999 -1.5117  0.7969
84666SOL     OW71989  10.961  13.581   4.691 -0.8937  0.7276  0.0101
84666SOL    HW171990  10.997  13.651   4.636  1.0085  0.3782  0.7545
84666SOL    HW271991  10.872  13.569   4.658 -0.2142  1.3170 -2.2315
84667SOL     OW71992   3.947  12.256   8.782  0.3272 -0.1906  0.1518
84667SOL    HW171993   4.022  12.308   8.810  0.6477 -0.4355 -0.2464
84667SOL    HW271994   3.934  12.280   8.690  0.4919 -0.8388 -0.0381
84668SOL     OW71995  13.353   5.160   4.052 -0.0094 -0.2958 -0.2765
84668SOL    HW171996  13.424   5.179   3.990 -0.3796  2.4272  0.0322
84668SOL    HW271997  13.293   5.104   4.002  0.4445  0.5740 -1.8794
84669SOL     OW71998   9.128  12.566   5.937 -0.1778  0.5162 -0.4326
84669SOL    HW171999   9.036  12.576   5.960 -0.2981  0.7336 -0.9871
84669SOL    HW272000   9.165  12.653   5.948  0.6672 -0.1214  2.6595
84670SOL     OW72001  11.317  10.841   5.654 -0.0921  0.2543 -0.0494
84670SOL    HW172002  11.282  10.864   5.740 -0.4300 -0.8802  0.1442
84670SOL    HW272003  11.331  10.924   5.610 -1.3931  0.8116  0.5304
84671SOL     OW72004   6.177   8.310   9.749 -0.0580  0.0927 -0.1168
84671SOL    HW172005   6.237   8.251   9.795 -0.3079 -0.3793 -0.3841
84671SOL    HW272006   6.108   8.328   9.813  0.5257  0.9028  0.3057
84672SOL     OW72007   4.102   9.974  13.723  0.2558 -0.3771  0.5350
84672SOL    HW172008   4.176   9.916  13.741  0.2555 -0.6642 -0.3582
84672SOL    HW272009   4.069   9.947  13.638 -1.1693 -0.5437  1.1050
84673SOL     OW72010   8.773   8.308   6.208  0.4477  0.1368 -0.0898
84673SOL    HW172011   8.724   8.245   6.155  0.0134 -0.5642  1.0927
84673SOL    HW272012   8.820   8.361   6.145 -0.7536 -0.0768 -1.2113
84674SOL     OW72013  13.582   0.681   1.623 -0.0344  0.0547  0.0385
84674SOL    HW172014  13.535   0.622   1.564 -1.4637 -0.2051  1.4023
84674SOL    HW272015  13.564   0.768   1.589  2.0057 -0.1814 -1.9283
84675SOL     OW72016   5.876  14.039  12.124  0.6963 -0.1354 -0.0902
84675SOL    HW172017   5.870  14.039  12.029  0.0500 -0.2317 -0.0570
84675SOL    HW272018   5.848  14.127  12.150 -1.7374 -0.8945  0.1245
84676SOL     OW72019  11.429   9.191  13.251 -0.8245  0.5841 -0.0559
84676SOL    HW172020  11.446   9.198  13.157  1.8455 -5.3656 -0.4629
84676SOL    HW272021  11.354   9.132  13.258  0.9158 -1.6441  1.3004
84677SOL     OW72022   0.674   7.520   9.614 -0.5749  0.2315 -0.2819
84677SOL    HW172023   0.769   7.514   9.609 -0.6984 -1.2000 -1.6624
84677SOL    HW272024   0.646   7.437   9.653 -1.2243  1.1070  1.2092
84678SOL     OW72025   5.516  13.498   9.926  0.0203 -0.0647  0.0064
84678SOL    HW172026   5.595  13.528   9.881 -0.4530  2.1305  0.5001
84678SOL    HW272027   5.461  13.461   9.856 -0.0303  1.8098 -1.0128
84679SOL     OW72028  11.702   4.376   3.643  0.1969 -0.0290 -0.0940
84679SOL    HW172029  11.777   4.435   3.651 -0.8331  1.1903  1.0398
84679SOL    HW272030  11.717   4.310   3.711  0.3345  0.0903 -0.0061
84680SOL     OW72031   8.472  13.727   4.170 -0.0952 -0.3068  0.4988
84680SOL    HW172032   8.464  13.637   4.200 -0.7160 -0.1003  0.9605
84680SOL    HW272033   8.383  13.753   4.149  0.2940 -0.4271 -1.5048
84681SOL     OW72034   0.429   8.496  12.811  0.0816 -0.6060  0.2460
84681SOL    HW172035   0.343   8.482  12.850  0.7554 -1.1407  1.5905
84681SOL    HW272036   0.457   8.582  12.843  0.5012 -0.9069  0.6983
84682SOL     OW72037   0.015   2.967  12.896 -0.1525  0.4714 -0.5353
84682SOL    HW172038   0.057   2.986  12.811  1.7370 -2.1062 -0.2794
84682SOL    HW272039  -0.039   2.891  12.879 -0.2768  0.3389  0.4304
84683SOL     OW72040   7.990   8.958   2.433 -0.5395 -0.3017  0.1775
84683SOL    HW172041   7.937   8.944   2.355  2.6537 -0.9280 -2.0746
84683SOL    HW272042   7.977   9.050   2.456 -1.3092 -0.0228 -1.2857
84684SOL     OW72043   5.792   9.016   3.439  0.1727  0.6034 -0.1194
84684SOL    HW172044   5.845   8.943   3.472  1.0647  1.3897  0.2553
84684SOL    HW272045   5.705   9.002   3.476 -0.2870 -1.4384 -1.7951
84685SOL     OW72046   4.264   9.913  10.234  0.0902 -0.3266  0.0714
84685SOL    HW172047   4.177   9.901  10.272 -0.6279  0.8634 -1.1137
84685SOL    HW272048   4.292   9.999  10.265  2.0015 -1.7353  2.5337
84686SOL     OW72049  10.791  10.098  13.402 -0.0249 -0.3748  0.5103
84686SOL    HW172050  10.700  10.092  13.371 -0.4438 -0.7338  1.7359
84686SOL    HW272051  10.842  10.117  13.324 -1.1584 -0.1983 -0.2078
84687SOL     OW72052  13.859   4.809  13.487 -0.1163 -0.1296  0.1037
84687SOL    HW172053  13.807   4.839  13.412 -0.3017  1.8425  0.9666
84687SOL    HW272054  13.905   4.887  13.516  1.5023 -1.3177  0.8427
84688SOL     OW72055   8.978   8.586   3.346  0.3557 -0.6864 -0.1564
84688SOL    HW172056   8.995   8.527   3.273  3.6774 -0.9184  0.6764
84688SOL    HW272057   8.958   8.670   3.304 -2.4558 -1.7902 -1.3075
84689SOL     OW72058  10.638  10.946   5.223  0.6081 -0.2705  0.2048
84689SOL    HW172059  10.643  10.856   5.256  2.7958 -0.2225  0.1726
84689SOL    HW272060  10.557  10.948   5.172 -0.3686 -1.7218  1.5776
84690SOL     OW72061   0.018   0.422   6.009 -0.1084  0.2323  0.2387
84690SOL    HW172062  -0.027   0.403   5.927  1.8404  1.7442 -1.2633
84690SOL    HW272063   0.090   0.360   6.013 -1.0181 -0.7857  1.5740
84691SOL     OW72064   9.223   1.544   7.110  0.3246  0.1311  0.4199
84691SOL    HW172065   9.288   1.606   7.079 -0.5449  0.1713 -1.4579
84691SOL    HW272066   9.158   1.597   7.155  0.4342  0.3720  0.2949
84692SOL     OW72067   9.710   0.390   3.504 -0.2336 -0.4692 -0.0340
84692SOL    HW172068   9.636   0.399   3.443  0.7984 -0.8718 -1.3760
84692SOL    HW272069   9.668   0.373   3.589 -1.7293  0.7729 -0.4622
84693SOL     OW72070  14.113   4.143   6.380  0.2534  0.1522  0.1225
84693SOL    HW172071  14.092   4.058   6.420  2.1939  0.0982  1.1399
84693SOL    HW272072  14.032   4.194   6.390 -1.3013 -1.8402 -1.4195
84694SOL     OW72073   0.207  10.688   8.035  0.4863 -0.1079 -1.0759
84694SOL    HW172074   0.159  10.733   7.965 -0.6204  1.8257  0.8198
84694SOL    HW272075   0.146  10.686   8.109  2.4498  0.1736  0.6442
84695SOL     OW72076   6.064   8.379   2.968 -0.7041 -0.3407  0.0272
84695SOL    HW172077   6.082   8.287   2.951  0.9577  0.1358 -1.1417
84695SOL    HW272078   5.985   8.379   3.022 -1.1065 -2.4060 -0.4641
84696SOL     OW72079  11.687   9.345   1.031  0.2403  0.4526 -0.5788
84696SOL    HW172080  11.615   9.286   1.051  0.9918 -0.0292  0.8092
84696SOL    HW272081  11.760   9.287   1.007  0.0842  0.9406 -2.4220
84697SOL     OW72082   3.061  11.390   3.891 -0.2522  0.5757 -0.0290
84697SOL    HW172083   3.026  11.364   3.976 -1.4573  2.0000 -0.0730
84697SOL    HW272084   3.116  11.466   3.909 -0.6862  1.0234 -0.5327
84698SOL     OW72085   1.003  10.033  12.351 -0.1401 -0.0727  0.3825
84698SOL    HW172086   0.923   9.987  12.379  0.3085 -1.3688 -0.3721
84698SOL    HW272087   1.049   9.969  12.296  0.8024  1.1032 -0.2324
84699SOL     OW72088   9.383   8.320   7.914  0.2593 -0.3816 -0.1970
84699SOL    HW172089   9.349   8.395   7.964 -2.3489 -0.4868 -1.6434
84699SOL    HW272090   9.357   8.244   7.966  0.3509 -0.3693 -0.1346
84700SOL     OW72091   5.649   5.156  13.413  0.4300 -0.2475  0.1904
84700SOL    HW172092   5.641   5.224  13.346  0.7125  0.0363  0.4418
84700SOL    HW272093   5.639   5.074  13.365 -1.9388 -0.0138  0.1755
84701SOL     OW72094   8.975   6.666   2.635  0.4588 -0.5265  0.5627
84701SOL    HW172095   8.994   6.608   2.709  1.9849  0.7376  1.2188
84701SOL    HW272096   9.048   6.652   2.574 -0.1135 -0.6033 -0.1220
84702SOL     OW72097   9.912   1.502   0.948  0.2922  0.0462 -0.4808
84702SOL    HW172098   9.998   1.537   0.923 -0.2869  0.9151 -1.2914
84702SOL    HW272099   9.928   1.461   1.033  1.3809  0.7462 -0.3180
84703SOL     OW72100  10.843  13.778   7.763 -0.0555 -0.6876  0.2540
84703SOL    HW172101  10.843  13.847   7.696 -0.7660 -0.4272  0.5173
84703SOL    HW272102  10.915  13.720   7.737  0.3893  0.0108 -0.1137
84704SOL     OW72103  10.728   9.822   2.581  0.0746  0.1811 -0.2183
84704SOL    HW172104  10.769   9.844   2.497 -0.2041  1.1178 -0.1220
84704SOL    HW272105  10.704   9.907   2.618  0.2733 -0.2196  0.8511
84705SOL     OW72106   8.456   2.182   7.835 -0.0962  0.5993 -0.2987
84705SOL    HW172107   8.549   2.193   7.857 -0.0567  0.8991 -0.6046
84705SOL    HW272108   8.426   2.111   7.891  0.0220  1.3130  0.7004
84706SOL     OW72109   7.544   7.965   9.860  0.1830 -0.1366 -0.4060
84706SOL    HW172110   7.638   7.984   9.869  0.2380 -0.2017 -0.7915
84706SOL    HW272111   7.524   7.906   9.933 -0.1184  1.8054  1.1421
84707SOL     OW72112   2.181   0.493   1.151  0.1588 -0.4710 -0.0471
84707SOL    HW172113   2.107   0.514   1.094 -0.2187  0.3766  0.7367
84707SOL    HW272114   2.175   0.556   1.223  0.9765 -1.1367  0.6261
84708SOL     OW72115   0.511  10.452   9.375 -0.1107 -0.6443  0.1176
84708SOL    HW172116   0.458  10.420   9.302 -1.0633 -0.8246  0.8767
84708SOL    HW272117   0.489  10.394   9.448  0.1708  0.0692  0.7862
84709SOL     OW72118  10.986   2.295   5.136  0.3777  0.3755  0.2564
84709SOL    HW172119  10.966   2.214   5.089  0.0139 -0.5325  1.9087
84709SOL    HW272120  10.945   2.364   5.084 -2.6721 -0.8942  0.7613
84710SOL     OW72121  12.346   5.406   2.553 -0.0207  0.7958 -0.4424
84710SOL    HW172122  12.420   5.378   2.608  0.0174 -1.0415 -1.3443
84710SOL    HW272123  12.275   5.347   2.577 -0.5188  1.0886 -1.1612
84711SOL     OW72124   6.545   2.583  13.403 -0.2017  0.1008 -0.1829
84711SOL    HW172125   6.489   2.506  13.396 -0.0272 -0.1545  0.9605
84711SOL    HW272126   6.611   2.571  13.336  0.6806 -1.5125  0.9072
84712SOL     OW72127   1.211   7.925  13.083 -0.4869 -0.5332 -0.1551
84712SOL    HW172128   1.193   7.858  13.149  0.7392 -1.3670 -0.6267
84712SOL    HW272129   1.290   7.895  13.040  1.2492  2.1597  0.8588
84713SOL     OW72130   2.731   7.957   7.529 -0.1776 -0.2927  0.0667
84713SOL    HW172131   2.640   7.983   7.542  0.0166  0.2583  0.3554
84713SOL    HW272132   2.757   7.918   7.613  0.2610  0.8128  0.4690
84714SOL     OW72133   3.268   9.597   9.793  0.3122 -0.0007  0.3785
84714SOL    HW172134   3.184   9.604   9.837  0.5820 -1.0179  1.1142
84714SOL    HW272135   3.308   9.518   9.831  0.9962 -0.3341 -0.9580
84715SOL     OW72136  11.451   3.088   1.690 -0.4854  0.2577 -0.1461
84715SOL    HW172137  11.508   3.072   1.765  2.3216 -2.3425 -2.5984
84715SOL    HW272138  11.451   3.183   1.679 -2.2253  0.9519  3.8149
84716SOL     OW72139   4.000   2.361  10.544  0.3457  0.4331 -0.3039
84716SOL    HW172140   4.005   2.284  10.600 -0.9192  0.3336 -0.2954
84716SOL    HW272141   4.041   2.431  10.596  1.9791 -0.3165 -0.5252
84717SOL     OW72142  11.234   3.579   4.053  0.5260  0.0229 -0.0996
84717SOL    HW172143  11.161   3.583   3.992  0.1316 -0.4942  0.3261
84717SOL    HW272144  11.229   3.662   4.101 -1.2134 -0.9206  1.5090
84718SOL     OW72145   5.055   5.539  13.503  0.2852 -0.0612  0.6901
84718SOL    HW172146   4.973   5.575  13.472 -0.5987 -1.4591  1.2869
84718SOL    HW272147   5.109   5.529  13.424 -0.8616 -0.9379 -0.0198
84719SOL     OW72148   4.737   2.908   0.616 -0.4480  0.0233  0.4452
84719SOL    HW172149   4.642   2.911   0.610 -0.5276 -1.9687  0.1640
84719SOL    HW272150   4.755   2.852   0.692  0.5095  0.6692  0.7135
84720SOL     OW72151  11.440   6.257   1.238 -0.1308 -0.2242  0.0954
84720SOL    HW172152  11.400   6.302   1.163 -0.1826 -1.0163 -0.3634
84720SOL    HW272153  11.371   6.256   1.304 -0.0606  0.5501  0.1890
84721SOL     OW72154  13.279   8.706   2.317 -0.5722 -0.2037  0.2904
84721SOL    HW172155  13.262   8.800   2.304 -1.4247 -0.3985 -0.0956
84721SOL    HW272156  13.196   8.664   2.293 -0.6652 -0.9517  1.8230
84722SOL     OW72157  12.942   0.221   3.624  0.7790  0.1888  0.5640
84722SOL    HW172158  12.928   0.187   3.535 -1.3392 -0.7352  1.1728
84722SOL    HW272159  12.862   0.272   3.642  1.6197  1.1822  1.5984
84723SOL     OW72160   7.658  11.304   9.021  0.1631  0.0662 -0.4429
84723SOL    HW172161   7.616  11.222   9.045 -0.5284  1.1168  2.3027
84723SOL    HW272162   7.751  11.282   9.010  0.0685 -0.9986  0.7271
84724SOL     OW72163   9.154   1.369   7.354 -0.1936 -0.5599 -0.1232
84724SOL    HW172164   9.226   1.417   7.313 -0.6283  0.9879  0.8356
84724SOL    HW272165   9.171   1.376   7.448 -1.8509  0.3369  0.1611
84725SOL     OW72166   0.200   6.915   6.647 -0.2699  0.2443  0.0889
84725SOL    HW172167   0.225   7.003   6.620 -0.5399  1.0129  2.1747
84725SOL    HW272168   0.184   6.922   6.741 -2.0145 -1.6405  0.0024
84726SOL     OW72169   1.323   2.056   5.324  0.0795 -0.0247 -0.0587
84726SOL    HW172170   1.291   2.009   5.247  3.4473 -2.3336 -0.2831
84726SOL    HW272171   1.300   1.999   5.398  1.2381 -0.3979  0.0374
84727SOL     OW72172   3.332   2.351   6.951  0.2783 -0.1178  0.1134
84727SOL    HW172173   3.280   2.322   6.876  1.2918  0.2767 -0.7590
84727SOL    HW272174   3.331   2.276   7.011  0.9414 -1.1180 -1.0902
84728SOL     OW72175   8.989  11.261   7.075 -0.3777  0.4682  0.1507
84728SOL    HW172176   8.941  11.185   7.041  0.2378  0.2632 -0.2741
84728SOL    HW272177   9.018  11.234   7.162 -2.9652  1.4136  1.4033
84729SOL     OW72178  11.976  13.310   6.549  0.0269  0.6860 -0.2039
84729SOL    HW172179  12.066  13.287   6.571  0.1455  2.0803  0.8865
84729SOL    HW272180  11.929  13.226   6.554  0.8555  0.2645  1.4044
84730SOL     OW72181   5.468   4.796   2.768  0.2266 -0.1939  0.6593
84730SOL    HW172182   5.455   4.715   2.817  0.5517 -1.8652 -1.8051
84730SOL    HW272183   5.537   4.776   2.706 -1.8140  0.8659 -2.2026
84731SOL     OW72184   2.929  11.329   4.848  0.1122  0.1507 -0.7677
84731SOL    HW172185   3.024  11.333   4.864  0.4165 -1.6193 -1.8665
84731SOL    HW272186   2.896  11.267   4.913  0.0122 -0.6159 -1.5377
84732SOL     OW72187  12.035   2.068   8.279 -0.3732  0.0647 -0.0670
84732SOL    HW172188  12.095   2.142   8.284  1.1294 -1.1691  1.2186
84732SOL    HW272189  11.952   2.106   8.250  0.7004  2.0117 -0.7424
84733SOL     OW72190  11.554  10.838   4.625  0.1130  0.0788  0.1129
84733SOL    HW172191  11.459  10.840   4.622  0.0516 -1.8321 -0.9292
84733SOL    HW272192  11.581  10.906   4.563 -0.4340  3.2256  3.0893
84734SOL     OW72193   9.450   7.029   3.455  0.1577  0.1497  0.3302
84734SOL    HW172194   9.377   6.967   3.460 -0.4912  0.8646 -0.0307
84734SOL    HW272195   9.526   6.975   3.432 -0.4319 -0.4828 -0.1809
84735SOL     OW72196  11.948   1.025   1.675 -0.1756  0.3382  0.0913
84735SOL    HW172197  11.918   1.076   1.600 -1.5345 -2.5882 -1.5375
84735SOL    HW272198  12.008   0.960   1.638 -0.0504 -0.5259  1.7078
84736SOL     OW72199  12.615   0.720  10.647  0.1580  0.5610  0.4892
84736SOL    HW172200  12.579   0.632  10.661 -0.1146  0.8169  1.4858
84736SOL    HW272201  12.661   0.714  10.563 -0.3733 -0.3639  0.2494
84737SOL     OW72202  12.117   7.531  13.862  0.3241 -0.3803  0.3208
84737SOL    HW172203  12.146   7.544  13.771 -2.2195 -1.5416 -0.7701
84737SOL    HW272204  12.045   7.592  13.872 -1.2756 -2.2077  0.5286
84738SOL     OW72205   2.544   5.732  14.123  0.6946 -0.1201 -0.4857
84738SOL    HW172206   2.571   5.800  14.061 -1.4825  0.6218 -0.7048
84738SOL    HW272207   2.588   5.756  14.205  0.2829  1.3822 -0.6641
84739SOL     OW72208   4.214  12.282   5.331  0.1408 -0.2048 -0.4142
84739SOL    HW172209   4.159  12.267   5.408  0.8318  0.7256  0.2737
84739SOL    HW272210   4.303  12.273   5.362  0.4210 -0.5265 -1.2712
84740SOL     OW72211   4.558  10.403   5.610 -0.5289 -0.1074 -0.2416
84740SOL    HW172212   4.485  10.447   5.653 -1.2116 -0.3319 -1.1261
84740SOL    HW272213   4.621  10.473   5.592 -1.4075  0.4595 -1.2440
84741SOL     OW72214   6.387   4.562   0.758  0.4831  0.5890  0.1863
84741SOL    HW172215   6.457   4.573   0.694 -0.1647 -0.2846 -0.7237
84741SOL    HW272216   6.325   4.632   0.738  0.2080  0.2261 -0.2738
84742SOL     OW72217   9.200   6.054   0.242 -0.4705 -0.5324 -0.1607
84742SOL    HW172218   9.282   6.027   0.283 -0.7346 -0.7875  0.2021
84742SOL    HW272219   9.135   6.052   0.313 -0.7029  0.0819 -0.3485
84743SOL     OW72220   8.972   1.053   7.806  0.3396  0.2889 -0.1305
84743SOL    HW172221   9.056   1.080   7.843  0.5053  0.9619 -0.9779
84743SOL    HW272222   8.968   0.959   7.824  0.5838  0.5252  1.2309
84744SOL     OW72223   1.643   6.682   5.318  0.3317 -0.0521  0.0910
84744SOL    HW172224   1.678   6.687   5.407 -0.3388 -1.1131  0.4273
84744SOL    HW272225   1.718   6.657   5.264  0.6242  0.0772  0.4346
84745SOL     OW72226   0.856   6.516   5.124 -0.5653  0.3771  0.0547
84745SOL    HW172227   0.827   6.537   5.035  1.6158  1.6535 -0.4320
84745SOL    HW272228   0.919   6.584   5.145  0.3361 -0.9434  1.8835
84746SOL     OW72229   1.460   4.880   0.220 -0.1593  0.0581  0.3878
84746SOL    HW172230   1.382   4.866   0.167 -1.0717  0.1730  1.6573
84746SOL    HW272231   1.511   4.945   0.172 -1.0137  0.2478 -0.2698
84747SOL     OW72232   1.526  10.456   5.466 -0.0391 -0.1223  0.2800
84747SOL    HW172233   1.474  10.467   5.386  0.4016  1.4545  0.1735
84747SOL    HW272234   1.589  10.386   5.444 -0.3340 -0.1419 -0.5320
84748SOL     OW72235   9.588   7.699   3.802  0.0266 -0.2382  0.4112
84748SOL    HW172236   9.677   7.666   3.789  0.6277  1.1054  0.8965
84748SOL    HW272237   9.534   7.647   3.743  1.2510 -0.5287 -0.4880
84749SOL     OW72238   2.083   9.786  11.488 -0.2478  0.0293 -0.3353
84749SOL    HW172239   2.109   9.853  11.425 -0.1713  2.0395  1.7044
84749SOL    HW272240   2.006   9.745  11.449  0.0908  0.8487 -1.9445
84750SOL     OW72241  13.327   3.926   2.031 -0.1384  0.0316  0.3709
84750SOL    HW172242  13.356   3.926   2.122 -0.4606 -0.2194  0.4773
84750SOL    HW272243  13.404   3.950   1.981  0.3136 -0.8890  0.6181
84751SOL     OW72244   0.451   2.682   3.106 -0.1853  0.0854 -0.3885
84751SOL    HW172245   0.481   2.660   3.195  0.4652 -0.4679 -0.7385
84751SOL    HW272246   0.517   2.644   3.048 -1.2359 -0.6004 -1.1556
84752SOL     OW72247   6.878   0.455   7.540  0.4709 -0.3370  0.1309
84752SOL    HW172248   6.890   0.412   7.624 -0.4458 -1.3795 -0.2473
84752SOL    HW272249   6.963   0.446   7.496  0.7275 -0.4498  0.6436
84753SOL     OW72250   6.247   8.890   6.225  0.6679 -0.0463 -0.5140
84753SOL    HW172251   6.299   8.844   6.158 -1.7905 -1.3254 -1.6907
84753SOL    HW272252   6.236   8.978   6.190 -0.0080 -0.5009 -1.4887
84754SOL     OW72253   2.691   0.249  10.632  0.2797 -0.0044  0.2509
84754SOL    HW172254   2.701   0.302  10.711  1.5190 -1.1840  0.9298
84754SOL    HW272255   2.667   0.312  10.563 -0.7049  1.0588  1.5172
84755SOL     OW72256   6.656  10.323  13.567  0.5006  0.0338  0.0452
84755SOL    HW172257   6.601  10.367  13.631 -0.0405 -0.9317  0.2627
84755SOL    HW272258   6.595  10.275  13.511  0.9234  1.1523 -1.4459
84756SOL     OW72259  10.067  11.652  12.771 -0.4176  0.2587  0.3229
84756SOL    HW172260  10.107  11.653  12.858  1.4166  0.0877 -0.4819
84756SOL    HW272261  10.063  11.560  12.747 -0.6442  0.3242  0.1001
84757SOL     OW72262  11.907   2.587  11.588 -0.4090 -0.3174  0.0934
84757SOL    HW172263  11.939   2.580  11.498 -0.9121 -1.4819 -0.0079
84757SOL    HW272264  11.858   2.669  11.589  2.3019  1.4256  0.1914
84758SOL     OW72265   3.362  13.033   6.598  0.1261 -0.2388  0.3487
84758SOL    HW172266   3.317  12.954   6.568  0.6862 -0.3113 -0.3210
84758SOL    HW272267   3.323  13.103   6.546  0.1545 -0.1781  0.4093
84759SOL     OW72268  11.937   9.564  10.724 -0.1301  0.6275 -0.2428
84759SOL    HW172269  11.930   9.557  10.628 -0.6242  0.5332 -0.2019
84759SOL    HW272270  11.861   9.517  10.757 -0.1738  0.9991  0.1897
84760SOL     OW72271   1.608  10.931   6.488 -0.0188 -0.4885  0.2494
84760SOL    HW172272   1.576  10.884   6.565  0.7890  1.6481  2.0053
84760SOL    HW272273   1.677  10.875   6.452  0.9044 -0.7210  2.2480
84761SOL     OW72274   8.869   4.568  12.709  0.6444  0.1697 -0.3075
84761SOL    HW172275   8.877   4.611  12.794 -0.4235  0.0809 -0.1427
84761SOL    HW272276   8.789   4.515  12.716  0.1236  0.7271 -1.6061
84762SOL     OW72277  12.318   1.058  14.098 -0.5179  0.1168 -0.4964
84762SOL    HW172278  12.363   0.988  14.146 -2.0138 -0.5525 -0.0109
84762SOL    HW272279  12.301   1.125  14.165  0.2429  0.6274 -0.8026
84763SOL     OW72280   4.526   7.002   2.823  0.2220  0.5416 -0.2948
84763SOL    HW172281   4.547   7.094   2.811 -1.6784  0.8837 -1.4157
84763SOL    HW272282   4.529   6.965   2.735 -1.5407  0.1577 -0.2279
84764SOL     OW72283   1.300  10.101   4.493  0.0939 -0.0735  0.3769
84764SOL    HW172284   1.383  10.077   4.533 -0.0125  1.0774  1.3350
84764SOL    HW272285   1.315  10.188   4.456 -0.8021  0.3362  0.9493
84765SOL     OW72286   5.439   6.770   6.110  0.1964  0.0148  0.0245
84765SOL    HW172287   5.480   6.693   6.074 -0.6334 -0.0827 -0.7515
84765SOL    HW272288   5.493   6.794   6.186  0.8263 -0.9287 -0.1202
84766SOL     OW72289   3.051   3.210  10.060  0.1205 -0.0587  0.8409
84766SOL    HW172290   3.089   3.297  10.048  1.3029 -0.7065 -0.3200
84766SOL    HW272291   3.119   3.158  10.102 -0.2580 -0.6582  0.7372
84767SOL     OW72292  13.474   5.622   7.223  0.0809 -0.4499 -0.1691
84767SOL    HW172293  13.551   5.679   7.217  0.3401 -0.5207  1.7532
84767SOL    HW272294  13.447   5.628   7.315 -0.2740 -2.9123 -0.0451
84768SOL     OW72295   8.567   8.539   4.005 -0.0767 -0.0421 -0.0626
84768SOL    HW172296   8.530   8.602   3.943 -3.1913  0.1891  1.8158
84768SOL    HW272297   8.648   8.510   3.964  0.7545  3.9678 -1.8061
84769SOL     OW72298   0.438  10.604   7.951  0.1587 -0.3852 -0.4241
84769SOL    HW172299   0.357  10.637   7.990  0.4998 -0.4989  0.4044
84769SOL    HW272300   0.449  10.655   7.871 -0.3891  0.0726 -0.2134
84770SOL     OW72301   6.570  10.319   8.526 -0.2272 -0.2004 -0.1762
84770SOL    HW172302   6.541  10.250   8.465  0.1188 -0.2856 -0.2509
84770SOL    HW272303   6.517  10.395   8.503 -1.0169 -0.6038  0.2906
84771SOL     OW72304   9.841  12.957   5.778 -0.3734 -0.2045  1.0359
84771SOL    HW172305   9.872  12.956   5.687  0.6130  0.5561  1.3448
84771SOL    HW272306   9.914  12.922   5.828 -0.6849 -0.0563  1.5976
84772SOL     OW72307  13.882   1.397   5.814 -0.3929 -0.3387  0.2045
84772SOL    HW172308  13.880   1.476   5.868  1.0810 -0.4878  0.5252
84772SOL    HW272309  13.814   1.341   5.852 -1.2246  0.6254  0.1821
84773SOL     OW72310   8.407   6.401   5.030 -0.0283 -0.0843 -0.2564
84773SOL    HW172311   8.363   6.456   5.095 -0.0470  0.2434 -0.5462
84773SOL    HW272312   8.370   6.314   5.044 -2.2097  0.5220 -1.7366
84774SOL     OW72313   0.134  10.133   0.045  0.2209 -0.4159 -0.0397
84774SOL    HW172314   0.201  10.099  -0.014 -0.1812 -0.0702 -0.7163
84774SOL    HW272315   0.183  10.170   0.118  0.8273  0.5751 -0.9176
84775SOL     OW72316   4.725  12.197   7.918  0.0847 -0.1063  0.0202
84775SOL    HW172317   4.792  12.205   7.849  1.3515  0.1129  1.2194
84775SOL    HW272318   4.736  12.276   7.971 -0.8330 -0.2967  0.5057
84776SOL     OW72319   1.872  12.557   2.642  0.3388 -0.3822 -0.0510
84776SOL    HW172320   1.859  12.601   2.558  1.1972  2.8861  1.3473
84776SOL    HW272321   1.785  12.557   2.682 -0.0407 -1.8000 -0.8184
84777SOL     OW72322   1.880   2.542  11.110 -0.4533 -0.1995 -0.1576
84777SOL    HW172323   1.927   2.523  11.191 -0.4887 -3.1800 -0.7091
84777SOL    HW272324   1.787   2.544  11.135 -0.3614  0.8379  0.1479
84778SOL     OW72325   9.399   2.257  11.984  0.3626 -0.5681 -0.3634
84778SOL    HW172326   9.309   2.275  11.955  0.5920 -0.1103 -0.7920
84778SOL    HW272327   9.418   2.170  11.951  0.0823 -0.6560 -0.2941
84779SOL     OW72328  11.174   5.329   4.752  0.3739  0.0006 -0.1813
84779SOL    HW172329  11.213   5.293   4.832 -1.2525  0.7350  0.9814
84779SOL    HW272330  11.192   5.262   4.685  0.7115 -1.1940  1.0453
84780SOL     OW72331  13.416  12.307  12.859 -0.7283  0.3482  0.6461
84780SOL    HW172332  13.395  12.221  12.896 -0.2127 -0.2323 -0.3825
84780SOL    HW272333  13.458  12.354  12.931  0.2608 -0.7630  0.8148
84781SOL     OW72334  10.670   4.775   5.257 -0.1733  0.5225 -0.4749
84781SOL    HW172335  10.593   4.761   5.202 -0.5511  1.8081 -0.3010
84781SOL    HW272336  10.665   4.867   5.282  0.2526  0.0828  1.3241
84782SOL     OW72337   2.264   7.276   2.465 -0.7305  0.2387 -0.2440
84782SOL    HW172338   2.253   7.323   2.382  0.9482 -0.5545 -0.9545
84782SOL    HW272339   2.252   7.184   2.442  0.7733 -0.0862  0.1571
84783SOL     OW72340  11.085   9.464   3.313 -0.5145 -0.3483  0.6477
84783SOL    HW172341  11.061   9.374   3.335 -0.5617 -0.2312  1.0978
84783SOL    HW272342  11.149   9.456   3.243 -1.8633 -0.6785 -0.6064
84784SOL     OW72343   1.039   5.508  12.565  0.1380  1.1975 -0.4034
84784SOL    HW172344   1.003   5.530  12.651  2.4984  2.1429  0.4186
84784SOL    HW272345   1.120   5.461  12.584  0.1464  0.4212 -2.1543
84785SOL     OW72346   0.622   2.049   3.059 -0.0065  0.1864  0.3799
84785SOL    HW172347   0.547   2.052   3.119  0.6814  1.1632  1.2369
84785SOL    HW272348   0.698   2.055   3.117  0.8756 -2.9872 -0.2628
84786SOL     OW72349   1.381   8.380  11.555  0.2385  0.0033 -0.2164
84786SOL    HW172350   1.326   8.451  11.588 -0.3182  0.1070 -1.3100
84786SOL    HW272351   1.412   8.335  11.634 -1.3234  0.0181  0.4568
84787SOL     OW72352   2.795   3.879  13.471 -0.0271 -0.3967 -0.3778
84787SOL    HW172353   2.812   3.808  13.534  0.1894  0.0400  0.0611
84787SOL    HW272354   2.878   3.890  13.425  0.8515  1.4614  1.4882
84788SOL     OW72355  11.186   1.232   7.424 -0.7755 -0.2938 -0.1176
84788SOL    HW172356  11.188   1.208   7.517 -1.1719 -0.9318 -0.2690
84788SOL    HW272357  11.138   1.160   7.382 -1.1404  0.2968 -0.7249
84789SOL     OW72358   0.827  10.546  11.207 -0.3226  0.1961 -0.2523
84789SOL    HW172359   0.752  10.602  11.226 -1.9604 -0.9977 -2.6551
84789SOL    HW272360   0.853  10.510  11.292 -1.3038  2.0071  0.8753
84790SOL     OW72361   6.942   9.527  10.869 -0.4433 -0.1357 -0.3047
84790SOL    HW172362   6.924   9.548  10.777 -0.0069 -0.9488 -0.5810
84790SOL    HW272363   6.967   9.435  10.869  2.3410  0.5123  0.2186
84791SOL     OW72364   8.736   0.137   6.774  0.4330 -0.4244 -0.2783
84791SOL    HW172365   8.658   0.185   6.748  0.1912 -0.4038  0.4596
84791SOL    HW272366   8.704   0.065   6.829  0.9559 -0.0866  0.5049
84792SOL     OW72367   6.697  13.727   3.785  0.3443  0.2030  0.0748
84792SOL    HW172368   6.726  13.691   3.869  3.6856 -1.5819 -1.6509
84792SOL    HW272369   6.666  13.650   3.736  0.2324  0.9217 -1.0021
84793SOL     OW72370   0.153  10.888   7.765 -0.0159 -0.0221  0.1705
84793SOL    HW172371   0.171  10.977   7.796 -0.1692 -0.0680  0.3938
84793SOL    HW272372   0.238  10.844   7.767 -0.0087  0.0045  0.4300
84794SOL     OW72373  12.251   3.403   2.881 -0.1394  0.3335  0.0612
84794SOL    HW172374  12.191   3.331   2.858  0.6366 -0.0416 -0.8997
84794SOL    HW272375  12.260   3.453   2.800 -2.3229  2.8354  1.2333
84795SOL     OW72376   6.799   8.849   0.010 -0.1512  0.3091  0.5109
84795SOL    HW172377   6.725   8.827   0.066 -0.8894  0.9359 -0.1979
84795SOL    HW272378   6.779   8.937  -0.022  0.7170  0.3286  0.0065
84796SOL     OW72379  12.886  11.762   5.044 -0.0707  0.5507  0.2656
84796SOL    HW172380  12.960  11.818   5.068 -0.4637  1.7230 -1.0907
84796SOL    HW272381  12.809  11.815   5.063 -0.4894  0.0983 -0.1496
84797SOL     OW72382   9.752   3.117   1.543 -0.3866 -0.5017 -0.5668
84797SOL    HW172383   9.689   3.046   1.529 -3.0513  1.4169  0.8024
84797SOL    HW272384   9.766   3.154   1.455 -0.1812 -1.6934 -1.0592
84798SOL     OW72385   4.257   4.026   4.917 -0.6350 -0.0777  0.1961
84798SOL    HW172386   4.320   4.061   4.979 -0.5199 -0.2339  0.1680
84798SOL    HW272387   4.202   3.967   4.968 -0.6283 -0.1004  0.1773
84799SOL     OW72388   7.546   4.814   8.615 -0.4318  0.2733 -0.1656
84799SOL    HW172389   7.566   4.760   8.539 -1.9516  0.9618 -1.1001
84799SOL    HW272390   7.515   4.751   8.681  1.0942 -0.3497 -0.0116
84800SOL     OW72391   9.394   6.433   0.458 -0.0300  0.1607  0.4230
84800SOL    HW172392   9.351   6.518   0.456  0.7603  0.5987  1.1368
84800SOL    HW272393   9.357   6.385   0.384 -2.4606  0.1417  1.5793
84801SOL     OW72394   7.382   0.640   9.364 -0.3387  0.0890  0.6259
84801SOL    HW172395   7.441   0.714   9.349 -0.8588  0.3750 -0.0698
84801SOL    HW272396   7.310   0.677   9.416 -1.6493  0.6155 -1.4498
84802SOL     OW72397   7.799   1.855   0.987  0.3975  0.3111  0.2721
84802SOL    HW172398   7.811   1.771   0.943 -0.5328  1.2922 -2.0620
84802SOL    HW272399   7.844   1.918   0.930 -1.5104  1.7646  0.2693
84803SOL     OW72400   7.606   8.726   9.264 -0.4113  0.8394  0.1518
84803SOL    HW172401   7.692   8.760   9.289  1.5588 -2.9571 -0.7127
84803SOL    HW272402   7.563   8.706   9.347 -0.2144  2.0779  0.5780
84804SOL     OW72403   0.029   2.592   0.124 -0.2150  0.4420 -0.3324
84804SOL    HW172404   0.029   2.507   0.168  1.0380 -0.1125 -1.3609
84804SOL    HW272405   0.037   2.571   0.031  0.4176  1.6977 -0.5787
84805SOL     OW72406   3.447   7.625   8.980  0.2512  0.5072 -0.1290
84805SOL    HW172407   3.404   7.583   9.055 -2.1881  2.3822 -0.3601
84805SOL    HW272408   3.539   7.601   8.989 -0.3721 -1.4336  2.0009
84806SOL     OW72409   6.977   8.921   5.969  0.4934 -0.3412  0.6166
84806SOL    HW172410   6.967   8.868   5.890 -1.8103  1.1918 -0.2305
84806SOL    HW272411   6.981   9.011   5.936 -0.5498  0.3233  2.2255
84807SOL     OW72412  11.577  11.249   8.244  0.1542 -0.0042  0.2797
84807SOL    HW172413  11.619  11.326   8.283  0.4810  0.0548 -0.1833
84807SOL    HW272414  11.641  11.178   8.255  1.4651  0.6058 -2.5734
84808SOL     OW72415   9.487   2.906   8.641  0.4538  0.2888 -0.5687
84808SOL    HW172416   9.581   2.924   8.634  0.3069  1.2740 -0.1010
84808SOL    HW272417   9.470   2.843   8.571  1.4786  0.0189 -0.5930
84809SOL     OW72418   6.646   9.024   4.542  0.2886 -0.1740  0.4909
84809SOL    HW172419   6.610   9.101   4.586  1.1643  1.5471 -1.6162
84809SOL    HW272420   6.665   8.962   4.612 -2.0162  0.8411  2.1086
84810SOL     OW72421   0.138   0.551   2.993  0.1493  0.1461 -0.6259
84810SOL    HW172422   0.108   0.462   3.008  0.5899  0.1976  0.6137
84810SOL    HW272423   0.075   0.587   2.930 -1.2618 -0.3687  0.4501
84811SOL     OW72424   0.427   9.746  13.180  0.0422 -0.0401  0.0082
84811SOL    HW172425   0.501   9.783  13.132 -0.6907  0.4749 -0.7615
84811SOL    HW272426   0.452   9.752  13.272  1.1527 -0.3295 -0.2547
84812SOL     OW72427   7.287  11.518   2.883 -0.6756  0.4364  0.6301
84812SOL    HW172428   7.349  11.470   2.937  0.5322  0.7488 -0.4393
84812SOL    HW272429   7.334  11.597   2.855 -0.8737 -0.1717 -1.6588
84813SOL     OW72430   3.857   8.954  12.268  0.4354 -0.0584 -0.4292
84813SOL    HW172431   3.919   8.931  12.337 -1.4471 -1.2550  0.9665
84813SOL    HW272432   3.893   9.034  12.230  1.6551  0.5823  1.8344
84814SOL     OW72433   8.683  11.824   8.060 -0.9601 -0.0960 -0.7644
84814SOL    HW172434   8.635  11.881   8.119 -1.3761  0.8850 -2.0001
84814SOL    HW272435   8.648  11.845   7.973  0.7308 -0.3723 -1.5453
84815SOL     OW72436  11.865  11.221   7.894 -0.2193 -0.1030 -0.3686
84815SOL    HW172437  11.868  11.316   7.903 -1.0369 -0.2042  1.5393
84815SOL    HW272438  11.790  11.195   7.948  0.0529 -1.8442 -0.7836
84816SOL     OW72439   8.671   6.232   5.053  0.2611 -0.1190 -0.0277
84816SOL    HW172440   8.604   6.242   5.120 -0.6328 -2.3069 -0.5064
84816SOL    HW272441   8.625   6.191   4.979  1.4274  1.3088 -1.6511
84817SOL     OW72442   5.089   8.681   3.319 -0.6615 -0.0432  0.4952
84817SOL    HW172443   5.091   8.771   3.353  0.9300  0.6687 -1.2816
84817SOL    HW272444   5.129   8.628   3.389 -0.9941  0.7212  1.2878
84818SOL     OW72445  12.268   8.137   2.428  0.0401  0.0674  0.3696
84818SOL    HW172446  12.330   8.080   2.381  0.0317  2.4929 -2.8807
84818SOL    HW272447  12.182   8.105   2.401  0.0047  0.3297  0.1690
84819SOL     OW72448  11.350  13.410   6.433  0.1842  0.3163  0.2840
84819SOL    HW172449  11.442  13.416   6.405  0.5858  0.1953  1.4947
84819SOL    HW272450  11.338  13.318   6.457 -0.1719  0.3825  0.3706
84820SOL     OW72451   7.413  10.890  13.511 -0.1900  0.4121 -0.1963
84820SOL    HW172452   7.465  10.853  13.439 -0.0017 -1.9179  1.0608
84820SOL    HW272453   7.402  10.982  13.487  2.4831  0.4456 -1.6768
84821SOL     OW72454   6.654  12.294   5.450 -0.2289  0.0400  0.3676
84821SOL    HW172455   6.582  12.341   5.492  0.9696 -0.0097  2.5918
84821SOL    HW272456   6.733  12.341   5.478  0.6856 -0.2781 -1.5099
84822SOL     OW72457   3.326   1.711  13.060  0.2986 -0.2951  0.0836
84822SOL    HW172458   3.410   1.708  13.014  0.3409 -1.2388  0.1924
84822SOL    HW272459   3.272   1.647  13.014  0.4069 -1.4280  1.4304
84823SOL     OW72460  11.695  10.971   1.665 -0.1656 -0.4969  0.5454
84823SOL    HW172461  11.749  11.050   1.673  0.1357 -0.7600  1.1585
84823SOL    HW272462  11.608  11.000   1.690 -0.8700  0.4850 -2.5939
84824SOL     OW72463   8.484   0.333   7.950  0.0719  0.4733 -0.4901
84824SOL    HW172464   8.483   0.237   7.952 -0.6972  0.4703  1.8813
84824SOL    HW272465   8.400   0.359   7.988  0.5648  2.0851 -0.4439
84825SOL     OW72466   2.615   4.582  13.914 -0.0538  0.0983  0.0319
84825SOL    HW172467   2.526   4.559  13.938 -0.3014  0.1020 -0.8450
84825SOL    HW272468   2.634   4.528  13.837  0.2278  1.0430 -0.5809
84826SOL     OW72469  12.548  13.323   0.410  0.1230 -0.2392  0.1845
84826SOL    HW172470  12.625  13.335   0.466  0.2011  0.9935 -0.1583
84826SOL    HW272471  12.500  13.252   0.451  1.1237 -0.5998  0.7664
84827SOL     OW72472   8.216   7.178  10.293  0.1423 -0.0177 -0.0330
84827SOL    HW172473   8.286   7.171  10.228  1.2359 -3.1919  1.2899
84827SOL    HW272474   8.248   7.240  10.358  0.7689  0.1598 -0.5076
84828SOL     OW72475  10.971  13.893  14.034 -0.0999 -0.4241 -0.3299
84828SOL    HW172476  10.956  13.961  14.100  0.5726 -0.5146 -0.0696
84828SOL    HW272477  11.048  13.846  14.066 -2.0419 -3.0236  0.8474
84829SOL     OW72478   2.980   5.253   9.625  0.5938  0.0773 -0.1132
84829SOL    HW172479   2.924   5.258   9.547  0.2607  0.7685  0.1629
84829SOL    HW272480   2.919   5.243   9.697  0.7483  1.6402  0.2778
84830SOL     OW72481   2.528   5.671   0.387  0.2401  0.2966  0.4684
84830SOL    HW172482   2.441   5.645   0.418 -0.1371  1.3222  0.3117
84830SOL    HW272483   2.554   5.600   0.328 -1.1533  0.6608 -0.6536
84831SOL     OW72484  13.794   3.653  12.198 -0.2154  0.0622 -0.3291
84831SOL    HW172485  13.822   3.635  12.288  1.7845  0.6874 -0.7646
84831SOL    HW272486  13.699   3.640  12.199 -0.5063  1.6480  2.2711
84832SOL     OW72487   9.656  13.448  12.449  0.5268 -0.7072 -0.3274
84832SOL    HW172488   9.680  13.525  12.500 -0.2360 -1.1210  0.6921
84832SOL    HW272489   9.598  13.482  12.380  1.4044 -0.1758 -0.8227
84833SOL     OW72490   6.356   9.795   4.287 -0.0899  0.4749  0.3159
84833SOL    HW172491   6.264   9.770   4.301 -0.6593  0.6373 -2.5443
84833SOL    HW272492   6.393   9.722   4.238  2.0429 -0.6251  3.2614
84834SOL     OW72493   4.249  12.965  10.063 -0.7271  0.6855 -0.0371
84834SOL    HW172494   4.320  12.908  10.034 -0.0911  0.7225  1.3378
84834SOL    HW272495   4.177  12.948  10.002 -0.3986 -1.2373  0.0612
84835SOL     OW72496   7.834  10.702  10.518  0.2763 -0.1353 -0.8841
84835SOL    HW172497   7.866  10.790  10.498  1.3477 -0.6324 -1.4333
84835SOL    HW272498   7.758  10.690  10.461  0.8863 -0.0338 -1.7300
84836SOL     OW72499  10.764   4.229  10.043 -0.4544  1.0567  0.2968
84836SOL    HW172500  10.675   4.214  10.076 -0.4840  0.2664 -0.1348
84836SOL    HW272501  10.820   4.198  10.114 -0.5221  0.2844  0.0177
84837SOL     OW72502  12.311  13.247  11.808 -0.1102 -0.6149 -0.1120
84837SOL    HW172503  12.361  13.270  11.887 -0.2022  0.9864 -0.4862
84837SOL    HW272504  12.377  13.227  11.743 -0.0258 -1.4787  0.2280
84838SOL     OW72505  11.501  11.983   5.178 -0.9077  0.1049  0.4999
84838SOL    HW172506  11.512  11.890   5.159 -0.2999  0.5520 -1.6591
84838SOL    HW272507  11.576  12.025   5.136 -3.2198  1.9256 -2.1366
84839SOL     OW72508  13.524   4.574  10.781  0.1814 -0.4131 -0.8043
84839SOL    HW172509  13.583   4.614  10.845 -1.2308 -0.2385  0.4501
84839SOL    HW272510  13.492   4.647  10.729 -0.6043 -0.1802 -0.0295
84840SOL     OW72511   7.356   7.962   5.455 -0.9925 -0.4724 -0.2447
84840SOL    HW172512   7.292   7.937   5.389 -0.8819  0.9875 -0.9514
84840SOL    HW272513   7.400   8.039   5.418 -0.1850 -0.2685  1.0653
84841SOL     OW72514  10.724  13.371   9.387 -0.3018  0.2248 -0.3666
84841SOL    HW172515  10.795  13.414   9.340 -0.7899  0.9200 -0.4876
84841SOL    HW272516  10.766  13.334   9.465  0.0318  1.5183  0.1028
84842SOL     OW72517   0.869   9.821   8.866  0.4648 -0.4787 -0.1471
84842SOL    HW172518   0.951   9.839   8.821 -0.0088  0.2643 -0.7369
84842SOL    HW272519   0.835   9.742   8.825  0.9057 -0.8185  0.1338
84843SOL     OW72520  13.681   7.388   6.515  0.1557 -0.2954  0.2627
84843SOL    HW172521  13.736   7.345   6.450 -0.6076 -1.1305  0.1484
84843SOL    HW272522  13.597   7.399   6.471  0.2248  0.9834  0.4258
84844SOL     OW72523   9.281  11.614   8.831  0.5468  0.3456  0.3686
84844SOL    HW172524   9.209  11.630   8.892  1.8953  0.5133  1.9873
84844SOL    HW272525   9.270  11.522   8.805 -1.7731  1.0815 -1.5776
84845SOL     OW72526   3.799  10.814   8.866  0.2661  0.2940 -0.5551
84845SOL    HW172527   3.828  10.723   8.869 -1.7967 -0.4890 -1.9834
84845SOL    HW272528   3.786  10.838   8.958  0.9486 -0.8098 -0.1516
84846SOL     OW72529   5.949   5.053   3.043 -0.0357 -0.1504  0.5755
84846SOL    HW172530   5.980   5.055   2.952  0.5367 -0.8063  0.7476
84846SOL    HW272531   5.854   5.041   3.035 -0.0145 -0.0035  0.0591
84847SOL     OW72532   0.845  11.774  10.155  0.2932  0.3841  0.6531
84847SOL    HW172533   0.761  11.816  10.137  0.2407 -0.2936 -0.8637
84847SOL    HW272534   0.823  11.682  10.170  0.6152  0.4886  1.8725
84848SOL     OW72535  13.071  13.936   4.029  0.0070 -0.4358  0.0646
84848SOL    HW172536  13.020  14.016   4.013  0.5707  0.1149  0.9517
84848SOL    HW272537  13.160  13.967   4.042  0.5087 -1.3546 -1.0186
84849SOL     OW72538  12.796   3.007  13.445 -0.0664  0.1422 -0.2956
84849SOL    HW172539  12.829   3.051  13.523  0.9098  0.1687 -0.6976
84849SOL    HW272540  12.718   2.960  13.474 -2.0326  3.2662 -0.1638
84850SOL     OW72541   0.334   9.074   0.050  0.1872  0.0794  0.7673
84850SOL    HW172542   0.404   9.102  -0.009 -1.1290  0.0132 -0.9351
84850SOL    HW272543   0.284   9.154   0.068  0.2077 -0.0184  1.2696
84851SOL     OW72544   8.935  10.272  11.808 -0.6413 -0.8138 -0.1486
84851SOL    HW172545   8.875  10.260  11.882 -2.3002  1.2002 -1.0846
84851SOL    HW272546   9.022  10.264  11.847 -1.4203  1.4607  2.3712
84852SOL     OW72547   8.538   0.130  13.876  0.0362  0.1296 -0.2965
84852SOL    HW172548   8.619   0.161  13.836 -0.1466  0.1616 -0.6463
84852SOL    HW272549   8.469   0.179  13.831 -0.1420  0.5640  0.4305
84853SOL     OW72550   6.389   0.211  13.542  0.2082  0.1508 -0.1048
84853SOL    HW172551   6.359   0.267  13.470 -0.1619 -0.6149 -0.5630
84853SOL    HW272552   6.440   0.143  13.500  0.3367 -0.0737  0.4087
84854SOL     OW72553   3.755   0.760   0.772  0.2078 -0.5185 -0.3258
84854SOL    HW172554   3.718   0.672   0.774 -2.3667  0.3753 -2.6643
84854SOL    HW272555   3.817   0.758   0.699  0.2476 -0.3834 -0.2963
84855SOL     OW72556   7.223   4.399   9.909  0.7286  0.2785  0.1741
84855SOL    HW172557   7.215   4.407  10.004  0.7920 -1.8564  0.4073
84855SOL    HW272558   7.306   4.443   9.889  0.9343  0.3854  1.1731
84856SOL     OW72559   3.515   0.962   2.437 -0.0373 -0.1032 -0.6261
84856SOL    HW172560   3.601   0.920   2.437 -1.1470 -2.5560  0.5245
84856SOL    HW272561   3.504   0.994   2.526  0.2426  1.5220 -1.1503
84857SOL     OW72562  11.284  12.608  12.619 -0.3675  0.0937 -0.0584
84857SOL    HW172563  11.350  12.541  12.638  0.0614  0.3642 -0.5494
84857SOL    HW272564  11.260  12.591  12.528 -1.5288 -0.4633  0.3380
84858SOL     OW72565  12.198   0.418   4.343 -0.2101 -0.1414 -0.6377
84858SOL    HW172566  12.286   0.453   4.355 -0.8396  1.4579 -0.4212
84858SOL    HW272567  12.185   0.360   4.419  0.8418 -0.8797 -0.9885
84859SOL     OW72568   8.867   4.604   9.540  0.1311  0.1158  0.0608
84859SOL    HW172569   8.911   4.684   9.569  0.2742  0.8105 -1.8831
84859SOL    HW272570   8.800   4.588   9.606  1.4973  0.6020  1.6231
84860SOL     OW72571   9.858   9.823  11.538 -0.2239 -0.0114  0.1534
84860SOL    HW172572   9.913   9.899  11.516  1.3626 -0.9189  0.7996
84860SOL    HW272573   9.775   9.861  11.567  1.1314  1.5953  2.1812
84861SOL     OW72574   2.401   5.765  13.577  0.2494  0.1678 -0.1558
84861SOL    HW172575   2.385   5.681  13.619 -2.7028  0.7540  0.1059
84861SOL    HW272576   2.452   5.744  13.499 -2.6083 -2.2995 -1.5684
84862SOL     OW72577  12.097  10.845   0.646 -0.4314  0.0094  0.3851
84862SOL    HW172578  12.140  10.851   0.732  0.4605  1.4667 -0.1360
84862SOL    HW272579  12.070  10.934   0.626  1.3190  0.1290 -1.8117
84863SOL     OW72580   6.304   3.006   7.147  0.1610 -0.2269  0.5116
84863SOL    HW172581   6.236   3.056   7.191  0.9122  0.4078  0.9692
84863SOL    HW272582   6.382   3.061   7.152  0.1954  0.0676 -1.9517
84864SOL     OW72583   8.165   5.649   1.563  0.4819 -0.1195 -0.5982
84864SOL    HW172584   8.171   5.743   1.551  0.5913 -0.0820 -0.2480
84864SOL    HW272585   8.203   5.633   1.649 -1.0268 -0.2997  0.0634
84865SOL     OW72586  11.655  11.979   7.160  0.1888 -0.2251  0.2144
84865SOL    HW172587  11.708  11.980   7.080  0.6872 -2.9521  0.4246
84865SOL    HW272588  11.575  11.932   7.134 -0.9120  1.3285  0.6508
84866SOL     OW72589  13.910  11.974  11.549 -0.7539  0.1003 -0.2108
84866SOL    HW172590  13.984  11.917  11.528 -0.8177  0.0130 -0.1986
84866SOL    HW272591  13.877  11.940  11.632 -3.5192 -2.6626 -2.1980
84867SOL     OW72592   2.974  11.938   2.207 -0.1426 -0.0247  0.0973
84867SOL    HW172593   2.916  12.006   2.241 -0.2779 -0.1240  0.0696
84867SOL    HW272594   3.015  11.901   2.285 -1.1079 -0.8428  0.2407
84868SOL     OW72595  13.412   8.952   9.380  0.3426 -0.1817 -0.3033
84868SOL    HW172596  13.439   9.019   9.318 -0.3980 -0.3112 -0.7720
84868SOL    HW272597  13.371   9.001   9.452 -0.2464 -0.1205 -0.6699
84869SOL     OW72598  10.446   3.775   5.390 -0.4408  0.1841 -0.3317
84869SOL    HW172599  10.470   3.819   5.471  0.1428 -1.5107  0.4578
84869SOL    HW272600  10.501   3.816   5.323  1.7266 -0.8023  0.7581
84870SOL     OW72601   9.917  13.994   1.303 -0.2366 -0.3984 -0.1003
84870SOL    HW172602   9.870  13.956   1.378 -2.2135  2.2849  0.1865
84870SOL    HW272603   9.872  13.957   1.227 -1.0457  0.0398  0.1435
84871SOL     OW72604   0.025  13.078   1.561  0.2550 -0.3617  0.2727
84871SOL    HW172605   0.092  13.084   1.493  1.9510  0.9523  1.9184
84871SOL    HW272606   0.070  13.035   1.635 -0.4951  1.0366  1.6082
84872SOL     OW72607  12.002   6.740   6.710  0.3135  0.1640 -0.1057
84872SOL    HW172608  12.049   6.732   6.627  0.1903 -0.2321 -0.1366
84872SOL    HW272609  11.910   6.747   6.685 -0.1910 -3.7964  0.0970
84873SOL     OW72610   3.728  13.977   6.519  0.0941  0.4362 -0.3487
84873SOL    HW172611   3.743  13.931   6.437 -0.1678  0.4808 -0.4225
84873SOL    HW272612   3.642  13.946   6.549  1.1568 -1.3512  1.0899
84874SOL     OW72613  13.779   0.140   2.785  0.0704  0.3899 -0.5190
84874SOL    HW172614  13.819   0.085   2.717  1.1525  1.5994 -0.8999
84874SOL    HW272615  13.765   0.080   2.859  1.5663 -0.3218 -0.7720
84875SOL     OW72616   9.905  13.429   8.244  0.0879  0.0248  0.6920
84875SOL    HW172617   9.992  13.467   8.234  0.5036  0.0225  3.3517
84875SOL    HW272618   9.867  13.477   8.319 -2.0632 -0.2273 -0.1703
84876SOL     OW72619   9.837  11.923  13.933 -0.5195 -0.8942 -0.1033
84876SOL    HW172620   9.851  12.015  13.912  0.1916 -0.4264  2.1060
84876SOL    HW272621   9.883  11.875  13.865  0.9716  0.4411 -0.0871
84877SOL     OW72622   7.308   0.853   7.432  0.0440 -0.8897  0.4548
84877SOL    HW172623   7.373   0.843   7.502  0.5272 -1.0662 -0.0139
84877SOL    HW272624   7.255   0.773   7.437  1.0460 -1.6376 -0.3551
84878SOL     OW72625  11.805  11.346   5.259 -0.4158  0.4380 -0.6213
84878SOL    HW172626  11.890  11.353   5.304  0.0059  0.2385 -1.3731
84878SOL    HW272627  11.819  11.280   5.191 -2.2261 -2.4900  1.5949
84879SOL     OW72628   0.449  12.052   4.969 -0.3343 -0.3520 -0.5170
84879SOL    HW172629   0.364  12.026   4.933  0.5637 -0.9808 -2.3178
84879SOL    HW272630   0.513  12.009   4.913  1.2033  1.4461 -0.2533
84880SOL     OW72631   6.309  13.585   4.501 -0.0925 -0.2063  0.7827
84880SOL    HW172632   6.279  13.608   4.414 -1.5651 -1.2753  0.9589
84880SOL    HW272633   6.265  13.647   4.559 -1.4596 -1.3119  0.9793
84881SOL     OW72634  13.641   2.015   0.878 -0.5382 -0.0308 -0.2619
84881SOL    HW172635  13.691   2.055   0.949  1.5011 -1.1733 -0.9482
84881SOL    HW272636  13.556   2.060   0.879 -0.7267 -0.2450  3.0677
84882SOL     OW72637   0.671  11.779  11.279  0.5481 -0.5895 -0.0157
84882SOL    HW172638   0.674  11.833  11.359 -0.5651  0.3786 -0.5955
84882SOL    HW272639   0.668  11.689  11.311  0.7552 -0.2392  1.0285
84883SOL     OW72640  11.514   2.820   9.039 -0.2832  0.4142  0.6139
84883SOL    HW172641  11.437   2.876   9.051 -0.7769  0.2094 -1.2946
84883SOL    HW272642  11.586   2.882   9.020 -0.6615  0.4921 -0.6934
84884SOL     OW72643  10.669   8.656   9.641 -0.0785  0.3754 -0.3891
84884SOL    HW172644  10.764   8.645   9.649 -0.0098  0.7809 -0.6231
84884SOL    HW272645  10.658   8.702   9.558 -0.4301  1.0434  0.0273
84885SOL     OW72646   0.233   9.803   1.101  0.2076  0.6596 -0.4048
84885SOL    HW172647   0.202   9.717   1.076  0.5054  0.4954 -0.2154
84885SOL    HW272648   0.324   9.806   1.071  0.6453  0.3731  0.8246
84886SOL     OW72649  10.647   9.701   7.405  0.5444 -0.8345 -0.3756
84886SOL    HW172650  10.585   9.641   7.365  0.1511  0.8106 -2.3774
84886SOL    HW272651  10.651   9.776   7.346  0.9998  1.1644  1.9963
84887SOL     OW72652  12.437   0.732   2.177 -0.1981 -0.0126 -0.0906
84887SOL    HW172653  12.421   0.784   2.255  0.9080  0.5820 -0.2386
84887SOL    HW272654  12.532   0.730   2.168 -0.2589 -1.0413 -0.7817
84888SOL     OW72655  12.678   0.905  13.870 -0.2836 -0.4332 -0.0522
84888SOL    HW172656  12.640   0.930  13.786 -0.2066 -0.6260 -0.1445
84888SOL    HW272657  12.699   0.989  13.912 -0.0391 -0.3422 -0.3520
84889SOL     OW72658   5.540   3.675  13.083 -0.0411 -0.0584 -0.0370
84889SOL    HW172659   5.468   3.734  13.105 -0.6818 -0.6795 -0.4566
84889SOL    HW272660   5.618   3.722  13.114 -0.5048  1.1259 -0.5753
84890SOL     OW72661   9.172   2.488   7.304  0.1205 -1.0640  0.5655
84890SOL    HW172662   9.185   2.395   7.286 -1.5536 -1.2254  0.0424
84890SOL    HW272663   9.079   2.495   7.325 -0.3166  0.8118 -1.6488
84891SOL     OW72664   0.820   8.069   4.813 -0.5501 -0.4016 -0.0318
84891SOL    HW172665   0.764   8.126   4.761 -1.8850 -1.1325  0.5559
84891SOL    HW272666   0.904   8.070   4.767 -1.0264  0.7233 -0.9356
84892SOL     OW72667   2.965   1.760   3.423 -0.1247  0.3325  0.3860
84892SOL    HW172668   2.883   1.793   3.389  0.0033 -1.4180 -1.7943
84892SOL    HW272669   3.031   1.787   3.359  0.4948 -1.1069  0.3921
84893SOL     OW72670   6.479   5.878   6.593 -0.2845 -0.1390  0.7310
84893SOL    HW172671   6.533   5.846   6.666 -0.6925  0.3460  1.2488
84893SOL    HW272672   6.391   5.847   6.613 -0.4768  0.3617  0.6560
84894SOL     OW72673   2.730  10.924   8.921 -0.6084 -0.1202 -0.2673
84894SOL    HW172674   2.747  10.982   8.848 -1.4282  2.0487  1.1511
84894SOL    HW272675   2.634  10.924   8.931 -0.4584  2.0835  2.5285
84895SOL     OW72676  10.420   8.646   6.292  0.0968 -0.3585  0.2215
84895SOL    HW172677  10.411   8.636   6.386  1.3031 -3.6827  0.1114
84895SOL    HW272678  10.504   8.691   6.280  1.2612 -2.2679  0.7829
84896SOL     OW72679   0.405   4.314   4.691 -0.0621 -0.0928  0.5540
84896SOL    HW172680   0.480   4.297   4.748 -0.3599 -0.0167  0.9749
84896SOL    HW272681   0.333   4.266   4.732 -0.4882  0.6955  0.7376
84897SOL     OW72682  13.523   8.341   4.831 -0.1434  0.6895 -0.3056
84897SOL    HW172683  13.493   8.332   4.922 -0.6368 -0.8362 -0.5958
84897SOL    HW272684  13.527   8.435   4.817 -0.3772  0.9542  1.2008
84898SOL     OW72685   0.447   1.100   4.950  0.3129 -0.9371 -0.1086
84898SOL    HW172686   0.459   1.092   4.855 -0.9680  1.8221 -0.6024
84898SOL    HW272687   0.354   1.121   4.961  0.8579  0.9582  1.5370
84899SOL     OW72688  10.695   7.002   1.288  0.4166  0.5211 -0.0176
84899SOL    HW172689  10.646   6.920   1.288  1.9821 -0.4599  0.5686
84899SOL    HW272690  10.657   7.053   1.360 -0.3423  0.1919 -0.1757
84900SOL     OW72691   6.019   8.816   6.848  0.0263  0.5831  0.0540
84900SOL    HW172692   6.067   8.898   6.841 -0.3944  0.7272 -1.6651
84900SOL    HW272693   6.041   8.769   6.767 -0.4726 -0.5843  0.5772
84901SOL     OW72694   0.033   8.095   4.663 -0.1664  0.3445  0.3746
84901SOL    HW172695   0.007   8.175   4.710 -0.6981  0.6566 -0.4427
84901SOL    HW272696  -0.032   8.085   4.594 -0.2548 -0.9495  0.6149
84902SOL     OW72697   5.526   0.857   0.493  0.1600  0.5022  0.4134
84902SOL    HW172698   5.457   0.922   0.481 -1.2046 -1.1447 -1.2154
84902SOL    HW272699   5.594   0.883   0.431  0.1293  0.9741  0.5686
84903SOL     OW72700  10.479   8.995   2.337 -0.3004  0.6979 -0.6480
84903SOL    HW172701  10.386   8.978   2.349 -0.3879  1.4500 -0.1935
84903SOL    HW272702  10.492   8.994   2.242 -0.7470  0.4550 -0.7069
84904SOL     OW72703   9.385   7.500  12.983  0.1254 -0.2058  0.0252
84904SOL    HW172704   9.391   7.575  13.042 -0.3941 -0.5460  0.5240
84904SOL    HW272705   9.307   7.453  13.012  0.4545 -0.9493 -0.2695
84905SOL     OW72706  13.123  12.450   0.507 -0.2043  0.3197  0.4650
84905SOL    HW172707  13.146  12.369   0.462 -0.0211  0.4831  0.2596
84905SOL    HW272708  13.099  12.422   0.595  0.9910  0.1415  0.7619
84906SOL     OW72709   3.183  11.331  12.264  0.1473 -0.0195 -0.6013
84906SOL    HW172710   3.113  11.292  12.211  0.6343 -1.2611 -0.3524
84906SOL    HW272711   3.259  11.276  12.249  0.0413 -1.0884  2.1910
84907SOL     OW72712  11.503   7.438  12.399 -0.2670  0.1286  0.1155
84907SOL    HW172713  11.446   7.420  12.324  0.0513 -0.8251  0.0905
84907SOL    HW272714  11.521   7.352  12.437  0.2316  0.5251  0.8053
84908SOL     OW72715   5.383  12.315   5.473 -0.5014  0.9222 -0.1882
84908SOL    HW172716   5.474  12.287   5.479  0.4578  2.8496 -3.2526
84908SOL    HW272717   5.333  12.233   5.466  1.0042 -0.1563  1.0043
84909SOL     OW72718  10.231  12.545   6.987  0.8777 -0.5104 -0.2583
84909SOL    HW172719  10.238  12.482   7.059  0.2395 -0.9318 -0.5611
84909SOL    HW272720  10.210  12.628   7.030 -0.6952 -0.9969 -0.0223
84910SOL     OW72721   3.418  11.911   5.751 -0.5425  0.0456  0.6877
84910SOL    HW172722   3.459  11.995   5.734  1.3005 -0.8895  0.2025
84910SOL    HW272723   3.440  11.892   5.843  2.5598 -1.6080 -0.2358
84911SOL     OW72724   4.982   1.797   6.108  0.0279  0.1004  0.3388
84911SOL    HW172725   5.060   1.746   6.085  1.0120  1.3862  0.6672
84911SOL    HW272726   4.948   1.828   6.024 -2.4731 -3.5560 -0.2253
84912SOL     OW72727   3.384   5.827  11.062  0.3476 -0.0818 -0.5514
84912SOL    HW172728   3.371   5.792  10.974  0.9324 -1.2237 -0.2138
84912SOL    HW272729   3.300   5.813  11.105 -0.2318  1.3157 -1.1742
84913SOL     OW72730   9.974   8.041   1.052  0.2307  0.2344 -0.2233
84913SOL    HW172731   9.906   8.044   0.985 -0.6161 -1.2617  0.5058
84913SOL    HW272732  10.003   7.950   1.053  0.6905  0.3697  0.9958
84914SOL     OW72733   0.291   3.213   1.244  0.1207 -0.6623 -0.1837
84914SOL    HW172734   0.217   3.273   1.248 -1.3401 -2.4183  0.7295
84914SOL    HW272735   0.368   3.269   1.249 -1.1704  1.0874  1.2134
84915SOL     OW72736   0.352  13.476  11.539  0.2007  0.1675 -0.5031
84915SOL    HW172737   0.259  13.473  11.516 -0.0159  0.2967  0.3305
84915SOL    HW272738   0.371  13.391  11.578  0.3667  0.2523 -0.3971
84916SOL     OW72739  11.943  11.472   4.151 -0.2113 -0.2418 -0.1685
84916SOL    HW172740  11.958  11.472   4.057  1.0665 -0.1085  0.0182
84916SOL    HW272741  12.024  11.507   4.188 -1.3212  1.3146  0.8896
84917SOL     OW72742   1.193   6.690   0.168 -0.0196 -0.2448 -0.2741
84917SOL    HW172743   1.257   6.750   0.132  1.4401 -0.1782  2.2273
84917SOL    HW272744   1.108   6.726   0.141  0.8806  1.6775 -0.6989
84918SOL     OW72745   3.426   5.447  12.113 -0.5738 -0.1941 -0.0923
84918SOL    HW172746   3.399   5.538  12.097  0.5160  0.0609 -0.5796
84918SOL    HW272747   3.382   5.422  12.194 -0.1120  1.1106  0.5872
84919SOL     OW72748   1.383  10.607   0.423 -0.4621  0.0491  0.1142
84919SOL    HW172749   1.355  10.571   0.507 -0.2475  0.9801  0.6037
84919SOL    HW272750   1.335  10.556   0.358 -0.4252 -0.8684  0.7855
84920SOL     OW72751   1.118   0.940   6.907  0.0988 -0.4346  0.2553
84920SOL    HW172752   1.134   0.957   7.000 -2.3519  2.8054  0.2825
84920SOL    HW272753   1.204   0.941   6.866  1.0647  0.4639  2.1976
84921SOL     OW72754   8.814  10.358   8.826 -0.1692  0.3088  0.0114
84921SOL    HW172755   8.773  10.442   8.805 -0.5295  0.1366  0.0198
84921SOL    HW272756   8.797  10.303   8.749 -1.6660 -0.3909  0.8063
84922SOL     OW72757   7.712   2.763   7.333 -0.4500 -0.4171  0.5601
84922SOL    HW172758   7.628   2.735   7.370 -1.6870  1.5162 -0.5907
84922SOL    HW272759   7.735   2.840   7.385 -1.1578  1.0811 -1.2320
84923SOL     OW72760  13.683  13.968  10.709  0.2108  0.5453  0.5110
84923SOL    HW172761  13.611  14.007  10.660 -0.2227 -0.6634  0.1490
84923SOL    HW272762  13.641  13.909  10.772  0.7993  1.4490  1.7954
84924SOL     OW72763   1.433  13.551  13.439 -0.1144 -0.2117  0.2215
84924SOL    HW172764   1.515  13.598  13.429  0.4633 -1.2572 -0.0790
84924SOL    HW272765   1.367  13.619  13.447  0.4967  0.6751 -1.7569
84925SOL     OW72766   7.015  10.063  12.496 -0.1627 -0.4998  0.0541
84925SOL    HW172767   6.925  10.034  12.515 -0.0123  1.0715  4.2741
84925SOL    HW272768   7.070   9.990  12.525  0.0585 -1.4723 -2.5487
84926SOL     OW72769   1.027   2.197   9.040 -0.5773  0.0721  0.1023
84926SOL    HW172770   1.113   2.222   9.075 -0.3668 -0.4821 -0.0098
84926SOL    HW272771   1.034   2.103   9.025 -0.8772  0.1967 -0.8405
84927SOL     OW72772   0.289   3.940   1.716  0.3646 -0.0866 -0.8213
84927SOL    HW172773   0.198   3.948   1.742  0.9697 -1.6497  2.1996
84927SOL    HW272774   0.330   4.022   1.743  0.1079  0.1374 -1.1045
84928SOL     OW72775  13.609   8.977  13.226 -0.4576 -0.1253  0.2313
84928SOL    HW172776  13.640   8.968  13.316 -1.1569  2.0344  0.7399
84928SOL    HW272777  13.601   9.071  13.213  0.5929 -0.3283 -2.4536
84929SOL     OW72778   4.545   1.407   9.144 -0.3503 -0.1990 -0.6375
84929SOL    HW172779   4.450   1.401   9.151 -0.3752 -3.2479 -1.9990
84929SOL    HW272780   4.569   1.336   9.084  3.0435 -1.6235  2.0360
84930SOL     OW72781   1.382   4.856  12.325 -0.1302 -0.4441  0.2948
84930SOL    HW172782   1.371   4.837  12.232  0.7298  0.7327 -0.0696
84930SOL    HW272783   1.468   4.820  12.347 -0.5756 -1.2318  0.7905
84931SOL     OW72784  10.417   6.824   9.911  0.0489  0.2176  0.9630
84931SOL    HW172785  10.348   6.852   9.972 -2.5638 -0.5261 -1.3993
84931SOL    HW272786  10.416   6.729   9.917 -1.2181  0.0353 -1.0389
84932SOL     OW72787   1.339   6.654  13.989  0.5062  0.0436  0.2361
84932SOL    HW172788   1.406   6.712  14.025 -0.5823  0.1230  2.2526
84932SOL    HW272789   1.373   6.566  14.005  0.2110  0.0849  1.1009
84933SOL     OW72790  10.351  12.021  10.029 -0.3209 -0.3752 -0.3984
84933SOL    HW172791  10.326  11.930  10.013 -1.0295 -0.1005 -0.9076
84933SOL    HW272792  10.314  12.042  10.115 -0.1912 -0.5546 -0.2981
84934SOL     OW72793   4.700   3.291   8.977 -0.4648  0.1686 -0.4855
84934SOL    HW172794   4.648   3.306   8.899  0.1977 -1.9900 -1.4445
84934SOL    HW272795   4.743   3.206   8.961 -0.5870 -0.5486  2.3652
84935SOL     OW72796   0.875   4.902  13.006  0.1939 -0.3607  0.0080
84935SOL    HW172797   0.789   4.875  12.973  0.9128 -1.8682 -0.7285
84935SOL    HW272798   0.865   4.903  13.101 -0.5327 -0.8865 -0.0530
84936SOL     OW72799   9.045  11.188  12.714  0.7105 -0.0445 -0.4443
84936SOL    HW172800   8.995  11.263  12.683 -0.2507  0.3666  1.9094
84936SOL    HW272801   8.979  11.126  12.745  1.5774 -0.7230  0.0921
84937SOL     OW72802  11.424   2.457   3.633  0.4011 -0.0367  0.7271
84937SOL    HW172803  11.428   2.398   3.558  0.5402  1.1892 -0.2546
84937SOL    HW272804  11.411   2.399   3.708  0.7136 -1.3219 -0.1782
84938SOL     OW72805  10.260   5.929  13.796 -0.5923 -0.2277 -0.1013
84938SOL    HW172806  10.242   5.852  13.849  0.3368 -0.4156 -0.0386
84938SOL    HW272807  10.198   5.995  13.826 -2.4171 -1.3793 -1.1617
84939SOL     OW72808  13.287   3.046   1.233 -0.1745  0.4147  0.1359
84939SOL    HW172809  13.290   3.140   1.253  2.6076  1.2813 -3.3138
84939SOL    HW272810  13.250   3.041   1.146  0.6064 -1.5873 -0.1309
84940SOL     OW72811  12.592   3.060   3.041  0.1476 -0.7187 -0.3848
84940SOL    HW172812  12.510   3.081   2.997  0.6218 -1.2506 -1.5628
84940SOL    HW272813  12.580   3.092   3.131 -0.9562  0.1137 -0.8075
84941SOL     OW72814  11.386  10.981   6.587 -0.2916 -0.1073  0.7925
84941SOL    HW172815  11.401  11.006   6.679  0.3749 -0.2107  0.7185
84941SOL    HW272816  11.474  10.964   6.553 -0.5735 -0.4695  0.2458
84942SOL     OW72817  10.237   8.440  12.728  0.2516  0.7985 -0.0760
84942SOL    HW172818  10.244   8.390  12.647 -1.6209  1.9229 -0.9904
84942SOL    HW272819  10.318   8.420  12.775  0.1600 -2.0887 -0.9246
84943SOL     OW72820   1.111   0.967   0.318  0.0058 -0.4065  0.4418
84943SOL    HW172821   1.141   1.000   0.403 -0.5132 -0.7184  0.7571
84943SOL    HW272822   1.088   0.875   0.336  1.8111 -1.0924 -0.4973
84944SOL     OW72823   5.331   0.622  13.027 -0.5935 -0.3477 -0.1163
84944SOL    HW172824   5.386   0.700  13.024 -0.0774 -0.5466  2.2198
84944SOL    HW272825   5.369   0.564  12.961 -0.0313  0.7665 -0.8111
84945SOL     OW72826   9.434   1.128   9.396  0.1987 -0.0531 -0.0393
84945SOL    HW172827   9.391   1.058   9.347 -0.1482 -0.4657  0.8429
84945SOL    HW272828   9.471   1.085   9.473  0.4617  0.6423  0.2350
84946SOL     OW72829   0.535   7.451  13.048  0.4732 -0.1091  0.2903
84946SOL    HW172830   0.449   7.409  13.042  0.5396 -0.1385 -0.5869
84946SOL    HW272831   0.585   7.395  13.108 -0.0581 -0.1905  0.6591
84947SOL     OW72832   1.393  10.322  10.915 -0.1254  0.1009 -0.6085
84947SOL    HW172833   1.331  10.279  10.975  1.3205  0.4913  1.2693
84947SOL    HW272834   1.409  10.257  10.847 -0.2990 -1.1907  0.5362
84948SOL     OW72835  12.297   6.536  12.841  0.1700  0.2500 -0.0837
84948SOL    HW172836  12.327   6.606  12.899  0.8699  0.8129 -1.1011
84948SOL    HW272837  12.249   6.477  12.898  1.7450  0.2242  1.2856
84949SOL     OW72838   4.196  13.410  12.391 -0.0603 -0.2906  0.0463
84949SOL    HW172839   4.222  13.329  12.436 -0.8240 -1.0128 -0.7994
84949SOL    HW272840   4.278  13.457  12.379  0.4069 -0.9668  0.4849
84950SOL     OW72841  11.972   6.075   4.628 -0.5664 -0.1298  0.3510
84950SOL    HW172842  11.916   6.019   4.682 -0.5328 -1.2964 -0.7718
84950SOL    HW272843  11.968   6.161   4.670 -0.8047 -0.9076  1.9977
84951SOL     OW72844   4.946  11.635  10.243 -0.0474 -0.1402 -0.4563
84951SOL    HW172845   5.029  11.590  10.257 -1.2708 -1.5880  3.0149
84951SOL    HW272846   4.880  11.567  10.252 -1.7171  0.9166 -3.4635
84952SOL     OW72847   7.441  14.141   9.868 -0.4957 -0.2975 -0.2446
84952SOL    HW172848   7.358  14.102   9.898 -0.0763 -1.4135 -0.4900
84952SOL    HW272849   7.415  14.226   9.832 -1.7514 -1.1850 -1.5705
84953SOL     OW72850   8.899  10.837   8.523 -0.2765 -0.1747 -0.3181
84953SOL    HW172851   8.994  10.831   8.534 -0.2196  0.1021 -0.6433
84953SOL    HW272852   8.885  10.831   8.429 -0.6451 -1.0102 -0.2183
84954SOL     OW72853  12.343   8.730   0.115  0.0682 -0.9769 -0.3902
84954SOL    HW172854  12.435   8.720   0.093 -0.0402 -1.1106 -0.7910
84954SOL    HW272855  12.318   8.814   0.078  0.4252 -0.1810  1.0972
84955SOL     OW72856   1.629   9.373  10.753 -0.7438  0.6014  0.2231
84955SOL    HW172857   1.615   9.467  10.767 -2.6246  0.1115  2.0749
84955SOL    HW272858   1.724   9.364  10.744 -0.4783  2.5969  0.5522
84956SOL     OW72859   0.705   4.726   7.444  0.2275  0.3064 -0.3639
84956SOL    HW172860   0.622   4.742   7.490  0.5592  1.4892 -0.1243
84956SOL    HW272861   0.686   4.656   7.383 -0.0908 -1.8196  2.0037
84957SOL     OW72862   9.560   2.458   1.663 -0.3372 -0.3481 -0.4262
84957SOL    HW172863   9.567   2.542   1.709  0.2515 -1.4355  1.5594
84957SOL    HW272864   9.467   2.440   1.659 -0.6211  1.1036 -2.3348
84958SOL     OW72865  11.910   8.648   7.009  0.4525  0.4114  0.8174
84958SOL    HW172866  11.947   8.577   6.957 -1.3016 -1.5802  2.0906
84958SOL    HW272867  11.940   8.630   7.099 -0.8397  0.6278  1.3211
84959SOL     OW72868  13.821   7.212   2.317  0.2733 -0.2826 -0.3024
84959SOL    HW172869  13.849   7.152   2.247  0.7193 -0.1093 -0.2761
84959SOL    HW272870  13.744   7.256   2.281  1.1451  0.6282 -1.1573
84960SOL     OW72871   4.117  10.900   2.764  0.0368  0.5684 -0.9271
84960SOL    HW172872   4.120  10.988   2.727  0.2423  0.4531 -1.1899
84960SOL    HW272873   4.165  10.846   2.701  0.3315  0.3564 -0.5199
84961SOL     OW72874   9.071   9.885  12.057 -0.2773 -0.1279 -0.0313
84961SOL    HW172875   9.114   9.969  12.074 -0.4481  0.0049 -0.2499
84961SOL    HW272876   9.090   9.867  11.965 -0.7889 -0.0118 -0.1594
84962SOL     OW72877   0.508   9.639  10.973 -0.1297 -0.0539  0.8551
84962SOL    HW172878   0.593   9.603  10.948 -1.0813 -2.0816  0.3608
84962SOL    HW272879   0.493   9.605  11.061  0.3875  1.9119  1.7687
84963SOL     OW72880  13.979   6.963   4.451  0.0101 -0.2923  0.0292
84963SOL    HW172881  13.904   6.948   4.393 -0.5770  1.1004  0.3745
84963SOL    HW272882  13.956   7.043   4.499  1.7111  0.1680  0.1489
84964SOL     OW72883  11.941   4.372   4.006 -0.0372  0.4724 -0.4001
84964SOL    HW172884  12.004   4.302   4.024 -0.6088  0.3103  1.1105
84964SOL    HW272885  11.963   4.441   4.069 -2.6278 -0.4489  1.7151
84965SOL     OW72886   6.905  13.529   3.600 -0.3812  0.4253 -0.0730
84965SOL    HW172887   6.842  13.522   3.672  0.0058  1.5161  0.3919
84965SOL    HW272888   6.871  13.600   3.546 -1.0552 -0.8486 -1.3893
84966SOL     OW72889   6.311  11.682   9.437  0.2430 -0.2714 -0.1145
84966SOL    HW172890   6.219  11.671   9.463  0.3513  0.5932  0.6667
84966SOL    HW272891   6.306  11.727   9.352 -0.0600 -0.3493 -0.1418
84967SOL     OW72892   8.936   8.092   1.649 -0.2363  0.1714  0.1816
84967SOL    HW172893   8.854   8.044   1.654 -0.4223  0.5452  0.9266
84967SOL    HW272894   8.911   8.181   1.624 -0.0280  0.2033  0.0794
84968SOL     OW72895   8.858  12.595   9.452 -0.1005  0.1080  0.6574
84968SOL    HW172896   8.884  12.628   9.366 -2.4992  0.3915 -0.0283
84968SOL    HW272897   8.917  12.639   9.513  1.7100 -0.1553 -0.7974
84969SOL     OW72898  13.165  12.131   0.036  0.0012  0.6063  0.4143
84969SOL    HW172899  13.093  12.132  -0.027  0.3281  1.8969  0.0274
84969SOL    HW272900  13.235  12.083  -0.009 -0.5746 -0.5882  0.7641
84970SOL     OW72901   2.062   0.468   2.507  0.8442  0.5426  0.0605
84970SOL    HW172902   1.992   0.490   2.445  0.7936  2.6756  0.7854
84970SOL    HW272903   2.043   0.379   2.534  0.3989 -0.1718 -2.3404
84971SOL     OW72904   1.446  13.455   0.197 -0.2943 -0.0614 -0.1381
84971SOL    HW172905   1.478  13.542   0.175  1.6967 -0.7193 -0.0210
84971SOL    HW272906   1.453  13.405   0.115 -1.2481 -0.1757 -0.1613
84972SOL     OW72907  12.071   8.382  14.100  0.1174 -0.3385 -0.3602
84972SOL    HW172908  12.087   8.315  14.167 -1.0907  0.0370  0.3497
84972SOL    HW272909  11.988   8.421  14.126  0.2283  0.6461 -1.4259
84973SOL     OW72910   3.842  10.800   6.298 -0.2517 -0.5874 -0.4722
84973SOL    HW172911   3.856  10.782   6.206 -1.4403  1.3669 -1.1167
84973SOL    HW272912   3.913  10.859   6.323 -1.2114  0.7922 -0.8443
84974SOL     OW72913   9.369   8.733   8.048 -0.0982 -0.3388  0.4630
84974SOL    HW172914   9.410   8.713   7.965 -1.3889  0.0968 -0.3161
84974SOL    HW272915   9.339   8.649   8.082  0.5123 -0.5267  0.5382
84975SOL     OW72916   0.645   7.810   2.909  0.7137  0.1708 -0.0368
84975SOL    HW172917   0.689   7.881   2.956 -0.4252  0.1742  1.0853
84975SOL    HW272918   0.557   7.808   2.946 -0.2413  0.1326 -2.1718
84976SOL     OW72919  12.505  12.174   8.947 -0.0744  0.2276 -0.0100
84976SOL    HW172920  12.494  12.179   8.852  1.4897  0.8906 -0.1828
84976SOL    HW272921  12.444  12.239   8.981 -2.2361 -1.4921 -0.3783
84977SOL     OW72922   4.857  11.483   9.769  1.0519  0.8747  0.8249
84977SOL    HW172923   4.899  11.405   9.734 -0.2424  0.4872  0.0662
84977SOL    HW272924   4.842  11.463   9.861  1.2758  0.4699  0.7764
84978SOL     OW72925  10.991  11.361   5.467  0.2810  0.2714 -0.6517
84978SOL    HW172926  10.904  11.341   5.501  0.4289 -0.9395 -0.9618
84978SOL    HW272927  10.981  11.362   5.372  0.6257 -0.0113 -0.6951
84979SOL     OW72928   9.498   9.869   2.553 -0.1006  0.2649 -0.4657
84979SOL    HW172929   9.453   9.953   2.551 -1.5568 -0.4588  0.2978
84979SOL    HW272930   9.476   9.832   2.639  4.0890  0.9676  1.1215
84980SOL     OW72931   2.929   1.134   1.794  0.1328 -0.2676 -0.2803
84980SOL    HW172932   2.875   1.066   1.835  0.9524 -0.3463  0.7283
84980SOL    HW272933   2.992   1.159   1.863  0.9541  0.2755 -1.2010
84981SOL     OW72934   6.727   6.554   9.253  0.7010  0.0458  0.7898
84981SOL    HW172935   6.706   6.524   9.342 -1.2059  0.9245  0.6909
84981SOL    HW272936   6.725   6.650   9.259  0.7933  0.1163 -0.1489
84982SOL     OW72937   9.192   1.158  10.293 -0.6383  0.1268 -0.4835
84982SOL    HW172938   9.200   1.103  10.370 -1.6333  1.1437  0.3753
84982SOL    HW272939   9.282   1.166  10.260  0.5274  2.6526  2.7245
84983SOL     OW72940   9.439  13.893  11.913 -0.6634  0.0829 -0.0298
84983SOL    HW172941   9.393  13.824  11.960 -0.5856  0.0679  0.0255
84983SOL    HW272942   9.409  13.974  11.954  0.0011  0.0319  0.5815
84984SOL     OW72943   7.146   6.918   9.510  0.0522  0.0524 -0.3747
84984SOL    HW172944   7.192   6.999   9.530 -0.5287  0.5564 -1.0502
84984SOL    HW272945   7.084   6.941   9.441  1.5870 -1.4765 -2.4017
84985SOL     OW72946   6.580   3.320  13.725  0.2327 -0.0550  0.3001
84985SOL    HW172947   6.659   3.268  13.738  0.8281  0.4725 -0.9772
84985SOL    HW272948   6.523   3.265  13.672  1.6453  1.1676 -2.7546
84986SOL     OW72949  13.701   0.980   8.760  0.3719 -0.3900  0.1863
84986SOL    HW172950  13.644   1.056   8.770  0.8266  0.0979 -0.8067
84986SOL    HW272951  13.646   0.913   8.720  0.4513  0.0337 -0.6429
84987SOL     OW72952   7.642   5.295  10.347 -0.2762  0.2251 -0.1724
84987SOL    HW172953   7.615   5.246  10.425  1.9708  1.3884  1.4103
84987SOL    HW272954   7.643   5.229  10.277 -1.9653 -0.9263  0.8115
84988SOL     OW72955   4.193  14.089  13.759  0.0596 -0.2121  0.4549
84988SOL    HW172956   4.235  14.125  13.681 -1.9650 -1.3440 -1.2683
84988SOL    HW272957   4.124  14.151  13.780  0.0249 -0.3666  0.8002
84989SOL     OW72958  12.320   4.130   0.172  0.0430 -0.1549  0.1560
84989SOL    HW172959  12.229   4.131   0.200  0.0460 -3.1653  0.5844
84989SOL    HW272960  12.317   4.094   0.083  0.8262 -0.6438  0.3171
84990SOL     OW72961   0.120  12.973  12.923  0.1870  0.3947  0.3983
84990SOL    HW172962   0.150  12.894  12.967 -0.2265  0.8236  1.4910
84990SOL    HW272963   0.092  12.944  12.836  1.1556 -0.4483  0.3487
84991SOL     OW72964  11.734   6.796   1.989 -0.0213 -0.0613  0.3939
84991SOL    HW172965  11.738   6.891   1.997  0.2178 -0.0531  0.1895
84991SOL    HW272966  11.734   6.780   1.895  0.8188 -0.2954  0.4232
84992SOL     OW72967  11.892   4.745   4.208  0.7004  0.2972 -0.3238
84992SOL    HW172968  11.897   4.710   4.298  0.2371  2.2812  0.5190
84992SOL    HW272969  11.962   4.699   4.161  2.0419  0.3778  1.4743
84993SOL     OW72970   0.757  11.728  13.506  0.2074 -0.4527 -0.0259
84993SOL    HW172971   0.818  11.709  13.577 -1.1370 -3.1188  0.5778
84993SOL    HW272972   0.678  11.760  13.549 -0.0253 -0.4427 -0.4445
84994SOL     OW72973   7.295   4.700   9.578 -0.3350  0.0890  0.5273
84994SOL    HW172974   7.323   4.694   9.487 -0.0117 -0.8598  0.6836
84994SOL    HW272975   7.219   4.642   9.584 -0.7149  0.5928  0.7404
84995SOL     OW72976   8.744  13.360  12.095 -0.1056 -0.1246 -0.0285
84995SOL    HW172977   8.727  13.324  12.007  1.4611 -0.6034 -0.1688
84995SOL    HW272978   8.795  13.292  12.139  0.0237  0.5559  0.8909
84996SOL     OW72979   6.060   5.301   1.872 -0.4800 -0.2240 -0.3222
84996SOL    HW172980   5.993   5.361   1.905 -2.1804 -2.6299  0.9458
84996SOL    HW272981   6.059   5.228   1.935  2.4360 -0.9662 -1.0131
84997SOL     OW72982   1.687   1.652   4.611  0.5075  0.1776 -0.2247
84997SOL    HW172983   1.765   1.644   4.665  0.3312 -0.1968 -0.0209
84997SOL    HW272984   1.648   1.735   4.637  0.8475  0.3797 -0.3477
84998SOL     OW72985   9.877  11.117   8.384  0.1866  0.7045 -0.0358
84998SOL    HW172986   9.906  11.208   8.377 -0.1420  0.8229  0.1468
84998SOL    HW272987   9.898  11.079   8.299  0.9273  0.7746  0.1092
84999SOL     OW72988   1.371   5.002   3.717 -0.4006  0.3002 -0.1911
84999SOL    HW172989   1.342   4.937   3.653 -1.1335 -0.4388  0.8466
84999SOL    HW272990   1.450   4.963   3.756 -1.3068 -0.3739  1.0097
85000SOL     OW72991   6.360   4.748   9.425  0.2088  0.0729 -0.2733
85000SOL    HW172992   6.390   4.708   9.344 -0.7541  0.3689 -0.7936
85000SOL    HW272993   6.352   4.676   9.487 -0.9160 -0.4638 -1.0168
85001SOL     OW72994   9.103   4.074   9.968  0.1721  0.3493  0.0803
85001SOL    HW172995   9.094   4.062  10.063  1.0188  2.8073  0.5336
85001SOL    HW272996   9.031   4.022   9.931 -0.9276  0.2875  2.1168
85002SOL     OW72997   7.197   5.603   2.751  0.0938  0.2039  0.0086
85002SOL    HW172998   7.184   5.512   2.778 -0.2449 -0.1804 -1.3953
85002SOL    HW272999   7.174   5.653   2.829 -2.4110 -0.8083  0.0411
85003SOL     OW73000   7.825  13.247  11.148 -0.0531 -0.0449 -0.0808
85003SOL    HW173001   7.749  13.202  11.183  0.1906  0.0898  0.6424
85003SOL    HW273002   7.799  13.339  11.143 -1.2033 -0.4173 -3.2932
85004SOL     OW73003   8.573   6.079  12.565  0.0049  0.2242 -0.3352
85004SOL    HW173004   8.602   5.988  12.566  1.2594  0.6028 -0.8152
85004SOL    HW273005   8.482   6.075  12.536  0.7478 -0.6921 -2.7232
85005SOL     OW73006   7.448   4.110   1.954  0.1741 -0.0895  0.6939
85005SOL    HW173007   7.486   4.195   1.938  1.8222 -1.0520 -0.8192
85005SOL    HW273008   7.385   4.125   2.025  1.1716  2.1389  1.1918
85006SOL     OW73009   1.624  13.440   7.688 -0.2641 -0.2305 -0.3025
85006SOL    HW173010   1.665  13.432   7.775 -0.5965 -0.2211 -0.1439
85006SOL    HW273011   1.542  13.391   7.696 -0.9069  0.8251 -0.2261
85007SOL     OW73012   4.518  12.522  10.578  0.1089  0.8654 -0.5000
85007SOL    HW173013   4.611  12.518  10.600  0.5473  4.4322 -1.1545
85007SOL    HW273014   4.511  12.478  10.493  0.9248 -0.4429  0.0772
85008SOL     OW73015   4.802   0.452   1.090 -0.2950  0.3712  0.1177
85008SOL    HW173016   4.878   0.450   1.032 -1.6100  0.9321 -1.7512
85008SOL    HW273017   4.780   0.360   1.105 -0.7101  0.2041 -1.3987
85009SOL     OW73018   2.863  11.908   8.253  0.5127  0.6396 -0.0402
85009SOL    HW173019   2.883  11.969   8.325  0.1130 -0.1779  0.7891
85009SOL    HW273020   2.932  11.925   8.188  0.1392  2.2967 -0.0564
85010SOL     OW73021  13.718   3.695  10.410  0.1362  0.2959  0.4282
85010SOL    HW173022  13.760   3.611  10.392 -0.5667  0.0702 -0.2256
85010SOL    HW273023  13.778   3.761  10.373  0.7833  0.1076  1.1158
85011SOL     OW73024   7.968   2.392   0.242  0.3115  0.2431  0.5263
85011SOL    HW173025   7.951   2.433   0.327  0.5567  1.6867 -0.0940
85011SOL    HW273026   7.882   2.388   0.200  0.2942  0.1693  0.5685
85012SOL     OW73027   9.895   1.497  10.250 -0.2166 -0.4228 -0.1144
85012SOL    HW173028   9.982   1.536  10.259  0.4373 -1.1393 -2.5044
85012SOL    HW273029   9.880   1.453  10.334  1.6826 -0.2175  0.3866
85013SOL     OW73030   6.017   7.626   0.542  0.0395  0.3188 -0.2940
85013SOL    HW173031   6.056   7.539   0.550 -2.6958 -1.0803 -1.1021
85013SOL    HW273032   6.020   7.645   0.448  0.8511  1.2727 -0.1002
85014SOL     OW73033   1.142   3.750   6.333 -0.3150  0.3829 -0.0994
85014SOL    HW173034   1.158   3.673   6.387  2.1772 -0.1505 -1.4623
85014SOL    HW273035   1.057   3.732   6.291 -0.7933 -0.6028  1.2189
85015SOL     OW73036   5.541   1.623   2.915 -0.5164 -0.2372 -0.5996
85015SOL    HW173037   5.597   1.550   2.890 -0.6995  0.2508 -2.6033
85015SOL    HW273038   5.579   1.699   2.872 -2.0542  0.2949 -1.0973
85016SOL     OW73039   6.948   3.713  12.511 -0.0141 -0.1259  0.1266
85016SOL    HW173040   6.933   3.643  12.448 -0.5788 -0.1944  0.3357
85016SOL    HW273041   6.942   3.793  12.459  0.5798 -0.2247 -0.1016
85017SOL     OW73042   0.470   8.472  13.925 -0.2887  0.0478 -0.2786
85017SOL    HW173043   0.443   8.381  13.919  1.9269 -0.6042 -0.9425
85017SOL    HW273044   0.458   8.507  13.837  1.8957 -0.5561 -0.8736
85018SOL     OW73045   2.073   5.620  10.309  0.6854 -0.2875  0.3275
85018SOL    HW173046   2.104   5.579  10.229  0.0920 -1.1347  0.5181
85018SOL    HW273047   1.986   5.653  10.287  0.5199 -0.5245  0.6227
85019SOL     OW73048   6.033  10.207  13.737 -0.1029 -0.0832  0.1473
85019SOL    HW173049   5.977  10.151  13.791 -0.2259 -0.7404 -0.6464
85019SOL    HW273050   6.047  10.157  13.657  0.9410  0.4292 -0.0072
85020SOL     OW73051   0.306  13.948  12.586  0.2239 -0.1155  0.3720
85020SOL    HW173052   0.250  14.012  12.632  0.5170 -0.1234  0.7457
85020SOL    HW273053   0.356  14.001  12.524  2.5238  0.4910  2.5926
85021SOL     OW73054  11.778   0.782  12.196 -0.1834  0.1740  0.1615
85021SOL    HW173055  11.744   0.870  12.207 -1.3208 -0.2271 -0.0106
85021SOL    HW273056  11.736   0.749  12.116 -2.5115 -1.7028  1.9943
85022SOL     OW73057   2.086   7.325   6.984  0.2278  0.1495 -0.4350
85022SOL    HW173058   2.014   7.345   7.044  0.3208  0.1006 -0.3057
85022SOL    HW273059   2.044   7.310   6.900  0.0346 -0.3637 -0.2559
85023SOL     OW73060   8.263  12.280   1.851 -0.3482 -0.1498 -0.5289
85023SOL    HW173061   8.249  12.353   1.790 -0.3712 -0.0200 -0.3692
85023SOL    HW273062   8.268  12.322   1.937 -0.7512 -0.3787 -0.3922
85024SOL     OW73063   7.441   3.358  12.445  0.4556  0.0188  0.5059
85024SOL    HW173064   7.437   3.333  12.352  0.5430  0.8964  0.2587
85024SOL    HW273065   7.507   3.300  12.482 -0.0959 -0.8428  0.1909
85025SOL     OW73066  14.055   8.944   8.506  0.2600  0.4200  0.2966
85025SOL    HW173067  14.029   8.885   8.435 -0.2950 -0.1114  0.9281
85025SOL    HW273068  14.003   8.916   8.581  0.1693  1.5678  0.6763
85026SOL     OW73069   2.222   2.936   1.329  0.3901  0.2432  0.3461
85026SOL    HW173070   2.180   2.857   1.296 -1.2282  1.9418 -2.0779
85026SOL    HW273071   2.164   2.968   1.398 -1.5216  1.5789 -1.7264
85027SOL     OW73072   7.715  13.465   2.011  0.2771  0.6603 -0.0713
85027SOL    HW173073   7.635  13.510   1.984  0.6679  0.1459 -2.3244
85027SOL    HW273074   7.688  13.410   2.085 -1.3948  0.7189 -0.5971
85028SOL     OW73075  13.579   3.318   5.749  0.4253 -0.2638 -0.5264
85028SOL    HW173076  13.541   3.406   5.744  0.1337 -0.4319 -1.4607
85028SOL    HW273077  13.633   3.310   5.671  0.1756 -1.0452 -0.6305
85029SOL     OW73078   5.288   8.854  13.571 -0.9092 -0.3245  0.6602
85029SOL    HW173079   5.229   8.805  13.513  0.6103 -0.3582 -0.9591
85029SOL    HW273080   5.298   8.799  13.648  1.8684 -3.5090 -1.6553
85030SOL     OW73081   8.972   7.953   6.401  0.1870 -0.1846 -0.3431
85030SOL    HW173082   8.918   7.874   6.401 -0.8263  0.4859  0.0156
85030SOL    HW273083   8.961   7.989   6.489  1.5620 -0.2435 -0.1302
85031SOL     OW73084   7.831  12.811  10.310 -0.6653 -0.2096  0.0657
85031SOL    HW173085   7.763  12.876  10.294  0.4577  1.1481  0.6079
85031SOL    HW273086   7.804  12.734  10.260 -1.1920  1.2365 -1.9539
85032SOL     OW73087   0.794   7.984   8.569  0.2309  0.4383  0.1612
85032SOL    HW173088   0.874   8.029   8.542 -0.0767  0.8409 -0.0922
85032SOL    HW273089   0.823   7.896   8.594  0.5675  0.0951 -1.3261
85033SOL     OW73090  10.674  13.261   4.908 -0.0781 -0.5594  0.0232
85033SOL    HW173091  10.581  13.238   4.905 -0.1499 -0.1937 -1.1441
85033SOL    HW273092  10.675  13.356   4.922  0.0986 -0.4727 -0.5435
85034SOL     OW73093   1.358  10.821   8.729 -0.1910  0.2911  0.2308
85034SOL    HW173094   1.345  10.798   8.637 -0.4698  1.6348 -0.0954
85034SOL    HW273095   1.344  10.916   8.732 -0.0456  0.2932  1.6368
85035SOL     OW73096   7.104   0.336  10.771 -0.0454 -0.3123 -0.2540
85035SOL    HW173097   7.141   0.412  10.815 -0.9981 -0.1305  0.2427
85035SOL    HW273098   7.055   0.372  10.697  0.9631 -0.5732 -1.0903
85036SOL     OW73099   5.106  13.238  10.774  0.6831  0.1066  0.1738
85036SOL    HW173100   5.184  13.198  10.813 -0.0516 -3.0321 -1.2295
85036SOL    HW273101   5.035  13.219  10.835  0.3300 -0.7915 -0.4933
85037SOL     OW73102   1.097  10.352   4.206  0.0559 -0.5872 -0.4248
85037SOL    HW173103   1.032  10.342   4.276 -0.8448  0.1469 -1.1430
85037SOL    HW273104   1.126  10.263   4.188  0.5858 -0.7669  1.1324
85038SOL     OW73105  10.857  12.249  11.958 -0.2565  0.8189 -0.6251
85038SOL    HW173106  10.823  12.261  11.869 -0.4130 -0.1030 -0.6919
85038SOL    HW273107  10.875  12.338  11.988 -1.2660  1.2243 -1.1604
85039SOL     OW73108   6.364  10.302   7.711 -0.1333 -0.0330 -0.0097
85039SOL    HW173109   6.301  10.372   7.693  0.4550  0.4694 -0.1590
85039SOL    HW273110   6.317  10.242   7.769 -0.5744  0.5932  0.2977
85040SOL     OW73111   4.131   3.295   0.290  1.0069 -0.3726  0.4108
85040SOL    HW173112   4.189   3.344   0.348  0.1706 -1.2694  2.1115
85040SOL    HW273113   4.115   3.353   0.216  0.1779  1.8693  2.2392
85041SOL     OW73114  13.630   9.987  13.758 -0.4127 -0.0731 -0.0645
85041SOL    HW173115  13.583   9.942  13.828 -0.5081  0.8765  0.5028
85041SOL    HW273116  13.699  10.035  13.803 -0.1014  0.0845 -0.6932
85042SOL     OW73117   6.830  10.464  13.432 -0.3943  0.0203  0.2645
85042SOL    HW173118   6.769  10.420  13.491 -1.5018 -0.3031 -1.0616
85042SOL    HW273119   6.901  10.401  13.419 -1.9894 -1.5123 -1.6579
85043SOL     OW73120  12.664   4.439   0.986 -0.0798  0.3751  0.4317
85043SOL    HW173121  12.597   4.500   1.016 -2.2106 -1.7981  0.3356
85043SOL    HW273122  12.677   4.379   1.059  0.1607 -0.5314 -0.3401
85044SOL     OW73123   7.705   2.838  12.054  0.2159 -0.2449 -0.1671
85044SOL    HW173124   7.760   2.870  11.983  0.2838 -0.5539 -0.2515
85044SOL    HW273125   7.668   2.918  12.093  0.7172 -0.0343 -0.1099
85045SOL     OW73126  12.933  11.660   4.452  0.5387  0.6091  0.0320
85045SOL    HW173127  12.963  11.704   4.532  0.4431  0.3260  0.2258
85045SOL    HW273128  12.868  11.597   4.482 -1.5282  2.3643 -0.5686
85046SOL     OW73129  10.111   4.184   2.195  0.8393  0.0265  0.4269
85046SOL    HW173130  10.197   4.203   2.232  0.4473 -0.1062  1.4195
85046SOL    HW273131  10.064   4.268   2.199  0.9673  0.1399 -0.2684
85047SOL     OW73132   8.195   1.660  10.230 -0.3709 -0.5031 -0.1676
85047SOL    HW173133   8.227   1.725  10.292  0.0483  1.9643 -2.7738
85047SOL    HW273134   8.273   1.612  10.202 -0.3528 -0.6574  0.1417
85048SOL     OW73135  10.280   5.703   8.404  0.1463 -0.4158  0.2936
85048SOL    HW173136  10.249   5.727   8.491  0.3020 -1.0048  0.5156
85048SOL    HW273137  10.233   5.761   8.344  0.3525  0.2824  0.8017
85049SOL     OW73138   4.037  10.640   9.025 -0.1470 -0.3067  0.9447
85049SOL    HW173139   3.948  10.630   8.991 -0.1965  0.4270  0.8234
85049SOL    HW273140   4.089  10.576   8.978 -0.0239  1.2600 -1.2258
85050SOL     OW73141   9.342  13.261   9.945  0.3014  0.5909 -0.3310
85050SOL    HW173142   9.252  13.228   9.943  0.9991 -1.5112  0.1470
85050SOL    HW273143   9.363  13.267  10.038  0.4979  1.5987 -0.4310
85051SOL     OW73144  13.820   8.601  12.715  0.2845  0.1339 -0.1232
85051SOL    HW173145  13.806   8.657  12.638  2.7712 -1.0016 -1.5241
85051SOL    HW273146  13.825   8.512  12.679  1.9489 -0.3790  1.2432
85052SOL     OW73147   8.178  12.208   0.721  0.2661  0.0259  0.4033
85052SOL    HW173148   8.250  12.193   0.783  1.4291  1.1298 -0.6259
85052SOL    HW273149   8.176  12.129   0.667  0.6365 -0.0366  0.4805
85053SOL     OW73150   1.870   5.810   9.399 -0.0967  0.0315  0.0103
85053SOL    HW173151   1.913   5.864   9.465  0.7299  0.3951 -0.8038
85053SOL    HW273152   1.820   5.872   9.346 -0.7277 -0.2545  0.2656
85054SOL     OW73153   7.546   3.726   4.748 -0.3248 -0.1245  0.0132
85054SOL    HW173154   7.609   3.653   4.749 -0.1643  0.0138  0.0857
85054SOL    HW273155   7.500   3.718   4.831  2.2457  2.0557  1.7987
85055SOL     OW73156  10.040   7.041   8.214  0.2908  0.0396  0.1387
85055SOL    HW173157  10.084   6.962   8.182  0.5392  0.5433 -0.8131
85055SOL    HW273158  10.109   7.107   8.216  0.0269  0.2983  0.6758
85056SOL     OW73159   8.131  12.994   0.984  0.1327 -0.0888  0.2710
85056SOL    HW173160   8.143  12.902   0.961 -0.5854 -0.2181  0.3852
85056SOL    HW273161   8.076  12.992   1.062 -2.5460  0.4906 -1.4616
85057SOL     OW73162   8.781   6.556   6.195  0.3010  0.0072  0.4638
85057SOL    HW173163   8.770   6.648   6.218 -1.0506 -0.4640  1.8694
85057SOL    HW273164   8.694   6.528   6.165  0.3992 -1.0928  1.1595
85058SOL     OW73165   0.387   7.732   7.629 -0.1092 -0.8939  0.4741
85058SOL    HW173166   0.480   7.750   7.622 -0.3286  0.2041  0.3346
85058SOL    HW273167   0.368   7.740   7.723 -0.1407 -0.7384  0.4542
85059SOL     OW73168  13.378   2.710   9.169 -0.4338  0.2812 -0.3102
85059SOL    HW173169  13.340   2.678   9.087 -0.3090 -0.8410  0.0502
85059SOL    HW273170  13.309   2.697   9.234 -0.3208  0.6020 -0.1275
85060SOL     OW73171   6.335  11.590  13.374  0.4250 -0.9547  0.3434
85060SOL    HW173172   6.356  11.680  13.350 -1.5063 -0.1129  1.6159
85060SOL    HW273173   6.321  11.593  13.469  1.1443 -2.7810  0.5415
85061SOL     OW73174   9.572   2.232   6.841 -0.2541  0.1497  0.5494
85061SOL    HW173175   9.590   2.325   6.852  0.6696 -0.1451  1.7186
85061SOL    HW273176   9.491   2.229   6.789 -0.7138  1.6029  1.1389
85062SOL     OW73177  11.830  11.726   3.907  0.0145 -0.3252 -0.2931
85062SOL    HW173178  11.764  11.775   3.955  0.8752  1.0622 -0.4564
85062SOL    HW273179  11.782  11.685   3.835 -0.5165  1.6940 -1.1646
85063SOL     OW73180  13.697   8.733   6.581  0.2306  0.5128  0.1409
85063SOL    HW173181  13.699   8.760   6.489  0.2596  1.0977  0.3062
85063SOL    HW273182  13.619   8.678   6.588  0.0601  0.7083 -0.1765
85064SOL     OW73183   1.370  13.679   9.122 -0.7058 -0.4898 -0.2193
85064SOL    HW173184   1.372  13.584   9.135 -2.7849 -0.7144 -1.0941
85064SOL    HW273185   1.280  13.704   9.142 -0.6667  1.0039 -1.6646
85065SOL     OW73186  11.994  11.320   4.596 -0.3066  0.1191 -0.0996
85065SOL    HW173187  11.982  11.288   4.507 -0.1140 -0.4487  0.0793
85065SOL    HW273188  12.061  11.388   4.588  0.8510 -0.9961 -0.1610
85066SOL     OW73189  12.270   4.784   2.717 -0.4658 -0.0769 -0.1856
85066SOL    HW173190  12.316   4.701   2.729  0.0930  0.3853  0.9472
85066SOL    HW273191  12.336   4.845   2.687 -0.6076  0.2747  0.2103
85067SOL     OW73192  10.248   9.487  14.139  0.2010  0.1888 -0.5938
85067SOL    HW173193  10.293   9.527  14.213 -1.1975 -1.0844  1.0463
85067SOL    HW273194  10.158   9.521  14.145 -0.5569 -1.7718 -0.1937
85068SOL     OW73195  13.143   1.336   2.234 -0.2353 -0.1926  0.1639
85068SOL    HW173196  13.103   1.420   2.257  0.9576  0.6268 -0.6446
85068SOL    HW273197  13.203   1.356   2.163 -0.9910 -2.0001 -1.0817
85069SOL     OW73198   5.343   9.876   5.699 -0.1869  0.6082  0.2167
85069SOL    HW173199   5.402   9.951   5.707 -1.2726  1.8553 -2.3264
85069SOL    HW273200   5.264   9.912   5.659 -1.8306 -1.4392  1.4039
85070SOL     OW73201   0.807   2.011   3.282  0.0838  0.6483 -0.0538
85070SOL    HW173202   0.758   1.966   3.351 -1.3849  0.0056 -1.4640
85070SOL    HW273203   0.859   1.942   3.240  0.5419  0.9341  0.0335
85071SOL     OW73204   0.937  12.999   8.194  0.5365  0.1126  0.1295
85071SOL    HW173205   0.872  13.001   8.124  3.3096  2.3010 -2.6518
85071SOL    HW273206   0.909  13.067   8.255  0.6033  1.5990 -1.4543
85072SOL     OW73207   0.656  11.449   9.516 -0.2093  0.1485 -0.1899
85072SOL    HW173208   0.626  11.496   9.594  0.6801 -0.0495  0.2897
85072SOL    HW273209   0.726  11.504   9.480 -0.3098  0.0160 -0.5933
85073SOL     OW73210   7.954   9.310  10.198 -0.1296 -0.6823  0.2334
85073SOL    HW173211   8.015   9.270  10.259 -1.1146 -1.9235  0.4536
85073SOL    HW273212   7.969   9.404  10.206  1.9173 -0.9606  0.0593
85074SOL     OW73213   9.587  14.022  10.783 -0.0838 -0.0090  0.0079
85074SOL    HW173214   9.527  14.093  10.760 -0.4363 -0.6810 -1.2217
85074SOL    HW273215   9.669  14.067  10.805  0.0570  0.7613 -1.9068
85075SOL     OW73216   2.220   9.289  10.610  0.5369 -0.5721 -0.7143
85075SOL    HW173217   2.240   9.346  10.535 -0.5319 -0.1683 -0.7156
85075SOL    HW273218   2.282   9.315  10.677  1.3211 -0.7331 -1.3584
85076SOL     OW73219  11.543  13.575   5.513  0.2075  0.0363  0.2005
85076SOL    HW173220  11.571  13.663   5.487  2.0049 -0.0959  1.4752
85076SOL    HW273221  11.449  13.583   5.528  0.5889  2.2200  1.9499
85077SOL     OW73222   1.074  10.486   2.864  0.4333 -0.0560 -0.1550
85077SOL    HW173223   0.984  10.519   2.855  0.2465 -0.7130 -0.7842
85077SOL    HW273224   1.070  10.424   2.936  0.7528  1.1410  0.9311
85078SOL     OW73225   7.739   9.646   8.288 -0.5200 -0.2482  0.4508
85078SOL    HW173226   7.711   9.568   8.239 -1.2505  0.2619  0.0340
85078SOL    HW273227   7.677   9.651   8.361 -0.2215 -0.2882  0.7035
85079SOL     OW73228   0.698  12.932  10.369  0.6875  0.1341 -0.5314
85079SOL    HW173229   0.792  12.950  10.375  0.4035  1.8152 -0.5607
85079SOL    HW273230   0.657  13.018  10.379 -0.8769 -0.6464  0.0400
85080SOL     OW73231  10.551  13.582   0.116  0.3695 -0.7459 -0.3484
85080SOL    HW173232  10.569  13.491   0.095  0.6693 -0.3875 -1.8133
85080SOL    HW273233  10.604  13.632   0.053 -2.4534  0.3935 -2.0458
85081SOL     OW73234  10.535   9.324   1.582  0.2302 -0.3790 -0.4465
85081SOL    HW173235  10.567   9.276   1.505  2.4265 -0.8243  0.6913
85081SOL    HW273236  10.537   9.416   1.555 -1.2463 -0.6391 -1.6476
85082SOL     OW73237   8.321  12.423   9.416 -0.0531 -0.2606 -0.6343
85082SOL    HW173238   8.305  12.463   9.331  0.3488 -0.7021 -0.9216
85082SOL    HW273239   8.416  12.425   9.427 -0.0759 -0.5183 -0.3545
85083SOL     OW73240   0.649   0.746   6.687 -0.3962  0.3311 -0.4457
85083SOL    HW173241   0.698   0.802   6.747  1.3857 -0.6049 -0.9718
85083SOL    HW273242   0.664   0.657   6.718 -2.1642  0.0292 -0.3641
85084SOL     OW73243   4.525   2.409   6.029  0.2294  0.5893 -0.4838
85084SOL    HW173244   4.473   2.378   5.955  0.7604  0.8005 -0.9477
85084SOL    HW273245   4.614   2.381   6.010  0.3750  0.6529  0.0747
85085SOL     OW73246  11.319  11.345   6.227 -0.6400  0.5745  0.2476
85085SOL    HW173247  11.258  11.419   6.222 -1.3941 -0.0914 -0.8225
85085SOL    HW273248  11.347  11.332   6.137  1.3154  1.0210  0.7506
85086SOL     OW73249   0.871  11.727   4.265 -0.5209  0.4709 -0.6158
85086SOL    HW173250   0.778  11.743   4.282 -0.7083 -1.8944  1.2565
85086SOL    HW273251   0.915  11.809   4.288 -1.8728  0.6206  1.6837
85087SOL     OW73252  12.932   9.212   7.024  0.1640  0.3193  0.4225
85087SOL    HW173253  12.965   9.196   6.936  1.1000 -2.4210  1.1850
85087SOL    HW273254  12.849   9.166   7.028 -1.0345  2.3658  0.3280
85088SOL     OW73255  10.020   3.893  13.356  0.1462  0.3256 -0.0695
85088SOL    HW173256  10.106   3.886  13.314  0.8560  1.1285  1.1763
85088SOL    HW273257   9.984   3.976  13.323 -0.0496  0.1137 -0.3953
85089SOL     OW73258  14.036  14.018   0.397 -0.0442 -0.5556  0.0471
85089SOL    HW173259  13.997  13.966   0.326  0.2393  0.5644 -0.9653
85089SOL    HW273260  13.966  14.077   0.425 -0.1705 -1.0319  0.7522
85090SOL     OW73261   1.783   8.941   8.528  0.1832  0.5189 -0.4796
85090SOL    HW173262   1.807   8.953   8.620  2.2093  0.5901 -0.9643
85090SOL    HW273263   1.747   8.852   8.524  1.5318 -0.0948  0.1479
85091SOL     OW73264   3.571  12.241  10.766  0.1018 -0.0109  0.5026
85091SOL    HW173265   3.607  12.324  10.736  0.6299 -0.5887 -0.4857
85091SOL    HW273266   3.479  12.243  10.738 -0.8385  1.6054  3.3149
85092SOL     OW73267   0.642  11.304   7.875  0.2943  0.6312  0.2331
85092SOL    HW173268   0.648  11.397   7.854  3.3010  0.3011 -0.8655
85092SOL    HW273269   0.733  11.274   7.880 -0.5504 -2.4805 -0.4818
85093SOL     OW73270   3.361   3.287   8.195 -0.0064 -0.5841 -0.0136
85093SOL    HW173271   3.288   3.287   8.133  1.3079  1.9932 -1.7618
85093SOL    HW273272   3.351   3.367   8.245  1.2540 -0.4989  0.1513
85094SOL     OW73273   5.122   4.733  10.078  0.0282 -0.3040 -0.4609
85094SOL    HW173274   5.176   4.681  10.138  1.0855  2.2160  0.9372
85094SOL    HW273275   5.043   4.752  10.128  0.0814  0.2116 -0.5695
85095SOL     OW73276   4.477   9.940   3.142  0.2762  0.1339  0.3884
85095SOL    HW173277   4.524  10.021   3.158  0.2485  0.1178  0.5490
85095SOL    HW273278   4.527   9.873   3.189 -0.1624  0.1862  0.9443
85096SOL     OW73279  10.534  11.253   6.309 -0.5543 -0.4858  0.6638
85096SOL    HW173280  10.509  11.162   6.292 -0.1705 -0.7631  1.5377
85096SOL    HW273281  10.585  11.278   6.231  2.7398 -2.3280  1.9995
85097SOL     OW73282   8.121   3.157  13.057  0.2623 -0.3596  0.3416
85097SOL    HW173283   8.203   3.108  13.048  0.4270 -0.1669  0.7713
85097SOL    HW273284   8.055   3.098  13.022  0.9716  0.7885 -3.2727
85098SOL     OW73285   3.323   3.711   0.458  0.0184  0.4815  0.3347
85098SOL    HW173286   3.390   3.779   0.464 -0.5835  1.1235 -0.0787
85098SOL    HW273287   3.343   3.665   0.376 -0.8374  1.5623 -0.5213
85099SOL     OW73288   9.540   7.173   2.227  0.1737 -0.2944 -0.3017
85099SOL    HW173289   9.510   7.133   2.309  1.2131  0.2291  0.3494
85099SOL    HW273290   9.471   7.237   2.205  0.6543  0.7498  1.0692
85100SOL     OW73291   8.652   8.025  10.936  0.5449  0.6123 -0.5992
85100SOL    HW173292   8.699   7.942  10.945 -0.1367  0.3591  0.9150
85100SOL    HW273293   8.719   8.092  10.951  0.5382  0.2632  1.2635
85101SOL     OW73294   6.817   8.604   7.354  0.3050  0.1422 -0.0371
85101SOL    HW173295   6.802   8.521   7.398  0.1340  0.6803  0.9299
85101SOL    HW273296   6.911   8.604   7.335  0.7512  0.6530  1.9306
85102SOL     OW73297  13.487   1.029   9.945  0.5023 -0.4185  0.1125
85102SOL    HW173298  13.569   0.991   9.914  1.3263  1.6271 -0.3451
85102SOL    HW273299  13.421   0.996   9.884  1.1776 -1.0698 -0.2837
85103SOL     OW73300   1.958  13.491   7.791  0.3793  0.3738  0.3541
85103SOL    HW173301   1.937  13.585   7.795  0.7343  0.4185  1.8316
85103SOL    HW273302   1.929  13.457   7.876  1.6097 -0.5549  0.4235
85104SOL     OW73303   2.665   7.215   8.083  0.2490  0.5121  0.5180
85104SOL    HW173304   2.673   7.182   7.994  2.2747  0.1634  0.7846
85104SOL    HW273305   2.655   7.310   8.073  0.0067  0.4302 -0.0790
85105SOL     OW73306  13.649   7.795  10.851  0.3851  0.9496 -0.1675
85105SOL    HW173307  13.693   7.717  10.816  0.0951 -0.5590  2.5630
85105SOL    HW273308  13.679   7.867  10.795  1.4871 -0.9477 -2.1462
85106SOL     OW73309  10.757   3.994   9.455 -0.0124  0.3557  0.2303
85106SOL    HW173310  10.672   4.014   9.416  0.0609 -0.2387 -0.2346
85106SOL    HW273311  10.748   3.905   9.489  0.5349  0.1668 -0.1187
85107SOL     OW73312   1.722   9.019  11.755 -0.5206  0.2168  0.3129
85107SOL    HW173313   1.766   9.084  11.810  0.0383 -0.6012  0.8638
85107SOL    HW273314   1.634   9.011  11.793 -0.0053 -0.6495  1.3994
85108SOL     OW73315   2.562   6.952   8.719  0.3488 -0.1270  0.4034
85108SOL    HW173316   2.630   6.917   8.663  0.1059  0.1279 -0.0525
85108SOL    HW273317   2.587   7.043   8.735 -0.4181  0.2831 -0.6283
85109SOL     OW73318   9.601   9.487  10.619 -0.0087 -0.0018 -0.6973
85109SOL    HW173319   9.527   9.427  10.613  0.4553 -0.5716 -0.8528
85109SOL    HW273320   9.645   9.462  10.701  0.2809  0.0058 -0.8479
85110SOL     OW73321   1.010  10.593   4.100 -0.2745  0.2032  0.1532
85110SOL    HW173322   1.004  10.604   4.195 -0.5856 -1.5137  0.3699
85110SOL    HW273323   1.063  10.514   4.089 -0.6571  0.1036 -1.0930
85111SOL     OW73324  10.899   1.729   2.175 -0.3710 -0.8746 -0.4059
85111SOL    HW173325  10.968   1.776   2.128  0.4481 -0.7364  0.8582
85111SOL    HW273326  10.820   1.781   2.162  0.0391 -0.3642 -0.8669
85112SOL     OW73327   6.424   3.593  11.143  0.4187 -1.0091 -0.3937
85112SOL    HW173328   6.331   3.571  11.143  0.0973 -0.0148  1.8350
85112SOL    HW273329   6.464   3.527  11.199  0.6109 -0.0695  0.6158
85113SOL     OW73330   6.966   0.846   6.966  0.1857  0.0503  0.2983
85113SOL    HW173331   6.971   0.758   6.931  0.4758  0.1013  0.2122
85113SOL    HW273332   6.885   0.882   6.929  0.4878  0.1043 -0.3202
85114SOL     OW73333   2.328   4.482   8.903  0.2174  0.3556  0.5060
85114SOL    HW173334   2.252   4.509   8.953 -0.5828 -1.8773  0.6194
85114SOL    HW273335   2.386   4.441   8.968  0.4620 -0.0119  0.0629
85115SOL     OW73336   7.336   7.407   0.977  0.0572  0.2115 -0.0289
85115SOL    HW173337   7.398   7.391   1.049 -0.9177  2.1218  1.3461
85115SOL    HW273338   7.274   7.335   0.982 -0.1504  0.4485  1.2749
85116SOL     OW73339  13.223   1.601   0.873 -0.6050  0.6059  0.4317
85116SOL    HW173340  13.290   1.594   0.805 -0.0751  0.9844  0.9091
85116SOL    HW273341  13.209   1.696   0.883 -0.7657  0.5488  0.7649
85117SOL     OW73342   2.137   0.214   5.108  0.2158  0.0324  0.4068
85117SOL    HW173343   2.102   0.303   5.114 -0.0735 -0.1560  1.6613
85117SOL    HW273344   2.062   0.160   5.085 -0.5873 -0.4766  3.7848
85118SOL     OW73345   9.247   5.572   7.073  0.1075  0.9295  0.5030
85118SOL    HW173346   9.279   5.569   6.983 -0.9116  1.0326  0.1314
85118SOL    HW273347   9.326   5.558   7.127  0.6178  0.1894 -0.4074
85119SOL     OW73348  12.781   1.044   2.937 -0.0137 -0.1513  0.4043
85119SOL    HW173349  12.809   0.953   2.932  2.4797  0.5774 -0.0274
85119SOL    HW273350  12.849   1.093   2.891 -1.6301  1.8904  0.0166
85120SOL     OW73351  10.182   9.670   5.682 -0.0348 -0.0300  0.3479
85120SOL    HW173352  10.186   9.647   5.589  0.1999  0.8026  0.1503
85120SOL    HW273353  10.231   9.752   5.689 -0.7769  0.3648  1.0645
85121SOL     OW73354   8.588  12.455  10.755  0.4479 -0.1580 -0.1040
85121SOL    HW173355   8.533  12.514  10.806  0.8891  0.0076  0.1841
85121SOL    HW273356   8.550  12.456  10.667  0.1480  0.1564  0.0287
85122SOL     OW73357   7.381   2.004   2.161  0.5154  0.3422  0.1598
85122SOL    HW173358   7.323   1.986   2.087  1.9444 -0.3960 -0.8166
85122SOL    HW273359   7.409   2.095   2.148  0.5487  0.3027 -0.0391
85123SOL     OW73360   7.370   4.796   1.219 -0.2822  0.4903  0.2524
85123SOL    HW173361   7.361   4.723   1.158  1.1972 -0.8835  1.5801
85123SOL    HW273362   7.431   4.856   1.176 -0.8603  0.5733 -0.4810
85124SOL     OW73363   4.575   6.928   2.546  0.0260  0.2037  0.8145
85124SOL    HW173364   4.500   6.891   2.498 -1.0961  0.8530  2.0366
85124SOL    HW273365   4.646   6.865   2.530 -0.7028 -0.3299 -0.5121
85125SOL     OW73366   8.374   7.592  10.778  0.8792  0.8577 -0.2613
85125SOL    HW173367   8.346   7.654  10.711  1.7154  1.2815 -0.2314
85125SOL    HW273368   8.326   7.617  10.857  0.6644  1.0029 -0.4394
85126SOL     OW73369   2.782   6.378   9.142 -0.0316  0.1177 -0.6162
85126SOL    HW173370   2.730   6.423   9.076 -0.8482  0.1982  0.0614
85126SOL    HW273371   2.784   6.287   9.114  1.0947  0.4306 -1.6575
85127SOL     OW73372   2.075   6.047   1.270 -0.7192 -0.7934 -0.1271
85127SOL    HW173373   2.103   5.983   1.336  1.0103  1.4665  1.5130
85127SOL    HW273374   2.016   6.106   1.318 -2.0272 -0.9240 -1.5082
85128SOL     OW73375   9.080   4.785   8.179 -0.4648 -0.6909  0.8284
85128SOL    HW173376   9.088   4.834   8.262  0.9942 -1.0438  0.9215
85128SOL    HW273377   9.127   4.703   8.195 -0.0534 -0.7078 -0.3853
85129SOL     OW73378   4.258  11.447  13.977  0.0326 -0.7205  0.3725
85129SOL    HW173379   4.215  11.414  13.898  1.2332 -0.4309 -0.4416
85129SOL    HW273380   4.351  11.429  13.963  0.7302  2.5418  0.0493
85130SOL     OW73381   2.092   0.485  11.073  0.9061  0.3977  0.0140
85130SOL    HW173382   2.114   0.506  10.982  0.6469  0.9258  0.0649
85130SOL    HW273383   2.003   0.448  11.068  0.1756  2.0374  0.2142
85131SOL     OW73384   0.968   6.631   7.212 -0.3053  0.3522  0.0510
85131SOL    HW173385   0.931   6.578   7.141 -0.0778  0.2733 -0.0112
85131SOL    HW273386   1.003   6.708   7.168 -0.2348  0.3410  0.0874
85132SOL     OW73387   3.243   8.815   9.083 -0.2015  0.0854  0.0297
85132SOL    HW173388   3.229   8.724   9.057 -0.5006 -0.1198  0.8937
85132SOL    HW273389   3.338   8.825   9.085 -0.1672 -0.2516  0.0881
85133SOL     OW73390   1.675  11.602   6.001  0.4352 -0.2809 -0.6135
85133SOL    HW173391   1.605  11.583   5.938 -0.7495 -1.1007  0.8942
85133SOL    HW273392   1.750  11.553   5.967  0.7107  1.5647 -2.9047
85134SOL     OW73393   7.463  12.844   7.978  0.5761 -0.6367  0.1841
85134SOL    HW173394   7.384  12.823   8.029  0.6624  1.5674  1.3118
85134SOL    HW273395   7.536  12.822   8.037  0.6863  1.1560  0.7804
85135SOL     OW73396   0.754   6.594   3.733 -0.1449 -0.3437 -0.0581
85135SOL    HW173397   0.746   6.633   3.645  2.0897  0.0202 -0.1446
85135SOL    HW273398   0.690   6.523   3.733  0.8197 -1.3318 -2.5609
85136SOL     OW73399   5.623   2.999  13.254  0.0719 -0.0058  0.1670
85136SOL    HW173400   5.576   3.062  13.199  1.9781 -0.8252 -2.6562
85136SOL    HW273401   5.693   3.049  13.295  0.6439  0.0467 -0.8412
85137SOL     OW73402   7.637   3.728   7.479 -0.2671  0.0149  0.4367
85137SOL    HW173403   7.662   3.714   7.571 -0.5777  0.2711  0.5628
85137SOL    HW273404   7.685   3.661   7.431 -0.1566 -0.1681  0.7950
85138SOL     OW73405   5.632  12.305   0.042 -0.9645 -0.1642 -0.2941
85138SOL    HW173406   5.571  12.244   0.000 -0.9746 -0.5130  0.2230
85138SOL    HW273407   5.632  12.280   0.134 -1.5506  1.1090  0.0804
85139SOL     OW73408   5.146   5.509  13.187 -0.0459  0.0572 -0.1702
85139SOL    HW173409   5.197   5.567  13.244  0.4483  0.1890 -0.7312
85139SOL    HW273410   5.180   5.526  13.100 -0.4774 -0.4753 -0.4475
85140SOL     OW73411   9.954   9.570   9.236  0.1680 -0.8052  0.0167
85140SOL    HW173412   9.927   9.631   9.168  1.1363  0.3357  0.6201
85140SOL    HW273413   9.991   9.496   9.188  0.3692 -0.2418 -0.7170
85141SOL     OW73414   6.159   3.097  14.004 -0.0713 -0.4944 -0.2593
85141SOL    HW173415   6.185   3.036  13.935 -0.5673 -2.5800  1.3202
85141SOL    HW273416   6.242   3.128  14.041  0.2403  1.4112 -2.3116
85142SOL     OW73417   4.068   8.226   6.054 -0.1113 -1.1914  0.0914
85142SOL    HW173418   4.085   8.317   6.078  1.8804 -1.7393  0.9465
85142SOL    HW273419   4.154   8.184   6.055 -0.8536 -2.8702 -1.2640
85143SOL     OW73420  13.831   2.005  12.520  0.3484  0.1276  0.3562
85143SOL    HW173421  13.839   1.911  12.505  1.0315 -0.0212  1.5372
85143SOL    HW273422  13.814   2.013  12.614 -0.3537  1.1596  0.1631
85144SOL     OW73423   3.149  10.672  10.826 -0.1589 -0.0665  0.5605
85144SOL    HW173424   3.152  10.603  10.891  1.1754  1.3322  2.0633
85144SOL    HW273425   3.151  10.754  10.876  0.9213  1.0732 -1.1935
85145SOL     OW73426   2.880   4.028  10.840  0.3084  0.1965 -0.7028
85145SOL    HW173427   2.881   4.031  10.936 -0.0659  2.5217 -0.7233
85145SOL    HW273428   2.794   3.989  10.819  0.0381  0.4538 -0.1005
85146SOL     OW73429  13.612   6.371   8.217  0.4837  0.5763  0.2240
85146SOL    HW173430  13.605   6.342   8.308 -0.3647 -0.0866 -0.0400
85146SOL    HW273431  13.546   6.320   8.171 -0.3374  2.1813 -0.4537
85147SOL     OW73432  10.049  10.403   8.981  0.7488 -1.0953 -0.2534
85147SOL    HW173433  10.007  10.462   9.044  1.4429 -0.9197  0.0551
85147SOL    HW273434  10.090  10.336   9.035 -1.4760 -2.8859 -0.6571
85148SOL     OW73435  11.796   2.864  13.095 -0.6002  0.8793  0.3294
85148SOL    HW173436  11.750   2.819  13.166  0.0488 -0.7902 -0.2543
85148SOL    HW273437  11.883   2.826  13.095 -0.5523  0.9221 -1.2825
85149SOL     OW73438   0.360  13.514   2.629 -0.4822 -0.1346 -0.0712
85149SOL    HW173439   0.318  13.555   2.704 -2.3421 -0.7129 -0.7290
85149SOL    HW273440   0.302  13.441   2.605  1.0315 -1.1255 -0.9233
85150SOL     OW73441   0.075   3.714   6.902  0.2241  0.1884 -0.4589
85150SOL    HW173442   0.080   3.746   6.812 -0.7149 -2.5384 -1.6037
85150SOL    HW273443   0.139   3.642   6.906 -1.4636 -1.3684  0.2120
85151SOL     OW73444   3.193  12.678   5.544 -0.0426 -0.4301  0.2673
85151SOL    HW173445   3.126  12.720   5.490 -0.0198 -0.4634  0.2144
85151SOL    HW273446   3.245  12.626   5.483  2.5073  2.6275 -0.3750
85152SOL     OW73447  11.029   8.083   1.923  0.1089 -0.0232 -0.1921
85152SOL    HW173448  10.958   8.039   1.970 -1.2282  0.9489 -1.2414
85152SOL    HW273449  11.012   8.177   1.936  1.2271  0.2336 -0.4430
85153SOL     OW73450   5.085   7.191   4.062  0.2516  0.2354  0.3659
85153SOL    HW173451   5.080   7.283   4.088  2.4960  0.1312  1.4539
85153SOL    HW273452   5.176   7.166   4.081 -0.5344 -2.4837  0.9812
85154SOL     OW73453  13.985  13.189   9.505  0.2463  0.5380  0.1923
85154SOL    HW173454  13.955  13.099   9.511 -1.2084  0.9898  0.0626
85154SOL    HW273455  14.030  13.195   9.421  0.5810 -0.1185  0.3208
85155SOL     OW73456   7.133   5.730   2.996 -0.3719  0.1657 -0.2144
85155SOL    HW173457   7.157   5.723   3.088  0.1619 -0.7921 -0.4084
85155SOL    HW273458   7.154   5.820   2.972 -1.6317  0.7845  0.8910
85156SOL     OW73459   5.084   7.793   8.802 -0.1234 -0.1880  0.1902
85156SOL    HW173460   5.032   7.871   8.785  1.0735  0.2151 -2.0136
85156SOL    HW273461   5.126   7.810   8.886 -0.6128  1.1216  0.1962
85157SOL     OW73462   2.110   4.795   1.060  0.5927 -0.3012  0.0425
85157SOL    HW173463   2.056   4.867   1.029 -0.1984 -0.9292 -0.0743
85157SOL    HW273464   2.198   4.815   1.029  1.4829  2.9788  3.7780
85158SOL     OW73465   1.505   8.930  11.923  0.1530  0.0278  0.4337
85158SOL    HW173466   1.411   8.925  11.937 -0.2581  2.2696 -1.0167
85158SOL    HW273467   1.543   8.918  12.010 -1.4268 -1.1211  1.0127
85159SOL     OW73468   8.460   9.638  13.069 -0.2237 -0.5994  0.2396
85159SOL    HW173469   8.541   9.627  13.119  0.4094 -0.9164 -0.8077
85159SOL    HW273470   8.489   9.639  12.978 -1.3990 -0.5884 -0.1475
85160SOL     OW73471  12.710   6.750   2.430  0.1050  0.2412  0.2703
85160SOL    HW173472  12.643   6.776   2.493  0.0267 -0.1745  0.3643
85160SOL    HW273473  12.792   6.752   2.479 -0.2322 -2.5389  1.1613
85161SOL     OW73474   1.675  13.250   4.900 -0.0539  0.0738 -0.8592
85161SOL    HW173475   1.624  13.205   4.833  1.3525 -1.1216 -1.1934
85161SOL    HW273476   1.762  13.260   4.861  0.8328 -0.7353  0.7821
85162SOL     OW73477   3.385   7.068  10.695  0.0702  0.2260  0.1257
85162SOL    HW173478   3.414   7.118  10.771 -0.7497  1.8255 -0.5665
85162SOL    HW273479   3.463   7.019  10.667  1.0855  1.5961  0.4628
85163SOL     OW73480   9.180   9.376   3.878 -0.4582  0.0766  0.4015
85163SOL    HW173481   9.184   9.465   3.842  0.2314 -0.0459  0.1593
85163SOL    HW273482   9.148   9.323   3.805  0.2417 -0.0548  0.1830
85164SOL     OW73483   5.603   8.878   0.008  0.1244 -0.5167 -0.4060
85164SOL    HW173484   5.567   8.801  -0.036  0.6354 -0.3898 -1.0765
85164SOL    HW273485   5.695   8.879  -0.019  0.3756 -0.2512  0.4265
85165SOL     OW73486   7.859   1.713   6.881  0.3333  0.0077 -0.4172
85165SOL    HW173487   7.858   1.803   6.914  3.0359 -0.2998  0.7587
85165SOL    HW273488   7.936   1.709   6.825  0.5035 -1.6777 -0.1188
85166SOL     OW73489   5.302  11.738   8.560  0.9152  0.1951 -0.0948
85166SOL    HW173490   5.330  11.770   8.474  2.5653 -0.8486  0.0063
85166SOL    HW273491   5.254  11.810   8.599  1.9002  1.4192 -1.0780
85167SOL     OW73492  12.239  11.163  10.409 -0.1416 -0.4077  0.4664
85167SOL    HW173493  12.196  11.214  10.477  2.6343  1.5078  0.9489
85167SOL    HW273494  12.242  11.073  10.443 -2.9868 -0.4960  0.6756
85168SOL     OW73495   1.437  10.357   5.953  0.5166  0.3580 -0.1696
85168SOL    HW173496   1.526  10.361   5.986 -0.3662  0.3946  2.4486
85168SOL    HW273497   1.419  10.446   5.921  0.9812  0.7341  0.5854
85169SOL     OW73498  12.869   2.442  11.430  0.2274 -0.2112  0.0997
85169SOL    HW173499  12.867   2.370  11.493 -0.5411  1.6262  2.3454
85169SOL    HW273500  12.786   2.488  11.445  0.8936  1.4003 -0.9110
85170SOL     OW73501  10.648   2.194   5.115  0.2545  0.4920  0.2633
85170SOL    HW173502  10.661   2.189   5.020 -1.8272 -1.8785  0.0058
85170SOL    HW273503  10.559   2.228   5.125  0.1958  0.0436  1.3589
85171SOL     OW73504   0.734   7.162  11.527  0.5256 -0.2263  0.0845
85171SOL    HW173505   0.821   7.197  11.545 -0.6887  3.7292 -0.7083
85171SOL    HW273506   0.701   7.134  11.612  1.2340  1.8502  1.1046
85172SOL     OW73507   6.210   6.101   8.854  0.1058  0.9889  0.3315
85172SOL    HW173508   6.148   6.139   8.792  0.5859  0.8483 -0.2488
85172SOL    HW273509   6.159   6.035   8.902 -0.4976  1.7134  0.7204
85173SOL     OW73510   9.148  12.393   9.245  0.0156 -0.1115 -0.0840
85173SOL    HW173511   9.174  12.363   9.332 -0.8757 -1.4139 -0.2365
85173SOL    HW273512   9.053  12.400   9.250  0.1429  3.0909  0.0120
85174SOL     OW73513   7.408   3.337   0.300 -0.2811  0.3724  0.3625
85174SOL    HW173514   7.500   3.364   0.310 -0.4070  0.7779  0.4091
85174SOL    HW273515   7.361   3.417   0.281 -0.3310 -0.0939 -1.7013
85175SOL     OW73516   6.275   6.781   7.864  0.7148 -0.2259  0.0463
85175SOL    HW173517   6.299   6.852   7.804  0.7928 -0.4864 -0.2347
85175SOL    HW273518   6.198   6.813   7.910 -1.5123 -1.3457 -2.6368
85176SOL     OW73519   3.308  11.536  12.415 -0.1799  0.0830 -0.2242
85176SOL    HW173520   3.267  11.460  12.374 -0.1043 -0.3407  0.4796
85176SOL    HW273521   3.249  11.609  12.394 -0.2110 -0.1440 -0.9655
85177SOL     OW73522   5.897   9.167   6.877 -0.6966  0.1160 -0.2233
85177SOL    HW173523   5.919   9.216   6.797 -0.1924  1.9406  0.9619
85177SOL    HW273524   5.973   9.111   6.892 -0.2747  0.6203 -0.4222
85178SOL     OW73525  11.304  12.989   8.884  0.3200  0.3045  0.4409
85178SOL    HW173526  11.288  13.027   8.798  0.9092 -0.7467 -0.1476
85178SOL    HW273527  11.385  13.030   8.913 -0.5935  1.7080  1.1369
85179SOL     OW73528   6.107   8.360  12.879  0.0898 -0.0359 -0.0872
85179SOL    HW173529   6.153   8.309  12.811  0.6262 -0.3927  0.5330
85179SOL    HW273530   6.177   8.409  12.923 -0.2092 -0.0729  0.4320
85180SOL     OW73531  12.888   5.369   7.766  0.2171 -0.5696  0.3429
85180SOL    HW173532  12.850   5.288   7.732 -1.0894 -0.1586  0.7883
85180SOL    HW273533  12.948   5.340   7.835 -0.7469 -1.1194  0.9633
85181SOL     OW73534   6.144   4.887   5.996  0.0805 -0.5142  0.2824
85181SOL    HW173535   6.120   4.904   6.087 -1.0641 -0.8839  0.0693
85181SOL    HW273536   6.172   4.796   5.995  0.4304 -0.4082  0.3260
85182SOL     OW73537   1.697   6.520   1.553 -0.3620  0.1761 -0.2759
85182SOL    HW173538   1.734   6.551   1.471 -0.6653 -2.1092 -1.3549
85182SOL    HW273539   1.606   6.548   1.551 -1.1868 -2.3351 -2.1905
85183SOL     OW73540  11.466   9.828   4.203  0.3505  0.2875 -0.1307
85183SOL    HW173541  11.559   9.829   4.178  0.1625  0.1682 -0.8426
85183SOL    HW273542  11.468   9.827   4.299  1.0958 -0.4530 -0.1366
85184SOL     OW73543  11.019   4.333  11.445  0.3335  0.0884  0.5643
85184SOL    HW173544  10.970   4.312  11.365  0.4979 -0.9633  0.7184
85184SOL    HW273545  10.951   4.347  11.511  0.1528 -2.5299  1.0680
85185SOL     OW73546   6.775   4.832   8.925 -0.1178 -0.2174  0.1469
85185SOL    HW173547   6.775   4.779   8.845 -0.4633  0.1397 -0.0958
85185SOL    HW273548   6.683   4.848   8.943 -0.0225  0.1838  0.2939
85186SOL     OW73549   9.768   3.704  12.135  0.1686  0.1108 -0.5073
85186SOL    HW173550   9.763   3.687  12.040 -1.7813 -0.7845 -0.3016
85186SOL    HW273551   9.712   3.780  12.149  0.4144  0.2120 -0.0618
85187SOL     OW73552   0.823  10.229   4.798  0.4645 -0.3337 -0.6935
85187SOL    HW173553   0.773  10.166   4.745  0.9924 -3.6732  2.3904
85187SOL    HW273554   0.756  10.286   4.835 -0.3197 -0.5245 -1.7576
85188SOL     OW73555  10.651   3.699   0.667  0.2426  0.5504  0.2558
85188SOL    HW173556  10.612   3.713   0.581  1.7521 -0.0041 -0.5714
85188SOL    HW273557  10.615   3.768   0.722 -1.8357  0.0602 -0.4312
85189SOL     OW73558   0.834  10.539   2.712  0.1545 -0.2734 -0.4978
85189SOL    HW173559   0.842  10.444   2.705  1.4643 -0.2717  0.6187
85189SOL    HW273560   0.746  10.558   2.679 -1.4849 -2.2551  2.3237
85190SOL     OW73561   1.057   0.274   9.176 -0.0760 -0.0706  0.0283
85190SOL    HW173562   0.976   0.316   9.203 -0.2627  0.5212 -1.3449
85190SOL    HW273563   1.112   0.274   9.254 -1.5791 -0.9947  1.1577
85191SOL     OW73564  13.875   3.678   6.571  0.3159 -0.0407 -0.4987
85191SOL    HW173565  13.965   3.682   6.539  0.0908  0.6165 -1.0589
85191SOL    HW273566  13.870   3.595   6.619  1.6491  0.6052  0.8526
85192SOL     OW73567   1.880   1.228   0.141 -0.3991  0.0800 -0.3864
85192SOL    HW173568   1.838   1.311   0.122  0.5781  0.7822  0.4327
85192SOL    HW273569   1.852   1.170   0.070  0.7843  1.7755 -2.3458
85193SOL     OW73570   3.844   9.008   1.010 -0.9512  0.3275  0.7877
85193SOL    HW173571   3.820   8.973   0.924 -2.2734  0.1986  1.1946
85193SOL    HW273572   3.850   9.103   0.996  0.3145  0.1965  0.2362
85194SOL     OW73573   7.476  12.765   0.698  0.2777  0.1218  0.0103
85194SOL    HW173574   7.452  12.800   0.612 -0.6082 -1.3499 -0.3790
85194SOL    HW273575   7.571  12.775   0.703  0.5545 -1.1317 -1.8062
85195SOL     OW73576   1.832   7.424   9.081  0.4067 -0.1366  0.2022
85195SOL    HW173577   1.808   7.510   9.115 -0.1328 -0.3615  0.4008
85195SOL    HW273578   1.901   7.442   9.017  0.6537  0.3912  0.6133
85196SOL     OW73579   6.253   3.762   7.819  0.5518  0.2234  0.3816
85196SOL    HW173580   6.331   3.739   7.869  2.1629  1.4184 -1.4363
85196SOL    HW273581   6.261   3.856   7.803 -0.6296  0.1454 -0.8670
85197SOL     OW73582   7.372   1.929   9.290  0.0811  0.3913 -0.4818
85197SOL    HW173583   7.433   1.964   9.355  0.3734  1.3574 -1.2416
85197SOL    HW273584   7.305   1.883   9.341  0.4136  0.9566  0.4844
85198SOL     OW73585  10.988   4.695  12.651 -0.1259  0.0971  0.9141
85198SOL    HW173586  11.001   4.648  12.569  0.1984  0.5716  0.6817
85198SOL    HW273587  11.030   4.641  12.718 -1.1375 -0.7096  0.9046
85199SOL     OW73588   1.219  12.419   9.809 -0.0839 -0.0705 -0.2002
85199SOL    HW173589   1.255  12.507   9.812 -0.3999  0.1740 -2.0812
85199SOL    HW273590   1.125  12.431   9.824  0.0706 -0.2703  0.9802
85200SOL     OW73591  14.083   4.787   6.171  0.6083 -0.1698 -0.5372
85200SOL    HW173592  14.018   4.738   6.120 -1.9305  2.0893  0.2851
85200SOL    HW273593  14.106   4.728   6.243  0.2064 -1.3711 -1.3603
85201SOL     OW73594  12.825   1.614   2.005  0.1456 -0.0795  0.5858
85201SOL    HW173595  12.797   1.706   2.003 -0.8379 -0.3568  1.0640
85201SOL    HW273596  12.917   1.617   1.978 -0.1491  0.9312 -0.4115
85202SOL     OW73597  10.071   7.272   1.268  0.4036  0.3453  0.0230
85202SOL    HW173598  10.117   7.189   1.278  0.0664 -0.1138 -1.7662
85202SOL    HW273599  10.138   7.339   1.286  0.5347 -0.2679  2.0296
85203SOL     OW73600   7.948   9.158   1.176  0.4156  0.4789  0.2292
85203SOL    HW173601   7.930   9.116   1.092  0.6235 -0.9626  0.8690
85203SOL    HW273602   7.864   9.195   1.204  0.2108  0.4298 -0.3168
85204SOL     OW73603  12.753   3.955   0.068  0.4341 -0.0915  0.1882
85204SOL    HW173604  12.847   3.963   0.087  0.5992  0.7356 -0.8818
85204SOL    HW273605  12.720   3.896   0.136  1.6104  0.0939  0.9545
85205SOL     OW73606   2.166  12.808   2.961  0.3352  0.6600  0.4410
85205SOL    HW173607   2.142  12.891   2.920 -1.4716  0.1247  0.3253
85205SOL    HW273608   2.241  12.777   2.910  1.1034  2.2479  0.5605
85206SOL     OW73609   1.012   0.613   2.602  0.1084  0.0463  0.0355
85206SOL    HW173610   0.997   0.640   2.512 -1.2648 -0.0567  0.2112
85206SOL    HW273611   0.961   0.675   2.655 -1.2042 -1.4007  0.5629
85207SOL     OW73612   4.870   5.970   2.165  0.6611 -0.2497 -0.6241
85207SOL    HW173613   4.888   5.878   2.184  0.0798 -0.1908  0.3031
85207SOL    HW273614   4.931   6.019   2.220  1.0650 -0.0797 -1.2201
85208SOL     OW73615  10.145   2.472   4.170  0.2157 -0.3120  0.0348
85208SOL    HW173616  10.209   2.403   4.157 -0.2265 -1.2656  2.3684
85208SOL    HW273617  10.158   2.500   4.261 -1.6045  0.5584  0.0755
85209SOL     OW73618   4.848   7.601  13.749  0.0342 -0.4275 -0.1404
85209SOL    HW173619   4.792   7.603  13.672  0.3855 -0.0753 -0.3904
85209SOL    HW273620   4.875   7.692  13.762  1.3549 -0.7225 -0.6152
85210SOL     OW73621  11.193   4.743   1.264  0.1937  1.2837  0.1924
85210SOL    HW173622  11.237   4.811   1.315  0.5248 -0.0121  1.7389
85210SOL    HW273623  11.163   4.680   1.330  2.5508 -1.6294 -1.2820
85211SOL     OW73624   5.068   4.043   9.048  0.2940  0.3206 -0.1238
85211SOL    HW173625   5.141   4.104   9.055 -0.0115  0.5692  1.2988
85211SOL    HW273626   5.035   4.035   9.138 -0.6432 -0.7423 -0.5377
85212SOL     OW73627   2.266   4.721   2.101 -0.4513  0.1821 -0.0588
85212SOL    HW173628   2.234   4.637   2.067 -0.3931  0.0671  0.1689
85212SOL    HW273629   2.355   4.729   2.067 -0.4504  0.1416 -0.0656
85213SOL     OW73630   0.132  13.165  13.480  0.7452 -0.9890  0.5864
85213SOL    HW173631   0.077  13.214  13.541  0.8899 -0.3539  0.2132
85213SOL    HW273632   0.216  13.158  13.524  0.0644 -3.0772  1.7332
85214SOL     OW73633   6.585  12.100   8.322 -1.0405  0.2366  0.6083
85214SOL    HW173634   6.548  12.189   8.321 -1.9559 -0.1282  0.9699
85214SOL    HW273635   6.630  12.093   8.238 -3.0997  0.1893 -0.5709
85215SOL     OW73636   7.538   3.842  11.398  0.4787  0.0377  0.2426
85215SOL    HW173637   7.599   3.909  11.367 -1.3321  1.9529  0.5152
85215SOL    HW273638   7.592   3.780  11.447  2.4612  0.4369 -1.3180
85216SOL     OW73639   0.301  11.170   8.340 -1.0818 -0.2164  0.2742
85216SOL    HW173640   0.272  11.192   8.252 -2.6578  0.1792  0.8503
85216SOL    HW273641   0.233  11.206   8.397 -0.6631 -1.4313  1.5950
85217SOL     OW73642  11.567   3.839   8.987  0.2679 -0.2151  0.1806
85217SOL    HW173643  11.570   3.750   8.953 -0.2223 -1.7019  3.6908
85217SOL    HW273644  11.479   3.848   9.023  0.7627  1.2086  1.0928
85218SOL     OW73645   9.955   5.649  12.258 -0.0938 -0.1473 -0.4725
85218SOL    HW173646   9.962   5.693  12.343 -0.7713 -0.8792 -0.0273
85218SOL    HW273647  10.023   5.690  12.205 -0.4196  1.1487  0.0517
85219SOL     OW73648  10.882   6.440  12.608 -0.3669 -0.2442 -0.2792
85219SOL    HW173649  10.901   6.368  12.669  0.9392  0.3092 -0.0046
85219SOL    HW273650  10.935   6.421  12.531  0.4386  0.6966  0.0177
85220SOL     OW73651   3.215  13.688   8.203  0.0958 -0.1310 -0.1843
85220SOL    HW173652   3.167  13.611   8.172  0.2320 -0.3438  0.1387
85220SOL    HW273653   3.258  13.659   8.283  0.0281  0.3235  0.0197
85221SOL     OW73654   0.872   8.441  12.981 -0.3386  0.1806 -0.2168
85221SOL    HW173655   0.784   8.409  12.999 -0.7098  1.1936 -0.1611
85221SOL    HW273656   0.904   8.474  13.065  0.0041  0.0330 -0.2853
85222SOL     OW73657   9.656  12.190  13.299  0.0874 -0.0361 -0.4284
85222SOL    HW173658   9.611  12.155  13.222  2.1615  2.3294 -2.8740
85222SOL    HW273659   9.620  12.278  13.310  3.0122  1.4559 -1.7135
85223SOL     OW73660   7.485   0.974   4.921 -0.5209  0.1222 -0.4452
85223SOL    HW173661   7.506   0.883   4.942  1.5720  0.8779  1.0594
85223SOL    HW273662   7.520   1.025   4.994 -2.9617  2.0704 -0.4870
85224SOL     OW73663  12.334  11.171   9.806  0.2120  0.2020  0.5054
85224SOL    HW173664  12.316  11.083   9.839 -0.5226  0.2338  0.2177
85224SOL    HW273665  12.283  11.229   9.863 -3.0733  0.0984 -2.0264
85225SOL     OW73666   2.015   1.886   9.968 -0.1420  0.2567 -0.0168
85225SOL    HW173667   1.960   1.948  10.016  0.6040  0.7951  0.1644
85225SOL    HW273668   2.082   1.941   9.927  0.8640 -0.4799  0.5986
85226SOL     OW73669   2.184   8.400   1.375 -0.3923 -0.5772 -0.3700
85226SOL    HW173670   2.226   8.328   1.329  0.1750 -0.9895  0.7510
85226SOL    HW273671   2.108   8.422   1.322  0.2469 -1.0177 -1.4965
85227SOL     OW73672   2.010   3.765   9.774  0.0278  0.5051 -0.1151
85227SOL    HW173673   2.099   3.795   9.793 -0.9125  2.0720  2.2643
85227SOL    HW273674   2.006   3.676   9.810  0.3944  0.7482  0.5487
85228SOL     OW73675   1.731  11.815   2.376  1.0823  0.7746  0.6860
85228SOL    HW173676   1.661  11.751   2.362 -1.9145  3.6376  1.3291
85228SOL    HW273677   1.765  11.796   2.463  0.2376  0.0306  0.8611
85229SOL     OW73678   7.939   7.522  12.065  0.2899 -0.5592  0.5125
85229SOL    HW173679   7.878   7.448  12.066 -0.1327 -0.2547 -1.0001
85229SOL    HW273680   8.009   7.496  12.125 -1.0719 -1.1199  1.9276
85230SOL     OW73681   5.334   2.444  13.674  0.1323 -0.2725 -0.4843
85230SOL    HW173682   5.412   2.498  13.678  1.5319 -2.1724 -0.6082
85230SOL    HW273683   5.283   2.480  13.601  2.1779 -0.5750 -2.1351
85231SOL     OW73684  13.003   1.236   8.206 -0.1588  0.3115 -0.2148
85231SOL    HW173685  13.084   1.282   8.183  0.3680 -0.0360  0.8256
85231SOL    HW273686  13.031   1.144   8.216 -0.6349  0.2215  0.3416
85232SOL     OW73687  10.870   1.734  12.854 -0.2377 -0.2431 -0.5773
85232SOL    HW173688  10.840   1.741  12.763 -0.3479 -0.1322 -0.5322
85232SOL    HW273689  10.905   1.645  12.861  1.1972  0.2403 -1.1582
85233SOL     OW73690   9.896   4.585   1.247 -0.6812  0.4967 -0.0213
85233SOL    HW173691   9.942   4.614   1.168 -0.9620 -0.2920 -0.4965
85233SOL    HW273692   9.803   4.598   1.226 -0.7069  2.2813  1.0107
85234SOL     OW73693   2.058   4.216   9.821 -0.6084 -0.4344  0.1622
85234SOL    HW173694   2.038   4.309   9.831 -0.2929 -0.4460  1.0293
85234SOL    HW273695   2.027   4.193   9.734  0.1663  0.7047 -0.4297
85235SOL     OW73696   8.489   7.145   6.587  0.0110 -0.1371 -0.0876
85235SOL    HW173697   8.411   7.122   6.638 -1.9188  0.0194 -2.7773
85235SOL    HW273698   8.497   7.240   6.597 -0.8477  0.0098 -0.6684
85236SOL     OW73699   2.369  13.229   9.936  0.0776 -0.4793  0.1711
85236SOL    HW173700   2.415  13.267  10.011  0.6513 -1.5543  0.3931
85236SOL    HW273701   2.318  13.157   9.973 -1.7323  0.6188 -0.0978
85237SOL     OW73702   8.098  13.964  12.656  0.6120 -0.1028  0.6616
85237SOL    HW173703   8.171  14.027  12.660 -0.6784  1.4453  0.8431
85237SOL    HW273704   8.108  13.921  12.571  0.3510  1.8584 -0.4230
85238SOL     OW73705  10.139   5.185   5.681 -0.0705 -0.0479 -0.0428
85238SOL    HW173706  10.126   5.179   5.776  1.0030  1.2147  0.2031
85238SOL    HW273707  10.222   5.141   5.665 -0.7937 -1.2807 -0.5847
85239SOL     OW73708  12.501   6.416  12.256  0.1048  0.4656  0.1989
85239SOL    HW173709  12.468   6.497  12.215 -2.5651 -1.0487 -0.9028
85239SOL    HW273710  12.563   6.381  12.193  0.2410  0.9478  0.0561
85240SOL     OW73711   0.817   4.131  12.560  0.1409 -0.1168 -0.1253
85240SOL    HW173712   0.888   4.182  12.521 -0.0258  1.7755  1.8226
85240SOL    HW273713   0.771   4.194  12.616 -4.3436 -0.6571 -2.6959
85241SOL     OW73714   4.132   5.979   6.575 -0.1571  0.3048 -0.0749
85241SOL    HW173715   4.077   6.054   6.595 -1.7697 -0.7761 -0.2575
85241SOL    HW273716   4.191   5.972   6.650 -1.2173  0.6630  0.8193
85242SOL     OW73717   3.936   3.206   2.332 -0.1829 -0.0995 -0.1318
85242SOL    HW173718   4.024   3.244   2.338 -1.0199  1.8549  0.5829
85242SOL    HW273719   3.887   3.268   2.278 -1.6515 -0.0628  1.1937
85243SOL     OW73720   6.846   6.983  13.776  0.1261  0.0219 -0.0635
85243SOL    HW173721   6.936   6.984  13.809  1.2277 -0.2743 -2.8202
85243SOL    HW273722   6.810   6.901  13.810  0.7170  0.3427  1.4274
85244SOL     OW73723  10.487   5.818  13.142 -0.2918  0.5367  0.1236
85244SOL    HW173724  10.577   5.837  13.170  0.0953  1.9426 -1.8940
85244SOL    HW273725  10.432   5.863  13.206  0.2961 -1.5890  2.2964
85245SOL     OW73726  10.571   7.276  13.942  0.3662  0.2422 -0.0337
85245SOL    HW173727  10.534   7.248  13.858  2.4689 -1.7119 -0.3995
85245SOL    HW273728  10.526   7.359  13.962 -1.8167 -0.3873 -1.9328
85246SOL     OW73729   4.604   9.606  13.251 -0.3822  0.2082 -0.0786
85246SOL    HW173730   4.580   9.619  13.159  1.3216 -0.4113 -0.6466
85246SOL    HW273731   4.610   9.511  13.261  1.9269  0.2892 -0.0673
85247SOL     OW73732  10.126   1.959   2.663 -0.3918  0.1965  0.6979
85247SOL    HW173733  10.087   2.026   2.719  1.3873 -0.4616  2.8699
85247SOL    HW273734  10.112   1.877   2.711 -1.1757 -0.8098 -1.1650
85248SOL     OW73735   0.808   0.825  12.964  0.3351  0.8638  0.0768
85248SOL    HW173736   0.838   0.916  12.971  0.4506  0.8651 -0.3727
85248SOL    HW273737   0.715   0.832  12.943  0.7585  0.9287 -1.9796
85249SOL     OW73738   2.524  10.712  12.597  0.2787  0.2084 -0.8361
85249SOL    HW173739   2.527  10.638  12.535  0.1501  0.1101 -0.7257
85249SOL    HW273740   2.569  10.783  12.552 -1.0369  0.5784 -1.6403
85250SOL     OW73741  13.700   4.533   4.950  0.5759 -0.0250  0.2219
85250SOL    HW173742  13.631   4.497   5.005 -1.2946  2.9666  0.0720
85250SOL    HW273743  13.766   4.563   5.012  0.8463 -1.1157  0.4838
85251SOL     OW73744   0.375   4.295   6.076 -0.2705  0.4056 -0.0763
85251SOL    HW173745   0.366   4.241   6.155 -2.4932  0.1106 -0.4726
85251SOL    HW273746   0.349   4.383   6.103  0.6106  0.6887 -0.1071
85252SOL     OW73747   0.825  11.764   2.947  0.6532 -0.0811 -0.3271
85252SOL    HW173748   0.905  11.780   2.898  1.4466 -0.0734  0.9376
85252SOL    HW273749   0.852  11.762   3.039 -0.9041  0.7245  0.1944
85253SOL     OW73750  12.463   9.316   0.668  0.6967  0.0893  0.5333
85253SOL    HW173751  12.547   9.312   0.622  0.7461 -2.6198  0.6905
85253SOL    HW273752  12.476   9.262   0.746  0.1814  3.4253  3.1644
85254SOL     OW73753   6.339   2.794   9.970 -0.0313  0.2973 -0.2619
85254SOL    HW173754   6.376   2.736  10.036  1.6156  1.1540 -0.4013
85254SOL    HW273755   6.312   2.735   9.899 -0.4278 -0.4853  0.5205
85255SOL     OW73756   1.012   6.475   6.619  0.1003 -0.0459 -0.0210
85255SOL    HW173757   1.071   6.540   6.658 -0.1483  0.0787  0.1515
85255SOL    HW273758   0.990   6.511   6.533 -1.0971  0.7551  0.6048
85256SOL     OW73759   7.695   7.422   7.434  0.4160 -0.0418  0.0170
85256SOL    HW173760   7.746   7.461   7.504  0.3358 -1.5031  0.9233
85256SOL    HW273761   7.605   7.420   7.467  0.6655 -2.4729  0.7176
85257SOL     OW73762   8.811  13.660  12.702  0.4234  0.1494  1.2132
85257SOL    HW173763   8.898  13.680  12.737  1.0547 -1.4075  0.6012
85257SOL    HW273764   8.825  13.589  12.640 -1.0250  1.1332 -0.3605
85258SOL     OW73765   0.704   3.066  10.682 -0.1600  0.4285  0.6009
85258SOL    HW173766   0.778   3.084  10.739 -1.1134 -0.2121  2.1028
85258SOL    HW273767   0.629   3.057  10.742 -0.8051 -2.5998 -0.4932
85259SOL     OW73768   6.900   0.500  14.110  0.0127  0.0176  0.6607
85259SOL    HW173769   6.896   0.500  14.014 -0.3719 -1.3282  0.6591
85259SOL    HW273770   6.812   0.528  14.138  0.8950  3.2262  0.6811
85260SOL     OW73771  11.335   6.593  10.715 -0.3033 -0.1957 -0.3691
85260SOL    HW173772  11.250   6.608  10.756  0.2027 -0.3799  0.7829
85260SOL    HW273773  11.314   6.577  10.623 -1.4226  0.7427 -0.3042
85261SOL     OW73774  11.881   5.297  13.812 -0.0745  0.4718  0.3656
85261SOL    HW173775  11.942   5.236  13.852  0.5693 -0.6125 -2.0834
85261SOL    HW273776  11.891   5.378  13.863  0.7795 -0.7220  2.2011
85262SOL     OW73777   5.909  10.331   2.400 -0.3127  0.0856  0.2490
85262SOL    HW173778   5.892  10.350   2.492 -1.6828 -0.8515  0.2169
85262SOL    HW273779   6.000  10.358   2.386 -0.2989  0.8683  1.6919
85263SOL     OW73780   1.540  12.061   8.454  0.1842  0.1172 -0.3088
85263SOL    HW173781   1.476  12.072   8.383 -1.2269  0.5265  0.9483
85263SOL    HW273782   1.560  12.151   8.482 -0.4206 -0.0419  0.7306
85264SOL     OW73783   9.547   9.726  11.300  0.1574  0.6369 -0.2077
85264SOL    HW173784   9.517   9.796  11.241 -0.1703  0.9032  0.2733
85264SOL    HW273785   9.492   9.651  11.279  0.8961  0.3293 -1.1394
85265SOL     OW73786  12.194  13.591  13.751 -0.2818 -0.5346 -0.0205
85265SOL    HW173787  12.268  13.636  13.792  0.3986 -0.3954 -1.3361
85265SOL    HW273788  12.156  13.538  13.821  0.3045  0.3268  0.9828
85266SOL     OW73789  11.650   2.175   5.666 -0.1392 -0.3975 -0.2211
85266SOL    HW173790  11.690   2.194   5.581 -0.9550  0.9741 -0.3392
85266SOL    HW273791  11.599   2.095   5.652  0.2177 -0.5199 -0.8521
85267SOL     OW73792   5.586   0.347   6.652  0.2917 -0.0395  0.0507
85267SOL    HW173793   5.584   0.258   6.688  0.5709  0.5915  1.7184
85267SOL    HW273794   5.495   0.365   6.627  0.0033 -0.3628  0.8396
85268SOL     OW73795  10.101   9.612  11.416 -0.2792 -0.1024 -0.3684
85268SOL    HW173796  10.123   9.666  11.341  1.5540 -2.1068 -1.3884
85268SOL    HW273797  10.182   9.609  11.468 -0.3730 -1.6545 -0.2614
85269SOL     OW73798   4.501   4.424  12.920  0.1159  0.4624 -0.1521
85269SOL    HW173799   4.517   4.508  12.877  1.3897 -0.3408 -1.3263
85269SOL    HW273800   4.552   4.361  12.869 -1.5129 -1.1862  0.1429
85270SOL     OW73801   1.330  12.030   4.572 -0.7350 -0.2560  0.0937
85270SOL    HW173802   1.339  11.949   4.622 -1.9786  0.9929  2.5205
85270SOL    HW273803   1.256  12.013   4.513 -0.6272 -1.0546  0.1732
85271SOL     OW73804   4.298  12.407   6.194  0.1995  0.2125  0.3658
85271SOL    HW173805   4.304  12.497   6.226  0.1423  0.7565 -1.0965
85271SOL    HW273806   4.377  12.365   6.229  0.6772  1.0651  0.3616
85272SOL     OW73807   2.229   6.237   9.872  0.0363 -0.2626 -0.6580
85272SOL    HW173808   2.161   6.299   9.847 -1.4567 -0.8985  1.5362
85272SOL    HW273809   2.182   6.156   9.892  1.7150 -1.5032 -1.4300
85273SOL     OW73810  12.764   5.631   4.671 -0.0049  0.2608 -0.1345
85273SOL    HW173811  12.692   5.576   4.703 -0.2077  1.0574  0.8079
85273SOL    HW273812  12.793   5.680   4.747  1.6654 -0.1564 -0.4724
85274SOL     OW73813   6.745   3.705  13.202 -0.0293 -0.1166 -0.1033
85274SOL    HW173814   6.723   3.653  13.125  1.1419  1.9996 -1.9876
85274SOL    HW273815   6.718   3.651  13.277 -1.1733 -2.2683 -1.9679
85275SOL     OW73816  13.125   9.425  10.448  1.1283  0.4613 -0.0457
85275SOL    HW173817  13.127   9.335  10.480 -1.7239 -0.1591 -1.2852
85275SOL    HW273818  13.187   9.472  10.504  1.8935 -2.0245  1.3407
85276SOL     OW73819  11.625   1.165   4.940 -0.1418  0.5434  0.1804
85276SOL    HW173820  11.697   1.107   4.964 -0.9781 -0.8695 -0.5834
85276SOL    HW273821  11.546   1.114   4.956 -0.9135  1.4534 -0.5391
85277SOL     OW73822  13.181   7.914  12.184 -0.7670 -0.2664 -0.2836
85277SOL    HW173823  13.093   7.913  12.223 -0.7090 -0.9842 -0.1550
85277SOL    HW273824  13.185   7.834  12.132  0.7706 -1.7243  1.9086
85278SOL     OW73825   4.815   3.925  10.282  0.8140  0.0341 -0.0555
85278SOL    HW173826   4.779   3.962  10.363 -0.2629 -0.7590 -0.1546
85278SOL    HW273827   4.899   3.889  10.308 -0.2245 -1.7034  1.1162
85279SOL     OW73828  10.462  13.982   5.628  0.2748 -0.3895 -0.0333
85279SOL    HW173829  10.429  14.042   5.695  0.7824 -0.4990  0.3241
85279SOL    HW273830  10.418  13.899   5.645 -1.0179  0.0739 -1.0120
85280SOL     OW73831  11.958   9.672   5.563 -0.1078  0.1917 -0.3803
85280SOL    HW173832  11.886   9.723   5.525 -0.2272  0.2942 -0.0220
85280SOL    HW273833  11.952   9.587   5.520 -0.7794  0.0213  0.0422
85281SOL     OW73834   5.496   6.171   8.757  0.2776 -0.2967  0.2398
85281SOL    HW173835   5.404   6.147   8.753  0.1383  0.0217  1.2257
85281SOL    HW273836   5.496   6.266   8.770  0.7373 -0.3157  0.4164
85282SOL     OW73837   9.007   6.568   9.206  0.8934  0.3727 -0.3210
85282SOL    HW173838   8.966   6.650   9.232  2.7594  1.0941  0.4726
85282SOL    HW273839   8.989   6.561   9.112 -4.5429 -1.4580  0.4914
85283SOL     OW73840   9.848   7.099   5.698 -0.4140 -0.2497 -0.5013
85283SOL    HW173841   9.886   7.133   5.779 -0.8551 -0.9004 -0.0112
85283SOL    HW273842   9.757   7.080   5.721 -0.3457 -1.1507 -0.9282
85284SOL     OW73843   1.930   5.990   6.719  0.0424 -0.5772  0.0536
85284SOL    HW173844   1.860   5.983   6.654 -0.0861  0.6549  0.0360
85284SOL    HW273845   2.009   6.003   6.669  0.3388 -2.0865  0.0700
85285SOL     OW73846   9.796   4.723  11.737  0.3798  0.2359  0.1220
85285SOL    HW173847   9.804   4.647  11.795 -1.5120 -0.5109 -0.5431
85285SOL    HW273848   9.885   4.736  11.703  1.1704 -0.3487  1.8453
85286SOL     OW73849  13.094  12.908   0.423 -0.3758  0.4176  0.1163
85286SOL    HW173850  13.150  12.985   0.434  0.4313 -0.0547 -0.5657
85286SOL    HW273851  13.014  12.943   0.383 -0.1635  0.9627  0.1565
85287SOL     OW73852  11.067   1.074   1.650 -0.4366 -0.0236 -0.5047
85287SOL    HW173853  11.090   0.982   1.636 -1.4362 -0.1306 -1.6471
85287SOL    HW273854  11.128   1.122   1.593 -1.2391 -0.1313 -1.4797
85288SOL     OW73855   0.672   1.552   4.019 -0.0768  0.1450  0.1668
85288SOL    HW173856   0.758   1.520   3.993 -0.0894  0.8612 -0.8157
85288SOL    HW273857   0.647   1.612   3.949 -1.4532 -0.1853  0.3557
85289SOL     OW73858   3.103   8.903  13.536  0.4051  0.1596 -0.5437
85289SOL    HW173859   3.085   8.962  13.463  0.1669  0.7731 -0.0056
85289SOL    HW273860   3.052   8.939  13.609  0.7576 -0.3470 -0.0333
85290SOL     OW73861   9.953   8.424   3.713  0.2940 -0.1029  0.5554
85290SOL    HW173862   9.978   8.516   3.699  1.6274 -0.4887  0.1760
85290SOL    HW273863   9.861   8.420   3.689  0.5474  0.8868 -0.7244
85291SOL     OW73864   1.030   3.224  12.688 -0.5431  0.0368  0.6606
85291SOL    HW173865   0.948   3.267  12.662  0.4615  3.0838  2.0570
85291SOL    HW273866   1.086   3.230  12.610 -0.6553  0.6802  0.6226
85292SOL     OW73867   0.470   4.801   2.986  0.0952 -0.5188  0.6064
85292SOL    HW173868   0.428   4.878   2.948  0.9645 -0.1864  0.2874
85292SOL    HW273869   0.467   4.736   2.916  1.0341 -0.1479  0.2007
85293SOL     OW73870   3.792   2.009  12.257 -0.1800  0.8520 -0.0483
85293SOL    HW173871   3.761   2.097  12.276  2.5176  1.4857  2.0637
85293SOL    HW273872   3.859   1.992  12.323 -0.6474 -2.8677 -0.2964
85294SOL     OW73873  13.600  12.422  12.701  0.2234 -0.1588 -0.2585
85294SOL    HW173874  13.597  12.411  12.606 -1.8313 -1.4135 -0.1076
85294SOL    HW273875  13.534  12.361  12.734 -0.6817  1.7960  1.8266
85295SOL     OW73876   4.560  12.268  14.007 -0.7225  1.1385 -0.6896
85295SOL    HW173877   4.470  12.245  13.985 -0.4892 -1.6697  0.8672
85295SOL    HW273878   4.605  12.270  13.923 -1.5440 -0.9219 -1.2316
85296SOL     OW73879   5.804   1.688   8.932 -0.3778  0.5875 -0.7798
85296SOL    HW173880   5.888   1.644   8.919  0.2977  1.4217  0.6324
85296SOL    HW273881   5.739   1.622   8.908  0.6482 -0.4547 -0.7853
85297SOL     OW73882   9.420   3.756   1.457 -0.9862 -0.4222 -0.0452
85297SOL    HW173883   9.417   3.706   1.539  0.5112 -1.6733 -0.6860
85297SOL    HW273884   9.407   3.690   1.389  0.7372  0.0726 -0.9029
85298SOL     OW73885   9.982  12.859  11.432 -0.2314  0.8434  0.0337
85298SOL    HW173886   9.912  12.923  11.419 -0.7388  0.5649  1.2908
85298SOL    HW273887   9.951  12.781  11.387 -1.1656  0.4406  1.3218
85299SOL     OW73888   4.529   9.314   2.049  0.9096  0.2421  0.1930
85299SOL    HW173889   4.436   9.326   2.031  0.5475 -0.6409  1.3285
85299SOL    HW273890   4.541   9.350   2.137  1.8679  1.2694 -0.3344
85300SOL     OW73891   3.447  10.269   5.633  0.3536  0.4008 -0.5617
85300SOL    HW173892   3.437  10.323   5.712 -0.7281 -0.3576 -0.1479
85300SOL    HW273893   3.483  10.187   5.665 -0.8835 -0.2216 -0.7113
85301SOL     OW73894   1.963   8.693   0.842  0.2140 -0.8653  0.1624
85301SOL    HW173895   1.897   8.752   0.806 -0.2632 -1.3811  0.1853
85301SOL    HW273896   2.036   8.751   0.865  0.6028 -0.5243 -1.7492
85302SOL     OW73897   6.217   2.886   9.162  0.3746  0.1491  0.1177
85302SOL    HW173898   6.250   2.934   9.238  0.0659  2.6050 -1.2004
85302SOL    HW273899   6.125   2.870   9.183  0.8610 -1.3945  1.2546
85303SOL     OW73900   8.112  11.829   8.578  0.4734 -0.3940  0.4544
85303SOL    HW173901   8.089  11.816   8.486 -0.2838  2.2192  0.1833
85303SOL    HW273902   8.067  11.910   8.602  0.2995 -1.2301  3.2786
85304SOL     OW73903   3.407  12.045   1.185 -0.3009  0.5688  0.1831
85304SOL    HW173904   3.325  12.061   1.138 -0.7405  0.3323  0.8469
85304SOL    HW273905   3.469  12.021   1.117 -0.9455  0.1584 -0.2732
85305SOL     OW73906   0.640   5.953   5.700  0.0036 -0.5670  0.4077
85305SOL    HW173907   0.681   5.970   5.785  1.0809  0.1523 -0.2308
85305SOL    HW273908   0.549   5.931   5.721  0.0143  0.4748  1.6936
85306SOL     OW73909   1.722  10.604  10.511  0.0623 -0.7451  0.3126
85306SOL    HW173910   1.727  10.546  10.587 -0.9173 -2.6235 -0.9606
85306SOL    HW273911   1.799  10.583  10.459 -0.2214 -0.8270 -0.0847
85307SOL     OW73912   0.551  12.094  13.855  0.2900  0.0238 -0.5094
85307SOL    HW173913   0.595  12.176  13.879 -0.5683 -0.3207  2.7718
85307SOL    HW273914   0.466  12.099  13.898  1.2017 -3.6049  2.2188
85308SOL     OW73915   0.108  10.361   9.994 -0.0394 -0.3091 -0.1352
85308SOL    HW173916   0.022  10.319   9.999  0.1224 -0.9625 -1.8946
85308SOL    HW273917   0.089  10.452   9.972 -0.2917 -0.5096 -0.7772
85309SOL     OW73918  10.939   7.871  10.004 -0.2846  0.0863 -0.2436
85309SOL    HW173919  10.899   7.808   9.944  0.4245 -1.8023  1.1613
85309SOL    HW273920  10.972   7.940   9.947 -1.4659 -0.5690 -1.8226
85310SOL     OW73921   3.398   8.557  12.798 -0.6290  0.3181 -0.3633
85310SOL    HW173922   3.348   8.482  12.832  0.6038 -0.0764  0.6273
85310SOL    HW273923   3.366   8.567  12.708 -1.0612 -1.1884 -0.4047
85311SOL     OW73924   2.048   0.746  11.982 -0.2091  1.0174  0.0996
85311SOL    HW173925   2.083   0.705  12.061  0.2240  1.5116  0.1718
85311SOL    HW273926   1.954   0.727  11.984  0.1116 -0.8700 -0.4135
85312SOL     OW73927  13.233   9.689   3.118 -0.5476 -0.3550 -0.4239
85312SOL    HW173928  13.239   9.594   3.107  0.4814 -0.2083 -1.1959
85312SOL    HW273929  13.232   9.724   3.029 -0.3605  0.3969 -0.1407
85313SOL     OW73930  11.702   9.004   1.663  0.3570  0.7039 -0.2093
85313SOL    HW173931  11.787   8.962   1.676  0.1978  0.8000  1.3338
85313SOL    HW273932  11.719   9.075   1.601  1.4109  0.7438  0.1076
85314SOL     OW73933   3.180  11.219   3.069 -0.1730 -0.2446 -0.4810
85314SOL    HW173934   3.205  11.307   3.040  0.1253  0.3905  1.5729
85314SOL    HW273935   3.251  11.163   3.036  0.5489  0.5496 -0.3289
85315SOL     OW73936  10.934  13.439   7.494 -0.4515 -0.3142  0.1867
85315SOL    HW173937  10.977  13.507   7.545 -0.8987  0.0400  0.0962
85315SOL    HW273938  10.953  13.358   7.542  2.0183 -0.4853 -0.9175
85316SOL     OW73939   0.101   3.587   3.102  0.8782  0.6574  0.3406
85316SOL    HW173940   0.197   3.583   3.105  0.8576  0.1011  0.3506
85316SOL    HW273941   0.072   3.521   3.165  0.4825 -0.2810 -0.8028
85317SOL     OW73942   2.802   6.082   6.752 -0.2040 -0.0510  0.5020
85317SOL    HW173943   2.837   5.996   6.725  0.8029  0.2858  0.6931
85317SOL    HW273944   2.840   6.097   6.839 -1.0633  0.2120  0.8401
85318SOL     OW73945   1.999   7.521   8.879  0.2711  0.6567 -0.5430
85318SOL    HW173946   1.943   7.483   8.811  1.1331 -1.3749 -0.2141
85318SOL    HW273947   2.045   7.593   8.836 -1.4501  1.3964 -1.2199
85319SOL     OW73948   9.655  11.127   4.994 -0.0132 -0.3970 -0.2187
85319SOL    HW173949   9.629  11.036   5.007  0.5591 -0.2668  2.4944
85319SOL    HW273950   9.748  11.128   5.019  0.2402  0.7768 -1.1475
85320SOL     OW73951  10.575  14.139   0.781  0.7419  0.2112  0.2887
85320SOL    HW173952  10.634  14.094   0.721 -1.3282  0.3206 -1.9899
85320SOL    HW273953  10.535  14.209   0.728 -0.9143  0.5724  1.8874
85321SOL     OW73954  12.022   5.275   0.121  0.0282 -0.0014 -0.7945
85321SOL    HW173955  12.022   5.180   0.127  0.9573  0.0096 -0.3563
85321SOL    HW273956  11.955   5.304   0.183 -0.3975 -0.3652 -1.0774
85322SOL     OW73957   9.012   3.911   8.381 -0.3523 -0.2050 -0.1102
85322SOL    HW173958   9.086   3.889   8.438 -1.1201 -0.7274  0.7279
85322SOL    HW273959   9.043   3.890   8.293  0.8216  0.4953  0.1161
85323SOL     OW73960   8.351   8.513   3.031  0.3692 -0.6386 -0.1623
85323SOL    HW173961   8.304   8.468   2.960  0.0628 -1.7619  0.7265
85323SOL    HW273962   8.411   8.447   3.065  1.3688  0.2638 -0.1408
85324SOL     OW73963  11.395  11.433  13.518  0.6343  0.2947  1.2051
85324SOL    HW173964  11.331  11.425  13.448  2.3133  0.3488 -0.4297
85324SOL    HW273965  11.407  11.343  13.550  1.4295 -0.0947 -0.1105
85325SOL     OW73966   7.095   7.651   1.772 -0.5738  0.1445  0.2993
85325SOL    HW173967   7.032   7.590   1.734 -1.4832  0.1943  1.6641
85325SOL    HW273968   7.091   7.728   1.716 -0.0617 -0.6896 -0.9205
85326SOL     OW73969  11.244   0.047   0.568 -0.0942 -1.0782 -0.4953
85326SOL    HW173970  11.177   0.067   0.503 -0.3538  0.0851  0.1119
85326SOL    HW273971  11.198   0.001   0.638  0.3980 -3.4651 -1.6190
85327SOL     OW73972  13.904   9.710   3.052 -0.4374 -0.2506  0.2730
85327SOL    HW173973  13.866   9.768   3.118 -2.5191  0.5026 -1.4532
85327SOL    HW273974  13.978   9.669   3.096 -2.1284 -0.3706  3.3430
85328SOL     OW73975   3.094   4.383   7.818  0.3940 -0.1340  0.0624
85328SOL    HW173976   3.028   4.367   7.751 -0.1066 -1.1429  0.7675
85328SOL    HW273977   3.071   4.468   7.855 -0.1235 -0.1768 -0.1491
85329SOL     OW73978  14.110  10.811   8.719 -0.3257 -0.0308  0.0092
85329SOL    HW173979  14.190  10.862   8.729 -1.0846  1.4227 -0.8494
85329SOL    HW273980  14.047  10.874   8.683 -2.5385 -0.4402  2.7600
85330SOL     OW73981   9.051  11.746   2.806  0.4675 -0.8116  0.0188
85330SOL    HW173982   9.063  11.763   2.713 -1.9258 -0.0790 -0.2073
85330SOL    HW273983   9.063  11.831   2.848 -1.2625 -0.5303  0.0202
85331SOL     OW73984   8.966  13.169   5.098 -0.3365 -0.3104 -0.8992
85331SOL    HW173985   9.040  13.222   5.129 -0.3648 -1.1549  0.7593
85331SOL    HW273986   8.999  13.079   5.100 -1.0028 -0.5723 -1.4347
85332SOL     OW73987   2.629  11.396   6.500 -0.4039 -0.2979  0.1568
85332SOL    HW173988   2.669  11.328   6.446 -0.4553  1.1502 -1.7919
85332SOL    HW273989   2.602  11.350   6.579  2.1331 -1.9836  0.1771
85333SOL     OW73990   0.883  12.023   8.760 -0.3147 -0.2928 -0.2205
85333SOL    HW173991   0.959  12.024   8.702  0.8203  1.1478  1.2102
85333SOL    HW273992   0.826  12.091   8.726 -0.4780 -0.6490 -0.6694
85334SOL     OW73993   4.963   8.217   9.777 -0.3614 -0.2976 -0.0073
85334SOL    HW173994   4.888   8.265   9.742 -0.0608 -0.5264 -1.0096
85334SOL    HW273995   5.036   8.279   9.770 -0.1875 -0.5356 -0.2999
85335SOL     OW73996   7.355   9.052   7.131  0.3534  0.4156 -0.3766
85335SOL    HW173997   7.305   9.013   7.202  0.7755 -1.6720 -1.1560
85335SOL    HW273998   7.303   9.127   7.102  0.7501  2.1006  2.8617
85336SOL     OW73999   7.900  13.653  12.609 -0.5334  0.5366  0.5095
85336SOL    HW174000   7.813  13.692  12.607 -0.6092  0.3460 -0.3704
85336SOL    HW274001   7.927  13.650  12.517  0.6751  1.2127  0.8168
85337SOL     OW74002   9.202   9.781   1.147  0.3882  0.0429 -0.2563
85337SOL    HW174003   9.222   9.735   1.066 -0.1597 -2.4290  0.9082
85337SOL    HW274004   9.288   9.802   1.184  0.6396  1.3010 -1.4955
85338SOL     OW74005  10.346  13.465  10.068  0.0763 -0.0524 -0.3155
85338SOL    HW174006  10.338  13.398  10.135 -1.8177  0.0508 -0.3631
85338SOL    HW274007  10.411  13.431  10.007 -1.0967 -2.0629 -0.5480
85339SOL     OW74008   6.442   0.357   8.793 -0.9369 -0.2762 -0.4114
85339SOL    HW174009   6.474   0.437   8.835 -0.5759 -0.6195 -0.0200
85339SOL    HW274010   6.409   0.303   8.865 -1.5345 -0.3234 -0.7138
85340SOL     OW74011   2.443   2.088  14.139  0.1370  0.2882 -0.0500
85340SOL    HW174012   2.471   2.146  14.068 -0.6192 -0.0250 -0.6109
85340SOL    HW274013   2.523   2.042  14.164  0.7012  1.3935  0.2551
85341SOL     OW74014   6.440   6.897   8.701  0.1291 -0.7312  0.1748
85341SOL    HW174015   6.383   6.852   8.763  1.8763 -2.3956  0.6672
85341SOL    HW274016   6.521   6.845   8.699  1.1122  0.7040 -1.5717
85342SOL     OW74017  12.671   7.511   2.295 -0.6267 -0.2410 -0.1479
85342SOL    HW174018  12.588   7.509   2.246  0.6610  0.1073 -2.4589
85342SOL    HW274019  12.701   7.420   2.294  0.1697  0.0238 -1.4232
85343SOL     OW74020  10.659  12.192  10.633 -0.3375 -0.2275  0.3388
85343SOL    HW174021  10.728  12.189  10.699  0.2657 -0.8610 -0.3092
85343SOL    HW274022  10.613  12.109  10.643 -0.0124 -0.4866 -0.2781
85344SOL     OW74023   8.612   6.800  13.722 -0.2446 -0.4705  0.0637
85344SOL    HW174024   8.619   6.728  13.659 -0.2884 -0.8857  0.5266
85344SOL    HW274025   8.619   6.757  13.807 -2.4840 -0.2029  0.4218
85345SOL     OW74026   4.528   5.294   9.811 -0.4027 -0.2808  0.3867
85345SOL    HW174027   4.458   5.295   9.745  0.6855 -0.1078 -0.7866
85345SOL    HW274028   4.517   5.377   9.858 -0.5210  0.0964 -0.2892
85346SOL     OW74029   8.301   3.659   1.289  0.0983  0.4277  0.0163
85346SOL    HW174030   8.246   3.581   1.285 -1.7233  1.5943  1.0100
85346SOL    HW274031   8.385   3.628   1.323 -0.3710 -1.1794 -0.2337
85347SOL     OW74032   4.018   8.596  11.043  0.1616  0.4042 -0.1780
85347SOL    HW174033   3.981   8.563  10.961  1.3873 -0.3934 -0.4367
85347SOL    HW274034   4.019   8.520  11.101  1.9754  0.2328 -0.4000
85348SOL     OW74035   2.776   5.869   5.125 -0.1025 -0.4829 -0.4259
85348SOL    HW174036   2.686   5.899   5.138  0.0597 -0.4881  0.7709
85348SOL    HW274037   2.767   5.787   5.077 -0.7598 -0.6257 -0.0728
85349SOL     OW74038  11.063   6.869   2.665 -0.0182  0.3139  0.5961
85349SOL    HW174039  11.110   6.808   2.607 -2.3161 -0.3938 -0.6414
85349SOL    HW274040  11.080   6.835   2.753  1.5546 -0.0427  0.1946
85350SOL     OW74041   6.885   2.981  11.482  0.1251  0.1447  0.2791
85350SOL    HW174042   6.847   2.965  11.568  0.7074 -2.1941  0.1684
85350SOL    HW274043   6.912   2.895  11.451  1.1484  1.0968 -1.6878
85351SOL     OW74044   6.493  12.594  13.215 -0.2067  0.6391  0.4356
85351SOL    HW174045   6.559  12.596  13.146 -0.5573  0.5847  0.0962
85351SOL    HW274046   6.463  12.504  13.216 -1.3060  0.9837 -0.3968
85352SOL     OW74047   6.577  12.353   5.176  0.3159  0.1304  0.7748
85352SOL    HW174048   6.600  12.324   5.265  0.0892  2.4168  1.6370
85352SOL    HW274049   6.660  12.379   5.137  0.3252 -0.2127  0.5623
85353SOL     OW74050   7.585   2.207   0.482 -0.8579  0.4553  0.1935
85353SOL    HW174051   7.565   2.170   0.568  1.4882 -0.0651  0.5865
85353SOL    HW274052   7.531   2.157   0.421 -1.1271 -0.4832  1.1612
85354SOL     OW74053   3.647   6.944   0.191  0.6458 -0.0989 -0.0526
85354SOL    HW174054   3.567   6.973   0.234 -0.1192 -2.4831  0.3003
85354SOL    HW274055   3.641   6.977   0.102  0.2807  1.4399  0.5084
85355SOL     OW74056   4.237   6.878   5.905  0.2623 -0.3837 -0.4955
85355SOL    HW174057   4.323   6.893   5.946  0.2516  0.7289 -0.8647
85355SOL    HW274058   4.258   6.832   5.824  0.7630  1.9563 -1.7734
85356SOL     OW74059  11.644   0.208  12.066 -0.1038 -0.0820  0.5704
85356SOL    HW174060  11.650   0.205  12.162 -1.8080  2.5222  0.8539
85356SOL    HW274061  11.678   0.294  12.043 -3.5824  1.1225 -0.6688
85357SOL     OW74062  12.529   0.847  13.552  0.2534  0.3080 -0.0224
85357SOL    HW174063  12.511   0.754  13.536  0.7849 -0.0099  1.1488
85357SOL    HW274064  12.487   0.892  13.479  1.4747 -0.9677 -1.5960
85358SOL     OW74065   0.751   0.340  12.769  0.8711 -0.0045  0.0494
85358SOL    HW174066   0.660   0.358  12.790  0.9391 -0.8617  1.1952
85358SOL    HW274067   0.758   0.354  12.674 -0.8532 -1.6006 -0.3526
85359SOL     OW74068   3.599   2.346   1.546 -0.4822 -0.4633  0.3550
85359SOL    HW174069   3.603   2.380   1.635 -0.0632 -2.2236  1.0603
85359SOL    HW274070   3.537   2.402   1.500 -1.4222 -0.1045  2.0258
85360SOL     OW74071   4.460  11.723  12.888  0.2821  0.0596 -0.7153
85360SOL    HW174072   4.547  11.686  12.884 -0.3423 -1.4464 -0.9795
85360SOL    HW274073   4.447  11.765  12.803  0.2965 -0.8083 -1.1531
85361SOL     OW74074   9.391   2.510   2.873 -0.2651 -0.2424 -0.8720
85361SOL    HW174075   9.357   2.520   2.962 -3.4934 -0.7124 -1.9530
85361SOL    HW274076   9.485   2.497   2.885 -0.7803 -1.7656  2.5597
85362SOL     OW74077  10.645  13.331  13.386  0.1166  0.8246 -0.0770
85362SOL    HW174078  10.672  13.269  13.454  0.5343  0.9556 -0.1188
85362SOL    HW274079  10.682  13.415  13.413 -0.5695  1.0905  0.0529
85363SOL     OW74080  11.075   7.691   9.579 -0.1322 -0.2106 -0.5848
85363SOL    HW174081  11.151   7.695   9.521 -0.0133  0.3831 -0.3943
85363SOL    HW274082  11.003   7.664   9.522 -0.3480  1.8398 -1.3911
85364SOL     OW74083   4.619   8.050  10.382 -0.7722  0.4814 -0.4591
85364SOL    HW174084   4.666   8.063  10.300 -0.8985  1.4093 -0.3878
85364SOL    HW274085   4.550   8.116  10.382 -2.1307 -0.8928 -0.5811
85365SOL     OW74086   3.606   8.442   4.242  0.6255 -0.8632 -0.3426
85365SOL    HW174087   3.633   8.383   4.171 -0.4575  0.7044 -2.1485
85365SOL    HW274088   3.512   8.429   4.249  0.6259 -0.5177  0.3625
85366SOL     OW74089   0.115   1.841  10.351  0.2234  0.6869 -0.6503
85366SOL    HW174090   0.029   1.878  10.334  0.4133  1.3771 -0.1343
85366SOL    HW274091   0.099   1.770  10.414  0.1291  1.3773  0.1181
85367SOL     OW74092   2.100  11.892   6.263  0.3707 -1.1007  0.1612
85367SOL    HW174093   2.101  11.883   6.168  0.4376 -0.4440  0.0983
85367SOL    HW274094   2.183  11.853   6.291  0.3699 -1.2579 -0.0544
85368SOL     OW74095   7.998   2.746  12.560 -0.2734  0.4832 -0.1908
85368SOL    HW174096   7.912   2.755  12.519 -0.5370 -0.1337  0.2241
85368SOL    HW274097   7.985   2.684  12.632  0.5876  0.1104 -0.3367
85369SOL     OW74098  13.206   2.371  10.286 -0.0940 -0.6403 -0.6360
85369SOL    HW174099  13.138   2.359  10.352 -1.4463  0.7192 -1.7054
85369SOL    HW274100  13.169   2.334  10.206 -1.0501  2.8656 -2.0162
85370SOL     OW74101   9.021   8.292  10.460  0.2179  0.3983 -0.2080
85370SOL    HW174102   9.070   8.371  10.482  0.9502 -0.0343 -0.2363
85370SOL    HW274103   9.025   8.238  10.539  2.0970 -0.7755 -1.0279
85371SOL     OW74104   7.550   0.466   9.540 -0.2992 -0.3455  0.5139
85371SOL    HW174105   7.539   0.524   9.465  0.3566  0.6977  1.2048
85371SOL    HW274106   7.465   0.423   9.550 -0.6297  0.0894 -0.3336
85372SOL     OW74107  11.545   5.553   7.462 -0.0767 -0.3399 -0.1618
85372SOL    HW174108  11.517   5.587   7.377  0.3824  1.0527  0.2139
85372SOL    HW274109  11.640   5.564   7.461 -0.1414  0.4489  0.8318
85373SOL     OW74110  12.763  11.472   8.571 -0.7395 -0.1177  0.1730
85373SOL    HW174111  12.802  11.495   8.655  0.9695  0.6856 -0.7880
85373SOL    HW274112  12.670  11.459   8.591 -0.3716 -0.0802  2.1841
85374SOL     OW74113  13.800   4.821   1.326  0.0263 -0.2633 -0.1006
85374SOL    HW174114  13.836   4.895   1.374 -0.5506  0.7263 -1.1481
85374SOL    HW274115  13.713   4.809   1.361 -0.0387 -0.1594 -0.2239
85375SOL     OW74116   5.580  10.992  11.295 -0.4735  0.0292 -0.2189
85375SOL    HW174117   5.645  10.936  11.339  0.0210  0.2173 -0.6963
85375SOL    HW274118   5.523  10.930  11.249 -0.1152 -0.0960 -0.4945
85376SOL     OW74119   1.904   8.984   5.136  0.1741  0.5316 -0.3875
85376SOL    HW174120   1.901   8.972   5.041 -0.2558 -1.4570 -0.1647
85376SOL    HW274121   1.843   8.919   5.171  1.6874 -0.0742  1.3299
85377SOL     OW74122  13.119  10.262   3.588  0.1002  0.4184  0.5035
85377SOL    HW174123  13.064  10.192   3.554 -1.2344  0.5569  2.2266
85377SOL    HW274124  13.202  10.252   3.542 -1.1012 -0.2265 -1.6887
85378SOL     OW74125  13.119   2.360   5.524 -0.1949  0.1857  0.3123
85378SOL    HW174126  13.176   2.432   5.550  0.0004  0.1219  0.0726
85378SOL    HW274127  13.175   2.283   5.523  0.0651  0.3564 -1.2633
85379SOL     OW74128   4.253   0.060  10.577 -0.6623  0.9028 -0.1940
85379SOL    HW174129   4.239   0.070  10.483  1.2989  1.5619 -0.4585
85379SOL    HW274130   4.273   0.148  10.608 -0.8013  0.6073  0.7595
85380SOL     OW74131   2.025   6.869   2.990 -0.4912 -0.1893  0.4418
85380SOL    HW174132   2.070   6.909   3.064 -0.8153 -0.4785  0.7992
85380SOL    HW274133   1.990   6.787   3.024 -1.2482  0.0063  0.1705
85381SOL     OW74134   5.048  13.710  13.934 -0.1819  0.1607  0.0286
85381SOL    HW174135   5.048  13.783  13.871  0.1869  0.7723  0.7161
85381SOL    HW274136   5.135  13.713  13.974  0.3237 -1.5205 -0.8876
85382SOL     OW74137   2.869  10.517   1.502  0.3520 -0.5757  0.1184
85382SOL    HW174138   2.866  10.427   1.535 -2.4520  0.2946  2.6565
85382SOL    HW274139   2.958  10.527   1.469  1.3021 -3.7293  1.3396
85383SOL     OW74140   3.188   4.918   0.293  0.2763 -0.2518 -0.0562
85383SOL    HW174141   3.213   5.004   0.260 -0.0900 -0.3649 -0.6431
85383SOL    HW274142   3.137   4.879   0.222  1.8117 -1.6166 -0.4793
85384SOL     OW74143   2.193   2.207  13.105  0.6410  0.1528  0.2512
85384SOL    HW174144   2.274   2.197  13.157 -0.0081  1.5724  1.6260
85384SOL    HW274145   2.206   2.288  13.057 -0.4985  1.1852  1.6011
85385SOL     OW74146   9.387   0.646   7.879  0.5114 -0.1777  0.0450
85385SOL    HW174147   9.359   0.618   7.792  1.5813  2.4180 -1.2489
85385SOL    HW274148   9.404   0.740   7.870  3.1090 -0.2783  2.3882
85386SOL     OW74149   0.494   3.080  12.327  0.2466  0.0768  0.3452
85386SOL    HW174150   0.491   2.994  12.369  2.0280 -0.3410 -0.2816
85386SOL    HW274151   0.517   3.061  12.235  1.3557  1.2273  0.3552
85387SOL     OW74152  11.798  10.276   0.013 -0.1567 -0.0544  0.6037
85387SOL    HW174153  11.886  10.280  -0.024  0.7583 -3.6738  2.0528
85387SOL    HW274154  11.780  10.367   0.039  2.1101  1.2451 -1.7933
85388SOL     OW74155  12.195   4.746  12.158  0.6171  0.5184 -0.4246
85388SOL    HW174156  12.158   4.733  12.245 -0.0208  2.2148 -0.3995
85388SOL    HW274157  12.256   4.673  12.147 -1.9034 -1.8175 -0.0331
85389SOL     OW74158   6.432   6.939  11.716 -0.3947 -0.3108 -0.2724
85389SOL    HW174159   6.519   6.923  11.679 -0.1418 -0.2945  0.3039
85389SOL    HW274160   6.414   6.862  11.770 -0.1960  0.2358  0.6086
85390SOL     OW74161   5.621  11.941   8.339  0.0195  0.0576  0.2284
85390SOL    HW174162   5.576  11.929   8.255  0.9470 -0.1000 -0.2515
85390SOL    HW274163   5.555  11.981   8.395 -0.8742 -0.5911 -0.3273
85391SOL     OW74164   6.957  10.830   1.373  0.2184  0.1848 -0.0076
85391SOL    HW174165   6.995  10.760   1.426 -1.8090 -0.5235  0.5947
85391SOL    HW274166   7.024  10.849   1.307  0.5296 -2.9719 -0.7704
85392SOL     OW74167   9.868  12.734   0.467  0.5542 -0.3319  0.3397
85392SOL    HW174168   9.895  12.767   0.381  1.0156 -0.9134  0.2556
85392SOL    HW274169   9.901  12.798   0.529 -0.2861  0.3992  0.0513
85393SOL     OW74170   0.202   4.751   3.191  0.0743  0.3778 -0.1728
85393SOL    HW174171   0.236   4.675   3.143 -0.0228  0.4999 -0.4385
85393SOL    HW274172   0.274   4.778   3.248 -0.2992 -0.6721  0.8392
85394SOL     OW74173   0.381  11.095   1.842 -1.0633  0.2688 -0.2240
85394SOL    HW174174   0.453  11.044   1.806 -0.9335  0.7521 -0.6763
85394SOL    HW274175   0.423  11.172   1.881 -1.2717  0.1575  0.2208
85395SOL     OW74176   7.353  12.452   1.228  0.5874 -0.2803  0.3845
85395SOL    HW174177   7.384  12.542   1.216  0.3523 -0.2615 -0.1157
85395SOL    HW274178   7.413  12.399   1.174 -0.3612 -0.2191 -0.7887
85396SOL     OW74179   1.593   1.771  11.162 -0.3769  0.0229  1.2507
85396SOL    HW174180   1.529   1.842  11.154 -1.0489 -0.7611 -1.4389
85396SOL    HW274181   1.549   1.705  11.217 -0.6568  0.7368  1.8932
85397SOL     OW74182  10.311   5.902   5.786 -0.0705  0.3039 -0.0039
85397SOL    HW174183  10.342   5.822   5.828  3.1752  1.1068 -0.6129
85397SOL    HW274184  10.221   5.881   5.759  0.9475 -3.5341 -1.0912
85398SOL     OW74185   1.573   5.312   0.462  0.4492  0.0815  0.0763
85398SOL    HW174186   1.526   5.341   0.384  0.9371  0.1629 -0.1959
85398SOL    HW274187   1.529   5.231   0.489  0.2132  0.1110 -0.2230
85399SOL     OW74188  12.630   4.336  11.818  0.0767  0.1659  0.3352
85399SOL    HW174189  12.606   4.244  11.821 -2.5927  0.7982  0.8394
85399SOL    HW274190  12.596   4.368  11.734  2.5238  0.4015 -0.6802
85400SOL     OW74191   3.558  13.936  13.140 -0.5289 -0.2426  0.4365
85400SOL    HW174192   3.600  13.916  13.057 -0.7163 -0.9565  0.5060
85400SOL    HW274193   3.534  14.028  13.133 -0.5992 -0.3091 -0.3264
85401SOL     OW74194   5.915  10.383  13.925  0.0914 -0.2082  0.4780
85401SOL    HW174195   5.978  10.342  13.866 -1.5351 -1.6910 -0.3125
85401SOL    HW274196   5.845  10.414  13.867 -0.1606  0.9782  1.3760
85402SOL     OW74197   7.782   7.059  13.688 -0.3713  0.0410 -0.1783
85402SOL    HW174198   7.831   6.978  13.680  0.2163 -0.1665  3.5672
85402SOL    HW274199   7.849   7.127  13.691 -0.7425  0.4731 -1.1616
85403SOL     OW74200  12.964   5.746   5.836 -0.1285 -0.0256 -0.0976
85403SOL    HW174201  12.929   5.793   5.912  0.1411 -0.7661  0.5095
85403SOL    HW274202  12.895   5.751   5.770 -0.4847  0.3959  0.3007
85404SOL     OW74203   1.358   8.335   5.588  0.5367 -0.3281  0.7816
85404SOL    HW174204   1.381   8.340   5.495 -1.3751  1.6273  0.3273
85404SOL    HW274205   1.377   8.423   5.622 -1.4964 -0.1147  1.4914
85405SOL     OW74206  12.156  12.648  10.726  0.0586  0.2709 -0.5792
85405SOL    HW174207  12.068  12.640  10.762  0.2543 -0.7196 -0.2679
85405SOL    HW274208  12.211  12.597  10.786  1.3516  3.1003  0.8601
85406SOL     OW74209   3.129   0.615   1.951 -0.5109 -0.1909 -0.2086
85406SOL    HW174210   3.098   0.683   1.891 -1.8428 -0.2932  0.3269
85406SOL    HW274211   3.088   0.636   2.035  0.9078 -0.3448  0.5675
85407SOL     OW74212  13.493  10.075  10.091 -0.3509 -0.2995 -0.0098
85407SOL    HW174213  13.541  10.045  10.014  1.0127 -0.6878  0.9271
85407SOL    HW274214  13.430  10.005  10.109  0.2646 -0.8603  0.0097
85408SOL     OW74215  11.399   2.854   9.897 -0.1830  0.2420  0.0660
85408SOL    HW174216  11.375   2.891   9.812 -0.3800  0.8593  0.3842
85408SOL    HW274217  11.333   2.888   9.957  1.0035  1.2972  0.8065
85409SOL     OW74218  11.182   1.094  13.447 -0.0353  0.2228 -0.0032
85409SOL    HW174219  11.259   1.134  13.405  1.0078 -0.6694  1.0060
85409SOL    HW274220  11.162   1.019  13.391  1.3261 -0.9378  0.9938
85410SOL     OW74221   8.224  12.513   7.543  0.2083  0.0039  0.3363
85410SOL    HW174222   8.303  12.469   7.510 -0.1172 -0.0242 -0.4275
85410SOL    HW274223   8.248  12.605   7.546  0.0927  0.0642 -0.4405
85411SOL     OW74224   7.565   7.045   0.402  0.4619 -0.5113 -0.0522
85411SOL    HW174225   7.509   7.072   0.329  3.9164  0.1154 -2.7705
85411SOL    HW274226   7.526   7.085   0.479 -1.2164  2.3035 -2.1596
85412SOL     OW74227   2.989  13.664   5.130 -0.6221 -0.1593 -0.4534
85412SOL    HW174228   3.030  13.723   5.193 -2.9276  0.3414  0.6706
85412SOL    HW274229   2.942  13.721   5.070  1.1827 -0.6576 -2.4919
85413SOL     OW74230   6.784   2.779   5.803 -0.0837 -0.0035 -0.5293
85413SOL    HW174231   6.790   2.818   5.890 -1.3204 -0.5338 -0.2007
85413SOL    HW274232   6.792   2.854   5.744 -0.7706  0.5637  0.0719
85414SOL     OW74233   2.040   2.570   4.495 -0.2871 -0.1805 -0.4365
85414SOL    HW174234   1.984   2.560   4.572  0.4122  0.4899  0.1861
85414SOL    HW274235   2.120   2.522   4.517 -0.3777 -0.6300 -1.0656
85415SOL     OW74236   8.130   2.096  10.184 -0.0046  0.6110  0.1249
85415SOL    HW174237   8.212   2.070  10.143  0.0826 -0.1406  0.7433
85415SOL    HW274238   8.067   2.030  10.156  0.5619 -1.3363  2.9417
85416SOL     OW74239   8.055   8.686   9.540  0.3265 -0.4088  0.3713
85416SOL    HW174240   8.077   8.703   9.631 -0.6874  2.1253  0.1994
85416SOL    HW274241   8.014   8.599   9.541 -0.1485 -0.2061  2.4068
85417SOL     OW74242   7.812   5.320   0.782 -0.3468 -0.5773  0.3697
85417SOL    HW174243   7.732   5.372   0.767  0.0331 -0.0745  0.0624
85417SOL    HW274244   7.841   5.346   0.869 -0.2068 -0.3356  0.2523
85418SOL     OW74245   3.400   6.235   2.057 -0.4538  0.3756 -0.3601
85418SOL    HW174246   3.366   6.149   2.080 -1.3603  0.1730 -2.2468
85418SOL    HW274247   3.477   6.217   2.004  1.2535  0.8186  1.8056
85419SOL     OW74248  13.071  11.139   8.887 -0.6277  0.3540  0.5218
85419SOL    HW174249  13.063  11.113   8.979 -2.8027  2.2521  0.9843
85419SOL    HW274250  12.989  11.110   8.847  0.3727 -0.6126 -0.9086
85420SOL     OW74251   7.935   9.270   0.610  0.3466 -0.5261 -0.3497
85420SOL    HW174252   7.858   9.236   0.564  0.6821  0.0236 -1.3529
85420SOL    HW274253   7.982   9.191   0.640  0.3419 -0.9230 -1.3404
85421SOL     OW74254   2.448  11.609  11.317 -0.1064  0.2475 -0.3712
85421SOL    HW174255   2.462  11.682  11.377  0.9609  1.5769 -2.1533
85421SOL    HW274256   2.514  11.621  11.249  0.3207 -2.5845 -0.5756
85422SOL     OW74257   3.908   0.657   5.852  0.5822  0.1934 -0.1258
85422SOL    HW174258   3.975   0.653   5.919  0.1147 -1.9757  0.2889
85422SOL    HW274259   3.834   0.701   5.894  0.8125  0.1997  0.2729
85423SOL     OW74260   1.564   9.932   8.824 -0.1710  0.0468  0.2188
85423SOL    HW174261   1.641   9.884   8.853 -0.1108 -0.6924 -1.1036
85423SOL    HW274262   1.507   9.935   8.901 -0.6118 -3.0027  0.1180
85424SOL     OW74263   0.757   9.961   6.927  0.2354 -0.3077 -0.1129
85424SOL    HW174264   0.744  10.047   6.888  4.2300 -0.0851 -1.3786
85424SOL    HW274265   0.797   9.978   7.012  2.2266 -0.7775 -0.8845
85425SOL     OW74266  12.981   2.408   5.802 -0.1121 -0.5024 -0.8958
85425SOL    HW174267  12.946   2.378   5.886 -1.4681  0.7124 -0.9905
85425SOL    HW274268  12.926   2.365   5.737  0.0343 -0.3350 -1.1304
85426SOL     OW74269   4.005  10.128   0.629  0.4111 -0.1110  0.1812
85426SOL    HW174270   3.929  10.091   0.583 -0.3501  1.1791  0.3679
85426SOL    HW274271   4.057  10.169   0.561  1.0905 -1.1937  0.0201
85427SOL     OW74272  12.041   9.152   3.051 -0.6735  0.2179  0.0797
85427SOL    HW174273  12.095   9.231   3.045  1.2465 -1.1191 -2.0129
85427SOL    HW274274  12.052   9.123   3.141  0.4425  1.1172  0.2669
85428SOL     OW74275   2.223   9.877   0.360 -0.6970 -0.0890  0.7134
85428SOL    HW174276   2.178   9.914   0.436 -1.5959 -1.2282  0.7752
85428SOL    HW274277   2.316   9.889   0.379 -0.9240  0.2272  1.6915
85429SOL     OW74278  13.934  10.437  12.421 -0.3109  0.1375 -0.6094
85429SOL    HW174279  13.969  10.450  12.509 -0.5832  0.3175 -0.5286
85429SOL    HW274280  14.006  10.395  12.373  0.4928  1.6492 -0.7922
85430SOL     OW74281  12.099   6.688  12.406  0.0546 -0.2899  0.2293
85430SOL    HW174282  12.040   6.665  12.478  1.2562 -0.1640  1.2837
85430SOL    HW274283  12.109   6.606  12.357 -2.3995  0.0856 -1.0893
85431SOL     OW74284   6.086   9.687   5.193 -0.2313 -0.7730  0.3160
85431SOL    HW174285   6.118   9.622   5.255  0.5379 -1.1241 -0.4416
85431SOL    HW274286   6.159   9.747   5.181  0.5559 -2.0960 -2.1381
85432SOL     OW74287   6.153   9.072   3.191 -0.0263 -0.2643 -0.4179
85432SOL    HW174288   6.185   9.161   3.177  0.6390  0.1850  3.1926
85432SOL    HW274289   6.227   9.016   3.167  0.9053  0.3961  0.7955
85433SOL     OW74290   8.300   7.946   8.718 -0.0001 -0.5831 -0.2138
85433SOL    HW174291   8.290   7.862   8.673  0.4704 -0.2477 -0.9630
85433SOL    HW274292   8.293   8.012   8.649  1.0834 -0.0711  0.1333
85434SOL     OW74293   4.708   9.635  12.078 -0.1931 -0.2593  0.0970
85434SOL    HW174294   4.714   9.563  12.141  0.5157 -2.2406 -2.1108
85434SOL    HW274295   4.619   9.629  12.043  0.4130 -1.2393 -1.3501
85435SOL     OW74296  10.318   9.875  10.318 -0.4310 -0.2494  0.3147
85435SOL    HW174297  10.376   9.885  10.243  3.3693 -2.0633  2.6973
85435SOL    HW274298  10.343   9.945  10.378 -2.4233  0.3260  0.5579
85436SOL     OW74299   5.142   5.706  12.201  0.2371  0.3392 -0.3369
85436SOL    HW174300   5.133   5.617  12.234 -0.5055  0.8536  0.9369
85436SOL    HW274301   5.115   5.700  12.109  3.6286 -1.3796 -1.3805
85437SOL     OW74302  12.073   8.639   5.784  0.3009  0.7039  0.3484
85437SOL    HW174303  12.144   8.584   5.752  0.2806  0.9957 -0.2240
85437SOL    HW274304  12.113   8.694   5.851  0.2149 -0.3147  1.2526
85438SOL     OW74305   1.820   9.628   9.276  0.4045 -0.0741 -0.3251
85438SOL    HW174306   1.811   9.536   9.302  0.9535 -0.0704 -0.1092
85438SOL    HW274307   1.914   9.642   9.272  0.4094  1.1624  2.1206
85439SOL     OW74308  12.859   2.916   5.606  0.2581 -0.0820  0.2795
85439SOL    HW174309  12.884   2.991   5.659  0.2980 -0.8058  1.3056
85439SOL    HW274310  12.921   2.847   5.631 -0.1930 -0.6612 -0.1726
85440SOL     OW74311   0.451   1.461   6.087 -0.5915  0.0879  0.5809
85440SOL    HW174312   0.424   1.548   6.059  0.6537  0.3615  0.1601
85440SOL    HW274313   0.369   1.411   6.094 -1.1262  0.3785 -2.3225
85441SOL     OW74314  13.603   5.988  13.288  0.6704  0.3254 -0.1200
85441SOL    HW174315  13.583   5.906  13.334  0.8282  1.8345  2.8631
85441SOL    HW274316  13.698   5.986  13.278  0.4702 -0.8744 -2.2610
85442SOL     OW74317   3.000   8.430   8.571 -0.0893  0.1873  0.1495
85442SOL    HW174318   2.982   8.460   8.661 -3.1786 -1.2620  0.1365
85442SOL    HW274319   3.000   8.335   8.577 -0.2385  0.0724 -1.3877
85443SOL     OW74320   1.215   4.504  11.635  0.2362 -0.2380 -0.0889
85443SOL    HW174321   1.179   4.536  11.552  0.0754  0.0878  0.1030
85443SOL    HW274322   1.138   4.488  11.689  0.3595  0.0609  0.1809
85444SOL     OW74323  10.861   4.631   7.211  0.3504  0.3481  0.0217
85444SOL    HW174324  10.942   4.584   7.231 -0.3248 -0.8608  0.0347
85444SOL    HW274325  10.887   4.723   7.206  1.6237  0.0411  0.5300
85445SOL     OW74326   7.183   4.027  12.685 -0.0597 -0.3206 -0.1499
85445SOL    HW174327   7.222   4.115  12.686 -0.8135  0.0193  0.0493
85445SOL    HW274328   7.193   3.996  12.775  3.3278 -1.8905 -0.8820
85446SOL     OW74329   6.090  10.619   2.827 -0.1047  0.0973 -0.5826
85446SOL    HW174330   6.146  10.546   2.801 -0.2545 -0.9538  1.7887
85446SOL    HW274331   6.017  10.578   2.874 -1.8505  1.5829 -1.8387
85447SOL     OW74332   8.147   9.984  13.062  0.5947  0.6712  0.5737
85447SOL    HW174333   8.149   9.895  13.026  0.5061  0.4148  1.1856
85447SOL    HW274334   8.121  10.039  12.989 -1.9826 -0.1324  0.7744
85448SOL     OW74335   8.457  13.753   3.725  0.3483  0.1603 -0.4197
85448SOL    HW174336   8.452  13.711   3.639  2.6671  2.1788 -1.6731
85448SOL    HW274337   8.540  13.723   3.762 -1.5072 -2.2946  2.1822
85449SOL     OW74338   9.034  13.756  10.944  0.0667  0.0298  0.2585
85449SOL    HW174339   9.116  13.717  10.914  0.2704 -0.8603  1.8674
85449SOL    HW274340   8.968  13.687  10.928 -0.4606  0.8308 -1.2676
85450SOL     OW74341   9.832   4.943   0.389 -0.0369  0.2529 -0.0773
85450SOL    HW174342   9.867   4.950   0.300  1.3416  1.4142  0.5114
85450SOL    HW274343   9.873   4.863   0.425 -0.7429 -0.3226 -0.5271
85451SOL     OW74344   8.784   8.111   3.133 -0.0523 -0.4491  0.4590
85451SOL    HW174345   8.868   8.145   3.103 -0.4316  2.1189  2.0933
85451SOL    HW274346   8.789   8.112   3.228 -1.3112 -1.9920  0.5896
85452SOL     OW74347   5.478   0.562   9.598  0.4711  0.4791  0.2551
85452SOL    HW174348   5.460   0.619   9.523  1.5428  0.2712 -0.1831
85452SOL    HW274349   5.569   0.582   9.621  0.3542  0.0759  1.1008
85453SOL     OW74350   4.684   1.341   4.393 -0.2532  0.1009 -0.3907
85453SOL    HW174351   4.774   1.348   4.361 -0.5704 -1.1128 -1.5993
85453SOL    HW274352   4.635   1.404   4.340 -0.8278 -2.0928 -2.6283
85454SOL     OW74353   1.309   7.961   5.979  0.0343 -0.7802 -0.3599
85454SOL    HW174354   1.347   7.963   5.891  2.4016  0.6883  0.5873
85454SOL    HW274355   1.250   8.037   5.981 -0.4258 -1.1205 -0.8202
85455SOL     OW74356   4.818   0.171   1.590 -0.0662 -0.3434  0.5944
85455SOL    HW174357   4.883   0.192   1.658 -1.4099  0.5823  1.6356
85455SOL    HW274358   4.864   0.110   1.533  1.7513  0.2923  1.2657
85456SOL     OW74359   3.714   0.639   0.092  0.0142  0.6395  0.2296
85456SOL    HW174360   3.696   0.730   0.118 -0.3565  0.2664  1.3252
85456SOL    HW274361   3.630   0.607   0.058  0.2977  0.8750 -0.7517
85457SOL     OW74362  12.619   6.198   6.550  0.0614  0.1010  0.4735
85457SOL    HW174363  12.617   6.184   6.456  0.7497 -0.3973  0.5194
85457SOL    HW274364  12.560   6.272   6.566 -1.1939 -0.7239 -0.1811
85458SOL     OW74365   2.583   6.626  12.819  0.0627 -0.0259 -0.4807
85458SOL    HW174366   2.498   6.613  12.776 -0.3006  3.4647 -1.1249
85458SOL    HW274367   2.644   6.641  12.747  0.4806  0.9267  0.0550
85459SOL     OW74368   1.854   9.574   6.217 -0.2981  0.2815 -0.0344
85459SOL    HW174369   1.764   9.574   6.250 -0.0325  1.2450  0.7518
85459SOL    HW274370   1.856   9.646   6.155 -0.6781 -1.2565 -1.9408
85460SOL     OW74371   1.328   7.051   7.170 -0.5388  0.3734  0.0797
85460SOL    HW174372   1.285   6.965   7.163 -1.1375  0.5218  1.6434
85460SOL    HW274373   1.257   7.114   7.157 -0.7875  0.6179  2.3068
85461SOL     OW74374  13.381   0.512  11.674 -0.1407  0.0685 -0.0069
85461SOL    HW174375  13.323   0.492  11.600  1.7623 -0.8932 -1.3217
85461SOL    HW274376  13.468   0.487  11.643  0.8119  0.2499  2.3589
85462SOL     OW74377   2.950   5.539  10.266 -0.0893 -0.2100  0.3917
85462SOL    HW174378   3.030   5.546  10.214 -0.6598 -0.3338 -0.5257
85462SOL    HW274379   2.879   5.545  10.202 -0.8022 -1.5618  1.0211
85463SOL     OW74380   1.390  11.360   3.306 -0.1249  0.0945 -0.3383
85463SOL    HW174381   1.480  11.351   3.275 -0.1718  1.7715 -1.0406
85463SOL    HW274382   1.339  11.378   3.228 -0.9062  0.2217  0.1914
85464SOL     OW74383   6.263   3.052  11.297  0.4022 -0.2899 -0.3861
85464SOL    HW174384   6.214   2.996  11.356  0.2005  0.0163 -0.2605
85464SOL    HW274385   6.283   2.996  11.222 -0.0116 -0.4554 -0.3733
85465SOL     OW74386  13.843   9.392  12.420  0.1872 -0.1351 -0.0035
85465SOL    HW174387  13.765   9.439  12.448 -0.5283 -0.7764 -0.8671
85465SOL    HW274388  13.914   9.456  12.427 -0.9105  1.4422 -2.1738
85466SOL     OW74389  11.602   4.703   0.421  0.3364  0.2886 -0.4704
85466SOL    HW174390  11.574   4.624   0.466 -0.1571  0.8372  0.2088
85466SOL    HW274391  11.520   4.747   0.396  0.5536  1.4503  0.7291
85467SOL     OW74392  12.846   1.445   9.769 -0.4008 -0.5209  0.7901
85467SOL    HW174393  12.753   1.464   9.781 -0.2884 -0.1205  1.0538
85467SOL    HW274394  12.878   1.515   9.711 -0.5751 -1.4938 -0.5350
85468SOL     OW74395   2.508   0.335   8.544  0.4710 -0.0830 -0.0630
85468SOL    HW174396   2.588   0.311   8.497 -0.2625 -1.5917 -0.5953
85468SOL    HW274397   2.524   0.424   8.574  3.4667 -1.2358  2.2369
85469SOL     OW74398   7.874   9.795   5.701 -0.0309  0.1459  0.2480
85469SOL    HW174399   7.844   9.706   5.720 -1.3845  0.3653 -0.7163
85469SOL    HW274400   7.858   9.843   5.782  0.5754 -0.4386  0.7306
85470SOL     OW74401   1.537  12.639   3.603  0.7259  0.0601 -0.3480
85470SOL    HW174402   1.578  12.653   3.517 -2.3884 -0.4567 -2.0355
85470SOL    HW274403   1.537  12.726   3.643  0.6192  0.6938 -1.6529
85471SOL     OW74404   4.343  12.830  11.929 -0.3042  0.3705 -0.2610
85471SOL    HW174405   4.337  12.924  11.912  0.4612  0.3594 -0.6372
85471SOL    HW274406   4.299  12.819  12.014 -1.1233  0.9374 -0.5992
85472SOL     OW74407  13.330   9.319   4.994 -0.0462 -0.0981  0.0611
85472SOL    HW174408  13.314   9.390   5.056 -0.0703  0.7664 -0.9188
85472SOL    HW274409  13.257   9.324   4.933  1.8509  1.4896 -2.2490
85473SOL     OW74410   1.237  13.244   4.207 -0.2305 -0.0624 -0.2817
85473SOL    HW174411   1.262  13.307   4.139  2.2799 -0.7221 -0.0584
85473SOL    HW274412   1.306  13.251   4.273 -1.8435 -0.4733  1.5614
85474SOL     OW74413   2.334  10.091  11.760  0.1693  0.3804 -0.2740
85474SOL    HW174414   2.416  10.074  11.714  0.3819  0.5278  0.0437
85474SOL    HW274415   2.269  10.101  11.691  0.3913  0.1080 -0.5220
85475SOL     OW74416   8.133   5.303  11.064  0.5515  0.1088  0.5264
85475SOL    HW174417   8.161   5.211  11.063  0.6592  0.1249 -0.7123
85475SOL    HW274418   8.092   5.316  10.978 -0.9486  0.7964  1.3068
85476SOL     OW74419   2.863   3.968   0.892  0.3012 -0.4531  0.3547
85476SOL    HW174420   2.939   3.945   0.837 -0.6656 -0.1317 -1.1733
85476SOL    HW274421   2.788   3.963   0.832 -1.6218 -4.9236  2.6098
85477SOL     OW74422  11.357  14.083  12.701 -0.1951  0.1161  0.1244
85477SOL    HW174423  11.310  14.028  12.764  0.8188  0.7331  1.4629
85477SOL    HW274424  11.430  14.029  12.671 -1.0295 -0.4039 -1.0364
85478SOL     OW74425   2.422   2.065   4.004  0.2286  0.1608  0.0528
85478SOL    HW174426   2.366   2.045   4.080  2.1037 -3.2648  0.7463
85478SOL    HW274427   2.491   2.120   4.039 -0.1707  0.5242  0.2777
85479SOL     OW74428  13.604   2.237  11.370  0.0329  0.0615 -0.1661
85479SOL    HW174429  13.608   2.171  11.440  0.3528  0.2278 -0.0220
85479SOL    HW274430  13.683   2.222  11.318 -0.6267 -0.6056 -0.9988
85480SOL     OW74431   3.583   4.469   5.784  0.1849 -0.1327 -0.0575
85480SOL    HW174432   3.607   4.395   5.840 -0.9372  0.6160  1.5104
85480SOL    HW274433   3.663   4.520   5.776  0.6734 -0.9081 -0.1767
85481SOL     OW74434   3.678   8.808   6.138  0.3145  0.3803  0.1917
85481SOL    HW174435   3.591   8.775   6.119  0.1917 -1.0861  2.7098
85481SOL    HW274436   3.734   8.730   6.133  0.7137  0.4418  2.4297
85482SOL     OW74437   1.090  10.458   5.973  0.2820 -0.0816  0.5901
85482SOL    HW174438   1.113  10.373   6.011 -0.2088  0.3294  1.8601
85482SOL    HW274439   1.172  10.507   5.972  0.3000 -0.0972  1.1233
85483SOL     OW74440   4.512   6.570  12.547 -0.4016  0.6147 -0.1336
85483SOL    HW174441   4.534   6.633  12.616 -0.2019  0.8444 -0.4025
85483SOL    HW274442   4.476   6.495  12.593 -0.1579  0.7194  0.2310
85484SOL     OW74443   8.220   8.800  13.687 -0.1462 -0.1208 -0.5483
85484SOL    HW174444   8.301   8.767  13.647  1.2946  1.7339  0.6241
85484SOL    HW274445   8.185   8.862  13.623 -1.4475 -1.8776 -1.6329
85485SOL     OW74446   3.877   0.055   7.154  0.4689  0.7470 -0.9205
85485SOL    HW174447   3.846  -0.029   7.185 -0.2721  1.4890  0.4238
85485SOL    HW274448   3.899   0.040   7.062  1.5950 -1.2212 -0.3893
85486SOL     OW74449  12.528   3.248   9.649 -0.1958  0.2892 -0.4339
85486SOL    HW174450  12.535   3.326   9.594  0.3162  1.4821  1.2439
85486SOL    HW274451  12.618   3.229   9.675 -0.4952  0.2497  0.6246
85487SOL     OW74452  13.873   1.730  12.851  0.5830  0.6840  0.5481
85487SOL    HW174453  13.789   1.773  12.868 -0.1616 -0.3889 -0.2620
85487SOL    HW274454  13.850   1.651  12.801  1.9230 -0.4514  1.6372
85488SOL     OW74455   7.434  12.646   2.414  0.1514 -0.0755 -0.2829
85488SOL    HW174456   7.481  12.725   2.440  1.5259 -1.0009  0.1469
85488SOL    HW274457   7.419  12.656   2.320  2.1929 -0.2300 -0.6573
85489SOL     OW74458  13.638   0.698   2.862 -0.5154  0.1774 -0.0371
85489SOL    HW174459  13.695   0.636   2.817  0.4588 -0.4451  1.9199
85489SOL    HW274460  13.587   0.738   2.793  0.2213 -1.3906 -1.5761
85490SOL     OW74461   3.874   8.222   4.330 -0.2455 -0.3507  0.1883
85490SOL    HW174462   3.793   8.210   4.280  0.1263 -0.7329 -0.3198
85490SOL    HW274463   3.938   8.252   4.266  0.0205 -0.0414  0.5920
85491SOL     OW74464   8.365   7.353   3.475 -0.1497 -0.1597  0.1702
85491SOL    HW174465   8.404   7.406   3.545 -0.0647 -0.1775  0.1365
85491SOL    HW274466   8.391   7.263   3.497 -0.7999 -0.2531  0.5596
85492SOL     OW74467  14.144   3.617   0.472  0.3150 -0.2618 -0.3508
85492SOL    HW174468  14.071   3.678   0.462 -0.0435 -0.7237 -0.6193
85492SOL    HW274469  14.210   3.647   0.410  0.2596  0.0323 -0.2649
85493SOL     OW74470   4.804  12.966  10.350  0.5356  0.0591  0.4056
85493SOL    HW174471   4.808  12.870  10.343 -0.9458  0.0779 -1.3370
85493SOL    HW274472   4.717  12.983  10.389  1.0926  0.6979  1.4248
85494SOL     OW74473   9.464  12.736   3.138 -0.3355  0.3708  0.1253
85494SOL    HW174474   9.459  12.713   3.045 -0.9323  1.6713 -0.1858
85494SOL    HW274475   9.475  12.652   3.183 -0.2802 -0.3009 -1.0962
85495SOL     OW74476   1.030   1.152   2.932  0.3960 -0.1557 -0.6514
85495SOL    HW174477   1.104   1.098   2.905 -0.6108 -1.7462 -0.3844
85495SOL    HW274478   1.017   1.130   3.024 -0.7007 -0.3087 -0.8219
85496SOL     OW74479   1.595   7.465   8.591  0.0483  0.6772 -0.1853
85496SOL    HW174480   1.533   7.453   8.519  1.8162  0.9369 -1.8107
85496SOL    HW274481   1.657   7.530   8.559  1.3976  0.1584  1.2390
85497SOL     OW74482  11.566  11.123   8.872 -0.1615  0.1306 -0.2823
85497SOL    HW174483  11.551  11.114   8.778  0.1813 -0.0543 -0.3209
85497SOL    HW274484  11.605  11.040   8.899 -2.2416 -0.6804  0.4342
85498SOL     OW74485  11.362   8.665   4.120  0.0363  0.2314  0.2132
85498SOL    HW174486  11.370   8.761   4.121  2.3525  0.0934 -0.4255
85498SOL    HW274487  11.444   8.634   4.158 -0.2174 -1.5272 -0.6054
85499SOL     OW74488   9.329   5.727  11.014 -0.0895 -0.0345 -0.0562
85499SOL    HW174489   9.419   5.739  11.045  0.0920  1.4050 -1.0358
85499SOL    HW274490   9.306   5.810  10.973 -2.1785 -0.0882  0.8599
85500SOL     OW74491  13.397   4.562   0.408 -0.2049  0.5684 -0.1217
85500SOL    HW174492  13.373   4.543   0.498 -1.2366  0.9655 -0.2958
85500SOL    HW274493  13.315   4.584   0.365 -0.2267 -2.4776 -1.9339
85501SOL     OW74494   0.865   2.385   2.820  0.0885  0.9387 -0.1737
85501SOL    HW174495   0.934   2.371   2.755 -1.0501 -0.5361 -1.1140
85501SOL    HW274496   0.905   2.443   2.885  1.6223  1.5533 -1.6016
85502SOL     OW74497   0.696   5.457   1.389  0.4213 -0.0519  0.1124
85502SOL    HW174498   0.714   5.510   1.467 -0.6239  0.0002  0.3395
85502SOL    HW274499   0.750   5.379   1.400 -0.6338 -0.6194  1.5340
85503SOL     OW74500   6.674  13.459  10.032  0.1591 -0.0592  0.5414
85503SOL    HW174501   6.657  13.540   9.984 -1.5552  0.6159  2.1758
85503SOL    HW274502   6.597  13.405  10.015 -0.6791  0.3538  2.7792
85504SOL     OW74503   3.041  14.127   5.090 -1.1216  0.2987 -0.1017
85504SOL    HW174504   2.991  14.109   5.010  0.4570 -0.7919 -0.9198
85504SOL    HW274505   3.000  14.074   5.157 -1.1571 -0.4961 -0.7307
85505SOL     OW74506   3.906  12.793   4.328 -0.2144 -0.2450  0.6661
85505SOL    HW174507   3.969  12.858   4.359 -0.8107  0.8271 -0.3206
85505SOL    HW274508   3.925  12.782   4.235 -2.1710  0.9612  0.0588
85506SOL     OW74509   0.177  11.829   5.832  0.5340 -0.3391 -0.0231
85506SOL    HW174510   0.094  11.794   5.864 -0.0617  0.7193 -0.3444
85506SOL    HW274511   0.211  11.881   5.906  0.3087  0.2053 -0.2959
85507SOL     OW74512   7.640   4.343  12.820  0.6046  0.1729  0.4680
85507SOL    HW174513   7.665   4.411  12.883  3.2138 -2.1523  2.1646
85507SOL    HW274514   7.688   4.365  12.740  0.7385  0.7726  0.7024
85508SOL     OW74515   1.870   5.853   1.779 -0.5651  0.1527 -0.2887
85508SOL    HW174516   1.785   5.898   1.778 -1.4600 -1.4556  0.3580
85508SOL    HW274517   1.883   5.822   1.690  0.2745  1.9927 -0.8587
85509SOL     OW74518   3.375   4.566   1.952  0.4712  0.0800 -0.3050
85509SOL    HW174519   3.326   4.640   1.917  0.7527  0.3334 -0.1665
85509SOL    HW274520   3.318   4.528   2.018  1.5824  2.1459  1.9964
85510SOL     OW74521   4.043   5.151  12.755 -0.7154  0.5353 -0.1516
85510SOL    HW174522   4.079   5.236  12.779  1.4192 -0.0188 -1.1304
85510SOL    HW274523   4.007   5.117  12.837  2.5349  0.4819  1.4444
85511SOL     OW74524   5.377   7.257  13.924 -0.4891 -0.1613 -0.3563
85511SOL    HW174525   5.361   7.346  13.894  1.1105 -0.0940 -1.1664
85511SOL    HW274526   5.335   7.201  13.859  1.7007  0.0073 -2.0363
85512SOL     OW74527   9.232   8.934  13.639 -0.0020  0.2271 -0.0768
85512SOL    HW174528   9.299   8.996  13.610  0.7503 -0.3761  0.3517
85512SOL    HW274529   9.198   8.971  13.721 -0.0085  0.4027 -0.1595
85513SOL     OW74530   3.248  13.165   9.474  0.3118  1.0526 -0.3714
85513SOL    HW174531   3.308  13.229   9.514 -0.3964  1.8703 -0.6033
85513SOL    HW274532   3.178  13.155   9.539  1.3532 -0.9850  0.5573
85514SOL     OW74533  13.987  11.619   4.845 -0.4231 -0.4414  0.1263
85514SOL    HW174534  13.916  11.555   4.849  0.0845 -1.0147  0.1193
85514SOL    HW274535  14.044  11.589   4.774  0.2759 -0.4675  0.6844
85515SOL     OW74536   0.325  13.714   2.934  0.1513 -0.2503 -0.3164
85515SOL    HW174537   0.393  13.730   2.999 -0.0681 -0.9895  0.1040
85515SOL    HW274538   0.304  13.621   2.943 -0.5558 -0.1471 -0.7902
85516SOL     OW74539  11.641   6.899   6.319 -0.5668  0.4329 -0.0812
85516SOL    HW174540  11.693   6.963   6.270 -2.6597  3.3215  1.2430
85516SOL    HW274541  11.601   6.844   6.251 -0.5148  1.9860 -1.4407
85517SOL     OW74542   9.664   8.419   3.698 -0.0945 -0.2345  0.4951
85517SOL    HW174543   9.598   8.449   3.761 -0.4260  1.1979 -0.4761
85517SOL    HW274544   9.614   8.370   3.633 -0.2003  0.6740 -0.1289
85518SOL     OW74545   8.203   3.699   4.274  0.1525  0.0623 -0.0125
85518SOL    HW174546   8.179   3.661   4.189  1.3026  0.1102 -0.3666
85518SOL    HW274547   8.221   3.623   4.330  1.4629  0.0460 -0.4304
85519SOL     OW74548  10.484  10.833  11.514  0.2192  0.0208 -0.5584
85519SOL    HW174549  10.423  10.856  11.443 -1.7052  0.8250  1.2402
85519SOL    HW274550  10.569  10.825  11.471 -0.8962  0.2430 -2.9794
85520SOL     OW74551  10.875   0.688  13.332 -0.8658  0.0949 -0.4076
85520SOL    HW174552  10.950   0.746  13.336 -0.9298  0.1119  1.3567
85520SOL    HW274553  10.843   0.696  13.243  1.1920  0.1045 -1.1928
85521SOL     OW74554   5.016   2.128   5.433  0.0427 -0.0301 -0.0551
85521SOL    HW174555   5.048   2.161   5.517  0.6469  0.0288 -0.3058
85521SOL    HW274556   4.942   2.186   5.412  0.3464  0.4141  0.0875
85522SOL     OW74557   4.000  12.803  13.692  0.4973 -0.1033 -0.2122
85522SOL    HW174558   4.032  12.833  13.777 -0.2666  0.1904 -0.0205
85522SOL    HW274559   4.023  12.873  13.631 -1.7249  1.2001  0.3197
85523SOL     OW74560   7.053   4.396   1.304 -0.3669  0.4303  0.4033
85523SOL    HW174561   7.133   4.428   1.346  0.2395  0.0628 -0.4367
85523SOL    HW274562   7.027   4.468   1.246 -2.4850  1.9045  2.9557
85524SOL     OW74563  11.174   1.914  13.228  0.8209 -0.1154 -0.4529
85524SOL    HW174564  11.108   1.864  13.179 -0.7544 -2.3081  3.4525
85524SOL    HW274565  11.258   1.882  13.194 -0.1747 -2.1864 -1.1379
85525SOL     OW74566   6.455   2.645  10.219 -0.5531  0.5313 -0.2418
85525SOL    HW174567   6.416   2.564  10.252 -0.0354 -0.0217 -0.9385
85525SOL    HW274568   6.484   2.692  10.297 -0.7372 -0.0140  0.1619
85526SOL     OW74569   2.096  10.846  10.260 -0.5340  0.5472  0.2566
85526SOL    HW174570   2.061  10.928  10.295 -0.7983 -0.6155  2.8906
85526SOL    HW274571   2.042  10.828  10.183 -3.1391  0.8817  1.8781
85527SOL     OW74572   0.158   9.297  12.975 -0.1508  0.0140  0.2670
85527SOL    HW174573   0.166   9.376  13.029 -0.7932 -0.1540  0.6173
85527SOL    HW274574   0.234   9.300  12.917  1.2647 -0.4137  1.9859
85528SOL     OW74575   1.267  11.060  10.838  0.2105 -0.4855 -0.1440
85528SOL    HW174576   1.300  10.971  10.848 -0.2946 -0.4529  2.2969
85528SOL    HW274577   1.296  11.106  10.917 -1.6825  0.8306 -0.1588
85529SOL     OW74578   6.532   8.801   5.082 -0.7796  0.5084 -0.0388
85529SOL    HW174579   6.505   8.710   5.066 -1.6090  0.7697 -0.1871
85529SOL    HW274580   6.543   8.806   5.177 -0.2792  0.1379 -0.0719
85530SOL     OW74581   8.293   6.611   2.446 -0.3730 -0.6556 -0.3148
85530SOL    HW174582   8.342   6.643   2.521  1.3425 -0.9104 -1.2613
85530SOL    HW274583   8.286   6.686   2.388 -3.0694 -0.0186  0.6855
85531SOL     OW74584   1.774  13.912   4.641 -0.2698  0.1592 -0.2609
85531SOL    HW174585   1.777  13.829   4.593  0.0727  1.7159 -3.1555
85531SOL    HW274586   1.703  13.961   4.600  0.1727  1.6801  0.7152
85532SOL     OW74587   3.764  12.507   9.149 -0.7467  0.3987 -0.0186
85532SOL    HW174588   3.783  12.458   9.069  1.0378 -0.0454  0.6129
85532SOL    HW274589   3.714  12.583   9.120 -1.9918 -0.8500 -1.2532
85533SOL     OW74590   9.340   0.276   8.858 -0.4899  0.2254 -0.0364
85533SOL    HW174591   9.303   0.196   8.896 -3.0706  1.2553 -0.1842
85533SOL    HW274592   9.435   0.266   8.869 -0.8426 -1.9076  1.7928
85534SOL     OW74593   1.007   2.786   9.701 -0.2041  0.0061 -0.1146
85534SOL    HW174594   1.041   2.745   9.780 -2.4102  1.6459  1.8468
85534SOL    HW274595   0.930   2.734   9.679  1.3993 -1.5586 -2.3894
85535SOL     OW74596  10.693  13.540   7.740  0.1187 -0.6764  0.1159
85535SOL    HW174597  10.703  13.594   7.662 -0.5109  0.9018  1.0898
85535SOL    HW274598  10.782  13.529   7.773  0.2249  0.0603  0.0905
85536SOL     OW74599  12.454   9.518   0.156 -0.1245 -0.4119 -0.3475
85536SOL    HW174600  12.483   9.609   0.150  0.7924 -0.7224 -0.9361
85536SOL    HW274601  12.359   9.523   0.160 -0.0567  0.6185  0.7701
85537SOL     OW74602   4.282   7.883  10.456  0.0601 -0.0131 -0.3149
85537SOL    HW174603   4.323   7.830  10.525 -2.8207 -0.9770  0.7894
85537SOL    HW274604   4.228   7.821  10.407 -0.9169  1.3433 -1.0051
85538SOL     OW74605   1.447   5.870   2.113 -0.0818 -0.5357 -0.3678
85538SOL    HW174606   1.357   5.871   2.148 -0.0631 -0.3826 -0.3213
85538SOL    HW274607   1.448   5.943   2.051  1.6553  3.5222  3.8178
85539SOL     OW74608  12.152   9.721   8.772  0.7505  0.3108  0.1074
85539SOL    HW174609  12.122   9.681   8.853 -1.7289  2.2021  0.2408
85539SOL    HW274610  12.118   9.664   8.703  0.5559  0.1163  0.3630
85540SOL     OW74611   5.069   3.438   6.285 -0.2429 -0.2196  0.0385
85540SOL    HW174612   5.105   3.438   6.197  0.0150 -0.2321  0.1435
85540SOL    HW274613   5.099   3.355   6.323  0.9089  0.4583  0.6530
85541SOL     OW74614  12.782   0.278   2.737  0.1833  0.6841 -0.2123
85541SOL    HW174615  12.802   0.186   2.721 -0.2131  0.9550 -2.5039
85541SOL    HW274616  12.764   0.282   2.831  0.3713 -1.5342 -0.0305
85542SOL     OW74617   9.358   9.779   7.454 -0.0695 -0.0114  0.5623
85542SOL    HW174618   9.351   9.791   7.360 -0.8306 -1.9384  0.3287
85542SOL    HW274619   9.268   9.788   7.486 -0.2849 -2.1909  0.6845
85543SOL     OW74620   6.342   0.219   2.278 -0.4395  0.0206 -0.1955
85543SOL    HW174621   6.397   0.201   2.355 -0.5569  1.9580  0.3844
85543SOL    HW274622   6.400   0.265   2.217 -1.1483  1.2958  0.0554
85544SOL     OW74623  11.839   5.038   1.934  0.0444  0.3708 -0.0808
85544SOL    HW174624  11.822   5.115   1.988 -2.5094  0.3519 -0.7236
85544SOL    HW274625  11.771   4.976   1.959  1.6245 -1.4562 -0.0732
85545SOL     OW74626   1.420   1.270  13.679  0.1394 -0.2450 -0.1398
85545SOL    HW174627   1.363   1.335  13.720  0.0855  0.2945 -1.0339
85545SOL    HW274628   1.459   1.223  13.752 -0.6850  0.0426  0.5086
85546SOL     OW74629  11.582   9.230   9.758 -0.6152  0.2863  0.1859
85546SOL    HW174630  11.536   9.285   9.821 -1.6606  0.5543 -0.7851
85546SOL    HW274631  11.513   9.192   9.703  0.2020 -0.6736 -0.2173
85547SOL     OW74632  11.344  12.260   8.670 -0.0131  0.2345 -0.1680
85547SOL    HW174633  11.381  12.195   8.730  0.1962  0.2770 -0.2507
85547SOL    HW274634  11.269  12.215   8.630  0.0214  0.1055 -0.0886
85548SOL     OW74635  10.035   4.844   7.822  0.8185 -0.1577  0.0196
85548SOL    HW174636   9.980   4.846   7.743  0.3358 -0.2162  0.3520
85548SOL    HW274637  10.094   4.918   7.812  0.2894  0.2582 -0.0659
85549SOL     OW74638   3.890   6.721   7.569  0.3448  0.4123 -0.4531
85549SOL    HW174639   3.806   6.700   7.527 -1.1988  0.1487  2.5298
85549SOL    HW274640   3.934   6.636   7.577 -1.5099 -0.4359  2.5957
85550SOL     OW74641   6.003   7.558  13.300 -0.7570  0.3951  0.2407
85550SOL    HW174642   6.020   7.523  13.388 -1.3191 -0.1563  0.1361
85550SOL    HW274643   6.090   7.573  13.264 -0.5162  0.3254  0.7728
85551SOL     OW74644   5.148   5.559   7.554 -0.1294 -0.6799 -0.2742
85551SOL    HW174645   5.214   5.622   7.525 -2.4656  2.0975 -0.0027
85551SOL    HW274646   5.067   5.610   7.560 -1.4312 -2.7763  3.8170
85552SOL     OW74647   8.087  11.190  12.719 -0.6061 -0.6414 -0.2847
85552SOL    HW174648   8.041  11.118  12.763 -0.7469 -1.3329 -1.5073
85552SOL    HW274649   8.018  11.238  12.674 -0.6234  0.7930  1.1862
85553SOL     OW74650   2.519   8.547   9.206 -0.4632  0.1746  0.2445
85553SOL    HW174651   2.507   8.641   9.207  0.3448  0.2905  0.2159
85553SOL    HW274652   2.464   8.514   9.278 -1.2872  0.5867 -0.1928
85554SOL     OW74653   7.696   2.466  13.338 -0.6556 -0.1492 -0.1498
85554SOL    HW174654   7.628   2.496  13.398  0.4390  0.3269  0.9116
85554SOL    HW274655   7.769   2.526  13.354  0.8824 -2.1087  0.5207
85555SOL     OW74656  11.013   5.922   3.926 -0.4452 -0.5378 -0.1499
85555SOL    HW174657  11.036   5.867   4.000 -1.8164 -0.9152  0.0057
85555SOL    HW274658  10.918   5.927   3.927 -0.4077  0.8815 -0.8559
85556SOL     OW74659   9.104   5.583   7.373 -0.0450 -0.1680 -0.4642
85556SOL    HW174660   9.090   5.581   7.468  0.5426 -1.1528 -0.3922
85556SOL    HW274661   9.107   5.677   7.352 -0.0399  0.0625  0.5039
85557SOL     OW74662   7.569   1.829   0.565 -0.0819 -0.1657  0.3054
85557SOL    HW174663   7.653   1.832   0.518 -0.7527  3.3658 -1.0295
85557SOL    HW274664   7.508   1.793   0.501 -0.5217  2.3546 -0.8006
85558SOL     OW74665   1.485   3.267  13.676  0.3633 -0.4226  0.1017
85558SOL    HW174666   1.412   3.213  13.705  0.7611 -1.1372 -0.1897
85558SOL    HW274667   1.473   3.275  13.581  0.3749 -0.0996  0.1264
85559SOL     OW74668   5.515  13.343   4.071  0.7288 -0.2090  0.6987
85559SOL    HW174669   5.553  13.395   4.001 -0.6565 -0.1047 -0.0309
85559SOL    HW274670   5.530  13.252   4.044  0.3032 -0.1685  0.3065
85560SOL     OW74671  10.391  14.003  12.330  0.1805  0.4474 -0.1250
85560SOL    HW174672  10.304  13.987  12.294  0.0405 -0.3661  0.5488
85560SOL    HW274673  10.398  14.099  12.333 -0.3993  0.5264 -0.8498
85561SOL     OW74674  10.764   1.281   7.235  0.5007  0.6202  0.0812
85561SOL    HW174675  10.670   1.266   7.238  0.6452 -0.2495  2.9658
85561SOL    HW274676  10.774   1.363   7.186 -1.7896  1.0842  0.2945
85562SOL     OW74677  10.575   8.434   6.921 -0.2913  0.6426  0.5559
85562SOL    HW174678  10.655   8.487   6.913 -0.7380  1.2723  0.1541
85562SOL    HW274679  10.542   8.454   7.008  0.2903 -0.0644  0.9501
85563SOL     OW74680   9.265  12.577   2.153 -0.2599 -0.6623 -0.5564
85563SOL    HW174681   9.279  12.568   2.248 -1.3241  0.1140 -0.3052
85563SOL    HW274682   9.197  12.513   2.133  0.3921 -1.2521 -0.9215
85564SOL     OW74683   7.217   8.496  13.906  0.1176  0.4068 -0.1389
85564SOL    HW174684   7.233   8.551  13.829  1.0989 -0.7205 -0.7592
85564SOL    HW274685   7.296   8.506  13.959  1.9362 -2.9806 -1.8770
85565SOL     OW74686  12.231   5.427   8.747  0.4921 -0.5284 -0.4590
85565SOL    HW174687  12.204   5.336   8.760  3.3630 -1.3914  0.1608
85565SOL    HW274688  12.245   5.434   8.652  0.3181 -0.7328 -0.5031
85566SOL     OW74689  12.186   8.561  13.622  0.5034  0.1030  0.1577
85566SOL    HW174690  12.159   8.647  13.589 -2.5145 -1.0902 -0.8365
85566SOL    HW274691  12.124   8.542  13.692  0.7624 -1.4635 -0.0035
85567SOL     OW74692  13.065  11.271  13.563 -0.1675  0.8164 -0.2243
85567SOL    HW174693  13.042  11.201  13.502  2.8760 -0.7293  0.2129
85567SOL    HW274694  12.981  11.296  13.603 -1.4687 -2.4455 -0.5504
85568SOL     OW74695   5.632   9.322   9.999  0.1936 -0.0956 -0.9138
85568SOL    HW174696   5.710   9.347  10.049 -1.9382  1.5042  1.9156
85568SOL    HW274697   5.584   9.404   9.987 -3.1042 -1.4419  1.4100
85569SOL     OW74698  11.304  13.569   0.977 -0.2634 -0.0374 -0.1718
85569SOL    HW174699  11.268  13.650   1.012  1.2407  1.3709 -1.6712
85569SOL    HW274700  11.250  13.549   0.901  0.3427  0.4949 -0.7550
85570SOL     OW74701   0.717   9.391  12.866  0.0738 -0.4203 -0.0229
85570SOL    HW174702   0.711   9.484  12.847  0.1477 -0.4050  0.0267
85570SOL    HW274703   0.717   9.386  12.961 -2.2707 -0.6108  0.0333
85571SOL     OW74704   3.929   2.022   5.768 -0.6983 -0.2867  0.1884
85571SOL    HW174705   3.978   2.054   5.692 -0.8194 -1.6373 -0.4927
85571SOL    HW274706   3.965   1.935   5.784 -1.0056 -0.2049  1.3979
85572SOL     OW74707   3.827   1.703   9.024 -1.0230  0.1762  0.1040
85572SOL    HW174708   3.886   1.636   8.989 -1.3973 -0.4416  0.6159
85572SOL    HW274709   3.782   1.739   8.947 -2.3298 -1.6236 -0.0384
85573SOL     OW74710   0.260   5.567   1.751 -0.2891  0.1928  0.2097
85573SOL    HW174711   0.220   5.630   1.690  1.6001  0.4869 -0.7965
85573SOL    HW274712   0.302   5.502   1.694 -0.4362 -0.8279  1.2344
85574SOL     OW74713  10.584  13.681   2.534 -0.6198  0.4076 -0.2440
85574SOL    HW174714  10.525  13.744   2.493 -1.6267  0.4213  1.1578
85574SOL    HW274715  10.593  13.611   2.470 -1.5366  0.7846 -0.8006
85575SOL     OW74716   2.064  12.376  12.128  0.0690  0.4096 -0.2544
85575SOL    HW174717   2.100  12.298  12.086 -2.0237  0.4552 -2.3488
85575SOL    HW274718   2.084  12.365  12.221  0.0497 -2.5123 -0.5034
85576SOL     OW74719  12.882  11.779   6.855  0.5165  0.3206  0.3436
85576SOL    HW174720  12.935  11.784   6.934 -0.7471 -1.9342  1.4032
85576SOL    HW274721  12.818  11.710   6.872 -0.3701  0.3622 -2.3163
85577SOL     OW74722   5.113   1.755   7.851  0.0967  0.4946  0.3456
85577SOL    HW174723   5.019   1.772   7.861  0.4226  2.7122  0.1089
85577SOL    HW274724   5.148   1.763   7.940  0.2154  0.8231  0.2713
85578SOL     OW74725   8.529   0.415  13.522  0.5349 -1.0402 -0.2501
85578SOL    HW174726   8.449   0.462  13.545  0.5567 -1.0756 -0.0991
85578SOL    HW274727   8.598   0.481  13.531  0.3980 -0.6998 -1.4813
85579SOL     OW74728  14.121   7.510  10.266 -0.3254  0.2175 -0.1775
85579SOL    HW174729  14.167   7.580  10.219 -1.2861  0.9463 -0.0601
85579SOL    HW274730  14.080   7.459  10.196  1.7900 -1.3282 -0.4003
85580SOL     OW74731   6.194   4.923  11.647  0.3117 -0.6977  0.1680
85580SOL    HW174732   6.129   4.865  11.609 -1.2962  2.0881 -1.7010
85580SOL    HW274733   6.250   4.948  11.573 -0.6931  2.0741  0.2117
85581SOL     OW74734   8.457   9.338   3.192 -0.4098 -0.3177  0.1413
85581SOL    HW174735   8.513   9.393   3.246 -0.1494 -1.3693  0.9692
85581SOL    HW274736   8.483   9.359   3.102  0.3353  0.2204  0.4686
85582SOL     OW74737   1.082  10.540   0.770 -0.0967  0.2884  0.5801
85582SOL    HW174738   0.986  10.549   0.771 -0.1765 -0.4324  0.0550
85582SOL    HW274739   1.110  10.579   0.853 -0.8548  0.3499  0.8220
85583SOL     OW74740   7.916   2.907   3.068 -0.0503 -0.1284  0.0397
85583SOL    HW174741   7.891   2.945   2.984 -1.6791 -1.5314 -0.1743
85583SOL    HW274742   7.849   2.840   3.085 -0.0551  0.4296  2.6890
85584SOL     OW74743   0.258   1.592   7.656  0.0877  0.0402  0.2865
85584SOL    HW174744   0.283   1.678   7.621  0.3964 -0.5290 -0.9163
85584SOL    HW274745   0.317   1.578   7.730  0.9717  0.2582 -0.3654
85585SOL     OW74746   0.838   7.182   8.173 -0.0030  0.4240 -0.4500
85585SOL    HW174747   0.862   7.271   8.147 -1.6843  0.8289 -0.7263
85585SOL    HW274748   0.757   7.164   8.125 -0.8900 -0.4239  1.3004
85586SOL     OW74749  11.188  12.817   7.937 -0.2813 -0.5998 -0.7429
85586SOL    HW174750  11.165  12.842   8.027 -2.1766  0.7559 -1.5382
85586SOL    HW274751  11.183  12.722   7.936 -2.3009 -0.5411  0.1098
85587SOL     OW74752  12.135   8.854   8.667  0.1194 -0.0179 -0.1889
85587SOL    HW174753  12.119   8.772   8.715 -1.5411  1.1216  1.3353
85587SOL    HW274754  12.084   8.844   8.586  1.9722 -1.4636 -1.2674
85588SOL     OW74755   3.883   1.205   1.173 -0.3798  0.5309 -0.0855
85588SOL    HW174756   3.963   1.221   1.222  0.3593 -1.3122 -0.6286
85588SOL    HW274757   3.814   1.245   1.227  0.6502  0.3899  1.3954
85589SOL     OW74758   2.742   6.516  13.642 -0.3211  0.0746  0.7541
85589SOL    HW174759   2.700   6.600  13.664 -0.8053 -0.0290  0.2632
85589SOL    HW274760   2.668   6.458  13.623  0.0424 -0.2080  0.2007
85590SOL     OW74761   2.424   0.384  11.799  0.0908 -0.6290 -0.2540
85590SOL    HW174762   2.399   0.294  11.822 -2.7923 -0.0181 -0.5847
85590SOL    HW274763   2.390   0.437  11.870 -0.0501  0.3459 -1.0275
85591SOL     OW74764  13.819   7.030  13.003 -0.1152 -0.5372  0.0191
85591SOL    HW174765  13.833   7.043  12.909  0.4421 -0.9292  0.0414
85591SOL    HW274766  13.781   7.113  13.034 -2.0175 -1.0307 -0.8724
85592SOL     OW74767  13.934   4.796   7.285  0.0009 -0.6553  0.0200
85592SOL    HW174768  13.876   4.862   7.249 -0.1807 -1.0861 -0.4866
85592SOL    HW274769  13.951   4.825   7.375  1.3445  1.0242 -0.7188
85593SOL     OW74770  13.110   3.110  11.795  0.0582  0.3961  0.0438
85593SOL    HW174771  13.179   3.113  11.730 -1.3833 -0.7883 -1.6464
85593SOL    HW274772  13.152   3.075  11.874  1.6731  1.1353 -0.4536
85594SOL     OW74773  12.582   4.249  13.770 -0.3933 -0.0809 -0.0310
85594SOL    HW174774  12.661   4.197  13.787 -1.0905 -1.1207  0.0890
85594SOL    HW274775  12.526   4.191  13.719 -0.6159  1.0637 -1.1376
85595SOL     OW74776   5.145  13.967   1.213  0.6227 -0.0761  0.2108
85595SOL    HW174777   5.194  13.926   1.283  1.8137  1.1010  0.1039
85595SOL    HW274778   5.080  13.901   1.187  2.5166 -1.9181 -0.0591
85596SOL     OW74779  12.267  13.413   6.333 -0.2094 -0.4252  0.2580
85596SOL    HW174780  12.296  13.359   6.406 -0.1641 -0.8577 -0.0696
85596SOL    HW274781  12.291  13.362   6.255  0.9300  0.6123 -0.0992
85597SOL     OW74782   9.993   0.361   0.680  0.1037  0.1203 -0.0955
85597SOL    HW174783   9.956   0.447   0.701 -1.5764 -0.9811  1.7311
85597SOL    HW274784   9.979   0.351   0.586 -2.3629  0.6459  0.1640
85598SOL     OW74785  10.172  11.946  13.098  0.5237  0.6303 -0.3667
85598SOL    HW174786  10.099  11.997  13.064  0.7873  1.2472 -0.0199
85598SOL    HW274787  10.162  11.860  13.057 -1.7365 -0.0793  1.4677
85599SOL     OW74788   5.449  10.178   5.059 -0.0892  0.8936  0.6936
85599SOL    HW174789   5.481  10.110   5.118 -0.2945  0.7396  0.6298
85599SOL    HW274790   5.356  10.160   5.050 -0.0871  1.0007  0.4379
85600SOL     OW74791  13.674  11.935   9.884  0.1137  0.0254 -0.4682
85600SOL    HW174792  13.670  11.926   9.789  1.8940 -0.1979 -0.5691
85600SOL    HW274793  13.670  11.845   9.917  1.2058 -0.0377 -0.4618
85601SOL     OW74794  12.690   0.172  10.158  0.2259  0.2405 -0.5277
85601SOL    HW174795  12.657   0.148  10.245 -1.4790 -0.5449 -1.3310
85601SOL    HW274796  12.737   0.094  10.128 -1.2865 -0.4524 -1.2425
85602SOL     OW74797   2.498   8.244   4.080 -0.6100 -0.6005  0.8162
85602SOL    HW174798   2.571   8.187   4.105  0.7045  0.7719  0.3134
85602SOL    HW274799   2.524   8.331   4.112 -1.0765  0.3023 -1.1203
85603SOL     OW74800   5.266   7.471  12.585  0.4653  0.0177  0.3018
85603SOL    HW174801   5.251   7.457  12.491 -0.7645 -0.5555  0.5559
85603SOL    HW274802   5.269   7.383  12.622 -1.2130  0.2360  1.0699
85604SOL     OW74803   4.362  11.304   3.428  0.5058 -0.7948 -0.1502
85604SOL    HW174804   4.338  11.211   3.435 -0.1773 -0.6852 -0.9031
85604SOL    HW274805   4.286  11.351   3.460  0.5938 -0.4780 -0.4042
85605SOL     OW74806   6.825   9.611   2.411  0.2386 -0.7708  0.5421
85605SOL    HW174807   6.874   9.641   2.335  0.1510  0.2245  0.8728
85605SOL    HW274808   6.736   9.644   2.398  0.5055  0.5127  1.6616
85606SOL     OW74809   0.815  12.155   8.436 -0.0154 -0.6939  0.2283
85606SOL    HW174810   0.757  12.162   8.360 -0.8684 -1.3936  0.7940
85606SOL    HW274811   0.756  12.155   8.511  0.7468 -1.0546  0.8409
85607SOL     OW74812  14.076  12.233  10.946 -0.0022  0.1276  0.2544
85607SOL    HW174813  14.097  12.146  10.912  0.1994  0.2606  0.0389
85607SOL    HW274814  13.980  12.236  10.947 -0.0204  0.4062 -1.0385
85608SOL     OW74815   7.751   1.046   0.439 -0.3594 -0.0677  0.6051
85608SOL    HW174816   7.835   1.042   0.393 -1.0326 -2.0546 -0.5502
85608SOL    HW274817   7.738   0.957   0.473 -2.3440 -0.0042  0.1110
85609SOL     OW74818   0.260   3.011   8.500  0.2797 -0.5577 -0.0103
85609SOL    HW174819   0.329   3.027   8.437  0.3062 -0.6081  0.0053
85609SOL    HW274820   0.210   2.938   8.464 -0.3389  0.0899 -0.4898
85610SOL     OW74821   3.269   6.068  10.214  0.1611  0.4004 -0.1867
85610SOL    HW174822   3.218   6.148  10.225 -0.9520 -0.4725  1.3967
85610SOL    HW274823   3.204   5.999  10.205  1.0183 -0.6720  1.2904
85611SOL     OW74824   5.966   7.070   9.219  0.1451  0.0596  0.2292
85611SOL    HW174825   5.942   7.147   9.270  0.0854 -0.0035  0.2979
85611SOL    HW274826   6.062   7.076   9.210  0.5101 -1.1909  2.4662
85612SOL     OW74827   2.248   8.689   6.450 -0.3910 -0.1801  0.0192
85612SOL    HW174828   2.228   8.655   6.537  2.1868 -0.5839  0.5226
85612SOL    HW274829   2.289   8.774   6.466 -2.1657  0.9342 -0.9849
85613SOL     OW74830  13.780   7.267   9.329  0.0251 -0.0277  0.0407
85613SOL    HW174831  13.686   7.266   9.312 -0.6852 -0.6471  3.3099
85613SOL    HW274832  13.797   7.355   9.364  0.5618 -0.1293  0.0547
85614SOL     OW74833   9.933  13.383   5.947 -0.1543  0.0653 -0.0131
85614SOL    HW174834   9.878  13.336   5.885  0.8799 -0.9985 -0.1539
85614SOL    HW274835   9.872  13.418   6.012 -1.0296 -0.7808 -0.3661
85615SOL     OW74836  12.683   1.019   7.339  0.1730 -0.2821  0.1910
85615SOL    HW174837  12.769   1.022   7.380  0.5230  0.8656 -0.6010
85615SOL    HW274838  12.647   1.106   7.352  0.0516 -0.0773 -1.4094
85616SOL     OW74839   2.328  10.504   8.137 -0.0617 -0.2760 -0.2516
85616SOL    HW174840   2.376  10.568   8.085 -0.0422  1.3298  1.6278
85616SOL    HW274841   2.255  10.554   8.174 -0.0756 -1.3389  1.2319
85617SOL     OW74842  13.611  12.420   5.819 -0.4273  0.6716 -0.3222
85617SOL    HW174843  13.519  12.403   5.796 -0.3680  0.9644 -0.7863
85617SOL    HW274844  13.631  12.355   5.886 -0.6143 -0.1916 -1.0906
85618SOL     OW74845   0.981   0.752   4.785 -0.0727 -1.0415  0.1367
85618SOL    HW174846   0.886   0.738   4.786 -0.4945  1.3546  0.7056
85618SOL    HW274847   0.995   0.813   4.712  0.7773 -0.0951  1.0552
85619SOL     OW74848   5.198   7.471  11.877  0.2822  0.2842  0.6495
85619SOL    HW174849   5.164   7.508  11.796 -0.5597  0.5270  1.0980
85619SOL    HW274850   5.204   7.546  11.936 -1.3868 -0.2254  1.5490
85620SOL     OW74851   7.550  12.207   5.986 -0.0379 -0.0044  0.0800
85620SOL    HW174852   7.600  12.260   5.924 -0.7218 -0.2791 -0.7230
85620SOL    HW274853   7.582  12.235   6.072  0.0591  1.2595 -0.3441
85621SOL     OW74854  11.748   7.763  12.077  0.1831 -0.0929 -0.1981
85621SOL    HW174855  11.727   7.816  12.000 -2.1862 -0.5422  0.0723
85621SOL    HW274856  11.763   7.827  12.147  0.8044  0.2678 -0.6455
85622SOL     OW74857  11.442   3.353  11.949  0.2539 -0.0991  0.1462
85622SOL    HW174858  11.373   3.299  11.910 -1.2753  0.7677  1.5116
85622SOL    HW274859  11.403   3.386  12.030  2.6722 -0.3836  1.4897
85623SOL     OW74860   4.606  12.813   8.229 -0.1547 -0.1191  0.3983
85623SOL    HW174861   4.598  12.834   8.136 -0.2601 -1.9735 -0.0361
85623SOL    HW274862   4.564  12.887   8.274  0.2721  1.0077 -0.9874
85624SOL     OW74863   5.433   2.465   7.723  0.3532 -0.1999  0.1637
85624SOL    HW174864   5.383   2.482   7.643  1.8113 -0.2947 -0.8158
85624SOL    HW274865   5.422   2.371   7.739 -1.6734  0.1837  1.3369
85625SOL     OW74866   9.155   6.411  11.766  0.4444  0.0279  0.3745
85625SOL    HW174867   9.152   6.406  11.862 -0.4902  0.3698  0.3650
85625SOL    HW274868   9.085   6.353  11.737 -1.1712  2.0732 -0.0303
85626SOL     OW74869   4.684  11.388  12.103  0.1879 -1.1972  0.5732
85626SOL    HW174870   4.737  11.425  12.033 -0.1756 -0.3367  0.7485
85626SOL    HW274871   4.623  11.329  12.058  0.2058 -0.9391  0.2068
85627SOL     OW74872   6.675   3.885   0.995 -0.1747 -0.0563  0.0666
85627SOL    HW174873   6.652   3.976   0.979 -0.9827 -0.1212  0.7939
85627SOL    HW274874   6.671   3.875   1.090 -1.4840 -1.1930 -0.0753
85628SOL     OW74875   2.827   8.822   5.360  0.2739  0.0329  0.2077
85628SOL    HW174876   2.800   8.882   5.290  1.1210 -0.8126 -0.8756
85628SOL    HW274877   2.745   8.785   5.392 -0.0637 -1.5691 -2.1964
85629SOL     OW74878   3.630  10.842   8.656  0.5421  0.0628  0.1543
85629SOL    HW174879   3.651  10.791   8.577 -0.5140 -1.2505  0.6901
85629SOL    HW274880   3.684  10.803   8.725  0.8921  0.7114  0.2563
85630SOL     OW74881   7.804   7.440   7.182  0.0856  0.5104  0.2431
85630SOL    HW174882   7.764   7.433   7.268  0.1650 -0.4168  0.2182
85630SOL    HW274883   7.812   7.534   7.166  0.5193  0.6972  1.4510
85631SOL     OW74884  13.329   5.847   4.800  0.3445  0.1404  0.5450
85631SOL    HW174885  13.244   5.864   4.840 -0.0589  0.6982 -0.5317
85631SOL    HW274886  13.334   5.751   4.794 -1.1316  0.1378 -1.3109
85632SOL     OW74887  10.683   9.451  13.510 -0.3730 -0.3383 -0.1623
85632SOL    HW174888  10.733   9.505  13.571  0.9944 -1.4901 -0.1975
85632SOL    HW274889  10.610   9.506  13.483  1.2545  1.7053 -0.6608
85633SOL     OW74890  12.931   8.434   0.944 -0.0748  0.1350  0.0804
85633SOL    HW174891  12.973   8.376   1.009  0.1677 -0.1178 -0.3006
85633SOL    HW274892  12.995   8.503   0.928  0.6901 -0.8589 -1.3465
85634SOL     OW74893   1.272  13.267  10.979  0.2665  0.3901  0.5739
85634SOL    HW174894   1.281  13.313  11.062  0.1990  0.1281  0.7295
85634SOL    HW274895   1.178  13.250  10.971  0.3080  0.1385  0.5985
85635SOL     OW74896   9.838  13.243   4.763  0.4772 -0.8551 -0.1069
85635SOL    HW174897   9.808  13.159   4.796 -1.9868  0.6142  1.7221
85635SOL    HW274898   9.865  13.292   4.841  2.0025  0.0531 -1.1332
85636SOL     OW74899   0.559   7.130   6.502  0.2678  0.2176 -0.0936
85636SOL    HW174900   0.631   7.191   6.484 -1.0021  1.4210 -1.3121
85636SOL    HW274901   0.591   7.046   6.470  1.3210  0.6242 -0.1510
85637SOL     OW74902  11.603  12.463   1.115  0.4837  0.0956 -0.2927
85637SOL    HW174903  11.600  12.415   1.033  1.0190  1.8484 -1.4022
85637SOL    HW274904  11.563  12.548   1.094  0.4568  0.5127  1.3102
85638SOL     OW74905   8.499   0.753  13.735  0.3004 -0.0073  0.0206
85638SOL    HW174906   8.417   0.724  13.696  0.6766  0.2809 -1.0345
85638SOL    HW274907   8.481   0.843  13.764  0.7234  0.7686 -1.9163
85639SOL     OW74908   1.107  10.784   9.280 -0.2007  0.1223 -0.1891
85639SOL    HW174909   1.048  10.852   9.247 -0.5125  0.5819  1.2075
85639SOL    HW274910   1.193  10.825   9.283 -0.3020  0.3167  0.1983
85640SOL     OW74911   1.578   7.936   6.678  0.3088  0.4255  0.1610
85640SOL    HW174912   1.599   8.021   6.638 -0.9962  1.4437  1.5429
85640SOL    HW274913   1.484   7.938   6.692  0.5077 -0.4423  1.9759
85641SOL     OW74914  11.158   3.107   7.426 -0.3698  0.3849  0.1675
85641SOL    HW174915  11.169   3.146   7.513  0.1770  0.5888  0.0111
85641SOL    HW274916  11.232   3.140   7.375 -1.3636  1.2704 -0.7550
85642SOL     OW74917   3.364   5.871   0.056  0.0356  0.0749  0.3658
85642SOL    HW174918   3.332   5.811  -0.012 -1.1957 -1.6555  2.3597
85642SOL    HW274919   3.286   5.893   0.107  0.6660  2.5612  0.3628
85643SOL     OW74920   7.764   4.471   3.638  0.0071  0.1953 -0.0056
85643SOL    HW174921   7.830   4.435   3.698  1.1858  0.5006 -1.0751
85643SOL    HW274922   7.680   4.446   3.677  0.7576 -1.2158  0.7944
85644SOL     OW74923   9.793   4.469   8.355 -0.4169  0.0741 -0.1994
85644SOL    HW174924   9.787   4.501   8.445  0.8331 -0.8245  0.2411
85644SOL    HW274925   9.745   4.387   8.355  0.9166 -0.7464  0.1023
85645SOL     OW74926   5.131   1.645   4.936  0.9432 -0.9905  0.4754
85645SOL    HW174927   5.127   1.734   4.900  1.3901 -1.4086 -0.6392
85645SOL    HW274928   5.137   1.659   5.031  0.0017  0.1385  0.3908
85646SOL     OW74929   1.720   5.873   2.554  0.3095 -0.6153 -0.5918
85646SOL    HW174930   1.759   5.791   2.526 -0.7462 -1.0278 -0.8940
85646SOL    HW274931   1.766   5.896   2.635  0.3490 -1.6945 -0.3017
85647SOL     OW74932   0.226   9.017   2.024  0.2264 -0.0453 -0.2997
85647SOL    HW174933   0.201   8.928   2.051  0.3930  0.6450  2.4314
85647SOL    HW274934   0.317   9.008   1.994  0.3129 -0.7848  0.1523
85648SOL     OW74935  11.060  14.149  12.962 -0.1570 -0.0727 -0.9478
85648SOL    HW174936  11.081  14.211  13.031  0.0673 -1.1836  0.0279
85648SOL    HW274937  11.111  14.177  12.887  1.5966 -0.2826  0.1126
85649SOL     OW74938   7.947   6.613   0.303 -0.5165  0.3007 -0.0952
85649SOL    HW174939   8.036   6.641   0.327 -0.7851  1.0244  0.0625
85649SOL    HW274940   7.905   6.594   0.387 -0.8193  0.9013 -0.1080
85650SOL     OW74941   9.291   8.028   2.481 -0.0528 -0.2946 -0.1081
85650SOL    HW174942   9.254   8.005   2.396  0.2872 -1.1322 -0.0421
85650SOL    HW274943   9.271   7.952   2.537 -0.7979  0.4929  0.7314
85651SOL     OW74944  13.454   3.880  10.632 -0.0753  0.6035  0.1625
85651SOL    HW174945  13.535   3.833  10.650 -0.0533  1.1971  1.7438
85651SOL    HW274946  13.415   3.833  10.558  0.3446 -1.4135  1.1550
85652SOL     OW74947   0.850   4.309   6.619 -0.1132  0.1286 -0.4864
85652SOL    HW174948   0.803   4.389   6.640 -0.6287 -0.4817  0.7704
85652SOL    HW274949   0.782   4.246   6.595  0.2461 -0.0794 -0.9707
85653SOL     OW74950   8.395   1.904   8.981 -0.2322  0.4259 -0.4121
85653SOL    HW174951   8.457   1.972   8.955  1.3286 -0.7882 -0.0310
85653SOL    HW274952   8.405   1.835   8.915 -1.2211  0.2145 -0.3595
85654SOL     OW74953  12.148   2.345   2.579  0.4175 -0.3019  0.5838
85654SOL    HW174954  12.175   2.285   2.649  2.2760  1.1112  1.1733
85654SOL    HW274955  12.068   2.386   2.612  0.5674 -0.5906  1.3203
85655SOL     OW74956   4.477  12.621   2.344  0.4477  0.9239  0.3338
85655SOL    HW174957   4.389  12.649   2.367 -0.3244 -1.3404  0.3806
85655SOL    HW274958   4.493  12.544   2.399  1.2028 -0.5721 -1.8355
85656SOL     OW74959   8.799  12.292   8.766  0.4768  0.0661  0.1346
85656SOL    HW174960   8.736  12.352   8.727 -0.0219  0.5379  1.6148
85656SOL    HW274961   8.807  12.220   8.702 -0.5117  0.6657 -0.6820
85657SOL     OW74962  12.401   7.319   0.842  0.0857 -0.2950 -0.3399
85657SOL    HW174963  12.433   7.358   0.924  0.7902 -1.4076 -0.0606
85657SOL    HW274964  12.475   7.267   0.810  0.0106  0.5563 -1.9951
85658SOL     OW74965  12.794   9.888   9.002  0.6038 -0.6159 -0.0545
85658SOL    HW174966  12.836   9.960   8.956  0.8466 -0.7233 -0.0032
85658SOL    HW274967  12.709   9.923   9.030  0.7694 -0.3122  0.0735
85659SOL     OW74968  13.955   5.388   0.843  0.0560  0.5934 -0.6077
85659SOL    HW174969  13.863   5.411   0.847  0.6365  3.0637  0.1582
85659SOL    HW274970  13.969   5.358   0.754 -1.1575  1.7970 -1.2324
85660SOL     OW74971  12.655  12.332  13.339  0.2112 -0.5509 -0.4396
85660SOL    HW174972  12.676  12.267  13.406  1.6860 -0.8582 -1.1615
85660SOL    HW274973  12.657  12.283  13.257 -1.7987 -0.2215 -0.7235
85661SOL     OW74974   2.696   9.005  10.212 -0.3063  0.0780 -0.2089
85661SOL    HW174975   2.673   9.087  10.169  1.4514  0.0408 -1.3306
85661SOL    HW274976   2.697   8.940  10.142 -1.9506 -1.0174  0.7028
85662SOL     OW74977   4.829   2.917   1.226 -0.0785 -0.1485  0.3734
85662SOL    HW174978   4.784   2.956   1.300 -0.1190 -2.1261  1.4423
85662SOL    HW274979   4.851   2.828   1.254  1.6100 -0.3361 -1.2835
85663SOL     OW74980   7.497  10.007   8.930 -0.6775  0.0135 -0.3423
85663SOL    HW174981   7.494  10.100   8.954  1.1093 -0.1518  0.6539
85663SOL    HW274982   7.486  10.007   8.835  1.3844  1.4349 -0.6334
85664SOL     OW74983  11.667   9.852  12.059  0.3849  0.3777  0.2085
85664SOL    HW174984  11.635   9.910  12.129 -1.3696  0.9612 -1.0033
85664SOL    HW274985  11.598   9.855  11.993 -0.3255 -3.8904  0.4776
85665SOL     OW74986   3.594  11.775  12.652 -0.1934  0.3165 -0.7773
85665SOL    HW174987   3.571  11.714  12.582 -1.4459  0.0994 -0.2008
85665SOL    HW274988   3.689  11.785  12.644  0.0971 -1.8515 -0.7848
85666SOL     OW74989  13.474   6.555  12.514  0.6935 -0.0034 -0.3538
85666SOL    HW174990  13.532   6.627  12.491  1.6664 -1.2302 -1.8766
85666SOL    HW274991  13.387   6.583  12.485  0.6800  1.3470  0.8803
85667SOL     OW74992  13.808  10.245   3.086  0.1940 -0.2012 -0.4380
85667SOL    HW174993  13.734  10.264   3.028 -0.0078 -1.0872 -0.4977
85667SOL    HW274994  13.804  10.312   3.153  0.6280  1.0561 -1.6191
85668SOL     OW74995   5.951   0.931  10.218  0.6831  0.1539 -0.3927
85668SOL    HW174996   5.917   0.875  10.148  0.6651  0.0084 -0.2684
85668SOL    HW274997   5.903   1.013  10.209 -0.7699 -0.5306  0.6792
85669SOL     OW74998   2.732   7.212   1.885 -0.1325 -0.5848 -0.0959
85669SOL    HW174999   2.778   7.157   1.948  1.4617  1.2486  0.4336
85669SOL    HW275000   2.761   7.302   1.905 -2.7216  0.5063 -0.8056
85670SOL     OW75001   8.828   8.929   9.130  0.3879 -0.7447  0.5325
85670SOL    HW175002   8.922   8.937   9.112  0.5438 -0.8596  1.2649
85670SOL    HW275003   8.822   8.862   9.199 -0.0541  0.7411  1.9994
85671SOL     OW75004  11.377   9.325  11.907 -0.0322 -0.2087  0.3260
85671SOL    HW175005  11.448   9.360  11.960  0.4441 -2.6192  1.4129
85671SOL    HW275006  11.420   9.285  11.832 -0.5444  1.2081 -0.7715
85672SOL     OW75007   7.374  12.648   4.909 -0.0179  0.5435  0.0383
85672SOL    HW175008   7.404  12.559   4.896  0.0653  0.9115 -2.7723
85672SOL    HW275009   7.286  12.650   4.871 -0.0881  1.6349  0.2034
85673SOL     OW75010   7.247   6.667   7.022  0.1838 -0.3202 -0.3690
85673SOL    HW175011   7.229   6.575   7.043 -2.7244  0.3382  0.5414
85673SOL    HW275012   7.339   6.668   6.997  0.5844 -3.3102  0.5184
85674SOL     OW75013   8.959  13.239  13.392 -0.1814  0.3969  0.3494
85674SOL    HW175014   8.965  13.225  13.487  0.8328  0.5428  0.3175
85674SOL    HW275015   9.050  13.237  13.362 -0.5737 -1.3918 -0.8705
85675SOL     OW75016  11.918   0.022   6.163  0.2383 -0.0920 -0.2023
85675SOL    HW175017  11.856  -0.023   6.105  0.1925  1.3281 -1.3351
85675SOL    HW275018  11.862   0.066   6.228 -0.0119  1.2908 -1.2964
85676SOL     OW75019   9.832  10.151  14.089  0.1733 -0.5264 -0.4348
85676SOL    HW175020   9.906  10.168  14.032  0.1306 -0.2296 -0.4071
85676SOL    HW275021   9.786  10.235  14.094 -0.1540 -0.7033 -0.4398
85677SOL     OW75022  12.817   3.135  12.088 -0.4910  0.4829 -0.0307
85677SOL    HW175023  12.799   3.209  12.030  0.2589  0.1640 -0.6883
85677SOL    HW275024  12.887   3.086  12.044 -0.4006 -0.1600  0.7987
85678SOL     OW75025  10.609  12.368   7.562  0.5838 -0.7777 -0.1801
85678SOL    HW175026  10.654  12.301   7.510 -0.3012 -0.6346 -1.1702
85678SOL    HW275027  10.669  12.387   7.633  2.4931  0.0198 -1.9110
85679SOL     OW75028   1.181  13.362   6.725 -0.1577  0.0488 -0.0253
85679SOL    HW175029   1.093  13.362   6.688 -0.1962  1.6855  0.0178
85679SOL    HW275030   1.168  13.378   6.819  0.2206  1.4049 -0.1836
85680SOL     OW75031   4.237   6.525   9.008 -0.5267 -0.3514 -0.6409
85680SOL    HW175032   4.309   6.488   9.060 -1.4644  0.7170  1.5468
85680SOL    HW275033   4.172   6.455   9.003 -0.8806 -0.1311  0.5951
85681SOL     OW75034   0.536   1.695   2.900 -0.0119  0.6631  0.1200
85681SOL    HW175035   0.608   1.742   2.858 -0.1373 -0.2591 -1.2123
85681SOL    HW275036   0.566   1.605   2.906 -0.2855  0.6475  1.4110
85682SOL     OW75037   8.485   2.455  10.709 -0.4694 -0.3690 -0.2695
85682SOL    HW175038   8.551   2.386  10.718  0.1459  0.1597 -0.5887
85682SOL    HW275039   8.527   2.533  10.746 -1.5221 -0.3738  0.9823
85683SOL     OW75040   4.324   9.203  13.988  0.5805 -0.6248 -0.3036
85683SOL    HW175041   4.248   9.210  13.931  0.6192 -0.8691 -0.3825
85683SOL    HW275042   4.297   9.248  14.069  1.2250  1.5625 -1.2176
85684SOL     OW75043  11.100   5.018   3.496 -0.2452 -0.6109 -0.1256
85684SOL    HW175044  11.086   4.939   3.443 -0.4627 -0.8689  0.3077
85684SOL    HW275045  11.193   5.014   3.519 -0.1664 -0.5359 -0.4204
85685SOL     OW75046   2.864   7.832  10.310  0.4947  0.1653 -0.5433
85685SOL    HW175047   2.907   7.762  10.359  0.3720  1.0020  0.8236
85685SOL    HW275048   2.915   7.841  10.230  1.0652 -0.8468 -0.3040
85686SOL     OW75049   2.862  12.545   9.787 -0.2409  0.3085  0.0826
85686SOL    HW175050   2.891  12.597   9.712  0.5854 -1.4317 -0.8518
85686SOL    HW275051   2.895  12.457   9.770  0.2980 -0.0647  2.6923
85687SOL     OW75052   4.323   5.216   6.694 -0.3350 -0.1746  0.1616
85687SOL    HW175053   4.277   5.209   6.779 -0.3192 -0.0818  0.1778
85687SOL    HW275054   4.257   5.189   6.630  0.1906 -2.0204  0.3445
85688SOL     OW75055   9.773  10.119   6.548  0.0096 -0.2304 -0.2457
85688SOL    HW175056   9.792  10.193   6.490 -2.2470  0.6553  0.0372
85688SOL    HW275057   9.754  10.160   6.633 -0.3646 -1.2074  0.1519
85689SOL     OW75058   3.374   6.605   7.564  0.1009 -0.4520 -0.0633
85689SOL    HW175059   3.286   6.620   7.600  0.4707 -0.1332  0.7577
85689SOL    HW275060   3.361   6.549   7.488 -1.1600  2.0899 -1.8668
85690SOL     OW75061   4.507   8.001   9.276  0.0458 -0.3969  0.0090
85690SOL    HW175062   4.529   8.074   9.334  0.3650  0.1142 -0.7420
85690SOL    HW275063   4.577   7.937   9.290  0.8822  0.3164 -0.8095
85691SOL     OW75064   5.703   9.359   6.852  0.1013  0.1653  0.6981
85691SOL    HW175065   5.728   9.404   6.772  1.1771 -0.4388  0.6616
85691SOL    HW275066   5.785   9.319   6.883 -0.6449 -1.0632  1.1496
85692SOL     OW75067  11.830  13.191  14.094 -0.1056  0.0687 -0.3733
85692SOL    HW175068  11.767  13.233  14.036  1.8623  1.6526 -1.4959
85692SOL    HW275069  11.793  13.202  14.181 -2.5254 -1.2482 -1.1368
85693SOL     OW75070   3.856   5.095   2.456  0.2245 -0.5740  0.2562
85693SOL    HW175071   3.858   5.187   2.482  1.8416 -0.6348  0.4014
85693SOL    HW275072   3.876   5.096   2.362  0.2403 -0.7804  0.2562
85694SOL     OW75073   5.307  10.226  13.951  0.6488  0.1986  0.0341
85694SOL    HW175074   5.335  10.143  13.989  0.0808  0.4476  1.0199
85694SOL    HW275075   5.227  10.203  13.902 -0.1905  0.3429  1.2791
85695SOL     OW75076   8.733   8.264   8.720  0.2133  0.5239  0.1082
85695SOL    HW175077   8.706   8.172   8.718  2.4565 -0.1736  0.0291
85695SOL    HW275078   8.750   8.282   8.812 -0.7610  1.0716  0.2024
85696SOL     OW75079   5.061   9.837   4.044  0.4847  0.0825 -0.3038
85696SOL    HW175080   5.139   9.792   4.077  0.5430  0.3495 -0.0673
85696SOL    HW275081   5.038   9.898   4.114 -1.7211 -2.0391  0.9915
85697SOL     OW75082   1.826   1.456  13.304 -0.1260 -0.4428 -0.1205
85697SOL    HW175083   1.896   1.476  13.242 -0.3141 -0.9947 -0.5209
85697SOL    HW275084   1.845   1.511  13.380 -0.7118  1.3389 -1.2150
85698SOL     OW75085  11.187   0.143   1.647  0.2759  0.0261 -0.2289
85698SOL    HW175086  11.220   0.221   1.603  0.0273  0.0952 -0.2973
85698SOL    HW275087  11.173   0.080   1.576  2.7167 -0.9304  0.0499
85699SOL     OW75088   3.666  10.307   9.791 -0.0750 -0.3769  0.1656
85699SOL    HW175089   3.709  10.317   9.876 -2.1701  1.3035  1.1160
85699SOL    HW275090   3.715  10.363   9.732  0.4739 -0.3616  0.6282
85700SOL     OW75091   8.664   1.023  11.357  0.0133 -0.0753 -0.3464
85700SOL    HW175092   8.582   1.035  11.308 -0.7777  0.7976  1.1160
85700SOL    HW275093   8.697   1.112  11.371  1.1815 -0.4210 -0.8550
85701SOL     OW75094   5.145   3.719   6.930 -0.0740 -0.1466 -0.0218
85701SOL    HW175095   5.230   3.726   6.887 -0.5434  0.7561 -0.8507
85701SOL    HW275096   5.107   3.638   6.895  1.1080 -1.4938  1.6475
85702SOL     OW75097  10.994   7.527  14.138 -0.5390  0.2839 -0.1176
85702SOL    HW175098  11.037   7.609  14.114  0.0665  0.2502  0.7671
85702SOL    HW275099  10.901   7.545  14.131 -0.4568  1.4565  1.2119
85703SOL     OW75100   9.535   5.777   4.343 -0.3454  0.1033 -0.3508
85703SOL    HW175101   9.593   5.724   4.397  1.2285  1.4608 -0.6366
85703SOL    HW275102   9.545   5.742   4.255 -2.0049 -1.3405 -0.0137
85704SOL     OW75103   9.236   2.879  13.844  0.4811  0.6384 -0.1185
85704SOL    HW175104   9.239   2.949  13.909  1.6497  0.5420 -0.0476
85704SOL    HW275105   9.230   2.799  13.895 -0.1070  0.6427 -0.1780
85705SOL     OW75106   7.425   8.503   4.304 -0.3805 -0.5698  0.1413
85705SOL    HW175107   7.502   8.446   4.313  2.3892  2.7708 -0.2850
85705SOL    HW275108   7.407   8.506   4.210  0.3568  0.2204  0.0097
85706SOL     OW75109   9.173   9.698   0.721 -0.1420 -0.2162  0.5668
85706SOL    HW175110   9.242   9.747   0.766  0.8285 -1.9362  1.0795
85706SOL    HW275111   9.109   9.679   0.790 -1.7655  2.2908 -0.1237
85707SOL     OW75112   5.728   9.538   8.235 -0.1645  0.6795 -0.4858
85707SOL    HW175113   5.681   9.607   8.189  1.0335  0.9613 -1.3379
85707SOL    HW275114   5.681   9.458   8.212 -1.6703  1.1838  0.6587
85708SOL     OW75115   7.402  12.707   1.140 -0.2156 -0.3433 -0.7250
85708SOL    HW175116   7.328  12.766   1.157 -0.2453 -0.9577  1.5928
85708SOL    HW275117   7.478  12.766   1.135 -0.4565  0.0351 -0.0451
85709SOL     OW75118   3.026  13.389   0.371 -0.3386 -0.2179 -0.1048
85709SOL    HW175119   2.966  13.378   0.445  0.5023  2.2130  1.0773
85709SOL    HW275120   2.977  13.442   0.309  0.1104  0.7115  0.3101
85710SOL     OW75121   7.129   5.126   2.252 -0.4734 -0.0112 -0.0946
85710SOL    HW175122   7.070   5.109   2.178 -1.0729  0.3391  0.2948
85710SOL    HW275123   7.080   5.095   2.329  0.4848 -1.1722  0.0800
85711SOL     OW75124  13.469   2.199   9.620  0.2372 -0.4135 -0.3077
85711SOL    HW175125  13.426   2.160   9.696 -0.2918  1.0152  0.1795
85711SOL    HW275126  13.408   2.184   9.548  0.2311 -0.8356 -0.2149
85712SOL     OW75127  11.069   7.400   1.271  0.2640 -0.2453  0.0770
85712SOL    HW175128  11.048   7.473   1.213  0.4906 -0.6587 -0.5331
85712SOL    HW275129  11.050   7.321   1.220  1.9382 -0.6262 -0.0137
85713SOL     OW75130   9.508   8.108   6.003 -0.2220 -0.2307  0.1677
85713SOL    HW175131   9.553   8.075   5.926  1.8861 -0.8144  1.5541
85713SOL    HW275132   9.422   8.065   6.001  0.4757 -1.6473 -0.8713
85714SOL     OW75133   5.459  10.049   3.087  0.0368 -0.2685 -0.1800
85714SOL    HW175134   5.411  10.115   3.037  0.2803  0.0039 -0.0549
85714SOL    HW275135   5.417  10.049   3.173  0.4763  0.2156  0.0409
85715SOL     OW75136  10.728   6.811   3.494  0.7139  0.0001 -0.0479
85715SOL    HW175137  10.728   6.736   3.554  0.2692 -0.8849 -1.1249
85715SOL    HW275138  10.643   6.852   3.507  0.6307 -0.1704 -0.0579
85716SOL     OW75139   9.330   8.509  11.177  0.6855 -0.7984  0.4115
85716SOL    HW175140   9.262   8.570  11.149  0.4627 -1.1710  0.1288
85716SOL    HW275141   9.308   8.487  11.267  0.9488 -0.2153  0.6192
85717SOL     OW75142   1.645   6.052   9.858 -0.6718  0.1956  0.1052
85717SOL    HW175143   1.565   6.032   9.907 -0.2589  1.9244  1.5575
85717SOL    HW275144   1.622   6.031   9.767 -1.9538 -1.6328  0.7825
85718SOL     OW75145  10.208   9.269   4.516 -0.1198 -0.2061  0.1666
85718SOL    HW175146  10.194   9.309   4.601 -1.5077 -1.2757  0.4639
85718SOL    HW275147  10.280   9.320   4.477  0.5870  0.2467  1.9808
85719SOL     OW75148  10.045   7.326  12.731  0.2566 -0.0071 -0.1678
85719SOL    HW175149  10.014   7.300  12.818  1.0232  0.0341  0.1319
85719SOL    HW275150   9.967   7.357  12.686  0.0400  1.2113  0.9645
85720SOL     OW75151   4.839   3.265  13.819  0.0417  0.6864  0.2671
85720SOL    HW175152   4.761   3.302  13.860  0.1665  2.0666 -0.6879
85720SOL    HW275153   4.844   3.307  13.733  1.0276 -0.4770 -0.2830
85721SOL     OW75154  10.693   7.708   3.115 -0.3886 -0.3058 -0.0135
85721SOL    HW175155  10.659   7.696   3.203 -0.8057 -0.4590 -0.1935
85721SOL    HW275156  10.636   7.654   3.059  0.2084 -0.6587 -0.3052
85722SOL     OW75157  14.008   3.014   0.581 -0.1221 -0.0468  0.2538
85722SOL    HW175158  14.018   3.107   0.561  0.3979 -0.2486 -0.4683
85722SOL    HW275159  13.931   3.010   0.638 -1.0919  0.6670 -0.9528
85723SOL     OW75160   2.120   7.685   8.053  0.4151 -0.2971  0.0714
85723SOL    HW175161   2.169   7.752   8.100  1.1755 -0.0850 -0.9712
85723SOL    HW275162   2.107   7.721   7.965  0.6562 -1.4075 -0.4464
85724SOL     OW75163   6.807   9.185   3.548  0.3237 -0.1647  0.2662
85724SOL    HW175164   6.856   9.104   3.533 -0.9387 -0.9218  0.0782
85724SOL    HW275165   6.825   9.207   3.639 -1.3669 -2.1592  1.1736
85725SOL     OW75166  10.111  12.181  10.780 -0.1237  0.2388 -0.6889
85725SOL    HW175167  10.061  12.102  10.798 -2.2330  1.9783  1.9841
85725SOL    HW275168  10.202  12.153  10.781 -0.8301 -2.3050 -0.9228
85726SOL     OW75169   4.696   1.731  12.576 -0.1417  0.2673 -0.1093
85726SOL    HW175170   4.699   1.711  12.482 -0.8647  1.7798 -0.4789
85726SOL    HW275171   4.643   1.810  12.582 -0.6535 -0.1653  1.6514
85727SOL     OW75172   6.914   1.175  13.427 -0.2255 -0.3738  0.0022
85727SOL    HW175173   6.909   1.092  13.475  1.3245 -0.4062  0.1610
85727SOL    HW275174   6.963   1.233  13.485 -0.6715  0.4385 -0.4180
85728SOL     OW75175   9.044   8.319   4.852  0.0857  0.0806  0.3403
85728SOL    HW175176   9.004   8.381   4.912 -0.6713  0.8912 -0.9622
85728SOL    HW275177   9.100   8.372   4.796 -0.3134 -0.4284 -0.5712
85729SOL     OW75178   3.593   1.916   9.610  0.0750  0.2149  0.5176
85729SOL    HW175179   3.498   1.923   9.601  0.0514 -0.6541  0.0277
85729SOL    HW275180   3.627   1.983   9.551 -0.1991 -1.7115 -1.9823
85730SOL     OW75181  11.354   1.346  13.008 -0.3476 -0.4276  0.5323
85730SOL    HW175182  11.369   1.439  13.027  0.0168 -0.6720  1.5245
85730SOL    HW275183  11.367   1.303  13.092 -2.8323 -1.1179  0.6326
85731SOL     OW75184   5.445   6.286  12.902 -0.1587  0.7786 -0.2526
85731SOL    HW175185   5.521   6.230  12.887  0.4116  1.1002  1.2894
85731SOL    HW275186   5.402   6.291  12.817  0.1474 -1.4409 -0.5961
85732SOL     OW75187   2.840  13.276   2.483  0.2702 -0.6578 -0.2484
85732SOL    HW175188   2.775  13.206   2.486  1.9475 -2.2585  0.2144
85732SOL    HW275189   2.836  13.309   2.393 -0.3247 -1.5316 -0.5541
85733SOL     OW75190   0.410  12.047   1.940 -0.1930 -0.0357  0.1622
85733SOL    HW175191   0.501  12.064   1.917 -0.3052  0.2743 -0.0542
85733SOL    HW275192   0.404  12.069   2.033  0.1928 -1.0171  0.4335
85734SOL     OW75193   0.017   2.551   4.031  0.1624 -0.4636  0.2515
85734SOL    HW175194   0.047   2.607   3.959  2.3349 -1.2020  0.4980
85734SOL    HW275195  -0.067   2.517   4.001  0.6047 -0.0825 -1.5860
85735SOL     OW75196   1.031  13.616   0.140 -0.2603  0.3569 -0.1017
85735SOL    HW175197   1.122  13.642   0.150  0.2269 -1.2086 -0.1659
85735SOL    HW275198   1.027  13.527   0.177 -2.0762  0.9277  1.2510
85736SOL     OW75199   8.951   2.508   8.742 -0.0102  0.3152 -0.4362
85736SOL    HW175200   8.892   2.581   8.721  0.1760  0.3111 -0.9963
85736SOL    HW275201   8.893   2.434   8.756 -0.1677  0.4323 -0.4652
85737SOL     OW75202   1.965  10.961   1.859 -0.1259 -0.7587  0.0249
85737SOL    HW175203   1.963  10.881   1.807 -0.9382 -0.9777  0.3796
85737SOL    HW275204   1.919  10.938   1.940 -1.7503  0.4905 -0.4957
85738SOL     OW75205  11.188  13.822   0.732 -0.3801  0.2347  1.0362
85738SOL    HW175206  11.226  13.904   0.764 -0.6996  1.6389 -1.8243
85738SOL    HW275207  11.096  13.828   0.756 -0.5729  1.1624  0.1656
85739SOL     OW75208   2.305   5.679  12.517  0.2991  0.3155 -0.3328
85739SOL    HW175209   2.315   5.598  12.469 -2.9868 -1.5530  1.7384
85739SOL    HW275210   2.215   5.707  12.499 -0.5921  0.2948  3.2915
85740SOL     OW75211   1.475   3.978   0.426  0.1081 -0.1405  0.2335
85740SOL    HW175212   1.497   3.913   0.359 -1.2918 -1.2258  0.7690
85740SOL    HW275213   1.559   4.008   0.459  0.8014 -0.5823 -1.0758
85741SOL     OW75214  11.253   2.928   1.368  0.0421  0.2383 -0.3922
85741SOL    HW175215  11.281   2.922   1.277 -0.1774  0.3397 -0.4660
85741SOL    HW275216  11.286   3.012   1.398  2.0179 -0.7159  0.2703
85742SOL     OW75217  13.558   4.664   2.924  0.4209  0.7881  0.0168
85742SOL    HW175218  13.546   4.753   2.890  0.7254  1.1738  0.8878
85742SOL    HW275219  13.472   4.623   2.918  0.4651  0.8554 -1.1825
85743SOL     OW75220  11.642   5.965   9.366  0.0987 -0.3958  0.4185
85743SOL    HW175221  11.670   6.055   9.347  0.8335 -0.5736  0.6265
85743SOL    HW275222  11.597   5.971   9.450 -1.5159  0.0770 -0.4178
85744SOL     OW75223  10.998  10.087   4.143  0.2141 -0.1316  0.5945
85744SOL    HW175224  10.928  10.152   4.132 -1.1961 -1.9926 -2.9228
85744SOL    HW275225  10.970  10.034   4.217 -1.8408 -0.4455 -0.3450
85745SOL     OW75226   5.449  12.158   6.631  0.0969 -0.0503  0.0806
85745SOL    HW175227   5.389  12.199   6.693 -0.1337  0.1567 -0.2755
85745SOL    HW275228   5.401  12.156   6.549  0.5666  0.0889 -0.2021
85746SOL     OW75229   3.847  11.601   9.040 -0.1174 -0.6240 -0.4666
85746SOL    HW175230   3.921  11.551   9.076  0.8274  1.2285  0.2676
85746SOL    HW275231   3.783  11.602   9.111  0.6309  0.7157  0.2345
85747SOL     OW75232   6.839   6.256   9.387 -0.0113  0.4663 -0.0451
85747SOL    HW175233   6.802   6.322   9.447 -0.4827 -0.0581  0.2479
85747SOL    HW275234   6.774   6.187   9.384  0.7771 -0.3101  0.1848
85748SOL     OW75235   4.442   9.886   9.021 -0.0818  0.1438  0.3634
85748SOL    HW175236   4.458   9.793   9.007  0.1238  0.1546  0.5128
85748SOL    HW275237   4.412   9.891   9.112 -0.3510  0.1929  0.2723
85749SOL     OW75238   3.777   4.814  12.879  1.0163 -0.1902 -0.1044
85749SOL    HW175239   3.803   4.800  12.788 -1.2693 -0.6239 -0.7407
85749SOL    HW275240   3.725   4.737  12.902  0.5675  0.4556  1.1913
85750SOL     OW75241  13.885  13.341  10.128 -0.3593  0.0418  0.2435
85750SOL    HW175242  13.828  13.416  10.143 -0.8044  0.3625 -2.5441
85750SOL    HW275243  13.851  13.273  10.187 -3.6438  0.2551 -1.1549
85751SOL     OW75244   3.411   7.791   3.080  0.4070 -0.1481 -0.4222
85751SOL    HW175245   3.344   7.813   3.016 -1.3685 -0.3708  1.2706
85751SOL    HW275246   3.387   7.703   3.111  1.4490 -0.2105  0.2586
85752SOL     OW75247   9.937   3.137   1.731  0.2516 -0.0541 -0.0827
85752SOL    HW175248   9.979   3.060   1.770 -0.0080  0.0374  0.3847
85752SOL    HW275249   9.883   3.101   1.660  1.7735 -0.0912 -1.2637
85753SOL     OW75250  12.669  12.636  10.158  0.3024 -0.2732  0.3097
85753SOL    HW175251  12.690  12.543  10.161  0.1071 -0.3657 -0.7940
85753SOL    HW275252  12.578  12.641  10.189 -0.7692 -0.8536 -2.4675
85754SOL     OW75253   7.250   4.807  10.230  0.1671  0.5336 -0.5095
85754SOL    HW175254   7.223   4.715  10.224  1.0280  0.0614  1.8702
85754SOL    HW275255   7.168   4.855  10.241 -0.1976 -0.7055  4.9638
85755SOL     OW75256  11.482   2.814   5.202 -0.2548  0.0041  0.0561
85755SOL    HW175257  11.513   2.728   5.175  0.6901  0.2391  0.3339
85755SOL    HW275258  11.506   2.820   5.295 -0.5425  0.4631  0.1053
85756SOL     OW75259   8.739   7.837   9.719  0.3807  0.3026  0.0319
85756SOL    HW175260   8.705   7.794   9.640  2.3471  0.5139 -0.9928
85756SOL    HW275261   8.704   7.926   9.714 -0.8457 -0.1399  0.3085
85757SOL     OW75262   6.253   3.457   7.399 -0.3199 -0.0083 -0.6816
85757SOL    HW175263   6.307   3.415   7.467  1.3642  2.1030 -0.5735
85757SOL    HW275264   6.222   3.538   7.441  2.5911  2.5080 -2.9132
85758SOL     OW75265   5.132  11.139   5.088 -0.4935  0.2771 -0.0841
85758SOL    HW175266   5.046  11.119   5.123 -0.5968 -0.5157 -0.7623
85758SOL    HW275267   5.128  11.232   5.066 -0.1120  1.0697  2.7891
85759SOL     OW75268   4.950  12.490   4.024 -0.4455  0.3250  0.4200
85759SOL    HW175269   4.914  12.444   4.100  2.9444  0.9074  2.5707
85759SOL    HW275270   5.010  12.427   3.984 -3.7583 -0.8289 -3.4055
85760SOL     OW75271   6.034   9.860  12.665  0.3336  0.5387 -0.0945
85760SOL    HW175272   6.040   9.767  12.689  0.2454  0.7289  0.6813
85760SOL    HW275273   6.124   9.892  12.674  0.5210  0.3509 -1.1456
85761SOL     OW75274  11.132  11.141   4.761  0.2370  0.0002  0.2505
85761SOL    HW175275  11.072  11.074   4.792 -0.4324  0.5781  0.2204
85761SOL    HW275276  11.211  11.092   4.735 -0.9406 -1.0057 -1.6520
85762SOL     OW75277   8.626  10.253   3.041 -0.3422 -1.1540  0.4974
85762SOL    HW175278   8.715  10.237   3.009 -0.6278 -0.4570 -0.7324
85762SOL    HW275279   8.572  10.250   2.962 -0.9190  2.0606  0.6437
85763SOL     OW75280   3.384   6.691   6.132  0.0999 -0.0084 -0.1035
85763SOL    HW175281   3.478   6.692   6.150  0.5688  1.2297 -2.1959
85763SOL    HW275282   3.373   6.619   6.070  0.0952  1.1270 -1.4865
85764SOL     OW75283   0.673   3.741   0.098 -0.4175 -0.3843 -0.0345
85764SOL    HW175284   0.653   3.664   0.152  0.4207 -1.0483 -0.6333
85764SOL    HW275285   0.715   3.802   0.159 -0.4661 -0.6847  0.3028
85765SOL     OW75286  13.926  13.092   1.547 -0.1903  0.1605  0.8670
85765SOL    HW175287  14.021  13.083   1.551 -0.3231 -2.8095 -0.3489
85765SOL    HW275288  13.908  13.124   1.458 -0.3473  0.8665  1.1449
85766SOL     OW75289   6.054   6.183  13.973  0.2280  0.3114 -0.6288
85766SOL    HW175290   5.979   6.241  13.987  0.8694  1.1652 -0.6454
85766SOL    HW275291   6.020   6.112  13.919 -0.7571  0.2701  0.0164
85767SOL     OW75292  11.889   2.270  13.372  0.5892 -0.0994  0.0214
85767SOL    HW175293  11.874   2.329  13.299  0.0839 -0.1666  0.0701
85767SOL    HW275294  11.931   2.325  13.439  1.1933 -0.0758 -0.3723
85768SOL     OW75295   3.638   6.950   6.579  0.1145  0.4067 -0.2280
85768SOL    HW175296   3.577   7.016   6.613  0.9687  0.7111  0.7943
85768SOL    HW275297   3.697   7.000   6.522 -0.0983  0.2704 -0.5634
85769SOL     OW75298   6.626   3.056  10.285 -1.1411  0.3661  0.6853
85769SOL    HW175299   6.584   3.134  10.249 -0.7139  1.1661  1.8390
85769SOL    HW275300   6.616   2.989  10.217 -1.8482  1.3157 -0.1751
85770SOL     OW75301   4.639   8.786  12.071 -0.1794 -0.3903 -0.7172
85770SOL    HW175302   4.678   8.699  12.061  0.5893 -1.0514  4.6194
85770SOL    HW275303   4.554   8.770  12.112  0.0293  1.2679  0.5035
85771SOL     OW75304   3.756  11.994  12.807  0.2168  0.4678 -0.0248
85771SOL    HW175305   3.789  11.913  12.767  2.3624  0.6660  1.2084
85771SOL    HW275306   3.744  11.973  12.899 -0.2191  1.2877  0.1167
85772SOL     OW75307   0.361   0.133  11.312  0.0499 -0.2314 -0.0492
85772SOL    HW175308   0.407   0.200  11.261 -0.2687  0.8211  1.0073
85772SOL    HW275309   0.405   0.051  11.289  0.7908  0.4079 -0.9740
85773SOL     OW75310  13.811  11.143   8.831  0.1837 -0.4335  0.0763
85773SOL    HW175311  13.825  11.102   8.746  0.5315  0.6557 -0.4086
85773SOL    HW275312  13.718  11.129   8.850  0.5456 -2.5807  0.5666
85774SOL     OW75313   5.361   5.748   2.722  0.2516  0.8978  0.0158
85774SOL    HW175314   5.300   5.716   2.788  1.0283  0.2321  0.4377
85774SOL    HW275315   5.340   5.840   2.712 -0.3632  0.8370  0.6621
85775SOL     OW75316   5.035   1.414   7.186  0.8148 -0.4891 -0.0278
85775SOL    HW175317   5.005   1.426   7.096  1.1583 -0.3827 -0.1292
85775SOL    HW275318   5.124   1.379   7.178  0.9656 -0.1866  0.2656
85776SOL     OW75319   3.235   1.047   9.060  0.2361 -0.1338 -0.1860
85776SOL    HW175320   3.173   1.100   9.110  1.5978  1.2281  0.1428
85776SOL    HW275321   3.225   0.958   9.095 -2.8871 -0.4293 -1.4997
85777SOL     OW75322   8.834   2.581   3.538 -0.1066 -0.4010 -0.1069
85777SOL    HW175323   8.926   2.600   3.516 -0.0417 -1.0276 -0.3933
85777SOL    HW275324   8.804   2.523   3.468 -1.0786  0.7127 -0.6647
85778SOL     OW75325   3.581   1.870  10.939  0.1379  0.1632 -0.6106
85778SOL    HW175326   3.628   1.794  10.904  0.5192  0.2942 -0.3859
85778SOL    HW275327   3.561   1.923  10.862 -0.5076 -0.3661 -0.8244
85779SOL     OW75328  12.866   9.369   5.379 -0.4178  0.2410  0.0948
85779SOL    HW175329  12.813   9.442   5.409 -0.5335 -0.3320  1.3832
85779SOL    HW275330  12.918   9.345   5.456  1.9301  0.9464 -1.1897
85780SOL     OW75331  14.128  13.686   0.090  0.0085 -0.1667  0.3909
85780SOL    HW175332  14.052  13.743   0.105 -0.1189  0.0253 -0.8625
85780SOL    HW275333  14.193  13.743   0.050  0.6565 -0.4395  1.0321
85781SOL     OW75334   0.580  12.214   0.695 -0.2237 -0.6389 -0.0430
85781SOL    HW175335   0.666  12.251   0.675  0.1839 -0.5178  1.7652
85781SOL    HW275336   0.519  12.264   0.640  0.8321 -0.7433 -1.3679
85782SOL     OW75337   9.459   2.311   5.078  0.3793  0.0165 -0.2776
85782SOL    HW175338   9.541   2.312   5.129  0.5815 -1.4231 -0.5310
85782SOL    HW275339   9.392   2.336   5.140  0.9816  0.9939 -0.0033
85783SOL     OW75340   4.127   4.076  12.066 -0.1622 -0.0932 -0.1332
85783SOL    HW175341   4.173   4.134  12.127  0.8656 -1.0985  0.0904
85783SOL    HW275342   4.196   4.042  12.008 -0.6185 -1.5273  0.1142
85784SOL     OW75343  11.587   0.625  12.081 -0.5146  0.3734 -0.3209
85784SOL    HW175344  11.573   0.558  12.148  0.6430 -0.3634 -0.7845
85784SOL    HW275345  11.527   0.696  12.105 -1.6951 -0.7770  0.2363
85785SOL     OW75346  12.483   5.463   0.065  0.1461 -0.2804  0.1091
85785SOL    HW175347  12.402   5.413   0.054 -0.8521  1.4505 -0.7930
85785SOL    HW275348  12.506   5.452   0.157 -0.5372 -1.6048  0.1508
85786SOL     OW75349  13.993   8.452   3.062  0.0981 -0.5055 -0.3700
85786SOL    HW175350  14.050   8.527   3.048  1.1268 -1.2184 -0.0643
85786SOL    HW275351  13.957   8.466   3.150  1.3335 -1.0273  0.2410
85787SOL     OW75352   9.116   8.576  10.503  0.0056 -0.2814 -0.2791
85787SOL    HW175353   9.126   8.570  10.408 -0.5712  0.3100 -0.3903
85787SOL    HW275354   9.136   8.668  10.523  1.1738 -0.6486  0.3176
85788SOL     OW75355  13.703   6.079   7.879  0.0860  0.1829 -0.9307
85788SOL    HW175356  13.779   6.104   7.932  0.8444  0.9417 -2.3289
85788SOL    HW275357  13.630   6.078   7.941  0.8414  1.5930  0.0306
85789SOL     OW75358   7.112   6.097   7.234 -0.9471  0.4417 -0.1627
85789SOL    HW175359   7.096   6.006   7.209 -3.2173  0.3042  1.5416
85789SOL    HW275360   7.075   6.149   7.162  0.5293  0.0905 -1.2339
85790SOL     OW75361   1.272  12.183   8.001  0.4205 -0.1517 -0.2087
85790SOL    HW175362   1.234  12.104   8.039  0.4191  0.2939  0.7524
85790SOL    HW275363   1.200  12.221   7.950  0.3140 -0.5846 -0.3836
85791SOL     OW75364   5.711   6.833   1.473  0.2289 -0.0947  0.4418
85791SOL    HW175365   5.669   6.751   1.498  0.7662 -0.4041  0.3568
85791SOL    HW275366   5.805   6.812   1.470  0.3030  0.3200 -0.3617
85792SOL     OW75367   9.601  11.332   1.391 -0.1467 -0.5810  0.0014
85792SOL    HW175368   9.613  11.397   1.460  1.4708 -0.0437 -0.7153
85792SOL    HW275369   9.587  11.384   1.312 -0.5577 -1.1538 -0.3074
85793SOL     OW75370   5.978   7.968   7.512 -0.0545 -0.4007 -0.3814
85793SOL    HW175371   5.927   8.007   7.583 -1.4991  0.0276 -1.6060
85793SOL    HW275372   5.975   7.874   7.529 -2.3781 -0.5226 -1.0623
85794SOL     OW75373   0.161   8.575   0.699  0.2839 -0.0944  0.2033
85794SOL    HW175374   0.101   8.502   0.683  1.2561 -0.4085 -2.4269
85794SOL    HW275375   0.156   8.629   0.620  3.7046 -0.3453 -0.3423
85795SOL     OW75376  14.075   6.284   9.645 -0.1585  0.5950  0.0124
85795SOL    HW175377  14.126   6.360   9.673 -1.0072  0.9468  0.6728
85795SOL    HW275378  14.101   6.215   9.705 -1.2063  1.0656  1.0576
85796SOL     OW75379   7.810  12.505   3.593  0.4104  0.0823 -0.3704
85796SOL    HW175380   7.747  12.539   3.530 -0.0148  0.2204  0.1166
85796SOL    HW275381   7.861  12.440   3.545  2.1540  2.2812 -1.7567
85797SOL     OW75382   8.330   8.153   0.990 -0.7465  0.0585  0.1248
85797SOL    HW175383   8.416   8.161   0.947 -2.0434  1.1337 -2.5152
85797SOL    HW275384   8.298   8.067   0.963 -1.2968  0.4639 -0.5285
85798SOL     OW75385  11.534   6.633  13.649  0.3586 -0.0989  0.1196
85798SOL    HW175386  11.448   6.658  13.614  1.0707  1.2186 -0.7561
85798SOL    HW275387  11.517   6.613  13.741 -0.4442  3.0908  0.8071
85799SOL     OW75388   5.729   9.267   8.748  0.1922  0.2811 -0.1954
85799SOL    HW175389   5.743   9.252   8.841  0.8270  0.8727 -0.1892
85799SOL    HW275390   5.756   9.358   8.733  2.8310 -0.5752 -1.4592
85800SOL     OW75391  13.160   6.126   7.348  0.3809  0.2037  0.1945
85800SOL    HW175392  13.144   6.214   7.315 -1.1474  0.0860  0.5288
85800SOL    HW275393  13.125   6.127   7.437  0.4245 -0.7183  0.2375
85801SOL     OW75394  11.847  12.346   6.285 -0.0566 -0.4077  0.6197
85801SOL    HW175395  11.941  12.327   6.288  0.3710  0.9010 -1.7507
85801SOL    HW275396  11.842  12.442   6.286 -1.2757 -0.4321 -0.3256
85802SOL     OW75397   2.215   3.286  12.983 -0.3091 -0.1983 -0.7541
85802SOL    HW175398   2.246   3.308  12.896 -0.7805 -2.2881 -1.5021
85802SOL    HW275399   2.140   3.344  12.997 -1.7226 -1.4264 -2.7751
85803SOL     OW75400  10.282   0.387   9.118  0.2121  0.5153  0.2261
85803SOL    HW175401  10.207   0.447   9.123  0.3942  0.6546  2.1644
85803SOL    HW275402  10.296   0.359   9.209  2.0432 -0.1030 -0.2041
85804SOL     OW75403   1.911   7.639  11.174  0.0737 -0.0237  0.2952
85804SOL    HW175404   1.965   7.562  11.191  1.3033  0.7487  0.0621
85804SOL    HW275405   1.872   7.661  11.258  0.9628  0.0043  0.7064
85805SOL     OW75406  12.057   6.894   3.582 -0.1275  0.3085 -0.7192
85805SOL    HW175407  12.102   6.829   3.528  1.6483 -0.3465  1.3869
85805SOL    HW275408  11.965   6.870   3.579  0.3627 -1.6595 -0.8869
85806SOL     OW75409   8.965   3.000  13.656  0.1617  0.0705  0.7690
85806SOL    HW175410   9.056   3.011  13.682  0.2702  3.3723 -0.5932
85806SOL    HW275411   8.915   3.018  13.736  0.6703  2.1865  0.6545
85807SOL     OW75412  11.628   3.606  14.003  0.4061  0.6329  0.7493
85807SOL    HW175413  11.684   3.551  13.947 -1.8512 -0.5337 -0.5166
85807SOL    HW275414  11.592   3.546  14.068 -0.0590  1.1423  0.9716
85808SOL     OW75415  12.458   7.703   1.783 -0.2015  0.2036  0.5650
85808SOL    HW175416  12.468   7.794   1.812  0.4052  0.5457 -0.6141
85808SOL    HW275417  12.482   7.706   1.690 -1.1223 -0.9870  0.2717
85809SOL     OW75418  10.556  11.266  12.025  0.0413  0.1292 -0.3969
85809SOL    HW175419  10.554  11.210  11.948  1.5342  1.7275 -1.7019
85809SOL    HW275420  10.488  11.331  12.009 -1.5965 -1.1478  1.0470
85810SOL     OW75421   3.049   0.244   8.224  0.1208  0.5978 -0.0623
85810SOL    HW175422   2.982   0.275   8.164 -1.7733  0.1275  1.6799
85810SOL    HW275423   3.096   0.177   8.175 -1.8611 -0.3325 -0.8217
85811SOL     OW75424  10.982   6.931   3.460 -0.1136 -0.0282  0.1803
85811SOL    HW175425  10.893   6.897   3.465 -1.1848  2.2348 -1.7445
85811SOL    HW275426  11.028   6.887   3.532 -2.4823 -1.9899  0.6397
85812SOL     OW75427   4.092   5.507   3.202 -0.3034  0.1182  0.0987
85812SOL    HW175428   4.080   5.558   3.282 -1.3877 -0.3278  0.2441
85812SOL    HW275429   4.145   5.562   3.145  2.6680 -0.5085  2.0189
85813SOL     OW75430  11.612   9.447  13.124  0.1477 -0.1069  0.2932
85813SOL    HW175431  11.586   9.469  13.035  3.6146 -2.0049 -1.3793
85813SOL    HW275432  11.599   9.353  13.131  1.5442 -0.2566  1.1712
85814SOL     OW75433   0.630  13.183   9.641 -0.5674 -0.3390 -0.3693
85814SOL    HW175434   0.550  13.130   9.636 -0.0423 -1.0118 -2.6802
85814SOL    HW275435   0.627  13.239   9.564  1.5734 -0.9949 -1.0040
85815SOL     OW75436   3.439   3.622   3.545 -0.0007  0.2825  0.1008
85815SOL    HW175437   3.509   3.600   3.484 -1.5032 -1.0457 -1.2411
85815SOL    HW275438   3.419   3.539   3.589 -1.5846  0.3301 -0.4815
85816SOL     OW75439  12.942   5.668   4.438 -0.4065  0.1927  0.2374
85816SOL    HW175440  12.847   5.668   4.446 -0.4107  0.4505  0.2005
85816SOL    HW275441  12.974   5.694   4.524 -0.3393 -0.8464  0.5367
85817SOL     OW75442  13.793   4.692   9.877  0.0606  0.8691 -0.2929
85817SOL    HW175443  13.882   4.703   9.844 -0.6259  0.7720 -2.2874
85817SOL    HW275444  13.737   4.726   9.808 -1.4955 -0.1510  0.4056
85818SOL     OW75445   0.234   1.145   8.681  0.3117 -0.4865 -0.7635
85818SOL    HW175446   0.280   1.064   8.703 -0.8015 -1.1566 -0.7906
85818SOL    HW275447   0.257   1.205   8.751  0.3527 -1.1667 -0.1768
85819SOL     OW75448   5.048   8.562   2.175  0.5406  0.1571  0.4333
85819SOL    HW175449   4.991   8.558   2.253  0.8436  0.9272  0.7036
85819SOL    HW275450   4.990   8.540   2.102  0.2925 -0.7674  0.8879
85820SOL     OW75451   5.604   8.482   5.059 -0.4287  0.1086  0.1694
85820SOL    HW175452   5.631   8.497   4.968 -2.5391  0.0031 -0.5261
85820SOL    HW275453   5.658   8.542   5.110  1.3968 -0.4111 -1.0266
85821SOL     OW75454   4.816   1.143   7.847  0.4362  0.7950  0.2567
85821SOL    HW175455   4.841   1.142   7.755 -0.5949  0.3878 -0.0415
85821SOL    HW275456   4.843   1.229   7.879  1.0606  0.8295 -0.3473
85822SOL     OW75457   3.971   4.598   9.448  0.1538  0.0493 -0.4401
85822SOL    HW175458   3.891   4.650   9.445  0.1963  0.1225 -0.3026
85822SOL    HW275459   4.017   4.619   9.366 -0.6273 -1.0481 -1.1824
85823SOL     OW75460   5.525   5.144  11.194 -0.0867  0.0349 -0.1517
85823SOL    HW175461   5.578   5.185  11.262 -0.1509 -0.2031  0.0432
85823SOL    HW275462   5.564   5.057  11.181 -1.1426 -0.6215  0.8514
85824SOL     OW75463  11.028   7.119   1.551  0.4594 -0.0451  0.5244
85824SOL    HW175464  11.119   7.099   1.527  0.4115 -1.5695  1.5509
85824SOL    HW275465  11.023   7.103   1.645 -0.7098  0.7491  0.6220
85825SOL     OW75466   2.951   0.285  12.535 -0.3034  0.2875  0.2294
85825SOL    HW175467   2.956   0.318  12.445  0.3578  3.0764  1.1673
85825SOL    HW275468   2.879   0.335  12.574  1.8916  2.1350  2.2455
85826SOL     OW75469  11.990  10.204   9.425  0.3749 -0.1106  0.0157
85826SOL    HW175470  11.997  10.211   9.520  0.3571  2.5113 -0.1151
85826SOL    HW275471  11.896  10.196   9.409  0.3203  0.1538  0.1931
85827SOL     OW75472  12.230   1.075  10.443  0.3759 -0.5413  0.2979
85827SOL    HW175473  12.322   1.096  10.426  0.6151 -1.5811  0.2572
85827SOL    HW275474  12.183   1.156  10.421  0.9901 -0.7926 -2.3282
85828SOL     OW75475   9.595   5.576   3.035 -0.1641  0.2438  0.4755
85828SOL    HW175476   9.638   5.520   3.100  1.0466 -0.7396 -1.0878
85828SOL    HW275477   9.502   5.565   3.051  0.1079 -0.1905  1.8571
85829SOL     OW75478   2.375  11.184  11.339  0.4456 -0.1733 -0.6630
85829SOL    HW175479   2.403  11.101  11.378 -2.8255 -0.7852  0.6875
85829SOL    HW275480   2.352  11.239  11.414 -0.5182  0.7599 -1.6071
85830SOL     OW75481   7.352  11.946   2.060  0.1416  0.4217  0.3746
85830SOL    HW175482   7.445  11.934   2.077  0.6886  2.1198 -1.1784
85830SOL    HW275483   7.312  11.862   2.084  1.4965  0.7228  4.4377
85831SOL     OW75484  12.797  13.110   4.187  0.2589  0.0756  0.4790
85831SOL    HW175485  12.871  13.060   4.153 -0.3644 -0.2571 -0.4302
85831SOL    HW275486  12.805  13.103   4.282  2.6338  1.8681  0.5205
85832SOL     OW75487  12.263   5.905   1.481  0.1240 -0.0514  0.0865
85832SOL    HW175488  12.273   5.927   1.389 -1.4348 -1.9681 -0.6076
85832SOL    HW275489  12.319   5.967   1.527  1.1080  0.8053 -2.1524
85833SOL     OW75490  11.165   3.940   8.146  0.0743  0.4794 -0.3567
85833SOL    HW175491  11.208   3.857   8.123  0.5258  0.4514  0.5257
85833SOL    HW275492  11.129   3.972   8.064 -0.8350 -1.0008 -0.5627
85834SOL     OW75493   8.263  10.512   1.440 -0.5817 -0.2131 -0.0206
85834SOL    HW175494   8.206  10.462   1.382 -0.2037 -0.9779  0.2634
85834SOL    HW275495   8.204  10.573   1.485 -1.1957 -1.0430  0.3213
85835SOL     OW75496   4.580  11.377   2.919  0.2343  0.1455  0.0085
85835SOL    HW175497   4.547  11.298   2.877 -1.3048  1.1734 -0.8197
85835SOL    HW275498   4.540  11.377   3.006  1.2290 -0.5847  0.4873
85836SOL     OW75499   6.840   6.525  11.346  0.2139 -0.3324  0.0269
85836SOL    HW175500   6.894   6.579  11.288  0.1549  2.4198  2.3288
85836SOL    HW275501   6.750   6.539  11.315  0.3331 -0.3652 -0.3374
85837SOL     OW75502   9.963   1.247   1.789 -0.4891  0.5645 -0.1171
85837SOL    HW175503   9.968   1.172   1.848 -1.1965  1.8138  1.6049
85837SOL    HW275504  10.051   1.285   1.790 -0.5955  0.8010  0.4499
85838SOL     OW75505   6.321   4.237  13.153 -0.1736  0.7618 -0.4532
85838SOL    HW175506   6.247   4.212  13.208  0.3783  0.4165  0.1524
85838SOL    HW275507   6.389   4.264  13.216  0.3593  0.6649 -0.9782
85839SOL     OW75508   4.578  11.322   1.753  0.1597  0.1015 -0.2025
85839SOL    HW175509   4.666  11.294   1.729  0.6289  1.0858  0.3113
85839SOL    HW275510   4.537  11.244   1.790  0.3958 -0.6807 -1.5209
85840SOL     OW75511   6.877   6.316  10.602 -0.1765  0.2092 -0.0040
85840SOL    HW175512   6.805   6.316  10.538  0.7048 -1.3652 -1.0670
85840SOL    HW275513   6.856   6.245  10.662  0.0585  0.3134  0.2023
85841SOL     OW75514   6.404   7.072  14.041 -0.5584  0.1430 -0.1861
85841SOL    HW175515   6.348   7.062  13.964 -0.2831 -0.5641 -0.2988
85841SOL    HW275516   6.482   7.020  14.022 -0.3172  0.2669  0.4152
85842SOL     OW75517   8.022   4.473  12.595  0.2180 -0.2048 -0.0065
85842SOL    HW175518   8.071   4.442  12.671 -1.0450  2.1849  1.9449
85842SOL    HW275519   7.951   4.525  12.633 -0.8018  0.6443 -2.8521
85843SOL     OW75520   7.189   7.820  12.542 -0.0496  0.3476 -0.0519
85843SOL    HW175521   7.163   7.897  12.592  2.4002  2.4729 -1.7659
85843SOL    HW275522   7.138   7.825  12.462  1.4049  1.3306 -0.9673
85844SOL     OW75523   8.944   7.511  11.888  0.4491  0.1243 -0.5891
85844SOL    HW175524   8.910   7.553  11.967  0.9791  0.5280 -0.5727
85844SOL    HW275525   8.891   7.548  11.817 -0.2145 -0.4440 -0.4076
85845SOL     OW75526   8.645   5.873   2.725  0.0676 -0.1446 -0.1257
85845SOL    HW175527   8.593   5.947   2.758  0.2341 -0.2308  0.3400
85845SOL    HW275528   8.646   5.884   2.630 -2.2919 -1.1067 -0.3320
85846SOL     OW75529  13.731   4.136   9.193  0.2135 -0.0792  0.8144
85846SOL    HW175530  13.750   4.077   9.266 -1.4457 -1.4002  0.2424
85846SOL    HW275531  13.645   4.173   9.214 -0.2326 -0.3901 -0.3753
85847SOL     OW75532  10.843   8.229   9.556 -0.4293 -0.0648 -0.2219
85847SOL    HW175533  10.829   8.146   9.602  1.9027 -0.8013 -0.6850
85847SOL    HW275534  10.823   8.209   9.464 -1.2747  0.3138 -0.1285
85848SOL     OW75535   9.462   5.925   3.262 -0.0983 -0.6999  0.0630
85848SOL    HW175536   9.411   5.972   3.328 -1.2031  1.4460 -2.1483
85848SOL    HW275537   9.398   5.871   3.216  0.7008 -2.3690  0.8030
85849SOL     OW75538   8.548   3.237  12.627  0.3191  0.2252  0.9641
85849SOL    HW175539   8.540   3.324  12.587 -3.1770 -0.7819 -0.9578
85849SOL    HW275540   8.509   3.247  12.713  0.8405  0.7600  1.1443
85850SOL     OW75541   7.234   3.769   0.401 -0.2898 -0.3533 -0.0139
85850SOL    HW175542   7.238   3.718   0.321 -0.7669 -0.9594  0.3376
85850SOL    HW275543   7.298   3.840   0.388 -0.2613 -0.5242 -0.8581
85851SOL     OW75544  10.855   2.861  10.204 -0.1368 -0.0592 -0.6058
85851SOL    HW175545  10.877   2.819  10.121 -0.6683  0.1156 -0.8416
85851SOL    HW275546  10.922   2.831  10.265  1.1539  0.9967 -1.4630
85852SOL     OW75547   1.889  14.116   9.484 -0.6140 -0.1289  0.1854
85852SOL    HW175548   1.980  14.098   9.509 -0.5904 -0.3516 -0.0558
85852SOL    HW275549   1.882  14.082   9.395 -0.9285 -0.0899  0.1953
85853SOL     OW75550  11.449   6.806   0.012  0.2942 -0.0106  0.5635
85853SOL    HW175551  11.540   6.833   0.025  0.0908  0.4131  1.1568
85853SOL    HW275552  11.445   6.777  -0.079  1.1976 -0.7490  0.7504
85854SOL     OW75553   6.374   5.425   4.246 -0.4259 -0.8976 -0.1005
85854SOL    HW175554   6.418   5.382   4.173 -1.1066 -0.3323 -0.8616
85854SOL    HW275555   6.411   5.513   4.249  0.2819 -1.2118  0.8528
85855SOL     OW75556   3.523  13.958   1.936 -0.1837  0.0609 -0.1108
85855SOL    HW175557   3.490  14.035   1.889  1.6949  1.2770  0.4543
85855SOL    HW275558   3.523  13.985   2.028 -0.7211 -1.1071  0.2457
85856SOL     OW75559   6.973   1.931  10.038 -0.5564 -0.4472  0.3759
85856SOL    HW175560   7.040   1.949   9.973  1.0151  2.1101  2.4788
85856SOL    HW275561   6.972   1.836  10.047  0.5494 -0.7378 -1.8951
85857SOL     OW75562   9.644   6.262   4.238 -0.4812 -0.0663  0.2042
85857SOL    HW175563   9.725   6.239   4.285  0.3865  1.0977 -0.6789
85857SOL    HW275564   9.616   6.180   4.197  1.0279 -0.2077 -0.6101
85858SOL     OW75565  12.346   3.281   7.649  0.2518  0.7079 -0.0990
85858SOL    HW175566  12.284   3.265   7.720 -1.1277  0.0837 -1.3835
85858SOL    HW275567  12.332   3.372   7.624 -0.6223  0.4090 -0.7721
85859SOL     OW75568   5.115  10.698  13.068  0.2145  0.0942  0.1973
85859SOL    HW175569   5.125  10.621  13.012  0.0669  0.5015 -0.3853
85859SOL    HW275570   5.127  10.663  13.157 -1.9985 -0.9962  0.1253
85860SOL     OW75571   2.569  11.916   6.238  0.3815  0.1694 -0.1190
85860SOL    HW175572   2.499  11.894   6.299 -0.0149 -0.5009 -0.7883
85860SOL    HW275573   2.547  12.003   6.206  0.3568  0.3413  0.3527
85861SOL     OW75574  12.104   2.328   5.486 -0.3719 -0.1636 -0.4169
85861SOL    HW175575  12.089   2.422   5.492  2.4365  0.3020  1.4408
85861SOL    HW275576  12.105   2.298   5.577 -2.0382 -2.2100 -0.9835
85862SOL     OW75577  12.856  10.190  10.993 -0.0243 -0.2414 -0.7950
85862SOL    HW175578  12.920  10.121  10.977 -1.0425 -1.5230  0.4455
85862SOL    HW275579  12.869  10.214  11.085 -1.5456 -0.7997 -0.4097
85863SOL     OW75580   8.787  11.532   5.407 -0.0026 -0.7834  0.1058
85863SOL    HW175581   8.843  11.492   5.340  0.5802 -0.1369  0.1973
85863SOL    HW275582   8.773  11.462   5.470 -1.2813 -1.6798 -1.1034
85864SOL     OW75583   5.710  11.690  13.020  1.0424  0.2468 -0.4379
85864SOL    HW175584   5.696  11.649  13.106 -0.0497  0.6283 -0.4277
85864SOL    HW275585   5.649  11.764  13.018  1.0424  0.2318 -1.5530
85865SOL     OW75586  13.554   5.993  12.024 -0.5328  0.4580 -0.1819
85865SOL    HW175587  13.508   5.949  12.095  0.4014  0.6421  0.5750
85865SOL    HW275588  13.609   6.058  12.069  1.6627 -0.8233 -0.8904
85866SOL     OW75589   2.825   7.427   3.713 -0.0336  0.2536  0.1415
85866SOL    HW175590   2.878   7.498   3.676 -0.5741  1.4450  1.5549
85866SOL    HW275591   2.829   7.440   3.807 -1.0545 -0.9430  0.3803
85867SOL     OW75592   9.668   2.072  10.242  0.0153  1.0493  0.2021
85867SOL    HW175593   9.643   1.984  10.214  0.9888  0.7984  0.0734
85867SOL    HW275594   9.600   2.098  10.304 -1.6206  1.1809 -1.5465
85868SOL     OW75595   6.628  10.865   3.434  0.2070  0.1935  0.7504
85868SOL    HW175596   6.572  10.940   3.452  1.3519  0.6681  2.6244
85868SOL    HW275597   6.689  10.897   3.367 -0.6062  0.2494  0.0248
85869SOL     OW75598   8.006   7.415   6.592  0.2625 -0.2277 -0.2295
85869SOL    HW175599   7.957   7.497   6.604  0.9464  0.0323  0.9448
85869SOL    HW275600   7.939   7.349   6.573 -0.3048  0.5756 -1.1393
85870SOL     OW75601  12.523   5.002  11.297  0.0603 -0.2611 -0.1189
85870SOL    HW175602  12.564   5.088  11.292 -1.6948  0.7104  1.1824
85870SOL    HW275603  12.429   5.020  11.307 -0.3403 -2.3147  0.3454
85871SOL     OW75604  13.118   9.744   3.360  0.9296 -0.3612  0.0812
85871SOL    HW175605  13.184   9.748   3.290 -0.5240 -2.2470 -1.5215
85871SOL    HW275606  13.035   9.741   3.314 -0.2646  0.8766  2.0298
85872SOL     OW75607   8.500  13.985  12.061  0.6833 -0.3837  0.1706
85872SOL    HW175608   8.408  14.010  12.058  1.0384  1.0886  0.8994
85872SOL    HW275609   8.524  13.970  11.969  0.1582  0.8947 -0.1909
85873SOL     OW75610   5.941   3.040  12.078  0.1288  0.3240  0.0099
85873SOL    HW175611   5.934   3.031  12.173 -0.0553  2.4954  0.2386
85873SOL    HW275612   5.861   3.086  12.052 -0.2585 -1.0054 -1.3550
85874SOL     OW75613   5.594  11.152   8.650  0.0495 -0.4877 -0.0694
85874SOL    HW175614   5.669  11.103   8.617  2.2160  2.5092  0.0579
85874SOL    HW275615   5.581  11.222   8.586 -1.8732 -0.2089  0.5667
85875SOL     OW75616   0.587   0.313   9.678  0.3445 -0.0621 -0.2048
85875SOL    HW175617   0.497   0.340   9.698 -0.4798 -1.1646 -2.2004
85875SOL    HW275618   0.636   0.395   9.679 -1.2633  1.0057 -1.8691
85876SOL     OW75619   6.787   9.064   1.365  0.4174  0.1156 -0.2140
85876SOL    HW175620   6.804   9.038   1.455  0.2358  0.3285 -0.1176
85876SOL    HW275621   6.866   9.111   1.338 -0.0718  1.2561  0.2871
85877SOL     OW75622   7.249  11.463   6.819 -0.3677 -0.1205  0.1787
85877SOL    HW175623   7.200  11.513   6.754  0.1356 -0.5676 -0.5452
85877SOL    HW275624   7.273  11.382   6.775  0.0211 -0.4074  0.9020
85878SOL     OW75625  10.909   1.895   9.497 -0.1235  0.3215 -0.0205
85878SOL    HW175626  10.819   1.876   9.470  0.0898  2.2576 -2.5440
85878SOL    HW275627  10.964   1.849   9.433  0.5565  1.3216 -0.1991
85879SOL     OW75628   2.892   5.402  12.680  0.4728 -0.6515  0.1103
85879SOL    HW175629   2.940   5.480  12.709  1.2705 -0.5317 -1.4341
85879SOL    HW275630   2.818   5.437  12.631  0.3343 -0.8629  0.1690
85880SOL     OW75631  13.648   3.032  12.261 -0.2538  0.0795 -0.1490
85880SOL    HW175632  13.599   3.054  12.340 -1.5254 -0.1521 -0.8368
85880SOL    HW275633  13.705   2.959  12.287 -0.9181 -0.2334  0.4744
85881SOL     OW75634   5.062   4.488   1.249  0.5438  0.4873 -0.1800
85881SOL    HW175635   5.139   4.477   1.193 -0.3446 -0.2709 -1.2801
85881SOL    HW275636   5.049   4.403   1.290  0.0723  0.5029 -0.2896
85882SOL     OW75637   1.927   0.306  12.565 -0.4328  0.2063  0.2187
85882SOL    HW175638   1.835   0.333  12.565 -0.7866 -0.9366 -0.2559
85882SOL    HW275639   1.924   0.210  12.563  0.7647  0.0827  1.9289
85883SOL     OW75640  12.011  13.454   0.575  0.2125 -0.0366  0.0478
85883SOL    HW175641  11.968  13.495   0.650 -1.8608 -0.0018 -1.0854
85883SOL    HW275642  12.055  13.377   0.612  0.9628  1.0855  1.5882
85884SOL     OW75643  12.175   8.579   2.720  0.4276  0.3560  0.0338
85884SOL    HW175644  12.085   8.607   2.703  0.4478 -0.3881 -1.4851
85884SOL    HW275645  12.209   8.556   2.633  1.8310 -0.1224  0.6888
85885SOL     OW75646   4.856   1.798  12.201 -0.1122 -0.3099 -0.4609
85885SOL    HW175647   4.875   1.863  12.269  0.8179 -0.4805 -0.5420
85885SOL    HW275648   4.784   1.746  12.237  0.6514 -0.6730  0.5970
85886SOL     OW75649   1.512   6.000  10.275  0.1197 -0.2673 -0.0167
85886SOL    HW175650   1.568   6.075  10.256 -0.1295  0.5228  2.0993
85886SOL    HW275651   1.445   6.035  10.334 -2.3903 -1.2819 -2.0914
85887SOL     OW75652  12.927   1.241   1.751  0.4824  0.3463  0.0917
85887SOL    HW175653  12.933   1.246   1.846  1.3227  0.4396  0.0415
85887SOL    HW275654  12.968   1.321   1.720  0.8540 -0.0124 -0.3657
85888SOL     OW75655   4.024   9.925  13.431  0.1167  0.0839 -0.4933
85888SOL    HW175656   4.066   9.992  13.377 -0.6788  1.8501  0.9272
85888SOL    HW275657   3.949   9.896  13.379 -0.6034  1.7157 -0.4606
85889SOL     OW75658   7.047   8.513   8.620  0.4037 -0.2070 -0.4472
85889SOL    HW175659   7.077   8.445   8.680  0.6218 -0.3964 -0.7667
85889SOL    HW275660   7.005   8.464   8.548  0.1735  0.0132 -0.4608
85890SOL     OW75661   4.210   8.316  11.688 -0.5261 -0.1306 -0.3207
85890SOL    HW175662   4.285   8.299  11.631 -1.7051 -1.2580 -1.6199
85890SOL    HW275663   4.228   8.267  11.768  0.0892 -0.4306 -0.6344
85891SOL     OW75664   8.833   7.774  10.655 -0.7340  0.5391 -0.1048
85891SOL    HW175665   8.863   7.688  10.682  1.0627  0.9208 -0.7357
85891SOL    HW275666   8.874   7.789  10.570 -0.9733  2.0256 -0.0020
85892SOL     OW75667   8.350  10.381   2.579  0.7230 -0.2173  0.2826
85892SOL    HW175668   8.373  10.459   2.529 -1.2589  0.1656 -0.1182
85892SOL    HW275669   8.328  10.315   2.513 -0.7400 -0.0829  0.5991
85893SOL     OW75670   5.261  12.855   7.229 -0.2144  0.5294  0.1084
85893SOL    HW175671   5.190  12.871   7.167 -0.3678 -0.2463  0.0758
85893SOL    HW275672   5.340  12.858   7.176 -0.1997  1.5068  0.1620
85894SOL     OW75673   1.961   6.124   8.104  0.4867 -0.2715 -0.0069
85894SOL    HW175674   1.981   6.196   8.045 -0.4124 -0.5094 -0.6253
85894SOL    HW275675   1.916   6.164   8.178  2.2825  0.1318  0.9154
85895SOL     OW75676   2.247   9.623   7.813 -0.3366 -0.5639 -0.4337
85895SOL    HW175677   2.203   9.685   7.755 -1.1927  0.0630  0.8449
85895SOL    HW275678   2.181   9.556   7.830 -0.8654  0.3734  1.4818
85896SOL     OW75679  11.212  11.615  12.441  0.1212  0.5607 -0.1841
85896SOL    HW175680  11.178  11.698  12.474 -2.6910 -0.2515 -0.7761
85896SOL    HW275681  11.134  11.561  12.426  1.7772 -1.8020 -0.8693
85897SOL     OW75682  11.622  13.325  10.899  0.0306  0.5178 -0.1707
85897SOL    HW175683  11.542  13.373  10.878  0.2423  0.2673 -1.6460
85897SOL    HW275684  11.620  13.249  10.841  0.9988  0.1458  0.2657
85898SOL     OW75685   6.473  10.297   3.214  0.0289  0.5200  0.1135
85898SOL    HW175686   6.561  10.283   3.249  0.3055  2.4386  0.3411
85898SOL    HW275687   6.458  10.224   3.155  1.1756 -0.6402  1.1968
85899SOL     OW75688  12.612   0.996   6.470 -0.3620  0.5246  0.4638
85899SOL    HW175689  12.554   0.933   6.426 -1.0632  1.3909  0.1115
85899SOL    HW275690  12.553   1.049   6.523  0.1885  1.0263  0.5781
85900SOL     OW75691   3.017   6.203   9.087 -0.3763 -0.5985 -0.0892
85900SOL    HW175692   3.058   6.265   9.027 -1.9609 -1.4503 -2.1731
85900SOL    HW275693   3.047   6.231   9.174 -0.6926  2.8669 -0.9282
85901SOL     OW75694   8.840   7.010   5.579  0.0339 -0.2721 -0.0277
85901SOL    HW175695   8.932   7.006   5.606 -0.3019 -0.3156  1.1635
85901SOL    HW275696   8.804   7.084   5.628 -1.5054 -2.5884  2.6436
85902SOL     OW75697   7.273   9.424  10.055 -0.2780  0.1111  0.2890
85902SOL    HW175698   7.264   9.341  10.008 -1.7938 -0.4897  1.5785
85902SOL    HW275699   7.285   9.489   9.985  0.3837 -1.0825 -0.7682
85903SOL     OW75700  12.070  13.597   0.863  0.3412  0.5141  0.0391
85903SOL    HW175701  12.143  13.639   0.817  1.5652 -1.2390  0.2807
85903SOL    HW275702  12.112  13.538   0.926 -1.2170 -1.5404 -0.7068
85904SOL     OW75703   0.990   4.878   9.466  0.0901  0.0763 -0.3961
85904SOL    HW175704   0.979   4.792   9.425  0.0513 -0.0201 -0.1861
85904SOL    HW275705   1.044   4.928   9.405  0.9890 -0.4405 -0.0342
85905SOL     OW75706  13.900   2.233  12.066 -0.1685 -0.4649 -0.3640
85905SOL    HW175707  13.929   2.323  12.056 -0.6516 -0.5421 -3.0384
85905SOL    HW275708  13.907   2.195  11.979 -3.4921 -1.9076 -0.1748
85906SOL     OW75709   7.614   3.792   0.125 -0.2461  0.3069 -0.2581
85906SOL    HW175710   7.540   3.846   0.095 -0.4802 -0.2576 -0.7228
85906SOL    HW275711   7.685   3.812   0.064 -0.1029  0.6305  0.0117
85907SOL     OW75712   2.981   1.467  12.789  0.4228  0.0102 -0.4527
85907SOL    HW175713   3.056   1.526  12.786  0.7357 -0.3297  0.3087
85907SOL    HW275714   2.908   1.522  12.818  1.3672 -0.5198  3.4447
85908SOL     OW75715   3.950   5.173   8.933  0.2238 -0.5458 -0.7880
85908SOL    HW175716   4.000   5.217   9.001 -0.3807  0.3341 -0.8886
85908SOL    HW275717   3.945   5.237   8.862 -1.2509 -0.4814 -0.6750
85909SOL     OW75718   3.191   5.765   7.151  0.3749 -0.0724  0.6212
85909SOL    HW175719   3.258   5.825   7.183  0.0721 -0.2420  1.5913
85909SOL    HW275720   3.185   5.785   7.057  0.8285  0.8646  0.7761
85910SOL     OW75721   3.714   4.421  13.450  0.5544 -0.2407  0.3831
85910SOL    HW175722   3.774   4.458  13.515 -0.0871 -0.3637  1.0566
85910SOL    HW275723   3.638   4.479  13.453 -0.3945 -1.4754  1.3255
85911SOL     OW75724   0.198  10.447   5.094 -0.1597 -0.3727 -0.0039
85911SOL    HW175725   0.224  10.501   5.019  1.3421  0.4667  1.0709
85911SOL    HW275726   0.122  10.492   5.130 -0.4876 -0.4162 -0.6216
85912SOL     OW75727   1.093   9.761  10.619  0.0692 -0.0126 -0.5107
85912SOL    HW175728   1.175   9.804  10.644  0.6334 -0.9281 -0.7583
85912SOL    HW275729   1.089   9.683  10.674  0.0650 -0.7197 -1.4957
85913SOL     OW75730  11.991   3.807   9.280  0.8212 -0.5778 -0.3568
85913SOL    HW175731  11.905   3.803   9.322  1.0059 -2.3547 -0.0734
85913SOL    HW275732  11.973   3.807   9.187  0.4868 -3.5663 -0.3841
85914SOL     OW75733   8.684   0.478  13.943  0.0925 -0.7258  0.2158
85914SOL    HW175734   8.718   0.515  14.025  0.1622 -0.2630 -0.0184
85914SOL    HW275735   8.594   0.453  13.964  0.6772 -2.3288  0.9554
85915SOL     OW75736   4.866   6.034  11.185 -0.2396 -0.0491  0.1356
85915SOL    HW175737   4.866   6.101  11.254  0.1769  1.2066 -1.0494
85915SOL    HW275738   4.827   6.077  11.109  0.0303 -1.1544 -0.6564
85916SOL     OW75739  10.345  12.653   5.407 -0.0698  0.0461 -0.2902
85916SOL    HW175740  10.377  12.599   5.335 -1.7181  0.6729 -1.5828
85916SOL    HW275741  10.345  12.595   5.483 -0.0315 -1.2050 -1.2131
85917SOL     OW75742   6.355   3.215   3.468 -0.0626  0.3131  0.0894
85917SOL    HW175743   6.379   3.122   3.473 -0.9571  0.0085 -0.8071
85917SOL    HW275744   6.281   3.217   3.407  0.3693  1.6971 -0.4284
85918SOL     OW75745   5.756   4.384  13.324  0.0796  0.3924 -0.4752
85918SOL    HW175746   5.755   4.317  13.256  0.0032 -0.5389  0.4045
85918SOL    HW275747   5.798   4.459  13.284  0.5884 -0.3389 -1.3515
85919SOL     OW75748   7.447   6.357   0.627 -0.3150  0.1175  0.4555
85919SOL    HW175749   7.453   6.362   0.532  1.1304  0.8251  0.5608
85919SOL    HW275750   7.481   6.441   0.658  0.4379 -0.5915  1.6254
85920SOL     OW75751   3.170  13.207   7.885  0.2907  0.4195 -0.5098
85920SOL    HW175752   3.118  13.131   7.914  0.8079  0.7890  1.5281
85920SOL    HW275753   3.261  13.181   7.900  0.4618  1.5635  0.6835
85921SOL     OW75754  12.777   0.130   8.424  0.0608 -0.5986 -0.2413
85921SOL    HW175755  12.772   0.152   8.331  1.7305 -0.9477 -0.4556
85921SOL    HW275756  12.759   0.212   8.470 -1.1301 -0.5006 -0.8412
85922SOL     OW75757   2.599   8.875   7.559  0.1391 -0.3812  0.1517
85922SOL    HW175758   2.654   8.954   7.557 -0.3548  0.0038  1.0800
85922SOL    HW275759   2.512   8.908   7.583 -0.4503 -1.0127 -1.0420
85923SOL     OW75760  12.867   1.785   4.132 -0.6341  0.0286  0.3282
85923SOL    HW175761  12.889   1.845   4.061 -0.2985  0.0431  0.4478
85923SOL    HW275762  12.853   1.701   4.088 -0.4644  0.0464  0.2394
85924SOL     OW75763   9.855   4.971   7.360 -0.4094 -0.0624 -0.3063
85924SOL    HW175764   9.846   5.009   7.273 -0.6550  2.1275  0.6096
85924SOL    HW275765   9.766   4.947   7.386 -0.2356 -1.4894 -0.9431
85925SOL     OW75766   7.800   7.960   8.242 -0.1669 -0.0874  0.0089
85925SOL    HW175767   7.875   7.937   8.297 -0.7088 -0.0701  0.7736
85925SOL    HW275768   7.774   7.878   8.200 -0.8133 -0.4741  1.1280
85926SOL     OW75769   4.206  11.601  12.567  0.6719 -0.0780  0.2386
85926SOL    HW175770   4.122  11.565  12.539  0.6388  0.6525 -0.6703
85926SOL    HW275771   4.186  11.691  12.594  1.1510  0.0970  0.0243
85927SOL     OW75772  11.368   1.558   6.817  0.1390 -0.6340 -0.0265
85927SOL    HW175773  11.299   1.492   6.817 -0.5845  0.0833 -1.5777
85927SOL    HW275774  11.438   1.519   6.869 -0.7682 -2.0863  0.1542
85928SOL     OW75775  13.405   4.717  13.772  0.7522 -0.0811 -0.1032
85928SOL    HW175776  13.464   4.717  13.696  1.4559 -1.4972  0.4054
85928SOL    HW275777  13.427   4.636  13.819  0.7438  1.0273  1.9127
85929SOL     OW75778   7.614   6.891   2.509  0.3840  0.5071 -0.0621
85929SOL    HW175779   7.548   6.822   2.517 -0.1280  1.1801  3.5497
85929SOL    HW275780   7.697   6.845   2.508  0.0450 -0.2667  2.0608
85930SOL     OW75781   2.399   7.853  11.134  0.3552  0.4452  0.3463
85930SOL    HW175782   2.318   7.905  11.128 -1.0796 -1.8380 -1.8996
85930SOL    HW275783   2.377   7.783  11.196  0.2282 -0.6616 -0.8931
85931SOL     OW75784   1.384   1.959   2.589 -0.0825  0.2422 -0.0095
85931SOL    HW175785   1.346   1.877   2.620 -1.9721  0.6068 -1.1922
85931SOL    HW275786   1.445   1.933   2.521 -0.0328 -0.2287  0.2119
85932SOL     OW75787   9.775   9.195  10.347  1.1580  0.3424 -0.3800
85932SOL    HW175788   9.715   9.200  10.422 -0.3221 -0.4711 -1.4519
85932SOL    HW275789   9.849   9.250  10.372 -0.3924  2.0528  0.6778
85933SOL     OW75790   0.341   7.525   8.485 -0.3528 -0.2690  0.1153
85933SOL    HW175791   0.297   7.443   8.460 -1.8832  0.7608 -0.7685
85933SOL    HW275792   0.316   7.587   8.416 -1.9765  1.8294  2.4070
85934SOL     OW75793   8.410   9.491   4.516  0.3120  0.0693  0.3278
85934SOL    HW175794   8.399   9.425   4.584 -0.5019  1.8284  2.0291
85934SOL    HW275795   8.462   9.560   4.558  1.3479  0.4237 -1.4440
85935SOL     OW75796   8.701   1.667   7.164  0.3415 -0.0167  0.0143
85935SOL    HW175797   8.704   1.757   7.196 -2.5651  0.2725 -0.2241
85935SOL    HW275798   8.684   1.614   7.243 -2.0284  0.1781 -0.2773
85936SOL     OW75799   4.455  10.992   4.056 -0.1633  0.5177  0.5327
85936SOL    HW175800   4.408  11.008   3.974  0.6785  2.1801  0.3324
85936SOL    HW275801   4.425  10.906   4.084 -2.2505  0.8951 -0.3176
85937SOL     OW75802  10.445   1.586   9.404 -0.1805 -0.6468  0.1318
85937SOL    HW175803  10.499   1.663   9.386 -1.5203  0.5211  0.9082
85937SOL    HW275804  10.380   1.585   9.333 -1.3941  0.1360  1.1908
85938SOL     OW75805  12.370  11.390  11.033  0.3317  0.3346 -0.1824
85938SOL    HW175806  12.326  11.365  10.951  0.0337  0.1901  0.0212
85938SOL    HW275807  12.314  11.458  11.070 -0.1268 -0.3824  0.4579
85939SOL     OW75808  12.801   5.040  10.358  0.8695 -0.3811 -0.0161
85939SOL    HW175809  12.754   5.025  10.440 -0.6205 -0.9742 -0.9383
85939SOL    HW275810  12.888   5.067  10.386 -0.1888  1.4912  1.7849
85940SOL     OW75811  11.887   2.986   6.675  0.3829 -0.8428 -0.3279
85940SOL    HW175812  11.902   2.906   6.725  0.3348  0.3196  1.6675
85940SOL    HW275813  11.793   2.987   6.660  0.2327 -0.6823  0.5501
85941SOL     OW75814   0.473  10.565  11.918  0.2474  0.4818 -0.0577
85941SOL    HW175815   0.418  10.506  11.867 -1.5212  2.3260 -0.3922
85941SOL    HW275816   0.563  10.544  11.892 -0.3125 -1.9519 -0.2179
85942SOL     OW75817   1.480   8.791  12.577 -0.3218 -0.4194 -0.2292
85942SOL    HW175818   1.449   8.776  12.666 -0.3399  2.2048  0.3041
85942SOL    HW275819   1.400   8.801  12.525 -0.3351  0.2956 -0.0761
85943SOL     OW75820   4.240   8.296   1.578 -0.0911  0.3138  0.0166
85943SOL    HW175821   4.170   8.337   1.528  0.4407  0.1012 -0.9385
85943SOL    HW275822   4.313   8.358   1.573 -0.4798  0.9645  1.7929
85944SOL     OW75823   6.344  13.110   3.802  0.1533  0.1069 -0.6919
85944SOL    HW175824   6.299  13.103   3.886  0.7054 -1.1823 -0.4823
85944SOL    HW275825   6.286  13.163   3.748 -0.6346  0.1894  0.2117
85945SOL     OW75826   1.084   2.011  12.102  0.1600 -0.4474  0.4371
85945SOL    HW175827   1.025   2.077  12.065 -0.9774 -0.8664  1.4360
85945SOL    HW275828   1.028   1.959  12.160  1.1780 -1.8712  0.1839
85946SOL     OW75829   5.546  13.089   6.490  0.0375  0.0905 -0.3331
85946SOL    HW175830   5.604  13.022   6.524 -0.0323  0.7451  1.1775
85946SOL    HW275831   5.469  13.041   6.459 -0.3887 -0.4925  1.5253
85947SOL     OW75832  11.610   3.103  14.045 -0.2812 -0.0888  0.5323
85947SOL    HW175833  11.663   3.091  14.124  4.3323  2.2700 -1.7739
85947SOL    HW275834  11.549   3.173  14.068  0.6667  0.2625  2.1763
85948SOL     OW75835  11.505   4.551   3.860  0.1195  0.1853 -0.2004
85948SOL    HW175836  11.550   4.525   3.940 -0.5137  1.7906  0.7425
85948SOL    HW275837  11.572   4.549   3.792  0.9215 -0.1850  0.5857
85949SOL     OW75838   8.617  10.394  11.094 -0.2120  0.1109 -0.5310
85949SOL    HW175839   8.684  10.329  11.070 -0.5452 -0.0829 -0.9495
85949SOL    HW275840   8.667  10.475  11.107  0.3485 -0.4649  1.1103
85950SOL     OW75841   7.932   0.138  10.564  0.2515 -0.0268 -0.0327
85950SOL    HW175842   7.946   0.059  10.510  0.9092 -1.2997  1.8879
85950SOL    HW275843   7.966   0.114  10.650 -1.8023  1.5307  1.2871
85951SOL     OW75844   0.889   1.220  11.439  0.2108  0.5090 -0.0152
85951SOL    HW175845   0.968   1.269  11.417 -0.3603  0.5814 -2.1465
85951SOL    HW275846   0.918   1.150  11.498  2.8331 -2.4424 -4.3277
85952SOL     OW75847  12.875  11.918  12.402 -0.2035 -0.3384  0.1360
85952SOL    HW175848  12.860  11.832  12.442 -0.5485  0.8702  2.8607
85952SOL    HW275849  12.816  11.977  12.450 -0.7827  1.2877 -2.3953
85953SOL     OW75850  10.607   1.944   6.808 -0.0058  1.1227  0.1201
85953SOL    HW175851  10.542   1.974   6.872  1.4049  0.6228  1.8586
85953SOL    HW275852  10.659   2.021   6.788  0.4689  0.9746  0.7379
85954SOL     OW75853   5.533  10.760   3.470  0.1557 -0.4522  0.3248
85954SOL    HW175854   5.600  10.815   3.509  1.5535 -1.6524 -0.3061
85954SOL    HW275855   5.567  10.738   3.384 -1.6246 -0.0977 -0.5112
85955SOL     OW75856   2.730   3.258   3.375  0.3731 -0.4553 -0.1723
85955SOL    HW175857   2.665   3.187   3.370  0.0577 -0.1223 -0.9635
85955SOL    HW275858   2.708   3.306   3.454 -0.5087 -0.1928 -0.5729
85956SOL     OW75859   4.923   4.907   3.055  0.3081  0.0502 -0.1605
85956SOL    HW175860   4.903   4.952   3.137  1.2425  0.6858 -0.2605
85956SOL    HW275861   5.019   4.903   3.052  0.3345  0.8755 -1.6505
85957SOL     OW75862   5.324   0.372   6.542  0.1566  0.1444 -0.5138
85957SOL    HW175863   5.324   0.462   6.510  1.3523  0.4474  0.2632
85957SOL    HW275864   5.271   0.375   6.621 -1.3466 -0.2445 -1.4662
85958SOL     OW75865  10.571   0.238   4.819  0.2209 -0.0870 -0.3316
85958SOL    HW175866  10.643   0.229   4.882  0.6141  0.9319 -0.6270
85958SOL    HW275867  10.568   0.332   4.799 -1.3303 -0.0805 -0.1538
85959SOL     OW75868   1.233   0.945   4.124  0.1729 -0.2025 -0.0123
85959SOL    HW175869   1.273   0.974   4.205 -1.2855 -0.0670  0.6998
85959SOL    HW275870   1.139   0.945   4.142 -0.0983 -1.8237 -1.1578
85960SOL     OW75871  10.633   2.502   5.107  0.1062 -0.2499  0.2396
85960SOL    HW175872  10.543   2.535   5.111  0.6303  1.1257  1.2928
85960SOL    HW275873  10.625   2.410   5.132 -0.9206  0.0520  1.1222
85961SOL     OW75874  11.396  14.106   2.234  0.4461 -0.0565 -0.0048
85961SOL    HW175875  11.440  14.100   2.318  1.9812  1.8010 -0.5976
85961SOL    HW275876  11.343  14.185   2.240  0.6679  0.1639 -0.7993
85962SOL     OW75877   4.747   7.861   9.754 -0.4720  0.0289  0.1197
85962SOL    HW175878   4.716   7.952   9.757 -0.7300 -0.0726  0.6202
85962SOL    HW275879   4.724   7.825   9.839  1.9045  0.2083  0.8948
85963SOL     OW75880   2.765   3.516  11.184  0.2420  0.3146  0.3947
85963SOL    HW175881   2.792   3.473  11.265 -0.1593 -1.5113 -0.3897
85963SOL    HW275882   2.828   3.587  11.172  2.1215 -1.2126  0.7850
85964SOL     OW75883   6.184   6.152   4.670 -0.1429 -0.5926  0.4510
85964SOL    HW175884   6.213   6.238   4.702  0.3289  0.0700 -1.6029
85964SOL    HW275885   6.100   6.170   4.627  0.4746 -0.9137 -0.9478
85965SOL     OW75886  13.526  13.192   1.698 -0.0860  0.0381  0.3324
85965SOL    HW175887  13.494  13.272   1.740 -0.4749  0.1670 -0.1928
85965SOL    HW275888  13.456  13.128   1.711  0.5178 -0.4352  1.3565
85966SOL     OW75889   6.895   3.317   3.054 -0.1263 -0.1897 -0.0818
85966SOL    HW175890   6.866   3.240   3.006  1.0636 -0.1994 -0.8065
85966SOL    HW275891   6.872   3.391   2.998 -0.5875 -0.0532  0.2765
85967SOL     OW75892   2.610   2.805   3.059 -0.7442 -0.1147  0.6082
85967SOL    HW175893   2.635   2.715   3.040  2.9318  0.8662 -0.0092
85967SOL    HW275894   2.614   2.812   3.155 -0.7495 -0.5075  0.6353
85968SOL     OW75895   8.739   8.814   0.929  0.1354  0.5212  0.2806
85968SOL    HW175896   8.798   8.886   0.953  2.0746 -0.8817  0.0411
85968SOL    HW275897   8.750   8.750   1.000  1.5590 -1.2194 -1.3930
85969SOL     OW75898   1.560  10.230  12.507 -0.0372  0.0833 -0.3017
85969SOL    HW175899   1.549  10.246  12.601 -2.6068  0.5729 -0.6153
85969SOL    HW275900   1.477  10.257  12.468 -0.1135 -2.7063 -2.3807
85970SOL     OW75901   5.352   3.977  11.700 -0.0935  0.2689 -0.5015
85970SOL    HW175902   5.303   4.059  11.693  0.6380  0.8169  0.5483
85970SOL    HW275903   5.284   3.909  11.709 -0.7069  0.7286 -1.5256
85971SOL     OW75904   1.198  11.089   2.377  1.4277 -0.2727 -0.4875
85971SOL    HW175905   1.130  11.098   2.310 -0.1916 -2.1070  0.8221
85971SOL    HW275906   1.239  11.176   2.381  0.2336  0.4384 -2.4080
85972SOL     OW75907   1.116   4.369   5.033 -0.7815 -0.2664  0.2991
85972SOL    HW175908   1.056   4.327   5.095  0.6554 -1.4276  0.9708
85972SOL    HW275909   1.200   4.328   5.050  0.4910  2.1227  0.1760
85973SOL     OW75910   8.499   0.389   4.320  0.2938 -0.1707  0.1291
85973SOL    HW175911   8.429   0.429   4.269 -1.0832 -1.5052  0.9010
85973SOL    HW275912   8.575   0.392   4.262 -0.1233  2.0863 -0.4112
85974SOL     OW75913  10.096   4.852   8.254 -0.2456 -0.2523  0.5680
85974SOL    HW175914  10.008   4.842   8.290 -0.6941 -3.0752 -1.0158
85974SOL    HW275915  10.091   4.931   8.201 -0.7730  1.5567  3.1522
85975SOL     OW75916   3.724   7.770   6.405 -0.4323 -0.0599 -0.7689
85975SOL    HW175917   3.727   7.676   6.387 -0.4533 -0.0583 -0.7808
85975SOL    HW275918   3.786   7.782   6.477 -0.3347 -0.0639 -0.8515
85976SOL     OW75919   5.741   4.620   6.298 -0.0968 -0.3027 -0.1431
85976SOL    HW175920   5.795   4.579   6.231 -0.5562 -1.6911  0.2949
85976SOL    HW275921   5.720   4.549   6.358 -0.2661  0.7687  1.1028
85977SOL     OW75922   6.495   7.249   6.877 -0.4133  0.5158  0.1658
85977SOL    HW175923   6.432   7.225   6.809 -0.3135  0.8659 -0.0498
85977SOL    HW275924   6.445   7.300   6.940 -0.0685  1.9174 -0.6643
85978SOL     OW75925   9.687   3.722   9.850  0.0396  0.3223 -0.5953
85978SOL    HW175926   9.666   3.711   9.758  1.1111 -0.5446 -0.7660
85978SOL    HW275927   9.757   3.787   9.851  1.2111 -0.8684 -0.5958
85979SOL     OW75928   4.908   8.665   4.995  0.4226 -0.4016  0.2394
85979SOL    HW175929   4.854   8.656   5.074  1.2413 -0.8996  0.7600
85979SOL    HW275930   4.965   8.588   4.997 -0.1066 -0.8724 -1.2898
85980SOL     OW75931   2.417   6.363   3.878 -0.5329  0.5594 -0.4308
85980SOL    HW175932   2.372   6.280   3.896  0.8530  0.0249  0.7958
85980SOL    HW275933   2.390   6.386   3.789 -0.4267 -1.5730 -1.0657
85981SOL     OW75934   9.490   2.969   2.073 -0.4757  0.4157  0.8243
85981SOL    HW175935   9.563   3.008   2.024 -0.3008  0.4895  1.1426
85981SOL    HW275936   9.493   2.876   2.051 -1.6761  0.7559 -0.9576
85982SOL     OW75937  11.447   5.241   4.925 -0.4169 -0.6507  0.0833
85982SOL    HW175938  11.527   5.235   4.977  1.7151 -0.1755 -2.8831
85982SOL    HW275939  11.443   5.333   4.898 -1.8319 -0.7363 -0.0752
85983SOL     OW75940   0.608   7.691   8.925 -0.2376 -0.3406 -0.3920
85983SOL    HW175941   0.567   7.764   8.878 -0.0342  0.1610  0.2050
85983SOL    HW275942   0.553   7.678   9.002  0.9416  0.6044  0.6299
85984SOL     OW75943   3.115   2.827  12.550  0.3039 -0.1422  0.4300
85984SOL    HW175944   3.065   2.836  12.631 -0.3258 -0.2337  0.0599
85984SOL    HW275945   3.063   2.875  12.485  1.4895  1.1050  0.3583
85985SOL     OW75946   7.844   8.584   8.161  0.1485  0.4891  0.0915
85985SOL    HW175947   7.787   8.552   8.092  0.0950  0.0530  0.3309
85985SOL    HW275948   7.818   8.534   8.239  1.3331 -0.2461  0.0453
85986SOL     OW75949   6.135  11.345   6.515 -0.1739  0.0448  0.1570
85986SOL    HW175950   6.077  11.269   6.511  1.4249 -1.1765 -2.0723
85986SOL    HW275951   6.166  11.356   6.425  2.9968  0.6266  1.1948
85987SOL     OW75952   0.008   6.309   5.499  0.9530  0.2548  0.1462
85987SOL    HW175953   0.013   6.378   5.565  0.6913  0.4050  0.0094
85987SOL    HW275954   0.077   6.332   5.436  1.1329  0.1686  0.3089
85988SOL     OW75955   0.331  10.045  11.295  0.7337  0.4638  0.1066
85988SOL    HW175956   0.327   9.949  11.292 -0.8561  0.4885  0.6171
85988SOL    HW275957   0.355  10.065  11.386  2.6346  0.5583 -0.3693
85989SOL     OW75958  11.437  10.943  12.980  0.0757  0.1974  0.4533
85989SOL    HW175959  11.396  10.925  13.064  1.6162  0.9662  1.4044
85989SOL    HW275960  11.531  10.932  12.996  0.3289 -0.9287 -1.4964
85990SOL     OW75961  12.498   6.018   9.748 -0.0331  0.0871 -0.1894
85990SOL    HW175962  12.498   6.028   9.843  1.4748  0.2665 -0.1772
85990SOL    HW275963  12.580   5.972   9.729 -0.7308 -0.7267 -1.3338
85991SOL     OW75964  12.143   6.420   7.798 -0.1027  0.4728 -0.4096
85991SOL    HW175965  12.075   6.465   7.748 -0.2761 -0.3616 -0.9449
85991SOL    HW275966  12.095   6.362   7.857  0.1048 -1.0553 -1.6521
85992SOL     OW75967   4.462   6.521   0.301  0.0395  0.2165  0.5549
85992SOL    HW175968   4.453   6.566   0.385  0.0726 -0.3682  0.8801
85992SOL    HW275969   4.478   6.430   0.325 -0.4503 -0.0462 -0.0957
85993SOL     OW75970   0.935   6.996   5.022 -0.1088 -0.2173  0.0644
85993SOL    HW175971   0.891   7.080   5.038 -0.1478 -0.2894  0.3467
85993SOL    HW275972   0.865   6.931   5.028  0.0519 -0.3458  0.6475
85994SOL     OW75973   9.747  10.494   5.437  0.0350 -0.4903  0.1783
85994SOL    HW175974   9.718  10.459   5.521 -0.2738  1.4951  0.9619
85994SOL    HW275975   9.838  10.464   5.428 -0.7796 -3.0848 -0.1935
85995SOL     OW75976  10.460   5.213   9.789  0.0625  0.2587 -0.1758
85995SOL    HW175977  10.398   5.261   9.734 -1.6600 -1.4474  0.1532
85995SOL    HW275978  10.532   5.189   9.730 -1.5128 -1.1293 -1.6430
85996SOL     OW75979  10.792  11.924  13.079  0.6016  0.3699 -0.0082
85996SOL    HW175980  10.771  11.835  13.109  0.8443 -0.1500 -1.3102
85996SOL    HW275981  10.814  11.972  13.159 -1.2350 -0.2497  0.9125
85997SOL     OW75982   6.156  10.362  11.650 -0.0920  0.0575 -0.0122
85997SOL    HW175983   6.150  10.444  11.601  0.9336 -0.6872 -1.4869
85997SOL    HW275984   6.104  10.376  11.729 -1.9902  1.2767 -1.3944
85998SOL     OW75985  10.687   7.716   5.117  0.1352 -0.3115  0.0139
85998SOL    HW175986  10.664   7.655   5.046 -0.0566  0.0593 -0.2451
85998SOL    HW275987  10.667   7.667   5.197 -0.5831 -0.3833 -0.1980
85999SOL     OW75988  11.084   1.682   1.246  0.2525 -0.1411  0.2711
85999SOL    HW175989  11.067   1.675   1.340  1.0322 -0.8956  0.3676
85999SOL    HW275990  11.050   1.601   1.209  0.1304  0.0644 -0.0738
86000SOL     OW75991   8.052   9.929   5.197 -0.1859  0.0174 -0.0686
86000SOL    HW175992   8.088  10.015   5.217 -0.2633 -0.1729  0.9662
86000SOL    HW275993   7.959   9.944   5.183  0.3434  0.6804 -3.8253
86001SOL     OW75994   8.500   5.018   0.201 -0.7247 -0.2820 -0.0342
86001SOL    HW175995   8.471   5.105   0.230 -0.9955 -0.1389 -0.7087
86001SOL    HW275996   8.565   5.035   0.133  1.5515 -0.5960  1.9376
86002SOL     OW75997  12.945   1.311   0.981  0.2648  0.2276 -0.6902
86002SOL    HW175998  12.904   1.378   1.036 -0.7343 -0.4173 -0.6283
86002SOL    HW275999  12.949   1.234   1.037  1.4146  0.2180 -0.7618
86003SOL     OW76000  10.320   5.426  11.225  0.1242  0.0867 -0.2935
86003SOL    HW176001  10.325   5.336  11.192  1.8263 -0.1540  0.5096
86003SOL    HW276002  10.296   5.478  11.148 -0.9012 -1.0308 -0.7659
86004SOL     OW76003   6.517  13.351   5.275  0.5461  0.2617  0.2770
86004SOL    HW176004   6.558  13.297   5.208  2.5556  0.8785  0.9360
86004SOL    HW276005   6.584  13.360   5.343 -0.9377  0.7780  1.7504
86005SOL     OW76006   8.779   1.942   6.124 -0.2994 -0.5297  0.8090
86005SOL    HW176007   8.802   1.973   6.037 -1.2849 -1.1868  0.2917
86005SOL    HW276008   8.788   1.847   6.120 -2.8792 -0.8465  0.5625
86006SOL     OW76009  11.628   9.412   3.377 -0.4150  0.7257 -0.7944
86006SOL    HW176010  11.615   9.504   3.357  1.2876  0.8257 -1.5341
86006SOL    HW276011  11.668   9.375   3.299  0.3951 -0.2954  0.0743
86007SOL     OW76012   0.446   5.427   6.912 -0.0231  0.2173 -0.0333
86007SOL    HW176013   0.410   5.514   6.892  0.6566  0.0481 -2.2682
86007SOL    HW276014   0.388   5.367   6.865  1.4593 -0.2558 -1.3272
86008SOL     OW76015   9.032  12.460  12.691  0.2932 -0.1409  0.6870
86008SOL    HW176016   8.974  12.386  12.708  2.0164 -1.5009  0.8708
86008SOL    HW276017   9.008  12.525  12.758 -1.3031 -0.4565  0.4633
86009SOL     OW76018   9.775  13.383   2.476  1.2013 -0.5092 -0.3739
86009SOL    HW176019   9.769  13.345   2.388  1.3722 -0.2885 -0.4821
86009SOL    HW276020   9.709  13.336   2.527  0.9740 -0.5091 -0.6680
86010SOL     OW76021   9.365  11.062  11.720 -0.2178 -0.8035 -0.4086
86010SOL    HW176022   9.316  11.103  11.791  0.0973 -1.1414  0.0117
86010SOL    HW276023   9.437  11.123  11.703 -0.0949 -0.8862 -0.1954
86011SOL     OW76024   9.634   0.797   8.764  0.4877  0.1522  0.0950
86011SOL    HW176025   9.618   0.843   8.682 -2.3369 -1.0605 -0.1427
86011SOL    HW276026   9.630   0.704   8.740  0.0623 -0.2226  1.5235
86012SOL     OW76027   5.369  10.463   7.726 -0.0831 -0.3414  0.3148
86012SOL    HW176028   5.400  10.386   7.774  3.3517  0.7558  0.1904
86012SOL    HW276029   5.344  10.525   7.795  1.0831 -0.1676  0.6084
86013SOL     OW76030   7.114  10.083   8.349  0.2407  0.3993 -0.5630
86013SOL    HW176031   7.037  10.069   8.404 -0.5591  2.6081 -1.0299
86013SOL    HW276032   7.162   9.999   8.353 -1.5272 -0.6166  0.7087
86014SOL     OW76033   4.539   8.259   1.279 -0.4937 -0.0576  0.1546
86014SOL    HW176034   4.545   8.292   1.369 -1.1081  0.0758  0.1489
86014SOL    HW276035   4.618   8.205   1.268  0.2254  0.9295  0.3578
86015SOL     OW76036  10.629   4.763  12.472  0.2731 -0.0021 -0.5351
86015SOL    HW176037  10.646   4.736  12.382  0.0791  0.5854 -0.7519
86015SOL    HW276038  10.545   4.808  12.469  0.9340  1.3096 -0.3456
86016SOL     OW76039   0.051   1.320   3.665  0.2658  0.1308 -0.0653
86016SOL    HW176040   0.100   1.402   3.660  3.0113 -1.4764 -1.7325
86016SOL    HW276041   0.046   1.289   3.574 -0.8528 -1.4848  0.4968
86017SOL     OW76042   7.990  12.045   9.167 -0.2748 -0.0516 -0.1671
86017SOL    HW176043   7.929  12.086   9.229  0.0808  1.0618 -0.5326
86017SOL    HW276044   8.051  12.114   9.144  0.8144 -1.0048 -0.2357
86018SOL     OW76045   3.736   2.703   4.896  0.1893  0.1792 -0.2638
86018SOL    HW176046   3.811   2.645   4.907  0.2117  0.1405 -0.6125
86018SOL    HW276047   3.749   2.744   4.810 -1.1901 -1.3301 -1.2729
86019SOL     OW76048   7.553   2.212   6.147  0.1069 -0.1826 -0.1004
86019SOL    HW176049   7.564   2.302   6.175  3.7632 -0.3209 -0.6536
86019SOL    HW276050   7.572   2.159   6.225  2.1323 -0.4467 -0.7137
86020SOL     OW76051   6.859   4.554   4.531 -0.5263 -0.3793 -0.5685
86020SOL    HW176052   6.849   4.529   4.623 -2.2714  0.3887 -0.5101
86020SOL    HW276053   6.770   4.552   4.496 -0.4357  2.7678 -1.2996
86021SOL     OW76054   6.475  10.673   6.977  0.2405  0.3031  0.2026
86021SOL    HW176055   6.385  10.669   7.008  0.1268  0.0723 -0.1555
86021SOL    HW276056   6.510  10.753   7.017 -0.0646  0.2963  0.4908
86022SOL     OW76057   0.504  11.927   0.646 -0.3649  0.6003  0.3799
86022SOL    HW176058   0.473  11.846   0.687  0.1924 -0.9205 -1.9958
86022SOL    HW276059   0.599  11.922   0.652 -0.3036  0.7174 -0.3722
86023SOL     OW76060   4.909   5.820   1.378  0.2745 -0.6809 -0.2700
86023SOL    HW176061   4.930   5.779   1.294  0.8572 -2.0753  0.5191
86023SOL    HW276062   4.994   5.836   1.419  0.0447  1.1888 -0.4641
86024SOL     OW76063   1.220   5.012   2.733 -0.0230  1.2714  0.1327
86024SOL    HW176064   1.305   5.050   2.712 -0.0595  2.2792  1.6574
86024SOL    HW276065   1.197   5.050   2.818  0.5113 -3.0084  2.4829
86025SOL     OW76066   7.623  14.145  12.607  0.0715  0.0712 -0.0306
86025SOL    HW176067   7.650  14.162  12.697  1.7228  0.1856 -0.5197
86025SOL    HW276068   7.704  14.150  12.556 -0.9153  0.5903 -1.6126
86026SOL     OW76069   4.706   7.474   4.204 -0.1493 -0.0328  0.1570
86026SOL    HW176070   4.657   7.552   4.229  0.2486  0.9923 -2.0085
86026SOL    HW276071   4.792   7.486   4.244 -0.8012 -0.5719  1.8082
86027SOL     OW76072   4.285   8.265  12.961 -0.2588  0.5582 -0.3581
86027SOL    HW176073   4.332   8.182  12.970 -0.0000  0.8874  2.1035
86027SOL    HW276074   4.196   8.245  12.992 -0.4202  1.0137 -0.5268
86028SOL     OW76075  11.480  11.091   3.001 -0.5172 -0.2638 -0.5716
86028SOL    HW176076  11.554  11.039   2.970 -1.0790 -0.8669 -0.9097
86028SOL    HW276077  11.489  11.175   2.955  1.7055  0.8493  1.7007
86029SOL     OW76078   5.202   4.636   0.266 -0.4010  0.0620 -0.1382
86029SOL    HW176079   5.159   4.626   0.181 -0.7939 -0.3142  0.1004
86029SOL    HW276080   5.133   4.618   0.330  0.1980 -0.9068  0.2507
86030SOL     OW76081   6.458   6.274  11.794 -0.4888  0.0486  0.4334
86030SOL    HW176082   6.473   6.303  11.884 -2.2353  1.6001  0.2940
86030SOL    HW276083   6.365   6.290  11.779 -0.6483 -1.9080 -1.0681
86031SOL     OW76084  11.473  12.514   0.139 -0.5362  0.7456  0.3418
86031SOL    HW176085  11.532  12.498   0.213  0.8597  0.9521 -0.6622
86031SOL    HW276086  11.445  12.427   0.112 -2.3396  0.7284  2.0298
86032SOL     OW76087   6.252   2.671  11.594 -0.2668  0.1799  0.8372
86032SOL    HW176088   6.322   2.684  11.530 -1.1608  0.9747 -0.0155
86032SOL    HW276089   6.218   2.583  11.575 -1.7005  1.0662 -1.0293
86033SOL     OW76090   0.041   9.199   0.814  0.6857 -0.2061  0.1797
86033SOL    HW176091   0.111   9.134   0.824  2.2040  1.3131 -0.1421
86033SOL    HW276092   0.053   9.260   0.887  0.9882  1.1961 -0.9898
86034SOL     OW76093   2.413  13.348   8.944 -0.0631  0.1001  0.1337
86034SOL    HW176094   2.496  13.372   8.903 -0.1444 -0.6451 -0.4918
86034SOL    HW276095   2.347  13.395   8.893 -0.0012  1.1057  0.9567
86035SOL     OW76096  11.383  12.270  10.668 -0.4076  0.0635  0.5517
86035SOL    HW176097  11.474  12.244  10.653 -1.0030 -1.0879 -1.5001
86035SOL    HW276098  11.378  12.360  10.635  0.2108  0.5420  1.7099
86036SOL     OW76099   3.887  10.700   7.910  0.2936 -0.4949  0.6536
86036SOL    HW176100   3.931  10.758   7.847 -0.1401 -0.9726 -0.1108
86036SOL    HW276101   3.958  10.661   7.960  0.6784 -0.3870  0.2044
86037SOL     OW76102   0.018   3.635   3.814 -0.6720 -0.1056  0.0748
86037SOL    HW176103   0.013   3.728   3.836  0.4713 -0.3804  1.6516
86037SOL    HW276104  -0.060   3.618   3.762 -1.9584  1.3005  1.4642
86038SOL     OW76105   5.084   8.983   2.623 -0.1155 -0.4095 -0.3786
86038SOL    HW176106   5.135   8.971   2.703  1.0093  1.4670 -0.7520
86038SOL    HW276107   4.998   9.010   2.654  0.1324 -0.2825  0.2119
86039SOL     OW76108   2.545  13.947   9.959 -0.5044 -0.7318 -0.0940
86039SOL    HW176109   2.621  13.944  10.016 -0.3412 -0.9644 -0.3238
86039SOL    HW276110   2.565  13.886   9.888 -1.5990 -2.0572  0.6960
86040SOL     OW76111  11.414  11.002   2.613 -0.4118  0.2611  0.3886
86040SOL    HW176112  11.438  10.914   2.642  0.5215  0.3051 -0.1970
86040SOL    HW276113  11.473  11.060   2.661  1.2759  0.3275 -1.5841
86041SOL     OW76114   7.052   7.402   1.429 -0.1395 -0.3900  0.1574
86041SOL    HW176115   7.026   7.314   1.458 -1.9161  0.2548  0.6408
86041SOL    HW276116   7.138   7.389   1.390 -1.5444 -2.9160 -2.5153
86042SOL     OW76117  11.524  11.512   5.964 -0.3047  0.0920  0.1664
86042SOL    HW176118  11.464  11.573   5.922  1.4229  1.4707 -0.3913
86042SOL    HW276119  11.527  11.437   5.905 -0.4748  0.5784 -0.4733
86043SOL     OW76120  11.092  12.338   7.646  0.6933 -0.6278 -0.2018
86043SOL    HW176121  11.067  12.380   7.564  0.9946  0.8884  0.4525
86043SOL    HW276122  11.138  12.258   7.620 -0.4929 -0.9424 -1.4707
86044SOL     OW76123  14.009   6.281   8.499 -0.5654  0.0171  0.4007
86044SOL    HW176124  13.950   6.350   8.529 -0.8757  0.9495 -2.1335
86044SOL    HW276125  13.968   6.200   8.530 -1.3253  0.8235  1.6058
86045SOL     OW76126   5.741   2.356  11.845  0.3851  0.0222 -0.6265
86045SOL    HW176127   5.793   2.309  11.780  2.7241  1.8313 -0.2172
86045SOL    HW276128   5.754   2.307  11.926  2.3897  0.9441 -0.3122
86046SOL     OW76129   2.801  11.983   2.459  0.1392 -0.5430 -0.3272
86046SOL    HW176130   2.740  11.911   2.443  0.9048 -0.6295 -3.6321
86046SOL    HW276131   2.887  11.942   2.462  0.4211  0.0250 -0.4202
86047SOL     OW76132   9.825   5.301  11.497 -0.1140 -0.3457 -0.1888
86047SOL    HW176133   9.762   5.268  11.433 -0.2698  1.6035 -1.1234
86047SOL    HW276134   9.899   5.331  11.444  1.6650 -2.5857  0.8773
86048SOL     OW76135   7.390   5.480   1.079 -0.0435  0.2344  0.1652
86048SOL    HW176136   7.481   5.460   1.059  0.4186  1.3481  1.0703
86048SOL    HW276137   7.394   5.549   1.146 -1.5492  1.7914 -1.2653
86049SOL     OW76138   1.000   5.056   0.465 -0.2530 -0.3406 -0.5406
86049SOL    HW176139   0.997   4.967   0.430 -0.7455  0.7528 -3.5781
86049SOL    HW276140   1.079   5.058   0.519 -0.9009 -2.8967  0.7010
86050SOL     OW76141  11.331   4.570   1.757 -0.4855  0.3266 -0.2767
86050SOL    HW176142  11.322   4.512   1.833  1.6944  0.0995 -0.1410
86050SOL    HW276143  11.359   4.654   1.793  2.7669 -0.3659 -0.8601
86051SOL     OW76144   0.090  11.505   7.723 -0.0846  0.5961 -0.1429
86051SOL    HW176145   0.069  11.555   7.801 -1.2525  2.3698 -1.4955
86051SOL    HW276146   0.182  11.526   7.705 -0.2676  1.4801 -0.1121
86052SOL     OW76147   4.519  11.297   6.151  0.2513  0.2036 -0.3633
86052SOL    HW176148   4.517  11.281   6.057 -2.4377  2.4330 -0.8052
86052SOL    HW276149   4.453  11.238   6.187 -0.4409  1.0444 -0.2301
86053SOL     OW76150  10.190   7.355  10.709  0.4652 -0.6508 -0.3536
86053SOL    HW176151  10.160   7.265  10.723  0.8063 -0.9276 -1.3181
86053SOL    HW276152  10.231   7.353  10.623  2.6833 -0.1516  0.6272
86054SOL     OW76153   6.751   0.143   0.455 -1.0209 -0.0268 -0.0145
86054SOL    HW176154   6.739   0.069   0.514 -1.5417 -0.0858 -0.1897
86054SOL    HW276155   6.830   0.123   0.405  1.4793  1.5432  2.9679
86055SOL     OW76156   4.862   4.786   9.844  0.6470 -0.4688 -0.1385
86055SOL    HW176157   4.860   4.784   9.939  2.2246 -1.0140 -0.0792
86055SOL    HW276158   4.911   4.707   9.819  0.9962  0.0896 -1.3447
86056SOL     OW76159  10.288   8.069   6.885 -0.2532  0.1135  0.1857
86056SOL    HW176160  10.297   8.044   6.977 -0.9864 -0.6995  0.0555
86056SOL    HW276161  10.254   8.158   6.887 -1.2217 -0.2496  0.7276
86057SOL     OW76162  11.385   8.692  12.318 -0.0061 -0.0073  0.1611
86057SOL    HW176163  11.418   8.641  12.391 -0.8831  0.7075  1.0801
86057SOL    HW276164  11.295   8.713  12.341  0.0271  1.1402 -0.6157
86058SOL     OW76165  10.324   0.369   9.868  0.0150  0.2493 -0.4809
86058SOL    HW176166  10.337   0.382   9.775  1.5323  0.9390 -0.1936
86058SOL    HW276167  10.264   0.295   9.874  1.1098 -0.7970 -1.9795
86059SOL     OW76168   8.515  12.145   4.283 -0.5967 -0.3735  0.3004
86059SOL    HW176169   8.515  12.170   4.375  1.7483 -2.4829  0.9997
86059SOL    HW276170   8.438  12.091   4.272 -1.5937  0.9167  0.6365
86060SOL     OW76171   4.261   8.090  11.116  0.4879 -0.3843 -0.1680
86060SOL    HW176172   4.189   8.050  11.164  0.1152 -1.1557 -1.3170
86060SOL    HW276173   4.312   8.016  11.083 -0.1284  0.0428 -2.2189
86061SOL     OW76174   4.382   4.093  13.844 -0.0008 -0.4950  0.7312
86061SOL    HW176175   4.413   4.174  13.804 -1.7134 -1.1467 -2.2816
86061SOL    HW276176   4.298   4.116  13.882 -0.2905 -0.7346  0.2474
86062SOL     OW76177  12.197   6.117   0.971 -0.6674 -0.2574  0.0755
86062SOL    HW176178  12.223   6.209   0.984  0.0421 -0.4672  0.1736
86062SOL    HW276179  12.101   6.120   0.967 -0.6624  0.4638  0.2894
86063SOL     OW76180   7.348  13.277   9.347  0.1813 -0.1663 -0.7817
86063SOL    HW176181   7.309  13.345   9.403 -0.8410 -0.9254 -0.5432
86063SOL    HW276182   7.425  13.319   9.309 -0.0279  0.8975 -0.0818
86064SOL     OW76183   6.963  13.496   1.770  0.8804 -0.4775  0.1383
86064SOL    HW176184   6.952  13.401   1.782 -1.4707 -0.1015  1.5525
86064SOL    HW276185   6.985  13.528   1.857 -1.0055  0.5506  0.2763
86065SOL     OW76186   1.740   4.230  11.097  1.0008  0.1602  0.2448
86065SOL    HW176187   1.730   4.306  11.038 -0.6377 -0.5798 -0.5161
86065SOL    HW276188   1.670   4.241  11.161 -0.1413 -1.3840 -0.6912
86066SOL     OW76189  10.546   4.149   5.925  0.0810  0.1014  0.1446
86066SOL    HW176190  10.517   4.239   5.909  0.1313  0.3061  1.1388
86066SOL    HW276191  10.637   4.157   5.952 -0.1342 -0.1680  0.9951
86067SOL     OW76192   4.674   4.774   1.671 -0.6559  0.8548 -0.0996
86067SOL    HW176193   4.763   4.755   1.701 -0.3358  0.7346 -1.0878
86067SOL    HW276194   4.678   4.761   1.576 -2.1349 -0.7735  0.0291
86068SOL     OW76195   6.508   6.381   8.218  0.8333  0.0373 -0.5594
86068SOL    HW176196   6.505   6.332   8.136  3.3414 -0.6139 -0.3442
86068SOL    HW276197   6.484   6.318   8.285  0.4668  0.1117 -0.6175
86069SOL     OW76198  10.332   0.991   2.213  0.5433  0.5633 -0.1205
86069SOL    HW176199  10.309   0.990   2.305  0.8251 -0.2723 -0.0469
86069SOL    HW276200  10.330   0.899   2.187 -0.6180  0.8808 -1.2241
86070SOL     OW76201   6.736   5.990   2.928 -0.2785 -0.0745  0.3292
86070SOL    HW176202   6.760   5.915   2.873 -1.8669 -0.0771 -0.4122
86070SOL    HW276203   6.814   6.005   2.982  1.0794 -0.5500 -1.3756
86071SOL     OW76204   7.790   5.968  13.147  0.8415  0.9442  0.0338
86071SOL    HW176205   7.853   6.020  13.097  1.2857  2.0214  1.6411
86071SOL    HW276206   7.802   5.996  13.237 -0.1263 -0.7433  0.7315
86072SOL     OW76207   4.392  10.203   1.558 -0.9333  0.5971 -0.0604
86072SOL    HW176208   4.480  10.193   1.595 -0.9199 -0.9461 -0.4081
86072SOL    HW276209   4.353  10.275   1.607 -0.1819 -0.0282  1.5362
86073SOL     OW76210   0.479  13.707   5.976  0.1133 -0.0929 -0.0855
86073SOL    HW176211   0.398  13.746   5.943  0.1146 -2.0979 -2.8959
86073SOL    HW276212   0.517  13.774   6.032 -2.6173  1.5964 -0.0491
86074SOL     OW76213   3.631  11.377   7.205 -0.0956 -0.1527  0.2297
86074SOL    HW176214   3.541  11.386   7.176 -0.1068  2.0483  0.8193
86074SOL    HW276215   3.681  11.363   7.125 -0.8511 -0.7021 -0.1609
86075SOL     OW76216   7.537   3.472   4.602  0.7338 -0.2443 -0.0698
86075SOL    HW176217   7.537   3.524   4.522 -1.3956 -0.9987 -0.6273
86075SOL    HW276218   7.489   3.526   4.665  2.6239  0.4660  0.8679
86076SOL     OW76219   6.841   9.297   9.422  0.2712  0.0114 -0.3341
86076SOL    HW176220   6.908   9.272   9.485  1.5316  0.2567 -1.5222
86076SOL    HW276221   6.882   9.283   9.336 -1.6952 -1.1773 -1.1538
86077SOL     OW76222   4.111  11.435  10.440 -0.3409  0.3743  0.3725
86077SOL    HW176223   4.073  11.490  10.371 -1.0365 -0.8314 -0.2259
86077SOL    HW276224   4.168  11.495  10.489  0.7026  1.1370 -1.6276
86078SOL     OW76225  13.492   9.844  12.206 -0.0824  0.3919  0.2326
86078SOL    HW176226  13.405   9.858  12.167  0.0077 -0.1651 -0.1873
86078SOL    HW276227  13.484   9.760  12.252 -0.0706  0.8560  1.0887
86079SOL     OW76228   5.457   5.330   9.017  0.3294  0.2997  0.0412
86079SOL    HW176229   5.459   5.276   8.938  1.1927 -1.9014  1.4809
86079SOL    HW276230   5.529   5.393   9.005 -0.7775  1.3205 -1.7169
86080SOL     OW76231   6.837   2.005   8.807 -0.3086  0.1254  0.1426
86080SOL    HW176232   6.925   1.987   8.840 -0.1749 -0.8755 -0.7080
86080SOL    HW276233   6.826   1.945   8.734 -1.5931  0.4545  0.0389
86081SOL     OW76234  10.638   6.866   2.273  0.3454  0.3298  0.2060
86081SOL    HW176235  10.575   6.935   2.293  0.2328  0.9086 -1.9257
86081SOL    HW276236  10.625   6.801   2.342 -2.5482  0.4567 -0.1134
86082SOL     OW76237   2.100  12.912  11.096 -0.0100 -0.2076 -0.4173
86082SOL    HW176238   2.106  12.846  11.165  1.6508 -1.9384 -2.0961
86082SOL    HW276239   2.032  12.973  11.126 -1.1588 -2.3144  1.5052
86083SOL     OW76240   5.606  13.744  13.778  0.1272 -0.1648 -0.0983
86083SOL    HW176241   5.689  13.770  13.738 -0.0002 -1.2138 -1.1043
86083SOL    HW276242   5.545  13.738  13.705 -0.3305 -1.3007  0.3492
86084SOL     OW76243  12.016   0.409   3.953 -0.0301 -0.3993  0.7179
86084SOL    HW176244  12.025   0.481   4.015  1.5016 -0.5685  0.7135
86084SOL    HW276245  11.938   0.431   3.901  0.2920  1.1381  0.8601
86085SOL     OW76246  13.406   8.447   2.840  0.2312  0.2084 -0.0399
86085SOL    HW176247  13.411   8.442   2.935  1.5508 -1.2913 -0.1389
86085SOL    HW276248  13.495   8.425   2.810  0.0237  1.3243 -1.6104
86086SOL     OW76249  11.010   7.886  10.623  0.5051  0.2205  0.2440
86086SOL    HW176250  11.072   7.815  10.605 -1.3490 -1.3307 -0.3445
86086SOL    HW276251  10.991   7.924  10.537  0.4709  0.5239  0.3861
86087SOL     OW76252   3.345   0.179  14.003  0.0281  0.0892  0.2695
86087SOL    HW176253   3.365   0.223  13.920 -0.0202 -0.6107 -0.1198
86087SOL    HW276254   3.288   0.240  14.049  1.0031  1.0033  0.2972
86088SOL     OW76255   3.703   9.949  10.688  0.0352 -0.0318  0.4079
86088SOL    HW176256   3.773   9.930  10.750  0.3899  1.4657  0.5199
86088SOL    HW276257   3.745  10.003  10.620 -0.8061  0.1552  0.0156
86089SOL     OW76258   5.692   0.186   1.579  0.4426  0.3199  0.2427
86089SOL    HW176259   5.657   0.108   1.621  1.0122 -0.4147 -0.6235
86089SOL    HW276260   5.672   0.175   1.486  2.3671  0.1731 -0.1934
86090SOL     OW76261   9.609   9.851   0.315 -0.3927  0.3735 -0.7190
86090SOL    HW176262   9.700   9.836   0.341 -0.5194  1.9656  0.8637
86090SOL    HW276263   9.614   9.867   0.221  0.7810 -0.8187 -0.8886
86091SOL     OW76264  12.001  14.024   8.076 -0.3631 -0.0088  0.1372
86091SOL    HW176265  11.929  14.003   8.135  0.9021 -2.7541  0.8133
86091SOL    HW276266  11.997  13.958   8.007  1.6035 -0.3392  0.2815
86092SOL     OW76267   7.990   9.918   2.872  0.2441 -0.2347  0.2209
86092SOL    HW176268   7.901   9.955   2.863  0.5583  0.9219  1.5073
86092SOL    HW276269   7.983   9.856   2.944  0.3436 -0.6352 -0.1109
86093SOL     OW76270   3.177  10.753  12.251 -0.0580 -0.1008  0.1517
86093SOL    HW176271   3.096  10.729  12.204  0.2410  1.0123 -0.9785
86093SOL    HW276272   3.244  10.758  12.183  1.0520 -1.2487  1.1084
86094SOL     OW76273   9.215   5.956  13.980 -0.0968 -0.3496 -0.0609
86094SOL    HW176274   9.310   5.958  13.969 -0.1316 -1.1374 -0.5349
86094SOL    HW276275   9.198   6.021  14.049  0.9940 -1.6424  1.5137
86095SOL     OW76276  10.760   5.355   8.328 -0.1801  0.1255 -0.6929
86095SOL    HW176277  10.745   5.345   8.423  1.3035 -0.5055 -0.4976
86095SOL    HW276278  10.758   5.449   8.314 -0.5509  0.2244 -0.0637
86096SOL     OW76279  10.504   2.797  14.110  0.1465  0.1193  0.2880
86096SOL    HW176280  10.452   2.824  14.035 -0.7697  0.5355  1.0434
86096SOL    HW276281  10.576   2.859  14.114 -0.0014  0.3127 -0.0378
86097SOL     OW76282  12.311   3.998   5.372  0.0594 -0.6304  0.5553
86097SOL    HW176283  12.391   3.998   5.320  0.6052  1.8007  1.2898
86097SOL    HW276284  12.337   3.962   5.457  0.1313 -0.7810  0.4698
86098SOL     OW76285  12.244   2.878   0.261  0.0070 -0.0845 -0.2471
86098SOL    HW176286  12.187   2.823   0.208 -2.1311  1.4468  0.3304
86098SOL    HW276287  12.242   2.839   0.348  0.1652 -0.2688 -0.3268
86099SOL     OW76288   9.107   5.238   8.065  0.1389  0.9378  0.3671
86099SOL    HW176289   9.162   5.298   8.014  3.3480 -0.8352  1.4565
86099SOL    HW276290   9.128   5.151   8.031 -1.0134  0.0824  1.7371
86100SOL     OW76291   0.025   6.172   2.097 -0.0761  0.4494  0.0701
86100SOL    HW176292   0.097   6.196   2.156 -0.2479 -0.4557  0.6710
86100SOL    HW276293   0.069   6.138   2.019  0.1684  2.3537 -0.6871
86101SOL     OW76294  11.448  11.504   3.938 -0.0771  0.2970 -0.0724
86101SOL    HW176295  11.516  11.569   3.951  0.6358 -0.4188 -0.1424
86101SOL    HW276296  11.372  11.538   3.984  0.4784  0.8686  0.4297
86102SOL     OW76297   2.804  11.853   0.436 -0.4200  0.1202 -0.4578
86102SOL    HW176298   2.849  11.773   0.461 -0.1905  0.3413 -0.1431
86102SOL    HW276299   2.739  11.867   0.505 -1.1810 -0.3513 -1.0612
86103SOL     OW76300   0.829  10.634   0.788  0.5508 -0.1962 -0.1417
86103SOL    HW176301   0.774  10.620   0.864 -0.1587  1.4170 -0.3169
86103SOL    HW276302   0.771  10.618   0.713  0.5966  0.4818 -0.3288
86104SOL     OW76303   9.487   4.628  10.928 -0.6675  0.1922 -0.3722
86104SOL    HW176304   9.482   4.717  10.894  1.5570  0.6200  0.2852
86104SOL    HW276305   9.527   4.637  11.015  1.0477 -1.5491 -0.9073
86105SOL     OW76306  13.065   4.849  14.153 -0.2048  0.2828  0.3761
86105SOL    HW176307  13.150   4.852  14.108  0.5668 -2.4877  1.3882
86105SOL    HW276308  13.003   4.884  14.090  1.3234 -0.1695 -1.4919
86106SOL     OW76309   6.823   9.737  12.232  0.0779 -0.1139  0.3248
86106SOL    HW176310   6.812   9.813  12.175  1.2876  1.4291  2.0315
86106SOL    HW276311   6.911   9.746  12.268  1.5514 -4.0343 -1.7048
86107SOL     OW76312   2.397   7.032   1.643 -0.0030 -0.6213 -0.7034
86107SOL    HW176313   2.472   7.091   1.648  0.2618 -0.8988 -1.2910
86107SOL    HW276314   2.419   6.961   1.703 -0.5113  0.0760  0.3221
86108SOL     OW76315   9.059   6.548  11.053 -0.2635 -0.5577  0.1131
86108SOL    HW176316   9.036   6.458  11.076 -0.1728 -0.3519  1.0598
86108SOL    HW276317   9.080   6.544  10.960 -1.5139 -1.2564 -0.1631
86109SOL     OW76318   9.276  11.332   2.831  0.1319  0.0619 -0.6080
86109SOL    HW176319   9.211  11.261   2.836  0.7317 -0.6446 -2.0886
86109SOL    HW276320   9.276  11.371   2.918 -2.0235 -0.1442 -0.4576
86110SOL     OW76321   1.684   1.823   3.122  0.2701 -0.9555  0.4668
86110SOL    HW176322   1.648   1.785   3.042 -0.3100  0.0578  0.2286
86110SOL    HW276323   1.648   1.771   3.193  1.1785 -2.1799  0.0629
86111SOL     OW76324   3.612  13.184   8.182  0.6021  0.4002  0.5995
86111SOL    HW176325   3.659  13.240   8.243  2.3346  0.8311 -1.0198
86111SOL    HW276326   3.679  13.124   8.148 -0.1162  0.5750 -1.2644
86112SOL     OW76327   9.563  13.679  14.119 -0.3253  0.8953 -0.2532
86112SOL    HW176328   9.485  13.715  14.078 -0.2559  0.3656 -0.8567
86112SOL    HW276329   9.529  13.626  14.192 -0.4136  2.4201  0.8724
86113SOL     OW76330  12.669  12.801   8.903  0.1665  0.2966 -0.1026
86113SOL    HW176331  12.745  12.822   8.957  0.3109 -0.2282 -0.0959
86113SOL    HW276332  12.609  12.875   8.915 -0.5030 -0.5142  2.0407
86114SOL     OW76333   1.919  13.765   7.843  0.0410  0.8781 -0.1022
86114SOL    HW176334   1.971  13.834   7.885 -1.1371  1.4690  0.4513
86114SOL    HW276335   1.829  13.799   7.845 -0.1962  0.5153 -2.2919
86115SOL     OW76336  11.581   9.319  12.554  0.0164  0.1057 -0.1636
86115SOL    HW176337  11.543   9.405  12.536 -0.1770 -0.3179 -1.9907
86115SOL    HW276338  11.675   9.336  12.564  0.0120  0.5195 -0.7467
86116SOL     OW76339  13.955   6.203  10.504  1.1242  0.3968 -0.5631
86116SOL    HW176340  13.960   6.175  10.413 -0.7608  0.7895 -0.8413
86116SOL    HW276341  13.891   6.275  10.504 -0.1569 -0.6346  1.2359
86117SOL     OW76342   2.402   6.515   5.116  0.2070 -0.2508 -0.0838
86117SOL    HW176343   2.488   6.479   5.138 -0.2475 -0.7196  1.0030
86117SOL    HW276344   2.343   6.439   5.116 -0.4295  0.2312  0.4279
86118SOL     OW76345   4.581   1.228  11.157  0.2152  0.1343 -0.1132
86118SOL    HW176346   4.517   1.159  11.173  0.6212 -0.0170  0.9540
86118SOL    HW276347   4.536   1.309  11.180 -0.0367  0.1563 -0.6913
86119SOL     OW76348  13.933   1.126   0.246 -0.3076  0.1679  0.1929
86119SOL    HW176349  13.873   1.114   0.319 -1.1517  0.4165 -0.4442
86119SOL    HW276350  13.917   1.051   0.189  1.4966 -0.9060  1.0154
86120SOL     OW76351   7.588  12.475  12.674 -0.3985  0.3222 -0.2366
86120SOL    HW176352   7.520  12.501  12.736  0.5410  1.8817  0.1842
86120SOL    HW276353   7.668  12.513  12.710  1.4165 -4.1158  1.1396
86121SOL     OW76354   4.197   4.467   0.512  0.0569  0.3458  0.3777
86121SOL    HW176355   4.190   4.467   0.416 -0.8630 -0.8319  0.4274
86121SOL    HW276356   4.130   4.406   0.541  0.0384  1.0182  1.8145
86122SOL     OW76357   9.985   2.951   2.730 -0.0160 -0.5920 -0.0516
86122SOL    HW176358   9.923   3.014   2.768  0.0943 -0.7487  0.4037
86122SOL    HW276359  10.032   3.000   2.663  1.0214  0.2314  1.2203
86123SOL     OW76360   0.806   3.178   8.428 -0.1571 -0.0371  0.0299
86123SOL    HW176361   0.820   3.147   8.518 -0.6101 -0.5220 -0.0592
86123SOL    HW276362   0.821   3.272   8.433  1.6214 -0.3054  0.2300
86124SOL     OW76363   8.469   9.813  10.186 -0.4611  0.0164  0.4291
86124SOL    HW176364   8.391   9.842  10.234 -0.3645 -1.0409  1.2589
86124SOL    HW276365   8.522   9.768  10.252  0.0175 -0.8440 -0.5198
86125SOL     OW76366  13.269   2.081   0.666  0.0815  0.0182 -0.0933
86125SOL    HW176367  13.343   2.137   0.645 -0.6271  1.0643  0.0922
86125SOL    HW276368  13.200   2.106   0.604 -0.9488  0.8768  1.3286
86126SOL     OW76369  11.681   4.745  11.494 -0.1364 -0.2972  0.2467
86126SOL    HW176370  11.679   4.840  11.500 -2.2479 -0.3406  1.2588
86126SOL    HW276371  11.767   4.720  11.526  0.0059  1.2261  1.1183
86127SOL     OW76372  13.627  13.326  12.461  0.3416  0.2169  0.0746
86127SOL    HW176373  13.667  13.239  12.465 -0.7283 -0.2288  2.2752
86127SOL    HW276374  13.700  13.385  12.447  1.2289 -0.9239 -0.3046
86128SOL     OW76375   6.864   4.893   1.733  0.1169  0.0217  0.5783
86128SOL    HW176376   6.858   4.836   1.657  0.5992  2.1796 -1.2051
86128SOL    HW276377   6.956   4.918   1.738  0.1524 -0.3191  2.0812
86129SOL     OW76378   3.441   7.006  12.755 -0.4347 -0.1403 -0.8428
86129SOL    HW176379   3.460   6.912  12.761 -0.0674  0.0224  2.0340
86129SOL    HW276380   3.373   7.012  12.688 -2.0770 -2.7566  0.3897
86130SOL     OW76381  12.943   5.061  12.451 -0.1522 -0.0768  0.2946
86130SOL    HW176382  12.876   5.002  12.416  0.5024 -1.0413  0.6482
86130SOL    HW276383  12.947   5.133  12.388 -2.2056  0.5187  0.7436
86131SOL     OW76384   2.211  10.680  12.558 -0.3393 -0.0608 -0.1867
86131SOL    HW176385   2.272  10.716  12.623 -0.7865  0.3055  0.0387
86131SOL    HW276386   2.230  10.729  12.478 -0.3348  0.0550 -0.1159
86132SOL     OW76387  12.930   1.336  10.786  0.2450  0.4342 -0.2181
86132SOL    HW176388  12.916   1.281  10.863  1.8523 -0.3938 -0.4795
86132SOL    HW276389  12.878   1.415  10.803 -0.1466 -0.1178  1.2836
86133SOL     OW76390  12.878   0.594   2.484  0.0210 -0.1083 -0.6253
86133SOL    HW176391  12.964   0.575   2.448  1.0126 -0.4395  1.7180
86133SOL    HW276392  12.896   0.634   2.569 -2.1499  1.1591 -0.6878
86134SOL     OW76393  12.108   1.250  11.942  0.4123  0.9594 -0.1451
86134SOL    HW176394  12.083   1.306  12.015 -1.9097  2.9005 -2.2193
86134SOL    HW276395  12.044   1.178  11.944  0.2782  1.0728 -0.3057
86135SOL     OW76396   9.334   4.808   5.568 -0.1367  0.1757 -0.5123
86135SOL    HW176397   9.261   4.801   5.629  0.7814 -1.8883  0.4208
86135SOL    HW276398   9.304   4.763   5.489  0.9194 -2.9979  0.7515
86136SOL     OW76399   5.139   0.301  11.058 -0.0218  0.6618 -0.3835
86136SOL    HW176400   5.176   0.290  11.146 -0.1475 -1.8433 -0.5842
86136SOL    HW276401   5.191   0.372  11.020  2.7479 -0.7956  0.3705
86137SOL     OW76402   7.917   1.029   5.910 -0.1493  0.2515  0.2521
86137SOL    HW176403   7.826   1.048   5.932  0.0663  1.0257  0.5087
86137SOL    HW276404   7.966   1.103   5.947  0.5992 -0.2573  0.2853
86138SOL     OW76405   7.486   1.512   3.400  0.3005  0.2017 -0.2833
86138SOL    HW176406   7.472   1.501   3.494 -2.3003  0.7505 -0.5262
86138SOL    HW276407   7.557   1.576   3.394 -0.2223  1.0080  1.3633
86139SOL     OW76408   4.004   6.301   2.757  0.7092 -0.2139  0.1717
86139SOL    HW176409   3.990   6.354   2.678  1.4713  1.0363  0.8314
86139SOL    HW276410   3.921   6.255   2.770  0.0591  0.7073 -0.5207
86140SOL     OW76411  12.726   4.083   0.710  0.0616 -0.3223  0.0094
86140SOL    HW176412  12.637   4.049   0.701 -0.3343  0.8783 -0.8558
86140SOL    HW276413  12.770   4.058   0.629  0.5911 -1.0566  0.5029
86141SOL     OW76414   2.071  13.170   2.248  0.5083 -0.2421 -0.0172
86141SOL    HW176415   2.129  13.194   2.175  0.4689  2.7865  0.8002
86141SOL    HW276416   1.986  13.207   2.223 -0.4314 -2.2640  0.0304
86142SOL     OW76417  10.930   3.329  11.488  0.0145 -0.0893  0.4019
86142SOL    HW176418  10.847   3.287  11.508 -0.1255  1.0430  2.5147
86142SOL    HW276419  10.996   3.263  11.508 -0.3124 -0.8144 -0.7857
86143SOL     OW76420   6.040  10.008   4.484  0.1793 -0.4483 -0.0046
86143SOL    HW176421   6.039  10.103   4.469 -0.8051 -0.1794  1.5829
86143SOL    HW276422   6.124   9.992   4.527 -0.2925 -0.0487  1.0904
86144SOL     OW76423   3.928   1.250  11.603 -0.0013 -0.2854 -0.2517
86144SOL    HW176424   3.886   1.233  11.687  1.3825  0.3944  0.6213
86144SOL    HW276425   3.970   1.167  11.579  0.7481 -0.1210  0.4359
86145SOL     OW76426   4.580   7.556  10.197 -0.1554 -0.2715 -0.1942
86145SOL    HW176427   4.538   7.507  10.269  0.3515 -2.3650 -1.2489
86145SOL    HW276428   4.561   7.647  10.217 -0.9131 -0.8390  2.0529
86146SOL     OW76429   0.013   4.541   1.755 -0.5286  0.0993  0.0590
86146SOL    HW176430   0.102   4.521   1.727  0.3537  1.6679  1.5424
86146SOL    HW276431  -0.008   4.474   1.820 -0.0384  0.2811  0.4131
86147SOL     OW76432   8.300  11.017   7.967 -0.0269  0.4841 -0.3627
86147SOL    HW176433   8.269  11.007   7.877 -2.8631  1.9299  0.3298
86147SOL    HW276434   8.395  11.004   7.961  0.1388  2.0121 -3.8182
86148SOL     OW76435  13.295   7.944   5.018  0.5574 -0.5472 -0.0634
86148SOL    HW176436  13.211   7.928   4.975  0.3678  0.5183 -0.1290
86148SOL    HW276437  13.353   7.876   4.985  0.3616  0.1243 -1.8831
86149SOL     OW76438   8.731   2.608   7.748 -0.1162  0.7556 -0.3172
86149SOL    HW176439   8.761   2.547   7.680  1.9611  1.7772 -0.3928
86149SOL    HW276440   8.754   2.564   7.830 -0.8913  0.3588 -0.3070
86150SOL     OW76441   1.573   0.377   0.185  0.0963  0.3738 -0.6731
86150SOL    HW176442   1.527   0.380   0.101  0.2287  0.1839 -0.7528
86150SOL    HW276443   1.507   0.403   0.249 -0.8695 -2.2219 -0.4808
86151SOL     OW76444  10.197   4.622   5.211 -0.8148  0.3225 -0.6749
86151SOL    HW176445  10.286   4.619   5.246  0.0381  0.1015 -2.6772
86151SOL    HW276446  10.164   4.708   5.234 -0.2897  0.2075  0.5538
86152SOL     OW76447   5.667  10.483   5.617  0.3658 -0.1245 -0.2033
86152SOL    HW176448   5.715  10.555   5.576  1.1531 -0.5739 -0.0898
86152SOL    HW276449   5.660  10.417   5.547 -0.1521 -0.0299 -0.2407
86153SOL     OW76450  13.572   9.355   9.406 -0.0264 -0.5886  0.3530
86153SOL    HW176451  13.612   9.413   9.470  0.1521 -0.2049 -0.0943
86153SOL    HW276452  13.561   9.271   9.451  0.1551 -0.3397  0.8547
86154SOL     OW76453   3.302  12.216   9.548 -0.0490 -0.1887  0.2226
86154SOL    HW176454   3.289  12.162   9.626  2.7819  0.6213  1.3890
86154SOL    HW276455   3.339  12.156   9.484  0.5896 -0.2136  0.6050
86155SOL     OW76456   8.758   8.637   8.910 -0.1076 -0.2775 -0.2840
86155SOL    HW176457   8.762   8.696   8.835 -0.9109  0.3038  0.1075
86155SOL    HW276458   8.670   8.598   8.906 -1.0386  1.4284  1.5378
86156SOL     OW76459   8.291   3.804   1.753 -0.3409  0.2368 -0.3547
86156SOL    HW176460   8.328   3.890   1.771  0.0975 -0.0036 -0.0844
86156SOL    HW276461   8.217   3.821   1.696  0.0111  0.7556 -0.6621
86157SOL     OW76462   7.739   3.746  10.195 -0.7713 -0.0481  0.7051
86157SOL    HW176463   7.709   3.684  10.128  1.4038  0.0529 -0.4554
86157SOL    HW276464   7.833   3.755  10.179 -0.5618  1.5845  2.4934
86158SOL     OW76465  12.672   9.217  10.612  0.4382 -0.0692 -0.2509
86158SOL    HW176466  12.643   9.220  10.703  0.2631 -4.1355 -0.0076
86158SOL    HW276467  12.756   9.262  10.612 -0.1218  1.0845  1.6185
86159SOL     OW76468  14.010   2.690   4.943 -0.0798  0.5579 -0.6341
86159SOL    HW176469  14.000   2.645   4.859 -1.4224  0.1460 -0.2763
86159SOL    HW276470  13.967   2.775   4.929 -1.1413  0.1248 -0.1030
86160SOL     OW76471  11.379   9.536   7.940  0.0515  0.2447 -0.0951
86160SOL    HW176472  11.374   9.485   7.859  1.4337  1.0582 -0.7088
86160SOL    HW276473  11.386   9.470   8.009  2.0991 -0.4419 -0.8983
86161SOL     OW76474   9.034  12.292  11.624  0.5455  0.2539 -0.1829
86161SOL    HW176475   8.992  12.223  11.676  0.6683  0.2501 -0.0889
86161SOL    HW276476   9.124  12.262  11.614  0.1702 -0.4548 -1.6349
86162SOL     OW76477   9.616  11.865   6.098 -0.1107  0.1132  0.1043
86162SOL    HW176478   9.615  11.958   6.077  1.2086 -0.2617 -1.9041
86162SOL    HW276479   9.699  11.833   6.063 -1.1415 -2.0822 -0.5276
86163SOL     OW76480   0.181   3.207   4.881  0.1735 -0.2485  0.0332
86163SOL    HW176481   0.271   3.192   4.852  0.0220 -1.4618  0.1460
86163SOL    HW276482   0.173   3.154   4.961 -0.2432  0.9024  0.7869
86164SOL     OW76483   1.634   6.010   4.552 -0.1675 -0.1389 -0.1023
86164SOL    HW176484   1.659   5.977   4.466  2.1708  0.7861  0.1635
86164SOL    HW276485   1.701   5.976   4.611 -1.1775  0.0711  1.2012
86165SOL     OW76486   7.112  10.829   8.969  0.0216  0.1219 -0.2067
86165SOL    HW176487   7.133  10.916   8.935  0.1739  0.0901 -0.1956
86165SOL    HW276488   7.181  10.773   8.935 -0.7719 -0.2400 -1.2514
86166SOL     OW76489   6.165  12.190  11.534  0.9019 -0.1656 -0.7546
86166SOL    HW176490   6.191  12.138  11.610  0.6873  1.7657  0.7135
86166SOL    HW276491   6.159  12.126  11.462  1.2275 -2.0332  0.7933
86167SOL     OW76492   4.548   5.929  11.596  0.1911 -0.4046 -0.2114
86167SOL    HW176493   4.519   6.009  11.552 -2.1289 -1.3622 -0.5696
86167SOL    HW276494   4.533   5.860  11.531 -0.2090 -1.4382  0.9580
86168SOL     OW76495   6.550  12.159  13.756 -0.7428  0.2996  0.4189
86168SOL    HW176496   6.502  12.223  13.807  1.8736  1.1298  2.0208
86168SOL    HW276497   6.545  12.191  13.666  0.7169  3.0145  1.1973
86169SOL     OW76498   3.200  12.026   8.172 -0.1271 -0.6614  0.3729
86169SOL    HW176499   3.157  11.965   8.112  1.0641  1.5113 -2.9782
86169SOL    HW276500   3.170  12.112   8.144  2.9903  0.6665  0.7313
86170SOL     OW76501   2.337   2.754   4.337 -0.1735 -0.2483  0.5405
86170SOL    HW176502   2.308   2.678   4.285 -0.1804 -0.5854  1.0283
86170SOL    HW276503   2.263   2.773   4.394  0.0103 -0.1745  0.7540
86171SOL     OW76504  13.204   7.931   7.748  0.6866  0.0726  0.4152
86171SOL    HW176505  13.218   7.879   7.669  1.5067  1.8774 -0.6881
86171SOL    HW276506  13.164   8.012   7.717  0.6503  0.6544  1.9040
86172SOL     OW76507  10.865   3.714  11.932 -0.4248 -0.1399  0.5576
86172SOL    HW176508  10.872   3.628  11.890  1.6476 -0.5423  1.6175
86172SOL    HW276509  10.876   3.696  12.026 -2.2471  1.0548  1.0605
86173SOL     OW76510   8.551   8.816   4.890 -0.5126  0.4851 -0.1466
86173SOL    HW176511   8.640   8.807   4.857 -0.7628  1.1255 -1.0599
86173SOL    HW276512   8.540   8.910   4.904 -1.0498  0.4117 -0.0616
86174SOL     OW76513  12.741   3.700   2.430 -0.1026  0.3420 -0.2082
86174SOL    HW176514  12.760   3.616   2.471  1.6173  0.5926 -0.4210
86174SOL    HW276515  12.649   3.718   2.454 -0.2196 -1.1426  0.5890
86175SOL     OW76516   8.000  11.660   8.805  0.2671  1.0573  0.0551
86175SOL    HW176517   8.031  11.733   8.752  0.0037 -0.8170 -2.9274
86175SOL    HW276518   8.077  11.629   8.852  0.7645  2.1299 -0.0318
86176SOL     OW76519  12.381   6.711  13.051 -0.4551 -0.0423  0.4943
86176SOL    HW176520  12.332   6.793  13.053 -0.9995 -0.3622  0.6647
86176SOL    HW276521  12.419   6.703  13.138 -2.0660 -0.9353  1.1615
86177SOL     OW76522   5.983   1.105   9.040 -0.4066 -0.1726 -0.3634
86177SOL    HW176523   5.921   1.142   9.102 -1.5289 -2.5391  0.0595
86177SOL    HW276524   5.929   1.073   8.967  0.4407 -1.0418 -0.6424
86178SOL     OW76525   5.551   8.218  10.814  0.7587 -0.4556  0.7674
86178SOL    HW176526   5.500   8.255  10.886  0.1540  0.7588 -0.2415
86178SOL    HW276527   5.488   8.167  10.763  0.2645  1.7989 -1.0016
86179SOL     OW76528  10.277  11.847  11.464 -0.2500  0.4193 -0.7263
86179SOL    HW176529  10.363  11.834  11.505 -0.5551 -2.3197 -0.8217
86179SOL    HW276530  10.298  11.869  11.373  0.3296  1.5020 -0.3602
86180SOL     OW76531  13.110   3.858   6.780  0.1780  0.0045 -0.4323
86180SOL    HW176532  13.049   3.868   6.853 -1.0191  0.8800 -1.5277
86180SOL    HW276533  13.130   3.947   6.752  1.7302 -0.2688 -0.3301
86181SOL     OW76534  13.557   2.989  11.356  0.1838 -0.1151  0.1240
86181SOL    HW176535  13.538   3.060  11.296 -0.6824 -1.9318 -1.8850
86181SOL    HW276536  13.471   2.962  11.389  0.4547 -0.5414  0.4988
86182SOL     OW76537   5.004   4.092   5.744 -0.1207  0.1545  0.5629
86182SOL    HW176538   5.003   3.997   5.750  1.7901 -0.0439 -1.1515
86182SOL    HW276539   5.089   4.118   5.781 -0.9780  1.3050  1.8359
86183SOL     OW76540  11.442  13.041   2.973  0.3240 -0.4184  0.3565
86183SOL    HW176541  11.407  13.087   3.049 -2.8589 -0.7718 -0.7553
86183SOL    HW276542  11.401  13.084   2.898  1.3637 -1.7335 -1.0223
86184SOL     OW76543  14.008  12.621   7.944  0.0613  0.4699 -0.0512
86184SOL    HW176544  13.980  12.594   8.032  2.4091 -1.1522  0.2881
86184SOL    HW276545  13.971  12.555   7.886 -0.5308  0.8979 -0.1754
86185SOL     OW76546   5.157  12.838   0.270 -0.1945 -0.1168  0.3699
86185SOL    HW176547   5.242  12.814   0.307 -0.1489 -1.7361 -0.7263
86185SOL    HW276548   5.178  12.890   0.193 -0.2758  1.8000  1.5715
86186SOL     OW76549   0.296   3.491   3.570  0.9529  0.4382 -0.2392
86186SOL    HW176550   0.262   3.559   3.512 -1.9084 -0.3837  0.3417
86186SOL    HW276551   0.316   3.536   3.652  1.0082  0.9164 -0.5165
86187SOL     OW76552   7.645   8.301   6.764 -0.4912 -0.5082  0.5520
86187SOL    HW176553   7.682   8.368   6.705  0.0808 -0.3623  1.0724
86187SOL    HW276554   7.708   8.294   6.835 -1.9649  0.5641  2.0605
86188SOL     OW76555   5.498   8.581   2.206  0.2482  0.0244  0.4192
86188SOL    HW176556   5.446   8.637   2.149  0.6309 -0.1597 -0.1302
86188SOL    HW276557   5.469   8.602   2.295  1.2487  1.9979  0.3347
86189SOL     OW76558   7.497  11.025   9.689  0.0113 -0.1585  0.2567
86189SOL    HW176559   7.407  11.056   9.697 -0.4373 -1.1236 -0.7285
86189SOL    HW276560   7.549  11.105   9.683 -0.8827  0.4191 -0.1425
86190SOL     OW76561   2.330   0.128  11.824 -0.4184  0.3295  0.6529
86190SOL    HW176562   2.374   0.056  11.780 -0.1517  0.2366  1.0626
86190SOL    HW276563   2.239   0.124  11.794 -0.2827  0.1602  0.2577
86191SOL     OW76564   7.740   0.867   2.536 -0.0937 -0.6852  0.0808
86191SOL    HW176565   7.828   0.904   2.534 -0.8855  1.2633 -0.9371
86191SOL    HW276566   7.734   0.816   2.455 -0.2997  0.2153 -0.4836
86192SOL     OW76567   0.668  10.856   5.910 -0.2115  0.4552 -0.2406
86192SOL    HW176568   0.619  10.899   5.840 -0.2421  0.9199  0.0631
86192SOL    HW276569   0.758  10.889   5.900 -0.0258 -0.1505 -0.5998
86193SOL     OW76570   3.266  14.045   1.729  0.1133  0.0288  0.1371
86193SOL    HW176571   3.191  14.084   1.773  1.5419 -0.4340  3.2538
86193SOL    HW276572   3.336  14.110   1.738  0.4989 -0.1050 -1.5082
86194SOL     OW76573   5.618  13.591   2.226 -0.4266  0.3395 -0.7211
86194SOL    HW176574   5.639  13.598   2.133 -0.5391  1.6454 -0.6760
86194SOL    HW276575   5.570  13.509   2.234  2.0045 -1.2480 -1.3297
86195SOL     OW76576   1.197   5.559  10.451 -0.2343  0.1598 -0.6600
86195SOL    HW176577   1.104   5.541  10.465 -0.2821  0.3829 -0.6830
86195SOL    HW276578   1.235   5.561  10.539 -0.2940  0.2949 -0.6378
86196SOL     OW76579   1.991  11.897   6.604  0.0338 -0.3314 -0.0318
86196SOL    HW176580   2.029  11.819   6.564  0.0356 -0.3138 -0.0643
86196SOL    HW276581   1.903  11.904   6.567  1.0967  1.4530 -2.4711
86197SOL     OW76582   3.979   3.809  11.766 -0.2189 -0.1946  0.1376
86197SOL    HW176583   3.901   3.754  11.751  0.4539 -0.6688 -1.9231
86197SOL    HW276584   4.048   3.747  11.788  0.1200 -0.0082 -0.3886
86198SOL     OW76585  12.287   5.520   3.047  0.1492 -0.1608 -0.1597
86198SOL    HW176586  12.307   5.491   2.958  1.0621 -0.3564  0.0972
86198SOL    HW276587  12.338   5.599   3.058  2.9466 -2.0163  1.3783
86199SOL     OW76588   3.766  10.115   2.255  0.2947  0.0634 -0.1504
86199SOL    HW176589   3.803  10.091   2.170  0.4647  1.9691 -0.6497
86199SOL    HW276590   3.700  10.048   2.271 -0.4572  0.2066 -2.2722
86200SOL     OW76591   6.271   6.653   5.035 -0.6301 -0.2402  0.0894
86200SOL    HW176592   6.347   6.597   5.053  0.3966  0.9349 -0.4526
86200SOL    HW276593   6.217   6.601   4.976  1.4953  0.1903 -2.3993
86201SOL     OW76594  12.679  10.303  10.339  0.7328  0.0897  0.5542
86201SOL    HW176595  12.709  10.391  10.361 -1.1160  0.4391  1.9502
86201SOL    HW276596  12.759  10.251  10.333  1.7903  1.6318  0.7656
86202SOL     OW76597   1.810  11.978   4.286 -0.1488  0.0156  0.4722
86202SOL    HW176598   1.873  12.044   4.316 -1.1919  1.4532 -0.3573
86202SOL    HW276599   1.855  11.931   4.217 -0.0997  1.3429 -0.4401
86203SOL     OW76600   4.669   9.833   5.402  0.3925  0.0166 -0.5379
86203SOL    HW176601   4.739   9.862   5.461  1.3377 -0.0793 -1.5627
86203SOL    HW276602   4.630   9.914   5.369  0.6908  0.0909 -0.7149
86204SOL     OW76603   6.433   0.883   0.379 -0.1455  0.1401  1.3250
86204SOL    HW176604   6.393   0.802   0.344 -0.8488  2.0337 -2.8932
86204SOL    HW276605   6.358   0.939   0.400  0.3242  0.6174  1.7406
86205SOL     OW76606  12.831   9.239   8.406  0.3280 -0.3056  0.3501
86205SOL    HW176607  12.852   9.237   8.313 -0.0139  0.0178  0.2658
86205SOL    HW276608  12.812   9.331   8.425  0.1991 -0.4002  0.6923
86206SOL     OW76609   5.977  11.601   0.676 -0.1317  0.0914 -0.1796
86206SOL    HW176610   5.973  11.585   0.770  1.5918  3.7273  0.7000
86206SOL    HW276611   5.943  11.690   0.666 -0.4380 -0.2651 -3.0648
86207SOL     OW76612   1.183   1.691   8.712  0.2879  0.4847 -0.2944
86207SOL    HW176613   1.275   1.711   8.699  1.1586 -1.3372  2.1176
86207SOL    HW276614   1.160   1.736   8.793 -0.6346  0.1235 -0.3425
86208SOL     OW76615   6.370   9.536   1.407 -0.3147  0.4196  0.3349
86208SOL    HW176616   6.290   9.581   1.379  0.1366  0.4362 -1.0090
86208SOL    HW276617   6.384   9.467   1.342  1.4069  1.1976 -0.2021
86209SOL     OW76618  11.501   3.336   4.389  0.4901  0.0447 -0.4192
86209SOL    HW176619  11.419   3.301   4.426  1.0190  0.0932  0.8673
86209SOL    HW276620  11.569   3.276   4.420  1.0720  0.6204 -0.5548
86210SOL     OW76621  11.790  11.509   0.961  0.2877  0.2008  0.1964
86210SOL    HW176622  11.743  11.497   1.043  0.0728  2.2288  0.4304
86210SOL    HW276623  11.773  11.430   0.911 -0.9918 -0.3383  1.4324
86211SOL     OW76624   9.882   3.369   2.732  0.4201 -0.2054 -0.2357
86211SOL    HW176625   9.969   3.331   2.746  0.0511 -1.0076 -0.0751
86211SOL    HW276626   9.875   3.378   2.637 -0.0964 -2.0252 -0.3937
86212SOL     OW76627  11.031   7.556   1.803 -0.5254  0.1129 -0.5051
86212SOL    HW176628  11.042   7.496   1.729  1.4355 -0.7791  0.4261
86212SOL    HW276629  11.112   7.607   1.804 -0.2169 -0.3433  1.3850
86213SOL     OW76630   2.337   3.337   9.514 -0.0457  0.0499  0.7826
86213SOL    HW176631   2.357   3.407   9.577  0.1455  0.1997  0.5566
86213SOL    HW276632   2.250   3.306   9.540 -1.6525  2.5845 -1.0737
86214SOL     OW76633   6.603  10.521   8.761 -0.4520  0.9084 -0.1146
86214SOL    HW176634   6.608  10.485   8.849  0.3171  0.5586 -0.2903
86214SOL    HW276635   6.645  10.455   8.705 -0.1973  1.4885 -0.6219
86215SOL     OW76636   4.973  11.333   1.994  0.2168 -0.3680  0.1983
86215SOL    HW176637   4.973  11.284   2.076  2.5688  0.2533  0.6239
86215SOL    HW276638   5.007  11.271   1.929  0.9631 -0.0397  0.2662
86216SOL     OW76639  10.172   4.245  14.127 -0.1654 -0.4003  0.1309
86216SOL    HW176640  10.230   4.302  14.177  0.9179 -0.8601 -0.5728
86216SOL    HW276641  10.191   4.264  14.035 -0.4340 -1.2418 -0.1146
86217SOL     OW76642  13.047   0.676   9.987  0.2087 -0.0856 -0.5119
86217SOL    HW176643  13.134   0.652  10.018  0.3300 -1.0358 -1.4925
86217SOL    HW276644  13.042   0.771   9.997  0.3324 -0.2768  2.0468
86218SOL     OW76645   0.479   8.421   1.455  0.5704 -0.0991  0.0498
86218SOL    HW176646   0.429   8.413   1.536  0.6134  1.2983  0.2294
86218SOL    HW276647   0.570   8.411   1.482  0.5874  0.4063  0.1908
86219SOL     OW76648  11.571  10.287   9.831 -0.1092 -0.1019 -0.1245
86219SOL    HW176649  11.479  10.260   9.834  0.0773 -0.7583  0.0307
86219SOL    HW276650  11.571  10.378   9.861 -0.7340 -0.0211 -0.3638
86220SOL     OW76651  10.815  10.786   4.974  0.3952  0.1965 -0.1043
86220SOL    HW176652  10.742  10.793   5.036 -0.0564 -2.3480 -0.2487
86220SOL    HW276653  10.890  10.766   5.029  0.4485  0.1278 -0.2038
86221SOL     OW76654   8.325   3.585   2.495  0.3293  0.3821  0.1999
86221SOL    HW176655   8.267   3.556   2.566  0.3251  0.4269  0.2148
86221SOL    HW276656   8.290   3.544   2.417  0.0915  0.6587  0.1596
86222SOL     OW76657   9.651   7.034   5.335 -0.6653 -0.0009  0.1558
86222SOL    HW176658   9.619   6.972   5.402 -1.5829  0.5457  0.2485
86222SOL    HW276659   9.739   7.056   5.363 -0.7220 -0.4545  0.7107
86223SOL     OW76660   8.329   4.381  10.257 -0.3012 -0.0180  0.3345
86223SOL    HW176661   8.306   4.334  10.177 -0.9175  0.2332  0.3571
86223SOL    HW276662   8.394   4.326  10.300  0.1604 -0.0699 -0.4251
86224SOL     OW76663   9.028   9.862  13.822  0.2386 -0.1354 -0.1383
86224SOL    HW176664   8.940   9.887  13.849  0.5701  1.5877 -0.5262
86224SOL    HW276665   9.021   9.845  13.728  0.3421  0.0967 -0.1880
86225SOL     OW76666  11.917   0.713  11.859 -0.2685 -1.0221 -0.1217
86225SOL    HW176667  12.006   0.720  11.895 -0.8687 -0.9387  1.4092
86225SOL    HW276668  11.918   0.632  11.809  0.5502 -1.2593  0.2574
86226SOL     OW76669  10.525  12.293   5.529 -0.3759  0.1202  0.5717
86226SOL    HW176670  10.485  12.243   5.459  0.7335  2.0217 -1.5518
86226SOL    HW276671  10.463  12.365   5.546  0.2964  0.8322  0.0614
86227SOL     OW76672  13.810  11.768  10.228  0.1894  0.6102 -0.0552
86227SOL    HW176673  13.759  11.722  10.161 -1.2079  0.1059  1.3004
86227SOL    HW276674  13.832  11.700  10.291  1.6483  1.0501 -0.0604
86228SOL     OW76675   6.683   8.707   2.415  0.1652 -0.0388 -0.0073
86228SOL    HW176676   6.724   8.784   2.375 -0.2133  1.4261  2.2172
86228SOL    HW276677   6.727   8.632   2.375  0.4342  1.3024 -2.3816
86229SOL     OW76678   2.366   1.753   7.586  0.3184  0.1748 -0.3358
86229SOL    HW176679   2.422   1.802   7.526 -0.4291  0.2170 -1.0266
86229SOL    HW276680   2.355   1.668   7.544  2.5651 -1.0818  1.4199
86230SOL     OW76681   3.271  10.175  11.566  0.7389  0.0305 -0.0198
86230SOL    HW176682   3.351  10.175  11.513  0.5305 -0.1253 -0.3333
86230SOL    HW276683   3.201  10.155  11.504  0.2930  1.4302  0.0013
86231SOL     OW76684  10.401  12.873   9.868  0.2017  0.5390 -0.2992
86231SOL    HW176685  10.480  12.914   9.904  0.6196  1.4106 -2.0971
86231SOL    HW276686  10.410  12.780   9.889  2.0283  0.5261 -0.9799
86232SOL     OW76687  12.960  13.728   8.734 -0.0516 -0.8431  0.1972
86232SOL    HW176688  13.032  13.774   8.691  0.6992  0.0152  2.2615
86232SOL    HW276689  12.996  13.701   8.819 -1.7990 -1.4995  0.7753
86233SOL     OW76690  11.270  11.349   9.682 -0.4441  0.0803 -0.2748
86233SOL    HW176691  11.237  11.314   9.599 -1.1146 -1.1605  0.4861
86233SOL    HW276692  11.245  11.284   9.747  1.6577  0.1265  0.6684
86234SOL     OW76693  10.917  11.242   7.695 -0.3230 -0.4700 -0.3456
86234SOL    HW176694  10.841  11.229   7.638 -0.8269  0.2669  0.1433
86234SOL    HW276695  10.882  11.286   7.772  0.3872 -1.2677  0.4519
86235SOL     OW76696   0.606   2.053  11.000  0.5469  0.2298 -0.1204
86235SOL    HW176697   0.603   2.001  10.920  0.4794  0.9070 -0.5698
86235SOL    HW276698   0.579   2.141  10.972 -0.2061  0.3002  0.7893
86236SOL     OW76699   9.065  13.121  12.016 -0.2260  0.7178  0.3895
86236SOL    HW176700   9.087  13.153  12.103 -0.1558 -0.3252  0.7730
86236SOL    HW276701   9.004  13.049  12.032 -3.0898  2.7355 -0.5630
86237SOL     OW76702  10.776   5.426   5.211 -0.1322 -0.4157 -0.3497
86237SOL    HW176703  10.842   5.485   5.175  2.3476 -2.4001  0.6354
86237SOL    HW276704  10.750   5.370   5.138  1.8912 -1.8032 -0.0967
86238SOL     OW76705  10.299   5.283   1.174 -0.3821 -0.0609  0.0346
86238SOL    HW176706  10.262   5.234   1.100  1.2924 -2.3947  0.6486
86238SOL    HW276707  10.241   5.262   1.247  0.0536 -0.7675  0.1859
86239SOL     OW76708   3.725   0.380   2.911  0.3008  0.0956 -0.1372
86239SOL    HW176709   3.737   0.473   2.890  2.6525  0.4108  2.0961
86239SOL    HW276710   3.674   0.346   2.838 -2.6069  3.5466 -0.0326
86240SOL     OW76711   9.912   5.474  13.498  0.5731 -0.6434 -0.5352
86240SOL    HW176712   9.842   5.470  13.434  0.5328 -1.0534 -0.4643
86240SOL    HW276713   9.934   5.567  13.503  0.8430 -0.6553 -1.4225
86241SOL     OW76714   2.290   9.546   2.924 -0.1655 -0.1946 -0.0131
86241SOL    HW176715   2.197   9.526   2.930  0.0979 -1.0197  1.9801
86241SOL    HW276716   2.294   9.642   2.927 -0.8551 -0.1949  2.4634
86242SOL     OW76717  12.103  11.816   4.386  0.2557  0.5631  0.2840
86242SOL    HW176718  12.009  11.801   4.387  0.3971 -0.5137  2.1002
86242SOL    HW276719  12.117  11.878   4.314 -1.3548 -2.2287 -2.6877
86243SOL     OW76720   9.828  11.555   3.603 -0.0132 -0.0724 -0.3167
86243SOL    HW176721   9.898  11.508   3.556  0.7251  1.2093 -0.5570
86243SOL    HW276722   9.776  11.595   3.533  0.2219  0.6487 -0.0771
86244SOL     OW76723   7.574   8.820  11.450 -0.0746  0.4562  0.0163
86244SOL    HW176724   7.616   8.749  11.402  0.4644  1.5096 -1.1388
86244SOL    HW276725   7.480   8.803  11.442  0.0513 -0.2736  0.0188
86245SOL     OW76726   8.113   2.708  10.150 -0.2294  0.2412  0.0883
86245SOL    HW176727   8.061   2.712  10.231 -0.0581  1.5952  0.1584
86245SOL    HW276728   8.078   2.779  10.096 -0.4084 -0.7080 -1.0970
86246SOL     OW76729  10.124   3.537   6.663  0.3450 -0.0344  0.6362
86246SOL    HW176730  10.078   3.586   6.732  0.3327  0.4735  0.2732
86246SOL    HW276731  10.216   3.538   6.692  0.6779  1.8769 -0.2916
86247SOL     OW76732  11.373   9.536   7.460 -0.1371  0.3806  0.3892
86247SOL    HW176733  11.383   9.525   7.554 -0.4200  0.7133  0.4602
86247SOL    HW276734  11.409   9.624   7.443 -0.6325  0.5615  0.2744
86248SOL     OW76735   0.429  12.017   7.309 -0.4498  0.7192  0.4846
86248SOL    HW176736   0.414  11.989   7.218  3.2314  0.1215 -0.1205
86248SOL    HW276737   0.372  12.092   7.321 -1.7429  0.2398 -2.0116
86249SOL     OW76738   2.614  10.660   2.415 -0.2306 -0.4665  0.8796
86249SOL    HW176739   2.646  10.621   2.497  0.4558 -0.5746  0.5723
86249SOL    HW276740   2.522  10.679   2.432 -0.4290 -1.6549  1.2510
86250SOL     OW76741  12.990   1.288  13.759 -0.2192  0.4748  0.0825
86250SOL    HW176742  13.006   1.366  13.811  0.3067 -0.2627  1.0673
86250SOL    HW276743  12.998   1.216  13.821 -2.2913 -0.2819 -0.4582
86251SOL     OW76744  10.219  10.491  13.552  0.5553  0.1980  0.1749
86251SOL    HW176745  10.240  10.455  13.639 -0.5034  0.1074  0.4024
86251SOL    HW276746  10.146  10.550  13.568 -0.1052 -0.3477 -0.7545
86252SOL     OW76747   2.261   4.480  12.594 -0.2433  0.1234 -0.2764
86252SOL    HW176748   2.297   4.530  12.667 -0.5364  0.3663 -0.2952
86252SOL    HW276749   2.326   4.412  12.577 -0.5912 -0.5087  0.8091
86253SOL     OW76750  13.017  12.103   0.698  0.2376  0.4858  0.5751
86253SOL    HW176751  13.105  12.067   0.689  0.1721  0.5419 -0.3589
86253SOL    HW276752  12.961  12.026   0.711  0.3065  0.3668  0.1963
86254SOL     OW76753   0.635   5.769   6.163  0.4825  0.3340  0.0742
86254SOL    HW176754   0.592   5.822   6.230  1.6905  1.8974 -0.3328
86254SOL    HW276755   0.624   5.679   6.194 -0.4672  0.8914  1.4864
86255SOL     OW76756  11.584   2.581   5.069  0.0697 -0.1247 -0.7276
86255SOL    HW176757  11.547   2.536   5.146  2.5565 -0.6831  0.2191
86255SOL    HW276758  11.589   2.513   5.002 -0.9445  0.0672 -1.0266
86256SOL     OW76759  10.921  11.492   9.595 -0.1578 -0.5437 -0.4683
86256SOL    HW176760  10.983  11.564   9.579 -0.0213 -0.7949 -1.0773
86256SOL    HW276761  10.861  11.527   9.661  0.6735 -0.3217  0.1928
86257SOL     OW76762   9.130  10.494   6.738 -0.1405  0.5239 -0.2945
86257SOL    HW176763   9.082  10.567   6.777 -0.0048  0.2124  0.4639
86257SOL    HW276764   9.151  10.436   6.811  1.9366  0.9492 -0.4742
86258SOL     OW76765   9.899   4.903   1.891 -0.3085 -0.3191 -0.0573
86258SOL    HW176766   9.902   4.850   1.811  0.5905 -2.0247  1.0379
86258SOL    HW276767   9.948   4.982   1.870 -1.2348 -0.1075 -1.5921
86259SOL     OW76768   1.144  13.095   8.060 -0.3744  0.0937 -0.3972
86259SOL    HW176769   1.132  13.082   7.966  0.5976 -0.0523 -0.5108
86259SOL    HW276770   1.069  13.051   8.100 -1.2370  0.8656 -1.1310
86260SOL     OW76771  12.597   8.766  11.752  0.4839 -0.1857  0.4429
86260SOL    HW176772  12.541   8.838  11.724  0.9641 -0.4521 -1.3566
86260SOL    HW276773  12.539   8.690  11.754  0.3144 -0.0486  0.7694
86261SOL     OW76774   7.919   2.737   0.705 -0.2302  0.0332  0.0261
86261SOL    HW176775   7.926   2.827   0.673  1.1491  0.7364  2.0825
86261SOL    HW276776   7.890   2.747   0.796 -1.3621 -1.7125 -0.0976
86262SOL     OW76777   4.257  13.443  13.883  0.4253 -0.6337  0.1036
86262SOL    HW176778   4.290  13.370  13.935  0.0890 -0.1749  0.9761
86262SOL    HW276779   4.335  13.485  13.848  0.7299 -0.1679  1.3102
86263SOL     OW76780   7.614  11.941   9.149 -0.1149 -0.3432 -0.1156
86263SOL    HW176781   7.672  11.867   9.164  1.0195  0.3910 -0.7457
86263SOL    HW276782   7.648  11.983   9.071 -0.8750  0.7155  0.0948
86264SOL     OW76783  11.569   3.091  12.738 -0.4108 -0.2240 -0.3561
86264SOL    HW176784  11.478   3.061  12.738 -1.2667  2.1291 -0.5218
86264SOL    HW276785  11.591   3.100  12.831 -1.2956  1.6219 -0.2689
86265SOL     OW76786   1.641  11.250   0.838  0.0679 -0.2838  0.2160
86265SOL    HW176787   1.686  11.253   0.754 -1.3532 -1.5695 -0.6462
86265SOL    HW276788   1.683  11.178   0.886  0.3719 -0.0557  0.2893
86266SOL     OW76789   2.840   8.301  10.879  0.1320  0.0122  0.2374
86266SOL    HW176790   2.805   8.261  10.959 -0.9705 -1.3308 -0.8698
86266SOL    HW276791   2.906   8.240  10.848 -1.0309 -0.6420 -1.0608
86267SOL     OW76792   2.837  11.986  10.868  0.6533 -0.1699  0.1612
86267SOL    HW176793   2.816  11.953  10.955  0.5808 -1.4682 -0.3261
86267SOL    HW276794   2.756  12.024  10.835  0.4892 -0.3371  0.3751
86268SOL     OW76795   1.654   9.369   9.922 -0.0777 -0.5949 -0.4501
86268SOL    HW176796   1.652   9.279   9.953 -0.4743 -0.7403 -0.8983
86268SOL    HW276797   1.599   9.370   9.844  1.0674 -0.2676 -1.2777
86269SOL     OW76798   2.552   1.867  12.921 -0.1073  0.1275  0.9200
86269SOL    HW176799   2.556   1.932  12.851  1.1342 -0.9418 -0.0439
86269SOL    HW276800   2.462   1.835  12.920 -0.2927  0.6543  0.3206
86270SOL     OW76801   2.670  12.613   1.183 -0.2925  0.3064 -0.3903
86270SOL    HW176802   2.621  12.661   1.116 -0.3781  1.6232  0.5918
86270SOL    HW276803   2.625  12.632   1.265 -0.2202 -1.3390  0.0783
86271SOL     OW76804   7.827   4.350   7.233  0.3503 -0.6043 -0.0549
86271SOL    HW176805   7.785   4.293   7.297 -1.4088 -0.9394 -1.4026
86271SOL    HW276806   7.876   4.413   7.285 -2.3053  0.1652  1.7429
86272SOL     OW76807   3.941  12.648   8.244  0.4538  0.2431 -0.6620
86272SOL    HW176808   3.897  12.672   8.325  0.7519  0.0190 -0.4355
86272SOL    HW276809   4.018  12.599   8.271  1.8199  2.1089 -0.9482
86273SOL     OW76810  12.040   8.771   7.374 -0.0143 -0.0372 -0.3410
86273SOL    HW176811  12.000   8.683   7.376  1.1184 -0.5519  0.6825
86273SOL    HW276812  12.050   8.795   7.466 -0.4659  1.2619 -0.6089
86274SOL     OW76813   1.769   3.328  10.875 -0.1166  0.3215  0.4683
86274SOL    HW176814   1.695   3.272  10.899  0.2750 -0.5165 -0.1994
86274SOL    HW276815   1.785   3.381  10.953 -0.2425 -0.8075  1.3044
86275SOL     OW76816   3.429   2.474  11.968 -0.0528 -0.4768 -0.2942
86275SOL    HW176817   3.424   2.410  12.039  2.2530 -1.0314 -0.5839
86275SOL    HW276818   3.337   2.499  11.952 -0.7207 -1.2203  2.0450
86276SOL     OW76819  13.683  13.725   3.726 -0.2174  0.2349 -0.2200
86276SOL    HW176820  13.675  13.806   3.777 -3.0822  0.9977 -1.6572
86276SOL    HW276821  13.633  13.660   3.775  1.4905 -0.5387  0.5693
86277SOL     OW76822   4.312   6.088   3.508 -0.1342  0.6358 -0.2245
86277SOL    HW176823   4.333   6.064   3.418  3.3377  1.5706  0.1708
86277SOL    HW276824   4.330   6.010   3.559  0.2027  0.7756 -0.1233
86278SOL     OW76825   5.976   7.406  13.536  0.0031  0.6267 -0.5542
86278SOL    HW176826   5.900   7.349  13.535  0.8427 -0.5541 -1.9818
86278SOL    HW276827   5.952   7.479  13.593 -1.1412 -1.1152  1.2899
86279SOL     OW76828   8.047  12.522   0.161  0.0615  0.2723  0.2333
86279SOL    HW176829   7.988  12.463   0.114  0.6707 -0.8427  0.8416
86279SOL    HW276830   8.133  12.483   0.150  0.8604  2.2572 -1.2557
86280SOL     OW76831   4.342  13.875   7.898  0.6763 -0.6395  0.4052
86280SOL    HW176832   4.276  13.888   7.829 -0.7148 -1.1026  1.6165
86280SOL    HW276833   4.426  13.882   7.851 -0.2031 -0.0251 -1.1759
86281SOL     OW76834   2.650   8.634   0.862 -0.0299  0.0691 -0.3475
86281SOL    HW176835   2.623   8.696   0.930 -1.9115 -0.1539 -0.8304
86281SOL    HW276836   2.586   8.645   0.792  1.9354  0.4003 -2.2107
86282SOL     OW76837  10.654  13.626   3.802 -0.0857 -0.0833 -0.4245
86282SOL    HW176838  10.645  13.721   3.805 -1.3582 -0.1696 -1.1118
86282SOL    HW276839  10.691  13.603   3.887  0.4119  1.0383 -0.3183
86283SOL     OW76840   4.288  13.852  12.148 -0.0844 -0.5840  0.1623
86283SOL    HW176841   4.274  13.799  12.070  0.8999 -0.7955  0.1129
86283SOL    HW276842   4.203  13.852  12.193 -0.6674 -0.4194 -0.9201
86284SOL     OW76843   1.611   0.350   8.125  0.8452 -0.0980 -0.7959
86284SOL    HW176844   1.519   0.327   8.141  1.4488 -1.7214  0.5780
86284SOL    HW276845   1.610   0.446   8.117 -0.9531 -0.0725 -0.7839
86285SOL     OW76846   4.418  13.020   7.171  0.1390 -0.5074  0.2007
86285SOL    HW176847   4.359  13.084   7.132 -0.5126 -0.8366  0.6296
86285SOL    HW276848   4.502  13.036   7.129 -0.0833  0.4426  0.1053
86286SOL     OW76849   4.915   9.137  13.111 -0.5694  0.1083  0.5422
86286SOL    HW176850   4.947   9.174  13.194  0.4287  1.1355 -0.2618
86286SOL    HW276851   4.949   9.048  13.111 -1.2503 -0.1697  1.5872
86287SOL     OW76852  12.102   5.622  13.898  0.2215  0.4610 -0.7033
86287SOL    HW176853  12.083   5.588  13.810 -1.0195 -1.0205  0.0719
86287SOL    HW276854  12.127   5.544  13.948  1.4558  1.3712  0.1403
86288SOL     OW76855  12.165   4.285  13.056  0.4532 -0.3416 -0.2868
86288SOL    HW176856  12.154   4.362  13.000  1.0964  1.1637  1.5500
86288SOL    HW276857  12.237   4.236  13.016  1.2060  0.9417 -0.5706
86289SOL     OW76858   2.482   3.771  12.568 -0.2619 -0.4882 -0.9619
86289SOL    HW176859   2.398   3.809  12.596  1.0978  1.9359  0.1029
86289SOL    HW276860   2.523   3.841  12.516  2.6669 -0.0683  1.6633
86290SOL     OW76861   1.871   3.008   2.580 -0.1337 -0.0577  0.3807
86290SOL    HW176862   1.917   2.925   2.577 -0.6378 -0.3914  1.3646
86290SOL    HW276863   1.940   3.073   2.595  0.5120 -0.0178 -2.2452
86291SOL     OW76864   3.050  11.607  12.781  0.1693  0.2909  0.0063
86291SOL    HW176865   2.976  11.554  12.809 -1.1991  1.5328 -1.1479
86291SOL    HW276866   3.012  11.687  12.747  2.1048  1.4347  0.3530
86292SOL     OW76867   1.521   1.510   1.159  0.0534 -0.0143 -0.2771
86292SOL    HW176868   1.448   1.482   1.214 -1.9371  3.7876 -0.5863
86292SOL    HW276869   1.583   1.551   1.220 -0.8894  1.8377 -0.5042
86293SOL     OW76870   4.271   1.047   5.666  0.3975 -0.6885  0.8375
86293SOL    HW176871   4.311   1.087   5.588 -2.4570 -2.5251 -1.8196
86293SOL    HW276872   4.275   1.115   5.733  1.4291  1.6650 -1.4323
86294SOL     OW76873   8.496   8.523  13.341  0.3883  0.0084  0.6242
86294SOL    HW176874   8.450   8.580  13.279  1.2339 -1.6071 -1.6508
86294SOL    HW276875   8.433   8.455  13.363  0.7645 -0.6730 -0.3176
86295SOL     OW76876   5.956   4.898   9.128  0.3620  0.7978 -0.1883
86295SOL    HW176877   6.043   4.902   9.090  0.1955 -1.4022 -0.9771
86295SOL    HW276878   5.902   4.954   9.072  1.1764  1.9283  0.1304
86296SOL     OW76879   4.451  13.912   0.206  1.2280 -0.2192 -0.0971
86296SOL    HW176880   4.358  13.935   0.205  0.5571 -2.4810  1.4317
86296SOL    HW276881   4.474  13.908   0.299  2.2585 -1.6805 -0.3680
86297SOL     OW76882   9.730   8.600   4.658 -0.3215 -0.0427 -0.0525
86297SOL    HW176883   9.746   8.609   4.752  0.3657  0.1704 -0.1791
86297SOL    HW276884   9.729   8.506   4.642 -1.1641 -0.0977  0.2785
86298SOL     OW76885  12.959   3.800   5.610 -0.8811 -0.0081 -0.3736
86298SOL    HW176886  12.908   3.738   5.663 -0.6295  0.4154  0.3842
86298SOL    HW276887  12.976   3.753   5.528 -0.2885 -1.1337  0.3608
86299SOL     OW76888   7.762   5.520   9.364 -0.4522  0.0853  0.1497
86299SOL    HW176889   7.761   5.441   9.310 -1.0612 -1.1387  1.8341
86299SOL    HW276890   7.710   5.583   9.316 -1.5690 -1.1923 -0.3890
86300SOL     OW76891   7.079   8.608   1.717  0.1729 -0.3569  0.1295
86300SOL    HW176892   6.995   8.642   1.748 -0.1293  2.1367 -2.9666
86300SOL    HW276893   7.143   8.674   1.744  1.0774 -1.7819  1.6534
86301SOL     OW76894   9.358   2.475  13.751  0.2086  0.8936  0.3715
86301SOL    HW176895   9.358   2.414  13.825 -1.6618  0.5587  0.1443
86301SOL    HW276896   9.266   2.478  13.723  1.1413 -0.8799 -3.4946
86302SOL     OW76897   0.282  11.132  10.320  0.2645  0.0395  0.0948
86302SOL    HW176898   0.311  11.075  10.392  1.7924 -0.7891 -1.1307
86302SOL    HW276899   0.215  11.082  10.274  1.2508 -0.5806 -0.6835
86303SOL     OW76900  13.139   8.895   6.474 -0.7862  0.4111  0.1945
86303SOL    HW176901  13.199   8.941   6.532 -0.9273  0.6108  0.1818
86303SOL    HW276902  13.120   8.958   6.405 -0.4825  0.1129 -0.1632
86304SOL     OW76903   2.419  10.769  12.237 -0.6652  0.2093 -0.2368
86304SOL    HW176904   2.327  10.792  12.246 -1.2963 -1.9943 -0.5224
86304SOL    HW276905   2.433  10.759  12.143 -0.5264 -0.7732 -0.1306
86305SOL     OW76906  11.224   9.610   5.690  0.6286  0.3206  0.0607
86305SOL    HW176907  11.290   9.603   5.621 -1.0038  0.5958 -1.6097
86305SOL    HW276908  11.172   9.530   5.681  1.3211 -0.3967  2.0433
86306SOL     OW76909   2.802   6.073  12.971  0.2240  0.1879  0.1000
86306SOL    HW176910   2.765   6.010  12.909  0.2871 -0.7623  1.0027
86306SOL    HW276911   2.896   6.058  12.967  0.3437  1.0472 -0.5343
86307SOL     OW76912   3.942   1.143   3.550 -0.2273  0.1449 -0.2482
86307SOL    HW176913   4.027   1.180   3.572 -0.8219  1.3042  0.1762
86307SOL    HW276914   3.944   1.132   3.455  0.7571 -0.8013 -0.1364
86308SOL     OW76915   3.392  10.999   6.521 -0.1697  0.3758 -0.0513
86308SOL    HW176916   3.311  10.981   6.569  0.3748  3.1444  2.1508
86308SOL    HW276917   3.457  10.943   6.562 -0.1010  1.3721  1.2533
86309SOL     OW76918  10.624  10.436   8.612 -0.2539  0.5072  0.2294
86309SOL    HW176919  10.599  10.373   8.545  0.6104 -0.0076  0.3656
86309SOL    HW276920  10.674  10.385   8.676  0.7739  1.3831  0.1634
86310SOL     OW76921  13.043  10.382   5.954 -0.0067  0.0713  0.2802
86310SOL    HW176922  12.955  10.392   5.916  0.5279 -0.1013 -1.0799
86310SOL    HW276923  13.059  10.287   5.950  0.7049  0.2146 -0.6439
86311SOL     OW76924   1.434   0.791  12.843  0.5579  0.4667 -0.1153
86311SOL    HW176925   1.368   0.825  12.902 -0.1627 -0.6882 -0.2278
86311SOL    HW276926   1.453   0.864  12.783 -2.0221  0.2602 -1.2905
86312SOL     OW76927   4.721   0.018   5.875 -0.2739 -0.1142 -0.1299
86312SOL    HW176928   4.760   0.011   5.962  1.3538 -0.7401 -0.8718
86312SOL    HW276929   4.647  -0.042   5.877  0.0673 -0.5155  0.6555
86313SOL     OW76930  13.127   4.524  10.889  0.2716 -0.1383  0.3435
86313SOL    HW176931  13.115   4.440  10.845 -1.6776  0.1304  0.2886
86313SOL    HW276932  13.134   4.588  10.819 -0.9456  0.0497  0.3635
86314SOL     OW76933   3.790  11.191  11.837 -0.3798 -0.2894  0.0512
86314SOL    HW176934   3.859  11.247  11.802  0.3274 -0.3898  1.2240
86314SOL    HW276935   3.833  11.141  11.906 -1.0840 -2.0592 -0.7409
86315SOL     OW76936  12.296   2.144  10.819  0.0478  0.1584  0.2013
86315SOL    HW176937  12.224   2.081  10.818  0.2159 -0.0250 -1.0084
86315SOL    HW276938  12.332   2.138  10.908 -0.1967 -1.1533  0.2230
86316SOL     OW76939  13.688  13.796   0.030  0.1238  0.3368 -0.9048
86316SOL    HW176940  13.609  13.773  -0.018 -0.0868  1.1635 -0.9690
86316SOL    HW276941  13.668  13.881   0.069  0.5707  0.0389  0.0064
86317SOL     OW76942   0.857   1.434   9.477  0.0159 -0.1662 -0.0868
86317SOL    HW176943   0.829   1.410   9.389 -0.1922 -0.5706  0.0919
86317SOL    HW276944   0.924   1.370   9.499 -0.5059 -0.5613  0.3675
86318SOL     OW76945  14.029   2.187  13.457  0.0230  0.3783 -0.7127
86318SOL    HW176946  13.961   2.231  13.405 -1.2853 -1.8645 -1.0163
86318SOL    HW276947  14.049   2.249  13.526 -3.5469  0.5664  0.3820
86319SOL     OW76948  11.112  12.531   4.891  0.3954 -0.0890 -0.0848
86319SOL    HW176949  11.086  12.450   4.936 -1.3441  0.4480 -0.0385
86319SOL    HW276950  11.207  12.536   4.903  0.1709 -0.5670  2.5193
86320SOL     OW76951   5.311  11.197   6.774  0.2382 -0.4665 -0.0309
86320SOL    HW176952   5.260  11.278   6.776  0.3267 -0.4147  0.2500
86320SOL    HW276953   5.288  11.155   6.692  1.5897  0.7379 -1.0786
86321SOL     OW76954  12.752  10.571   7.291  1.1578 -0.1377  0.2621
86321SOL    HW176955  12.795  10.630   7.230  2.2990 -0.8057  0.3960
86321SOL    HW276956  12.672  10.543   7.245  0.9395  0.9721 -0.0589
86322SOL     OW76957  11.582   1.227   1.457 -0.2452 -0.5676 -0.1886
86322SOL    HW176958  11.566   1.265   1.544 -0.4140 -1.9655  0.4184
86322SOL    HW276959  11.676   1.233   1.445 -0.3245  0.5034 -0.3326
86323SOL     OW76960  10.432  10.905  13.082 -0.0961 -0.6549  0.0426
86323SOL    HW176961  10.518  10.864  13.074 -0.2475 -0.8919 -0.4416
86323SOL    HW276962  10.448  10.998  13.066 -0.3111 -1.0367 -2.9886
86324SOL     OW76963  10.459   2.326   6.291 -0.4869 -0.5061 -0.4321
86324SOL    HW176964  10.430   2.283   6.210 -1.4814 -0.5664 -0.0600
86324SOL    HW276965  10.385   2.380   6.317  0.6606  1.2887 -0.7719
86325SOL     OW76966  11.731   5.229   5.001 -0.4373 -0.2480 -0.3697
86325SOL    HW176967  11.730   5.147   4.952 -0.7735 -0.0380 -0.7176
86325SOL    HW276968  11.803   5.279   4.962  0.6763 -0.9192  0.7552
86326SOL     OW76969  12.371   8.082   9.676 -0.4224  0.1306  0.4784
86326SOL    HW176970  12.364   7.991   9.704 -0.2092  0.5078  1.8212
86326SOL    HW276971  12.380   8.077   9.581  1.5825 -1.3575  0.6709
86327SOL     OW76972   9.968   1.141   7.098  0.2879  0.1213 -0.2846
86327SOL    HW176973  10.046   1.171   7.143  0.9039  0.0110 -1.2531
86327SOL    HW276974   9.983   1.047   7.084  0.4000  0.2756 -1.2718
86328SOL     OW76975  10.726   4.032   8.883  0.2722  0.0581 -0.7292
86328SOL    HW176976  10.724   4.109   8.825 -0.5333  1.0347  0.5285
86328SOL    HW276977  10.818   4.020   8.904  0.3809  0.9166 -0.6657
86329SOL     OW76978  13.429  10.036  11.922 -0.0415 -0.0276 -0.0751
86329SOL    HW176979  13.379   9.971  11.970  0.8272 -1.2258 -0.7514
86329SOL    HW276980  13.415  10.118  11.970  0.8639 -1.1870  2.3005
86330SOL     OW76981   7.410   0.643  14.016  0.1127  0.3101  0.0484
86330SOL    HW176982   7.404   0.547  14.007 -0.6712  0.5204 -2.4025
86330SOL    HW276983   7.502   0.659  14.036  0.2450 -0.9541  0.5625
86331SOL     OW76984   0.074  10.462   2.428  0.4519 -0.6832 -0.2025
86331SOL    HW176985   0.130  10.519   2.376  0.3794 -2.2047 -2.0629
86331SOL    HW276986   0.095  10.373   2.397 -1.5263 -1.4385  0.4660
86332SOL     OW76987  13.842   8.322   6.783 -0.0492  0.5123  0.0120
86332SOL    HW176988  13.879   8.233   6.780 -3.3413 -0.9967 -2.0063
86332SOL    HW276989  13.798   8.326   6.868  1.8139  1.0716  0.9957
86333SOL     OW76990  13.848  14.140   6.592  0.5164 -0.4880  0.2698
86333SOL    HW176991  13.862  14.175   6.680 -1.2469 -1.3127  0.9305
86333SOL    HW276992  13.895  14.056   6.592  1.3011 -0.0577  0.0882
86334SOL     OW76993   9.502  12.254   4.606 -0.2886  0.1770  0.3278
86334SOL    HW176994   9.534  12.343   4.587  2.3962 -0.9430 -1.0766
86334SOL    HW276995   9.420  12.247   4.558  0.5336  1.2629 -1.3315
86335SOL     OW76996   1.347   6.017  13.289  0.5312  0.0883  0.5463
86335SOL    HW176997   1.281   6.034  13.222 -0.6137 -1.5345  1.1896
86335SOL    HW276998   1.309   6.051  13.369  1.0573  0.2926  0.7146
86336SOL     OW76999   7.078  10.579   9.882 -0.0421 -0.4565  0.1999
86336SOL    HW177000   7.155  10.620   9.844  0.8365 -2.9225 -0.8704
86336SOL    HW277001   7.008  10.597   9.820  0.4545 -1.0191 -0.5329
86337SOL     OW77002   0.747   8.804   6.997  0.0611  0.0978  0.3517
86337SOL    HW177003   0.841   8.823   6.994  0.4801 -1.6125  1.5001
86337SOL    HW277004   0.734   8.757   7.079 -1.6347 -0.6165 -0.2823
86338SOL     OW77005   6.535  11.260   4.696 -0.9559  0.0347  0.2278
86338SOL    HW177006   6.555  11.255   4.603 -2.1484  1.1779 -0.1123
86338SOL    HW277007   6.457  11.205   4.707 -0.6950 -0.2662  0.5895
86339SOL     OW77008   5.458  13.284   8.911  0.0962  0.1506 -0.3505
86339SOL    HW177009   5.502  13.322   8.987  1.6360 -4.2208  1.3260
86339SOL    HW277010   5.523  13.290   8.840  0.6502 -0.0469  0.1291
86340SOL     OW77011  11.668   9.145  12.788  0.4616 -0.1551 -0.2788
86340SOL    HW177012  11.676   9.184  12.701 -0.6955 -3.0462 -1.8183
86340SOL    HW277013  11.758   9.141  12.821  0.9349  0.8893 -1.3652
86341SOL     OW77014   5.211   1.686   4.076  0.0941  0.8188 -0.1709
86341SOL    HW177015   5.221   1.727   3.990  2.1181  1.4272  0.2942
86341SOL    HW277016   5.289   1.630   4.085 -1.9615 -2.3141 -0.2905
86342SOL     OW77017   7.862  10.931   2.402  0.4373 -0.0416  0.6646
86342SOL    HW177018   7.883  10.854   2.349 -0.6481 -0.2007  0.4475
86342SOL    HW277019   7.776  10.913   2.438 -0.5961  1.7759 -0.7322
86343SOL     OW77020   5.971   2.123   7.359  0.2347 -0.2595  0.4019
86343SOL    HW177021   6.006   2.208   7.333 -2.0386  0.6775  0.1402
86343SOL    HW277022   5.927   2.090   7.280 -0.3175 -0.8944  0.9620
86344SOL     OW77023   4.272  10.853  12.729  0.2257 -0.1933 -0.2176
86344SOL    HW177024   4.252  10.878  12.639 -0.5358  1.9921  0.4912
86344SOL    HW277025   4.187  10.845  12.772  0.5568 -1.7209  0.2193
86345SOL     OW77026  11.682   4.873   6.716  0.0506  0.5473 -0.0365
86345SOL    HW177027  11.653   4.808   6.652  1.9647  0.1107 -0.5189
86345SOL    HW277028  11.637   4.954   6.691 -0.4504  0.0071 -0.9372
86346SOL     OW77029   1.511   0.107   9.317 -0.4234  0.3091 -0.3820
86346SOL    HW177030   1.527   0.082   9.408  2.1398 -1.5633 -1.2313
86346SOL    HW277031   1.566   0.184   9.303  1.3932 -1.0413 -1.0124
86347SOL     OW77032   0.865   6.537  10.233 -0.1232  0.0729  0.9341
86347SOL    HW177033   0.836   6.523  10.143 -1.3561  1.1394  1.1166
86347SOL    HW277034   0.953   6.502  10.236 -0.0238  0.0924 -0.7169
86348SOL     OW77035   2.300  11.165   0.898 -0.2071 -0.7340  0.2016
86348SOL    HW177036   2.318  11.122   0.815  0.2265  0.3386 -0.2645
86348SOL    HW277037   2.385  11.195   0.929 -0.4798 -0.3746  0.6138
86349SOL     OW77038   7.254   8.064   2.473 -0.4403  0.0773  0.8409
86349SOL    HW177039   7.207   7.997   2.424  2.2972 -2.3030  1.2095
86349SOL    HW277040   7.189   8.098   2.535 -2.6590 -0.1951 -1.1934
86350SOL     OW77041   1.836   5.419   4.879  0.3004 -0.5969  0.1909
86350SOL    HW177042   1.894   5.495   4.872  0.1901 -0.6339 -1.3633
86350SOL    HW277043   1.896   5.344   4.883  0.3880 -0.5304  0.1408
86351SOL     OW77044   0.784   9.769   5.332 -0.2312 -0.4032 -0.4490
86351SOL    HW177045   0.825   9.684   5.345  1.1124  0.5960  3.5008
86351SOL    HW277046   0.855   9.825   5.300 -0.2704 -0.1400 -0.0872
86352SOL     OW77047   1.365   7.953   9.562 -0.0483 -0.2492  0.4528
86352SOL    HW177048   1.297   7.894   9.531 -0.1773 -0.0298  0.3187
86352SOL    HW277049   1.354   8.033   9.510 -0.0714  0.0066  0.8453
86353SOL     OW77050   9.087   4.290   4.564  0.3918  0.1423  0.1390
86353SOL    HW177051   9.159   4.353   4.564  0.6875 -0.1814  1.2943
86353SOL    HW277052   9.098   4.241   4.483 -0.9780  2.8202 -1.8058
86354SOL     OW77053  12.214  11.790   6.811 -0.1105  0.4899  0.2170
86354SOL    HW177054  12.284  11.791   6.877  1.6236 -1.7452 -1.4073
86354SOL    HW277055  12.239  11.858   6.748 -0.4931  1.0524  0.6750
86355SOL     OW77056   9.195   3.379   1.161 -0.3355 -0.5562 -0.7551
86355SOL    HW177057   9.155   3.316   1.221  0.8362 -1.2432 -0.6760
86355SOL    HW277058   9.184   3.464   1.204 -1.1419 -0.8100 -0.4477
86356SOL     OW77059   5.586  12.350   1.113 -0.5024  0.4069 -0.7959
86356SOL    HW177060   5.616  12.260   1.119 -0.5293  0.4347 -0.2689
86356SOL    HW277061   5.569  12.377   1.203 -1.1363  0.7219 -0.9974
86357SOL     OW77062   8.133   3.485  10.995  0.1969 -0.3821 -0.0602
86357SOL    HW177063   8.202   3.419  11.006  0.4181  0.0593  1.5216
86357SOL    HW277064   8.170   3.551  10.938  1.5033  0.3309  1.5259
86358SOL     OW77065   6.128   7.727   4.183 -0.2062  0.0348  0.0424
86358SOL    HW177066   6.122   7.674   4.105  2.7369  0.3062 -0.4855
86358SOL    HW277067   6.106   7.816   4.154 -1.0466 -0.1839 -0.0061
86359SOL     OW77068  12.944   7.683   5.899  0.3345  0.0893  0.1461
86359SOL    HW177069  12.905   7.598   5.880  2.2617 -0.7103 -0.5565
86359SOL    HW277070  13.024   7.685   5.847  0.8577  1.9194  0.9232
86360SOL     OW77071   4.974  11.146   1.363 -0.2506 -0.0715 -0.3827
86360SOL    HW177072   4.917  11.078   1.400 -0.7004  1.2817  1.5948
86360SOL    HW277073   4.958  11.223   1.418  3.1447  0.5143 -0.0138
86361SOL     OW77074   1.516   5.419  12.805  0.0940  0.5048 -0.0803
86361SOL    HW177075   1.565   5.417  12.887 -0.2251 -1.1059  0.1218
86361SOL    HW277076   1.424   5.424  12.831  0.0765  2.6644 -0.4353
86362SOL     OW77077   4.343   1.281   2.122  0.3035 -0.4901 -0.1464
86362SOL    HW177078   4.253   1.265   2.094 -0.0179  0.5035  0.2493
86362SOL    HW277079   4.396   1.221   2.071 -0.8144 -3.0421  1.5027
86363SOL     OW77080   7.650   7.170   2.097 -0.4567 -0.2935 -0.1140
86363SOL    HW177081   7.628   7.081   2.124 -1.2749 -0.8877 -2.4787
86363SOL    HW277082   7.602   7.226   2.157 -1.1439 -1.4700  0.4722
86364SOL     OW77083   0.175   0.643  13.741 -0.2781 -0.3647  0.0222
86364SOL    HW177084   0.105   0.698  13.777  1.2426  1.3378  0.4915
86364SOL    HW277085   0.245   0.647  13.807  0.8224 -0.8842 -1.0742
86365SOL     OW77086   8.780   1.595   3.595 -0.6154  0.1677  0.0401
86365SOL    HW177087   8.783   1.517   3.539  0.4484 -0.2000  0.5694
86365SOL    HW277088   8.687   1.609   3.612 -0.8858 -0.3476 -0.9376
86366SOL     OW77089   3.778   2.639  11.752  0.0859  0.1994  0.3433
86366SOL    HW177090   3.862   2.660  11.710  1.0624 -0.2383  1.9718
86366SOL    HW277091   3.782   2.685  11.836 -1.5151  0.5054  0.2917
86367SOL     OW77092  12.199   3.395   0.218 -0.2270 -0.3043  0.3340
86367SOL    HW177093  12.268   3.458   0.199 -0.8537  0.3301  0.1008
86367SOL    HW277094  12.232   3.343   0.291 -0.3240  1.2879  1.5496
86368SOL     OW77095   6.628  11.289  12.338 -0.0465  0.3565  0.3717
86368SOL    HW177096   6.672  11.326  12.262 -0.3611  0.1867  0.1064
86368SOL    HW277097   6.666  11.335  12.413  0.9325 -0.1308  0.1890
86369SOL     OW77098   1.499   2.884   9.243 -0.0839  0.1612  0.0712
86369SOL    HW177099   1.578   2.862   9.292 -1.2556 -2.0764  1.0892
86369SOL    HW277100   1.443   2.928   9.308 -0.0795  0.8486 -0.3824
86370SOL     OW77101   5.937  10.960   7.095 -0.1106 -0.0908 -0.0924
86370SOL    HW177102   6.005  10.955   7.162 -0.0676  0.5038 -0.0807
86370SOL    HW277103   5.920  11.054   7.085 -0.8495 -0.2240 -0.1770
86371SOL     OW77104  13.318  11.391  13.598  0.3883  0.1485 -0.5989
86371SOL    HW177105  13.338  11.435  13.515  0.7171  1.3412  0.0969
86371SOL    HW277106  13.233  11.350  13.583 -0.3793  1.7998 -1.0010
86372SOL     OW77107  12.419   9.339   2.440  0.0681  0.2611 -0.0130
86372SOL    HW177108  12.382   9.258   2.406  0.0418  1.0672 -2.0198
86372SOL    HW277109  12.363   9.408   2.405  0.7180  1.2315  0.7922
86373SOL     OW77110   1.863   1.651  11.851 -0.0820  0.3488 -0.2344
86373SOL    HW177111   1.925   1.644  11.778 -0.7983  1.1633 -0.9450
86373SOL    HW277112   1.918   1.672  11.926  0.5007  1.3692 -0.9118
86374SOL     OW77113   5.273  10.789   0.823  0.7941 -0.1514  0.7091
86374SOL    HW177114   5.222  10.789   0.742  0.0689  1.9579  1.0853
86374SOL    HW277115   5.357  10.827   0.798 -0.2209  2.7314  1.2663
86375SOL     OW77116   8.166  11.106  11.852 -0.0804  0.7627  0.4422
86375SOL    HW177117   8.226  11.143  11.917  0.0670  1.3748 -0.0358
86375SOL    HW277118   8.223  11.070  11.784 -0.2402  0.5072  0.4442
86376SOL     OW77119  14.012   3.326   3.481 -0.4376  0.5480  0.0935
86376SOL    HW177120  14.020   3.360   3.570  0.2218  2.4099 -0.6201
86376SOL    HW277121  13.918   3.317   3.468 -0.5064 -0.8051  1.3296
86377SOL     OW77122   7.826  11.448   0.211  0.0214 -0.4497  0.1436
86377SOL    HW177123   7.915  11.415   0.195 -0.1139 -0.6447 -0.2120
86377SOL    HW277124   7.812  11.433   0.305  0.2981 -0.5790  0.1678
86378SOL     OW77125  10.744  13.610   5.355 -0.0433 -0.3867 -0.2163
86378SOL    HW177126  10.790  13.535   5.316  0.4136 -1.8370  2.8271
86378SOL    HW277127  10.812  13.676   5.365 -0.5977  0.9009 -3.6067
86379SOL     OW77128   3.907  13.397  10.415 -0.4189  0.0480 -0.2965
86379SOL    HW177129   3.890  13.350  10.497 -1.4730  1.3530  0.2734
86379SOL    HW277130   3.971  13.464  10.440 -0.1871 -0.0184 -0.7157
86380SOL     OW77131   2.287   2.782   4.854 -0.4240  0.0694  0.7149
86380SOL    HW177132   2.348   2.853   4.873  1.9910 -1.4914 -0.7526
86380SOL    HW277133   2.332   2.703   4.885 -0.9166 -1.3177 -1.8617
86381SOL     OW77134   1.756  10.392   8.538 -0.5806 -0.0486  0.0610
86381SOL    HW177135   1.667  10.429   8.536 -0.5574  0.1338  1.4778
86381SOL    HW277136   1.811  10.465   8.566  0.2288  0.1618 -1.8854
86382SOL     OW77137   0.059  10.521  10.464 -0.1146  0.3762  0.0741
86382SOL    HW177138   0.085  10.449  10.406 -1.6657 -0.5765  0.4974
86382SOL    HW277139   0.014  10.478  10.537  1.0601  1.6036  1.6174
86383SOL     OW77140   8.353   8.051   0.154 -0.2388 -0.2753  0.5556
86383SOL    HW177141   8.336   7.970   0.202  0.7418 -1.7144 -1.3625
86383SOL    HW277142   8.420   8.027   0.090  0.9175  2.3725  0.6510
86384SOL     OW77143  13.698   0.347  11.085  1.0152  0.4492  0.1278
86384SOL    HW177144  13.780   0.339  11.035  1.5648  0.1361  1.0397
86384SOL    HW277145  13.705   0.279  11.153 -0.3373 -0.0595 -0.2218
86385SOL     OW77146  11.508   0.446   3.842 -0.3454 -0.0266  0.0129
86385SOL    HW177147  11.486   0.353   3.831 -0.7719  0.0109  0.5094
86385SOL    HW277148  11.589   0.457   3.792  1.3825 -1.3337  2.3199
86386SOL     OW77149   9.356   7.611   5.265  0.7521  0.1635 -0.1096
86386SOL    HW177150   9.420   7.677   5.291  1.1784  0.8967 -2.7012
86386SOL    HW277151   9.401   7.560   5.197 -0.4795 -1.1426  0.0075
86387SOL     OW77152   5.118   4.861   4.863  0.1596  0.4324  0.1976
86387SOL    HW177153   5.028   4.882   4.889  0.2591 -0.5750  1.4966
86387SOL    HW277154   5.164   4.849   4.946  1.0093 -0.9715 -0.4363
86388SOL     OW77155   4.546   4.699   8.299 -0.1016  0.1589 -0.0460
86388SOL    HW177156   4.618   4.656   8.255 -1.1843 -1.1539 -0.6017
86388SOL    HW277157   4.546   4.788   8.265  0.9349  0.0242 -0.4107
86389SOL     OW77158   3.627  12.758   2.828 -0.2711 -0.0120 -0.4336
86389SOL    HW177159   3.667  12.703   2.895  0.9368 -0.3717 -1.4210
86389SOL    HW277160   3.537  12.726   2.821 -0.6649  0.5020  1.4883
86390SOL     OW77161   4.216  10.053   3.525 -0.4694 -0.0682 -0.2019
86390SOL    HW177162   4.278  10.080   3.457  0.7318 -1.4556  0.2955
86390SOL    HW277163   4.243  10.102   3.603 -0.5165 -0.0541 -0.1945
86391SOL     OW77164  12.008   2.652  10.950 -0.2326  0.3302 -0.3989
86391SOL    HW177165  12.027   2.650  10.856  0.7698  0.3140 -0.2042
86391SOL    HW277166  11.980   2.562  10.970  2.7565 -0.6465 -0.0819
86392SOL     OW77167   3.810   8.224   9.427 -0.1090  0.0584 -0.4498
86392SOL    HW177168   3.816   8.166   9.503 -3.0595 -2.8760 -2.1357
86392SOL    HW277169   3.740   8.286   9.449  0.0266  0.1416 -0.2507
86393SOL     OW77170   4.478   3.363   0.197 -0.0215 -0.1486 -0.5630
86393SOL    HW177171   4.430   3.291   0.238  0.2219 -0.1496 -0.2776
86393SOL    HW277172   4.529   3.322   0.127  2.5128 -0.7935  1.4984
86394SOL     OW77173   9.415   3.388   5.001  0.4577  0.7098  0.0581
86394SOL    HW177174   9.332   3.354   4.970  0.9843  0.4952 -1.1938
86394SOL    HW277175   9.462   3.312   5.034  0.5555  0.6618 -0.1897
86395SOL     OW77176   6.411  12.815   8.018  0.0532 -0.0769 -0.0579
86395SOL    HW177177   6.372  12.735   8.053 -1.1778  0.0289 -1.1204
86395SOL    HW277178   6.353  12.885   8.048  0.3693  0.2727 -0.2529
86396SOL     OW77179  12.581   6.596   3.877  0.5621 -0.2149 -0.1847
86396SOL    HW177180  12.513   6.663   3.873  0.6178 -0.1199  0.3874
86396SOL    HW277181  12.539   6.520   3.917  0.9267  0.0289  0.6916
86397SOL     OW77182   4.470   4.071   9.839  0.3223  1.0912 -0.1279
86397SOL    HW177183   4.563   4.087   9.857  0.4717 -1.4246  1.9004
86397SOL    HW277184   4.424   4.117   9.909  0.1866  0.7174  0.0326
86398SOL     OW77185   9.466   8.315  13.970  0.1374  0.8230  0.0946
86398SOL    HW177186   9.373   8.294  13.984  0.8553 -1.4699  2.1437
86398SOL    HW277187   9.484   8.386  14.032  0.1094  0.1038  0.9462
86399SOL     OW77188   0.434   2.987  13.164  0.1466  0.3710 -0.5749
86399SOL    HW177189   0.354   3.005  13.214 -0.0415 -1.0109 -0.3626
86399SOL    HW277190   0.404   2.941  13.086  0.5367  1.7273 -1.5768
86400SOL     OW77191  14.119   2.061   0.214 -0.0888  0.4349 -0.5338
86400SOL    HW177192  14.039   2.030   0.173 -1.1083  2.1952  0.0229
86400SOL    HW277193  14.166   2.109   0.145 -0.7356  1.5015 -0.2593
86401SOL     OW77194  12.279  13.780   5.197 -0.6870  0.3744  1.0326
86401SOL    HW177195  12.188  13.804   5.180 -0.4418  0.6603  0.0317
86401SOL    HW277196  12.283  13.686   5.182 -0.5928  0.5366 -0.0619
86402SOL     OW77197   1.292   8.380   3.856  0.3008  0.4797  0.1959
86402SOL    HW177198   1.209   8.363   3.901  0.5162  2.5171  1.5503
86402SOL    HW277199   1.318   8.467   3.888  3.8826 -0.8017  1.3062
86403SOL     OW77200   3.725  11.053   2.418 -0.0453 -0.2921  0.0541
86403SOL    HW177201   3.745  11.061   2.324  0.3398  0.4674  0.1945
86403SOL    HW277202   3.811  11.049   2.460 -0.2005 -1.8157  0.2982
86404SOL     OW77203   2.523  13.490   8.576 -0.1906 -0.2591  0.3858
86404SOL    HW177204   2.478  13.561   8.621  0.7215  0.5669  0.0430
86404SOL    HW277205   2.453  13.435   8.541 -0.9084 -0.0959  1.5127
86405SOL     OW77206   0.848  13.837   2.281 -0.4793  0.0270  0.4587
86405SOL    HW177207   0.908  13.831   2.355 -1.3357 -1.7846  1.0756
86405SOL    HW277208   0.804  13.921   2.291  0.8177  0.6792  0.8736
86406SOL     OW77209   4.870  10.938   6.756 -0.7783  0.1009  0.0120
86406SOL    HW177210   4.896  11.030   6.745  0.8430 -0.4105 -0.7937
86406SOL    HW277211   4.915  10.910   6.835 -1.3733  0.0183  0.3276
86407SOL     OW77212   4.156   6.127  10.988  1.2189 -0.1183 -0.3963
86407SOL    HW177213   4.162   6.184  10.911  1.1744 -0.5507 -0.7197
86407SOL    HW277214   4.091   6.169  11.044  1.0943  0.0840 -0.6904
86408SOL     OW77215   2.422   7.699   4.252 -0.2343 -0.0116  0.2743
86408SOL    HW177216   2.449   7.717   4.162 -1.2828  0.5647  0.0603
86408SOL    HW277217   2.494   7.732   4.305  0.8228 -1.1832 -0.3569
86409SOL     OW77218   3.559  12.104   3.746  0.0012  0.5624 -0.4064
86409SOL    HW177219   3.532  12.184   3.792 -0.2410 -0.1816  0.7935
86409SOL    HW277220   3.649  12.121   3.720 -0.0149  1.1935 -0.0822
86410SOL     OW77221   3.980   6.766   4.453  0.0555  0.4190 -0.0620
86410SOL    HW177222   3.973   6.849   4.405  0.6061  0.7796  0.4665
86410SOL    HW277223   4.047   6.782   4.519  1.1130 -0.8597 -0.7806
86411SOL     OW77224   6.726   4.725   9.702 -0.1440 -0.7251 -0.2611
86411SOL    HW177225   6.748   4.817   9.690  1.3737 -1.2583 -2.2858
86411SOL    HW277226   6.806   4.686   9.738 -0.8086 -1.2663  0.6964
86412SOL     OW77227  13.869   0.447   8.618  0.2112  0.4043  0.1552
86412SOL    HW177228  13.873   0.439   8.714  1.4006 -1.1910  0.0099
86412SOL    HW277229  13.796   0.508   8.603 -0.7024 -0.1149  2.0428
86413SOL     OW77230  14.024  12.939   3.852  0.3000  0.0650  0.0063
86413SOL    HW177231  14.018  13.033   3.837 -3.8325 -0.2707 -1.5788
86413SOL    HW277232  14.000  12.928   3.944  2.7597  0.5715  0.7829
86414SOL     OW77233  13.569   3.432   6.441  0.0325  0.2175  0.3229
86414SOL    HW177234  13.555   3.351   6.392  1.5088  0.2686 -0.2295
86414SOL    HW277235  13.629   3.408   6.511  0.0371  0.7192  0.4951
86415SOL     OW77236   5.658   3.266   5.236 -0.2380 -0.4023  0.1296
86415SOL    HW177237   5.679   3.173   5.243  0.3477 -0.2227  0.8441
86415SOL    HW277238   5.742   3.310   5.246  0.0518  0.1321 -3.4252
86416SOL     OW77239   2.512   0.454  12.381  0.0266 -0.1773  0.0053
86416SOL    HW177240   2.544   0.499  12.303  0.0571  0.9622  0.6631
86416SOL    HW277241   2.452   0.388  12.347  0.5190 -0.1190 -1.0208
86417SOL     OW77242   4.270   4.447  14.035  0.4274  0.0602 -0.1365
86417SOL    HW177243   4.328   4.404  14.098 -0.6633 -0.9880  0.1987
86417SOL    HW277244   4.212   4.501  14.088  0.7216  0.6736 -0.4232
86418SOL     OW77245   5.224   4.514   8.040 -0.1937 -0.3833  0.8350
86418SOL    HW177246   5.283   4.576   8.083  1.3310 -0.7661 -0.6356
86418SOL    HW277247   5.280   4.443   8.010 -1.4216 -0.8709 -0.4410
86419SOL     OW77248  12.883   0.554   0.717  0.8861 -0.4742  0.0532
86419SOL    HW177249  12.791   0.532   0.700  0.5498  0.7699  0.1090
86419SOL    HW277250  12.892   0.644   0.683  1.6030  0.0881  1.6343
86420SOL     OW77251  12.083  13.959   5.899  0.0648 -0.1423 -0.1132
86420SOL    HW177252  12.079  13.916   5.984 -1.8856  0.1699 -0.0168
86420SOL    HW277253  12.076  13.889   5.835  1.8085 -0.4076 -0.0659
86421SOL     OW77254   0.141  13.250   5.675 -0.3307  0.1077 -0.0415
86421SOL    HW177255   0.090  13.249   5.756 -1.1566 -0.4338 -0.5524
86421SOL    HW277256   0.225  13.211   5.699 -0.8856 -0.8641  0.3639
86422SOL     OW77257   1.695   6.621   8.088 -0.0103  0.4749  0.3000
86422SOL    HW177258   1.726   6.687   8.150  2.1655  0.4795 -0.7123
86422SOL    HW277259   1.757   6.549   8.097 -0.1003  0.1645 -1.3264
86423SOL     OW77260   3.355   9.017   0.326 -0.4127  0.0616 -0.2518
86423SOL    HW177261   3.341   9.027   0.420  3.7257 -1.5494  0.7337
86423SOL    HW277262   3.345   8.923   0.310  2.1109 -0.1906 -0.6755
86424SOL     OW77263   1.413   2.320  13.608 -0.1293 -0.3019 -0.0973
86424SOL    HW177264   1.460   2.285  13.684  0.7471 -1.4681 -1.1303
86424SOL    HW277265   1.364   2.394  13.642  0.5861 -0.5308  1.5198
86425SOL     OW77266   4.646  10.141  11.736 -0.2469 -0.3557 -0.3013
86425SOL    HW177267   4.701  10.198  11.682  1.6954 -1.9024 -0.0382
86425SOL    HW277268   4.635  10.190  11.818 -0.0408  0.3563 -0.6850
86426SOL     OW77269   4.931   5.911   9.921 -0.0060  0.2103  0.3583
86426SOL    HW177270   4.991   5.838   9.905 -0.3635 -0.1728  0.7183
86426SOL    HW277271   4.846   5.869   9.934 -0.3486  0.7476 -0.1360
86427SOL     OW77272   3.571   2.877   5.086 -0.2686  0.2028 -0.4159
86427SOL    HW177273   3.533   2.950   5.037 -0.7966 -0.3575 -0.8560
86427SOL    HW277274   3.617   2.825   5.019 -0.4830 -0.2434 -0.2202
86428SOL     OW77275   3.085   9.108  11.234  0.1600 -0.6627  0.3159
86428SOL    HW177276   3.043   9.188  11.266 -0.6432 -0.1685 -1.8031
86428SOL    HW277277   3.028   9.077  11.164  1.6574 -1.8336 -0.4564
86429SOL     OW77278  12.325   6.946   9.582 -0.1279 -0.3885 -0.2636
86429SOL    HW177279  12.417   6.921   9.575  0.1384  0.5468 -0.1995
86429SOL    HW277280  12.287   6.881   9.642  0.4552 -0.8510 -0.3862
86430SOL     OW77281   8.002  10.049   4.519 -0.3756 -0.0407 -0.4003
86430SOL    HW177282   8.051  10.078   4.443  0.5787 -0.5993 -0.0128
86430SOL    HW277283   8.068  10.015   4.580 -1.2550 -1.2136 -0.0413
86431SOL     OW77284   5.152  13.439   4.739 -0.6359  0.5735 -0.5958
86431SOL    HW177285   5.125  13.531   4.739 -0.0141  0.7634 -0.9173
86431SOL    HW277286   5.163  13.418   4.646  1.0391  0.7343 -0.4627
86432SOL     OW77287  11.739   7.807  11.148  0.0643 -0.0380 -0.1176
86432SOL    HW177288  11.772   7.891  11.181 -2.8166  0.2941  2.5137
86432SOL    HW277289  11.798   7.742  11.186  1.4275  0.6879 -0.9087
86433SOL     OW77290  12.037   4.078  12.757  0.1203 -0.0558  0.1320
86433SOL    HW177291  11.983   4.081  12.678 -2.2547 -0.8756  1.6593
86433SOL    HW277292  12.076   3.991  12.756 -0.5977 -0.3858  0.2787
86434SOL     OW77293   4.207  11.349   0.738  0.4226 -0.4351 -0.4461
86434SOL    HW177294   4.279  11.388   0.688  1.5528 -2.3996 -0.4573
86434SOL    HW277295   4.161  11.424   0.776  1.9625  0.9277 -1.1259
86435SOL     OW77296   9.000   4.046   0.641  0.6629 -0.2943 -0.3448
86435SOL    HW177297   8.906   4.060   0.641  0.3416 -2.1338  0.8999
86435SOL    HW277298   9.020   4.017   0.730  2.7309  1.8926  0.0163
86436SOL     OW77299   5.530   7.661   0.398  0.3073  0.5731 -1.2540
86436SOL    HW177300   5.463   7.671   0.330  1.5499  2.0707 -2.3369
86436SOL    HW277301   5.610   7.697   0.359  0.8296  2.5976  1.3440
86437SOL     OW77302   2.541   5.591   9.887  0.2699  0.4695  0.3451
86437SOL    HW177303   2.540   5.516   9.827  2.2932  1.9893 -1.7383
86437SOL    HW277304   2.450   5.622   9.887  0.0547 -0.0298 -1.3690
86438SOL     OW77305   9.933   8.590  11.407 -0.6018  0.1683 -0.4911
86438SOL    HW177306  10.011   8.534  11.408 -0.3937  0.3882 -1.9727
86438SOL    HW277307   9.915   8.604  11.315 -0.7481  2.4130 -0.1648
86439SOL     OW77308   3.696   6.173  13.171 -0.0109 -0.2112  0.1346
86439SOL    HW177309   3.709   6.218  13.255 -1.9621  1.4651 -0.3678
86439SOL    HW277310   3.716   6.082  13.189 -0.9956 -0.0121  2.6172
86440SOL     OW77311   8.551  11.696   5.415  1.1625 -0.1372 -0.4585
86440SOL    HW177312   8.571  11.723   5.505 -0.5482 -1.1807  0.2873
86440SOL    HW277313   8.622  11.636   5.392  1.2152 -0.4529  0.4832
86441SOL     OW77314   6.207  13.789  13.700 -0.3005  0.3397 -0.6705
86441SOL    HW177315   6.253  13.860  13.655 -1.0586  1.2630 -0.0233
86441SOL    HW277316   6.179  13.731  13.629  0.9685  0.2650 -1.1503
86442SOL     OW77317  12.582   0.220   1.647 -1.0160 -0.1906  0.1490
86442SOL    HW177318  12.588   0.290   1.712 -0.1714  2.1196 -2.2120
86442SOL    HW277319  12.670   0.183   1.643 -1.1605 -0.5883  0.5399
86443SOL     OW77320   6.135  13.025   3.992 -0.0964  0.2389  1.0023
86443SOL    HW177321   6.126  12.970   3.914  1.5287  1.2559  0.0398
86443SOL    HW277322   6.195  12.977   4.049 -0.4163  0.0044  1.1432
86444SOL     OW77323   8.656   1.303   8.613  0.0764  0.0171 -0.3515
86444SOL    HW177324   8.697   1.258   8.539  2.1865 -0.2026  0.8652
86444SOL    HW277325   8.717   1.290   8.685 -1.8214  0.3786  1.4080
86445SOL     OW77326   6.542   3.559   1.478  0.1949 -0.4200 -0.1591
86445SOL    HW177327   6.576   3.565   1.389  0.4746  0.0260 -0.0267
86445SOL    HW277328   6.452   3.593   1.472  0.3274 -0.0747 -0.2101
86446SOL     OW77329  13.144   1.238   1.308  0.2547 -0.0727 -0.0604
86446SOL    HW177330  13.227   1.195   1.328  0.6157  0.4423 -0.4144
86446SOL    HW277331  13.156   1.328   1.338  0.0324  0.1537 -0.6375
86447SOL     OW77332   2.237   0.981   9.413  0.0176  0.7101 -0.1182
86447SOL    HW177333   2.172   1.051   9.417 -0.7238  0.0482 -0.3147
86447SOL    HW277334   2.266   0.970   9.503  0.2782  1.3902 -0.1122
86448SOL     OW77335   9.147  13.497   2.247 -0.2118 -0.1627  0.0494
86448SOL    HW177336   9.191  13.547   2.178 -2.6169  0.4462 -1.1639
86448SOL    HW277337   9.179  13.407   2.236  1.0999  0.3341 -0.3928
86449SOL     OW77338   9.712   1.947   3.400  0.2146 -0.1378 -0.0946
86449SOL    HW177339   9.689   1.998   3.478 -0.7045 -0.2649 -0.2683
86449SOL    HW277340   9.800   1.977   3.377 -0.3647  1.5131 -0.2972
86450SOL     OW77341   7.200   6.422   0.754 -0.6223  0.1208  0.2801
86450SOL    HW177342   7.207   6.498   0.696  0.8388 -0.8826 -0.9044
86450SOL    HW277343   7.276   6.369   0.734 -0.6500 -0.8041  2.3736
86451SOL     OW77344   5.256   6.074  13.619 -0.2336  0.3078 -0.1785
86451SOL    HW177345   5.333   6.018  13.626 -0.2573  0.2603 -0.3186
86451SOL    HW277346   5.188   6.018  13.582 -0.4447  0.2433  0.2984
86452SOL     OW77347   8.910  13.877   3.460  0.7630 -0.0346  0.1439
86452SOL    HW177348   8.842  13.896   3.396 -0.3521 -1.2802  0.8931
86452SOL    HW277349   8.982  13.936   3.438 -0.8289  1.8470 -0.2203
86453SOL     OW77350   0.934  13.299   5.051  0.3801  0.4650  0.5011
86453SOL    HW177351   0.893  13.273   5.134  0.8452  0.6327  0.7867
86453SOL    HW277352   0.936  13.395   5.054 -2.4510  0.6962 -1.0793
86454SOL     OW77353  11.924   3.561   2.035  0.5293 -0.5825 -0.1656
86454SOL    HW177354  11.972   3.632   1.993  1.1094 -1.1354 -0.4574
86454SOL    HW277355  11.873   3.521   1.965 -1.2406  0.6797  0.3461
86455SOL     OW77356   6.305   6.674  10.832  0.0928 -0.2177  0.4254
86455SOL    HW177357   6.260   6.744  10.786 -0.3030 -0.7408 -0.0012
86455SOL    HW277358   6.234   6.623  10.873  0.4423  0.3065  1.7242
86456SOL     OW77359   2.830  11.957   9.907 -0.3123 -0.1861 -0.0912
86456SOL    HW177360   2.736  11.937   9.900 -0.5307  0.8068 -0.1519
86456SOL    HW277361   2.837  12.012   9.985 -0.1356  1.6388 -1.3332
86457SOL     OW77362   2.708   3.735   5.536 -0.2464 -0.1731  0.4570
86457SOL    HW177363   2.731   3.643   5.545  1.5382  0.1478 -0.4039
86457SOL    HW277364   2.652   3.753   5.611  0.9566 -1.4817  1.7269
86458SOL     OW77365  13.861  12.806   3.652  0.0061  0.6443  0.0416
86458SOL    HW177366  13.922  12.755   3.598  0.2876 -1.3952  2.1064
86458SOL    HW277367  13.915  12.842   3.722 -0.7840  0.8559  0.5575
86459SOL     OW77368   7.550   5.189   7.897 -0.7023  0.4763  0.2992
86459SOL    HW177369   7.504   5.267   7.867 -3.2212 -0.9437  0.2247
86459SOL    HW277370   7.623   5.178   7.836 -2.2741  0.9256 -1.7312
86460SOL     OW77371   4.535   0.845   7.466  0.6261 -0.0270 -0.0919
86460SOL    HW177372   4.521   0.780   7.396  0.6728 -0.7812  0.5789
86460SOL    HW277373   4.605   0.901   7.433 -0.3733  0.5648 -1.2808
86461SOL     OW77374   6.008   6.960  13.104  0.5780 -0.0041  0.6098
86461SOL    HW177375   6.072   6.918  13.162  0.3356  0.5680  1.2996
86461SOL    HW277376   5.940   6.894  13.092  1.8327 -1.0786 -1.1033
86462SOL     OW77377   4.046  12.614   4.740 -0.5086 -0.2236 -0.4439
86462SOL    HW177378   4.096  12.576   4.668  0.5669 -1.1505  0.7382
86462SOL    HW277379   4.106  12.676   4.781 -1.1181  0.3131 -0.3506
86463SOL     OW77380   2.712   2.501   9.306  0.1789  0.0403  0.2918
86463SOL    HW177381   2.690   2.408   9.298  0.5857 -0.0873  0.6229
86463SOL    HW277382   2.722   2.531   9.215 -3.0774  0.5448 -0.0303
86464SOL     OW77383   2.970   7.206   4.290 -0.1230  0.4535  0.1172
86464SOL    HW177384   3.040   7.142   4.309  0.2518  0.8777  0.1859
86464SOL    HW277385   2.957   7.200   4.196  0.0902  0.4527  0.0863
86465SOL     OW77386   3.093   4.892   8.432 -0.3895  0.0418 -0.1846
86465SOL    HW177387   3.186   4.880   8.452 -0.3135  0.4446 -0.2899
86465SOL    HW277388   3.072   4.980   8.464 -1.6516 -1.3258  3.1850
86466SOL     OW77389   2.035  11.488   3.596 -0.4086  0.4091 -0.0734
86466SOL    HW177390   2.051  11.393   3.593 -1.1365  0.2933 -1.4539
86466SOL    HW277391   2.103  11.522   3.654  1.8572 -0.5987 -1.9618
86467SOL     OW77392   3.489  11.217   3.254  0.0263  0.4687  0.2288
86467SOL    HW177393   3.511  11.150   3.189  0.2869 -0.2224  1.0223
86467SOL    HW277394   3.568  11.269   3.264  0.0553  0.4379  0.1573
86468SOL     OW77395   3.718   3.022  12.105 -0.3746 -0.0804 -0.1300
86468SOL    HW177396   3.658   3.092  12.129 -0.4989  0.1869 -1.1820
86468SOL    HW277397   3.663   2.956  12.064 -0.0678 -0.2047 -0.3446
86469SOL     OW77398  13.325   9.305   5.602 -0.0420  0.1188  0.2572
86469SOL    HW177399  13.231   9.311   5.586  0.2110  0.0868 -1.4295
86469SOL    HW277400  13.365   9.328   5.518  1.5432  2.9440  1.6538
86470SOL     OW77401  10.058  13.902   6.170 -0.1679  0.1141  0.0810
86470SOL    HW177402  10.108  13.849   6.232  1.7183  2.5053  0.7648
86470SOL    HW277403  10.088  13.872   6.084 -0.9627 -1.5172  0.3273
86471SOL     OW77404  13.546   7.588   0.589 -0.0987 -0.1227  0.3291
86471SOL    HW177405  13.616   7.595   0.653 -1.2165 -1.0501  1.7284
86471SOL    HW277406  13.589   7.560   0.508  1.0835 -1.0401  1.2471
86472SOL     OW77407   7.627  10.774   9.969  0.5826 -0.0713  0.1355
86472SOL    HW177408   7.605  10.867   9.978  1.7672  0.1682  0.6974
86472SOL    HW277409   7.598  10.751   9.880 -3.2981 -0.2192  1.2483
86473SOL     OW77410  13.675   5.871   4.875 -0.2285  0.5593  0.3755
86473SOL    HW177411  13.635   5.788   4.847 -1.2503  0.4529  1.9936
86473SOL    HW277412  13.768   5.860   4.859 -0.4329 -0.6487 -0.0591
86474SOL     OW77413   7.383  13.945   1.438 -0.1511  0.2140 -1.0394
86474SOL    HW177414   7.318  13.980   1.499  1.0356 -1.1917  1.1620
86474SOL    HW277415   7.346  13.862   1.409 -0.6566  0.8223 -2.1994
86475SOL     OW77416   6.496   9.752   9.839 -0.4413  0.1403  0.1795
86475SOL    HW177417   6.515   9.660   9.821 -0.5970  0.1517 -0.0476
86475SOL    HW277418   6.540   9.770   9.922 -0.5229 -0.1747  0.2925
86476SOL     OW77419   9.280   0.242   0.417  0.1143  0.0465 -0.6869
86476SOL    HW177420   9.319   0.279   0.496  1.4141  0.7512 -1.6123
86476SOL    HW277421   9.204   0.297   0.399 -0.4037 -0.3388  0.2416
86477SOL     OW77422  12.297   4.883   5.482  0.6738  0.2372  0.6475
86477SOL    HW177423  12.364   4.821   5.510  0.0847  0.0300  1.6586
86477SOL    HW277424  12.285   4.941   5.557 -0.3247  0.2170  0.5185
86478SOL     OW77425  11.542   8.775  13.504 -0.3985 -0.0769 -0.0487
86478SOL    HW177426  11.476   8.842  13.513  0.1818  0.3638  1.1138
86478SOL    HW277427  11.519   8.729  13.423 -1.5692  0.6491 -0.1462
86479SOL     OW77428   2.547   2.287   7.676 -0.2623 -0.2962 -0.0441
86479SOL    HW177429   2.630   2.325   7.705  0.0718 -0.8024 -0.3259
86479SOL    HW277430   2.571   2.233   7.601 -0.8974 -0.1912 -0.3254
86480SOL     OW77431  13.167   8.787   2.633 -0.3096 -0.1507 -0.3767
86480SOL    HW177432  13.079   8.811   2.662 -1.1035 -0.7611 -2.1713
86480SOL    HW277433  13.169   8.691   2.640  0.9817 -0.0261  1.6545
86481SOL     OW77434   5.236   1.101   8.462 -0.5144 -0.1637  0.3999
86481SOL    HW177435   5.187   1.019   8.449 -0.2055 -0.3280  0.2767
86481SOL    HW277436   5.208   1.157   8.390 -0.8878 -0.0799  0.6051
86482SOL     OW77437   8.130  14.027   4.015  0.3946 -0.2614  0.1385
86482SOL    HW177438   8.189  14.076   3.958 -1.2760  0.3056 -1.1967
86482SOL    HW277439   8.097  13.957   3.959 -0.0072 -0.7195  0.9394
86483SOL     OW77440   9.297   4.990  13.654 -0.4804 -0.0422 -0.0228
86483SOL    HW177441   9.266   5.026  13.737  1.0664 -0.3614  0.7296
86483SOL    HW277442   9.262   5.050  13.588  2.2445  3.1647  1.1743
86484SOL     OW77443   4.627  12.745   1.207 -0.3463 -0.1645 -0.7087
86484SOL    HW177444   4.625  12.650   1.219 -1.4310  0.1026  2.0687
86484SOL    HW277445   4.658  12.779   1.291 -1.5689  1.9978 -1.0579
86485SOL     OW77446  11.109   6.985   4.647  0.1812  0.2755 -0.0964
86485SOL    HW177447  11.035   6.974   4.707  0.2906  0.7549  0.1308
86485SOL    HW277448  11.087   7.063   4.597 -0.4212 -0.7196 -1.4412
86486SOL     OW77449  12.597  10.848  12.724 -0.2903 -0.1385 -0.4128
86486SOL    HW177450  12.678  10.811  12.758  1.7607  1.3818 -3.2616
86486SOL    HW277451  12.528  10.808  12.777  2.3211 -0.8431  2.7053
86487SOL     OW77452   7.308  11.299   6.576 -0.2258  0.1539 -0.0936
86487SOL    HW177453   7.293  11.206   6.563 -1.1689 -0.1318  2.5466
86487SOL    HW277454   7.230  11.341   6.539 -1.3807 -0.3871  1.6307
86488SOL     OW77455   1.592  14.070  11.756 -0.2536  0.7124 -0.2361
86488SOL    HW177456   1.537  14.065  11.834 -0.6995  0.8953 -0.5316
86488SOL    HW277457   1.639  14.153  11.765  2.3189 -0.8211  1.5248
86489SOL     OW77458   8.907   2.596   8.379 -0.0790  0.2421  0.1746
86489SOL    HW177459   8.929   2.598   8.472  1.6660 -2.0251 -0.1057
86489SOL    HW277460   8.827   2.544   8.374  1.0253 -1.5823  0.3149
86490SOL     OW77461   9.153   1.197  13.545  0.0482  0.2270  0.0019
86490SOL    HW177462   9.239   1.218  13.581 -0.7616  1.4711  1.2624
86490SOL    HW277463   9.157   1.102  13.530  1.0969 -0.0204  1.5533
86491SOL     OW77464   5.675   7.577   2.836 -0.3611  0.7783 -0.3653
86491SOL    HW177465   5.700   7.485   2.845 -2.7994  0.0580 -0.2876
86491SOL    HW277466   5.742   7.625   2.885 -0.4470 -1.1676  1.8044
86492SOL     OW77467   2.178  12.660  13.100  0.0468 -0.4058 -0.7904
86492SOL    HW177468   2.096  12.700  13.073  1.1701  1.5080 -1.6300
86492SOL    HW277469   2.245  12.723  13.072  1.7540 -1.5992  0.4102
86493SOL     OW77470   6.598   5.483  10.073  0.0234  0.3548  0.4052
86493SOL    HW177471   6.683   5.502  10.113 -0.4015  0.6649  1.1881
86493SOL    HW277472   6.606   5.393  10.042  0.8620  0.6000 -0.1373
86494SOL     OW77473  13.199   6.074   6.947  0.1664 -0.2613  0.8285
86494SOL    HW177474  13.253   6.109   6.876 -0.3450 -0.7073  0.2090
86494SOL    HW277475  13.258   6.018   6.998  0.8439  0.9989  1.4793
86495SOL     OW77476   8.905  12.005   4.940 -0.1733  1.0583  0.6005
86495SOL    HW177477   8.898  11.965   5.026  0.5812  0.7713  0.5370
86495SOL    HW277478   8.939  11.936   4.884 -0.8649  1.1790  0.0171
86496SOL     OW77479   8.734  12.062   3.421  0.3932  0.0229  0.7080
86496SOL    HW177480   8.734  12.010   3.340  1.6360 -1.1045  1.3981
86496SOL    HW277481   8.776  12.144   3.395 -0.4019  0.2022 -0.0829
86497SOL     OW77482  13.823   3.839   8.608  0.1377  0.1662  0.2559
86497SOL    HW177483  13.912   3.866   8.584  0.1435 -0.7166 -0.7699
86497SOL    HW277484  13.827   3.744   8.615 -0.5155  0.1933  1.1301
86498SOL     OW77485   4.091  12.032   8.514 -0.7349 -0.5805  0.3400
86498SOL    HW177486   4.060  12.012   8.602  2.0809  0.8533  1.8055
86498SOL    HW277487   4.186  12.046   8.525 -0.5896  1.5402 -2.5352
86499SOL     OW77488   2.466   8.792   9.131 -0.0215 -0.2963  0.3690
86499SOL    HW177489   2.517   8.816   9.054  0.3071 -1.3871  0.2334
86499SOL    HW277490   2.379   8.770   9.097  0.0646 -0.5820  0.3318
86500SOL     OW77491  13.792  10.976   2.332 -0.2074 -0.1575  0.7193
86500SOL    HW177492  13.814  11.017   2.248  1.5790 -0.3447  1.0620
86500SOL    HW277493  13.766  10.887   2.309 -0.0045 -0.1184  0.3263
86501SOL     OW77494   7.882   5.353   8.934 -0.2529  0.4371  0.0467
86501SOL    HW177495   7.941   5.278   8.923  0.2999  0.8834 -0.0774
86501SOL    HW277496   7.860   5.380   8.844 -1.3317 -0.2482  0.0885
86502SOL     OW77497  11.449  12.883   0.329  0.2250 -0.2422  0.4245
86502SOL    HW177498  11.475  12.949   0.394  1.5860 -0.5349  0.2134
86502SOL    HW277499  11.471  12.800   0.369  1.1749 -0.4243 -0.4269
86503SOL     OW77500  10.041   2.980   9.991 -0.0710 -0.1329 -0.4983
86503SOL    HW177501   9.948   2.990   9.970 -0.7520  0.8764  2.5760
86503SOL    HW277502  10.045   2.904  10.049  1.2921 -1.0521 -1.7062
86504SOL     OW77503   4.589   5.882   7.459 -0.2987 -0.1215  0.0680
86504SOL    HW177504   4.644   5.932   7.521  0.8726 -1.6146  0.2888
86504SOL    HW277505   4.509   5.864   7.507 -0.5711  1.1490  0.1342
86505SOL     OW77506  12.901  10.992   8.705  0.0741  0.3252 -0.2840
86505SOL    HW177507  12.875  10.984   8.614  1.5447  3.3841 -1.0984
86505SOL    HW277508  12.829  11.041   8.746 -0.3518 -0.6076  0.1076
86506SOL     OW77509  10.828   3.742   0.090  0.2127 -0.5282 -0.3638
86506SOL    HW177510  10.808   3.760   0.182 -1.6911 -1.8753 -0.4490
86506SOL    HW277511  10.921   3.721   0.089  0.4718  0.3981  1.0861
86507SOL     OW77512   3.527   2.978  10.353 -0.2550  0.0762 -0.1959
86507SOL    HW177513   3.480   2.894  10.358 -0.9796  0.5295  0.8330
86507SOL    HW277514   3.515   3.018  10.439  0.7399  0.9060 -0.4199
86508SOL     OW77515  10.655   6.631   4.315 -0.1107 -0.5357  0.1302
86508SOL    HW177516  10.750   6.617   4.308 -0.2510 -1.0444 -1.0591
86508SOL    HW277517  10.644   6.676   4.398  1.0304 -1.7804  1.0115
86509SOL     OW77518   6.579   3.093  11.006 -0.2344 -0.4380 -0.0516
86509SOL    HW177519   6.576   3.187  10.990 -2.5551 -0.4962 -0.3136
86509SOL    HW277520   6.594   3.085  11.101 -3.7926  0.3934  0.7355
86510SOL     OW77521  13.591  12.801   4.959  0.2139  0.1284 -0.0742
86510SOL    HW177522  13.617  12.824   4.870 -0.3975 -1.1056 -0.5927
86510SOL    HW277523  13.536  12.873   4.988 -0.1391  0.2114 -0.9482
86511SOL     OW77524   1.868   1.929  13.145 -0.3290  1.3252 -0.1820
86511SOL    HW177525   1.785   1.888  13.119  1.1916 -2.3364  0.1125
86511SOL    HW277526   1.858   1.943  13.239  0.1219 -1.4426  0.3712
86512SOL     OW77527  10.120  12.674   4.466 -0.7555  0.0746 -0.3105
86512SOL    HW177528  10.195  12.692   4.410 -1.4799 -0.1832 -1.3909
86512SOL    HW277529  10.088  12.589   4.436 -1.7401  0.3829 -0.1693
86513SOL     OW77530   3.293  11.543   2.583 -0.6775 -0.3880  0.1179
86513SOL    HW177531   3.225  11.602   2.615 -1.0221 -1.2754  1.0873
86513SOL    HW277532   3.311  11.573   2.494 -0.7810  1.2276  0.6004
86514SOL     OW77533   8.811   4.612  14.147 -0.4201  0.6102  0.1383
86514SOL    HW177534   8.809   4.525  14.188  0.3681 -0.2729 -1.5978
86514SOL    HW277535   8.743   4.662  14.193 -1.6039 -1.2333  0.4873
86515SOL     OW77536  13.865   5.063   1.456 -0.0917  0.4185  0.6174
86515SOL    HW177537  13.786   5.056   1.509 -0.7572 -1.1589 -0.4907
86515SOL    HW277538  13.853   5.142   1.404 -0.6834  0.4900  0.8616
86516SOL     OW77539   5.500   5.402   8.051 -0.4481 -0.5229 -0.2183
86516SOL    HW177540   5.465   5.378   8.137 -0.6109 -0.7322 -0.3424
86516SOL    HW277541   5.502   5.498   8.052 -1.3138 -0.4955 -0.3254
86517SOL     OW77542   2.468  11.946   9.289  0.3257  0.1000  0.3854
86517SOL    HW177543   2.422  12.030   9.293  1.3164  0.7960 -1.4685
86517SOL    HW277544   2.551  11.962   9.334  1.0817  0.5744 -1.0954
86518SOL     OW77545   7.936  12.173   9.481 -0.1234  0.1320 -0.4864
86518SOL    HW177546   7.919  12.224   9.402 -0.9671  1.3774  0.4504
86518SOL    HW277547   8.029  12.189   9.500  0.3023 -0.8500 -1.6637
86519SOL     OW77548   4.182   6.348   0.850  0.0701 -0.0402  0.2226
86519SOL    HW177549   4.150   6.258   0.853  1.2470 -0.4809 -0.1022
86519SOL    HW277550   4.190   6.367   0.756  0.1559  0.2883  0.2957
86520SOL     OW77551   6.516   2.320  12.944  0.9070 -0.0408 -0.6631
86520SOL    HW177552   6.440   2.373  12.920 -1.0955 -2.9701 -1.2183
86520SOL    HW277553   6.581   2.384  12.973 -1.5741  2.6402 -0.5671
86521SOL     OW77554   1.178   1.039   3.158 -0.3445  0.5414 -0.0809
86521SOL    HW177555   1.177   1.066   3.250 -0.0861 -1.6366  0.6035
86521SOL    HW277556   1.229   0.958   3.157  1.1164  1.4023 -2.4388
86522SOL     OW77557   9.250  12.236   4.499 -0.6686 -0.6060  0.5738
86522SOL    HW177558   9.177  12.222   4.559 -1.9669 -0.5141 -0.9442
86522SOL    HW277559   9.210  12.253   4.414  0.9820  3.2917  0.3621
86523SOL     OW77560   3.536   6.698   6.511 -0.4434 -0.1483 -0.1705
86523SOL    HW177561   3.552   6.792   6.517 -0.0939 -0.1989 -0.2828
86523SOL    HW277562   3.617   6.662   6.475 -0.0572 -0.6736  1.1589
86524SOL     OW77563  13.065  10.269   7.078 -0.1509  1.1693  0.3309
86524SOL    HW177564  12.992  10.330   7.064 -1.3184 -0.2757 -0.1916
86524SOL    HW277565  13.141  10.314   7.043 -1.2462  1.7492 -1.4639
86525SOL     OW77566   7.100  11.470   0.155  1.0916 -0.2600  0.2135
86525SOL    HW177567   7.016  11.486   0.196  0.5899 -1.7288 -0.1839
86525SOL    HW277568   7.085  11.487   0.062  0.9458 -1.4810  0.0002
86526SOL     OW77569  10.531   3.923  10.400  0.2059  0.3694  0.1912
86526SOL    HW177570  10.492   3.886  10.479 -0.6867  1.0309  0.0742
86526SOL    HW277571  10.547   3.847  10.343 -1.8072  0.1547 -0.1414
86527SOL     OW77572   3.537  11.509   7.678  0.0552  0.3210  0.4282
86527SOL    HW177573   3.492  11.594   7.677 -1.0204 -0.2266 -1.2438
86527SOL    HW277574   3.468  11.445   7.665  1.1717 -0.6298 -1.0708
86528SOL     OW77575   1.156   5.374   2.105 -0.6286  0.3060  0.7072
86528SOL    HW177576   1.175   5.294   2.155 -2.0756  0.6088  1.7825
86528SOL    HW277577   1.239   5.422   2.105  0.8735 -1.9927 -1.6112
86529SOL     OW77578  11.857   3.477   3.088  0.3194  0.4184  0.3583
86529SOL    HW177579  11.952   3.475   3.071 -0.0709 -0.3888 -2.2021
86529SOL    HW277580  11.829   3.386   3.078 -0.6283  0.5172  1.9299
86530SOL     OW77581   2.574  12.467   9.687 -0.2337 -0.0752 -0.1900
86530SOL    HW177582   2.650  12.494   9.740 -0.0712 -0.4958 -0.2081
86530SOL    HW277583   2.504  12.455   9.751 -0.9146  2.4040 -0.3597
86531SOL     OW77584   7.421   2.826   3.752 -0.1531 -0.0100  0.6141
86531SOL    HW177585   7.363   2.830   3.676 -0.8183 -1.8180  0.9728
86531SOL    HW277586   7.428   2.732   3.772 -1.1094  0.4666  3.6362
86532SOL     OW77587   5.578   1.429   4.533 -0.6689 -0.4578  0.3294
86532SOL    HW177588   5.573   1.342   4.493 -1.4764  0.6868 -2.3374
86532SOL    HW277589   5.652   1.470   4.489 -0.3734  0.2657  1.4770
86533SOL     OW77590   5.953  11.790   8.331 -0.0051 -0.4222 -0.4987
86533SOL    HW177591   6.032  11.812   8.381  1.4441 -2.0762 -1.9010
86533SOL    HW277592   5.935  11.869   8.279 -0.9947  0.9843  1.8194
86534SOL     OW77593   9.546   4.567  13.599  0.0271 -0.9343 -0.5047
86534SOL    HW177594   9.477   4.633  13.599  0.9632  0.0855 -1.6695
86534SOL    HW277595   9.587   4.575  13.685 -0.3168 -0.4891 -0.3795
86535SOL     OW77596  13.926  11.932   3.353  0.1921 -0.2513  0.0768
86535SOL    HW177597  13.842  11.887   3.361 -1.7844  3.2349  0.9804
86535SOL    HW277598  13.963  11.931   3.441  0.6354 -0.9016 -0.1091
86536SOL     OW77599  10.991   6.795   3.161  0.1641 -0.1367 -0.1602
86536SOL    HW177600  10.898   6.814   3.145 -0.6154 -1.7345  1.9969
86536SOL    HW277601  11.010   6.836   3.245  2.5021  3.1465 -2.0380
86537SOL     OW77602   3.546   5.115  12.379  0.4959 -0.4579  0.0320
86537SOL    HW177603   3.634   5.102  12.344 -0.0997 -0.8199 -1.4028
86537SOL    HW277604   3.549   5.074  12.466  1.2069 -2.2304 -0.7799
86538SOL     OW77605  11.771   8.648   4.806 -0.0420 -0.1923  0.3377
86538SOL    HW177606  11.764   8.708   4.732  0.6180  2.0042  1.9585
86538SOL    HW277607  11.743   8.564   4.770 -3.0756  1.4271 -1.5619
86539SOL     OW77608  10.205   1.164  11.700 -0.3466 -0.3017  0.3778
86539SOL    HW177609  10.169   1.215  11.773 -0.2979  1.2245 -0.6100
86539SOL    HW277610  10.193   1.220  11.624  1.6493 -0.8951 -0.4362
86540SOL     OW77611   6.806   1.512   8.946  0.5487  0.3699  0.1112
86540SOL    HW177612   6.875   1.446   8.944  0.6024  0.4133  0.4744
86540SOL    HW277613   6.759   1.496   9.028  1.2389  1.4580  0.7473
86541SOL     OW77614   7.224   9.031   1.597  0.1843 -0.1163  0.1330
86541SOL    HW177615   7.318   9.042   1.613  0.1193 -0.2740  0.6528
86541SOL    HW277616   7.219   8.958   1.535  0.4100 -0.0004 -0.0251
86542SOL     OW77617  11.734   1.653  12.351  0.0810  0.2837 -0.2492
86542SOL    HW177618  11.665   1.603  12.395  0.0036  0.0778 -0.6055
86542SOL    HW277619  11.724   1.632  12.258  0.6523  0.2187 -0.2997
86543SOL     OW77620   5.624  11.159   7.076 -0.2575  0.6204  0.0894
86543SOL    HW177621   5.529  11.161   7.070 -0.2189  0.1535 -0.7567
86543SOL    HW277622   5.642  11.154   7.170 -1.0471  1.1994  0.2819
86544SOL     OW77623   4.835  13.856  12.434  0.2491  0.1234 -0.5535
86544SOL    HW177624   4.755  13.869  12.485  0.6110  0.4220 -0.0440
86544SOL    HW277625   4.808  13.866  12.343 -0.3527 -0.1064 -0.4028
86545SOL     OW77626  14.011   7.079   2.124 -0.4592 -0.2628  0.2735
86545SOL    HW177627  14.074   7.052   2.192  0.6151  0.6054 -0.3416
86545SOL    HW277628  14.044   7.037   2.045 -1.0236 -0.3056  0.0637
86546SOL     OW77629   0.359   6.565   4.027 -0.1812  0.0507  0.0033
86546SOL    HW177630   0.335   6.489   3.973 -1.1688  1.2138 -1.2873
86546SOL    HW277631   0.292   6.566   4.096 -0.1473 -0.2612  0.0450
86547SOL     OW77632   1.964  10.757  12.994  1.0022 -0.0417  0.3914
86547SOL    HW177633   1.938  10.738  12.904  1.8675  0.0895  0.1092
86547SOL    HW277634   1.921  10.689  13.046  0.1556  0.1270 -0.0642
86548SOL     OW77635   5.142   1.053  10.547 -0.3788 -0.3368 -0.2856
86548SOL    HW177636   5.111   1.127  10.599 -0.4808 -0.6099  0.0473
86548SOL    HW277637   5.087   0.980  10.575 -0.5767 -0.4439 -0.9264
86549SOL     OW77638   5.228  11.713   0.721 -0.1842  0.4007 -0.0084
86549SOL    HW177639   5.238  11.771   0.646  0.2171  0.1773 -0.1329
86549SOL    HW277640   5.138  11.726   0.750 -0.3862  0.3842 -0.6161
86550SOL     OW77641   4.060  12.618   5.950  0.7362  0.3469 -0.3426
86550SOL    HW177642   3.991  12.681   5.971  0.1895  0.0149 -1.1189
86550SOL    HW277643   4.140  12.671   5.945  0.2983  0.9784 -0.8772
86551SOL     OW77644   9.384   5.885   0.825 -0.7604  0.5922 -0.0558
86551SOL    HW177645   9.383   5.810   0.765  2.2167  0.7552 -0.4666
86551SOL    HW277646   9.424   5.851   0.905 -0.4975  1.4745  0.1892
86552SOL     OW77647   4.464   6.148  12.967  0.2878  0.4067  0.2196
86552SOL    HW177648   4.410   6.169  13.043 -0.3160  1.4654 -0.4782
86552SOL    HW277649   4.417   6.079  12.921 -0.1897  0.9297 -0.0811
86553SOL     OW77650   9.050   3.009  12.459 -0.0824 -0.4993 -0.3740
86553SOL    HW177651   8.966   2.965  12.470 -0.5950  0.6028  0.2343
86553SOL    HW277652   9.094   3.001  12.543  0.3479 -0.9073 -0.6325
86554SOL     OW77653   6.583   8.758   1.902  0.1848 -0.1006 -0.6134
86554SOL    HW177654   6.565   8.704   1.979  0.4793  0.2343 -0.3012
86554SOL    HW277655   6.497   8.782   1.869  0.0525 -0.0583 -0.2484
86555SOL     OW77656  12.507   9.466   9.562  0.5626  0.2722  0.1567
86555SOL    HW177657  12.559   9.402   9.611 -0.5681  0.2723  1.4045
86555SOL    HW277658  12.496   9.427   9.476  1.6133 -0.2624  0.2434
86556SOL     OW77659   1.315   7.553  10.905  0.2613  0.0464  0.4243
86556SOL    HW177660   1.259   7.483  10.938  1.0888 -0.4960  0.6962
86556SOL    HW277661   1.348   7.597  10.983 -0.1595  0.6691  0.2579
86557SOL     OW77662   3.273   0.774   6.914 -0.8156 -0.3233 -0.1423
86557SOL    HW177663   3.221   0.839   6.961 -1.4372 -1.2655  0.5168
86557SOL    HW277664   3.212   0.735   6.851 -0.8878 -1.2943  0.4952
86558SOL     OW77665  11.894   4.570   6.910 -0.4904  0.0681 -0.2615
86558SOL    HW177666  11.903   4.515   6.987  4.3706  0.1290 -0.4928
86558SOL    HW277667  11.893   4.659   6.945 -2.0104  0.0632 -0.2066
86559SOL     OW77668   3.483   9.766   7.854 -0.3884 -0.7582 -0.1144
86559SOL    HW177669   3.531   9.848   7.867 -1.9411 -0.2661  3.7931
86559SOL    HW277670   3.533   9.701   7.902 -0.9406 -1.3672 -0.3535
86560SOL     OW77671  10.453   2.607   8.219  0.0725 -0.3500 -0.2423
86560SOL    HW177672  10.390   2.679   8.217  0.6687  0.1615 -1.1536
86560SOL    HW277673  10.501   2.614   8.136  2.0560 -0.0820  0.8772
86561SOL     OW77674   6.711   2.189   8.095  0.5819 -0.6182 -0.9606
86561SOL    HW177675   6.774   2.210   8.163  0.7700 -0.0813 -1.3006
86561SOL    HW277676   6.663   2.113   8.130  0.4255 -0.1245 -0.0733
86562SOL     OW77677  13.828   3.144   2.561 -0.2804  0.0359 -0.0491
86562SOL    HW177678  13.831   3.052   2.587  2.3650  0.0970  0.1118
86562SOL    HW277679  13.745   3.152   2.513 -1.3084 -2.0309  1.1911
86563SOL     OW77680  11.848   8.338   7.754  0.3599  0.3770 -0.5709
86563SOL    HW177681  11.883   8.399   7.689  0.0197  1.2530  0.0626
86563SOL    HW277682  11.912   8.338   7.825  2.1702 -2.6387 -1.9719
86564SOL     OW77683   1.634  10.119   7.734 -0.7290 -0.3372  0.1646
86564SOL    HW177684   1.603  10.210   7.729 -0.3819 -0.2162  0.2317
86564SOL    HW277685   1.684  10.115   7.815 -1.2152 -0.7353  0.4481
86565SOL     OW77686   0.365  13.220  12.662  0.0905  0.6268 -0.3471
86565SOL    HW177687   0.366  13.273  12.583 -1.5902 -1.0480 -1.5771
86565SOL    HW277688   0.374  13.130  12.631 -2.8876 -0.2886  1.0509
86566SOL     OW77689   6.665  14.000  13.116  0.1524 -0.3403  0.1676
86566SOL    HW177690   6.599  14.044  13.170  0.5078 -0.2259  0.5177
86566SOL    HW277691   6.637  13.909  13.113  0.0725 -0.3261  0.4602
86567SOL     OW77692  12.220   4.030   5.777  0.3459 -0.0199 -0.0884
86567SOL    HW177693  12.265   4.005   5.696 -1.1080  1.8306 -1.5618
86567SOL    HW277694  12.211   4.125   5.771 -1.9436 -0.0900  1.0687
86568SOL     OW77695   4.598   0.936  12.597  0.8772  0.4090 -0.1711
86568SOL    HW177696   4.557   0.987  12.667 -2.1801  0.0988 -1.5871
86568SOL    HW277697   4.622   0.853  12.639 -3.8695 -1.1462  0.1284
86569SOL     OW77698   0.649  11.182   3.662  0.2396 -0.2025 -0.1207
86569SOL    HW177699   0.697  11.144   3.588  2.4832 -1.2215  1.7412
86569SOL    HW277700   0.580  11.119   3.681 -0.1045 -0.1262 -1.0369
86570SOL     OW77701   2.875   1.252   1.546 -0.1025  0.2219  0.1896
86570SOL    HW177702   2.948   1.233   1.488  0.1642  0.0862  0.5691
86570SOL    HW277703   2.903   1.220   1.631  0.7635  3.0485  1.0943
86571SOL     OW77704   8.471  13.112   1.464  0.2352 -0.0725 -0.0531
86571SOL    HW177705   8.501  13.062   1.388 -0.6469 -0.1816 -0.3428
86571SOL    HW277706   8.479  13.051   1.537 -0.6110 -0.5642 -0.3652
86572SOL     OW77707   2.077   6.250  10.454 -0.2235  0.0450 -0.3117
86572SOL    HW177708   2.134   6.244  10.531  0.6596  2.9615 -0.6011
86572SOL    HW277709   2.085   6.165  10.411 -0.4251 -1.5592  2.5387
86573SOL     OW77710  12.573   6.905   6.940 -0.1359  0.1020  0.2582
86573SOL    HW177711  12.588   6.815   6.911  1.0951  0.0480  1.0113
86573SOL    HW277712  12.656   6.950   6.925 -1.0293  1.4071 -1.0550
86574SOL     OW77713   9.825   5.899   9.159 -0.3888  0.4779  0.1869
86574SOL    HW177714   9.883   5.846   9.105 -0.5038  1.7037 -1.2227
86574SOL    HW277715   9.757   5.839   9.188 -0.8491 -0.0742 -1.8459
86575SOL     OW77716   6.638   2.442  12.558 -0.0027  0.4148 -0.7985
86575SOL    HW177717   6.732   2.436  12.544 -0.2134 -0.5679 -1.9851
86575SOL    HW277718   6.602   2.363  12.518 -1.1268 -0.5941  1.9413
86576SOL     OW77719   6.088   1.417   5.090  0.2323  0.2430  0.0199
86576SOL    HW177720   6.164   1.463   5.125  1.3997 -0.3241 -1.6285
86576SOL    HW277721   6.058   1.360   5.161 -0.2661  2.3096  1.5460
86577SOL     OW77722   2.711   4.393  12.384 -0.2636  0.0387  0.8553
86577SOL    HW177723   2.683   4.302  12.376  0.1826  0.0316 -1.2106
86577SOL    HW277724   2.725   4.406  12.477  0.9907 -2.4110  1.0893
86578SOL     OW77725   4.165   3.462   0.058  0.0199 -0.2080 -0.1831
86578SOL    HW177726   4.255   3.493   0.060  0.4030 -1.3057 -0.1690
86578SOL    HW277727   4.158   3.414  -0.025 -1.0940  1.4258 -1.1081
86579SOL     OW77728   8.568   6.397   7.669  0.8248 -0.3768 -0.3447
86579SOL    HW177729   8.501   6.399   7.738 -0.0657  0.7706 -1.2036
86579SOL    HW277730   8.589   6.489   7.654  1.8647 -0.6775 -0.8135
86580SOL     OW77731   7.393   3.640   8.391  0.8004 -0.4084 -0.4641
86580SOL    HW177732   7.465   3.628   8.453  0.5098  0.5829  0.0983
86580SOL    HW277733   7.352   3.554   8.384  1.9166 -0.9478 -0.6559
86581SOL     OW77734  13.260   0.255  13.903  0.5414  0.1217  0.4667
86581SOL    HW177735  13.196   0.303  13.851 -0.6242 -1.5297  0.3087
86581SOL    HW277736  13.245   0.284  13.993 -0.0334  0.1582  0.3611
86582SOL     OW77737   6.225  13.389   3.435  0.0530  0.2813  0.3364
86582SOL    HW177738   6.216  13.294   3.442 -0.8701  0.3433  0.1297
86582SOL    HW277739   6.296  13.402   3.373  0.2001 -0.2802  0.3859
86583SOL     OW77740   9.177   6.403   4.280  0.0661 -0.3447  0.5832
86583SOL    HW177741   9.157   6.495   4.261  0.4918 -0.4500 -0.4323
86583SOL    HW277742   9.143   6.389   4.368  1.0803  1.1372  1.2565
86584SOL     OW77743  10.915   0.508   2.554 -0.0082 -0.0277  0.4362
86584SOL    HW177744  11.008   0.488   2.541  0.1787  0.5272  0.8572
86584SOL    HW277745  10.880   0.431   2.598 -0.0489 -0.7874 -0.8700
86585SOL     OW77746  10.455   4.005   9.760  0.7081 -0.3512 -0.6920
86585SOL    HW177747  10.363   4.023   9.744  1.2878  0.8646 -3.2322
86585SOL    HW277748  10.468   4.024   9.853 -1.9344 -2.4002  0.2277
86586SOL     OW77749   2.432  12.244   2.178  0.6188  0.2417  0.0529
86586SOL    HW177750   2.431  12.219   2.271 -2.6626  2.2927  0.7657
86586SOL    HW277751   2.380  12.176   2.135  0.9441  0.0347 -0.0098
86587SOL     OW77752   7.494   8.389  12.627  0.2038 -0.2505  0.3719
86587SOL    HW177753   7.530   8.308  12.664 -1.0611 -0.5660  0.9925
86587SOL    HW277754   7.492   8.373  12.532 -0.3771 -1.1283  0.5105
86588SOL     OW77755   6.096   0.923   7.111  0.1150 -0.3926  0.1113
86588SOL    HW177756   6.046   0.906   7.191  1.1097 -1.7373  0.4674
86588SOL    HW277757   6.028   0.936   7.044 -0.7410  1.1870  1.2035
86589SOL     OW77758   4.788   2.272   9.393 -0.5339  0.0187  0.5745
86589SOL    HW177759   4.785   2.176   9.396 -0.9423 -0.0513 -1.2010
86589SOL    HW277760   4.845   2.296   9.467  2.0135 -1.7583 -0.6379
86590SOL     OW77761   5.869   0.058  11.154  0.3061 -0.5086  0.2346
86590SOL    HW177762   5.867   0.127  11.087  0.6883 -1.7102 -1.0642
86590SOL    HW277763   5.894  -0.021  11.106  1.6908 -1.2093  2.0143
86591SOL     OW77764   6.848   4.906   4.827  0.4077 -0.6244 -0.0557
86591SOL    HW177765   6.937   4.893   4.797  0.5201 -0.1016  0.0461
86591SOL    HW277766   6.818   4.985   4.782 -1.0466 -2.3747 -2.4301
86592SOL     OW77767  12.621   6.190   7.962 -0.1255  0.2347 -0.7139
86592SOL    HW177768  12.598   6.155   7.877 -0.0435  1.4451 -1.2571
86592SOL    HW277769  12.551   6.161   8.020  0.3955 -1.5353 -0.9263
86593SOL     OW77770   8.958  12.607   2.037 -0.7811 -0.0516 -0.6794
86593SOL    HW177771   8.943  12.516   2.066  2.1062 -0.1473  0.8346
86593SOL    HW277772   8.986  12.599   1.946 -1.4500 -0.5566 -0.8541
86594SOL     OW77773  13.909  12.248   0.173  0.2265  0.6785  0.3010
86594SOL    HW177774  13.877  12.338   0.180  0.6997  0.8349  0.4719
86594SOL    HW277775  13.849  12.197   0.228 -0.1810  0.8475  0.0243
86595SOL     OW77776  12.261   9.706   9.785  0.7894 -0.0033 -0.7961
86595SOL    HW177777  12.231   9.623   9.748 -0.3167 -1.0552  2.1488
86595SOL    HW277778  12.308   9.749   9.713  0.6059 -2.7296 -2.6955
86596SOL     OW77779  10.666  13.460   3.585 -0.7583 -0.5159 -0.1291
86596SOL    HW177780  10.748  13.500   3.554 -1.5502  0.2795 -1.2812
86596SOL    HW277781  10.636  13.519   3.654 -1.7018  0.7150 -1.5296
86597SOL     OW77782   8.160   2.471  11.452 -0.0471 -0.2011  0.4054
86597SOL    HW177783   8.251   2.463  11.422 -0.7467  0.7772 -2.2908
86597SOL    HW277784   8.111   2.410  11.398 -1.1170 -0.2052  1.3355
86598SOL     OW77785   9.004   8.142   5.084 -0.5504 -0.3039  0.0271
86598SOL    HW177786   8.998   8.183   4.998  0.7369  0.3476  0.2186
86598SOL    HW277787   8.976   8.210   5.145  2.1289  0.6145  0.3978
86599SOL     OW77788   9.077  11.005   1.607 -0.2865  0.3165  0.0311
86599SOL    HW177789   9.011  10.956   1.557 -0.4910 -0.6485  1.1770
86599SOL    HW277790   9.080  11.091   1.566 -0.2811 -0.5037 -1.7506
86600SOL     OW77791  14.124  10.565  11.749 -0.7012  0.4772  0.0288
86600SOL    HW177792  14.200  10.532  11.700 -0.0523  1.0877  0.6069
86600SOL    HW277793  14.090  10.636  11.695 -0.9676  0.1043 -0.3051
86601SOL     OW77794   2.386   5.632   3.009 -0.1736 -0.1220  0.2242
86601SOL    HW177795   2.386   5.547   2.964  0.6846 -0.5327  0.9666
86601SOL    HW277796   2.476   5.644   3.038 -0.4719  0.6449  0.8858
86602SOL     OW77797   1.650   3.130   9.614 -0.3037  0.3227 -0.1267
86602SOL    HW177798   1.664   3.166   9.702 -2.2722  0.0523  0.3474
86602SOL    HW277799   1.654   3.035   9.627 -1.1647  0.2725 -0.2116
86603SOL     OW77800   6.364   9.699   7.821  0.3393  0.2256 -0.1490
86603SOL    HW177801   6.361   9.775   7.763 -1.0459  0.8727  0.7186
86603SOL    HW277802   6.432   9.720   7.885  0.5046  0.3864 -0.3757
86604SOL     OW77803  13.155   2.480   1.025 -0.4109  0.2827 -0.6510
86604SOL    HW177804  13.090   2.431   0.975 -0.4263 -1.9910  1.4232
86604SOL    HW277805  13.222   2.503   0.961 -1.1213 -1.2382 -2.0160
86605SOL     OW77806   4.157   5.109   1.543 -0.3001 -0.2636  0.4325
86605SOL    HW177807   4.126   5.090   1.454  1.5154 -0.2542 -0.2502
86605SOL    HW277808   4.228   5.046   1.557  0.1248  0.4245  1.4755
86606SOL     OW77809   4.444  11.939   2.319 -0.1150  0.3175 -0.4190
86606SOL    HW177810   4.463  12.021   2.273  1.8559  0.2768  0.2219
86606SOL    HW277811   4.384  11.893   2.262  0.7367  1.1216 -2.0316
86607SOL     OW77812  11.897  13.005   7.252 -0.2188 -0.5496  0.1385
86607SOL    HW177813  11.950  13.075   7.291 -0.6576 -0.8660  1.3312
86607SOL    HW277814  11.958  12.958   7.194  0.7421 -0.7204  1.2630
86608SOL     OW77815  11.179  12.386   8.060 -0.4436 -0.0107 -0.5213
86608SOL    HW177816  11.139  12.395   8.147 -2.1508 -0.4516 -1.2185
86608SOL    HW277817  11.262  12.342   8.077  0.1288  1.5539  1.0598
86609SOL     OW77818   1.788  12.511   6.339 -0.0822  0.1585  0.4887
86609SOL    HW177819   1.820  12.494   6.251  0.7207 -0.4403  0.8818
86609SOL    HW277820   1.866  12.534   6.389  0.0961 -2.8457  1.8364
86610SOL     OW77821   2.642   1.494   4.677  0.3769  0.2912  0.6205
86610SOL    HW177822   2.669   1.409   4.642  0.2353  1.3590 -2.4072
86610SOL    HW277823   2.689   1.557   4.623 -0.1519  2.1782  2.2554
86611SOL     OW77824   5.800  12.493   6.153  0.7431  0.3739 -0.1906
86611SOL    HW177825   5.857  12.506   6.229  0.2117 -1.3729  0.5582
86611SOL    HW277826   5.714  12.523   6.182  0.6363  0.1167 -0.2331
86612SOL     OW77827  10.666   9.479   5.938 -0.2412  0.4019 -0.1867
86612SOL    HW177828  10.684   9.401   5.884 -1.4130 -0.2668  0.3341
86612SOL    HW277829  10.570   9.484   5.940 -0.3184 -0.2888  2.7566
86613SOL     OW77830   7.423  11.375   3.754 -0.0507 -0.2014 -0.0525
86613SOL    HW177831   7.332  11.384   3.781  0.2414  1.9221  0.3947
86613SOL    HW277832   7.460  11.311   3.814 -0.7499  0.4244  1.0689
86614SOL     OW77833   2.348   1.072   4.960  0.6996  0.3918 -0.3042
86614SOL    HW177834   2.375   1.012   5.030 -0.6158 -1.3610 -1.2058
86614SOL    HW277835   2.259   1.098   4.985 -0.0585 -0.8240 -1.6459
86615SOL     OW77836  13.784   8.924   0.827 -0.2510 -0.3612 -0.0644
86615SOL    HW177837  13.709   8.903   0.882 -0.1399  0.7826  0.5360
86615SOL    HW277838  13.746   8.943   0.741 -0.5441 -0.8052 -0.0371
86616SOL     OW77839   1.016   2.725   1.399  0.4760  0.3404 -0.0168
86616SOL    HW177840   1.078   2.748   1.329 -0.5640  0.2247 -1.0188
86616SOL    HW277841   0.933   2.763   1.370 -0.7406 -2.3886 -0.4872
86617SOL     OW77842   5.410   1.297   0.473 -0.3998 -0.3320 -0.1879
86617SOL    HW177843   5.432   1.373   0.528 -0.9455  0.6193 -1.2342
86617SOL    HW277844   5.328   1.264   0.509 -1.6333  1.2934 -1.3607
86618SOL     OW77845   6.570   6.804   0.865 -0.1136  0.0156 -0.5796
86618SOL    HW177846   6.597   6.883   0.913  0.2379  0.1083 -0.9211
86618SOL    HW277847   6.650   6.752   0.859 -0.5745 -0.8546  0.5432
86619SOL     OW77848  13.878   2.947   3.248 -0.0101 -0.5471  0.3366
86619SOL    HW177849  13.929   2.976   3.323  1.5366  0.9201 -1.2015
86619SOL    HW277850  13.915   2.993   3.174 -1.8063 -1.5579 -1.2978
86620SOL     OW77851   7.575   7.302  11.382 -0.6243 -0.3936 -0.2049
86620SOL    HW177852   7.494   7.281  11.429 -0.6220 -1.8005 -0.7967
86620SOL    HW277853   7.573   7.247  11.304  1.3293 -1.1379  0.2003
86621SOL     OW77854   4.026  10.437   7.381 -0.6145 -0.2628 -0.2816
86621SOL    HW177855   4.069  10.523   7.375 -0.0125 -0.6315 -1.6707
86621SOL    HW277856   4.078  10.381   7.323 -1.2344 -1.4718  0.3137
86622SOL     OW77857   1.608  11.421  12.911  0.3257 -0.0064  0.1567
86622SOL    HW177858   1.528  11.390  12.867 -1.0565  1.9294  1.1599
86622SOL    HW277859   1.660  11.458  12.840 -0.6404  0.6241 -0.2483
86623SOL     OW77860  10.425   6.670   7.472  0.9887 -0.3885  0.1136
86623SOL    HW177861  10.463   6.591   7.510  1.7340 -0.7786 -1.3783
86623SOL    HW277862  10.430   6.657   7.378 -2.2683 -0.1277 -0.1866
86624SOL     OW77863   8.363   2.438  11.824  0.0184  0.1182 -0.5740
86624SOL    HW177864   8.276   2.462  11.792 -0.7276 -2.4468 -0.7515
86624SOL    HW277865   8.395   2.375  11.760  2.1612  1.2017 -0.6463
86625SOL     OW77866   2.646  10.645   5.327 -0.0345  0.1581 -0.3409
86625SOL    HW177867   2.648  10.737   5.353 -3.3242  0.2036  0.1304
86625SOL    HW277868   2.696  10.600   5.396 -0.6684  1.3348  0.9377
86626SOL     OW77869  11.997  10.057   6.796  0.0745  0.3937 -0.3585
86626SOL    HW177870  11.993   9.976   6.745 -0.2929  0.7101 -0.8380
86626SOL    HW277871  11.909  10.094   6.789 -0.5893 -0.4962  2.0619
86627SOL     OW77872   4.474  14.049   1.301  0.1666 -0.7427  0.4779
86627SOL    HW177873   4.560  14.089   1.317  0.0352 -0.9171  1.7221
86627SOL    HW277874   4.494  13.963   1.264  0.4504  0.5321 -2.6748
86628SOL     OW77875   0.410   7.693  13.691 -0.3847 -0.0150  0.8743
86628SOL    HW177876   0.367   7.649  13.764  1.3919 -0.9468  1.4234
86628SOL    HW277877   0.411   7.628  13.621 -0.2357  0.1469  0.7261
86629SOL     OW77878   6.789   6.972   6.146  0.4677 -0.0327 -0.1280
86629SOL    HW177879   6.802   6.878   6.160  2.0386  0.1989  0.0909
86629SOL    HW277880   6.853   6.995   6.079 -0.7123  0.6773 -1.0536
86630SOL     OW77881   4.587   5.345  13.115 -0.3429  0.1477 -0.3490
86630SOL    HW177882   4.569   5.438  13.102  0.6923  0.3743 -0.2558
86630SOL    HW277883   4.617   5.314  13.030 -0.2990 -0.0057 -0.2777
86631SOL     OW77884  13.234  10.634   4.016  0.3535 -0.1769  0.1882
86631SOL    HW177885  13.162  10.691   4.043 -0.1148 -0.8140  0.3274
86631SOL    HW277886  13.200  10.587   3.940  0.7616 -0.2024  0.0207
86632SOL     OW77887  13.472   9.209   4.276  0.2886  0.1813  0.0369
86632SOL    HW177888  13.534   9.148   4.236  0.2401 -1.3378  2.1004
86632SOL    HW277889  13.461   9.279   4.211  1.7726 -1.0649 -1.6504
86633SOL     OW77890   6.077   5.865   0.570  0.1760  0.9786  0.2115
86633SOL    HW177891   6.171   5.849   0.576  0.2394  1.1366 -0.3025
86633SOL    HW277892   6.057   5.854   0.477 -0.5295 -0.2521  0.4864
86634SOL     OW77893  11.517   7.326   0.911 -0.5743 -0.1932  0.8666
86634SOL    HW177894  11.602   7.306   0.951 -0.1817 -1.5570 -0.5504
86634SOL    HW277895  11.458   7.258   0.945 -0.3434 -1.0941 -0.4794
86635SOL     OW77896  13.063  12.666  13.808 -0.1133  0.0940 -0.0796
86635SOL    HW177897  13.128  12.624  13.864  2.0771  1.4830 -1.4614
86635SOL    HW277898  13.076  12.760  13.821 -1.0275  0.4178 -1.3051
86636SOL     OW77899   7.260  13.916  11.033 -0.3902 -0.0495  0.2850
86636SOL    HW177900   7.349  13.949  11.039  0.3192 -1.5834 -1.0545
86636SOL    HW277901   7.227  13.949  10.949 -0.5350 -0.7341  0.0688
86637SOL     OW77902   4.566   8.666   8.217  0.2658  0.3024 -0.1764
86637SOL    HW177903   4.506   8.620   8.275  1.1606 -1.7399 -0.7803
86637SOL    HW277904   4.513   8.734   8.176 -0.6245  1.1420  2.2201
86638SOL     OW77905   4.467   5.509  11.726 -0.1172  0.1533 -0.1448
86638SOL    HW177906   4.463   5.465  11.641 -1.7223 -0.9858  0.4516
86638SOL    HW277907   4.556   5.541  11.732  0.4564 -0.9994 -1.6571
86639SOL     OW77908   3.074   9.510   1.132  0.4004 -0.2206  0.1086
86639SOL    HW177909   3.005   9.569   1.162 -2.5911 -3.6607  0.6628
86639SOL    HW277910   3.054   9.495   1.039  2.4994  1.1942 -0.6606
86640SOL     OW77911   7.457   3.328   9.108 -0.0323 -0.0679  0.3521
86640SOL    HW177912   7.397   3.270   9.156  0.0069  0.2900  0.8357
86640SOL    HW277913   7.523   3.268   9.073  1.8431 -0.0662  3.5038
86641SOL     OW77914   8.281   0.219   5.222 -0.3837  0.7170  0.1669
86641SOL    HW177915   8.343   0.243   5.292 -0.1195  1.5019 -0.3221
86641SOL    HW277916   8.230   0.148   5.259  0.6951  0.1652  0.6608
86642SOL     OW77917   0.253   8.822   8.211  0.4318 -0.1865  0.0021
86642SOL    HW177918   0.220   8.735   8.233 -0.1704 -0.0258 -0.2463
86642SOL    HW277919   0.310   8.845   8.284  1.8651 -1.4465 -0.6650
86643SOL     OW77920   5.064   8.631  13.892 -0.2090  0.1295 -0.0626
86643SOL    HW177921   5.061   8.703  13.956 -0.8800 -0.3367  0.4341
86643SOL    HW277922   4.996   8.570  13.921  0.3318 -0.6933 -0.5009
86644SOL     OW77923   2.920   5.460  13.627  0.3714  0.1782  0.0570
86644SOL    HW177924   2.891   5.546  13.596 -2.0394  0.0922  1.7843
86644SOL    HW277925   2.906   5.402  13.552 -0.7826  0.7921 -0.2326
86645SOL     OW77926   8.977   9.347   5.382 -0.7827 -0.3910  0.4301
86645SOL    HW177927   8.996   9.440   5.387  0.0612 -0.4056 -1.4562
86645SOL    HW277928   9.058   9.308   5.349 -0.3141 -2.1500  3.3024
86646SOL     OW77929  13.145   1.571   0.361  0.5021  0.3938 -0.3993
86646SOL    HW177930  13.184   1.652   0.394  0.6242 -0.0650  0.6095
86646SOL    HW277931  13.051   1.582   0.373  0.4945  0.5018 -0.5482
86647SOL     OW77932   8.251  12.134  10.992 -0.4422  0.1878 -0.3334
86647SOL    HW177933   8.318  12.075  11.027 -1.2505 -0.5635 -0.0041
86647SOL    HW277934   8.239  12.200  11.060  0.0730  0.4258 -0.4659
86648SOL     OW77935   7.638  11.703  11.409  0.3007  0.3596  0.0796
86648SOL    HW177936   7.697  11.710  11.484  0.8639 -0.5896 -0.2697
86648SOL    HW277937   7.554  11.738  11.442  0.8385  1.0147  0.7973
86649SOL     OW77938   6.574   1.467  10.429 -0.8170  0.4190 -0.1569
86649SOL    HW177939   6.635   1.498  10.362 -0.0970 -0.0192  0.2764
86649SOL    HW277940   6.534   1.389  10.392 -1.6714  1.1054 -0.7304
86650SOL     OW77941   3.087   2.111  13.302 -0.3733  0.3291  0.4846
86650SOL    HW177942   2.996   2.139  13.303 -1.0642 -1.6181 -1.2802
86650SOL    HW277943   3.116   2.126  13.212  0.5019 -0.6806  0.5780
86651SOL     OW77944   7.294   6.836   7.544  0.2361 -0.7586 -0.5983
86651SOL    HW177945   7.355   6.866   7.477  1.1583 -1.0639  0.0778
86651SOL    HW277946   7.208   6.858   7.510  0.8000  1.5598 -0.6732
86652SOL     OW77947  12.487  11.089   7.784  0.5698  0.0096  0.0028
86652SOL    HW177948  12.509  11.043   7.866 -0.9508 -2.4953 -0.8943
86652SOL    HW277949  12.534  11.040   7.716 -0.1609  0.5164 -0.8874
86653SOL     OW77950   1.141  11.753  11.013 -0.2634 -0.9690 -0.6841
86653SOL    HW177951   1.054  11.763  11.052 -0.0341 -1.6523  0.0503
86653SOL    HW277952   1.124  11.733  10.921 -0.8015  1.3954 -1.1578
86654SOL     OW77953   0.261   7.410  12.138  0.2562  0.0560  0.2513
86654SOL    HW177954   0.349   7.435  12.168 -0.2323  0.0548  1.8025
86654SOL    HW277955   0.246   7.324  12.178 -0.5645  0.1905  0.2456
86655SOL     OW77956  10.782   5.618   1.094 -0.1693  0.8670  0.2775
86655SOL    HW177957  10.868   5.636   1.057  0.8868 -2.0684  1.0616
86655SOL    HW277958  10.735   5.573   1.023 -0.3276  0.6822  0.4986
86656SOL     OW77959  12.892   1.700   3.084  0.4093  0.0536 -0.0803
86656SOL    HW177960  12.920   1.627   3.139 -1.1357 -1.4425 -1.1503
86656SOL    HW277961  12.801   1.717   3.111 -0.1851 -0.3158 -1.6870
86657SOL     OW77962   1.270  10.298   6.396  0.1334  0.5727  0.2191
86657SOL    HW177963   1.260  10.315   6.490  2.3475  0.1985  0.5567
86657SOL    HW277964   1.329  10.224   6.391  0.0738  0.6086 -1.4951
86658SOL     OW77965   3.018   5.064  10.735  0.6259 -0.6247  0.6627
86658SOL    HW177966   3.062   4.986  10.702  0.1909 -1.5346  2.1460
86658SOL    HW277967   3.067   5.089  10.813 -1.4399 -1.7039  2.4011
86659SOL     OW77968  10.789   6.865   8.475 -0.5124 -0.2089  0.2850
86659SOL    HW177969  10.884   6.853   8.465 -0.4557  0.5098 -0.1242
86659SOL    HW277970  10.753   6.839   8.390 -0.4119  2.0762 -0.5171
86660SOL     OW77971  12.548   8.703   1.334  0.4859 -0.5553  0.5271
86660SOL    HW177972  12.501   8.674   1.412  1.9709  0.7634  1.9962
86660SOL    HW277973  12.557   8.798   1.345  1.5630 -0.4636 -0.7724
86661SOL     OW77974  13.323  10.390  10.201  0.3818 -0.2064  0.1086
86661SOL    HW177975  13.281  10.309  10.230  0.0455  0.8911  3.0795
86661SOL    HW277976  13.412  10.363  10.178 -0.2104 -1.6496 -0.6513
86662SOL     OW77977   5.887   1.457   9.664 -0.0599 -0.1664  0.3229
86662SOL    HW177978   5.878   1.392   9.733 -2.4310 -0.2054  0.0832
86662SOL    HW277979   5.928   1.533   9.706 -0.9117 -0.4029  1.6340
86663SOL     OW77980   4.824   9.254   2.446  0.3534  0.8673 -0.1132
86663SOL    HW177981   4.850   9.199   2.519  1.3442 -0.8507 -1.6746
86663SOL    HW277982   4.734   9.228   2.427  0.4638  0.5337 -0.1846
86664SOL     OW77983   9.755   9.498   3.558  0.1573 -0.5707 -0.3757
86664SOL    HW177984   9.849   9.488   3.570 -0.0180 -3.2914 -0.6497
86664SOL    HW277985   9.739   9.592   3.568  2.7812 -0.1278  0.3265
86665SOL     OW77986   1.104   6.131   9.193  0.1187  0.1681 -0.6765
86665SOL    HW177987   1.030   6.192   9.192 -0.2066 -0.1572  0.9573
86665SOL    HW277988   1.160   6.160   9.121 -0.6493  1.6130 -0.7277
86666SOL     OW77989  11.545   1.426  12.470 -0.0503  0.4298  0.2831
86666SOL    HW177990  11.599   1.371  12.414 -2.4739 -0.7124 -1.1281
86666SOL    HW277991  11.509   1.366  12.535 -0.7117  0.8445  0.3125
86667SOL     OW77992  12.923   0.828   7.549 -0.1320  0.2072 -0.0710
86667SOL    HW177993  12.881   0.745   7.525 -1.1997  0.8733 -0.5832
86667SOL    HW277994  12.987   0.844   7.480 -1.2551  0.7290 -1.0405
86668SOL     OW77995   4.357   0.371  12.231  0.1404  0.1736  0.1997
86668SOL    HW177996   4.373   0.453  12.279 -1.4827  0.3761  0.4529
86668SOL    HW277997   4.262   0.363  12.229  0.2623 -1.4091 -0.3696
86669SOL     OW77998   7.633   3.594  13.040  0.8231 -0.2098  0.1966
86669SOL    HW177999   7.600   3.587  13.129  0.1450  0.9828  0.0559
86669SOL    HW278000   7.568   3.648  12.995  1.4707 -0.2899 -0.8644
86670SOL     OW78001  13.208   1.265  10.949  0.5118 -0.2742 -0.3931
86670SOL    HW178002  13.114   1.263  10.964  0.5173  2.1360  0.3608
86670SOL    HW278003  13.237   1.176  10.968 -1.7594 -1.4950 -2.0632
86671SOL     OW78004   4.345   2.761   4.540  0.5126 -1.0774 -0.5768
86671SOL    HW178005   4.363   2.669   4.560  1.0162 -0.8786 -0.0760
86671SOL    HW278006   4.419   2.809   4.579 -0.3644 -0.3501  0.2618
86672SOL     OW78007  12.500   5.454  13.237 -0.1752  0.3592 -0.3058
86672SOL    HW178008  12.584   5.429  13.198  0.3843 -0.2441  1.2318
86672SOL    HW278009  12.521   5.525  13.296 -0.5795 -0.3740  0.7530
86673SOL     OW78010   2.133   2.352  12.474  0.4742  0.4952  0.5671
86673SOL    HW178011   2.054   2.306  12.446  1.7986 -2.3366  1.1015
86673SOL    HW278012   2.112   2.387  12.560 -0.2019 -0.3248  0.7459
86674SOL     OW78013  14.126  13.357  13.332 -0.5485  0.2947 -0.4963
86674SOL    HW178014  14.092  13.404  13.408 -2.1615 -2.4031  0.5615
86674SOL    HW278015  14.173  13.282  13.368 -0.7607 -0.6863 -2.1492
86675SOL     OW78016   9.533   8.345  10.501  0.3985 -0.6269 -0.0407
86675SOL    HW178017   9.447   8.333  10.539  1.3275 -0.8496  2.1567
86675SOL    HW278018   9.587   8.278  10.543  1.9124  0.3286 -0.3811
86676SOL     OW78019  12.196   7.608   4.541 -0.0154  0.0734 -0.1093
86676SOL    HW178020  12.281   7.648   4.527  0.6372 -0.9630  0.7610
86676SOL    HW278021  12.143   7.679   4.579  0.6043  0.5870 -0.1804
86677SOL     OW78022  11.801   6.762   3.551  1.3347  0.1332  0.3734
86677SOL    HW178023  11.734   6.711   3.596 -0.5201  2.8479  0.9492
86677SOL    HW278024  11.779   6.755   3.458  1.8676 -1.0507  0.3146
86678SOL     OW78025   8.510   3.181   7.532  0.4179 -0.3409 -0.0020
86678SOL    HW178026   8.549   3.179   7.619  1.0205 -0.2787 -0.2690
86678SOL    HW278027   8.582   3.203   7.473 -0.2813  1.1814 -0.3495
86679SOL     OW78028   6.091   9.874   5.973 -0.0953 -0.3778  0.1625
86679SOL    HW178029   6.146   9.898   5.898  0.1832  0.1133  0.5164
86679SOL    HW278030   6.150   9.879   6.049 -0.2642 -1.2848  0.3708
86680SOL     OW78031   1.299   1.350  10.523 -0.1327 -0.0750  0.5869
86680SOL    HW178032   1.392   1.344  10.545 -0.0785  0.1074  0.4097
86680SOL    HW278033   1.295   1.412  10.451 -0.3316 -0.5185  0.2089
86681SOL     OW78034  11.673  10.531   9.964  0.6700  0.4875 -0.4647
86681SOL    HW178035  11.640  10.618   9.986 -0.0741  0.3616 -1.0512
86681SOL    HW278036  11.696  10.537   9.871  0.0444 -0.1148 -0.6608
86682SOL     OW78037   4.336   9.823   9.608 -0.2308  0.4350 -0.1925
86682SOL    HW178038   4.322   9.819   9.514 -1.7778  0.0709  0.0129
86682SOL    HW278039   4.251   9.798   9.646  0.1797  1.1441  1.2922
86683SOL     OW78040   0.972  11.907   0.252 -0.1202  0.5794  0.4486
86683SOL    HW178041   1.048  11.904   0.194 -0.3385  1.4241  0.0983
86683SOL    HW278042   0.930  11.821   0.241  0.8725  0.0337  0.7928
86684SOL     OW78043   3.127   9.651   9.365  0.6234 -0.5302 -0.2322
86684SOL    HW178044   3.089   9.659   9.452  0.5831  2.7404 -0.4383
86684SOL    HW278045   3.062   9.600   9.315 -1.1180  0.6403  0.7310
86685SOL     OW78046  13.246  12.613   6.729 -0.0824  0.0751 -0.0888
86685SOL    HW178047  13.203  12.546   6.782  0.8443  0.4334  1.1457
86685SOL    HW278048  13.195  12.692   6.745 -1.1224 -0.2644 -1.4768
86686SOL     OW78049   6.632   1.269   4.846  0.3483 -0.5996  0.7364
86686SOL    HW178050   6.584   1.316   4.914  0.6629 -0.8872  1.1667
86686SOL    HW278051   6.643   1.181   4.881 -0.4711 -1.0746 -0.1824
86687SOL     OW78052   1.259   7.021   1.166 -0.1316 -0.0264  0.2777
86687SOL    HW178053   1.207   7.030   1.086 -0.6099 -1.7195  0.3668
86687SOL    HW278054   1.312   6.943   1.151  1.1994  0.7321  0.8666
86688SOL     OW78055   2.533  10.769   6.503  0.1678 -0.1600 -0.3447
86688SOL    HW178056   2.438  10.755   6.510  0.4135 -1.7038  0.4139
86688SOL    HW278057   2.542  10.854   6.459 -1.5590  0.2666  0.0594
86689SOL     OW78058   0.911  12.581  11.978 -0.2379  0.1423  0.2043
86689SOL    HW178059   0.970  12.602  12.051 -1.3322  0.2456  1.0932
86689SOL    HW278060   0.903  12.664  11.930  1.0765 -0.1113 -0.5071
86690SOL     OW78061  12.700   5.655   7.823 -1.1417 -0.0043  0.0028
86690SOL    HW178062  12.659   5.738   7.846 -1.5131 -0.3277  0.5302
86690SOL    HW278063  12.747   5.673   7.742  3.3034  2.2088  2.6656
86691SOL     OW78064   0.135   2.343  12.317 -0.0999 -0.0447  0.3525
86691SOL    HW178065   0.112   2.253  12.340  1.8463 -0.4098  1.0634
86691SOL    HW278066   0.083   2.397  12.377 -0.5368 -0.7301  0.6038
86692SOL     OW78067   3.579   9.553   8.818 -0.1665 -0.2315  0.4802
86692SOL    HW178068   3.668   9.581   8.797  0.3250 -1.3961  0.9294
86692SOL    HW278069   3.553   9.609   8.892  1.1307 -1.4656  1.9502
86693SOL     OW78070  12.335  11.857   1.847 -0.7778  0.2313  0.2927
86693SOL    HW178071  12.326  11.762   1.847  0.6703  0.0643 -0.1848
86693SOL    HW278072  12.372  11.877   1.933 -0.0250  0.2308 -0.0248
86694SOL     OW78073   9.447   8.964  12.016 -0.2724 -0.1664  0.5283
86694SOL    HW178074   9.399   8.968  12.099  0.8307  0.4891  1.1601
86694SOL    HW278075   9.389   9.007  11.953 -0.6908  0.2577  1.1885
86695SOL     OW78076  11.371   0.688  13.272 -0.0682 -0.0250  1.0254
86695SOL    HW178077  11.350   0.652  13.186  0.1123  0.9070  0.5720
86695SOL    HW278078  11.407   0.775  13.253  1.8267 -0.5560  1.9118
86696SOL     OW78079  10.169  12.695  13.581  0.2333 -0.2386  0.2975
86696SOL    HW178080  10.088  12.670  13.536  1.7282 -1.3662 -1.9557
86696SOL    HW278081  10.168  12.643  13.662 -0.6836 -1.2470 -0.3299
86697SOL     OW78082   5.419  13.856   7.164 -0.4925 -0.5729 -0.6610
86697SOL    HW178083   5.500  13.847   7.213 -0.3189  1.3942 -0.5105
86697SOL    HW278084   5.355  13.804   7.213  0.1878 -0.4163  0.4154
86698SOL     OW78085   0.539   1.033   8.979 -0.1772 -0.6033  0.2101
86698SOL    HW178086   0.554   1.114   8.931 -1.9173 -0.4187 -0.0556
86698SOL    HW278087   0.558   0.964   8.916  0.0444 -0.3907  0.0420
86699SOL     OW78088   6.154   3.107   3.667 -0.7288  0.7828 -0.6939
86699SOL    HW178089   6.201   3.125   3.586  0.1057  2.0063  0.0143
86699SOL    HW278090   6.063   3.093   3.641 -0.4006  0.7866 -1.8680
86700SOL     OW78091   8.733   0.458  11.507  0.3844 -0.1739 -0.1643
86700SOL    HW178092   8.684   0.539  11.520  0.3168 -0.2178 -0.1396
86700SOL    HW278093   8.821   0.486  11.483 -0.7342  0.0128 -4.9942
86701SOL     OW78094  11.967  10.555   0.330 -0.6726  0.2000  0.0733
86701SOL    HW178095  12.048  10.593   0.296 -0.5466  0.7829  0.9852
86701SOL    HW278096  11.980  10.551   0.425 -1.4243 -0.3907  0.1630
86702SOL     OW78097  10.738   0.591   8.578 -0.2981  0.2973 -0.1283
86702SOL    HW178098  10.742   0.583   8.673 -3.1036 -0.1302  0.0195
86702SOL    HW278099  10.653   0.555   8.554  0.0469  1.0272 -2.7425
86703SOL     OW78100   8.239   3.957  11.111 -0.1568  0.5707 -0.0345
86703SOL    HW178101   8.303   3.950  11.040  0.2588  0.9545  0.2941
86703SOL    HW278102   8.213   3.866  11.129  1.5036  0.2245  0.8940
86704SOL     OW78103  11.331   9.534   5.423  0.0822 -0.3986  0.7637
86704SOL    HW178104  11.262   9.580   5.375 -0.6167  0.4043  2.4414
86704SOL    HW278105  11.336   9.448   5.381 -0.2400  0.3530 -0.9358
86705SOL     OW78106   2.645  14.027   3.525  0.0213 -0.1782 -0.1410
86705SOL    HW178107   2.730  13.985   3.540  0.4848  0.8421  0.2295
86705SOL    HW278108   2.665  14.121   3.520 -1.0536  0.0602 -0.3023
86706SOL     OW78109   2.184   2.323   3.189  0.2415  0.1457 -0.1276
86706SOL    HW178110   2.197   2.304   3.097  2.1766 -0.0730  0.1509
86706SOL    HW278111   2.243   2.396   3.207  1.1847 -0.8996  1.2729
86707SOL     OW78112  14.023  10.892  11.724 -0.2144 -0.1118  0.0752
86707SOL    HW178113  14.005  10.841  11.645 -2.2999  1.2950 -0.4352
86707SOL    HW278114  14.095  10.950  11.698  0.3719 -0.9286 -0.1704
86708SOL     OW78115   3.970   3.931  12.338  0.0579  0.0464  0.5508
86708SOL    HW178116   3.974   3.883  12.255  1.5909  1.1093 -0.0280
86708SOL    HW278117   3.936   4.017  12.314 -1.5647 -0.3215  1.4034
86709SOL     OW78118   8.823  11.840  10.507 -0.5380  0.1212  0.4933
86709SOL    HW178119   8.817  11.924  10.463  0.1262 -0.5955 -1.0255
86709SOL    HW278120   8.733  11.817  10.529 -0.8086  0.8213  0.1194
86710SOL     OW78121  11.175   7.789  12.627  0.1263  0.4732  0.1981
86710SOL    HW178122  11.130   7.717  12.673 -2.8350  1.1980 -1.3023
86710SOL    HW278123  11.112   7.862  12.630  1.5338  1.8294 -1.4224
86711SOL     OW78124   2.004  12.423  11.874  0.2572  0.1956 -0.1304
86711SOL    HW178125   2.095  12.395  11.863 -0.3244 -1.0902 -2.4582
86711SOL    HW278126   1.985  12.405  11.966  2.1713 -0.0303  0.2806
86712SOL     OW78127  13.113   8.340   2.806 -0.2344 -0.2954  0.3350
86712SOL    HW178128  13.149   8.400   2.742 -0.7657  1.0704  1.2809
86712SOL    HW278129  13.101   8.392   2.885  1.7457 -2.2528  2.0628
86713SOL     OW78130   3.442   1.009  13.327  0.2563 -0.5566  0.3040
86713SOL    HW178131   3.426   0.988  13.235  1.3212 -0.5384  0.1061
86713SOL    HW278132   3.529   1.049  13.328 -0.5429  1.2757  1.0522
86714SOL     OW78133  13.467   5.460  11.905  0.0693 -0.5010 -0.1007
86714SOL    HW178134  13.562   5.462  11.891  0.1951 -1.3290  0.5912
86714SOL    HW278135  13.444   5.368  11.899 -0.6354 -0.3400  0.1480
86715SOL     OW78136  13.776   0.812   1.773 -0.7516 -0.2663 -0.0428
86715SOL    HW178137  13.854   0.761   1.752 -1.1604 -0.7356 -0.4296
86715SOL    HW278138  13.703   0.760   1.741 -1.1146  1.1358 -1.6485
86716SOL     OW78139  11.836  10.880   7.054 -0.0326 -0.4580  0.0182
86716SOL    HW178140  11.755  10.828   7.046 -0.9560  0.8926  0.2901
86716SOL    HW278141  11.809  10.958   7.102  1.4012  0.1278 -0.1073
86717SOL     OW78142   2.848   6.773   2.456  0.1251 -0.2090  0.0357
86717SOL    HW178143   2.895   6.697   2.422  0.9817 -0.1966  1.1356
86717SOL    HW278144   2.812   6.816   2.378  1.3838 -0.5827 -0.7832
86718SOL     OW78145  10.705   4.253  13.419 -0.1481 -0.0087 -0.1974
86718SOL    HW178146  10.663   4.237  13.335  0.1434  0.4873 -0.4413
86718SOL    HW278147  10.672   4.339  13.446  1.0213  0.5795 -0.5937
86719SOL     OW78148   4.006   9.366  14.097  0.6897 -0.3907  0.2846
86719SOL    HW178149   4.063   9.322  14.160  0.9631  0.5456  0.7114
86719SOL    HW278150   3.918   9.355  14.133  0.7082 -1.0096  0.1345
86720SOL     OW78151   9.645   3.203  10.851  0.1041  0.3151  0.2652
86720SOL    HW178152   9.636   3.204  10.756  0.6272  1.6543  0.2069
86720SOL    HW278153   9.574   3.260  10.882  1.1276  1.4843  0.5312
86721SOL     OW78154   3.107   6.651   7.631 -0.2918  0.1287  0.6275
86721SOL    HW178155   3.109   6.691   7.717 -0.1674 -0.6152  0.9835
86721SOL    HW278156   3.051   6.574   7.641  0.8380 -0.7478  0.4109
86722SOL     OW78157  10.690   4.337   8.543 -0.3848 -0.4064  0.1618
86722SOL    HW178158  10.747   4.318   8.469  0.2042 -0.8260  0.7210
86722SOL    HW278159  10.744   4.323   8.620 -1.0999 -0.3265  0.6904
86723SOL     OW78160   8.118   2.522  13.594  0.2428 -0.3334 -0.6187
86723SOL    HW178161   8.059   2.579  13.644  2.0853 -0.5536  1.9869
86723SOL    HW278162   8.170   2.582  13.541 -0.7843  0.0163 -1.2662
86724SOL     OW78163  14.097   4.504  10.466  0.6442 -0.0711  0.2190
86724SOL    HW178164  14.045   4.572  10.423  0.9606  2.5353  3.5625
86724SOL    HW278165  14.187   4.532  10.454  0.8662 -0.6352  0.5453
86725SOL     OW78166   1.517  11.161   2.059 -0.3204  0.0101 -0.0158
86725SOL    HW178167   1.570  11.218   2.004 -0.3963 -1.5594 -1.8299
86725SOL    HW278168   1.431  11.203   2.062 -0.0176  0.6537 -0.2226
86726SOL     OW78169  10.301   8.150   9.022  0.1362 -0.9407  0.0727
86726SOL    HW178170  10.253   8.072   9.048 -1.2871 -0.0947  0.0911
86726SOL    HW278171  10.323   8.194   9.104  2.4906 -2.1478  0.1732
86727SOL     OW78172   7.135   0.365  14.139  0.1450 -0.1686  0.0548
86727SOL    HW178173   7.159   0.377  14.231  0.0509  0.2067  0.0294
86727SOL    HW278174   7.056   0.417  14.127  1.2951  1.4986 -0.7518
86728SOL     OW78175   5.844   7.569   0.748 -0.0333  0.1041  0.1154
86728SOL    HW178176   5.899   7.504   0.793  0.1276  0.6137  0.6696
86728SOL    HW278177   5.901   7.607   0.682 -0.0411 -0.1158 -0.0196
86729SOL     OW78178   5.661  10.633   2.679 -0.2700  0.2545  0.4506
86729SOL    HW178179   5.613  10.715   2.678  1.3104  1.2384  1.1970
86729SOL    HW278180   5.753  10.659   2.680  0.2812 -1.5359  0.0895
86730SOL     OW78181   3.205   4.201   8.807  0.1715 -1.0801  0.1362
86730SOL    HW178182   3.230   4.269   8.744 -2.2254  0.4191  0.6761
86730SOL    HW278183   3.205   4.120   8.756  1.1957 -0.3836 -1.0214
86731SOL     OW78184  12.508  10.948   1.707  0.3000  0.2626  0.0924
86731SOL    HW178185  12.436  10.911   1.759 -0.7162 -0.4712 -1.7281
86731SOL    HW278186  12.531  10.878   1.645  1.4655  1.0894 -0.4422
86732SOL     OW78187   2.024   6.436   5.102 -0.3065  0.0639  0.5224
86732SOL    HW178188   2.056   6.463   5.016 -0.5505  0.7097  0.6316
86732SOL    HW278189   2.095   6.384   5.139  0.0627  0.3389  0.2019
86733SOL     OW78190   1.952   3.023  11.911  0.0536  0.0212  0.1235
86733SOL    HW178191   1.901   3.049  11.834 -0.2077  1.5187  0.7623
86733SOL    HW278192   1.893   2.966  11.960  0.2167 -0.9372 -0.7463
86734SOL     OW78193  10.353   8.731   0.889 -0.4900 -0.1583  0.1015
86734SOL    HW178194  10.293   8.764   0.821 -1.9507 -1.2992  0.7935
86734SOL    HW278195  10.370   8.641   0.864  0.4168 -0.0456  0.2897
86735SOL     OW78196   8.007  12.656   5.002 -0.6739 -0.0250  0.0809
86735SOL    HW178197   8.063  12.580   5.013 -0.8591 -0.1628  0.0814
86735SOL    HW278198   7.920  12.620   4.985 -0.5374  0.1807 -1.1164
86736SOL     OW78199   9.094   5.893   5.966 -0.2547 -0.6326 -0.1428
86736SOL    HW178200   9.008   5.925   5.992  0.1885 -0.2774  0.9626
86736SOL    HW278201   9.080   5.801   5.945 -1.0018 -0.4379 -0.5416
86737SOL     OW78202  12.704   8.214   8.267  0.0041 -0.4552 -0.0124
86737SOL    HW178203  12.660   8.139   8.228 -1.5215  0.3934 -0.0085
86737SOL    HW278204  12.774   8.236   8.206 -1.4420 -0.0246 -1.6241
86738SOL     OW78205   6.692   9.479   6.247  0.0629 -0.1661  0.3242
86738SOL    HW178206   6.639   9.442   6.176  0.9599  0.6316 -0.8023
86738SOL    HW278207   6.642   9.460   6.326 -1.1574 -0.7657 -0.5476
86739SOL     OW78208  13.897   1.679   5.873  0.2781 -0.2008  0.2094
86739SOL    HW178209  13.971   1.736   5.855  0.0848  0.1605  0.5259
86739SOL    HW278210  13.875   1.697   5.964  0.0070 -0.5445  0.2145
86740SOL     OW78211   6.381  11.346   0.475  0.0128  0.3036  0.3909
86740SOL    HW178212   6.432  11.291   0.535  0.1299 -0.1365 -0.1061
86740SOL    HW278213   6.297  11.358   0.519 -0.2633 -0.8432  0.2033
86741SOL     OW78214   3.670   7.501  13.658 -0.0150  0.2187  0.7165
86741SOL    HW178215   3.695   7.454  13.579 -0.7569  0.7405  0.1549
86741SOL    HW278216   3.697   7.444  13.730  1.0941 -0.0477  0.1124
86742SOL     OW78217  12.473   0.223  11.345 -0.2333  0.8824 -0.1931
86742SOL    HW178218  12.449   0.132  11.364  0.4869  0.3686 -1.5814
86742SOL    HW278219  12.569   0.220  11.337 -0.1981  1.7922 -0.1463
86743SOL     OW78220  13.622   6.816  11.324  0.3356 -0.1720 -0.6352
86743SOL    HW178221  13.672   6.743  11.288 -2.5030 -2.0067 -1.2260
86743SOL    HW278222  13.631   6.808  11.419  1.7013  0.0174 -0.7305
86744SOL     OW78223  13.887  12.889  14.057  0.2008 -0.0538 -0.0451
86744SOL    HW178224  13.842  12.920  14.136  1.6430 -0.6219  1.0579
86744SOL    HW278225  13.943  12.962  14.032 -0.4343  0.2138 -0.6943
86745SOL     OW78226   0.185   1.541   0.614 -0.1472  0.3549  0.2647
86745SOL    HW178227   0.250   1.591   0.565  0.8794 -1.1796 -0.0201
86745SOL    HW278228   0.234   1.504   0.688 -0.7816 -0.4922  0.2748
86746SOL     OW78229   1.274   2.539  14.020  0.6515  0.2127 -0.2652
86746SOL    HW178230   1.365   2.565  14.036  0.7169  1.3954 -2.1480
86746SOL    HW278231   1.224   2.620  14.031  0.2312  0.2251 -1.8909
86747SOL     OW78232   5.852   0.404   1.513 -0.1949 -0.2312 -0.2686
86747SOL    HW178233   5.805   0.487   1.519  0.1553 -0.1297  1.7452
86747SOL    HW278234   5.795   0.341   1.557  0.9551 -0.3527  1.1287
86748SOL     OW78235   3.350  12.588   7.964 -0.5270  0.3056 -0.2692
86748SOL    HW178236   3.365  12.539   7.883 -0.6739  2.3727 -1.6104
86748SOL    HW278237   3.379  12.677   7.944 -1.1585  1.0176  1.7664
86749SOL     OW78238   5.076  10.000   1.645  0.2403 -0.1775  0.5162
86749SOL    HW178239   4.999   9.943   1.650  0.8572 -0.9311  1.9169
86749SOL    HW278240   5.084  10.021   1.552 -0.6693 -1.4707  0.1172
86750SOL     OW78241   4.640  14.107  10.158 -0.2450  0.3787 -0.2343
86750SOL    HW178242   4.708  14.108  10.091 -0.8228 -0.5211 -0.8657
86750SOL    HW278243   4.583  14.033  10.133 -2.1088  1.8026 -0.4242
86751SOL     OW78244   1.927   8.651   2.705 -0.5291  0.4407 -0.0272
86751SOL    HW178245   1.967   8.688   2.626  0.3729 -1.9445 -0.7692
86751SOL    HW278246   1.877   8.576   2.673  0.4228 -0.9861  1.7447
86752SOL     OW78247   1.372  12.379  10.660 -0.1696  0.5184 -0.4132
86752SOL    HW178248   1.420  12.376  10.576  0.5071  1.5251 -0.0841
86752SOL    HW278249   1.411  12.308  10.712  0.0641  0.4908 -0.6198
86753SOL     OW78250   7.206   8.999  10.650 -0.2328 -0.2613 -0.3661
86753SOL    HW178251   7.113   9.007  10.631 -0.1515  1.6826 -0.1529
86753SOL    HW278252   7.244   9.082  10.620  0.4388  1.7545  4.9896
86754SOL     OW78253   8.866   7.284   4.665  0.0555  0.1500  0.1022
86754SOL    HW178254   8.862   7.260   4.572  1.2487 -0.8890  0.2889
86754SOL    HW278255   8.951   7.327   4.675 -0.4134  0.9929  0.5661
86755SOL     OW78256  12.491   7.903   9.098  0.3474 -0.2237  0.0949
86755SOL    HW178257  12.461   7.951   9.021 -0.9675  1.7330  1.7307
86755SOL    HW278258  12.586   7.913   9.097  0.2786  0.4854 -0.8207
86756SOL     OW78259   6.386   7.026   8.366 -0.2388  0.4241 -0.1813
86756SOL    HW178260   6.465   6.973   8.352 -0.1646  0.0458  1.4908
86756SOL    HW278261   6.314   6.964   8.360 -0.3285  0.5532 -0.4750
86757SOL     OW78262   5.192   9.348   5.029 -0.2585  0.0920  0.4180
86757SOL    HW178263   5.198   9.381   5.119 -1.0387 -0.4224  0.6659
86757SOL    HW278264   5.276   9.372   4.989 -0.2658  1.1556  0.9957
86758SOL     OW78265   1.459  13.378  10.506  0.2981 -0.6452  0.9371
86758SOL    HW178266   1.407  13.378  10.586  1.7440 -0.1564  1.9047
86758SOL    HW278267   1.475  13.285  10.488  0.2775 -0.7451  1.4262
86759SOL     OW78268   4.447  11.170   9.445 -0.8738  0.0379 -0.2090
86759SOL    HW178269   4.364  11.173   9.396 -0.0360  1.0968 -1.6484
86759SOL    HW278270   4.451  11.254   9.491  0.4081  1.0173 -1.9813
86760SOL     OW78271   6.301   1.179   5.150  0.8179 -0.8577  0.2798
86760SOL    HW178272   6.207   1.200   5.144  0.3977 -2.8944 -1.4072
86760SOL    HW278273   6.314   1.157   5.242 -0.3414 -0.4118  0.5737
86761SOL     OW78274   6.305   5.510  12.728 -0.3664 -0.5114 -0.0582
86761SOL    HW178275   6.259   5.427  12.714 -1.1788 -0.1391  0.3822
86761SOL    HW278276   6.305   5.521  12.823 -0.3449  0.0498 -0.1249
86762SOL     OW78277  10.009   4.314   3.621  0.1963  0.2222  0.3725
86762SOL    HW178278  10.097   4.277   3.625 -0.8367 -2.3074  1.1492
86762SOL    HW278279   9.977   4.292   3.533  0.0184  0.3505  0.4039
86763SOL     OW78280  14.075  13.677   3.229 -0.2391 -0.1214  0.4884
86763SOL    HW178281  14.147  13.716   3.180  0.4053  0.4387  1.8497
86763SOL    HW278282  14.109  13.664   3.317 -0.5701 -3.2963  0.2833
86764SOL     OW78283   3.686  11.417  13.472 -0.2808 -0.2954 -0.1905
86764SOL    HW178284   3.640  11.485  13.424  0.4814 -0.6257 -1.4222
86764SOL    HW278285   3.645  11.335  13.443 -0.4033 -0.4423  0.3883
86765SOL     OW78286  13.541  11.176   4.940  0.0052 -1.0317 -0.3086
86765SOL    HW178287  13.559  11.142   4.852 -0.9716 -1.9790 -0.1688
86765SOL    HW278288  13.447  11.195   4.940  0.3015  0.5158  0.0316
86766SOL     OW78289  14.054   2.825  10.018 -0.2303 -0.0100  0.4112
86766SOL    HW178290  14.077   2.914   9.990  0.5722  0.0779  1.2893
86766SOL    HW278291  13.958   2.827  10.025 -0.1400  1.4053  2.2589
86767SOL     OW78292   3.942  10.070   1.440 -0.8102 -0.1609 -0.2519
86767SOL    HW178293   3.993  10.042   1.517 -1.9849 -0.3712  0.4765
86767SOL    HW278294   3.904   9.989   1.406 -0.3807 -0.0549 -1.0113
86768SOL     OW78295   8.498   2.732   6.017 -0.2359 -0.3361  0.2034
86768SOL    HW178296   8.535   2.755   6.103 -1.4069  2.0626  0.1477
86768SOL    HW278297   8.405   2.715   6.035 -0.6537  0.9024 -0.6403
86769SOL     OW78298   5.084   8.623  13.180 -0.3173 -0.0486  0.5352
86769SOL    HW178299   5.178   8.625  13.200 -0.2072  2.9054  0.0926
86769SOL    HW278300   5.081   8.613  13.084 -0.3489  1.7103  0.3242
86770SOL     OW78301   7.250  10.633   6.289  0.1268  0.3846 -0.4116
86770SOL    HW178302   7.188  10.677   6.230 -0.2610 -1.1347 -1.1885
86770SOL    HW278303   7.313  10.701   6.313 -1.1546  1.6590 -0.5639
86771SOL     OW78304   3.419   7.286   5.499 -1.2214 -0.0629  0.0931
86771SOL    HW178305   3.431   7.291   5.593  0.7922 -0.2015 -0.1225
86771SOL    HW278306   3.468   7.359   5.463 -0.0304 -1.3180 -0.9623
86772SOL     OW78307   0.045   8.732  10.333 -0.4298  0.4918  0.1250
86772SOL    HW178308   0.080   8.821  10.334 -1.1594  0.7825  0.1692
86772SOL    HW278309   0.076   8.695  10.250 -0.2587  0.8387  0.0306
86773SOL     OW78310  13.037   3.342   6.030  0.0806  0.5063 -0.0640
86773SOL    HW178311  13.105   3.377   5.972  1.0918 -1.8809 -0.4671
86773SOL    HW278312  12.975   3.300   5.970  0.9415 -1.6669  0.4884
86774SOL     OW78313   7.302   6.225   8.260  0.0284 -0.2278 -0.3895
86774SOL    HW178314   7.277   6.281   8.334 -1.5725  0.3504 -1.3141
86774SOL    HW278315   7.368   6.276   8.213 -0.2620  0.2001 -0.3402
86775SOL     OW78316   9.281   5.066   5.773  0.2789 -0.0526  0.5206
86775SOL    HW178317   9.282   5.108   5.858 -0.4769  0.3922  0.3267
86775SOL    HW278318   9.200   5.015   5.773  0.8903 -1.0388  0.5274
86776SOL     OW78319  13.691   4.151   9.600 -0.7353  0.4351  0.1635
86776SOL    HW178320  13.754   4.158   9.672 -0.8622 -0.3689  0.3616
86776SOL    HW278321  13.696   4.235   9.556  0.9002  0.2039 -0.1580
86777SOL     OW78322   6.360   5.576   2.622 -0.4445 -0.2597 -0.0436
86777SOL    HW178323   6.305   5.553   2.697 -0.9826 -2.2165 -0.9647
86777SOL    HW278324   6.423   5.504   2.615  2.1260  1.7558  0.7815
86778SOL     OW78325   0.872  12.381   2.436 -0.7267  0.2824  0.0931
86778SOL    HW178326   0.921  12.300   2.420 -1.6500 -0.2100 -0.2772
86778SOL    HW278327   0.889  12.400   2.529 -0.5683 -0.3774  0.2065
86779SOL     OW78328   7.711   4.018  13.857  0.3969  0.5773 -0.1836
86779SOL    HW178329   7.760   3.983  13.783  0.5798  0.5364 -0.0439
86779SOL    HW278330   7.659   4.089  13.820  2.0773  1.9716  0.0256
86780SOL     OW78331   4.760   3.833   7.072  0.2157  0.1466  0.0335
86780SOL    HW178332   4.682   3.842   7.016  0.0224  0.3583  0.3352
86780SOL    HW278333   4.725   3.810   7.158  0.4203  1.1694  0.4087
86781SOL     OW78334   4.268   4.842   5.201  0.4342 -0.7891  0.8780
86781SOL    HW178335   4.185   4.873   5.238  2.1798  0.9627  3.7624
86781SOL    HW278336   4.278   4.892   5.120 -0.2141  0.8488  1.7546
86782SOL     OW78337   7.025  11.625   1.672  0.2223  0.0564 -0.0360
86782SOL    HW178338   6.935  11.616   1.640  0.4954 -0.6092 -0.6612
86782SOL    HW278339   7.029  11.566   1.747  0.2433 -0.2131 -0.2469
86783SOL     OW78340  10.195   8.033   9.690 -0.2727  0.1383  0.1582
86783SOL    HW178341  10.253   7.996   9.756  1.0421  0.2341 -0.9085
86783SOL    HW278342  10.171   7.958   9.634  2.2844  0.7286 -1.9229
86784SOL     OW78343   9.578   2.404   0.198  0.4340 -0.3661 -0.2602
86784SOL    HW178344   9.646   2.450   0.248  0.8690 -1.4018  0.1427
86784SOL    HW278345   9.585   2.439   0.110  0.3928  0.7157  0.1587
86785SOL     OW78346  12.840   9.757   3.256  0.1793  0.7971 -0.1499
86785SOL    HW178347  12.771   9.696   3.231 -0.6701  1.9322 -0.6285
86785SOL    HW278348  12.794   9.838   3.278  1.3408  1.4880 -0.2004
86786SOL     OW78349   8.261   8.958   9.838  0.0498  0.3389 -0.6165
86786SOL    HW178350   8.345   8.921   9.814 -0.0520  0.6107 -1.4153
86786SOL    HW278351   8.259   8.954   9.934  0.6985 -0.2442 -0.6265
86787SOL     OW78352   4.517   4.822   6.604  0.0434  0.2143 -0.2649
86787SOL    HW178353   4.611   4.825   6.620 -0.1661  0.3333  1.0205
86787SOL    HW278354   4.496   4.908   6.567  0.1017  1.0726  1.5646
86788SOL     OW78355   2.737  11.612   8.645 -0.0906  0.1087 -0.2722
86788SOL    HW178356   2.747  11.578   8.556 -1.0456 -0.3802 -0.2026
86788SOL    HW278357   2.714  11.704   8.633  0.1308  0.1362 -0.5161
86789SOL     OW78358   7.754  13.429  10.870  0.0161  0.6811  0.1256
86789SOL    HW178359   7.695  13.500  10.893 -0.8281  0.1372 -0.3218
86789SOL    HW278360   7.732  13.407  10.780 -0.4861 -0.8520  0.5799
86790SOL     OW78361   8.934   0.502  11.004  0.4844  0.2331 -0.0163
86790SOL    HW178362   8.978   0.420  10.981  0.9291  0.0192  1.5155
86790SOL    HW278363   8.928   0.550  10.921 -2.2136 -2.4069 -1.5779
86791SOL     OW78364   9.596   1.813  13.524 -0.7486 -0.3774  0.2230
86791SOL    HW178365   9.615   1.903  13.498 -0.1946 -0.3392  0.7393
86791SOL    HW278366   9.673   1.764  13.496 -1.2743 -0.7902 -0.5291
86792SOL     OW78367   2.485   1.144  13.193  0.0948 -0.2954 -0.0306
86792SOL    HW178368   2.426   1.197  13.139  1.4136  1.9201  0.5729
86792SOL    HW278369   2.442   1.139  13.278 -0.1428 -0.3935 -0.1561
86793SOL     OW78370   0.442   7.302   9.638 -0.6846  0.6581  0.4047
86793SOL    HW178371   0.456   7.321   9.730  0.1770  1.5037  0.1154
86793SOL    HW278372   0.369   7.359   9.612 -0.0535  1.4178  0.2566
86794SOL     OW78373  13.353   9.019   7.673 -0.5216  0.3641  0.0031
86794SOL    HW178374  13.432   8.969   7.695 -1.5906 -2.5040 -2.0192
86794SOL    HW278375  13.360   9.032   7.578 -1.1220  2.7328  0.2266
86795SOL     OW78376   3.674  10.612   4.908 -0.1073 -0.3624  0.0635
86795SOL    HW178377   3.669  10.559   4.828 -0.7595  0.3428 -0.3723
86795SOL    HW278378   3.626  10.561   4.973  1.8592 -1.7749  0.5187
86796SOL     OW78379  10.858  12.597   9.099 -0.3979  0.2392 -0.2563
86796SOL    HW178380  10.818  12.511   9.090 -0.5375  0.4752 -2.2837
86796SOL    HW278381  10.856  12.634   9.011  1.2800  1.6089  0.2278
86797SOL     OW78382   5.366  11.723   3.715  0.5915 -0.0672  0.1068
86797SOL    HW178383   5.342  11.645   3.765 -0.6243  1.2143  1.5935
86797SOL    HW278384   5.303  11.725   3.643 -0.6437  0.5720  1.1741
86798SOL     OW78385  13.959   5.582   3.970  0.3502 -0.1401 -0.2774
86798SOL    HW178386  13.967   5.524   4.046 -1.8784  1.1532  1.0630
86798SOL    HW278387  13.978   5.670   4.005 -2.1994  0.6903 -0.7351
86799SOL     OW78388   1.062   6.462   0.201 -0.2764  0.3297  0.1692
86799SOL    HW178389   1.100   6.541   0.162  0.8160  0.6630  1.8270
86799SOL    HW278390   1.083   6.393   0.139 -0.6054  1.1994 -0.9507
86800SOL     OW78391  12.158  14.013   7.411  0.3203  0.3560  0.0456
86800SOL    HW178392  12.077  13.969   7.386  0.4508  1.1217 -1.9239
86800SOL    HW278393  12.216  14.000   7.337  2.8921 -2.0803  2.2811
86801SOL     OW78394   5.819   9.348   4.378  0.1018 -0.9150 -0.1149
86801SOL    HW178395   5.749   9.413   4.382  1.0609  0.0547  1.8634
86801SOL    HW278396   5.819   9.319   4.287  1.2797  3.7119 -1.8742
86802SOL     OW78397   2.466   8.938  13.454  0.3921 -0.1986 -0.6902
86802SOL    HW178398   2.395   8.932  13.390 -0.5797  0.1725  0.3229
86802SOL    HW278399   2.443   9.013  13.509  0.2414 -1.5621  1.2213
86803SOL     OW78400   7.112   8.312   0.431 -0.6193 -0.3332 -0.8872
86803SOL    HW178401   7.186   8.364   0.462 -0.6381  0.0650 -1.4789
86803SOL    HW278402   7.121   8.313   0.336 -1.3145 -0.3820 -0.9575
86804SOL     OW78403  12.566   8.751   9.023 -0.6907 -0.5709  0.3292
86804SOL    HW178404  12.610   8.701   8.955 -1.1819 -0.8548  0.2172
86804SOL    HW278405  12.611   8.726   9.104 -1.0944 -1.3921  0.3081
86805SOL     OW78406   8.540  10.812   3.242  0.3995  0.0332  0.1917
86805SOL    HW178407   8.467  10.779   3.190  0.3482 -0.6123  0.6692
86805SOL    HW278408   8.516  10.794   3.333  0.5965  0.9369  0.4352
86806SOL     OW78409   2.673   1.035  10.246 -0.2559  0.1431 -0.3911
86806SOL    HW178410   2.694   1.127  10.227  0.0729 -0.2253 -1.9988
86806SOL    HW278411   2.582   1.037  10.277  0.3123  1.1752  1.3426
86807SOL     OW78412  11.559  10.602   1.045 -0.3547  0.3546  0.2977
86807SOL    HW178413  11.496  10.673   1.054 -0.2045  0.6107 -0.5675
86807SOL    HW278414  11.574  10.572   1.134 -1.6327  0.3444  0.5247
86808SOL     OW78415  11.545  10.927   0.005  0.3589  0.4010  0.3916
86808SOL    HW178416  11.550  10.912  -0.089 -1.0362  2.1189 -0.0194
86808SOL    HW278417  11.454  10.954   0.020 -0.0108 -1.7274  2.5645
86809SOL     OW78418   2.032   9.427   2.942  0.2206 -0.0138  0.1712
86809SOL    HW178419   2.012   9.385   2.858 -0.8967  0.8240 -0.0036
86809SOL    HW278420   1.958   9.403   2.998 -0.7707  2.1688 -0.1123
86810SOL     OW78421   7.062   4.330   3.905 -0.2062  0.1700 -0.6296
86810SOL    HW178422   7.056   4.423   3.881  1.1236  0.0677 -1.4776
86810SOL    HW278423   7.104   4.330   3.990 -1.3859  0.3771 -0.0230
86811SOL     OW78424   9.746   4.500   7.483 -0.1509 -0.3951 -0.4627
86811SOL    HW178425   9.793   4.453   7.415  1.5831 -0.7827  0.9185
86811SOL    HW278426   9.733   4.434   7.552 -0.5178  0.3421  0.1807
86812SOL     OW78427   7.521  13.201  11.321  0.4502 -0.3917  0.0714
86812SOL    HW178428   7.540  13.216  11.228 -1.8203 -1.0026 -0.5573
86812SOL    HW278429   7.541  13.284  11.363 -1.3841  0.9297 -1.5064
86813SOL     OW78430   7.963   0.397  10.418  0.9270  0.5196 -0.0707
86813SOL    HW178431   7.888   0.455  10.431  0.4271 -0.0605 -0.2778
86813SOL    HW278432   7.948   0.326  10.481  0.4218 -0.4386 -1.2313
86814SOL     OW78433   5.028   3.142  12.624 -0.0472  0.5681  0.2858
86814SOL    HW178434   5.076   3.146  12.707 -0.6630 -0.9648  0.7690
86814SOL    HW278435   5.090   3.173  12.558  1.2783 -0.4028  1.0244
86815SOL     OW78436   4.912   9.760   2.322  0.0779 -0.1714  0.4439
86815SOL    HW178437   4.880   9.743   2.411 -1.1909 -0.4496 -0.0422
86815SOL    HW278438   4.869   9.694   2.268 -0.7290  1.2094 -0.6758
86816SOL     OW78439   6.662   9.689   4.413 -0.0933  0.5588 -0.2988
86816SOL    HW178440   6.677   9.683   4.319 -0.8018 -0.4881 -0.3632
86816SOL    HW278441   6.742   9.655   4.453 -0.7907 -1.5482 -0.5843
86817SOL     OW78442  13.027   1.417   9.086  0.2109 -0.0243 -0.3510
86817SOL    HW178443  13.045   1.350   9.152 -0.8388 -3.6762 -3.4239
86817SOL    HW278444  13.114   1.452   9.064  1.2369 -2.4966 -0.5802
86818SOL     OW78445   7.017  12.705  11.475  0.1923  0.2596  0.1067
86818SOL    HW178446   7.094  12.668  11.433 -0.0603  1.0695 -1.1106
86818SOL    HW278447   7.039  12.706  11.568  1.8292  0.9123 -0.2632
86819SOL     OW78448  13.664  13.105  11.895  0.0892 -0.2980 -0.0050
86819SOL    HW178449  13.714  13.185  11.913 -1.9741  0.7581  1.5951
86819SOL    HW278450  13.630  13.079  11.981 -0.8496 -1.7880 -0.7888
86820SOL     OW78451  10.875   7.985   5.686  0.3425  0.6596  0.3330
86820SOL    HW178452  10.790   8.020   5.661  0.5326  1.2953  0.5443
86820SOL    HW278453  10.928   8.063   5.704  1.5309  0.3793 -1.5896
86821SOL     OW78454   8.350  10.442   7.506  0.0761 -0.5686  0.8176
86821SOL    HW178455   8.392  10.403   7.583  2.6556 -2.5366 -1.3959
86821SOL    HW278456   8.312  10.367   7.460 -1.9424  0.6451  0.4151
86822SOL     OW78457   1.759  13.564   6.093 -0.0770  0.3590  0.1423
86822SOL    HW178458   1.816  13.565   6.170 -0.3415  0.3475  0.3409
86822SOL    HW278459   1.723  13.475   6.090  0.2366  0.2439 -0.2214
86823SOL     OW78460   5.456   1.164   6.331  0.1091  0.2477  0.0811
86823SOL    HW178461   5.445   1.170   6.426  2.3088  2.5267  0.3248
86823SOL    HW278462   5.398   1.093   6.304 -2.3389  1.0084  2.8074
86824SOL     OW78463  12.466   3.631   6.558 -0.0253  0.1164  0.3812
86824SOL    HW178464  12.558   3.654   6.574  0.4180 -0.0398 -1.5772
86824SOL    HW278465  12.421   3.715   6.550  0.3435  0.2389 -0.5300
86825SOL     OW78466   7.176  11.700   9.865  0.2649 -0.4526 -0.1003
86825SOL    HW178467   7.135  11.773   9.819  0.5014 -0.3325 -0.1226
86825SOL    HW278468   7.171  11.725   9.957  1.0149 -0.0620 -0.1624
86826SOL     OW78469   3.639  10.336   0.797 -0.1822 -0.4050 -0.1761
86826SOL    HW178470   3.682  10.253   0.814 -1.1883 -0.9273 -0.1038
86826SOL    HW278471   3.678  10.397   0.860 -0.2047 -1.0869  0.5089
86827SOL     OW78472  11.282  12.596  12.026 -0.1362  0.5546 -0.4363
86827SOL    HW178473  11.219  12.619  11.958 -2.1191  0.5687  1.3181
86827SOL    HW278474  11.285  12.673  12.083 -0.3477 -0.3029  0.7832
86828SOL     OW78475   8.054   4.068   7.182  0.1737  0.1011  0.0222
86828SOL    HW178476   8.027   4.135   7.245  0.8778 -0.1786  0.6500
86828SOL    HW278477   8.032   4.105   7.097 -0.6844  0.5458  0.4245
86829SOL     OW78478  10.311   0.504   0.595  0.3754 -0.1016 -0.3889
86829SOL    HW178479  10.259   0.584   0.587  1.1856  0.8902  2.9582
86829SOL    HW278480  10.402   0.534   0.597  0.6560 -0.8543  2.1540
86830SOL     OW78481  13.525   5.355  13.025  0.4517 -0.1955  0.0038
86830SOL    HW178482  13.512   5.260  13.029  1.2035 -0.3741 -1.1293
86830SOL    HW278483  13.561   5.370  12.937  1.5193  0.9834  0.6038
86831SOL     OW78484   5.511   6.886   9.233  0.5593 -0.1873  0.0560
86831SOL    HW178485   5.544   6.812   9.183 -0.6297 -2.7022  2.7384
86831SOL    HW278486   5.556   6.881   9.317  0.1925  1.9726  0.4470
86832SOL     OW78487  11.106  14.019  11.454  0.3821 -0.3029 -0.1224
86832SOL    HW178488  11.110  13.928  11.484 -0.9258 -0.2321  0.3472
86832SOL    HW278489  11.106  14.071  11.535  0.8189  0.1012 -0.3761
86833SOL     OW78490   0.225   0.548   2.344  0.2361  0.1897 -0.1522
86833SOL    HW178491   0.256   0.528   2.433  1.1305 -1.2056 -0.7358
86833SOL    HW278492   0.160   0.480   2.326 -0.0598  0.5644 -0.5110
86834SOL     OW78493  12.849   3.657  11.237 -0.0300 -0.1718  0.4314
86834SOL    HW178494  12.767   3.632  11.279  0.7926 -0.0989  2.1975
86834SOL    HW278495  12.852   3.607  11.156 -2.1206  0.3371 -0.0077
86835SOL     OW78496   6.756   3.701   2.156  0.0128 -0.3114 -0.0845
86835SOL    HW178497   6.671   3.657   2.164  0.0539 -1.0397 -2.7290
86835SOL    HW278498   6.818   3.639   2.195 -0.3388 -1.0950 -0.7355
86836SOL     OW78499  11.044   7.933   6.758 -0.6683 -0.1250 -0.5776
86836SOL    HW178500  11.139   7.927   6.747 -0.5650 -0.9675  0.5136
86836SOL    HW278501  11.022   8.022   6.730  0.4496  0.0965 -0.8141
86837SOL     OW78502   9.003   3.689  12.606 -0.5465  0.2670  0.5815
86837SOL    HW178503   9.042   3.742  12.675  0.7342  0.6175 -0.3864
86837SOL    HW278504   9.063   3.615  12.595 -0.3737  0.5620 -0.6036
86838SOL     OW78505   1.432  13.016   8.125 -0.2526 -0.0933  0.4483
86838SOL    HW178506   1.367  13.066   8.077 -1.3923 -0.3533  1.6638
86838SOL    HW278507   1.382  12.945   8.166  1.1712 -1.7516 -0.5296
86839SOL     OW78508   4.677  10.769   6.691  0.3781 -0.7567  0.1394
86839SOL    HW178509   4.752  10.820   6.721  0.4640 -0.6515 -0.2464
86839SOL    HW278510   4.638  10.735   6.771  1.6134 -1.9162  0.2735
86840SOL     OW78511   5.634   8.576  13.170  0.0191  0.1983  0.2623
86840SOL    HW178512   5.682   8.493  13.178  0.4877  0.3466 -0.7948
86840SOL    HW278513   5.701   8.644  13.183 -0.2536  0.4108  0.5548
86841SOL     OW78514   8.231   8.287   5.000 -0.3838  0.1009  0.2932
86841SOL    HW178515   8.209   8.379   4.984  0.5566  0.4619  1.0026
86841SOL    HW278516   8.231   8.247   4.913  0.3569  1.0375 -0.1596
86842SOL     OW78517   9.695  13.844  13.943  0.0636 -0.4547 -0.3409
86842SOL    HW178518   9.668  13.767  13.994  0.2015 -1.0589 -1.1688
86842SOL    HW278519   9.747  13.809  13.871  0.6099  0.4673 -0.4139
86843SOL     OW78520   2.886  13.989   5.310  0.2430  0.3408 -0.0754
86843SOL    HW178521   2.828  13.930   5.262  1.3036  1.6216 -3.1881
86843SOL    HW278522   2.828  14.035   5.371 -1.2020 -1.3663 -0.0723
86844SOL     OW78523  13.794   3.718  11.728 -0.3755 -0.1466 -0.7038
86844SOL    HW178524  13.762   3.752  11.645 -2.0268 -2.3278 -1.0581
86844SOL    HW278525  13.800   3.794  11.785  1.0666  1.4433 -2.8519
86845SOL     OW78526   3.142  12.771   8.998  0.0714 -0.1422 -0.1452
86845SOL    HW178527   3.236  12.761   8.986 -0.1457 -1.1877 -1.2155
86845SOL    HW278528   3.114  12.688   9.038 -0.4118  0.1018  0.0349
86846SOL     OW78529   9.630  11.033  10.002  0.2039  0.1837 -0.2560
86846SOL    HW178530   9.623  11.030   9.906  1.4487 -1.1393 -0.3442
86846SOL    HW278531   9.685  11.109  10.019 -1.1135  1.2243 -0.4794
86847SOL     OW78532   0.871   8.874  13.396 -0.0716  0.8183  0.6523
86847SOL    HW178533   0.826   8.915  13.470 -0.2494  0.2901  0.8460
86847SOL    HW278534   0.946   8.930  13.379  0.4642  0.4824  1.8103
86848SOL     OW78535  13.999   4.326  13.887 -0.1169 -0.1344 -0.3038
86848SOL    HW178536  14.054   4.298  13.814 -0.8455 -0.5596 -0.6999
86848SOL    HW278537  13.996   4.422  13.880  1.7227  0.0288  0.5753
86849SOL     OW78538   4.496   6.627   8.028  0.4917 -0.2886 -0.3068
86849SOL    HW178539   4.556   6.595   8.095 -1.2630 -0.6801  1.1643
86849SOL    HW278540   4.484   6.719   8.049 -0.8817 -0.6540  0.6233
86850SOL     OW78541  11.880  13.056   7.712  0.1883  0.3126 -0.1641
86850SOL    HW178542  11.897  12.981   7.769 -2.2401 -0.0841  0.1297
86850SOL    HW278543  11.967  13.091   7.693  1.2236 -0.8884  1.9617
86851SOL     OW78544   9.892   0.294   7.959 -0.4451 -0.8884  0.0886
86851SOL    HW178545   9.862   0.384   7.956 -3.3964 -1.7428  0.3224
86851SOL    HW278546   9.930   0.277   7.873  1.6027  0.9358  0.5542
86852SOL     OW78547   0.535   2.177   5.003  0.1736  0.1166 -0.2023
86852SOL    HW178548   0.544   2.135   4.917 -1.4549 -0.7640  0.0322
86852SOL    HW278549   0.620   2.219   5.017 -0.1806  2.2184 -3.2587
86853SOL     OW78550  10.734  10.637   2.661 -0.4135 -0.3225 -0.0958
86853SOL    HW178551  10.675  10.633   2.585 -1.1023 -0.6616  0.4437
86853SOL    HW278552  10.815  10.673   2.626 -1.1396  0.7534 -0.7327
86854SOL     OW78553   3.827  13.237   0.189  0.2455  0.4263  0.0796
86854SOL    HW178554   3.908  13.231   0.241  0.9105  2.3901 -0.6516
86854SOL    HW278555   3.815  13.331   0.174 -0.8881  0.0205 -1.8157
86855SOL     OW78556   2.090  13.352   7.296  0.3627 -0.3030  0.1177
86855SOL    HW178557   2.096  13.437   7.251 -2.3742  0.5150  1.0850
86855SOL    HW278558   2.043  13.371   7.377 -1.0459 -2.8500  0.0072
86856SOL     OW78559  12.644  12.267   3.484 -0.3270  0.1672 -0.6479
86856SOL    HW178560  12.608  12.240   3.568 -1.1912  1.1785 -0.6821
86856SOL    HW278561  12.711  12.332   3.507  1.6092 -1.7522 -0.5782
86857SOL     OW78562   5.337   2.473  13.137 -0.1313 -0.1837 -0.0069
86857SOL    HW178563   5.285   2.393  13.149 -1.0364  0.1779 -1.3514
86857SOL    HW278564   5.426   2.441  13.119  0.7698 -0.8080  4.2955
86858SOL     OW78565   7.616   6.919  10.379  0.0119 -0.3829  0.1534
86858SOL    HW178566   7.592   6.986  10.316 -0.4459  0.7703  1.5116
86858SOL    HW278567   7.712   6.920  10.380  0.0169 -0.1874 -0.2547
86859SOL     OW78568   5.595  13.569  12.056 -0.5684 -0.0313 -0.1291
86859SOL    HW178569   5.642  13.607  12.130 -1.5525 -0.1159  0.5569
86859SOL    HW278570   5.514  13.535  12.094 -0.3151 -1.6377 -0.9430
86860SOL     OW78571   8.767   8.529  10.148 -0.5185  0.4361 -0.0823
86860SOL    HW178572   8.824   8.605  10.137 -0.5581  0.9633  2.6055
86860SOL    HW278573   8.688   8.565  10.190 -0.9233 -0.9344  0.3745
86861SOL     OW78574   6.031   4.161  11.136 -0.2753  0.2102 -0.1140
86861SOL    HW178575   6.102   4.125  11.190 -0.5972 -1.5524 -0.7921
86861SOL    HW278576   5.978   4.085  11.113 -1.9436  1.3809 -0.3013
86862SOL     OW78577   4.326   2.511   4.017  0.4135  1.1625  0.9740
86862SOL    HW178578   4.300   2.422   4.041  0.3253  0.9558  0.1383
86862SOL    HW278579   4.403   2.499   3.962  0.8059  1.6483  1.4033
86863SOL     OW78580  10.587   0.316   6.407  0.1895 -0.1744  0.1974
86863SOL    HW178581  10.681   0.331   6.420  0.2426  0.6999 -1.0495
86863SOL    HW278582  10.583   0.234   6.358  0.1860 -1.1257  1.7036
86864SOL     OW78583   9.951   2.563   6.583 -0.3683 -0.3378  0.1293
86864SOL    HW178584   9.924   2.480   6.546  0.0159 -0.1706 -0.5321
86864SOL    HW278585  10.025   2.541   6.640  0.2265 -0.3481 -0.6418
86865SOL     OW78586   3.973   2.636  12.624  0.2385 -0.3161  0.6190
86865SOL    HW178587   3.897   2.630  12.567 -0.6703  1.4405  1.5247
86865SOL    HW278588   4.040   2.582  12.582 -0.6491  0.2118 -1.6195
86866SOL     OW78589  13.839   5.926   2.423 -0.2623  0.0083  0.0049
86866SOL    HW178590  13.834   6.013   2.461 -0.8817  0.0389 -0.1289
86866SOL    HW278591  13.892   5.937   2.344 -0.0868  0.2024  0.1487
86867SOL     OW78592  10.750   3.759  12.370 -0.5785 -0.4781 -0.0970
86867SOL    HW178593  10.842   3.785  12.376 -0.5193 -0.8193  0.5054
86867SOL    HW278594  10.743   3.713  12.286 -0.2328 -0.3288 -0.2079
86868SOL     OW78595  13.594   8.040   4.077  0.0093 -0.4236 -0.2163
86868SOL    HW178596  13.512   8.039   4.127 -0.4103 -0.3561 -0.8965
86868SOL    HW278597  13.618   8.133   4.073  0.5357 -0.5105  0.6401
86869SOL     OW78598  10.096   4.654   2.823  0.2691  0.4922 -0.2141
86869SOL    HW178599  10.122   4.578   2.874 -1.4630  0.8746  1.3297
86869SOL    HW278600  10.148   4.726   2.859  0.8633  0.3265 -0.7146
86870SOL     OW78601   2.341   2.481   8.106 -0.3493 -0.2322  0.1541
86870SOL    HW178602   2.410   2.444   8.161 -1.3492  0.4146  1.9106
86870SOL    HW278603   2.310   2.407   8.054 -0.9982 -1.4837  2.2086
86871SOL     OW78604  13.853   3.966  13.934 -0.2241 -0.7614 -0.6378
86871SOL    HW178605  13.865   3.948  13.840 -0.0774  2.0660 -1.2325
86871SOL    HW278606  13.763   3.998  13.941  0.7112  2.0861 -0.4275
86872SOL     OW78607  12.541   5.255   0.628 -0.0234  0.0521  0.0607
86872SOL    HW178608  12.604   5.303   0.573 -0.0174 -0.7348 -0.6389
86872SOL    HW278609  12.565   5.163   0.616 -1.0091 -0.2237  0.1735
86873SOL     OW78610  11.542   8.001   2.866  0.2470 -0.1006 -0.0041
86873SOL    HW178611  11.603   8.067   2.899  1.4924 -1.8128  1.2885
86873SOL    HW278612  11.478   7.990   2.936  0.2437 -0.4911 -0.0638
86874SOL     OW78613   6.196  11.119   1.833  0.0011 -0.1748  0.5963
86874SOL    HW178614   6.284  11.083   1.828  0.9012  1.8388  0.8666
86874SOL    HW278615   6.189  11.154   1.922  0.7833  3.8451 -0.7013
86875SOL     OW78616  13.896   3.734   0.647  0.4644 -0.5030  0.4412
86875SOL    HW178617  13.972   3.791   0.663 -0.3045  0.2108  1.7011
86875SOL    HW278618  13.884   3.737   0.552  1.5560 -0.0336  0.2958
86876SOL     OW78619   9.456   3.493   0.801 -0.3920  1.1184  0.6707
86876SOL    HW178620   9.475   3.421   0.741 -0.6274  1.9506 -0.4443
86876SOL    HW278621   9.436   3.451   0.884  0.9665 -0.0300  0.4555
86877SOL     OW78622  12.928   4.395   7.712 -0.4705  0.1707  0.4680
86877SOL    HW178623  12.902   4.320   7.766 -2.5926  1.7206  1.7702
86877SOL    HW278624  13.024   4.391   7.711 -0.4887 -2.0333  1.2180
86878SOL     OW78625  12.009   4.838  12.625 -0.1390  0.0564 -0.3356
86878SOL    HW178626  11.973   4.755  12.655 -0.8894  0.6825  0.5620
86878SOL    HW278627  11.996   4.898  12.699 -0.7370  1.2898 -1.3913
86879SOL     OW78628  14.018   1.771  11.880 -0.1143  0.4938 -0.6168
86879SOL    HW178629  13.933   1.780  11.837 -0.3557 -0.5553 -0.3744
86879SOL    HW278630  14.049   1.685  11.853  1.3381  1.2458 -1.5114
86880SOL     OW78631  10.652  13.665   9.097 -0.1355  0.4619  0.1032
86880SOL    HW178632  10.617  13.692   9.012 -1.2222  0.3301  0.4933
86880SOL    HW278633  10.670  13.748   9.142 -1.5281  0.5534  0.5220
86881SOL     OW78634   8.438   0.216   3.203  0.2865  0.3949 -0.1826
86881SOL    HW178635   8.374   0.216   3.132  0.9377 -0.7290 -0.8027
86881SOL    HW278636   8.390   0.246   3.280 -1.1881 -1.1666 -0.4590
86882SOL     OW78637   3.889   1.963   4.573 -0.0433  0.0394  0.1997
86882SOL    HW178638   3.819   1.977   4.508  0.4516  0.5819 -0.2236
86882SOL    HW278639   3.845   1.973   4.657 -0.5229  0.1667 -0.0609
86883SOL     OW78640   6.937   0.721  13.927 -0.4604  0.3205  0.2511
86883SOL    HW178641   6.969   0.684  13.844 -2.8060 -2.2819  0.3592
86883SOL    HW278642   7.017   0.739  13.977  0.9696  0.3585 -1.8799
86884SOL     OW78643  14.156  11.524   3.072 -0.4505  0.3773 -0.7269
86884SOL    HW178644  14.198  11.521   3.158  0.3671  0.2710 -1.1187
86884SOL    HW278645  14.175  11.612   3.039  0.2447  0.0369 -1.2761
86885SOL     OW78646   8.917   2.489   1.555  0.2933 -0.2376 -0.2439
86885SOL    HW178647   8.958   2.453   1.633  2.4756 -0.7214 -1.5252
86885SOL    HW278648   8.898   2.580   1.577  0.1923 -0.5566  1.0611
86886SOL     OW78649  13.964   1.311   9.492 -0.1511  0.4642 -0.9175
86886SOL    HW178650  13.980   1.264   9.574 -5.3443  2.0923  1.4887
86886SOL    HW278651  13.947   1.241   9.428  0.8067 -0.8554  0.2017
86887SOL     OW78652   1.593  13.296   8.803  0.0601 -0.1374  0.7062
86887SOL    HW178653   1.549  13.224   8.758 -1.1706  0.0878  1.4897
86887SOL    HW278654   1.538  13.313   8.880  0.8514  1.0026  1.0455
86888SOL     OW78655   7.509   0.685  12.603 -0.2135  0.8559  0.8674
86888SOL    HW178656   7.556   0.633  12.668 -1.0210  0.0880  0.8517
86888SOL    HW278657   7.424   0.642  12.594 -0.3709  1.3465 -0.1996
86889SOL     OW78658   0.832   6.096  13.398  0.2995  0.2638 -0.1886
86889SOL    HW178659   0.829   6.094  13.493  0.1473 -3.5819 -0.1098
86889SOL    HW278660   0.741   6.110  13.371  0.3886  1.6683  0.1712
86890SOL     OW78661   4.296   9.065  11.903  0.1886  0.0217  0.6946
86890SOL    HW178662   4.251   9.000  11.957  0.4558 -0.3081  0.5260
86890SOL    HW278663   4.366   9.016  11.860  0.8733  0.5689  1.1488
86891SOL     OW78664   0.614  12.382   6.524  0.2216  0.1724  0.2255
86891SOL    HW178665   0.572  12.297   6.509  0.4924 -0.1002  0.9639
86891SOL    HW278666   0.617  12.390   6.619  1.5357  0.3292  0.1856
86892SOL     OW78667   5.635  12.163  13.141  0.2379 -0.4781  0.0217
86892SOL    HW178668   5.562  12.220  13.168  0.1821  1.0264 -2.9335
86892SOL    HW278669   5.707  12.189  13.198 -0.1255  1.7999 -0.4440
86893SOL     OW78670   6.116   1.154   8.104  0.0078  0.2732 -0.0134
86893SOL    HW178671   6.051   1.215   8.138 -1.3164 -0.2326 -1.5370
86893SOL    HW278672   6.110   1.077   8.162  0.5826  0.9269  0.9519
86894SOL     OW78673   0.811   0.890   9.921 -0.6551  0.1156  0.1878
86894SOL    HW178674   0.726   0.903   9.963  0.4733  0.2964  2.5357
86894SOL    HW278675   0.837   0.801   9.946  0.1581  0.3210  0.0943
86895SOL     OW78676   1.705  14.075   7.400  0.1337  0.4157 -0.1523
86895SOL    HW178677   1.622  14.048   7.439  0.1487  1.8992  0.9981
86895SOL    HW278678   1.739  14.141   7.460  3.8514 -2.4755  1.3114
86896SOL     OW78679  10.182   9.292   7.495  0.1090  0.3277  0.4996
86896SOL    HW178680  10.257   9.336   7.456 -1.8354  1.7482 -2.0384
86896SOL    HW278681  10.185   9.203   7.459  0.5010  0.4272  0.2771
86897SOL     OW78682  12.386   5.754   0.231 -1.0924  0.2724  0.0487
86897SOL    HW178683  12.388   5.815   0.157  1.5396 -1.3159 -1.3518
86897SOL    HW278684  12.454   5.786   0.290 -0.6982 -0.4841  0.0095
86898SOL     OW78685   8.684  11.703  13.683  0.5648 -0.2905  0.0931
86898SOL    HW178686   8.630  11.782  13.692  0.5671 -0.4205  1.6032
86898SOL    HW278687   8.765  11.734  13.643 -0.0754  0.1600 -0.9020
86899SOL     OW78688  10.079   6.843   3.434 -0.0046  0.1311 -0.0508
86899SOL    HW178689  10.068   6.933   3.466 -4.1597  0.0793 -0.7623
86899SOL    HW278690  10.086   6.853   3.339  1.1471 -0.2536 -0.0128
86900SOL     OW78691   0.453   6.496   7.736 -0.2403 -0.3087  0.3993
86900SOL    HW178692   0.504   6.418   7.757  0.6632  0.7330  2.3131
86900SOL    HW278693   0.432   6.535   7.821 -2.5239  0.4038 -0.4117
86901SOL     OW78694  10.214  12.829   9.128  0.4751 -0.3480  0.2889
86901SOL    HW178695  10.226  12.780   9.209  0.3176 -2.8159 -1.0713
86901SOL    HW278696  10.301  12.829   9.087  0.2871 -0.2420 -0.1157
86902SOL     OW78697   0.726   4.233  12.190 -0.5195 -0.1622 -0.6588
86902SOL    HW178698   0.754   4.206  12.103 -1.0652 -0.4653 -0.7451
86902SOL    HW278699   0.670   4.162  12.221 -1.2128  0.4329 -0.5041
86903SOL     OW78700   2.425  12.426   9.900 -0.1559  0.0885  0.0605
86903SOL    HW178701   2.360  12.366   9.936 -1.5791  1.1135 -0.7206
86903SOL    HW278702   2.427  12.499   9.961  0.5436 -0.0952  0.2668
86904SOL     OW78703   3.724   1.228  12.504  0.1383  0.2542 -0.5518
86904SOL    HW178704   3.756   1.157  12.447 -2.2426  0.6067 -2.5118
86904SOL    HW278705   3.662   1.185  12.563 -2.3699  0.7323 -2.6446
86905SOL     OW78706  11.508   1.207   2.813 -0.2159  0.3496  0.7718
86905SOL    HW178707  11.561   1.205   2.892 -0.2956  1.2063  0.8597
86905SOL    HW278708  11.539   1.285   2.766  0.8462 -0.9245 -0.7550
86906SOL     OW78709  13.093   2.577   5.298 -0.1399  0.7675 -0.4954
86906SOL    HW178710  13.124   2.605   5.384  0.9646 -0.1994 -0.5588
86906SOL    HW278711  13.169   2.535   5.258 -1.1584 -0.4759 -1.1933
86907SOL     OW78712   9.873  14.067  11.898  0.1716 -0.3164 -0.0092
86907SOL    HW178713   9.884  14.153  11.938 -0.2261  0.1349 -0.8469
86907SOL    HW278714   9.914  14.075  11.812 -0.8033 -0.6209 -0.5203
86908SOL     OW78715  12.536   4.458  10.390  0.4586  0.2334 -0.3093
86908SOL    HW178716  12.612   4.460  10.448  0.8074  1.1727 -0.7727
86908SOL    HW278717  12.467   4.415  10.441  1.1113 -0.0460  0.3479
86909SOL     OW78718   1.705   1.825   9.854  0.5394 -0.3826  0.3937
86909SOL    HW178719   1.722   1.895   9.917  0.3094 -1.3337  1.5410
86909SOL    HW278720   1.783   1.769   9.859  2.5340  1.7034 -3.2897
86910SOL     OW78721   8.208   9.728   9.084  0.1266  0.0501  0.8319
86910SOL    HW178722   8.268   9.713   9.157 -1.4263  0.6564  2.2983
86910SOL    HW278723   8.210   9.646   9.034  1.0243 -0.4809  1.7018
86911SOL     OW78724   8.723  11.850   0.143 -0.0625  0.3311 -0.1016
86911SOL    HW178725   8.684  11.836   0.230 -0.9043 -0.5620 -0.5971
86911SOL    HW278726   8.817  11.842   0.157 -0.2416 -0.8255  0.5713
86912SOL     OW78727  12.952   9.443   1.925  0.1715 -0.5080 -0.1927
86912SOL    HW178728  12.983   9.484   2.006  0.5503  0.4188 -0.7896
86912SOL    HW278729  13.033   9.423   1.877 -0.0601 -0.8648 -0.4381
86913SOL     OW78730   1.951  12.227   0.494 -0.1167  0.4923 -0.6540
86913SOL    HW178731   1.874  12.283   0.482 -0.3659  0.0546 -1.1498
86913SOL    HW278732   1.936  12.153   0.435 -0.1119 -0.4285  0.4656
86914SOL     OW78733   2.141   8.015   6.758  0.1936  0.5035 -0.1797
86914SOL    HW178734   2.226   8.039   6.795  1.4930 -3.6017 -0.0770
86914SOL    HW278735   2.078   8.035   6.828  1.2882  1.6916  0.5078
86915SOL     OW78736   3.697   3.778   2.251  0.2334  0.0445  0.8463
86915SOL    HW178737   3.676   3.685   2.239 -1.4113  0.6887 -2.4426
86915SOL    HW278738   3.665   3.798   2.339 -0.1029 -2.3188  1.3331
86916SOL     OW78739   5.626  13.966   3.983  0.3912  0.2286 -1.3950
86916SOL    HW178740   5.596  14.047   3.942  0.7586  0.2279 -1.6643
86916SOL    HW278741   5.555  13.942   4.043  0.2256  0.6805 -1.4069
86917SOL     OW78742  13.009   4.866   3.849  0.3106  0.8288 -0.0698
86917SOL    HW178743  12.921   4.893   3.877 -0.4799 -1.1662 -0.4507
86917SOL    HW278744  13.033   4.928   3.781 -0.8087  1.4326  0.0627
86918SOL     OW78745  12.880   7.595   1.751 -0.2333  0.4339 -0.2101
86918SOL    HW178746  12.851   7.508   1.781  0.2254  0.3378 -0.0393
86918SOL    HW278747  12.817   7.655   1.790  0.0008  0.2562  0.4560
86919SOL     OW78748   9.229   0.813   3.888 -0.2388 -0.0165  0.3237
86919SOL    HW178749   9.204   0.731   3.930  0.4174 -1.2574 -1.6036
86919SOL    HW278750   9.324   0.820   3.903 -0.2911  0.4030  0.4785
86920SOL     OW78751   1.279   1.369   0.394  1.1188  0.6093  0.5119
86920SOL    HW178752   1.235   1.302   0.342  2.0093  0.7713 -0.4828
86920SOL    HW278753   1.252   1.351   0.484  0.5660 -0.4734  0.1477
86921SOL     OW78754   5.422  12.322  13.218 -0.5751 -0.2625 -0.0713
86921SOL    HW178755   5.326  12.323  13.214 -0.8272  0.8325  3.0773
86921SOL    HW278756   5.447  12.414  13.211  0.3742 -0.5890 -1.5365
86922SOL     OW78757   5.528   1.783  12.166 -0.4230 -0.1120  0.3212
86922SOL    HW178758   5.581   1.739  12.099  0.4945  1.5996 -0.1239
86922SOL    HW278759   5.445   1.801  12.123 -1.0504 -1.8916  0.6993
86923SOL     OW78760   0.280  11.492   2.881  0.1065 -0.0486 -0.4564
86923SOL    HW178761   0.240  11.486   2.794 -2.0516  0.3151  0.4448
86923SOL    HW278762   0.301  11.401   2.904 -1.7849 -0.4843 -0.3061
86924SOL     OW78763   7.880  12.300   8.035 -0.2843  0.0040 -0.1381
86924SOL    HW178764   7.942  12.361   8.074 -0.8993  0.2793  0.4277
86924SOL    HW278765   7.873  12.328   7.944  0.0423  0.2812 -0.0780
86925SOL     OW78766   4.104   2.322   2.353  0.1582 -0.0596 -0.5221
86925SOL    HW178767   4.157   2.292   2.427 -2.0331 -1.0576  0.7162
86925SOL    HW278768   4.055   2.397   2.387 -1.3479 -0.9239 -0.7190
86926SOL     OW78769   1.888  11.152   3.963  0.8102  0.4388  0.2830
86926SOL    HW178770   1.837  11.191   4.034  0.3894 -0.2783  0.3848
86926SOL    HW278771   1.950  11.221   3.938  2.1128  0.1544  2.4639
86927SOL     OW78772   0.215  10.973  10.906 -0.3273  0.3381 -0.2988
86927SOL    HW178773   0.283  10.910  10.884  0.0974  0.8501 -0.4775
86927SOL    HW278774   0.166  10.986  10.825 -1.3136 -0.8210  0.0865
86928SOL     OW78775  10.118  12.963   9.601  0.4333  0.0699  0.5262
86928SOL    HW178776  10.158  12.914   9.673  0.8264 -1.4103 -0.6416
86928SOL    HW278777  10.114  13.053   9.632 -0.6847 -0.7220  2.9555
86929SOL     OW78778   2.848  12.931   8.648 -0.3213  0.3087 -0.0125
86929SOL    HW178779   2.930  12.888   8.675 -0.1471 -0.6334 -1.8834
86929SOL    HW278780   2.833  12.997   8.715  2.4331  1.0711 -0.0342
86930SOL     OW78781  13.734  11.987  13.395 -0.1423  0.3853  0.0572
86930SOL    HW178782  13.678  11.911  13.411 -0.6561  0.6471 -0.4416
86930SOL    HW278783  13.746  12.027  13.481  1.9214 -1.4426  0.7154
86931SOL     OW78784  14.135   0.552   7.200 -0.0812 -0.0999  0.3774
86931SOL    HW178785  14.159   0.466   7.234 -2.7017 -0.8459  0.5475
86931SOL    HW278786  14.085   0.533   7.120  1.5899  1.4332 -1.1340
86932SOL     OW78787   5.859   8.351  10.249 -0.6111  0.2797 -0.1687
86932SOL    HW178788   5.881   8.260  10.269 -0.2914 -0.1781 -2.3409
86932SOL    HW278789   5.805   8.345  10.170  0.9179  2.0520 -1.4122
86933SOL     OW78790   0.676   8.290   8.630 -0.2108  0.0410  0.7592
86933SOL    HW178791   0.605   8.227   8.644  0.6659 -0.9946  0.7090
86933SOL    HW278792   0.739   8.270   8.700 -0.0856  1.1153  0.9603
86934SOL     OW78793   9.154   6.687   8.301 -0.1888  0.3590  0.2794
86934SOL    HW178794   9.231   6.676   8.356 -1.0124  1.2829  1.6844
86934SOL    HW278795   9.138   6.600   8.265  0.7003 -0.1498  1.0578
86935SOL     OW78796   4.020   1.034  13.112  0.1401  0.1201 -0.5959
86935SOL    HW178797   3.969   0.979  13.053 -1.0272 -1.2102  1.5316
86935SOL    HW278798   3.956   1.069  13.174  1.5751 -0.4851  1.3141
86936SOL     OW78799  10.923  10.596   5.380 -0.1551 -0.3754  0.2398
86936SOL    HW178800  11.015  10.623   5.385 -0.2366 -0.3377  3.0085
86936SOL    HW278801  10.877  10.657   5.438 -2.0868  0.0325 -1.6033
86937SOL     OW78802  13.916  11.585  14.046  0.1706 -0.1798 -0.0460
86937SOL    HW178803  13.857  11.566  13.973 -0.8573 -0.7789  0.9029
86937SOL    HW278804  13.887  11.526  14.116  0.6277  0.9118  1.0956
86938SOL     OW78805   0.814   4.159   1.441  0.4378 -0.4023 -0.5651
86938SOL    HW178806   0.905   4.135   1.459  0.4086 -0.8418 -1.0009
86938SOL    HW278807   0.770   4.076   1.425  0.3324 -0.0898 -2.0379
86939SOL     OW78808   1.722   2.784   3.800 -0.0417 -0.1628  0.3026
86939SOL    HW178809   1.765   2.749   3.878  0.7753 -1.3689 -0.6652
86939SOL    HW278810   1.647   2.727   3.786  0.8239 -1.0790 -0.7981
86940SOL     OW78811   7.027   0.176  12.926  0.4871  0.1601 -0.4119
86940SOL    HW178812   6.931   0.167  12.928  0.4816  0.1678 -0.6480
86940SOL    HW278813   7.055   0.153  13.015  0.3168 -0.4194 -0.5049
86941SOL     OW78814   6.485  10.409   2.463  0.3921 -0.6776  0.3932
86941SOL    HW178815   6.549  10.351   2.503  0.6757 -0.9310 -0.4030
86941SOL    HW278816   6.526  10.438   2.382  0.2954  0.7268  0.8316
86942SOL     OW78817   6.623   5.518  10.963  0.1879 -0.2350  0.5362
86942SOL    HW178818   6.706   5.472  10.968  0.2569 -0.0514  1.1117
86942SOL    HW278819   6.616   5.545  10.871  1.7780  1.5802  0.8866
86943SOL     OW78820  11.908   4.746   4.561 -0.6652 -0.4692 -0.2118
86943SOL    HW178821  11.947   4.817   4.510 -1.3565  0.1476  0.1061
86943SOL    HW278822  11.975   4.677   4.560 -0.5306 -0.3675 -1.6966
86944SOL     OW78823   4.962  10.678  11.843  0.4355 -0.1453 -0.5758
86944SOL    HW178824   4.880  10.727  11.839  0.9095  0.6064 -1.5895
86944SOL    HW278825   4.994  10.677  11.753  0.5802 -2.1206 -0.5424
86945SOL     OW78826   6.239   4.814   8.475 -0.2546 -0.1301  0.3224
86945SOL    HW178827   6.330   4.801   8.501 -0.5626 -1.6610  0.7951
86945SOL    HW278828   6.193   4.739   8.514 -1.8740  1.1044  0.8803
86946SOL     OW78829   4.988   2.164  13.717 -0.5441  0.0768  0.7718
86946SOL    HW178830   5.038   2.088  13.687 -1.2614 -0.4855  0.9401
86946SOL    HW278831   4.977   2.218  13.639 -0.9594 -0.5418  0.3892
86947SOL     OW78832  12.749   5.114   2.817 -0.5093  0.1787  0.5072
86947SOL    HW178833  12.788   5.200   2.801  0.0991 -0.3478 -1.0082
86947SOL    HW278834  12.821   5.061   2.852 -0.2058 -0.3943 -0.9363
86948SOL     OW78835   0.830   2.963   0.064 -0.3022  0.1715  0.1097
86948SOL    HW178836   0.801   2.889   0.117  1.2407  1.5531  3.1174
86948SOL    HW278837   0.924   2.967   0.078 -0.0301  1.4888 -1.6954
86949SOL     OW78838   2.674   9.502   2.421  0.6726  0.5385  0.4235
86949SOL    HW178839   2.585   9.538   2.428  1.0264  1.5262 -0.0029
86949SOL    HW278840   2.717   9.557   2.356  0.8522 -1.5000 -1.3104
86950SOL     OW78841   9.515   0.414  12.166  0.5027  0.0319  0.3469
86950SOL    HW178842   9.516   0.420  12.070  2.5519 -0.3880  0.2968
86950SOL    HW278843   9.460   0.487  12.194 -1.4696 -0.7777 -1.1692
86951SOL     OW78844  12.167   8.062   8.827 -0.0192  0.4310 -0.0586
86951SOL    HW178845  12.239   8.010   8.863 -0.0811  0.3045 -0.1172
86951SOL    HW278846  12.178   8.148   8.866 -0.5457  0.0837  0.8837
86952SOL     OW78847  11.997   9.521  13.299 -0.2235  0.2295  0.2932
86952SOL    HW178848  11.948   9.595  13.263  0.5676  0.6066 -0.0381
86952SOL    HW278849  12.074   9.561  13.340 -0.4832 -0.3044  1.3279
86953SOL     OW78850   4.829   1.339   7.353  0.2660 -0.4572 -0.2578
86953SOL    HW178851   4.888   1.334   7.278  0.1588 -1.5016 -0.2983
86953SOL    HW278852   4.884   1.367   7.426  0.2756  1.0186 -0.8153
86954SOL     OW78853  11.477  12.976   4.775  0.1100 -0.1346  0.3466
86954SOL    HW178854  11.471  12.941   4.686 -0.4927  0.8114 -0.0070
86954SOL    HW278855  11.444  13.066   4.767 -2.2297 -0.7638  1.9625
86955SOL     OW78856   8.222   3.378   6.679  0.3330 -0.3876  0.1275
86955SOL    HW178857   8.155   3.337   6.624  0.2390  0.9519 -0.8079
86955SOL    HW278858   8.217   3.330   6.762  0.9948 -2.9975 -1.2198
86956SOL     OW78859  13.592  11.154   9.940  0.3305 -0.1870  0.0961
86956SOL    HW178860  13.588  11.249   9.950 -0.7924 -0.1115 -0.8455
86956SOL    HW278861  13.517  11.133   9.884  0.2450 -1.6902  0.7358
86957SOL     OW78862   2.465   4.791   8.176 -0.3005 -0.2586  0.0023
86957SOL    HW178863   2.393   4.823   8.123 -0.6647  0.0712  0.6823
86957SOL    HW278864   2.424   4.764   8.258  0.4616  0.8329  0.7744
86958SOL     OW78865  11.569   7.836   0.348 -0.2465 -0.2412 -0.0306
86958SOL    HW178866  11.577   7.824   0.443  0.7354 -1.6221 -0.2426
86958SOL    HW278867  11.572   7.931   0.335  0.7246 -0.0697  1.2446
86959SOL     OW78868  10.548   3.629   4.850  0.5445  0.1341  0.5295
86959SOL    HW178869  10.589   3.615   4.935  1.5436  0.1829  0.0727
86959SOL    HW278870  10.527   3.723   4.848 -1.3794 -0.2401  1.5245
86960SOL     OW78871   1.611   6.281   5.195 -0.2019  0.3615  0.5699
86960SOL    HW178872   1.706   6.276   5.206  0.0533  2.1759 -0.4978
86960SOL    HW278873   1.575   6.238   5.273  1.4800 -0.5785  0.8570
86961SOL     OW78874   3.057   3.208   5.998 -0.1816 -0.2047  0.3797
86961SOL    HW178875   3.054   3.203   5.902 -1.3672  0.9756  0.3255
86961SOL    HW278876   3.112   3.285   6.016 -0.5067 -0.0239  0.6204
86962SOL     OW78877  12.587   9.801   4.900 -0.0266  0.8294  0.4791
86962SOL    HW178878  12.611   9.790   4.808 -2.3606  3.6085 -0.6341
86962SOL    HW278879  12.526   9.729   4.918 -0.3216  0.8269 -0.4915
86963SOL     OW78880   6.174  12.975   9.008 -0.4097 -0.0505  0.5022
86963SOL    HW178881   6.192  12.890   9.047  2.3696  0.8064  1.3291
86963SOL    HW278882   6.199  12.965   8.916 -1.6980 -0.5575  0.1930
86964SOL     OW78883   7.027   7.796   7.828  0.1118  0.1066 -1.2601
86964SOL    HW178884   7.121   7.811   7.824  0.1464  0.2533 -0.1264
86964SOL    HW278885   6.997   7.852   7.900 -0.4894 -1.6828 -0.0679
86965SOL     OW78886  11.784  12.455   9.701  0.0900 -0.4511 -0.0310
86965SOL    HW178887  11.721  12.383   9.705  0.0850 -0.4359  0.2246
86965SOL    HW278888  11.741  12.527   9.747  1.1908 -1.1342  2.2056
86966SOL     OW78889   9.523   8.673   8.532  0.1592  0.3008  0.0327
86966SOL    HW178890   9.436   8.639   8.550  0.3907 -0.7392 -0.6981
86966SOL    HW278891   9.510   8.767   8.517 -0.4616  0.6374  2.3303
86967SOL     OW78892   0.656  11.904  14.031  0.4638  0.0226  0.4513
86967SOL    HW178893   0.626  11.978  13.979  1.0178 -0.6672 -0.8887
86967SOL    HW278894   0.588  11.893  14.098  0.5012  1.8916  0.8734
86968SOL     OW78895   6.865  10.559  10.690 -0.9107 -0.1679  0.4548
86968SOL    HW178896   6.862  10.654  10.700  1.0166 -0.2323  2.4964
86968SOL    HW278897   6.843  10.543  10.599  0.1123  2.3558 -0.3025
86969SOL     OW78898   1.709   3.121   4.220  0.1554  0.1278 -0.2434
86969SOL    HW178899   1.732   3.028   4.223  2.0902  0.5537 -0.2435
86969SOL    HW278900   1.700   3.141   4.127 -1.3623 -0.2746 -0.2028
86970SOL     OW78901   4.348   9.600  13.567  0.2000  0.0506  0.6315
86970SOL    HW178902   4.410   9.540  13.608  0.7662  1.0199  1.2477
86970SOL    HW278903   4.345   9.675  13.626 -0.1081  0.8427 -0.3560
86971SOL     OW78904   7.006   8.338   9.090  0.1436 -0.5949 -0.0626
86971SOL    HW178905   7.033   8.409   9.148  1.4910  0.2866 -1.6643
86971SOL    HW278906   6.915   8.319   9.116 -0.5750  2.2828 -0.0897
86972SOL     OW78907  14.050   4.384   6.166  0.3129 -0.1796 -0.2109
86972SOL    HW178908  14.095   4.301   6.184  0.4874 -0.3187 -1.2075
86972SOL    HW278909  13.994   4.398   6.242  0.1250 -1.3243 -0.1159
86973SOL     OW78910   7.363   6.129   4.428  0.1132  0.0113  0.5442
86973SOL    HW178911   7.401   6.126   4.340 -1.5548 -0.8543 -0.1899
86973SOL    HW278912   7.322   6.215   4.433  0.5658  0.2249  0.6438
86974SOL     OW78913  10.284   2.783   4.171  0.1260  0.1127 -0.6228
86974SOL    HW178914  10.361   2.751   4.124  0.2400 -0.2095 -0.2302
86974SOL    HW278915  10.315   2.859   4.219  0.2622 -0.1459 -0.2913
86975SOL     OW78916  13.727   4.838   7.017 -0.1698 -0.2570  0.0215
86975SOL    HW178917  13.744   4.932   7.030  0.3191 -0.2207 -0.8022
86975SOL    HW278918  13.665   4.815   7.086 -0.0350  0.6007  0.4381
86976SOL     OW78919   9.588  10.541   0.539  0.5076 -0.1026 -0.3037
86976SOL    HW178920   9.512  10.563   0.485 -1.5914  0.2796  2.5880
86976SOL    HW278921   9.651  10.611   0.521  0.2782 -0.4496 -2.8064
86977SOL     OW78922  12.593   1.514   9.780 -0.1642 -0.3652 -0.6340
86977SOL    HW178923  12.566   1.490   9.869 -0.7144  0.8663 -0.4468
86977SOL    HW278924  12.573   1.608   9.773  2.1541  0.1652 -1.2159
86978SOL     OW78925   4.818  13.839   7.233 -0.1354  0.0893 -0.0248
86978SOL    HW178926   4.904  13.843   7.191  0.0737 -0.8774  0.2663
86978SOL    HW278927   4.767  13.781   7.176 -0.0867 -0.6134  0.6242
86979SOL     OW78928   6.640  10.785   7.410 -0.2732 -0.0432 -0.0450
86979SOL    HW178929   6.609  10.743   7.329  0.7356 -1.0861  0.0794
86979SOL    HW278930   6.580  10.858   7.424 -1.7127 -1.0674 -0.6309
86980SOL     OW78931   5.742  11.660   6.603 -0.3181  0.4747 -0.4545
86980SOL    HW178932   5.650  11.643   6.625 -0.0753  0.1149  0.3013
86980SOL    HW278933   5.767  11.587   6.547 -0.5951  0.7703 -0.9733
86981SOL     OW78934   2.406   8.217  11.206 -0.6212 -0.4737 -0.0742
86981SOL    HW178935   2.326   8.168  11.227 -0.1865 -1.5990 -0.9920
86981SOL    HW278936   2.446   8.169  11.134  1.6230 -0.7566  1.2740
86982SOL     OW78937   9.652  11.296   1.019  0.1459 -0.3171  0.3117
86982SOL    HW178938   9.691  11.220   1.062  0.2971  0.1288  0.9781
86982SOL    HW278939   9.664  11.368   1.082  0.7709  0.4537 -0.6570
86983SOL     OW78940   6.334   8.840  11.749 -0.3352  0.1233  0.4429
86983SOL    HW178941   6.287   8.775  11.698 -0.1303  0.2904  0.0416
86983SOL    HW278942   6.347   8.798  11.834 -0.6139 -0.1799  0.3377
86984SOL     OW78943   3.874   3.904   8.317 -0.1738  0.8528  0.0624
86984SOL    HW178944   3.913   3.925   8.402 -0.2190 -0.6735  0.4871
86984SOL    HW278945   3.780   3.919   8.329 -0.3284 -0.4739  0.6701
86985SOL     OW78946   5.132   9.050   0.606 -0.0156  0.1313  0.3978
86985SOL    HW178947   5.140   9.106   0.529 -0.7030  0.4030  0.5123
86985SOL    HW278948   5.221   9.019   0.623 -0.0008 -0.7079 -1.0708
86986SOL     OW78949   6.832   1.724  13.527  0.3804  0.3240 -0.2696
86986SOL    HW178950   6.740   1.721  13.552  1.5761  0.4723  5.2459
86986SOL    HW278951   6.856   1.816  13.532  1.3091  0.0459  0.8033
86987SOL     OW78952   0.860   9.809  10.784 -0.2061 -0.2247 -0.0841
86987SOL    HW178953   0.925   9.840  10.721 -1.4940  1.3734 -0.6916
86987SOL    HW278954   0.910   9.796  10.865  0.8168  1.4908 -0.3843
86988SOL     OW78955   8.994   5.566  14.116 -0.4382  0.6956 -0.5819
86988SOL    HW178956   9.048   5.489  14.138 -0.9264  0.5992  0.3137
86988SOL    HW278957   8.937   5.535  14.046 -0.1589  0.4479 -0.7071
86989SOL     OW78958  12.607   8.412  11.629  0.2781  0.3134  0.3509
86989SOL    HW178959  12.549   8.461  11.687  0.6138 -0.5980  1.4785
86989SOL    HW278960  12.694   8.446  11.647  0.5168 -0.6859  1.1609
86990SOL     OW78961   1.649   2.991   2.332 -0.0012  0.7862  0.7138
86990SOL    HW178962   1.696   3.034   2.261  1.1430 -1.6694 -0.1362
86990SOL    HW278963   1.713   2.984   2.403  0.0149  0.0479  0.6376
86991SOL     OW78964   5.225  10.776   3.557 -0.6940 -0.6046 -0.0840
86991SOL    HW178965   5.153  10.761   3.618 -0.9968 -0.0928 -0.3058
86991SOL    HW278966   5.245  10.870   3.565  0.3609 -0.8562  0.4208
86992SOL     OW78967   7.988   2.217   9.084  0.1713 -0.3384 -0.0556
86992SOL    HW178968   7.967   2.128   9.055  0.7891 -0.2568 -0.8058
86992SOL    HW278969   7.994   2.211   9.179  1.2166 -1.3443 -0.1554
86993SOL     OW78970   0.209   4.105  12.063 -0.4775 -0.2103  0.2092
86993SOL    HW178971   0.235   4.111  11.971  0.3380  2.8422  0.5244
86993SOL    HW278972   0.189   4.195  12.088 -0.9670 -0.9918  2.9648
86994SOL     OW78973  12.396  11.505   7.074 -0.0949  0.2053 -0.7961
86994SOL    HW178974  12.474  11.476   7.121 -0.2760  0.1221 -0.5440
86994SOL    HW278975  12.422  11.507   6.982  0.6994  1.7733 -0.5665
86995SOL     OW78976   9.079   5.842  11.126  0.2413 -0.4637  0.7708
86995SOL    HW178977   9.146   5.780  11.099 -2.4895 -2.5762 -1.9253
86995SOL    HW278978   9.022   5.792  11.185 -1.3173 -0.1633 -0.4315
86996SOL     OW78979  11.482   1.675  11.964 -0.1010  0.4564  0.1065
86996SOL    HW178980  11.409   1.686  11.904 -0.6769  0.5360  0.8006
86996SOL    HW278981  11.488   1.580  11.978  1.6753  0.1773 -2.0200
86997SOL     OW78982   5.734   6.632   1.115  0.0313 -0.4698  0.3873
86997SOL    HW178983   5.666   6.577   1.076 -0.2748  1.0135 -1.3398
86997SOL    HW278984   5.696   6.720   1.114  1.7143  0.2922 -0.0289
86998SOL     OW78985  13.958  12.411   9.729 -0.2085  0.8106  0.5697
86998SOL    HW178986  13.924  12.322   9.740  0.8003  0.0678 -1.6647
86998SOL    HW278987  14.051  12.399   9.711  0.0024  2.3476  0.4798
86999SOL     OW78988  12.914   9.754   8.583  0.3723  0.0721 -0.0593
86999SOL    HW178989  12.914   9.680   8.643 -1.6689  0.5156  0.5593
86999SOL    HW278990  12.841   9.809   8.613 -0.1811  0.7332 -2.4295
87000SOL     OW78991   5.548  11.917  14.090  0.1405  0.1609  1.0684
87000SOL    HW178992   5.546  11.829  14.052 -0.2490 -0.2251  1.9725
87000SOL    HW278993   5.487  11.913  14.163  0.7948  0.9336  1.6671
87001SOL     OW78994  13.923   7.924  13.819  0.1133 -0.1545  0.9415
87001SOL    HW178995  13.988   7.932  13.889 -1.4388  0.9314  2.3618
87001SOL    HW278996  13.969   7.950  13.740  1.6795 -0.4532  1.7150
87002SOL     OW78997   6.206  11.402  11.928 -0.5616 -0.3798  0.3497
87002SOL    HW178998   6.132  11.407  11.988  0.0271  0.7814  0.9972
87002SOL    HW278999   6.272  11.350  11.975  0.3224  1.4331  1.2269
87003SOL     OW79000  13.370   2.994  13.541 -0.2046 -0.1889  0.4223
87003SOL    HW179001  13.449   3.047  13.537  0.7425 -1.4098  1.8170
87003SOL    HW279002  13.353   2.984  13.635 -1.7219 -0.3864  0.1540
87004SOL     OW79003   9.876   8.281   9.311  0.5911 -0.3832  0.2850
87004SOL    HW179004   9.865   8.305   9.219 -0.2874 -1.5659  0.0539
87004SOL    HW279005   9.928   8.201   9.309  0.4660 -0.4838  0.8031
87005SOL     OW79006   4.602   9.168  12.753 -0.0425  0.2731 -0.2190
87005SOL    HW179007   4.659   9.245  12.754 -0.3843  0.6254 -2.5396
87005SOL    HW279008   4.637   9.113  12.683 -1.5056 -0.3259 -0.5174
87006SOL     OW79009   8.510  13.817   2.504 -0.3781  0.0219  0.4154
87006SOL    HW179010   8.466  13.811   2.419  2.1710  1.1197 -1.0780
87006SOL    HW279011   8.457  13.880   2.553  0.1894  2.4669 -1.8653
87007SOL     OW79012  10.971   5.101  11.707 -1.2591 -0.2303 -0.0634
87007SOL    HW179013  11.000   5.094  11.616 -1.4058 -0.2367 -0.1107
87007SOL    HW279014  11.001   5.021  11.749  1.0124  0.8627  0.5224
87008SOL     OW79015   5.277   7.870   8.544 -0.1530 -0.1427 -0.1935
87008SOL    HW179016   5.284   7.945   8.603  1.3385 -1.1612  0.9769
87008SOL    HW279017   5.214   7.812   8.587  1.6211 -1.3079  0.9528
87009SOL     OW79018  12.355   9.671   2.699  0.2727  0.6452  0.0775
87009SOL    HW179019  12.265   9.665   2.669  0.8329 -1.6149 -1.4025
87009SOL    HW279020  12.399   9.724   2.632  0.4725 -0.1298 -0.4194
87010SOL     OW79021  13.254   6.330   0.495  0.7438 -0.2839 -0.4762
87010SOL    HW179022  13.292   6.243   0.505  0.4278 -0.7051 -2.4539
87010SOL    HW279023  13.225   6.354   0.583  0.2484 -2.4640  0.0121
87011SOL     OW79024   2.978  12.182  11.252 -0.4580  0.2398 -0.4479
87011SOL    HW179025   2.919  12.250  11.219 -0.7547  0.1133 -0.1863
87011SOL    HW279026   3.062  12.200  11.210  0.8186  3.5789  2.9442
87012SOL     OW79027   8.606   1.519   9.314 -0.1065  0.5130 -0.5749
87012SOL    HW179028   8.583   1.446   9.256  0.4165 -0.2882  0.2022
87012SOL    HW279029   8.547   1.509   9.389  0.2589  0.6399 -0.2721
87013SOL     OW79030   4.144  10.830   8.292 -0.0279  0.1707  0.4303
87013SOL    HW179031   4.058  10.790   8.289 -1.1439  2.3856  0.6600
87013SOL    HW279032   4.157  10.867   8.205 -0.7471  2.4979  1.2239
87014SOL     OW79033  13.959   3.204   2.822  0.0088 -0.4654 -0.5098
87014SOL    HW179034  13.879   3.232   2.866 -0.0542  0.9322 -1.4738
87014SOL    HW279035  13.937   3.205   2.729  1.5242  1.3524 -0.9077
87015SOL     OW79036  11.103   8.133  13.646  0.0193  0.6249  0.0741
87015SOL    HW179037  11.110   8.159  13.554  1.8953 -0.4868 -0.1405
87015SOL    HW279038  11.088   8.039  13.643  1.2268  0.3834  0.8977
87016SOL     OW79039   3.060   1.288  13.722 -0.5038  0.5012  0.1554
87016SOL    HW179040   2.968   1.280  13.744 -0.1416 -0.4402  1.4375
87016SOL    HW279041   3.104   1.298  13.806  0.6710 -0.1659 -0.3560
87017SOL     OW79042  14.151   5.904  13.757 -0.0991 -0.4701 -0.1117
87017SOL    HW179043  14.245   5.890  13.749 -0.1629 -1.1780  0.2715
87017SOL    HW279044  14.126   5.951  13.678  0.6286 -0.0151 -0.0721
87018SOL     OW79045   3.745   2.550  12.446 -0.7839  0.3830 -1.0948
87018SOL    HW179046   3.695   2.499  12.509 -0.3990  1.3648  0.0502
87018SOL    HW279047   3.697   2.632  12.436  0.5016  1.3241 -0.0106
87019SOL     OW79048   7.520   6.592   6.763  0.0225 -0.5042  0.3203
87019SOL    HW179049   7.529   6.596   6.858 -1.3049 -0.8271  0.4851
87019SOL    HW279050   7.526   6.683   6.734  0.7227 -0.4304  0.6660
87020SOL     OW79051   4.683   3.596   8.894 -0.2965 -0.4531  0.4891
87020SOL    HW179052   4.588   3.588   8.903 -0.1543 -1.5072  1.2482
87020SOL    HW279053   4.718   3.562   8.976  0.7579 -0.3557  0.0981
87021SOL     OW79054   1.811   9.746   4.733  0.4324  0.3510 -0.6498
87021SOL    HW179055   1.762   9.802   4.793 -1.1749 -0.6173 -1.0055
87021SOL    HW279056   1.830   9.667   4.784  0.4483  0.1727 -0.9306
87022SOL     OW79057  11.886   7.903   1.633  0.4677  0.7448  0.0663
87022SOL    HW179058  11.904   7.864   1.548 -0.5490  0.5703 -0.0804
87022SOL    HW279059  11.892   7.998   1.617 -0.4591  0.7405 -0.3913
87023SOL     OW79060   0.621   7.172  10.349  0.3049  0.4093  0.4029
87023SOL    HW179061   0.598   7.259  10.317 -0.1827  0.0655 -0.1877
87023SOL    HW279062   0.716   7.174  10.358  0.2600  1.1316  0.7771
87024SOL     OW79063   2.695   0.457   9.953  0.2556 -0.1844 -0.4647
87024SOL    HW179064   2.758   0.432  10.021 -0.1945 -0.4371 -0.1348
87024SOL    HW279065   2.617   0.405   9.972 -0.0829  0.1859 -0.8176
87025SOL     OW79066   0.904   5.854   2.247  1.2916  0.0694  0.2719
87025SOL    HW179067   0.828   5.816   2.290  2.5923 -0.5275  2.1681
87025SOL    HW279068   0.979   5.813   2.291  2.7222  0.6699 -1.4825
87026SOL     OW79069  11.215   6.887  10.040 -0.3449  0.2781 -0.0407
87026SOL    HW179070  11.301   6.874  10.080 -0.8807 -3.0081  0.3780
87026SOL    HW279071  11.207   6.815   9.977 -2.4575  1.0206 -0.7009
87027SOL     OW79072   3.881  12.983   4.847  0.0685 -0.1334 -0.2746
87027SOL    HW179073   3.940  13.018   4.780 -0.7522  1.9699  0.0154
87027SOL    HW279074   3.821  12.926   4.799 -0.0311  0.7253 -1.2061
87028SOL     OW79075  12.903   0.587  10.851  0.0609  0.2234 -0.3729
87028SOL    HW179076  12.989   0.551  10.871 -0.0203 -0.4634 -1.2139
87028SOL    HW279077  12.848   0.561  10.925  0.7559  1.3872  0.5857
87029SOL     OW79078  13.089   0.695  13.241  0.5594  0.2126 -0.3526
87029SOL    HW179079  13.079   0.613  13.193 -0.3081 -0.4577  0.9108
87029SOL    HW279080  13.142   0.751  13.184  0.2349 -0.8302 -1.7056
87030SOL     OW79081   0.307  13.913   2.713 -0.0091 -0.5526 -0.2090
87030SOL    HW179082   0.336  13.861   2.788  0.2668 -2.1903 -1.3824
87030SOL    HW279083   0.386  13.954   2.679 -0.0913 -0.0328  0.2121
87031SOL     OW79084  11.611   2.298  12.456  0.6402 -0.0255 -0.1476
87031SOL    HW179085  11.684   2.270  12.400  1.0193  0.4480  0.1084
87031SOL    HW279086  11.625   2.252  12.538 -0.1647 -1.0739 -0.5694
87032SOL     OW79087   8.218   3.662  13.805  0.0554  0.0425 -0.6434
87032SOL    HW179088   8.149   3.597  13.788  0.7435 -0.7809 -0.3477
87032SOL    HW279089   8.287   3.640  13.743  0.0302  0.9297 -1.0061
87033SOL     OW79090   4.855  10.208   8.429  0.0762  0.1155  0.3665
87033SOL    HW179091   4.795  10.134   8.418  2.3496 -1.6940 -0.7138
87033SOL    HW279092   4.894  10.220   8.343  3.1013 -0.5129  1.5216
87034SOL     OW79093   9.662  10.416   2.135 -0.3474 -0.1360  0.2098
87034SOL    HW179094   9.610  10.482   2.180 -2.3871 -1.1425 -0.5750
87034SOL    HW279095   9.744  10.412   2.185 -1.4604  0.6748  2.2113
87035SOL     OW79096  13.949   1.431   1.843  0.4575 -0.1025 -0.2372
87035SOL    HW179097  14.028   1.461   1.889  1.0125  0.2933 -1.4094
87035SOL    HW279098  13.884   1.421   1.912  1.5226 -0.4235  0.7675
87036SOL     OW79099   3.476  11.054  13.252 -0.7555  0.4427 -0.4375
87036SOL    HW179100   3.571  11.048  13.252 -0.7840 -0.0825 -0.0037
87036SOL    HW279101   3.448  10.998  13.180 -0.7836 -0.3340  0.1714
87037SOL     OW79102   4.287   8.805   3.511 -0.1340  0.1152 -0.0733
87037SOL    HW179103   4.285   8.719   3.552 -1.9819  1.0221  1.8891
87037SOL    HW279104   4.230   8.796   3.434 -1.0500 -0.1951  0.6254
87038SOL     OW79105   2.240   6.621   4.100  0.0581 -0.5872 -0.1216
87038SOL    HW179106   2.303   6.652   4.035 -0.8623 -0.3466 -0.9144
87038SOL    HW279107   2.159   6.667   4.080  0.0015  0.2898  1.8575
87039SOL     OW79108  10.996   0.196   8.466 -0.2950  0.3344  0.1151
87039SOL    HW179109  11.071   0.180   8.523 -0.0317  0.8516 -0.0771
87039SOL    HW279110  11.026   0.264   8.406 -0.5189 -0.3063 -0.7420
87040SOL     OW79111   4.549  12.030  12.543 -0.1980  0.2093  0.2101
87040SOL    HW179112   4.579  12.086  12.615  2.4661 -0.3174 -0.3863
87040SOL    HW279113   4.576  12.077  12.464  1.1487 -1.3732 -0.3139
87041SOL     OW79114   7.690  13.390   0.971  0.8812  0.1259  0.8738
87041SOL    HW179115   7.741  13.351   0.900 -0.5475  1.9284 -1.2682
87041SOL    HW279116   7.635  13.319   1.003  1.9354 -0.8484  0.6005
87042SOL     OW79117   6.124  12.196   5.958 -0.0839 -0.3149  0.1183
87042SOL    HW179118   6.078  12.132   5.905 -1.7425  0.9415 -0.0110
87042SOL    HW279119   6.061  12.267   5.972  1.4560  0.9878  0.8272
87043SOL     OW79120   2.303   4.409   5.580 -0.0177  0.2946 -0.0787
87043SOL    HW179121   2.342   4.479   5.527  1.6308  2.4865  3.6038
87043SOL    HW279122   2.220   4.446   5.610 -1.7370 -1.5680 -2.2602
87044SOL     OW79123   1.939  13.115  12.752 -1.0033 -0.0954  0.1165
87044SOL    HW179124   1.859  13.084  12.795 -1.3707  1.3134  0.5044
87044SOL    HW279125   1.963  13.194  12.800  1.7560 -1.5121  1.2666
87045SOL     OW79126   4.250  13.797   5.113 -0.2681  0.6718  0.1442
87045SOL    HW179127   4.282  13.710   5.087 -0.7002  0.2724  0.9178
87045SOL    HW279128   4.303  13.820   5.189 -0.3252  0.9761  0.0915
87046SOL     OW79129   7.675   8.842   1.301  0.0081  0.5910 -0.3522
87046SOL    HW179130   7.668   8.762   1.352  0.3372 -0.0479 -1.2714
87046SOL    HW279131   7.703   8.908   1.364  4.1180 -0.9399 -0.2414
87047SOL     OW79132  10.845   2.238   5.373 -0.0388  0.3330 -0.0296
87047SOL    HW179133  10.915   2.236   5.307 -0.0317 -0.4166 -0.0118
87047SOL    HW279134  10.764   2.227   5.323 -0.3549  3.0540 -0.2651
87048SOL     OW79135   7.976  13.208   5.624 -0.2050 -0.0761 -0.9267
87048SOL    HW179136   7.993  13.302   5.627  0.6149 -0.2033 -1.3552
87048SOL    HW279137   8.061  13.168   5.639 -0.5744 -0.7590 -0.5982
87049SOL     OW79138   1.725   8.311   7.548  0.2769  0.0505 -0.1419
87049SOL    HW179139   1.750   8.396   7.511 -1.3853  0.0189 -1.4450
87049SOL    HW279140   1.769   8.247   7.493  0.7544  0.0438  0.2420
87050SOL     OW79141   3.439   0.502   9.821  0.2322 -0.2320  0.3951
87050SOL    HW179142   3.506   0.495   9.889 -0.3899  0.0711  1.0516
87050SOL    HW279143   3.374   0.436   9.845 -1.3146  1.6343  1.6375
87051SOL     OW79144   2.731   0.461  12.582  0.1740 -0.3821  0.3220
87051SOL    HW179145   2.682   0.449  12.500 -1.4128  1.7859  0.8642
87051SOL    HW279146   2.801   0.522  12.558  0.0115 -0.1391  0.4646
87052SOL     OW79147   1.940   7.337   9.548 -0.3236 -0.0386  0.0023
87052SOL    HW179148   1.865   7.367   9.600  0.3327 -0.6025  1.3091
87052SOL    HW279149   2.017   7.371   9.594  0.2726 -0.4116 -0.6921
87053SOL     OW79150  13.504   2.344  13.142  0.8413  0.2322 -0.7438
87053SOL    HW179151  13.551   2.420  13.177  0.9912 -0.5630  0.8665
87053SOL    HW279152  13.413   2.374  13.134  1.0696  0.8649 -1.0083
87054SOL     OW79153  12.025   7.828   4.292 -0.2261 -0.5124  0.0491
87054SOL    HW179154  12.042   7.810   4.384 -1.9813  0.8708  0.6915
87054SOL    HW279155  12.054   7.918   4.279 -2.3853  0.2395 -0.0156
87055SOL     OW79156  13.545   8.258   1.891  0.1746  0.1115 -0.7941
87055SOL    HW179157  13.536   8.346   1.853 -2.8235  0.0125 -0.5726
87055SOL    HW279158  13.558   8.201   1.815  0.4801  0.5794 -1.0961
87056SOL     OW79159   1.375  11.579  13.691  0.1799 -0.5617  0.3865
87056SOL    HW179160   1.330  11.544  13.614 -0.7314  0.8200  0.2535
87056SOL    HW279161   1.425  11.504  13.726 -1.2741 -1.8377 -0.1546
87057SOL     OW79162  11.927   6.637   4.302 -0.2429  0.4224 -0.0262
87057SOL    HW179163  11.989   6.692   4.350  0.2870  0.1288 -0.3738
87057SOL    HW279164  11.911   6.684   4.220  0.3245 -0.0062 -0.3883
87058SOL     OW79165  10.818   3.966   4.531  0.2755  0.3299 -0.3640
87058SOL    HW179166  10.841   3.881   4.496 -1.8547 -0.1734 -0.6858
87058SOL    HW279167  10.836   4.027   4.460 -0.3409 -0.1667 -0.9535
87059SOL     OW79168   0.754   6.208   7.320  0.8065 -0.7308  0.0388
87059SOL    HW179169   0.726   6.139   7.259  1.1460 -1.5512  0.7791
87059SOL    HW279170   0.689   6.206   7.390 -1.5982  2.5285 -1.8226
87060SOL     OW79171   4.939   9.902   7.677 -0.0777  0.4662 -0.1256
87060SOL    HW179172   4.883   9.885   7.601  1.4237 -0.6192 -1.0273
87060SOL    HW279173   5.026   9.878   7.648  0.6303  0.6485  1.7684
87061SOL     OW79174  12.023   6.444   0.428 -0.0871  0.3809 -0.7404
87061SOL    HW179175  12.002   6.537   0.431  4.8209  1.7341  0.9027
87061SOL    HW279176  11.981   6.407   0.506 -0.4291  1.6794 -0.2851
87062SOL     OW79177   2.212   3.637   4.314  0.3445  0.1980  0.0341
87062SOL    HW179178   2.263   3.687   4.378  1.5339 -0.4587 -0.3685
87062SOL    HW279179   2.130   3.619   4.359  0.5548  1.0513  0.8074
87063SOL     OW79180  11.832   3.826   6.084  0.3803  0.2129 -0.3518
87063SOL    HW179181  11.873   3.740   6.093  0.7695  0.4050 -0.2778
87063SOL    HW279182  11.738   3.808   6.089  0.3515 -0.4854 -2.3496
87064SOL     OW79183  11.609  11.475   4.826 -0.2327  0.1394  0.4292
87064SOL    HW179184  11.541  11.537   4.801  2.4817  2.5294 -1.5650
87064SOL    HW279185  11.614  11.413   4.754  0.8942  1.0923 -0.3434
87065SOL     OW79186   1.442   1.147   8.209 -0.0517  0.4727 -0.0940
87065SOL    HW179187   1.407   1.189   8.287  1.1293  5.0045 -1.7151
87065SOL    HW279188   1.375   1.159   8.143  0.6258  0.4479 -0.8005
87066SOL     OW79189   7.588   5.993   3.538 -0.4200 -0.2162  0.3440
87066SOL    HW179190   7.660   6.024   3.483 -0.8939 -0.8992 -0.6858
87066SOL    HW279191   7.592   5.897   3.531 -1.4743 -0.2611  0.1942
87067SOL     OW79192   2.020  10.239   4.975 -0.0616 -0.3234  0.7325
87067SOL    HW179193   2.085  10.304   5.003 -0.8641  1.5955 -1.5887
87067SOL    HW279194   1.987  10.202   5.057  2.4640  0.0697  2.0435
87068SOL     OW79195  13.958   7.748   1.262 -0.1491  0.3575 -0.2175
87068SOL    HW179196  13.885   7.711   1.214  0.6670 -1.0110 -0.4491
87068SOL    HW279197  13.983   7.826   1.211 -1.4208  0.8600 -0.1168
87069SOL     OW79198   2.027   9.114   6.302 -0.3482 -0.0738  0.2311
87069SOL    HW179199   2.014   9.208   6.291  1.1523  0.2075  0.7343
87069SOL    HW279200   2.005   9.097   6.393  0.0697 -0.0896  0.3287
87070SOL     OW79201   8.426  13.548   5.637 -0.0833  0.4951  0.1727
87070SOL    HW179202   8.376  13.486   5.585 -0.0500  0.1784  0.5142
87070SOL    HW279203   8.362  13.587   5.696  0.4759 -2.0736  2.7353
87071SOL     OW79204   0.933   7.899   5.190  0.2000  0.3818  0.2650
87071SOL    HW179205   0.936   7.871   5.099 -0.0678 -1.2282  0.7321
87071SOL    HW279206   0.848   7.943   5.198 -0.6331 -1.1543  0.1813
87072SOL     OW79207   3.412   6.081  13.488  0.1912 -0.1381  0.0911
87072SOL    HW179208   3.379   6.145  13.425  0.9016 -0.4482 -0.6187
87072SOL    HW279209   3.425   6.131  13.569 -0.1097  0.4173 -0.1993
87073SOL     OW79210  12.841   2.390  10.234  0.6894  0.1037  0.3928
87073SOL    HW179211  12.873   2.480  10.230 -0.6102  0.7033  2.3246
87073SOL    HW279212  12.809   2.373  10.145  0.5183  1.7397  0.0985
87074SOL     OW79213   0.998   9.886  13.294  0.4844  0.2918 -0.1313
87074SOL    HW179214   1.035   9.912  13.210  1.4523  0.5067  0.3495
87074SOL    HW279215   0.988   9.968  13.343 -1.0520  0.2891 -0.4038
87075SOL     OW79216  11.831   3.454  10.873  0.3339 -0.1098  0.3109
87075SOL    HW179217  11.784   3.519  10.821  2.0201 -0.6332 -1.9887
87075SOL    HW279218  11.845   3.497  10.958 -2.9748  0.5643  0.6649
87076SOL     OW79219   4.986  13.014   4.143  0.0876 -0.2026  0.2743
87076SOL    HW179220   5.009  12.925   4.171  0.7158 -0.3476 -0.6489
87076SOL    HW279221   5.070  13.060   4.139 -0.1512  0.2154  0.0204
87077SOL     OW79222   1.064   6.630  13.694  0.2019 -0.0340 -0.7156
87077SOL    HW179223   1.061   6.592  13.782 -1.0460  0.5198 -0.4894
87077SOL    HW279224   1.048   6.556  13.636  0.6879 -0.3449 -0.4629
87078SOL     OW79225  12.767  10.130   7.091  0.5874  0.4677  0.3065
87078SOL    HW179226  12.775  10.168   7.179  0.8088  1.6029 -0.2013
87078SOL    HW279227  12.854  10.098   7.070  0.2957 -0.8622  0.9414
87079SOL     OW79228   9.204   0.831  12.228  0.4352 -0.0558 -0.0232
87079SOL    HW179229   9.269   0.891  12.265 -0.6577  0.8525  0.5085
87079SOL    HW279230   9.145   0.888  12.179 -1.6346 -0.4013  1.9144
87080SOL     OW79231   2.862   6.480   7.614  0.1232  0.4892 -0.4167
87080SOL    HW179232   2.872   6.453   7.706 -0.6259 -0.8188 -0.6940
87080SOL    HW279233   2.768   6.483   7.600  0.2316 -0.8435 -1.5580
87081SOL     OW79234   9.336   7.337   0.272  0.2989 -0.4403  0.1635
87081SOL    HW179235   9.431   7.328   0.280  0.1104 -1.0380  2.2879
87081SOL    HW279236   9.304   7.248   0.262 -0.0878 -0.2941  0.0799
87082SOL     OW79237   8.538   4.229   7.660  0.1001 -0.0361  0.2356
87082SOL    HW179238   8.515   4.159   7.599 -0.2047  0.6031 -0.3905
87082SOL    HW279239   8.622   4.201   7.698  0.2923 -0.4463 -0.4720
87083SOL     OW79240   0.782   8.883   4.040  0.3998  0.1115  0.0865
87083SOL    HW179241   0.699   8.866   3.997  0.5508  1.3081 -0.7180
87083SOL    HW279242   0.803   8.801   4.085 -0.7780 -0.4814 -0.4129
87084SOL     OW79243   2.835   3.786   3.835  0.2943 -0.3285 -0.1182
87084SOL    HW179244   2.853   3.729   3.910  2.7642  1.4487  0.7700
87084SOL    HW279245   2.771   3.849   3.866  0.4019 -0.3408  0.1293
87085SOL     OW79246  13.096  12.194   0.406 -0.1791 -0.3770  0.6194
87085SOL    HW179247  13.025  12.133   0.423 -0.9236  0.1006 -0.6162
87085SOL    HW279248  13.176  12.143   0.421 -0.7790 -1.0997  1.4148
87086SOL     OW79249   8.403  13.743   3.185  0.0791 -0.1239  0.7842
87086SOL    HW179250   8.315  13.729   3.149  0.8553 -0.8562 -0.9461
87086SOL    HW279251   8.426  13.831   3.157  0.6029 -0.6192 -0.4152
87087SOL     OW79252   3.064  11.213   3.319  0.3633 -0.0488  0.5631
87087SOL    HW179253   3.123  11.173   3.383  2.1679 -1.6151 -1.9070
87087SOL    HW279254   3.116  11.221   3.239 -2.2269  0.2945 -1.2283
87088SOL     OW79255   1.425   2.606  10.955 -0.2509 -0.0027  0.0070
87088SOL    HW179256   1.424   2.520  10.997  2.2811  0.2710  0.7589
87088SOL    HW279257   1.410   2.667  11.027 -0.3586  0.2735 -0.2492
87089SOL     OW79258  13.107   5.508   4.297  0.3015  0.1906  0.2738
87089SOL    HW179259  13.059   5.585   4.328  0.5337  0.5223 -0.1829
87089SOL    HW279260  13.115   5.521   4.203  0.2952 -0.4219  0.1830
87090SOL     OW79261   7.140   0.048  11.997  0.3746 -0.1703  0.7137
87090SOL    HW179262   7.156   0.033  12.090 -1.6480  0.3992  1.2159
87090SOL    HW279263   7.065  -0.008  11.976 -0.7082  1.4233  0.0664
87091SOL     OW79264   3.060   9.913   3.326 -0.2525  0.4093  0.1817
87091SOL    HW179265   3.021   9.978   3.268 -0.2571  0.2677  0.0240
87091SOL    HW279266   3.047   9.948   3.414  0.7720  1.1626  0.0371
87092SOL     OW79267   2.273  10.271   2.517 -0.5211  0.1759 -0.6555
87092SOL    HW179268   2.226  10.227   2.588 -0.4808  0.2799 -0.5640
87092SOL    HW279269   2.320  10.342   2.560  1.3155 -1.1062 -0.4369
87093SOL     OW79270   5.061   2.615   8.487 -0.5229 -0.1313  0.2007
87093SOL    HW179271   5.143   2.568   8.503 -1.2919 -0.7431  2.8504
87093SOL    HW279272   5.022   2.572   8.411  1.7211  0.4339 -1.3953
87094SOL     OW79273   1.357  11.801   4.384 -0.5255  0.6717 -0.0203
87094SOL    HW179274   1.446  11.784   4.417 -0.0163  1.9348 -0.6688
87094SOL    HW279275   1.339  11.729   4.325  0.1219  0.4674  0.0272
87095SOL     OW79276  14.123   5.379  10.660 -0.5189  0.1870  0.0247
87095SOL    HW179277  14.052   5.347  10.605 -0.8559  0.8001  0.0999
87095SOL    HW279278  14.152   5.460  10.618 -1.1502  0.9733  1.0249
87096SOL     OW79279   3.583  10.211  12.850 -0.2509  0.0521 -0.2066
87096SOL    HW179280   3.655  10.164  12.807 -0.1181  0.5628 -0.5428
87096SOL    HW279281   3.505  10.185  12.800  0.1309  2.1141 -2.0252
87097SOL     OW79282  10.229  13.291  14.089  0.8454 -0.2981 -0.3134
87097SOL    HW179283  10.195  13.325  14.171  0.7521 -0.9426 -0.0798
87097SOL    HW279284  10.237  13.368  14.032 -0.1949 -0.0208 -0.0926
87098SOL     OW79285  10.242   6.368   7.323 -0.5391  0.1488 -0.0152
87098SOL    HW179286  10.168   6.428   7.327  0.3307  1.2513  0.2121
87098SOL    HW279287  10.308   6.408   7.379  0.0696 -1.0506  0.1636
87099SOL     OW79288   5.409   1.383  11.228  0.1167  0.2441  0.3430
87099SOL    HW179289   5.353   1.435  11.286 -0.3563  1.3276 -1.0123
87099SOL    HW279290   5.427   1.442  11.154 -0.0028 -1.3401 -1.0152
87100SOL     OW79291   0.340   1.965   4.490 -0.1966  0.0900  0.1282
87100SOL    HW179292   0.403   1.932   4.554 -1.3651 -0.2377  1.1558
87100SOL    HW279293   0.256   1.927   4.517 -0.6713 -0.3748 -1.8518
87101SOL     OW79294  10.156   4.630   0.098  0.0445  0.1769 -0.0311
87101SOL    HW179295  10.153   4.691   0.173 -0.1727 -0.0014  0.1062
87101SOL    HW279296  10.066   4.599   0.089  0.4184 -1.1975  0.7855
87102SOL     OW79297   0.171   1.458   0.888  0.2376  0.0012 -0.0662
87102SOL    HW179298   0.087   1.470   0.933  0.4235 -0.8733  0.5377
87102SOL    HW279299   0.189   1.365   0.896  0.4322 -0.1327 -1.7090
87103SOL     OW79300  13.895   7.528   9.904  0.5959 -0.4027  0.2066
87103SOL    HW179301  13.962   7.462   9.887  0.2399 -1.1996  1.7236
87103SOL    HW279302  13.861   7.506   9.990 -2.0791 -0.4071 -0.7601
87104SOL     OW79303   7.609   7.871   8.496  0.0718  0.2188  0.3538
87104SOL    HW179304   7.659   7.950   8.513  1.0058 -0.3134  0.1243
87104SOL    HW279305   7.674   7.802   8.486 -0.7544 -0.7292  1.2722
87105SOL     OW79306   1.980  11.628   1.436  0.0374  0.6864  0.0700
87105SOL    HW179307   2.035  11.699   1.403  0.7613  0.6944  1.2329
87105SOL    HW279308   2.043  11.563   1.468 -0.6190 -0.3087 -0.6033
87106SOL     OW79309  10.698   7.746   7.749 -0.3766  0.0416 -0.3059
87106SOL    HW179310  10.697   7.775   7.840 -1.2576  1.2057 -0.6547
87106SOL    HW279311  10.607   7.725   7.729 -0.2757  0.2550 -1.0396
87107SOL     OW79312   4.299   9.638   3.975  0.1001  0.2239 -0.3211
87107SOL    HW179313   4.245   9.586   4.035 -0.1814  0.7881 -0.0712
87107SOL    HW279314   4.239   9.707   3.943  1.0091  1.7228  1.0493
87108SOL     OW79315   7.326   8.340   3.494  0.1628  0.1284  0.4162
87108SOL    HW179316   7.401   8.284   3.475 -1.3399 -1.7051 -0.3681
87108SOL    HW279317   7.330   8.354   3.589  0.4875 -1.4982  0.6676
87109SOL     OW79318  10.744  11.347   5.828  0.0161 -0.3387  0.2358
87109SOL    HW179319  10.656  11.315   5.849 -0.2331  1.1221  1.7033
87109SOL    HW279320  10.801  11.302   5.890  0.0721 -0.0957  0.3610
87110SOL     OW79321  13.228   8.800   7.763 -0.6183 -0.6431 -0.0662
87110SOL    HW179322  13.194   8.768   7.679  0.4203 -0.6908 -0.4916
87110SOL    HW279323  13.271   8.882   7.741 -1.0742 -0.2258  0.5824
87111SOL     OW79324   2.825   3.403   7.025  0.2311  0.7736 -0.2752
87111SOL    HW179325   2.867   3.389   6.941 -0.4920  2.5124 -0.9721
87111SOL    HW279326   2.850   3.492   7.050  0.1501  0.4176  1.1935
87112SOL     OW79327   9.779   8.310   8.954  0.0742  0.3952  0.1452
87112SOL    HW179328   9.719   8.375   8.918  0.0857  0.4669  0.2566
87112SOL    HW279329   9.849   8.303   8.889 -0.7904 -0.7632 -0.7202
87113SOL     OW79330  12.263   2.609   9.331  0.1747  0.4955  0.5966
87113SOL    HW179331  12.171   2.635   9.330 -0.4356 -1.4720  0.5709
87113SOL    HW279332  12.267   2.541   9.399  1.5248  0.2743  0.3183
87114SOL     OW79333  13.978   4.580  10.760 -0.0693  0.2963  0.3437
87114SOL    HW179334  14.051   4.542  10.712 -1.4157 -0.8114 -0.9615
87114SOL    HW279335  13.946   4.508  10.815  0.3394  1.0201  1.5442
87115SOL     OW79336   2.959   2.870   6.358 -0.0855 -0.1834 -0.2949
87115SOL    HW179337   2.987   2.938   6.297  1.4279 -1.6218 -1.2767
87115SOL    HW279338   3.028   2.867   6.425  0.0549 -0.9935 -0.4688
87116SOL     OW79339   4.772   1.536   3.709  0.9765 -0.0260  0.2544
87116SOL    HW179340   4.708   1.482   3.663 -0.1530 -0.4322  2.1939
87116SOL    HW279341   4.854   1.486   3.705  0.5096 -0.7790  0.0355
87117SOL     OW79342  13.183  14.018   6.342  0.4274  0.4049 -0.1078
87117SOL    HW179343  13.104  13.974   6.375 -0.5908  1.0938 -1.4957
87117SOL    HW279344  13.190  14.097   6.395 -0.4976  0.9079 -0.7092
87118SOL     OW79345   3.357   9.782   9.261  0.4170  0.8524 -0.8631
87118SOL    HW179346   3.300   9.706   9.268 -0.7723  1.8247  0.9355
87118SOL    HW279347   3.441   9.753   9.297 -0.1479  0.4749  0.1908
87119SOL     OW79348   5.725   9.616   2.299  0.5330  0.4934 -0.0046
87119SOL    HW179349   5.718   9.557   2.375  3.0995  0.6547  0.4465
87119SOL    HW279350   5.777   9.567   2.236 -1.9818  0.1635 -1.9830
87120SOL     OW79351  10.565  11.522   2.059  0.4279 -0.3646  0.3000
87120SOL    HW179352  10.643  11.494   2.107  0.7504  0.6803  0.4318
87120SOL    HW279353  10.571  11.478   1.975  2.3393  1.2979 -0.5309
87121SOL     OW79354   0.363   0.010   7.210  0.8927  0.7885  0.3897
87121SOL    HW179355   0.407  -0.053   7.153 -0.2710  0.1100  0.2250
87121SOL    HW279356   0.421   0.087   7.209  1.5961  0.2682 -0.5746
87122SOL     OW79357   5.523  12.729   0.330 -0.3973  0.1824 -0.2446
87122SOL    HW179358   5.536  12.822   0.344 -0.3526  0.0468  0.6973
87122SOL    HW279359   5.611  12.691   0.335 -0.0471  0.3510 -3.1333
87123SOL     OW79360   8.141   6.546   5.768  0.3778  0.2306 -0.2919
87123SOL    HW179361   8.155   6.628   5.721  0.7796  0.0157 -0.5544
87123SOL    HW279362   8.221   6.495   5.753  0.3363 -0.0168  0.2682
87124SOL     OW79363   2.955  11.479  11.662 -0.2195 -0.3057 -0.6221
87124SOL    HW179364   3.001  11.545  11.610 -0.5801  0.1339 -0.3921
87124SOL    HW279365   2.862  11.491  11.640 -0.2285 -1.2491 -1.1539
87125SOL     OW79366  10.617   7.181   3.002  0.4726 -0.5747  0.2997
87125SOL    HW179367  10.688   7.159   3.062 -0.9026  0.3836  2.4020
87125SOL    HW279368  10.537   7.163   3.052 -0.7186  2.1550 -0.4529
87126SOL     OW79369   0.091  11.555   9.080  0.4207 -0.0608 -0.1165
87126SOL    HW179370   0.005  11.534   9.044  0.4256  1.5865 -1.2049
87126SOL    HW279371   0.153  11.527   9.012  0.7300 -0.8814  0.4921
87127SOL     OW79372   3.192   7.901   8.196 -0.0485 -0.2440 -0.3391
87127SOL    HW179373   3.145   7.819   8.182 -0.9737  0.0590  0.8235
87127SOL    HW279374   3.263   7.878   8.256 -0.9930 -0.0155  0.9147
87128SOL     OW79375  12.796   7.260   9.079 -0.7337 -0.0150  0.3338
87128SOL    HW179376  12.716   7.250   9.130  0.2901  1.9935  2.5068
87128SOL    HW279377  12.865   7.274   9.144  0.8271  1.7318 -1.5508
87129SOL     OW79378   8.108   3.801   2.951 -0.0258 -0.4279  0.0445
87129SOL    HW179379   8.078   3.794   2.861 -0.2597  0.6729  0.0231
87129SOL    HW279380   8.177   3.734   2.959 -1.2670 -1.8134 -0.3843
87130SOL     OW79381   4.128   2.053   5.569  0.2838 -0.2381 -0.1334
87130SOL    HW179382   4.181   2.015   5.639  0.0278 -3.4122 -1.4829
87130SOL    HW279383   4.185   2.119   5.529  1.5118 -0.4256  1.2152
87131SOL     OW79384   9.663   3.108   5.675  0.3308 -0.3441  0.1571
87131SOL    HW179385   9.709   3.104   5.759  1.1400  0.6605 -0.2200
87131SOL    HW279386   9.626   3.020   5.664 -0.6687 -0.2115  2.0238
87132SOL     OW79387  10.926  11.532   2.682 -0.2970  0.1260 -0.1085
87132SOL    HW179388  10.923  11.624   2.655  0.2040 -0.2293 -1.5085
87132SOL    HW279389  10.863  11.525   2.753  0.4271  1.7753  0.7388
87133SOL     OW79390   2.017   7.845   3.480 -0.2402 -0.6399  0.3033
87133SOL    HW179391   1.974   7.876   3.560 -0.0079 -2.4965  1.2116
87133SOL    HW279392   2.079   7.778   3.510  1.2567 -0.0283 -1.2650
87134SOL     OW79393  12.253   0.715   4.416 -0.2880  0.4609  0.4706
87134SOL    HW179394  12.290   0.661   4.346 -2.7423  0.4277 -0.9156
87134SOL    HW279395  12.329   0.759   4.455  1.2124  0.5169 -2.2496
87135SOL     OW79396   2.464  14.065  10.932 -0.3346  0.1871 -0.0003
87135SOL    HW179397   2.545  14.099  10.968  1.7229 -1.6961 -2.4071
87135SOL    HW279398   2.454  13.979  10.973  0.1362 -0.4806 -1.2026
87136SOL     OW79399   9.330   8.105  13.319 -0.2671  0.5812  0.2814
87136SOL    HW179400   9.411   8.092  13.369  0.4370 -1.3310 -1.2273
87136SOL    HW279401   9.261   8.072  13.376  0.0524  1.7871  1.3966
87137SOL     OW79402   5.755   7.994  13.579 -0.2097  0.1842  0.0465
87137SOL    HW179403   5.697   7.918  13.579  0.2077 -0.1621  1.6278
87137SOL    HW279404   5.841   7.959  13.554  0.2230 -0.1085  1.8011
87138SOL     OW79405   4.215   2.710   0.354 -0.1837 -0.3322  0.1004
87138SOL    HW179406   4.214   2.615   0.358 -2.0050 -0.3302  0.3356
87138SOL    HW279407   4.177   2.731   0.269 -0.0051  0.1897  0.1454
87139SOL     OW79408   3.662  13.449  13.055 -0.2818 -0.0437 -0.6966
87139SOL    HW179409   3.750  13.485  13.047 -0.3727  0.3436 -0.0351
87139SOL    HW279410   3.610  13.500  12.993  0.1271 -0.8660 -1.7312
87140SOL     OW79411   9.622  11.838  11.781 -0.1072  0.0323  0.1728
87140SOL    HW179412   9.658  11.896  11.848  1.1376 -0.0180 -0.4219
87140SOL    HW279413   9.697  11.788  11.749 -0.9627 -1.1218 -0.1152
87141SOL     OW79414   8.872   2.471   7.930  0.6821  0.0292 -0.2434
87141SOL    HW179415   8.915   2.482   8.014 -0.0219 -1.7080  0.4086
87141SOL    HW279416   8.928   2.516   7.867  1.7981  0.4275  1.0011
87142SOL     OW79417  12.625   0.148   5.308 -0.0520  0.7961  0.1031
87142SOL    HW179418  12.643   0.096   5.387  2.8319 -0.3640 -1.2017
87142SOL    HW279419  12.559   0.098   5.261 -1.3331  1.1772  1.4199
87143SOL     OW79420   0.407  10.052  12.867  0.9786  0.0277 -0.2625
87143SOL    HW179421   0.397  10.027  12.959 -0.9054 -1.1684 -0.7193
87143SOL    HW279422   0.501  10.067  12.856  1.5496 -1.8090  1.3923
87144SOL     OW79423   6.163   4.253   8.141 -0.1575  0.5961 -0.3575
87144SOL    HW179424   6.081   4.253   8.090  0.7186 -0.3327 -1.8601
87144SOL    HW279425   6.201   4.167   8.123  0.7637  0.7012  0.9941
87145SOL     OW79426  10.798   7.658  13.416 -0.2212  0.2612  0.2266
87145SOL    HW179427  10.766   7.577  13.455 -0.0355  0.2076  0.2705
87145SOL    HW279428  10.873   7.631  13.362  0.8469  0.5942  1.4870
87146SOL     OW79429  12.397   1.249   1.619  0.5151 -0.4576 -0.4846
87146SOL    HW179430  12.491   1.253   1.637  0.0239  0.0279  2.4188
87146SOL    HW279431  12.371   1.162   1.650  0.3214 -1.6670 -3.6302
87147SOL     OW79432  10.826  10.542  12.732  0.1927 -0.2822  0.1304
87147SOL    HW179433  10.862  10.521  12.818  0.1847 -1.5909 -0.1744
87147SOL    HW279434  10.775  10.622  12.747  1.5054  0.4383  0.9863
87148SOL     OW79435   1.035   0.640  11.519 -0.3327 -0.3059  0.1566
87148SOL    HW179436   1.106   0.638  11.455  0.0953  0.3293  0.6005
87148SOL    HW279437   1.001   0.550  11.520  1.0322 -0.8364  0.5603
87149SOL     OW79438   0.446   0.634   3.644  0.1550 -0.0132 -0.0588
87149SOL    HW179439   0.432   0.539   3.635  2.3504 -0.3486 -0.4817
87149SOL    HW279440   0.482   0.645   3.731 -1.1922  0.6122  0.4392
87150SOL     OW79441   3.185  10.071   4.418 -0.3758  0.1833  0.3144
87150SOL    HW179442   3.193  10.165   4.432 -1.1353  0.3414 -0.2907
87150SOL    HW279443   3.208  10.058   4.326 -1.7755 -0.0216 -0.0245
87151SOL     OW79444   5.871  12.112   2.616  0.1284 -0.7963  0.9437
87151SOL    HW179445   5.954  12.125   2.661  0.1983  0.3587  0.4971
87151SOL    HW279446   5.812  12.080   2.685  0.3254  0.6039  1.7933
87152SOL     OW79447  11.630   6.853   4.004  0.1478 -0.2183 -0.3872
87152SOL    HW179448  11.595   6.905   4.076  0.4827  0.2544 -0.5562
87152SOL    HW279449  11.563   6.788   3.985 -0.0564 -0.1686  0.1691
87153SOL     OW79450  11.737   2.068  11.323  0.5500 -0.0630  0.2438
87153SOL    HW179451  11.644   2.046  11.331  0.7865 -0.4582  2.9074
87153SOL    HW279452  11.770   2.008  11.256 -1.0146 -0.1228 -0.5385
87154SOL     OW79453   9.983   0.064   9.726  0.4206 -0.0654  0.2290
87154SOL    HW179454   9.916   0.104   9.780  1.2112 -0.4589  1.5474
87154SOL    HW279455   9.934   0.008   9.665 -0.4696  0.1251  0.7517
87155SOL     OW79456   7.105   0.107  13.165  0.4254 -0.0443 -0.0971
87155SOL    HW179457   7.032   0.047  13.180  0.2711 -0.1053 -1.0280
87155SOL    HW279458   7.171   0.055  13.119  0.3171  0.4590 -0.8466
87156SOL     OW79459   3.886  12.344   2.170  0.0245 -0.2628 -0.0088
87156SOL    HW179460   3.802  12.385   2.147 -0.5737 -1.3303  0.2476
87156SOL    HW279461   3.864  12.274   2.231  1.0122 -1.0917 -0.5641
87157SOL     OW79462   0.427   1.501   4.334  0.3525  0.3037  0.3397
87157SOL    HW179463   0.354   1.507   4.273  1.5876  0.0704 -1.2081
87157SOL    HW279464   0.396   1.440   4.402 -0.3899 -0.8914 -1.0192
87158SOL     OW79465   7.235   9.277   3.983 -0.4235 -0.4581  0.8833
87158SOL    HW179466   7.320   9.275   3.940  0.0677  0.4437  1.7436
87158SOL    HW279467   7.254   9.258   4.075 -0.9191  1.1522  1.3640
87159SOL     OW79468   6.375   6.722   2.361  0.1239 -0.0568 -0.3500
87159SOL    HW179469   6.314   6.675   2.305  1.6790 -0.4399 -1.7822
87159SOL    HW279470   6.415   6.654   2.416 -0.5419  0.1669  0.4395
87160SOL     OW79471  11.956  10.759   1.778 -0.3366 -0.0866  0.4926
87160SOL    HW179472  12.033  10.709   1.803  0.4089  0.7819 -0.0288
87160SOL    HW279473  11.939  10.817   1.853 -0.8457 -0.6841  0.8499
87161SOL     OW79474   8.391   1.883   2.471 -0.0936  0.2365 -0.8187
87161SOL    HW179475   8.475   1.867   2.515 -0.4268  0.5966 -0.0359
87161SOL    HW279476   8.387   1.816   2.404  0.4729 -0.2787 -0.3569
87162SOL     OW79477   2.059   3.918   9.404  0.2303  0.1790  0.2475
87162SOL    HW179478   1.986   3.881   9.355 -0.0535  0.5197  0.4134
87162SOL    HW279479   2.121   3.845   9.412 -0.7756 -0.5864  1.4769
87163SOL     OW79480   9.451   8.217   5.025 -0.5575  0.1858  0.5142
87163SOL    HW179481   9.409   8.236   4.942 -1.8255  1.7961  1.4734
87163SOL    HW279482   9.475   8.302   5.061  2.5639 -0.5890  0.5696
87164SOL     OW79483   8.549   2.378   1.526  0.2632  0.4753  0.1246
87164SOL    HW179484   8.614   2.358   1.593  2.1647  1.8691 -1.1944
87164SOL    HW279485   8.533   2.294   1.482  1.7443  0.2124  0.0362
87165SOL     OW79486   1.394  10.187  13.639 -0.4886  0.1788 -0.0949
87165SOL    HW179487   1.468  10.247  13.629 -0.9069  0.7534  0.1984
87165SOL    HW279488   1.367  10.197  13.730  0.8384 -2.1171  0.6184
87166SOL     OW79489   0.160  13.614   5.557  0.8100 -0.4022 -0.2483
87166SOL    HW179490   0.188  13.530   5.520  0.5863 -1.1874  1.2656
87166SOL    HW279491   0.134  13.667   5.481  0.5224 -1.8629 -1.2101
87167SOL     OW79492  13.181   6.951   2.150 -0.3413 -0.0868  0.3982
87167SOL    HW179493  13.175   6.940   2.245  1.6193 -0.5976  0.5100
87167SOL    HW279494  13.119   6.887   2.114  1.1334 -2.1766  1.3292
87168SOL     OW79495   2.732   1.772  13.131  0.2450 -0.2746  0.4174
87168SOL    HW179496   2.715   1.820  13.212  0.6527  0.3232  0.1571
87168SOL    HW279497   2.647   1.769  13.086  0.2963  0.5456  0.2574
87169SOL     OW79498   5.704   1.687   7.132 -0.1312 -0.7898 -0.0909
87169SOL    HW179499   5.706   1.735   7.215  0.7906 -0.1261 -0.4868
87169SOL    HW279500   5.763   1.613   7.145  0.3032 -0.4752 -0.2844
87170SOL     OW79501  11.584  10.104   2.953  0.5193 -0.1215  0.2686
87170SOL    HW179502  11.547  10.129   3.037 -2.1981 -2.3638 -0.1107
87170SOL    HW279503  11.511  10.065   2.905  3.0053 -3.5295 -1.1815
87171SOL     OW79504   7.877   9.735   3.075 -0.0897 -0.0994 -0.6283
87171SOL    HW179505   7.921   9.651   3.063 -0.5788 -0.4609  0.0606
87171SOL    HW279506   7.803   9.733   3.014  1.3452  0.9207 -2.5415
87172SOL     OW79507   4.847  11.236   6.385  0.3402 -0.7090  0.1542
87172SOL    HW179508   4.791  11.284   6.446  1.8396 -0.2798  1.2525
87172SOL    HW279509   4.859  11.150   6.424  1.5688 -0.3266  0.6771
87173SOL     OW79510  10.836  10.415  12.075  0.2728 -0.1898  0.3105
87173SOL    HW179511  10.772  10.359  12.031  0.6893 -0.5728  0.1821
87173SOL    HW279512  10.786  10.492  12.102 -0.3072 -0.6175  0.4827
87174SOL     OW79513  12.789   8.269   1.228  0.3538 -0.1680  0.4304
87174SOL    HW179514  12.819   8.292   1.317 -0.0316 -0.9369  0.7656
87174SOL    HW279515  12.734   8.343   1.202  0.5549  0.1124  0.7864
87175SOL     OW79516   6.654   9.824   5.944 -0.9347 -0.2252 -0.7218
87175SOL    HW179517   6.597   9.749   5.959 -0.0014 -0.5939  1.3567
87175SOL    HW279518   6.665   9.864   6.031  1.4790  0.1482 -1.1244
87176SOL     OW79519   0.165   9.781  11.885  0.0562  0.3125  0.1715
87176SOL    HW179520   0.154   9.755  11.794  2.5578  0.1918 -0.1674
87176SOL    HW279521   0.181   9.875  11.882 -0.4888  0.4287  0.5777
87177SOL     OW79522   9.881   7.079   2.685 -0.0794  0.0484 -0.0679
87177SOL    HW179523   9.974   7.097   2.701 -0.0046 -1.8629  2.2097
87177SOL    HW279524   9.835   7.138   2.745 -0.1669 -1.2274  1.1574
87178SOL     OW79525   7.909   0.757   0.433  0.1088 -0.1072 -0.2470
87178SOL    HW179526   7.894   0.739   0.526  2.8283  0.6105  0.4153
87178SOL    HW279527   7.936   0.673   0.397 -0.6148 -0.3077 -0.3511
87179SOL     OW79528   1.460  11.281   9.555  0.2168  0.4836 -0.0378
87179SOL    HW179529   1.399  11.254   9.486  0.0881 -0.8867  0.5959
87179SOL    HW279530   1.506  11.201   9.580  1.2221  1.2180  0.5526
87180SOL     OW79531   4.611   1.870   0.871 -0.3392  0.0677  0.1872
87180SOL    HW179532   4.676   1.824   0.924 -0.0343  0.6780  0.3479
87180SOL    HW279533   4.556   1.800   0.835  1.2185 -0.5616 -1.0620
87181SOL     OW79534   3.651   9.283   2.301  0.0327  0.3631  0.0672
87181SOL    HW179535   3.567   9.323   2.325 -1.2352 -0.8696 -2.0432
87181SOL    HW279536   3.635   9.189   2.307  1.3647  0.1089 -0.1154
87182SOL     OW79537   7.124   9.791  12.859 -0.0599  0.5767  0.0781
87182SOL    HW179538   7.055   9.857  12.853 -0.5618  0.2350  1.5556
87182SOL    HW279539   7.095   9.733  12.929  1.1427 -0.3007 -0.1177
87183SOL     OW79540   7.052   7.610   1.226  0.1506  0.2443 -0.0283
87183SOL    HW179541   6.984   7.572   1.171  0.4367  1.6170 -1.3926
87183SOL    HW279542   7.042   7.565   1.310 -1.1180 -1.0125 -0.7980
87184SOL     OW79543  11.585  10.792   3.933 -0.3387 -0.5406  0.1913
87184SOL    HW179544  11.604  10.753   4.018 -2.0810 -0.4850  0.6554
87184SOL    HW279545  11.606  10.885   3.945 -1.5152 -0.3467  0.9095
87185SOL     OW79546   1.845   9.268   6.132  0.6718 -0.5399  0.0271
87185SOL    HW179547   1.826   9.280   6.226  1.2634 -1.0999  0.2261
87185SOL    HW279548   1.768   9.304   6.088  0.4594 -0.1095  0.7225
87186SOL     OW79549   9.530  13.508   6.273 -0.0938 -0.4823  0.1859
87186SOL    HW179550   9.551  13.593   6.313  0.9807  0.9295 -3.0786
87186SOL    HW279551   9.572  13.444   6.331  1.3451  1.3879  1.3456
87187SOL     OW79552   8.082  10.895   4.333 -0.2867 -0.0621  0.1552
87187SOL    HW179553   8.004  10.925   4.287 -0.8320 -0.6822  0.6521
87187SOL    HW279554   8.051  10.822   4.387  0.6739 -0.4361  0.2187
87188SOL     OW79555  13.699   0.660   8.534  0.2215 -0.3232 -0.1652
87188SOL    HW179556  13.673   0.644   8.444  0.4147 -1.0217 -0.0984
87188SOL    HW279557  13.622   0.698   8.575  0.4316  0.9181 -0.8663
87189SOL     OW79558   4.833   8.043   8.068 -0.2576  1.0237 -0.1154
87189SOL    HW179559   4.740   8.049   8.043 -0.0297  1.7209 -0.8517
87189SOL    HW279560   4.834   7.985   8.144 -0.9453 -1.5694 -1.9483
87190SOL     OW79561  10.461   8.878   3.207  0.1770  1.2589 -0.5109
87190SOL    HW179562  10.368   8.874   3.226  0.1630  0.6117 -0.6706
87190SOL    HW279563  10.475   8.808   3.143  1.1182 -0.0448  1.0220
87191SOL     OW79564   8.299   0.191   9.711 -0.7275  0.2820  0.2065
87191SOL    HW179565   8.242   0.264   9.737 -3.0738 -2.6747  4.4919
87191SOL    HW279566   8.379   0.205   9.762 -0.5079  0.6993 -0.2486
87192SOL     OW79567   9.360   9.894   8.727  0.0207 -0.5617 -0.2561
87192SOL    HW179568   9.418   9.836   8.776  0.0638 -1.4627 -1.3495
87192SOL    HW279569   9.296   9.923   8.791  0.3631 -1.3274  0.4479
87193SOL     OW79570  12.239   3.834  10.432 -0.2510  0.6169 -0.0721
87193SOL    HW179571  12.234   3.823  10.527  0.4772 -1.7064 -0.2404
87193SOL    HW279572  12.147   3.840  10.404 -0.5376 -0.0321  0.6714
87194SOL     OW79573   2.593  13.516   9.808 -0.7713  0.5750 -0.0428
87194SOL    HW179574   2.670  13.525   9.863 -0.4140 -0.9082 -0.2550
87194SOL    HW279575   2.616  13.561   9.726  0.6907 -1.5264 -0.8715
87195SOL     OW79576   0.575   8.168  13.763  0.1373 -0.2002  0.2977
87195SOL    HW179577   0.601   8.134  13.677  1.5155  0.7283  0.3100
87195SOL    HW279578   0.558   8.090  13.815 -1.0819 -0.7755 -0.9016
87196SOL     OW79579   5.563   8.034  11.860 -0.4870 -0.3293  0.2895
87196SOL    HW179580   5.621   8.107  11.838 -0.9008  0.0047  0.2988
87196SOL    HW279581   5.532   8.002  11.775  0.8052 -1.4247  0.1930
87197SOL     OW79582   9.597   9.099   7.719  0.6863  0.5675  0.4761
87197SOL    HW179583   9.568   9.065   7.803  0.9568 -0.8516  0.0254
87197SOL    HW279584   9.532   9.165   7.695 -0.3036 -0.1932  1.0211
87198SOL     OW79585   5.295   8.738   6.218 -0.2008  0.0063 -0.0874
87198SOL    HW179586   5.376   8.699   6.250 -0.5340 -0.4404  0.2355
87198SOL    HW279587   5.279   8.695   6.134  0.1162  0.4040 -0.3535
87199SOL     OW79588   3.979  12.118  10.352 -0.1662  0.3399 -0.0262
87199SOL    HW179589   3.943  12.101  10.265  1.4071  0.6336 -0.7766
87199SOL    HW279590   3.959  12.210  10.369 -1.4237  0.0010  0.4160
87200SOL     OW79591  12.855   5.320   3.843 -0.3453  0.1477 -0.1195
87200SOL    HW179592  12.799   5.286   3.913 -0.8545  2.0167  0.4467
87200SOL    HW279593  12.796   5.374   3.790  0.1034 -1.0041 -1.8601
87201SOL     OW79594   9.254  12.035   6.249  0.5484 -0.8504  0.4128
87201SOL    HW179595   9.263  11.951   6.294  0.4626 -0.4893  1.1189
87201SOL    HW279596   9.275  12.100   6.316 -0.2998 -0.2757  0.1293
87202SOL     OW79597   5.687   9.892   0.351  0.1834  0.1532  0.6548
87202SOL    HW179598   5.725   9.861   0.433  0.7943  3.3950  1.7550
87202SOL    HW279599   5.736   9.972   0.331 -1.7037  0.8816 -1.4680
87203SOL     OW79600  10.118   7.921  13.549  0.5645 -0.0238  0.1084
87203SOL    HW179601  10.155   7.996  13.595 -0.4243  0.2840  0.4241
87203SOL    HW279602  10.188   7.892  13.490  1.4286  0.3056  0.9429
87204SOL     OW79603   8.108  10.179   4.316 -0.0816  0.3863  0.2733
87204SOL    HW179604   8.161  10.132   4.251 -0.0524  1.4821 -0.5318
87204SOL    HW279605   8.171  10.222   4.372 -0.0306 -2.2806  2.4708
87205SOL     OW79606   0.146  12.604   9.083 -0.7244  0.4123  0.2053
87205SOL    HW179607   0.058  12.569   9.097 -0.0718 -1.5798 -0.3485
87205SOL    HW279608   0.136  12.699   9.089 -3.0525  0.2641 -0.6150
87206SOL     OW79609  13.370   9.040   3.577 -0.1841  0.0194 -0.1256
87206SOL    HW179610  13.300   9.097   3.609 -0.1284  0.2116 -0.3441
87206SOL    HW279611  13.426   9.026   3.653  0.7246  1.6292 -0.4601
87207SOL     OW79612   3.186   3.941   6.955  0.0954 -0.1612  0.0368
87207SOL    HW179613   3.253   3.886   6.914  0.0984 -0.3273  0.2637
87207SOL    HW279614   3.104   3.894   6.939  0.1145 -0.3099  0.3563
87208SOL     OW79615   3.081   7.220   3.860 -0.1270 -0.1801  0.1217
87208SOL    HW179616   3.036   7.153   3.808  0.1800 -0.3152  0.0249
87208SOL    HW279617   3.167   7.181   3.879 -0.2249 -0.1228  0.7058
87209SOL     OW79618   4.581   1.455   9.427  0.0789  0.1734 -0.1817
87209SOL    HW179619   4.508   1.517   9.433 -0.1216  0.0954 -1.4526
87209SOL    HW279620   4.592   1.440   9.333  0.2322 -1.5896  0.0777
87210SOL     OW79621  13.744   6.395   7.356  0.0388  0.6395 -0.5822
87210SOL    HW179622  13.736   6.488   7.375  1.0185  0.4716  0.8346
87210SOL    HW279623  13.665   6.356   7.393 -0.3062  0.8763 -1.0548
87211SOL     OW79624   8.813  13.399   3.642  0.2155 -0.4077 -0.2451
87211SOL    HW179625   8.805  13.483   3.596  0.6732  0.0653  0.5068
87211SOL    HW279626   8.771  13.414   3.726  0.8721 -0.7306  0.1458
87212SOL     OW79627   4.331   0.186  12.804 -0.0303 -0.4768  0.3305
87212SOL    HW179628   4.256   0.145  12.759 -0.1573  0.2735 -0.1556
87212SOL    HW279629   4.407   0.161  12.751  0.1184 -1.4688  0.9770
87213SOL     OW79630   0.053  11.705   0.602 -0.3375 -0.4635 -0.5429
87213SOL    HW179631   0.103  11.780   0.633 -0.1172 -1.1019  0.7174
87213SOL    HW279632   0.085  11.632   0.655 -0.3230 -1.5138 -1.9540
87214SOL     OW79633   6.397   8.774   8.286 -0.3899  0.0852 -0.3260
87214SOL    HW179634   6.411   8.868   8.286  0.1747  0.0106  0.4520
87214SOL    HW279635   6.315   8.762   8.334  1.8456 -0.0645  3.9083
87215SOL     OW79636   0.804   4.248   0.836  0.3100  0.5989  0.4766
87215SOL    HW179637   0.865   4.237   0.763 -1.2506  1.7374 -1.0871
87215SOL    HW279638   0.733   4.302   0.800 -1.3214 -0.1480  2.3774
87216SOL     OW79639   1.543   2.989  13.495  0.2761 -0.7685  0.2098
87216SOL    HW179640   1.469   2.934  13.471  0.1701 -0.7975  0.5993
87216SOL    HW279641   1.509   3.079  13.489  0.2634 -0.7735  0.2088
87217SOL     OW79642   8.152   5.716   9.694 -0.4258 -0.5302 -0.1990
87217SOL    HW179643   8.058   5.699   9.704 -0.5123  0.0533  0.0126
87217SOL    HW279644   8.191   5.629   9.687 -0.9998 -0.7755 -0.4437
87218SOL     OW79645   4.353   7.010   4.465 -0.1309  0.4736  0.4196
87218SOL    HW179646   4.319   6.961   4.540 -0.4258 -0.4066 -0.2711
87218SOL    HW279647   4.275   7.042   4.419  0.0563  1.7706  0.9530
87219SOL     OW79648   9.325   5.283   1.008 -0.5914 -0.2929  0.0215
87219SOL    HW179649   9.242   5.313   0.973 -1.3120 -0.8137  1.2083
87219SOL    HW279650   9.301   5.232   1.085  0.8503 -0.0868  0.6382
87220SOL     OW79651   9.552  10.518   0.210 -0.2164  0.2542  0.5614
87220SOL    HW179652   9.622  10.580   0.191 -0.2426  0.6929  1.8164
87220SOL    HW279653   9.507  10.554   0.286  0.8312 -2.1048  2.4443
87221SOL     OW79654   6.457  11.589   2.885  0.2205 -0.1426  0.0220
87221SOL    HW179655   6.477  11.557   2.973 -0.2973 -1.6075 -0.3687
87221SOL    HW279656   6.428  11.679   2.899  1.2245  0.0299  1.2199
87222SOL     OW79657  13.520   8.921  10.198  0.1720 -0.5422  0.3969
87222SOL    HW179658  13.609   8.899  10.172  0.5039 -0.6051  1.5291
87222SOL    HW279659  13.479   8.956  10.119  0.7669 -1.7912 -0.4948
87223SOL     OW79660   0.481   6.198   5.249 -0.2448  0.5523  0.0095
87223SOL    HW179661   0.408   6.168   5.194  1.2794 -1.7601 -0.9370
87223SOL    HW279662   0.451   6.185   5.339 -1.6802  1.4963 -0.3069
87224SOL     OW79663   2.895  11.114   0.861 -0.3857  0.3077  0.0672
87224SOL    HW179664   2.839  11.128   0.938 -2.7284 -0.4611 -1.3950
87224SOL    HW279665   2.924  11.023   0.869  0.7471  0.7060  0.8241
87225SOL     OW79666  13.247   9.549   1.951 -0.0340 -0.1049 -0.1564
87225SOL    HW179667  13.209   9.590   1.873 -0.4590 -1.1655 -0.5185
87225SOL    HW279668  13.302   9.479   1.917  0.3244 -0.1394  0.4743
87226SOL     OW79669   7.734  10.914  13.974  0.1004  0.3900 -0.2693
87226SOL    HW179670   7.722  10.917  13.879 -1.9798 -0.2275 -0.0894
87226SOL    HW279671   7.728  10.821  13.997  0.3310  0.5515  0.4936
87227SOL     OW79672   4.913  10.794  12.876 -0.4348  0.2551 -0.2866
87227SOL    HW179673   5.003  10.762  12.874  0.3221  2.2363 -2.4046
87227SOL    HW279674   4.861  10.717  12.899  1.4965 -1.7597 -2.0968
87228SOL     OW79675   0.013   9.602   6.538  0.2158  0.0423 -0.0783
87228SOL    HW179676  -0.010   9.604   6.631 -0.2957 -0.8506 -0.1711
87228SOL    HW279677  -0.068   9.625   6.492  0.7906  1.7484 -0.2817
87229SOL     OW79678   4.050  13.165  13.267  0.0906 -0.4247  0.0374
87229SOL    HW179679   4.061  13.192  13.358  2.8148 -2.0814  0.2975
87229SOL    HW279680   4.136  13.178  13.227 -0.9135 -0.2271 -2.1879
87230SOL     OW79681  13.728   1.736   5.418 -0.7124 -0.1645 -0.0468
87230SOL    HW179682  13.705   1.645   5.439  0.1710  0.0753  2.2085
87230SOL    HW279683  13.770   1.769   5.497  0.0230  1.8832 -1.2180
87231SOL     OW79684   1.084   4.710   3.561  0.5704 -0.4496 -0.1567
87231SOL    HW179685   0.990   4.717   3.578  0.8825  1.1309  1.1988
87231SOL    HW279686   1.099   4.617   3.547 -1.3979 -0.5769 -1.8047
87232SOL     OW79687   9.627   9.896   7.333 -0.3122  0.3058  0.3252
87232SOL    HW179688   9.548   9.922   7.286 -0.2878 -1.2312 -0.6395
87232SOL    HW279689   9.600   9.821   7.385  1.1658 -2.7226 -2.8202
87233SOL     OW79690   2.597  13.008   6.057  0.4704 -0.1098 -0.2190
87233SOL    HW179691   2.565  12.921   6.031  0.6131 -0.7114  1.4733
87233SOL    HW279692   2.692  12.999   6.058  0.5575  0.5305 -1.4886
87234SOL     OW79693   6.654  11.079   9.865 -0.0205 -0.2911  0.1277
87234SOL    HW179694   6.723  11.136   9.899  0.5250 -0.0342 -1.3563
87234SOL    HW279695   6.605  11.134   9.804  0.5122 -1.3666 -1.3285
87235SOL     OW79696   1.417  13.328   4.767  0.1259 -0.8593 -0.2713
87235SOL    HW179697   1.329  13.317   4.803 -0.1918  0.1908 -0.7110
87235SOL    HW279698   1.420  13.417   4.734  2.1017 -0.0933  1.7097
87236SOL     OW79699   0.175   2.610  10.583 -0.7441  0.3221  0.4357
87236SOL    HW179700   0.240   2.642  10.646 -1.2387 -1.0526  1.7125
87236SOL    HW279701   0.124   2.687  10.560  1.1082  1.3637 -0.3388
87237SOL     OW79702  10.937  10.939   0.549  0.0241  0.2126 -0.0354
87237SOL    HW179703  10.843  10.953   0.557  0.2686  1.3502  1.2487
87237SOL    HW279704  10.947  10.844   0.544 -1.0274 -0.1893  3.2096
87238SOL     OW79705   8.398  10.295  10.509 -0.4405  0.2986  0.2409
87238SOL    HW179706   8.350  10.214  10.527 -0.4687  0.5069  1.1451
87238SOL    HW279707   8.381  10.312  10.416  1.8879 -2.2630 -0.8000
87239SOL     OW79708   3.418   8.849  12.047  0.8109  0.0272 -0.2039
87239SOL    HW179709   3.408   8.758  12.073  0.9313  0.4560  1.4613
87239SOL    HW279710   3.371   8.856  11.964 -1.1500 -1.0448  0.7542
87240SOL     OW79711   2.117   1.075   1.819 -0.0637 -0.1381 -0.5381
87240SOL    HW179712   2.091   0.985   1.841  0.5084 -0.7126 -2.0270
87240SOL    HW279713   2.183   1.098   1.885  1.2475 -1.5879 -1.2632
87241SOL     OW79714   3.144   1.550  10.734  0.0221 -0.0253 -0.2091
87241SOL    HW179715   3.120   1.486  10.801  0.0211 -0.5011 -0.6638
87241SOL    HW279716   3.233   1.577  10.758  0.4464 -1.0115 -0.6318
87242SOL     OW79717  11.146   8.448   7.826 -0.3104  0.1897 -0.1446
87242SOL    HW179718  11.198   8.506   7.881 -0.4495  0.6665 -0.5076
87242SOL    HW279719  11.205   8.375   7.805 -0.2592  0.0038  0.6295
87243SOL     OW79720   7.729   2.728   0.492 -0.3549 -0.6983 -0.3265
87243SOL    HW179721   7.795   2.729   0.562 -1.3786  0.6982  0.6564
87243SOL    HW279722   7.719   2.635   0.471  1.6819 -0.9802 -0.2957
87244SOL     OW79723   0.338   0.272  13.052  0.1172  0.4547 -0.4673
87244SOL    HW179724   0.251   0.310  13.036  0.3965  0.4357 -2.2560
87244SOL    HW279725   0.357   0.292  13.143 -2.4040 -0.8353  0.4415
87245SOL     OW79726  12.971   3.824  13.396  0.0616  0.0908 -0.2161
87245SOL    HW179727  12.981   3.755  13.462  0.7357  0.2476 -0.1491
87245SOL    HW279728  12.888   3.804  13.354  0.6971 -1.3306 -0.8519
87246SOL     OW79729  11.222   1.820   2.675 -0.0233 -0.1069  0.1103
87246SOL    HW179730  11.201   1.744   2.729  0.7106 -0.0106  0.5543
87246SOL    HW279731  11.197   1.794   2.586 -1.0841 -0.3316  0.4589
87247SOL     OW79732   0.859  11.083  10.128 -0.2249  0.2689  0.0185
87247SOL    HW179733   0.885  10.991  10.121 -0.8603 -0.2838  3.3348
87247SOL    HW279734   0.928  11.123  10.180  0.8281  2.1655 -2.5959
87248SOL     OW79735   9.827   3.244  11.585 -0.0973  0.7011  0.0063
87248SOL    HW179736   9.752   3.269  11.531  0.5216 -0.4598 -1.4539
87248SOL    HW279737   9.902   3.284  11.542  0.1844  1.5904  1.2806
87249SOL     OW79738   6.465   7.951   7.813  0.1139 -0.7566  0.3929
87249SOL    HW179739   6.537   7.954   7.750 -1.7516  2.1029 -1.9023
87249SOL    HW279740   6.500   7.992   7.892  0.7564  1.8469 -1.1361
87250SOL     OW79741   3.073   0.237   3.806  0.0052  0.0103  0.2461
87250SOL    HW179742   3.074   0.227   3.901  1.0821 -4.4255 -0.0317
87250SOL    HW279743   2.988   0.204   3.778  0.3488 -0.3415 -0.4149
87251SOL     OW79744   5.576  11.811   7.587  0.1257 -0.3927 -0.1812
87251SOL    HW179745   5.571  11.749   7.514 -0.7353 -1.8467  1.0339
87251SOL    HW279746   5.550  11.759   7.663 -0.2128  1.3836  0.9672
87252SOL     OW79747  13.103  12.883   6.173  0.1351 -0.0055  0.0961
87252SOL    HW179748  13.132  12.795   6.197 -3.2422 -2.2249 -2.8613
87252SOL    HW279749  13.160  12.908   6.100 -0.3469 -0.8032 -0.5636
87253SOL     OW79750   9.694   3.523  12.425 -0.2368 -0.2134  0.4590
87253SOL    HW179751   9.700   3.609  12.382 -0.2820 -0.2475  0.3856
87253SOL    HW279752   9.634   3.473  12.371 -0.5048 -0.1666  0.7113
87254SOL     OW79753  12.711   7.769   8.319  0.5314 -0.1849 -0.3687
87254SOL    HW179754  12.660   7.771   8.238  0.5113 -0.3817 -0.3619
87254SOL    HW279755  12.774   7.840   8.310  0.8470 -0.5044 -0.7661
87255SOL     OW79756   7.584  12.526   3.780 -0.1085  0.0396  0.5749
87255SOL    HW179757   7.583  12.622   3.782  0.1720  0.3286 -3.5482
87255SOL    HW279758   7.670  12.504   3.744  0.2663 -1.9111  2.4921
87256SOL     OW79759   4.820  11.503   2.854 -0.1331  0.2476 -0.3044
87256SOL    HW179760   4.740  11.453   2.871 -0.9492  0.7620 -2.3231
87256SOL    HW279761   4.882  11.473   2.920 -2.2512  0.4755  1.8982
87257SOL     OW79762   2.575  13.190   9.481 -0.1047 -0.4013 -0.1432
87257SOL    HW179763   2.594  13.158   9.569 -1.2837 -1.9950 -0.4178
87257SOL    HW279764   2.520  13.267   9.494 -0.8647 -1.0379  0.5389
87258SOL     OW79765   1.802  10.186   8.722 -0.5894  0.1217 -0.1460
87258SOL    HW179766   1.793  10.248   8.650 -0.7092  1.1441  0.7254
87258SOL    HW279767   1.732  10.210   8.783 -1.0559 -1.2942 -0.0893
87259SOL     OW79768   6.120   1.766   7.786 -0.3775 -0.2777 -0.2140
87259SOL    HW179769   6.111   1.840   7.725 -0.3794  1.2740  1.5794
87259SOL    HW279770   6.029   1.742   7.807 -0.4006  0.6152  0.7845
87260SOL     OW79771   6.283  13.761  10.847  0.2835  0.2102  0.5889
87260SOL    HW179772   6.343  13.779  10.775 -1.6389 -0.6261 -1.3290
87260SOL    HW279773   6.247  13.674  10.828  0.3416 -0.4257  3.0526
87261SOL     OW79774   8.926   6.952   1.358 -0.2660 -0.1287  0.1005
87261SOL    HW179775   8.929   6.970   1.452  0.6558  0.5362 -0.0452
87261SOL    HW279776   9.011   6.915   1.337 -0.9522 -1.5663 -0.2444
87262SOL     OW79777   1.050   8.213   2.344 -0.0734 -0.4401 -0.0598
87262SOL    HW179778   1.068   8.306   2.329  0.0051 -0.6461 -1.3881
87262SOL    HW279779   1.016   8.181   2.260 -1.7085 -1.2379  0.8639
87263SOL     OW79780   7.260   9.066   9.346  0.4463  0.5674 -0.1305
87263SOL    HW179781   7.315   9.082   9.269 -0.8168  0.1127 -1.1586
87263SOL    HW279782   7.207   8.990   9.323  0.5977 -0.0839  1.5124
87264SOL     OW79783   3.771   4.371   1.733  0.2410  0.0048  0.1257
87264SOL    HW179784   3.685   4.354   1.773  1.3094 -2.4863  1.6241
87264SOL    HW279785   3.826   4.400   1.805  0.9039  0.7915 -0.6679
87265SOL     OW79786  11.638   3.761   3.696 -0.1128 -0.8593  0.5456
87265SOL    HW179787  11.577   3.829   3.669  1.5710  0.6268  0.3404
87265SOL    HW279788  11.673   3.725   3.614  1.3060  0.2159  0.6523
87266SOL     OW79789   9.652  11.639   3.437 -0.3093 -0.0390  0.1804
87266SOL    HW179790   9.583  11.705   3.434  0.7126  1.0214 -1.1792
87266SOL    HW279791   9.657  11.605   3.348 -1.1673 -2.3926  0.9461
87267SOL     OW79792   5.120   4.633  13.604 -0.7284 -0.2037  0.2497
87267SOL    HW179793   5.073   4.654  13.523 -1.2472  1.6897  1.0029
87267SOL    HW279794   5.196   4.691  13.604 -0.2930 -0.7620  0.7515
87268SOL     OW79795  14.076  11.751   2.393 -0.5031 -0.4509  0.9196
87268SOL    HW179796  14.000  11.798   2.359  0.5985  0.8198  0.1143
87268SOL    HW279797  14.126  11.816   2.442  0.8088 -0.8738  0.2085
87269SOL     OW79798  12.257   6.101   7.704 -0.6642  0.2778 -0.2980
87269SOL    HW179799  12.201   6.147   7.766 -1.3530 -1.4225  0.3794
87269SOL    HW279800  12.232   6.009   7.711  3.5545 -0.9965  1.5887
87270SOL     OW79801   6.268  12.959  11.224 -0.2477 -0.5091 -0.0757
87270SOL    HW179802   6.347  12.984  11.176  0.3393 -2.0831  0.0444
87270SOL    HW279803   6.264  13.021  11.297  0.3226  0.2031 -0.6363
87271SOL     OW79804  13.445  10.847   0.565  0.0989 -0.0680  0.9018
87271SOL    HW179805  13.473  10.938   0.570  0.0929 -0.0055 -0.0495
87271SOL    HW279806  13.387  10.844   0.488 -0.5108 -0.7104  1.3741
87272SOL     OW79807  10.541  10.419   0.568  0.5062 -0.6052  0.1827
87272SOL    HW179808  10.596  10.373   0.505  0.0749 -1.3749  0.3612
87272SOL    HW279809  10.453  10.386   0.551  0.4448 -1.1318  1.4702
87273SOL     OW79810  10.313  10.169   2.101 -0.6271  0.4865  0.1925
87273SOL    HW179811  10.233  10.166   2.048 -0.1062  0.3576 -0.6073
87273SOL    HW279812  10.285  10.206   2.184 -1.6927 -0.4183  0.2535
87274SOL     OW79813   7.541  11.746  10.026  0.6277  0.0784  0.2788
87274SOL    HW179814   7.497  11.824  10.060 -0.5955 -0.3013 -0.3643
87274SOL    HW279815   7.634  11.767  10.030  0.2953  2.1427 -1.2196
87275SOL     OW79816  12.287   9.138  12.033 -0.1283 -0.1006  0.0651
87275SOL    HW179817  12.315   9.192  12.107 -0.3284  0.0126  0.0585
87275SOL    HW279818  12.345   9.163  11.961  0.0065 -0.1448  0.1595
87276SOL     OW79819   9.436   5.552   3.444  0.1145 -0.2090  0.0963
87276SOL    HW179820   9.529   5.537   3.462  0.2310 -0.3645 -0.5985
87276SOL    HW279821   9.421   5.510   3.359 -0.2371  1.1230 -0.5220
87277SOL     OW79822   6.361   6.702   1.005  0.4202 -0.0289 -0.1168
87277SOL    HW179823   6.301   6.771   1.032  2.5425  2.6314 -1.6392
87277SOL    HW279824   6.421   6.745   0.944  2.4733 -3.0312 -0.4479
87278SOL     OW79825   9.532   3.378   0.328 -0.6497  0.4413  0.4082
87278SOL    HW179826   9.463   3.418   0.275 -1.1819 -0.4476  0.3983
87278SOL    HW279827   9.576   3.319   0.267 -0.4003  0.4078  0.6216
87279SOL     OW79828  11.463   4.308   3.482  0.1165  0.4666  0.0698
87279SOL    HW179829  11.386   4.319   3.538  0.4455 -0.1313  0.6651
87279SOL    HW279830  11.535   4.347   3.532  0.2831  0.6080 -0.2759
87280SOL     OW79831   4.842  12.540  13.977 -0.3390 -0.1984 -0.2557
87280SOL    HW179832   4.909  12.594  13.935 -1.5781  2.2277  0.6898
87280SOL    HW279833   4.805  12.489  13.905  1.2600 -0.2548 -1.0979
87281SOL     OW79834  12.195   5.502   6.761  0.1068  0.1611  0.1788
87281SOL    HW179835  12.119   5.448   6.742  0.9540 -1.4266  1.1132
87281SOL    HW279836  12.250   5.494   6.683  0.3208 -0.5205  0.3904
87282SOL     OW79837   9.559  13.298  13.581 -0.2430 -0.2961 -0.6370
87282SOL    HW179838   9.643  13.253  13.590 -0.0615 -0.1603 -1.4857
87282SOL    HW279839   9.563  13.337  13.494  0.3551  2.9361  0.7226
87283SOL     OW79840   0.610   4.894   6.275  0.2868 -0.3480  0.2435
87283SOL    HW179841   0.649   4.978   6.250  1.2522 -0.6375  0.7193
87283SOL    HW279842   0.572   4.860   6.194  0.7270  0.1026 -0.1603
87284SOL     OW79843   1.972   8.782   7.950  0.3152  0.5093 -0.2093
87284SOL    HW179844   1.915   8.830   8.010  1.2706  1.7298 -0.2264
87284SOL    HW279845   2.050   8.838   7.941  0.7857 -0.2992 -1.4967
87285SOL     OW79846  13.473   0.533   7.542 -0.1074 -0.3107 -0.0913
87285SOL    HW179847  13.460   0.439   7.547 -0.4780 -0.2238  0.6212
87285SOL    HW279848  13.434   0.558   7.458  1.0710 -0.9546 -0.8591
87286SOL     OW79849   6.103   4.941   6.244 -0.2613 -0.1239  0.7442
87286SOL    HW179850   6.015   4.968   6.221 -0.1294 -0.9650 -0.8355
87286SOL    HW279851   6.151   5.023   6.255 -0.2144  0.4144 -2.5550
87287SOL     OW79852   0.323   2.829   8.760  0.1385 -0.4594  0.2543
87287SOL    HW179853   0.326   2.784   8.844 -1.4083 -0.6488  0.2313
87287SOL    HW279854   0.230   2.832   8.737  0.4966 -0.1003 -1.2817
87288SOL     OW79855   9.021   0.212   9.205  0.1987 -0.2464  0.1869
87288SOL    HW179856   9.046   0.170   9.122  1.4745 -1.9879  1.3763
87288SOL    HW279857   8.959   0.150   9.245  0.1022  0.2529  0.8196
87289SOL     OW79858   7.058  10.793   4.028  0.1877 -0.7228 -0.7016
87289SOL    HW179859   7.149  10.783   4.056  0.1402  0.7163  0.0610
87289SOL    HW279860   7.064  10.837   3.944  0.1995 -0.7071 -0.6923
87290SOL     OW79861   1.614   1.035   2.597 -0.4647  0.0961 -0.2221
87290SOL    HW179862   1.569   0.964   2.552  0.0499 -0.9505  0.8753
87290SOL    HW279863   1.688   0.993   2.640  0.4581  1.4760 -0.4075
87291SOL     OW79864   7.813   8.848   8.070 -0.0481  0.0263 -0.2373
87291SOL    HW179865   7.892   8.849   8.124  0.1909  0.8166 -0.5763
87291SOL    HW279866   7.757   8.781   8.109 -0.0971  0.9314  1.3094
87292SOL     OW79867   1.114   5.971  12.132  0.1102  0.4069 -0.3324
87292SOL    HW179868   1.189   5.912  12.120 -0.6982 -0.5689 -0.7067
87292SOL    HW279869   1.087   5.993  12.043 -1.7592 -1.4975 -0.3084
87293SOL     OW79870  12.948   9.905   0.342  0.1424  0.2461 -0.1795
87293SOL    HW179871  13.002   9.930   0.417  1.2080 -1.9970 -0.1088
87293SOL    HW279872  12.989   9.946   0.267  0.1601  1.0057  0.2396
87294SOL     OW79873   4.819  10.730  10.185 -0.3513 -0.0066  0.2049
87294SOL    HW179874   4.756  10.765  10.122 -0.1221 -1.5737 -0.9357
87294SOL    HW279875   4.876  10.805  10.206  0.1053  0.3527 -2.1175
87295SOL     OW79876  12.122   7.776   8.865  0.0078  0.4905 -0.1332
87295SOL    HW179877  12.125   7.691   8.909 -1.3911  0.5484  0.1207
87295SOL    HW279878  12.063   7.829   8.919  1.2212  1.7989 -0.0174
87296SOL     OW79879  14.008   3.644   9.812  0.1348 -0.6637 -0.2283
87296SOL    HW179880  14.035   3.708   9.747  0.2393 -1.4012 -0.9180
87296SOL    HW279881  13.926   3.679   9.848 -0.1479 -0.4588 -1.0577
87297SOL     OW79882   6.047  10.692   8.574  0.0804  0.1096 -0.5804
87297SOL    HW179883   5.984  10.692   8.501  1.8548 -0.2341 -2.1698
87297SOL    HW279884   6.132  10.705   8.533  1.2762 -1.1790  1.3470
87298SOL     OW79885  11.358   5.355   0.570 -0.4988 -0.4010 -0.4425
87298SOL    HW179886  11.286   5.292   0.576 -0.2873 -0.8065 -1.9440
87298SOL    HW279887  11.344   5.402   0.488  0.9433 -0.4850 -0.7716
87299SOL     OW79888   6.392  13.076   9.965 -0.2096  0.5385  0.5610
87299SOL    HW179889   6.434  13.072  10.051  1.2523 -0.0704 -0.1601
87299SOL    HW279890   6.429  13.003   9.916 -1.6482  0.3657 -0.3262
87300SOL     OW79891  13.131   2.517   2.635  0.2789 -0.1109 -0.3374
87300SOL    HW179892  13.058   2.579   2.633 -0.3206 -0.7586  0.6851
87300SOL    HW279893  13.205   2.568   2.667 -0.2927  0.0175  0.8148
87301SOL     OW79894  10.137   1.962  11.518 -0.6216  0.7831 -0.2705
87301SOL    HW179895  10.146   1.928  11.607  1.1322 -0.9665 -1.0571
87301SOL    HW279896  10.226   1.976  11.488 -1.1570  4.9701 -0.5295
87302SOL     OW79897   4.489   7.538  12.749  0.9248  0.3641  0.3861
87302SOL    HW179898   4.464   7.523  12.658  0.3609 -0.0782  0.6049
87302SOL    HW279899   4.540   7.461  12.774  0.3636  0.0797  0.6879
87303SOL     OW79900   3.014   3.654  12.878  0.1585 -0.4978  0.2623
87303SOL    HW179901   2.982   3.614  12.960 -0.0170  2.7712  1.9469
87303SOL    HW279902   2.934   3.679  12.832  0.1749  1.4705  1.2001
87304SOL     OW79903   4.857   6.103   7.921 -0.2080 -0.4998 -0.2447
87304SOL    HW179904   4.934   6.129   7.972 -0.7295  0.4774  0.0812
87304SOL    HW279905   4.783   6.136   7.972 -0.9329 -2.5759  0.1358
87305SOL     OW79906   7.888   1.065   4.129 -0.2855 -0.2282 -0.5359
87305SOL    HW179907   7.814   1.042   4.186 -0.6182 -1.8679 -1.5754
87305SOL    HW279908   7.874   1.014   4.050  0.9931  0.8611 -1.4982
87306SOL     OW79909   3.042   9.693   6.078  0.0790  0.2077 -0.1760
87306SOL    HW179910   2.989   9.690   5.999 -0.7795  2.2811  0.2615
87306SOL    HW279911   3.132   9.694   6.047 -0.2213  0.1763 -1.0704
87307SOL     OW79912  13.568   4.719  13.147 -0.0640  0.5614  0.0412
87307SOL    HW179913  13.626   4.781  13.103  1.3863 -1.9977 -1.9327
87307SOL    HW279914  13.623   4.680  13.215 -0.5968  0.6132  0.5028
87308SOL     OW79915   7.542  11.480   7.778 -0.1589 -0.5646  0.2109
87308SOL    HW179916   7.470  11.445   7.725  0.0794 -0.7228 -0.0165
87308SOL    HW279917   7.567  11.561   7.734 -0.2265 -0.4896  0.3119
87309SOL     OW79918   3.988   5.006  11.149 -0.1535 -0.1056  0.6742
87309SOL    HW179919   3.939   5.077  11.107 -0.9713 -0.5524  0.8458
87309SOL    HW279920   4.068   4.998  11.097 -1.3123 -0.9105 -1.0995
87310SOL     OW79921   9.615  14.067  13.557  0.1259  0.3792 -0.2680
87310SOL    HW179922   9.643  14.047  13.646  0.4797  0.8705 -0.2652
87310SOL    HW279923   9.695  14.063  13.505  0.3358  2.4046 -0.1571
87311SOL     OW79924   3.937  10.285  10.780  0.3944 -0.2200 -0.6201
87311SOL    HW179925   3.886  10.362  10.804  0.6316  0.1235 -1.1910
87311SOL    HW279926   4.017  10.321  10.739  1.2043 -0.7316  0.4595
87312SOL     OW79927  10.377   6.990   2.049 -0.4921  0.5005  0.2838
87312SOL    HW179928  10.456   6.940   2.026  0.2085  2.0314 -0.7634
87312SOL    HW279929  10.315   6.969   1.979  0.2881  2.1219 -0.9485
87313SOL     OW79930  13.967  13.199   1.034 -0.2584 -0.0241 -0.0678
87313SOL    HW179931  13.873  13.182   1.025  0.1298 -2.6774 -0.0561
87313SOL    HW279932  14.004  13.172   0.950  0.4598  1.6702 -0.3339
87314SOL     OW79933  10.449   4.941   7.695 -0.5083  0.1589  0.1642
87314SOL    HW179934  10.502   5.016   7.669 -1.1950  0.7195  0.3369
87314SOL    HW279935  10.396   4.922   7.617  1.1403 -1.5047 -0.6228
87315SOL     OW79936   1.305  11.573  12.986  0.0583 -0.1443 -0.1366
87315SOL    HW179937   1.218  11.587  13.023  0.7081 -0.4622  1.5944
87315SOL    HW279938   1.347  11.512  13.045  0.9426 -1.2349 -1.8020
87316SOL     OW79939  11.094  10.696   7.996  0.3714  0.3185  0.0606
87316SOL    HW179940  11.005  10.711   7.965  0.0576 -1.2935  0.1232
87316SOL    HW279941  11.127  10.784   8.016 -0.8324  1.0312 -0.9256
87317SOL     OW79942  11.648   2.217   9.774  0.2542 -0.7754 -0.0807
87317SOL    HW179943  11.569   2.271   9.777  0.7723  0.1160 -1.6551
87317SOL    HW279944  11.617   2.131   9.745 -0.3668 -0.9610  1.0547
87318SOL     OW79945  12.868  13.010   8.574  0.6718  0.2726 -0.8232
87318SOL    HW179946  12.780  12.973   8.583  1.2949 -1.3537 -0.9740
87318SOL    HW279947  12.856  13.088   8.519 -0.8219  0.7898  0.1735
87319SOL     OW79948   6.846   5.209  13.118 -0.0813 -0.2573 -0.2232
87319SOL    HW179949   6.899   5.215  13.198 -0.5947  1.1308  0.0512
87319SOL    HW279950   6.900   5.159  13.057 -0.5651 -3.3968  1.6632
87320SOL     OW79951   5.910  10.302  10.076 -0.0665 -0.7364 -0.2032
87320SOL    HW179952   6.002  10.277  10.079  0.3753  0.4984 -1.9848
87320SOL    HW279953   5.871  10.245  10.010 -0.3023 -0.4589 -0.3100
87321SOL     OW79954   9.458   6.759  11.304 -0.0340  0.0865 -0.5727
87321SOL    HW179955   9.485   6.822  11.236 -1.7769  0.5177 -0.9060
87321SOL    HW279956   9.409   6.692  11.256  0.3485 -0.6415  0.0272
87322SOL     OW79957   6.389   2.363   5.513  0.5052  0.2204 -0.0652
87322SOL    HW179958   6.354   2.280   5.545  0.6356  0.6096  1.1074
87322SOL    HW279959   6.462   2.337   5.457  0.8176 -0.4468  0.6336
87323SOL     OW79960  13.045   3.214   0.224 -0.5122  0.4244  0.3381
87323SOL    HW179961  13.124   3.267   0.209  0.0327 -0.5550 -0.3577
87323SOL    HW279962  12.979   3.254   0.167 -0.1997  0.5572  0.0637
87324SOL     OW79963   0.148  12.617   7.090  0.1516 -0.1350  0.0518
87324SOL    HW179964   0.234  12.586   7.118  1.0545  2.4889  0.5074
87324SOL    HW279965   0.167  12.675   7.016 -0.6752  3.2383  2.2321
87325SOL     OW79966   3.810   9.375  13.549 -0.1341  0.5587 -0.5109
87325SOL    HW179967   3.872   9.409  13.614 -0.4779  0.4774 -0.1373
87325SOL    HW279968   3.789   9.450  13.494  0.5112  0.5226 -0.8147
87326SOL     OW79969   2.332   5.142  10.891 -0.5966  0.3924 -0.2025
87326SOL    HW179970   2.320   5.183  10.976 -0.3471 -1.1594  0.6207
87326SOL    HW279971   2.426   5.124  10.886 -0.8396 -1.0607 -0.0243
87327SOL     OW79972  10.573   7.837  13.696 -0.4594  0.5121  0.2847
87327SOL    HW179973  10.530   7.872  13.773 -1.5343  1.7941 -0.8390
87327SOL    HW279974  10.501   7.808  13.640  0.2553  0.3409 -0.5689
87328SOL     OW79975   9.710  11.662   9.831 -0.0973 -0.5747 -0.2845
87328SOL    HW179976   9.673  11.688   9.915  0.6233 -2.2111  0.5929
87328SOL    HW279977   9.636  11.628   9.781 -0.2256 -1.5367  0.5189
87329SOL     OW79978   0.776   6.301  11.090 -0.1904 -0.4317 -0.1073
87329SOL    HW179979   0.704   6.361  11.108 -0.9447 -0.5630 -2.4260
87329SOL    HW279980   0.736   6.227  11.045  1.3467 -0.6069 -1.2696
87330SOL     OW79981   7.023   6.344  10.841  0.2973  0.0478  0.4129
87330SOL    HW179982   7.041   6.437  10.847  0.8407 -0.0959  1.1914
87330SOL    HW279983   6.997   6.330  10.750  1.3605  0.7620 -0.0219
87331SOL     OW79984   4.069  11.196   2.513  0.3390 -0.3514 -0.1386
87331SOL    HW179985   4.103  11.260   2.575  0.4427 -0.0474 -0.5062
87331SOL    HW279986   4.017  11.248   2.451  0.4336 -0.6175 -0.4443
87332SOL     OW79987   0.124   4.516   8.519 -0.4638  0.1025  0.3574
87332SOL    HW179988   0.179   4.540   8.593 -0.0511  0.2497  0.0053
87332SOL    HW279989   0.109   4.422   8.530 -1.1236  0.2834  1.0979
87333SOL     OW79990   2.637  10.901  11.551 -0.5667  0.3105 -0.1670
87333SOL    HW179991   2.598  10.937  11.471 -0.1059  1.8907  0.2834
87333SOL    HW279992   2.687  10.974  11.588 -1.1107 -0.2421  1.7755
87334SOL     OW79993  12.655   9.124   4.561 -0.2781  0.3936  0.0439
87334SOL    HW179994  12.715   9.125   4.635  0.9660 -0.7558 -0.8887
87334SOL    HW279995  12.617   9.036   4.561 -0.4364  0.4530 -0.5239
87335SOL     OW79996   7.290  11.664  11.870 -0.5943  0.4239  0.0035
87335SOL    HW179997   7.299  11.608  11.946 -1.6917 -0.1584 -0.2800
87335SOL    HW279998   7.264  11.749  11.905 -0.8991  0.2116  0.2945
87336SOL     OW79999  10.735   4.676   4.146  0.0386 -0.2958 -0.2853
87336SOL    HW180000  10.789   4.755   4.141  0.5335 -0.7178 -2.9669
87336SOL    HW280001  10.787   4.609   4.101 -0.8923 -1.8625  0.8828
87337SOL     OW80002   3.156  12.058   4.195  0.3375  0.0795 -0.1021
87337SOL    HW180003   3.246  12.084   4.214  0.0862  0.6746  0.3189
87337SOL    HW280004   3.164  11.986   4.133  1.1300 -0.3987  0.5372
87338SOL     OW80005  12.453   7.979   8.823  0.1848  0.1384 -0.4132
87338SOL    HW180006  12.505   8.023   8.756 -1.1947 -0.2055 -1.7665
87338SOL    HW280007  12.429   7.895   8.784 -1.5421  0.3712  0.0449
87339SOL     OW80008  12.630   0.588   1.143  0.4673 -0.0040  0.7400
87339SOL    HW180009  12.649   0.607   1.052  1.3726 -0.2811  0.8570
87339SOL    HW280010  12.644   0.671   1.189 -1.1915  0.4550  0.4785
87340SOL     OW80011  12.582   5.708  12.638 -0.7144  0.0242 -0.5019
87340SOL    HW180012  12.660   5.686  12.689 -0.7779  1.2123  0.1357
87340SOL    HW280013  12.585   5.648  12.563  1.0031  0.2889 -0.6909
87341SOL     OW80014   5.863  11.342   7.064  0.4995  0.0689 -0.0156
87341SOL    HW180015   5.777  11.301   7.074  0.6022 -0.0159  0.5207
87341SOL    HW280016   5.853  11.400   6.988 -0.2216  0.5612  0.4424
87342SOL     OW80017  10.490  13.691   5.605  0.5103  0.1001 -0.4473
87342SOL    HW180018  10.439  13.616   5.575  0.8597 -0.3048 -0.0430
87342SOL    HW280019  10.504  13.744   5.526 -0.9710  0.4917 -0.4710
87343SOL     OW80020  12.392   7.276   6.080 -0.4806 -0.1568  0.0784
87343SOL    HW180021  12.384   7.362   6.120 -0.6133 -0.2931  0.3510
87343SOL    HW280022  12.303   7.241   6.079 -0.1136 -1.3704  2.4452
87344SOL     OW80023  11.948   5.854  11.214  0.3186  0.0962  0.0670
87344SOL    HW180024  11.947   5.759  11.221  0.1574  0.1493  0.8533
87344SOL    HW280025  12.033   5.874  11.174 -0.9839 -0.5397 -3.3684
87345SOL     OW80026   6.428   2.967  10.829 -0.1851  0.0046  0.0464
87345SOL    HW180027   6.475   2.905  10.773  0.4101 -0.4158  0.9770
87345SOL    HW280028   6.497   3.011  10.879 -0.4122  2.8380 -1.9084
87346SOL     OW80029   4.752  12.120   3.786  0.2900  0.4922 -0.1631
87346SOL    HW180030   4.658  12.137   3.781  0.0241  0.1273  2.2786
87346SOL    HW280031   4.778  12.154   3.872  2.2628 -0.0209 -0.5009
87347SOL     OW80032   3.099   5.569   5.108 -0.3595  0.5560 -0.7046
87347SOL    HW180033   3.090   5.659   5.075  1.4971  0.3162 -1.9758
87347SOL    HW280034   3.087   5.514   5.031 -1.5042 -0.3220  0.0691
87348SOL     OW80035   5.444   8.263   2.920  0.0373 -0.3568 -0.5153
87348SOL    HW180036   5.469   8.273   3.012 -0.8196  0.8230 -0.3874
87348SOL    HW280037   5.382   8.190   2.919 -1.0377  0.5169  0.0850
87349SOL     OW80038  13.246   4.118   6.086  0.0745 -0.5734  0.0115
87349SOL    HW180039  13.239   4.093   5.994  0.7866 -3.1800  0.6044
87349SOL    HW280040  13.340   4.120   6.104  0.0191  1.3492  0.3834
87350SOL     OW80041   4.608   3.655  11.645  0.3307  0.4636 -0.2836
87350SOL    HW180042   4.538   3.623  11.702  1.5266 -0.9618  0.4750
87350SOL    HW280043   4.599   3.605  11.564  0.8463 -0.2293  0.0703
87351SOL     OW80044   7.994   1.594   9.957 -0.1230 -0.3888 -0.3713
87351SOL    HW180045   7.999   1.534  10.031  0.3244 -1.1913 -1.0449
87351SOL    HW280046   7.917   1.566   9.908 -1.9400  1.6830  1.0773
87352SOL     OW80047  13.071   4.906   6.099  0.3568  0.1205  0.0937
87352SOL    HW180048  13.111   4.953   6.026  0.1394 -1.5991 -1.1694
87352SOL    HW280049  13.117   4.940   6.176  2.0652  0.4792 -1.0221
87353SOL     OW80050   3.095   4.980   3.633 -0.2551 -0.2109 -0.2220
87353SOL    HW180051   3.090   5.057   3.576 -0.0843  0.1929  0.3106
87353SOL    HW280052   3.006   4.945   3.633 -0.4237  0.2183 -0.1383
87354SOL     OW80053   4.677   5.568   4.531  0.1785  0.2356 -0.0107
87354SOL    HW180054   4.582   5.567   4.541 -0.0319  0.3663 -1.7442
87354SOL    HW280055   4.707   5.487   4.572 -0.8084 -0.4099 -0.5603
87355SOL     OW80056   0.396   1.597   7.286 -0.1576 -0.1073  0.3607
87355SOL    HW180057   0.328   1.549   7.238 -1.1122  0.6902  0.8816
87355SOL    HW280058   0.413   1.544   7.363 -1.8421  0.7450  1.3894
87356SOL     OW80059  11.552   4.020   2.390  0.3444 -0.5797 -0.3979
87356SOL    HW180060  11.606   4.042   2.466  0.3577 -0.9786 -0.2880
87356SOL    HW280061  11.613   3.978   2.329  0.1979 -0.8709 -0.3470
87357SOL     OW80062  11.653   9.231  14.136 -0.2071 -0.6104  0.2350
87357SOL    HW180063  11.695   9.216  14.221  1.0773 -1.3613 -0.5109
87357SOL    HW280064  11.608   9.149  14.116  1.0442 -1.1140 -0.6409
87358SOL     OW80065   6.913  12.369   4.077 -0.3070 -0.3905  0.6683
87358SOL    HW180066   6.906  12.382   3.982  0.7088  2.2175  0.8604
87358SOL    HW280067   6.995  12.413   4.101 -1.2947  0.3411  2.9550
87359SOL     OW80068   5.849   8.863   5.854 -0.4820  0.0515  0.9754
87359SOL    HW180069   5.868   8.771   5.869 -0.8680 -0.1372  0.3203
87359SOL    HW280070   5.934   8.907   5.863  0.1700 -0.6832 -1.1495
87360SOL     OW80071   9.432   1.312   1.188 -0.1896  0.4796  0.5089
87360SOL    HW180072   9.418   1.385   1.127  1.0617  1.1619  1.0086
87360SOL    HW280073   9.355   1.257   1.176 -0.7114  1.3873 -0.5761
87361SOL     OW80074   6.987   7.231  13.696 -0.4027  0.0079 -0.1043
87361SOL    HW180075   7.001   7.275  13.613 -2.3626  3.5557  1.2535
87361SOL    HW280076   6.899   7.192  13.688  0.4953 -2.0787 -0.5539
87362SOL     OW80077  13.011   4.608  10.101  0.5458  0.0418  0.9660
87362SOL    HW180078  13.081   4.666  10.072  0.4834 -0.1349  0.4526
87362SOL    HW280079  13.005   4.623  10.195 -0.5611  2.0797  0.6230
87363SOL     OW80080   3.983  10.809  10.170  0.5971 -0.3852  0.4106
87363SOL    HW180081   3.949  10.857  10.094  0.7183 -0.3741  0.3633
87363SOL    HW280082   4.060  10.763  10.137 -0.8677 -2.5942 -0.2252
87364SOL     OW80083   7.737  10.391   7.046 -0.5708  0.7538 -0.4701
87364SOL    HW180084   7.795  10.427   7.113 -0.2256 -2.2069  0.9749
87364SOL    HW280085   7.795  10.372   6.972  0.3045 -1.3921  0.6545
87365SOL     OW80086   5.280   9.363   1.532  0.0891 -0.4938  0.0456
87365SOL    HW180087   5.359   9.382   1.482 -0.0860 -0.5719 -0.2662
87365SOL    HW280088   5.246   9.450   1.556 -1.7976 -0.2112 -3.0751
87366SOL     OW80089   1.009   7.264  10.130  0.2450 -0.1541 -0.1146
87366SOL    HW180090   1.059   7.265  10.211  0.0560 -0.0840  0.0007
87366SOL    HW280091   1.046   7.335  10.078  0.3502 -0.1840 -0.0811
87367SOL     OW80092  10.785   4.274   1.799  0.3596  0.1344  0.2211
87367SOL    HW180093  10.711   4.272   1.860 -0.8816  0.9002 -1.1895
87367SOL    HW280094  10.752   4.231   1.720  0.9381  1.7291 -0.9278
87368SOL     OW80095   3.234  10.055   7.306  0.2869 -0.0644 -0.0679
87368SOL    HW180096   3.230  10.005   7.388  2.3621 -0.5822 -0.2349
87368SOL    HW280097   3.234   9.988   7.238 -0.7167  0.3439 -0.4933
87369SOL     OW80098  12.544   5.538   1.033  0.4607 -0.6056  0.4703
87369SOL    HW180099  12.514   5.515   0.945  0.0423  1.2434  0.0923
87369SOL    HW280100  12.639   5.526   1.030  0.6476  0.7857 -0.7179
87370SOL     OW80101  13.700   8.268  13.005  0.6767  0.0199 -0.2817
87370SOL    HW180102  13.742   8.234  12.926  0.4764  0.5412 -0.6090
87370SOL    HW280103  13.722   8.361  13.007  0.3314  0.1000  0.0549
87371SOL     OW80104   5.130   9.567   5.967  0.0963  0.5503  0.0530
87371SOL    HW180105   5.072   9.587   6.041  1.5590 -1.4050  1.8583
87371SOL    HW280106   5.187   9.644   5.960 -1.5958  1.8148 -0.7332
87372SOL     OW80107  12.852  13.263   2.888  0.5480 -0.3675 -0.7592
87372SOL    HW180108  12.842  13.242   2.795  1.7967 -1.0331 -0.7544
87372SOL    HW280109  12.894  13.349   2.888 -0.7320  0.2915 -0.7799
87373SOL     OW80110  12.533   8.137   7.182 -0.1573 -0.9114  0.0621
87373SOL    HW180111  12.528   8.232   7.169  1.3556 -1.0499 -2.1733
87373SOL    HW280112  12.609   8.124   7.240  0.2804 -0.7811 -0.4729
87374SOL     OW80113   6.905   4.400   6.028  0.4652 -0.0713  0.0422
87374SOL    HW180114   6.828   4.439   5.988 -0.1611  0.7693  1.9457
87374SOL    HW280115   6.970   4.471   6.029  0.3363  0.0431  0.8457
87375SOL     OW80116   1.836  13.599  13.701  0.3363 -0.8719  0.5931
87375SOL    HW180117   1.831  13.533  13.631  0.0286 -0.0716 -0.1679
87375SOL    HW280118   1.792  13.560  13.775 -0.2701 -1.3427 -0.0074
87376SOL     OW80119  12.130   1.796  12.427 -0.7326  0.5538 -0.1989
87376SOL    HW180120  12.200   1.781  12.492 -0.3586 -0.1885 -0.7492
87376SOL    HW280121  12.088   1.877  12.455 -0.2533  0.5126  0.6857
87377SOL     OW80122   7.053  10.830   5.137 -0.1316 -0.1956  0.2198
87377SOL    HW180123   6.959  10.813   5.140 -0.0481 -1.0013 -0.9461
87377SOL    HW280124   7.094  10.744   5.137  0.6008  0.1368  0.3640
87378SOL     OW80125  11.917  12.567  12.345  0.2955 -0.2055 -0.5748
87378SOL    HW180126  11.951  12.646  12.303 -1.1562 -0.3246 -2.0920
87378SOL    HW280127  11.856  12.530  12.280 -0.9550 -1.2002  1.0831
87379SOL     OW80128   8.911  13.537  12.296  0.6554  0.1848  0.5046
87379SOL    HW180129   8.976  13.470  12.274  0.8506  0.1462  1.1812
87379SOL    HW280130   8.828  13.502  12.263  0.8024 -0.2632  0.6031
87380SOL     OW80131  12.838   6.137   2.113 -0.3787  0.5648  0.5331
87380SOL    HW180132  12.852   6.050   2.150  0.6503 -0.3286 -1.7801
87380SOL    HW280133  12.894   6.195   2.166  1.8505 -0.8155 -0.2058
87381SOL     OW80134   2.805   1.200   6.298  0.4740 -0.0962 -0.3824
87381SOL    HW180135   2.725   1.249   6.318 -0.2474 -1.3475 -0.0954
87381SOL    HW280136   2.782   1.145   6.223  0.1734 -2.4398  1.3170
87382SOL     OW80137   1.012   9.789   6.669 -0.0254 -0.2000  0.6827
87382SOL    HW180138   1.059   9.872   6.663 -1.3685  0.5040 -0.8512
87382SOL    HW280139   0.964   9.795   6.751 -0.3680  0.7135  0.4341
87383SOL     OW80140  11.797   1.825   4.419  0.6947  0.2194 -0.0540
87383SOL    HW180141  11.723   1.823   4.479  0.8990 -0.8270  0.1876
87383SOL    HW280142  11.858   1.759   4.454  0.8167 -0.4104 -1.3848
87384SOL     OW80143  13.227   4.922   9.500  0.5210 -0.7612 -0.5973
87384SOL    HW180144  13.313   4.915   9.543 -0.2455  0.9040  1.3828
87384SOL    HW280145  13.213   5.017   9.491 -1.4917 -0.9742 -0.0239
87385SOL     OW80146   1.789   6.823  10.022  0.4925 -0.2377  0.4877
87385SOL    HW180147   1.760   6.846  10.110  0.2084 -1.1017  0.6395
87385SOL    HW280148   1.812   6.730  10.029  1.1914 -0.1206 -0.1732
87386SOL     OW80149   9.425   9.105  12.478 -0.2996  0.1654 -1.1497
87386SOL    HW180150   9.508   9.068  12.450  0.3099  0.9817 -0.4789
87386SOL    HW280151   9.439   9.200  12.476 -0.0855  0.3026  2.1505
87387SOL     OW80152  13.104  11.653  13.861  0.1180  0.5604  0.7457
87387SOL    HW180153  13.162  11.673  13.787 -1.3857  4.4077  0.3749
87387SOL    HW280154  13.027  11.614  13.821 -0.5837  2.3986  0.1869
87388SOL     OW80155   6.748   5.487  12.737 -0.4907 -0.2274  0.3939
87388SOL    HW180156   6.774   5.572  12.701 -0.3080 -1.2308 -2.0552
87388SOL    HW280157   6.669   5.464  12.689  0.2034 -2.0095  0.0112
87389SOL     OW80158  11.919  10.404  10.127 -0.2942  0.5726  0.6813
87389SOL    HW180159  11.970  10.485  10.129 -0.4384  0.6523  1.6176
87389SOL    HW280160  11.829  10.433  10.117 -0.3348  0.5243  0.9017
87390SOL     OW80161   4.166  13.440   7.568 -0.6761 -0.0456  0.0033
87390SOL    HW180162   4.100  13.403   7.627 -1.3533 -0.1839 -0.8074
87390SOL    HW280163   4.173  13.375   7.498  0.0638  0.1431 -0.1043
87391SOL     OW80164   8.737  10.357   3.629  0.1712  0.0508 -0.4121
87391SOL    HW180165   8.830  10.375   3.621  0.2396  0.8299  1.6443
87391SOL    HW280166   8.730  10.263   3.613  1.4395 -0.1711  0.1826
87392SOL     OW80167   4.601  10.562   2.789 -0.0014  0.1929 -0.7632
87392SOL    HW180168   4.575  10.573   2.698  1.7099 -0.1621 -1.3455
87392SOL    HW280169   4.658  10.637   2.807 -0.7129  0.5227  0.1870
87393SOL     OW80170   6.049   0.002   1.223 -0.6683 -0.3795  0.7611
87393SOL    HW180171   6.003   0.008   1.140 -0.9923  0.2202  0.9763
87393SOL    HW280172   6.036  -0.089   1.251 -2.4330 -0.0340  1.2013
87394SOL     OW80173   3.258  13.000   1.462  0.6946  0.4920  0.6982
87394SOL    HW180174   3.320  13.064   1.426  0.9121  0.7591  1.5042
87394SOL    HW280175   3.313  12.928   1.493  0.2894 -1.5619 -2.8538
87395SOL     OW80176  11.953   3.470   9.389 -0.0481  0.1877  0.4738
87395SOL    HW180177  11.917   3.516   9.314 -0.7849 -1.9083 -0.5415
87395SOL    HW280178  12.047   3.485   9.384 -0.0440 -0.1825 -1.0893
87396SOL     OW80179   1.903   1.839   6.951  0.2365  0.0965  0.0016
87396SOL    HW180180   1.838   1.786   6.905  1.4945 -1.9944  0.5028
87396SOL    HW280181   1.935   1.783   7.021  0.7351  2.0150  1.4196
87397SOL     OW80182   4.489  14.082  10.573 -0.1102 -0.5053 -0.3818
87397SOL    HW180183   4.418  14.146  10.579  2.0276  1.9967  0.2153
87397SOL    HW280184   4.492  14.040  10.659 -0.4609 -0.1511 -0.1976
87398SOL     OW80185  13.742   8.852  12.829 -0.3424 -0.4877  0.6494
87398SOL    HW180186  13.778   8.778  12.781 -2.6020 -1.0694 -0.3091
87398SOL    HW280187  13.746   8.925  12.767 -1.7295 -0.8304  0.1141
87399SOL     OW80188   2.150   6.854   7.278  0.0762 -0.0768 -0.0128
87399SOL    HW180189   2.236   6.894   7.290 -0.9891  2.1701  0.7012
87399SOL    HW280190   2.107   6.908   7.212 -1.0183 -0.7961  0.0774
87400SOL     OW80191   6.027   5.633  12.702 -0.4968 -0.2371 -0.2664
87400SOL    HW180192   6.117   5.627  12.734 -0.6464 -0.6774  0.0790
87400SOL    HW280193   6.035   5.621  12.607 -0.1877 -0.2547 -0.2406
87401SOL     OW80194  13.262   0.999   0.854 -0.2018  0.6214  0.6694
87401SOL    HW180195  13.275   1.087   0.820 -0.9045  0.2730 -0.5765
87401SOL    HW280196  13.201   0.958   0.792 -0.3766 -0.5328  1.5668
87402SOL     OW80197  12.855   6.849   8.484  0.3922  0.2286  0.0030
87402SOL    HW180198  12.780   6.906   8.464 -0.5591 -0.8336  0.4415
87402SOL    HW280199  12.857   6.846   8.580 -0.8626 -2.0563  0.0252
87403SOL     OW80200   6.342  10.902   5.724  0.2351  0.0290 -0.0259
87403SOL    HW180201   6.347  10.941   5.811  0.0692 -1.1551  0.5410
87403SOL    HW280202   6.262  10.937   5.685 -2.2417 -2.7760  2.0677
87404SOL     OW80203  10.631   1.732   7.147  0.5732  0.5832 -0.0923
87404SOL    HW180204  10.612   1.814   7.192  0.7501 -0.3114  1.7148
87404SOL    HW280205  10.726   1.722   7.152  0.4092 -0.6189  1.4471
87405SOL     OW80206   9.603  13.504   3.536 -0.1978  0.4253  0.5876
87405SOL    HW180207   9.658  13.539   3.606 -0.3535 -0.0735  0.9693
87405SOL    HW280208   9.610  13.409   3.546  1.0557  0.2913 -1.0661
87406SOL     OW80209   8.239   9.892   4.026  0.0535 -0.2511  0.6471
87406SOL    HW180210   8.217   9.800   4.009 -0.2565 -0.0176 -0.2456
87406SOL    HW280211   8.173   9.920   4.089 -0.8431 -0.1992 -0.2936
87407SOL     OW80212   3.114   7.217   2.984 -0.0245 -0.1944 -0.4845
87407SOL    HW180213   3.120   7.181   2.896 -2.2397 -1.9675  0.0023
87407SOL    HW280214   3.086   7.308   2.971  0.3503 -0.2332 -1.6248
87408SOL     OW80215  12.589  12.768   3.668  0.5530 -0.1780  0.2444
87408SOL    HW180216  12.632  12.709   3.606 -3.0341 -0.8163 -1.9300
87408SOL    HW280217  12.566  12.713   3.743 -0.1858 -0.9063 -0.4902
87409SOL     OW80218   6.552  10.606   9.774 -0.3784 -0.1514  0.2138
87409SOL    HW180219   6.531  10.613   9.867 -2.1807  0.5396 -0.2083
87409SOL    HW280220   6.572  10.695   9.747  1.3792 -0.5215  0.1653
87410SOL     OW80221   9.732  12.352   1.606 -0.4074  0.1855  0.5896
87410SOL    HW180222   9.777  12.309   1.679  0.3356 -0.1854 -0.0794
87410SOL    HW280223   9.645  12.313   1.606  0.3845 -1.7114 -0.2891
87411SOL     OW80224   4.843   1.261   6.388 -0.6476 -0.6943  0.0949
87411SOL    HW180225   4.924   1.240   6.343 -0.4280 -0.2436  0.2716
87411SOL    HW280226   4.780   1.197   6.356  0.1283 -1.9706  1.0407
87412SOL     OW80227   4.222   5.571   2.511  0.1989 -0.0912 -0.3546
87412SOL    HW180228   4.305   5.536   2.479 -0.1542 -0.9763 -0.3198
87412SOL    HW280229   4.248   5.643   2.568  0.9052  0.2521 -1.0813
87413SOL     OW80230   5.883  10.516   2.966  0.3280 -0.0640  0.2715
87413SOL    HW180231   5.792  10.486   2.959 -0.0617  1.0434  0.3225
87413SOL    HW280232   5.905  10.502   3.058  0.4277 -0.9105  0.1262
87414SOL     OW80233  13.987  12.656  13.117  0.4981  0.1608 -0.3745
87414SOL    HW180234  14.069  12.608  13.105 -0.5090 -1.8134  0.3176
87414SOL    HW280235  13.934  12.600  13.174  0.0852  3.0577  2.4144
87415SOL     OW80236   0.672   8.310   3.474  0.0915  0.5644  0.0380
87415SOL    HW180237   0.601   8.307   3.410  1.5531  0.8885 -1.6634
87415SOL    HW280238   0.750   8.282   3.425  1.0172 -0.6769  2.0622
87416SOL     OW80239   2.088  13.558   6.816 -0.1454  0.1181 -0.6085
87416SOL    HW180240   2.006  13.603   6.796 -0.5401 -0.5168 -0.4551
87416SOL    HW280241   2.061  13.477   6.860  0.3420 -1.6416 -3.2815
87417SOL     OW80242  12.782  12.327   3.184  0.1440 -0.6413  0.0934
87417SOL    HW180243  12.740  12.285   3.109 -1.7978  1.6543 -0.2326
87417SOL    HW280244  12.775  12.262   3.254  1.1154 -2.4633 -1.3934
87418SOL     OW80245  13.062   7.229  13.766  0.6509 -0.6782  0.0006
87418SOL    HW180246  13.050   7.299  13.830 -1.3399 -0.1253 -0.9195
87418SOL    HW280247  13.111   7.270  13.694 -0.3507 -0.2688 -0.4552
87419SOL     OW80248  10.171   9.887   8.596 -0.0875  0.3949  0.0220
87419SOL    HW180249  10.097   9.845   8.552  0.4003 -0.4631 -0.0080
87419SOL    HW280250  10.248   9.847   8.556  0.3883  1.0481  0.2718
87420SOL     OW80251   4.612   7.399   7.615 -0.1605  0.6452 -0.0564
87420SOL    HW180252   4.578   7.322   7.661 -1.7462  2.1610  1.4738
87420SOL    HW280253   4.694   7.420   7.660 -0.0344  0.2066 -0.0810
87421SOL     OW80254   4.534   6.576  11.905 -0.0113  0.4293 -0.1915
87421SOL    HW180255   4.599   6.636  11.869 -0.1330  0.4901 -0.3119
87421SOL    HW280256   4.558   6.490  11.871 -0.7406  0.6413 -1.2876
87422SOL     OW80257   3.228   5.376   1.744  0.1126  0.0321  0.8227
87422SOL    HW180258   3.306   5.355   1.694 -0.0030  0.8240  0.2804
87422SOL    HW280259   3.219   5.305   1.807  1.7365  0.3498  1.4500
87423SOL     OW80260   5.178   7.196   4.401 -0.4344 -0.0433 -0.0281
87423SOL    HW180261   5.210   7.178   4.312 -0.4481 -0.8017  0.1136
87423SOL    HW280262   5.252   7.237   4.445 -0.2039 -0.2648 -0.2008
87424SOL     OW80263   4.523   2.622   0.115  0.4781 -0.3097  0.0045
87424SOL    HW180264   4.535   2.656   0.204 -0.3062 -0.8222  0.3160
87424SOL    HW280265   4.470   2.688   0.071 -0.6585 -0.8838  0.4719
87425SOL     OW80266  13.764   2.817   8.248  0.1846  0.3016 -0.5071
87425SOL    HW180267  13.859   2.826   8.244  0.8356 -2.4584  3.3076
87425SOL    HW280268  13.748   2.724   8.232 -1.6038  0.2996  0.9652
87426SOL     OW80269   9.249   7.862   2.724 -0.4248 -0.1002 -0.0111
87426SOL    HW180270   9.313   7.883   2.792  1.4844 -0.3366 -1.6250
87426SOL    HW280271   9.178   7.818   2.770 -0.0082  1.2258  2.0417
87427SOL     OW80272  11.711   8.130   7.595 -0.3309 -0.0495  0.4131
87427SOL    HW180273  11.634   8.097   7.640 -2.4955  0.5350 -2.5080
87427SOL    HW280274  11.740   8.205   7.647 -2.9324  0.8621  0.6812
87428SOL     OW80275   6.140   4.940   0.885  0.0091 -0.3386  0.2811
87428SOL    HW180276   6.167   4.963   0.974 -2.2002 -0.7865  1.1420
87428SOL    HW280277   6.072   5.005   0.864 -2.5430 -2.6760  0.6885
87429SOL     OW80278   5.712   9.962   6.882 -0.3645  0.5931 -0.6793
87429SOL    HW180279   5.663   9.883   6.862  3.2604 -1.7090 -1.4860
87429SOL    HW280280   5.735   9.999   6.797  0.0812  1.0335 -0.3771
87430SOL     OW80281  10.541  12.314   9.675 -0.3292 -0.3785  0.2217
87430SOL    HW180282  10.518  12.229   9.638 -1.8996 -0.3804  1.1555
87430SOL    HW280283  10.506  12.313   9.764 -1.9207  1.8692 -0.2974
87431SOL     OW80284  12.960   9.254  11.834 -0.2739  0.3624 -0.4007
87431SOL    HW180285  13.019   9.325  11.808 -0.7917  0.4323 -1.4098
87431SOL    HW280286  12.884   9.300  11.870  0.0216  0.2767  0.3738
87432SOL     OW80287   3.333   9.981   8.221 -0.2472 -0.6206  0.0945
87432SOL    HW180288   3.377   9.985   8.136  1.8865 -1.4997  1.0900
87432SOL    HW280289   3.252  10.030   8.208  0.6494  0.4322 -2.0680
87433SOL     OW80290  11.721   9.704  13.509 -0.1299 -0.4809  0.3436
87433SOL    HW180291  11.710   9.697  13.414 -0.8476 -0.2143  0.4047
87433SOL    HW280292  11.753   9.618  13.535  0.7524 -0.3448 -0.2276
87434SOL     OW80293   4.365  12.896   7.434 -0.1568  0.1683 -0.2453
87434SOL    HW180294   4.428  12.946   7.486  1.2283 -1.0119 -0.7186
87434SOL    HW280295   4.381  12.923   7.343  0.1687 -0.6507 -0.4406
87435SOL     OW80296  14.074   2.990   8.692  0.3597 -0.2320  0.0132
87435SOL    HW180297  14.139   3.004   8.622  0.0726 -0.1849 -0.2485
87435SOL    HW280298  14.125   2.993   8.773  0.5377  0.8765 -0.1219
87436SOL     OW80299   9.912   3.782   0.231 -0.9542  0.6659 -0.3015
87436SOL    HW180300   9.836   3.839   0.246 -0.0325  1.3601  2.3967
87436SOL    HW280301   9.894   3.705   0.286 -0.5221  0.0180 -1.0575
87437SOL     OW80302   6.033  13.167   5.307  0.8965  0.8345  1.0667
87437SOL    HW180303   6.125  13.180   5.331  1.3266  0.7039 -0.3973
87437SOL    HW280304   6.016  13.233   5.240  0.8373 -1.0336 -0.8602
87438SOL     OW80305   3.527   6.273  12.774  0.2593 -0.1409  0.0249
87438SOL    HW180306   3.615   6.299  12.802  0.0773 -0.6565  1.1539
87438SOL    HW280307   3.523   6.179  12.792 -0.1458 -0.3479 -1.0736
87439SOL     OW80308   0.235   8.541   3.576 -0.3537 -0.4549  0.6937
87439SOL    HW180309   0.271   8.504   3.496  1.4078  1.9770  0.2330
87439SOL    HW280310   0.308   8.589   3.615 -1.9845  1.0430  2.0693
87440SOL     OW80311   2.534   0.223  12.182 -0.2181  0.2427  0.0019
87440SOL    HW180312   2.559   0.163  12.252  2.6069  1.3038  0.0145
87440SOL    HW280313   2.583   0.194  12.106  0.4362  1.8909 -0.2470
87441SOL     OW80314   2.849   8.354   6.218  0.0222  0.0199 -0.0560
87441SOL    HW180315   2.850   8.426   6.281  2.3939 -0.6278  0.7632
87441SOL    HW280316   2.774   8.300   6.243 -1.7004  2.0159 -0.5683
87442SOL     OW80317   6.015   5.655   4.275  0.2878 -0.1308 -0.2419
87442SOL    HW180318   6.102   5.694   4.272  1.2145 -1.9866  0.6849
87442SOL    HW280319   6.031   5.562   4.293 -1.8527 -0.6973 -1.0045
87443SOL     OW80320   2.958   3.986   2.223 -0.4367 -0.0084 -0.2242
87443SOL    HW180321   2.985   3.900   2.256  1.1113 -0.4668 -2.4829
87443SOL    HW280322   2.863   3.986   2.232 -0.3500 -1.2945  1.2655
87444SOL     OW80323   1.695   6.546   9.019 -0.0298  0.1170  0.2041
87444SOL    HW180324   1.786   6.575   9.027 -0.3005  0.8071  1.0621
87444SOL    HW280325   1.697   6.476   8.954  0.7182  1.8420 -1.7428
87445SOL     OW80326  13.405   8.856  11.770 -0.2273  0.4270  0.2320
87445SOL    HW180327  13.446   8.907  11.700 -2.2831  0.9739 -0.6621
87445SOL    HW280328  13.374   8.777  11.727 -1.8139  0.9209  0.4173
87446SOL     OW80329   4.874  10.830  11.111 -0.3247 -0.7403 -0.3153
87446SOL    HW180330   4.920  10.753  11.145  1.4016 -0.0773 -1.0682
87446SOL    HW280331   4.826  10.864  11.187 -2.3792 -3.3579 -0.2877
87447SOL     OW80332  10.778  12.165   8.951 -0.5082  0.1332  0.1137
87447SOL    HW180333  10.758  12.072   8.940  0.4504 -0.1407  0.5933
87447SOL    HW280334  10.762  12.204   8.865  0.4309 -0.7368 -0.4690
87448SOL     OW80335   3.367   6.282   0.798  0.6294 -0.6632  0.5277
87448SOL    HW180336   3.432   6.287   0.729  0.0670  1.7220  0.0827
87448SOL    HW280337   3.356   6.372   0.828 -1.3553 -1.2008  1.6338
87449SOL     OW80338   5.932   6.602   6.707 -0.5585 -0.2055 -0.0534
87449SOL    HW180339   5.865   6.612   6.774 -0.5741 -0.4012 -0.0397
87449SOL    HW280340   5.884   6.578   6.628 -0.2922 -3.4185  0.6443
87450SOL     OW80341   5.166  14.119  11.404  0.1737 -0.3908  0.4327
87450SOL    HW180342   5.134  14.051  11.463 -0.5196 -1.9666 -1.6399
87450SOL    HW280343   5.226  14.074  11.344  0.6414  1.0668 -0.2687
87451SOL     OW80344  11.030   3.690   6.341  0.0303 -0.1906 -0.4144
87451SOL    HW180345  11.113   3.707   6.384  0.3172 -0.6394 -0.7901
87451SOL    HW280346  11.018   3.765   6.282  0.8740 -0.8393 -1.4271
87452SOL     OW80347   0.714   9.774   7.355 -0.2794  0.0935  0.3051
87452SOL    HW180348   0.794   9.827   7.352 -1.9814  2.8610  0.7941
87452SOL    HW280349   0.724   9.720   7.433  1.1880  0.2498  0.2469
87453SOL     OW80350  11.280   7.318   1.876  0.0034 -0.1233 -0.0780
87453SOL    HW180351  11.304   7.350   1.789  0.0899 -0.8315 -0.3253
87453SOL    HW280352  11.363   7.296   1.917 -0.1264 -1.6135 -0.5527
87454SOL     OW80353   7.250   6.002   2.881 -0.5395  0.2546 -0.3380
87454SOL    HW180354   7.343   5.984   2.891 -0.5752 -0.1301 -0.6489
87454SOL    HW280355   7.236   6.087   2.923 -0.3565 -0.4387  1.2186
87455SOL     OW80356  13.738   2.099  12.263  0.2333 -0.4458 -0.4565
87455SOL    HW180357  13.803   2.146  12.212 -0.2296 -1.0046 -1.6051
87455SOL    HW280358  13.782   2.078  12.346  1.3124 -0.3213 -0.9864
87456SOL     OW80359  13.975   9.886   0.311 -0.1511 -0.1274  0.3355
87456SOL    HW180360  14.043   9.944   0.346 -0.7366  0.2786  0.8052
87456SOL    HW280361  13.923   9.942   0.254 -0.5892 -0.2377  0.6264
87457SOL     OW80362  11.156   3.145  11.535 -0.4213  0.2594  0.2641
87457SOL    HW180363  11.199   3.133  11.450  0.9490  0.1382  0.9440
87457SOL    HW280364  11.134   3.056  11.564  0.0910  0.2132  0.5173
87458SOL     OW80365  10.258   4.265  12.088  0.4082  0.0086 -0.4935
87458SOL    HW180366  10.305   4.214  12.021  1.2667 -1.0552  0.8705
87458SOL    HW280367  10.179   4.296  12.043  1.0771 -0.4664 -2.0653
87459SOL     OW80368   6.142   6.939  11.433  0.2006 -0.3360 -0.1455
87459SOL    HW180369   6.148   6.849  11.401 -0.8904 -0.6225  0.4021
87459SOL    HW280370   6.048   6.953  11.447  0.1649  1.4485 -1.7653
87460SOL     OW80371   1.952   7.901   4.084  0.4772  0.6115 -0.5274
87460SOL    HW180372   1.987   7.986   4.058  1.9408 -0.2373 -1.5004
87460SOL    HW280373   2.004   7.837   4.034 -1.0623 -0.8316 -0.3953
87461SOL     OW80374   2.213  13.770   5.280 -0.3691 -0.1130  0.1879
87461SOL    HW180375   2.159  13.847   5.300  1.4617  1.6033 -1.1725
87461SOL    HW280376   2.290  13.780   5.335  0.7925  0.1278 -1.4209
87462SOL     OW80377   3.630   2.479  13.986 -0.1951 -0.5157  0.0978
87462SOL    HW180378   3.717   2.476  14.024 -0.2566 -0.2058  0.2671
87462SOL    HW280379   3.575   2.433  14.049 -0.3367  0.1894  0.4994
87463SOL     OW80380  13.530   5.389   6.672  0.1160  0.4325 -0.3325
87463SOL    HW180381  13.582   5.327   6.723 -0.1210  0.5287  0.0277
87463SOL    HW280382  13.590   5.459   6.649  0.2004  0.4346 -0.1058
87464SOL     OW80383   5.075  13.792   2.561 -0.5698 -0.7269 -0.0715
87464SOL    HW180384   5.038  13.713   2.602  1.1143 -1.2238  0.5915
87464SOL    HW280385   5.168  13.771   2.550  0.1765  1.5665  1.1976
87465SOL     OW80386   4.982   6.995   8.383 -0.3235  0.1956 -0.4414
87465SOL    HW180387   4.923   6.974   8.312  0.4811  0.6445 -1.2633
87465SOL    HW280388   5.069   6.970   8.351 -0.0092 -0.1537  0.6079
87466SOL     OW80389   5.698  13.124   8.536  0.3557  0.2873  0.1513
87466SOL    HW180390   5.776  13.084   8.498  1.2308 -0.3612  2.4479
87466SOL    HW280391   5.634  13.053   8.538  1.1814 -0.4626  2.2002
87467SOL     OW80392   3.228   5.459   3.439 -0.0203 -0.2116 -0.1101
87467SOL    HW180393   3.215   5.480   3.532  0.5986  0.8349 -0.2456
87467SOL    HW280394   3.190   5.372   3.429 -2.3013  0.6382  0.5965
87468SOL     OW80395  11.724  13.270   2.226 -0.1681  0.0528 -0.0921
87468SOL    HW180396  11.784  13.233   2.162  0.2488  0.7362 -0.1114
87468SOL    HW280397  11.657  13.203   2.239  0.0098 -0.2841 -0.8793
87469SOL     OW80398  13.659   3.900   0.931 -0.3740  0.1539 -0.2781
87469SOL    HW180399  13.596   3.965   0.898 -0.4235  0.6659  0.7900
87469SOL    HW280400  13.715   3.949   0.990 -0.2959 -0.7446  0.4038
87470SOL     OW80401   2.569   8.294  10.360  0.6226 -0.2664 -0.7211
87470SOL    HW180402   2.548   8.303  10.453 -2.9567 -0.2141 -1.4106
87470SOL    HW280403   2.628   8.219  10.356 -0.9385 -1.7288  1.4254
87471SOL     OW80404  12.961   3.804   9.794  0.1003  0.2575 -0.3353
87471SOL    HW180405  12.963   3.893   9.829  3.6966 -0.4056  1.5449
87471SOL    HW280406  12.998   3.812   9.706 -0.8400  0.7492 -0.7025
87472SOL     OW80407   6.209   5.592   3.378 -0.1911 -0.3473  0.0117
87472SOL    HW180408   6.242   5.504   3.396 -0.0743 -0.0760  1.1563
87472SOL    HW280409   6.267   5.626   3.310 -0.6389 -1.3857 -0.9314
87473SOL     OW80410  11.692   4.692   9.189 -0.1241 -0.5509 -0.4254
87473SOL    HW180411  11.606   4.707   9.152 -0.5142 -0.5784  0.4342
87473SOL    HW280412  11.674   4.646   9.272  0.6952 -0.2829 -0.0928
87474SOL     OW80413   9.308   9.323   5.545  0.5410  0.3405 -0.0636
87474SOL    HW180414   9.369   9.279   5.485  1.7336  0.9721  0.6467
87474SOL    HW280415   9.222   9.286   5.523  1.3927 -1.9495  0.1158
87475SOL     OW80416   7.287   4.374   5.958 -0.0535 -0.0398 -0.4306
87475SOL    HW180417   7.252   4.462   5.947  0.6856  0.2151 -0.8462
87475SOL    HW280418   7.382   4.387   5.965  0.0053 -0.7351  0.2826
87476SOL     OW80419   4.622   5.602  12.413  0.1018 -0.0385 -0.5925
87476SOL    HW180420   4.650   5.621  12.323  0.5379  0.5277 -0.3414
87476SOL    HW280421   4.674   5.660  12.468 -0.1651 -0.3744  0.0343
87477SOL     OW80422   6.370   5.301   2.229 -0.4308  0.2302  0.3728
87477SOL    HW180423   6.423   5.325   2.153  0.2148  0.2991  0.8374
87477SOL    HW280424   6.339   5.384   2.264 -1.6293  0.1428 -0.4400
87478SOL     OW80425   1.640   7.238   6.593 -0.7293 -0.4095 -0.5108
87478SOL    HW180426   1.696   7.162   6.579  0.5826  0.2667  0.7497
87478SOL    HW280427   1.677   7.281   6.670 -1.2927  1.6232 -1.3051
87479SOL     OW80428   1.112   9.948   8.168 -0.2972 -0.4262 -0.1182
87479SOL    HW180429   1.113   9.902   8.252  2.6770  0.0057  0.1838
87479SOL    HW280430   1.178   9.902   8.115  2.1021  2.7335 -0.1471
87480SOL     OW80431   1.573   8.507   9.460 -0.2155  0.5531 -0.4531
87480SOL    HW180432   1.615   8.439   9.408  2.2816  2.0877 -0.5998
87480SOL    HW280433   1.555   8.466   9.544  1.6048 -0.2061 -0.4044
87481SOL     OW80434   9.878  13.770   7.104  0.6025 -0.3481  0.2161
87481SOL    HW180435   9.796  13.818   7.116  0.9781  0.2252  0.5403
87481SOL    HW280436   9.851  13.682   7.077 -0.1158 -0.1667  0.3309
87482SOL     OW80437   2.570   6.174   2.145 -0.8980  0.3166 -0.2442
87482SOL    HW180438   2.576   6.174   2.049  2.1867  1.6276 -0.1850
87482SOL    HW280439   2.528   6.257   2.167 -0.5718  0.5431 -0.4641
87483SOL     OW80440  12.393  13.336   3.023  0.2051  0.2945 -0.2218
87483SOL    HW180441  12.422  13.246   3.009 -0.4338 -0.2232  1.5622
87483SOL    HW280442  12.329  13.331   3.094  0.2991  2.1844  0.0698
87484SOL     OW80443  13.112   1.486   1.369 -0.0427  0.2090  0.1405
87484SOL    HW180444  13.136   1.506   1.279  1.9775 -1.3298  0.2539
87484SOL    HW280445  13.096   1.572   1.409  1.8126  1.1376 -0.9737
87485SOL     OW80446   4.598  12.171   5.287 -0.8918  0.2518 -0.5300
87485SOL    HW180447   4.538  12.147   5.217 -1.4107 -0.7888  0.2308
87485SOL    HW280448   4.568  12.119   5.362  1.2899 -0.7372 -0.2619
87486SOL     OW80449   6.281   9.345   7.021  0.1707  0.8763  0.0862
87486SOL    HW180450   6.251   9.268   7.069 -0.1014  1.3152  0.6318
87486SOL    HW280451   6.373   9.328   7.002 -0.5801 -0.9153 -2.4309
87487SOL     OW80452   9.285   5.639  12.072 -0.1341 -0.1834 -0.2502
87487SOL    HW180453   9.356   5.584  12.040  0.0510  1.2152 -2.4408
87487SOL    HW280454   9.255   5.596  12.152  0.2632 -3.2221 -1.6105
87488SOL     OW80455  11.598  10.173  11.025 -0.3610 -0.3838  0.2564
87488SOL    HW180456  11.591  10.095  11.080  1.0361 -2.7623 -2.6398
87488SOL    HW280457  11.690  10.199  11.032 -0.0243 -1.0489 -1.2427
87489SOL     OW80458   7.333  13.299   8.497 -0.4387  0.1542 -0.2556
87489SOL    HW180459   7.314  13.333   8.409  0.3537  0.2750 -0.3842
87489SOL    HW280460   7.287  13.360   8.556  0.0460  0.8014 -0.5330
87490SOL     OW80461   3.416   0.336   7.166  0.1601 -0.0515  0.9807
87490SOL    HW180462   3.464   0.386   7.100 -0.1839  0.8413  1.3793
87490SOL    HW280463   3.333   0.315   7.124 -0.4706  1.3868  1.4310
87491SOL     OW80464   7.321   1.854  12.160  0.1165  0.2045 -0.1336
87491SOL    HW180465   7.398   1.809  12.125  0.8963  0.3595  1.3112
87491SOL    HW280466   7.247   1.801  12.130  0.8299 -0.4245 -0.8358
87492SOL     OW80467   1.247   2.109   1.296 -0.6131 -0.2398 -0.3183
87492SOL    HW180468   1.192   2.117   1.217 -0.4457 -0.5610 -0.4704
87492SOL    HW280469   1.269   2.199   1.319 -0.4387 -0.1519 -0.8039
87493SOL     OW80470  13.246   1.822   6.121 -0.9132 -0.2839  0.2772
87493SOL    HW180471  13.248   1.747   6.062  2.1569  1.1635 -1.7182
87493SOL    HW280472  13.153   1.834   6.141 -1.7074 -3.1982 -1.0957
87494SOL     OW80473  11.089   2.453   6.493 -0.1543  0.4325 -0.0114
87494SOL    HW180474  11.151   2.503   6.546  0.8517 -0.6234 -0.1516
87494SOL    HW280475  11.082   2.502   6.411  1.5199 -0.0845 -0.5015
87495SOL     OW80476  12.999   1.090  13.960 -0.3261  0.1158 -0.7171
87495SOL    HW180477  13.066   1.108  14.026  0.2526  0.3246 -1.3530
87495SOL    HW280478  13.014   0.999  13.936  1.0498  0.7194 -2.3099
87496SOL     OW80479   6.608  10.314   8.056  0.4085  0.0008 -0.1011
87496SOL    HW180480   6.566  10.228   8.051 -0.6297  0.4859  0.1723
87496SOL    HW280481   6.617  10.342   7.964 -1.3434  0.5905 -0.1217
87497SOL     OW80482   1.514   1.279   2.228  0.4872 -0.8437  0.2646
87497SOL    HW180483   1.483   1.218   2.161  0.3596 -0.5315  0.0335
87497SOL    HW280484   1.576   1.336   2.182  0.3241 -0.5634  0.3826
87498SOL     OW80485   2.327  11.032   0.672 -0.0117 -0.1080 -0.9441
87498SOL    HW180486   2.301  11.066   0.586  1.3448  0.6687 -1.0724
87498SOL    HW280487   2.332  10.937   0.659 -0.1371 -0.0262 -1.6331
87499SOL     OW80488  13.951   2.729   4.234  0.1033 -0.2186 -0.1842
87499SOL    HW180489  14.010   2.689   4.171 -0.3026  0.0607 -0.7473
87499SOL    HW280490  13.864   2.715   4.198 -0.1265  0.0634  0.2459
87500SOL     OW80491   9.697  12.123   0.069 -0.3421  0.5609 -0.0718
87500SOL    HW180492   9.658  12.058   0.010  2.0013 -0.9928 -0.0670
87500SOL    HW280493   9.739  12.186   0.011  0.7141 -0.1560 -0.1193
87501SOL     OW80494  13.460  12.980   7.821  0.6823 -0.7483 -0.3461
87501SOL    HW180495  13.456  13.031   7.740 -3.0179 -0.5950 -0.2653
87501SOL    HW280496  13.509  13.035   7.882  0.5333  0.7236 -1.4932
87502SOL     OW80497   6.281   6.444  11.170 -0.6323  0.4662 -0.2263
87502SOL    HW180498   6.300   6.351  11.182 -2.1776  0.1264 -0.2106
87502SOL    HW280499   6.186   6.450  11.181 -0.5532  2.0416 -0.2791
87503SOL     OW80500  12.436  13.741   3.816  0.1123  0.3989 -0.3418
87503SOL    HW180501  12.414  13.834   3.810  0.1119  0.4179 -0.0745
87503SOL    HW280502  12.470  13.730   3.905  1.3259  0.4030 -0.7817
87504SOL     OW80503   0.377   3.550   9.845 -0.2103  0.3248  0.6583
87504SOL    HW180504   0.449   3.557   9.782 -0.1021 -1.0230  0.5900
87504SOL    HW280505   0.313   3.614   9.816  0.0431  0.0584 -0.5584
87505SOL     OW80506   2.951   7.789  12.755 -0.0658  0.1236 -0.1661
87505SOL    HW180507   2.906   7.773  12.837  1.1724  1.0993  0.7489
87505SOL    HW280508   2.994   7.874  12.768 -0.2341  0.5326 -1.9957
87506SOL     OW80509   5.769   5.652   4.423  0.0561 -0.4137 -0.3086
87506SOL    HW180510   5.824   5.681   4.350 -0.4359 -0.3817 -0.6719
87506SOL    HW280511   5.736   5.567   4.396 -1.1455  0.1449 -0.6985
87507SOL     OW80512   7.651   5.904   1.344  0.1239  0.1467 -0.7818
87507SOL    HW180513   7.650   5.990   1.387  0.5492 -0.5873  0.7793
87507SOL    HW280514   7.583   5.910   1.277  0.3981  1.8202 -0.9767
87508SOL     OW80515  12.897   5.331   6.888 -0.5225 -0.9183  0.8605
87508SOL    HW180516  12.917   5.253   6.940  1.2650 -0.0526  1.5424
87508SOL    HW280517  12.840   5.383   6.944 -0.9984 -1.3263  0.7603
87509SOL     OW80518   7.516   2.483  13.999 -0.0848  0.2020  0.0271
87509SOL    HW180519   7.485   2.570  14.026  1.9315  1.1092 -0.3625
87509SOL    HW280520   7.599   2.501  13.955  0.0889 -1.9000 -0.5744
87510SOL     OW80521   6.969   2.894   1.147 -0.1942 -0.4690  0.3452
87510SOL    HW180522   6.925   2.840   1.081 -0.2938 -1.4276  1.1662
87510SOL    HW280523   6.995   2.973   1.100 -2.4028 -0.0447 -0.2761
87511SOL     OW80524   5.064  13.103   1.988  0.7468  0.2903  0.0573
87511SOL    HW180525   5.086  13.011   2.003  1.6686  0.2811 -1.1824
87511SOL    HW280526   5.136  13.151   2.029  0.1996  0.4799  0.8184
87512SOL     OW80527  13.201  12.937   4.154 -0.3098  0.7307  0.0238
87512SOL    HW180528  13.291  12.904   4.145  0.2765  2.4000 -0.6470
87512SOL    HW280529  13.207  13.004   4.222 -0.9497  1.1673 -0.3443
87513SOL     OW80530  12.281  10.828  12.982 -0.5485  0.1674  0.1587
87513SOL    HW180531  12.222  10.758  12.955 -0.5210  0.1359  0.1809
87513SOL    HW280532  12.296  10.880  12.903  1.1852 -1.1005 -0.4012
87514SOL     OW80533  12.040   7.082   0.520  0.4543 -0.4435  0.4112
87514SOL    HW180534  11.953   7.122   0.531  0.8569  0.8462 -0.7947
87514SOL    HW280535  12.093   7.123   0.589  0.4772 -0.0460  0.1638
87515SOL     OW80536   4.228  12.794  12.160  0.4095  0.3947 -0.0687
87515SOL    HW180537   4.136  12.776  12.145  0.3692  1.1384 -0.7713
87515SOL    HW280538   4.245  12.762  12.249  0.0007 -1.6818 -0.6953
87516SOL     OW80539   7.641   7.442   0.314  0.2752  0.5432  0.2122
87516SOL    HW180540   7.574   7.474   0.375 -2.8502 -1.6900 -1.7919
87516SOL    HW280541   7.613   7.475   0.229  0.6782 -1.9270 -0.9347
87517SOL     OW80542   7.071  12.925   1.554 -0.6103  0.0142  0.3499
87517SOL    HW180543   7.166  12.927   1.559 -0.6826  1.6911  2.1921
87517SOL    HW280544   7.045  12.853   1.610 -0.4475 -0.2438  0.0952
87518SOL     OW80545  11.035  10.834   7.188  0.3103 -0.2938  0.2180
87518SOL    HW180546  11.056  10.895   7.118 -0.9608 -0.9434 -0.7854
87518SOL    HW280547  11.076  10.751   7.162 -0.6670 -0.6977 -0.0939
87519SOL     OW80548  11.849   3.814  13.056 -0.1235  0.6652 -0.3427
87519SOL    HW180549  11.766   3.772  13.032 -0.5275  0.9914  0.4346
87519SOL    HW280550  11.840   3.904  13.026 -0.1994  0.7939  0.0562
87520SOL     OW80551   1.407   8.120   1.716  0.2340 -0.2946 -0.4314
87520SOL    HW180552   1.478   8.179   1.690  1.7489 -0.7629  2.2711
87520SOL    HW280553   1.359   8.169   1.782 -1.1369 -0.5335 -1.2265
87521SOL     OW80554  13.488   3.962   6.363 -0.0567  0.0276 -0.3299
87521SOL    HW180555  13.569   3.975   6.414 -0.5785  1.4847  0.1929
87521SOL    HW280556  13.418   3.990   6.422 -0.8768 -0.3765 -1.0866
87522SOL     OW80557  13.030   3.142   7.063  0.4032  0.0183  0.2322
87522SOL    HW180558  13.080   3.222   7.050  0.0022  0.2065 -0.2126
87522SOL    HW280559  13.093   3.079   7.095  0.7133  0.5310  0.6415
87523SOL     OW80560   0.968   6.766   5.450 -0.2173  0.5308 -0.2488
87523SOL    HW180561   0.918   6.775   5.531  0.1719  0.7017 -0.0232
87523SOL    HW280562   1.047   6.819   5.465  0.4592 -0.4527 -0.2495
87524SOL     OW80563  13.443   7.930   6.128  0.2866  0.0200 -0.6949
87524SOL    HW180564  13.371   7.993   6.133 -0.1760 -0.6147  1.8209
87524SOL    HW280565  13.509   7.964   6.189  0.3064 -1.5601  0.2031
87525SOL     OW80566  10.043   8.538   8.142 -0.2355  0.7172  0.4173
87525SOL    HW180567  10.047   8.561   8.234 -1.2144  1.6982  0.2291
87525SOL    HW280568  10.034   8.621   8.096 -0.4754  0.1958 -0.5185
87526SOL     OW80569  11.208  11.845   1.918 -0.3712  0.7151 -0.0416
87526SOL    HW180570  11.277  11.889   1.869 -0.9076  0.6016 -0.9202
87526SOL    HW280571  11.196  11.761   1.873  0.5077 -0.2893  1.4883
87527SOL     OW80572   6.082   8.986   5.900  1.1332  0.3614  0.0607
87527SOL    HW180573   6.099   9.033   5.982 -0.5307 -0.9481  1.2419
87527SOL    HW280574   6.153   8.922   5.895 -0.1376 -1.3407  1.9812
87528SOL     OW80575   1.069   5.561   8.212  0.9401  0.2290 -0.0746
87528SOL    HW180576   0.999   5.522   8.265  0.7094  0.4191 -0.2379
87528SOL    HW280577   1.029   5.640   8.174  0.9186 -0.2262 -1.0236
87529SOL     OW80578   2.695   0.800   0.983  0.5899  0.0050  0.0634
87529SOL    HW180579   2.713   0.710   0.956  0.2239 -0.0486 -0.0130
87529SOL    HW280580   2.685   0.848   0.900  0.5902  0.0755  0.1040
87530SOL     OW80581  11.159   1.786   9.967 -0.4936  0.8511  0.2582
87530SOL    HW180582  11.172   1.748  10.054 -1.3157  2.1901  1.0080
87530SOL    HW280583  11.191   1.876   9.976  0.7067  0.6112 -1.2442
87531SOL     OW80584  13.825   6.414  13.794  0.4750  0.4580  0.0582
87531SOL    HW180585  13.829   6.447  13.704 -0.4084 -1.1298 -0.6060
87531SOL    HW280586  13.916   6.413  13.823  0.6369  2.3608 -0.2666
87532SOL     OW80587   6.848  11.493   3.793  0.3047 -0.5434  0.0606
87532SOL    HW180588   6.761  11.533   3.786  1.3831  1.7851 -0.8153
87532SOL    HW280589   6.839  11.410   3.746 -1.8266 -1.1451  1.3666
87533SOL     OW80590   4.787   5.996   7.637  0.5983 -0.1673  0.4984
87533SOL    HW180591   4.848   6.064   7.608 -0.2506  0.7236  0.7263
87533SOL    HW280592   4.779   6.009   7.731  0.8328 -0.9418  0.6333
87534SOL     OW80593   8.856   0.239  11.476 -0.4929  0.1397 -0.1821
87534SOL    HW180594   8.796   0.312  11.460  0.4776  0.8456 -0.7052
87534SOL    HW280595   8.847   0.219  11.569 -2.7655 -0.8948 -0.5544
87535SOL     OW80596   5.336   3.804  12.072 -0.1882 -0.0598  0.2366
87535SOL    HW180597   5.281   3.790  11.995 -0.1641 -0.8280  0.3449
87535SOL    HW280598   5.276   3.800  12.146 -0.2261  0.7828  0.2532
87536SOL     OW80599  13.816   7.871  13.107  0.1354  0.4669  0.2423
87536SOL    HW180600  13.766   7.821  13.172  0.0230  0.4254  0.1271
87536SOL    HW280601  13.813   7.816  13.028 -1.7121  1.5450 -0.4998
87537SOL     OW80602   9.174  12.141   2.105 -0.0218 -0.1084  0.0288
87537SOL    HW180603   9.125  12.219   2.077  1.2131  0.1678 -1.5115
87537SOL    HW280604   9.164  12.079   2.033 -0.8725 -1.3759  1.1820
87538SOL     OW80605   4.174  13.644   4.249  0.0945  0.0958 -0.1485
87538SOL    HW180606   4.211  13.731   4.263  0.2382 -0.3152  2.3507
87538SOL    HW280607   4.250  13.587   4.241  0.0171 -0.1505  0.7975
87539SOL     OW80608   9.612   7.844   1.707 -0.0015 -0.1977 -0.1484
87539SOL    HW180609   9.560   7.854   1.627  0.4078  1.2296 -0.2714
87539SOL    HW280610   9.605   7.929   1.751  0.2752 -0.7601  1.0375
87540SOL     OW80611   4.824   7.366   6.690 -0.6740  0.7318 -0.1293
87540SOL    HW180612   4.814   7.395   6.600  1.9648  0.7136 -0.4911
87540SOL    HW280613   4.811   7.271   6.686 -1.0897  0.7947 -0.3705
87541SOL     OW80614   1.694   1.441  11.940 -0.0333  0.1599  0.2243
87541SOL    HW180615   1.764   1.498  11.909 -0.0807 -0.0750 -0.3208
87541SOL    HW280616   1.636   1.499  11.989  0.1987  0.4778  0.1288
87542SOL     OW80617  10.838  13.255   3.540 -0.3530  0.3086 -0.3698
87542SOL    HW180618  10.869  13.256   3.631  0.8976  1.3113 -0.7751
87542SOL    HW280619  10.764  13.316   3.540 -1.8660 -1.4470  0.4259
87543SOL     OW80620   9.298   6.370  11.355  0.8272 -0.2660 -0.6772
87543SOL    HW180621   9.325   6.308  11.288  1.4061  0.1978 -0.8768
87543SOL    HW280622   9.204   6.355  11.364  0.9578 -1.1814 -0.7043
87544SOL     OW80623   6.546   9.171   0.595  0.7524 -0.4993  0.2953
87544SOL    HW180624   6.555   9.102   0.661  1.6437 -1.8891 -1.2135
87544SOL    HW280625   6.618   9.231   0.613  0.6666 -0.5649  0.8927
87545SOL     OW80626  12.308   0.420   8.423 -0.2094  0.5598 -0.5640
87545SOL    HW180627  12.303   0.325   8.433  0.6239  0.4260 -1.3058
87545SOL    HW280628  12.396   0.443   8.452 -0.2186  1.0326 -0.8940
87546SOL     OW80629   5.523  10.392   3.465 -0.0509 -0.2858  0.0892
87546SOL    HW180630   5.574  10.457   3.418 -1.5566 -1.6408 -3.8265
87546SOL    HW280631   5.577  10.313   3.465  0.0477 -0.2399  1.0230
87547SOL     OW80632   8.294  13.505   3.513  0.7474  0.0204  0.5507
87547SOL    HW180633   8.258  13.417   3.522 -0.4649  0.2087 -1.8627
87547SOL    HW280634   8.244  13.558   3.575 -0.6506 -0.4141 -0.1798
87548SOL     OW80635  13.441   2.822   1.027 -0.0092 -0.4719  0.2875
87548SOL    HW180636  13.348   2.844   1.016  0.5109  0.7159 -2.3473
87548SOL    HW280637  13.444   2.727   1.016 -1.1491 -0.8846  2.8273
87549SOL     OW80638   0.211   9.951   4.960  0.4209 -0.2461 -0.0923
87549SOL    HW180639   0.255   9.895   4.896 -0.5091 -0.8728 -0.2059
87549SOL    HW280640   0.277   9.965   5.029  0.7772 -1.2209 -0.2176
87550SOL     OW80641   4.344  10.967   8.720  0.4978  0.3650  0.3478
87550SOL    HW180642   4.262  10.935   8.758  0.0417  1.9738  0.8139
87550SOL    HW280643   4.396  10.995   8.796  0.1570  2.2779 -0.0614
87551SOL     OW80644  11.723  12.731   3.165 -0.4190 -0.2206 -0.3220
87551SOL    HW180645  11.755  12.788   3.235  0.9791 -0.1084 -1.0182
87551SOL    HW280646  11.658  12.783   3.119 -1.7731 -0.4927  1.2011
87552SOL     OW80647  12.077   0.302  12.855  0.3055  0.5301 -0.0356
87552SOL    HW180648  12.023   0.251  12.914 -0.2408  1.0599 -0.0658
87552SOL    HW280649  12.164   0.302  12.895 -0.5593  2.9000  2.1106
87553SOL     OW80650   0.315  12.936   8.368 -0.1632 -0.3651 -0.0300
87553SOL    HW180651   0.399  12.965   8.334 -0.1014  0.6939  0.9908
87553SOL    HW280652   0.270  12.899   8.291 -0.1294  2.1724 -1.3672
87554SOL     OW80653  12.203   8.264   8.129 -0.5403 -0.0701  0.3757
87554SOL    HW180654  12.157   8.336   8.172  0.5353  0.5335  0.5446
87554SOL    HW280655  12.251   8.220   8.199 -1.8647 -1.5379  0.4336
87555SOL     OW80656   4.603   8.445   4.942  0.0431 -0.4522  0.2511
87555SOL    HW180657   4.581   8.385   4.870  0.5839 -1.0593  0.5849
87555SOL    HW280658   4.518   8.467   4.981 -0.5550  1.8459 -2.0561
87556SOL     OW80659   8.351   3.343  12.041 -0.1186  0.4493  0.3329
87556SOL    HW180660   8.385   3.260  12.009  0.7490  0.7479  0.4464
87556SOL    HW280661   8.282   3.318  12.103 -1.1434 -0.1407 -1.0047
87557SOL     OW80662   8.144   7.137   0.893  0.1164  0.3084  0.5888
87557SOL    HW180663   8.184   7.052   0.872 -1.5745 -0.3585 -0.1025
87557SOL    HW280664   8.207   7.201   0.861  0.7136 -0.7054 -0.3651
87558SOL     OW80665  11.594  13.307   3.695  0.1682  0.0636 -0.3694
87558SOL    HW180666  11.520  13.328   3.752  0.2354 -0.3840 -0.1164
87558SOL    HW280667  11.636  13.232   3.737  0.2793 -0.2066 -0.9570
87559SOL     OW80668   7.810   6.962  10.001  0.1936  0.5916 -0.1560
87559SOL    HW180669   7.881   6.957  10.065  0.1643 -0.5292 -0.2011
87559SOL    HW280670   7.823   7.047   9.958  0.1449  1.4140  1.3944
87560SOL     OW80671   8.670  13.184   7.266  0.0453  0.9746 -0.5419
87560SOL    HW180672   8.593  13.184   7.323 -0.0467  0.2586 -0.6547
87560SOL    HW280673   8.743  13.162   7.325  0.0762  1.0836 -0.5406
87561SOL     OW80674   2.276  12.664   1.432  0.1795 -0.6162 -0.9729
87561SOL    HW180675   2.277  12.583   1.484 -0.0325 -1.8688 -2.7997
87561SOL    HW280676   2.335  12.646   1.359  1.3951  1.5296 -0.5759
87562SOL     OW80677   7.345  10.591   3.373 -0.1349 -0.0089  0.2244
87562SOL    HW180678   7.267  10.605   3.427  0.1838  1.1127  0.4141
87562SOL    HW280679   7.375  10.679   3.351 -0.9050 -0.3958 -2.7739
87563SOL     OW80680   5.597   9.544   4.115 -0.0954  0.5101 -0.8507
87563SOL    HW180681   5.656   9.516   4.045  0.1056 -0.5311 -0.2956
87563SOL    HW280682   5.515   9.498   4.098  0.1889 -0.3639 -0.0146
87564SOL     OW80683  12.896   1.639   0.431 -0.1047  0.1313 -0.2398
87564SOL    HW180684  12.912   1.621   0.524 -1.4009 -0.8136 -0.1758
87564SOL    HW280685  12.857   1.726   0.429  0.7498  0.5341 -0.0007
87565SOL     OW80686   3.315   3.460   0.869  0.0865 -0.1564  0.1893
87565SOL    HW180687   3.314   3.553   0.846  1.2901  0.1128  1.1489
87565SOL    HW280688   3.335   3.416   0.787 -0.7011  0.4004 -0.3232
87566SOL     OW80689   2.255  11.912   0.608 -0.7135 -0.6945 -0.9356
87566SOL    HW180690   2.282  11.873   0.691 -0.6553 -0.7938 -1.0006
87566SOL    HW280691   2.277  11.846   0.542  0.8797  0.0705 -1.2254
87567SOL     OW80692   5.390  10.308   6.922 -0.0109 -0.5869 -0.5249
87567SOL    HW180693   5.328  10.375   6.952  0.4976  0.7148 -2.2511
87567SOL    HW280694   5.334  10.235   6.895 -0.6128 -0.5999  0.6735
87568SOL     OW80695   6.213  12.749  10.700 -0.0797  0.4453 -0.3146
87568SOL    HW180696   6.237  12.703  10.781  0.4089  2.0600  0.5150
87568SOL    HW280697   6.297  12.779  10.664 -0.4285  1.3989 -0.3591
87569SOL     OW80698  11.436  14.117   6.342 -0.3263 -0.1752  0.1791
87569SOL    HW180699  11.354  14.138   6.298  0.1271 -2.0531 -1.7411
87569SOL    HW280700  11.496  14.092   6.271  1.2340 -0.9263  1.6755
87570SOL     OW80701   0.766  11.393   0.159  0.1595  0.1054 -0.2800
87570SOL    HW180702   0.781  11.479   0.198  0.1771  0.0875 -0.2474
87570SOL    HW280703   0.707  11.409   0.086 -0.1913  0.0832 -0.0049
87571SOL     OW80704   8.880   0.886   1.384 -0.7624  0.0881  0.6426
87571SOL    HW180705   8.858   0.865   1.475 -2.4571 -0.3374  0.1680
87571SOL    HW280706   8.848   0.975   1.371  0.8112  0.7309  0.8448
87572SOL     OW80707   0.912   7.052   0.710 -0.4314 -0.7129  0.5977
87572SOL    HW180708   0.998   7.087   0.688 -0.6339 -1.3571 -1.4824
87572SOL    HW280709   0.904   7.064   0.805  1.2994  0.7533  0.6110
87573SOL     OW80710  12.112   0.133   0.857  0.1642 -0.1819  0.4255
87573SOL    HW180711  12.144   0.107   0.944 -0.4957  0.1781  0.7849
87573SOL    HW280712  12.112   0.228   0.859 -2.3182 -0.1314  0.9933
87574SOL     OW80713   4.437   9.572  13.866 -0.4166 -0.4355  0.8752
87574SOL    HW180714   4.348   9.537  13.877 -1.4764  2.0348  0.6615
87574SOL    HW280715   4.489   9.495  13.845 -3.0961 -1.6396 -2.3142
87575SOL     OW80716   6.681   8.248   3.298 -0.0766 -0.0242 -0.7633
87575SOL    HW180717   6.642   8.323   3.342  0.4695  0.1713 -0.6036
87575SOL    HW280718   6.622   8.230   3.225 -0.1297  0.6581 -0.8977
87576SOL     OW80719  10.458  10.295   3.056 -0.0066  0.5036 -0.4669
87576SOL    HW180720  10.457  10.209   3.099  0.9656 -0.2734 -1.9043
87576SOL    HW280721  10.550  10.322   3.059 -0.4641  2.1304  1.0812
87577SOL     OW80722   7.928   5.570   9.567  0.1402 -0.6040 -0.2191
87577SOL    HW180723   7.914   5.486   9.611  1.9757 -1.1359 -0.5366
87577SOL    HW280724   7.909   5.553   9.475  1.3385 -0.9482 -0.4255
87578SOL     OW80725  12.162   3.853   2.511 -0.4793  0.1413 -0.6930
87578SOL    HW180726  12.232   3.902   2.468 -1.3886  0.9654 -1.2943
87578SOL    HW280727  12.185   3.854   2.604 -0.1376  1.1580 -0.7792
87579SOL     OW80728   4.775   0.393  10.627 -0.2951 -0.1716  0.5466
87579SOL    HW180729   4.801   0.352  10.709  0.3310  1.9603  1.5070
87579SOL    HW280730   4.853   0.388  10.572 -0.0695  0.0923  0.8333
87580SOL     OW80731  12.959   2.374   5.036 -0.0985  0.5878  0.2485
87580SOL    HW180732  13.001   2.418   4.962  2.2202  0.2703  1.3023
87580SOL    HW280733  13.004   2.290   5.043  0.2235  0.8760  2.3950
87581SOL     OW80734   6.683   3.242  13.339  0.3090 -0.2419 -0.4288
87581SOL    HW180735   6.653   3.219  13.428  0.9998  0.7632  0.0738
87581SOL    HW280736   6.604   3.233  13.285 -0.0131 -1.3343  0.1875
87582SOL     OW80737   0.853  11.815   3.507 -0.8069 -0.8674 -0.4319
87582SOL    HW180738   0.862  11.779   3.595 -0.8159 -1.8784 -0.8233
87582SOL    HW280739   0.773  11.867   3.511 -1.5491 -1.9688 -0.1556
87583SOL     OW80740   6.616   7.522  10.190 -0.3392  0.2070 -0.4390
87583SOL    HW180741   6.550   7.592  10.188  0.0495  0.6154  0.3944
87583SOL    HW280742   6.695   7.564  10.224  0.2931 -0.3334 -1.1943
87584SOL     OW80743   3.042  14.003   3.556  0.1740 -0.0437 -0.1673
87584SOL    HW180744   3.013  14.070   3.494 -0.3922  0.6696  0.8324
87584SOL    HW280745   3.077  13.933   3.502  3.1821  2.0801 -1.2366
87585SOL     OW80746   5.991   8.550   0.109 -0.1942  0.0063  0.1026
87585SOL    HW180747   5.964   8.476   0.164  0.3532  0.3349  0.8227
87585SOL    HW280748   6.046   8.604   0.166  0.1125  0.5279 -0.6703
87586SOL     OW80749  11.208  11.778  12.973 -0.4185  0.1443 -0.2949
87586SOL    HW180750  11.259  11.827  13.037 -0.3737 -0.4578  0.1394
87586SOL    HW280751  11.254  11.792  12.890 -0.2726  0.6351 -0.1384
87587SOL     OW80752  10.274   5.795   6.997 -0.3747 -0.5710  0.0057
87587SOL    HW180753  10.321   5.757   6.923  0.1495 -1.4217  0.7476
87587SOL    HW280754  10.266   5.888   6.977  1.6027 -0.3953 -0.1666
87588SOL     OW80755  13.911   7.557  11.361 -0.5953  0.5496 -0.2938
87588SOL    HW180756  13.827   7.562  11.407 -1.0971 -1.5805 -0.8444
87588SOL    HW280757  13.886   7.542  11.269  0.2799 -2.4741 -0.1503
87589SOL     OW80758  12.024  11.885   4.662  0.6442  0.4094  0.2644
87589SOL    HW180759  12.024  11.852   4.572  1.2190 -0.3390  0.5188
87589SOL    HW280760  12.080  11.963   4.659  0.0515  0.8210 -0.1680
87590SOL     OW80761  13.160   3.187  13.486 -0.4883 -0.0083  0.4272
87590SOL    HW180762  13.186   3.228  13.569  0.4159  1.5449 -0.5714
87590SOL    HW280763  13.231   3.126  13.466 -0.2047  0.3594  0.3045
87591SOL     OW80764   5.995   3.233   6.036 -0.1061  0.4376  0.1610
87591SOL    HW180765   5.930   3.173   6.071  1.7736 -0.4931  2.2377
87591SOL    HW280766   5.954   3.320   6.046 -1.3769 -0.1700  0.5110
87592SOL     OW80767   9.802   0.480   6.867  0.0429 -0.2355  0.3677
87592SOL    HW180768   9.824   0.419   6.796  0.5248  0.8014 -0.3983
87592SOL    HW280769   9.716   0.451   6.898  0.7694 -2.0216  0.8368
87593SOL     OW80770   6.267  13.657   2.770  0.2143 -0.0341 -0.1468
87593SOL    HW180771   6.327  13.629   2.701 -0.0256  0.7148 -0.6709
87593SOL    HW280772   6.190  13.602   2.759  0.7308 -0.9090  0.4459
87594SOL     OW80773   5.076   7.199  11.836  0.0274 -0.3170  0.1392
87594SOL    HW180774   4.986   7.220  11.811  0.0112 -0.0092  0.4481
87594SOL    HW280775   5.119   7.285  11.842  0.4495 -0.4838 -0.4170
87595SOL     OW80776  10.968   4.817   8.522  0.0517 -0.1426  0.0419
87595SOL    HW180777  10.990   4.829   8.614  1.7643  1.0818 -0.4734
87595SOL    HW280778  11.027   4.748   8.492 -1.5001 -1.5856  0.1556
87596SOL     OW80779   5.284   3.624   7.310 -0.0773  0.5962  0.1382
87596SOL    HW180780   5.361   3.674   7.338  0.1103  1.4214 -1.6880
87596SOL    HW280781   5.319   3.538   7.284 -0.0328  0.3895  0.8564
87597SOL     OW80782   1.571  10.026   3.603 -0.4719  0.5257 -0.2584
87597SOL    HW180783   1.540  10.081   3.531 -2.5022  1.3912  1.1789
87597SOL    HW280784   1.560   9.937   3.571 -1.2520  0.8864 -1.0583
87598SOL     OW80785  14.124   9.703   0.100 -0.0724  0.1943  0.1012
87598SOL    HW180786  14.191   9.678   0.164  0.8154  1.2658 -0.3755
87598SOL    HW280787  14.070   9.768   0.146 -0.0003  0.2709  0.0791
87599SOL     OW80788  11.271   2.150   2.562 -0.4866 -0.0221  0.0662
87599SOL    HW180789  11.341   2.097   2.599 -2.0043 -1.5079  0.9169
87599SOL    HW280790  11.221   2.090   2.507 -1.4728  0.8320 -0.0066
87600SOL     OW80791   8.332  14.084   9.036 -0.0998  0.3277 -0.2000
87600SOL    HW180792   8.313  14.149   9.104  1.4688 -0.1223  0.7221
87600SOL    HW280793   8.290  14.119   8.957 -1.2436  1.2946  0.7921
87601SOL     OW80794  10.109   6.629  13.586  0.0016 -0.0935  0.4152
87601SOL    HW180795  10.142   6.662  13.669 -0.3505 -2.4578  1.5773
87601SOL    HW280796  10.188   6.605  13.537  0.1838  0.5249  0.3963
87602SOL     OW80797   1.654   4.476   9.770  0.2042  0.4428 -0.0860
87602SOL    HW180798   1.568   4.492   9.809  0.8094  0.1020  1.4714
87602SOL    HW280799   1.660   4.380   9.764  0.4962  0.4604 -0.1188
87603SOL     OW80800  11.919   8.280   4.957  0.2058  0.0080  0.1839
87603SOL    HW180801  11.940   8.337   5.031 -0.1595  0.3314  0.0437
87603SOL    HW280802  12.004   8.253   4.922  0.4097 -1.7353  1.9073
87604SOL     OW80803   8.330   9.172   7.143  0.4593 -0.4386 -0.1347
87604SOL    HW180804   8.397   9.196   7.207  0.5524  0.7592 -0.6529
87604SOL    HW280805   8.247   9.190   7.188  0.5257  0.4701 -0.3462
87605SOL     OW80806   5.581  13.654  11.153  0.6263 -0.3549 -0.0307
87605SOL    HW180807   5.542  13.575  11.191  0.8338  0.0801  1.1549
87605SOL    HW280808   5.595  13.712  11.229  0.1511  0.9575 -0.9067
87606SOL     OW80809  10.600  13.905   8.413  0.8006 -0.0414  0.5173
87606SOL    HW180810  10.693  13.923   8.422  1.3107 -2.0215 -0.2895
87606SOL    HW280811  10.585  13.827   8.467 -0.2798 -0.0415  0.2445
87607SOL     OW80812  12.326   8.409   1.778  0.4842 -0.1208  0.2039
87607SOL    HW180813  12.271   8.472   1.824  1.6858 -0.1075  1.7282
87607SOL    HW280814  12.267   8.339   1.752 -0.6504  1.0123 -0.3460
87608SOL     OW80815   5.547   8.930  11.608  0.0759  0.0544  0.3737
87608SOL    HW180816   5.545   8.894  11.696  0.7320  0.1576  0.4370
87608SOL    HW280817   5.471   8.988  11.603 -1.1052 -1.4373  0.2167
87609SOL     OW80818   6.784   4.292   5.422 -0.6782  0.1803 -0.0253
87609SOL    HW180819   6.711   4.236   5.396 -0.3474 -0.4997  0.4912
87609SOL    HW280820   6.831   4.242   5.488  2.0473 -0.6975 -2.4419
87610SOL     OW80821   3.904   8.649   0.812 -0.0964  0.1764  0.2943
87610SOL    HW180822   3.920   8.744   0.811 -0.0814  0.1696 -0.1844
87610SOL    HW280823   3.822   8.638   0.765  1.0196 -0.2489 -1.6592
87611SOL     OW80824  10.797   3.703   9.728 -0.4562  0.0238 -0.3922
87611SOL    HW180825  10.742   3.647   9.783 -0.3576  0.6972  0.4051
87611SOL    HW280826  10.737   3.742   9.666 -1.1971  1.9234  1.4056
87612SOL     OW80827  10.184   8.761   9.761 -0.0067 -0.1979  0.2761
87612SOL    HW180828  10.172   8.809   9.843 -1.6201  1.3146 -0.7814
87612SOL    HW280829  10.272   8.723   9.769  0.6465  1.4758  1.9154
87613SOL     OW80830   7.626   2.358   1.713  0.0594 -0.0782 -0.8918
87613SOL    HW180831   7.562   2.301   1.757  2.1507 -2.6838 -0.9828
87613SOL    HW280832   7.613   2.341   1.620  1.5948 -1.5866 -0.8807
87614SOL     OW80833   7.860   8.401   2.118  0.0817  0.4089  0.1358
87614SOL    HW180834   7.853   8.449   2.036 -0.8771  3.0296  1.6433
87614SOL    HW280835   7.777   8.355   2.126  0.5233 -0.6017 -0.7166
87615SOL     OW80836   5.641  12.527   1.340 -0.1413 -0.3304 -0.5683
87615SOL    HW180837   5.706  12.488   1.399 -1.2720 -0.2834  0.7728
87615SOL    HW280838   5.644  12.621   1.361 -1.9278 -0.5515  0.9023
87616SOL     OW80839   1.982  10.279   0.513 -0.1693  0.0491  0.2340
87616SOL    HW180840   1.968  10.259   0.606 -1.0142  0.0902  0.1313
87616SOL    HW280841   1.909  10.234   0.469  1.5788 -2.0953 -0.6822
87617SOL     OW80842   1.780  12.833  12.257 -0.0427 -0.6710 -0.0100
87617SOL    HW180843   1.743  12.909  12.213 -0.3776 -0.5972  0.3926
87617SOL    HW280844   1.875  12.848  12.256  0.0354 -1.1018 -1.4916
87618SOL     OW80845   1.520  11.097   4.422 -0.3964 -0.1400 -0.4856
87618SOL    HW180846   1.504  11.046   4.501  1.2127 -1.8775 -1.2042
87618SOL    HW280847   1.542  11.033   4.355  2.5756  1.4420 -1.2429
87619SOL     OW80848   2.687  11.282   3.929 -0.4180 -0.2942 -0.0698
87619SOL    HW180849   2.646  11.224   3.993  0.9497 -0.7465  0.4092
87619SOL    HW280850   2.615  11.340   3.901 -1.3238 -0.8916  0.9287
87620SOL     OW80851   9.764   1.224   8.553 -0.1925  0.5917  0.4270
87620SOL    HW180852   9.856   1.239   8.576  0.0396 -0.1163 -0.0087
87620SOL    HW280853   9.744   1.293   8.489 -0.0860  0.9863  0.8140
87621SOL     OW80854   3.045   7.667   2.752 -0.2493  0.2001 -0.1254
87621SOL    HW180855   2.983   7.739   2.756  2.3707  2.5888  0.4695
87621SOL    HW280856   3.066   7.659   2.659 -1.4652 -0.7445 -0.3544
87622SOL     OW80857   2.906  12.348   4.220  0.0474  0.0140 -0.5719
87622SOL    HW180858   2.961  12.349   4.142  1.2912  0.5460  0.2812
87622SOL    HW280859   2.922  12.263   4.261 -0.4602 -0.1900 -0.7909
87623SOL     OW80860  13.509   6.009  11.228  0.7132  0.0897  0.2660
87623SOL    HW180861  13.513   5.915  11.243 -2.0687 -0.2587 -0.6458
87623SOL    HW280862  13.532   6.021  11.136 -0.4847  0.0961 -0.0442
87624SOL     OW80863  12.775   1.677  11.164  0.3815 -0.2050 -0.9583
87624SOL    HW180864  12.850   1.658  11.220  1.9435  0.0020 -2.8726
87624SOL    HW280865  12.746   1.764  11.191  0.5750 -0.4396  0.0393
87625SOL     OW80866  13.349   2.236   3.584  0.2024 -0.0581  0.0780
87625SOL    HW180867  13.297   2.251   3.663  0.4915 -0.6463  0.3839
87625SOL    HW280868  13.301   2.168   3.536  0.2004  0.0647 -0.0954
87626SOL     OW80869   1.637   8.326   7.961 -0.0710 -0.0061  0.2883
87626SOL    HW180870   1.609   8.392   7.898  1.6348  2.2279  1.7456
87626SOL    HW280871   1.732   8.329   7.958  0.0542 -0.0709  2.7062
87627SOL     OW80872  10.523   3.424   6.035 -0.3010  0.3263 -0.5446
87627SOL    HW180873  10.505   3.331   6.045  2.0428 -0.3597 -2.0025
87627SOL    HW280874  10.596   3.442   6.094 -1.9221  1.7442  1.1540
87628SOL     OW80875  11.381   0.403  11.639 -0.2071  0.6315  0.5971
87628SOL    HW180876  11.314   0.466  11.613 -0.0150  0.6009  0.0137
87628SOL    HW280877  11.432   0.449  11.706  0.6520  1.5487 -0.6378
87629SOL     OW80878  12.198  12.838   2.119  0.0415 -0.2517 -0.2925
87629SOL    HW180879  12.118  12.791   2.095 -0.5012  0.6981 -0.4004
87629SOL    HW280880  12.246  12.778   2.176 -0.1659 -1.3066 -1.2076
87630SOL     OW80881   5.440   4.299  11.971  0.3919 -0.6288 -0.6155
87630SOL    HW180882   5.412   4.211  11.997  0.6265 -0.2792  0.9312
87630SOL    HW280883   5.508   4.323  12.035  0.2101  0.7489 -0.8980
87631SOL     OW80884  11.722   1.241   8.562 -0.4216  0.3936  0.3401
87631SOL    HW180885  11.676   1.229   8.645  0.0305 -0.4021  0.4896
87631SOL    HW280886  11.668   1.302   8.513 -1.4429 -0.2196  0.6619
87632SOL     OW80887  10.585   9.725  11.500 -0.2180  0.0770  0.3281
87632SOL    HW180888  10.551   9.792  11.441  1.4046  2.6296  2.0787
87632SOL    HW280889  10.520   9.720  11.570  0.5576  1.3065  1.1681
87633SOL     OW80890   3.285   6.550   5.611  0.2724 -0.2346  0.5871
87633SOL    HW180891   3.280   6.455   5.598 -0.9056  0.0132 -1.3144
87633SOL    HW280892   3.316   6.583   5.527 -0.4378  1.1400  0.8417
87634SOL     OW80893   9.093   3.165   2.495 -0.1578 -0.4209 -0.1023
87634SOL    HW180894   9.107   3.175   2.589  0.4746 -0.8201 -0.1495
87634SOL    HW280895   9.166   3.112   2.465 -0.9784 -1.2802 -0.6321
87635SOL     OW80896  11.897   2.893  13.626  0.3151 -0.2421 -0.0738
87635SOL    HW180897  11.976   2.891  13.573  0.9692 -0.5163  0.8915
87635SOL    HW280898  11.918   2.953  13.699  0.1747 -1.4379  0.9859
87636SOL     OW80899   5.294   5.340  10.739  0.1779  0.4127 -0.6545
87636SOL    HW180900   5.325   5.266  10.791 -2.3419 -0.7920 -0.6686
87636SOL    HW280901   5.294   5.307  10.649 -3.1674 -0.6250 -0.4465
87637SOL     OW80902   3.316   1.131  12.271 -0.7371  0.2127 -0.4034
87637SOL    HW180903   3.267   1.121  12.189 -1.1217 -0.2546 -0.1245
87637SOL    HW280904   3.308   1.224  12.292 -1.2057  0.2117 -0.5549
87638SOL     OW80905   3.049   9.452  13.598 -0.2239 -0.0281 -0.0905
87638SOL    HW180906   2.963   9.417  13.575 -0.1338 -1.3187  1.3238
87638SOL    HW280907   3.038   9.547  13.599 -2.1862 -0.2078  1.8933
87639SOL     OW80908   1.790   8.163  12.890 -0.2068  0.3761  0.6641
87639SOL    HW180909   1.718   8.154  12.952  0.2509  0.7956  1.2674
87639SOL    HW280910   1.753   8.136  12.806 -1.2163  1.0876  0.8641
87640SOL     OW80911  13.937   9.680   2.774 -0.5465  0.2253  0.3131
87640SOL    HW180912  13.933   9.687   2.869  1.5673  1.1577  0.3962
87640SOL    HW280913  13.988   9.600   2.758 -1.3372 -0.2146 -0.0631
87641SOL     OW80914   0.672   5.507   7.618 -0.2552 -0.0206 -0.9282
87641SOL    HW180915   0.679   5.538   7.528  1.8385  1.7106 -0.2512
87641SOL    HW280916   0.647   5.584   7.668  1.3380 -0.2760  0.3227
87642SOL     OW80917   5.080   3.502   7.499 -0.3082  0.6510  0.3823
87642SOL    HW180918   5.127   3.473   7.578 -1.2231 -1.7925  0.1308
87642SOL    HW280919   5.148   3.538   7.443  0.9618 -0.8666  0.8717
87643SOL     OW80920   0.871  11.224   2.870 -0.1341 -0.4295 -0.0493
87643SOL    HW180921   0.796  11.282   2.853  1.2993  1.9237  1.0961
87643SOL    HW280922   0.947  11.272   2.836  1.1524 -1.5955  1.0364
87644SOL     OW80923  11.771  13.391  11.092  0.4596 -0.0432  0.3561
87644SOL    HW180924  11.702  13.373  11.028 -0.2906  1.2225  0.7629
87644SOL    HW280925  11.799  13.480  11.071  1.2452 -0.1717  0.8608
87645SOL     OW80926   0.621   3.082   9.125 -0.2988  0.2763 -0.6235
87645SOL    HW180927   0.645   3.041   9.042  0.2591 -1.5172  0.3692
87645SOL    HW280928   0.620   3.010   9.188 -1.7749  1.4056  0.7291
87646SOL     OW80929   3.923   3.124   5.196 -0.3897 -0.2213  0.5842
87646SOL    HW180930   3.860   3.078   5.252  0.2514 -1.1327  0.5680
87646SOL    HW280931   3.921   3.076   5.114  0.4808 -0.3823  0.6544
87647SOL     OW80932   8.981   1.087   3.276 -0.0554  0.3816 -0.1532
87647SOL    HW180933   9.076   1.090   3.262  0.2921  2.3928  2.1181
87647SOL    HW280934   8.950   1.174   3.252 -1.4753 -0.4237 -1.4111
87648SOL     OW80935  12.174   6.416  10.524  0.4983  0.5902 -0.5258
87648SOL    HW180936  12.185   6.360  10.601 -0.8204 -0.0081 -0.7449
87648SOL    HW280937  12.080   6.418  10.509  0.6868  1.1948 -1.7766
87649SOL     OW80938  10.962   5.666   9.671 -0.3112  0.3880 -0.3455
87649SOL    HW180939  10.961   5.761   9.659 -0.8999  0.2486 -1.5709
87649SOL    HW280940  11.054   5.644   9.681  0.0094  0.8924 -1.9129
87650SOL     OW80941   0.996   9.386  11.729  0.0784 -0.1826 -0.1292
87650SOL    HW180942   1.073   9.392  11.786 -0.4507  0.4800  0.5357
87650SOL    HW280943   0.922   9.399  11.788 -0.6177 -1.8985 -0.5654
87651SOL     OW80944  12.755   2.089   3.204  0.0806  0.0635 -0.5192
87651SOL    HW180945  12.810   2.050   3.271 -0.5330  1.2252  0.7092
87651SOL    HW280946  12.674   2.039   3.206 -0.3709  0.8106  0.4311
87652SOL     OW80947  10.598  11.413   7.572 -0.1563  0.4589 -0.2654
87652SOL    HW180948  10.573  11.424   7.480 -0.9539  0.1051 -0.1018
87652SOL    HW280949  10.568  11.325   7.594  2.2082 -0.4122 -0.3347
87653SOL     OW80950   2.283   8.990   1.897 -0.5834  0.0464  0.3276
87653SOL    HW180951   2.298   8.942   1.816 -1.6318 -3.1625  1.8351
87653SOL    HW280952   2.222   9.060   1.874 -0.5425 -0.5393 -1.6940
87654SOL     OW80953   7.559  13.799   9.435 -0.3823  0.2954  0.5288
87654SOL    HW180954   7.558  13.894   9.442  0.4942  0.5456 -1.9042
87654SOL    HW280955   7.469  13.774   9.415 -0.3205  0.7823 -0.3818
87655SOL     OW80956  10.055   4.051   7.876  0.6295 -0.8214 -0.1340
87655SOL    HW180957   9.985   4.007   7.827 -0.0593  0.7199 -0.5787
87655SOL    HW280958  10.111   4.088   7.809 -0.9324  2.2856  0.0997
87656SOL     OW80959   6.037   1.461  12.123 -0.0307 -0.3073  0.1345
87656SOL    HW180960   6.103   1.515  12.166  0.6021 -1.3806  0.5554
87656SOL    HW280961   6.075   1.439  12.038  1.1562 -2.6789  1.1898
87657SOL     OW80962   3.888  13.483   0.478  0.3936 -0.1088  0.6702
87657SOL    HW180963   3.933  13.423   0.538  0.0964 -0.9872  0.0353
87657SOL    HW280964   3.923  13.569   0.500  3.6759 -0.9002 -0.8535
87658SOL     OW80965   7.899   4.343  13.275 -0.7792  0.3666  0.1926
87658SOL    HW180966   7.920   4.436  13.268  1.3363  0.0757  1.7872
87658SOL    HW280967   7.919   4.320  13.365  0.8913 -2.0742 -0.6809
87659SOL     OW80968  11.585   3.032   1.375  0.4106 -0.6218 -0.3398
87659SOL    HW180969  11.556   2.945   1.405  1.1183 -0.2164  1.6723
87659SOL    HW280970  11.509   3.088   1.388  1.1226 -0.1426  2.2720
87660SOL     OW80971  13.742  10.686   2.400 -0.5803 -0.8574  0.0753
87660SOL    HW180972  13.725  10.706   2.492  0.9912  0.7136  0.0629
87660SOL    HW280973  13.836  10.701   2.389 -1.0953  1.1232 -2.2716
87661SOL     OW80974   3.938   9.495   1.342 -0.0254 -0.0814 -0.7007
87661SOL    HW180975   3.908   9.542   1.264 -0.8447 -1.4449 -1.2500
87661SOL    HW280976   3.979   9.416   1.308  0.4204 -0.2577  0.2275
87662SOL     OW80977  11.969   0.590   2.837 -0.0074 -0.4402 -0.1282
87662SOL    HW180978  12.052   0.625   2.803 -0.0874 -1.3477 -1.3548
87662SOL    HW280979  11.923   0.558   2.759 -2.6716  2.2586  0.1527
87663SOL     OW80980  12.412  10.109   2.256  0.1686  0.0195  0.1277
87663SOL    HW180981  12.328  10.151   2.236  0.7840  1.6843  0.8394
87663SOL    HW280982  12.441  10.150   2.337  1.4463 -0.8823  0.1623
87664SOL     OW80983   7.019  12.822  13.875  0.6147  0.7199  0.7535
87664SOL    HW180984   7.095  12.813  13.818 -0.2522  2.7231 -0.8522
87664SOL    HW280985   7.039  12.896  13.932  0.4357  0.3385  1.3234
87665SOL     OW80986   6.585   6.784  13.771  0.4134 -0.2664 -0.3652
87665SOL    HW180987   6.492   6.760  13.774 -0.1444  1.5855 -1.1515
87665SOL    HW280988   6.602   6.823  13.857  0.1235  0.4539 -0.6246
87666SOL     OW80989   1.536   0.997  10.249  0.4364  0.1526  0.4108
87666SOL    HW180990   1.579   1.012  10.333  1.9984 -3.0103  0.3123
87666SOL    HW280991   1.445   1.022  10.264  0.3889 -1.3730  3.4496
87667SOL     OW80992   6.292  10.844   5.406 -0.0930 -0.3563  0.0803
87667SOL    HW180993   6.319  10.791   5.330  1.7162 -1.4558  1.4109
87667SOL    HW280994   6.315  10.791   5.482 -0.1675  1.4843  1.4574
87668SOL     OW80995  13.924   0.747   1.370 -0.0324  0.7329 -0.6871
87668SOL    HW180996  13.888   0.670   1.414 -0.4422  1.1494 -0.2767
87668SOL    HW280997  13.931   0.722   1.278  1.4272 -0.3669 -0.3081
87669SOL     OW80998   4.518   1.331   8.714  0.6971 -0.2314 -0.6563
87669SOL    HW180999   4.519   1.352   8.620  0.8374 -0.0988 -0.6248
87669SOL    HW281000   4.486   1.411   8.756 -0.4686 -0.6621 -0.6878
87670SOL     OW81001   0.595   7.673   8.526  0.1216 -0.4429  0.7404
87670SOL    HW181002   0.563   7.753   8.484 -0.2342 -1.3723 -0.8210
87670SOL    HW281003   0.516   7.628   8.557  0.2137 -0.8634  0.3679
87671SOL     OW81004  12.987  10.875   1.411 -0.3021  0.3516 -0.3432
87671SOL    HW181005  13.058  10.818   1.381 -0.8209 -0.6518  0.2558
87671SOL    HW281006  13.018  10.909   1.495 -0.8637 -0.8096  0.3670
87672SOL     OW81007   3.607   1.151   2.247  0.2882 -0.0614  0.3059
87672SOL    HW181008   3.525   1.199   2.252  0.6896  0.6214  0.4534
87672SOL    HW281009   3.596   1.076   2.306 -0.5412 -0.4728 -0.3492
87673SOL     OW81010  13.351   0.015   6.873 -0.3092 -0.5877  0.2415
87673SOL    HW181011  13.326  -0.076   6.859  0.0342 -0.7924  0.8894
87673SOL    HW281012  13.295   0.045   6.944  0.5230 -0.7257  0.9765
87674SOL     OW81013  11.252   8.953  13.521 -0.6140  0.1490 -0.1073
87674SOL    HW181014  11.164   8.916  13.521 -0.8052  0.5470 -1.5907
87674SOL    HW281015  11.239   9.047  13.530 -0.1674  0.0207  2.8047
87675SOL     OW81016  11.249   4.749   6.296 -0.4399  0.0464  0.0099
87675SOL    HW181017  11.245   4.784   6.385  0.7018  2.4374 -0.8007
87675SOL    HW281018  11.326   4.693   6.296 -2.1407 -2.4977  1.2523
87676SOL     OW81019   7.722  12.199   9.948  0.5083  0.6831  0.1757
87676SOL    HW181020   7.781  12.181   9.874  1.0684  0.9718  0.5457
87676SOL    HW281021   7.690  12.288   9.932  2.1819  1.5434  1.2825
87677SOL     OW81022   9.513  13.267   7.432 -0.7169  0.3044  0.1405
87677SOL    HW181023   9.472  13.324   7.497  1.1345  2.3313 -0.3763
87677SOL    HW281024   9.494  13.309   7.348 -1.5377 -1.3140 -0.5398
87678SOL     OW81025   3.371   7.195  13.692 -0.3158  0.5052  0.5250
87678SOL    HW181026   3.413   7.210  13.607 -0.4167  0.7183  0.5113
87678SOL    HW281027   3.390   7.104  13.713  0.2507  0.6271  0.5665
87679SOL     OW81028   4.515  10.954   2.950  0.1400  0.4868 -0.1680
87679SOL    HW181029   4.557  10.929   3.032  1.7530  1.4401 -0.6551
87679SOL    HW281030   4.505  10.871   2.902  0.5488  0.1122  0.3891
87680SOL     OW81031  11.601   1.652   2.051  0.5726 -0.1887 -0.4580
87680SOL    HW181032  11.600   1.631   2.144  0.9822  0.5144 -0.2920
87680SOL    HW281033  11.508   1.652   2.026  0.5485 -2.8117 -0.6350
87681SOL     OW81034  10.686   1.326   4.773  0.3294  0.5687  0.3431
87681SOL    HW181035  10.698   1.305   4.680  2.8971 -1.5000  1.0476
87681SOL    HW281036  10.596   1.300   4.792 -0.0504  0.4861 -1.4014
87682SOL     OW81037   2.167  10.985   5.645 -0.3830  0.3607  0.1338
87682SOL    HW181038   2.181  11.002   5.738  2.1811  0.2681 -0.1529
87682SOL    HW281039   2.129  11.067   5.611 -0.0920  0.8841  1.0341
87683SOL     OW81040   7.079   5.850  13.888 -0.5356 -0.1394  0.2757
87683SOL    HW181041   7.039   5.767  13.860 -0.0740 -0.7436  1.3517
87683SOL    HW281042   7.173   5.834  13.883 -0.4298 -0.2424  2.0011
87684SOL     OW81043   8.754   8.505   0.450 -0.2953 -0.6108 -0.4414
87684SOL    HW181044   8.660   8.514   0.469 -0.1944 -0.2898 -0.0891
87684SOL    HW281045   8.794   8.581   0.491  0.1165 -0.7178 -0.6431
87685SOL     OW81046  11.931   6.593   7.265 -0.1188  1.0065  0.2474
87685SOL    HW181047  11.904   6.571   7.175 -2.5756 -0.6509  1.2808
87685SOL    HW281048  11.854   6.638   7.302  1.2410  2.6112  1.2584
87686SOL     OW81049  10.248   5.461   7.102 -0.1581  0.1591 -0.1739
87686SOL    HW181050  10.310   5.474   7.174 -0.7178  2.0372  0.0368
87686SOL    HW281051  10.164   5.447   7.146 -0.0035 -1.8774 -0.4644
87687SOL     OW81052   5.182  12.203   9.850  0.0539  0.5433  0.0283
87687SOL    HW181053   5.158  12.114   9.822 -2.2364  0.9213  0.5811
87687SOL    HW281054   5.249  12.230   9.787 -0.1379 -1.0971 -0.9554
87688SOL     OW81055  12.505  10.896   8.974  0.2133  0.1166 -0.2491
87688SOL    HW181056  12.457  10.817   8.998 -1.1046  0.8648 -0.3863
87688SOL    HW281057  12.594  10.880   9.008  0.1258 -1.6191 -0.7019
87689SOL     OW81058   7.483   4.167   8.245  0.1170  0.1994 -0.0778
87689SOL    HW181059   7.564   4.119   8.226  0.4800  0.8620 -0.2327
87689SOL    HW281060   7.414   4.114   8.205  0.0839 -1.9623  2.5907
87690SOL     OW81061   5.380  13.842   4.365  0.2912 -0.0168  0.0316
87690SOL    HW181062   5.441  13.813   4.432 -0.9772 -0.1088  1.1776
87690SOL    HW281063   5.346  13.762   4.326 -0.5581 -0.0170  0.7544
87691SOL     OW81064   9.198   4.688   6.666  0.2171 -0.4529 -0.1934
87691SOL    HW181065   9.113   4.697   6.623  0.1543  0.9599  0.1772
87691SOL    HW281066   9.252   4.759   6.629  0.8630 -0.6082  0.4128
87692SOL     OW81067   2.722   2.901  12.832 -0.0687 -0.2870 -0.1080
87692SOL    HW181068   2.746   2.846  12.757 -0.6467 -1.7498  0.7312
87692SOL    HW281069   2.789   2.969  12.835  0.1152 -0.3608 -1.7812
87693SOL     OW81070   4.604   9.414   4.239 -0.0992 -0.5902  0.5509
87693SOL    HW181071   4.512   9.441   4.246 -0.3709 -1.4760  0.5146
87693SOL    HW281072   4.632   9.444   4.152 -0.4111 -0.4977  0.4818
87694SOL     OW81073  11.947   0.197   9.720 -0.4712  0.3621  0.6471
87694SOL    HW181074  12.011   0.244   9.774  0.1550 -0.7748  0.9534
87694SOL    HW281075  11.934   0.114   9.767 -1.8455  0.3924  0.3523
87695SOL     OW81076  11.647   6.942   3.277 -0.0269  0.0810  0.2187
87695SOL    HW181077  11.555   6.970   3.283 -0.4265 -1.1492  0.0027
87695SOL    HW281078  11.697   7.024   3.283 -1.1765  0.9206 -1.0727
87696SOL     OW81079   6.656   4.946   2.823  0.3145  0.1253  0.6297
87696SOL    HW181080   6.632   4.986   2.907 -0.9494 -0.0822  0.3972
87696SOL    HW281081   6.712   4.872   2.847 -0.0443  0.0569  1.3042
87697SOL     OW81082   7.185   9.146  13.272  0.2156  0.2054  0.5635
87697SOL    HW181083   7.166   9.110  13.186 -1.0324  0.2963  0.7829
87697SOL    HW281084   7.280   9.137  13.281  0.1939 -1.1674 -0.2185
87698SOL     OW81085   4.464  11.179   2.789 -0.3426  0.3085  0.7917
87698SOL    HW181086   4.477  11.107   2.851 -1.1726 -0.0391  0.5775
87698SOL    HW281087   4.531  11.165   2.722  0.3319  0.4809  1.4177
87699SOL     OW81088   2.184  10.016   8.126 -0.8352  0.0188  0.3948
87699SOL    HW181089   2.140  10.008   8.211  2.3271  0.8279  2.3107
87699SOL    HW281090   2.163  10.105   8.096 -1.5913 -0.0992  0.5644
87700SOL     OW81091   9.110   3.892   8.794 -0.3795  1.2972  0.3703
87700SOL    HW181092   9.044   3.826   8.817 -2.7768  3.1768 -0.6207
87700SOL    HW281093   9.059   3.965   8.759  2.2899  2.8776 -0.5084
87701SOL     OW81094   2.049   5.459   7.980 -0.1624  0.3046  0.2126
87701SOL    HW181095   1.999   5.499   7.909  1.7925  1.7598 -0.4457
87701SOL    HW281096   2.060   5.530   8.044 -2.9475 -1.2911  2.7040
87702SOL     OW81097   1.693   6.588  13.133 -0.0796  0.2507  0.1524
87702SOL    HW181098   1.659   6.657  13.076 -0.7443 -1.1075 -1.1780
87702SOL    HW281099   1.780   6.617  13.157  0.3599  0.7376 -1.8762
87703SOL     OW81100   5.649   2.358   9.793 -0.3491  0.2797 -0.2829
87703SOL    HW181101   5.652   2.275   9.745 -0.7239 -0.8301  1.5209
87703SOL    HW281102   5.727   2.405   9.764  0.0398 -0.8297 -1.1112
87704SOL     OW81103   9.926   7.284   0.225 -0.1619 -0.0012  0.0622
87704SOL    HW181104   9.941   7.321   0.312  1.5865  0.1906 -0.2856
87704SOL    HW281105  10.007   7.303   0.177 -0.9350 -0.4703 -1.4787
87705SOL     OW81106  13.488   8.606   4.970 -0.1836 -0.0489 -0.7154
87705SOL    HW181107  13.404   8.628   4.930 -0.2477 -0.4112 -0.7841
87705SOL    HW281108  13.471   8.526   5.020  0.1930 -0.3115 -0.9992
87706SOL     OW81109   6.088   1.562   3.014 -0.0223  0.3578 -0.0250
87706SOL    HW181110   6.099   1.646   3.058  0.1068  0.0221  0.5930
87706SOL    HW281111   6.106   1.497   3.081 -4.1226 -0.2886  0.7137
87707SOL     OW81112   4.920   1.172   1.268 -0.6439  0.1970  0.1157
87707SOL    HW181113   4.864   1.163   1.191 -0.5641  0.6410  0.0011
87707SOL    HW281114   4.956   1.085   1.283 -0.5937  0.1271 -0.4009
87708SOL     OW81115  10.876   5.777   3.460 -0.0575 -0.2146  0.4581
87708SOL    HW181116  10.857   5.708   3.396  0.1389  0.2065 -0.0662
87708SOL    HW281117  10.910   5.730   3.536  0.4072 -0.6763 -0.0226
87709SOL     OW81118   1.590   8.498   4.207  0.0400  0.2351  0.0496
87709SOL    HW181119   1.503   8.516   4.243 -1.0134 -2.4356 -0.9007
87709SOL    HW281120   1.633   8.445   4.274  0.4157  0.4377 -0.0329
87710SOL     OW81121   9.479   1.433   0.018  0.2127  0.5393 -0.0214
87710SOL    HW181122   9.401   1.404  -0.030  0.7883 -1.6787  0.2824
87710SOL    HW281123   9.552   1.411  -0.039  0.7825 -0.2420  0.9824
87711SOL     OW81124  13.865   2.382   9.488  0.2617  1.1457  0.2454
87711SOL    HW181125  13.888   2.293   9.464  1.6001  1.3664  0.6447
87711SOL    HW281126  13.841   2.425   9.406 -1.8644  0.0482  0.2149
87712SOL     OW81127   0.272  11.690  12.409  0.2003  0.0917  0.0786
87712SOL    HW181128   0.365  11.707  12.423  0.1808 -1.1424  2.2331
87712SOL    HW281129   0.233  11.700  12.496 -1.4730 -0.5952 -0.5579
87713SOL     OW81130   8.686  13.156  13.745 -0.2609  0.1981  0.2258
87713SOL    HW181131   8.606  13.131  13.698  0.2719  0.2203 -0.7045
87713SOL    HW281132   8.717  13.075  13.785 -0.0533 -0.0832 -0.4859
87714SOL     OW81133   1.079   1.303  13.164  1.3133 -0.1583  0.8269
87714SOL    HW181134   1.174   1.299  13.176  1.4241 -1.1748 -0.2232
87714SOL    HW281135   1.051   1.212  13.167  0.2183  0.1920  2.0648
87715SOL     OW81136   1.514   6.884  13.244  0.0371 -0.3615 -0.5393
87715SOL    HW181137   1.507   6.866  13.338 -0.5813  0.9470 -0.3160
87715SOL    HW281138   1.601   6.922  13.233  0.2678 -0.8891 -0.5699
87716SOL     OW81139   7.248   7.693  11.941  0.5141 -0.8865  0.2394
87716SOL    HW181140   7.179   7.759  11.950  1.4551  0.8140 -3.1175
87716SOL    HW281141   7.303   7.705  12.018  0.8180  2.5960 -0.3432
87717SOL     OW81142  12.291   5.488   1.524  0.3353  0.0404 -0.4050
87717SOL    HW181143  12.280   5.393   1.536  0.4013 -0.0535 -1.0653
87717SOL    HW281144  12.297   5.500   1.429 -1.9520  0.9622 -0.4967
87718SOL     OW81145   2.507  11.854   4.443 -0.6138 -0.0509 -0.1207
87718SOL    HW181146   2.530  11.765   4.415 -0.3615 -0.0856  0.1967
87718SOL    HW281147   2.432  11.877   4.389  0.4310  0.2428 -1.5190
87719SOL     OW81148   0.046   8.866   3.824  0.0730 -0.3270  0.6881
87719SOL    HW181149   0.117   8.861   3.760  0.2716 -0.0238  0.8815
87719SOL    HW281150  -0.031   8.831   3.778  0.3163 -0.5293  0.4337
87720SOL     OW81151   4.300   3.075  13.482  0.2424 -0.3147  0.2668
87720SOL    HW181152   4.327   3.163  13.458 -0.6616  0.0493  0.5359
87720SOL    HW281153   4.291   3.078  13.578 -0.7537 -0.4089  0.1847
87721SOL     OW81154  10.065  10.245   0.924  0.0930  0.3863 -0.8201
87721SOL    HW181155  10.087  10.275   1.012 -0.2737 -0.2093 -0.5263
87721SOL    HW281156  10.021  10.320   0.884  0.0791  0.5905 -0.4316
87722SOL     OW81157   8.287   9.470  13.148 -0.1999  0.2463  0.2923
87722SOL    HW181158   8.220   9.451  13.082  1.4642 -2.4673 -0.8120
87722SOL    HW281159   8.349   9.528  13.104 -1.1571  1.8336  0.9419
87723SOL     OW81160   4.363   6.236   9.358  0.2904 -0.1564 -0.0109
87723SOL    HW181161   4.404   6.291   9.291 -1.2106  0.2122 -0.6488
87723SOL    HW281162   4.424   6.239   9.432  1.9533 -0.5137 -1.3091
87724SOL     OW81163   4.846   9.938   8.183  0.3604 -0.4859  0.2745
87724SOL    HW181164   4.801   9.960   8.265  0.7435 -1.7210  0.8544
87724SOL    HW281165   4.815  10.002   8.120  1.7460  1.9552  1.9057
87725SOL     OW81166  10.973   7.645   4.088 -0.2347  0.2064  0.1635
87725SOL    HW181167  11.030   7.716   4.058  1.3350 -1.7313 -1.6889
87725SOL    HW281168  10.988   7.641   4.183 -0.6115  2.4853  0.3799
87726SOL     OW81169  13.817  13.997   9.434 -0.0869  0.1105 -0.6998
87726SOL    HW181170  13.735  13.986   9.481  0.6539 -2.1307  0.2160
87726SOL    HW281171  13.803  13.953   9.350 -0.1246  0.5799 -0.9411
87727SOL     OW81172  11.367   8.863   0.618  0.3264  0.1665  0.2723
87727SOL    HW181173  11.415   8.784   0.592 -1.3309 -0.9758  0.5738
87727SOL    HW281174  11.310   8.882   0.544 -1.4579 -0.7096  1.3730
87728SOL     OW81175   0.308  10.917   8.995  0.3205 -0.1770  0.6619
87728SOL    HW181176   0.231  10.942   9.046  1.0257  1.3820  1.0466
87728SOL    HW281177   0.338  10.836   9.036 -0.3865 -0.1176  1.3240
87729SOL     OW81178  10.516  13.110   4.565  0.2626 -0.4249  0.5957
87729SOL    HW181179  10.469  13.135   4.645 -2.4391 -0.7424 -0.7914
87729SOL    HW281180  10.520  13.191   4.513 -1.3473 -0.9979 -0.4865
87730SOL     OW81181  10.334   3.850   7.715 -0.5625 -0.3642 -0.5841
87730SOL    HW181182  10.307   3.942   7.712 -1.9180 -0.7246 -0.1469
87730SOL    HW281183  10.396   3.846   7.787 -1.1511  0.0648 -0.0328
87731SOL     OW81184  12.252   5.143   5.005 -0.2764 -0.1243  0.0731
87731SOL    HW181185  12.345   5.154   5.025 -0.3343  1.1229 -0.2511
87731SOL    HW281186  12.210   5.221   5.041 -1.1873 -0.6164  0.1071
87732SOL     OW81187   6.995   6.886  11.870 -0.4331 -0.0251  1.1232
87732SOL    HW181188   6.918   6.835  11.848 -1.3391  0.7407  2.4031
87732SOL    HW281189   6.962   6.974  11.888  1.0362  0.9477 -0.6133
87733SOL     OW81190  12.477   0.524   3.651 -0.2532  0.3661 -0.1300
87733SOL    HW181191  12.475   0.555   3.741  0.8358 -0.2117  0.1010
87733SOL    HW281192  12.570   0.522   3.627 -0.4272 -0.7774 -0.8065
87734SOL     OW81193   0.677   0.058   7.349  0.1578  0.0418  0.1711
87734SOL    HW181194   0.645   0.121   7.285  0.7299  0.2977  0.1326
87734SOL    HW281195   0.708  -0.016   7.297  3.3086  1.3902 -0.1253
87735SOL     OW81196   5.856  11.939   3.020 -0.4710  0.1906  0.3999
87735SOL    HW181197   5.828  11.849   3.001 -0.5769  0.4896 -0.9798
87735SOL    HW281198   5.847  11.948   3.115  0.6956 -1.6360  0.7377
87736SOL     OW81199   4.654  13.831   9.184  0.4966  0.2423  0.6254
87736SOL    HW181200   4.603  13.778   9.244 -0.5974  0.9621  0.3638
87736SOL    HW281201   4.609  13.823   9.100  1.9374 -0.6639 -0.1152
87737SOL     OW81202   2.334   8.183  11.591  0.2927 -0.2365  0.9144
87737SOL    HW181203   2.394   8.250  11.558 -1.3456  1.2700  0.7933
87737SOL    HW281204   2.315   8.210  11.681 -1.2001  0.1304  0.5312
87738SOL     OW81205   9.800   6.760   4.112  0.2936  0.0020  0.7863
87738SOL    HW181206   9.820   6.668   4.130 -0.1144 -0.6597 -1.7352
87738SOL    HW281207   9.710   6.771   4.142 -0.8242 -1.4017 -1.7438
87739SOL     OW81208   8.348   7.558   5.136 -0.0735 -0.4798 -0.4257
87739SOL    HW181209   8.297   7.508   5.199 -1.0886 -0.5564 -1.2842
87739SOL    HW281210   8.332   7.650   5.159 -0.9886 -0.4922 -0.9669
87740SOL     OW81211   9.817  10.499   9.854 -0.5516  0.0715 -0.1441
87740SOL    HW181212   9.829  10.444   9.931  0.8798  1.2327  0.5060
87740SOL    HW281213   9.906  10.516   9.822 -0.9030  2.2685 -0.1111
87741SOL     OW81214  13.655  10.422  12.281  0.2059  0.3374 -0.4705
87741SOL    HW181215  13.682  10.388  12.196  0.0985 -0.2849 -0.2602
87741SOL    HW281216  13.730  10.407  12.338  0.1342  0.4024 -0.3585
87742SOL     OW81217  12.040  13.153   4.062 -0.5496  0.3722 -0.4399
87742SOL    HW181218  11.970  13.211   4.093 -0.6245  1.9112 -3.1829
87742SOL    HW281219  12.078  13.199   3.987  1.6226 -1.6776 -0.7264
87743SOL     OW81220  11.677  11.962   3.356 -0.3282  0.1261 -0.9016
87743SOL    HW181221  11.635  11.920   3.281  0.0988 -0.0477 -1.0487
87743SOL    HW281222  11.755  12.004   3.320 -0.2494  0.2491 -0.5963
87744SOL     OW81223  10.443   3.670   3.253  0.0523 -0.3757 -0.3770
87744SOL    HW181224  10.388   3.687   3.176 -0.0019 -1.0398 -0.4917
87744SOL    HW281225  10.520   3.725   3.239 -1.1428  1.6587  0.4717
87745SOL     OW81226   9.809   2.105  13.139 -0.4564 -0.1453  0.3406
87745SOL    HW181227   9.720   2.080  13.113 -0.7476  0.8613  0.3271
87745SOL    HW281228   9.798   2.185  13.190  0.5562  0.9216 -1.0381
87746SOL     OW81229   0.471  13.090   9.415 -0.1538  0.3420  0.0677
87746SOL    HW181230   0.402  13.128   9.470 -0.1477 -0.1552  0.4274
87746SOL    HW281231   0.493  13.008   9.458  0.0438  0.0749 -0.5357
87747SOL     OW81232   7.917   5.402   6.257 -0.4561 -0.3391 -0.0754
87747SOL    HW181233   7.877   5.471   6.311 -2.4385 -1.5266  0.0626
87747SOL    HW281234   8.011   5.411   6.273 -0.7548  1.5617  0.8636
87748SOL     OW81235   8.983  11.782   6.873 -0.2582  0.4459  0.4126
87748SOL    HW181236   8.940  11.866   6.857  0.8601  1.0606  0.5740
87748SOL    HW281237   9.077  11.800   6.865  0.0192 -0.7240  0.7494
87749SOL     OW81238   1.745   3.279  11.852 -0.1640 -0.4469  0.5939
87749SOL    HW181239   1.671   3.217  11.847 -1.9970  1.6592  0.0523
87749SOL    HW281240   1.736   3.320  11.938  0.1014  0.1740  0.3272
87750SOL     OW81241  11.727  11.231  12.480  0.1553  0.2836 -0.5427
87750SOL    HW181242  11.697  11.299  12.420 -1.0275  0.9137  0.7131
87750SOL    HW281243  11.811  11.263  12.512  0.1228  0.6204 -0.7866
87751SOL     OW81244   9.932  10.640   3.555  0.3484  0.2176  0.4377
87751SOL    HW181245   9.991  10.571   3.525  1.4182  1.5942 -0.7860
87751SOL    HW281246   9.987  10.696   3.610 -0.3233  0.5074  0.8272
87752SOL     OW81247   5.524  12.094  12.626 -0.2951 -0.6040  0.2060
87752SOL    HW181248   5.613  12.066  12.608 -0.3010 -0.6670  0.2740
87752SOL    HW281249   5.509  12.070  12.718 -0.2687 -0.3019  0.2922
87753SOL     OW81250   2.570   1.122  12.299  0.1813  0.3296 -0.3346
87753SOL    HW181251   2.489   1.119  12.248  0.5076 -0.6352 -0.8105
87753SOL    HW281252   2.553   1.188  12.367 -2.2516 -2.0924  1.6275
87754SOL     OW81253   7.238  13.742  12.972 -0.0546 -0.3056  0.1123
87754SOL    HW181254   7.325  13.704  12.966 -0.0167 -0.2171  0.0891
87754SOL    HW281255   7.191  13.708  12.896  1.0152  2.3312 -1.8807
87755SOL     OW81256   0.605   2.002  13.595 -1.1146  0.6033  0.0136
87755SOL    HW181257   0.682   1.979  13.543 -1.2899 -0.4870  0.2150
87755SOL    HW281258   0.639   2.016  13.684 -1.0962  0.5070  0.0215
87756SOL     OW81259   1.742   6.767   9.756 -0.3156  0.1482  0.0327
87756SOL    HW181260   1.784   6.681   9.752 -1.8274 -0.6848  0.9397
87756SOL    HW281261   1.751   6.793   9.848  0.5302  1.2107 -0.3210
87757SOL     OW81262  13.472   8.240   0.402  0.4519 -0.1918 -0.9026
87757SOL    HW181263  13.541   8.277   0.347 -0.1530 -0.0533 -1.5899
87757SOL    HW281264  13.460   8.151   0.369 -0.1185 -0.0095 -1.2071
87758SOL     OW81265   6.133   4.392  10.371 -0.3444  0.3009 -0.0739
87758SOL    HW181266   6.075   4.316  10.367 -0.8629  0.6493  0.6541
87758SOL    HW281267   6.075   4.467  10.356 -0.7109  0.9120  3.5303
87759SOL     OW81268   3.120   1.549  12.032 -0.2286  0.2068 -0.3891
87759SOL    HW181269   3.142   1.517  11.945  2.0415  1.8248 -0.5078
87759SOL    HW281270   3.116   1.644  12.022  0.4596  0.4490  1.3344
87760SOL     OW81271  11.476  11.480  11.875 -0.3855 -0.1774 -0.3285
87760SOL    HW181272  11.565  11.448  11.859 -0.3030 -0.0862 -0.0604
87760SOL    HW281273  11.420  11.403  11.860 -0.2419 -0.2926 -0.2848
87761SOL     OW81274   5.122  11.565   9.975 -0.2201  0.0798  0.1558
87761SOL    HW181275   5.079  11.610   9.902 -1.0506 -0.2938  0.4013
87761SOL    HW281276   5.050  11.534  10.029  0.3851  0.0893  0.9797
87762SOL     OW81277   7.878  11.882   7.239 -0.4563 -0.2912  0.3870
87762SOL    HW181278   7.949  11.927   7.192 -0.0205 -0.3422  0.9784
87762SOL    HW281279   7.883  11.916   7.328 -1.4986  0.0664  0.3218
87763SOL     OW81280   1.314   9.060   4.971  0.6796 -0.1696  0.4044
87763SOL    HW181281   1.360   8.979   4.951  0.9884  0.2458 -0.6045
87763SOL    HW281282   1.352   9.125   4.913 -0.9431  0.2581 -0.2358
87764SOL     OW81283   5.063  10.536   6.547 -0.0556  0.4404  0.2871
87764SOL    HW181284   5.046  10.442   6.557  1.7180  0.1656  1.0615
87764SOL    HW281285   5.100  10.544   6.459 -0.6934  0.5054  0.0184
87765SOL     OW81286   9.043   6.396   1.113 -0.3632 -0.1987  0.5179
87765SOL    HW181287   8.995   6.462   1.163 -0.5054 -0.4347  0.6915
87765SOL    HW281288   9.025   6.417   1.022 -0.1104  0.2290  0.5590
87766SOL     OW81289   2.184  10.426  13.620 -0.0476  0.1014 -0.6944
87766SOL    HW181290   2.175  10.471  13.704 -0.9843  0.1708 -0.8252
87766SOL    HW281291   2.267  10.379  13.628 -1.2726 -1.9301  1.2456
87767SOL     OW81292   2.077  12.335   3.732  0.5842 -0.1923  0.3839
87767SOL    HW181293   2.076  12.332   3.827  1.3085 -0.4927  0.3915
87767SOL    HW281294   1.985  12.336   3.706  0.3728  0.8180  1.1093
87768SOL     OW81295   4.001  13.669   5.164  0.1657 -0.1631 -0.2023
87768SOL    HW181296   4.077  13.714   5.126  0.1972  0.6321  0.7640
87768SOL    HW281297   4.013  13.677   5.258 -1.4991  0.6549 -0.0178
87769SOL     OW81298   1.184   2.699   7.352  0.1888 -0.7494  0.2053
87769SOL    HW181299   1.101   2.737   7.322  0.0833 -1.4750 -0.4365
87769SOL    HW281300   1.200   2.625   7.294  0.0297 -2.1556  1.8595
87770SOL     OW81301  13.534   3.105  12.951 -0.3237 -0.2299 -0.0688
87770SOL    HW181302  13.562   3.031  13.004 -0.4180  0.4328  0.9329
87770SOL    HW281303  13.613   3.158  12.940 -0.5171  0.1343  0.2557
87771SOL     OW81304   2.555   9.183   3.817 -0.3025  0.1419 -0.6480
87771SOL    HW181305   2.535   9.244   3.746  2.2324  1.0766 -0.6393
87771SOL    HW281306   2.551   9.236   3.896 -2.5507 -0.7742 -0.0604
87772SOL     OW81307   2.784   6.664  12.583  0.6961 -0.4318  0.6736
87772SOL    HW181308   2.734   6.733  12.540  1.0342 -0.6883 -0.1442
87772SOL    HW281309   2.771   6.587  12.529 -1.1094 -1.5141  2.5224
87773SOL     OW81310   3.976   5.958   2.350 -0.2806 -0.1080 -0.0418
87773SOL    HW181311   4.034   5.956   2.426  0.6575  0.0435 -0.7321
87773SOL    HW281312   3.993   6.044   2.310 -0.9494 -0.0835 -0.2843
87774SOL     OW81313  11.541   3.491   6.905  0.0396  0.2922  0.0435
87774SOL    HW181314  11.547   3.395   6.904  1.7960  0.3725  0.1735
87774SOL    HW281315  11.463   3.509   6.957  1.3439 -1.0452  2.6380
87775SOL     OW81316   6.668   0.310   9.265  0.1222 -0.3207 -0.4865
87775SOL    HW181317   6.671   0.405   9.250  0.7726 -0.3960 -0.8451
87775SOL    HW281318   6.746   0.292   9.317 -0.3825 -0.5564  0.2014
87776SOL     OW81319  12.294   0.849   5.488  0.2301  0.1050  0.3324
87776SOL    HW181320  12.224   0.836   5.424  0.3741  0.9726 -0.0098
87776SOL    HW281321  12.267   0.926   5.538 -0.0577 -0.7665  1.5751
87777SOL     OW81322  11.399   1.796  13.454  0.2717 -0.1950  0.2320
87777SOL    HW181323  11.347   1.869  13.421  0.5202  0.2752  0.8605
87777SOL    HW281324  11.361   1.718  13.413 -0.2814  0.2445 -0.0936
87778SOL     OW81325  13.826   9.879   3.239 -0.0829  0.3863  0.6491
87778SOL    HW181326  13.891   9.949   3.232 -1.5065  1.6010 -1.9967
87778SOL    HW281327  13.768   9.907   3.310 -0.0772  1.4324  0.2601
87779SOL     OW81328   1.370  10.209   8.044  0.3669  0.7631 -0.0029
87779SOL    HW181329   1.393  10.129   8.091 -0.7778 -0.1737 -0.9789
87779SOL    HW281330   1.443  10.269   8.062  1.1344 -0.4027  0.9365
87780SOL     OW81331   4.604   8.508   1.779 -0.0842  0.4465  0.1873
87780SOL    HW181332   4.683   8.508   1.832 -0.7473  1.5796  1.2347
87780SOL    HW281333   4.549   8.439   1.818 -0.0783  0.4563  0.2128
87781SOL     OW81334  13.653   8.546   5.925  0.3939  0.0916  0.1470
87781SOL    HW181335  13.606   8.620   5.887 -3.4499 -1.4164  1.4807
87781SOL    HW281336  13.711   8.585   5.990 -0.8809  2.0315  0.2203
87782SOL     OW81337   9.300   2.013  10.900  0.6252 -0.8384 -0.2469
87782SOL    HW181338   9.378   1.995  10.847  1.3687  0.1422  0.4844
87782SOL    HW281339   9.331   2.011  10.991  0.8233  3.5810  0.0216
87783SOL     OW81340   6.461   5.085   3.039 -0.4950 -0.0383  0.3563
87783SOL    HW181341   6.414   5.002   3.051  1.8533 -1.7527 -1.3422
87783SOL    HW281342   6.548   5.067   3.073  0.5144  1.2059 -1.4373
87784SOL     OW81343  12.400  10.826   7.611 -0.1911  0.2507  0.1461
87784SOL    HW181344  12.358  10.741   7.599 -1.3695  1.0198 -1.5477
87784SOL    HW281345  12.479  10.807   7.662 -1.8536 -1.4288  2.2792
87785SOL     OW81346   3.541   7.618   6.648 -0.0176 -0.3508  0.4390
87785SOL    HW181347   3.495   7.679   6.590  0.7495 -0.4435 -0.2780
87785SOL    HW281348   3.610   7.580   6.594 -0.6021 -2.0270  0.8034
87786SOL     OW81349   7.379   3.115   6.647 -0.0064  0.2676  0.6496
87786SOL    HW181350   7.394   3.080   6.559  1.3757  1.4538  0.3767
87786SOL    HW281351   7.467   3.126   6.684 -0.3429  3.0127  0.8632
87787SOL     OW81352   4.151   8.714  13.497  0.0643  0.0451 -0.0473
87787SOL    HW181353   4.115   8.632  13.531 -0.2808  0.0797 -0.3174
87787SOL    HW281354   4.076   8.758  13.456  0.2973  0.3830 -0.1169
87788SOL     OW81355   2.903  13.958   0.526 -0.3646 -0.4870  0.2212
87788SOL    HW181356   2.985  14.008   0.532 -1.4385  1.2177  1.5875
87788SOL    HW281357   2.923  13.874   0.567  1.2999 -0.9945 -1.5094
87789SOL     OW81358   9.769   6.950   3.617  0.0001 -0.0852  0.1733
87789SOL    HW181359   9.767   6.863   3.656 -0.9332  0.4688  1.4155
87789SOL    HW281360   9.753   6.934   3.524 -0.5196 -1.2132  0.4374
87790SOL     OW81361   4.209  10.450   9.417  0.2180 -0.3806 -0.4570
87790SOL    HW181362   4.263  10.431   9.494  1.8442  1.1042 -1.1772
87790SOL    HW281363   4.270  10.485   9.352 -1.3903  0.0244 -1.8328
87791SOL     OW81364   1.912   9.054   1.691  0.6916 -0.9634 -0.1192
87791SOL    HW181365   1.932   9.115   1.620  2.4932 -1.0688  0.2610
87791SOL    HW281366   1.816   9.051   1.693  0.5677 -1.4148 -2.9182
87792SOL     OW81367   5.780  12.409   2.569 -0.6668 -0.7721 -0.0926
87792SOL    HW181368   5.792  12.480   2.631  0.7284 -0.3372 -0.8300
87792SOL    HW281369   5.857  12.353   2.581 -0.5099 -0.8168 -1.2267
87793SOL     OW81370   1.147   3.311  12.448  0.3333 -0.4717 -0.3582
87793SOL    HW181371   1.079   3.267  12.396  0.7712 -1.3975 -0.1678
87793SOL    HW281372   1.196   3.363  12.384 -0.2477 -0.1838 -0.5749
87794SOL     OW81373   6.964  13.771   5.430 -0.1613 -0.2045 -0.3811
87794SOL    HW181374   6.872  13.752   5.412  0.2046 -2.1545 -0.4327
87794SOL    HW281375   7.006  13.685   5.436  2.3700  0.4904 -3.9820
87795SOL     OW81376  10.243   0.290   0.105 -0.3233 -0.2382 -0.3623
87795SOL    HW181377  10.263   0.276   0.012 -0.8321 -0.4940 -0.4328
87795SOL    HW281378  10.212   0.205   0.136  1.1707 -0.5524  0.3981
87796SOL     OW81379   7.723   9.654  13.294 -0.4113  0.4227  0.0397
87796SOL    HW181380   7.686   9.641  13.382 -0.7080  1.1354  0.0235
87796SOL    HW281381   7.810   9.691  13.310  0.3941 -1.3659  0.0820
87797SOL     OW81382   4.523   8.668  12.622 -0.2189 -0.2802 -0.3720
87797SOL    HW181383   4.528   8.761  12.604 -1.9827 -0.2950 -1.0983
87797SOL    HW281384   4.430   8.651  12.640  0.4297 -1.4146  2.5361
87798SOL     OW81385  10.570   2.450  10.055 -0.3378  0.0119 -0.0757
87798SOL    HW181386  10.648   2.397  10.073 -2.0050 -2.2622  1.0052
87798SOL    HW281387  10.499   2.403  10.099 -1.9908  3.2259  1.0043
87799SOL     OW81388  13.141   0.325  11.405 -0.2022  0.8178 -0.1380
87799SOL    HW181389  13.095   0.322  11.321  0.7531  0.9877 -0.6779
87799SOL    HW281390  13.207   0.394  11.394  1.8005 -1.0041 -0.2464
87800SOL     OW81391  12.600  12.582   4.972 -0.0856  0.4604 -0.1178
87800SOL    HW181392  12.680  12.542   5.007  1.0807  1.9025 -1.0113
87800SOL    HW281393  12.601  12.559   4.879 -1.1166 -0.0961 -0.0101
87801SOL     OW81394   9.880   8.098   3.894 -0.3146  0.1222 -0.2147
87801SOL    HW181395   9.949   8.165   3.889  2.0284 -2.1272 -0.3876
87801SOL    HW281396   9.855   8.082   3.803 -0.0586  0.0123 -0.2685
87802SOL     OW81397  12.606  13.990  12.412 -0.0742 -0.3902  0.0052
87802SOL    HW181398  12.585  13.987  12.318 -1.9237 -0.5750  0.3881
87802SOL    HW281399  12.694  14.028  12.415  0.2882 -0.9340 -1.8284
87803SOL     OW81400   6.771   1.683   5.611 -0.3608  0.4216  0.0013
87803SOL    HW181401   6.730   1.663   5.695 -0.8240 -0.9699 -0.5368
87803SOL    HW281402   6.713   1.643   5.546  2.4412 -2.8614 -0.7588
87804SOL     OW81403   8.773   5.869   8.574 -0.1748 -1.0284  0.6638
87804SOL    HW181404   8.825   5.875   8.495 -0.7305  1.7256  0.4235
87804SOL    HW281405   8.834   5.837   8.641  1.1771 -0.2160 -0.1425
87805SOL     OW81406   2.643   6.802  11.102 -0.0861  0.5991 -0.0361
87805SOL    HW181407   2.703   6.873  11.124 -0.7679  1.5335 -1.0359
87805SOL    HW281408   2.556   6.840  11.114 -0.4709  0.4591 -2.0314
87806SOL     OW81409   1.162   6.606   2.852 -0.3858  0.5726  0.2802
87806SOL    HW181410   1.242   6.571   2.893 -0.2385 -1.2043 -1.3398
87806SOL    HW281411   1.186   6.618   2.760 -2.1963 -0.9212 -0.4580
87807SOL     OW81412   6.996  12.314  10.283  0.0109 -0.7397 -0.2067
87807SOL    HW181413   6.986  12.219  10.284 -0.6049 -0.6846  1.3614
87807SOL    HW281414   7.043  12.332  10.201 -0.6644 -2.2943 -0.9870
87808SOL     OW81415   4.977  11.148   2.224  0.1386 -0.6611 -0.2496
87808SOL    HW181416   4.955  11.073   2.169  1.0855 -0.5347 -0.8084
87808SOL    HW281417   5.066  11.131   2.254 -0.1212 -0.3990  0.7094
87809SOL     OW81418  12.248   8.932   2.928 -0.1809 -0.0801 -0.1266
87809SOL    HW181419  12.277   8.965   3.013  0.3707 -0.0027 -0.3394
87809SOL    HW281420  12.285   8.994   2.865 -1.7817  0.6843 -0.3466
87810SOL     OW81421   8.449  14.073   5.241 -0.5196 -0.1289 -0.2029
87810SOL    HW181422   8.397  14.066   5.161 -0.8689  0.1086  0.0022
87810SOL    HW281423   8.385  14.067   5.312 -0.2652  0.1483  0.0525
87811SOL     OW81424   5.332   3.551  11.186  0.3488 -0.2987  0.0561
87811SOL    HW181425   5.261   3.486  11.184 -0.8561  0.9922 -1.3288
87811SOL    HW281426   5.287   3.635  11.188  1.8677  0.5461 -0.4312
87812SOL     OW81427   3.832  11.114   5.052  0.1390  0.1729 -0.1265
87812SOL    HW181428   3.834  11.043   4.988 -0.8735 -0.0596  0.0859
87812SOL    HW281429   3.751  11.161   5.033  0.2816  0.6400  0.4106
87813SOL     OW81430   0.863  13.993  12.782 -0.2109 -0.2048 -0.0136
87813SOL    HW181431   0.953  13.965  12.765 -0.3982 -0.4284 -0.6546
87813SOL    HW281432   0.809  13.920  12.752 -0.5721 -0.4927  1.3073
87814SOL     OW81433  11.073   7.743   1.560 -0.3228 -0.1740  0.3278
87814SOL    HW181434  11.119   7.825   1.541  1.2138 -0.8237  1.0160
87814SOL    HW281435  11.127   7.675   1.517 -0.2551 -1.0256  1.6845
87815SOL     OW81436   5.361   1.664   1.285 -0.3766  0.5519 -0.1347
87815SOL    HW181437   5.268   1.684   1.271 -0.3226  0.3115 -0.9054
87815SOL    HW281438   5.382   1.702   1.370 -0.9619  1.3628 -0.3412
87816SOL     OW81439   2.929   0.268   6.781  0.2127  0.1088  0.5019
87816SOL    HW181440   2.999   0.285   6.844  1.3475  1.4555 -0.9925
87816SOL    HW281441   2.874   0.346   6.785  1.4710  1.1995 -1.5201
87817SOL     OW81442   7.629  13.117   1.960 -0.1579  0.1474  0.4321
87817SOL    HW181443   7.721  13.132   1.979 -0.1529 -0.8988  1.3383
87817SOL    HW281444   7.618  13.146   1.869  0.7337  1.5593  0.7518
87818SOL     OW81445  11.800   7.778   0.764 -0.0484  0.0921 -0.5451
87818SOL    HW181446  11.865   7.715   0.732 -0.7907 -0.6397 -0.6727
87818SOL    HW281447  11.775   7.744   0.850 -1.0786 -0.3010 -0.9707
87819SOL     OW81448   8.763   7.414  13.892  0.1177  0.0233 -0.1026
87819SOL    HW181449   8.676   7.430  13.928  0.2306 -1.4959  0.9098
87819SOL    HW281450   8.749   7.411  13.797 -1.0920 -0.9970  0.0731
87820SOL     OW81451   2.051  10.309  13.092 -0.7277 -0.1823  0.0014
87820SOL    HW181452   2.082  10.347  13.010 -0.2165 -0.3061  0.1336
87820SOL    HW281453   2.062  10.378  13.157 -0.5890 -0.2775  0.0798
87821SOL     OW81454   9.665   7.312   2.422  0.1110  0.5132 -0.4615
87821SOL    HW181455   9.615   7.290   2.501  0.9417  0.9281  0.1969
87821SOL    HW281456   9.638   7.248   2.357  1.3634 -1.5492  0.9505
87822SOL     OW81457   2.031  13.240  12.005  0.1615 -1.0654  0.4404
87822SOL    HW181458   1.942  13.241  11.970  0.1294 -1.8424  0.4847
87822SOL    HW281459   2.054  13.333  12.013  0.1622 -0.8469 -1.6029
87823SOL     OW81460   9.240   2.214   1.522 -0.0842  0.2252 -0.2079
87823SOL    HW181461   9.335   2.201   1.512 -0.1535 -1.2616  0.6535
87823SOL    HW281462   9.206   2.209   1.433  0.5720  0.0161 -0.4573
87824SOL     OW81463  11.710   1.855   0.805 -0.0392 -0.4167 -0.8109
87824SOL    HW181464  11.696   1.902   0.723 -0.6225 -0.4298 -0.7220
87824SOL    HW281465  11.650   1.897   0.867 -0.7801 -1.4713 -0.8028
87825SOL     OW81466   8.781   3.546  12.977 -0.7150 -0.2714  0.1987
87825SOL    HW181467   8.785   3.625  12.923 -1.2696  0.3865  1.1092
87825SOL    HW281468   8.691   3.516  12.969 -0.4916 -0.8603 -0.1899
87826SOL     OW81469   7.646  11.174   0.525 -0.5292  0.0930  0.0995
87826SOL    HW181470   7.557  11.145   0.541 -0.2503 -0.4986  0.6255
87826SOL    HW281471   7.691  11.160   0.608  1.1442 -3.7408 -1.2246
87827SOL     OW81472   0.796   4.204  11.671 -0.4312 -0.4051 -0.5358
87827SOL    HW181473   0.762   4.158  11.593 -1.8857 -0.6516  0.1945
87827SOL    HW281474   0.801   4.136  11.738 -0.9505  0.1496  0.0818
87828SOL     OW81475   2.050   3.960  12.343 -0.2775  0.3303 -0.2442
87828SOL    HW181476   2.070   3.877  12.299 -1.8009  0.7916 -1.9147
87828SOL    HW281477   2.028   3.935  12.432  1.1745 -0.8396 -0.1680
87829SOL     OW81478  12.202   9.092  13.119  0.0987  0.2224 -0.5335
87829SOL    HW181479  12.239   9.111  13.205  1.5315  0.0119 -1.0832
87829SOL    HW281480  12.116   9.134  13.120 -0.0715 -0.1101  1.1299
87830SOL     OW81481  11.338  12.791  12.225  0.1836  0.1400  0.1971
87830SOL    HW181482  11.326  12.883  12.248  0.5467  0.1955  0.1688
87830SOL    HW281483  11.433  12.780  12.219  0.2182 -0.5310  1.4587
87831SOL     OW81484  13.899   4.669   8.970  0.6636 -0.1121 -0.5236
87831SOL    HW181485  13.873   4.624   9.051  0.9213  0.8806  0.1305
87831SOL    HW281486  13.992   4.689   8.983  0.7630 -0.1297 -1.1657
87832SOL     OW81487   8.565  12.581   2.943 -0.1811  0.2041 -0.3653
87832SOL    HW181488   8.518  12.653   2.983 -2.3772 -2.3382  2.0066
87832SOL    HW281489   8.622  12.547   3.012  2.1315  0.6357 -1.9463
87833SOL     OW81490   9.762   2.003   1.719 -0.1924 -0.2967 -0.2597
87833SOL    HW181491   9.756   1.978   1.812 -0.2412  2.0429  0.4399
87833SOL    HW281492   9.675   1.983   1.684 -1.0998  1.2331  0.9371
87834SOL     OW81493  12.532   2.393   2.294  0.1244 -0.1086 -0.0692
87834SOL    HW181494  12.586   2.472   2.289  1.8506 -1.2931 -1.2334
87834SOL    HW281495  12.485   2.390   2.211  1.2274 -1.0539 -0.6876
87835SOL     OW81496   0.385   0.080   3.781  0.1550  0.1700 -0.6070
87835SOL    HW181497   0.389   0.004   3.840 -0.0255 -0.3027 -1.1994
87835SOL    HW281498   0.473   0.118   3.785  0.2051  0.0224 -0.1971
87836SOL     OW81499  13.672   6.464   0.827  0.1447 -0.1461 -0.1840
87836SOL    HW181500  13.636   6.523   0.760 -0.1179  0.3821  0.4098
87836SOL    HW281501  13.651   6.376   0.795 -1.7714  0.1358  0.1662
87837SOL     OW81502   7.279   2.338   4.557  0.1456 -0.1323  0.3425
87837SOL    HW181503   7.189   2.324   4.587 -0.3877 -0.2379 -1.2135
87837SOL    HW281504   7.293   2.432   4.563  0.4419 -0.2322  1.8609
87838SOL     OW81505   2.786   0.940   9.658 -0.7788  0.3962 -0.5192
87838SOL    HW181506   2.861   0.881   9.661 -0.0681  1.1383  4.0768
87838SOL    HW281507   2.824   1.027   9.644 -1.2358  0.4015 -1.8497
87839SOL     OW81508  10.999   0.559   1.499 -0.2217  0.0823  0.2611
87839SOL    HW181509  11.056   0.600   1.434  0.3189  2.2084  1.9544
87839SOL    HW281510  11.059   0.524   1.565 -0.7843 -1.0939  0.1660
87840SOL     OW81511   0.114   3.316   1.494  0.0661 -0.3585 -0.3416
87840SOL    HW181512   0.047   3.314   1.426 -0.5021 -0.1618  0.2037
87840SOL    HW281513   0.088   3.247   1.555 -0.9566  1.2093  1.0855
87841SOL     OW81514   8.687   1.992   8.587  0.0745  0.6026 -0.0354
87841SOL    HW181515   8.688   1.911   8.639 -0.5729  0.7510  0.2128
87841SOL    HW281516   8.771   2.034   8.607 -0.2739  0.7914  1.1221
87842SOL     OW81517   0.349   2.602  11.207  0.0358  0.2129 -0.1130
87842SOL    HW181518   0.371   2.509  11.203 -0.8938 -0.0788  1.1069
87842SOL    HW281519   0.433   2.646  11.222  0.3993 -0.4746 -0.0959
87843SOL     OW81520  10.571   4.249  13.171  0.4019 -0.2326  0.2806
87843SOL    HW181521  10.578   4.342  13.195  0.8574  0.1641 -1.2333
87843SOL    HW281522  10.481   4.240  13.139 -0.0283 -0.6240  1.5546
87844SOL     OW81523  12.943   7.711   7.917 -0.4201 -0.0122  0.4413
87844SOL    HW181524  12.982   7.651   7.854 -1.2252 -0.4813  0.3764
87844SOL    HW281525  12.892   7.655   7.976 -0.8571  0.5577  0.6171
87845SOL     OW81526  14.152   1.356   6.866  0.4299  0.1501 -0.2354
87845SOL    HW181527  14.179   1.320   6.782  2.1813  0.8514 -0.0176
87845SOL    HW281528  14.099   1.286   6.906 -2.7179  0.7534 -2.9168
87846SOL     OW81529  10.522   1.027  11.133 -0.4376 -0.0980 -0.9621
87846SOL    HW181530  10.583   1.036  11.206 -0.5642  2.2831 -1.0561
87846SOL    HW281531  10.443   0.990  11.173 -0.1402  0.1556 -0.1096
87847SOL     OW81532   5.533   9.705  12.253  0.1194  0.1647  0.3548
87847SOL    HW181533   5.595   9.742  12.190  0.1383  0.3007  0.4528
87847SOL    HW281534   5.577   9.626  12.287  0.8062  0.9605  1.3895
87848SOL     OW81535   6.252  12.776   9.365 -0.0967 -0.1915 -0.2186
87848SOL    HW181536   6.162  12.798   9.342 -0.1145  1.0890  0.9651
87848SOL    HW281537   6.255  12.680   9.362 -1.1728 -0.2148 -1.3893
87849SOL     OW81538  12.727   9.435  11.577 -0.1721  0.0141  0.4029
87849SOL    HW181539  12.758   9.519  11.542  0.0405 -0.3045 -0.1829
87849SOL    HW281540  12.788   9.371  11.542 -0.8068 -0.4828  0.2090
87850SOL     OW81541   5.305  12.820  12.098 -0.3727 -0.2464  0.4929
87850SOL    HW181542   5.339  12.798  12.011  0.5822 -1.5739  1.1573
87850SOL    HW281543   5.210  12.817  12.088 -0.4412  3.2047 -1.3409
87851SOL     OW81544   3.558   6.914   8.548 -0.2471  0.4214  0.3527
87851SOL    HW181545   3.601   6.996   8.572 -0.0320  0.5489 -0.4524
87851SOL    HW281546   3.470   6.922   8.586 -0.2252  1.0186  0.2923
87852SOL     OW81547  10.007  11.292   2.871 -0.9265 -0.2467  0.2263
87852SOL    HW181548  10.077  11.343   2.911 -0.0625 -0.6672 -0.7172
87852SOL    HW281549   9.960  11.253   2.945 -1.6396  1.9047  0.9798
87853SOL     OW81550   1.334  12.398   7.026  0.2327  0.2380 -0.0228
87853SOL    HW181551   1.392  12.339   7.075 -0.1123 -0.6820 -0.6825
87853SOL    HW281552   1.247  12.380   7.061  0.1247  0.3552 -0.2311
87854SOL     OW81553   6.525  13.593  10.994 -0.2618  0.2281 -0.3575
87854SOL    HW181554   6.617  13.575  10.973 -1.2167 -2.5859 -2.8415
87854SOL    HW281555   6.514  13.686  10.977  1.8682  0.4147 -1.0652
87855SOL     OW81556   9.101  14.059   6.115 -0.0139  0.5637 -0.4321
87855SOL    HW181557   9.043  14.135   6.118  2.3520  2.4375  1.2909
87855SOL    HW281558   9.044  13.984   6.133 -2.0302  2.1630  0.1722
87856SOL     OW81559   1.333   0.528  12.822  0.2173  0.2634 -0.6130
87856SOL    HW181560   1.367   0.485  12.900 -1.0844 -0.0546 -0.1901
87856SOL    HW281561   1.371   0.616  12.824 -1.6182  1.1296  1.7316
87857SOL     OW81562  12.698   2.264   3.969 -0.1686  0.4144  0.4247
87857SOL    HW181563  12.650   2.338   4.005  0.0316  0.1661  1.2180
87857SOL    HW281564  12.631   2.205   3.934 -0.3644  0.6312  0.4359
87858SOL     OW81565   2.811   1.564  11.949 -0.1993 -0.1485 -0.3900
87858SOL    HW181566   2.835   1.535  11.862  1.2914  1.9491 -0.7589
87858SOL    HW281567   2.721   1.596  11.940 -0.8004 -1.8203 -0.6253
87859SOL     OW81568   2.553   8.363   7.731  0.4457  0.6278  0.5172
87859SOL    HW181569   2.537   8.399   7.819  1.2350  1.1001  0.4804
87859SOL    HW281570   2.563   8.440   7.675 -1.2816  0.3364 -0.2413
87860SOL     OW81571  14.149  11.401   0.115  0.0346 -0.4159  0.3188
87860SOL    HW181572  14.054  11.408   0.122  0.0096 -0.9023  0.5391
87860SOL    HW281573  14.174  11.346   0.189  0.6182  0.6931  0.9790
87861SOL     OW81574   4.671   4.346  12.044 -0.3020  0.2879 -0.2164
87861SOL    HW181575   4.714   4.326  12.127 -0.6341 -2.0123 -0.5379
87861SOL    HW281576   4.580   4.319  12.056 -0.1197 -1.1055 -1.6129
87862SOL     OW81577  13.299   4.955   7.342 -0.3944  0.7046 -0.0843
87862SOL    HW181578  13.211   4.990   7.325 -0.4638  0.5557 -0.0352
87862SOL    HW281579  13.285   4.886   7.406 -0.4795 -0.5994 -1.4560
87863SOL     OW81580  11.948  10.540   6.997  0.2604 -0.1567  0.3693
87863SOL    HW181581  11.997  10.619   6.975 -0.8344  0.7155  0.9347
87863SOL    HW281582  11.881  10.533   6.930 -1.3355  0.9512  1.7620
87864SOL     OW81583   8.967   8.517   1.757  0.2137  0.2902  0.3606
87864SOL    HW181584   8.910   8.443   1.733 -3.2090  2.7090  0.2758
87864SOL    HW281585   8.942   8.538   1.847  0.6716  1.6868  0.1761
87865SOL     OW81586   4.653   6.426   0.570  0.0839 -0.3874 -0.4433
87865SOL    HW181587   4.615   6.510   0.597  2.3628  1.3778 -2.2583
87865SOL    HW281588   4.578   6.371   0.550 -1.5049  1.3540  0.4049
87866SOL     OW81589   5.967   3.402   4.941  0.2279 -0.6477  0.7075
87866SOL    HW181590   6.017   3.441   4.870  0.4411 -1.1733  0.5633
87866SOL    HW281591   6.023   3.413   5.018 -0.2476  0.4346  0.9223
87867SOL     OW81592   7.835   3.820  13.375  0.4792 -0.3662  0.5302
87867SOL    HW181593   7.924   3.833  13.343  0.7195 -1.7890  0.5602
87867SOL    HW281594   7.779   3.860  13.308  1.1134 -0.0273  0.1948
87868SOL     OW81595   4.804  11.880  10.242  0.0341 -0.2824 -0.1509
87868SOL    HW181596   4.819  11.786  10.254  0.0807  0.0158  2.7568
87868SOL    HW281597   4.774  11.911  10.328 -0.1209  2.3496 -1.0655
87869SOL     OW81598  12.748   0.398   3.411  0.3799 -0.8239 -0.4547
87869SOL    HW181599  12.763   0.439   3.496  2.3390  1.5578 -1.8540
87869SOL    HW281600  12.665   0.436   3.381  0.5652 -0.3593 -0.3771
87870SOL     OW81601   2.953  12.954   1.700 -0.0531  0.0459  0.5857
87870SOL    HW181602   3.006  12.901   1.640  3.2638  3.0599  0.4913
87870SOL    HW281603   2.950  12.902   1.781  1.1562 -1.2561 -0.1531
87871SOL     OW81604   0.197  12.570   2.378  0.1439 -0.3161  0.0169
87871SOL    HW181605   0.248  12.544   2.301  0.6902 -0.1476  0.3154
87871SOL    HW281606   0.255  12.553   2.452  0.2537  1.0388  0.2761
87872SOL     OW81607   1.858   8.077   6.105  0.2073  0.5688 -0.0377
87872SOL    HW181608   1.774   8.053   6.066  0.4772  0.2776 -0.4511
87872SOL    HW281609   1.920   8.012   6.071  0.5868  0.7378  0.3170
87873SOL     OW81610  11.238   6.892  13.175 -0.1593  0.1690  0.0584
87873SOL    HW181611  11.246   6.855  13.263 -1.5426 -1.3822 -0.4107
87873SOL    HW281612  11.183   6.970  13.187 -0.4699 -0.1159  0.5606
87874SOL     OW81613   7.899   9.585   7.873 -0.0516 -0.3608 -0.6573
87874SOL    HW181614   7.929   9.511   7.926  2.6491  0.7260 -0.4753
87874SOL    HW281615   7.893   9.550   7.784  0.6937 -0.9606 -0.4875
87875SOL     OW81616   8.902  13.409   4.412  0.1967  0.0622 -0.0952
87875SOL    HW181617   8.877  13.365   4.331  0.0175 -0.6806  0.3501
87875SOL    HW281618   8.998  13.411   4.409  0.1586  1.6739 -1.1589
87876SOL     OW81619  13.160  11.187   2.264 -0.3481  0.0212  0.1799
87876SOL    HW181620  13.163  11.101   2.223 -0.3771 -0.2957  0.8218
87876SOL    HW281621  13.229  11.185   2.330  0.9776  1.1998 -1.1128
87877SOL     OW81622   5.637   5.089   7.097 -0.0490 -0.3185  0.3841
87877SOL    HW181623   5.671   4.999   7.101  1.2727  0.0693 -1.0121
87877SOL    HW281624   5.707   5.142   7.135 -0.3684  0.2121  0.2348
87878SOL     OW81625   5.536  12.154  10.825 -0.1690 -0.4203 -0.3552
87878SOL    HW181626   5.473  12.202  10.772  0.8311  0.3599 -0.8711
87878SOL    HW281627   5.520  12.183  10.915 -1.0332 -0.8062 -0.3719
87879SOL     OW81628   1.074   7.564   5.058 -0.4522  0.3090 -0.3684
87879SOL    HW181629   1.006   7.523   5.112  0.9580  0.8218  1.9530
87879SOL    HW281630   1.131   7.492   5.032 -0.0981  0.2796  0.4589
87880SOL     OW81631  10.965  10.045   2.783  0.0497  0.2149  0.7051
87880SOL    HW181632  10.985  10.097   2.860 -1.1197  0.4687  0.8660
87880SOL    HW281633  10.909  10.102   2.729  1.4783  0.3404 -0.7210
87881SOL     OW81634   5.810   7.889  10.098 -0.1407 -0.3024  0.5852
87881SOL    HW181635   5.834   7.801  10.129 -0.8643 -0.6985  0.0657
87881SOL    HW281636   5.842   7.948  10.166  1.2269 -0.8853  0.4753
87882SOL     OW81637   3.612  11.247  12.823 -0.3421 -0.6236 -0.1761
87882SOL    HW181638   3.559  11.201  12.757 -0.1613 -1.8949  0.5347
87882SOL    HW281639   3.550  11.267  12.893 -0.1213 -1.1513  0.1793
87883SOL     OW81640   3.328  13.753   3.127  0.0347 -0.1779 -0.1957
87883SOL    HW181641   3.279  13.693   3.182 -0.3355 -0.3674 -0.7322
87883SOL    HW281642   3.338  13.708   3.043  0.5955  0.1077 -0.2927
87884SOL     OW81643   2.312   0.188   1.550 -0.1398 -0.1419 -0.0801
87884SOL    HW181644   2.352   0.139   1.622 -0.5697 -0.8404 -0.3095
87884SOL    HW281645   2.267   0.122   1.498  1.2465  0.1475 -1.7403
87885SOL     OW81646   6.370   4.460   9.123 -0.0137 -0.3142 -0.3915
87885SOL    HW181647   6.401   4.372   9.101 -0.9944 -0.5590 -0.8719
87885SOL    HW281648   6.391   4.471   9.215 -0.5503 -1.3506 -0.1335
87886SOL     OW81649   5.768  10.230   5.064 -0.6545 -0.2853  0.0722
87886SOL    HW181650   5.694  10.173   5.046 -0.2190 -0.9245  0.2903
87886SOL    HW281651   5.728  10.309   5.103 -1.0944 -1.4006  2.0272
87887SOL     OW81652   3.212   2.288   0.287  0.0650 -0.1075  0.3792
87887SOL    HW181653   3.124   2.252   0.283  0.3547 -0.7536 -0.8866
87887SOL    HW281654   3.269   2.211   0.284  0.6857  0.3804 -1.2706
87888SOL     OW81655   8.934  11.236   3.479 -0.3157 -1.0722 -0.5132
87888SOL    HW181656   8.938  11.170   3.410  1.7271 -0.1250 -1.3770
87888SOL    HW281657   9.019  11.230   3.524 -0.7147 -0.1196  0.4324
87889SOL     OW81658   2.684   3.076   9.388 -0.5798  0.2342  0.4559
87889SOL    HW181659   2.748   3.004   9.388 -0.8486 -0.1159 -2.3548
87889SOL    HW281660   2.738   3.155   9.393 -0.1302 -0.0975  1.0550
87890SOL     OW81661  11.832  12.315  11.515 -0.5446 -0.3725  0.2736
87890SOL    HW181662  11.800  12.234  11.555 -0.2486 -0.2321  0.7997
87890SOL    HW281663  11.775  12.328  11.440 -0.1004 -1.4974 -0.2842
87891SOL     OW81664  10.063   2.674   4.028  0.0482 -0.2390  0.6706
87891SOL    HW181665  10.099   2.590   4.054  2.5834 -0.3518 -2.5479
87891SOL    HW281666  10.122   2.739   4.067  1.3447 -0.2652 -1.1079
87892SOL     OW81667   7.468   9.235  13.842  0.3124 -0.4755 -0.1213
87892SOL    HW181668   7.470   9.284  13.925  2.8867 -0.7066  0.0324
87892SOL    HW281669   7.393   9.178  13.851  1.1954 -1.3971  2.6611
87893SOL     OW81670   1.787  12.594   2.356  0.0958 -0.3615  0.2599
87893SOL    HW181671   1.802  12.559   2.268  1.5811  1.6601 -0.3733
87893SOL    HW281672   1.709  12.649   2.346 -0.4155 -1.0293  0.5076
87894SOL     OW81673   0.610   3.410   1.093 -0.4624  0.4062  0.1336
87894SOL    HW181674   0.556   3.406   1.172  1.5924  0.7792  1.6535
87894SOL    HW281675   0.692   3.369   1.118  0.4703  1.0621 -1.6449
87895SOL     OW81676   4.945   5.720  11.997 -0.0205 -0.4070  0.5668
87895SOL    HW181677   4.877   5.729  11.930  1.2714  0.8132 -0.6595
87895SOL    HW281678   4.959   5.809  12.029 -0.4135 -0.9317  2.2927
87896SOL     OW81679   3.675  13.294   3.471 -0.0067 -0.1023  0.1591
87896SOL    HW181680   3.717  13.216   3.507  1.3433  0.1761 -0.7749
87896SOL    HW281681   3.619  13.325   3.542  1.4791 -0.4018  1.5115
87897SOL     OW81682   2.959  12.947   7.065  0.1065  0.3621  0.2253
87897SOL    HW181683   2.980  13.026   7.116 -0.9856  0.0916  1.1637
87897SOL    HW281684   2.932  12.883   7.131 -2.1691  0.2481 -0.6999
87898SOL     OW81685   8.180  10.142   8.413  0.0538  0.0759  0.0522
87898SOL    HW181686   8.150  10.148   8.504 -1.0289 -0.1473 -0.2873
87898SOL    HW281687   8.196  10.049   8.398  0.4693  0.1385  0.0763
87899SOL     OW81688  13.219   2.659   8.933 -0.0088 -0.5996  0.5237
87899SOL    HW181689  13.141   2.656   8.878 -0.0338 -1.5590  0.5956
87899SOL    HW281690  13.280   2.715   8.885  0.4438 -2.3924 -1.1408
87900SOL     OW81691   5.574   4.122   8.094 -0.0664 -0.1633 -0.2057
87900SOL    HW181692   5.669   4.126   8.100  0.1363 -0.3077 -2.4433
87900SOL    HW281693   5.544   4.207   8.124  0.5984 -0.7210  2.2408
87901SOL     OW81694  10.118   5.743  10.541  0.2871 -0.3798 -0.8075
87901SOL    HW181695  10.091   5.833  10.523  2.2700  0.3072 -0.6132
87901SOL    HW281696  10.149   5.710  10.457 -1.4548 -1.3156 -1.1305
87902SOL     OW81697   3.488   5.307   1.605  0.3486 -0.6768 -0.3272
87902SOL    HW181698   3.554   5.238   1.598  1.2793  0.0229  1.1273
87902SOL    HW281699   3.538   5.387   1.622 -0.8053  0.0814 -0.3789
87903SOL     OW81700   5.189  13.441   4.468  0.1700  0.5914 -0.4479
87903SOL    HW181701   5.136  13.386   4.412  0.1214 -2.1605  2.0480
87903SOL    HW281702   5.276  13.440   4.428 -0.2047 -0.0063 -1.2716
87904SOL     OW81703   3.150   6.338   8.881 -0.2987 -0.9525 -0.7726
87904SOL    HW181704   3.165   6.433   8.887  0.0436 -0.9254 -1.8504
87904SOL    HW281705   3.230   6.300   8.918 -0.7952 -0.8337  0.4525
87905SOL     OW81706   9.167   9.424   7.572 -0.7611 -0.5389  0.1217
87905SOL    HW181707   9.178   9.486   7.500 -1.0137 -0.6689 -0.0293
87905SOL    HW281708   9.109   9.357   7.537 -0.7594 -0.6832  0.3970
87906SOL     OW81709   2.257   5.766  11.660  0.2405  0.2920 -0.3373
87906SOL    HW181710   2.270   5.804  11.746  1.1092  0.5330 -0.5625
87906SOL    HW281711   2.287   5.834  11.599  0.2451 -0.1154 -0.7995
87907SOL     OW81712   0.147   8.321   0.309 -0.0747 -0.3233 -0.5189
87907SOL    HW181713   0.191   8.292   0.389  1.2985  0.8609 -0.7922
87907SOL    HW281714   0.094   8.396   0.336 -3.1944 -2.5460  0.0837
87908SOL     OW81715   1.863   7.240  11.873  0.2718 -0.0731  0.1500
87908SOL    HW181716   1.888   7.329  11.896 -1.9091  0.6375  0.0294
87908SOL    HW281717   1.803   7.250  11.799 -1.7463 -1.3974  1.4730
87909SOL     OW81718   1.993  13.534   4.358  0.2064  0.6056 -0.2820
87909SOL    HW181719   2.056  13.484   4.307 -1.3604 -1.1460 -0.6109
87909SOL    HW281720   2.017  13.519   4.449  0.5552  0.3811 -0.4093
87910SOL     OW81721  12.322   3.347   0.531  0.5892 -0.0991  0.4091
87910SOL    HW181722  12.386   3.282   0.502 -0.7873 -1.0396 -0.6335
87910SOL    HW281723  12.254   3.297   0.575 -0.6754  0.5404 -0.7095
87911SOL     OW81724   6.803   2.257   9.947  0.0978  0.1236  0.6953
87911SOL    HW181725   6.770   2.177   9.907 -0.8022  2.4773 -3.8917
87911SOL    HW281726   6.889   2.270   9.907  1.2731  0.4252  3.1132
87912SOL     OW81727   2.315  10.004   6.286 -0.2553  0.3566 -0.0255
87912SOL    HW181728   2.286   9.999   6.195 -2.1029  1.3900  0.4454
87912SOL    HW281729   2.367   9.925   6.299  0.0112  0.1594 -1.9507
87913SOL     OW81730   4.345   8.157  13.531  0.0329  0.2364  0.3024
87913SOL    HW181731   4.439   8.164  13.517  0.2706 -0.4156  1.4042
87913SOL    HW281732   4.307   8.224  13.476  1.0404 -0.3889 -1.2198
87914SOL     OW81733   7.632  11.847  11.871  0.0533 -0.4343 -0.0207
87914SOL    HW181734   7.584  11.852  11.953  0.5559  0.1129  0.2496
87914SOL    HW281735   7.582  11.786  11.817 -0.6645 -0.2484  0.4286
87915SOL     OW81736  13.136  10.343   0.741  0.0317 -0.0840 -0.1862
87915SOL    HW181737  13.107  10.434   0.728  0.2281  0.0107  0.0263
87915SOL    HW281738  13.232  10.349   0.742  0.0814 -0.4589 -1.3832
87916SOL     OW81739   7.375   7.440   8.907 -0.1587  0.3974  0.0892
87916SOL    HW181740   7.359   7.349   8.932 -0.5498  0.7786  1.2445
87916SOL    HW281741   7.305   7.460   8.845  0.6906 -0.4756 -1.2177
87917SOL     OW81742  12.623   0.945  11.810 -0.0023 -0.0831  0.3431
87917SOL    HW181743  12.554   0.886  11.839 -1.4046  1.2522 -0.1306
87917SOL    HW281744  12.592   0.978  11.726  1.9785 -0.6391 -0.6705
87918SOL     OW81745   4.915   5.262   8.665 -0.7430  0.4641  0.2131
87918SOL    HW181746   4.857   5.229   8.733 -0.1326 -1.0551  0.0380
87918SOL    HW281747   4.967   5.186   8.638  0.5569  1.5175 -0.4137
87919SOL     OW81748   1.111  10.500   7.716 -0.2496 -0.4774 -0.0412
87919SOL    HW181749   1.183  10.510   7.655  0.3384 -1.6604  0.4332
87919SOL    HW281750   1.128  10.417   7.760 -1.3803 -0.3011  0.7709
87920SOL     OW81751   4.922   8.391   5.717  0.0026  0.4931 -0.1616
87920SOL    HW181752   4.854   8.433   5.769 -0.5634 -1.0878  0.4393
87920SOL    HW281753   4.956   8.460   5.661 -1.8209  1.4188 -0.1960
87921SOL     OW81754  13.335   5.569   9.880  0.3736  0.2220  0.1825
87921SOL    HW181755  13.326   5.596   9.971  0.2241  0.3331  0.1333
87921SOL    HW281756  13.408   5.622   9.846  1.8116 -1.2519  0.8056
87922SOL     OW81757   1.296   0.802   6.186 -0.8937  0.5941 -0.5545
87922SOL    HW181758   1.342   0.735   6.236 -0.7641  0.5895 -0.6809
87922SOL    HW281759   1.233   0.838   6.248 -0.2150  1.1159 -0.1489
87923SOL     OW81760   8.098   0.414   1.045 -0.4291  0.0016 -0.1570
87923SOL    HW181761   8.098   0.326   1.084  1.0491  0.4826  0.9950
87923SOL    HW281762   8.098   0.473   1.120  3.5504  0.9578 -0.7080
87924SOL     OW81763   0.591  11.850   4.856 -0.0834  0.1797  0.4897
87924SOL    HW181764   0.551  11.764   4.845 -0.4298  0.4078 -0.1178
87924SOL    HW281765   0.647  11.862   4.779 -0.3902  0.6763  0.3333
87925SOL     OW81766   4.545   3.337   8.739  0.1489 -0.0420 -0.3595
87925SOL    HW181767   4.509   3.321   8.651 -1.4112 -0.0820  0.2488
87925SOL    HW281768   4.488   3.404   8.776  0.1839 -0.7302  0.9785
87926SOL     OW81769   8.668  13.568   2.699  0.2442 -0.3199 -0.1286
87926SOL    HW181770   8.642  13.592   2.788  0.0617  0.5149 -0.3953
87926SOL    HW281771   8.609  13.617   2.643 -0.0124 -1.2696 -0.7168
87927SOL     OW81772  12.149   6.108   2.982 -0.0432 -0.1038 -0.0107
87927SOL    HW181773  12.187   6.184   2.939  0.7089 -0.9128 -0.7987
87927SOL    HW281774  12.157   6.127   3.076  0.2361  0.7250 -0.1939
87928SOL     OW81775   3.327  11.028   2.881  0.3313 -0.4946 -0.1020
87928SOL    HW181776   3.272  11.052   2.807 -1.3662 -0.7383  1.0202
87928SOL    HW281777   3.364  10.943   2.858 -1.2312 -1.1862 -0.1464
87929SOL     OW81778   4.155  11.837  11.294 -0.5451  0.0146  0.1536
87929SOL    HW181779   4.140  11.748  11.261  0.2277 -0.4329  0.9619
87929SOL    HW281780   4.150  11.893  11.216  0.3682 -0.9109 -0.5916
87930SOL     OW81781  13.864  13.650   1.653 -0.0888  0.4239 -0.1954
87930SOL    HW181782  13.942  13.706   1.658 -0.0525  0.2569  1.7827
87930SOL    HW281783  13.797  13.697   1.703  0.1925 -1.5936  2.2673
87931SOL     OW81784   4.993   3.601   3.343 -0.1714 -0.0351  0.7165
87931SOL    HW181785   5.005   3.508   3.362 -1.0230 -0.0084  1.4779
87931SOL    HW281786   4.916   3.626   3.395  0.0248  1.0837  0.4948
87932SOL     OW81787   9.877   7.700   2.364 -0.3180  0.0451  0.2087
87932SOL    HW181788   9.907   7.673   2.451  0.9279 -0.4202 -0.3477
87932SOL    HW281789   9.803   7.642   2.346  0.7809 -1.3633  0.0717
87933SOL     OW81790   2.639   6.087   6.508  0.0921  0.0793 -0.3785
87933SOL    HW181791   2.670   6.093   6.598  0.9170 -0.8405 -0.5838
87933SOL    HW281792   2.625   6.178   6.481 -1.2840  0.3307  1.0291
87934SOL     OW81793   9.437  13.466   3.324 -0.3279  0.0951  0.0953
87934SOL    HW181794   9.400  13.380   3.341 -0.2455  0.0975  0.2898
87934SOL    HW281795   9.477  13.492   3.407  1.2198 -0.4505 -0.4532
87935SOL     OW81796  13.128  13.425   1.250  0.4297  0.4231  0.3129
87935SOL    HW181797  13.116  13.335   1.282  1.5398  0.2525  0.2980
87935SOL    HW281798  13.040  13.463   1.252  0.1358 -0.2472  1.5673
87936SOL     OW81799   0.883   8.143   2.145  0.3452  0.2941  0.2979
87936SOL    HW181800   0.882   8.086   2.068 -0.1180  1.5128 -0.6242
87936SOL    HW281801   0.794   8.135   2.181  0.8936 -1.1835  1.4365
87937SOL     OW81802   3.418   6.349  13.643 -0.0293  0.0216 -0.3623
87937SOL    HW181803   3.354   6.399  13.695  0.8123 -1.8235  2.7022
87937SOL    HW281804   3.494   6.406  13.636 -0.3008  0.4412  0.0750
87938SOL     OW81805   3.259  10.096   3.871 -0.0708 -0.2210 -0.0079
87938SOL    HW181806   3.290  10.137   3.790 -2.2193 -0.1936 -0.8723
87938SOL    HW281807   3.223  10.012   3.844 -2.4505  0.5327  0.5849
87939SOL     OW81808   5.098   8.355   9.081  0.3163 -0.1212 -0.2464
87939SOL    HW181809   5.112   8.316   9.167  1.6568 -0.5062 -0.6072
87939SOL    HW281810   5.108   8.281   9.020  0.3415  0.3157 -0.7794
87940SOL     OW81811  12.806   0.496   8.170  0.1446 -0.9445 -0.0195
87940SOL    HW181812  12.861   0.530   8.099 -2.0125  0.2295 -1.2773
87940SOL    HW281813  12.749   0.570   8.193  0.1463 -1.5920  2.3421
87941SOL     OW81814  12.741   1.138  14.025 -0.3525 -0.0680  0.0254
87941SOL    HW181815  12.835   1.122  14.012 -0.0879 -0.2401  1.8108
87941SOL    HW281816  12.736   1.231  14.047 -0.7114  0.1183 -0.8124
87942SOL     OW81817   7.660   4.187   2.247  0.2895 -0.2652 -0.2877
87942SOL    HW181818   7.583   4.213   2.297  1.9559 -0.2009  2.4425
87942SOL    HW281819   7.728   4.250   2.271  1.6197 -1.1679 -1.4482
87943SOL     OW81820  12.528   2.188  13.320 -0.5693 -0.1901 -0.1320
87943SOL    HW181821  12.594   2.120  13.324  0.1797  0.5051 -0.3883
87943SOL    HW281822  12.528   2.218  13.229  0.9696  1.8982  0.4763
87944SOL     OW81823  10.733  13.704   6.232  0.1781 -0.0277 -0.0444
87944SOL    HW181824  10.651  13.698   6.183 -0.1197 -2.1433  0.5913
87944SOL    HW281825  10.706  13.708   6.324  0.7580 -0.4353  0.1523
87945SOL     OW81826  10.002  11.520  13.232 -0.1105 -0.0023 -1.0546
87945SOL    HW181827  10.094  11.532  13.258 -0.1533  0.5660 -1.1393
87945SOL    HW281828   9.982  11.430  13.254  0.1755  0.1540 -0.1086
87946SOL     OW81829  12.421   6.046   8.781 -0.9899 -0.0007  0.1908
87946SOL    HW181830  12.383   6.063   8.868 -0.0588 -0.4140  0.6852
87946SOL    HW281831  12.515   6.043   8.796 -0.7249  1.1471 -1.0503
87947SOL     OW81832  11.143   5.617   2.833 -0.0301 -0.3589 -0.0751
87947SOL    HW181833  11.097   5.659   2.906  0.5285 -2.0085  1.2989
87947SOL    HW281834  11.227   5.662   2.828 -1.0687  1.5503 -1.5114
87948SOL     OW81835  13.512   7.571   1.144 -0.2884 -0.0287  0.1874
87948SOL    HW181836  13.602   7.550   1.121 -0.4298  0.2697 -0.6691
87948SOL    HW281837  13.475   7.488   1.174  0.9218  0.3070  2.8684
87949SOL     OW81838  13.228   1.434  11.412 -0.5169 -0.4000  0.3746
87949SOL    HW181839  13.168   1.380  11.463  0.3710 -0.0115  1.8829
87949SOL    HW281840  13.309   1.383  11.408  0.8014  1.2852  2.9961
87950SOL     OW81841  11.977   3.031   7.406 -0.2624  0.4056 -0.2136
87950SOL    HW181842  12.034   2.969   7.360 -0.9542 -0.1705 -0.3108
87950SOL    HW281843  12.009   3.030   7.497 -0.1641  0.0427 -0.2519
87951SOL     OW81844  13.910  10.707   5.285  0.0642 -0.5954 -0.6129
87951SOL    HW181845  13.971  10.721   5.358  0.4697 -1.2793 -0.8080
87951SOL    HW281846  13.843  10.649   5.321  0.8030 -1.7640 -1.0368
87952SOL     OW81847   3.583   1.577  10.500  0.1922 -0.2072 -0.5080
87952SOL    HW181848   3.574   1.482  10.510  0.3146 -0.0572  1.5673
87952SOL    HW281849   3.674   1.595  10.523  0.2261  0.4001 -1.0966
87953SOL     OW81850   8.497   5.939   1.764  0.3306 -0.1985  0.1129
87953SOL    HW181851   8.431   5.971   1.826  1.2317  1.0044  0.5031
87953SOL    HW281852   8.539   5.865   1.808  0.1689 -0.0948  0.4425
87954SOL     OW81853  12.720   0.203  13.756 -0.1694  0.5708  0.0479
87954SOL    HW181854  12.668   0.263  13.701  0.1794 -1.5616 -2.8743
87954SOL    HW281855  12.677   0.118  13.746  2.1410 -0.6677 -0.1013
87955SOL     OW81856  13.232   2.959  12.333  0.6235  0.1639  0.8115
87955SOL    HW181857  13.215   3.033  12.392 -2.4179  0.1726  0.1103
87955SOL    HW281858  13.157   2.900  12.346  1.8312 -1.7145 -0.2838
87956SOL     OW81859   4.401   8.232   7.087  0.2805  0.1222  0.6167
87956SOL    HW181860   4.494   8.253   7.090  0.8144 -1.3179 -2.2960
87956SOL    HW281861   4.392   8.172   7.013 -2.6161 -1.7311  2.2394
87957SOL     OW81862  12.704   1.323   2.764 -0.1270 -0.3595  0.2245
87957SOL    HW181863  12.738   1.255   2.705 -0.4137  0.6118 -1.0941
87957SOL    HW281864  12.781   1.377   2.785  0.1717 -1.2439  1.5448
87958SOL     OW81865   9.803  13.624   0.355 -0.0582  0.3673 -0.4143
87958SOL    HW181866   9.866  13.682   0.312  0.1275  1.2057  0.9341
87958SOL    HW281867   9.804  13.652   0.446  0.7584 -2.3728  0.5168
87959SOL     OW81868   8.107   9.447   5.291  0.9325  0.1641  0.0649
87959SOL    HW181869   8.140   9.519   5.237 -0.1785  0.1072 -0.7267
87959SOL    HW281870   8.040   9.487   5.346 -0.5292 -0.4355 -1.1977
87960SOL     OW81871   6.944   3.329   9.727 -0.2965 -0.8603 -0.2077
87960SOL    HW181872   6.930   3.422   9.743 -1.1995 -0.9685 -0.3127
87960SOL    HW281873   6.901   3.285   9.799  0.0847 -1.2078 -0.1862
87961SOL     OW81874   4.938   0.130   8.274  0.1798 -0.0652 -0.2463
87961SOL    HW181875   4.913   0.202   8.217  1.0170  0.3876 -0.0682
87961SOL    HW281876   4.905   0.155   8.361 -0.6373 -0.5064 -0.4228
87962SOL     OW81877  13.385   7.753  10.342 -0.7389 -0.2632 -0.2557
87962SOL    HW181878  13.439   7.827  10.370  1.2842 -1.7300 -0.0192
87962SOL    HW281879  13.418   7.731  10.255  0.0140 -2.0154  0.4307
87963SOL     OW81880  13.311   5.795  10.381  0.5194  0.2900 -0.7332
87963SOL    HW181881  13.269   5.879  10.361 -1.5624 -0.0452  1.6911
87963SOL    HW281882  13.383   5.818  10.440 -0.0703  0.3976 -0.0436
87964SOL     OW81883  11.830   7.581   6.525  0.0568  0.0159  0.2955
87964SOL    HW181884  11.736   7.593   6.509  0.1866 -0.4502 -0.9201
87964SOL    HW281885  11.863   7.669   6.542 -0.2003  0.5366 -1.6595
87965SOL     OW81886   5.475  12.883   7.084 -0.2199 -1.0303  0.4584
87965SOL    HW181887   5.524  12.801   7.087 -0.8025 -1.5011 -1.4175
87965SOL    HW281888   5.480  12.911   6.992  0.1713  1.1904  1.0989
87966SOL     OW81889   8.913   3.349  11.102 -0.5269 -0.6092 -0.6327
87966SOL    HW181890   8.937   3.307  11.185 -1.5492 -0.5827 -0.3106
87966SOL    HW281891   8.981   3.414  11.088 -0.1774 -0.8157  0.0412
87967SOL     OW81892  11.928   2.508   7.506  0.2699  0.1773  0.1948
87967SOL    HW181893  11.860   2.441   7.499  2.3202 -1.8842 -2.1066
87967SOL    HW281894  11.976   2.486   7.585  1.7592 -2.1063 -1.2172
87968SOL     OW81895   1.044   6.091  13.768 -0.0346 -0.1522 -0.3315
87968SOL    HW181896   0.961   6.092  13.720 -0.0783 -0.4243 -0.2613
87968SOL    HW281897   1.026   6.040  13.847  0.4382 -0.9887 -0.7549
87969SOL     OW81898   7.698   5.521   8.060 -0.1795 -0.1544  0.2306
87969SOL    HW181899   7.726   5.494   7.972 -0.7576 -1.0784  0.3115
87969SOL    HW281900   7.610   5.557   8.047 -1.6337 -3.1406  0.7670
87970SOL     OW81901   6.525   3.834  10.917 -0.2459 -0.1828 -0.4056
87970SOL    HW181902   6.585   3.813  10.988 -1.6033 -1.8478  0.3095
87970SOL    HW281903   6.580   3.880  10.853  1.7798 -1.5590  0.2291
87971SOL     OW81904   3.706  11.805   6.515 -0.1513 -0.0354  0.3259
87971SOL    HW181905   3.619  11.835   6.487  0.3262  0.4859 -0.6383
87971SOL    HW281906   3.707  11.818   6.610 -0.9162  0.5048  0.2671
87972SOL     OW81907   3.449   2.997  12.162  0.6171 -0.0564  0.4047
87972SOL    HW181908   3.478   3.084  12.191  0.3351 -0.0040  0.5382
87972SOL    HW281909   3.354   3.007  12.152  0.1145 -1.0775  3.1247
87973SOL     OW81910   9.237  11.797   6.471  0.0031  0.0384 -0.7213
87973SOL    HW181911   9.154  11.806   6.518 -0.6036  0.2581 -1.7996
87973SOL    HW281912   9.216  11.741   6.396  0.4526  1.2813 -1.8189
87974SOL     OW81913   0.339  12.878   3.565  0.2497  0.1867 -0.0355
87974SOL    HW181914   0.429  12.858   3.542  0.8204  0.9845  1.3251
87974SOL    HW281915   0.334  12.974   3.560 -0.7961  0.0914 -1.0178
87975SOL     OW81916   1.632  13.466  13.872 -0.5998  0.4856 -0.3936
87975SOL    HW181917   1.572  13.462  13.797  0.6032  1.2905 -1.4586
87975SOL    HW281918   1.600  13.540  13.924 -1.4853 -0.1215 -0.0541
87976SOL     OW81919   3.279   7.117  11.132  0.4208  0.5095 -0.0542
87976SOL    HW181920   3.234   7.180  11.076 -0.2612  0.2636  0.2011
87976SOL    HW281921   3.363   7.158  11.152 -0.5662  2.0010  1.2508
87977SOL     OW81922   7.084  10.674  12.950 -0.3966  0.4293 -0.1734
87977SOL    HW181923   7.083  10.669  12.855  0.7681 -0.1467 -0.1841
87977SOL    HW281924   7.141  10.749  12.970 -1.8550  1.5059  0.0831
87978SOL     OW81925   8.880  12.391   9.913  0.4842  0.2923 -0.1699
87978SOL    HW181926   8.912  12.475   9.945  0.2927  1.2918 -2.4375
87978SOL    HW281927   8.786  12.392   9.934  0.8007 -0.1758  1.3939
87979SOL     OW81928  12.310   7.886  13.586 -0.0473  0.3216  0.1685
87979SOL    HW181929  12.396   7.845  13.594  0.1746  0.5194 -0.9559
87979SOL    HW281930  12.269   7.874  13.672  1.0959  0.2190  0.7162
87980SOL     OW81931  11.308   4.678   9.465  0.1291 -0.1642  0.5112
87980SOL    HW181932  11.361   4.642   9.393  1.1743  1.0465  0.6506
87980SOL    HW281933  11.314   4.613   9.534  2.0589  0.2584  0.7887
87981SOL     OW81934   8.766   8.861  10.888  0.2194 -0.2153  0.1751
87981SOL    HW181935   8.861   8.868  10.888  0.4590 -2.5906  0.5485
87981SOL    HW281936   8.745   8.810  10.967 -1.3341  0.0811 -0.0048
87982SOL     OW81937   6.990   5.438   9.747  0.1176  0.2235 -0.0753
87982SOL    HW181938   6.993   5.342   9.746 -0.9208  0.1740 -1.2140
87982SOL    HW281939   7.080   5.465   9.766  0.2287 -0.9648  1.3050
87983SOL     OW81940  12.360   7.547   9.343  0.0851 -0.5242  0.5215
87983SOL    HW181941  12.397   7.506   9.265  0.7506 -0.6755  0.9056
87983SOL    HW281942  12.294   7.485   9.374 -0.4445 -0.2899 -0.1281
87984SOL     OW81943  11.706  10.132  10.409  0.3051 -0.1051  0.4075
87984SOL    HW181944  11.779  10.106  10.466  0.5231  0.9937  0.6532
87984SOL    HW281945  11.720  10.225  10.393 -0.7219 -0.0139 -0.0345
87985SOL     OW81946  12.601  12.423  10.668 -0.5557  0.0688  0.2050
87985SOL    HW181947  12.636  12.494  10.722 -0.7142 -1.0836  1.8968
87985SOL    HW281948  12.677  12.392  10.617 -0.5319  1.5379 -0.7220
87986SOL     OW81949  13.467   5.630   6.179 -0.0817 -0.3276 -0.3173
87986SOL    HW181950  13.492   5.722   6.177  0.4159 -0.4643 -0.8115
87986SOL    HW281951  13.379   5.629   6.215 -0.2523  0.3845 -0.7038
87987SOL     OW81952   1.478   7.569  10.166  0.4974 -0.0116 -0.0738
87987SOL    HW181953   1.556   7.600  10.212  0.4004  0.9068 -0.5178
87987SOL    HW281954   1.508   7.553  10.076  0.6953 -1.8347  0.2770
87988SOL     OW81955   1.401   4.799  11.098 -0.4914 -0.0578 -0.5088
87988SOL    HW181956   1.459   4.756  11.162 -0.4247  0.0473 -0.4987
87988SOL    HW281957   1.432   4.767  11.013 -0.0767  0.4057 -0.5371
87989SOL     OW81958   9.922   4.699  13.766  0.3400  0.1585 -0.5152
87989SOL    HW181959   9.955   4.715  13.678  1.4136 -0.5011 -0.2445
87989SOL    HW281960   9.971   4.758  13.822  1.0984 -0.8265 -0.1111
87990SOL     OW81961   5.608   8.697   1.375 -0.5431  0.1813 -0.5376
87990SOL    HW181962   5.649   8.618   1.339  2.4904  1.2498  0.2179
87990SOL    HW281963   5.623   8.764   1.308  2.3663  1.4330  1.1562
87991SOL     OW81964   6.452  10.536   7.366  0.2519  0.1810 -0.6512
87991SOL    HW181965   6.417  10.473   7.304 -1.3812  1.3642 -0.9975
87991SOL    HW281966   6.376  10.587   7.394  1.4527  1.8142 -0.2006
87992SOL     OW81967   0.566   0.472  10.211 -0.6671 -0.2013 -0.3049
87992SOL    HW181968   0.554   0.398  10.270  1.1789 -1.0178 -0.8864
87992SOL    HW281969   0.571   0.432  10.124 -1.1486  0.7677 -0.7930
87993SOL     OW81970   8.818  13.447   1.580  0.2301  0.1475 -0.0660
87993SOL    HW181971   8.741  13.406   1.539  0.1939  0.6180 -0.4890
87993SOL    HW281972   8.786  13.481   1.663 -0.1391  0.7403 -0.4431
87994SOL     OW81973  10.646   9.069  10.534 -0.0368  0.5683 -0.4245
87994SOL    HW181974  10.641   8.995  10.473 -2.9512  1.2092 -1.1167
87994SOL    HW281975  10.739   9.091  10.538  0.9551 -3.0433 -0.2424
87995SOL     OW81976  11.687   1.877   3.723 -0.0774 -0.4708 -0.2249
87995SOL    HW181977  11.740   1.922   3.789  0.7931 -1.1851 -0.4210
87995SOL    HW281978  11.598   1.907   3.740  0.4486  1.2153 -0.2707
87996SOL     OW81979  13.947   1.730   5.227  0.6044 -0.1866  0.3613
87996SOL    HW181980  14.031   1.691   5.250  0.2221 -0.9197  0.5286
87996SOL    HW281981  13.910   1.758   5.311  1.2164  1.2678  0.1749
87997SOL     OW81982   7.672  13.942   0.458 -0.2423  0.0361 -1.2615
87997SOL    HW181983   7.579  13.918   0.467 -0.3926  1.2044  0.7702
87997SOL    HW281984   7.670  14.032   0.427  0.1349  0.7819  0.7449
87998SOL     OW81985   2.915   2.046   4.536  0.0680 -0.2457 -0.2227
87998SOL    HW181986   2.840   2.070   4.482  0.5627  0.6659 -0.5299
87998SOL    HW281987   2.974   2.001   4.476 -0.5274 -1.6136  0.1825
87999SOL     OW81988   3.588   7.860   0.717 -0.5627  0.5815 -0.5449
87999SOL    HW181989   3.549   7.773   0.715 -1.1299  0.7885  0.5250
87999SOL    HW281990   3.678   7.845   0.747 -0.8575  0.4146  0.2875
88000SOL     OW81991  11.457  12.363   7.707  0.3063  0.2158  0.1194
88000SOL    HW181992  11.464  12.458   7.716 -1.1770  0.3263  0.3824
88000SOL    HW281993  11.484  12.345   7.617  2.0782  0.6882  0.5135
88001SOL     OW81994   1.673   1.407   3.261  0.0121 -0.8185 -0.0318
88001SOL    HW181995   1.764   1.389   3.235  0.0682  0.7506 -1.0528
88001SOL    HW281996   1.653   1.339   3.325  1.7501 -1.4822 -0.1261
88002SOL     OW81997   0.843   9.451  11.287 -0.3748  0.3905  0.0843
88002SOL    HW181998   0.911   9.392  11.320  0.3003  0.0574 -1.7672
88002SOL    HW281999   0.784   9.464  11.362  0.7383 -0.7458  1.2138
88003SOL     OW82000   2.197   1.062  12.675  0.5234  0.0265 -0.6749
88003SOL    HW182001   2.240   1.147  12.660  0.3393  0.0677 -0.9810
88003SOL    HW282002   2.107   1.075  12.645  0.1210  0.1222  0.5303
88004SOL     OW82003   7.327   6.340   4.726  0.3686  0.4179 -0.3462
88004SOL    HW182004   7.314   6.348   4.632 -1.2840  1.9231 -0.0449
88004SOL    HW282005   7.369   6.423   4.751  2.6302 -0.7446  0.0275
88005SOL     OW82006   5.782  11.658  13.685 -0.2884  0.5185 -0.0280
88005SOL    HW182007   5.742  11.695  13.607 -2.0150  0.2977  0.7018
88005SOL    HW282008   5.764  11.564  13.679  0.7780  0.3030 -0.0346
88006SOL     OW82009   9.821  11.140   8.052  0.1596 -0.4628 -0.6140
88006SOL    HW182010   9.825  11.177   7.964 -1.4300  0.3434 -0.3881
88006SOL    HW282011   9.872  11.059   8.047  0.1702 -0.3864 -2.2486
88007SOL     OW82012  13.530   2.812   8.095 -0.1540  0.0143 -0.0377
88007SOL    HW182013  13.500   2.724   8.117 -0.4459 -0.1145 -0.9339
88007SOL    HW282014  13.606   2.826   8.152  1.6223 -1.8900 -1.7577
88008SOL     OW82015   8.798   7.778   8.711 -0.1969  0.1763 -0.2120
88008SOL    HW182016   8.855   7.715   8.667  0.9769  2.8120 -2.8043
88008SOL    HW282017   8.857   7.832   8.763 -1.0805 -0.2458  1.3012
88009SOL     OW82018  13.132  12.416  12.751  0.0025 -0.0287  0.1943
88009SOL    HW182019  13.211  12.414  12.805 -0.1120  1.4576  0.4453
88009SOL    HW282020  13.087  12.334  12.772  1.3967 -0.8268  0.1436
88010SOL     OW82021   7.121  11.441  10.286  0.3389 -0.5972 -0.1758
88010SOL    HW182022   7.181  11.427  10.360  2.5631  0.4672 -1.6740
88010SOL    HW282023   7.053  11.498  10.322  1.6595  0.3375  0.9800
88011SOL     OW82024   2.760   2.075   3.349 -0.6814  0.2956  0.3048
88011SOL    HW182025   2.811   2.095   3.427 -0.9439  1.7432  0.1274
88011SOL    HW282026   2.775   1.981   3.333  0.8995  0.4182  0.9732
88012SOL     OW82027   6.175  13.087   3.486 -0.2465  0.3944  0.1761
88012SOL    HW182028   6.086  13.093   3.519  0.0624  0.1923  1.0584
88012SOL    HW282029   6.215  13.014   3.534 -0.2304 -0.9160 -1.7046
88013SOL     OW82030   0.330   9.710  12.097 -0.3624 -0.3132  0.2857
88013SOL    HW182031   0.269   9.724  12.025  0.8035 -1.0466 -0.8720
88013SOL    HW282032   0.331   9.793  12.144 -0.4411  0.4949 -1.0972
88014SOL     OW82033   2.797   8.151  12.110 -0.2839  0.1195 -0.2701
88014SOL    HW182034   2.862   8.197  12.164 -0.7987  0.4490  0.0823
88014SOL    HW282035   2.734   8.117  12.173  1.0682 -2.7626 -0.3347
88015SOL     OW82036  12.542   5.800  13.952 -0.5320  0.0848 -0.3176
88015SOL    HW182037  12.600   5.835  14.020 -0.4095 -1.1215  0.2232
88015SOL    HW282038  12.595   5.801  13.873 -0.8217  1.9484 -0.5470
88016SOL     OW82039  12.575   1.853  10.569 -0.3439  0.7840 -0.1544
88016SOL    HW182040  12.483   1.867  10.545 -1.0288 -0.6521  1.4401
88016SOL    HW282041  12.615   1.815  10.490 -2.1982 -2.5707  0.3408
88017SOL     OW82042   1.312  14.069  10.417 -0.1343 -0.2178  0.0509
88017SOL    HW182043   1.356  13.986  10.396  0.8973  0.3191  0.0187
88017SOL    HW282044   1.367  14.109  10.484 -1.1413  0.0229  0.7564
88018SOL     OW82045   5.454  11.069  13.999 -0.3238 -0.2072 -0.0429
88018SOL    HW182046   5.423  11.068  14.090  0.6581 -2.4799  0.3364
88018SOL    HW282047   5.406  10.998  13.957  0.1325  0.0209 -0.9756
88019SOL     OW82048  12.944   8.262   3.294  0.3199 -0.2740 -0.3334
88019SOL    HW182049  12.983   8.319   3.361  0.7571 -1.6074  0.5704
88019SOL    HW282050  12.993   8.181   3.299 -1.8641 -1.6446  0.1102
88020SOL     OW82051   6.736  12.051   6.889  0.2754  0.3378  0.2293
88020SOL    HW182052   6.745  12.125   6.949 -0.9390 -0.9894  2.1699
88020SOL    HW282053   6.809  12.062   6.827 -0.5137  3.7474 -0.3195
88021SOL     OW82054   5.878   5.831   0.359 -0.8732  0.3710 -0.5471
88021SOL    HW182055   5.886   5.926   0.348  0.0751  0.3510 -0.1289
88021SOL    HW282056   5.793   5.819   0.402  0.2216  1.2953  2.1241
88022SOL     OW82057   5.773   6.875   8.822  0.7431  0.3758  0.3948
88022SOL    HW182058   5.859   6.900   8.789  0.6053 -0.5364 -0.7508
88022SOL    HW282059   5.782   6.875   8.917  2.0143  0.2604  0.2892
88023SOL     OW82060   7.848   2.827   2.630  0.8547  0.3996 -0.1100
88023SOL    HW182061   7.826   2.758   2.692  0.3348  1.7367  1.2638
88023SOL    HW282062   7.859   2.782   2.547  0.8187 -1.3611  0.7929
88024SOL     OW82063   0.892   6.851   6.444  0.4066  0.2146  0.1255
88024SOL    HW182064   0.943   6.888   6.372 -0.2342 -0.1736 -0.5541
88024SOL    HW282065   0.801   6.876   6.423  0.2325  0.2466  0.8971
88025SOL     OW82066   4.322   4.471   9.814  0.3772  0.1905 -0.4389
88025SOL    HW182067   4.272   4.542   9.853  0.9592  0.1950  0.3114
88025SOL    HW282068   4.324   4.403   9.881  3.1156  0.9785  0.4029
88026SOL     OW82069   0.914   3.097   8.911  0.2602  0.2481 -0.2305
88026SOL    HW182070   0.896   3.114   9.003 -1.6293  0.4954 -0.6085
88026SOL    HW282071   0.963   3.173   8.881  1.0553  0.0759  0.5963
88027SOL     OW82072  11.494   0.846   5.320  0.1769  0.0616 -0.8031
88027SOL    HW182073  11.565   0.908   5.305  1.6293 -1.4859 -0.7289
88027SOL    HW282074  11.467   0.862   5.410  0.8310  0.3253 -0.6471
88028SOL     OW82075  11.896   7.975  11.385  0.4626 -0.4003  0.6328
88028SOL    HW182076  11.872   7.986  11.477 -0.1058  0.4456  0.4001
88028SOL    HW282077  11.958   8.047  11.368  0.4916 -0.4934  0.3345
88029SOL     OW82078   1.913  12.081  11.088  0.0511 -0.0410  0.1970
88029SOL    HW182079   1.988  12.132  11.057  0.1155 -0.6181 -0.6251
88029SOL    HW282080   1.904  12.106  11.180  0.7808  0.6012  0.1085
88030SOL     OW82081  12.107   4.999   1.231 -0.0884 -0.1285 -0.1279
88030SOL    HW182082  12.015   5.003   1.204 -0.3605  0.1422  0.7820
88030SOL    HW282083  12.113   4.917   1.281  0.0336  0.1012  0.2417
88031SOL     OW82084   7.796  12.667   1.486  0.1745  0.2904  0.0771
88031SOL    HW182085   7.755  12.748   1.516  0.3762  0.1403  0.7633
88031SOL    HW282086   7.745  12.597   1.525 -1.2625  0.0122 -2.1501
88032SOL     OW82087   7.208  12.030  11.926  0.4108 -0.1734 -0.0030
88032SOL    HW182088   7.294  12.048  11.888  0.5007 -1.0828 -0.2553
88032SOL    HW282089   7.146  12.055  11.858  0.5399 -0.9482 -0.4196
88033SOL     OW82090  13.802   1.866  13.571 -0.4399 -0.1137  0.0810
88033SOL    HW182091  13.817   1.772  13.576  1.8969  0.2533  2.1137
88033SOL    HW282092  13.861   1.897  13.502  0.3810  0.0639  0.8392
88034SOL     OW82093   4.045   5.323  11.685  0.1596 -0.4015 -0.0590
88034SOL    HW182094   3.982   5.354  11.620  1.0515 -1.3809 -1.4457
88034SOL    HW282095   4.079   5.403  11.725 -1.1497  0.1809 -0.0405
88035SOL     OW82096   8.619  12.342  12.708  0.0325 -0.1173  0.1735
88035SOL    HW182097   8.577  12.410  12.760 -1.4610 -0.1724 -0.9134
88035SOL    HW282098   8.578  12.348  12.622  2.4926  0.0304 -1.0709
88036SOL     OW82099  12.109   3.718   9.574  0.0643  0.3719  0.8428
88036SOL    HW182100  12.033   3.697   9.520  0.3489 -0.8050  0.8697
88036SOL    HW282101  12.155   3.786   9.525 -0.9524  1.0433  0.7882
88037SOL     OW82102   6.332   3.218  10.340 -0.0459  0.2257 -0.4399
88037SOL    HW182103   6.394   3.253  10.404  1.0918 -0.5529 -1.0651
88037SOL    HW282104   6.379   3.223  10.257 -0.1743 -1.8550 -0.7051
88038SOL     OW82105   0.154   5.788   3.350  0.0902  0.1466  0.4978
88038SOL    HW182106   0.180   5.880   3.348  0.0979  0.1396  0.2590
88038SOL    HW282107   0.080   5.782   3.290 -0.6109  0.2047  1.3396
88039SOL     OW82108   8.224   3.084   5.252 -0.3985 -0.0542  0.4824
88039SOL    HW182109   8.222   3.113   5.343 -1.0235  1.7651 -0.0716
88039SOL    HW282110   8.314   3.101   5.224 -0.1833 -0.6878  0.7468
88040SOL     OW82111   8.824   7.541  12.120 -0.2500 -0.0441  0.1352
88040SOL    HW182112   8.774   7.608  12.167 -0.3933 -0.0691  0.0192
88040SOL    HW282113   8.773   7.461  12.132 -0.1161 -0.1173  0.2141
88041SOL     OW82114  10.905   6.036   9.889 -0.4636  0.4775 -0.6267
88041SOL    HW182115  10.931   6.011   9.801  0.2113 -1.2588  0.0287
88041SOL    HW282116  10.923   6.130   9.894 -0.1538  0.5253 -2.1904
88042SOL     OW82117   5.200   1.337  10.738 -0.3824 -0.4759 -0.0258
88042SOL    HW182118   5.246   1.398  10.680 -0.3310  1.0894  1.5677
88042SOL    HW282119   5.270   1.283  10.775 -0.1644 -0.0502  0.1912
88043SOL     OW82120   2.136   0.069   0.652  0.1655  0.1336 -0.3096
88043SOL    HW182121   2.205   0.075   0.718 -0.8069  2.6255  0.5854
88043SOL    HW282122   2.107   0.159   0.639 -1.8582 -0.6637 -1.8172
88044SOL     OW82123  11.901   3.116   0.721  0.1724 -0.0092  0.5964
88044SOL    HW182124  11.850   3.067   0.786  0.2488  0.4179  0.9838
88044SOL    HW282125  11.853   3.198   0.709  1.4683  1.0458  2.0475
88045SOL     OW82126   6.556   4.066  10.600 -0.2927  0.0896  0.5782
88045SOL    HW182127   6.603   4.051  10.682  0.5773  1.2384  0.3185
88045SOL    HW282128   6.505   3.986  10.587 -2.6376  0.8925  3.6284
88046SOL     OW82129   1.038  11.147   3.445  0.6745 -0.4592 -0.1100
88046SOL    HW182130   0.968  11.212   3.433 -1.8258 -2.8259  0.5795
88046SOL    HW282131   1.104  11.192   3.497 -1.3568  1.2700  1.1358
88047SOL     OW82132   0.702  12.284  12.664  0.0309  0.1752  0.2431
88047SOL    HW182133   0.788  12.259  12.699  0.4311  1.0028 -0.1096
88047SOL    HW282134   0.721  12.357  12.605 -0.9182  0.3501  0.1367
88048SOL     OW82135  14.083   9.904   1.431  0.0808 -0.0235 -0.4365
88048SOL    HW182136  14.175   9.901   1.404 -0.0660 -1.9803 -0.9012
88048SOL    HW282137  14.055   9.812   1.427 -1.2750  0.2230  1.8094
88049SOL     OW82138   0.749   5.256   7.578 -0.0057  0.1489  0.1179
88049SOL    HW182139   0.820   5.273   7.516  0.3849  0.2233  0.5794
88049SOL    HW282140   0.727   5.342   7.614  0.5811 -0.0334  0.9486
88050SOL     OW82141  11.573   5.424   1.140 -0.4627  0.3178  0.6460
88050SOL    HW182142  11.622   5.436   1.222 -0.3447 -1.2897  0.8488
88050SOL    HW282143  11.561   5.329   1.134 -1.1618  0.4830 -0.8105
88051SOL     OW82144   1.517  10.443   4.310 -0.2133  0.0329 -0.5493
88051SOL    HW182145   1.432  10.487   4.306 -0.3520 -0.3166 -2.3904
88051SOL    HW282146   1.531  10.410   4.221  0.9554 -1.6143  0.1936
88052SOL     OW82147   4.075   6.166   1.173 -0.1232 -0.0297 -0.2288
88052SOL    HW182148   4.005   6.121   1.221 -0.0218  1.2183  1.1595
88052SOL    HW282149   4.032   6.197   1.094 -0.9630  0.0639  0.2434
88053SOL     OW82150  12.554   6.166   2.489  0.2948 -0.0147  0.0917
88053SOL    HW182151  12.553   6.252   2.531  0.5649 -0.4076  0.9458
88053SOL    HW282152  12.646   6.149   2.470  0.1016  0.4560 -1.3281
88054SOL     OW82153   5.817  13.229   1.881 -0.3197 -0.0575 -0.1407
88054SOL    HW182154   5.901  13.185   1.895  0.2734  0.4719 -1.7827
88054SOL    HW282155   5.757  13.186   1.942  1.4122  0.4688  2.0608
88055SOL     OW82156   0.945   5.138  13.688 -0.3414  0.1424  0.0900
88055SOL    HW182157   0.909   5.052  13.666 -1.0032  0.3101  0.4778
88055SOL    HW282158   0.954   5.136  13.783 -0.7343  0.6444  0.1385
88056SOL     OW82159   4.964   8.587   8.996  0.5865 -0.1924 -0.3387
88056SOL    HW182160   4.999   8.505   9.032  0.6298 -0.0562 -0.0662
88056SOL    HW282161   4.964   8.648   9.071  0.8201  0.1373 -0.6035
88057SOL     OW82162   3.523   0.108  13.382 -0.5365 -0.3646 -0.3880
88057SOL    HW182163   3.601   0.077  13.337  0.4619 -1.5366  1.9340
88057SOL    HW282164   3.533   0.203  13.386  0.3688 -0.4349 -0.8300
88058SOL     OW82165   6.068   1.533   0.884  0.1199 -0.6336 -0.3315
88058SOL    HW182166   6.052   1.626   0.899  0.2101 -0.6110 -0.3791
88058SOL    HW282167   6.061   1.522   0.790  0.1881 -0.6609 -0.3333
88059SOL     OW82168   4.107   0.873   5.531  0.0194 -0.0481  0.6796
88059SOL    HW182169   4.041   0.930   5.493  0.4770 -0.1435 -0.3061
88059SOL    HW282170   4.175   0.932   5.563  0.0037  0.0055  0.6133
88060SOL     OW82171   0.594  10.177   3.459  0.3215  0.0636  0.0442
88060SOL    HW182172   0.630  10.214   3.540 -1.1757  0.8440  0.3808
88060SOL    HW282173   0.594  10.250   3.398 -0.4970  0.0338 -0.0007
88061SOL     OW82174   0.200  12.405  12.545 -0.3315  0.0372 -0.6158
88061SOL    HW182175   0.205  12.312  12.568  0.7412  0.0602 -0.6792
88061SOL    HW282176   0.128  12.411  12.484 -0.5581 -0.7218 -0.4368
88062SOL     OW82177   0.044  12.987   1.134 -0.4422 -0.1272  0.1510
88062SOL    HW182178  -0.019  13.050   1.100  1.5279  1.1351 -1.4513
88062SOL    HW282179   0.130  13.025   1.113  0.8656 -2.6697  0.4236
88063SOL     OW82180   7.905  12.977  11.319  0.0548 -0.1962 -0.2628
88063SOL    HW182181   7.902  12.930  11.402 -0.1978  1.2456  0.5738
88063SOL    HW282182   7.813  12.982  11.291  0.1262 -0.5664 -0.5755
88064SOL     OW82183  12.622   9.304  12.745  0.0541  0.3638  0.0719
88064SOL    HW182184  12.557   9.327  12.679 -0.4122 -1.0969 -0.0117
88064SOL    HW282185  12.578   9.320  12.829  0.1980  0.9915  0.0333
88065SOL     OW82186   0.937   7.057  14.004  0.9831  0.5391 -0.6540
88065SOL    HW182187   1.009   6.993  14.001  1.1927  0.7467 -0.1485
88065SOL    HW282188   0.858   7.004  14.015  1.2984  0.4184  1.4726
88066SOL     OW82189   6.280   1.832  12.642  0.8635  0.4526 -0.6449
88066SOL    HW182190   6.281   1.760  12.705  3.0562  1.8982  1.1243
88066SOL    HW282191   6.358   1.816  12.588  1.7027  1.7565  0.1430
88067SOL     OW82192   8.558   5.818   4.304  0.8743  0.3435  0.7654
88067SOL    HW182193   8.518   5.839   4.220  0.5935 -1.8593  0.2723
88067SOL    HW282194   8.652   5.831   4.290  0.6317  2.6239  0.9964
88068SOL     OW82195   5.780  11.768  11.378 -0.1452 -0.0577  0.1529
88068SOL    HW182196   5.778  11.672  11.383  3.0811 -0.2298 -0.0870
88068SOL    HW282197   5.720  11.788  11.306 -1.1436 -1.8362  0.4147
88069SOL     OW82198  12.674   2.591   8.757  0.4069  0.4660  0.2287
88069SOL    HW182199  12.703   2.682   8.751  0.1947  0.5688  0.7230
88069SOL    HW282200  12.719   2.546   8.685 -1.0279  1.3620 -1.2899
88070SOL     OW82201   0.676   8.343   7.153  0.0829 -0.0538  0.3058
88070SOL    HW182202   0.649   8.413   7.212 -0.6615 -0.4698  0.4715
88070SOL    HW282203   0.625   8.267   7.181 -0.9562 -0.0329 -1.4311
88071SOL     OW82204   4.278  10.767  11.009  0.2364 -0.8037  0.0481
88071SOL    HW182205   4.318  10.730  10.931  0.8512 -1.1796  0.5349
88071SOL    HW282206   4.296  10.704  11.078 -0.3146 -0.4864  0.4976
88072SOL     OW82207   2.791   0.671  10.785  0.1731 -0.2918 -0.2713
88072SOL    HW182208   2.758   0.581  10.778  1.8052 -0.8153 -2.2050
88072SOL    HW282209   2.885   0.663  10.766  0.7093  1.6059  1.2858
88073SOL     OW82210  12.105   2.513   8.464  0.1567 -0.3910 -0.3182
88073SOL    HW182211  12.083   2.600   8.499 -0.6749 -0.4015 -0.7959
88073SOL    HW282212  12.043   2.454   8.507 -0.4994 -0.4814 -1.3554
88074SOL     OW82213   8.657   2.423  11.261  0.7423 -0.0447 -0.7586
88074SOL    HW182214   8.741   2.378  11.273  0.3689 -0.7672 -0.7426
88074SOL    HW282215   8.638   2.413  11.167 -0.4733 -2.0719 -0.3813
88075SOL     OW82216  13.841   9.229   8.794 -0.4588  0.6204  0.0254
88075SOL    HW182217  13.776   9.159   8.799  0.0353  0.0735 -0.8114
88075SOL    HW282218  13.896   9.215   8.872  0.0640 -0.3821 -0.5022
88076SOL     OW82219   8.602   2.581   8.744  0.5683 -0.0120  0.4341
88076SOL    HW182220   8.552   2.500   8.744  0.0236  0.3161  0.3207
88076SOL    HW282221   8.558   2.636   8.679  1.6779 -0.0731 -0.4119
88077SOL     OW82222   3.582  11.467  10.088  0.1374 -0.4381 -0.8786
88077SOL    HW182223   3.557  11.535  10.151  3.0118 -1.1379  1.2048
88077SOL    HW282224   3.590  11.514  10.004 -0.2565  1.2850  0.0023
88078SOL     OW82225  10.710   9.247  13.326  0.3754 -0.2454 -0.4968
88078SOL    HW182226  10.802   9.220  13.337  0.7025  0.9554 -0.1335
88078SOL    HW282227  10.694   9.306  13.399 -0.8903 -0.9000 -0.2186
88079SOL     OW82228  10.147   7.461  10.019 -0.1250 -0.7347  0.2327
88079SOL    HW182229  10.163   7.398  10.089 -0.6206 -0.1464  0.8871
88079SOL    HW282230  10.093   7.414   9.956 -0.9276 -0.8082  0.9631
88080SOL     OW82231  13.604   9.480   0.073  0.1888  0.1437 -0.2876
88080SOL    HW182232  13.543   9.406   0.076 -1.4805  1.4888  0.7347
88080SOL    HW282233  13.608   9.511   0.163  2.3117  0.2069 -0.3608
88081SOL     OW82234   0.203  12.163   2.897  0.6850  0.2453 -0.1594
88081SOL    HW182235   0.259  12.236   2.868  0.3524  0.6646  0.2364
88081SOL    HW282236   0.166  12.193   2.980 -2.3058  1.1541 -1.6688
88082SOL     OW82237  13.508   7.995   0.281 -0.6356  0.0115  0.2102
88082SOL    HW182238  13.590   7.995   0.232 -0.8464 -1.6047 -0.2088
88082SOL    HW282239  13.535   8.004   0.373  0.0808 -1.1698  0.1327
88083SOL     OW82240  13.415   9.866   6.962 -0.6186 -0.0738 -0.4528
88083SOL    HW182241  13.384   9.893   6.876 -3.9722 -1.9131 -0.0157
88083SOL    HW282242  13.349   9.900   7.023  1.3488  0.6921  1.3782
88084SOL     OW82243   1.236   1.687   6.224 -0.1329  0.3226 -0.1663
88084SOL    HW182244   1.141   1.692   6.239 -0.3488 -1.1164 -0.8588
88084SOL    HW282245   1.275   1.692   6.311 -0.8382  0.7883  0.1370
88085SOL     OW82246   6.489   2.215  10.004 -0.2241  0.1247  0.4642
88085SOL    HW182247   6.411   2.197  10.056  0.2774 -1.4164  0.7260
88085SOL    HW282248   6.558   2.234  10.068 -0.4372  1.8552  0.2248
88086SOL     OW82249  11.732   5.087   2.225 -0.4505 -0.1689  0.2315
88086SOL    HW182250  11.717   5.166   2.277 -1.8200 -0.7687  0.7975
88086SOL    HW282251  11.815   5.052   2.258  1.3405  2.1027 -1.4813
88087SOL     OW82252   3.513   9.223   3.306 -0.4753 -0.0862 -0.3359
88087SOL    HW182253   3.500   9.311   3.269 -1.3317  0.7942  1.8412
88087SOL    HW282254   3.575   9.181   3.247  0.7229  2.3381 -0.9452
88088SOL     OW82255  13.724  10.987   1.429  0.5041  0.0068 -0.6587
88088SOL    HW182256  13.683  11.054   1.374  0.8770 -0.4995 -1.5890
88088SOL    HW282257  13.683  10.905   1.400 -0.2298 -0.1421  0.7355
88089SOL     OW82258   3.145   9.306   9.978 -0.1729  0.0774  0.2664
88089SOL    HW182259   3.086   9.261   9.918  0.0878  0.0448  0.0327
88089SOL    HW282260   3.162   9.242  10.047  2.4367 -1.2927 -1.4754
88090SOL     OW82261   5.144   4.400   1.565 -0.7462  0.4401 -0.6922
88090SOL    HW182262   5.169   4.344   1.638 -3.4174  0.1772  0.1068
88090SOL    HW282263   5.160   4.489   1.597 -0.9233  0.2907 -0.1765
88091SOL     OW82264   7.728  11.491   2.971 -0.0475 -0.1878 -0.0144
88091SOL    HW182265   7.792  11.505   2.901  0.9233 -3.1405  0.1337
88091SOL    HW282266   7.780  11.492   3.052 -0.8939  1.4846  0.5577
88092SOL     OW82267   5.035   9.653   9.468  0.5438  0.1252  0.3612
88092SOL    HW182268   5.071   9.740   9.451 -1.2298  0.6337 -1.0964
88092SOL    HW282269   5.109   9.593   9.453  1.8689  1.3451  1.6763
88093SOL     OW82270  10.590   9.121   6.694  0.6027  0.2972 -0.0031
88093SOL    HW182271  10.544   9.043   6.661  0.9945  0.1566 -0.2283
88093SOL    HW282272  10.558   9.131   6.783  0.9605 -0.4517  0.2208
88094SOL     OW82273   3.810   0.956   2.195  0.9689  0.4084 -0.1189
88094SOL    HW182274   3.812   1.050   2.214  2.1796  0.1286  1.3469
88094SOL    HW282275   3.718   0.936   2.181 -0.0228  1.0545  4.0482
88095SOL     OW82276   6.590  10.536   0.387  0.4022 -0.0772 -0.3442
88095SOL    HW182277   6.600  10.600   0.316  0.4597 -0.2251 -0.4695
88095SOL    HW282278   6.621  10.454   0.350 -1.5093 -0.6241 -0.8513
88096SOL     OW82279   6.433   5.417   8.710  0.5955  0.3651  0.0582
88096SOL    HW182280   6.451   5.456   8.625 -0.5547  0.7812 -0.0127
88096SOL    HW282281   6.423   5.323   8.693 -1.0496  0.6173 -0.5310
88097SOL     OW82282  12.158   7.162  12.253 -0.1102  0.1418  0.2713
88097SOL    HW182283  12.130   7.071  12.256 -4.5193  1.1046 -1.9935
88097SOL    HW282284  12.077   7.212  12.266  1.4432  3.6305 -1.9389
88098SOL     OW82285   3.145   6.043   8.152  0.0909  0.3494  0.1580
88098SOL    HW182286   3.121   5.968   8.208  0.8521 -1.3124 -1.6364
88098SOL    HW282287   3.177   6.109   8.214 -2.6516  0.1215  2.0283
88099SOL     OW82288   0.613  13.284   0.102  0.1202  0.2217 -0.5625
88099SOL    HW182289   0.640  13.324   0.019  0.6506  0.6957 -0.1714
88099SOL    HW282290   0.694  13.268   0.148 -0.0911 -1.2762 -0.6716
88100SOL     OW82291   0.736  11.126   7.276 -0.0444  0.1383 -0.3710
88100SOL    HW182292   0.673  11.056   7.292 -0.1444  0.1279 -0.7863
88100SOL    HW282293   0.729  11.144   7.182  0.6571  0.0559 -0.4487
88101SOL     OW82294   3.452   6.263   6.681  0.4358 -0.3459 -0.0130
88101SOL    HW182295   3.510   6.254   6.605  0.8561  0.8359  0.1539
88101SOL    HW282296   3.453   6.356   6.701 -2.1156 -0.1422 -0.4698
88102SOL     OW82297   1.756  10.895  12.101  0.0064  0.3604 -0.4684
88102SOL    HW182298   1.762  10.984  12.067 -1.2557  0.7321  0.2295
88102SOL    HW282299   1.665  10.886  12.130 -0.6160 -1.9953 -2.7378
88103SOL     OW82300  10.362   6.305  12.219  0.5805 -0.2479  0.3555
88103SOL    HW182301  10.351   6.395  12.187 -1.1720  0.0670  1.6651
88103SOL    HW282302  10.402   6.258  12.146 -1.5024  0.8496 -1.6053
88104SOL     OW82303   9.699  12.554   5.379 -0.1198 -0.8641 -0.2714
88104SOL    HW182304   9.609  12.527   5.396 -0.5113 -0.7290 -1.9767
88104SOL    HW282305   9.747  12.471   5.368  0.2199 -0.9692  1.6214
88105SOL     OW82306   2.007   0.656   0.991 -0.3540 -0.8143 -0.4822
88105SOL    HW182307   2.026   0.749   0.974 -0.6476 -0.1974  2.1047
88105SOL    HW282308   1.967   0.624   0.910 -0.0744  1.2547 -1.5078
88106SOL     OW82309   0.578   8.761  10.867 -0.0133 -0.5377  0.1034
88106SOL    HW182310   0.564   8.766  10.772 -0.5837 -0.8638  0.1628
88106SOL    HW282311   0.664   8.799  10.881  0.8442 -2.0681 -0.7458
88107SOL     OW82312   4.352  12.160   9.408  0.4195  0.2313 -0.1452
88107SOL    HW182313   4.281  12.191   9.464 -0.4480 -1.9663  0.0769
88107SOL    HW282314   4.425  12.147   9.467  0.4157  0.6427 -0.0439
88108SOL     OW82315   6.560   5.513   8.183  0.1605  0.2315 -0.0423
88108SOL    HW182316   6.570   5.532   8.090 -0.1540  0.5630 -0.0108
88108SOL    HW282317   6.630   5.563   8.225 -0.3065  0.8697 -0.0135
88109SOL     OW82318   6.977   5.425   8.403  0.1917 -0.0427  0.1186
88109SOL    HW182319   7.040   5.484   8.362  1.0418  0.1338  1.6260
88109SOL    HW282320   6.968   5.353   8.340  1.3814  0.2590 -0.4260
88110SOL     OW82321   7.361   3.733   7.200 -0.1995  0.5722 -0.0562
88110SOL    HW182322   7.397   3.662   7.146 -0.1187 -0.5587  1.4052
88110SOL    HW282323   7.270   3.739   7.174 -0.3727 -0.5405  0.2219
88111SOL     OW82324   4.116   1.993  12.095 -0.4441  0.1564 -0.1111
88111SOL    HW182325   4.043   2.043  12.131 -0.1803  1.4679 -1.3123
88111SOL    HW282326   4.133   2.034  12.010 -0.9231 -2.6583 -1.7044
88112SOL     OW82327  11.260   2.363   1.205 -0.4806 -0.1484 -0.2732
88112SOL    HW182328  11.230   2.306   1.135  1.8423  0.0147 -1.4981
88112SOL    HW282329  11.355   2.350   1.208  0.1590  3.4137 -0.4585
88113SOL     OW82330  11.446   4.003   4.643  0.1188  0.1883  0.4046
88113SOL    HW182331  11.533   4.032   4.670  0.9556 -1.9134  0.1313
88113SOL    HW282332  11.428   4.052   4.563  1.5498 -0.1641 -0.1503
88114SOL     OW82333   7.381  10.456   4.196 -0.2300  0.1044 -0.2082
88114SOL    HW182334   7.305  10.445   4.253  0.8373 -1.1055  1.0435
88114SOL    HW282335   7.368  10.391   4.127 -1.5828  1.6508 -1.5321
88115SOL     OW82336  12.499   6.395   8.183 -0.0987 -0.3370  0.3232
88115SOL    HW182337  12.432   6.373   8.118  1.9281  0.0883 -2.0664
88115SOL    HW282338  12.579   6.406   8.132  1.5584  0.4243  2.8948
88116SOL     OW82339  10.202   9.717  10.754 -0.5643  0.4461  0.1019
88116SOL    HW182340  10.273   9.744  10.695 -0.9601 -2.0030 -1.6368
88116SOL    HW282341  10.122   9.740  10.707 -1.0044  2.8128  1.8734
88117SOL     OW82342   5.436   4.365   6.605  0.3552 -0.4239  0.0391
88117SOL    HW182343   5.504   4.395   6.545  0.1228  1.8908  0.8098
88117SOL    HW282344   5.472   4.383   6.692 -0.9780  0.3505  0.4628
88118SOL     OW82345  11.924   3.949  10.768  0.6262 -0.4943  0.1450
88118SOL    HW182346  11.842   3.918  10.806 -2.0232  1.6180 -3.2081
88118SOL    HW282347  11.958   3.875  10.718  0.5131 -1.2167  1.1130
88119SOL     OW82348   2.404   7.170  10.568  0.3411 -0.0890  0.0708
88119SOL    HW182349   2.321   7.180  10.613  0.4568  1.9674 -0.0817
88119SOL    HW282350   2.382   7.179  10.475  0.6442 -0.2511 -0.0186
88120SOL     OW82351  10.326   0.917   5.929  0.3443 -0.0860  0.4712
88120SOL    HW182352  10.401   0.870   5.893  0.1600  0.6066 -0.8860
88120SOL    HW282353  10.346   0.927   6.022  1.6372 -0.4618  0.2489
88121SOL     OW82354   0.086   8.069   0.172 -0.0110 -0.0063  0.3048
88121SOL    HW182355   0.100   8.163   0.158 -0.9154  0.0002 -0.7186
88121SOL    HW282356  -0.008   8.062   0.189  0.2449 -0.6106  1.5159
88122SOL     OW82357  12.094  11.125   5.270  0.0303 -0.0781  0.3410
88122SOL    HW182358  12.044  11.101   5.348  0.3633 -0.1886  0.5225
88122SOL    HW282359  12.176  11.159   5.304 -0.2442  0.8832  0.0694
88123SOL     OW82360   5.815   0.507   6.783 -0.0297  0.2586 -0.4262
88123SOL    HW182361   5.768   0.444   6.728  2.2043 -0.6119 -1.4666
88123SOL    HW282362   5.885   0.455   6.823 -1.0401  1.0778  2.6155
88124SOL     OW82363   7.053   1.821   4.224 -0.1929 -0.6539 -0.7819
88124SOL    HW182364   7.061   1.749   4.161  0.6292 -2.1440  0.9313
88124SOL    HW282365   6.978   1.796   4.279  0.0376 -0.1687 -0.2320
88125SOL     OW82366  10.784   3.448   6.155  0.2021  0.0141 -0.3030
88125SOL    HW182367  10.836   3.393   6.096  0.3954 -2.3789  1.8952
88125SOL    HW282368  10.830   3.441   6.239 -1.5502  1.0298  0.7792
88126SOL     OW82369   7.746   2.319   7.974 -0.1419 -0.0637 -0.2236
88126SOL    HW182370   7.805   2.244   7.966  1.3077  1.1180 -1.3631
88126SOL    HW282371   7.790   2.377   8.037  0.1465  0.9807 -1.3336
88127SOL     OW82372   1.418   1.727   9.382  0.0187  0.1853 -0.5950
88127SOL    HW182373   1.458   1.810   9.358  1.6172 -0.5595 -0.6595
88127SOL    HW282374   1.475   1.661   9.343 -0.2205 -0.9713  0.9456
88128SOL     OW82375  10.104   4.497  10.310 -0.3128 -0.7456  0.2221
88128SOL    HW182376  10.109   4.558  10.236 -0.0149 -0.4350  0.4939
88128SOL    HW282377  10.195   4.489  10.340 -0.1841 -2.1403 -0.4633
88129SOL     OW82378   9.810   0.529   1.092 -0.0191  0.7239 -0.0213
88129SOL    HW182379   9.806   0.581   1.012  0.4669  1.2196  0.2714
88129SOL    HW282380   9.831   0.592   1.161 -1.5472  0.5039  0.6876
88130SOL     OW82381   1.328   3.151   5.049 -0.3732 -0.0871 -0.4491
88130SOL    HW182382   1.407   3.164   4.995 -0.4372 -1.8456 -1.0310
88130SOL    HW282383   1.268   3.104   4.991 -0.8580 -1.0634  0.8116
88131SOL     OW82384  12.220   2.779   2.412  0.1605 -0.1342  0.4699
88131SOL    HW182385  12.267   2.718   2.356  1.0297 -1.1354  2.2031
88131SOL    HW282386  12.185   2.845   2.352 -0.5575 -2.1332 -1.4414
88132SOL     OW82387   5.190   5.859   3.279  0.1599  0.6975  0.2434
88132SOL    HW182388   5.105   5.862   3.323 -1.2020 -1.2294 -2.0165
88132SOL    HW282389   5.197   5.769   3.248  1.4142  1.6942 -2.6214
88133SOL     OW82390   2.365   2.591   6.283 -0.1934  0.5359 -0.6569
88133SOL    HW182391   2.295   2.589   6.349 -0.5898  2.0130 -0.9935
88133SOL    HW282392   2.445   2.603   6.334 -0.2252 -0.6079 -0.3068
88134SOL     OW82393  12.767  10.847   5.587  0.1256  1.0276 -0.2909
88134SOL    HW182394  12.788  10.893   5.506  0.3752 -1.0046 -1.4548
88134SOL    HW282395  12.677  10.872   5.606 -0.6574  0.0252 -2.3678
88135SOL     OW82396  12.121   2.342   0.056  0.7282  0.1538  0.4665
88135SOL    HW182397  12.098   2.250   0.069 -0.5678  0.3953  0.0033
88135SOL    HW282398  12.211   2.340   0.024  0.7853 -0.9412  0.6689
88136SOL     OW82399   6.378  11.311   2.291  0.5206 -0.4489 -0.4129
88136SOL    HW182400   6.344  11.285   2.376 -0.3167 -0.8542 -0.8512
88136SOL    HW282401   6.417  11.397   2.305 -1.1074  0.2486  0.0405
88137SOL     OW82402   7.804   5.155   8.595 -0.4201  0.0492 -0.1295
88137SOL    HW182403   7.835   5.065   8.590  1.7689  0.7195  0.3652
88137SOL    HW282404   7.835   5.187   8.680 -1.0908  1.3012 -0.3265
88138SOL     OW82405  12.191   4.903   2.381 -0.3034  0.0807 -0.0487
88138SOL    HW182406  12.127   4.886   2.312 -0.6237 -1.6377  0.6192
88138SOL    HW282407  12.259   4.955   2.339 -0.1752 -1.4491 -1.8325
88139SOL     OW82408  13.985   2.864   0.828  0.3919 -0.1688 -0.2392
88139SOL    HW182409  14.026   2.935   0.876 -1.1534  1.8485 -1.6977
88139SOL    HW282410  14.057   2.820   0.783  1.2519  1.5182 -0.5873
88140SOL     OW82411  13.360  10.067  14.027  0.4217  0.2359  0.1239
88140SOL    HW182412  13.407   9.992  13.990 -0.2224  0.4834 -1.2428
88140SOL    HW282413  13.374  10.059  14.122  2.4296 -0.2061 -0.1573
88141SOL     OW82414   5.364   4.526  13.858  0.1410  0.3192 -0.7483
88141SOL    HW182415   5.438   4.585  13.873  1.1784 -1.0704 -0.0813
88141SOL    HW282416   5.405   4.445  13.827 -1.0240 -0.7587  0.4422
88142SOL     OW82417  10.966   7.414  10.797  0.1239 -0.2185  0.5226
88142SOL    HW182418  11.017   7.426  10.717 -0.3751 -0.5540  0.1495
88142SOL    HW282419  10.937   7.502  10.820  2.5733  0.3249  1.9130
88143SOL     OW82420  11.679   8.380   4.378 -0.3301  0.2662 -0.7113
88143SOL    HW182421  11.734   8.443   4.423  1.3694 -0.3509 -1.8258
88143SOL    HW282422  11.730   8.299   4.379 -1.6939 -0.6302 -0.8662
88144SOL     OW82423  12.804  11.458   6.030  0.4724  0.2253 -0.0963
88144SOL    HW182424  12.764  11.493   6.110 -0.2621  2.7321 -1.4489
88144SOL    HW282425  12.868  11.524   6.005  1.3596 -0.9781 -1.1125
88145SOL     OW82426   1.715   0.615   5.035 -0.2802  0.3906  0.4996
88145SOL    HW182427   1.750   0.543   4.983 -0.7530  0.6128 -0.1439
88145SOL    HW282428   1.653   0.659   4.977  0.5042  1.7275  0.6301
88146SOL     OW82429   0.253   7.207   1.999 -0.0636 -0.3383  0.2261
88146SOL    HW182430   0.205   7.241   2.075  1.4939  0.0081  1.0834
88146SOL    HW282431   0.192   7.145   1.959 -0.7744 -0.8664  2.0139
88147SOL     OW82432   9.493   1.186  10.310  0.2847  0.1496 -0.3176
88147SOL    HW182433   9.537   1.247  10.252  1.1005 -1.7394 -1.7960
88147SOL    HW282434   9.561   1.157  10.371 -0.0044  0.4025  0.1361
88148SOL     OW82435  12.732   9.149   9.320  0.6237  0.7742  0.8491
88148SOL    HW182436  12.808   9.175   9.372  2.1487  0.0967 -0.9191
88148SOL    HW282437  12.751   9.181   9.232 -1.1008  0.4656  0.3286
88149SOL     OW82438   5.145  12.088  13.403 -0.3286 -0.0621 -0.1244
88149SOL    HW182439   5.200  12.015  13.376 -0.3299 -0.1363  0.0714
88149SOL    HW282440   5.058  12.050  13.415 -0.3896  0.0243 -0.2798
88150SOL     OW82441   5.882   9.214   2.392  0.1692  0.5052 -0.4651
88150SOL    HW182442   5.870   9.126   2.429 -0.1295  0.8684  0.3160
88150SOL    HW282443   5.809   9.224   2.331 -0.9136  0.9137  0.8373
88151SOL     OW82444  12.297   2.743  13.638  0.4712  0.2399  0.2194
88151SOL    HW182445  12.337   2.657  13.624 -0.1511 -0.0468  0.1505
88151SOL    HW282446  12.216   2.724  13.686  1.0542  0.9278  1.5268
88152SOL     OW82447  10.986  13.398   4.917 -0.3781  0.6971 -0.6048
88152SOL    HW182448  10.897  13.412   4.948 -0.4502  0.0575 -0.5023
88152SOL    HW282449  10.985  13.429   4.826 -0.3264  2.0045 -0.1806
88153SOL     OW82450  10.457  10.501  13.871  0.2655 -0.0024 -0.1077
88153SOL    HW182451  10.485  10.470  13.957  1.7695 -0.9135 -0.8752
88153SOL    HW282452  10.383  10.445  13.848  1.4175 -1.4916 -0.4207
88154SOL     OW82453   2.575   1.963  11.035 -0.6274  0.5858  0.0668
88154SOL    HW182454   2.497   1.944  10.982 -0.8713  1.0368  0.2597
88154SOL    HW282455   2.603   2.049  11.006 -1.1167  1.1027  1.0794
88155SOL     OW82456   5.586  10.838   0.439 -0.1383  0.0249 -0.3856
88155SOL    HW182457   5.572  10.932   0.452 -2.0002 -0.3556  0.6682
88155SOL    HW282458   5.514  10.810   0.383 -0.4989 -1.0410  0.5845
88156SOL     OW82459   3.787   9.867   1.369  0.0227  0.3498 -0.1503
88156SOL    HW182460   3.773   9.833   1.281 -2.0596 -0.2418  0.3412
88156SOL    HW282461   3.699   9.868   1.409  0.6716  1.9916  1.4246
88157SOL     OW82462   5.404   6.796   9.801  0.1132  0.2193  0.3020
88157SOL    HW182463   5.332   6.859   9.807 -0.6437 -0.7007  1.3196
88157SOL    HW282464   5.478   6.847   9.769 -0.7764  1.3703  0.0125
88158SOL     OW82465   1.129   0.966   8.198  0.4490  0.3362 -0.1682
88158SOL    HW182466   1.104   0.947   8.289  0.3734  0.8459 -0.0822
88158SOL    HW282467   1.202   0.907   8.181  1.7523  1.5917  0.8625
88159SOL     OW82468   1.585   8.763   9.634 -0.1463  0.0797 -0.3977
88159SOL    HW182469   1.578   8.780   9.540 -1.3874  0.0640 -0.3315
88159SOL    HW282470   1.598   8.669   9.641 -1.9089 -0.2185 -0.5335
88160SOL     OW82471   3.782   6.756   0.502 -0.8101 -0.2125  0.4681
88160SOL    HW182472   3.794   6.707   0.584 -0.5307  1.6638  1.6169
88160SOL    HW282473   3.829   6.705   0.436  1.0425 -0.5406  1.9677
88161SOL     OW82474  11.126   9.891  10.523 -0.3410  0.1472 -0.2262
88161SOL    HW182475  11.205   9.837  10.514  0.5144  1.1077  1.1659
88161SOL    HW282476  11.122   9.941  10.442  0.3860 -0.0257 -0.3740
88162SOL     OW82477   4.611   4.353   7.800 -0.0349 -0.2398 -0.2537
88162SOL    HW182478   4.580   4.435   7.763 -0.9497 -0.0846  0.8137
88162SOL    HW282479   4.613   4.292   7.726 -0.5576  0.4024 -0.8098
88163SOL     OW82480   7.610  10.942  12.991 -0.3060 -0.0757 -0.0829
88163SOL    HW182481   7.569  10.902  13.067  2.8781  0.3798  2.0427
88163SOL    HW282482   7.693  10.895  12.980  1.8002  3.2574  0.1549
88164SOL     OW82483   0.551   4.864   5.726  0.3533  0.1822  0.3816
88164SOL    HW182484   0.606   4.910   5.790  0.5555  0.1299  0.2473
88164SOL    HW282485   0.547   4.923   5.651 -3.2100  2.1391  1.8938
88165SOL     OW82486   5.951   6.784   6.377 -0.2586 -0.2078 -0.4679
88165SOL    HW182487   5.857   6.765   6.375 -0.4061  0.5657 -1.8862
88165SOL    HW282488   5.966   6.840   6.301  1.0876  0.9500  0.5933
88166SOL     OW82489   8.649   5.317   5.668  0.1401  0.4433 -0.0538
88166SOL    HW182490   8.701   5.287   5.594  2.4905 -0.4597  1.8403
88166SOL    HW282491   8.671   5.410   5.677 -1.1726  0.9007 -1.2192
88167SOL     OW82492  12.162  13.296   2.486  0.0847 -0.0734  0.3130
88167SOL    HW182493  12.086  13.330   2.439  0.2493  1.3948  1.0427
88167SOL    HW282494  12.178  13.210   2.447  0.1427  1.0019 -2.2420
88168SOL     OW82495   1.403   2.391   8.933  0.2052 -0.6837 -0.3835
88168SOL    HW182496   1.420   2.314   8.987  0.1543 -0.5937 -0.2403
88168SOL    HW282497   1.410   2.359   8.843  1.4393 -0.5871 -0.3334
88169SOL     OW82498   4.110   5.286   3.650 -0.1732  0.4476  0.4025
88169SOL    HW182499   4.206   5.285   3.648 -0.1911  0.4802 -1.4195
88169SOL    HW282500   4.087   5.379   3.652 -0.1817  0.4390  0.9298
88170SOL     OW82501   4.803  11.311   6.123  0.7923  0.2207  0.8461
88170SOL    HW182502   4.710  11.288   6.120  1.2020 -1.4110 -0.2248
88170SOL    HW282503   4.834  11.272   6.204  1.1287 -1.7138 -0.1748
88171SOL     OW82504   4.502  10.391   0.892  0.6372 -0.0778  0.5262
88171SOL    HW182505   4.496  10.312   0.946 -1.5797  0.1927  0.7725
88171SOL    HW282506   4.494  10.463   0.955 -0.9764  0.2546 -0.0207
88172SOL     OW82507   7.348  12.559  12.034 -0.6003 -0.0279  0.2421
88172SOL    HW182508   7.325  12.500  12.106  1.8172 -1.1863  0.1657
88172SOL    HW282509   7.442  12.574  12.045 -0.1249 -0.2903 -2.6750
88173SOL     OW82510   8.721   1.123   8.087 -0.2578  0.4164 -0.3028
88173SOL    HW182511   8.733   1.167   8.003  0.5388  0.0011 -0.4131
88173SOL    HW282512   8.725   1.030   8.066  0.3919  0.3113  0.2596
88174SOL     OW82513  11.654  12.098   2.238  0.1187  0.2259  0.4541
88174SOL    HW182514  11.627  12.111   2.329  2.4899 -0.5556  1.3386
88174SOL    HW282515  11.673  12.004   2.232 -1.5909 -0.0631 -1.3575
88175SOL     OW82516   3.779  11.715   2.973  0.4407  0.2837 -0.4407
88175SOL    HW182517   3.753  11.711   2.881  0.0863 -0.3622 -0.3185
88175SOL    HW282518   3.830  11.796   2.980  1.5092 -0.2654 -1.4653
88176SOL     OW82519   0.207   5.717  11.242  0.2229 -0.2813  0.2175
88176SOL    HW182520   0.168   5.640  11.200  1.5799 -0.7439 -0.2459
88176SOL    HW282521   0.245   5.684  11.323  0.2921  0.0128  0.3058
88177SOL     OW82522   0.518   0.998   7.044 -0.3786  0.3756  0.1455
88177SOL    HW182523   0.467   0.919   7.061 -1.0547  0.8916  0.5795
88177SOL    HW282524   0.522   1.043   7.128  1.2340  0.1134  0.2348
88178SOL     OW82525   0.873   9.291   9.745  0.1937  0.0685  0.3860
88178SOL    HW182526   0.892   9.332   9.829  0.6806 -0.4956  0.5546
88178SOL    HW282527   0.955   9.248   9.720 -0.0788 -0.1391 -0.1649
88179SOL     OW82528   1.549   3.156  11.005  0.3248  0.3866  0.1899
88179SOL    HW182529   1.576   3.200  11.087 -0.5739 -0.3195  0.8856
88179SOL    HW282530   1.459   3.184  10.992 -0.3733 -1.4333  0.8008
88180SOL     OW82531   8.885   2.280  10.091 -0.0388 -0.1179  0.1942
88180SOL    HW182532   8.881   2.279  10.187 -1.1183 -0.9507  0.1561
88180SOL    HW282533   8.924   2.365  10.070 -0.3872  0.3545  1.3546
88181SOL     OW82534  11.210   8.416   9.577  0.3556 -0.5540  0.3171
88181SOL    HW182535  11.145   8.381   9.638 -0.7763 -0.6850 -0.9180
88181SOL    HW282536  11.231   8.342   9.519 -1.1194  0.3817 -1.5309
88182SOL     OW82537   8.873   3.278   0.586 -0.2266 -0.3352  0.3180
88182SOL    HW182538   8.832   3.349   0.537  0.9066 -1.7416 -3.0133
88182SOL    HW282539   8.800   3.222   0.613 -0.8585 -0.9722 -2.4039
88183SOL     OW82540   2.360   7.209  14.044  0.2263 -0.0721 -0.3933
88183SOL    HW182541   2.402   7.158  13.975  1.3253 -1.4780  1.2126
88183SOL    HW282542   2.430   7.225  14.107 -0.7342  1.1734  0.3933
88184SOL     OW82543   5.146  11.358   6.531  0.2423  0.4247 -0.4058
88184SOL    HW182544   5.151  11.264   6.516 -0.1299  0.4105 -0.4589
88184SOL    HW282545   5.054  11.374   6.553  0.4673  0.6608  0.4085
88185SOL     OW82546   9.604   5.803   2.533  0.2383 -0.0569  0.0492
88185SOL    HW182547   9.642   5.778   2.449 -0.9211  1.0208 -0.8530
88185SOL    HW282548   9.644   5.888   2.554 -0.3013  0.2210 -0.0085
88186SOL     OW82549   0.198  12.980   7.945 -0.5515  0.2902  0.1981
88186SOL    HW182550   0.181  13.023   8.028  0.8763  0.1350  0.5991
88186SOL    HW282551   0.111  12.957   7.911 -1.1728  0.8376  1.3741
88187SOL     OW82552   6.939   3.540   3.533  0.2031 -0.3689  0.0473
88187SOL    HW182553   6.863   3.504   3.486  1.4444 -1.2852 -1.3331
88187SOL    HW282554   6.926   3.513   3.624 -0.0236 -2.4755 -0.5596
88188SOL     OW82555   4.524  10.048   4.022  0.3418 -0.0494 -0.0849
88188SOL    HW182556   4.485  10.135   4.014 -1.6585 -0.9386 -0.6640
88188SOL    HW282557   4.503  10.005   3.939 -0.0969 -1.5929  0.7863
88189SOL     OW82558   7.010   5.315  11.958  0.5536  0.2624  0.1284
88189SOL    HW182559   7.092   5.312  11.909  0.2604 -0.3010 -0.3346
88189SOL    HW282560   6.976   5.403  11.944  1.5175  0.8030  1.0551
88190SOL     OW82561   1.140  10.506   5.365 -0.6029 -0.1707  0.0080
88190SOL    HW182562   1.165  10.498   5.273 -3.1748 -0.4904 -0.7458
88190SOL    HW282563   1.111  10.418   5.389  0.2019 -0.1279  1.1940
88191SOL     OW82564   8.514  11.712  11.855  0.3753  0.6440  0.0952
88191SOL    HW182565   8.468  11.782  11.901 -0.8412  1.7037 -2.5996
88191SOL    HW282566   8.564  11.756  11.787  0.7050 -0.9957 -0.7731
88192SOL     OW82567  10.924   8.964  13.081  0.0277 -0.0827 -0.5379
88192SOL    HW182568  10.972   8.882  13.091  2.7866  1.6296  2.3855
88192SOL    HW282569  10.843   8.951  13.130  0.1482 -1.2333 -0.6255
88193SOL     OW82570  10.921   4.256  13.857 -0.0076  0.4727 -0.7080
88193SOL    HW182571  10.889   4.251  13.947 -1.2789  1.0069 -1.1077
88193SOL    HW282572  10.889   4.175  13.816  0.9937 -0.0079 -0.5619
88194SOL     OW82573  12.383   7.933  12.925 -0.6334 -0.4913 -0.3067
88194SOL    HW182574  12.303   7.972  12.891 -0.7193  0.5557  1.0136
88194SOL    HW282575  12.450   8.000  12.911 -0.2367 -0.8885 -0.3270
88195SOL     OW82576  10.337   6.610   6.285 -0.7825 -0.1962  0.6541
88195SOL    HW182577  10.299   6.640   6.203 -0.2112  0.1798  0.5232
88195SOL    HW282578  10.334   6.515   6.279  0.8673 -0.2153 -0.5823
88196SOL     OW82579  11.872   9.926  13.072 -0.3401  0.0516 -0.3096
88196SOL    HW182580  11.793   9.979  13.082  0.5685  1.0730  2.7734
88196SOL    HW282581  11.943   9.986  13.095  1.2807 -1.1343 -1.9292
88197SOL     OW82582  11.773   3.169   8.418 -0.1740 -0.4272 -0.7547
88197SOL    HW182583  11.684   3.160   8.383 -0.3205  1.2388 -0.8826
88197SOL    HW282584  11.767   3.133   8.507  0.0612 -4.1359 -2.0464
88198SOL     OW82585   1.328  13.135   0.382 -0.4951  0.0073  0.5770
88198SOL    HW182586   1.330  13.044   0.411 -1.8670 -0.4122 -0.5676
88198SOL    HW282587   1.382  13.181   0.446 -0.9221 -1.3763  2.0068
88199SOL     OW82588   8.848   5.366   9.419  0.0586  0.6462  0.1872
88199SOL    HW182589   8.907   5.333   9.351 -0.9437  0.3159 -0.5497
88199SOL    HW282590   8.865   5.460   9.423  0.6594  0.5462  0.0223
88200SOL     OW82591   8.063   8.406   9.868  0.7737 -0.7395 -0.3486
88200SOL    HW182592   8.021   8.463   9.803  0.7482 -2.8171 -2.2638
88200SOL    HW282593   8.157   8.415   9.852  0.9496  0.9187  1.3183
88201SOL     OW82594   2.871  13.255   3.477 -0.5811  0.0265 -0.0081
88201SOL    HW182595   2.793  13.199   3.477 -0.4726 -0.1236 -0.0644
88201SOL    HW282596   2.856  13.317   3.406 -1.5636  1.2648  1.2153
88202SOL     OW82597   2.653  10.155   3.878 -0.1378 -0.2768  0.0280
88202SOL    HW182598   2.734  10.202   3.893 -0.6214  0.8900 -0.8711
88202SOL    HW282599   2.677  10.081   3.822 -0.0528  1.4866 -2.3762
88203SOL     OW82600  13.813   0.087   0.100 -0.0569 -0.1663  1.0655
88203SOL    HW182601  13.849   0.091   0.188  0.9280 -0.1498  0.6654
88203SOL    HW282602  13.880   0.042   0.048  0.2052  1.4811 -0.0872
88204SOL     OW82603   7.789   7.898   7.399 -0.1618 -0.3555 -0.1588
88204SOL    HW182604   7.773   7.897   7.304  0.7134 -1.3279 -0.3165
88204SOL    HW282605   7.884   7.896   7.407 -0.2146 -2.6033  0.7162
88205SOL     OW82606   3.149  13.814   5.324 -0.3413  0.0974 -0.1725
88205SOL    HW182607   3.109  13.823   5.411 -0.5815  0.3968 -0.3153
88205SOL    HW282608   3.179  13.902   5.302  0.5086 -0.1432 -0.0161
88206SOL     OW82609   3.044  12.595   5.758  0.3221 -0.2651  0.1929
88206SOL    HW182610   3.019  12.675   5.804  0.0565 -0.3235  0.1572
88206SOL    HW282611   3.090  12.626   5.680 -1.2202 -0.0679 -0.6882
88207SOL     OW82612  12.684   1.199   1.632  0.2801 -0.4295  0.2095
88207SOL    HW182613  12.698   1.138   1.560  0.0259 -0.6788  0.3716
88207SOL    HW282614  12.772   1.214   1.668  0.6881  1.0738 -1.2543
88208SOL     OW82615  10.877   8.344   5.559  0.4238  0.1321 -0.3712
88208SOL    HW182616  10.963   8.316   5.530  1.5661  1.0912  1.8852
88208SOL    HW282617  10.818   8.273   5.534  1.7399 -0.3294 -2.3670
88209SOL     OW82618   0.973   4.483  12.714 -0.1279  0.0201  0.6366
88209SOL    HW182619   0.896   4.435  12.684  0.0572  0.6162 -0.8667
88209SOL    HW282620   0.950   4.513  12.802 -0.6531 -1.8757  1.1982
88210SOL     OW82621   9.762  13.647   3.299 -0.0768  0.3310 -0.3499
88210SOL    HW182622   9.839  13.626   3.351 -0.8919  1.7239  1.5465
88210SOL    HW282623   9.714  13.564   3.294 -0.8184  0.4554  2.7239
88211SOL     OW82624   9.975   0.792   1.972  0.2462 -0.3726 -0.6588
88211SOL    HW182625   9.881   0.808   1.976  0.6293  2.8369 -1.6458
88211SOL    HW282626   9.988   0.741   1.892 -0.5353  0.3674 -1.2597
88212SOL     OW82627   9.383   2.563  12.623 -0.4435 -0.4602 -0.2584
88212SOL    HW182628   9.425   2.513  12.553  0.5267  0.0434 -0.0471
88212SOL    HW282629   9.290   2.561  12.601 -0.0668  0.6113 -2.1836
88213SOL     OW82630   3.752   5.244  10.590  0.1332  0.1618 -0.5093
88213SOL    HW182631   3.726   5.317  10.646  0.3155 -1.1441  1.3793
88213SOL    HW282632   3.826   5.278  10.540  0.5123  1.1689  0.6590
88214SOL     OW82633   1.874   2.306   8.580  0.1701  0.0885  0.1385
88214SOL    HW182634   1.946   2.270   8.631  0.2800  2.2673  1.6187
88214SOL    HW282635   1.820   2.230   8.558  0.3600 -1.0345  3.1254
88215SOL     OW82636   5.987   8.901   4.829  0.0614 -0.9708  0.6283
88215SOL    HW182637   5.993   8.935   4.740 -1.4978 -0.5825  0.6343
88215SOL    HW282638   6.077   8.886   4.856  0.5763 -0.5888 -0.8239
88216SOL     OW82639   2.326  14.086  12.292  0.1587 -0.4716 -0.2753
88216SOL    HW182640   2.365  14.031  12.223  0.8857 -1.1770  0.6826
88216SOL    HW282641   2.398  14.108  12.350 -0.3629  0.5099  0.0277
88217SOL     OW82642   6.081   1.438   8.686  1.1871  0.3253  0.2294
88217SOL    HW182643   6.023   1.439   8.762 -0.8942  1.5547 -1.2892
88217SOL    HW282644   6.127   1.521   8.690 -0.1914  1.1673 -0.7270
88218SOL     OW82645   8.007  13.750   4.909  0.3211 -0.2246  0.1960
88218SOL    HW182646   7.955  13.820   4.947 -2.1640 -0.8354 -1.8011
88218SOL    HW282647   8.032  13.695   4.983 -0.6889  0.8653  1.3768
88219SOL     OW82648  12.483   1.972  12.009 -0.0312  0.2587  0.3750
88219SOL    HW182649  12.507   1.932  12.093 -0.4745  0.2879  0.5206
88219SOL    HW282650  12.388   1.985  12.015  0.2170  2.1802  0.6944
88220SOL     OW82651   3.194  12.044   6.866 -0.0543 -0.6721  0.4569
88220SOL    HW182652   3.170  11.953   6.848 -0.1608 -0.5537 -0.0037
88220SOL    HW282653   3.139  12.069   6.941  0.2187 -1.0907  0.8019
88221SOL     OW82654   2.261   5.364   1.465  0.3747  0.4067 -0.1078
88221SOL    HW182655   2.218   5.294   1.416  0.3697 -0.6732  1.3594
88221SOL    HW282656   2.290   5.322   1.546 -1.3183  2.4695  1.7338
88222SOL     OW82657   0.121  13.384  11.351 -0.0625  0.6349  0.3066
88222SOL    HW182658   0.160  13.461  11.310 -0.2819  0.7387  0.2912
88222SOL    HW282659   0.082  13.335  11.278  0.3492  0.3481  0.2756
88223SOL     OW82660  12.696   2.491   8.333 -1.0184  0.2473  0.1625
88223SOL    HW182661  12.613   2.509   8.290  0.4308  2.7299 -1.8947
88223SOL    HW282662  12.751   2.454   8.264 -0.6114 -2.3964  1.7455
88224SOL     OW82663   4.584   7.392  12.075 -0.2531  0.4196 -0.4685
88224SOL    HW182664   4.614   7.381  12.165 -1.3910  0.7411 -0.0395
88224SOL    HW282665   4.600   7.485  12.055  1.5280  0.0078 -1.1971
88225SOL     OW82666   9.743   7.222   4.047  0.4459  0.3487  0.2524
88225SOL    HW182667   9.692   7.303   4.047 -0.7025 -0.3393  1.4685
88225SOL    HW282668   9.699   7.165   4.110 -0.4813 -2.3261 -2.5429
88226SOL     OW82669  10.840  12.057  12.489 -0.1114  0.1925  0.0132
88226SOL    HW182670  10.767  12.035  12.432  0.4502  0.1339 -0.7034
88226SOL    HW282671  10.826  12.149  12.512 -0.4754  0.1450 -0.0149
88227SOL     OW82672   8.593   5.628  13.369  0.4233 -0.0518  0.1254
88227SOL    HW182673   8.553   5.558  13.318  0.6149  0.6194 -0.9625
88227SOL    HW282674   8.529   5.648  13.437 -0.6515  0.2984 -0.9571
88228SOL     OW82675   8.244   8.495   5.863 -0.4671  0.0513  0.1960
88228SOL    HW182676   8.323   8.530   5.821 -0.9551 -1.0107 -1.6858
88228SOL    HW282677   8.276   8.455   5.944  1.1641 -1.4558 -1.1209
88229SOL     OW82678   8.105  10.360   1.259 -0.1573  0.3852  0.5401
88229SOL    HW182679   8.114  10.365   1.164 -0.2374  1.8451  0.5864
88229SOL    HW282680   8.091  10.267   1.277 -1.3283  0.2346 -0.9756
88230SOL     OW82681   0.978  12.352   8.779 -0.2968  0.2908 -0.9509
88230SOL    HW182682   1.036  12.429   8.779  1.4329 -0.9572 -1.0374
88230SOL    HW282683   0.919  12.367   8.704  0.9032  0.9187 -1.8052
88231SOL     OW82684   2.443   5.896   6.596  0.1257 -0.0566 -0.0958
88231SOL    HW182685   2.484   5.898   6.683  0.5451 -0.0835 -0.2861
88231SOL    HW282686   2.482   5.970   6.549 -1.0965  0.7754  0.1645
88232SOL     OW82687   7.720  12.101   1.026  0.0047  0.3809 -0.0399
88232SOL    HW182688   7.777  12.091   0.949  1.6203  0.5300  1.0845
88232SOL    HW282689   7.708  12.011   1.058  0.1460  0.4075  0.0882
88233SOL     OW82690   4.097   0.720  10.559 -0.7440  0.0228  0.0960
88233SOL    HW182691   4.045   0.799  10.543 -0.4386 -0.1352 -2.0892
88233SOL    HW282692   4.110   0.682  10.471  2.2293 -0.4387  0.6146
88234SOL     OW82693   0.110   2.407   5.944 -0.0220  0.4513  0.6178
88234SOL    HW182694   0.150   2.488   5.912  0.0373  0.5256  0.8769
88234SOL    HW282695   0.022   2.406   5.905  0.1844  0.3510  0.1506
88235SOL     OW82696  12.963  10.725   0.299  0.2691  0.4678 -0.0565
88235SOL    HW182697  12.951  10.799   0.359  0.6335  0.7164 -0.2886
88235SOL    HW282698  12.969  10.765   0.212  2.3264  0.3611 -0.0226
88236SOL     OW82699  12.005  10.308  11.565 -0.1065 -0.4615  0.3725
88236SOL    HW182700  12.069  10.348  11.507  0.1630  0.3262  1.1890
88236SOL    HW282701  11.964  10.381  11.611  0.6314 -1.0916  2.1424
88237SOL     OW82702  13.251  13.545   1.717 -0.4292 -0.2751  0.0159
88237SOL    HW182703  13.163  13.574   1.741  0.2922  1.3192  0.9555
88237SOL    HW282704  13.249  13.538   1.622 -1.4239  0.3098 -0.0173
88238SOL     OW82705  11.109   8.918   0.662  0.5159  0.0758 -0.3930
88238SOL    HW182706  11.089   8.959   0.746 -0.1506 -0.7422 -0.1461
88238SOL    HW282707  11.198   8.884   0.672  0.6179  0.4028 -0.1902
88239SOL     OW82708   9.909  10.453   0.830 -0.0586  0.5653  0.4601
88239SOL    HW182709   9.855  10.445   0.909  0.9830 -1.1412  1.0481
88239SOL    HW282710   9.846  10.457   0.758 -1.0110  1.3016  1.3024
88240SOL     OW82711   8.643  12.020   1.869 -0.0633  0.1089 -0.9307
88240SOL    HW182712   8.698  12.029   1.791 -0.1100  0.3280 -0.9396
88240SOL    HW282713   8.704  12.029   1.943 -0.1994  1.1765 -0.9323
88241SOL     OW82714  13.703  13.627   9.382  0.5612 -0.1983 -0.1820
88241SOL    HW182715  13.618  13.603   9.345 -0.4461  1.2619  1.0435
88241SOL    HW282716  13.727  13.708   9.337  0.7644 -0.0182  0.2409
88242SOL     OW82717  13.395   3.045   6.614  0.7246  0.1852 -0.1047
88242SOL    HW182718  13.308   3.074   6.643  0.2408  2.3651 -3.2300
88242SOL    HW282719  13.399   2.953   6.641 -2.5543 -0.0010  0.2130
88243SOL     OW82720   9.812   6.412  10.088  0.2991 -0.2304  0.6377
88243SOL    HW182721   9.885   6.399  10.028  0.8034  1.4469  0.8422
88243SOL    HW282722   9.736   6.378  10.041  0.8276  0.2245 -0.5734
88244SOL     OW82723  13.057   6.163   5.205 -0.2263  0.5283  0.4666
88244SOL    HW182724  13.060   6.257   5.185 -2.2191  0.1461 -2.1645
88244SOL    HW282725  12.974   6.133   5.167  0.8116 -2.5003  0.3434
88245SOL     OW82726   6.589  12.004   0.621  0.1666  0.7251 -0.4684
88245SOL    HW182727   6.657  11.946   0.656  1.5239  0.3776 -3.3751
88245SOL    HW282728   6.535  11.948   0.566 -1.5956  1.3298  0.5659
88246SOL     OW82729   9.567   5.084   5.491  0.2321  0.6258 -0.4229
88246SOL    HW182730   9.560   5.134   5.572  0.6122 -0.6699  0.4287
88246SOL    HW282731   9.500   5.016   5.498  1.1449 -0.3188 -0.5789
88247SOL     OW82732   4.539   9.989   1.958 -0.6765 -0.4231  0.1373
88247SOL    HW182733   4.565  10.065   2.011 -2.2927  1.1630 -1.2028
88247SOL    HW282734   4.446  10.004   1.939 -0.7743 -2.2286 -1.0551
88248SOL     OW82735   5.140   4.814  13.079 -0.1577  0.3116  0.7121
88248SOL    HW182736   5.142   4.799  12.985 -2.6172  0.2491  0.6045
88248SOL    HW282737   5.077   4.886  13.091 -1.0819 -0.7079  2.3886
88249SOL     OW82738  13.627  12.088  10.305 -0.4294  0.4468  0.4121
88249SOL    HW182739  13.554  12.026  10.308 -0.8113  0.8868  0.2739
88249SOL    HW282740  13.701  12.039  10.340 -0.7503 -0.0582  0.3984
88250SOL     OW82741   4.847   1.481  11.729  0.3500 -0.0405 -0.3726
88250SOL    HW182742   4.822   1.538  11.802  0.8759 -0.6682  0.3152
88250SOL    HW282743   4.793   1.510  11.656 -1.2417 -0.3425  0.6343
88251SOL     OW82744  10.363   4.676   6.093  0.2453 -0.7053 -0.1134
88251SOL    HW182745  10.279   4.634   6.074  0.5774 -2.3462  1.8141
88251SOL    HW282746  10.428   4.618   6.053  0.5850 -0.7768  0.5342
88252SOL     OW82747  13.765   1.277   9.935 -0.2614 -0.0407  0.5435
88252SOL    HW182748  13.784   1.195   9.888  0.7017  0.0038  0.8256
88252SOL    HW282749  13.746   1.340   9.866 -0.4888 -0.3733  0.2952
88253SOL     OW82750   2.337  11.744   2.016  0.2737  0.7054 -0.4377
88253SOL    HW182751   2.329  11.837   2.040 -0.9986  0.6751 -0.6526
88253SOL    HW282752   2.315  11.697   2.096 -0.9011  0.6072 -0.7986
88254SOL     OW82753   5.460  10.435  10.341 -0.5460 -0.3060 -0.6305
88254SOL    HW182754   5.392  10.461  10.404 -0.3960 -1.2171 -0.0711
88254SOL    HW282755   5.541  10.470  10.377 -0.1225 -2.5873  0.8677
88255SOL     OW82756   2.952   2.572  10.995 -0.8667  0.3481 -0.5499
88255SOL    HW182757   2.859   2.584  11.017 -0.8996 -0.0376 -0.4739
88255SOL    HW282758   2.965   2.628  10.918 -1.2849  0.0429 -0.8549
88256SOL     OW82759  12.855   6.389  12.633  0.5866  0.2290 -0.0144
88256SOL    HW182760  12.826   6.303  12.661 -2.4948  1.5596  1.2996
88256SOL    HW282761  12.813   6.402  12.548 -2.6992  1.9867  1.6920
88257SOL     OW82762   6.664   6.713   8.702 -0.3554 -0.3608  0.3077
88257SOL    HW182763   6.619   6.634   8.671 -0.0247 -0.2372 -0.5006
88257SOL    HW282764   6.690   6.691   8.791 -1.8288 -0.5121  0.7400
88258SOL     OW82765   2.072  12.446   1.238 -0.4272  0.1793 -0.6092
88258SOL    HW182766   2.056  12.531   1.279  1.8374  1.0152 -1.3606
88258SOL    HW282767   2.162  12.425   1.260 -1.0103 -2.1936 -0.2328
88259SOL     OW82768   4.621   7.807  12.815 -0.6889 -0.4419  0.2963
88259SOL    HW182769   4.545   7.748  12.820 -0.9378 -0.5203 -2.5181
88259SOL    HW282770   4.626   7.831  12.722  1.2611  1.5605  0.8391
88260SOL     OW82771   1.662   3.624   9.928  0.5656 -0.1108 -0.1490
88260SOL    HW182772   1.622   3.709   9.948 -0.7272 -0.6814 -0.2169
88260SOL    HW282773   1.746   3.646   9.887  0.2323  1.1288 -0.2076
88261SOL     OW82774   5.128   8.012   2.140 -0.4240 -0.4080 -0.3792
88261SOL    HW182775   5.037   8.041   2.128 -0.9828 -1.9864 -0.2383
88261SOL    HW282776   5.120   7.922   2.171  1.1787 -0.1733  0.8575
88262SOL     OW82777  10.938   5.184   6.868  0.1003 -0.3669 -0.5413
88262SOL    HW182778  11.033   5.196   6.864  0.2408 -1.5789 -1.5405
88262SOL    HW282779  10.926   5.089   6.865 -1.1223 -0.2832  0.5482
88263SOL     OW82780   2.766  11.772   2.044  0.6517  0.7222 -0.3970
88263SOL    HW182781   2.800  11.834   1.980 -0.9727  0.4995 -1.5497
88263SOL    HW282782   2.836  11.764   2.109  2.7372  0.3424 -2.5335
88264SOL     OW82783   5.882   8.488  12.938  0.2326  0.3203 -0.4382
88264SOL    HW182784   5.971   8.457  12.928  1.2892  2.2541  1.9315
88264SOL    HW282785   5.850   8.445  13.018 -0.4269  0.6897 -0.4961
88265SOL     OW82786   8.647   1.519  11.851 -0.1775  0.0624 -0.3074
88265SOL    HW182787   8.666   1.613  11.847  0.1478  0.0832  1.2148
88265SOL    HW282788   8.575   1.512  11.914 -0.3673 -0.6932 -0.5937
88266SOL     OW82789   7.210   2.247   9.935 -0.0648 -0.7355  0.5353
88266SOL    HW182790   7.263   2.198   9.871 -0.3510 -0.4813  0.0946
88266SOL    HW282791   7.268   2.318   9.964 -0.0655 -0.6168  0.2538
88267SOL     OW82792   7.617   7.818   0.523  0.5474  0.5465 -0.1150
88267SOL    HW182793   7.651   7.891   0.576 -0.0114 -0.1787  1.3048
88267SOL    HW282794   7.689   7.755   0.521 -0.5867 -1.0608  3.0287
88268SOL     OW82795   8.683   9.193   6.378 -0.1786 -0.0130  0.3010
88268SOL    HW182796   8.748   9.204   6.309 -1.5748  3.2732 -0.6455
88268SOL    HW282797   8.615   9.137   6.338  0.2153 -0.2384 -0.0659
88269SOL     OW82798  11.868   8.312  12.082 -0.1263 -0.4213  0.2930
88269SOL    HW182799  11.777   8.281  12.077 -0.0252 -0.6471 -0.2306
88269SOL    HW282800  11.920   8.241  12.044  0.1237  0.3366 -0.8567
88270SOL     OW82801   3.403   5.774   4.633  0.0820  0.2567  0.3211
88270SOL    HW182802   3.395   5.764   4.538  0.6482 -1.9308  0.4444
88270SOL    HW282803   3.475   5.836   4.645  2.7305 -2.3913 -0.7486
88271SOL     OW82804   6.978   8.505  12.072  0.3479  0.2173 -0.1588
88271SOL    HW182805   6.901   8.550  12.106  0.2920  1.1554 -1.4341
88271SOL    HW282806   6.943   8.429  12.025  0.4036 -0.8672  1.4696
88272SOL     OW82807  10.605  10.988  14.155 -0.3879 -1.2082 -0.1020
88272SOL    HW182808  10.685  10.937  14.167 -0.2629 -1.0041 -0.0603
88272SOL    HW282809  10.619  11.067  14.208 -0.4615 -1.0013 -0.3866
88273SOL     OW82810   0.366  13.243   2.876 -0.0111 -0.7334 -0.4483
88273SOL    HW182811   0.326  13.190   2.808  1.4423 -1.6398 -0.6349
88273SOL    HW282812   0.446  13.278   2.837 -0.3393  0.6708  0.0522
88274SOL     OW82813   1.783   2.282   2.397  0.3381 -0.1061 -0.2037
88274SOL    HW182814   1.695   2.307   2.427  0.0833 -0.0557 -0.9703
88274SOL    HW282815   1.769   2.204   2.343  0.8067 -0.2939 -0.0582
88275SOL     OW82816   1.114   7.327  13.695 -0.9137  0.0606 -0.3658
88275SOL    HW182817   1.100   7.413  13.655  0.4071  0.6653  0.4251
88275SOL    HW282818   1.138   7.270  13.622  1.4706  1.1491 -0.5191
88276SOL     OW82819  14.156   0.785  11.925 -0.0507 -0.0650  0.4969
88276SOL    HW182820  14.144   0.841  11.848 -0.8408  0.9709  1.3367
88276SOL    HW282821  14.251   0.781  11.938  0.0323  1.0750  0.3865
88277SOL     OW82822   8.953   2.337   6.400  0.0277 -0.2752  0.3050
88277SOL    HW182823   8.948   2.336   6.495 -0.3518  1.9455  0.3528
88277SOL    HW282824   8.954   2.244   6.375 -0.3114 -0.8952  2.4236
88278SOL     OW82825   4.948   7.023   9.982 -0.2928  0.0239  0.2555
88278SOL    HW182826   4.975   7.095  10.039 -1.2755  1.8390 -1.4131
88278SOL    HW282827   5.014   7.023   9.912  0.2557 -1.4021  0.7366
88279SOL     OW82828  12.206   0.961   2.674 -0.4601  0.3116 -0.1435
88279SOL    HW182829  12.133   1.007   2.632 -0.6830 -1.4074 -1.7852
88279SOL    HW282830  12.284   0.990   2.626 -0.4941 -0.2937 -0.5848
88280SOL     OW82831   3.006   5.795  11.015 -0.0991 -0.0591  0.5945
88280SOL    HW182832   2.964   5.807  10.930 -0.0476 -0.2700  0.5388
88280SOL    HW282833   2.937   5.758  11.071  0.4098 -1.8784  0.0896
88281SOL     OW82834  12.709   9.519   6.220  0.3332  0.0060 -0.5389
88281SOL    HW182835  12.697   9.508   6.314  3.0424 -1.9694 -0.3141
88281SOL    HW282836  12.652   9.593   6.197  0.7189  1.5481  2.8822
88282SOL     OW82837   1.959  14.112   1.628  0.0343 -0.5073 -1.1361
88282SOL    HW182838   2.012  14.075   1.698  0.4038 -0.1429 -1.2189
88282SOL    HW282839   2.021  14.164   1.575 -0.5382  0.5756 -0.7778
88283SOL     OW82840  10.668  11.550  12.060  0.1731  0.0874 -0.5723
88283SOL    HW182841  10.731  11.619  12.038  0.4000  0.1075  0.0919
88283SOL    HW282842  10.588  11.597  12.083  0.8540  0.2859  1.6632
88284SOL     OW82843  11.503  12.356   3.468  0.5540  0.1133 -0.2464
88284SOL    HW182844  11.430  12.308   3.507  0.5607 -0.1106 -0.5069
88284SOL    HW282845  11.499  12.443   3.507  1.9331 -0.7540  2.0208
88285SOL     OW82846  13.356   9.033   7.410 -0.7670  0.3261 -0.2969
88285SOL    HW182847  13.351   8.955   7.355 -1.6043  0.3829 -0.3124
88285SOL    HW282848  13.349   9.106   7.348  1.5925  0.4739 -0.4622
88286SOL     OW82849   7.119  14.141  10.241 -0.1155  0.3060 -0.1118
88286SOL    HW182850   7.141  14.105  10.155 -1.2795 -1.7987  0.4002
88286SOL    HW282851   7.117  14.065  10.299  2.5300  1.8596  2.2572
88287SOL     OW82852   8.804   7.076  11.087  0.0714 -0.1409  0.0690
88287SOL    HW182853   8.727   7.132  11.073  1.9878  2.6888 -0.0870
88287SOL    HW282854   8.802   7.057  11.181 -0.8970 -0.2582  0.0388
88288SOL     OW82855   7.134   2.897   6.629  0.0673 -0.4598 -0.2377
88288SOL    HW182856   7.112   2.932   6.715 -1.8687 -0.7884 -0.5539
88288SOL    HW282857   7.230   2.900   6.625  0.1112  1.3844  1.1506
88289SOL     OW82858   7.187   6.503  10.141 -0.2121 -0.0100 -0.1561
88289SOL    HW182859   7.217   6.577  10.194 -0.0217  0.0729 -0.3824
88289SOL    HW282860   7.259   6.440  10.145  0.0467  0.2430 -0.8044
88290SOL     OW82861   2.874   4.297   3.051  0.5768  0.0094  0.1299
88290SOL    HW182862   2.804   4.338   3.102 -1.4440 -0.7165 -1.8546
88290SOL    HW282863   2.877   4.207   3.081  0.3053 -0.0776 -0.0942
88291SOL     OW82864  12.198   1.208   7.569  0.1902  0.0260  0.0655
88291SOL    HW182865  12.125   1.178   7.515 -0.3823 -0.7014  1.2235
88291SOL    HW282866  12.195   1.304   7.563  0.1772 -0.0353 -1.2171
88292SOL     OW82867   5.580   7.070  12.334 -0.2429  0.3224 -0.1298
88292SOL    HW182868   5.634   7.088  12.411 -0.3092 -0.0626  0.0115
88292SOL    HW282869   5.490   7.079  12.366 -0.3342 -1.7934  0.3736
88293SOL     OW82870   5.404  12.163  10.392  0.4413 -0.1607  0.0035
88293SOL    HW182871   5.320  12.162  10.346 -0.1834 -0.1098  1.0965
88293SOL    HW282872   5.458  12.225  10.343 -1.0692  1.8906  0.8008
88294SOL     OW82873  12.387   2.841   5.315  0.3721  0.1229  0.1118
88294SOL    HW182874  12.356   2.836   5.405  0.8990  1.1169  0.3680
88294SOL    HW282875  12.309   2.860   5.263  0.3045  1.0953  0.5590
88295SOL     OW82876   3.227   2.867  10.181 -0.0250 -0.4374  0.6533
88295SOL    HW182877   3.276   2.807  10.238  0.9982  0.3420  0.6179
88295SOL    HW282878   3.141   2.872  10.222 -0.6835 -3.1267 -0.2019
88296SOL     OW82879  11.863  11.645   6.078 -0.4122 -0.2860 -0.5296
88296SOL    HW182880  11.786  11.626   6.133  0.8793  0.8680  1.8500
88296SOL    HW282881  11.843  11.728   6.036 -0.7082 -0.2596 -0.3416
88297SOL     OW82882  10.245   5.187   6.297  0.0661 -0.1493  0.2190
88297SOL    HW182883  10.187   5.216   6.228  1.8938 -1.1458 -1.8523
88297SOL    HW282884  10.313   5.254   6.302  0.4556 -0.5514  0.3841
88298SOL     OW82885   2.689   0.631   7.996  0.1883  0.9360  0.1027
88298SOL    HW182886   2.652   0.632   7.908 -1.2741  0.0405  0.6669
88298SOL    HW282887   2.674   0.719   8.029  0.2182  1.1066 -0.3297
88299SOL     OW82888   6.993   4.466  13.808 -0.0526  0.2267 -0.2359
88299SOL    HW182889   6.933   4.449  13.736  1.0586  0.2363 -1.1904
88299SOL    HW282890   7.047   4.539  13.778  1.0553 -0.3866  0.2148
88300SOL     OW82891  10.474   8.463   7.642  0.1312  0.1106  0.1016
88300SOL    HW182892  10.468   8.526   7.570  0.0249  0.5140  0.4568
88300SOL    HW282893  10.394   8.477   7.693 -0.1857 -0.7350 -0.1472
88301SOL     OW82894   1.860   5.570   8.647 -0.2486 -0.1183  0.9361
88301SOL    HW182895   1.863   5.595   8.739  0.0674 -1.3245  1.2801
88301SOL    HW282896   1.951   5.573   8.618 -0.0818 -1.5340  1.2104
88302SOL     OW82897   1.364   5.968   0.702 -0.2593 -0.0706 -0.0429
88302SOL    HW182898   1.367   5.880   0.741 -2.0095 -0.0017  0.2940
88302SOL    HW282899   1.410   5.958   0.619  0.6332 -1.0033  0.5377
88303SOL     OW82900  12.659   2.517  13.974  0.6321 -0.3996 -0.0834
88303SOL    HW182901  12.699   2.431  13.960  0.5735 -0.3423 -0.6122
88303SOL    HW282902  12.576   2.513  13.926 -0.7523 -1.0410  2.1649
88304SOL     OW82903  11.099   7.612  11.160  0.4521 -0.0814  0.1229
88304SOL    HW182904  11.089   7.699  11.199  0.6354  0.0702 -0.1636
88304SOL    HW282905  11.133   7.558  11.230  2.1794  0.5301 -0.1986
88305SOL     OW82906   4.139   7.885  10.881  0.1874 -0.3964 -0.6514
88305SOL    HW182907   4.069   7.829  10.914 -0.8007 -0.2263 -2.3284
88305SOL    HW282908   4.214   7.827  10.872 -0.7623 -1.4686 -2.1639
88306SOL     OW82909   7.861   7.230   6.477 -0.1565 -0.0466 -0.3304
88306SOL    HW182910   7.836   7.246   6.386  0.9938 -0.0260 -0.6509
88306SOL    HW282911   7.784   7.187   6.516 -1.4944  1.8695 -0.7137
88307SOL     OW82912  10.898   0.989  14.068 -0.3599  0.1322  0.2066
88307SOL    HW182913  10.816   0.967  14.023  0.1566 -0.2907 -0.5462
88307SOL    HW282914  10.908   0.920  14.133  0.0124 -0.5095 -0.5179
88308SOL     OW82915  12.726   9.843   2.944  0.3311 -0.0237  0.3043
88308SOL    HW182916  12.738   9.748   2.952 -0.1724 -0.1753 -0.5655
88308SOL    HW282917  12.810   9.875   2.911 -0.2320 -0.5322 -1.8394
88309SOL     OW82918  11.255  11.782  11.018 -0.6271 -0.1058  0.2093
88309SOL    HW182919  11.171  11.817  10.990 -0.4335  1.5169  1.5408
88309SOL    HW282920  11.242  11.687  11.020 -2.0433  0.0444 -0.7253
88310SOL     OW82921   4.808   2.913   4.309  0.3297 -0.0647 -0.1020
88310SOL    HW182922   4.718   2.903   4.278  0.3447  0.8145 -0.4368
88310SOL    HW282923   4.822   3.007   4.315  1.1783 -0.1929  0.1058
88311SOL     OW82924   0.050   7.709   2.130 -0.2262  0.2566 -0.4215
88311SOL    HW182925  -0.008   7.778   2.160 -1.3659 -0.3009 -1.2530
88311SOL    HW282926   0.042   7.640   2.195 -2.4032 -0.7986 -1.6952
88312SOL     OW82927  10.968   6.411   5.681  0.5643  0.5023 -0.3581
88312SOL    HW182928  11.039   6.444   5.737  0.6847  0.3110 -0.3975
88312SOL    HW282929  10.888   6.438   5.726  0.5761 -2.3188  1.5830
88313SOL     OW82930   4.222  12.828   2.853 -0.3384  0.1983 -0.0548
88313SOL    HW182931   4.163  12.753   2.849 -0.5636  0.4251 -1.1775
88313SOL    HW282932   4.257  12.826   2.942 -0.6996 -0.9608  0.0734
88314SOL     OW82933   2.487  10.806   3.413  0.5112 -0.8827  0.1789
88314SOL    HW182934   2.488  10.810   3.508  0.3040 -0.3539  0.1612
88314SOL    HW282935   2.519  10.892   3.384  0.8585 -1.1396 -0.2289
88315SOL     OW82936   6.550  13.305   4.834  0.0402  0.1271  0.5156
88315SOL    HW182937   6.622  13.288   4.774  0.6924 -0.2583  1.3910
88315SOL    HW282938   6.531  13.398   4.824 -0.2123 -0.0440 -0.6649
88316SOL     OW82939   9.140  13.867   9.039  0.5791 -0.5338  0.1792
88316SOL    HW182940   9.108  13.951   9.072 -1.4068 -1.2161  0.1167
88316SOL    HW282941   9.235  13.878   9.031  0.5450  1.1779  1.6664
88317SOL     OW82942   9.947  13.241   5.017 -0.1360 -0.3833 -0.6118
88317SOL    HW182943   9.932  13.291   5.097  1.2254 -1.5740  0.4672
88317SOL    HW282944   9.937  13.150   5.044  0.6753 -0.8250 -1.7147
88318SOL     OW82945  13.719   8.555   2.981  0.6171 -0.1976 -0.4326
88318SOL    HW182946  13.786   8.494   3.012  0.7927  0.3955  0.3980
88318SOL    HW282947  13.688   8.518   2.899  0.7103 -1.4181  0.0679
88319SOL     OW82948   5.650  10.268  10.158  0.2529  0.0808  0.0894
88319SOL    HW182949   5.739  10.290  10.131  0.3982 -0.9596 -0.3247
88319SOL    HW282950   5.659  10.228  10.244  0.2810 -0.6831 -0.2563
88320SOL     OW82951   0.317  12.666   4.135 -0.8978 -0.6276  0.0594
88320SOL    HW182952   0.243  12.695   4.188  0.6767 -1.1645  2.7110
88320SOL    HW282953   0.279  12.606   4.071 -2.6842 -1.4876  1.8372
88321SOL     OW82954  12.061  13.097   1.508  0.1743 -0.2473  0.1619
88321SOL    HW182955  12.054  13.019   1.453 -0.4705  1.2368 -1.9762
88321SOL    HW282956  12.110  13.068   1.584  1.1189 -2.4225 -1.1870
88322SOL     OW82957   1.086  11.346   5.911 -0.0313 -0.0162 -0.4290
88322SOL    HW182958   1.014  11.353   5.849 -0.1848  1.3000 -0.1348
88322SOL    HW282959   1.164  11.335   5.857 -0.2080  0.7478 -0.8392
88323SOL     OW82960  10.985   8.149   3.569  0.2214  0.0504  0.3037
88323SOL    HW182961  11.028   8.115   3.648  0.8820  0.8994  0.3190
88323SOL    HW282962  10.909   8.091   3.557  1.7603 -1.9811 -0.1775
88324SOL     OW82963   5.417   2.784   1.576 -0.1833  0.0323  0.1024
88324SOL    HW182964   5.343   2.766   1.519 -1.6894  1.6745  1.4175
88324SOL    HW282965   5.484   2.722   1.549 -1.6049 -0.7141 -1.9333
88325SOL     OW82966   6.719   9.769  14.009  0.0318 -0.2034 -0.3772
88325SOL    HW182967   6.701   9.712  14.084 -1.2999 -1.4544 -1.5789
88325SOL    HW282968   6.809   9.797  14.021 -0.2682 -0.0586  1.8832
88326SOL     OW82969   0.291  12.791   5.413  0.0125  0.2591  0.6949
88326SOL    HW182970   0.228  12.860   5.432 -0.8495 -0.3644  0.1704
88326SOL    HW282971   0.278  12.727   5.483  0.2003  0.2141  0.6902
88327SOL     OW82972  10.618   1.458  11.405  0.3967 -0.4587  0.0203
88327SOL    HW182973  10.598   1.408  11.326  1.6317 -0.2589 -0.4396
88327SOL    HW282974  10.687   1.519  11.378  0.5022 -0.0615  1.1353
88328SOL     OW82975   3.910   1.995   0.566  0.1081  0.0550 -0.0207
88328SOL    HW182976   3.901   2.077   0.615 -0.8273 -0.6134  0.9707
88328SOL    HW282977   3.925   2.023   0.475 -1.0783  1.3451  0.1359
88329SOL     OW82978   0.943   0.667  12.583 -0.0742 -0.5268 -0.1279
88329SOL    HW182979   1.004   0.607  12.626 -1.3736 -1.0346  1.0870
88329SOL    HW282980   0.895   0.613  12.521 -0.4652 -0.5151  0.1571
88330SOL     OW82981   4.869   7.656   8.093 -0.1873  0.4400 -0.5951
88330SOL    HW182982   4.852   7.726   8.155  0.1467 -0.0538  0.0709
88330SOL    HW282983   4.954   7.679   8.054  0.5959 -0.2775  0.6262
88331SOL     OW82984   3.552  12.199   0.929 -0.7642  0.2180  0.2742
88331SOL    HW182985   3.575  12.223   0.839 -1.6756 -0.1505 -0.0650
88331SOL    HW282986   3.636  12.174   0.969 -0.1809  1.4977 -0.1161
88332SOL     OW82987   8.578   5.592  11.085  0.4287  0.7557  0.1568
88332SOL    HW182988   8.658   5.591  11.138  0.6383 -2.7693  0.0024
88332SOL    HW282989   8.516   5.643  11.136  1.3618 -0.4395  2.6469
88333SOL     OW82990   5.255  13.786   2.233  0.9510 -1.2013 -0.6249
88333SOL    HW182991   5.215  13.735   2.304  0.6686  0.1026  0.1842
88333SOL    HW282992   5.332  13.826   2.273 -0.6510  1.7014 -0.2254
88334SOL     OW82993  10.293  10.185  12.125 -0.2307 -0.3663 -0.3128
88334SOL    HW182994  10.341  10.264  12.101 -0.1351 -1.2668 -3.6226
88334SOL    HW282995  10.329  10.159  12.209  0.2852  2.6242  0.4960
88335SOL     OW82996   0.642   4.026  12.370  0.3537 -0.1803 -0.1247
88335SOL    HW182997   0.570   3.978  12.411  0.9620 -1.0204 -0.0048
88335SOL    HW282998   0.708   4.034  12.439  1.4620 -1.7670 -0.9272
88336SOL     OW82999   4.579   3.390   0.691 -0.0380  0.3463 -0.7750
88336SOL    HW183000   4.669   3.369   0.714  0.0224  0.4191 -0.9402
88336SOL    HW283001   4.526   3.322   0.733  0.0303  0.7495 -0.0200
88337SOL     OW83002   5.953   7.080   2.976 -0.5157  0.3138  0.3429
88337SOL    HW183003   5.980   6.993   3.005 -0.9799  0.0686  0.0600
88337SOL    HW283004   5.929   7.126   3.056  1.5122  0.8355  0.7089
88338SOL     OW83005   0.333   9.111   4.154 -0.6746 -0.0135 -0.7425
88338SOL    HW183006   0.403   9.136   4.093 -0.9627 -0.4693 -1.2736
88338SOL    HW283007   0.327   9.016   4.145 -1.1480 -0.0111 -0.4672
88339SOL     OW83008   6.013   0.779   3.169 -0.1995  0.4819  0.4115
88339SOL    HW183009   6.040   0.864   3.203 -2.4501  0.0655  3.8248
88339SOL    HW283010   6.066   0.716   3.217 -0.6247 -0.0687  0.1739
88340SOL     OW83011   1.607   9.521  10.432  0.1118  0.9701  0.5532
88340SOL    HW183012   1.596   9.555  10.343  0.0795  1.0403  0.5833
88340SOL    HW283013   1.521   9.532  10.472 -0.0388  0.3656  0.4018
88341SOL     OW83014  11.593   1.204   6.585  0.2789  0.2025 -0.1004
88341SOL    HW183015  11.649   1.157   6.647  1.3970  2.9748  1.1427
88341SOL    HW283016  11.517   1.146   6.573  1.9336 -2.2637  0.5965
88342SOL     OW83017   1.999   9.749   0.250 -0.4204  0.4793  0.0072
88342SOL    HW183018   2.076   9.784   0.296  0.6892 -0.4867 -1.0274
88342SOL    HW283019   2.003   9.790   0.163 -0.6580 -0.1082 -0.2854
88343SOL     OW83020   5.751   1.513  10.062 -0.2908 -0.0650 -0.2845
88343SOL    HW183021   5.833   1.485  10.104 -0.2414  0.7106  0.1516
88343SOL    HW283022   5.711   1.572  10.125 -0.8266  0.1411 -0.8115
88344SOL     OW83023   7.383   0.112  11.837 -0.1183 -0.2479 -0.0175
88344SOL    HW183024   7.430   0.171  11.777  0.2944  0.4080  0.9331
88344SOL    HW283025   7.306   0.084  11.788 -0.9577  2.0230 -0.0802
88345SOL     OW83026   4.832  13.605   5.477 -0.4226 -0.1461  0.2974
88345SOL    HW183027   4.824  13.666   5.403  1.5734 -1.1495 -0.8472
88345SOL    HW283028   4.742  13.584   5.501 -1.1676  2.4595  0.1110
88346SOL     OW83029   3.351   1.094  11.622  0.1526 -0.3615  0.3527
88346SOL    HW183030   3.437   1.122  11.590 -0.3106 -0.0809 -0.6939
88346SOL    HW283031   3.367   1.063  11.711  1.3568 -0.4445  0.1178
88347SOL     OW83032   7.641   6.285   6.995  0.2207 -0.9962  0.3955
88347SOL    HW183033   7.725   6.289   6.951  0.2544 -2.4442  0.3045
88347SOL    HW283034   7.584   6.236   6.936 -0.8109  0.2496  0.2953
88348SOL     OW83035   0.776   8.091  11.482  0.7141  0.2329 -0.6362
88348SOL    HW183036   0.786   8.155  11.412  0.9683 -0.4360 -1.2238
88348SOL    HW283037   0.832   8.123  11.553  3.1483 -0.7802 -1.9714
88349SOL     OW83038  11.969  11.242  13.733  0.1071 -0.3490 -0.2671
88349SOL    HW183039  11.970  11.225  13.639 -4.3423  0.3103 -0.6499
88349SOL    HW283040  11.953  11.336  13.741  0.0805 -0.4468  1.1345
88350SOL     OW83041   8.638  11.492   2.557  0.4951  0.2984 -0.6633
88350SOL    HW183042   8.563  11.470   2.612  1.2922  0.5725  0.5764
88350SOL    HW283043   8.634  11.430   2.484  1.3764 -2.5032  1.5176
88351SOL     OW83044   7.860   6.252   8.444  0.0513  0.1949 -0.2009
88351SOL    HW183045   7.878   6.158   8.452 -0.2597  0.1693  0.2443
88351SOL    HW283046   7.770   6.262   8.477  0.0624  0.6413 -0.2988
88352SOL     OW83047   2.927   9.898   5.546  0.5183  0.0953 -0.2665
88352SOL    HW183048   2.958   9.856   5.466  1.0427  0.9911 -0.5495
88352SOL    HW283049   2.999   9.889   5.608  1.6116  2.5601 -1.0604
88353SOL     OW83050   4.186   1.773   6.669 -0.1526 -0.1436 -0.3923
88353SOL    HW183051   4.218   1.791   6.580  1.9887 -0.2952  0.2761
88353SOL    HW283052   4.155   1.858   6.701  2.8105  0.8943  0.0595
88354SOL     OW83053  12.348  11.114  11.794 -0.0314  0.1922 -0.4269
88354SOL    HW183054  12.343  11.035  11.740 -0.4508 -0.1875  0.1572
88354SOL    HW283055  12.265  11.158  11.780 -0.7953 -0.7026  1.0891
88355SOL     OW83056   3.915   3.834  13.571  0.2980 -0.0036  0.1478
88355SOL    HW183057   3.840   3.824  13.629  1.5035 -1.8472  1.5076
88355SOL    HW283058   3.940   3.745  13.547  1.2502  0.6198 -1.3586
88356SOL     OW83059  12.758   7.147   9.782  0.2771  1.0030  0.2011
88356SOL    HW183060  12.821   7.108   9.721  0.3781  2.7665 -0.8828
88356SOL    HW283061  12.804   7.223   9.818  0.2453 -0.0444  2.5899
88357SOL     OW83062   3.449   1.984   0.804  0.0582  0.1829 -0.5255
88357SOL    HW183063   3.531   1.939   0.824 -1.2964 -1.3455  2.4014
88357SOL    HW283064   3.461   2.073   0.837  1.5091  0.9894 -2.9984
88358SOL     OW83065   6.629   7.002   4.651  0.1159 -0.8905 -0.3877
88358SOL    HW183066   6.578   6.931   4.611 -3.2544 -0.7814  3.0791
88358SOL    HW283067   6.609   7.079   4.598  0.4151 -1.7150 -1.7467
88359SOL     OW83068  10.049   8.567  11.049 -0.0172  0.1974 -0.2292
88359SOL    HW183069  10.059   8.639  11.113  0.5017  0.4274 -0.5591
88359SOL    HW283070  10.122   8.508  11.068  1.1744  1.1220 -1.6899
88360SOL     OW83071   7.403  12.801   4.630 -0.3755 -0.5034 -0.0911
88360SOL    HW183072   7.466  12.751   4.682  0.8735  0.7827 -0.2888
88360SOL    HW283073   7.424  12.893   4.649 -0.0922  0.0113 -2.5452
88361SOL     OW83074  12.476   1.217   5.930  0.4522  0.3032  0.0023
88361SOL    HW183075  12.487   1.178   6.017 -0.3738  1.2231  0.5531
88361SOL    HW283076  12.382   1.210   5.913  0.6962 -0.3880 -1.0824
88362SOL     OW83077   0.185  10.085   7.974 -0.3306 -0.6160  0.6348
88362SOL    HW183078   0.199  10.179   7.959  0.0401 -0.5303  1.4710
88362SOL    HW283079   0.206  10.044   7.889 -2.1464  0.1909 -0.2602
88363SOL     OW83080   1.097   3.035   4.930 -0.4041  0.0186  0.1128
88363SOL    HW183081   1.044   2.987   4.866 -0.9416 -1.2341  1.4411
88363SOL    HW283082   1.056   3.121   4.936 -0.7624 -0.0845 -0.6998
88364SOL     OW83083   2.721   6.360   4.769 -0.1547  0.1418  0.1090
88364SOL    HW183084   2.741   6.314   4.687 -1.7656 -2.7895  1.2029
88364SOL    HW283085   2.764   6.307   4.837 -0.5031  1.3819  1.3304
88365SOL     OW83086   6.430   1.489   5.753 -0.0874  0.3114  0.0560
88365SOL    HW183087   6.488   1.531   5.816  0.9250 -0.4349 -0.3496
88365SOL    HW283088   6.395   1.561   5.701 -0.0937  0.8332  0.7666
88366SOL     OW83089   4.174  12.220   0.851  0.4155  0.0695 -0.2338
88366SOL    HW183090   4.164  12.284   0.922  1.2314  0.0984 -0.1380
88366SOL    HW283091   4.227  12.150   0.889  0.0695 -0.3632 -0.5362
88367SOL     OW83092   8.354  12.105   0.933 -0.2379 -0.3892  0.5031
88367SOL    HW183093   8.391  12.160   1.002 -2.8342 -1.0329  2.5773
88367SOL    HW283094   8.278  12.063   0.974 -0.7079 -2.4216 -2.1816
88368SOL     OW83095  11.147  13.662  10.543 -0.1315 -0.2795 -0.0387
88368SOL    HW183096  11.191  13.697  10.621 -0.4288 -0.5274  0.2415
88368SOL    HW283097  11.091  13.734  10.513  1.0109  0.3089 -0.8369
88369SOL     OW83098   5.511  12.922   3.041  0.1464  0.2265 -0.0480
88369SOL    HW183099   5.433  12.977   3.045  0.1544  0.2151  0.2838
88369SOL    HW283100   5.584  12.984   3.038  0.0574  0.3433 -3.5970
88370SOL     OW83101   9.855   9.109   8.900 -0.4566  0.3997  0.0084
88370SOL    HW183102   9.763   9.085   8.891 -0.8724  0.9657  2.0886
88370SOL    HW283103   9.900   9.026   8.917 -0.9328  0.3278  1.0308
88371SOL     OW83104   7.799   3.853  11.214 -0.1356  0.3709 -0.0369
88371SOL    HW183105   7.866   3.918  11.236 -0.8436  0.8885  0.6553
88371SOL    HW283106   7.841   3.796  11.149  0.7711  1.0311 -0.0515
88372SOL     OW83107  13.584   2.012  11.536  0.0333  0.5345  0.4333
88372SOL    HW183108  13.513   1.991  11.476  0.8951 -0.0990 -0.3851
88372SOL    HW283109  13.655   1.954  11.511  0.8674  1.1895  1.2042
88373SOL     OW83110  12.067  10.209  11.181  0.8918  0.5059 -1.1078
88373SOL    HW183111  12.141  10.149  11.185  1.7865  1.6477  1.5150
88373SOL    HW283112  12.092  10.282  11.238 -2.4812  0.6451  0.4244
88374SOL     OW83113   8.469   2.561   0.600  0.2534 -0.6719 -0.4850
88374SOL    HW183114   8.488   2.533   0.690  0.5656 -1.6014 -0.8302
88374SOL    HW283115   8.530   2.633   0.584  0.5112 -0.8010 -0.1013
88375SOL     OW83116  10.490   3.213   2.499  0.0946  0.1944 -0.0908
88375SOL    HW183117  10.567   3.171   2.460 -0.4204  0.9809 -2.0434
88375SOL    HW283118  10.421   3.146   2.495  0.1333  0.1609 -0.1937
88376SOL     OW83119   6.727  13.743   9.844  0.1877 -0.3245 -0.1314
88376SOL    HW183120   6.693  13.792   9.769  1.8498  1.6880  0.3306
88376SOL    HW283121   6.798  13.690   9.807  1.4836  1.2140  0.1041
88377SOL     OW83122   1.831   4.385   7.771 -0.3811 -0.0567  0.3800
88377SOL    HW183123   1.894   4.320   7.738 -0.0445  0.2402  0.4394
88377SOL    HW283124   1.746   4.348   7.748 -0.1528  0.1349 -0.8196
88378SOL     OW83125   0.572  11.253   2.004  0.3430 -0.2192  0.1191
88378SOL    HW183126   0.614  11.240   2.089 -1.4313 -0.1932  1.0562
88378SOL    HW283127   0.639  11.294   1.950  2.0670 -1.8183  0.9536
88379SOL     OW83128   2.179   9.807   5.095  0.3625 -0.0413 -0.0386
88379SOL    HW183129   2.120   9.834   5.025 -1.4289 -0.4940  1.2342
88379SOL    HW283130   2.122   9.786   5.168  2.0565 -1.4567  0.9622
88380SOL     OW83131   6.027   5.844  13.585 -0.2803  0.1118 -0.3822
88380SOL    HW183132   6.089   5.826  13.514  0.3526  0.9919 -0.0645
88380SOL    HW283133   5.948   5.876  13.541 -0.0636  0.1826 -0.7224
88381SOL     OW83134   3.429  13.040   3.966  0.0338  0.3546 -0.1216
88381SOL    HW183135   3.509  13.062   4.015  1.0179 -0.8370 -1.1185
88381SOL    HW283136   3.393  13.124   3.941  0.7233  0.9331  0.7494
88382SOL     OW83137   4.231  12.431   7.962 -0.2671 -0.0052 -0.5021
88382SOL    HW183138   4.286  12.385   8.024 -0.1672  0.4208 -0.2705
88382SOL    HW283139   4.225  12.373   7.887  0.4911 -0.0571 -0.5275
88383SOL     OW83140   5.790   4.016   8.477 -0.7503 -0.2824  0.7014
88383SOL    HW183141   5.785   4.017   8.572  1.4141 -1.3646  0.9022
88383SOL    HW283142   5.738   3.941   8.450 -0.3548 -0.7170  1.1457
88384SOL     OW83143  10.219  13.097   8.136 -0.2862 -0.4564 -0.4441
88384SOL    HW183144  10.127  13.120   8.148  0.4305  1.4401  2.1023
88384SOL    HW283145  10.249  13.069   8.222  1.2290 -2.3840 -1.5205
88385SOL     OW83146   9.545   1.164   4.977  0.0398  0.1383 -0.0542
88385SOL    HW183147   9.541   1.230   5.046  1.9647  0.7568 -0.4724
88385SOL    HW283148   9.605   1.201   4.912  1.5936 -2.2230 -0.0724
88386SOL     OW83149  10.085  12.474   4.907 -0.5268  0.1893  0.1136
88386SOL    HW183150  10.123  12.561   4.895 -0.5591  0.0881 -0.7982
88386SOL    HW283151   9.998  12.479   4.867 -0.1306 -0.5381 -0.9035
88387SOL     OW83152  10.817   2.100   2.648 -0.7360 -0.0291  0.1928
88387SOL    HW183153  10.869   2.177   2.675 -0.0126 -0.4746  0.0871
88387SOL    HW283154  10.876   2.026   2.661 -1.1378 -0.4810 -0.5466
88388SOL     OW83155   9.956   2.131   9.823 -0.0313  0.4535  0.1491
88388SOL    HW183156   9.890   2.101   9.761 -0.0639  1.4184 -0.3086
88388SOL    HW283157   9.937   2.084   9.904 -0.5916 -0.1019 -0.3003
88389SOL     OW83158  13.036   1.107   7.459  0.2322  0.1154 -0.1230
88389SOL    HW183159  13.043   1.036   7.395 -1.5279 -0.5990  0.4181
88389SOL    HW283160  13.066   1.068   7.541 -1.9404 -0.4782  0.4577
88390SOL     OW83161   2.121   8.520   1.909  0.4350  0.0498 -0.4979
88390SOL    HW183162   2.169   8.501   1.828  0.4721  0.4948 -0.5813
88390SOL    HW283163   2.073   8.600   1.890  0.9851  0.5423  0.1448
88391SOL     OW83164   0.913   6.823   1.657  0.4899 -0.3141  0.2233
88391SOL    HW183165   0.827   6.782   1.657  1.2058 -1.8961  0.2847
88391SOL    HW283166   0.902   6.903   1.604 -1.4863  0.6558  1.9684
88392SOL     OW83167   5.935   7.969   3.471  0.1908  0.4243 -0.0461
88392SOL    HW183168   5.861   7.965   3.411  0.2391 -2.2779 -0.0183
88392SOL    HW283169   5.924   8.053   3.516 -1.6310  1.0648 -1.5303
88393SOL     OW83170   3.200  13.793  11.443 -0.7236 -0.1286  0.5472
88393SOL    HW183171   3.168  13.876  11.408  0.5483 -0.6255 -2.0154
88393SOL    HW283172   3.253  13.756  11.372  1.4603 -1.5947  2.7746
88394SOL     OW83173   6.392   7.766  13.792 -0.2614  0.3238 -0.6423
88394SOL    HW183174   6.434   7.685  13.763 -1.0026 -0.2935 -0.0512
88394SOL    HW283175   6.431   7.835  13.738  2.9042  0.0964  1.1068
88395SOL     OW83176   8.122   9.714   5.595 -0.0694  0.3190 -0.0466
88395SOL    HW183177   8.040   9.740   5.636 -0.4925  0.6268 -1.0582
88395SOL    HW283178   8.095   9.661   5.519  0.6641  0.4073 -0.3796
88396SOL     OW83179   6.537   9.057   5.483 -0.1085 -0.1117  0.3282
88396SOL    HW183180   6.522   9.142   5.523 -1.0962 -1.4626  3.0539
88396SOL    HW283181   6.616   9.024   5.525  1.0789 -0.0293 -1.7227
88397SOL     OW83182   0.946  10.673  12.891 -0.5527  0.4697  0.4546
88397SOL    HW183183   0.876  10.724  12.931 -0.8019  0.5909 -0.1349
88397SOL    HW283184   0.969  10.607  12.957 -0.2728  1.2897  1.2049
88398SOL     OW83185   8.961  13.647   6.694 -0.3936  0.4421 -0.0028
88398SOL    HW183186   8.954  13.573   6.634 -2.2204  0.9210 -0.4462
88398SOL    HW283187   8.925  13.614   6.776 -1.3561  0.8665 -0.2450
88399SOL     OW83188   6.042  11.775  11.474  0.3401  0.6041  0.7690
88399SOL    HW183189   6.095  11.846  11.437  0.1383  0.0108 -0.6931
88399SOL    HW283190   5.959  11.779  11.427  0.9429 -1.6848 -0.6623
88400SOL     OW83191   8.172  12.329   0.427  0.0066  0.0498 -0.3199
88400SOL    HW183192   8.208  12.327   0.515 -0.0765 -1.5850 -0.3020
88400SOL    HW283193   8.249  12.324   0.369  0.0098  0.2061 -0.3296
88401SOL     OW83194   9.626   8.653   2.510 -0.0234 -0.4445  0.0841
88401SOL    HW183195   9.615   8.688   2.421 -1.6579 -0.9143  0.0729
88401SOL    HW283196   9.593   8.563   2.504 -0.6370 -0.3143  1.2709
88402SOL     OW83197   3.769   6.768  10.157  0.2901  0.7958  0.2651
88402SOL    HW183198   3.733   6.802  10.076 -1.1641 -1.4364 -0.1058
88402SOL    HW283199   3.828   6.697  10.130 -1.6023 -1.2132  1.1155
88403SOL     OW83200   6.723   2.219  11.671  0.1421 -0.1910  0.1344
88403SOL    HW183201   6.770   2.300  11.650  1.1650 -0.0577  2.5186
88403SOL    HW283202   6.742   2.160  11.598  0.1890  1.3928 -1.1734
88404SOL     OW83203   2.979   7.723   1.935 -0.2768 -0.3836 -0.0617
88404SOL    HW183204   2.894   7.679   1.932 -0.0718 -1.0851  2.5873
88404SOL    HW283205   3.035   7.671   1.876 -0.9454 -1.6003  0.3495
88405SOL     OW83206  13.319   9.590   6.252 -0.0198  0.0653 -0.1341
88405SOL    HW183207  13.288   9.652   6.318 -2.3480 -0.3572 -0.7302
88405SOL    HW283208  13.361   9.520   6.302  2.7005  2.0577  0.5411
88406SOL     OW83209   1.340   6.626   1.087  0.8153 -0.4007  0.1655
88406SOL    HW183210   1.324   6.611   0.994  0.9411  0.5179 -0.0150
88406SOL    HW283211   1.254   6.624   1.127  0.4889  1.5792 -0.3500
88407SOL     OW83212  13.413  13.685   0.027 -0.6596 -0.4360  0.1411
88407SOL    HW183213  13.333  13.710   0.072 -0.8848  2.3079 -1.4988
88407SOL    HW283214  13.428  13.594   0.052 -4.1072 -0.9805  0.7363
88408SOL     OW83215   6.168   7.828  11.604 -0.4082  0.0653 -0.1639
88408SOL    HW183216   6.136   7.898  11.662  0.7038  1.1627 -0.8158
88408SOL    HW283217   6.263   7.834  11.610 -0.2555  0.1367 -1.9717
88409SOL     OW83218   1.496   5.345  11.527  0.0958  0.4139  0.2466
88409SOL    HW183219   1.437   5.274  11.553  1.6106 -0.8435  0.3853
88409SOL    HW283220   1.578   5.327  11.573  0.6314  2.0975  0.0414
88410SOL     OW83221   0.158   8.545  13.621  0.1163  0.3348 -0.3388
88410SOL    HW183222   0.122   8.628  13.591  1.5571  1.7047  1.4777
88410SOL    HW283223   0.236   8.532  13.568 -1.0379 -0.8044 -1.8232
88411SOL     OW83224   5.546   3.560   4.333 -0.5481  0.2683  0.5608
88411SOL    HW183225   5.580   3.483   4.288 -0.7712  0.0344  0.7852
88411SOL    HW283226   5.604   3.632   4.307 -1.2201  0.3328 -0.8273
88412SOL     OW83227  10.557   2.167   4.194  0.0289  0.7830  0.5269
88412SOL    HW183228  10.587   2.125   4.274 -0.9299  0.5216  0.7607
88412SOL    HW283229  10.595   2.254   4.196 -1.2964  1.3704  2.0956
88413SOL     OW83230   2.026  13.101   9.079  0.1807 -0.4711 -0.3338
88413SOL    HW183231   1.935  13.129   9.073  0.3833  0.3615  0.3323
88413SOL    HW283232   2.021  13.005   9.084 -0.7703 -0.3625  1.4529
88414SOL     OW83233   5.734  10.544   4.722  0.1522  0.1497 -0.0328
88414SOL    HW183234   5.639  10.531   4.714  0.3383 -0.4734 -1.7487
88414SOL    HW283235   5.744  10.638   4.735 -0.6647  0.4484 -1.3211
88415SOL     OW83236   0.837   7.765   1.442 -0.7830 -0.1988  0.4389
88415SOL    HW183237   0.799   7.832   1.386 -1.3436 -0.0026  1.0516
88415SOL    HW283238   0.858   7.693   1.382 -0.6985  0.2925 -0.1322
88416SOL     OW83239   7.972  12.786   6.241  0.1399  0.4615  0.7443
88416SOL    HW183240   7.973  12.772   6.146  1.1062 -0.3127  0.8447
88416SOL    HW283241   8.065  12.782   6.266 -0.2203 -1.3998  1.9874
88417SOL     OW83242   2.250  12.231   9.635  0.5339  0.7513  0.1168
88417SOL    HW183243   2.327  12.223   9.691 -0.5277 -0.2843  1.4837
88417SOL    HW283244   2.182  12.266   9.692 -1.3515 -2.7930  0.3153
88418SOL     OW83245   6.075   2.023  10.723 -0.0764 -0.0216  0.0392
88418SOL    HW183246   5.992   2.070  10.725 -0.9061 -1.4576  0.6462
88418SOL    HW283247   6.140   2.088  10.750 -1.5277  0.1033  3.7317
88419SOL     OW83248  13.347  10.411   7.060 -0.6616  0.1413  0.2064
88419SOL    HW183249  13.365  10.338   7.120 -1.1104  0.3090  0.5481
88419SOL    HW283250  13.431  10.428   7.018 -0.0044  0.8701  1.7369
88420SOL     OW83251  10.904  12.075  14.127  0.4731 -0.7650  0.4214
88420SOL    HW183252  10.913  12.063  14.221  0.8178  2.2651  0.8560
88420SOL    HW283253  10.990  12.103  14.097  0.1113 -0.7291 -0.6457
88421SOL     OW83254   5.267   9.409   9.881 -0.0884  0.0878  0.2993
88421SOL    HW183255   5.203   9.466   9.923  0.3189 -0.8267  2.2762
88421SOL    HW283256   5.222   9.375   9.804 -2.0795 -0.6075  1.6867
88422SOL     OW83257  10.677  10.247   1.457 -0.3643 -0.2439  0.3669
88422SOL    HW183258  10.624  10.275   1.532 -1.2688 -2.6349  0.6987
88422SOL    HW283259  10.762  10.225   1.495  0.1025  1.1439  0.2132
88423SOL     OW83260   0.784   8.965   4.475 -0.0539  0.0214 -0.2971
88423SOL    HW183261   0.736   8.904   4.419 -0.6385  0.6922 -0.5409
88423SOL    HW283262   0.871   8.968   4.437  0.0641 -0.8509 -0.1277
88424SOL     OW83263   8.678   1.781   0.981 -0.3890 -0.1079  0.2390
88424SOL    HW183264   8.770   1.757   0.973 -0.2703  0.8194 -2.1552
88424SOL    HW283265   8.680   1.869   1.019 -0.1973  0.3710 -0.8516
88425SOL     OW83266  11.265   2.913   1.741 -0.2961  0.0938 -0.1876
88425SOL    HW183267  11.322   2.988   1.725 -1.3196  1.0940  0.7562
88425SOL    HW283268  11.322   2.849   1.783  0.3881  0.6606 -0.2339
88426SOL     OW83269  12.469   9.822   4.056 -0.4858 -0.4871  0.2049
88426SOL    HW183270  12.457   9.865   3.971 -0.4507  1.3726  1.0927
88426SOL    HW283271  12.564   9.822   4.069 -0.5441  0.2030  0.6937
88427SOL     OW83272   4.841  13.424  10.183  0.5065  0.0620  0.1684
88427SOL    HW183273   4.867  13.422  10.275 -0.3027 -0.3917  0.3883
88427SOL    HW283274   4.816  13.515  10.167 -0.4129 -0.0895  0.6976
88428SOL     OW83275   4.461   8.229   1.006 -0.3267  0.2213  0.7688
88428SOL    HW183276   4.486   8.263   1.092  2.5458 -1.4015  0.7375
88428SOL    HW283277   4.463   8.304   0.948 -1.8111  1.2540  1.9803
88429SOL     OW83278   7.547   2.731  12.515  0.0440  0.1883 -0.3987
88429SOL    HW183279   7.512   2.690  12.594  1.0002  0.2278  0.0663
88429SOL    HW283280   7.525   2.824  12.525 -0.7804  0.0322 -0.7079
88430SOL     OW83281   4.320  12.440   9.561  0.2179 -0.0403 -0.3948
88430SOL    HW183282   4.278  12.504   9.618  0.6792 -0.4035  0.3695
88430SOL    HW283283   4.304  12.356   9.605  1.6415 -0.2009 -0.1347
88431SOL     OW83284   8.376   3.471   4.657  0.2889  0.1385  0.3886
88431SOL    HW183285   8.469   3.450   4.661 -0.0064 -1.1648  0.6437
88431SOL    HW283286   8.332   3.394   4.693 -0.9154  0.5062 -0.2480
88432SOL     OW83287  12.537   6.864   2.601 -0.2250  0.9598 -0.1042
88432SOL    HW183288  12.454   6.822   2.626 -0.4827  0.8541 -1.1042
88432SOL    HW283289  12.558   6.921   2.676  0.0092 -0.7406  1.1742
88433SOL     OW83290   1.701   9.619   5.368 -0.2004 -0.0862 -0.1481
88433SOL    HW183291   1.685   9.638   5.275  1.3670 -0.9353 -0.6367
88433SOL    HW283292   1.741   9.699   5.403  0.9181 -0.3800 -0.7004
88434SOL     OW83293  11.819   9.622   8.249 -0.3431 -0.1229 -0.6127
88434SOL    HW183294  11.803   9.576   8.167 -0.0058 -2.4201  0.5302
88434SOL    HW283295  11.735   9.661   8.272 -1.1104 -1.5989 -0.8275
88435SOL     OW83296   3.525   3.852   3.649  0.6653 -0.3407 -0.2401
88435SOL    HW183297   3.484   3.851   3.735  0.3921  1.4998 -0.3010
88435SOL    HW283298   3.498   3.770   3.608  0.4946 -1.0708  1.2740
88436SOL     OW83299   7.449   2.975   7.823  0.8162 -0.5955  0.1485
88436SOL    HW183300   7.529   2.926   7.804 -0.2269 -1.5088 -2.3156
88436SOL    HW283301   7.400   2.918   7.883  0.1573 -2.1455 -1.7404
88437SOL     OW83302  12.634   0.436  10.010  0.0676  0.2867  0.1724
88437SOL    HW183303  12.632   0.340  10.005 -0.6416  0.3463 -1.2430
88437SOL    HW283304  12.623   0.455  10.103 -1.6991 -0.9877  0.2889
88438SOL     OW83305   9.054  11.797  10.215 -0.0133 -0.1367 -0.0156
88438SOL    HW183306   9.071  11.830  10.127  1.9957  0.4230  0.5176
88438SOL    HW283307   9.127  11.737  10.233 -1.2958 -1.5627  0.6538
88439SOL     OW83308   4.484   5.233  11.194 -0.6117 -0.0055  0.4133
88439SOL    HW183309   4.489   5.297  11.265  0.8429 -1.3738  1.6175
88439SOL    HW283310   4.418   5.170  11.223 -0.3191 -0.3373  0.3699
88440SOL     OW83311   0.438   0.810   4.820  0.1730 -0.1939 -0.2429
88440SOL    HW183312   0.461   0.902   4.827 -1.1844  0.6663 -4.1513
88440SOL    HW283313   0.344   0.807   4.841 -0.8496  0.2865 -3.9300
88441SOL     OW83314  12.926  11.753   8.110 -0.1759  0.1037  0.0917
88441SOL    HW183315  12.974  11.800   8.042 -0.1261  1.0370  0.7527
88441SOL    HW283316  12.853  11.712   8.065 -0.7035  1.5119 -0.3899
88442SOL     OW83317  10.808   0.218   3.043  0.4223 -0.0221  0.5914
88442SOL    HW183318  10.752   0.166   3.101  0.1153 -0.6651 -0.2744
88442SOL    HW283319  10.747   0.273   2.993  0.5055 -1.0331 -0.6627
88443SOL     OW83320  12.666   4.256   1.189  0.3079  0.6088  0.3647
88443SOL    HW183321  12.751   4.227   1.221  0.5093 -0.9652 -1.4618
88443SOL    HW283322  12.604   4.221   1.253  0.8270 -0.8752  0.0947
88444SOL     OW83323   8.120  11.310   1.902 -0.4634  0.0695  0.6418
88444SOL    HW183324   8.039  11.259   1.907 -0.1786 -0.3169  1.3646
88444SOL    HW283325   8.184  11.251   1.862 -0.4594  0.2893  0.3113
88445SOL     OW83326   7.349  11.440   0.723 -0.0890  0.2387 -0.0957
88445SOL    HW183327   7.439  11.423   0.752  0.1622  0.1413 -0.8879
88445SOL    HW283328   7.359  11.471   0.633 -0.8773 -0.1610 -0.3303
88446SOL     OW83329   0.127   7.312  10.392  0.0471  0.7041  0.8062
88446SOL    HW183330   0.052   7.369  10.372 -0.1665  0.5902  1.2703
88446SOL    HW283331   0.114   7.235  10.336  0.8718  1.5275 -0.5816
88447SOL     OW83332   1.649   1.554  10.393 -0.0091  0.2392 -0.8422
88447SOL    HW183333   1.661   1.609  10.316  0.4089  1.3609 -0.0048
88447SOL    HW283334   1.697   1.599  10.463 -2.1920  0.4726  0.6299
88448SOL     OW83335   1.217   3.672   3.014  0.2155 -0.3099  0.4524
88448SOL    HW183336   1.243   3.763   3.000 -0.2631 -0.3917 -1.0789
88448SOL    HW283337   1.165   3.649   2.937  2.5736 -2.7144 -0.5676
88449SOL     OW83338  12.632   9.144  11.500  0.2336 -0.0494 -0.1155
88449SOL    HW183339  12.683   9.087  11.443  1.3480  1.1128 -0.3267
88449SOL    HW283340  12.682   9.146  11.582 -1.2748 -1.5978  0.9280
88450SOL     OW83341   0.199   3.814   2.023 -0.1589 -0.2264 -0.0321
88450SOL    HW183342   0.275   3.757   2.013 -0.1990 -0.2199 -0.3926
88450SOL    HW283343   0.163   3.820   1.935 -0.1578  0.3519  0.0083
88451SOL     OW83344   5.342   4.532   7.397  0.1442  0.2771 -0.3635
88451SOL    HW183345   5.252   4.566   7.393  0.5940  1.4080 -1.4670
88451SOL    HW283346   5.334   4.451   7.446 -1.2170  1.2295  1.1132
88452SOL     OW83347   8.895  11.023   4.946  0.3871 -0.2874 -0.1049
88452SOL    HW183348   8.844  10.943   4.942 -2.0000  1.1413 -0.6194
88452SOL    HW283349   8.953  11.011   5.021  1.5229 -3.1803 -1.3126
88453SOL     OW83350   5.324   6.373   8.193  0.5230  0.4356  0.2530
88453SOL    HW183351   5.354   6.432   8.124 -1.5438  1.5367  0.1909
88453SOL    HW283352   5.256   6.320   8.151  0.1655  0.1928  1.1068
88454SOL     OW83353  10.637   1.447   6.907  0.1666 -0.1520  0.0540
88454SOL    HW183354  10.599   1.360   6.920 -0.1594  0.0219  0.2887
88454SOL    HW283355  10.710   1.451   6.968 -0.9374  0.4114  1.3842
88455SOL     OW83356   2.148   1.043  13.834  0.1963  0.3115 -0.4759
88455SOL    HW183357   2.156   1.096  13.754  0.9379  1.3929  0.2917
88455SOL    HW283358   2.238   1.016  13.854  0.2615  1.4477  0.8969
88456SOL     OW83359   9.540  11.941  11.540 -0.5567  0.2533  0.0451
88456SOL    HW183360   9.610  11.993  11.502 -0.9935  1.6094  1.0183
88456SOL    HW283361   9.568  11.925  11.630 -0.0017 -2.0377 -0.4712
88457SOL     OW83362  13.598  10.824   3.279 -0.4053 -0.3947 -0.3727
88457SOL    HW183363  13.551  10.809   3.196  0.3078  1.6032 -1.1860
88457SOL    HW283364  13.660  10.893   3.259 -0.3496  0.2777  1.9062
88458SOL     OW83365   0.762   0.986   5.394 -0.4953  0.4131  0.0042
88458SOL    HW183366   0.847   1.029   5.402 -0.4992  0.3924  0.1611
88458SOL    HW283367   0.726   0.988   5.483 -1.5436  2.2207 -0.4178
88459SOL     OW83368   6.406   6.439  13.743 -0.0686  0.7453  0.1674
88459SOL    HW183369   6.356   6.400  13.815  1.8184 -0.7030  0.7643
88459SOL    HW283370   6.344   6.440  13.669 -0.7107 -2.0441  0.5522
88460SOL     OW83371   8.782  12.678   0.516 -0.5280  0.2511  0.3111
88460SOL    HW183372   8.780  12.645   0.606 -0.7371  1.9041  0.9408
88460SOL    HW283373   8.835  12.758   0.521 -2.4991  1.6859 -0.5464
88461SOL     OW83374   8.844   4.436   2.948 -0.3429 -0.5601 -0.6854
88461SOL    HW183375   8.813   4.417   2.859 -2.4831  0.8910 -0.3248
88461SOL    HW283376   8.895   4.359   2.972  0.4294 -0.9535 -3.1892
88462SOL     OW83377  11.364   7.177   6.526 -0.1474 -0.0742  0.1320
88462SOL    HW183378  11.427   7.154   6.595 -1.6503 -0.9438  1.2541
88462SOL    HW283379  11.365   7.273   6.524  1.7661 -0.0491 -0.4467
88463SOL     OW83380   3.436   0.077   6.070 -1.1069 -0.2638  0.3618
88463SOL    HW183381   3.373   0.149   6.074 -0.4710  0.2951  0.4699
88463SOL    HW283382   3.400   0.017   6.005 -1.4325  0.3551 -0.0359
88464SOL     OW83383  11.648   0.897   0.527  0.4041 -0.0567  0.3198
88464SOL    HW183384  11.736   0.861   0.541  0.5007 -0.1903 -0.6151
88464SOL    HW283385  11.659   0.960   0.456 -0.2453 -0.0078  0.2589
88465SOL     OW83386   2.246  12.086   9.984  0.1576  0.1762 -0.1794
88465SOL    HW183387   2.198  12.148  10.039  0.8803  0.5561  0.0360
88465SOL    HW283388   2.284  12.140   9.915 -1.5952 -0.4265 -1.7031
88466SOL     OW83389  12.736   8.547   0.783 -0.2739  0.1273  1.2848
88466SOL    HW183390  12.771   8.496   0.856  3.9115  2.0903  0.9435
88466SOL    HW283391  12.778   8.509   0.705 -2.4200 -0.0957  0.1540
88467SOL     OW83392   0.849   1.133   5.058 -0.2982  0.1566 -0.0728
88467SOL    HW183393   0.799   1.052   5.065  0.4086 -0.1506  2.0574
88467SOL    HW283394   0.794   1.200   5.098 -0.1298  0.3727 -0.1938
88468SOL     OW83395   8.488   7.124  12.511  0.1560  0.1127  0.2783
88468SOL    HW183396   8.464   7.215  12.530  1.4036  0.3313  0.8886
88468SOL    HW283397   8.581   7.127  12.491  0.2190 -1.0467  0.3243
88469SOL     OW83398  12.200   8.199   4.901  0.3749 -0.5021  0.8708
88469SOL    HW183399  12.175   8.273   4.957 -0.1964  0.1566 -0.2322
88469SOL    HW283400  12.264   8.235   4.840 -0.8406 -0.5665 -0.4998
88470SOL     OW83401   5.136   1.413   3.899 -0.3400 -0.1347  0.0962
88470SOL    HW183402   5.080   1.487   3.923 -1.1349 -0.2310 -1.3244
88470SOL    HW283403   5.097   1.378   3.819  1.0831 -0.9551 -0.2863
88471SOL     OW83404  11.812   3.298   8.772 -0.5262 -0.0316  0.0670
88471SOL    HW183405  11.833   3.340   8.855 -1.2827 -1.1714  0.8827
88471SOL    HW283406  11.716   3.301   8.768 -0.4668  0.7806 -1.2012
88472SOL     OW83407  10.664  10.852  13.472  0.3645 -0.1840  0.0503
88472SOL    HW183408  10.613  10.909  13.529  0.3303 -0.5488  0.3899
88472SOL    HW283409  10.737  10.907  13.443 -1.2224  0.9845 -2.0234
88473SOL     OW83410   9.867  10.930   0.734 -0.4204  0.5926  0.1158
88473SOL    HW183411   9.842  10.871   0.662  3.1451  0.7774 -1.5002
88473SOL    HW283412   9.880  10.871   0.808  3.0142 -0.9258 -1.4439
88474SOL     OW83413   2.630  13.505   9.247 -0.1619 -0.0871 -0.4578
88474SOL    HW183414   2.635  13.415   9.217  1.5348 -0.3352  0.4426
88474SOL    HW283415   2.721  13.531   9.261 -0.7116  0.6628  2.3966
88475SOL     OW83416  12.421   6.840  10.478 -0.4479 -0.4286 -0.2810
88475SOL    HW183417  12.510   6.810  10.494 -0.0471 -1.0340 -3.1448
88475SOL    HW283418  12.430   6.933  10.456 -0.6047 -0.3424  0.0147
88476SOL     OW83419  11.002   5.765  13.938  0.0369 -0.1167  0.4635
88476SOL    HW183420  11.094   5.787  13.952  0.0420  0.0288  0.2136
88476SOL    HW283421  11.002   5.719  13.854 -0.0244 -0.7486  0.8023
88477SOL     OW83422  11.733   8.426   6.215  0.0885 -0.1214  0.3530
88477SOL    HW183423  11.792   8.486   6.259 -0.7763  0.6725  0.4639
88477SOL    HW283424  11.788   8.352   6.190  1.2554  0.8647 -0.1031
88478SOL     OW83425   0.751  13.841  10.843  0.4005  0.0596 -0.5688
88478SOL    HW183426   0.757  13.770  10.907  0.0897 -0.1478 -0.7658
88478SOL    HW283427   0.780  13.801  10.760  1.1658  0.4264 -0.4857
88479SOL     OW83428   5.167   8.017   5.792  0.1368 -0.0862 -0.2146
88479SOL    HW183429   5.262   8.020   5.799  0.2661  0.5620 -1.8804
88479SOL    HW283430   5.139   8.107   5.810 -0.0516  0.0156 -0.9898
88480SOL     OW83431   4.629   3.619  13.486 -0.4792 -0.8194 -0.4217
88480SOL    HW183432   4.616   3.588  13.575  0.8410  0.4491  0.2341
88480SOL    HW283433   4.716   3.588  13.462  1.0542  2.4444  0.3776
88481SOL     OW83434   9.281   2.535   1.654 -0.4928 -0.1115  0.0469
88481SOL    HW183435   9.215   2.470   1.627 -1.1271  0.7696 -0.5598
88481SOL    HW283436   9.244   2.619   1.629  1.1358  0.3680 -0.8611
88482SOL     OW83437   7.452  12.097  13.701 -0.2392 -0.1145 -0.5301
88482SOL    HW183438   7.486  12.169  13.647 -1.2028  0.1200 -0.8419
88482SOL    HW283439   7.403  12.042  13.640 -2.9035  1.1084  0.3288
88483SOL     OW83440   0.404   3.901   7.764 -0.0953 -0.8028 -0.1472
88483SOL    HW183441   0.481   3.957   7.752  0.3801 -1.5038 -0.4349
88483SOL    HW283442   0.403   3.846   7.686 -1.8143  0.2664 -0.9476
88484SOL     OW83443  12.525   3.349   3.054 -0.2637  0.1574 -0.3370
88484SOL    HW183444  12.550   3.308   2.971  1.7684 -0.7005  0.6218
88484SOL    HW283445  12.459   3.414   3.030 -1.2938 -1.5016 -2.3353
88485SOL     OW83446  12.331   5.281   3.157 -0.1287  0.1051  0.1648
88485SOL    HW183447  12.296   5.365   3.127 -0.7282 -0.0296  0.4642
88485SOL    HW283448  12.409   5.303   3.207 -0.4627  0.5056  0.5085
88486SOL     OW83449   7.987   6.795   0.626  0.2546  0.5273  0.1606
88486SOL    HW183450   7.913   6.740   0.598  1.0875  0.0269 -1.1875
88486SOL    HW283451   7.983   6.795   0.721 -0.1719 -1.3672  0.1827
88487SOL     OW83452   9.701   5.545   3.532  0.5258  0.2212 -0.2589
88487SOL    HW183453   9.783   5.594   3.530  0.4900  0.2740 -0.4546
88487SOL    HW283454   9.728   5.454   3.541  0.6294  0.1841 -0.8697
88488SOL     OW83455   7.065   6.224   4.794  0.6711  0.0291  0.1555
88488SOL    HW183456   7.152   6.261   4.780  0.6002  0.4681  0.8186
88488SOL    HW283457   7.017   6.244   4.713  1.3979 -0.8692 -0.5170
88489SOL     OW83458  11.858   3.527   5.178  0.1859 -0.2261 -0.4884
88489SOL    HW183459  11.826   3.614   5.156  1.8192  0.8765  1.2251
88489SOL    HW283460  11.831   3.472   5.104  0.6754  2.0967 -2.5126
88490SOL     OW83461   0.758   2.762  11.026 -0.2191 -0.6291  0.1795
88490SOL    HW183462   0.849   2.746  11.000  0.0879  1.4946 -0.2623
88490SOL    HW283463   0.706   2.721  10.957  0.4270 -1.1324 -0.0205
88491SOL     OW83464   6.052  12.462   3.429 -0.2545 -0.2925  0.9292
88491SOL    HW183465   6.134  12.460   3.477  0.4623 -0.7442 -0.2809
88491SOL    HW283466   6.002  12.533   3.471 -0.0507 -1.2524  2.9047
88492SOL     OW83467  11.796   7.777  12.488  0.4278 -0.0481  0.4899
88492SOL    HW183468  11.770   7.686  12.469 -1.0761 -0.0429  2.2131
88492SOL    HW283469  11.881   7.769  12.532  0.5639 -0.5837  0.1342
88493SOL     OW83470  10.566   9.968   6.131 -0.0381 -0.3243 -0.5960
88493SOL    HW183471  10.553   9.886   6.084  0.4852  0.6217 -2.4732
88493SOL    HW283472  10.661   9.977   6.138 -0.1004 -0.4443  0.6963
88494SOL     OW83473   3.682   4.439   1.155  0.5899  0.2349  0.1543
88494SOL    HW183474   3.717   4.498   1.088  1.5776 -0.4616  0.0403
88494SOL    HW283475   3.667   4.357   1.108 -0.3093  0.2435  0.4197
88495SOL     OW83476   2.121  13.534  12.322  0.7376 -0.4597  0.5600
88495SOL    HW183477   2.205  13.566  12.288  0.1305  0.4106 -0.1919
88495SOL    HW283478   2.085  13.608  12.370 -0.5430 -0.0492 -0.9167
88496SOL     OW83479  11.350   6.431   1.039  0.6297 -0.2361  0.0233
88496SOL    HW183480  11.280   6.483   0.999 -0.7644 -1.1431  1.1794
88496SOL    HW283481  11.395   6.390   0.965 -0.2777  0.1114 -0.7436
88497SOL     OW83482  10.381   7.254   5.432 -0.4102  0.0316 -0.0735
88497SOL    HW183483  10.375   7.349   5.426 -0.6079  0.0460  0.3279
88497SOL    HW283484  10.459   7.232   5.381  0.6549  0.5683  1.2572
88498SOL     OW83485   1.998   8.359   5.527  0.7213  0.0628  0.0560
88498SOL    HW183486   2.089   8.332   5.510  0.3657 -2.2567  1.4600
88498SOL    HW283487   2.000   8.393   5.617  0.3675  1.0797 -0.3033
88499SOL     OW83488   1.041  10.205  12.674 -0.2628 -0.4948 -0.8716
88499SOL    HW183489   1.076  10.116  12.668  1.4007  0.0701  0.0287
88499SOL    HW283490   1.040  10.224  12.768 -1.1970  0.2283 -1.0124
88500SOL     OW83491  11.292  10.387   5.337 -0.3508 -0.3142  0.2986
88500SOL    HW183492  11.262  10.475   5.360 -0.9882 -0.4356 -0.0516
88500SOL    HW283493  11.371  10.402   5.285  0.9322 -0.0252  2.2402
88501SOL     OW83494   9.005   0.010   9.498  0.3839 -0.1100  0.1222
88501SOL    HW183495   9.061  -0.067   9.495  1.5853  0.7715 -1.2360
88501SOL    HW283496   8.992   0.026   9.592  3.1749  0.1435  0.5583
88502SOL     OW83497   4.210  11.068   4.910 -0.2043 -0.1661 -0.5427
88502SOL    HW183498   4.153  11.067   4.986  0.3925  1.4065 -0.0301
88502SOL    HW283499   4.215  10.977   4.882 -1.3207 -0.6074  0.6207
88503SOL     OW83500  10.284  12.299   6.555 -0.4661 -0.1330  0.3416
88503SOL    HW183501  10.198  12.270   6.585 -0.0119 -1.2412  0.6093
88503SOL    HW283502  10.332  12.319   6.635 -0.3523  0.1566  0.2035
88504SOL     OW83503   4.124   9.003  10.588 -0.0869 -0.1852 -0.7737
88504SOL    HW183504   4.167   9.071  10.536 -0.0499  0.5739  0.2080
88504SOL    HW283505   4.194   8.944  10.614  0.1498  0.2724 -0.3451
88505SOL     OW83506   1.995   0.282   8.064 -0.0730 -0.6244 -0.2713
88505SOL    HW183507   1.972   0.272   7.971 -1.5190 -1.2555  0.1174
88505SOL    HW283508   2.070   0.224   8.076 -0.1151 -0.8373 -0.9584
88506SOL     OW83509   6.934  11.989   5.251 -0.1365 -0.2598  0.4885
88506SOL    HW183510   6.972  11.908   5.218  0.1300 -0.0048  0.1611
88506SOL    HW283511   6.997  12.019   5.317 -0.2731 -0.3599  0.6637
88507SOL     OW83512  10.105   5.516   3.349 -0.3913  0.2780 -0.5434
88507SOL    HW183513  10.105   5.426   3.316 -0.8493 -0.0333  0.2848
88507SOL    HW283514  10.021   5.552   3.321 -0.7138  0.0632  0.1180
88508SOL     OW83515  13.520   6.652   8.090  0.0893  0.1763  0.5130
88508SOL    HW183516  13.504   6.586   8.157 -0.0196  0.9598  1.2727
88508SOL    HW283517  13.600   6.623   8.046 -0.2123 -0.6974  0.5294
88509SOL     OW83518  10.263   1.287   0.864 -0.3861 -0.4828 -0.4428
88509SOL    HW183519  10.296   1.252   0.946 -0.1784  1.0347  0.1542
88509SOL    HW283520  10.332   1.345   0.832 -0.5350 -0.9168 -1.6196
88510SOL     OW83521   2.817   7.345  11.064 -0.3254 -0.3668 -0.0961
88510SOL    HW183522   2.864   7.368  11.143  1.1103  1.9160 -1.5284
88510SOL    HW283523   2.725   7.360  11.086 -0.2620 -2.3342  1.8961
88511SOL     OW83524   5.047   8.199   8.403 -0.2882  0.5363 -0.5824
88511SOL    HW183525   4.954   8.193   8.381 -0.3500 -1.8862  0.1286
88511SOL    HW283526   5.059   8.140   8.477  1.6095  1.7416  0.1537
88512SOL     OW83527  11.777  10.433   9.688 -0.0075 -0.3583  0.5699
88512SOL    HW183528  11.737  10.352   9.721 -0.4694 -0.7505 -0.8932
88512SOL    HW283529  11.720  10.461   9.616  0.8307  0.5938  0.2570
88513SOL     OW83530  11.689   1.034  13.796 -0.2237  0.2705 -0.9181
88513SOL    HW183531  11.614   1.075  13.838  0.7591  0.1505  1.1032
88513SOL    HW283532  11.740   1.108  13.761  0.5273  0.6895  0.9440
88514SOL     OW83533   7.588   1.586   0.030 -0.2841 -0.0891 -0.1333
88514SOL    HW183534   7.592   1.681   0.040  1.7165 -0.0857 -0.6141
88514SOL    HW283535   7.591   1.572  -0.065  1.3907 -0.6523 -0.0302
88515SOL     OW83536   9.222   6.500   9.904 -0.4476 -0.0865  0.4323
88515SOL    HW183537   9.158   6.565   9.933 -0.7420 -0.5573  0.8529
88515SOL    HW283538   9.228   6.514   9.809 -0.1083  0.9006  0.5800
88516SOL     OW83539   7.895   8.571   9.130  0.3083 -0.0719 -0.4176
88516SOL    HW183540   7.871   8.589   9.039  0.4556 -1.4428 -0.7497
88516SOL    HW283541   7.847   8.637   9.181  0.0278  0.5573 -1.4571
88517SOL     OW83542  13.621   6.081   8.828 -0.2117  0.0896 -0.1606
88517SOL    HW183543  13.583   6.163   8.797 -0.1171  0.6092  1.0603
88517SOL    HW283544  13.562   6.053   8.898  0.1683 -0.5015 -0.0735
88518SOL     OW83545  12.961  11.916   5.985 -0.1069 -0.5789  0.1599
88518SOL    HW183546  13.008  11.989   5.943 -0.5129 -0.6745 -0.4795
88518SOL    HW283547  12.891  11.958   6.035  0.0731 -0.4885  0.3330
88519SOL     OW83548   1.277   7.350   2.998 -0.0081 -0.0244 -0.5812
88519SOL    HW183549   1.223   7.412   2.949 -0.0157 -0.0031 -0.5459
88519SOL    HW283550   1.307   7.287   2.933 -0.5747 -0.3866 -0.4919
88520SOL     OW83551   4.709   3.643  12.011 -0.9161 -1.0087  0.2749
88520SOL    HW183552   4.751   3.693  12.081  1.5334 -0.1767 -1.6397
88520SOL    HW283553   4.746   3.555  12.018  2.7613  0.0840 -2.3401
88521SOL     OW83554  10.460   3.155   0.395  0.4407 -0.0005 -0.2688
88521SOL    HW183555  10.452   3.158   0.300  0.4181 -2.2661 -0.3898
88521SOL    HW283556  10.545   3.194   0.414  0.4909  0.3653 -1.2153
88522SOL     OW83557  10.454   9.386   1.863 -0.6404  0.1871 -0.3504
88522SOL    HW183558  10.489   9.323   1.926  0.0514  0.9528  0.0371
88522SOL    HW283559  10.512   9.379   1.787  0.1895  1.2191  0.1651
88523SOL     OW83560   1.202   2.687   2.961 -1.0931  0.4236  0.0690
88523SOL    HW183561   1.216   2.671   2.867 -0.4457 -0.8916  0.3643
88523SOL    HW283562   1.229   2.606   3.003  1.4338  1.9529  1.6573
88524SOL     OW83563  12.947   6.286  11.685 -0.5951  0.5008  0.5092
88524SOL    HW183564  13.019   6.337  11.722 -1.8607  2.8325 -0.0491
88524SOL    HW283565  12.966   6.283  11.591 -1.1764  1.0855  0.3676
88525SOL     OW83566  11.060   9.951   8.784 -0.3052  0.1367  0.1786
88525SOL    HW183567  11.000   9.939   8.858  0.9909  1.9413  1.6226
88525SOL    HW283568  11.100   9.865   8.771 -0.3559 -0.1619  1.8038
88526SOL     OW83569   9.468   8.424  10.042 -0.2127  0.1624 -0.3057
88526SOL    HW183570   9.409   8.425   9.967 -0.8274  0.3708  0.1656
88526SOL    HW283571   9.462   8.513  10.078  1.0921  0.4534 -0.7812
88527SOL     OW83572  12.005  11.073  12.790  0.1058  0.1454 -0.2745
88527SOL    HW183573  12.096  11.074  12.820  0.0620 -3.7130  0.4736
88527SOL    HW283574  12.005  11.129  12.713  2.8447  1.1707  0.3419
88528SOL     OW83575   4.981   3.050  13.916  0.0025 -0.2540  0.4025
88528SOL    HW183576   4.931   3.123  13.880  1.3920  0.0315 -1.0798
88528SOL    HW283577   5.002   2.995  13.840 -0.4958 -1.8921  1.4021
88529SOL     OW83578   2.189   6.288   7.661  0.5121 -0.5507 -0.8653
88529SOL    HW183579   2.224   6.274   7.574  1.4907 -1.3840 -0.3595
88529SOL    HW283580   2.248   6.352   7.701 -0.6992  0.8739 -1.2330
88530SOL     OW83581   5.857   6.398  13.740 -0.1313  0.4015  0.1493
88530SOL    HW183582   5.849   6.483  13.697  1.0030 -0.5839 -2.2371
88530SOL    HW283583   5.771   6.358  13.731 -0.7094  1.2912  1.4004
88531SOL     OW83584   2.923   3.496  13.109 -0.3769 -0.0331  0.1670
88531SOL    HW183585   2.908   3.409  13.070  1.5226 -0.8625  1.1545
88531SOL    HW283586   2.846   3.511  13.164 -1.0444 -0.7746 -0.5195
88532SOL     OW83587   3.969  11.162   6.006  0.0774  0.9287  0.6351
88532SOL    HW183588   3.977  11.163   6.102 -0.1048 -0.6525  0.6883
88532SOL    HW283589   3.894  11.104   5.989  1.6291 -0.8538 -0.5173
88533SOL     OW83590   2.711   0.501   5.548  0.7209 -0.4035 -0.2839
88533SOL    HW183591   2.622   0.515   5.516  0.7711 -0.5891 -0.5072
88533SOL    HW283592   2.765   0.563   5.497  1.0791 -2.0095 -1.9408
88534SOL     OW83593   4.835  13.979  11.910  0.1573 -0.3254 -0.0869
88534SOL    HW183594   4.819  13.930  11.829 -1.6134 -1.9710  1.1743
88534SOL    HW283595   4.800  14.066  11.892 -0.7964 -0.8540 -0.8709
88535SOL     OW83596   2.962   6.426   9.885  0.1320  0.3846 -0.5022
88535SOL    HW183597   2.899   6.446   9.816 -1.9090 -1.3438  0.7485
88535SOL    HW283598   2.933   6.479   9.960  0.9515  0.5163 -0.2676
88536SOL     OW83599   6.444   2.373   3.164 -0.1669  0.0194 -0.4069
88536SOL    HW183600   6.376   2.440   3.174  0.0575  0.0812  0.7833
88536SOL    HW283601   6.445   2.327   3.248  0.6128 -0.6052 -0.7498
88537SOL     OW83602   2.278   1.240   9.590 -0.5103 -0.0962  0.4695
88537SOL    HW183603   2.317   1.166   9.637 -0.4614  0.5542  1.4622
88537SOL    HW283604   2.346   1.266   9.527  0.1137  0.1330  1.2242
88538SOL     OW83605   0.238   9.535   3.211  0.2834 -0.2677 -0.2672
88538SOL    HW183606   0.289   9.615   3.198 -1.5158  0.7248 -1.4932
88538SOL    HW283607   0.243   9.489   3.126 -4.4449  2.0795 -2.1844
88539SOL     OW83608   7.613   6.195   2.381  0.3235 -0.2658  0.4378
88539SOL    HW183609   7.527   6.226   2.355  0.6265  0.3098  0.0990
88539SOL    HW283610   7.596   6.126   2.446 -0.4152 -1.0251 -0.5410
88540SOL     OW83611   6.714  12.559  13.661 -0.5033  0.4733  0.1795
88540SOL    HW183612   6.748  12.648  13.651 -1.4627  0.8481  0.1641
88540SOL    HW283613   6.651  12.565  13.733  0.2465 -0.4458  0.9312
88541SOL     OW83614  12.734   9.100   5.469  0.0359 -0.0702  0.0613
88541SOL    HW183615  12.771   9.099   5.557  0.5346  0.9265 -0.1146
88541SOL    HW283616  12.756   9.188   5.436 -3.0863  0.8622  0.1981
88542SOL     OW83617   9.768   1.959   2.017 -0.6546  0.2422  0.6404
88542SOL    HW183618   9.794   2.045   1.985 -0.2575 -0.8395 -2.1611
88542SOL    HW283619   9.851   1.913   2.034 -0.7621 -0.5420 -0.7635
88543SOL     OW83620  11.588   8.222   8.091 -0.2859  0.6013  0.4514
88543SOL    HW183621  11.516   8.217   8.154  0.2377  2.3977  1.2759
88543SOL    HW283622  11.658   8.170   8.131  0.2230  2.1467  1.6932
88544SOL     OW83623   1.445   6.311  12.252 -0.3826 -0.8195 -0.6532
88544SOL    HW183624   1.498   6.373  12.303 -0.3578  0.2634 -1.9464
88544SOL    HW283625   1.357   6.319  12.288 -0.1343 -0.9405 -0.0049
88545SOL     OW83626   0.757   5.449  13.766 -0.0344 -0.0973 -0.0205
88545SOL    HW183627   0.844   5.454  13.725  0.0028 -0.2383  0.0421
88545SOL    HW283628   0.708   5.388  13.712 -0.1349  0.0780 -0.1284
88546SOL     OW83629   0.067   1.522   4.953 -0.1909 -0.2160 -0.0719
88546SOL    HW183630   0.059   1.436   4.913 -0.1599  0.2009 -1.0075
88546SOL    HW283631   0.154   1.553   4.926  0.0187 -0.1181  0.7076
88547SOL     OW83632   5.171   3.160   4.910  0.2010  0.1704 -0.2162
88547SOL    HW183633   5.248   3.212   4.934  0.3945  0.1095 -0.7083
88547SOL    HW283634   5.174   3.084   4.967  0.7604 -0.0622 -0.5562
88548SOL     OW83635   0.083   8.693   9.574 -0.0806  0.2364 -0.0221
88548SOL    HW183636   0.100   8.615   9.523 -0.9684 -1.0690  1.5750
88548SOL    HW283637   0.160   8.703   9.630  0.1818  0.7238 -0.4587
88549SOL     OW83638  12.657   6.716  14.041 -0.2002  0.3496  0.0160
88549SOL    HW183639  12.740   6.755  14.015 -0.3667 -0.2148 -1.4705
88549SOL    HW283640  12.639   6.752  14.128  2.0931 -0.3294  0.8397
88550SOL     OW83641   9.456   0.634   1.524 -0.0133 -0.3187 -0.7900
88550SOL    HW183642   9.442   0.728   1.517 -1.9377 -0.3227  1.7037
88550SOL    HW283643   9.527   0.624   1.587  1.5013 -0.5622 -2.4712
88551SOL     OW83644   2.785   1.309   0.698  0.2189  0.1882  0.0907
88551SOL    HW183645   2.786   1.402   0.721  1.1825  0.2571 -0.1809
88551SOL    HW283646   2.813   1.265   0.777  1.0919  0.2422 -0.1738
88552SOL     OW83647   7.099   5.701   4.400  0.2034 -0.0400  0.2813
88552SOL    HW183648   7.070   5.769   4.461 -1.7695 -0.0588 -0.5662
88552SOL    HW283649   7.058   5.621   4.431  0.1773 -0.2826 -0.3594
88553SOL     OW83650  10.727   7.295  11.497 -0.1695  0.1738  0.4233
88553SOL    HW183651  10.760   7.304  11.407  0.4668  0.5249  0.6875
88553SOL    HW283652  10.806   7.282  11.550 -0.5690 -0.3888  0.8904
88554SOL     OW83653   8.017   4.069  11.243  0.2244 -0.1853 -0.3183
88554SOL    HW183654   8.097   4.041  11.200  0.8705  1.2806 -0.1477
88554SOL    HW283655   8.045   4.137  11.305 -0.8932 -1.0326  1.1910
88555SOL     OW83656   0.382  10.970   0.888 -0.3236  0.3801  0.0614
88555SOL    HW183657   0.415  10.931   0.807 -0.3514 -0.4127  0.4230
88555SOL    HW283658   0.307  10.915   0.913  0.4495 -0.1488  1.2880
88556SOL     OW83659  11.482  11.752  10.396 -0.5204  0.1643  0.2918
88556SOL    HW183660  11.510  11.692  10.326 -0.5671  0.8924 -0.3596
88556SOL    HW283661  11.543  11.826  10.390 -0.4253  0.1642  1.1318
88557SOL     OW83662   1.517  13.666   1.686 -0.0782  0.2919 -0.2327
88557SOL    HW183663   1.505  13.721   1.609 -0.7244  0.8272  0.2436
88557SOL    HW283664   1.580  13.599   1.658 -0.1380  0.6099 -1.1506
88558SOL     OW83665  11.716  13.502   7.450  0.5385 -0.6561  0.2241
88558SOL    HW183666  11.654  13.450   7.500  0.2481  0.8524  1.5237
88558SOL    HW283667  11.726  13.583   7.501  0.5513  0.8041 -1.9549
88559SOL     OW83668  11.322   4.936   0.390  0.3032  0.7870 -0.3139
88559SOL    HW183669  11.351   4.970   0.305  4.0513 -0.2188  0.3787
88559SOL    HW283670  11.351   5.001   0.453 -1.4043  0.9703  0.3145
88560SOL     OW83671   6.912   6.284  11.890 -0.4260  0.6811  0.0655
88560SOL    HW183672   6.999   6.323  11.877  0.6430 -0.9363  1.8303
88560SOL    HW283673   6.905   6.218  11.820 -0.3551  0.9799 -0.2288
88561SOL     OW83674   0.168   8.731   8.595  0.6363  0.4237 -0.0415
88561SOL    HW183675   0.172   8.826   8.605 -1.6408  0.6793 -0.8923
88561SOL    HW283676   0.155   8.698   8.683 -4.0632  1.4354 -0.0876
88562SOL     OW83677   0.117  12.468   2.997 -0.3378 -0.6617  0.0004
88562SOL    HW183678   0.115  12.482   3.091  0.5489 -3.3744  0.5068
88562SOL    HW283679   0.037  12.419   2.978  0.1255 -1.2652 -0.4270
88563SOL     OW83680   8.678   4.800  10.645 -0.9184 -0.0855 -0.4302
88563SOL    HW183681   8.656   4.886  10.608 -0.6449 -0.4794 -1.5492
88563SOL    HW283682   8.761   4.814  10.691 -0.9240  0.2671 -0.5224
88564SOL     OW83683  12.812  14.102   1.166  0.4686  0.1056 -0.2302
88564SOL    HW183684  12.825  14.169   1.233 -1.5822 -1.8961  2.4189
88564SOL    HW283685  12.765  14.146   1.096  3.4349  2.4908 -0.9286
88565SOL     OW83686   2.459  12.534  10.904  0.2123  0.0855  0.0994
88565SOL    HW183687   2.401  12.607  10.882  0.8840  0.5840 -0.0924
88565SOL    HW283688   2.467  12.536  10.999  0.7880  0.7294  0.0499
88566SOL     OW83689  11.114  11.123   2.545  0.2622  0.1083  0.2489
88566SOL    HW183690  11.099  11.035   2.510 -0.5545  0.2272  0.2899
88566SOL    HW283691  11.190  11.112   2.603  0.0570 -0.6127  0.4024
88567SOL     OW83692  11.851  13.141   9.806 -0.5728 -0.0708 -0.1899
88567SOL    HW183693  11.823  13.112   9.720 -1.8531 -1.6972  0.7087
88567SOL    HW283694  11.938  13.103   9.817 -1.3531 -1.8901  0.1076
88568SOL     OW83695  11.146   5.833  11.751 -0.1325 -0.3480  0.0326
88568SOL    HW183696  11.234   5.796  11.741 -0.1984 -0.3915 -0.4397
88568SOL    HW283697  11.089   5.756  11.751 -0.3251 -0.2419 -1.6053
88569SOL     OW83698   1.113  11.736   7.016  0.2391 -0.5219  0.2842
88569SOL    HW183699   1.170  11.737   7.093 -0.8320 -1.6455  1.1602
88569SOL    HW283700   1.163  11.778   6.947  1.6927 -0.5321  1.2956
88570SOL     OW83701   9.676  11.922   3.961 -0.5381 -0.1308  0.7194
88570SOL    HW183702   9.677  11.930   3.866  0.3408 -0.7186  0.6689
88570SOL    HW283703   9.739  11.852   3.980 -1.1940 -0.4802  1.6894
88571SOL     OW83704  10.843   2.440   7.921  0.1713 -0.4065  0.3974
88571SOL    HW183705  10.878   2.504   7.860  0.8068  1.0286  2.1574
88571SOL    HW283706  10.757   2.418   7.886  1.2942 -1.2125 -2.0559
88572SOL     OW83707  10.255   2.920  13.415  0.2240  0.1419  0.1912
88572SOL    HW183708  10.311   2.849  13.448  1.0960  0.8347  0.2527
88572SOL    HW283709  10.173   2.878  13.392  0.1021 -0.6215  1.8651
88573SOL     OW83710  13.813   6.849   8.302 -0.0729  0.3221 -0.0961
88573SOL    HW183711  13.833   6.758   8.324  1.8685  0.2965 -1.6879
88573SOL    HW283712  13.750   6.877   8.369 -0.7829 -2.1899  0.3778
88574SOL     OW83713  11.117  10.790   1.438  0.3232  0.0619  0.5515
88574SOL    HW183714  11.141  10.875   1.401 -1.0768  0.3208  0.2013
88574SOL    HW283715  11.071  10.745   1.367 -0.9596 -0.0737  1.4381
88575SOL     OW83716  13.515  13.475   3.030  0.1727 -0.2022  0.3547
88575SOL    HW183717  13.520  13.419   3.108 -2.4741 -0.5833  0.3405
88575SOL    HW283718  13.486  13.415   2.961  0.1416  0.6222 -0.3512
88576SOL     OW83719   3.566  11.960   8.116 -0.4792 -0.3801  0.1447
88576SOL    HW183720   3.579  11.875   8.160 -1.1722 -1.3740 -1.4832
88576SOL    HW283721   3.564  11.938   8.023  0.8005  1.6496 -0.4060
88577SOL     OW83722   2.514  11.169   6.700  0.0096 -0.1238 -0.2585
88577SOL    HW183723   2.495  11.217   6.780  0.6475  0.0137 -0.1908
88577SOL    HW283724   2.427  11.145   6.666 -0.3447  1.3406 -0.4658
88578SOL     OW83725   5.562   2.044   3.601  0.5708 -0.8119 -0.4684
88578SOL    HW183726   5.625   2.105   3.563  1.6635 -1.2494  0.5989
88578SOL    HW283727   5.502   2.101   3.650  0.6416 -0.4665 -0.7723
88579SOL     OW83728   4.592   7.661   6.797 -0.0106  0.2953 -0.8720
88579SOL    HW183729   4.645   7.582   6.810  1.6208  1.4658  0.0546
88579SOL    HW283730   4.602   7.682   6.704  1.8477  0.8727 -0.6029
88580SOL     OW83731   1.259   6.134   6.070 -0.1720 -0.7079 -0.2494
88580SOL    HW183732   1.250   6.225   6.043 -2.4973 -1.7315 -3.5233
88580SOL    HW283733   1.219   6.130   6.157 -0.5546  1.2591 -0.2907
88581SOL     OW83734  10.191   8.445   6.283  0.2769 -0.0921  0.2442
88581SOL    HW183735  10.185   8.375   6.218 -2.3336  0.7379 -0.5248
88581SOL    HW283736  10.247   8.511   6.242 -1.6872  0.6228 -1.4480
88582SOL     OW83737  11.595  12.343   6.471 -0.2371  0.1241  0.1836
88582SOL    HW183738  11.541  12.378   6.400  0.2353  0.8786  0.1890
88582SOL    HW283739  11.682  12.333   6.432 -0.3567 -1.0374  0.1899
88583SOL     OW83740   0.342   1.149   6.458  0.3849 -0.3788 -0.8052
88583SOL    HW183741   0.429   1.114   6.474 -0.7497 -2.0205  3.2179
88583SOL    HW283742   0.355   1.243   6.448  2.5963 -0.4460  0.8023
88584SOL     OW83743   3.120   7.652   2.218 -0.3559  0.4574 -0.0869
88584SOL    HW183744   3.079   7.622   2.138 -0.9063  0.3353  0.2329
88584SOL    HW283745   3.140   7.744   2.202  1.5393 -0.1054 -1.1484
88585SOL     OW83746   1.403   3.007   0.549 -0.4008 -0.0381  0.2651
88585SOL    HW183747   1.309   3.015   0.531 -0.4144 -0.3190  0.2010
88585SOL    HW283748   1.409   2.943   0.620 -0.1906 -1.1010 -0.6667
88586SOL     OW83749  12.708   7.120   6.388  0.3240  0.5555 -0.3066
88586SOL    HW183750  12.744   7.094   6.303  1.2442 -0.0921  0.2609
88586SOL    HW283751  12.759   7.198   6.412 -1.1601  1.8458 -1.1477
88587SOL     OW83752   9.254   1.588  10.047  0.1677 -0.1678 -0.7483
88587SOL    HW183753   9.258   1.671   9.999 -1.3537  0.7526  0.6363
88587SOL    HW283754   9.333   1.541  10.020 -0.8428 -0.0050 -4.5825
88588SOL     OW83755  11.510   4.651   1.565 -0.5894  0.4844 -0.1333
88588SOL    HW183756  11.458   4.639   1.644  0.8653 -0.5603  0.7151
88588SOL    HW283757  11.480   4.734   1.529 -3.0609 -0.2337  0.0994
88589SOL     OW83758   0.406   2.317   0.592  0.3237  0.5323 -0.5538
88589SOL    HW183759   0.352   2.240   0.574  0.4771  0.6253 -1.4656
88589SOL    HW283760   0.494   2.292   0.562  0.3344  1.1284 -1.0302
88590SOL     OW83761  13.614   6.263   4.002 -0.0829 -0.3339  0.0888
88590SOL    HW183762  13.637   6.202   4.071 -0.6997 -0.3505  0.2897
88590SOL    HW283763  13.673   6.337   4.013  0.2277 -0.6070  0.2509
88591SOL     OW83764   4.801   2.516   3.750  0.2343  1.1578 -0.3770
88591SOL    HW183765   4.756   2.579   3.806  0.4651  0.3330  0.7827
88591SOL    HW283766   4.788   2.432   3.794  1.2201  0.6189 -1.0774
88592SOL     OW83767   9.215   1.876   8.148 -1.0191 -0.1088 -0.0119
88592SOL    HW183768   9.131   1.838   8.123 -1.3106 -0.9881  2.1094
88592SOL    HW283769   9.195   1.933   8.222 -0.3031  2.9066 -1.9705
88593SOL     OW83770  13.597   9.614   4.840 -0.0135  0.0799  0.2847
88593SOL    HW183771  13.562   9.623   4.751 -0.0169  2.3957  0.4706
88593SOL    HW283772  13.684   9.574   4.827 -0.4380 -0.5953 -0.6405
88594SOL     OW83773   7.985  12.471   9.812 -0.4589 -0.1724  0.1866
88594SOL    HW183774   7.920  12.539   9.826  1.1294  0.9150  3.1863
88594SOL    HW283775   8.049  12.511   9.753 -0.5188  0.2270  0.3900
88595SOL     OW83776   0.124  10.108   0.455 -0.5523 -0.6922  0.7143
88595SOL    HW183777   0.149  10.155   0.534 -0.7402  0.0543  0.3393
88595SOL    HW283778   0.031  10.127   0.443 -0.7672 -1.6010  0.8469
88596SOL     OW83779   9.557   2.603  10.163 -0.8170  0.5634 -0.0366
88596SOL    HW183780   9.622   2.618  10.095 -0.8851 -1.0003 -0.4873
88596SOL    HW283781   9.594   2.534  10.218 -1.2599  1.0053  0.8406
88597SOL     OW83782  11.215   1.756  13.748 -0.4812 -0.0384 -0.3344
88597SOL    HW183783  11.197   1.663  13.754  1.0588 -0.3016  1.2103
88597SOL    HW283784  11.244   1.781  13.836  2.4119  1.1138 -1.4715
88598SOL     OW83785  11.842   6.358   4.327  0.2151 -0.1034  0.3856
88598SOL    HW183786  11.751   6.360   4.357 -0.5994  1.8318 -1.9147
88598SOL    HW283787  11.865   6.450   4.314  2.0584 -0.6273 -0.3572
88599SOL     OW83788  12.265   3.250   1.573 -0.5189  0.2440 -0.0152
88599SOL    HW183789  12.361   3.255   1.566 -0.5458  2.2807  0.4459
88599SOL    HW283790  12.233   3.290   1.492 -1.0531 -2.0365 -1.0085
88600SOL     OW83791   8.958   7.922  10.849 -0.0269 -0.1004  0.2122
88600SOL    HW183792   8.898   7.877  10.790  0.4261  0.4508 -0.6996
88600SOL    HW283793   9.034   7.865  10.855  0.4499  0.4017 -0.7577
88601SOL     OW83794  10.749   1.798   0.629  0.0334 -0.8232 -0.2859
88601SOL    HW183795  10.795   1.740   0.568  1.6185  0.3359 -0.2401
88601SOL    HW283796  10.686   1.846   0.574  1.3079  0.0641 -1.0177
88602SOL     OW83797   5.147  12.826   6.581  0.1643 -0.3943 -0.7985
88602SOL    HW183798   5.112  12.847   6.668 -1.6752 -0.2393 -1.5273
88602SOL    HW283799   5.152  12.730   6.580 -0.7974 -0.4528 -0.8655
88603SOL     OW83800   1.288   6.979  13.463 -0.2508  0.4872 -0.3751
88603SOL    HW183801   1.194   6.985  13.444 -0.1232  0.7806 -0.9409
88603SOL    HW283802   1.303   6.887  13.485 -0.9411  0.7265  1.2001
88604SOL     OW83803  12.163   0.865   1.295  0.2168 -0.2007  0.2382
88604SOL    HW183804  12.070   0.845   1.283  0.2882 -0.4490  0.0862
88604SOL    HW283805  12.172   0.882   1.389 -0.0092 -0.0374  0.2298
88605SOL     OW83806   7.703   9.264   0.218  0.3311 -0.3125 -0.0930
88605SOL    HW183807   7.637   9.332   0.234 -0.2465 -1.3621  2.3103
88605SOL    HW283808   7.787   9.310   0.225 -0.0662  0.3009  0.7649
88606SOL     OW83809   6.368  12.230  12.702 -0.3244  0.0688  0.3354
88606SOL    HW183810   6.451  12.224  12.748 -0.0052 -0.0214 -0.2405
88606SOL    HW283811   6.389  12.206  12.611 -0.6701  1.5358 -0.1574
88607SOL     OW83812   0.131  12.862  13.791  0.1572  0.2629  0.1415
88607SOL    HW183813   0.087  12.777  13.795 -0.8420  0.6818 -1.0054
88607SOL    HW283814   0.103  12.908  13.870 -0.9915  0.2719 -0.2494
88608SOL     OW83815   5.795  10.077  11.660 -0.5089 -0.3780  0.0557
88608SOL    HW183816   5.828  10.117  11.741 -0.5414 -0.2333 -0.0009
88608SOL    HW283817   5.872  10.066  11.605 -0.5198 -0.2668  0.0180
88609SOL     OW83818   2.136  10.911   4.420  0.9836  0.7122  0.0747
88609SOL    HW183819   2.113  10.961   4.342  1.3702 -1.2395 -1.3741
88609SOL    HW283820   2.186  10.836   4.387 -0.2024 -1.0509  1.9997
88610SOL     OW83821  13.640   4.110   6.849  0.0814 -0.1788  0.3912
88610SOL    HW183822  13.587   4.064   6.913  1.5557  0.0662  1.8517
88610SOL    HW283823  13.640   4.053   6.772 -2.4537 -0.0593  0.2329
88611SOL     OW83824   8.967  10.082   2.835  0.6256 -0.5667  0.3176
88611SOL    HW183825   8.910  10.159   2.842  0.9773 -0.3024  0.2921
88611SOL    HW283826   8.926  10.017   2.891 -1.2672 -1.3575 -1.8266
88612SOL     OW83827   5.883   3.798   9.106 -0.4291 -0.5931 -0.1256
88612SOL    HW183828   5.807   3.856   9.121 -1.0790 -1.3677 -0.3563
88612SOL    HW283829   5.870   3.726   9.168 -0.8121 -1.6036 -1.3380
88613SOL     OW83830   2.922   6.542   0.035  0.0484 -0.4198 -0.1826
88613SOL    HW183831   2.886   6.627   0.061 -0.7501 -0.8940  0.3283
88613SOL    HW283832   2.989   6.562  -0.029 -0.7290  0.5470 -0.7161
88614SOL     OW83833  10.343   7.202  13.119  0.0085  0.0212 -0.5446
88614SOL    HW183834  10.346   7.207  13.024 -0.6483  0.8068 -0.5330
88614SOL    HW283835  10.251   7.216  13.141  0.1539 -0.1412  0.2085
88615SOL     OW83836   1.454  13.052   7.276  0.2156 -0.1314  0.3083
88615SOL    HW183837   1.463  13.071   7.370  0.4961  0.9675  0.0735
88615SOL    HW283838   1.447  12.957   7.272 -2.9628 -0.0925  1.6994
88616SOL     OW83839  11.869   9.867  12.591 -0.2163 -0.3277  0.4646
88616SOL    HW183840  11.921   9.859  12.511 -0.0425 -0.6812  0.6127
88616SOL    HW283841  11.889   9.955  12.623 -0.2566 -0.1989  0.1406
88617SOL     OW83842  11.438   1.458   9.863 -0.6869  0.0388 -0.7106
88617SOL    HW183843  11.474   1.414   9.940 -1.7085 -1.5223 -1.0794
88617SOL    HW283844  11.349   1.483   9.889 -0.4653  1.0221 -0.8512
88618SOL     OW83845  13.418   4.136   4.133  0.0734 -0.4365 -0.3339
88618SOL    HW183846  13.484   4.103   4.072  0.8497 -2.5392  1.5299
88618SOL    HW283847  13.342   4.153   4.077  1.5704  0.3281 -2.2575
88619SOL     OW83848   7.101   6.913  13.896 -0.4326  0.2047 -0.2638
88619SOL    HW183849   7.160   6.872  13.833 -0.9722 -0.6522 -0.2254
88619SOL    HW283850   7.139   6.893  13.982  0.2602  1.3065 -0.2870
88620SOL     OW83851   2.315  10.651   5.243 -0.0154 -0.0062  0.6045
88620SOL    HW183852   2.402  10.650   5.202 -0.3833 -0.6900 -0.1607
88620SOL    HW283853   2.325  10.712   5.317  0.6431  1.2556 -0.4914
88621SOL     OW83854  13.952  12.432   6.824  0.1737 -0.7154  0.3177
88621SOL    HW183855  14.018  12.420   6.892  0.1612 -0.9394  0.2912
88621SOL    HW283856  13.971  12.364   6.759  0.6359 -0.0448 -0.2657
88622SOL     OW83857  10.648   3.703   1.055 -0.5794  0.3283  0.1802
88622SOL    HW183858  10.629   3.781   1.002 -0.1183 -0.0033 -0.4956
88622SOL    HW283859  10.671   3.636   0.990 -1.0542 -0.3949  0.7470
88623SOL     OW83860   7.858   2.284  12.115 -0.0577 -0.6007  0.9387
88623SOL    HW183861   7.894   2.223  12.051  2.5886  1.6312  0.0850
88623SOL    HW283862   7.768   2.298  12.087  0.0634 -2.1637 -0.3408
88624SOL     OW83863   1.523   5.130   4.950  0.2695 -0.1378  0.6995
88624SOL    HW183864   1.570   5.157   4.871  0.4547 -1.8292  0.1731
88624SOL    HW283865   1.586   5.076   4.997 -0.5382 -0.9431  0.8884
88625SOL     OW83866   9.570   6.642   9.316 -0.3401  0.6473  0.0289
88625SOL    HW183867   9.664   6.633   9.302 -0.5598 -0.6312 -0.7307
88625SOL    HW283868   9.531   6.621   9.231 -1.3475  0.4629  0.5293
88626SOL     OW83869   5.547   0.407  11.654 -0.0896  0.4703 -0.0927
88626SOL    HW183870   5.601   0.329  11.639  0.0416  0.3056  1.1321
88626SOL    HW283871   5.566   0.464  11.579  0.3975 -0.3530 -0.6064
88627SOL     OW83872   6.220   3.263   9.494  0.2716 -0.0254 -0.3628
88627SOL    HW183873   6.129   3.283   9.470  0.5759 -0.1315 -1.6781
88627SOL    HW283874   6.242   3.330   9.559  0.3983  2.3366 -2.6866
88628SOL     OW83875  10.710   2.667   2.942 -0.4330  0.1968  0.2427
88628SOL    HW183876  10.711   2.591   3.000  0.9438 -0.2876 -0.3572
88628SOL    HW283877  10.764   2.732   2.987  3.0878 -1.1612 -1.5944
88629SOL     OW83878  13.399   6.484   4.103  0.7472  0.0827 -0.0421
88629SOL    HW183879  13.452   6.420   4.055  0.2067 -0.1875 -0.2907
88629SOL    HW283880  13.353   6.532   4.035 -0.0686 -0.3372  0.2096
88630SOL     OW83881  13.000  13.908   9.059 -0.0962  0.5229 -0.4412
88630SOL    HW183882  13.027  13.975   8.996  0.1020  0.2215 -0.6801
88630SOL    HW283883  12.961  13.957   9.131  2.2696  1.1196  0.5640
88631SOL     OW83884   6.152   1.160  13.993  0.1152  0.3817 -0.7543
88631SOL    HW183885   6.239   1.167  13.955  0.4292  2.0494  0.1797
88631SOL    HW283886   6.102   1.231  13.953 -1.5210 -1.7626 -2.8574
88632SOL     OW83887  12.386   3.469  10.510 -0.0274  0.0259  0.3878
88632SOL    HW183888  12.311   3.491  10.566  1.1215 -1.1686  2.5184
88632SOL    HW283889  12.413   3.552  10.473 -1.2170  0.7853  1.1432
88633SOL     OW83890   5.930  10.898  12.417 -0.3657 -0.1039 -0.7006
88633SOL    HW183891   5.950  10.804  12.420 -0.8198 -0.2094  2.3467
88633SOL    HW283892   5.843  10.902  12.378 -0.9419 -1.1440  0.3866
88634SOL     OW83893  12.267  13.081   5.713 -0.6360 -0.0134 -0.4342
88634SOL    HW183894  12.221  13.016   5.766  1.5373 -3.8758 -2.7931
88634SOL    HW283895  12.215  13.088   5.633 -0.9249  1.3529 -0.1478
88635SOL     OW83896   7.631  11.895  11.175  0.1069 -0.3939  0.6105
88635SOL    HW183897   7.547  11.857  11.150  0.8156 -1.0605 -0.8820
88635SOL    HW283898   7.674  11.826  11.227  0.8218 -1.1626 -0.9326
88636SOL     OW83899   3.089   0.744   1.220  0.1690 -0.0666 -0.3798
88636SOL    HW183900   3.082   0.650   1.235  0.4062 -0.2118 -1.1207
88636SOL    HW283901   3.095   0.782   1.307  0.4637 -0.7727 -0.0831
88637SOL     OW83902  13.213   1.099   5.000  0.2274  0.8856 -0.0377
88637SOL    HW183903  13.305   1.076   5.010  0.1321  1.1718  2.0837
88637SOL    HW283904  13.194   1.155   5.076 -1.8686  0.2345  0.0026
88638SOL     OW83905   5.070   2.007  10.611  0.1148 -0.1459  0.1397
88638SOL    HW183906   4.982   2.003  10.574  0.1217 -0.3841  0.1467
88638SOL    HW283907   5.091   1.916  10.632  0.3272 -0.0780  0.2205
88639SOL     OW83908  12.805   0.645   9.776 -0.3797 -0.2693  0.1895
88639SOL    HW183909  12.726   0.622   9.826 -0.3666  0.1164  0.3884
88639SOL    HW283910  12.875   0.594   9.818 -0.2576  0.5180  0.9654
88640SOL     OW83911   9.198   3.096  11.506  0.2996 -0.3010 -0.0031
88640SOL    HW183912   9.260   3.093  11.579  0.6336  0.5937 -0.2368
88640SOL    HW283913   9.161   3.184  11.510 -0.9026 -0.7922  0.0743
88641SOL     OW83914   8.551   6.820  12.304  0.3501 -0.5075  0.5404
88641SOL    HW183915   8.462   6.832  12.269  0.9826 -0.4570 -1.1299
88641SOL    HW283916   8.537   6.798  12.396 -1.3533  0.6864  0.6245
88642SOL     OW83917  11.384  10.821  10.874 -0.1437  0.1679 -0.0167
88642SOL    HW183918  11.430  10.739  10.856  0.2540  0.2847  0.4530
88642SOL    HW283919  11.362  10.856  10.788 -1.3957 -1.0304 -0.2270
88643SOL     OW83920  11.965   5.057   9.183  0.4022  0.2517 -0.6050
88643SOL    HW183921  11.891   5.050   9.243  1.4854  1.7401  1.0028
88643SOL    HW283922  12.033   5.001   9.222  1.9565  3.0319  1.0466
88644SOL     OW83923  13.248  12.429   9.557  1.0627 -0.1079 -0.1554
88644SOL    HW183924  13.330  12.455   9.599  1.4521  1.1280 -1.5788
88644SOL    HW283925  13.200  12.511   9.545 -0.0034 -0.7101 -0.1460
88645SOL     OW83926   2.847   1.171   5.456  0.2786 -0.2687 -0.0640
88645SOL    HW183927   2.841   1.203   5.546  0.3070 -1.3490  0.3399
88645SOL    HW283928   2.884   1.083   5.465 -0.6282 -0.7746 -1.0483
88646SOL     OW83929   1.241   7.046  12.081  0.2671 -0.2673  0.0074
88646SOL    HW183930   1.291   7.018  12.158  0.4520  0.3579  0.1187
88646SOL    HW283931   1.306   7.086  12.023 -0.0560  0.3135  0.0370
88647SOL     OW83932  13.498   0.166  11.472 -0.2199  0.2821  0.6103
88647SOL    HW183933  13.439   0.097  11.502 -2.8010  1.3882 -1.4885
88647SOL    HW283934  13.453   0.248  11.495  0.0859  1.1705 -1.6881
88648SOL     OW83935   8.939   9.036   8.849 -0.1489 -0.3250  0.4359
88648SOL    HW183936   8.985   9.073   8.924 -0.2584  0.8459 -0.0512
88648SOL    HW283937   8.878   8.973   8.887 -0.4859  0.5431  1.3750
88649SOL     OW83938   5.188   9.595  13.111  0.1545  0.2683  0.7544
88649SOL    HW183939   5.187   9.575  13.205  2.9511  0.1919  0.8496
88649SOL    HW283940   5.221   9.685  13.107  0.3462  0.1658 -0.1527
88650SOL     OW83941  10.913   6.994   4.832  0.2883 -0.3490 -0.0815
88650SOL    HW183942  10.936   7.051   4.905 -0.1391 -0.5775  0.2383
88650SOL    HW283943  10.824   7.019   4.809  0.5904  0.0481 -0.8473
88651SOL     OW83944   1.058  11.779   7.614 -0.5334  0.5678 -0.3609
88651SOL    HW183945   1.048  11.862   7.567  0.1584  1.3782  0.8827
88651SOL    HW283946   1.131  11.735   7.570  0.5740  1.6345  0.3597
88652SOL     OW83947   9.566   1.537  10.293 -0.4419 -0.1375  0.0447
88652SOL    HW183948   9.646   1.486  10.278  0.6225  0.6506  2.5286
88652SOL    HW283949   9.537   1.562  10.206  1.5556 -1.1520 -0.9829
88653SOL     OW83950  13.706  12.774   2.469 -0.4502 -0.7583 -0.2545
88653SOL    HW183951  13.675  12.755   2.380  0.4361 -0.1283 -0.7182
88653SOL    HW283952  13.775  12.709   2.484  1.2727  0.7538 -1.1118
88654SOL     OW83953   3.334   0.784   7.838 -0.0583 -0.4879 -0.1498
88654SOL    HW183954   3.287   0.836   7.903  0.0809 -1.4640  0.7510
88654SOL    HW283955   3.339   0.696   7.876  2.3838 -0.4599 -0.2418
88655SOL     OW83956  11.547   0.599   5.183 -0.0974 -0.2508 -0.1793
88655SOL    HW183957  11.632   0.627   5.218  0.2574 -1.9908  0.4120
88655SOL    HW283958  11.486   0.666   5.215  1.0176  1.0366 -0.6283
88656SOL     OW83959  10.657  11.982   1.892 -0.7835 -0.2104 -0.1132
88656SOL    HW183960  10.687  12.067   1.858 -0.4090 -0.1125  0.4542
88656SOL    HW283961  10.588  11.955   1.831  1.7692 -1.4212 -2.6917
88657SOL     OW83962   5.349   1.785   1.563  0.0120 -0.3215  0.6275
88657SOL    HW183963   5.257   1.784   1.588 -0.2255  0.7636 -0.1193
88657SOL    HW283964   5.385   1.705   1.600 -1.6641 -1.7656 -0.6598
88658SOL     OW83965  11.342   7.613   4.922  0.0093 -0.4078  0.0031
88658SOL    HW183966  11.344   7.637   4.830 -0.5882 -0.0490  0.0776
88658SOL    HW283967  11.250   7.619   4.947  0.2013 -0.1940  0.6971
88659SOL     OW83968   1.951   8.561   7.786 -0.6754 -0.4345  0.6385
88659SOL    HW183969   1.939   8.639   7.841 -0.1363 -0.6369  1.0404
88659SOL    HW283970   1.943   8.594   7.696  2.4221  0.6435  0.6487
88660SOL     OW83971  11.463   1.865   6.989 -0.2316 -0.3651  0.2068
88660SOL    HW183972  11.482   1.958   6.987 -1.1263 -0.1539 -1.8588
88660SOL    HW283973  11.509   1.829   6.913 -1.3608 -1.2640 -0.0835
88661SOL     OW83974  13.338   5.115   9.090 -0.2595  1.3019  0.4682
88661SOL    HW183975  13.248   5.123   9.059 -0.2186  2.7987  0.6636
88661SOL    HW283976  13.391   5.146   9.016  0.1710 -0.1479  0.1164
88662SOL     OW83977  12.043   3.173   6.076  0.1939 -0.2806  0.3386
88662SOL    HW183978  12.088   3.221   6.146 -1.2185 -0.1434  1.2065
88662SOL    HW283979  12.074   3.083   6.085  0.3392 -0.1793  0.8972
88663SOL     OW83980   8.806   1.289   6.101  0.1797  0.0906 -0.2903
88663SOL    HW183981   8.889   1.258   6.063 -1.5602 -3.2885 -1.7987
88663SOL    HW283982   8.830   1.321   6.188  2.9606 -1.7905 -0.2282
88664SOL     OW83983   5.518  11.980   0.914 -0.0229 -0.5818 -0.4604
88664SOL    HW183984   5.548  12.009   0.828 -0.1374  0.3189 -0.2109
88664SOL    HW283985   5.431  12.020   0.923 -1.0212 -2.5277 -0.8674
88665SOL     OW83986  12.038   7.199   5.782 -0.1180 -0.3197 -0.5502
88665SOL    HW183987  12.105   7.267   5.776 -0.4654  0.2327  1.3128
88665SOL    HW283988  12.000   7.196   5.694 -0.6844  2.5228 -0.5166
88666SOL     OW83989  13.043  12.537   5.466 -0.5141  0.3523  0.0042
88666SOL    HW183990  13.109  12.562   5.401  0.6223 -1.6602  0.2751
88666SOL    HW283991  12.974  12.494   5.416 -1.4141  2.0017 -0.2227
88667SOL     OW83992  10.500   8.402   3.393 -0.2529 -0.3898  0.0979
88667SOL    HW183993  10.537   8.371   3.476  0.6401  0.0271 -0.1369
88667SOL    HW283994  10.559   8.367   3.326 -0.2134  0.3833 -0.2788
88668SOL     OW83995  13.626   4.267   3.616  0.3610 -0.3125  0.6019
88668SOL    HW183996  13.547   4.247   3.666 -1.6502  0.4858 -1.9866
88668SOL    HW283997  13.616   4.217   3.535  2.7676 -0.5120  0.3697
88669SOL     OW83998  13.980   5.765   5.418 -0.8475 -0.0446  0.3883
88669SOL    HW183999  13.945   5.844   5.378 -1.2874 -0.4712 -0.0936
88669SOL    HW284000  14.018   5.794   5.500 -0.1245  0.8114 -0.2378
88670SOL     OW84001   6.175  11.176   5.081 -0.1029  0.6993 -0.4389
88670SOL    HW184002   6.252  11.207   5.129 -0.6649  1.5513 -0.0542
88670SOL    HW284003   6.194  11.085   5.061 -0.3526 -0.0804  2.4724
88671SOL     OW84004   1.299   3.249   1.522  0.0064 -0.1045 -0.0921
88671SOL    HW184005   1.351   3.175   1.491  0.6096  0.1500  0.2792
88671SOL    HW284006   1.273   3.295   1.442  0.2608 -0.2995 -0.2911
88672SOL     OW84007  12.518  11.331   9.273 -0.2205 -0.0961  0.1308
88672SOL    HW184008  12.445  11.384   9.306 -0.2667 -0.3649  0.4592
88672SOL    HW284009  12.553  11.286   9.350  2.3529  2.4509  0.6425
88673SOL     OW84010   3.863   6.696   3.304  0.0583  0.4596  0.0123
88673SOL    HW184011   3.907   6.665   3.384 -0.6946 -1.3634 -0.2187
88673SOL    HW284012   3.773   6.664   3.312 -0.3613  1.3189 -1.0119
88674SOL     OW84013  11.503   7.707  12.384 -0.2296  0.4075  0.2543
88674SOL    HW184014  11.509   7.615  12.409  2.0886  0.2020 -0.8200
88674SOL    HW284015  11.520   7.755  12.465 -2.5899 -0.0114  1.0814
88675SOL     OW84016   3.579   5.094   4.813  0.0530  0.3774 -0.4645
88675SOL    HW184017   3.562   5.183   4.846 -0.6738  0.0314  0.1194
88675SOL    HW284018   3.514   5.039   4.857 -0.0829 -0.3168 -1.4966
88676SOL     OW84019   7.335  10.739  10.635 -0.1817  0.1963 -0.4811
88676SOL    HW184020   7.309  10.731  10.727  1.0293  0.8888 -0.0619
88676SOL    HW284021   7.332  10.834  10.618 -1.5149  0.0036 -1.5111
88677SOL     OW84022   5.729   5.365   9.634  0.3154 -0.6534 -0.0442
88677SOL    HW184023   5.778   5.285   9.655 -0.9938 -1.3535  0.4919
88677SOL    HW284024   5.774   5.401   9.557  1.6581 -1.2380  0.4278
88678SOL     OW84025   6.513   5.486  14.136  0.2637  0.2392  0.1446
88678SOL    HW184026   6.453   5.445  14.073  3.2026 -0.5073 -2.4354
88678SOL    HW284027   6.455   5.523  14.203 -2.9156 -3.1761 -0.3240
88679SOL     OW84028  11.276   5.835   5.706 -0.2458  0.0707 -0.5416
88679SOL    HW184029  11.249   5.836   5.614  1.2283 -1.1089 -1.0320
88679SOL    HW284030  11.352   5.777   5.708 -0.2369  0.0746  1.4323
88680SOL     OW84031  13.723   4.064   6.454  0.0540  0.4618  0.3324
88680SOL    HW184032  13.787   4.006   6.495  0.0628 -0.9891 -1.5778
88680SOL    HW284033  13.769   4.146   6.442  0.7175  0.2407  1.2748
88681SOL     OW84034   3.524  13.420  13.508  0.4333  0.1176  0.1791
88681SOL    HW184035   3.562  13.394  13.424 -0.8580 -0.9238 -0.1251
88681SOL    HW284036   3.432  13.437  13.488 -0.0460 -0.7697  1.4861
88682SOL     OW84037   9.545   1.793   9.112 -0.2870 -0.3879  0.1724
88682SOL    HW184038   9.634   1.788   9.079 -0.6467 -0.7140 -0.7805
88682SOL    HW284039   9.501   1.856   9.054 -0.2248  1.1632  1.7253
88683SOL     OW84040   9.068  13.609   4.917  0.0252  0.5236 -0.4822
88683SOL    HW184041   8.987  13.558   4.923  0.3846  0.0948  1.1993
88683SOL    HW284042   9.118  13.584   4.994  1.4699  1.3135 -1.1217
88684SOL     OW84043  12.714  13.090  13.285  0.4653 -0.8073 -0.4407
88684SOL    HW184044  12.707  13.104  13.190  1.7355  0.2630 -0.4119
88684SOL    HW284045  12.625  13.073  13.313 -0.2734  0.9397 -1.5374
88685SOL     OW84046  11.850   7.339  12.860 -0.3890  0.2562  0.6683
88685SOL    HW184047  11.903   7.416  12.881  0.8227 -0.5040  0.4643
88685SOL    HW284048  11.783   7.372  12.801  1.9102  0.6681 -1.9240
88686SOL     OW84049  12.357   3.056   5.113 -0.5462  0.6120  0.3852
88686SOL    HW184050  12.449   3.032   5.121 -0.3073  1.5043  0.4134
88686SOL    HW284051  12.348   3.089   5.023 -1.1052 -0.5311 -0.0033
88687SOL     OW84052  13.475   8.259  13.436 -0.9338 -0.4227 -0.6704
88687SOL    HW184053  13.547   8.312  13.471 -0.6860 -0.4770 -1.0906
88687SOL    HW284054  13.504   8.235  13.348 -0.9844 -1.3655 -0.4435
88688SOL     OW84055   8.120  14.075   1.881 -0.0135 -0.1469 -0.0038
88688SOL    HW184056   8.132  14.134   1.807  0.5418 -1.7522 -1.2662
88688SOL    HW284057   8.203  14.078   1.928 -0.1434  0.3946  0.1958
88689SOL     OW84058   4.185   3.965  10.778 -0.2462 -0.0871 -0.2151
88689SOL    HW184059   4.120   4.023  10.818 -1.7903 -1.7317 -0.1863
88689SOL    HW284060   4.165   3.968  10.684  0.1777  0.0293 -0.3010
88690SOL     OW84061   2.940   0.355   2.687 -0.6755 -0.2345  0.1963
88690SOL    HW184062   2.887   0.421   2.732  1.9426  1.7700  0.5956
88690SOL    HW284063   3.016   0.342   2.744  0.7953 -0.6229 -1.7374
88691SOL     OW84064   1.634   2.515  10.733 -0.2270  0.1940 -0.0801
88691SOL    HW184065   1.657   2.449  10.798  0.7350  0.5379 -0.0618
88691SOL    HW284066   1.539   2.527  10.743 -0.1169  0.1084  1.1239
88692SOL     OW84067   3.525  10.679  13.442  0.1635  0.3114  0.0691
88692SOL    HW184068   3.507  10.589  13.413 -2.6622  1.1981 -1.2607
88692SOL    HW284069   3.594  10.709  13.383 -0.6260 -0.2023 -1.1646
88693SOL     OW84070   6.007  14.103   4.920  0.1634 -0.6514 -0.4660
88693SOL    HW184071   5.983  14.015   4.949 -0.2053 -0.0296  1.2676
88693SOL    HW284072   6.101  14.099   4.908  0.5373 -0.7313  1.9267
88694SOL     OW84073  10.598   3.934   7.081 -0.9015  0.2285 -0.1231
88694SOL    HW184074  10.520   3.986   7.061 -0.1708  1.7245  0.7814
88694SOL    HW284075  10.651   3.939   7.002 -1.9069 -1.2259 -0.9386
88695SOL     OW84076   2.514   1.770   8.326 -0.2647 -0.2479 -0.4269
88695SOL    HW184077   2.501   1.831   8.254 -0.5599 -0.5121 -0.5943
88695SOL    HW284078   2.453   1.799   8.394  1.3470  1.2090  0.5020
88696SOL     OW84079   7.906  10.697   7.629 -0.3245  0.0340  0.2065
88696SOL    HW184080   7.843  10.686   7.558  0.4086 -0.9655 -0.3213
88696SOL    HW284081   7.864  10.655   7.704 -0.3847 -0.4544 -0.0921
88697SOL     OW84082  12.774   2.248   9.400  0.1226  0.6474  0.4887
88697SOL    HW184083  12.732   2.204   9.474  2.3439 -1.5561  0.5810
88697SOL    HW284084  12.734   2.209   9.323  0.1842  0.4370  0.5621
88698SOL     OW84085   6.886   4.205   3.030 -0.3885 -0.1355 -0.2210
88698SOL    HW184086   6.911   4.206   3.123 -0.5614 -0.7616 -0.1593
88698SOL    HW284087   6.940   4.273   2.990  1.0042 -1.0458  0.0219
88699SOL     OW84088   2.560  13.613   2.862 -0.0086 -0.1497  0.3128
88699SOL    HW184089   2.587  13.527   2.894  0.8380 -0.5701 -1.4529
88699SOL    HW284090   2.465  13.613   2.870  0.0017 -1.1612  0.5083
88700SOL     OW84091  13.329   5.357  11.552  0.0388 -0.2320  0.0427
88700SOL    HW184092  13.250   5.341  11.500  0.6689 -1.3068 -0.6450
88700SOL    HW284093  13.342   5.275  11.601  0.0611  0.3763  1.0749
88701SOL     OW84094   3.505  12.084   1.849  0.1311  0.3596 -0.1457
88701SOL    HW184095   3.534  11.994   1.835 -0.6233 -0.0148  0.6086
88701SOL    HW284096   3.524  12.102   1.941 -1.2193  0.3757  0.1599
88702SOL     OW84097   9.457   8.656  10.189  0.1637  0.0403  0.0281
88702SOL    HW184098   9.421   8.718  10.125  0.4044  0.2756  0.1148
88702SOL    HW284099   9.526   8.706  10.234  0.7060 -0.4443 -0.2484
88703SOL     OW84100   9.993  13.490   5.705 -0.0167 -0.0281  0.5703
88703SOL    HW184101   9.975  13.466   5.796  0.0964  0.8251  0.8249
88703SOL    HW284102   9.968  13.583   5.699  0.8744  0.1888 -0.0155
88704SOL     OW84103  10.402   9.636   1.298  0.5408 -0.3249  0.3181
88704SOL    HW184104  10.441   9.720   1.274  0.0615 -0.8633 -2.6627
88704SOL    HW284105  10.354   9.608   1.220 -0.6738 -2.6123  1.7762
88705SOL     OW84106   6.290   9.368   2.785 -0.7376 -0.2384 -0.0553
88705SOL    HW184107   6.242   9.292   2.750 -2.4958  0.6441  0.3362
88705SOL    HW284108   6.353   9.390   2.717 -0.3968 -1.8477 -0.3104
88706SOL     OW84109  13.242   4.064  12.507 -0.0109  0.3207 -0.1770
88706SOL    HW184110  13.190   3.984  12.520  0.9822 -0.1919  0.9766
88706SOL    HW284111  13.324   4.045  12.553  0.9302  1.3477 -1.3878
88707SOL     OW84112   1.126   4.101   1.267  0.1006 -0.0050 -0.2256
88707SOL    HW184113   1.085   4.024   1.306  2.0629 -0.7126  0.5912
88707SOL    HW284114   1.060   4.136   1.206 -2.2999 -0.0744  2.1412
88708SOL     OW84115  11.682  13.341   1.187 -0.3350  0.3255 -0.0871
88708SOL    HW184116  11.712  13.408   1.126 -0.0178  1.6462  1.4476
88708SOL    HW284117  11.588  13.358   1.196 -0.4183  0.0096 -0.3281
88709SOL     OW84118  10.320   7.718   1.116  0.4788  0.1409  0.0280
88709SOL    HW184119  10.366   7.777   1.057  1.3416 -2.2276 -1.8323
88709SOL    HW284120  10.334   7.755   1.203  1.1309  2.5072 -1.0008
88710SOL     OW84121  11.832   4.097   6.188 -0.2140  0.2339  0.0233
88710SOL    HW184122  11.753   4.125   6.141 -1.6464 -1.0256  1.5336
88710SOL    HW284123  11.865   4.023   6.137 -2.3290 -1.7725  1.4000
88711SOL     OW84124   3.316   6.990  14.148 -0.0511 -0.6124 -0.5817
88711SOL    HW184125   3.223   6.994  14.129 -0.1486 -1.7184 -0.4479
88711SOL    HW284126   3.343   7.080  14.161 -0.9234 -0.2051 -1.4956
88712SOL     OW84127  13.788   4.117   2.522  0.0185 -0.0006 -0.3441
88712SOL    HW184128  13.694   4.113   2.540 -0.0893  1.4771 -0.5072
88712SOL    HW284129  13.827   4.056   2.585 -1.0425 -0.7230 -0.3553
88713SOL     OW84130  10.512   0.526   3.532 -0.5328 -0.1914 -0.0646
88713SOL    HW184131  10.416   0.528   3.531 -0.5712  1.7291  1.6546
88713SOL    HW284132  10.534   0.453   3.590 -0.9774  0.2455  0.6582
88714SOL     OW84133  12.901   5.424  10.822 -0.9467  0.4230  0.3221
88714SOL    HW184134  12.996   5.432  10.817 -0.9983  1.0739  0.3151
88714SOL    HW284135  12.867   5.496  10.769 -1.4663 -1.4411 -2.0670
88715SOL     OW84136  10.791  12.013  13.339  0.0500 -0.9019  0.3030
88715SOL    HW184137  10.759  11.935  13.383  1.2545 -0.3012  2.3748
88715SOL    HW284138  10.868  12.040  13.389 -1.0592  2.3480  0.5270
88716SOL     OW84139   9.760   1.361  13.714 -0.7762  0.5866 -0.0867
88716SOL    HW184140   9.792   1.318  13.635 -1.4893  0.5921 -0.3900
88716SOL    HW284141   9.697   1.426  13.682 -3.9134 -1.8600  0.6153
88717SOL     OW84142   4.954   6.905   1.746 -0.2377  0.1031 -0.3556
88717SOL    HW184143   4.865   6.875   1.765 -0.4379  0.7486 -0.2636
88717SOL    HW284144   4.958   6.910   1.650 -0.0727 -0.5926 -0.3923
88718SOL     OW84145   2.668   2.524   1.135  0.4360 -0.3145  0.7179
88718SOL    HW184146   2.727   2.566   1.197  1.0783 -1.3250  0.8129
88718SOL    HW284147   2.655   2.590   1.066  0.3821  0.5017  1.4866
88719SOL     OW84148   6.950   4.263   2.394 -0.0397  0.3593  0.0416
88719SOL    HW184149   7.028   4.220   2.428 -0.9619 -0.5899  1.0261
88719SOL    HW284150   6.886   4.193   2.384 -2.1912  1.6237  3.4051
88720SOL     OW84151   7.955  11.435   8.647  0.2600  0.5864  0.2786
88720SOL    HW184152   7.925  11.466   8.561 -1.3598  1.0574  0.9777
88720SOL    HW284153   7.932  11.505   8.707 -2.7689 -1.4729  1.7817
88721SOL     OW84154   2.815   5.363   9.443  0.3566 -0.0731  0.0562
88721SOL    HW184155   2.886   5.426   9.435  0.5222 -0.4133 -1.3351
88721SOL    HW284156   2.844   5.287   9.394 -1.1947 -0.0123 -1.0392
88722SOL     OW84157   2.100  10.789   7.684 -0.5227 -0.1834 -0.3899
88722SOL    HW184158   2.091  10.883   7.693 -0.1981 -0.3018  1.7687
88722SOL    HW284159   2.010  10.756   7.687 -0.7059  0.0794 -2.0996
88723SOL     OW84160   3.751  10.892   4.863  0.0357  0.6916 -0.0135
88723SOL    HW184161   3.717  10.919   4.778  1.2034  1.9561 -0.1025
88723SOL    HW284162   3.725  10.800   4.870  2.5941 -0.4419 -3.1693
88724SOL     OW84163   0.732   4.477   0.391  0.3022  0.3168 -0.7146
88724SOL    HW184164   0.816   4.440   0.418 -0.3512 -0.7188 -0.0476
88724SOL    HW284165   0.718   4.444   0.302 -0.9683 -2.3799  0.3943
88725SOL     OW84166   4.967   0.435   1.714 -0.8152 -0.7242 -0.8376
88725SOL    HW184167   4.885   0.470   1.746 -2.7109 -1.3336 -4.4984
88725SOL    HW284168   4.961   0.340   1.730 -0.4503 -0.6869 -0.4454
88726SOL     OW84169   2.880   2.723   7.554 -0.2826 -0.2087  0.2765
88726SOL    HW184170   2.956   2.729   7.497 -0.0426  0.5598  0.6620
88726SOL    HW284171   2.915   2.733   7.642 -0.8695  0.6643  0.4292
88727SOL     OW84172   6.352   8.674   0.692 -0.1843 -0.2229  0.0401
88727SOL    HW184173   6.383   8.678   0.783 -1.3234  2.4140  0.4132
88727SOL    HW284174   6.257   8.688   0.699 -0.3053 -0.0833 -1.5599
88728SOL     OW84175   6.918   1.510  10.400  0.5360 -0.1042 -0.0502
88728SOL    HW184176   6.956   1.435  10.355  0.1779 -0.1446 -0.2961
88728SOL    HW284177   6.858   1.548  10.335  1.0988  0.6990 -0.1166
88729SOL     OW84178   1.966  12.986   6.221 -0.2011 -0.2198  0.3386
88729SOL    HW184179   1.922  12.997   6.137  1.5212 -1.6047 -0.8100
88729SOL    HW284180   1.909  13.031   6.284 -0.8663  1.9958 -1.7242
88730SOL     OW84181   2.564   7.061   0.345 -0.0323  0.0050 -0.0406
88730SOL    HW184182   2.564   7.071   0.250 -2.4340  0.9353 -0.0352
88730SOL    HW284183   2.471   7.059   0.369  0.4875  0.4821  2.3507
88731SOL     OW84184   0.943  10.643   5.002 -0.1542 -0.0237 -0.3635
88731SOL    HW184185   0.875  10.677   5.059 -1.2171 -0.8842 -1.0771
88731SOL    HW284186   0.898  10.623   4.919  1.2513  0.7891 -1.3736
88732SOL     OW84187   9.709   7.767   0.806 -0.1843  0.3683 -0.3291
88732SOL    HW184188   9.618   7.740   0.816  0.0591  0.3341  2.3356
88732SOL    HW284189   9.759   7.686   0.810  0.0574  0.5257 -0.0933
88733SOL     OW84190   2.164   7.898   7.884  0.5143  0.5647  0.2019
88733SOL    HW184191   2.138   7.959   7.815  0.1943  0.8455  0.5654
88733SOL    HW284192   2.127   7.935   7.964 -0.7418 -0.7255  0.2658
88734SOL     OW84193   2.347  10.363   6.581  0.0148 -0.6104  0.3440
88734SOL    HW184194   2.381  10.369   6.670 -1.8078 -0.6439  1.0793
88734SOL    HW284195   2.371  10.275   6.552  0.0874 -0.8258  1.0378
88735SOL     OW84196   0.930   8.657  11.851  0.8501  0.5635  0.2991
88735SOL    HW184197   0.958   8.566  11.861 -1.7091 -0.3516 -0.1880
88735SOL    HW284198   0.933   8.694  11.939 -1.1109 -0.9915  1.0891
88736SOL     OW84199   6.510   0.266  10.795  0.2039  0.3539  0.3774
88736SOL    HW184200   6.545   0.178  10.782  3.2296  1.5475 -0.3638
88736SOL    HW284201   6.433   0.269  10.738 -0.2069 -1.8820  0.7175
88737SOL     OW84202   3.937  10.831   5.501 -0.3227  0.2545 -0.0638
88737SOL    HW184203   3.936  10.814   5.407  0.4736 -1.0108  0.1397
88737SOL    HW284204   3.975  10.919   5.508  0.8750 -0.1606 -0.8826
88738SOL     OW84205   0.224   3.901   9.310  0.2117  0.0126 -0.7729
88738SOL    HW184206   0.312   3.936   9.323 -0.0024 -0.1605  1.4531
88738SOL    HW284207   0.173   3.937   9.382 -1.6362  0.2866 -2.1488
88739SOL     OW84208   1.318   3.012   9.441 -0.2069  0.0814  0.2481
88739SOL    HW184209   1.229   2.979   9.427 -0.6280  0.6549  1.4382
88739SOL    HW284210   1.317   3.101   9.404  0.3842 -0.5119 -1.2674
88740SOL     OW84211   0.883  12.748   2.586 -0.0398  0.5439  0.6529
88740SOL    HW184212   0.962  12.775   2.631 -0.5042  0.8502  1.3004
88740SOL    HW284213   0.861  12.663   2.625  0.9412 -0.3932 -0.7717
88741SOL     OW84214   4.524   7.807   6.213 -0.2146  0.0675  0.5984
88741SOL    HW184215   4.508   7.735   6.152 -1.9338  0.6665  0.3061
88741SOL    HW284216   4.511   7.886   6.161 -0.2585  0.5893  1.3842
88742SOL     OW84217   0.041   0.440  11.868 -0.3656  0.2092  0.1031
88742SOL    HW184218   0.115   0.462  11.925  1.1389 -0.7840 -1.3781
88742SOL    HW284219   0.080   0.389  11.797 -2.3334  0.4925 -1.2509
88743SOL     OW84220   1.585   7.321   9.527 -0.1283 -0.4074 -0.2724
88743SOL    HW184221   1.647   7.276   9.470 -0.1566 -0.2449 -0.4337
88743SOL    HW284222   1.635   7.343   9.605 -0.0190 -0.3944 -0.3465
88744SOL     OW84223   0.399   6.114  10.324 -0.8081 -0.2298 -0.1907
88744SOL    HW184224   0.394   6.051  10.253 -0.9314 -1.2709  0.7235
88744SOL    HW284225   0.308   6.131  10.348 -0.7818  0.3926 -0.5057
88745SOL     OW84226   9.894   4.630   6.275  0.8752 -0.3801  0.0180
88745SOL    HW184227   9.964   4.695   6.286 -0.2615  0.7454  0.7922
88745SOL    HW284228   9.844   4.634   6.357  1.0203 -2.5642  0.2761
88746SOL     OW84229  12.879   3.894   8.750  0.6073 -0.7836  0.5595
88746SOL    HW184230  12.851   3.806   8.726 -1.7515  0.1029 -0.1973
88746SOL    HW284231  12.937   3.881   8.825  0.3559 -2.9523  0.4499
88747SOL     OW84232   4.270   5.438   8.519  0.2853  0.3416  0.3554
88747SOL    HW184233   4.179   5.426   8.546  0.6002 -0.6694  1.0289
88747SOL    HW284234   4.264   5.478   8.432 -0.7825  0.8909  0.6580
88748SOL     OW84235   7.195  13.956  13.708 -0.6871 -0.3250  0.1668
88748SOL    HW184236   7.161  13.881  13.660 -2.9575  0.2855  0.7027
88748SOL    HW284237   7.167  13.942  13.798 -0.7302  0.9116  0.3610
88749SOL     OW84238   5.930   8.837  12.299 -0.4875 -0.4712 -0.4166
88749SOL    HW184239   5.987   8.883  12.361 -0.7205 -0.6398 -0.0749
88749SOL    HW284240   5.977   8.841  12.216 -1.0834  1.5722 -0.7396
88750SOL     OW84241   5.022   4.023   7.292 -0.2319 -0.4871 -0.1137
88750SOL    HW184242   5.116   4.035   7.304 -0.2861  0.8834 -0.8887
88750SOL    HW284243   5.014   3.938   7.248  0.6173 -0.7461  0.2184
88751SOL     OW84244  11.915   4.713  11.644  0.4770  0.2207 -0.5752
88751SOL    HW184245  11.977   4.785  11.649 -1.9107  2.6167 -2.4105
88751SOL    HW284246  11.845   4.737  11.704 -0.9832  0.1954 -2.1658
88752SOL     OW84247   6.651  13.503   6.810 -0.4727 -0.2713  0.5198
88752SOL    HW184248   6.673  13.595   6.796  0.5538 -0.7341 -1.2064
88752SOL    HW284249   6.735  13.459   6.818 -0.9511 -1.1123  1.0486
88753SOL     OW84250  10.946  10.904  12.915  0.2695 -0.1563  0.4155
88753SOL    HW184251  10.937  10.988  12.960 -1.3074 -0.7654  1.3179
88753SOL    HW284252  10.928  10.923  12.823 -1.0184  0.3600  0.7486
88754SOL     OW84253  11.204   2.269  12.622  0.7296  0.5486  0.3014
88754SOL    HW184254  11.256   2.350  12.620  0.8137  0.5360 -3.0224
88754SOL    HW284255  11.130   2.287  12.564 -0.6035 -0.9872  1.4388
88755SOL     OW84256   5.284   3.510   5.576 -0.4776  1.2946 -0.1319
88755SOL    HW184257   5.346   3.502   5.504  0.5142  1.0045  0.7324
88755SOL    HW284258   5.210   3.557   5.538 -0.0310  1.0432 -1.3662
88756SOL     OW84259  11.032  12.555  10.027 -0.3732 -0.1087  0.3757
88756SOL    HW184260  10.951  12.529  10.071 -0.2828 -0.8107  0.1266
88756SOL    HW284261  11.040  12.496   9.952 -0.4520  0.9859 -0.5195
88757SOL     OW84262  11.315  13.184   6.932  0.9326  0.1005 -0.0175
88757SOL    HW184263  11.374  13.232   6.874  0.6369  1.0156  0.4162
88757SOL    HW284264  11.274  13.252   6.986 -0.4211 -0.5256 -0.2153
88758SOL     OW84265   5.276  11.113   0.352 -0.3709  0.2030  0.0849
88758SOL    HW184266   5.330  11.084   0.425  0.9113  1.6216 -0.2375
88758SOL    HW284267   5.190  11.131   0.390 -0.1064 -0.3561  0.9669
88759SOL     OW84268   9.556  13.436  12.109 -0.1411  0.1467 -0.0401
88759SOL    HW184269   9.551  13.531  12.123 -0.0116  0.0694  0.5764
88759SOL    HW284270   9.645  13.421  12.075  0.2351  0.1344  0.9079
88760SOL     OW84271  10.741  11.656   9.367 -0.2025  0.0817 -0.6080
88760SOL    HW184272  10.786  11.702   9.438 -1.1826  1.9913 -1.1662
88760SOL    HW284273  10.809  11.603   9.326  0.0333 -2.7514  2.9348
88761SOL     OW84274   0.883   6.195  10.475 -0.2602 -0.6547 -0.1204
88761SOL    HW184275   0.956   6.161  10.423 -0.0387  0.6249 -0.6890
88761SOL    HW284276   0.883   6.289  10.457 -1.2970 -0.4558  0.8270
88762SOL     OW84277   8.664   1.165   9.379 -0.8867 -0.0386 -0.3068
88762SOL    HW184278   8.742   1.189   9.429 -0.6143 -0.9385 -0.2932
88762SOL    HW284279   8.666   1.070   9.375 -0.9073 -0.0121 -2.0087
88763SOL     OW84280   6.841   5.690   9.739  0.6044 -0.1189  0.3603
88763SOL    HW184281   6.859   5.604   9.778  1.1969 -1.5965 -2.8671
88763SOL    HW284282   6.926   5.733   9.735  0.6513 -0.2342  0.1164
88764SOL     OW84283   6.173  13.333  11.580 -0.1941 -0.6737 -0.1395
88764SOL    HW184284   6.158  13.418  11.538  0.0192 -0.6201 -0.1084
88764SOL    HW284285   6.123  13.337  11.662 -0.3810 -0.6707 -0.2529
88765SOL     OW84286   9.077   7.310   5.106 -0.0584  0.2146 -0.0381
88765SOL    HW184287   8.985   7.304   5.079 -0.8097  2.5607  1.7615
88765SOL    HW284288   9.075   7.304   5.201  1.8189 -0.8674 -0.0140
88766SOL     OW84289   5.117   1.602   3.505  0.5438 -0.3394  0.1941
88766SOL    HW184290   5.094   1.692   3.482  0.2116 -0.4702 -0.0009
88766SOL    HW284291   5.054   1.579   3.574  0.8589 -0.3027  0.4954
88767SOL     OW84292  10.113  13.036   4.440 -0.0706  0.3460 -0.4168
88767SOL    HW184293  10.111  13.106   4.505  0.0062  0.1373 -0.1924
88767SOL    HW284294  10.171  12.970   4.476  0.3397  0.4308 -0.9028
88768SOL     OW84295   0.023   9.739   9.044  0.4135  0.1310  0.0741
88768SOL    HW184296   0.040   9.676   8.974 -0.0406 -0.2568  0.3117
88768SOL    HW284297  -0.065   9.772   9.026  0.1448 -0.2483  0.6737
88769SOL     OW84298   9.997   9.867  10.610 -0.0513 -0.1288  0.2882
88769SOL    HW184299  10.006   9.832  10.522 -0.0987  0.4862  0.0377
88769SOL    HW284300   9.931   9.812  10.651 -0.0305 -0.4144 -0.0609
88770SOL     OW84301   7.268  11.167  11.258 -0.4933 -0.1156 -0.3657
88770SOL    HW184302   7.213  11.216  11.197 -1.4450 -0.1781  0.4342
88770SOL    HW284303   7.208  11.109  11.305  0.2789 -0.3235  0.3922
88771SOL     OW84304  13.532   4.727  12.222  0.2872 -0.2382  0.3575
88771SOL    HW184305  13.627   4.740  12.223  0.4030 -1.0834  0.9544
88771SOL    HW284306  13.513   4.682  12.304 -1.0990  3.0675  2.0416
88772SOL     OW84307   1.510   0.288   5.834  0.0933 -0.3173 -0.1995
88772SOL    HW184308   1.533   0.201   5.868  0.4441  0.2067  0.9513
88772SOL    HW284309   1.588   0.315   5.786 -0.6878 -1.3910 -2.1865
88773SOL     OW84310   3.519  12.892   6.825  0.1934  0.5091  0.0224
88773SOL    HW184311   3.471  12.919   6.904 -1.4608 -1.2598 -0.2748
88773SOL    HW284312   3.481  12.945   6.755  0.9070  1.3186  0.2316
88774SOL     OW84313   6.702   3.846  11.450 -0.1533 -0.2190 -0.3959
88774SOL    HW184314   6.675   3.819  11.362  2.4012 -0.5263 -1.1569
88774SOL    HW284315   6.791   3.879  11.439 -0.1670  0.7797  1.9228
88775SOL     OW84316  12.096   2.615  13.439  0.1889 -0.1303  0.2422
88775SOL    HW184317  12.081   2.708  13.422  0.2922  0.0262  0.9935
88775SOL    HW284318  12.191   2.607  13.448  0.1127 -0.1307  1.1500
88776SOL     OW84319  12.749   2.019  14.091 -0.0154  0.3670 -0.1449
88776SOL    HW184320  12.658   2.027  14.064 -0.5164 -1.3424  0.9010
88776SOL    HW284321  12.774   1.930  14.067  0.5242 -0.0955  1.8980
88777SOL     OW84322  12.269  14.142   7.985  0.0289 -0.0835  0.2726
88777SOL    HW184323  12.332  14.072   8.005  0.6163  0.6127  0.9088
88777SOL    HW284324  12.185  14.108   8.018  0.3600 -0.3706  0.8429
88778SOL     OW84325  12.394   2.241   4.125  0.0542 -0.0384  0.2463
88778SOL    HW184326  12.359   2.206   4.043 -0.6717  0.9061  0.1353
88778SOL    HW284327  12.436   2.324   4.100  1.3989 -0.5902  0.5676
88779SOL     OW84328   5.442  13.528   8.524 -0.2518 -0.2306  0.1669
88779SOL    HW184329   5.509  13.462   8.506 -0.7792 -0.4615 -1.0781
88779SOL    HW284330   5.371  13.507   8.463 -0.1561  1.9043 -0.7650
88780SOL     OW84331   2.781   3.923   4.981 -0.2112 -0.1127  0.0656
88780SOL    HW184332   2.733   3.905   5.062 -0.3371  1.5748  0.3911
88780SOL    HW284333   2.715   3.948   4.918 -0.0496 -0.8703 -0.4237
88781SOL     OW84334  11.668   9.111   3.916  0.2346 -0.3498  0.3420
88781SOL    HW184335  11.705   9.158   3.991 -0.0299 -1.2260  1.0330
88781SOL    HW284336  11.649   9.023   3.950 -1.6520 -0.1999 -0.2398
88782SOL     OW84337   5.782   8.121   7.646 -0.0387  0.1233  0.0231
88782SOL    HW184338   5.699   8.099   7.604 -0.3124 -0.4049  0.8168
88782SOL    HW284339   5.793   8.215   7.632 -1.4110  0.4571  1.0131
88783SOL     OW84340  13.002   1.996   8.421  0.3225 -0.0585 -0.8116
88783SOL    HW184341  13.090   1.960   8.430  0.2363 -0.0810  0.0533
88783SOL    HW284342  12.946   1.920   8.408  0.2906 -0.1531 -0.1735
88784SOL     OW84343   3.798   7.595   2.188  0.5077  0.1010 -0.0530
88784SOL    HW184344   3.722   7.651   2.177 -0.2746 -0.8808  0.2633
88784SOL    HW284345   3.824   7.573   2.098 -0.5265 -0.8066 -0.1427
88785SOL     OW84346  10.161  10.214   5.111  0.1631 -0.1850 -0.4772
88785SOL    HW184347  10.223  10.248   5.176 -0.0414 -0.8749  0.0927
88785SOL    HW284348  10.217  10.175   5.043  0.3809  0.6447 -0.7856
88786SOL     OW84349   6.681   9.311  11.912  0.6637 -0.6809  0.0443
88786SOL    HW184350   6.640   9.338  11.830  1.2429 -1.1948 -0.4272
88786SOL    HW284351   6.773   9.332  11.901  0.6608 -0.2140  0.8057
88787SOL     OW84352  11.935  13.274  12.808  0.6600  0.0507 -0.2081
88787SOL    HW184353  11.959  13.181  12.803  0.3773  0.0218 -1.2406
88787SOL    HW284354  11.858  13.276  12.864  0.0701 -0.4700 -0.9799
88788SOL     OW84355   7.864  10.661   0.760 -0.6029  0.2203 -0.4695
88788SOL    HW184356   7.795  10.710   0.716 -1.5294 -1.9127 -1.5736
88788SOL    HW284357   7.824  10.633   0.843 -0.2845  0.8122 -0.1124
88789SOL     OW84358   9.284   6.763   9.663  0.0328 -0.1528 -0.2399
88789SOL    HW184359   9.216   6.801   9.608 -1.6727 -1.4973  0.7915
88789SOL    HW284360   9.365   6.772   9.613 -0.9790  1.0774 -1.7341
88790SOL     OW84361  14.125   7.048   4.003  0.1093 -0.5280 -0.5767
88790SOL    HW184362  14.135   7.138   3.973  0.2626 -0.8537 -1.5625
88790SOL    HW284363  14.175   7.044   4.084 -1.7555  0.8353  0.7031
88791SOL     OW84364   7.755   5.970  13.441 -0.6269 -0.4765 -0.0898
88791SOL    HW184365   7.831   6.004  13.488  0.3346 -0.1125 -1.8297
88791SOL    HW284366   7.691   6.042  13.445  0.9124  1.1808 -2.6249
88792SOL     OW84367  11.027  13.095   8.257 -0.0527  0.7865 -0.3461
88792SOL    HW184368  10.945  13.054   8.285  0.8657 -0.2644  0.9018
88792SOL    HW284369  11.006  13.134   8.173 -1.4751 -0.6798 -0.7286
88793SOL     OW84370   8.602   3.784   0.152 -0.6395  0.1437  0.0210
88793SOL    HW184371   8.600   3.689   0.140  0.2283  0.0376  0.5801
88793SOL    HW284372   8.604   3.820   0.063  1.8919 -0.4896 -0.2709
88794SOL     OW84373  10.808  11.024   2.652  0.2686  0.0048  0.2259
88794SOL    HW184374  10.850  10.950   2.607 -1.9541 -1.4621  0.3849
88794SOL    HW284375  10.842  11.101   2.607 -0.5152 -1.3017 -2.9601
88795SOL     OW84376  12.800   1.962   8.662  0.2846  0.3652 -0.3031
88795SOL    HW184377  12.789   2.037   8.720 -1.8779 -0.6394  0.6684
88795SOL    HW284378  12.846   1.998   8.586 -0.1649  2.5423  0.3756
88796SOL     OW84379  11.391  12.361   9.129 -0.4507 -0.0974 -0.1335
88796SOL    HW184380  11.438  12.359   9.213 -2.4539  0.5265  1.0723
88796SOL    HW284381  11.447  12.413   9.071  0.3508  0.6008  1.2235
88797SOL     OW84382  13.834  12.354   5.639 -0.6624  0.3577  0.1218
88797SOL    HW184383  13.770  12.316   5.699 -0.7605  1.3120  0.6542
88797SOL    HW284384  13.917  12.345   5.685 -0.6436  0.5112  0.1187
88798SOL     OW84385  10.859   9.827   1.502  0.4534  0.2570 -0.2593
88798SOL    HW184386  10.917   9.833   1.578 -0.6551 -3.3305  1.1111
88798SOL    HW284387  10.916   9.801   1.430  1.0395  0.2462  0.2027
88799SOL     OW84388  13.778  12.977   8.146 -0.1458  0.1890 -0.4349
88799SOL    HW184389  13.793  12.982   8.052 -1.4444 -1.1376 -0.7404
88799SOL    HW284390  13.852  13.023   8.185  0.5525  0.5057 -2.0878
88800SOL     OW84391   9.846   2.332   6.494 -0.3447  0.0795  0.2861
88800SOL    HW184392   9.807   2.248   6.519  0.4571 -0.7512 -1.1155
88800SOL    HW284393   9.865   2.323   6.401  1.5712  1.0803  0.5356
88801SOL     OW84394   7.812   1.120  12.408 -0.1205 -0.0731  0.4254
88801SOL    HW184395   7.805   1.082  12.320 -0.0948 -1.8214  1.1363
88801SOL    HW284396   7.722   1.126  12.438 -0.1482  0.7854  0.1912
88802SOL     OW84397  12.796   7.098  11.302 -0.1804 -0.6480  0.0357
88802SOL    HW184398  12.745   7.143  11.235 -0.4996 -1.1351 -0.0518
88802SOL    HW284399  12.886   7.100  11.269 -0.0563  0.6083  0.4032
88803SOL     OW84400   7.782   5.567   0.228 -0.1514  0.1852 -0.3787
88803SOL    HW184401   7.868   5.580   0.268  0.6216 -0.3547 -1.7965
88803SOL    HW284402   7.723   5.554   0.302  1.3774 -1.7108  0.5927
88804SOL     OW84403   3.989  10.931  13.474 -0.0109 -0.1714 -0.5768
88804SOL    HW184404   3.999  10.957  13.383  0.5569  1.3802 -0.1096
88804SOL    HW284405   4.035  10.847  13.481 -1.7130 -1.3255 -2.1013
88805SOL     OW84406   0.119  11.684   4.011 -0.3608 -0.8202 -0.5176
88805SOL    HW184407   0.087  11.623   3.945  0.8971 -1.0365 -0.9579
88805SOL    HW284408   0.127  11.768   3.966 -0.4933 -0.7259 -0.3662
88806SOL     OW84409   4.059  13.115   3.879 -0.1383 -0.2880  0.2276
88806SOL    HW184410   4.067  13.195   3.932  0.6669  0.7498 -1.3834
88806SOL    HW284411   4.147  13.080   3.873 -0.3338 -0.7766  0.1365
88807SOL     OW84412   0.509   1.507   9.982 -0.1871 -0.2255  0.7247
88807SOL    HW184413   0.588   1.485   9.931  0.4220  0.0050  1.5500
88807SOL    HW284414   0.509   1.602   9.986 -0.0251 -0.2500  1.4521
88808SOL     OW84415   6.884  10.878   9.847  0.3355  0.0706  0.4755
88808SOL    HW184416   6.896  10.919   9.932  1.4102  0.8622 -0.0338
88808SOL    HW284417   6.792  10.896   9.825 -0.1402 -0.7067  1.7254
88809SOL     OW84418   9.971   0.659  13.398 -1.0200 -0.4938 -0.1265
88809SOL    HW184419  10.004   0.579  13.438  0.8624  1.1262  1.8322
88809SOL    HW284420   9.893   0.682  13.448  1.3203  1.5198  2.9642
88810SOL     OW84421   5.606   0.158  13.117 -0.5562 -0.1580 -0.4380
88810SOL    HW184422   5.669   0.167  13.188  2.4585  0.9313 -2.9992
88810SOL    HW284423   5.612   0.066  13.090  0.1433 -0.0011 -0.8253
88811SOL     OW84424   0.108  12.900   9.164  0.1770  0.1716 -0.2626
88811SOL    HW184425   0.078  12.987   9.139  1.2268  0.9055  0.8767
88811SOL    HW284426   0.204  12.905   9.159  0.2871 -0.6347  0.6459
88812SOL     OW84427   0.982  13.555   5.072 -0.1527  0.3511  0.3420
88812SOL    HW184428   0.970  13.635   5.022 -0.4999  0.0076 -0.1367
88812SOL    HW284429   1.074  13.556   5.099  0.9351 -0.8897 -2.8814
88813SOL     OW84430   3.329  11.674  12.135 -0.0728 -0.4427 -0.2726
88813SOL    HW184431   3.387  11.694  12.208  1.1052 -1.3921 -0.8996
88813SOL    HW284432   3.247  11.646  12.176  0.7450 -1.4967  0.7158
88814SOL     OW84433   4.804  10.575   4.697  0.1058 -0.2824  0.3539
88814SOL    HW184434   4.734  10.516   4.722  0.2521 -0.5039  0.2404
88814SOL    HW284435   4.782  10.658   4.741  1.0367 -1.0002  2.3015
88815SOL     OW84436   4.253   9.780   5.051  0.3257  0.9925 -0.0503
88815SOL    HW184437   4.166   9.761   5.086  1.1157 -0.4227  1.3048
88815SOL    HW284438   4.286   9.851   5.106  1.0541 -0.3370  1.2945
88816SOL     OW84439  14.004   9.033  12.625 -0.0029  0.2727 -0.0484
88816SOL    HW184440  14.013   9.100  12.693 -0.0550  0.7994 -0.5476
88816SOL    HW284441  13.922   9.055  12.581 -0.9524 -1.1887  0.9186
88817SOL     OW84442   2.636   3.718   1.569  0.7367  0.2642 -0.3298
88817SOL    HW184443   2.636   3.763   1.653  2.9174 -1.6783  0.8266
88817SOL    HW284444   2.584   3.774   1.512  0.3103  2.3422  1.9297
88818SOL     OW84445  10.380   8.754  10.201 -0.2804 -0.3763 -0.5360
88818SOL    HW184446  10.349   8.796  10.281  0.6572 -1.0065  0.1705
88818SOL    HW284447  10.312   8.774  10.136 -1.1116  0.0429  0.4341
88819SOL     OW84448   9.728   6.133   0.907  0.2745 -0.8349 -0.0161
88819SOL    HW184449   9.659   6.068   0.919 -0.3828  0.1093  1.7138
88819SOL    HW284450   9.808   6.087   0.934 -0.0139 -1.2699  0.1203
88820SOL     OW84451  12.044  13.070  10.040 -0.8919 -0.3505 -0.4063
88820SOL    HW184452  12.100  13.000  10.074  0.8085  1.1659  0.0571
88820SOL    HW284453  12.073  13.148  10.087 -2.7018  0.6889 -0.9519
88821SOL     OW84454   1.775   2.702  13.920  0.5842  0.3985  0.1132
88821SOL    HW184455   1.826   2.624  13.943  2.0508  1.9131  2.3388
88821SOL    HW284456   1.840   2.765  13.890 -0.4684  1.1214 -0.7040
88822SOL     OW84457   5.173   2.700   3.713 -0.9373 -0.7921  0.5964
88822SOL    HW184458   5.229   2.777   3.720 -0.6134 -0.6290 -2.3813
88822SOL    HW284459   5.227   2.629   3.748 -0.4082 -0.0155  1.3971
88823SOL     OW84460   3.532   2.083  12.952 -0.4408 -0.2255  0.0256
88823SOL    HW184461   3.538   2.163  13.003 -1.5063  0.4231 -0.8325
88823SOL    HW284462   3.566   2.015  13.010 -1.7196  0.4507  1.6590
88824SOL     OW84463   8.677  10.859   5.019 -0.4761  0.1154 -0.2684
88824SOL    HW184464   8.727  10.780   4.999 -0.7518  0.3875 -2.2625
88824SOL    HW284465   8.670  10.860   5.114 -0.3990 -2.2267 -0.1779
88825SOL     OW84466  11.193   5.224   6.887 -0.2912  0.4950  0.0553
88825SOL    HW184467  11.234   5.191   6.967 -0.9510 -0.2596  0.0901
88825SOL    HW284468  11.262   5.274   6.844  0.4167 -0.0576  0.5297
88826SOL     OW84469   9.199  13.445  13.566  0.0928  0.1441  0.5272
88826SOL    HW184470   9.241  13.387  13.503  0.1738  1.3026 -0.5243
88826SOL    HW284471   9.202  13.531  13.525 -1.5341  0.6079  1.3061
88827SOL     OW84472   4.292  12.776  13.681  0.2813  0.3188 -0.3008
88827SOL    HW184473   4.373  12.732  13.652  0.0339  1.2589 -2.6588
88827SOL    HW284474   4.222  12.726  13.640 -0.3380 -0.0965  1.1994
88828SOL     OW84475  12.193  12.616  12.861 -0.2222  0.4523 -0.2625
88828SOL    HW184476  12.142  12.603  12.781 -0.6557 -0.1864  0.1052
88828SOL    HW284477  12.128  12.633  12.929  0.2531  3.5376 -0.4660
88829SOL     OW84478   6.137   8.044   9.365 -0.0035  0.2435  0.3974
88829SOL    HW184479   6.208   8.031   9.302 -0.3533  0.1468  0.0261
88829SOL    HW284480   6.068   7.984   9.338  0.5467 -1.1431  1.9587
88830SOL     OW84481   9.839   7.069   7.170  0.5624  0.3186  0.0065
88830SOL    HW184482   9.845   7.018   7.089  2.0780  2.1506 -1.1292
88830SOL    HW284483   9.760   7.122   7.159 -0.4218 -0.9407  0.7214
88831SOL     OW84484   2.645  10.604  12.927  0.1538 -0.2103  1.0689
88831SOL    HW184485   2.695  10.681  12.901  0.0271 -0.0909  1.1760
88831SOL    HW284486   2.556  10.622  12.898  0.3905 -0.9325 -0.1953
88832SOL     OW84487  11.215   8.816  10.479  0.0212  0.6011 -0.7204
88832SOL    HW184488  11.255   8.750  10.423 -0.1249  1.0107 -1.3175
88832SOL    HW284489  11.272   8.821  10.556  0.2678  0.0946 -0.8679
88833SOL     OW84490   1.823   7.766   9.710  0.2209  0.4435 -0.1533
88833SOL    HW184491   1.866   7.683   9.730  0.5454  0.1684 -1.8197
88833SOL    HW284492   1.742   7.740   9.666  0.6954  0.9835 -1.3945
88834SOL     OW84493   8.873   4.005  13.017  0.2793  0.1585  0.8185
88834SOL    HW184494   8.937   3.936  13.037  0.6461  0.5229  0.9043
88834SOL    HW284495   8.847   4.039  13.102 -0.0819 -0.0327  0.7869
88835SOL     OW84496   0.921   9.031  12.975  0.4530 -0.2605 -0.2066
88835SOL    HW184497   0.975   9.109  12.987  0.4438 -0.5357  2.0173
88835SOL    HW284498   0.859   9.033  13.047 -2.3823 -0.1404 -2.4744
88836SOL     OW84499   9.398  13.942   6.673 -0.4012 -0.0932  0.2186
88836SOL    HW184500   9.398  13.882   6.747  0.4569  0.0388  0.3316
88836SOL    HW284501   9.461  13.904   6.611 -0.3531  0.3278  0.0014
88837SOL     OW84502   7.663  13.651   2.591  0.6415  0.5044 -0.7160
88837SOL    HW184503   7.605  13.623   2.661  0.3693 -0.1767 -1.2060
88837SOL    HW284504   7.607  13.656   2.514  1.1591  0.1785 -1.1195
88838SOL     OW84505  11.877   0.946   9.616 -0.0044  0.1397 -0.1114
88838SOL    HW184506  11.945   0.913   9.674 -1.7689 -1.5108  1.1383
88838SOL    HW284507  11.825   1.005   9.670 -0.1016  0.7059 -0.7995
88839SOL     OW84508  11.958   2.484  14.023  0.8189 -0.2506 -0.4257
88839SOL    HW184509  11.972   2.566  14.070 -1.5491  0.2350 -0.4687
88839SOL    HW284510  12.011   2.420  14.072  2.6234  1.2135 -0.3356
88840SOL     OW84511   3.919   7.336   9.705  0.2799  0.4788 -0.5950
88840SOL    HW184512   4.014   7.330   9.691  0.5100 -0.2858  1.0664
88840SOL    HW284513   3.908   7.330   9.799 -1.3500  1.9948 -0.6255
88841SOL     OW84514   7.103  12.603   0.162 -0.1334  0.0112 -0.1274
88841SOL    HW184515   7.131  12.545   0.091  0.0872  0.1682 -0.1698
88841SOL    HW284516   7.045  12.549   0.216  0.1902 -0.2933 -0.0787
88842SOL     OW84517  12.500   5.146   6.096 -0.0296  0.1507  0.1293
88842SOL    HW184518  12.562   5.144   6.168  0.1838  1.3083 -0.0055
88842SOL    HW284519  12.462   5.234   6.098 -1.1590 -0.3012 -0.2227
88843SOL     OW84520   6.861   6.470   7.373 -0.5837 -0.1123 -0.0810
88843SOL    HW184521   6.868   6.566   7.370  0.6654 -0.1504  0.6408
88843SOL    HW284522   6.836   6.445   7.284 -2.1794  0.9467  0.0243
88844SOL     OW84523   2.947   7.665  13.587 -0.1362 -0.1875 -0.6745
88844SOL    HW184524   2.890   7.675  13.663  0.5812 -1.0757  0.0121
88844SOL    HW284525   3.033   7.694  13.619 -0.1768  1.1565 -1.6938
88845SOL     OW84526   8.088   9.544   4.896 -0.9723  0.3621 -0.0229
88845SOL    HW184527   7.997   9.521   4.877 -0.4316 -1.1706 -0.9454
88845SOL    HW284528   8.136   9.461   4.890  0.5483  1.1851  0.0908
88846SOL     OW84529   5.322   8.401   3.747 -0.7077 -0.5995  0.3278
88846SOL    HW184530   5.310   8.307   3.766  0.2622 -0.7775  0.0906
88846SOL    HW284531   5.417   8.414   3.748 -0.8289  0.3523  0.1860
88847SOL     OW84532  12.695   1.533  10.382 -0.0261  0.0733 -0.5382
88847SOL    HW184533  12.629   1.540  10.313 -0.5491 -0.7219 -0.1227
88847SOL    HW284534  12.769   1.489  10.340 -0.3747 -0.4868 -0.5739
88848SOL     OW84535  10.624  12.022   6.493  0.6067  0.5499 -0.4328
88848SOL    HW184536  10.710  12.060   6.512  0.1021  0.9531  1.1783
88848SOL    HW284537  10.579  12.020   6.577 -1.5607  1.8061 -1.4741
88849SOL     OW84538   5.701   4.990   2.517  0.5252  0.0626  0.0251
88849SOL    HW184539   5.636   5.054   2.547 -0.7193 -0.1296 -2.0783
88849SOL    HW284540   5.670   4.906   2.551  0.4295  0.1607  0.1826
88850SOL     OW84541   4.483   8.719  12.334  0.3919  0.0757 -0.5397
88850SOL    HW184542   4.393   8.749  12.322 -0.1243 -1.1982 -0.0810
88850SOL    HW284543   4.508   8.752  12.420 -0.5958 -1.7007  0.4957
88851SOL     OW84544   6.188  11.635   8.911 -0.3517 -0.0980  0.0432
88851SOL    HW184545   6.093  11.629   8.897 -0.9324 -0.3165  3.2560
88851SOL    HW284546   6.215  11.710   8.857 -1.9685 -1.0905 -2.3191
88852SOL     OW84547   2.721   8.262   5.535 -0.4031  0.5662 -0.2381
88852SOL    HW184548   2.631   8.236   5.552 -0.4147  2.0262  2.6629
88852SOL    HW284549   2.772   8.216   5.602  1.1563 -0.7145 -2.2034
88853SOL     OW84550   0.870   8.109   2.564 -0.3151  0.1057  0.1286
88853SOL    HW184551   0.927   8.170   2.611  1.5345 -1.4178  0.0131
88853SOL    HW284552   0.826   8.163   2.499  1.0268  1.3782  0.2124
88854SOL     OW84553   6.266   5.232   5.206  0.2071  0.2193  0.3089
88854SOL    HW184554   6.329   5.188   5.263  1.0624  0.1047 -0.6967
88854SOL    HW284555   6.230   5.162   5.152  0.9037  0.5989 -0.6758
88855SOL     OW84556   8.547   8.882   4.351  0.4162  0.0690  0.8098
88855SOL    HW184557   8.554   8.795   4.311 -0.9131  0.6279 -0.7296
88855SOL    HW284558   8.453   8.897   4.361  0.5319  1.9116 -0.3663
88856SOL     OW84559  13.883  10.751   3.553 -0.0886  0.4835  0.0411
88856SOL    HW184560  13.903  10.833   3.598 -0.1822  1.0186 -0.8680
88856SOL    HW284561  13.814  10.711   3.606 -0.5544  1.3487  0.1058
88857SOL     OW84562   2.294   9.605  13.211 -0.1848 -0.4008 -0.1582
88857SOL    HW184563   2.294   9.686  13.261 -1.2236 -0.9619  0.7879
88857SOL    HW284564   2.363   9.618  13.145 -2.0690  2.2633 -1.7792
88858SOL     OW84565   9.867   0.393  12.738 -0.2111 -0.1883  0.3394
88858SOL    HW184566   9.886   0.471  12.790 -2.0316  0.2602  0.4037
88858SOL    HW284567   9.792   0.418  12.684  0.4442 -1.2628 -1.1259
88859SOL     OW84568   3.913   0.933  14.110  0.0710 -0.0657 -0.1409
88859SOL    HW184569   3.938   0.944  14.202  1.0942 -3.7448  0.1841
88859SOL    HW284570   3.978   0.984  14.061  0.8797  0.1557  1.1224
88860SOL     OW84571   3.064  11.404   2.108 -0.1232  0.3602  0.3187
88860SOL    HW184572   3.046  11.328   2.163  0.5357 -0.7680 -0.9715
88860SOL    HW284573   2.999  11.399   2.038  1.2671 -0.2899 -0.9825
88861SOL     OW84574   7.261  11.433   9.966  0.2875 -0.3079 -0.1581
88861SOL    HW184575   7.330  11.465  10.024  0.0640  0.3021 -0.2246
88861SOL    HW284576   7.233  11.510   9.917 -1.2045 -0.2956  0.6517
88862SOL     OW84577   9.557  10.339   3.845  0.0263 -0.3178 -0.1714
88862SOL    HW184578   9.633  10.351   3.789 -0.8289 -0.0546 -1.3320
88862SOL    HW284579   9.505  10.419   3.832  0.0291 -0.0275  1.3910
88863SOL     OW84580   2.376   9.578   0.754 -0.5837 -0.5551  0.4582
88863SOL    HW184581   2.379   9.667   0.789 -1.7249 -0.0306 -0.6679
88863SOL    HW284582   2.289   9.547   0.775 -0.3838 -1.2046  0.3491
88864SOL     OW84583   0.955   8.509   1.233 -0.6826  0.3579 -0.4318
88864SOL    HW184584   0.939   8.499   1.327 -2.4947  1.8059 -0.5346
88864SOL    HW284585   1.041   8.469   1.219 -1.1227 -1.4695  1.5149
88865SOL     OW84586   4.053   4.206   9.290  0.6255  0.2167 -0.3930
88865SOL    HW184587   4.051   4.300   9.277 -1.9417  0.3541  0.4578
88865SOL    HW284588   4.039   4.194   9.384 -0.0276 -1.0012 -0.6138
88866SOL     OW84589   5.610   7.102   9.450 -0.9461 -0.2021  0.0718
88866SOL    HW184590   5.701   7.087   9.473 -0.9124 -0.8120 -0.4260
88866SOL    HW284591   5.612   7.176   9.390 -0.8342  0.1291  0.4837
88867SOL     OW84592   4.022   9.811   0.784  0.9248  0.3316  0.2284
88867SOL    HW184593   4.000   9.861   0.862  0.7442  2.2320 -0.9799
88867SOL    HW284594   4.071   9.872   0.729 -2.6883  0.6662 -3.0660
88868SOL     OW84595  10.722  12.124   2.823  0.1469  0.8880 -0.2862
88868SOL    HW184596  10.646  12.153   2.772  0.2486  0.1162 -0.8862
88868SOL    HW284597  10.786  12.098   2.757  1.2374  2.2202  0.1881
88869SOL     OW84598  10.417   2.246   1.257 -0.3021 -0.8546 -0.0281
88869SOL    HW184599  10.371   2.171   1.218  1.1839 -1.2568 -1.1389
88869SOL    HW284600  10.506   2.214   1.270  0.2610  0.6082 -0.1533
88870SOL     OW84601  11.231   4.942   8.256 -0.2345 -0.3633 -0.6514
88870SOL    HW184602  11.165   4.887   8.214 -1.7014  0.1480  0.8431
88870SOL    HW284603  11.244   4.903   8.343  0.3583  0.3742 -0.3944
88871SOL     OW84604   6.043   9.387  13.146 -0.5251 -0.0193 -0.0852
88871SOL    HW184605   5.974   9.333  13.184  0.5883 -0.4451  1.4182
88871SOL    HW284606   5.997   9.444  13.084 -2.5330  0.9555  2.1400
88872SOL     OW84607   3.208  11.112   3.521 -0.2668  0.4218 -0.2439
88872SOL    HW184608   3.188  11.135   3.612  0.7007  2.0308 -0.3855
88872SOL    HW284609   3.304  11.106   3.519 -0.3835 -2.6722 -0.5244
88873SOL     OW84610   9.021  11.141   4.751  0.0099 -0.3955 -0.5515
88873SOL    HW184611   8.963  11.103   4.817 -1.3191  1.6753 -0.4403
88873SOL    HW284612   8.971  11.136   4.670  0.7095 -0.8521 -0.9621
88874SOL     OW84613   1.045  12.671  12.195  0.2754  0.1751 -0.6284
88874SOL    HW184614   1.035  12.766  12.185 -0.3327  0.1615 -0.2086
88874SOL    HW284615   1.138  12.656  12.182  0.4260  0.8673 -0.4268
88875SOL     OW84616  13.427   9.269   2.071  0.2831  0.4051 -0.4150
88875SOL    HW184617  13.492   9.199   2.068  1.8175  1.7567 -0.4811
88875SOL    HW284618  13.377   9.259   1.990  0.1617 -0.8800 -0.1941
88876SOL     OW84619   7.563  10.620   3.705 -0.0301  0.0533 -0.0621
88876SOL    HW184620   7.602  10.697   3.747  0.0450  0.3747 -0.7011
88876SOL    HW284621   7.494  10.593   3.765  0.6707 -0.0599  0.7055
88877SOL     OW84622   6.695  13.582   5.710  0.2479  0.2803 -0.1545
88877SOL    HW184623   6.643  13.502   5.723 -0.0282  0.4073 -0.4517
88877SOL    HW284624   6.728  13.604   5.797 -1.7590  1.2710  0.4336
88878SOL     OW84625   0.784  13.794   3.705 -0.2919  0.3002 -0.0540
88878SOL    HW184626   0.715  13.856   3.679 -1.5460 -1.6900 -1.8154
88878SOL    HW284627   0.775  13.721   3.643  3.3795 -0.1300 -0.2976
88879SOL     OW84628   0.588  14.079   4.869 -0.7005 -0.0341  0.2819
88879SOL    HW184629   0.672  14.124   4.858 -0.7764  0.4583  1.5282
88879SOL    HW284630   0.533  14.111   4.798 -0.3275  0.8538  0.3893
88880SOL     OW84631   2.991   8.499   1.979  0.6570 -0.2983  0.7958
88880SOL    HW184632   3.073   8.548   1.970 -0.0040  1.0913  1.9969
88880SOL    HW284633   2.923   8.564   1.964 -0.2855 -0.3811  4.0956
88881SOL     OW84634  11.414   1.606  13.109 -0.6845 -0.1399  0.2921
88881SOL    HW184635  11.508   1.621  13.106 -0.5388 -1.1739 -0.9975
88881SOL    HW284636  11.376   1.683  13.065 -0.3745 -0.2435 -0.1591
88882SOL     OW84637   6.183  13.500   7.922  0.6859 -0.1215  0.1091
88882SOL    HW184638   6.188  13.531   7.832  1.2206 -0.0636  0.1583
88882SOL    HW284639   6.203  13.406   7.916  0.0511 -0.2638  0.0875
88883SOL     OW84640   4.515   7.080   7.643  0.2299  0.4977  0.4294
88883SOL    HW184641   4.441   7.137   7.664  1.1164  1.2406  1.6296
88883SOL    HW284642   4.574   7.088   7.718  1.6083  0.0430 -0.5689
88884SOL     OW84643  10.841   0.636   8.827 -0.7163 -0.4854 -0.0685
88884SOL    HW184644  10.902   0.647   8.899  0.3213 -2.0395 -0.6452
88884SOL    HW284645  10.809   0.724   8.808 -0.0194  0.1130  1.4137
88885SOL     OW84646   3.626  12.233   5.186  0.2656  0.2837  0.3496
88885SOL    HW184647   3.686  12.287   5.237  0.1960  0.3927  0.3179
88885SOL    HW284648   3.646  12.255   5.095  0.4465  0.0276  0.3284
88886SOL     OW84649   8.467  10.109   3.364 -0.2744  0.7517 -0.2312
88886SOL    HW184650   8.447  10.183   3.422 -0.4221  0.5235  0.0137
88886SOL    HW284651   8.448  10.031   3.417  0.3741  0.5345 -0.3113
88887SOL     OW84652  10.602   6.360   1.544 -0.2671 -0.2314  0.0110
88887SOL    HW184653  10.606   6.454   1.559  0.6170 -0.2657  0.0628
88887SOL    HW284654  10.575   6.351   1.453 -0.5790  0.0658  0.0722
88888SOL     OW84655  10.767   1.999   4.050 -0.1942  0.4866 -0.2069
88888SOL    HW184656  10.862   1.997   4.064 -0.4304 -0.5979  1.5392
88888SOL    HW284657  10.747   2.092   4.037  1.0090  0.8069  0.0816
88889SOL     OW84658   0.344   8.629   5.678 -0.2396  0.6915 -0.3386
88889SOL    HW184659   0.339   8.592   5.590  1.3267  0.1039 -0.2192
88889SOL    HW284660   0.326   8.722   5.665  0.3065  0.6784 -1.3442
88890SOL     OW84661   9.691  14.106   2.983 -0.4089  0.2029 -0.7291
88890SOL    HW184662   9.606  14.084   3.023 -0.5240 -0.1158 -1.1365
88890SOL    HW284663   9.756  14.082   3.049 -0.6670  1.1835 -0.1018
88891SOL     OW84664   4.364   6.359  10.840  0.0505  0.2317  0.6459
88891SOL    HW184665   4.413   6.297  10.892 -0.5205  0.5067  1.5294
88891SOL    HW284666   4.328   6.307  10.768  1.5061  0.0101  0.0431
88892SOL     OW84667   6.725  13.001   7.428  0.1524 -0.3048  0.2250
88892SOL    HW184668   6.664  12.927   7.425  0.1674 -0.3459  0.8367
88892SOL    HW284669   6.776  12.987   7.507  0.5143  0.0833  0.0628
88893SOL     OW84670  13.301  11.375  11.910  0.2925  0.6552  0.4422
88893SOL    HW184671  13.299  11.279  11.910  1.6901  0.6081  1.1768
88893SOL    HW284672  13.212  11.400  11.935  0.5034 -0.5092  2.6851
88894SOL     OW84673  13.703   5.750   2.593  0.2504 -0.3022 -0.3525
88894SOL    HW184674  13.778   5.691   2.595  0.2503 -0.3785 -1.5880
88894SOL    HW284675  13.728   5.818   2.530 -0.2735  0.2957  0.0663
88895SOL     OW84676   3.463   6.634   2.771 -0.2688  0.1833 -0.2693
88895SOL    HW184677   3.461   6.607   2.679  0.5482 -1.6467  0.1983
88895SOL    HW284678   3.515   6.566   2.814  2.3427  2.7778  1.0023
88896SOL     OW84679  13.769   0.667   4.768  0.2543 -0.0218 -0.0734
88896SOL    HW184680  13.704   0.635   4.830  0.5886 -0.2472  0.1578
88896SOL    HW284681  13.717   0.709   4.699 -0.0902  1.5630  1.0745
88897SOL     OW84682  10.872   4.904   4.034  0.0283  0.3431  0.4002
88897SOL    HW184683  10.881   4.832   3.972  0.3840  0.5730  0.1833
88897SOL    HW284684  10.953   4.954   4.025 -0.6228  1.3353 -0.1821
88898SOL     OW84685  10.609   8.792  11.186  0.2987  0.5009  0.5824
88898SOL    HW184686  10.697   8.829  11.180  0.0745  0.8928 -0.3832
88898SOL    HW284687  10.559   8.858  11.234  0.2398  0.8318  0.0731
88899SOL     OW84688   1.058   4.830   2.194  0.0624  0.4095  0.1172
88899SOL    HW184689   0.969   4.818   2.161 -0.6742  1.1182  1.7423
88899SOL    HW284690   1.095   4.742   2.196 -0.4322  0.1634 -1.0126
88900SOL     OW84691   8.135   8.683  10.970  0.1824  0.0785  0.1096
88900SOL    HW184692   8.200   8.635  10.919  0.3089  1.5924 -1.2669
88900SOL    HW284693   8.117   8.762  10.918 -1.4000  0.6009  1.3374
88901SOL     OW84694   1.509  11.392  13.838 -0.2085  0.2403  0.2056
88901SOL    HW184695   1.452  11.337  13.892  1.6316 -1.1889  0.7855
88901SOL    HW284696   1.597  11.357  13.853  1.0901  3.4462  0.7026
88902SOL     OW84697   0.021  11.536  12.640 -0.3881 -0.5171  0.2370
88902SOL    HW184698   0.111  11.553  12.667  0.0483 -2.2708  0.0180
88902SOL    HW284699   0.003  11.602  12.573  0.1389  0.8836  1.4274
88903SOL     OW84700  10.583  14.075   7.344  0.4545  0.8682  0.6092
88903SOL    HW184701  10.523  14.149   7.336  0.5415  0.9193  0.4277
88903SOL    HW284702  10.598  14.046   7.254 -0.2234  0.1098  0.7327
88904SOL     OW84703  12.907   8.824   4.355 -0.2180 -0.3829  0.0967
88904SOL    HW184704  12.967   8.895   4.377 -0.0663 -0.5116  0.0915
88904SOL    HW284705  12.912   8.763   4.429 -0.6623 -0.1842  0.2983
88905SOL     OW84706   8.211   4.105  13.113 -0.2067 -0.2847 -0.0771
88905SOL    HW184707   8.297   4.117  13.073  0.2738 -2.3590  0.2025
88905SOL    HW284708   8.148   4.115  13.041  0.3454  0.2727 -0.4811
88906SOL     OW84709   9.452   5.107   6.854 -0.2543 -0.1674 -0.3936
88906SOL    HW184710   9.536   5.097   6.810 -0.5991  0.2986 -1.1915
88906SOL    HW284711   9.403   5.167   6.797 -0.5953  0.7176  0.7987
88907SOL     OW84712  12.375   3.590   3.228 -0.2571 -0.4134  0.2576
88907SOL    HW184713  12.463   3.610   3.197 -0.5336  1.3783  0.5182
88907SOL    HW284714  12.385   3.511   3.281  1.1743 -0.2514  0.2504
88908SOL     OW84715   2.619   2.543   2.979  0.1041 -0.6504  0.4356
88908SOL    HW184716   2.543   2.529   3.035 -1.5113 -1.5060 -1.8331
88908SOL    HW284717   2.628   2.462   2.929  1.6158 -0.0310 -0.3752
88909SOL     OW84718   3.557   8.885  10.809 -0.0563  0.1983  0.0658
88909SOL    HW184719   3.616   8.862  10.881  0.1322 -0.8144 -0.4064
88909SOL    HW284720   3.596   8.964  10.771  1.4376 -0.8643 -0.7056
88910SOL     OW84721  12.741  13.768   7.615  0.6276  0.0641 -0.3668
88910SOL    HW184722  12.728  13.786   7.522 -0.1767  3.9253  0.3218
88910SOL    HW284723  12.832  13.790   7.632  1.0089 -1.4161 -0.3001
88911SOL     OW84724   4.750   6.645   8.695  0.4303 -0.5183  0.2735
88911SOL    HW184725   4.802   6.573   8.731  0.3013 -0.2586  1.0051
88911SOL    HW284726   4.814   6.710   8.667  0.5231  0.4366  2.4964
88912SOL     OW84727   9.581   2.281   4.802 -0.2557  0.1721 -0.2621
88912SOL    HW184728   9.530   2.216   4.754  0.5807  0.5172 -1.6501
88912SOL    HW284729   9.546   2.277   4.891  0.2794 -2.7640 -0.0655
88913SOL     OW84730  12.021   7.043   1.303 -0.8621 -0.0790  0.1268
88913SOL    HW184731  12.053   7.015   1.389  0.9054 -0.2104 -0.5261
88913SOL    HW284732  12.000   6.962   1.258  1.4173 -0.2929 -0.7026
88914SOL     OW84733  13.868   3.918  13.654 -0.2147  0.0126  0.4260
88914SOL    HW184734  13.923   3.959  13.587 -0.3277  1.5158  1.1946
88914SOL    HW284735  13.792   3.886  13.606  0.3340 -0.1827 -0.3441
88915SOL     OW84736   3.733   3.482   2.586  0.4629 -0.2493 -0.0883
88915SOL    HW184737   3.663   3.479   2.521 -0.6952  2.4490  0.9183
88915SOL    HW284738   3.779   3.564   2.569  3.3452 -1.8259 -0.5598
88916SOL     OW84739  11.642   7.762   8.902  0.1633 -0.4690  0.2996
88916SOL    HW184740  11.559   7.810   8.900 -1.1708 -2.6531 -0.4287
88916SOL    HW284741  11.681   7.780   8.817 -0.1587 -0.3813  0.1667
88917SOL     OW84742  10.123  13.355   7.082 -0.1869 -0.0109  0.3006
88917SOL    HW184743  10.109  13.365   7.177  1.3343 -2.2181  0.8355
88917SOL    HW284744  10.206  13.399   7.066  0.0106 -0.4206  0.1841
88918SOL     OW84745   6.914   0.274   9.397  0.4653 -0.1646  0.2218
88918SOL    HW184746   6.880   0.343   9.454 -2.3359 -0.8337 -0.4568
88918SOL    HW284747   6.892   0.193   9.443  2.0312 -0.6786  0.1299
88919SOL     OW84748   4.969  11.422   1.407 -0.3062 -0.1554 -0.2514
88919SOL    HW184749   5.000  11.507   1.375 -1.0922  0.0792 -0.4015
88919SOL    HW284750   5.049  11.376   1.435  0.1901  0.3639 -0.8053
88920SOL     OW84751   0.948   1.648   1.427  0.7303 -0.1764 -0.0238
88920SOL    HW184752   0.990   1.696   1.498  0.0477  0.0598  0.2263
88920SOL    HW284753   1.013   1.648   1.356  0.2314  2.3739 -0.5605
88921SOL     OW84754   3.837   0.831  10.935  0.7685 -0.0495 -0.2886
88921SOL    HW184755   3.930   0.825  10.954  0.9306  0.7321 -0.7932
88921SOL    HW284756   3.795   0.836  11.021  1.1263 -1.0262 -0.0362
88922SOL     OW84757   4.833   0.477  12.462  0.5656  0.1609  0.0093
88922SOL    HW184758   4.760   0.446  12.408 -0.5076  1.5526  0.5974
88922SOL    HW284759   4.847   0.407  12.526 -0.4663 -0.0101  0.0709
88923SOL     OW84760   8.698   2.378  13.572  0.1469 -0.1739  0.0080
88923SOL    HW184761   8.658   2.448  13.624  2.9484  0.8664  0.9559
88923SOL    HW284762   8.646   2.301  13.593 -1.1147  0.9851  1.4349
88924SOL     OW84763   5.500  10.707   8.640 -0.0706  0.3146 -0.2956
88924SOL    HW184764   5.579  10.743   8.681 -0.1582 -0.2049  0.3301
88924SOL    HW284765   5.530  10.628   8.595 -0.5018 -0.8445  1.3479
88925SOL     OW84766  10.335   8.296   4.133  0.8087 -0.0193 -0.6588
88925SOL    HW184767  10.292   8.337   4.058 -0.3121  0.0156 -0.0163
88925SOL    HW284768  10.327   8.361   4.203 -0.2871 -1.0034  0.1544
88926SOL     OW84769  12.844   5.878   9.131 -0.0198  0.3773  0.5718
88926SOL    HW184770  12.783   5.871   9.204 -0.1156  2.3011  0.7319
88926SOL    HW284771  12.912   5.938   9.162  1.0033 -0.3168 -0.2441
88927SOL     OW84772   3.506   9.391   6.023  0.3711  0.0638 -0.0087
88927SOL    HW184773   3.475   9.469   5.979  1.9857 -0.7546 -2.8609
88927SOL    HW284774   3.443   9.323   6.000  0.9976 -0.2764 -0.7775
88928SOL     OW84775   5.330  10.887   8.903 -0.3025 -0.2434 -0.1687
88928SOL    HW184776   5.243  10.927   8.913  0.0009  0.2129  0.7211
88928SOL    HW284777   5.383  10.955   8.862 -0.3879 -0.5692 -0.8373
88929SOL     OW84778  12.365   8.019   4.131  0.3296  0.1089 -0.4085
88929SOL    HW184779  12.423   7.944   4.145  0.8259  0.4995 -0.3247
88929SOL    HW284780  12.298   7.987   4.070 -0.0926 -0.7102  0.4616
88930SOL     OW84781  11.515   6.676  12.789  0.4243 -0.2006  0.4111
88930SOL    HW184782  11.429   6.692  12.827  0.5392  3.7504 -0.5255
88930SOL    HW284783  11.512   6.720  12.703  3.0410 -0.8357 -0.1062
88931SOL     OW84784   8.700   6.775   5.598  0.2799  0.3939 -0.5469
88931SOL    HW184785   8.675   6.764   5.506  1.2519 -0.2928 -0.7428
88931SOL    HW284786   8.754   6.854   5.600  0.6747  0.1292 -0.6571
88932SOL     OW84787   2.106   6.708  12.561 -0.2201 -0.3737 -0.2416
88932SOL    HW184788   2.179   6.664  12.605 -0.9570 -1.1938  0.1957
88932SOL    HW284789   2.046   6.732  12.631 -0.2909  0.4524 -0.5812
88933SOL     OW84790   5.909   4.070   5.923  0.2337  0.2802  0.2476
88933SOL    HW184791   5.842   4.005   5.944 -0.1777 -0.1607 -2.0723
88933SOL    HW284792   5.861   4.152   5.913  0.1604  0.1644 -0.4331
88934SOL     OW84793   6.030  12.460   2.822 -0.1805  0.1517 -0.3612
88934SOL    HW184794   6.078  12.539   2.847  1.5651 -0.4592 -1.5354
88934SOL    HW284795   6.093  12.410   2.770 -1.2780 -1.9697  0.2567
88935SOL     OW84796  13.703   9.924   3.803  0.2290  0.7396  0.2005
88935SOL    HW184797  13.697   9.847   3.859 -3.0014  1.0255  0.4471
88935SOL    HW284798  13.658   9.993   3.851  0.3279  1.9250 -1.3234
88936NA      NA84799  10.048   3.427   6.270  0.6281 -0.1770  0.3869
88937NA      NA84800   7.233  10.408   9.920  0.2935 -0.0802 -0.4347
88938NA      NA84801   8.501   5.100   7.324  0.7582  0.1717 -0.0660
88939NA      NA84802  10.694   4.509   7.191  0.3643 -0.2685  0.0089
88940NA      NA84803  14.132   6.383   1.813 -0.9551  0.2167 -0.4362
88941NA      NA84804  12.064   4.388   9.105  0.2033 -0.0456  0.1699
88942NA      NA84805   1.395  13.580   1.835 -0.7139 -0.6183 -0.1712
88943NA      NA84806   8.720   7.427   4.783  0.4280  0.3122 -0.2213
88944NA      NA84807  10.769   4.921   2.188  0.3847 -0.1657  0.8912
88945NA      NA84808  12.789   5.678  13.493 -0.0809 -0.2846  0.2626
88946NA      NA84809   3.550  14.028   9.641 -0.9909 -0.0177 -0.0139
88947NA      NA84810   5.879   8.521   2.063 -0.3420  0.6032 -0.4401
88948NA      NA84811   7.263  11.855  10.998 -0.1729 -0.0256 -0.4399
88949NA      NA84812   2.044  10.738   3.324  0.4230  0.3447 -0.3266
88950NA      NA84813  12.599   5.010   6.751 -0.3574 -0.2541 -0.5963
88951NA      NA84814   3.138  13.371  13.187  0.3068  0.2484  0.6404
88952NA      NA84815   1.130   7.951  10.179  0.1024  0.0270 -0.0429
88953NA      NA84816   8.612  10.956  12.564 -0.0580  0.1386  0.3608
88954NA      NA84817   0.262   2.099  12.785 -0.1396 -0.1101  0.0432
88955NA      NA84818   8.849  12.547   4.719  0.2804  0.3007  0.2979
88956NA      NA84819   4.764   2.205  11.906  0.1518  0.3417 -0.0504
88957NA      NA84820   8.596  13.747  12.683 -0.4878  0.9860 -0.3094
88958NA      NA84821   9.291  10.337   0.988 -0.1424  0.5977  0.5867
88959NA      NA84822   0.638   7.529  11.694 -0.8804 -0.0625 -0.0908
88960NA      NA84823   6.556  11.693   9.864  0.2311  0.2470 -0.0522
88961NA      NA84824   6.351  10.181   4.080  0.3459  0.7436  0.4614
88962NA      NA84825  12.199  11.519   7.216 -0.5548 -0.1687 -0.5602
88963NA      NA84826   0.750   1.726   1.506 -0.2618 -0.2355 -0.0278
88964NA      NA84827  10.979   7.737   6.838  0.0537  0.3586  0.2349
88965NA      NA84828  10.006   1.627   1.542  0.1283  0.1857  0.0605
88966NA      NA84829  13.688   9.682   9.142  0.0130  0.2591 -0.2002
88967NA      NA84830   0.259   5.491   8.124  0.0874 -0.2192  0.0258
88968NA      NA84831   9.664  10.408  11.806 -0.3171  0.1104  0.0790
88969NA      NA84832   4.932  11.118  12.684 -0.0840 -0.0337  0.0096
88970NA      NA84833  10.420  11.839   7.490 -0.1058  0.3085  0.2781
88971NA      NA84834   5.927   7.196  13.122 -0.0256 -0.3739  0.7795
88972NA      NA84835   1.885   9.352  13.623 -0.0762  0.2424 -0.3288
88973NA      NA84836   3.215   1.363  13.587 -0.1154 -0.0534  0.3000
88974NA      NA84837   1.535   9.371   8.478 -0.2244  0.6583 -0.0339
88975NA      NA84838  10.484   4.858   6.069 -0.2957 -0.5076 -0.3527
88976NA      NA84839   3.909  13.817  13.650 -0.3770 -0.3591 -0.0016
88977NA      NA84840   8.989   0.587   9.006  0.0240 -0.2688 -0.5584
88978NA      NA84841   7.853   6.592  13.509  0.2201 -0.1290 -0.7125
88979NA      NA84842   0.070  11.966   6.721 -0.0755  0.1254  0.3490
88980NA      NA84843  10.481  13.300  12.069  0.5440 -0.5678  0.1205
88981NA      NA84844   2.445  11.186   2.026 -0.0109  0.0395 -0.1142
88982NA      NA84845   5.742   1.969  11.621  0.2588  0.0543 -0.2841
88983NA      NA84846  10.765  11.363  12.048 -0.2685 -0.1446 -0.1909
88984NA      NA84847   6.407  13.432  11.080  0.1943 -0.0526  0.3433
88985NA      NA84848   9.870   9.328  13.137  0.2354 -0.3285  0.0682
88986NA      NA84849   9.360   3.694   0.772 -0.4846 -0.3085 -0.6255
88987NA      NA84850   8.149   1.910   9.688 -0.5126  0.5182  0.2515
88988NA      NA84851   9.387   3.426   9.836 -0.0143 -0.5571 -0.2905
88989NA      NA84852  13.780   4.831   6.814 -0.4198 -0.5510  0.6513
88990NA      NA84853   9.373   8.144  13.120 -0.3278  0.1589 -0.0545
88991NA      NA84854   5.082  12.426   0.207 -0.1315  0.7906  0.6357
88992NA      NA84855  14.054   9.169   0.382  0.1944  0.2547 -0.0628
88993NA      NA84856   9.675  12.847  13.949 -0.3652  0.7061 -0.1989
88994NA      NA84857   9.547  11.003  13.833  0.8780  0.0302  0.1459
88995NA      NA84858   9.492  12.482   7.287  0.0217 -0.1307 -0.2677
88996NA      NA84859   0.320  12.917   4.945 -0.0747 -0.6458  0.5505
88997NA      NA84860  11.145   2.532   1.254 -0.5011 -0.1631  0.0703
88998NA      NA84861   2.414  13.168  14.034  0.1058  0.0742  0.2787
88999NA      NA84862  12.791   3.160   6.668  0.0547 -0.3098 -0.4746
89000NA      NA84863  10.021   6.725   9.615  0.4551  0.1242  0.1433
89001NA      NA84864  12.660   4.321   5.892 -0.1287  0.1819  0.2312
89002NA      NA84865   8.237   6.576  10.434  0.4087  0.3461 -0.6892
89003NA      NA84866   9.242   2.752  13.405  0.8046 -0.0854  0.0765
89004NA      NA84867   9.570   4.375   5.440  0.4327  0.0632  0.3417
89005NA      NA84868   9.916   5.413   2.519 -0.1176  0.3784 -0.0009
89006NA      NA84869   9.954  11.241   2.669  0.0527  0.0190 -0.3746
89007NA      NA84870  11.389  10.927   0.441  0.2077  0.3224  0.1028
89008NA      NA84871  13.803   8.658  11.383  0.1083 -0.1553  0.1230
89009NA      NA84872  11.555  12.874  13.234  0.0848 -0.2011  0.4152
89010NA      NA84873   0.870   5.218   0.489 -0.2051 -0.4961  0.3365
89011NA      NA84874   8.919  11.852   5.981  0.0929  0.2812 -0.0194
89012NA      NA84875   6.264  13.555   4.048 -0.6959  0.1454  0.0689
89013NA      NA84876   3.903  13.342  10.196  0.4286  0.0244  0.2361
89014NA      NA84877  10.884   6.632   4.971 -0.4796 -0.2850 -0.0773
89015NA      NA84878   0.266   1.219  11.144 -0.0928 -0.3038 -0.1302
89016NA      NA84879  10.442   4.749  11.773 -0.0478  0.2456  0.4536
89017NA      NA84880  13.126   4.410  11.499 -0.1599  0.2741  0.1531
89018NA      NA84881   4.348  10.465   3.261 -0.2132  0.1108  0.0539
89019NA      NA84882   6.386   2.838  12.338  0.2681  0.4702  0.0597
89020NA      NA84883   7.765   4.371   6.112 -0.1216 -0.1818  0.5864
89021NA      NA84884  12.046   6.629   6.891 -0.0340 -0.1259 -0.3983
89022NA      NA84885   2.610  12.481  13.146  0.4071 -0.3568 -0.2464
89023NA      NA84886   8.077   9.096   3.194 -0.2742 -0.0009  0.3189
89024NA      NA84887   4.310   5.612  11.840  0.0793 -0.6387  0.2525
89025NA      NA84888   8.900   3.681   6.090 -0.6776 -0.3087 -0.2465
89026NA      NA84889   6.001  12.750  10.649  0.1001 -0.0443  0.0695
89027NA      NA84890   8.195   0.815   6.671 -0.2933 -0.7094 -0.1307
89028NA      NA84891   8.964  11.549   2.813  0.4043 -0.1918  0.4832
89029NA      NA84892   1.456  12.220   4.279 -0.0216  0.0484  0.2610
89030NA      NA84893   9.113   5.069   9.078 -0.1286  0.2157 -0.2414
89031NA      NA84894  10.764  13.239  11.223 -0.2365  0.2687 -0.0963
89032NA      NA84895  11.995   5.736   1.172 -0.2583 -0.0215 -0.0165
89033NA      NA84896   9.049   4.329   1.034  0.1040 -0.2950  0.2237
89034NA      NA84897   1.039  11.053   8.171  0.3030  0.3073 -0.3274
89035NA      NA84898   8.887   9.350   7.000 -0.3342  0.2364  0.0486
89036NA      NA84899  12.860  12.102  10.464  0.2417  0.0103 -0.4595
89037NA      NA84900  11.304   2.026  12.241  0.4591 -0.0189 -0.2040
89038NA      NA84901  12.552  13.956   5.761  0.4842 -0.5062  0.0157
89039NA      NA84902  10.413   7.637   5.584 -0.2594 -0.2392 -0.2351
89040NA      NA84903   5.044   9.079   1.274 -0.0720 -0.4644  0.1912
89041NA      NA84904   7.719  12.464  13.203 -0.4485  0.4279 -0.1242
89042NA      NA84905   2.219   8.748  13.178  0.0004  0.0648  0.2930
89043NA      NA84906   2.282   1.703  14.119  0.1560 -0.4487  0.4165
89044NA      NA84907   0.848   0.047  12.813 -0.2957 -0.1002  0.1599
89045NA      NA84908   8.321   2.370  10.600 -0.2889 -0.1707 -0.3062
89046NA      NA84909   8.131  10.503  13.733  0.0106  0.3210 -0.0038
89047NA      NA84910  10.904   2.448   2.294 -0.3356  0.1924  0.0764
89048NA      NA84911   0.814  13.662  11.981  0.4510  0.3123  0.9066
89049NA      NA84912  11.122   9.743   7.608  0.2533  0.5817 -0.3049
89050NA      NA84913  12.378   4.429   3.504  0.3007  0.1282 -0.1435
89051NA      NA84914   6.252   9.521   7.837 -0.2596 -0.4679 -0.0043
89052NA      NA84915   2.733  13.426   7.084 -0.1317 -0.5404  0.4364
89053NA      NA84916  12.946   1.857   5.686  0.3189 -0.1522 -0.8311
89054NA      NA84917   7.633  13.185  14.016 -0.1970 -0.1463 -0.3764
89055NA      NA84918   7.719  11.425   5.032  0.1327 -0.0044 -0.0442
89056NA      NA84919   0.114  13.163  13.011  0.4574 -0.0598 -0.5800
89057NA      NA84920   7.313   9.350   2.041  0.4303  0.2953 -0.1706
89058NA      NA84921   4.154  13.181   1.846  0.0884  0.2060  0.4634
89059NA      NA84922   8.209  13.663  13.162  0.2397 -0.2552  0.2813
89060NA      NA84923   3.433  11.217   8.489 -0.3220  0.0424  0.0941
89061NA      NA84924   1.971   2.722  10.441 -0.0374 -0.4247 -0.1074
89062NA      NA84925  12.403   7.575  11.492  0.3715  0.2543  0.3530
89063NA      NA84926   5.380  10.615   3.510  0.2406  0.0059  0.0568
89064NA      NA84927  11.895   9.011   2.970 -0.2884  0.2208  0.4350
89065NA      NA84928  12.503   1.834   3.855 -0.3290  0.2440 -0.1312
89066NA      NA84929   5.558  13.062   7.221  0.1363  0.4072  0.2361
89067NA      NA84930   0.198   0.896   9.191 -0.4470  0.3689 -0.0610
89068NA      NA84931  14.039  10.043   7.358  0.3721  0.6972 -0.2694
89069NA      NA84932   5.306  10.719   9.217  0.3230 -0.3395  0.2905
89070NA      NA84933   5.029   2.636   0.664  0.5307 -0.3266 -0.0574
89071NA      NA84934  13.655   8.918  13.027  0.3680 -0.4263  0.3732
89072NA      NA84935   3.753   2.656  10.342 -0.4778  0.2371 -0.5094
89073NA      NA84936   7.525   2.586   7.781  0.4688 -0.0453  0.1033
89074NA      NA84937   2.048   6.681   7.382 -0.0597  0.2238 -0.0467
89075NA      NA84938  11.586   9.054   6.276  0.4123 -0.1953 -0.2400
89076NA      NA84939   9.865   7.918   6.658 -0.1346 -0.0756  0.3045
89077NA      NA84940  10.214  13.511  11.045  0.1207  0.0921  0.1343
89078NA      NA84941   2.273   0.642  12.574 -0.4072  0.3259  0.5236
89079NA      NA84942   0.031   9.114   2.671 -0.0574  0.5500 -0.2818
89080NA      NA84943   8.136  10.042   2.791 -0.0605  0.5006  0.0213
89081NA      NA84944   1.909   5.706  11.902  0.3917  0.2676 -0.2412
89082NA      NA84945   8.242   9.145  13.416  0.8282 -0.2996  0.2407
89083NA      NA84946  11.721   5.631   8.331 -0.2678 -0.2139 -0.4690
89084NA      NA84947   2.989  12.309   6.453 -0.2221 -0.4516 -0.5299
89085NA      NA84948   5.807   8.931  10.044  0.4307  0.0901 -0.1451
89086NA      NA84949   3.211   1.109   0.197  0.1372  0.0734  0.3159
89087NA      NA84950   0.567   8.863   4.851 -0.1082  0.5239 -0.1935
89088NA      NA84951   1.993  10.059  12.562 -0.1963  0.6996 -0.4178
89089NA      NA84952  12.160   6.275  12.501  0.8809 -0.4589  0.0318
89090NA      NA84953   8.327  11.684   3.245  0.7310  0.0253 -0.5949
89091NA      NA84954   8.391  13.397   1.799  0.0749 -0.5165 -0.4383
89092NA      NA84955  10.559   9.946   4.662  0.4448  0.5897 -0.1635
89093NA      NA84956   6.143   0.467   8.138  0.0204  0.1753 -0.1613
89094NA      NA84957   3.340   8.680   8.622 -0.1125 -0.4029  0.4998
89095NA      NA84958  11.488  11.971   9.436  0.3431 -0.0246 -0.1918
89096NA      NA84959   2.252   9.194   9.086 -0.1726  0.1929 -0.3448
89097NA      NA84960   1.190   1.718   9.392 -0.1109 -0.3181 -0.4501
89098NA      NA84961   9.029  10.166   9.548 -0.2497  0.0925 -0.1576
89099NA      NA84962  12.537   2.724  13.161 -0.3719 -0.6365  0.0046
89100NA      NA84963   8.282  12.923  10.027  0.3198  0.2916  0.0389
89101NA      NA84964   8.018   0.849   8.661  0.1744 -1.0218 -0.8311
89102NA      NA84965   0.451   3.341   8.743  0.7876 -0.0225  0.7399
89103NA      NA84966  13.323   5.636  11.903  0.4057 -0.0920  0.2518
89104NA      NA84967   6.645  13.638   0.166 -0.3657  0.3483  0.0183
89105NA      NA84968  11.346   2.705   8.550 -0.1847  0.7170  0.5995
89106NA      NA84969   5.473  10.370  10.100  0.1252  0.3460  0.0437
89107NA      NA84970  13.286   7.642   8.469  0.0934  0.0307 -0.1508
89108NA      NA84971  10.752   3.130   9.856  0.3303 -0.4657  0.3830
89109NA      NA84972   6.248   0.848  10.530 -0.0393 -0.1225 -0.3281
89110NA      NA84973  13.547   4.296   8.655  0.5026 -0.0786 -0.4887
89111NA      NA84974  14.144   3.009   6.025 -0.0830  0.3320  0.1434
89112NA      NA84975  10.796  13.253   6.077  0.2228 -0.4745 -0.5170
89113NA      NA84976   7.859  13.550   9.726  0.4430 -0.2046  0.2423
89114NA      NA84977   8.857   4.610  10.254 -0.7682  0.1113  0.0996
89115NA      NA84978  12.399   1.498  10.696  0.0578 -0.0107 -0.0018
89116NA      NA84979   7.135  13.915   8.128 -0.1058 -0.1814 -0.1359
89117NA      NA84980  13.072   8.175   8.036  0.2696 -0.0277  0.3283
89118NA      NA84981   5.895   8.283   1.171 -0.1089  0.5069 -0.0998
89119NA      NA84982   7.112   5.394  10.749 -0.2714 -0.1296  0.1650
89120NA      NA84983  10.490   4.361  12.664  0.3748  0.3232  0.4975
89121NA      NA84984  14.124  12.872  12.489 -0.0654  0.0755 -0.4806
89122NA      NA84985   9.899   9.597  11.499 -0.0214  0.1988  0.2144
89123NA      NA84986   9.142  13.198   1.655 -0.1369 -0.1634 -0.1462
89124NA      NA84987   9.972  10.240   7.828 -0.0755 -0.0514 -0.0000
89125NA      NA84988   9.903   3.657  13.124 -0.3340 -0.3301 -0.0045
89126NA      NA84989   7.408   8.936  11.091 -0.3761  0.2116 -0.3024
89127NA      NA84990  11.405   3.683   2.726 -0.4217 -0.5829  0.4261
89128NA      NA84991  11.734   0.399  13.617  0.3975  0.0803  0.3637
89129NA      NA84992   3.304  12.465  13.328  0.3879 -0.2294  0.5668
89130NA      NA84993   7.635   9.919   3.344 -0.0703  0.4353 -0.3383
89131NA      NA84994   1.238   8.121   3.480 -0.3259  0.0921  0.1644
89132NA      NA84995  13.191   7.498  12.035  0.3092  0.0831 -0.3284
89133NA      NA84996   8.881  13.890  13.939 -0.1837 -0.1682  0.2260
89134NA      NA84997  13.787   8.498   6.701  0.1004 -0.0576 -0.1428
89135NA      NA84998   5.631   7.436   9.729  0.0655  1.4628 -0.3320
89136NA      NA84999   2.294  11.343  10.238 -0.1155  0.2394 -0.0671
89137NA      NA85000   0.834   0.715  13.433  0.1111 -0.2006  0.0448
89138NA      NA85001   8.424   4.894   2.389  0.0168 -0.0894  0.3017
89139NA      NA85002  12.780   5.412   8.240  0.0534  0.2329 -0.2895
89140NA      NA85003   7.204   7.135  13.625 -0.1090  0.0421 -0.3242
89141NA      NA85004   0.503   8.170   0.106 -0.1777 -0.1546  0.2825
89142NA      NA85005   9.258   8.050  11.468 -0.1910  0.3452 -0.3217
89143NA      NA85006   3.020   2.134   9.657 -0.2048 -0.1362  0.2651
89144NA      NA85007  12.139   3.200   7.011 -0.0619  0.5982  0.2366
89145NA      NA85008   8.902   7.197  10.421 -0.3278 -0.3128 -0.1654
89146NA      NA85009   8.587  11.395  13.413  0.1500 -0.2131 -0.0679
89147NA      NA85010  11.626  10.932   6.008  0.3582  0.4584 -0.2851
89148NA      NA85011  11.890   7.820   1.844 -0.2422  0.0587  0.3415
89149NA      NA85012   9.748  13.057   8.524 -0.1163 -0.0166 -0.0161
89150NA      NA85013   9.126  11.311   9.076  0.6445  0.0727 -0.1059
89151NA      NA85014  10.776  11.003   6.586 -0.3378  0.1641 -0.9151
89152NA      NA85015   1.314   2.589   8.988 -0.3700 -0.2048 -0.1314
89153NA      NA85016   6.441   7.527  10.802  0.2660 -0.1678  0.2539
89154NA      NA85017   7.746   2.565   9.660 -0.1320 -0.2645  0.4598
89155NA      NA85018   2.561   4.039   2.849  0.6640 -0.1341 -0.1275
89156NA      NA85019  11.608   7.528  13.968 -0.5174 -0.0393  0.3150
89157NA      NA85020   2.886   9.013   3.924 -0.3775 -0.0071 -0.1495
89158NA      NA85021  11.098   0.795  10.771  0.1870  0.0908 -0.4043
89159NA      NA85022   4.443  13.822   7.120 -0.4559 -0.3770  0.3349
89160NA      NA85023  13.133   4.009   2.057 -0.2045  0.3448 -0.4067
89161NA      NA85024  11.735  11.018  12.462  0.1572 -0.3500 -0.3666
89162NA      NA85025   4.613   0.414   1.292  0.3414 -0.3426  0.5213
89163NA      NA85026   3.805   6.480  12.465 -0.1976  0.5922  0.0611
89164NA      NA85027   8.706   8.428   9.384 -0.1507 -0.2369  0.4744
89165NA      NA85028   8.252  10.118  13.177 -0.0778  0.7169 -0.2753
89166NA      NA85029   8.112   1.769  14.129  0.2976 -0.5043 -0.4084
89167NA      NA85030   8.328   1.769   9.149  0.4261 -0.3222  0.3423
89168NA      NA85031   1.526  13.818   9.158  0.1265 -0.2577  0.2998
89169NA      NA85032   0.394   2.548   0.649  0.0922 -0.1383 -0.1206
89170NA      NA85033   2.416  11.762  10.078 -0.2702 -0.0127  0.0141
89171NA      NA85034   7.811   1.548  10.288  0.2395 -0.1010  0.5801
89172NA      NA85035   7.320  12.052   1.288  0.6002 -0.2768 -1.0423
89173NA      NA85036   5.930   6.632   1.161 -0.0434  0.3351  0.2267
89174NA      NA85037  13.466   7.061  10.189 -0.0383 -0.3787  0.4408
89175NA      NA85038  12.871  11.023   2.582  0.3318  0.3609  0.6432
89176NA      NA85039   0.975  13.555   5.923 -0.1407  0.1653  0.2038
89177NA      NA85040  10.832   8.070  11.994 -0.3472  0.0893 -0.1592
89178NA      NA85041  12.671   4.631  13.289 -0.3553  0.0168  0.2483
89179NA      NA85042   2.417  10.161   9.111 -0.1719  0.0205 -0.5456
89180NA      NA85043  11.199  12.344   9.042 -0.0034 -0.0904 -0.4985
89181NA      NA85044  14.041   6.452   2.573 -0.4292 -0.2895  0.1535
89182NA      NA85045  13.256  13.549   3.796 -0.0869 -0.0438  0.0935
89183NA      NA85046   8.392  12.614  11.758 -0.3867  0.1563  0.0082
89184NA      NA85047   6.138  10.907   0.757  0.1675 -0.4054 -0.1243
89185NA      NA85048   0.215   8.368  12.417  0.1503 -0.1202  0.5706
89186NA      NA85049   2.864   8.622  10.317 -0.0114  0.0863  0.1909
89187NA      NA85050   7.901   8.896  12.942  0.2309  0.6416 -0.1479
89188NA      NA85051  13.194  13.352   7.939 -0.6612 -0.2729 -0.3062
89189NA      NA85052  12.673   7.909  12.154  0.3236  0.0130 -0.4150
89190NA      NA85053   1.860   8.653  10.615  0.2708  0.1836 -0.0191
89191NA      NA85054   7.679   0.448   9.718  0.1490  0.2362  0.2751
89192NA      NA85055   4.127   0.597  10.759  0.4612  0.2356 -0.0542
89193NA      NA85056   5.734   3.128   0.055 -0.0650  0.3623  0.4315
89194NA      NA85057  10.727  13.522  13.923 -0.0336  0.2365  0.3938
89195NA      NA85058   9.319  11.471  11.013 -0.3570  0.1648 -0.6177
89196NA      NA85059   3.011   9.132   8.409 -0.1166  0.2867 -0.3422
89197NA      NA85060   5.499  13.615  10.112 -0.3702  0.2439 -0.0342
89198NA      NA85061  13.410  12.415   2.088 -0.2081  0.2642 -0.3586
89199NA      NA85062  11.182   6.054   7.619  0.3048  0.0185  0.4735
89200NA      NA85063   5.233  13.900   8.779  0.0978  0.1065  0.0847
89201CL      CL85064  13.359   7.578   8.690 -0.1732  0.0147  0.0819
89202CL      CL85065   4.686   9.616   6.693 -0.3364 -0.3484  0.3613
89203CL      CL85066   4.746   7.723   2.066  0.2045 -0.0892 -0.2057
89204CL      CL85067   6.606   1.662   5.359  0.0443  0.2327  0.4363
89205CL      CL85068   9.566   1.379   5.514 -0.3258  0.3622 -0.7989
89206CL      CL85069   5.051   1.738   1.248  0.0002  0.3647 -0.2312
89207CL      CL85070   7.832  11.008   4.194 -0.3391 -0.1659 -0.2958
89208CL      CL85071  13.274   7.080  10.862 -0.2427 -0.1339  0.1632
89209CL      CL85072   5.390   3.522   1.808 -0.3766 -0.0571  0.4466
89210CL      CL85073  10.084   1.269   5.270 -0.0394 -0.2792 -0.3277
89211CL      CL85074   7.172   5.352   2.914  0.0521 -0.5355 -0.2180
89212CL      CL85075  13.661   5.494   0.102 -0.2179  0.0561 -0.0001
89213CL      CL85076   2.754   0.953   2.866 -0.0514 -0.1992  0.2591
89214CL      CL85077   3.477   7.259  11.439  0.1668  0.3535 -0.3428
89215CL      CL85078   2.910   1.505   8.399  0.4918  0.2573  0.1660
89216CL      CL85079  11.320  10.785   3.557 -0.3987  0.3792 -0.1805
89217CL      CL85080  13.457   6.601   5.437  0.2201 -0.0014  0.2800
89218CL      CL85081  13.595   6.308   8.500 -0.2570 -0.2667  0.0122
89219CL      CL85082   3.692   4.478   3.258  0.3908  0.0311  0.3632
89220CL      CL85083   9.143   4.839   9.143  0.0719 -0.2763  0.1192
89221CL      CL85084   7.533   7.175  13.139  0.0899  0.1240  0.2398
89222CL      CL85085   4.822   4.695   0.948  0.0883  0.1399 -0.2970
89223CL      CL85086   7.119   7.341   5.796 -0.3063  0.1397 -0.0476
89224CL      CL85087   6.477  14.079   4.021 -0.3965  0.2580  0.0326
89225CL      CL85088   7.167   2.812   0.680  0.2099 -0.0344 -0.2047
89226CL      CL85089   5.489   7.371   3.962 -0.2540  0.4322 -0.0194
89227CL      CL85090   7.276   2.050   5.730 -0.5395  0.0005 -0.3934
89228CL      CL85091   1.369   2.701   1.215 -0.3425  0.4728  0.2569
89229CL      CL85092  13.169   4.053   2.293  0.1097  0.4320 -0.1040
89230CL      CL85093   2.276  13.172   7.708 -0.0812  0.0390 -0.6185
89231CL      CL85094   6.172  12.865   7.513  0.0532  0.1895  0.3896
89232CL      CL85095   7.364   6.314   3.930 -0.1054 -0.1845 -0.1496
89233CL      CL85096   4.298   5.604   0.154 -0.2639  0.0929  0.1151
89234CL      CL85097   9.248  10.582   0.923  0.0601 -0.3347  0.4013
89235CL      CL85098  13.818   7.551   0.785  0.2636  0.2683  0.1013
89236CL      CL85099   4.148   3.455   4.176  0.0836 -0.0987  0.1174
89237CL      CL85100  11.662  13.292   4.470  0.0609  0.2764  0.1237
89238CL      CL85101   3.409   3.348   3.686 -0.1688 -0.3113 -0.3207
89239CL      CL85102   5.219  13.764   4.734  0.2104  0.1805  0.0074
89240CL      CL85103   4.635   8.959  12.525  0.2128  0.3483  0.1794
89241CL      CL85104   4.383   5.250   0.484 -0.3848 -0.0437 -0.4769
89242CL      CL85105  10.156  11.586   1.932  0.5012 -0.1882 -0.1667
89243CL      CL85106  14.052   9.346   3.436  0.3064 -0.0154 -0.0289
89244CL      CL85107   4.182   7.777   8.987 -0.0468  0.2885  0.1329
89245CL      CL85108   4.714   2.820   2.724  0.3832  0.1315 -0.0606
89246CL      CL85109   1.269   2.229   3.309 -0.1219  0.0264  0.2516
89247CL      CL85110   9.276   0.897   9.274 -0.0779  0.1444 -0.1983
89248CL      CL85111   1.814   2.071  10.100  0.2830 -0.4770  0.5641
89249CL      CL85112   2.047   5.203   5.808 -0.2681  0.1649  0.1135
89250CL      CL85113   8.582   3.257   4.966  0.1098 -0.0420 -0.0958
89251CL      CL85114  11.320  12.656   6.657  0.1437  0.1496  0.2725
89252CL      CL85115   3.140   6.223   1.416  0.4187  0.1670 -0.0714
89253CL      CL85116  12.869   3.418   9.349  0.2292  0.2728  0.0301
89254CL      CL85117  13.155   4.688  10.588 -0.0138  0.1607  0.3140
89255CL      CL85118   3.812  10.947  13.003  0.3136 -0.2337 -0.1244
89256CL      CL85119   5.308   8.552   5.953 -0.2666 -0.1805 -0.3635
89257CL      CL85120  10.151   4.845   0.695 -0.2723 -0.1029 -0.1789
89258CL      CL85121  11.765   7.948   2.005  0.3038 -0.5259 -0.0900
89259CL      CL85122   3.191   2.557   6.575  0.0305  0.0150 -0.3664
89260CL      CL85123  12.285   8.719   5.154  0.2319  0.2139  0.2640
89261CL      CL85124   4.298   4.269  10.064 -0.0698  0.0082  0.1772
89262CL      CL85125   7.554   3.178   4.956 -0.2111 -0.3897 -0.1148
89263CL      CL85126   5.917   5.109   9.715  0.1241  0.3569  0.1141
89264CL      CL85127   2.130  12.947   0.104  0.2035 -0.1462 -0.2567
89265CL      CL85128   5.658   6.427   2.354  0.0998 -0.1517 -0.2299
89266CL      CL85129   7.839   0.103   7.747 -0.2097  0.0908  0.0948
89267CL      CL85130   7.507   0.235  11.544 -0.5150 -0.3083 -0.4310
89268CL      CL85131   0.655   0.789   8.792  0.2472 -0.4509 -0.0360
89269CL      CL85132   9.559   2.665   2.034  0.2847  0.0564  0.5917
89270CL      CL85133   8.574   9.791   5.572  0.1678 -0.1227 -0.1010
89271CL      CL85134  13.224  11.786   2.411 -0.3863 -0.2237 -0.3904
89272CL      CL85135   1.317  12.322  14.140  0.0745 -0.7400  0.1087
89273CL      CL85136   5.130   6.179   8.052  0.0421  0.3780 -0.1981
89274CL      CL85137   2.437   6.871   1.909 -0.0404  0.3468 -0.1683
89275CL      CL85138   2.228   3.387  12.698  0.2716  0.1007  0.1693
89276CL      CL85139   3.073   5.213   3.401  0.2867 -0.3853  0.0894
89277CL      CL85140   8.499   6.930   8.492  0.0495 -0.2365 -0.2976
89278CL      CL85141   3.753   7.437   6.367 -0.0027  0.7332 -0.2160
89279CL      CL85142   7.986   2.599   9.691 -0.0027 -0.1644 -0.1730
89280CL      CL85143   8.837   2.793   1.591  0.0648  0.6764 -0.4028
89281CL      CL85144   4.869   3.041   8.934 -0.7059  0.2017  0.1973
89282CL      CL85145   8.508  10.085  13.471 -0.0134 -0.0450  0.2767
89283CL      CL85146   2.143   2.707   1.963 -0.1208  0.0844 -0.1147
89284CL      CL85147   3.992   7.745   6.611 -0.3102 -0.2111  0.0209
89285CL      CL85148   4.217   6.874   4.735  0.0963  0.1398  0.0247
89286CL      CL85149   4.141   9.094   5.195 -0.2014 -0.0654 -0.0972
89287CL      CL85150   9.795   3.865  13.050  0.0089 -0.1481  0.2097
89288CL      CL85151  12.062   5.656   7.643 -0.3619  0.0641 -0.4669
89289CL      CL85152   0.167   5.919   0.646  0.0535  0.3255  0.1410
89290CL      CL85153   9.025  13.312   7.930 -0.1375 -0.2014  0.1428
89291CL      CL85154  12.362  13.110   0.466 -0.0597 -0.0650  0.2090
89292CL      CL85155   5.498   4.613   2.350 -0.2933  0.2709 -0.0179
89293CL      CL85156   2.161   4.659   5.021 -0.1048 -0.1539  0.2611
89294CL      CL85157   1.220  10.765  12.298  0.1950  0.3581  0.2471
89295CL      CL85158  10.762   3.196   3.282  0.1212  0.4085 -0.1046
89296CL      CL85159   8.236  11.709   3.012  0.1979 -0.2468  0.6515
89297CL      CL85160   9.064   5.215   9.261  0.1567  0.0124 -0.1694
89298CL      CL85161   1.279   8.237  10.585  0.5890 -0.2086  0.1470
89299CL      CL85162   0.728   7.218   5.051 -0.4453  0.4492  0.0854
89300CL      CL85163   1.185   5.294   7.009 -0.1323 -0.3549 -0.0865
89301CL      CL85164   6.258   4.651   2.031 -0.1998 -0.2773 -0.1740
89302CL      CL85165   2.102  11.723   7.454  0.3251 -0.2046 -0.1525
89303CL      CL85166   7.158   5.015   1.747  0.3496 -0.0953  0.0671
89304CL      CL85167   5.580   4.386   3.084  0.0364  0.1252 -0.2571
89305CL      CL85168   2.476   6.248  13.745 -0.0628  0.0201 -0.2480
89306CL      CL85169  11.524   3.289   8.880 -0.2055  0.6477  0.2507
89307CL      CL85170   5.483   0.622   8.131 -0.3108 -0.0186 -0.0309
89308CL      CL85171   9.130   2.585   3.410  0.0069 -0.0525 -0.1222
89309CL      CL85172   8.342   4.607   9.039 -0.2648 -0.5018  0.1238
89310CL      CL85173   9.353   3.058  11.771 -0.1386 -0.2995 -0.3932
89311CL      CL85174   5.781   1.812  12.552  0.2159 -0.1940 -0.1254
89312CL      CL85175   3.675   3.383  13.955  0.5244 -0.1867  0.1081
89313CL      CL85176   5.545  12.595   4.084  0.1618 -0.3408  0.4155
89314CL      CL85177   5.907   3.098  12.927 -0.3162  0.1711  0.1745
89315CL      CL85178   6.252   1.819   2.736 -0.3867  0.2768 -0.0197
89316CL      CL85179   9.482   8.286   6.426 -0.1201 -0.0282 -0.1193
89317CL      CL85180   3.553   1.280   4.449  0.2362  0.2011 -0.1716
89318CL      CL85181   9.658   2.110   3.678 -0.2383  0.0501  0.2226
89319CL      CL85182   3.092   2.493   1.324 -0.0122 -0.1407 -0.1609
89320CL      CL85183   4.527   0.913   2.980  0.2652  0.0535 -0.0954
89321CL      CL85184  13.575   9.972   9.821 -0.0015 -0.4291  0.0455
89322CL      CL85185  11.987   9.994   1.966 -0.1693  0.6058 -0.1106
89323CL      CL85186   8.376  11.070  13.143 -0.5880  0.1104  0.1583
89324CL      CL85187   5.575   8.343  11.145  0.2504 -0.1637 -0.0691
89325CL      CL85188   2.883   6.156   7.059 -0.3210  0.0086 -0.2549
89326CL      CL85189   1.502   0.294   2.144  0.1395  0.0982  0.2703
89327CL      CL85190  10.723   6.407   7.975  0.1027  0.3717  0.0845
89328CL      CL85191   8.826   5.414   3.238  0.2521  0.2732  0.0273
89329CL      CL85192   2.427   4.700   7.141  0.3093  0.1206 -0.2920
89330CL      CL85193   1.787   9.106   7.798  0.7091 -0.0734  0.0171
89331CL      CL85194   8.637   4.110   1.937 -0.1289 -0.0876 -0.0674
89332CL      CL85195   8.156   1.766   0.544 -0.0064 -0.1050  0.0477
89333CL      CL85196   6.325   0.516   7.977 -0.1610  0.0409  0.0308
89334CL      CL85197   5.229   3.053   7.529  0.1404 -0.4939  0.0600
89335CL      CL85198   1.730   6.344   3.499 -0.0848  0.2131  0.2181
89336CL      CL85199   9.636  10.209  11.677  0.4925  0.0020 -0.0239
89337CL      CL85200   7.815  10.739   1.331 -0.0489 -0.5481 -0.2717
89338CL      CL85201   8.845   4.932  13.164 -0.1291 -0.2110 -0.3274
89339CL      CL85202   4.298   4.108   1.180  0.0933 -0.1031  0.1249
89340CL      CL85203   6.299   5.629   0.170 -0.2257 -0.0073 -0.3455
89341CL      CL85204  11.844   6.546   6.963 -0.4091  0.2192  0.3952
89342CL      CL85205   4.577  13.953   4.119  0.3433 -0.3028 -0.5332
89343CL      CL85206   2.423   9.658   9.162 -0.0657 -0.0637  0.4651
89344CL      CL85207   6.604  13.344   8.651 -0.0025  0.1793  0.3043
89345CL      CL85208   8.752   0.597   7.261 -0.1743  0.0175  0.0346
89346CL      CL85209  13.740   8.001  10.667  0.0745 -0.0610 -0.3150
89347CL      CL85210  13.045   2.643   6.884 -0.1589 -0.3402  0.3411
89348CL      CL85211   5.418  13.196   2.502 -0.1362 -0.1071 -0.3929
89349CL      CL85212   7.923   2.368   2.879 -0.1075  0.4490  0.1044
89350CL      CL85213   1.804  13.064   5.981  0.0485  0.0669 -0.0800
89351CL      CL85214   2.378   2.723   3.406  0.2004  0.1035  0.4589
89352CL      CL85215  13.353   1.738   8.491 -0.0591 -0.0079  0.3768
89353CL      CL85216  10.162   3.380   8.303  0.1062  0.5971 -0.2119
89354CL      CL85217   6.711   5.477   7.690  0.0019 -0.2735  0.2095
89355CL      CL85218   7.994   1.512   3.917  0.2619 -0.2569 -0.3802
89356CL      CL85219   3.090   0.990   7.074 -0.3656  0.3940 -0.1717
89357CL      CL85220   7.005   0.894   1.659  0.4951  0.0003 -0.5116
89358CL      CL85221   2.035   4.119   7.610 -0.0600 -0.1191  0.1941
89359CL      CL85222   2.425   7.773   3.905  0.1788 -0.3545 -0.0904
89360CL      CL85223  11.094   4.202   5.869  0.0413 -0.1483  0.1615
89361CL      CL85224   2.815   4.840   3.632  0.0962  0.0127  0.4561
89362CL      CL85225   7.147   3.425   5.828 -0.0719  0.0629  0.3209
89363CL      CL85226   7.555  13.384   6.880  0.2923 -0.3087  0.1646
89364CL      CL85227  12.501   8.837  13.268  0.1737 -0.2130 -0.2037
89365CL      CL85228   9.736   0.089   1.786 -0.1471 -0.0618 -0.0697
89366CL      CL85229   4.198   4.330   8.840 -0.0740  0.0233  0.1251
89367CL      CL85230   7.672   2.341   9.738  0.2111 -0.2986 -0.0567
89368CL      CL85231   4.627   1.262   5.803  0.0289 -0.2850  0.5384
89369CL      CL85232   6.722  11.785   1.561  0.0468  0.0632  0.1864
89370CL      CL85233   9.568  10.617   9.488  0.2311  0.1012  0.4827
89371CL      CL85234   8.881   7.245   4.362  0.3169 -0.2183  0.2760
89372CL      CL85235   6.826  13.572   3.034  0.5541  0.0978 -0.1320
89373CL      CL85236   9.115   2.822   4.740  0.2980 -0.0516  0.0173
89374CL      CL85237   2.812   8.191   4.753  0.0291 -0.1433 -0.1368
89375CL      CL85238  13.636   4.597   4.166 -0.0747  0.1306  0.3972
89376CL      CL85239   4.349   3.305   7.946  0.0805  0.1054 -0.1982
89377CL      CL85240   2.244   3.283  11.683 -0.2594 -0.4088 -0.1155
89378CL      CL85241  10.822  13.475  11.128 -0.0101 -0.0740  0.4412
89379CL      CL85242   8.378   1.264   5.949 -0.3478 -0.1929  0.4318
89380CL      CL85243   4.217   8.789   2.621 -0.1978 -0.1007  0.1205
89381CL      CL85244   0.020   8.819  13.534 -0.4351 -0.0112 -0.0104
89382CL      CL85245   5.187   7.101   9.775  0.0054  0.1565 -0.0597
89383CL      CL85246   8.921  12.959  10.128 -0.2762  0.1179 -0.3282
89384CL      CL85247   5.451  13.210   7.070 -0.0181  0.0750 -0.3848
89385CL      CL85248   4.395  13.903   5.376  0.4886 -0.4705 -0.1739
89386CL      CL85249   6.614   3.325   7.944 -0.3722  0.2142  0.9049
89387CL      CL85250   9.450  11.235   3.372 -0.2069 -0.6511 -0.3203
89388CL      CL85251   2.426   4.960   5.314  0.2955  0.0374 -0.1908
89389CL      CL85252   8.647   0.335   3.617  0.3702  0.0112  0.2573
89390CL      CL85253   5.279   6.196   6.727 -0.1228  0.2445 -0.0343
89391CL      CL85254  13.863   4.347   6.415 -0.2271 -0.1041  0.0834
89392CL      CL85255  11.385  13.160   0.480  0.2190 -0.2985  0.1564
89393CL      CL85256   4.548  12.871   7.938 -0.2146 -0.1738  0.0862
89394CL      CL85257   6.193   3.716  14.016  0.2029  0.0517  0.1976
89395CL      CL85258   9.825   7.777  12.114  0.1895 -0.1997  0.2924
89396CL      CL85259   2.565   2.692   6.510  0.4019 -0.5450  0.1601
89397CL      CL85260   5.904   1.685   5.346 -0.5405  0.1484 -0.0490
89398CL      CL85261   7.963   6.756  13.669 -0.1999 -0.1956  0.0597
89399CL      CL85262  10.533  12.493  12.329  0.2988 -0.2183 -0.1369
89400CL      CL85263  12.649   4.679   3.974 -0.0370  0.0319  0.0147
89401CL      CL85264   4.154   2.831   7.960 -0.3797 -0.2480  0.1273
89402CL      CL85265   7.856  13.701   5.397 -0.3174 -0.0098 -0.1340
89403CL      CL85266   9.235   2.568   0.683  0.3426  0.1837 -0.0742
89404CL      CL85267   3.826   5.407  11.491 -0.0231 -0.4138 -0.1207
89405CL      CL85268   6.193   4.559   7.676 -0.6526 -0.4262  0.0410
89406CL      CL85269   8.112   6.771  10.440 -0.1630 -0.4507  0.3825
89407CL      CL85270   8.781   0.497   0.583 -0.2927 -0.2976 -0.1562
89408CL      CL85271   2.309   6.503   3.121  0.3217 -0.2121  0.0713
89409CL      CL85272  13.177   8.190   5.856  0.2427 -0.0938 -0.0396
89410CL      CL85273   0.658   7.236   1.043 -0.0416 -0.0327  0.3472
89411CL      CL85274   5.061   7.870   4.901  0.2059 -0.2953 -0.0421
89412CL      CL85275   7.912  13.229  10.031 -0.2445 -0.3074 -0.0779
89413CL      CL85276  10.266  11.676   7.540  0.1689  0.0381  0.5030
89414CL      CL85277   7.554   6.618   6.179  0.4280  0.2931  0.2132
89415CL      CL85278   1.719   8.733  13.996  0.0801  0.3710 -0.2564
89416CL      CL85279   9.855  11.010  13.174 -0.1043 -0.2627  0.1027
89417CL      CL85280   1.926   7.861   2.150  0.2060 -0.1299  0.2041
89418CL      CL85281   6.151   3.249   2.845  0.2067  0.1399  0.2441
89419CL      CL85282   6.344   7.455   4.352  0.0595 -0.0075  0.2510
89420CL      CL85283   4.369   3.007   1.219 -0.2057 -0.4802  0.2195
89421CL      CL85284   5.156   8.057   8.978  0.3990 -0.2364 -0.0477
89422CL      CL85285   6.818   1.159  10.138 -0.0413  0.3290 -0.6364
89423CL      CL85286   7.449   4.996   0.330  0.1456 -0.1158 -0.0595
89424CL      CL85287   4.448   3.170   2.560  0.0933  0.5324 -0.0741
89425CL      CL85288   4.328   7.993   2.504 -0.0271 -0.3529  0.1549
89426CL      CL85289   2.453   5.322   8.605  0.1707  0.1842  0.3225
89427CL      CL85290   6.369   1.940   4.793  0.0728 -0.0418  0.0257
89428CL      CL85291   7.584   4.499   5.983  0.3269 -0.2385 -0.0490
89429CL      CL85292   0.922   1.392   3.955 -0.1157 -0.0050  0.4648
89430CL      CL85293   6.977   2.981   5.203 -0.0141  0.0203  0.3609
89431CL      CL85294   7.360  12.187   5.133 -0.1415 -0.2535 -0.3840
89432CL      CL85295   3.374   3.436   8.706  0.1207  0.1790 -0.1177
89433CL      CL85296   5.775   8.405   1.335  0.5143  0.1021  0.0010
89434CL      CL85297   2.857   4.320   6.997 -0.1365  0.1325  0.1677
89435CL      CL85298   7.461   4.300   2.461  0.2276 -0.0888  0.2211
89436CL      CL85299   5.549   6.618   4.530 -0.0327 -0.3960 -0.3086
89437CL      CL85300   6.713   5.759   6.812 -0.0321 -0.3036 -0.2892
89438CL      CL85301   7.245   7.147   8.988  0.1948 -0.0950 -0.0156
89439CL      CL85302   2.564   4.054   7.621  0.2974 -0.0087  0.0453
89440CL      CL85303   3.311   2.099   3.646  0.0385 -0.3237  0.2142
89441CL      CL85304   6.810  11.872  10.873 -0.2303  0.3619  0.1650
89442CL      CL85305   7.899   4.969   6.933 -0.3192 -0.2098 -0.4425
89443CL      CL85306   4.221  10.804   5.786 -0.5338  0.0180 -0.1329
89444CL      CL85307   7.419   1.964   2.641 -0.2992  0.6358  0.7546
89445CL      CL85308   2.481   4.926   6.319  0.1944  0.3503  0.1299
89446CL      CL85309   3.560   3.483   5.892 -0.0765 -0.0656 -0.1056
89447CL      CL85310   4.410   1.004   6.212 -0.4381 -0.3424 -0.1408
89448CL      CL85311   5.466   8.460   9.881 -0.0357 -0.0070 -0.1239
89449CL      CL85312   6.901   5.353  10.870 -0.1868 -0.0796 -0.1336
89450CL      CL85313   1.208   6.787   7.057  0.4509 -0.3119 -0.2099
89451CL      CL85314   3.347   9.878   1.732  0.0489  0.0217  0.1625
89452CL      CL85315   4.483   2.220   4.476  0.3249  0.2578 -0.1711
89453CL      CL85316   3.925   6.990   6.182  0.0652  0.4073  0.1801
89454CL      CL85317   6.180   2.248  10.109 -0.2859  0.2439  0.0249
89455CL      CL85318   6.113   5.485   6.172 -0.3311 -0.6068 -0.0456
89456CL      CL85319   1.257  13.788  14.062  0.0833  0.0893 -0.1289
89457CL      CL85320   4.111   2.004  13.960  0.1089 -0.2615  0.0309
89458CL      CL85321   9.355  12.809  10.962 -0.2693  0.0063  0.0829
89459CL      CL85322   2.552   2.361   8.909  0.0978  0.2351  0.4486
89460CL      CL85323   7.172  14.040   9.933 -0.2944  0.3570  0.0287
89461CL      CL85324   7.503   2.885   6.436  0.1406  0.2253 -0.1208
89462CL      CL85325   0.567  13.488   3.381  0.2135 -0.1084  0.0590
89463CL      CL85326   0.612   6.240   1.634  0.3187 -0.0052 -0.1483
89464CL      CL85327   0.818   9.104   0.176  0.2362  0.2670  0.0099
89465CL      CL85328   1.880   5.930   0.287  0.2311 -0.0445  0.2804
89466CL      CL85329   4.437   2.659   7.568 -0.1793 -0.0070  0.1416
89467CL      CL85330  12.493   5.622  11.437  0.3214 -0.2575 -0.2253
89468CL      CL85331   7.511   6.873   6.618  0.1532 -0.0242  0.4206
89469CL      CL85332   5.226   3.120   9.842  0.3026  0.0996 -0.0361
89470CL      CL85333   9.278   9.957   9.044  0.0584  0.1084  0.1322
89471CL      CL85334   5.785   0.881   4.545  0.3654  0.0989 -0.0878
89472CL      CL85335   6.350   3.799   1.412  0.1412  0.3639 -0.2311
89473CL      CL85336  11.431  11.792   7.087  0.2938  0.1813 -0.1137
89474CL      CL85337   7.780   1.731  13.776  0.2273  0.0338 -0.2914
89475CL      CL85338   3.420   3.088   4.867 -0.1819  0.3246 -0.1537
89476CL      CL85339   0.733   3.046   3.849 -0.1135  0.0012  0.1571
89477CL      CL85340   2.171  11.328   5.309 -0.2563 -0.0267 -0.0354
89478CL      CL85341   0.331   1.764   6.537 -0.4406 -0.2874 -0.0294
89479CL      CL85342   7.460   7.341   2.305  0.0643 -0.1503 -0.0501
89480CL      CL85343   2.394   6.428   3.574  0.0680 -0.2617  0.2062
89481CL      CL85344   2.462   2.295   4.249  0.3564 -0.2585  0.4547
89482CL      CL85345   5.035   0.708   7.900  0.0333  0.4453 -0.4516
89483CL      CL85346  10.805   4.335   2.980  0.0807  0.0484  0.3206
89484CL      CL85347   5.575   2.491  13.916  0.0564  0.3518 -0.0147
89485CL      CL85348   4.164   4.259   5.639  0.1835  0.0609  0.0716
89486CL      CL85349   3.100   8.986   8.245  0.0864  0.0553 -0.0931
89487CL      CL85350  11.602  11.921   9.660 -0.1891 -0.1472  0.2470
89488CL      CL85351   8.102   5.250   9.885 -0.1814  0.0214  0.0544
89489CL      CL85352   8.801   8.086   3.438  0.1422 -0.1321 -0.6507
89490CL      CL85353   4.901   5.730   3.429 -0.2481 -0.1646  0.2195
89491CL      CL85354  10.171   5.719   6.585  0.1397 -0.0951 -0.2087
89492CL      CL85355   1.881   5.887   4.679  0.2293 -0.2030 -0.5639
89493CL      CL85356   8.828   5.099   5.204 -0.4455 -0.3853 -0.3412
89494CL      CL85357   6.990   6.252   4.428  0.6415 -0.2237  0.3153
89495CL      CL85358  13.488  10.043  11.294  0.2115 -0.1484  0.1195
89496CL      CL85359   6.948   7.035   1.472  0.4553 -0.6213  0.2251
89497CL      CL85360  11.291   0.723  11.162  0.4648  0.0374 -0.1001
89498CL      CL85361   4.490   5.600   9.906  0.0112  0.1451 -0.5117
89499CL      CL85362   3.986   7.306   7.915  0.0509 -0.0865  0.1961
89500CL      CL85363  14.145   8.325  12.500  0.0166 -0.3095 -0.0926
89501CL      CL85364   5.995   4.542   7.257  0.4156 -0.1499  0.1566
89502CL      CL85365   2.801   5.651   6.860 -0.3528  0.1697 -0.2126
89503CL      CL85366   7.306   4.620   4.202  0.1867 -0.1528 -0.4365
89504CL      CL85367   2.332   3.626   9.667 -0.2749  0.0263  0.0337
89505CL      CL85368   7.248   3.826   1.320  0.2366 -0.3863  0.1208
89506CL      CL85369   4.176   7.369   1.394  0.4777  0.0143 -0.0550
89507CL      CL85370   5.461   2.960   6.931 -0.1168 -0.0209  0.1879
89508CL      CL85371   5.355   7.397   7.448  0.1729 -0.2341  0.0952
89509CL      CL85372   0.824   8.491   3.895  0.1696 -0.0929 -0.2644
89510CL      CL85373   6.563   4.949   5.782 -0.2641 -0.3469  0.0405
89511CL      CL85374   2.740   7.498   4.020 -0.4390  0.0781  0.1544
89512CL      CL85375   0.450   5.059   8.039  0.4397  0.0416 -0.1191
89513CL      CL85376   6.167   1.281   3.620 -0.0415 -0.0321  0.2340
89514CL      CL85377  14.044  13.314  12.241 -0.1698  0.2320 -0.1397
89515CL      CL85378   5.793   2.962   0.963  0.0783 -0.0715 -0.3266
89516CL      CL85379   4.305   9.958   9.307  0.0783 -0.2986  0.2128
89517CL      CL85380   1.545   7.716   3.482 -0.1769  0.5769 -0.0862
89518CL      CL85381   6.417   6.597   3.364 -0.2401  0.2606  0.0788
89519CL      CL85382  13.134   0.849   7.313  0.2164  0.4826 -0.2015
89520CL      CL85383   2.839   4.018   3.167  0.1582 -0.1687 -0.2070
89521CL      CL85384   3.475   2.155   1.190  0.1763 -0.0959  0.1647
89522CL      CL85385   6.783   3.495   7.522  0.3819  0.4560  0.2778
89523CL      CL85386  10.085   2.714   7.245  0.1980 -0.0885 -0.0065
89524CL      CL85387   5.049  13.841  11.072 -0.1570  0.1088 -0.0382
89525CL      CL85388   8.020  12.109   8.669  0.5117  0.3291 -0.0066
89526CL      CL85389   3.465   0.928   9.758  0.3312  0.1770  0.0065
89527CL      CL85390   4.358   5.545   4.496 -0.4587  0.2618 -0.1921
89528CL      CL85391   9.610   7.681   8.038  0.2933  0.1531  0.0354
89529CL      CL85392   8.815   5.835   0.308  0.3143 -0.0065 -0.2197
89530CL      CL85393   5.452   5.063   4.378  0.3334 -0.0569 -0.0402
89531CL      CL85394   5.808   2.884   3.057  0.3115  0.1154 -0.1307
89532CL      CL85395   6.098   4.613   6.759 -0.1599 -0.4940  0.0310
89533CL      CL85396   1.465   8.624   4.629 -0.2212 -0.3498  0.4578
89534CL      CL85397   6.906  14.135   6.113  0.3678 -0.2537 -0.0528
89535CL      CL85398  12.553   3.178   1.461 -0.1399  0.2456  0.1191
89536CL      CL85399   0.451  10.669   0.146  0.2671  0.0275 -0.1365
89537CL      CL85400   0.778   4.716   3.583  0.1775  0.0085 -0.1634
89538CL      CL85401   4.996   6.026  12.100  0.4032 -0.2345  0.0024
89539CL      CL85402   2.583   0.583  13.687  0.1878 -0.3188 -0.2203
89540CL      CL85403   2.750  13.799   4.856  0.2673 -0.2302 -0.6335
89541CL      CL85404   7.537   1.973  10.800 -0.1398 -0.2368 -0.1079
89542CL      CL85405   5.901   0.990   5.352 -0.0577  0.2915  0.1191
89543CL      CL85406   6.542  14.078  10.737 -0.4953 -0.0872 -0.3721
89544CL      CL85407   7.785  11.699  13.747  0.0780  0.0198  0.4171
89545CL      CL85408   8.435  12.241  12.002 -0.3746  0.3527 -0.6567
89546CL      CL85409   5.186   0.875   9.582  0.1056 -0.1298  0.0831
89547CL      CL85410   7.448   9.968   2.859 -0.0538  0.1914  0.0523
89548CL      CL85411   5.791   5.286   3.558 -0.2056 -0.0773 -0.4555
89549CL      CL85412   4.331   5.824   3.650  0.0878 -0.0159  0.0636
89550CL      CL85413  11.179   3.027   2.235 -0.1181  0.2132  0.7485
89551CL      CL85414   3.960   8.050   3.978 -0.2057 -0.2246 -0.1907
89552CL      CL85415   6.317   6.308   4.270  0.0925  0.1045 -0.0989
89553CL      CL85416   4.889   9.363   9.189 -0.3927 -0.1997 -0.3659
89554CL      CL85417   6.923   6.760   7.339 -0.3366  0.4434  0.1878
89555CL      CL85418   2.587  11.759   2.454  0.0784  0.0173  0.2320
89556CL      CL85419  12.017   4.489   0.318  0.0646 -0.2088  0.3989
89557CL      CL85420   3.123   2.731   7.361  0.0921 -0.4235 -0.1670
89558CL      CL85421   8.868   5.725   4.981  0.5934 -0.1794  0.1503
89559CL      CL85422  10.978   8.641   6.704  0.1893 -0.4391  0.2367
89560CL      CL85423   7.800   4.155   6.031 -0.1191 -0.0427 -0.0229
89561CL      CL85424   8.736   7.078   9.421 -0.1010  0.4006  0.0041
89562CL      CL85425  13.303  12.010   0.602 -0.1357 -0.1917  0.2807
89563CL      CL85426   8.197   8.211   7.010  0.0785 -0.0122  0.4380
89564CL      CL85427   4.912   1.691   5.393 -0.1273  0.0669  0.0819
89565CL      CL85428   7.286   7.604   5.437  0.0939  0.0842 -0.3560
89566CL      CL85429   5.682   4.745   3.335 -0.1225  0.2824 -0.0807
89567CL      CL85430   6.338   8.462   5.807 -0.3043  0.6092 -0.3995
89568CL      CL85431  11.076   7.302   6.979  0.3308 -0.2783 -0.2323
89569CL      CL85432   3.141   6.080   4.871 -0.4272 -0.0420 -0.5210
89570CL      CL85433   5.980   6.621   1.400 -0.3939 -0.1358  0.2979
89571CL      CL85434   6.632   8.133   8.069  0.2187 -0.5007  0.1741
89572CL      CL85435   7.724   2.692   7.855 -0.2290  0.3808  0.1483
89573CL      CL85436   5.751   2.577   3.431 -0.1121 -0.1379  0.3272
89574CL      CL85437  10.004  11.655  10.640 -0.0599 -0.1715  0.1528
89575CL      CL85438   2.526   3.771   5.837 -0.0350  0.3362 -0.0656
89576CL      CL85439   2.301  10.466   9.479 -0.1408  0.1417 -0.0166
89577CL      CL85440   7.335   6.763   0.779 -0.0802  0.3019 -0.2376
89578CL      CL85441   6.228   4.990   1.222 -0.1212 -0.1770  0.0653
89579CL      CL85442   1.560   8.507   1.879  0.0955  0.0324  0.6065
89580CL      CL85443  13.414   6.565  11.957  0.4693  0.1935 -0.2332
89581CL      CL85444  10.946  14.041   7.022 -0.0485 -0.0453  0.0847
89582CL      CL85445   4.317   2.121   3.456  0.2194  0.0143  0.0195
89583CL      CL85446   7.548   5.961   2.920 -0.0289  0.2009 -0.0910
89584CL      CL85447   0.280   5.571   7.900  0.0937  0.1710 -0.1849
89585CL      CL85448   1.359   4.759   4.544  0.3158  0.3486 -0.0266
89586CL      CL85449  13.282  10.262  12.426  0.3510  0.1256  0.0915
89587CL      CL85450   7.106   0.064   1.883  0.0684 -0.0567 -0.1439
89588CL      CL85451   2.203   7.006   7.647 -0.1064 -0.1344 -0.4381
89589CL      CL85452   8.270   2.047   4.205 -0.5827  0.3476  0.0582
89590CL      CL85453   5.492   6.488   8.772  0.2686 -0.0971 -0.0295
89591CL      CL85454   2.946   6.612   8.620  0.1404  0.1909  0.3113
89592CL      CL85455   5.627   6.251   6.344 -0.0110 -0.6169  0.7100
89593CL      CL85456  11.353   1.403   2.484  0.0280  0.1220 -0.2496
89594CL      CL85457   4.071   4.622   0.037 -0.4702 -0.2321 -0.0701
89595CL      CL85458   6.746   2.875   3.129 -0.0440  0.1911 -0.0438
89596CL      CL85459   4.133  13.359  11.905  0.3932 -0.2592 -0.2120
89597CL      CL85460   5.716  13.664   4.829 -0.2973  0.1473  0.0122
89598CL      CL85461  10.237   7.718   8.890 -0.0875  0.0937 -0.4516
89599CL      CL85462   0.276   2.615   5.802  0.1819  0.0063 -0.2207
89600CL      CL85463   0.752   8.053   3.074 -0.1473  0.2240  0.4055
89601CL      CL85464   7.621   1.407   5.217  0.1088 -0.2371  0.1408
89602CL      CL85465   7.223   5.576   6.022 -0.2807 -0.2660  0.0408
89603CL      CL85466   5.406   6.514   5.453  0.3366  0.1511  0.0089
89604CL      CL85467   8.511   3.112   3.210 -0.1863  0.0409 -0.1481
89605CL      CL85468   9.724  11.479  12.339  0.0400 -0.2522  0.1919
89606CL      CL85469   6.014   2.765   3.905 -0.1546  0.3347  0.2032
89607CL      CL85470   5.623   7.050   3.355 -0.1808  0.1060 -0.1782
89608CL      CL85471  10.620   2.647  11.488 -0.2950 -0.0595  0.2527
89609CL      CL85472   5.794   8.286   3.099  0.2681  0.4319  0.0085
89610CL      CL85473  13.308  10.496   5.689 -0.2496 -0.2455  0.0693
89611CL      CL85474   5.739   2.897   4.947  0.0249  0.1088 -0.1672
89612CL      CL85475   3.979   6.235   6.705  0.1321 -0.0043  0.4353
89613CL      CL85476   8.071   3.535   4.008  0.2836  0.3127  0.1142
89614CL      CL85477   3.559   2.844  10.764 -0.3267  0.5247  0.2570
89615CL      CL85478   4.629   7.201   0.523  0.1290  0.1801 -0.1892
89616CL      CL85479  10.900  12.018   0.275  0.1069  0.2471  0.0340
89617CL      CL85480   7.404   2.168   1.821  0.0861  0.1419  0.0787
89618CL      CL85481   4.027   2.201   4.187 -0.0683 -0.0278 -0.2075
89619CL      CL85482   9.617   1.381  11.747  0.2761 -0.2662 -0.1920
89620CL      CL85483   7.011   7.913   2.326 -0.0211 -0.1971 -0.0262
89621CL      CL85484   0.162   0.315   4.514  0.2914  0.0674  0.3171
89622CL      CL85485   0.100   6.974   1.893 -0.1050  0.0711  0.4452
89623CL      CL85486   6.002   5.744   1.296 -0.3036 -0.2856  0.3600
89624CL      CL85487  11.549   8.678   1.411  0.0166 -0.1277  0.3340
89625CL      CL85488   6.302  10.699  11.070 -0.1051  0.0653  0.4221
89626CL      CL85489   9.717   4.825  10.584  0.1545  0.7008 -0.1926
89627CL      CL85490   5.260   0.925   6.205 -0.0358  0.1741 -0.1274
89628CL      CL85491   4.488   6.096   6.129  0.2025 -0.4315 -0.0966
89629CL      CL85492   1.123  10.068   7.159  0.2933  0.1772 -0.6449
89630CL      CL85493   7.317   7.104   0.184  0.1308  0.0493  0.3033
89631CL      CL85494   4.997  13.436   2.586  0.1047  0.0456 -0.4816
89632CL      CL85495   6.441  10.755   9.312  0.2939  0.0735 -0.1801
89633CL      CL85496   8.273  10.489  13.520  0.0548  0.0103 -0.0779
89634CL      CL85497   3.174   0.681   2.553  0.0892 -0.2787  0.5149
89635CL      CL85498   5.628   6.791   6.349  0.1498 -0.2016  0.1601
89636CL      CL85499   5.331   6.794   1.354  0.0237  0.4543  0.0326
89637CL      CL85500   7.703  12.928   4.083  0.1774 -0.1700 -0.3335
89638CL      CL85501  10.566   3.451   3.858  0.0802 -0.1670 -0.2172
89639CL      CL85502  10.588   7.563   5.402  0.1401  0.1153 -0.3384
89640CL      CL85503   1.087   1.865   8.982 -0.1150 -0.1511  0.2262
89641CL      CL85504   6.516  12.781   8.682  0.0342 -0.1245 -0.0462
89642CL      CL85505   1.880  13.929  12.980 -0.5108 -0.2282  0.3413
89643CL      CL85506   3.709   7.180   8.576 -0.1819 -0.0654 -0.3132
89644CL      CL85507   1.104   0.473  11.004  0.0975  0.1708 -0.1127
89645CL      CL85508   4.538   4.505   4.017  0.1299 -0.0344  0.5370
89646CL      CL85509   6.166   2.940   7.592  0.0094 -0.3644  0.0120
89647CL      CL85510   4.796   3.356   4.723 -0.3718 -0.0016  0.2056
89648CL      CL85511   4.777  13.385   1.480  0.0016  0.2457 -0.2186
89649CL      CL85512   7.345   1.679   9.634  0.0273  0.2666 -0.1207
89650CL      CL85513   3.341   6.228   5.586 -0.0469 -0.5072  0.0617
89651CL      CL85514   3.103   7.637   5.942 -0.1000  0.0399 -0.4892
89652CL      CL85515   3.230   0.191   6.951 -0.3972 -0.2809 -0.1656
89653CL      CL85516  12.814   8.462   7.773 -0.2822  0.1453 -0.1544
89654CL      CL85517   4.927   1.147   2.829  0.0678 -0.1543  0.6237
89655CL      CL85518   4.156   8.816   7.907 -0.1700  0.5633  0.0522
89656CL      CL85519   9.309   3.763   5.838  0.2798  0.2816 -0.2020
89657CL      CL85520   4.966   1.911   5.813  0.2067  0.1271 -0.1682
89658CL      CL85521   6.698   9.976   6.204  0.0336 -0.2832  0.1337
89659CL      CL85522   0.263  12.077   6.046 -0.3815  0.1343 -0.1470
89660CL      CL85523  12.772   5.306   4.759 -0.0538  0.1477 -0.2582
89661CL      CL85524  10.848   9.943   5.010 -0.6462 -0.4803  0.2233
89662CL      CL85525   7.464   2.607   7.537  0.1787 -0.0507  0.0749
89663CL      CL85526   5.859  14.103   9.312  0.0105  0.2889  0.2442
89664CL      CL85527   4.938   5.697   2.244  0.2614  0.1590 -0.0247
89665CL      CL85528   2.156   0.769   5.134 -0.0037 -0.0536  0.1427
89666CL      CL85529   4.226   6.239   5.102  0.2284  0.2829  0.3631
89667CL      CL85530   5.001   1.027   3.761  0.2517 -0.2460  0.0641
89668CL      CL85531   4.082   5.899   7.386  0.1248  0.5040 -0.0241
89669CL      CL85532   9.286   4.313   2.226  0.0139 -0.0361  0.0229
89670CL      CL85533   3.849   0.250   5.544 -0.1776 -0.2570 -0.1080
89671CL      CL85534   1.491   5.848   5.544  0.0696 -0.1078 -0.0027
89672CL      CL85535   9.405  12.846  13.592  0.0730  0.1964 -0.1410
89673CL      CL85536   4.596   2.657  12.742 -0.1513 -0.1229 -0.0276
89674CL      CL85537   9.993   7.041  11.578 -0.4295 -0.0223  0.0903
89675CL      CL85538  11.707   4.357  10.626  0.1673 -0.0439 -0.0560
89676CL      CL85539   4.462   1.769   5.050 -0.2129  0.3486 -0.0101
89677CL      CL85540   2.021  10.352  10.886 -0.4579 -0.5750  0.1369
89678CL      CL85541   8.763   1.565   2.041 -0.0061 -0.7281  0.0516
89679CL      CL85542   6.103   8.385   4.310 -0.1939 -0.2756 -0.4247
89680CL      CL85543  11.057   8.441   5.227  0.1347 -0.3340 -0.3356
89681CL      CL85544   5.610   3.345   3.820  0.1105  0.3075 -0.1644
89682CL      CL85545   4.547  10.025  13.851 -0.0900 -0.1312 -0.3493
89683CL      CL85546   7.240  13.394   1.950 -0.2671 -0.0471 -0.2790
89684CL      CL85547   4.698   4.336   5.165  0.0808  0.2004 -0.1853
89685CL      CL85548  10.228   5.523  10.941  0.2484 -0.2992  0.1922
89686CL      CL85549   9.277   2.564   9.032  0.2399  0.0553 -0.0038
89687CL      CL85550   0.015   0.302   9.773  0.0453  0.3057 -0.2203
89688CL      CL85551   4.841   3.823   5.382 -0.0073  0.1770 -0.2092
89689CL      CL85552   7.737   7.666   8.100 -0.6429 -0.1176 -0.2574
89690CL      CL85553   1.718   0.495   3.764  0.2569  0.0727 -0.0127
89691CL      CL85554  11.841   8.546  12.658  0.2199  0.1224 -0.0508
89692CL      CL85555   1.520   1.850  12.594  0.0689 -0.3703 -0.0624
89693CL      CL85556  10.976   2.701   9.976 -0.3051 -0.0883  0.3141
89694CL      CL85557   4.746   6.074  14.099 -0.2147  0.5440  0.2538
89695CL      CL85558  13.170   0.358   6.517  0.1857  0.2104 -0.3363
89696CL      CL85559   1.040   6.232  12.595 -0.1696  0.1946 -0.1357
89697CL      CL85560   6.540   0.803   4.370  0.1966  0.1297  0.1723
89698CL      CL85561   4.775   9.223   7.684  0.0218 -0.1260 -0.2870
89699CL      CL85562   2.587   8.793   4.210 -0.3534 -0.1688  0.2250
89700CL      CL85563   2.914   8.129   0.808  0.1970 -0.3363  0.1040
89701CL      CL85564   3.320   5.776   8.618  0.3868 -0.2271 -0.3261
89702CL      CL85565   2.939   2.859  10.292  0.1144 -0.0867  0.1823
89703CL      CL85566   5.499   2.951   6.234  0.1149  0.3173 -0.0135
89704CL      CL85567   5.560  10.853  10.301  0.1072  0.2687  0.2885
89705CL      CL85568   4.870   8.501   1.915  0.3570  0.1764  0.2079
89706CL      CL85569   7.257   5.793   7.730 -0.3273 -0.5004 -0.0077
89707CL      CL85570   2.035   4.091   2.722  0.0695  0.1279 -0.3460
89708CL      CL85571   4.924   6.998   5.583  0.2460 -0.1740  0.0677
89709CL      CL85572   7.388   0.920   5.988 -0.1016 -0.0499  0.4442
89710CL      CL85573   8.633   5.676   1.871 -0.0096 -0.1937  0.8594
89711CL      CL85574  11.734  10.922  11.503 -0.0447 -0.0512  0.4166
89712CL      CL85575   1.811   5.866   3.081 -0.3019  0.2764  0.0976
89713CL      CL85576   3.485   2.167   8.858 -0.1523 -0.5419 -0.3985
89714CL      CL85577  12.646   7.826  11.249  0.1445  0.0086 -0.3017
89715CL      CL85578   3.940   0.431   0.573 -0.3439 -0.3100 -0.2084
89716CL      CL85579   4.289   1.412   1.542  0.0524  0.2072 -0.1969
89717CL      CL85580   4.096   7.010   4.272 -0.2622 -0.0843  0.1211
89718CL      CL85581   4.845   0.375   2.702  0.0135  0.1040 -0.0975
89719CL      CL85582  10.623   2.026   3.418  0.0674  0.1144 -0.1568
89720CL      CL85583   2.415   8.196   9.628  0.1799  0.0738  0.1457
89721CL      CL85584   7.351   9.459   9.132 -0.0076 -0.0191  0.1393
89722CL      CL85585   6.697   1.573   5.921  0.4206  0.0898 -0.3117
89723CL      CL85586  13.714   7.401  12.752  0.0504 -0.1494  0.1751
89724CL      CL85587   1.751   5.957   4.269  0.0396  0.2308 -0.5666
89725CL      CL85588   2.442   6.797   6.675 -0.1292 -0.1333 -0.0419
89726CL      CL85589   7.279   0.565  10.895  0.4884  0.3140 -0.3966
89727CL      CL85590   3.239  11.406   5.507  0.1524  0.2138  0.1323
89728CL      CL85591   4.644   1.197   8.366 -0.0201  0.4752 -0.1110
89729CL      CL85592   5.611  13.816   0.729 -0.5391 -0.1258 -0.0094
89730CL      CL85593   1.297   5.474   6.236 -0.1901  0.4652  0.1559
89731CL      CL85594   6.023   6.179  12.808 -0.0286 -0.0339  0.0694
89732CL      CL85595   6.315   7.850   7.193 -0.2247 -0.0046  0.3638
89733CL      CL85596  10.426  10.986   6.185 -0.0722  0.0999  0.3485
89734CL      CL85597   3.721   2.540   5.493 -0.0358 -0.0418 -0.2101
89735CL      CL85598  11.037   2.480   1.761 -0.0537  0.1066 -0.0180
89736CL      CL85599  11.423   3.723   2.964 -0.2609  0.3333 -0.1555
89737CL      CL85600   3.168   1.876   4.341  0.0896 -0.1939  0.2497
89738CL      CL85601   8.011   2.961  10.474 -0.1798 -0.2623  0.2468
89739CL      CL85602  12.512   1.085  10.361 -0.0196 -0.0762  0.0782
89740CL      CL85603   2.596   9.691  11.152  0.1180  0.4861 -0.3587
89741CL      CL85604   2.847   3.766   4.140 -0.1743  0.0642  0.1553
89742CL      CL85605   6.187   9.496   5.453 -0.4492 -0.5000  0.4297
89743CL      CL85606   0.724  10.219  12.877  0.1446  0.2817 -0.2137
89744CL      CL85607   8.125   8.947  13.354 -0.0019  0.1734  0.3749
89745CL      CL85608  10.523   1.922   1.927 -0.2756 -0.3752  0.0533
89746CL      CL85609   1.060   5.695   2.440 -0.0572 -0.5440  0.1594
89747CL      CL85610   1.998  11.109  10.400  0.1429 -0.3188  0.0654
89748CL      CL85611   1.454   7.477   2.610  0.0454  0.1543  0.2482
89749CL      CL85612   3.364  12.726  10.827  0.1450 -0.0617 -0.0814
89750CL      CL85613   4.631   2.103   2.659 -0.1539 -0.5356 -0.2114
89751CL      CL85614   5.902   6.588   9.137  0.2933  0.1677 -0.2531
89752CL      CL85615   7.269   6.853   2.132  0.1932  0.1354 -0.3825
89753CL      CL85616  14.144  12.712   7.574 -0.0258 -0.1883  0.2642
89754CL      CL85617   0.071   8.251   4.215 -0.0992 -0.1320  0.4593
89755CL      CL85618   1.453   2.114   9.086  0.0568  0.2179 -0.4908
89756CL      CL85619   8.249   5.693  11.620  0.1033  0.0485  0.0212
89757CL      CL85620   2.733   7.554   1.932 -0.2536  0.0447  0.5953
89758CL      CL85621   7.296   9.396  14.095  0.1109 -0.2693  0.0880
89759CL      CL85622   2.152   4.320   1.145 -0.3209  0.0566 -0.1586
89760CL      CL85623   8.551   9.086  11.648  0.2050  0.1389 -0.2116
89761CL      CL85624   2.870   6.359   5.510 -0.1317 -0.2116 -0.0065
89762CL      CL85625   2.775   3.035   8.831  0.0467 -0.0025 -0.1050
89763CL      CL85626   9.941   5.705   3.921 -0.0690  0.2395 -0.2909
89764CL      CL85627   7.026   2.924   8.022  0.3300  0.2634  0.2942
89765CL      CL85628   3.391   4.051   2.688 -0.0116  0.2842 -0.5303
89766CL      CL85629   8.260   9.067   4.311  0.0714  0.0674  0.2408
89767CL      CL85630   9.780  10.757   0.485  0.4308 -0.0937 -0.2403
89768CL      CL85631   3.088   4.787  10.619 -0.0654  0.1101  0.1054
89769CL      CL85632   3.539   3.516   2.334 -0.2280  0.2507 -0.1132
89770CL      CL85633   5.418  13.804  13.543  0.1934 -0.0623  0.0369
89771CL      CL85634   8.429   0.827   3.598 -0.1194 -0.2485  0.0416
89772CL      CL85635   2.517   5.187   4.742  0.0241  0.0220  0.1263
89773CL      CL85636   3.808   2.460   6.674  0.3421  0.2751  0.5046
89774CL      CL85637  10.164   5.386  13.906  0.0999 -0.0134 -0.0314
89775CL      CL85638   4.766   2.037  10.492  0.1673 -0.1760  0.3706
89776CL      CL85639   2.986   3.003   5.173  0.2605 -0.1623 -0.3243
89777CL      CL85640  12.780   6.529   2.791 -0.0922  0.1566  0.4448
89778CL      CL85641   4.382   6.129   8.813  0.3274 -0.1718 -0.2245
89779CL      CL85642  13.900   2.390   0.782  0.0391  0.0721  0.4277
89780CL      CL85643   6.131   8.299   1.169  0.2543 -0.1480  0.2604
89781CL      CL85644   3.900   4.986   5.662 -0.2100 -0.2810 -0.4368
89782CL      CL85645   4.272  12.229   7.718 -0.2721 -0.0779 -0.3596
89783CL      CL85646   0.984   4.252   9.202 -0.2288  0.0683  0.0728
89784CL      CL85647   0.638  12.788   3.512  0.3733  0.0906  0.1177
89785CL      CL85648   2.406  12.765   2.756 -0.1095  0.2575  0.0259
89786CL      CL85649   1.703  10.036   4.296  0.2267 -0.2808 -0.3139
89787CL      CL85650   7.869   9.417  12.502  0.0117  0.0899 -0.1399
89788CL      CL85651   8.717   3.883  10.186 -0.0232  0.3052  0.2484
89789CL      CL85652   3.332   2.447   3.044 -0.0426  0.1868 -0.0396
89790CL      CL85653   6.699  13.718  10.477 -0.4835  0.0058 -0.0450
89791CL      CL85654   7.687   6.324   3.190  0.2448 -0.2288 -0.0672
89792CL      CL85655  12.936   5.776   0.458 -0.0465  0.4204  0.0075
89793CL      CL85656  13.137   3.873   7.242  0.1899 -0.1755 -0.5111
89794CL      CL85657   7.885   0.932   8.835  0.1751 -0.4438 -0.1811
89795CL      CL85658   7.263  10.691   0.572  0.3606  0.2015  0.0745
89796CL      CL85659   9.520   4.607   4.354 -0.1802  0.1036  0.0311
89797CL      CL85660   8.876   0.596   2.820  0.0021 -0.1748  0.1172
89798CL      CL85661   4.191   4.784   8.914 -0.5320  0.3373  0.2421
89799CL      CL85662  11.374   2.543   4.143  0.1046 -0.1773 -0.4935
89800CL      CL85663   8.146   9.247  10.683 -0.2390 -0.5135  0.4903
89801CL      CL85664   1.536   2.602   7.771  0.3894 -0.2087  0.3938
89802CL      CL85665   1.634   2.026   6.397  0.1977 -0.5804 -0.2323
89803CL      CL85666   6.996   4.187   4.699 -0.2402  0.2862  0.0965
89804CL      CL85667  11.386   1.264  13.306  0.3399  0.0814 -0.2244
89805CL      CL85668   3.827   3.727   7.559 -0.2319  0.0344  0.4020
89806CL      CL85669   7.192   1.573   3.783 -0.3421 -0.2098 -0.0914
89807CL      CL85670   1.055   3.823   4.485  0.1501  0.0218 -0.0371
89808CL      CL85671   3.501   4.168   0.767 -0.2078 -0.1763  0.0990
89809CL      CL85672  13.984  12.857   4.359  0.4413 -0.2411  0.3727
89810CL      CL85673  11.302  13.112  13.707 -0.1338  0.0130 -0.1299
89811CL      CL85674   3.074   5.917   3.975  0.0858 -0.2076  0.1286
89812CL      CL85675  11.996   3.266  13.953  0.1856  0.3068  0.3518
89813CL      CL85676   6.808   0.656   2.956 -0.1588 -0.0424  0.0029
89814CL      CL85677   1.194   3.805  11.680  0.0336 -0.0148 -0.0294
89815CL      CL85678   1.846   3.734   5.207  0.0363 -0.4024  0.1026
89816CL      CL85679   5.069   2.182   0.513  0.1922 -0.1850 -0.3338
89817CL      CL85680  10.454   9.410   7.326  0.2562  0.5047 -0.4726
89818CL      CL85681   0.245   1.831   7.989  0.3769  0.2007 -0.1847
89819CL      CL85682   8.198  10.854   5.165 -0.4991 -0.1766  0.0611
89820CL      CL85683   5.442   4.624   8.298 -0.2782 -0.0557 -0.1255
89821CL      CL85684   5.245   5.528   1.235  0.0505  0.1724  0.1218
89822CL      CL85685   0.578   4.305   8.134  0.3245 -0.0312  0.2340
89823CL      CL85686   6.604  13.844   4.646 -0.3856  0.0570 -0.2609
89824CL      CL85687   3.644   6.193   1.494  0.1581 -0.0179  0.0471
89825CL      CL85688   8.867   1.245   5.478 -0.4129 -0.1035  0.0019
89826CL      CL85689   2.355   9.464  13.671  0.2526 -0.3840  0.1349
89827CL      CL85690   7.336   8.498   4.011 -0.5867 -0.1358  0.0991
89828CL      CL85691   0.543   3.681   6.766 -0.0838  0.2568 -0.0205
89829CL      CL85692   7.961   6.195   5.578 -0.4339  0.0052 -0.4535
89830CL      CL85693   5.185  10.127   1.057 -0.0850 -0.2183  0.1361
89831CL      CL85694   9.152   6.922   5.642  0.1811  0.1716 -0.0044
89832CL      CL85695   3.904   6.279   3.226  0.4209  0.4297  0.0608
89833CL      CL85696   2.785   3.984   4.545 -0.0902  0.3006 -0.0817
89834CL      CL85697   8.780   2.880   5.386  0.0173  0.1307 -0.1060
89835CL      CL85698  14.075   0.831  13.557 -0.1710  0.2814  0.5708
89836CL      CL85699   6.242   3.426   2.232  0.1619 -0.2126  0.4532
89837CL      CL85700   1.051   6.611   6.090  0.0522 -0.3431  0.1096
89838CL      CL85701   5.715   4.860   0.157 -0.0025  0.4682 -0.2686
89839CL      CL85702   2.504   5.209   2.050 -0.2404 -0.2486 -0.0300
89840CL      CL85703   4.391   5.401  12.741  0.2122 -0.0534  0.3531
89841CL      CL85704   3.833   1.166  13.779  0.0092 -0.2088 -0.0034
89842CL      CL85705   7.861  10.530   9.385  0.0651 -0.1822 -0.5894
89843CL      CL85706   6.409   5.465   4.741  0.1339  0.2665 -0.1528
89844CL      CL85707   9.998  11.473   9.161 -0.4729 -0.1170 -0.1074
89845CL      CL85708   2.489   3.900   1.780  0.2877  0.0303 -0.3241
89846CL      CL85709   2.020   0.873   5.610  0.0224  0.2804  0.2551
89847CL      CL85710   4.981  10.065   4.260  0.2270 -0.1954 -0.1573
  14.15754  14.15754  14.15754
